Protein in water t=   0.00000 step= 0
325731
    1DC5    H5T    1   7.100  10.040   2.074
    1DC5    O5'    2   7.169   9.981   2.036
    1DC5    C5'    3   7.290  10.051   2.054
    1DC5   H5'1    4   7.309  10.121   1.973
    1DC5   H5'2    5   7.373   9.983   2.060
    1DC5    C4'    6   7.294  10.132   2.186
    1DC5    H4'    7   7.384  10.191   2.188
    1DC5    O4'    8   7.173  10.210   2.196
    1DC5    C1'    9   7.138  10.213   2.332
    1DC5    H1'   10   7.213  10.274   2.375
    1DC5     N1   11   7.005  10.283   2.359
    1DC5     C6   12   6.889  10.214   2.386
    1DC5     H6   13   6.885  10.110   2.371
    1DC5     C5   14   6.780  10.270   2.443
    1DC5     H5   15   6.701  10.206   2.473
    1DC5     C4   16   6.782  10.409   2.474
    1DC5     N4   17   6.683  10.475   2.529
    1DC5    H41   18   6.708  10.568   2.558
    1DC5    H42   19   6.608  10.421   2.564
    1DC5     N3   20   6.888  10.479   2.441
    1DC5     C2   21   7.003  10.417   2.391
    1DC5     O2   22   7.106  10.483   2.384
    1DC5    C3'   23   7.295  10.037   2.303
    1DC5    H3'   24   7.302   9.934   2.269
    1DC5    C2'   25   7.159  10.063   2.369
    1DC5   H2'1   26   7.084  10.000   2.333
    1DC5   H2'2   27   7.174  10.062   2.477
    1DC5    O3'   28   7.393  10.056   2.408
    2DG       P   29   7.533   9.979   2.397
    2DG     O1P   30   7.570   9.960   2.257
    2DG     O2P   31   7.522   9.862   2.493
    2DG     O5'   32   7.630  10.089   2.470
    2DG     C5'   33   7.700  10.197   2.402
    2DG    H5'1   34   7.630  10.220   2.317
    2DG    H5'2   35   7.793  10.163   2.358
    2DG     C4'   36   7.739  10.327   2.474
    2DG     H4'   37   7.816  10.377   2.413
    2DG     O4'   38   7.630  10.413   2.499
    2DG     C1'   39   7.605  10.409   2.641
    2DG     H1'   40   7.648  10.496   2.695
    2DG      N9   41   7.460  10.383   2.653
    2DG      C8   42   7.399  10.263   2.647
    2DG      H8   43   7.457  10.172   2.631
    2DG      N7   44   7.277  10.272   2.680
    2DG      C5   45   7.246  10.407   2.684
    2DG      C6   46   7.121  10.483   2.708
    2DG      O6   47   7.009  10.450   2.741
    2DG      N1   48   7.146  10.616   2.720
    2DG      H1   49   7.069  10.672   2.755
    2DG      C2   50   7.264  10.677   2.695
    2DG      N2   51   7.262  10.809   2.701
    2DG     H21   52   7.180  10.861   2.733
    2DG     H22   53   7.355  10.854   2.703
    2DG      N3   54   7.382  10.619   2.671
    2DG      C4   55   7.360  10.478   2.660
    2DG     C3'   56   7.807  10.303   2.607
    2DG     H3'   57   7.863  10.209   2.607
    2DG     C2'   58   7.690  10.296   2.704
    2DG    H2'1   59   7.644  10.195   2.703
    2DG    H2'2   60   7.718  10.333   2.801
    2DG     O3'   61   7.904  10.416   2.630
    3DC       P   62   7.997  10.434   2.758
    3DC     O1P   63   8.119  10.505   2.715
    3DC     O2P   64   8.007  10.309   2.835
    3DC     O5'   65   7.916  10.536   2.849
    3DC     C5'   66   7.878  10.667   2.809
    3DC    H5'1   67   7.838  10.655   2.711
    3DC    H5'2   68   7.966  10.731   2.809
    3DC     C4'   69   7.766  10.724   2.907
    3DC     H4'   70   7.741  10.833   2.892
    3DC     O4'   71   7.641  10.657   2.886
    3DC     C1'   72   7.558  10.699   2.993
    3DC     H1'   73   7.515  10.792   2.969
    3DC      N1   74   7.448  10.600   2.997
    3DC      C6   75   7.468  10.461   3.010
    3DC      H6   76   7.573  10.423   3.018
    3DC      C5   77   7.363  10.376   3.032
    3DC      H5   78   7.374  10.269   3.041
    3DC      C4   79   7.236  10.433   3.040
    3DC      N4   80   7.130  10.360   3.045
    3DC     H41   81   7.036  10.396   3.028
    3DC     H42   82   7.145  10.258   3.056
    3DC      N3   83   7.214  10.564   3.033
    3DC      C2   84   7.316  10.649   3.016
    3DC      O2   85   7.285  10.769   3.025
    3DC     C3'   86   7.788  10.708   3.058
    3DC     H3'   87   7.826  10.604   3.063
    3DC     C2'   88   7.650  10.721   3.119
    3DC    H2'1   89   7.624  10.648   3.198
    3DC    H2'2   90   7.637  10.820   3.171
    3DC     O3'   91   7.879  10.808   3.109
    4DA       P   92   7.939  10.805   3.255
    4DA     O1P   93   8.042  10.911   3.261
    4DA     O2P   94   7.978  10.666   3.284
    4DA     O5'   95   7.812  10.846   3.357
    4DA     C5'   96   7.760  10.975   3.349
    4DA    H5'1   97   7.708  10.978   3.256
    4DA    H5'2   98   7.838  11.049   3.353
    4DA     C4'   99   7.655  10.996   3.458
    4DA     H4'  100   7.621  11.102   3.466
    4DA     O4'  101   7.539  10.920   3.428
    4DA     C1'  102   7.509  10.842   3.545
    4DA     H1'  103   7.421  10.872   3.602
    4DA      N9  104   7.483  10.707   3.492
    4DA      C8  105   7.571  10.611   3.452
    4DA      H8  106   7.681  10.615   3.462
    4DA      N7  107   7.516  10.499   3.402
    4DA      C5  108   7.375  10.533   3.412
    4DA      C6  109   7.257  10.465   3.389
    4DA      N6  110   7.253  10.339   3.355
    4DA     H61  111   7.155  10.310   3.336
    4DA     H62  112   7.338  10.288   3.351
    4DA      N1  113   7.141  10.527   3.394
    4DA      C2  114   7.135  10.647   3.442
    4DA      H2  115   7.040  10.687   3.466
    4DA      N3  116   7.232  10.719   3.482
    4DA      C4  117   7.358  10.660   3.457
    4DA     C3'  118   7.722  10.966   3.597
    4DA     H3'  119   7.829  10.944   3.598
    4DA     C2'  120   7.641  10.839   3.623
    4DA    H2'1  121   7.708  10.753   3.589
    4DA    H2'2  122   7.616  10.821   3.728
    4DA     O3'  123   7.693  11.072   3.689
    5DT       P  124   7.699  11.069   3.846
    5DT     O1P  125   7.720  11.212   3.884
    5DT     O2P  126   7.793  10.966   3.889
    5DT     O5'  127   7.552  11.027   3.899
    5DT     C5'  128   7.440  11.111   3.865
    5DT    H5'1  129   7.442  11.140   3.756
    5DT    H5'2  130   7.448  11.204   3.919
    5DT     C4'  131   7.313  11.040   3.892
    5DT     H4'  132   7.236  11.112   3.857
    5DT     O4'  133   7.312  10.922   3.810
    5DT     C1'  134   7.236  10.829   3.879
    5DT     H1'  135   7.130  10.852   3.861
    5DT      N1  136   7.281  10.701   3.824
    5DT      C6  137   7.412  10.657   3.838
    5DT      H6  138   7.481  10.722   3.887
    5DT      C5  139   7.453  10.537   3.793
    5DT      C7  140   7.602  10.501   3.809
    5DT     H71  141   7.651  10.596   3.835
    5DT     H72  142   7.612  10.422   3.883
    5DT     H73  143   7.644  10.469   3.717
    5DT      C4  144   7.360  10.450   3.728
    5DT      O4  145   7.389  10.351   3.665
    5DT      N3  146   7.228  10.499   3.726
    5DT      H3  147   7.152  10.439   3.685
    5DT      C2  148   7.181  10.623   3.774
    5DT      O2  149   7.063  10.653   3.753
    5DT     C3'  150   7.289  11.000   4.038
    5DT     H3'  151   7.379  11.013   4.103
    5DT     C2'  152   7.265  10.846   4.028
    5DT    H2'1  153   7.349  10.790   4.061
    5DT    H2'2  154   7.176  10.810   4.085
    5DT     O3'  155   7.185  11.077   4.093
    6DG       P  156   7.137  11.066   4.249
    6DG     O1P  157   7.036  11.174   4.275
    6DG     O2P  158   7.252  11.060   4.336
    6DG     O5'  159   7.060  10.923   4.249
    6DG     C5'  160   6.925  10.895   4.222
    6DG    H5'1  161   6.917  10.916   4.117
    6DG    H5'2  162   6.854  10.964   4.267
    6DG     C4'  163   6.885  10.754   4.261
    6DG     H4'  164   6.776  10.730   4.246
    6DG     O4'  165   6.942  10.664   4.168
    6DG     C1'  166   6.977  10.548   4.236
    6DG     H1'  167   6.894  10.477   4.241
    6DG      N9  168   7.091  10.477   4.169
    6DG      C8  169   7.215  10.525   4.131
    6DG      H8  170   7.263  10.612   4.172
    6DG      N7  171   7.281  10.438   4.057
    6DG      C5  172   7.193  10.334   4.049
    6DG      C6  173   7.214  10.208   3.983
    6DG      O6  174   7.318  10.163   3.934
    6DG      N1  175   7.106  10.125   3.990
    6DG      H1  176   7.121  10.029   3.964
    6DG      C2  177   6.987  10.161   4.044
    6DG      N2  178   6.893  10.073   4.028
    6DG     H21  179   6.911   9.996   3.966
    6DG     H22  180   6.808  10.085   4.079
    6DG      N3  181   6.966  10.269   4.116
    6DG      C4  182   7.074  10.354   4.113
    6DG     C3'  183   6.931  10.720   4.405
    6DG     H3'  184   6.988  10.800   4.452
    6DG     C2'  185   7.020  10.601   4.372
    6DG    H2'1  186   7.128  10.621   4.380
    6DG    H2'2  187   7.014  10.519   4.443
    6DG     O3'  188   6.822  10.672   4.483
    7DT       P  189   6.825  10.633   4.642
    7DT     O1P  190   6.718  10.707   4.716
    7DT     O2P  191   6.964  10.655   4.688
    7DT     O5'  192   6.791  10.470   4.643
    7DT     C5'  193   6.680  10.433   4.562
    7DT    H5'1  194   6.698  10.458   4.460
    7DT    H5'2  195   6.590  10.488   4.598
    7DT     C4'  196   6.645  10.284   4.550
    7DT     H4'  197   6.552  10.284   4.497
    7DT     O4'  198   6.733  10.225   4.456
    7DT     C1'  199   6.808  10.122   4.516
    7DT     H1'  200   6.758  10.028   4.496
    7DT      N1  201   6.947  10.123   4.463
    7DT      C6  202   7.037  10.220   4.495
    7DT      H6  203   7.007  10.290   4.573
    7DT      C5  204   7.162  10.225   4.439
    7DT      C7  205   7.256  10.337   4.481
    7DT     H71  206   7.362  10.310   4.490
    7DT     H72  207   7.259  10.411   4.402
    7DT     H73  208   7.228  10.397   4.569
    7DT      C4  209   7.200  10.124   4.342
    7DT      O4  210   7.291  10.119   4.265
    7DT      N3  211   7.115  10.026   4.315
    7DT      H3  212   7.139   9.954   4.252
    7DT      C2  213   6.989  10.017   4.374
    7DT      O2  214   6.919   9.920   4.360
    7DT     C3'  215   6.645  10.194   4.673
    7DT     H3'  216   6.632  10.252   4.768
    7DT     C2'  217   6.794  10.140   4.668
    7DT    H2'1  218   6.868  10.214   4.705
    7DT    H2'2  219   6.802  10.045   4.722
    7DT     O3'  220   6.543  10.088   4.657
    8DG       P  221   6.505   9.994   4.776
    8DG     O1P  222   6.391   9.919   4.725
    8DG     O2P  223   6.489  10.081   4.895
    8DG     O5'  224   6.616   9.890   4.806
    8DG     C5'  225   6.644   9.783   4.714
    8DG    H5'1  226   6.654   9.830   4.616
    8DG    H5'2  227   6.558   9.712   4.700
    8DG     C4'  228   6.779   9.712   4.732
    8DG     H4'  229   6.776   9.614   4.685
    8DG     O4'  230   6.885   9.782   4.671
    8DG     C1'  231   6.986   9.761   4.759
    8DG     H1'  232   7.013   9.652   4.743
    8DG      N9  233   7.100   9.846   4.733
    8DG      C8  234   7.126   9.974   4.776
    8DG      H8  235   7.048  10.024   4.833
    8DG      N7  236   7.241  10.028   4.733
    8DG      C5  237   7.289   9.928   4.644
    8DG      C6  238   7.410   9.919   4.561
    8DG      O6  239   7.487  10.001   4.534
    8DG      N1  240   7.414   9.802   4.488
    8DG      H1  241   7.461   9.804   4.403
    8DG      C2  242   7.339   9.694   4.511
    8DG      N2  243   7.367   9.590   4.443
    8DG     H21  244   7.430   9.591   4.369
    8DG     H22  245   7.316   9.503   4.459
    8DG      N3  246   7.230   9.693   4.596
    8DG      C4  247   7.214   9.815   4.658
    8DG     C3'  248   6.803   9.696   4.882
    8DG     H3'  249   6.735   9.740   4.953
    8DG     C2'  250   6.933   9.764   4.904
    8DG    H2'1  251   6.924   9.865   4.954
    8DG    H2'2  252   7.007   9.712   4.971
    8DG     O3'  253   6.818   9.557   4.897
    9DC       P  254   6.727   9.472   4.986
    9DC     O1P  255   6.593   9.476   4.916
    9DC     O2P  256   6.737   9.518   5.128
    9DC     O5'  257   6.791   9.328   4.976
    9DC     C5'  258   6.778   9.249   4.858
    9DC    H5'1  259   6.744   9.313   4.780
    9DC    H5'2  260   6.696   9.176   4.865
    9DC     C4'  261   6.912   9.190   4.809
    9DC     H4'  262   6.911   9.140   4.712
    9DC     O4'  263   7.014   9.295   4.798
    9DC     C1'  264   7.128   9.272   4.871
    9DC     H1'  265   7.201   9.194   4.841
    9DC      N1  266   7.208   9.394   4.902
    9DC      C6  267   7.175   9.484   5.002
    9DC      H6  268   7.096   9.461   5.073
    9DC      C5  269   7.242   9.603   5.006
    9DC      H5  270   7.215   9.681   5.071
    9DC      C4  271   7.342   9.626   4.914
    9DC      N4  272   7.406   9.739   4.906
    9DC     H41  273   7.482   9.745   4.844
    9DC     H42  274   7.376   9.826   4.963
    9DC      N3  275   7.375   9.541   4.814
    9DC      C2  276   7.314   9.424   4.814
    9DC      O2  277   7.350   9.346   4.722
    9DC     C3'  278   6.975   9.097   4.920
    9DC     H3'  279   6.903   9.046   4.983
    9DC     C2'  280   7.076   9.193   4.990
    9DC    H2'1  281   7.039   9.262   5.065
    9DC    H2'2  282   7.152   9.135   5.040
    9DC     O3'  283   7.043   9.010   4.839
   10DG       P  284   7.111   8.883   4.905
   10DG     O1P  285   7.112   8.776   4.798
   10DG     O2P  286   7.043   8.853   5.036
   10DG     O5'  287   7.265   8.934   4.926
   10DG     C5'  288   7.363   8.938   4.822
   10DG    H5'1  289   7.391   8.836   4.790
   10DG    H5'2  290   7.322   8.997   4.733
   10DG     C4'  291   7.495   8.997   4.870
   10DG     H4'  292   7.564   8.980   4.787
   10DG     O4'  293   7.490   9.132   4.887
   10DG     C1'  294   7.606   9.162   4.961
   10DG     H1'  295   7.686   9.166   4.889
   10DG      N9  296   7.583   9.288   5.024
   10DG      C8  297   7.484   9.321   5.114
   10DG      H8  298   7.405   9.251   5.142
   10DG      N7  299   7.496   9.445   5.146
   10DG      C5  300   7.611   9.501   5.082
   10DG      C6  301   7.679   9.632   5.077
   10DG      O6  302   7.655   9.734   5.142
   10DG      N1  303   7.783   9.630   4.992
   10DG      H1  304   7.836   9.715   4.999
   10DG      C2  305   7.818   9.525   4.911
   10DG      N2  306   7.914   9.538   4.824
   10DG     H21  307   7.969   9.622   4.814
   10DG     H22  308   7.938   9.459   4.768
   10DG      N3  309   7.762   9.402   4.910
   10DG      C4  310   7.660   9.398   5.000
   10DG     C3'  311   7.558   8.929   4.991
   10DG     H3'  312   7.483   8.885   5.052
   10DG     C2'  313   7.629   9.046   5.057
   10DG    H2'1  314   7.589   9.069   5.153
   10DG    H2'2  315   7.733   9.030   5.073
   10DG     O3'  316   7.640   8.820   4.939
   11DT       P  317   7.750   8.739   5.024
   11DT     O1P  318   7.799   8.632   4.939
   11DT     O2P  319   7.701   8.709   5.158
   11DT     O5'  320   7.879   8.833   5.043
   11DT     C5'  321   7.978   8.857   4.951
   11DT    H5'1  322   7.942   8.901   4.857
   11DT    H5'2  323   8.033   8.767   4.934
   11DT     C4'  324   8.073   8.962   5.005
   11DT     H4'  325   8.154   8.978   4.935
   11DT     O4'  326   8.001   9.082   5.034
   11DT     C1'  327   8.064   9.128   5.146
   11DT     H1'  328   8.171   9.158   5.111
   11DT      N1  329   7.989   9.240   5.209
   11DT      C6  330   7.874   9.231   5.284
   11DT      H6  331   7.816   9.136   5.274
   11DT      C5  332   7.826   9.340   5.347
   11DT      C7  333   7.688   9.342   5.416
   11DT     H71  334   7.629   9.427   5.390
   11DT     H72  335   7.618   9.249   5.384
   11DT     H73  336   7.690   9.357   5.526
   11DT      C4  337   7.890   9.475   5.333
   11DT      O4  338   7.867   9.580   5.390
   11DT      N3  339   7.987   9.472   5.246
   11DT      H3  340   8.040   9.555   5.243
   11DT      C2  341   8.043   9.366   5.176
   11DT      O2  342   8.134   9.390   5.096
   11DT     C3'  343   8.146   8.916   5.129
   11DT     H3'  344   8.119   8.814   5.158
   11DT     C2'  345   8.075   9.001   5.228
   11DT    H2'1  346   7.981   8.961   5.259
   11DT    H2'2  347   8.140   9.028   5.315
   11DT     O3'  348   8.287   8.938   5.132
   12DA       P  349   8.383   8.830   5.188
   12DA     O1P  350   8.384   8.710   5.104
   12DA     O2P  351   8.369   8.817   5.333
   12DA     O5'  352   8.511   8.919   5.152
   12DA     C5'  353   8.550   8.949   5.018
   12DA    H5'1  354   8.460   8.956   4.961
   12DA    H5'2  355   8.600   8.871   4.970
   12DA     C4'  356   8.617   9.087   5.014
   12DA     H4'  357   8.660   9.111   4.912
   12DA     O4'  358   8.521   9.191   5.051
   12DA     C1'  359   8.573   9.261   5.161
   12DA     H1'  360   8.606   9.354   5.121
   12DA      N9  361   8.461   9.291   5.250
   12DA      C8  362   8.374   9.203   5.307
   12DA      H8  363   8.371   9.103   5.263
   12DA      N7  364   8.286   9.262   5.384
   12DA      C5  365   8.331   9.397   5.386
   12DA      C6  366   8.295   9.512   5.454
   12DA      N6  367   8.207   9.525   5.551
   12DA     H61  368   8.190   9.615   5.590
   12DA     H62  369   8.155   9.445   5.586
   12DA      N1  370   8.360   9.626   5.442
   12DA      C2  371   8.453   9.627   5.352
   12DA      H2  372   8.498   9.719   5.339
   12DA      N3  373   8.492   9.531   5.270
   12DA      C4  374   8.432   9.414   5.296
   12DA     C3'  375   8.738   9.087   5.108
   12DA     H3'  376   8.769   8.994   5.139
   12DA     C2'  377   8.687   9.176   5.223
   12DA    H2'1  378   8.646   9.099   5.290
   12DA    H2'2  379   8.757   9.236   5.279
   12DA     O3'  380   8.850   9.142   5.043
   13DD       P  381   9.004   9.128   5.095
   13DD     O1P  382   9.090   9.142   4.978
   13DD     O2P  383   9.009   9.005   5.174
   13DD     O5'  384   9.024   9.255   5.197
   13DD     C5'  385   8.989   9.385   5.163
   13DD    H5'1  386   8.876   9.398   5.164
   13DD    H5'2  387   9.031   9.414   5.071
   13DD     C4'  388   9.038   9.489   5.270
   13DD     H4'  389   9.066   9.581   5.218
   13DD     O4'  390   8.927   9.521   5.356
   13DD     C1'  391   8.973   9.525   5.490
   13DD     H1'  392   9.027   9.618   5.510
   13DD      N1  393   8.861   9.507   5.579
   13DD      C6  394   8.862   9.399   5.679
   13DD      H6  395   8.920   9.317   5.646
   13DD      C5  396   8.729   9.348   5.718
   13DD      C7  397   8.688   9.228   5.629
   13DD     H71  398   8.778   9.163   5.616
   13DD     H72  399   8.611   9.166   5.672
   13DD     H73  400   8.651   9.261   5.535
   13DD      C4  401   8.610   9.456   5.705
   13DD      O4  402   8.499   9.442   5.752
   13DD      N3  403   8.639   9.565   5.631
   13DD      H3  404   8.582   9.649   5.662
   13DD      C2  405   8.768   9.603   5.592
   13DD      O2  406   8.783   9.725   5.580
   13DD     C3'  407   9.161   9.446   5.361
   13DD     H3'  408   9.218   9.354   5.325
   13DD     C2'  409   9.079   9.415   5.488
   13DD    H2'1  410   9.037   9.313   5.478
   13DD    H2'2  411   9.139   9.420   5.575
   13DD     O3'  412   9.250   9.553   5.380
   14DD       P  413   9.386   9.533   5.467
   14DD     O1P  414   9.480   9.642   5.428
   14DD     O2P  415   9.429   9.391   5.462
   14DD     O5'  416   9.331   9.572   5.613
   14DD     C5'  417   9.278   9.706   5.640
   14DD    H5'1  418   9.240   9.756   5.552
   14DD    H5'2  419   9.365   9.763   5.672
   14DD     C4'  420   9.172   9.729   5.750
   14DD     H4'  421   9.145   9.833   5.739
   14DD     O4'  422   9.060   9.649   5.743
   14DD     C1'  423   8.997   9.660   5.861
   14DD     H1'  424   8.952   9.760   5.865
   14DD      N1  425   8.887   9.564   5.877
   14DD      C6  426   8.912   9.425   5.826
   14DD      H6  427   9.016   9.392   5.840
   14DD      C5  428   8.797   9.325   5.865
   14DD      C7  429   8.853   9.180   5.885
   14DD     H71  430   8.903   9.175   5.978
   14DD     H72  431   8.773   9.113   5.881
   14DD     H73  432   8.933   9.154   5.812
   14DD      C4  433   8.702   9.371   5.975
   14DD      O4  434   8.614   9.301   6.020
   14DD      N3  435   8.707   9.501   6.012
   14DD      H3  436   8.632   9.536   6.063
   14DD      C2  437   8.783   9.600   5.954
   14DD      O2  438   8.763   9.716   5.986
   14DD     C3'  439   9.224   9.714   5.889
   14DD     H3'  440   9.305   9.640   5.886
   14DD     C2'  441   9.105   9.649   5.964
   14DD    H2'1  442   9.127   9.548   5.986
   14DD    H2'2  443   9.067   9.702   6.056
   14DD     O3'  444   9.267   9.838   5.948
   15DA       P  445   9.302   9.845   6.099
   15DA     O1P  446   9.392   9.959   6.115
   15DA     O2P  447   9.355   9.713   6.142
   15DA     O5'  448   9.164   9.873   6.184
   15DA     C5'  449   9.113  10.001   6.199
   15DA    H5'1  450   9.039  10.016   6.119
   15DA    H5'2  451   9.196  10.076   6.195
   15DA     C4'  452   9.046  10.037   6.334
   15DA     H4'  453   9.046  10.140   6.335
   15DA     O4'  454   8.920   9.982   6.366
   15DA     C1'  455   8.939   9.870   6.450
   15DA     H1'  456   8.870   9.889   6.539
   15DA      N9  457   8.894   9.734   6.397
   15DA      C8  458   8.965   9.654   6.311
   15DA      H8  459   9.050   9.677   6.265
   15DA      N7  460   8.910   9.536   6.287
   15DA      C5  461   8.793   9.540   6.362
   15DA      C6  462   8.689   9.445   6.393
   15DA      N6  463   8.680   9.319   6.351
   15DA     H61  464   8.598   9.267   6.381
   15DA     H62  465   8.754   9.285   6.291
   15DA      N1  466   8.598   9.488   6.478
   15DA      C2  467   8.603   9.607   6.538
   15DA      H2  468   8.535   9.627   6.623
   15DA      N3  469   8.699   9.695   6.516
   15DA      C4  470   8.786   9.663   6.424
   15DA     C3'  471   9.131  10.002   6.454
   15DA     H3'  472   9.238   9.996   6.427
   15DA     C2'  473   9.083   9.864   6.494
   15DA    H2'1  474   9.139   9.795   6.432
   15DA    H2'2  475   9.078   9.852   6.605
   15DA     O3'  476   9.094  10.105   6.548
   16DT       P  477   9.164  10.121   6.693
   16DT     O1P  478   9.178  10.261   6.741
   16DT     O2P  479   9.286  10.037   6.695
   16DT     O5'  480   9.057  10.056   6.784
   16DT     C5'  481   8.925  10.114   6.811
   16DT    H5'1  482   8.864  10.123   6.721
   16DT    H5'2  483   8.929  10.210   6.865
   16DT     C4'  484   8.849  10.033   6.918
   16DT     H4'  485   8.762  10.086   6.951
   16DT     O4'  486   8.826   9.915   6.849
   16DT     C1'  487   8.846   9.810   6.937
   16DT     H1'  488   8.753   9.808   6.996
   16DT      N1  489   8.870   9.673   6.874
   16DT      C6  490   8.987   9.654   6.799
   16DT      H6  491   9.063   9.731   6.788
   16DT      C5  492   8.999   9.537   6.727
   16DT      C7  493   9.130   9.516   6.653
   16DT     H71  494   9.114   9.542   6.546
   16DT     H72  495   9.212   9.576   6.688
   16DT     H73  496   9.165   9.415   6.656
   16DT      C4  497   8.893   9.435   6.724
   16DT      O4  498   8.888   9.332   6.656
   16DT      N3  499   8.789   9.460   6.806
   16DT      H3  500   8.727   9.389   6.826
   16DT      C2  501   8.762   9.582   6.871
   16DT      O2  502   8.659   9.602   6.933
   16DT     C3'  503   8.931  10.005   7.044
   16DT     H3'  504   9.023  10.064   7.048
   16DT     C2'  505   8.960   9.861   7.025
   16DT    H2'1  506   9.057   9.847   6.978
   16DT    H2'2  507   8.961   9.806   7.113
   16DT     O3'  508   8.857  10.031   7.157
   17DA       P  509   8.916  10.014   7.311
   17DA     O1P  510   8.882  10.140   7.383
   17DA     O2P  511   9.054   9.968   7.304
   17DA     O5'  512   8.817   9.896   7.352
   17DA     C5'  513   8.676   9.915   7.382
   17DA    H5'1  514   8.636   9.976   7.301
   17DA    H5'2  515   8.673   9.984   7.467
   17DA     C4'  516   8.603   9.791   7.413
   17DA     H4'  517   8.499   9.826   7.423
   17DA     O4'  518   8.607   9.698   7.304
   17DA     C1'  519   8.652   9.576   7.353
   17DA     H1'  520   8.566   9.511   7.356
   17DA      N9  521   8.743   9.508   7.260
   17DA      C8  522   8.861   9.556   7.204
   17DA      H8  523   8.897   9.648   7.243
   17DA      N7  524   8.928   9.483   7.118
   17DA      C5  525   8.837   9.375   7.113
   17DA      C6  526   8.835   9.253   7.047
   17DA      N6  527   8.937   9.206   6.979
   17DA     H61  528   8.924   9.118   6.923
   17DA     H62  529   9.009   9.272   6.963
   17DA      N1  530   8.744   9.164   7.074
   17DA      C2  531   8.644   9.195   7.154
   17DA      H2  532   8.560   9.126   7.158
   17DA      N3  533   8.627   9.306   7.220
   17DA      C4  534   8.727   9.390   7.197
   17DA     C3'  535   8.649   9.725   7.539
   17DA     H3'  536   8.717   9.795   7.592
   17DA     C2'  537   8.722   9.598   7.489
   17DA    H2'1  538   8.825   9.630   7.476
   17DA    H2'2  539   8.716   9.516   7.561
   17DA     O3'  540   8.539   9.701   7.628
   18DC       P  541   8.563   9.657   7.780
   18DC     O1P  542   8.430   9.667   7.850
   18DC     O2P  543   8.685   9.721   7.833
   18DC     O5'  544   8.602   9.500   7.766
   18DC     C5'  545   8.508   9.401   7.732
   18DC    H5'1  546   8.450   9.450   7.658
   18DC    H5'2  547   8.443   9.373   7.819
   18DC     C4'  548   8.563   9.270   7.666
   18DC     H4'  549   8.479   9.205   7.648
   18DC     O4'  550   8.643   9.293   7.551
   18DC     C1'  551   8.722   9.175   7.537
   18DC     H1'  552   8.667   9.096   7.493
   18DC      N1  553   8.848   9.196   7.465
   18DC      C6  554   8.911   9.321   7.476
   18DC      H6  555   8.878   9.394   7.551
   18DC      C5  556   9.022   9.341   7.404
   18DC      H5  557   9.074   9.429   7.404
   18DC      C4  558   9.059   9.236   7.316
   18DC      N4  559   9.167   9.246   7.240
   18DC     H41  560   9.195   9.171   7.174
   18DC     H42  561   9.202   9.334   7.220
   18DC      N3  562   9.010   9.118   7.317
   18DC      C2  563   8.900   9.091   7.395
   18DC      O2  564   8.864   8.978   7.408
   18DC     C3'  565   8.660   9.205   7.775
   18DC     H3'  566   8.719   9.288   7.819
   18DC     C2'  567   8.750   9.123   7.681
   18DC    H2'1  568   8.853   9.138   7.704
   18DC    H2'2  569   8.730   9.015   7.696
   18DC     O3'  570   8.591   9.136   7.871
   19DA       P  571   8.666   9.058   7.991
   19DA     O1P  572   8.573   9.029   8.100
   19DA     O2P  573   8.786   9.145   8.023
   19DA     O5'  574   8.712   8.927   7.918
   19DA     C5'  575   8.619   8.824   7.873
   19DA    H5'1  576   8.571   8.855   7.777
   19DA    H5'2  577   8.535   8.811   7.943
   19DA     C4'  578   8.683   8.691   7.844
   19DA     H4'  579   8.606   8.617   7.824
   19DA     O4'  580   8.771   8.699   7.731
   19DA     C1'  581   8.905   8.668   7.767
   19DA     H1'  582   8.930   8.567   7.742
   19DA      N9  583   8.993   8.762   7.692
   19DA      C8  584   9.009   8.896   7.713
   19DA      H8  585   8.961   8.942   7.792
   19DA      N7  586   9.085   8.957   7.631
   19DA      C5  587   9.131   8.848   7.550
   19DA      C6  588   9.213   8.836   7.435
   19DA      N6  589   9.259   8.932   7.360
   19DA     H61  590   9.318   8.904   7.281
   19DA     H62  591   9.205   9.022   7.371
   19DA      N1  592   9.246   8.717   7.390
   19DA      C2  593   9.192   8.611   7.442
   19DA      H2  594   9.223   8.513   7.413
   19DA      N3  595   9.099   8.606   7.535
   19DA      C4  596   9.080   8.726   7.593
   19DA     C3'  597   8.770   8.634   7.960
   19DA     H3'  598   8.750   8.688   8.053
   19DA     C2'  599   8.913   8.678   7.920
   19DA    H2'1  600   8.937   8.776   7.971
   19DA    H2'2  601   8.983   8.598   7.964
   19DA     O3'  602   8.744   8.496   7.963
   20DT       P  603   8.815   8.406   8.077
   20DT     O1P  604   8.724   8.294   8.101
   20DT     O2P  605   8.865   8.483   8.198
   20DT     O5'  606   8.950   8.350   8.011
   20DT     C5'  607   8.942   8.267   7.893
   20DT    H5'1  608   8.901   8.332   7.817
   20DT    H5'2  609   8.869   8.189   7.915
   20DT     C4'  610   9.074   8.212   7.837
   20DT     H4'  611   9.050   8.135   7.758
   20DT     O4'  612   9.138   8.324   7.775
   20DT     C1'  613   9.274   8.314   7.783
   20DT     H1'  614   9.301   8.250   7.702
   20DT      N1  615   9.332   8.448   7.764
   20DT      C6  616   9.306   8.547   7.852
   20DT      H6  617   9.237   8.522   7.932
   20DT      C5  618   9.351   8.675   7.839
   20DT      C7  619   9.292   8.777   7.925
   20DT     H71  620   9.291   8.868   7.873
   20DT     H72  621   9.189   8.753   7.957
   20DT     H73  622   9.362   8.773   8.016
   20DT      C4  623   9.433   8.712   7.724
   20DT      O4  624   9.477   8.825   7.706
   20DT      N3  625   9.449   8.608   7.631
   20DT      H3  626   9.500   8.626   7.548
   20DT      C2  627   9.413   8.478   7.651
   20DT      O2  628   9.448   8.390   7.571
   20DT     C3'  629   9.180   8.150   7.930
   20DT     H3'  630   9.150   8.161   8.035
   20DT     C2'  631   9.302   8.236   7.910
   20DT    H2'1  632   9.317   8.308   7.996
   20DT    H2'2  633   9.389   8.174   7.902
   20DT     O3'  634   9.208   8.012   7.901
   21DT       P  635   9.325   7.917   7.957
   21DT     O1P  636   9.284   7.773   7.941
   21DT     O2P  637   9.351   7.964   8.094
   21DT     O5'  638   9.455   7.940   7.875
   21DT     C5'  639   9.454   7.921   7.731
   21DT    H5'1  640   9.368   7.976   7.689
   21DT    H5'2  641   9.437   7.818   7.709
   21DT     C4'  642   9.582   7.960   7.653
   21DT     H4'  643   9.583   7.916   7.558
   21DT     O4'  644   9.582   8.103   7.644
   21DT     C1'  645   9.712   8.144   7.681
   21DT     H1'  646   9.771   8.139   7.587
   21DT      N1  647   9.706   8.281   7.738
   21DT      C6  648   9.670   8.311   7.865
   21DT      H6  649   9.614   8.240   7.924
   21DT      C5  650   9.675   8.438   7.914
   21DT      C7  651   9.632   8.461   8.062
   21DT     H71  652   9.714   8.495   8.131
   21DT     H72  653   9.553   8.536   8.062
   21DT     H73  654   9.603   8.372   8.113
   21DT      C4  655   9.731   8.541   7.830
   21DT      O4  656   9.725   8.658   7.856
   21DT      N3  657   9.773   8.503   7.707
   21DT      H3  658   9.808   8.579   7.652
   21DT      C2  659   9.756   8.383   7.655
   21DT      O2  660   9.793   8.377   7.536
   21DT     C3'  661   9.710   7.911   7.715
   21DT     H3'  662   9.687   7.830   7.783
   21DT     C2'  663   9.767   8.034   7.781
   21DT    H2'1  664   9.720   8.042   7.878
   21DT    H2'2  665   9.874   8.046   7.795
   21DT     O3'  666   9.796   7.866   7.606
   22DG       P  667   9.942   7.814   7.631
   22DG     O1P  668   9.961   7.713   7.520
   22DG     O2P  669   9.941   7.768   7.774
   22DG     O5'  670  10.028   7.940   7.611
   22DG     C5'  671  10.031   8.010   7.482
   22DG    H5'1  672   9.983   8.112   7.492
   22DG    H5'2  673   9.980   7.958   7.400
   22DG     C4'  674  10.165   8.049   7.434
   22DG     H4'  675  10.164   8.035   7.327
   22DG     O4'  676  10.185   8.188   7.460
   22DG     C1'  677  10.275   8.211   7.571
   22DG     H1'  678  10.359   8.271   7.547
   22DG      N9  679  10.199   8.292   7.661
   22DG      C8  680  10.103   8.254   7.749
   22DG      H8  681  10.080   8.144   7.760
   22DG      N7  682  10.049   8.348   7.821
   22DG      C5  683  10.125   8.462   7.785
   22DG      C6  684  10.115   8.598   7.828
   22DG      O6  685  10.043   8.655   7.909
   22DG      N1  686  10.223   8.677   7.785
   22DG      H1  687  10.239   8.770   7.827
   22DG      C2  688  10.311   8.639   7.687
   22DG      N2  689  10.396   8.727   7.640
   22DG     H21  690  10.395   8.824   7.682
   22DG     H22  691  10.460   8.704   7.580
   22DG      N3  692  10.313   8.514   7.637
   22DG      C4  693  10.219   8.430   7.691
   22DG     C3'  694  10.287   7.976   7.491
   22DG     H3'  695  10.252   7.873   7.516
   22DG     C2'  696  10.317   8.064   7.608
   22DG    H2'1  697  10.260   8.028   7.688
   22DG    H2'2  698  10.422   8.060   7.628
   22DG     O3'  699  10.400   7.986   7.392
   23DT       P  700  10.548   7.953   7.425
   23DT     O1P  701  10.613   7.910   7.300
   23DT     O2P  702  10.558   7.857   7.538
   23DT     O5'  703  10.606   8.090   7.467
   23DT     C5'  704  10.623   8.196   7.368
   23DT    H5'1  705  10.533   8.230   7.319
   23DT    H5'2  706  10.692   8.155   7.298
   23DT     C4'  707  10.683   8.321   7.427
   23DT     H4'  708  10.696   8.392   7.345
   23DT     O4'  709  10.604   8.370   7.533
   23DT     C1'  710  10.692   8.394   7.645
   23DT     H1'  711  10.729   8.492   7.644
   23DT      N1  712  10.609   8.381   7.774
   23DT      C6  713  10.540   8.266   7.812
   23DT      H6  714  10.559   8.178   7.754
   23DT      C5  715  10.449   8.270   7.919
   23DT      C7  716  10.381   8.141   7.959
   23DT     H71  717  10.274   8.156   7.977
   23DT     H72  718  10.403   8.069   7.880
   23DT     H73  719  10.416   8.118   8.058
   23DT      C4  720  10.409   8.400   7.982
   23DT      O4  721  10.323   8.412   8.073
   23DT      N3  722  10.478   8.508   7.932
   23DT      H3  723  10.468   8.603   7.974
   23DT      C2  724  10.578   8.501   7.840
   23DT      O2  725  10.643   8.601   7.833
   23DT     C3'  726  10.826   8.291   7.480
   23DT     H3'  727  10.859   8.196   7.449
   23DT     C2'  728  10.812   8.304   7.631
   23DT    H2'1  729  10.794   8.208   7.676
   23DT    H2'2  730  10.905   8.338   7.682
   23DT     O3'  731  10.917   8.388   7.424
   24DA       P  732  11.071   8.379   7.433
   24DA     O1P  733  11.123   8.475   7.331
   24DA     O2P  734  11.114   8.238   7.418
   24DA     O5'  735  11.106   8.437   7.581
   24DA     C5'  736  11.062   8.571   7.611
   24DA    H5'1  737  10.960   8.572   7.598
   24DA    H5'2  738  11.122   8.636   7.552
   24DA     C4'  739  11.087   8.619   7.757
   24DA     H4'  740  11.107   8.723   7.742
   24DA     O4'  741  10.974   8.599   7.832
   24DA     C1'  742  11.013   8.579   7.971
   24DA     H1'  743  11.037   8.671   8.026
   24DA      N9  744  10.893   8.515   8.039
   24DA      C8  745  10.839   8.393   8.008
   24DA      H8  746  10.880   8.328   7.927
   24DA      N7  747  10.742   8.358   8.093
   24DA      C5  748  10.732   8.475   8.173
   24DA      C6  749  10.645   8.519   8.276
   24DA      N6  750  10.538   8.447   8.308
   24DA     H61  751  10.466   8.488   8.367
   24DA     H62  752  10.520   8.361   8.256
   24DA      N1  753  10.660   8.634   8.342
   24DA      C2  754  10.771   8.699   8.314
   24DA      H2  755  10.800   8.784   8.382
   24DA      N3  756  10.852   8.678   8.211
   24DA      C4  757  10.824   8.568   8.145
   24DA     C3'  758  11.206   8.548   7.842
   24DA     H3'  759  11.271   8.483   7.778
   24DA     C2'  760  11.135   8.492   7.965
   24DA    H2'1  761  11.103   8.392   7.940
   24DA    H2'2  762  11.196   8.495   8.053
   24DA     O3'  763  11.288   8.658   7.886
   25DC       P  764  11.414   8.658   7.989
   25DC     O1P  765  11.507   8.778   7.960
   25DC     O2P  766  11.468   8.519   7.991
   25DC     O5'  767  11.347   8.683   8.133
   25DC     C5'  768  11.341   8.821   8.185
   25DC    H5'1  769  11.260   8.880   8.132
   25DC    H5'2  770  11.422   8.890   8.152
   25DC     C4'  771  11.333   8.844   8.333
   25DC     H4'  772  11.345   8.950   8.356
   25DC     O4'  773  11.200   8.808   8.381
   25DC     C1'  774  11.213   8.704   8.481
   25DC     H1'  775  11.208   8.746   8.583
   25DC      N1  776  11.110   8.593   8.465
   25DC      C6  777  11.122   8.493   8.372
   25DC      H6  778  11.198   8.501   8.294
   25DC      C5  779  11.030   8.391   8.369
   25DC      H5  780  11.028   8.317   8.292
   25DC      C4  781  10.930   8.388   8.467
   25DC      N4  782  10.842   8.292   8.480
   25DC     H41  783  10.770   8.322   8.552
   25DC     H42  784  10.841   8.210   8.418
   25DC      N3  785  10.910   8.490   8.552
   25DC      C2  786  10.995   8.592   8.544
   25DC      O2  787  10.972   8.693   8.607
   25DC     C3'  788  11.438   8.773   8.419
   25DC     H3'  789  11.528   8.736   8.372
   25DC     C2'  790  11.356   8.653   8.464
   25DC    H2'1  791  11.373   8.573   8.389
   25DC    H2'2  792  11.386   8.618   8.559
   25DC     O3'  793  11.450   8.864   8.521
   26DG       P  794  11.585   8.937   8.553
   26DG     O1P  795  11.616   9.004   8.427
   26DG     O2P  796  11.683   8.840   8.608
   26DG     O5'  797  11.549   9.045   8.666
   26DG     C5'  798  11.458   9.152   8.635
   26DG    H5'1  799  11.397   9.120   8.553
   26DG    H5'2  800  11.508   9.249   8.604
   26DG     C4'  801  11.369   9.182   8.757
   26DG     H4'  802  11.320   9.276   8.741
   26DG     O4'  803  11.267   9.075   8.779
   26DG     C1'  804  11.266   9.021   8.909
   26DG     H1'  805  11.187   9.064   8.975
   26DG      N9  806  11.241   8.876   8.892
   26DG      C8  807  11.315   8.784   8.821
   26DG      H8  808  11.411   8.810   8.780
   26DG      N7  809  11.261   8.670   8.801
   26DG      C5  810  11.135   8.683   8.867
   26DG      C6  811  11.037   8.584   8.900
   26DG      O6  812  11.021   8.467   8.870
   26DG      N1  813  10.934   8.633   8.967
   26DG      H1  814  10.863   8.570   9.005
   26DG      C2  815  10.931   8.763   9.002
   26DG      N2  816  10.831   8.796   9.074
   26DG     H21  817  10.778   8.725   9.108
   26DG     H22  818  10.826   8.887   9.105
   26DG      N3  819  11.014   8.859   8.975
   26DG      C4  820  11.128   8.811   8.923
   26DG     C3'  821  11.442   9.191   8.890
   26DG     H3'  822  11.546   9.193   8.879
   26DG     C2'  823  11.405   9.060   8.957
   26DG    H2'1  824  11.476   8.990   8.915
   26DG    H2'2  825  11.406   9.060   9.066
   26DG     O3'  826  11.402   9.303   8.965
   27DC       P  827  11.464   9.344   9.103
   27DC     O1P  828  11.414   9.484   9.134
   27DC     O2P  829  11.610   9.307   9.105
   27DC     O5'  830  11.388   9.254   9.213
   27DC     C5'  831  11.244   9.259   9.221
   27DC    H5'1  832  11.204   9.221   9.125
   27DC    H5'2  833  11.210   9.363   9.217
   27DC     C4'  834  11.174   9.186   9.333
   27DC     H4'  835  11.091   9.242   9.350
   27DC     O4'  836  11.155   9.050   9.301
   27DC     C1'  837  11.231   8.971   9.392
   27DC     H1'  838  11.172   8.938   9.484
   27DC      N1  839  11.277   8.841   9.325
   27DC      C6  840  11.386   8.844   9.252
   27DC      H6  841  11.455   8.930   9.244
   27DC      C5  842  11.409   8.741   9.168
   27DC      H5  843  11.487   8.747   9.097
   27DC      C4  844  11.325   8.630   9.169
   27DC      N4  845  11.350   8.532   9.081
   27DC     H41  846  11.288   8.453   9.081
   27DC     H42  847  11.431   8.526   9.019
   27DC      N3  848  11.221   8.623   9.251
   27DC      C2  849  11.191   8.736   9.323
   27DC      O2  850  11.094   8.743   9.398
   27DC     C3'  851  11.252   9.200   9.461
   27DC     H3'  852  11.315   9.297   9.473
   27DC     C2'  853  11.332   9.068   9.452
   27DC    H2'1  854  11.424   9.067   9.395
   27DC    H2'2  855  11.361   9.032   9.547
   27DC     O3'  856  11.157   9.189   9.573
   28DA       P  857  11.201   9.237   9.711
   28DA     O1P  858  11.082   9.258   9.795
   28DA     O2P  859  11.300   9.345   9.702
   28DA     O5'  860  11.269   9.112   9.768
   28DA     C5'  861  11.183   9.003   9.818
   28DA    H5'1  862  11.099   8.978   9.760
   28DA    H5'2  863  11.162   9.038   9.923
   28DA     C4'  864  11.243   8.857   9.832
   28DA     H4'  865  11.181   8.794   9.879
   28DA     O4'  866  11.275   8.797   9.711
   28DA     C1'  867  11.401   8.732   9.733
   28DA     H1'  868  11.384   8.648   9.803
   28DA      N9  869  11.458   8.682   9.608
   28DA      C8  870  11.575   8.719   9.542
   28DA      H8  871  11.639   8.795   9.581
   28DA      N7  872  11.615   8.644   9.443
   28DA      C5  873  11.519   8.544   9.446
   28DA      C6  874  11.491   8.432   9.372
   28DA      N6  875  11.566   8.386   9.272
   28DA     H61  876  11.526   8.310   9.213
   28DA     H62  877  11.669   8.396   9.262
   28DA      N1  878  11.389   8.349   9.396
   28DA      C2  879  11.303   8.381   9.490
   28DA      H2  880  11.224   8.314   9.503
   28DA      N3  881  11.315   8.490   9.566
   28DA      C4  882  11.419   8.569   9.536
   28DA     C3'  883  11.372   8.872   9.908
   28DA     H3'  884  11.384   8.972   9.953
   28DA     C2'  885  11.479   8.841   9.806
   28DA    H2'1  886  11.500   8.924   9.744
   28DA    H2'2  887  11.571   8.806   9.845
   28DA     O3'  888  11.392   8.770  10.010
   29DT       P  889  11.355   8.808  10.164
   29DT     O1P  890  11.259   8.923  10.165
   29DT     O2P  891  11.485   8.819  10.235
   29DT     O5'  892  11.278   8.687  10.218
   29DT     C5'  893  11.160   8.627  10.165
   29DT    H5'1  894  11.113   8.697  10.095
   29DT    H5'2  895  11.091   8.615  10.253
   29DT     C4'  896  11.187   8.494  10.098
   29DT     H4'  897  11.088   8.457  10.086
   29DT     O4'  898  11.265   8.502   9.980
   29DT     C1'  899  11.299   8.371   9.935
   29DT     H1'  900  11.226   8.314   9.883
   29DT      N1  901  11.423   8.370   9.851
   29DT      C6  902  11.525   8.460   9.869
   29DT      H6  903  11.523   8.534   9.953
   29DT      C5  904  11.632   8.472   9.787
   29DT      C7  905  11.740   8.572   9.816
   29DT     H71  906  11.719   8.629   9.901
   29DT     H72  907  11.830   8.513   9.827
   29DT     H73  908  11.736   8.643   9.736
   29DT      C4  909  11.659   8.368   9.686
   29DT      O4  910  11.749   8.361   9.611
   29DT      N3  911  11.558   8.272   9.678
   29DT      H3  912  11.579   8.194   9.614
   29DT      C2  913  11.447   8.265   9.753
   29DT      O2  914  11.367   8.175   9.740
   29DT     C3'  915  11.281   8.402  10.176
   29DT     H3'  916  11.368   8.461  10.218
   29DT     C2'  917  11.330   8.302  10.070
   29DT    H2'1  918  11.436   8.281  10.086
   29DT    H2'2  919  11.275   8.211  10.068
   29DT     O3'  920  11.206   8.334  10.277
   30DA       P  921  11.277   8.258  10.399
   30DA     O1P  922  11.185   8.243  10.516
   30DA     O2P  923  11.409   8.322  10.428
   30DA     O5'  924  11.310   8.118  10.338
   30DA     C5'  925  11.208   8.016  10.325
   30DA    H5'1  926  11.125   8.066  10.287
   30DA    H5'2  927  11.172   7.985  10.424
   30DA     C4'  928  11.257   7.892  10.242
   30DA     H4'  929  11.160   7.844  10.205
   30DA     O4'  930  11.337   7.951  10.128
   30DA     C1'  931  11.468   7.905  10.150
   30DA     H1'  932  11.480   7.823  10.087
   30DA      N9  933  11.567   8.010  10.115
   30DA      C8  934  11.617   8.108  10.196
   30DA      H8  935  11.575   8.141  10.295
   30DA      N7  936  11.726   8.162  10.151
   30DA      C5  937  11.737   8.112  10.017
   30DA      C6  938  11.814   8.134   9.903
   30DA      N6  939  11.912   8.221   9.904
   30DA     H61  940  11.975   8.240   9.824
   30DA     H62  941  11.919   8.277   9.984
   30DA      N1  942  11.811   8.048   9.797
   30DA      C2  943  11.719   7.953   9.796
   30DA      H2  944  11.712   7.890   9.713
   30DA      N3  945  11.632   7.927   9.894
   30DA      C4  946  11.645   8.010  10.004
   30DA     C3'  947  11.346   7.804  10.329
   30DA     H3'  948  11.327   7.831  10.429
   30DA     C2'  949  11.484   7.850  10.286
   30DA    H2'1  950  11.518   7.926  10.357
   30DA    H2'2  951  11.560   7.777  10.283
   30DA     O3'  952  11.310   7.670  10.296
   31DT       P  953  11.400   7.546  10.334
   31DT     O1P  954  11.310   7.425  10.353
   31DT     O2P  955  11.498   7.581  10.437
   31DT     O5'  956  11.480   7.518  10.189
   31DT     C5'  957  11.404   7.521  10.066
   31DT    H5'1  958  11.390   7.626  10.051
   31DT    H5'2  959  11.321   7.460  10.071
   31DT     C4'  960  11.484   7.485   9.940
   31DT     H4'  961  11.405   7.464   9.867
   31DT     O4'  962  11.583   7.589   9.907
   31DT     C1'  963  11.720   7.540   9.905
   31DT     H1'  964  11.757   7.518   9.808
   31DT      N1  965  11.814   7.638   9.957
   31DT      C6  966  11.809   7.675  10.094
   31DT      H6  967  11.731   7.639  10.157
   31DT      C5  968  11.895   7.766  10.136
   31DT      C7  969  11.903   7.811  10.284
   31DT     H71  970  11.816   7.786  10.348
   31DT     H72  971  11.994   7.761  10.314
   31DT     H73  972  11.924   7.915  10.300
   31DT      C4  973  11.982   7.839  10.046
   31DT      O4  974  12.049   7.939  10.078
   31DT      N3  975  11.986   7.791   9.915
   31DT      H3  976  12.053   7.842   9.859
   31DT      C2  977  11.903   7.692   9.864
   31DT      O2  978  11.902   7.672   9.745
   31DT     C3'  979  11.567   7.360   9.954
   31DT     H3'  980  11.527   7.303  10.033
   31DT     C2'  981  11.708   7.413   9.991
   31DT    H2'1  982  11.710   7.434  10.098
   31DT    H2'2  983  11.787   7.348   9.966
   31DT     O3'  984  11.559   7.301   9.823
   32DG       P  985  11.623   7.163   9.788
   32DG     O1P  986  11.579   7.126   9.652
   32DG     O2P  987  11.613   7.069   9.900
   32DG     O5'  988  11.784   7.198   9.778
   32DG     C5'  989  11.843   7.265   9.675
   32DG    H5'1  990  11.802   7.360   9.664
   32DG    H5'2  991  11.837   7.207   9.582
   32DG     C4'  992  11.985   7.297   9.697
   32DG     H4'  993  12.025   7.338   9.599
   32DG     O4'  994  12.004   7.409   9.787
   32DG     C1'  995  12.130   7.392   9.842
   32DG     H1'  996  12.204   7.430   9.770
   32DG      N9  997  12.147   7.471   9.968
   32DG      C8  998  12.070   7.465  10.079
   32DG      H8  999  11.988   7.395  10.096
   32DG      N7 1000  12.108   7.553  10.171
   32DG      C5 1001  12.218   7.621  10.110
   32DG      C6 1002  12.304   7.726  10.162
   32DG      O6 1003  12.300   7.785  10.269
   32DG      N1 1004  12.408   7.746  10.073
   32DG      H1 1005  12.471   7.827  10.090
   32DG      C2 1006  12.422   7.693   9.945
   32DG      N2 1007  12.530   7.727   9.875
   32DG     H21 1008  12.588   7.800   9.904
   32DG     H22 1009  12.541   7.687   9.786
   32DG      N3 1010  12.338   7.603   9.896
   32DG      C4 1011  12.244   7.571   9.987
   32DG     C3' 1012  12.077   7.178   9.731
   32DG     H3' 1013  12.028   7.082   9.752
   32DG     C2' 1014  12.143   7.240   9.856
   32DG    H2'1 1015  12.099   7.200   9.947
   32DG    H2'2 1016  12.245   7.210   9.867
   32DG     O3' 1017  12.169   7.162   9.628
   33DC3      P 1018  12.298   7.071   9.631
   33DC3    O1P 1019  12.335   7.036   9.491
   33DC3    O2P 1020  12.272   6.956   9.719
   33DC3    O5' 1021  12.408   7.170   9.694
   33DC3    C5' 1022  12.465   7.273   9.610
   33DC3   H5'1 1023  12.385   7.344   9.612
   33DC3   H5'2 1024  12.473   7.231   9.513
   33DC3    C4' 1025  12.596   7.334   9.665
   33DC3    H4' 1026  12.637   7.396   9.583
   33DC3    O4' 1027  12.563   7.412   9.776
   33DC3    C1' 1028  12.651   7.382   9.883
   33DC3    H1' 1029  12.708   7.476   9.885
   33DC3     N1 1030  12.563   7.386  10.008
   33DC3     C6 1031  12.460   7.301  10.023
   33DC3     H6 1032  12.447   7.240   9.931
   33DC3     C5 1033  12.384   7.306  10.135
   33DC3     H5 1034  12.299   7.240  10.146
   33DC3     C4 1035  12.427   7.399  10.238
   33DC3     N4 1036  12.374   7.404  10.353
   33DC3    H41 1037  12.437   7.454  10.413
   33DC3    H42 1038  12.311   7.329  10.373
   33DC3     N3 1039  12.527   7.477  10.226
   33DC3     C2 1040  12.601   7.466  10.115
   33DC3     O2 1041  12.703   7.527  10.128
   33DC3    C3' 1042  12.698   7.223   9.702
   33DC3    H3' 1043  12.652   7.126   9.693
   33DC3    C2' 1044  12.727   7.253   9.845
   33DC3   H2'1 1045  12.692   7.178   9.912
   33DC3   H2'2 1046  12.833   7.267   9.849
   33DC3    O3' 1047  12.824   7.225   9.623
   33DC3    H3T 1048  12.800   7.253   9.535
   34DG5    H5T 1049  13.039   8.185  10.673
   34DG5    O5' 1050  13.052   8.270  10.720
   34DG5    C5' 1051  13.025   8.390  10.643
   34DG5   H5'1 1052  13.082   8.480  10.686
   34DG5   H5'2 1053  12.918   8.406  10.640
   34DG5    C4' 1054  13.077   8.371  10.499
   34DG5    H4' 1055  13.185   8.368  10.516
   34DG5    O4' 1056  13.036   8.238  10.460
   34DG5    C1' 1057  12.930   8.252  10.368
   34DG5    H1' 1058  12.957   8.203  10.273
   34DG5     N9 1059  12.807   8.191  10.417
   34DG5     C8 1060  12.719   8.247  10.512
   34DG5     H8 1061  12.724   8.353  10.540
   34DG5     N7 1062  12.627   8.157  10.555
   34DG5     C5 1063  12.663   8.036  10.486
   34DG5     C6 1064  12.602   7.903  10.479
   34DG5     O6 1065  12.505   7.859  10.547
   34DG5     N1 1066  12.651   7.819  10.385
   34DG5     H1 1067  12.633   7.722  10.394
   34DG5     C2 1068  12.746   7.856  10.295
   34DG5     N2 1069  12.792   7.764  10.217
   34DG5    H21 1070  12.745   7.680  10.192
   34DG5    H22 1071  12.866   7.800  10.157
   34DG5     N3 1072  12.813   7.973  10.306
   34DG5     C4 1073  12.765   8.059  10.399
   34DG5    C3' 1074  13.047   8.463  10.387
   34DG5    H3' 1075  13.032   8.569  10.412
   34DG5    C2' 1076  12.916   8.396  10.332
   34DG5   H2'1 1077  12.839   8.451  10.388
   34DG5   H2'2 1078  12.897   8.395  10.231
   34DG5    O3' 1079  13.153   8.456  10.300
   35DC       P 1080  13.161   8.514  10.154
   35DC     O1P 1081  13.308   8.513  10.119
   35DC     O2P 1082  13.084   8.641  10.165
   35DC     O5' 1083  13.075   8.418  10.073
   35DC     C5' 1084  13.135   8.309  10.001
   35DC    H5'1 1085  13.200   8.249  10.070
   35DC    H5'2 1086  13.203   8.350   9.926
   35DC     C4' 1087  13.029   8.226   9.939
   35DC     H4' 1088  13.085   8.141   9.896
   35DC     O4' 1089  12.930   8.167  10.025
   35DC     C1' 1090  12.804   8.181   9.962
   35DC     H1' 1091  12.794   8.102   9.885
   35DC      N1 1092  12.694   8.166  10.059
   35DC      C6 1093  12.646   8.267  10.141
   35DC      H6 1094  12.681   8.367  10.138
   35DC      C5 1095  12.534   8.244  10.218
   35DC      H5 1096  12.502   8.324  10.283
   35DC      C4 1097  12.487   8.113  10.222
   35DC      N4 1098  12.382   8.079  10.292
   35DC     H41 1099  12.343   7.988  10.267
   35DC     H42 1100  12.335   8.154  10.342
   35DC      N3 1101  12.521   8.015  10.140
   35DC      C2 1102  12.632   8.042  10.060
   35DC      O2 1103  12.664   7.947   9.983
   35DC     C3' 1104  12.949   8.301   9.830
   35DC     H3' 1105  13.004   8.397   9.803
   35DC     C2' 1106  12.810   8.320   9.886
   35DC    H2'1 1107  12.819   8.397   9.958
   35DC    H2'2 1108  12.736   8.344   9.816
   35DC     O3' 1109  12.949   8.218   9.715
   36DA       P 1110  13.062   8.204   9.610
   36DA     O1P 1111  13.180   8.141   9.665
   36DA     O2P 1112  13.078   8.334   9.535
   36DA     O5' 1113  13.026   8.090   9.509
   36DA     C5' 1114  12.928   8.124   9.413
   36DA    H5'1 1115  12.967   8.150   9.308
   36DA    H5'2 1116  12.868   8.215   9.434
   36DA     C4' 1117  12.824   8.009   9.390
   36DA     H4' 1118  12.890   7.925   9.353
   36DA     O4' 1119  12.746   7.976   9.502
   36DA     C1' 1120  12.610   8.012   9.468
   36DA     H1' 1121  12.563   7.912   9.435
   36DA      N9 1122  12.543   8.053   9.592
   36DA      C8 1123  12.584   8.167   9.659
   36DA      H8 1124  12.674   8.219   9.622
   36DA      N7 1125  12.509   8.186   9.764
   36DA      C5 1126  12.412   8.082   9.767
   36DA      C6 1127  12.307   8.037   9.848
   36DA      N6 1128  12.265   8.086   9.963
   36DA     H61 1129  12.193   8.042  10.014
   36DA     H62 1130  12.310   8.169   9.995
   36DA      N1 1131  12.224   7.935   9.809
   36DA      C2 1132  12.253   7.866   9.695
   36DA      H2 1133  12.189   7.786   9.664
   36DA      N3 1134  12.364   7.885   9.621
   36DA      C4 1135  12.439   7.996   9.660
   36DA     C3' 1136  12.731   8.066   9.276
   36DA     H3' 1137  12.776   8.146   9.219
   36DA     C2' 1138  12.608   8.121   9.357
   36DA    H2'1 1139  12.633   8.222   9.399
   36DA    H2'2 1140  12.512   8.115   9.304
   36DA     O3' 1141  12.701   7.952   9.192
   37DT       P 1142  12.587   7.956   9.075
   37DT     O1P 1143  12.631   7.852   8.978
   37DT     O2P 1144  12.569   8.090   9.027
   37DT     O5' 1145  12.456   7.907   9.163
   37DT     C5' 1146  12.421   7.773   9.163
   37DT    H5'1 1147  12.472   7.728   9.252
   37DT    H5'2 1148  12.459   7.722   9.078
   37DT     C4' 1149  12.266   7.749   9.167
   37DT     H4' 1150  12.245   7.640   9.162
   37DT     O4' 1151  12.217   7.798   9.289
   37DT     C1' 1152  12.118   7.898   9.273
   37DT     H1' 1153  12.021   7.844   9.267
   37DT      N1 1154  12.127   8.000   9.381
   37DT      C6 1155  12.208   8.107   9.378
   37DT      H6 1156  12.287   8.125   9.297
   37DT      C5 1157  12.197   8.202   9.477
   37DT      C7 1158  12.277   8.330   9.471
   37DT     H71 1159  12.213   8.416   9.457
   37DT     H72 1160  12.324   8.337   9.570
   37DT     H73 1161  12.345   8.318   9.390
   37DT      C4 1162  12.103   8.192   9.588
   37DT      O4 1163  12.082   8.278   9.675
   37DT      N3 1164  12.029   8.080   9.584
   37DT      H3 1165  11.957   8.063   9.651
   37DT      C2 1166  12.036   7.983   9.484
   37DT      O2 1167  11.969   7.881   9.490
   37DT     C3' 1168  12.186   7.819   9.057
   37DT     H3' 1169  12.247   7.837   8.972
   37DT     C2' 1170  12.154   7.945   9.127
   37DT    H2'1 1171  12.246   8.009   9.132
   37DT    H2'2 1172  12.078   8.002   9.078
   37DT     O3' 1173  12.062   7.750   9.036
   38DA       P 1174  12.043   7.628   8.936
   38DA     O1P 1175  12.156   7.532   8.959
   38DA     O2P 1176  12.021   7.673   8.795
   38DA     O5' 1177  11.909   7.553   8.971
   38DA     C5' 1178  11.904   7.451   9.071
   38DA    H5'1 1179  11.974   7.482   9.159
   38DA    H5'2 1180  11.929   7.355   9.030
   38DA     C4' 1181  11.761   7.443   9.138
   38DA     H4' 1182  11.752   7.349   9.194
   38DA     O4' 1183  11.741   7.546   9.230
   38DA     C1' 1184  11.639   7.634   9.192
   38DA     H1' 1185  11.562   7.628   9.277
   38DA      N9 1186  11.685   7.774   9.198
   38DA      C8 1187  11.782   7.838   9.120
   38DA      H8 1188  11.832   7.787   9.034
   38DA      N7 1189  11.806   7.959   9.154
   38DA      C5 1190  11.729   7.977   9.268
   38DA      C6 1191  11.722   8.080   9.369
   38DA      N6 1192  11.782   8.193   9.369
   38DA     H61 1193  11.763   8.259   9.443
   38DA     H62 1194  11.863   8.211   9.311
   38DA      N1 1195  11.646   8.062   9.477
   38DA      C2 1196  11.575   7.948   9.491
   38DA      H2 1197  11.509   7.939   9.576
   38DA      N3 1198  11.576   7.845   9.410
   38DA      C4 1199  11.656   7.863   9.299
   38DA     C3' 1200  11.639   7.443   9.046
   38DA     H3' 1201  11.671   7.422   8.939
   38DA     C2' 1202  11.590   7.585   9.054
   38DA    H2'1 1203  11.650   7.631   8.975
   38DA    H2'2 1204  11.484   7.595   9.049
   38DA     O3' 1205  11.550   7.341   9.081
   39DT       P 1206  11.409   7.319   9.009
   39DT     O1P 1207  11.351   7.183   9.036
   39DT     O2P 1208  11.422   7.358   8.866
   39DT     O5' 1209  11.319   7.417   9.084
   39DT     C5' 1210  11.303   7.409   9.225
   39DT    H5'1 1211  11.404   7.395   9.271
   39DT    H5'2 1212  11.232   7.327   9.235
   39DT     C4' 1213  11.237   7.529   9.278
   39DT     H4' 1214  11.207   7.511   9.378
   39DT     O4' 1215  11.321   7.642   9.283
   39DT     C1' 1216  11.232   7.748   9.307
   39DT     H1' 1217  11.213   7.759   9.414
   39DT      N1 1218  11.293   7.868   9.245
   39DT      C6 1219  11.326   7.864   9.111
   39DT      H6 1220  11.308   7.774   9.048
   39DT      C5 1221  11.377   7.973   9.045
   39DT      C7 1222  11.432   7.952   8.905
   39DT     H71 1223  11.458   7.849   8.886
   39DT     H72 1224  11.372   7.992   8.821
   39DT     H73 1225  11.522   8.016   8.899
   39DT      C4 1226  11.409   8.094   9.114
   39DT      O4 1227  11.476   8.194   9.077
   39DT      N3 1228  11.371   8.093   9.247
   39DT      H3 1229  11.385   8.172   9.307
   39DT      C2 1230  11.310   7.988   9.315
   39DT      O2 1231  11.273   8.004   9.431
   39DT     C3' 1232  11.107   7.571   9.198
   39DT     H3' 1233  11.121   7.566   9.087
   39DT     C2' 1234  11.099   7.716   9.236
   39DT    H2'1 1235  11.091   7.766   9.142
   39DT    H2'2 1236  11.015   7.731   9.303
   39DT     O3' 1237  10.992   7.494   9.248
   40DG       P 1238  10.839   7.510   9.181
   40DG     O1P 1239  10.768   7.380   9.207
   40DG     O2P 1240  10.853   7.546   9.035
   40DG     O5' 1241  10.769   7.633   9.260
   40DG     C5' 1242  10.754   7.632   9.403
   40DG    H5'1 1243  10.847   7.600   9.451
   40DG    H5'2 1244  10.681   7.552   9.437
   40DG     C4' 1245  10.701   7.768   9.460
   40DG     H4' 1246  10.692   7.758   9.568
   40DG     O4' 1247  10.801   7.868   9.437
   40DG     C1' 1248  10.747   7.976   9.359
   40DG     H1' 1249  10.731   8.059   9.432
   40DG      N9 1250  10.854   8.032   9.267
   40DG      C8 1251  10.892   7.972   9.147
   40DG      H8 1252  10.848   7.887   9.106
   40DG      N7 1253  10.984   8.040   9.078
   40DG      C5 1254  11.000   8.155   9.157
   40DG      C6 1255  11.087   8.267   9.139
   40DG      O6 1256  11.169   8.285   9.050
   40DG      N1 1257  11.069   8.370   9.233
   40DG      H1 1258  11.131   8.454   9.227
   40DG      C2 1259  10.994   8.355   9.341
   40DG      N2 1260  10.968   8.464   9.411
   40DG     H21 1261  11.014   8.551   9.384
   40DG     H22 1262  10.877   8.465   9.462
   40DG      N3 1263  10.916   8.250   9.365
   40DG      C4 1264  10.922   8.155   9.270
   40DG     C3' 1265  10.575   7.827   9.405
   40DG     H3' 1266  10.521   7.752   9.346
   40DG     C2' 1267  10.619   7.926   9.294
   40DG    H2'1 1268  10.635   7.875   9.201
   40DG    H2'2 1269  10.560   8.011   9.275
   40DG     O3' 1270  10.491   7.891   9.500
   41DC       P 1271  10.336   7.885   9.491
   41DC     O1P 1272  10.283   7.823   9.613
   41DC     O2P 1273  10.299   7.836   9.359
   41DC     O5' 1274  10.288   8.042   9.494
   41DC     C5' 1275  10.352   8.137   9.404
   41DC    H5'1 1276  10.319   8.113   9.303
   41DC    H5'2 1277  10.460   8.139   9.403
   41DC     C4' 1278  10.324   8.287   9.448
   41DC     H4' 1279  10.312   8.297   9.554
   41DC     O4' 1280  10.443   8.365   9.407
   41DC     C1' 1281  10.424   8.412   9.270
   41DC     H1' 1282  10.430   8.520   9.273
   41DC      N1 1283  10.523   8.363   9.166
   41DC      C6 1284  10.515   8.242   9.098
   41DC      H6 1285  10.426   8.178   9.110
   41DC      C5 1286  10.605   8.206   9.006
   41DC      H5 1287  10.585   8.110   8.951
   41DC      C4 1288  10.713   8.293   8.984
   41DC      N4 1289  10.805   8.262   8.893
   41DC     H41 1290  10.883   8.327   8.885
   41DC     H42 1291  10.772   8.191   8.827
   41DC      N3 1292  10.722   8.411   9.042
   41DC      C2 1293  10.632   8.452   9.135
   41DC      O2 1294  10.637   8.568   9.188
   41DC     C3' 1295  10.206   8.347   9.368
   41DC     H3' 1296  10.136   8.269   9.354
   41DC     C2' 1297  10.274   8.384   9.243
   41DC    H2'1 1298  10.252   8.303   9.174
   41DC    H2'2 1299  10.236   8.477   9.204
   41DC     O3' 1300  10.145   8.447   9.445
   42DG       P 1301  10.008   8.516   9.410
   42DG     O1P 1302   9.978   8.604   9.524
   42DG     O2P 1303   9.905   8.417   9.375
   42DG     O5' 1304  10.025   8.611   9.293
   42DG     C5' 1305  10.107   8.724   9.310
   42DG    H5'1 1306  10.184   8.702   9.385
   42DG    H5'2 1307  10.052   8.809   9.326
   42DG     C4' 1308  10.179   8.766   9.182
   42DG     H4' 1309  10.234   8.853   9.216
   42DG     O4' 1310  10.275   8.681   9.121
   42DG     C1' 1311  10.261   8.695   8.979
   42DG     H1' 1312  10.314   8.791   8.953
   42DG      N9 1313  10.316   8.577   8.904
   42DG      C8 1314  10.258   8.457   8.871
   42DG      H8 1315  10.161   8.430   8.918
   42DG      N7 1316  10.331   8.382   8.792
   42DG      C5 1317  10.451   8.460   8.775
   42DG      C6 1318  10.574   8.443   8.695
   42DG      O6 1319  10.607   8.350   8.618
   42DG      N1 1320  10.656   8.552   8.694
   42DG      H1 1321  10.735   8.540   8.634
   42DG      C2 1322  10.625   8.666   8.761
   42DG      N2 1323  10.716   8.761   8.743
   42DG     H21 1324  10.799   8.738   8.692
   42DG     H22 1325  10.708   8.855   8.777
   42DG      N3 1326  10.518   8.688   8.840
   42DG      C4 1327  10.436   8.581   8.839
   42DG     C3' 1328  10.080   8.819   9.072
   42DG     H3' 1329   9.976   8.811   9.093
   42DG     C2' 1330  10.112   8.714   8.964
   42DG    H2'1 1331  10.051   8.624   8.979
   42DG    H2'2 1332  10.096   8.759   8.871
   42DG     O3' 1333  10.118   8.953   9.032
   43DT       P 1334  10.016   9.057   8.970
   43DT     O1P 1335   9.950   9.125   9.083
   43DT     O2P 1336   9.925   8.995   8.869
   43DT     O5' 1337  10.109   9.160   8.888
   43DT     C5' 1338  10.228   9.209   8.947
   43DT    H5'1 1339  10.259   9.125   9.007
   43DT    H5'2 1340  10.200   9.292   9.008
   43DT     C4' 1341  10.336   9.237   8.839
   43DT     H4' 1342  10.426   9.278   8.891
   43DT     O4' 1343  10.394   9.112   8.795
   43DT     C1' 1344  10.377   9.110   8.654
   43DT     H1' 1345  10.470   9.155   8.611
   43DT      N1 1346  10.364   8.974   8.595
   43DT      C6 1347  10.255   8.896   8.617
   43DT      H6 1348  10.175   8.948   8.675
   43DT      C5 1349  10.240   8.769   8.566
   43DT      C7 1350  10.108   8.701   8.582
   43DT     H71 1351  10.119   8.614   8.647
   43DT     H72 1352  10.025   8.775   8.615
   43DT     H73 1353  10.079   8.663   8.485
   43DT      C4 1354  10.353   8.710   8.500
   43DT      O4 1355  10.355   8.588   8.472
   43DT      N3 1356  10.461   8.793   8.480
   43DT      H3 1357  10.547   8.754   8.427
   43DT      C2 1358  10.480   8.915   8.539
   43DT      O2 1359  10.588   8.971   8.525
   43DT     C3' 1360  10.294   9.328   8.725
   43DT     H3' 1361  10.202   9.390   8.749
   43DT     C2' 1362  10.269   9.212   8.622
   43DT    H2'1 1363  10.166   9.175   8.634
   43DT    H2'2 1364  10.280   9.251   8.518
   43DT     O3' 1365  10.396   9.420   8.686
   44DA       P 1366  10.368   9.559   8.607
   44DA     O1P 1367  10.484   9.650   8.623
   44DA     O2P 1368  10.234   9.612   8.642
   44DA     O5' 1369  10.365   9.519   8.454
   44DA     C5' 1370  10.479   9.515   8.366
   44DA    H5'1 1371  10.500   9.619   8.355
   44DA    H5'2 1372  10.568   9.463   8.407
   44DA     C4' 1373  10.442   9.451   8.231
   44DA     H4' 1374  10.524   9.461   8.159
   44DA     O4' 1375  10.435   9.314   8.266
   44DA     C1' 1376  10.322   9.259   8.197
   44DA     H1' 1377  10.355   9.259   8.096
   44DA      N9 1378  10.288   9.117   8.234
   44DA      C8 1379  10.175   9.073   8.291
   44DA      H8 1380  10.107   9.138   8.340
   44DA      N7 1381  10.152   8.945   8.284
   44DA      C5 1382  10.265   8.898   8.218
   44DA      C6 1383  10.308   8.767   8.168
   44DA      N6 1384  10.230   8.659   8.166
   44DA     H61 1385  10.271   8.576   8.124
   44DA     H62 1386  10.132   8.668   8.193
   44DA      N1 1387  10.424   8.749   8.103
   44DA      C2 1388  10.494   8.860   8.097
   44DA      H2 1389  10.596   8.850   8.057
   44DA      N3 1390  10.469   8.985   8.130
   44DA      C4 1391  10.346   9.002   8.182
   44DA     C3' 1392  10.310   9.504   8.177
   44DA     H3' 1393  10.272   9.596   8.222
   44DA     C2' 1394  10.222   9.381   8.202
   44DA    H2'1 1395  10.181   9.392   8.301
   44DA    H2'2 1396  10.128   9.375   8.140
   44DA     O3' 1397  10.320   9.521   8.036
   45DC       P 1398  10.278   9.640   7.953
   45DC     O1P 1399  10.337   9.761   8.008
   45DC     O2P 1400  10.133   9.633   7.931
   45DC     O5' 1401  10.348   9.630   7.814
   45DC     C5' 1402  10.486   9.594   7.796
   45DC    H5'1 1403  10.541   9.588   7.892
   45DC    H5'2 1404  10.530   9.671   7.741
   45DC     C4' 1405  10.507   9.465   7.716
   45DC     H4' 1406  10.617   9.462   7.704
   45DC     O4' 1407  10.470   9.356   7.794
   45DC     C1' 1408  10.387   9.274   7.716
   45DC     H1' 1409  10.451   9.208   7.654
   45DC      N1 1410  10.290   9.182   7.787
   45DC      C6 1411  10.181   9.231   7.852
   45DC      H6 1412  10.164   9.336   7.865
   45DC      C5 1413  10.085   9.149   7.905
   45DC      H5 1414   9.992   9.188   7.944
   45DC      C4 1415  10.108   9.011   7.898
   45DC      N4 1416  10.037   8.930   7.962
   45DC     H41 1417  10.067   8.834   7.949
   45DC     H42 1418   9.961   8.960   8.019
   45DC      N3 1419  10.214   8.962   7.842
   45DC      C2 1420  10.303   9.043   7.775
   45DC      O2 1421  10.402   8.991   7.728
   45DC     C3' 1422  10.441   9.455   7.574
   45DC     H3' 1423  10.406   9.551   7.537
   45DC     C2' 1424  10.325   9.364   7.615
   45DC    H2'1 1425  10.245   9.417   7.663
   45DC    H2'2 1426  10.275   9.305   7.538
   45DC     O3' 1427  10.538   9.394   7.486
   46DA       P 1428  10.507   9.368   7.334
   46DA     O1P 1429  10.621   9.394   7.252
   46DA     O2P 1430  10.383   9.446   7.296
   46DA     O5' 1431  10.476   9.208   7.310
   46DA     C5' 1432  10.567   9.098   7.327
   46DA    H5'1 1433  10.658   9.131   7.293
   46DA    H5'2 1434  10.572   9.069   7.429
   46DA     C4' 1435  10.530   8.972   7.253
   46DA     H4' 1436  10.618   8.907   7.237
   46DA     O4' 1437  10.449   8.891   7.335
   46DA     C1' 1438  10.327   8.872   7.272
   46DA     H1' 1439  10.319   8.771   7.228
   46DA      N9 1440  10.222   8.901   7.373
   46DA      C8 1441  10.201   9.021   7.436
   46DA      H8 1442  10.266   9.107   7.429
   46DA      N7 1443  10.107   9.021   7.528
   46DA      C5 1444  10.060   8.892   7.522
   46DA      C6 1445   9.961   8.820   7.587
   46DA      N6 1446   9.883   8.867   7.678
   46DA     H61 1447   9.820   8.800   7.730
   46DA     H62 1448   9.892   8.960   7.713
   46DA      N1 1449   9.945   8.688   7.572
   46DA      C2 1450  10.021   8.631   7.485
   46DA      H2 1451  10.010   8.523   7.474
   46DA      N3 1452  10.111   8.686   7.400
   46DA      C4 1453  10.128   8.819   7.427
   46DA     C3' 1454  10.459   8.989   7.119
   46DA     H3' 1455  10.479   9.091   7.078
   46DA     C2' 1456  10.313   8.984   7.163
   46DA    H2'1 1457  10.272   9.073   7.200
   46DA    H2'2 1458  10.246   8.936   7.092
   46DA     O3' 1459  10.506   8.886   7.040
   47DA       P 1460  10.463   8.872   6.887
   47DA     O1P 1461  10.574   8.804   6.829
   47DA     O2P 1462  10.434   9.001   6.828
   47DA     O5' 1463  10.328   8.785   6.869
   47DA     C5' 1464  10.317   8.652   6.899
   47DA    H5'1 1465  10.386   8.624   6.971
   47DA    H5'2 1466  10.351   8.601   6.803
   47DA     C4' 1467  10.180   8.588   6.947
   47DA     H4' 1468  10.201   8.486   6.982
   47DA     O4' 1469  10.119   8.658   7.053
   47DA     C1' 1470   9.984   8.616   7.047
   47DA     H1' 1471   9.966   8.513   7.079
   47DA      N9 1472   9.903   8.704   7.134
   47DA      C8 1473   9.923   8.840   7.141
   47DA      H8 1474  10.009   8.891   7.095
   47DA      N7 1475   9.840   8.903   7.225
   47DA      C5 1476   9.769   8.791   7.275
   47DA      C6 1477   9.672   8.772   7.379
   47DA      N6 1478   9.636   8.866   7.470
   47DA     H61 1479   9.563   8.845   7.534
   47DA     H62 1480   9.688   8.960   7.474
   47DA      N1 1481   9.625   8.650   7.415
   47DA      C2 1482   9.667   8.548   7.340
   47DA      H2 1483   9.623   8.448   7.365
   47DA      N3 1484   9.757   8.545   7.247
   47DA      C4 1485   9.805   8.671   7.226
   47DA     C3' 1486  10.078   8.588   6.829
   47DA     H3' 1487  10.111   8.669   6.757
   47DA     C2' 1488   9.952   8.616   6.900
   47DA    H2'1 1489   9.924   8.719   6.870
   47DA    H2'2 1490   9.882   8.543   6.873
   47DA     O3' 1491  10.087   8.465   6.755
   48DT       P 1492   9.987   8.432   6.634
   48DT     O1P 1493  10.034   8.304   6.574
   48DT     O2P 1494   9.989   8.550   6.543
   48DT     O5' 1495   9.842   8.396   6.688
   48DT     C5' 1496   9.807   8.273   6.761
   48DT    H5'1 1497   9.863   8.268   6.854
   48DT    H5'2 1498   9.818   8.189   6.688
   48DT     C4' 1499   9.657   8.270   6.807
   48DT     H4' 1500   9.642   8.176   6.851
   48DT     O4' 1501   9.629   8.356   6.915
   48DT     C1' 1502   9.494   8.396   6.907
   48DT     H1' 1503   9.433   8.325   6.952
   48DT      N1 1504   9.481   8.529   6.968
   48DT      C6 1505   9.559   8.636   6.924
   48DT      H6 1506   9.621   8.621   6.839
   48DT      C5 1507   9.556   8.758   6.980
   48DT      C7 1508   9.632   8.868   6.916
   48DT     H71 1509   9.708   8.911   6.978
   48DT     H72 1510   9.679   8.837   6.825
   48DT     H73 1511   9.559   8.947   6.893
   48DT      C4 1512   9.474   8.772   7.096
   48DT      O4 1513   9.466   8.869   7.176
   48DT      N3 1514   9.396   8.666   7.137
   48DT      H3 1515   9.348   8.669   7.230
   48DT      C2 1516   9.398   8.540   7.079
   48DT      O2 1517   9.327   8.450   7.122
   48DT     C3' 1518   9.548   8.288   6.703
   48DT     H3' 1519   9.599   8.311   6.608
   48DT     C2' 1520   9.460   8.402   6.754
   48DT    H2'1 1521   9.493   8.497   6.711
   48DT    H2'2 1522   9.349   8.385   6.729
   48DT     O3' 1523   9.481   8.161   6.690
   49DG       P 1524   9.362   8.139   6.585
   49DG     O1P 1525   9.339   7.993   6.573
   49DG     O2P 1526   9.404   8.215   6.464
   49DG     O5' 1527   9.231   8.199   6.644
   49DG     C5' 1528   9.178   8.157   6.767
   49DG    H5'1 1529   9.268   8.147   6.834
   49DG    H5'2 1530   9.129   8.065   6.766
   49DG     C4' 1531   9.081   8.257   6.833
   49DG     H4' 1532   9.042   8.203   6.920
   49DG     O4' 1533   9.142   8.375   6.875
   49DG     C1' 1534   9.052   8.475   6.839
   49DG     H1' 1535   8.978   8.472   6.911
   49DG      N9 1536   9.110   8.611   6.848
   49DG      C8 1537   9.199   8.682   6.768
   49DG      H8 1538   9.254   8.643   6.683
   49DG      N7 1539   9.226   8.802   6.820
   49DG      C5 1540   9.148   8.805   6.934
   49DG      C6 1541   9.141   8.911   7.036
   49DG      O6 1542   9.204   9.020   7.059
   49DG      N1 1543   9.038   8.889   7.127
   49DG      H1 1544   9.026   8.955   7.203
   49DG      C2 1545   8.989   8.767   7.144
   49DG      N2 1546   8.909   8.747   7.242
   49DG     H21 1547   8.885   8.820   7.306
   49DG     H22 1548   8.854   8.664   7.228
   49DG      N3 1549   9.001   8.664   7.064
   49DG      C4 1550   9.074   8.693   6.952
   49DG     C3' 1551   8.967   8.296   6.734
   49DG     H3' 1552   8.975   8.247   6.638
   49DG     C2' 1553   8.998   8.437   6.704
   49DG    H2'1 1554   9.078   8.438   6.628
   49DG    H2'2 1555   8.906   8.495   6.670
   49DG     O3' 1556   8.839   8.282   6.796
   50DT       P 1557   8.754   8.140   6.788
   50DT     O1P 1558   8.829   8.044   6.876
   50DT     O2P 1559   8.739   8.106   6.643
   50DT     O5' 1560   8.605   8.167   6.849
   50DT     C5' 1561   8.586   8.195   6.980
   50DT    H5'1 1562   8.668   8.165   7.045
   50DT    H5'2 1563   8.502   8.132   7.013
   50DT     C4' 1564   8.543   8.338   7.010
   50DT     H4' 1565   8.509   8.343   7.113
   50DT     O4' 1566   8.641   8.446   6.988
   50DT     C1' 1567   8.568   8.569   6.979
   50DT     H1' 1568   8.565   8.591   7.085
   50DT      N1 1569   8.648   8.680   6.919
   50DT      C6 1570   8.688   8.669   6.789
   50DT      H6 1571   8.671   8.574   6.742
   50DT      C5 1572   8.755   8.772   6.726
   50DT      C7 1573   8.826   8.734   6.599
   50DT     H71 1574   8.836   8.823   6.540
   50DT     H72 1575   8.919   8.689   6.624
   50DT     H73 1576   8.767   8.659   6.545
   50DT      C4 1577   8.787   8.892   6.805
   50DT      O4 1578   8.857   8.983   6.766
   50DT      N3 1579   8.719   8.905   6.922
   50DT      H3 1580   8.721   8.999   6.958
   50DT      C2 1581   8.656   8.805   6.990
   50DT      O2 1582   8.602   8.835   7.096
   50DT     C3' 1583   8.432   8.391   6.921
   50DT     H3' 1584   8.451   8.360   6.818
   50DT     C2' 1585   8.427   8.542   6.918
   50DT    H2'1 1586   8.406   8.582   6.815
   50DT    H2'2 1587   8.361   8.581   6.990
   50DT     O3' 1588   8.307   8.343   6.965
   51DA       P 1589   8.165   8.384   6.897
   51DA     O1P 1590   8.081   8.265   6.929
   51DA     O2P 1591   8.185   8.432   6.759
   51DA     O5' 1592   8.123   8.510   6.982
   51DA     C5' 1593   8.054   8.623   6.928
   51DA    H5'1 1594   7.948   8.595   6.903
   51DA    H5'2 1595   8.096   8.644   6.834
   51DA     C4' 1596   8.071   8.757   7.005
   51DA     H4' 1597   8.021   8.757   7.103
   51DA     O4' 1598   8.209   8.784   7.019
   51DA     C1' 1599   8.235   8.926   7.007
   51DA     H1' 1600   8.273   8.960   7.100
   51DA      N9 1601   8.325   8.954   6.893
   51DA      C8 1602   8.374   8.870   6.791
   51DA      H8 1603   8.343   8.767   6.767
   51DA      N7 1604   8.461   8.930   6.716
   51DA      C5 1605   8.470   9.059   6.769
   51DA      C6 1606   8.540   9.179   6.734
   51DA      N6 1607   8.622   9.188   6.633
   51DA     H61 1608   8.664   9.280   6.623
   51DA     H62 1609   8.646   9.111   6.573
   51DA      N1 1610   8.521   9.288   6.808
   51DA      C2 1611   8.437   9.284   6.910
   51DA      H2 1612   8.424   9.376   6.968
   51DA      N3 1613   8.370   9.181   6.953
   51DA      C4 1614   8.390   9.072   6.880
   51DA     C3' 1615   8.020   8.880   6.923
   51DA     H3' 1616   8.045   8.873   6.817
   51DA     C2' 1617   8.099   8.993   6.989
   51DA    H2'1 1618   8.087   9.088   6.938
   51DA    H2'2 1619   8.056   9.010   7.090
   51DA     O3' 1620   7.880   8.909   6.941
   52DT       P 1621   7.792   8.980   6.831
   52DT     O1P 1622   7.650   8.988   6.877
   52DT     O2P 1623   7.819   8.910   6.706
   52DT     O5' 1624   7.841   9.129   6.810
   52DT     C5' 1625   7.815   9.234   6.913
   52DT    H5'1 1626   7.860   9.207   7.015
   52DT    H5'2 1627   7.711   9.239   6.923
   52DT     C4' 1628   7.865   9.373   6.872
   52DT     H4' 1629   7.840   9.433   6.962
   52DT     O4' 1630   8.009   9.369   6.854
   52DT     C1' 1631   8.039   9.406   6.716
   52DT     H1' 1632   8.068   9.510   6.724
   52DT      N1 1633   8.153   9.328   6.656
   52DT      C6 1634   8.139   9.199   6.613
   52DT      H6 1635   8.052   9.151   6.650
   52DT      C5 1636   8.220   9.141   6.514
   52DT      C7 1637   8.182   8.999   6.467
   52DT     H71 1638   8.125   8.939   6.537
   52DT     H72 1639   8.142   9.007   6.368
   52DT     H73 1640   8.267   8.936   6.440
   52DT      C4 1641   8.343   9.208   6.474
   52DT      O4 1642   8.426   9.168   6.391
   52DT      N3 1643   8.357   9.336   6.534
   52DT      H3 1644   8.440   9.386   6.505
   52DT      C2 1645   8.263   9.402   6.609
   52DT      O2 1646   8.282   9.522   6.644
   52DT     C3' 1647   7.798   9.433   6.743
   52DT     H3' 1648   7.699   9.404   6.716
   52DT     C2' 1649   7.904   9.391   6.640
   52DT    H2'1 1650   7.878   9.292   6.610
   52DT    H2'2 1651   7.892   9.444   6.544
   52DT     O3' 1652   7.795   9.573   6.767
   53DA       P 1653   7.751   9.687   6.661
   53DA     O1P 1654   7.664   9.781   6.738
   53DA     O2P 1655   7.692   9.620   6.543
   53DA     O5' 1656   7.895   9.744   6.621
   53DA     C5' 1657   7.973   9.836   6.707
   53DA    H5'1 1658   8.030   9.779   6.781
   53DA    H5'2 1659   7.894   9.888   6.761
   53DA     C4' 1660   8.050   9.950   6.641
   53DA     H4' 1661   8.058  10.028   6.715
   53DA     O4' 1662   8.174   9.909   6.588
   53DA     C1' 1663   8.157   9.893   6.448
   53DA     H1' 1664   8.230   9.963   6.404
   53DA      N9 1665   8.188   9.756   6.401
   53DA      C8 1666   8.105   9.646   6.402
   53DA      H8 1667   8.008   9.644   6.447
   53DA      N7 1668   8.149   9.551   6.322
   53DA      C5 1669   8.279   9.593   6.288
   53DA      C6 1670   8.386   9.539   6.204
   53DA      N6 1671   8.384   9.419   6.151
   53DA     H61 1672   8.469   9.394   6.104
   53DA     H62 1673   8.309   9.348   6.167
   53DA      N1 1674   8.492   9.608   6.170
   53DA      C2 1675   8.496   9.731   6.214
   53DA      H2 1676   8.588   9.771   6.178
   53DA      N3 1677   8.410   9.799   6.290
   53DA      C4 1678   8.303   9.726   6.327
   53DA     C3' 1679   7.969  10.012   6.529
   53DA     H3' 1680   7.861  10.018   6.549
   53DA     C2' 1681   8.021   9.940   6.404
   53DA    H2'1 1682   7.952   9.856   6.383
   53DA    H2'2 1683   8.025   9.992   6.317
   53DA     O3' 1684   8.008  10.148   6.523
   54DA       P 1685   7.973  10.257   6.399
   54DA     O1P 1686   7.973  10.396   6.456
   54DA     O2P 1687   7.854  10.212   6.322
   54DA     O5' 1688   8.109  10.240   6.312
   54DA     C5' 1689   8.228  10.277   6.369
   54DA    H5'1 1690   8.258  10.216   6.453
   54DA    H5'2 1691   8.208  10.368   6.415
   54DA     C4' 1692   8.347  10.293   6.276
   54DA     H4' 1693   8.433  10.319   6.332
   54DA     O4' 1694   8.376  10.171   6.205
   54DA     C1' 1695   8.360  10.180   6.065
   54DA     H1' 1696   8.449  10.209   6.014
   54DA      N9 1697   8.304  10.048   6.022
   54DA      C8 1698   8.182   9.996   6.044
   54DA      H8 1699   8.104  10.051   6.081
   54DA      N7 1700   8.174   9.871   6.005
   54DA      C5 1701   8.298   9.843   5.949
   54DA      C6 1702   8.356   9.742   5.867
   54DA      N6 1703   8.289   9.632   5.832
   54DA     H61 1704   8.332   9.552   5.788
   54DA     H62 1705   8.193   9.627   5.856
   54DA      N1 1706   8.479   9.748   5.811
   54DA      C2 1707   8.546   9.854   5.845
   54DA      H2 1708   8.646   9.869   5.801
   54DA      N3 1709   8.512   9.957   5.924
   54DA      C4 1710   8.380   9.952   5.958
   54DA     C3' 1711   8.321  10.388   6.163
   54DA     H3' 1712   8.246  10.468   6.169
   54DA     C2' 1713   8.268  10.299   6.043
   54DA    H2'1 1714   8.165  10.279   6.056
   54DA    H2'2 1715   8.284  10.345   5.943
   54DA     O3' 1716   8.451  10.442   6.131
   55DT       P 1717   8.484  10.548   6.023
   55DT     O1P 1718   8.606  10.625   6.078
   55DT     O2P 1719   8.358  10.620   5.996
   55DT     O5' 1720   8.516  10.460   5.888
   55DT     C5' 1721   8.647  10.391   5.881
   55DT    H5'1 1722   8.649  10.306   5.954
   55DT    H5'2 1723   8.729  10.450   5.905
   55DT     C4' 1724   8.660  10.338   5.742
   55DT     H4' 1725   8.768  10.312   5.727
   55DT     O4' 1726   8.590  10.216   5.714
   55DT     C1' 1727   8.513  10.215   5.597
   55DT     H1' 1728   8.577  10.186   5.518
   55DT      N1 1729   8.405  10.121   5.606
   55DT      C6 1730   8.282  10.156   5.662
   55DT      H6 1731   8.264  10.251   5.707
   55DT      C5 1732   8.180  10.064   5.673
   55DT      C7 1733   8.043  10.106   5.724
   55DT     H71 1734   7.965  10.070   5.653
   55DT     H72 1735   8.036  10.059   5.824
   55DT     H73 1736   8.034  10.214   5.730
   55DT      C4 1737   8.198   9.929   5.625
   55DT      O4 1738   8.120   9.839   5.624
   55DT      N3 1739   8.325   9.904   5.581
   55DT      H3 1740   8.342   9.810   5.550
   55DT      C2 1741   8.426   9.991   5.562
   55DT      O2 1742   8.529   9.948   5.513
   55DT     C3' 1743   8.623  10.437   5.633
   55DT     H3' 1744   8.600  10.535   5.666
   55DT     C2' 1745   8.487  10.369   5.588
   55DT    H2'1 1746   8.409  10.410   5.656
   55DT    H2'2 1747   8.458  10.395   5.490
   55DT     O3' 1748   8.725  10.437   5.537
   56DA       P 1749   8.708  10.519   5.396
   56DA     O1P 1750   8.836  10.563   5.333
   56DA     O2P 1751   8.601  10.620   5.413
   56DA     O5' 1752   8.651  10.403   5.310
   56DA     C5' 1753   8.733  10.288   5.286
   56DA    H5'1 1754   8.753  10.232   5.377
   56DA    H5'2 1755   8.828  10.320   5.243
   56DA     C4' 1756   8.688  10.185   5.177
   56DA     H4' 1757   8.782  10.128   5.156
   56DA     O4' 1758   8.590  10.092   5.225
   56DA     C1' 1759   8.489  10.100   5.131
   56DA     H1' 1760   8.515  10.026   5.057
   56DA      N9 1761   8.364  10.072   5.196
   56DA      C8 1762   8.283  10.144   5.284
   56DA      H8 1763   8.298  10.250   5.310
   56DA      N7 1764   8.173  10.079   5.326
   56DA      C5 1765   8.193   9.953   5.264
   56DA      C6 1766   8.113   9.832   5.266
   56DA      N6 1767   7.997   9.816   5.331
   56DA     H61 1768   7.940   9.735   5.309
   56DA     H62 1769   7.961   9.886   5.396
   56DA      N1 1770   8.150   9.728   5.190
   56DA      C2 1771   8.261   9.738   5.114
   56DA      H2 1772   8.303   9.649   5.070
   56DA      N3 1773   8.341   9.847   5.105
   56DA      C4 1774   8.303   9.948   5.182
   56DA     C3' 1775   8.636  10.248   5.052
   56DA     H3' 1776   8.659  10.357   5.040
   56DA     C2' 1777   8.483  10.246   5.071
   56DA    H2'1 1778   8.437  10.311   5.138
   56DA    H2'2 1779   8.435  10.246   4.972
   56DA     O3' 1780   8.679  10.181   4.934
   57DC       P 1781   8.679  10.249   4.786
   57DC     O1P 1782   8.746  10.155   4.692
   57DC     O2P 1783   8.750  10.375   4.805
   57DC     O5' 1784   8.524  10.279   4.741
   57DC     C5' 1785   8.451  10.199   4.652
   57DC    H5'1 1786   8.517  10.170   4.568
   57DC    H5'2 1787   8.363  10.254   4.620
   57DC     C4' 1788   8.402  10.072   4.713
   57DC     H4' 1789   8.484  10.023   4.767
   57DC     O4' 1790   8.301  10.105   4.807
   57DC     C1' 1791   8.235   9.977   4.828
   57DC     H1' 1792   8.287   9.902   4.887
   57DC      N1 1793   8.107   9.995   4.902
   57DC      C6 1794   8.065  10.115   4.961
   57DC      H6 1795   8.115  10.205   4.919
   57DC      C5 1796   7.954  10.125   5.043
   57DC      H5 1797   7.920  10.223   5.077
   57DC      C4 1798   7.889  10.001   5.057
   57DC      N4 1799   7.776   9.993   5.118
   57DC     H41 1800   7.743   9.898   5.141
   57DC     H42 1801   7.742  10.078   5.157
   57DC      N3 1802   7.924   9.885   5.007
   57DC      C2 1803   8.028   9.878   4.923
   57DC      O2 1804   8.050   9.768   4.874
   57DC     C3' 1805   8.332   9.978   4.612
   57DC     H3' 1806   8.283  10.028   4.521
   57DC     C2' 1807   8.211   9.924   4.687
   57DC    H2'1 1808   8.120   9.965   4.639
   57DC    H2'2 1809   8.212   9.816   4.697
   57DC     O3' 1810   8.423   9.876   4.574
   58DG       P 1811   8.429   9.807   4.425
   58DG     O1P 1812   8.565   9.751   4.415
   58DG     O2P 1813   8.401   9.920   4.326
   58DG     O5' 1814   8.317   9.693   4.408
   58DG     C5' 1815   8.326   9.566   4.469
   58DG    H5'1 1816   8.302   9.569   4.571
   58DG    H5'2 1817   8.433   9.539   4.463
   58DG     C4' 1818   8.242   9.456   4.404
   58DG     H4' 1819   8.288   9.356   4.409
   58DG     O4' 1820   8.109   9.459   4.455
   58DG     C1' 1821   8.016   9.522   4.361
   58DG     H1' 1822   7.951   9.439   4.325
   58DG      N9 1823   7.939   9.625   4.434
   58DG      C8 1824   7.974   9.751   4.471
   58DG      H8 1825   8.072   9.791   4.447
   58DG      N7 1826   7.891   9.799   4.562
   58DG      C5 1827   7.792   9.701   4.574
   58DG      C6 1828   7.694   9.698   4.669
   58DG      O6 1829   7.659   9.784   4.747
   58DG      N1 1830   7.623   9.580   4.663
   58DG      H1 1831   7.534   9.574   4.716
   58DG      C2 1832   7.648   9.479   4.583
   58DG      N2 1833   7.577   9.372   4.589
   58DG     H21 1834   7.505   9.363   4.662
   58DG     H22 1835   7.602   9.292   4.541
   58DG      N3 1836   7.747   9.476   4.495
   58DG      C4 1837   7.817   9.593   4.495
   58DG     C3' 1838   8.219   9.478   4.248
   58DG     H3' 1839   8.308   9.534   4.214
   58DG     C2' 1840   8.098   9.564   4.244
   58DG    H2'1 1841   8.125   9.666   4.254
   58DG    H2'2 1842   8.052   9.542   4.152
   58DG     O3' 1843   8.217   9.355   4.188
   59DC       P 1844   8.191   9.328   4.035
   59DC     O1P 1845   8.237   9.190   4.010
   59DC     O2P 1846   8.247   9.439   3.954
   59DC     O5' 1847   8.040   9.332   4.009
   59DC     C5' 1848   7.948   9.236   4.055
   59DC    H5'1 1849   7.959   9.207   4.157
   59DC    H5'2 1850   7.970   9.145   3.996
   59DC     C4' 1851   7.803   9.287   4.026
   59DC     H4' 1852   7.744   9.202   4.054
   59DC     O4' 1853   7.770   9.392   4.111
   59DC     C1' 1854   7.712   9.496   4.032
   59DC     H1' 1855   7.603   9.475   4.011
   59DC      N1 1856   7.722   9.622   4.105
   59DC      C6 1857   7.831   9.707   4.090
   59DC      H6 1858   7.923   9.679   4.034
   59DC      C5 1859   7.826   9.830   4.160
   59DC      H5 1860   7.902   9.900   4.141
   59DC      C4 1861   7.721   9.842   4.251
   59DC      N4 1862   7.714   9.950   4.320
   59DC     H41 1863   7.648   9.942   4.396
   59DC     H42 1864   7.790  10.017   4.315
   59DC      N3 1865   7.624   9.755   4.270
   59DC      C2 1866   7.628   9.638   4.201
   59DC      O2 1867   7.550   9.551   4.234
   59DC     C3' 1868   7.788   9.335   3.881
   59DC     H3' 1869   7.862   9.281   3.824
   59DC     C2' 1870   7.803   9.490   3.900
   59DC    H2'1 1871   7.907   9.512   3.927
   59DC    H2'2 1872   7.766   9.553   3.816
   59DC     O3' 1873   7.654   9.312   3.851
   60DA       P 1874   7.613   9.189   3.754
   60DA     O1P 1875   7.669   9.062   3.808
   60DA     O2P 1876   7.643   9.236   3.617
   60DA     O5' 1877   7.452   9.176   3.776
   60DA     C5' 1878   7.409   9.104   3.890
   60DA    H5'1 1879   7.470   9.134   3.980
   60DA    H5'2 1880   7.426   9.000   3.873
   60DA     C4' 1881   7.253   9.122   3.912
   60DA     H4' 1882   7.227   9.025   3.948
   60DA     O4' 1883   7.225   9.229   4.004
   60DA     C1' 1884   7.166   9.339   3.940
   60DA     H1' 1885   7.064   9.349   3.980
   60DA      N9 1886   7.250   9.466   3.969
   60DA      C8 1887   7.354   9.517   3.885
   60DA      H8 1888   7.390   9.460   3.799
   60DA      N7 1889   7.394   9.639   3.923
   60DA      C5 1890   7.317   9.663   4.039
   60DA      C6 1891   7.307   9.776   4.116
   60DA      N6 1892   7.385   9.883   4.100
   60DA     H61 1893   7.364   9.967   4.151
   60DA     H62 1894   7.466   9.878   4.037
   60DA      N1 1895   7.219   9.782   4.219
   60DA      C2 1896   7.142   9.674   4.243
   60DA      H2 1897   7.075   9.673   4.330
   60DA      N3 1898   7.141   9.565   4.167
   60DA      C4 1899   7.233   9.562   4.065
   60DA     C3' 1900   7.164   9.148   3.796
   60DA     H3' 1901   7.205   9.115   3.705
   60DA     C2' 1902   7.171   9.298   3.792
   60DA    H2'1 1903   7.254   9.335   3.728
   60DA    H2'2 1904   7.086   9.339   3.749
   60DA     O3' 1905   7.036   9.095   3.820
   61DC       P 1906   6.927   9.086   3.702
   61DC     O1P 1907   6.848   8.967   3.735
   61DC     O2P 1908   7.001   9.080   3.579
   61DC     O5' 1909   6.842   9.217   3.710
   61DC     C5' 1910   6.748   9.255   3.813
   61DC    H5'1 1911   6.776   9.230   3.909
   61DC    H5'2 1912   6.654   9.216   3.785
   61DC     C4' 1913   6.732   9.408   3.814
   61DC     H4' 1914   6.668   9.446   3.894
   61DC     O4' 1915   6.852   9.481   3.837
   61DC     C1' 1916   6.829   9.610   3.781
   61DC     H1' 1917   6.756   9.669   3.840
   61DC      N1 1918   6.963   9.680   3.771
   61DC      C6 1919   7.060   9.665   3.671
   61DC      H6 1920   7.039   9.593   3.595
   61DC      C5 1921   7.168   9.743   3.661
   61DC      H5 1922   7.243   9.727   3.586
   61DC      C4 1923   7.176   9.846   3.757
   61DC      N4 1924   7.285   9.919   3.759
   61DC     H41 1925   7.300   9.988   3.831
   61DC     H42 1926   7.351   9.896   3.684
   61DC      N3 1927   7.090   9.865   3.858
   61DC      C2 1928   6.982   9.782   3.864
   61DC      O2 1929   6.896   9.810   3.948
   61DC     C3' 1930   6.667   9.462   3.682
   61DC     H3' 1931   6.660   9.389   3.596
   61DC     C2' 1932   6.763   9.581   3.650
   61DC    H2'1 1933   6.840   9.537   3.583
   61DC    H2'2 1934   6.724   9.667   3.597
   61DC     O3' 1935   6.532   9.494   3.716
   62DA       P 1936   6.448   9.613   3.657
   62DA     O1P 1937   6.306   9.590   3.680
   62DA     O2P 1938   6.484   9.622   3.518
   62DA     O5' 1939   6.491   9.747   3.729
   62DA     C5' 1940   6.463   9.774   3.862
   62DA    H5'1 1941   6.549   9.741   3.934
   62DA    H5'2 1942   6.375   9.723   3.889
   62DA     C4' 1943   6.446   9.925   3.880
   62DA     H4' 1944   6.399   9.938   3.979
   62DA     O4' 1945   6.569   9.993   3.877
   62DA     C1' 1946   6.578  10.073   3.759
   62DA     H1' 1947   6.562  10.173   3.787
   62DA      N9 1948   6.713  10.055   3.696
   62DA      C8 1949   6.768   9.967   3.607
   62DA      H8 1950   6.713   9.875   3.575
   62DA      N7 1951   6.895   9.988   3.573
   62DA      C5 1952   6.926  10.107   3.645
   62DA      C6 1953   7.032  10.197   3.659
   62DA      N6 1954   7.153  10.178   3.612
   62DA     H61 1955   7.225  10.255   3.615
   62DA     H62 1956   7.184  10.101   3.550
   62DA      N1 1957   7.020  10.315   3.717
   62DA      C2 1958   6.905  10.342   3.778
   62DA      H2 1959   6.907  10.436   3.835
   62DA      N3 1960   6.790  10.268   3.780
   62DA      C4 1961   6.810  10.151   3.714
   62DA     C3' 1962   6.354   9.986   3.772
   62DA     H3' 1963   6.288   9.913   3.723
   62DA     C2' 1964   6.458  10.036   3.676
   62DA    H2'1 1965   6.490   9.959   3.611
   62DA    H2'2 1966   6.422  10.121   3.615
   62DA     O3' 1967   6.281  10.085   3.839
   63DT       P 1968   6.179  10.188   3.774
   63DT     O1P 1969   6.113  10.255   3.886
   63DT     O2P 1970   6.096  10.110   3.679
   63DT     O5' 1971   6.259  10.291   3.686
   63DT     C5' 1972   6.338  10.390   3.745
   63DT    H5'1 1973   6.408  10.351   3.813
   63DT    H5'2 1974   6.276  10.451   3.806
   63DT     C4' 1975   6.416  10.468   3.640
   63DT     H4' 1976   6.454  10.568   3.672
   63DT     O4' 1977   6.534  10.411   3.600
   63DT     C1' 1978   6.554  10.457   3.470
   63DT     H1' 1979   6.578  10.570   3.473
   63DT      N1 1980   6.671  10.387   3.415
   63DT      C6 1981   6.654  10.261   3.361
   63DT      H6 1982   6.555  10.215   3.342
   63DT      C5 1983   6.764  10.199   3.303
   63DT      C7 1984   6.738  10.060   3.236
   63DT     H71 1985   6.781   9.979   3.291
   63DT     H72 1986   6.634  10.042   3.234
   63DT     H73 1987   6.775  10.060   3.134
   63DT      C4 1988   6.898  10.248   3.320
   63DT      O4 1989   7.000  10.189   3.295
   63DT      N3 1990   6.899  10.370   3.387
   63DT      H3 1991   6.989  10.412   3.392
   63DT      C2 1992   6.796  10.448   3.425
   63DT      O2 1993   6.814  10.565   3.452
   63DT     C3' 1994   6.327  10.486   3.510
   63DT     H3' 1995   6.231  10.431   3.509
   63DT     C2' 1996   6.419  10.437   3.399
   63DT    H2'1 1997   6.384  10.333   3.380
   63DT    H2'2 1998   6.418  10.489   3.308
   63DT     O3' 1999   6.311  10.621   3.479
   64DG       P 2000   6.185  10.674   3.395
   64DG     O1P 2001   6.075  10.694   3.498
   64DG     O2P 2002   6.162  10.591   3.279
   64DG     O5' 2003   6.233  10.819   3.339
   64DG     C5' 2004   6.247  10.930   3.429
   64DG    H5'1 2005   6.279  10.880   3.520
   64DG    H5'2 2006   6.153  10.977   3.437
   64DG     C4' 2007   6.360  11.024   3.389
   64DG     H4' 2008   6.385  11.094   3.467
   64DG     O4' 2009   6.473  10.939   3.380
   64DG     C1' 2010   6.515  10.933   3.247
   64DG     H1' 2011   6.595  11.000   3.242
   64DG      N9 2012   6.574  10.798   3.212
   64DG      C8 2013   6.505  10.694   3.157
   64DG      H8 2014   6.400  10.695   3.147
   64DG      N7 2015   6.580  10.588   3.133
   64DG      C5 2016   6.710  10.636   3.152
   64DG      C6 2017   6.839  10.572   3.126
   64DG      O6 2018   6.862  10.462   3.082
   64DG      N1 2019   6.947  10.658   3.137
   64DG      H1 2020   7.028  10.617   3.094
   64DG      C2 2021   6.934  10.783   3.180
   64DG      N2 2022   7.045  10.855   3.175
   64DG     H21 2023   7.134  10.818   3.138
   64DG     H22 2024   7.035  10.959   3.190
   64DG      N3 2025   6.816  10.846   3.211
   64DG      C4 2026   6.709  10.763   3.192
   64DG     C3' 2027   6.332  11.083   3.254
   64DG     H3' 2028   6.235  11.098   3.225
   64DG     C2' 2029   6.398  10.981   3.160
   64DG    H2'1 2030   6.330  10.904   3.130
   64DG    H2'2 2031   6.444  11.026   3.071
   64DG     O3' 2032   6.392  11.216   3.269
   65DC       P 2033   6.383  11.321   3.146
   65DC     O1P 2034   6.359  11.448   3.208
   65DC     O2P 2035   6.282  11.286   3.044
   65DC     O5' 2036   6.534  11.309   3.091
   65DC     C5' 2037   6.650  11.339   3.171
   65DC    H5'1 2038   6.657  11.285   3.256
   65DC    H5'2 2039   6.640  11.440   3.203
   65DC     C4' 2040   6.787  11.327   3.099
   65DC     H4' 2041   6.863  11.375   3.157
   65DC     O4' 2042   6.829  11.188   3.078
   65DC     C1' 2043   6.886  11.169   2.952
   65DC     H1' 2044   6.995  11.195   2.966
   65DC      N1 2045   6.859  11.030   2.907
   65DC      C6 2046   6.730  10.982   2.919
   65DC      H6 2047   6.648  11.052   2.959
   65DC      C5 2048   6.702  10.849   2.893
   65DC      H5 2049   6.598  10.812   2.915
   65DC      C4 2050   6.808  10.774   2.838
   65DC      N4 2051   6.802  10.642   2.820
   65DC     H41 2052   6.882  10.604   2.779
   65DC     H42 2053   6.724  10.587   2.847
   65DC      N3 2054   6.929  10.820   2.810
   65DC      C2 2055   6.952  10.947   2.840
   65DC      O2 2056   7.054  10.996   2.788
   65DC     C3' 2057   6.779  11.385   2.951
   65DC     H3' 2058   6.677  11.417   2.924
   65DC     C2' 2059   6.817  11.267   2.859
   65DC    H2'1 2060   6.716  11.219   2.827
   65DC    H2'2 2061   6.874  11.292   2.772
   65DC     O3' 2062   6.872  11.494   2.950
   66DG3      P 2063   6.864  11.609   2.836
   66DG3    O1P 2064   6.951  11.715   2.894
   66DG3    O2P 2065   6.725  11.641   2.799
   66DG3    O5' 2066   6.944  11.549   2.711
   66DG3    C5' 2067   7.074  11.486   2.719
   66DG3   H5'1 2068   7.066  11.406   2.799
   66DG3   H5'2 2069   7.144  11.566   2.730
   66DG3    C4' 2070   7.120  11.419   2.583
   66DG3    H4' 2071   7.224  11.412   2.574
   66DG3    O4' 2072   7.072  11.285   2.577
   66DG3    C1' 2073   6.993  11.274   2.459
   66DG3    H1' 2074   7.044  11.226   2.384
   66DG3     N9 2075   6.886  11.175   2.477
   66DG3     C8 2076   6.759  11.192   2.532
   66DG3     H8 2077   6.724  11.294   2.553
   66DG3     N7 2078   6.690  11.081   2.546
   66DG3     C5 2079   6.778  10.982   2.500
   66DG3     C6 2080   6.770  10.841   2.494
   66DG3     O6 2081   6.674  10.765   2.519
   66DG3     N1 2082   6.884  10.774   2.458
   66DG3     H1 2083   6.881  10.674   2.438
   66DG3     C2 2084   7.002  10.838   2.424
   66DG3     N2 2085   7.108  10.778   2.382
   66DG3    H21 2086   7.116  10.679   2.368
   66DG3    H22 2087   7.177  10.843   2.345
   66DG3     N3 2088   7.013  10.973   2.423
   66DG3     C4 2089   6.902  11.039   2.463
   66DG3    C3' 2090   7.083  11.496   2.452
   66DG3    H3' 2091   7.062  11.598   2.461
   66DG3    C2' 2092   6.954  11.414   2.414
   66DG3   H2'1 2093   6.870  11.448   2.476
   66DG3   H2'2 2094   6.938  11.413   2.305
   66DG3    O3' 2095   7.182  11.476   2.360
   66DG3    H3T 2096   7.177  11.541   2.282
   67SOL     OW 2097   2.810  12.515  11.301
   67SOL    HW1 2098   2.826  12.551  11.214
   67SOL    HW2 2099   2.862  12.435  11.304
   68SOL     OW 2100   8.791  10.113  12.567
   68SOL    HW1 2101   8.836  10.044  12.520
   68SOL    HW2 2102   8.861  10.169  12.601
   69SOL     OW 2103  10.124  11.532   9.236
   69SOL    HW1 2104  10.049  11.475   9.250
   69SOL    HW2 2105  10.124  11.549   9.142
   70SOL     OW 2106   8.416   1.651   0.245
   70SOL    HW1 2107   8.331   1.634   0.286
   70SOL    HW2 2108   8.446   1.566   0.215
   71SOL     OW 2109  12.919  12.434   8.508
   71SOL    HW1 2110  12.873  12.391   8.436
   71SOL    HW2 2111  12.989  12.483   8.465
   72SOL     OW 2112  14.391  10.569   2.047
   72SOL    HW1 2113  14.318  10.567   2.109
   72SOL    HW2 2114  14.377  10.494   1.990
   73SOL     OW 2115   1.321   1.646  11.727
   73SOL    HW1 2116   1.378   1.583  11.683
   73SOL    HW2 2117   1.295   1.707  11.658
   74SOL     OW 2118  11.470   5.349   4.489
   74SOL    HW1 2119  11.376   5.364   4.503
   74SOL    HW2 2120  11.512   5.392   4.564
   75SOL     OW 2121   8.709   6.930   0.312
   75SOL    HW1 2122   8.682   7.016   0.346
   75SOL    HW2 2123   8.630   6.894   0.271
   76SOL     OW 2124   5.837   8.776   3.692
   76SOL    HW1 2125   5.887   8.765   3.611
   76SOL    HW2 2126   5.812   8.868   3.693
   77SOL     OW 2127   5.397  13.200  14.248
   77SOL    HW1 2128   5.456  13.173  14.318
   77SOL    HW2 2129   5.361  13.284  14.278
   78SOL     OW 2130   9.994  11.308  11.554
   78SOL    HW1 2131  10.060  11.372  11.583
   78SOL    HW2 2132   9.942  11.289  11.632
   79SOL     OW 2133   7.635  11.037  11.785
   79SOL    HW1 2134   7.601  11.062  11.699
   79SOL    HW2 2135   7.648  10.943  11.780
   80SOL     OW 2136   1.782   0.214   9.142
   80SOL    HW1 2137   1.837   0.182   9.213
   80SOL    HW2 2138   1.765   0.306   9.164
   81SOL     OW 2139   3.747   4.101   3.311
   81SOL    HW1 2140   3.754   4.157   3.234
   81SOL    HW2 2141   3.816   4.133   3.370
   82SOL     OW 2142   3.950  11.472   7.875
   82SOL    HW1 2143   3.996  11.516   7.803
   82SOL    HW2 2144   3.909  11.396   7.834
   83SOL     OW 2145  14.658  13.843   4.487
   83SOL    HW1 2146  14.579  13.897   4.493
   83SOL    HW2 2147  14.699  13.869   4.405
   84SOL     OW 2148   7.376  10.394   5.941
   84SOL    HW1 2149   7.436  10.334   5.898
   84SOL    HW2 2150   7.348  10.454   5.871
   85SOL     OW 2151   2.148  10.877   6.057
   85SOL    HW1 2152   2.172  10.789   6.026
   85SOL    HW2 2153   2.058  10.867   6.089
   86SOL     OW 2154  11.801   1.292   3.616
   86SOL    HW1 2155  11.707   1.297   3.600
   86SOL    HW2 2156  11.810   1.304   3.711
   87SOL     OW 2157   0.163  11.009   7.592
   87SOL    HW1 2158   0.188  10.919   7.572
   87SOL    HW2 2159   0.220  11.035   7.665
   88SOL     OW 2160   6.537  11.999   8.754
   88SOL    HW1 2161   6.625  11.963   8.763
   88SOL    HW2 2162   6.486  11.932   8.709
   89SOL     OW 2163   4.702  12.922   8.899
   89SOL    HW1 2164   4.707  12.964   8.985
   89SOL    HW2 2165   4.780  12.952   8.853
   90SOL     OW 2166  11.374   1.889   3.119
   90SOL    HW1 2167  11.430   1.818   3.149
   90SOL    HW2 2168  11.289   1.871   3.157
   91SOL     OW 2169  13.625   4.905   3.148
   91SOL    HW1 2170  13.652   4.884   3.059
   91SOL    HW2 2171  13.571   4.984   3.138
   92SOL     OW 2172   7.020   3.739   0.310
   92SOL    HW1 2173   7.012   3.673   0.379
   92SOL    HW2 2174   6.938   3.732   0.262
   93SOL     OW 2175   7.969   5.549  14.304
   93SOL    HW1 2176   7.916   5.483  14.259
   93SOL    HW2 2177   8.051   5.504  14.324
   94SOL     OW 2178  14.302   0.826   3.224
   94SOL    HW1 2179  14.397   0.828   3.239
   94SOL    HW2 2180  14.291   0.853   3.133
   95SOL     OW 2181  10.459   7.122  12.151
   95SOL    HW1 2182  10.544   7.093  12.186
   95SOL    HW2 2183  10.482   7.184  12.082
   96SOL     OW 2184   1.947  12.580   5.198
   96SOL    HW1 2185   1.898  12.624   5.266
   96SOL    HW2 2186   1.981  12.650   5.143
   97SOL     OW 2187  14.168   1.601   9.661
   97SOL    HW1 2188  14.160   1.597   9.757
   97SOL    HW2 2189  14.111   1.532   9.629
   98SOL     OW 2190   9.548  14.634   0.662
   98SOL    HW1 2191   9.577  14.645   0.571
   98SOL    HW2 2192   9.623  14.661   0.715
   99SOL     OW 2193  12.210   1.524   8.900
   99SOL    HW1 2194  12.134   1.573   8.869
   99SOL    HW2 2195  12.223   1.455   8.835
  100SOL     OW 2196   5.216   5.917   6.140
  100SOL    HW1 2197   5.147   5.938   6.204
  100SOL    HW2 2198   5.175   5.857   6.078
  101SOL     OW 2199  10.229   9.765   7.614
  101SOL    HW1 2200  10.258   9.713   7.689
  101SOL    HW2 2201  10.304   9.819   7.591
  102SOL     OW 2202  12.491  14.747   3.216
  102SOL    HW1 2203  12.547  14.699   3.156
  102SOL    HW2 2204  12.458  14.681   3.277
  103SOL     OW 2205   1.835   8.036   3.861
  103SOL    HW1 2206   1.756   7.982   3.871
  103SOL    HW2 2207   1.803   8.126   3.869
  104SOL     OW 2208   2.145   7.273   6.576
  104SOL    HW1 2209   2.148   7.363   6.541
  104SOL    HW2 2210   2.127   7.218   6.500
  105SOL     OW 2211   8.746   6.173   9.880
  105SOL    HW1 2212   8.690   6.100   9.857
  105SOL    HW2 2213   8.717   6.199   9.968
  106SOL     OW 2214   8.860   7.236   4.580
  106SOL    HW1 2215   8.820   7.292   4.647
  106SOL    HW2 2216   8.900   7.298   4.519
  107SOL     OW 2217   3.145  12.949  11.280
  107SOL    HW1 2218   3.106  12.979  11.362
  107SOL    HW2 2219   3.213  12.887  11.308
  108SOL     OW 2220   0.834   1.313   2.894
  108SOL    HW1 2221   0.881   1.271   2.966
  108SOL    HW2 2222   0.819   1.243   2.830
  109SOL     OW 2223   1.906   7.139   0.949
  109SOL    HW1 2224   1.983   7.164   0.898
  109SOL    HW2 2225   1.847   7.215   0.942
  110SOL     OW 2226  14.824   6.476  10.658
  110SOL    HW1 2227  14.759   6.544  10.641
  110SOL    HW2 2228  14.773   6.395  10.667
  111SOL     OW 2229  14.668   7.769   3.867
  111SOL    HW1 2230  14.593   7.821   3.894
  111SOL    HW2 2231  14.683   7.794   3.775
  112SOL     OW 2232   6.723   6.193   5.292
  112SOL    HW1 2233   6.785   6.245   5.240
  112SOL    HW2 2234   6.706   6.246   5.370
  113SOL     OW 2235  11.630   0.363   1.445
  113SOL    HW1 2236  11.721   0.340   1.463
  113SOL    HW2 2237  11.596   0.289   1.394
  114SOL     OW 2238   7.056  14.496   4.148
  114SOL    HW1 2239   6.977  14.447   4.169
  114SOL    HW2 2240   7.111  14.489   4.226
  115SOL     OW 2241   2.168   6.577   9.130
  115SOL    HW1 2242   2.200   6.508   9.189
  115SOL    HW2 2243   2.137   6.646   9.188
  116SOL     OW 2244   7.154   1.387   5.947
  116SOL    HW1 2245   7.204   1.306   5.941
  116SOL    HW2 2246   7.063   1.361   5.934
  117SOL     OW 2247  11.364   2.559   9.572
  117SOL    HW1 2248  11.301   2.496   9.607
  117SOL    HW2 2249  11.359   2.547   9.477
  118SOL     OW 2250  14.092   5.747  13.997
  118SOL    HW1 2251  14.162   5.693  14.035
  118SOL    HW2 2252  14.134   5.791  13.923
  119SOL     OW 2253   3.978  11.202   2.071
  119SOL    HW1 2254   3.988  11.256   2.149
  119SOL    HW2 2255   4.066  11.174   2.049
  120SOL     OW 2256   1.149   0.316   9.888
  120SOL    HW1 2257   1.069   0.270   9.861
  120SOL    HW2 2258   1.171   0.372   9.814
  121SOL     OW 2259  11.014   2.115   2.574
  121SOL    HW1 2260  11.051   2.031   2.604
  121SOL    HW2 2261  11.080   2.149   2.513
  122SOL     OW 2262   5.833   3.207   0.471
  122SOL    HW1 2263   5.782   3.175   0.545
  122SOL    HW2 2264   5.840   3.132   0.413
  123SOL     OW 2265   8.191  14.521   1.434
  123SOL    HW1 2266   8.229  14.502   1.348
  123SOL    HW2 2267   8.208  14.615   1.447
  124SOL     OW 2268  10.416  11.213  11.971
  124SOL    HW1 2269  10.448  11.296  12.008
  124SOL    HW2 2270  10.454  11.208  11.884
  125SOL     OW 2271   7.362  10.740   1.133
  125SOL    HW1 2272   7.305  10.669   1.103
  125SOL    HW2 2273   7.395  10.780   1.053
  126SOL     OW 2274  11.681  12.536   7.256
  126SOL    HW1 2275  11.651  12.457   7.302
  126SOL    HW2 2276  11.763  12.508   7.214
  127SOL     OW 2277   2.839   3.428   1.890
  127SOL    HW1 2278   2.835   3.346   1.841
  127SOL    HW2 2279   2.748   3.453   1.903
  128SOL     OW 2280   7.691   2.224   8.424
  128SOL    HW1 2281   7.669   2.303   8.375
  128SOL    HW2 2282   7.783   2.209   8.406
  129SOL     OW 2283   5.015   8.190  10.683
  129SOL    HW1 2284   5.051   8.277  10.700
  129SOL    HW2 2285   5.040   8.170  10.593
  130SOL     OW 2286   2.047  11.894   0.894
  130SOL    HW1 2287   2.090  11.974   0.923
  130SOL    HW2 2288   2.041  11.840   0.973
  131SOL     OW 2289   5.282   4.042  11.878
  131SOL    HW1 2290   5.344   4.064  11.808
  131SOL    HW2 2291   5.220   4.115  11.879
  132SOL     OW 2292   1.113   9.699  13.263
  132SOL    HW1 2293   1.031   9.729  13.303
  132SOL    HW2 2294   1.106   9.603  13.263
  133SOL     OW 2295  10.562  10.045  13.003
  133SOL    HW1 2296  10.543   9.997  13.084
  133SOL    HW2 2297  10.505  10.122  13.007
  134SOL     OW 2298   7.319   5.345   9.263
  134SOL    HW1 2299   7.348   5.375   9.349
  134SOL    HW2 2300   7.398   5.345   9.209
  135SOL     OW 2301   8.273   6.106  12.170
  135SOL    HW1 2302   8.315   6.191  12.184
  135SOL    HW2 2303   8.340   6.043  12.197
  136SOL     OW 2304  13.172   2.223   4.919
  136SOL    HW1 2305  13.087   2.195   4.883
  136SOL    HW2 2306  13.234   2.157   4.888
  137SOL     OW 2307   2.851  11.268   6.858
  137SOL    HW1 2308   2.914  11.329   6.819
  137SOL    HW2 2309   2.898  11.184   6.862
  138SOL     OW 2310   2.362  14.664   8.656
  138SOL    HW1 2311   2.408  14.725   8.597
  138SOL    HW2 2312   2.378  14.699   8.743
  139SOL     OW 2313   8.057  14.822   7.723
  139SOL    HW1 2314   7.999   0.006   7.761
  139SOL    HW2 2315   7.997  14.756   7.686
  140SOL     OW 2316   6.422   3.613  12.007
  140SOL    HW1 2317   6.460   3.567  12.081
  140SOL    HW2 2318   6.493   3.615  11.942
  141SOL     OW 2319   1.260   3.072   6.985
  141SOL    HW1 2320   1.233   2.981   6.987
  141SOL    HW2 2321   1.197   3.117   7.042
  142SOL     OW 2322   6.437  12.471   2.734
  142SOL    HW1 2323   6.507  12.421   2.693
  142SOL    HW2 2324   6.458  12.468   2.828
  143SOL     OW 2325  14.804  10.541  12.509
  143SOL    HW1 2326  14.789  10.460  12.558
  143SOL    HW2 2327  14.807  10.609  12.575
  144SOL     OW 2328  12.040   4.252   4.115
  144SOL    HW1 2329  11.972   4.288   4.172
  144SOL    HW2 2330  12.118   4.248   4.171
  145SOL     OW 2331   5.491   4.393  12.299
  145SOL    HW1 2332   5.469   4.415  12.208
  145SOL    HW2 2333   5.585   4.410  12.306
  146SOL     OW 2334  14.757   8.996   5.584
  146SOL    HW1 2335  14.691   8.939   5.622
  146SOL    HW2 2336  14.815   8.936   5.536
  147SOL     OW 2337   1.067   9.254   4.960
  147SOL    HW1 2338   1.057   9.331   4.905
  147SOL    HW2 2339   1.002   9.192   4.928
  148SOL     OW 2340  13.643   0.658  11.289
  148SOL    HW1 2341  13.720   0.712  11.274
  148SOL    HW2 2342  13.648   0.590  11.222
  149SOL     OW 2343   6.916   9.225   3.026
  149SOL    HW1 2344   6.875   9.185   3.102
  149SOL    HW2 2345   6.984   9.282   3.062
  150SOL     OW 2346   1.186  10.550  10.025
  150SOL    HW1 2347   1.092  10.562  10.030
  150SOL    HW2 2348   1.200  10.457  10.042
  151SOL     OW 2349  12.494  14.666   7.288
  151SOL    HW1 2350  12.414  14.617   7.308
  151SOL    HW2 2351  12.481  14.751   7.330
  152SOL     OW 2352   0.391   2.150  11.314
  152SOL    HW1 2353   0.332   2.081  11.346
  152SOL    HW2 2354   0.389   2.141  11.219
  153SOL     OW 2355   0.335   6.108   2.872
  153SOL    HW1 2356   0.339   6.044   2.943
  153SOL    HW2 2357   0.287   6.182   2.909
  154SOL     OW 2358   8.659  14.021   2.764
  154SOL    HW1 2359   8.583  14.011   2.822
  154SOL    HW2 2360   8.624  14.003   2.677
  155SOL     OW 2361   6.647   2.900   1.293
  155SOL    HW1 2362   6.601   2.977   1.262
  155SOL    HW2 2363   6.584   2.829   1.284
  156SOL     OW 2364  11.396   3.527   2.708
  156SOL    HW1 2365  11.364   3.536   2.618
  156SOL    HW2 2366  11.491   3.537   2.701
  157SOL     OW 2367  14.487   7.734   9.109
  157SOL    HW1 2368  14.485   7.801   9.177
  157SOL    HW2 2369  14.569   7.751   9.062
  158SOL     OW 2370   4.145   3.234   4.695
  158SOL    HW1 2371   4.083   3.236   4.768
  158SOL    HW2 2372   4.160   3.326   4.674
  159SOL     OW 2373   8.107   6.473  10.564
  159SOL    HW1 2374   8.057   6.486  10.645
  159SOL    HW2 2375   8.119   6.378  10.558
  160SOL     OW 2376   7.780   2.486  12.952
  160SOL    HW1 2377   7.863   2.441  12.969
  160SOL    HW2 2378   7.754   2.456  12.865
  161SOL     OW 2379  10.669   1.543   3.264
  161SOL    HW1 2380  10.640   1.495   3.342
  161SOL    HW2 2381  10.624   1.501   3.191
  162SOL     OW 2382   1.261  10.938   4.727
  162SOL    HW1 2383   1.189  10.942   4.664
  162SOL    HW2 2384   1.234  10.998   4.797
  163SOL     OW 2385   7.206  11.639   4.389
  163SOL    HW1 2386   7.160  11.719   4.362
  163SOL    HW2 2387   7.150  11.568   4.357
  164SOL     OW 2388   2.511   3.803   8.276
  164SOL    HW1 2389   2.528   3.809   8.370
  164SOL    HW2 2390   2.562   3.874   8.238
  165SOL     OW 2391  10.156   1.125   9.978
  165SOL    HW1 2392  10.229   1.174   9.939
  165SOL    HW2 2393  10.191   1.038   9.993
  166SOL     OW 2394   8.992   3.560   7.068
  166SOL    HW1 2395   8.909   3.516   7.085
  166SOL    HW2 2396   8.972   3.653   7.079
  167SOL     OW 2397  13.323   0.636   5.461
  167SOL    HW1 2398  13.398   0.629   5.520
  167SOL    HW2 2399  13.298   0.728   5.465
  168SOL     OW 2400   8.329   7.188   6.466
  168SOL    HW1 2401   8.323   7.098   6.498
  168SOL    HW2 2402   8.321   7.242   6.545
  169SOL     OW 2403   1.925   5.128   6.844
  169SOL    HW1 2404   1.919   5.223   6.852
  169SOL    HW2 2405   1.844   5.102   6.802
  170SOL     OW 2406   5.587   2.721   6.970
  170SOL    HW1 2407   5.544   2.660   6.911
  170SOL    HW2 2408   5.675   2.732   6.934
  171SOL     OW 2409  11.722  13.440   9.692
  171SOL    HW1 2410  11.700  13.447   9.785
  171SOL    HW2 2411  11.711  13.347   9.672
  172SOL     OW 2412  12.354  11.302   9.210
  172SOL    HW1 2413  12.286  11.247   9.250
  172SOL    HW2 2414  12.368  11.264   9.124
  173SOL     OW 2415   3.982   5.327   2.425
  173SOL    HW1 2416   4.050   5.291   2.368
  173SOL    HW2 2417   3.996   5.422   2.423
  174SOL     OW 2418   9.641   1.706   5.233
  174SOL    HW1 2419   9.616   1.693   5.325
  174SOL    HW2 2420   9.585   1.646   5.184
  175SOL     OW 2421  12.432  10.407  14.695
  175SOL    HW1 2422  12.444  10.343  14.625
  175SOL    HW2 2423  12.451  10.359  14.775
  176SOL     OW 2424   7.956   1.723   8.514
  176SOL    HW1 2425   8.023   1.655   8.519
  176SOL    HW2 2426   7.928   1.723   8.422
  177SOL     OW 2427  12.490   2.017  10.617
  177SOL    HW1 2428  12.550   2.091  10.632
  177SOL    HW2 2429  12.487   2.008  10.522
  178SOL     OW 2430   3.935   9.825   7.733
  178SOL    HW1 2431   3.961   9.883   7.661
  178SOL    HW2 2432   3.840   9.821   7.727
  179SOL     OW 2433   0.003   5.701  10.072
  179SOL    HW1 2434  14.813   5.644  10.101
  179SOL    HW2 2435  14.854   5.739   9.990
  180SOL     OW 2436   9.207  14.657   9.563
  180SOL    HW1 2437   9.134  14.711   9.590
  180SOL    HW2 2438   9.168  14.590   9.506
  181SOL     OW 2439   7.100   5.539  13.973
  181SOL    HW1 2440   7.168   5.506  13.914
  181SOL    HW2 2441   7.071   5.461  14.021
  182SOL     OW 2442   4.519   4.480  10.624
  182SOL    HW1 2443   4.469   4.433  10.690
  182SOL    HW2 2444   4.453   4.518  10.566
  183SOL     OW 2445   8.210   6.702  11.100
  183SOL    HW1 2446   8.188   6.795  11.101
  183SOL    HW2 2447   8.128   6.658  11.077
  184SOL     OW 2448   2.188   4.397   5.023
  184SOL    HW1 2449   2.241   4.404   5.103
  184SOL    HW2 2450   2.181   4.303   5.007
  185SOL     OW 2451   2.059   6.229   0.760
  185SOL    HW1 2452   1.966   6.230   0.784
  185SOL    HW2 2453   2.095   6.307   0.800
  186SOL     OW 2454  14.296   9.288   5.666
  186SOL    HW1 2455  14.356   9.226   5.706
  186SOL    HW2 2456  14.296   9.363   5.725
  187SOL     OW 2457   6.090   3.331  13.544
  187SOL    HW1 2458   6.010   3.382  13.534
  187SOL    HW2 2459   6.126   3.324  13.456
  188SOL     OW 2460   8.150   8.075   7.618
  188SOL    HW1 2461   8.209   8.134   7.571
  188SOL    HW2 2462   8.208   8.025   7.676
  189SOL     OW 2463  10.208   6.591   7.898
  189SOL    HW1 2464  10.145   6.522   7.916
  189SOL    HW2 2465  10.156   6.663   7.863
  190SOL     OW 2466   0.224   3.403   5.088
  190SOL    HW1 2467   0.144   3.435   5.130
  190SOL    HW2 2468   0.245   3.323   5.136
  191SOL     OW 2469  11.692   7.530   8.395
  191SOL    HW1 2470  11.688   7.464   8.464
  191SOL    HW2 2471  11.661   7.486   8.316
  192SOL     OW 2472   8.843   3.359  11.100
  192SOL    HW1 2473   8.858   3.427  11.166
  192SOL    HW2 2474   8.825   3.280  11.151
  193SOL     OW 2475  11.355   5.732   2.513
  193SOL    HW1 2476  11.429   5.739   2.454
  193SOL    HW2 2477  11.373   5.654   2.566
  194SOL     OW 2478   6.217   0.662   2.107
  194SOL    HW1 2479   6.291   0.690   2.161
  194SOL    HW2 2480   6.240   0.573   2.080
  195SOL     OW 2481  14.350   7.272  14.646
  195SOL    HW1 2482  14.357   7.348  14.587
  195SOL    HW2 2483  14.422   7.215  14.621
  196SOL     OW 2484   4.498   9.208   9.283
  196SOL    HW1 2485   4.546   9.126   9.279
  196SOL    HW2 2486   4.526   9.249   9.365
  197SOL     OW 2487   5.187   4.318  12.351
  197SOL    HW1 2488   5.172   4.267  12.272
  197SOL    HW2 2489   5.177   4.409  12.324
  198SOL     OW 2490  11.207  10.127   7.087
  198SOL    HW1 2491  11.178  10.039   7.107
  198SOL    HW2 2492  11.138  10.163   7.031
  199SOL     OW 2493   8.969  12.523  14.024
  199SOL    HW1 2494   8.933  12.597  14.072
  199SOL    HW2 2495   9.011  12.562  13.947
  200SOL     OW 2496  14.850   5.548   0.284
  200SOL    HW1 2497  14.775   5.495   0.256
  200SOL    HW2 2498  14.824   5.583   0.369
  201SOL     OW 2499   5.544   3.040   1.421
  201SOL    HW1 2500   5.635   3.017   1.437
  201SOL    HW2 2501   5.497   3.004   1.496
  202SOL     OW 2502   4.731   6.401   6.728
  202SOL    HW1 2503   4.734   6.481   6.676
  202SOL    HW2 2504   4.643   6.367   6.714
  203SOL     OW 2505  12.095  11.184   6.260
  203SOL    HW1 2506  12.120  11.202   6.350
  203SOL    HW2 2507  12.018  11.128   6.267
  204SOL     OW 2508   1.986   0.319  13.975
  204SOL    HW1 2509   2.053   0.251  13.986
  204SOL    HW2 2510   2.033   0.401  13.988
  205SOL     OW 2511  13.793   5.335  11.391
  205SOL    HW1 2512  13.886   5.354  11.382
  205SOL    HW2 2513  13.762   5.323  11.301
  206SOL     OW 2514   0.723  12.056   9.459
  206SOL    HW1 2515   0.638  12.029   9.424
  206SOL    HW2 2516   0.784  12.043   9.386
  207SOL     OW 2517   8.943   4.508   8.405
  207SOL    HW1 2518   8.869   4.518   8.345
  207SOL    HW2 2519   8.920   4.432   8.459
  208SOL     OW 2520   5.680  14.064  11.832
  208SOL    HW1 2521   5.713  14.108  11.910
  208SOL    HW2 2522   5.586  14.058  11.846
  209SOL     OW 2523   6.823   4.339  10.076
  209SOL    HW1 2524   6.811   4.415  10.020
  209SOL    HW2 2525   6.909   4.304  10.051
  210SOL     OW 2526  14.878   1.922   4.431
  210SOL    HW1 2527  14.795   1.894   4.393
  210SOL    HW2 2528   0.017   1.854   4.496
  211SOL     OW 2529   8.857   1.170   1.469
  211SOL    HW1 2530   8.860   1.086   1.515
  211SOL    HW2 2531   8.863   1.146   1.376
  212SOL     OW 2532   6.373   4.779   8.806
  212SOL    HW1 2533   6.374   4.683   8.805
  212SOL    HW2 2534   6.356   4.804   8.715
  213SOL     OW 2535  14.211   6.727   2.147
  213SOL    HW1 2536  14.173   6.731   2.059
  213SOL    HW2 2537  14.304   6.709   2.133
  214SOL     OW 2538  10.006   7.319  10.619
  214SOL    HW1 2539   9.995   7.293  10.528
  214SOL    HW2 2540  10.007   7.415  10.616
  215SOL     OW 2541  13.348   7.777   0.917
  215SOL    HW1 2542  13.412   7.740   0.978
  215SOL    HW2 2543  13.356   7.724   0.838
  216SOL     OW 2544   2.405   2.405   1.874
  216SOL    HW1 2545   2.449   2.361   1.947
  216SOL    HW2 2546   2.312   2.396   1.893
  217SOL     OW 2547   6.597  12.396   6.485
  217SOL    HW1 2548   6.687  12.416   6.460
  217SOL    HW2 2549   6.565  12.339   6.415
  218SOL     OW 2550  13.351   3.629   2.246
  218SOL    HW1 2551  13.439   3.596   2.264
  218SOL    HW2 2552  13.362   3.723   2.236
  219SOL     OW 2553   9.548   5.181  10.257
  219SOL    HW1 2554   9.484   5.159  10.189
  219SOL    HW2 2555   9.503   5.164  10.339
  220SOL     OW 2556  10.596   7.607  11.368
  220SOL    HW1 2557  10.579   7.607  11.462
  220SOL    HW2 2558  10.592   7.514  11.343
  221SOL     OW 2559   5.342   2.313   3.022
  221SOL    HW1 2560   5.377   2.360   3.098
  221SOL    HW2 2561   5.408   2.245   3.003
  222SOL     OW 2562  14.723  12.325   0.179
  222SOL    HW1 2563  14.725  12.298   0.271
  222SOL    HW2 2564  14.798  12.383   0.169
  223SOL     OW 2565  14.715   0.963   0.336
  223SOL    HW1 2566  14.810   0.950   0.342
  223SOL    HW2 2567  14.700   1.047   0.380
  224SOL     OW 2568  12.937   9.613  11.303
  224SOL    HW1 2569  12.886   9.537  11.273
  224SOL    HW2 2570  12.874   9.665  11.353
  225SOL     OW 2571   1.412  11.238   3.161
  225SOL    HW1 2572   1.320  11.226   3.138
  225SOL    HW2 2573   1.444  11.151   3.185
  226SOL     OW 2574   5.530   5.191   8.287
  226SOL    HW1 2575   5.562   5.101   8.285
  226SOL    HW2 2576   5.606   5.244   8.263
  227SOL     OW 2577   3.286   3.135  12.760
  227SOL    HW1 2578   3.200   3.101  12.736
  227SOL    HW2 2579   3.347   3.090  12.702
  228SOL     OW 2580  11.988   1.800   5.717
  228SOL    HW1 2581  12.073   1.823   5.754
  228SOL    HW2 2582  11.937   1.768   5.791
  229SOL     OW 2583   1.943  13.949  14.558
  229SOL    HW1 2584   1.952  14.044  14.567
  229SOL    HW2 2585   1.992  13.928  14.479
  230SOL     OW 2586   3.031  13.605  11.230
  230SOL    HW1 2587   3.074  13.562  11.156
  230SOL    HW2 2588   2.943  13.567  11.232
  231SOL     OW 2589   5.988   7.181  11.151
  231SOL    HW1 2590   5.970   7.106  11.095
  231SOL    HW2 2591   6.083   7.180  11.164
  232SOL     OW 2592  13.217   6.114   7.245
  232SOL    HW1 2593  13.191   6.206   7.231
  232SOL    HW2 2594  13.156   6.064   7.192
  233SOL     OW 2595  11.018   4.219   4.892
  233SOL    HW1 2596  10.931   4.190   4.921
  233SOL    HW2 2597  11.045   4.283   4.957
  234SOL     OW 2598   7.536   2.754   4.464
  234SOL    HW1 2599   7.521   2.733   4.372
  234SOL    HW2 2600   7.451   2.783   4.496
  235SOL     OW 2601   9.456   9.889   3.542
  235SOL    HW1 2602   9.451   9.851   3.455
  235SOL    HW2 2603   9.511   9.829   3.592
  236SOL     OW 2604  12.123  13.324   3.497
  236SOL    HW1 2605  12.211  13.339   3.465
  236SOL    HW2 2606  12.117  13.228   3.506
  237SOL     OW 2607  13.587   3.210   7.004
  237SOL    HW1 2608  13.532   3.277   7.044
  237SOL    HW2 2609  13.578   3.225   6.910
  238SOL     OW 2610  11.545   0.221   5.422
  238SOL    HW1 2611  11.462   0.245   5.463
  238SOL    HW2 2612  11.605   0.292   5.443
  239SOL     OW 2613   2.184   5.828  12.140
  239SOL    HW1 2614   2.219   5.823  12.229
  239SOL    HW2 2615   2.217   5.749  12.097
  240SOL     OW 2616  12.627  13.711  14.430
  240SOL    HW1 2617  12.622  13.635  14.488
  240SOL    HW2 2618  12.591  13.680  14.347
  241SOL     OW 2619   9.252   1.830  10.730
  241SOL    HW1 2620   9.224   1.916  10.698
  241SOL    HW2 2621   9.347   1.835  10.733
  242SOL     OW 2622   8.184   6.001   8.168
  242SOL    HW1 2623   8.261   6.011   8.112
  242SOL    HW2 2624   8.121   6.065   8.135
  243SOL     OW 2625  10.805   9.126   3.131
  243SOL    HW1 2626  10.721   9.160   3.160
  243SOL    HW2 2627  10.784   9.043   3.089
  244SOL     OW 2628   1.338  10.412  11.952
  244SOL    HW1 2629   1.348  10.350  11.879
  244SOL    HW2 2630   1.291  10.486  11.914
  245SOL     OW 2631   9.109   4.576   1.159
  245SOL    HW1 2632   9.156   4.659   1.160
  245SOL    HW2 2633   9.128   4.539   1.073
  246SOL     OW 2634   8.913  14.387   7.268
  246SOL    HW1 2635   8.955  14.372   7.353
  246SOL    HW2 2636   8.859  14.465   7.282
  247SOL     OW 2637   6.236  13.637   6.846
  247SOL    HW1 2638   6.247  13.601   6.758
  247SOL    HW2 2639   6.292  13.714   6.847
  248SOL     OW 2640  10.576  10.596   5.078
  248SOL    HW1 2641  10.545  10.560   5.161
  248SOL    HW2 2642  10.648  10.654   5.103
  249SOL     OW 2643  11.353   3.453   6.402
  249SOL    HW1 2644  11.375   3.376   6.455
  249SOL    HW2 2645  11.435   3.502   6.395
  250SOL     OW 2646   7.383   2.510   1.369
  250SOL    HW1 2647   7.293   2.526   1.342
  250SOL    HW2 2648   7.375   2.481   1.460
  251SOL     OW 2649   6.071   7.849  10.084
  251SOL    HW1 2650   6.132   7.783  10.051
  251SOL    HW2 2651   6.016   7.872  10.010
  252SOL     OW 2652  13.534   5.262   7.685
  252SOL    HW1 2653  13.444   5.237   7.707
  252SOL    HW2 2654  13.587   5.189   7.718
  253SOL     OW 2655   2.974   3.355  11.136
  253SOL    HW1 2656   2.931   3.299  11.072
  253SOL    HW2 2657   3.057   3.312  11.154
  254SOL     OW 2658   1.429   1.680   1.810
  254SOL    HW1 2659   1.377   1.760   1.819
  254SOL    HW2 2660   1.493   1.686   1.881
  255SOL     OW 2661   1.124  13.895   2.394
  255SOL    HW1 2662   1.189  13.857   2.336
  255SOL    HW2 2663   1.040  13.866   2.359
  256SOL     OW 2664   7.820  14.047   9.640
  256SOL    HW1 2665   7.862  13.967   9.608
  256SOL    HW2 2666   7.744  14.016   9.688
  257SOL     OW 2667  14.025   5.184  10.357
  257SOL    HW1 2668  14.058   5.239  10.427
  257SOL    HW2 2669  13.931   5.203  10.354
  258SOL     OW 2670   6.260  14.827   2.491
  258SOL    HW1 2671   6.188  14.796   2.545
  258SOL    HW2 2672   6.219   0.001   2.425
  259SOL     OW 2673  14.320   0.785   9.521
  259SOL    HW1 2674  14.253   0.798   9.454
  259SOL    HW2 2675  14.390   0.845   9.497
  260SOL     OW 2676   6.446  13.842   1.287
  260SOL    HW1 2677   6.490  13.760   1.310
  260SOL    HW2 2678   6.517  13.905   1.275
  261SOL     OW 2679  11.720  12.742  13.302
  261SOL    HW1 2680  11.708  12.830  13.339
  261SOL    HW2 2681  11.759  12.691  13.372
  262SOL     OW 2682   0.413   4.266  11.350
  262SOL    HW1 2683   0.368   4.208  11.411
  262SOL    HW2 2684   0.410   4.219  11.266
  263SOL     OW 2685   6.705   8.517  14.654
  263SOL    HW1 2686   6.750   8.516  14.569
  263SOL    HW2 2687   6.663   8.603  14.658
  264SOL     OW 2688   5.959   3.300   1.729
  264SOL    HW1 2689   6.006   3.332   1.653
  264SOL    HW2 2690   5.930   3.379   1.774
  265SOL     OW 2691  13.668   2.002  11.485
  265SOL    HW1 2692  13.634   2.022  11.398
  265SOL    HW2 2693  13.590   2.000  11.541
  266SOL     OW 2694   4.966   3.948  10.067
  266SOL    HW1 2695   4.913   3.923  10.143
  266SOL    HW2 2696   5.055   3.954  10.101
  267SOL     OW 2697  10.268  12.417   1.402
  267SOL    HW1 2698  10.206  12.394   1.333
  267SOL    HW2 2699  10.219  12.476   1.460
  268SOL     OW 2700  11.973   3.289  14.317
  268SOL    HW1 2701  12.038   3.307  14.249
  268SOL    HW2 2702  11.984   3.360  14.380
  269SOL     OW 2703  11.517   6.867  12.752
  269SOL    HW1 2704  11.553   6.800  12.694
  269SOL    HW2 2705  11.464   6.923  12.694
  270SOL     OW 2706   4.974  12.305  14.040
  270SOL    HW1 2707   4.902  12.331  14.098
  270SOL    HW2 2708   5.010  12.226  14.081
  271SOL     OW 2709  12.618   0.338  14.754
  271SOL    HW1 2710  12.626   0.417  14.807
  271SOL    HW2 2711  12.551   0.286  14.798
  272SOL     OW 2712   2.901  10.576  11.693
  272SOL    HW1 2713   2.958  10.564  11.616
  272SOL    HW2 2714   2.954  10.628  11.753
  273SOL     OW 2715  12.450   3.612   1.667
  273SOL    HW1 2716  12.389   3.550   1.707
  273SOL    HW2 2717  12.396   3.686   1.641
  274SOL     OW 2718   5.488  13.037   2.834
  274SOL    HW1 2719   5.524  13.096   2.768
  274SOL    HW2 2720   5.526  12.951   2.813
  275SOL     OW 2721  10.082  11.491   7.720
  275SOL    HW1 2722  10.153  11.435   7.750
  275SOL    HW2 2723  10.107  11.517   7.631
  276SOL     OW 2724  11.267  12.819   0.428
  276SOL    HW1 2725  11.243  12.847   0.516
  276SOL    HW2 2726  11.356  12.851   0.415
  277SOL     OW 2727   6.225   3.830   7.981
  277SOL    HW1 2728   6.224   3.812   7.887
  277SOL    HW2 2729   6.176   3.912   7.990
  278SOL     OW 2730  10.461   2.181  11.111
  278SOL    HW1 2731  10.382   2.137  11.141
  278SOL    HW2 2732  10.523   2.169  11.183
  279SOL     OW 2733  13.289  13.779   6.550
  279SOL    HW1 2734  13.350  13.716   6.590
  279SOL    HW2 2735  13.228  13.801   6.620
  280SOL     OW 2736   1.678   1.049   8.787
  280SOL    HW1 2737   1.739   1.015   8.721
  280SOL    HW2 2738   1.591   1.025   8.755
  281SOL     OW 2739   7.399   1.166  13.543
  281SOL    HW1 2740   7.353   1.209  13.471
  281SOL    HW2 2741   7.419   1.237  13.605
  282SOL     OW 2742   8.450  13.480   2.472
  282SOL    HW1 2743   8.455  13.557   2.529
  282SOL    HW2 2744   8.447  13.516   2.383
  283SOL     OW 2745   3.976   6.631  10.329
  283SOL    HW1 2746   4.068   6.604  10.320
  283SOL    HW2 2747   3.974   6.684  10.409
  284SOL     OW 2748   8.936  13.436   9.682
  284SOL    HW1 2749   8.949  13.363   9.621
  284SOL    HW2 2750   8.846  13.426   9.714
  285SOL     OW 2751   2.549   8.488  14.418
  285SOL    HW1 2752   2.644   8.477  14.423
  285SOL    HW2 2753   2.519   8.414  14.365
  286SOL     OW 2754   2.324  11.791   9.332
  286SOL    HW1 2755   2.252  11.845   9.300
  286SOL    HW2 2756   2.285  11.705   9.347
  287SOL     OW 2757   7.119   3.284   5.854
  287SOL    HW1 2758   7.055   3.337   5.901
  287SOL    HW2 2759   7.122   3.202   5.902
  288SOL     OW 2760   5.800   4.041   3.226
  288SOL    HW1 2761   5.855   3.969   3.255
  288SOL    HW2 2762   5.734   4.051   3.294
  289SOL     OW 2763   2.652  10.769  13.385
  289SOL    HW1 2764   2.618  10.739  13.300
  289SOL    HW2 2765   2.680  10.859  13.369
  290SOL     OW 2766  11.752   1.945   8.311
  290SOL    HW1 2767  11.800   1.887   8.370
  290SOL    HW2 2768  11.667   1.958   8.354
  291SOL     OW 2769   7.085   5.596   4.205
  291SOL    HW1 2770   7.071   5.596   4.110
  291SOL    HW2 2771   7.051   5.680   4.235
  292SOL     OW 2772   2.671   0.338  10.991
  292SOL    HW1 2773   2.629   0.422  11.008
  292SOL    HW2 2774   2.711   0.348  10.905
  293SOL     OW 2775   9.803   0.951   4.968
  293SOL    HW1 2776   9.881   0.967   5.021
  293SOL    HW2 2777   9.794   1.030   4.915
  294SOL     OW 2778   9.966   3.950   1.319
  294SOL    HW1 2779   9.925   3.865   1.306
  294SOL    HW2 2780   9.899   4.002   1.364
  295SOL     OW 2781   2.511   1.178   2.837
  295SOL    HW1 2782   2.515   1.159   2.931
  295SOL    HW2 2783   2.467   1.264   2.832
  296SOL     OW 2784  14.117   3.376   4.016
  296SOL    HW1 2785  14.068   3.318   4.074
  296SOL    HW2 2786  14.093   3.348   3.927
  297SOL     OW 2787  10.972  10.320   9.997
  297SOL    HW1 2788  11.000  10.281  10.080
  297SOL    HW2 2789  11.003  10.259   9.931
  298SOL     OW 2790   0.635  13.684   2.270
  298SOL    HW1 2791   0.596  13.598   2.286
  298SOL    HW2 2792   0.638  13.690   2.174
  299SOL     OW 2793   1.059   1.898   4.011
  299SOL    HW1 2794   1.101   1.968   4.061
  299SOL    HW2 2795   1.029   1.836   4.077
  300SOL     OW 2796   5.818   8.343   4.619
  300SOL    HW1 2797   5.913   8.351   4.609
  300SOL    HW2 2798   5.787   8.320   4.532
  301SOL     OW 2799  11.503   2.845   1.535
  301SOL    HW1 2800  11.469   2.933   1.519
  301SOL    HW2 2801  11.575   2.858   1.597
  302SOL     OW 2802   8.234   0.123   3.221
  302SOL    HW1 2803   8.316   0.170   3.239
  302SOL    HW2 2804   8.185   0.129   3.302
  303SOL     OW 2805  13.701   4.036   8.526
  303SOL    HW1 2806  13.749   4.032   8.443
  303SOL    HW2 2807  13.761   3.998   8.590
  304SOL     OW 2808   8.693   4.318   4.625
  304SOL    HW1 2809   8.621   4.259   4.645
  304SOL    HW2 2810   8.685   4.335   4.531
  305SOL     OW 2811   5.740  11.208   3.522
  305SOL    HW1 2812   5.828  11.198   3.484
  305SOL    HW2 2813   5.755  11.249   3.607
  306SOL     OW 2814   6.700   1.362  13.871
  306SOL    HW1 2815   6.783   1.393  13.907
  306SOL    HW2 2816   6.647   1.339  13.948
  307SOL     OW 2817   2.900   1.932  13.706
  307SOL    HW1 2818   2.871   1.870  13.638
  307SOL    HW2 2819   2.995   1.925  13.704
  308SOL     OW 2820   1.212   0.983  12.610
  308SOL    HW1 2821   1.203   1.073  12.639
  308SOL    HW2 2822   1.306   0.970  12.601
  309SOL     OW 2823  11.268  12.877   0.742
  309SOL    HW1 2824  11.263  12.942   0.812
  309SOL    HW2 2825  11.362  12.859   0.732
  310SOL     OW 2826   2.015   2.384   9.977
  310SOL    HW1 2827   2.061   2.302   9.962
  310SOL    HW2 2828   2.083   2.445  10.007
  311SOL     OW 2829   0.998   0.229   3.483
  311SOL    HW1 2830   0.908   0.228   3.448
  311SOL    HW2 2831   0.992   0.285   3.560
  312SOL     OW 2832   4.035  11.989   3.782
  312SOL    HW1 2833   4.016  11.904   3.742
  312SOL    HW2 2834   4.126  11.984   3.808
  313SOL     OW 2835   4.351   2.295   2.100
  313SOL    HW1 2836   4.312   2.213   2.068
  313SOL    HW2 2837   4.294   2.363   2.065
  314SOL     OW 2838  13.870   7.044   3.565
  314SOL    HW1 2839  13.873   7.084   3.651
  314SOL    HW2 2840  13.790   6.990   3.566
  315SOL     OW 2841   6.755   0.306   7.735
  315SOL    HW1 2842   6.669   0.266   7.747
  315SOL    HW2 2843   6.812   0.234   7.711
  316SOL     OW 2844   7.024   1.128  10.271
  316SOL    HW1 2845   6.988   1.116  10.359
  316SOL    HW2 2846   7.032   1.223  10.262
  317SOL     OW 2847   8.730   7.509  11.967
  317SOL    HW1 2848   8.670   7.583  11.976
  317SOL    HW2 2849   8.811   7.547  11.935
  318SOL     OW 2850   2.510   0.795   3.265
  318SOL    HW1 2851   2.492   0.886   3.243
  318SOL    HW2 2852   2.539   0.755   3.183
  319SOL     OW 2853   3.660   8.948   2.805
  319SOL    HW1 2854   3.664   9.042   2.787
  319SOL    HW2 2855   3.740   8.913   2.766
  320SOL     OW 2856  12.698   6.211   2.034
  320SOL    HW1 2857  12.755   6.220   1.958
  320SOL    HW2 2858  12.740   6.143   2.087
  321SOL     OW 2859   0.350  12.409   9.786
  321SOL    HW1 2860   0.393  12.468   9.848
  321SOL    HW2 2861   0.282  12.463   9.745
  322SOL     OW 2862  10.874  13.001   2.403
  322SOL    HW1 2863  10.834  12.951   2.332
  322SOL    HW2 2864  10.877  12.940   2.477
  323SOL     OW 2865  10.668   5.528   5.621
  323SOL    HW1 2866  10.597   5.488   5.569
  323SOL    HW2 2867  10.631   5.537   5.709
  324SOL     OW 2868  12.587  11.612  12.785
  324SOL    HW1 2869  12.660  11.577  12.834
  324SOL    HW2 2870  12.558  11.540  12.729
  325SOL     OW 2871   4.765   8.753  12.791
  325SOL    HW1 2872   4.845   8.703  12.808
  325SOL    HW2 2873   4.700   8.688  12.765
  326SOL     OW 2874  11.060   9.440   5.561
  326SOL    HW1 2875  11.112   9.519   5.575
  326SOL    HW2 2876  10.976   9.458   5.604
  327SOL     OW 2877   1.598   7.236   6.591
  327SOL    HW1 2878   1.535   7.251   6.661
  327SOL    HW2 2879   1.666   7.302   6.604
  328SOL     OW 2880  14.470   4.856  14.267
  328SOL    HW1 2881  14.472   4.860  14.171
  328SOL    HW2 2882  14.550   4.900  14.295
  329SOL     OW 2883  13.672  12.082   9.802
  329SOL    HW1 2884  13.615  12.118   9.734
  329SOL    HW2 2885  13.635  11.996   9.821
  330SOL     OW 2886   6.696   0.926   8.985
  330SOL    HW1 2887   6.700   0.870   9.062
  330SOL    HW2 2888   6.781   0.916   8.943
  331SOL     OW 2889   2.171   9.006   5.063
  331SOL    HW1 2890   2.170   9.084   5.120
  331SOL    HW2 2891   2.170   8.932   5.123
  332SOL     OW 2892   7.785   1.122   6.090
  332SOL    HW1 2893   7.830   1.103   6.172
  332SOL    HW2 2894   7.695   1.140   6.116
  333SOL     OW 2895   8.599  13.530   1.178
  333SOL    HW1 2896   8.559  13.444   1.192
  333SOL    HW2 2897   8.677  13.530   1.233
  334SOL     OW 2898   7.943   6.249  14.138
  334SOL    HW1 2899   7.949   6.204  14.054
  334SOL    HW2 2900   7.861   6.297  14.134
  335SOL     OW 2901   5.975   8.621   5.854
  335SOL    HW1 2902   5.995   8.712   5.836
  335SOL    HW2 2903   5.926   8.591   5.778
  336SOL     OW 2904   5.635  14.695   4.292
  336SOL    HW1 2905   5.718  14.704   4.245
  336SOL    HW2 2906   5.570  14.730   4.231
  337SOL     OW 2907   6.532  10.662  14.016
  337SOL    HW1 2908   6.538  10.621  14.102
  337SOL    HW2 2909   6.459  10.618  13.972
  338SOL     OW 2910  12.452  13.518   0.858
  338SOL    HW1 2911  12.476  13.436   0.901
  338SOL    HW2 2912  12.521  13.531   0.792
  339SOL     OW 2913   0.314   9.595  10.337
  339SOL    HW1 2914   0.388   9.631  10.386
  339SOL    HW2 2915   0.237   9.623  10.386
  340SOL     OW 2916   6.253  14.278   7.092
  340SOL    HW1 2917   6.284  14.273   7.183
  340SOL    HW2 2918   6.275  14.193   7.055
  341SOL     OW 2919   9.792   0.226   7.022
  341SOL    HW1 2920   9.760   0.175   7.096
  341SOL    HW2 2921   9.745   0.190   6.946
  342SOL     OW 2922  10.841   2.780   8.721
  342SOL    HW1 2923  10.841   2.775   8.816
  342SOL    HW2 2924  10.772   2.844   8.700
  343SOL     OW 2925   8.796  12.743  13.004
  343SOL    HW1 2926   8.726  12.805  13.025
  343SOL    HW2 2927   8.751  12.663  12.977
  344SOL     OW 2928   0.167  10.330  14.245
  344SOL    HW1 2929   0.223  10.386  14.192
  344SOL    HW2 2930   0.094  10.308  14.187
  345SOL     OW 2931   3.582  12.405   9.706
  345SOL    HW1 2932   3.525  12.449   9.643
  345SOL    HW2 2933   3.574  12.456   9.786
  346SOL     OW 2934  11.924   1.674   7.725
  346SOL    HW1 2935  11.933   1.765   7.756
  346SOL    HW2 2936  11.891   1.626   7.801
  347SOL     OW 2937  13.063  12.261   6.751
  347SOL    HW1 2938  12.979  12.307   6.753
  347SOL    HW2 2939  13.043  12.176   6.713
  348SOL     OW 2940   6.115  10.594   5.353
  348SOL    HW1 2941   6.163  10.598   5.436
  348SOL    HW2 2942   6.035  10.546   5.374
  349SOL     OW 2943   2.792  14.701   5.624
  349SOL    HW1 2944   2.799  14.770   5.691
  349SOL    HW2 2945   2.702  14.670   5.631
  350SOL     OW 2946   3.579   2.992   3.310
  350SOL    HW1 2947   3.593   2.904   3.277
  350SOL    HW2 2948   3.535   2.980   3.394
  351SOL     OW 2949  11.317   4.256   2.298
  351SOL    HW1 2950  11.314   4.181   2.238
  351SOL    HW2 2951  11.405   4.292   2.287
  352SOL     OW 2952   8.955   1.373  14.074
  352SOL    HW1 2953   8.889   1.439  14.098
  352SOL    HW2 2954   9.039   1.415  14.092
  353SOL     OW 2955   8.556  10.761  14.409
  353SOL    HW1 2956   8.598  10.806  14.483
  353SOL    HW2 2957   8.556  10.826  14.339
  354SOL     OW 2958  11.787   7.552   2.469
  354SOL    HW1 2959  11.754   7.607   2.540
  354SOL    HW2 2960  11.878   7.580   2.457
  355SOL     OW 2961   8.348   7.610   8.711
  355SOL    HW1 2962   8.313   7.566   8.789
  355SOL    HW2 2963   8.443   7.598   8.717
  356SOL     OW 2964   1.849  10.962   2.278
  356SOL    HW1 2965   1.845  10.940   2.185
  356SOL    HW2 2966   1.932  11.009   2.289
  357SOL     OW 2967   4.661  14.550  14.621
  357SOL    HW1 2968   4.595  14.523  14.686
  357SOL    HW2 2969   4.724  14.478  14.620
  358SOL     OW 2970   1.184  12.640   5.652
  358SOL    HW1 2971   1.230  12.557   5.658
  358SOL    HW2 2972   1.134  12.635   5.571
  359SOL     OW 2973  12.508  11.397   1.934
  359SOL    HW1 2974  12.416  11.424   1.929
  359SOL    HW2 2975  12.517  11.357   2.021
  360SOL     OW 2976  10.512  12.074   4.033
  360SOL    HW1 2977  10.476  11.987   4.052
  360SOL    HW2 2978  10.577  12.058   3.964
  361SOL     OW 2979   8.869   5.019   2.145
  361SOL    HW1 2980   8.792   5.073   2.163
  361SOL    HW2 2981   8.837   4.954   2.082
  362SOL     OW 2982   2.139   0.345   4.781
  362SOL    HW1 2983   2.125   0.254   4.809
  362SOL    HW2 2984   2.231   0.346   4.753
  363SOL     OW 2985  10.100  14.325   9.216
  363SOL    HW1 2986  10.011  14.298   9.240
  363SOL    HW2 2987  10.155  14.291   9.286
  364SOL     OW 2988  14.760   5.560   5.672
  364SOL    HW1 2989  14.694   5.492   5.674
  364SOL    HW2 2990  14.712   5.640   5.649
  365SOL     OW 2991  11.884   3.101   1.883
  365SOL    HW1 2992  11.976   3.127   1.881
  365SOL    HW2 2993  11.856   3.117   1.973
  366SOL     OW 2994   6.135   8.165   2.842
  366SOL    HW1 2995   6.213   8.221   2.844
  366SOL    HW2 2996   6.089   8.187   2.923
  367SOL     OW 2997   2.262   5.324   2.283
  367SOL    HW1 2998   2.212   5.284   2.354
  367SOL    HW2 2999   2.276   5.253   2.221
  368SOL     OW 3000   8.395   6.567   7.281
  368SOL    HW1 3001   8.326   6.596   7.220
  368SOL    HW2 3002   8.475   6.607   7.246
  369SOL     OW 3003  11.053   2.241   3.119
  369SOL    HW1 3004  11.054   2.214   3.027
  369SOL    HW2 3005  11.145   2.256   3.141
  370SOL     OW 3006   1.035  10.130   3.581
  370SOL    HW1 3007   1.035  10.218   3.544
  370SOL    HW2 3008   1.045  10.144   3.675
  371SOL     OW 3009   5.046   4.483  11.134
  371SOL    HW1 3010   5.023   4.489  11.042
  371SOL    HW2 3011   5.132   4.441  11.135
  372SOL     OW 3012  13.742  14.604  10.893
  372SOL    HW1 3013  13.676  14.673  10.892
  372SOL    HW2 3014  13.700  14.531  10.938
  373SOL     OW 3015   4.006  12.477   3.784
  373SOL    HW1 3016   3.986  12.569   3.771
  373SOL    HW2 3017   4.058  12.452   3.708
  374SOL     OW 3018   2.407   7.091  11.722
  374SOL    HW1 3019   2.318   7.075  11.754
  374SOL    HW2 3020   2.427   7.180  11.749
  375SOL     OW 3021   9.546  14.261  14.780
  375SOL    HW1 3022   9.478  14.208  14.738
  375SOL    HW2 3023   9.528  14.350  14.751
  376SOL     OW 3024  12.243   9.885   3.440
  376SOL    HW1 3025  12.233   9.800   3.481
  376SOL    HW2 3026  12.204   9.947   3.501
  377SOL     OW 3027   7.615   0.899  13.285
  377SOL    HW1 3028   7.627   0.993  13.299
  377SOL    HW2 3029   7.523   0.883  13.306
  378SOL     OW 3030   8.993  11.486   7.781
  378SOL    HW1 3031   8.990  11.415   7.717
  378SOL    HW2 3032   9.004  11.565   7.728
  379SOL     OW 3033   7.867   1.682  14.515
  379SOL    HW1 3034   7.864   1.738  14.437
  379SOL    HW2 3035   7.904   1.738  14.583
  380SOL     OW 3036   9.610  12.831  10.495
  380SOL    HW1 3037   9.552  12.756  10.506
  380SOL    HW2 3038   9.632  12.831  10.401
  381SOL     OW 3039  12.367   1.332  10.421
  381SOL    HW1 3040  12.327   1.414  10.451
  381SOL    HW2 3041  12.302   1.294  10.363
  382SOL     OW 3042  13.263   1.499   4.958
  382SOL    HW1 3043  13.294   1.523   4.871
  382SOL    HW2 3044  13.333   1.527   5.017
  383SOL     OW 3045   8.250   1.599  11.856
  383SOL    HW1 3046   8.319   1.643  11.807
  383SOL    HW2 3047   8.289   1.517  11.886
  384SOL     OW 3048   0.188   6.452  13.797
  384SOL    HW1 3049   0.267   6.400  13.782
  384SOL    HW2 3050   0.122   6.411  13.742
  385SOL     OW 3051   9.377   8.446   4.934
  385SOL    HW1 3052   9.348   8.511   4.998
  385SOL    HW2 3053   9.297   8.400   4.908
  386SOL     OW 3054   0.711   5.577   3.367
  386SOL    HW1 3055   0.694   5.529   3.448
  386SOL    HW2 3056   0.787   5.533   3.328
  387SOL     OW 3057  12.953  11.583   3.366
  387SOL    HW1 3058  13.039  11.597   3.326
  387SOL    HW2 3059  12.899  11.547   3.296
  388SOL     OW 3060  11.414   7.479   5.320
  388SOL    HW1 3061  11.509   7.487   5.331
  388SOL    HW2 3062  11.402   7.456   5.228
  389SOL     OW 3063  12.003  10.012   1.271
  389SOL    HW1 3064  12.077   9.953   1.255
  389SOL    HW2 3065  11.930   9.954   1.293
  390SOL     OW 3066  12.568  10.615  12.488
  390SOL    HW1 3067  12.543  10.690  12.543
  390SOL    HW2 3068  12.594  10.547  12.550
  391SOL     OW 3069  13.167   5.622   1.749
  391SOL    HW1 3070  13.103   5.666   1.805
  391SOL    HW2 3071  13.181   5.683   1.676
  392SOL     OW 3072   1.981  14.683   6.897
  392SOL    HW1 3073   2.053  14.634   6.937
  392SOL    HW2 3074   1.906  14.665   6.952
  393SOL     OW 3075  13.455   2.159   5.215
  393SOL    HW1 3076  13.375   2.211   5.208
  393SOL    HW2 3077  13.490   2.180   5.302
  394SOL     OW 3078   3.508  12.600   2.866
  394SOL    HW1 3079   3.465  12.515   2.876
  394SOL    HW2 3080   3.585  12.595   2.923
  395SOL     OW 3081   1.901   1.144   6.278
  395SOL    HW1 3082   1.868   1.055   6.289
  395SOL    HW2 3083   1.899   1.159   6.183
  396SOL     OW 3084   3.615  11.100  13.047
  396SOL    HW1 3085   3.626  11.007  13.062
  396SOL    HW2 3086   3.530  11.108  13.004
  397SOL     OW 3087  14.538   7.688  10.477
  397SOL    HW1 3088  14.592   7.672  10.399
  397SOL    HW2 3089  14.566   7.774  10.509
  398SOL     OW 3090   5.896   4.635  12.996
  398SOL    HW1 3091   5.976   4.636  12.945
  398SOL    HW2 3092   5.923   4.610  13.084
  399SOL     OW 3093   0.798  14.447  12.941
  399SOL    HW1 3094   0.792  14.418  12.850
  399SOL    HW2 3095   0.747  14.383  12.990
  400SOL     OW 3096   0.057   4.079   8.768
  400SOL    HW1 3097  14.875   4.146   8.743
  400SOL    HW2 3098   0.003   4.003   8.793
  401SOL     OW 3099   6.341   1.905   6.495
  401SOL    HW1 3100   6.298   1.946   6.420
  401SOL    HW2 3101   6.272   1.852   6.535
  402SOL     OW 3102   2.419  10.981  12.872
  402SOL    HW1 3103   2.490  11.024  12.824
  402SOL    HW2 3104   2.454  10.972  12.961
  403SOL     OW 3105  13.875   1.079   2.583
  403SOL    HW1 3106  13.780   1.080   2.596
  403SOL    HW2 3107  13.889   1.022   2.508
  404SOL     OW 3108   7.546  12.567   0.276
  404SOL    HW1 3109   7.501  12.567   0.192
  404SOL    HW2 3110   7.561  12.474   0.295
  405SOL     OW 3111   2.276  13.356  12.414
  405SOL    HW1 3112   2.296  13.427  12.353
  405SOL    HW2 3113   2.199  13.386  12.462
  406SOL     OW 3114  13.723  11.352  14.300
  406SOL    HW1 3115  13.662  11.397  14.360
  406SOL    HW2 3116  13.804  11.343  14.351
  407SOL     OW 3117   3.921   4.259   0.326
  407SOL    HW1 3118   3.976   4.206   0.268
  407SOL    HW2 3119   3.948   4.350   0.309
  408SOL     OW 3120   8.296   7.210  12.589
  408SOL    HW1 3121   8.279   7.252  12.505
  408SOL    HW2 3122   8.350   7.273  12.637
  409SOL     OW 3123   6.924   8.644   5.137
  409SOL    HW1 3124   6.983   8.712   5.104
  409SOL    HW2 3125   6.944   8.639   5.231
  410SOL     OW 3126   1.780  14.636   7.301
  410SOL    HW1 3127   1.745  14.683   7.377
  410SOL    HW2 3128   1.872  14.621   7.323
  411SOL     OW 3129   6.787  12.303   5.840
  411SOL    HW1 3130   6.702  12.264   5.858
  411SOL    HW2 3131   6.850  12.239   5.873
  412SOL     OW 3132   5.856  12.090   5.241
  412SOL    HW1 3133   5.813  12.009   5.271
  412SOL    HW2 3134   5.799  12.160   5.273
  413SOL     OW 3135  12.777   3.480   2.365
  413SOL    HW1 3136  12.742   3.536   2.434
  413SOL    HW2 3137  12.792   3.540   2.291
  414SOL     OW 3138   8.192  10.823   9.272
  414SOL    HW1 3139   8.191  10.775   9.190
  414SOL    HW2 3140   8.127  10.893   9.260
  415SOL     OW 3141   4.523   3.874   4.389
  415SOL    HW1 3142   4.579   3.800   4.414
  415SOL    HW2 3143   4.567   3.951   4.426
  416SOL     OW 3144  11.386  11.752   5.371
  416SOL    HW1 3145  11.428  11.766   5.287
  416SOL    HW2 3146  11.451  11.708   5.425
  417SOL     OW 3147   3.186   6.771   3.680
  417SOL    HW1 3148   3.206   6.681   3.654
  417SOL    HW2 3149   3.206   6.774   3.773
  418SOL     OW 3150   2.512   5.165   9.349
  418SOL    HW1 3151   2.436   5.157   9.290
  418SOL    HW2 3152   2.522   5.260   9.361
  419SOL     OW 3153  14.228  13.475  11.402
  419SOL    HW1 3154  14.202  13.388  11.433
  419SOL    HW2 3155  14.250  13.523  11.481
  420SOL     OW 3156   4.715  13.845   2.526
  420SOL    HW1 3157   4.665  13.828   2.606
  420SOL    HW2 3158   4.701  13.768   2.472
  421SOL     OW 3159  10.836   5.419  10.276
  421SOL    HW1 3160  10.816   5.360  10.348
  421SOL    HW2 3161  10.874   5.363  10.208
  422SOL     OW 3162  14.800  12.943   4.168
  422SOL    HW1 3163  14.753  13.011   4.216
  422SOL    HW2 3164  14.804  12.976   4.078
  423SOL     OW 3165   5.924  10.521   3.616
  423SOL    HW1 3166   5.965  10.590   3.565
  423SOL    HW2 3167   5.973  10.520   3.698
  424SOL     OW 3168   5.379   3.294  11.479
  424SOL    HW1 3169   5.366   3.247  11.396
  424SOL    HW2 3170   5.467   3.330  11.472
  425SOL     OW 3171  13.895  10.443   4.857
  425SOL    HW1 3172  13.852  10.428   4.942
  425SOL    HW2 3173  13.978  10.485   4.879
  426SOL     OW 3174   9.116   8.869   8.227
  426SOL    HW1 3175   9.094   8.923   8.151
  426SOL    HW2 3176   9.179   8.921   8.276
  427SOL     OW 3177   7.505  14.373  10.250
  427SOL    HW1 3178   7.462  14.359  10.165
  427SOL    HW2 3179   7.598  14.377  10.229
  428SOL     OW 3180   6.231   4.493   3.804
  428SOL    HW1 3181   6.324   4.495   3.783
  428SOL    HW2 3182   6.195   4.425   3.747
  429SOL     OW 3183   9.976   5.119  12.500
  429SOL    HW1 3184  10.016   5.180  12.437
  429SOL    HW2 3185   9.887   5.152  12.512
  430SOL     OW 3186  12.949  14.710  10.311
  430SOL    HW1 3187  13.036  14.743  10.291
  430SOL    HW2 3188  12.916  14.676  10.228
  431SOL     OW 3189   5.545   1.857   5.669
  431SOL    HW1 3190   5.582   1.937   5.633
  431SOL    HW2 3191   5.462   1.845   5.622
  432SOL     OW 3192   2.148   7.844   1.350
  432SOL    HW1 3193   2.127   7.932   1.318
  432SOL    HW2 3194   2.163   7.856   1.443
  433SOL     OW 3195   8.944  13.768   2.708
  433SOL    HW1 3196   9.012  13.767   2.641
  433SOL    HW2 3197   8.900  13.683   2.699
  434SOL     OW 3198   7.789   2.521  12.311
  434SOL    HW1 3199   7.799   2.513  12.406
  434SOL    HW2 3200   7.731   2.596  12.299
  435SOL     OW 3201   6.498  11.008   6.083
  435SOL    HW1 3202   6.532  11.075   6.023
  435SOL    HW2 3203   6.567  10.995   6.148
  436SOL     OW 3204   4.487  14.090  12.509
  436SOL    HW1 3205   4.505  14.172  12.554
  436SOL    HW2 3206   4.561  14.078  12.451
  437SOL     OW 3207  10.260  13.094   0.781
  437SOL    HW1 3208  10.236  13.040   0.706
  437SOL    HW2 3209  10.336  13.049   0.820
  438SOL     OW 3210   2.429   6.208   1.088
  438SOL    HW1 3211   2.382   6.130   1.058
  438SOL    HW2 3212   2.438   6.195   1.183
  439SOL     OW 3213   5.676  11.962  12.170
  439SOL    HW1 3214   5.610  11.937  12.105
  439SOL    HW2 3215   5.753  11.911  12.146
  440SOL     OW 3216   7.797   3.156  13.650
  440SOL    HW1 3217   7.796   3.203  13.733
  440SOL    HW2 3218   7.861   3.203  13.596
  441SOL     OW 3219   7.790  12.864   3.604
  441SOL    HW1 3220   7.885  12.852   3.600
  441SOL    HW2 3221   7.757  12.778   3.630
  442SOL     OW 3222  10.080  11.168   7.755
  442SOL    HW1 3223  10.103  11.128   7.671
  442SOL    HW2 3224   9.990  11.198   7.744
  443SOL     OW 3225   0.757   9.888   6.515
  443SOL    HW1 3226   0.812   9.869   6.591
  443SOL    HW2 3227   0.816   9.884   6.440
  444SOL     OW 3228   9.689   7.974  11.094
  444SOL    HW1 3229   9.744   7.939  11.164
  444SOL    HW2 3230   9.752   7.997  11.025
  445SOL     OW 3231   0.181  10.374   2.223
  445SOL    HW1 3232   0.110  10.382   2.286
  445SOL    HW2 3233   0.257  10.346   2.275
  446SOL     OW 3234  13.590  10.915   2.515
  446SOL    HW1 3235  13.601  10.995   2.567
  446SOL    HW2 3236  13.650  10.852   2.555
  447SOL     OW 3237  10.164  13.471   3.759
  447SOL    HW1 3238  10.126  13.546   3.713
  447SOL    HW2 3239  10.251  13.461   3.722
  448SOL     OW 3240  13.539  11.605   5.983
  448SOL    HW1 3241  13.455  11.569   6.012
  448SOL    HW2 3242  13.572  11.653   6.059
  449SOL     OW 3243   1.915   2.261   0.497
  449SOL    HW1 3244   1.901   2.309   0.578
  449SOL    HW2 3245   1.879   2.317   0.428
  450SOL     OW 3246   6.695  11.008   6.583
  450SOL    HW1 3247   6.652  10.923   6.593
  450SOL    HW2 3248   6.783  10.986   6.553
  451SOL     OW 3249   3.400   0.212  12.988
  451SOL    HW1 3250   3.391   0.125  13.028
  451SOL    HW2 3251   3.357   0.204  12.903
  452SOL     OW 3252  14.797   2.404   0.450
  452SOL    HW1 3253  14.751   2.423   0.368
  452SOL    HW2 3254  14.803   2.309   0.453
  453SOL     OW 3255   7.643   5.364   7.068
  453SOL    HW1 3256   7.585   5.416   7.123
  453SOL    HW2 3257   7.717   5.421   7.049
  454SOL     OW 3258  14.116   3.547   6.063
  454SOL    HW1 3259  14.142   3.457   6.082
  454SOL    HW2 3260  14.147   3.598   6.138
  455SOL     OW 3261  14.287   4.083  10.657
  455SOL    HW1 3262  14.370   4.049  10.692
  455SOL    HW2 3263  14.278   4.042  10.571
  456SOL     OW 3264   5.809   8.735   9.519
  456SOL    HW1 3265   5.886   8.687   9.487
  456SOL    HW2 3266   5.802   8.811   9.461
  457SOL     OW 3267   4.440  14.840   3.131
  457SOL    HW1 3268   4.493  14.807   3.204
  457SOL    HW2 3269   4.368   0.006   3.172
  458SOL     OW 3270  14.217  12.052   2.826
  458SOL    HW1 3271  14.240  11.966   2.860
  458SOL    HW2 3272  14.298  12.103   2.832
  459SOL     OW 3273  13.463  14.183   8.508
  459SOL    HW1 3274  13.502  14.244   8.446
  459SOL    HW2 3275  13.371  14.207   8.512
  460SOL     OW 3276   8.036   7.205   9.537
  460SOL    HW1 3277   8.070   7.242   9.618
  460SOL    HW2 3278   7.944   7.187   9.556
  461SOL     OW 3279  12.309  11.670  12.774
  461SOL    HW1 3280  12.400  11.642  12.765
  461SOL    HW2 3281  12.306  11.757  12.735
  462SOL     OW 3282  12.425   3.599   7.293
  462SOL    HW1 3283  12.480   3.670   7.327
  462SOL    HW2 3284  12.389   3.634   7.212
  463SOL     OW 3285   6.729   3.234   1.313
  463SOL    HW1 3286   6.695   3.293   1.380
  463SOL    HW2 3287   6.823   3.253   1.310
  464SOL     OW 3288  12.015  10.650   2.379
  464SOL    HW1 3289  12.007  10.657   2.284
  464SOL    HW2 3290  11.968  10.570   2.401
  465SOL     OW 3291  12.436   7.188   8.007
  465SOL    HW1 3292  12.347   7.157   7.988
  465SOL    HW2 3293  12.424   7.279   8.036
  466SOL     OW 3294  14.800   6.870  12.799
  466SOL    HW1 3295  14.767   6.960  12.792
  466SOL    HW2 3296  14.825   6.861  12.892
  467SOL     OW 3297   0.069   0.591  10.146
  467SOL    HW1 3298  14.871   0.578  10.095
  467SOL    HW2 3299   0.072   0.516  10.205
  468SOL     OW 3300   6.000   9.426   9.028
  468SOL    HW1 3301   5.945   9.370   9.083
  468SOL    HW2 3302   6.090   9.398   9.049
  469SOL     OW 3303   8.354   1.795  13.564
  469SOL    HW1 3304   8.331   1.884  13.592
  469SOL    HW2 3305   8.439   1.779  13.604
  470SOL     OW 3306   9.079   6.441  11.515
  470SOL    HW1 3307   8.991   6.472  11.495
  470SOL    HW2 3308   9.121   6.430  11.430
  471SOL     OW 3309   2.598   1.221   8.612
  471SOL    HW1 3310   2.595   1.191   8.703
  471SOL    HW2 3311   2.507   1.225   8.585
  472SOL     OW 3312   6.815   7.293   0.957
  472SOL    HW1 3313   6.797   7.212   0.909
  472SOL    HW2 3314   6.821   7.360   0.889
  473SOL     OW 3315   0.654   9.978   5.624
  473SOL    HW1 3316   0.701  10.030   5.689
  473SOL    HW2 3317   0.574   9.951   5.668
  474SOL     OW 3318  12.779  12.332   8.955
  474SOL    HW1 3319  12.728  12.253   8.972
  474SOL    HW2 3320  12.853  12.303   8.903
  475SOL     OW 3321  12.743   8.894   3.937
  475SOL    HW1 3322  12.727   8.979   3.978
  475SOL    HW2 3323  12.717   8.830   4.003
  476SOL     OW 3324   3.245  14.052  12.530
  476SOL    HW1 3325   3.238  14.142  12.496
  476SOL    HW2 3326   3.313  14.057  12.597
  477SOL     OW 3327  10.524  12.650   5.662
  477SOL    HW1 3328  10.603  12.668   5.613
  477SOL    HW2 3329  10.511  12.729   5.716
  478SOL     OW 3330   8.826  13.093   1.270
  478SOL    HW1 3331   8.760  13.140   1.321
  478SOL    HW2 3332   8.821  13.132   1.182
  479SOL     OW 3333   2.462   7.170   0.815
  479SOL    HW1 3334   2.464   7.095   0.755
  479SOL    HW2 3335   2.447   7.131   0.901
  480SOL     OW 3336  12.345   0.288  12.655
  480SOL    HW1 3337  12.252   0.311  12.659
  480SOL    HW2 3338  12.354   0.215  12.717
  481SOL     OW 3339   0.363  11.082  10.709
  481SOL    HW1 3340   0.409  11.063  10.791
  481SOL    HW2 3341   0.429  11.065  10.641
  482SOL     OW 3342  13.469   2.458  14.039
  482SOL    HW1 3343  13.533   2.528  14.051
  482SOL    HW2 3344  13.390   2.490  14.082
  483SOL     OW 3345  10.180   6.175   4.178
  483SOL    HW1 3346  10.178   6.271   4.178
  483SOL    HW2 3347  10.193   6.151   4.086
  484SOL     OW 3348   8.975   9.460   3.728
  484SOL    HW1 3349   8.952   9.435   3.639
  484SOL    HW2 3350   8.978   9.556   3.726
  485SOL     OW 3351  10.642   3.318  14.594
  485SOL    HW1 3352  10.602   3.356  14.516
  485SOL    HW2 3353  10.704   3.385  14.624
  486SOL     OW 3354   5.095   9.401  12.926
  486SOL    HW1 3355   5.010   9.374  12.893
  486SOL    HW2 3356   5.138   9.319  12.950
  487SOL     OW 3357  11.670  10.024   3.762
  487SOL    HW1 3358  11.638   9.938   3.786
  487SOL    HW2 3359  11.613  10.085   3.808
  488SOL     OW 3360   9.576  10.311   0.246
  488SOL    HW1 3361   9.498  10.358   0.275
  488SOL    HW2 3362   9.635  10.314   0.322
  489SOL     OW 3363   4.627  14.386  11.389
  489SOL    HW1 3364   4.555  14.333  11.354
  489SOL    HW2 3365   4.601  14.406  11.479
  490SOL     OW 3366   7.401  14.796  10.149
  490SOL    HW1 3367   7.495  14.782  10.162
  490SOL    HW2 3368   7.387  14.777  10.057
  491SOL     OW 3369   2.362   1.628  14.158
  491SOL    HW1 3370   2.309   1.705  14.139
  491SOL    HW2 3371   2.432   1.660  14.215
  492SOL     OW 3372  14.236   8.511   7.626
  492SOL    HW1 3373  14.167   8.452   7.597
  492SOL    HW2 3374  14.192   8.594   7.642
  493SOL     OW 3375   4.597   7.875   3.860
  493SOL    HW1 3376   4.627   7.844   3.775
  493SOL    HW2 3377   4.677   7.896   3.908
  494SOL     OW 3378  13.403  11.082  12.120
  494SOL    HW1 3379  13.459  11.159  12.107
  494SOL    HW2 3380  13.460  11.008  12.099
  495SOL     OW 3381  13.813  12.260  11.439
  495SOL    HW1 3382  13.802  12.165  11.438
  495SOL    HW2 3383  13.906  12.274  11.422
  496SOL     OW 3384  13.842   0.087  11.505
  496SOL    HW1 3385  13.792   0.079  11.424
  496SOL    HW2 3386  13.778   0.112  11.571
  497SOL     OW 3387   5.760   6.165  10.897
  497SOL    HW1 3388   5.753   6.073  10.872
  497SOL    HW2 3389   5.711   6.171  10.979
  498SOL     OW 3390   3.152   2.332  12.711
  498SOL    HW1 3391   3.188   2.249  12.742
  498SOL    HW2 3392   3.153   2.325  12.615
  499SOL     OW 3393   3.331  12.632  12.801
  499SOL    HW1 3394   3.307  12.543  12.777
  499SOL    HW2 3395   3.427  12.630  12.805
  500SOL     OW 3396   5.505  14.389   8.941
  500SOL    HW1 3397   5.570  14.330   8.903
  500SOL    HW2 3398   5.556  14.446   8.999
  501SOL     OW 3399   8.065   9.321  10.881
  501SOL    HW1 3400   8.140   9.374  10.851
  501SOL    HW2 3401   8.085   9.302  10.973
  502SOL     OW 3402   5.617   1.751  11.978
  502SOL    HW1 3403   5.647   1.662  11.959
  502SOL    HW2 3404   5.604   1.752  12.073
  503SOL     OW 3405   9.017  13.094   7.161
  503SOL    HW1 3406   9.060  13.174   7.130
  503SOL    HW2 3407   8.996  13.112   7.253
  504SOL     OW 3408   2.517  10.195  13.976
  504SOL    HW1 3409   2.427  10.200  14.007
  504SOL    HW2 3410   2.565  10.155  14.048
  505SOL     OW 3411   6.848  11.865  11.106
  505SOL    HW1 3412   6.783  11.802  11.077
  505SOL    HW2 3413   6.816  11.949  11.073
  506SOL     OW 3414   0.190   8.532   1.484
  506SOL    HW1 3415   0.264   8.592   1.489
  506SOL    HW2 3416   0.141   8.560   1.406
  507SOL     OW 3417  14.364  13.689   9.324
  507SOL    HW1 3418  14.444  13.646   9.293
  507SOL    HW2 3419  14.382  13.782   9.317
  508SOL     OW 3420  14.274  12.632   0.536
  508SOL    HW1 3421  14.340  12.666   0.475
  508SOL    HW2 3422  14.300  12.541   0.551
  509SOL     OW 3423   6.934  10.182   7.323
  509SOL    HW1 3424   6.857  10.235   7.343
  509SOL    HW2 3425   6.928  10.166   7.229
  510SOL     OW 3426   6.404  12.888   8.753
  510SOL    HW1 3427   6.409  12.795   8.777
  510SOL    HW2 3428   6.313  12.912   8.767
  511SOL     OW 3429  10.907  12.689   7.819
  511SOL    HW1 3430  10.882  12.604   7.857
  511SOL    HW2 3431  10.927  12.668   7.727
  512SOL     OW 3432   1.809   3.661   8.207
  512SOL    HW1 3433   1.763   3.710   8.275
  512SOL    HW2 3434   1.804   3.570   8.236
  513SOL     OW 3435   9.431  11.300  10.222
  513SOL    HW1 3436   9.449  11.389  10.192
  513SOL    HW2 3437   9.451  11.301  10.316
  514SOL     OW 3438   1.131   1.182  11.959
  514SOL    HW1 3439   1.125   1.088  11.939
  514SOL    HW2 3440   1.225   1.201  11.955
  515SOL     OW 3441   6.575  13.363   3.841
  515SOL    HW1 3442   6.566  13.359   3.936
  515SOL    HW2 3443   6.629  13.441   3.825
  516SOL     OW 3444   0.347   1.270   7.063
  516SOL    HW1 3445   0.326   1.189   7.017
  516SOL    HW2 3446   0.306   1.259   7.149
  517SOL     OW 3447   9.482  12.979   3.580
  517SOL    HW1 3448   9.418  12.914   3.552
  517SOL    HW2 3449   9.431  13.043   3.630
  518SOL     OW 3450  14.052  12.303   7.510
  518SOL    HW1 3451  14.100  12.288   7.591
  518SOL    HW2 3452  14.114  12.348   7.453
  519SOL     OW 3453  14.667   2.220   2.538
  519SOL    HW1 3454  14.742   2.184   2.491
  519SOL    HW2 3455  14.688   2.313   2.550
  520SOL     OW 3456   2.830   8.872   8.890
  520SOL    HW1 3457   2.862   8.963   8.889
  520SOL    HW2 3458   2.772   8.869   8.966
  521SOL     OW 3459   3.476   0.852   8.667
  521SOL    HW1 3460   3.413   0.898   8.611
  521SOL    HW2 3461   3.528   0.801   8.606
  522SOL     OW 3462   5.074   8.059  13.376
  522SOL    HW1 3463   5.036   7.975  13.403
  522SOL    HW2 3464   5.128   8.038  13.300
  523SOL     OW 3465   6.316  10.194   9.187
  523SOL    HW1 3466   6.330  10.212   9.280
  523SOL    HW2 3467   6.278  10.275   9.152
  524SOL     OW 3468   0.876   0.221  13.281
  524SOL    HW1 3469   0.846   0.249  13.195
  524SOL    HW2 3470   0.837   0.283  13.342
  525SOL     OW 3471   7.056   6.089   3.490
  525SOL    HW1 3472   7.066   6.067   3.397
  525SOL    HW2 3473   7.026   6.179   3.490
  526SOL     OW 3474   2.828  10.873   2.163
  526SOL    HW1 3475   2.829  10.913   2.077
  526SOL    HW2 3476   2.768  10.927   2.214
  527SOL     OW 3477   4.281   9.948   6.918
  527SOL    HW1 3478   4.333   9.883   6.966
  527SOL    HW2 3479   4.339   9.979   6.849
  528SOL     OW 3480   5.361   6.416   2.197
  528SOL    HW1 3481   5.439   6.471   2.196
  528SOL    HW2 3482   5.289   6.476   2.216
  529SOL     OW 3483   4.369   8.155   7.748
  529SOL    HW1 3484   4.345   8.185   7.836
  529SOL    HW2 3485   4.344   8.062   7.747
  530SOL     OW 3486   3.469   0.514   2.923
  530SOL    HW1 3487   3.402   0.509   2.991
  530SOL    HW2 3488   3.501   0.604   2.927
  531SOL     OW 3489   1.449  10.887  13.072
  531SOL    HW1 3490   1.493  10.908  12.989
  531SOL    HW2 3491   1.495  10.810  13.105
  532SOL     OW 3492   9.171   4.307  14.826
  532SOL    HW1 3493   9.263   4.314  14.851
  532SOL    HW2 3494   9.134   4.242   0.003
  533SOL     OW 3495   4.046   8.970   6.698
  533SOL    HW1 3496   4.060   8.958   6.792
  533SOL    HW2 3497   3.964   9.020   6.693
  534SOL     OW 3498   0.324  13.160   6.507
  534SOL    HW1 3499   0.307  13.218   6.433
  534SOL    HW2 3500   0.419  13.160   6.516
  535SOL     OW 3501  12.524  10.447   2.443
  535SOL    HW1 3502  12.542  10.369   2.390
  535SOL    HW2 3503  12.456  10.419   2.504
  536SOL     OW 3504   1.808   3.691   8.567
  536SOL    HW1 3505   1.759   3.619   8.528
  536SOL    HW2 3506   1.894   3.655   8.586
  537SOL     OW 3507   5.990   5.239   7.727
  537SOL    HW1 3508   5.912   5.295   7.727
  537SOL    HW2 3509   6.026   5.249   7.816
  538SOL     OW 3510  14.602  14.608  13.115
  538SOL    HW1 3511  14.583  14.566  13.031
  538SOL    HW2 3512  14.522  14.596  13.167
  539SOL     OW 3513   6.321  12.229   8.538
  539SOL    HW1 3514   6.253  12.253   8.476
  539SOL    HW2 3515   6.376  12.166   8.491
  540SOL     OW 3516   7.730   6.627   1.897
  540SOL    HW1 3517   7.760   6.646   1.986
  540SOL    HW2 3518   7.646   6.673   1.890
  541SOL     OW 3519   4.739   6.618   1.099
  541SOL    HW1 3520   4.776   6.701   1.127
  541SOL    HW2 3521   4.775   6.553   1.160
  542SOL     OW 3522  10.221  10.257   5.334
  542SOL    HW1 3523  10.201  10.272   5.426
  542SOL    HW2 3524  10.171  10.324   5.287
  543SOL     OW 3525   7.805   4.461   0.035
  543SOL    HW1 3526   7.870   4.459  14.846
  543SOL    HW2 3527   7.857   4.461   0.115
  544SOL     OW 3528   3.140   7.043   0.656
  544SOL    HW1 3529   3.162   7.134   0.637
  544SOL    HW2 3530   3.086   7.047   0.735
  545SOL     OW 3531   1.170  10.439   1.071
  545SOL    HW1 3532   1.128  10.367   1.119
  545SOL    HW2 3533   1.199  10.399   0.989
  546SOL     OW 3534  10.746   0.647   7.904
  546SOL    HW1 3535  10.789   0.562   7.899
  546SOL    HW2 3536  10.688   0.640   7.979
  547SOL     OW 3537  11.711   5.451  10.231
  547SOL    HW1 3538  11.776   5.444  10.161
  547SOL    HW2 3539  11.629   5.471  10.187
  548SOL     OW 3540   6.258   5.431   4.863
  548SOL    HW1 3541   6.311   5.354   4.843
  548SOL    HW2 3542   6.306   5.504   4.825
  549SOL     OW 3543   1.151   9.365   4.550
  549SOL    HW1 3544   1.200   9.288   4.578
  549SOL    HW2 3545   1.204   9.440   4.577
  550SOL     OW 3546   4.222   2.762   6.087
  550SOL    HW1 3547   4.155   2.797   6.028
  550SOL    HW2 3548   4.305   2.789   6.048
  551SOL     OW 3549  11.103  11.085   8.091
  551SOL    HW1 3550  11.032  11.149   8.088
  551SOL    HW2 3551  11.087  11.028   8.016
  552SOL     OW 3552   5.824  11.045   5.524
  552SOL    HW1 3553   5.909  11.071   5.559
  552SOL    HW2 3554   5.845  10.990   5.448
  553SOL     OW 3555   7.014   5.967   6.826
  553SOL    HW1 3556   6.972   6.039   6.778
  553SOL    HW2 3557   6.990   5.983   6.917
  554SOL     OW 3558   9.246  13.934  12.256
  554SOL    HW1 3559   9.241  13.906  12.164
  554SOL    HW2 3560   9.155  13.945  12.282
  555SOL     OW 3561  12.942  11.759   5.197
  555SOL    HW1 3562  12.898  11.756   5.112
  555SOL    HW2 3563  12.873  11.739   5.261
  556SOL     OW 3564  12.056   6.439   2.933
  556SOL    HW1 3565  12.035   6.449   3.026
  556SOL    HW2 3566  12.004   6.506   2.889
  557SOL     OW 3567   3.690   9.865  13.643
  557SOL    HW1 3568   3.595   9.861  13.652
  557SOL    HW2 3569   3.722   9.787  13.688
  558SOL     OW 3570  12.683   3.876   9.071
  558SOL    HW1 3571  12.741   3.874   9.147
  558SOL    HW2 3572  12.727   3.821   9.006
  559SOL     OW 3573  11.190  10.695   7.910
  559SOL    HW1 3574  11.249  10.621   7.900
  559SOL    HW2 3575  11.248  10.771   7.917
  560SOL     OW 3576  12.666   7.411  12.432
  560SOL    HW1 3577  12.743   7.355  12.442
  560SOL    HW2 3578  12.662   7.461  12.513
  561SOL     OW 3579   7.654   5.668   4.770
  561SOL    HW1 3580   7.595   5.725   4.819
  561SOL    HW2 3581   7.649   5.701   4.680
  562SOL     OW 3582   6.780  12.013  13.344
  562SOL    HW1 3583   6.763  12.025  13.438
  562SOL    HW2 3584   6.818  11.925  13.339
  563SOL     OW 3585   3.186   6.829   4.757
  563SOL    HW1 3586   3.216   6.855   4.845
  563SOL    HW2 3587   3.223   6.742   4.744
  564SOL     OW 3588   7.378   1.022   3.106
  564SOL    HW1 3589   7.428   1.103   3.109
  564SOL    HW2 3590   7.432   0.958   3.152
  565SOL     OW 3591   1.792  10.515   3.089
  565SOL    HW1 3592   1.822  10.606   3.094
  565SOL    HW2 3593   1.765  10.494   3.179
  566SOL     OW 3594   7.340  11.047  12.111
  566SOL    HW1 3595   7.315  11.006  12.028
  566SOL    HW2 3596   7.394  11.122  12.086
  567SOL     OW 3597  13.399   2.397   5.899
  567SOL    HW1 3598  13.348   2.416   5.821
  567SOL    HW2 3599  13.341   2.344   5.954
  568SOL     OW 3600   6.789  13.380  11.969
  568SOL    HW1 3601   6.745  13.304  11.931
  568SOL    HW2 3602   6.737  13.401  12.046
  569SOL     OW 3603   1.567  12.823   5.822
  569SOL    HW1 3604   1.483  12.863   5.844
  569SOL    HW2 3605   1.620  12.833   5.901
  570SOL     OW 3606   0.830   7.093   7.466
  570SOL    HW1 3607   0.799   7.003   7.455
  570SOL    HW2 3608   0.811   7.113   7.558
  571SOL     OW 3609   0.562   4.072   6.219
  571SOL    HW1 3610   0.604   4.149   6.258
  571SOL    HW2 3611   0.489   4.108   6.169
  572SOL     OW 3612   6.796  11.977   9.601
  572SOL    HW1 3613   6.702  11.992   9.614
  572SOL    HW2 3614   6.821  11.918   9.672
  573SOL     OW 3615  10.441   8.580   1.599
  573SOL    HW1 3616  10.439   8.557   1.506
  573SOL    HW2 3617  10.480   8.667   1.601
  574SOL     OW 3618  13.224  12.334   2.953
  574SOL    HW1 3619  13.140  12.362   2.918
  574SOL    HW2 3620  13.203  12.288   3.034
  575SOL     OW 3621   1.747   0.004   1.715
  575SOL    HW1 3622   1.652  14.879   1.713
  575SOL    HW2 3623   1.772  14.855   1.802
  576SOL     OW 3624   6.592   4.225  11.771
  576SOL    HW1 3625   6.535   4.299  11.792
  576SOL    HW2 3626   6.579   4.210  11.677
  577SOL     OW 3627  14.615  12.181   7.704
  577SOL    HW1 3628  14.611  12.267   7.662
  577SOL    HW2 3629  14.599  12.200   7.797
  578SOL     OW 3630   8.751  13.956   9.685
  578SOL    HW1 3631   8.715  13.878   9.728
  578SOL    HW2 3632   8.695  14.027   9.712
  579SOL     OW 3633  13.960  14.050   0.491
  579SOL    HW1 3634  13.917  14.010   0.568
  579SOL    HW2 3635  13.997  13.976   0.444
  580SOL     OW 3636   7.959   4.243   4.787
  580SOL    HW1 3637   8.001   4.300   4.721
  580SOL    HW2 3638   7.941   4.162   4.740
  581SOL     OW 3639   5.501   0.726   5.564
  581SOL    HW1 3640   5.524   0.702   5.654
  581SOL    HW2 3641   5.535   0.654   5.511
  582SOL     OW 3642   4.841   3.163   5.883
  582SOL    HW1 3643   4.782   3.235   5.905
  582SOL    HW2 3644   4.890   3.195   5.807
  583SOL     OW 3645   4.431   1.270  13.502
  583SOL    HW1 3646   4.399   1.180  13.499
  583SOL    HW2 3647   4.384   1.315  13.432
  584SOL     OW 3648   2.216  13.268   8.224
  584SOL    HW1 3649   2.180  13.341   8.274
  584SOL    HW2 3650   2.255  13.309   8.147
  585SOL     OW 3651  10.637   5.445  14.403
  585SOL    HW1 3652  10.708   5.400  14.358
  585SOL    HW2 3653  10.615   5.519  14.346
  586SOL     OW 3654   1.211  13.428   4.024
  586SOL    HW1 3655   1.281  13.362   4.024
  586SOL    HW2 3656   1.132  13.379   3.999
  587SOL     OW 3657  10.723   6.332   4.269
  587SOL    HW1 3658  10.787   6.401   4.289
  587SOL    HW2 3659  10.774   6.251   4.269
  588SOL     OW 3660   9.671   3.071  10.379
  588SOL    HW1 3661   9.595   3.015  10.386
  588SOL    HW2 3662   9.646   3.138  10.315
  589SOL     OW 3663  11.246   7.605   2.963
  589SOL    HW1 3664  11.203   7.581   3.045
  589SOL    HW2 3665  11.229   7.532   2.904
  590SOL     OW 3666   3.793   6.097   0.072
  590SOL    HW1 3667   3.791   6.077  14.860
  590SOL    HW2 3668   3.872   6.149   0.084
  591SOL     OW 3669   4.016  12.191   1.832
  591SOL    HW1 3670   4.052  12.270   1.873
  591SOL    HW2 3671   4.071  12.177   1.755
  592SOL     OW 3672   8.564   1.253   8.913
  592SOL    HW1 3673   8.495   1.233   8.850
  592SOL    HW2 3674   8.518   1.272   8.994
  593SOL     OW 3675  12.459  13.943   9.983
  593SOL    HW1 3676  12.540  13.970  10.026
  593SOL    HW2 3677  12.391  13.953  10.049
  594SOL     OW 3678   5.509   3.334  14.644
  594SOL    HW1 3679   5.562   3.310  14.568
  594SOL    HW2 3680   5.497   3.429  14.636
  595SOL     OW 3681   7.474   0.200   6.754
  595SOL    HW1 3682   7.435   0.204   6.841
  595SOL    HW2 3683   7.443   0.118   6.717
  596SOL     OW 3684   8.213  10.361   1.970
  596SOL    HW1 3685   8.158  10.411   1.909
  596SOL    HW2 3686   8.217  10.416   2.048
  597SOL     OW 3687   9.889   5.237   1.440
  597SOL    HW1 3688   9.900   5.271   1.529
  597SOL    HW2 3689   9.971   5.261   1.396
  598SOL     OW 3690   4.773  10.417   0.717
  598SOL    HW1 3691   4.810  10.404   0.805
  598SOL    HW2 3692   4.684  10.385   0.723
  599SOL     OW 3693  13.812   4.781   5.919
  599SOL    HW1 3694  13.793   4.806   5.829
  599SOL    HW2 3695  13.814   4.863   5.967
  600SOL     OW 3696   9.513   9.356   4.271
  600SOL    HW1 3697   9.445   9.312   4.219
  600SOL    HW2 3698   9.543   9.288   4.332
  601SOL     OW 3699   5.695   5.234  12.419
  601SOL    HW1 3700   5.643   5.314  12.416
  601SOL    HW2 3701   5.635   5.166  12.448
  602SOL     OW 3702   5.513   9.450  10.540
  602SOL    HW1 3703   5.558   9.532  10.560
  602SOL    HW2 3704   5.486   9.416  10.625
  603SOL     OW 3705   2.640   0.768   5.670
  603SOL    HW1 3706   2.646   0.679   5.638
  603SOL    HW2 3707   2.731   0.799   5.675
  604SOL     OW 3708   2.718   6.975   3.423
  604SOL    HW1 3709   2.755   6.892   3.394
  604SOL    HW2 3710   2.710   6.965   3.518
  605SOL     OW 3711  12.177   7.918   2.459
  605SOL    HW1 3712  12.220   7.941   2.377
  605SOL    HW2 3713  12.104   7.862   2.433
  606SOL     OW 3714  10.842   4.728  12.153
  606SOL    HW1 3715  10.890   4.697  12.230
  606SOL    HW2 3716  10.868   4.669  12.082
  607SOL     OW 3717   5.385   0.139  10.264
  607SOL    HW1 3718   5.439   0.156  10.341
  607SOL    HW2 3719   5.321   0.210  10.263
  608SOL     OW 3720  13.249   7.088   8.512
  608SOL    HW1 3721  13.325   7.094   8.570
  608SOL    HW2 3722  13.260   7.005   8.467
  609SOL     OW 3723   8.126   4.092   7.734
  609SOL    HW1 3724   8.100   4.169   7.784
  609SOL    HW2 3725   8.220   4.085   7.748
  610SOL     OW 3726  12.235   9.238  10.327
  610SOL    HW1 3727  12.252   9.147  10.351
  610SOL    HW2 3728  12.224   9.236  10.231
  611SOL     OW 3729   1.396   2.050   5.877
  611SOL    HW1 3730   1.453   1.974   5.866
  611SOL    HW2 3731   1.309   2.014   5.891
  612SOL     OW 3732  10.894   7.808   6.878
  612SOL    HW1 3733  10.837   7.839   6.947
  612SOL    HW2 3734  10.983   7.824   6.910
  613SOL     OW 3735   7.937   3.370   8.657
  613SOL    HW1 3736   7.922   3.408   8.744
  613SOL    HW2 3737   8.019   3.323   8.665
  614SOL     OW 3738   6.946   2.036   3.823
  614SOL    HW1 3739   7.012   2.044   3.892
  614SOL    HW2 3740   6.868   2.079   3.859
  615SOL     OW 3741  10.343   7.718   3.715
  615SOL    HW1 3742  10.282   7.776   3.760
  615SOL    HW2 3743  10.289   7.668   3.655
  616SOL     OW 3744   1.683   7.295   2.923
  616SOL    HW1 3745   1.638   7.301   3.008
  616SOL    HW2 3746   1.767   7.338   2.938
  617SOL     OW 3747   8.234  14.666  14.034
  617SOL    HW1 3748   8.317  14.714  14.029
  617SOL    HW2 3749   8.195  14.677  13.947
  618SOL     OW 3750   4.985   0.462  12.736
  618SOL    HW1 3751   4.892   0.478  12.750
  618SOL    HW2 3752   5.021   0.547  12.709
  619SOL     OW 3753   3.953   0.994   4.958
  619SOL    HW1 3754   4.029   1.021   4.907
  619SOL    HW2 3755   3.961   0.899   4.965
  620SOL     OW 3756  14.304   8.265   5.668
  620SOL    HW1 3757  14.226   8.239   5.619
  620SOL    HW2 3758  14.370   8.280   5.600
  621SOL     OW 3759   0.246  11.170   4.805
  621SOL    HW1 3760   0.253  11.129   4.892
  621SOL    HW2 3761   0.167  11.223   4.810
  622SOL     OW 3762   4.118  11.902   4.052
  622SOL    HW1 3763   4.120  11.996   4.040
  622SOL    HW2 3764   4.201  11.871   4.017
  623SOL     OW 3765  12.778  10.641   9.229
  623SOL    HW1 3766  12.802  10.726   9.266
  623SOL    HW2 3767  12.859  10.591   9.229
  624SOL     OW 3768  10.764   8.152   9.891
  624SOL    HW1 3769  10.799   8.089   9.828
  624SOL    HW2 3770  10.699   8.201   9.842
  625SOL     OW 3771  11.335   8.042  13.917
  625SOL    HW1 3772  11.360   7.954  13.890
  625SOL    HW2 3773  11.245   8.052  13.887
  626SOL     OW 3774   6.190  12.868  12.995
  626SOL    HW1 3775   6.262  12.895  13.052
  626SOL    HW2 3776   6.172  12.777  13.021
  627SOL     OW 3777   3.537   4.578   3.182
  627SOL    HW1 3778   3.513   4.485   3.187
  627SOL    HW2 3779   3.632   4.577   3.173
  628SOL     OW 3780   5.823  14.002   4.561
  628SOL    HW1 3781   5.892  14.059   4.528
  628SOL    HW2 3782   5.768  14.059   4.615
  629SOL     OW 3783   5.672   2.973   8.621
  629SOL    HW1 3784   5.624   3.055   8.614
  629SOL    HW2 3785   5.750   2.986   8.567
  630SOL     OW 3786  11.041   2.401   4.838
  630SOL    HW1 3787  11.080   2.389   4.925
  630SOL    HW2 3788  10.998   2.486   4.843
  631SOL     OW 3789   9.060  10.488   3.164
  631SOL    HW1 3790   9.133  10.441   3.123
  631SOL    HW2 3791   8.983  10.434   3.145
  632SOL     OW 3792  12.146  11.961   7.521
  632SOL    HW1 3793  12.143  11.902   7.446
  632SOL    HW2 3794  12.236  11.958   7.552
  633SOL     OW 3795  12.935   9.035   0.045
  633SOL    HW1 3796  12.921   9.112  14.874
  633SOL    HW2 3797  13.029   9.019   0.041
  634SOL     OW 3798   7.325   3.915   4.079
  634SOL    HW1 3799   7.325   3.836   4.133
  634SOL    HW2 3800   7.297   3.886   3.992
  635SOL     OW 3801   8.539   4.806  12.293
  635SOL    HW1 3802   8.457   4.850  12.315
  635SOL    HW2 3803   8.541   4.730  12.351
  636SOL     OW 3804   5.302   7.425  13.838
  636SOL    HW1 3805   5.223   7.404  13.788
  636SOL    HW2 3806   5.347   7.341  13.846
  637SOL     OW 3807   3.057   3.690   1.442
  637SOL    HW1 3808   2.989   3.700   1.509
  637SOL    HW2 3809   3.072   3.779   1.411
  638SOL     OW 3810   6.468  12.955   6.330
  638SOL    HW1 3811   6.493  12.862   6.324
  638SOL    HW2 3812   6.505  12.984   6.413
  639SOL     OW 3813   4.898   2.451   2.897
  639SOL    HW1 3814   4.815   2.410   2.870
  639SOL    HW2 3815   4.872   2.534   2.936
  640SOL     OW 3816  12.807   0.913   9.455
  640SOL    HW1 3817  12.901   0.927   9.458
  640SOL    HW2 3818  12.772   0.965   9.528
  641SOL     OW 3819   0.404  10.676   5.312
  641SOL    HW1 3820   0.426  10.604   5.252
  641SOL    HW2 3821   0.438  10.754   5.268
  642SOL     OW 3822   2.241   0.672  13.526
  642SOL    HW1 3823   2.293   0.747  13.557
  642SOL    HW2 3824   2.294   0.634  13.456
  643SOL     OW 3825  12.584   2.356   0.773
  643SOL    HW1 3826  12.656   2.419   0.767
  643SOL    HW2 3827  12.523   2.382   0.704
  644SOL     OW 3828   8.196  13.861   2.181
  644SOL    HW1 3829   8.183  13.768   2.197
  644SOL    HW2 3830   8.187  13.871   2.086
  645SOL     OW 3831   0.650  14.852   7.934
  645SOL    HW1 3832   0.721  14.798   7.899
  645SOL    HW2 3833   0.691   0.054   7.954
  646SOL     OW 3834   4.511  11.064  14.146
  646SOL    HW1 3835   4.590  11.065  14.200
  646SOL    HW2 3836   4.439  11.060  14.208
  647SOL     OW 3837   0.498   0.674  13.687
  647SOL    HW1 3838   0.416   0.690  13.641
  647SOL    HW2 3839   0.478   0.689  13.779
  648SOL     OW 3840   9.368   6.281   4.321
  648SOL    HW1 3841   9.359   6.374   4.300
  648SOL    HW2 3842   9.336   6.273   4.412
  649SOL     OW 3843   0.815   7.450  13.145
  649SOL    HW1 3844   0.906   7.471  13.125
  649SOL    HW2 3845   0.817   7.358  13.170
  650SOL     OW 3846  13.649   6.218  12.249
  650SOL    HW1 3847  13.643   6.124  12.263
  650SOL    HW2 3848  13.670   6.254  12.335
  651SOL     OW 3849   4.094   3.608  13.109
  651SOL    HW1 3850   4.072   3.553  13.034
  651SOL    HW2 3851   4.010   3.622  13.153
  652SOL     OW 3852   4.922   4.499  11.360
  652SOL    HW1 3853   4.832   4.479  11.337
  652SOL    HW2 3854   4.970   4.495  11.277
  653SOL     OW 3855   3.402  13.877   0.063
  653SOL    HW1 3856   3.336  13.893  14.876
  653SOL    HW2 3857   3.454  13.804   0.030
  654SOL     OW 3858   5.845   8.524   5.649
  654SOL    HW1 3859   5.765   8.543   5.697
  654SOL    HW2 3860   5.834   8.435   5.616
  655SOL     OW 3861   2.142  13.818   5.831
  655SOL    HW1 3862   2.170  13.871   5.756
  655SOL    HW2 3863   2.062  13.860   5.861
  656SOL     OW 3864   5.568  12.152   3.582
  656SOL    HW1 3865   5.549  12.132   3.490
  656SOL    HW2 3866   5.662  12.167   3.584
  657SOL     OW 3867   2.478  11.634  14.288
  657SOL    HW1 3868   2.555  11.673  14.329
  657SOL    HW2 3869   2.408  11.647  14.352
  658SOL     OW 3870  12.858  12.443   2.188
  658SOL    HW1 3871  12.865  12.444   2.284
  658SOL    HW2 3872  12.770  12.410   2.171
  659SOL     OW 3873   0.872   6.757   6.850
  659SOL    HW1 3874   0.924   6.752   6.930
  659SOL    HW2 3875   0.802   6.819   6.870
  660SOL     OW 3876   7.204  13.735   3.966
  660SOL    HW1 3877   7.128  13.748   3.910
  660SOL    HW2 3878   7.204  13.641   3.986
  661SOL     OW 3879  12.519   3.949  14.003
  661SOL    HW1 3880  12.503   3.882  13.936
  661SOL    HW2 3881  12.433   3.989  14.018
  662SOL     OW 3882   6.089   2.224  14.723
  662SOL    HW1 3883   6.064   2.233  14.631
  662SOL    HW2 3884   6.040   2.148  14.754
  663SOL     OW 3885   0.623   0.900   1.975
  663SOL    HW1 3886   0.561   0.957   2.021
  663SOL    HW2 3887   0.705   0.949   1.975
  664SOL     OW 3888  11.103   1.023   6.757
  664SOL    HW1 3889  11.011   1.049   6.752
  664SOL    HW2 3890  11.123   1.022   6.850
  665SOL     OW 3891  10.899   1.622   4.207
  665SOL    HW1 3892  10.847   1.633   4.286
  665SOL    HW2 3893  10.842   1.652   4.136
  666SOL     OW 3894  12.383   0.689   3.371
  666SOL    HW1 3895  12.395   0.594   3.374
  666SOL    HW2 3896  12.445   0.723   3.434
  667SOL     OW 3897   4.584   9.874   9.004
  667SOL    HW1 3898   4.552   9.859   9.093
  667SOL    HW2 3899   4.616   9.964   9.004
  668SOL     OW 3900   6.892  14.369   3.081
  668SOL    HW1 3901   6.840  14.421   3.020
  668SOL    HW2 3902   6.833  14.353   3.155
  669SOL     OW 3903   9.933   4.749   3.996
  669SOL    HW1 3904   9.856   4.804   3.981
  669SOL    HW2 3905   9.963   4.774   4.084
  670SOL     OW 3906   7.663   3.459  12.800
  670SOL    HW1 3907   7.670   3.554  12.796
  670SOL    HW2 3908   7.643   3.432  12.710
  671SOL     OW 3909   9.928   4.562   0.535
  671SOL    HW1 3910   9.973   4.635   0.577
  671SOL    HW2 3911   9.974   4.549   0.452
  672SOL     OW 3912   8.913   2.216   5.776
  672SOL    HW1 3913   8.883   2.205   5.866
  672SOL    HW2 3914   9.001   2.253   5.785
  673SOL     OW 3915   6.580   0.783   0.939
  673SOL    HW1 3916   6.576   0.704   0.885
  673SOL    HW2 3917   6.580   0.751   1.029
  674SOL     OW 3918   2.518   2.754  14.163
  674SOL    HW1 3919   2.482   2.666  14.156
  674SOL    HW2 3920   2.564   2.768  14.080
  675SOL     OW 3921  13.582   6.640  14.548
  675SOL    HW1 3922  13.560   6.548  14.533
  675SOL    HW2 3923  13.506   6.676  14.594
  676SOL     OW 3924   0.914   1.410  10.501
  676SOL    HW1 3925   0.875   1.422  10.414
  676SOL    HW2 3926   0.883   1.323  10.528
  677SOL     OW 3927   0.246  13.129   5.672
  677SOL    HW1 3928   0.242  13.090   5.585
  677SOL    HW2 3929   0.318  13.191   5.667
  678SOL     OW 3930   8.837  11.885   4.845
  678SOL    HW1 3931   8.815  11.806   4.894
  678SOL    HW2 3932   8.904  11.857   4.783
  679SOL     OW 3933  10.602  11.070   5.658
  679SOL    HW1 3934  10.579  11.042   5.569
  679SOL    HW2 3935  10.684  11.025   5.678
  680SOL     OW 3936   9.572   7.352  11.232
  680SOL    HW1 3937   9.527   7.431  11.261
  680SOL    HW2 3938   9.520   7.321  11.158
  681SOL     OW 3939   5.983   9.284  12.358
  681SOL    HW1 3940   5.996   9.338  12.437
  681SOL    HW2 3941   5.959   9.198  12.392
  682SOL     OW 3942  10.202   3.671   8.720
  682SOL    HW1 3943  10.111   3.691   8.742
  682SOL    HW2 3944  10.239   3.635   8.801
  683SOL     OW 3945  12.813  14.306   9.759
  683SOL    HW1 3946  12.722  14.276   9.752
  683SOL    HW2 3947  12.838  14.324   9.668
  684SOL     OW 3948   0.895  11.410   7.168
  684SOL    HW1 3949   0.952  11.388   7.241
  684SOL    HW2 3950   0.851  11.490   7.195
  685SOL     OW 3951   6.069  10.087  11.361
  685SOL    HW1 3952   6.135  10.098  11.429
  685SOL    HW2 3953   6.021  10.170  11.361
  686SOL     OW 3954   6.911   1.395   9.486
  686SOL    HW1 3955   6.893   1.476   9.533
  686SOL    HW2 3956   6.922   1.422   9.395
  687SOL     OW 3957  10.074   7.070   5.152
  687SOL    HW1 3958  10.091   7.157   5.115
  687SOL    HW2 3959   9.984   7.050   5.127
  688SOL     OW 3960   0.675   6.047   1.483
  688SOL    HW1 3961   0.619   6.110   1.440
  688SOL    HW2 3962   0.702   6.090   1.565
  689SOL     OW 3963   3.568   1.737  13.585
  689SOL    HW1 3964   3.544   1.749  13.676
  689SOL    HW2 3965   3.525   1.809  13.539
  690SOL     OW 3966   1.075   8.046   2.420
  690SOL    HW1 3967   1.164   8.080   2.427
  690SOL    HW2 3968   1.033   8.071   2.502
  691SOL     OW 3969   0.058  13.930  10.951
  691SOL    HW1 3970   0.041  13.934  11.045
  691SOL    HW2 3971   0.114  14.006  10.934
  692SOL     OW 3972  12.510   5.241   5.758
  692SOL    HW1 3973  12.499   5.233   5.663
  692SOL    HW2 3974  12.453   5.315   5.782
  693SOL     OW 3975   1.951  12.246   0.991
  693SOL    HW1 3976   2.020  12.184   1.013
  693SOL    HW2 3977   1.909  12.210   0.914
  694SOL     OW 3978   9.114   7.308   6.635
  694SOL    HW1 3979   9.052   7.379   6.617
  694SOL    HW2 3980   9.170   7.342   6.705
  695SOL     OW 3981   5.362  12.453   4.832
  695SOL    HW1 3982   5.293  12.486   4.888
  695SOL    HW2 3983   5.321  12.380   4.785
  696SOL     OW 3984   2.815  10.550  14.563
  696SOL    HW1 3985   2.764  10.580  14.487
  696SOL    HW2 3986   2.754  10.493  14.610
  697SOL     OW 3987  10.248   1.859  12.446
  697SOL    HW1 3988  10.231   1.927  12.511
  697SOL    HW2 3989  10.267   1.908  12.365
  698SOL     OW 3990   6.426  14.068   7.532
  698SOL    HW1 3991   6.421  13.974   7.519
  698SOL    HW2 3992   6.510  14.082   7.576
  699SOL     OW 3993  13.543   8.496  14.259
  699SOL    HW1 3994  13.485   8.448  14.317
  699SOL    HW2 3995  13.485   8.542  14.198
  700SOL     OW 3996   8.384  14.019   6.516
  700SOL    HW1 3997   8.303  13.969   6.526
  700SOL    HW2 3998   8.389  14.073   6.596
  701SOL     OW 3999   8.998  12.166   8.116
  701SOL    HW1 4000   8.919  12.154   8.169
  701SOL    HW2 4001   9.041  12.242   8.154
  702SOL     OW 4002  10.939  11.917   7.802
  702SOL    HW1 4003  11.023  11.889   7.838
  702SOL    HW2 4004  10.908  11.840   7.754
  703SOL     OW 4005   3.204   6.627  10.948
  703SOL    HW1 4006   3.176   6.535  10.938
  703SOL    HW2 4007   3.278   6.636  10.889
  704SOL     OW 4008  13.783  13.942   0.171
  704SOL    HW1 4009  13.851  14.004   0.145
  704SOL    HW2 4010  13.701  13.985   0.147
  705SOL     OW 4011   0.728  13.910   1.342
  705SOL    HW1 4012   0.747  13.997   1.376
  705SOL    HW2 4013   0.814  13.868   1.336
  706SOL     OW 4014  12.137  12.909   0.145
  706SOL    HW1 4015  12.185  12.883   0.066
  706SOL    HW2 4016  12.203  12.949   0.202
  707SOL     OW 4017   4.017   3.107  10.265
  707SOL    HW1 4018   4.080   3.044  10.231
  707SOL    HW2 4019   3.959   3.054  10.321
  708SOL     OW 4020   6.636   1.187   2.062
  708SOL    HW1 4021   6.596   1.105   2.092
  708SOL    HW2 4022   6.701   1.159   1.998
  709SOL     OW 4023   6.375  13.349   7.590
  709SOL    HW1 4024   6.428  13.290   7.536
  709SOL    HW2 4025   6.285  13.323   7.573
  710SOL     OW 4026  11.094   5.106   0.419
  710SOL    HW1 4027  11.071   5.112   0.511
  710SOL    HW2 4028  11.150   5.028   0.413
  711SOL     OW 4029  10.012   0.345   0.940
  711SOL    HW1 4030  10.074   0.277   0.912
  711SOL    HW2 4031   9.937   0.296   0.975
  712SOL     OW 4032   1.076   8.571  13.451
  712SOL    HW1 4033   1.039   8.525  13.527
  712SOL    HW2 4034   1.093   8.502  13.388
  713SOL     OW 4035  10.356   3.368   3.193
  713SOL    HW1 4036  10.309   3.390   3.113
  713SOL    HW2 4037  10.399   3.285   3.174
  714SOL     OW 4038   3.573   1.620   6.617
  714SOL    HW1 4039   3.494   1.614   6.671
  714SOL    HW2 4040   3.591   1.529   6.591
  715SOL     OW 4041   3.112   0.063   3.166
  715SOL    HW1 4042   3.112  14.866   3.112
  715SOL    HW2 4043   3.192   0.056   3.218
  716SOL     OW 4044   3.143  12.067  13.196
  716SOL    HW1 4045   3.126  12.089  13.288
  716SOL    HW2 4046   3.181  11.980  13.199
  717SOL     OW 4047  11.108   9.241   8.079
  717SOL    HW1 4048  11.095   9.335   8.091
  717SOL    HW2 4049  11.192   9.234   8.034
  718SOL     OW 4050   0.250  11.524   3.927
  718SOL    HW1 4051   0.254  11.619   3.931
  718SOL    HW2 4052   0.326  11.494   3.978
  719SOL     OW 4053   5.207  13.929  12.215
  719SOL    HW1 4054   5.196  13.841  12.178
  719SOL    HW2 4055   5.298  13.952  12.196
  720SOL     OW 4056   8.998   4.299  11.548
  720SOL    HW1 4057   9.073   4.244  11.529
  720SOL    HW2 4058   8.985   4.352  11.469
  721SOL     OW 4059   1.277  10.693   5.824
  721SOL    HW1 4060   1.359  10.698   5.774
  721SOL    HW2 4061   1.304  10.664   5.911
  722SOL     OW 4062   1.890   6.106  11.289
  722SOL    HW1 4063   1.917   6.032  11.344
  722SOL    HW2 4064   1.966   6.164  11.287
  723SOL     OW 4065  10.947  10.637  10.402
  723SOL    HW1 4066  11.030  10.677  10.378
  723SOL    HW2 4067  10.954  10.619  10.495
  724SOL     OW 4068   0.826  10.315   7.846
  724SOL    HW1 4069   0.845  10.399   7.888
  724SOL    HW2 4070   0.909  10.266   7.851
  725SOL     OW 4071  13.550   3.476   2.914
  725SOL    HW1 4072  13.563   3.563   2.951
  725SOL    HW2 4073  13.637   3.448   2.887
  726SOL     OW 4074   7.032   7.176  10.725
  726SOL    HW1 4075   7.119   7.201  10.694
  726SOL    HW2 4076   7.040   7.083  10.747
  727SOL     OW 4077   3.223  12.813  14.298
  727SOL    HW1 4078   3.281  12.796  14.224
  727SOL    HW2 4079   3.141  12.770  14.274
  728SOL     OW 4080   9.625  10.698   4.254
  728SOL    HW1 4081   9.559  10.641   4.214
  728SOL    HW2 4082   9.576  10.776   4.281
  729SOL     OW 4083   2.349  13.204  14.216
  729SOL    HW1 4084   2.336  13.278  14.157
  729SOL    HW2 4085   2.262  13.184  14.250
  730SOL     OW 4086   1.536   9.734   8.537
  730SOL    HW1 4087   1.526   9.701   8.447
  730SOL    HW2 4088   1.606   9.679   8.574
  731SOL     OW 4089   7.946  13.247   1.852
  731SOL    HW1 4090   8.002  13.192   1.798
  731SOL    HW2 4091   7.991  13.331   1.857
  732SOL     OW 4092   4.059  10.583   3.478
  732SOL    HW1 4093   4.008  10.611   3.402
  732SOL    HW2 4094   4.122  10.520   3.443
  733SOL     OW 4095   8.170   5.516   8.550
  733SOL    HW1 4096   8.087   5.538   8.509
  733SOL    HW2 4097   8.194   5.431   8.514
  734SOL     OW 4098   1.694  14.622  12.859
  734SOL    HW1 4099   1.638  14.548  12.836
  734SOL    HW2 4100   1.663  14.694  12.804
  735SOL     OW 4101  10.786   6.504   5.128
  735SOL    HW1 4102  10.860   6.486   5.071
  735SOL    HW2 4103  10.755   6.418   5.155
  736SOL     OW 4104   0.815   5.311   9.838
  736SOL    HW1 4105   0.836   5.251   9.767
  736SOL    HW2 4106   0.729   5.347   9.814
  737SOL     OW 4107   2.509   4.488  11.383
  737SOL    HW1 4108   2.484   4.572  11.421
  737SOL    HW2 4109   2.565   4.511  11.308
  738SOL     OW 4110   5.127   8.069   4.146
  738SOL    HW1 4111   5.174   8.026   4.216
  738SOL    HW2 4112   5.172   8.153   4.134
  739SOL     OW 4113   9.688   5.162   1.918
  739SOL    HW1 4114   9.727   5.169   1.831
  739SOL    HW2 4115   9.704   5.071   1.945
  740SOL     OW 4116   3.380   1.299   6.825
  740SOL    HW1 4117   3.377   1.355   6.747
  740SOL    HW2 4118   3.442   1.230   6.802
  741SOL     OW 4119   1.205  11.040  14.251
  741SOL    HW1 4120   1.116  11.015  14.229
  741SOL    HW2 4121   1.196  11.126  14.292
  742SOL     OW 4122   5.136   9.618   7.206
  742SOL    HW1 4123   5.090   9.697   7.235
  742SOL    HW2 4124   5.169   9.578   7.286
  743SOL     OW 4125   0.393   3.742  13.555
  743SOL    HW1 4126   0.449   3.753  13.632
  743SOL    HW2 4127   0.450   3.767  13.481
  744SOL     OW 4128   8.348  14.583  11.264
  744SOL    HW1 4129   8.369  14.494  11.234
  744SOL    HW2 4130   8.385  14.640  11.197
  745SOL     OW 4131   5.133   4.933   7.926
  745SOL    HW1 4132   5.060   4.879   7.896
  745SOL    HW2 4133   5.095   5.020   7.938
  746SOL     OW 4134  12.218   6.024   8.517
  746SOL    HW1 4135  12.286   6.091   8.510
  746SOL    HW2 4136  12.136   6.071   8.497
  747SOL     OW 4137  10.412   7.365   4.638
  747SOL    HW1 4138  10.488   7.348   4.694
  747SOL    HW2 4139  10.368   7.439   4.680
  748SOL     OW 4140  10.702   2.175  10.794
  748SOL    HW1 4141  10.740   2.215  10.716
  748SOL    HW2 4142  10.686   2.249  10.853
  749SOL     OW 4143   3.684   9.250   5.357
  749SOL    HW1 4144   3.604   9.301   5.372
  749SOL    HW2 4145   3.666   9.201   5.277
  750SOL     OW 4146   9.511   8.898   0.221
  750SOL    HW1 4147   9.555   8.971   0.178
  750SOL    HW2 4148   9.434   8.881   0.168
  751SOL     OW 4149   0.540   1.639  11.104
  751SOL    HW1 4150   0.614   1.700  11.106
  751SOL    HW2 4151   0.507   1.644  11.015
  752SOL     OW 4152   0.606   5.617   8.541
  752SOL    HW1 4153   0.561   5.690   8.498
  752SOL    HW2 4154   0.536   5.565   8.580
  753SOL     OW 4155   1.036   7.425   5.253
  753SOL    HW1 4156   1.009   7.334   5.245
  753SOL    HW2 4157   1.132   7.422   5.254
  754SOL     OW 4158   5.246   0.459   2.473
  754SOL    HW1 4159   5.249   0.504   2.558
  754SOL    HW2 4160   5.154   0.466   2.446
  755SOL     OW 4161   5.073   6.942   1.302
  755SOL    HW1 4162   5.091   6.967   1.211
  755SOL    HW2 4163   4.998   6.884   1.297
  756SOL     OW 4164   4.471   4.029  13.248
  756SOL    HW1 4165   4.392   4.013  13.197
  756SOL    HW2 4166   4.541   4.032  13.183
  757SOL     OW 4167   2.697   9.353   4.271
  757SOL    HW1 4168   2.680   9.265   4.239
  757SOL    HW2 4169   2.657   9.356   4.358
  758SOL     OW 4170  10.901  12.503   1.977
  758SOL    HW1 4171  10.844  12.450   2.032
  758SOL    HW2 4172  10.944  12.441   1.918
  759SOL     OW 4173   4.541   0.204  12.995
  759SOL    HW1 4174   4.553   0.222  12.902
  759SOL    HW2 4175   4.606   0.137  13.015
  760SOL     OW 4176  12.210   9.524   3.848
  760SOL    HW1 4177  12.277   9.460   3.823
  760SOL    HW2 4178  12.170   9.487   3.927
  761SOL     OW 4179  11.522  11.056  10.997
  761SOL    HW1 4180  11.581  11.096  10.934
  761SOL    HW2 4181  11.449  11.024  10.945
  762SOL     OW 4182   9.108   1.557  13.776
  762SOL    HW1 4183   9.014   1.572  13.788
  762SOL    HW2 4184   9.149   1.596  13.853
  763SOL     OW 4185   8.224  11.893   0.277
  763SOL    HW1 4186   8.318  11.912   0.273
  763SOL    HW2 4187   8.217  11.803   0.248
  764SOL     OW 4188   4.823   0.742  12.719
  764SOL    HW1 4189   4.755   0.801  12.688
  764SOL    HW2 4190   4.780   0.687  12.784
  765SOL     OW 4191  12.968   7.629   6.089
  765SOL    HW1 4192  12.907   7.556   6.075
  765SOL    HW2 4193  13.051   7.597   6.056
  766SOL     OW 4194  10.264  14.280   2.015
  766SOL    HW1 4195  10.276  14.308   1.924
  766SOL    HW2 4196  10.169  14.271   2.025
  767SOL     OW 4197   2.171   2.445  12.083
  767SOL    HW1 4198   2.187   2.459  12.176
  767SOL    HW2 4199   2.129   2.360  12.078
  768SOL     OW 4200   0.319  14.433  12.094
  768SOL    HW1 4201   0.302  14.339  12.101
  768SOL    HW2 4202   0.382  14.441  12.022
  769SOL     OW 4203   6.532  12.163  11.865
  769SOL    HW1 4204   6.584  12.217  11.805
  769SOL    HW2 4205   6.596  12.104  11.905
  770SOL     OW 4206   7.372   3.471  11.087
  770SOL    HW1 4207   7.361   3.381  11.055
  770SOL    HW2 4208   7.387   3.523  11.008
  771SOL     OW 4209   5.175  13.134   7.709
  771SOL    HW1 4210   5.180  13.103   7.619
  771SOL    HW2 4211   5.099  13.089   7.746
  772SOL     OW 4212   2.823  12.692   1.483
  772SOL    HW1 4213   2.749  12.696   1.424
  772SOL    HW2 4214   2.798  12.627   1.549
  773SOL     OW 4215   3.999   9.281  11.230
  773SOL    HW1 4216   4.023   9.216  11.296
  773SOL    HW2 4217   3.995   9.232  11.148
  774SOL     OW 4218   9.300  14.198  10.513
  774SOL    HW1 4219   9.332  14.117  10.553
  774SOL    HW2 4220   9.237  14.169  10.447
  775SOL     OW 4221  14.072   3.628   9.019
  775SOL    HW1 4222  14.121   3.710   9.025
  775SOL    HW2 4223  14.058   3.602   9.111
  776SOL     OW 4224  13.322   4.121   1.303
  776SOL    HW1 4225  13.261   4.082   1.365
  776SOL    HW2 4226  13.344   4.050   1.243
  777SOL     OW 4227   1.681  11.481   5.805
  777SOL    HW1 4228   1.765  11.514   5.773
  777SOL    HW2 4229   1.688  11.386   5.797
  778SOL     OW 4230  13.013   0.178  12.759
  778SOL    HW1 4231  12.954   0.202  12.830
  778SOL    HW2 4232  12.963   0.192  12.679
  779SOL     OW 4233  10.165   3.105   7.493
  779SOL    HW1 4234  10.146   3.193   7.462
  779SOL    HW2 4235  10.213   3.064   7.421
  780SOL     OW 4236   1.025   0.700   0.900
  780SOL    HW1 4237   0.960   0.671   0.964
  780SOL    HW2 4238   0.979   0.764   0.847
  781SOL     OW 4239   2.512  12.425  10.560
  781SOL    HW1 4240   2.426  12.390  10.586
  781SOL    HW2 4241   2.511  12.422  10.465
  782SOL     OW 4242   8.471  12.242   6.233
  782SOL    HW1 4243   8.377  12.224   6.226
  782SOL    HW2 4244   8.508  12.162   6.269
  783SOL     OW 4245   9.253  12.242   3.063
  783SOL    HW1 4246   9.196  12.191   3.005
  783SOL    HW2 4247   9.341  12.229   3.028
  784SOL     OW 4248   6.201   3.892   9.837
  784SOL    HW1 4249   6.216   3.969   9.892
  784SOL    HW2 4250   6.154   3.925   9.760
  785SOL     OW 4251   7.031  14.347   8.443
  785SOL    HW1 4252   7.109  14.307   8.482
  785SOL    HW2 4253   7.009  14.420   8.502
  786SOL     OW 4254   8.339  10.664   1.774
  786SOL    HW1 4255   8.341  10.665   1.678
  786SOL    HW2 4256   8.256  10.707   1.796
  787SOL     OW 4257  12.548  13.288  11.979
  787SOL    HW1 4258  12.638  13.266  11.954
  787SOL    HW2 4259  12.556  13.375  12.020
  788SOL     OW 4260  10.555  14.500   7.326
  788SOL    HW1 4261  10.595  14.541   7.402
  788SOL    HW2 4262  10.481  14.556   7.303
  789SOL     OW 4263  11.070   7.505   1.212
  789SOL    HW1 4264  11.129   7.552   1.270
  789SOL    HW2 4265  11.040   7.571   1.149
  790SOL     OW 4266   9.632  10.118   5.821
  790SOL    HW1 4267   9.570  10.105   5.749
  790SOL    HW2 4268   9.613  10.206   5.853
  791SOL     OW 4269   4.813   5.777   8.269
  791SOL    HW1 4270   4.758   5.839   8.220
  791SOL    HW2 4271   4.880   5.750   8.207
  792SOL     OW 4272  12.393  11.055   6.944
  792SOL    HW1 4273  12.426  11.043   7.034
  792SOL    HW2 4274  12.471  11.042   6.889
  793SOL     OW 4275  10.365  13.531  11.510
  793SOL    HW1 4276  10.314  13.605  11.477
  793SOL    HW2 4277  10.399  13.488  11.432
  794SOL     OW 4278   7.421   3.443  14.315
  794SOL    HW1 4279   7.514   3.423  14.324
  794SOL    HW2 4280   7.407   3.517  14.374
  795SOL     OW 4281   3.406  13.642   4.461
  795SOL    HW1 4282   3.427  13.588   4.536
  795SOL    HW2 4283   3.491  13.671   4.427
  796SOL     OW 4284  10.045   9.815  11.514
  796SOL    HW1 4285   9.971   9.809  11.574
  796SOL    HW2 4286  10.020   9.883  11.451
  797SOL     OW 4287   1.250   2.811   8.208
  797SOL    HW1 4288   1.232   2.766   8.291
  797SOL    HW2 4289   1.337   2.779   8.183
  798SOL     OW 4290   8.831   5.440   9.930
  798SOL    HW1 4291   8.855   5.393  10.010
  798SOL    HW2 4292   8.799   5.525   9.961
  799SOL     OW 4293   3.829   8.053   6.275
  799SOL    HW1 4294   3.903   7.993   6.269
  799SOL    HW2 4295   3.752   7.997   6.264
  800SOL     OW 4296   8.749   7.815   6.986
  800SOL    HW1 4297   8.679   7.819   7.051
  800SOL    HW2 4298   8.783   7.905   6.983
  801SOL     OW 4299  13.656   0.113   8.283
  801SOL    HW1 4300  13.677   0.167   8.207
  801SOL    HW2 4301  13.594   0.048   8.251
  802SOL     OW 4302   2.471  12.210   9.036
  802SOL    HW1 4303   2.559  12.246   9.028
  802SOL    HW2 4304   2.441  12.199   8.945
  803SOL     OW 4305  14.714   4.040   7.369
  803SOL    HW1 4306  14.636   4.088   7.338
  803SOL    HW2 4307  14.783   4.106   7.369
  804SOL     OW 4308   7.451   8.774   9.973
  804SOL    HW1 4309   7.397   8.696   9.985
  804SOL    HW2 4310   7.413   8.839  10.031
  805SOL     OW 4311  12.201   7.598   2.619
  805SOL    HW1 4312  12.267   7.662   2.645
  805SOL    HW2 4313  12.117   7.640   2.642
  806SOL     OW 4314   4.596   8.979  10.690
  806SOL    HW1 4315   4.621   9.043  10.756
  806SOL    HW2 4316   4.647   8.901  10.713
  807SOL     OW 4317   8.343  13.072   5.777
  807SOL    HW1 4318   8.332  13.061   5.872
  807SOL    HW2 4319   8.435  13.099   5.767
  808SOL     OW 4320   4.341   2.223  11.327
  808SOL    HW1 4321   4.310   2.135  11.309
  808SOL    HW2 4322   4.279   2.258  11.391
  809SOL     OW 4323   3.112   8.116   2.973
  809SOL    HW1 4324   3.089   8.119   3.066
  809SOL    HW2 4325   3.175   8.186   2.960
  810SOL     OW 4326   2.015   4.297  10.804
  810SOL    HW1 4327   1.930   4.257  10.824
  810SOL    HW2 4328   1.993   4.370  10.745
  811SOL     OW 4329  13.571   8.696   8.197
  811SOL    HW1 4330  13.480   8.720   8.181
  811SOL    HW2 4331  13.598   8.650   8.117
  812SOL     OW 4332   5.994   0.727  14.198
  812SOL    HW1 4333   6.080   0.737  14.239
  812SOL    HW2 4334   5.969   0.637  14.217
  813SOL     OW 4335  13.223  13.524   7.952
  813SOL    HW1 4336  13.271  13.602   7.923
  813SOL    HW2 4337  13.258  13.505   8.039
  814SOL     OW 4338   1.483   5.583   1.909
  814SOL    HW1 4339   1.394   5.564   1.937
  814SOL    HW2 4340   1.517   5.643   1.976
  815SOL     OW 4341  14.468   9.000   2.747
  815SOL    HW1 4342  14.415   9.079   2.762
  815SOL    HW2 4343  14.502   8.978   2.834
  816SOL     OW 4344  12.259   1.761  10.166
  816SOL    HW1 4345  12.260   1.822  10.092
  816SOL    HW2 4346  12.264   1.816  10.243
  817SOL     OW 4347   9.559   4.876   5.944
  817SOL    HW1 4348   9.596   4.839   6.024
  817SOL    HW2 4349   9.635   4.893   5.888
  818SOL     OW 4350  11.307  14.136   0.669
  818SOL    HW1 4351  11.215  14.139   0.694
  818SOL    HW2 4352  11.340  14.224   0.684
  819SOL     OW 4353  13.196   2.774  10.330
  819SOL    HW1 4354  13.229   2.827  10.257
  819SOL    HW2 4355  13.138   2.832  10.378
  820SOL     OW 4356   1.402   9.061   7.703
  820SOL    HW1 4357   1.460   8.996   7.663
  820SOL    HW2 4358   1.315   9.020   7.700
  821SOL     OW 4359   8.189  13.372   6.770
  821SOL    HW1 4360   8.157  13.443   6.826
  821SOL    HW2 4361   8.196  13.297   6.829
  822SOL     OW 4362  10.041  14.871  12.079
  822SOL    HW1 4363  10.019  14.879  11.986
  822SOL    HW2 4364   9.997   0.063  12.120
  823SOL     OW 4365  12.475   1.125   6.809
  823SOL    HW1 4366  12.397   1.070   6.813
  823SOL    HW2 4367  12.546   1.067   6.834
  824SOL     OW 4368   2.323  12.232   2.553
  824SOL    HW1 4369   2.307  12.239   2.459
  824SOL    HW2 4370   2.316  12.138   2.572
  825SOL     OW 4371   4.134   6.241   1.611
  825SOL    HW1 4372   4.123   6.207   1.522
  825SOL    HW2 4373   4.205   6.189   1.648
  826SOL     OW 4374   2.161   5.282   7.360
  826SOL    HW1 4375   2.129   5.211   7.305
  826SOL    HW2 4376   2.143   5.253   7.450
  827SOL     OW 4377  13.460   4.564   2.248
  827SOL    HW1 4378  13.384   4.605   2.208
  827SOL    HW2 4379  13.514   4.637   2.278
  828SOL     OW 4380  10.489   9.679  12.945
  828SOL    HW1 4381  10.557   9.747  12.945
  828SOL    HW2 4382  10.480   9.653  12.854
  829SOL     OW 4383   0.900   4.272  13.055
  829SOL    HW1 4384   0.928   4.345  13.000
  829SOL    HW2 4385   0.807   4.260  13.035
  830SOL     OW 4386  13.186  13.996  10.706
  830SOL    HW1 4387  13.097  14.001  10.672
  830SOL    HW2 4388  13.195  13.905  10.736
  831SOL     OW 4389  10.038  10.186   1.844
  831SOL    HW1 4390   9.957  10.221   1.806
  831SOL    HW2 4391  10.050  10.102   1.800
  832SOL     OW 4392   5.278   7.768  13.419
  832SOL    HW1 4393   5.243   7.831  13.482
  832SOL    HW2 4394   5.215   7.768  13.347
  833SOL     OW 4395  10.957   3.688   1.765
  833SOL    HW1 4396  10.952   3.632   1.688
  833SOL    HW2 4397  10.932   3.630   1.838
  834SOL     OW 4398   2.198  13.839  14.810
  834SOL    HW1 4399   2.143  13.799  14.743
  834SOL    HW2 4400   2.191  13.933  14.793
  835SOL     OW 4401   8.466   5.439   6.424
  835SOL    HW1 4402   8.466   5.351   6.387
  835SOL    HW2 4403   8.557   5.468   6.418
  836SOL     OW 4404   4.196   8.628   7.810
  836SOL    HW1 4405   4.153   8.672   7.736
  836SOL    HW2 4406   4.123   8.589   7.859
  837SOL     OW 4407  10.155   6.172  11.540
  837SOL    HW1 4408  10.070   6.213  11.519
  837SOL    HW2 4409  10.193   6.153  11.454
  838SOL     OW 4410   9.781  10.600   4.470
  838SOL    HW1 4411   9.711  10.588   4.407
  838SOL    HW2 4412   9.812  10.689   4.454
  839SOL     OW 4413   7.883   0.738   2.432
  839SOL    HW1 4414   7.851   0.718   2.344
  839SOL    HW2 4415   7.860   0.830   2.445
  840SOL     OW 4416  12.944   9.264  10.461
  840SOL    HW1 4417  12.922   9.186  10.411
  840SOL    HW2 4418  13.038   9.275  10.450
  841SOL     OW 4419   6.777   3.427   1.747
  841SOL    HW1 4420   6.807   3.424   1.838
  841SOL    HW2 4421   6.853   3.461   1.699
  842SOL     OW 4422   1.138   9.883   0.198
  842SOL    HW1 4423   1.043   9.885   0.195
  842SOL    HW2 4424   1.166   9.949   0.135
  843SOL     OW 4425   2.939   2.775   6.531
  843SOL    HW1 4426   2.940   2.744   6.440
  843SOL    HW2 4427   2.877   2.718   6.576
  844SOL     OW 4428   7.683  13.179   9.322
  844SOL    HW1 4429   7.599  13.150   9.359
  844SOL    HW2 4430   7.723  13.232   9.391
  845SOL     OW 4431   0.628  12.878   8.594
  845SOL    HW1 4432   0.676  12.798   8.613
  845SOL    HW2 4433   0.570  12.891   8.669
  846SOL     OW 4434   8.874   2.663  11.196
  846SOL    HW1 4435   8.823   2.708  11.129
  846SOL    HW2 4436   8.946   2.723  11.216
  847SOL     OW 4437   9.392   3.516  10.044
  847SOL    HW1 4438   9.406   3.577   9.973
  847SOL    HW2 4439   9.317   3.463  10.017
  848SOL     OW 4440   6.144  10.078  14.328
  848SOL    HW1 4441   6.146  10.119  14.242
  848SOL    HW2 4442   6.217  10.016  14.327
  849SOL     OW 4443   8.572   6.450   0.827
  849SOL    HW1 4444   8.537   6.477   0.912
  849SOL    HW2 4445   8.591   6.532   0.781
  850SOL     OW 4446   8.405   6.072  11.410
  850SOL    HW1 4447   8.483   6.031  11.373
  850SOL    HW2 4448   8.392   6.027  11.494
  851SOL     OW 4449   7.599  12.542   2.754
  851SOL    HW1 4450   7.542  12.619   2.755
  851SOL    HW2 4451   7.637  12.540   2.842
  852SOL     OW 4452   0.897  14.679   5.509
  852SOL    HW1 4453   0.886  14.763   5.553
  852SOL    HW2 4454   0.982  14.647   5.538
  853SOL     OW 4455   5.526   7.845   3.382
  853SOL    HW1 4456   5.501   7.891   3.302
  853SOL    HW2 4457   5.558   7.914   3.440
  854SOL     OW 4458  13.882  11.185   8.848
  854SOL    HW1 4459  13.949  11.238   8.803
  854SOL    HW2 4460  13.842  11.246   8.911
  855SOL     OW 4461   0.854   9.152   2.976
  855SOL    HW1 4462   0.825   9.242   2.993
  855SOL    HW2 4463   0.789   9.097   3.021
  856SOL     OW 4464   0.946   4.844  11.087
  856SOL    HW1 4465   0.986   4.788  11.021
  856SOL    HW2 4466   0.915   4.784  11.155
  857SOL     OW 4467  10.735  14.595   8.862
  857SOL    HW1 4468  10.690  14.515   8.890
  857SOL    HW2 4469  10.825  14.566   8.844
  858SOL     OW 4470   7.259  14.683   1.746
  858SOL    HW1 4471   7.170  14.654   1.768
  858SOL    HW2 4472   7.310  14.603   1.741
  859SOL     OW 4473  10.881   4.414   3.055
  859SOL    HW1 4474  10.959   4.362   3.074
  859SOL    HW2 4475  10.888   4.435   2.962
  860SOL     OW 4476   4.645  11.067   2.154
  860SOL    HW1 4477   4.606  11.094   2.070
  860SOL    HW2 4478   4.692  11.144   2.184
  861SOL     OW 4479   7.006   8.062  10.307
  861SOL    HW1 4480   7.041   7.976  10.283
  861SOL    HW2 4481   7.034   8.120  10.237
  862SOL     OW 4482   2.637  11.510   7.869
  862SOL    HW1 4483   2.570  11.471   7.812
  862SOL    HW2 4484   2.703  11.441   7.880
  863SOL     OW 4485   3.374   5.452   6.002
  863SOL    HW1 4486   3.441   5.395   6.040
  863SOL    HW2 4487   3.390   5.537   6.041
  864SOL     OW 4488   2.089  10.334   0.252
  864SOL    HW1 4489   2.143  10.321   0.175
  864SOL    HW2 4490   2.151  10.338   0.325
  865SOL     OW 4491   8.161   1.620   5.207
  865SOL    HW1 4492   8.180   1.618   5.301
  865SOL    HW2 4493   8.125   1.707   5.192
  866SOL     OW 4494   9.767  14.182   8.999
  866SOL    HW1 4495   9.780  14.272   8.968
  866SOL    HW2 4496   9.709  14.142   8.934
  867SOL     OW 4497  12.719   3.498   4.971
  867SOL    HW1 4498  12.760   3.527   4.890
  867SOL    HW2 4499  12.729   3.571   5.032
  868SOL     OW 4500  10.912   4.000   3.084
  868SOL    HW1 4501  10.890   4.006   2.991
  868SOL    HW2 4502  10.916   3.906   3.102
  869SOL     OW 4503   7.527   4.265  10.795
  869SOL    HW1 4504   7.559   4.258  10.705
  869SOL    HW2 4505   7.607   4.268  10.849
  870SOL     OW 4506   2.872  14.598   8.749
  870SOL    HW1 4507   2.841  14.578   8.837
  870SOL    HW2 4508   2.952  14.648   8.763
  871SOL     OW 4509   5.485   2.405   5.467
  871SOL    HW1 4510   5.490   2.470   5.537
  871SOL    HW2 4511   5.568   2.414   5.420
  872SOL     OW 4512   4.404   1.674   5.085
  872SOL    HW1 4513   4.417   1.740   5.017
  872SOL    HW2 4514   4.474   1.691   5.148
  873SOL     OW 4515   9.881   7.595   1.378
  873SOL    HW1 4516   9.838   7.541   1.445
  873SOL    HW2 4517   9.970   7.560   1.372
  874SOL     OW 4518   6.960   2.159  10.683
  874SOL    HW1 4519   7.023   2.194  10.620
  874SOL    HW2 4520   6.885   2.219  10.677
  875SOL     OW 4521   1.401   1.563  10.065
  875SOL    HW1 4522   1.393   1.529  10.154
  875SOL    HW2 4523   1.313   1.559  10.029
  876SOL     OW 4524   2.621   6.531   2.738
  876SOL    HW1 4525   2.671   6.457   2.703
  876SOL    HW2 4526   2.620   6.594   2.666
  877SOL     OW 4527   4.552   0.333  11.099
  877SOL    HW1 4528   4.572   0.254  11.048
  877SOL    HW2 4529   4.626   0.340  11.160
  878SOL     OW 4530  13.705  11.914   6.073
  878SOL    HW1 4531  13.655  11.983   6.028
  878SOL    HW2 4532  13.745  11.863   6.003
  879SOL     OW 4533  11.733   6.287   4.427
  879SOL    HW1 4534  11.684   6.336   4.361
  879SOL    HW2 4535  11.823   6.287   4.394
  880SOL     OW 4536   4.822  13.082   5.185
  880SOL    HW1 4537   4.847  13.173   5.169
  880SOL    HW2 4538   4.816  13.042   5.098
  881SOL     OW 4539  12.961  10.200  14.129
  881SOL    HW1 4540  12.946  10.110  14.100
  881SOL    HW2 4541  12.963  10.195  14.225
  882SOL     OW 4542   7.734   9.568   0.616
  882SOL    HW1 4543   7.743   9.599   0.526
  882SOL    HW2 4544   7.820   9.585   0.656
  883SOL     OW 4545   3.866   2.716  11.959
  883SOL    HW1 4546   3.948   2.755  11.989
  883SOL    HW2 4547   3.892   2.635  11.915
  884SOL     OW 4548   0.452  13.681  12.915
  884SOL    HW1 4549   0.429  13.737  12.989
  884SOL    HW2 4550   0.419  13.594  12.938
  885SOL     OW 4551   4.056  11.113   0.095
  885SOL    HW1 4552   4.126  11.049   0.086
  885SOL    HW2 4553   4.098  11.197   0.078
  886SOL     OW 4554  10.591  14.319   7.820
  886SOL    HW1 4555  10.638  14.394   7.858
  886SOL    HW2 4556  10.580  14.342   7.728
  887SOL     OW 4557  13.326   0.526  10.573
  887SOL    HW1 4558  13.392   0.576  10.524
  887SOL    HW2 4559  13.319   0.443  10.527
  888SOL     OW 4560   1.840   3.137   4.126
  888SOL    HW1 4561   1.910   3.194   4.158
  888SOL    HW2 4562   1.875   3.048   4.137
  889SOL     OW 4563   1.667   7.718   2.914
  889SOL    HW1 4564   1.723   7.736   2.989
  889SOL    HW2 4565   1.595   7.780   2.922
  890SOL     OW 4566   5.981  14.622   6.753
  890SOL    HW1 4567   5.956  14.559   6.821
  890SOL    HW2 4568   5.923  14.602   6.680
  891SOL     OW 4569   0.640   6.740  13.083
  891SOL    HW1 4570   0.693   6.816  13.107
  891SOL    HW2 4571   0.590   6.769  13.007
  892SOL     OW 4572   4.448   5.683   4.290
  892SOL    HW1 4573   4.422   5.698   4.199
  892SOL    HW2 4574   4.365   5.674   4.337
  893SOL     OW 4575  11.671  12.254   8.815
  893SOL    HW1 4576  11.654  12.253   8.909
  893SOL    HW2 4577  11.639  12.169   8.784
  894SOL     OW 4578   5.380   4.511   6.711
  894SOL    HW1 4579   5.357   4.592   6.757
  894SOL    HW2 4580   5.303   4.454   6.724
  895SOL     OW 4581   6.649  11.197   5.672
  895SOL    HW1 4582   6.586  11.239   5.730
  895SOL    HW2 4583   6.730  11.247   5.684
  896SOL     OW 4584   3.915  12.056  12.492
  896SOL    HW1 4585   3.933  12.125  12.555
  896SOL    HW2 4586   3.826  12.074  12.461
  897SOL     OW 4587  10.113  13.261   0.125
  897SOL    HW1 4588  10.116  13.295   0.214
  897SOL    HW2 4589  10.204  13.243   0.102
  898SOL     OW 4590   9.845   1.772  11.882
  898SOL    HW1 4591   9.783   1.778  11.809
  898SOL    HW2 4592   9.833   1.853  11.931
  899SOL     OW 4593   4.509   3.083   7.854
  899SOL    HW1 4594   4.413   3.084   7.849
  899SOL    HW2 4595   4.535   3.172   7.832
  900SOL     OW 4596  13.367  10.096   3.937
  900SOL    HW1 4597  13.323  10.026   3.888
  900SOL    HW2 4598  13.354  10.072   4.029
  901SOL     OW 4599   5.347   9.747   0.783
  901SOL    HW1 4600   5.386   9.791   0.708
  901SOL    HW2 4601   5.418   9.696   0.821
  902SOL     OW 4602   9.812  11.273   2.661
  902SOL    HW1 4603   9.741  11.331   2.689
  902SOL    HW2 4604   9.844  11.234   2.742
  903SOL     OW 4605   3.637   1.007   4.365
  903SOL    HW1 4606   3.698   0.993   4.292
  903SOL    HW2 4607   3.616   0.919   4.396
  904SOL     OW 4608   8.045   1.909  11.295
  904SOL    HW1 4609   8.091   1.929  11.214
  904SOL    HW2 4610   7.956   1.940  11.281
  905SOL     OW 4611   7.260   9.997   7.148
  905SOL    HW1 4612   7.171   9.972   7.125
  905SOL    HW2 4613   7.264   9.988   7.243
  906SOL     OW 4614  12.239  13.479  11.189
  906SOL    HW1 4615  12.177  13.508  11.122
  906SOL    HW2 4616  12.295  13.555  11.204
  907SOL     OW 4617   9.123   9.988  12.635
  907SOL    HW1 4618   9.040   9.970  12.590
  907SOL    HW2 4619   9.175  10.037  12.570
  908SOL     OW 4620   0.910  10.038   8.480
  908SOL    HW1 4621   0.976   9.976   8.511
  908SOL    HW2 4622   0.912  10.110   8.543
  909SOL     OW 4623  13.204   0.354   2.328
  909SOL    HW1 4624  13.300   0.354   2.321
  909SOL    HW2 4625  13.177   0.440   2.296
  910SOL     OW 4626  13.487   9.308  10.753
  910SOL    HW1 4627  13.542   9.258  10.812
  910SOL    HW2 4628  13.463   9.386  10.803
  911SOL     OW 4629   0.815   4.233  10.014
  911SOL    HW1 4630   0.776   4.208  10.098
  911SOL    HW2 4631   0.881   4.166   9.998
  912SOL     OW 4632   2.714   3.275   9.651
  912SOL    HW1 4633   2.690   3.203   9.710
  912SOL    HW2 4634   2.787   3.241   9.600
  913SOL     OW 4635   1.046  10.192   5.174
  913SOL    HW1 4636   1.105  10.120   5.196
  913SOL    HW2 4637   1.057  10.255   5.245
  914SOL     OW 4638  14.118   4.531   6.865
  914SOL    HW1 4639  14.058   4.478   6.811
  914SOL    HW2 4640  14.094   4.622   6.844
  915SOL     OW 4641  10.305  10.460   2.920
  915SOL    HW1 4642  10.366  10.521   2.961
  915SOL    HW2 4643  10.303  10.487   2.828
  916SOL     OW 4644   8.359   2.310   4.192
  916SOL    HW1 4645   8.412   2.378   4.150
  916SOL    HW2 4646   8.298   2.282   4.125
  917SOL     OW 4647   1.580   2.822   7.335
  917SOL    HW1 4648   1.557   2.854   7.422
  917SOL    HW2 4649   1.584   2.727   7.345
  918SOL     OW 4650   1.245   9.347   0.356
  918SOL    HW1 4651   1.220   9.436   0.331
  918SOL    HW2 4652   1.338   9.340   0.331
  919SOL     OW 4653   4.010   9.228  12.700
  919SOL    HW1 4654   3.957   9.284  12.642
  919SOL    HW2 4655   3.949   9.161  12.730
  920SOL     OW 4656   2.910   1.150  12.380
  920SOL    HW1 4657   2.992   1.142  12.330
  920SOL    HW2 4658   2.845   1.104  12.327
  921SOL     OW 4659   9.383  13.422  10.774
  921SOL    HW1 4660   9.433  13.457  10.848
  921SOL    HW2 4661   9.386  13.492  10.708
  922SOL     OW 4662   7.884  13.250   9.534
  922SOL    HW1 4663   7.800  13.274   9.573
  922SOL    HW2 4664   7.918  13.181   9.592
  923SOL     OW 4665   0.719   6.134   9.746
  923SOL    HW1 4666   0.677   6.049   9.760
  923SOL    HW2 4667   0.779   6.143   9.819
  924SOL     OW 4668   4.271   4.480  14.679
  924SOL    HW1 4669   4.314   4.412  14.730
  924SOL    HW2 4670   4.179   4.455  14.678
  925SOL     OW 4671   3.043   6.715  14.620
  925SOL    HW1 4672   3.108   6.779  14.591
  925SOL    HW2 4673   3.053   6.641  14.560
  926SOL     OW 4674   7.554   5.532   3.722
  926SOL    HW1 4675   7.460   5.516   3.733
  926SOL    HW2 4676   7.559   5.614   3.673
  927SOL     OW 4677   9.460   2.761  10.008
  927SOL    HW1 4678   9.469   2.685   9.950
  927SOL    HW2 4679   9.377   2.747  10.052
  928SOL     OW 4680  13.298   7.520  10.252
  928SOL    HW1 4681  13.291   7.613  10.274
  928SOL    HW2 4682  13.278   7.516  10.158
  929SOL     OW 4683   4.144  13.085   2.068
  929SOL    HW1 4684   4.097  13.168   2.079
  929SOL    HW2 4685   4.097  13.024   2.125
  930SOL     OW 4686  12.142   2.431   9.390
  930SOL    HW1 4687  12.096   2.382   9.322
  930SOL    HW2 4688  12.234   2.405   9.380
  931SOL     OW 4689   3.631  11.368   1.372
  931SOL    HW1 4690   3.605  11.292   1.320
  931SOL    HW2 4691   3.567  11.371   1.443
  932SOL     OW 4692   8.447   3.182   4.878
  932SOL    HW1 4693   8.481   3.264   4.914
  932SOL    HW2 4694   8.435   3.200   4.784
  933SOL     OW 4695  12.922  12.057  12.743
  933SOL    HW1 4696  12.844  12.008  12.718
  933SOL    HW2 4697  12.902  12.148  12.718
  934SOL     OW 4698  11.031   2.545   6.814
  934SOL    HW1 4699  11.028   2.632   6.774
  934SOL    HW2 4700  10.977   2.491   6.756
  935SOL     OW 4701   0.622   3.890   5.605
  935SOL    HW1 4702   0.636   3.807   5.560
  935SOL    HW2 4703   0.577   3.866   5.686
  936SOL     OW 4704   7.639   5.966  13.318
  936SOL    HW1 4705   7.557   5.974  13.269
  936SOL    HW2 4706   7.708   5.974  13.252
  937SOL     OW 4707   5.180   4.221   2.869
  937SOL    HW1 4708   5.215   4.136   2.841
  937SOL    HW2 4709   5.087   4.215   2.852
  938SOL     OW 4710   6.234   2.834  11.892
  938SOL    HW1 4711   6.287   2.759  11.922
  938SOL    HW2 4712   6.266   2.852  11.804
  939SOL     OW 4713   4.891   5.881  12.835
  939SOL    HW1 4714   4.845   5.810  12.791
  939SOL    HW2 4715   4.825   5.951  12.842
  940SOL     OW 4716  13.876   1.116   9.937
  940SOL    HW1 4717  13.923   1.072  10.009
  940SOL    HW2 4718  13.799   1.061   9.922
  941SOL     OW 4719  10.061   5.401  13.127
  941SOL    HW1 4720   9.968   5.399  13.107
  941SOL    HW2 4721  10.082   5.312  13.154
  942SOL     OW 4722  10.433   2.247  13.370
  942SOL    HW1 4723  10.345   2.277  13.345
  942SOL    HW2 4724  10.488   2.326  13.363
  943SOL     OW 4725   3.389   0.731   9.892
  943SOL    HW1 4726   3.299   0.720   9.921
  943SOL    HW2 4727   3.383   0.752   9.799
  944SOL     OW 4728   1.067  12.809   8.580
  944SOL    HW1 4729   1.090  12.731   8.630
  944SOL    HW2 4730   1.024  12.866   8.643
  945SOL     OW 4731  10.883   4.253   8.471
  945SOL    HW1 4732  10.957   4.256   8.531
  945SOL    HW2 4733  10.913   4.300   8.393
  946SOL     OW 4734   1.517   4.140   0.222
  946SOL    HW1 4735   1.537   4.075   0.155
  946SOL    HW2 4736   1.569   4.217   0.197
  947SOL     OW 4737   0.580   0.928   0.999
  947SOL    HW1 4738   0.667   0.959   1.025
  947SOL    HW2 4739   0.562   0.973   0.917
  948SOL     OW 4740   8.177   8.397   6.216
  948SOL    HW1 4741   8.124   8.382   6.294
  948SOL    HW2 4742   8.267   8.392   6.247
  949SOL     OW 4743  14.563   9.340  11.322
  949SOL    HW1 4744  14.657   9.326  11.330
  949SOL    HW2 4745  14.524   9.260  11.357
  950SOL     OW 4746   4.808  11.625   3.253
  950SOL    HW1 4747   4.870  11.661   3.188
  950SOL    HW2 4748   4.787  11.700   3.308
  951SOL     OW 4749   4.156  12.846   4.057
  951SOL    HW1 4750   4.077  12.797   4.034
  951SOL    HW2 4751   4.124  12.931   4.088
  952SOL     OW 4752   3.244   2.780  13.406
  952SOL    HW1 4753   3.206   2.713  13.463
  952SOL    HW2 4754   3.337   2.779  13.428
  953SOL     OW 4755  10.864   6.548   6.250
  953SOL    HW1 4756  10.896   6.626   6.296
  953SOL    HW2 4757  10.940   6.489   6.247
  954SOL     OW 4758  11.460   4.496   9.831
  954SOL    HW1 4759  11.386   4.441   9.804
  954SOL    HW2 4760  11.489   4.538   9.750
  955SOL     OW 4761   8.683  13.495   3.275
  955SOL    HW1 4762   8.747  13.424   3.288
  955SOL    HW2 4763   8.629  13.493   3.354
  956SOL     OW 4764  14.715   8.831   0.481
  956SOL    HW1 4765  14.705   8.823   0.576
  956SOL    HW2 4766  14.654   8.766   0.446
  957SOL     OW 4767  11.406  14.060  12.712
  957SOL    HW1 4768  11.352  14.106  12.777
  957SOL    HW2 4769  11.351  14.057  12.634
  958SOL     OW 4770  11.005   3.438  11.616
  958SOL    HW1 4771  10.979   3.436  11.524
  958SOL    HW2 4772  10.926   3.413  11.664
  959SOL     OW 4773   1.307   1.926   4.672
  959SOL    HW1 4774   1.347   2.010   4.649
  959SOL    HW2 4775   1.380   1.875   4.708
  960SOL     OW 4776   8.716   3.405   9.267
  960SOL    HW1 4777   8.767   3.344   9.214
  960SOL    HW2 4778   8.630   3.364   9.274
  961SOL     OW 4779  13.171   5.702  11.853
  961SOL    HW1 4780  13.172   5.609  11.829
  961SOL    HW2 4781  13.243   5.741  11.802
  962SOL     OW 4782   4.494   2.603  10.070
  962SOL    HW1 4783   4.589   2.594  10.081
  962SOL    HW2 4784   4.479   2.581   9.978
  963SOL     OW 4785   7.843   3.155   7.486
  963SOL    HW1 4786   7.891   3.153   7.403
  963SOL    HW2 4787   7.873   3.078   7.533
  964SOL     OW 4788  10.699  12.033   6.494
  964SOL    HW1 4789  10.664  12.121   6.483
  964SOL    HW2 4790  10.674  12.008   6.583
  965SOL     OW 4791   1.136  12.482   9.681
  965SOL    HW1 4792   1.085  12.562   9.681
  965SOL    HW2 4793   1.139  12.455   9.773
  966SOL     OW 4794   9.507   8.714   8.280
  966SOL    HW1 4795   9.545   8.654   8.344
  966SOL    HW2 4796   9.580   8.736   8.222
  967SOL     OW 4797  12.750   0.840   8.444
  967SOL    HW1 4798  12.836   0.835   8.403
  967SOL    HW2 4799  12.763   0.808   8.533
  968SOL     OW 4800   0.546   1.225   8.338
  968SOL    HW1 4801   0.512   1.265   8.418
  968SOL    HW2 4802   0.489   1.258   8.269
  969SOL     OW 4803   1.597  12.681   9.170
  969SOL    HW1 4804   1.680  12.645   9.140
  969SOL    HW2 4805   1.598  12.669   9.265
  970SOL     OW 4806   8.723   1.451   9.216
  970SOL    HW1 4807   8.785   1.508   9.170
  970SOL    HW2 4808   8.706   1.496   9.298
  971SOL     OW 4809  13.738   1.092  12.012
  971SOL    HW1 4810  13.771   1.009  12.045
  971SOL    HW2 4811  13.655   1.106  12.058
  972SOL     OW 4812   8.330   2.195  11.676
  972SOL    HW1 4813   8.297   2.109  11.703
  972SOL    HW2 4814   8.387   2.175  11.602
  973SOL     OW 4815   4.697   2.062  10.530
  973SOL    HW1 4816   4.621   2.071  10.589
  973SOL    HW2 4817   4.667   2.002  10.462
  974SOL     OW 4818   4.343  13.182  12.166
  974SOL    HW1 4819   4.325  13.103  12.115
  974SOL    HW2 4820   4.288  13.249  12.126
  975SOL     OW 4821  10.527  14.521  10.087
  975SOL    HW1 4822  10.572  14.590  10.039
  975SOL    HW2 4823  10.474  14.476  10.021
  976SOL     OW 4824   5.258   0.530   0.898
  976SOL    HW1 4825   5.289   0.442   0.876
  976SOL    HW2 4826   5.338   0.580   0.915
  977SOL     OW 4827   6.457   9.624  10.584
  977SOL    HW1 4828   6.496   9.578  10.509
  977SOL    HW2 4829   6.434   9.710  10.550
  978SOL     OW 4830  10.343   7.117  14.650
  978SOL    HW1 4831  10.400   7.189  14.677
  978SOL    HW2 4832  10.266   7.125  14.706
  979SOL     OW 4833  10.547  12.881  14.437
  979SOL    HW1 4834  10.525  12.819  14.508
  979SOL    HW2 4835  10.616  12.837  14.387
  980SOL     OW 4836   6.350  10.861   3.958
  980SOL    HW1 4837   6.402  10.781   3.967
  980SOL    HW2 4838   6.283  10.838   3.893
  981SOL     OW 4839  13.134   2.845  11.231
  981SOL    HW1 4840  13.124   2.931  11.191
  981SOL    HW2 4841  13.142   2.863  11.325
  982SOL     OW 4842   8.317   4.502  12.069
  982SOL    HW1 4843   8.267   4.472  12.145
  982SOL    HW2 4844   8.273   4.462  11.994
  983SOL     OW 4845  11.938   4.414   7.647
  983SOL    HW1 4846  12.015   4.405   7.592
  983SOL    HW2 4847  11.899   4.497   7.620
  984SOL     OW 4848  14.258   3.941   9.416
  984SOL    HW1 4849  14.350   3.952   9.390
  984SOL    HW2 4850  14.217   4.024   9.394
  985SOL     OW 4851   6.703   6.233  12.313
  985SOL    HW1 4852   6.626   6.183  12.286
  985SOL    HW2 4853   6.682   6.263  12.401
  986SOL     OW 4854  10.723  11.214  14.404
  986SOL    HW1 4855  10.777  11.140  14.378
  986SOL    HW2 4856  10.701  11.258  14.322
  987SOL     OW 4857  11.509   3.241   8.078
  987SOL    HW1 4858  11.442   3.263   8.143
  987SOL    HW2 4859  11.542   3.326   8.047
  988SOL     OW 4860   8.661  10.460   9.812
  988SOL    HW1 4861   8.659  10.537   9.868
  988SOL    HW2 4862   8.686  10.494   9.726
  989SOL     OW 4863   4.143  11.550  13.067
  989SOL    HW1 4864   4.094  11.494  13.007
  989SOL    HW2 4865   4.227  11.566  13.023
  990SOL     OW 4866   3.372  12.739  11.959
  990SOL    HW1 4867   3.426  12.815  11.937
  990SOL    HW2 4868   3.342  12.756  12.049
  991SOL     OW 4869   0.783  12.790   5.472
  991SOL    HW1 4870   0.784  12.885   5.459
  991SOL    HW2 4871   0.690  12.769   5.481
  992SOL     OW 4872  13.405   9.615   9.390
  992SOL    HW1 4873  13.416   9.648   9.479
  992SOL    HW2 4874  13.416   9.520   9.398
  993SOL     OW 4875  12.183  14.079   6.268
  993SOL    HW1 4876  12.161  14.040   6.184
  993SOL    HW2 4877  12.133  14.161   6.271
  994SOL     OW 4878  10.419   4.197   1.858
  994SOL    HW1 4879  10.442   4.156   1.941
  994SOL    HW2 4880  10.361   4.134   1.815
  995SOL     OW 4881   5.907   0.017   3.447
  995SOL    HW1 4882   5.978  14.879   3.386
  995SOL    HW2 4883   5.894   0.112   3.437
  996SOL     OW 4884  10.438   4.816   7.593
  996SOL    HW1 4885  10.397   4.889   7.548
  996SOL    HW2 4886  10.398   4.738   7.555
  997SOL     OW 4887   7.614   0.513   1.531
  997SOL    HW1 4888   7.539   0.495   1.474
  997SOL    HW2 4889   7.577   0.514   1.619
  998SOL     OW 4890  10.199   7.978   8.618
  998SOL    HW1 4891  10.243   7.920   8.679
  998SOL    HW2 4892  10.212   7.937   8.532
  999SOL     OW 4893  11.582   3.003   4.484
  999SOL    HW1 4894  11.546   3.030   4.399
  999SOL    HW2 4895  11.642   2.932   4.462
 1000SOL     OW 4896   2.512   8.965   3.040
 1000SOL    HW1 4897   2.525   8.906   2.966
 1000SOL    HW2 4898   2.418   8.968   3.053
 1001SOL     OW 4899  12.587  12.681  12.967
 1001SOL    HW1 4900  12.509  12.646  12.924
 1001SOL    HW2 4901  12.556  12.714  13.051
 1002SOL     OW 4902  14.162   9.506  11.938
 1002SOL    HW1 4903  14.076   9.507  11.979
 1002SOL    HW2 4904  14.219   9.465  12.003
 1003SOL     OW 4905   0.577   1.929   5.097
 1003SOL    HW1 4906   0.538   1.893   5.017
 1003SOL    HW2 4907   0.619   2.010   5.069
 1004SOL     OW 4908  12.120   5.111   5.740
 1004SOL    HW1 4909  12.073   5.058   5.805
 1004SOL    HW2 4910  12.210   5.114   5.772
 1005SOL     OW 4911   0.331   9.557  10.734
 1005SOL    HW1 4912   0.379   9.476  10.720
 1005SOL    HW2 4913   0.252   9.548  10.680
 1006SOL     OW 4914   1.130   0.017   6.983
 1006SOL    HW1 4915   1.219  14.865   6.989
 1006SOL    HW2 4916   1.137   0.109   7.010
 1007SOL     OW 4917  14.728   4.393   2.998
 1007SOL    HW1 4918  14.814   4.378   2.958
 1007SOL    HW2 4919  14.744   4.465   3.060
 1008SOL     OW 4920  10.213   9.286  12.097
 1008SOL    HW1 4921  10.217   9.191  12.086
 1008SOL    HW2 4922  10.266   9.321  12.026
 1009SOL     OW 4923  11.177  11.094   6.904
 1009SOL    HW1 4924  11.251  11.064   6.851
 1009SOL    HW2 4925  11.113  11.124   6.840
 1010SOL     OW 4926   7.440   6.820  14.833
 1010SOL    HW1 4927   7.345   6.810  14.826
 1010SOL    HW2 4928   7.457   6.909  14.804
 1011SOL     OW 4929   8.941   3.836  11.944
 1011SOL    HW1 4930   8.848   3.861  11.943
 1011SOL    HW2 4931   8.956   3.802  12.032
 1012SOL     OW 4932   1.380  12.480   8.834
 1012SOL    HW1 4933   1.363  12.403   8.780
 1012SOL    HW2 4934   1.336  12.551   8.787
 1013SOL     OW 4935   2.432   3.809   0.058
 1013SOL    HW1 4936   2.471   3.723   0.076
 1013SOL    HW2 4937   2.442   3.857   0.141
 1014SOL     OW 4938   8.521   8.171   5.635
 1014SOL    HW1 4939   8.549   8.086   5.600
 1014SOL    HW2 4940   8.546   8.167   5.727
 1015SOL     OW 4941   0.566   6.103   7.427
 1015SOL    HW1 4942   0.599   6.125   7.514
 1015SOL    HW2 4943   0.595   6.013   7.412
 1016SOL     OW 4944  11.002  10.743   8.537
 1016SOL    HW1 4945  11.050  10.779   8.611
 1016SOL    HW2 4946  10.917  10.719   8.574
 1017SOL     OW 4947   7.947   9.154   9.754
 1017SOL    HW1 4948   8.012   9.147   9.824
 1017SOL    HW2 4949   7.998   9.142   9.673
 1018SOL     OW 4950   0.650   2.729   9.914
 1018SOL    HW1 4951   0.607   2.678   9.845
 1018SOL    HW2 4952   0.671   2.813   9.872
 1019SOL     OW 4953   4.720   4.425   8.574
 1019SOL    HW1 4954   4.760   4.341   8.551
 1019SOL    HW2 4955   4.628   4.405   8.590
 1020SOL     OW 4956   9.772  10.780  12.261
 1020SOL    HW1 4957   9.750  10.777  12.168
 1020SOL    HW2 4958   9.752  10.692  12.293
 1021SOL     OW 4959  11.724  14.008   8.824
 1021SOL    HW1 4960  11.719  14.061   8.904
 1021SOL    HW2 4961  11.707  14.070   8.753
 1022SOL     OW 4962  10.280   7.975  10.454
 1022SOL    HW1 4963  10.250   7.952  10.366
 1022SOL    HW2 4964  10.365   7.932  10.462
 1023SOL     OW 4965   2.991   9.959   2.500
 1023SOL    HW1 4966   3.067  10.016   2.491
 1023SOL    HW2 4967   2.979   9.922   2.412
 1024SOL     OW 4968   7.971  11.572  11.469
 1024SOL    HW1 4969   7.979  11.504  11.402
 1024SOL    HW2 4970   7.987  11.654  11.423
 1025SOL     OW 4971   0.921   1.294   7.906
 1025SOL    HW1 4972   0.901   1.265   7.817
 1025SOL    HW2 4973   0.837   1.298   7.950
 1026SOL     OW 4974   5.104  10.689   4.095
 1026SOL    HW1 4975   5.155  10.693   4.014
 1026SOL    HW2 4976   5.046  10.614   4.083
 1027SOL     OW 4977  11.104  14.308  11.519
 1027SOL    HW1 4978  11.012  14.333  11.509
 1027SOL    HW2 4979  11.131  14.283  11.430
 1028SOL     OW 4980  14.174  10.779   6.480
 1028SOL    HW1 4981  14.198  10.761   6.571
 1028SOL    HW2 4982  14.151  10.693   6.444
 1029SOL     OW 4983  14.541  12.954  12.717
 1029SOL    HW1 4984  14.483  13.020  12.680
 1029SOL    HW2 4985  14.497  12.926  12.798
 1030SOL     OW 4986   1.850  13.096  10.165
 1030SOL    HW1 4987   1.901  13.027  10.208
 1030SOL    HW2 4988   1.813  13.053  10.087
 1031SOL     OW 4989   8.193   6.880   6.238
 1031SOL    HW1 4990   8.238   6.909   6.159
 1031SOL    HW2 4991   8.139   6.954   6.264
 1032SOL     OW 4992   1.647   0.468   3.298
 1032SOL    HW1 4993   1.728   0.452   3.346
 1032SOL    HW2 4994   1.601   0.535   3.349
 1033SOL     OW 4995   8.016   2.532   0.745
 1033SOL    HW1 4996   8.069   2.592   0.797
 1033SOL    HW2 4997   8.038   2.553   0.654
 1034SOL     OW 4998   7.404   3.168  11.089
 1034SOL    HW1 4999   7.436   3.193  11.176
 1034SOL    HW2 5000   7.482   3.139  11.042
 1035SOL     OW 5001   4.726   3.076  13.273
 1035SOL    HW1 5002   4.760   3.019  13.204
 1035SOL    HW2 5003   4.654   3.026  13.311
 1036SOL     OW 5004   5.747   4.438  12.329
 1036SOL    HW1 5005   5.803   4.388  12.269
 1036SOL    HW2 5006   5.802   4.511  12.357
 1037SOL     OW 5007  13.300   1.092  12.245
 1037SOL    HW1 5008  13.220   1.040  12.246
 1037SOL    HW2 5009  13.370   1.029  12.229
 1038SOL     OW 5010   4.993  13.589  12.290
 1038SOL    HW1 5011   4.931  13.577  12.218
 1038SOL    HW2 5012   5.019  13.500  12.314
 1039SOL     OW 5013   1.499   5.393   8.826
 1039SOL    HW1 5014   1.523   5.334   8.898
 1039SOL    HW2 5015   1.426   5.444   8.861
 1040SOL     OW 5016   3.771   9.904  12.451
 1040SOL    HW1 5017   3.788   9.952  12.532
 1040SOL    HW2 5018   3.680   9.874  12.460
 1041SOL     OW 5019   8.016   3.045  12.442
 1041SOL    HW1 5020   7.948   3.065  12.377
 1041SOL    HW2 5021   7.993   3.098  12.518
 1042SOL     OW 5022   2.720  10.621  14.857
 1042SOL    HW1 5023   2.658  10.626  14.784
 1042SOL    HW2 5024   2.682  10.556   0.034
 1043SOL     OW 5025   5.644   2.149   4.818
 1043SOL    HW1 5026   5.615   2.079   4.877
 1043SOL    HW2 5027   5.644   2.228   4.872
 1044SOL     OW 5028   8.326   0.291   1.750
 1044SOL    HW1 5029   8.251   0.300   1.809
 1044SOL    HW2 5030   8.304   0.217   1.695
 1045SOL     OW 5031   7.109  14.846  10.779
 1045SOL    HW1 5032   7.038  14.811  10.724
 1045SOL    HW2 5033   7.187  14.841  10.724
 1046SOL     OW 5034   3.306  12.837   7.790
 1046SOL    HW1 5035   3.384  12.782   7.792
 1046SOL    HW2 5036   3.235  12.779   7.764
 1047SOL     OW 5037  10.451  13.159   9.235
 1047SOL    HW1 5038  10.432  13.186   9.145
 1047SOL    HW2 5039  10.408  13.074   9.244
 1048SOL     OW 5040  12.992  10.791  12.512
 1048SOL    HW1 5041  13.028  10.878  12.493
 1048SOL    HW2 5042  13.014  10.739  12.434
 1049SOL     OW 5043  14.625  11.823   8.321
 1049SOL    HW1 5044  14.712  11.786   8.308
 1049SOL    HW2 5045  14.605  11.866   8.238
 1050SOL     OW 5046   8.105  10.068   8.417
 1050SOL    HW1 5047   8.157  10.125   8.473
 1050SOL    HW2 5048   8.048  10.019   8.477
 1051SOL     OW 5049   2.871   0.787   2.295
 1051SOL    HW1 5050   2.893   0.697   2.271
 1051SOL    HW2 5051   2.912   0.800   2.380
 1052SOL     OW 5052  14.001   1.210   2.918
 1052SOL    HW1 5053  14.031   1.300   2.921
 1052SOL    HW2 5054  13.907   1.215   2.936
 1053SOL     OW 5055   5.951  12.190  12.528
 1053SOL    HW1 5056   6.008  12.116  12.549
 1053SOL    HW2 5057   5.967  12.207  12.435
 1054SOL     OW 5058   0.876   1.135   0.316
 1054SOL    HW1 5059   0.828   1.157   0.396
 1054SOL    HW2 5060   0.932   1.211   0.301
 1055SOL     OW 5061   5.500   1.465   0.728
 1055SOL    HW1 5062   5.430   1.530   0.726
 1055SOL    HW2 5063   5.483   1.413   0.807
 1056SOL     OW 5064  11.032   7.600   7.885
 1056SOL    HW1 5065  11.009   7.682   7.929
 1056SOL    HW2 5066  11.060   7.627   7.798
 1057SOL     OW 5067   7.660   1.678   7.245
 1057SOL    HW1 5068   7.607   1.694   7.167
 1057SOL    HW2 5069   7.602   1.630   7.304
 1058SOL     OW 5070   6.712   4.571   5.096
 1058SOL    HW1 5071   6.673   4.639   5.151
 1058SOL    HW2 5072   6.756   4.618   5.026
 1059SOL     OW 5073   8.957   6.524   6.028
 1059SOL    HW1 5074   8.902   6.538   6.104
 1059SOL    HW2 5075   9.046   6.543   6.058
 1060SOL     OW 5076   6.121   0.151   6.320
 1060SOL    HW1 5077   6.058   0.127   6.388
 1060SOL    HW2 5078   6.179   0.075   6.313
 1061SOL     OW 5079  13.072  10.754  11.141
 1061SOL    HW1 5080  13.014  10.830  11.153
 1061SOL    HW2 5081  13.019  10.679  11.166
 1062SOL     OW 5082   3.670  11.109  11.255
 1062SOL    HW1 5083   3.725  11.059  11.195
 1062SOL    HW2 5084   3.590  11.127  11.206
 1063SOL     OW 5085  10.904   2.676   4.903
 1063SOL    HW1 5086  10.835   2.686   4.969
 1063SOL    HW2 5087  10.950   2.760   4.904
 1064SOL     OW 5088   9.074   5.856  14.332
 1064SOL    HW1 5089   9.024   5.794  14.384
 1064SOL    HW2 5090   9.007   5.910  14.288
 1065SOL     OW 5091   5.284   7.772   5.787
 1065SOL    HW1 5092   5.267   7.782   5.880
 1065SOL    HW2 5093   5.376   7.749   5.781
 1066SOL     OW 5094  10.366   6.783   9.294
 1066SOL    HW1 5095  10.322   6.776   9.209
 1066SOL    HW2 5096  10.418   6.703   9.300
 1067SOL     OW 5097   1.306   0.061   2.264
 1067SOL    HW1 5098   1.308  14.875   2.331
 1067SOL    HW2 5099   1.389   0.106   2.272
 1068SOL     OW 5100   1.114  12.764  13.962
 1068SOL    HW1 5101   1.157  12.714  14.032
 1068SOL    HW2 5102   1.026  12.780  13.995
 1069SOL     OW 5103   3.504   2.192   2.128
 1069SOL    HW1 5104   3.493   2.134   2.204
 1069SOL    HW2 5105   3.556   2.140   2.066
 1070SOL     OW 5106  13.484  10.334   9.919
 1070SOL    HW1 5107  13.400  10.325   9.963
 1070SOL    HW2 5108  13.539  10.266   9.958
 1071SOL     OW 5109   4.709   4.801  13.072
 1071SOL    HW1 5110   4.644   4.813  13.003
 1071SOL    HW2 5111   4.734   4.891  13.096
 1072SOL     OW 5112  11.053  14.380  14.170
 1072SOL    HW1 5113  11.100  14.394  14.253
 1072SOL    HW2 5114  10.970  14.341  14.196
 1073SOL     OW 5115   9.736   3.587  14.409
 1073SOL    HW1 5116   9.702   3.533  14.480
 1073SOL    HW2 5117   9.660   3.637  14.379
 1074SOL     OW 5118  14.582   6.494  12.162
 1074SOL    HW1 5119  14.662   6.530  12.125
 1074SOL    HW2 5120  14.524   6.480  12.087
 1075SOL     OW 5121   0.130   4.699   9.449
 1075SOL    HW1 5122   0.096   4.716   9.361
 1075SOL    HW2 5123   0.083   4.760   9.506
 1076SOL     OW 5124   8.130   6.679   4.334
 1076SOL    HW1 5125   8.223   6.705   4.335
 1076SOL    HW2 5126   8.131   6.586   4.310
 1077SOL     OW 5127  14.368   6.890  13.706
 1077SOL    HW1 5128  14.283   6.895  13.661
 1077SOL    HW2 5129  14.432   6.910  13.638
 1078SOL     OW 5130  14.720   3.394  12.127
 1078SOL    HW1 5131  14.723   3.429  12.216
 1078SOL    HW2 5132  14.784   3.322  12.128
 1079SOL     OW 5133  14.334   0.096   5.243
 1079SOL    HW1 5134  14.275   0.041   5.295
 1079SOL    HW2 5135  14.408   0.039   5.223
 1080SOL     OW 5136   0.881  12.759  11.441
 1080SOL    HW1 5137   0.927  12.679  11.416
 1080SOL    HW2 5138   0.941  12.830  11.419
 1081SOL     OW 5139  13.061   8.328  13.606
 1081SOL    HW1 5140  13.053   8.406  13.552
 1081SOL    HW2 5141  13.055   8.360  13.696
 1082SOL     OW 5142   2.354   1.470   9.547
 1082SOL    HW1 5143   2.396   1.437   9.626
 1082SOL    HW2 5144   2.427   1.496   9.491
 1083SOL     OW 5145  11.075  13.924   5.746
 1083SOL    HW1 5146  11.096  13.857   5.682
 1083SOL    HW2 5147  11.141  13.914   5.814
 1084SOL     OW 5148   7.472   7.538  12.827
 1084SOL    HW1 5149   7.416   7.598  12.876
 1084SOL    HW2 5150   7.444   7.547  12.736
 1085SOL     OW 5151  10.657   9.187   6.800
 1085SOL    HW1 5152  10.697   9.136   6.730
 1085SOL    HW2 5153  10.590   9.129   6.836
 1086SOL     OW 5154   2.924   2.317   9.419
 1086SOL    HW1 5155   2.916   2.399   9.468
 1086SOL    HW2 5156   3.018   2.309   9.402
 1087SOL     OW 5157   5.956   6.193  11.762
 1087SOL    HW1 5158   5.979   6.257  11.694
 1087SOL    HW2 5159   5.996   6.111  11.732
 1088SOL     OW 5160   9.073   3.260  10.731
 1088SOL    HW1 5161   9.161   3.287  10.760
 1088SOL    HW2 5162   9.082   3.168  10.708
 1089SOL     OW 5163  13.813  11.416  11.049
 1089SOL    HW1 5164  13.891  11.459  11.015
 1089SOL    HW2 5165  13.766  11.385  10.972
 1090SOL     OW 5166   5.189   6.624   4.283
 1090SOL    HW1 5167   5.169   6.637   4.190
 1090SOL    HW2 5168   5.117   6.664   4.330
 1091SOL     OW 5169  14.834  11.481   5.616
 1091SOL    HW1 5170  14.856  11.454   5.526
 1091SOL    HW2 5171  14.797  11.403   5.656
 1092SOL     OW 5172  13.281   6.207  11.027
 1092SOL    HW1 5173  13.373   6.205  11.054
 1092SOL    HW2 5174  13.278   6.271  10.956
 1093SOL     OW 5175   3.440   2.886  10.171
 1093SOL    HW1 5176   3.368   2.870  10.109
 1093SOL    HW2 5177   3.476   2.800  10.189
 1094SOL     OW 5178   0.427  14.627   4.612
 1094SOL    HW1 5179   0.510  14.631   4.563
 1094SOL    HW2 5180   0.392  14.540   4.591
 1095SOL     OW 5181   6.593   5.472   3.049
 1095SOL    HW1 5182   6.590   5.501   2.957
 1095SOL    HW2 5183   6.644   5.391   3.047
 1096SOL     OW 5184  11.903   9.179   9.862
 1096SOL    HW1 5185  11.878   9.221   9.944
 1096SOL    HW2 5186  11.879   9.087   9.874
 1097SOL     OW 5187  13.167   5.554   4.507
 1097SOL    HW1 5188  13.230   5.625   4.518
 1097SOL    HW2 5189  13.174   5.502   4.587
 1098SOL     OW 5190  12.484   6.818  10.191
 1098SOL    HW1 5191  12.468   6.900  10.143
 1098SOL    HW2 5192  12.544   6.843  10.261
 1099SOL     OW 5193   7.420   4.863   2.963
 1099SOL    HW1 5194   7.367   4.935   2.995
 1099SOL    HW2 5195   7.368   4.785   2.982
 1100SOL     OW 5196   7.499  12.219   9.241
 1100SOL    HW1 5197   7.483  12.254   9.328
 1100SOL    HW2 5198   7.482  12.292   9.182
 1101SOL     OW 5199  11.261   2.443   2.740
 1101SOL    HW1 5200  11.313   2.515   2.776
 1101SOL    HW2 5201  11.308   2.416   2.661
 1102SOL     OW 5202  14.398  13.069   9.922
 1102SOL    HW1 5203  14.359  12.994   9.877
 1102SOL    HW2 5204  14.414  13.038  10.011
 1103SOL     OW 5205  10.257   7.836   2.856
 1103SOL    HW1 5206  10.277   7.872   2.769
 1103SOL    HW2 5207  10.224   7.748   2.838
 1104SOL     OW 5208  14.205  13.311  14.484
 1104SOL    HW1 5209  14.137  13.264  14.532
 1104SOL    HW2 5210  14.264  13.344  14.552
 1105SOL     OW 5211   6.332  14.039   6.337
 1105SOL    HW1 5212   6.313  14.132   6.350
 1105SOL    HW2 5213   6.292  13.996   6.413
 1106SOL     OW 5214   7.374   2.490   3.042
 1106SOL    HW1 5215   7.326   2.433   2.983
 1106SOL    HW2 5216   7.321   2.493   3.122
 1107SOL     OW 5217   0.060   3.218  10.651
 1107SOL    HW1 5218   0.146   3.243  10.685
 1107SOL    HW2 5219   0.078   3.185  10.563
 1108SOL     OW 5220  14.041   6.686  13.157
 1108SOL    HW1 5221  13.979   6.728  13.217
 1108SOL    HW2 5222  14.117   6.664  13.212
 1109SOL     OW 5223  14.861   0.655   1.500
 1109SOL    HW1 5224   0.063   0.669   1.545
 1109SOL    HW2 5225  14.799   0.711   1.547
 1110SOL     OW 5226   8.390   7.585  11.053
 1110SOL    HW1 5227   8.402   7.493  11.079
 1110SOL    HW2 5228   8.302   7.607  11.082
 1111SOL     OW 5229   7.269   6.266   1.200
 1111SOL    HW1 5230   7.270   6.330   1.129
 1111SOL    HW2 5231   7.309   6.311   1.274
 1112SOL     OW 5232  13.813   1.099   4.865
 1112SOL    HW1 5233  13.903   1.066   4.866
 1112SOL    HW2 5234  13.795   1.123   4.956
 1113SOL     OW 5235   1.698   7.228   9.668
 1113SOL    HW1 5236   1.740   7.255   9.586
 1113SOL    HW2 5237   1.699   7.133   9.666
 1114SOL     OW 5238  11.890  13.485   2.235
 1114SOL    HW1 5239  11.894  13.581   2.246
 1114SOL    HW2 5240  11.982  13.457   2.238
 1115SOL     OW 5241  11.261   4.945   3.354
 1115SOL    HW1 5242  11.276   5.033   3.318
 1115SOL    HW2 5243  11.342   4.924   3.400
 1116SOL     OW 5244   2.934  11.538   2.309
 1116SOL    HW1 5245   2.995  11.467   2.327
 1116SOL    HW2 5246   2.889  11.511   2.229
 1117SOL     OW 5247   6.954   0.547   7.253
 1117SOL    HW1 5248   6.909   0.475   7.295
 1117SOL    HW2 5249   7.015   0.506   7.191
 1118SOL     OW 5250  14.638  10.790   6.514
 1118SOL    HW1 5251  14.563  10.779   6.455
 1118SOL    HW2 5252  14.632  10.881   6.544
 1119SOL     OW 5253  13.153   8.030   8.358
 1119SOL    HW1 5254  13.081   8.009   8.418
 1119SOL    HW2 5255  13.223   8.061   8.416
 1120SOL     OW 5256   7.482   2.056  11.623
 1120SOL    HW1 5257   7.487   1.987  11.689
 1120SOL    HW2 5258   7.441   2.013  11.547
 1121SOL     OW 5259   9.019   8.354   9.012
 1121SOL    HW1 5260   9.091   8.327   8.955
 1121SOL    HW2 5261   9.013   8.285   9.078
 1122SOL     OW 5262  12.537   3.356   7.696
 1122SOL    HW1 5263  12.501   3.309   7.621
 1122SOL    HW2 5264  12.533   3.448   7.670
 1123SOL     OW 5265  14.388   6.063   0.816
 1123SOL    HW1 5266  14.337   5.982   0.824
 1123SOL    HW2 5267  14.339   6.117   0.754
 1124SOL     OW 5268   6.021   7.237   6.459
 1124SOL    HW1 5269   5.996   7.315   6.409
 1124SOL    HW2 5270   6.114   7.248   6.476
 1125SOL     OW 5271   8.140   7.439   8.846
 1125SOL    HW1 5272   8.164   7.375   8.912
 1125SOL    HW2 5273   8.080   7.499   8.892
 1126SOL     OW 5274   0.978   5.213   7.833
 1126SOL    HW1 5275   0.995   5.284   7.895
 1126SOL    HW2 5276   1.056   5.212   7.777
 1127SOL     OW 5277   4.441  14.359  14.614
 1127SOL    HW1 5278   4.496  14.285  14.638
 1127SOL    HW2 5279   4.396  14.330  14.534
 1128SOL     OW 5280  12.542  11.864  12.383
 1128SOL    HW1 5281  12.503  11.853  12.296
 1128SOL    HW2 5282  12.596  11.786  12.395
 1129SOL     OW 5283   9.386   6.859   2.656
 1129SOL    HW1 5284   9.437   6.917   2.713
 1129SOL    HW2 5285   9.343   6.918   2.594
 1130SOL     OW 5286  11.538   1.735   5.906
 1130SOL    HW1 5287  11.561   1.770   5.820
 1130SOL    HW2 5288  11.443   1.748   5.913
 1131SOL     OW 5289   6.464   2.864  10.543
 1131SOL    HW1 5290   6.374   2.896  10.552
 1131SOL    HW2 5291   6.514   2.915  10.606
 1132SOL     OW 5292   9.981  10.390  13.750
 1132SOL    HW1 5293   9.930  10.468  13.774
 1132SOL    HW2 5294   9.918  10.318  13.753
 1133SOL     OW 5295   2.838   8.830   6.187
 1133SOL    HW1 5296   2.835   8.851   6.094
 1133SOL    HW2 5297   2.855   8.736   6.191
 1134SOL     OW 5298  13.487  13.886   9.347
 1134SOL    HW1 5299  13.492  13.845   9.433
 1134SOL    HW2 5300  13.425  13.832   9.298
 1135SOL     OW 5301   0.921  11.297   2.581
 1135SOL    HW1 5302   0.992  11.248   2.623
 1135SOL    HW2 5303   0.946  11.389   2.592
 1136SOL     OW 5304   3.350  10.966  14.476
 1136SOL    HW1 5305   3.334  10.872  14.472
 1136SOL    HW2 5306   3.330  10.990  14.567
 1137SOL     OW 5307   7.840   7.306   8.895
 1137SOL    HW1 5308   7.929   7.284   8.923
 1137SOL    HW2 5309   7.826   7.256   8.815
 1138SOL     OW 5310   9.010  12.783   5.807
 1138SOL    HW1 5311   8.996  12.689   5.815
 1138SOL    HW2 5312   9.072  12.792   5.735
 1139SOL     OW 5313   1.371   9.994   1.612
 1139SOL    HW1 5314   1.417   9.986   1.528
 1139SOL    HW2 5315   1.434  10.036   1.670
 1140SOL     OW 5316   3.322   8.176  10.447
 1140SOL    HW1 5317   3.299   8.268  10.460
 1140SOL    HW2 5318   3.392   8.178  10.381
 1141SOL     OW 5319   4.195   0.564   1.142
 1141SOL    HW1 5320   4.275   0.547   1.191
 1141SOL    HW2 5321   4.218   0.549   1.051
 1142SOL     OW 5322   3.962   9.094   7.541
 1142SOL    HW1 5323   3.899   9.084   7.469
 1142SOL    HW2 5324   3.945   9.181   7.575
 1143SOL     OW 5325   9.720  11.308   1.113
 1143SOL    HW1 5326   9.661  11.291   1.040
 1143SOL    HW2 5327   9.668  11.291   1.192
 1144SOL     OW 5328   4.716   7.152   0.281
 1144SOL    HW1 5329   4.738   7.060   0.269
 1144SOL    HW2 5330   4.630   7.162   0.240
 1145SOL     OW 5331   9.111  10.830   5.323
 1145SOL    HW1 5332   9.121  10.770   5.249
 1145SOL    HW2 5333   9.065  10.905   5.286
 1146SOL     OW 5334   2.933  13.831   2.688
 1146SOL    HW1 5335   2.851  13.841   2.641
 1146SOL    HW2 5336   2.957  13.739   2.675
 1147SOL     OW 5337   2.663   5.568  12.982
 1147SOL    HW1 5338   2.647   5.626  13.057
 1147SOL    HW2 5339   2.660   5.480  13.019
 1148SOL     OW 5340   2.742  14.420  12.445
 1148SOL    HW1 5341   2.725  14.484  12.514
 1148SOL    HW2 5342   2.656  14.380  12.429
 1149SOL     OW 5343   1.352   9.225   8.782
 1149SOL    HW1 5344   1.361   9.168   8.859
 1149SOL    HW2 5345   1.274   9.193   8.738
 1150SOL     OW 5346   6.126   7.860  13.043
 1150SOL    HW1 5347   6.037   7.831  13.024
 1150SOL    HW2 5348   6.134   7.945  12.999
 1151SOL     OW 5349   7.581  12.980   1.770
 1151SOL    HW1 5350   7.512  12.923   1.737
 1151SOL    HW2 5351   7.537  13.038   1.833
 1152SOL     OW 5352   8.574   9.088  11.676
 1152SOL    HW1 5353   8.507   9.021  11.692
 1152SOL    HW2 5354   8.534   9.169  11.707
 1153SOL     OW 5355   2.582  10.970   2.310
 1153SOL    HW1 5356   2.512  11.023   2.273
 1153SOL    HW2 5357   2.587  10.998   2.402
 1154SOL     OW 5358   8.469  11.281   3.425
 1154SOL    HW1 5359   8.527  11.319   3.360
 1154SOL    HW2 5360   8.430  11.356   3.470
 1155SOL     OW 5361   4.531  14.220   8.648
 1155SOL    HW1 5362   4.462  14.154   8.654
 1155SOL    HW2 5363   4.545  14.233   8.555
 1156SOL     OW 5364   5.940   4.274   1.468
 1156SOL    HW1 5365   5.876   4.229   1.413
 1156SOL    HW2 5366   5.896   4.354   1.496
 1157SOL     OW 5367   9.413  12.956   8.556
 1157SOL    HW1 5368   9.468  12.895   8.507
 1157SOL    HW2 5369   9.360  12.999   8.489
 1158SOL     OW 5370   4.930   4.192  12.567
 1158SOL    HW1 5371   4.948   4.110  12.612
 1158SOL    HW2 5372   4.853   4.174  12.513
 1159SOL     OW 5373   1.598   1.835   4.042
 1159SOL    HW1 5374   1.591   1.840   4.137
 1159SOL    HW2 5375   1.680   1.788   4.026
 1160SOL     OW 5376   1.779  13.782   2.397
 1160SOL    HW1 5377   1.733  13.796   2.479
 1160SOL    HW2 5378   1.716  13.737   2.341
 1161SOL     OW 5379   3.505   4.325   6.566
 1161SOL    HW1 5380   3.482   4.253   6.625
 1161SOL    HW2 5381   3.544   4.282   6.490
 1162SOL     OW 5382   6.049   8.766   8.548
 1162SOL    HW1 5383   6.058   8.757   8.453
 1162SOL    HW2 5384   6.028   8.859   8.561
 1163SOL     OW 5385   6.808   5.439  10.900
 1163SOL    HW1 5386   6.814   5.488  10.819
 1163SOL    HW2 5387   6.715   5.441  10.923
 1164SOL     OW 5388  11.083   3.803   1.005
 1164SOL    HW1 5389  11.137   3.765   1.074
 1164SOL    HW2 5390  11.009   3.843   1.052
 1165SOL     OW 5391   6.039   6.521   5.164
 1165SOL    HW1 5392   5.967   6.458   5.169
 1165SOL    HW2 5393   6.116   6.472   5.194
 1166SOL     OW 5394   9.512  10.830  11.291
 1166SOL    HW1 5395   9.467  10.914  11.294
 1166SOL    HW2 5396   9.565  10.829  11.371
 1167SOL     OW 5397   0.667   6.029   4.163
 1167SOL    HW1 5398   0.722   6.098   4.201
 1167SOL    HW2 5399   0.616   5.997   4.237
 1168SOL     OW 5400  10.901  12.730   8.902
 1168SOL    HW1 5401  10.996  12.722   8.903
 1168SOL    HW2 5402  10.878  12.727   8.809
 1169SOL     OW 5403   3.835  10.523   6.951
 1169SOL    HW1 5404   3.903  10.485   7.007
 1169SOL    HW2 5405   3.760  10.463   6.961
 1170SOL     OW 5406  14.664   4.087  14.005
 1170SOL    HW1 5407  14.587   4.126  13.964
 1170SOL    HW2 5408  14.669   4.129  14.091
 1171SOL     OW 5409   9.822   1.271   2.024
 1171SOL    HW1 5410   9.805   1.183   2.056
 1171SOL    HW2 5411   9.845   1.322   2.102
 1172SOL     OW 5412   5.043  10.975   4.139
 1172SOL    HW1 5413   4.988  10.900   4.117
 1172SOL    HW2 5414   5.132  10.941   4.134
 1173SOL     OW 5415   4.459   6.106   4.923
 1173SOL    HW1 5416   4.466   6.160   4.844
 1173SOL    HW2 5417   4.549   6.095   4.953
 1174SOL     OW 5418   2.868   1.304   4.820
 1174SOL    HW1 5419   2.939   1.343   4.769
 1174SOL    HW2 5420   2.905   1.294   4.908
 1175SOL     OW 5421   8.404   1.528   9.386
 1175SOL    HW1 5422   8.392   1.460   9.452
 1175SOL    HW2 5423   8.492   1.562   9.402
 1176SOL     OW 5424  14.580   9.785  14.822
 1176SOL    HW1 5425  14.613   9.727  14.755
 1176SOL    HW2 5426  14.505   9.738  14.861
 1177SOL     OW 5427  12.547   6.017  10.053
 1177SOL    HW1 5428  12.539   5.939   9.998
 1177SOL    HW2 5429  12.457   6.048  10.065
 1178SOL     OW 5430  13.569   9.845   8.136
 1178SOL    HW1 5431  13.529   9.891   8.062
 1178SOL    HW2 5432  13.657   9.882   8.142
 1179SOL     OW 5433   6.835   4.384   4.168
 1179SOL    HW1 5434   6.875   4.441   4.102
 1179SOL    HW2 5435   6.869   4.297   4.148
 1180SOL     OW 5436   0.293   5.039   0.130
 1180SOL    HW1 5437   0.281   5.117   0.075
 1180SOL    HW2 5438   0.386   5.017   0.121
 1181SOL     OW 5439   7.688   3.491   1.373
 1181SOL    HW1 5440   7.732   3.574   1.358
 1181SOL    HW2 5441   7.595   3.512   1.372
 1182SOL     OW 5442   0.438   5.305   1.116
 1182SOL    HW1 5443   0.493   5.227   1.110
 1182SOL    HW2 5444   0.349   5.272   1.118
 1183SOL     OW 5445   8.677   5.212   5.279
 1183SOL    HW1 5446   8.750   5.166   5.320
 1183SOL    HW2 5447   8.608   5.146   5.272
 1184SOL     OW 5448   3.108   2.671  14.620
 1184SOL    HW1 5449   3.164   2.634  14.689
 1184SOL    HW2 5450   3.169   2.692  14.549
 1185SOL     OW 5451   4.243  11.022  10.720
 1185SOL    HW1 5452   4.214  10.942  10.764
 1185SOL    HW2 5453   4.166  11.078  10.718
 1186SOL     OW 5454  14.707   7.478   5.931
 1186SOL    HW1 5455  14.724   7.409   5.996
 1186SOL    HW2 5456  14.794   7.508   5.905
 1187SOL     OW 5457   4.050   7.726  12.352
 1187SOL    HW1 5458   4.099   7.725  12.434
 1187SOL    HW2 5459   4.067   7.812  12.314
 1188SOL     OW 5460   4.800  14.455   7.705
 1188SOL    HW1 5461   4.786  14.550   7.702
 1188SOL    HW2 5462   4.833  14.433   7.618
 1189SOL     OW 5463  13.812   7.884   0.368
 1189SOL    HW1 5464  13.756   7.830   0.312
 1189SOL    HW2 5465  13.768   7.970   0.369
 1190SOL     OW 5466  14.418   5.269   8.365
 1190SOL    HW1 5467  14.428   5.252   8.271
 1190SOL    HW2 5468  14.490   5.329   8.386
 1191SOL     OW 5469   9.315  13.274   5.258
 1191SOL    HW1 5470   9.282  13.277   5.348
 1191SOL    HW2 5471   9.384  13.341   5.256
 1192SOL     OW 5472   5.345   4.005   4.647
 1192SOL    HW1 5473   5.293   4.076   4.611
 1192SOL    HW2 5474   5.426   4.047   4.677
 1193SOL     OW 5475   7.758   5.853  14.116
 1193SOL    HW1 5476   7.752   5.928  14.175
 1193SOL    HW2 5477   7.668   5.819  14.111
 1194SOL     OW 5478   5.265   8.925  11.906
 1194SOL    HW1 5479   5.263   8.877  11.823
 1194SOL    HW2 5480   5.210   9.001  11.892
 1195SOL     OW 5481   0.232   2.795  11.618
 1195SOL    HW1 5482   0.257   2.777  11.528
 1195SOL    HW2 5483   0.204   2.887  11.617
 1196SOL     OW 5484   4.720  14.866  10.490
 1196SOL    HW1 5485   4.807   0.020  10.476
 1196SOL    HW2 5486   4.735  14.775  10.516
 1197SOL     OW 5487   8.568   5.152   4.100
 1197SOL    HW1 5488   8.590   5.243   4.082
 1197SOL    HW2 5489   8.520   5.123   4.022
 1198SOL     OW 5490   2.285   4.841  11.055
 1198SOL    HW1 5491   2.309   4.841  10.962
 1198SOL    HW2 5492   2.356   4.889  11.098
 1199SOL     OW 5493  14.390  10.820   9.620
 1199SOL    HW1 5494  14.368  10.887   9.685
 1199SOL    HW2 5495  14.311  10.811   9.567
 1200SOL     OW 5496   4.100   6.986   6.306
 1200SOL    HW1 5497   4.171   6.936   6.267
 1200SOL    HW2 5498   4.130   7.077   6.303
 1201SOL     OW 5499   6.821   2.252   8.538
 1201SOL    HW1 5500   6.858   2.194   8.472
 1201SOL    HW2 5501   6.887   2.256   8.607
 1202SOL     OW 5502   7.861   1.756   6.133
 1202SOL    HW1 5503   7.877   1.700   6.057
 1202SOL    HW2 5504   7.896   1.841   6.107
 1203SOL     OW 5505   1.011  10.964   5.720
 1203SOL    HW1 5506   1.083  10.907   5.695
 1203SOL    HW2 5507   0.997  11.020   5.644
 1204SOL     OW 5508  11.744   1.358   6.532
 1204SOL    HW1 5509  11.783   1.441   6.560
 1204SOL    HW2 5510  11.761   1.354   6.438
 1205SOL     OW 5511  13.040  10.561   1.534
 1205SOL    HW1 5512  12.990  10.643   1.527
 1205SOL    HW2 5513  12.978  10.500   1.575
 1206SOL     OW 5514   6.418   8.520  13.304
 1206SOL    HW1 5515   6.484   8.535  13.372
 1206SOL    HW2 5516   6.467   8.479  13.233
 1207SOL     OW 5517  11.044   4.283  14.853
 1207SOL    HW1 5518  11.019   4.354   0.030
 1207SOL    HW2 5519  10.961   4.256  14.813
 1208SOL     OW 5520   2.122  12.693  12.527
 1208SOL    HW1 5521   2.179  12.627  12.567
 1208SOL    HW2 5522   2.146  12.775  12.569
 1209SOL     OW 5523   6.597   5.519   7.064
 1209SOL    HW1 5524   6.685   5.551   7.086
 1209SOL    HW2 5525   6.538   5.585   7.099
 1210SOL     OW 5526  13.113   7.673   1.591
 1210SOL    HW1 5527  13.019   7.688   1.591
 1210SOL    HW2 5528  13.151   7.759   1.574
 1211SOL     OW 5529  14.456   7.666   8.787
 1211SOL    HW1 5530  14.380   7.634   8.738
 1211SOL    HW2 5531  14.431   7.657   8.879
 1212SOL     OW 5532   1.995  10.258   6.566
 1212SOL    HW1 5533   2.034  10.344   6.556
 1212SOL    HW2 5534   2.020  10.210   6.487
 1213SOL     OW 5535   9.825   7.568   8.238
 1213SOL    HW1 5536   9.907   7.562   8.189
 1213SOL    HW2 5537   9.844   7.525   8.321
 1214SOL     OW 5538   1.291  11.228   1.250
 1214SOL    HW1 5539   1.347  11.166   1.204
 1214SOL    HW2 5540   1.350  11.299   1.277
 1215SOL     OW 5541   9.334  11.397   6.190
 1215SOL    HW1 5542   9.372  11.317   6.226
 1215SOL    HW2 5543   9.241  11.377   6.177
 1216SOL     OW 5544   7.940  10.811   0.897
 1216SOL    HW1 5545   8.016  10.754   0.887
 1216SOL    HW2 5546   7.976  10.900   0.891
 1217SOL     OW 5547  13.156   4.658   0.442
 1217SOL    HW1 5548  13.203   4.622   0.517
 1217SOL    HW2 5549  13.221   4.712   0.397
 1218SOL     OW 5550   9.664   4.911   5.663
 1218SOL    HW1 5551   9.721   4.901   5.587
 1218SOL    HW2 5552   9.588   4.959   5.630
 1219SOL     OW 5553   0.485  12.391   4.910
 1219SOL    HW1 5554   0.504  12.304   4.944
 1219SOL    HW2 5555   0.568  12.438   4.916
 1220SOL     OW 5556   2.481   6.370   9.671
 1220SOL    HW1 5557   2.408   6.408   9.624
 1220SOL    HW2 5558   2.556   6.426   9.649
 1221SOL     OW 5559  14.040  12.169   4.665
 1221SOL    HW1 5560  13.977  12.188   4.595
 1221SOL    HW2 5561  14.109  12.234   4.653
 1222SOL     OW 5562  12.624  11.373   9.343
 1222SOL    HW1 5563  12.579  11.291   9.362
 1222SOL    HW2 5564  12.564  11.421   9.286
 1223SOL     OW 5565   8.255   6.923   2.447
 1223SOL    HW1 5566   8.220   7.006   2.417
 1223SOL    HW2 5567   8.205   6.856   2.399
 1224SOL     OW 5568   4.560   6.336   1.702
 1224SOL    HW1 5569   4.558   6.249   1.662
 1224SOL    HW2 5570   4.538   6.320   1.794
 1225SOL     OW 5571   6.005   6.053   6.880
 1225SOL    HW1 5572   6.057   6.126   6.847
 1225SOL    HW2 5573   6.022   5.981   6.820
 1226SOL     OW 5574  12.778  14.126   7.992
 1226SOL    HW1 5575  12.698  14.170   8.022
 1226SOL    HW2 5576  12.756  14.097   7.903
 1227SOL     OW 5577  13.876  14.192   2.219
 1227SOL    HW1 5578  13.828  14.261   2.265
 1227SOL    HW2 5579  13.968  14.217   2.228
 1228SOL     OW 5580  10.083   5.340   5.149
 1228SOL    HW1 5581  10.088   5.401   5.223
 1228SOL    HW2 5582  10.087   5.395   5.072
 1229SOL     OW 5583  14.875  10.588  12.152
 1229SOL    HW1 5584  14.823  10.644  12.209
 1229SOL    HW2 5585   0.072  10.639  12.134
 1230SOL     OW 5586  13.157   6.998   1.745
 1230SOL    HW1 5587  13.087   7.051   1.706
 1230SOL    HW2 5588  13.187   6.942   1.673
 1231SOL     OW 5589  10.529   8.728   9.409
 1231SOL    HW1 5590  10.571   8.688   9.333
 1231SOL    HW2 5591  10.534   8.822   9.394
 1232SOL     OW 5592   1.497   3.062  13.610
 1232SOL    HW1 5593   1.485   2.969  13.593
 1232SOL    HW2 5594   1.460   3.076  13.697
 1233SOL     OW 5595   2.389  12.622   2.388
 1233SOL    HW1 5596   2.462  12.576   2.345
 1233SOL    HW2 5597   2.402  12.714   2.367
 1234SOL     OW 5598  14.362  11.914   8.544
 1234SOL    HW1 5599  14.363  11.818   8.544
 1234SOL    HW2 5600  14.285  11.937   8.596
 1235SOL     OW 5601   5.388  10.005  10.336
 1235SOL    HW1 5602   5.471   9.971  10.301
 1235SOL    HW2 5603   5.394   9.991  10.430
 1236SOL     OW 5604  12.642   1.207  10.917
 1236SOL    HW1 5605  12.634   1.188  11.010
 1236SOL    HW2 5606  12.560   1.177  10.879
 1237SOL     OW 5607   9.807   1.883   5.083
 1237SOL    HW1 5608   9.751   1.874   5.006
 1237SOL    HW2 5609   9.760   1.837   5.152
 1238SOL     OW 5610  10.644  14.366   1.252
 1238SOL    HW1 5611  10.732  14.385   1.219
 1238SOL    HW2 5612  10.589  14.364   1.173
 1239SOL     OW 5613   6.124   9.572   0.733
 1239SOL    HW1 5614   6.192   9.529   0.682
 1239SOL    HW2 5615   6.132   9.535   0.821
 1240SOL     OW 5616   4.021   4.035   3.656
 1240SOL    HW1 5617   4.042   4.099   3.587
 1240SOL    HW2 5618   3.981   3.962   3.610
 1241SOL     OW 5619   6.746  11.662  10.194
 1241SOL    HW1 5620   6.664  11.697  10.158
 1241SOL    HW2 5621   6.719  11.584  10.242
 1242SOL     OW 5622  13.142   6.729   3.076
 1242SOL    HW1 5623  13.197   6.803   3.048
 1242SOL    HW2 5624  13.204   6.657   3.087
 1243SOL     OW 5625   5.900   5.457  13.604
 1243SOL    HW1 5626   5.884   5.443  13.511
 1243SOL    HW2 5627   5.829   5.514  13.632
 1244SOL     OW 5628   9.477   4.398  14.856
 1244SOL    HW1 5629   9.443   4.487  14.854
 1244SOL    HW2 5630   9.571   4.408  14.841
 1245SOL     OW 5631   5.663   7.717   1.141
 1245SOL    HW1 5632   5.616   7.664   1.206
 1245SOL    HW2 5633   5.594   7.748   1.082
 1246SOL     OW 5634   1.366  13.934   4.555
 1246SOL    HW1 5635   1.308  13.876   4.507
 1246SOL    HW2 5636   1.450  13.889   4.556
 1247SOL     OW 5637   3.708   6.403   4.806
 1247SOL    HW1 5638   3.708   6.324   4.860
 1247SOL    HW2 5639   3.715   6.475   4.869
 1248SOL     OW 5640   5.908   7.296  12.587
 1248SOL    HW1 5641   5.968   7.314  12.515
 1248SOL    HW2 5642   5.908   7.201  12.596
 1249SOL     OW 5643  12.848   5.593   5.822
 1249SOL    HW1 5644  12.936   5.609   5.789
 1249SOL    HW2 5645  12.852   5.617   5.914
 1250SOL     OW 5646   3.730   7.864  11.254
 1250SOL    HW1 5647   3.816   7.842  11.289
 1250SOL    HW2 5648   3.692   7.923  11.319
 1251SOL     OW 5649  12.554   1.736  13.941
 1251SOL    HW1 5650  12.571   1.700  13.854
 1251SOL    HW2 5651  12.578   1.666  14.001
 1252SOL     OW 5652   6.501   9.332   0.792
 1252SOL    HW1 5653   6.544   9.257   0.751
 1252SOL    HW2 5654   6.414   9.299   0.817
 1253SOL     OW 5655  12.491   3.551   9.652
 1253SOL    HW1 5656  12.406   3.583   9.622
 1253SOL    HW2 5657  12.506   3.472   9.600
 1254SOL     OW 5658  12.792   4.225   8.584
 1254SOL    HW1 5659  12.795   4.156   8.518
 1254SOL    HW2 5660  12.709   4.270   8.567
 1255SOL     OW 5661   9.549   8.203  12.678
 1255SOL    HW1 5662   9.474   8.145  12.668
 1255SOL    HW2 5663   9.515   8.278  12.728
 1256SOL     OW 5664   5.251   5.036   3.714
 1256SOL    HW1 5665   5.226   4.947   3.736
 1256SOL    HW2 5666   5.244   5.085   3.796
 1257SOL     OW 5667   5.857   8.380   1.870
 1257SOL    HW1 5668   5.902   8.404   1.789
 1257SOL    HW2 5669   5.925   8.383   1.937
 1258SOL     OW 5670   2.444   7.618   4.494
 1258SOL    HW1 5671   2.411   7.643   4.580
 1258SOL    HW2 5672   2.483   7.698   4.459
 1259SOL     OW 5673   4.659   1.767   8.279
 1259SOL    HW1 5674   4.567   1.748   8.299
 1259SOL    HW2 5675   4.657   1.797   8.188
 1260SOL     OW 5676   9.077  14.334   4.970
 1260SOL    HW1 5677   9.123  14.405   4.926
 1260SOL    HW2 5678   9.085  14.355   5.063
 1261SOL     OW 5679   7.452   1.903  14.425
 1261SOL    HW1 5680   7.489   1.818  14.449
 1261SOL    HW2 5681   7.358   1.888  14.420
 1262SOL     OW 5682   9.396   8.394   1.868
 1262SOL    HW1 5683   9.377   8.482   1.836
 1262SOL    HW2 5684   9.481   8.372   1.828
 1263SOL     OW 5685  11.301   1.032   9.644
 1263SOL    HW1 5686  11.373   1.087   9.613
 1263SOL    HW2 5687  11.266   0.991   9.565
 1264SOL     OW 5688  10.358   4.934   2.937
 1264SOL    HW1 5689  10.390   4.995   2.870
 1264SOL    HW2 5690  10.357   4.986   3.017
 1265SOL     OW 5691   9.904   6.102   0.096
 1265SOL    HW1 5692   9.862   6.030   0.050
 1265SOL    HW2 5693   9.831   6.154   0.130
 1266SOL     OW 5694   4.260  11.448   4.473
 1266SOL    HW1 5695   4.197  11.378   4.493
 1266SOL    HW2 5696   4.205  11.524   4.453
 1267SOL     OW 5697  13.402  13.358  11.126
 1267SOL    HW1 5698  13.307  13.351  11.117
 1267SOL    HW2 5699  13.435  13.269  11.109
 1268SOL     OW 5700  10.435   6.177   1.575
 1268SOL    HW1 5701  10.434   6.217   1.662
 1268SOL    HW2 5702  10.478   6.243   1.520
 1269SOL     OW 5703   5.910   1.131   1.283
 1269SOL    HW1 5704   5.837   1.069   1.288
 1269SOL    HW2 5705   5.935   1.146   1.374
 1270SOL     OW 5706   6.991   2.118   9.357
 1270SOL    HW1 5707   6.944   2.120   9.274
 1270SOL    HW2 5708   6.954   2.043   9.403
 1271SOL     OW 5709   9.202  13.989   4.216
 1271SOL    HW1 5710   9.199  13.962   4.308
 1271SOL    HW2 5711   9.267  14.060   4.215
 1272SOL     OW 5712  12.704   0.092   1.509
 1272SOL    HW1 5713  12.651   0.156   1.557
 1272SOL    HW2 5714  12.644   0.057   1.443
 1273SOL     OW 5715   5.371   7.466   5.104
 1273SOL    HW1 5716   5.411   7.411   5.171
 1273SOL    HW2 5717   5.331   7.405   5.043
 1274SOL     OW 5718  10.748   4.951   0.792
 1274SOL    HW1 5719  10.659   4.923   0.770
 1274SOL    HW2 5720  10.766   5.024   0.733
 1275SOL     OW 5721   8.570  11.995  10.542
 1275SOL    HW1 5722   8.511  11.926  10.513
 1275SOL    HW2 5723   8.657  11.963  10.522
 1276SOL     OW 5724   7.317   6.216   5.783
 1276SOL    HW1 5725   7.258   6.151   5.743
 1276SOL    HW2 5726   7.303   6.205   5.877
 1277SOL     OW 5727   0.158   9.572   5.791
 1277SOL    HW1 5728   0.196   9.606   5.711
 1277SOL    HW2 5729   0.218   9.503   5.819
 1278SOL     OW 5730   6.443  14.422   2.234
 1278SOL    HW1 5731   6.523  14.458   2.196
 1278SOL    HW2 5732   6.402  14.495   2.278
 1279SOL     OW 5733  12.780  10.818  10.180
 1279SOL    HW1 5734  12.716  10.750  10.204
 1279SOL    HW2 5735  12.865  10.773  10.184
 1280SOL     OW 5736  11.187  13.157   0.191
 1280SOL    HW1 5737  11.105  13.157   0.241
 1280SOL    HW2 5738  11.196  13.247   0.159
 1281SOL     OW 5739   9.148   3.411  11.175
 1281SOL    HW1 5740   9.185   3.451  11.096
 1281SOL    HW2 5741   9.113   3.484  11.226
 1282SOL     OW 5742   9.055  12.090  11.562
 1282SOL    HW1 5743   9.063  12.063  11.470
 1282SOL    HW2 5744   8.965  12.069  11.585
 1283SOL     OW 5745   0.814   4.479  13.510
 1283SOL    HW1 5746   0.762   4.475  13.430
 1283SOL    HW2 5747   0.904   4.492  13.481
 1284SOL     OW 5748   4.954   4.136   1.857
 1284SOL    HW1 5749   4.952   4.044   1.881
 1284SOL    HW2 5750   4.964   4.183   1.940
 1285SOL     OW 5751  13.292  12.642  10.368
 1285SOL    HW1 5752  13.323  12.578  10.433
 1285SOL    HW2 5753  13.372  12.676  10.328
 1286SOL     OW 5754  10.238   0.244   4.557
 1286SOL    HW1 5755  10.153   0.210   4.528
 1286SOL    HW2 5756  10.260   0.313   4.495
 1287SOL     OW 5757  12.440  13.716  12.393
 1287SOL    HW1 5758  12.485  13.698  12.475
 1287SOL    HW2 5759  12.440  13.811  12.385
 1288SOL     OW 5760   2.988   4.552   4.410
 1288SOL    HW1 5761   3.048   4.549   4.484
 1288SOL    HW2 5762   3.014   4.629   4.360
 1289SOL     OW 5763   6.648   9.640   9.047
 1289SOL    HW1 5764   6.668   9.723   9.005
 1289SOL    HW2 5765   6.708   9.636   9.122
 1290SOL     OW 5766   8.270   6.512  14.193
 1290SOL    HW1 5767   8.348   6.522  14.139
 1290SOL    HW2 5768   8.294   6.448  14.259
 1291SOL     OW 5769   4.488   9.111  11.467
 1291SOL    HW1 5770   4.452   9.045  11.526
 1291SOL    HW2 5771   4.473   9.075  11.379
 1292SOL     OW 5772   7.818   6.392   8.696
 1292SOL    HW1 5773   7.885   6.405   8.762
 1292SOL    HW2 5774   7.744   6.356   8.744
 1293SOL     OW 5775   5.811  10.843  13.466
 1293SOL    HW1 5776   5.754  10.805  13.399
 1293SOL    HW2 5777   5.805  10.937  13.452
 1294SOL     OW 5778   9.118   5.964   8.568
 1294SOL    HW1 5779   9.027   5.969   8.539
 1294SOL    HW2 5780   9.152   6.053   8.557
 1295SOL     OW 5781   3.739   9.782   2.577
 1295SOL    HW1 5782   3.813   9.827   2.537
 1295SOL    HW2 5783   3.768   9.760   2.665
 1296SOL     OW 5784   2.432  13.974   3.639
 1296SOL    HW1 5785   2.468  14.048   3.689
 1296SOL    HW2 5786   2.507  13.937   3.593
 1297SOL     OW 5787   7.081   3.209  12.801
 1297SOL    HW1 5788   7.172   3.235  12.795
 1297SOL    HW2 5789   7.070   3.178  12.891
 1298SOL     OW 5790   5.765   8.039  14.744
 1298SOL    HW1 5791   5.683   8.074  14.709
 1298SOL    HW2 5792   5.811   8.006  14.666
 1299SOL     OW 5793   3.035  11.810   0.292
 1299SOL    HW1 5794   2.994  11.724   0.282
 1299SOL    HW2 5795   3.063  11.834   0.204
 1300SOL     OW 5796   8.381  13.392   6.078
 1300SOL    HW1 5797   8.424  13.371   6.161
 1300SOL    HW2 5798   8.424  13.336   6.014
 1301SOL     OW 5799   2.219  13.682  11.981
 1301SOL    HW1 5800   2.234  13.734  12.060
 1301SOL    HW2 5801   2.304  13.646  11.959
 1302SOL     OW 5802   5.879   1.062   6.525
 1302SOL    HW1 5803   5.830   0.980   6.525
 1302SOL    HW2 5804   5.854   1.105   6.607
 1303SOL     OW 5805  10.126   9.630  13.272
 1303SOL    HW1 5806  10.053   9.655  13.216
 1303SOL    HW2 5807  10.178   9.709  13.281
 1304SOL     OW 5808  11.110   2.999  14.115
 1304SOL    HW1 5809  11.068   2.952  14.187
 1304SOL    HW2 5810  11.069   2.964  14.036
 1305SOL     OW 5811  14.641   6.492   4.328
 1305SOL    HW1 5812  14.720   6.490   4.275
 1305SOL    HW2 5813  14.596   6.572   4.300
 1306SOL     OW 5814   4.282   5.479  13.493
 1306SOL    HW1 5815   4.299   5.473  13.399
 1306SOL    HW2 5816   4.193   5.446  13.503
 1307SOL     OW 5817  13.342  13.439   1.544
 1307SOL    HW1 5818  13.298  13.521   1.524
 1307SOL    HW2 5819  13.283  13.393   1.604
 1308SOL     OW 5820  11.091  12.798   7.641
 1308SOL    HW1 5821  11.057  12.856   7.573
 1308SOL    HW2 5822  11.071  12.843   7.723
 1309SOL     OW 5823  10.105   2.042   6.343
 1309SOL    HW1 5824  10.139   2.123   6.380
 1309SOL    HW2 5825  10.016   2.034   6.378
 1310SOL     OW 5826   6.528   4.262  10.911
 1310SOL    HW1 5827   6.538   4.247  11.005
 1310SOL    HW2 5828   6.606   4.223  10.872
 1311SOL     OW 5829  11.745   2.236  11.711
 1311SOL    HW1 5830  11.685   2.252  11.639
 1311SOL    HW2 5831  11.688   2.214  11.785
 1312SOL     OW 5832  10.697   4.221   2.138
 1312SOL    HW1 5833  10.746   4.217   2.220
 1312SOL    HW2 5834  10.628   4.284   2.155
 1313SOL     OW 5835   7.986  12.423   6.433
 1313SOL    HW1 5836   8.025  12.349   6.387
 1313SOL    HW2 5837   8.002  12.405   6.525
 1314SOL     OW 5838  11.400   6.817  12.297
 1314SOL    HW1 5839  11.484   6.772  12.286
 1314SOL    HW2 5840  11.415   6.903  12.258
 1315SOL     OW 5841   7.865   5.860   6.935
 1315SOL    HW1 5842   7.931   5.799   6.903
 1315SOL    HW2 5843   7.885   5.943   6.892
 1316SOL     OW 5844   5.140   8.581  11.655
 1316SOL    HW1 5845   5.188   8.501  11.678
 1316SOL    HW2 5846   5.066   8.582  11.715
 1317SOL     OW 5847   3.508   5.102   3.539
 1317SOL    HW1 5848   3.496   5.141   3.452
 1317SOL    HW2 5849   3.586   5.048   3.530
 1318SOL     OW 5850  12.239   0.242  10.610
 1318SOL    HW1 5851  12.208   0.329  10.631
 1318SOL    HW2 5852  12.330   0.255  10.581
 1319SOL     OW 5853  13.251   1.175   8.862
 1319SOL    HW1 5854  13.340   1.142   8.849
 1319SOL    HW2 5855  13.203   1.144   8.785
 1320SOL     OW 5856   3.625   5.030  12.086
 1320SOL    HW1 5857   3.601   5.040  12.179
 1320SOL    HW2 5858   3.719   5.048  12.083
 1321SOL     OW 5859  10.950   5.113   8.150
 1321SOL    HW1 5860  11.044   5.128   8.160
 1321SOL    HW2 5861  10.911   5.151   8.229
 1322SOL     OW 5862   3.858   6.047  14.511
 1322SOL    HW1 5863   3.937   6.098  14.529
 1322SOL    HW2 5864   3.787   6.110  14.511
 1323SOL     OW 5865   1.849   8.650   1.433
 1323SOL    HW1 5866   1.939   8.676   1.451
 1323SOL    HW2 5867   1.830   8.687   1.347
 1324SOL     OW 5868   0.723   1.565   9.848
 1324SOL    HW1 5869   0.730   1.551   9.754
 1324SOL    HW2 5870   0.659   1.501   9.878
 1325SOL     OW 5871  10.646  12.138  13.783
 1325SOL    HW1 5872  10.665  12.054  13.742
 1325SOL    HW2 5873  10.711  12.147  13.852
 1326SOL     OW 5874   3.073  13.573   1.092
 1326SOL    HW1 5875   3.125  13.564   1.173
 1326SOL    HW2 5876   3.020  13.493   1.089
 1327SOL     OW 5877   2.186  13.084  11.985
 1327SOL    HW1 5878   2.113  13.064  11.926
 1327SOL    HW2 5879   2.162  13.042  12.068
 1328SOL     OW 5880   7.287  12.686   6.565
 1328SOL    HW1 5881   7.259  12.741   6.492
 1328SOL    HW2 5882   7.366  12.728   6.599
 1329SOL     OW 5883   1.230   4.505  14.650
 1329SOL    HW1 5884   1.157   4.479  14.706
 1329SOL    HW2 5885   1.278   4.570  14.701
 1330SOL     OW 5886   1.621   8.725   7.182
 1330SOL    HW1 5887   1.537   8.680   7.185
 1330SOL    HW2 5888   1.657   8.715   7.270
 1331SOL     OW 5889   9.800   9.082   8.101
 1331SOL    HW1 5890   9.759   9.138   8.035
 1331SOL    HW2 5891   9.728   9.049   8.154
 1332SOL     OW 5892  12.245  13.117   6.235
 1332SOL    HW1 5893  12.297  13.045   6.270
 1332SOL    HW2 5894  12.293  13.147   6.158
 1333SOL     OW 5895   8.012   1.302   3.252
 1333SOL    HW1 5896   7.972   1.383   3.219
 1333SOL    HW2 5897   8.100   1.328   3.279
 1334SOL     OW 5898   7.473   9.822  10.144
 1334SOL    HW1 5899   7.531   9.770  10.200
 1334SOL    HW2 5900   7.448   9.897  10.198
 1335SOL     OW 5901   6.302  11.834   4.529
 1335SOL    HW1 5902   6.261  11.752   4.558
 1335SOL    HW2 5903   6.229  11.895   4.518
 1336SOL     OW 5904   1.707   5.223   1.585
 1336SOL    HW1 5905   1.744   5.135   1.596
 1336SOL    HW2 5906   1.679   5.248   1.672
 1337SOL     OW 5907   6.248  12.131   3.566
 1337SOL    HW1 5908   6.223  12.085   3.486
 1337SOL    HW2 5909   6.230  12.069   3.636
 1338SOL     OW 5910   3.963   7.868   1.197
 1338SOL    HW1 5911   3.896   7.799   1.203
 1338SOL    HW2 5912   4.016   7.857   1.276
 1339SOL     OW 5913   2.227   3.054   5.556
 1339SOL    HW1 5914   2.216   2.966   5.591
 1339SOL    HW2 5915   2.306   3.087   5.598
 1340SOL     OW 5916   4.038   1.287  11.346
 1340SOL    HW1 5917   3.953   1.303  11.305
 1340SOL    HW2 5918   4.053   1.194  11.333
 1341SOL     OW 5919   6.688   7.328  13.858
 1341SOL    HW1 5920   6.701   7.422  13.856
 1341SOL    HW2 5921   6.609   7.313  13.805
 1342SOL     OW 5922  12.458   3.229  10.258
 1342SOL    HW1 5923  12.482   3.244  10.167
 1342SOL    HW2 5924  12.433   3.316  10.291
 1343SOL     OW 5925  14.007   5.896   5.229
 1343SOL    HW1 5926  13.986   5.891   5.322
 1343SOL    HW2 5927  13.947   5.963   5.195
 1344SOL     OW 5928   0.166   4.495   6.561
 1344SOL    HW1 5929   0.227   4.423   6.549
 1344SOL    HW2 5930   0.158   4.535   6.475
 1345SOL     OW 5931   1.805   3.262   5.011
 1345SOL    HW1 5932   1.745   3.336   5.024
 1345SOL    HW2 5933   1.852   3.283   4.931
 1346SOL     OW 5934   8.567   2.761  13.260
 1346SOL    HW1 5935   8.552   2.852  13.285
 1346SOL    HW2 5936   8.592   2.717  13.342
 1347SOL     OW 5937  13.437  10.975   7.801
 1347SOL    HW1 5938  13.500  10.906   7.780
 1347SOL    HW2 5939  13.382  10.981   7.723
 1348SOL     OW 5940   1.457  12.207   9.973
 1348SOL    HW1 5941   1.408  12.145   9.919
 1348SOL    HW2 5942   1.473  12.282   9.916
 1349SOL     OW 5943   4.988   1.853   1.765
 1349SOL    HW1 5944   5.080   1.826   1.770
 1349SOL    HW2 5945   4.974   1.903   1.845
 1350SOL     OW 5946  12.070   4.116   9.895
 1350SOL    HW1 5947  12.156   4.076   9.910
 1350SOL    HW2 5948  12.055   4.105   9.801
 1351SOL     OW 5949   1.749  12.250   3.152
 1351SOL    HW1 5950   1.720  12.310   3.220
 1351SOL    HW2 5951   1.669  12.207   3.122
 1352SOL     OW 5952   8.215   2.722  12.970
 1352SOL    HW1 5953   8.238   2.630  12.981
 1352SOL    HW2 5954   8.145   2.722  12.904
 1353SOL     OW 5955   2.350   4.511   4.006
 1353SOL    HW1 5956   2.345   4.566   4.084
 1353SOL    HW2 5957   2.269   4.528   3.959
 1354SOL     OW 5958  14.023  11.944  14.694
 1354SOL    HW1 5959  14.063  11.885  14.630
 1354SOL    HW2 5960  13.973  12.007  14.641
 1355SOL     OW 5961   7.032   1.451   8.723
 1355SOL    HW1 5962   6.967   1.484   8.660
 1355SOL    HW2 5963   7.094   1.402   8.669
 1356SOL     OW 5964   7.596   2.781   1.871
 1356SOL    HW1 5965   7.561   2.708   1.922
 1356SOL    HW2 5966   7.527   2.802   1.808
 1357SOL     OW 5967  10.351  11.130   4.270
 1357SOL    HW1 5968  10.440  11.149   4.241
 1357SOL    HW2 5969  10.336  11.040   4.242
 1358SOL     OW 5970  11.517   8.549  10.825
 1358SOL    HW1 5971  11.542   8.529  10.735
 1358SOL    HW2 5972  11.421   8.552  10.823
 1359SOL     OW 5973  12.399   0.648  10.256
 1359SOL    HW1 5974  12.481   0.611  10.222
 1359SOL    HW2 5975  12.400   0.739  10.226
 1360SOL     OW 5976  13.720  13.186   0.800
 1360SOL    HW1 5977  13.800  13.233   0.775
 1360SOL    HW2 5978  13.662  13.198   0.725
 1361SOL     OW 5979   3.613   8.539   4.930
 1361SOL    HW1 5980   3.691   8.588   4.955
 1361SOL    HW2 5981   3.561   8.602   4.879
 1362SOL     OW 5982   1.094  11.353   0.048
 1362SOL    HW1 5983   1.131  11.320   0.130
 1362SOL    HW2 5984   1.009  11.309   0.041
 1363SOL     OW 5985   2.501  12.924  14.471
 1363SOL    HW1 5986   2.546  12.997  14.429
 1363SOL    HW2 5987   2.552  12.908  14.551
 1364SOL     OW 5988  10.407  10.975   0.815
 1364SOL    HW1 5989  10.344  11.041   0.786
 1364SOL    HW2 5990  10.376  10.894   0.775
 1365SOL     OW 5991   7.026  12.211   6.796
 1365SOL    HW1 5992   7.102  12.240   6.745
 1365SOL    HW2 5993   6.952  12.256   6.757
 1366SOL     OW 5994   0.605  11.864   3.283
 1366SOL    HW1 5995   0.575  11.792   3.338
 1366SOL    HW2 5996   0.698  11.874   3.306
 1367SOL     OW 5997  11.977  11.263   2.914
 1367SOL    HW1 5998  11.970  11.340   2.970
 1367SOL    HW2 5999  12.071  11.246   2.908
 1368SOL     OW 6000   0.401   2.773   1.323
 1368SOL    HW1 6001   0.310   2.777   1.295
 1368SOL    HW2 6002   0.443   2.849   1.283
 1369SOL     OW 6003   0.334  12.249   5.865
 1369SOL    HW1 6004   0.369  12.170   5.906
 1369SOL    HW2 6005   0.398  12.273   5.798
 1370SOL     OW 6006   6.232  11.707   0.102
 1370SOL    HW1 6007   6.249  11.614   0.088
 1370SOL    HW2 6008   6.307  11.737   0.154
 1371SOL     OW 6009   3.234   3.862  10.831
 1371SOL    HW1 6010   3.242   3.782  10.779
 1371SOL    HW2 6011   3.163   3.911  10.789
 1372SOL     OW 6012   2.684   2.957  10.585
 1372SOL    HW1 6013   2.623   3.030  10.590
 1372SOL    HW2 6014   2.769   2.998  10.565
 1373SOL     OW 6015   9.588   8.877  13.800
 1373SOL    HW1 6016   9.635   8.797  13.822
 1373SOL    HW2 6017   9.656   8.943  13.788
 1374SOL     OW 6018   4.347   9.461   9.891
 1374SOL    HW1 6019   4.426   9.511   9.908
 1374SOL    HW2 6020   4.307   9.449   9.976
 1375SOL     OW 6021  13.828  10.894   3.537
 1375SOL    HW1 6022  13.888  10.943   3.593
 1375SOL    HW2 6023  13.742  10.904   3.580
 1376SOL     OW 6024  14.793   8.170   8.574
 1376SOL    HW1 6025  14.882   8.176   8.608
 1376SOL    HW2 6026  14.785   8.080   8.543
 1377SOL     OW 6027  12.517   5.829  14.710
 1377SOL    HW1 6028  12.507   5.919  14.739
 1377SOL    HW2 6029  12.578   5.834  14.636
 1378SOL     OW 6030   1.435   5.510   4.930
 1378SOL    HW1 6031   1.356   5.456   4.931
 1378SOL    HW2 6032   1.402   5.599   4.914
 1379SOL     OW 6033   4.647  10.062  12.266
 1379SOL    HW1 6034   4.630   9.991  12.328
 1379SOL    HW2 6035   4.561  10.093  12.241
 1380SOL     OW 6036   0.452  11.527   3.037
 1380SOL    HW1 6037   0.384  11.472   2.998
 1380SOL    HW2 6038   0.499  11.563   2.962
 1381SOL     OW 6039  10.014   3.171   0.883
 1381SOL    HW1 6040  10.091   3.122   0.854
 1381SOL    HW2 6041  10.002   3.239   0.817
 1382SOL     OW 6042  14.782   7.210   0.916
 1382SOL    HW1 6043  14.832   7.177   0.841
 1382SOL    HW2 6044  14.828   7.290   0.942
 1383SOL     OW 6045   9.053   6.415  12.781
 1383SOL    HW1 6046   9.079   6.382  12.867
 1383SOL    HW2 6047   8.976   6.362  12.758
 1384SOL     OW 6048   0.325   6.542   1.346
 1384SOL    HW1 6049   0.245   6.579   1.310
 1384SOL    HW2 6050   0.354   6.606   1.411
 1385SOL     OW 6051   0.970   9.228   8.523
 1385SOL    HW1 6052   0.934   9.271   8.445
 1385SOL    HW2 6053   1.029   9.293   8.561
 1386SOL     OW 6054  14.801   4.189  14.698
 1386SOL    HW1 6055  14.869   4.158  14.638
 1386SOL    HW2 6056  14.830   4.159  14.785
 1387SOL     OW 6057   4.216   0.200   9.390
 1387SOL    HW1 6058   4.143   0.142   9.412
 1387SOL    HW2 6059   4.186   0.248   9.314
 1388SOL     OW 6060   0.487   2.157   1.644
 1388SOL    HW1 6061   0.458   2.086   1.586
 1388SOL    HW2 6062   0.482   2.236   1.589
 1389SOL     OW 6063   1.064   6.385   7.202
 1389SOL    HW1 6064   0.998   6.319   7.184
 1389SOL    HW2 6065   1.016   6.457   7.243
 1390SOL     OW 6066  11.582   9.910  11.291
 1390SOL    HW1 6067  11.515   9.978  11.281
 1390SOL    HW2 6068  11.660   9.958  11.320
 1391SOL     OW 6069  14.597  11.537   8.049
 1391SOL    HW1 6070  14.576  11.498   7.965
 1391SOL    HW2 6071  14.669  11.484   8.083
 1392SOL     OW 6072  12.273   3.215  14.228
 1392SOL    HW1 6073  12.195   3.219  14.173
 1392SOL    HW2 6074  12.345   3.235  14.169
 1393SOL     OW 6075   5.531   7.269   5.206
 1393SOL    HW1 6076   5.507   7.184   5.169
 1393SOL    HW2 6077   5.625   7.263   5.219
 1394SOL     OW 6078   0.049   5.692   9.604
 1394SOL    HW1 6079   0.050   5.622   9.669
 1394SOL    HW2 6080   0.140   5.697   9.573
 1395SOL     OW 6081   4.567   5.906   1.003
 1395SOL    HW1 6082   4.598   5.993   0.976
 1395SOL    HW2 6083   4.613   5.889   1.086
 1396SOL     OW 6084  12.674   3.226   8.853
 1396SOL    HW1 6085  12.744   3.290   8.869
 1396SOL    HW2 6086  12.625   3.223   8.935
 1397SOL     OW 6087   7.208  10.446  10.195
 1397SOL    HW1 6088   7.301  10.429  10.180
 1397SOL    HW2 6089   7.181  10.495  10.118
 1398SOL     OW 6090  10.320   6.020   6.863
 1398SOL    HW1 6091  10.396   6.014   6.805
 1398SOL    HW2 6092  10.289   6.110   6.852
 1399SOL     OW 6093   5.462   9.729   4.006
 1399SOL    HW1 6094   5.540   9.678   4.024
 1399SOL    HW2 6095   5.483   9.818   4.036
 1400SOL     OW 6096   5.209   7.188  12.676
 1400SOL    HW1 6097   5.170   7.101  12.684
 1400SOL    HW2 6098   5.207   7.207  12.582
 1401SOL     OW 6099   4.836   9.012   7.089
 1401SOL    HW1 6100   4.814   9.006   7.182
 1401SOL    HW2 6101   4.909   8.952   7.077
 1402SOL     OW 6102  13.011   9.619   8.729
 1402SOL    HW1 6103  13.017   9.524   8.731
 1402SOL    HW2 6104  12.962   9.639   8.650
 1403SOL     OW 6105   7.575   6.474   2.266
 1403SOL    HW1 6106   7.585   6.419   2.344
 1403SOL    HW2 6107   7.562   6.412   2.194
 1404SOL     OW 6108   9.251   0.755  14.374
 1404SOL    HW1 6109   9.211   0.672  14.344
 1404SOL    HW2 6110   9.345   0.740  14.368
 1405SOL     OW 6111   6.660   2.484   1.054
 1405SOL    HW1 6112   6.658   2.424   0.980
 1405SOL    HW2 6113   6.628   2.432   1.128
 1406SOL     OW 6114   3.183   5.332   4.192
 1406SOL    HW1 6115   3.207   5.373   4.275
 1406SOL    HW2 6116   3.143   5.403   4.141
 1407SOL     OW 6117   5.253  11.785   4.236
 1407SOL    HW1 6118   5.276  11.813   4.147
 1407SOL    HW2 6119   5.159  11.768   4.232
 1408SOL     OW 6120   3.875   4.109  13.286
 1408SOL    HW1 6121   3.833   4.079  13.366
 1408SOL    HW2 6122   3.968   4.115  13.309
 1409SOL     OW 6123   5.128   5.797   2.076
 1409SOL    HW1 6124   5.161   5.885   2.062
 1409SOL    HW2 6125   5.204   5.747   2.106
 1410SOL     OW 6126   2.643   4.843   8.038
 1410SOL    HW1 6127   2.662   4.751   8.019
 1410SOL    HW2 6128   2.729   4.885   8.040
 1411SOL     OW 6129   8.291   8.234   1.382
 1411SOL    HW1 6130   8.379   8.270   1.388
 1411SOL    HW2 6131   8.256   8.270   1.300
 1412SOL     OW 6132  10.146   2.023   3.966
 1412SOL    HW1 6133  10.214   1.960   3.944
 1412SOL    HW2 6134  10.105   1.988   4.045
 1413SOL     OW 6135   8.392   5.443   9.866
 1413SOL    HW1 6136   8.366   5.507   9.800
 1413SOL    HW2 6137   8.484   5.427   9.850
 1414SOL     OW 6138   3.186   0.715  11.198
 1414SOL    HW1 6139   3.126   0.649  11.232
 1414SOL    HW2 6140   3.140   0.798  11.211
 1415SOL     OW 6141  12.511  12.481   8.436
 1415SOL    HW1 6142  12.579  12.546   8.450
 1415SOL    HW2 6143  12.558  12.405   8.400
 1416SOL     OW 6144  12.056   8.395  10.788
 1416SOL    HW1 6145  12.002   8.347  10.852
 1416SOL    HW2 6146  12.116   8.328  10.754
 1417SOL     OW 6147  12.045  13.185  12.974
 1417SOL    HW1 6148  11.985  13.227  12.912
 1417SOL    HW2 6149  12.127  13.175  12.924
 1418SOL     OW 6150   5.811   0.892   5.165
 1418SOL    HW1 6151   5.905   0.884   5.182
 1418SOL    HW2 6152   5.770   0.873   5.249
 1419SOL     OW 6153  13.157  12.969   3.441
 1419SOL    HW1 6154  13.219  12.941   3.373
 1419SOL    HW2 6155  13.093  12.899   3.446
 1420SOL     OW 6156   7.543   0.147   6.357
 1420SOL    HW1 6157   7.468   0.100   6.392
 1420SOL    HW2 6158   7.577   0.089   6.289
 1421SOL     OW 6159  13.736   4.136  10.682
 1421SOL    HW1 6160  13.799   4.102  10.745
 1421SOL    HW2 6161  13.682   4.197  10.732
 1422SOL     OW 6162   2.477  10.018   5.783
 1422SOL    HW1 6163   2.394  10.015   5.736
 1422SOL    HW2 6164   2.457  10.065   5.864
 1423SOL     OW 6165  14.657   0.817  12.440
 1423SOL    HW1 6166  14.601   0.764  12.498
 1423SOL    HW2 6167  14.682   0.757  12.370
 1424SOL     OW 6168  10.558   1.135   6.114
 1424SOL    HW1 6169  10.618   1.073   6.155
 1424SOL    HW2 6170  10.538   1.198   6.183
 1425SOL     OW 6171   7.780   2.216   4.269
 1425SOL    HW1 6172   7.691   2.241   4.292
 1425SOL    HW2 6173   7.773   2.124   4.242
 1426SOL     OW 6174  12.573   6.088   9.620
 1426SOL    HW1 6175  12.599   6.099   9.529
 1426SOL    HW2 6176  12.628   6.150   9.669
 1427SOL     OW 6177  10.015  14.525   8.758
 1427SOL    HW1 6178   9.924  14.501   8.773
 1427SOL    HW2 6179  10.056  14.444   8.726
 1428SOL     OW 6180  14.190   3.803   8.706
 1428SOL    HW1 6181  14.138   3.853   8.769
 1428SOL    HW2 6182  14.267   3.774   8.756
 1429SOL     OW 6183   2.722  14.432  10.220
 1429SOL    HW1 6184   2.698  14.451  10.129
 1429SOL    HW2 6185   2.738  14.518  10.259
 1430SOL     OW 6186   8.000  10.067  11.361
 1430SOL    HW1 6187   8.092  10.059  11.335
 1430SOL    HW2 6188   7.950  10.039  11.284
 1431SOL     OW 6189   2.783  13.407   5.043
 1431SOL    HW1 6190   2.857  13.448   5.086
 1431SOL    HW2 6191   2.820  13.330   4.999
 1432SOL     OW 6192   2.577  10.561   9.921
 1432SOL    HW1 6193   2.581  10.639   9.976
 1432SOL    HW2 6194   2.485  10.533   9.925
 1433SOL     OW 6195   4.441  14.515   8.228
 1433SOL    HW1 6196   4.350  14.544   8.220
 1433SOL    HW2 6197   4.470  14.504   8.137
 1434SOL     OW 6198   5.441   5.633   4.490
 1434SOL    HW1 6199   5.364   5.688   4.479
 1434SOL    HW2 6200   5.515   5.691   4.472
 1435SOL     OW 6201   5.886   6.638  11.164
 1435SOL    HW1 6202   5.847   6.656  11.249
 1435SOL    HW2 6203   5.834   6.566  11.129
 1436SOL     OW 6204   6.650   3.765  10.745
 1436SOL    HW1 6205   6.620   3.698  10.806
 1436SOL    HW2 6206   6.698   3.717  10.678
 1437SOL     OW 6207   9.748   3.576   1.179
 1437SOL    HW1 6208   9.705   3.541   1.257
 1437SOL    HW2 6209   9.730   3.670   1.182
 1438SOL     OW 6210  11.641   8.894  12.798
 1438SOL    HW1 6211  11.598   8.827  12.745
 1438SOL    HW2 6212  11.612   8.877  12.887
 1439SOL     OW 6213   8.600   1.710   1.920
 1439SOL    HW1 6214   8.568   1.785   1.870
 1439SOL    HW2 6215   8.526   1.683   1.974
 1440SOL     OW 6216  12.018   5.487   5.032
 1440SOL    HW1 6217  12.107   5.512   5.009
 1440SOL    HW2 6218  11.963   5.526   4.963
 1441SOL     OW 6219   6.669  11.789   7.974
 1441SOL    HW1 6220   6.668  11.849   8.049
 1441SOL    HW2 6221   6.577  11.778   7.951
 1442SOL     OW 6222  10.888   6.396   2.642
 1442SOL    HW1 6223  10.921   6.453   2.711
 1442SOL    HW2 6224  10.835   6.454   2.587
 1443SOL     OW 6225   2.743  13.429   8.848
 1443SOL    HW1 6226   2.659  13.463   8.819
 1443SOL    HW2 6227   2.736  13.424   8.943
 1444SOL     OW 6228  13.188   3.058   3.169
 1444SOL    HW1 6229  13.125   2.989   3.150
 1444SOL    HW2 6230  13.144   3.113   3.235
 1445SOL     OW 6231   1.487   2.855   8.634
 1445SOL    HW1 6232   1.521   2.809   8.711
 1445SOL    HW2 6233   1.485   2.947   8.660
 1446SOL     OW 6234  12.042   1.957  14.530
 1446SOL    HW1 6235  11.968   2.017  14.528
 1446SOL    HW2 6236  12.010   1.878  14.487
 1447SOL     OW 6237   2.927  13.577   2.466
 1447SOL    HW1 6238   2.978  13.497   2.478
 1447SOL    HW2 6239   2.844  13.547   2.430
 1448SOL     OW 6240   0.507   9.499   8.198
 1448SOL    HW1 6241   0.571   9.454   8.253
 1448SOL    HW2 6242   0.430   9.509   8.255
 1449SOL     OW 6243   7.410   1.002  12.493
 1449SOL    HW1 6244   7.383   0.977  12.405
 1449SOL    HW2 6245   7.485   1.060  12.479
 1450SOL     OW 6246   8.518  14.640   7.214
 1450SOL    HW1 6247   8.592  14.592   7.251
 1450SOL    HW2 6248   8.440  14.598   7.252
 1451SOL     OW 6249   9.203   9.473   6.961
 1451SOL    HW1 6250   9.114   9.477   6.996
 1451SOL    HW2 6251   9.234   9.563   6.965
 1452SOL     OW 6252   2.395  12.671   1.122
 1452SOL    HW1 6253   2.432  12.663   1.034
 1452SOL    HW2 6254   2.472  12.679   1.179
 1453SOL     OW 6255   0.564  10.617  11.706
 1453SOL    HW1 6256   0.615  10.537  11.692
 1453SOL    HW2 6257   0.604  10.681  11.646
 1454SOL     OW 6258   9.862   1.504  14.660
 1454SOL    HW1 6259   9.781   1.494  14.609
 1454SOL    HW2 6260   9.837   1.480  14.749
 1455SOL     OW 6261  14.836   6.741   5.729
 1455SOL    HW1 6262  14.800   6.658   5.759
 1455SOL    HW2 6263  14.856   6.727   5.636
 1456SOL     OW 6264   8.902   8.180  11.675
 1456SOL    HW1 6265   8.884   8.215  11.588
 1456SOL    HW2 6266   8.994   8.201  11.690
 1457SOL     OW 6267   5.376   3.838   6.957
 1457SOL    HW1 6268   5.307   3.787   6.998
 1457SOL    HW2 6269   5.330   3.909   6.912
 1458SOL     OW 6270   1.604  14.620   3.660
 1458SOL    HW1 6271   1.529  14.632   3.602
 1458SOL    HW2 6272   1.655  14.550   3.620
 1459SOL     OW 6273   5.572   2.626  11.605
 1459SOL    HW1 6274   5.587   2.679  11.527
 1459SOL    HW2 6275   5.568   2.689  11.677
 1460SOL     OW 6276   3.942   9.113   3.030
 1460SOL    HW1 6277   3.988   9.029   3.036
 1460SOL    HW2 6278   3.897   9.110   2.946
 1461SOL     OW 6279   4.208   8.419   6.852
 1461SOL    HW1 6280   4.120   8.434   6.817
 1461SOL    HW2 6281   4.212   8.475   6.930
 1462SOL     OW 6282  14.483  11.077   6.094
 1462SOL    HW1 6283  14.440  11.070   6.179
 1462SOL    HW2 6284  14.576  11.066   6.113
 1463SOL     OW 6285  14.527  12.852   1.977
 1463SOL    HW1 6286  14.584  12.776   1.973
 1463SOL    HW2 6287  14.472  12.845   1.899
 1464SOL     OW 6288   4.669   2.346   6.325
 1464SOL    HW1 6289   4.726   2.298   6.385
 1464SOL    HW2 6290   4.596   2.375   6.380
 1465SOL     OW 6291   3.493  12.572  11.581
 1465SOL    HW1 6292   3.570  12.570  11.639
 1465SOL    HW2 6293   3.527  12.551  11.494
 1466SOL     OW 6294   5.827   8.316  14.498
 1466SOL    HW1 6295   5.831   8.323  14.593
 1466SOL    HW2 6296   5.915   8.339  14.468
 1467SOL     OW 6297   3.563   1.766  14.743
 1467SOL    HW1 6298   3.583   1.724  14.826
 1467SOL    HW2 6299   3.544   1.857  14.765
 1468SOL     OW 6300  12.672   7.579   8.924
 1468SOL    HW1 6301  12.591   7.535   8.899
 1468SOL    HW2 6302  12.644   7.664   8.958
 1469SOL     OW 6303  12.961   7.303   2.728
 1469SOL    HW1 6304  12.978   7.393   2.700
 1469SOL    HW2 6305  12.967   7.306   2.823
 1470SOL     OW 6306  12.910  11.296   5.489
 1470SOL    HW1 6307  12.963  11.376   5.486
 1470SOL    HW2 6308  12.967  11.232   5.532
 1471SOL     OW 6309  10.980  12.006  11.628
 1471SOL    HW1 6310  11.069  12.032  11.652
 1471SOL    HW2 6311  10.957  11.940  11.692
 1472SOL     OW 6312   8.035  14.003  10.793
 1472SOL    HW1 6313   7.958  14.049  10.825
 1472SOL    HW2 6314   8.065  14.055  10.718
 1473SOL     OW 6315   3.837   6.409   3.274
 1473SOL    HW1 6316   3.883   6.400   3.190
 1473SOL    HW2 6317   3.773   6.338   3.274
 1474SOL     OW 6318  13.123   7.813   2.573
 1474SOL    HW1 6319  13.064   7.887   2.583
 1474SOL    HW2 6320  13.211   7.850   2.579
 1475SOL     OW 6321   1.765  10.336   0.798
 1475SOL    HW1 6322   1.698  10.339   0.867
 1475SOL    HW2 6323   1.827  10.404   0.822
 1476SOL     OW 6324   1.670   6.798   8.524
 1476SOL    HW1 6325   1.657   6.768   8.615
 1476SOL    HW2 6326   1.759   6.832   8.523
 1477SOL     OW 6327   6.204   8.667  13.489
 1477SOL    HW1 6328   6.273   8.733  13.484
 1477SOL    HW2 6329   6.246   8.586  13.461
 1478SOL     OW 6330  14.088  10.844  14.042
 1478SOL    HW1 6331  14.016  10.803  14.090
 1478SOL    HW2 6332  14.167  10.817  14.088
 1479SOL     OW 6333   4.107  12.511  13.263
 1479SOL    HW1 6334   4.074  12.499  13.352
 1479SOL    HW2 6335   4.057  12.584  13.228
 1480SOL     OW 6336  14.651   5.864  10.631
 1480SOL    HW1 6337  14.728   5.875  10.685
 1480SOL    HW2 6338  14.685   5.857  10.541
 1481SOL     OW 6339  10.672   2.531  13.632
 1481SOL    HW1 6340  10.746   2.554  13.690
 1481SOL    HW2 6341  10.597   2.574  13.672
 1482SOL     OW 6342  10.784   2.788   9.917
 1482SOL    HW1 6343  10.847   2.839   9.968
 1482SOL    HW2 6344  10.830   2.706   9.898
 1483SOL     OW 6345   1.527   5.020  14.458
 1483SOL    HW1 6346   1.607   5.072  14.452
 1483SOL    HW2 6347   1.552   4.934  14.422
 1484SOL     OW 6348   4.043   4.116   8.817
 1484SOL    HW1 6349   3.959   4.141   8.856
 1484SOL    HW2 6350   4.108   4.145   8.881
 1485SOL     OW 6351  11.431   5.809   4.940
 1485SOL    HW1 6352  11.407   5.886   4.993
 1485SOL    HW2 6353  11.478   5.845   4.865
 1486SOL     OW 6354   4.471   8.840   5.876
 1486SOL    HW1 6355   4.403   8.821   5.811
 1486SOL    HW2 6356   4.426   8.888   5.945
 1487SOL     OW 6357  12.875   6.787   5.113
 1487SOL    HW1 6358  12.854   6.808   5.022
 1487SOL    HW2 6359  12.845   6.864   5.162
 1488SOL     OW 6360   5.314   5.957   3.669
 1488SOL    HW1 6361   5.280   5.928   3.754
 1488SOL    HW2 6362   5.236   5.965   3.614
 1489SOL     OW 6363  14.427   7.024  10.516
 1489SOL    HW1 6364  14.454   6.935  10.490
 1489SOL    HW2 6365  14.496   7.054  10.574
 1490SOL     OW 6366   1.551   6.966   4.097
 1490SOL    HW1 6367   1.618   7.035   4.103
 1490SOL    HW2 6368   1.579   6.911   4.024
 1491SOL     OW 6369   1.072   4.242   9.412
 1491SOL    HW1 6370   1.003   4.284   9.462
 1491SOL    HW2 6371   1.029   4.208   9.334
 1492SOL     OW 6372   9.958   9.426   2.418
 1492SOL    HW1 6373   9.907   9.374   2.480
 1492SOL    HW2 6374  10.040   9.445   2.465
 1493SOL     OW 6375   7.146   9.161  12.926
 1493SOL    HW1 6376   7.062   9.188  12.889
 1493SOL    HW2 6377   7.192   9.120  12.853
 1494SOL     OW 6378  13.857  11.837   5.862
 1494SOL    HW1 6379  13.947  11.837   5.829
 1494SOL    HW2 6380  13.806  11.880   5.793
 1495SOL     OW 6381  11.742  14.035  11.386
 1495SOL    HW1 6382  11.693  14.104  11.342
 1495SOL    HW2 6383  11.747  14.063  11.477
 1496SOL     OW 6384  14.146   2.694  12.384
 1496SOL    HW1 6385  14.183   2.670  12.299
 1496SOL    HW2 6386  14.215   2.744  12.428
 1497SOL     OW 6387   4.046  11.583   2.048
 1497SOL    HW1 6388   4.057  11.522   2.121
 1497SOL    HW2 6389   3.953  11.575   2.024
 1498SOL     OW 6390   7.103   2.843  10.735
 1498SOL    HW1 6391   7.092   2.802  10.821
 1498SOL    HW2 6392   7.022   2.823  10.688
 1499SOL     OW 6393  10.039   4.520   1.283
 1499SOL    HW1 6394  10.063   4.531   1.375
 1499SOL    HW2 6395  10.029   4.609   1.249
 1500SOL     OW 6396   2.644  10.266   1.532
 1500SOL    HW1 6397   2.574  10.305   1.480
 1500SOL    HW2 6398   2.599  10.221   1.603
 1501SOL     OW 6399  12.600   7.993   8.340
 1501SOL    HW1 6400  12.626   8.080   8.311
 1501SOL    HW2 6401  12.545   7.960   8.269
 1502SOL     OW 6402   5.855  11.319  12.485
 1502SOL    HW1 6403   5.938  11.279  12.510
 1502SOL    HW2 6404   5.858  11.407  12.523
 1503SOL     OW 6405  12.771  10.191  12.948
 1503SOL    HW1 6406  12.741  10.276  12.916
 1503SOL    HW2 6407  12.705  10.129  12.916
 1504SOL     OW 6408   4.460   6.804   6.663
 1504SOL    HW1 6409   4.368   6.823   6.682
 1504SOL    HW2 6410   4.481   6.731   6.721
 1505SOL     OW 6411  11.981   9.751  10.779
 1505SOL    HW1 6412  11.971   9.702  10.697
 1505SOL    HW2 6413  11.893   9.783  10.799
 1506SOL     OW 6414   6.641   3.066  11.913
 1506SOL    HW1 6415   6.575   3.056  11.844
 1506SOL    HW2 6416   6.713   3.008  11.887
 1507SOL     OW 6417   6.295   4.328   3.370
 1507SOL    HW1 6418   6.330   4.273   3.300
 1507SOL    HW2 6419   6.369   4.340   3.430
 1508SOL     OW 6420  14.709   4.043   6.476
 1508SOL    HW1 6421  14.631   4.097   6.482
 1508SOL    HW2 6422  14.705   3.985   6.553
 1509SOL     OW 6423   3.503  12.874  13.374
 1509SOL    HW1 6424   3.594  12.903  13.368
 1509SOL    HW2 6425   3.498  12.799  13.316
 1510SOL     OW 6426   4.678   2.688  12.180
 1510SOL    HW1 6427   4.701   2.779  12.195
 1510SOL    HW2 6428   4.583   2.690  12.164
 1511SOL     OW 6429   3.914  12.706   4.021
 1511SOL    HW1 6430   3.897  12.612   4.026
 1511SOL    HW2 6431   3.840  12.747   4.066
 1512SOL     OW 6432   5.980   2.229   3.404
 1512SOL    HW1 6433   5.914   2.166   3.431
 1512SOL    HW2 6434   5.998   2.207   3.312
 1513SOL     OW 6435  14.554  12.123  13.326
 1513SOL    HW1 6436  14.539  12.076  13.244
 1513SOL    HW2 6437  14.650  12.130  13.332
 1514SOL     OW 6438  12.461   9.319   8.759
 1514SOL    HW1 6439  12.555   9.336   8.747
 1514SOL    HW2 6440  12.435   9.375   8.832
 1515SOL     OW 6441  14.692  11.099   8.623
 1515SOL    HW1 6442  14.677  11.174   8.567
 1515SOL    HW2 6443  14.605  11.058   8.632
 1516SOL     OW 6444  14.007  11.292   2.361
 1516SOL    HW1 6445  13.967  11.224   2.307
 1516SOL    HW2 6446  13.938  11.316   2.423
 1517SOL     OW 6447  10.737   5.328   3.703
 1517SOL    HW1 6448  10.719   5.412   3.660
 1517SOL    HW2 6449  10.651   5.286   3.710
 1518SOL     OW 6450  11.434   5.005   1.530
 1518SOL    HW1 6451  11.505   5.007   1.595
 1518SOL    HW2 6452  11.357   4.978   1.580
 1519SOL     OW 6453   4.366  14.513   0.622
 1519SOL    HW1 6454   4.380  14.471   0.537
 1519SOL    HW2 6455   4.395  14.603   0.610
 1520SOL     OW 6456   3.681   6.740   8.879
 1520SOL    HW1 6457   3.593   6.707   8.895
 1520SOL    HW2 6458   3.703   6.709   8.791
 1521SOL     OW 6459   0.579  11.665  10.262
 1521SOL    HW1 6460   0.653  11.618  10.225
 1521SOL    HW2 6461   0.602  11.678  10.354
 1522SOL     OW 6462  14.009  12.819   0.002
 1522SOL    HW1 6463  14.003  12.815   0.097
 1522SOL    HW2 6464  13.934  12.872  14.857
 1523SOL     OW 6465   6.066   3.127   1.921
 1523SOL    HW1 6466   6.033   3.155   2.007
 1523SOL    HW2 6467   6.021   3.184   1.859
 1524SOL     OW 6468   6.949  13.636   8.324
 1524SOL    HW1 6469   6.944  13.665   8.232
 1524SOL    HW2 6470   6.943  13.541   8.319
 1525SOL     OW 6471  14.221   7.557   6.602
 1525SOL    HW1 6472  14.261   7.471   6.615
 1525SOL    HW2 6473  14.169   7.548   6.522
 1526SOL     OW 6474   2.371   4.000   9.949
 1526SOL    HW1 6475   2.397   4.076  10.000
 1526SOL    HW2 6476   2.444   3.939   9.957
 1527SOL     OW 6477  12.734  11.711   0.218
 1527SOL    HW1 6478  12.760  11.795   0.181
 1527SOL    HW2 6479  12.642  11.702   0.196
 1528SOL     OW 6480   0.470   6.420   0.974
 1528SOL    HW1 6481   0.380   6.393   0.962
 1528SOL    HW2 6482   0.464   6.510   1.007
 1529SOL     OW 6483   3.962  11.708   9.968
 1529SOL    HW1 6484   3.932  11.785  10.016
 1529SOL    HW2 6485   4.050  11.691  10.003
 1530SOL     OW 6486   4.282   3.514  10.070
 1530SOL    HW1 6487   4.323   3.599  10.052
 1530SOL    HW2 6488   4.346   3.450  10.040
 1531SOL     OW 6489   5.808  13.833  14.019
 1531SOL    HW1 6490   5.731  13.876  14.057
 1531SOL    HW2 6491   5.794  13.840  13.925
 1532SOL     OW 6492   2.701  13.108   2.793
 1532SOL    HW1 6493   2.781  13.155   2.817
 1532SOL    HW2 6494   2.728  13.049   2.722
 1533SOL     OW 6495  12.580   8.225   5.874
 1533SOL    HW1 6496  12.649   8.159   5.879
 1533SOL    HW2 6497  12.515   8.189   5.814
 1534SOL     OW 6498   8.975  12.907   4.563
 1534SOL    HW1 6499   9.025  12.929   4.642
 1534SOL    HW2 6500   8.942  12.819   4.579
 1535SOL     OW 6501  13.946   3.968  11.770
 1535SOL    HW1 6502  13.982   3.964  11.859
 1535SOL    HW2 6503  13.858   4.003  11.782
 1536SOL     OW 6504  14.177   4.370   1.824
 1536SOL    HW1 6505  14.100   4.426   1.833
 1536SOL    HW2 6506  14.144   4.282   1.839
 1537SOL     OW 6507   6.552   2.902   4.760
 1537SOL    HW1 6508   6.584   2.885   4.849
 1537SOL    HW2 6509   6.562   2.996   4.748
 1538SOL     OW 6510   2.480   8.303   3.805
 1538SOL    HW1 6511   2.488   8.396   3.787
 1538SOL    HW2 6512   2.428   8.268   3.732
 1539SOL     OW 6513   7.522   2.568   4.816
 1539SOL    HW1 6514   7.602   2.610   4.786
 1539SOL    HW2 6515   7.459   2.639   4.827
 1540SOL     OW 6516   9.853   2.715   0.590
 1540SOL    HW1 6517   9.774   2.769   0.595
 1540SOL    HW2 6518   9.855   2.669   0.674
 1541SOL     OW 6519   8.760   1.351   2.480
 1541SOL    HW1 6520   8.717   1.436   2.490
 1541SOL    HW2 6521   8.818   1.345   2.556
 1542SOL     OW 6522   8.486   8.137   7.734
 1542SOL    HW1 6523   8.573   8.177   7.733
 1542SOL    HW2 6524   8.448   8.161   7.650
 1543SOL     OW 6525   7.664   2.879  10.008
 1543SOL    HW1 6526   7.631   2.830  10.084
 1543SOL    HW2 6527   7.660   2.971  10.035
 1544SOL     OW 6528  14.616   7.709   1.420
 1544SOL    HW1 6529  14.544   7.771   1.424
 1544SOL    HW2 6530  14.582   7.635   1.369
 1545SOL     OW 6531   3.280   9.073   4.556
 1545SOL    HW1 6532   3.314   9.134   4.621
 1545SOL    HW2 6533   3.235   9.129   4.492
 1546SOL     OW 6534   9.940   1.116   7.095
 1546SOL    HW1 6535   9.899   1.042   7.050
 1546SOL    HW2 6536   9.950   1.086   7.185
 1547SOL     OW 6537  14.106   6.058   0.029
 1547SOL    HW1 6538  14.155   5.983   0.064
 1547SOL    HW2 6539  14.015   6.038   0.051
 1548SOL     OW 6540  14.436  10.692   4.720
 1548SOL    HW1 6541  14.438  10.633   4.796
 1548SOL    HW2 6542  14.396  10.772   4.753
 1549SOL     OW 6543   3.142  12.632  13.008
 1549SOL    HW1 6544   3.140  12.552  13.060
 1549SOL    HW2 6545   3.185  12.607  12.927
 1550SOL     OW 6546   7.994   4.041   2.033
 1550SOL    HW1 6547   7.906   4.050   2.071
 1550SOL    HW2 6548   7.979   4.018   1.941
 1551SOL     OW 6549  11.876  10.821   1.344
 1551SOL    HW1 6550  11.826  10.820   1.262
 1551SOL    HW2 6551  11.932  10.899   1.336
 1552SOL     OW 6552  13.051   3.339   8.623
 1552SOL    HW1 6553  13.027   3.272   8.687
 1552SOL    HW2 6554  13.138   3.312   8.593
 1553SOL     OW 6555   6.271   9.611   2.184
 1553SOL    HW1 6556   6.176   9.621   2.179
 1553SOL    HW2 6557   6.303   9.638   2.097
 1554SOL     OW 6558   0.508   2.093  11.592
 1554SOL    HW1 6559   0.426   2.050  11.611
 1554SOL    HW2 6560   0.483   2.182  11.565
 1555SOL     OW 6561   3.173   1.954  11.098
 1555SOL    HW1 6562   3.079   1.941  11.106
 1555SOL    HW2 6563   3.193   2.022  11.162
 1556SOL     OW 6564  13.819   6.005  14.613
 1556SOL    HW1 6565  13.881   5.939  14.642
 1556SOL    HW2 6566  13.864   6.050  14.541
 1557SOL     OW 6567   4.883  13.323  10.949
 1557SOL    HW1 6568   4.975  13.348  10.947
 1557SOL    HW2 6569   4.838  13.403  10.975
 1558SOL     OW 6570   1.153   2.979  10.371
 1558SOL    HW1 6571   1.062   2.957  10.395
 1558SOL    HW2 6572   1.206   2.925  10.429
 1559SOL     OW 6573  10.167   0.106  14.003
 1559SOL    HW1 6574  10.139   0.135  13.916
 1559SOL    HW2 6575  10.185   0.012  13.992
 1560SOL     OW 6576  11.866   4.853   3.182
 1560SOL    HW1 6577  11.919   4.933   3.172
 1560SOL    HW2 6578  11.778   4.880   3.156
 1561SOL     OW 6579  13.678  12.859   1.173
 1561SOL    HW1 6580  13.731  12.806   1.114
 1561SOL    HW2 6581  13.652  12.935   1.121
 1562SOL     OW 6582   8.500   3.182   2.830
 1562SOL    HW1 6583   8.429   3.225   2.783
 1562SOL    HW2 6584   8.536   3.119   2.768
 1563SOL     OW 6585   8.703   0.584  10.378
 1563SOL    HW1 6586   8.627   0.635  10.353
 1563SOL    HW2 6587   8.667   0.506  10.421
 1564SOL     OW 6588  11.237  10.566  12.576
 1564SOL    HW1 6589  11.222  10.646  12.627
 1564SOL    HW2 6590  11.295  10.514  12.631
 1565SOL     OW 6591   5.767   2.107   4.589
 1565SOL    HW1 6592   5.701   2.082   4.524
 1565SOL    HW2 6593   5.717   2.126   4.668
 1566SOL     OW 6594   8.681   9.741   4.683
 1566SOL    HW1 6595   8.658   9.736   4.776
 1566SOL    HW2 6596   8.603   9.777   4.641
 1567SOL     OW 6597  11.724  14.295   8.782
 1567SOL    HW1 6598  11.784  14.256   8.846
 1567SOL    HW2 6599  11.749  14.387   8.778
 1568SOL     OW 6600   2.349   0.777   3.774
 1568SOL    HW1 6601   2.331   0.746   3.862
 1568SOL    HW2 6602   2.402   0.708   3.734
 1569SOL     OW 6603  11.325   7.219   6.701
 1569SOL    HW1 6604  11.329   7.294   6.760
 1569SOL    HW2 6605  11.369   7.249   6.621
 1570SOL     OW 6606   0.227  13.945   3.737
 1570SOL    HW1 6607   0.167  14.014   3.767
 1570SOL    HW2 6608   0.284  13.928   3.811
 1571SOL     OW 6609  11.548   3.385   8.561
 1571SOL    HW1 6610  11.615   3.355   8.622
 1571SOL    HW2 6611  11.478   3.320   8.569
 1572SOL     OW 6612   8.601   1.726  14.204
 1572SOL    HW1 6613   8.655   1.781  14.261
 1572SOL    HW2 6614   8.583   1.648  14.257
 1573SOL     OW 6615  13.122  13.279  10.494
 1573SOL    HW1 6616  13.109  13.372  10.475
 1573SOL    HW2 6617  13.132  13.274  10.589
 1574SOL     OW 6618   2.692  14.828  10.454
 1574SOL    HW1 6619   2.663   0.036  10.467
 1574SOL    HW2 6620   2.620  14.774  10.488
 1575SOL     OW 6621  14.395   2.506   9.791
 1575SOL    HW1 6622  14.416   2.464   9.875
 1575SOL    HW2 6623  14.302   2.487   9.777
 1576SOL     OW 6624  10.827   2.202   1.628
 1576SOL    HW1 6625  10.832   2.242   1.542
 1576SOL    HW2 6626  10.771   2.260   1.679
 1577SOL     OW 6627   6.445  14.659   9.044
 1577SOL    HW1 6628   6.463  14.688   8.955
 1577SOL    HW2 6629   6.519  14.602   9.065
 1578SOL     OW 6630  11.124   6.681  14.333
 1578SOL    HW1 6631  11.041   6.724  14.355
 1578SOL    HW2 6632  11.166   6.740  14.271
 1579SOL     OW 6633  14.326   4.228  14.577
 1579SOL    HW1 6634  14.401   4.234  14.635
 1579SOL    HW2 6635  14.278   4.151  14.607
 1580SOL     OW 6636   6.950   0.003   1.610
 1580SOL    HW1 6637   6.948  14.790   1.616
 1580SOL    HW2 6638   7.037   0.023   1.573
 1581SOL     OW 6639  12.363  13.523   3.390
 1581SOL    HW1 6640  12.401  13.580   3.457
 1581SOL    HW2 6641  12.428  13.455   3.376
 1582SOL     OW 6642   5.250  13.057   1.829
 1582SOL    HW1 6643   5.287  13.021   1.749
 1582SOL    HW2 6644   5.216  13.143   1.803
 1583SOL     OW 6645   5.912  13.990  11.711
 1583SOL    HW1 6646   5.832  14.002  11.763
 1583SOL    HW2 6647   5.937  14.079  11.685
 1584SOL     OW 6648  14.168   3.669   2.557
 1584SOL    HW1 6649  14.253   3.634   2.583
 1584SOL    HW2 6650  14.173   3.673   2.461
 1585SOL     OW 6651   7.334   5.512   2.998
 1585SOL    HW1 6652   7.297   5.589   3.039
 1585SOL    HW2 6653   7.280   5.439   3.029
 1586SOL     OW 6654   8.058   7.151   7.647
 1586SOL    HW1 6655   8.152   7.147   7.635
 1586SOL    HW2 6656   8.036   7.244   7.645
 1587SOL     OW 6657   1.540  13.288   6.563
 1587SOL    HW1 6658   1.607  13.269   6.498
 1587SOL    HW2 6659   1.486  13.357   6.523
 1588SOL     OW 6660   4.615   3.191   1.801
 1588SOL    HW1 6661   4.566   3.120   1.759
 1588SOL    HW2 6662   4.560   3.218   1.875
 1589SOL     OW 6663   9.393   5.560   0.290
 1589SOL    HW1 6664   9.395   5.530   0.199
 1589SOL    HW2 6665   9.303   5.543   0.319
 1590SOL     OW 6666   2.068   3.859  14.508
 1590SOL    HW1 6667   2.055   3.805  14.586
 1590SOL    HW2 6668   2.111   3.938  14.539
 1591SOL     OW 6669   6.445   8.820   5.470
 1591SOL    HW1 6670   6.491   8.889   5.421
 1591SOL    HW2 6671   6.360   8.813   5.425
 1592SOL     OW 6672  13.008   2.111  13.729
 1592SOL    HW1 6673  12.921   2.073  13.722
 1592SOL    HW2 6674  13.052   2.085  13.647
 1593SOL     OW 6675   8.452  14.282   2.075
 1593SOL    HW1 6676   8.374  14.297   2.021
 1593SOL    HW2 6677   8.421  14.221   2.142
 1594SOL     OW 6678  10.655   6.047   1.465
 1594SOL    HW1 6679  10.572   6.093   1.478
 1594SOL    HW2 6680  10.629   5.961   1.430
 1595SOL     OW 6681   6.633   4.827   9.450
 1595SOL    HW1 6682   6.570   4.838   9.378
 1595SOL    HW2 6683   6.592   4.871   9.524
 1596SOL     OW 6684   0.868  12.054   7.729
 1596SOL    HW1 6685   0.941  12.115   7.723
 1596SOL    HW2 6686   0.820  12.082   7.807
 1597SOL     OW 6687   1.288   0.819  10.347
 1597SOL    HW1 6688   1.286   0.727  10.319
 1597SOL    HW2 6689   1.377   0.832  10.379
 1598SOL     OW 6690   1.555   8.425   1.344
 1598SOL    HW1 6691   1.571   8.476   1.265
 1598SOL    HW2 6692   1.577   8.335   1.320
 1599SOL     OW 6693   4.437   3.226   5.821
 1599SOL    HW1 6694   4.348   3.191   5.829
 1599SOL    HW2 6695   4.459   3.214   5.728
 1600SOL     OW 6696   6.487   3.669   8.685
 1600SOL    HW1 6697   6.424   3.691   8.753
 1600SOL    HW2 6698   6.438   3.611   8.626
 1601SOL     OW 6699  10.509  14.556  10.984
 1601SOL    HW1 6700  10.430  14.592  11.024
 1601SOL    HW2 6701  10.540  14.626  10.926
 1602SOL     OW 6702   1.814   2.465  12.531
 1602SOL    HW1 6703   1.756   2.483  12.605
 1602SOL    HW2 6704   1.902   2.477  12.567
 1603SOL     OW 6705   1.412  13.800   7.752
 1603SOL    HW1 6706   1.337  13.760   7.709
 1603SOL    HW2 6707   1.390  13.799   7.845
 1604SOL     OW 6708  12.020   8.831   1.071
 1604SOL    HW1 6709  11.937   8.784   1.062
 1604SOL    HW2 6710  12.071   8.776   1.130
 1605SOL     OW 6711   6.777  11.002   5.147
 1605SOL    HW1 6712   6.751  10.910   5.146
 1605SOL    HW2 6713   6.713  11.045   5.204
 1606SOL     OW 6714  10.743  14.718   8.584
 1606SOL    HW1 6715  10.806  14.780   8.620
 1606SOL    HW2 6716  10.730  14.654   8.654
 1607SOL     OW 6717  12.187  14.418   6.483
 1607SOL    HW1 6718  12.192  14.421   6.387
 1607SOL    HW2 6719  12.237  14.495   6.511
 1608SOL     OW 6720   3.623  14.312   3.516
 1608SOL    HW1 6721   3.603  14.314   3.610
 1608SOL    HW2 6722   3.625  14.219   3.494
 1609SOL     OW 6723   1.535  13.242  10.612
 1609SOL    HW1 6724   1.620  13.286  10.623
 1609SOL    HW2 6725   1.553  13.150  10.628
 1610SOL     OW 6726   3.137   4.900   1.906
 1610SOL    HW1 6727   3.225   4.908   1.869
 1610SOL    HW2 6728   3.081   4.947   1.845
 1611SOL     OW 6729  11.629   9.553   7.104
 1611SOL    HW1 6730  11.658   9.486   7.166
 1611SOL    HW2 6731  11.544   9.582   7.137
 1612SOL     OW 6732   6.968   0.286  11.776
 1612SOL    HW1 6733   6.887   0.296  11.725
 1612SOL    HW2 6734   7.012   0.211  11.737
 1613SOL     OW 6735   4.455   6.221   9.168
 1613SOL    HW1 6736   4.461   6.163   9.092
 1613SOL    HW2 6737   4.419   6.166   9.238
 1614SOL     OW 6738   1.432   9.183   1.595
 1614SOL    HW1 6739   1.526   9.188   1.577
 1614SOL    HW2 6740   1.405   9.099   1.558
 1615SOL     OW 6741   0.047   1.412   4.451
 1615SOL    HW1 6742   0.085   1.343   4.396
 1615SOL    HW2 6743   0.051   1.491   4.397
 1616SOL     OW 6744   7.604   4.406   2.046
 1616SOL    HW1 6745   7.685   4.361   2.025
 1616SOL    HW2 6746   7.575   4.368   2.129
 1617SOL     OW 6747   9.946  12.581  12.930
 1617SOL    HW1 6748  10.001  12.620  12.998
 1617SOL    HW2 6749  10.003  12.574  12.853
 1618SOL     OW 6750   2.220  10.943   3.233
 1618SOL    HW1 6751   2.240  10.962   3.141
 1618SOL    HW2 6752   2.262  11.013   3.282
 1619SOL     OW 6753   6.794  13.665   3.111
 1619SOL    HW1 6754   6.867  13.717   3.080
 1619SOL    HW2 6755   6.745  13.641   3.032
 1620SOL     OW 6756  11.034   6.872   5.402
 1620SOL    HW1 6757  11.011   6.898   5.312
 1620SOL    HW2 6758  11.001   6.783   5.411
 1621SOL     OW 6759   3.892   9.447  14.859
 1621SOL    HW1 6760   3.827   9.405  14.803
 1621SOL    HW2 6761   3.847   9.524   0.013
 1622SOL     OW 6762   2.547  11.534  12.638
 1622SOL    HW1 6763   2.499  11.468  12.588
 1622SOL    HW2 6764   2.510  11.528  12.726
 1623SOL     OW 6765  13.028  10.359   8.098
 1623SOL    HW1 6766  12.934  10.359   8.081
 1623SOL    HW2 6767  13.049  10.450   8.118
 1624SOL     OW 6768   1.299   0.338   0.272
 1624SOL    HW1 6769   1.244   0.293   0.208
 1624SOL    HW2 6770   1.288   0.431   0.253
 1625SOL     OW 6771  12.447   2.463   1.484
 1625SOL    HW1 6772  12.526   2.430   1.440
 1625SOL    HW2 6773  12.422   2.541   1.434
 1626SOL     OW 6774  13.997  14.121  14.477
 1626SOL    HW1 6775  13.942  14.199  14.485
 1626SOL    HW2 6776  14.003  14.085  14.565
 1627SOL     OW 6777  14.585  14.454  12.145
 1627SOL    HW1 6778  14.677  14.434  12.135
 1627SOL    HW2 6779  14.572  14.460  12.240
 1628SOL     OW 6780   3.838   7.576  13.854
 1628SOL    HW1 6781   3.906   7.633  13.818
 1628SOL    HW2 6782   3.885   7.518  13.914
 1629SOL     OW 6783  11.050  11.958   3.763
 1629SOL    HW1 6784  10.966  11.978   3.721
 1629SOL    HW2 6785  11.045  12.001   3.848
 1630SOL     OW 6786   7.412   7.085   7.155
 1630SOL    HW1 6787   7.487   7.028   7.173
 1630SOL    HW2 6788   7.407   7.089   7.059
 1631SOL     OW 6789  13.064   6.254   6.390
 1631SOL    HW1 6790  12.971   6.275   6.392
 1631SOL    HW2 6791  13.087   6.237   6.482
 1632SOL     OW 6792   0.914   3.913   1.261
 1632SOL    HW1 6793   0.986   3.857   1.292
 1632SOL    HW2 6794   0.839   3.854   1.254
 1633SOL     OW 6795  11.336   1.472   6.977
 1633SOL    HW1 6796  11.356   1.379   6.973
 1633SOL    HW2 6797  11.355   1.505   6.890
 1634SOL     OW 6798  13.351   2.361   4.403
 1634SOL    HW1 6799  13.311   2.421   4.339
 1634SOL    HW2 6800  13.308   2.382   4.486
 1635SOL     OW 6801  14.677   7.098  10.640
 1635SOL    HW1 6802  14.740   7.064  10.704
 1635SOL    HW2 6803  14.706   7.187  10.622
 1636SOL     OW 6804  12.998   5.632   7.686
 1636SOL    HW1 6805  12.987   5.727   7.681
 1636SOL    HW2 6806  12.919   5.601   7.730
 1637SOL     OW 6807   7.078   5.692   2.628
 1637SOL    HW1 6808   7.019   5.634   2.676
 1637SOL    HW2 6809   7.028   5.772   2.614
 1638SOL     OW 6810  14.131  12.750   0.738
 1638SOL    HW1 6811  14.157  12.683   0.675
 1638SOL    HW2 6812  14.103  12.701   0.815
 1639SOL     OW 6813  11.706   1.994  11.115
 1639SOL    HW1 6814  11.612   1.980  11.114
 1639SOL    HW2 6815  11.734   1.966  11.202
 1640SOL     OW 6816   0.370  14.480   8.809
 1640SOL    HW1 6817   0.319  14.408   8.774
 1640SOL    HW2 6818   0.312  14.524   8.871
 1641SOL     OW 6819  13.875   6.869  13.854
 1641SOL    HW1 6820  13.825   6.933  13.905
 1641SOL    HW2 6821  13.811   6.802  13.830
 1642SOL     OW 6822  11.665   0.216   7.338
 1642SOL    HW1 6823  11.675   0.277   7.411
 1642SOL    HW2 6824  11.617   0.142   7.375
 1643SOL     OW 6825   6.483   3.951  13.655
 1643SOL    HW1 6826   6.471   4.027  13.599
 1643SOL    HW2 6827   6.577   3.934  13.653
 1644SOL     OW 6828   1.599   8.528  10.813
 1644SOL    HW1 6829   1.610   8.433  10.813
 1644SOL    HW2 6830   1.504   8.541  10.820
 1645SOL     OW 6831   4.592   5.811  13.619
 1645SOL    HW1 6832   4.638   5.842  13.698
 1645SOL    HW2 6833   4.568   5.721  13.640
 1646SOL     OW 6834   2.442   5.697  11.762
 1646SOL    HW1 6835   2.524   5.739  11.785
 1646SOL    HW2 6836   2.392   5.695  11.843
 1647SOL     OW 6837   7.919  12.854   7.466
 1647SOL    HW1 6838   7.962  12.852   7.381
 1647SOL    HW2 6839   7.946  12.774   7.509
 1648SOL     OW 6840   7.839  10.778   9.584
 1648SOL    HW1 6841   7.852  10.814   9.672
 1648SOL    HW2 6842   7.779  10.840   9.542
 1649SOL     OW 6843   3.024  12.588  11.717
 1649SOL    HW1 6844   3.084  12.661  11.736
 1649SOL    HW2 6845   3.082  12.515  11.698
 1650SOL     OW 6846   3.766  11.779   8.168
 1650SOL    HW1 6847   3.770  11.839   8.243
 1650SOL    HW2 6848   3.801  11.697   8.202
 1651SOL     OW 6849   4.261   7.766  13.981
 1651SOL    HW1 6850   4.284   7.681  14.017
 1651SOL    HW2 6851   4.325   7.780  13.911
 1652SOL     OW 6852   8.796  14.310  14.595
 1652SOL    HW1 6853   8.778  14.371  14.524
 1652SOL    HW2 6854   8.751  14.346  14.671
 1653SOL     OW 6855   6.464   4.466  11.470
 1653SOL    HW1 6856   6.495   4.376  11.476
 1653SOL    HW2 6857   6.379   4.465  11.514
 1654SOL     OW 6858  10.840   6.061  13.317
 1654SOL    HW1 6859  10.840   5.966  13.313
 1654SOL    HW2 6860  10.900   6.083  13.389
 1655SOL     OW 6861   0.763   3.612   5.026
 1655SOL    HW1 6862   0.690   3.594   4.967
 1655SOL    HW2 6863   0.834   3.557   4.995
 1656SOL     OW 6864   3.271   3.741   1.167
 1656SOL    HW1 6865   3.230   3.658   1.145
 1656SOL    HW2 6866   3.284   3.785   1.083
 1657SOL     OW 6867  10.026  11.440   2.309
 1657SOL    HW1 6868  10.082  11.517   2.298
 1657SOL    HW2 6869  10.086  11.369   2.326
 1658SOL     OW 6870  11.187   5.952   9.984
 1658SOL    HW1 6871  11.172   6.023  10.047
 1658SOL    HW2 6872  11.139   5.979   9.906
 1659SOL     OW 6873   7.364   3.735   6.319
 1659SOL    HW1 6874   7.416   3.803   6.276
 1659SOL    HW2 6875   7.368   3.660   6.260
 1660SOL     OW 6876  11.549   5.058   7.559
 1660SOL    HW1 6877  11.514   5.004   7.629
 1660SOL    HW2 6878  11.609   5.119   7.602
 1661SOL     OW 6879  12.986   2.737   5.043
 1661SOL    HW1 6880  13.041   2.659   5.043
 1661SOL    HW2 6881  12.897   2.705   5.030
 1662SOL     OW 6882  12.766   5.885  13.466
 1662SOL    HW1 6883  12.721   5.802  13.482
 1662SOL    HW2 6884  12.812   5.872  13.383
 1663SOL     OW 6885  14.230   1.861   7.609
 1663SOL    HW1 6886  14.191   1.852   7.696
 1663SOL    HW2 6887  14.301   1.796   7.607
 1664SOL     OW 6888   5.454   8.917   3.528
 1664SOL    HW1 6889   5.366   8.950   3.545
 1664SOL    HW2 6890   5.499   8.991   3.486
 1665SOL     OW 6891   9.662  10.356  13.950
 1665SOL    HW1 6892   9.685  10.449  13.956
 1665SOL    HW2 6893   9.667  10.324  14.040
 1666SOL     OW 6894  13.417  12.196  11.840
 1666SOL    HW1 6895  13.453  12.245  11.766
 1666SOL    HW2 6896  13.482  12.206  11.910
 1667SOL     OW 6897   2.754  12.524  10.577
 1667SOL    HW1 6898   2.787  12.494  10.493
 1667SOL    HW2 6899   2.673  12.475  10.590
 1668SOL     OW 6900  14.304   1.217   8.879
 1668SOL    HW1 6901  14.233   1.258   8.928
 1668SOL    HW2 6902  14.380   1.226   8.936
 1669SOL     OW 6903   1.821   6.609   9.188
 1669SOL    HW1 6904   1.842   6.517   9.206
 1669SOL    HW2 6905   1.899   6.657   9.218
 1670SOL     OW 6906  11.984   0.369   4.860
 1670SOL    HW1 6907  11.909   0.330   4.814
 1670SOL    HW2 6908  12.021   0.297   4.910
 1671SOL     OW 6909   4.700  12.642   0.785
 1671SOL    HW1 6910   4.669  12.730   0.763
 1671SOL    HW2 6911   4.734  12.649   0.874
 1672SOL     OW 6912  13.944   9.675   4.856
 1672SOL    HW1 6913  13.934   9.599   4.913
 1672SOL    HW2 6914  14.036   9.699   4.863
 1673SOL     OW 6915   6.007  12.121   7.583
 1673SOL    HW1 6916   5.966  12.043   7.546
 1673SOL    HW2 6917   5.950  12.193   7.557
 1674SOL     OW 6918   7.795   2.948   1.617
 1674SOL    HW1 6919   7.799   2.859   1.653
 1674SOL    HW2 6920   7.863   2.949   1.550
 1675SOL     OW 6921   1.715  12.802   5.116
 1675SOL    HW1 6922   1.692  12.856   5.192
 1675SOL    HW2 6923   1.805  12.828   5.095
 1676SOL     OW 6924   2.592   9.411   6.700
 1676SOL    HW1 6925   2.686   9.430   6.699
 1676SOL    HW2 6926   2.561   9.438   6.613
 1677SOL     OW 6927   4.940   6.136   5.163
 1677SOL    HW1 6928   5.020   6.108   5.118
 1677SOL    HW2 6929   4.957   6.118   5.255
 1678SOL     OW 6930   7.281   8.649  13.657
 1678SOL    HW1 6931   7.282   8.646  13.561
 1678SOL    HW2 6932   7.199   8.692  13.679
 1679SOL     OW 6933   9.381  10.290  14.019
 1679SOL    HW1 6934   9.319  10.359  14.043
 1679SOL    HW2 6935   9.446  10.291  14.090
 1680SOL     OW 6936   6.435   6.953  11.630
 1680SOL    HW1 6937   6.412   6.966  11.722
 1680SOL    HW2 6938   6.513   6.897  11.631
 1681SOL     OW 6939   1.045  13.895   9.368
 1681SOL    HW1 6940   0.991  13.933   9.300
 1681SOL    HW2 6941   0.985  13.879   9.441
 1682SOL     OW 6942   9.176   9.974  10.495
 1682SOL    HW1 6943   9.189  10.049  10.437
 1682SOL    HW2 6944   9.103  10.001  10.552
 1683SOL     OW 6945  11.971   1.700  14.324
 1683SOL    HW1 6946  11.959   1.740  14.239
 1683SOL    HW2 6947  11.902   1.738  14.379
 1684SOL     OW 6948   8.749   9.952   1.113
 1684SOL    HW1 6949   8.765   9.959   1.207
 1684SOL    HW2 6950   8.836   9.958   1.073
 1685SOL     OW 6951  12.330  13.698   7.887
 1685SOL    HW1 6952  12.255  13.674   7.942
 1685SOL    HW2 6953  12.353  13.617   7.842
 1686SOL     OW 6954  14.732  14.613   8.495
 1686SOL    HW1 6955  14.806  14.646   8.444
 1686SOL    HW2 6956  14.673  14.575   8.430
 1687SOL     OW 6957   8.484   8.926  12.936
 1687SOL    HW1 6958   8.531   9.010  12.928
 1687SOL    HW2 6959   8.399   8.943  12.895
 1688SOL     OW 6960  13.299   7.367   6.251
 1688SOL    HW1 6961  13.220   7.356   6.305
 1688SOL    HW2 6962  13.366   7.317   6.298
 1689SOL     OW 6963   1.021   6.013  14.251
 1689SOL    HW1 6964   0.943   6.050  14.293
 1689SOL    HW2 6965   1.093   6.067  14.283
 1690SOL     OW 6966   4.225  11.616   7.757
 1690SOL    HW1 6967   4.232  11.524   7.785
 1690SOL    HW2 6968   4.231  11.612   7.662
 1691SOL     OW 6969  12.574  13.704  14.783
 1691SOL    HW1 6970  12.482  13.682  14.799
 1691SOL    HW2 6971  12.587  13.686  14.690
 1692SOL     OW 6972   3.478   0.467   7.242
 1692SOL    HW1 6973   3.525   0.451   7.324
 1692SOL    HW2 6974   3.541   0.444   7.173
 1693SOL     OW 6975  11.829   0.595  12.774
 1693SOL    HW1 6976  11.753   0.653  12.784
 1693SOL    HW2 6977  11.903   0.648  12.804
 1694SOL     OW 6978   1.087  13.347   4.392
 1694SOL    HW1 6979   1.054  13.263   4.425
 1694SOL    HW2 6980   1.181  13.333   4.380
 1695SOL     OW 6981  13.435   1.431   3.392
 1695SOL    HW1 6982  13.429   1.443   3.297
 1695SOL    HW2 6983  13.407   1.515   3.428
 1696SOL     OW 6984  14.503   4.266   0.436
 1696SOL    HW1 6985  14.552   4.198   0.482
 1696SOL    HW2 6986  14.451   4.309   0.504
 1697SOL     OW 6987   1.280   4.955  11.853
 1697SOL    HW1 6988   1.259   4.939  11.945
 1697SOL    HW2 6989   1.297   4.868  11.817
 1698SOL     OW 6990   7.848   3.565   4.111
 1698SOL    HW1 6991   7.890   3.620   4.045
 1698SOL    HW2 6992   7.766   3.609   4.131
 1699SOL     OW 6993  13.114   3.399  10.847
 1699SOL    HW1 6994  13.108   3.311  10.883
 1699SOL    HW2 6995  13.055   3.399  10.772
 1700SOL     OW 6996   1.548   9.186   3.805
 1700SOL    HW1 6997   1.564   9.274   3.838
 1700SOL    HW2 6998   1.547   9.195   3.710
 1701SOL     OW 6999   2.415   5.761  11.283
 1701SOL    HW1 7000   2.448   5.754  11.372
 1701SOL    HW2 7001   2.361   5.840  11.283
 1702SOL     OW 7002   0.323  10.225   3.301
 1702SOL    HW1 7003   0.360  10.299   3.349
 1702SOL    HW2 7004   0.233  10.252   3.282
 1703SOL     OW 7005   9.837   0.311   1.188
 1703SOL    HW1 7006   9.909   0.331   1.248
 1703SOL    HW2 7007   9.783   0.390   1.189
 1704SOL     OW 7008   2.774  14.054   4.980
 1704SOL    HW1 7009   2.864  14.045   4.951
 1704SOL    HW2 7010   2.771  14.138   5.026
 1705SOL     OW 7011   2.823   7.568  12.381
 1705SOL    HW1 7012   2.840   7.617  12.461
 1705SOL    HW2 7013   2.909   7.557  12.341
 1706SOL     OW 7014   7.312  13.771  14.451
 1706SOL    HW1 7015   7.379  13.710  14.420
 1706SOL    HW2 7016   7.320  13.770  14.546
 1707SOL     OW 7017   2.770   8.752  12.984
 1707SOL    HW1 7018   2.775   8.772  13.077
 1707SOL    HW2 7019   2.858   8.769  12.951
 1708SOL     OW 7020   5.285   7.977   3.828
 1708SOL    HW1 7021   5.284   8.032   3.750
 1708SOL    HW2 7022   5.323   8.033   3.896
 1709SOL     OW 7023   6.535   1.700  10.400
 1709SOL    HW1 7024   6.455   1.668  10.441
 1709SOL    HW2 7025   6.555   1.781  10.446
 1710SOL     OW 7026  11.296   9.526  12.533
 1710SOL    HW1 7027  11.312   9.460  12.467
 1710SOL    HW2 7028  11.210   9.561  12.512
 1711SOL     OW 7029  14.625   6.573  14.554
 1711SOL    HW1 7030  14.607   6.634  14.625
 1711SOL    HW2 7031  14.541   6.530  14.539
 1712SOL     OW 7032  12.213   3.648  13.464
 1712SOL    HW1 7033  12.148   3.621  13.529
 1712SOL    HW2 7034  12.168   3.715  13.413
 1713SOL     OW 7035   6.243   5.586  12.737
 1713SOL    HW1 7036   6.274   5.619  12.821
 1713SOL    HW2 7037   6.216   5.495  12.755
 1714SOL     OW 7038   5.230  11.574   8.598
 1714SOL    HW1 7039   5.135  11.564   8.584
 1714SOL    HW2 7040   5.268  11.566   8.511
 1715SOL     OW 7041  13.854   5.892  11.206
 1715SOL    HW1 7042  13.853   5.805  11.168
 1715SOL    HW2 7043  13.769   5.930  11.182
 1716SOL     OW 7044  11.815  13.453  10.902
 1716SOL    HW1 7045  11.721  13.444  10.918
 1716SOL    HW2 7046  11.841  13.369  10.864
 1717SOL     OW 7047  13.696   0.926   9.850
 1717SOL    HW1 7048  13.754   0.949   9.777
 1717SOL    HW2 7049  13.694   0.830   9.848
 1718SOL     OW 7050   6.684   7.743   0.636
 1718SOL    HW1 7051   6.723   7.781   0.557
 1718SOL    HW2 7052   6.622   7.678   0.603
 1719SOL     OW 7053   1.807  14.714   9.317
 1719SOL    HW1 7054   1.815  14.807   9.339
 1719SOL    HW2 7055   1.851  14.668   9.389
 1720SOL     OW 7056   1.471   3.363   2.062
 1720SOL    HW1 7057   1.537   3.385   2.128
 1720SOL    HW2 7058   1.398   3.328   2.112
 1721SOL     OW 7059  10.080   8.577   1.900
 1721SOL    HW1 7060  10.136   8.638   1.948
 1721SOL    HW2 7061  10.065   8.619   1.816
 1722SOL     OW 7062   2.081  10.475  12.357
 1722SOL    HW1 7063   2.040  10.416  12.419
 1722SOL    HW2 7064   2.102  10.554  12.407
 1723SOL     OW 7065   6.888  12.029   9.366
 1723SOL    HW1 7066   6.871  12.121   9.348
 1723SOL    HW2 7067   6.839  12.010   9.446
 1724SOL     OW 7068   0.222  13.570   8.969
 1724SOL    HW1 7069   0.194  13.611   8.887
 1724SOL    HW2 7070   0.163  13.605   9.036
 1725SOL     OW 7071  10.984  10.614  13.275
 1725SOL    HW1 7072  10.973  10.612  13.180
 1725SOL    HW2 7073  10.901  10.647  13.309
 1726SOL     OW 7074   9.567  10.965  13.651
 1726SOL    HW1 7075   9.597  11.033  13.711
 1726SOL    HW2 7076   9.594  10.996  13.565
 1727SOL     OW 7077   6.764   4.335  14.837
 1727SOL    HW1 7078   6.714   4.306  14.760
 1727SOL    HW2 7079   6.851   4.298  14.824
 1728SOL     OW 7080  14.655  12.406   1.103
 1728SOL    HW1 7081  14.637  12.335   1.042
 1728SOL    HW2 7082  14.719  12.461   1.057
 1729SOL     OW 7083  12.816   0.140   6.651
 1729SOL    HW1 7084  12.757   0.150   6.577
 1729SOL    HW2 7085  12.812   0.224   6.697
 1730SOL     OW 7086  11.046   8.738   4.296
 1730SOL    HW1 7087  11.096   8.810   4.335
 1730SOL    HW2 7088  11.064   8.663   4.351
 1731SOL     OW 7089   1.906   0.324   3.164
 1731SOL    HW1 7090   1.977   0.306   3.226
 1731SOL    HW2 7091   1.840   0.256   3.182
 1732SOL     OW 7092  11.711   4.922  14.133
 1732SOL    HW1 7093  11.768   4.928  14.055
 1732SOL    HW2 7094  11.722   4.833  14.164
 1733SOL     OW 7095   9.373   6.429   8.264
 1733SOL    HW1 7096   9.383   6.354   8.323
 1733SOL    HW2 7097   9.435   6.494   8.297
 1734SOL     OW 7098   2.248   5.165  12.552
 1734SOL    HW1 7099   2.171   5.223  12.551
 1734SOL    HW2 7100   2.273   5.157  12.460
 1735SOL     OW 7101   0.682   3.276   4.815
 1735SOL    HW1 7102   0.766   3.278   4.860
 1735SOL    HW2 7103   0.623   3.233   4.877
 1736SOL     OW 7104   3.381  12.077  12.368
 1736SOL    HW1 7105   3.380  12.143  12.299
 1736SOL    HW2 7106   3.289  12.058  12.385
 1737SOL     OW 7107  13.605   0.155   2.102
 1737SOL    HW1 7108  13.662   0.191   2.034
 1737SOL    HW2 7109  13.537   0.108   2.053
 1738SOL     OW 7110  12.562   4.124   1.600
 1738SOL    HW1 7111  12.518   4.077   1.530
 1738SOL    HW2 7112  12.539   4.075   1.679
 1739SOL     OW 7113   1.612   7.264   6.080
 1739SOL    HW1 7114   1.518   7.276   6.094
 1739SOL    HW2 7115   1.645   7.352   6.060
 1740SOL     OW 7116   3.899  12.275   0.963
 1740SOL    HW1 7117   3.874  12.190   0.926
 1740SOL    HW2 7118   3.921  12.329   0.887
 1741SOL     OW 7119   5.780   3.195  14.186
 1741SOL    HW1 7120   5.876   3.196  14.185
 1741SOL    HW2 7121   5.756   3.159  14.100
 1742SOL     OW 7122   3.664  10.915   7.686
 1742SOL    HW1 7123   3.603  10.977   7.725
 1742SOL    HW2 7124   3.635  10.908   7.595
 1743SOL     OW 7125  12.393   4.824  10.078
 1743SOL    HW1 7126  12.431   4.745  10.116
 1743SOL    HW2 7127  12.324   4.792  10.020
 1744SOL     OW 7128   6.811  14.174   4.782
 1744SOL    HW1 7129   6.735  14.195   4.729
 1744SOL    HW2 7130   6.860  14.109   4.730
 1745SOL     OW 7131   5.513   7.299  10.156
 1745SOL    HW1 7132   5.572   7.363  10.116
 1745SOL    HW2 7133   5.426   7.325  10.125
 1746SOL     OW 7134   8.914  12.083  11.920
 1746SOL    HW1 7135   8.943  12.151  11.859
 1746SOL    HW2 7136   8.995  12.039  11.947
 1747SOL     OW 7137   2.091   6.073  12.838
 1747SOL    HW1 7138   2.180   6.099  12.813
 1747SOL    HW2 7139   2.044   6.069  12.755
 1748SOL     OW 7140   0.323   2.847   6.651
 1748SOL    HW1 7141   0.280   2.933   6.648
 1748SOL    HW2 7142   0.353   2.839   6.742
 1749SOL     OW 7143   6.438   7.674  11.340
 1749SOL    HW1 7144   6.377   7.609  11.375
 1749SOL    HW2 7145   6.465   7.638  11.255
 1750SOL     OW 7146  12.827   4.654  14.557
 1750SOL    HW1 7147  12.804   4.577  14.505
 1750SOL    HW2 7148  12.923   4.654  14.560
 1751SOL     OW 7149   9.900   5.294   4.576
 1751SOL    HW1 7150   9.895   5.278   4.482
 1751SOL    HW2 7151   9.970   5.359   4.585
 1752SOL     OW 7152   8.224   9.737   3.796
 1752SOL    HW1 7153   8.170   9.808   3.829
 1752SOL    HW2 7154   8.312   9.775   3.790
 1753SOL     OW 7155   7.024   2.189  10.215
 1753SOL    HW1 7156   7.044   2.214  10.126
 1753SOL    HW2 7157   7.106   2.201  10.263
 1754SOL     OW 7158  11.633  11.004   1.997
 1754SOL    HW1 7159  11.629  11.075   2.060
 1754SOL    HW2 7160  11.683  10.935   2.040
 1755SOL     OW 7161   5.624   1.746  14.042
 1755SOL    HW1 7162   5.641   1.713  13.954
 1755SOL    HW2 7163   5.683   1.696  14.098
 1756SOL     OW 7164   9.082  10.593  11.451
 1756SOL    HW1 7165   9.080  10.663  11.516
 1756SOL    HW2 7166   9.029  10.626  11.378
 1757SOL     OW 7167   2.741  14.316   9.186
 1757SOL    HW1 7168   2.708  14.310   9.096
 1757SOL    HW2 7169   2.836  14.329   9.175
 1758SOL     OW 7170  10.066  13.308   8.996
 1758SOL    HW1 7171  10.067  13.318   9.091
 1758SOL    HW2 7172   9.974  13.306   8.972
 1759SOL     OW 7173  11.403   9.707   8.995
 1759SOL    HW1 7174  11.407   9.624   9.043
 1759SOL    HW2 7175  11.490   9.716   8.957
 1760SOL     OW 7176   3.251   7.612   4.525
 1760SOL    HW1 7177   3.335   7.656   4.537
 1760SOL    HW2 7178   3.261   7.528   4.569
 1761SOL     OW 7179   4.750  14.181   0.666
 1761SOL    HW1 7180   4.679  14.126   0.633
 1761SOL    HW2 7181   4.810  14.119   0.709
 1762SOL     OW 7182   4.933   7.519   9.646
 1762SOL    HW1 7183   4.973   7.438   9.677
 1762SOL    HW2 7184   4.894   7.496   9.561
 1763SOL     OW 7185   1.838   3.740  12.515
 1763SOL    HW1 7186   1.818   3.651  12.485
 1763SOL    HW2 7187   1.798   3.745  12.602
 1764SOL     OW 7188   7.247   3.848  13.174
 1764SOL    HW1 7189   7.211   3.765  13.205
 1764SOL    HW2 7190   7.171   3.905  13.164
 1765SOL     OW 7191  10.615   0.287   7.240
 1765SOL    HW1 7192  10.583   0.282   7.330
 1765SOL    HW2 7193  10.539   0.265   7.186
 1766SOL     OW 7194  10.241   6.765   9.548
 1766SOL    HW1 7195  10.198   6.698   9.495
 1766SOL    HW2 7196  10.247   6.841   9.490
 1767SOL     OW 7197   9.584  13.648   9.789
 1767SOL    HW1 7198   9.549  13.608   9.868
 1767SOL    HW2 7199   9.647  13.712   9.820
 1768SOL     OW 7200   4.632  12.067   6.543
 1768SOL    HW1 7201   4.609  12.003   6.476
 1768SOL    HW2 7202   4.615  12.152   6.502
 1769SOL     OW 7203   9.663   7.923   0.541
 1769SOL    HW1 7204   9.610   7.850   0.576
 1769SOL    HW2 7205   9.749   7.911   0.581
 1770SOL     OW 7206   0.748   5.692  14.576
 1770SOL    HW1 7207   0.801   5.620  14.609
 1770SOL    HW2 7208   0.741   5.753  14.650
 1771SOL     OW 7209   2.388   8.552  11.537
 1771SOL    HW1 7210   2.333   8.568  11.461
 1771SOL    HW2 7211   2.412   8.640  11.568
 1772SOL     OW 7212  11.539  10.670   5.080
 1772SOL    HW1 7213  11.458  10.639   5.121
 1772SOL    HW2 7214  11.606  10.659   5.148
 1773SOL     OW 7215   8.133   2.070   8.512
 1773SOL    HW1 7216   8.102   2.008   8.579
 1773SOL    HW2 7217   8.195   2.126   8.559
 1774SOL     OW 7218   5.120   9.020   5.582
 1774SOL    HW1 7219   5.081   9.054   5.663
 1774SOL    HW2 7220   5.203   9.066   5.575
 1775SOL     OW 7221   4.105  14.140   3.654
 1775SOL    HW1 7222   4.107  14.197   3.577
 1775SOL    HW2 7223   4.196  14.137   3.683
 1776SOL     OW 7224   8.587   1.128   9.799
 1776SOL    HW1 7225   8.676   1.105   9.827
 1776SOL    HW2 7226   8.571   1.072   9.723
 1777SOL     OW 7227   5.832  13.234  10.402
 1777SOL    HW1 7228   5.844  13.162  10.340
 1777SOL    HW2 7229   5.826  13.192  10.487
 1778SOL     OW 7230   7.132   9.315   4.313
 1778SOL    HW1 7231   7.219   9.293   4.282
 1778SOL    HW2 7232   7.108   9.393   4.264
 1779SOL     OW 7233  11.480   5.820   4.500
 1779SOL    HW1 7234  11.417   5.874   4.452
 1779SOL    HW2 7235  11.513   5.877   4.569
 1780SOL     OW 7236   5.908   4.266  13.975
 1780SOL    HW1 7237   5.952   4.337  14.021
 1780SOL    HW2 7238   5.969   4.192  13.982
 1781SOL     OW 7239   5.625   8.468   1.964
 1781SOL    HW1 7240   5.645   8.559   1.943
 1781SOL    HW2 7241   5.693   8.417   1.920
 1782SOL     OW 7242  12.814   6.082  11.125
 1782SOL    HW1 7243  12.805   6.076  11.030
 1782SOL    HW2 7244  12.900   6.121  11.138
 1783SOL     OW 7245   6.231   1.174  13.740
 1783SOL    HW1 7246   6.217   1.176  13.835
 1783SOL    HW2 7247   6.322   1.148  13.729
 1784SOL     OW 7248   6.909   1.945  11.780
 1784SOL    HW1 7249   6.894   2.009  11.850
 1784SOL    HW2 7250   6.887   1.861  11.819
 1785SOL     OW 7251   4.584   6.375  10.690
 1785SOL    HW1 7252   4.670   6.370  10.647
 1785SOL    HW2 7253   4.593   6.448  10.752
 1786SOL     OW 7254   3.094   5.530   3.431
 1786SOL    HW1 7255   3.036   5.588   3.479
 1786SOL    HW2 7256   3.090   5.561   3.340
 1787SOL     OW 7257   6.494   2.601   9.306
 1787SOL    HW1 7258   6.511   2.509   9.285
 1787SOL    HW2 7259   6.519   2.649   9.227
 1788SOL     OW 7260   5.188   6.422   4.730
 1788SOL    HW1 7261   5.110   6.474   4.746
 1788SOL    HW2 7262   5.258   6.486   4.718
 1789SOL     OW 7263   1.111  10.018   1.438
 1789SOL    HW1 7264   1.043   9.950   1.439
 1789SOL    HW2 7265   1.155  10.009   1.523
 1790SOL     OW 7266   9.229   6.047   0.661
 1790SOL    HW1 7267   9.203   6.102   0.588
 1790SOL    HW2 7268   9.319   6.073   0.681
 1791SOL     OW 7269  12.683   1.824   9.616
 1791SOL    HW1 7270  12.685   1.736   9.580
 1791SOL    HW2 7271  12.769   1.835   9.657
 1792SOL     OW 7272   7.073   5.859   9.314
 1792SOL    HW1 7273   7.006   5.900   9.258
 1792SOL    HW2 7274   7.029   5.785   9.354
 1793SOL     OW 7275   2.068   0.867   2.562
 1793SOL    HW1 7276   2.146   0.896   2.609
 1793SOL    HW2 7277   2.059   0.928   2.489
 1794SOL     OW 7278  10.129   8.671   9.916
 1794SOL    HW1 7279  10.147   8.594   9.863
 1794SOL    HW2 7280  10.101   8.737   9.852
 1795SOL     OW 7281   1.962   2.581   3.295
 1795SOL    HW1 7282   2.016   2.546   3.224
 1795SOL    HW2 7283   1.905   2.645   3.251
 1796SOL     OW 7284   8.446   4.000   2.214
 1796SOL    HW1 7285   8.421   4.090   2.193
 1796SOL    HW2 7286   8.390   3.976   2.288
 1797SOL     OW 7287   8.571  12.737   1.471
 1797SOL    HW1 7288   8.567  12.791   1.550
 1797SOL    HW2 7289   8.661  12.707   1.467
 1798SOL     OW 7290   0.486  13.673   4.630
 1798SOL    HW1 7291   0.496  13.728   4.552
 1798SOL    HW2 7292   0.446  13.592   4.598
 1799SOL     OW 7293  14.880  13.660   8.081
 1799SOL    HW1 7294   0.037  13.598   8.142
 1799SOL    HW2 7295   0.010  13.745   8.122
 1800SOL     OW 7296   0.641  10.869  11.172
 1800SOL    HW1 7297   0.610  10.846  11.259
 1800SOL    HW2 7298   0.682  10.788  11.140
 1801SOL     OW 7299   2.910  12.481   3.829
 1801SOL    HW1 7300   2.981  12.423   3.858
 1801SOL    HW2 7301   2.955  12.562   3.803
 1802SOL     OW 7302  10.285   0.701   2.528
 1802SOL    HW1 7303  10.304   0.780   2.578
 1802SOL    HW2 7304  10.261   0.733   2.441
 1803SOL     OW 7305   4.333   5.911   9.062
 1803SOL    HW1 7306   4.281   5.989   9.044
 1803SOL    HW2 7307   4.285   5.839   9.021
 1804SOL     OW 7308   9.608   6.232   8.868
 1804SOL    HW1 7309   9.595   6.197   8.780
 1804SOL    HW2 7310   9.520   6.237   8.905
 1805SOL     OW 7311   4.519  11.797  13.087
 1805SOL    HW1 7312   4.426  11.812  13.069
 1805SOL    HW2 7313   4.544  11.868  13.147
 1806SOL     OW 7314   7.370   2.090   9.837
 1806SOL    HW1 7315   7.324   2.074   9.755
 1806SOL    HW2 7316   7.375   2.004   9.878
 1807SOL     OW 7317   9.434   6.178   4.946
 1807SOL    HW1 7318   9.458   6.209   4.859
 1807SOL    HW2 7319   9.385   6.097   4.931
 1808SOL     OW 7320   9.111  11.306   3.492
 1808SOL    HW1 7321   9.124  11.378   3.430
 1808SOL    HW2 7322   9.181  11.317   3.557
 1809SOL     OW 7323   7.549   3.166   5.122
 1809SOL    HW1 7324   7.478   3.112   5.087
 1809SOL    HW2 7325   7.520   3.190   5.210
 1810SOL     OW 7326   2.950   9.658   4.495
 1810SOL    HW1 7327   2.904   9.697   4.421
 1810SOL    HW2 7328   2.889   9.592   4.529
 1811SOL     OW 7329   4.912   1.147   7.892
 1811SOL    HW1 7330   4.817   1.142   7.901
 1811SOL    HW2 7331   4.945   1.121   7.978
 1812SOL     OW 7332   1.585  13.856   5.349
 1812SOL    HW1 7333   1.550  13.774   5.314
 1812SOL    HW2 7334   1.570  13.850   5.443
 1813SOL     OW 7335   4.094  14.452  12.148
 1813SOL    HW1 7336   4.160  14.420  12.210
 1813SOL    HW2 7337   4.014  14.406  12.173
 1814SOL     OW 7338  13.791  11.795  13.976
 1814SOL    HW1 7339  13.704  11.816  13.944
 1814SOL    HW2 7340  13.810  11.709  13.939
 1815SOL     OW 7341  11.241  14.592   9.092
 1815SOL    HW1 7342  11.165  14.649   9.077
 1815SOL    HW2 7343  11.241  14.533   9.016
 1816SOL     OW 7344  12.625   2.739   8.698
 1816SOL    HW1 7345  12.554   2.729   8.635
 1816SOL    HW2 7346  12.628   2.833   8.717
 1817SOL     OW 7347   7.321   6.560  12.962
 1817SOL    HW1 7348   7.378   6.489  12.990
 1817SOL    HW2 7349   7.252   6.563  13.028
 1818SOL     OW 7350   1.051   9.139   3.692
 1818SOL    HW1 7351   0.995   9.064   3.671
 1818SOL    HW2 7352   1.140   9.105   3.686
 1819SOL     OW 7353   6.417   2.926   7.990
 1819SOL    HW1 7354   6.323   2.916   7.978
 1819SOL    HW2 7355   6.441   2.858   8.053
 1820SOL     OW 7356  12.200   6.588   9.865
 1820SOL    HW1 7357  12.153   6.559   9.943
 1820SOL    HW2 7358  12.154   6.667   9.837
 1821SOL     OW 7359  14.351  11.183   7.309
 1821SOL    HW1 7360  14.388  11.266   7.340
 1821SOL    HW2 7361  14.277  11.208   7.255
 1822SOL     OW 7362  12.660   4.867  11.473
 1822SOL    HW1 7363  12.753   4.845  11.467
 1822SOL    HW2 7364  12.658   4.946  11.527
 1823SOL     OW 7365   7.515   3.128  12.621
 1823SOL    HW1 7366   7.421   3.145  12.619
 1823SOL    HW2 7367   7.526   3.048  12.570
 1824SOL     OW 7368   5.286   1.343   8.633
 1824SOL    HW1 7369   5.217   1.358   8.698
 1824SOL    HW2 7370   5.339   1.273   8.670
 1825SOL     OW 7371   9.541  13.803  10.239
 1825SOL    HW1 7372   9.566  13.858  10.313
 1825SOL    HW2 7373   9.623  13.785  10.193
 1826SOL     OW 7374  14.331   9.104   4.730
 1826SOL    HW1 7375  14.252   9.125   4.779
 1826SOL    HW2 7376  14.302   9.104   4.638
 1827SOL     OW 7377   2.116  11.467   7.354
 1827SOL    HW1 7378   2.209  11.464   7.334
 1827SOL    HW2 7379   2.088  11.375   7.353
 1828SOL     OW 7380   7.406   1.341   9.935
 1828SOL    HW1 7381   7.421   1.359  10.027
 1828SOL    HW2 7382   7.313   1.316   9.930
 1829SOL     OW 7383  10.297   0.611  11.949
 1829SOL    HW1 7384  10.308   0.661  12.030
 1829SOL    HW2 7385  10.348   0.531  11.964
 1830SOL     OW 7386   8.567   7.309   3.345
 1830SOL    HW1 7387   8.611   7.334   3.426
 1830SOL    HW2 7388   8.515   7.386   3.322
 1831SOL     OW 7389  10.129   2.976   9.860
 1831SOL    HW1 7390  10.067   2.928   9.805
 1831SOL    HW2 7391  10.215   2.942   9.835
 1832SOL     OW 7392  11.377   9.981   9.578
 1832SOL    HW1 7393  11.456   9.965   9.629
 1832SOL    HW2 7394  11.409   9.989   9.488
 1833SOL     OW 7395  13.311   3.256   8.591
 1833SOL    HW1 7396  13.311   3.173   8.638
 1833SOL    HW2 7397  13.332   3.232   8.500
 1834SOL     OW 7398   0.724  10.148   5.278
 1834SOL    HW1 7399   0.809  10.106   5.285
 1834SOL    HW2 7400   0.670  10.085   5.231
 1835SOL     OW 7401   0.878   2.341   5.045
 1835SOL    HW1 7402   0.971   2.318   5.049
 1835SOL    HW2 7403   0.873   2.414   4.983
 1836SOL     OW 7404   6.928   1.299   3.948
 1836SOL    HW1 7405   6.901   1.365   4.011
 1836SOL    HW2 7406   6.848   1.250   3.929
 1837SOL     OW 7407   2.425   2.546  13.248
 1837SOL    HW1 7408   2.509   2.567  13.290
 1837SOL    HW2 7409   2.434   2.454  13.222
 1838SOL     OW 7410  11.122  10.481   1.380
 1838SOL    HW1 7411  11.052  10.491   1.444
 1838SOL    HW2 7412  11.171  10.404   1.410
 1839SOL     OW 7413   3.319   1.588  10.174
 1839SOL    HW1 7414   3.332   1.503  10.216
 1839SOL    HW2 7415   3.360   1.651  10.233
 1840SOL     OW 7416   6.164   0.753  11.203
 1840SOL    HW1 7417   6.217   0.832  11.189
 1840SOL    HW2 7418   6.196   0.717  11.285
 1841SOL     OW 7419   1.479   8.066  14.272
 1841SOL    HW1 7420   1.475   7.973  14.249
 1841SOL    HW2 7421   1.420   8.074  14.346
 1842SOL     OW 7422  11.440   7.333   8.502
 1842SOL    HW1 7423  11.508   7.326   8.570
 1842SOL    HW2 7424  11.358   7.329   8.551
 1843SOL     OW 7425  11.987   7.888   7.538
 1843SOL    HW1 7426  11.962   7.980   7.548
 1843SOL    HW2 7427  12.037   7.868   7.617
 1844SOL     OW 7428   0.855   8.660   7.174
 1844SOL    HW1 7429   0.772   8.632   7.213
 1844SOL    HW2 7430   0.919   8.598   7.209
 1845SOL     OW 7431   6.340  12.218   6.417
 1845SOL    HW1 7432   6.317  12.297   6.368
 1845SOL    HW2 7433   6.435  12.212   6.409
 1846SOL     OW 7434  11.154   3.788   6.223
 1846SOL    HW1 7435  11.205   3.840   6.285
 1846SOL    HW2 7436  11.183   3.698   6.238
 1847SOL     OW 7437   1.756   7.652   7.501
 1847SOL    HW1 7438   1.784   7.708   7.572
 1847SOL    HW2 7439   1.787   7.565   7.526
 1848SOL     OW 7440  13.104  13.468  12.927
 1848SOL    HW1 7441  13.061  13.453  13.011
 1848SOL    HW2 7442  13.066  13.550  12.895
 1849SOL     OW 7443   0.396  12.444   1.939
 1849SOL    HW1 7444   0.489  12.450   1.921
 1849SOL    HW2 7445   0.365  12.371   1.885
 1850SOL     OW 7446   0.856   2.100  10.056
 1850SOL    HW1 7447   0.787   2.041  10.085
 1850SOL    HW2 7448   0.897   2.130  10.137
 1851SOL     OW 7449  14.767   9.886  10.701
 1851SOL    HW1 7450  14.861   9.904  10.695
 1851SOL    HW2 7451  14.753   9.860  10.792
 1852SOL     OW 7452   2.685  14.063   1.343
 1852SOL    HW1 7453   2.715  13.976   1.367
 1852SOL    HW2 7454   2.606  14.048   1.292
 1853SOL     OW 7455  14.366  12.734   4.036
 1853SOL    HW1 7456  14.448  12.731   4.085
 1853SOL    HW2 7457  14.315  12.660   4.069
 1854SOL     OW 7458   9.430   6.989   1.594
 1854SOL    HW1 7459   9.486   6.942   1.532
 1854SOL    HW2 7460   9.341   6.970   1.564
 1855SOL     OW 7461  11.792  14.462  10.390
 1855SOL    HW1 7462  11.869  14.506  10.425
 1855SOL    HW2 7463  11.777  14.504  10.306
 1856SOL     OW 7464   1.134   2.034   2.436
 1856SOL    HW1 7465   1.164   1.944   2.446
 1856SOL    HW2 7466   1.104   2.059   2.524
 1857SOL     OW 7467  13.980  12.226  14.043
 1857SOL    HW1 7468  13.976  12.298  13.980
 1857SOL    HW2 7469  13.941  12.261  14.123
 1858SOL     OW 7470   1.436   0.489  12.168
 1858SOL    HW1 7471   1.433   0.404  12.212
 1858SOL    HW2 7472   1.354   0.532  12.192
 1859SOL     OW 7473   5.598   1.118  14.807
 1859SOL    HW1 7474   5.685   1.144  14.838
 1859SOL    HW2 7475   5.603   1.024  14.795
 1860SOL     OW 7476   2.139  12.001   5.064
 1860SOL    HW1 7477   2.146  12.093   5.041
 1860SOL    HW2 7478   2.139  11.955   4.980
 1861SOL     OW 7479  11.680  12.260   2.596
 1861SOL    HW1 7480  11.598  12.211   2.609
 1861SOL    HW2 7481  11.655  12.351   2.608
 1862SOL     OW 7482   4.049   3.253   9.421
 1862SOL    HW1 7483   4.064   3.265   9.515
 1862SOL    HW2 7484   4.027   3.340   9.389
 1863SOL     OW 7485   8.370  14.008   8.946
 1863SOL    HW1 7486   8.409  14.049   9.024
 1863SOL    HW2 7487   8.307  13.946   8.982
 1864SOL     OW 7488   7.185  10.761   4.624
 1864SOL    HW1 7489   7.232  10.705   4.687
 1864SOL    HW2 7490   7.093  10.738   4.637
 1865SOL     OW 7491   2.337   2.264   2.498
 1865SOL    HW1 7492   2.299   2.178   2.481
 1865SOL    HW2 7493   2.411   2.247   2.556
 1866SOL     OW 7494   8.141  13.385   5.289
 1866SOL    HW1 7495   8.066  13.435   5.321
 1866SOL    HW2 7496   8.177  13.439   5.219
 1867SOL     OW 7497   0.873   1.042   7.034
 1867SOL    HW1 7498   0.890   1.136   7.034
 1867SOL    HW2 7499   0.849   1.021   7.124
 1868SOL     OW 7500   8.164   3.647   0.453
 1868SOL    HW1 7501   8.212   3.566   0.434
 1868SOL    HW2 7502   8.220   3.716   0.418
 1869SOL     OW 7503  11.356   3.992  10.513
 1869SOL    HW1 7504  11.321   4.040  10.438
 1869SOL    HW2 7505  11.278   3.966  10.564
 1870SOL     OW 7506  11.125   3.585   0.740
 1870SOL    HW1 7507  11.144   3.582   0.646
 1870SOL    HW2 7508  11.092   3.674   0.754
 1871SOL     OW 7509   5.435   6.887   1.820
 1871SOL    HW1 7510   5.403   6.978   1.822
 1871SOL    HW2 7511   5.499   6.883   1.890
 1872SOL     OW 7512  11.093   8.414  10.688
 1872SOL    HW1 7513  11.065   8.353  10.755
 1872SOL    HW2 7514  11.134   8.360  10.621
 1873SOL     OW 7515   0.529   3.794  13.790
 1873SOL    HW1 7516   0.576   3.870  13.824
 1873SOL    HW2 7517   0.526   3.733  13.864
 1874SOL     OW 7518  13.484  13.470  10.497
 1874SOL    HW1 7519  13.437  13.553  10.492
 1874SOL    HW2 7520  13.499  13.456  10.590
 1875SOL     OW 7521   5.581  12.358  14.610
 1875SOL    HW1 7522   5.622  12.395  14.688
 1875SOL    HW2 7523   5.493  12.395  14.609
 1876SOL     OW 7524   0.065   0.857  11.815
 1876SOL    HW1 7525   0.038   0.786  11.873
 1876SOL    HW2 7526   0.022   0.838  11.731
 1877SOL     OW 7527   7.513   3.889   6.830
 1877SOL    HW1 7528   7.437   3.930   6.871
 1877SOL    HW2 7529   7.491   3.884   6.737
 1878SOL     OW 7530   0.013  13.498  13.804
 1878SOL    HW1 7531   0.080  13.565  13.794
 1878SOL    HW2 7532   0.049  13.437  13.869
 1879SOL     OW 7533   3.462  12.289   0.011
 1879SOL    HW1 7534   3.514  12.233  14.836
 1879SOL    HW2 7535   3.384  12.238   0.031
 1880SOL     OW 7536  14.156  12.541  10.091
 1880SOL    HW1 7537  14.067  12.561  10.121
 1880SOL    HW2 7538  14.144  12.473  10.025
 1881SOL     OW 7539  13.441   1.392   1.930
 1881SOL    HW1 7540  13.449   1.384   1.835
 1881SOL    HW2 7541  13.517   1.345   1.964
 1882SOL     OW 7542   0.847   6.261   7.542
 1882SOL    HW1 7543   0.928   6.299   7.507
 1882SOL    HW2 7544   0.871   6.230   7.629
 1883SOL     OW 7545   2.043  12.278   3.105
 1883SOL    HW1 7546   2.082  12.307   3.188
 1883SOL    HW2 7547   1.950  12.269   3.125
 1884SOL     OW 7548   7.118  12.446   3.677
 1884SOL    HW1 7549   7.082  12.379   3.619
 1884SOL    HW2 7550   7.197  12.476   3.633
 1885SOL     OW 7551   5.078  13.923  10.362
 1885SOL    HW1 7552   5.037  14.008  10.375
 1885SOL    HW2 7553   5.134  13.934  10.285
 1886SOL     OW 7554   3.105   0.470   9.954
 1886SOL    HW1 7555   3.132   0.409   9.885
 1886SOL    HW2 7556   3.117   0.557   9.915
 1887SOL     OW 7557   2.152  12.852   1.046
 1887SOL    HW1 7558   2.228  12.909   1.054
 1887SOL    HW2 7559   2.081  12.901   1.088
 1888SOL     OW 7560   9.021   3.728   3.091
 1888SOL    HW1 7561   8.934   3.768   3.094
 1888SOL    HW2 7562   9.059   3.758   3.008
 1889SOL     OW 7563   0.270   3.593  10.323
 1889SOL    HW1 7564   0.363   3.613  10.332
 1889SOL    HW2 7565   0.261   3.503  10.355
 1890SOL     OW 7566   3.975  10.899   3.299
 1890SOL    HW1 7567   4.016  10.985   3.296
 1890SOL    HW2 7568   3.979  10.867   3.209
 1891SOL     OW 7569   1.588   3.036   0.434
 1891SOL    HW1 7570   1.678   3.067   0.444
 1891SOL    HW2 7571   1.586   2.994   0.348
 1892SOL     OW 7572   7.647   5.832   7.075
 1892SOL    HW1 7573   7.663   5.883   7.155
 1892SOL    HW2 7574   7.724   5.848   7.020
 1893SOL     OW 7575   5.197  13.571  12.844
 1893SOL    HW1 7576   5.102  13.579  12.853
 1893SOL    HW2 7577   5.210  13.490  12.795
 1894SOL     OW 7578  10.618  11.542  11.106
 1894SOL    HW1 7579  10.526  11.571  11.104
 1894SOL    HW2 7580  10.619  11.461  11.056
 1895SOL     OW 7581   4.479   9.569  13.205
 1895SOL    HW1 7582   4.489   9.644  13.146
 1895SOL    HW2 7583   4.393   9.582  13.245
 1896SOL     OW 7584   0.355   2.586  12.911
 1896SOL    HW1 7585   0.280   2.613  12.858
 1896SOL    HW2 7586   0.374   2.497  12.882
 1897SOL     OW 7587   7.147   4.534  13.343
 1897SOL    HW1 7588   7.070   4.590  13.351
 1897SOL    HW2 7589   7.214   4.592  13.306
 1898SOL     OW 7590  11.133   5.217   1.217
 1898SOL    HW1 7591  11.182   5.233   1.297
 1898SOL    HW2 7592  11.164   5.283   1.155
 1899SOL     OW 7593   2.604  12.425   6.932
 1899SOL    HW1 7594   2.574  12.397   6.846
 1899SOL    HW2 7595   2.576  12.355   6.992
 1900SOL     OW 7596   9.929  11.195  11.792
 1900SOL    HW1 7597  10.015  11.214  11.829
 1900SOL    HW2 7598   9.873  11.177  11.867
 1901SOL     OW 7599   1.480   6.292   9.106
 1901SOL    HW1 7600   1.546   6.249   9.160
 1901SOL    HW2 7601   1.496   6.385   9.117
 1902SOL     OW 7602   3.564  10.345   1.745
 1902SOL    HW1 7603   3.622  10.325   1.818
 1902SOL    HW2 7604   3.590  10.433   1.718
 1903SOL     OW 7605   5.793   8.768  13.833
 1903SOL    HW1 7606   5.875   8.796  13.793
 1903SOL    HW2 7607   5.750   8.716  13.766
 1904SOL     OW 7608  12.019   9.214  11.495
 1904SOL    HW1 7609  11.969   9.287  11.532
 1904SOL    HW2 7610  11.963   9.180  11.424
 1905SOL     OW 7611   4.701   0.261   3.346
 1905SOL    HW1 7612   4.658   0.188   3.390
 1905SOL    HW2 7613   4.690   0.335   3.405
 1906SOL     OW 7614  12.966  10.130   3.176
 1906SOL    HW1 7615  13.011  10.056   3.217
 1906SOL    HW2 7616  12.894  10.150   3.236
 1907SOL     OW 7617   8.431  11.238  10.138
 1907SOL    HW1 7618   8.346  11.209  10.106
 1907SOL    HW2 7619   8.495  11.182  10.093
 1908SOL     OW 7620   1.164   8.378  10.676
 1908SOL    HW1 7621   1.076   8.386  10.713
 1908SOL    HW2 7622   1.163   8.295  10.628
 1909SOL     OW 7623   9.356   4.869   5.302
 1909SOL    HW1 7624   9.374   4.935   5.370
 1909SOL    HW2 7625   9.424   4.803   5.314
 1910SOL     OW 7626  12.802  14.645   0.963
 1910SOL    HW1 7627  12.809  14.691   0.879
 1910SOL    HW2 7628  12.824  14.554   0.942
 1911SOL     OW 7629   0.905   5.844   2.570
 1911SOL    HW1 7630   0.986   5.797   2.589
 1911SOL    HW2 7631   0.917   5.879   2.482
 1912SOL     OW 7632   8.581   3.122  12.126
 1912SOL    HW1 7633   8.535   3.200  12.096
 1912SOL    HW2 7634   8.619   3.085  12.046
 1913SOL     OW 7635   3.101   4.787  13.445
 1913SOL    HW1 7636   3.122   4.876  13.416
 1913SOL    HW2 7637   3.076   4.741  13.365
 1914SOL     OW 7638  10.332   1.088   8.463
 1914SOL    HW1 7639  10.372   1.030   8.398
 1914SOL    HW2 7640  10.248   1.112   8.424
 1915SOL     OW 7641   3.302   0.366   5.969
 1915SOL    HW1 7642   3.274   0.329   5.886
 1915SOL    HW2 7643   3.371   0.307   6.000
 1916SOL     OW 7644   1.508  14.455   7.440
 1916SOL    HW1 7645   1.574  14.523   7.457
 1916SOL    HW2 7646   1.446  14.463   7.513
 1917SOL     OW 7647   6.714   7.151   8.741
 1917SOL    HW1 7648   6.635   7.139   8.795
 1917SOL    HW2 7649   6.738   7.063   8.714
 1918SOL     OW 7650  12.890  13.760  10.312
 1918SOL    HW1 7651  12.920  13.805  10.233
 1918SOL    HW2 7652  12.839  13.826  10.360
 1919SOL     OW 7653   6.475  12.973   9.239
 1919SOL    HW1 7654   6.429  12.984   9.156
 1919SOL    HW2 7655   6.495  13.062   9.268
 1920SOL     OW 7656   1.872   3.489   6.378
 1920SOL    HW1 7657   1.872   3.449   6.291
 1920SOL    HW2 7658   1.946   3.550   6.376
 1921SOL     OW 7659   7.589   6.595   6.578
 1921SOL    HW1 7660   7.573   6.563   6.667
 1921SOL    HW2 7661   7.684   6.585   6.566
 1922SOL     OW 7662   3.373  11.137   6.503
 1922SOL    HW1 7663   3.425  11.067   6.464
 1922SOL    HW2 7664   3.354  11.108   6.592
 1923SOL     OW 7665   1.156   3.659   9.515
 1923SOL    HW1 7666   1.236   3.626   9.556
 1923SOL    HW2 7667   1.129   3.733   9.570
 1924SOL     OW 7668   9.766  12.645   9.802
 1924SOL    HW1 7669   9.747  12.738   9.790
 1924SOL    HW2 7670   9.846  12.630   9.752
 1925SOL     OW 7671   0.044   4.148  10.162
 1925SOL    HW1 7672  14.880   4.229  10.183
 1925SOL    HW2 7673  14.861   4.079  10.176
 1926SOL     OW 7674  12.030   0.448   7.295
 1926SOL    HW1 7675  12.018   0.461   7.201
 1926SOL    HW2 7676  12.100   0.383   7.301
 1927SOL     OW 7677  11.710   3.995  11.269
 1927SOL    HW1 7678  11.663   3.934  11.326
 1927SOL    HW2 7679  11.693   4.081  11.307
 1928SOL     OW 7680   2.796  13.105  14.780
 1928SOL    HW1 7681   2.828  13.024  14.740
 1928SOL    HW2 7682   2.702  13.092  14.791
 1929SOL     OW 7683  12.223  12.345   7.242
 1929SOL    HW1 7684  12.204  12.264   7.195
 1929SOL    HW2 7685  12.247  12.316   7.330
 1930SOL     OW 7686   4.853   0.123   8.221
 1930SOL    HW1 7687   4.863   0.218   8.220
 1930SOL    HW2 7688   4.768   0.107   8.179
 1931SOL     OW 7689   4.276   9.295   2.215
 1931SOL    HW1 7690   4.218   9.360   2.175
 1931SOL    HW2 7691   4.349   9.347   2.250
 1932SOL     OW 7692   1.001  11.428   8.958
 1932SOL    HW1 7693   1.055  11.418   9.036
 1932SOL    HW2 7694   1.029  11.358   8.900
 1933SOL     OW 7695   3.436  14.666  14.240
 1933SOL    HW1 7696   3.490  14.587  14.246
 1933SOL    HW2 7697   3.429  14.697  14.331
 1934SOL     OW 7698  12.883   0.910   5.419
 1934SOL    HW1 7699  12.937   0.949   5.349
 1934SOL    HW2 7700  12.795   0.942   5.402
 1935SOL     OW 7701  12.730   1.333   9.717
 1935SOL    HW1 7702  12.704   1.398   9.782
 1935SOL    HW2 7703  12.808   1.290   9.754
 1936SOL     OW 7704   7.812   8.479  12.370
 1936SOL    HW1 7705   7.720   8.465  12.392
 1936SOL    HW2 7706   7.826   8.429  12.290
 1937SOL     OW 7707   5.403   5.122   2.361
 1937SOL    HW1 7708   5.368   5.112   2.273
 1937SOL    HW2 7709   5.389   5.215   2.381
 1938SOL     OW 7710  12.431  12.668   7.108
 1938SOL    HW1 7711  12.382  12.692   7.187
 1938SOL    HW2 7712  12.373  12.607   7.063
 1939SOL     OW 7713  11.694   8.591  11.397
 1939SOL    HW1 7714  11.672   8.636  11.315
 1939SOL    HW2 7715  11.742   8.513  11.369
 1940SOL     OW 7716  14.495   3.337  11.342
 1940SOL    HW1 7717  14.432   3.290  11.287
 1940SOL    HW2 7718  14.499   3.286  11.423
 1941SOL     OW 7719   7.829   3.806  14.245
 1941SOL    HW1 7720   7.825   3.715  14.216
 1941SOL    HW2 7721   7.743   3.842  14.222
 1942SOL     OW 7722   1.215   2.432  11.040
 1942SOL    HW1 7723   1.192   2.437  10.947
 1942SOL    HW2 7724   1.216   2.524  11.069
 1943SOL     OW 7725   8.330   5.457   2.724
 1943SOL    HW1 7726   8.337   5.507   2.806
 1943SOL    HW2 7727   8.384   5.506   2.662
 1944SOL     OW 7728   5.509  13.666   7.519
 1944SOL    HW1 7729   5.581  13.724   7.542
 1944SOL    HW2 7730   5.481  13.627   7.602
 1945SOL     OW 7731  13.102  13.705  12.135
 1945SOL    HW1 7732  13.041  13.631  12.131
 1945SOL    HW2 7733  13.071  13.758  12.208
 1946SOL     OW 7734   3.261   6.122  10.995
 1946SOL    HW1 7735   3.260   6.135  10.900
 1946SOL    HW2 7736   3.302   6.202  11.030
 1947SOL     OW 7737   3.731  11.162   0.738
 1947SOL    HW1 7738   3.826  11.170   0.733
 1947SOL    HW2 7739   3.716  11.101   0.810
 1948SOL     OW 7740   3.340   9.027   5.987
 1948SOL    HW1 7741   3.330   9.034   6.082
 1948SOL    HW2 7742   3.387   8.945   5.974
 1949SOL     OW 7743  11.838   9.961   8.070
 1949SOL    HW1 7744  11.883   9.988   8.150
 1949SOL    HW2 7745  11.745   9.967   8.092
 1950SOL     OW 7746   4.700   1.012   1.893
 1950SOL    HW1 7747   4.668   0.923   1.881
 1950SOL    HW2 7748   4.669   1.060   1.816
 1951SOL     OW 7749   5.581  13.194   9.993
 1951SOL    HW1 7750   5.526  13.136   9.942
 1951SOL    HW2 7751   5.620  13.137  10.060
 1952SOL     OW 7752   5.523   0.619  13.590
 1952SOL    HW1 7753   5.546   0.552  13.654
 1952SOL    HW2 7754   5.601   0.673  13.582
 1953SOL     OW 7755   3.350  13.596   2.801
 1953SOL    HW1 7756   3.296  13.596   2.880
 1953SOL    HW2 7757   3.307  13.658   2.743
 1954SOL     OW 7758   6.460  10.635   2.654
 1954SOL    HW1 7759   6.517  10.619   2.729
 1954SOL    HW2 7760   6.515  10.683   2.592
 1955SOL     OW 7761   1.592  14.857  11.942
 1955SOL    HW1 7762   1.664   0.038  11.944
 1955SOL    HW2 7763   1.551  14.870  11.856
 1956SOL     OW 7764   6.413   7.455   1.925
 1956SOL    HW1 7765   6.451   7.505   1.853
 1956SOL    HW2 7766   6.442   7.501   2.004
 1957SOL     OW 7767  11.300   6.317   6.118
 1957SOL    HW1 7768  11.366   6.362   6.170
 1957SOL    HW2 7769  11.346   6.240   6.082
 1958SOL     OW 7770   4.267   2.776   7.988
 1958SOL    HW1 7771   4.207   2.797   8.060
 1958SOL    HW2 7772   4.322   2.706   8.022
 1959SOL     OW 7773  12.639   2.238   6.802
 1959SOL    HW1 7774  12.576   2.277   6.863
 1959SOL    HW2 7775  12.680   2.313   6.758
 1960SOL     OW 7776   0.709  11.213  10.578
 1960SOL    HW1 7777   0.693  11.302  10.610
 1960SOL    HW2 7778   0.731  11.163  10.656
 1961SOL     OW 7779   1.506  12.161   8.069
 1961SOL    HW1 7780   1.569  12.226   8.039
 1961SOL    HW2 7781   1.501  12.097   7.997
 1962SOL     OW 7782   8.218  13.506  14.220
 1962SOL    HW1 7783   8.188  13.511  14.129
 1962SOL    HW2 7784   8.253  13.593  14.238
 1963SOL     OW 7785   1.313   9.021   1.984
 1963SOL    HW1 7786   1.378   8.973   1.933
 1963SOL    HW2 7787   1.263   8.953   2.029
 1964SOL     OW 7788   3.220   7.899   0.754
 1964SOL    HW1 7789   3.197   7.870   0.842
 1964SOL    HW2 7790   3.208   7.994   0.756
 1965SOL     OW 7791   0.223   9.357   7.629
 1965SOL    HW1 7792   0.219   9.268   7.595
 1965SOL    HW2 7793   0.133   9.378   7.653
 1966SOL     OW 7794  10.365   2.788   3.678
 1966SOL    HW1 7795  10.460   2.783   3.687
 1966SOL    HW2 7796  10.351   2.863   3.620
 1967SOL     OW 7797   5.927  13.897   3.252
 1967SOL    HW1 7798   5.843  13.919   3.211
 1967SOL    HW2 7799   5.920  13.932   3.341
 1968SOL     OW 7800   9.110   2.836   8.474
 1968SOL    HW1 7801   9.086   2.787   8.395
 1968SOL    HW2 7802   9.188   2.792   8.507
 1969SOL     OW 7803   1.956   7.739  11.092
 1969SOL    HW1 7804   1.959   7.727  11.187
 1969SOL    HW2 7805   1.884   7.683  11.063
 1970SOL     OW 7806  12.238   5.028   9.911
 1970SOL    HW1 7807  12.263   5.052  10.000
 1970SOL    HW2 7808  12.234   4.932   9.913
 1971SOL     OW 7809   9.512   0.509   4.671
 1971SOL    HW1 7810   9.511   0.455   4.592
 1971SOL    HW2 7811   9.578   0.576   4.652
 1972SOL     OW 7812   3.442   1.549   8.868
 1972SOL    HW1 7813   3.421   1.466   8.911
 1972SOL    HW2 7814   3.378   1.557   8.798
 1973SOL     OW 7815  11.698   5.426   0.810
 1973SOL    HW1 7816  11.747   5.504   0.833
 1973SOL    HW2 7817  11.606   5.450   0.825
 1974SOL     OW 7818  14.739   8.827  11.544
 1974SOL    HW1 7819  14.724   8.882  11.620
 1974SOL    HW2 7820  14.701   8.742  11.568
 1975SOL     OW 7821   1.384   1.839   5.485
 1975SOL    HW1 7822   1.299   1.842   5.441
 1975SOL    HW2 7823   1.412   1.748   5.478
 1976SOL     OW 7824   0.032   0.732  11.084
 1976SOL    HW1 7825   0.036   0.823  11.112
 1976SOL    HW2 7826   0.099   0.688  11.136
 1977SOL     OW 7827   9.507   1.288   4.217
 1977SOL    HW1 7828   9.416   1.310   4.237
 1977SOL    HW2 7829   9.507   1.193   4.204
 1978SOL     OW 7830   2.140   5.781   1.342
 1978SOL    HW1 7831   2.083   5.727   1.397
 1978SOL    HW2 7832   2.179   5.845   1.403
 1979SOL     OW 7833   7.942   7.077  14.572
 1979SOL    HW1 7834   7.856   7.113  14.552
 1979SOL    HW2 7835   7.928   7.025  14.651
 1980SOL     OW 7836   9.914   4.991   0.975
 1980SOL    HW1 7837   9.820   4.977   0.974
 1980SOL    HW2 7838   9.949   4.927   0.913
 1981SOL     OW 7839   5.101   0.614  13.990
 1981SOL    HW1 7840   5.180   0.649  14.031
 1981SOL    HW2 7841   5.125   0.526  13.962
 1982SOL     OW 7842   5.391   4.400   4.018
 1982SOL    HW1 7843   5.378   4.308   4.042
 1982SOL    HW2 7844   5.423   4.441   4.098
 1983SOL     OW 7845  14.062  11.283  11.647
 1983SOL    HW1 7846  13.998  11.284  11.576
 1983SOL    HW2 7847  14.147  11.284  11.602
 1984SOL     OW 7848   5.081   9.765   8.027
 1984SOL    HW1 7849   5.078   9.677   8.063
 1984SOL    HW2 7850   4.998   9.775   7.981
 1985SOL     OW 7851   6.322   9.956   3.363
 1985SOL    HW1 7852   6.265  10.033   3.352
 1985SOL    HW2 7853   6.273   9.900   3.424
 1986SOL     OW 7854  14.872   2.953   7.199
 1986SOL    HW1 7855  14.796   2.972   7.144
 1986SOL    HW2 7856  14.838   2.897   7.268
 1987SOL     OW 7857   5.963   2.305   1.002
 1987SOL    HW1 7858   6.050   2.299   0.962
 1987SOL    HW2 7859   5.915   2.366   0.946
 1988SOL     OW 7860   5.420   2.508  10.359
 1988SOL    HW1 7861   5.376   2.531  10.278
 1988SOL    HW2 7862   5.505   2.552  10.354
 1989SOL     OW 7863   7.493   1.958   7.082
 1989SOL    HW1 7864   7.525   1.874   7.050
 1989SOL    HW2 7865   7.569   1.999   7.123
 1990SOL     OW 7866   5.431   1.971   9.186
 1990SOL    HW1 7867   5.505   1.948   9.130
 1990SOL    HW2 7868   5.470   2.018   9.260
 1991SOL     OW 7869   8.233   3.977   0.120
 1991SOL    HW1 7870   8.139   3.982   0.139
 1991SOL    HW2 7871   8.267   3.915   0.184
 1992SOL     OW 7872  10.127   9.386   1.635
 1992SOL    HW1 7873  10.142   9.440   1.713
 1992SOL    HW2 7874  10.061   9.322   1.662
 1993SOL     OW 7875   2.783  10.965  10.221
 1993SOL    HW1 7876   2.878  10.960  10.215
 1993SOL    HW2 7877   2.765  11.049  10.262
 1994SOL     OW 7878   9.666   0.934   4.626
 1994SOL    HW1 7879   9.686   0.843   4.605
 1994SOL    HW2 7880   9.750   0.979   4.617
 1995SOL     OW 7881  14.735   0.705   1.758
 1995SOL    HW1 7882  14.680   0.628   1.743
 1995SOL    HW2 7883  14.787   0.683   1.835
 1996SOL     OW 7884  13.679   0.878   3.509
 1996SOL    HW1 7885  13.610   0.867   3.444
 1996SOL    HW2 7886  13.705   0.789   3.533
 1997SOL     OW 7887   2.352   1.978   1.734
 1997SOL    HW1 7888   2.388   1.974   1.646
 1997SOL    HW2 7889   2.427   1.999   1.790
 1998SOL     OW 7890   1.701  13.392   5.839
 1998SOL    HW1 7891   1.606  13.384   5.836
 1998SOL    HW2 7892   1.732  13.336   5.768
 1999SOL     OW 7893   9.651   9.305  12.833
 1999SOL    HW1 7894   9.571   9.304  12.780
 1999SOL    HW2 7895   9.698   9.382  12.801
 2000SOL     OW 7896   6.783   7.613   0.309
 2000SOL    HW1 7897   6.826   7.603   0.223
 2000SOL    HW2 7898   6.799   7.705   0.333
 2001SOL     OW 7899  12.229   0.469   0.521
 2001SOL    HW1 7900  12.273   0.449   0.604
 2001SOL    HW2 7901  12.137   0.450   0.538
 2002SOL     OW 7902   3.869  14.114   7.953
 2002SOL    HW1 7903   3.932  14.117   7.881
 2002SOL    HW2 7904   3.797  14.060   7.918
 2003SOL     OW 7905  10.526   5.508   1.328
 2003SOL    HW1 7906  10.558   5.536   1.414
 2003SOL    HW2 7907  10.561   5.572   1.267
 2004SOL     OW 7908   2.106  11.642   4.895
 2004SOL    HW1 7909   2.192  11.610   4.869
 2004SOL    HW2 7910   2.102  11.731   4.862
 2005SOL     OW 7911   1.680  12.325   1.460
 2005SOL    HW1 7912   1.615  12.302   1.393
 2005SOL    HW2 7913   1.670  12.420   1.471
 2006SOL     OW 7914   1.337   8.212   9.280
 2006SOL    HW1 7915   1.367   8.255   9.360
 2006SOL    HW2 7916   1.270   8.150   9.309
 2007SOL     OW 7917   1.013   6.129   0.509
 2007SOL    HW1 7918   0.955   6.124   0.433
 2007SOL    HW2 7919   0.955   6.154   0.581
 2008SOL     OW 7920  13.335  11.428  10.403
 2008SOL    HW1 7921  13.292  11.344  10.386
 2008SOL    HW2 7922  13.313  11.448  10.494
 2009SOL     OW 7923  14.579   3.102   6.866
 2009SOL    HW1 7924  14.543   3.055   6.791
 2009SOL    HW2 7925  14.502   3.139   6.910
 2010SOL     OW 7926   9.737  12.786  10.720
 2010SOL    HW1 7927   9.678  12.794  10.644
 2010SOL    HW2 7928   9.680  12.799  10.796
 2011SOL     OW 7929   1.049  11.471  12.463
 2011SOL    HW1 7930   0.972  11.421  12.440
 2011SOL    HW2 7931   1.057  11.461  12.558
 2012SOL     OW 7932   2.507   2.942   2.169
 2012SOL    HW1 7933   2.523   3.034   2.148
 2012SOL    HW2 7934   2.567   2.893   2.113
 2013SOL     OW 7935   0.203   5.067   7.145
 2013SOL    HW1 7936   0.110   5.055   7.165
 2013SOL    HW2 7937   0.205   5.117   7.064
 2014SOL     OW 7938  14.095   3.679   1.642
 2014SOL    HW1 7939  14.013   3.661   1.689
 2014SOL    HW2 7940  14.160   3.625   1.687
 2015SOL     OW 7941   9.874  10.439  14.217
 2015SOL    HW1 7942   9.874  10.358  14.267
 2015SOL    HW2 7943   9.941  10.493  14.258
 2016SOL     OW 7944   8.146   0.406   6.704
 2016SOL    HW1 7945   8.190   0.425   6.621
 2016SOL    HW2 7946   8.116   0.491   6.735
 2017SOL     OW 7947  10.552   2.104   9.006
 2017SOL    HW1 7948  10.560   2.109   9.101
 2017SOL    HW2 7949  10.638   2.130   8.973
 2018SOL     OW 7950  14.311  12.982  10.913
 2018SOL    HW1 7951  14.341  12.962  10.824
 2018SOL    HW2 7952  14.215  12.983  10.906
 2019SOL     OW 7953   7.153  11.853   8.437
 2019SOL    HW1 7954   7.082  11.790   8.450
 2019SOL    HW2 7955   7.193  11.863   8.523
 2020SOL     OW 7956   7.170  11.534  11.584
 2020SOL    HW1 7957   7.194  11.619  11.548
 2020SOL    HW2 7958   7.094  11.552  11.639
 2021SOL     OW 7959   2.857  12.140  13.464
 2021SOL    HW1 7960   2.857  12.155  13.558
 2021SOL    HW2 7961   2.830  12.224  13.426
 2022SOL     OW 7962  11.580  11.653   3.327
 2022SOL    HW1 7963  11.514  11.591   3.358
 2022SOL    HW2 7964  11.660  11.626   3.373
 2023SOL     OW 7965   2.081  12.832  14.171
 2023SOL    HW1 7966   2.055  12.811  14.261
 2023SOL    HW2 7967   2.031  12.912  14.151
 2024SOL     OW 7968   2.631   1.916   4.251
 2024SOL    HW1 7969   2.559   1.958   4.204
 2024SOL    HW2 7970   2.706   1.974   4.235
 2025SOL     OW 7971  10.029  11.584  13.885
 2025SOL    HW1 7972  10.096  11.525  13.851
 2025SOL    HW2 7973  10.014  11.647  13.814
 2026SOL     OW 7974   4.112   2.358  10.242
 2026SOL    HW1 7975   4.101   2.316  10.157
 2026SOL    HW2 7976   4.203   2.390  10.241
 2027SOL     OW 7977  13.223   9.809  13.727
 2027SOL    HW1 7978  13.160   9.740  13.749
 2027SOL    HW2 7979  13.173   9.890  13.730
 2028SOL     OW 7980   5.255   5.092   3.173
 2028SOL    HW1 7981   5.175   5.063   3.130
 2028SOL    HW2 7982   5.225   5.137   3.252
 2029SOL     OW 7983   7.721   9.031   0.027
 2029SOL    HW1 7984   7.689   9.113  14.872
 2029SOL    HW2 7985   7.667   8.963  14.868
 2030SOL     OW 7986   4.184   9.304   7.396
 2030SOL    HW1 7987   4.115   9.305   7.330
 2030SOL    HW2 7988   4.265   9.302   7.347
 2031SOL     OW 7989   2.480   8.238  14.645
 2031SOL    HW1 7990   2.463   8.160  14.593
 2031SOL    HW2 7991   2.445   8.310  14.593
 2032SOL     OW 7992   0.698   9.586  10.604
 2032SOL    HW1 7993   0.702   9.492  10.620
 2032SOL    HW2 7994   0.727   9.626  10.686
 2033SOL     OW 7995  13.661   5.925   6.976
 2033SOL    HW1 7996  13.714   5.875   7.038
 2033SOL    HW2 7997  13.592   5.865   6.948
 2034SOL     OW 7998   0.103  10.019  11.134
 2034SOL    HW1 7999   0.131  10.033  11.225
 2034SOL    HW2 8000   0.173   9.967  11.095
 2035SOL     OW 8001   1.712   1.842   1.694
 2035SOL    HW1 8002   1.651   1.768   1.695
 2035SOL    HW2 8003   1.718   1.870   1.786
 2036SOL     OW 8004  14.663   7.071  11.378
 2036SOL    HW1 8005  14.599   7.092  11.310
 2036SOL    HW2 8006  14.648   7.138  11.445
 2037SOL     OW 8007   3.495   1.050   2.405
 2037SOL    HW1 8008   3.564   1.111   2.433
 2037SOL    HW2 8009   3.537   0.964   2.406
 2038SOL     OW 8010   0.782   1.532   4.176
 2038SOL    HW1 8011   0.726   1.557   4.249
 2038SOL    HW2 8012   0.769   1.437   4.168
 2039SOL     OW 8013   0.289   6.043   4.036
 2039SOL    HW1 8014   0.199   6.057   4.008
 2039SOL    HW2 8015   0.281   5.993   4.117
 2040SOL     OW 8016   8.790   6.717   8.630
 2040SOL    HW1 8017   8.711   6.691   8.582
 2040SOL    HW2 8018   8.802   6.646   8.694
 2041SOL     OW 8019   1.909  10.084   1.891
 2041SOL    HW1 8020   1.860  10.133   1.956
 2041SOL    HW2 8021   1.841  10.039   1.839
 2042SOL     OW 8022   2.442  11.369  11.375
 2042SOL    HW1 8023   2.393  11.439  11.418
 2042SOL    HW2 8024   2.382  11.295  11.373
 2043SOL     OW 8025   6.986   0.676   0.962
 2043SOL    HW1 8026   7.040   0.689   1.040
 2043SOL    HW2 8027   6.900   0.650   0.995
 2044SOL     OW 8028   4.025  13.720   1.587
 2044SOL    HW1 8029   3.975  13.792   1.627
 2044SOL    HW2 8030   4.075  13.762   1.517
 2045SOL     OW 8031  11.904  12.391   5.017
 2045SOL    HW1 8032  11.959  12.400   5.095
 2045SOL    HW2 8033  11.895  12.481   4.985
 2046SOL     OW 8034   8.222  12.875   2.757
 2046SOL    HW1 8035   8.132  12.849   2.775
 2046SOL    HW2 8036   8.274  12.830   2.823
 2047SOL     OW 8037   8.750   1.743  10.337
 2047SOL    HW1 8038   8.738   1.693  10.418
 2047SOL    HW2 8039   8.838   1.779  10.345
 2048SOL     OW 8040  14.058  10.589   1.605
 2048SOL    HW1 8041  14.089  10.551   1.687
 2048SOL    HW2 8042  14.135  10.587   1.547
 2049SOL     OW 8043   0.891  13.929   5.326
 2049SOL    HW1 8044   0.881  13.952   5.418
 2049SOL    HW2 8045   0.907  14.013   5.281
 2050SOL     OW 8046   8.660   7.005   1.759
 2050SOL    HW1 8047   8.659   6.986   1.853
 2050SOL    HW2 8048   8.636   7.097   1.753
 2051SOL     OW 8049   4.971   6.309   0.601
 2051SOL    HW1 8050   5.064   6.291   0.585
 2051SOL    HW2 8051   4.940   6.232   0.649
 2052SOL     OW 8052  13.561  11.134  12.734
 2052SOL    HW1 8053  13.543  11.167  12.822
 2052SOL    HW2 8054  13.607  11.051  12.748
 2053SOL     OW 8055   2.554  12.225   0.037
 2053SOL    HW1 8056   2.478  12.246   0.091
 2053SOL    HW2 8057   2.596  12.309   0.021
 2054SOL     OW 8058   7.349   7.414  11.947
 2054SOL    HW1 8059   7.360   7.326  11.983
 2054SOL    HW2 8060   7.430   7.459  11.970
 2055SOL     OW 8061   5.093   4.183   7.550
 2055SOL    HW1 8062   5.076   4.263   7.499
 2055SOL    HW2 8063   5.013   4.171   7.602
 2056SOL     OW 8064   1.888   5.415  11.859
 2056SOL    HW1 8065   1.937   5.487  11.900
 2056SOL    HW2 8066   1.814   5.458  11.817
 2057SOL     OW 8067   6.142  12.463   4.959
 2057SOL    HW1 8068   6.089  12.409   4.900
 2057SOL    HW2 8069   6.078  12.515   5.008
 2058SOL     OW 8070   3.303   8.413   4.799
 2058SOL    HW1 8071   3.339   8.420   4.711
 2058SOL    HW2 8072   3.297   8.319   4.816
 2059SOL     OW 8073  14.085   6.881  10.233
 2059SOL    HW1 8074  14.166   6.924  10.262
 2059SOL    HW2 8075  14.100   6.788  10.248
 2060SOL     OW 8076  13.928   6.570   0.828
 2060SOL    HW1 8077  13.896   6.486   0.793
 2060SOL    HW2 8078  13.933   6.556   0.923
 2061SOL     OW 8079   2.712  12.239   5.066
 2061SOL    HW1 8080   2.763  12.319   5.055
 2061SOL    HW2 8081   2.750  12.178   5.003
 2062SOL     OW 8082   0.243  13.826   7.042
 2062SOL    HW1 8083   0.208  13.744   7.007
 2062SOL    HW2 8084   0.200  13.835   7.127
 2063SOL     OW 8085  13.657  10.037   1.029
 2063SOL    HW1 8086  13.600  10.107   1.061
 2063SOL    HW2 8087  13.736  10.081   0.998
 2064SOL     OW 8088   8.835   2.779   9.842
 2064SOL    HW1 8089   8.766   2.748   9.783
 2064SOL    HW2 8090   8.796   2.774   9.929
 2065SOL     OW 8091   0.914   4.535  12.036
 2065SOL    HW1 8092   0.858   4.536  11.959
 2065SOL    HW2 8093   0.894   4.451  12.079
 2066SOL     OW 8094   0.439   1.034   0.180
 2066SOL    HW1 8095   0.434   1.097   0.107
 2066SOL    HW2 8096   0.350   1.000   0.187
 2067SOL     OW 8097  10.490   2.383  13.038
 2067SOL    HW1 8098  10.411   2.331  13.024
 2067SOL    HW2 8099  10.497   2.391  13.133
 2068SOL     OW 8100  10.163   8.371  13.067
 2068SOL    HW1 8101  10.133   8.311  13.135
 2068SOL    HW2 8102  10.246   8.333  13.037
 2069SOL     OW 8103  10.355   4.418  12.128
 2069SOL    HW1 8104  10.286   4.480  12.105
 2069SOL    HW2 8105  10.415   4.418  12.053
 2070SOL     OW 8106   0.090   5.441   0.991
 2070SOL    HW1 8107   0.093   5.529   0.955
 2070SOL    HW2 8108   0.148   5.443   1.067
 2071SOL     OW 8109  11.425   8.230   5.970
 2071SOL    HW1 8110  11.480   8.162   6.011
 2071SOL    HW2 8111  11.422   8.301   6.034
 2072SOL     OW 8112   0.951   0.046  12.413
 2072SOL    HW1 8113   0.903   0.090  12.343
 2072SOL    HW2 8114   0.957  14.837  12.384
 2073SOL     OW 8115   2.696  13.993  13.472
 2073SOL    HW1 8116   2.660  13.947  13.396
 2073SOL    HW2 8117   2.650  14.077  13.473
 2074SOL     OW 8118  11.185   3.934   3.146
 2074SOL    HW1 8119  11.110   3.994   3.142
 2074SOL    HW2 8120  11.193   3.912   3.238
 2075SOL     OW 8121  10.874   0.049  13.981
 2075SOL    HW1 8122  10.968   0.033  13.976
 2075SOL    HW2 8123  10.862   0.100  14.061
 2076SOL     OW 8124  13.321   2.138   3.578
 2076SOL    HW1 8125  13.338   2.157   3.670
 2076SOL    HW2 8126  13.227   2.151   3.568
 2077SOL     OW 8127   1.587   3.581   2.850
 2077SOL    HW1 8128   1.494   3.603   2.847
 2077SOL    HW2 8129   1.599   3.538   2.935
 2078SOL     OW 8130  14.121  12.327   1.661
 2078SOL    HW1 8131  14.107  12.380   1.583
 2078SOL    HW2 8132  14.033  12.312   1.695
 2079SOL     OW 8133   0.297   3.299  11.813
 2079SOL    HW1 8134   0.249   3.313  11.894
 2079SOL    HW2 8135   0.355   3.225  11.832
 2080SOL     OW 8136   8.386   2.005   9.864
 2080SOL    HW1 8137   8.460   1.952   9.835
 2080SOL    HW2 8138   8.346   1.954   9.935
 2081SOL     OW 8139   5.466   0.792  10.932
 2081SOL    HW1 8140   5.527   0.753  10.994
 2081SOL    HW2 8141   5.383   0.749  10.950
 2082SOL     OW 8142   1.655   6.245   4.947
 2082SOL    HW1 8143   1.596   6.170   4.937
 2082SOL    HW2 8144   1.725   6.228   4.884
 2083SOL     OW 8145   7.684  10.708  12.456
 2083SOL    HW1 8146   7.644  10.763  12.388
 2083SOL    HW2 8147   7.674  10.618  12.423
 2084SOL     OW 8148   0.708  12.296  12.032
 2084SOL    HW1 8149   0.659  12.377  12.039
 2084SOL    HW2 8150   0.797  12.319  12.056
 2085SOL     OW 8151   5.835   8.289  11.257
 2085SOL    HW1 8152   5.831   8.355  11.188
 2085SOL    HW2 8153   5.894   8.222  11.222
 2086SOL     OW 8154  10.659   4.356   2.600
 2086SOL    HW1 8155  10.668   4.337   2.693
 2086SOL    HW2 8156  10.578   4.407   2.593
 2087SOL     OW 8157  13.448  11.804   9.503
 2087SOL    HW1 8158  13.373  11.819   9.561
 2087SOL    HW2 8159  13.466  11.890   9.465
 2088SOL     OW 8160  14.220  13.929   8.189
 2088SOL    HW1 8161  14.176  13.963   8.266
 2088SOL    HW2 8162  14.196  13.989   8.119
 2089SOL     OW 8163   7.490   3.825  12.224
 2089SOL    HW1 8164   7.408   3.820  12.174
 2089SOL    HW2 8165   7.556   3.851  12.160
 2090SOL     OW 8166   6.076  11.915   8.587
 2090SOL    HW1 8167   6.114  11.942   8.503
 2090SOL    HW2 8168   6.098  11.822   8.595
 2091SOL     OW 8169   9.218  14.447  12.798
 2091SOL    HW1 8170   9.308  14.468  12.774
 2091SOL    HW2 8171   9.185  14.526  12.841
 2092SOL     OW 8172   2.394  14.221   5.182
 2092SOL    HW1 8173   2.341  14.223   5.262
 2092SOL    HW2 8174   2.411  14.313   5.163
 2093SOL     OW 8175   8.098   0.559  11.684
 2093SOL    HW1 8176   8.149   0.479  11.696
 2093SOL    HW2 8177   8.048   0.568  11.765
 2094SOL     OW 8178   6.485   9.506   6.741
 2094SOL    HW1 8179   6.558   9.452   6.770
 2094SOL    HW2 8180   6.493   9.586   6.793
 2095SOL     OW 8181   0.916   3.025   2.034
 2095SOL    HW1 8182   0.949   3.083   1.965
 2095SOL    HW2 8183   0.953   2.939   2.012
 2096SOL     OW 8184   1.728   1.111   7.265
 2096SOL    HW1 8185   1.710   1.167   7.190
 2096SOL    HW2 8186   1.648   1.060   7.276
 2097SOL     OW 8187   2.654   6.877   8.648
 2097SOL    HW1 8188   2.721   6.876   8.579
 2097SOL    HW2 8189   2.700   6.851   8.727
 2098SOL     OW 8190  13.313   0.908   2.640
 2098SOL    HW1 8191  13.320   0.815   2.619
 2098SOL    HW2 8192  13.404   0.937   2.649
 2099SOL     OW 8193   7.087   6.951  11.533
 2099SOL    HW1 8194   7.034   7.030  11.539
 2099SOL    HW2 8195   7.045   6.899  11.465
 2100SOL     OW 8196   2.895   0.545  13.965
 2100SOL    HW1 8197   2.940   0.589  14.038
 2100SOL    HW2 8198   2.813   0.514  14.003
 2101SOL     OW 8199  12.957  13.797   7.659
 2101SOL    HW1 8200  13.042  13.842   7.665
 2101SOL    HW2 8201  12.932  13.779   7.749
 2102SOL     OW 8202   1.295  13.023   2.464
 2102SOL    HW1 8203   1.221  12.968   2.489
 2102SOL    HW2 8204   1.311  13.002   2.372
 2103SOL     OW 8205   6.998   7.410   4.758
 2103SOL    HW1 8206   6.990   7.407   4.662
 2103SOL    HW2 8207   6.971   7.499   4.781
 2104SOL     OW 8208  14.189   6.635   3.152
 2104SOL    HW1 8209  14.136   6.622   3.074
 2104SOL    HW2 8210  14.279   6.618   3.123
 2105SOL     OW 8211  11.184   0.219   3.689
 2105SOL    HW1 8212  11.246   0.270   3.741
 2105SOL    HW2 8213  11.237   0.179   3.620
 2106SOL     OW 8214   5.274   2.446  12.372
 2106SOL    HW1 8215   5.179   2.444  12.382
 2106SOL    HW2 8216   5.293   2.374  12.311
 2107SOL     OW 8217   6.494   1.258  10.450
 2107SOL    HW1 8218   6.424   1.313  10.415
 2107SOL    HW2 8219   6.454   1.212  10.524
 2108SOL     OW 8220  12.546  13.341  11.470
 2108SOL    HW1 8221  12.458  13.339  11.509
 2108SOL    HW2 8222  12.568  13.248  11.457
 2109SOL     OW 8223   4.002   1.341   9.944
 2109SOL    HW1 8224   4.014   1.320   9.851
 2109SOL    HW2 8225   4.042   1.267   9.990
 2110SOL     OW 8226   3.464   5.111  13.170
 2110SOL    HW1 8227   3.422   5.040  13.218
 2110SOL    HW2 8228   3.418   5.190  13.198
 2111SOL     OW 8229   8.249  10.845  12.268
 2111SOL    HW1 8230   8.167  10.894  12.260
 2111SOL    HW2 8231   8.280  10.835  12.178
 2112SOL     OW 8232   5.553   6.472  10.234
 2112SOL    HW1 8233   5.505   6.412  10.177
 2112SOL    HW2 8234   5.523   6.450  10.322
 2113SOL     OW 8235  13.052   2.460   3.867
 2113SOL    HW1 8236  12.965   2.444   3.903
 2113SOL    HW2 8237  13.037   2.473   3.773
 2114SOL     OW 8238  13.216  11.300  10.003
 2114SOL    HW1 8239  13.133  11.276   9.962
 2114SOL    HW2 8240  13.192  11.368  10.066
 2115SOL     OW 8241   4.213   1.709   2.305
 2115SOL    HW1 8242   4.231   1.701   2.212
 2115SOL    HW2 8243   4.119   1.730   2.310
 2116SOL     OW 8244   0.786   5.069   8.961
 2116SOL    HW1 8245   0.829   5.080   9.046
 2116SOL    HW2 8246   0.791   4.976   8.943
 2117SOL     OW 8247   8.410   5.802   2.667
 2117SOL    HW1 8248   8.463   5.851   2.605
 2117SOL    HW2 8249   8.473   5.755   2.722
 2118SOL     OW 8250  14.742  14.482  10.132
 2118SOL    HW1 8251  14.786  14.490  10.048
 2118SOL    HW2 8252  14.656  14.523  10.119
 2119SOL     OW 8253   2.797   4.989   5.122
 2119SOL    HW1 8254   2.794   5.079   5.092
 2119SOL    HW2 8255   2.761   4.938   5.049
 2120SOL     OW 8256   6.380  11.219  13.784
 2120SOL    HW1 8257   6.432  11.298  13.793
 2120SOL    HW2 8258   6.360  11.193  13.874
 2121SOL     OW 8259   8.418  11.826  14.239
 2121SOL    HW1 8260   8.415  11.739  14.199
 2121SOL    HW2 8261   8.507  11.857  14.224
 2122SOL     OW 8262  14.664   4.669  12.159
 2122SOL    HW1 8263  14.749   4.651  12.119
 2122SOL    HW2 8264  14.681   4.666  12.253
 2123SOL     OW 8265   6.385   4.293   1.549
 2123SOL    HW1 8266   6.404   4.235   1.623
 2123SOL    HW2 8267   6.350   4.372   1.588
 2124SOL     OW 8268   2.233   3.973   8.363
 2124SOL    HW1 8269   2.272   4.007   8.444
 2124SOL    HW2 8270   2.306   3.935   8.315
 2125SOL     OW 8271   9.235  14.849   7.545
 2125SOL    HW1 8272   9.210   0.038   7.486
 2125SOL    HW2 8273   9.330  14.841   7.534
 2126SOL     OW 8274  14.677   4.559   1.618
 2126SOL    HW1 8275  14.695   4.601   1.701
 2126SOL    HW2 8276  14.592   4.516   1.630
 2127SOL     OW 8277  14.266   1.315   2.449
 2127SOL    HW1 8278  14.183   1.288   2.410
 2127SOL    HW2 8279  14.261   1.411   2.452
 2128SOL     OW 8280   4.852  10.438  11.292
 2128SOL    HW1 8281   4.812  10.498  11.229
 2128SOL    HW2 8282   4.809  10.354  11.274
 2129SOL     OW 8283   2.470  12.074   1.382
 2129SOL    HW1 8284   2.554  12.095   1.423
 2129SOL    HW2 8285   2.435  12.002   1.434
 2130SOL     OW 8286   3.490   5.742  12.267
 2130SOL    HW1 8287   3.523   5.769  12.181
 2130SOL    HW2 8288   3.407   5.698  12.247
 2131SOL     OW 8289  13.416  13.848   6.326
 2131SOL    HW1 8290  13.340  13.852   6.385
 2131SOL    HW2 8291  13.486  13.891   6.375
 2132SOL     OW 8292  11.202   9.601   3.936
 2132SOL    HW1 8293  11.138   9.559   3.994
 2132SOL    HW2 8294  11.190   9.558   3.852
 2133SOL     OW 8295   7.990  13.300  14.184
 2133SOL    HW1 8296   8.051  13.343  14.244
 2133SOL    HW2 8297   8.043  13.280  14.106
 2134SOL     OW 8298   1.414   9.347   1.063
 2134SOL    HW1 8299   1.370   9.381   1.140
 2134SOL    HW2 8300   1.348   9.351   0.994
 2135SOL     OW 8301   8.064   6.366  12.171
 2135SOL    HW1 8302   8.088   6.441  12.117
 2135SOL    HW2 8303   8.144   6.342  12.217
 2136SOL     OW 8304   4.019   7.669   9.658
 2136SOL    HW1 8305   4.022   7.604   9.588
 2136SOL    HW2 8306   3.952   7.731   9.630
 2137SOL     OW 8307  12.877   9.185   4.923
 2137SOL    HW1 8308  12.868   9.091   4.942
 2137SOL    HW2 8309  12.801   9.206   4.870
 2138SOL     OW 8310   4.150  14.442   0.784
 2138SOL    HW1 8311   4.086  14.421   0.716
 2138SOL    HW2 8312   4.234  14.439   0.739
 2139SOL     OW 8313   8.631   2.980   0.942
 2139SOL    HW1 8314   8.550   2.928   0.940
 2139SOL    HW2 8315   8.698   2.918   0.970
 2140SOL     OW 8316   6.469   0.409  12.620
 2140SOL    HW1 8317   6.485   0.439  12.709
 2140SOL    HW2 8318   6.512   0.324  12.615
 2141SOL     OW 8319  14.158   0.203   6.065
 2141SOL    HW1 8320  14.231   0.197   6.004
 2141SOL    HW2 8321  14.101   0.130   6.041
 2142SOL     OW 8322   8.574   5.658  11.098
 2142SOL    HW1 8323   8.530   5.579  11.066
 2142SOL    HW2 8324   8.548   5.665  11.190
 2143SOL     OW 8325   5.781   4.711   4.089
 2143SOL    HW1 8326   5.763   4.697   4.182
 2143SOL    HW2 8327   5.722   4.651   4.044
 2144SOL     OW 8328   3.715  13.591  10.257
 2144SOL    HW1 8329   3.719  13.670  10.202
 2144SOL    HW2 8330   3.778  13.608  10.327
 2145SOL     OW 8331   5.847   3.903   0.528
 2145SOL    HW1 8332   5.918   3.926   0.468
 2145SOL    HW2 8333   5.801   3.832   0.484
 2146SOL     OW 8334   7.520   3.078  12.333
 2146SOL    HW1 8335   7.466   3.154  12.315
 2146SOL    HW2 8336   7.471   3.004  12.297
 2147SOL     OW 8337   6.709   8.586  11.247
 2147SOL    HW1 8338   6.672   8.644  11.313
 2147SOL    HW2 8339   6.644   8.583  11.178
 2148SOL     OW 8340   2.860   4.953   3.583
 2148SOL    HW1 8341   2.831   4.874   3.628
 2148SOL    HW2 8342   2.955   4.943   3.576
 2149SOL     OW 8343   8.935   0.459  13.466
 2149SOL    HW1 8344   8.985   0.418  13.537
 2149SOL    HW2 8345   8.916   0.387  13.405
 2150SOL     OW 8346   3.282   6.692   1.094
 2150SOL    HW1 8347   3.241   6.624   1.146
 2150SOL    HW2 8348   3.251   6.677   1.005
 2151SOL     OW 8349   1.538   7.775   1.739
 2151SOL    HW1 8350   1.470   7.793   1.804
 2151SOL    HW2 8351   1.609   7.735   1.789
 2152SOL     OW 8352  11.481   3.822   3.243
 2152SOL    HW1 8353  11.508   3.755   3.306
 2152SOL    HW2 8354  11.479   3.903   3.294
 2153SOL     OW 8355   7.544   7.989  13.011
 2153SOL    HW1 8356   7.606   7.926  13.050
 2153SOL    HW2 8357   7.563   8.072  13.056
 2154SOL     OW 8358   4.218   8.994   4.811
 2154SOL    HW1 8359   4.244   9.014   4.901
 2154SOL    HW2 8360   4.300   8.987   4.763
 2155SOL     OW 8361   9.665   7.831   6.530
 2155SOL    HW1 8362   9.597   7.764   6.517
 2155SOL    HW2 8363   9.643   7.900   6.468
 2156SOL     OW 8364   0.656   1.078  11.657
 2156SOL    HW1 8365   0.741   1.057  11.695
 2156SOL    HW2 8366   0.676   1.132  11.581
 2157SOL     OW 8367   6.050   1.360  11.390
 2157SOL    HW1 8368   6.020   1.387  11.303
 2157SOL    HW2 8369   5.970   1.339  11.438
 2158SOL     OW 8370   9.988   5.007   9.629
 2158SOL    HW1 8371  10.044   4.995   9.706
 2158SOL    HW2 8372  10.049   5.018   9.556
 2159SOL     OW 8373  12.828  14.295  11.603
 2159SOL    HW1 8374  12.749  14.324  11.649
 2159SOL    HW2 8375  12.827  14.342  11.520
 2160SOL     OW 8376  11.139   8.644   6.242
 2160SOL    HW1 8377  11.099   8.684   6.164
 2160SOL    HW2 8378  11.072   8.585   6.275
 2161SOL     OW 8379   4.262   7.885   4.207
 2161SOL    HW1 8380   4.334   7.895   4.144
 2161SOL    HW2 8381   4.249   7.973   4.242
 2162SOL     OW 8382  11.720   9.481  11.324
 2162SOL    HW1 8383  11.630   9.448  11.323
 2162SOL    HW2 8384  11.714   9.565  11.370
 2163SOL     OW 8385   3.187   8.326   9.159
 2163SOL    HW1 8386   3.160   8.327   9.251
 2163SOL    HW2 8387   3.158   8.411   9.124
 2164SOL     OW 8388  13.854   6.349   1.040
 2164SOL    HW1 8389  13.881   6.356   1.131
 2164SOL    HW2 8390  13.783   6.413   1.031
 2165SOL     OW 8391   7.305   0.299   4.690
 2165SOL    HW1 8392   7.345   0.382   4.665
 2165SOL    HW2 8393   7.255   0.272   4.613
 2166SOL     OW 8394   0.924   2.609  14.221
 2166SOL    HW1 8395   0.844   2.637  14.266
 2166SOL    HW2 8396   0.899   2.606  14.128
 2167SOL     OW 8397   2.125   2.573   1.547
 2167SOL    HW1 8398   2.147   2.604   1.635
 2167SOL    HW2 8399   2.175   2.630   1.488
 2168SOL     OW 8400  11.858  14.807  13.682
 2168SOL    HW1 8401  11.809  14.858  13.617
 2168SOL    HW2 8402  11.946  14.800  13.645
 2169SOL     OW 8403   8.480   2.347   1.533
 2169SOL    HW1 8404   8.555   2.292   1.554
 2169SOL    HW2 8405   8.518   2.430   1.505
 2170SOL     OW 8406   9.054  14.362  13.647
 2170SOL    HW1 8407   8.987  14.383  13.582
 2170SOL    HW2 8408   9.007  14.352  13.729
 2171SOL     OW 8409  11.082   1.102  12.428
 2171SOL    HW1 8410  11.116   1.173  12.374
 2171SOL    HW2 8411  11.142   1.029  12.413
 2172SOL     OW 8412   9.060   9.728   4.532
 2172SOL    HW1 8413   8.982   9.762   4.575
 2172SOL    HW2 8414   9.070   9.782   4.453
 2173SOL     OW 8415  11.586   4.966   8.940
 2173SOL    HW1 8416  11.504   5.004   8.908
 2173SOL    HW2 8417  11.637   5.040   8.972
 2174SOL     OW 8418   4.097   4.861   6.616
 2174SOL    HW1 8419   4.066   4.922   6.550
 2174SOL    HW2 8420   4.118   4.917   6.691
 2175SOL     OW 8421   1.128   3.573  12.500
 2175SOL    HW1 8422   1.190   3.645  12.485
 2175SOL    HW2 8423   1.136   3.518  12.422
 2176SOL     OW 8424   5.008   5.094   3.031
 2176SOL    HW1 8425   4.977   5.004   3.031
 2176SOL    HW2 8426   4.980   5.129   2.946
 2177SOL     OW 8427   5.643  14.608   6.131
 2177SOL    HW1 8428   5.683  14.694   6.119
 2177SOL    HW2 8429   5.644  14.594   6.226
 2178SOL     OW 8430   6.228   8.758   4.841
 2178SOL    HW1 8431   6.146   8.805   4.858
 2178SOL    HW2 8432   6.232   8.691   4.909
 2179SOL     OW 8433   1.809  10.149  14.191
 2179SOL    HW1 8434   1.842  10.107  14.111
 2179SOL    HW2 8435   1.850  10.235  14.192
 2180SOL     OW 8436   2.389   8.390   5.304
 2180SOL    HW1 8437   2.379   8.356   5.215
 2180SOL    HW2 8438   2.460   8.337   5.341
 2181SOL     OW 8439   5.057   6.040  13.914
 2181SOL    HW1 8440   4.990   6.107  13.906
 2181SOL    HW2 8441   5.086   6.046  14.006
 2182SOL     OW 8442   3.785   9.445   6.458
 2182SOL    HW1 8443   3.690   9.444   6.464
 2182SOL    HW2 8444   3.804   9.498   6.380
 2183SOL     OW 8445   6.987  11.866  14.865
 2183SOL    HW1 8446   6.985  11.961  14.874
 2183SOL    HW2 8447   7.073  11.841   0.018
 2184SOL     OW 8448   0.817  11.926   7.227
 2184SOL    HW1 8449   0.813  11.995   7.294
 2184SOL    HW2 8450   0.870  11.857   7.267
 2185SOL     OW 8451   7.488   6.175   4.996
 2185SOL    HW1 8452   7.515   6.183   5.087
 2185SOL    HW2 8453   7.447   6.259   4.975
 2186SOL     OW 8454  12.089   8.326   2.283
 2186SOL    HW1 8455  12.145   8.303   2.357
 2186SOL    HW2 8456  12.006   8.350   2.323
 2187SOL     OW 8457   3.081   1.474   4.687
 2187SOL    HW1 8458   3.153   1.536   4.700
 2187SOL    HW2 8459   3.002   1.527   4.691
 2188SOL     OW 8460  14.302   3.674   0.327
 2188SOL    HW1 8461  14.368   3.735   0.362
 2188SOL    HW2 8462  14.339   3.645   0.243
 2189SOL     OW 8463   7.431   4.622   7.990
 2189SOL    HW1 8464   7.520   4.609   7.955
 2189SOL    HW2 8465   7.419   4.549   8.049
 2190SOL     OW 8466   4.051   9.987   6.168
 2190SOL    HW1 8467   3.990   9.936   6.222
 2190SOL    HW2 8468   3.996  10.055   6.128
 2191SOL     OW 8469   6.719   1.918   2.950
 2191SOL    HW1 8470   6.662   1.938   2.876
 2191SOL    HW2 8471   6.805   1.951   2.924
 2192SOL     OW 8472  12.188   9.409  13.811
 2192SOL    HW1 8473  12.255   9.437  13.873
 2192SOL    HW2 8474  12.162   9.490  13.766
 2193SOL     OW 8475  10.220  13.599   9.866
 2193SOL    HW1 8476  10.222  13.689   9.898
 2193SOL    HW2 8477  10.220  13.607   9.771
 2194SOL     OW 8478   1.924   9.775   5.922
 2194SOL    HW1 8479   1.857   9.819   5.870
 2194SOL    HW2 8480   2.002   9.831   5.912
 2195SOL     OW 8481   8.228   7.786  13.456
 2195SOL    HW1 8482   8.254   7.874  13.485
 2195SOL    HW2 8483   8.243   7.786  13.362
 2196SOL     OW 8484  13.032   3.396   3.083
 2196SOL    HW1 8485  12.963   3.378   3.020
 2196SOL    HW2 8486  13.109   3.416   3.029
 2197SOL     OW 8487   0.430  10.309  14.421
 2197SOL    HW1 8488   0.414  10.241  14.487
 2197SOL    HW2 8489   0.343  10.343  14.400
 2198SOL     OW 8490  13.453   4.132  10.125
 2198SOL    HW1 8491  13.486   4.060  10.179
 2198SOL    HW2 8492  13.425   4.090  10.044
 2199SOL     OW 8493   9.446   5.502  14.015
 2199SOL    HW1 8494   9.447   5.595  13.995
 2199SOL    HW2 8495   9.536   5.482  14.042
 2200SOL     OW 8496  14.856   6.340   2.773
 2200SOL    HW1 8497  14.781   6.371   2.722
 2200SOL    HW2 8498   0.049   6.353   2.714
 2201SOL     OW 8499  13.485   8.151  13.823
 2201SOL    HW1 8500  13.424   8.168  13.752
 2201SOL    HW2 8501  13.439   8.092  13.882
 2202SOL     OW 8502  10.674   7.615   4.807
 2202SOL    HW1 8503  10.621   7.638   4.731
 2202SOL    HW2 8504  10.613   7.571   4.866
 2203SOL     OW 8505   5.685  11.573   5.936
 2203SOL    HW1 8506   5.687  11.659   5.894
 2203SOL    HW2 8507   5.776  11.544   5.935
 2204SOL     OW 8508  12.862   1.960   4.332
 2204SOL    HW1 8509  12.778   1.915   4.337
 2204SOL    HW2 8510  12.910   1.916   4.262
 2205SOL     OW 8511  10.574  12.358   6.957
 2205SOL    HW1 8512  10.539  12.435   7.003
 2205SOL    HW2 8513  10.506  12.336   6.893
 2206SOL     OW 8514  14.365   8.187   7.110
 2206SOL    HW1 8515  14.404   8.127   7.173
 2206SOL    HW2 8516  14.400   8.159   7.025
 2207SOL     OW 8517   7.712   3.789  10.579
 2207SOL    HW1 8518   7.656   3.809  10.654
 2207SOL    HW2 8519   7.794   3.835  10.596
 2208SOL     OW 8520   5.832   0.614   0.535
 2208SOL    HW1 8521   5.794   0.701   0.547
 2208SOL    HW2 8522   5.760   0.553   0.549
 2209SOL     OW 8523   7.655   1.086   0.169
 2209SOL    HW1 8524   7.612   1.102   0.085
 2209SOL    HW2 8525   7.610   1.144   0.230
 2210SOL     OW 8526   7.926   0.937  12.283
 2210SOL    HW1 8527   7.978   0.857  12.288
 2210SOL    HW2 8528   7.879   0.941  12.366
 2211SOL     OW 8529   7.059   5.505  14.842
 2211SOL    HW1 8530   7.070   5.554   0.042
 2211SOL    HW2 8531   7.148   5.486  14.814
 2212SOL     OW 8532   5.252   1.752   6.459
 2212SOL    HW1 8533   5.221   1.756   6.550
 2212SOL    HW2 8534   5.258   1.844   6.432
 2213SOL     OW 8535  13.629   5.390   2.559
 2213SOL    HW1 8536  13.637   5.473   2.513
 2213SOL    HW2 8537  13.689   5.331   2.512
 2214SOL     OW 8538  14.251   3.974   5.199
 2214SOL    HW1 8539  14.228   3.922   5.276
 2214SOL    HW2 8540  14.209   3.928   5.126
 2215SOL     OW 8541  10.132  13.592   7.001
 2215SOL    HW1 8542  10.218  13.561   6.971
 2215SOL    HW2 8543  10.132  13.685   6.981
 2216SOL     OW 8544  10.003   7.927  12.846
 2216SOL    HW1 8545   9.913   7.947  12.819
 2216SOL    HW2 8546   9.992   7.875  12.926
 2217SOL     OW 8547   8.205   1.058   2.604
 2217SOL    HW1 8548   8.163   0.972   2.611
 2217SOL    HW2 8549   8.222   1.084   2.695
 2218SOL     OW 8550   9.306   1.607  12.135
 2218SOL    HW1 8551   9.306   1.522  12.090
 2218SOL    HW2 8552   9.238   1.658  12.089
 2219SOL     OW 8553  12.350   3.151   4.762
 2219SOL    HW1 8554  12.444   3.140   4.777
 2219SOL    HW2 8555  12.333   3.101   4.682
 2220SOL     OW 8556   7.480   2.171   2.518
 2220SOL    HW1 8557   7.537   2.219   2.458
 2220SOL    HW2 8558   7.434   2.108   2.462
 2221SOL     OW 8559  13.537   6.910   8.088
 2221SOL    HW1 8560  13.530   7.004   8.105
 2221SOL    HW2 8561  13.456   6.888   8.042
 2222SOL     OW 8562   8.826   0.149   5.785
 2222SOL    HW1 8563   8.913   0.190   5.779
 2222SOL    HW2 8564   8.792   0.152   5.696
 2223SOL     OW 8565  11.643  13.091  10.997
 2223SOL    HW1 8566  11.595  13.170  10.969
 2223SOL    HW2 8567  11.731  13.103  10.961
 2224SOL     OW 8568  10.669  11.666   0.255
 2224SOL    HW1 8569  10.659  11.694   0.164
 2224SOL    HW2 8570  10.653  11.572   0.254
 2225SOL     OW 8571   1.901   7.360  10.542
 2225SOL    HW1 8572   1.973   7.379  10.603
 2225SOL    HW2 8573   1.824   7.353  10.598
 2226SOL     OW 8574   9.468  10.165   9.823
 2226SOL    HW1 8575   9.511  10.087   9.787
 2226SOL    HW2 8576   9.445  10.141   9.913
 2227SOL     OW 8577   1.086  13.672   9.185
 2227SOL    HW1 8578   1.005  13.622   9.196
 2227SOL    HW2 8579   1.088  13.730   9.261
 2228SOL     OW 8580  13.395   3.061  12.722
 2228SOL    HW1 8581  13.348   3.063  12.805
 2228SOL    HW2 8582  13.394   2.969  12.696
 2229SOL     OW 8583  10.552   4.300  11.249
 2229SOL    HW1 8584  10.492   4.373  11.231
 2229SOL    HW2 8585  10.521   4.230  11.192
 2230SOL     OW 8586   1.321   7.840   0.645
 2230SOL    HW1 8587   1.351   7.930   0.663
 2230SOL    HW2 8588   1.232   7.851   0.610
 2231SOL     OW 8589  13.009   5.300   2.533
 2231SOL    HW1 8590  13.054   5.340   2.459
 2231SOL    HW2 8591  12.995   5.373   2.595
 2232SOL     OW 8592   0.305  14.465   7.868
 2232SOL    HW1 8593   0.288  14.469   7.773
 2232SOL    HW2 8594   0.352  14.546   7.887
 2233SOL     OW 8595   5.787   0.537  11.385
 2233SOL    HW1 8596   5.790   0.580  11.470
 2233SOL    HW2 8597   5.827   0.599  11.325
 2234SOL     OW 8598   8.301   9.560  13.375
 2234SOL    HW1 8599   8.349   9.479  13.389
 2234SOL    HW2 8600   8.228   9.535  13.319
 2235SOL     OW 8601   5.327  14.861  11.773
 2235SOL    HW1 8602   5.282  14.784  11.808
 2235SOL    HW2 8603   5.292  14.872  11.685
 2236SOL     OW 8604   5.104  14.436   0.090
 2236SOL    HW1 8605   5.172  14.399   0.146
 2236SOL    HW2 8606   5.119  14.530   0.094
 2237SOL     OW 8607  12.510  12.016  10.031
 2237SOL    HW1 8608  12.504  11.979  10.119
 2237SOL    HW2 8609  12.491  12.110  10.043
 2238SOL     OW 8610  11.922   0.977   6.979
 2238SOL    HW1 8611  11.909   1.031   6.901
 2238SOL    HW2 8612  11.837   0.977   7.023
 2239SOL     OW 8613  12.734   1.818   8.353
 2239SOL    HW1 8614  12.733   1.743   8.412
 2239SOL    HW2 8615  12.710   1.892   8.408
 2240SOL     OW 8616   9.512  12.740   5.279
 2240SOL    HW1 8617   9.575  12.812   5.289
 2240SOL    HW2 8618   9.437  12.780   5.236
 2241SOL     OW 8619  12.483   1.825   3.745
 2241SOL    HW1 8620  12.453   1.752   3.692
 2241SOL    HW2 8621  12.500   1.895   3.682
 2242SOL     OW 8622   6.089   4.258  12.032
 2242SOL    HW1 8623   6.037   4.263  12.112
 2242SOL    HW2 8624   6.027   4.276  11.961
 2243SOL     OW 8625  13.401   2.769   0.026
 2243SOL    HW1 8626  13.461   2.719   0.081
 2243SOL    HW2 8627  13.453   2.844  14.878
 2244SOL     OW 8628  10.415   7.925   7.059
 2244SOL    HW1 8629  10.381   8.010   7.033
 2244SOL    HW2 8630  10.464   7.942   7.140
 2245SOL     OW 8631   0.315  11.764   4.516
 2245SOL    HW1 8632   0.233  11.807   4.540
 2245SOL    HW2 8633   0.317  11.768   4.420
 2246SOL     OW 8634  10.633   3.016   5.554
 2246SOL    HW1 8635  10.700   3.074   5.516
 2246SOL    HW2 8636  10.684   2.946   5.596
 2247SOL     OW 8637   0.117  10.336  11.060
 2247SOL    HW1 8638   0.039  10.319  11.113
 2247SOL    HW2 8639   0.082  10.371  10.978
 2248SOL     OW 8640   7.394   3.127   4.071
 2248SOL    HW1 8641   7.458   3.194   4.097
 2248SOL    HW2 8642   7.318   3.177   4.041
 2249SOL     OW 8643   3.650  10.508   5.430
 2249SOL    HW1 8644   3.707  10.511   5.353
 2249SOL    HW2 8645   3.693  10.564   5.494
 2250SOL     OW 8646   2.518   5.918   2.395
 2250SOL    HW1 8647   2.429   5.931   2.364
 2250SOL    HW2 8648   2.567   5.891   2.317
 2251SOL     OW 8649   7.279   2.324   1.844
 2251SOL    HW1 8650   7.366   2.299   1.875
 2251SOL    HW2 8651   7.286   2.417   1.824
 2252SOL     OW 8652   2.795  12.887   3.221
 2252SOL    HW1 8653   2.816  12.853   3.308
 2252SOL    HW2 8654   2.721  12.835   3.192
 2253SOL     OW 8655  10.862  11.614  14.298
 2253SOL    HW1 8656  10.903  11.581  14.218
 2253SOL    HW2 8657  10.769  11.593  14.288
 2254SOL     OW 8658   6.914   5.624   2.197
 2254SOL    HW1 8659   7.003   5.658   2.206
 2254SOL    HW2 8660   6.859   5.703   2.196
 2255SOL     OW 8661   2.989   5.372  11.342
 2255SOL    HW1 8662   3.008   5.310  11.272
 2255SOL    HW2 8663   3.074   5.411  11.364
 2256SOL     OW 8664  11.072   7.450   1.559
 2256SOL    HW1 8665  11.128   7.516   1.600
 2256SOL    HW2 8666  11.111   7.366   1.584
 2257SOL     OW 8667   4.659  14.767  11.939
 2257SOL    HW1 8668   4.644  14.850  11.983
 2257SOL    HW2 8669   4.707  14.790  11.860
 2258SOL     OW 8670   0.537  12.283   6.923
 2258SOL    HW1 8671   0.445  12.289   6.950
 2258SOL    HW2 8672   0.539  12.210   6.861
 2259SOL     OW 8673  11.212   6.845   9.539
 2259SOL    HW1 8674  11.306   6.857   9.525
 2259SOL    HW2 8675  11.180   6.810   9.455
 2260SOL     OW 8676   8.217   8.932   9.658
 2260SOL    HW1 8677   8.229   8.978   9.741
 2260SOL    HW2 8678   8.201   8.841   9.683
 2261SOL     OW 8679   9.092   4.918   7.419
 2261SOL    HW1 8680   9.176   4.954   7.393
 2261SOL    HW2 8681   9.032   4.993   7.419
 2262SOL     OW 8682  11.522   6.039  12.060
 2262SOL    HW1 8683  11.507   5.976  11.990
 2262SOL    HW2 8684  11.557   6.116  12.016
 2263SOL     OW 8685  11.386   0.050   5.198
 2263SOL    HW1 8686  11.315   0.113   5.210
 2263SOL    HW2 8687  11.420   0.034   5.286
 2264SOL     OW 8688   0.501  13.818   4.374
 2264SOL    HW1 8689   0.577  13.762   4.389
 2264SOL    HW2 8690   0.525  13.871   4.299
 2265SOL     OW 8691   5.127   8.337   8.496
 2265SOL    HW1 8692   5.141   8.318   8.403
 2265SOL    HW2 8693   5.033   8.325   8.509
 2266SOL     OW 8694   1.904  12.949   4.691
 2266SOL    HW1 8695   1.983  12.971   4.740
 2266SOL    HW2 8696   1.872  12.869   4.733
 2267SOL     OW 8697   0.095   7.713   4.383
 2267SOL    HW1 8698   0.010   7.712   4.339
 2267SOL    HW2 8699   0.076   7.744   4.471
 2268SOL     OW 8700   2.670  10.112   8.737
 2268SOL    HW1 8701   2.733  10.179   8.713
 2268SOL    HW2 8702   2.674  10.108   8.833
 2269SOL     OW 8703   3.126   0.866  12.069
 2269SOL    HW1 8704   3.201   0.847  12.012
 2269SOL    HW2 8705   3.165   0.904  12.148
 2270SOL     OW 8706   6.087   5.595   7.138
 2270SOL    HW1 8707   6.142   5.581   7.060
 2270SOL    HW2 8708   6.033   5.516   7.143
 2271SOL     OW 8709   4.611  12.906  12.017
 2271SOL    HW1 8710   4.630  12.997  12.039
 2271SOL    HW2 8711   4.569  12.910  11.931
 2272SOL     OW 8712   4.639  14.149   4.659
 2272SOL    HW1 8713   4.653  14.238   4.691
 2272SOL    HW2 8714   4.608  14.100   4.734
 2273SOL     OW 8715  11.820   0.378   6.000
 2273SOL    HW1 8716  11.895   0.426   5.965
 2273SOL    HW2 8717  11.828   0.386   6.095
 2274SOL     OW 8718  11.034   0.314   7.173
 2274SOL    HW1 8719  10.946   0.352   7.169
 2274SOL    HW2 8720  11.031   0.241   7.111
 2275SOL     OW 8721   8.582   2.071  13.763
 2275SOL    HW1 8722   8.649   2.081  13.831
 2275SOL    HW2 8723   8.624   2.020  13.695
 2276SOL     OW 8724   4.903   4.340   9.122
 2276SOL    HW1 8725   4.891   4.345   9.217
 2276SOL    HW2 8726   4.992   4.372   9.108
 2277SOL     OW 8727   4.558   2.264  13.732
 2277SOL    HW1 8728   4.524   2.311  13.655
 2277SOL    HW2 8729   4.653   2.270  13.723
 2278SOL     OW 8730   8.965   4.409  11.036
 2278SOL    HW1 8731   8.887   4.373  11.079
 2278SOL    HW2 8732   8.950   4.504  11.035
 2279SOL     OW 8733   9.817   6.006  14.437
 2279SOL    HW1 8734   9.902   6.005  14.481
 2279SOL    HW2 8735   9.783   6.094  14.453
 2280SOL     OW 8736  11.476   8.310   4.986
 2280SOL    HW1 8737  11.479   8.276   4.896
 2280SOL    HW2 8738  11.435   8.239   5.036
 2281SOL     OW 8739   3.440  13.646   3.772
 2281SOL    HW1 8740   3.523  13.689   3.748
 2281SOL    HW2 8741   3.465  13.556   3.793
 2282SOL     OW 8742   0.290  14.170  11.990
 2282SOL    HW1 8743   0.384  14.153  11.988
 2282SOL    HW2 8744   0.255  14.121  11.916
 2283SOL     OW 8745   7.059  14.090   8.808
 2283SOL    HW1 8746   7.020  14.079   8.894
 2283SOL    HW2 8747   7.088  14.181   8.807
 2284SOL     OW 8748   1.445  13.258  11.281
 2284SOL    HW1 8749   1.519  13.298  11.327
 2284SOL    HW2 8750   1.417  13.187  11.338
 2285SOL     OW 8751   3.067   3.428   6.162
 2285SOL    HW1 8752   2.973   3.443   6.177
 2285SOL    HW2 8753   3.105   3.515   6.155
 2286SOL     OW 8754  11.797   7.137   1.044
 2286SOL    HW1 8755  11.736   7.119   0.972
 2286SOL    HW2 8756  11.857   7.062   1.043
 2287SOL     OW 8757   8.623   0.853   4.694
 2287SOL    HW1 8758   8.564   0.910   4.744
 2287SOL    HW2 8759   8.702   0.848   4.748
 2288SOL     OW 8760  10.415   7.906  14.187
 2288SOL    HW1 8761  10.352   7.899  14.116
 2288SOL    HW2 8762  10.362   7.934  14.263
 2289SOL     OW 8763   8.638   1.227  14.769
 2289SOL    HW1 8764   8.661   1.317  14.749
 2289SOL    HW2 8765   8.543   1.228  14.781
 2290SOL     OW 8766  10.753   7.123   4.058
 2290SOL    HW1 8767  10.796   7.058   4.114
 2290SOL    HW2 8768  10.757   7.205   4.108
 2291SOL     OW 8769   8.557   5.546  13.254
 2291SOL    HW1 8770   8.524   5.636  13.252
 2291SOL    HW2 8771   8.577   5.526  13.162
 2292SOL     OW 8772   0.801   5.641   0.978
 2292SOL    HW1 8773   0.742   5.646   0.903
 2292SOL    HW2 8774   0.813   5.547   0.992
 2293SOL     OW 8775   3.783   4.741   2.603
 2293SOL    HW1 8776   3.752   4.786   2.681
 2293SOL    HW2 8777   3.704   4.707   2.561
 2294SOL     OW 8778   1.484   2.352   1.954
 2294SOL    HW1 8779   1.437   2.435   1.961
 2294SOL    HW2 8780   1.539   2.362   1.876
 2295SOL     OW 8781   0.482   4.824   2.222
 2295SOL    HW1 8782   0.572   4.812   2.191
 2295SOL    HW2 8783   0.490   4.880   2.299
 2296SOL     OW 8784   5.401  13.764   5.989
 2296SOL    HW1 8785   5.369  13.854   5.980
 2296SOL    HW2 8786   5.356  13.716   5.919
 2297SOL     OW 8787  11.429   9.907   1.479
 2297SOL    HW1 8788  11.479   9.964   1.420
 2297SOL    HW2 8789  11.460   9.819   1.459
 2298SOL     OW 8790   0.363  13.153   8.734
 2298SOL    HW1 8791   0.277  13.156   8.777
 2298SOL    HW2 8792   0.355  13.085   8.668
 2299SOL     OW 8793   2.405   4.149   2.587
 2299SOL    HW1 8794   2.402   4.170   2.493
 2299SOL    HW2 8795   2.323   4.103   2.604
 2300SOL     OW 8796   8.943   3.529  13.278
 2300SOL    HW1 8797   8.959   3.489  13.193
 2300SOL    HW2 8798   8.898   3.611  13.258
 2301SOL     OW 8799   2.907   7.987  14.454
 2301SOL    HW1 8800   2.857   7.935  14.391
 2301SOL    HW2 8801   2.841   8.015  14.518
 2302SOL     OW 8802   1.120  10.952  11.607
 2302SOL    HW1 8803   1.190  10.916  11.553
 2302SOL    HW2 8804   1.096  10.881  11.666
 2303SOL     OW 8805   5.197  13.570   3.481
 2303SOL    HW1 8806   5.228  13.498   3.425
 2303SOL    HW2 8807   5.258  13.571   3.555
 2304SOL     OW 8808   2.735   4.236  10.197
 2304SOL    HW1 8809   2.731   4.154  10.148
 2304SOL    HW2 8810   2.718   4.212  10.288
 2305SOL     OW 8811   6.215   6.488   3.463
 2305SOL    HW1 8812   6.177   6.411   3.504
 2305SOL    HW2 8813   6.142   6.548   3.450
 2306SOL     OW 8814   0.147  11.529  10.689
 2306SOL    HW1 8815   0.075  11.491  10.639
 2306SOL    HW2 8816   0.196  11.582  10.626
 2307SOL     OW 8817   2.718   5.218  12.774
 2307SOL    HW1 8818   2.666   5.192  12.698
 2307SOL    HW2 8819   2.800   5.169  12.765
 2308SOL     OW 8820  12.578   0.511   6.234
 2308SOL    HW1 8821  12.611   0.581   6.290
 2308SOL    HW2 8822  12.563   0.552   6.149
 2309SOL     OW 8823   9.307  10.416  13.005
 2309SOL    HW1 8824   9.395  10.381  13.019
 2309SOL    HW2 8825   9.251  10.366  13.065
 2310SOL     OW 8826  12.320  11.516   9.955
 2310SOL    HW1 8827  12.390  11.578   9.974
 2310SOL    HW2 8828  12.304  11.528   9.861
 2311SOL     OW 8829   6.372  13.551   0.795
 2311SOL    HW1 8830   6.454  13.600   0.790
 2311SOL    HW2 8831   6.315  13.606   0.849
 2312SOL     OW 8832   9.453   1.001  11.735
 2312SOL    HW1 8833   9.492   1.049  11.662
 2312SOL    HW2 8834   9.360   0.998  11.716
 2313SOL     OW 8835   7.750   9.157  13.297
 2313SOL    HW1 8836   7.749   9.082  13.238
 2313SOL    HW2 8837   7.736   9.119  13.384
 2314SOL     OW 8838   6.482   3.908   5.972
 2314SOL    HW1 8839   6.499   3.826   5.926
 2314SOL    HW2 8840   6.405   3.889   6.026
 2315SOL     OW 8841   8.865   1.779   1.206
 2315SOL    HW1 8842   8.926   1.782   1.132
 2315SOL    HW2 8843   8.912   1.731   1.274
 2316SOL     OW 8844   9.609   1.949   9.789
 2316SOL    HW1 8845   9.517   1.926   9.773
 2316SOL    HW2 8846   9.633   2.004   9.714
 2317SOL     OW 8847  12.164   7.747  14.818
 2317SOL    HW1 8848  12.092   7.723  14.761
 2317SOL    HW2 8849  12.239   7.696  14.785
 2318SOL     OW 8850   2.506   7.889   4.558
 2318SOL    HW1 8851   2.587   7.921   4.518
 2318SOL    HW2 8852   2.503   7.933   4.644
 2319SOL     OW 8853  13.133   9.984  10.102
 2319SOL    HW1 8854  13.072  10.052  10.131
 2319SOL    HW2 8855  13.106   9.963  10.013
 2320SOL     OW 8856   0.958   5.468   7.634
 2320SOL    HW1 8857   0.953   5.379   7.600
 2320SOL    HW2 8858   0.878   5.478   7.687
 2321SOL     OW 8859  12.117   6.348   2.258
 2321SOL    HW1 8860  12.036   6.355   2.208
 2321SOL    HW2 8861  12.152   6.437   2.259
 2322SOL     OW 8862  11.367   3.345   9.435
 2322SOL    HW1 8863  11.312   3.278   9.396
 2322SOL    HW2 8864  11.382   3.408   9.364
 2323SOL     OW 8865   0.521   3.389   4.383
 2323SOL    HW1 8866   0.582   3.439   4.438
 2323SOL    HW2 8867   0.563   3.303   4.373
 2324SOL     OW 8868  11.063   1.968   6.932
 2324SOL    HW1 8869  11.113   2.031   6.880
 2324SOL    HW2 8870  11.107   1.967   7.017
 2325SOL     OW 8871   4.852   1.735   2.306
 2325SOL    HW1 8872   4.945   1.730   2.326
 2325SOL    HW2 8873   4.823   1.818   2.343
 2326SOL     OW 8874   6.338  12.298   3.337
 2326SOL    HW1 8875   6.391  12.227   3.301
 2326SOL    HW2 8876   6.372  12.310   3.426
 2327SOL     OW 8877   6.801   1.883   7.963
 2327SOL    HW1 8878   6.881   1.932   7.980
 2327SOL    HW2 8879   6.740   1.947   7.926
 2328SOL     OW 8880   5.546  14.456   4.388
 2328SOL    HW1 8881   5.587  14.517   4.327
 2328SOL    HW2 8882   5.470  14.504   4.423
 2329SOL     OW 8883   1.380   1.166  11.464
 2329SOL    HW1 8884   1.409   1.188  11.376
 2329SOL    HW2 8885   1.412   1.078  11.480
 2330SOL     OW 8886  11.258  12.274  10.472
 2330SOL    HW1 8887  11.223  12.288  10.560
 2330SOL    HW2 8888  11.190  12.308  10.414
 2331SOL     OW 8889   8.435   3.401  14.855
 2331SOL    HW1 8890   8.406   3.362  14.772
 2331SOL    HW2 8891   8.357   3.444   0.007
 2332SOL     OW 8892   1.617   7.544   5.448
 2332SOL    HW1 8893   1.556   7.551   5.521
 2332SOL    HW2 8894   1.657   7.458   5.457
 2333SOL     OW 8895   0.558   1.701   3.013
 2333SOL    HW1 8896   0.559   1.608   3.034
 2333SOL    HW2 8897   0.495   1.739   3.074
 2334SOL     OW 8898   4.209   0.912   4.675
 2334SOL    HW1 8899   4.213   0.834   4.729
 2334SOL    HW2 8900   4.138   0.894   4.613
 2335SOL     OW 8901   1.235   3.828   6.134
 2335SOL    HW1 8902   1.238   3.799   6.225
 2335SOL    HW2 8903   1.231   3.924   6.139
 2336SOL     OW 8904   8.103   4.546   3.321
 2336SOL    HW1 8905   8.086   4.549   3.415
 2336SOL    HW2 8906   8.111   4.637   3.295
 2337SOL     OW 8907   8.228   8.975   2.031
 2337SOL    HW1 8908   8.291   8.960   2.102
 2337SOL    HW2 8909   8.142   8.972   2.074
 2338SOL     OW 8910   5.965   1.437   3.053
 2338SOL    HW1 8911   5.978   1.455   2.960
 2338SOL    HW2 8912   6.051   1.410   3.085
 2339SOL     OW 8913  12.512   0.885   3.532
 2339SOL    HW1 8914  12.487   0.949   3.599
 2339SOL    HW2 8915  12.570   0.933   3.474
 2340SOL     OW 8916  10.318  13.906   4.825
 2340SOL    HW1 8917  10.401  13.868   4.797
 2340SOL    HW2 8918  10.342  13.974   4.888
 2341SOL     OW 8919   6.677  13.842   5.102
 2341SOL    HW1 8920   6.712  13.847   5.013
 2341SOL    HW2 8921   6.588  13.809   5.090
 2342SOL     OW 8922   6.871   3.986   9.677
 2342SOL    HW1 8923   6.917   4.065   9.707
 2342SOL    HW2 8924   6.906   3.969   9.590
 2343SOL     OW 8925  11.717   1.983   9.945
 2343SOL    HW1 8926  11.749   2.057   9.894
 2343SOL    HW2 8927  11.792   1.954   9.996
 2344SOL     OW 8928  10.969   7.344   6.557
 2344SOL    HW1 8929  10.885   7.388   6.541
 2344SOL    HW2 8930  10.954   7.291   6.635
 2345SOL     OW 8931   8.461   6.162  13.603
 2345SOL    HW1 8932   8.426   6.251  13.608
 2345SOL    HW2 8933   8.396   6.114  13.551
 2346SOL     OW 8934   3.315   1.134   5.274
 2346SOL    HW1 8935   3.309   1.119   5.180
 2346SOL    HW2 8936   3.409   1.137   5.292
 2347SOL     OW 8937  12.743   8.807  11.440
 2347SOL    HW1 8938  12.768   8.868  11.370
 2347SOL    HW2 8939  12.651   8.827  11.457
 2348SOL     OW 8940  13.445  10.218   5.928
 2348SOL    HW1 8941  13.360  10.218   5.974
 2348SOL    HW2 8942  13.445  10.301   5.879
 2349SOL     OW 8943   3.427   5.506  11.040
 2349SOL    HW1 8944   3.444   5.437  10.976
 2349SOL    HW2 8945   3.387   5.576  10.989
 2350SOL     OW 8946  13.462  13.462  10.037
 2350SOL    HW1 8947  13.492  13.531   9.978
 2350SOL    HW2 8948  13.502  13.482  10.121
 2351SOL     OW 8949   7.677   0.984  10.629
 2351SOL    HW1 8950   7.651   0.960  10.540
 2351SOL    HW2 8951   7.745   1.050  10.618
 2352SOL     OW 8952   8.074  13.241   4.372
 2352SOL    HW1 8953   8.037  13.235   4.461
 2352SOL    HW2 8954   8.023  13.310   4.329
 2353SOL     OW 8955   7.756   2.503   8.757
 2353SOL    HW1 8956   7.684   2.489   8.695
 2353SOL    HW2 8957   7.723   2.569   8.818
 2354SOL     OW 8958   2.794   1.845   5.039
 2354SOL    HW1 8959   2.835   1.758   5.036
 2354SOL    HW2 8960   2.704   1.830   5.008
 2355SOL     OW 8961   2.577   8.312  10.473
 2355SOL    HW1 8962   2.545   8.400  10.455
 2355SOL    HW2 8963   2.498   8.259  10.485
 2356SOL     OW 8964  14.692   5.563   4.968
 2356SOL    HW1 8965  14.720   5.636   4.912
 2356SOL    HW2 8966  14.757   5.494   4.953
 2357SOL     OW 8967   2.380  12.705   3.606
 2357SOL    HW1 8968   2.311  12.705   3.540
 2357SOL    HW2 8969   2.408  12.614   3.611
 2358SOL     OW 8970  12.458  12.741   5.379
 2358SOL    HW1 8971  12.463  12.655   5.419
 2358SOL    HW2 8972  12.438  12.724   5.287
 2359SOL     OW 8973  13.040   4.511  11.462
 2359SOL    HW1 8974  13.078   4.438  11.511
 2359SOL    HW2 8975  13.115   4.551  11.417
 2360SOL     OW 8976   8.520   3.676   9.743
 2360SOL    HW1 8977   8.497   3.664   9.651
 2360SOL    HW2 8978   8.488   3.598   9.787
 2361SOL     OW 8979   8.418   1.507   4.674
 2361SOL    HW1 8980   8.487   1.551   4.623
 2361SOL    HW2 8981   8.462   1.477   4.753
 2362SOL     OW 8982  12.375   9.622  11.288
 2362SOL    HW1 8983  12.378   9.669  11.205
 2362SOL    HW2 8984  12.290   9.579  11.288
 2363SOL     OW 8985   7.813  14.762  10.853
 2363SOL    HW1 8986   7.746  14.707  10.812
 2363SOL    HW2 8987   7.816  14.732  10.944
 2364SOL     OW 8988   0.711   9.905  13.161
 2364SOL    HW1 8989   0.788   9.894  13.104
 2364SOL    HW2 8990   0.636   9.896  13.103
 2365SOL     OW 8991   4.287   4.577   4.030
 2365SOL    HW1 8992   4.251   4.497   3.992
 2365SOL    HW2 8993   4.381   4.562   4.036
 2366SOL     OW 8994   8.217   5.590   7.552
 2366SOL    HW1 8995   8.240   5.582   7.644
 2366SOL    HW2 8996   8.122   5.599   7.552
 2367SOL     OW 8997   5.370   3.189  11.221
 2367SOL    HW1 8998   5.289   3.164  11.176
 2367SOL    HW2 8999   5.404   3.262  11.170
 2368SOL     OW 9000  13.575   0.556   4.112
 2368SOL    HW1 9001  13.548   0.482   4.058
 2368SOL    HW2 9002  13.585   0.629   4.050
 2369SOL     OW 9003   9.599  11.487   1.516
 2369SOL    HW1 9004   9.576  11.428   1.589
 2369SOL    HW2 9005   9.662  11.548   1.554
 2370SOL     OW 9006   5.108   2.613   4.489
 2370SOL    HW1 9007   5.197   2.643   4.504
 2370SOL    HW2 9008   5.108   2.582   4.398
 2371SOL     OW 9009   9.449   9.783   1.105
 2371SOL    HW1 9010   9.529   9.809   1.059
 2371SOL    HW2 9011   9.467   9.695   1.136
 2372SOL     OW 9012   5.246  11.627  10.176
 2372SOL    HW1 9013   5.163  11.664  10.147
 2372SOL    HW2 9014   5.260  11.551  10.119
 2373SOL     OW 9015  13.853   9.765   2.268
 2373SOL    HW1 9016  13.824   9.742   2.179
 2373SOL    HW2 9017  13.813   9.851   2.284
 2374SOL     OW 9018   5.628  12.471  12.415
 2374SOL    HW1 9019   5.696  12.477  12.348
 2374SOL    HW2 9020   5.547  12.462  12.365
 2375SOL     OW 9021  11.020  10.819   7.685
 2375SOL    HW1 9022  11.015  10.789   7.775
 2375SOL    HW2 9023  11.109  10.796   7.657
 2376SOL     OW 9024   2.087  14.425   6.245
 2376SOL    HW1 9025   2.007  14.478   6.236
 2376SOL    HW2 9026   2.080  14.359   6.176
 2377SOL     OW 9027  11.614  11.473   7.875
 2377SOL    HW1 9028  11.617  11.414   7.800
 2377SOL    HW2 9029  11.705  11.502   7.886
 2378SOL     OW 9030  14.420   0.968   5.607
 2378SOL    HW1 9031  14.366   0.895   5.578
 2378SOL    HW2 9032  14.359   1.025   5.654
 2379SOL     OW 9033   1.699   2.263   9.788
 2379SOL    HW1 9034   1.718   2.169   9.790
 2379SOL    HW2 9035   1.667   2.280   9.700
 2380SOL     OW 9036   1.806  11.777  12.815
 2380SOL    HW1 9037   1.883  11.781  12.872
 2380SOL    HW2 9038   1.838  11.808  12.730
 2381SOL     OW 9039   8.444  11.707   7.783
 2381SOL    HW1 9040   8.400  11.667   7.858
 2381SOL    HW2 9041   8.499  11.637   7.748
 2382SOL     OW 9042  12.038  11.925   9.323
 2382SOL    HW1 9043  12.074  11.840   9.298
 2382SOL    HW2 9044  12.049  11.930   9.418
 2383SOL     OW 9045   4.344   4.653  10.989
 2383SOL    HW1 9046   4.388   4.569  11.002
 2383SOL    HW2 9047   4.312   4.676  11.076
 2384SOL     OW 9048   0.610  14.082   1.090
 2384SOL    HW1 9049   0.546  14.072   1.160
 2384SOL    HW2 9050   0.689  14.040   1.123
 2385SOL     OW 9051   8.605   1.150  13.143
 2385SOL    HW1 9052   8.631   1.077  13.086
 2385SOL    HW2 9053   8.541   1.199  13.091
 2386SOL     OW 9054  11.402   4.664  11.358
 2386SOL    HW1 9055  11.377   4.652  11.267
 2386SOL    HW2 9056  11.359   4.745  11.386
 2387SOL     OW 9057   9.096   2.287  12.631
 2387SOL    HW1 9058   9.139   2.254  12.711
 2387SOL    HW2 9059   9.149   2.363  12.605
 2388SOL     OW 9060   6.360  12.433  12.812
 2388SOL    HW1 9061   6.441  12.383  12.822
 2388SOL    HW2 9062   6.385  12.509  12.759
 2389SOL     OW 9063   7.044  13.246  10.286
 2389SOL    HW1 9064   7.080  13.335  10.285
 2389SOL    HW2 9065   7.029  13.228  10.379
 2390SOL     OW 9066   8.041   1.502  14.576
 2390SOL    HW1 9067   8.008   1.583  14.536
 2390SOL    HW2 9068   7.975   1.479  14.642
 2391SOL     OW 9069   7.196   3.887   4.981
 2391SOL    HW1 9070   7.228   3.797   4.989
 2391SOL    HW2 9071   7.164   3.894   4.891
 2392SOL     OW 9072   2.452   2.287   1.602
 2392SOL    HW1 9073   2.416   2.346   1.536
 2392SOL    HW2 9074   2.423   2.323   1.686
 2393SOL     OW 9075   0.135   4.489   0.292
 2393SOL    HW1 9076   0.188   4.413   0.315
 2393SOL    HW2 9077   0.048   4.453   0.274
 2394SOL     OW 9078  13.227   3.266  12.031
 2394SOL    HW1 9079  13.291   3.229  11.971
 2394SOL    HW2 9080  13.253   3.234  12.117
 2395SOL     OW 9081   6.390   6.287  14.864
 2395SOL    HW1 9082   6.461   6.224  14.852
 2395SOL    HW2 9083   6.312   6.240  14.836
 2396SOL     OW 9084  13.506   4.988   8.518
 2396SOL    HW1 9085  13.473   5.051   8.581
 2396SOL    HW2 9086  13.597   5.015   8.502
 2397SOL     OW 9087   6.604   0.590   3.072
 2397SOL    HW1 9088   6.515   0.620   3.087
 2397SOL    HW2 9089   6.651   0.614   3.152
 2398SOL     OW 9090   0.221   4.924   1.632
 2398SOL    HW1 9091   0.152   4.891   1.690
 2398SOL    HW2 9092   0.284   4.852   1.625
 2399SOL     OW 9093   7.544  13.011  13.655
 2399SOL    HW1 9094   7.455  13.038  13.678
 2399SOL    HW2 9095   7.598  13.088  13.675
 2400SOL     OW 9096   2.624   3.565   1.566
 2400SOL    HW1 9097   2.565   3.564   1.641
 2400SOL    HW2 9098   2.672   3.482   1.572
 2401SOL     OW 9099  13.244   9.854  10.463
 2401SOL    HW1 9100  13.306   9.874  10.393
 2401SOL    HW2 9101  13.175   9.919  10.452
 2402SOL     OW 9102   0.399  13.775   7.636
 2402SOL    HW1 9103   0.429  13.862   7.662
 2402SOL    HW2 9104   0.409  13.722   7.715
 2403SOL     OW 9105  10.734   6.004   6.955
 2403SOL    HW1 9106  10.682   5.929   6.925
 2403SOL    HW2 9107  10.817   5.966   6.983
 2404SOL     OW 9108   4.116   7.365   0.272
 2404SOL    HW1 9109   4.203   7.372   0.313
 2404SOL    HW2 9110   4.130   7.310   0.195
 2405SOL     OW 9111  11.105   4.309   7.186
 2405SOL    HW1 9112  11.066   4.320   7.273
 2405SOL    HW2 9113  11.030   4.298   7.128
 2406SOL     OW 9114   7.817  12.030   4.507
 2406SOL    HW1 9115   7.773  12.094   4.451
 2406SOL    HW2 9116   7.755  12.013   4.578
 2407SOL     OW 9117   0.316   5.213   7.724
 2407SOL    HW1 9118   0.268   5.265   7.660
 2407SOL    HW2 9119   0.326   5.127   7.682
 2408SOL     OW 9120  11.915   4.335   8.443
 2408SOL    HW1 9121  11.851   4.407   8.447
 2408SOL    HW2 9122  11.975   4.360   8.373
 2409SOL     OW 9123   7.853   6.335   6.366
 2409SOL    HW1 9124   7.822   6.411   6.316
 2409SOL    HW2 9125   7.865   6.266   6.300
 2410SOL     OW 9126   4.569   6.410   0.786
 2410SOL    HW1 9127   4.524   6.433   0.868
 2410SOL    HW2 9128   4.580   6.494   0.741
 2411SOL     OW 9129  12.625   3.710   0.178
 2411SOL    HW1 9130  12.598   3.802   0.187
 2411SOL    HW2 9131  12.636   3.698   0.084
 2412SOL     OW 9132   8.681   0.941   2.295
 2412SOL    HW1 9133   8.644   0.962   2.209
 2412SOL    HW2 9134   8.614   0.968   2.358
 2413SOL     OW 9135  14.528   9.922   5.921
 2413SOL    HW1 9136  14.466   9.991   5.895
 2413SOL    HW2 9137  14.490   9.841   5.887
 2414SOL     OW 9138  11.875   3.746   3.972
 2414SOL    HW1 9139  11.928   3.716   3.898
 2414SOL    HW2 9140  11.874   3.671   4.032
 2415SOL     OW 9141   5.979   3.190   4.610
 2415SOL    HW1 9142   5.981   3.286   4.604
 2415SOL    HW2 9143   5.916   3.172   4.680
 2416SOL     OW 9144   5.432  13.310   5.990
 2416SOL    HW1 9145   5.484  13.369   5.936
 2416SOL    HW2 9146   5.345  13.350   5.994
 2417SOL     OW 9147   2.254   4.162   1.887
 2417SOL    HW1 9148   2.291   4.228   1.828
 2417SOL    HW2 9149   2.166   4.147   1.854
 2418SOL     OW 9150   4.009   7.015   3.462
 2418SOL    HW1 9151   3.931   7.046   3.508
 2418SOL    HW2 9152   3.979   6.943   3.408
 2419SOL     OW 9153   3.283   2.480  10.326
 2419SOL    HW1 9154   3.248   2.545  10.266
 2419SOL    HW2 9155   3.338   2.530  10.387
 2420SOL     OW 9156  12.662  12.507   2.427
 2420SOL    HW1 9157  12.638  12.423   2.387
 2420SOL    HW2 9158  12.578  12.549   2.448
 2421SOL     OW 9159   0.058  12.213   6.918
 2421SOL    HW1 9160   0.038  12.303   6.941
 2421SOL    HW2 9161   0.006  12.196   6.839
 2422SOL     OW 9162   8.484  11.130   2.259
 2422SOL    HW1 9163   8.420  11.065   2.288
 2422SOL    HW2 9164   8.440  11.214   2.269
 2423SOL     OW 9165   4.928   1.196  12.307
 2423SOL    HW1 9166   4.948   1.256  12.234
 2423SOL    HW2 9167   4.928   1.252  12.385
 2424SOL     OW 9168   5.890   5.778   1.454
 2424SOL    HW1 9169   5.906   5.797   1.361
 2424SOL    HW2 9170   5.799   5.805   1.468
 2425SOL     OW 9171   8.817   7.663   5.212
 2425SOL    HW1 9172   8.886   7.598   5.196
 2425SOL    HW2 9173   8.864   7.740   5.244
 2426SOL     OW 9174   7.287  13.732   7.838
 2426SOL    HW1 9175   7.248  13.768   7.917
 2426SOL    HW2 9176   7.297  13.639   7.857
 2427SOL     OW 9177   8.939   6.286  14.675
 2427SOL    HW1 9178   8.899   6.363  14.716
 2427SOL    HW2 9179   8.866   6.227  14.661
 2428SOL     OW 9180   7.693   6.854   7.957
 2428SOL    HW1 9181   7.630   6.796   7.913
 2428SOL    HW2 9182   7.638   6.921   7.998
 2429SOL     OW 9183   6.760   7.121   2.440
 2429SOL    HW1 9184   6.671   7.156   2.448
 2429SOL    HW2 9185   6.747   7.033   2.404
 2430SOL     OW 9186   4.774   1.637   6.389
 2430SOL    HW1 9187   4.790   1.546   6.413
 2430SOL    HW2 9188   4.732   1.632   6.303
 2431SOL     OW 9189   7.274  14.348   4.035
 2431SOL    HW1 9190   7.221  14.401   4.094
 2431SOL    HW2 9191   7.290  14.267   4.083
 2432SOL     OW 9192  12.633   5.563  13.766
 2432SOL    HW1 9193  12.609   5.471  13.771
 2432SOL    HW2 9194  12.696   5.576  13.837
 2433SOL     OW 9195  12.176   3.268   0.900
 2433SOL    HW1 9196  12.174   3.173   0.886
 2433SOL    HW2 9197  12.158   3.279   0.993
 2434SOL     OW 9198  10.232   8.766   2.060
 2434SOL    HW1 9199  10.253   8.824   1.987
 2434SOL    HW2 9200  10.168   8.816   2.112
 2435SOL     OW 9201   5.162   9.971   5.218
 2435SOL    HW1 9202   5.148   9.941   5.128
 2435SOL    HW2 9203   5.149   9.893   5.272
 2436SOL     OW 9204   7.508   7.713  14.651
 2436SOL    HW1 9205   7.535   7.703  14.743
 2436SOL    HW2 9206   7.414   7.727  14.655
 2437SOL     OW 9207   2.822  12.805  12.491
 2437SOL    HW1 9208   2.787  12.722  12.460
 2437SOL    HW2 9209   2.873  12.839  12.417
 2438SOL     OW 9210   6.512   2.430   7.873
 2438SOL    HW1 9211   6.423   2.413   7.842
 2438SOL    HW2 9212   6.506   2.421   7.968
 2439SOL     OW 9213   2.982   5.713   6.950
 2439SOL    HW1 9214   2.979   5.746   6.861
 2439SOL    HW2 9215   2.895   5.677   6.966
 2440SOL     OW 9216   3.573  11.793   5.914
 2440SOL    HW1 9217   3.666  11.776   5.930
 2440SOL    HW2 9218   3.528  11.743   5.982
 2441SOL     OW 9219  12.183   9.098   1.461
 2441SOL    HW1 9220  12.226   9.151   1.394
 2441SOL    HW2 9221  12.105   9.063   1.418
 2442SOL     OW 9222   9.199   7.169  13.494
 2442SOL    HW1 9223   9.203   7.082  13.455
 2442SOL    HW2 9224   9.152   7.156  13.576
 2443SOL     OW 9225   0.627   3.680   7.521
 2443SOL    HW1 9226   0.570   3.683   7.445
 2443SOL    HW2 9227   0.567   3.676   7.596
 2444SOL     OW 9228   4.306   7.393   0.065
 2444SOL    HW1 9229   4.307   7.458   0.136
 2444SOL    HW2 9230   4.388   7.409   0.017
 2445SOL     OW 9231   8.017   0.419   3.669
 2445SOL    HW1 9232   8.065   0.436   3.750
 2445SOL    HW2 9233   7.994   0.326   3.674
 2446SOL     OW 9234   0.902   1.810   2.853
 2446SOL    HW1 9235   0.868   1.871   2.918
 2446SOL    HW2 9236   0.824   1.777   2.808
 2447SOL     OW 9237   2.433   3.024   9.773
 2447SOL    HW1 9238   2.425   3.111   9.812
 2447SOL    HW2 9239   2.364   3.020   9.707
 2448SOL     OW 9240  11.619   0.719   6.382
 2448SOL    HW1 9241  11.672   0.730   6.461
 2448SOL    HW2 9242  11.657   0.780   6.319
 2449SOL     OW 9243   4.902   4.495  14.568
 2449SOL    HW1 9244   4.957   4.434  14.519
 2449SOL    HW2 9245   4.933   4.488  14.658
 2450SOL     OW 9246  14.030   9.422   9.488
 2450SOL    HW1 9247  14.101   9.429   9.424
 2450SOL    HW2 9248  14.059   9.354   9.549
 2451SOL     OW 9249   6.064   0.741   0.406
 2451SOL    HW1 9250   5.998   0.705   0.465
 2451SOL    HW2 9251   6.148   0.719   0.447
 2452SOL     OW 9252  14.005   6.141   6.597
 2452SOL    HW1 9253  14.009   6.091   6.515
 2452SOL    HW2 9254  13.972   6.227   6.571
 2453SOL     OW 9255   3.856  12.509  10.101
 2453SOL    HW1 9256   3.849  12.434  10.161
 2453SOL    HW2 9257   3.932  12.489  10.047
 2454SOL     OW 9258  11.155  10.783   2.223
 2454SOL    HW1 9259  11.109  10.799   2.305
 2454SOL    HW2 9260  11.093  10.734   2.170
 2455SOL     OW 9261  11.969   2.948   5.180
 2455SOL    HW1 9262  11.947   3.035   5.212
 2455SOL    HW2 9263  11.910   2.889   5.227
 2456SOL     OW 9264   4.141  10.474   4.610
 2456SOL    HW1 9265   4.096  10.490   4.527
 2456SOL    HW2 9266   4.113  10.547   4.666
 2457SOL     OW 9267   1.506   5.841   3.882
 2457SOL    HW1 9268   1.480   5.933   3.886
 2457SOL    HW2 9269   1.533   5.827   3.792
 2458SOL     OW 9270   7.075   5.243   1.062
 2458SOL    HW1 9271   7.158   5.290   1.064
 2458SOL    HW2 9272   7.017   5.300   1.011
 2459SOL     OW 9273  14.425  12.548   6.948
 2459SOL    HW1 9274  14.399  12.626   6.898
 2459SOL    HW2 9275  14.345  12.497   6.956
 2460SOL     OW 9276   7.153  14.172  13.628
 2460SOL    HW1 9277   7.093  14.102  13.599
 2460SOL    HW2 9278   7.226  14.168  13.566
 2461SOL     OW 9279   1.659  10.351   6.417
 2461SOL    HW1 9280   1.585  10.331   6.475
 2461SOL    HW2 9281   1.639  10.304   6.336
 2462SOL     OW 9282   8.216   1.465  11.128
 2462SOL    HW1 9283   8.234   1.444  11.219
 2462SOL    HW2 9284   8.186   1.556  11.130
 2463SOL     OW 9285   8.427   4.500  11.762
 2463SOL    HW1 9286   8.366   4.560  11.804
 2463SOL    HW2 9287   8.374   4.448  11.702
 2464SOL     OW 9288   4.856   6.021   0.708
 2464SOL    HW1 9289   4.917   5.959   0.748
 2464SOL    HW2 9290   4.785   5.966   0.674
 2465SOL     OW 9291   7.587   4.696   4.584
 2465SOL    HW1 9292   7.643   4.627   4.547
 2465SOL    HW2 9293   7.634   4.727   4.661
 2466SOL     OW 9294  14.607   8.017  12.472
 2466SOL    HW1 9295  14.573   7.976  12.552
 2466SOL    HW2 9296  14.558   8.100  12.466
 2467SOL     OW 9297   8.490  11.997   6.348
 2467SOL    HW1 9298   8.433  11.923   6.328
 2467SOL    HW2 9299   8.563  11.958   6.397
 2468SOL     OW 9300  14.546   2.899   8.612
 2468SOL    HW1 9301  14.536   2.971   8.675
 2468SOL    HW2 9302  14.599   2.834   8.659
 2469SOL     OW 9303   8.498   5.869   0.124
 2469SOL    HW1 9304   8.464   5.933   0.186
 2469SOL    HW2 9305   8.422   5.815   0.101
 2470SOL     OW 9306  12.174   4.391   7.503
 2470SOL    HW1 9307  12.243   4.334   7.535
 2470SOL    HW2 9308  12.209   4.479   7.512
 2471SOL     OW 9309  12.410  11.027  10.706
 2471SOL    HW1 9310  12.351  10.993  10.773
 2471SOL    HW2 9311  12.492  11.044  10.753
 2472SOL     OW 9312  14.707   8.885  11.794
 2472SOL    HW1 9313  14.798   8.909  11.809
 2472SOL    HW2 9314  14.690   8.814  11.856
 2473SOL     OW 9315  13.778   6.506   2.947
 2473SOL    HW1 9316  13.803   6.468   3.031
 2473SOL    HW2 9317  13.729   6.436   2.903
 2474SOL     OW 9318  10.102   3.965   0.156
 2474SOL    HW1 9319  10.134   4.032   0.217
 2474SOL    HW2 9320  10.168   3.963   0.087
 2475SOL     OW 9321   1.417   0.964  14.233
 2475SOL    HW1 9322   1.483   0.901  14.262
 2475SOL    HW2 9323   1.396   1.015  14.311
 2476SOL     OW 9324   3.984   6.813  13.624
 2476SOL    HW1 9325   4.073   6.808  13.589
 2476SOL    HW2 9326   3.972   6.906  13.646
 2477SOL     OW 9327   0.617   9.616  13.966
 2477SOL    HW1 9328   0.625   9.589  14.058
 2477SOL    HW2 9329   0.648   9.541  13.916
 2478SOL     OW 9330   6.874  13.262   0.704
 2478SOL    HW1 9331   6.811  13.190   0.710
 2478SOL    HW2 9332   6.947  13.227   0.653
 2479SOL     OW 9333   9.714  13.908   4.638
 2479SOL    HW1 9334   9.618  13.913   4.632
 2479SOL    HW2 9335   9.733  13.940   4.726
 2480SOL     OW 9336  10.421   1.146  10.978
 2480SOL    HW1 9337  10.425   1.051  10.968
 2480SOL    HW2 9338  10.503   1.168  11.022
 2481SOL     OW 9339   5.217  12.053   5.837
 2481SOL    HW1 9340   5.248  12.137   5.802
 2481SOL    HW2 9341   5.239  11.989   5.769
 2482SOL     OW 9342   4.261   3.731   6.267
 2482SOL    HW1 9343   4.268   3.732   6.171
 2482SOL    HW2 9344   4.257   3.638   6.290
 2483SOL     OW 9345  14.371   0.194   9.553
 2483SOL    HW1 9346  14.317   0.181   9.475
 2483SOL    HW2 9347  14.460   0.170   9.525
 2484SOL     OW 9348  12.452   5.110   5.080
 2484SOL    HW1 9349  12.361   5.081   5.092
 2484SOL    HW2 9350  12.467   5.102   4.986
 2485SOL     OW 9351   7.094   5.576   5.530
 2485SOL    HW1 9352   7.014   5.526   5.545
 2485SOL    HW2 9353   7.127   5.543   5.446
 2486SOL     OW 9354   9.387   0.148   6.739
 2486SOL    HW1 9355   9.344   0.077   6.786
 2486SOL    HW2 9356   9.426   0.105   6.662
 2487SOL     OW 9357   2.750   0.458  10.028
 2487SOL    HW1 9358   2.729   0.489   9.940
 2487SOL    HW2 9359   2.693   0.509  10.086
 2488SOL     OW 9360   4.675   5.160   7.191
 2488SOL    HW1 9361   4.677   5.239   7.138
 2488SOL    HW2 9362   4.765   5.146   7.219
 2489SOL     OW 9363  14.503   2.625   3.551
 2489SOL    HW1 9364  14.494   2.715   3.520
 2489SOL    HW2 9365  14.475   2.571   3.476
 2490SOL     OW 9366  10.663  12.839  11.489
 2490SOL    HW1 9367  10.719  12.857  11.564
 2490SOL    HW2 9368  10.721  12.798  11.424
 2491SOL     OW 9369   6.182  13.877   9.224
 2491SOL    HW1 9370   6.107  13.878   9.165
 2491SOL    HW2 9371   6.242  13.813   9.185
 2492SOL     OW 9372   3.486  13.631   3.123
 2492SOL    HW1 9373   3.441  13.549   3.101
 2492SOL    HW2 9374   3.417  13.697   3.121
 2493SOL     OW 9375   5.514   1.729   3.583
 2493SOL    HW1 9376   5.597   1.728   3.630
 2493SOL    HW2 9377   5.538   1.712   3.492
 2494SOL     OW 9378   9.263  13.551  11.103
 2494SOL    HW1 9379   9.300  13.560  11.016
 2494SOL    HW2 9380   9.168  13.556  11.089
 2495SOL     OW 9381  13.989   0.165   1.071
 2495SOL    HW1 9382  14.008   0.089   1.016
 2495SOL    HW2 9383  14.033   0.146   1.154
 2496SOL     OW 9384  10.392   9.539  14.306
 2496SOL    HW1 9385  10.299   9.514  14.304
 2496SOL    HW2 9386  10.437   9.462  14.340
 2497SOL     OW 9387   8.937   7.621   7.058
 2497SOL    HW1 9388   8.857   7.665   7.029
 2497SOL    HW2 9389   9.006   7.685   7.043
 2498SOL     OW 9390  13.123   8.013   5.018
 2498SOL    HW1 9391  13.101   7.920   5.006
 2498SOL    HW2 9392  13.064   8.042   5.088
 2499SOL     OW 9393   9.174  11.317   7.074
 2499SOL    HW1 9394   9.158  11.223   7.079
 2499SOL    HW2 9395   9.111  11.349   7.010
 2500SOL     OW 9396   6.697  13.984   9.955
 2500SOL    HW1 9397   6.673  14.074   9.978
 2500SOL    HW2 9398   6.624  13.952   9.903
 2501SOL     OW 9399   7.500  10.230   4.765
 2501SOL    HW1 9400   7.416  10.225   4.719
 2501SOL    HW2 9401   7.533  10.140   4.764
 2502SOL     OW 9402   8.088   2.641   6.409
 2502SOL    HW1 9403   8.110   2.705   6.342
 2502SOL    HW2 9404   8.103   2.556   6.368
 2503SOL     OW 9405   4.381  10.260   2.780
 2503SOL    HW1 9406   4.379  10.178   2.829
 2503SOL    HW2 9407   4.473  10.275   2.760
 2504SOL     OW 9408   6.621   4.500  12.915
 2504SOL    HW1 9409   6.578   4.570  12.867
 2504SOL    HW2 9410   6.713   4.506  12.890
 2505SOL     OW 9411   7.810  10.162  13.616
 2505SOL    HW1 9412   7.739  10.117  13.569
 2505SOL    HW2 9413   7.797  10.254  13.596
 2506SOL     OW 9414   4.456   1.367   6.073
 2506SOL    HW1 9415   4.527   1.349   6.011
 2506SOL    HW2 9416   4.441   1.284   6.118
 2507SOL     OW 9417   4.648   0.537  12.451
 2507SOL    HW1 9418   4.615   0.535  12.541
 2507SOL    HW2 9419   4.726   0.481  12.453
 2508SOL     OW 9420   1.385   3.288   5.895
 2508SOL    HW1 9421   1.341   3.360   5.850
 2508SOL    HW2 9422   1.369   3.305   5.988
 2509SOL     OW 9423  11.161   5.203   2.461
 2509SOL    HW1 9424  11.219   5.209   2.538
 2509SOL    HW2 9425  11.217   5.226   2.387
 2510SOL     OW 9426   2.375   4.870  14.786
 2510SOL    HW1 9427   2.406   4.959  14.802
 2510SOL    HW2 9428   2.363   4.833  14.873
 2511SOL     OW 9429   6.959  10.569   6.118
 2511SOL    HW1 9430   7.019  10.496   6.103
 2511SOL    HW2 9431   7.009  10.647   6.097
 2512SOL     OW 9432  12.314  13.597   0.636
 2512SOL    HW1 9433  12.371  13.669   0.608
 2512SOL    HW2 9434  12.352  13.568   0.720
 2513SOL     OW 9435   4.317  11.287   9.932
 2513SOL    HW1 9436   4.246  11.276   9.996
 2513SOL    HW2 9437   4.323  11.202   9.889
 2514SOL     OW 9438   2.482   8.204   7.059
 2514SOL    HW1 9439   2.499   8.278   7.000
 2514SOL    HW2 9440   2.552   8.209   7.124
 2515SOL     OW 9441   1.458   0.320   4.074
 2515SOL    HW1 9442   1.466   0.324   4.169
 2515SOL    HW2 9443   1.513   0.392   4.042
 2516SOL     OW 9444   5.313   0.939   0.925
 2516SOL    HW1 9445   5.346   0.850   0.909
 2516SOL    HW2 9446   5.307   0.945   1.020
 2517SOL     OW 9447   2.897   0.906   9.731
 2517SOL    HW1 9448   2.954   0.961   9.784
 2517SOL    HW2 9449   2.810   0.919   9.767
 2518SOL     OW 9450   7.214   0.040  14.178
 2518SOL    HW1 9451   7.184   0.102  14.112
 2518SOL    HW2 9452   7.182  14.837  14.148
 2519SOL     OW 9453   0.426  14.224  11.195
 2519SOL    HW1 9454   0.521  14.218  11.183
 2519SOL    HW2 9455   0.403  14.146  11.246
 2520SOL     OW 9456   7.335  11.005   4.910
 2520SOL    HW1 9457   7.425  11.037   4.906
 2520SOL    HW2 9458   7.288  11.054   4.843
 2521SOL     OW 9459   6.448  11.798   2.212
 2521SOL    HW1 9460   6.489  11.791   2.126
 2521SOL    HW2 9461   6.521  11.808   2.273
 2522SOL     OW 9462   1.585   2.056   3.299
 2522SOL    HW1 9463   1.610   2.068   3.390
 2522SOL    HW2 9464   1.619   1.969   3.276
 2523SOL     OW 9465  12.222   1.766   3.186
 2523SOL    HW1 9466  12.186   1.824   3.253
 2523SOL    HW2 9467  12.204   1.678   3.218
 2524SOL     OW 9468  13.359  10.119  13.784
 2524SOL    HW1 9469  13.272  10.090  13.760
 2524SOL    HW2 9470  13.400  10.144  13.701
 2525SOL     OW 9471  10.156  13.737   3.037
 2525SOL    HW1 9472  10.078  13.791   3.040
 2525SOL    HW2 9473  10.185  13.741   2.946
 2526SOL     OW 9474   7.403   2.494   0.607
 2526SOL    HW1 9475   7.390   2.492   0.512
 2526SOL    HW2 9476   7.471   2.429   0.623
 2527SOL     OW 9477   8.201   1.432   7.150
 2527SOL    HW1 9478   8.189   1.446   7.244
 2527SOL    HW2 9479   8.147   1.499   7.108
 2528SOL     OW 9480   0.907   5.425   4.796
 2528SOL    HW1 9481   0.851   5.493   4.834
 2528SOL    HW2 9482   0.877   5.344   4.837
 2529SOL     OW 9483   9.549   4.904  12.106
 2529SOL    HW1 9484   9.638   4.925  12.134
 2529SOL    HW2 9485   9.531   4.818  12.145
 2530SOL     OW 9486   7.526  10.248   7.591
 2530SOL    HW1 9487   7.615  10.245   7.626
 2530SOL    HW2 9488   7.479  10.180   7.639
 2531SOL     OW 9489   3.198   3.893   0.883
 2531SOL    HW1 9490   3.225   3.948   0.809
 2531SOL    HW2 9491   3.222   3.944   0.960
 2532SOL     OW 9492   2.232   5.001   3.469
 2532SOL    HW1 9493   2.294   5.042   3.409
 2532SOL    HW2 9494   2.152   5.053   3.461
 2533SOL     OW 9495  14.072  12.921  12.531
 2533SOL    HW1 9496  14.000  12.984  12.534
 2533SOL    HW2 9497  14.046  12.858  12.463
 2534SOL     OW 9498  13.895  10.516  13.540
 2534SOL    HW1 9499  13.829  10.447  13.532
 2534SOL    HW2 9500  13.917  10.518  13.633
 2535SOL     OW 9501  14.301  13.732  11.178
 2535SOL    HW1 9502  14.240  13.805  11.173
 2535SOL    HW2 9503  14.245  13.655  11.183
 2536SOL     OW 9504   0.326   6.587   5.696
 2536SOL    HW1 9505   0.283   6.587   5.610
 2536SOL    HW2 9506   0.386   6.512   5.692
 2537SOL     OW 9507   3.294   3.881  13.476
 2537SOL    HW1 9508   3.326   3.966  13.505
 2537SOL    HW2 9509   3.303   3.883  13.380
 2538SOL     OW 9510   2.042  10.954   6.360
 2538SOL    HW1 9511   2.003  10.867   6.367
 2538SOL    HW2 9512   1.971  11.010   6.329
 2539SOL     OW 9513   6.758   9.916   2.243
 2539SOL    HW1 9514   6.796   9.828   2.247
 2539SOL    HW2 9515   6.720   9.929   2.330
 2540SOL     OW 9516   9.086   1.687  10.906
 2540SOL    HW1 9517   9.107   1.754  10.971
 2540SOL    HW2 9518   9.136   1.712  10.828
 2541SOL     OW 9519  11.965  12.080   5.037
 2541SOL    HW1 9520  11.891  12.113   5.088
 2541SOL    HW2 9521  12.040  12.086   5.097
 2542SOL     OW 9522   6.499   6.779  12.476
 2542SOL    HW1 9523   6.492   6.696  12.428
 2542SOL    HW2 9524   6.501   6.846  12.408
 2543SOL     OW 9525   4.953  10.603  12.873
 2543SOL    HW1 9526   4.876  10.626  12.924
 2543SOL    HW2 9527   5.026  10.613  12.934
 2544SOL     OW 9528  11.416   3.448   8.249
 2544SOL    HW1 9529  11.424   3.385   8.321
 2544SOL    HW2 9530  11.487   3.511   8.265
 2545SOL     OW 9531  13.086   0.260   0.207
 2545SOL    HW1 9532  13.033   0.212   0.144
 2545SOL    HW2 9533  13.127   0.330   0.156
 2546SOL     OW 9534   4.026   2.469   4.379
 2546SOL    HW1 9535   3.952   2.493   4.434
 2546SOL    HW2 9536   4.084   2.418   4.436
 2547SOL     OW 9537   3.919   9.592  12.908
 2547SOL    HW1 9538   4.003   9.547  12.916
 2547SOL    HW2 9539   3.880   9.558  12.828
 2548SOL     OW 9540   5.441  12.824   8.560
 2548SOL    HW1 9541   5.438  12.903   8.615
 2548SOL    HW2 9542   5.365  12.773   8.587
 2549SOL     OW 9543   6.997  12.981   8.321
 2549SOL    HW1 9544   6.993  12.985   8.417
 2549SOL    HW2 9545   7.034  12.894   8.303
 2550SOL     OW 9546   3.033  12.337   1.298
 2550SOL    HW1 9547   3.010  12.260   1.245
 2550SOL    HW2 9548   3.013  12.411   1.241
 2551SOL     OW 9549   5.422  11.986   2.129
 2551SOL    HW1 9550   5.343  12.039   2.126
 2551SOL    HW2 9551   5.478  12.030   2.193
 2552SOL     OW 9552  13.610  12.410   8.755
 2552SOL    HW1 9553  13.643  12.322   8.740
 2552SOL    HW2 9554  13.637  12.460   8.678
 2553SOL     OW 9555  10.460   4.209   0.588
 2553SOL    HW1 9556  10.401   4.284   0.598
 2553SOL    HW2 9557  10.502   4.223   0.503
 2554SOL     OW 9558  13.927  10.541   1.380
 2554SOL    HW1 9559  13.970  10.552   1.465
 2554SOL    HW2 9560  13.849  10.595   1.384
 2555SOL     OW 9561   2.983  13.045   1.706
 2555SOL    HW1 9562   2.920  12.985   1.666
 2555SOL    HW2 9563   2.982  13.023   1.799
 2556SOL     OW 9564   2.074  12.576   0.437
 2556SOL    HW1 9565   2.031  12.624   0.366
 2556SOL    HW2 9566   2.008  12.572   0.506
 2557SOL     OW 9567   2.944   2.994  14.225
 2557SOL    HW1 9568   2.981   2.954  14.304
 2557SOL    HW2 9569   2.947   2.924  14.159
 2558SOL     OW 9570  11.763   6.467   8.286
 2558SOL    HW1 9571  11.786   6.537   8.225
 2558SOL    HW2 9572  11.847   6.435   8.319
 2559SOL     OW 9573   4.196   3.030  13.565
 2559SOL    HW1 9574   4.260   3.064  13.629
 2559SOL    HW2 9575   4.239   3.040  13.480
 2560SOL     OW 9576   5.314   9.209  14.803
 2560SOL    HW1 9577   5.278   9.264  14.873
 2560SOL    HW2 9578   5.403   9.189  14.832
 2561SOL     OW 9579  12.598  11.082   9.289
 2561SOL    HW1 9580  12.636  11.162   9.252
 2561SOL    HW2 9581  12.530  11.056   9.227
 2562SOL     OW 9582   2.232   0.888   1.733
 2562SOL    HW1 9583   2.194   0.809   1.773
 2562SOL    HW2 9584   2.319   0.861   1.705
 2563SOL     OW 9585   3.039  10.535   3.356
 2563SOL    HW1 9586   3.046  10.596   3.430
 2563SOL    HW2 9587   3.085  10.580   3.284
 2564SOL     OW 9588  14.439  13.875   0.831
 2564SOL    HW1 9589  14.351  13.894   0.799
 2564SOL    HW2 9590  14.432  13.883   0.927
 2565SOL     OW 9591  12.319   6.927  13.348
 2565SOL    HW1 9592  12.243   6.929  13.289
 2565SOL    HW2 9593  12.348   6.836  13.347
 2566SOL     OW 9594   1.867   3.842  14.046
 2566SOL    HW1 9595   1.890   3.858  13.954
 2566SOL    HW2 9596   1.933   3.779  14.076
 2567SOL     OW 9597   3.419  12.545  14.795
 2567SOL    HW1 9598   3.508  12.564  14.764
 2567SOL    HW2 9599   3.430  12.471  14.854
 2568SOL     OW 9600   9.131   2.201   0.653
 2568SOL    HW1 9601   9.198   2.246   0.602
 2568SOL    HW2 9602   9.137   2.241   0.740
 2569SOL     OW 9603  11.016  10.545   4.488
 2569SOL    HW1 9604  10.981  10.559   4.576
 2569SOL    HW2 9605  10.938  10.531   4.434
 2570SOL     OW 9606   1.948  11.038   8.284
 2570SOL    HW1 9607   1.891  10.979   8.334
 2570SOL    HW2 9608   2.031  10.992   8.277
 2571SOL     OW 9609   5.031   8.862   5.111
 2571SOL    HW1 9610   5.038   8.848   5.017
 2571SOL    HW2 9611   5.100   8.808   5.149
 2572SOL     OW 9612   0.507   8.857   8.025
 2572SOL    HW1 9613   0.463   8.778   8.055
 2572SOL    HW2 9614   0.488   8.922   8.092
 2573SOL     OW 9615   2.171  10.200   3.005
 2573SOL    HW1 9616   2.083  10.232   3.026
 2573SOL    HW2 9617   2.178  10.117   3.053
 2574SOL     OW 9618  10.606   2.505   9.509
 2574SOL    HW1 9619  10.627   2.576   9.570
 2574SOL    HW2 9620  10.537   2.455   9.552
 2575SOL     OW 9621   0.470   1.461  13.821
 2575SOL    HW1 9622   0.529   1.392  13.851
 2575SOL    HW2 9623   0.423   1.488  13.900
 2576SOL     OW 9624  14.209   3.102   9.004
 2576SOL    HW1 9625  14.269   3.043   8.957
 2576SOL    HW2 9626  14.122   3.070   8.983
 2577SOL     OW 9627  14.825   2.127  12.168
 2577SOL    HW1 9628   0.032   2.131  12.201
 2577SOL    HW2 9629  14.826   2.183  12.090
 2578SOL     OW 9630   1.107   6.318   4.107
 2578SOL    HW1 9631   1.129   6.226   4.089
 2578SOL    HW2 9632   1.070   6.350   4.026
 2579SOL     OW 9633  11.748   3.173   1.424
 2579SOL    HW1 9634  11.662   3.167   1.382
 2579SOL    HW2 9635  11.800   3.104   1.384
 2580SOL     OW 9636  14.043   1.515  14.241
 2580SOL    HW1 9637  14.136   1.507  14.263
 2580SOL    HW2 9638  14.015   1.426  14.221
 2581SOL     OW 9639   3.553   8.974   2.452
 2581SOL    HW1 9640   3.512   8.982   2.365
 2581SOL    HW2 9641   3.646   8.985   2.436
 2582SOL     OW 9642  12.899   8.242   4.225
 2582SOL    HW1 9643  12.917   8.245   4.131
 2582SOL    HW2 9644  12.926   8.154   4.252
 2583SOL     OW 9645   6.818   1.333   8.093
 2583SOL    HW1 9646   6.866   1.389   8.155
 2583SOL    HW2 9647   6.744   1.386   8.064
 2584SOL     OW 9648  12.661  11.229   2.388
 2584SOL    HW1 9649  12.673  11.138   2.361
 2584SOL    HW2 9650  12.671  11.227   2.483
 2585SOL     OW 9651   8.505   1.884   0.667
 2585SOL    HW1 9652   8.479   1.924   0.750
 2585SOL    HW2 9653   8.567   1.946   0.628
 2586SOL     OW 9654  10.288   7.025   9.389
 2586SOL    HW1 9655  10.202   7.041   9.352
 2586SOL    HW2 9656  10.317   6.943   9.350
 2587SOL     OW 9657   2.175   3.727   0.128
 2587SOL    HW1 9658   2.261   3.756   0.100
 2587SOL    HW2 9659   2.151   3.787   0.199
 2588SOL     OW 9660   7.515  10.028  10.962
 2588SOL    HW1 9661   7.552   9.945  10.990
 2588SOL    HW2 9662   7.571  10.057  10.890
 2589SOL     OW 9663   4.625  12.457  11.675
 2589SOL    HW1 9664   4.704  12.406  11.690
 2589SOL    HW2 9665   4.610  12.452  11.580
 2590SOL     OW 9666  11.213   3.081   9.174
 2590SOL    HW1 9667  11.162   3.154   9.208
 2590SOL    HW2 9668  11.224   3.022   9.248
 2591SOL     OW 9669  14.326   9.604  14.847
 2591SOL    HW1 9670  14.271   9.641  14.778
 2591SOL    HW2 9671  14.305   9.511  14.848
 2592SOL     OW 9672  11.621   9.165   0.513
 2592SOL    HW1 9673  11.540   9.199   0.475
 2592SOL    HW2 9674  11.617   9.193   0.605
 2593SOL     OW 9675  14.287  12.879  12.873
 2593SOL    HW1 9676  14.362  12.822  12.885
 2593SOL    HW2 9677  14.217  12.820  12.844
 2594SOL     OW 9678   7.662   4.205   4.534
 2594SOL    HW1 9679   7.636   4.155   4.456
 2594SOL    HW2 9680   7.588   4.263   4.551
 2595SOL     OW 9681  14.481  12.907  14.853
 2595SOL    HW1 9682  14.527  12.834  14.812
 2595SOL    HW2 9683  14.512  12.907   0.062
 2596SOL     OW 9684   9.885  10.805   7.245
 2596SOL    HW1 9685   9.956  10.868   7.234
 2596SOL    HW2 9686   9.882  10.757   7.162
 2597SOL     OW 9687  13.548   8.466  10.984
 2597SOL    HW1 9688  13.607   8.391  10.973
 2597SOL    HW2 9689  13.523   8.490  10.894
 2598SOL     OW 9690   5.798   3.528   6.563
 2598SOL    HW1 9691   5.866   3.542   6.498
 2598SOL    HW2 9692   5.776   3.615   6.595
 2599SOL     OW 9693   7.311  12.244   1.347
 2599SOL    HW1 9694   7.283  12.157   1.317
 2599SOL    HW2 9695   7.230  12.285   1.378
 2600SOL     OW 9696  13.392  13.022   5.343
 2600SOL    HW1 9697  13.340  13.094   5.378
 2600SOL    HW2 9698  13.474  13.063   5.315
 2601SOL     OW 9699   7.506   5.605  11.997
 2601SOL    HW1 9700   7.560   5.651  11.933
 2601SOL    HW2 9701   7.450   5.549  11.945
 2602SOL     OW 9702  10.997  13.206   8.957
 2602SOL    HW1 9703  11.006  13.148   8.882
 2602SOL    HW2 9704  10.907  13.239   8.952
 2603SOL     OW 9705   2.281  11.664  14.467
 2603SOL    HW1 9706   2.249  11.591  14.521
 2603SOL    HW2 9707   2.202  11.717  14.451
 2604SOL     OW 9708   8.300   8.649   0.375
 2604SOL    HW1 9709   8.291   8.701   0.295
 2604SOL    HW2 9710   8.212   8.612   0.389
 2605SOL     OW 9711   4.633   9.193   5.765
 2605SOL    HW1 9712   4.657   9.184   5.857
 2605SOL    HW2 9713   4.538   9.206   5.766
 2606SOL     OW 9714   0.953   0.500  13.621
 2606SOL    HW1 9715   0.868   0.472  13.588
 2606SOL    HW2 9716   0.933   0.573  13.680
 2607SOL     OW 9717  14.717   9.076  12.682
 2607SOL    HW1 9718  14.761   9.016  12.742
 2607SOL    HW2 9719  14.672   9.138  12.740
 2608SOL     OW 9720   5.575   8.449   9.816
 2608SOL    HW1 9721   5.624   8.372   9.845
 2608SOL    HW2 9722   5.587   8.512   9.887
 2609SOL     OW 9723  10.554   6.430   6.859
 2609SOL    HW1 9724  10.619   6.434   6.929
 2609SOL    HW2 9725  10.604   6.399   6.783
 2610SOL     OW 9726   9.510   7.562   1.293
 2610SOL    HW1 9727   9.493   7.570   1.200
 2610SOL    HW2 9728   9.540   7.649   1.320
 2611SOL     OW 9729   4.670   8.786  13.035
 2611SOL    HW1 9730   4.663   8.872  13.076
 2611SOL    HW2 9731   4.721   8.801  12.955
 2612SOL     OW 9732   5.738   6.550  12.192
 2612SOL    HW1 9733   5.695   6.621  12.145
 2612SOL    HW2 9734   5.807   6.520  12.133
 2613SOL     OW 9735  10.025   2.805   1.006
 2613SOL    HW1 9736  10.026   2.866   1.079
 2613SOL    HW2 9737  10.090   2.839   0.945
 2614SOL     OW 9738  11.619  10.705   3.761
 2614SOL    HW1 9739  11.567  10.779   3.729
 2614SOL    HW2 9740  11.610  10.639   3.692
 2615SOL     OW 9741  10.076   4.685  10.167
 2615SOL    HW1 9742  10.056   4.746  10.239
 2615SOL    HW2 9743  10.016   4.709  10.097
 2616SOL     OW 9744   8.877   4.674  11.079
 2616SOL    HW1 9745   8.857   4.727  11.002
 2616SOL    HW2 9746   8.799   4.680  11.134
 2617SOL     OW 9747   2.481   3.592  11.735
 2617SOL    HW1 9748   2.576   3.586  11.743
 2617SOL    HW2 9749   2.455   3.506  11.702
 2618SOL     OW 9750   6.443   1.531  10.035
 2618SOL    HW1 9751   6.365   1.549   9.982
 2618SOL    HW2 9752   6.476   1.617  10.060
 2619SOL     OW 9753   9.146  10.790  13.835
 2619SOL    HW1 9754   9.069  10.794  13.779
 2619SOL    HW2 9755   9.111  10.792  13.924
 2620SOL     OW 9756  12.492   1.986  13.824
 2620SOL    HW1 9757  12.470   2.035  13.903
 2620SOL    HW2 9758  12.512   1.898  13.856
 2621SOL     OW 9759  13.266   7.796   7.826
 2621SOL    HW1 9760  13.221   7.804   7.742
 2621SOL    HW2 9761  13.243   7.708   7.857
 2622SOL     OW 9762   4.205  12.004   6.084
 2622SOL    HW1 9763   4.142  11.978   6.151
 2622SOL    HW2 9764   4.205  12.100   6.088
 2623SOL     OW 9765  13.434   7.562  13.280
 2623SOL    HW1 9766  13.361   7.501  13.289
 2623SOL    HW2 9767  13.512   7.510  13.300
 2624SOL     OW 9768   2.496   9.474  11.903
 2624SOL    HW1 9769   2.484   9.379  11.898
 2624SOL    HW2 9770   2.409   9.508  11.924
 2625SOL     OW 9771  10.985   4.230   5.829
 2625SOL    HW1 9772  11.004   4.243   5.922
 2625SOL    HW2 9773  11.057   4.176   5.797
 2626SOL     OW 9774   8.218   5.920  14.269
 2626SOL    HW1 9775   8.208   5.876  14.353
 2626SOL    HW2 9776   8.161   5.870  14.210
 2627SOL     OW 9777   6.301  13.011  14.438
 2627SOL    HW1 9778   6.365  13.070  14.478
 2627SOL    HW2 9779   6.310  12.929  14.487
 2628SOL     OW 9780   5.971   1.400   7.093
 2628SOL    HW1 9781   5.968   1.311   7.060
 2628SOL    HW2 9782   6.055   1.405   7.140
 2629SOL     OW 9783  10.775   2.398   0.193
 2629SOL    HW1 9784  10.720   2.320   0.198
 2629SOL    HW2 9785  10.753   2.438   0.108
 2630SOL     OW 9786   8.554  11.881  11.332
 2630SOL    HW1 9787   8.495  11.810  11.357
 2630SOL    HW2 9788   8.504  11.960  11.350
 2631SOL     OW 9789  13.714   3.925  13.376
 2631SOL    HW1 9790  13.729   3.888  13.463
 2631SOL    HW2 9791  13.634   3.978  13.386
 2632SOL     OW 9792  14.459   8.541  11.380
 2632SOL    HW1 9793  14.524   8.602  11.345
 2632SOL    HW2 9794  14.390   8.539  11.314
 2633SOL     OW 9795   5.334   5.583   1.687
 2633SOL    HW1 9796   5.335   5.611   1.595
 2633SOL    HW2 9797   5.376   5.497   1.686
 2634SOL     OW 9798   5.107   7.071  10.038
 2634SOL    HW1 9799   5.096   7.013   9.963
 2634SOL    HW2 9800   5.032   7.131  10.032
 2635SOL     OW 9801   9.630  14.037   4.158
 2635SOL    HW1 9802   9.593  13.976   4.094
 2635SOL    HW2 9803   9.561  14.101   4.173
 2636SOL     OW 9804   7.760  14.065  10.823
 2636SOL    HW1 9805   7.665  14.057  10.824
 2636SOL    HW2 9806   7.777  14.159  10.830
 2637SOL     OW 9807  14.620   6.655   5.581
 2637SOL    HW1 9808  14.627   6.560   5.578
 2637SOL    HW2 9809  14.563   6.673   5.655
 2638SOL     OW 9810  12.426   6.421  11.224
 2638SOL    HW1 9811  12.389   6.398  11.138
 2638SOL    HW2 9812  12.485   6.349  11.244
 2639SOL     OW 9813  10.205   3.637  12.198
 2639SOL    HW1 9814  10.186   3.547  12.171
 2639SOL    HW2 9815  10.121   3.682  12.196
 2640SOL     OW 9816  10.146   1.821   3.576
 2640SOL    HW1 9817  10.142   1.877   3.499
 2640SOL    HW2 9818  10.216   1.858   3.630
 2641SOL     OW 9819   7.518   0.696   2.116
 2641SOL    HW1 9820   7.425   0.682   2.100
 2641SOL    HW2 9821   7.554   0.721   2.031
 2642SOL     OW 9822   4.916   4.425   2.039
 2642SOL    HW1 9823   4.934   4.498   2.098
 2642SOL    HW2 9824   4.985   4.361   2.057
 2643SOL     OW 9825   2.384  11.374  10.029
 2643SOL    HW1 9826   2.435  11.337   9.957
 2643SOL    HW2 9827   2.409  11.466  10.031
 2644SOL     OW 9828   1.451  12.310   1.263
 2644SOL    HW1 9829   1.363  12.280   1.243
 2644SOL    HW2 9830   1.443  12.405   1.273
 2645SOL     OW 9831  10.417   6.029  14.794
 2645SOL    HW1 9832  10.479   6.100  14.807
 2645SOL    HW2 9833  10.342   6.051  14.849
 2646SOL     OW 9834  10.030   0.063  14.677
 2646SOL    HW1 9835  10.120   0.030  14.682
 2646SOL    HW2 9836  10.012   0.095  14.766
 2647SOL     OW 9837   6.085   0.561  13.549
 2647SOL    HW1 9838   6.109   0.563  13.456
 2647SOL    HW2 9839   5.998   0.522  13.551
 2648SOL     OW 9840  11.455  10.673  11.989
 2648SOL    HW1 9841  11.420  10.718  11.912
 2648SOL    HW2 9842  11.378  10.659  12.045
 2649SOL     OW 9843  13.663  14.308   4.508
 2649SOL    HW1 9844  13.644  14.240   4.573
 2649SOL    HW2 9845  13.617  14.279   4.429
 2650SOL     OW 9846   9.217   2.071  13.274
 2650SOL    HW1 9847   9.286   2.006  13.270
 2650SOL    HW2 9848   9.262   2.154  13.287
 2651SOL     OW 9849   0.944   0.576   2.688
 2651SOL    HW1 9850   1.002   0.594   2.762
 2651SOL    HW2 9851   0.991   0.610   2.612
 2652SOL     OW 9852   1.353   8.538   3.324
 2652SOL    HW1 9853   1.423   8.562   3.263
 2652SOL    HW2 9854   1.398   8.526   3.408
 2653SOL     OW 9855  11.846   1.094   5.973
 2653SOL    HW1 9856  11.798   1.177   5.967
 2653SOL    HW2 9857  11.795   1.033   5.919
 2654SOL     OW 9858   3.211  10.524   8.061
 2654SOL    HW1 9859   3.193  10.452   8.122
 2654SOL    HW2 9860   3.277  10.576   8.105
 2655SOL     OW 9861  11.437   7.732   0.338
 2655SOL    HW1 9862  11.356   7.755   0.382
 2655SOL    HW2 9863  11.453   7.641   0.364
 2656SOL     OW 9864   9.303  10.064   4.192
 2656SOL    HW1 9865   9.233  10.122   4.223
 2656SOL    HW2 9866   9.365  10.060   4.265
 2657SOL     OW 9867   4.438  11.804  11.501
 2657SOL    HW1 9868   4.470  11.895  11.502
 2657SOL    HW2 9869   4.403  11.790  11.589
 2658SOL     OW 9870   5.839  13.731  13.342
 2658SOL    HW1 9871   5.763  13.765  13.296
 2658SOL    HW2 9872   5.807  13.715  13.431
 2659SOL     OW 9873   4.302   4.440   0.412
 2659SOL    HW1 9874   4.298   4.435   0.316
 2659SOL    HW2 9875   4.263   4.357   0.442
 2660SOL     OW 9876   0.951   1.912   6.643
 2660SOL    HW1 9877   0.963   1.990   6.697
 2660SOL    HW2 9878   0.857   1.895   6.645
 2661SOL     OW 9879  12.958   5.781   2.134
 2661SOL    HW1 9880  12.982   5.721   2.064
 2661SOL    HW2 9881  12.961   5.728   2.214
 2662SOL     OW 9882  10.369   0.003   7.390
 2662SOL    HW1 9883  10.425  14.871   7.313
 2662SOL    HW2 9884  10.291   0.047   7.355
 2663SOL     OW 9885   8.597   8.698   4.100
 2663SOL    HW1 9886   8.532   8.638   4.137
 2663SOL    HW2 9887   8.647   8.728   4.176
 2664SOL     OW 9888   6.596  12.483   6.834
 2664SOL    HW1 9889   6.628  12.491   6.924
 2664SOL    HW2 9890   6.513  12.531   6.835
 2665SOL     OW 9891   5.306   6.955   8.208
 2665SOL    HW1 9892   5.357   7.010   8.268
 2665SOL    HW2 9893   5.352   6.963   8.124
 2666SOL     OW 9894  14.237   0.281  12.837
 2666SOL    HW1 9895  14.222   0.193  12.871
 2666SOL    HW2 9896  14.263   0.267  12.746
 2667SOL     OW 9897   9.720  14.668   8.618
 2667SOL    HW1 9898   9.686  14.585   8.653
 2667SOL    HW2 9899   9.808  14.647   8.588
 2668SOL     OW 9900  14.061   2.057  12.041
 2668SOL    HW1 9901  14.061   2.051  12.136
 2668SOL    HW2 9902  14.107   1.979  12.012
 2669SOL     OW 9903  10.095   5.193   7.987
 2669SOL    HW1 9904  10.181   5.222   7.958
 2669SOL    HW2 9905  10.051   5.272   8.017
 2670SOL     OW 9906  12.527  14.395   4.132
 2670SOL    HW1 9907  12.606  14.444   4.155
 2670SOL    HW2 9908  12.488  14.372   4.216
 2671SOL     OW 9909  12.930  10.320   0.590
 2671SOL    HW1 9910  12.842  10.346   0.615
 2671SOL    HW2 9911  12.953  10.380   0.519
 2672SOL     OW 9912  11.069   6.563  13.380
 2672SOL    HW1 9913  11.072   6.544  13.474
 2672SOL    HW2 9914  11.138   6.509  13.342
 2673SOL     OW 9915   3.762   5.628   8.576
 2673SOL    HW1 9916   3.847   5.672   8.582
 2673SOL    HW2 9917   3.725   5.635   8.664
 2674SOL     OW 9918  13.475  12.611   5.449
 2674SOL    HW1 9919  13.386  12.643   5.462
 2674SOL    HW2 9920  13.527  12.690   5.435
 2675SOL     OW 9921  12.549   7.819  11.978
 2675SOL    HW1 9922  12.546   7.773  11.893
 2675SOL    HW2 9923  12.576   7.908  11.956
 2676SOL     OW 9924   2.065  14.408   2.898
 2676SOL    HW1 9925   1.993  14.466   2.920
 2676SOL    HW2 9926   2.144  14.459   2.916
 2677SOL     OW 9927  10.783  12.643   6.831
 2677SOL    HW1 9928  10.855  12.685   6.878
 2677SOL    HW2 9929  10.819  12.559   6.803
 2678SOL     OW 9930  13.061   8.794   1.733
 2678SOL    HW1 9931  13.150   8.759   1.739
 2678SOL    HW2 9932  13.059   8.867   1.795
 2679SOL     OW 9933   5.254   5.721   2.921
 2679SOL    HW1 9934   5.348   5.710   2.937
 2679SOL    HW2 9935   5.212   5.680   2.997
 2680SOL     OW 9936   2.044  14.691  12.707
 2680SOL    HW1 9937   2.072  14.747  12.634
 2680SOL    HW2 9938   2.119  14.635  12.724
 2681SOL     OW 9939   8.562  12.984   6.063
 2681SOL    HW1 9940   8.561  12.973   6.158
 2681SOL    HW2 9941   8.473  13.010   6.041
 2682SOL     OW 9942  14.468  13.169  10.588
 2682SOL    HW1 9943  14.529  13.177  10.662
 2682SOL    HW2 9944  14.410  13.245  10.597
 2683SOL     OW 9945   1.231   9.749  11.015
 2683SOL    HW1 9946   1.148   9.741  11.062
 2683SOL    HW2 9947   1.297   9.756  11.084
 2684SOL     OW 9948   3.210   1.349  10.538
 2684SOL    HW1 9949   3.287   1.336  10.594
 2684SOL    HW2 9950   3.185   1.440  10.554
 2685SOL     OW 9951  14.522   5.532   9.272
 2685SOL    HW1 9952  14.604   5.551   9.318
 2685SOL    HW2 9953  14.465   5.495   9.340
 2686SOL     OW 9954  11.456  10.151  11.249
 2686SOL    HW1 9955  11.410  10.225  11.208
 2686SOL    HW2 9956  11.549  10.175  11.243
 2687SOL     OW 9957  13.263   8.562   2.708
 2687SOL    HW1 9958  13.233   8.506   2.780
 2687SOL    HW2 9959  13.355   8.580   2.728
 2688SOL     OW 9960  13.671   8.209   3.165
 2688SOL    HW1 9961  13.671   8.216   3.260
 2688SOL    HW2 9962  13.762   8.224   3.139
 2689SOL     OW 9963   0.173   9.048   4.262
 2689SOL    HW1 9964   0.110   8.978   4.276
 2689SOL    HW2 9965   0.249   9.005   4.224
 2690SOL     OW 9966   8.479  10.821   0.877
 2690SOL    HW1 9967   8.489  10.842   0.784
 2690SOL    HW2 9968   8.520  10.736   0.887
 2691SOL     OW 9969   3.167  14.047  14.793
 2691SOL    HW1 9970   3.159  14.034  14.698
 2691SOL    HW2 9971   3.172  14.142  14.803
 2692SOL     OW 9972   5.333   4.935  12.149
 2692SOL    HW1 9973   5.355   4.842  12.150
 2692SOL    HW2 9974   5.411   4.977  12.112
 2693SOL     OW 9975   9.136   6.519   4.053
 2693SOL    HW1 9976   9.146   6.553   4.142
 2693SOL    HW2 9977   9.145   6.596   3.997
 2694SOL     OW 9978   7.769   5.577   5.013
 2694SOL    HW1 9979   7.713   5.648   5.045
 2694SOL    HW2 9980   7.739   5.562   4.923
 2695SOL     OW 9981   7.769   8.742   2.962
 2695SOL    HW1 9982   7.763   8.688   2.883
 2695SOL    HW2 9983   7.787   8.830   2.929
 2696SOL     OW 9984   6.361  12.007   3.046
 2696SOL    HW1 9985   6.449  12.000   3.082
 2696SOL    HW2 9986   6.311  11.939   3.092
 2697SOL     OW 9987   8.387   3.936  14.798
 2697SOL    HW1 9988   8.327   3.922  14.726
 2697SOL    HW2 9989   8.331   3.962  14.872
 2698SOL     OW 9990   5.710   6.878  12.847
 2698SOL    HW1 9991   5.795   6.834  12.842
 2698SOL    HW2 9992   5.690   6.901  12.756
 2699SOL     OW 9993   7.014   4.192   9.968
 2699SOL    HW1 9994   7.019   4.096   9.967
 2699SOL    HW2 9995   7.040   4.218   9.880
 2700SOL     OW 9996  11.242   7.473  12.220
 2700SOL    HW1 9997  11.160   7.509  12.251
 2700SOL    HW2 9998  11.223   7.441  12.131
 2701SOL     OW 9999   9.943  10.832   2.969
 2701SOL    HW110000   9.917  10.749   2.928
 2701SOL    HW210001  10.037  10.838   2.953
 2702SOL     OW10002   0.669   1.721   6.404
 2702SOL    HW110003   0.679   1.768   6.487
 2702SOL    HW210004   0.746   1.746   6.353
 2703SOL     OW10005   4.950   7.741  14.118
 2703SOL    HW110006   4.905   7.802  14.059
 2703SOL    HW210007   5.002   7.796  14.176
 2704SOL     OW10008   1.485   7.561   6.263
 2704SOL    HW110009   1.409   7.599   6.220
 2704SOL    HW210010   1.560   7.599   6.218
 2705SOL     OW10011  11.379   6.709   8.808
 2705SOL    HW110012  11.336   6.775   8.753
 2705SOL    HW210013  11.465   6.745   8.827
 2706SOL     OW10014  12.112   2.665   5.294
 2706SOL    HW110015  12.167   2.698   5.222
 2706SOL    HW210016  12.048   2.735   5.308
 2707SOL     OW10017   5.586  12.744   2.005
 2707SOL    HW110018   5.565  12.656   1.976
 2707SOL    HW210019   5.621  12.733   2.094
 2708SOL     OW10020   4.997   0.696   9.168
 2708SOL    HW110021   5.012   0.724   9.078
 2708SOL    HW210022   5.041   0.612   9.175
 2709SOL     OW10023  11.121   7.692   2.362
 2709SOL    HW110024  11.048   7.752   2.379
 2709SOL    HW210025  11.192   7.725   2.416
 2710SOL     OW10026  14.655  12.564   3.013
 2710SOL    HW110027  14.646  12.475   3.046
 2710SOL    HW210028  14.646  12.555   2.918
 2711SOL     OW10029   8.511   3.383   5.711
 2711SOL    HW110030   8.591   3.412   5.755
 2711SOL    HW210031   8.514   3.427   5.626
 2712SOL     OW10032   0.365  11.315   5.713
 2712SOL    HW110033   0.282  11.319   5.666
 2712SOL    HW210034   0.340  11.313   5.805
 2713SOL     OW10035  11.481  12.332   5.571
 2713SOL    HW110036  11.535  12.407   5.546
 2713SOL    HW210037  11.449  12.296   5.489
 2714SOL     OW10038   4.151   8.977   0.756
 2714SOL    HW110039   4.186   8.926   0.829
 2714SOL    HW210040   4.212   9.051   0.747
 2715SOL     OW10041  12.862  12.635   6.914
 2715SOL    HW110042  12.803  12.584   6.969
 2715SOL    HW210043  12.948  12.597   6.930
 2716SOL     OW10044   0.706   0.155   2.611
 2716SOL    HW110045   0.702   0.246   2.581
 2716SOL    HW210046   0.717   0.162   2.706
 2717SOL     OW10047   0.501   3.230   0.695
 2717SOL    HW110048   0.441   3.304   0.699
 2717SOL    HW210049   0.457   3.167   0.637
 2718SOL     OW10050  10.376  10.409   0.359
 2718SOL    HW110051  10.318  10.361   0.301
 2718SOL    HW210052  10.322  10.477   0.397
 2719SOL     OW10053  10.396  12.868  11.565
 2719SOL    HW110054  10.397  12.955  11.525
 2719SOL    HW210055  10.468  12.821  11.523
 2720SOL     OW10056   4.300  10.854   5.541
 2720SOL    HW110057   4.355  10.917   5.588
 2720SOL    HW210058   4.290  10.782   5.602
 2721SOL     OW10059  14.053   3.897   1.067
 2721SOL    HW110060  13.963   3.894   1.100
 2721SOL    HW210061  14.098   3.955   1.127
 2722SOL     OW10062   6.046   2.722   4.672
 2722SOL    HW110063   6.040   2.805   4.624
 2722SOL    HW210064   6.029   2.655   4.605
 2723SOL     OW10065   8.649   3.466   6.822
 2723SOL    HW110066   8.664   3.500   6.733
 2723SOL    HW210067   8.714   3.397   6.832
 2724SOL     OW10068   1.014  14.740  14.601
 2724SOL    HW110069   0.935  14.734  14.547
 2724SOL    HW210070   1.007  14.669  14.664
 2725SOL     OW10071   2.129   2.696  13.990
 2725SOL    HW110072   2.074   2.762  14.031
 2725SOL    HW210073   2.179   2.744  13.924
 2726SOL     OW10074  11.288  12.789  12.448
 2726SOL    HW110075  11.230  12.824  12.516
 2726SOL    HW210076  11.376  12.810  12.477
 2727SOL     OW10077  10.529  10.324   0.985
 2727SOL    HW110078  10.510  10.247   0.930
 2727SOL    HW210079  10.621  10.315   1.008
 2728SOL     OW10080   7.139  12.057   6.379
 2728SOL    HW110081   7.087  11.977   6.380
 2728SOL    HW210082   7.176  12.059   6.291
 2729SOL     OW10083   2.987   6.142  12.562
 2729SOL    HW110084   2.913   6.094  12.598
 2729SOL    HW210085   2.987   6.225  12.610
 2730SOL     OW10086  11.985   6.571   6.225
 2730SOL    HW110087  12.056   6.566   6.162
 2730SOL    HW210088  12.001   6.652   6.274
 2731SOL     OW10089   0.083   2.538   8.234
 2731SOL    HW110090   0.068   2.505   8.145
 2731SOL    HW210091   0.141   2.613   8.222
 2732SOL     OW10092   2.765   1.987  13.922
 2732SOL    HW110093   2.695   2.046  13.894
 2732SOL    HW210094   2.814   1.968  13.841
 2733SOL     OW10095   8.540   4.971   5.781
 2733SOL    HW110096   8.589   4.914   5.721
 2733SOL    HW210097   8.580   5.057   5.770
 2734SOL     OW10098   6.636   4.026  12.238
 2734SOL    HW110099   6.569   4.048  12.173
 2734SOL    HW210100   6.690   4.105  12.245
 2735SOL     OW10101   2.814  14.004   8.279
 2735SOL    HW110102   2.886  14.024   8.219
 2735SOL    HW210103   2.744  14.065   8.253
 2736SOL     OW10104   1.436   7.298   8.511
 2736SOL    HW110105   1.430   7.256   8.597
 2736SOL    HW210106   1.519   7.345   8.512
 2737SOL     OW10107   5.647   8.990  10.370
 2737SOL    HW110108   5.661   8.897  10.389
 2737SOL    HW210109   5.733   9.022  10.344
 2738SOL     OW10110   9.146   9.827   8.967
 2738SOL    HW110111   9.187   9.811   9.053
 2738SOL    HW210112   9.218   9.824   8.905
 2739SOL     OW10113   4.265   0.168  13.370
 2739SOL    HW110114   4.333   0.100  13.368
 2739SOL    HW210115   4.311   0.247  13.397
 2740SOL     OW10116   8.627   6.451   3.835
 2740SOL    HW110117   8.580   6.387   3.782
 2740SOL    HW210118   8.570   6.529   3.834
 2741SOL     OW10119   3.543  10.299  12.476
 2741SOL    HW110120   3.622  10.259  12.512
 2741SOL    HW210121   3.518  10.241  12.404
 2742SOL     OW10122   7.534   8.459  14.206
 2742SOL    HW110123   7.530   8.487  14.297
 2742SOL    HW210124   7.459   8.400  14.195
 2743SOL     OW10125   5.651   4.681   6.880
 2743SOL    HW110126   5.687   4.710   6.796
 2743SOL    HW210127   5.678   4.590   6.887
 2744SOL     OW10128  10.555  11.894   8.875
 2744SOL    HW110129  10.623  11.831   8.899
 2744SOL    HW210130  10.531  11.869   8.785
 2745SOL     OW10131  13.128   7.981   3.635
 2745SOL    HW110132  13.211   7.934   3.642
 2745SOL    HW210133  13.152   8.073   3.646
 2746SOL     OW10134   0.084   6.996   3.758
 2746SOL    HW110135   0.140   6.920   3.741
 2746SOL    HW210136   0.049   6.981   3.845
 2747SOL     OW10137  10.961  10.562  13.834
 2747SOL    HW110138  10.991  10.610  13.757
 2747SOL    HW210139  10.876  10.527  13.809
 2748SOL     OW10140  11.200   9.275   2.255
 2748SOL    HW110141  11.273   9.334   2.272
 2748SOL    HW210142  11.228   9.191   2.290
 2749SOL     OW10143   0.190   6.482   2.603
 2749SOL    HW110144   0.158   6.572   2.606
 2749SOL    HW210145   0.283   6.489   2.626
 2750SOL     OW10146   7.917   4.928   0.727
 2750SOL    HW110147   7.980   4.856   0.730
 2750SOL    HW210148   7.876   4.927   0.814
 2751SOL     OW10149  11.576   7.620   1.909
 2751SOL    HW110150  11.492   7.575   1.905
 2751SOL    HW210151  11.626   7.584   1.836
 2752SOL     OW10152   7.009  10.086   8.419
 2752SOL    HW110153   6.993   9.992   8.429
 2752SOL    HW210154   7.028  10.097   8.326
 2753SOL     OW10155   7.805  13.778   8.911
 2753SOL    HW110156   7.783  13.702   8.964
 2753SOL    HW210157   7.729  13.791   8.854
 2754SOL     OW10158   3.204   2.278   7.670
 2754SOL    HW110159   3.211   2.219   7.746
 2754SOL    HW210160   3.206   2.220   7.594
 2755SOL     OW10161  13.091   9.844   2.984
 2755SOL    HW110162  13.044   9.825   2.903
 2755SOL    HW210163  13.165   9.784   2.985
 2756SOL     OW10164   1.342  14.468   9.189
 2756SOL    HW110165   1.301  14.394   9.145
 2756SOL    HW210166   1.434  14.462   9.165
 2757SOL     OW10167   5.716   9.167   3.003
 2757SOL    HW110168   5.682   9.098   2.945
 2757SOL    HW210169   5.805   9.140   3.023
 2758SOL     OW10170  13.214  14.756   0.886
 2758SOL    HW110171  13.197  14.842   0.923
 2758SOL    HW210172  13.288  14.768   0.827
 2759SOL     OW10173   0.908  11.808  14.698
 2759SOL    HW110174   0.837  11.866  14.672
 2759SOL    HW210175   0.934  11.764  14.618
 2760SOL     OW10176   1.705   1.766  13.442
 2760SOL    HW110177   1.670   1.759  13.353
 2760SOL    HW210178   1.653   1.704  13.493
 2761SOL     OW10179  13.566   2.151  14.445
 2761SOL    HW110180  13.554   2.057  14.429
 2761SOL    HW210181  13.485   2.191  14.412
 2762SOL     OW10182  11.122   4.134  11.968
 2762SOL    HW110183  11.193   4.099  12.022
 2762SOL    HW210184  11.046   4.080  11.991
 2763SOL     OW10185   1.189   4.540  12.718
 2763SOL    HW110186   1.262   4.513  12.662
 2763SOL    HW210187   1.230   4.587  12.790
 2764SOL     OW10188   2.680   2.641   2.287
 2764SOL    HW110189   2.607   2.671   2.342
 2764SOL    HW210190   2.668   2.546   2.281
 2765SOL     OW10191   3.348  11.531   5.417
 2765SOL    HW110192   3.416  11.465   5.422
 2765SOL    HW210193   3.336  11.561   5.507
 2766SOL     OW10194   6.344   8.011  12.517
 2766SOL    HW110195   6.415   7.988  12.577
 2766SOL    HW210196   6.329   7.932  12.466
 2767SOL     OW10197   2.349   3.540   3.318
 2767SOL    HW110198   2.426   3.583   3.282
 2767SOL    HW210199   2.339   3.577   3.406
 2768SOL     OW10200  11.832   8.857   9.979
 2768SOL    HW110201  11.907   8.849  10.038
 2768SOL    HW210202  11.871   8.862   9.891
 2769SOL     OW10203  14.020  11.864  10.854
 2769SOL    HW110204  13.978  11.805  10.917
 2769SOL    HW210205  14.035  11.809  10.777
 2770SOL     OW10206   5.213  11.945  11.795
 2770SOL    HW110207   5.158  11.999  11.851
 2770SOL    HW210208   5.228  11.865  11.845
 2771SOL     OW10209   5.426  14.069  11.918
 2771SOL    HW110210   5.333  14.065  11.894
 2771SOL    HW210211   5.437  14.156  11.957
 2772SOL     OW10212  12.078  10.384   1.625
 2772SOL    HW110213  12.067  10.350   1.537
 2772SOL    HW210214  12.020  10.460   1.630
 2773SOL     OW10215   2.620  10.740  12.715
 2773SOL    HW110216   2.571  10.695  12.784
 2773SOL    HW210217   2.673  10.804  12.762
 2774SOL     OW10218  12.426  12.838   9.489
 2774SOL    HW110219  12.481  12.912   9.513
 2774SOL    HW210220  12.336  12.872   9.492
 2775SOL     OW10221   9.919   6.080   4.796
 2775SOL    HW110222   9.857   6.084   4.868
 2775SOL    HW210223   9.866   6.055   4.720
 2776SOL     OW10224  12.856   3.567  10.461
 2776SOL    HW110225  12.902   3.631  10.515
 2776SOL    HW210226  12.844   3.491  10.518
 2777SOL     OW10227   6.268   7.474  14.310
 2777SOL    HW110228   6.353   7.430  14.303
 2777SOL    HW210229   6.278   7.552  14.255
 2778SOL     OW10230   3.050   2.898   2.090
 2778SOL    HW110231   3.079   2.989   2.094
 2778SOL    HW210232   3.057   2.866   2.180
 2779SOL     OW10233  13.931   3.310  10.017
 2779SOL    HW110234  14.004   3.276   9.964
 2779SOL    HW210235  13.856   3.309   9.958
 2780SOL     OW10236  10.958  12.966   6.590
 2780SOL    HW110237  10.908  12.991   6.668
 2780SOL    HW210238  11.044  12.941   6.623
 2781SOL     OW10239  14.367  11.861   0.059
 2781SOL    HW110240  14.381  11.947   0.019
 2781SOL    HW210241  14.276  11.862   0.089
 2782SOL     OW10242   6.890   0.491   2.818
 2782SOL    HW110243   6.865   0.551   2.748
 2782SOL    HW210244   6.913   0.547   2.891
 2783SOL     OW10245  12.540  13.152   1.746
 2783SOL    HW110246  12.527  13.220   1.812
 2783SOL    HW210247  12.594  13.086   1.789
 2784SOL     OW10248   9.554   1.293  12.377
 2784SOL    HW110249   9.606   1.372  12.363
 2784SOL    HW210250   9.499   1.313  12.452
 2785SOL     OW10251   3.437  12.167   2.619
 2785SOL    HW110252   3.443  12.146   2.712
 2785SOL    HW210253   3.468  12.088   2.575
 2786SOL     OW10254  14.312   0.689  10.800
 2786SOL    HW110255  14.301   0.595  10.783
 2786SOL    HW210256  14.309   0.730  10.713
 2787SOL     OW10257   2.498   5.302   4.532
 2787SOL    HW110258   2.416   5.322   4.487
 2787SOL    HW210259   2.483   5.216   4.571
 2788SOL     OW10260   2.496  13.432  11.190
 2788SOL    HW110261   2.454  13.391  11.265
 2788SOL    HW210262   2.425  13.443  11.126
 2789SOL     OW10263   0.178   5.705   8.754
 2789SOL    HW110264   0.199   5.639   8.689
 2789SOL    HW210265   0.084   5.719   8.745
 2790SOL     OW10266   2.207   5.263  10.125
 2790SOL    HW110267   2.146   5.300  10.061
 2790SOL    HW210268   2.282   5.236  10.073
 2791SOL     OW10269  11.052   5.496  13.863
 2791SOL    HW110270  11.042   5.591  13.874
 2791SOL    HW210271  11.105   5.486  13.784
 2792SOL     OW10272   8.631   3.567  11.124
 2792SOL    HW110273   8.712   3.613  11.147
 2792SOL    HW210274   8.563   3.634  11.131
 2793SOL     OW10275  12.273   6.570   2.301
 2793SOL    HW110276  12.320   6.499   2.346
 2793SOL    HW210277  12.343   6.625   2.265
 2794SOL     OW10278  10.052   8.099   6.777
 2794SOL    HW110279  10.035   8.122   6.868
 2794SOL    HW210280   9.979   8.042   6.752
 2795SOL     OW10281   8.345   7.511  12.659
 2795SOL    HW110282   8.339   7.599  12.620
 2795SOL    HW210283   8.426   7.474  12.624
 2796SOL     OW10284  11.099   0.819  14.303
 2796SOL    HW110285  11.091   0.790  14.213
 2796SOL    HW210286  11.192   0.809  14.324
 2797SOL     OW10287   6.385  13.596   7.882
 2797SOL    HW110288   6.294  13.603   7.850
 2797SOL    HW210289   6.410  13.686   7.902
 2798SOL     OW10290   4.746   5.910   8.564
 2798SOL    HW110291   4.792   5.849   8.622
 2798SOL    HW210292   4.757   5.874   8.477
 2799SOL     OW10293   1.603  14.757   8.666
 2799SOL    HW110294   1.556  14.840   8.666
 2799SOL    HW210295   1.694  14.781   8.648
 2800SOL     OW10296   2.989  14.388   9.021
 2800SOL    HW110297   3.034  14.331   8.958
 2800SOL    HW210298   3.060  14.433   9.067
 2801SOL     OW10299  11.870   2.321  11.288
 2801SOL    HW110300  11.956   2.299  11.253
 2801SOL    HW210301  11.832   2.379  11.222
 2802SOL     OW10302   2.102  10.010   6.691
 2802SOL    HW110303   2.034  10.071   6.663
 2802SOL    HW210304   2.184  10.060   6.681
 2803SOL     OW10305   2.832   6.947  14.102
 2803SOL    HW110306   2.906   7.007  14.097
 2803SOL    HW210307   2.847   6.898  14.183
 2804SOL     OW10308   6.446  13.044   4.602
 2804SOL    HW110309   6.499  12.988   4.660
 2804SOL    HW210310   6.382  12.984   4.563
 2805SOL     OW10311   8.367   1.850   4.653
 2805SOL    HW110312   8.318   1.776   4.619
 2805SOL    HW210313   8.384   1.906   4.577
 2806SOL     OW10314   9.562   4.656  12.198
 2806SOL    HW110315   9.634   4.601  12.166
 2806SOL    HW210316   9.565   4.646  12.293
 2807SOL     OW10317   5.437  10.560   2.439
 2807SOL    HW110318   5.469  10.609   2.362
 2807SOL    HW210319   5.483  10.600   2.513
 2808SOL     OW10320  13.239   6.784   6.241
 2808SOL    HW110321  13.151   6.812   6.215
 2808SOL    HW210322  13.225   6.702   6.289
 2809SOL     OW10323  14.463  14.104   4.881
 2809SOL    HW110324  14.510  14.051   4.945
 2809SOL    HW210325  14.489  14.067   4.796
 2810SOL     OW10326  11.331  13.327  11.737
 2810SOL    HW110327  11.392  13.311  11.809
 2810SOL    HW210328  11.248  13.289  11.768
 2811SOL     OW10329   6.595   0.339   1.543
 2811SOL    HW110330   6.534   0.406   1.513
 2811SOL    HW210331   6.572   0.325   1.635
 2812SOL     OW10332   7.369   6.273  10.903
 2812SOL    HW110333   7.350   6.366  10.916
 2812SOL    HW210334   7.291   6.238  10.861
 2813SOL     OW10335   7.502   7.428   3.884
 2813SOL    HW110336   7.457   7.471   3.957
 2813SOL    HW210337   7.588   7.468   3.882
 2814SOL     OW10338   9.906   3.432  11.018
 2814SOL    HW110339   9.968   3.364  11.043
 2814SOL    HW210340   9.882   3.411  10.928
 2815SOL     OW10341   1.693   1.229   6.409
 2815SOL    HW110342   1.775   1.197   6.371
 2815SOL    HW210343   1.693   1.323   6.390
 2816SOL     OW10344  12.261  10.849   8.933
 2816SOL    HW110345  12.344  10.896   8.934
 2816SOL    HW210346  12.201  10.904   8.983
 2817SOL     OW10347   4.389  10.534   0.869
 2817SOL    HW110348   4.327  10.607   0.875
 2817SOL    HW210349   4.475  10.575   0.877
 2818SOL     OW10350  10.876   6.165  10.319
 2818SOL    HW110351  10.838   6.170  10.232
 2818SOL    HW210352  10.890   6.071  10.334
 2819SOL     OW10353   0.106  14.194  10.446
 2819SOL    HW110354   0.112  14.233  10.359
 2819SOL    HW210355   0.101  14.100  10.430
 2820SOL     OW10356   8.682  11.567  14.440
 2820SOL    HW110357   8.615  11.572  14.371
 2820SOL    HW210358   8.760  11.533  14.396
 2821SOL     OW10359  14.756   5.421   6.968
 2821SOL    HW110360  14.786   5.444   7.056
 2821SOL    HW210361  14.833   5.434   6.913
 2822SOL     OW10362   2.760   1.166   7.217
 2822SOL    HW110363   2.839   1.147   7.168
 2822SOL    HW210364   2.791   1.182   7.306
 2823SOL     OW10365   7.421  10.155  12.143
 2823SOL    HW110366   7.431  10.237  12.094
 2823SOL    HW210367   7.461  10.173  12.228
 2824SOL     OW10368   6.841   2.432   3.390
 2824SOL    HW110369   6.760   2.484   3.392
 2824SOL    HW210370   6.861   2.422   3.297
 2825SOL     OW10371   1.935  13.012   6.427
 2825SOL    HW110372   1.889  12.928   6.419
 2825SOL    HW210373   1.914  13.059   6.347
 2826SOL     OW10374   5.104   3.177   1.712
 2826SOL    HW110375   5.025   3.177   1.658
 2826SOL    HW210376   5.144   3.263   1.696
 2827SOL     OW10377   7.652  13.914   0.242
 2827SOL    HW110378   7.679  13.825   0.266
 2827SOL    HW210379   7.562  13.922   0.274
 2828SOL     OW10380   4.646   3.080   4.600
 2828SOL    HW110381   4.582   3.022   4.642
 2828SOL    HW210382   4.658   3.151   4.662
 2829SOL     OW10383   5.840   7.161   3.329
 2829SOL    HW110384   5.825   7.092   3.265
 2829SOL    HW210385   5.793   7.131   3.408
 2830SOL     OW10386   9.239  12.493   3.241
 2830SOL    HW110387   9.148  12.482   3.269
 2830SOL    HW210388   9.261  12.410   3.199
 2831SOL     OW10389   2.220  10.508   2.264
 2831SOL    HW110390   2.180  10.594   2.271
 2831SOL    HW210391   2.307  10.519   2.300
 2832SOL     OW10392  13.917   8.220  12.255
 2832SOL    HW110393  13.952   8.304  12.226
 2832SOL    HW210394  13.936   8.217  12.349
 2833SOL     OW10395   0.803   7.407   3.411
 2833SOL    HW110396   0.856   7.466   3.465
 2833SOL    HW210397   0.728   7.386   3.466
 2834SOL     OW10398  13.299  13.940  12.711
 2834SOL    HW110399  13.311  14.001  12.783
 2834SOL    HW210400  13.228  13.978  12.659
 2835SOL     OW10401   4.217   8.106  13.850
 2835SOL    HW110402   4.249   8.192  13.824
 2835SOL    HW210403   4.294   8.060  13.884
 2836SOL     OW10404   0.575   1.226  10.549
 2836SOL    HW110405   0.524   1.290  10.500
 2836SOL    HW210406   0.516   1.199  10.620
 2837SOL     OW10407   2.209  11.595  11.749
 2837SOL    HW110408   2.154  11.518  11.764
 2837SOL    HW210409   2.227  11.594  11.655
 2838SOL     OW10410   2.085   7.396  11.035
 2838SOL    HW110411   2.167   7.427  10.996
 2838SOL    HW210412   2.094   7.418  11.128
 2839SOL     OW10413   2.249  12.314   6.952
 2839SOL    HW110414   2.240  12.326   7.046
 2839SOL    HW210415   2.166  12.345   6.916
 2840SOL     OW10416   3.199   8.223   6.302
 2840SOL    HW110417   3.249   8.189   6.377
 2840SOL    HW210418   3.197   8.318   6.316
 2841SOL     OW10419   6.199  11.767  12.800
 2841SOL    HW110420   6.236  11.786  12.714
 2841SOL    HW210421   6.274  11.748  12.855
 2842SOL     OW10422   9.276   5.412   7.086
 2842SOL    HW110423   9.332   5.357   7.031
 2842SOL    HW210424   9.200   5.430   7.031
 2843SOL     OW10425   0.602   6.422   0.135
 2843SOL    HW110426   0.532   6.476   0.171
 2843SOL    HW210427   0.567   6.333   0.137
 2844SOL     OW10428  13.919   8.632   9.698
 2844SOL    HW110429  13.976   8.709   9.691
 2844SOL    HW210430  13.979   8.559   9.713
 2845SOL     OW10431  12.666  14.824   8.387
 2845SOL    HW110432  12.713  14.754   8.342
 2845SOL    HW210433  12.733  14.872   8.435
 2846SOL     OW10434   3.561  12.623   7.088
 2846SOL    HW110435   3.562  12.699   7.029
 2846SOL    HW210436   3.615  12.558   7.044
 2847SOL     OW10437   1.938  13.116   1.288
 2847SOL    HW110438   1.995  13.160   1.351
 2847SOL    HW210439   1.897  13.045   1.338
 2848SOL     OW10440   1.234   1.252   7.254
 2848SOL    HW110441   1.217   1.332   7.303
 2848SOL    HW210442   1.208   1.273   7.164
 2849SOL     OW10443   5.151   1.477   3.836
 2849SOL    HW110444   5.148   1.430   3.919
 2849SOL    HW210445   5.061   1.504   3.820
 2850SOL     OW10446  12.807   5.179  12.099
 2850SOL    HW110447  12.718   5.215  12.101
 2850SOL    HW210448  12.863   5.254  12.081
 2851SOL     OW10449   6.802   9.260   1.638
 2851SOL    HW110450   6.757   9.206   1.573
 2851SOL    HW210451   6.895   9.244   1.622
 2852SOL     OW10452   9.092   0.450   8.273
 2852SOL    HW110453   8.998   0.448   8.292
 2852SOL    HW210454   9.121   0.361   8.290
 2853SOL     OW10455   7.580  12.250   3.170
 2853SOL    HW110456   7.575  12.174   3.111
 2853SOL    HW210457   7.520  12.228   3.242
 2854SOL     OW10458   1.908  14.158  10.681
 2854SOL    HW110459   1.982  14.213  10.708
 2854SOL    HW210460   1.948  14.084  10.636
 2855SOL     OW10461   0.976   4.716  12.930
 2855SOL    HW110462   0.900   4.733  12.985
 2855SOL    HW210463   1.024   4.799  12.930
 2856SOL     OW10464   5.758   0.674   6.068
 2856SOL    HW110465   5.814   0.600   6.043
 2856SOL    HW210466   5.678   0.633   6.103
 2857SOL     OW10467   6.105   8.370  14.431
 2857SOL    HW110468   6.103   8.398  14.523
 2857SOL    HW210469   6.165   8.431  14.389
 2858SOL     OW10470   7.415   8.614  11.306
 2858SOL    HW110471   7.372   8.689  11.265
 2858SOL    HW210472   7.425   8.550  11.236
 2859SOL     OW10473  14.570   7.828   6.379
 2859SOL    HW110474  14.615   7.905   6.344
 2859SOL    HW210475  14.495   7.864   6.427
 2860SOL     OW10476   5.199   0.532   3.069
 2860SOL    HW110477   5.189   0.615   3.022
 2860SOL    HW210478   5.188   0.556   3.161
 2861SOL     OW10479   9.854  13.784   9.754
 2861SOL    HW110480   9.948  13.781   9.737
 2861SOL    HW210481   9.817  13.827   9.677
 2862SOL     OW10482   4.771  14.688   7.333
 2862SOL    HW110483   4.678  14.693   7.311
 2862SOL    HW210484   4.811  14.756   7.280
 2863SOL     OW10485   3.982  12.131   9.697
 2863SOL    HW110486   3.889  12.135   9.720
 2863SOL    HW210487   4.005  12.039   9.705
 2864SOL     OW10488   0.471   2.414  12.171
 2864SOL    HW110489   0.544   2.357  12.146
 2864SOL    HW210490   0.496   2.447  12.257
 2865SOL     OW10491   3.171   3.936  13.976
 2865SOL    HW110492   3.210   3.981  14.051
 2865SOL    HW210493   3.208   3.980  13.899
 2866SOL     OW10494   0.899   0.441  11.342
 2866SOL    HW110495   0.970   0.426  11.280
 2866SOL    HW210496   0.877   0.534  11.332
 2867SOL     OW10497  10.315   9.969  14.170
 2867SOL    HW110498  10.364   9.943  14.092
 2867SOL    HW210499  10.362   9.928  14.243
 2868SOL     OW10500   2.316   9.113   0.928
 2868SOL    HW110501   2.382   9.182   0.931
 2868SOL    HW210502   2.367   9.031   0.925
 2869SOL     OW10503   1.562   1.702   8.133
 2869SOL    HW110504   1.544   1.794   8.149
 2869SOL    HW210505   1.493   1.656   8.181
 2870SOL     OW10506   4.075   3.488  12.616
 2870SOL    HW110507   4.091   3.399  12.585
 2870SOL    HW210508   4.064   3.539  12.536
 2871SOL     OW10509   5.757   4.769   9.883
 2871SOL    HW110510   5.810   4.761   9.804
 2871SOL    HW210511   5.742   4.863   9.893
 2872SOL     OW10512   4.680   7.920  13.169
 2872SOL    HW110513   4.761   7.898  13.124
 2872SOL    HW210514   4.699   8.002  13.215
 2873SOL     OW10515  10.280  12.281   2.161
 2873SOL    HW110516  10.319  12.253   2.244
 2873SOL    HW210517  10.186  12.268   2.172
 2874SOL     OW10518   7.131   4.140   0.926
 2874SOL    HW110519   7.125   4.047   0.905
 2874SOL    HW210520   7.099   4.185   0.848
 2875SOL     OW10521   9.362   1.836  13.155
 2875SOL    HW110522   9.287   1.781  13.131
 2875SOL    HW210523   9.417   1.779  13.209
 2876SOL     OW10524   8.268   7.372   1.233
 2876SOL    HW110525   8.363   7.385   1.226
 2876SOL    HW210526   8.230   7.446   1.187
 2877SOL     OW10527   7.744   1.430   8.248
 2877SOL    HW110528   7.697   1.389   8.175
 2877SOL    HW210529   7.684   1.497   8.281
 2878SOL     OW10530   1.063   2.107   6.840
 2878SOL    HW110531   0.978   2.146   6.819
 2878SOL    HW210532   1.127   2.165   6.799
 2879SOL     OW10533  10.681  11.953  10.935
 2879SOL    HW110534  10.753  11.954  10.998
 2879SOL    HW210535  10.722  11.927  10.852
 2880SOL     OW10536  13.324  11.468   5.023
 2880SOL    HW110537  13.336  11.560   4.998
 2880SOL    HW210538  13.242  11.467   5.072
 2881SOL     OW10539   0.489   0.381   4.817
 2881SOL    HW110540   0.493   0.462   4.766
 2881SOL    HW210541   0.447   0.406   4.899
 2882SOL     OW10542   9.483  14.328   5.067
 2882SOL    HW110543   9.516  14.289   5.148
 2882SOL    HW210544   9.468  14.420   5.089
 2883SOL     OW10545   4.083  12.034   8.174
 2883SOL    HW110546   4.160  11.977   8.168
 2883SOL    HW210547   4.031  12.013   8.097
 2884SOL     OW10548  12.927  11.152   9.273
 2884SOL    HW110549  12.937  11.243   9.302
 2884SOL    HW210550  13.016  11.117   9.272
 2885SOL     OW10551   2.474   4.264   6.273
 2885SOL    HW110552   2.512   4.194   6.219
 2885SOL    HW210553   2.532   4.339   6.260
 2886SOL     OW10554  13.190   8.220  13.936
 2886SOL    HW110555  13.210   8.192  13.847
 2886SOL    HW210556  13.144   8.304  13.925
 2887SOL     OW10557  14.162  11.937   0.543
 2887SOL    HW110558  14.255  11.930   0.521
 2887SOL    HW210559  14.160  11.995   0.620
 2888SOL     OW10560   3.581  11.631   2.689
 2888SOL    HW110561   3.565  11.709   2.743
 2888SOL    HW210562   3.673  11.611   2.703
 2889SOL     OW10563   8.047   1.756   7.458
 2889SOL    HW110564   7.998   1.790   7.533
 2889SOL    HW210565   8.110   1.825   7.437
 2890SOL     OW10566  10.151   8.699   5.304
 2890SOL    HW110567  10.082   8.737   5.358
 2890SOL    HW210568  10.126   8.607   5.295
 2891SOL     OW10569  10.006  12.370  13.249
 2891SOL    HW110570  10.024  12.455  13.207
 2891SOL    HW210571  10.086  12.351  13.299
 2892SOL     OW10572   0.052   4.421  13.610
 2892SOL    HW110573   0.078   4.465  13.692
 2892SOL    HW210574   0.063   4.328  13.628
 2893SOL     OW10575   0.436   6.783   7.713
 2893SOL    HW110576   0.350   6.825   7.703
 2893SOL    HW210577   0.472   6.820   7.793
 2894SOL     OW10578   0.565  13.728   9.040
 2894SOL    HW110579   0.600  13.694   8.958
 2894SOL    HW210580   0.539  13.818   9.020
 2895SOL     OW10581   6.006   7.514   7.231
 2895SOL    HW110582   6.022   7.502   7.138
 2895SOL    HW210583   6.011   7.609   7.244
 2896SOL     OW10584   2.549   5.356  12.265
 2896SOL    HW110585   2.505   5.427  12.312
 2896SOL    HW210586   2.630   5.342  12.313
 2897SOL     OW10587  13.484   1.096   1.908
 2897SOL    HW110588  13.403   1.082   1.958
 2897SOL    HW210589  13.545   1.132   1.972
 2898SOL     OW10590  14.369   3.405  13.950
 2898SOL    HW110591  14.385   3.498  13.967
 2898SOL    HW210592  14.343   3.369  14.035
 2899SOL     OW10593  12.710  12.957   2.385
 2899SOL    HW110594  12.705  13.020   2.312
 2899SOL    HW210595  12.625  12.912   2.383
 2900SOL     OW10596   9.336   2.257   0.039
 2900SOL    HW110597   9.369   2.308   0.112
 2900SOL    HW210598   9.343   2.316  14.845
 2901SOL     OW10599   4.770   0.573   1.936
 2901SOL    HW110600   4.734   0.489   1.907
 2901SOL    HW210601   4.693   0.627   1.953
 2902SOL     OW10602   8.109   9.459  13.606
 2902SOL    HW110603   8.201   9.457  13.633
 2902SOL    HW210604   8.101   9.388  13.543
 2903SOL     OW10605   7.240   1.488   6.203
 2903SOL    HW110606   7.222   1.434   6.126
 2903SOL    HW210607   7.310   1.548   6.174
 2904SOL     OW10608   4.913  13.018  10.169
 2904SOL    HW110609   4.856  13.078  10.121
 2904SOL    HW210610   4.854  12.948  10.199
 2905SOL     OW10611   0.436  13.389   9.498
 2905SOL    HW110612   0.527  13.363   9.483
 2905SOL    HW210613   0.384  13.316   9.464
 2906SOL     OW10614  12.383   0.920  13.304
 2906SOL    HW110615  12.361   0.830  13.326
 2906SOL    HW210616  12.477   0.918  13.286
 2907SOL     OW10617   5.718   5.408  10.480
 2907SOL    HW110618   5.689   5.499  10.467
 2907SOL    HW210619   5.705   5.367  10.395
 2908SOL     OW10620   7.808   5.324  12.273
 2908SOL    HW110621   7.721   5.355  12.250
 2908SOL    HW210622   7.825   5.253  12.212
 2909SOL     OW10623   5.835  10.140   3.668
 2909SOL    HW110624   5.930  10.147   3.675
 2909SOL    HW210625   5.821  10.062   3.614
 2910SOL     OW10626   0.352   0.595  14.751
 2910SOL    HW110627   0.287   0.661  14.771
 2910SOL    HW210628   0.405   0.634  14.682
 2911SOL     OW10629   3.330  13.100   4.811
 2911SOL    HW110630   3.285  13.038   4.753
 2911SOL    HW210631   3.341  13.179   4.758
 2912SOL     OW10632   0.932  14.787   7.135
 2912SOL    HW110633   1.005  14.834   7.095
 2912SOL    HW210634   0.922  14.827   7.222
 2913SOL     OW10635   1.505  12.192   5.317
 2913SOL    HW110636   1.580  12.184   5.375
 2913SOL    HW210637   1.523  12.132   5.245
 2914SOL     OW10638  10.773   6.479   0.914
 2914SOL    HW110639  10.710   6.492   0.844
 2914SOL    HW210640  10.722   6.486   0.994
 2915SOL     OW10641   5.983   5.249  13.124
 2915SOL    HW110642   5.901   5.244  13.074
 2915SOL    HW210643   6.018   5.336  13.104
 2916SOL     OW10644   0.884   3.030   2.310
 2916SOL    HW110645   0.975   3.051   2.329
 2916SOL    HW210646   0.881   3.019   2.215
 2917SOL     OW10647  13.830   4.543  13.481
 2917SOL    HW110648  13.858   4.603  13.412
 2917SOL    HW210649  13.888   4.562  13.554
 2918SOL     OW10650   4.495  12.875  11.772
 2918SOL    HW110651   4.512  12.782  11.784
 2918SOL    HW210652   4.400  12.883  11.777
 2919SOL     OW10653  12.182   2.782  11.769
 2919SOL    HW110654  12.151   2.691  11.766
 2919SOL    HW210655  12.247   2.787  11.699
 2920SOL     OW10656   4.513   4.604   1.533
 2920SOL    HW110657   4.423   4.636   1.526
 2920SOL    HW210658   4.540   4.587   1.443
 2921SOL     OW10659  14.572   7.543   3.541
 2921SOL    HW110660  14.652   7.505   3.577
 2921SOL    HW210661  14.551   7.487   3.466
 2922SOL     OW10662   3.863  11.561   6.949
 2922SOL    HW110663   3.889  11.634   6.893
 2922SOL    HW210664   3.786  11.524   6.906
 2923SOL     OW10665  13.078   9.440   4.333
 2923SOL    HW110666  13.073   9.534   4.353
 2923SOL    HW210667  13.149   9.408   4.388
 2924SOL     OW10668  14.321   6.734   9.084
 2924SOL    HW110669  14.370   6.775   9.155
 2924SOL    HW210670  14.385   6.724   9.014
 2925SOL     OW10671  12.821   2.022  12.003
 2925SOL    HW110672  12.843   2.115  11.999
 2925SOL    HW210673  12.848   1.995  12.091
 2926SOL     OW10674  13.127  10.286  11.218
 2926SOL    HW110675  13.150  10.202  11.178
 2926SOL    HW210676  13.053  10.266  11.275
 2927SOL     OW10677   2.330   2.169   5.554
 2927SOL    HW110678   2.379   2.122   5.622
 2927SOL    HW210679   2.298   2.248   5.598
 2928SOL     OW10680   4.710   0.455   9.827
 2928SOL    HW110681   4.624   0.420   9.804
 2928SOL    HW210682   4.719   0.438   9.920
 2929SOL     OW10683   9.292  12.483   5.082
 2929SOL    HW110684   9.305  12.453   5.172
 2929SOL    HW210685   9.286  12.402   5.031
 2930SOL     OW10686  13.489  11.918   4.939
 2930SOL    HW110687  13.524  12.005   4.959
 2930SOL    HW210688  13.525  11.897   4.853
 2931SOL     OW10689   2.563  10.076   4.943
 2931SOL    HW110690   2.525  10.132   4.875
 2931SOL    HW210691   2.632  10.130   4.982
 2932SOL     OW10692   7.679   5.163   3.563
 2932SOL    HW110693   7.635   5.236   3.519
 2932SOL    HW210694   7.620   5.140   3.636
 2933SOL     OW10695  13.061  12.557   1.111
 2933SOL    HW110696  13.082  12.570   1.204
 2933SOL    HW210697  13.143  12.529   1.071
 2934SOL     OW10698   0.795  13.580   0.596
 2934SOL    HW110699   0.835  13.495   0.577
 2934SOL    HW210700   0.709  13.558   0.633
 2935SOL     OW10701   8.627   5.775   0.653
 2935SOL    HW110702   8.717   5.809   0.653
 2935SOL    HW210703   8.586   5.814   0.730
 2936SOL     OW10704   3.008   4.824  12.694
 2936SOL    HW110705   2.968   4.765  12.631
 2936SOL    HW210706   3.072   4.873  12.643
 2937SOL     OW10707  14.631   2.057   7.316
 2937SOL    HW110708  14.548   2.050   7.363
 2937SOL    HW210709  14.625   2.141   7.271
 2938SOL     OW10710   2.563  13.437   2.050
 2938SOL    HW110711   2.531  13.519   2.087
 2938SOL    HW210712   2.531  13.369   2.109
 2939SOL     OW10713   8.955   5.559   0.801
 2939SOL    HW110714   8.973   5.473   0.838
 2939SOL    HW210715   8.940   5.616   0.876
 2940SOL     OW10716   2.673   4.396  11.770
 2940SOL    HW110717   2.607   4.465  11.768
 2940SOL    HW210718   2.660   4.348  11.688
 2941SOL     OW10719   0.842   0.207  11.924
 2941SOL    HW110720   0.917   0.263  11.906
 2941SOL    HW210721   0.841   0.144  11.852
 2942SOL     OW10722   5.256  10.848   6.193
 2942SOL    HW110723   5.213  10.883   6.115
 2942SOL    HW210724   5.240  10.913   6.260
 2943SOL     OW10725   1.323   6.760   3.065
 2943SOL    HW110726   1.330   6.672   3.102
 2943SOL    HW210727   1.243   6.795   3.103
 2944SOL     OW10728  11.581   4.009  14.198
 2944SOL    HW110729  11.503   4.057  14.226
 2944SOL    HW210730  11.553   3.918  14.194
 2945SOL     OW10731  11.980   4.575  12.231
 2945SOL    HW110732  12.066   4.582  12.188
 2945SOL    HW210733  11.917   4.578  12.159
 2946SOL     OW10734   7.662   5.256  13.615
 2946SOL    HW110735   7.626   5.203  13.544
 2946SOL    HW210736   7.746   5.287  13.581
 2947SOL     OW10737   8.171   6.079   6.484
 2947SOL    HW110738   8.143   6.028   6.408
 2947SOL    HW210739   8.139   6.167   6.466
 2948SOL     OW10740   1.054  14.615  11.006
 2948SOL    HW110741   1.054  14.660  11.091
 2948SOL    HW210742   0.974  14.643  10.963
 2949SOL     OW10743   5.832   3.463  12.047
 2949SOL    HW110744   5.754   3.422  12.085
 2949SOL    HW210745   5.901   3.398  12.058
 2950SOL     OW10746   7.376  13.993   7.819
 2950SOL    HW110747   7.332  13.908   7.818
 2950SOL    HW210748   7.326  14.047   7.759
 2951SOL     OW10749   8.556   7.339  12.887
 2951SOL    HW110750   8.571   7.389  12.967
 2951SOL    HW210751   8.575   7.400  12.816
 2952SOL     OW10752   6.386   2.380  10.015
 2952SOL    HW110753   6.386   2.352   9.924
 2952SOL    HW210754   6.471   2.423  10.027
 2953SOL     OW10755   7.361   6.698   5.674
 2953SOL    HW110756   7.448   6.700   5.715
 2953SOL    HW210757   7.357   6.777   5.621
 2954SOL     OW10758   0.831  11.010  10.385
 2954SOL    HW110759   0.833  11.070  10.460
 2954SOL    HW210760   0.813  10.924  10.424
 2955SOL     OW10761  10.348   0.408   0.024
 2955SOL    HW110762  10.381   0.327  14.867
 2955SOL    HW210763  10.300   0.380   0.102
 2956SOL     OW10764  14.051  13.455   8.747
 2956SOL    HW110765  13.985  13.497   8.801
 2956SOL    HW210766  14.078  13.378   8.797
 2957SOL     OW10767   1.663   3.050   8.805
 2957SOL    HW110768   1.754   3.074   8.821
 2957SOL    HW210769   1.642   2.987   8.873
 2958SOL     OW10770  13.200   5.026   7.250
 2958SOL    HW110771  13.290   5.003   7.274
 2958SOL    HW210772  13.152   5.025   7.334
 2959SOL     OW10773  11.238   5.579   8.506
 2959SOL    HW110774  11.254   5.599   8.598
 2959SOL    HW210775  11.179   5.649   8.476
 2960SOL     OW10776   1.957   3.852   4.037
 2960SOL    HW110777   1.969   3.829   4.129
 2960SOL    HW210778   2.013   3.928   4.024
 2961SOL     OW10779   3.865  12.407   3.213
 2961SOL    HW110780   3.906  12.395   3.298
 2961SOL    HW210781   3.938  12.403   3.150
 2962SOL     OW10782   5.872   4.677   1.401
 2962SOL    HW110783   5.875   4.625   1.481
 2962SOL    HW210784   5.870   4.768   1.431
 2963SOL     OW10785   3.321  14.272   9.123
 2963SOL    HW110786   3.392  14.227   9.167
 2963SOL    HW210787   3.295  14.341   9.184
 2964SOL     OW10788  14.128   2.925  14.508
 2964SOL    HW110789  14.073   2.932  14.430
 2964SOL    HW210790  14.075   2.964  14.578
 2965SOL     OW10791   4.842   3.569  13.348
 2965SOL    HW110792   4.763   3.611  13.314
 2965SOL    HW210793   4.829   3.476  13.330
 2966SOL     OW10794   0.491  10.478   3.355
 2966SOL    HW110795   0.574  10.471   3.309
 2966SOL    HW210796   0.434  10.527   3.296
 2967SOL     OW10797   6.245   7.766   8.815
 2967SOL    HW110798   6.281   7.823   8.883
 2967SOL    HW210799   6.245   7.820   8.736
 2968SOL     OW10800   8.566  13.182   8.985
 2968SOL    HW110801   8.543  13.181   8.892
 2968SOL    HW210802   8.639  13.121   8.992
 2969SOL     OW10803   4.787   8.880   0.570
 2969SOL    HW110804   4.707   8.834   0.595
 2969SOL    HW210805   4.777   8.967   0.609
 2970SOL     OW10806   1.719   9.851   5.709
 2970SOL    HW110807   1.661   9.923   5.683
 2970SOL    HW210808   1.686   9.775   5.660
 2971SOL     OW10809  11.047   9.536   0.857
 2971SOL    HW110810  11.003   9.480   0.921
 2971SOL    HW210811  11.038   9.625   0.891
 2972SOL     OW10812  13.559  14.528   3.501
 2972SOL    HW110813  13.523  14.615   3.481
 2972SOL    HW210814  13.538  14.514   3.593
 2973SOL     OW10815  11.482  10.199   7.085
 2973SOL    HW110816  11.386  10.199   7.094
 2973SOL    HW210817  11.511  10.268   7.145
 2974SOL     OW10818  10.886   9.310  10.408
 2974SOL    HW110819  10.909   9.219  10.429
 2974SOL    HW210820  10.954   9.338  10.346
 2975SOL     OW10821   1.546   4.056   8.555
 2975SOL    HW110822   1.631   4.013   8.541
 2975SOL    HW210823   1.563   4.148   8.537
 2976SOL     OW10824   3.074  13.435   1.925
 2976SOL    HW110825   2.988  13.395   1.912
 2976SOL    HW210826   3.061  13.496   1.999
 2977SOL     OW10827  11.877   9.338   0.291
 2977SOL    HW110828  11.972   9.347   0.304
 2977SOL    HW210829  11.866   9.334   0.196
 2978SOL     OW10830   3.537   4.520   0.920
 2978SOL    HW110831   3.556   4.460   0.847
 2978SOL    HW210832   3.447   4.547   0.907
 2979SOL     OW10833  10.890   4.700   0.818
 2979SOL    HW110834  10.849   4.784   0.795
 2979SOL    HW210835  10.822   4.652   0.865
 2980SOL     OW10836  14.661   4.913   7.375
 2980SOL    HW110837  14.693   4.942   7.460
 2980SOL    HW210838  14.576   4.955   7.365
 2981SOL     OW10839  13.760  14.103   1.375
 2981SOL    HW110840  13.777  14.016   1.413
 2981SOL    HW210841  13.736  14.084   1.284
 2982SOL     OW10842   7.493   9.743   1.791
 2982SOL    HW110843   7.575   9.774   1.830
 2982SOL    HW210844   7.508   9.651   1.772
 2983SOL     OW10845  14.842   3.320   1.807
 2983SOL    HW110846   0.007   3.245   1.843
 2983SOL    HW210847  14.813   3.292   1.721
 2984SOL     OW10848  12.992  11.748  14.310
 2984SOL    HW110849  12.977  11.661  14.274
 2984SOL    HW210850  13.064  11.784  14.259
 2985SOL     OW10851   6.408   6.225   5.403
 2985SOL    HW110852   6.433   6.149   5.456
 2985SOL    HW210853   6.365   6.284   5.465
 2986SOL     OW10854   1.009   0.150   0.765
 2986SOL    HW110855   0.932   0.200   0.794
 2986SOL    HW210856   0.975   0.062   0.749
 2987SOL     OW10857   9.912   7.857   4.629
 2987SOL    HW110858   9.850   7.784   4.621
 2987SOL    HW210859   9.917   7.893   4.541
 2988SOL     OW10860   6.230  14.559   6.188
 2988SOL    HW110861   6.184  14.526   6.111
 2988SOL    HW210862   6.318  14.522   6.181
 2989SOL     OW10863   1.548   0.915  10.375
 2989SOL    HW110864   1.568   0.997  10.420
 2989SOL    HW210865   1.589   0.847  10.429
 2990SOL     OW10866   2.634   7.871  12.614
 2990SOL    HW110867   2.551   7.899  12.653
 2990SOL    HW210868   2.628   7.895  12.522
 2991SOL     OW10869   1.563  14.349  11.314
 2991SOL    HW110870   1.506  14.273  11.314
 2991SOL    HW210871   1.508  14.421  11.345
 2992SOL     OW10872   5.666  10.457  14.016
 2992SOL    HW110873   5.626  10.507  14.086
 2992SOL    HW210874   5.645  10.366  14.035
 2993SOL     OW10875   9.508   8.588   8.742
 2993SOL    HW110876   9.570   8.551   8.678
 2993SOL    HW210877   9.425   8.546   8.722
 2994SOL     OW10878  10.652   5.985   5.868
 2994SOL    HW110879  10.572   6.006   5.820
 2994SOL    HW210880  10.691   6.070   5.889
 2995SOL     OW10881   6.540   6.715   7.956
 2995SOL    HW110882   6.557   6.803   7.987
 2995SOL    HW210883   6.582   6.658   8.020
 2996SOL     OW10884  13.399   9.329   9.402
 2996SOL    HW110885  13.342   9.262   9.441
 2996SOL    HW210886  13.465   9.280   9.354
 2997SOL     OW10887   7.159   3.701  11.669
 2997SOL    HW110888   7.086   3.716  11.730
 2997SOL    HW210889   7.229   3.757  11.701
 2998SOL     OW10890   4.694   2.023  13.554
 2998SOL    HW110891   4.623   2.069  13.509
 2998SOL    HW210892   4.774   2.057  13.514
 2999SOL     OW10893   0.646   8.253   9.502
 2999SOL    HW110894   0.717   8.190   9.509
 2999SOL    HW210895   0.609   8.258   9.590
 3000SOL     OW10896   2.655   9.022   7.622
 3000SOL    HW110897   2.738   9.046   7.664
 3000SOL    HW210898   2.675   9.019   7.529
 3001SOL     OW10899   8.050   1.777   2.342
 3001SOL    HW110900   7.971   1.782   2.396
 3001SOL    HW210901   8.063   1.684   2.326
 3002SOL     OW10902   3.419   4.768  12.761
 3002SOL    HW110903   3.403   4.674  12.768
 3002SOL    HW210904   3.339   4.804  12.724
 3003SOL     OW10905   9.001   9.559   2.844
 3003SOL    HW110906   8.981   9.596   2.930
 3003SOL    HW210907   9.042   9.631   2.796
 3004SOL     OW10908   7.205   1.112   6.447
 3004SOL    HW110909   7.287   1.161   6.441
 3004SOL    HW210910   7.217   1.038   6.387
 3005SOL     OW10911   3.885   8.003   4.292
 3005SOL    HW110912   3.858   8.086   4.331
 3005SOL    HW210913   3.958   8.026   4.234
 3006SOL     OW10914   1.616   2.989   2.637
 3006SOL    HW110915   1.614   2.894   2.648
 3006SOL    HW210916   1.601   3.004   2.544
 3007SOL     OW10917  14.514   2.928   1.650
 3007SOL    HW110918  14.538   3.021   1.652
 3007SOL    HW210919  14.517   2.904   1.557
 3008SOL     OW10920   1.416  11.892  11.307
 3008SOL    HW110921   1.405  11.831  11.233
 3008SOL    HW210922   1.485  11.952  11.279
 3009SOL     OW10923  13.346  10.009   4.314
 3009SOL    HW110924  13.285   9.946   4.274
 3009SOL    HW210925  13.327  10.003   4.408
 3010SOL     OW10926   5.115   8.189   9.213
 3010SOL    HW110927   5.209   8.177   9.197
 3010SOL    HW210928   5.104   8.173   9.307
 3011SOL     OW10929   5.957  10.467   6.496
 3011SOL    HW110930   6.006  10.418   6.562
 3011SOL    HW210931   6.019  10.484   6.426
 3012SOL     OW10932   8.279   2.412   7.030
 3012SOL    HW110933   8.280   2.347   6.959
 3012SOL    HW210934   8.370   2.418   7.058
 3013SOL     OW10935   0.801  10.751   4.846
 3013SOL    HW110936   0.788  10.758   4.941
 3013SOL    HW210937   0.804  10.842   4.816
 3014SOL     OW10938   1.480   4.242   5.915
 3014SOL    HW110939   1.384   4.247   5.917
 3014SOL    HW210940   1.503   4.268   5.826
 3015SOL     OW10941   9.059  10.662   8.731
 3015SOL    HW110942   8.991  10.611   8.776
 3015SOL    HW210943   9.057  10.748   8.775
 3016SOL     OW10944   5.239  13.646  12.201
 3016SOL    HW110945   5.287  13.680  12.276
 3016SOL    HW210946   5.153  13.622  12.236
 3017SOL     OW10947   6.484   1.698   6.787
 3017SOL    HW110948   6.473   1.790   6.764
 3017SOL    HW210949   6.418   1.652   6.735
 3018SOL     OW10950  14.189   3.123   6.524
 3018SOL    HW110951  14.276   3.162   6.528
 3018SOL    HW210952  14.129   3.198   6.529
 3019SOL     OW10953  14.229   1.342   6.495
 3019SOL    HW110954  14.214   1.366   6.404
 3019SOL    HW210955  14.298   1.401   6.524
 3020SOL     OW10956  14.804   7.528   9.151
 3020SOL    HW110957  14.812   7.623   9.146
 3020SOL    HW210958  14.715   7.513   9.181
 3021SOL     OW10959   4.810   5.880   2.215
 3021SOL    HW110960   4.846   5.792   2.207
 3021SOL    HW210961   4.868   5.925   2.276
 3022SOL     OW10962  13.928   1.130   7.782
 3022SOL    HW110963  13.882   1.214   7.782
 3022SOL    HW210964  13.983   1.132   7.704
 3023SOL     OW10965  12.862   2.308   7.570
 3023SOL    HW110966  12.865   2.333   7.663
 3023SOL    HW210967  12.804   2.373   7.530
 3024SOL     OW10968  10.873   5.301   2.895
 3024SOL    HW110969  10.947   5.351   2.931
 3024SOL    HW210970  10.906   5.267   2.812
 3025SOL     OW10971  13.822  13.673   1.328
 3025SOL    HW110972  13.816  13.578   1.316
 3025SOL    HW210973  13.789  13.709   1.246
 3026SOL     OW10974   2.842   9.798  12.478
 3026SOL    HW110975   2.932   9.817  12.452
 3026SOL    HW210976   2.800   9.883  12.483
 3027SOL     OW10977   1.040   6.448   9.175
 3027SOL    HW110978   0.956   6.413   9.205
 3027SOL    HW210979   1.018   6.494   9.094
 3028SOL     OW10980   8.146   5.723   9.998
 3028SOL    HW110981   8.149   5.648  10.057
 3028SOL    HW210982   8.230   5.767  10.011
 3029SOL     OW10983  10.408   7.020   5.451
 3029SOL    HW110984  10.326   7.066   5.466
 3029SOL    HW210985  10.476   7.086   5.466
 3030SOL     OW10986   1.564   2.277   7.311
 3030SOL    HW110987   1.604   2.221   7.377
 3030SOL    HW210988   1.613   2.258   7.231
 3031SOL     OW10989   7.020  10.109  12.328
 3031SOL    HW110990   7.109  10.075  12.317
 3031SOL    HW210991   6.969  10.066  12.259
 3032SOL     OW10992   6.085  13.394  12.508
 3032SOL    HW110993   6.036  13.456  12.453
 3032SOL    HW210994   6.019  13.354  12.564
 3033SOL     OW10995  13.267   9.862   5.756
 3033SOL    HW110996  13.334   9.928   5.769
 3033SOL    HW210997  13.219   9.891   5.678
 3034SOL     OW10998   6.288  10.449   1.798
 3034SOL    HW110999   6.292  10.510   1.724
 3034SOL    HW211000   6.334  10.371   1.766
 3035SOL     OW11001  11.235   4.154  10.344
 3035SOL    HW111002  11.308   4.172  10.284
 3035SOL    HW211003  11.157   4.174  10.292
 3036SOL     OW11004   9.159  14.462   4.140
 3036SOL    HW111005   9.070  14.494   4.123
 3036SOL    HW211006   9.171  14.390   4.078
 3037SOL     OW11007   0.623   6.264   4.709
 3037SOL    HW111008   0.631   6.199   4.778
 3037SOL    HW211009   0.621   6.213   4.628
 3038SOL     OW11010   1.313   6.894   1.598
 3038SOL    HW111011   1.357   6.960   1.652
 3038SOL    HW211012   1.383   6.836   1.570
 3039SOL     OW11013   9.506   4.870  12.870
 3039SOL    HW111014   9.433   4.916  12.912
 3039SOL    HW211015   9.528   4.925  12.794
 3040SOL     OW11016   1.585   0.320   1.090
 3040SOL    HW111017   1.536   0.295   1.012
 3040SOL    HW211018   1.523   0.370   1.143
 3041SOL     OW11019   1.789  10.021   6.311
 3041SOL    HW111020   1.741   9.938   6.313
 3041SOL    HW211021   1.881   9.996   6.317
 3042SOL     OW11022   7.959   7.752  10.000
 3042SOL    HW111023   7.912   7.722  10.078
 3042SOL    HW211024   7.897   7.810   9.956
 3043SOL     OW11025   9.575  11.265   1.346
 3043SOL    HW111026   9.587  11.337   1.409
 3043SOL    HW211027   9.486  11.235   1.360
 3044SOL     OW11028   5.300   7.422   5.945
 3044SOL    HW111029   5.304   7.509   5.905
 3044SOL    HW211030   5.242   7.434   6.020
 3045SOL     OW11031   2.520   0.587   9.770
 3045SOL    HW111032   2.474   0.665   9.800
 3045SOL    HW211033   2.501   0.582   9.676
 3046SOL     OW11034   6.048   4.218  12.945
 3046SOL    HW111035   6.102   4.164  12.887
 3046SOL    HW211036   6.070   4.187  13.033
 3047SOL     OW11037   4.390   2.298  10.057
 3047SOL    HW111038   4.439   2.377  10.079
 3047SOL    HW211039   4.346   2.319   9.974
 3048SOL     OW11040  13.385   7.147   1.839
 3048SOL    HW111041  13.477   7.118   1.834
 3048SOL    HW211042  13.338   7.086   1.783
 3049SOL     OW11043  11.224  10.464   8.844
 3049SOL    HW111044  11.228  10.537   8.905
 3049SOL    HW211045  11.135  10.430   8.853
 3050SOL     OW11046   0.804   0.926   3.286
 3050SOL    HW111047   0.822   0.897   3.376
 3050SOL    HW211048   0.750   1.004   3.296
 3051SOL     OW11049   3.012  11.997   6.803
 3051SOL    HW111050   3.000  11.918   6.855
 3051SOL    HW211051   3.103  11.994   6.775
 3052SOL     OW11052  14.552   4.803   4.808
 3052SOL    HW111053  14.563   4.713   4.777
 3052SOL    HW211054  14.474   4.835   4.762
 3053SOL     OW11055  10.199   3.996   4.206
 3053SOL    HW111056  10.216   3.914   4.252
 3053SOL    HW211057  10.265   4.057   4.240
 3054SOL     OW11058   5.911  13.939  12.494
 3054SOL    HW111059   5.878  13.854  12.464
 3054SOL    HW211060   5.945  13.921  12.582
 3055SOL     OW11061  14.010   2.506   2.401
 3055SOL    HW111062  14.086   2.514   2.343
 3055SOL    HW211063  13.937   2.487   2.343
 3056SOL     OW11064  11.624   4.583   4.739
 3056SOL    HW111065  11.698   4.622   4.785
 3056SOL    HW211066  11.640   4.601   4.647
 3057SOL     OW11067  14.805   6.840  12.481
 3057SOL    HW111068  14.881   6.872  12.433
 3057SOL    HW211069  14.841   6.805  12.563
 3058SOL     OW11070   2.517   3.623   1.221
 3058SOL    HW111071   2.549   3.542   1.181
 3058SOL    HW211072   2.592   3.683   1.216
 3059SOL     OW11073   9.977   0.650  10.365
 3059SOL    HW111074  10.039   0.577  10.359
 3059SOL    HW211075   9.989   0.698  10.283
 3060SOL     OW11076   4.243   7.488  12.858
 3060SOL    HW111077   4.233   7.573  12.816
 3060SOL    HW211078   4.248   7.425  12.786
 3061SOL     OW11079   6.811   2.985  13.998
 3061SOL    HW111080   6.765   3.065  13.973
 3061SOL    HW211081   6.891   3.016  14.040
 3062SOL     OW11082   5.143  10.259   3.395
 3062SOL    HW111083   5.233  10.286   3.373
 3062SOL    HW211084   5.117  10.317   3.466
 3063SOL     OW11085   5.272   2.758   0.882
 3063SOL    HW111086   5.208   2.730   0.817
 3063SOL    HW211087   5.240   2.722   0.965
 3064SOL     OW11088   0.852   3.241   8.325
 3064SOL    HW111089   0.937   3.285   8.327
 3064SOL    HW211090   0.864   3.162   8.378
 3065SOL     OW11091   1.787   8.285  10.189
 3065SOL    HW111092   1.738   8.203  10.185
 3065SOL    HW211093   1.851   8.270  10.259
 3066SOL     OW11094   4.598   2.341  10.478
 3066SOL    HW111095   4.651   2.406  10.433
 3066SOL    HW211096   4.657   2.267  10.493
 3067SOL     OW11097   9.551  13.595   4.879
 3067SOL    HW111098   9.619  13.599   4.812
 3067SOL    HW211099   9.587  13.644   4.953
 3068SOL     OW11100   6.858  11.709  11.380
 3068SOL    HW111101   6.874  11.643  11.312
 3068SOL    HW211102   6.802  11.774  11.338
 3069SOL     OW11103   5.021   4.516   8.048
 3069SOL    HW111104   4.938   4.548   8.011
 3069SOL    HW211105   5.065   4.474   7.975
 3070SOL     OW11106   2.188   2.436   3.142
 3070SOL    HW111107   2.219   2.454   3.054
 3070SOL    HW211108   2.218   2.347   3.160
 3071SOL     OW11109   8.681  12.934   1.681
 3071SOL    HW111110   8.756  12.990   1.699
 3071SOL    HW211111   8.624  12.987   1.625
 3072SOL     OW11112   4.023  14.639   3.896
 3072SOL    HW111113   4.017  14.562   3.952
 3072SOL    HW211114   4.117  14.656   3.889
 3073SOL     OW11115  13.566   8.483   7.405
 3073SOL    HW111116  13.653   8.487   7.367
 3073SOL    HW211117  13.575   8.421   7.478
 3074SOL     OW11118  12.613   9.005   5.833
 3074SOL    HW111119  12.615   8.981   5.741
 3074SOL    HW211120  12.579   9.094   5.834
 3075SOL     OW11121   6.599   4.940   9.158
 3075SOL    HW111122   6.578   4.872   9.095
 3075SOL    HW211123   6.689   4.966   9.136
 3076SOL     OW11124   4.925   7.126   0.464
 3076SOL    HW111125   4.983   7.064   0.420
 3076SOL    HW211126   4.847   7.128   0.409
 3077SOL     OW11127   5.691   4.433  13.763
 3077SOL    HW111128   5.704   4.467  13.851
 3077SOL    HW211129   5.597   4.417  13.757
 3078SOL     OW11130   3.259   0.521   1.003
 3078SOL    HW111131   3.192   0.586   1.024
 3078SOL    HW211132   3.269   0.469   1.083
 3079SOL     OW11133  12.217   9.894  10.784
 3079SOL    HW111134  12.189   9.983  10.806
 3079SOL    HW211135  12.136   9.843  10.782
 3080SOL     OW11136  11.016  13.209   7.181
 3080SOL    HW111137  11.009  13.188   7.274
 3080SOL    HW211138  11.096  13.164   7.152
 3081SOL     OW11139   0.642   8.039  11.998
 3081SOL    HW111140   0.656   7.945  11.999
 3081SOL    HW211141   0.592   8.057  12.078
 3082SOL     OW11142   7.037   8.784  11.966
 3082SOL    HW111143   7.043   8.769  12.060
 3082SOL    HW211144   6.993   8.706  11.932
 3083SOL     OW11145   7.616  14.656  11.198
 3083SOL    HW111146   7.648  14.572  11.232
 3083SOL    HW211147   7.695  14.710  11.192
 3084SOL     OW11148   5.417   7.525   7.069
 3084SOL    HW111149   5.506   7.490   7.073
 3084SOL    HW211150   5.372   7.470   7.005
 3085SOL     OW11151   2.429   5.442   5.701
 3085SOL    HW111152   2.446   5.348   5.708
 3085SOL    HW211153   2.337   5.448   5.672
 3086SOL     OW11154   7.521   7.925   1.060
 3086SOL    HW111155   7.497   7.943   1.151
 3086SOL    HW211156   7.578   7.848   1.064
 3087SOL     OW11157   8.040   7.502  12.041
 3087SOL    HW111158   8.121   7.510  11.990
 3087SOL    HW211159   8.070   7.480  12.129
 3088SOL     OW11160   6.878   3.005   0.448
 3088SOL    HW111161   6.805   3.063   0.427
 3088SOL    HW211162   6.848   2.918   0.421
 3089SOL     OW11163   7.381   0.520   3.332
 3089SOL    HW111164   7.450   0.524   3.398
 3089SOL    HW211165   7.327   0.597   3.351
 3090SOL     OW11166  13.329   2.696   2.933
 3090SOL    HW111167  13.263   2.627   2.940
 3090SOL    HW211168  13.331   2.736   3.020
 3091SOL     OW11169   8.140  10.223   9.531
 3091SOL    HW111170   8.203  10.295   9.527
 3091SOL    HW211171   8.146  10.180   9.446
 3092SOL     OW11172  14.847   5.221  13.333
 3092SOL    HW111173  14.803   5.165  13.270
 3092SOL    HW211174   0.058   5.209  13.314
 3093SOL     OW11175  14.236   2.037   9.483
 3093SOL    HW111176  14.278   2.086   9.554
 3093SOL    HW211177  14.142   2.043   9.503
 3094SOL     OW11178   2.106   2.412   7.490
 3094SOL    HW111179   2.140   2.364   7.414
 3094SOL    HW211180   2.144   2.366   7.565
 3095SOL     OW11181  10.250  11.180   0.693
 3095SOL    HW111182  10.171  11.181   0.747
 3095SOL    HW211183  10.286  11.268   0.704
 3096SOL     OW11184   1.016   5.030  12.432
 3096SOL    HW111185   1.012   4.939  12.464
 3096SOL    HW211186   0.934   5.069  12.462
 3097SOL     OW11187   3.498   2.767  14.316
 3097SOL    HW111188   3.516   2.739  14.406
 3097SOL    HW211189   3.461   2.689  14.274
 3098SOL     OW11190   8.222   2.262   5.561
 3098SOL    HW111191   8.187   2.185   5.605
 3098SOL    HW211192   8.276   2.306   5.627
 3099SOL     OW11193  12.587   4.400  10.890
 3099SOL    HW111194  12.569   4.464  10.959
 3099SOL    HW211195  12.501   4.382  10.851
 3100SOL     OW11196   7.618  10.549   6.855
 3100SOL    HW111197   7.682  10.502   6.802
 3100SOL    HW211198   7.607  10.633   6.811
 3101SOL     OW11199  13.449   5.794   6.848
 3101SOL    HW111200  13.366   5.793   6.800
 3101SOL    HW211201  13.443   5.719   6.908
 3102SOL     OW11202   0.964   9.192   2.203
 3102SOL    HW111203   0.945   9.238   2.121
 3102SOL    HW211204   1.045   9.143   2.186
 3103SOL     OW11205   1.922   4.418  14.121
 3103SOL    HW111206   1.860   4.368  14.173
 3103SOL    HW211207   1.890   4.410  14.031
 3104SOL     OW11208  12.103   2.543   0.183
 3104SOL    HW111209  12.010   2.541   0.203
 3104SOL    HW211210  12.124   2.456   0.152
 3105SOL     OW11211   7.945   9.927   8.570
 3105SOL    HW111212   7.902   9.970   8.644
 3105SOL    HW211213   7.911   9.838   8.571
 3106SOL     OW11214   3.776   5.836  11.585
 3106SOL    HW111215   3.798   5.843  11.492
 3106SOL    HW211216   3.693   5.789  11.587
 3107SOL     OW11217  10.216  11.837   8.999
 3107SOL    HW111218  10.220  11.832   8.904
 3107SOL    HW211219  10.307  11.834   9.027
 3108SOL     OW11220  13.675   9.995  12.730
 3108SOL    HW111221  13.673  10.090  12.740
 3108SOL    HW211222  13.596   9.964  12.774
 3109SOL     OW11223  12.666   2.766  12.514
 3109SOL    HW111224  12.684   2.672  12.504
 3109SOL    HW211225  12.598   2.770  12.582
 3110SOL     OW11226   7.467   0.419  11.919
 3110SOL    HW111227   7.383   0.429  11.873
 3110SOL    HW211228   7.451   0.456  12.006
 3111SOL     OW11229  10.430   3.892   2.482
 3111SOL    HW111230  10.336   3.906   2.498
 3111SOL    HW211231  10.467   3.980   2.477
 3112SOL     OW11232   6.124  14.698   2.745
 3112SOL    HW111233   6.110  14.738   2.831
 3112SOL    HW211234   6.219  14.683   2.741
 3113SOL     OW11235   6.005   8.550   1.107
 3113SOL    HW111236   6.056   8.628   1.127
 3113SOL    HW211237   5.957   8.571   1.028
 3114SOL     OW11238   7.684  13.939   1.726
 3114SOL    HW111239   7.691  13.861   1.671
 3114SOL    HW211240   7.658  13.905   1.812
 3115SOL     OW11241   3.584   6.539   2.528
 3115SOL    HW111242   3.600   6.610   2.589
 3115SOL    HW211243   3.634   6.465   2.564
 3116SOL     OW11244   7.953   2.340   9.560
 3116SOL    HW111245   7.954   2.286   9.481
 3116SOL    HW211246   7.923   2.281   9.629
 3117SOL     OW11247   1.197  10.985  13.962
 3117SOL    HW111248   1.282  10.962  13.923
 3117SOL    HW211249   1.216  11.001  14.054
 3118SOL     OW11250   6.015  11.520   0.614
 3118SOL    HW111251   5.947  11.551   0.554
 3118SOL    HW211252   5.970  11.508   0.697
 3119SOL     OW11253   4.105   9.174  10.096
 3119SOL    HW111254   4.136   9.091  10.060
 3119SOL    HW211255   4.183   9.229  10.100
 3120SOL     OW11256   1.847  12.896   9.900
 3120SOL    HW111257   1.818  12.867   9.813
 3120SOL    HW211258   1.933  12.936   9.885
 3121SOL     OW11259   1.424   0.926   5.508
 3121SOL    HW111260   1.500   0.983   5.520
 3121SOL    HW211261   1.441   0.882   5.425
 3122SOL     OW11262   2.798   2.833   0.717
 3122SOL    HW111263   2.833   2.910   0.671
 3122SOL    HW211264   2.707   2.826   0.688
 3123SOL     OW11265   2.006   2.907   4.165
 3123SOL    HW111266   1.974   2.862   4.243
 3123SOL    HW211267   2.101   2.900   4.171
 3124SOL     OW11268   0.425   2.943  12.109
 3124SOL    HW111269   0.335   2.925  12.083
 3124SOL    HW211270   0.428   2.916  12.201
 3125SOL     OW11271  14.171  11.512   1.842
 3125SOL    HW111272  14.091  11.498   1.894
 3125SOL    HW211273  14.146  11.490   1.753
 3126SOL     OW11274  14.518   4.015  10.766
 3126SOL    HW111275  14.484   3.933  10.800
 3126SOL    HW211276  14.548   4.063  10.844
 3127SOL     OW11277   2.018   5.193  13.612
 3127SOL    HW111278   1.992   5.141  13.688
 3127SOL    HW211279   2.113   5.198  13.618
 3128SOL     OW11280   7.460   2.184   4.006
 3128SOL    HW111281   7.450   2.279   4.002
 3128SOL    HW211282   7.390   2.150   3.950
 3129SOL     OW11283   9.878  11.376   3.474
 3129SOL    HW111284   9.961  11.337   3.501
 3129SOL    HW211285   9.856  11.332   3.392
 3130SOL     OW11286   5.906   2.759   6.284
 3130SOL    HW111287   5.900   2.664   6.299
 3130SOL    HW211288   5.996   2.774   6.256
 3131SOL     OW11289   2.900   5.156  14.794
 3131SOL    HW111290   2.954   5.170  14.716
 3131SOL    HW211291   2.815   5.193  14.771
 3132SOL     OW11292   0.296   8.781   9.717
 3132SOL    HW111293   0.305   8.688   9.699
 3132SOL    HW211294   0.203   8.799   9.706
 3133SOL     OW11295   3.968   8.067  14.055
 3133SOL    HW111296   4.023   8.030  13.985
 3133SOL    HW211297   4.028   8.122  14.105
 3134SOL     OW11298  10.136   3.680   0.802
 3134SOL    HW111299  10.078   3.744   0.843
 3134SOL    HW211300  10.195   3.653   0.872
 3135SOL     OW11301  14.589   4.800  10.853
 3135SOL    HW111302  14.549   4.729  10.903
 3135SOL    HW211303  14.664   4.758  10.809
 3136SOL     OW11304   9.066   5.716  12.757
 3136SOL    HW111305   9.066   5.732  12.663
 3136SOL    HW211306   9.096   5.798  12.795
 3137SOL     OW11307  12.868  14.193   1.274
 3137SOL    HW111308  12.886  14.279   1.312
 3137SOL    HW211309  12.953  14.152   1.267
 3138SOL     OW11310   2.186  10.201  10.866
 3138SOL    HW111311   2.224  10.263  10.804
 3138SOL    HW211312   2.217  10.116  10.837
 3139SOL     OW11313   4.784  12.202  10.591
 3139SOL    HW111314   4.777  12.106  10.592
 3139SOL    HW211315   4.694  12.233  10.602
 3140SOL     OW11316   1.044  10.072  12.076
 3140SOL    HW111317   0.983   9.999  12.090
 3140SOL    HW211318   1.054  10.077  11.981
 3141SOL     OW11319  14.159  14.467   7.138
 3141SOL    HW111320  14.223  14.532   7.110
 3141SOL    HW211321  14.075  14.513   7.137
 3142SOL     OW11322  11.856   3.489  13.816
 3142SOL    HW111323  11.827   3.519  13.902
 3142SOL    HW211324  11.775   3.463  13.771
 3143SOL     OW11325   8.568  14.471   6.949
 3143SOL    HW111326   8.570  14.420   6.868
 3143SOL    HW211327   8.659  14.497   6.964
 3144SOL     OW11328  13.096   5.496   8.927
 3144SOL    HW111329  13.022   5.533   8.879
 3144SOL    HW211330  13.065   5.411   8.958
 3145SOL     OW11331   4.166   4.322   3.190
 3145SOL    HW111332   4.134   4.233   3.201
 3145SOL    HW211333   4.115   4.374   3.253
 3146SOL     OW11334  10.365   5.601   2.633
 3146SOL    HW111335  10.306   5.673   2.612
 3146SOL    HW211336  10.310   5.523   2.635
 3147SOL     OW11337   9.682  10.829  11.525
 3147SOL    HW111338   9.702  10.920  11.504
 3147SOL    HW211339   9.707  10.819  11.617
 3148SOL     OW11340   5.676  14.711   9.105
 3148SOL    HW111341   5.761  14.744   9.133
 3148SOL    HW211342   5.635  14.785   9.060
 3149SOL     OW11343   4.946  11.654  10.711
 3149SOL    HW111344   4.987  11.567  10.720
 3149SOL    HW211345   5.009  11.705  10.660
 3150SOL     OW11346   7.055  13.173   0.477
 3150SOL    HW111347   7.089  13.090   0.510
 3150SOL    HW211348   7.039  13.157   0.384
 3151SOL     OW11349   5.819   6.728  14.487
 3151SOL    HW111350   5.800   6.741  14.394
 3151SOL    HW211351   5.798   6.812  14.527
 3152SOL     OW11352   8.979   8.027   0.591
 3152SOL    HW111353   8.946   8.007   0.504
 3152SOL    HW211354   8.952   8.118   0.607
 3153SOL     OW11355   2.031  10.614   9.412
 3153SOL    HW111356   2.111  10.661   9.390
 3153SOL    HW211357   2.010  10.564   9.333
 3154SOL     OW11358  10.657  11.818   2.927
 3154SOL    HW111359  10.720  11.778   2.987
 3154SOL    HW211360  10.629  11.745   2.871
 3155SOL     OW11361   2.081  14.555   4.016
 3155SOL    HW111362   2.096  14.466   4.047
 3155SOL    HW211363   2.105  14.611   4.090
 3156SOL     OW11364   6.764  11.948   9.895
 3156SOL    HW111365   6.756  11.854   9.904
 3156SOL    HW211366   6.683  11.983   9.934
 3157SOL     OW11367  11.045   1.457   8.291
 3157SOL    HW111368  11.088   1.455   8.205
 3157SOL    HW211369  11.055   1.368   8.325
 3158SOL     OW11370   4.181   5.043  12.482
 3158SOL    HW111371   4.231   5.075  12.407
 3158SOL    HW211372   4.090   5.046  12.452
 3159SOL     OW11373   1.753  13.421   7.883
 3159SOL    HW111374   1.790  13.371   7.809
 3159SOL    HW211375   1.792  13.381   7.960
 3160SOL     OW11376   4.726   4.413   2.282
 3160SOL    HW111377   4.762   4.377   2.200
 3160SOL    HW211378   4.744   4.507   2.277
 3161SOL     OW11379   3.891  12.801  10.124
 3161SOL    HW111380   3.872  12.709  10.104
 3161SOL    HW211381   3.854  12.815  10.211
 3162SOL     OW11382   0.369  11.955  11.559
 3162SOL    HW111383   0.400  11.978  11.647
 3162SOL    HW211384   0.429  12.001  11.500
 3163SOL     OW11385   9.089   9.926  12.887
 3163SOL    HW111386   9.121   9.960  12.803
 3163SOL    HW211387   9.028   9.993  12.918
 3164SOL     OW11388   9.969   9.763  12.124
 3164SOL    HW111389   9.879   9.733  12.132
 3164SOL    HW211390   9.980   9.826  12.196
 3165SOL     OW11391   9.974  10.964   1.592
 3165SOL    HW111392  10.005  11.052   1.611
 3165SOL    HW211393  10.046  10.907   1.620
 3166SOL     OW11394  10.283   4.664  10.884
 3166SOL    HW111395  10.220   4.711  10.938
 3166SOL    HW211396  10.228   4.611  10.826
 3167SOL     OW11397  10.938   4.194   2.003
 3167SOL    HW111398  10.973   4.129   2.063
 3167SOL    HW211399  10.845   4.200   2.025
 3168SOL     OW11400   9.730   2.955   0.104
 3168SOL    HW111401   9.654   2.898   0.119
 3168SOL    HW211402   9.731   2.968   0.009
 3169SOL     OW11403  12.686   8.288   0.588
 3169SOL    HW111404  12.656   8.320   0.503
 3169SOL    HW211405  12.782   8.286   0.580
 3170SOL     OW11406   0.220  10.749   5.893
 3170SOL    HW111407   0.266  10.670   5.868
 3170SOL    HW211408   0.280  10.820   5.872
 3171SOL     OW11409  10.252   8.543  13.816
 3171SOL    HW111410  10.300   8.473  13.862
 3171SOL    HW211411  10.312   8.617  13.816
 3172SOL     OW11412  14.591   1.760   0.864
 3172SOL    HW111413  14.567   1.679   0.818
 3172SOL    HW211414  14.511   1.813   0.863
 3173SOL     OW11415   9.799   5.275  14.852
 3173SOL    HW111416   9.791   5.371  14.850
 3173SOL    HW211417   9.821   5.255   0.061
 3174SOL     OW11418   1.442   4.241   2.852
 3174SOL    HW111419   1.500   4.214   2.922
 3174SOL    HW211420   1.396   4.161   2.826
 3175SOL     OW11421  14.024   7.985   5.868
 3175SOL    HW111422  13.944   7.939   5.842
 3175SOL    HW211423  14.094   7.940   5.820
 3176SOL     OW11424   9.120   9.415   0.158
 3176SOL    HW111425   9.161   9.475   0.221
 3176SOL    HW211426   9.155   9.442   0.073
 3177SOL     OW11427   5.093  10.679   6.001
 3177SOL    HW111428   5.132  10.604   6.045
 3177SOL    HW211429   5.074  10.648   5.913
 3178SOL     OW11430   5.895   3.944   7.849
 3178SOL    HW111431   5.972   3.995   7.822
 3178SOL    HW211432   5.852   3.998   7.915
 3179SOL     OW11433   1.555  12.049   2.830
 3179SOL    HW111434   1.637  12.098   2.823
 3179SOL    HW211435   1.527  12.061   2.921
 3180SOL     OW11436  12.280   3.670   7.759
 3180SOL    HW111437  12.297   3.576   7.757
 3180SOL    HW211438  12.227   3.684   7.837
 3181SOL     OW11439   7.056   3.085  14.064
 3181SOL    HW111440   7.116   3.071  14.137
 3181SOL    HW211441   7.037   3.179  14.065
 3182SOL     OW11442   6.479   4.619   2.787
 3182SOL    HW111443   6.478   4.672   2.707
 3182SOL    HW211444   6.572   4.606   2.806
 3183SOL     OW11445  13.033  13.043   0.500
 3183SOL    HW111446  13.100  13.106   0.474
 3183SOL    HW211447  13.074  12.992   0.570
 3184SOL     OW11448   8.784   5.978  11.758
 3184SOL    HW111449   8.861   6.033  11.775
 3184SOL    HW211450   8.720   6.007  11.824
 3185SOL     OW11451  11.035   8.996   6.025
 3185SOL    HW111452  10.968   8.932   6.002
 3185SOL    HW211453  11.014   9.073   5.972
 3186SOL     OW11454   0.614  13.186  13.564
 3186SOL    HW111455   0.613  13.267  13.513
 3186SOL    HW211456   0.524  13.155  13.562
 3187SOL     OW11457  12.952   1.067   1.940
 3187SOL    HW111458  13.019   1.106   1.996
 3187SOL    HW211459  12.994   1.058   1.855
 3188SOL     OW11460   5.666   7.044  13.055
 3188SOL    HW111461   5.702   7.124  13.018
 3188SOL    HW211462   5.672   6.979  12.984
 3189SOL     OW11463   7.025   8.094   5.980
 3189SOL    HW111464   7.034   8.036   5.904
 3189SOL    HW211465   6.931   8.114   5.983
 3190SOL     OW11466   9.367   3.017   1.070
 3190SOL    HW111467   9.427   3.038   0.999
 3190SOL    HW211468   9.359   2.921   1.067
 3191SOL     OW11469   3.223   4.122   7.808
 3191SOL    HW111470   3.160   4.176   7.855
 3191SOL    HW211471   3.170   4.071   7.746
 3192SOL     OW11472   5.108  13.747   9.632
 3192SOL    HW111473   5.026  13.729   9.679
 3192SOL    HW211474   5.080  13.776   9.545
 3193SOL     OW11475   1.375  10.622   5.250
 3193SOL    HW111476   1.291  10.653   5.216
 3193SOL    HW211477   1.399  10.685   5.317
 3194SOL     OW11478   8.811  13.141   4.281
 3194SOL    HW111479   8.788  13.146   4.374
 3194SOL    HW211480   8.756  13.071   4.247
 3195SOL     OW11481   0.765  11.890  11.477
 3195SOL    HW111482   0.841  11.904  11.534
 3195SOL    HW211483   0.708  11.832  11.527
 3196SOL     OW11484   1.071   5.290  14.549
 3196SOL    HW111485   1.018   5.226  14.596
 3196SOL    HW211486   1.086   5.250  14.463
 3197SOL     OW11487   5.722   5.211   7.218
 3197SOL    HW111488   5.648   5.174   7.170
 3197SOL    HW211489   5.687   5.288   7.262
 3198SOL     OW11490   3.676   5.344  10.649
 3198SOL    HW111491   3.767   5.324  10.626
 3198SOL    HW211492   3.625   5.280  10.600
 3199SOL     OW11493   0.691  14.349   9.353
 3199SOL    HW111494   0.769  14.395   9.323
 3199SOL    HW211495   0.720  14.302   9.432
 3200SOL     OW11496  12.067  11.538  14.504
 3200SOL    HW111497  12.060  11.535  14.600
 3200SOL    HW211498  12.070  11.631  14.483
 3201SOL     OW11499   4.095   6.826  12.081
 3201SOL    HW111500   4.117   6.791  11.995
 3201SOL    HW211501   4.023   6.772  12.111
 3202SOL     OW11502   2.514   1.890  12.975
 3202SOL    HW111503   2.494   1.838  13.053
 3202SOL    HW211504   2.602   1.862  12.949
 3203SOL     OW11505  13.806   6.442  12.870
 3203SOL    HW111506  13.837   6.365  12.822
 3203SOL    HW211507  13.877   6.506  12.860
 3204SOL     OW11508   3.661   4.471   1.338
 3204SOL    HW111509   3.614   4.539   1.385
 3204SOL    HW211510   3.602   4.446   1.266
 3205SOL     OW11511   7.978  13.829   8.692
 3205SOL    HW111512   8.011  13.915   8.670
 3205SOL    HW211513   7.925  13.842   8.771
 3206SOL     OW11514   5.278  12.598   2.494
 3206SOL    HW111515   5.201  12.547   2.467
 3206SOL    HW211516   5.332  12.536   2.543
 3207SOL     OW11517   6.679  12.252  11.261
 3207SOL    HW111518   6.650  12.179  11.207
 3207SOL    HW211519   6.677  12.328  11.203
 3208SOL     OW11520   9.579  10.370   2.396
 3208SOL    HW111521   9.545  10.354   2.484
 3208SOL    HW211522   9.502  10.392   2.344
 3209SOL     OW11523   2.323  11.983   4.577
 3209SOL    HW111524   2.305  12.059   4.522
 3209SOL    HW211525   2.416  11.963   4.561
 3210SOL     OW11526  10.650  12.978   8.423
 3210SOL    HW111527  10.650  12.975   8.519
 3210SOL    HW211528  10.741  12.959   8.399
 3211SOL     OW11529   7.423   0.567   7.237
 3211SOL    HW111530   7.394   0.595   7.150
 3211SOL    HW211531   7.404   0.473   7.239
 3212SOL     OW11532   8.580   9.152  11.304
 3212SOL    HW111533   8.621   9.122  11.223
 3212SOL    HW211534   8.603   9.245  11.310
 3213SOL     OW11535   3.179   5.077   6.069
 3213SOL    HW111536   3.212   5.041   6.151
 3213SOL    HW211537   3.085   5.057   6.071
 3214SOL     OW11538  14.480  11.825  10.456
 3214SOL    HW111539  14.481  11.850  10.364
 3214SOL    HW211540  14.534  11.746  10.460
 3215SOL     OW11541   1.948   3.324   4.783
 3215SOL    HW111542   1.884   3.320   4.712
 3215SOL    HW211543   1.975   3.416   4.786
 3216SOL     OW11544   4.583   9.259  12.618
 3216SOL    HW111545   4.606   9.293  12.532
 3216SOL    HW211546   4.556   9.168  12.601
 3217SOL     OW11547  10.087   7.444   9.445
 3217SOL    HW111548  10.104   7.499   9.368
 3217SOL    HW211549  10.174   7.419   9.476
 3218SOL     OW11550  14.690  13.120   6.698
 3218SOL    HW111551  14.717  13.055   6.763
 3218SOL    HW211552  14.715  13.081   6.614
 3219SOL     OW11553  14.766   6.733  11.270
 3219SOL    HW111554  14.751   6.722  11.176
 3219SOL    HW211555  14.691   6.782  11.301
 3220SOL     OW11556   0.538  11.970   1.470
 3220SOL    HW111557   0.626  11.933   1.479
 3220SOL    HW211558   0.519  12.006   1.556
 3221SOL     OW11559   4.816  12.670  12.189
 3221SOL    HW111560   4.835  12.633  12.103
 3221SOL    HW211561   4.833  12.599  12.251
 3222SOL     OW11562   0.749  10.018  14.523
 3222SOL    HW111563   0.763  10.067  14.442
 3222SOL    HW211564   0.731   9.929  14.495
 3223SOL     OW11565   1.685  10.732   4.680
 3223SOL    HW111566   1.711  10.824   4.679
 3223SOL    HW211567   1.590  10.734   4.692
 3224SOL     OW11568  14.420   9.229  14.694
 3224SOL    HW111569  14.368   9.186  14.626
 3224SOL    HW211570  14.502   9.252  14.650
 3225SOL     OW11571  14.452   4.208  13.875
 3225SOL    HW111572  14.523   4.271  13.856
 3225SOL    HW211573  14.373   4.263  13.881
 3226SOL     OW11574  11.998  10.489   5.782
 3226SOL    HW111575  12.015  10.484   5.876
 3226SOL    HW211576  12.015  10.401   5.749
 3227SOL     OW11577   3.104  14.722   0.183
 3227SOL    HW111578   3.172  14.705   0.118
 3227SOL    HW211579   3.100  14.818   0.189
 3228SOL     OW11580   4.156   8.970  12.840
 3228SOL    HW111581   4.241   8.940  12.808
 3228SOL    HW211582   4.095   8.948  12.769
 3229SOL     OW11583   0.577   4.988   6.901
 3229SOL    HW111584   0.558   4.929   6.973
 3229SOL    HW211585   0.557   4.937   6.822
 3230SOL     OW11586   3.414  12.860   5.897
 3230SOL    HW111587   3.415  12.909   5.815
 3230SOL    HW211588   3.493  12.806   5.894
 3231SOL     OW11589   5.387   2.093  11.275
 3231SOL    HW111590   5.298   2.067  11.300
 3231SOL    HW211591   5.374   2.161  11.209
 3232SOL     OW11592   3.795   0.701   0.832
 3232SOL    HW111593   3.860   0.741   0.774
 3232SOL    HW211594   3.711   0.717   0.789
 3233SOL     OW11595  14.506   9.816   9.697
 3233SOL    HW111596  14.446   9.885   9.669
 3233SOL    HW211597  14.452   9.761   9.755
 3234SOL     OW11598   3.902   3.149   7.926
 3234SOL    HW111599   3.965   3.170   7.857
 3234SOL    HW211600   3.951   3.158   8.007
 3235SOL     OW11601  10.067   6.691  10.140
 3235SOL    HW111602  10.013   6.612  10.140
 3235SOL    HW211603  10.097   6.699  10.049
 3236SOL     OW11604  13.456  10.567   4.657
 3236SOL    HW111605  13.386  10.625   4.688
 3236SOL    HW211606  13.535  10.598   4.702
 3237SOL     OW11607  14.531  12.834   1.025
 3237SOL    HW111608  14.536  12.792   0.939
 3237SOL    HW211609  14.521  12.761   1.087
 3238SOL     OW11610   6.994  11.610  11.851
 3238SOL    HW111611   6.941  11.558  11.912
 3238SOL    HW211612   6.935  11.627  11.777
 3239SOL     OW11613   1.433   2.334   9.300
 3239SOL    HW111614   1.464   2.421   9.276
 3239SOL    HW211615   1.404   2.294   9.218
 3240SOL     OW11616  13.707   4.412  13.770
 3240SOL    HW111617  13.694   4.385  13.861
 3240SOL    HW211618  13.701   4.331  13.720
 3241SOL     OW11619  10.616   9.461   6.768
 3241SOL    HW111620  10.607   9.368   6.788
 3241SOL    HW211621  10.584   9.506   6.847
 3242SOL     OW11622  12.324   3.583   5.401
 3242SOL    HW111623  12.255   3.619   5.346
 3242SOL    HW211624  12.374   3.659   5.430
 3243SOL     OW11625  12.147   6.958   3.807
 3243SOL    HW111626  12.152   6.868   3.838
 3243SOL    HW211627  12.055   6.983   3.817
 3244SOL     OW11628   4.046   9.831   5.617
 3244SOL    HW111629   4.059   9.895   5.686
 3244SOL    HW211630   3.952   9.831   5.601
 3245SOL     OW11631   8.301  13.979   4.108
 3245SOL    HW111632   8.377  13.921   4.122
 3245SOL    HW211633   8.290  13.980   4.013
 3246SOL     OW11634   2.676  11.173  13.656
 3246SOL    HW111635   2.770  11.154  13.662
 3246SOL    HW211636   2.634  11.091  13.682
 3247SOL     OW11637   9.558  14.609   6.697
 3247SOL    HW111638   9.493  14.650   6.640
 3247SOL    HW211639   9.642  14.627   6.654
 3248SOL     OW11640  11.125   8.950   7.942
 3248SOL    HW111641  11.107   8.916   8.030
 3248SOL    HW211642  11.040   8.949   7.899
 3249SOL     OW11643   9.406  14.609   2.416
 3249SOL    HW111644   9.417  14.516   2.394
 3249SOL    HW211645   9.399  14.611   2.511
 3250SOL     OW11646   1.277   4.478   1.639
 3250SOL    HW111647   1.362   4.494   1.596
 3250SOL    HW211648   1.213   4.508   1.575
 3251SOL     OW11649   2.451   7.838   5.322
 3251SOL    HW111650   2.435   7.835   5.227
 3251SOL    HW211651   2.384   7.782   5.360
 3252SOL     OW11652  13.794   1.156  11.321
 3252SOL    HW111653  13.885   1.144  11.295
 3252SOL    HW211654  13.753   1.199  11.246
 3253SOL     OW11655   8.638   8.497   8.736
 3253SOL    HW111656   8.593   8.532   8.660
 3253SOL    HW211657   8.615   8.404   8.738
 3254SOL     OW11658   9.910   6.215  11.383
 3254SOL    HW111659   9.852   6.277  11.340
 3254SOL    HW211660   9.927   6.148  11.317
 3255SOL     OW11661  14.617   2.525  10.862
 3255SOL    HW111662  14.610   2.465  10.787
 3255SOL    HW211663  14.661   2.473  10.929
 3256SOL     OW11664   7.700  12.741  11.054
 3256SOL    HW111665   7.715  12.778  10.967
 3256SOL    HW211666   7.631  12.795  11.091
 3257SOL     OW11667   5.702   8.826   6.096
 3257SOL    HW111668   5.732   8.820   6.186
 3257SOL    HW211669   5.707   8.736   6.063
 3258SOL     OW11670   7.035  12.051  12.410
 3258SOL    HW111671   7.123  12.065  12.445
 3258SOL    HW211672   7.037  11.962  12.376
 3259SOL     OW11673   1.206   3.903   1.065
 3259SOL    HW111674   1.217   3.896   1.160
 3259SOL    HW211675   1.135   3.966   1.053
 3260SOL     OW11676   5.090  11.368   6.757
 3260SOL    HW111677   5.013  11.372   6.814
 3260SOL    HW211678   5.105  11.458   6.730
 3261SOL     OW11679  13.366   8.090   5.960
 3261SOL    HW111680  13.433   8.086   5.892
 3261SOL    HW211681  13.298   8.030   5.930
 3262SOL     OW11682   4.898  14.532   5.404
 3262SOL    HW111683   4.892  14.519   5.310
 3262SOL    HW211684   4.917  14.625   5.415
 3263SOL     OW11685  10.612   7.810   6.606
 3263SOL    HW111686  10.587   7.749   6.676
 3263SOL    HW211687  10.620   7.895   6.649
 3264SOL     OW11688   8.982  10.870  11.738
 3264SOL    HW111689   8.891  10.848  11.758
 3264SOL    HW211690   9.033  10.821  11.801
 3265SOL     OW11691   7.071   1.648   6.345
 3265SOL    HW111692   7.141   1.596   6.307
 3265SOL    HW211693   7.015   1.672   6.271
 3266SOL     OW11694   8.388   5.891   6.032
 3266SOL    HW111695   8.451   5.962   6.031
 3266SOL    HW211696   8.400   5.849   6.117
 3267SOL     OW11697   1.950  10.310   7.370
 3267SOL    HW111698   1.944  10.341   7.280
 3267SOL    HW211699   1.917  10.220   7.367
 3268SOL     OW11700   2.413  13.789   0.847
 3268SOL    HW111701   2.471  13.716   0.868
 3268SOL    HW211702   2.460  13.840   0.781
 3269SOL     OW11703   0.656   8.720   9.404
 3269SOL    HW111704   0.697   8.803   9.426
 3269SOL    HW211705   0.647   8.675   9.488
 3270SOL     OW11706  10.770  10.922  14.354
 3270SOL    HW111707  10.802  10.866  14.425
 3270SOL    HW211708  10.678  10.898  14.344
 3271SOL     OW11709   3.943  14.553   1.471
 3271SOL    HW111710   3.867  14.526   1.523
 3271SOL    HW211711   3.935  14.504   1.389
 3272SOL     OW11712   5.958  11.385  13.581
 3272SOL    HW111713   6.013  11.378  13.659
 3272SOL    HW211714   5.869  11.383  13.614
 3273SOL     OW11715   1.650   8.604   0.461
 3273SOL    HW111716   1.648   8.687   0.413
 3273SOL    HW211717   1.600   8.544   0.405
 3274SOL     OW11718   3.230  11.605  12.653
 3274SOL    HW111719   3.204  11.609  12.746
 3274SOL    HW211720   3.323  11.586  12.655
 3275SOL     OW11721  10.036   0.583   9.249
 3275SOL    HW111722  10.101   0.522   9.284
 3275SOL    HW211723  10.034   0.655   9.313
 3276SOL     OW11724  12.317   9.157  14.619
 3276SOL    HW111725  12.262   9.225  14.657
 3276SOL    HW211726  12.279   9.075  14.650
 3277SOL     OW11727  12.487  12.781  11.426
 3277SOL    HW111728  12.572  12.785  11.469
 3277SOL    HW211729  12.475  12.867  11.387
 3278SOL     OW11730   6.013  13.726   3.863
 3278SOL    HW111731   6.029  13.692   3.951
 3278SOL    HW211732   6.015  13.649   3.806
 3279SOL     OW11733  13.179   7.220  14.275
 3279SOL    HW111734  13.250   7.272  14.239
 3279SOL    HW211735  13.190   7.226  14.370
 3280SOL     OW11736   9.603  13.107   9.189
 3280SOL    HW111737   9.654  13.030   9.215
 3280SOL    HW211738   9.559  13.134   9.269
 3281SOL     OW11739   7.274   7.617   7.319
 3281SOL    HW111740   7.231   7.611   7.234
 3281SOL    HW211741   7.202   7.624   7.382
 3282SOL     OW11742   4.466   0.027  10.561
 3282SOL    HW111743   4.560   0.022  10.547
 3282SOL    HW211744   4.431  14.828  10.524
 3283SOL     OW11745   2.687   9.230   5.887
 3283SOL    HW111746   2.608   9.261   5.844
 3283SOL    HW211747   2.672   9.137   5.903
 3284SOL     OW11748   2.552  11.789  12.387
 3284SOL    HW111749   2.575  11.705  12.349
 3284SOL    HW211750   2.607  11.795  12.466
 3285SOL     OW11751  12.626  11.804  14.226
 3285SOL    HW111752  12.543  11.838  14.193
 3285SOL    HW211753  12.639  11.722  14.177
 3286SOL     OW11754   9.168   8.337   3.063
 3286SOL    HW111755   9.084   8.371   3.093
 3286SOL    HW211756   9.232   8.400   3.096
 3287SOL     OW11757   9.544   4.889   6.733
 3287SOL    HW111758   9.626   4.858   6.772
 3287SOL    HW211759   9.523   4.968   6.782
 3288SOL     OW11760  14.142  10.152   7.832
 3288SOL    HW111761  14.060  10.111   7.862
 3288SOL    HW211762  14.131  10.161   7.737
 3289SOL     OW11763  12.943   3.496   3.478
 3289SOL    HW111764  13.007   3.424   3.478
 3289SOL    HW211765  12.991   3.571   3.443
 3290SOL     OW11766   0.098   7.120  13.144
 3290SOL    HW111767   0.141   7.075  13.216
 3290SOL    HW211768   0.048   7.052  13.099
 3291SOL     OW11769   7.487  11.908   5.312
 3291SOL    HW111770   7.482  11.996   5.274
 3291SOL    HW211771   7.505  11.922   5.405
 3292SOL     OW11772   4.607  12.728   2.742
 3292SOL    HW111773   4.632  12.759   2.829
 3292SOL    HW211774   4.512  12.736   2.740
 3293SOL     OW11775  12.085   2.578   5.848
 3293SOL    HW111776  12.077   2.555   5.756
 3293SOL    HW211777  12.151   2.518   5.882
 3294SOL     OW11778  14.460   7.300   4.142
 3294SOL    HW111779  14.491   7.259   4.062
 3294SOL    HW211780  14.478   7.394   4.130
 3295SOL     OW11781  13.923  14.358   4.624
 3295SOL    HW111782  13.838  14.379   4.585
 3295SOL    HW211783  13.907  14.359   4.719
 3296SOL     OW11784   1.654   8.563  12.879
 3296SOL    HW111785   1.737   8.523  12.904
 3296SOL    HW211786   1.659   8.652  12.912
 3297SOL     OW11787   7.470   0.309   8.688
 3297SOL    HW111788   7.444   0.306   8.596
 3297SOL    HW211789   7.504   0.222   8.707
 3298SOL     OW11790   8.036   4.401   9.817
 3298SOL    HW111791   8.023   4.449   9.900
 3298SOL    HW211792   8.014   4.465   9.749
 3299SOL     OW11793   5.366   2.118  11.743
 3299SOL    HW111794   5.439   2.157  11.792
 3299SOL    HW211795   5.407   2.058  11.682
 3300SOL     OW11796   1.287   0.542  10.274
 3300SOL    HW111797   1.241   0.480  10.331
 3300SOL    HW211798   1.379   0.534  10.300
 3301SOL     OW11799   0.609  10.299  12.434
 3301SOL    HW111800   0.684  10.251  12.470
 3301SOL    HW211801   0.542  10.294  12.503
 3302SOL     OW11802   7.530   6.291   3.591
 3302SOL    HW111803   7.615   6.325   3.561
 3302SOL    HW211804   7.549   6.205   3.626
 3303SOL     OW11805   7.047   2.671  10.933
 3303SOL    HW111806   7.005   2.598  10.978
 3303SOL    HW211807   7.103   2.711  10.999
 3304SOL     OW11808  11.541   4.916   9.652
 3304SOL    HW111809  11.628   4.952   9.634
 3304SOL    HW211810  11.480   4.984   9.624
 3305SOL     OW11811   2.285  11.036  10.182
 3305SOL    HW111812   2.225  11.047  10.256
 3305SOL    HW211813   2.269  11.113  10.128
 3306SOL     OW11814   9.996  11.737   8.110
 3306SOL    HW111815   9.938  11.723   8.185
 3306SOL    HW211816   9.959  11.681   8.041
 3307SOL     OW11817  10.567   1.767   4.998
 3307SOL    HW111818  10.630   1.726   4.938
 3307SOL    HW211819  10.488   1.779   4.945
 3308SOL     OW11820  10.847   1.647   2.419
 3308SOL    HW111821  10.789   1.718   2.447
 3308SOL    HW211822  10.831   1.639   2.325
 3309SOL     OW11823  11.370   3.762  10.856
 3309SOL    HW111824  11.463   3.747  10.840
 3309SOL    HW211825  11.367   3.816  10.935
 3310SOL     OW11826   3.471   9.286   5.991
 3310SOL    HW111827   3.486   9.198   6.024
 3310SOL    HW211828   3.530   9.342   6.042
 3311SOL     OW11829   7.136   1.563  10.816
 3311SOL    HW111830   7.108   1.628  10.752
 3311SOL    HW211831   7.079   1.487  10.800
 3312SOL     OW11832   4.334  13.714   9.324
 3312SOL    HW111833   4.257  13.760   9.358
 3312SOL    HW211834   4.335  13.631   9.371
 3313SOL     OW11835   2.266  13.226   3.845
 3313SOL    HW111836   2.338  13.276   3.884
 3313SOL    HW211837   2.289  13.219   3.752
 3314SOL     OW11838   5.254   4.667  11.585
 3314SOL    HW111839   5.217   4.710  11.508
 3314SOL    HW211840   5.239   4.728  11.657
 3315SOL     OW11841   2.534   8.256  12.212
 3315SOL    HW111842   2.605   8.319  12.197
 3315SOL    HW211843   2.554   8.184  12.151
 3316SOL     OW11844   7.721   5.421  11.199
 3316SOL    HW111845   7.788   5.465  11.147
 3316SOL    HW211846   7.756   5.333  11.215
 3317SOL     OW11847   1.211  14.167  10.122
 3317SOL    HW111848   1.288  14.169  10.065
 3317SOL    HW211849   1.241  14.123  10.202
 3318SOL     OW11850  12.242   5.590   2.791
 3318SOL    HW111851  12.323   5.539   2.782
 3318SOL    HW211852  12.194   5.545   2.860
 3319SOL     OW11853   3.184   2.263   8.496
 3319SOL    HW111854   3.172   2.175   8.460
 3319SOL    HW211855   3.141   2.261   8.581
 3320SOL     OW11856   3.480   4.904   9.416
 3320SOL    HW111857   3.418   4.834   9.438
 3320SOL    HW211858   3.565   4.860   9.412
 3321SOL     OW11859  10.191  10.740   8.160
 3321SOL    HW111860  10.156  10.674   8.220
 3321SOL    HW211861  10.260  10.783   8.211
 3322SOL     OW11862   2.086  13.621  11.761
 3322SOL    HW111863   2.138  13.553  11.718
 3322SOL    HW211864   2.137  13.645  11.838
 3323SOL     OW11865   6.243   3.235   7.663
 3323SOL    HW111866   6.187   3.312   7.670
 3323SOL    HW211867   6.314   3.251   7.725
 3324SOL     OW11868  12.662   5.465   2.945
 3324SOL    HW111869  12.676   5.373   2.969
 3324SOL    HW211870  12.613   5.501   3.019
 3325SOL     OW11871   3.072   0.445  10.976
 3325SOL    HW111872   3.079   0.417  10.884
 3325SOL    HW211873   3.052   0.538  10.971
 3326SOL     OW11874   4.219   8.904   8.002
 3326SOL    HW111875   4.126   8.905   7.979
 3326SOL    HW211876   4.254   8.984   7.963
 3327SOL     OW11877   3.991   3.553   2.982
 3327SOL    HW111878   3.904   3.538   3.019
 3327SOL    HW211879   4.016   3.639   3.016
 3328SOL     OW11880   2.227  13.816  10.442
 3328SOL    HW111881   2.263  13.885  10.386
 3328SOL    HW211882   2.246  13.735  10.395
 3329SOL     OW11883   0.423   8.078  11.805
 3329SOL    HW111884   0.475   8.032  11.739
 3329SOL    HW211885   0.477   8.076  11.884
 3330SOL     OW11886   1.363  12.082   8.915
 3330SOL    HW111887   1.373  12.009   8.976
 3330SOL    HW211888   1.434  12.142   8.938
 3331SOL     OW11889  11.925  11.208  10.510
 3331SOL    HW111890  11.860  11.249  10.567
 3331SOL    HW211891  12.004  11.260  10.522
 3332SOL     OW11892  11.131   8.163   6.827
 3332SOL    HW111893  11.216   8.154   6.784
 3332SOL    HW211894  11.151   8.171   6.920
 3333SOL     OW11895   0.503   3.756   3.228
 3333SOL    HW111896   0.436   3.756   3.160
 3333SOL    HW211897   0.454   3.763   3.310
 3334SOL     OW11898  10.341  14.142  11.146
 3334SOL    HW111899  10.329  14.208  11.214
 3334SOL    HW211900  10.351  14.192  11.065
 3335SOL     OW11901   5.961   3.749   9.588
 3335SOL    HW111902   5.944   3.655   9.589
 3335SOL    HW211903   6.014   3.763   9.510
 3336SOL     OW11904   8.384   1.716  14.525
 3336SOL    HW111905   8.431   1.642  14.487
 3336SOL    HW211906   8.309   1.730  14.467
 3337SOL     OW11907  12.711   0.616   3.794
 3337SOL    HW111908  12.731   0.688   3.735
 3337SOL    HW211909  12.747   0.643   3.879
 3338SOL     OW11910   7.634   7.883   5.529
 3338SOL    HW111911   7.704   7.920   5.476
 3338SOL    HW211912   7.555   7.927   5.497
 3339SOL     OW11913   8.131   3.795   1.549
 3339SOL    HW111914   8.222   3.799   1.579
 3339SOL    HW211915   8.102   3.707   1.572
 3340SOL     OW11916   8.951   7.570   7.540
 3340SOL    HW111917   8.982   7.637   7.601
 3340SOL    HW211918   8.981   7.600   7.454
 3341SOL     OW11919   3.339  13.054  10.764
 3341SOL    HW111920   3.390  12.989  10.812
 3341SOL    HW211921   3.385  13.064  10.680
 3342SOL     OW11922  10.380   1.406  14.463
 3342SOL    HW111923  10.331   1.326  14.442
 3342SOL    HW211924  10.323   1.477  14.435
 3343SOL     OW11925  12.534   5.586  11.254
 3343SOL    HW111926  12.561   5.512  11.307
 3343SOL    HW211927  12.484   5.642  11.313
 3344SOL     OW11928   1.075   4.135  14.639
 3344SOL    HW111929   1.075   4.059  14.697
 3344SOL    HW211930   1.102   4.208  14.696
 3345SOL     OW11931   7.644   3.984  11.561
 3345SOL    HW111932   7.648   4.002  11.467
 3345SOL    HW211933   7.589   3.906  11.568
 3346SOL     OW11934   4.576   7.159   8.345
 3346SOL    HW111935   4.529   7.097   8.290
 3346SOL    HW211936   4.668   7.147   8.322
 3347SOL     OW11937   7.912   0.464   9.330
 3347SOL    HW111938   7.828   0.496   9.297
 3347SOL    HW211939   7.977   0.517   9.285
 3348SOL     OW11940   4.514  14.563   7.963
 3348SOL    HW111941   4.606  14.590   7.959
 3348SOL    HW211942   4.506  14.496   7.895
 3349SOL     OW11943   1.219   5.772  14.283
 3349SOL    HW111944   1.141   5.828  14.287
 3349SOL    HW211945   1.221   5.741  14.192
 3350SOL     OW11946  12.700  14.876   2.221
 3350SOL    HW111947  12.645   0.070   2.203
 3350SOL    HW211948  12.786   0.032   2.243
 3351SOL     OW11949   8.657   8.824   7.480
 3351SOL    HW111950   8.743   8.866   7.486
 3351SOL    HW211951   8.665   8.746   7.534
 3352SOL     OW11952   9.834  13.435   6.229
 3352SOL    HW111953   9.879  13.352   6.208
 3352SOL    HW211954   9.900  13.502   6.211
 3353SOL     OW11955  11.483  14.835  13.044
 3353SOL    HW111956  11.534  14.864  12.968
 3353SOL    HW211957  11.548  14.799  13.104
 3354SOL     OW11958  12.324   1.921   6.494
 3354SOL    HW111959  12.244   1.959   6.532
 3354SOL    HW211960  12.343   1.846   6.550
 3355SOL     OW11961  12.020   2.396   7.284
 3355SOL    HW111962  11.953   2.394   7.215
 3355SOL    HW211963  11.971   2.381   7.364
 3356SOL     OW11964   1.334  10.435   0.740
 3356SOL    HW111965   1.381  10.352   0.734
 3356SOL    HW211966   1.403  10.501   0.743
 3357SOL     OW11967   0.979   0.546   3.254
 3357SOL    HW111968   0.980   0.559   3.349
 3357SOL    HW211969   1.064   0.509   3.233
 3358SOL     OW11970   9.083   3.687  11.563
 3358SOL    HW111971   9.141   3.658  11.492
 3358SOL    HW211972   8.995   3.662  11.534
 3359SOL     OW11973   8.242   4.756   1.590
 3359SOL    HW111974   8.309   4.716   1.534
 3359SOL    HW211975   8.197   4.818   1.534
 3360SOL     OW11976  12.911  12.644   1.418
 3360SOL    HW111977  12.874  12.666   1.503
 3360SOL    HW211978  13.005  12.633   1.436
 3361SOL     OW11979   9.200  12.184  10.670
 3361SOL    HW111980   9.108  12.160  10.662
 3361SOL    HW211981   9.232  12.135  10.745
 3362SOL     OW11982   4.057  14.729   5.298
 3362SOL    HW111983   4.000  14.803   5.277
 3362SOL    HW211984   4.004  14.673   5.354
 3363SOL     OW11985   7.193   1.997   6.402
 3363SOL    HW111986   7.118   1.943   6.380
 3363SOL    HW211987   7.160   2.086   6.400
 3364SOL     OW11988  10.647   3.471   5.446
 3364SOL    HW111989  10.669   3.560   5.420
 3364SOL    HW211990  10.594   3.437   5.374
 3365SOL     OW11991   9.576  10.160  14.742
 3365SOL    HW111992   9.574  10.066  14.725
 3365SOL    HW211993   9.485  10.184  14.759
 3366SOL     OW11994   8.886   0.428   0.840
 3366SOL    HW111995   8.947   0.480   0.789
 3366SOL    HW211996   8.828   0.389   0.775
 3367SOL     OW11997   7.621   6.664   7.783
 3367SOL    HW111998   7.664   6.685   7.700
 3367SOL    HW211999   7.589   6.575   7.772
 3368SOL     OW12000   3.521   9.973   0.145
 3368SOL    HW112001   3.493  10.033   0.076
 3368SOL    HW212002   3.448   9.911   0.154
 3369SOL     OW12003  12.759   0.797   5.645
 3369SOL    HW112004  12.756   0.751   5.729
 3369SOL    HW212005  12.836   0.760   5.601
 3370SOL     OW12006   8.228   0.253   2.165
 3370SOL    HW112007   8.307   0.216   2.126
 3370SOL    HW212008   8.203   0.190   2.233
 3371SOL     OW12009  10.177   5.621   0.967
 3371SOL    HW112010  10.227   5.702   0.979
 3371SOL    HW212011  10.212   5.561   1.034
 3372SOL     OW12012  13.696   1.955   0.728
 3372SOL    HW112013  13.734   2.026   0.780
 3372SOL    HW212014  13.768   1.895   0.713
 3373SOL     OW12015   9.229   5.995   4.777
 3373SOL    HW112016   9.157   6.008   4.838
 3373SOL    HW212017   9.193   5.940   4.708
 3374SOL     OW12018   1.911  12.607  10.965
 3374SOL    HW112019   1.956  12.550  11.028
 3374SOL    HW212020   1.823  12.570  10.958
 3375SOL     OW12021   5.187   7.074  13.509
 3375SOL    HW112022   5.181   7.000  13.569
 3375SOL    HW212023   5.100   7.112  13.510
 3376SOL     OW12024   5.593   0.877   1.215
 3376SOL    HW112025   5.520   0.820   1.240
 3376SOL    HW212026   5.580   0.957   1.266
 3377SOL     OW12027   4.538   3.666   8.977
 3377SOL    HW112028   4.495   3.595   8.929
 3377SOL    HW212029   4.586   3.714   8.909
 3378SOL     OW12030  13.947  13.585  10.132
 3378SOL    HW112031  13.894  13.601  10.210
 3378SOL    HW212032  14.036  13.609  10.159
 3379SOL     OW12033   0.546   5.001   7.961
 3379SOL    HW112034   0.541   4.975   7.869
 3379SOL    HW212035   0.636   5.031   7.973
 3380SOL     OW12036   7.212   7.437  14.208
 3380SOL    HW112037   7.263   7.478  14.137
 3380SOL    HW212038   7.133   7.490  14.213
 3381SOL     OW12039   1.412   6.995  10.886
 3381SOL    HW112040   1.383   7.049  10.959
 3381SOL    HW212041   1.397   7.049  10.808
 3382SOL     OW12042  12.468  12.676  14.787
 3382SOL    HW112043  12.563  12.685  14.790
 3382SOL    HW212044  12.453  12.583  14.767
 3383SOL     OW12045  13.470   7.292  13.552
 3383SOL    HW112046  13.458   7.387  13.562
 3383SOL    HW212047  13.543   7.271  13.611
 3384SOL     OW12048  13.342   9.194   0.747
 3384SOL    HW112049  13.337   9.283   0.782
 3384SOL    HW212050  13.328   9.204   0.653
 3385SOL     OW12051   9.744   9.014   9.222
 3385SOL    HW112052   9.776   9.020   9.312
 3385SOL    HW212053   9.810   9.061   9.170
 3386SOL     OW12054   3.596  12.004   8.089
 3386SOL    HW112055   3.659  12.003   8.161
 3386SOL    HW212056   3.627  12.073   8.031
 3387SOL     OW12057   0.066  14.118   4.551
 3387SOL    HW112058   0.103  14.192   4.502
 3387SOL    HW212059   0.065  14.046   4.488
 3388SOL     OW12060   8.851  12.887  11.077
 3388SOL    HW112061   8.907  12.825  11.029
 3388SOL    HW212062   8.856  12.968  11.026
 3389SOL     OW12063  14.575   8.298   2.924
 3389SOL    HW112064  14.616   8.353   2.858
 3389SOL    HW212065  14.549   8.218   2.877
 3390SOL     OW12066   2.241  11.150   5.632
 3390SOL    HW112067   2.319  11.107   5.598
 3390SOL    HW212068   2.274  11.227   5.677
 3391SOL     OW12069  14.717   8.780   2.310
 3391SOL    HW112070  14.656   8.706   2.309
 3391SOL    HW212071  14.699   8.823   2.393
 3392SOL     OW12072   2.790  10.478  10.266
 3392SOL    HW112073   2.703  10.493  10.231
 3392SOL    HW212074   2.848  10.527  10.208
 3393SOL     OW12075  13.961   8.446   6.603
 3393SOL    HW112076  13.885   8.410   6.650
 3393SOL    HW212077  13.972   8.389   6.527
 3394SOL     OW12078  11.947  14.394   9.543
 3394SOL    HW112079  11.852  14.393   9.534
 3394SOL    HW212080  11.963  14.432   9.629
 3395SOL     OW12081   8.378   6.284   3.860
 3395SOL    HW112082   8.317   6.325   3.799
 3395SOL    HW212083   8.431   6.226   3.806
 3396SOL     OW12084   7.348   4.702   0.129
 3396SOL    HW112085   7.270   4.660   0.092
 3396SOL    HW212086   7.419   4.640   0.112
 3397SOL     OW12087   9.929   6.121   0.566
 3397SOL    HW112088  10.011   6.145   0.522
 3397SOL    HW212089   9.909   6.195   0.623
 3398SOL     OW12090   8.576   4.136   9.030
 3398SOL    HW112091   8.545   4.226   9.019
 3398SOL    HW212092   8.572   4.099   8.941
 3399SOL     OW12093   8.651   6.292  14.182
 3399SOL    HW112094   8.668   6.241  14.261
 3399SOL    HW212095   8.700   6.246  14.113
 3400SOL     OW12096  10.817   5.828   8.194
 3400SOL    HW112097  10.743   5.871   8.152
 3400SOL    HW212098  10.839   5.885   8.268
 3401SOL     OW12099  13.417  13.150   8.168
 3401SOL    HW112100  13.417  13.220   8.103
 3401SOL    HW212101  13.342  13.095   8.144
 3402SOL     OW12102   3.142   4.280  10.724
 3402SOL    HW112103   3.087   4.358  10.721
 3402SOL    HW212104   3.202   4.296  10.797
 3403SOL     OW12105   2.431   3.215   6.729
 3403SOL    HW112106   2.342   3.229   6.761
 3403SOL    HW212107   2.436   3.121   6.714
 3404SOL     OW12108   7.357   4.325   9.220
 3404SOL    HW112109   7.443   4.296   9.250
 3404SOL    HW212110   7.307   4.338   9.301
 3405SOL     OW12111   2.430   3.987  12.496
 3405SOL    HW112112   2.424   4.064  12.439
 3405SOL    HW212113   2.346   3.943  12.486
 3406SOL     OW12114   3.126   1.171   5.468
 3406SOL    HW112115   3.177   1.146   5.392
 3406SOL    HW212116   3.191   1.199   5.532
 3407SOL     OW12117   1.197  13.572   6.710
 3407SOL    HW112118   1.270  13.521   6.675
 3407SOL    HW212119   1.190  13.543   6.802
 3408SOL     OW12120   0.890   8.418   3.572
 3408SOL    HW112121   0.802   8.381   3.570
 3408SOL    HW212122   0.948   8.342   3.561
 3409SOL     OW12123   4.237   7.965   6.612
 3409SOL    HW112124   4.251   7.892   6.551
 3409SOL    HW212125   4.321   7.974   6.658
 3410SOL     OW12126  13.542   9.813   9.276
 3410SOL    HW112127  13.492   9.892   9.293
 3410SOL    HW212128  13.482   9.741   9.296
 3411SOL     OW12129   8.107   4.157   3.579
 3411SOL    HW112130   8.026   4.189   3.539
 3411SOL    HW212131   8.129   4.222   3.645
 3412SOL     OW12132  11.245   6.432  14.324
 3412SOL    HW112133  11.207   6.520  14.322
 3412SOL    HW212134  11.246   6.404  14.232
 3413SOL     OW12135  10.918   1.547   0.439
 3413SOL    HW112136  10.968   1.469   0.414
 3413SOL    HW212137  10.833   1.513   0.464
 3414SOL     OW12138  11.750   0.615   3.709
 3414SOL    HW112139  11.710   0.690   3.664
 3414SOL    HW212140  11.840   0.613   3.676
 3415SOL     OW12141   8.136  14.034   5.385
 3415SOL    HW112142   8.167  13.982   5.459
 3415SOL    HW212143   8.045  14.053   5.405
 3416SOL     OW12144   1.436  14.522   8.674
 3416SOL    HW112145   1.472  14.465   8.606
 3416SOL    HW212146   1.500  14.593   8.682
 3417SOL     OW12147   3.686   5.791   8.363
 3417SOL    HW112148   3.708   5.739   8.441
 3417SOL    HW212149   3.632   5.862   8.396
 3418SOL     OW12150   0.053   8.075   2.872
 3418SOL    HW112151  14.846   8.056   2.901
 3418SOL    HW212152   0.047   8.161   2.830
 3419SOL     OW12153   5.746   3.159   4.072
 3419SOL    HW112154   5.702   3.126   4.151
 3419SOL    HW212155   5.812   3.093   4.052
 3420SOL     OW12156   9.927   4.595  12.176
 3420SOL    HW112157   9.854   4.533  12.166
 3420SOL    HW212158   9.975   4.563  12.253
 3421SOL     OW12159   6.936   5.881   8.575
 3421SOL    HW112160   6.877   5.808   8.560
 3421SOL    HW212161   7.024   5.844   8.565
 3422SOL     OW12162   8.433  12.206   7.035
 3422SOL    HW112163   8.436  12.297   7.006
 3422SOL    HW212164   8.524  12.176   7.030
 3423SOL     OW12165   1.092   6.461   7.966
 3423SOL    HW112166   1.107   6.385   7.911
 3423SOL    HW212167   1.166   6.519   7.948
 3424SOL     OW12168   6.869  11.520   4.099
 3424SOL    HW112169   6.773  11.525   4.102
 3424SOL    HW212170   6.895  11.584   4.033
 3425SOL     OW12171   7.462  12.087  11.072
 3425SOL    HW112172   7.431  12.157  11.014
 3425SOL    HW212173   7.405  12.013  11.052
 3426SOL     OW12174   1.413  11.748  11.083
 3426SOL    HW112175   1.493  11.722  11.037
 3426SOL    HW212176   1.343  11.731  11.020
 3427SOL     OW12177   1.128   8.337  13.847
 3427SOL    HW112178   1.113   8.314  13.939
 3427SOL    HW212179   1.217   8.372  13.845
 3428SOL     OW12180   4.030   5.470   7.349
 3428SOL    HW112181   4.041   5.420   7.267
 3428SOL    HW212182   4.117   5.506   7.366
 3429SOL     OW12183   8.943  12.242   8.695
 3429SOL    HW112184   8.859  12.286   8.701
 3429SOL    HW212185   8.981  12.273   8.613
 3430SOL     OW12186   0.308  14.063  13.988
 3430SOL    HW112187   0.293  14.124  13.916
 3430SOL    HW212188   0.345  14.116  14.058
 3431SOL     OW12189  13.981  12.004   4.344
 3431SOL    HW112190  13.929  12.063   4.290
 3431SOL    HW212191  13.933  12.001   4.427
 3432SOL     OW12192  10.062   4.621  12.418
 3432SOL    HW112193  10.066   4.698  12.473
 3432SOL    HW212194  10.034   4.551  12.477
 3433SOL     OW12195  10.994   8.653   4.039
 3433SOL    HW112196  11.021   8.699   4.118
 3433SOL    HW212197  11.071   8.603   4.012
 3434SOL     OW12198  10.259   0.967   0.797
 3434SOL    HW112199  10.278   1.040   0.856
 3434SOL    HW212200  10.338   0.960   0.742
 3435SOL     OW12201   6.458   0.281   1.764
 3435SOL    HW112202   6.384   0.233   1.727
 3435SOL    HW212203   6.460   0.257   1.856
 3436SOL     OW12204   5.843  12.605  13.802
 3436SOL    HW112205   5.817  12.693  13.776
 3436SOL    HW212206   5.938  12.610  13.815
 3437SOL     OW12207  11.679   6.012  11.581
 3437SOL    HW112208  11.731   5.955  11.524
 3437SOL    HW212209  11.602   6.035  11.529
 3438SOL     OW12210   4.593  13.522  12.144
 3438SOL    HW112211   4.686  13.532  12.123
 3438SOL    HW212212   4.556  13.483  12.065
 3439SOL     OW12213  10.610   0.865   9.818
 3439SOL    HW112214  10.624   0.841   9.727
 3439SOL    HW212215  10.645   0.790   9.868
 3440SOL     OW12216   9.591   3.311   1.898
 3440SOL    HW112217   9.644   3.369   1.953
 3440SOL    HW212218   9.501   3.331   1.922
 3441SOL     OW12219   7.520   2.643   1.079
 3441SOL    HW112220   7.547   2.625   1.169
 3441SOL    HW212221   7.591   2.607   1.025
 3442SOL     OW12222   1.574   1.852  11.299
 3442SOL    HW112223   1.520   1.776  11.276
 3442SOL    HW212224   1.518   1.928  11.281
 3443SOL     OW12225   6.109  10.915   7.296
 3443SOL    HW112226   6.115  10.982   7.228
 3443SOL    HW212227   6.147  10.956   7.373
 3444SOL     OW12228   5.412   5.436   9.118
 3444SOL    HW112229   5.335   5.379   9.127
 3444SOL    HW212230   5.466   5.392   9.053
 3445SOL     OW12231   1.195   1.259  10.933
 3445SOL    HW112232   1.161   1.348  10.935
 3445SOL    HW212233   1.147   1.216  10.862
 3446SOL     OW12234   1.597  11.251   5.460
 3446SOL    HW112235   1.593  11.282   5.369
 3446SOL    HW212236   1.522  11.295   5.503
 3447SOL     OW12237   6.408   2.385   9.686
 3447SOL    HW112238   6.342   2.406   9.620
 3447SOL    HW212239   6.486   2.434   9.659
 3448SOL     OW12240   9.481   8.178   3.616
 3448SOL    HW112241   9.569   8.145   3.635
 3448SOL    HW212242   9.446   8.203   3.701
 3449SOL     OW12243   5.728   9.040   9.016
 3449SOL    HW112244   5.675   9.062   9.092
 3449SOL    HW212245   5.674   9.064   8.941
 3450SOL     OW12246   9.463   1.242   8.572
 3450SOL    HW112247   9.484   1.329   8.540
 3450SOL    HW212248   9.534   1.186   8.539
 3451SOL     OW12249  12.139   5.441   9.623
 3451SOL    HW112250  12.141   5.349   9.598
 3451SOL    HW212251  12.053   5.472   9.592
 3452SOL     OW12252   9.281   5.843   2.633
 3452SOL    HW112253   9.335   5.904   2.682
 3452SOL    HW212254   9.321   5.757   2.649
 3453SOL     OW12255   7.307   2.253   3.616
 3453SOL    HW112256   7.232   2.271   3.560
 3453SOL    HW212257   7.383   2.278   3.563
 3454SOL     OW12258  10.939   8.032   4.259
 3454SOL    HW112259  10.907   7.963   4.317
 3454SOL    HW212260  10.956   8.106   4.318
 3455SOL     OW12261  14.415   1.984  11.249
 3455SOL    HW112262  14.386   2.072  11.271
 3455SOL    HW212263  14.413   1.936  11.333
 3456SOL     OW12264   6.064   4.738   2.835
 3456SOL    HW112265   5.995   4.735   2.769
 3456SOL    HW212266   6.134   4.788   2.793
 3457SOL     OW12267   3.936  11.774   6.775
 3457SOL    HW112268   3.895  11.777   6.688
 3457SOL    HW212269   3.946  11.866   6.799
 3458SOL     OW12270   5.824   1.189  12.113
 3458SOL    HW112271   5.754   1.130  12.087
 3458SOL    HW212272   5.782   1.251  12.172
 3459SOL     OW12273   2.505  10.222   7.712
 3459SOL    HW112274   2.539  10.212   7.624
 3459SOL    HW212275   2.529  10.311   7.737
 3460SOL     OW12276  10.716   8.413  14.278
 3460SOL    HW112277  10.756   8.437  14.361
 3460SOL    HW212278  10.673   8.329  14.295
 3461SOL     OW12279   5.173   7.663   7.585
 3461SOL    HW112280   5.267   7.662   7.605
 3461SOL    HW212281   5.169   7.639   7.492
 3462SOL     OW12282   2.458   4.341   4.334
 3462SOL    HW112283   2.524   4.298   4.389
 3462SOL    HW212284   2.506   4.408   4.287
 3463SOL     OW12285   2.799   4.274  13.911
 3463SOL    HW112286   2.893   4.269  13.927
 3463SOL    HW212287   2.790   4.324  13.830
 3464SOL     OW12288   6.576   8.902   2.691
 3464SOL    HW112289   6.593   8.929   2.781
 3464SOL    HW212290   6.660   8.911   2.647
 3465SOL     OW12291   9.409  13.743   0.855
 3465SOL    HW112292   9.333  13.719   0.908
 3465SOL    HW212293   9.456  13.660   0.842
 3466SOL     OW12294   1.595   4.023   2.547
 3466SOL    HW112295   1.577   3.954   2.484
 3466SOL    HW212296   1.646   3.980   2.616
 3467SOL     OW12297   1.670  10.173   2.425
 3467SOL    HW112298   1.762  10.160   2.446
 3467SOL    HW212299   1.624  10.163   2.508
 3468SOL     OW12300   4.215   2.941   7.762
 3468SOL    HW112301   4.220   2.902   7.674
 3468SOL    HW212302   4.243   2.871   7.821
 3469SOL     OW12303   3.110   5.229  12.127
 3469SOL    HW112304   3.143   5.245  12.216
 3469SOL    HW212305   3.028   5.279  12.123
 3470SOL     OW12306   4.918   9.450  11.010
 3470SOL    HW112307   4.994   9.507  11.020
 3470SOL    HW212308   4.910   9.407  11.096
 3471SOL     OW12309   4.359  14.554  10.109
 3471SOL    HW112310   4.451  14.527  10.109
 3471SOL    HW212311   4.357  14.631  10.167
 3472SOL     OW12312   2.799  14.040   0.749
 3472SOL    HW112313   2.734  14.042   0.819
 3472SOL    HW212314   2.809  13.946   0.730
 3473SOL     OW12315   8.446  10.557  13.860
 3473SOL    HW112316   8.370  10.613  13.874
 3473SOL    HW212317   8.428  10.514  13.777
 3474SOL     OW12318  14.096   1.172   2.228
 3474SOL    HW112319  14.062   1.094   2.273
 3474SOL    HW212320  14.110   1.143   2.138
 3475SOL     OW12321   6.384  13.073  12.323
 3475SOL    HW112322   6.439  12.994  12.325
 3475SOL    HW212323   6.438  13.138  12.277
 3476SOL     OW12324   5.665  13.118  10.936
 3476SOL    HW112325   5.676  13.093  11.028
 3476SOL    HW212326   5.685  13.212  10.934
 3477SOL     OW12327   7.033  14.449  11.457
 3477SOL    HW112328   7.075  14.535  11.457
 3477SOL    HW212329   7.054  14.412  11.543
 3478SOL     OW12330   0.061   9.110  13.702
 3478SOL    HW112331   0.058   9.200  13.670
 3478SOL    HW212332   0.086   9.117  13.794
 3479SOL     OW12333   6.842   4.061   5.024
 3479SOL    HW112334   6.883   4.019   5.100
 3479SOL    HW212335   6.750   4.068   5.047
 3480SOL     OW12336   6.229   5.889  14.368
 3480SOL    HW112337   6.282   5.852  14.298
 3480SOL    HW212338   6.291   5.942  14.418
 3481SOL     OW12339  13.352   8.797  10.080
 3481SOL    HW112340  13.340   8.703  10.066
 3481SOL    HW212341  13.272   8.825  10.125
 3482SOL     OW12342   7.169  10.375   6.133
 3482SOL    HW112343   7.244  10.407   6.081
 3482SOL    HW212344   7.163  10.282   6.112
 3483SOL     OW12345   9.265  12.199  12.409
 3483SOL    HW112346   9.356  12.229  12.401
 3483SOL    HW212347   9.256  12.131  12.342
 3484SOL     OW12348  12.279  10.427  11.499
 3484SOL    HW112349  12.337  10.470  11.436
 3484SOL    HW212350  12.198  10.411  11.449
 3485SOL     OW12351   7.284   2.216   8.685
 3485SOL    HW112352   7.263   2.269   8.608
 3485SOL    HW212353   7.380   2.209   8.683
 3486SOL     OW12354  11.915   8.253   6.407
 3486SOL    HW112355  11.830   8.215   6.384
 3486SOL    HW212356  11.957   8.187   6.462
 3487SOL     OW12357   0.195   0.615   8.307
 3487SOL    HW112358   0.289   0.604   8.288
 3487SOL    HW212359   0.178   0.556   8.380
 3488SOL     OW12360   9.204  10.137  10.866
 3488SOL    HW112361   9.182  10.188  10.788
 3488SOL    HW212362   9.231  10.051  10.831
 3489SOL     OW12363   9.866   2.550   1.456
 3489SOL    HW112364   9.826   2.593   1.380
 3489SOL    HW212365   9.947   2.511   1.421
 3490SOL     OW12366  14.406  10.404   9.127
 3490SOL    HW112367  14.493  10.393   9.164
 3490SOL    HW212368  14.354  10.331   9.163
 3491SOL     OW12369   3.620   8.120   0.556
 3491SOL    HW112370   3.584   8.118   0.467
 3491SOL    HW212371   3.611   8.030   0.587
 3492SOL     OW12372   6.466   9.486   4.674
 3492SOL    HW112373   6.511   9.453   4.597
 3492SOL    HW212374   6.515   9.450   4.748
 3493SOL     OW12375   3.655  11.178  10.057
 3493SOL    HW112376   3.563  11.177  10.032
 3493SOL    HW212377   3.698  11.231   9.989
 3494SOL     OW12378  14.604  11.421  14.765
 3494SOL    HW112379  14.568  11.394  14.849
 3494SOL    HW212380  14.587  11.347  14.706
 3495SOL     OW12381  10.766   3.906  11.605
 3495SOL    HW112382  10.799   3.836  11.662
 3495SOL    HW212383  10.844   3.940  11.561
 3496SOL     OW12384   4.034   6.340  10.380
 3496SOL    HW112385   4.036   6.382  10.294
 3496SOL    HW212386   3.950   6.293  10.381
 3497SOL     OW12387  11.800   4.045   2.978
 3497SOL    HW112388  11.797   4.102   2.901
 3497SOL    HW212389  11.887   4.005   2.975
 3498SOL     OW12390   7.233  13.359  13.845
 3498SOL    HW112391   7.310  13.310  13.874
 3498SOL    HW212392   7.208  13.412  13.921
 3499SOL     OW12393   1.917   1.242  12.802
 3499SOL    HW112394   2.005   1.223  12.770
 3499SOL    HW212395   1.883   1.157  12.830
 3500SOL     OW12396  14.231  10.484   3.191
 3500SOL    HW112397  14.212  10.578   3.185
 3500SOL    HW212398  14.267  10.472   3.279
 3501SOL     OW12399   8.307   2.720  12.018
 3501SOL    HW112400   8.272   2.642  12.061
 3501SOL    HW212401   8.235   2.750  11.962
 3502SOL     OW12402  13.157   5.090  13.992
 3502SOL    HW112403  13.079   5.093  13.937
 3502SOL    HW212404  13.164   5.178  14.029
 3503SOL     OW12405   1.449   6.366   3.050
 3503SOL    HW112406   1.481   6.445   3.092
 3503SOL    HW212407   1.527   6.323   3.014
 3504SOL     OW12408   0.372   1.820  12.927
 3504SOL    HW112409   0.286   1.799  12.963
 3504SOL    HW212410   0.384   1.756  12.857
 3505SOL     OW12411   6.945   6.830   0.724
 3505SOL    HW112412   6.911   6.878   0.648
 3505SOL    HW212413   6.937   6.893   0.796
 3506SOL     OW12414  11.185   6.479   1.734
 3506SOL    HW112415  11.241   6.556   1.728
 3506SOL    HW212416  11.218   6.432   1.811
 3507SOL     OW12417   4.979   2.195  12.114
 3507SOL    HW112418   5.007   2.226  12.029
 3507SOL    HW212419   4.960   2.274  12.164
 3508SOL     OW12420  10.943  11.327   7.594
 3508SOL    HW112421  11.004  11.315   7.521
 3508SOL    HW212422  10.970  11.261   7.659
 3509SOL     OW12423   2.869  12.304   7.494
 3509SOL    HW112424   2.951  12.353   7.483
 3509SOL    HW212425   2.892  12.213   7.473
 3510SOL     OW12426   3.840   4.258   4.565
 3510SOL    HW112427   3.788   4.300   4.634
 3510SOL    HW212428   3.875   4.179   4.606
 3511SOL     OW12429  12.107   9.402   4.076
 3511SOL    HW112430  12.061   9.328   4.036
 3511SOL    HW212431  12.158   9.363   4.147
 3512SOL     OW12432   4.368   1.755   4.771
 3512SOL    HW112433   4.366   1.661   4.757
 3512SOL    HW212434   4.288   1.774   4.820
 3513SOL     OW12435   9.660   3.724  13.859
 3513SOL    HW112436   9.604   3.686  13.926
 3513SOL    HW212437   9.607   3.724  13.779
 3514SOL     OW12438  13.696   2.555   8.780
 3514SOL    HW112439  13.789   2.541   8.794
 3514SOL    HW212440  13.663   2.470   8.751
 3515SOL     OW12441  14.323   8.380  10.098
 3515SOL    HW112442  14.255   8.323  10.064
 3515SOL    HW212443  14.281   8.467  10.103
 3516SOL     OW12444   8.440   6.697   4.298
 3516SOL    HW112445   8.511   6.717   4.237
 3516SOL    HW212446   8.459   6.750   4.375
 3517SOL     OW12447   5.326  11.913   5.168
 3517SOL    HW112448   5.271  11.881   5.096
 3517SOL    HW212449   5.398  11.957   5.125
 3518SOL     OW12450   3.417   5.123  11.934
 3518SOL    HW112451   3.358   5.048  11.927
 3518SOL    HW212452   3.479   5.098  12.002
 3519SOL     OW12453  12.348  12.653   9.228
 3519SOL    HW112454  12.297  12.734   9.234
 3519SOL    HW212455  12.401  12.664   9.149
 3520SOL     OW12456   5.835   1.710  13.336
 3520SOL    HW112457   5.853   1.791  13.289
 3520SOL    HW212458   5.832   1.736  13.428
 3521SOL     OW12459   6.706   5.053   8.550
 3521SOL    HW112460   6.620   5.014   8.569
 3521SOL    HW212461   6.695   5.146   8.569
 3522SOL     OW12462   6.927   5.611   0.251
 3522SOL    HW112463   6.947   5.520   0.271
 3522SOL    HW212464   6.931   5.656   0.335
 3523SOL     OW12465   0.915   7.636   3.599
 3523SOL    HW112466   0.872   7.719   3.582
 3523SOL    HW212467   1.007   7.651   3.573
 3524SOL     OW12468  13.337   8.744   0.011
 3524SOL    HW112469  13.397   8.738   0.086
 3524SOL    HW212470  13.295   8.829   0.021
 3525SOL     OW12471   7.061   8.700  13.812
 3525SOL    HW112472   6.982   8.716  13.760
 3525SOL    HW212473   7.047   8.614  13.851
 3526SOL     OW12474   5.960   9.161   4.956
 3526SOL    HW112475   6.013   9.170   4.877
 3526SOL    HW212476   6.005   9.215   5.022
 3527SOL     OW12477   7.852   2.827   3.455
 3527SOL    HW112478   7.886   2.738   3.451
 3527SOL    HW212479   7.887   2.862   3.536
 3528SOL     OW12480   8.815  14.368   5.320
 3528SOL    HW112481   8.727  14.399   5.340
 3528SOL    HW212482   8.866  14.387   5.399
 3529SOL     OW12483   7.635  14.258   9.506
 3529SOL    HW112484   7.716  14.309   9.499
 3529SOL    HW212485   7.665  14.170   9.530
 3530SOL     OW12486   4.727   7.068   9.516
 3530SOL    HW112487   4.775   7.061   9.599
 3530SOL    HW212488   4.795   7.069   9.449
 3531SOL     OW12489  13.629   0.874   7.633
 3531SOL    HW112490  13.665   0.960   7.613
 3531SOL    HW212491  13.677   0.846   7.711
 3532SOL     OW12492   2.827  10.089   1.042
 3532SOL    HW112493   2.922  10.091   1.050
 3532SOL    HW212494   2.808  10.004   1.002
 3533SOL     OW12495   7.501  13.886   3.423
 3533SOL    HW112496   7.446  13.925   3.355
 3533SOL    HW212497   7.513  13.795   3.396
 3534SOL     OW12498   0.564   7.638   1.958
 3534SOL    HW112499   0.657   7.656   1.944
 3534SOL    HW212500   0.534   7.710   2.013
 3535SOL     OW12501   4.306   0.163   5.036
 3535SOL    HW112502   4.343   0.200   5.116
 3535SOL    HW212503   4.370   0.183   4.968
 3536SOL     OW12504  12.858   4.727   6.355
 3536SOL    HW112505  12.895   4.770   6.278
 3536SOL    HW212506  12.769   4.760   6.361
 3537SOL     OW12507   0.789   6.938  12.714
 3537SOL    HW112508   0.807   6.913  12.805
 3537SOL    HW212509   0.841   6.876  12.662
 3538SOL     OW12510  10.616   1.031   3.855
 3538SOL    HW112511  10.613   0.935   3.857
 3538SOL    HW212512  10.606   1.053   3.762
 3539SOL     OW12513  13.629  11.869  13.236
 3539SOL    HW112514  13.633  11.878  13.331
 3539SOL    HW212515  13.568  11.936  13.208
 3540SOL     OW12516  12.837  12.455   3.278
 3540SOL    HW112517  12.852  12.385   3.214
 3540SOL    HW212518  12.877  12.423   3.359
 3541SOL     OW12519   2.187   9.021   3.972
 3541SOL    HW112520   2.245   9.097   3.960
 3541SOL    HW212521   2.200   8.996   4.064
 3542SOL     OW12522  10.092   5.121   2.854
 3542SOL    HW112523  10.032   5.155   2.921
 3542SOL    HW212524  10.173   5.104   2.901
 3543SOL     OW12525   6.585   9.312   4.432
 3543SOL    HW112526   6.545   9.243   4.485
 3543SOL    HW212527   6.673   9.279   4.413
 3544SOL     OW12528  10.922   1.429   2.990
 3544SOL    HW112529  10.969   1.412   2.908
 3544SOL    HW212530  10.981   1.397   3.058
 3545SOL     OW12531   7.486  13.746  12.781
 3545SOL    HW112532   7.410  13.741  12.723
 3545SOL    HW212533   7.530  13.661  12.770
 3546SOL     OW12534   6.191  13.948   3.181
 3546SOL    HW112535   6.096  13.935   3.179
 3546SOL    HW212536   6.219  13.937   3.090
 3547SOL     OW12537   9.038   2.345   0.194
 3547SOL    HW112538   8.943   2.351   0.193
 3547SOL    HW212539   9.057   2.255   0.167
 3548SOL     OW12540  12.742   8.049   3.237
 3548SOL    HW112541  12.653   8.039   3.202
 3548SOL    HW212542  12.787   7.969   3.211
 3549SOL     OW12543  11.635  13.700   5.528
 3549SOL    HW112544  11.576  13.631   5.557
 3549SOL    HW212545  11.699  13.710   5.598
 3550SOL     OW12546   4.557  12.425  14.201
 3550SOL    HW112547   4.603  12.470  14.131
 3550SOL    HW212548   4.472  12.470  14.207
 3551SOL     OW12549  11.215   1.450   5.349
 3551SOL    HW112550  11.286   1.504   5.383
 3551SOL    HW212551  11.161   1.510   5.298
 3552SOL     OW12552  12.920   6.450   9.993
 3552SOL    HW112553  12.990   6.434  10.056
 3552SOL    HW212554  12.879   6.531  10.023
 3553SOL     OW12555   3.737   8.208  11.059
 3553SOL    HW112556   3.764   8.130  11.011
 3553SOL    HW212557   3.674   8.251  11.001
 3554SOL     OW12558   1.942   7.979   5.634
 3554SOL    HW112559   2.005   7.912   5.663
 3554SOL    HW212560   1.867   7.929   5.602
 3555SOL     OW12561   9.835   7.560  11.745
 3555SOL    HW112562   9.811   7.575  11.836
 3555SOL    HW212563   9.822   7.644  11.702
 3556SOL     OW12564   2.302   1.230   8.036
 3556SOL    HW112565   2.372   1.261   8.093
 3556SOL    HW212566   2.301   1.293   7.964
 3557SOL     OW12567  13.352   5.435  12.000
 3557SOL    HW112568  13.406   5.474  11.931
 3557SOL    HW212569  13.335   5.346  11.969
 3558SOL     OW12570  11.043   5.809  14.873
 3558SOL    HW112571  11.099   5.874   0.033
 3558SOL    HW212572  11.071   5.726   0.029
 3559SOL     OW12573  11.966  12.398   0.826
 3559SOL    HW112574  11.900  12.422   0.891
 3559SOL    HW212575  12.034  12.465   0.836
 3560SOL     OW12576  11.370   8.732  11.763
 3560SOL    HW112577  11.348   8.693  11.847
 3560SOL    HW212578  11.454   8.694  11.739
 3561SOL     OW12579   0.653  13.903   1.667
 3561SOL    HW112580   0.688  13.887   1.580
 3561SOL    HW212581   0.713  13.967   1.706
 3562SOL     OW12582   5.288   3.028  13.097
 3562SOL    HW112583   5.367   3.056  13.051
 3562SOL    HW212584   5.219   3.035  13.032
 3563SOL     OW12585   3.164   4.666   6.974
 3563SOL    HW112586   3.093   4.729   6.986
 3563SOL    HW212587   3.242   4.721   6.962
 3564SOL     OW12588   2.742   3.035  12.213
 3564SOL    HW112589   2.738   2.947  12.251
 3564SOL    HW212590   2.773   3.090  12.285
 3565SOL     OW12591   7.046   6.463   0.667
 3565SOL    HW112592   7.040   6.377   0.627
 3565SOL    HW212593   7.114   6.509   0.616
 3566SOL     OW12594  13.201   4.230  13.344
 3566SOL    HW112595  13.202   4.151  13.290
 3566SOL    HW212596  13.289   4.266  13.334
 3567SOL     OW12597  14.074   2.992   1.102
 3567SOL    HW112598  14.060   2.923   1.166
 3567SOL    HW212599  14.014   3.061   1.127
 3568SOL     OW12600   3.676   9.475   8.963
 3568SOL    HW112601   3.642   9.494   8.875
 3568SOL    HW212602   3.620   9.404   8.995
 3569SOL     OW12603   9.776   5.884  10.189
 3569SOL    HW112604   9.752   5.836  10.268
 3569SOL    HW212605   9.777   5.976  10.216
 3570SOL     OW12606  14.273  11.036   3.538
 3570SOL    HW112607  14.263  10.966   3.601
 3570SOL    HW212608  14.344  11.091   3.573
 3571SOL     OW12609   1.834  14.029   7.680
 3571SOL    HW112610   1.827  14.093   7.609
 3571SOL    HW212611   1.783  13.954   7.650
 3572SOL     OW12612  11.519   3.213   9.627
 3572SOL    HW112613  11.496   3.265   9.549
 3572SOL    HW212614  11.464   3.250   9.697
 3573SOL     OW12615   3.253   8.971  12.788
 3573SOL    HW112616   3.234   9.065  12.788
 3573SOL    HW212617   3.348   8.965  12.791
 3574SOL     OW12618   7.842  13.437  10.889
 3574SOL    HW112619   7.758  13.472  10.917
 3574SOL    HW212620   7.855  13.471  10.800
 3575SOL     OW12621  10.130  12.722   3.423
 3575SOL    HW112622  10.145  12.642   3.473
 3575SOL    HW212623  10.048  12.757   3.458
 3576SOL     OW12624   2.858  11.405   8.701
 3576SOL    HW112625   2.850  11.313   8.678
 3576SOL    HW212626   2.890  11.447   8.621
 3577SOL     OW12627   9.275   2.083  14.653
 3577SOL    HW112628   9.312   2.004  14.693
 3577SOL    HW212629   9.347   2.120  14.603
 3578SOL     OW12630   0.711   4.591   5.673
 3578SOL    HW112631   0.723   4.660   5.608
 3578SOL    HW212632   0.712   4.510   5.621
 3579SOL     OW12633   5.388  10.255   8.078
 3579SOL    HW112634   5.352  10.341   8.101
 3579SOL    HW212635   5.478  10.274   8.050
 3580SOL     OW12636   3.758  10.148   9.081
 3580SOL    HW112637   3.755  10.227   9.027
 3580SOL    HW212638   3.851  10.139   9.105
 3581SOL     OW12639   3.987   3.752  14.843
 3581SOL    HW112640   3.947   3.838  14.852
 3581SOL    HW212641   4.040   3.758  14.764
 3582SOL     OW12642  11.783  14.280  12.840
 3582SOL    HW112643  11.698  14.299  12.880
 3582SOL    HW212644  11.762  14.229  12.762
 3583SOL     OW12645   4.167   4.653   8.428
 3583SOL    HW112646   4.237   4.592   8.405
 3583SOL    HW212647   4.108   4.602   8.485
 3584SOL     OW12648  13.546   1.029  14.256
 3584SOL    HW112649  13.600   1.107  14.247
 3584SOL    HW212650  13.594   0.974  14.317
 3585SOL     OW12651   4.229   9.293   7.673
 3585SOL    HW112652   4.195   9.304   7.584
 3585SOL    HW212653   4.310   9.345   7.675
 3586SOL     OW12654  10.333   5.100  12.298
 3586SOL    HW112655  10.358   5.059  12.381
 3586SOL    HW212656  10.338   5.029  12.234
 3587SOL     OW12657   8.147  10.636  11.564
 3587SOL    HW112658   8.074  10.595  11.611
 3587SOL    HW212659   8.182  10.566  11.509
 3588SOL     OW12660  10.246   9.869  13.677
 3588SOL    HW112661  10.203   9.845  13.759
 3588SOL    HW212662  10.229   9.963  13.668
 3589SOL     OW12663  12.596   6.070   6.675
 3589SOL    HW112664  12.555   6.000   6.725
 3589SOL    HW212665  12.687   6.042   6.663
 3590SOL     OW12666  12.742  11.631  14.063
 3590SOL    HW112667  12.793  11.694  14.012
 3590SOL    HW212668  12.806  11.566  14.091
 3591SOL     OW12669   1.175   8.766   9.784
 3591SOL    HW112670   1.251   8.721   9.747
 3591SOL    HW212671   1.211   8.819   9.855
 3592SOL     OW12672   0.889   0.975   4.475
 3592SOL    HW112673   0.824   0.908   4.498
 3592SOL    HW212674   0.944   0.933   4.409
 3593SOL     OW12675   8.425   5.838  13.291
 3593SOL    HW112676   8.385   5.813  13.208
 3593SOL    HW212677   8.487   5.907  13.267
 3594SOL     OW12678   9.626   5.969   5.982
 3594SOL    HW112679   9.704   5.950   5.929
 3594SOL    HW212680   9.599   5.884   6.016
 3595SOL     OW12681  14.756   4.483  12.735
 3595SOL    HW112682  14.714   4.569  12.724
 3595SOL    HW212683  14.753   4.467  12.829
 3596SOL     OW12684   1.645   7.335   0.141
 3596SOL    HW112685   1.659   7.246   0.171
 3596SOL    HW212686   1.677   7.335   0.051
 3597SOL     OW12687   7.210   5.247   4.342
 3597SOL    HW112688   7.193   5.300   4.265
 3597SOL    HW212689   7.131   5.194   4.353
 3598SOL     OW12690   8.547   6.688   3.639
 3598SOL    HW112691   8.505   6.689   3.725
 3598SOL    HW212692   8.534   6.777   3.605
 3599SOL     OW12693   3.233  13.577   5.168
 3599SOL    HW112694   3.247  13.581   5.073
 3599SOL    HW212695   3.304  13.521   5.199
 3600SOL     OW12696   2.418   5.192  11.370
 3600SOL    HW112697   2.428   5.137  11.448
 3600SOL    HW212698   2.440   5.134  11.297
 3601SOL     OW12699  14.208   3.471   4.227
 3601SOL    HW112700  14.118   3.477   4.258
 3601SOL    HW212701  14.200   3.450   4.134
 3602SOL     OW12702   2.637  14.103   4.475
 3602SOL    HW112703   2.638  14.138   4.386
 3602SOL    HW212704   2.730  14.089   4.496
 3603SOL     OW12705   9.334   0.907   5.893
 3603SOL    HW112706   9.366   0.894   5.804
 3603SOL    HW212707   9.413   0.919   5.946
 3604SOL     OW12708   0.333   9.447  11.797
 3604SOL    HW112709   0.295   9.514  11.741
 3604SOL    HW212710   0.426   9.446  11.774
 3605SOL     OW12711   3.714   5.245  14.465
 3605SOL    HW112712   3.690   5.228  14.374
 3605SOL    HW212713   3.642   5.208  14.516
 3606SOL     OW12714   2.967  10.312   7.604
 3606SOL    HW112715   2.992  10.282   7.517
 3606SOL    HW212716   2.876  10.341   7.594
 3607SOL     OW12717   2.890  12.040   8.678
 3607SOL    HW112718   2.878  12.091   8.758
 3607SOL    HW212719   2.905  12.106   8.610
 3608SOL     OW12720   1.264   2.881   0.456
 3608SOL    HW112721   1.299   2.796   0.429
 3608SOL    HW212722   1.320   2.908   0.529
 3609SOL     OW12723   6.328  12.262   2.892
 3609SOL    HW112724   6.369  12.190   2.940
 3609SOL    HW212725   6.362  12.254   2.803
 3610SOL     OW12726  12.533   1.125   1.955
 3610SOL    HW112727  12.601   1.063   1.928
 3610SOL    HW212728  12.531   1.118   2.050
 3611SOL     OW12729  10.568  14.383   3.638
 3611SOL    HW112730  10.584  14.351   3.727
 3611SOL    HW212731  10.527  14.469   3.651
 3612SOL     OW12732   0.131   0.817   5.773
 3612SOL    HW112733   0.183   0.820   5.693
 3612SOL    HW212734   0.052   0.867   5.753
 3613SOL     OW12735  12.179   5.132   8.675
 3613SOL    HW112736  12.095   5.178   8.673
 3613SOL    HW212737  12.175   5.070   8.602
 3614SOL     OW12738  12.643  10.154   4.471
 3614SOL    HW112739  12.612  10.186   4.556
 3614SOL    HW212740  12.665  10.234   4.422
 3615SOL     OW12741   3.871   8.570   0.234
 3615SOL    HW112742   3.835   8.594   0.319
 3615SOL    HW212743   3.828   8.486   0.213
 3616SOL     OW12744   2.837  11.639   2.561
 3616SOL    HW112745   2.882  11.594   2.489
 3616SOL    HW212746   2.761  11.679   2.520
 3617SOL     OW12747  12.440   5.675  12.810
 3617SOL    HW112748  12.392   5.743  12.763
 3617SOL    HW212749  12.532   5.692  12.788
 3618SOL     OW12750   6.211   0.142   2.313
 3618SOL    HW112751   6.137   0.200   2.330
 3618SOL    HW212752   6.282   0.179   2.366
 3619SOL     OW12753   3.768  12.525   6.015
 3619SOL    HW112754   3.704  12.454   6.010
 3619SOL    HW212755   3.732  12.585   6.080
 3620SOL     OW12756  13.982  13.606  10.534
 3620SOL    HW112757  14.017  13.585  10.621
 3620SOL    HW212758  14.042  13.565  10.473
 3621SOL     OW12759  10.488   6.638   0.342
 3621SOL    HW112760  10.472   6.671   0.253
 3621SOL    HW212761  10.423   6.682   0.396
 3622SOL     OW12762   8.882  14.144   0.586
 3622SOL    HW112763   8.950  14.102   0.638
 3622SOL    HW212764   8.800  14.105   0.616
 3623SOL     OW12765   9.636   8.303  11.052
 3623SOL    HW112766   9.702   8.235  11.038
 3623SOL    HW212767   9.615   8.335  10.965
 3624SOL     OW12768   2.055   7.550   2.746
 3624SOL    HW112769   2.081   7.599   2.668
 3624SOL    HW212770   2.068   7.458   2.722
 3625SOL     OW12771  14.112  12.255  12.254
 3625SOL    HW112772  14.122  12.211  12.338
 3625SOL    HW212773  14.126  12.186  12.189
 3626SOL     OW12774  12.041   8.034  10.609
 3626SOL    HW112775  12.093   7.955  10.601
 3626SOL    HW212776  11.951   8.003  10.615
 3627SOL     OW12777   8.188   3.946   0.546
 3627SOL    HW112778   8.165   3.858   0.576
 3627SOL    HW212779   8.243   3.981   0.616
 3628SOL     OW12780   9.843   3.404  13.354
 3628SOL    HW112781   9.914   3.460  13.323
 3628SOL    HW212782   9.885   3.346  13.418
 3629SOL     OW12783   1.793   0.364   9.455
 3629SOL    HW112784   1.759   0.343   9.542
 3629SOL    HW212785   1.745   0.443   9.429
 3630SOL     OW12786   7.024   9.683   0.046
 3630SOL    HW112787   7.027   9.697  14.834
 3630SOL    HW212788   7.104   9.724   0.079
 3631SOL     OW12789   8.883  11.396  10.656
 3631SOL    HW112790   8.833  11.329  10.703
 3631SOL    HW212791   8.929  11.445  10.724
 3632SOL     OW12792   4.798   7.188   7.955
 3632SOL    HW112793   4.867   7.171   8.019
 3632SOL    HW212794   4.819   7.131   7.881
 3633SOL     OW12795   2.141   7.512  12.337
 3633SOL    HW112796   2.068   7.536  12.393
 3633SOL    HW212797   2.162   7.422  12.363
 3634SOL     OW12798   5.930  12.023   1.977
 3634SOL    HW112799   6.006  12.002   1.924
 3634SOL    HW212800   5.938  12.118   1.993
 3635SOL     OW12801   0.725   7.572   1.202
 3635SOL    HW112802   0.735   7.493   1.256
 3635SOL    HW212803   0.634   7.569   1.172
 3636SOL     OW12804   9.397   2.516   1.992
 3636SOL    HW112805   9.462   2.572   1.949
 3636SOL    HW212806   9.322   2.574   2.008
 3637SOL     OW12807   8.999   5.141  11.511
 3637SOL    HW112808   9.054   5.152  11.589
 3637SOL    HW212809   9.055   5.093  11.449
 3638SOL     OW12810   0.980   7.837   5.115
 3638SOL    HW112811   0.920   7.847   5.040
 3638SOL    HW212812   0.949   7.901   5.179
 3639SOL     OW12813   9.196  10.335   3.855
 3639SOL    HW112814   9.179  10.271   3.785
 3639SOL    HW212815   9.115  10.337   3.905
 3640SOL     OW12816  14.450  14.412   5.430
 3640SOL    HW112817  14.481  14.353   5.499
 3640SOL    HW212818  14.528  14.435   5.380
 3641SOL     OW12819   9.274   2.407  10.126
 3641SOL    HW112820   9.179   2.405  10.135
 3641SOL    HW212821   9.295   2.335  10.067
 3642SOL     OW12822   1.007   0.410  11.620
 3642SOL    HW112823   0.987   0.421  11.527
 3642SOL    HW212824   0.950   0.473  11.665
 3643SOL     OW12825   4.348  11.510   9.792
 3643SOL    HW112826   4.373  11.469   9.710
 3643SOL    HW212827   4.326  11.438   9.850
 3644SOL     OW12828   2.269   1.851   3.489
 3644SOL    HW112829   2.327   1.890   3.555
 3644SOL    HW212830   2.191   1.906   3.491
 3645SOL     OW12831   3.795  13.274  12.714
 3645SOL    HW112832   3.759  13.306  12.797
 3645SOL    HW212833   3.721  13.273  12.654
 3646SOL     OW12834   5.125   8.598  14.872
 3646SOL    HW112835   5.055   8.658   0.013
 3646SOL    HW212836   5.082   8.513  14.863
 3647SOL     OW12837  12.843   3.171   4.436
 3647SOL    HW112838  12.849   3.266   4.424
 3647SOL    HW212839  12.933   3.140   4.422
 3648SOL     OW12840   5.239   9.285   1.163
 3648SOL    HW112841   5.226   9.265   1.256
 3648SOL    HW212842   5.225   9.202   1.118
 3649SOL     OW12843  13.710  13.865  12.201
 3649SOL    HW112844  13.662  13.937  12.159
 3649SOL    HW212845  13.647  13.792  12.201
 3650SOL     OW12846   0.397  11.895   3.120
 3650SOL    HW112847   0.471  11.914   3.177
 3650SOL    HW212848   0.367  11.808   3.147
 3651SOL     OW12849  13.369   4.613   0.990
 3651SOL    HW112850  13.279   4.639   0.968
 3651SOL    HW212851  13.404   4.687   1.038
 3652SOL     OW12852  13.089  13.313   4.494
 3652SOL    HW112853  13.019  13.365   4.532
 3652SOL    HW212854  13.076  13.225   4.530
 3653SOL     OW12855   6.667   0.571   7.081
 3653SOL    HW112856   6.739   0.540   7.137
 3653SOL    HW212857   6.710   0.595   6.999
 3654SOL     OW12858  14.591   7.296  13.120
 3654SOL    HW112859  14.650   7.370  13.103
 3654SOL    HW212860  14.576   7.299  13.214
 3655SOL     OW12861   1.941   0.605  10.227
 3655SOL    HW112862   1.882   0.667  10.184
 3655SOL    HW212863   2.014   0.660  10.258
 3656SOL     OW12864  10.888   0.296  13.537
 3656SOL    HW112865  10.965   0.304  13.592
 3656SOL    HW212866  10.849   0.383  13.537
 3657SOL     OW12867   8.094   4.968  10.722
 3657SOL    HW112868   8.042   5.036  10.762
 3657SOL    HW212869   8.169   4.957  10.780
 3658SOL     OW12870  14.511   5.423   0.863
 3658SOL    HW112871  14.445   5.377   0.915
 3658SOL    HW212872  14.517   5.510   0.904
 3659SOL     OW12873  13.167   6.797   9.913
 3659SOL    HW112874  13.133   6.800  10.002
 3659SOL    HW212875  13.115   6.861   9.864
 3660SOL     OW12876  12.714   3.782  12.073
 3660SOL    HW112877  12.710   3.787  11.978
 3660SOL    HW212878  12.636   3.731  12.097
 3661SOL     OW12879   5.387   5.682   4.950
 3661SOL    HW112880   5.464   5.661   4.897
 3661SOL    HW212881   5.317   5.629   4.912
 3662SOL     OW12882  12.790   7.220   7.677
 3662SOL    HW112883  12.757   7.211   7.588
 3662SOL    HW212884  12.722   7.183   7.732
 3663SOL     OW12885   9.262   3.719   2.832
 3663SOL    HW112886   9.294   3.808   2.817
 3663SOL    HW212887   9.306   3.690   2.911
 3664SOL     OW12888   0.983   1.953   8.427
 3664SOL    HW112889   1.063   2.003   8.415
 3664SOL    HW212890   0.928   1.977   8.353
 3665SOL     OW12891   0.137   9.687  13.137
 3665SOL    HW112892   0.110   9.775  13.165
 3665SOL    HW212893   0.232   9.685  13.152
 3666SOL     OW12894  13.609  13.479   4.964
 3666SOL    HW112895  13.675  13.496   5.031
 3666SOL    HW212896  13.659  13.471   4.883
 3667SOL     OW12897   9.542   7.904   3.843
 3667SOL    HW112898   9.461   7.914   3.893
 3667SOL    HW212899   9.610   7.934   3.902
 3668SOL     OW12900  13.245   0.239   1.209
 3668SOL    HW112901  13.178   0.194   1.261
 3668SOL    HW212902  13.212   0.236   1.120
 3669SOL     OW12903   5.138  12.438   1.212
 3669SOL    HW112904   5.082  12.410   1.139
 3669SOL    HW212905   5.089  12.412   1.290
 3670SOL     OW12906   5.182   2.509  11.709
 3670SOL    HW112907   5.129   2.440  11.747
 3670SOL    HW212908   5.205   2.477  11.622
 3671SOL     OW12909   5.260   2.253  13.763
 3671SOL    HW112910   5.355   2.245  13.768
 3671SOL    HW212911   5.231   2.173  13.720
 3672SOL     OW12912   1.430  13.002   5.412
 3672SOL    HW112913   1.397  12.943   5.480
 3672SOL    HW212914   1.392  12.967   5.331
 3673SOL     OW12915  12.013  13.727  11.147
 3673SOL    HW112916  12.024  13.659  11.080
 3673SOL    HW212917  12.101  13.741  11.180
 3674SOL     OW12918  12.090  11.401   6.478
 3674SOL    HW112919  12.095  11.473   6.541
 3674SOL    HW212920  12.158  11.340   6.507
 3675SOL     OW12921   9.477   0.550   5.460
 3675SOL    HW112922   9.541   0.578   5.525
 3675SOL    HW212923   9.517   0.473   5.419
 3676SOL     OW12924  12.589  14.405   8.892
 3676SOL    HW112925  12.656  14.377   8.954
 3676SOL    HW212926  12.628  14.480   8.846
 3677SOL     OW12927  10.457   5.510   4.960
 3677SOL    HW112928  10.365   5.509   4.933
 3677SOL    HW212929  10.505   5.526   4.880
 3678SOL     OW12930   2.776   4.135  10.857
 3678SOL    HW112931   2.852   4.162  10.908
 3678SOL    HW212932   2.701   4.158  10.911
 3679SOL     OW12933  14.878   7.467   4.011
 3679SOL    HW112934   0.090   7.457   4.027
 3679SOL    HW212935  14.846   7.377   4.004
 3680SOL     OW12936  11.451   9.139   8.256
 3680SOL    HW112937  11.502   9.081   8.314
 3680SOL    HW212938  11.483   9.119   8.168
 3681SOL     OW12939  12.220   9.477  12.360
 3681SOL    HW112940  12.273   9.556  12.366
 3681SOL    HW212941  12.266   9.422  12.296
 3682SOL     OW12942   0.322   7.494   1.868
 3682SOL    HW112943   0.257   7.476   1.936
 3682SOL    HW212944   0.377   7.563   1.905
 3683SOL     OW12945   5.796   2.011   2.424
 3683SOL    HW112946   5.873   1.981   2.377
 3683SOL    HW212947   5.806   2.106   2.428
 3684SOL     OW12948   0.013   6.667   9.664
 3684SOL    HW112949  14.830   6.655   9.733
 3684SOL    HW212950   0.086   6.610   9.691
 3685SOL     OW12951   3.258  12.012   5.613
 3685SOL    HW112952   3.204  11.996   5.690
 3685SOL    HW212953   3.214  12.085   5.568
 3686SOL     OW12954   2.584  13.087  12.283
 3686SOL    HW112955   2.529  13.010  12.270
 3686SOL    HW212956   2.627  13.101  12.198
 3687SOL     OW12957   5.687   5.063   6.812
 3687SOL    HW112958   5.724   4.978   6.788
 3687SOL    HW212959   5.763   5.116   6.837
 3688SOL     OW12960   2.685   5.300   4.809
 3688SOL    HW112961   2.601   5.255   4.800
 3688SOL    HW212962   2.734   5.277   4.731
 3689SOL     OW12963   7.870  10.720   5.880
 3689SOL    HW112964   7.799  10.657   5.896
 3689SOL    HW212965   7.938  10.696   5.943
 3690SOL     OW12966   7.926   2.190  10.314
 3690SOL    HW112967   7.972   2.193  10.399
 3690SOL    HW212968   7.862   2.120  10.324
 3691SOL     OW12969   7.281   6.801   8.010
 3691SOL    HW112970   7.188   6.787   7.995
 3691SOL    HW212971   7.324   6.756   7.937
 3692SOL     OW12972   1.606   0.718  13.028
 3692SOL    HW112973   1.618   0.671  12.946
 3692SOL    HW212974   1.622   0.652  13.096
 3693SOL     OW12975  10.325   0.842   0.468
 3693SOL    HW112976  10.264   0.788   0.418
 3693SOL    HW212977  10.353   0.787   0.541
 3694SOL     OW12978   4.479   2.773  11.085
 3694SOL    HW112979   4.411   2.775  11.018
 3694SOL    HW212980   4.555   2.814  11.044
 3695SOL     OW12981   6.736  10.217   0.771
 3695SOL    HW112982   6.669  10.217   0.840
 3695SOL    HW212983   6.722  10.135   0.724
 3696SOL     OW12984   0.323   0.822  11.383
 3696SOL    HW112985   0.341   0.858  11.470
 3696SOL    HW212986   0.272   0.889  11.339
 3697SOL     OW12987  13.668   4.859   7.361
 3697SOL    HW112988  13.716   4.927   7.408
 3697SOL    HW212989  13.576   4.885   7.369
 3698SOL     OW12990   7.400  12.694   4.400
 3698SOL    HW112991   7.433  12.606   4.381
 3698SOL    HW212992   7.394  12.697   4.496
 3699SOL     OW12993  12.014  13.493   9.893
 3699SOL    HW112994  12.064  13.453   9.964
 3699SOL    HW212995  11.997  13.582   9.923
 3700SOL     OW12996  13.166   5.396  10.545
 3700SOL    HW112997  13.112   5.346  10.607
 3700SOL    HW212998  13.232   5.439  10.599
 3701SOL     OW12999   6.861   2.256   8.878
 3701SOL    HW113000   6.931   2.311   8.842
 3701SOL    HW213001   6.784   2.278   8.827
 3702SOL     OW13002   0.252   8.812   7.384
 3702SOL    HW113003   0.233   8.828   7.477
 3702SOL    HW213004   0.336   8.768   7.384
 3703SOL     OW13005   1.440   8.986   9.539
 3703SOL    HW113006   1.492   9.060   9.507
 3703SOL    HW213007   1.374   9.026   9.594
 3704SOL     OW13008  13.075  14.212  11.683
 3704SOL    HW113009  12.988  14.240  11.653
 3704SOL    HW213010  13.089  14.259  11.765
 3705SOL     OW13011  13.995   8.165   4.176
 3705SOL    HW113012  14.071   8.188   4.123
 3705SOL    HW213013  13.956   8.090   4.131
 3706SOL     OW13014   3.978  14.206   9.231
 3706SOL    HW113015   4.071  14.187   9.242
 3706SOL    HW213016   3.935  14.159   9.302
 3707SOL     OW13017   7.088  14.201  10.237
 3707SOL    HW113018   7.001  14.199  10.277
 3707SOL    HW213019   7.072  14.187  10.144
 3708SOL     OW13020   0.981  14.644   8.741
 3708SOL    HW113021   1.035  14.566   8.752
 3708SOL    HW213022   1.043  14.717   8.740
 3709SOL     OW13023   6.810  10.597   6.958
 3709SOL    HW113024   6.815  10.692   6.959
 3709SOL    HW213025   6.783  10.575   6.869
 3710SOL     OW13026   9.211  10.329  12.762
 3710SOL    HW113027   9.237  10.359  12.849
 3710SOL    HW213028   9.289  10.285  12.728
 3711SOL     OW13029  14.118   3.808  10.700
 3711SOL    HW113030  14.082   3.720  10.688
 3711SOL    HW213031  14.151   3.832  10.613
 3712SOL     OW13032   0.066   7.507  14.869
 3712SOL    HW113033   0.061   7.574  14.801
 3712SOL    HW213034   0.131   7.444  14.837
 3713SOL     OW13035   8.850   3.525  12.649
 3713SOL    HW113036   8.908   3.600  12.641
 3713SOL    HW213037   8.908   3.449  12.639
 3714SOL     OW13038  14.846  11.154   6.157
 3714SOL    HW113039  14.845  11.098   6.080
 3714SOL    HW213040   0.056  11.156   6.185
 3715SOL     OW13041  14.798   5.197   3.941
 3715SOL    HW113042  14.750   5.278   3.923
 3715SOL    HW213043  14.835   5.171   3.856
 3716SOL     OW13044   4.929   1.521   6.873
 3716SOL    HW113045   4.897   1.441   6.833
 3716SOL    HW213046   4.920   1.507   6.967
 3717SOL     OW13047   9.337   5.535  10.488
 3717SOL    HW113048   9.266   5.597  10.472
 3717SOL    HW213049   9.358   5.500  10.402
 3718SOL     OW13050   5.035   2.030  10.121
 3718SOL    HW113051   5.046   1.978  10.201
 3718SOL    HW213052   5.123   2.064  10.103
 3719SOL     OW13053  13.639  10.590   8.919
 3719SOL    HW113054  13.611  10.511   8.966
 3719SOL    HW213055  13.692  10.557   8.847
 3720SOL     OW13056   8.829  14.352   4.908
 3720SOL    HW113057   8.921  14.348   4.933
 3720SOL    HW213058   8.827  14.312   4.821
 3721SOL     OW13059   5.448   0.204   4.571
 3721SOL    HW113060   5.385   0.176   4.505
 3721SOL    HW213061   5.397   0.253   4.635
 3722SOL     OW13062  13.311  12.453   1.042
 3722SOL    HW113063  13.363  12.410   1.110
 3722SOL    HW213064  13.366  12.526   1.012
 3723SOL     OW13065  10.964   2.848  10.577
 3723SOL    HW113066  10.884   2.807  10.610
 3723SOL    HW213067  10.944   2.870  10.486
 3724SOL     OW13068   2.706  11.632  13.876
 3724SOL    HW113069   2.641  11.702  13.885
 3724SOL    HW213070   2.679  11.566  13.940
 3725SOL     OW13071  12.149   4.510  12.921
 3725SOL    HW113072  12.192   4.591  12.896
 3725SOL    HW213073  12.112   4.476  12.840
 3726SOL     OW13074   6.386  14.397  14.078
 3726SOL    HW113075   6.291  14.399  14.076
 3726SOL    HW213076   6.408  14.305  14.096
 3727SOL     OW13077   7.752  10.910   6.082
 3727SOL    HW113078   7.689  10.982   6.075
 3727SOL    HW213079   7.743  10.862   6.000
 3728SOL     OW13080   3.181  11.399  10.021
 3728SOL    HW113081   3.102  11.365  10.061
 3728SOL    HW213082   3.175  11.371   9.929
 3729SOL     OW13083  11.207  12.563   7.565
 3729SOL    HW113084  11.148  12.626   7.605
 3729SOL    HW213085  11.278  12.553   7.628
 3730SOL     OW13086   1.341   0.611   4.237
 3730SOL    HW113087   1.420   0.642   4.192
 3730SOL    HW213088   1.289   0.570   4.168
 3731SOL     OW13089  11.731   0.848   4.937
 3731SOL    HW113090  11.695   0.857   4.849
 3731SOL    HW213091  11.824   0.872   4.928
 3732SOL     OW13092   1.841   5.441   2.702
 3732SOL    HW113093   1.853   5.435   2.607
 3732SOL    HW213094   1.913   5.389   2.739
 3733SOL     OW13095  11.340   7.463   8.256
 3733SOL    HW113096  11.342   7.558   8.267
 3733SOL    HW213097  11.381   7.428   8.335
 3734SOL     OW13098   9.426   1.015   4.577
 3734SOL    HW113099   9.409   1.093   4.630
 3734SOL    HW213100   9.512   0.985   4.608
 3735SOL     OW13101   6.152   1.618   5.641
 3735SOL    HW113102   6.204   1.603   5.720
 3735SOL    HW213103   6.081   1.676   5.671
 3736SOL     OW13104   4.568   3.608   6.483
 3736SOL    HW113105   4.481   3.639   6.508
 3736SOL    HW213106   4.625   3.683   6.497
 3737SOL     OW13107  14.037   2.591  11.437
 3737SOL    HW113108  14.048   2.685  11.453
 3737SOL    HW213109  13.974   2.563  11.503
 3738SOL     OW13110  10.431  14.219   5.606
 3738SOL    HW113111  10.487  14.249   5.678
 3738SOL    HW213112  10.492  14.201   5.535
 3739SOL     OW13113   1.865   8.040   4.966
 3739SOL    HW113114   1.898   7.975   5.028
 3739SOL    HW213115   1.772   8.017   4.955
 3740SOL     OW13116  13.581   1.684   8.236
 3740SOL    HW113117  13.657   1.677   8.178
 3740SOL    HW213118  13.505   1.682   8.178
 3741SOL     OW13119  11.600   8.834  13.474
 3741SOL    HW113120  11.655   8.843  13.396
 3741SOL    HW213121  11.538   8.765  13.451
 3742SOL     OW13122   4.643   9.522   3.350
 3742SOL    HW113123   4.644   9.614   3.376
 3742SOL    HW213124   4.557   9.509   3.310
 3743SOL     OW13125   8.092  10.970   4.537
 3743SOL    HW113126   8.103  11.030   4.462
 3743SOL    HW213127   8.002  10.937   4.527
 3744SOL     OW13128  11.482   8.686   1.597
 3744SOL    HW113129  11.443   8.615   1.647
 3744SOL    HW213130  11.540   8.643   1.535
 3745SOL     OW13131   0.331   6.904   2.038
 3745SOL    HW113132   0.384   6.850   1.979
 3745SOL    HW213133   0.278   6.841   2.087
 3746SOL     OW13134  12.247   3.685   5.904
 3746SOL    HW113135  12.253   3.711   5.996
 3746SOL    HW213136  12.301   3.606   5.898
 3747SOL     OW13137   0.193  10.577  13.515
 3747SOL    HW113138   0.147  10.654  13.483
 3747SOL    HW213139   0.235  10.606  13.596
 3748SOL     OW13140   2.750  14.562   3.960
 3748SOL    HW113141   2.701  14.549   4.041
 3748SOL    HW213142   2.752  14.475   3.920
 3749SOL     OW13143   8.441   6.363   8.061
 3749SOL    HW113144   8.443   6.267   8.056
 3749SOL    HW213145   8.412   6.381   8.151
 3750SOL     OW13146   4.489  13.075   1.572
 3750SOL    HW113147   4.543  13.028   1.635
 3750SOL    HW213148   4.408  13.024   1.568
 3751SOL     OW13149   6.069   5.396   3.468
 3751SOL    HW113150   6.159   5.370   3.486
 3751SOL    HW213151   6.059   5.479   3.515
 3752SOL     OW13152   2.861   0.530   0.664
 3752SOL    HW113153   2.910   0.453   0.637
 3752SOL    HW213154   2.796   0.543   0.595
 3753SOL     OW13155   0.726   0.993   8.957
 3753SOL    HW113156   0.681   0.961   8.878
 3753SOL    HW213157   0.802   1.040   8.924
 3754SOL     OW13158   6.698   2.246  12.481
 3754SOL    HW113159   6.753   2.253  12.558
 3754SOL    HW213160   6.674   2.153  12.477
 3755SOL     OW13161   2.192   3.173   9.409
 3755SOL    HW113162   2.260   3.223   9.366
 3755SOL    HW213163   2.138   3.239   9.453
 3756SOL     OW13164  11.731   7.343   7.442
 3756SOL    HW113165  11.724   7.427   7.397
 3756SOL    HW213166  11.660   7.290   7.407
 3757SOL     OW13167  13.283   4.050  11.393
 3757SOL    HW113168  13.289   4.017  11.303
 3757SOL    HW213169  13.217   4.119  11.388
 3758SOL     OW13170  12.997  13.142   4.678
 3758SOL    HW113171  12.927  13.133   4.743
 3758SOL    HW213172  13.001  13.057   4.635
 3759SOL     OW13173  11.328  14.479   9.334
 3759SOL    HW113174  11.267  14.429   9.388
 3759SOL    HW213175  11.274  14.515   9.264
 3760SOL     OW13176   6.522   6.134   0.352
 3760SOL    HW113177   6.441   6.100   0.315
 3760SOL    HW213178   6.559   6.189   0.283
 3761SOL     OW13179  13.401   6.953   7.011
 3761SOL    HW113180  13.426   7.042   6.990
 3761SOL    HW213181  13.483   6.908   7.030
 3762SOL     OW13182   0.476  11.338  11.204
 3762SOL    HW113183   0.416  11.322  11.278
 3762SOL    HW213184   0.557  11.294  11.229
 3763SOL     OW13185  10.167  14.349   7.762
 3763SOL    HW113186  10.175  14.409   7.836
 3763SOL    HW213187  10.240  14.371   7.705
 3764SOL     OW13188   8.631   6.750   4.111
 3764SOL    HW113189   8.717   6.712   4.130
 3764SOL    HW213190   8.650   6.835   4.073
 3765SOL     OW13191  13.132  11.503   9.692
 3765SOL    HW113192  13.074  11.533   9.623
 3765SOL    HW213193  13.130  11.407   9.685
 3766SOL     OW13194   1.341   4.882  12.377
 3766SOL    HW113195   1.409   4.949  12.373
 3766SOL    HW213196   1.370   4.815  12.315
 3767SOL     OW13197   4.439   0.321  11.852
 3767SOL    HW113198   4.397   0.314  11.937
 3767SOL    HW213199   4.454   0.230  11.825
 3768SOL     OW13200  12.363  10.330   7.945
 3768SOL    HW113201  12.316  10.400   7.900
 3768SOL    HW213202  12.395  10.370   8.026
 3769SOL     OW13203  14.350   0.259   6.590
 3769SOL    HW113204  14.403   0.320   6.538
 3769SOL    HW213205  14.402   0.178   6.593
 3770SOL     OW13206   2.546   1.632   4.233
 3770SOL    HW113207   2.468   1.673   4.272
 3770SOL    HW213208   2.600   1.706   4.204
 3771SOL     OW13209   9.327  11.076   7.252
 3771SOL    HW113210   9.344  11.007   7.188
 3771SOL    HW213211   9.242  11.053   7.291
 3772SOL     OW13212   2.935   5.903   1.843
 3772SOL    HW113213   3.000   5.920   1.775
 3772SOL    HW213214   2.930   5.984   1.893
 3773SOL     OW13215   2.438  10.833   3.647
 3773SOL    HW113216   2.372  10.772   3.615
 3773SOL    HW213217   2.521  10.789   3.632
 3774SOL     OW13218   0.107   9.795   7.943
 3774SOL    HW113219   0.187   9.843   7.920
 3774SOL    HW213220   0.044   9.864   7.966
 3775SOL     OW13221   8.704   7.650  10.315
 3775SOL    HW113222   8.613   7.621  10.316
 3775SOL    HW213223   8.753   7.578  10.276
 3776SOL     OW13224   1.301  11.915  12.792
 3776SOL    HW113225   1.369  11.870  12.741
 3776SOL    HW213226   1.346  11.944  12.872
 3777SOL     OW13227   9.108  12.831   2.323
 3777SOL    HW113228   9.175  12.842   2.255
 3777SOL    HW213229   9.110  12.914   2.371
 3778SOL     OW13230   0.718   4.534   1.054
 3778SOL    HW113231   0.696   4.611   1.002
 3778SOL    HW213232   0.703   4.560   1.145
 3779SOL     OW13233  13.322  11.804   4.018
 3779SOL    HW113234  13.278  11.722   3.994
 3779SOL    HW213235  13.384  11.778   4.085
 3780SOL     OW13236  12.231   1.206   6.498
 3780SOL    HW113237  12.314   1.204   6.450
 3780SOL    HW213238  12.256   1.189   6.589
 3781SOL     OW13239  12.678  14.238  13.807
 3781SOL    HW113240  12.621  14.238  13.884
 3781SOL    HW213241  12.716  14.151  13.805
 3782SOL     OW13242   0.859   4.533   9.278
 3782SOL    HW113243   0.786   4.588   9.250
 3782SOL    HW213244   0.857   4.458   9.218
 3783SOL     OW13245   3.947   1.408   5.184
 3783SOL    HW113246   3.930   1.362   5.266
 3783SOL    HW213247   4.041   1.429   5.187
 3784SOL     OW13248   4.262  10.502  12.396
 3784SOL    HW113249   4.235  10.532  12.483
 3784SOL    HW213250   4.231  10.411  12.392
 3785SOL     OW13251   8.411  10.428  14.808
 3785SOL    HW113252   8.455  10.374  14.742
 3785SOL    HW213253   8.409  10.516  14.770
 3786SOL     OW13254   1.365   9.545  13.251
 3786SOL    HW113255   1.358   9.461  13.296
 3786SOL    HW213256   1.373   9.521  13.158
 3787SOL     OW13257   2.059   9.406   3.184
 3787SOL    HW113258   2.135   9.459   3.160
 3787SOL    HW213259   2.040   9.356   3.104
 3788SOL     OW13260  14.388   5.674  10.186
 3788SOL    HW113261  14.341   5.597  10.218
 3788SOL    HW213262  14.389   5.734  10.261
 3789SOL     OW13263  14.124   0.062  12.149
 3789SOL    HW113264  14.218   0.052  12.132
 3789SOL    HW213265  14.082   0.001  12.089
 3790SOL     OW13266   5.416   4.410  10.890
 3790SOL    HW113267   5.416   4.330  10.838
 3790SOL    HW213268   5.500   4.409  10.936
 3791SOL     OW13269   6.802   3.112  10.421
 3791SOL    HW113270   6.853   3.131  10.500
 3791SOL    HW213271   6.837   3.028  10.389
 3792SOL     OW13272   6.804   6.679   2.159
 3792SOL    HW113273   6.879   6.625   2.183
 3792SOL    HW213274   6.842   6.762   2.131
 3793SOL     OW13275  13.458   2.522   7.599
 3793SOL    HW113276  13.427   2.449   7.653
 3793SOL    HW213277  13.377   2.565   7.570
 3794SOL     OW13278   3.590   5.246   4.812
 3794SOL    HW113279   3.605   5.219   4.722
 3794SOL    HW213280   3.531   5.179   4.848
 3795SOL     OW13281  10.767   6.676   4.842
 3795SOL    HW113282  10.817   6.594   4.844
 3795SOL    HW213283  10.677   6.649   4.859
 3796SOL     OW13284  10.665   2.121   6.656
 3796SOL    HW113285  10.675   2.026   6.662
 3796SOL    HW213286  10.696   2.143   6.568
 3797SOL     OW13287   8.108  10.946   1.363
 3797SOL    HW113288   8.037  10.970   1.303
 3797SOL    HW213289   8.188  10.962   1.312
 3798SOL     OW13290   8.048  11.826  10.947
 3798SOL    HW113291   7.965  11.839  10.902
 3798SOL    HW213292   8.052  11.731  10.962
 3799SOL     OW13293   8.605   3.352   3.760
 3799SOL    HW113294   8.596   3.283   3.826
 3799SOL    HW213295   8.610   3.305   3.677
 3800SOL     OW13296   9.421   5.949   9.921
 3800SOL    HW113297   9.382   5.868   9.890
 3800SOL    HW213298   9.360   6.017   9.895
 3801SOL     OW13299   0.283   9.867  11.636
 3801SOL    HW113300   0.274   9.958  11.666
 3801SOL    HW213301   0.227   9.817  11.696
 3802SOL     OW13302  14.534   3.631  10.033
 3802SOL    HW113303  14.485   3.707  10.002
 3802SOL    HW213304  14.468   3.573  10.071
 3803SOL     OW13305   3.545   4.102   8.225
 3803SOL    HW113306   3.494   4.182   8.221
 3803SOL    HW213307   3.594   4.100   8.143
 3804SOL     OW13308   9.088   8.642   4.925
 3804SOL    HW113309   9.144   8.622   5.001
 3804SOL    HW213310   9.133   8.714   4.881
 3805SOL     OW13311  12.766   7.886   1.995
 3805SOL    HW113312  12.749   7.884   1.901
 3805SOL    HW213313  12.855   7.851   2.004
 3806SOL     OW13314  11.562  11.655  13.049
 3806SOL    HW113315  11.470  11.661  13.024
 3806SOL    HW213316  11.585  11.743  13.080
 3807SOL     OW13317   8.467  14.402   1.337
 3807SOL    HW113318   8.449  14.493   1.362
 3807SOL    HW213319   8.388  14.373   1.292
 3808SOL     OW13320   0.642  13.588   8.819
 3808SOL    HW113321   0.559  13.576   8.772
 3808SOL    HW213322   0.691  13.508   8.803
 3809SOL     OW13323   2.585   4.600   2.681
 3809SOL    HW113324   2.576   4.693   2.658
 3809SOL    HW213325   2.582   4.598   2.776
 3810SOL     OW13326  10.402   4.708  13.108
 3810SOL    HW113327  10.424   4.637  13.047
 3810SOL    HW213328  10.359   4.663  13.181
 3811SOL     OW13329   7.699   3.131  10.123
 3811SOL    HW113330   7.765   3.098  10.183
 3811SOL    HW213331   7.673   3.215  10.160
 3812SOL     OW13332   9.234   7.696   5.807
 3812SOL    HW113333   9.289   7.757   5.856
 3812SOL    HW213334   9.144   7.724   5.826
 3813SOL     OW13335   8.136  11.454  12.096
 3813SOL    HW113336   8.062  11.412  12.053
 3813SOL    HW213337   8.201  11.466  12.027
 3814SOL     OW13338   3.615   7.468   7.763
 3814SOL    HW113339   3.627   7.478   7.669
 3814SOL    HW213340   3.687   7.411   7.791
 3815SOL     OW13341   3.128   9.369   2.024
 3815SOL    HW113342   3.092   9.431   1.960
 3815SOL    HW213343   3.108   9.407   2.109
 3816SOL     OW13344  14.692  12.063   7.490
 3816SOL    HW113345  14.709  12.145   7.443
 3816SOL    HW213346  14.677  12.090   7.581
 3817SOL     OW13347   0.940  10.324  13.199
 3817SOL    HW113348   0.962  10.328  13.105
 3817SOL    HW213349   1.021  10.350  13.243
 3818SOL     OW13350  12.042   9.324   2.443
 3818SOL    HW113351  12.108   9.330   2.512
 3818SOL    HW213352  12.033   9.230   2.426
 3819SOL     OW13353   2.716  14.096  10.071
 3819SOL    HW113354   2.753  14.112   9.984
 3819SOL    HW213355   2.793  14.088  10.128
 3820SOL     OW13356   8.220   5.112   1.410
 3820SOL    HW113357   8.197   5.175   1.478
 3820SOL    HW213358   8.156   5.042   1.419
 3821SOL     OW13359   4.130   3.449   3.970
 3821SOL    HW113360   4.165   3.506   4.039
 3821SOL    HW213361   4.188   3.373   3.970
 3822SOL     OW13362   1.004  14.349  11.601
 3822SOL    HW113363   1.040  14.421  11.548
 3822SOL    HW213364   1.035  14.366  11.690
 3823SOL     OW13365   3.341   5.548  10.313
 3823SOL    HW113366   3.262   5.590  10.278
 3823SOL    HW213367   3.336   5.458  10.281
 3824SOL     OW13368  13.300  14.637   5.800
 3824SOL    HW113369  13.260  14.645   5.714
 3824SOL    HW213370  13.236  14.589   5.852
 3825SOL     OW13371   1.819   0.027  11.301
 3825SOL    HW113372   1.796   0.097  11.361
 3825SOL    HW213373   1.851  14.839  11.357
 3826SOL     OW13374   4.333   3.174   4.935
 3826SOL    HW113375   4.298   3.086   4.922
 3826SOL    HW213376   4.256   3.231   4.936
 3827SOL     OW13377   7.873   4.964  11.082
 3827SOL    HW113378   7.947   4.903  11.075
 3827SOL    HW213379   7.883   5.022  11.007
 3828SOL     OW13380   9.825   5.697   4.474
 3828SOL    HW113381   9.856   5.615   4.436
 3828SOL    HW213382   9.745   5.674   4.519
 3829SOL     OW13383  11.583   2.711  12.498
 3829SOL    HW113384  11.496   2.705  12.536
 3829SOL    HW213385  11.581   2.651  12.423
 3830SOL     OW13386  12.359  10.050   6.842
 3830SOL    HW113387  12.426   9.982   6.853
 3830SOL    HW213388  12.335  10.075   6.931
 3831SOL     OW13389   0.715   0.814   2.581
 3831SOL    HW113390   0.810   0.814   2.570
 3831SOL    HW213391   0.701   0.859   2.665
 3832SOL     OW13392   6.040   4.815  13.573
 3832SOL    HW113393   6.025   4.765  13.653
 3832SOL    HW213394   5.963   4.872  13.565
 3833SOL     OW13395   1.358  14.271  13.596
 3833SOL    HW113396   1.293  14.225  13.648
 3833SOL    HW213397   1.433  14.283  13.655
 3834SOL     OW13398  13.433   6.012  10.590
 3834SOL    HW113399  13.370   5.975  10.652
 3834SOL    HW213400  13.446   6.103  10.620
 3835SOL     OW13401  11.332   7.308   4.696
 3835SOL    HW113402  11.397   7.301   4.766
 3835SOL    HW213403  11.333   7.400   4.672
 3836SOL     OW13404  10.539   0.301   4.473
 3836SOL    HW113405  10.604   0.244   4.514
 3836SOL    HW213406  10.455   0.260   4.495
 3837SOL     OW13407  12.015   2.678  12.401
 3837SOL    HW113408  12.108   2.690  12.420
 3837SOL    HW213409  11.970   2.741  12.457
 3838SOL     OW13410  14.808   5.086   7.192
 3838SOL    HW113411  14.734   5.124   7.144
 3838SOL    HW213412  14.768   5.020   7.249
 3839SOL     OW13413  14.072   5.674  12.124
 3839SOL    HW113414  14.080   5.583  12.151
 3839SOL    HW213415  14.094   5.674  12.031
 3840SOL     OW13416   2.261   4.808   3.895
 3840SOL    HW113417   2.309   4.793   3.814
 3840SOL    HW213418   2.307   4.880   3.938
 3841SOL     OW13419   3.782   7.248   6.990
 3841SOL    HW113420   3.829   7.221   6.912
 3841SOL    HW213421   3.738   7.329   6.965
 3842SOL     OW13422   5.841  11.061   8.474
 3842SOL    HW113423   5.870  11.055   8.383
 3842SOL    HW213424   5.921  11.061   8.526
 3843SOL     OW13425  10.677  10.545   0.791
 3843SOL    HW113426  10.588  10.512   0.778
 3843SOL    HW213427  10.733  10.470   0.776
 3844SOL     OW13428  13.629   5.936   1.163
 3844SOL    HW113429  13.655   5.854   1.205
 3844SOL    HW213430  13.535   5.926   1.146
 3845SOL     OW13431   2.759   5.200   3.552
 3845SOL    HW113432   2.751   5.225   3.644
 3845SOL    HW213433   2.796   5.111   3.554
 3846SOL     OW13434  10.137   1.624  13.668
 3846SOL    HW113435  10.203   1.585  13.612
 3846SOL    HW213436  10.174   1.618  13.756
 3847SOL     OW13437   1.319   3.401  13.882
 3847SOL    HW113438   1.241   3.360  13.919
 3847SOL    HW213439   1.301   3.405  13.788
 3848SOL     OW13440  12.553  11.437   6.577
 3848SOL    HW113441  12.568  11.412   6.486
 3848SOL    HW213442  12.512  11.360   6.617
 3849SOL     OW13443   7.326   5.791   9.393
 3849SOL    HW113444   7.245   5.827   9.358
 3849SOL    HW213445   7.385   5.787   9.318
 3850SOL     OW13446   1.500  12.586   7.302
 3850SOL    HW113447   1.475  12.587   7.395
 3850SOL    HW213448   1.595  12.573   7.303
 3851SOL     OW13449  13.655   9.839   7.527
 3851SOL    HW113450  13.595   9.771   7.558
 3851SOL    HW213451  13.692   9.876   7.607
 3852SOL     OW13452  11.048  14.374   6.423
 3852SOL    HW113453  10.991  14.301   6.399
 3852SOL    HW213454  11.131  14.333   6.447
 3853SOL     OW13455   4.016   2.763  10.959
 3853SOL    HW113456   3.997   2.754  10.866
 3853SOL    HW213457   4.104   2.727  10.969
 3854SOL     OW13458   7.416   8.866  14.062
 3854SOL    HW113459   7.460   8.851  14.146
 3854SOL    HW213460   7.398   8.960  14.060
 3855SOL     OW13461   0.141   2.147   3.952
 3855SOL    HW113462   0.061   2.194   3.930
 3855SOL    HW213463   0.117   2.091   4.025
 3856SOL     OW13464  10.509  14.298   1.499
 3856SOL    HW113465  10.447  14.230   1.473
 3856SOL    HW213466  10.540  14.335   1.417
 3857SOL     OW13467   0.895  13.935   5.606
 3857SOL    HW113468   0.847  14.013   5.633
 3857SOL    HW213469   0.922  13.894   5.689
 3858SOL     OW13470  13.884   2.647   4.628
 3858SOL    HW113471  13.797   2.631   4.592
 3858SOL    HW213472  13.921   2.560   4.642
 3859SOL     OW13473   5.564   4.500   4.852
 3859SOL    HW113474   5.556   4.582   4.802
 3859SOL    HW213475   5.657   4.494   4.872
 3860SOL     OW13476   1.794  10.220   9.225
 3860SOL    HW113477   1.859  10.150   9.234
 3860SOL    HW213478   1.749  10.223   9.309
 3861SOL     OW13479  14.764  14.311  10.550
 3861SOL    HW113480  14.788  14.399  10.579
 3861SOL    HW213481  14.837  14.283  10.496
 3862SOL     OW13482  13.208   0.989   1.117
 3862SOL    HW113483  13.284   1.043   1.095
 3862SOL    HW213484  13.217   0.912   1.061
 3863SOL     OW13485   0.709  12.047  12.817
 3863SOL    HW113486   0.726  12.109  12.888
 3863SOL    HW213487   0.731  11.962  12.855
 3864SOL     OW13488   8.755  14.738   5.857
 3864SOL    HW113489   8.758  14.833   5.842
 3864SOL    HW213490   8.738  14.701   5.770
 3865SOL     OW13491   9.426   5.682   8.638
 3865SOL    HW113492   9.367   5.607   8.634
 3865SOL    HW213493   9.402   5.728   8.718
 3866SOL     OW13494   4.525   2.662  13.613
 3866SOL    HW113495   4.520   2.622  13.700
 3866SOL    HW213496   4.433   2.677  13.589
 3867SOL     OW13497  12.969   1.263   5.777
 3867SOL    HW113498  12.917   1.184   5.760
 3867SOL    HW213499  13.027   1.271   5.702
 3868SOL     OW13500  13.916   5.677   3.327
 3868SOL    HW113501  13.993   5.719   3.364
 3868SOL    HW213502  13.858   5.662   3.402
 3869SOL     OW13503   3.830   6.895   2.445
 3869SOL    HW113504   3.796   6.935   2.365
 3869SOL    HW213505   3.778   6.815   2.456
 3870SOL     OW13506   7.970   9.699  12.551
 3870SOL    HW113507   8.001   9.788  12.566
 3870SOL    HW213508   7.950   9.665  12.638
 3871SOL     OW13509   0.067   8.838   3.639
 3871SOL    HW113510   0.076   8.929   3.612
 3871SOL    HW213511   0.054   8.789   3.558
 3872SOL     OW13512  11.578   4.385   2.234
 3872SOL    HW113513  11.572   4.463   2.289
 3872SOL    HW213514  11.666   4.352   2.249
 3873SOL     OW13515   6.173   3.555  11.936
 3873SOL    HW113516   6.125   3.585  12.014
 3873SOL    HW213517   6.265   3.570  11.958
 3874SOL     OW13518   6.542  14.288   7.722
 3874SOL    HW113519   6.530  14.347   7.648
 3874SOL    HW213520   6.458  14.288   7.767
 3875SOL     OW13521   0.312   2.543   6.531
 3875SOL    HW113522   0.323   2.616   6.470
 3875SOL    HW213523   0.274   2.582   6.609
 3876SOL     OW13524   9.216   3.912  12.457
 3876SOL    HW113525   9.269   3.907  12.536
 3876SOL    HW213526   9.138   3.961  12.483
 3877SOL     OW13527   6.192   7.661  13.784
 3877SOL    HW113528   6.214   7.568  13.794
 3877SOL    HW213529   6.232   7.686  13.700
 3878SOL     OW13530   0.629  14.538   0.500
 3878SOL    HW113531   0.696  14.605   0.483
 3878SOL    HW213532   0.643  14.514   0.592
 3879SOL     OW13533   9.631  13.734   1.528
 3879SOL    HW113534   9.652  13.777   1.446
 3879SOL    HW213535   9.697  13.665   1.537
 3880SOL     OW13536   8.087   9.666  10.079
 3880SOL    HW113537   8.104   9.742  10.135
 3880SOL    HW213538   8.051   9.703   9.998
 3881SOL     OW13539   5.292   2.426  10.581
 3881SOL    HW113540   5.329   2.443  10.494
 3881SOL    HW213541   5.348   2.477  10.641
 3882SOL     OW13542   6.797  10.217   0.204
 3882SOL    HW113543   6.792  10.296   0.150
 3882SOL    HW213544   6.815  10.147   0.142
 3883SOL     OW13545   7.386  14.851  11.219
 3883SOL    HW113546   7.428   0.039  11.167
 3883SOL    HW213547   7.458  14.792  11.242
 3884SOL     OW13548  12.818   4.135  12.324
 3884SOL    HW113549  12.782   4.190  12.254
 3884SOL    HW213550  12.899   4.099  12.287
 3885SOL     OW13551   8.846   6.993   1.402
 3885SOL    HW113552   8.769   7.049   1.413
 3885SOL    HW213553   8.871   7.006   1.310
 3886SOL     OW13554  13.889   1.259   7.005
 3886SOL    HW113555  13.859   1.214   6.927
 3886SOL    HW213556  13.977   1.291   6.982
 3887SOL     OW13557  13.481   3.928  10.749
 3887SOL    HW113558  13.460   3.970  10.833
 3887SOL    HW213559  13.564   3.968  10.723
 3888SOL     OW13560   4.387  14.576  10.993
 3888SOL    HW113561   4.356  14.639  10.928
 3888SOL    HW213562   4.310  14.523  11.014
 3889SOL     OW13563   2.176   9.908   9.771
 3889SOL    HW113564   2.178   9.962   9.692
 3889SOL    HW213565   2.190   9.818   9.739
 3890SOL     OW13566   5.799   1.094   2.998
 3890SOL    HW113567   5.874   1.118   3.051
 3890SOL    HW213568   5.821   1.124   2.910
 3891SOL     OW13569   5.374   0.684  13.338
 3891SOL    HW113570   5.451   0.729  13.303
 3891SOL    HW213571   5.392   0.676  13.432
 3892SOL     OW13572   1.907   2.161   9.612
 3892SOL    HW113573   1.879   2.094   9.675
 3892SOL    HW213574   1.876   2.128   9.527
 3893SOL     OW13575   5.427  14.285   6.994
 3893SOL    HW113576   5.509  14.298   6.947
 3893SOL    HW213577   5.382  14.370   6.987
 3894SOL     OW13578   9.871   5.725   7.203
 3894SOL    HW113579   9.934   5.702   7.134
 3894SOL    HW213580   9.910   5.689   7.283
 3895SOL     OW13581   3.793   9.574   1.975
 3895SOL    HW113582   3.820   9.486   2.003
 3895SOL    HW213583   3.785   9.568   1.880
 3896SOL     OW13584   9.339   3.946   9.557
 3896SOL    HW113585   9.416   3.983   9.600
 3896SOL    HW213586   9.275   4.017   9.558
 3897SOL     OW13587   1.307  11.104  11.284
 3897SOL    HW113588   1.393  11.143  11.299
 3897SOL    HW213589   1.304  11.030  11.344
 3898SOL     OW13590  13.021  11.179  10.624
 3898SOL    HW113591  13.036  11.261  10.672
 3898SOL    HW213592  12.927  11.180  10.604
 3899SOL     OW13593   3.805   2.677  14.216
 3899SOL    HW113594   3.758   2.637  14.289
 3899SOL    HW213595   3.814   2.607  14.152
 3900SOL     OW13596   5.405   0.562  10.429
 3900SOL    HW113597   5.325   0.581  10.477
 3900SOL    HW213598   5.474   0.566  10.496
 3901SOL     OW13599   9.528  13.575   4.250
 3901SOL    HW113600   9.495  13.488   4.275
 3901SOL    HW213601   9.483  13.595   4.168
 3902SOL     OW13602   6.842   2.545   5.292
 3902SOL    HW113603   6.863   2.454   5.314
 3902SOL    HW213604   6.801   2.580   5.372
 3903SOL     OW13605   2.622   0.334   2.133
 3903SOL    HW113606   2.691   0.268   2.121
 3903SOL    HW213607   2.648   0.407   2.078
 3904SOL     OW13608   9.117  13.706   5.726
 3904SOL    HW113609   9.024  13.695   5.744
 3904SOL    HW213610   9.160  13.633   5.770
 3905SOL     OW13611  10.261  11.805  10.024
 3905SOL    HW113612  10.173  11.813   9.987
 3905SOL    HW213613  10.319  11.816   9.949
 3906SOL     OW13614   0.572   8.953   4.221
 3906SOL    HW113615   0.646   8.905   4.184
 3906SOL    HW213616   0.497   8.895   4.208
 3907SOL     OW13617  14.268   1.251  13.464
 3907SOL    HW113618  14.293   1.213  13.380
 3907SOL    HW213619  14.173   1.264  13.457
 3908SOL     OW13620  10.689   1.123  10.781
 3908SOL    HW113621  10.602   1.088  10.797
 3908SOL    HW213622  10.674   1.209  10.741
 3909SOL     OW13623   6.086  11.939   6.434
 3909SOL    HW113624   6.068  11.969   6.523
 3909SOL    HW213625   6.025  11.988   6.379
 3910SOL     OW13626   4.773  11.790  14.537
 3910SOL    HW113627   4.758  11.857  14.471
 3910SOL    HW213628   4.720  11.817  14.612
 3911SOL     OW13629   5.395   1.902   3.275
 3911SOL    HW113630   5.478   1.856   3.287
 3911SOL    HW213631   5.357   1.861   3.197
 3912SOL     OW13632  13.385  14.598  12.378
 3912SOL    HW113633  13.328  14.662  12.420
 3912SOL    HW213634  13.433  14.558  12.451
 3913SOL     OW13635   9.185  13.881   9.207
 3913SOL    HW113636   9.089  13.883   9.207
 3913SOL    HW213637   9.207  13.800   9.162
 3914SOL     OW13638  11.490   1.041   1.970
 3914SOL    HW113639  11.483   1.133   1.995
 3914SOL    HW213640  11.507   1.042   1.876
 3915SOL     OW13641  11.743  13.559   8.217
 3915SOL    HW113642  11.752  13.572   8.122
 3915SOL    HW213643  11.669  13.615   8.241
 3916SOL     OW13644   0.301  11.226  10.057
 3916SOL    HW113645   0.298  11.239   9.962
 3916SOL    HW213646   0.347  11.303  10.091
 3917SOL     OW13647   6.266   1.152   6.533
 3917SOL    HW113648   6.348   1.192   6.504
 3917SOL    HW213649   6.209   1.154   6.456
 3918SOL     OW13650   9.607   8.556  14.537
 3918SOL    HW113651   9.548   8.562  14.462
 3918SOL    HW213652   9.550   8.557  14.614
 3919SOL     OW13653   4.970  12.400   7.852
 3919SOL    HW113654   4.926  12.483   7.832
 3919SOL    HW213655   4.958  12.347   7.773
 3920SOL     OW13656   3.904   1.259   6.707
 3920SOL    HW113657   3.993   1.280   6.732
 3920SOL    HW213658   3.863   1.227   6.787
 3921SOL     OW13659   6.515  13.291  11.218
 3921SOL    HW113660   6.578  13.289  11.146
 3921SOL    HW213661   6.435  13.327  11.179
 3922SOL     OW13662   0.392   6.131  11.864
 3922SOL    HW113663   0.385   6.039  11.841
 3922SOL    HW213664   0.475   6.138  11.910
 3923SOL     OW13665   8.916   0.998   0.428
 3923SOL    HW113666   8.822   0.998   0.447
 3923SOL    HW213667   8.953   0.936   0.490
 3924SOL     OW13668  11.138   5.480   0.048
 3924SOL    HW113669  11.096   5.471   0.133
 3924SOL    HW213670  11.065   5.481  14.868
 3925SOL     OW13671  13.585  10.885   9.772
 3925SOL    HW113672  13.622  10.927   9.850
 3925SOL    HW213673  13.498  10.856   9.799
 3926SOL     OW13674  13.358   9.404  13.209
 3926SOL    HW113675  13.399   9.466  13.269
 3926SOL    HW213676  13.278   9.448  13.180
 3927SOL     OW13677   0.185   6.309   0.526
 3927SOL    HW113678   0.132   6.235   0.556
 3927SOL    HW213679   0.273   6.273   0.516
 3928SOL     OW13680   5.569   3.360  12.059
 3928SOL    HW113681   5.518   3.292  12.103
 3928SOL    HW213682   5.504   3.412  12.012
 3929SOL     OW13683  14.617   3.205   0.717
 3929SOL    HW113684  14.581   3.128   0.673
 3929SOL    HW213685  14.711   3.186   0.726
 3930SOL     OW13686   6.970  14.218   9.953
 3930SOL    HW113687   7.045  14.277   9.955
 3930SOL    HW213688   6.957  14.198   9.861
 3931SOL     OW13689   1.848   1.217  14.545
 3931SOL    HW113690   1.808   1.303  14.534
 3931SOL    HW213691   1.863   1.209  14.639
 3932SOL     OW13692   9.397   3.939  12.826
 3932SOL    HW113693   9.379   4.009  12.889
 3932SOL    HW213694   9.397   3.983  12.741
 3933SOL     OW13695   9.776   3.503   1.943
 3933SOL    HW113696   9.799   3.582   1.992
 3933SOL    HW213697   9.832   3.434   1.980
 3934SOL     OW13698   9.053   4.618   5.174
 3934SOL    HW113699   9.084   4.568   5.250
 3934SOL    HW213700   9.076   4.709   5.194
 3935SOL     OW13701   7.261   5.740   4.641
 3935SOL    HW113702   7.255   5.663   4.585
 3935SOL    HW213703   7.175   5.781   4.636
 3936SOL     OW13704   8.530   9.707  10.729
 3936SOL    HW113705   8.571   9.775  10.782
 3936SOL    HW213706   8.588   9.631  10.738
 3937SOL     OW13707   4.770   6.700  14.744
 3937SOL    HW113708   4.732   6.716  14.658
 3937SOL    HW213709   4.865   6.705  14.730
 3938SOL     OW13710   1.459  10.666  12.746
 3938SOL    HW113711   1.494  10.577  12.742
 3938SOL    HW213712   1.523  10.715  12.796
 3939SOL     OW13713   0.373   6.736  10.539
 3939SOL    HW113714   0.328   6.721  10.455
 3939SOL    HW213715   0.464   6.711  10.522
 3940SOL     OW13716   8.395   9.396   2.361
 3940SOL    HW113717   8.299   9.402   2.364
 3940SOL    HW213718   8.424   9.452   2.433
 3941SOL     OW13719   7.746   2.984  10.733
 3941SOL    HW113720   7.761   2.900  10.777
 3941SOL    HW213721   7.691   2.964  10.658
 3942SOL     OW13722   2.474  14.828   8.494
 3942SOL    HW113723   2.478  14.777   8.413
 3942SOL    HW213724   2.393  14.878   8.488
 3943SOL     OW13725   8.012  12.950  13.742
 3943SOL    HW113726   7.938  12.900  13.708
 3943SOL    HW213727   7.982  13.041  13.743
 3944SOL     OW13728   1.907  12.726   3.461
 3944SOL    HW113729   1.811  12.727   3.461
 3944SOL    HW213730   1.931  12.688   3.376
 3945SOL     OW13731   0.378   7.725  13.220
 3945SOL    HW113732   0.448   7.776  13.180
 3945SOL    HW213733   0.357   7.772  13.301
 3946SOL     OW13734   1.996   4.057   7.945
 3946SOL    HW113735   2.001   4.030   8.037
 3946SOL    HW213736   2.059   4.129   7.937
 3947SOL     OW13737   3.888   1.785  14.627
 3947SOL    HW113738   3.884   1.817  14.717
 3947SOL    HW213739   3.808   1.819  14.585
 3948SOL     OW13740   4.835   6.179   3.773
 3948SOL    HW113741   4.805   6.121   3.842
 3948SOL    HW213742   4.755   6.211   3.732
 3949SOL     OW13743   0.965   8.207   8.587
 3949SOL    HW113744   1.047   8.227   8.633
 3949SOL    HW213745   0.974   8.250   8.502
 3950SOL     OW13746  12.859  14.733  11.666
 3950SOL    HW113747  12.798  14.724  11.593
 3950SOL    HW213748  12.868  14.828  11.677
 3951SOL     OW13749   6.552   5.519   3.559
 3951SOL    HW113750   6.584   5.492   3.645
 3951SOL    HW213751   6.550   5.615   3.563
 3952SOL     OW13752  10.193   5.687   6.743
 3952SOL    HW113753  10.262   5.675   6.678
 3952SOL    HW213754  10.238   5.716   6.822
 3953SOL     OW13755  12.197   0.668   2.190
 3953SOL    HW113756  12.289   0.660   2.166
 3953SOL    HW213757  12.174   0.758   2.168
 3954SOL     OW13758   5.367   1.950   3.547
 3954SOL    HW113759   5.377   1.866   3.593
 3954SOL    HW213760   5.375   1.928   3.454
 3955SOL     OW13761  10.953   1.117  14.592
 3955SOL    HW113762  10.996   1.202  14.583
 3955SOL    HW213763  10.889   1.115  14.522
 3956SOL     OW13764   5.877  12.674  14.679
 3956SOL    HW113765   5.875  12.603  14.615
 3956SOL    HW213766   5.838  12.748  14.633
 3957SOL     OW13767  13.523   0.202  11.863
 3957SOL    HW113768  13.565   0.192  11.949
 3957SOL    HW213769  13.488   0.115  11.844
 3958SOL     OW13770  12.401   6.507  11.893
 3958SOL    HW113771  12.397   6.528  11.800
 3958SOL    HW213772  12.394   6.592  11.937
 3959SOL     OW13773   7.292   5.920   6.396
 3959SOL    HW113774   7.366   5.978   6.376
 3959SOL    HW213775   7.219   5.979   6.413
 3960SOL     OW13776   8.079   0.490   1.749
 3960SOL    HW113777   8.107   0.418   1.805
 3960SOL    HW213778   8.018   0.451   1.686
 3961SOL     OW13779   9.832   5.628   7.928
 3961SOL    HW113780   9.858   5.719   7.912
 3961SOL    HW213781   9.834   5.587   7.842
 3962SOL     OW13782   6.697   4.390   6.165
 3962SOL    HW113783   6.691   4.329   6.238
 3962SOL    HW213784   6.764   4.352   6.107
 3963SOL     OW13785   9.430   4.526   8.857
 3963SOL    HW113786   9.490   4.474   8.803
 3963SOL    HW213787   9.434   4.486   8.943
 3964SOL     OW13788  14.180  14.837   9.635
 3964SOL    HW113789  14.177  14.788   9.717
 3964SOL    HW213790  14.274  14.850   9.619
 3965SOL     OW13791  11.896  12.364   7.450
 3965SOL    HW113792  11.915  12.446   7.496
 3965SOL    HW213793  11.818  12.384   7.398
 3966SOL     OW13794   5.725   8.834   7.389
 3966SOL    HW113795   5.776   8.862   7.465
 3966SOL    HW213796   5.647   8.792   7.428
 3967SOL     OW13797   9.212   9.975   8.134
 3967SOL    HW113798   9.219   9.937   8.222
 3967SOL    HW213799   9.120   9.967   8.112
 3968SOL     OW13800   8.999  13.419  11.064
 3968SOL    HW113801   9.041  13.335  11.047
 3968SOL    HW213802   8.951  13.406  11.146
 3969SOL     OW13803  11.306  11.286   6.170
 3969SOL    HW113804  11.253  11.361   6.197
 3969SOL    HW213805  11.244  11.229   6.124
 3970SOL     OW13806   7.333   9.109   2.701
 3970SOL    HW113807   7.428   9.110   2.700
 3970SOL    HW213808   7.310   9.026   2.742
 3971SOL     OW13809   7.627  11.402   5.192
 3971SOL    HW113810   7.611  11.314   5.227
 3971SOL    HW213811   7.675  11.388   5.111
 3972SOL     OW13812  11.856   3.365  11.195
 3972SOL    HW113813  11.787   3.365  11.260
 3972SOL    HW213814  11.810   3.369  11.111
 3973SOL     OW13815   9.926  13.330  10.544
 3973SOL    HW113816   9.850  13.283  10.509
 3973SOL    HW213817   9.918  13.322  10.639
 3974SOL     OW13818   9.143   6.441  14.164
 3974SOL    HW113819   9.130   6.373  14.231
 3974SOL    HW213820   9.071   6.502  14.178
 3975SOL     OW13821   9.535   2.851   6.132
 3975SOL    HW113822   9.627   2.876   6.129
 3975SOL    HW213823   9.499   2.900   6.206
 3976SOL     OW13824   9.617   0.601   3.157
 3976SOL    HW113825   9.605   0.673   3.220
 3976SOL    HW213826   9.677   0.637   3.092
 3977SOL     OW13827  10.687   2.278   0.520
 3977SOL    HW113828  10.753   2.332   0.478
 3977SOL    HW213829  10.717   2.188   0.506
 3978SOL     OW13830  11.031  11.948  13.759
 3978SOL    HW113831  10.950  11.910  13.791
 3978SOL    HW213832  11.066  11.996  13.834
 3979SOL     OW13833   1.738  12.485  10.067
 3979SOL    HW113834   1.834  12.485  10.069
 3979SOL    HW213835   1.713  12.556  10.126
 3980SOL     OW13836  12.212   7.388  14.361
 3980SOL    HW113837  12.147   7.424  14.300
 3980SOL    HW213838  12.194   7.294  14.362
 3981SOL     OW13839  14.754   2.599   9.136
 3981SOL    HW113840  14.764   2.666   9.204
 3981SOL    HW213841  14.810   2.629   9.065
 3982SOL     OW13842  14.691   0.540  10.054
 3982SOL    HW113843  14.744   0.477  10.004
 3982SOL    HW213844  14.641   0.486  10.114
 3983SOL     OW13845  13.664  11.325   1.515
 3983SOL    HW113846  13.744  11.275   1.499
 3983SOL    HW213847  13.656  11.327   1.611
 3984SOL     OW13848  10.618   3.518  11.266
 3984SOL    HW113849  10.567   3.437  11.260
 3984SOL    HW213850  10.612   3.557  11.179
 3985SOL     OW13851  11.793   1.086  12.920
 3985SOL    HW113852  11.753   1.011  12.875
 3985SOL    HW213853  11.732   1.158  12.904
 3986SOL     OW13854   1.698  14.486  11.153
 3986SOL    HW113855   1.723  14.555  11.216
 3986SOL    HW213856   1.645  14.425  11.205
 3987SOL     OW13857   6.337   1.318  12.960
 3987SOL    HW113858   6.340   1.281  13.048
 3987SOL    HW213859   6.423   1.359  12.948
 3988SOL     OW13860  14.663  10.494  13.673
 3988SOL    HW113861  14.683  10.426  13.609
 3988SOL    HW213862  14.568  10.490  13.684
 3989SOL     OW13863   6.143   2.067   9.921
 3989SOL    HW113864   6.130   2.038  10.011
 3989SOL    HW213865   6.066   2.036   9.874
 3990SOL     OW13866  10.977   6.712   2.062
 3990SOL    HW113867  11.033   6.760   2.123
 3990SOL    HW213868  10.991   6.620   2.084
 3991SOL     OW13869   8.716   7.182   7.227
 3991SOL    HW113870   8.770   7.244   7.276
 3991SOL    HW213871   8.656   7.237   7.176
 3992SOL     OW13872   4.468   2.213   8.155
 3992SOL    HW113873   4.419   2.137   8.187
 3992SOL    HW213874   4.468   2.203   8.060
 3993SOL     OW13875  12.922   5.482  11.567
 3993SOL    HW113876  12.979   5.555  11.543
 3993SOL    HW213877  12.849   5.523  11.614
 3994SOL     OW13878   7.784  13.031  12.678
 3994SOL    HW113879   7.853  13.022  12.612
 3994SOL    HW213880   7.831  13.025  12.761
 3995SOL     OW13881   5.182   9.574   3.304
 3995SOL    HW113882   5.144   9.545   3.387
 3995SOL    HW213883   5.207   9.665   3.320
 3996SOL     OW13884   9.744   3.928   5.568
 3996SOL    HW113885   9.811   3.908   5.632
 3996SOL    HW213886   9.763   3.871   5.494
 3997SOL     OW13887  14.196  12.308   4.068
 3997SOL    HW113888  14.138  12.319   3.993
 3997SOL    HW213889  14.138  12.317   4.144
 3998SOL     OW13890  14.154  12.067   9.151
 3998SOL    HW113891  14.107  12.131   9.204
 3998SOL    HW213892  14.218  12.028   9.212
 3999SOL     OW13893   2.853   6.738  10.037
 3999SOL    HW113894   2.798   6.805   9.996
 3999SOL    HW213895   2.916   6.713   9.969
 4000SOL     OW13896  10.977  14.688   0.869
 4000SOL    HW113897  10.992  14.690   0.964
 4000SOL    HW213898  10.887  14.657   0.860
 4001SOL     OW13899   6.180   5.154  13.332
 4001SOL    HW113900   6.113   5.186  13.272
 4001SOL    HW213901   6.248   5.222  13.329
 4002SOL     OW13902   8.206   3.314  13.131
 4002SOL    HW113903   8.163   3.324  13.046
 4002SOL    HW213904   8.219   3.404  13.161
 4003SOL     OW13905   6.881   3.982  10.604
 4003SOL    HW113906   6.875   3.889  10.581
 4003SOL    HW213907   6.950   4.016  10.547
 4004SOL     OW13908   5.650  13.230   7.610
 4004SOL    HW113909   5.704  13.308   7.619
 4004SOL    HW213910   5.712  13.159   7.592
 4005SOL     OW13911   8.708  10.689  13.010
 4005SOL    HW113912   8.759  10.710  13.088
 4005SOL    HW213913   8.753  10.735  12.939
 4006SOL     OW13914  12.735   9.020   4.349
 4006SOL    HW113915  12.779   9.099   4.383
 4006SOL    HW213916  12.652   9.052   4.314
 4007SOL     OW13917   1.806   6.565   5.921
 4007SOL    HW113918   1.850   6.484   5.895
 4007SOL    HW213919   1.713   6.543   5.921
 4008SOL     OW13920  13.099   0.295  12.195
 4008SOL    HW113921  13.131   0.368  12.142
 4008SOL    HW213922  13.153   0.221  12.168
 4009SOL     OW13923   7.387  12.468   4.898
 4009SOL    HW113924   7.297  12.436   4.895
 4009SOL    HW213925   7.383  12.545   4.954
 4010SOL     OW13926   5.832  10.094   6.732
 4010SOL    HW113927   5.787  10.011   6.715
 4010SOL    HW213928   5.891  10.105   6.657
 4011SOL     OW13929  13.009   1.049   3.493
 4011SOL    HW113930  12.967   0.983   3.437
 4011SOL    HW213931  13.055   1.106   3.432
 4012SOL     OW13932   4.641  10.267   0.047
 4012SOL    HW113933   4.547  10.246   0.041
 4012SOL    HW213934   4.652  10.344  14.875
 4013SOL     OW13935  10.680  10.867   6.186
 4013SOL    HW113936  10.603  10.885   6.133
 4013SOL    HW213937  10.658  10.788   6.235
 4014SOL     OW13938   4.389   6.835  13.704
 4014SOL    HW113939   4.451   6.882  13.648
 4014SOL    HW213940   4.347   6.903  13.756
 4015SOL     OW13941  12.905   9.153   0.672
 4015SOL    HW113942  12.936   9.157   0.581
 4015SOL    HW213943  12.839   9.222   0.678
 4016SOL     OW13944   5.437   3.011  14.504
 4016SOL    HW113945   5.424   2.942  14.569
 4016SOL    HW213946   5.353   3.055  14.499
 4017SOL     OW13947   1.726   2.640   6.149
 4017SOL    HW113948   1.712   2.734   6.135
 4017SOL    HW213949   1.638   2.603   6.152
 4018SOL     OW13950  13.531   2.717   7.036
 4018SOL    HW113951  13.541   2.680   7.123
 4018SOL    HW213952  13.571   2.804   7.041
 4019SOL     OW13953  11.209  12.178  11.902
 4019SOL    HW113954  11.292  12.211  11.868
 4019SOL    HW213955  11.146  12.248  11.882
 4020SOL     OW13956   3.200   2.431  11.572
 4020SOL    HW113957   3.123   2.377  11.590
 4020SOL    HW213958   3.248   2.433  11.655
 4021SOL     OW13959  11.668  11.114  13.110
 4021SOL    HW113960  11.705  11.164  13.038
 4021SOL    HW213961  11.744  11.082  13.159
 4022SOL     OW13962  13.213  14.592   3.809
 4022SOL    HW113963  13.297  14.564   3.772
 4022SOL    HW213964  13.216  14.688   3.805
 4023SOL     OW13965  11.688   6.857  10.296
 4023SOL    HW113966  11.708   6.880  10.205
 4023SOL    HW213967  11.685   6.941  10.342
 4024SOL     OW13968   5.820  12.258  10.972
 4024SOL    HW113969   5.896  12.201  10.963
 4024SOL    HW213970   5.774  12.224  11.049
 4025SOL     OW13971  14.354   4.122   4.410
 4025SOL    HW113972  14.298   4.170   4.349
 4025SOL    HW213973  14.293   4.085   4.474
 4026SOL     OW13974  10.094   4.687   6.632
 4026SOL    HW113975  10.016   4.632   6.639
 4026SOL    HW213976  10.063   4.770   6.595
 4027SOL     OW13977   7.304   5.525  11.416
 4027SOL    HW113978   7.217   5.544  11.381
 4027SOL    HW213979   7.291   5.448  11.471
 4028SOL     OW13980   8.296   9.714   2.420
 4028SOL    HW113981   8.243   9.792   2.437
 4028SOL    HW213982   8.353   9.706   2.496
 4029SOL     OW13983   4.783  13.140  10.776
 4029SOL    HW113984   4.855  13.076  10.778
 4029SOL    HW213985   4.808  13.205  10.841
 4030SOL     OW13986   6.961   9.447   5.951
 4030SOL    HW113987   7.014   9.487   5.882
 4030SOL    HW213988   6.995   9.483   6.033
 4031SOL     OW13989  13.680  12.122   7.319
 4031SOL    HW113990  13.668  12.027   7.318
 4031SOL    HW213991  13.591  12.157   7.330
 4032SOL     OW13992  11.483  12.562  11.481
 4032SOL    HW113993  11.575  12.537  11.476
 4032SOL    HW213994  11.437  12.483  11.509
 4033SOL     OW13995   4.476   9.401   7.843
 4033SOL    HW113996   4.454   9.483   7.887
 4033SOL    HW213997   4.560   9.375   7.881
 4034SOL     OW13998   0.218   2.215  12.347
 4034SOL    HW113999   0.298   2.247  12.390
 4034SOL    HW214000   0.151   2.279  12.371
 4035SOL     OW14001  14.257   4.519   9.168
 4035SOL    HW114002  14.263   4.580   9.242
 4035SOL    HW214003  14.164   4.518   9.146
 4036SOL     OW14004  11.652  13.051  10.346
 4036SOL    HW114005  11.713  12.989  10.305
 4036SOL    HW214006  11.565  13.017  10.324
 4037SOL     OW14007   0.986   7.114   4.514
 4037SOL    HW114008   1.048   7.149   4.451
 4037SOL    HW214009   1.040   7.075   4.582
 4038SOL     OW14010  11.582   4.524  10.311
 4038SOL    HW114011  11.641   4.453  10.286
 4038SOL    HW214012  11.548   4.557  10.227
 4039SOL     OW14013   6.122  14.170  10.142
 4039SOL    HW114014   6.188  14.214  10.088
 4039SOL    HW214015   6.153  14.079  10.147
 4040SOL     OW14016   2.581   8.779   5.137
 4040SOL    HW114017   2.636   8.707   5.169
 4040SOL    HW214018   2.602   8.852   5.196
 4041SOL     OW14019  13.512   1.229   6.551
 4041SOL    HW114020  13.423   1.255   6.577
 4041SOL    HW214021  13.527   1.147   6.599
 4042SOL     OW14022  10.369   9.903   8.585
 4042SOL    HW114023  10.296   9.880   8.528
 4042SOL    HW214024  10.402   9.818   8.616
 4043SOL     OW14025   3.625   6.296   3.052
 4043SOL    HW114026   3.627   6.228   3.119
 4043SOL    HW214027   3.708   6.286   3.006
 4044SOL     OW14028   3.361  14.164   8.648
 4044SOL    HW114029   3.447  14.134   8.679
 4044SOL    HW214030   3.363  14.150   8.554
 4045SOL     OW14031   1.150   7.933  12.295
 4045SOL    HW114032   1.107   8.009  12.256
 4045SOL    HW214033   1.087   7.861  12.283
 4046SOL     OW14034   6.575  12.436   3.752
 4046SOL    HW114035   6.553  12.368   3.689
 4046SOL    HW214036   6.501  12.439   3.812
 4047SOL     OW14037   7.491   0.046  10.599
 4047SOL    HW114038   7.442   0.127  10.614
 4047SOL    HW214039   7.428  14.869  10.559
 4048SOL     OW14040   5.435  13.819   9.847
 4048SOL    HW114041   5.456  13.902   9.890
 4048SOL    HW214042   5.489  13.754   9.891
 4049SOL     OW14043  14.740  14.033   6.258
 4049SOL    HW114044  14.769  14.073   6.176
 4049SOL    HW214045  14.780  13.946   6.259
 4050SOL     OW14046   8.911   8.775  13.937
 4050SOL    HW114047   8.932   8.692  13.981
 4050SOL    HW214048   8.838   8.811  13.988
 4051SOL     OW14049   4.921   2.279   3.485
 4051SOL    HW114050   4.950   2.189   3.501
 4051SOL    HW214051   4.919   2.318   3.572
 4052SOL     OW14052   1.840   8.164   2.495
 4052SOL    HW114053   1.756   8.191   2.530
 4052SOL    HW214054   1.823   8.078   2.455
 4053SOL     OW14055   7.133  14.117   1.738
 4053SOL    HW114056   7.087  14.043   1.777
 4053SOL    HW214057   7.113  14.111   1.645
 4054SOL     OW14058   1.766   9.425   3.588
 4054SOL    HW114059   1.704   9.356   3.564
 4054SOL    HW214060   1.809   9.448   3.506
 4055SOL     OW14061   6.912  11.216   1.914
 4055SOL    HW114062   6.950  11.162   1.845
 4055SOL    HW214063   6.958  11.189   1.994
 4056SOL     OW14064   7.870   7.098   1.375
 4056SOL    HW114065   7.964   7.112   1.369
 4056SOL    HW214066   7.850   7.111   1.468
 4057SOL     OW14067   9.632  11.346  14.284
 4057SOL    HW114068   9.663  11.259  14.258
 4057SOL    HW214069   9.566  11.368  14.218
 4058SOL     OW14070   5.727   0.572   6.568
 4058SOL    HW114071   5.817   0.579   6.600
 4058SOL    HW214072   5.717   0.481   6.542
 4059SOL     OW14073  12.028  12.182   3.971
 4059SOL    HW114074  11.986  12.129   4.039
 4059SOL    HW214075  12.034  12.270   4.009
 4060SOL     OW14076  14.267  12.374   0.619
 4060SOL    HW114077  14.182  12.360   0.660
 4060SOL    HW214078  14.253  12.356   0.526
 4061SOL     OW14079   3.454  14.118   6.389
 4061SOL    HW114080   3.455  14.069   6.307
 4061SOL    HW214081   3.362  14.142   6.402
 4062SOL     OW14082  13.256   0.419   0.519
 4062SOL    HW114083  13.242   0.325   0.504
 4062SOL    HW214084  13.335   0.423   0.573
 4063SOL     OW14085  10.793   7.335  14.176
 4063SOL    HW114086  10.713   7.285  14.194
 4063SOL    HW214087  10.802   7.331  14.080
 4064SOL     OW14088   0.437  12.405  12.785
 4064SOL    HW114089   0.363  12.427  12.728
 4064SOL    HW214090   0.456  12.487  12.832
 4065SOL     OW14091  13.139   4.342   4.383
 4065SOL    HW114092  13.173   4.281   4.448
 4065SOL    HW214093  13.048   4.356   4.408
 4066SOL     OW14094  11.342   2.717  11.953
 4066SOL    HW114095  11.436   2.698  11.953
 4066SOL    HW214096  11.336   2.812  11.955
 4067SOL     OW14097  12.994   5.839  11.255
 4067SOL    HW114098  12.969   5.931  11.251
 4067SOL    HW214099  12.923   5.793  11.210
 4068SOL     OW14100  13.302   1.957   0.001
 4068SOL    HW114101  13.382   1.905  14.875
 4068SOL    HW214102  13.331   2.039   0.040
 4069SOL     OW14103  10.672   8.761   3.360
 4069SOL    HW114104  10.737   8.811   3.409
 4069SOL    HW214105  10.624   8.827   3.309
 4070SOL     OW14106  13.286  12.817   5.499
 4070SOL    HW114107  13.343  12.891   5.480
 4070SOL    HW214108  13.223  12.850   5.562
 4071SOL     OW14109  13.731   9.737   3.990
 4071SOL    HW114110  13.666   9.801   4.018
 4071SOL    HW214111  13.687   9.653   3.999
 4072SOL     OW14112  11.483  12.646  13.158
 4072SOL    HW114113  11.433  12.564  13.161
 4072SOL    HW214114  11.575  12.619  13.157
 4073SOL     OW14115   1.439   3.039   0.651
 4073SOL    HW114116   1.511   3.068   0.707
 4073SOL    HW214117   1.469   3.058   0.562
 4074SOL     OW14118   1.752   6.428  12.880
 4074SOL    HW114119   1.823   6.420  12.943
 4074SOL    HW214120   1.715   6.515  12.897
 4075SOL     OW14121  14.587   1.401   4.402
 4075SOL    HW114122  14.498   1.395   4.367
 4075SOL    HW214123  14.590   1.335   4.472
 4076SOL     OW14124   7.016  13.018   7.195
 4076SOL    HW114125   7.002  12.947   7.132
 4076SOL    HW214126   7.079  12.984   7.258
 4077SOL     OW14127   8.838  10.861   2.382
 4077SOL    HW114128   8.835  10.947   2.340
 4077SOL    HW214129   8.805  10.876   2.470
 4078SOL     OW14130   1.392  11.870   7.970
 4078SOL    HW114131   1.371  11.784   8.007
 4078SOL    HW214132   1.355  11.933   8.032
 4079SOL     OW14133  10.952  11.428  11.612
 4079SOL    HW114134  10.912  11.406  11.528
 4079SOL    HW214135  10.935  11.351  11.667
 4080SOL     OW14136  11.003   4.021   4.639
 4080SOL    HW114137  11.047   4.047   4.720
 4080SOL    HW214138  11.042   3.936   4.617
 4081SOL     OW14139  12.474  14.215  14.700
 4081SOL    HW114140  12.450  14.201  14.792
 4081SOL    HW214141  12.390  14.210  14.653
 4082SOL     OW14142  13.647   3.502   0.739
 4082SOL    HW114143  13.558   3.528   0.716
 4082SOL    HW214144  13.698   3.583   0.734
 4083SOL     OW14145   3.552  10.569   4.968
 4083SOL    HW114146   3.523  10.481   4.993
 4083SOL    HW214147   3.644  10.558   4.947
 4084SOL     OW14148   0.182   5.195  14.790
 4084SOL    HW114149   0.091   5.175  14.772
 4084SOL    HW214150   0.213   5.241  14.711
 4085SOL     OW14151  12.953  13.083  13.256
 4085SOL    HW114152  12.904  13.078  13.339
 4085SOL    HW214153  12.922  13.008  13.206
 4086SOL     OW14154   9.133   2.485   0.424
 4086SOL    HW114155   9.118   2.436   0.343
 4086SOL    HW214156   9.077   2.562   0.416
 4087SOL     OW14157   8.728  10.444   3.907
 4087SOL    HW114158   8.730  10.506   3.834
 4087SOL    HW214159   8.639  10.452   3.942
 4088SOL     OW14160   1.308   8.836  10.213
 4088SOL    HW114161   1.326   8.783  10.136
 4088SOL    HW214162   1.354   8.791  10.284
 4089SOL     OW14163   9.461  14.107  13.362
 4089SOL    HW114164   9.400  14.171  13.399
 4089SOL    HW214165   9.430  14.023  13.397
 4090SOL     OW14166   4.207  13.268   4.879
 4090SOL    HW114167   4.244  13.353   4.858
 4090SOL    HW214168   4.134  13.286   4.938
 4091SOL     OW14169  14.322   5.731  11.503
 4091SOL    HW114170  14.245   5.776  11.538
 4091SOL    HW214171  14.289   5.680  11.429
 4092SOL     OW14172   7.113  13.483   8.565
 4092SOL    HW114173   7.140  13.392   8.550
 4092SOL    HW214174   7.123  13.525   8.480
 4093SOL     OW14175  10.863   7.954  14.481
 4093SOL    HW114176  10.791   7.968  14.419
 4093SOL    HW214177  10.833   7.883  14.537
 4094SOL     OW14178   1.172   3.816   6.811
 4094SOL    HW114179   1.267   3.807   6.810
 4094SOL    HW214180   1.140   3.726   6.821
 4095SOL     OW14181   5.288   3.448  12.292
 4095SOL    HW114182   5.255   3.505  12.362
 4095SOL    HW214183   5.329   3.508  12.230
 4096SOL     OW14184   9.931   3.209   8.075
 4096SOL    HW114185   9.918   3.115   8.065
 4096SOL    HW214186  10.013   3.217   8.123
 4097SOL     OW14187   8.584   1.844   7.516
 4097SOL    HW114188   8.517   1.884   7.460
 4097SOL    HW214189   8.553   1.862   7.606
 4098SOL     OW14190   1.903   0.703   1.980
 4098SOL    HW114191   1.980   0.726   2.032
 4098SOL    HW214192   1.938   0.669   1.898
 4099SOL     OW14193   7.859   0.185   0.013
 4099SOL    HW114194   7.814   0.268  14.879
 4099SOL    HW214195   7.879   0.152  14.807
 4100SOL     OW14196  14.462   7.652   4.680
 4100SOL    HW114197  14.443   7.632   4.588
 4100SOL    HW214198  14.541   7.602   4.700
 4101SOL     OW14199   2.004   1.855   9.271
 4101SOL    HW114200   2.093   1.886   9.290
 4101SOL    HW214201   1.947   1.913   9.321
 4102SOL     OW14202   1.759  10.294   3.759
 4102SOL    HW114203   1.758  10.356   3.832
 4102SOL    HW214204   1.783  10.210   3.798
 4103SOL     OW14205   0.844  11.955   9.247
 4103SOL    HW114206   0.748  11.959   9.245
 4103SOL    HW214207   0.863  11.863   9.265
 4104SOL     OW14208   2.562   2.709  11.095
 4104SOL    HW114209   2.549   2.736  11.005
 4104SOL    HW214210   2.482   2.735  11.140
 4105SOL     OW14211  11.318   1.478  10.753
 4105SOL    HW114212  11.243   1.537  10.743
 4105SOL    HW214213  11.354   1.469  10.665
 4106SOL     OW14214  14.004   1.304  13.500
 4106SOL    HW114215  13.915   1.288  13.468
 4106SOL    HW214216  13.997   1.293  13.595
 4107SOL     OW14217  14.167   1.627   0.039
 4107SOL    HW114218  14.142   1.548  14.874
 4107SOL    HW214219  14.263   1.624   0.042
 4108SOL     OW14220  14.548  13.246  11.207
 4108SOL    HW114221  14.506  13.272  11.124
 4108SOL    HW214222  14.480  13.197  11.253
 4109SOL     OW14223  12.469   3.114   8.170
 4109SOL    HW114224  12.486   3.190   8.226
 4109SOL    HW214225  12.503   3.139   8.084
 4110SOL     OW14226   2.036  11.175  13.329
 4110SOL    HW114227   1.948  11.196  13.300
 4110SOL    HW214228   2.054  11.239  13.398
 4111SOL     OW14229  13.369   3.088  11.254
 4111SOL    HW114230  13.386   3.039  11.334
 4111SOL    HW214231  13.274   3.103  11.254
 4112SOL     OW14232   1.910   0.482  14.608
 4112SOL    HW114233   1.952   0.441  14.533
 4112SOL    HW214234   1.835   0.426  14.627
 4113SOL     OW14235  10.353  14.647  12.603
 4113SOL    HW114236  10.433  14.688  12.636
 4113SOL    HW214237  10.334  14.579  12.667
 4114SOL     OW14238   3.045   0.903   6.722
 4114SOL    HW114239   3.128   0.949   6.708
 4114SOL    HW214240   2.978   0.965   6.696
 4115SOL     OW14241  14.251   3.079  13.839
 4115SOL    HW114242  14.254   3.047  13.930
 4115SOL    HW214243  14.182   3.145  13.839
 4116SOL     OW14244   4.167   2.348   4.689
 4116SOL    HW114245   4.079   2.313   4.700
 4116SOL    HW214246   4.225   2.280   4.721
 4117SOL     OW14247   9.369   2.396   3.292
 4117SOL    HW114248   9.416   2.475   3.318
 4117SOL    HW214249   9.436   2.328   3.290
 4118SOL     OW14250  12.418   2.875   3.511
 4118SOL    HW114251  12.325   2.895   3.527
 4118SOL    HW214252  12.441   2.930   3.436
 4119SOL     OW14253   1.058   7.910   6.390
 4119SOL    HW114254   1.094   7.889   6.476
 4119SOL    HW214255   1.118   7.869   6.328
 4120SOL     OW14256   9.974  11.012   9.806
 4120SOL    HW114257   9.910  10.995   9.875
 4120SOL    HW214258  10.041  10.945   9.819
 4121SOL     OW14259   1.178   4.723  11.999
 4121SOL    HW114260   1.100   4.697  11.952
 4121SOL    HW214261   1.152   4.724  12.091
 4122SOL     OW14262   9.935  11.877  10.032
 4122SOL    HW114263   9.973  11.819  10.098
 4122SOL    HW214264  10.008  11.932  10.004
 4123SOL     OW14265   9.482   3.644   1.991
 4123SOL    HW114266   9.465   3.685   2.075
 4123SOL    HW214267   9.574   3.665   1.972
 4124SOL     OW14268   4.548   2.778   4.432
 4124SOL    HW114269   4.593   2.847   4.383
 4124SOL    HW214270   4.616   2.714   4.451
 4125SOL     OW14271   2.430   2.512  11.467
 4125SOL    HW114272   2.386   2.451  11.527
 4125SOL    HW214273   2.378   2.509  11.387
 4126SOL     OW14274   8.207   7.220   7.944
 4126SOL    HW114275   8.218   7.315   7.955
 4126SOL    HW214276   8.117   7.204   7.968
 4127SOL     OW14277  12.665  13.720   3.223
 4127SOL    HW114278  12.711  13.654   3.276
 4127SOL    HW214279  12.624  13.670   3.152
 4128SOL     OW14280   7.312  12.120   8.868
 4128SOL    HW114281   7.365  12.047   8.899
 4128SOL    HW214282   7.368  12.164   8.804
 4129SOL     OW14283   8.271  12.822   3.207
 4129SOL    HW114284   8.316  12.760   3.150
 4129SOL    HW214285   8.321  12.903   3.200
 4130SOL     OW14286   8.203  12.488   8.984
 4130SOL    HW114287   8.222  12.523   8.897
 4130SOL    HW214288   8.119  12.443   8.974
 4131SOL     OW14289  13.064   5.630   0.536
 4131SOL    HW114290  13.018   5.638   0.620
 4131SOL    HW214291  13.087   5.537   0.530
 4132SOL     OW14292   2.881   1.058  14.408
 4132SOL    HW114293   2.934   1.031  14.333
 4132SOL    HW214294   2.923   1.018  14.484
 4133SOL     OW14295   5.962   8.193   0.039
 4133SOL    HW114296   5.926   8.237   0.117
 4133SOL    HW214297   5.885   8.152  14.880
 4134SOL     OW14298  10.198   6.620   6.318
 4134SOL    HW114299  10.172   6.707   6.349
 4134SOL    HW214300  10.138   6.560   6.362
 4135SOL     OW14301   3.302  12.988   8.843
 4135SOL    HW114302   3.317  12.983   8.749
 4135SOL    HW214303   3.215  13.027   8.852
 4136SOL     OW14304   0.779   3.334  13.979
 4136SOL    HW114305   0.788   3.280  13.900
 4136SOL    HW214306   0.804   3.275  14.051
 4137SOL     OW14307   3.704  12.982   7.333
 4137SOL    HW114308   3.756  12.996   7.253
 4137SOL    HW214309   3.718  13.061   7.385
 4138SOL     OW14310   0.924  14.766  14.081
 4138SOL    HW114311   0.886  14.833  14.024
 4138SOL    HW214312   0.852  14.743  14.140
 4139SOL     OW14313  11.691   9.973   0.474
 4139SOL    HW114314  11.612  10.027   0.483
 4139SOL    HW214315  11.732  10.004   0.393
 4140SOL     OW14316   7.867  10.427  11.393
 4140SOL    HW114317   7.955  10.434  11.356
 4140SOL    HW214318   7.876  10.361  11.463
 4141SOL     OW14319  11.567  11.883   4.206
 4141SOL    HW114320  11.549  11.838   4.124
 4141SOL    HW214321  11.482  11.912   4.237
 4142SOL     OW14322   2.027   8.506   2.402
 4142SOL    HW114323   1.995   8.577   2.348
 4142SOL    HW214324   2.017   8.428   2.348
 4143SOL     OW14325   0.377   2.536   5.125
 4143SOL    HW114326   0.453   2.575   5.169
 4143SOL    HW214327   0.373   2.581   5.041
 4144SOL     OW14328   5.615   1.714   3.318
 4144SOL    HW114329   5.634   1.623   3.293
 4144SOL    HW214330   5.673   1.767   3.264
 4145SOL     OW14331  11.689   0.415   5.547
 4145SOL    HW114332  11.757   0.452   5.491
 4145SOL    HW214333  11.734   0.351   5.600
 4146SOL     OW14334   8.279  11.604   0.116
 4146SOL    HW114335   8.373  11.597   0.127
 4146SOL    HW214336   8.265  11.606   0.022
 4147SOL     OW14337  11.777   4.182  14.247
 4147SOL    HW114338  11.702   4.123  14.238
 4147SOL    HW214339  11.808   4.196  14.158
 4148SOL     OW14340  12.313  12.481   0.775
 4148SOL    HW114341  12.256  12.558   0.768
 4148SOL    HW214342  12.276  12.418   0.713
 4149SOL     OW14343   4.691   9.490  13.851
 4149SOL    HW114344   4.647   9.567  13.813
 4149SOL    HW214345   4.736   9.450  13.777
 4150SOL     OW14346   2.900  10.463   5.186
 4150SOL    HW114347   2.943  10.409   5.252
 4150SOL    HW214348   2.967  10.478   5.119
 4151SOL     OW14349   3.240   4.150   4.921
 4151SOL    HW114350   3.164   4.091   4.923
 4151SOL    HW214351   3.276   4.146   5.009
 4152SOL     OW14352  10.738   3.934   2.140
 4152SOL    HW114353  10.833   3.924   2.133
 4152SOL    HW214354  10.724   4.029   2.143
 4153SOL     OW14355   5.979   9.050   9.404
 4153SOL    HW114356   6.011   9.114   9.341
 4153SOL    HW214357   6.044   9.050   9.474
 4154SOL     OW14358  12.915   6.486   2.140
 4154SOL    HW114359  12.887   6.464   2.229
 4154SOL    HW214360  12.988   6.426   2.123
 4155SOL     OW14361   2.920   9.537   7.756
 4155SOL    HW114362   2.827   9.558   7.763
 4155SOL    HW214363   2.923   9.453   7.711
 4156SOL     OW14364   8.828   8.311   7.206
 4156SOL    HW114365   8.907   8.365   7.198
 4156SOL    HW214366   8.758   8.373   7.227
 4157SOL     OW14367   4.373   0.015  14.020
 4157SOL    HW114368   4.425   0.073  14.075
 4157SOL    HW214369   4.283   0.049  14.027
 4158SOL     OW14370   9.646   3.051   1.258
 4158SOL    HW114371   9.640   2.994   1.180
 4158SOL    HW214372   9.618   2.995   1.330
 4159SOL     OW14373   3.461   7.394   1.269
 4159SOL    HW114374   3.431   7.483   1.285
 4159SOL    HW214375   3.383   7.346   1.243
 4160SOL     OW14376   0.183  12.777  11.763
 4160SOL    HW114377   0.190  12.731  11.847
 4160SOL    HW214378   0.258  12.745  11.712
 4161SOL     OW14379   9.322  13.475  11.643
 4161SOL    HW114380   9.388  13.525  11.594
 4161SOL    HW214381   9.352  13.384  11.637
 4162SOL     OW14382  13.063   8.819   7.141
 4162SOL    HW114383  13.110   8.799   7.222
 4162SOL    HW214384  13.003   8.746   7.128
 4163SOL     OW14385  12.035   2.622   0.757
 4163SOL    HW114386  11.978   2.546   0.770
 4163SOL    HW214387  11.977   2.691   0.725
 4164SOL     OW14388   4.807   1.444  11.925
 4164SOL    HW114389   4.735   1.450  11.989
 4164SOL    HW214390   4.857   1.524  11.937
 4165SOL     OW14391   1.981   1.289  10.793
 4165SOL    HW114392   1.905   1.253  10.747
 4165SOL    HW214393   2.016   1.215  10.843
 4166SOL     OW14394  14.312   3.599  10.213
 4166SOL    HW114395  14.271   3.577  10.296
 4166SOL    HW214396  14.259   3.553  10.147
 4167SOL     OW14397  14.605   9.206   3.006
 4167SOL    HW114398  14.545   9.236   2.938
 4167SOL    HW214399  14.550   9.155   3.066
 4168SOL     OW14400   0.373   4.157   6.036
 4168SOL    HW114401   0.307   4.112   5.984
 4168SOL    HW214402   0.366   4.249   6.011
 4169SOL     OW14403  10.345  11.007  10.990
 4169SOL    HW114404  10.335  10.987  11.083
 4169SOL    HW214405  10.314  11.097  10.981
 4170SOL     OW14406  11.265   2.902  10.444
 4170SOL    HW114407  11.265   2.976  10.383
 4170SOL    HW214408  11.270   2.944  10.530
 4171SOL     OW14409  12.896   2.345  11.329
 4171SOL    HW114410  12.848   2.341  11.246
 4171SOL    HW214411  12.867   2.268  11.377
 4172SOL     OW14412   5.090   0.844  11.086
 4172SOL    HW114413   5.121   0.775  11.145
 4172SOL    HW214414   5.070   0.799  11.004
 4173SOL     OW14415   6.141  13.934  11.860
 4173SOL    HW114416   6.105  13.992  11.927
 4173SOL    HW214417   6.067  13.913  11.803
 4174SOL     OW14418   2.493   4.133  12.139
 4174SOL    HW114419   2.418   4.115  12.081
 4174SOL    HW214420   2.453   4.166  12.219
 4175SOL     OW14421   6.323   0.496   0.929
 4175SOL    HW114422   6.375   0.469   0.853
 4175SOL    HW214423   6.277   0.575   0.900
 4176SOL     OW14424  13.374   5.079   3.881
 4176SOL    HW114425  13.458   5.049   3.847
 4176SOL    HW214426  13.313   5.066   3.809
 4177SOL     OW14427   3.958  10.658   8.547
 4177SOL    HW114428   3.897  10.585   8.536
 4177SOL    HW214429   3.987  10.652   8.638
 4178SOL     OW14430   4.731   3.799   6.114
 4178SOL    HW114431   4.667   3.736   6.149
 4178SOL    HW214432   4.815   3.766   6.144
 4179SOL     OW14433   3.536   4.790  10.254
 4179SOL    HW114434   3.591   4.713  10.266
 4179SOL    HW214435   3.485   4.796  10.335
 4180SOL     OW14436   6.235   7.921   9.232
 4180SOL    HW114437   6.320   7.933   9.189
 4180SOL    HW214438   6.174   7.972   9.178
 4181SOL     OW14439   0.293  13.648   2.158
 4181SOL    HW114440   0.219  13.703   2.133
 4181SOL    HW214441   0.342  13.702   2.220
 4182SOL     OW14442   8.704  12.105   2.315
 4182SOL    HW114443   8.793  12.074   2.301
 4182SOL    HW214444   8.712  12.200   2.321
 4183SOL     OW14445   7.935   1.773  12.306
 4183SOL    HW114446   7.937   1.740  12.217
 4183SOL    HW214447   7.881   1.852  12.301
 4184SOL     OW14448   2.898   1.018   6.515
 4184SOL    HW114449   2.954   1.057   6.448
 4184SOL    HW214450   2.868   0.935   6.478
 4185SOL     OW14451  13.417  11.714   2.802
 4185SOL    HW114452  13.337  11.665   2.786
 4185SOL    HW214453  13.481  11.676   2.742
 4186SOL     OW14454   6.232   5.130  10.379
 4186SOL    HW114455   6.174   5.058  10.405
 4186SOL    HW214456   6.228   5.132  10.284
 4187SOL     OW14457   8.687   4.591  11.752
 4187SOL    HW114458   8.674   4.582  11.658
 4187SOL    HW214459   8.608   4.555  11.791
 4188SOL     OW14460   2.384  14.780   5.133
 4188SOL    HW114461   2.300  14.816   5.163
 4188SOL    HW214462   2.384  14.796   5.038
 4189SOL     OW14463   2.590   0.410   3.890
 4189SOL    HW114464   2.557   0.333   3.937
 4189SOL    HW214465   2.686   0.400   3.893
 4190SOL     OW14466   9.771  13.639  13.450
 4190SOL    HW114467   9.765  13.732  13.430
 4190SOL    HW214468   9.816  13.635  13.535
 4191SOL     OW14469   8.842  13.497   4.398
 4191SOL    HW114470   8.889  13.413   4.396
 4191SOL    HW214471   8.764  13.480   4.450
 4192SOL     OW14472  12.886   8.257   8.960
 4192SOL    HW114473  12.931   8.288   8.882
 4192SOL    HW214474  12.815   8.201   8.927
 4193SOL     OW14475  13.255   7.866   5.353
 4193SOL    HW114476  13.252   7.819   5.269
 4193SOL    HW214477  13.268   7.957   5.329
 4194SOL     OW14478  14.406  10.488  14.870
 4194SOL    HW114479  14.502  10.480  14.874
 4194SOL    HW214480  14.390  10.564  14.815
 4195SOL     OW14481  12.020   2.517  14.579
 4195SOL    HW114482  12.090   2.461  14.613
 4195SOL    HW214483  12.048   2.542  14.491
 4196SOL     OW14484  14.648   4.316   3.387
 4196SOL    HW114485  14.568   4.329   3.335
 4196SOL    HW214486  14.719   4.327   3.324
 4197SOL     OW14487  14.402   9.438  12.992
 4197SOL    HW114488  14.367   9.498  13.058
 4197SOL    HW214489  14.373   9.475  12.908
 4198SOL     OW14490   0.684   7.021   1.020
 4198SOL    HW114491   0.667   6.940   1.068
 4198SOL    HW214492   0.638   7.088   1.071
 4199SOL     OW14493  14.088   8.228   1.033
 4199SOL    HW114494  14.072   8.281   1.111
 4199SOL    HW214495  14.150   8.161   1.062
 4200SOL     OW14496  12.944   1.407   0.277
 4200SOL    HW114497  12.943   1.468   0.203
 4200SOL    HW214498  12.861   1.361   0.271
 4201SOL     OW14499   4.813  10.825   3.985
 4201SOL    HW114500   4.782  10.772   4.058
 4201SOL    HW214501   4.854  10.762   3.925
 4202SOL     OW14502   9.192  14.482   1.750
 4202SOL    HW114503   9.263  14.513   1.807
 4202SOL    HW214504   9.231  14.481   1.663
 4203SOL     OW14505  14.852   8.725  10.058
 4203SOL    HW114506  14.773   8.751  10.010
 4203SOL    HW214507  14.821   8.689  10.140
 4204SOL     OW14508  10.372   5.929   5.136
 4204SOL    HW114509  10.391   5.867   5.066
 4204SOL    HW214510  10.278   5.945   5.129
 4205SOL     OW14511   3.246   3.480  10.977
 4205SOL    HW114512   3.326   3.482  11.031
 4205SOL    HW214513   3.262   3.409  10.915
 4206SOL     OW14514   7.810  10.358   6.687
 4206SOL    HW114515   7.890  10.383   6.641
 4206SOL    HW214516   7.767  10.296   6.629
 4207SOL     OW14517   6.815  14.636   9.439
 4207SOL    HW114518   6.850  14.719   9.470
 4207SOL    HW214519   6.746  14.660   9.378
 4208SOL     OW14520   7.727   4.357  13.860
 4208SOL    HW114521   7.686   4.419  13.921
 4208SOL    HW214522   7.814   4.342  13.895
 4209SOL     OW14523   6.730   5.233   5.011
 4209SOL    HW114524   6.812   5.244   4.964
 4209SOL    HW214525   6.732   5.143   5.042
 4210SOL     OW14526   3.786   8.230  13.617
 4210SOL    HW114527   3.719   8.243  13.684
 4210SOL    HW214528   3.801   8.135  13.617
 4211SOL     OW14529   1.073   1.389  12.691
 4211SOL    HW114530   1.030   1.373  12.608
 4211SOL    HW214531   1.166   1.376  12.673
 4212SOL     OW14532  11.258   1.252   8.190
 4212SOL    HW114533  11.333   1.195   8.204
 4212SOL    HW214534  11.235   1.239   8.098
 4213SOL     OW14535   1.242  11.941  14.201
 4213SOL    HW114536   1.222  12.035  14.206
 4213SOL    HW214537   1.312  11.935  14.136
 4214SOL     OW14538   7.224   9.940   6.512
 4214SOL    HW114539   7.202   9.890   6.591
 4214SOL    HW214540   7.267   9.877   6.455
 4215SOL     OW14541   8.069   4.242   4.272
 4215SOL    HW114542   8.130   4.170   4.257
 4215SOL    HW214543   7.991   4.219   4.221
 4216SOL     OW14544   7.656   3.069   6.902
 4216SOL    HW114545   7.731   3.079   6.843
 4216SOL    HW214546   7.638   2.975   6.900
 4217SOL     OW14547   0.581   0.484   9.147
 4217SOL    HW114548   0.628   0.532   9.215
 4217SOL    HW214549   0.637   0.410   9.125
 4218SOL     OW14550  12.678  13.456   8.958
 4218SOL    HW114551  12.628  13.508   9.020
 4218SOL    HW214552  12.765  13.496   8.956
 4219SOL     OW14553   1.427   6.791   9.506
 4219SOL    HW114554   1.425   6.885   9.526
 4219SOL    HW214555   1.400   6.748   9.587
 4220SOL     OW14556   1.732  10.870   5.397
 4220SOL    HW114557   1.777  10.806   5.341
 4220SOL    HW214558   1.768  10.955   5.369
 4221SOL     OW14559   4.315   0.444  14.813
 4221SOL    HW114560   4.314   0.507  14.741
 4221SOL    HW214561   4.376   0.375  14.784
 4222SOL     OW14562   5.085  13.432   7.726
 4222SOL    HW114563   5.149  13.363   7.709
 4222SOL    HW214564   5.057  13.461   7.639
 4223SOL     OW14565   5.913   0.920   8.689
 4223SOL    HW114566   5.891   0.992   8.749
 4223SOL    HW214567   5.904   0.958   8.602
 4224SOL     OW14568   5.258   6.060   1.555
 4224SOL    HW114569   5.302   6.025   1.632
 4224SOL    HW214570   5.316   6.127   1.522
 4225SOL     OW14571   2.381   9.198   6.689
 4225SOL    HW114572   2.442   9.270   6.706
 4225SOL    HW214573   2.307   9.215   6.748
 4226SOL     OW14574   6.951  10.519   1.771
 4226SOL    HW114575   7.023  10.460   1.751
 4226SOL    HW214576   6.896  10.471   1.833
 4227SOL     OW14577  10.661   4.244   3.035
 4227SOL    HW114578  10.741   4.296   3.042
 4227SOL    HW214579  10.592   4.308   3.016
 4228SOL     OW14580  14.127   0.028   4.867
 4228SOL    HW114581  14.174  14.827   4.872
 4228SOL    HW214582  14.151   0.074   4.948
 4229SOL     OW14583   1.447  12.284   9.111
 4229SOL    HW114584   1.397  12.230   9.172
 4229SOL    HW214585   1.534  12.244   9.108
 4230SOL     OW14586   1.680  13.716   9.667
 4230SOL    HW114587   1.720  13.717   9.580
 4230SOL    HW214588   1.716  13.637   9.709
 4231SOL     OW14589   5.489   2.964   9.326
 4231SOL    HW114590   5.530   2.893   9.278
 4231SOL    HW214591   5.553   2.989   9.392
 4232SOL     OW14592   7.362  11.224   0.028
 4232SOL    HW114593   7.289  11.171  14.877
 4232SOL    HW214594   7.438  11.166   0.022
 4233SOL     OW14595   4.932   4.117   7.303
 4233SOL    HW114596   4.845   4.080   7.317
 4233SOL    HW214597   4.925   4.206   7.338
 4234SOL     OW14598   9.099   3.055   4.636
 4234SOL    HW114599   9.053   3.138   4.624
 4234SOL    HW214600   9.151   3.068   4.715
 4235SOL     OW14601   3.080   3.479   5.443
 4235SOL    HW114602   3.053   3.411   5.504
 4235SOL    HW214603   3.099   3.555   5.499
 4236SOL     OW14604   9.762   4.876   9.779
 4236SOL    HW114605   9.815   4.925   9.717
 4236SOL    HW214606   9.713   4.813   9.725
 4237SOL     OW14607  12.835   5.227   7.679
 4237SOL    HW114608  12.788   5.308   7.660
 4237SOL    HW214609  12.890   5.248   7.755
 4238SOL     OW14610   0.680   1.923  14.607
 4238SOL    HW114611   0.633   1.918  14.691
 4238SOL    HW214612   0.692   2.016  14.591
 4239SOL     OW14613   2.598   5.598   6.421
 4239SOL    HW114614   2.573   5.674   6.473
 4239SOL    HW214615   2.538   5.529   6.449
 4240SOL     OW14616   2.462   1.778   5.908
 4240SOL    HW114617   2.469   1.683   5.901
 4240SOL    HW214618   2.544   1.811   5.871
 4241SOL     OW14619  14.051   7.675   3.106
 4241SOL    HW114620  13.991   7.684   3.179
 4241SOL    HW214621  14.072   7.581   3.103
 4242SOL     OW14622   3.058   5.243  11.829
 4242SOL    HW114623   3.107   5.231  11.911
 4242SOL    HW214624   3.080   5.167  11.776
 4243SOL     OW14625   5.609   3.650  10.932
 4243SOL    HW114626   5.565   3.678  11.012
 4243SOL    HW214627   5.538   3.645  10.867
 4244SOL     OW14628  10.922  12.553   3.118
 4244SOL    HW114629  10.970  12.471   3.118
 4244SOL    HW214630  10.986  12.619   3.090
 4245SOL     OW14631   6.746   8.518   7.698
 4245SOL    HW114632   6.747   8.525   7.603
 4245SOL    HW214633   6.679   8.579   7.726
 4246SOL     OW14634   1.236   5.836  14.797
 4246SOL    HW114635   1.297   5.892  14.749
 4246SOL    HW214636   1.254   5.748  14.764
 4247SOL     OW14637  10.519  14.530   5.015
 4247SOL    HW114638  10.546  14.465   4.950
 4247SOL    HW214639  10.481  14.602   4.963
 4248SOL     OW14640   5.991  14.365   9.206
 4248SOL    HW114641   5.981  14.341   9.298
 4248SOL    HW214642   6.065  14.427   9.206
 4249SOL     OW14643  13.903  11.082   5.880
 4249SOL    HW114644  13.905  11.081   5.975
 4249SOL    HW214645  13.819  11.042   5.857
 4250SOL     OW14646  10.052   1.398   1.583
 4250SOL    HW114647  10.129   1.391   1.639
 4250SOL    HW214648   9.978   1.378   1.641
 4251SOL     OW14649   5.047   0.900   7.804
 4251SOL    HW114650   5.013   0.985   7.831
 4251SOL    HW214651   5.063   0.908   7.710
 4252SOL     OW14652   4.408   4.189   0.640
 4252SOL    HW114653   4.389   4.158   0.728
 4252SOL    HW214654   4.411   4.110   0.586
 4253SOL     OW14655  12.859   6.983   8.286
 4253SOL    HW114656  12.793   6.971   8.217
 4253SOL    HW214657  12.863   7.077   8.298
 4254SOL     OW14658  13.686  14.683   3.152
 4254SOL    HW114659  13.659  14.598   3.116
 4254SOL    HW214660  13.608  14.715   3.197
 4255SOL     OW14661   0.349  11.089   2.339
 4255SOL    HW114662   0.347  11.059   2.429
 4255SOL    HW214663   0.331  11.010   2.287
 4256SOL     OW14664   1.565   0.259   6.482
 4256SOL    HW114665   1.472   0.267   6.461
 4256SOL    HW214666   1.604   0.217   6.405
 4257SOL     OW14667  11.168  13.420   4.069
 4257SOL    HW114668  11.236  13.480   4.099
 4257SOL    HW214669  11.128  13.466   3.994
 4258SOL     OW14670  12.567  12.559   4.327
 4258SOL    HW114671  12.581  12.469   4.357
 4258SOL    HW214672  12.567  12.553   4.231
 4259SOL     OW14673  10.241  12.865  10.751
 4259SOL    HW114674  10.220  12.810  10.675
 4259SOL    HW214675  10.278  12.804  10.815
 4260SOL     OW14676  10.805  13.433   3.771
 4260SOL    HW114677  10.738  13.408   3.834
 4260SOL    HW214678  10.840  13.349   3.740
 4261SOL     OW14679   9.883   0.353   2.979
 4261SOL    HW114680   9.838   0.272   2.955
 4261SOL    HW214681   9.917   0.337   3.067
 4262SOL     OW14682  11.350   0.762  14.290
 4262SOL    HW114683  11.420   0.806  14.242
 4262SOL    HW214684  11.375   0.670  14.291
 4263SOL     OW14685   5.044   7.171   7.318
 4263SOL    HW114686   5.008   7.104   7.260
 4263SOL    HW214687   5.123   7.132   7.354
 4264SOL     OW14688  13.753  13.535   5.504
 4264SOL    HW114689  13.701  13.590   5.562
 4264SOL    HW214690  13.733  13.445   5.531
 4265SOL     OW14691   9.743   6.182   8.177
 4265SOL    HW114692   9.770   6.238   8.250
 4265SOL    HW214693   9.679   6.121   8.216
 4266SOL     OW14694   6.533   7.634   1.760
 4266SOL    HW114695   6.495   7.715   1.794
 4266SOL    HW214696   6.544   7.651   1.666
 4267SOL     OW14697   0.365   5.876   1.396
 4267SOL    HW114698   0.343   5.885   1.489
 4267SOL    HW214699   0.339   5.786   1.374
 4268SOL     OW14700   7.848  10.567   8.544
 4268SOL    HW114701   7.807  10.653   8.537
 4268SOL    HW214702   7.926  10.572   8.489
 4269SOL     OW14703   1.159   9.406  10.446
 4269SOL    HW114704   1.196   9.494  10.455
 4269SOL    HW214705   1.095   9.400  10.517
 4270SOL     OW14706   2.113  10.552   2.695
 4270SOL    HW114707   2.178  10.490   2.730
 4270SOL    HW214708   2.151  10.581   2.612
 4271SOL     OW14709  10.942   3.520   2.425
 4271SOL    HW114710  10.888   3.573   2.484
 4271SOL    HW214711  11.020   3.573   2.409
 4272SOL     OW14712  11.549   4.004  13.890
 4272SOL    HW114713  11.560   3.991  13.984
 4272SOL    HW214714  11.524   3.917  13.857
 4273SOL     OW14715  12.527   3.866  10.603
 4273SOL    HW114716  12.617   3.881  10.576
 4273SOL    HW214717  12.534   3.830  10.692
 4274SOL     OW14718  13.336   2.777   5.545
 4274SOL    HW114719  13.272   2.838   5.508
 4274SOL    HW214720  13.339   2.705   5.483
 4275SOL     OW14721  14.052  12.294  12.756
 4275SOL    HW114722  13.982  12.238  12.788
 4275SOL    HW214723  14.091  12.332  12.835
 4276SOL     OW14724   1.368  13.670  11.794
 4276SOL    HW114725   1.456  13.634  11.785
 4276SOL    HW214726   1.372  13.755  11.750
 4277SOL     OW14727   0.055  10.678   0.336
 4277SOL    HW114728  14.881  10.646   0.265
 4277SOL    HW214729   0.120  10.733   0.292
 4278SOL     OW14730   9.895   4.632   9.004
 4278SOL    HW114731   9.970   4.612   8.948
 4278SOL    HW214732   9.873   4.549   9.046
 4279SOL     OW14733   0.859  10.675   3.963
 4279SOL    HW114734   0.864  10.643   4.053
 4279SOL    HW214735   0.841  10.597   3.911
 4280SOL     OW14736  12.125   6.009   4.957
 4280SOL    HW114737  12.203   6.061   4.939
 4280SOL    HW214738  12.094   5.980   4.871
 4281SOL     OW14739   2.617  11.436   3.216
 4281SOL    HW114740   2.661  11.497   3.157
 4281SOL    HW214741   2.640  11.350   3.182
 4282SOL     OW14742  12.804   0.831   7.473
 4282SOL    HW114743  12.850   0.788   7.544
 4282SOL    HW214744  12.718   0.854   7.510
 4283SOL     OW14745   5.388  13.895  11.638
 4283SOL    HW114746   5.327  13.917  11.709
 4283SOL    HW214747   5.470  13.875  11.682
 4284SOL     OW14748   3.287  14.554   4.713
 4284SOL    HW114749   3.228  14.520   4.780
 4284SOL    HW214750   3.373  14.520   4.737
 4285SOL     OW14751   7.775   3.145   3.218
 4285SOL    HW114752   7.840   3.076   3.230
 4285SOL    HW214753   7.720   3.114   3.146
 4286SOL     OW14754   2.468   2.305   9.642
 4286SOL    HW114755   2.373   2.292   9.642
 4286SOL    HW214756   2.503   2.220   9.668
 4287SOL     OW14757  12.111   2.930   3.908
 4287SOL    HW114758  12.077   3.017   3.885
 4287SOL    HW214759  12.043   2.891   3.962
 4288SOL     OW14760   9.918  11.809   5.673
 4288SOL    HW114761   9.990  11.747   5.683
 4288SOL    HW214762   9.840  11.760   5.698
 4289SOL     OW14763  10.878   6.618   5.412
 4289SOL    HW114764  10.835   6.621   5.327
 4289SOL    HW214765  10.807   6.626   5.475
 4290SOL     OW14766  10.010   8.427   5.292
 4290SOL    HW114767   9.937   8.388   5.341
 4290SOL    HW214768   9.968   8.477   5.222
 4291SOL     OW14769  12.648   4.759   9.700
 4291SOL    HW114770  12.612   4.848   9.711
 4291SOL    HW214771  12.572   4.702   9.705
 4292SOL     OW14772   6.505  12.515  14.598
 4292SOL    HW114773   6.516  12.602  14.560
 4292SOL    HW214774   6.575  12.508  14.663
 4293SOL     OW14775   3.329   6.252  10.684
 4293SOL    HW114776   3.282   6.203  10.617
 4293SOL    HW214777   3.261   6.302  10.730
 4294SOL     OW14778   8.174  13.488   9.525
 4294SOL    HW114779   8.173  13.511   9.618
 4294SOL    HW214780   8.234  13.413   9.520
 4295SOL     OW14781   1.377   6.000  11.622
 4295SOL    HW114782   1.390   6.091  11.649
 4295SOL    HW214783   1.363   5.952  11.704
 4296SOL     OW14784  10.531   7.962   2.519
 4296SOL    HW114785  10.537   7.873   2.555
 4296SOL    HW214786  10.619   7.981   2.487
 4297SOL     OW14787   7.926   1.023   4.698
 4297SOL    HW114788   7.942   1.007   4.791
 4297SOL    HW214789   8.000   1.076   4.669
 4298SOL     OW14790   0.288   9.102   4.541
 4298SOL    HW114791   0.233   9.067   4.472
 4298SOL    HW214792   0.290   9.197   4.524
 4299SOL     OW14793   8.722   9.334  12.425
 4299SOL    HW114794   8.725   9.239  12.412
 4299SOL    HW214795   8.788   9.368  12.365
 4300SOL     OW14796   7.556   6.436   9.589
 4300SOL    HW114797   7.497   6.413   9.517
 4300SOL    HW214798   7.618   6.498   9.550
 4301SOL     OW14799   7.836   0.655  14.749
 4301SOL    HW114800   7.833   0.679  14.656
 4301SOL    HW214801   7.912   0.701  14.783
 4302SOL     OW14802   1.232   6.276   7.795
 4302SOL    HW114803   1.303   6.286   7.858
 4302SOL    HW214804   1.203   6.185   7.807
 4303SOL     OW14805   9.068   6.202   7.358
 4303SOL    HW114806   8.996   6.228   7.415
 4303SOL    HW214807   9.047   6.241   7.273
 4304SOL     OW14808   0.530  10.369   6.762
 4304SOL    HW114809   0.478  10.434   6.715
 4304SOL    HW214810   0.535  10.403   6.851
 4305SOL     OW14811  14.461  13.297   4.571
 4305SOL    HW114812  14.386  13.356   4.586
 4305SOL    HW214813  14.536  13.356   4.562
 4306SOL     OW14814   9.160  14.135   5.790
 4306SOL    HW114815   9.098  14.095   5.729
 4306SOL    HW214816   9.150  14.229   5.778
 4307SOL     OW14817  12.451   9.450   6.357
 4307SOL    HW114818  12.409   9.495   6.284
 4307SOL    HW214819  12.389   9.381   6.381
 4308SOL     OW14820   0.713   4.874   2.967
 4308SOL    HW114821   0.766   4.799   2.994
 4308SOL    HW214822   0.642   4.878   3.031
 4309SOL     OW14823   6.034   3.656   1.705
 4309SOL    HW114824   6.114   3.642   1.754
 4309SOL    HW214825   6.031   3.751   1.691
 4310SOL     OW14826   3.924   7.139   0.328
 4310SOL    HW114827   3.855   7.093   0.280
 4310SOL    HW214828   3.926   7.226   0.288
 4311SOL     OW14829   7.104   0.504   8.905
 4311SOL    HW114830   7.018   0.463   8.892
 4311SOL    HW214831   7.087   0.574   8.969
 4312SOL     OW14832   7.840   6.886  12.306
 4312SOL    HW114833   7.809   6.869  12.217
 4312SOL    HW214834   7.773   6.942  12.345
 4313SOL     OW14835   8.490   8.016   9.510
 4313SOL    HW114836   8.475   7.957   9.437
 4313SOL    HW214837   8.455   8.100   9.481
 4314SOL     OW14838  12.606   0.131  14.346
 4314SOL    HW114839  12.574   0.078  14.419
 4314SOL    HW214840  12.544   0.113  14.275
 4315SOL     OW14841   8.295  14.054   5.996
 4315SOL    HW114842   8.371  14.096   5.957
 4315SOL    HW214843   8.293  14.087   6.086
 4316SOL     OW14844  10.984  14.479   1.332
 4316SOL    HW114845  10.972  14.395   1.376
 4316SOL    HW214846  11.031  14.533   1.396
 4317SOL     OW14847  13.199   8.496   3.789
 4317SOL    HW114848  13.113   8.480   3.828
 4317SOL    HW214849  13.184   8.563   3.723
 4318SOL     OW14850  10.075   0.899   8.091
 4318SOL    HW114851  10.128   0.820   8.083
 4318SOL    HW214852  10.071   0.916   8.185
 4319SOL     OW14853  13.755   6.628   3.325
 4319SOL    HW114854  13.791   6.706   3.283
 4319SOL    HW214855  13.663   6.650   3.341
 4320SOL     OW14856   9.464   1.513   6.149
 4320SOL    HW114857   9.517   1.496   6.227
 4320SOL    HW214858   9.403   1.581   6.176
 4321SOL     OW14859   3.016  14.001   8.093
 4321SOL    HW114860   3.068  14.059   8.037
 4321SOL    HW214861   3.080  13.957   8.148
 4322SOL     OW14862   3.339   0.881   7.707
 4322SOL    HW114863   3.301   0.873   7.619
 4322SOL    HW214864   3.292   0.954   7.747
 4323SOL     OW14865   3.545   1.475  10.526
 4323SOL    HW114866   3.471   1.491  10.584
 4323SOL    HW214867   3.528   1.388  10.489
 4324SOL     OW14868   5.840   5.867   7.778
 4324SOL    HW114869   5.915   5.827   7.735
 4324SOL    HW214870   5.826   5.814   7.857
 4325SOL     OW14871   6.249  11.674   9.087
 4325SOL    HW114872   6.274  11.753   9.039
 4325SOL    HW214873   6.290  11.684   9.173
 4326SOL     OW14874   9.707  12.258   5.682
 4326SOL    HW114875   9.693  12.351   5.665
 4326SOL    HW214876   9.625  12.217   5.655
 4327SOL     OW14877  12.697   0.700   9.351
 4327SOL    HW114878  12.755   0.774   9.363
 4327SOL    HW214879  12.671   0.674   9.440
 4328SOL     OW14880  13.617  11.683   6.980
 4328SOL    HW114881  13.712  11.695   6.982
 4328SOL    HW214882  13.582  11.772   6.986
 4329SOL     OW14883   7.839   0.352   7.028
 4329SOL    HW114884   7.783   0.426   7.049
 4329SOL    HW214885   7.842   0.349   6.933
 4330SOL     OW14886   2.212   2.214   1.725
 4330SOL    HW114887   2.278   2.146   1.736
 4330SOL    HW214888   2.200   2.219   1.630
 4331SOL     OW14889  10.784   0.378   0.482
 4331SOL    HW114890  10.757   0.451   0.539
 4331SOL    HW214891  10.766   0.409   0.393
 4332SOL     OW14892   0.054   7.824   9.759
 4332SOL    HW114893  14.862   7.881   9.783
 4332SOL    HW214894   0.015   7.759   9.701
 4333SOL     OW14895  13.763   7.943   3.256
 4333SOL    HW114896  13.713   7.888   3.316
 4333SOL    HW214897  13.762   7.897   3.173
 4334SOL     OW14898   1.171   8.817  13.399
 4334SOL    HW114899   1.266   8.808  13.392
 4334SOL    HW214900   1.139   8.729  13.419
 4335SOL     OW14901  13.525   2.480  12.732
 4335SOL    HW114902  13.529   2.403  12.676
 4335SOL    HW214903  13.592   2.466  12.798
 4336SOL     OW14904   7.557   4.433   3.419
 4336SOL    HW114905   7.521   4.522   3.415
 4336SOL    HW214906   7.648   4.445   3.446
 4337SOL     OW14907   3.889   9.304   0.936
 4337SOL    HW114908   3.840   9.386   0.927
 4337SOL    HW214909   3.928   9.291   0.849
 4338SOL     OW14910   2.520   3.249  13.293
 4338SOL    HW114911   2.568   3.329  13.316
 4338SOL    HW214912   2.433   3.261  13.331
 4339SOL     OW14913   6.056   4.349   7.930
 4339SOL    HW114914   6.088   4.330   8.018
 4339SOL    HW214915   6.071   4.269   7.880
 4340SOL     OW14916  10.127   7.706  13.139
 4340SOL    HW114917  10.194   7.759  13.095
 4340SOL    HW214918  10.167   7.682  13.223
 4341SOL     OW14919   9.485   6.695  10.437
 4341SOL    HW114920   9.530   6.649  10.366
 4341SOL    HW214921   9.482   6.787  10.408
 4342SOL     OW14922   3.410   3.590  14.678
 4342SOL    HW114923   3.339   3.566  14.619
 4342SOL    HW214924   3.442   3.674  14.644
 4343SOL     OW14925   8.405   7.435   4.993
 4343SOL    HW114926   8.377   7.377   4.923
 4343SOL    HW214927   8.418   7.520   4.950
 4344SOL     OW14928   5.306   2.005   8.698
 4344SOL    HW114929   5.233   1.964   8.745
 4344SOL    HW214930   5.384   1.973   8.743
 4345SOL     OW14931   2.452   2.588   9.668
 4345SOL    HW114932   2.505   2.513   9.643
 4345SOL    HW214933   2.369   2.575   9.622
 4346SOL     OW14934   9.520   0.501  14.564
 4346SOL    HW114935   9.593   0.521  14.504
 4346SOL    HW214936   9.482   0.586  14.584
 4347SOL     OW14937  11.594  10.968  14.842
 4347SOL    HW114938  11.638  11.040  14.795
 4347SOL    HW214939  11.530  11.012   0.015
 4348SOL     OW14940  11.208   5.514   3.671
 4348SOL    HW114941  11.289   5.494   3.623
 4348SOL    HW214942  11.145   5.450   3.637
 4349SOL     OW14943   8.952  12.332  11.331
 4349SOL    HW114944   8.926  12.334  11.423
 4349SOL    HW214945   8.926  12.417  11.297
 4350SOL     OW14946   2.713   6.613   1.019
 4350SOL    HW114947   2.693   6.547   1.084
 4350SOL    HW214948   2.642   6.678   1.028
 4351SOL     OW14949   7.598   8.026   7.349
 4351SOL    HW114950   7.518   7.990   7.309
 4351SOL    HW214951   7.627   7.957   7.409
 4352SOL     OW14952   8.912   0.844   5.710
 4352SOL    HW114953   8.835   0.848   5.654
 4352SOL    HW214954   8.926   0.935   5.739
 4353SOL     OW14955   7.006   3.022   2.530
 4353SOL    HW114956   6.927   2.980   2.565
 4353SOL    HW214957   7.051   3.056   2.607
 4354SOL     OW14958   9.602  12.550  13.514
 4354SOL    HW114959   9.555  12.542  13.597
 4354SOL    HW214960   9.556  12.619  13.466
 4355SOL     OW14961   4.722   1.689   4.345
 4355SOL    HW114962   4.694   1.720   4.259
 4355SOL    HW214963   4.794   1.747   4.370
 4356SOL     OW14964  11.876   7.692  14.780
 4356SOL    HW114965  11.832   7.732  14.705
 4356SOL    HW214966  11.846   7.602  14.780
 4357SOL     OW14967   7.730   2.376  10.336
 4357SOL    HW114968   7.814   2.421  10.330
 4357SOL    HW214969   7.747   2.288  10.301
 4358SOL     OW14970   1.942  14.285  14.659
 4358SOL    HW114971   1.977  14.374  14.663
 4358SOL    HW214972   1.987  14.244  14.585
 4359SOL     OW14973  13.349   0.755   0.654
 4359SOL    HW114974  13.294   0.704   0.594
 4359SOL    HW214975  13.424   0.782   0.600
 4360SOL     OW14976  11.624  12.206   6.826
 4360SOL    HW114977  11.574  12.132   6.791
 4360SOL    HW214978  11.702  12.166   6.865
 4361SOL     OW14979   8.593   9.202   2.048
 4361SOL    HW114980   8.500   9.189   2.064
 4361SOL    HW214981   8.637   9.150   2.116
 4362SOL     OW14982   7.073   1.220   8.423
 4362SOL    HW114983   7.027   1.158   8.366
 4362SOL    HW214984   7.086   1.172   8.505
 4363SOL     OW14985   2.753   8.493   2.319
 4363SOL    HW114986   2.782   8.473   2.230
 4363SOL    HW214987   2.794   8.425   2.373
 4364SOL     OW14988   2.874  10.322  10.004
 4364SOL    HW114989   2.798  10.302  10.058
 4364SOL    HW214990   2.947  10.280  10.048
 4365SOL     OW14991   2.400   1.979  13.817
 4365SOL    HW114992   2.307   1.955  13.818
 4365SOL    HW214993   2.417   2.015  13.904
 4366SOL     OW14994   1.095  13.114   1.070
 4366SOL    HW114995   1.083  13.197   1.024
 4366SOL    HW214996   1.179  13.125   1.116
 4367SOL     OW14997  12.797   7.217   2.531
 4367SOL    HW114998  12.881   7.212   2.576
 4367SOL    HW214999  12.743   7.150   2.572
 4368SOL     OW15000  10.592  11.157   8.132
 4368SOL    HW115001  10.632  11.081   8.173
 4368SOL    HW215002  10.527  11.121   8.071
 4369SOL     OW15003  12.935   4.694  12.219
 4369SOL    HW115004  12.959   4.610  12.181
 4369SOL    HW215005  12.924   4.676  12.312
 4370SOL     OW15006   0.071   1.632   1.390
 4370SOL    HW115007   0.048   1.551   1.435
 4370SOL    HW215008   0.044   1.618   1.299
 4371SOL     OW15009   9.212  12.091   9.108
 4371SOL    HW115010   9.286  12.077   9.048
 4371SOL    HW215011   9.135  12.062   9.058
 4372SOL     OW15012  10.470   6.688   7.864
 4372SOL    HW115013  10.386   6.645   7.884
 4372SOL    HW215014  10.531   6.648   7.926
 4373SOL     OW15015   7.967  11.535  10.904
 4373SOL    HW115016   8.012  11.571  10.828
 4373SOL    HW215017   7.944  11.446  10.879
 4374SOL     OW15018   0.771  10.806   0.383
 4374SOL    HW115019   0.726  10.755   0.451
 4374SOL    HW215020   0.724  10.890   0.382
 4375SOL     OW15021   0.982   3.101   7.160
 4375SOL    HW115022   1.029   3.174   7.201
 4375SOL    HW215023   0.979   3.033   7.227
 4376SOL     OW15024   6.473  11.490  11.713
 4376SOL    HW115025   6.520  11.569  11.688
 4376SOL    HW215026   6.385  11.501  11.674
 4377SOL     OW15027  14.068   5.457  10.060
 4377SOL    HW115028  13.983   5.414  10.054
 4377SOL    HW215029  14.108   5.443   9.973
 4378SOL     OW15030   3.426   8.719   2.513
 4378SOL    HW115031   3.442   8.717   2.607
 4378SOL    HW215032   3.465   8.801   2.483
 4379SOL     OW15033   2.815  11.580   5.643
 4379SOL    HW115034   2.830  11.614   5.731
 4379SOL    HW215035   2.805  11.658   5.589
 4380SOL     OW15036   9.542  12.690   0.472
 4380SOL    HW115037   9.619  12.733   0.433
 4380SOL    HW215038   9.547  12.600   0.439
 4381SOL     OW15039  14.244   1.500   1.216
 4381SOL    HW115040  14.274   1.585   1.183
 4381SOL    HW215041  14.276   1.497   1.307
 4382SOL     OW15042  10.638  13.636   1.250
 4382SOL    HW115043  10.702  13.706   1.235
 4382SOL    HW215044  10.683  13.557   1.220
 4383SOL     OW15045  10.367  13.303   8.052
 4383SOL    HW115046  10.345  13.375   8.111
 4383SOL    HW215047  10.327  13.226   8.092
 4384SOL     OW15048   8.159  11.997   7.238
 4384SOL    HW115049   8.083  12.016   7.184
 4384SOL    HW215050   8.198  12.083   7.256
 4385SOL     OW15051   2.710  11.412  10.192
 4385SOL    HW115052   2.801  11.400  10.165
 4385SOL    HW215053   2.699  11.352  10.266
 4386SOL     OW15054   7.405  10.081  10.254
 4386SOL    HW115055   7.416  10.169  10.291
 4386SOL    HW215056   7.371  10.096  10.165
 4387SOL     OW15057  11.721   5.673   6.539
 4387SOL    HW115058  11.785   5.688   6.609
 4387SOL    HW215059  11.765   5.700   6.459
 4388SOL     OW15060   1.094   0.196   2.127
 4388SOL    HW115061   1.030   0.238   2.184
 4388SOL    HW215062   1.138   0.132   2.182
 4389SOL     OW15063  12.698   4.349   2.640
 4389SOL    HW115064  12.711   4.374   2.549
 4389SOL    HW215065  12.785   4.355   2.680
 4390SOL     OW15066   4.214   0.021   2.704
 4390SOL    HW115067   4.196   0.077   2.779
 4390SOL    HW215068   4.130  14.864   2.682
 4391SOL     OW15069   2.658  11.685  10.179
 4391SOL    HW115070   2.593  11.707  10.112
 4391SOL    HW215071   2.653  11.590  10.187
 4392SOL     OW15072   8.110   4.871   9.524
 4392SOL    HW115073   8.178   4.914   9.576
 4392SOL    HW215074   8.073   4.942   9.471
 4393SOL     OW15075   0.298   3.949  13.786
 4393SOL    HW115076   0.365   3.883  13.771
 4393SOL    HW215077   0.215   3.901  13.786
 4394SOL     OW15078   5.118  10.502   9.914
 4394SOL    HW115079   5.163  10.529   9.834
 4394SOL    HW215080   5.187  10.469   9.971
 4395SOL     OW15081   8.800   9.693   8.394
 4395SOL    HW115082   8.845   9.618   8.433
 4395SOL    HW215083   8.713   9.659   8.371
 4396SOL     OW15084   7.167   9.635   0.454
 4396SOL    HW115085   7.186   9.543   0.472
 4396SOL    HW215086   7.093   9.634   0.393
 4397SOL     OW15087  10.348   1.906   7.871
 4397SOL    HW115088  10.332   1.913   7.965
 4397SOL    HW215089  10.355   1.812   7.854
 4398SOL     OW15090   5.575   6.984   3.287
 4398SOL    HW115091   5.502   7.043   3.269
 4398SOL    HW215092   5.575   6.975   3.382
 4399SOL     OW15093   7.884   5.304   5.974
 4399SOL    HW115094   7.819   5.246   5.935
 4399SOL    HW215095   7.872   5.388   5.929
 4400SOL     OW15096   1.884   6.561  14.336
 4400SOL    HW115097   1.917   6.649  14.318
 4400SOL    HW215098   1.941   6.503  14.284
 4401SOL     OW15099   9.993   1.586   8.859
 4401SOL    HW115100  10.049   1.535   8.918
 4401SOL    HW215101   9.931   1.629   8.917
 4402SOL     OW15102   4.080  12.600   5.560
 4402SOL    HW115103   4.118  12.534   5.619
 4402SOL    HW215104   4.140  12.674   5.567
 4403SOL     OW15105  14.028   3.485  14.755
 4403SOL    HW115106  14.068   3.505  14.840
 4403SOL    HW215107  14.056   3.395  14.736
 4404SOL     OW15108   1.383   1.428  14.866
 4404SOL    HW115109   1.336   1.455   0.062
 4404SOL    HW215110   1.344   1.479  14.795
 4405SOL     OW15111  12.637  14.210   1.125
 4405SOL    HW115112  12.713  14.200   1.183
 4405SOL    HW215113  12.633  14.304   1.106
 4406SOL     OW15114   8.680   1.414  12.177
 4406SOL    HW115115   8.752   1.414  12.114
 4406SOL    HW215116   8.614   1.472  12.138
 4407SOL     OW15117   7.386   2.187  12.694
 4407SOL    HW115118   7.434   2.269  12.683
 4407SOL    HW215119   7.447   2.130  12.741
 4408SOL     OW15120  14.418   8.232   6.702
 4408SOL    HW115121  14.450   8.173   6.770
 4408SOL    HW215122  14.330   8.257   6.732
 4409SOL     OW15123   1.608   3.158   0.817
 4409SOL    HW115124   1.702   3.175   0.811
 4409SOL    HW215125   1.582   3.195   0.901
 4410SOL     OW15126  12.255   1.842   1.169
 4410SOL    HW115127  12.204   1.923   1.175
 4410SOL    HW215128  12.198   1.781   1.123
 4411SOL     OW15129   4.031   8.273   5.226
 4411SOL    HW115130   3.998   8.230   5.147
 4411SOL    HW215131   3.980   8.234   5.298
 4412SOL     OW15132   7.292  12.300  13.071
 4412SOL    HW115133   7.229  12.229  13.067
 4412SOL    HW215134   7.291  12.328  13.163
 4413SOL     OW15135   5.923  13.303   1.804
 4413SOL    HW115136   5.843  13.348   1.831
 4413SOL    HW215137   5.993  13.361   1.831
 4414SOL     OW15138   6.099   1.171   5.179
 4414SOL    HW115139   6.155   1.187   5.103
 4414SOL    HW215140   6.033   1.241   5.174
 4415SOL     OW15141  10.368   0.594  12.711
 4415SOL    HW115142  10.307   0.551  12.652
 4415SOL    HW215143  10.425   0.523  12.743
 4416SOL     OW15144  13.380  10.561  12.100
 4416SOL    HW115145  13.374  10.652  12.072
 4416SOL    HW215146  13.441  10.563  12.174
 4417SOL     OW15147   5.358   0.817   2.846
 4417SOL    HW115148   5.270   0.805   2.881
 4417SOL    HW215149   5.390   0.728   2.830
 4418SOL     OW15150  14.096  11.376   6.264
 4418SOL    HW115151  14.114  11.297   6.314
 4418SOL    HW215152  14.004  11.368   6.239
 4419SOL     OW15153   5.814   3.879  11.981
 4419SOL    HW115154   5.879   3.943  11.951
 4419SOL    HW215155   5.861   3.823  12.043
 4420SOL     OW15156  10.346  10.061   2.751
 4420SOL    HW115157  10.258  10.048   2.714
 4420SOL    HW215158  10.357  10.156   2.752
 4421SOL     OW15159   1.178   2.630  11.870
 4421SOL    HW115160   1.097   2.601  11.827
 4421SOL    HW215161   1.211   2.552  11.915
 4422SOL     OW15162  13.994   6.371   5.701
 4422SOL    HW115163  14.007   6.431   5.628
 4422SOL    HW215164  14.082   6.355   5.736
 4423SOL     OW15165   5.714   3.781   6.517
 4423SOL    HW115166   5.767   3.832   6.455
 4423SOL    HW215167   5.694   3.843   6.588
 4424SOL     OW15168   1.060   7.352  12.391
 4424SOL    HW115169   0.975   7.312  12.374
 4424SOL    HW215170   1.124   7.284  12.371
 4425SOL     OW15171   4.199  10.605   7.328
 4425SOL    HW115172   4.135  10.556   7.378
 4425SOL    HW215173   4.181  10.697   7.348
 4426SOL     OW15174   9.203   6.826   2.359
 4426SOL    HW115175   9.250   6.900   2.395
 4426SOL    HW215176   9.213   6.834   2.264
 4427SOL     OW15177   8.213  13.084   9.934
 4427SOL    HW115178   8.240  13.015   9.994
 4427SOL    HW215179   8.289  13.099   9.879
 4428SOL     OW15180   7.534  12.438   4.324
 4428SOL    HW115181   7.460  12.381   4.346
 4428SOL    HW215182   7.515  12.467   4.234
 4429SOL     OW15183   0.122  12.988  12.032
 4429SOL    HW115184   0.124  12.894  12.050
 4429SOL    HW215185   0.211  13.017  12.050
 4430SOL     OW15186   3.767  10.013   0.843
 4430SOL    HW115187   3.764  10.109   0.840
 4430SOL    HW215188   3.728   9.985   0.760
 4431SOL     OW15189   6.240  14.872   0.892
 4431SOL    HW115190   6.206   0.079   0.882
 4431SOL    HW215191   6.328   0.002   0.928
 4432SOL     OW15192  13.555   1.184  12.888
 4432SOL    HW115193  13.602   1.232  12.820
 4432SOL    HW215194  13.526   1.104  12.845
 4433SOL     OW15195   5.447   3.243   9.800
 4433SOL    HW115196   5.468   3.336   9.785
 4433SOL    HW215197   5.528   3.206   9.834
 4434SOL     OW15198  12.216  12.904  14.188
 4434SOL    HW115199  12.178  12.890  14.101
 4434SOL    HW215200  12.197  12.823  14.235
 4435SOL     OW15201   3.942  11.760   1.130
 4435SOL    HW115202   3.962  11.667   1.115
 4435SOL    HW215203   4.026  11.804   1.119
 4436SOL     OW15204   4.601   7.137   7.485
 4436SOL    HW115205   4.582   7.226   7.458
 4436SOL    HW215206   4.693   7.139   7.510
 4437SOL     OW15207   7.377  10.406   9.631
 4437SOL    HW115208   7.466  10.439   9.619
 4437SOL    HW215209   7.323  10.485   9.638
 4438SOL     OW15210   5.502  10.486   8.955
 4438SOL    HW115211   5.424  10.445   8.993
 4438SOL    HW215212   5.575  10.446   9.002
 4439SOL     OW15213   4.168   9.383   4.036
 4439SOL    HW115214   4.110   9.307   4.043
 4439SOL    HW215215   4.145   9.423   3.952
 4440SOL     OW15216   9.610   9.167  10.649
 4440SOL    HW115217   9.642   9.111  10.719
 4440SOL    HW215218   9.673   9.156  10.578
 4441SOL     OW15219  12.713   2.508   0.217
 4441SOL    HW115220  12.771   2.433   0.214
 4441SOL    HW215221  12.660   2.495   0.295
 4442SOL     OW15222   0.017   1.396  11.466
 4442SOL    HW115223  14.860   1.471  11.421
 4442SOL    HW215224   0.111   1.409  11.458
 4443SOL     OW15225   2.955   6.504   4.266
 4443SOL    HW115226   2.923   6.568   4.329
 4443SOL    HW215227   3.028   6.460   4.310
 4444SOL     OW15228  12.753   2.189   5.131
 4444SOL    HW115229  12.679   2.248   5.145
 4444SOL    HW215230  12.717   2.117   5.079
 4445SOL     OW15231  11.693   1.510  14.323
 4445SOL    HW115232  11.720   1.588  14.373
 4445SOL    HW215233  11.775   1.467  14.301
 4446SOL     OW15234   6.673  14.703  10.444
 4446SOL    HW115235   6.631  14.731  10.363
 4446SOL    HW215236   6.612  14.640  10.482
 4447SOL     OW15237   0.697   1.647   8.688
 4447SOL    HW115238   0.723   1.704   8.616
 4447SOL    HW215239   0.695   1.704   8.765
 4448SOL     OW15240  10.289   3.324   0.532
 4448SOL    HW115241  10.370   3.294   0.491
 4448SOL    HW215242  10.277   3.413   0.501
 4449SOL     OW15243   4.439   9.734   8.415
 4449SOL    HW115244   4.446   9.793   8.340
 4449SOL    HW215245   4.521   9.748   8.463
 4450SOL     OW15246   0.117   0.163  12.752
 4450SOL    HW115247   0.094   0.088  12.806
 4450SOL    HW215248   0.212   0.158  12.744
 4451SOL     OW15249   3.248   7.202   9.073
 4451SOL    HW115250   3.165   7.161   9.098
 4451SOL    HW215251   3.315   7.140   9.103
 4452SOL     OW15252  12.433  10.222   0.055
 4452SOL    HW115253  12.485  10.142   0.058
 4452SOL    HW215254  12.365  10.209   0.121
 4453SOL     OW15255  14.180   4.799  10.724
 4453SOL    HW115256  14.245   4.859  10.760
 4453SOL    HW215257  14.159   4.835  10.638
 4454SOL     OW15258  11.103   4.623   1.005
 4454SOL    HW115259  11.072   4.705   0.966
 4454SOL    HW215260  11.045   4.609   1.080
 4455SOL     OW15261   9.492   5.476   5.928
 4455SOL    HW115262   9.435   5.441   5.996
 4455SOL    HW215263   9.579   5.479   5.969
 4456SOL     OW15264   8.901   8.814  10.442
 4456SOL    HW115265   8.935   8.816  10.531
 4456SOL    HW215266   8.894   8.721  10.421
 4457SOL     OW15267   8.370   3.766   1.333
 4457SOL    HW115268   8.290   3.812   1.307
 4457SOL    HW215269   8.395   3.809   1.416
 4458SOL     OW15270  11.842   9.300   9.606
 4458SOL    HW115271  11.891   9.240   9.662
 4458SOL    HW215272  11.751   9.291   9.634
 4459SOL     OW15273  11.440   3.277   0.852
 4459SOL    HW115274  11.412   3.319   0.933
 4459SOL    HW215275  11.443   3.349   0.788
 4460SOL     OW15276   4.003   7.833   5.979
 4460SOL    HW115277   4.024   7.908   5.922
 4460SOL    HW215278   4.047   7.759   5.938
 4461SOL     OW15279   5.096   0.616   5.832
 4461SOL    HW115280   5.074   0.655   5.747
 4461SOL    HW215281   5.126   0.689   5.885
 4462SOL     OW15282   4.457   2.969   8.302
 4462SOL    HW115283   4.500   2.934   8.224
 4462SOL    HW215284   4.506   3.048   8.324
 4463SOL     OW15285   8.041  14.664   0.786
 4463SOL    HW115286   8.133  14.689   0.777
 4463SOL    HW215287   8.010  14.653   0.696
 4464SOL     OW15288   6.841   9.658   2.194
 4464SOL    HW115289   6.776   9.615   2.140
 4464SOL    HW215290   6.925   9.621   2.166
 4465SOL     OW15291   9.960   7.607   9.809
 4465SOL    HW115292   9.968   7.668   9.735
 4465SOL    HW215293   9.984   7.659   9.885
 4466SOL     OW15294   1.028   6.131   6.074
 4466SOL    HW115295   1.080   6.065   6.120
 4466SOL    HW215296   0.973   6.081   6.014
 4467SOL     OW15297   5.731   8.906   0.061
 4467SOL    HW115298   5.646   8.863   0.075
 4467SOL    HW215299   5.763   8.866  14.862
 4468SOL     OW15300   8.551  12.158  14.676
 4468SOL    HW115301   8.472  12.210  14.665
 4468SOL    HW215302   8.528  12.072  14.640
 4469SOL     OW15303   0.079  11.953   8.688
 4469SOL    HW115304   0.011  11.887   8.700
 4469SOL    HW215305   0.057  12.023   8.749
 4470SOL     OW15306  14.633   5.463   2.226
 4470SOL    HW115307  14.549   5.444   2.267
 4470SOL    HW215308  14.641   5.558   2.229
 4471SOL     OW15309   5.684  11.706   8.252
 4471SOL    HW115310   5.718  11.776   8.307
 4471SOL    HW215311   5.662  11.635   8.313
 4472SOL     OW15312  10.482   0.679   8.885
 4472SOL    HW115313  10.413   0.665   8.821
 4472SOL    HW215314  10.499   0.774   8.882
 4473SOL     OW15315   2.769  14.437  12.015
 4473SOL    HW115316   2.782  14.410  11.924
 4473SOL    HW215317   2.830  14.382  12.065
 4474SOL     OW15318  13.348   3.262  10.288
 4474SOL    HW115319  13.287   3.225  10.352
 4474SOL    HW215320  13.315   3.350  10.271
 4475SOL     OW15321   8.031   7.591  10.824
 4475SOL    HW115322   8.076   7.661  10.871
 4475SOL    HW215323   7.940   7.619  10.819
 4476SOL     OW15324  13.141   9.910   8.404
 4476SOL    HW115325  13.219   9.963   8.420
 4476SOL    HW215326  13.075   9.972   8.373
 4477SOL     OW15327   7.485   8.034   8.904
 4477SOL    HW115328   7.456   7.984   8.981
 4477SOL    HW215329   7.458   7.980   8.829
 4478SOL     OW15330  12.104   3.934  10.187
 4478SOL    HW115331  12.016   3.960  10.216
 4478SOL    HW215332  12.161   4.004  10.218
 4479SOL     OW15333  12.588   0.272   4.621
 4479SOL    HW115334  12.564   0.363   4.603
 4479SOL    HW215335  12.659   0.278   4.684
 4480SOL     OW15336   6.375  12.277   0.033
 4480SOL    HW115337   6.380  12.184   0.055
 4480SOL    HW215338   6.462  12.298  14.880
 4481SOL     OW15339   9.247   9.012  13.338
 4481SOL    HW115340   9.232   8.938  13.396
 4481SOL    HW215341   9.227   9.089  13.391
 4482SOL     OW15342   1.033   1.348  12.393
 4482SOL    HW115343   1.007   1.313  12.308
 4482SOL    HW215344   1.121   1.382  12.380
 4483SOL     OW15345   5.795   9.007  10.808
 4483SOL    HW115346   5.711   9.030  10.847
 4483SOL    HW215347   5.793   9.045  10.721
 4484SOL     OW15348   5.541   4.736   4.691
 4484SOL    HW115349   5.472   4.760   4.630
 4484SOL    HW215350   5.606   4.690   4.638
 4485SOL     OW15351   4.034   8.018   9.152
 4485SOL    HW115352   4.083   7.951   9.199
 4485SOL    HW215353   3.949   8.021   9.195
 4486SOL     OW15354   0.445   8.074   2.638
 4486SOL    HW115355   0.359   8.047   2.606
 4486SOL    HW215356   0.431   8.097   2.730
 4487SOL     OW15357  10.801   1.932  10.844
 4487SOL    HW115358  10.771   2.018  10.816
 4487SOL    HW215359  10.731   1.900  10.902
 4488SOL     OW15360   2.196  13.741  11.461
 4488SOL    HW115361   2.231  13.698  11.539
 4488SOL    HW215362   2.265  13.732  11.395
 4489SOL     OW15363  12.424  12.952   6.647
 4489SOL    HW115364  12.421  13.047   6.659
 4489SOL    HW215365  12.427  12.917   6.737
 4490SOL     OW15366  12.644   3.832   7.084
 4490SOL    HW115367  12.676   3.856   7.171
 4490SOL    HW215368  12.587   3.905   7.058
 4491SOL     OW15369   5.569   6.481   0.293
 4491SOL    HW115370   5.569   6.564   0.341
 4491SOL    HW215371   5.609   6.502   0.209
 4492SOL     OW15372   4.483  10.597   6.229
 4492SOL    HW115373   4.547  10.638   6.172
 4492SOL    HW215374   4.525  10.517   6.261
 4493SOL     OW15375   0.370  13.452   4.539
 4493SOL    HW115376   0.370  13.360   4.567
 4493SOL    HW215377   0.278  13.472   4.521
 4494SOL     OW15378   8.919   2.457   0.954
 4494SOL    HW115379   8.866   2.536   0.944
 4494SOL    HW215380   8.928   2.446   1.049
 4495SOL     OW15381   3.570   2.623   0.885
 4495SOL    HW115382   3.622   2.702   0.895
 4495SOL    HW215383   3.525   2.634   0.801
 4496SOL     OW15384  11.952   1.598   0.867
 4496SOL    HW115385  12.046   1.608   0.878
 4496SOL    HW215386  11.914   1.677   0.908
 4497SOL     OW15387   1.407   4.810   9.507
 4497SOL    HW115388   1.472   4.876   9.485
 4497SOL    HW215389   1.333   4.859   9.541
 4498SOL     OW15390   7.897   3.305   4.486
 4498SOL    HW115391   7.829   3.289   4.551
 4498SOL    HW215392   7.977   3.271   4.526
 4499SOL     OW15393  11.638   8.757   7.704
 4499SOL    HW115394  11.588   8.709   7.639
 4499SOL    HW215395  11.591   8.743   7.786
 4500SOL     OW15396   4.129   2.181   6.872
 4500SOL    HW115397   4.174   2.133   6.802
 4500SOL    HW215398   4.056   2.124   6.897
 4501SOL     OW15399   4.063   9.999  14.413
 4501SOL    HW115400   4.054   9.905  14.428
 4501SOL    HW215401   4.132  10.006  14.346
 4502SOL     OW15402   9.657   9.977  13.800
 4502SOL    HW115403   9.572   9.955  13.839
 4502SOL    HW215404   9.639   9.985  13.707
 4503SOL     OW15405   1.353   9.591  12.143
 4503SOL    HW115406   1.395   9.673  12.118
 4503SOL    HW215407   1.422   9.540  12.186
 4504SOL     OW15408   1.901   1.340   5.615
 4504SOL    HW115409   1.940   1.312   5.532
 4504SOL    HW215410   1.918   1.434   5.619
 4505SOL     OW15411  11.928   8.218   6.748
 4505SOL    HW115412  11.860   8.178   6.801
 4505SOL    HW215413  11.972   8.144   6.705
 4506SOL     OW15414  13.509   1.283   2.639
 4506SOL    HW115415  13.562   1.205   2.624
 4506SOL    HW215416  13.420   1.250   2.650
 4507SOL     OW15417   8.435   6.102  11.058
 4507SOL    HW115418   8.520   6.142  11.079
 4507SOL    HW215419   8.456   6.036  10.992
 4508SOL     OW15420   1.084  13.736  11.056
 4508SOL    HW115421   1.122  13.686  10.984
 4508SOL    HW215422   1.001  13.693  11.075
 4509SOL     OW15423  13.128   9.864   2.301
 4509SOL    HW115424  13.133   9.958   2.319
 4509SOL    HW215425  13.143   9.857   2.207
 4510SOL     OW15426  12.700   4.579  13.438
 4510SOL    HW115427  12.656   4.533  13.509
 4510SOL    HW215428  12.786   4.538  13.433
 4511SOL     OW15429   0.848   1.742  10.374
 4511SOL    HW115430   0.786   1.679  10.410
 4511SOL    HW215431   0.932   1.720  10.415
 4512SOL     OW15432   4.887   7.654   5.434
 4512SOL    HW115433   4.950   7.668   5.505
 4512SOL    HW215434   4.805   7.631   5.479
 4513SOL     OW15435   0.884   7.002   4.841
 4513SOL    HW115436   0.894   6.980   4.933
 4513SOL    HW215437   0.959   6.962   4.797
 4514SOL     OW15438  14.116   2.808   2.480
 4514SOL    HW115439  14.057   2.755   2.534
 4514SOL    HW215440  14.203   2.775   2.502
 4515SOL     OW15441   3.422  10.409  11.888
 4515SOL    HW115442   3.422  10.390  11.982
 4515SOL    HW215443   3.494  10.356  11.853
 4516SOL     OW15444   5.125  13.967   2.690
 4516SOL    HW115445   5.188  14.031   2.724
 4516SOL    HW215446   5.169  13.929   2.614
 4517SOL     OW15447   6.162   2.014  10.197
 4517SOL    HW115448   6.166   1.918  10.194
 4517SOL    HW215449   6.220   2.038  10.269
 4518SOL     OW15450   4.568   3.668   5.451
 4518SOL    HW115451   4.567   3.748   5.503
 4518SOL    HW215452   4.601   3.695   5.365
 4519SOL     OW15453   9.235   7.765   2.274
 4519SOL    HW115454   9.160   7.810   2.314
 4519SOL    HW215455   9.197   7.718   2.199
 4520SOL     OW15456  14.144  14.084   7.967
 4520SOL    HW115457  14.150  14.174   7.937
 4520SOL    HW215458  14.178  14.032   7.894
 4521SOL     OW15459   3.406   0.491   6.679
 4521SOL    HW115460   3.470   0.528   6.739
 4521SOL    HW215461   3.329   0.474   6.733
 4522SOL     OW15462  12.553  12.494  11.959
 4522SOL    HW115463  12.610  12.555  12.005
 4522SOL    HW215464  12.478  12.483  12.018
 4523SOL     OW15465   2.026   4.926  14.579
 4523SOL    HW115466   1.952   4.871  14.555
 4523SOL    HW215467   2.099   4.892  14.527
 4524SOL     OW15468  14.753   4.615   1.865
 4524SOL    HW115469  14.677   4.617   1.924
 4524SOL    HW215470  14.788   4.526   1.874
 4525SOL     OW15471   7.119   7.496   0.608
 4525SOL    HW115472   7.097   7.432   0.676
 4525SOL    HW215473   7.186   7.552   0.647
 4526SOL     OW15474   6.792  12.060  14.272
 4526SOL    HW115475   6.755  12.042  14.186
 4526SOL    HW215476   6.740  12.007  14.332
 4527SOL     OW15477  10.897   1.553   6.146
 4527SOL    HW115478  10.959   1.616   6.110
 4527SOL    HW215479  10.827   1.548   6.081
 4528SOL     OW15480  12.405   7.720   2.724
 4528SOL    HW115481  12.381   7.691   2.812
 4528SOL    HW215482  12.481   7.776   2.737
 4529SOL     OW15483  11.167   7.559   4.958
 4529SOL    HW115484  11.100   7.518   4.904
 4529SOL    HW215485  11.123   7.634   4.998
 4530SOL     OW15486   1.387   2.134   1.085
 4530SOL    HW115487   1.403   2.108   1.176
 4530SOL    HW215488   1.474   2.143   1.047
 4531SOL     OW15489   1.366   3.053  13.337
 4531SOL    HW115490   1.272   3.072  13.340
 4531SOL    HW215491   1.396   3.067  13.427
 4532SOL     OW15492   7.598   1.975   9.254
 4532SOL    HW115493   7.553   1.894   9.278
 4532SOL    HW215494   7.549   2.009   9.179
 4533SOL     OW15495   5.974   6.243  12.402
 4533SOL    HW115496   5.949   6.154  12.423
 4533SOL    HW215497   5.899   6.280  12.356
 4534SOL     OW15498   4.776  10.890  12.499
 4534SOL    HW115499   4.754  10.976  12.534
 4534SOL    HW215500   4.763  10.898  12.405
 4535SOL     OW15501   5.781   1.216   0.464
 4535SOL    HW115502   5.860   1.182   0.506
 4535SOL    HW215503   5.783   1.310   0.482
 4536SOL     OW15504   5.566   4.017  10.472
 4536SOL    HW115505   5.570   3.922  10.476
 4536SOL    HW215506   5.634   4.047  10.533
 4537SOL     OW15507   2.305   9.793   8.019
 4537SOL    HW115508   2.357   9.821   7.944
 4537SOL    HW215509   2.303   9.869   8.077
 4538SOL     OW15510   9.500   9.548  14.796
 4538SOL    HW115511   9.546   9.477  14.750
 4538SOL    HW215512   9.416   9.510  14.820
 4539SOL     OW15513   6.589  14.760   7.165
 4539SOL    HW115514   6.576  14.838   7.220
 4539SOL    HW215515   6.653  14.788   7.100
 4540SOL     OW15516   3.638   7.689   8.295
 4540SOL    HW115517   3.657   7.766   8.348
 4540SOL    HW215518   3.689   7.701   8.215
 4541SOL     OW15519  12.540   6.863   9.803
 4541SOL    HW115520  12.486   6.921   9.857
 4541SOL    HW215521  12.554   6.911   9.722
 4542SOL     OW15522   0.661   6.354   6.589
 4542SOL    HW115523   0.647   6.440   6.549
 4542SOL    HW215524   0.753   6.355   6.617
 4543SOL     OW15525   6.932   1.964  11.246
 4543SOL    HW115526   7.017   1.986  11.208
 4543SOL    HW215527   6.929   2.014  11.328
 4544SOL     OW15528   1.420   5.428  14.316
 4544SOL    HW115529   1.361   5.456  14.386
 4544SOL    HW215530   1.402   5.335  14.305
 4545SOL     OW15531   3.062  10.186   8.554
 4545SOL    HW115532   3.007  10.111   8.535
 4545SOL    HW215533   3.126  10.154   8.618
 4546SOL     OW15534   3.475   8.086   0.293
 4546SOL    HW115535   3.500   7.993   0.291
 4546SOL    HW215536   3.522   8.124   0.219
 4547SOL     OW15537  12.000  10.576   9.235
 4547SOL    HW115538  11.985  10.503   9.174
 4547SOL    HW215539  12.092  10.596   9.225
 4548SOL     OW15540   0.452  13.477   8.173
 4548SOL    HW115541   0.360  13.467   8.147
 4548SOL    HW215542   0.452  13.458   8.267
 4549SOL     OW15543   7.054  11.742   6.132
 4549SOL    HW115544   7.046  11.801   6.207
 4549SOL    HW215545   7.148  11.736   6.116
 4550SOL     OW15546   4.889   3.694   5.098
 4550SOL    HW115547   4.917   3.615   5.052
 4550SOL    HW215548   4.881   3.761   5.030
 4551SOL     OW15549   6.838   9.939  12.602
 4551SOL    HW115550   6.826   9.924  12.696
 4551SOL    HW215551   6.842  10.034  12.593
 4552SOL     OW15552  13.437   8.994   7.258
 4552SOL    HW115553  13.357   9.015   7.306
 4552SOL    HW215554  13.492   8.949   7.322
 4553SOL     OW15555   0.935   5.428   8.724
 4553SOL    HW115556   1.014   5.481   8.718
 4553SOL    HW215557   0.907   5.417   8.633
 4554SOL     OW15558  14.397  14.849  12.954
 4554SOL    HW115559  14.341  14.797  13.011
 4554SOL    HW215560  14.358  14.840  12.867
 4555SOL     OW15561   2.653   8.593   5.826
 4555SOL    HW115562   2.574   8.642   5.846
 4555SOL    HW215563   2.639   8.558   5.738
 4556SOL     OW15564   2.203   8.573   3.267
 4556SOL    HW115565   2.252   8.494   3.246
 4556SOL    HW215566   2.131   8.543   3.322
 4557SOL     OW15567   8.201   2.322  10.611
 4557SOL    HW115568   8.240   2.235  10.620
 4557SOL    HW215569   8.156   2.337  10.694
 4558SOL     OW15570   5.412   9.738  12.681
 4558SOL    HW115571   5.369   9.786  12.609
 4558SOL    HW215572   5.426   9.650  12.646
 4559SOL     OW15573  10.587   1.539  13.941
 4559SOL    HW115574  10.507   1.576  13.904
 4559SOL    HW215575  10.595   1.453  13.900
 4560SOL     OW15576   9.180  11.181   5.127
 4560SOL    HW115577   9.117  11.109   5.122
 4560SOL    HW215578   9.251  11.154   5.068
 4561SOL     OW15579   7.554   9.043   8.047
 4561SOL    HW115580   7.610   8.968   8.068
 4561SOL    HW215581   7.566   9.103   8.120
 4562SOL     OW15582  14.538   0.934   4.373
 4562SOL    HW115583  14.589   0.874   4.320
 4562SOL    HW215584  14.478   0.976   4.311
 4563SOL     OW15585  11.753   7.359  11.746
 4563SOL    HW115586  11.779   7.382  11.656
 4563SOL    HW215587  11.730   7.443  11.786
 4564SOL     OW15588   6.468  10.611   7.042
 4564SOL    HW115589   6.540  10.548   7.043
 4564SOL    HW215590   6.508  10.694   7.066
 4565SOL     OW15591   5.588   6.370  12.999
 4565SOL    HW115592   5.644   6.409  12.932
 4565SOL    HW215593   5.608   6.417  13.079
 4566SOL     OW15594   2.789   2.611  12.024
 4566SOL    HW115595   2.864   2.620  11.964
 4566SOL    HW215596   2.717   2.653  11.977
 4567SOL     OW15597   3.692  14.729  11.398
 4567SOL    HW115598   3.726  14.796  11.457
 4567SOL    HW215599   3.629  14.774  11.343
 4568SOL     OW15600  12.157   3.959   5.264
 4568SOL    HW115601  12.150   4.038   5.211
 4568SOL    HW215602  12.249   3.952   5.287
 4569SOL     OW15603   4.449   1.991   6.869
 4569SOL    HW115604   4.508   2.062   6.894
 4569SOL    HW215605   4.393   2.030   6.802
 4570SOL     OW15606  10.602  10.504  11.529
 4570SOL    HW115607  10.634  10.533  11.443
 4570SOL    HW215608  10.657  10.429  11.551
 4571SOL     OW15609  13.364   1.725   8.035
 4571SOL    HW115610  13.316   1.759   7.959
 4571SOL    HW215611  13.297   1.711   8.102
 4572SOL     OW15612   8.408   1.008   7.533
 4572SOL    HW115613   8.432   0.976   7.620
 4572SOL    HW215614   8.326   0.964   7.512
 4573SOL     OW15615  14.186   6.531   0.531
 4573SOL    HW115616  14.142   6.597   0.585
 4573SOL    HW215617  14.253   6.580   0.483
 4574SOL     OW15618   4.017   5.083  10.592
 4574SOL    HW115619   4.084   5.148  10.571
 4574SOL    HW215620   3.975   5.116  10.672
 4575SOL     OW15621   8.319   3.144   6.439
 4575SOL    HW115622   8.270   3.196   6.503
 4575SOL    HW215623   8.342   3.064   6.486
 4576SOL     OW15624   4.169   3.389   1.169
 4576SOL    HW115625   4.216   3.425   1.245
 4576SOL    HW215626   4.095   3.341   1.207
 4577SOL     OW15627  13.150   6.019   6.870
 4577SOL    HW115628  13.127   6.085   6.804
 4577SOL    HW215629  13.206   5.957   6.824
 4578SOL     OW15630  13.070   1.264   7.218
 4578SOL    HW115631  13.051   1.214   7.298
 4578SOL    HW215632  13.078   1.354   7.248
 4579SOL     OW15633  14.506   7.365  11.706
 4579SOL    HW115634  14.474   7.275  11.699
 4579SOL    HW215635  14.558   7.366  11.787
 4580SOL     OW15636  14.242   3.454  10.449
 4580SOL    HW115637  14.296   3.511  10.504
 4580SOL    HW215638  14.292   3.373  10.442
 4581SOL     OW15639   7.650  11.067   9.076
 4581SOL    HW115640   7.582  11.132   9.094
 4581SOL    HW215641   7.610  11.006   9.015
 4582SOL     OW15642   1.337  14.059   7.723
 4582SOL    HW115643   1.365  13.968   7.726
 4582SOL    HW215644   1.358  14.093   7.810
 4583SOL     OW15645   9.042   2.074   2.699
 4583SOL    HW115646   9.046   2.158   2.654
 4583SOL    HW215647   9.025   2.011   2.630
 4584SOL     OW15648   4.621  13.186  13.947
 4584SOL    HW115649   4.705  13.141  13.937
 4584SOL    HW215650   4.644  13.276  13.967
 4585SOL     OW15651  14.547   6.298   0.733
 4585SOL    HW115652  14.592   6.277   0.651
 4585SOL    HW215653  14.464   6.337   0.706
 4586SOL     OW15654   2.383   0.399   6.076
 4586SOL    HW115655   2.415   0.488   6.066
 4586SOL    HW215656   2.327   0.385   6.000
 4587SOL     OW15657   5.760   0.469   2.743
 4587SOL    HW115658   5.764   0.555   2.701
 4587SOL    HW215659   5.682   0.428   2.706
 4588SOL     OW15660  13.345  12.767   1.267
 4588SOL    HW115661  13.394  12.832   1.318
 4588SOL    HW215662  13.407  12.737   1.201
 4589SOL     OW15663  12.047  13.197   9.156
 4589SOL    HW115664  12.025  13.243   9.075
 4589SOL    HW215665  12.025  13.105   9.140
 4590SOL     OW15666  10.479   2.565   2.026
 4590SOL    HW115667  10.398   2.535   2.068
 4590SOL    HW215668  10.485   2.658   2.049
 4591SOL     OW15669   6.337   2.134   2.153
 4591SOL    HW115670   6.346   2.055   2.099
 4591SOL    HW215671   6.319   2.204   2.091
 4592SOL     OW15672   5.349   9.426   9.039
 4592SOL    HW115673   5.297   9.353   9.006
 4592SOL    HW215674   5.439   9.393   9.038
 4593SOL     OW15675   1.454   8.131  10.776
 4593SOL    HW115676   1.377   8.182  10.801
 4593SOL    HW215677   1.522   8.158  10.838
 4594SOL     OW15678   3.716   7.872   6.841
 4594SOL    HW115679   3.686   7.811   6.773
 4594SOL    HW215680   3.802   7.901   6.809
 4595SOL     OW15681   8.718  14.336  13.036
 4595SOL    HW115682   8.623  14.330  13.024
 4595SOL    HW215683   8.732  14.316  13.128
 4596SOL     OW15684  13.577   0.932   6.609
 4596SOL    HW115685  13.656   0.922   6.557
 4596SOL    HW215686  13.605   0.919   6.699
 4597SOL     OW15687   1.863  11.493   1.913
 4597SOL    HW115688   1.901  11.485   1.825
 4597SOL    HW215689   1.935  11.473   1.972
 4598SOL     OW15690   1.918  13.032  11.520
 4598SOL    HW115691   1.829  13.002  11.499
 4598SOL    HW215692   1.976  12.969  11.478
 4599SOL     OW15693  14.024  13.470   5.701
 4599SOL    HW115694  13.937  13.430   5.704
 4599SOL    HW215695  14.038  13.504   5.789
 4600SOL     OW15696  14.523   5.843   0.499
 4600SOL    HW115697  14.507   5.768   0.442
 4600SOL    HW215698  14.524   5.918   0.440
 4601SOL     OW15699  10.405   6.184   9.075
 4601SOL    HW115700  10.394   6.144   8.988
 4601SOL    HW215701  10.492   6.223   9.073
 4602SOL     OW15702   8.012   0.356   7.249
 4602SOL    HW115703   8.063   0.435   7.233
 4602SOL    HW215704   7.929   0.370   7.203
 4603SOL     OW15705   3.168  11.241  10.299
 4603SOL    HW115706   3.123  11.322  10.277
 4603SOL    HW215707   3.145  11.224  10.390
 4604SOL     OW15708   8.986   6.944   0.355
 4604SOL    HW115709   8.898   6.946   0.317
 4604SOL    HW215710   9.044   6.947   0.279
 4605SOL     OW15711   8.271   2.796   9.238
 4605SOL    HW115712   8.284   2.869   9.178
 4605SOL    HW215713   8.189   2.756   9.209
 4606SOL     OW15714   2.218   6.610  12.933
 4606SOL    HW115715   2.248   6.693  12.971
 4606SOL    HW215716   2.149   6.581  12.992
 4607SOL     OW15717   9.736   0.642   5.535
 4607SOL    HW115718   9.788   0.691   5.472
 4607SOL    HW215719   9.799   0.586   5.580
 4608SOL     OW15720  11.188  12.385   5.029
 4608SOL    HW115721  11.182  12.308   5.085
 4608SOL    HW215722  11.105  12.385   4.981
 4609SOL     OW15723  12.390   8.487  13.949
 4609SOL    HW115724  12.449   8.486  14.024
 4609SOL    HW215725  12.446   8.514  13.876
 4610SOL     OW15726   0.378  10.419  11.012
 4610SOL    HW115727   0.288  10.387  11.017
 4610SOL    HW215728   0.429  10.357  11.063
 4611SOL     OW15729  11.635   0.524   1.236
 4611SOL    HW115730  11.692   0.482   1.171
 4611SOL    HW215731  11.640   0.466   1.313
 4612SOL     OW15732  13.437   4.737   5.881
 4612SOL    HW115733  13.430   4.645   5.906
 4612SOL    HW215734  13.488   4.777   5.951
 4613SOL     OW15735  10.394   9.231   1.907
 4613SOL    HW115736  10.363   9.209   1.819
 4613SOL    HW215737  10.489   9.243   1.896
 4614SOL     OW15738   2.007  11.394   9.507
 4614SOL    HW115739   2.023  11.300   9.495
 4614SOL    HW215740   2.014  11.406   9.602
 4615SOL     OW15741   4.995  12.861   2.746
 4615SOL    HW115742   5.030  12.776   2.772
 4615SOL    HW215743   5.072  12.913   2.723
 4616SOL     OW15744   4.475  13.182  11.497
 4616SOL    HW115745   4.523  13.238  11.435
 4616SOL    HW215746   4.527  13.102  11.502
 4617SOL     OW15747  10.856   1.213   3.278
 4617SOL    HW115748  10.906   1.281   3.324
 4617SOL    HW215749  10.785   1.191   3.339
 4618SOL     OW15750   7.756  13.327   4.832
 4618SOL    HW115751   7.845  13.362   4.821
 4618SOL    HW215752   7.769  13.241   4.872
 4619SOL     OW15753   3.560  12.097   0.774
 4619SOL    HW115754   3.486  12.046   0.807
 4619SOL    HW215755   3.540  12.110   0.681
 4620SOL     OW15756   0.735  12.298   9.161
 4620SOL    HW115757   0.674  12.224   9.157
 4620SOL    HW215758   0.794  12.284   9.086
 4621SOL     OW15759  13.815  10.156   4.820
 4621SOL    HW115760  13.783  10.138   4.731
 4621SOL    HW215761  13.784  10.245   4.839
 4622SOL     OW15762   0.559  10.907   8.965
 4622SOL    HW115763   0.502  10.913   9.041
 4622SOL    HW215764   0.645  10.935   8.997
 4623SOL     OW15765   3.592   0.777   7.916
 4623SOL    HW115766   3.517   0.788   7.858
 4623SOL    HW215767   3.625   0.866   7.929
 4624SOL     OW15768   9.157  13.654   5.283
 4624SOL    HW115769   9.224  13.606   5.332
 4624SOL    HW215770   9.114  13.587   5.230
 4625SOL     OW15771   3.326   5.414  13.242
 4625SOL    HW115772   3.292   5.487  13.294
 4625SOL    HW215773   3.254   5.389  13.185
 4626SOL     OW15774   1.314   9.982   0.444
 4626SOL    HW115775   1.281   9.942   0.524
 4626SOL    HW215776   1.286   9.922   0.375
 4627SOL     OW15777   0.807   5.122   6.893
 4627SOL    HW115778   0.846   5.148   6.977
 4627SOL    HW215779   0.719   5.093   6.916
 4628SOL     OW15780   4.533   0.287   4.905
 4628SOL    HW115781   4.573   0.331   4.980
 4628SOL    HW215782   4.577   0.325   4.829
 4629SOL     OW15783   4.836  13.078  14.852
 4629SOL    HW115784   4.789  13.046   0.047
 4629SOL    HW215785   4.830  13.007  14.789
 4630SOL     OW15786   5.032  12.754  13.777
 4630SOL    HW115787   5.028  12.661  13.798
 4630SOL    HW215788   4.960  12.794  13.826
 4631SOL     OW15789   1.876  14.103   8.187
 4631SOL    HW115790   1.934  14.094   8.262
 4631SOL    HW215791   1.868  14.014   8.152
 4632SOL     OW15792  12.520  11.679   3.371
 4632SOL    HW115793  12.503  11.727   3.451
 4632SOL    HW215794  12.521  11.746   3.302
 4633SOL     OW15795   5.421   2.884   1.906
 4633SOL    HW115796   5.501   2.908   1.953
 4633SOL    HW215797   5.359   2.953   1.929
 4634SOL     OW15798   8.783   0.466   7.989
 4634SOL    HW115799   8.794   0.559   8.011
 4634SOL    HW215800   8.706   0.438   8.039
 4635SOL     OW15801   2.835   7.343   4.834
 4635SOL    HW115802   2.819   7.306   4.747
 4635SOL    HW215803   2.858   7.268   4.888
 4636SOL     OW15804   4.862  12.022   2.234
 4636SOL    HW115805   4.883  11.945   2.288
 4636SOL    HW215806   4.851  12.093   2.297
 4637SOL     OW15807   1.915  12.826  12.338
 4637SOL    HW115808   1.963  12.754  12.379
 4637SOL    HW215809   1.860  12.861  12.408
 4638SOL     OW15810  12.660  12.117  12.353
 4638SOL    HW115811  12.642  12.153  12.266
 4638SOL    HW215812  12.611  12.036  12.356
 4639SOL     OW15813  10.880  14.398   7.469
 4639SOL    HW115814  10.918  14.473   7.424
 4639SOL    HW215815  10.802  14.433   7.512
 4640SOL     OW15816  10.958   2.824   4.303
 4640SOL    HW115817  10.964   2.820   4.398
 4640SOL    HW215818  10.864   2.831   4.286
 4641SOL     OW15819  12.347  13.068   8.162
 4641SOL    HW115820  12.297  13.041   8.238
 4641SOL    HW215821  12.324  13.004   8.094
 4642SOL     OW15822   3.917   6.610   6.788
 4642SOL    HW115823   3.984   6.560   6.835
 4642SOL    HW215824   3.899   6.558   6.710
 4643SOL     OW15825  13.294   8.009   9.934
 4643SOL    HW115826  13.231   7.995   9.863
 4643SOL    HW215827  13.337   7.925   9.945
 4644SOL     OW15828   4.616   1.403   8.802
 4644SOL    HW115829   4.568   1.478   8.765
 4644SOL    HW215830   4.647   1.434   8.887
 4645SOL     OW15831   5.178  14.329   5.249
 4645SOL    HW115832   5.174  14.422   5.272
 4645SOL    HW215833   5.094  14.293   5.279
 4646SOL     OW15834   1.384  12.422  10.228
 4646SOL    HW115835   1.450  12.449  10.164
 4646SOL    HW215836   1.402  12.475  10.306
 4647SOL     OW15837   8.545   1.075   2.912
 4647SOL    HW115838   8.540   1.052   3.004
 4647SOL    HW215839   8.635   1.058   2.887
 4648SOL     OW15840   2.886   3.075   0.638
 4648SOL    HW115841   2.956   3.057   0.701
 4648SOL    HW215842   2.892   3.169   0.621
 4649SOL     OW15843   6.609   4.946   2.861
 4649SOL    HW115844   6.571   5.025   2.900
 4649SOL    HW215845   6.601   4.879   2.929
 4650SOL     OW15846   8.887   5.926   8.306
 4650SOL    HW115847   8.797   5.925   8.273
 4650SOL    HW215848   8.922   5.840   8.282
 4651SOL     OW15849  12.873   1.296   4.811
 4651SOL    HW115850  12.917   1.367   4.765
 4651SOL    HW215851  12.943   1.250   4.858
 4652SOL     OW15852  13.828   3.487   9.474
 4652SOL    HW115853  13.846   3.397   9.500
 4652SOL    HW215854  13.765   3.519   9.538
 4653SOL     OW15855   8.451  12.983   4.527
 4653SOL    HW115856   8.526  13.026   4.569
 4653SOL    HW215857   8.424  13.045   4.459
 4654SOL     OW15858   8.968   3.045   8.099
 4654SOL    HW115859   8.946   3.076   8.011
 4654SOL    HW215860   9.005   2.958   8.085
 4655SOL     OW15861   0.714   1.955  10.252
 4655SOL    HW115862   0.628   1.981  10.286
 4655SOL    HW215863   0.744   1.886  10.310
 4656SOL     OW15864   6.330   4.616   7.896
 4656SOL    HW115865   6.271   4.584   7.828
 4656SOL    HW215866   6.417   4.615   7.857
 4657SOL     OW15867  14.036   0.289   2.727
 4657SOL    HW115868  13.978   0.323   2.795
 4657SOL    HW215869  14.063   0.202   2.759
 4658SOL     OW15870  13.050   1.189   4.156
 4658SOL    HW115871  13.053   1.131   4.079
 4658SOL    HW215872  12.986   1.149   4.214
 4659SOL     OW15873   0.908   2.773   3.110
 4659SOL    HW115874   0.991   2.754   3.154
 4659SOL    HW215875   0.933   2.822   3.032
 4660SOL     OW15876   4.469   8.551   9.223
 4660SOL    HW115877   4.479   8.565   9.129
 4660SOL    HW215878   4.548   8.587   9.262
 4661SOL     OW15879  12.048   5.337  13.620
 4661SOL    HW115880  12.089   5.381  13.695
 4661SOL    HW215881  12.107   5.354  13.547
 4662SOL     OW15882  13.959   9.629   3.922
 4662SOL    HW115883  14.020   9.701   3.938
 4662SOL    HW215884  13.873   9.666   3.940
 4663SOL     OW15885  13.280   8.735   1.071
 4663SOL    HW115886  13.353   8.775   1.118
 4663SOL    HW215887  13.318   8.702   0.990
 4664SOL     OW15888   0.304  12.966   3.188
 4664SOL    HW115889   0.332  13.017   3.112
 4664SOL    HW215890   0.350  13.007   3.262
 4665SOL     OW15891   1.101   9.282   7.043
 4665SOL    HW115892   1.175   9.304   6.986
 4665SOL    HW215893   1.028   9.333   7.007
 4666SOL     OW15894   1.740   1.131   8.209
 4666SOL    HW115895   1.826   1.104   8.176
 4666SOL    HW215896   1.719   1.210   8.160
 4667SOL     OW15897   9.386  11.264  14.378
 4667SOL    HW115898   9.479  11.255  14.395
 4667SOL    HW215899   9.380  11.327  14.307
 4668SOL     OW15900   1.989   1.653  13.143
 4668SOL    HW115901   1.907   1.608  13.163
 4668SOL    HW215902   2.017   1.689  13.226
 4669SOL     OW15903  12.658   6.419  13.696
 4669SOL    HW115904  12.622   6.330  13.691
 4669SOL    HW215905  12.719   6.416  13.770
 4670SOL     OW15906   8.194  14.269  14.025
 4670SOL    HW115907   8.157  14.260  13.937
 4670SOL    HW215908   8.130  14.322  14.072
 4671SOL     OW15909   2.762  14.778  10.202
 4671SOL    HW115910   2.746  14.790  10.296
 4671SOL    HW215911   2.687  14.818  10.159
 4672SOL     OW15912  11.191   0.531   7.100
 4672SOL    HW115913  11.268   0.487   7.065
 4672SOL    HW215914  11.132   0.461   7.125
 4673SOL     OW15915  10.112   5.200   4.789
 4673SOL    HW115916  10.047   5.176   4.723
 4673SOL    HW215917  10.151   5.117   4.816
 4674SOL     OW15918   2.752  12.990   5.564
 4674SOL    HW115919   2.839  12.994   5.525
 4674SOL    HW215920   2.728  13.082   5.578
 4675SOL     OW15921   7.758   4.824   0.253
 4675SOL    HW115922   7.758   4.780   0.338
 4675SOL    HW215923   7.801   4.908   0.270
 4676SOL     OW15924   0.351   4.329   5.050
 4676SOL    HW115925   0.274   4.325   5.106
 4676SOL    HW215926   0.327   4.388   4.979
 4677SOL     OW15927   6.577   2.550   2.193
 4677SOL    HW115928   6.662   2.507   2.203
 4677SOL    HW215929   6.571   2.567   2.099
 4678SOL     OW15930  10.694  12.459   4.618
 4678SOL    HW115931  10.641  12.394   4.571
 4678SOL    HW215932  10.637  12.535   4.627
 4679SOL     OW15933   7.599   3.951  14.160
 4679SOL    HW115934   7.527   3.891  14.179
 4679SOL    HW215935   7.581   4.028  14.215
 4680SOL     OW15936  11.115   6.026   2.624
 4680SOL    HW115937  11.134   5.954   2.685
 4680SOL    HW215938  11.043   6.074   2.666
 4681SOL     OW15939  10.826  13.220   5.814
 4681SOL    HW115940  10.796  13.160   5.746
 4681SOL    HW215941  10.860  13.163   5.883
 4682SOL     OW15942   1.246   2.624   2.423
 4682SOL    HW115943   1.339   2.646   2.417
 4682SOL    HW215944   1.244   2.528   2.425
 4683SOL     OW15945  11.493  14.858   9.785
 4683SOL    HW115946  11.445  14.800   9.844
 4683SOL    HW215947  11.521  14.802   9.713
 4684SOL     OW15948  12.239   3.840   0.206
 4684SOL    HW115949  12.184   3.811   0.278
 4684SOL    HW215950  12.255   3.932   0.224
 4685SOL     OW15951   3.841   7.024  11.981
 4685SOL    HW115952   3.777   6.961  11.947
 4685SOL    HW215953   3.923   6.999  11.938
 4686SOL     OW15954   7.796   6.595   5.371
 4686SOL    HW115955   7.874   6.613   5.319
 4686SOL    HW215956   7.829   6.585   5.460
 4687SOL     OW15957  12.581  10.441   1.426
 4687SOL    HW115958  12.499  10.407   1.463
 4687SOL    HW215959  12.597  10.523   1.473
 4688SOL     OW15960  13.638  11.012   5.870
 4688SOL    HW115961  13.583  11.076   5.825
 4688SOL    HW215962  13.578  10.944   5.899
 4689SOL     OW15963   5.753  13.486   4.194
 4689SOL    HW115964   5.806  13.435   4.133
 4689SOL    HW215965   5.785  13.576   4.185
 4690SOL     OW15966  11.109   4.084  10.966
 4690SOL    HW115967  11.193   4.078  11.010
 4690SOL    HW215968  11.048   4.111  11.035
 4691SOL     OW15969   4.453   7.271  11.466
 4691SOL    HW115970   4.502   7.326  11.527
 4691SOL    HW215971   4.368   7.260  11.507
 4692SOL     OW15972   8.565   8.958   4.674
 4692SOL    HW115973   8.545   8.882   4.618
 4692SOL    HW215974   8.503   9.025   4.646
 4693SOL     OW15975  11.013   6.674   4.494
 4693SOL    HW115976  10.977   6.749   4.447
 4693SOL    HW215977  11.026   6.706   4.584
 4694SOL     OW15978   2.257   0.139   8.529
 4694SOL    HW115979   2.219   0.205   8.471
 4694SOL    HW215980   2.187   0.118   8.591
 4695SOL     OW15981  12.104  14.271  10.283
 4695SOL    HW115982  12.058  14.257  10.366
 4695SOL    HW215983  12.035  14.296  10.221
 4696SOL     OW15984   3.840  11.496   1.482
 4696SOL    HW115985   3.919  11.444   1.467
 4696SOL    HW215986   3.773  11.454   1.427
 4697SOL     OW15987  14.787   3.823   6.342
 4697SOL    HW115988  14.779   3.917   6.360
 4697SOL    HW215989  14.795   3.783   6.429
 4698SOL     OW15990   7.250   8.774   5.905
 4698SOL    HW115991   7.332   8.738   5.938
 4698SOL    HW215992   7.186   8.704   5.919
 4699SOL     OW15993   6.080   8.924  12.844
 4699SOL    HW115994   6.101   9.017  12.858
 4699SOL    HW215995   6.100   8.910  12.751
 4700SOL     OW15996   6.616   2.848   3.251
 4700SOL    HW115997   6.674   2.828   3.177
 4700SOL    HW215998   6.542   2.894   3.212
 4701SOL     OW15999   6.636  13.549   6.903
 4701SOL    HW116000   6.654  13.613   6.834
 4701SOL    HW216001   6.715  13.550   6.958
 4702SOL     OW16002   9.935   3.239   4.551
 4702SOL    HW116003   9.939   3.263   4.458
 4702SOL    HW216004  10.016   3.275   4.588
 4703SOL     OW16005   2.488   0.830   2.495
 4703SOL    HW116006   2.535   0.809   2.415
 4703SOL    HW216007   2.462   0.746   2.532
 4704SOL     OW16008   4.149  11.681  10.927
 4704SOL    HW116009   4.135  11.736  10.850
 4704SOL    HW216010   4.226  11.717  10.970
 4705SOL     OW16011  12.684   7.082  13.470
 4705SOL    HW116012  12.605   7.101  13.419
 4705SOL    HW216013  12.686   7.151  13.537
 4706SOL     OW16014   3.281  10.096   3.403
 4706SOL    HW116015   3.305  10.123   3.492
 4706SOL    HW216016   3.207  10.152   3.381
 4707SOL     OW16017  12.207  14.764   5.648
 4707SOL    HW116018  12.149  14.768   5.725
 4707SOL    HW216019  12.248  14.678   5.654
 4708SOL     OW16020   3.401   0.593   1.408
 4708SOL    HW116021   3.425   0.516   1.356
 4708SOL    HW216022   3.464   0.660   1.381
 4709SOL     OW16023  10.909   7.758   8.873
 4709SOL    HW116024  10.877   7.725   8.789
 4709SOL    HW216025  10.909   7.682   8.931
 4710SOL     OW16026  10.524   3.698  14.078
 4710SOL    HW116027  10.482   3.780  14.103
 4710SOL    HW216028  10.453   3.634  14.073
 4711SOL     OW16029   2.254   1.268  11.594
 4711SOL    HW116030   2.260   1.359  11.623
 4711SOL    HW216031   2.339   1.229  11.618
 4712SOL     OW16032   7.383   8.675   6.288
 4712SOL    HW116033   7.416   8.630   6.365
 4712SOL    HW216034   7.404   8.617   6.215
 4713SOL     OW16035   1.695   6.041  13.028
 4713SOL    HW116036   1.699   5.956  12.985
 4713SOL    HW216037   1.719   6.023  13.119
 4714SOL     OW16038   5.146   6.303   4.135
 4714SOL    HW116039   5.173   6.384   4.178
 4714SOL    HW216040   5.227   6.267   4.098
 4715SOL     OW16041   7.115  10.502   8.739
 4715SOL    HW116042   7.141  10.485   8.829
 4715SOL    HW216043   7.115  10.416   8.697
 4716SOL     OW16044   3.436   7.411   7.093
 4716SOL    HW116045   3.490   7.452   7.025
 4716SOL    HW216046   3.377   7.481   7.122
 4717SOL     OW16047  12.419   6.468   4.922
 4717SOL    HW116048  12.467   6.445   4.842
 4717SOL    HW216049  12.487   6.498   4.983
 4718SOL     OW16050   1.160   7.372   7.672
 4718SOL    HW116051   1.172   7.387   7.766
 4718SOL    HW216052   1.117   7.287   7.667
 4719SOL     OW16053   6.034  13.457   9.725
 4719SOL    HW116054   6.090  13.438   9.801
 4719SOL    HW216055   5.953  13.409   9.742
 4720SOL     OW16056  13.010   3.213   3.295
 4720SOL    HW116057  13.048   3.251   3.374
 4720SOL    HW216058  13.029   3.277   3.227
 4721SOL     OW16059   9.631   6.729   2.105
 4721SOL    HW116060   9.575   6.673   2.158
 4721SOL    HW216061   9.628   6.691   2.017
 4722SOL     OW16062   0.448   2.275   0.894
 4722SOL    HW116063   0.364   2.255   0.936
 4722SOL    HW216064   0.511   2.275   0.966
 4723SOL     OW16065  13.234  10.686   2.458
 4723SOL    HW116066  13.263  10.600   2.487
 4723SOL    HW216067  13.142  10.691   2.485
 4724SOL     OW16068   1.318  13.506  12.648
 4724SOL    HW116069   1.382  13.450  12.604
 4724SOL    HW216070   1.353  13.595  12.639
 4725SOL     OW16071  14.679   9.290   0.590
 4725SOL    HW116072  14.682   9.225   0.519
 4725SOL    HW216073  14.769   9.297   0.620
 4726SOL     OW16074   5.927   5.222  10.595
 4726SOL    HW116075   5.841   5.219  10.553
 4726SOL    HW216076   5.948   5.130  10.613
 4727SOL     OW16077   1.048   0.897   2.305
 4727SOL    HW116078   1.141   0.881   2.286
 4727SOL    HW216079   1.001   0.835   2.250
 4728SOL     OW16080   3.213  10.712   2.383
 4728SOL    HW116081   3.303  10.724   2.417
 4728SOL    HW216082   3.224  10.707   2.288
 4729SOL     OW16083   0.975   3.436   4.360
 4729SOL    HW116084   0.913   3.477   4.420
 4729SOL    HW216085   1.059   3.477   4.382
 4730SOL     OW16086  11.786   5.124   4.259
 4730SOL    HW116087  11.825   5.211   4.264
 4730SOL    HW216088  11.693   5.138   4.274
 4731SOL     OW16089   2.704   4.028   4.874
 4731SOL    HW116090   2.772   4.075   4.825
 4731SOL    HW216091   2.631   4.021   4.814
 4732SOL     OW16092   3.410   3.864  11.792
 4732SOL    HW116093   3.373   3.923  11.726
 4732SOL    HW216094   3.452   3.794  11.741
 4733SOL     OW16095  13.355   8.273   4.395
 4733SOL    HW116096  13.305   8.192   4.392
 4733SOL    HW216097  13.290   8.342   4.381
 4734SOL     OW16098   4.352   6.532   4.963
 4734SOL    HW116099   4.443   6.507   4.943
 4734SOL    HW216100   4.340   6.616   4.920
 4735SOL     OW16101   4.319   3.959  14.341
 4735SOL    HW116102   4.258   3.886  14.350
 4735SOL    HW216103   4.366   3.961  14.424
 4736SOL     OW16104  13.260   0.769  13.280
 4736SOL    HW116105  13.237   0.862  13.283
 4736SOL    HW216106  13.327   0.763  13.212
 4737SOL     OW16107  10.785   9.962   5.275
 4737SOL    HW116108  10.869  10.008   5.275
 4737SOL    HW216109  10.792   9.898   5.345
 4738SOL     OW16110   5.062   1.694   8.683
 4738SOL    HW116111   5.087   1.652   8.766
 4738SOL    HW216112   5.144   1.698   8.633
 4739SOL     OW16113   8.921   7.882   4.394
 4739SOL    HW116114   8.990   7.896   4.459
 4739SOL    HW216115   8.969   7.868   4.312
 4740SOL     OW16116   8.056   5.858   0.527
 4740SOL    HW116117   7.998   5.785   0.508
 4740SOL    HW216118   7.998   5.933   0.538
 4741SOL     OW16119  11.191   5.567   9.425
 4741SOL    HW116120  11.218   5.644   9.475
 4741SOL    HW216121  11.239   5.575   9.342
 4742SOL     OW16122   2.077   1.623   3.177
 4742SOL    HW116123   1.999   1.652   3.224
 4742SOL    HW216124   2.150   1.666   3.222
 4743SOL     OW16125   6.284   8.000   3.173
 4743SOL    HW116126   6.327   8.072   3.126
 4743SOL    HW216127   6.295   8.023   3.265
 4744SOL     OW16128   7.794   9.663  14.478
 4744SOL    HW116129   7.747   9.583  14.455
 4744SOL    HW216130   7.766   9.682  14.568
 4745SOL     OW16131   3.166   6.696  10.627
 4745SOL    HW116132   3.243   6.639  10.624
 4745SOL    HW216133   3.180   6.758  10.556
 4746SOL     OW16134  10.854   2.273  14.528
 4746SOL    HW116135  10.911   2.202  14.559
 4746SOL    HW216136  10.913   2.333  14.482
 4747SOL     OW16137   6.481  13.874   4.554
 4747SOL    HW116138   6.511  13.961   4.579
 4747SOL    HW216139   6.559  13.830   4.520
 4748SOL     OW16140   8.521   9.895   2.114
 4748SOL    HW116141   8.437   9.939   2.107
 4748SOL    HW216142   8.572   9.950   2.174
 4749SOL     OW16143  10.956   8.094   7.241
 4749SOL    HW116144  10.923   8.013   7.278
 4749SOL    HW216145  11.022   8.124   7.303
 4750SOL     OW16146   3.516  11.285   5.461
 4750SOL    HW116147   3.608  11.275   5.440
 4750SOL    HW216148   3.502  11.228   5.537
 4751SOL     OW16149  10.799  10.390  12.204
 4751SOL    HW116150  10.767  10.307  12.169
 4751SOL    HW216151  10.888  10.372  12.232
 4752SOL     OW16152  14.323  11.807  11.126
 4752SOL    HW116153  14.358  11.896  11.124
 4752SOL    HW216154  14.396  11.753  11.157
 4753SOL     OW16155  10.606  10.543   7.189
 4753SOL    HW116156  10.684  10.564   7.240
 4753SOL    HW216157  10.582  10.624   7.145
 4754SOL     OW16158   1.844   2.149   2.244
 4754SOL    HW116159   1.855   2.243   2.235
 4754SOL    HW216160   1.929   2.112   2.222
 4755SOL     OW16161   6.516   7.642  13.738
 4755SOL    HW116162   6.481   7.556  13.760
 4755SOL    HW216163   6.456   7.676  13.671
 4756SOL     OW16164   8.934  11.949   5.687
 4756SOL    HW116165   8.956  11.968   5.778
 4756SOL    HW216166   8.907  12.034   5.650
 4757SOL     OW16167   3.060  11.011  10.190
 4757SOL    HW116168   3.079  11.025  10.098
 4757SOL    HW216169   3.094  11.090  10.234
 4758SOL     OW16170   6.839   7.883   8.829
 4758SOL    HW116171   6.782   7.921   8.896
 4758SOL    HW216172   6.904   7.834   8.879
 4759SOL     OW16173   6.943   9.032   8.123
 4759SOL    HW116174   6.962   9.100   8.187
 4759SOL    HW216175   6.896   9.078   8.053
 4760SOL     OW16176  12.828   2.468  12.307
 4760SOL    HW116177  12.888   2.522  12.358
 4760SOL    HW216178  12.787   2.528  12.245
 4761SOL     OW16179   6.998  10.041  13.992
 4761SOL    HW116180   7.072  10.089  13.956
 4761SOL    HW216181   6.929  10.107  14.003
 4762SOL     OW16182   0.169   6.388  10.807
 4762SOL    HW116183   0.257   6.420  10.787
 4762SOL    HW216184   0.111   6.440  10.752
 4763SOL     OW16185   1.293  14.386   4.165
 4763SOL    HW116186   1.337  14.470   4.181
 4763SOL    HW216187   1.200  14.408   4.161
 4764SOL     OW16188  11.868   9.819   1.537
 4764SOL    HW116189  11.957   9.787   1.553
 4764SOL    HW216190  11.875   9.914   1.544
 4765SOL     OW16191   8.145  11.599  11.128
 4765SOL    HW116192   8.139  11.519  11.180
 4765SOL    HW216193   8.155  11.568  11.038
 4766SOL     OW16194   2.906  14.313   8.346
 4766SOL    HW116195   2.940  14.282   8.430
 4766SOL    HW216196   2.984  14.328   8.293
 4767SOL     OW16197   7.342   4.328   1.913
 4767SOL    HW116198   7.247   4.339   1.921
 4767SOL    HW216199   7.379   4.384   1.982
 4768SOL     OW16200   9.842  11.782   4.181
 4768SOL    HW116201   9.893  11.776   4.262
 4768SOL    HW216202   9.816  11.874   4.175
 4769SOL     OW16203   8.516   6.325   8.714
 4769SOL    HW116204   8.488   6.310   8.804
 4769SOL    HW216205   8.452   6.277   8.661
 4770SOL     OW16206   5.931   2.333  13.247
 4770SOL    HW116207   5.917   2.388  13.324
 4770SOL    HW216208   6.026   2.328  13.237
 4771SOL     OW16209   7.325   8.543   2.434
 4771SOL    HW116210   7.412   8.550   2.396
 4771SOL    HW216211   7.292   8.632   2.436
 4772SOL     OW16212  11.828  12.095   2.791
 4772SOL    HW116213  11.914  12.060   2.769
 4772SOL    HW216214  11.802  12.145   2.713
 4773SOL     OW16215  10.516   6.373   0.332
 4773SOL    HW116216  10.607   6.345   0.336
 4773SOL    HW216217  10.521   6.467   0.315
 4774SOL     OW16218  13.113   3.138  11.230
 4774SOL    HW116219  13.148   3.222  11.203
 4774SOL    HW216220  13.026   3.158  11.266
 4775SOL     OW16221   1.088  13.978   8.945
 4775SOL    HW116222   1.105  13.884   8.943
 4775SOL    HW216223   1.006  13.989   8.896
 4776SOL     OW16224   7.553   1.206   3.182
 4776SOL    HW116225   7.637   1.190   3.141
 4776SOL    HW216226   7.544   1.301   3.184
 4777SOL     OW16227   1.634   2.693  14.874
 4777SOL    HW116228   1.540   2.702   0.008
 4777SOL    HW216229   1.648   2.598  14.873
 4778SOL     OW16230   9.231   8.825  13.526
 4778SOL    HW116231   9.276   8.751  13.565
 4778SOL    HW216232   9.147   8.829  13.572
 4779SOL     OW16233   1.265   3.932   2.340
 4779SOL    HW116234   1.352   3.895   2.354
 4779SOL    HW216235   1.235   3.957   2.428
 4780SOL     OW16236   0.628  12.690  10.680
 4780SOL    HW116237   0.700  12.715  10.738
 4780SOL    HW216238   0.581  12.772  10.664
 4781SOL     OW16239  12.194   2.235   9.036
 4781SOL    HW116240  12.184   2.228   9.131
 4781SOL    HW216241  12.111   2.273   9.006
 4782SOL     OW16242   0.721   4.403  13.252
 4782SOL    HW116243   0.785   4.364  13.192
 4782SOL    HW216244   0.655   4.335  13.263
 4783SOL     OW16245  13.166  10.281   7.469
 4783SOL    HW116246  13.117  10.202   7.494
 4783SOL    HW216247  13.196  10.264   7.380
 4784SOL     OW16248  14.186   0.831   5.542
 4784SOL    HW116249  14.147   0.891   5.478
 4784SOL    HW216250  14.117   0.819   5.608
 4785SOL     OW16251   0.469   7.768   7.669
 4785SOL    HW116252   0.384   7.752   7.628
 4785SOL    HW216253   0.458   7.738   7.759
 4786SOL     OW16254   1.401  12.294  12.065
 4786SOL    HW116255   1.376  12.251  12.147
 4786SOL    HW216256   1.432  12.381  12.092
 4787SOL     OW16257   8.367   7.826   2.569
 4787SOL    HW116258   8.408   7.763   2.629
 4787SOL    HW216259   8.304   7.774   2.520
 4788SOL     OW16260  10.431   5.661  14.518
 4788SOL    HW116261  10.428   5.566  14.507
 4788SOL    HW216262  10.421   5.675  14.612
 4789SOL     OW16263   6.940   0.947  13.234
 4789SOL    HW116264   6.865   0.972  13.287
 4789SOL    HW216265   6.907   0.874  13.180
 4790SOL     OW16266  10.988  12.195   6.004
 4790SOL    HW116267  11.080  12.183   6.029
 4790SOL    HW216268  10.953  12.106   5.999
 4791SOL     OW16269   0.576  14.327   8.966
 4791SOL    HW116270   0.520  14.317   9.044
 4791SOL    HW216271   0.533  14.394   8.914
 4792SOL     OW16272   3.132   3.789   2.081
 4792SOL    HW116273   3.070   3.736   2.031
 4792SOL    HW216274   3.093   3.876   2.081
 4793SOL     OW16275   5.078   5.420  12.891
 4793SOL    HW116276   5.074   5.459  12.979
 4793SOL    HW216277   4.989   5.428  12.857
 4794SOL     OW16278   8.333   4.701  11.506
 4794SOL    HW116279   8.410   4.689  11.451
 4794SOL    HW216280   8.339   4.792  11.536
 4795SOL     OW16281   2.309   3.459  14.497
 4795SOL    HW116282   2.381   3.414  14.453
 4795SOL    HW216283   2.242   3.470  14.429
 4796SOL     OW16284   8.006  10.137  14.399
 4796SOL    HW116285   8.061  10.213  14.380
 4796SOL    HW216286   7.934  10.143  14.335
 4797SOL     OW16287   4.256   6.240   3.927
 4797SOL    HW116288   4.268   6.334   3.915
 4797SOL    HW216289   4.164   6.224   3.906
 4798SOL     OW16290   7.499   0.418   2.198
 4798SOL    HW116291   7.546   0.502   2.197
 4798SOL    HW216292   7.568   0.352   2.198
 4799SOL     OW16293  11.447   2.743   9.277
 4799SOL    HW116294  11.417   2.824   9.319
 4799SOL    HW216295  11.386   2.730   9.204
 4800SOL     OW16296   2.855   6.771  14.319
 4800SOL    HW116297   2.917   6.805  14.383
 4800SOL    HW216298   2.909   6.729  14.253
 4801SOL     OW16299   6.018   2.375  13.631
 4801SOL    HW116300   5.944   2.379  13.691
 4801SOL    HW216301   6.075   2.308  13.669
 4802SOL     OW16302   1.985   4.029  13.366
 4802SOL    HW116303   1.969   4.035  13.272
 4802SOL    HW216304   1.996   3.935  13.382
 4803SOL     OW16305   6.552   6.656  10.883
 4803SOL    HW116306   6.490   6.600  10.929
 4803SOL    HW216307   6.535   6.744  10.918
 4804SOL     OW16308  14.765   4.360   2.397
 4804SOL    HW116309  14.753   4.451   2.368
 4804SOL    HW216310  14.702   4.350   2.469
 4805SOL     OW16311   2.751   2.929  11.042
 4805SOL    HW116312   2.689   2.910  10.971
 4805SOL    HW216313   2.695   2.953  11.116
 4806SOL     OW16314  14.403   1.693   0.655
 4806SOL    HW116315  14.313   1.675   0.629
 4806SOL    HW216316  14.395   1.750   0.731
 4807SOL     OW16317   0.092   1.557   4.934
 4807SOL    HW116318   0.057   1.477   4.973
 4807SOL    HW216319   0.074   1.625   5.000
 4808SOL     OW16320   7.709   2.635   0.602
 4808SOL    HW116321   7.648   2.700   0.567
 4808SOL    HW216322   7.697   2.639   0.696
 4809SOL     OW16323  10.179   0.152   2.108
 4809SOL    HW116324  10.100   0.149   2.163
 4809SOL    HW216325  10.200   0.060   2.092
 4810SOL     OW16326   7.616   8.533  10.164
 4810SOL    HW116327   7.703   8.493  10.171
 4810SOL    HW216328   7.591   8.553  10.254
 4811SOL     OW16329  11.019   6.901   0.445
 4811SOL    HW116330  11.046   6.865   0.529
 4811SOL    HW216331  10.944   6.846   0.419
 4812SOL     OW16332  11.766  14.382   0.727
 4812SOL    HW116333  11.730  14.427   0.651
 4812SOL    HW216334  11.824  14.315   0.690
 4813SOL     OW16335   1.449   5.725   7.449
 4813SOL    HW116336   1.378   5.692   7.394
 4813SOL    HW216337   1.409   5.795   7.500
 4814SOL     OW16338  12.034  12.572   6.783
 4814SOL    HW116339  11.956  12.532   6.745
 4814SOL    HW216340  12.107  12.523   6.746
 4815SOL     OW16341  14.090  12.380   4.331
 4815SOL    HW116342  14.147  12.346   4.400
 4815SOL    HW216343  14.002  12.373   4.367
 4816SOL     OW16344   2.797   7.958   3.556
 4816SOL    HW116345   2.809   7.893   3.487
 4816SOL    HW216346   2.714   7.935   3.597
 4817SOL     OW16347   6.799   8.040  13.421
 4817SOL    HW116348   6.814   8.096  13.345
 4817SOL    HW216349   6.886   8.009  13.446
 4818SOL     OW16350  14.549   1.527  11.886
 4818SOL    HW116351  14.540   1.521  11.981
 4818SOL    HW216352  14.613   1.459  11.864
 4819SOL     OW16353   0.579  10.752  10.794
 4819SOL    HW116354   0.637  10.704  10.854
 4819SOL    HW216355   0.518  10.799  10.852
 4820SOL     OW16356   1.279   1.151   8.886
 4820SOL    HW116357   1.281   1.135   8.981
 4820SOL    HW216358   1.311   1.241   8.876
 4821SOL     OW16359   0.341   8.128   7.867
 4821SOL    HW116360   0.299   8.111   7.782
 4821SOL    HW216361   0.435   8.123   7.848
 4822SOL     OW16362  12.606   4.924  13.087
 4822SOL    HW116363  12.540   4.926  13.156
 4822SOL    HW216364  12.677   4.979  13.120
 4823SOL     OW16365   0.442   2.839   6.928
 4823SOL    HW116366   0.423   2.758   6.975
 4823SOL    HW216367   0.386   2.905   6.971
 4824SOL     OW16368   8.700  11.032   9.617
 4824SOL    HW116369   8.695  10.947   9.661
 4824SOL    HW216370   8.789  11.035   9.580
 4825SOL     OW16371   7.456   4.091  14.360
 4825SOL    HW116372   7.364   4.073  14.345
 4825SOL    HW216373   7.457   4.158  14.429
 4826SOL     OW16374  12.755  11.303   0.029
 4826SOL    HW116375  12.702  11.305   0.109
 4826SOL    HW216376  12.816  11.376   0.038
 4827SOL     OW16377   5.758  12.811   0.475
 4827SOL    HW116378   5.750  12.788   0.568
 4827SOL    HW216379   5.848  12.840   0.464
 4828SOL     OW16380  12.906   9.841   5.186
 4828SOL    HW116381  12.833   9.903   5.178
 4828SOL    HW216382  12.872   9.759   5.152
 4829SOL     OW16383   1.118  13.159  13.568
 4829SOL    HW116384   1.141  13.075  13.529
 4829SOL    HW216385   1.024  13.152  13.585
 4830SOL     OW16386   7.508  13.412   4.460
 4830SOL    HW116387   7.484  13.342   4.399
 4830SOL    HW216388   7.599  13.393   4.483
 4831SOL     OW16389   2.137   6.216   7.624
 4831SOL    HW116390   2.147   6.136   7.677
 4831SOL    HW216391   2.162   6.189   7.536
 4832SOL     OW16392   8.881  11.790  11.769
 4832SOL    HW116393   8.915  11.870  11.809
 4832SOL    HW216394   8.834  11.821  11.691
 4833SOL     OW16395   5.804   1.987   7.742
 4833SOL    HW116396   5.897   2.006   7.745
 4833SOL    HW216397   5.794   1.925   7.669
 4834SOL     OW16398   9.508   5.615   2.757
 4834SOL    HW116399   9.427   5.569   2.733
 4834SOL    HW216400   9.540   5.651   2.675
 4835SOL     OW16401  14.511  14.180   3.209
 4835SOL    HW116402  14.533  14.181   3.302
 4835SOL    HW216403  14.447  14.251   3.198
 4836SOL     OW16404   2.267   7.980   0.673
 4836SOL    HW116405   2.208   7.992   0.748
 4836SOL    HW216406   2.231   7.905   0.626
 4837SOL     OW16407   5.191   8.013  14.834
 4837SOL    HW116408   5.226   8.087   0.003
 4837SOL    HW216409   5.256   7.999  14.765
 4838SOL     OW16410   9.638  12.951   2.781
 4838SOL    HW116411   9.697  12.936   2.854
 4838SOL    HW216412   9.580  12.875   2.781
 4839SOL     OW16413   1.353   0.243   2.579
 4839SOL    HW116414   1.417   0.230   2.509
 4839SOL    HW216415   1.307   0.159   2.586
 4840SOL     OW16416   4.336  12.258   3.064
 4840SOL    HW116417   4.361  12.350   3.049
 4840SOL    HW216418   4.287  12.234   2.986
 4841SOL     OW16419  11.544   0.034  11.464
 4841SOL    HW116420  11.521  14.881  11.378
 4841SOL    HW216421  11.571   0.124  11.448
 4842SOL     OW16422   1.345  10.054   6.182
 4842SOL    HW116423   1.256  10.087   6.199
 4842SOL    HW216424   1.343   9.963   6.210
 4843SOL     OW16425   6.562  13.062   5.482
 4843SOL    HW116426   6.517  13.145   5.497
 4843SOL    HW216427   6.585  13.032   5.570
 4844SOL     OW16428   8.451   3.304  10.328
 4844SOL    HW116429   8.489   3.328  10.413
 4844SOL    HW216430   8.380   3.244  10.350
 4845SOL     OW16431   2.339   1.940  11.118
 4845SOL    HW116432   2.374   2.000  11.184
 4845SOL    HW216433   2.272   1.991  11.072
 4846SOL     OW16434  12.148   9.764  13.132
 4846SOL    HW116435  12.108   9.839  13.089
 4846SOL    HW216436  12.116   9.688  13.084
 4847SOL     OW16437   7.817   7.846   6.743
 4847SOL    HW116438   7.861   7.916   6.791
 4847SOL    HW216439   7.858   7.766   6.774
 4848SOL     OW16440   8.298   9.974  12.058
 4848SOL    HW116441   8.392   9.958  12.064
 4848SOL    HW216442   8.262   9.933  12.137
 4849SOL     OW16443  14.467   4.240   4.629
 4849SOL    HW116444  14.444   4.208   4.542
 4849SOL    HW216445  14.393   4.215   4.685
 4850SOL     OW16446   0.282   2.395   3.176
 4850SOL    HW116447   0.285   2.490   3.162
 4850SOL    HW216448   0.234   2.361   3.100
 4851SOL     OW16449   0.335  12.092   5.053
 4851SOL    HW116450   0.427  12.109   5.032
 4851SOL    HW216451   0.317  12.147   5.129
 4852SOL     OW16452   4.536   5.097   9.404
 4852SOL    HW116453   4.494   5.130   9.483
 4852SOL    HW216454   4.511   5.161   9.336
 4853SOL     OW16455   4.242   3.434  12.247
 4853SOL    HW116456   4.305   3.503  12.269
 4853SOL    HW216457   4.262   3.411  12.157
 4854SOL     OW16458   6.536   6.583   6.844
 4854SOL    HW116459   6.604   6.591   6.911
 4854SOL    HW216460   6.532   6.670   6.803
 4855SOL     OW16461   4.537   0.810   3.643
 4855SOL    HW116462   4.491   0.842   3.720
 4855SOL    HW216463   4.569   0.723   3.668
 4856SOL     OW16464  12.525   6.392   5.834
 4856SOL    HW116465  12.489   6.342   5.907
 4856SOL    HW216466  12.604   6.433   5.869
 4857SOL     OW16467   6.864   2.091   6.863
 4857SOL    HW116468   6.813   2.116   6.940
 4857SOL    HW216469   6.817   2.131   6.790
 4858SOL     OW16470   8.140   7.859   4.015
 4858SOL    HW116471   8.155   7.858   4.109
 4858SOL    HW216472   8.214   7.810   3.979
 4859SOL     OW16473  12.198  12.275   0.986
 4859SOL    HW116474  12.222  12.367   0.974
 4859SOL    HW216475  12.108  12.270   0.954
 4860SOL     OW16476  12.474   5.397  12.833
 4860SOL    HW116477  12.382   5.380  12.848
 4860SOL    HW216478  12.484   5.491  12.846
 4861SOL     OW16479  10.854   3.856   1.502
 4861SOL    HW116480  10.867   3.804   1.422
 4861SOL    HW216481  10.893   3.804   1.571
 4862SOL     OW16482   9.822   4.869   6.825
 4862SOL    HW116483   9.815   4.957   6.862
 4862SOL    HW216484   9.879   4.880   6.748
 4863SOL     OW16485   3.553  14.846   3.056
 4863SOL    HW116486   3.614  14.772   3.050
 4863SOL    HW216487   3.545  14.878   2.966
 4864SOL     OW16488   6.242   1.367   1.920
 4864SOL    HW116489   6.266   1.340   2.008
 4864SOL    HW216490   6.271   1.458   1.914
 4865SOL     OW16491   2.017   5.565  13.878
 4865SOL    HW116492   1.976   5.649  13.856
 4865SOL    HW216493   2.054   5.579  13.965
 4866SOL     OW16494  13.111  12.059  13.212
 4866SOL    HW116495  13.053  12.039  13.138
 4866SOL    HW216496  13.196  12.079  13.171
 4867SOL     OW16497  12.396   6.299   2.752
 4867SOL    HW116498  12.315   6.349   2.760
 4867SOL    HW216499  12.367   6.213   2.722
 4868SOL     OW16500   2.738  11.376   0.428
 4868SOL    HW116501   2.653  11.398   0.389
 4868SOL    HW216502   2.726  11.395   0.521
 4869SOL     OW16503   9.630  14.567  13.555
 4869SOL    HW116504   9.692  14.534  13.490
 4869SOL    HW216505   9.620  14.495  13.617
 4870SOL     OW16506  10.933  14.677   1.148
 4870SOL    HW116507  10.855  14.716   1.188
 4870SOL    HW216508  10.954  14.603   1.203
 4871SOL     OW16509   8.949  14.783  12.850
 4871SOL    HW116510   8.867  14.736  12.863
 4871SOL    HW216511   9.017  14.720  12.874
 4872SOL     OW16512   2.580   4.086  14.761
 4872SOL    HW116513   2.488   4.070  14.785
 4872SOL    HW216514   2.608   4.003  14.722
 4873SOL     OW16515   0.146  10.063  14.319
 4873SOL    HW116516   0.145  10.155  14.292
 4873SOL    HW216517   0.199  10.062  14.398
 4874SOL     OW16518   6.074   8.993  13.373
 4874SOL    HW116519   6.005   8.991  13.306
 4874SOL    HW216520   6.026   8.992  13.456
 4875SOL     OW16521  14.150   2.321   2.057
 4875SOL    HW116522  14.174   2.382   2.126
 4875SOL    HW216523  14.054   2.325   2.054
 4876SOL     OW16524   9.594   2.240  11.831
 4876SOL    HW116525   9.515   2.190  11.809
 4876SOL    HW216526   9.653   2.175  11.869
 4877SOL     OW16527   4.537  11.359  12.114
 4877SOL    HW116528   4.611  11.304  12.137
 4877SOL    HW216529   4.464  11.298  12.104
 4878SOL     OW16530   8.425   8.150   4.304
 4878SOL    HW116531   8.468   8.208   4.367
 4878SOL    HW216532   8.445   8.061   4.336
 4879SOL     OW16533  14.398   9.507  13.499
 4879SOL    HW116534  14.371   9.442  13.563
 4879SOL    HW216535  14.490   9.523  13.518
 4880SOL     OW16536   1.397  13.649  10.656
 4880SOL    HW116537   1.374  13.707  10.729
 4880SOL    HW216538   1.384  13.561  10.691
 4881SOL     OW16539   7.929  11.015  11.279
 4881SOL    HW116540   7.966  11.058  11.356
 4881SOL    HW216541   7.919  10.924  11.304
 4882SOL     OW16542   7.384   8.822   0.972
 4882SOL    HW116543   7.401   8.755   1.039
 4882SOL    HW216544   7.290   8.815   0.955
 4883SOL     OW16545  12.154   2.763   6.292
 4883SOL    HW116546  12.066   2.727   6.276
 4883SOL    HW216547  12.161   2.766   6.387
 4884SOL     OW16548   9.152   3.212   5.387
 4884SOL    HW116549   9.100   3.177   5.315
 4884SOL    HW216550   9.167   3.304   5.362
 4885SOL     OW16551  11.398   6.858   0.783
 4885SOL    HW116552  11.410   6.804   0.704
 4885SOL    HW216553  11.360   6.939   0.750
 4886SOL     OW16554  14.609   7.927  10.588
 4886SOL    HW116555  14.683   7.962  10.637
 4886SOL    HW216556  14.532   7.953  10.640
 4887SOL     OW16557   7.352   1.615  10.493
 4887SOL    HW116558   7.286   1.547  10.511
 4887SOL    HW216559   7.435   1.575  10.520
 4888SOL     OW16560   7.966  14.290   3.979
 4888SOL    HW116561   8.037  14.252   4.030
 4888SOL    HW216562   7.893  14.298   4.040
 4889SOL     OW16563   4.425   3.836   7.355
 4889SOL    HW116564   4.378   3.773   7.300
 4889SOL    HW216565   4.364   3.908   7.367
 4890SOL     OW16566   1.860   7.756   3.404
 4890SOL    HW116567   1.776   7.721   3.434
 4890SOL    HW216568   1.889   7.812   3.476
 4891SOL     OW16569  12.030   5.173   5.392
 4891SOL    HW116570  12.003   5.203   5.305
 4891SOL    HW216571  12.018   5.250   5.448
 4892SOL     OW16572   2.745   4.679   3.650
 4892SOL    HW116573   2.806   4.605   3.658
 4892SOL    HW216574   2.661   4.644   3.679
 4893SOL     OW16575   8.622  13.298  12.782
 4893SOL    HW116576   8.628  13.302  12.687
 4893SOL    HW216577   8.706  13.262  12.810
 4894SOL     OW16578   2.679   1.109   5.787
 4894SOL    HW116579   2.704   1.194   5.824
 4894SOL    HW216580   2.739   1.097   5.713
 4895SOL     OW16581   1.947   6.615   6.825
 4895SOL    HW116582   2.028   6.654   6.856
 4895SOL    HW216583   1.927   6.663   6.744
 4896SOL     OW16584  12.070   3.444  14.560
 4896SOL    HW116585  11.988   3.489  14.583
 4896SOL    HW216586  12.133   3.476  14.624
 4897SOL     OW16587  10.996  11.192   6.740
 4897SOL    HW116588  11.012  11.286   6.748
 4897SOL    HW216589  10.901  11.184   6.736
 4898SOL     OW16590   4.062   2.655   8.644
 4898SOL    HW116591   4.099   2.630   8.729
 4898SOL    HW216592   4.132   2.638   8.581
 4899SOL     OW16593   5.445  14.605  13.608
 4899SOL    HW116594   5.464  14.564  13.524
 4899SOL    HW216595   5.450  14.699  13.590
 4900SOL     OW16596   8.114  10.028   9.079
 4900SOL    HW116597   8.089  10.100   9.022
 4900SOL    HW216598   8.032   9.991   9.110
 4901SOL     OW16599  14.525   0.172   3.825
 4901SOL    HW116600  14.503   0.131   3.909
 4901SOL    HW216601  14.468   0.248   3.819
 4902SOL     OW16602   6.326   4.896   0.346
 4902SOL    HW116603   6.235   4.910   0.320
 4902SOL    HW216604   6.365   4.983   0.344
 4903SOL     OW16605   3.314  12.069   3.817
 4903SOL    HW116606   3.335  12.141   3.757
 4903SOL    HW216607   3.232  12.096   3.858
 4904SOL     OW16608   0.786   5.074  12.547
 4904SOL    HW116609   0.752   5.022  12.475
 4904SOL    HW216610   0.751   5.032  12.626
 4905SOL     OW16611   6.821   6.525   9.074
 4905SOL    HW116612   6.841   6.433   9.091
 4905SOL    HW216613   6.839   6.569   9.156
 4906SOL     OW16614   9.362   9.083   4.475
 4906SOL    HW116615   9.424   9.056   4.542
 4906SOL    HW216616   9.323   9.164   4.509
 4907SOL     OW16617   0.673  10.649   8.231
 4907SOL    HW116618   0.620  10.577   8.264
 4907SOL    HW216619   0.640  10.726   8.276
 4908SOL     OW16620  10.471   2.461  14.677
 4908SOL    HW116621  10.393   2.516  14.677
 4908SOL    HW216622  10.438   2.374  14.700
 4909SOL     OW16623   6.787  11.657   2.304
 4909SOL    HW116624   6.731  11.589   2.267
 4909SOL    HW216625   6.863  11.660   2.246
 4910SOL     OW16626  10.825  14.109   5.338
 4910SOL    HW116627  10.890  14.173   5.369
 4910SOL    HW216628  10.799  14.141   5.252
 4911SOL     OW16629   2.727   7.100  13.605
 4911SOL    HW116630   2.670   7.027  13.625
 4911SOL    HW216631   2.713   7.117  13.512
 4912SOL     OW16632  12.862  12.177   8.004
 4912SOL    HW116633  12.863  12.098   7.950
 4912SOL    HW216634  12.776  12.176   8.046
 4913SOL     OW16635   1.469   0.448   5.566
 4913SOL    HW116636   1.376   0.450   5.589
 4913SOL    HW216637   1.472   0.470   5.473
 4914SOL     OW16638  14.102   9.946  10.714
 4914SOL    HW116639  14.190   9.982  10.721
 4914SOL    HW216640  14.110   9.878  10.647
 4915SOL     OW16641  12.485   8.617  11.345
 4915SOL    HW116642  12.427   8.610  11.421
 4915SOL    HW216643  12.457   8.698  11.302
 4916SOL     OW16644   8.813   6.126   6.559
 4916SOL    HW116645   8.883   6.186   6.584
 4916SOL    HW216646   8.739   6.151   6.615
 4917SOL     OW16647  11.067  13.907   5.122
 4917SOL    HW116648  10.989  13.954   5.093
 4917SOL    HW216649  11.126  13.976   5.152
 4918SOL     OW16650   1.584  13.800   9.257
 4918SOL    HW116651   1.494  13.815   9.287
 4918SOL    HW216652   1.576  13.728   9.195
 4919SOL     OW16653   6.606   5.857   7.528
 4919SOL    HW116654   6.651   5.939   7.545
 4919SOL    HW216655   6.572   5.830   7.614
 4920SOL     OW16656   8.042   4.767   4.322
 4920SOL    HW116657   8.023   4.674   4.312
 4920SOL    HW216658   8.126   4.779   4.279
 4921SOL     OW16659  10.671   0.962  14.415
 4921SOL    HW116660  10.633   0.974  14.502
 4921SOL    HW216661  10.706   0.873  14.416
 4922SOL     OW16662  14.809  12.503  14.813
 4922SOL    HW116663  14.809  12.489  14.718
 4922SOL    HW216664   0.000  12.562  14.829
 4923SOL     OW16665  10.389   3.737   1.128
 4923SOL    HW116666  10.387   3.678   1.053
 4923SOL    HW216667  10.426   3.818   1.094
 4924SOL     OW16668   5.707  10.280   6.880
 4924SOL    HW116669   5.776  10.291   6.946
 4924SOL    HW216670   5.741  10.212   6.822
 4925SOL     OW16671   0.512  12.280   4.636
 4925SOL    HW116672   0.500  12.361   4.586
 4925SOL    HW216673   0.542  12.309   4.722
 4926SOL     OW16674  12.277   3.029   4.280
 4926SOL    HW116675  12.362   3.072   4.284
 4926SOL    HW216676  12.275   2.987   4.194
 4927SOL     OW16677  10.442  13.225   6.223
 4927SOL    HW116678  10.504  13.154   6.240
 4927SOL    HW216679  10.419  13.258   6.310
 4928SOL     OW16680   1.399  11.251   1.817
 4928SOL    HW116681   1.386  11.309   1.743
 4928SOL    HW216682   1.415  11.309   1.891
 4929SOL     OW16683  12.139   4.793   0.216
 4929SOL    HW116684  12.069   4.790   0.282
 4929SOL    HW216685  12.121   4.720   0.158
 4930SOL     OW16686   5.534   7.704  14.709
 4930SOL    HW116687   5.462   7.767  14.708
 4930SOL    HW216688   5.581   7.723  14.790
 4931SOL     OW16689   3.649   6.626   6.452
 4931SOL    HW116690   3.622   6.608   6.542
 4931SOL    HW216691   3.579   6.589   6.398
 4932SOL     OW16692  12.918  11.579   9.531
 4932SOL    HW116693  12.847  11.608   9.589
 4932SOL    HW216694  12.873  11.533   9.460
 4933SOL     OW16695   7.374   0.429   9.403
 4933SOL    HW116696   7.460   0.413   9.365
 4933SOL    HW216697   7.392   0.478   9.483
 4934SOL     OW16698   5.048   7.202   3.789
 4934SOL    HW116699   5.060   7.263   3.862
 4934SOL    HW216700   5.136   7.176   3.764
 4935SOL     OW16701   7.914  14.554  12.593
 4935SOL    HW116702   7.985  14.520  12.647
 4935SOL    HW216703   7.859  14.603  12.654
 4936SOL     OW16704   0.233  13.013  13.885
 4936SOL    HW116705   0.193  13.085  13.934
 4936SOL    HW216706   0.308  12.988  13.939
 4937SOL     OW16707   0.578  13.418   0.290
 4937SOL    HW116708   0.671  13.414   0.269
 4937SOL    HW216709   0.572  13.480   0.363
 4938SOL     OW16710   5.940   9.543  13.219
 4938SOL    HW116711   5.872   9.477  13.211
 4938SOL    HW216712   5.900   9.623  13.184
 4939SOL     OW16713  11.393  11.337  11.778
 4939SOL    HW116714  11.334  11.273  11.815
 4939SOL    HW216715  11.336  11.406  11.743
 4940SOL     OW16716   0.091   7.263  11.960
 4940SOL    HW116717   0.156   7.301  11.900
 4940SOL    HW216718   0.138   7.195  12.007
 4941SOL     OW16719  13.566   0.483   9.085
 4941SOL    HW116720  13.471   0.474   9.076
 4941SOL    HW216721  13.602   0.415   9.028
 4942SOL     OW16722   0.615  13.002  13.969
 4942SOL    HW116723   0.616  13.098  13.966
 4942SOL    HW216724   0.707  12.977  13.970
 4943SOL     OW16725   1.635  11.102   9.821
 4943SOL    HW116726   1.729  11.115   9.827
 4943SOL    HW216727   1.613  11.046   9.896
 4944SOL     OW16728   9.558  13.175   1.793
 4944SOL    HW116729   9.559  13.086   1.759
 4944SOL    HW216730   9.466  13.194   1.807
 4945SOL     OW16731   1.906  13.443   9.306
 4945SOL    HW116732   1.866  13.368   9.261
 4945SOL    HW216733   1.983  13.406   9.349
 4946SOL     OW16734   1.244  14.611   7.599
 4946SOL    HW116735   1.319  14.637   7.652
 4946SOL    HW216736   1.218  14.526   7.635
 4947SOL     OW16737  11.540  13.698   0.988
 4947SOL    HW116738  11.594  13.768   0.953
 4947SOL    HW216739  11.471  13.743   1.036
 4948SOL     OW16740   9.105   5.024  12.519
 4948SOL    HW116741   9.068   4.979  12.443
 4948SOL    HW216742   9.199   5.032  12.499
 4949SOL     OW16743  13.362  14.485   7.153
 4949SOL    HW116744  13.456  14.475   7.163
 4949SOL    HW216745  13.347  14.579   7.160
 4950SOL     OW16746  13.228  14.286   4.207
 4950SOL    HW116747  13.225  14.350   4.278
 4950SOL    HW216748  13.240  14.202   4.251
 4951SOL     OW16749  14.452   2.170   9.288
 4951SOL    HW116750  14.401   2.095   9.320
 4951SOL    HW216751  14.497   2.203   9.365
 4952SOL     OW16752  11.541  10.518   6.103
 4952SOL    HW116753  11.513  10.594   6.154
 4952SOL    HW216754  11.609  10.477   6.157
 4953SOL     OW16755   4.795  11.413  10.232
 4953SOL    HW116756   4.808  11.424  10.137
 4953SOL    HW216757   4.764  11.498  10.262
 4954SOL     OW16758   7.243  13.963  11.375
 4954SOL    HW116759   7.181  14.022  11.332
 4954SOL    HW216760   7.199  13.878  11.373
 4955SOL     OW16761   4.276  11.345   4.179
 4955SOL    HW116762   4.268  11.293   4.099
 4955SOL    HW216763   4.217  11.303   4.242
 4956SOL     OW16764   9.973   7.438   3.236
 4956SOL    HW116765   9.942   7.369   3.295
 4956SOL    HW216766  10.049   7.399   3.192
 4957SOL     OW16767  11.023   5.951  10.597
 4957SOL    HW116768  11.095   5.928  10.538
 4957SOL    HW216769  11.020   6.046  10.596
 4958SOL     OW16770   4.265  11.578   9.446
 4958SOL    HW116771   4.262  11.641   9.375
 4958SOL    HW216772   4.176  11.574   9.479
 4959SOL     OW16773   5.197   1.300   4.051
 4959SOL    HW116774   5.120   1.305   4.108
 4959SOL    HW216775   5.262   1.356   4.093
 4960SOL     OW16776   3.592  11.287   6.594
 4960SOL    HW116777   3.632  11.350   6.534
 4960SOL    HW216778   3.512  11.259   6.550
 4961SOL     OW16779  14.836   9.415   7.809
 4961SOL    HW116780  14.795   9.392   7.726
 4961SOL    HW216781  14.835   9.510   7.811
 4962SOL     OW16782  12.609   3.235   4.760
 4962SOL    HW116783  12.589   3.320   4.720
 4962SOL    HW216784  12.693   3.248   4.803
 4963SOL     OW16785  12.519   1.112   9.828
 4963SOL    HW116786  12.457   1.039   9.827
 4963SOL    HW216787  12.469   1.186   9.863
 4964SOL     OW16788   9.384  14.703   5.610
 4964SOL    HW116789   9.329  14.745   5.676
 4964SOL    HW216790   9.322  14.666   5.547
 4965SOL     OW16791  13.361   9.265   0.069
 4965SOL    HW116792  13.407   9.288   0.149
 4965SOL    HW216793  13.414   9.301  14.880
 4966SOL     OW16794  11.108   3.258   2.437
 4966SOL    HW116795  11.031   3.314   2.447
 4966SOL    HW216796  11.168   3.288   2.505
 4967SOL     OW16797  13.013   3.098  10.899
 4967SOL    HW116798  12.993   3.017  10.853
 4967SOL    HW216799  12.953   3.100  10.973
 4968SOL     OW16800   3.398   2.052   4.405
 4968SOL    HW116801   3.303   2.056   4.420
 4968SOL    HW216802   3.411   2.096   4.322
 4969SOL     OW16803   3.143   5.764   4.632
 4969SOL    HW116804   3.054   5.801   4.634
 4969SOL    HW216805   3.167   5.754   4.724
 4970SOL     OW16806  10.865  13.863  10.535
 4970SOL    HW116807  10.931  13.860  10.604
 4970SOL    HW216808  10.872  13.952  10.498
 4971SOL     OW16809  11.066   0.035   0.755
 4971SOL    HW116810  10.988   0.069   0.712
 4971SOL    HW216811  11.040  14.831   0.788
 4972SOL     OW16812   4.443   1.945   9.426
 4972SOL    HW116813   4.375   1.911   9.369
 4972SOL    HW216814   4.475   1.868   9.474
 4973SOL     OW16815   7.720  14.172  12.014
 4973SOL    HW116816   7.813  14.180  11.990
 4973SOL    HW216817   7.698  14.082  11.990
 4974SOL     OW16818   3.713   3.410   9.089
 4974SOL    HW116819   3.808   3.399   9.086
 4974SOL    HW216820   3.686   3.362   9.168
 4975SOL     OW16821   6.667   6.855  12.686
 4975SOL    HW116822   6.610   6.929  12.704
 4975SOL    HW216823   6.623   6.807  12.616
 4976SOL     OW16824   0.109   1.121  12.291
 4976SOL    HW116825   0.054   1.122  12.369
 4976SOL    HW216826   0.049   1.094  12.221
 4977SOL     OW16827   0.126  11.832   1.755
 4977SOL    HW116828   0.199  11.847   1.815
 4977SOL    HW216829   0.150  11.752   1.708
 4978SOL     OW16830  11.490   0.431  14.284
 4978SOL    HW116831  11.531   0.426  14.370
 4978SOL    HW216832  11.526   0.510  14.243
 4979SOL     OW16833  10.217   3.910   8.460
 4979SOL    HW116834  10.211   3.992   8.412
 4979SOL    HW216835  10.311   3.900   8.478
 4980SOL     OW16836  14.426  14.351  13.309
 4980SOL    HW116837  14.442  14.293  13.383
 4980SOL    HW216838  14.458  14.436  13.337
 4981SOL     OW16839   7.355   0.841   1.889
 4981SOL    HW116840   7.434   0.856   1.838
 4981SOL    HW216841   7.283   0.856   1.828
 4982SOL     OW16842  13.971   0.740   3.688
 4982SOL    HW116843  13.968   0.674   3.757
 4982SOL    HW216844  14.018   0.698   3.616
 4983SOL     OW16845  10.897   5.925  14.684
 4983SOL    HW116846  10.963   5.885  14.740
 4983SOL    HW216847  10.829   5.859  14.676
 4984SOL     OW16848   8.713   9.753   8.908
 4984SOL    HW116849   8.701   9.774   9.000
 4984SOL    HW216850   8.629   9.719   8.880
 4985SOL     OW16851  12.666   1.937   4.972
 4985SOL    HW116852  12.649   1.883   4.895
 4985SOL    HW216853  12.604   1.904   5.038
 4986SOL     OW16854   1.490   2.202   8.399
 4986SOL    HW116855   1.461   2.124   8.352
 4986SOL    HW216856   1.489   2.272   8.334
 4987SOL     OW16857   9.280   0.149   5.050
 4987SOL    HW116858   9.315   0.232   5.018
 4987SOL    HW216859   9.277   0.159   5.145
 4988SOL     OW16860  11.273   0.509  13.275
 4988SOL    HW116861  11.194   0.476  13.233
 4988SOL    HW216862  11.340   0.443  13.255
 4989SOL     OW16863   1.976   1.294   1.746
 4989SOL    HW116864   2.068   1.290   1.773
 4989SOL    HW216865   1.955   1.204   1.722
 4990SOL     OW16866   0.010   5.462   5.915
 4990SOL    HW116867  14.876   5.514   5.836
 4990SOL    HW216868   0.104   5.445   5.913
 4991SOL     OW16869  12.120   9.765   4.967
 4991SOL    HW116870  12.146   9.857   4.975
 4991SOL    HW216871  12.174   9.731   4.896
 4992SOL     OW16872  12.031   0.440   5.716
 4992SOL    HW116873  11.993   0.364   5.761
 4992SOL    HW216874  12.120   0.446   5.751
 4993SOL     OW16875  13.228  11.782  11.621
 4993SOL    HW116876  13.277  11.702  11.640
 4993SOL    HW216877  13.211  11.778  11.527
 4994SOL     OW16878   7.903   4.758  11.519
 4994SOL    HW116879   7.819   4.727  11.484
 4994SOL    HW216880   7.933   4.686  11.574
 4995SOL     OW16881   7.779   8.869  13.778
 4995SOL    HW116882   7.686   8.874  13.754
 4995SOL    HW216883   7.825   8.897  13.699
 4996SOL     OW16884   4.134   3.486   4.998
 4996SOL    HW116885   4.131   3.579   5.019
 4996SOL    HW216886   4.227   3.468   4.984
 4997SOL     OW16887   5.867  13.797  14.631
 4997SOL    HW116888   5.792  13.841  14.591
 4997SOL    HW216889   5.846  13.704  14.624
 4998SOL     OW16890   5.648  13.345   2.301
 4998SOL    HW116891   5.704  13.390   2.238
 4998SOL    HW216892   5.643  13.404   2.376
 4999SOL     OW16893   3.748   8.293   6.137
 4999SOL    HW116894   3.815   8.238   6.178
 4999SOL    HW216895   3.796   8.370   6.106
 5000SOL     OW16896  12.650  10.175   6.812
 5000SOL    HW116897  12.704  10.119   6.757
 5000SOL    HW216898  12.569  10.188   6.762
 5001SOL     OW16899  14.694  11.123  12.012
 5001SOL    HW116900  14.740  11.056  12.062
 5001SOL    HW216901  14.622  11.076  11.969
 5002SOL     OW16902   5.840   0.956  14.763
 5002SOL    HW116903   5.844   0.959  14.667
 5002SOL    HW216904   5.892   1.031  14.792
 5003SOL     OW16905   8.161   8.963   9.031
 5003SOL    HW116906   8.132   8.876   9.058
 5003SOL    HW216907   8.250   8.950   8.997
 5004SOL     OW16908   5.120  12.049   3.046
 5004SOL    HW116909   5.102  12.105   2.970
 5004SOL    HW216910   5.051  12.071   3.109
 5005SOL     OW16911   6.837   2.434   9.457
 5005SOL    HW116912   6.810   2.424   9.365
 5005SOL    HW216913   6.905   2.502   9.454
 5006SOL     OW16914   9.794   6.353  10.383
 5006SOL    HW116915   9.728   6.401  10.335
 5006SOL    HW216916   9.812   6.276  10.329
 5007SOL     OW16917   8.386   0.049   7.875
 5007SOL    HW116918   8.375   0.130   7.825
 5007SOL    HW216919   8.429   0.077   7.956
 5008SOL     OW16920  10.761   7.248   9.806
 5008SOL    HW116921  10.727   7.198   9.732
 5008SOL    HW216922  10.725   7.336   9.794
 5009SOL     OW16923   9.183  11.168   1.816
 5009SOL    HW116924   9.099  11.192   1.777
 5009SOL    HW216925   9.222  11.108   1.752
 5010SOL     OW16926   3.854   8.604   3.470
 5010SOL    HW116927   3.860   8.538   3.400
 5010SOL    HW216928   3.805   8.676   3.430
 5011SOL     OW16929   7.995   6.022   4.348
 5011SOL    HW116930   8.090   6.015   4.345
 5011SOL    HW216931   7.969   6.041   4.258
 5012SOL     OW16932   8.570   5.995   9.786
 5012SOL    HW116933   8.552   6.040   9.703
 5012SOL    HW216934   8.484   5.981   9.825
 5013SOL     OW16935  10.259   5.868  13.373
 5013SOL    HW116936  10.274   5.944  13.430
 5013SOL    HW216937  10.274   5.792  13.429
 5014SOL     OW16938   2.835   1.908   7.399
 5014SOL    HW116939   2.910   1.899   7.340
 5014SOL    HW216940   2.871   1.952   7.476
 5015SOL     OW16941   7.837   9.940  14.615
 5015SOL    HW116942   7.849  10.011  14.551
 5015SOL    HW216943   7.912   9.948  14.674
 5016SOL     OW16944   0.850  13.197   8.938
 5016SOL    HW116945   0.850  13.110   8.978
 5016SOL    HW216946   0.885  13.254   9.006
 5017SOL     OW16947   9.608   0.405  13.379
 5017SOL    HW116948   9.550   0.330  13.369
 5017SOL    HW216949   9.696   0.368  13.374
 5018SOL     OW16950   8.044   0.607  12.000
 5018SOL    HW116951   8.034   0.693  11.958
 5018SOL    HW216952   8.132   0.610  12.038
 5019SOL     OW16953  13.559  10.870   8.844
 5019SOL    HW116954  13.565  10.923   8.924
 5019SOL    HW216955  13.587  10.782   8.871
 5020SOL     OW16956   8.574   1.976   2.777
 5020SOL    HW116957   8.568   1.907   2.711
 5020SOL    HW216958   8.562   1.931   2.860
 5021SOL     OW16959  12.809  12.883   6.995
 5021SOL    HW116960  12.809  12.790   6.975
 5021SOL    HW216961  12.891  12.916   6.957
 5022SOL     OW16962  14.434   6.148   9.408
 5022SOL    HW116963  14.451   6.214   9.475
 5022SOL    HW216964  14.369   6.090   9.448
 5023SOL     OW16965   1.696   0.749  10.540
 5023SOL    HW116966   1.780   0.769  10.582
 5023SOL    HW216967   1.651   0.692  10.603
 5024SOL     OW16968   9.887  11.947   5.259
 5024SOL    HW116969   9.899  11.966   5.352
 5024SOL    HW216970   9.868  12.033   5.219
 5025SOL     OW16971   9.698  14.677  12.238
 5025SOL    HW116972   9.761  14.692  12.309
 5025SOL    HW216973   9.745  14.624  12.174
 5026SOL     OW16974  11.367   5.649  12.147
 5026SOL    HW116975  11.356   5.727  12.201
 5026SOL    HW216976  11.301   5.657  12.079
 5027SOL     OW16977  14.840  13.686   0.615
 5027SOL    HW116978  14.856  13.642   0.698
 5027SOL    HW216979  14.744  13.683   0.605
 5028SOL     OW16980   1.133   7.898   7.399
 5028SOL    HW116981   1.131   7.909   7.494
 5028SOL    HW216982   1.147   7.805   7.386
 5029SOL     OW16983   1.468   7.183  13.932
 5029SOL    HW116984   1.464   7.088  13.942
 5029SOL    HW216985   1.442   7.200  13.842
 5030SOL     OW16986   2.358   0.914  13.268
 5030SOL    HW116987   2.272   0.956  13.274
 5030SOL    HW216988   2.405   0.964  13.201
 5031SOL     OW16989  10.744  13.954  12.755
 5031SOL    HW116990  10.728  14.044  12.726
 5031SOL    HW216991  10.839  13.950  12.769
 5032SOL     OW16992   5.602   4.031  12.026
 5032SOL    HW116993   5.531   3.967  12.028
 5032SOL    HW216994   5.675   3.985  11.985
 5033SOL     OW16995  12.566   7.753   2.177
 5033SOL    HW116996  12.487   7.759   2.123
 5033SOL    HW216997  12.637   7.779   2.119
 5034SOL     OW16998  12.468   9.668  10.021
 5034SOL    HW116999  12.488   9.628  10.105
 5034SOL    HW217000  12.447   9.759  10.042
 5035SOL     OW17001   7.585   7.394   2.510
 5035SOL    HW117002   7.645   7.468   2.497
 5035SOL    HW217003   7.503   7.434   2.538
 5036SOL     OW17004   2.239   5.444   7.146
 5036SOL    HW117005   2.219   5.398   7.227
 5036SOL    HW217006   2.156   5.481   7.117
 5037SOL     OW17007  14.615   5.735   2.200
 5037SOL    HW117008  14.595   5.740   2.107
 5037SOL    HW217009  14.582   5.818   2.236
 5038SOL     OW17010   8.000   6.745   1.784
 5038SOL    HW117011   7.920   6.760   1.834
 5038SOL    HW217012   8.035   6.664   1.820
 5039SOL     OW17013   5.717   9.041   2.017
 5039SOL    HW117014   5.779   8.978   2.055
 5039SOL    HW217015   5.643   8.987   1.988
 5040SOL     OW17016  13.590  12.160  10.902
 5040SOL    HW117017  13.617  12.171  10.993
 5040SOL    HW217018  13.666  12.122  10.859
 5041SOL     OW17019   2.807   6.528   5.007
 5041SOL    HW117020   2.822   6.599   4.944
 5041SOL    HW217021   2.725   6.551   5.050
 5042SOL     OW17022  11.679   3.529   3.172
 5042SOL    HW117023  11.622   3.464   3.131
 5042SOL    HW217024  11.676   3.605   3.112
 5043SOL     OW17025  13.704  12.318   5.244
 5043SOL    HW117026  13.741  12.229   5.240
 5043SOL    HW217027  13.685  12.339   5.153
 5044SOL     OW17028   0.026   5.695   1.188
 5044SOL    HW117029   0.065   5.608   1.196
 5044SOL    HW217030   0.025   5.712   1.093
 5045SOL     OW17031  10.409   8.545  12.115
 5045SOL    HW117032  10.325   8.591  12.113
 5045SOL    HW217033  10.451   8.574  12.196
 5046SOL     OW17034   0.565  11.557   7.030
 5046SOL    HW117035   0.529  11.583   7.115
 5046SOL    HW217036   0.639  11.615   7.017
 5047SOL     OW17037   4.865   5.737  11.746
 5047SOL    HW117038   4.870   5.759  11.839
 5047SOL    HW217039   4.808   5.805  11.709
 5048SOL     OW17040   7.582  10.320   5.015
 5048SOL    HW117041   7.493  10.308   5.050
 5048SOL    HW217042   7.578  10.280   4.929
 5049SOL     OW17043   4.522   0.540  12.977
 5049SOL    HW117044   4.545   0.632  12.989
 5049SOL    HW217045   4.518   0.504  13.065
 5050SOL     OW17046   6.643   2.618   1.943
 5050SOL    HW117047   6.659   2.651   1.854
 5050SOL    HW217048   6.718   2.651   1.993
 5051SOL     OW17049   6.651   8.633   1.172
 5051SOL    HW117050   6.703   8.636   1.091
 5051SOL    HW217051   6.644   8.724   1.199
 5052SOL     OW17052   5.747   3.644  12.521
 5052SOL    HW117053   5.793   3.564  12.543
 5052SOL    HW217054   5.686   3.658  12.594
 5053SOL     OW17055   1.785   0.122  13.941
 5053SOL    HW117056   1.749   0.191  13.996
 5053SOL    HW217057   1.859   0.163  13.896
 5054SOL     OW17058  10.875  11.183   6.419
 5054SOL    HW117059  10.859  11.259   6.475
 5054SOL    HW217060  10.970  11.174   6.418
 5055SOL     OW17061  12.354   2.324   2.796
 5055SOL    HW117062  12.322   2.293   2.711
 5055SOL    HW217063  12.448   2.333   2.784
 5056SOL     OW17064  13.402  13.631   7.064
 5056SOL    HW117065  13.455  13.633   7.143
 5056SOL    HW217066  13.439  13.699   7.008
 5057SOL     OW17067   0.700   7.986   5.814
 5057SOL    HW117068   0.654   8.017   5.892
 5057SOL    HW217069   0.653   8.026   5.741
 5058SOL     OW17070   5.950   4.382  13.609
 5058SOL    HW117071   5.885   4.387  13.679
 5058SOL    HW217072   6.017   4.322  13.642
 5059SOL     OW17073   9.005  11.149   4.422
 5059SOL    HW117074   9.012  11.104   4.338
 5059SOL    HW217075   9.095  11.159   4.452
 5060SOL     OW17076   2.341  11.973   3.830
 5060SOL    HW117077   2.256  11.928   3.823
 5060SOL    HW217078   2.364  11.968   3.922
 5061SOL     OW17079  12.563   8.776   2.209
 5061SOL    HW117080  12.645   8.739   2.176
 5061SOL    HW217081  12.572   8.870   2.195
 5062SOL     OW17082   0.177   7.202  10.517
 5062SOL    HW117083   0.161   7.123  10.466
 5062SOL    HW217084   0.136   7.272  10.467
 5063SOL     OW17085   8.083  14.608   2.136
 5063SOL    HW117086   8.038  14.557   2.068
 5063SOL    HW217087   8.111  14.688   2.091
 5064SOL     OW17088   8.664   2.460  13.438
 5064SOL    HW117089   8.738   2.425  13.487
 5064SOL    HW217090   8.661   2.407  13.358
 5065SOL     OW17091  10.714   2.138   5.735
 5065SOL    HW117092  10.730   2.134   5.830
 5065SOL    HW217093  10.710   2.047   5.707
 5066SOL     OW17094  11.364  10.813   5.894
 5066SOL    HW117095  11.417  10.876   5.942
 5066SOL    HW217096  11.369  10.733   5.946
 5067SOL     OW17097   5.519  10.341   0.270
 5067SOL    HW117098   5.516  10.366   0.178
 5067SOL    HW217099   5.496  10.249   0.271
 5068SOL     OW17100   5.493   2.378  11.572
 5068SOL    HW117101   5.513   2.469  11.594
 5068SOL    HW217102   5.401   2.379  11.548
 5069SOL     OW17103   1.023   2.029  14.721
 5069SOL    HW117104   1.049   2.068  14.638
 5069SOL    HW217105   0.980   2.100  14.768
 5070SOL     OW17106   8.520   7.787   7.160
 5070SOL    HW117107   8.500   7.854   7.225
 5070SOL    HW217108   8.435   7.752   7.134
 5071SOL     OW17109   7.514  11.702   9.735
 5071SOL    HW117110   7.438  11.754   9.761
 5071SOL    HW217111   7.520  11.715   9.641
 5072SOL     OW17112  14.737   5.916   0.954
 5072SOL    HW117113  14.690   5.926   0.871
 5072SOL    HW217114  14.770   6.003   0.974
 5073SOL     OW17115   1.840   7.395   7.599
 5073SOL    HW117116   1.822   7.390   7.693
 5073SOL    HW217117   1.865   7.306   7.574
 5074SOL     OW17118   0.901  14.747  10.173
 5074SOL    HW117119   0.969  14.779  10.114
 5074SOL    HW217120   0.864  14.825  10.213
 5075SOL     OW17121  10.157  13.556   9.595
 5075SOL    HW117122  10.086  13.532   9.536
 5075SOL    HW217123  10.215  13.611   9.542
 5076SOL     OW17124   8.740   5.331   8.657
 5076SOL    HW117125   8.825   5.373   8.672
 5076SOL    HW217126   8.759   5.255   8.602
 5077SOL     OW17127   7.976  14.847   3.633
 5077SOL    HW117128   7.938  14.815   3.552
 5077SOL    HW217129   7.909   0.021   3.672
 5078SOL     OW17130   9.120   5.672  12.322
 5078SOL    HW117131   9.139   5.580  12.302
 5078SOL    HW217132   9.128   5.716  12.237
 5079SOL     OW17133   9.889  12.023  10.388
 5079SOL    HW117134   9.975  11.981  10.385
 5079SOL    HW217135   9.861  12.015  10.480
 5080SOL     OW17136   7.542   7.915   9.403
 5080SOL    HW117137   7.522   7.848   9.338
 5080SOL    HW217138   7.563   7.993   9.352
 5081SOL     OW17139   7.050   5.080   3.776
 5081SOL    HW117140   6.973   5.058   3.827
 5081SOL    HW217141   7.081   4.996   3.741
 5082SOL     OW17142  10.731   0.058   3.215
 5082SOL    HW117143  10.656   0.048   3.156
 5082SOL    HW217144  10.716  14.876   3.284
 5083SOL     OW17145  10.107  10.497   7.842
 5083SOL    HW117146  10.119  10.465   7.932
 5083SOL    HW217147  10.014  10.515   7.835
 5084SOL     OW17148   7.456  11.371   6.694
 5084SOL    HW117149   7.494  11.446   6.648
 5084SOL    HW217150   7.532  11.321   6.723
 5085SOL     OW17151   1.927   4.298   4.698
 5085SOL    HW117152   1.864   4.315   4.768
 5085SOL    HW217153   1.885   4.331   4.619
 5086SOL     OW17154   9.139  14.072   3.223
 5086SOL    HW117155   9.169  14.098   3.136
 5086SOL    HW217156   9.163  13.980   3.230
 5087SOL     OW17157  12.379   6.648   8.765
 5087SOL    HW117158  12.396   6.718   8.702
 5087SOL    HW217159  12.323   6.689   8.831
 5088SOL     OW17160  10.132   3.430   8.554
 5088SOL    HW117161  10.175   3.498   8.605
 5088SOL    HW217162  10.186   3.420   8.475
 5089SOL     OW17163  10.117  12.647  13.153
 5089SOL    HW117164  10.161  12.691  13.226
 5089SOL    HW217165  10.188  12.610  13.101
 5090SOL     OW17166   1.760  10.445   4.009
 5090SOL    HW117167   1.697  10.382   4.043
 5090SOL    HW217168   1.805  10.478   4.087
 5091SOL     OW17169   4.122   0.960   3.459
 5091SOL    HW117170   4.084   1.045   3.478
 5091SOL    HW217171   4.106   0.946   3.366
 5092SOL     OW17172   7.139   4.880  11.762
 5092SOL    HW117173   7.057   4.913  11.725
 5092SOL    HW217174   7.204   4.947  11.741
 5093SOL     OW17175  12.876  14.740  14.292
 5093SOL    HW117176  12.908  14.713  14.206
 5093SOL    HW217177  12.897  14.833  14.297
 5094SOL     OW17178   3.967   0.711  13.176
 5094SOL    HW117179   3.962   0.780  13.242
 5094SOL    HW217180   4.029   0.744  13.111
 5095SOL     OW17181   6.518   1.844  14.842
 5095SOL    HW117182   6.530   1.770   0.019
 5095SOL    HW217183   6.431   1.877  14.862
 5096SOL     OW17184   0.533   0.096   9.437
 5096SOL    HW117185   0.530   0.191   9.449
 5096SOL    HW217186   0.617   0.079   9.395
 5097SOL     OW17187   2.287   4.646   4.278
 5097SOL    HW117188   2.225   4.659   4.350
 5097SOL    HW217189   2.360   4.705   4.298
 5098SOL     OW17190   2.909  12.109   6.557
 5098SOL    HW117191   2.927  12.168   6.484
 5098SOL    HW217192   2.982  12.123   6.617
 5099SOL     OW17193  14.811  12.761   3.578
 5099SOL    HW117194  14.761  12.803   3.647
 5099SOL    HW217195  14.868  12.830   3.543
 5100SOL     OW17196   5.610   6.919   6.503
 5100SOL    HW117197   5.669   6.992   6.518
 5100SOL    HW217198   5.662   6.841   6.522
 5101SOL     OW17199  13.769   3.476   2.737
 5101SOL    HW117200  13.854   3.453   2.775
 5101SOL    HW217201  13.729   3.392   2.715
 5102SOL     OW17202   5.586   2.752   1.175
 5102SOL    HW117203   5.590   2.847   1.159
 5102SOL    HW217204   5.567   2.744   1.268
 5103SOL     OW17205   0.035   7.922  10.462
 5103SOL    HW117206  14.862   7.950  10.390
 5103SOL    HW217207   0.095   7.995  10.477
 5104SOL     OW17208  12.484   7.520   8.516
 5104SOL    HW117209  12.474   7.473   8.599
 5104SOL    HW217210  12.485   7.612   8.540
 5105SOL     OW17211   6.496   8.003  11.415
 5105SOL    HW117212   6.426   8.027  11.476
 5105SOL    HW217213   6.452   7.994  11.331
 5106SOL     OW17214  11.175  14.169   1.665
 5106SOL    HW117215  11.086  14.190   1.693
 5106SOL    HW217216  11.219  14.141   1.746
 5107SOL     OW17217  13.527  14.015   3.097
 5107SOL    HW117218  13.482  14.009   3.012
 5107SOL    HW217219  13.620  14.023   3.073
 5108SOL     OW17220  10.173  10.277   7.598
 5108SOL    HW117221  10.177  10.247   7.689
 5108SOL    HW217222  10.165  10.372   7.604
 5109SOL     OW17223   9.792  10.260   3.629
 5109SOL    HW117224   9.744  10.181   3.602
 5109SOL    HW217225   9.804  10.249   3.724
 5110SOL     OW17226  10.111  14.195   8.935
 5110SOL    HW117227  10.064  14.216   9.016
 5110SOL    HW217228  10.073  14.112   8.906
 5111SOL     OW17229   2.647   9.786  13.732
 5111SOL    HW117230   2.557   9.779  13.763
 5111SOL    HW217231   2.651   9.872  13.689
 5112SOL     OW17232   4.654  10.084   7.677
 5112SOL    HW117233   4.581  10.030   7.647
 5112SOL    HW217234   4.730  10.027   7.668
 5113SOL     OW17235   1.559   5.556   6.324
 5113SOL    HW117236   1.513   5.476   6.297
 5113SOL    HW217237   1.589   5.536   6.413
 5114SOL     OW17238   9.475   7.647  11.551
 5114SOL    HW117239   9.564   7.680  11.536
 5114SOL    HW217240   9.464   7.651  11.646
 5115SOL     OW17241   7.623   6.200   6.049
 5115SOL    HW117242   7.647   6.287   6.078
 5115SOL    HW217243   7.700   6.166   6.005
 5116SOL     OW17244  11.775  11.570  13.886
 5116SOL    HW117245  11.863  11.548  13.918
 5116SOL    HW217246  11.752  11.498  13.827
 5117SOL     OW17247  13.367   7.162   4.771
 5117SOL    HW117248  13.376   7.253   4.801
 5117SOL    HW217249  13.391   7.109   4.847
 5118SOL     OW17250  12.727  11.579  10.822
 5118SOL    HW117251  12.800  11.638  10.803
 5118SOL    HW217252  12.661  11.635  10.861
 5119SOL     OW17253   4.362   5.137   8.182
 5119SOL    HW117254   4.362   5.045   8.211
 5119SOL    HW217255   4.446   5.149   8.139
 5120SOL     OW17256   9.395  10.787   6.269
 5120SOL    HW117257   9.335  10.825   6.333
 5120SOL    HW217258   9.345  10.786   6.187
 5121SOL     OW17259   7.595   5.684  10.984
 5121SOL    HW117260   7.554   5.748  10.925
 5121SOL    HW217261   7.671   5.652  10.935
 5122SOL     OW17262   5.796  11.441   7.030
 5122SOL    HW117263   5.742  11.505   6.983
 5122SOL    HW217264   5.797  11.472   7.121
 5123SOL     OW17265   2.608   3.947   9.796
 5123SOL    HW117266   2.539   3.988   9.744
 5123SOL    HW217267   2.599   3.854   9.780
 5124SOL     OW17268  11.849   4.827   4.355
 5124SOL    HW117269  11.819   4.859   4.270
 5124SOL    HW217270  11.939   4.800   4.341
 5125SOL     OW17271   9.242  14.063   8.718
 5125SOL    HW117272   9.258  14.043   8.811
 5125SOL    HW217273   9.176  13.999   8.691
 5126SOL     OW17274   1.344  13.053   0.329
 5126SOL    HW117275   1.248  13.053   0.336
 5126SOL    HW217276   1.362  13.112   0.255
 5127SOL     OW17277   0.834   9.220   4.132
 5127SOL    HW117278   0.823   9.133   4.172
 5127SOL    HW217279   0.904   9.261   4.183
 5128SOL     OW17280   0.045   4.184  13.036
 5128SOL    HW117281  14.865   4.183  12.963
 5128SOL    HW217282   0.088   4.099  13.032
 5129SOL     OW17283   2.275   4.533  12.718
 5129SOL    HW117284   2.228   4.451  12.701
 5129SOL    HW217285   2.226   4.575  12.788
 5130SOL     OW17286  14.607   2.562   0.208
 5130SOL    HW117287  14.537   2.591   0.265
 5130SOL    HW217288  14.583   2.473   0.184
 5131SOL     OW17289   9.858   8.227   4.900
 5131SOL    HW117290   9.914   8.206   4.974
 5131SOL    HW217291   9.773   8.188   4.922
 5132SOL     OW17292  12.403   2.077  12.451
 5132SOL    HW117293  12.408   1.994  12.403
 5132SOL    HW217294  12.352   2.134  12.393
 5133SOL     OW17295   8.421   7.259  11.203
 5133SOL    HW117296   8.348   7.286  11.258
 5133SOL    HW217297   8.499   7.297  11.245
 5134SOL     OW17298   6.770  12.874   6.193
 5134SOL    HW117299   6.834  12.834   6.134
 5134SOL    HW217300   6.820  12.902   6.269
 5135SOL     OW17301   9.805  14.005  10.819
 5135SOL    HW117302   9.837  14.067  10.884
 5135SOL    HW217303   9.851  14.028  10.738
 5136SOL     OW17304  11.113   7.683   6.389
 5136SOL    HW117305  11.085   7.639   6.309
 5136SOL    HW217306  11.056   7.760   6.396
 5137SOL     OW17307  12.788  11.201   8.997
 5137SOL    HW117308  12.821  11.166   9.080
 5137SOL    HW217309  12.828  11.145   8.931
 5138SOL     OW17310   1.315   5.027   0.751
 5138SOL    HW117311   1.291   4.943   0.789
 5138SOL    HW217312   1.367   5.070   0.820
 5139SOL     OW17313   6.911  12.380   9.577
 5139SOL    HW117314   7.004  12.391   9.561
 5139SOL    HW217315   6.870  12.390   9.491
 5140SOL     OW17316   7.413  14.794   9.222
 5140SOL    HW117317   7.376  14.882   9.211
 5140SOL    HW217318   7.345  14.745   9.269
 5141SOL     OW17319  13.418   7.253   9.277
 5141SOL    HW117320  13.368   7.245   9.358
 5141SOL    HW217321  13.359   7.221   9.209
 5142SOL     OW17322   5.847   5.218   5.643
 5142SOL    HW117323   5.783   5.289   5.640
 5142SOL    HW217324   5.917   5.252   5.699
 5143SOL     OW17325   9.314   4.863   9.543
 5143SOL    HW117326   9.259   4.807   9.488
 5143SOL    HW217327   9.375   4.802   9.585
 5144SOL     OW17328  12.632   4.479  13.192
 5144SOL    HW117329  12.637   4.510  13.283
 5144SOL    HW217330  12.568   4.537  13.151
 5145SOL     OW17331   3.245   0.746  14.390
 5145SOL    HW117332   3.337   0.720  14.400
 5145SOL    HW217333   3.213   0.756  14.480
 5146SOL     OW17334   6.865  12.511   0.171
 5146SOL    HW117335   6.899  12.579   0.228
 5146SOL    HW217336   6.856  12.434   0.227
 5147SOL     OW17337  13.230   1.192   3.725
 5147SOL    HW117338  13.275   1.242   3.794
 5147SOL    HW217339  13.147   1.167   3.765
 5148SOL     OW17340  10.469   9.638   5.239
 5148SOL    HW117341  10.437   9.684   5.316
 5148SOL    HW217342  10.463   9.545   5.263
 5149SOL     OW17343   9.328   9.202   0.539
 5149SOL    HW117344   9.361   9.232   0.454
 5149SOL    HW217345   9.233   9.202   0.529
 5150SOL     OW17346  14.854  14.812   9.083
 5150SOL    HW117347  14.880  14.768   9.164
 5150SOL    HW217348   0.019   0.013   9.085
 5151SOL     OW17349   4.508  12.536   4.746
 5151SOL    HW117350   4.471  12.548   4.658
 5151SOL    HW217351   4.522  12.441   4.753
 5152SOL     OW17352   4.171   5.776  11.436
 5152SOL    HW117353   4.076   5.762  11.431
 5152SOL    HW217354   4.190   5.835  11.363
 5153SOL     OW17355   5.715   7.657   7.100
 5153SOL    HW117356   5.690   7.582   7.047
 5153SOL    HW217357   5.810   7.662   7.094
 5154SOL     OW17358   5.428  10.837  10.025
 5154SOL    HW117359   5.436  10.765   9.963
 5154SOL    HW217360   5.516  10.875  10.028
 5155SOL     OW17361   0.472  11.079  14.643
 5155SOL    HW117362   0.541  11.025  14.605
 5155SOL    HW217363   0.517  11.159  14.670
 5156SOL     OW17364   6.574   7.972   3.825
 5156SOL    HW117365   6.528   7.964   3.742
 5156SOL    HW217366   6.598   8.065   3.831
 5157SOL     OW17367   3.923  14.300  10.136
 5157SOL    HW117368   3.917  14.260  10.223
 5157SOL    HW217369   3.974  14.236  10.085
 5158SOL     OW17370   8.132   5.226  14.592
 5158SOL    HW117371   8.075   5.149  14.585
 5158SOL    HW217372   8.209   5.194  14.638
 5159SOL     OW17373   2.273  14.344  13.117
 5159SOL    HW117374   2.336  14.275  13.134
 5159SOL    HW217375   2.188  14.303  13.133
 5160SOL     OW17376   9.189   8.431  14.292
 5160SOL    HW117377   9.211   8.516  14.255
 5160SOL    HW217378   9.194   8.444  14.387
 5161SOL     OW17379  10.314   0.810   6.534
 5161SOL    HW117380  10.284   0.783   6.621
 5161SOL    HW217381  10.246   0.778   6.474
 5162SOL     OW17382  10.936  10.124   0.181
 5162SOL    HW117383  10.908  10.033   0.171
 5162SOL    HW217384  10.936  10.138   0.276
 5163SOL     OW17385  12.838   3.614   9.140
 5163SOL    HW117386  12.861   3.693   9.190
 5163SOL    HW217387  12.855   3.638   9.049
 5164SOL     OW17388   5.499   3.841   2.756
 5164SOL    HW117389   5.544   3.815   2.837
 5164SOL    HW217390   5.561   3.821   2.686
 5165SOL     OW17391   5.373   5.582   3.628
 5165SOL    HW117392   5.305   5.597   3.694
 5165SOL    HW217393   5.439   5.530   3.674
 5166SOL     OW17394   4.065   7.603   5.401
 5166SOL    HW117395   4.078   7.597   5.306
 5166SOL    HW217396   4.154   7.605   5.437
 5167SOL     OW17397   3.815  13.098   6.094
 5167SOL    HW117398   3.870  13.172   6.122
 5167SOL    HW217399   3.878  13.029   6.074
 5168SOL     OW17400  14.173   7.212   8.909
 5168SOL    HW117401  14.233   7.252   8.971
 5168SOL    HW217402  14.173   7.119   8.932
 5169SOL     OW17403   3.712   0.645   3.626
 5169SOL    HW117404   3.759   0.653   3.709
 5169SOL    HW217405   3.760   0.701   3.565
 5170SOL     OW17406   7.596   6.502  13.972
 5170SOL    HW117407   7.685   6.467  13.973
 5170SOL    HW217408   7.571   6.501  13.880
 5171SOL     OW17409   7.135   4.230   9.065
 5171SOL    HW117410   7.122   4.281   8.985
 5171SOL    HW217411   7.218   4.262   9.101
 5172SOL     OW17412   1.483   7.578   2.182
 5172SOL    HW117413   1.559   7.588   2.238
 5172SOL    HW217414   1.416   7.538   2.237
 5173SOL     OW17415  10.767  14.135  14.559
 5173SOL    HW117416  10.831  14.076  14.519
 5173SOL    HW217417  10.684  14.114  14.515
 5174SOL     OW17418   4.374   0.356  13.515
 5174SOL    HW117419   4.458   0.330  13.553
 5174SOL    HW217420   4.336   0.415  13.580
 5175SOL     OW17421  11.386   1.451   8.537
 5175SOL    HW117422  11.293   1.468   8.553
 5175SOL    HW217423  11.410   1.387   8.604
 5176SOL     OW17424  10.290   0.895  10.292
 5176SOL    HW117425  10.274   0.801  10.303
 5176SOL    HW217426  10.212   0.937  10.330
 5177SOL     OW17427  11.743   5.642   5.678
 5177SOL    HW117428  11.781   5.689   5.752
 5177SOL    HW217429  11.813   5.583   5.649
 5178SOL     OW17430   5.877  12.199  14.655
 5178SOL    HW117431   5.902  12.161  14.571
 5178SOL    HW217432   5.886  12.293  14.643
 5179SOL     OW17433  10.004   0.456  10.974
 5179SOL    HW117434  10.046   0.389  11.028
 5179SOL    HW217435  10.068   0.527  10.969
 5180SOL     OW17436   2.954   1.640  14.511
 5180SOL    HW117437   2.937   1.546  14.508
 5180SOL    HW217438   2.869   1.679  14.530
 5181SOL     OW17439   5.460   9.456   9.561
 5181SOL    HW117440   5.522   9.471   9.490
 5181SOL    HW217441   5.513   9.456   9.640
 5182SOL     OW17442   7.454   5.384   0.511
 5182SOL    HW117443   7.360   5.387   0.492
 5182SOL    HW217444   7.479   5.295   0.487
 5183SOL     OW17445   3.677  11.871  11.438
 5183SOL    HW117446   3.759  11.884  11.391
 5183SOL    HW217447   3.614  11.928  11.393
 5184SOL     OW17448   8.256  14.043  14.173
 5184SOL    HW117449   8.281  14.022  14.083
 5184SOL    HW217450   8.239  14.137  14.171
 5185SOL     OW17451   8.062   4.510   3.573
 5185SOL    HW117452   8.114   4.590   3.581
 5185SOL    HW217453   8.080   4.462   3.653
 5186SOL     OW17454  12.340   9.004  10.410
 5186SOL    HW117455  12.384   8.964  10.485
 5186SOL    HW217456  12.387   8.968  10.334
 5187SOL     OW17457  13.807   9.964   1.862
 5187SOL    HW117458  13.732  10.023   1.875
 5187SOL    HW217459  13.822   9.965   1.768
 5188SOL     OW17460   4.745   6.237   4.785
 5188SOL    HW117461   4.730   6.207   4.875
 5188SOL    HW217462   4.736   6.157   4.732
 5189SOL     OW17463   8.116  13.966   1.714
 5189SOL    HW117464   8.168  14.034   1.672
 5189SOL    HW217465   8.113  13.894   1.650
 5190SOL     OW17466   8.392  10.060   7.071
 5190SOL    HW117467   8.440  10.031   6.993
 5190SOL    HW217468   8.350   9.981   7.103
 5191SOL     OW17469   8.589  10.319   8.810
 5191SOL    HW117470   8.512  10.295   8.861
 5191SOL    HW217471   8.614  10.237   8.766
 5192SOL     OW17472   7.621  10.697  10.518
 5192SOL    HW117473   7.615  10.791  10.536
 5192SOL    HW217474   7.532  10.671  10.494
 5193SOL     OW17475   6.494  14.844  14.086
 5193SOL    HW117476   6.509  14.864  14.178
 5193SOL    HW217477   6.431   0.027  14.057
 5194SOL     OW17478  11.837   3.448   9.719
 5194SOL    HW117479  11.908   3.512   9.710
 5194SOL    HW217480  11.855   3.405   9.802
 5195SOL     OW17481   2.910   3.687   1.934
 5195SOL    HW117482   2.914   3.735   1.851
 5195SOL    HW217483   2.896   3.596   1.908
 5196SOL     OW17484   4.249   2.612  10.951
 5196SOL    HW117485   4.250   2.580  10.861
 5196SOL    HW217486   4.283   2.539  11.003
 5197SOL     OW17487   4.390   4.472  12.275
 5197SOL    HW117488   4.485   4.476  12.278
 5197SOL    HW217489   4.363   4.562  12.253
 5198SOL     OW17490   4.752  13.688  13.589
 5198SOL    HW117491   4.725  13.735  13.510
 5198SOL    HW217492   4.814  13.746  13.632
 5199SOL     OW17493   0.087   3.067   1.475
 5199SOL    HW117494   0.049   3.018   1.548
 5199SOL    HW217495   0.017   3.068   1.409
 5200SOL     OW17496   7.066  13.034   8.895
 5200SOL    HW117497   7.030  12.957   8.852
 5200SOL    HW217498   7.004  13.104   8.874
 5201SOL     OW17499   6.186  13.582   6.564
 5201SOL    HW117500   6.138  13.645   6.511
 5201SOL    HW217501   6.118  13.535   6.612
 5202SOL     OW17502   3.822   4.188   7.241
 5202SOL    HW117503   3.730   4.171   7.220
 5202SOL    HW217504   3.822   4.276   7.277
 5203SOL     OW17505   8.652   8.299   4.411
 5203SOL    HW117506   8.738   8.332   4.438
 5203SOL    HW217507   8.618   8.254   4.488
 5204SOL     OW17508  10.559   6.553   4.613
 5204SOL    HW117509  10.543   6.474   4.561
 5204SOL    HW217510  10.637   6.592   4.573
 5205SOL     OW17511  14.294   2.658   5.682
 5205SOL    HW117512  14.366   2.596   5.667
 5205SOL    HW217513  14.221   2.622   5.632
 5206SOL     OW17514   0.572  10.003   2.040
 5206SOL    HW117515   0.626   9.938   1.995
 5206SOL    HW217516   0.634  10.067   2.074
 5207SOL     OW17517   2.898  12.614  11.053
 5207SOL    HW117518   2.811  12.652  11.061
 5207SOL    HW217519   2.918  12.619  10.960
 5208SOL     OW17520  12.876  11.041  11.695
 5208SOL    HW117521  12.880  10.946  11.688
 5208SOL    HW217522  12.784  11.060  11.716
 5209SOL     OW17523   4.124  11.563   3.195
 5209SOL    HW117524   4.110  11.645   3.242
 5209SOL    HW217525   4.147  11.500   3.264
 5210SOL     OW17526   7.035  10.103   9.203
 5210SOL    HW117527   6.977  10.032   9.173
 5210SOL    HW217528   6.991  10.139   9.280
 5211SOL     OW17529  13.290  11.702   6.910
 5211SOL    HW117530  13.288  11.779   6.853
 5211SOL    HW217531  13.308  11.737   6.997
 5212SOL     OW17532   7.587   4.610   1.722
 5212SOL    HW117533   7.577   4.640   1.813
 5212SOL    HW217534   7.502   4.630   1.682
 5213SOL     OW17535   4.512   9.094   2.874
 5213SOL    HW117536   4.515   9.156   2.946
 5213SOL    HW217537   4.585   9.033   2.892
 5214SOL     OW17538   6.979   4.042   5.906
 5214SOL    HW117539   6.907   3.985   5.933
 5214SOL    HW217540   6.994   4.021   5.814
 5215SOL     OW17541   5.958   7.960  11.632
 5215SOL    HW117542   5.993   7.909  11.705
 5215SOL    HW217543   5.936   8.045  11.670
 5216SOL     OW17544   7.172  13.249  13.242
 5216SOL    HW117545   7.153  13.216  13.330
 5216SOL    HW217546   7.202  13.172  13.194
 5217SOL     OW17547  11.778  13.466   0.902
 5217SOL    HW117548  11.726  13.538   0.865
 5217SOL    HW217549  11.859  13.468   0.851
 5218SOL     OW17550  13.440   1.858   2.380
 5218SOL    HW117551  13.419   1.939   2.335
 5218SOL    HW217552  13.404   1.789   2.324
 5219SOL     OW17553  11.103   9.883   2.759
 5219SOL    HW117554  11.047   9.946   2.714
 5219SOL    HW217555  11.077   9.890   2.851
 5220SOL     OW17556  13.401   4.198  11.935
 5220SOL    HW117557  13.409   4.116  11.887
 5220SOL    HW217558  13.329   4.184  11.996
 5221SOL     OW17559   7.117  13.441   8.844
 5221SOL    HW117560   7.211  13.454   8.838
 5221SOL    HW217561   7.083  13.470   8.759
 5222SOL     OW17562   5.132   2.692  13.429
 5222SOL    HW117563   5.048   2.694  13.382
 5222SOL    HW217564   5.115   2.639  13.507
 5223SOL     OW17565  13.252   5.575   9.143
 5223SOL    HW117566  13.210   5.523   9.212
 5223SOL    HW217567  13.206   5.551   9.063
 5224SOL     OW17568   9.418   8.532  11.647
 5224SOL    HW117569   9.416   8.615  11.598
 5224SOL    HW217570   9.378   8.469  11.587
 5225SOL     OW17571  10.294   7.549   8.149
 5225SOL    HW117572  10.346   7.525   8.072
 5225SOL    HW217573  10.329   7.634   8.176
 5226SOL     OW17574   0.656   0.328   8.760
 5226SOL    HW117575   0.697   0.255   8.806
 5226SOL    HW217576   0.653   0.301   8.668
 5227SOL     OW17577   1.624   3.189   5.793
 5227SOL    HW117578   1.554   3.222   5.850
 5227SOL    HW217579   1.587   3.195   5.704
 5228SOL     OW17580   0.255  11.826   9.329
 5228SOL    HW117581   0.217  11.878   9.400
 5228SOL    HW217582   0.335  11.789   9.366
 5229SOL     OW17583   8.684   8.318  12.273
 5229SOL    HW117584   8.697   8.234  12.316
 5229SOL    HW217585   8.645   8.296  12.188
 5230SOL     OW17586   0.028  11.594   8.862
 5230SOL    HW117587   0.041  11.598   8.957
 5230SOL    HW217588   0.116  11.596   8.826
 5231SOL     OW17589  14.758   3.204   2.795
 5231SOL    HW117590  14.686   3.255   2.758
 5231SOL    HW217591  14.740   3.202   2.889
 5232SOL     OW17592   4.209   5.498  13.919
 5232SOL    HW117593   4.177   5.538  13.838
 5232SOL    HW217594   4.211   5.571  13.981
 5233SOL     OW17595   2.261   7.526   9.585
 5233SOL    HW117596   2.333   7.507   9.524
 5233SOL    HW217597   2.185   7.484   9.546
 5234SOL     OW17598   7.822   1.392   9.893
 5234SOL    HW117599   7.799   1.429   9.807
 5234SOL    HW217600   7.856   1.466   9.943
 5235SOL     OW17601  10.450  10.511   8.596
 5235SOL    HW117602  10.422  10.435   8.545
 5235SOL    HW217603  10.544  10.519   8.578
 5236SOL     OW17604   4.736   1.745  14.375
 5236SOL    HW117605   4.729   1.704  14.462
 5236SOL    HW217606   4.722   1.673  14.314
 5237SOL     OW17607  14.475  11.758   9.820
 5237SOL    HW117608  14.556  11.784   9.863
 5237SOL    HW217609  14.502  11.691   9.757
 5238SOL     OW17610  12.611   7.229   4.947
 5238SOL    HW117611  12.615   7.159   5.012
 5238SOL    HW217612  12.666   7.199   4.875
 5239SOL     OW17613   1.465  13.642  11.424
 5239SOL    HW117614   1.454  13.581  11.497
 5239SOL    HW217615   1.555  13.630  11.396
 5240SOL     OW17616   3.987   3.350   2.538
 5240SOL    HW117617   4.003   3.444   2.536
 5240SOL    HW217618   3.938   3.335   2.619
 5241SOL     OW17619  11.931  10.194   7.847
 5241SOL    HW117620  11.952  10.115   7.797
 5241SOL    HW217621  11.836  10.190   7.859
 5242SOL     OW17622   2.579  10.074  13.101
 5242SOL    HW117623   2.652  10.123  13.063
 5242SOL    HW217624   2.578   9.992  13.053
 5243SOL     OW17625   2.172   9.575   2.415
 5243SOL    HW117626   2.175   9.502   2.476
 5243SOL    HW217627   2.148   9.536   2.331
 5244SOL     OW17628   7.498  10.133   0.299
 5244SOL    HW117629   7.528  10.097   0.216
 5244SOL    HW217630   7.512  10.062   0.362
 5245SOL     OW17631   3.096  10.601   5.748
 5245SOL    HW117632   3.120  10.552   5.827
 5245SOL    HW217633   3.081  10.690   5.779
 5246SOL     OW17634  11.911   0.899   0.058
 5246SOL    HW117635  11.902   0.958  14.865
 5246SOL    HW217636  11.902   0.956   0.135
 5247SOL     OW17637  13.959   6.549   4.941
 5247SOL    HW117638  13.999   6.587   5.019
 5247SOL    HW217639  13.866   6.544   4.962
 5248SOL     OW17640  10.810   8.367   0.678
 5248SOL    HW117641  10.759   8.311   0.620
 5248SOL    HW217642  10.832   8.444   0.625
 5249SOL     OW17643  10.633  10.424  14.368
 5249SOL    HW117644  10.723  10.431  14.336
 5249SOL    HW217645  10.607  10.334  14.347
 5250SOL     OW17646  13.288   9.653  14.794
 5250SOL    HW117647  13.336   9.732  14.820
 5250SOL    HW217648  13.354   9.584  14.793
 5251SOL     OW17649   3.280   3.895   9.066
 5251SOL    HW117650   3.360   3.942   9.087
 5251SOL    HW217651   3.210   3.948   9.104
 5252SOL     OW17652  13.782  10.832  13.415
 5252SOL    HW117653  13.797  10.923  13.389
 5252SOL    HW217654  13.864  10.788  13.393
 5253SOL     OW17655   2.315   6.964   7.247
 5253SOL    HW117656   2.337   6.872   7.260
 5253SOL    HW217657   2.381   6.996   7.185
 5254SOL     OW17658   1.058  12.524  13.795
 5254SOL    HW117659   1.043  12.619  13.791
 5254SOL    HW217660   1.093  12.503  13.708
 5255SOL     OW17661   3.798   3.563   9.771
 5255SOL    HW117662   3.839   3.500   9.831
 5255SOL    HW217663   3.716   3.587   9.814
 5256SOL     OW17664   2.306  11.805   1.425
 5256SOL    HW117665   2.321  11.827   1.333
 5256SOL    HW217666   2.343  11.717   1.435
 5257SOL     OW17667   7.404   3.841  13.733
 5257SOL    HW117668   7.360   3.773  13.785
 5257SOL    HW217669   7.351   3.848  13.653
 5258SOL     OW17670  12.681  11.614  11.870
 5258SOL    HW117671  12.774  11.602  11.892
 5258SOL    HW217672  12.651  11.526  11.848
 5259SOL     OW17673   7.768  10.456  13.585
 5259SOL    HW117674   7.774  10.539  13.538
 5259SOL    HW217675   7.702  10.471  13.653
 5260SOL     OW17676   4.190   1.453  12.144
 5260SOL    HW117677   4.242   1.430  12.067
 5260SOL    HW217678   4.152   1.538  12.123
 5261SOL     OW17679  13.498  14.290  14.151
 5261SOL    HW117680  13.531  14.240  14.226
 5261SOL    HW217681  13.412  14.252  14.134
 5262SOL     OW17682  13.537   2.549   9.483
 5262SOL    HW117683  13.459   2.601   9.503
 5262SOL    HW217684  13.552   2.564   9.389
 5263SOL     OW17685  11.732  13.402   5.441
 5263SOL    HW117686  11.741  13.306   5.440
 5263SOL    HW217687  11.639  13.417   5.422
 5264SOL     OW17688   6.726  12.448   7.551
 5264SOL    HW117689   6.726  12.353   7.560
 5264SOL    HW217690   6.726  12.481   7.641
 5265SOL     OW17691   1.263   5.181   7.715
 5265SOL    HW117692   1.295   5.195   7.804
 5265SOL    HW217693   1.293   5.257   7.666
 5266SOL     OW17694  14.656   0.502   0.118
 5266SOL    HW117695  14.619   0.436   0.177
 5266SOL    HW217696  14.749   0.477   0.111
 5267SOL     OW17697  11.340   2.460  13.498
 5267SOL    HW117698  11.378   2.531  13.447
 5267SOL    HW217699  11.334   2.495  13.587
 5268SOL     OW17700   6.948  14.382   8.167
 5268SOL    HW117701   6.976  14.336   8.247
 5268SOL    HW217702   6.965  14.475   8.186
 5269SOL     OW17703   4.167   6.806  13.086
 5269SOL    HW117704   4.161   6.852  13.170
 5269SOL    HW217705   4.248   6.838  13.047
 5270SOL     OW17706  12.909  10.938   2.711
 5270SOL    HW117707  12.931  10.881   2.785
 5270SOL    HW217708  12.842  10.891   2.662
 5271SOL     OW17709  13.645   4.064   9.314
 5271SOL    HW117710  13.711   4.065   9.383
 5271SOL    HW217711  13.693   4.087   9.234
 5272SOL     OW17712   6.465   4.203   4.534
 5272SOL    HW117713   6.481   4.290   4.498
 5272SOL    HW217714   6.545   4.153   4.514
 5273SOL     OW17715   0.522   5.508  11.218
 5273SOL    HW117716   0.442   5.529  11.267
 5273SOL    HW217717   0.533   5.414  11.229
 5274SOL     OW17718  14.451  13.918   1.959
 5274SOL    HW117719  14.489  13.907   1.872
 5274SOL    HW217720  14.388  13.847   1.968
 5275SOL     OW17721   2.024   5.647  13.439
 5275SOL    HW117722   2.093   5.582  13.434
 5275SOL    HW217723   1.957   5.608  13.495
 5276SOL     OW17724  14.743  11.403   6.910
 5276SOL    HW117725  14.801  11.463   6.864
 5276SOL    HW217726  14.688  11.460   6.964
 5277SOL     OW17727   4.850   3.712   0.221
 5277SOL    HW117728   4.819   3.741   0.307
 5277SOL    HW217729   4.863   3.617   0.231
 5278SOL     OW17730  12.386   1.321   2.269
 5278SOL    HW117731  12.454   1.385   2.290
 5278SOL    HW217732  12.304   1.370   2.274
 5279SOL     OW17733   4.855   0.985  14.133
 5279SOL    HW117734   4.803   0.927  14.078
 5279SOL    HW217735   4.946   0.965  14.111
 5280SOL     OW17736   7.824   7.209  11.769
 5280SOL    HW117737   7.903   7.261  11.759
 5280SOL    HW217738   7.851   7.119  11.749
 5281SOL     OW17739   5.063  11.292   7.627
 5281SOL    HW117740   5.099  11.380   7.637
 5281SOL    HW217741   4.970  11.306   7.607
 5282SOL     OW17742   7.975  13.700   7.221
 5282SOL    HW117743   7.937  13.757   7.288
 5282SOL    HW217744   7.902  13.680   7.162
 5283SOL     OW17745   1.157   5.375   8.312
 5283SOL    HW117746   1.238   5.336   8.278
 5283SOL    HW217747   1.186   5.434   8.381
 5284SOL     OW17748   4.759   5.301   8.530
 5284SOL    HW117749   4.727   5.212   8.516
 5284SOL    HW217750   4.726   5.350   8.455
 5285SOL     OW17751   2.471   5.263   1.367
 5285SOL    HW117752   2.427   5.326   1.311
 5285SOL    HW217753   2.405   5.234   1.429
 5286SOL     OW17754   0.684  10.443  10.247
 5286SOL    HW117755   0.665  10.359  10.206
 5286SOL    HW217756   0.613  10.500  10.219
 5287SOL     OW17757  11.438   1.963   4.382
 5287SOL    HW117758  11.350   1.996   4.397
 5287SOL    HW217759  11.495   2.039   4.394
 5288SOL     OW17760  14.869   6.041   3.573
 5288SOL    HW117761  14.816   6.108   3.528
 5288SOL    HW217762   0.045   6.091   3.630
 5289SOL     OW17763   6.181  10.764   2.821
 5289SOL    HW117764   6.234  10.844   2.824
 5289SOL    HW217765   6.155  10.750   2.912
 5290SOL     OW17766   6.048  10.488  12.532
 5290SOL    HW117767   5.972  10.434  12.556
 5290SOL    HW217768   6.021  10.533  12.452
 5291SOL     OW17769   0.741  14.165  14.291
 5291SOL    HW117770   0.784  14.082  14.314
 5291SOL    HW217771   0.700  14.193  14.373
 5292SOL     OW17772   9.238   4.954   4.091
 5292SOL    HW117773   9.305   4.893   4.062
 5292SOL    HW217774   9.247   5.029   4.032
 5293SOL     OW17775   9.657   8.300   2.301
 5293SOL    HW117776   9.582   8.339   2.257
 5293SOL    HW217777   9.625   8.275   2.388
 5294SOL     OW17778  12.360  13.305   6.432
 5294SOL    HW117779  12.453  13.319   6.412
 5294SOL    HW217780  12.332  13.237   6.371
 5295SOL     OW17781   5.185   5.372  10.323
 5295SOL    HW117782   5.223   5.370  10.235
 5295SOL    HW217783   5.093   5.349  10.310
 5296SOL     OW17784  10.145   4.375   2.407
 5296SOL    HW117785  10.054   4.405   2.412
 5296SOL    HW217786  10.161   4.336   2.493
 5297SOL     OW17787   7.520  14.816   7.272
 5297SOL    HW117788   7.563  14.743   7.229
 5297SOL    HW217789   7.439  14.779   7.308
 5298SOL     OW17790   7.200  11.911   8.141
 5298SOL    HW117791   7.138  11.848   8.106
 5298SOL    HW217792   7.185  11.909   8.235
 5299SOL     OW17793  13.356  13.695   3.582
 5299SOL    HW117794  13.379  13.784   3.554
 5299SOL    HW217795  13.322  13.705   3.671
 5300SOL     OW17796   8.901  14.428  12.399
 5300SOL    HW117797   8.974  14.453  12.456
 5300SOL    HW217798   8.827  14.419  12.458
 5301SOL     OW17799   0.493  13.418  14.596
 5301SOL    HW117800   0.542  13.350  14.549
 5301SOL    HW217801   0.451  13.371  14.668
 5302SOL     OW17802   0.983   2.931   3.489
 5302SOL    HW117803   0.893   2.903   3.471
 5302SOL    HW217804   1.037   2.880   3.429
 5303SOL     OW17805   6.655  14.647  12.738
 5303SOL    HW117806   6.687  14.580  12.677
 5303SOL    HW217807   6.635  14.598  12.818
 5304SOL     OW17808   2.169  11.813   8.874
 5304SOL    HW117809   2.239  11.827   8.810
 5304SOL    HW217810   2.178  11.886   8.935
 5305SOL     OW17811  12.140  14.551   7.153
 5305SOL    HW117812  12.163  14.641   7.130
 5305SOL    HW217813  12.045  14.553   7.163
 5306SOL     OW17814   9.207   6.946   4.427
 5306SOL    HW117815   9.171   6.895   4.499
 5306SOL    HW217816   9.264   7.010   4.469
 5307SOL     OW17817  12.637   9.047   8.669
 5307SOL    HW117818  12.597   9.135   8.666
 5307SOL    HW217819  12.680   9.044   8.754
 5308SOL     OW17820  13.885   0.358  12.698
 5308SOL    HW117821  13.961   0.408  12.729
 5308SOL    HW217822  13.830   0.423  12.654
 5309SOL     OW17823  11.790  11.958   6.788
 5309SOL    HW117824  11.865  11.998   6.745
 5309SOL    HW217825  11.800  11.864   6.774
 5310SOL     OW17826   4.468   2.232   7.883
 5310SOL    HW117827   4.389   2.284   7.867
 5310SOL    HW217828   4.540   2.294   7.868
 5311SOL     OW17829   4.244  11.333  14.005
 5311SOL    HW117830   4.199  11.278  13.941
 5311SOL    HW217831   4.285  11.402  13.952
 5312SOL     OW17832   7.955  14.832  13.473
 5312SOL    HW117833   7.913   0.002  13.541
 5312SOL    HW217834   8.040  14.874  13.461
 5313SOL     OW17835   0.477   3.553   7.978
 5313SOL    HW117836   0.484   3.563   8.073
 5313SOL    HW217837   0.458   3.461   7.964
 5314SOL     OW17838  13.210  13.566  13.636
 5314SOL    HW117839  13.249  13.543  13.552
 5314SOL    HW217840  13.284  13.588  13.692
 5315SOL     OW17841   4.928   2.107  13.433
 5315SOL    HW117842   4.938   2.064  13.348
 5315SOL    HW217843   4.958   2.197  13.418
 5316SOL     OW17844   4.090  10.740  13.502
 5316SOL    HW117845   4.079  10.792  13.422
 5316SOL    HW217846   4.053  10.655  13.480
 5317SOL     OW17847   4.382   3.539   4.536
 5317SOL    HW117848   4.410   3.467   4.480
 5317SOL    HW217849   4.360   3.609   4.475
 5318SOL     OW17850  10.190  14.665  11.654
 5318SOL    HW117851  10.285  14.668  11.670
 5318SOL    HW217852  10.172  14.573  11.637
 5319SOL     OW17853  10.642   5.290  11.974
 5319SOL    HW117854  10.631   5.297  11.879
 5319SOL    HW217855  10.568   5.339  12.010
 5320SOL     OW17856   3.495  10.525   3.127
 5320SOL    HW117857   3.519  10.593   3.189
 5320SOL    HW217858   3.577  10.479   3.108
 5321SOL     OW17859  10.100   0.033   7.560
 5321SOL    HW117860  10.132  14.825   7.571
 5321SOL    HW217861  10.179   0.087   7.564
 5322SOL     OW17862  14.208   7.081   2.008
 5322SOL    HW117863  14.286   7.027   2.018
 5322SOL    HW217864  14.158   7.069   2.089
 5323SOL     OW17865   8.690   9.342   3.897
 5323SOL    HW117866   8.666   9.344   3.804
 5323SOL    HW217867   8.632   9.275   3.934
 5324SOL     OW17868   6.547  13.016   1.241
 5324SOL    HW117869   6.563  13.084   1.176
 5324SOL    HW217870   6.634  12.985   1.266
 5325SOL     OW17871  12.746  10.874   6.426
 5325SOL    HW117872  12.733  10.908   6.338
 5325SOL    HW217873  12.838  10.894   6.446
 5326SOL     OW17874  12.007  11.640   6.643
 5326SOL    HW117875  11.986  11.696   6.717
 5326SOL    HW217876  11.922  11.605   6.615
 5327SOL     OW17877   7.390  12.833   2.362
 5327SOL    HW117878   7.408  12.833   2.268
 5327SOL    HW217879   7.376  12.741   2.384
 5328SOL     OW17880   8.123  13.514  11.302
 5328SOL    HW117881   8.038  13.557  11.310
 5328SOL    HW217882   8.105  13.431  11.258
 5329SOL     OW17883   4.188  10.752  11.902
 5329SOL    HW117884   4.229  10.724  11.983
 5329SOL    HW217885   4.239  10.708  11.833
 5330SOL     OW17886   4.088   6.593   0.458
 5330SOL    HW117887   4.165   6.586   0.515
 5330SOL    HW217888   4.043   6.509   0.469
 5331SOL     OW17889  13.919   9.332  13.392
 5331SOL    HW117890  14.010   9.306  13.409
 5331SOL    HW217891  13.924   9.426  13.377
 5332SOL     OW17892   9.860   6.709   6.218
 5332SOL    HW117893   9.791   6.692   6.154
 5332SOL    HW217894   9.910   6.782   6.182
 5333SOL     OW17895   1.996  14.059   8.429
 5333SOL    HW117896   1.947  13.990   8.473
 5333SOL    HW217897   2.039  14.106   8.501
 5334SOL     OW17898   6.976   3.629   9.618
 5334SOL    HW117899   7.066   3.637   9.648
 5334SOL    HW217900   6.977   3.556   9.557
 5335SOL     OW17901   2.926  13.936   9.311
 5335SOL    HW117902   2.991  13.996   9.275
 5335SOL    HW217903   2.856  13.993   9.342
 5336SOL     OW17904   8.010  11.198   3.598
 5336SOL    HW117905   7.986  11.105   3.594
 5336SOL    HW217906   8.022  11.215   3.692
 5337SOL     OW17907  10.871   0.342   8.135
 5337SOL    HW117908  10.794   0.400   8.128
 5337SOL    HW217909  10.856   0.293   8.216
 5338SOL     OW17910   5.110  14.157   4.520
 5338SOL    HW117911   5.015  14.160   4.510
 5338SOL    HW217912   5.128  14.067   4.547
 5339SOL     OW17913  10.288  13.880  11.994
 5339SOL    HW117914  10.208  13.834  11.970
 5339SOL    HW217915  10.261  13.970  12.008
 5340SOL     OW17916  12.537  13.969   8.381
 5340SOL    HW117917  12.578  14.054   8.393
 5340SOL    HW217918  12.610  13.909   8.365
 5341SOL     OW17919  12.394   5.237   1.140
 5341SOL    HW117920  12.488   5.231   1.157
 5341SOL    HW217921  12.375   5.163   1.082
 5342SOL     OW17922  10.594  11.457   1.050
 5342SOL    HW117923  10.615  11.537   1.003
 5342SOL    HW217924  10.528  11.482   1.114
 5343SOL     OW17925  10.101   3.952   4.631
 5343SOL    HW117926  10.053   4.014   4.576
 5343SOL    HW217927  10.059   3.959   4.717
 5344SOL     OW17928  14.088   5.237   8.899
 5344SOL    HW117929  14.118   5.168   8.958
 5344SOL    HW217930  14.161   5.251   8.839
 5345SOL     OW17931   4.895   1.184  11.156
 5345SOL    HW117932   4.912   1.147  11.069
 5345SOL    HW217933   4.851   1.114  11.204
 5346SOL     OW17934   2.558  13.288  13.409
 5346SOL    HW117935   2.627  13.284  13.475
 5346SOL    HW217936   2.604  13.310  13.328
 5347SOL     OW17937   6.410   5.765   0.988
 5347SOL    HW117938   6.372   5.697   0.933
 5347SOL    HW217939   6.376   5.746   1.076
 5348SOL     OW17940   0.932  11.977   1.237
 5348SOL    HW117941   0.945  12.052   1.295
 5348SOL    HW217942   0.884  12.013   1.162
 5349SOL     OW17943   8.062  13.770   2.445
 5349SOL    HW117944   8.058  13.719   2.364
 5349SOL    HW217945   8.104  13.852   2.419
 5350SOL     OW17946   0.931  12.368  10.707
 5350SOL    HW117947   0.941  12.463  10.712
 5350SOL    HW217948   0.997  12.341  10.642
 5351SOL     OW17949   2.966   8.673   8.474
 5351SOL    HW117950   2.890   8.724   8.501
 5351SOL    HW217951   3.017   8.661   8.554
 5352SOL     OW17952   5.709   7.222   0.868
 5352SOL    HW117953   5.671   7.143   0.829
 5352SOL    HW217954   5.711   7.203   0.962
 5353SOL     OW17955   5.735  13.059  14.116
 5353SOL    HW117956   5.810  13.023  14.068
 5353SOL    HW217957   5.697  13.124  14.057
 5354SOL     OW17958   8.676  10.790   8.446
 5354SOL    HW117959   8.709  10.798   8.536
 5354SOL    HW217960   8.676  10.880   8.413
 5355SOL     OW17961   7.024  14.794   0.033
 5355SOL    HW117962   7.104  14.832   0.068
 5355SOL    HW217963   7.012  14.713   0.082
 5356SOL     OW17964   7.936  14.662   6.800
 5356SOL    HW117965   7.944  14.573   6.834
 5356SOL    HW217966   8.024  14.683   6.769
 5357SOL     OW17967   4.126   9.755   4.700
 5357SOL    HW117968   4.137   9.845   4.729
 5357SOL    HW217969   4.214   9.718   4.702
 5358SOL     OW17970   5.233  14.787   5.216
 5358SOL    HW117971   5.265  14.848   5.150
 5358SOL    HW217972   5.167  14.735   5.171
 5359SOL     OW17973   4.478   4.233   5.108
 5359SOL    HW117974   4.531   4.249   5.186
 5359SOL    HW217975   4.393   4.271   5.128
 5360SOL     OW17976  11.307   6.224  10.368
 5360SOL    HW117977  11.366   6.285  10.412
 5360SOL    HW217978  11.280   6.163  10.436
 5361SOL     OW17979   3.485   1.879   5.633
 5361SOL    HW117980   3.547   1.819   5.673
 5361SOL    HW217981   3.427   1.904   5.705
 5362SOL     OW17982   4.838  13.963  12.916
 5362SOL    HW117983   4.925  13.961  12.956
 5362SOL    HW217984   4.811  13.871  12.913
 5363SOL     OW17985   6.768   6.565  13.864
 5363SOL    HW117986   6.757   6.526  13.950
 5363SOL    HW217987   6.857   6.599  13.864
 5364SOL     OW17988   4.258   2.678  11.373
 5364SOL    HW117989   4.187   2.624  11.339
 5364SOL    HW217990   4.242   2.765  11.337
 5365SOL     OW17991   6.070   0.408   0.410
 5365SOL    HW117992   6.117   0.375   0.486
 5365SOL    HW217993   5.998   0.460   0.448
 5366SOL     OW17994  13.863  13.375   4.351
 5366SOL    HW117995  13.828  13.457   4.316
 5366SOL    HW217996  13.957  13.380   4.335
 5367SOL     OW17997   9.948   7.138  11.195
 5367SOL    HW117998   9.955   7.171  11.285
 5367SOL    HW217999  10.020   7.075  11.187
 5368SOL     OW18000  11.256   1.512   0.152
 5368SOL    HW118001  11.223   1.588   0.200
 5368SOL    HW218002  11.257   1.539   0.061
 5369SOL     OW18003  12.453  10.079  12.128
 5369SOL    HW118004  12.389  10.017  12.093
 5369SOL    HW218005  12.505  10.027  12.190
 5370SOL     OW18006   8.073   6.629   7.593
 5370SOL    HW118007   8.037   6.718   7.591
 5370SOL    HW218008   8.071   6.604   7.686
 5371SOL     OW18009   1.851   5.886  14.391
 5371SOL    HW118010   1.767   5.869  14.433
 5371SOL    HW218011   1.897   5.944  14.451
 5372SOL     OW18012  10.901   1.056   5.347
 5372SOL    HW118013  10.987   1.097   5.337
 5372SOL    HW218014  10.863   1.100   5.423
 5373SOL     OW18015   0.135   5.749   5.833
 5373SOL    HW118016   0.151   5.838   5.801
 5373SOL    HW218017   0.202   5.696   5.791
 5374SOL     OW18018  12.257   8.451   7.660
 5374SOL    HW118019  12.244   8.537   7.700
 5374SOL    HW218020  12.328   8.412   7.711
 5375SOL     OW18021   5.725   3.538   3.002
 5375SOL    HW118022   5.646   3.513   3.049
 5375SOL    HW218023   5.795   3.530   3.066
 5376SOL     OW18024  14.793   7.635   8.468
 5376SOL    HW118025  14.793   7.641   8.372
 5376SOL    HW218026  14.714   7.586   8.489
 5377SOL     OW18027  10.873   7.635   6.034
 5377SOL    HW118028  10.935   7.605   5.967
 5377SOL    HW218029  10.897   7.726   6.050
 5378SOL     OW18030   1.513   8.155   5.626
 5378SOL    HW118031   1.472   8.152   5.712
 5378SOL    HW218032   1.475   8.081   5.578
 5379SOL     OW18033   0.979  13.247  10.598
 5379SOL    HW118034   0.980  13.186  10.524
 5379SOL    HW218035   0.887  13.261  10.618
 5380SOL     OW18036   1.224  11.159   5.389
 5380SOL    HW118037   1.238  11.248   5.358
 5380SOL    HW218038   1.312  11.125   5.406
 5381SOL     OW18039   9.094  13.102   2.391
 5381SOL    HW118040   9.031  13.103   2.463
 5381SOL    HW218041   9.060  13.164   2.327
 5382SOL     OW18042   2.387   5.954   4.034
 5382SOL    HW118043   2.410   5.899   3.960
 5382SOL    HW218044   2.454   6.023   4.034
 5383SOL     OW18045   7.332  11.979   6.555
 5383SOL    HW118046   7.282  12.026   6.490
 5383SOL    HW218047   7.279  11.902   6.576
 5384SOL     OW18048   9.783  13.093   4.519
 5384SOL    HW118049   9.866  13.076   4.563
 5384SOL    HW218050   9.745  13.166   4.568
 5385SOL     OW18051   5.922   1.209  14.823
 5385SOL    HW118052   5.885   1.284  14.775
 5385SOL    HW218053   5.925   1.239   0.032
 5386SOL     OW18054   5.526   2.172   8.241
 5386SOL    HW118055   5.473   2.175   8.162
 5386SOL    HW218056   5.469   2.208   8.309
 5387SOL     OW18057  12.297   2.448   0.721
 5387SOL    HW118058  12.241   2.474   0.649
 5387SOL    HW218059  12.238   2.410   0.786
 5388SOL     OW18060   9.920   9.875  14.860
 5388SOL    HW118061   9.837   9.829  14.872
 5388SOL    HW218062   9.987   9.807  14.873
 5389SOL     OW18063   3.833   1.062   4.540
 5389SOL    HW118064   3.754   1.036   4.493
 5389SOL    HW218065   3.803   1.127   4.603
 5390SOL     OW18066  13.317   5.853  14.430
 5390SOL    HW118067  13.261   5.924  14.461
 5390SOL    HW218068  13.303   5.782  14.492
 5391SOL     OW18069   4.944  10.521   1.197
 5391SOL    HW118070   4.902  10.478   1.122
 5391SOL    HW218071   4.961  10.450   1.259
 5392SOL     OW18072   6.576  14.148   8.960
 5392SOL    HW118073   6.494  14.196   8.961
 5392SOL    HW218074   6.574  14.095   9.039
 5393SOL     OW18075   4.678   0.498  12.768
 5393SOL    HW118076   4.654   0.409  12.745
 5393SOL    HW218077   4.634   0.514  12.852
 5394SOL     OW18078  12.772  11.777   7.001
 5394SOL    HW118079  12.766  11.683   6.986
 5394SOL    HW218080  12.864  11.792   7.022
 5395SOL     OW18081   5.306   5.674   9.427
 5395SOL    HW118082   5.323   5.696   9.335
 5395SOL    HW218083   5.392   5.659   9.465
 5396SOL     OW18084   4.539  10.519   6.984
 5396SOL    HW118085   4.456  10.565   6.981
 5396SOL    HW218086   4.518  10.429   6.961
 5397SOL     OW18087  14.838   8.711   0.959
 5397SOL    HW118088  14.785   8.747   1.030
 5397SOL    HW218089   0.022   8.658   1.003
 5398SOL     OW18090   1.150   9.482   2.591
 5398SOL    HW118091   1.075   9.535   2.621
 5398SOL    HW218092   1.153   9.498   2.496
 5399SOL     OW18093  12.821   2.578  10.460
 5399SOL    HW118094  12.854   2.649  10.516
 5399SOL    HW218095  12.805   2.619  10.376
 5400SOL     OW18096   2.016  14.314  12.476
 5400SOL    HW118097   1.976  14.383  12.530
 5400SOL    HW218098   1.952  14.243  12.477
 5401SOL     OW18099   4.616  11.724   5.992
 5401SOL    HW118100   4.611  11.798   5.931
 5401SOL    HW218101   4.549  11.744   6.058
 5402SOL     OW18102   6.192  10.067   5.625
 5402SOL    HW118103   6.199  10.162   5.612
 5402SOL    HW218104   6.253  10.048   5.697
 5403SOL     OW18105   9.933   0.305  10.128
 5403SOL    HW118106   9.896   0.374  10.072
 5403SOL    HW218107   9.900   0.224  10.090
 5404SOL     OW18108  14.106   9.719   3.325
 5404SOL    HW118109  14.032   9.701   3.267
 5404SOL    HW218110  14.098   9.654   3.395
 5405SOL     OW18111   0.093   4.726   4.810
 5405SOL    HW118112   0.027   4.742   4.742
 5405SOL    HW218113   0.048   4.745   4.892
 5406SOL     OW18114   2.949   2.693   3.082
 5406SOL    HW118115   2.865   2.717   3.042
 5406SOL    HW218116   2.989   2.778   3.105
 5407SOL     OW18117   6.061   0.146  10.126
 5407SOL    HW118118   6.105   0.116  10.046
 5407SOL    HW218119   5.983   0.091  10.133
 5408SOL     OW18120   0.234  14.802   4.207
 5408SOL    HW118121   0.295  14.837   4.141
 5408SOL    HW218122   0.285  14.803   4.288
 5409SOL     OW18123   4.905   0.395  12.421
 5409SOL    HW118124   4.952   0.410  12.339
 5409SOL    HW218125   4.969   0.354  12.479
 5410SOL     OW18126   8.383   6.098   7.419
 5410SOL    HW118127   8.419   6.176   7.376
 5410SOL    HW218128   8.368   6.125   7.509
 5411SOL     OW18129   8.223   9.577   4.837
 5411SOL    HW118130   8.188   9.494   4.868
 5411SOL    HW218131   8.154   9.641   4.857
 5412SOL     OW18132   5.029   9.120   4.277
 5412SOL    HW118133   5.104   9.139   4.333
 5412SOL    HW218134   5.042   9.178   4.201
 5413SOL     OW18135   2.176   7.509  11.661
 5413SOL    HW118136   2.226   7.590  11.651
 5413SOL    HW218137   2.091   7.537  11.694
 5414SOL     OW18138  12.508   8.203  13.829
 5414SOL    HW118139  12.443   8.263  13.868
 5414SOL    HW218140  12.458   8.124  13.810
 5415SOL     OW18141  10.712   6.932   6.934
 5415SOL    HW118142  10.696   6.989   7.009
 5415SOL    HW218143  10.775   6.868   6.965
 5416SOL     OW18144   8.927   2.435   8.472
 5416SOL    HW118145   8.916   2.348   8.511
 5416SOL    HW218146   8.866   2.491   8.520
 5417SOL     OW18147  13.862   6.207   0.239
 5417SOL    HW118148  13.865   6.111   0.241
 5417SOL    HW218149  13.901   6.234   0.321
 5418SOL     OW18150   4.343   3.330  11.699
 5418SOL    HW118151   4.421   3.281  11.673
 5418SOL    HW218152   4.271   3.268  11.688
 5419SOL     OW18153   2.061  12.565   4.644
 5419SOL    HW118154   1.990  12.563   4.580
 5419SOL    HW218155   2.118  12.492   4.620
 5420SOL     OW18156  11.915   5.454  10.052
 5420SOL    HW118157  11.958   5.533  10.084
 5420SOL    HW218158  11.953   5.383  10.104
 5421SOL     OW18159   0.851   9.965   9.804
 5421SOL    HW118160   0.793   9.993   9.875
 5421SOL    HW218161   0.832   9.872   9.792
 5422SOL     OW18162   8.607   4.283   8.626
 5422SOL    HW118163   8.578   4.361   8.580
 5422SOL    HW218164   8.562   4.210   8.582
 5423SOL     OW18165  14.079   0.435   2.435
 5423SOL    HW118166  14.124   0.510   2.473
 5423SOL    HW218167  14.106   0.435   2.343
 5424SOL     OW18168   7.064  14.658   3.878
 5424SOL    HW118169   7.155  14.650   3.852
 5424SOL    HW218170   7.061  14.620   3.966
 5425SOL     OW18171   4.576   8.357   2.266
 5425SOL    HW118172   4.539   8.426   2.322
 5425SOL    HW218173   4.499   8.313   2.228
 5426SOL     OW18174   6.981   1.559   7.244
 5426SOL    HW118175   7.070   1.591   7.231
 5426SOL    HW218176   6.965   1.572   7.338
 5427SOL     OW18177   4.359   1.251  11.017
 5427SOL    HW118178   4.410   1.185  10.970
 5427SOL    HW218179   4.403   1.261  11.101
 5428SOL     OW18180   5.922   2.878  11.004
 5428SOL    HW118181   5.928   2.936  11.081
 5428SOL    HW218182   5.958   2.795  11.035
 5429SOL     OW18183  10.631  13.516   2.708
 5429SOL    HW118184  10.561  13.557   2.760
 5429SOL    HW218185  10.653  13.436   2.756
 5430SOL     OW18186  13.086  14.408  14.205
 5430SOL    HW118187  13.077  14.493  14.163
 5430SOL    HW218188  13.139  14.426  14.284
 5431SOL     OW18189  14.053   8.733  13.148
 5431SOL    HW118190  14.012   8.771  13.226
 5431SOL    HW218191  14.048   8.801  13.082
 5432SOL     OW18192   1.135   5.023   6.480
 5432SOL    HW118193   1.214   5.034   6.533
 5432SOL    HW218194   1.137   5.096   6.418
 5433SOL     OW18195   6.339  10.910  14.401
 5433SOL    HW118196   6.390  10.836  14.433
 5433SOL    HW218197   6.392  10.987  14.421
 5434SOL     OW18198   1.315   2.097   5.238
 5434SOL    HW118199   1.322   2.100   5.333
 5434SOL    HW218200   1.398   2.134   5.207
 5435SOL     OW18201   8.876  13.122  12.308
 5435SOL    HW118202   8.961  13.096  12.343
 5435SOL    HW218203   8.813  13.076  12.363
 5436SOL     OW18204   2.164  13.441   3.301
 5436SOL    HW118205   2.097  13.509   3.305
 5436SOL    HW218206   2.133  13.374   3.362
 5437SOL     OW18207   9.531  14.041  12.704
 5437SOL    HW118208   9.582  14.119  12.681
 5437SOL    HW218209   9.499  14.008  12.620
 5438SOL     OW18210   6.483   7.585  14.159
 5438SOL    HW118211   6.519   7.615  14.243
 5438SOL    HW218212   6.420   7.653  14.134
 5439SOL     OW18213   3.331  10.973   5.725
 5439SOL    HW118214   3.375  10.895   5.694
 5439SOL    HW218215   3.249  10.976   5.674
 5440SOL     OW18216  11.126   3.583   0.438
 5440SOL    HW118217  11.158   3.544   0.357
 5440SOL    HW218218  11.110   3.675   0.415
 5441SOL     OW18219  14.266   4.819   0.908
 5441SOL    HW118220  14.210   4.881   0.955
 5441SOL    HW218221  14.354   4.857   0.913
 5442SOL     OW18222  10.822  11.220   8.433
 5442SOL    HW118223  10.766  11.288   8.397
 5442SOL    HW218224  10.899  11.217   8.376
 5443SOL     OW18225   5.903   4.918   3.748
 5443SOL    HW118226   5.956   4.891   3.824
 5443SOL    HW218227   5.904   5.014   3.751
 5444SOL     OW18228   0.902  12.792   4.889
 5444SOL    HW118229   0.922  12.703   4.858
 5444SOL    HW218230   0.838  12.779   4.960
 5445SOL     OW18231   7.789   8.639  11.105
 5445SOL    HW118232   7.795   8.630  11.200
 5445SOL    HW218233   7.695   8.638  11.086
 5446SOL     OW18234   1.421   5.138  12.579
 5446SOL    HW118235   1.494   5.087  12.613
 5446SOL    HW218236   1.456   5.182  12.502
 5447SOL     OW18237  12.155   1.224  11.185
 5447SOL    HW118238  12.223   1.168  11.224
 5447SOL    HW218239  12.195   1.258  11.105
 5448SOL     OW18240   2.126   8.906   5.341
 5448SOL    HW118241   2.113   8.940   5.429
 5448SOL    HW218242   2.083   8.821   5.342
 5449SOL     OW18243   0.903  11.576   6.305
 5449SOL    HW118244   0.878  11.552   6.215
 5449SOL    HW218245   0.829  11.628   6.337
 5450SOL     OW18246  11.856   5.911   1.264
 5450SOL    HW118247  11.796   5.836   1.267
 5450SOL    HW218248  11.872   5.924   1.171
 5451SOL     OW18249  11.300   2.734   0.571
 5451SOL    HW118250  11.313   2.768   0.482
 5451SOL    HW218251  11.368   2.777   0.623
 5452SOL     OW18252  13.109   5.217  11.526
 5452SOL    HW118253  13.113   5.155  11.453
 5452SOL    HW218254  13.111   5.303  11.484
 5453SOL     OW18255   2.513  14.295   6.668
 5453SOL    HW118256   2.562  14.224   6.708
 5453SOL    HW218257   2.467  14.254   6.594
 5454SOL     OW18258  13.090  13.569  10.362
 5454SOL    HW118259  13.007  13.598  10.400
 5454SOL    HW218260  13.082  13.588  10.269
 5455SOL     OW18261  10.192   6.261   2.096
 5455SOL    HW118262  10.211   6.167   2.100
 5455SOL    HW218263  10.277   6.303   2.108
 5456SOL     OW18264  12.099   8.723   4.504
 5456SOL    HW118265  12.008   8.749   4.516
 5456SOL    HW218266  12.150   8.796   4.539
 5457SOL     OW18267   0.543  12.527   3.254
 5457SOL    HW118268   0.449  12.529   3.240
 5457SOL    HW218269   0.573  12.453   3.201
 5458SOL     OW18270   2.534   4.352  10.576
 5458SOL    HW118271   2.563   4.405  10.502
 5458SOL    HW218272   2.614   4.310  10.608
 5459SOL     OW18273  13.443  14.742   4.429
 5459SOL    HW118274  13.443  14.749   4.524
 5459SOL    HW218275  13.421  14.830   4.398
 5460SOL     OW18276   9.832   3.530   9.842
 5460SOL    HW118277   9.746   3.569   9.822
 5460SOL    HW218278   9.877   3.598   9.892
 5461SOL     OW18279   8.442   7.148   8.472
 5461SOL    HW118280   8.440   7.219   8.536
 5461SOL    HW218281   8.417   7.189   8.389
 5462SOL     OW18282   7.705   8.656   0.827
 5462SOL    HW118283   7.714   8.611   0.911
 5462SOL    HW218284   7.710   8.586   0.761
 5463SOL     OW18285   4.587   9.071   6.251
 5463SOL    HW118286   4.626   9.131   6.188
 5463SOL    HW218287   4.641   9.082   6.330
 5464SOL     OW18288  12.870  13.511   7.375
 5464SOL    HW118289  12.884  13.603   7.355
 5464SOL    HW218290  12.809  13.481   7.308
 5465SOL     OW18291  14.203   1.882  14.570
 5465SOL    HW118292  14.247   1.962  14.599
 5465SOL    HW218293  14.119   1.883  14.615
 5466SOL     OW18294  12.867   6.529  13.255
 5466SOL    HW118295  12.893   6.582  13.180
 5466SOL    HW218296  12.879   6.587  13.330
 5467SOL     OW18297  10.381   4.232   5.564
 5467SOL    HW118298  10.293   4.271   5.562
 5467SOL    HW218299  10.439   4.307   5.580
 5468SOL     OW18300   3.905   4.884   2.320
 5468SOL    HW118301   3.819   4.912   2.289
 5468SOL    HW218302   3.895   4.877   2.415
 5469SOL     OW18303   2.421   4.809  12.419
 5469SOL    HW118304   2.359   4.838  12.353
 5469SOL    HW218305   2.370   4.801  12.499
 5470SOL     OW18306  14.411   9.509   2.228
 5470SOL    HW118307  14.480   9.486   2.167
 5470SOL    HW218308  14.419   9.445   2.299
 5471SOL     OW18309  10.813   6.682  14.096
 5471SOL    HW118310  10.858   6.713  14.174
 5471SOL    HW218311  10.722   6.673  14.122
 5472SOL     OW18312  10.336   3.880   1.718
 5472SOL    HW118313  10.413   3.865   1.772
 5472SOL    HW218314  10.357   3.842   1.633
 5473SOL     OW18315   5.739  12.505   5.523
 5473SOL    HW118316   5.770  12.416   5.510
 5473SOL    HW218317   5.815  12.553   5.554
 5474SOL     OW18318   1.761   8.753  11.797
 5474SOL    HW118319   1.791   8.697  11.868
 5474SOL    HW218320   1.767   8.698  11.719
 5475SOL     OW18321   9.177  10.382   7.405
 5475SOL    HW118322   9.213  10.308   7.453
 5475SOL    HW218323   9.148  10.345   7.322
 5476SOL     OW18324   1.211   8.953   0.616
 5476SOL    HW118325   1.177   8.974   0.703
 5476SOL    HW218326   1.210   8.858   0.612
 5477SOL     OW18327   5.330   8.658   1.361
 5477SOL    HW118328   5.330   8.631   1.453
 5477SOL    HW218329   5.348   8.752   1.364
 5478SOL     OW18330  13.199   8.954   8.610
 5478SOL    HW118331  13.122   8.942   8.666
 5478SOL    HW218332  13.175   9.025   8.551
 5479SOL     OW18333   4.641  13.356  12.560
 5479SOL    HW118334   4.621  13.328  12.649
 5479SOL    HW218335   4.568  13.415  12.537
 5480SOL     OW18336   1.887   6.445   9.852
 5480SOL    HW118337   1.859   6.392   9.926
 5480SOL    HW218338   1.884   6.535   9.884
 5481SOL     OW18339   1.810   6.470  14.570
 5481SOL    HW118340   1.833   6.505  14.484
 5481SOL    HW218341   1.892   6.473  14.619
 5482SOL     OW18342   1.677   1.108  14.062
 5482SOL    HW118343   1.652   1.198  14.041
 5482SOL    HW218344   1.674   1.105  14.158
 5483SOL     OW18345   6.685   9.475  14.868
 5483SOL    HW118346   6.712   9.405   0.046
 5483SOL    HW218347   6.667   9.549   0.043
 5484SOL     OW18348  14.701  14.862  10.503
 5484SOL    HW118349  14.644  14.792  10.471
 5484SOL    HW218350  14.642   0.052  10.524
 5485SOL     OW18351   3.481  10.920   4.325
 5485SOL    HW118352   3.484  11.013   4.348
 5485SOL    HW218353   3.532  10.876   4.393
 5486SOL     OW18354   6.585  13.521   4.631
 5486SOL    HW118355   6.525  13.478   4.570
 5486SOL    HW218356   6.648  13.453   4.654
 5487SOL     OW18357  13.917  14.851   9.745
 5487SOL    HW118358  14.004  14.874   9.710
 5487SOL    HW218359  13.856   0.003   9.680
 5488SOL     OW18360   1.991   6.514   0.532
 5488SOL    HW118361   2.081   6.482   0.545
 5488SOL    HW218362   1.965   6.548   0.617
 5489SOL     OW18363  10.418   5.124  14.856
 5489SOL    HW118364  10.476   5.083   0.038
 5489SOL    HW218365  10.382   5.200   0.019
 5490SOL     OW18366   8.153   1.548   9.667
 5490SOL    HW118367   8.064   1.524   9.641
 5490SOL    HW218368   8.151   1.644   9.676
 5491SOL     OW18369   3.540  13.731   1.535
 5491SOL    HW118370   3.515  13.672   1.464
 5491SOL    HW218371   3.562  13.673   1.608
 5492SOL     OW18372  14.027  11.370   4.411
 5492SOL    HW118373  13.973  11.404   4.483
 5492SOL    HW218374  14.073  11.295   4.450
 5493SOL     OW18375   7.369   1.030  13.024
 5493SOL    HW118376   7.355   0.976  13.101
 5493SOL    HW218377   7.305   0.999  12.961
 5494SOL     OW18378  11.970  14.474  14.537
 5494SOL    HW118379  11.897  14.498  14.481
 5494SOL    HW218380  12.020  14.555  14.547
 5495SOL     OW18381  13.602   4.554  14.669
 5495SOL    HW118382  13.608   4.480  14.609
 5495SOL    HW218383  13.638   4.520  14.752
 5496SOL     OW18384   9.608   1.096  12.161
 5496SOL    HW118385   9.609   1.174  12.218
 5496SOL    HW218386   9.626   1.130  12.073
 5497SOL     OW18387   8.343   9.150   8.161
 5497SOL    HW118388   8.428   9.117   8.131
 5497SOL    HW218389   8.348   9.244   8.150
 5498SOL     OW18390  10.746   4.647   8.638
 5498SOL    HW118391  10.725   4.554   8.641
 5498SOL    HW218392  10.735   4.678   8.728
 5499SOL     OW18393   8.927   2.508  10.844
 5499SOL    HW118394   8.878   2.427  10.859
 5499SOL    HW218395   8.979   2.520  10.923
 5500SOL     OW18396   5.321   5.826   7.227
 5500SOL    HW118397   5.304   5.905   7.176
 5500SOL    HW218398   5.321   5.756   7.162
 5501SOL     OW18399   0.222  10.760   1.140
 5501SOL    HW118400   0.137  10.722   1.120
 5501SOL    HW218401   0.268  10.692   1.190
 5502SOL     OW18402   4.090   6.453   8.499
 5502SOL    HW118403   4.143   6.494   8.431
 5502SOL    HW218404   4.139   6.468   8.580
 5503SOL     OW18405   5.327   0.286   5.980
 5503SOL    HW118406   5.245   0.309   5.938
 5503SOL    HW218407   5.383   0.256   5.908
 5504SOL     OW18408  13.602   6.001   1.623
 5504SOL    HW118409  13.559   5.917   1.609
 5504SOL    HW218410  13.687   5.991   1.581
 5505SOL     OW18411   1.620  11.666   8.659
 5505SOL    HW118412   1.530  11.663   8.627
 5505SOL    HW218413   1.644  11.575   8.674
 5506SOL     OW18414   3.454  10.834   8.331
 5506SOL    HW118415   3.396  10.760   8.317
 5506SOL    HW218416   3.395  10.907   8.353
 5507SOL     OW18417  10.704   0.809   3.375
 5507SOL    HW118418  10.646   0.854   3.313
 5507SOL    HW218419  10.779   0.782   3.323
 5508SOL     OW18420   5.321   3.180   7.743
 5508SOL    HW118421   5.331   3.087   7.764
 5508SOL    HW218422   5.266   3.214   7.813
 5509SOL     OW18423   4.810   9.243  11.869
 5509SOL    HW118424   4.777   9.330  11.847
 5509SOL    HW218425   4.867   9.258  11.945
 5510SOL     OW18426   0.068   6.846  13.919
 5510SOL    HW118427   0.001   6.784  13.947
 5510SOL    HW218428   0.022   6.930  13.914
 5511SOL     OW18429   6.417   4.304   8.279
 5511SOL    HW118430   6.406   4.270   8.368
 5511SOL    HW218431   6.488   4.252   8.242
 5512SOL     OW18432  10.525   5.927   6.706
 5512SOL    HW118433  10.458   5.875   6.660
 5512SOL    HW218434  10.564   5.866   6.769
 5513SOL     OW18435   3.977   7.202   6.725
 5513SOL    HW118436   4.066   7.175   6.703
 5513SOL    HW218437   3.928   7.192   6.643
 5514SOL     OW18438  14.690   0.540   4.711
 5514SOL    HW118439  14.629   0.529   4.637
 5514SOL    HW218440  14.634   0.566   4.784
 5515SOL     OW18441  14.724   6.803   4.685
 5515SOL    HW118442  14.770   6.841   4.610
 5515SOL    HW218443  14.698   6.879   4.738
 5516SOL     OW18444   6.961  11.503  13.721
 5516SOL    HW118445   7.003  11.517  13.635
 5516SOL    HW218446   7.028  11.529  13.784
 5517SOL     OW18447   8.651  12.021   3.485
 5517SOL    HW118448   8.723  11.967   3.454
 5517SOL    HW218449   8.681  12.111   3.473
 5518SOL     OW18450  11.440   8.043   1.898
 5518SOL    HW118451  11.404   7.991   1.971
 5518SOL    HW218452  11.416   7.993   1.820
 5519SOL     OW18453   1.192   7.983   9.170
 5519SOL    HW118454   1.232   8.041   9.104
 5519SOL    HW218455   1.121   7.939   9.124
 5520SOL     OW18456   8.479   8.093   3.148
 5520SOL    HW118457   8.477   8.165   3.086
 5520SOL    HW218458   8.526   8.023   3.103
 5521SOL     OW18459   4.304   4.889   9.457
 5521SOL    HW118460   4.224   4.936   9.433
 5521SOL    HW218461   4.364   4.958   9.487
 5522SOL     OW18462   7.837   6.169  10.682
 5522SOL    HW118463   7.823   6.136  10.593
 5522SOL    HW218464   7.799   6.257  10.681
 5523SOL     OW18465  11.414   6.475   5.897
 5523SOL    HW118466  11.408   6.564   5.932
 5523SOL    HW218467  11.377   6.419   5.965
 5524SOL     OW18468   9.038   2.192   4.330
 5524SOL    HW118469   9.036   2.273   4.380
 5524SOL    HW218470   9.091   2.212   4.253
 5525SOL     OW18471   5.936  12.601   0.109
 5525SOL    HW118472   5.991  12.608   0.187
 5525SOL    HW218473   5.979  12.534   0.055
 5526SOL     OW18474   0.475   9.431   3.202
 5526SOL    HW118475   0.481   9.427   3.297
 5526SOL    HW218476   0.382   9.416   3.183
 5527SOL     OW18477  10.707  13.005   0.060
 5527SOL    HW118478  10.763  12.928   0.053
 5527SOL    HW218479  10.723  13.054  14.861
 5528SOL     OW18480   7.525   8.909   9.104
 5528SOL    HW118481   7.525   8.893   9.009
 5528SOL    HW218482   7.616   8.893   9.131
 5529SOL     OW18483  13.440   1.381  10.106
 5529SOL    HW118484  13.352   1.387  10.068
 5529SOL    HW218485  13.497   1.363  10.031
 5530SOL     OW18486   5.569  12.151   4.658
 5530SOL    HW118487   5.493  12.197   4.622
 5530SOL    HW218488   5.584  12.193   4.742
 5531SOL     OW18489  13.104   5.677  13.596
 5531SOL    HW118490  13.074   5.675  13.687
 5531SOL    HW218491  13.078   5.592  13.561
 5532SOL     OW18492   2.697   2.759  12.285
 5532SOL    HW118493   2.752   2.768  12.363
 5532SOL    HW218494   2.756   2.723  12.218
 5533SOL     OW18495   5.316   1.091  12.389
 5533SOL    HW118496   5.384   1.045  12.340
 5533SOL    HW218497   5.330   1.063  12.480
 5534SOL     OW18498  10.398   0.044   6.042
 5534SOL    HW118499  10.456  14.855   6.069
 5534SOL    HW218500  10.444   0.124   6.070
 5535SOL     OW18501   6.043   4.850  10.017
 5535SOL    HW118502   6.111   4.910   9.988
 5535SOL    HW218503   6.077   4.762   9.998
 5536SOL     OW18504   0.244   5.619   5.020
 5536SOL    HW118505   0.208   5.580   5.100
 5536SOL    HW218506   0.312   5.679   5.051
 5537SOL     OW18507   9.542  10.161  12.730
 5537SOL    HW118508   9.594  10.184  12.808
 5537SOL    HW218509   9.607  10.150  12.661
 5538SOL     OW18510   7.721   7.434   2.833
 5538SOL    HW118511   7.759   7.513   2.870
 5538SOL    HW218512   7.720   7.450   2.739
 5539SOL     OW18513   6.335   1.961   1.699
 5539SOL    HW118514   6.407   1.921   1.649
 5539SOL    HW218515   6.258   1.911   1.673
 5540SOL     OW18516   5.183   5.779   9.155
 5540SOL    HW118517   5.154   5.811   9.241
 5540SOL    HW218518   5.249   5.841   9.126
 5541SOL     OW18519   5.476  13.794   0.839
 5541SOL    HW118520   5.429  13.723   0.882
 5541SOL    HW218521   5.410  13.863   0.826
 5542SOL     OW18522   8.433  10.508   4.907
 5542SOL    HW118523   8.504  10.445   4.896
 5542SOL    HW218524   8.446  10.542   4.996
 5543SOL     OW18525  11.109   8.441   2.972
 5543SOL    HW118526  11.169   8.381   2.929
 5543SOL    HW218527  11.166   8.506   3.014
 5544SOL     OW18528   0.169   8.617   5.828
 5544SOL    HW118529   0.092   8.562   5.818
 5544SOL    HW218530   0.243   8.558   5.819
 5545SOL     OW18531  10.563  12.860  13.562
 5545SOL    HW118532  10.624  12.930  13.541
 5545SOL    HW218533  10.581  12.792  13.497
 5546SOL     OW18534  12.247   4.472   3.273
 5546SOL    HW118535  12.275   4.497   3.362
 5546SOL    HW218536  12.176   4.410   3.288
 5547SOL     OW18537   4.960   3.409   0.096
 5547SOL    HW118538   4.948   3.348   0.169
 5547SOL    HW218539   5.054   3.422   0.091
 5548SOL     OW18540   6.384   7.508   6.532
 5548SOL    HW118541   6.296   7.478   6.555
 5548SOL    HW218542   6.416   7.551   6.611
 5549SOL     OW18543   2.774  10.774   8.879
 5549SOL    HW118544   2.721  10.854   8.882
 5549SOL    HW218545   2.713  10.704   8.902
 5550SOL     OW18546  13.835  12.237  13.168
 5550SOL    HW118547  13.830  12.167  13.233
 5550SOL    HW218548  13.779  12.208  13.096
 5551SOL     OW18549   8.997  11.737   5.920
 5551SOL    HW118550   9.080  11.706   5.885
 5551SOL    HW218551   8.931  11.678   5.883
 5552SOL     OW18552   5.934   9.557   8.415
 5552SOL    HW118553   6.015   9.577   8.367
 5552SOL    HW218554   5.888   9.495   8.359
 5553SOL     OW18555   2.117   7.150   3.495
 5553SOL    HW118556   2.036   7.199   3.481
 5553SOL    HW218557   2.186   7.206   3.458
 5554SOL     OW18558   5.934   2.530   4.868
 5554SOL    HW118559   5.909   2.581   4.944
 5554SOL    HW218560   5.995   2.586   4.820
 5555SOL     OW18561   2.855   4.367   1.064
 5555SOL    HW118562   2.778   4.337   1.017
 5555SOL    HW218563   2.835   4.458   1.087
 5556SOL     OW18564   0.616   1.160   2.417
 5556SOL    HW118565   0.674   1.100   2.463
 5556SOL    HW218566   0.669   1.196   2.346
 5557SOL     OW18567   3.354  12.986   4.178
 5557SOL    HW118568   3.281  12.990   4.239
 5557SOL    HW218569   3.313  12.985   4.092
 5558SOL     OW18570   3.531  11.119   5.944
 5558SOL    HW118571   3.560  11.104   5.854
 5558SOL    HW218572   3.613  11.136   5.992
 5559SOL     OW18573   7.499   9.281   7.462
 5559SOL    HW118574   7.413   9.277   7.420
 5559SOL    HW218575   7.516   9.374   7.474
 5560SOL     OW18576  13.352  11.614   3.450
 5560SOL    HW118577  13.292  11.543   3.423
 5560SOL    HW218578  13.333  11.685   3.388
 5561SOL     OW18579   4.034   1.284   0.363
 5561SOL    HW118580   4.029   1.292   0.459
 5561SOL    HW218581   3.959   1.230   0.340
 5562SOL     OW18582  14.627   2.976  14.423
 5562SOL    HW118583  14.633   2.938  14.336
 5562SOL    HW218584  14.540   2.952  14.454
 5563SOL     OW18585  12.733   9.444  10.629
 5563SOL    HW118586  12.703   9.472  10.542
 5563SOL    HW218587  12.828   9.435  10.619
 5564SOL     OW18588  14.795  13.434   2.823
 5564SOL    HW118589  14.799  13.486   2.903
 5564SOL    HW218590  14.798  13.344   2.853
 5565SOL     OW18591   5.704   1.043   1.013
 5565SOL    HW118592   5.680   0.977   1.078
 5565SOL    HW218593   5.650   1.119   1.034
 5566SOL     OW18594  12.660   3.003  13.830
 5566SOL    HW118595  12.745   3.029  13.793
 5566SOL    HW218596  12.677   2.917  13.868
 5567SOL     OW18597   0.434   2.425   3.657
 5567SOL    HW118598   0.512   2.369   3.653
 5567SOL    HW218599   0.360   2.364   3.652
 5568SOL     OW18600   9.019   6.128  12.523
 5568SOL    HW118601   9.086   6.193  12.547
 5568SOL    HW218602   9.012   6.135  12.428
 5569SOL     OW18603   0.013   6.164  12.086
 5569SOL    HW118604   0.039   6.243  12.135
 5569SOL    HW218605   0.006   6.193  11.995
 5570SOL     OW18606   2.252  14.795   2.639
 5570SOL    HW118607   2.240   0.006   2.620
 5570SOL    HW218608   2.193  14.778   2.712
 5571SOL     OW18609  14.873   4.090   5.378
 5571SOL    HW118610  14.850   4.072   5.469
 5571SOL    HW218611   0.081   4.059   5.369
 5572SOL     OW18612   8.901   1.890   9.895
 5572SOL    HW118613   8.841   1.836   9.946
 5572SOL    HW218614   8.858   1.975   9.889
 5573SOL     OW18615   6.428  14.020  11.076
 5573SOL    HW118616   6.501  14.082  11.075
 5573SOL    HW218617   6.398  14.020  11.167
 5574SOL     OW18618   0.628   5.798   7.406
 5574SOL    HW118619   0.646   5.782   7.499
 5574SOL    HW218620   0.700   5.853   7.376
 5575SOL     OW18621   3.383   1.228   4.110
 5575SOL    HW118622   3.453   1.287   4.082
 5575SOL    HW218623   3.387   1.155   4.048
 5576SOL     OW18624   0.018   1.900   3.592
 5576SOL    HW118625  14.846   1.828   3.559
 5576SOL    HW218626   0.102   1.889   3.547
 5577SOL     OW18627   4.410   7.579   7.970
 5577SOL    HW118628   4.479   7.567   8.036
 5577SOL    HW218629   4.441   7.530   7.894
 5578SOL     OW18630   0.904   9.359  12.917
 5578SOL    HW118631   0.944   9.383  13.001
 5578SOL    HW218632   0.830   9.304  12.941
 5579SOL     OW18633   4.754   6.248   0.892
 5579SOL    HW118634   4.690   6.297   0.842
 5579SOL    HW218635   4.751   6.159   0.855
 5580SOL     OW18636   1.593  10.180   6.217
 5580SOL    HW118637   1.515  10.126   6.221
 5580SOL    HW218638   1.661  10.127   6.259
 5581SOL     OW18639  12.908   8.273   8.044
 5581SOL    HW118640  12.882   8.342   8.105
 5581SOL    HW218641  12.978   8.225   8.089
 5582SOL     OW18642   3.482  12.362  10.585
 5582SOL    HW118643   3.566  12.336  10.624
 5582SOL    HW218644   3.486  12.458  10.582
 5583SOL     OW18645  12.982   2.356   2.003
 5583SOL    HW118646  12.962   2.419   2.072
 5583SOL    HW218647  12.929   2.385   1.929
 5584SOL     OW18648   2.348  13.708   7.823
 5584SOL    HW118649   2.437  13.694   7.854
 5584SOL    HW218650   2.329  13.799   7.845
 5585SOL     OW18651  11.227   7.555   9.708
 5585SOL    HW118652  11.157   7.494   9.686
 5585SOL    HW218653  11.303   7.522   9.660
 5586SOL     OW18654  13.026   3.804   8.497
 5586SOL    HW118655  13.052   3.733   8.555
 5586SOL    HW218656  12.988   3.870   8.554
 5587SOL     OW18657   4.608  14.518  12.082
 5587SOL    HW118658   4.600  14.594  12.023
 5587SOL    HW218659   4.702  14.514  12.103
 5588SOL     OW18660   5.190   0.719  11.822
 5588SOL    HW118661   5.191   0.764  11.907
 5588SOL    HW218662   5.218   0.630  11.844
 5589SOL     OW18663   3.353   7.055   7.351
 5589SOL    HW118664   3.336   7.146   7.375
 5589SOL    HW218665   3.390   7.060   7.263
 5590SOL     OW18666  12.279   4.794  14.450
 5590SOL    HW118667  12.360   4.836  14.421
 5590SOL    HW218668  12.222   4.867  14.475
 5591SOL     OW18669   2.609  13.266   4.824
 5591SOL    HW118670   2.682  13.229   4.873
 5591SOL    HW218671   2.633  13.254   4.732
 5592SOL     OW18672   1.148  10.727   5.112
 5592SOL    HW118673   1.167  10.814   5.147
 5592SOL    HW218674   1.065  10.702   5.152
 5593SOL     OW18675   5.472  14.360  10.081
 5593SOL    HW118676   5.444  14.340  10.170
 5593SOL    HW218677   5.559  14.399  10.092
 5594SOL     OW18678   5.927   2.753   0.514
 5594SOL    HW118679   5.889   2.799   0.440
 5594SOL    HW218680   5.906   2.807   0.590
 5595SOL     OW18681   8.845   2.359  13.609
 5595SOL    HW118682   8.843   2.388  13.700
 5595SOL    HW218683   8.827   2.265  13.613
 5596SOL     OW18684   1.022   0.437   5.367
 5596SOL    HW118685   1.108   0.427   5.407
 5596SOL    HW218686   1.014   0.531   5.351
 5597SOL     OW18687   2.869   3.629  13.671
 5597SOL    HW118688   2.904   3.705  13.624
 5597SOL    HW218689   2.928   3.558  13.649
 5598SOL     OW18690   2.460   2.600  12.292
 5598SOL    HW118691   2.432   2.573  12.380
 5598SOL    HW218692   2.541   2.648  12.306
 5599SOL     OW18693  11.000  14.198   1.323
 5599SOL    HW118694  11.050  14.198   1.241
 5599SOL    HW218695  11.047  14.137   1.380
 5600SOL     OW18696   1.312   3.686   3.563
 5600SOL    HW118697   1.268   3.609   3.526
 5600SOL    HW218698   1.249   3.722   3.625
 5601SOL     OW18699   1.900  10.129   8.347
 5601SOL    HW118700   1.921  10.040   8.374
 5601SOL    HW218701   1.860  10.169   8.423
 5602SOL     OW18702   8.408  13.103   6.628
 5602SOL    HW118703   8.355  13.032   6.665
 5602SOL    HW218704   8.344  13.164   6.591
 5603SOL     OW18705  10.682   1.236  13.190
 5603SOL    HW118706  10.647   1.180  13.120
 5603SOL    HW218707  10.639   1.204  13.270
 5604SOL     OW18708   1.341  11.865   9.547
 5604SOL    HW118709   1.266  11.872   9.488
 5604SOL    HW218710   1.377  11.954   9.551
 5605SOL     OW18711   0.158   7.538   9.310
 5605SOL    HW118712   0.091   7.519   9.244
 5605SOL    HW218713   0.199   7.454   9.328
 5606SOL     OW18714  14.765   6.356   7.659
 5606SOL    HW118715  14.776   6.262   7.668
 5606SOL    HW218716  14.682   6.375   7.703
 5607SOL     OW18717  13.902  13.249   5.026
 5607SOL    HW118718  13.808  13.245   5.009
 5607SOL    HW218719  13.912  13.218   5.116
 5608SOL     OW18720   6.108  14.785   0.325
 5608SOL    HW118721   6.186  14.739   0.293
 5608SOL    HW218722   6.116  14.874   0.290
 5609SOL     OW18723   3.412  14.873  11.929
 5609SOL    HW118724   3.474  14.809  11.896
 5609SOL    HW218725   3.369   0.025  11.851
 5610SOL     OW18726  12.585  11.127  13.382
 5610SOL    HW118727  12.601  11.185  13.308
 5610SOL    HW218728  12.549  11.184  13.450
 5611SOL     OW18729   9.571   6.131  10.059
 5611SOL    HW118730   9.502   6.073  10.026
 5611SOL    HW218731   9.637   6.072  10.094
 5612SOL     OW18732   2.152   4.596   6.894
 5612SOL    HW118733   2.170   4.510   6.855
 5612SOL    HW218734   2.166   4.658   6.822
 5613SOL     OW18735   9.870   3.323   3.658
 5613SOL    HW118736   9.941   3.290   3.712
 5613SOL    HW218737   9.837   3.246   3.613
 5614SOL     OW18738   1.571   9.129   9.133
 5614SOL    HW118739   1.631   9.083   9.075
 5614SOL    HW218740   1.484   9.109   9.098
 5615SOL     OW18741  12.504   0.942   8.518
 5615SOL    HW118742  12.580   0.909   8.471
 5615SOL    HW218743  12.539   1.007   8.579
 5616SOL     OW18744  12.486  13.920   1.841
 5616SOL    HW118745  12.574  13.918   1.804
 5616SOL    HW218746  12.464  13.827   1.852
 5617SOL     OW18747   7.403   0.874   6.499
 5617SOL    HW118748   7.334   0.885   6.433
 5617SOL    HW218749   7.461   0.949   6.487
 5618SOL     OW18750   4.595   0.707  13.842
 5618SOL    HW118751   4.658   0.758  13.791
 5618SOL    HW218752   4.586   0.755  13.924
 5619SOL     OW18753  11.585   5.454   1.519
 5619SOL    HW118754  11.631   5.411   1.591
 5619SOL    HW218755  11.521   5.512   1.563
 5620SOL     OW18756   4.823   3.861  14.091
 5620SOL    HW118757   4.784   3.946  14.109
 5620SOL    HW218758   4.868   3.873  14.007
 5621SOL     OW18759  14.423  13.046   9.264
 5621SOL    HW118760  14.406  12.990   9.188
 5621SOL    HW218761  14.345  13.036   9.319
 5622SOL     OW18762   9.452   9.131   7.088
 5622SOL    HW118763   9.482   9.043   7.109
 5622SOL    HW218764   9.369   9.117   7.042
 5623SOL     OW18765  12.054   4.391  13.639
 5623SOL    HW118766  12.073   4.324  13.704
 5623SOL    HW218767  11.958   4.394  13.634
 5624SOL     OW18768   2.270   7.792  12.256
 5624SOL    HW118769   2.217   7.712  12.261
 5624SOL    HW218770   2.256   7.825  12.167
 5625SOL     OW18771  14.278   8.600   2.170
 5625SOL    HW118772  14.331   8.583   2.091
 5625SOL    HW218773  14.235   8.683   2.152
 5626SOL     OW18774  14.813   0.385   1.432
 5626SOL    HW118775  14.827   0.478   1.450
 5626SOL    HW218776  14.770   0.383   1.347
 5627SOL     OW18777   9.271   4.405   1.323
 5627SOL    HW118778   9.214   4.475   1.291
 5627SOL    HW218779   9.251   4.330   1.266
 5628SOL     OW18780   4.945   9.014  12.492
 5628SOL    HW118781   4.906   9.016  12.404
 5628SOL    HW218782   4.996   8.933  12.494
 5629SOL     OW18783   9.509   1.850   6.116
 5629SOL    HW118784   9.493   1.943   6.102
 5629SOL    HW218785   9.431   1.819   6.164
 5630SOL     OW18786   7.312   1.108  10.455
 5630SOL    HW118787   7.392   1.161  10.450
 5630SOL    HW218788   7.266   1.129  10.374
 5631SOL     OW18789  12.430   5.666   5.554
 5631SOL    HW118790  12.360   5.649   5.617
 5631SOL    HW218791  12.464   5.752   5.579
 5632SOL     OW18792  13.458   2.548  12.379
 5632SOL    HW118793  13.415   2.467  12.406
 5632SOL    HW218794  13.545   2.544  12.418
 5633SOL     OW18795  11.151  12.573   2.704
 5633SOL    HW118796  11.192  12.651   2.667
 5633SOL    HW218797  11.224  12.518   2.733
 5634SOL     OW18798  10.805   6.970   3.838
 5634SOL    HW118799  10.813   6.875   3.834
 5634SOL    HW218800  10.761   6.987   3.922
 5635SOL     OW18801   5.894   9.943  10.619
 5635SOL    HW118802   5.969   9.926  10.676
 5635SOL    HW218803   5.818   9.912  10.670
 5636SOL     OW18804   9.865  10.538   5.325
 5636SOL    HW118805   9.859  10.591   5.246
 5636SOL    HW218806   9.787  10.560   5.375
 5637SOL     OW18807  12.415   6.187   2.005
 5637SOL    HW118808  12.509   6.202   2.012
 5637SOL    HW218809  12.379   6.270   1.974
 5638SOL     OW18810   8.429  10.611   6.401
 5638SOL    HW118811   8.511  10.598   6.353
 5638SOL    HW218812   8.380  10.675   6.348
 5639SOL     OW18813  11.363   3.444   3.401
 5639SOL    HW118814  11.372   3.518   3.461
 5639SOL    HW218815  11.303   3.475   3.333
 5640SOL     OW18816  13.864   0.397   2.897
 5640SOL    HW118817  13.778   0.390   2.855
 5640SOL    HW218818  13.885   0.490   2.893
 5641SOL     OW18819   0.295   4.021   8.416
 5641SOL    HW118820   0.251   3.966   8.350
 5641SOL    HW218821   0.387   3.997   8.409
 5642SOL     OW18822   8.503   0.713   2.365
 5642SOL    HW118823   8.415   0.707   2.404
 5642SOL    HW218824   8.490   0.691   2.273
 5643SOL     OW18825  12.368   3.205   5.240
 5643SOL    HW118826  12.325   3.284   5.209
 5643SOL    HW218827  12.316   3.175   5.314
 5644SOL     OW18828  11.130   7.090   9.359
 5644SOL    HW118829  11.214   7.107   9.401
 5644SOL    HW218830  11.148   7.020   9.296
 5645SOL     OW18831   2.705   1.984   8.952
 5645SOL    HW118832   2.746   1.943   9.028
 5645SOL    HW218833   2.770   2.046   8.919
 5646SOL     OW18834  11.693   7.110   5.291
 5646SOL    HW118835  11.697   7.019   5.321
 5646SOL    HW218836  11.614   7.145   5.331
 5647SOL     OW18837  10.677   1.451   8.742
 5647SOL    HW118838  10.637   1.514   8.801
 5647SOL    HW218839  10.690   1.499   8.660
 5648SOL     OW18840   8.798  14.004   9.416
 5648SOL    HW118841   8.763  14.093   9.408
 5648SOL    HW218842   8.803  13.989   9.510
 5649SOL     OW18843  13.629   9.396   4.738
 5649SOL    HW118844  13.535   9.384   4.722
 5649SOL    HW218845  13.665   9.425   4.655
 5650SOL     OW18846   2.239   5.792   9.799
 5650SOL    HW118847   2.268   5.712   9.755
 5650SOL    HW218848   2.320   5.833   9.831
 5651SOL     OW18849  10.080   1.128  11.625
 5651SOL    HW118850  10.015   1.074  11.670
 5651SOL    HW218851  10.157   1.072  11.619
 5652SOL     OW18852  14.837   7.126   0.638
 5652SOL    HW118853  14.757   7.159   0.597
 5652SOL    HW218854   0.025   7.170   0.591
 5653SOL     OW18855   1.460   1.588   5.462
 5653SOL    HW118856   1.424   1.516   5.514
 5653SOL    HW218857   1.534   1.549   5.416
 5654SOL     OW18858   2.400   4.035   8.959
 5654SOL    HW118859   2.493   4.015   8.958
 5654SOL    HW218860   2.396   4.123   8.997
 5655SOL     OW18861   2.263   1.829   7.846
 5655SOL    HW118862   2.327   1.888   7.885
 5655SOL    HW218863   2.265   1.849   7.752
 5656SOL     OW18864  12.805   0.949   2.772
 5656SOL    HW118865  12.810   0.857   2.744
 5656SOL    HW218866  12.897   0.975   2.782
 5657SOL     OW18867   5.089  13.934  10.697
 5657SOL    HW118868   5.128  14.014  10.660
 5657SOL    HW218869   5.164  13.878  10.716
 5658SOL     OW18870  13.601  12.055   4.310
 5658SOL    HW118871  13.525  11.997   4.317
 5658SOL    HW218872  13.626  12.051   4.218
 5659SOL     OW18873   7.785   8.777   0.488
 5659SOL    HW118874   7.708   8.722   0.503
 5659SOL    HW218875   7.751   8.853   0.440
 5660SOL     OW18876   1.454   4.758   7.474
 5660SOL    HW118877   1.404   4.782   7.552
 5660SOL    HW218878   1.422   4.671   7.451
 5661SOL     OW18879   3.934   9.742   6.503
 5661SOL    HW118880   4.022   9.745   6.465
 5661SOL    HW218881   3.933   9.663   6.557
 5662SOL     OW18882  14.807   9.679   7.809
 5662SOL    HW118883  14.738   9.743   7.826
 5662SOL    HW218884   0.003   9.715   7.852
 5663SOL     OW18885   9.662   9.083   2.785
 5663SOL    HW118886   9.601   9.012   2.768
 5663SOL    HW218887   9.663   9.091   2.881
 5664SOL     OW18888  14.595  12.978  14.107
 5664SOL    HW118889  14.640  12.930  14.038
 5664SOL    HW218890  14.598  13.069  14.079
 5665SOL     OW18891   3.005  12.703   8.204
 5665SOL    HW118892   3.075  12.740   8.149
 5665SOL    HW218893   2.929  12.758   8.185
 5666SOL     OW18894  14.370  12.201  14.576
 5666SOL    HW118895  14.416  12.279  14.606
 5666SOL    HW218896  14.403  12.186  14.488
 5667SOL     OW18897   1.049  10.286   5.685
 5667SOL    HW118898   0.976  10.348   5.696
 5667SOL    HW218899   1.122  10.340   5.657
 5668SOL     OW18900   6.978  13.619   3.791
 5668SOL    HW118901   7.027  13.542   3.821
 5668SOL    HW218902   7.016  13.641   3.706
 5669SOL     OW18903   1.270   8.412   7.821
 5669SOL    HW118904   1.281   8.326   7.779
 5669SOL    HW218905   1.234   8.392   7.907
 5670SOL     OW18906  14.285   4.247   3.969
 5670SOL    HW118907  14.214   4.300   3.934
 5670SOL    HW218908  14.318   4.297   4.044
 5671SOL     OW18909   4.033   3.448   0.535
 5671SOL    HW118910   4.044   3.389   0.461
 5671SOL    HW218911   3.971   3.514   0.505
 5672SOL     OW18912   3.606  14.850   3.712
 5672SOL    HW118913   3.564  14.821   3.793
 5672SOL    HW218914   3.698  14.825   3.722
 5673SOL     OW18915   6.551   6.860   2.855
 5673SOL    HW118916   6.558   6.766   2.867
 5673SOL    HW218917   6.547   6.895   2.944
 5674SOL     OW18918   1.816   3.093   1.304
 5674SOL    HW118919   1.793   3.160   1.239
 5674SOL    HW218920   1.898   3.056   1.273
 5675SOL     OW18921   6.512   2.344  12.787
 5675SOL    HW118922   6.436   2.289  12.802
 5675SOL    HW218923   6.586   2.283  12.786
 5676SOL     OW18924   7.459  12.149  13.268
 5676SOL    HW118925   7.523  12.082  13.291
 5676SOL    HW218926   7.504  12.205  13.205
 5677SOL     OW18927   9.295   1.926   3.172
 5677SOL    HW118928   9.323   1.835   3.157
 5677SOL    HW218929   9.202   1.926   3.150
 5678SOL     OW18930   3.437   5.162   0.441
 5678SOL    HW118931   3.378   5.153   0.515
 5678SOL    HW218932   3.455   5.072   0.413
 5679SOL     OW18933  10.548   5.689  12.069
 5679SOL    HW118934  10.597   5.750  12.013
 5679SOL    HW218935  10.476   5.741  12.104
 5680SOL     OW18936  12.581  11.866  11.897
 5680SOL    HW118937  12.655  11.924  11.879
 5680SOL    HW218938  12.618  11.778  11.888
 5681SOL     OW18939  10.280   9.834   1.853
 5681SOL    HW118940  10.289   9.886   1.933
 5681SOL    HW218941  10.367   9.835   1.813
 5682SOL     OW18942   0.001   4.072   8.044
 5682SOL    HW118943   0.004   4.157   7.999
 5682SOL    HW218944  14.804   4.076   8.097
 5683SOL     OW18945  14.359  12.742  14.135
 5683SOL    HW118946  14.394  12.822  14.173
 5683SOL    HW218947  14.339  12.765  14.044
 5684SOL     OW18948  14.437  13.550   4.211
 5684SOL    HW118949  14.352  13.533   4.169
 5684SOL    HW218950  14.463  13.635   4.176
 5685SOL     OW18951  13.316  13.031   4.366
 5685SOL    HW118952  13.402  12.994   4.385
 5685SOL    HW218953  13.264  13.011   4.443
 5686SOL     OW18954  13.468   4.353   0.362
 5686SOL    HW118955  13.387   4.302   0.365
 5686SOL    HW218956  13.537   4.289   0.378
 5687SOL     OW18957  14.706   0.282   7.432
 5687SOL    HW118958  14.725   0.217   7.500
 5687SOL    HW218959  14.792   0.316   7.407
 5688SOL     OW18960   9.518   7.075   1.281
 5688SOL    HW118961   9.444   7.128   1.313
 5688SOL    HW218962   9.478   7.014   1.219
 5689SOL     OW18963  11.501   9.251   1.879
 5689SOL    HW118964  11.425   9.246   1.937
 5689SOL    HW218965  11.545   9.167   1.891
 5690SOL     OW18966   1.390  13.782   2.560
 5690SOL    HW118967   1.355  13.693   2.558
 5690SOL    HW218968   1.484  13.770   2.578
 5691SOL     OW18969  13.055  13.582   2.764
 5691SOL    HW118970  13.111  13.505   2.756
 5691SOL    HW218971  12.975  13.559   2.716
 5692SOL     OW18972   2.719   1.884   5.820
 5692SOL    HW118973   2.762   1.824   5.760
 5692SOL    HW218974   2.729   1.970   5.780
 5693SOL     OW18975   8.088   0.275  13.232
 5693SOL    HW118976   8.013   0.333  13.219
 5693SOL    HW218977   8.089   0.219  13.155
 5694SOL     OW18978   0.363   4.457   2.751
 5694SOL    HW118979   0.354   4.365   2.777
 5694SOL    HW218980   0.455   4.477   2.769
 5695SOL     OW18981  10.235   6.039   9.498
 5695SOL    HW118982  10.201   5.952   9.519
 5695SOL    HW218983  10.270   6.071   9.581
 5696SOL     OW18984  13.125   7.797  11.059
 5696SOL    HW118985  13.086   7.883  11.073
 5696SOL    HW218986  13.088   7.767  10.977
 5697SOL     OW18987   5.681   9.986   8.613
 5697SOL    HW118988   5.693  10.003   8.520
 5697SOL    HW218989   5.735   9.909   8.630
 5698SOL     OW18990  13.745   9.374   4.220
 5698SOL    HW118991  13.767   9.450   4.275
 5698SOL    HW218992  13.682   9.407   4.156
 5699SOL     OW18993   1.649   7.241  13.727
 5699SOL    HW118994   1.652   7.222  13.821
 5699SOL    HW218995   1.728   7.201  13.692
 5700SOL     OW18996   6.345   1.629   5.822
 5700SOL    HW118997   6.392   1.668   5.749
 5700SOL    HW218998   6.409   1.621   5.892
 5701SOL     OW18999   3.815   2.852   1.254
 5701SOL    HW119000   3.840   2.903   1.332
 5701SOL    HW219001   3.860   2.769   1.266
 5702SOL     OW19002   4.099  13.522   6.176
 5702SOL    HW119003   4.192  13.504   6.160
 5702SOL    HW219004   4.093  13.618   6.178
 5703SOL     OW19005  12.578   6.461  13.361
 5703SOL    HW119006  12.667   6.488  13.381
 5703SOL    HW219007  12.584   6.421  13.274
 5704SOL     OW19008   4.179   9.521   3.389
 5704SOL    HW119009   4.219   9.482   3.467
 5704SOL    HW219010   4.092   9.550   3.419
 5705SOL     OW19011   6.489   4.890   6.720
 5705SOL    HW119012   6.527   4.837   6.650
 5705SOL    HW219013   6.506   4.980   6.694
 5706SOL     OW19014   9.755   5.806   6.872
 5706SOL    HW119015   9.735   5.878   6.933
 5706SOL    HW219016   9.844   5.823   6.843
 5707SOL     OW19017   4.511   4.910   5.130
 5707SOL    HW119018   4.582   4.875   5.076
 5707SOL    HW219019   4.546   4.992   5.165
 5708SOL     OW19020   9.162  13.023  10.375
 5708SOL    HW119021   9.233  13.032  10.312
 5708SOL    HW219022   9.083  13.016  10.321
 5709SOL     OW19023   8.643   9.680  14.482
 5709SOL    HW119024   8.586   9.741  14.435
 5709SOL    HW219025   8.731   9.714  14.468
 5710SOL     OW19026   8.800   4.568   8.177
 5710SOL    HW119027   8.815   4.635   8.111
 5710SOL    HW219028   8.705   4.571   8.193
 5711SOL     OW19029   7.089   9.198   1.608
 5711SOL    HW119030   7.166   9.190   1.551
 5711SOL    HW219031   7.120   9.173   1.694
 5712SOL     OW19032   3.536  11.587  12.071
 5712SOL    HW119033   3.505  11.669  12.033
 5712SOL    HW219034   3.488  11.579  12.153
 5713SOL     OW19035   1.206   6.525   6.994
 5713SOL    HW119036   1.158   6.605   7.014
 5713SOL    HW219037   1.156   6.456   7.038
 5714SOL     OW19038   6.340  10.383  11.835
 5714SOL    HW119039   6.426  10.415  11.861
 5714SOL    HW219040   6.348  10.369  11.740
 5715SOL     OW19041   5.119   0.565   5.018
 5715SOL    HW119042   5.194   0.624   5.026
 5715SOL    HW219043   5.130   0.525   4.932
 5716SOL     OW19044   6.429   9.597  13.406
 5716SOL    HW119045   6.432   9.509  13.367
 5716SOL    HW219046   6.485   9.590  13.484
 5717SOL     OW19047  11.497   3.316   0.435
 5717SOL    HW119048  11.568   3.370   0.469
 5717SOL    HW219049  11.500   3.328   0.340
 5718SOL     OW19050   4.531   4.324   1.913
 5718SOL    HW119051   4.500   4.382   1.982
 5718SOL    HW219052   4.566   4.248   1.960
 5719SOL     OW19053   7.817   2.140  14.404
 5719SOL    HW119054   7.741   2.107  14.452
 5719SOL    HW219055   7.803   2.235  14.400
 5720SOL     OW19056   1.042   1.024   2.695
 5720SOL    HW119057   1.001   1.111   2.688
 5720SOL    HW219058   1.134   1.039   2.673
 5721SOL     OW19059   7.934   9.755   7.891
 5721SOL    HW119060   7.890   9.805   7.960
 5721SOL    HW219061   8.027   9.766   7.909
 5722SOL     OW19062  11.405   7.052   3.412
 5722SOL    HW119063  11.493   7.083   3.391
 5722SOL    HW219064  11.416   6.958   3.426
 5723SOL     OW19065  12.391  10.111   8.476
 5723SOL    HW119066  12.368  10.204   8.482
 5723SOL    HW219067  12.366  10.085   8.387
 5724SOL     OW19068  10.686  14.720   3.377
 5724SOL    HW119069  10.694  14.626   3.363
 5724SOL    HW219070  10.600  14.731   3.417
 5725SOL     OW19071   4.665  13.429  12.900
 5725SOL    HW119072   4.588  13.426  12.843
 5725SOL    HW219073   4.630  13.455  12.985
 5726SOL     OW19074   2.028  10.573   8.604
 5726SOL    HW119075   2.062  10.590   8.692
 5726SOL    HW219076   2.104  10.541   8.555
 5727SOL     OW19077  10.559  12.356   8.974
 5727SOL    HW119078  10.654  12.344   8.972
 5727SOL    HW219079  10.547  12.451   8.974
 5728SOL     OW19080   1.751   9.459  14.136
 5728SOL    HW119081   1.703   9.521  14.191
 5728SOL    HW219082   1.712   9.469  14.049
 5729SOL     OW19083   6.827   9.542  12.570
 5729SOL    HW119084   6.748   9.527  12.622
 5729SOL    HW219085   6.801   9.521  12.480
 5730SOL     OW19086   3.522  11.320   5.017
 5730SOL    HW119087   3.544  11.237   5.060
 5730SOL    HW219088   3.568  11.316   4.933
 5731SOL     OW19089  13.385   0.869   9.930
 5731SOL    HW119090  13.468   0.871   9.977
 5731SOL    HW219091  13.379   0.781   9.893
 5732SOL     OW19092   0.059   1.894  13.258
 5732SOL    HW119093   0.041   1.800  13.254
 5732SOL    HW219094   0.056   1.916  13.351
 5733SOL     OW19095  11.165   6.153   1.334
 5733SOL    HW119096  11.240   6.094   1.330
 5733SOL    HW219097  11.089   6.096   1.325
 5734SOL     OW19098   3.334   1.103   0.809
 5734SOL    HW119099   3.252   1.144   0.780
 5734SOL    HW219100   3.402   1.165   0.782
 5735SOL     OW19101   5.220  14.376  11.600
 5735SOL    HW119102   5.307  14.400  11.632
 5735SOL    HW219103   5.217  14.410  11.511
 5736SOL     OW19104   5.670   0.998  10.151
 5736SOL    HW119105   5.602   0.977  10.215
 5736SOL    HW219106   5.686   1.092  10.164
 5737SOL     OW19107  13.898  13.107   4.783
 5737SOL    HW119108  13.929  13.129   4.871
 5737SOL    HW219109  13.817  13.058   4.798
 5738SOL     OW19110   6.199  11.568  13.189
 5738SOL    HW119111   6.140  11.616  13.130
 5738SOL    HW219112   6.168  11.591  13.277
 5739SOL     OW19113  12.255  11.214   4.632
 5739SOL    HW119114  12.215  11.294   4.598
 5739SOL    HW219115  12.185  11.171   4.680
 5740SOL     OW19116  13.156   0.257  11.866
 5740SOL    HW119117  13.201   0.175  11.849
 5740SOL    HW219118  13.063   0.236  11.857
 5741SOL     OW19119   9.029   9.163  14.081
 5741SOL    HW119120   8.982   9.169  14.164
 5741SOL    HW219121   8.967   9.197  14.016
 5742SOL     OW19122   4.459  10.427   2.187
 5742SOL    HW119123   4.406  10.447   2.110
 5742SOL    HW219124   4.524  10.498   2.190
 5743SOL     OW19125  12.530   7.158   7.181
 5743SOL    HW119126  12.484   7.186   7.102
 5743SOL    HW219127  12.460   7.139   7.244
 5744SOL     OW19128   7.590   4.744   0.905
 5744SOL    HW119129   7.524   4.706   0.962
 5744SOL    HW219130   7.554   4.734   0.817
 5745SOL     OW19131   4.079   6.257  13.055
 5745SOL    HW119132   4.001   6.287  13.008
 5745SOL    HW219133   4.117   6.337  13.092
 5746SOL     OW19134  12.207  11.160   3.889
 5746SOL    HW119135  12.172  11.088   3.940
 5746SOL    HW219136  12.260  11.210   3.951
 5747SOL     OW19137  13.028   8.320   7.372
 5747SOL    HW119138  13.020   8.234   7.412
 5747SOL    HW219139  13.118   8.347   7.388
 5748SOL     OW19140   9.661  11.086   8.848
 5748SOL    HW119141   9.614  11.163   8.879
 5748SOL    HW219142   9.667  11.098   8.753
 5749SOL     OW19143   3.797   9.236   2.306
 5749SOL    HW119144   3.829   9.263   2.392
 5749SOL    HW219145   3.805   9.140   2.307
 5750SOL     OW19146  13.435  14.315   0.304
 5750SOL    HW119147  13.481  14.391   0.267
 5750SOL    HW219148  13.342  14.335   0.294
 5751SOL     OW19149  11.897  10.129   5.072
 5751SOL    HW119150  11.898  10.154   4.980
 5751SOL    HW219151  11.834  10.057   5.077
 5752SOL     OW19152  11.659  10.636   4.017
 5752SOL    HW119153  11.578  10.586   4.019
 5752SOL    HW219154  11.665  10.668   3.927
 5753SOL     OW19155   1.757  12.503   2.975
 5753SOL    HW119156   1.782  12.436   3.038
 5753SOL    HW219157   1.684  12.465   2.927
 5754SOL     OW19158   8.894  14.587   0.720
 5754SOL    HW119159   8.904  14.525   0.648
 5754SOL    HW219160   8.935  14.667   0.688
 5755SOL     OW19161   4.241  12.870   9.501
 5755SOL    HW119162   4.233  12.840   9.592
 5755SOL    HW219163   4.166  12.831   9.456
 5756SOL     OW19164   0.131   5.486   6.853
 5756SOL    HW119165   0.118   5.515   6.943
 5756SOL    HW219166   0.161   5.564   6.806
 5757SOL     OW19167   0.538   8.825  13.083
 5757SOL    HW119168   0.537   8.809  13.178
 5757SOL    HW219169   0.498   8.912  13.073
 5758SOL     OW19170  10.029   4.952   0.134
 5758SOL    HW119171   9.971   4.879   0.117
 5758SOL    HW219172  10.104   4.938   0.076
 5759SOL     OW19173   1.867  14.623   0.876
 5759SOL    HW119174   1.824  14.614   0.791
 5759SOL    HW219175   1.954  14.657   0.856
 5760SOL     OW19176   0.009   1.124   0.619
 5760SOL    HW119177   0.019   1.058   0.550
 5760SOL    HW219178  14.803   1.160   0.605
 5761SOL     OW19179   6.526  14.053  12.122
 5761SOL    HW119180   6.563  14.097  12.199
 5761SOL    HW219181   6.532  13.960  12.142
 5762SOL     OW19182   9.141   2.349  14.687
 5762SOL    HW119183   9.163   2.264  14.724
 5762SOL    HW219184   9.226   2.392  14.673
 5763SOL     OW19185  12.413   0.487  11.990
 5763SOL    HW119186  12.489   0.541  11.968
 5763SOL    HW219187  12.339   0.535  11.954
 5764SOL     OW19188   3.842   2.922  10.432
 5764SOL    HW119189   3.805   2.951  10.515
 5764SOL    HW219190   3.773   2.937  10.367
 5765SOL     OW19191  10.335  10.626   9.159
 5765SOL    HW119192  10.268  10.642   9.093
 5765SOL    HW219193  10.293  10.646   9.242
 5766SOL     OW19194   6.913   7.767  10.479
 5766SOL    HW119195   6.956   7.837  10.528
 5766SOL    HW219196   6.922   7.792  10.387
 5767SOL     OW19197  14.517   6.118  10.481
 5767SOL    HW119198  14.543   6.126  10.573
 5767SOL    HW219199  14.424   6.138  10.481
 5768SOL     OW19200  12.824   0.830   3.392
 5768SOL    HW119201  12.763   0.787   3.332
 5768SOL    HW219202  12.909   0.824   3.348
 5769SOL     OW19203   8.468   8.748   0.960
 5769SOL    HW119204   8.558   8.774   0.937
 5769SOL    HW219205   8.453   8.669   0.908
 5770SOL     OW19206   8.978   3.278  11.709
 5770SOL    HW119207   9.023   3.338  11.650
 5770SOL    HW219208   9.046   3.244  11.766
 5771SOL     OW19209  13.680   5.002  14.366
 5771SOL    HW119210  13.678   5.096  14.348
 5771SOL    HW219211  13.678   4.961  14.279
 5772SOL     OW19212  13.170   7.846   1.104
 5772SOL    HW119213  13.237   7.795   1.150
 5772SOL    HW219214  13.210   7.867   1.020
 5773SOL     OW19215   8.554  10.219   2.149
 5773SOL    HW119216   8.544  10.313   2.166
 5773SOL    HW219217   8.518  10.177   2.227
 5774SOL     OW19218  13.611  13.192  13.572
 5774SOL    HW119219  13.620  13.236  13.657
 5774SOL    HW219220  13.686  13.224  13.522
 5775SOL     OW19221   1.175   3.137   0.325
 5775SOL    HW119222   1.205   3.056   0.363
 5775SOL    HW219223   1.106   3.168   0.384
 5776SOL     OW19224  11.203   2.074  12.261
 5776SOL    HW119225  11.238   2.092  12.348
 5776SOL    HW219226  11.266   2.114  12.201
 5777SOL     OW19227  13.656   1.004  13.467
 5777SOL    HW119228  13.598   0.928  13.461
 5777SOL    HW219229  13.687   1.004  13.557
 5778SOL     OW19230   0.755   7.711   5.887
 5778SOL    HW119231   0.729   7.797   5.852
 5778SOL    HW219232   0.681   7.654   5.867
 5779SOL     OW19233   3.051   2.931  12.452
 5779SOL    HW119234   3.007   2.861  12.501
 5779SOL    HW219235   3.039   3.008  12.507
 5780SOL     OW19236  13.413   3.511   8.686
 5780SOL    HW119237  13.459   3.489   8.767
 5780SOL    HW219238  13.388   3.426   8.648
 5781SOL     OW19239   2.024   2.551   0.869
 5781SOL    HW119240   2.050   2.606   0.795
 5781SOL    HW219241   1.961   2.604   0.918
 5782SOL     OW19242   4.890   3.410  10.556
 5782SOL    HW119243   4.825   3.341  10.566
 5782SOL    HW219244   4.871   3.448  10.470
 5783SOL     OW19245  10.952  14.345   3.528
 5783SOL    HW119246  10.968  14.262   3.481
 5783SOL    HW219247  10.870  14.378   3.490
 5784SOL     OW19248  13.495   4.516   9.319
 5784SOL    HW119249  13.438   4.559   9.383
 5784SOL    HW219250  13.510   4.583   9.252
 5785SOL     OW19251  11.457   0.998   8.196
 5785SOL    HW119252  11.518   1.063   8.232
 5785SOL    HW219253  11.495   0.914   8.219
 5786SOL     OW19254   9.250   6.099   1.001
 5786SOL    HW119255   9.177   6.065   0.949
 5786SOL    HW219256   9.259   6.036   1.072
 5787SOL     OW19257  11.701   2.080   5.329
 5787SOL    HW119258  11.728   2.026   5.402
 5787SOL    HW219259  11.747   2.043   5.253
 5788SOL     OW19260   4.995  12.348   9.993
 5788SOL    HW119261   5.079  12.316  10.025
 5788SOL    HW219262   4.974  12.422  10.050
 5789SOL     OW19263   8.355  11.566   8.029
 5789SOL    HW119264   8.349  11.484   7.981
 5789SOL    HW219265   8.286  11.560   8.096
 5790SOL     OW19266  14.737   5.964  10.037
 5790SOL    HW119267  14.811   5.931  10.088
 5790SOL    HW219268  14.745   5.920   9.952
 5791SOL     OW19269   8.632   0.732  11.616
 5791SOL    HW119270   8.677   0.769  11.692
 5791SOL    HW219271   8.539   0.743  11.636
 5792SOL     OW19272   0.351   6.820  12.146
 5792SOL    HW119273   0.408   6.803  12.071
 5792SOL    HW219274   0.405   6.796  12.222
 5793SOL     OW19275   7.485   5.364   3.154
 5793SOL    HW119276   7.401   5.340   3.194
 5793SOL    HW219277   7.464   5.433   3.092
 5794SOL     OW19278   6.571   2.357   1.891
 5794SOL    HW119279   6.573   2.446   1.924
 5794SOL    HW219280   6.599   2.303   1.965
 5795SOL     OW19281  14.605  13.774   6.074
 5795SOL    HW119282  14.659  13.695   6.081
 5795SOL    HW219283  14.555  13.761   5.993
 5796SOL     OW19284   8.544  10.960   9.936
 5796SOL    HW119285   8.586  11.039   9.971
 5796SOL    HW219286   8.587  10.888   9.983
 5797SOL     OW19287   0.581   9.658  12.396
 5797SOL    HW119288   0.627   9.741  12.405
 5797SOL    HW219289   0.510   9.662  12.460
 5798SOL     OW19290   8.851   4.353  12.654
 5798SOL    HW119291   8.921   4.379  12.594
 5798SOL    HW219292   8.831   4.432  12.703
 5799SOL     OW19293  12.001  13.084   1.309
 5799SOL    HW119294  12.093  13.111   1.308
 5799SOL    HW219295  11.977  13.079   1.217
 5800SOL     OW19296   7.904   9.969   3.410
 5800SOL    HW119297   7.875   9.924   3.490
 5800SOL    HW219298   7.889  10.061   3.428
 5801SOL     OW19299  13.716   3.557   0.437
 5801SOL    HW119300  13.764   3.500   0.497
 5801SOL    HW219301  13.745   3.645   0.459
 5802SOL     OW19302   8.691   1.078   0.570
 5802SOL    HW119303   8.637   1.032   0.506
 5802SOL    HW219304   8.635   1.148   0.603
 5803SOL     OW19305   6.806   9.617  14.244
 5803SOL    HW119306   6.834   9.709  14.242
 5803SOL    HW219307   6.757   9.605  14.162
 5804SOL     OW19308  14.778  13.748   8.443
 5804SOL    HW119309  14.828  13.799   8.507
 5804SOL    HW219310  14.771  13.661   8.481
 5805SOL     OW19311  10.251   8.264  12.304
 5805SOL    HW119312  10.262   8.196  12.238
 5805SOL    HW219313  10.337   8.303  12.313
 5806SOL     OW19314   0.982   7.156   5.229
 5806SOL    HW119315   0.951   7.104   5.155
 5806SOL    HW219316   1.020   7.092   5.289
 5807SOL     OW19317  14.034   4.843   3.180
 5807SOL    HW119318  13.957   4.886   3.217
 5807SOL    HW219319  14.010   4.750   3.176
 5808SOL     OW19320  14.007  13.719   5.039
 5808SOL    HW119321  14.058  13.800   5.031
 5808SOL    HW219322  14.020  13.691   5.129
 5809SOL     OW19323   4.066  13.324   8.190
 5809SOL    HW119324   4.134  13.258   8.197
 5809SOL    HW219325   4.113  13.407   8.190
 5810SOL     OW19326   3.275   1.977  14.266
 5810SOL    HW119327   3.221   2.033  14.322
 5810SOL    HW219328   3.264   1.889  14.302
 5811SOL     OW19329  10.404  13.091  14.032
 5811SOL    HW119330  10.346  13.164  14.055
 5811SOL    HW219331  10.461  13.080  14.108
 5812SOL     OW19332   7.273  10.940   5.859
 5812SOL    HW119333   7.302  11.031   5.858
 5812SOL    HW219334   7.325  10.898   5.791
 5813SOL     OW19335   4.496  10.803  12.797
 5813SOL    HW119336   4.515  10.789  12.890
 5813SOL    HW219337   4.576  10.777  12.752
 5814SOL     OW19338  11.645  12.474  12.287
 5814SOL    HW119339  11.719  12.534  12.284
 5814SOL    HW219340  11.668  12.403  12.229
 5815SOL     OW19341  11.088   1.355  14.473
 5815SOL    HW119342  11.070   1.436  14.427
 5815SOL    HW219343  11.114   1.293  14.404
 5816SOL     OW19344  12.373   2.128   2.143
 5816SOL    HW119345  12.433   2.115   2.070
 5816SOL    HW219346  12.336   2.214   2.128
 5817SOL     OW19347   6.224   2.426   1.332
 5817SOL    HW119348   6.130   2.408   1.335
 5817SOL    HW219349   6.233   2.506   1.282
 5818SOL     OW19350  10.192   3.156   1.960
 5818SOL    HW119351  10.243   3.133   2.038
 5818SOL    HW219352  10.221   3.094   1.893
 5819SOL     OW19353   8.499   0.650  12.648
 5819SOL    HW119354   8.429   0.701  12.688
 5819SOL    HW219355   8.492   0.563  12.688
 5820SOL     OW19356   5.224   0.429  11.365
 5820SOL    HW119357   5.313   0.397  11.350
 5820SOL    HW219358   5.195   0.383  11.443
 5821SOL     OW19359  10.039   8.014  13.640
 5821SOL    HW119360   9.981   8.074  13.687
 5821SOL    HW219361  10.091   7.972  13.709
 5822SOL     OW19362   8.534  12.382   5.914
 5822SOL    HW119363   8.535  12.467   5.959
 5822SOL    HW219364   8.599  12.329   5.961
 5823SOL     OW19365   2.181  13.729  13.423
 5823SOL    HW119366   2.217  13.643  13.403
 5823SOL    HW219367   2.248  13.770  13.478
 5824SOL     OW19368   4.445   9.485   2.313
 5824SOL    HW119369   4.493   9.518   2.237
 5824SOL    HW219370   4.422   9.563   2.363
 5825SOL     OW19371  14.620   0.837  13.282
 5825SOL    HW119372  14.694   0.882  13.323
 5825SOL    HW219373  14.608   0.758  13.335
 5826SOL     OW19374  11.186   0.211   7.556
 5826SOL    HW119375  11.161   0.151   7.486
 5826SOL    HW219376  11.194   0.296   7.513
 5827SOL     OW19377   3.171  11.826  13.942
 5827SOL    HW119378   3.184  11.776  13.862
 5827SOL    HW219379   3.260  11.848  13.971
 5828SOL     OW19380   5.752   1.843  11.088
 5828SOL    HW119381   5.716   1.867  11.174
 5828SOL    HW219382   5.708   1.761  11.066
 5829SOL     OW19383  12.660   9.325   0.700
 5829SOL    HW119384  12.604   9.334   0.778
 5829SOL    HW219385  12.600   9.297   0.631
 5830SOL     OW19386   0.318   7.791   6.530
 5830SOL    HW119387   0.270   7.776   6.611
 5830SOL    HW219388   0.390   7.728   6.532
 5831SOL     OW19389   6.290  14.110   2.749
 5831SOL    HW119390   6.275  14.037   2.808
 5831SOL    HW219391   6.252  14.082   2.666
 5832SOL     OW19392   4.112   3.494   8.406
 5832SOL    HW119393   4.143   3.506   8.316
 5832SOL    HW219394   4.140   3.406   8.430
 5833SOL     OW19395   8.306   7.659   2.806
 5833SOL    HW119396   8.394   7.670   2.843
 5833SOL    HW219397   8.309   7.572   2.765
 5834SOL     OW19398   6.445   7.692   0.251
 5834SOL    HW119399   6.359   7.728   0.229
 5834SOL    HW219400   6.448   7.691   0.346
 5835SOL     OW19401  14.314   7.193   2.753
 5835SOL    HW119402  14.366   7.273   2.749
 5835SOL    HW219403  14.354   7.136   2.688
 5836SOL     OW19404  12.159   9.220   8.417
 5836SOL    HW119405  12.074   9.254   8.447
 5836SOL    HW219406  12.222   9.257   8.479
 5837SOL     OW19407   5.302  11.998   8.899
 5837SOL    HW119408   5.333  12.053   8.827
 5837SOL    HW219409   5.320  11.909   8.870
 5838SOL     OW19410  11.894   2.848   7.548
 5838SOL    HW119411  11.814   2.803   7.520
 5838SOL    HW219412  11.961   2.779   7.548
 5839SOL     OW19413  10.735   5.447   2.311
 5839SOL    HW119414  10.682   5.462   2.389
 5839SOL    HW219415  10.809   5.507   2.321
 5840SOL     OW19416   1.137  14.048   4.681
 5840SOL    HW119417   1.216  13.994   4.674
 5840SOL    HW219418   1.064  13.986   4.675
 5841SOL     OW19419   4.351  10.924   7.182
 5841SOL    HW119420   4.444  10.946   7.186
 5841SOL    HW219421   4.339  10.857   7.249
 5842SOL     OW19422   0.077   6.649   1.283
 5842SOL    HW119423   0.090   6.693   1.199
 5842SOL    HW219424   0.019   6.576   1.264
 5843SOL     OW19425   7.602   0.971  11.093
 5843SOL    HW119426   7.632   1.049  11.141
 5843SOL    HW219427   7.513   0.993  11.065
 5844SOL     OW19428   8.388   9.327   2.815
 5844SOL    HW119429   8.378   9.283   2.899
 5844SOL    HW219430   8.298   9.343   2.786
 5845SOL     OW19431   8.708   9.834   5.312
 5845SOL    HW119432   8.679   9.925   5.321
 5845SOL    HW219433   8.701   9.797   5.400
 5846SOL     OW19434   0.072   1.895   3.057
 5846SOL    HW119435   0.099   1.844   2.981
 5846SOL    HW219436   0.126   1.974   3.053
 5847SOL     OW19437  14.395  13.299  13.973
 5847SOL    HW119438  14.428  13.355  13.902
 5847SOL    HW219439  14.351  13.227  13.927
 5848SOL     OW19440  10.804  12.266  12.801
 5848SOL    HW119441  10.790  12.312  12.884
 5848SOL    HW219442  10.793  12.334  12.734
 5849SOL     OW19443   1.328   6.760   6.434
 5849SOL    HW119444   1.387   6.708   6.487
 5849SOL    HW219445   1.364   6.849   6.437
 5850SOL     OW19446   6.833   1.843  13.275
 5850SOL    HW119447   6.846   1.827  13.181
 5850SOL    HW219448   6.743   1.815  13.292
 5851SOL     OW19449  12.513  13.321   1.108
 5851SOL    HW119450  12.579  13.265   1.148
 5851SOL    HW219451  12.539  13.410   1.132
 5852SOL     OW19452  11.805   6.501   9.065
 5852SOL    HW119453  11.752   6.532   8.991
 5852SOL    HW219454  11.816   6.408   9.050
 5853SOL     OW19455  12.814  12.885  13.098
 5853SOL    HW119456  12.829  12.893  13.004
 5853SOL    HW219457  12.733  12.834  13.105
 5854SOL     OW19458   2.573   8.581   4.409
 5854SOL    HW119459   2.505   8.647   4.425
 5854SOL    HW219460   2.532   8.498   4.435
 5855SOL     OW19461  13.024   8.277   3.402
 5855SOL    HW119462  12.929   8.272   3.391
 5855SOL    HW219463  13.055   8.190   3.375
 5856SOL     OW19464  12.287   8.971   5.484
 5856SOL    HW119465  12.226   8.897   5.482
 5856SOL    HW219466  12.289   9.003   5.393
 5857SOL     OW19467   7.451   6.923  12.149
 5857SOL    HW119468   7.436   7.018  12.151
 5857SOL    HW219469   7.542   6.912  12.175
 5858SOL     OW19470  14.091  14.521   6.587
 5858SOL    HW119471  14.149  14.448   6.562
 5858SOL    HW219472  14.011  14.479   6.618
 5859SOL     OW19473   2.613   6.869   0.126
 5859SOL    HW119474   2.616   6.943   0.065
 5859SOL    HW219475   2.642   6.794   0.074
 5860SOL     OW19476   7.438   3.736   0.941
 5860SOL    HW119477   7.367   3.756   0.880
 5860SOL    HW219478   7.502   3.806   0.928
 5861SOL     OW19479   8.853   4.049   4.778
 5861SOL    HW119480   8.883   3.966   4.814
 5861SOL    HW219481   8.776   4.071   4.831
 5862SOL     OW19482  10.413  13.232  12.116
 5862SOL    HW119483  10.349  13.215  12.185
 5862SOL    HW219484  10.361  13.230  12.035
 5863SOL     OW19485   8.452  10.557   1.996
 5863SOL    HW119486   8.413  10.603   2.070
 5863SOL    HW219487   8.411  10.595   1.918
 5864SOL     OW19488   9.740   8.093   3.653
 5864SOL    HW119489   9.759   8.042   3.575
 5864SOL    HW219490   9.824   8.100   3.698
 5865SOL     OW19491  12.953   0.329   0.458
 5865SOL    HW119492  12.935   0.245   0.500
 5865SOL    HW219493  13.034   0.313   0.409
 5866SOL     OW19494  11.246  10.683   2.655
 5866SOL    HW119495  11.198  10.633   2.721
 5866SOL    HW219496  11.278  10.616   2.594
 5867SOL     OW19497  10.935   6.141   2.813
 5867SOL    HW119498  10.980   6.216   2.851
 5867SOL    HW219499  10.931   6.077   2.884
 5868SOL     OW19500  11.892  10.529  10.954
 5868SOL    HW119501  11.841  10.586  10.898
 5868SOL    HW219502  11.850  10.443  10.947
 5869SOL     OW19503   2.715  12.483   4.051
 5869SOL    HW119504   2.641  12.535   4.018
 5869SOL    HW219505   2.790  12.514   4.002
 5870SOL     OW19506   8.257  10.882   3.873
 5870SOL    HW119507   8.304  10.884   3.956
 5870SOL    HW219508   8.236  10.789   3.860
 5871SOL     OW19509   0.087   7.924   8.180
 5871SOL    HW119510   0.136   7.970   8.248
 5871SOL    HW219511  14.878   7.948   8.196
 5872SOL     OW19512  10.098   2.306   9.724
 5872SOL    HW119513  10.134   2.393   9.705
 5872SOL    HW219514  10.109   2.257   9.643
 5873SOL     OW19515   3.728   5.558   4.052
 5873SOL    HW119516   3.789   5.490   4.081
 5873SOL    HW219517   3.714   5.539   3.959
 5874SOL     OW19518   1.440  10.539   8.346
 5874SOL    HW119519   1.347  10.536   8.367
 5874SOL    HW219520   1.447  10.500   8.259
 5875SOL     OW19521   1.807  11.820   7.000
 5875SOL    HW119522   1.766  11.895   7.042
 5875SOL    HW219523   1.878  11.795   7.060
 5876SOL     OW19524  10.754   3.973   5.915
 5876SOL    HW119525  10.778   3.897   5.968
 5876SOL    HW219526  10.764   4.047   5.973
 5877SOL     OW19527   6.032   1.574  10.451
 5877SOL    HW119528   5.940   1.548  10.447
 5877SOL    HW219529   6.032   1.660  10.492
 5878SOL     OW19530   7.667   4.108   6.086
 5878SOL    HW119531   7.646   4.186   6.035
 5878SOL    HW219532   7.758   4.120   6.112
 5879SOL     OW19533   3.997   4.419  13.525
 5879SOL    HW119534   4.006   4.413  13.430
 5879SOL    HW219535   4.086   4.437  13.557
 5880SOL     OW19536  14.445   9.934   9.307
 5880SOL    HW119537  14.482   9.883   9.235
 5880SOL    HW219538  14.376   9.878   9.343
 5881SOL     OW19539  12.890   1.392   9.057
 5881SOL    HW119540  12.799   1.387   9.088
 5881SOL    HW219541  12.918   1.300   9.054
 5882SOL     OW19542  14.606   6.330   5.148
 5882SOL    HW119543  14.642   6.416   5.125
 5882SOL    HW219544  14.544   6.349   5.218
 5883SOL     OW19545  12.787   9.377  11.261
 5883SOL    HW119546  12.786   9.294  11.309
 5883SOL    HW219547  12.713   9.426  11.297
 5884SOL     OW19548  12.384  12.412   7.563
 5884SOL    HW119549  12.294  12.382   7.553
 5884SOL    HW219550  12.426  12.343   7.616
 5885SOL     OW19551   8.622   8.039   2.152
 5885SOL    HW119552   8.706   8.003   2.181
 5885SOL    HW219553   8.611   8.118   2.205
 5886SOL     OW19554   6.503   4.421   4.372
 5886SOL    HW119555   6.457   4.505   4.371
 5886SOL    HW219556   6.540   4.413   4.284
 5887SOL     OW19557   1.296   5.014   2.406
 5887SOL    HW119558   1.341   5.072   2.468
 5887SOL    HW219559   1.206   5.010   2.437
 5888SOL     OW19560  14.679   8.495  11.098
 5888SOL    HW119561  14.639   8.528  11.018
 5888SOL    HW219562  14.680   8.571  11.156
 5889SOL     OW19563   1.575  10.565   2.563
 5889SOL    HW119564   1.595  10.538   2.653
 5889SOL    HW219565   1.604  10.656   2.558
 5890SOL     OW19566  10.065   9.168  14.734
 5890SOL    HW119567  10.049   9.205  14.820
 5890SOL    HW219568  10.147   9.119  14.743
 5891SOL     OW19569   7.833   8.039   5.335
 5891SOL    HW119570   7.824   8.063   5.243
 5891SOL    HW219571   7.897   8.102   5.369
 5892SOL     OW19572   4.087   9.630  10.883
 5892SOL    HW119573   4.125   9.544  10.900
 5892SOL    HW219574   4.020   9.615  10.817
 5893SOL     OW19575  14.465   6.465  13.371
 5893SOL    HW119576  14.513   6.548  13.367
 5893SOL    HW219577  14.449   6.451  13.464
 5894SOL     OW19578   5.140   6.761  12.875
 5894SOL    HW119579   5.049   6.790  12.875
 5894SOL    HW219580   5.149   6.709  12.795
 5895SOL     OW19581   4.436   9.971   3.777
 5895SOL    HW119582   4.360  10.007   3.824
 5895SOL    HW219583   4.467  10.043   3.722
 5896SOL     OW19584   7.118   8.495   5.933
 5896SOL    HW119585   7.062   8.534   5.866
 5896SOL    HW219586   7.167   8.427   5.887
 5897SOL     OW19587   8.464   2.986  10.395
 5897SOL    HW119588   8.419   2.908  10.428
 5897SOL    HW219589   8.398   3.029  10.340
 5898SOL     OW19590   0.941  12.427   8.293
 5898SOL    HW119591   0.998  12.350   8.303
 5898SOL    HW219592   0.969  12.486   8.363
 5899SOL     OW19593   7.436   2.097   1.532
 5899SOL    HW119594   7.513   2.128   1.580
 5899SOL    HW219595   7.443   2.139   1.446
 5900SOL     OW19596  12.491  11.596   9.524
 5900SOL    HW119597  12.398  11.581   9.505
 5900SOL    HW219598  12.518  11.517   9.571
 5901SOL     OW19599   3.935   5.222  13.784
 5901SOL    HW119600   3.928   5.128  13.771
 5901SOL    HW219601   4.011   5.232  13.842
 5902SOL     OW19602   1.146  12.825   3.066
 5902SOL    HW119603   1.164  12.868   2.982
 5902SOL    HW219604   1.080  12.759   3.045
 5903SOL     OW19605   6.718  14.489   6.869
 5903SOL    HW119606   6.653  14.486   6.939
 5903SOL    HW219607   6.742  14.398   6.854
 5904SOL     OW19608  14.301  13.207   0.730
 5904SOL    HW119609  14.295  13.122   0.686
 5904SOL    HW219610  14.346  13.189   0.813
 5905SOL     OW19611  10.251  14.476   0.705
 5905SOL    HW119612  10.315  14.409   0.730
 5905SOL    HW219613  10.193  14.433   0.642
 5906SOL     OW19614  13.473   3.443   6.985
 5906SOL    HW119615  13.518   3.508   7.039
 5906SOL    HW219616  13.381   3.451   7.009
 5907SOL     OW19617  14.464   2.815   7.677
 5907SOL    HW119618  14.461   2.900   7.635
 5907SOL    HW219619  14.389   2.815   7.737
 5908SOL     OW19620   2.656  12.710  13.393
 5908SOL    HW119621   2.660  12.733  13.486
 5908SOL    HW219622   2.650  12.794  13.347
 5909SOL     OW19623   7.683   0.481   0.187
 5909SOL    HW119624   7.632   0.528   0.121
 5909SOL    HW219625   7.759   0.447   0.138
 5910SOL     OW19626   9.226  11.675   5.744
 5910SOL    HW119627   9.304  11.727   5.763
 5910SOL    HW219628   9.249  11.624   5.666
 5911SOL     OW19629   5.524   3.307  13.898
 5911SOL    HW119630   5.491   3.345  13.980
 5911SOL    HW219631   5.488   3.219  13.896
 5912SOL     OW19632  11.291  10.860   5.542
 5912SOL    HW119633  11.345  10.856   5.620
 5912SOL    HW219634  11.314  10.945   5.502
 5913SOL     OW19635   4.255   9.237  11.216
 5913SOL    HW119636   4.173   9.265  11.175
 5913SOL    HW219637   4.229   9.165  11.274
 5914SOL     OW19638   0.626   3.432   6.335
 5914SOL    HW119639   0.676   3.366   6.287
 5914SOL    HW219640   0.644   3.514   6.290
 5915SOL     OW19641   7.833   0.685   6.689
 5915SOL    HW119642   7.856   0.661   6.779
 5915SOL    HW219643   7.742   0.655   6.680
 5916SOL     OW19644  13.878   2.627   5.238
 5916SOL    HW119645  13.906   2.604   5.326
 5916SOL    HW219646  13.882   2.722   5.234
 5917SOL     OW19647   9.501  10.936   4.294
 5917SOL    HW119648   9.526  11.001   4.229
 5917SOL    HW219649   9.461  10.986   4.365
 5918SOL     OW19650  10.976   2.261   0.930
 5918SOL    HW119651  10.967   2.314   0.850
 5918SOL    HW219652  10.886   2.249   0.961
 5919SOL     OW19653   6.373   1.353  11.410
 5919SOL    HW119654   6.286   1.368  11.371
 5919SOL    HW219655   6.354   1.322  11.498
 5920SOL     OW19656   6.487   6.082  10.137
 5920SOL    HW119657   6.514   6.062  10.227
 5920SOL    HW219658   6.428   6.157  10.146
 5921SOL     OW19659   4.907   0.392   0.058
 5921SOL    HW119660   4.921   0.405  14.846
 5921SOL    HW219661   4.813   0.401   0.070
 5922SOL     OW19662   2.819  10.630   7.669
 5922SOL    HW119663   2.774  10.610   7.751
 5922SOL    HW219664   2.813  10.725   7.661
 5923SOL     OW19665  12.449  11.481   7.914
 5923SOL    HW119666  12.440  11.433   7.996
 5923SOL    HW219667  12.419  11.421   7.846
 5924SOL     OW19668   7.183   3.463   4.533
 5924SOL    HW119669   7.213   3.427   4.616
 5924SOL    HW219670   7.242   3.536   4.515
 5925SOL     OW19671  14.087  10.098   0.603
 5925SOL    HW119672  14.152  10.121   0.670
 5925SOL    HW219673  14.134  10.108   0.521
 5926SOL     OW19674  10.984  13.552  14.503
 5926SOL    HW119675  11.056  13.512  14.454
 5926SOL    HW219676  11.001  13.530  14.595
 5927SOL     OW19677  12.322   9.825   3.973
 5927SOL    HW119678  12.284   9.741   3.950
 5927SOL    HW219679  12.247   9.880   3.997
 5928SOL     OW19680   1.486   8.448   7.560
 5928SOL    HW119681   1.561   8.451   7.620
 5928SOL    HW219682   1.512   8.384   7.493
 5929SOL     OW19683   2.984   3.110  12.711
 5929SOL    HW119684   2.976   3.104  12.806
 5929SOL    HW219685   2.896   3.092  12.679
 5930SOL     OW19686   4.776   8.539   0.681
 5930SOL    HW119687   4.733   8.615   0.720
 5930SOL    HW219688   4.856   8.529   0.733
 5931SOL     OW19689   8.028  13.087  14.720
 5931SOL    HW119690   8.011  13.071  14.627
 5931SOL    HW219691   8.105  13.033  14.740
 5932SOL     OW19692  10.402   9.521  10.630
 5932SOL    HW119693  10.367   9.607  10.607
 5932SOL    HW219694  10.402   9.472  10.548
 5933SOL     OW19695  13.806  11.684  14.508
 5933SOL    HW119696  13.811  11.600  14.554
 5933SOL    HW219697  13.751  11.738  14.563
 5934SOL     OW19698  14.142   7.322   4.706
 5934SOL    HW119699  14.125   7.408   4.668
 5934SOL    HW219700  14.225   7.333   4.753
 5935SOL     OW19701   6.213   4.932  11.489
 5935SOL    HW119702   6.214   4.862  11.554
 5935SOL    HW219703   6.181   5.008  11.536
 5936SOL     OW19704   0.597   5.548   9.979
 5936SOL    HW119705   0.635   5.634   9.960
 5936SOL    HW219706   0.593   5.504   9.895
 5937SOL     OW19707   8.468   0.348   5.319
 5937SOL    HW119708   8.460   0.280   5.252
 5937SOL    HW219709   8.537   0.317   5.377
 5938SOL     OW19710   5.869   0.079   1.190
 5938SOL    HW119711   5.959   0.047   1.191
 5938SOL    HW219712   5.852   0.103   1.281
 5939SOL     OW19713  10.165  11.623   0.854
 5939SOL    HW119714  10.102  11.669   0.798
 5939SOL    HW219715  10.250  11.658   0.830
 5940SOL     OW19716   6.413  13.210  13.094
 5940SOL    HW119717   6.375  13.178  13.012
 5940SOL    HW219718   6.409  13.135  13.153
 5941SOL     OW19719   1.206   2.465  10.777
 5941SOL    HW119720   1.187   2.381  10.734
 5941SOL    HW219721   1.131   2.520  10.755
 5942SOL     OW19722   9.332  12.353   5.314
 5942SOL    HW119723   9.294  12.321   5.396
 5942SOL    HW219724   9.423  12.372   5.335
 5943SOL     OW19725  11.554   5.620   8.987
 5943SOL    HW119726  11.624   5.583   9.040
 5943SOL    HW219727  11.538   5.556   8.918
 5944SOL     OW19728   0.584   4.012   3.158
 5944SOL    HW119729   0.614   3.921   3.165
 5944SOL    HW219730   0.495   4.005   3.124
 5945SOL     OW19731   8.666  11.475  10.832
 5945SOL    HW119732   8.612  11.547  10.799
 5945SOL    HW219733   8.731  11.517  10.888
 5946SOL     OW19734   5.980  14.781   7.451
 5946SOL    HW119735   5.953  14.716   7.386
 5946SOL    HW219736   6.075  14.769   7.460
 5947SOL     OW19737  14.397   3.999   6.606
 5947SOL    HW119738  14.368   4.031   6.692
 5947SOL    HW219739  14.478   3.952   6.624
 5948SOL     OW19740   8.194   3.653   2.441
 5948SOL    HW119741   8.226   3.636   2.353
 5948SOL    HW219742   8.185   3.749   2.446
 5949SOL     OW19743   5.139  10.635   4.979
 5949SOL    HW119744   5.200  10.601   5.044
 5949SOL    HW219745   5.170  10.599   4.896
 5950SOL     OW19746   1.220  13.045   1.945
 5950SOL    HW119747   1.305  13.036   1.902
 5950SOL    HW219748   1.212  13.139   1.961
 5951SOL     OW19749   2.078   6.285  13.811
 5951SOL    HW119750   2.052   6.299  13.720
 5951SOL    HW219751   2.171   6.307  13.814
 5952SOL     OW19752   1.839  11.996  10.573
 5952SOL    HW119753   1.910  12.003  10.637
 5952SOL    HW219754   1.834  12.084  10.534
 5953SOL     OW19755   5.459   2.997  13.581
 5953SOL    HW119756   5.553   2.982  13.594
 5953SOL    HW219757   5.451   3.015  13.487
 5954SOL     OW19758   1.224  10.387   2.664
 5954SOL    HW119759   1.246  10.475   2.635
 5954SOL    HW219760   1.300  10.357   2.713
 5955SOL     OW19761  11.286  10.033   9.956
 5955SOL    HW119762  11.203  10.022   9.911
 5955SOL    HW219763  11.344  10.070   9.890
 5956SOL     OW19764   6.981  14.539  12.809
 5956SOL    HW119765   6.893  14.533  12.770
 5956SOL    HW219766   7.040  14.512  12.739
 5957SOL     OW19767  12.272   2.726   0.853
 5957SOL    HW119768  12.336   2.656   0.862
 5957SOL    HW219769  12.194   2.683   0.817
 5958SOL     OW19770  10.273  11.281   2.715
 5958SOL    HW119771  10.236  11.364   2.744
 5958SOL    HW219772  10.201  11.236   2.671
 5959SOL     OW19773   2.189   5.563  11.312
 5959SOL    HW119774   2.259   5.616  11.275
 5959SOL    HW219775   2.223   5.534  11.397
 5960SOL     OW19776   5.408  12.376  13.809
 5960SOL    HW119777   5.356  12.296  13.818
 5960SOL    HW219778   5.456  12.364  13.727
 5961SOL     OW19779   0.829   4.635   8.274
 5961SOL    HW119780   0.828   4.556   8.219
 5961SOL    HW219781   0.918   4.640   8.307
 5962SOL     OW19782  14.573   7.103  14.667
 5962SOL    HW119783  14.663   7.126  14.642
 5962SOL    HW219784  14.576   7.098  14.763
 5963SOL     OW19785   4.869   4.366  11.731
 5963SOL    HW119786   4.957   4.375  11.694
 5963SOL    HW219787   4.831   4.453  11.724
 5964SOL     OW19788   4.309  14.009  10.641
 5964SOL    HW119789   4.322  14.078  10.706
 5964SOL    HW219790   4.394  13.999  10.599
 5965SOL     OW19791  13.195   4.438  11.036
 5965SOL    HW119792  13.130   4.492  10.990
 5965SOL    HW219793  13.184   4.350  10.999
 5966SOL     OW19794  10.028   6.316  14.825
 5966SOL    HW119795   9.970   6.248  14.861
 5966SOL    HW219796   9.971   6.393  14.816
 5967SOL     OW19797   4.360   4.596   7.850
 5967SOL    HW119798   4.383   4.589   7.757
 5967SOL    HW219799   4.409   4.672   7.881
 5968SOL     OW19800   0.008  11.793   8.187
 5968SOL    HW119801   0.069  11.740   8.136
 5968SOL    HW219802   0.064  11.843   8.247
 5969SOL     OW19803   4.155   0.163   2.946
 5969SOL    HW119804   4.114   0.081   2.975
 5969SOL    HW219805   4.082   0.224   2.938
 5970SOL     OW19806   8.720  13.659   2.209
 5970SOL    HW119807   8.773  13.655   2.289
 5970SOL    HW219808   8.781  13.686   2.141
 5971SOL     OW19809  13.298  13.184   9.630
 5971SOL    HW119810  13.318  13.163   9.721
 5971SOL    HW219811  13.286  13.279   9.629
 5972SOL     OW19812  12.713   0.914  11.181
 5972SOL    HW119813  12.784   0.881  11.127
 5972SOL    HW219814  12.752   0.984  11.233
 5973SOL     OW19815  11.305  13.248   8.702
 5973SOL    HW119816  11.360  13.322   8.676
 5973SOL    HW219817  11.239  13.286   8.760
 5974SOL     OW19818   8.732  12.609  11.618
 5974SOL    HW119819   8.676  12.540  11.582
 5974SOL    HW219820   8.799  12.562  11.667
 5975SOL     OW19821  14.251   3.062   5.271
 5975SOL    HW119822  14.226   2.987   5.217
 5975SOL    HW219823  14.329   3.032   5.318
 5976SOL     OW19824  11.674   8.199   6.324
 5976SOL    HW119825  11.659   8.107   6.346
 5976SOL    HW219826  11.604   8.245   6.370
 5977SOL     OW19827   2.878   7.905  11.481
 5977SOL    HW119828   2.958   7.856  11.501
 5977SOL    HW219829   2.826   7.845  11.426
 5978SOL     OW19830   0.210   3.853  14.670
 5978SOL    HW119831   0.238   3.933  14.714
 5978SOL    HW219832   0.151   3.810  14.732
 5979SOL     OW19833   1.425   2.027   7.676
 5979SOL    HW119834   1.455   2.039   7.767
 5979SOL    HW219835   1.394   2.113   7.650
 5980SOL     OW19836   7.267  11.234   0.458
 5980SOL    HW119837   7.294  11.289   0.385
 5980SOL    HW219838   7.274  11.144   0.424
 5981SOL     OW19839   5.818   8.584   8.578
 5981SOL    HW119840   5.870   8.532   8.516
 5981SOL    HW219841   5.876   8.599   8.652
 5982SOL     OW19842   9.572  10.093  10.084
 5982SOL    HW119843   9.564  10.004  10.119
 5982SOL    HW219844   9.666  10.110  10.084
 5983SOL     OW19845   9.631   9.655   7.574
 5983SOL    HW119846   9.621   9.664   7.480
 5983SOL    HW219847   9.548   9.689   7.610
 5984SOL     OW19848   3.932   9.103   1.659
 5984SOL    HW119849   3.940   9.008   1.671
 5984SOL    HW219850   4.016   9.129   1.621
 5985SOL     OW19851   7.429  10.209   1.613
 5985SOL    HW119852   7.480  10.132   1.638
 5985SOL    HW219853   7.476  10.283   1.651
 5986SOL     OW19854  12.074  12.717   7.012
 5986SOL    HW119855  12.058  12.721   6.918
 5986SOL    HW219856  12.151  12.660   7.022
 5987SOL     OW19857   9.417   3.099  12.237
 5987SOL    HW119858   9.420   3.013  12.279
 5987SOL    HW219859   9.351   3.148  12.287
 5988SOL     OW19860   4.225   4.961  13.910
 5988SOL    HW119861   4.226   5.056  13.921
 5988SOL    HW219862   4.160   4.946  13.841
 5989SOL     OW19863   5.006  12.598   1.737
 5989SOL    HW119864   4.998  12.693   1.726
 5989SOL    HW219865   5.096  12.586   1.768
 5990SOL     OW19866   7.560   5.658  14.832
 5990SOL    HW119867   7.621   5.619  14.770
 5990SOL    HW219868   7.519   5.583  14.875
 5991SOL     OW19869  14.589   5.365   9.744
 5991SOL    HW119870  14.656   5.344   9.809
 5991SOL    HW219871  14.544   5.442   9.780
 5992SOL     OW19872   7.775   1.782   2.458
 5992SOL    HW119873   7.770   1.690   2.484
 5992SOL    HW219874   7.758   1.780   2.363
 5993SOL     OW19875   3.504  13.588   2.168
 5993SOL    HW119876   3.494  13.530   2.093
 5993SOL    HW219877   3.422  13.636   2.173
 5994SOL     OW19878   1.907  10.426   2.162
 5994SOL    HW119879   1.882  10.503   2.212
 5994SOL    HW219880   1.928  10.360   2.228
 5995SOL     OW19881   8.224  13.806   6.942
 5995SOL    HW119882   8.282  13.807   7.018
 5995SOL    HW219883   8.282  13.800   6.867
 5996SOL     OW19884   3.418   6.562   6.622
 5996SOL    HW119885   3.356   6.616   6.672
 5996SOL    HW219886   3.446   6.495   6.684
 5997SOL     OW19887  14.664   2.696  10.635
 5997SOL    HW119888  14.616   2.778  10.624
 5997SOL    HW219889  14.640   2.666  10.722
 5998SOL     OW19890  11.629   6.231   1.756
 5998SOL    HW119891  11.631   6.240   1.660
 5998SOL    HW219892  11.673   6.148   1.773
 5999SOL     OW19893   2.373   8.227   5.619
 5999SOL    HW119894   2.344   8.318   5.610
 5999SOL    HW219895   2.328   8.180   5.548
 6000SOL     OW19896   5.179   7.306  10.325
 6000SOL    HW119897   5.203   7.359  10.401
 6000SOL    HW219898   5.097   7.263  10.350
 6001SOL     OW19899   7.577   1.086   1.042
 6001SOL    HW119900   7.546   1.162   0.993
 6001SOL    HW219901   7.671   1.100   1.050
 6002SOL     OW19902  13.848  13.633  12.120
 6002SOL    HW119903  13.857  13.726  12.139
 6002SOL    HW219904  13.755  13.614  12.135
 6003SOL     OW19905   0.333   1.333   3.252
 6003SOL    HW119906   0.358   1.411   3.303
 6003SOL    HW219907   0.237   1.337   3.249
 6004SOL     OW19908   8.623  10.517   2.277
 6004SOL    HW119909   8.614  10.607   2.245
 6004SOL    HW219910   8.584  10.519   2.364
 6005SOL     OW19911   7.081  12.654  12.900
 6005SOL    HW119912   7.134  12.646  12.821
 6005SOL    HW219913   7.143  12.648  12.972
 6006SOL     OW19914   6.725  13.552  13.131
 6006SOL    HW119915   6.634  13.552  13.100
 6006SOL    HW219916   6.746  13.459  13.140
 6007SOL     OW19917   6.990  13.330  14.610
 6007SOL    HW119918   7.026  13.313  14.523
 6007SOL    HW219919   7.007  13.423  14.625
 6008SOL     OW19920   6.528   8.761   3.327
 6008SOL    HW119921   6.585   8.774   3.403
 6008SOL    HW219922   6.476   8.841   3.322
 6009SOL     OW19923   2.766   8.411   4.842
 6009SOL    HW119924   2.778   8.403   4.747
 6009SOL    HW219925   2.854   8.423   4.877
 6010SOL     OW19926  14.534   4.043   8.017
 6010SOL    HW119927  14.564   4.046   8.108
 6010SOL    HW219928  14.471   3.971   8.015
 6011SOL     OW19929  11.016   3.983   2.161
 6011SOL    HW119930  11.071   3.965   2.085
 6011SOL    HW219931  11.078   3.995   2.233
 6012SOL     OW19932   5.590   9.687  10.635
 6012SOL    HW119933   5.679   9.672  10.666
 6012SOL    HW219934   5.537   9.686  10.715
 6013SOL     OW19935   1.753   9.040  12.546
 6013SOL    HW119936   1.799   9.122  12.526
 6013SOL    HW219937   1.777   8.981  12.475
 6014SOL     OW19938  11.874   1.661   1.412
 6014SOL    HW119939  11.793   1.611   1.427
 6014SOL    HW219940  11.915   1.667   1.498
 6015SOL     OW19941   0.082  11.127  10.881
 6015SOL    HW119942   0.158  11.120  10.823
 6015SOL    HW219943   0.117  11.166  10.961
 6016SOL     OW19944  14.514  13.724  10.063
 6016SOL    HW119945  14.458  13.687   9.995
 6016SOL    HW219946  14.494  13.672  10.141
 6017SOL     OW19947   5.499   9.883   0.084
 6017SOL    HW119948   5.590   9.866   0.062
 6017SOL    HW219949   5.448   9.828   0.024
 6018SOL     OW19950   0.208   4.862  10.439
 6018SOL    HW119951   0.302   4.872  10.427
 6018SOL    HW219952   0.200   4.794  10.507
 6019SOL     OW19953   4.750  14.821   2.610
 6019SOL    HW119954   4.681  14.880   2.639
 6019SOL    HW219955   4.710  14.734   2.614
 6020SOL     OW19956   7.246  12.769   0.188
 6020SOL    HW119957   7.218  12.688   0.231
 6020SOL    HW219958   7.169  12.797   0.138
 6021SOL     OW19959   3.520   7.194   0.153
 6021SOL    HW119960   3.467   7.194   0.073
 6021SOL    HW219961   3.542   7.286   0.167
 6022SOL     OW19962   6.360   1.504  11.728
 6022SOL    HW119963   6.294   1.552  11.678
 6022SOL    HW219964   6.310   1.442  11.781
 6023SOL     OW19965   0.592   1.556   7.353
 6023SOL    HW119966   0.611   1.503   7.431
 6023SOL    HW219967   0.610   1.646   7.381
 6024SOL     OW19968   0.656   5.950   8.808
 6024SOL    HW119969   0.685   5.975   8.720
 6024SOL    HW219970   0.561   5.955   8.804
 6025SOL     OW19971   3.830   5.721   2.663
 6025SOL    HW119972   3.759   5.657   2.670
 6025SOL    HW219973   3.891   5.681   2.601
 6026SOL     OW19974   6.746   5.928  11.785
 6026SOL    HW119975   6.803   5.885  11.722
 6026SOL    HW219976   6.680   5.973  11.732
 6027SOL     OW19977   0.304   9.544   3.997
 6027SOL    HW119978   0.314   9.600   4.074
 6027SOL    HW219979   0.302   9.455   4.032
 6028SOL     OW19980   6.759   7.109  14.797
 6028SOL    HW119981   6.738   7.203  14.795
 6028SOL    HW219982   6.687   7.069  14.844
 6029SOL     OW19983  10.133   6.848  14.226
 6029SOL    HW119984  10.158   6.756  14.235
 6029SOL    HW219985  10.205   6.897  14.265
 6030SOL     OW19986   8.334   5.912  11.643
 6030SOL    HW119987   8.290   5.964  11.710
 6030SOL    HW219988   8.356   5.830  11.686
 6031SOL     OW19989   7.305   4.469  14.150
 6031SOL    HW119990   7.360   4.505  14.081
 6031SOL    HW219991   7.283   4.544  14.205
 6032SOL     OW19992   4.270   6.562   8.702
 6032SOL    HW119993   4.352   6.533   8.661
 6032SOL    HW219994   4.295   6.579   8.793
 6033SOL     OW19995   2.011   1.141   2.539
 6033SOL    HW119996   1.915   1.136   2.543
 6033SOL    HW219997   2.034   1.201   2.610
 6034SOL     OW19998  10.503  10.754   1.763
 6034SOL    HW119999  10.418  10.719   1.789
 6034SOL    HW220000  10.559  10.677   1.753
 6035SOL     OW20001   9.074   5.836  14.731
 6035SOL    HW120002   9.135   5.879  14.672
 6035SOL    HW220003   9.042   5.906  14.788
 6036SOL     OW20004   9.000   0.721   8.843
 6036SOL    HW120005   9.000   0.753   8.753
 6036SOL    HW220006   8.941   0.781   8.890
 6037SOL     OW20007  12.120   1.385   0.674
 6037SOL    HW120008  12.203   1.420   0.704
 6037SOL    HW220009  12.074   1.359   0.754
 6038SOL     OW20010   3.457   4.920  13.564
 6038SOL    HW120011   3.538   4.968  13.545
 6038SOL    HW220012   3.485   4.841  13.608
 6039SOL     OW20013  10.402  12.297   1.925
 6039SOL    HW120014  10.338  12.291   1.854
 6039SOL    HW220015  10.350  12.292   2.005
 6040SOL     OW20016  14.566   7.685  12.450
 6040SOL    HW120017  14.596   7.633  12.524
 6040SOL    HW220018  14.484   7.724  12.480
 6041SOL     OW20019   7.222  10.449   1.802
 6041SOL    HW120020   7.190  10.423   1.889
 6041SOL    HW220021   7.313  10.473   1.817
 6042SOL     OW20022   3.633  10.983   7.342
 6042SOL    HW120023   3.597  10.996   7.254
 6042SOL    HW220024   3.727  10.971   7.328
 6043SOL     OW20025  14.296   7.721   8.154
 6043SOL    HW120026  14.244   7.702   8.232
 6043SOL    HW220027  14.376   7.668   8.166
 6044SOL     OW20028   8.089  13.815  11.619
 6044SOL    HW120029   8.109  13.727  11.589
 6044SOL    HW220030   8.012  13.841  11.569
 6045SOL     OW20031   5.786   9.244   4.323
 6045SOL    HW120032   5.765   9.164   4.371
 6045SOL    HW220033   5.880   9.236   4.305
 6046SOL     OW20034   5.082   8.526   0.590
 6046SOL    HW120035   5.147   8.456   0.600
 6046SOL    HW220036   5.086   8.573   0.673
 6047SOL     OW20037  14.025   0.868   5.082
 6047SOL    HW120038  14.045   0.918   5.003
 6047SOL    HW220039  14.068   0.784   5.068
 6048SOL     OW20040   0.101  14.791   7.297
 6048SOL    HW120041   0.038  14.728   7.332
 6048SOL    HW220042   0.186  14.748   7.305
 6049SOL     OW20043   7.457   9.912   3.495
 6049SOL    HW120044   7.456   9.828   3.450
 6049SOL    HW220045   7.458   9.977   3.425
 6050SOL     OW20046  10.565   9.653   1.989
 6050SOL    HW120047  10.561   9.716   1.916
 6050SOL    HW220048  10.656   9.622   1.988
 6051SOL     OW20049  12.448  14.277  10.598
 6051SOL    HW120050  12.460  14.350  10.659
 6051SOL    HW220051  12.405  14.315  10.522
 6052SOL     OW20052   5.383   1.926  11.991
 6052SOL    HW120053   5.374   2.009  11.944
 6052SOL    HW220054   5.456   1.881  11.947
 6053SOL     OW20055   0.949  14.830   6.376
 6053SOL    HW120056   0.861  14.856   6.401
 6053SOL    HW220057   0.937  14.757   6.315
 6054SOL     OW20058   5.600   2.368  12.911
 6054SOL    HW120059   5.557   2.303  12.967
 6054SOL    HW220060   5.610   2.445  12.966
 6055SOL     OW20061   8.617   3.885   1.238
 6055SOL    HW120062   8.548   3.829   1.274
 6055SOL    HW220063   8.698   3.851   1.277
 6056SOL     OW20064   0.867   5.124   9.242
 6056SOL    HW120065   0.956   5.149   9.219
 6056SOL    HW220066   0.822   5.208   9.257
 6057SOL     OW20067   7.017   7.795   1.582
 6057SOL    HW120068   7.016   7.844   1.664
 6057SOL    HW220069   6.939   7.739   1.586
 6058SOL     OW20070  11.514   1.003  11.228
 6058SOL    HW120071  11.458   1.081  11.228
 6058SOL    HW220072  11.603   1.039  11.235
 6059SOL     OW20073   0.302   0.769  13.544
 6059SOL    HW120074   0.214   0.807  13.548
 6059SOL    HW220075   0.340   0.804  13.463
 6060SOL     OW20076   7.975   0.271   5.448
 6060SOL    HW120077   7.898   0.282   5.393
 6060SOL    HW220078   7.942   0.230   5.527
 6061SOL     OW20079   9.859   2.552  10.579
 6061SOL    HW120080   9.804   2.630  10.580
 6061SOL    HW220081   9.916   2.561  10.655
 6062SOL     OW20082  12.177  14.026   8.322
 6062SOL    HW120083  12.097  14.060   8.363
 6062SOL    HW220084  12.145  13.969   8.252
 6063SOL     OW20085   4.637   4.890   9.557
 6063SOL    HW120086   4.592   4.821   9.508
 6063SOL    HW220087   4.615   4.970   9.510
 6064SOL     OW20088   1.995   3.347   9.511
 6064SOL    HW120089   1.985   3.409   9.583
 6064SOL    HW220090   1.908   3.307   9.502
 6065SOL     OW20091   2.277   2.773  14.334
 6065SOL    HW120092   2.345   2.783  14.267
 6065SOL    HW220093   2.207   2.830  14.304
 6066SOL     OW20094  14.472  13.594   5.369
 6066SOL    HW120095  14.434  13.506   5.372
 6066SOL    HW220096  14.563  13.579   5.345
 6067SOL     OW20097   3.684   3.790   6.001
 6067SOL    HW120098   3.740   3.820   6.072
 6067SOL    HW220099   3.614   3.741   6.044
 6068SOL     OW20100  10.955   3.773  11.832
 6068SOL    HW120101  10.909   3.690  11.836
 6068SOL    HW220102  10.998   3.773  11.747
 6069SOL     OW20103   5.550   1.125   3.157
 6069SOL    HW120104   5.529   1.215   3.184
 6069SOL    HW220105   5.643   1.127   3.138
 6070SOL     OW20106  12.930  13.843  13.658
 6070SOL    HW120107  12.982  13.776  13.702
 6070SOL    HW220108  12.872  13.878  13.726
 6071SOL     OW20109   2.062   0.596  10.647
 6071SOL    HW120110   2.014   0.566  10.724
 6071SOL    HW220111   2.117   0.667  10.680
 6072SOL     OW20112   1.327   4.318   7.326
 6072SOL    HW120113   1.244   4.280   7.298
 6072SOL    HW220114   1.391   4.283   7.263
 6073SOL     OW20115   1.902   5.484   4.453
 6073SOL    HW120116   1.824   5.539   4.450
 6073SOL    HW220117   1.917   5.458   4.362
 6074SOL     OW20118   4.494   7.860   9.526
 6074SOL    HW120119   4.466   7.769   9.515
 6074SOL    HW220120   4.558   7.874   9.456
 6075SOL     OW20121  11.797   7.851  12.302
 6075SOL    HW120122  11.724   7.800  12.336
 6075SOL    HW220123  11.871   7.790  12.301
 6076SOL     OW20124  11.850   2.767   2.461
 6076SOL    HW120125  11.869   2.771   2.555
 6076SOL    HW220126  11.821   2.678   2.445
 6077SOL     OW20127  13.320   9.290   6.725
 6077SOL    HW120128  13.397   9.234   6.738
 6077SOL    HW220129  13.315   9.343   6.805
 6078SOL     OW20130   6.193   8.025   5.502
 6078SOL    HW120131   6.169   8.069   5.420
 6078SOL    HW220132   6.250   7.953   5.474
 6079SOL     OW20133   1.286   0.449  12.732
 6079SOL    HW120134   1.233   0.371  12.749
 6079SOL    HW220135   1.299   0.448  12.637
 6080SOL     OW20136   4.126  13.021  13.123
 6080SOL    HW120137   4.116  13.076  13.201
 6080SOL    HW220138   4.084  13.070  13.053
 6081SOL     OW20139   1.309  11.172   6.790
 6081SOL    HW120140   1.313  11.082   6.757
 6081SOL    HW220141   1.239  11.212   6.739
 6082SOL     OW20142   4.377   6.943  12.993
 6082SOL    HW120143   4.444   6.950  13.061
 6082SOL    HW220144   4.382   7.025  12.944
 6083SOL     OW20145  14.266  13.315   3.304
 6083SOL    HW120146  14.214  13.247   3.261
 6083SOL    HW220147  14.331  13.267   3.356
 6084SOL     OW20148  12.881   8.719  11.677
 6084SOL    HW120149  12.849   8.724  11.587
 6084SOL    HW220150  12.941   8.793  11.686
 6085SOL     OW20151   4.464  10.548   5.817
 6085SOL    HW120152   4.467  10.503   5.733
 6085SOL    HW220153   4.415  10.489   5.874
 6086SOL     OW20154  14.489   3.289   3.240
 6086SOL    HW120155  14.412   3.330   3.201
 6086SOL    HW220156  14.463   3.198   3.256
 6087SOL     OW20157  11.848   2.655  11.540
 6087SOL    HW120158  11.854   2.651  11.636
 6087SOL    HW220159  11.761   2.691  11.523
 6088SOL     OW20160  12.485  11.088   7.985
 6088SOL    HW120161  12.561  11.145   7.978
 6088SOL    HW220162  12.493  11.028   7.911
 6089SOL     OW20163   3.476  13.850   5.052
 6089SOL    HW120164   3.513  13.920   5.105
 6089SOL    HW220165   3.444  13.786   5.115
 6090SOL     OW20166  14.127   0.017   4.101
 6090SOL    HW120167  14.114  14.811   4.135
 6090SOL    HW220168  14.122   0.073   4.179
 6091SOL     OW20169  13.285  10.477   2.667
 6091SOL    HW120170  13.192  10.465   2.649
 6091SOL    HW220171  13.295  10.454   2.760
 6092SOL     OW20172   1.296  11.695   8.733
 6092SOL    HW120173   1.317  11.602   8.732
 6092SOL    HW220174   1.227  11.706   8.668
 6093SOL     OW20175  12.111  10.423  10.418
 6093SOL    HW120176  12.132  10.486  10.349
 6093SOL    HW220177  12.130  10.470  10.500
 6094SOL     OW20178   5.210   3.239   9.949
 6094SOL    HW120179   5.284   3.224   9.891
 6094SOL    HW220180   5.215   3.168  10.013
 6095SOL     OW20181   4.645   0.835   0.482
 6095SOL    HW120182   4.600   0.899   0.427
 6095SOL    HW220183   4.733   0.871   0.493
 6096SOL     OW20184   4.039   1.702   4.757
 6096SOL    HW120185   4.060   1.699   4.850
 6096SOL    HW220186   4.039   1.610   4.730
 6097SOL     OW20187   5.342   9.663   0.031
 6097SOL    HW120188   5.311   9.637   0.117
 6097SOL    HW220189   5.416   9.605   0.013
 6098SOL     OW20190  11.998   5.788   2.147
 6098SOL    HW120191  11.962   5.775   2.235
 6098SOL    HW220192  11.926   5.763   2.088
 6099SOL     OW20193   0.647  13.581  12.740
 6099SOL    HW120194   0.712  13.599  12.807
 6099SOL    HW220195   0.565  13.618  12.774
 6100SOL     OW20196   9.383   5.428   8.847
 6100SOL    HW120197   9.375   5.398   8.756
 6100SOL    HW220198   9.477   5.438   8.861
 6101SOL     OW20199  11.706   2.668  10.516
 6101SOL    HW120200  11.761   2.663  10.438
 6101SOL    HW220201  11.768   2.682  10.588
 6102SOL     OW20202   0.628   2.062   2.313
 6102SOL    HW120203   0.637   1.976   2.356
 6102SOL    HW220204   0.536   2.083   2.322
 6103SOL     OW20205   5.778   8.760  14.640
 6103SOL    HW120206   5.807   8.759  14.548
 6103SOL    HW220207   5.855   8.789  14.689
 6104SOL     OW20208   9.749   0.030   4.641
 6104SOL    HW120209   9.682  14.848   4.663
 6104SOL    HW220210   9.807   0.031   4.717
 6105SOL     OW20211  14.701   7.997   2.960
 6105SOL    HW120212  14.680   8.030   3.048
 6105SOL    HW220213  14.631   8.032   2.905
 6106SOL     OW20214  10.323  12.547   8.056
 6106SOL    HW120215  10.275  12.524   8.135
 6106SOL    HW220216  10.299  12.638   8.039
 6107SOL     OW20217   9.037   7.664   9.980
 6107SOL    HW120218   8.981   7.607   9.927
 6107SOL    HW220219   8.995   7.750   9.975
 6108SOL     OW20220   3.486   8.885   4.556
 6108SOL    HW120221   3.415   8.945   4.537
 6108SOL    HW220222   3.565   8.930   4.524
 6109SOL     OW20223   6.663   1.036   0.995
 6109SOL    HW120224   6.628   0.953   0.964
 6109SOL    HW220225   6.711   1.071   0.920
 6110SOL     OW20226  11.339   4.757   9.039
 6110SOL    HW120227  11.395   4.701   9.092
 6110SOL    HW220228  11.396   4.790   8.969
 6111SOL     OW20229   9.499   9.498   2.614
 6111SOL    HW120230   9.489   9.448   2.695
 6111SOL    HW220231   9.564   9.450   2.564
 6112SOL     OW20232  10.468  14.247   5.985
 6112SOL    HW120233  10.444  14.301   6.061
 6112SOL    HW220234  10.401  14.179   5.983
 6113SOL     OW20235  13.687  12.190  10.419
 6113SOL    HW120236  13.603  12.217  10.383
 6113SOL    HW220237  13.733  12.272  10.436
 6114SOL     OW20238   1.457   0.206  11.176
 6114SOL    HW120239   1.436   0.260  11.253
 6114SOL    HW220240   1.503   0.265  11.117
 6115SOL     OW20241   8.795  12.836   6.144
 6115SOL    HW120242   8.742  12.892   6.087
 6115SOL    HW220243   8.879  12.882   6.150
 6116SOL     OW20244   2.812   9.923   7.699
 6116SOL    HW120245   2.900   9.949   7.672
 6116SOL    HW220246   2.788   9.852   7.639
 6117SOL     OW20247   5.964   4.982  12.142
 6117SOL    HW120248   5.987   5.033  12.220
 6117SOL    HW220249   5.873   4.957  12.156
 6118SOL     OW20250  14.329  13.636  11.617
 6118SOL    HW120251  14.402  13.575  11.614
 6118SOL    HW220252  14.304  13.639  11.709
 6119SOL     OW20253   4.939   8.071   1.965
 6119SOL    HW120254   4.946   8.115   1.880
 6119SOL    HW220255   5.023   8.024   1.975
 6120SOL     OW20256   7.507  11.257   8.533
 6120SOL    HW120257   7.486  11.249   8.626
 6120SOL    HW220258   7.508  11.167   8.501
 6121SOL     OW20259  12.891   5.226   5.332
 6121SOL    HW120260  12.871   5.301   5.277
 6121SOL    HW220261  12.807   5.180   5.341
 6122SOL     OW20262  11.608   8.354  13.176
 6122SOL    HW120263  11.690   8.306  13.164
 6122SOL    HW220264  11.574   8.322  13.260
 6123SOL     OW20265   1.958  12.722   9.214
 6123SOL    HW120266   1.899  12.650   9.193
 6123SOL    HW220267   2.034  12.680   9.254
 6124SOL     OW20268   5.029  11.329  11.109
 6124SOL    HW120269   4.978  11.328  11.029
 6124SOL    HW220270   5.023  11.239  11.142
 6125SOL     OW20271  10.286   5.146   5.109
 6125SOL    HW120272  10.224   5.218   5.119
 6125SOL    HW220273  10.356   5.166   5.172
 6126SOL     OW20274  14.464   9.703  13.213
 6126SOL    HW120275  14.549   9.746  13.202
 6126SOL    HW220276  14.447   9.707  13.307
 6127SOL     OW20277   2.059   4.075   6.536
 6127SOL    HW120278   2.062   4.037   6.624
 6127SOL    HW220279   1.966   4.087   6.518
 6128SOL     OW20280  14.347   8.850   8.167
 6128SOL    HW120281  14.343   8.756   8.183
 6128SOL    HW220282  14.408   8.860   8.093
 6129SOL     OW20283  12.971   4.311   5.390
 6129SOL    HW120284  12.887   4.344   5.422
 6129SOL    HW220285  12.963   4.216   5.392
 6130SOL     OW20286  14.222   3.136   7.875
 6130SOL    HW120287  14.172   3.077   7.931
 6130SOL    HW220288  14.312   3.106   7.882
 6131SOL     OW20289  11.953   1.374  14.267
 6131SOL    HW120290  12.047   1.389  14.261
 6131SOL    HW220291  11.945   1.285  14.302
 6132SOL     OW20292  11.926   3.309   5.765
 6132SOL    HW120293  11.871   3.351   5.698
 6132SOL    HW220294  11.885   3.335   5.848
 6133SOL     OW20295  12.010  12.111   6.645
 6133SOL    HW120296  11.927  12.154   6.625
 6133SOL    HW220297  12.043  12.080   6.561
 6134SOL     OW20298  14.547  11.913  14.200
 6134SOL    HW120299  14.491  11.988  14.179
 6134SOL    HW220300  14.585  11.888  14.116
 6135SOL     OW20301   8.538   7.107  14.093
 6135SOL    HW120302   8.501   7.019  14.082
 6135SOL    HW220303   8.623   7.093  14.133
 6136SOL     OW20304   2.264   0.173   5.715
 6136SOL    HW120305   2.335   0.205   5.770
 6136SOL    HW220306   2.195   0.148   5.776
 6137SOL     OW20307   3.328  12.371   2.995
 6137SOL    HW120308   3.249  12.410   2.959
 6137SOL    HW220309   3.321  12.383   3.089
 6138SOL     OW20310   4.502   3.898   6.290
 6138SOL    HW120311   4.437   3.830   6.305
 6138SOL    HW220312   4.457   3.963   6.236
 6139SOL     OW20313   4.448   9.648   9.029
 6139SOL    HW120314   4.499   9.575   9.062
 6139SOL    HW220315   4.513   9.706   8.987
 6140SOL     OW20316  11.701   6.785  10.983
 6140SOL    HW120317  11.685   6.873  11.017
 6140SOL    HW220318  11.796   6.775  10.985
 6141SOL     OW20319  11.888   6.877   0.630
 6141SOL    HW120320  11.793   6.868   0.634
 6141SOL    HW220321  11.911   6.848   0.541
 6142SOL     OW20322   7.785   7.729  10.867
 6142SOL    HW120323   7.840   7.801  10.899
 6142SOL    HW220324   7.722   7.714  10.937
 6143SOL     OW20325   2.692  13.576   7.532
 6143SOL    HW120326   2.702  13.665   7.566
 6143SOL    HW220327   2.781  13.542   7.528
 6144SOL     OW20328   3.728  14.868   6.918
 6144SOL    HW120329   3.650   0.035   6.892
 6144SOL    HW220330   3.700  14.817   6.994
 6145SOL     OW20331   5.675   8.567  13.675
 6145SOL    HW120332   5.688   8.481  13.635
 6145SOL    HW220333   5.593   8.599  13.637
 6146SOL     OW20334   4.718  11.544   6.642
 6146SOL    HW120335   4.714  11.619   6.702
 6146SOL    HW220336   4.634  11.546   6.596
 6147SOL     OW20337   2.478   6.467  14.048
 6147SOL    HW120338   2.504   6.376  14.036
 6147SOL    HW220339   2.560   6.516  14.043
 6148SOL     OW20340  14.737   5.849   7.783
 6148SOL    HW120341  14.820   5.802   7.781
 6148SOL    HW220342  14.741   5.901   7.863
 6149SOL     OW20343  10.714   9.720  10.568
 6149SOL    HW120344  10.684   9.675  10.488
 6149SOL    HW220345  10.668   9.804  10.567
 6150SOL     OW20346  14.459   3.620   6.541
 6150SOL    HW120347  14.422   3.675   6.472
 6150SOL    HW220348  14.523   3.676   6.585
 6151SOL     OW20349   6.389   5.603   5.813
 6151SOL    HW120350   6.480   5.583   5.834
 6151SOL    HW220351   6.391   5.633   5.722
 6152SOL     OW20352  11.948  13.899   5.035
 6152SOL    HW120353  11.895  13.871   4.960
 6152SOL    HW220354  11.885  13.905   5.107
 6153SOL     OW20355  10.180   2.018   0.406
 6153SOL    HW120356  10.150   2.108   0.418
 6153SOL    HW220357  10.252   2.008   0.469
 6154SOL     OW20358  10.274   2.851   8.699
 6154SOL    HW120359  10.287   2.765   8.659
 6154SOL    HW220360  10.187   2.846   8.739
 6155SOL     OW20361   0.799   6.020  10.909
 6155SOL    HW120362   0.831   5.933  10.934
 6155SOL    HW220363   0.823   6.029  10.817
 6156SOL     OW20364   1.057   5.765   2.022
 6156SOL    HW120365   1.062   5.833   1.955
 6156SOL    HW220366   0.965   5.739   2.023
 6157SOL     OW20367   2.616  13.595   0.393
 6157SOL    HW120368   2.662  13.528   0.444
 6157SOL    HW220369   2.678  13.668   0.388
 6158SOL     OW20370   8.139   1.161   4.954
 6158SOL    HW120371   8.189   1.241   4.968
 6158SOL    HW220372   8.050   1.184   4.978
 6159SOL     OW20373  13.090   0.805  13.608
 6159SOL    HW120374  13.147   0.879  13.629
 6159SOL    HW220375  13.070   0.815  13.515
 6160SOL     OW20376  12.903  13.371   0.457
 6160SOL    HW120377  12.882  13.279   0.440
 6160SOL    HW220378  12.931  13.405   0.372
 6161SOL     OW20379   9.230  13.189  12.783
 6161SOL    HW120380   9.163  13.247  12.748
 6161SOL    HW220381   9.270  13.149  12.706
 6162SOL     OW20382   4.205   0.035   3.696
 6162SOL    HW120383   4.201  14.845   3.759
 6162SOL    HW220384   4.206  14.874   3.610
 6163SOL     OW20385   9.703   2.143  12.988
 6163SOL    HW120386   9.687   2.049  12.993
 6163SOL    HW220387   9.798   2.152  12.985
 6164SOL     OW20388   7.186   8.011   2.336
 6164SOL    HW120389   7.190   8.096   2.378
 6164SOL    HW220390   7.159   8.030   2.246
 6165SOL     OW20391   1.635   7.103   8.404
 6165SOL    HW120392   1.541   7.110   8.385
 6165SOL    HW220393   1.647   7.012   8.431
 6166SOL     OW20394   5.624   9.745  14.212
 6166SOL    HW120395   5.568   9.685  14.162
 6166SOL    HW220396   5.570   9.822  14.226
 6167SOL     OW20397   4.120   2.617  12.435
 6167SOL    HW120398   4.136   2.697  12.484
 6167SOL    HW220399   4.040   2.580  12.473
 6168SOL     OW20400   8.520   2.156   4.695
 6168SOL    HW120401   8.480   2.170   4.609
 6168SOL    HW220402   8.519   2.061   4.707
 6169SOL     OW20403   8.154   7.972   5.274
 6169SOL    HW120404   8.216   7.959   5.346
 6169SOL    HW220405   8.131   8.065   5.278
 6170SOL     OW20406  13.307  11.623   7.738
 6170SOL    HW120407  13.387  11.624   7.790
 6170SOL    HW220408  13.265  11.707   7.757
 6171SOL     OW20409   8.144   9.876  13.737
 6171SOL    HW120410   8.226   9.884  13.687
 6171SOL    HW220411   8.123   9.965  13.763
 6172SOL     OW20412  12.581   5.418   5.091
 6172SOL    HW120413  12.530   5.468   5.155
 6172SOL    HW220414  12.522   5.349   5.062
 6173SOL     OW20415   6.001  12.372  11.623
 6173SOL    HW120416   6.096  12.374  11.618
 6173SOL    HW220417   5.978  12.435  11.692
 6174SOL     OW20418   0.651  14.680   6.635
 6174SOL    HW120419   0.670  14.587   6.647
 6174SOL    HW220420   0.702  14.724   6.704
 6175SOL     OW20421   7.257   6.230   6.501
 6175SOL    HW120422   7.305   6.278   6.569
 6175SOL    HW220423   7.313   6.235   6.424
 6176SOL     OW20424  14.253   9.702   9.747
 6176SOL    HW120425  14.292   9.615   9.743
 6176SOL    HW220426  14.159   9.687   9.735
 6177SOL     OW20427  10.075   8.507  11.593
 6177SOL    HW120428  10.165   8.506  11.626
 6177SOL    HW220429  10.023   8.464  11.660
 6178SOL     OW20430   0.951   1.344   1.807
 6178SOL    HW120431   1.039   1.323   1.777
 6178SOL    HW220432   0.947   1.309   1.897
 6179SOL     OW20433   8.901   6.926   6.834
 6179SOL    HW120434   8.992   6.951   6.851
 6179SOL    HW220435   8.861   6.919   6.920
 6180SOL     OW20436   7.704   7.300  12.014
 6180SOL    HW120437   7.730   7.268  11.928
 6180SOL    HW220438   7.728   7.393  12.014
 6181SOL     OW20439   1.451   7.167   8.047
 6181SOL    HW120440   1.541   7.189   8.025
 6181SOL    HW220441   1.448   7.071   8.046
 6182SOL     OW20442  13.146   8.702  13.112
 6182SOL    HW120443  13.072   8.696  13.051
 6182SOL    HW220444  13.115   8.761  13.181
 6183SOL     OW20445  12.021  14.333  13.176
 6183SOL    HW120446  12.106  14.342  13.220
 6183SOL    HW220447  12.039  14.353  13.084
 6184SOL     OW20448   6.101  12.770   5.475
 6184SOL    HW120449   6.169  12.837   5.467
 6184SOL    HW220450   6.045  12.801   5.547
 6185SOL     OW20451   2.527   7.872   6.108
 6185SOL    HW120452   2.455   7.830   6.060
 6185SOL    HW220453   2.486   7.947   6.150
 6186SOL     OW20454  10.857   2.659  11.004
 6186SOL    HW120455  10.940   2.701  10.982
 6186SOL    HW220456  10.804   2.729  11.042
 6187SOL     OW20457   3.371   1.867   1.666
 6187SOL    HW120458   3.312   1.793   1.653
 6187SOL    HW220459   3.313   1.943   1.672
 6188SOL     OW20460   7.864   2.746   1.879
 6188SOL    HW120461   7.884   2.678   1.943
 6188SOL    HW220462   7.769   2.747   1.875
 6189SOL     OW20463   5.502   5.044   7.059
 6189SOL    HW120464   5.580   4.989   7.064
 6189SOL    HW220465   5.505   5.083   6.972
 6190SOL     OW20466  12.824   0.170   1.915
 6190SOL    HW120467  12.792   0.116   1.843
 6190SOL    HW220468  12.915   0.141   1.927
 6191SOL     OW20469  14.661   9.850   2.707
 6191SOL    HW120470  14.570   9.870   2.728
 6191SOL    HW220471  14.709   9.929   2.728
 6192SOL     OW20472  14.795  10.971   4.386
 6192SOL    HW120473  14.865  10.975   4.451
 6192SOL    HW220474  14.840  10.988   4.302
 6193SOL     OW20475   6.336  14.295   0.369
 6193SOL    HW120476   6.323  14.299   0.274
 6193SOL    HW220477   6.375  14.380   0.391
 6194SOL     OW20478   0.559   9.284   2.409
 6194SOL    HW120479   0.471   9.313   2.434
 6194SOL    HW220480   0.604   9.365   2.382
 6195SOL     OW20481  12.528  10.696  14.607
 6195SOL    HW120482  12.511  10.701  14.513
 6195SOL    HW220483  12.545  10.603  14.624
 6196SOL     OW20484  11.103   5.403   2.978
 6196SOL    HW120485  11.073   5.422   3.067
 6196SOL    HW220486  11.193   5.371   2.989
 6197SOL     OW20487   1.958   7.035  10.643
 6197SOL    HW120488   1.901   7.044  10.567
 6197SOL    HW220489   1.991   7.124  10.659
 6198SOL     OW20490  12.743   7.175  11.766
 6198SOL    HW120491  12.659   7.193  11.724
 6198SOL    HW220492  12.724   7.178  11.860
 6199SOL     OW20493   7.756   8.754  10.027
 6199SOL    HW120494   7.675   8.711  10.056
 6199SOL    HW220495   7.732   8.847  10.019
 6200SOL     OW20496   4.950   3.083   7.787
 6200SOL    HW120497   5.016   3.024   7.823
 6200SOL    HW220498   4.899   3.027   7.727
 6201SOL     OW20499   5.334   2.221   4.713
 6201SOL    HW120500   5.399   2.290   4.722
 6201SOL    HW220501   5.384   2.140   4.721
 6202SOL     OW20502   0.547  10.691  10.133
 6202SOL    HW120503   0.570  10.681  10.041
 6202SOL    HW220504   0.591  10.772  10.160
 6203SOL     OW20505  13.902   1.357   1.928
 6203SOL    HW120506  13.892   1.317   1.841
 6203SOL    HW220507  13.993   1.386   1.931
 6204SOL     OW20508   0.612   4.268  10.714
 6204SOL    HW120509   0.557   4.211  10.660
 6204SOL    HW220510   0.688   4.214  10.735
 6205SOL     OW20511  10.992  14.357   5.884
 6205SOL    HW120512  11.079  14.389   5.911
 6205SOL    HW220513  10.935  14.380   5.956
 6206SOL     OW20514  14.829   5.919   8.411
 6206SOL    HW120515  14.845   6.011   8.387
 6206SOL    HW220516   0.009   5.902   8.482
 6207SOL     OW20517  12.623  11.562  14.443
 6207SOL    HW120518  12.586  11.632  14.496
 6207SOL    HW220519  12.718  11.572  14.454
 6208SOL     OW20520   2.661   7.220   5.133
 6208SOL    HW120521   2.643   7.233   5.226
 6208SOL    HW220522   2.576   7.197   5.096
 6209SOL     OW20523   0.809   6.625   8.524
 6209SOL    HW120524   0.795   6.533   8.501
 6209SOL    HW220525   0.723   6.665   8.515
 6210SOL     OW20526   4.037  12.987   6.577
 6210SOL    HW120527   4.021  12.896   6.554
 6210SOL    HW220528   3.972  13.037   6.526
 6211SOL     OW20529  13.141  11.938   3.220
 6211SOL    HW120530  13.200  11.939   3.296
 6211SOL    HW220531  13.055  11.918   3.256
 6212SOL     OW20532  12.885  14.204  14.260
 6212SOL    HW120533  12.941  14.281  14.264
 6212SOL    HW220534  12.893  14.164  14.347
 6213SOL     OW20535   7.578   5.824   2.993
 6213SOL    HW120536   7.530   5.760   2.941
 6213SOL    HW220537   7.656   5.844   2.940
 6214SOL     OW20538  10.583  10.250  14.640
 6214SOL    HW120539  10.668  10.247  14.596
 6214SOL    HW220540  10.559  10.342  14.640
 6215SOL     OW20541   5.782   0.397   8.482
 6215SOL    HW120542   5.811   0.476   8.437
 6215SOL    HW220543   5.858   0.367   8.531
 6216SOL     OW20544   9.989  12.580  11.031
 6216SOL    HW120545  10.048  12.654  11.043
 6216SOL    HW220546   9.973  12.577  10.937
 6217SOL     OW20547   0.743   8.852   1.306
 6217SOL    HW120548   0.760   8.906   1.383
 6217SOL    HW220549   0.821   8.798   1.297
 6218SOL     OW20550   6.394  11.201   7.685
 6218SOL    HW120551   6.310  11.242   7.660
 6218SOL    HW220552   6.460  11.257   7.645
 6219SOL     OW20553   7.820   9.689  12.010
 6219SOL    HW120554   7.811   9.774  11.968
 6219SOL    HW220555   7.898   9.697  12.065
 6220SOL     OW20556   2.645  13.966   2.009
 6220SOL    HW120557   2.620  13.881   1.973
 6220SOL    HW220558   2.562  14.011   2.022
 6221SOL     OW20559  12.718  11.241   8.107
 6221SOL    HW120560  12.760  11.195   8.179
 6221SOL    HW220561  12.654  11.299   8.148
 6222SOL     OW20562  11.377   8.234   0.721
 6222SOL    HW120563  11.399   8.152   0.676
 6222SOL    HW220564  11.370   8.298   0.650
 6223SOL     OW20565  10.502   8.321  11.965
 6223SOL    HW120566  10.595   8.302  11.972
 6223SOL    HW220567  10.484   8.384  12.034
 6224SOL     OW20568   7.470   0.304   5.790
 6224SOL    HW120569   7.535   0.374   5.783
 6224SOL    HW220570   7.400   0.341   5.845
 6225SOL     OW20571  13.729   8.216   1.764
 6225SOL    HW120572  13.817   8.252   1.778
 6225SOL    HW220573  13.744   8.126   1.734
 6226SOL     OW20574  13.837   8.512   9.419
 6226SOL    HW120575  13.816   8.566   9.495
 6226SOL    HW220576  13.823   8.570   9.344
 6227SOL     OW20577   8.614   0.771  11.060
 6227SOL    HW120578   8.625   0.696  11.119
 6227SOL    HW220579   8.563   0.736  10.986
 6228SOL     OW20580   8.135   7.002   9.358
 6228SOL    HW120581   8.210   7.029   9.306
 6228SOL    HW220582   8.117   7.076   9.416
 6229SOL     OW20583  13.773   1.408  12.937
 6229SOL    HW120584  13.711   1.476  12.910
 6229SOL    HW220585  13.754   1.393  13.029
 6230SOL     OW20586   7.907  13.673   5.582
 6230SOL    HW120587   7.913  13.579   5.597
 6230SOL    HW220588   7.875  13.709   5.665
 6231SOL     OW20589  13.208  11.749   0.569
 6231SOL    HW120590  13.153  11.740   0.492
 6231SOL    HW220591  13.287  11.699   0.548
 6232SOL     OW20592   8.213   6.285   0.276
 6232SOL    HW120593   8.217   6.375   0.309
 6232SOL    HW220594   8.215   6.295   0.181
 6233SOL     OW20595  14.087  12.987   1.139
 6233SOL    HW120596  14.104  12.984   1.233
 6233SOL    HW220597  14.030  13.063   1.127
 6234SOL     OW20598   9.717   8.794   8.100
 6234SOL    HW120599   9.736   8.736   8.027
 6234SOL    HW220600   9.679   8.873   8.060
 6235SOL     OW20601   1.526   1.915  13.045
 6235SOL    HW120602   1.508   1.867  12.964
 6235SOL    HW220603   1.520   1.849  13.114
 6236SOL     OW20604   9.322  11.943   4.965
 6236SOL    HW120605   9.290  12.014   4.909
 6236SOL    HW220606   9.368  11.987   5.036
 6237SOL     OW20607   5.853  10.525   1.756
 6237SOL    HW120608   5.759  10.519   1.776
 6237SOL    HW220609   5.889  10.441   1.782
 6238SOL     OW20610  14.802   6.847  10.678
 6238SOL    HW120611  14.793   6.793  10.756
 6238SOL    HW220612  14.844   6.927  10.709
 6239SOL     OW20613   3.165   6.723   0.721
 6239SOL    HW120614   3.139   6.806   0.682
 6239SOL    HW220615   3.106   6.712   0.796
 6240SOL     OW20616   1.516  10.563   8.940
 6240SOL    HW120617   1.509  10.632   9.006
 6240SOL    HW220618   1.608  10.564   8.914
 6241SOL     OW20619  13.572   6.637   0.817
 6241SOL    HW120620  13.572   6.693   0.740
 6241SOL    HW220621  13.598   6.551   0.785
 6242SOL     OW20622  11.009   9.250   5.930
 6242SOL    HW120623  10.949   9.229   6.001
 6242SOL    HW220624  11.075   9.306   5.970
 6243SOL     OW20625  12.901   3.795   4.467
 6243SOL    HW120626  12.917   3.868   4.406
 6243SOL    HW220627  12.806   3.785   4.467
 6244SOL     OW20628   0.823  10.592  11.389
 6244SOL    HW120629   0.818  10.519  11.328
 6244SOL    HW220630   0.913  10.623  11.382
 6245SOL     OW20631  10.773  11.118   0.242
 6245SOL    HW120632  10.702  11.094   0.182
 6245SOL    HW220633  10.743  11.199   0.283
 6246SOL     OW20634   3.766   1.924   1.258
 6246SOL    HW120635   3.818   1.844   1.259
 6246SOL    HW220636   3.806   1.977   1.189
 6247SOL     OW20637   5.987   8.605   2.250
 6247SOL    HW120638   5.902   8.593   2.292
 6247SOL    HW220639   6.047   8.551   2.301
 6248SOL     OW20640   6.700   7.653  12.068
 6248SOL    HW120641   6.693   7.747  12.049
 6248SOL    HW220642   6.642   7.611  12.005
 6249SOL     OW20643   3.339  13.865   5.544
 6249SOL    HW120644   3.404  13.930   5.568
 6249SOL    HW220645   3.385  13.781   5.550
 6250SOL     OW20646  13.059  11.765   8.860
 6250SOL    HW120647  13.047  11.678   8.899
 6250SOL    HW220648  12.996  11.768   8.788
 6251SOL     OW20649   1.792   6.207   4.131
 6251SOL    HW120650   1.841   6.218   4.212
 6251SOL    HW220651   1.822   6.123   4.096
 6252SOL     OW20652   4.662  13.494  11.310
 6252SOL    HW120653   4.744  13.542  11.324
 6252SOL    HW220654   4.597  13.541  11.363
 6253SOL     OW20655  14.462   6.465  11.912
 6253SOL    HW120656  14.374   6.448  11.879
 6253SOL    HW220657  14.460   6.557  11.939
 6254SOL     OW20658   2.353  12.180  12.179
 6254SOL    HW120659   2.444  12.151  12.189
 6254SOL    HW220660   2.332  12.223  12.262
 6255SOL     OW20661   0.890   6.156   6.343
 6255SOL    HW120662   0.955   6.091   6.318
 6255SOL    HW220663   0.890   6.154   6.439
 6256SOL     OW20664   2.523   6.735   1.870
 6256SOL    HW120665   2.612   6.737   1.833
 6256SOL    HW220666   2.525   6.661   1.931
 6257SOL     OW20667  12.945   1.282   5.195
 6257SOL    HW120668  12.901   1.361   5.226
 6257SOL    HW220669  12.875   1.222   5.172
 6258SOL     OW20670  13.954   6.718   7.654
 6258SOL    HW120671  13.921   6.808   7.647
 6258SOL    HW220672  14.038   6.727   7.700
 6259SOL     OW20673   7.588  11.892   7.546
 6259SOL    HW120674   7.633  11.872   7.628
 6259SOL    HW220675   7.497  11.864   7.562
 6260SOL     OW20676   3.897  13.905  14.020
 6260SOL    HW120677   3.830  13.909  14.089
 6260SOL    HW220678   3.857  13.949  13.945
 6261SOL     OW20679  12.391   5.083   9.273
 6261SOL    HW120680  12.469   5.029   9.266
 6261SOL    HW220681  12.363   5.072   9.364
 6262SOL     OW20682   8.669  12.484   4.828
 6262SOL    HW120683   8.609  12.415   4.857
 6262SOL    HW220684   8.691  12.531   4.909
 6263SOL     OW20685  11.223   1.406   4.917
 6263SOL    HW120686  11.307   1.421   4.875
 6263SOL    HW220687  11.214   1.477   4.980
 6264SOL     OW20688  14.097  14.146  12.775
 6264SOL    HW120689  14.106  14.226  12.722
 6264SOL    HW220690  14.072  14.079  12.712
 6265SOL     OW20691   1.574   6.320   4.042
 6265SOL    HW120692   1.517   6.315   4.119
 6265SOL    HW220693   1.655   6.278   4.070
 6266SOL     OW20694   3.733   9.762   5.595
 6266SOL    HW120695   3.787   9.694   5.634
 6266SOL    HW220696   3.664   9.779   5.659
 6267SOL     OW20697   6.791   4.960   8.275
 6267SOL    HW120698   6.769   4.971   8.367
 6267SOL    HW220699   6.708   4.940   8.232
 6268SOL     OW20700  10.721  13.948   3.413
 6268SOL    HW120701  10.756  13.969   3.327
 6268SOL    HW220702  10.798  13.942   3.470
 6269SOL     OW20703   5.299  13.876   4.099
 6269SOL    HW120704   5.305  13.949   4.160
 6269SOL    HW220705   5.265  13.804   4.150
 6270SOL     OW20706  11.691   4.491  13.362
 6270SOL    HW120707  11.755   4.561  13.375
 6270SOL    HW220708  11.723   4.418  13.414
 6271SOL     OW20709   0.227   6.229   7.459
 6271SOL    HW120710   0.169   6.259   7.389
 6271SOL    HW220711   0.248   6.138   7.435
 6272SOL     OW20712   4.140   8.709   9.667
 6272SOL    HW120713   4.197   8.786   9.672
 6272SOL    HW220714   4.141   8.685   9.574
 6273SOL     OW20715  10.135   1.397   2.496
 6273SOL    HW120716  10.162   1.488   2.503
 6273SOL    HW220717  10.093   1.378   2.580
 6274SOL     OW20718   8.901   1.520  11.982
 6274SOL    HW120719   8.952   1.600  11.971
 6274SOL    HW220720   8.830   1.529  11.918
 6275SOL     OW20721  14.627   7.230   4.663
 6275SOL    HW120722  14.583   7.236   4.579
 6275SOL    HW220723  14.707   7.282   4.652
 6276SOL     OW20724   8.799  11.335   4.109
 6276SOL    HW120725   8.732  11.274   4.079
 6276SOL    HW220726   8.781  11.346   4.203
 6277SOL     OW20727   0.409   5.726   1.064
 6277SOL    HW120728   0.466   5.800   1.083
 6277SOL    HW220729   0.329   5.765   1.028
 6278SOL     OW20730   6.082   3.968   6.527
 6278SOL    HW120731   6.016   3.912   6.487
 6278SOL    HW220732   6.101   3.927   6.612
 6279SOL     OW20733   1.953   1.114  11.950
 6279SOL    HW120734   1.978   1.186  11.893
 6279SOL    HW220735   1.868   1.085  11.916
 6280SOL     OW20736  13.685   4.969  10.671
 6280SOL    HW120737  13.621   4.965  10.742
 6280SOL    HW220738  13.743   5.042  10.695
 6281SOL     OW20739  12.727   6.950   1.916
 6281SOL    HW120740  12.648   6.996   1.944
 6281SOL    HW220741  12.764   6.913   1.996
 6282SOL     OW20742  12.508   0.451   2.758
 6282SOL    HW120743  12.437   0.499   2.714
 6282SOL    HW220744  12.478   0.443   2.848
 6283SOL     OW20745   1.869   5.715   3.762
 6283SOL    HW120746   1.838   5.774   3.693
 6283SOL    HW220747   1.937   5.764   3.807
 6284SOL     OW20748   4.487   5.110   7.716
 6284SOL    HW120749   4.452   5.174   7.655
 6284SOL    HW220750   4.571   5.084   7.678
 6285SOL     OW20751   1.089  14.314  12.666
 6285SOL    HW120752   1.130  14.299  12.751
 6285SOL    HW220753   1.132  14.392  12.632
 6286SOL     OW20754  11.376   7.878   6.332
 6286SOL    HW120755  11.311   7.809   6.346
 6286SOL    HW220756  11.332   7.959   6.356
 6287SOL     OW20757   7.068   3.669   9.967
 6287SOL    HW120758   7.149   3.699   9.925
 6287SOL    HW220759   7.052   3.583   9.929
 6288SOL     OW20760   2.841   9.278   5.679
 6288SOL    HW120761   2.840   9.374   5.675
 6288SOL    HW220762   2.782   9.256   5.751
 6289SOL     OW20763  13.028   0.837   0.254
 6289SOL    HW120764  12.962   0.784   0.297
 6289SOL    HW220765  13.098   0.848   0.319
 6290SOL     OW20766   3.965   8.438   5.548
 6290SOL    HW120767   3.885   8.398   5.515
 6290SOL    HW220768   3.935   8.505   5.610
 6291SOL     OW20769   2.711   5.121  12.051
 6291SOL    HW120770   2.733   5.151  11.963
 6291SOL    HW220771   2.657   5.043  12.037
 6292SOL     OW20772  13.193   4.593  10.580
 6292SOL    HW120773  13.146   4.578  10.662
 6292SOL    HW220774  13.273   4.542  10.588
 6293SOL     OW20775   8.170   3.996   5.059
 6293SOL    HW120776   8.242   4.059   5.062
 6293SOL    HW220777   8.091   4.050   5.057
 6294SOL     OW20778   0.916  10.586   0.729
 6294SOL    HW120779   0.849  10.537   0.776
 6294SOL    HW220780   0.920  10.544   0.643
 6295SOL     OW20781  13.978   4.579   3.081
 6295SOL    HW120782  13.927   4.563   3.160
 6295SOL    HW220783  13.914   4.579   3.010
 6296SOL     OW20784   3.086   0.419   4.584
 6296SOL    HW120785   3.126   0.348   4.633
 6296SOL    HW220786   3.001   0.431   4.626
 6297SOL     OW20787   0.568  14.525  12.252
 6297SOL    HW120788   0.495  14.473  12.218
 6297SOL    HW220789   0.526  14.602  12.290
 6298SOL     OW20790  11.272  10.665  12.209
 6298SOL    HW120791  11.187  10.644  12.248
 6298SOL    HW220792  11.335  10.616  12.262
 6299SOL     OW20793   0.771   6.260   8.042
 6299SOL    HW120794   0.701   6.203   8.009
 6299SOL    HW220795   0.818   6.206   8.106
 6300SOL     OW20796  11.512  13.654   9.639
 6300SOL    HW120797  11.578  13.598   9.680
 6300SOL    HW220798  11.435  13.645   9.695
 6301SOL     OW20799   8.091  13.859  13.291
 6301SOL    HW120800   8.079  13.765  13.305
 6301SOL    HW220801   8.154  13.885  13.358
 6302SOL     OW20802   1.892   7.879   0.534
 6302SOL    HW120803   1.840   7.925   0.468
 6302SOL    HW220804   1.853   7.906   0.618
 6303SOL     OW20805   3.022  11.628   4.284
 6303SOL    HW120806   3.109  11.635   4.245
 6303SOL    HW220807   2.962  11.624   4.209
 6304SOL     OW20808   2.116   8.477   8.441
 6304SOL    HW120809   2.089   8.531   8.366
 6304SOL    HW220810   2.168   8.406   8.401
 6305SOL     OW20811  14.633   9.586   8.786
 6305SOL    HW120812  14.709   9.589   8.728
 6305SOL    HW220813  14.651   9.652   8.853
 6306SOL     OW20814  10.370  11.475   8.335
 6306SOL    HW120815  10.343  11.564   8.314
 6306SOL    HW220816  10.412  11.483   8.421
 6307SOL     OW20817   7.540  11.744  13.041
 6307SOL    HW120818   7.584  11.713  13.121
 6307SOL    HW220819   7.581  11.694  12.971
 6308SOL     OW20820   4.391   4.083   0.910
 6308SOL    HW120821   4.448   4.013   0.940
 6308SOL    HW220822   4.420   4.161   0.958
 6309SOL     OW20823   9.145   9.191   8.292
 6309SOL    HW120824   9.196   9.166   8.215
 6309SOL    HW220825   9.175   9.131   8.360
 6310SOL     OW20826   4.652  14.876   0.192
 6310SOL    HW120827   4.660  14.860   0.286
 6310SOL    HW220828   4.591   0.067   0.186
 6311SOL     OW20829   6.173   9.245  10.735
 6311SOL    HW120830   6.207   9.334  10.741
 6311SOL    HW220831   6.143   9.237  10.645
 6312SOL     OW20832   5.980   2.210   8.963
 6312SOL    HW120833   5.954   2.135   8.908
 6312SOL    HW220834   5.913   2.276   8.945
 6313SOL     OW20835   7.955   8.886   2.172
 6313SOL    HW120836   7.980   8.973   2.202
 6313SOL    HW220837   7.879   8.863   2.225
 6314SOL     OW20838   4.232   6.980   9.071
 6314SOL    HW120839   4.247   6.889   9.046
 6314SOL    HW220840   4.284   7.031   9.009
 6315SOL     OW20841  12.868  10.367   5.313
 6315SOL    HW120842  12.774  10.366   5.332
 6315SOL    HW220843  12.908  10.397   5.395
 6316SOL     OW20844   4.835  14.871   8.783
 6316SOL    HW120845   4.805   0.070   8.742
 6316SOL    HW220846   4.794  14.802   8.731
 6317SOL     OW20847   6.682   8.810   5.207
 6317SOL    HW120848   6.594   8.809   5.168
 6317SOL    HW220849   6.738   8.768   5.141
 6318SOL     OW20850  12.662   0.157   1.172
 6318SOL    HW120851  12.606   0.117   1.239
 6318SOL    HW220852  12.708   0.228   1.218
 6319SOL     OW20853   2.263   6.539  11.025
 6319SOL    HW120854   2.299   6.509  11.108
 6319SOL    HW220855   2.334   6.527  10.962
 6320SOL     OW20856  14.226   7.688   9.194
 6320SOL    HW120857  14.182   7.762   9.152
 6320SOL    HW220858  14.311   7.683   9.150
 6321SOL     OW20859   0.952   3.534   7.239
 6321SOL    HW120860   0.903   3.491   7.308
 6321SOL    HW220861   0.906   3.617   7.226
 6322SOL     OW20862   5.399   1.233   2.566
 6322SOL    HW120863   5.414   1.144   2.598
 6322SOL    HW220864   5.308   1.234   2.538
 6323SOL     OW20865   7.940   0.063   1.769
 6323SOL    HW120866   7.847   0.049   1.754
 6323SOL    HW220867   7.971   0.103   1.688
 6324SOL     OW20868  10.186   3.575   1.865
 6324SOL    HW120869  10.198   3.549   1.956
 6324SOL    HW220870  10.274   3.601   1.836
 6325SOL     OW20871   1.713   7.682   2.630
 6325SOL    HW120872   1.707   7.682   2.726
 6325SOL    HW220873   1.747   7.596   2.608
 6326SOL     OW20874   4.987   4.604  13.388
 6326SOL    HW120875   4.938   4.606  13.471
 6326SOL    HW220876   5.042   4.682  13.392
 6327SOL     OW20877   3.742   8.431  14.471
 6327SOL    HW120878   3.719   8.487  14.397
 6327SOL    HW220879   3.811   8.479  14.517
 6328SOL     OW20880   0.062  11.135  11.314
 6328SOL    HW120881   0.024  11.077  11.247
 6328SOL    HW220882   0.015  11.217  11.304
 6329SOL     OW20883   5.197   3.162   4.857
 6329SOL    HW120884   5.192   3.144   4.763
 6329SOL    HW220885   5.235   3.250   4.863
 6330SOL     OW20886   3.588   3.070  12.998
 6330SOL    HW120887   3.683   3.073  13.006
 6330SOL    HW220888   3.567   3.139  12.935
 6331SOL     OW20889   9.769  13.404   7.201
 6331SOL    HW120890   9.793  13.324   7.247
 6331SOL    HW220891   9.748  13.375   7.112
 6332SOL     OW20892   3.242   6.496  12.039
 6332SOL    HW120893   3.162   6.447  12.061
 6332SOL    HW220894   3.224   6.533  11.953
 6333SOL     OW20895  14.234   6.718  14.382
 6333SOL    HW120896  14.273   6.667  14.311
 6333SOL    HW220897  14.302   6.723  14.449
 6334SOL     OW20898   6.599   9.359   5.586
 6334SOL    HW120899   6.601   9.403   5.501
 6334SOL    HW220900   6.619   9.428   5.649
 6335SOL     OW20901   6.876  14.750   9.063
 6335SOL    HW120902   6.836  14.672   9.025
 6335SOL    HW220903   6.843  14.753   9.153
 6336SOL     OW20904  10.208   7.570   3.526
 6336SOL    HW120905  10.126   7.521   3.533
 6336SOL    HW220906  10.209   7.603   3.436
 6337SOL     OW20907   0.348  13.427  11.013
 6337SOL    HW120908   0.417  13.469  10.961
 6337SOL    HW220909   0.313  13.498  11.067
 6338SOL     OW20910   6.124   8.453  13.650
 6338SOL    HW120911   6.140   8.545  13.629
 6338SOL    HW220912   6.089   8.415  13.569
 6339SOL     OW20913   0.500   3.312   2.111
 6339SOL    HW120914   0.437   3.367   2.065
 6339SOL    HW220915   0.518   3.358   2.193
 6340SOL     OW20916   4.456   6.351  11.085
 6340SOL    HW120917   4.545   6.348  11.051
 6340SOL    HW220918   4.466   6.343  11.180
 6341SOL     OW20919   9.379  14.454  10.522
 6341SOL    HW120920   9.463  14.412  10.499
 6341SOL    HW220921   9.315  14.383  10.519
 6342SOL     OW20922  13.169  13.467   9.665
 6342SOL    HW120923  13.105  13.504   9.725
 6342SOL    HW220924  13.252  13.507   9.690
 6343SOL     OW20925   3.910   2.509  10.302
 6343SOL    HW120926   3.874   2.548  10.222
 6343SOL    HW220927   3.984   2.456  10.271
 6344SOL     OW20928  10.279  10.807   7.892
 6344SOL    HW120929  10.345  10.739   7.907
 6344SOL    HW220930  10.225  10.806   7.971
 6345SOL     OW20931   0.117   0.612   5.030
 6345SOL    HW120932   0.029   0.647   5.041
 6345SOL    HW220933   0.107   0.517   5.041
 6346SOL     OW20934   7.645  11.596   2.351
 6346SOL    HW120935   7.692  11.517   2.323
 6346SOL    HW220936   7.555  11.567   2.365
 6347SOL     OW20937   1.047   3.916   7.621
 6347SOL    HW120938   1.074   3.926   7.712
 6347SOL    HW220939   0.954   3.895   7.626
 6348SOL     OW20940  13.992   4.708  12.238
 6348SOL    HW120941  14.031   4.795  12.233
 6348SOL    HW220942  14.051   4.658  12.293
 6349SOL     OW20943  11.236   9.564   3.596
 6349SOL    HW120944  11.195   9.649   3.611
 6349SOL    HW220945  11.179   9.521   3.533
 6350SOL     OW20946  12.136  11.553   0.898
 6350SOL    HW120947  12.124  11.556   0.803
 6350SOL    HW220948  12.047  11.553   0.934
 6351SOL     OW20949  11.037  13.442   5.439
 6351SOL    HW120950  11.014  13.400   5.522
 6351SOL    HW220951  11.072  13.527   5.464
 6352SOL     OW20952   1.206  11.161   2.616
 6352SOL    HW120953   1.166  11.091   2.667
 6352SOL    HW220954   1.208  11.128   2.526
 6353SOL     OW20955   4.558  10.571   7.618
 6353SOL    HW120956   4.469  10.539   7.636
 6353SOL    HW220957   4.581  10.530   7.535
 6354SOL     OW20958   0.378  13.130   4.257
 6354SOL    HW120959   0.452  13.076   4.229
 6354SOL    HW220960   0.402  13.158   4.346
 6355SOL     OW20961   1.600   4.032   1.409
 6355SOL    HW120962   1.524   3.974   1.406
 6355SOL    HW220963   1.664   3.992   1.351
 6356SOL     OW20964   1.789  11.180  13.958
 6356SOL    HW120965   1.859  11.114  13.960
 6356SOL    HW220966   1.828  11.257  13.999
 6357SOL     OW20967  11.743   2.631   1.089
 6357SOL    HW120968  11.748   2.657   1.181
 6357SOL    HW220969  11.812   2.681   1.045
 6358SOL     OW20970  12.298   0.880   9.559
 6358SOL    HW120971  12.256   0.963   9.581
 6358SOL    HW220972  12.323   0.889   9.467
 6359SOL     OW20973   6.233   2.053   6.283
 6359SOL    HW120974   6.221   2.030   6.191
 6359SOL    HW220975   6.155   2.104   6.305
 6360SOL     OW20976   9.477  10.642   4.864
 6360SOL    HW120977   9.537  10.581   4.822
 6360SOL    HW220978   9.390  10.615   4.834
 6361SOL     OW20979  12.890  10.048   4.846
 6361SOL    HW120980  12.822  10.036   4.780
 6361SOL    HW220981  12.911   9.959   4.875
 6362SOL     OW20982  10.244  14.463   9.608
 6362SOL    HW120983  10.264  14.532   9.672
 6362SOL    HW220984  10.287  14.493   9.527
 6363SOL     OW20985   9.135   0.312  10.547
 6363SOL    HW120986   9.155   0.287  10.637
 6363SOL    HW220987   9.192   0.257  10.494
 6364SOL     OW20988  14.845   0.766  11.488
 6364SOL    HW120989  14.780   0.779  11.419
 6364SOL    HW220990  14.823   0.681  11.526
 6365SOL     OW20991   0.174   4.104   4.287
 6365SOL    HW120992   0.097   4.143   4.328
 6365SOL    HW220993   0.140   4.031   4.235
 6366SOL     OW20994  12.311   2.457  13.193
 6366SOL    HW120995  12.338   2.549  13.191
 6366SOL    HW220996  12.383   2.412  13.236
 6367SOL     OW20997   9.787   2.291   4.067
 6367SOL    HW120998   9.768   2.334   4.150
 6367SOL    HW220999   9.748   2.205   4.075
 6368SOL     OW21000  12.538   9.334  11.585
 6368SOL    HW121001  12.581   9.389  11.520
 6368SOL    HW221002  12.451   9.318  11.548
 6369SOL     OW21003  10.494   4.177   8.631
 6369SOL    HW121004  10.514   4.101   8.685
 6369SOL    HW221005  10.406   4.204   8.659
 6370SOL     OW21006  12.388  10.844   3.392
 6370SOL    HW121007  12.359  10.900   3.464
 6370SOL    HW221008  12.374  10.898   3.314
 6371SOL     OW21009   9.814  12.567   2.836
 6371SOL    HW121010   9.777  12.496   2.784
 6371SOL    HW221011   9.829  12.638   2.772
 6372SOL     OW21012   9.161  14.502  11.727
 6372SOL    HW121013   9.157  14.525  11.634
 6372SOL    HW221014   9.092  14.554  11.768
 6373SOL     OW21015  14.564  14.261  13.586
 6373SOL    HW121016  14.626  14.284  13.655
 6373SOL    HW221017  14.568  14.166  13.581
 6374SOL     OW21018   9.053  10.678  10.709
 6374SOL    HW121019   9.017  10.649  10.626
 6374SOL    HW221020   9.139  10.714  10.687
 6375SOL     OW21021   7.603   4.172   0.994
 6375SOL    HW121022   7.670   4.208   0.936
 6375SOL    HW221023   7.641   4.177   1.081
 6376SOL     OW21024   1.750   1.482  13.730
 6376SOL    HW121025   1.842   1.507  13.720
 6376SOL    HW221026   1.748   1.429  13.809
 6377SOL     OW21027  13.554   7.833  14.681
 6377SOL    HW121028  13.516   7.916  14.710
 6377SOL    HW221029  13.544   7.833  14.586
 6378SOL     OW21030   9.183  11.530  12.393
 6378SOL    HW121031   9.219  11.502  12.309
 6378SOL    HW221032   9.090  11.508  12.388
 6379SOL     OW21033  14.510  10.969   5.415
 6379SOL    HW121034  14.580  10.903   5.410
 6379SOL    HW221035  14.466  10.951   5.498
 6380SOL     OW21036  10.280   3.568  14.010
 6380SOL    HW121037  10.291   3.483  14.052
 6380SOL    HW221038  10.187   3.573  13.990
 6381SOL     OW21039   4.469   6.270  12.779
 6381SOL    HW121040   4.506   6.288  12.693
 6381SOL    HW221041   4.394   6.213  12.762
 6382SOL     OW21042  10.320  13.380  13.720
 6382SOL    HW121043  10.402  13.341  13.749
 6382SOL    HW221044  10.310  13.352  13.629
 6383SOL     OW21045  14.603   1.970   2.064
 6383SOL    HW121046  14.539   1.914   2.108
 6383SOL    HW221047  14.557   2.052   2.049
 6384SOL     OW21048   8.567  11.984   0.508
 6384SOL    HW121049   8.540  11.975   0.416
 6384SOL    HW221050   8.659  12.009   0.503
 6385SOL     OW21051   3.242  10.619   1.572
 6385SOL    HW121052   3.283  10.698   1.538
 6385SOL    HW221053   3.176  10.596   1.507
 6386SOL     OW21054   2.730   7.535  11.531
 6386SOL    HW121055   2.669   7.577  11.469
 6386SOL    HW221056   2.814   7.578  11.513
 6387SOL     OW21057   5.674   2.010   1.301
 6387SOL    HW121058   5.735   2.061   1.247
 6387SOL    HW221059   5.620   2.077   1.344
 6388SOL     OW21060   4.144  10.322   6.168
 6388SOL    HW121061   4.205  10.255   6.135
 6388SOL    HW221062   4.166  10.330   6.261
 6389SOL     OW21063   9.813  10.131   8.732
 6389SOL    HW121064   9.879  10.074   8.771
 6389SOL    HW221065   9.845  10.148   8.643
 6390SOL     OW21066   7.795   3.412  11.451
 6390SOL    HW121067   7.880   3.370  11.460
 6390SOL    HW221068   7.740   3.370  11.518
 6391SOL     OW21069   9.656   3.151   8.690
 6391SOL    HW121070   9.606   3.230   8.713
 6391SOL    HW221071   9.738   3.159   8.739
 6392SOL     OW21072  12.237  12.504  10.886
 6392SOL    HW121073  12.261  12.418  10.851
 6392SOL    HW221074  12.209  12.486  10.975
 6393SOL     OW21075   0.229  11.158   9.623
 6393SOL    HW121076   0.300  11.174   9.561
 6393SOL    HW221077   0.269  11.172   9.709
 6394SOL     OW21078  12.937   6.994   5.478
 6394SOL    HW121079  13.001   7.065   5.467
 6394SOL    HW221080  12.978   6.918   5.438
 6395SOL     OW21081  14.738  13.729   6.946
 6395SOL    HW121082  14.690  13.677   6.882
 6395SOL    HW221083  14.671  13.764   7.004
 6396SOL     OW21084   6.534   6.295   4.359
 6396SOL    HW121085   6.536   6.212   4.407
 6396SOL    HW221086   6.443   6.324   4.365
 6397SOL     OW21087   3.399   0.498   0.100
 6397SOL    HW121088   3.437   0.553   0.032
 6397SOL    HW221089   3.344   0.558   0.151
 6398SOL     OW21090   8.596   9.929  13.756
 6398SOL    HW121091   8.606   9.842  13.794
 6398SOL    HW221092   8.539   9.916  13.681
 6399SOL     OW21093   2.840   1.355  14.441
 6399SOL    HW121094   2.814   1.341  14.531
 6399SOL    HW221095   2.893   1.278  14.419
 6400SOL     OW21096  10.816   7.941   2.094
 6400SOL    HW121097  10.891   7.985   2.134
 6400SOL    HW221098  10.765   7.908   2.168
 6401SOL     OW21099   7.694   4.943  12.183
 6401SOL    HW121100   7.605   4.978  12.183
 6401SOL    HW221101   7.688   4.862  12.234
 6402SOL     OW21102   6.032  14.461   3.366
 6402SOL    HW121103   5.971  14.424   3.430
 6402SOL    HW221104   6.078  14.529   3.415
 6403SOL     OW21105   4.291  12.347   8.124
 6403SOL    HW121106   4.248  12.309   8.047
 6403SOL    HW221107   4.269  12.440   8.120
 6404SOL     OW21108   0.324   9.696   4.226
 6404SOL    HW121109   0.395   9.678   4.287
 6404SOL    HW221110   0.318   9.791   4.223
 6405SOL     OW21111  14.336  14.211  14.016
 6405SOL    HW121112  14.411  14.234  14.071
 6405SOL    HW221113  14.321  14.289  13.962
 6406SOL     OW21114   5.084   5.903   7.520
 6406SOL    HW121115   5.146   5.973   7.495
 6406SOL    HW221116   4.998   5.941   7.503
 6407SOL     OW21117   2.997   0.327   8.736
 6407SOL    HW121118   2.984   0.254   8.676
 6407SOL    HW221119   3.053   0.291   8.805
 6408SOL     OW21120  11.015   8.970  12.387
 6408SOL    HW121121  10.924   8.959  12.412
 6408SOL    HW221122  11.051   9.029  12.453
 6409SOL     OW21123   0.609   8.151   2.184
 6409SOL    HW121124   0.699   8.120   2.181
 6409SOL    HW221125   0.603   8.198   2.267
 6410SOL     OW21126   4.830  13.953  11.052
 6410SOL    HW121127   4.907  13.897  11.059
 6410SOL    HW221128   4.768  13.917  11.115
 6411SOL     OW21129   2.089   9.830  12.834
 6411SOL    HW121130   2.032   9.753  12.841
 6411SOL    HW221131   2.124   9.827  12.745
 6412SOL     OW21132   9.215   9.070   9.475
 6412SOL    HW121133   9.147   9.072   9.542
 6412SOL    HW221134   9.200   8.987   9.429
 6413SOL     OW21135   0.465   9.629  11.005
 6413SOL    HW121136   0.454   9.649  10.912
 6413SOL    HW221137   0.527   9.555  11.007
 6414SOL     OW21138   6.459  10.811   9.204
 6414SOL    HW121139   6.443  10.826   9.298
 6414SOL    HW221140   6.545  10.850   9.188
 6415SOL     OW21141   7.071   2.439  12.825
 6415SOL    HW121142   7.156   2.449  12.782
 6415SOL    HW221143   7.088   2.380  12.899
 6416SOL     OW21144   6.819   5.569  12.287
 6416SOL    HW121145   6.871   5.648  12.269
 6416SOL    HW221146   6.804   5.531  12.200
 6417SOL     OW21147   3.532   1.514  14.006
 6417SOL    HW121148   3.460   1.477  13.955
 6417SOL    HW221149   3.504   1.505  14.097
 6418SOL     OW21150   9.810   9.867   5.224
 6418SOL    HW121151   9.806   9.772   5.236
 6418SOL    HW221152   9.734   9.900   5.273
 6419SOL     OW21153  13.280  10.502   0.527
 6419SOL    HW121154  13.242  10.429   0.576
 6419SOL    HW221155  13.237  10.499   0.441
 6420SOL     OW21156  10.251  11.006   5.579
 6420SOL    HW121157  10.221  11.096   5.570
 6420SOL    HW221158  10.282  10.999   5.669
 6421SOL     OW21159  12.948  11.522  13.731
 6421SOL    HW121160  12.901  11.593  13.687
 6421SOL    HW221161  13.008  11.566  13.792
 6422SOL     OW21162   3.586  12.238   7.223
 6422SOL    HW121163   3.492  12.225   7.235
 6422SOL    HW221164   3.612  12.293   7.297
 6423SOL     OW21165  10.003   5.973  12.600
 6423SOL    HW121166  10.086   5.927  12.614
 6423SOL    HW221167   9.989   5.968  12.506
 6424SOL     OW21168   5.829   3.796   0.191
 6424SOL    HW121169   5.815   3.711   0.150
 6424SOL    HW221170   5.866   3.851   0.122
 6425SOL     OW21171   9.679   9.427   3.029
 6425SOL    HW121172   9.600   9.418   2.975
 6425SOL    HW221173   9.751   9.432   2.966
 6426SOL     OW21174   0.381  12.827   0.557
 6426SOL    HW121175   0.405  12.760   0.621
 6426SOL    HW221176   0.397  12.910   0.602
 6427SOL     OW21177   3.588  10.826   8.094
 6427SOL    HW121178   3.525  10.848   8.162
 6427SOL    HW221179   3.671  10.862   8.125
 6428SOL     OW21180  10.878   6.033  11.456
 6428SOL    HW121181  10.967   6.066  11.468
 6428SOL    HW221182  10.850   6.068  11.371
 6429SOL     OW21183  13.802   8.345  14.562
 6429SOL    HW121184  13.712   8.376  14.550
 6429SOL    HW221185  13.795   8.250  14.560
 6430SOL     OW21186   0.816   7.240  12.385
 6430SOL    HW121187   0.811   7.230  12.480
 6430SOL    HW221188   0.725   7.253  12.358
 6431SOL     OW21189  13.217   4.117   5.210
 6431SOL    HW121190  13.172   4.090   5.291
 6431SOL    HW221191  13.147   4.153   5.156
 6432SOL     OW21192  14.042  10.317   1.521
 6432SOL    HW121193  14.076  10.273   1.444
 6432SOL    HW221194  14.029  10.408   1.494
 6433SOL     OW21195   5.810   9.854   1.569
 6433SOL    HW121196   5.755   9.875   1.645
 6433SOL    HW221197   5.825   9.938   1.526
 6434SOL     OW21198   6.802  11.940   8.761
 6434SOL    HW121199   6.797  11.852   8.799
 6434SOL    HW221200   6.848  11.992   8.827
 6435SOL     OW21201   6.156  13.065   7.493
 6435SOL    HW121202   6.131  13.157   7.499
 6435SOL    HW221203   6.248  13.067   7.467
 6436SOL     OW21204   7.115   1.212   3.736
 6436SOL    HW121205   7.088   1.137   3.788
 6436SOL    HW221206   7.048   1.219   3.668
 6437SOL     OW21207   6.900   3.614   5.782
 6437SOL    HW121208   6.913   3.545   5.847
 6437SOL    HW221209   6.988   3.636   5.753
 6438SOL     OW21210   1.630  14.756  14.014
 6438SOL    HW121211   1.596  14.726  13.929
 6438SOL    HW221212   1.698  14.819  13.991
 6439SOL     OW21213  10.468   9.422  11.906
 6439SOL    HW121214  10.454   9.374  11.825
 6439SOL    HW221215  10.548   9.473  11.891
 6440SOL     OW21216   1.046   6.074   4.467
 6440SOL    HW121217   1.125   6.121   4.492
 6440SOL    HW221218   0.989   6.079   4.544
 6441SOL     OW21219   7.454   8.916  12.223
 6441SOL    HW121220   7.375   8.970  12.214
 6441SOL    HW221221   7.507   8.963  12.288
 6442SOL     OW21222  13.558  10.000  14.233
 6442SOL    HW121223  13.545  10.040  14.147
 6442SOL    HW221224  13.605   9.919  14.215
 6443SOL     OW21225   9.482   7.722   0.620
 6443SOL    HW121226   9.483   7.743   0.714
 6443SOL    HW221227   9.406   7.769   0.586
 6444SOL     OW21228   5.416   6.223   9.715
 6444SOL    HW121229   5.373   6.249   9.633
 6444SOL    HW221230   5.410   6.300   9.771
 6445SOL     OW21231  13.519   2.561  11.959
 6445SOL    HW121232  13.583   2.490  11.949
 6445SOL    HW221233  13.470   2.561  11.877
 6446SOL     OW21234   6.093   9.887   3.528
 6446SOL    HW121235   6.067   9.814   3.584
 6446SOL    HW221236   6.095   9.963   3.587
 6447SOL     OW21237   2.525  11.142   5.587
 6447SOL    HW121238   2.600  11.199   5.603
 6447SOL    HW221239   2.561  11.054   5.583
 6448SOL     OW21240  14.533   0.734   9.032
 6448SOL    HW121241  14.561   0.703   9.118
 6448SOL    HW221242  14.612   0.732   8.978
 6449SOL     OW21243  13.975   9.378   3.268
 6449SOL    HW121244  13.996   9.344   3.180
 6449SOL    HW221245  14.055   9.423   3.295
 6450SOL     OW21246  14.733   6.770   7.619
 6450SOL    HW121247  14.793   6.721   7.563
 6450SOL    HW221248  14.674   6.815   7.559
 6451SOL     OW21249  11.458  10.054   4.017
 6451SOL    HW121250  11.383  10.019   3.969
 6451SOL    HW221251  11.420  10.099   4.092
 6452SOL     OW21252   3.810   0.313   6.573
 6452SOL    HW121253   3.750   0.263   6.517
 6452SOL    HW221254   3.880   0.342   6.513
 6453SOL     OW21255   3.293  13.837   5.917
 6453SOL    HW121256   3.374  13.839   5.866
 6453SOL    HW221257   3.226  13.871   5.858
 6454SOL     OW21258  14.190   3.412  12.678
 6454SOL    HW121259  14.121   3.412  12.745
 6454SOL    HW221260  14.159   3.474  12.612
 6455SOL     OW21261  12.402   2.735   2.312
 6455SOL    HW121262  12.469   2.769   2.253
 6455SOL    HW221263  12.396   2.642   2.290
 6456SOL     OW21264  12.517   6.188  11.929
 6456SOL    HW121265  12.440   6.232  11.964
 6456SOL    HW221266  12.488   6.153  11.844
 6457SOL     OW21267   3.060  13.830  13.520
 6457SOL    HW121268   3.092  13.750  13.560
 6457SOL    HW221269   3.052  13.809  13.427
 6458SOL     OW21270   0.107   9.966   5.011
 6458SOL    HW121271   0.041   9.902   4.984
 6458SOL    HW221272   0.065  10.051   5.000
 6459SOL     OW21273   6.566   6.718   1.429
 6459SOL    HW121274   6.629   6.788   1.409
 6459SOL    HW221275   6.585   6.649   1.366
 6460SOL     OW21276   8.280  12.443   3.972
 6460SOL    HW121277   8.336  12.444   4.050
 6460SOL    HW221278   8.203  12.394   3.999
 6461SOL     OW21279   5.655   2.350   4.187
 6461SOL    HW121280   5.585   2.410   4.160
 6461SOL    HW221281   5.711   2.403   4.244
 6462SOL     OW21282   9.226  12.967  14.163
 6462SOL    HW121283   9.273  12.962  14.246
 6462SOL    HW221284   9.253  13.051  14.124
 6463SOL     OW21285   0.408   9.291   3.705
 6463SOL    HW121286   0.433   9.199   3.695
 6463SOL    HW221287   0.325   9.288   3.752
 6464SOL     OW21288   1.326   7.076  11.357
 6464SOL    HW121289   1.287   7.011  11.415
 6464SOL    HW221290   1.370   7.138  11.416
 6465SOL     OW21291   9.855   8.802  12.600
 6465SOL    HW121292   9.850   8.852  12.518
 6465SOL    HW221293   9.775   8.749  12.601
 6466SOL     OW21294   0.080   1.804  10.352
 6466SOL    HW121295   0.112   1.823  10.264
 6466SOL    HW221296  14.870   1.781  10.339
 6467SOL     OW21297  14.319  10.388   3.457
 6467SOL    HW121298  14.264  10.321   3.497
 6467SOL    HW221299  14.311  10.464   3.515
 6468SOL     OW21300  10.957   1.271  12.614
 6468SOL    HW121301  10.989   1.199  12.559
 6468SOL    HW221302  10.863   1.256  12.621
 6469SOL     OW21303   7.857   0.305   3.189
 6469SOL    HW121304   7.800   0.328   3.116
 6469SOL    HW221305   7.943   0.294   3.148
 6470SOL     OW21306  11.160  10.238   0.041
 6470SOL    HW121307  11.083  10.188   0.069
 6470SOL    HW221308  11.195  10.275   0.122
 6471SOL     OW21309  14.221   0.694   9.998
 6471SOL    HW121310  14.275   0.772  10.006
 6471SOL    HW221311  14.230   0.668   9.907
 6472SOL     OW21312   0.892   2.867   2.557
 6472SOL    HW121313   0.930   2.798   2.503
 6472SOL    HW221314   0.903   2.947   2.506
 6473SOL     OW21315  13.984   1.150   8.838
 6473SOL    HW121316  13.964   1.240   8.811
 6473SOL    HW221317  14.018   1.158   8.927
 6474SOL     OW21318  10.372   4.633   9.277
 6474SOL    HW121319  10.363   4.584   9.359
 6474SOL    HW221320  10.282   4.642   9.245
 6475SOL     OW21321   7.752  14.805  10.508
 6475SOL    HW121322   7.658  14.794  10.517
 6475SOL    HW221323   7.775  14.874  10.569
 6476SOL     OW21324   4.856   4.388   6.765
 6476SOL    HW121325   4.770   4.367   6.800
 6476SOL    HW221326   4.838   4.441   6.688
 6477SOL     OW21327  11.211   5.393   0.875
 6477SOL    HW121328  11.249   5.351   0.798
 6477SOL    HW221329  11.167   5.471   0.840
 6478SOL     OW21330   2.015   5.803  11.338
 6478SOL    HW121331   2.074   5.847  11.400
 6478SOL    HW221332   2.047   5.713  11.334
 6479SOL     OW21333   7.486   4.793   0.404
 6479SOL    HW121334   7.554   4.852   0.372
 6479SOL    HW221335   7.410   4.811   0.349
 6480SOL     OW21336   6.711   1.392   0.569
 6480SOL    HW121337   6.714   1.365   0.661
 6480SOL    HW221338   6.628   1.439   0.561
 6481SOL     OW21339   4.064   1.552   1.641
 6481SOL    HW121340   4.075   1.644   1.664
 6481SOL    HW221341   3.971   1.544   1.619
 6482SOL     OW21342  10.150   7.921   3.452
 6482SOL    HW121343  10.075   7.863   3.463
 6482SOL    HW221344  10.226   7.864   3.453
 6483SOL     OW21345   0.111   9.832   5.909
 6483SOL    HW121346   0.096   9.738   5.915
 6483SOL    HW221347   0.157   9.854   5.989
 6484SOL     OW21348  14.207  12.747   9.493
 6484SOL    HW121349  14.216  12.842   9.500
 6484SOL    HW221350  14.284  12.718   9.445
 6485SOL     OW21351   4.300   4.850   3.673
 6485SOL    HW121352   4.350   4.872   3.595
 6485SOL    HW221353   4.209   4.869   3.649
 6486SOL     OW21354  12.654  11.390   8.390
 6486SOL    HW121355  12.666  11.329   8.463
 6486SOL    HW221356  12.716  11.461   8.409
 6487SOL     OW21357  10.991  12.707   2.168
 6487SOL    HW121358  11.037  12.780   2.127
 6487SOL    HW221359  10.990  12.639   2.100
 6488SOL     OW21360  13.151  10.624   9.864
 6488SOL    HW121361  13.064  10.648   9.831
 6488SOL    HW221362  13.176  10.698   9.919
 6489SOL     OW21363   9.197   1.920  10.993
 6489SOL    HW121364   9.260   1.969  11.045
 6489SOL    HW221365   9.228   1.931  10.903
 6490SOL     OW21366  10.789   4.659  14.171
 6490SOL    HW121367  10.732   4.726  14.133
 6490SOL    HW221368  10.741   4.628  14.247
 6491SOL     OW21369  13.262  13.694   1.462
 6491SOL    HW121370  13.307  13.761   1.411
 6491SOL    HW221371  13.169  13.711   1.449
 6492SOL     OW21372  11.840   1.008   0.301
 6492SOL    HW121373  11.774   0.966   0.356
 6492SOL    HW221374  11.903   1.045   0.364
 6493SOL     OW21375   8.465   4.953   3.259
 6493SOL    HW121376   8.396   4.986   3.317
 6493SOL    HW221377   8.478   5.022   3.195
 6494SOL     OW21378  13.665  11.402  13.567
 6494SOL    HW121379  13.754  11.438  13.568
 6494SOL    HW221380  13.617  11.460  13.508
 6495SOL     OW21381  13.121  12.829  14.342
 6495SOL    HW121382  13.206  12.851  14.382
 6495SOL    HW221383  13.143  12.766  14.274
 6496SOL     OW21384   1.047   7.389   8.452
 6496SOL    HW121385   0.997   7.386   8.371
 6496SOL    HW221386   1.114   7.322   8.442
 6497SOL     OW21387   5.238   2.986  10.664
 6497SOL    HW121388   5.316   3.038  10.679
 6497SOL    HW221389   5.270   2.896  10.658
 6498SOL     OW21390  10.529  14.315  13.066
 6498SOL    HW121391  10.489  14.246  13.013
 6498SOL    HW221392  10.586  14.269  13.128
 6499SOL     OW21393  10.696   2.108   0.995
 6499SOL    HW121394  10.730   2.020   0.978
 6499SOL    HW221395  10.702   2.152   0.910
 6500SOL     OW21396   0.360  12.697  11.581
 6500SOL    HW121397   0.449  12.730  11.568
 6500SOL    HW221398   0.364  12.606  11.552
 6501SOL     OW21399   8.395  14.687   2.570
 6501SOL    HW121400   8.366  14.625   2.637
 6501SOL    HW221401   8.334  14.672   2.497
 6502SOL     OW21402   2.333  13.057   5.720
 6502SOL    HW121403   2.405  13.002   5.752
 6502SOL    HW221404   2.362  13.088   5.634
 6503SOL     OW21405   7.102   2.518   5.137
 6503SOL    HW121406   7.086   2.540   5.045
 6503SOL    HW221407   7.073   2.595   5.186
 6504SOL     OW21408  12.547   3.348  12.675
 6504SOL    HW121409  12.477   3.397  12.632
 6504SOL    HW221410  12.556   3.268  12.623
 6505SOL     OW21411   0.359   5.385  14.285
 6505SOL    HW121412   0.272   5.383  14.323
 6505SOL    HW221413   0.414   5.425  14.353
 6506SOL     OW21414   0.156   6.598  14.742
 6506SOL    HW121415   0.085   6.656  14.767
 6506SOL    HW221416   0.165   6.610  14.648
 6507SOL     OW21417   7.183   2.564  13.251
 6507SOL    HW121418   7.247   2.624  13.212
 6507SOL    HW221419   7.103   2.617  13.260
 6508SOL     OW21420   6.465   2.334   3.842
 6508SOL    HW121421   6.553   2.351   3.875
 6508SOL    HW221422   6.440   2.250   3.881
 6509SOL     OW21423  14.533  10.702   5.738
 6509SOL    HW121424  14.441  10.691   5.711
 6509SOL    HW221425  14.576  10.622   5.708
 6510SOL     OW21426   2.226   9.206   2.373
 6510SOL    HW121427   2.190   9.204   2.462
 6510SOL    HW221428   2.229   9.299   2.350
 6511SOL     OW21429  14.848   1.642   0.146
 6511SOL    HW121430   0.005   1.707   0.088
 6511SOL    HW221431  14.755   1.642   0.122
 6512SOL     OW21432  10.850  14.174   8.374
 6512SOL    HW121433  10.832  14.267   8.389
 6512SOL    HW221434  10.945  14.167   8.384
 6513SOL     OW21435   6.307   4.407   2.482
 6513SOL    HW121436   6.349   4.422   2.567
 6513SOL    HW221437   6.242   4.476   2.475
 6514SOL     OW21438   2.831   2.761  10.092
 6514SOL    HW121439   2.752   2.711  10.074
 6514SOL    HW221440   2.883   2.753  10.012
 6515SOL     OW21441   4.911   7.723  14.413
 6515SOL    HW121442   4.865   7.693  14.335
 6515SOL    HW221443   4.985   7.775  14.380
 6516SOL     OW21444  14.432  10.732  11.233
 6516SOL    HW121445  14.523  10.713  11.207
 6516SOL    HW221446  14.380  10.696  11.161
 6517SOL     OW21447  10.515   1.233   2.679
 6517SOL    HW121448  10.532   1.234   2.773
 6517SOL    HW221449  10.592   1.190   2.641
 6518SOL     OW21450   1.387   5.669  10.169
 6518SOL    HW121451   1.408   5.634  10.082
 6518SOL    HW221452   1.350   5.594  10.216
 6519SOL     OW21453   7.876  10.678   2.092
 6519SOL    HW121454   7.861  10.699   1.999
 6519SOL    HW221455   7.959  10.719   2.113
 6520SOL     OW21456   1.736   0.403   4.195
 6520SOL    HW121457   1.733   0.494   4.164
 6520SOL    HW221458   1.679   0.403   4.272
 6521SOL     OW21459   8.466   0.405  14.245
 6521SOL    HW121460   8.560   0.398  14.231
 6521SOL    HW221461   8.455   0.407  14.340
 6522SOL     OW21462   4.956   1.944   4.868
 6522SOL    HW121463   4.953   2.018   4.807
 6522SOL    HW221464   5.026   1.967   4.930
 6523SOL     OW21465   1.196   5.558   3.516
 6523SOL    HW121466   1.118   5.587   3.468
 6523SOL    HW221467   1.224   5.635   3.565
 6524SOL     OW21468   7.726   3.559   1.826
 6524SOL    HW121469   7.791   3.504   1.870
 6524SOL    HW221470   7.700   3.623   1.892
 6525SOL     OW21471   6.585  13.166  11.459
 6525SOL    HW121472   6.528  13.234  11.423
 6525SOL    HW221473   6.545  13.084  11.429
 6526SOL     OW21474  14.824   1.634  11.375
 6526SOL    HW121475   0.008   1.696  11.343
 6526SOL    HW221476  14.811   1.658  11.467
 6527SOL     OW21477   7.554   9.226   3.374
 6527SOL    HW121478   7.496   9.302   3.370
 6527SOL    HW221479   7.580   9.220   3.466
 6528SOL     OW21480   1.388  12.548   8.206
 6528SOL    HW121481   1.306  12.597   8.213
 6528SOL    HW221482   1.363  12.465   8.166
 6529SOL     OW21483   6.646   5.647   5.892
 6529SOL    HW121484   6.738   5.663   5.868
 6529SOL    HW221485   6.637   5.683   5.980
 6530SOL     OW21486   6.450   3.887  11.000
 6530SOL    HW121487   6.509   3.823  10.959
 6530SOL    HW221488   6.416   3.939  10.928
 6531SOL     OW21489   6.678   6.140   9.203
 6531SOL    HW121490   6.596   6.110   9.243
 6531SOL    HW221491   6.737   6.154   9.277
 6532SOL     OW21492  14.307   3.441   6.335
 6532SOL    HW121493  14.260   3.525   6.337
 6532SOL    HW221494  14.372   3.451   6.266
 6533SOL     OW21495   1.019   8.005   8.078
 6533SOL    HW121496   1.109   7.990   8.106
 6533SOL    HW221497   0.967   7.997   8.158
 6534SOL     OW21498  10.288   8.988   6.473
 6534SOL    HW121499  10.206   8.960   6.514
 6534SOL    HW221500  10.271   9.077   6.443
 6535SOL     OW21501   1.211  13.539   0.965
 6535SOL    HW121502   1.231  13.446   0.949
 6535SOL    HW221503   1.195  13.575   0.878
 6536SOL     OW21504  10.130   5.745   0.584
 6536SOL    HW121505  10.105   5.804   0.513
 6536SOL    HW221506  10.193   5.795   0.636
 6537SOL     OW21507  11.319  12.517   9.568
 6537SOL    HW121508  11.318  12.585   9.501
 6537SOL    HW221509  11.238  12.532   9.619
 6538SOL     OW21510   7.228   9.626   8.075
 6538SOL    HW121511   7.226   9.537   8.111
 6538SOL    HW221512   7.317   9.656   8.090
 6539SOL     OW21513   4.531   7.702   3.396
 6539SOL    HW121514   4.466   7.679   3.330
 6539SOL    HW221515   4.540   7.797   3.388
 6540SOL     OW21516   5.120   2.483   6.091
 6540SOL    HW121517   5.139   2.432   6.170
 6540SOL    HW221518   5.028   2.464   6.072
 6541SOL     OW21519   3.849   3.561   8.472
 6541SOL    HW121520   3.942   3.562   8.447
 6541SOL    HW221521   3.842   3.627   8.541
 6542SOL     OW21522  13.970  12.837  13.127
 6542SOL    HW121523  14.034  12.771  13.101
 6542SOL    HW221524  14.022  12.915  13.148
 6543SOL     OW21525  10.894  11.136   0.978
 6543SOL    HW121526  10.828  11.084   0.932
 6543SOL    HW221527  10.854  11.156   1.063
 6544SOL     OW21528   9.743  13.321   1.962
 6544SOL    HW121529   9.671  13.275   1.920
 6544SOL    HW221530   9.711  13.343   2.049
 6545SOL     OW21531   7.632   7.358   5.065
 6545SOL    HW121532   7.616   7.394   5.152
 6545SOL    HW221533   7.646   7.435   5.010
 6546SOL     OW21534   7.453   0.108   1.193
 6546SOL    HW121535   7.454   0.115   1.288
 6546SOL    HW221536   7.541   0.079   1.170
 6547SOL     OW21537  10.756   4.117   9.143
 6547SOL    HW121538  10.697   4.042   9.158
 6547SOL    HW221539  10.701   4.182   9.099
 6548SOL     OW21540  10.329  11.438   7.364
 6548SOL    HW121541  10.332  11.468   7.273
 6548SOL    HW221542  10.404  11.379   7.372
 6549SOL     OW21543  12.410   6.638   6.035
 6549SOL    HW121544  12.436   6.719   5.992
 6549SOL    HW221545  12.493   6.592   6.053
 6550SOL     OW21546  14.075   7.824  12.492
 6550SOL    HW121547  14.015   7.764  12.447
 6550SOL    HW221548  14.038   7.835  12.579
 6551SOL     OW21549   9.414   7.110   8.998
 6551SOL    HW121550   9.347   7.060   8.952
 6551SOL    HW221551   9.494   7.096   8.947
 6552SOL     OW21552   0.480  10.714   8.565
 6552SOL    HW121553   0.401  10.765   8.581
 6552SOL    HW221554   0.461  10.628   8.602
 6553SOL     OW21555   9.990  10.855   0.902
 6553SOL    HW121556  10.022  10.944   0.887
 6553SOL    HW221557   9.970  10.852   0.995
 6554SOL     OW21558   2.581  10.451   3.685
 6554SOL    HW121559   2.576  10.384   3.754
 6554SOL    HW221560   2.667  10.438   3.645
 6555SOL     OW21561   7.696   6.253   6.821
 6555SOL    HW121562   7.740   6.269   6.737
 6555SOL    HW221563   7.660   6.338   6.845
 6556SOL     OW21564   7.225   3.048   3.215
 6556SOL    HW121565   7.259   3.129   3.253
 6556SOL    HW221566   7.129   3.056   3.223
 6557SOL     OW21567  13.097   0.238  14.262
 6557SOL    HW121568  13.131   0.318  14.303
 6557SOL    HW221569  13.054   0.191  14.334
 6558SOL     OW21570  13.073   0.951   8.097
 6558SOL    HW121571  13.089   1.021   8.160
 6558SOL    HW221572  13.110   0.873   8.137
 6559SOL     OW21573  10.612   9.168   0.810
 6559SOL    HW121574  10.654   9.154   0.726
 6559SOL    HW221575  10.613   9.082   0.852
 6560SOL     OW21576   9.229   7.246   5.667
 6560SOL    HW121577   9.183   7.195   5.733
 6560SOL    HW221578   9.276   7.313   5.716
 6561SOL     OW21579  12.133   1.185  14.531
 6561SOL    HW121580  12.179   1.149  14.455
 6561SOL    HW221581  12.134   1.115  14.596
 6562SOL     OW21582  12.757   1.071   0.907
 6562SOL    HW121583  12.815   1.094   0.835
 6562SOL    HW221584  12.793   1.117   0.983
 6563SOL     OW21585   2.463   6.107  10.801
 6563SOL    HW121586   2.382   6.069  10.767
 6563SOL    HW221587   2.466   6.195  10.763
 6564SOL     OW21588   5.970   6.761   8.599
 6564SOL    HW121589   5.876   6.760   8.613
 6564SOL    HW221590   5.997   6.851   8.619
 6565SOL     OW21591  10.236   8.244   1.874
 6565SOL    HW121592  10.258   8.152   1.865
 6565SOL    HW221593  10.145   8.250   1.844
 6566SOL     OW21594   2.740   5.817   1.505
 6566SOL    HW121595   2.661   5.770   1.531
 6566SOL    HW221596   2.810   5.775   1.554
 6567SOL     OW21597   4.942  12.506   3.694
 6567SOL    HW121598   5.007  12.547   3.637
 6567SOL    HW221599   4.954  12.549   3.779
 6568SOL     OW21600   2.412   2.805   9.412
 6568SOL    HW121601   2.341   2.772   9.466
 6568SOL    HW221602   2.433   2.891   9.448
 6569SOL     OW21603  14.467   3.535   2.962
 6569SOL    HW121604  14.379   3.515   2.993
 6569SOL    HW221605  14.467   3.630   2.951
 6570SOL     OW21606  13.472   8.551  12.536
 6570SOL    HW121607  13.489   8.599  12.455
 6570SOL    HW221608  13.387   8.583  12.566
 6571SOL     OW21609   4.965   9.896  12.164
 6571SOL    HW121610   4.924   9.877  12.248
 6571SOL    HW221611   5.020   9.973  12.181
 6572SOL     OW21612   2.479   3.484   8.486
 6572SOL    HW121613   2.571   3.457   8.489
 6572SOL    HW221614   2.458   3.492   8.393
 6573SOL     OW21615   6.707   8.922  10.130
 6573SOL    HW121616   6.776   8.931  10.063
 6573SOL    HW221617   6.751   8.885  10.206
 6574SOL     OW21618   5.390   6.001   7.460
 6574SOL    HW121619   5.476   5.979   7.496
 6574SOL    HW221620   5.379   5.943   7.385
 6575SOL     OW21621   5.046   8.400  12.261
 6575SOL    HW121622   5.043   8.417  12.166
 6575SOL    HW221623   5.140   8.395  12.280
 6576SOL     OW21624  13.766  11.694   5.084
 6576SOL    HW121625  13.709  11.618   5.074
 6576SOL    HW221626  13.721  11.750   5.148
 6577SOL     OW21627  11.834   8.461   6.711
 6577SOL    HW121628  11.883   8.386   6.745
 6577SOL    HW221629  11.785   8.426   6.637
 6578SOL     OW21630  10.991   6.260  10.556
 6578SOL    HW121631  10.960   6.242  10.468
 6578SOL    HW221632  10.922   6.314  10.595
 6579SOL     OW21633   2.904   2.699  11.115
 6579SOL    HW121634   2.943   2.719  11.200
 6579SOL    HW221635   2.854   2.777  11.093
 6580SOL     OW21636   6.129  11.327   9.929
 6580SOL    HW121637   6.104  11.295  10.016
 6580SOL    HW221638   6.215  11.289   9.913
 6581SOL     OW21639  11.850  12.533  11.944
 6581SOL    HW121640  11.770  12.559  11.899
 6581SOL    HW221641  11.823  12.462  12.002
 6582SOL     OW21642   5.727  14.436   9.109
 6582SOL    HW121643   5.711  14.530   9.119
 6582SOL    HW221644   5.820  14.426   9.132
 6583SOL     OW21645   5.997   1.048  12.297
 6583SOL    HW121646   5.972   1.083  12.211
 6583SOL    HW221647   5.974   1.118  12.358
 6584SOL     OW21648  10.004  11.695   2.178
 6584SOL    HW121649   9.980  11.605   2.160
 6584SOL    HW221650  10.048  11.725   2.099
 6585SOL     OW21651   7.651   3.719   0.270
 6585SOL    HW121652   7.736   3.702   0.312
 6585SOL    HW221653   7.624   3.804   0.306
 6586SOL     OW21654  12.905  11.885  11.883
 6586SOL    HW121655  12.948  11.880  11.969
 6586SOL    HW221656  12.945  11.815  11.832
 6587SOL     OW21657  13.705   8.347   9.866
 6587SOL    HW121658  13.685   8.283   9.934
 6587SOL    HW221659  13.636   8.413   9.873
 6588SOL     OW21660   6.099  10.636  13.328
 6588SOL    HW121661   6.050  10.669  13.252
 6588SOL    HW221662   6.170  10.699  13.340
 6589SOL     OW21663   8.023   5.065  10.249
 6589SOL    HW121664   8.026   5.032  10.159
 6589SOL    HW221665   8.021   4.986  10.303
 6590SOL     OW21666   8.485   8.541   1.540
 6590SOL    HW121667   8.496   8.557   1.634
 6590SOL    HW221668   8.407   8.591   1.516
 6591SOL     OW21669   3.131   7.025   9.303
 6591SOL    HW121670   3.156   6.942   9.261
 6591SOL    HW221671   3.192   7.033   9.377
 6592SOL     OW21672   8.015   2.286   1.634
 6592SOL    HW121673   8.070   2.363   1.651
 6592SOL    HW221674   8.075   2.223   1.592
 6593SOL     OW21675  10.774  14.301  14.252
 6593SOL    HW121676  10.784  14.218  14.299
 6593SOL    HW221677  10.736  14.275  14.167
 6594SOL     OW21678  11.254   9.865   6.656
 6594SOL    HW121679  11.273   9.784   6.702
 6594SOL    HW221680  11.319   9.927   6.689
 6595SOL     OW21681   5.434   4.939  11.430
 6595SOL    HW121682   5.395   4.958  11.344
 6595SOL    HW221683   5.364   4.957  11.492
 6596SOL     OW21684  12.255   0.478  11.482
 6596SOL    HW121685  12.335   0.526  11.504
 6596SOL    HW221686  12.194   0.545  11.452
 6597SOL     OW21687   3.240   4.296   2.928
 6597SOL    HW121688   3.297   4.220   2.938
 6597SOL    HW221689   3.151   4.262   2.936
 6598SOL     OW21690   8.337  10.195   0.620
 6598SOL    HW121691   8.298  10.151   0.695
 6598SOL    HW221692   8.283  10.168   0.545
 6599SOL     OW21693   6.995   2.669   9.399
 6599SOL    HW121694   7.081   2.695   9.431
 6599SOL    HW221695   6.946   2.751   9.391
 6600SOL     OW21696   2.620  13.638  11.345
 6600SOL    HW121697   2.563  13.704  11.306
 6600SOL    HW221698   2.605  13.559  11.292
 6601SOL     OW21699   1.396  13.333   5.792
 6601SOL    HW121700   1.391  13.310   5.699
 6601SOL    HW221701   1.310  13.372   5.811
 6602SOL     OW21702   7.143   5.116  13.220
 6602SOL    HW121703   7.201   5.190  13.199
 6602SOL    HW221704   7.055   5.147  13.198
 6603SOL     OW21705   1.677   6.562   4.030
 6603SOL    HW121706   1.762   6.520   4.042
 6603SOL    HW221707   1.614   6.491   4.037
 6604SOL     OW21708   8.689  13.754  11.951
 6604SOL    HW121709   8.765  13.742  11.893
 6604SOL    HW221710   8.711  13.832  12.002
 6605SOL     OW21711   5.579   5.055   1.312
 6605SOL    HW121712   5.670   5.031   1.331
 6605SOL    HW221713   5.570   5.143   1.348
 6606SOL     OW21714   0.609   2.905   5.427
 6606SOL    HW121715   0.635   2.995   5.443
 6606SOL    HW221716   0.684   2.852   5.454
 6607SOL     OW21717   0.822  14.064   4.015
 6607SOL    HW121718   0.904  14.061   3.966
 6607SOL    HW221719   0.838  14.126   4.086
 6608SOL     OW21720   0.225  14.608   3.917
 6608SOL    HW121721   0.214  14.683   3.975
 6608SOL    HW221722   0.138  14.595   3.878
 6609SOL     OW21723   4.768  13.038   0.740
 6609SOL    HW121724   4.837  13.018   0.678
 6609SOL    HW221725   4.687  13.019   0.693
 6610SOL     OW21726   5.888   2.150   3.838
 6610SOL    HW121727   5.887   2.241   3.866
 6610SOL    HW221728   5.981   2.128   3.828
 6611SOL     OW21729   0.964   8.741   6.314
 6611SOL    HW121730   0.869   8.740   6.328
 6611SOL    HW221731   0.977   8.688   6.235
 6612SOL     OW21732   0.018  13.319   6.222
 6612SOL    HW121733   0.111  13.344   6.225
 6612SOL    HW221734  14.874  13.316   6.314
 6613SOL     OW21735   2.150  13.186   7.514
 6613SOL    HW121736   2.196  13.118   7.465
 6613SOL    HW221737   2.207  13.263   7.507
 6614SOL     OW21738  12.401  14.531   7.731
 6614SOL    HW121739  12.358  14.462   7.782
 6614SOL    HW221740  12.374  14.513   7.640
 6615SOL     OW21741  13.141  14.098   0.326
 6615SOL    HW121742  13.120  14.173   0.270
 6615SOL    HW221743  13.177  14.137   0.406
 6616SOL     OW21744   0.159   6.306  14.083
 6616SOL    HW121745   0.094   6.264  14.027
 6616SOL    HW221746   0.242   6.265  14.060
 6617SOL     OW21747   2.256   9.393   8.187
 6617SOL    HW121748   2.232   9.424   8.100
 6617SOL    HW221749   2.276   9.472   8.236
 6618SOL     OW21750   7.890   5.718   0.825
 6618SOL    HW121751   7.876   5.756   0.739
 6618SOL    HW221752   7.885   5.623   0.810
 6619SOL     OW21753  14.756   6.964   3.323
 6619SOL    HW121754  14.778   6.958   3.230
 6619SOL    HW221755  14.775   7.054   3.347
 6620SOL     OW21756   0.554  14.284   7.769
 6620SOL    HW121757   0.643  14.310   7.745
 6620SOL    HW221758   0.511  14.366   7.794
 6621SOL     OW21759   3.844  14.338   6.097
 6621SOL    HW121760   3.826  14.423   6.059
 6621SOL    HW221761   3.781  14.328   6.168
 6622SOL     OW21762   6.527   3.453   6.461
 6622SOL    HW121763   6.598   3.392   6.441
 6622SOL    HW221764   6.570   3.526   6.506
 6623SOL     OW21765  11.780  12.302  12.106
 6623SOL    HW121766  11.726  12.243  12.159
 6623SOL    HW221767  11.841  12.245  12.060
 6624SOL     OW21768  10.214   0.088   4.105
 6624SOL    HW121769  10.158   0.018   4.138
 6624SOL    HW221770  10.287   0.092   4.165
 6625SOL     OW21771   8.606  12.477  11.889
 6625SOL    HW121772   8.701  12.469  11.893
 6625SOL    HW221773   8.590  12.571  11.878
 6626SOL     OW21774   8.282   0.234  10.253
 6626SOL    HW121775   8.215   0.299  10.271
 6626SOL    HW221776   8.310   0.204  10.340
 6627SOL     OW21777   3.157  12.371   3.582
 6627SOL    HW121778   3.136  12.280   3.565
 6627SOL    HW221779   3.106  12.420   3.518
 6628SOL     OW21780  13.429   4.995   6.334
 6628SOL    HW121781  13.358   4.948   6.378
 6628SOL    HW221782  13.507   4.976   6.385
 6629SOL     OW21783   7.291   9.261   5.505
 6629SOL    HW121784   7.290   9.203   5.428
 6629SOL    HW221785   7.311   9.347   5.469
 6630SOL     OW21786  12.705  13.818  11.514
 6630SOL    HW121787  12.741  13.902  11.484
 6630SOL    HW221788  12.619  13.841  11.551
 6631SOL     OW21789   0.929  13.114   1.934
 6631SOL    HW121790   1.007  13.071   1.968
 6631SOL    HW221791   0.860  13.049   1.941
 6632SOL     OW21792   3.451   1.205  13.263
 6632SOL    HW121793   3.433   1.270  13.196
 6632SOL    HW221794   3.366   1.167  13.284
 6633SOL     OW21795  10.747   1.732   3.650
 6633SOL    HW121796  10.735   1.642   3.681
 6633SOL    HW221797  10.704   1.734   3.564
 6634SOL     OW21798   5.334   9.262  12.354
 6634SOL    HW121799   5.414   9.209  12.362
 6634SOL    HW221800   5.286   9.246  12.435
 6635SOL     OW21801   8.196   8.233  10.441
 6635SOL    HW121802   8.163   8.292  10.508
 6635SOL    HW221803   8.120   8.214  10.386
 6636SOL     OW21804  13.975   2.530   9.551
 6636SOL    HW121805  13.956   2.449   9.503
 6636SOL    HW221806  13.985   2.596   9.483
 6637SOL     OW21807   5.738   5.899   6.232
 6637SOL    HW121808   5.647   5.876   6.218
 6637SOL    HW221809   5.735   5.990   6.264
 6638SOL     OW21810  12.221   5.813   4.347
 6638SOL    HW121811  12.205   5.722   4.376
 6638SOL    HW221812  12.134   5.847   4.327
 6639SOL     OW21813  13.689  11.063   3.995
 6639SOL    HW121814  13.635  11.098   3.924
 6639SOL    HW221815  13.632  11.000   4.038
 6640SOL     OW21816  13.927  13.303   2.645
 6640SOL    HW121817  13.871  13.227   2.662
 6640SOL    HW221818  13.888  13.373   2.697
 6641SOL     OW21819   2.334  14.596   6.168
 6641SOL    HW121820   2.409  14.538   6.160
 6641SOL    HW221821   2.264  14.540   6.201
 6642SOL     OW21822  10.478   5.852   4.306
 6642SOL    HW121823  10.521   5.926   4.349
 6642SOL    HW221824  10.395   5.843   4.352
 6643SOL     OW21825  11.095   4.686   7.586
 6643SOL    HW121826  11.136   4.758   7.634
 6643SOL    HW221827  11.152   4.610   7.603
 6644SOL     OW21828   7.857  14.363  14.713
 6644SOL    HW121829   7.877  14.446  14.755
 6644SOL    HW221830   7.926  14.352  14.647
 6645SOL     OW21831   2.206   2.982  12.694
 6645SOL    HW121832   2.145   2.959  12.764
 6645SOL    HW221833   2.193   3.076  12.681
 6646SOL     OW21834  11.325   9.733   8.284
 6646SOL    HW121835  11.315   9.787   8.363
 6646SOL    HW221836  11.355   9.648   8.317
 6647SOL     OW21837  13.803  10.529   7.197
 6647SOL    HW121838  13.856  10.574   7.131
 6647SOL    HW221839  13.781  10.445   7.157
 6648SOL     OW21840   5.210  12.883   2.053
 6648SOL    HW121841   5.296  12.881   2.094
 6648SOL    HW221842   5.206  12.967   2.009
 6649SOL     OW21843   9.139   1.549  13.501
 6649SOL    HW121844   9.208   1.492  13.536
 6649SOL    HW221845   9.105   1.594  13.578
 6650SOL     OW21846   0.751   5.085   4.366
 6650SOL    HW121847   0.843   5.088   4.395
 6650SOL    HW221848   0.724   5.177   4.362
 6651SOL     OW21849  14.659   5.338   1.282
 6651SOL    HW121850  14.627   5.427   1.265
 6651SOL    HW221851  14.674   5.301   1.195
 6652SOL     OW21852  11.016   3.017   6.944
 6652SOL    HW121853  11.054   3.075   6.878
 6652SOL    HW221854  11.017   3.068   7.025
 6653SOL     OW21855   4.512   6.185  12.132
 6653SOL    HW121856   4.488   6.097  12.162
 6653SOL    HW221857   4.437   6.214  12.081
 6654SOL     OW21858  13.615  14.326   2.627
 6654SOL    HW121859  13.566  14.250   2.597
 6654SOL    HW221860  13.702  14.292   2.649
 6655SOL     OW21861  12.707  14.188  10.443
 6655SOL    HW121862  12.727  14.280  10.428
 6655SOL    HW221863  12.616  14.188  10.473
 6656SOL     OW21864   1.459   8.151   6.776
 6656SOL    HW121865   1.387   8.201   6.814
 6656SOL    HW221866   1.509   8.120   6.851
 6657SOL     OW21867  13.811  13.594  13.225
 6657SOL    HW121868  13.828  13.622  13.135
 6657SOL    HW221869  13.834  13.501  13.226
 6658SOL     OW21870   4.122   9.879   0.789
 6658SOL    HW121871   4.070   9.858   0.711
 6658SOL    HW221872   4.213   9.875   0.759
 6659SOL     OW21873   7.342   4.909   7.169
 6659SOL    HW121874   7.391   4.855   7.107
 6659SOL    HW221875   7.340   4.996   7.128
 6660SOL     OW21876   9.420   6.965  14.640
 6660SOL    HW121877   9.428   6.969  14.545
 6660SOL    HW221878   9.331   6.931  14.655
 6661SOL     OW21879   9.825  14.689   4.180
 6661SOL    HW121880   9.781  14.773   4.177
 6661SOL    HW221881   9.762  14.630   4.220
 6662SOL     OW21882   8.823   8.110   6.359
 6662SOL    HW121883   8.913   8.133   6.384
 6662SOL    HW221884   8.776   8.108   6.442
 6663SOL     OW21885   5.574  12.123   0.780
 6663SOL    HW121886   5.661  12.149   0.752
 6663SOL    HW221887   5.556  12.178   0.856
 6664SOL     OW21888   0.654   1.320   3.959
 6664SOL    HW121889   0.658   1.374   3.880
 6664SOL    HW221890   0.717   1.250   3.943
 6665SOL     OW21891  12.010   7.063  11.445
 6665SOL    HW121892  12.096   7.040  11.412
 6665SOL    HW221893  11.987   6.991  11.505
 6666SOL     OW21894   3.402   2.152   7.311
 6666SOL    HW121895   3.458   2.133   7.386
 6666SOL    HW221896   3.444   2.107   7.238
 6667SOL     OW21897   5.808  10.692   3.938
 6667SOL    HW121898   5.855  10.609   3.930
 6667SOL    HW221899   5.869  10.750   3.983
 6668SOL     OW21900   6.881  11.725   3.914
 6668SOL    HW121901   6.809  11.747   3.855
 6668SOL    HW221902   6.943  11.678   3.859
 6669SOL     OW21903   5.076   6.002  10.469
 6669SOL    HW121904   4.999   6.036  10.422
 6669SOL    HW221905   5.057   6.020  10.561
 6670SOL     OW21906  14.489   9.845   3.491
 6670SOL    HW121907  14.583   9.829   3.481
 6670SOL    HW221908  14.483   9.938   3.510
 6671SOL     OW21909   9.421   2.455  12.790
 6671SOL    HW121910   9.408   2.549  12.803
 6671SOL    HW221911   9.352   2.414  12.842
 6672SOL     OW21912   3.056   3.138   5.062
 6672SOL    HW121913   3.071   3.139   5.157
 6672SOL    HW221914   2.976   3.086   5.051
 6673SOL     OW21915  12.578   2.749   2.873
 6673SOL    HW121916  12.552   2.763   2.964
 6673SOL    HW221917  12.497   2.729   2.827
 6674SOL     OW21918   3.310   5.662   7.288
 6674SOL    HW121919   3.313   5.757   7.294
 6674SOL    HW221920   3.236   5.643   7.231
 6675SOL     OW21921   0.759   7.209  13.754
 6675SOL    HW121922   0.782   7.123  13.720
 6675SOL    HW221923   0.814   7.219  13.832
 6676SOL     OW21924  10.986   5.908   9.054
 6676SOL    HW121925  11.069   5.873   9.085
 6676SOL    HW221926  10.981   5.879   8.963
 6677SOL     OW21927   5.399   5.702  12.312
 6677SOL    HW121928   5.379   5.701  12.405
 6677SOL    HW221929   5.365   5.786  12.281
 6678SOL     OW21930   1.385   0.675   3.058
 6678SOL    HW121931   1.462   0.730   3.074
 6678SOL    HW221932   1.359   0.694   2.968
 6679SOL     OW21933   0.641   6.941   2.650
 6679SOL    HW121934   0.700   6.916   2.721
 6679SOL    HW221935   0.690   7.005   2.598
 6680SOL     OW21936  12.367   8.573   8.102
 6680SOL    HW121937  12.384   8.479   8.102
 6680SOL    HW221938  12.366   8.598   8.194
 6681SOL     OW21939   0.767   6.041   2.703
 6681SOL    HW121940   0.801   5.958   2.670
 6681SOL    HW221941   0.682   6.051   2.660
 6682SOL     OW21942   1.271   7.674   3.769
 6682SOL    HW121943   1.217   7.686   3.690
 6682SOL    HW221944   1.312   7.588   3.756
 6683SOL     OW21945   8.163  10.353  14.370
 6683SOL    HW121946   8.199  10.385  14.287
 6683SOL    HW221947   8.136  10.433  14.417
 6684SOL     OW21948  12.800   1.134   9.935
 6684SOL    HW121949  12.767   1.159  10.021
 6684SOL    HW221950  12.722   1.111   9.885
 6685SOL     OW21951   4.254  10.216   7.729
 6685SOL    HW121952   4.329  10.215   7.788
 6685SOL    HW221953   4.181  10.184   7.782
 6686SOL     OW21954   8.917   4.441   4.680
 6686SOL    HW121955   8.903   4.477   4.768
 6686SOL    HW221956   8.839   4.386   4.665
 6687SOL     OW21957  12.082  11.699  10.986
 6687SOL    HW121958  12.069  11.669  10.896
 6687SOL    HW221959  12.175  11.721  10.991
 6688SOL     OW21960  14.843  14.807  11.846
 6688SOL    HW121961  14.873  14.874  11.785
 6688SOL    HW221962  14.837  14.727  11.794
 6689SOL     OW21963   4.974   2.272   7.836
 6689SOL    HW121964   5.038   2.341   7.856
 6689SOL    HW221965   5.008   2.195   7.881
 6690SOL     OW21966   8.762  11.652   6.771
 6690SOL    HW121967   8.722  11.593   6.835
 6690SOL    HW221968   8.827  11.598   6.726
 6691SOL     OW21969  13.904  12.357   6.454
 6691SOL    HW121970  13.904  12.282   6.394
 6691SOL    HW221971  13.940  12.429   6.402
 6692SOL     OW21972   5.000   1.673   4.892
 6692SOL    HW121973   5.095   1.671   4.874
 6692SOL    HW221974   4.970   1.756   4.854
 6693SOL     OW21975  14.477  14.106  12.498
 6693SOL    HW121976  14.517  14.093  12.412
 6693SOL    HW221977  14.433  14.023  12.518
 6694SOL     OW21978   1.956   8.666   0.214
 6694SOL    HW121979   2.019   8.630   0.276
 6694SOL    HW221980   2.010   8.694   0.140
 6695SOL     OW21981   6.778   1.845  14.329
 6695SOL    HW121982   6.847   1.791  14.367
 6695SOL    HW221983   6.824   1.920  14.290
 6696SOL     OW21984   9.627   4.569   0.493
 6696SOL    HW121985   9.620   4.524   0.409
 6696SOL    HW221986   9.720   4.587   0.503
 6697SOL     OW21987   8.758   2.817  10.664
 6697SOL    HW121988   8.751   2.891  10.603
 6697SOL    HW221989   8.801   2.854  10.741
 6698SOL     OW21990   5.458   3.060   7.337
 6698SOL    HW121991   5.500   3.062   7.423
 6698SOL    HW221992   5.365   3.075   7.355
 6699SOL     OW21993  13.516   3.923   1.137
 6699SOL    HW121994  13.560   3.839   1.148
 6699SOL    HW221995  13.571   3.971   1.076
 6700SOL     OW21996   0.960   3.321  12.657
 6700SOL    HW121997   0.989   3.238  12.693
 6700SOL    HW221998   0.959   3.381  12.731
 6701SOL     OW21999   6.743   6.595   0.621
 6701SOL    HW122000   6.753   6.615   0.528
 6701SOL    HW222001   6.826   6.557   0.647
 6702SOL     OW22002   3.134   2.198   3.263
 6702SOL    HW122003   3.079   2.177   3.187
 6702SOL    HW222004   3.099   2.143   3.334
 6703SOL     OW22005   2.837   8.366  10.420
 6703SOL    HW122006   2.750   8.331  10.439
 6703SOL    HW222007   2.860   8.330  10.334
 6704SOL     OW22008   8.143   3.555  13.846
 6704SOL    HW122009   8.080   3.617  13.809
 6704SOL    HW222010   8.213   3.551  13.781
 6705SOL     OW22011   6.480   8.637  11.092
 6705SOL    HW122012   6.409   8.663  11.151
 6705SOL    HW222013   6.437   8.595  11.018
 6706SOL     OW22014   4.277  12.088   4.258
 6706SOL    HW122015   4.349  12.041   4.300
 6706SOL    HW222016   4.290  12.179   4.282
 6707SOL     OW22017   6.177  11.824   9.412
 6707SOL    HW122018   6.165  11.861   9.499
 6707SOL    HW222019   6.114  11.871   9.357
 6708SOL     OW22020   4.712  12.586   3.538
 6708SOL    HW122021   4.666  12.541   3.609
 6708SOL    HW222022   4.804  12.588   3.566
 6709SOL     OW22023   4.434  11.626   0.762
 6709SOL    HW122024   4.421  11.596   0.672
 6709SOL    HW222025   4.494  11.561   0.800
 6710SOL     OW22026   9.109   1.329   0.532
 6710SOL    HW122027   9.165   1.253   0.550
 6710SOL    HW222028   9.092   1.324   0.438
 6711SOL     OW22029  11.819  14.415  12.091
 6711SOL    HW122030  11.772  14.368  12.160
 6711SOL    HW222031  11.762  14.409  12.015
 6712SOL     OW22032  13.626   9.548   6.975
 6712SOL    HW122033  13.550   9.506   6.936
 6712SOL    HW222034  13.603   9.641   6.980
 6713SOL     OW22035  11.359  13.011   8.867
 6713SOL    HW122036  11.350  13.062   8.787
 6713SOL    HW222037  11.366  13.077   8.936
 6714SOL     OW22038   6.855   3.089  12.614
 6714SOL    HW122039   6.799   3.100  12.537
 6714SOL    HW222040   6.852   2.995  12.632
 6715SOL     OW22041  10.892  12.795   2.610
 6715SOL    HW122042  10.831  12.728   2.642
 6715SOL    HW222043  10.932  12.755   2.533
 6716SOL     OW22044   3.146   2.965   6.985
 6716SOL    HW122045   3.091   3.040   7.008
 6716SOL    HW222046   3.106   2.931   6.904
 6717SOL     OW22047  10.408   0.134   4.969
 6717SOL    HW122048  10.459   0.080   4.908
 6717SOL    HW222049  10.325   0.148   4.923
 6718SOL     OW22050  10.870   3.413   4.649
 6718SOL    HW122051  10.846   3.333   4.602
 6718SOL    HW222052  10.940   3.386   4.709
 6719SOL     OW22053   3.822   7.637   8.841
 6719SOL    HW122054   3.779   7.639   8.755
 6719SOL    HW222055   3.757   7.598   8.899
 6720SOL     OW22056   1.823   6.081  13.746
 6720SOL    HW122057   1.862   6.125  13.671
 6720SOL    HW222058   1.895   6.071  13.808
 6721SOL     OW22059   7.051   6.796   2.367
 6721SOL    HW122060   7.025   6.707   2.344
 6721SOL    HW222061   7.013   6.851   2.299
 6722SOL     OW22062   1.813  12.872   1.016
 6722SOL    HW122063   1.851  12.824   0.943
 6722SOL    HW222064   1.798  12.960   0.983
 6723SOL     OW22065  14.179  11.084  13.976
 6723SOL    HW122066  14.129  11.003  13.982
 6723SOL    HW222067  14.209  11.101  14.065
 6724SOL     OW22068   4.982  11.789   5.884
 6724SOL    HW122069   5.014  11.875   5.910
 6724SOL    HW222070   4.917  11.808   5.817
 6725SOL     OW22071  14.806  10.779  10.891
 6725SOL    HW122072  14.751  10.823  10.826
 6725SOL    HW222073   0.009  10.825  10.885
 6726SOL     OW22074   5.787  14.853   6.519
 6726SOL    HW122075   5.864   0.007   6.562
 6726SOL    HW222076   5.735  14.817   6.591
 6727SOL     OW22077   8.908  11.662   8.540
 6727SOL    HW122078   8.823  11.688   8.505
 6727SOL    HW222079   8.971  11.721   8.498
 6728SOL     OW22080  11.444  10.879   3.635
 6728SOL    HW122081  11.366  10.932   3.656
 6728SOL    HW222082  11.414  10.818   3.568
 6729SOL     OW22083  12.297   6.452   3.434
 6729SOL    HW122084  12.270   6.456   3.342
 6729SOL    HW222085  12.346   6.371   3.441
 6730SOL     OW22086   0.566   4.112   1.568
 6730SOL    HW122087   0.590   4.081   1.656
 6730SOL    HW222088   0.477   4.147   1.579
 6731SOL     OW22089  13.781   7.170   9.485
 6731SOL    HW122090  13.827   7.242   9.442
 6731SOL    HW222091  13.726   7.212   9.552
 6732SOL     OW22092   9.076   9.992   0.699
 6732SOL    HW122093   9.109  10.079   0.720
 6732SOL    HW222094   9.151   9.934   0.714
 6733SOL     OW22095   8.112  10.512   2.204
 6733SOL    HW122096   8.180  10.577   2.189
 6733SOL    HW222097   8.064  10.545   2.281
 6734SOL     OW22098  11.869   5.818  14.227
 6734SOL    HW122099  11.952   5.859  14.252
 6734SOL    HW222100  11.803   5.864  14.278
 6735SOL     OW22101   1.101   9.523   7.304
 6735SOL    HW122102   1.097   9.440   7.351
 6735SOL    HW222103   1.095   9.590   7.372
 6736SOL     OW22104   0.723   6.719   4.158
 6736SOL    HW122105   0.769   6.682   4.233
 6736SOL    HW222106   0.781   6.789   4.127
 6737SOL     OW22107  12.059   7.485   6.378
 6737SOL    HW122108  12.124   7.518   6.316
 6737SOL    HW222109  12.061   7.390   6.366
 6738SOL     OW22110   7.057   8.895  10.347
 6738SOL    HW122111   7.015   8.878  10.431
 6738SOL    HW222112   7.151   8.897  10.368
 6739SOL     OW22113   1.251   4.163  10.504
 6739SOL    HW122114   1.242   4.243  10.555
 6739SOL    HW222115   1.162   4.127  10.499
 6740SOL     OW22116   6.989  12.737   9.372
 6740SOL    HW122117   6.909  12.746   9.424
 6740SOL    HW222118   6.967  12.773   9.286
 6741SOL     OW22119   3.263   7.596   3.967
 6741SOL    HW122120   3.332   7.535   3.991
 6741SOL    HW222121   3.198   7.588   4.037
 6742SOL     OW22122  11.360   7.517  11.456
 6742SOL    HW122123  11.420   7.461  11.406
 6742SOL    HW222124  11.291   7.458  11.487
 6743SOL     OW22125  13.468   4.559  12.134
 6743SOL    HW122126  13.390   4.516  12.167
 6743SOL    HW222127  13.440   4.648  12.112
 6744SOL     OW22128   6.647   5.760   1.615
 6744SOL    HW122129   6.681   5.841   1.651
 6744SOL    HW222130   6.698   5.691   1.656
 6745SOL     OW22131   2.704  13.280   8.485
 6745SOL    HW122132   2.741  13.193   8.470
 6745SOL    HW222133   2.711  13.324   8.400
 6746SOL     OW22134  11.462   5.592   4.313
 6746SOL    HW122135  11.464   5.555   4.402
 6746SOL    HW222136  11.477   5.686   4.325
 6747SOL     OW22137   2.057   9.949   3.786
 6747SOL    HW122138   2.131   9.930   3.844
 6747SOL    HW222139   2.089  10.019   3.729
 6748SOL     OW22140   7.459   4.317   9.580
 6748SOL    HW122141   7.538   4.294   9.532
 6748SOL    HW222142   7.401   4.356   9.514
 6749SOL     OW22143   8.068   8.414  13.172
 6749SOL    HW122144   8.046   8.430  13.080
 6749SOL    HW222145   8.160   8.439  13.179
 6750SOL     OW22146   8.880   6.889  11.842
 6750SOL    HW122147   8.845   6.976  11.819
 6750SOL    HW222148   8.807   6.844  11.884
 6751SOL     OW22149   9.008  14.803   9.638
 6751SOL    HW122150   9.053   0.000   9.608
 6751SOL    HW222151   8.922  14.806   9.596
 6752SOL     OW22152   2.468   3.155   5.048
 6752SOL    HW122153   2.536   3.115   4.995
 6752SOL    HW222154   2.391   3.100   5.033
 6753SOL     OW22155   8.418   5.141  10.572
 6753SOL    HW122156   8.393   5.108  10.485
 6753SOL    HW222157   8.453   5.064  10.617
 6754SOL     OW22158  13.523   0.379   5.914
 6754SOL    HW122159  13.526   0.343   6.003
 6754SOL    HW222160  13.615   0.381   5.886
 6755SOL     OW22161   8.662   7.694   3.675
 6755SOL    HW122162   8.572   7.665   3.663
 6755SOL    HW222163   8.655   7.773   3.729
 6756SOL     OW22164   4.259   1.368   2.370
 6756SOL    HW122165   4.319   1.298   2.342
 6756SOL    HW222166   4.274   1.439   2.308
 6757SOL     OW22167   5.663   5.155   7.564
 6757SOL    HW122168   5.567   5.159   7.572
 6757SOL    HW222169   5.679   5.158   7.469
 6758SOL     OW22170  12.070  12.136   5.789
 6758SOL    HW122171  12.079  12.136   5.884
 6758SOL    HW222172  12.087  12.046   5.763
 6759SOL     OW22173   9.670   0.385   3.643
 6759SOL    HW122174   9.715   0.394   3.727
 6759SOL    HW222175   9.727   0.329   3.591
 6760SOL     OW22176   3.234   0.676   0.225
 6760SOL    HW122177   3.223   0.771   0.231
 6760SOL    HW222178   3.185   0.641   0.299
 6761SOL     OW22179   6.601   3.835   0.447
 6761SOL    HW122180   6.507   3.829   0.467
 6761SOL    HW222181   6.616   3.927   0.429
 6762SOL     OW22182   4.055   9.838  13.410
 6762SOL    HW122183   4.066   9.899  13.337
 6762SOL    HW222184   4.138   9.844  13.458
 6763SOL     OW22185   3.610  13.021   5.717
 6763SOL    HW122186   3.674  13.087   5.744
 6763SOL    HW222187   3.630  12.945   5.773
 6764SOL     OW22188   9.999   0.285  10.527
 6764SOL    HW122189  10.005   0.334  10.609
 6764SOL    HW222190   9.905   0.274  10.513
 6765SOL     OW22191   6.363   4.564  13.500
 6765SOL    HW122192   6.374   4.477  13.462
 6765SOL    HW222193   6.269   4.581  13.493
 6766SOL     OW22194   2.706  13.593  14.168
 6766SOL    HW122195   2.694  13.658  14.237
 6766SOL    HW222196   2.768  13.634  14.107
 6767SOL     OW22197   0.655   3.921   6.797
 6767SOL    HW122198   0.714   3.996   6.790
 6767SOL    HW222199   0.711   3.849   6.828
 6768SOL     OW22200   6.064   2.885   8.292
 6768SOL    HW122201   6.085   2.921   8.206
 6768SOL    HW222202   5.993   2.824   8.277
 6769SOL     OW22203  12.797  12.421   5.919
 6769SOL    HW122204  12.734  12.389   5.854
 6769SOL    HW222205  12.882  12.399   5.881
 6770SOL     OW22206   2.449   9.508  10.961
 6770SOL    HW122207   2.540   9.479  10.954
 6770SOL    HW222208   2.410   9.449  11.026
 6771SOL     OW22209  12.934  12.802   2.317
 6771SOL    HW122210  12.861  12.834   2.370
 6771SOL    HW222211  12.999  12.872   2.320
 6772SOL     OW22212  12.541   9.206   6.110
 6772SOL    HW122213  12.453   9.193   6.144
 6772SOL    HW222214  12.529   9.229   6.018
 6773SOL     OW22215  11.280   5.346   4.786
 6773SOL    HW122216  11.187   5.354   4.765
 6773SOL    HW222217  11.304   5.432   4.819
 6774SOL     OW22218  12.013   2.933   9.272
 6774SOL    HW122219  12.099   2.892   9.279
 6774SOL    HW222220  11.963   2.877   9.213
 6775SOL     OW22221   3.772   0.663  10.735
 6775SOL    HW122222   3.758   0.745  10.781
 6775SOL    HW222223   3.771   0.687  10.642
 6776SOL     OW22224   0.637   4.288  12.996
 6776SOL    HW122225   0.586   4.361  12.960
 6776SOL    HW222226   0.581   4.211  12.984
 6777SOL     OW22227   5.788   8.834   6.348
 6777SOL    HW122228   5.845   8.757   6.352
 6777SOL    HW222229   5.812   8.885   6.425
 6778SOL     OW22230   3.581  12.657  12.496
 6778SOL    HW122231   3.627  12.739  12.476
 6778SOL    HW222232   3.556  12.622  12.410
 6779SOL     OW22233   5.078   3.912   8.976
 6779SOL    HW122234   5.012   3.981   8.988
 6779SOL    HW222235   5.089   3.906   8.881
 6780SOL     OW22236  12.401   3.454  11.723
 6780SOL    HW122237  12.485   3.409  11.716
 6780SOL    HW222238  12.337   3.383  11.737
 6781SOL     OW22239   1.943   3.042   0.482
 6781SOL    HW122240   1.945   3.135   0.458
 6781SOL    HW222241   1.936   2.997   0.398
 6782SOL     OW22242  14.878   8.866   7.257
 6782SOL    HW122243   0.066   8.833   7.313
 6782SOL    HW222244  14.864   8.956   7.285
 6783SOL     OW22245  11.076   7.582   5.840
 6783SOL    HW122246  11.162   7.615   5.813
 6783SOL    HW222247  11.076   7.490   5.813
 6784SOL     OW22248  14.256   0.673  11.118
 6784SOL    HW122249  14.163   0.676  11.093
 6784SOL    HW222250  14.281   0.765  11.129
 6785SOL     OW22251  12.723  10.615   0.304
 6785SOL    HW122252  12.696  10.697   0.262
 6785SOL    HW222253  12.684  10.547   0.249
 6786SOL     OW22254   0.658   2.639   2.577
 6786SOL    HW122255   0.564   2.655   2.577
 6786SOL    HW222256   0.692   2.697   2.509
 6787SOL     OW22257   2.454   4.014   0.268
 6787SOL    HW122258   2.383   4.078   0.274
 6787SOL    HW222259   2.526   4.062   0.226
 6788SOL     OW22260   9.477  12.945  13.800
 6788SOL    HW122261   9.480  13.024  13.746
 6788SOL    HW222262   9.430  12.971  13.878
 6789SOL     OW22263   2.704   0.030   2.645
 6789SOL    HW122264   2.632  14.875   2.695
 6789SOL    HW222265   2.782  14.871   2.682
 6790SOL     OW22266   8.736  10.093   0.433
 6790SOL    HW122267   8.738  10.185   0.408
 6790SOL    HW222268   8.646  10.077   0.462
 6791SOL     OW22269  11.161   9.521   8.167
 6791SOL    HW122270  11.152   9.582   8.093
 6791SOL    HW222271  11.090   9.546   8.227
 6792SOL     OW22272   3.272   4.398   4.444
 6792SOL    HW122273   3.177   4.402   4.430
 6792SOL    HW222274   3.283   4.340   4.519
 6793SOL     OW22275   9.609   4.033   7.378
 6793SOL    HW122276   9.702   4.012   7.370
 6793SOL    HW222277   9.587   4.074   7.295
 6794SOL     OW22278   2.724  12.223   2.220
 6794SOL    HW122279   2.808  12.193   2.253
 6794SOL    HW222280   2.695  12.289   2.283
 6795SOL     OW22281   5.263   4.500   8.508
 6795SOL    HW122282   5.217   4.511   8.425
 6795SOL    HW222283   5.222   4.424   8.549
 6796SOL     OW22284  14.194   7.271   3.896
 6796SOL    HW122285  14.152   7.340   3.947
 6796SOL    HW222286  14.253   7.318   3.837
 6797SOL     OW22287  10.571   4.400   5.624
 6797SOL    HW122288  10.584   4.421   5.531
 6797SOL    HW222289  10.627   4.323   5.638
 6798SOL     OW22290   2.327   4.554   8.593
 6798SOL    HW122291   2.334   4.646   8.616
 6798SOL    HW222292   2.415   4.529   8.564
 6799SOL     OW22293  10.401   7.092   3.344
 6799SOL    HW122294  10.433   7.005   3.319
 6799SOL    HW222295  10.326   7.106   3.286
 6800SOL     OW22296  12.607  11.349   3.807
 6800SOL    HW122297  12.666  11.408   3.852
 6800SOL    HW222298  12.594  11.276   3.869
 6801SOL     OW22299  14.599   6.990  13.139
 6801SOL    HW122300  14.529   6.986  13.204
 6801SOL    HW222301  14.597   7.079  13.105
 6802SOL     OW22302   7.293   2.013  13.078
 6802SOL    HW122303   7.247   2.094  13.100
 6802SOL    HW222304   7.252   1.946  13.133
 6803SOL     OW22305   8.379   5.779   8.190
 6803SOL    HW122306   8.360   5.811   8.278
 6803SOL    HW222307   8.336   5.694   8.185
 6804SOL     OW22308   2.208   2.578   5.809
 6804SOL    HW122309   2.140   2.513   5.794
 6804SOL    HW222310   2.288   2.528   5.822
 6805SOL     OW22311   9.160   3.376   1.383
 6805SOL    HW122312   9.253   3.365   1.403
 6805SOL    HW222313   9.157   3.384   1.287
 6806SOL     OW22314   7.036   0.252   3.291
 6806SOL    HW122315   7.027   0.344   3.315
 6806SOL    HW222316   6.978   0.241   3.215
 6807SOL     OW22317   2.179   1.960  13.255
 6807SOL    HW122318   2.179   2.043  13.304
 6807SOL    HW222319   2.114   1.906  13.300
 6808SOL     OW22320  10.621  13.340  10.964
 6808SOL    HW122321  10.673  13.268  10.927
 6808SOL    HW222322  10.678  13.379  11.030
 6809SOL     OW22323   2.816   8.065   0.820
 6809SOL    HW122324   2.744   8.029   0.768
 6809SOL    HW222325   2.895   8.043   0.770
 6810SOL     OW22326   8.146   1.495  13.172
 6810SOL    HW122327   8.224   1.533  13.213
 6810SOL    HW222328   8.160   1.400  13.178
 6811SOL     OW22329   1.614   0.136   7.557
 6811SOL    HW122330   1.687   0.196   7.542
 6811SOL    HW222331   1.538   0.183   7.522
 6812SOL     OW22332  12.273   5.424  13.148
 6812SOL    HW122333  12.323   5.503  13.170
 6812SOL    HW222334  12.280   5.417  13.053
 6813SOL     OW22335  13.090   3.335   5.898
 6813SOL    HW122336  13.003   3.363   5.924
 6813SOL    HW222337  13.136   3.416   5.877
 6814SOL     OW22338  14.845   7.925   6.640
 6814SOL    HW122339  14.808   7.986   6.575
 6814SOL    HW222340  14.854   7.977   6.719
 6815SOL     OW22341   0.454   7.318   4.792
 6815SOL    HW122342   0.497   7.294   4.709
 6815SOL    HW222343   0.444   7.235   4.838
 6816SOL     OW22344   1.011   6.288  13.973
 6816SOL    HW122345   0.984   6.303  13.883
 6816SOL    HW222346   1.053   6.202  13.971
 6817SOL     OW22347   1.621   7.796   6.741
 6817SOL    HW122348   1.658   7.862   6.800
 6817SOL    HW222349   1.698   7.756   6.700
 6818SOL     OW22350   6.949   5.356  13.636
 6818SOL    HW122351   7.022   5.401  13.677
 6818SOL    HW222352   6.877   5.365  13.698
 6819SOL     OW22353  14.324   1.431   1.466
 6819SOL    HW122354  14.269   1.358   1.440
 6819SOL    HW222355  14.285   1.462   1.548
 6820SOL     OW22356   9.854   3.105  11.140
 6820SOL    HW122357   9.759   3.118  11.147
 6820SOL    HW222358   9.865   3.050  11.063
 6821SOL     OW22359   9.239  12.249   1.779
 6821SOL    HW122360   9.197  12.196   1.847
 6821SOL    HW222361   9.166  12.285   1.728
 6822SOL     OW22362  11.780   6.989   8.212
 6822SOL    HW122363  11.726   6.935   8.154
 6822SOL    HW222364  11.839   6.927   8.254
 6823SOL     OW22365   8.991   7.173  13.129
 6823SOL    HW122366   8.945   7.124  13.197
 6823SOL    HW222367   9.048   7.109  13.088
 6824SOL     OW22368  13.986  11.290  12.114
 6824SOL    HW122369  13.973  11.198  12.092
 6824SOL    HW222370  14.047  11.322  12.049
 6825SOL     OW22371   4.109   4.851   4.754
 6825SOL    HW122372   4.172   4.804   4.807
 6825SOL    HW222373   4.156   4.930   4.725
 6826SOL     OW22374   9.899   7.564   6.628
 6826SOL    HW122375   9.910   7.596   6.538
 6826SOL    HW222376   9.825   7.614   6.662
 6827SOL     OW22377   3.758   2.831   1.944
 6827SOL    HW122378   3.775   2.917   1.982
 6827SOL    HW222379   3.692   2.792   2.001
 6828SOL     OW22380   2.322   7.225   4.029
 6828SOL    HW122381   2.388   7.264   3.971
 6828SOL    HW222382   2.241   7.231   3.979
 6829SOL     OW22383  10.891  12.585   7.577
 6829SOL    HW122384  10.801  12.591   7.544
 6829SOL    HW222385  10.945  12.612   7.502
 6830SOL     OW22386   8.087   1.308   4.100
 6830SOL    HW122387   8.039   1.238   4.144
 6830SOL    HW222388   8.159   1.329   4.160
 6831SOL     OW22389  12.925  14.753   2.480
 6831SOL    HW122390  12.853  14.816   2.492
 6831SOL    HW222391  12.928  14.705   2.563
 6832SOL     OW22392   2.063   2.769   0.074
 6832SOL    HW122393   2.029   2.713   0.004
 6832SOL    HW222394   2.150   2.795   0.043
 6833SOL     OW22395   9.244   6.656  11.032
 6833SOL    HW122396   9.327   6.703  11.034
 6833SOL    HW222397   9.188   6.704  11.094
 6834SOL     OW22398   4.409  12.737   4.861
 6834SOL    HW122399   4.429  12.650   4.825
 6834SOL    HW222400   4.377  12.719   4.950
 6835SOL     OW22401  12.802  10.515  13.223
 6835SOL    HW122402  12.784  10.502  13.317
 6835SOL    HW222403  12.739  10.581  13.196
 6836SOL     OW22404  13.459   4.005  10.998
 6836SOL    HW122405  13.499   4.078  11.047
 6836SOL    HW222406  13.410   3.956  11.064
 6837SOL     OW22407   3.677   0.726  13.188
 6837SOL    HW122408   3.732   0.652  13.163
 6837SOL    HW222409   3.740   0.793  13.215
 6838SOL     OW22410   8.366   1.715   7.780
 6838SOL    HW122411   8.370   1.805   7.748
 6838SOL    HW222412   8.457   1.692   7.802
 6839SOL     OW22413  12.198   6.775   7.708
 6839SOL    HW122414  12.105   6.764   7.726
 6839SOL    HW222415  12.209   6.742   7.619
 6840SOL     OW22416   9.515   1.111  11.283
 6840SOL    HW122417   9.422   1.086  11.288
 6840SOL    HW222418   9.540   1.093  11.193
 6841SOL     OW22419   1.153   3.621   9.244
 6841SOL    HW122420   1.117   3.698   9.200
 6841SOL    HW222421   1.153   3.644   9.337
 6842SOL     OW22422   6.132   0.546   5.540
 6842SOL    HW122423   6.112   0.497   5.461
 6842SOL    HW222424   6.109   0.636   5.519
 6843SOL     OW22425  12.809   9.331   6.411
 6843SOL    HW122426  12.767   9.394   6.353
 6843SOL    HW222427  12.831   9.257   6.355
 6844SOL     OW22428   5.056  14.238   1.789
 6844SOL    HW122429   5.060  14.159   1.735
 6844SOL    HW222430   5.138  14.236   1.839
 6845SOL     OW22431  10.643   3.961   9.681
 6845SOL    HW122432  10.578   3.932   9.745
 6845SOL    HW222433  10.715   3.899   9.690
 6846SOL     OW22434   1.088  10.765  14.380
 6846SOL    HW122435   1.163  10.824  14.376
 6846SOL    HW222436   1.015  10.816  14.345
 6847SOL     OW22437   5.714   7.178   1.718
 6847SOL    HW122438   5.637   7.219   1.759
 6847SOL    HW222439   5.782   7.184   1.785
 6848SOL     OW22440  14.262   2.683   8.847
 6848SOL    HW122441  14.336   2.658   8.903
 6848SOL    HW222442  14.252   2.609   8.787
 6849SOL     OW22443   3.078   5.537   7.540
 6849SOL    HW122444   3.123   5.466   7.493
 6849SOL    HW222445   3.067   5.606   7.474
 6850SOL     OW22446   1.786   4.257  12.406
 6850SOL    HW122447   1.695   4.280  12.427
 6850SOL    HW222448   1.797   4.286  12.316
 6851SOL     OW22449  14.556  10.586  12.809
 6851SOL    HW122450  14.504  10.510  12.782
 6851SOL    HW222451  14.492  10.657  12.816
 6852SOL     OW22452  11.632   5.429   6.615
 6852SOL    HW122453  11.629   5.418   6.710
 6852SOL    HW222454  11.645   5.523   6.602
 6853SOL     OW22455  12.395   6.798   5.782
 6853SOL    HW122456  12.486   6.816   5.757
 6853SOL    HW222457  12.369   6.725   5.726
 6854SOL     OW22458   4.602   9.796   7.999
 6854SOL    HW122459   4.539   9.729   7.974
 6854SOL    HW222460   4.559   9.879   7.975
 6855SOL     OW22461   3.529   6.489   7.091
 6855SOL    HW122462   3.611   6.527   7.059
 6855SOL    HW222463   3.486   6.456   7.012
 6856SOL     OW22464  12.937   5.216   1.630
 6856SOL    HW122465  12.936   5.206   1.535
 6856SOL    HW222466  13.013   5.272   1.647
 6857SOL     OW22467   2.948   7.917  12.929
 6857SOL    HW122468   2.919   7.958  12.848
 6857SOL    HW222469   3.036   7.885  12.909
 6858SOL     OW22470   5.986  12.129   0.767
 6858SOL    HW122471   5.919  12.186   0.729
 6858SOL    HW222472   5.950  12.103   0.852
 6859SOL     OW22473   4.715  12.802  10.296
 6859SOL    HW122474   4.708  12.850  10.378
 6859SOL    HW222475   4.722  12.710  10.323
 6860SOL     OW22476   9.954   2.641   8.096
 6860SOL    HW122477   9.965   2.677   8.008
 6860SOL    HW222478   9.859   2.635   8.107
 6861SOL     OW22479   8.953   3.431   7.783
 6861SOL    HW122480   9.048   3.441   7.781
 6861SOL    HW222481   8.919   3.520   7.775
 6862SOL     OW22482   2.060   0.474   8.743
 6862SOL    HW122483   2.050   0.566   8.767
 6862SOL    HW222484   2.154   0.463   8.730
 6863SOL     OW22485   4.465   4.660   0.471
 6863SOL    HW122486   4.412   4.588   0.439
 6863SOL    HW222487   4.424   4.686   0.553
 6864SOL     OW22488  12.558   7.796   8.511
 6864SOL    HW122489  12.587   7.860   8.446
 6864SOL    HW222490  12.638   7.756   8.543
 6865SOL     OW22491  10.681   6.945   9.297
 6865SOL    HW122492  10.668   7.033   9.262
 6865SOL    HW222493  10.596   6.921   9.334
 6866SOL     OW22494   9.971  14.110  10.634
 6866SOL    HW122495  10.000  14.200  10.650
 6866SOL    HW222496  10.051  14.058  10.638
 6867SOL     OW22497  12.253   0.494  12.441
 6867SOL    HW122498  12.332   0.471  12.391
 6867SOL    HW222499  12.228   0.412  12.484
 6868SOL     OW22500   4.013   1.536   5.968
 6868SOL    HW122501   4.036   1.627   5.985
 6868SOL    HW222502   3.964   1.539   5.885
 6869SOL     OW22503  11.032   6.371  11.837
 6869SOL    HW122504  10.938   6.361  11.827
 6869SOL    HW222505  11.062   6.403  11.752
 6870SOL     OW22506   7.881  13.116   3.646
 6870SOL    HW122507   7.879  13.147   3.736
 6870SOL    HW222508   7.841  13.028   3.650
 6871SOL     OW22509  13.934  14.535   2.735
 6871SOL    HW122510  13.950  14.565   2.645
 6871SOL    HW222511  13.912  14.442   2.725
 6872SOL     OW22512   6.483   4.588   3.564
 6872SOL    HW122513   6.437   4.666   3.596
 6872SOL    HW222514   6.458   4.582   3.472
 6873SOL     OW22515  11.497   4.385   0.350
 6873SOL    HW122516  11.464   4.341   0.272
 6873SOL    HW222517  11.561   4.448   0.317
 6874SOL     OW22518   4.804   8.843  10.108
 6874SOL    HW122519   4.832   8.909  10.045
 6874SOL    HW222520   4.710   8.856  10.117
 6875SOL     OW22521   5.015   0.144   0.826
 6875SOL    HW122522   4.932   0.101   0.808
 6875SOL    HW222523   5.020   0.215   0.762
 6876SOL     OW22524   2.656  14.330  13.213
 6876SOL    HW122525   2.664  14.425  13.199
 6876SOL    HW222526   2.746  14.300  13.220
 6877SOL     OW22527   8.101  10.638   4.577
 6877SOL    HW122528   8.092  10.664   4.486
 6877SOL    HW222529   8.062  10.711   4.627
 6878SOL     OW22530  12.695   3.809  11.149
 6878SOL    HW122531  12.759   3.833  11.216
 6878SOL    HW222532  12.610   3.830  11.188
 6879SOL     OW22533  13.989   3.565   9.854
 6879SOL    HW122534  13.973   3.486   9.906
 6879SOL    HW222535  14.035   3.624   9.915
 6880SOL     OW22536   7.329   3.937  10.470
 6880SOL    HW122537   7.342   3.964  10.561
 6880SOL    HW222538   7.340   4.018  10.420
 6881SOL     OW22539   5.158  12.973   5.191
 6881SOL    HW122540   5.246  12.994   5.223
 6881SOL    HW222541   5.167  12.973   5.095
 6882SOL     OW22542   2.476   1.962   9.939
 6882SOL    HW122543   2.511   1.992   9.855
 6882SOL    HW222544   2.388   1.928   9.918
 6883SOL     OW22545  12.894   9.831   9.237
 6883SOL    HW122546  12.961   9.895   9.259
 6883SOL    HW222547  12.835   9.877   9.178
 6884SOL     OW22548   6.714   3.968  10.049
 6884SOL    HW122549   6.805   3.959  10.022
 6884SOL    HW222550   6.684   3.878  10.063
 6885SOL     OW22551  14.502  10.226  11.583
 6885SOL    HW122552  14.526  10.236  11.491
 6885SOL    HW222553  14.507  10.132  11.599
 6886SOL     OW22554   9.323   7.498  10.308
 6886SOL    HW122555   9.364   7.480  10.224
 6886SOL    HW222556   9.295   7.412  10.340
 6887SOL     OW22557   5.479   9.954  13.910
 6887SOL    HW122558   5.538   9.953  13.835
 6887SOL    HW222559   5.458   9.861  13.926
 6888SOL     OW22560   7.299   5.401  14.776
 6888SOL    HW122561   7.373   5.353  14.815
 6888SOL    HW222562   7.237   5.333  14.751
 6889SOL     OW22563   8.064   9.690  14.407
 6889SOL    HW122564   8.087   9.599  14.425
 6889SOL    HW222565   7.972   9.697  14.431
 6890SOL     OW22566   5.029   5.822   9.970
 6890SOL    HW122567   5.061   5.809   9.880
 6890SOL    HW222568   4.998   5.912   9.971
 6891SOL     OW22569   0.822   7.757  11.776
 6891SOL    HW122570   0.821   7.689  11.708
 6891SOL    HW222571   0.913   7.785  11.780
 6892SOL     OW22572   6.902   1.534   2.432
 6892SOL    HW122573   6.833   1.567   2.489
 6892SOL    HW222574   6.967   1.496   2.491
 6893SOL     OW22575   8.874   7.342   7.418
 6893SOL    HW122576   8.883   7.432   7.447
 6893SOL    HW222577   8.894   7.289   7.495
 6894SOL     OW22578  14.264   6.162   3.081
 6894SOL    HW122579  14.223   6.204   3.156
 6894SOL    HW222580  14.246   6.069   3.093
 6895SOL     OW22581   2.781  12.151   3.950
 6895SOL    HW122582   2.755  12.061   3.933
 6895SOL    HW222583   2.853  12.145   4.012
 6896SOL     OW22584   4.585  10.704   6.003
 6896SOL    HW122585   4.647  10.761   5.957
 6896SOL    HW222586   4.552  10.644   5.936
 6897SOL     OW22587   5.387  11.129   0.203
 6897SOL    HW122588   5.321  11.066   0.175
 6897SOL    HW222589   5.376  11.204   0.145
 6898SOL     OW22590   1.904   2.388  10.303
 6898SOL    HW122591   1.856   2.377  10.385
 6898SOL    HW222592   1.866   2.466  10.263
 6899SOL     OW22593   2.456  13.568   3.290
 6899SOL    HW122594   2.363  13.548   3.297
 6899SOL    HW222595   2.493  13.492   3.245
 6900SOL     OW22596  14.485   7.064  11.149
 6900SOL    HW122597  14.491   7.122  11.073
 6900SOL    HW222598  14.487   6.976  11.111
 6901SOL     OW22599   9.244   0.717  12.898
 6901SOL    HW122600   9.263   0.667  12.818
 6901SOL    HW222601   9.151   0.698  12.915
 6902SOL     OW22602  14.289   3.979  11.355
 6902SOL    HW122603  14.294   3.898  11.405
 6902SOL    HW222604  14.245   4.041  11.414
 6903SOL     OW22605   0.501  14.767  10.189
 6903SOL    HW122606   0.406  14.770  10.193
 6903SOL    HW222607   0.521  14.785  10.097
 6904SOL     OW22608   2.203  11.950   1.654
 6904SOL    HW122609   2.146  12.022   1.627
 6904SOL    HW222610   2.252  11.928   1.574
 6905SOL     OW22611   9.835   6.295   8.656
 6905SOL    HW122612   9.787   6.317   8.576
 6905SOL    HW222613   9.844   6.200   8.654
 6906SOL     OW22614   1.298  10.678  10.951
 6906SOL    HW122615   1.205  10.703  10.952
 6906SOL    HW222616   1.336  10.723  11.026
 6907SOL     OW22617  10.857   2.406   8.602
 6907SOL    HW122618  10.797   2.376   8.670
 6907SOL    HW222619  10.812   2.384   8.520
 6908SOL     OW22620  13.911   3.062   8.281
 6908SOL    HW122621  13.960   2.991   8.323
 6908SOL    HW222622  13.869   3.021   8.206
 6909SOL     OW22623   2.963   1.993   7.626
 6909SOL    HW122624   2.955   2.029   7.715
 6909SOL    HW222625   3.034   2.043   7.586
 6910SOL     OW22626   7.572  13.449  12.136
 6910SOL    HW122627   7.556  13.396  12.058
 6910SOL    HW222628   7.540  13.396  12.208
 6911SOL     OW22629  10.973  12.169   3.910
 6911SOL    HW122630  10.953  12.233   3.842
 6911SOL    HW222631  10.897  12.170   3.967
 6912SOL     OW22632   2.178   8.090   9.287
 6912SOL    HW122633   2.239   8.150   9.332
 6912SOL    HW222634   2.123   8.056   9.358
 6913SOL     OW22635  10.079   7.533   7.761
 6913SOL    HW122636  10.131   7.543   7.682
 6913SOL    HW222637  10.023   7.611   7.763
 6914SOL     OW22638   8.851   2.821   4.733
 6914SOL    HW122639   8.815   2.748   4.784
 6914SOL    HW222640   8.940   2.793   4.711
 6915SOL     OW22641   9.165   8.526   4.045
 6915SOL    HW122642   9.185   8.587   4.117
 6915SOL    HW222643   9.244   8.473   4.036
 6916SOL     OW22644   9.921   4.094   0.762
 6916SOL    HW122645   9.989   4.052   0.815
 6916SOL    HW222646   9.893   4.169   0.814
 6917SOL     OW22647   4.764   1.359   6.234
 6917SOL    HW122648   4.812   1.415   6.173
 6917SOL    HW222649   4.725   1.291   6.178
 6918SOL     OW22650   3.937   1.352   8.803
 6918SOL    HW122651   3.868   1.404   8.763
 6918SOL    HW222652   3.910   1.261   8.788
 6919SOL     OW22653  10.527  12.113   8.555
 6919SOL    HW122654  10.456  12.136   8.615
 6919SOL    HW222655  10.604  12.159   8.590
 6920SOL     OW22656  12.460  13.291  11.137
 6920SOL    HW122657  12.445  13.385  11.147
 6920SOL    HW222658  12.427  13.271  11.049
 6921SOL     OW22659   3.235   3.788   7.171
 6921SOL    HW122660   3.145   3.785   7.202
 6921SOL    HW222661   3.230   3.763   7.079
 6922SOL     OW22662   0.379  11.570   9.735
 6922SOL    HW122663   0.312  11.516   9.692
 6922SOL    HW222664   0.329  11.641   9.776
 6923SOL     OW22665   4.138   8.924   6.444
 6923SOL    HW122666   4.229   8.952   6.450
 6923SOL    HW222667   4.105   8.932   6.534
 6924SOL     OW22668   6.826  13.387   9.641
 6924SOL    HW122669   6.801  13.393   9.734
 6924SOL    HW222670   6.828  13.294   9.622
 6925SOL     OW22671  11.479   5.470   6.892
 6925SOL    HW122672  11.407   5.406   6.887
 6925SOL    HW222673  11.440   5.553   6.864
 6926SOL     OW22674   8.298   6.842   7.488
 6926SOL    HW122675   8.358   6.788   7.538
 6926SOL    HW222676   8.224   6.785   7.468
 6927SOL     OW22677   4.055   0.283  11.928
 6927SOL    HW122678   4.111   0.302  12.003
 6927SOL    HW222679   4.051   0.365  11.879
 6928SOL     OW22680   7.771   5.851   4.273
 6928SOL    HW122681   7.857   5.892   4.278
 6928SOL    HW222682   7.719   5.911   4.219
 6929SOL     OW22683   1.131   7.168  11.204
 6929SOL    HW122684   1.079   7.106  11.255
 6929SOL    HW222685   1.219   7.161  11.239
 6930SOL     OW22686  10.778   7.530   1.534
 6930SOL    HW122687  10.867   7.540   1.566
 6930SOL    HW222688  10.786   7.524   1.439
 6931SOL     OW22689   4.100   8.708   9.970
 6931SOL    HW122690   4.181   8.759   9.966
 6931SOL    HW222691   4.062   8.717   9.883
 6932SOL     OW22692   7.663   0.254   6.585
 6932SOL    HW122693   7.589   0.226   6.638
 6932SOL    HW222694   7.652   0.208   6.502
 6933SOL     OW22695   7.986   3.909   5.833
 6933SOL    HW122696   8.000   3.866   5.917
 6933SOL    HW222697   7.909   3.867   5.796
 6934SOL     OW22698   4.272  13.473   1.848
 6934SOL    HW122699   4.289  13.552   1.797
 6934SOL    HW222700   4.354  13.454   1.893
 6935SOL     OW22701   3.424   2.151  11.874
 6935SOL    HW122702   3.399   2.186  11.960
 6935SOL    HW222703   3.356   2.182  11.814
 6936SOL     OW22704  13.985   0.863  13.783
 6936SOL    HW122705  14.027   0.892  13.864
 6936SOL    HW222706  14.055   0.866  13.718
 6937SOL     OW22707   5.586  12.965  10.186
 6937SOL    HW122708   5.542  12.902  10.243
 6937SOL    HW222709   5.657  12.916  10.145
 6938SOL     OW22710  10.725   1.945   4.547
 6938SOL    HW122711  10.698   1.865   4.593
 6938SOL    HW222712  10.681   2.015   4.595
 6939SOL     OW22713   8.097   7.901  10.663
 6939SOL    HW122714   8.019   7.916  10.609
 6939SOL    HW222715   8.069   7.926  10.751
 6940SOL     OW22716   7.322   2.980   6.080
 6940SOL    HW122717   7.338   3.073   6.096
 6940SOL    HW222718   7.277   2.949   6.158
 6941SOL     OW22719   1.889   6.931   8.582
 6941SOL    HW122720   1.941   7.010   8.571
 6941SOL    HW222721   1.929   6.885   8.656
 6942SOL     OW22722   4.191   2.785   9.984
 6942SOL    HW122723   4.279   2.814   9.959
 6942SOL    HW222724   4.134   2.856   9.954
 6943SOL     OW22725  10.663   1.058   1.737
 6943SOL    HW122726  10.736   1.018   1.784
 6943SOL    HW222727  10.621   1.115   1.802
 6944SOL     OW22728   9.434  14.661   3.753
 6944SOL    HW122729   9.469  14.747   3.730
 6944SOL    HW222730   9.473  14.640   3.838
 6945SOL     OW22731  12.788   9.029  13.145
 6945SOL    HW122732  12.733   8.999  13.217
 6945SOL    HW222733  12.781   8.960  13.079
 6946SOL     OW22734  13.262   6.272  11.454
 6946SOL    HW122735  13.170   6.298  11.458
 6946SOL    HW222736  13.299   6.301  11.537
 6947SOL     OW22737   2.998   6.477   7.501
 6947SOL    HW122738   2.931   6.535   7.537
 6947SOL    HW222739   3.080   6.508   7.542
 6948SOL     OW22740   8.055   4.720   1.101
 6948SOL    HW122741   8.011   4.746   1.182
 6948SOL    HW222742   8.129   4.781   1.093
 6949SOL     OW22743  12.288  11.834  11.781
 6949SOL    HW122744  12.381  11.853  11.794
 6949SOL    HW222745  12.269  11.762  11.841
 6950SOL     OW22746   8.579  13.034   7.308
 6950SOL    HW122747   8.664  13.021   7.351
 6950SOL    HW222748   8.563  13.128   7.315
 6951SOL     OW22749   0.854   2.550   4.848
 6951SOL    HW122750   0.775   2.573   4.799
 6951SOL    HW222751   0.918   2.526   4.782
 6952SOL     OW22752   5.313  12.160   0.695
 6952SOL    HW122753   5.258  12.083   0.688
 6952SOL    HW222754   5.402  12.126   0.686
 6953SOL     OW22755  13.126   6.403  10.150
 6953SOL    HW122756  13.156   6.317  10.180
 6953SOL    HW222757  13.131   6.459  10.228
 6954SOL     OW22758   6.196   3.790   5.653
 6954SOL    HW122759   6.261   3.759   5.716
 6954SOL    HW222760   6.129   3.833   5.706
 6955SOL     OW22761  12.377   6.523   5.665
 6955SOL    HW122762  12.286   6.504   5.685
 6955SOL    HW222763  12.427   6.472   5.729
 6956SOL     OW22764  13.147   5.209  12.795
 6956SOL    HW122765  13.060   5.238  12.822
 6956SOL    HW222766  13.139   5.114  12.786
 6957SOL     OW22767   5.617   4.668   7.468
 6957SOL    HW122768   5.560   4.729   7.515
 6957SOL    HW222769   5.565   4.640   7.392
 6958SOL     OW22770   6.901   4.429   9.534
 6958SOL    HW122771   6.931   4.518   9.552
 6958SOL    HW222772   6.811   4.439   9.505
 6959SOL     OW22773   1.096   9.578   3.419
 6959SOL    HW122774   1.089   9.639   3.493
 6959SOL    HW222775   1.017   9.524   3.426
 6960SOL     OW22776   2.976   8.588   6.677
 6960SOL    HW122777   2.982   8.641   6.598
 6960SOL    HW222778   2.921   8.514   6.653
 6961SOL     OW22779   3.091   0.535  13.776
 6961SOL    HW122780   3.016   0.546  13.834
 6961SOL    HW222781   3.098   0.441  13.763
 6962SOL     OW22782  12.723  11.961   9.855
 6962SOL    HW122783  12.737  12.049   9.819
 6962SOL    HW222784  12.642  11.969   9.906
 6963SOL     OW22785   9.693   7.191   3.239
 6963SOL    HW122786   9.614   7.160   3.283
 6963SOL    HW222787   9.667   7.200   3.147
 6964SOL     OW22788  11.436  11.405  14.120
 6964SOL    HW122789  11.383  11.462  14.064
 6964SOL    HW222790  11.400  11.417  14.207
 6965SOL     OW22791   0.545   0.757   7.436
 6965SOL    HW122792   0.520   0.668   7.463
 6965SOL    HW222793   0.496   0.814   7.495
 6966SOL     OW22794  10.745   9.206   2.327
 6966SOL    HW122795  10.770   9.128   2.378
 6966SOL    HW222796  10.650   9.201   2.320
 6967SOL     OW22797   1.705   7.739   8.315
 6967SOL    HW122798   1.735   7.652   8.292
 6967SOL    HW222799   1.653   7.768   8.240
 6968SOL     OW22800   2.026  11.621   4.337
 6968SOL    HW122801   2.083  11.679   4.388
 6968SOL    HW222802   2.085  11.556   4.299
 6969SOL     OW22803   0.808   2.140  11.508
 6969SOL    HW122804   0.766   2.216  11.547
 6969SOL    HW222805   0.767   2.065  11.550
 6970SOL     OW22806  12.800   5.261  11.705
 6970SOL    HW122807  12.867   5.268  11.636
 6970SOL    HW222808  12.799   5.347  11.746
 6971SOL     OW22809   2.692   4.367  14.335
 6971SOL    HW122810   2.639   4.288  14.320
 6971SOL    HW222811   2.652   4.408  14.412
 6972SOL     OW22812   5.635   0.672   7.593
 6972SOL    HW122813   5.579   0.693   7.519
 6972SOL    HW222814   5.692   0.603   7.561
 6973SOL     OW22815   3.101  13.445   1.454
 6973SOL    HW122816   3.051  13.415   1.530
 6973SOL    HW222817   3.193  13.434   1.481
 6974SOL     OW22818  14.879  10.743   8.851
 6974SOL    HW122819   0.010  10.837   8.846
 6974SOL    HW222820   0.085  10.706   8.846
 6975SOL     OW22821  14.249   1.309  11.315
 6975SOL    HW122822  14.296   1.228  11.331
 6975SOL    HW222823  14.215   1.300  11.226
 6976SOL     OW22824  13.151   5.379   7.653
 6976SOL    HW122825  13.179   5.348   7.739
 6976SOL    HW222826  13.087   5.448   7.672
 6977SOL     OW22827  13.513   3.669  14.308
 6977SOL    HW122828  13.492   3.702  14.396
 6977SOL    HW222829  13.609   3.673  14.303
 6978SOL     OW22830   4.306   3.413  14.293
 6978SOL    HW122831   4.365   3.377  14.226
 6978SOL    HW222832   4.346   3.496  14.318
 6979SOL     OW22833  12.056   6.824   9.799
 6979SOL    HW122834  12.009   6.796   9.721
 6979SOL    HW222835  12.130   6.874   9.766
 6980SOL     OW22836   9.752   0.083   7.249
 6980SOL    HW122837   9.662   0.111   7.233
 6980SOL    HW222838   9.743   0.008   7.308
 6981SOL     OW22839   1.950   7.003  13.436
 6981SOL    HW122840   1.908   6.918  13.449
 6981SOL    HW222841   1.916   7.034  13.352
 6982SOL     OW22842   8.802   7.830   8.001
 6982SOL    HW122843   8.788   7.886   7.925
 6982SOL    HW222844   8.782   7.886   8.076
 6983SOL     OW22845   7.383  14.397   9.985
 6983SOL    HW122846   7.325  14.344   9.930
 6983SOL    HW222847   7.369  14.487   9.956
 6984SOL     OW22848   5.505   3.349   7.310
 6984SOL    HW122849   5.528   3.256   7.310
 6984SOL    HW222850   5.464   3.364   7.395
 6985SOL     OW22851   1.057   2.014   4.444
 6985SOL    HW122852   0.963   2.000   4.453
 6985SOL    HW222853   1.070   2.040   4.353
 6986SOL     OW22854   8.201  12.044  14.052
 6986SOL    HW122855   8.176  12.070  13.964
 6986SOL    HW222856   8.242  12.122  14.089
 6987SOL     OW22857  10.277  13.072   8.172
 6987SOL    HW122858  10.199  13.054   8.224
 6987SOL    HW222859  10.332  12.994   8.185
 6988SOL     OW22860  12.000  14.478  12.553
 6988SOL    HW122861  11.989  14.410  12.486
 6988SOL    HW222862  12.094  14.498  12.550
 6989SOL     OW22863  11.749  13.835  10.580
 6989SOL    HW122864  11.728  13.801  10.494
 6989SOL    HW222865  11.766  13.757  10.634
 6990SOL     OW22866   4.327  11.055   5.124
 6990SOL    HW122867   4.362  11.117   5.188
 6990SOL    HW222868   4.287  10.986   5.177
 6991SOL     OW22869  13.913  14.387   1.378
 6991SOL    HW122870  13.905  14.294   1.395
 6991SOL    HW222871  13.906  14.428   1.464
 6992SOL     OW22872  13.579   0.759   6.094
 6992SOL    HW122873  13.492   0.721   6.101
 6992SOL    HW222874  13.636   0.700   6.144
 6993SOL     OW22875   6.196   1.187  14.025
 6993SOL    HW122876   6.182   1.281  14.036
 6993SOL    HW222877   6.109   1.148  14.033
 6994SOL     OW22878   4.268   6.678  10.148
 6994SOL    HW122879   4.297   6.752  10.095
 6994SOL    HW222880   4.346   6.649  10.195
 6995SOL     OW22881   6.366   9.583   0.958
 6995SOL    HW122882   6.427   9.656   0.958
 6995SOL    HW222883   6.422   9.505   0.959
 6996SOL     OW22884   7.378   3.777   9.853
 6996SOL    HW122885   7.332   3.755   9.772
 6996SOL    HW222886   7.399   3.870   9.845
 6997SOL     OW22887   2.707  13.855   7.587
 6997SOL    HW122888   2.619  13.882   7.560
 6997SOL    HW222889   2.740  13.930   7.636
 6998SOL     OW22890   1.310   8.610  10.702
 6998SOL    HW122891   1.344   8.644  10.619
 6998SOL    HW222892   1.256   8.535  10.677
 6999SOL     OW22893  12.244   0.847   1.677
 6999SOL    HW122894  12.306   0.776   1.657
 6999SOL    HW222895  12.258   0.911   1.607
 7000SOL     OW22896   0.903  12.772  14.195
 7000SOL    HW122897   0.953  12.766  14.277
 7000SOL    HW222898   0.840  12.700  14.200
 7001SOL     OW22899   1.419  10.363   6.064
 7001SOL    HW122900   1.372  10.301   6.009
 7001SOL    HW222901   1.480  10.310   6.114
 7002SOL     OW22902  13.148   7.545  14.846
 7002SOL    HW122903  13.150   7.449  14.855
 7002SOL    HW222904  13.199   7.562  14.766
 7003SOL     OW22905  11.588   6.124   2.336
 7003SOL    HW122906  11.616   6.092   2.421
 7003SOL    HW222907  11.655   6.189   2.312
 7004SOL     OW22908   5.994   6.408  13.878
 7004SOL    HW122909   6.058   6.383  13.812
 7004SOL    HW222910   5.965   6.496  13.852
 7005SOL     OW22911   5.107   5.615   9.597
 7005SOL    HW122912   5.174   5.621   9.529
 7005SOL    HW222913   5.126   5.688   9.656
 7006SOL     OW22914   1.052   9.608  11.825
 7006SOL    HW122915   0.966   9.650  11.823
 7006SOL    HW222916   1.033   9.515  11.835
 7007SOL     OW22917   6.920   3.144  13.024
 7007SOL    HW122918   6.858   3.087  12.978
 7007SOL    HW222919   6.899   3.232  12.995
 7008SOL     OW22920   1.581   3.194   4.035
 7008SOL    HW122921   1.573   3.268   3.975
 7008SOL    HW222922   1.673   3.193   4.061
 7009SOL     OW22923  10.478   8.362   1.233
 7009SOL    HW122924  10.571   8.359   1.212
 7009SOL    HW222925  10.460   8.455   1.248
 7010SOL     OW22926   6.785   7.681  13.098
 7010SOL    HW122927   6.857   7.620  13.087
 7010SOL    HW222928   6.735   7.676  13.017
 7011SOL     OW22929  10.720   8.258  12.430
 7011SOL    HW122930  10.713   8.211  12.513
 7011SOL    HW222931  10.770   8.336  12.451
 7012SOL     OW22932   6.599   5.510  13.225
 7012SOL    HW122933   6.634   5.559  13.151
 7012SOL    HW222934   6.529   5.457  13.187
 7013SOL     OW22935   7.102   8.453   8.637
 7013SOL    HW122936   7.087   8.374   8.585
 7013SOL    HW222937   7.190   8.443   8.673
 7014SOL     OW22938   1.538   6.834   1.929
 7014SOL    HW122939   1.554   6.750   1.886
 7014SOL    HW222940   1.520   6.894   1.856
 7015SOL     OW22941   8.285  14.728  13.417
 7015SOL    HW122942   8.256  14.646  13.457
 7015SOL    HW222943   8.217  14.792  13.439
 7016SOL     OW22944  13.687  13.849   8.283
 7016SOL    HW122945  13.754  13.784   8.305
 7016SOL    HW222946  13.608  13.797   8.268
 7017SOL     OW22947  10.322  12.963  13.201
 7017SOL    HW122948  10.343  12.936  13.290
 7017SOL    HW222949  10.231  12.994  13.205
 7018SOL     OW22950   1.256   6.970   3.898
 7018SOL    HW122951   1.217   6.885   3.921
 7018SOL    HW222952   1.336   6.975   3.950
 7019SOL     OW22953   9.070  12.994  10.631
 7019SOL    HW122954   9.096  13.023  10.543
 7019SOL    HW222955   9.119  13.051  10.690
 7020SOL     OW22956   2.678  14.601   4.998
 7020SOL    HW122957   2.694  14.695   4.998
 7020SOL    HW222958   2.697  14.574   4.908
 7021SOL     OW22959   6.514  11.176  12.133
 7021SOL    HW122960   6.587  11.136  12.084
 7021SOL    HW222961   6.499  11.116  12.206
 7022SOL     OW22962   7.092   6.324   7.779
 7022SOL    HW122963   7.051   6.401   7.820
 7022SOL    HW222964   7.180   6.321   7.817
 7023SOL     OW22965   9.757   5.315   9.462
 7023SOL    HW122966   9.796   5.399   9.435
 7023SOL    HW222967   9.784   5.253   9.394
 7024SOL     OW22968   6.153   0.136  11.027
 7024SOL    HW122969   6.193   0.056  11.062
 7024SOL    HW222970   6.060   0.127  11.048
 7025SOL     OW22971  11.722   4.224   0.906
 7025SOL    HW122972  11.762   4.305   0.876
 7025SOL    HW222973  11.792   4.159   0.901
 7026SOL     OW22974  14.226   3.326   0.109
 7026SOL    HW122975  14.258   3.293   0.193
 7026SOL    HW222976  14.131   3.313   0.112
 7027SOL     OW22977   1.315   8.556   0.782
 7027SOL    HW122978   1.326   8.580   0.874
 7027SOL    HW222979   1.267   8.473   0.783
 7028SOL     OW22980   3.612   3.173  14.516
 7028SOL    HW122981   3.615   3.259  14.558
 7028SOL    HW222982   3.518   3.155  14.505
 7029SOL     OW22983  13.012   6.568  11.007
 7029SOL    HW122984  13.055   6.563  11.092
 7029SOL    HW222985  13.064   6.631  10.958
 7030SOL     OW22986  12.518   8.825   6.285
 7030SOL    HW122987  12.510   8.900   6.344
 7030SOL    HW222988  12.470   8.755   6.329
 7031SOL     OW22989  12.717  10.427  10.049
 7031SOL    HW122990  12.654  10.386   9.990
 7031SOL    HW222991  12.716  10.519  10.024
 7032SOL     OW22992   0.470   1.047   0.736
 7032SOL    HW122993   0.484   1.021   0.645
 7032SOL    HW222994   0.376   1.034   0.750
 7033SOL     OW22995  12.514   9.002   4.635
 7033SOL    HW122996  12.489   8.923   4.684
 7033SOL    HW222997  12.563   8.969   4.560
 7034SOL     OW22998   2.087  11.401   2.699
 7034SOL    HW122999   2.152  11.377   2.765
 7034SOL    HW223000   2.126  11.475   2.653
 7035SOL     OW23001   0.149   3.087   9.367
 7035SOL    HW123002   0.130   3.012   9.422
 7035SOL    HW223003   0.108   3.161   9.412
 7036SOL     OW23004   3.342  13.142  10.011
 7036SOL    HW123005   3.437  13.154  10.016
 7036SOL    HW223006   3.312  13.148  10.102
 7037SOL     OW23007  10.201   2.384  13.302
 7037SOL    HW123008  10.115   2.366  13.264
 7037SOL    HW223009  10.205   2.479  13.310
 7038SOL     OW23010  13.252   0.985  13.781
 7038SOL    HW123011  13.217   1.030  13.858
 7038SOL    HW223012  13.345   0.974  13.800
 7039SOL     OW23013   0.304   1.759   9.382
 7039SOL    HW123014   0.357   1.772   9.304
 7039SOL    HW223015   0.354   1.799   9.453
 7040SOL     OW23016  10.835   4.183   7.731
 7040SOL    HW123017  10.909   4.134   7.768
 7040SOL    HW223018  10.824   4.147   7.643
 7041SOL     OW23019  12.819   2.242  11.073
 7041SOL    HW123020  12.902   2.198  11.056
 7041SOL    HW223021  12.756   2.170  11.083
 7042SOL     OW23022   5.578   2.598  12.451
 7042SOL    HW123023   5.637   2.525  12.470
 7042SOL    HW223024   5.490   2.564  12.467
 7043SOL     OW23025   9.793  11.297   5.688
 7043SOL    HW123026   9.764  11.300   5.597
 7043SOL    HW223027   9.713  11.281   5.738
 7044SOL     OW23028   0.704   1.397   0.281
 7044SOL    HW123029   0.687   1.464   0.348
 7044SOL    HW223030   0.642   1.327   0.301
 7045SOL     OW23031   7.397   1.990   3.617
 7045SOL    HW123032   7.364   2.073   3.650
 7045SOL    HW223033   7.441   1.950   3.692
 7046SOL     OW23034   4.209   0.759  14.016
 7046SOL    HW123035   4.262   0.680  14.028
 7046SOL    HW223036   4.136   0.731  13.961
 7047SOL     OW23037   0.562  10.354  11.941
 7047SOL    HW123038   0.484  10.410  11.945
 7047SOL    HW223039   0.609  10.374  12.022
 7048SOL     OW23040   6.195  13.364   1.347
 7048SOL    HW123041   6.107  13.356   1.383
 7048SOL    HW223042   6.206  13.458   1.331
 7049SOL     OW23043  12.155   6.237   7.793
 7049SOL    HW123044  12.115   6.307   7.741
 7049SOL    HW223045  12.216   6.195   7.733
 7050SOL     OW23046   3.750  13.858   7.849
 7050SOL    HW123047   3.790  13.784   7.804
 7050SOL    HW223048   3.670  13.823   7.887
 7051SOL     OW23049   0.198  12.152   2.675
 7051SOL    HW123050   0.287  12.144   2.709
 7051SOL    HW223051   0.209  12.174   2.583
 7052SOL     OW23052   5.742  10.171   5.030
 7052SOL    HW123053   5.726  10.153   4.938
 7052SOL    HW223054   5.833  10.201   5.034
 7053SOL     OW23055   9.383   9.558  11.193
 7053SOL    HW123056   9.430   9.502  11.254
 7053SOL    HW223057   9.383   9.509  11.110
 7054SOL     OW23058   0.333  12.565   8.862
 7054SOL    HW123059   0.416  12.518   8.847
 7054SOL    HW223060   0.311  12.545   8.953
 7055SOL     OW23061  10.242   5.207   3.773
 7055SOL    HW123062  10.155   5.230   3.740
 7055SOL    HW223063  10.225   5.157   3.852
 7056SOL     OW23064   6.920  10.399  10.509
 7056SOL    HW123065   6.886  10.469  10.453
 7056SOL    HW223066   6.847  10.338  10.518
 7057SOL     OW23067   0.349   4.371   2.486
 7057SOL    HW123068   0.351   4.424   2.565
 7057SOL    HW223069   0.375   4.431   2.416
 7058SOL     OW23070   9.875   9.263   6.130
 7058SOL    HW123071   9.907   9.226   6.212
 7058SOL    HW223072   9.811   9.329   6.157
 7059SOL     OW23073   3.533   2.121  11.557
 7059SOL    HW123074   3.521   2.203  11.508
 7059SOL    HW223075   3.445   2.098  11.587
 7060SOL     OW23076   8.348   4.262   8.914
 7060SOL    HW123077   8.311   4.174   8.903
 7060SOL    HW223078   8.299   4.299   8.987
 7061SOL     OW23079  13.167   2.203  12.401
 7061SOL    HW123080  13.098   2.214  12.336
 7061SOL    HW223081  13.146   2.121  12.446
 7062SOL     OW23082   6.089  10.183   0.753
 7062SOL    HW123083   6.066  10.191   0.846
 7062SOL    HW223084   6.139  10.101   0.748
 7063SOL     OW23085   4.405  11.234  14.581
 7063SOL    HW123086   4.491  11.278  14.588
 7063SOL    HW223087   4.417  11.151  14.627
 7064SOL     OW23088   6.763   5.040   3.869
 7064SOL    HW123089   6.831   4.990   3.915
 7064SOL    HW223090   6.727   4.978   3.805
 7065SOL     OW23091   4.018  12.777  13.472
 7065SOL    HW123092   3.933  12.744  13.499
 7065SOL    HW223093   4.070  12.778  13.552
 7066SOL     OW23094  10.240   8.397   0.886
 7066SOL    HW123095  10.208   8.357   0.805
 7066SOL    HW223096  10.268   8.323   0.940
 7067SOL     OW23097  10.663  13.426  11.764
 7067SOL    HW123098  10.758  13.428  11.769
 7067SOL    HW223099  10.643  13.342  11.723
 7068SOL     OW23100   8.888  13.357   2.499
 7068SOL    HW123101   8.870  13.376   2.407
 7068SOL    HW223102   8.874  13.262   2.506
 7069SOL     OW23103   3.250   4.971  12.605
 7069SOL    HW123104   3.304   4.993  12.529
 7069SOL    HW223105   3.257   5.048  12.662
 7070SOL     OW23106   5.290   2.040   0.562
 7070SOL    HW123107   5.282   1.947   0.542
 7070SOL    HW223108   5.304   2.082   0.477
 7071SOL     OW23109  12.371  10.643  11.358
 7071SOL    HW123110  12.447  10.588  11.340
 7071SOL    HW223111  12.324  10.647  11.275
 7072SOL     OW23112   5.976  12.853   2.350
 7072SOL    HW123113   6.064  12.819   2.331
 7072SOL    HW223114   5.980  12.881   2.441
 7073SOL     OW23115  10.719   7.360   8.081
 7073SOL    HW123116  10.740   7.449   8.108
 7073SOL    HW223117  10.627   7.349   8.106
 7074SOL     OW23118   7.587   8.359   6.123
 7074SOL    HW123119   7.639   8.439   6.129
 7074SOL    HW223120   7.651   8.288   6.129
 7075SOL     OW23121  14.208   3.632   9.380
 7075SOL    HW123122  14.202   3.727   9.364
 7075SOL    HW223123  14.147   3.616   9.453
 7076SOL     OW23124  12.937  11.502  11.927
 7076SOL    HW123125  13.007  11.508  11.862
 7076SOL    HW223126  12.968  11.556  12.000
 7077SOL     OW23127   3.163   0.735   2.864
 7077SOL    HW123128   3.253   0.734   2.832
 7077SOL    HW223129   3.129   0.821   2.839
 7078SOL     OW23130  13.852   7.793  10.568
 7078SOL    HW123131  13.773   7.842  10.545
 7078SOL    HW223132  13.822   7.704  10.583
 7079SOL     OW23133  13.052   0.945  12.276
 7079SOL    HW123134  12.980   1.007  12.263
 7079SOL    HW223135  13.024   0.865  12.232
 7080SOL     OW23136   6.024  12.718   3.071
 7080SOL    HW123137   6.104  12.695   3.024
 7080SOL    HW223138   6.046  12.799   3.116
 7081SOL     OW23139   8.725   7.691  12.994
 7081SOL    HW123140   8.779   7.628  12.946
 7081SOL    HW223141   8.787   7.739  13.049
 7082SOL     OW23142  11.760   7.840   6.009
 7082SOL    HW123143  11.685   7.781   6.019
 7082SOL    HW223144  11.826   7.806   6.069
 7083SOL     OW23145  11.689   9.654  12.081
 7083SOL    HW123146  11.747   9.589  12.040
 7083SOL    HW223147  11.646   9.607  12.152
 7084SOL     OW23148   8.882   2.212  14.762
 7084SOL    HW123149   8.845   2.271  14.696
 7084SOL    HW223150   8.895   2.268  14.839
 7085SOL     OW23151   3.778   3.877   2.304
 7085SOL    HW123152   3.743   3.939   2.368
 7085SOL    HW223153   3.721   3.888   2.227
 7086SOL     OW23154   7.720   1.270   5.247
 7086SOL    HW123155   7.744   1.361   5.264
 7086SOL    HW223156   7.715   1.230   5.334
 7087SOL     OW23157   6.069  11.371   7.887
 7087SOL    HW123158   5.988  11.363   7.937
 7087SOL    HW223159   6.095  11.281   7.868
 7088SOL     OW23160   7.216  10.537   1.042
 7088SOL    HW123161   7.192  10.516   0.952
 7088SOL    HW223162   7.212  10.453   1.088
 7089SOL     OW23163  10.921  12.156   8.410
 7089SOL    HW123164  11.008  12.115   8.417
 7089SOL    HW223165  10.910  12.174   8.317
 7090SOL     OW23166   4.207  13.489   6.557
 7090SOL    HW123167   4.267  13.496   6.632
 7090SOL    HW223168   4.196  13.579   6.527
 7091SOL     OW23169  14.142  10.968   7.176
 7091SOL    HW123170  14.196  10.933   7.246
 7091SOL    HW223171  14.130  11.061   7.199
 7092SOL     OW23172   7.808   8.982   0.949
 7092SOL    HW123173   7.804   8.994   0.854
 7092SOL    HW223174   7.718   8.961   0.974
 7093SOL     OW23175   9.611   2.053   0.871
 7093SOL    HW123176   9.681   2.109   0.904
 7093SOL    HW223177   9.615   2.064   0.776
 7094SOL     OW23178   1.713   5.167   1.226
 7094SOL    HW123179   1.766   5.244   1.252
 7094SOL    HW223180   1.623   5.194   1.241
 7095SOL     OW23181   2.419   7.278  13.411
 7095SOL    HW123182   2.460   7.308  13.492
 7095SOL    HW223183   2.388   7.358  13.369
 7096SOL     OW23184  11.785   6.601   5.136
 7096SOL    HW123185  11.752   6.570   5.221
 7096SOL    HW223186  11.855   6.541   5.113
 7097SOL     OW23187   7.024  11.726  10.836
 7097SOL    HW123188   7.099  11.769  10.796
 7097SOL    HW223189   6.971  11.798  10.870
 7098SOL     OW23190   3.895   2.521  14.825
 7098SOL    HW123191   3.918   2.613  14.812
 7098SOL    HW223192   3.977   2.474  14.812
 7099SOL     OW23193  11.883  10.980   1.609
 7099SOL    HW123194  11.946  10.978   1.537
 7099SOL    HW223195  11.896  10.897   1.655
 7100SOL     OW23196   0.148   4.598   0.737
 7100SOL    HW123197   0.115   4.570   0.652
 7100SOL    HW223198   0.116   4.532   0.799
 7101SOL     OW23199  13.703   3.303   8.666
 7101SOL    HW123200  13.783   3.254   8.686
 7101SOL    HW223201  13.697   3.368   8.737
 7102SOL     OW23202   9.914  14.153   2.657
 7102SOL    HW123203   9.988  14.198   2.698
 7102SOL    HW223204   9.955  14.094   2.593
 7103SOL     OW23205   5.470   5.311  13.041
 7103SOL    HW123206   5.458   5.216  13.034
 7103SOL    HW223207   5.404   5.338  13.104
 7104SOL     OW23208   6.912  10.256   5.366
 7104SOL    HW123209   6.988  10.300   5.328
 7104SOL    HW223210   6.939  10.165   5.375
 7105SOL     OW23211   4.967   2.410   0.838
 7105SOL    HW123212   5.056   2.421   0.804
 7105SOL    HW223213   4.959   2.475   0.907
 7106SOL     OW23214  14.431   7.006   5.461
 7106SOL    HW123215  14.488   6.931   5.440
 7106SOL    HW223216  14.470   7.079   5.414
 7107SOL     OW23217   2.390   8.399  11.056
 7107SOL    HW123218   2.320   8.462  11.037
 7107SOL    HW223219   2.469   8.453  11.063
 7108SOL     OW23220   8.037   0.714   4.572
 7108SOL    HW123221   8.050   0.807   4.591
 7108SOL    HW223222   7.942   0.705   4.557
 7109SOL     OW23223   1.419   2.361   5.773
 7109SOL    HW123224   1.460   2.276   5.757
 7109SOL    HW223225   1.348   2.366   5.709
 7110SOL     OW23226  14.306   2.056  10.232
 7110SOL    HW123227  14.339   1.978  10.188
 7110SOL    HW223228  14.301   2.031  10.325
 7111SOL     OW23229  14.149  13.478   2.278
 7111SOL    HW123230  14.117  13.422   2.349
 7111SOL    HW223231  14.088  13.463   2.206
 7112SOL     OW23232   4.280   9.020  12.321
 7112SOL    HW123233   4.215   9.029  12.251
 7112SOL    HW223234   4.247   9.073  12.393
 7113SOL     OW23235   9.522  11.766   2.589
 7113SOL    HW123236   9.604  11.718   2.585
 7113SOL    HW223237   9.461  11.706   2.632
 7114SOL     OW23238   5.516   7.702  12.453
 7114SOL    HW123239   5.602   7.681  12.490
 7114SOL    HW223240   5.497   7.628  12.395
 7115SOL     OW23241  12.373   6.783  14.190
 7115SOL    HW123242  12.417   6.854  14.236
 7115SOL    HW223243  12.393   6.705  14.241
 7116SOL     OW23244  13.550  14.841  11.267
 7116SOL    HW123245  13.523  14.801  11.350
 7116SOL    HW223246  13.476  14.829  11.209
 7117SOL     OW23247  13.845  14.785  12.426
 7117SOL    HW123248  13.764  14.834  12.435
 7117SOL    HW223249  13.840  14.745  12.339
 7118SOL     OW23250   2.617   6.860   5.944
 7118SOL    HW123251   2.530   6.899   5.954
 7118SOL    HW223252   2.677   6.935   5.950
 7119SOL     OW23253   9.918   5.576   9.422
 7119SOL    HW123254   9.906   5.623   9.339
 7119SOL    HW223255   9.964   5.639   9.478
 7120SOL     OW23256   7.548   3.331   0.867
 7120SOL    HW123257   7.564   3.318   0.961
 7120SOL    HW223258   7.619   3.390   0.839
 7121SOL     OW23259  13.385  10.207  10.407
 7121SOL    HW123260  13.411  10.182  10.496
 7121SOL    HW223261  13.414  10.134  10.352
 7122SOL     OW23262  10.404   1.486   5.176
 7122SOL    HW123263  10.487   1.460   5.136
 7122SOL    HW223264  10.408   1.581   5.180
 7123SOL     OW23265   6.238  11.500   5.856
 7123SOL    HW123266   6.151  11.541   5.859
 7123SOL    HW223267   6.295  11.563   5.900
 7124SOL     OW23268  11.801   3.366   2.370
 7124SOL    HW123269  11.881   3.365   2.423
 7124SOL    HW223270  11.741   3.422   2.419
 7125SOL     OW23271   3.182   1.106   7.405
 7125SOL    HW123272   3.165   1.199   7.421
 7125SOL    HW223273   3.100   1.062   7.428
 7126SOL     OW23274   4.844  11.052   1.545
 7126SOL    HW123275   4.782  11.089   1.483
 7126SOL    HW223276   4.824  11.095   1.628
 7127SOL     OW23277  13.707  13.255   2.016
 7127SOL    HW123278  13.743  13.248   1.927
 7127SOL    HW223279  13.623  13.298   2.004
 7128SOL     OW23280   5.223   0.598   6.779
 7128SOL    HW123281   5.179   0.673   6.738
 7128SOL    HW223282   5.310   0.596   6.738
 7129SOL     OW23283   9.910   5.572   0.489
 7129SOL    HW123284   9.861   5.522   0.555
 7129SOL    HW223285   9.956   5.639   0.539
 7130SOL     OW23286   9.389   2.251   3.678
 7130SOL    HW123287   9.308   2.245   3.627
 7130SOL    HW223288   9.400   2.164   3.716
 7131SOL     OW23289   2.815   6.862  12.563
 7131SOL    HW123290   2.747   6.796  12.565
 7131SOL    HW223291   2.873   6.840  12.637
 7132SOL     OW23292  10.714  13.780   9.881
 7132SOL    HW123293  10.704  13.799   9.974
 7132SOL    HW223294  10.790  13.832   9.854
 7133SOL     OW23295   7.052  12.262  11.393
 7133SOL    HW123296   6.973  12.252  11.446
 7133SOL    HW223297   7.024  12.315  11.319
 7134SOL     OW23298   3.908   2.299   8.403
 7134SOL    HW123299   3.850   2.224   8.387
 7134SOL    HW223300   3.925   2.335   8.316
 7135SOL     OW23301   9.525   5.192  14.204
 7135SOL    HW123302   9.551   5.120  14.262
 7135SOL    HW223303   9.528   5.270  14.260
 7136SOL     OW23304   5.076   6.497   3.011
 7136SOL    HW123305   5.125   6.437   3.066
 7136SOL    HW223306   5.017   6.543   3.070
 7137SOL     OW23307   5.964   6.964   2.655
 7137SOL    HW123308   5.983   7.049   2.615
 7137SOL    HW223309   5.869   6.955   2.648
 7138SOL     OW23310   4.316  10.052   7.515
 7138SOL    HW123311   4.313  10.120   7.582
 7138SOL    HW223312   4.305  10.098   7.433
 7139SOL     OW23313  10.710  13.178   9.804
 7139SOL    HW123314  10.649  13.239   9.763
 7139SOL    HW223315  10.792  13.227   9.810
 7140SOL     OW23316   1.444  11.087   8.291
 7140SOL    HW123317   1.355  11.111   8.264
 7140SOL    HW223318   1.497  11.104   8.214
 7141SOL     OW23319   7.797   0.043  11.284
 7141SOL    HW123320   7.844   0.126  11.288
 7141SOL    HW223321   7.741   0.043  11.361
 7142SOL     OW23322  11.574   7.544   1.603
 7142SOL    HW123323  11.668   7.552   1.619
 7142SOL    HW223324  11.564   7.566   1.510
 7143SOL     OW23325  14.081   5.281   4.354
 7143SOL    HW123326  13.996   5.251   4.385
 7143SOL    HW223327  14.060   5.345   4.286
 7144SOL     OW23328   5.370   8.223   8.623
 7144SOL    HW123329   5.391   8.148   8.567
 7144SOL    HW223330   5.343   8.292   8.562
 7145SOL     OW23331  12.546   0.761  12.434
 7145SOL    HW123332  12.513   0.698  12.499
 7145SOL    HW223333  12.607   0.710  12.381
 7146SOL     OW23334   1.670   4.447   8.235
 7146SOL    HW123335   1.624   4.514   8.184
 7146SOL    HW223336   1.676   4.371   8.177
 7147SOL     OW23337   6.592   0.031  12.937
 7147SOL    HW123338   6.674  14.867  12.953
 7147SOL    HW223339   6.569   0.008  12.847
 7148SOL     OW23340  12.631  14.252   6.405
 7148SOL    HW123341  12.679  14.173   6.428
 7148SOL    HW223342  12.552  14.248   6.459
 7149SOL     OW23343   8.600  12.741   8.957
 7149SOL    HW123344   8.530  12.708   9.013
 7149SOL    HW223345   8.669  12.675   8.963
 7150SOL     OW23346  10.079  13.786   0.087
 7150SOL    HW123347   9.990  13.776   0.119
 7150SOL    HW223348  10.111  13.867   0.128
 7151SOL     OW23349   7.054   8.299  13.320
 7151SOL    HW123350   6.985   8.362  13.298
 7151SOL    HW223351   7.071   8.252  13.238
 7152SOL     OW23352  13.787   7.994   2.126
 7152SOL    HW123353  13.780   8.072   2.071
 7152SOL    HW223354  13.858   7.943   2.087
 7153SOL     OW23355   3.540   8.740  11.203
 7153SOL    HW123356   3.530   8.765  11.295
 7153SOL    HW223357   3.575   8.818  11.161
 7154SOL     OW23358   5.878   6.104   4.444
 7154SOL    HW123359   5.960   6.062   4.471
 7154SOL    HW223360   5.877   6.093   4.349
 7155SOL     OW23361   9.101  14.186   3.479
 7155SOL    HW123362   9.135  14.273   3.503
 7155SOL    HW223363   9.130  14.173   3.389
 7156SOL     OW23364  12.858  12.889  10.984
 7156SOL    HW123365  12.763  12.877  10.990
 7156SOL    HW223366  12.875  12.968  11.035
 7157SOL     OW23367   3.880   2.772   5.604
 7157SOL    HW123368   3.792   2.751   5.635
 7157SOL    HW223369   3.879   2.753   5.510
 7158SOL     OW23370   1.847  11.690  10.871
 7158SOL    HW123371   1.828  11.726  10.958
 7158SOL    HW223372   1.938  11.662  10.875
 7159SOL     OW23373  11.964   5.304   1.503
 7159SOL    HW123374  11.929   5.219   1.527
 7159SOL    HW223375  12.045   5.312   1.553
 7160SOL     OW23376  12.137  12.102   8.202
 7160SOL    HW123377  12.068  12.162   8.174
 7160SOL    HW223378  12.211  12.158   8.225
 7161SOL     OW23379   3.291   0.455   5.567
 7161SOL    HW123380   3.327   0.517   5.631
 7161SOL    HW223381   3.368   0.407   5.535
 7162SOL     OW23382   4.819  11.549  14.823
 7162SOL    HW123383   4.895  11.579  14.773
 7162SOL    HW223384   4.793  11.467  14.781
 7163SOL     OW23385  12.024   8.934  11.049
 7163SOL    HW123386  12.025   8.841  11.025
 7163SOL    HW223387  12.043   8.935  11.142
 7164SOL     OW23388   6.819   0.155   6.546
 7164SOL    HW123389   6.834   0.063   6.566
 7164SOL    HW223390   6.820   0.160   6.450
 7165SOL     OW23391   6.757   7.712   6.859
 7165SOL    HW123392   6.844   7.749   6.869
 7165SOL    HW223393   6.698   7.787   6.860
 7166SOL     OW23394  10.363   5.696  14.222
 7166SOL    HW123395  10.412   5.761  14.172
 7166SOL    HW223396  10.370   5.724  14.313
 7167SOL     OW23397   7.819   5.613   4.142
 7167SOL    HW123398   7.742   5.616   4.085
 7167SOL    HW223399   7.818   5.696   4.188
 7168SOL     OW23400   9.142  10.711   6.587
 7168SOL    HW123401   9.085  10.687   6.513
 7168SOL    HW223402   9.185  10.629   6.611
 7169SOL     OW23403   6.087  12.652   9.022
 7169SOL    HW123404   6.047  12.596   9.089
 7169SOL    HW223405   6.079  12.603   8.941
 7170SOL     OW23406   8.225  10.737   2.829
 7170SOL    HW123407   8.214  10.659   2.774
 7170SOL    HW223408   8.191  10.711   2.914
 7171SOL     OW23409   5.416   3.669  13.223
 7171SOL    HW123410   5.375   3.583  13.228
 7171SOL    HW223411   5.438   3.690  13.314
 7172SOL     OW23412   3.386  10.493   6.190
 7172SOL    HW123413   3.347  10.479   6.104
 7172SOL    HW223414   3.328  10.446   6.250
 7173SOL     OW23415   5.734   4.279   3.896
 7173SOL    HW123416   5.802   4.278   3.963
 7173SOL    HW223417   5.713   4.186   3.882
 7174SOL     OW23418   1.782   9.173   3.418
 7174SOL    HW123419   1.688   9.179   3.432
 7174SOL    HW223420   1.811   9.099   3.471
 7175SOL     OW23421  11.798   6.248   7.513
 7175SOL    HW123422  11.740   6.273   7.585
 7175SOL    HW223423  11.742   6.199   7.454
 7176SOL     OW23424  12.190   2.174   5.073
 7176SOL    HW123425  12.256   2.145   5.136
 7176SOL    HW223426  12.133   2.233   5.122
 7177SOL     OW23427   5.520   6.285   8.726
 7177SOL    HW123428   5.599   6.260   8.679
 7177SOL    HW223429   5.464   6.325   8.659
 7178SOL     OW23430   5.466  10.832  12.422
 7178SOL    HW123431   5.423  10.917  12.424
 7178SOL    HW223432   5.509  10.825  12.508
 7179SOL     OW23433   4.391  12.701  10.850
 7179SOL    HW123434   4.432  12.641  10.788
 7179SOL    HW223435   4.425  12.788  10.827
 7180SOL     OW23436  11.385   0.920   6.461
 7180SOL    HW123437  11.375   0.979   6.386
 7180SOL    HW223438  11.407   0.836   6.422
 7181SOL     OW23439   5.012   7.139   1.880
 7181SOL    HW123440   5.074   7.210   1.868
 7181SOL    HW223441   5.063   7.059   1.864
 7182SOL     OW23442  12.819  13.806   3.592
 7182SOL    HW123443  12.791  13.812   3.683
 7182SOL    HW223444  12.807  13.714   3.569
 7183SOL     OW23445  11.125   2.324  13.188
 7183SOL    HW123446  11.090   2.240  13.158
 7183SOL    HW223447  11.202   2.300  13.240
 7184SOL     OW23448   8.743   8.868  11.888
 7184SOL    HW123449   8.830   8.829  11.886
 7184SOL    HW223450   8.758   8.961  11.905
 7185SOL     OW23451  11.346   1.391   4.569
 7185SOL    HW123452  11.308   1.479   4.573
 7185SOL    HW223453  11.291   1.344   4.507
 7186SOL     OW23454  11.405   3.121   1.500
 7186SOL    HW123455  11.428   3.163   1.417
 7186SOL    HW223456  11.315   3.151   1.517
 7187SOL     OW23457   2.145   5.059   4.143
 7187SOL    HW123458   2.065   5.105   4.119
 7187SOL    HW223459   2.125   5.017   4.227
 7188SOL     OW23460   4.051  12.618  10.694
 7188SOL    HW123461   4.030  12.709  10.718
 7188SOL    HW223462   4.103  12.626  10.614
 7189SOL     OW23463  10.690  14.741   0.456
 7189SOL    HW123464  10.621  14.676   0.471
 7189SOL    HW223465  10.669  14.778   0.370
 7190SOL     OW23466   0.584  14.174   4.256
 7190SOL    HW123467   0.614  14.257   4.219
 7190SOL    HW223468   0.511  14.147   4.200
 7191SOL     OW23469   1.439  10.506  14.869
 7191SOL    HW123470   1.474  10.443  14.806
 7191SOL    HW223471   1.392  10.570  14.814
 7192SOL     OW23472  13.426   0.220   5.357
 7192SOL    HW123473  13.454   0.298   5.310
 7192SOL    HW223474  13.331   0.220   5.350
 7193SOL     OW23475  14.237  10.232   5.121
 7193SOL    HW123476  14.220  10.320   5.154
 7193SOL    HW223477  14.327  10.213   5.148
 7194SOL     OW23478   5.736   6.731   3.412
 7194SOL    HW123479   5.711   6.718   3.321
 7194SOL    HW223480   5.728   6.644   3.452
 7195SOL     OW23481   7.966  12.612   7.608
 7195SOL    HW123482   7.880  12.573   7.599
 7195SOL    HW223483   8.027  12.544   7.579
 7196SOL     OW23484   8.585   8.805   8.254
 7196SOL    HW123485   8.573   8.890   8.212
 7196SOL    HW223486   8.680   8.792   8.255
 7197SOL     OW23487   5.208   5.668   1.170
 7197SOL    HW123488   5.257   5.601   1.123
 7197SOL    HW223489   5.183   5.732   1.104
 7198SOL     OW23490   4.332   7.195   3.091
 7198SOL    HW123491   4.303   7.204   3.182
 7198SOL    HW223492   4.333   7.101   3.075
 7199SOL     OW23493   9.352   3.201   1.290
 7199SOL    HW123494   9.336   3.116   1.248
 7199SOL    HW223495   9.447   3.207   1.296
 7200SOL     OW23496   7.966   5.584   5.569
 7200SOL    HW123497   7.937   5.674   5.555
 7200SOL    HW223498   7.938   5.538   5.489
 7201SOL     OW23499   6.941   7.140   5.841
 7201SOL    HW123500   7.036   7.132   5.840
 7201SOL    HW223501   6.910   7.060   5.885
 7202SOL     OW23502   9.203  13.174  13.758
 7202SOL    HW123503   9.271  13.241  13.770
 7202SOL    HW223504   9.149  13.182  13.837
 7203SOL     OW23505   4.046   5.594   3.908
 7203SOL    HW123506   4.061   5.589   4.002
 7203SOL    HW223507   4.112   5.537   3.869
 7204SOL     OW23508   6.378   2.591   0.918
 7204SOL    HW123509   6.329   2.634   0.847
 7204SOL    HW223510   6.469   2.610   0.898
 7205SOL     OW23511   4.308   0.987   8.104
 7205SOL    HW123512   4.241   0.919   8.110
 7205SOL    HW223513   4.271   1.052   8.046
 7206SOL     OW23514  11.640   2.198  10.140
 7206SOL    HW123515  11.555   2.227  10.107
 7206SOL    HW223516  11.680   2.153  10.066
 7207SOL     OW23517   0.967  12.435   6.401
 7207SOL    HW123518   1.007  12.403   6.482
 7207SOL    HW223519   0.971  12.360   6.341
 7208SOL     OW23520  10.021  14.845   4.713
 7208SOL    HW123521   9.996  14.792   4.637
 7208SOL    HW223522  10.016  14.785   4.787
 7209SOL     OW23523   7.682  10.527   9.556
 7209SOL    HW123524   7.706  10.618   9.536
 7209SOL    HW223525   7.732  10.475   9.493
 7210SOL     OW23526  14.733  13.235  11.449
 7210SOL    HW123527  14.761  13.235  11.540
 7210SOL    HW223528  14.644  13.200  11.451
 7211SOL     OW23529  11.971   1.279   4.053
 7211SOL    HW123530  11.922   1.205   4.090
 7211SOL    HW223531  12.025   1.240   3.984
 7212SOL     OW23532   9.640  13.283   8.985
 7212SOL    HW123533   9.616  13.231   9.062
 7212SOL    HW223534   9.619  13.226   8.910
 7213SOL     OW23535  11.186   4.353  10.548
 7213SOL    HW123536  11.253   4.355  10.616
 7213SOL    HW223537  11.216   4.286  10.487
 7214SOL     OW23538   9.370   8.272   2.376
 7214SOL    HW123539   9.379   8.347   2.317
 7214SOL    HW223540   9.344   8.311   2.460
 7215SOL     OW23541  11.250   6.305   9.908
 7215SOL    HW123542  11.217   6.348   9.986
 7215SOL    HW223543  11.344   6.325   9.907
 7216SOL     OW23544  12.523  11.644   4.135
 7216SOL    HW123545  12.468  11.606   4.066
 7216SOL    HW223546  12.496  11.735   4.141
 7217SOL     OW23547   1.368   5.638  13.286
 7217SOL    HW123548   1.333   5.578  13.220
 7217SOL    HW223549   1.458   5.654  13.259
 7218SOL     OW23550  13.356   2.081   6.138
 7218SOL    HW123551  13.326   2.101   6.049
 7218SOL    HW223552  13.306   2.003   6.163
 7219SOL     OW23553  11.469   8.847  13.024
 7219SOL    HW123554  11.416   8.902  12.966
 7219SOL    HW223555  11.439   8.869  13.112
 7220SOL     OW23556   2.887  13.348   2.792
 7220SOL    HW123557   2.888  13.322   2.884
 7220SOL    HW223558   2.860  13.440   2.793
 7221SOL     OW23559   6.746  11.757  12.722
 7221SOL    HW123560   6.743  11.846  12.688
 7221SOL    HW223561   6.826  11.719  12.683
 7222SOL     OW23562   0.234   6.241  11.672
 7222SOL    HW123563   0.284   6.184  11.731
 7222SOL    HW223564   0.155   6.262  11.721
 7223SOL     OW23565   3.505   6.391   7.963
 7223SOL    HW123566   3.449   6.445   7.906
 7223SOL    HW223567   3.545   6.327   7.903
 7224SOL     OW23568   8.748  11.117   2.328
 7224SOL    HW123569   8.723  11.138   2.418
 7224SOL    HW223570   8.666  11.127   2.278
 7225SOL     OW23571   2.155  10.688   3.166
 7225SOL    HW123572   2.177  10.781   3.170
 7225SOL    HW223573   2.075  10.685   3.114
 7226SOL     OW23574  11.950  10.826  13.854
 7226SOL    HW123575  12.015  10.870  13.908
 7226SOL    HW223576  11.935  10.742  13.897
 7227SOL     OW23577   2.204   3.081   5.277
 7227SOL    HW123578   2.184   3.055   5.367
 7227SOL    HW223579   2.134   3.141   5.253
 7228SOL     OW23580   9.862   2.567  12.793
 7228SOL    HW123581   9.812   2.544  12.871
 7228SOL    HW223582   9.952   2.572  12.822
 7229SOL     OW23583   0.998   2.530  13.611
 7229SOL    HW123584   1.064   2.598  13.600
 7229SOL    HW223585   0.922   2.562  13.563
 7230SOL     OW23586  13.322   9.713   1.416
 7230SOL    HW123587  13.311   9.641   1.354
 7230SOL    HW223588  13.244   9.710   1.470
 7231SOL     OW23589   0.942  11.459  13.032
 7231SOL    HW123590   0.916  11.385  13.087
 7231SOL    HW223591   0.882  11.455  12.957
 7232SOL     OW23592  13.780   9.847   3.271
 7232SOL    HW123593  13.819   9.801   3.346
 7232SOL    HW223594  13.686   9.832   3.281
 7233SOL     OW23595  13.281   3.384  14.668
 7233SOL    HW123596  13.218   3.441  14.624
 7233SOL    HW223597  13.243   3.369  14.755
 7234SOL     OW23598  12.643  14.765   6.456
 7234SOL    HW123599  12.620  14.682   6.499
 7234SOL    HW223600  12.686  14.739   6.375
 7235SOL     OW23601   7.148   2.432   5.387
 7235SOL    HW123602   7.219   2.495   5.395
 7235SOL    HW223603   7.126   2.432   5.294
 7236SOL     OW23604  10.543   9.896   2.688
 7236SOL    HW123605  10.577   9.930   2.605
 7236SOL    HW223606  10.467   9.950   2.706
 7237SOL     OW23607   0.816   2.512  12.643
 7237SOL    HW123608   0.727   2.536  12.666
 7237SOL    HW223609   0.853   2.591  12.604
 7238SOL     OW23610  14.570  11.385   1.616
 7238SOL    HW123611  14.530  11.356   1.698
 7238SOL    HW223612  14.501  11.436   1.573
 7239SOL     OW23613   4.940   5.460   7.971
 7239SOL    HW123614   4.879   5.491   7.904
 7239SOL    HW223615   4.959   5.537   8.025
 7240SOL     OW23616   7.633   9.312   9.466
 7240SOL    HW123617   7.562   9.276   9.413
 7240SOL    HW223618   7.621   9.406   9.462
 7241SOL     OW23619  14.678   7.470  10.643
 7241SOL    HW123620  14.656   7.550  10.595
 7241SOL    HW223621  14.593   7.438  10.675
 7242SOL     OW23622  12.939   2.193   6.383
 7242SOL    HW123623  12.874   2.250   6.424
 7242SOL    HW223624  12.925   2.108   6.424
 7243SOL     OW23625   0.547  14.048  12.868
 7243SOL    HW123626   0.516  14.002  12.790
 7243SOL    HW223627   0.493  14.127  12.872
 7244SOL     OW23628  13.909  12.215   0.966
 7244SOL    HW123629  13.946  12.251   0.886
 7244SOL    HW223630  13.982  12.214   1.028
 7245SOL     OW23631  11.493   7.192  10.256
 7245SOL    HW123632  11.455   7.208  10.170
 7245SOL    HW223633  11.424   7.216  10.318
 7246SOL     OW23634  11.132   1.038   2.038
 7246SOL    HW123635  11.140   0.951   2.000
 7246SOL    HW223636  11.173   1.096   1.973
 7247SOL     OW23637  13.721  12.116   7.781
 7247SOL    HW123638  13.699  12.123   7.874
 7247SOL    HW223639  13.670  12.185   7.739
 7248SOL     OW23640   5.148   7.896   1.979
 7248SOL    HW123641   5.135   7.842   2.057
 7248SOL    HW223642   5.235   7.933   1.990
 7249SOL     OW23643  12.523   2.670   0.603
 7249SOL    HW123644  12.464   2.603   0.639
 7249SOL    HW223645  12.485   2.691   0.517
 7250SOL     OW23646   1.499   7.566   9.084
 7250SOL    HW123647   1.422   7.515   9.108
 7250SOL    HW223648   1.553   7.505   9.033
 7251SOL     OW23649   1.965  12.134   3.519
 7251SOL    HW123650   1.934  12.204   3.463
 7251SOL    HW223651   2.047  12.105   3.479
 7252SOL     OW23652  13.768  11.239  13.982
 7252SOL    HW123653  13.790  11.180  14.054
 7252SOL    HW223654  13.762  11.325  14.023
 7253SOL     OW23655  13.485  11.864   9.872
 7253SOL    HW123656  13.496  11.769   9.875
 7253SOL    HW223657  13.402  11.877   9.826
 7254SOL     OW23658   9.125  10.586  12.583
 7254SOL    HW123659   9.160  10.669  12.616
 7254SOL    HW223660   9.186  10.520  12.614
 7255SOL     OW23661  12.155   2.006  14.803
 7255SOL    HW123662  12.089   1.986  14.869
 7255SOL    HW223663  12.106   2.035  14.727
 7256SOL     OW23664   4.796  14.205  12.688
 7256SOL    HW123665   4.876  14.176  12.732
 7256SOL    HW223666   4.768  14.128  12.638
 7257SOL     OW23667   5.542   4.081   0.752
 7257SOL    HW123668   5.464   4.104   0.700
 7257SOL    HW223669   5.591   4.163   0.759
 7258SOL     OW23670   5.501   0.216  11.630
 7258SOL    HW123671   5.525   0.262  11.549
 7258SOL    HW223672   5.430   0.157  11.604
 7259SOL     OW23673   1.470   1.742   1.538
 7259SOL    HW123674   1.495   1.833   1.559
 7259SOL    HW223675   1.399   1.723   1.600
 7260SOL     OW23676  10.290   8.817   3.550
 7260SOL    HW123677  10.260   8.831   3.460
 7260SOL    HW223678  10.335   8.732   3.548
 7261SOL     OW23679  13.143   2.212   8.820
 7261SOL    HW123680  13.060   2.241   8.859
 7261SOL    HW223681  13.145   2.117   8.836
 7262SOL     OW23682   1.741   5.520   3.899
 7262SOL    HW123683   1.656   5.522   3.854
 7262SOL    HW223684   1.792   5.588   3.856
 7263SOL     OW23685   0.353   5.914   7.910
 7263SOL    HW123686   0.367   5.823   7.884
 7263SOL    HW223687   0.267   5.915   7.952
 7264SOL     OW23688  11.078   1.010  10.962
 7264SOL    HW123689  11.111   1.031  11.050
 7264SOL    HW223690  11.015   1.080  10.944
 7265SOL     OW23691   9.547   3.740  13.569
 7265SOL    HW123692   9.552   3.824  13.523
 7265SOL    HW223693   9.467   3.747  13.622
 7266SOL     OW23694  14.754   8.796   4.043
 7266SOL    HW123695  14.806   8.871   4.015
 7266SOL    HW223696  14.686   8.832   4.099
 7267SOL     OW23697  10.355  10.067  13.415
 7267SOL    HW123698  10.301  10.115  13.478
 7267SOL    HW223699  10.443  10.068  13.454
 7268SOL     OW23700   9.773   6.363   2.266
 7268SOL    HW123701   9.797   6.290   2.324
 7268SOL    HW223702   9.854   6.383   2.219
 7269SOL     OW23703   9.108  14.240   9.062
 7269SOL    HW123704   9.020  14.249   9.024
 7269SOL    HW223705   9.123  14.145   9.064
 7270SOL     OW23706   8.953   0.116  12.281
 7270SOL    HW123707   8.997   0.036  12.309
 7270SOL    HW223708   8.906   0.091  12.201
 7271SOL     OW23709  14.059   0.229   6.579
 7271SOL    HW123710  14.066   0.156   6.517
 7271SOL    HW223711  14.143   0.275   6.570
 7272SOL     OW23712   1.697   4.324   8.504
 7272SOL    HW123713   1.656   4.356   8.424
 7272SOL    HW223714   1.683   4.394   8.568
 7273SOL     OW23715   3.416   3.993   9.526
 7273SOL    HW123716   3.501   4.031   9.547
 7273SOL    HW223717   3.354   4.066   9.534
 7274SOL     OW23718   1.252   5.101  13.195
 7274SOL    HW123719   1.166   5.087  13.234
 7274SOL    HW223720   1.309   5.039  13.240
 7275SOL     OW23721  14.497   5.144   9.624
 7275SOL    HW123722  14.456   5.108   9.702
 7275SOL    HW223723  14.535   5.227   9.653
 7276SOL     OW23724  12.288  12.891   3.639
 7276SOL    HW123725  12.375  12.855   3.627
 7276SOL    HW223726  12.278  12.900   3.734
 7277SOL     OW23727   7.437   1.523  11.645
 7277SOL    HW123728   7.357   1.511  11.594
 7277SOL    HW223729   7.506   1.482  11.593
 7278SOL     OW23730  13.966  10.442   5.871
 7278SOL    HW123731  13.950  10.535   5.858
 7278SOL    HW223732  14.039  10.422   5.812
 7279SOL     OW23733   7.350   1.805   1.290
 7279SOL    HW123734   7.322   1.879   1.344
 7279SOL    HW223735   7.274   1.747   1.286
 7280SOL     OW23736  13.857  14.643   9.103
 7280SOL    HW123737  13.815  14.568   9.061
 7280SOL    HW223738  13.879  14.612   9.191
 7281SOL     OW23739   2.228   0.180   2.585
 7281SOL    HW123740   2.285   0.254   2.565
 7281SOL    HW223741   2.143   0.204   2.548
 7282SOL     OW23742   5.973   3.842   2.602
 7282SOL    HW123743   5.965   3.930   2.640
 7282SOL    HW223744   5.915   3.788   2.655
 7283SOL     OW23745   1.122   9.716   3.639
 7283SOL    HW123746   1.200   9.769   3.651
 7283SOL    HW223747   1.051   9.779   3.630
 7284SOL     OW23748  10.822   3.700   3.575
 7284SOL    HW123749  10.755   3.638   3.605
 7284SOL    HW223750  10.904   3.666   3.609
 7285SOL     OW23751  10.721   4.370   4.809
 7285SOL    HW123752  10.720   4.278   4.781
 7285SOL    HW223753  10.689   4.368   4.899
 7286SOL     OW23754  12.392   0.953  12.305
 7286SOL    HW123755  12.306   0.920  12.281
 7286SOL    HW223756  12.441   0.876  12.332
 7287SOL     OW23757   5.592   2.256  10.619
 7287SOL    HW123758   5.514   2.253  10.674
 7287SOL    HW223759   5.664   2.231  10.677
 7288SOL     OW23760  13.200   8.182   2.589
 7288SOL    HW123761  13.123   8.136   2.621
 7288SOL    HW223762  13.271   8.155   2.648
 7289SOL     OW23763   1.559   3.358   0.216
 7289SOL    HW123764   1.560   3.264   0.203
 7289SOL    HW223765   1.548   3.369   0.311
 7290SOL     OW23766   2.242   9.029  13.051
 7290SOL    HW123767   2.257   9.049  12.959
 7290SOL    HW223768   2.154   9.062  13.070
 7291SOL     OW23769   8.669   5.692  10.019
 7291SOL    HW123770   8.633   5.720   9.934
 7291SOL    HW223771   8.599   5.639  10.058
 7292SOL     OW23772   4.190  13.942  10.249
 7292SOL    HW123773   4.282  13.947  10.222
 7292SOL    HW223774   4.163  13.853  10.226
 7293SOL     OW23775   0.905   5.952   5.814
 7293SOL    HW123776   0.812   5.941   5.796
 7293SOL    HW223777   0.937   5.864   5.831
 7294SOL     OW23778   1.477  14.154  13.928
 7294SOL    HW123779   1.528  14.083  13.967
 7294SOL    HW223780   1.386  14.129  13.944
 7295SOL     OW23781   8.185   2.372  13.807
 7295SOL    HW123782   8.279   2.388  13.821
 7295SOL    HW223783   8.141   2.438  13.861
 7296SOL     OW23784   4.240  13.079  11.115
 7296SOL    HW123785   4.326  13.040  11.101
 7296SOL    HW223786   4.179  13.018  11.073
 7297SOL     OW23787   7.854   8.425   9.762
 7297SOL    HW123788   7.794   8.374   9.816
 7297SOL    HW223789   7.862   8.374   9.682
 7298SOL     OW23790  10.797   6.156   4.534
 7298SOL    HW123791  10.822   6.248   4.522
 7298SOL    HW223792  10.874   6.116   4.574
 7299SOL     OW23793  11.537   0.378   8.256
 7299SOL    HW123794  11.630   0.399   8.250
 7299SOL    HW223795  11.508   0.369   8.165
 7300SOL     OW23796   1.909  10.521   1.353
 7300SOL    HW123797   1.833  10.555   1.400
 7300SOL    HW223798   1.904  10.426   1.365
 7301SOL     OW23799   7.650  12.672  14.302
 7301SOL    HW123800   7.581  12.607  14.293
 7301SOL    HW223801   7.611  12.754  14.271
 7302SOL     OW23802   4.514  11.452  11.548
 7302SOL    HW123803   4.568  11.404  11.610
 7302SOL    HW223804   4.576  11.481  11.480
 7303SOL     OW23805   0.711  14.639  11.679
 7303SOL    HW123806   0.628  14.684  11.694
 7303SOL    HW223807   0.687  14.558  11.634
 7304SOL     OW23808   1.461  10.813   9.674
 7304SOL    HW123809   1.546  10.781   9.643
 7304SOL    HW223810   1.452  10.776   9.762
 7305SOL     OW23811   8.880  11.140   8.721
 7305SOL    HW123812   8.875  11.203   8.650
 7305SOL    HW223813   8.869  11.192   8.801
 7306SOL     OW23814   0.787  10.721   2.534
 7306SOL    HW123815   0.742  10.665   2.471
 7306SOL    HW223816   0.787  10.807   2.494
 7307SOL     OW23817   1.281   3.623  11.803
 7307SOL    HW123818   1.239   3.548  11.845
 7307SOL    HW223819   1.209   3.675  11.768
 7308SOL     OW23820   6.406  14.486   4.184
 7308SOL    HW123821   6.407  14.394   4.210
 7308SOL    HW223822   6.354  14.488   4.104
 7309SOL     OW23823   8.279   2.276   6.775
 7309SOL    HW123824   8.251   2.350   6.720
 7309SOL    HW223825   8.240   2.199   6.733
 7310SOL     OW23826  14.511   7.351   2.675
 7310SOL    HW123827  14.598   7.315   2.658
 7310SOL    HW223828  14.526   7.422   2.738
 7311SOL     OW23829   5.395   7.983   2.094
 7311SOL    HW123830   5.367   8.075   2.098
 7311SOL    HW223831   5.353   7.942   2.170
 7312SOL     OW23832   5.304  11.813   1.054
 7312SOL    HW123833   5.313  11.908   1.063
 7312SOL    HW223834   5.352  11.792   0.974
 7313SOL     OW23835   3.714  13.339  11.642
 7313SOL    HW123836   3.645  13.384  11.690
 7313SOL    HW223837   3.685  13.341  11.551
 7314SOL     OW23838   0.863   1.528  11.198
 7314SOL    HW123839   0.897   1.595  11.139
 7314SOL    HW223840   0.907   1.447  11.168
 7315SOL     OW23841   9.730   1.490  13.968
 7315SOL    HW123842   9.725   1.549  13.893
 7315SOL    HW223843   9.824   1.477  13.981
 7316SOL     OW23844   4.513   8.959   6.761
 7316SOL    HW123845   4.589   8.913   6.725
 7316SOL    HW223846   4.550   9.035   6.807
 7317SOL     OW23847   5.569   7.598   2.023
 7317SOL    HW123848   5.481   7.623   1.996
 7317SOL    HW223849   5.592   7.659   2.092
 7318SOL     OW23850   4.137   3.344  13.648
 7318SOL    HW123851   4.207   3.291  13.688
 7318SOL    HW223852   4.064   3.338  13.711
 7319SOL     OW23853   7.259   5.137  10.057
 7319SOL    HW123854   7.268   5.066  10.121
 7319SOL    HW223855   7.169   5.129  10.025
 7320SOL     OW23856  12.955  11.839   9.822
 7320SOL    HW123857  12.873  11.886   9.816
 7320SOL    HW223858  13.015  11.899   9.866
 7321SOL     OW23859  10.149  11.244   5.590
 7321SOL    HW123860  10.078  11.277   5.535
 7321SOL    HW223861  10.114  11.250   5.679
 7322SOL     OW23862   9.103  13.268  14.672
 7322SOL    HW123863   9.168  13.336  14.656
 7322SOL    HW223864   9.099  13.219  14.589
 7323SOL     OW23865   4.052  13.130   4.700
 7323SOL    HW123866   4.102  13.184   4.760
 7323SOL    HW223867   4.043  13.046   4.745
 7324SOL     OW23868  12.781   1.832   7.010
 7324SOL    HW123869  12.772   1.738   7.030
 7324SOL    HW223870  12.709   1.873   7.057
 7325SOL     OW23871   9.143   3.293   9.028
 7325SOL    HW123872   9.202   3.324   8.959
 7325SOL    HW223873   9.186   3.320   9.110
 7326SOL     OW23874   0.902   7.504   1.793
 7326SOL    HW123875   0.957   7.435   1.831
 7326SOL    HW223876   0.864   7.463   1.715
 7327SOL     OW23877  12.575  12.854   3.714
 7327SOL    HW123878  12.652  12.910   3.705
 7327SOL    HW223879  12.601  12.771   3.675
 7328SOL     OW23880   6.976   9.596   8.398
 7328SOL    HW123881   6.910   9.539   8.438
 7328SOL    HW223882   7.057   9.575   8.444
 7329SOL     OW23883   8.407   0.141   9.768
 7329SOL    HW123884   8.371   0.137   9.856
 7329SOL    HW223885   8.331   0.151   9.711
 7330SOL     OW23886   3.695   6.320  13.319
 7330SOL    HW123887   3.644   6.241  13.305
 7330SOL    HW223888   3.632   6.391  13.308
 7331SOL     OW23889  10.368   7.088   3.005
 7331SOL    HW123890  10.405   7.003   2.980
 7331SOL    HW223891  10.395   7.147   2.934
 7332SOL     OW23892   8.060  11.422   4.120
 7332SOL    HW123893   8.102  11.439   4.204
 7332SOL    HW223894   8.122  11.368   4.072
 7333SOL     OW23895  10.990  14.785  12.497
 7333SOL    HW123896  10.966  14.810  12.587
 7333SOL    HW223897  11.084  14.804  12.491
 7334SOL     OW23898   6.095   1.985  10.616
 7334SOL    HW123899   6.028   1.924  10.585
 7334SOL    HW223900   6.177   1.952  10.579
 7335SOL     OW23901  13.603   4.771   3.565
 7335SOL    HW123902  13.621   4.738   3.653
 7335SOL    HW223903  13.510   4.792   3.566
 7336SOL     OW23904  10.738  11.100   4.924
 7336SOL    HW123905  10.726  11.147   4.841
 7336SOL    HW223906  10.653  11.060   4.942
 7337SOL     OW23907   4.568  14.285   2.131
 7337SOL    HW123908   4.628  14.348   2.091
 7337SOL    HW223909   4.504  14.340   2.178
 7338SOL     OW23910   6.339   2.603  10.590
 7338SOL    HW123911   6.269   2.651  10.546
 7338SOL    HW223912   6.316   2.608  10.683
 7339SOL     OW23913   2.533   5.460   8.067
 7339SOL    HW123914   2.560   5.543   8.028
 7339SOL    HW223915   2.473   5.421   8.003
 7340SOL     OW23916   4.899   6.513  10.461
 7340SOL    HW123917   4.829   6.561  10.417
 7340SOL    HW223918   4.862   6.425  10.476
 7341SOL     OW23919  10.961   8.775  14.409
 7341SOL    HW123920  10.917   8.779  14.324
 7341SOL    HW223921  10.922   8.700  14.453
 7342SOL     OW23922  14.181  11.393   6.687
 7342SOL    HW123923  14.201  11.462   6.750
 7342SOL    HW223924  14.213  11.313   6.730
 7343SOL     OW23925  14.050   0.840   3.342
 7343SOL    HW123926  14.062   0.761   3.396
 7343SOL    HW223927  14.137   0.860   3.310
 7344SOL     OW23928  11.514   6.160   2.721
 7344SOL    HW123929  11.455   6.125   2.789
 7344SOL    HW223930  11.507   6.255   2.729
 7345SOL     OW23931   5.954  11.727   7.557
 7345SOL    HW123932   5.873  11.710   7.605
 7345SOL    HW223933   6.018  11.749   7.624
 7346SOL     OW23934   8.330   4.847   7.638
 7346SOL    HW123935   8.381   4.793   7.578
 7346SOL    HW223936   8.327   4.797   7.720
 7347SOL     OW23937  13.095   6.812  10.956
 7347SOL    HW123938  13.113   6.858  11.038
 7347SOL    HW223939  13.128   6.870  10.888
 7348SOL     OW23940  12.278   7.538   1.542
 7348SOL    HW123941  12.292   7.501   1.629
 7348SOL    HW223942  12.295   7.632   1.553
 7349SOL     OW23943   9.424  12.328   0.156
 7349SOL    HW123944   9.445  12.419   0.138
 7349SOL    HW223945   9.436  12.284   0.071
 7350SOL     OW23946  12.001  11.299  11.681
 7350SOL    HW123947  12.030  11.380  11.640
 7350SOL    HW223948  12.028  11.230  11.620
 7351SOL     OW23949   2.824   7.267  14.201
 7351SOL    HW123950   2.797   7.350  14.160
 7351SOL    HW223951   2.890   7.232  14.142
 7352SOL     OW23952   2.358   1.331   3.942
 7352SOL    HW123953   2.421   1.308   3.873
 7352SOL    HW223954   2.364   1.258   4.004
 7353SOL     OW23955  12.696  12.504  11.161
 7353SOL    HW123956  12.737  12.578  11.206
 7353SOL    HW223957  12.745  12.428  11.193
 7354SOL     OW23958   0.451  13.488  11.861
 7354SOL    HW123959   0.423  13.441  11.783
 7354SOL    HW223960   0.521  13.546  11.830
 7355SOL     OW23961  11.282  14.360   1.513
 7355SOL    HW123962  11.315  14.316   1.434
 7355SOL    HW223963  11.228  14.294   1.556
 7356SOL     OW23964   1.105   4.986  11.639
 7356SOL    HW123965   1.123   5.065  11.588
 7356SOL    HW223966   1.151   4.999  11.721
 7357SOL     OW23967  13.660  14.739   0.615
 7357SOL    HW123968  13.633  14.831   0.623
 7357SOL    HW223969  13.705  14.735   0.531
 7358SOL     OW23970  12.950   1.956  10.951
 7358SOL    HW123971  12.905   1.994  10.876
 7358SOL    HW223972  13.041   1.983  10.941
 7359SOL     OW23973  14.310   4.948  13.269
 7359SOL    HW123974  14.397   4.925  13.302
 7359SOL    HW223975  14.319   4.945  13.174
 7360SOL     OW23976   6.393   4.464   0.906
 7360SOL    HW123977   6.326   4.399   0.888
 7360SOL    HW223978   6.469   4.414   0.935
 7361SOL     OW23979   0.054   6.819   2.908
 7361SOL    HW123980   0.062   6.849   2.817
 7361SOL    HW223981   0.127   6.861   2.953
 7362SOL     OW23982  13.686   7.882  11.408
 7362SOL    HW123983  13.728   7.823  11.470
 7362SOL    HW223984  13.707   7.970  11.439
 7363SOL     OW23985  12.040  10.064  11.648
 7363SOL    HW123986  12.126  10.077  11.688
 7363SOL    HW223987  12.016   9.975  11.671
 7364SOL     OW23988   1.323  11.618   2.323
 7364SOL    HW123989   1.311  11.650   2.412
 7364SOL    HW223990   1.248  11.654   2.274
 7365SOL     OW23991   4.368   3.193   0.474
 7365SOL    HW123992   4.382   3.268   0.415
 7365SOL    HW223993   4.455   3.176   0.511
 7366SOL     OW23994  13.054   6.159   8.948
 7366SOL    HW123995  13.098   6.211   8.880
 7366SOL    HW223996  12.993   6.220   8.989
 7367SOL     OW23997  12.641   2.249  10.736
 7367SOL    HW123998  12.592   2.232  10.816
 7367SOL    HW223999  12.718   2.192  10.743
 7368SOL     OW24000  10.001   7.717   5.539
 7368SOL    HW124001  10.001   7.672   5.623
 7368SOL    HW224002   9.929   7.676   5.491
 7369SOL     OW24003  11.173   5.637   4.868
 7369SOL    HW124004  11.237   5.706   4.884
 7369SOL    HW224005  11.182   5.617   4.774
 7370SOL     OW24006   9.409  13.505   1.220
 7370SOL    HW124007   9.343  13.471   1.281
 7370SOL    HW224008   9.451  13.426   1.185
 7371SOL     OW24009   4.957   3.988   7.944
 7371SOL    HW124010   4.902   3.961   8.018
 7371SOL    HW224011   5.035   4.024   7.985
 7372SOL     OW24012   3.805  10.202   8.170
 7372SOL    HW124013   3.897  10.214   8.191
 7372SOL    HW224014   3.792  10.252   8.090
 7373SOL     OW24015  10.041   3.968   3.351
 7373SOL    HW124016  10.099   4.043   3.360
 7373SOL    HW224017  10.087   3.909   3.291
 7374SOL     OW24018   8.278   8.955   3.180
 7374SOL    HW124019   8.188   8.927   3.161
 7374SOL    HW224020   8.282   8.957   3.275
 7375SOL     OW24021  13.495   9.849   8.859
 7375SOL    HW124022  13.441   9.924   8.834
 7375SOL    HW224023  13.447   9.773   8.825
 7376SOL     OW24024   0.450   4.167   4.449
 7376SOL    HW124025   0.366   4.160   4.403
 7376SOL    HW224026   0.504   4.223   4.393
 7377SOL     OW24027   6.326  13.103   0.439
 7377SOL    HW124028   6.352  13.193   0.460
 7377SOL    HW224029   6.259  13.112   0.372
 7378SOL     OW24030   5.683  11.210   5.327
 7378SOL    HW124031   5.721  11.163   5.402
 7378SOL    HW224032   5.591  11.220   5.350
 7379SOL     OW24033   6.781  10.335   6.581
 7379SOL    HW124034   6.851  10.278   6.551
 7379SOL    HW224035   6.782  10.408   6.519
 7380SOL     OW24036   7.708   1.861   5.829
 7380SOL    HW124037   7.620   1.831   5.853
 7380SOL    HW224038   7.696   1.952   5.803
 7381SOL     OW24039   1.713   8.704   6.379
 7381SOL    HW124040   1.758   8.730   6.299
 7381SOL    HW224041   1.699   8.610   6.370
 7382SOL     OW24042   5.074   9.489   3.840
 7382SOL    HW124043   5.151   9.545   3.855
 7382SOL    HW224044   4.999   9.548   3.847
 7383SOL     OW24045   2.273   8.148  12.820
 7383SOL    HW124046   2.183   8.137  12.788
 7383SOL    HW224047   2.293   8.240  12.803
 7384SOL     OW24048  11.507   8.334   8.173
 7384SOL    HW124049  11.423   8.290   8.187
 7384SOL    HW224050  11.485   8.411   8.120
 7385SOL     OW24051   9.014   0.586   3.721
 7385SOL    HW124052   9.002   0.599   3.627
 7385SOL    HW224053   9.037   0.672   3.754
 7386SOL     OW24054   3.916  13.105   3.475
 7386SOL    HW124055   3.954  13.189   3.448
 7386SOL    HW224056   3.842  13.093   3.417
 7387SOL     OW24057   3.576   7.669   1.650
 7387SOL    HW124058   3.513   7.738   1.634
 7387SOL    HW224059   3.578   7.618   1.569
 7388SOL     OW24060   1.488   2.135  12.741
 7388SOL    HW124061   1.401   2.113  12.775
 7388SOL    HW224062   1.471   2.194  12.668
 7389SOL     OW24063   9.338   0.537   7.889
 7389SOL    HW124064   9.291   0.531   7.806
 7389SOL    HW224065   9.371   0.627   7.891
 7390SOL     OW24066   3.510   3.296   2.426
 7390SOL    HW124067   3.429   3.290   2.376
 7390SOL    HW224068   3.527   3.390   2.434
 7391SOL     OW24069   2.441   0.343  13.675
 7391SOL    HW124070   2.525   0.383  13.697
 7391SOL    HW224071   2.457   0.296  13.593
 7392SOL     OW24072   1.249   8.707  14.024
 7392SOL    HW124073   1.298   8.631  13.991
 7392SOL    HW224074   1.167   8.707  13.974
 7393SOL     OW24075   2.723   8.140   1.904
 7393SOL    HW124076   2.747   8.074   1.969
 7393SOL    HW224077   2.802   8.150   1.851
 7394SOL     OW24078   1.538   7.948  14.835
 7394SOL    HW124079   1.584   8.030  14.814
 7394SOL    HW224080   1.516   7.911  14.749
 7395SOL     OW24081   3.432  11.216   7.691
 7395SOL    HW124082   3.392  11.298   7.719
 7395SOL    HW224083   3.442  11.165   7.772
 7396SOL     OW24084   8.550   5.131   0.608
 7396SOL    HW124085   8.612   5.060   0.623
 7396SOL    HW224086   8.567   5.159   0.518
 7397SOL     OW24087  11.673   3.806   4.994
 7397SOL    HW124088  11.627   3.881   5.032
 7397SOL    HW224089  11.726   3.844   4.923
 7398SOL     OW24090   3.317  14.066   2.208
 7398SOL    HW124091   3.289  14.157   2.205
 7398SOL    HW224092   3.239  14.016   2.182
 7399SOL     OW24093   1.551   5.316  11.964
 7399SOL    HW124094   1.491   5.281  11.897
 7399SOL    HW224095   1.602   5.382  11.917
 7400SOL     OW24096  12.244   1.495   3.347
 7400SOL    HW124097  12.227   1.497   3.442
 7400SOL    HW224098  12.332   1.532   3.338
 7401SOL     OW24099   6.505   7.784   9.183
 7401SOL    HW124100   6.532   7.778   9.091
 7401SOL    HW224101   6.575   7.834   9.225
 7402SOL     OW24102  10.675   7.218   3.430
 7402SOL    HW124103  10.639   7.267   3.504
 7402SOL    HW224104  10.622   7.138   3.427
 7403SOL     OW24105   5.409   0.425  13.064
 7403SOL    HW124106   5.419   0.442  12.971
 7403SOL    HW224107   5.413   0.511  13.105
 7404SOL     OW24108   3.396  11.233   5.681
 7404SOL    HW124109   3.452  11.274   5.747
 7404SOL    HW224110   3.384  11.143   5.711
 7405SOL     OW24111   9.340  12.989  14.420
 7405SOL    HW124112   9.436  12.997  14.419
 7405SOL    HW224113   9.323  12.911  14.473
 7406SOL     OW24114   9.842   5.166   6.854
 7406SOL    HW124115   9.868   5.240   6.909
 7406SOL    HW224116   9.899   5.173   6.777
 7407SOL     OW24117   8.306   2.021   8.240
 7407SOL    HW124118   8.272   2.098   8.285
 7407SOL    HW224119   8.284   1.948   8.297
 7408SOL     OW24120   7.100   6.583  14.275
 7408SOL    HW124121   7.083   6.652  14.339
 7408SOL    HW224122   7.024   6.525  14.279
 7409SOL     OW24123   5.638   9.506   8.209
 7409SOL    HW124124   5.550   9.526   8.242
 7409SOL    HW224125   5.673   9.592   8.183
 7410SOL     OW24126   7.453   3.624   6.654
 7410SOL    HW124127   7.428   3.707   6.614
 7410SOL    HW224128   7.370   3.581   6.675
 7411SOL     OW24129   4.125   7.253   2.545
 7411SOL    HW124130   4.163   7.242   2.633
 7411SOL    HW224131   4.112   7.164   2.514
 7412SOL     OW24132   2.267   1.631   2.573
 7412SOL    HW124133   2.217   1.589   2.503
 7412SOL    HW224134   2.340   1.572   2.589
 7413SOL     OW24135  12.721  10.489  13.484
 7413SOL    HW124136  12.703  10.417  13.545
 7413SOL    HW224137  12.662  10.559  13.513
 7414SOL     OW24138   7.632  13.607   2.460
 7414SOL    HW124139   7.671  13.692   2.441
 7414SOL    HW224140   7.613  13.609   2.553
 7415SOL     OW24141   0.423  13.529   4.211
 7415SOL    HW124142   0.453  13.589   4.279
 7415SOL    HW224143   0.501  13.479   4.186
 7416SOL     OW24144  14.308   9.967  11.027
 7416SOL    HW124145  14.239   9.906  11.053
 7416SOL    HW224146  14.262  10.050  11.015
 7417SOL     OW24147  14.451  14.759   8.532
 7417SOL    HW124148  14.495  14.675   8.523
 7417SOL    HW224149  14.435  14.788   8.442
 7418SOL     OW24150  13.720   6.830   5.688
 7418SOL    HW124151  13.784   6.799   5.624
 7418SOL    HW224152  13.772   6.871   5.757
 7419SOL     OW24153   2.801   6.422   3.235
 7419SOL    HW124154   2.769   6.480   3.166
 7419SOL    HW224155   2.726   6.367   3.257
 7420SOL     OW24156   5.485   6.632   2.697
 7420SOL    HW124157   5.402   6.633   2.744
 7420SOL    HW224158   5.545   6.679   2.755
 7421SOL     OW24159   9.333   8.816  12.357
 7421SOL    HW124160   9.324   8.901  12.401
 7421SOL    HW224161   9.407   8.829  12.297
 7422SOL     OW24162  10.011   4.564   8.686
 7422SOL    HW124163   9.915   4.570   8.683
 7422SOL    HW224164  10.041   4.652   8.666
 7423SOL     OW24165   9.410   6.816   3.212
 7423SOL    HW124166   9.385   6.879   3.144
 7423SOL    HW224167   9.361   6.843   3.289
 7424SOL     OW24168  14.697   5.394  12.332
 7424SOL    HW124169  14.709   5.416  12.425
 7424SOL    HW224170  14.667   5.476  12.292
 7425SOL     OW24171  12.424   1.707   8.445
 7425SOL    HW124172  12.500   1.714   8.502
 7425SOL    HW224173  12.449   1.642   8.379
 7426SOL     OW24174  10.325   1.178   0.653
 7426SOL    HW124175  10.343   1.264   0.692
 7426SOL    HW224176  10.230   1.173   0.648
 7427SOL     OW24177  11.775  11.560   2.730
 7427SOL    HW124178  11.773  11.630   2.795
 7427SOL    HW224179  11.753  11.481   2.779
 7428SOL     OW24180   4.157   3.229   8.700
 7428SOL    HW124181   4.063   3.247   8.690
 7428SOL    HW224182   4.160   3.150   8.754
 7429SOL     OW24183  12.675  11.773  11.039
 7429SOL    HW124184  12.688  11.834  11.112
 7429SOL    HW224185  12.696  11.687  11.075
 7430SOL     OW24186  10.121  12.015  14.310
 7430SOL    HW124187  10.071  12.009  14.229
 7430SOL    HW224188  10.107  12.105  14.341
 7431SOL     OW24189   7.180  11.550  13.293
 7431SOL    HW124190   7.162  11.628  13.346
 7431SOL    HW224191   7.215  11.486  13.355
 7432SOL     OW24192  12.940   3.649   3.170
 7432SOL    HW124193  12.982   3.563   3.167
 7432SOL    HW224194  12.963   3.689   3.086
 7433SOL     OW24195   5.330   9.305   0.769
 7433SOL    HW124196   5.256   9.292   0.709
 7433SOL    HW224197   5.303   9.380   0.823
 7434SOL     OW24198   1.900   2.862   5.853
 7434SOL    HW124199   1.901   2.956   5.832
 7434SOL    HW224200   1.886   2.819   5.769
 7435SOL     OW24201   7.993   0.029   9.166
 7435SOL    HW124202   7.997   0.059   9.075
 7435SOL    HW224203   7.945   0.098   9.212
 7436SOL     OW24204   7.952   0.310  13.931
 7436SOL    HW124205   8.022   0.315  13.866
 7436SOL    HW224206   7.914   0.397  13.932
 7437SOL     OW24207   2.200   0.035   7.916
 7437SOL    HW124208   2.271   0.082   7.872
 7437SOL    HW224209   2.146   0.002   7.845
 7438SOL     OW24210   8.333   4.720   7.906
 7438SOL    HW124211   8.427   4.736   7.916
 7438SOL    HW224212   8.307   4.674   7.986
 7439SOL     OW24213   5.869   9.251   9.225
 7439SOL    HW124214   5.954   9.208   9.213
 7439SOL    HW224215   5.845   9.229   9.315
 7440SOL     OW24216   3.412   4.153  10.749
 7440SOL    HW124217   3.369   4.102  10.681
 7440SOL    HW224218   3.505   4.150  10.724
 7441SOL     OW24219  12.884   1.967  14.660
 7441SOL    HW124220  12.839   1.947  14.742
 7441SOL    HW224221  12.965   1.915  14.664
 7442SOL     OW24222   1.931  11.812   9.732
 7442SOL    HW124223   2.019  11.777   9.748
 7442SOL    HW224224   1.876  11.769   9.798
 7443SOL     OW24225  11.535   1.457   7.777
 7443SOL    HW124226  11.505   1.485   7.864
 7443SOL    HW224227  11.631   1.463   7.782
 7444SOL     OW24228  14.674  11.676  10.331
 7444SOL    HW124229  14.709  11.760  10.303
 7444SOL    HW224230  14.646  11.633  10.250
 7445SOL     OW24231   0.728   7.324   4.241
 7445SOL    HW124232   0.746   7.345   4.332
 7445SOL    HW224233   0.728   7.228   4.238
 7446SOL     OW24234   7.814   8.529  14.205
 7446SOL    HW124235   7.722   8.504  14.198
 7446SOL    HW224236   7.861   8.464  14.154
 7447SOL     OW24237   1.155  11.192  13.689
 7447SOL    HW124238   1.092  11.262  13.676
 7447SOL    HW224239   1.229  11.216  13.632
 7448SOL     OW24240   0.666   2.985  13.016
 7448SOL    HW124241   0.738   2.958  13.073
 7448SOL    HW224242   0.694   2.961  12.928
 7449SOL     OW24243   1.295   9.005   6.199
 7449SOL    HW124244   1.225   9.020   6.262
 7449SOL    HW224245   1.251   8.962   6.125
 7450SOL     OW24246  10.638   3.076  13.112
 7450SOL    HW124247  10.722   3.045  13.078
 7450SOL    HW224248  10.576   3.063  13.040
 7451SOL     OW24249  10.417   8.368   2.631
 7451SOL    HW124250  10.424   8.372   2.536
 7451SOL    HW224251  10.355   8.437   2.654
 7452SOL     OW24252   5.886   3.598   3.560
 7452SOL    HW124253   5.923   3.539   3.627
 7452SOL    HW224254   5.961   3.619   3.504
 7453SOL     OW24255   4.100  13.888   6.826
 7453SOL    HW124256   4.014  13.868   6.791
 7453SOL    HW224257   4.133  13.804   6.859
 7454SOL     OW24258   5.497   3.031   2.862
 7454SOL    HW124259   5.572   2.971   2.862
 7454SOL    HW224260   5.487   3.058   2.953
 7455SOL     OW24261   0.103   1.571   1.972
 7455SOL    HW124262   0.143   1.656   1.954
 7455SOL    HW224263   0.031   1.564   1.909
 7456SOL     OW24264   8.609   1.741   5.336
 7456SOL    HW124265   8.585   1.693   5.415
 7456SOL    HW224266   8.533   1.734   5.279
 7457SOL     OW24267   9.341   9.612   4.277
 7457SOL    HW124268   9.396   9.687   4.298
 7457SOL    HW224269   9.402   9.547   4.241
 7458SOL     OW24270  14.061   6.158   4.475
 7458SOL    HW124271  14.138   6.146   4.418
 7458SOL    HW224272  14.087   6.117   4.558
 7459SOL     OW24273  13.379  13.592   3.276
 7459SOL    HW124274  13.377  13.614   3.369
 7459SOL    HW224275  13.349  13.672   3.232
 7460SOL     OW24276   2.051   1.434   4.288
 7460SOL    HW124277   2.089   1.490   4.221
 7460SOL    HW224278   2.065   1.345   4.256
 7461SOL     OW24279   4.125  12.211  12.980
 7461SOL    HW124280   4.219  12.198  12.965
 7461SOL    HW224281   4.119  12.237  13.071
 7462SOL     OW24282   1.214  13.185   7.048
 7462SOL    HW124283   1.269  13.123   7.096
 7462SOL    HW224284   1.204  13.259   7.108
 7463SOL     OW24285  13.691   1.805  11.214
 7463SOL    HW124286  13.705   1.728  11.270
 7463SOL    HW224287  13.688   1.769  11.125
 7464SOL     OW24288   5.829   8.677  14.200
 7464SOL    HW124289   5.810   8.614  14.131
 7464SOL    HW224290   5.846   8.623  14.277
 7465SOL     OW24291   9.888  14.343   8.396
 7465SOL    HW124292   9.982  14.362   8.402
 7465SOL    HW224293   9.879  14.255   8.432
 7466SOL     OW24294   1.240   3.313   3.922
 7466SOL    HW124295   1.158   3.279   3.956
 7466SOL    HW224296   1.276   3.243   3.868
 7467SOL     OW24297   5.053  13.285   4.851
 7467SOL    HW124298   4.986  13.294   4.783
 7467SOL    HW224299   5.008  13.311   4.932
 7468SOL     OW24300   4.370   5.324   8.864
 7468SOL    HW124301   4.384   5.233   8.889
 7468SOL    HW224302   4.421   5.375   8.926
 7469SOL     OW24303   6.754   3.680   4.715
 7469SOL    HW124304   6.802   3.689   4.798
 7469SOL    HW224305   6.822   3.664   4.650
 7470SOL     OW24306  11.824   2.530   0.168
 7470SOL    HW124307  11.770   2.476   0.110
 7470SOL    HW224308  11.841   2.610   0.118
 7471SOL     OW24309  11.561   4.650   0.690
 7471SOL    HW124310  11.515   4.609   0.763
 7471SOL    HW224311  11.502   4.720   0.661
 7472SOL     OW24312   5.576   2.597  14.118
 7472SOL    HW124313   5.530   2.514  14.127
 7472SOL    HW224314   5.666   2.577  14.143
 7473SOL     OW24315   6.185   2.870  10.861
 7473SOL    HW124316   6.190   2.775  10.851
 7473SOL    HW224317   6.096   2.887  10.891
 7474SOL     OW24318  14.799   9.170  11.334
 7474SOL    HW124319  14.855   9.121  11.394
 7474SOL    HW224320  14.852   9.182  11.255
 7475SOL     OW24321   1.796  13.256   7.270
 7475SOL    HW124322   1.814  13.239   7.178
 7475SOL    HW224323   1.815  13.173   7.314
 7476SOL     OW24324   4.854  13.999   8.084
 7476SOL    HW124325   4.799  14.010   8.006
 7476SOL    HW224326   4.828  14.072   8.141
 7477SOL     OW24327  14.689   3.030   1.926
 7477SOL    HW124328  14.663   3.085   1.853
 7477SOL    HW224329  14.779   3.056   1.946
 7478SOL     OW24330  11.786  12.675   9.070
 7478SOL    HW124331  11.815  12.693   8.981
 7478SOL    HW224332  11.706  12.622   9.060
 7479SOL     OW24333   3.053  10.612   6.527
 7479SOL    HW124334   3.031  10.691   6.577
 7479SOL    HW224335   2.976  10.557   6.535
 7480SOL     OW24336   9.749  10.195  10.370
 7480SOL    HW124337   9.817  10.208  10.304
 7480SOL    HW224338   9.785  10.235  10.449
 7481SOL     OW24339   1.875   4.293   5.557
 7481SOL    HW124340   1.924   4.317   5.636
 7481SOL    HW224341   1.940   4.297   5.487
 7482SOL     OW24342   0.242   6.172  13.315
 7482SOL    HW124343   0.147   6.169  13.321
 7482SOL    HW224344   0.271   6.095  13.366
 7483SOL     OW24345  13.577   9.412   2.982
 7483SOL    HW124346  13.662   9.455   2.973
 7483SOL    HW224347  13.518   9.464   2.927
 7484SOL     OW24348   8.074  14.843  10.808
 7484SOL    HW124349   7.979  14.833  10.813
 7484SOL    HW224350   8.087   0.037  10.752
 7485SOL     OW24351   1.084  12.011   2.080
 7485SOL    HW124352   1.034  11.930   2.086
 7485SOL    HW224353   1.131  12.005   1.997
 7486SOL     OW24354   2.268  11.483   2.287
 7486SOL    HW124355   2.299  11.530   2.210
 7486SOL    HW224356   2.249  11.394   2.256
 7487SOL     OW24357   0.730   3.677   5.455
 7487SOL    HW124358   0.766   3.730   5.384
 7487SOL    HW224359   0.807   3.640   5.498
 7488SOL     OW24360   5.791  13.630   1.641
 7488SOL    HW124361   5.780  13.637   1.547
 7488SOL    HW224362   5.851  13.702   1.663
 7489SOL     OW24363   9.587   7.504   7.305
 7489SOL    HW124364   9.664   7.557   7.328
 7489SOL    HW224365   9.515   7.567   7.303
 7490SOL     OW24366   4.327  12.551  14.188
 7490SOL    HW124367   4.272  12.622  14.221
 7490SOL    HW224368   4.267  12.493  14.142
 7491SOL     OW24369  14.117   4.765   7.405
 7491SOL    HW124370  14.060   4.840   7.390
 7491SOL    HW224371  14.059   4.689   7.400
 7492SOL     OW24372   8.925  10.492  13.803
 7492SOL    HW124373   8.952  10.401  13.788
 7492SOL    HW224374   8.849  10.485  13.860
 7493SOL     OW24375  12.271   1.917   2.954
 7493SOL    HW124376  12.238   1.862   3.025
 7493SOL    HW224377  12.307   1.855   2.891
 7494SOL     OW24378   4.536  11.184   7.020
 7494SOL    HW124379   4.557  11.173   7.113
 7494SOL    HW224380   4.443  11.160   7.013
 7495SOL     OW24381  11.440   5.949  11.086
 7495SOL    HW124382  11.407   6.036  11.108
 7495SOL    HW224383  11.363   5.900  11.057
 7496SOL     OW24384  12.519   3.801   8.843
 7496SOL    HW124385  12.426   3.800   8.819
 7496SOL    HW224386  12.525   3.742   8.918
 7497SOL     OW24387   2.210   6.894   3.995
 7497SOL    HW124388   2.153   6.960   3.956
 7497SOL    HW224389   2.299   6.927   3.980
 7498SOL     OW24390  10.011   5.869  13.881
 7498SOL    HW124391   9.991   5.958  13.852
 7498SOL    HW224392  10.106   5.866  13.887
 7499SOL     OW24393   3.689   8.478  11.703
 7499SOL    HW124394   3.707   8.544  11.636
 7499SOL    HW224395   3.703   8.395  11.658
 7500SOL     OW24396   8.543   8.427   5.529
 7500SOL    HW124397   8.546   8.339   5.567
 7500SOL    HW224398   8.450   8.444   5.515
 7501SOL     OW24399   1.356  13.806   7.294
 7501SOL    HW124400   1.425  13.752   7.256
 7501SOL    HW224401   1.314  13.847   7.218
 7502SOL     OW24402   2.737   0.994  13.104
 7502SOL    HW124403   2.820   1.017  13.061
 7502SOL    HW224404   2.689   0.943  13.039
 7503SOL     OW24405   2.397  14.285  13.890
 7503SOL    HW124406   2.334  14.323  13.830
 7503SOL    HW224407   2.369  14.194  13.901
 7504SOL     OW24408   9.246  13.136   3.000
 7504SOL    HW124409   9.338  13.163   2.999
 7504SOL    HW224410   9.200  13.206   2.953
 7505SOL     OW24411  14.806   5.089   0.758
 7505SOL    HW124412  14.836   4.999   0.747
 7505SOL    HW224413  14.876   5.143   0.722
 7506SOL     OW24414   8.215  12.929   3.831
 7506SOL    HW124415   8.165  12.850   3.851
 7506SOL    HW224416   8.167  12.971   3.760
 7507SOL     OW24417   3.548  12.290   0.959
 7507SOL    HW124418   3.574  12.220   0.899
 7507SOL    HW224419   3.590  12.369   0.923
 7508SOL     OW24420   8.048   7.227   1.139
 7508SOL    HW124421   8.097   7.256   1.062
 7508SOL    HW224422   8.092   7.271   1.213
 7509SOL     OW24423  13.079   5.935   7.710
 7509SOL    HW124424  13.123   5.949   7.626
 7509SOL    HW224425  13.003   5.992   7.707
 7510SOL     OW24426   8.844   8.757   4.727
 7510SOL    HW124427   8.803   8.718   4.805
 7510SOL    HW224428   8.906   8.820   4.763
 7511SOL     OW24429  13.826  13.266  13.830
 7511SOL    HW124430  13.815  13.292  13.922
 7511SOL    HW224431  13.870  13.181  13.834
 7512SOL     OW24432   0.580   6.212   5.154
 7512SOL    HW124433   0.658   6.267   5.149
 7512SOL    HW224434   0.569   6.194   5.248
 7513SOL     OW24435  13.821  13.973   9.139
 7513SOL    HW124436  13.856  13.996   9.225
 7513SOL    HW224437  13.777  13.889   9.153
 7514SOL     OW24438  14.541   2.356   7.618
 7514SOL    HW124439  14.525   2.419   7.689
 7514SOL    HW224440  14.457   2.350   7.573
 7515SOL     OW24441   5.322   9.565   0.506
 7515SOL    HW124442   5.277   9.586   0.588
 7515SOL    HW224443   5.398   9.623   0.506
 7516SOL     OW24444   7.716  12.584   4.624
 7516SOL    HW124445   7.788  12.521   4.625
 7516SOL    HW224446   7.710  12.612   4.533
 7517SOL     OW24447   6.398   9.326   1.543
 7517SOL    HW124448   6.440   9.411   1.533
 7517SOL    HW224449   6.427   9.294   1.628
 7518SOL     OW24450   2.529  13.372   7.581
 7518SOL    HW124451   2.526  13.379   7.676
 7518SOL    HW224452   2.575  13.451   7.552
 7519SOL     OW24453   9.562   4.716   1.585
 7519SOL    HW124454   9.534   4.638   1.537
 7519SOL    HW224455   9.485   4.741   1.636
 7520SOL     OW24456  12.335   3.622  11.927
 7520SOL    HW124457  12.364   3.561  11.859
 7520SOL    HW224458  12.299   3.696  11.878
 7521SOL     OW24459   0.676  12.248   8.475
 7521SOL    HW124460   0.677  12.161   8.436
 7521SOL    HW224461   0.639  12.235   8.562
 7522SOL     OW24462  11.487   0.346  10.143
 7522SOL    HW124463  11.410   0.381  10.098
 7522SOL    HW224464  11.453   0.278  10.200
 7523SOL     OW24465   5.794   1.721  10.090
 7523SOL    HW124466   5.800   1.697   9.997
 7523SOL    HW224467   5.821   1.642  10.137
 7524SOL     OW24468  13.001   4.459  12.082
 7524SOL    HW124469  13.071   4.448  12.017
 7524SOL    HW224470  12.933   4.399  12.054
 7525SOL     OW24471   1.152   2.043   7.406
 7525SOL    HW124472   1.204   1.996   7.341
 7525SOL    HW224473   1.169   2.135   7.389
 7526SOL     OW24474   4.278  10.637   3.091
 7526SOL    HW124475   4.242  10.611   3.006
 7526SOL    HW224476   4.372  10.642   3.076
 7527SOL     OW24477  10.650   5.227   4.545
 7527SOL    HW124478  10.709   5.252   4.616
 7527SOL    HW224479  10.564   5.260   4.571
 7528SOL     OW24480   1.878   4.552   8.393
 7528SOL    HW124481   1.830   4.612   8.450
 7528SOL    HW224482   1.812   4.488   8.365
 7529SOL     OW24483   4.392  10.055   8.421
 7529SOL    HW124484   4.296  10.049   8.414
 7529SOL    HW224485   4.417  10.115   8.350
 7530SOL     OW24486   3.095   3.977   1.394
 7530SOL    HW124487   3.062   4.066   1.407
 7530SOL    HW224488   3.189   3.983   1.411
 7531SOL     OW24489   8.879  12.666   2.342
 7531SOL    HW124490   8.967  12.704   2.338
 7531SOL    HW224491   8.839  12.688   2.258
 7532SOL     OW24492  11.941   7.948   8.340
 7532SOL    HW124493  11.865   7.890   8.335
 7532SOL    HW224494  11.974   7.936   8.429
 7533SOL     OW24495   8.543   1.244  14.498
 7533SOL    HW124496   8.540   1.224  14.404
 7533SOL    HW224497   8.451   1.254  14.523
 7534SOL     OW24498   0.924  11.324   6.064
 7534SOL    HW124499   0.905  11.280   5.982
 7534SOL    HW224500   0.866  11.401   6.065
 7535SOL     OW24501   7.419  10.504   9.340
 7535SOL    HW124502   7.498  10.520   9.392
 7535SOL    HW224503   7.440  10.534   9.252
 7536SOL     OW24504  14.103   1.981   2.070
 7536SOL    HW124505  14.161   2.001   1.996
 7536SOL    HW224506  14.162   1.948   2.138
 7537SOL     OW24507   1.938   5.966  14.642
 7537SOL    HW124508   2.022   6.000  14.674
 7537SOL    HW224509   1.932   5.878  14.678
 7538SOL     OW24510   2.723   4.580   0.697
 7538SOL    HW124511   2.748   4.500   0.650
 7538SOL    HW224512   2.807   4.620   0.721
 7539SOL     OW24513   0.283  13.414  14.026
 7539SOL    HW124514   0.351  13.467  14.067
 7539SOL    HW224515   0.313  13.324  14.037
 7540SOL     OW24516  10.609   0.384   4.841
 7540SOL    HW124517  10.676   0.326   4.803
 7540SOL    HW224518  10.627   0.469   4.802
 7541SOL     OW24519  12.446   9.894  14.287
 7541SOL    HW124520  12.506   9.863  14.219
 7541SOL    HW224521  12.486   9.974  14.320
 7542SOL     OW24522  11.039  13.613   6.845
 7542SOL    HW124523  10.947  13.630   6.867
 7542SOL    HW224524  11.059  13.676   6.775
 7543SOL     OW24525   8.126   8.902   7.722
 7543SOL    HW124526   8.071   8.923   7.646
 7543SOL    HW224527   8.106   8.971   7.785
 7544SOL     OW24528   3.260   8.117   3.625
 7544SOL    HW124529   3.236   8.182   3.559
 7544SOL    HW224530   3.346   8.145   3.656
 7545SOL     OW24531   6.790   3.186   7.734
 7545SOL    HW124532   6.705   3.145   7.750
 7545SOL    HW224533   6.852   3.113   7.737
 7546SOL     OW24534  11.324   9.073   6.097
 7546SOL    HW124535  11.229   9.058   6.096
 7546SOL    HW224536  11.360   8.999   6.048
 7547SOL     OW24537   8.975   4.654   7.845
 7547SOL    HW124538   9.011   4.585   7.901
 7547SOL    HW224539   8.930   4.713   7.906
 7548SOL     OW24540   3.318   1.866   0.177
 7548SOL    HW124541   3.341   1.938   0.236
 7548SOL    HW224542   3.324   1.904   0.089
 7549SOL     OW24543  10.356  12.040   3.526
 7549SOL    HW124544  10.279  11.984   3.537
 7549SOL    HW224545  10.367  12.048   3.432
 7550SOL     OW24546  12.238   5.064   7.727
 7550SOL    HW124547  12.267   5.132   7.665
 7550SOL    HW224548  12.305   5.064   7.795
 7551SOL     OW24549   2.524   1.689  13.940
 7551SOL    HW124550   2.468   1.651  14.007
 7551SOL    HW224551   2.474   1.762  13.905
 7552SOL     OW24552   4.831   8.817   1.817
 7552SOL    HW124553   4.821   8.753   1.746
 7552SOL    HW224554   4.842   8.764   1.896
 7553SOL     OW24555   1.983   0.781   5.351
 7553SOL    HW124556   2.065   0.812   5.391
 7553SOL    HW224557   1.939   0.860   5.322
 7554SOL     OW24558   5.368   0.197   5.476
 7554SOL    HW124559   5.303   0.126   5.474
 7554SOL    HW224560   5.317   0.275   5.498
 7555SOL     OW24561   2.110   9.736   1.873
 7555SOL    HW124562   2.142   9.819   1.839
 7555SOL    HW224563   2.152   9.726   1.958
 7556SOL     OW24564   5.327  14.515  11.076
 7556SOL    HW124565   5.312  14.550  10.988
 7556SOL    HW224566   5.362  14.427  11.061
 7557SOL     OW24567   6.090  11.965  12.583
 7557SOL    HW124568   6.048  11.905  12.645
 7557SOL    HW224569   6.130  11.908  12.517
 7558SOL     OW24570  11.285   4.509   7.059
 7558SOL    HW124571  11.261   4.428   7.103
 7558SOL    HW224572  11.267   4.578   7.123
 7559SOL     OW24573   3.202   5.075  13.325
 7559SOL    HW124574   3.168   5.132  13.394
 7559SOL    HW224575   3.158   5.105  13.245
 7560SOL     OW24576   1.014  14.717   4.403
 7560SOL    HW124577   1.027  14.768   4.483
 7560SOL    HW224578   0.946  14.764   4.355
 7561SOL     OW24579   6.949  11.984   4.012
 7561SOL    HW124580   6.979  12.026   3.932
 7561SOL    HW224581   6.924  11.895   3.985
 7562SOL     OW24582   1.531   3.683  14.420
 7562SOL    HW124583   1.466   3.725  14.475
 7562SOL    HW224584   1.501   3.592  14.412
 7563SOL     OW24585   3.008   5.757   2.477
 7563SOL    HW124586   2.984   5.849   2.465
 7563SOL    HW224587   2.926   5.709   2.462
 7564SOL     OW24588   9.195  12.852   1.771
 7564SOL    HW124589   9.166  12.760   1.775
 7564SOL    HW224590   9.209  12.868   1.678
 7565SOL     OW24591   1.086   4.303  14.082
 7565SOL    HW124592   1.169   4.339  14.049
 7565SOL    HW224593   1.039   4.379  14.117
 7566SOL     OW24594   6.899  11.061   3.363
 7566SOL    HW124595   6.942  11.127   3.308
 7566SOL    HW224596   6.883  10.988   3.303
 7567SOL     OW24597   7.300   6.512   8.414
 7567SOL    HW124598   7.340   6.518   8.327
 7567SOL    HW224599   7.294   6.419   8.432
 7568SOL     OW24600   0.407   9.365   2.020
 7568SOL    HW124601   0.383   9.348   1.929
 7568SOL    HW224602   0.364   9.295   2.070
 7569SOL     OW24603   8.125   4.665   0.456
 7569SOL    HW124604   8.174   4.747   0.464
 7569SOL    HW224605   8.105   4.640   0.546
 7570SOL     OW24606  14.547  10.716   1.671
 7570SOL    HW124607  14.631  10.678   1.645
 7570SOL    HW224608  14.496  10.641   1.701
 7571SOL     OW24609   2.909   2.086   1.297
 7571SOL    HW124610   2.817   2.069   1.275
 7571SOL    HW224611   2.923   2.040   1.380
 7572SOL     OW24612   1.370  14.775  11.330
 7572SOL    HW124613   1.351  14.869  11.334
 7572SOL    HW224614   1.457  14.771  11.288
 7573SOL     OW24615   7.869  13.228   6.465
 7573SOL    HW124616   7.784  13.261   6.494
 7573SOL    HW224617   7.878  13.143   6.508
 7574SOL     OW24618  12.333  10.004   0.937
 7574SOL    HW124619  12.412   9.955   0.958
 7574SOL    HW224620  12.262   9.939   0.942
 7575SOL     OW24621   5.728   8.334  10.361
 7575SOL    HW124622   5.647   8.291  10.332
 7575SOL    HW224623   5.698   8.415  10.404
 7576SOL     OW24624   4.984   7.095   6.125
 7576SOL    HW124625   4.957   7.155   6.194
 7576SOL    HW224626   5.029   7.024   6.172
 7577SOL     OW24627   2.455  14.200  11.652
 7577SOL    HW124628   2.414  14.114  11.652
 7577SOL    HW224629   2.455  14.227  11.744
 7578SOL     OW24630  13.167  11.589   2.846
 7578SOL    HW124631  13.132  11.541   2.771
 7578SOL    HW224632  13.185  11.522   2.911
 7579SOL     OW24633  13.608  14.555   6.111
 7579SOL    HW124634  13.546  14.613   6.069
 7579SOL    HW224635  13.564  14.470   6.114
 7580SOL     OW24636   2.505   2.120   2.670
 7580SOL    HW124637   2.481   2.162   2.753
 7580SOL    HW224638   2.592   2.085   2.685
 7581SOL     OW24639   1.902   5.179  14.673
 7581SOL    HW124640   1.830   5.198  14.613
 7581SOL    HW224641   1.951   5.108  14.632
 7582SOL     OW24642  10.324   4.620   7.211
 7582SOL    HW124643  10.252   4.663   7.165
 7582SOL    HW224644  10.356   4.553   7.150
 7583SOL     OW24645   6.097  11.599  13.461
 7583SOL    HW124646   6.024  11.570  13.516
 7583SOL    HW224647   6.097  11.694  13.470
 7584SOL     OW24648  13.066   2.799  14.212
 7584SOL    HW124649  13.027   2.754  14.287
 7584SOL    HW224650  12.993   2.815  14.153
 7585SOL     OW24651   1.960  13.135  10.866
 7585SOL    HW124652   1.929  13.223  10.884
 7585SOL    HW224653   2.056  13.142  10.867
 7586SOL     OW24654  12.579   8.454  12.250
 7586SOL    HW124655  12.616   8.463  12.162
 7586SOL    HW224656  12.655   8.445  12.307
 7587SOL     OW24657  11.771  12.049   8.220
 7587SOL    HW124658  11.809  12.099   8.148
 7587SOL    HW224659  11.791  11.958   8.200
 7588SOL     OW24660   8.509  12.808   6.603
 7588SOL    HW124661   8.527  12.778   6.514
 7588SOL    HW224662   8.575  12.875   6.620
 7589SOL     OW24663   0.590  10.425  11.404
 7589SOL    HW124664   0.615  10.518  11.407
 7589SOL    HW224665   0.616  10.391  11.490
 7590SOL     OW24666   9.842   8.121  14.607
 7590SOL    HW124667   9.797   8.102  14.689
 7590SOL    HW224668   9.843   8.216  14.601
 7591SOL     OW24669  10.846   3.730   8.310
 7591SOL    HW124670  10.764   3.696   8.275
 7591SOL    HW224671  10.821   3.783   8.386
 7592SOL     OW24672  13.984   2.280   6.877
 7592SOL    HW124673  13.893   2.256   6.861
 7592SOL    HW224674  13.996   2.270   6.972
 7593SOL     OW24675  12.786   9.057   2.778
 7593SOL    HW124676  12.694   9.041   2.759
 7593SOL    HW224677  12.817   9.107   2.702
 7594SOL     OW24678   7.101  11.900   3.407
 7594SOL    HW124679   7.125  11.830   3.346
 7594SOL    HW224680   7.158  11.973   3.383
 7595SOL     OW24681   8.366  13.862  14.521
 7595SOL    HW124682   8.456  13.832  14.510
 7595SOL    HW224683   8.343  13.836  14.610
 7596SOL     OW24684   7.567   5.631  11.238
 7596SOL    HW124685   7.588   5.538  11.232
 7596SOL    HW224686   7.563   5.661  11.147
 7597SOL     OW24687   4.485   9.467  13.470
 7597SOL    HW124688   4.442   9.495  13.550
 7597SOL    HW224689   4.437   9.511  13.400
 7598SOL     OW24690   2.590   3.765  13.117
 7598SOL    HW124691   2.606   3.688  13.062
 7598SOL    HW224692   2.538   3.823  13.062
 7599SOL     OW24693   9.135   4.877   3.175
 7599SOL    HW124694   9.170   4.823   3.104
 7599SOL    HW224695   9.109   4.959   3.133
 7600SOL     OW24696  11.529   6.762  14.349
 7600SOL    HW124697  11.483   6.828  14.402
 7600SOL    HW224698  11.622   6.781  14.362
 7601SOL     OW24699   8.816   7.136   2.169
 7601SOL    HW124700   8.874   7.111   2.241
 7601SOL    HW224701   8.870   7.124   2.090
 7602SOL     OW24702  10.294   8.946   9.665
 7602SOL    HW124703  10.338   8.954   9.750
 7602SOL    HW224704  10.334   9.013   9.611
 7603SOL     OW24705  11.834  10.486  13.894
 7603SOL    HW124706  11.757  10.487  13.837
 7603SOL    HW224707  11.799  10.459  13.980
 7604SOL     OW24708  11.068  10.088  13.339
 7604SOL    HW124709  11.121  10.106  13.417
 7604SOL    HW224710  10.984  10.130  13.358
 7605SOL     OW24711  14.280  12.741  11.168
 7605SOL    HW124712  14.340  12.802  11.124
 7605SOL    HW224713  14.226  12.706  11.097
 7606SOL     OW24714  11.313   4.835   1.744
 7606SOL    HW124715  11.360   4.848   1.827
 7606SOL    HW224716  11.323   4.741   1.726
 7607SOL     OW24717   8.708   6.758   0.850
 7607SOL    HW124718   8.803   6.748   0.862
 7607SOL    HW224719   8.700   6.837   0.796
 7608SOL     OW24720   0.010   1.798   6.900
 7608SOL    HW124721   0.030   1.726   6.840
 7608SOL    HW224722   0.036   1.765   6.986
 7609SOL     OW24723   4.744  12.263   9.891
 7609SOL    HW124724   4.683  12.337   9.898
 7609SOL    HW224725   4.831  12.304   9.898
 7610SOL     OW24726   7.501   3.833   2.196
 7610SOL    HW124727   7.433   3.888   2.157
 7610SOL    HW224728   7.487   3.746   2.158
 7611SOL     OW24729   9.426   0.313   3.545
 7611SOL    HW124730   9.436   0.338   3.453
 7611SOL    HW224731   9.512   0.331   3.584
 7612SOL     OW24732  10.680   7.470  12.377
 7612SOL    HW124733  10.690   7.555  12.334
 7612SOL    HW224734  10.587   7.466  12.401
 7613SOL     OW24735   3.908   1.842  14.182
 7613SOL    HW124736   3.959   1.896  14.243
 7613SOL    HW224737   3.953   1.852  14.099
 7614SOL     OW24738  12.339   6.284   8.324
 7614SOL    HW124739  12.391   6.303   8.246
 7614SOL    HW224740  12.369   6.347   8.389
 7615SOL     OW24741   3.465  13.236   7.371
 7615SOL    HW124742   3.457  13.152   7.326
 7615SOL    HW224743   3.508  13.294   7.308
 7616SOL     OW24744  10.637   0.176  11.284
 7616SOL    HW124745  10.668   0.147  11.199
 7616SOL    HW224746  10.576   0.247  11.265
 7617SOL     OW24747  12.877   6.789   2.896
 7617SOL    HW124748  12.830   6.804   2.978
 7617SOL    HW224749  12.953   6.846   2.900
 7618SOL     OW24750   1.431   2.339   7.589
 7618SOL    HW124751   1.520   2.361   7.564
 7618SOL    HW224752   1.377   2.408   7.549
 7619SOL     OW24753  14.413   5.470   6.591
 7619SOL    HW124754  14.446   5.438   6.675
 7619SOL    HW224755  14.391   5.391   6.542
 7620SOL     OW24756   2.052   5.808   4.794
 7620SOL    HW124757   2.138   5.791   4.754
 7620SOL    HW224758   2.019   5.721   4.817
 7621SOL     OW24759   5.474  13.041   9.808
 7621SOL    HW124760   5.459  12.949   9.828
 7621SOL    HW224761   5.438  13.054   9.721
 7622SOL     OW24762   3.485   4.984   5.591
 7622SOL    HW124763   3.472   4.891   5.608
 7622SOL    HW224764   3.561   5.008   5.644
 7623SOL     OW24765  11.878   8.072  13.342
 7623SOL    HW124766  11.868   8.117  13.258
 7623SOL    HW224767  11.967   8.038  13.340
 7624SOL     OW24768   7.754   3.654  10.946
 7624SOL    HW124769   7.826   3.636  10.887
 7624SOL    HW224770   7.686   3.592  10.921
 7625SOL     OW24771  11.565   5.922  12.906
 7625SOL    HW124772  11.622   5.848  12.885
 7625SOL    HW224773  11.507   5.930  12.830
 7626SOL     OW24774  13.010  14.517   4.146
 7626SOL    HW124775  12.975  14.444   4.196
 7626SOL    HW224776  12.959  14.593   4.174
 7627SOL     OW24777  13.633   1.889  10.265
 7627SOL    HW124778  13.572   1.921  10.332
 7627SOL    HW224779  13.602   1.801  10.243
 7628SOL     OW24780   0.728   6.496   7.461
 7628SOL    HW124781   0.641   6.472   7.430
 7628SOL    HW224782   0.757   6.419   7.510
 7629SOL     OW24783  10.343   2.816   0.606
 7629SOL    HW124784  10.294   2.805   0.525
 7629SOL    HW224785  10.415   2.753   0.599
 7630SOL     OW24786  10.678   3.762  12.954
 7630SOL    HW124787  10.713   3.678  12.927
 7630SOL    HW224788  10.665   3.754  13.049
 7631SOL     OW24789   9.153  13.155   5.105
 7631SOL    HW124790   9.212  13.196   5.168
 7631SOL    HW224791   9.168  13.203   5.023
 7632SOL     OW24792   9.446  14.523   8.218
 7632SOL    HW124793   9.437  14.608   8.176
 7632SOL    HW224794   9.539  14.518   8.242
 7633SOL     OW24795   5.385  12.082   9.872
 7633SOL    HW124796   5.429  12.015   9.924
 7633SOL    HW224797   5.295  12.049   9.862
 7634SOL     OW24798   0.861   3.448  10.817
 7634SOL    HW124799   0.880   3.408  10.901
 7634SOL    HW224800   0.901   3.390  10.752
 7635SOL     OW24801   8.261   6.569  13.634
 7635SOL    HW124802   8.273   6.496  13.573
 7635SOL    HW224803   8.324   6.634  13.607
 7636SOL     OW24804  14.445   6.729   7.760
 7636SOL    HW124805  14.482   6.755   7.675
 7636SOL    HW224806  14.366   6.784   7.769
 7637SOL     OW24807   6.357  13.294  11.583
 7637SOL    HW124808   6.378  13.258  11.669
 7637SOL    HW224809   6.423  13.361  11.567
 7638SOL     OW24810   6.455   5.686  11.980
 7638SOL    HW124811   6.520   5.620  11.953
 7638SOL    HW224812   6.506   5.766  11.994
 7639SOL     OW24813   4.161  10.460  11.455
 7639SOL    HW124814   4.245  10.506  11.450
 7639SOL    HW224815   4.108  10.512  11.515
 7640SOL     OW24816  11.310  11.378   0.777
 7640SOL    HW124817  11.274  11.466   0.765
 7640SOL    HW224818  11.264  11.343   0.852
 7641SOL     OW24819   4.253  14.251   9.805
 7641SOL    HW124820   4.199  14.279   9.731
 7641SOL    HW224821   4.313  14.324   9.819
 7642SOL     OW24822  14.638   0.743   1.202
 7642SOL    HW124823  14.597   0.748   1.288
 7642SOL    HW224824  14.665   0.833   1.183
 7643SOL     OW24825  13.805   1.767   6.238
 7643SOL    HW124826  13.754   1.785   6.317
 7643SOL    HW224827  13.893   1.799   6.257
 7644SOL     OW24828   9.551  11.665  12.693
 7644SOL    HW124829   9.626  11.610  12.717
 7644SOL    HW224830   9.498  11.669  12.773
 7645SOL     OW24831  11.969  12.921   2.934
 7645SOL    HW124832  11.938  13.002   2.974
 7645SOL    HW224833  12.010  12.948   2.852
 7646SOL     OW24834  14.871   0.067   2.053
 7646SOL    HW124835  14.868  14.876   2.114
 7646SOL    HW224836   0.001   0.027   1.967
 7647SOL     OW24837   6.377   9.514   4.078
 7647SOL    HW124838   6.442   9.449   4.106
 7647SOL    HW224839   6.403   9.594   4.124
 7648SOL     OW24840   9.713   8.207  11.710
 7648SOL    HW124841   9.701   8.280  11.649
 7648SOL    HW224842   9.775   8.149  11.665
 7649SOL     OW24843  10.252  10.485  11.340
 7649SOL    HW124844  10.213  10.512  11.257
 7649SOL    HW224845  10.265  10.391  11.332
 7650SOL     OW24846   5.971   0.673   4.159
 7650SOL    HW124847   5.985   0.646   4.250
 7650SOL    HW224848   6.054   0.714   4.134
 7651SOL     OW24849  10.700   1.957   3.369
 7651SOL    HW124850  10.719   1.967   3.276
 7651SOL    HW224851  10.604   1.956   3.373
 7652SOL     OW24852  12.029  10.304  14.679
 7652SOL    HW124853  12.080  10.384  14.665
 7652SOL    HW224854  12.095  10.235  14.686
 7653SOL     OW24855   8.576  12.106   5.722
 7653SOL    HW124856   8.511  12.176   5.711
 7653SOL    HW224857   8.640  12.143   5.784
 7654SOL     OW24858   4.769  12.572   1.422
 7654SOL    HW124859   4.758  12.581   1.516
 7654SOL    HW224860   4.857  12.606   1.405
 7655SOL     OW24861   4.504   1.542   3.241
 7655SOL    HW124862   4.439   1.606   3.269
 7655SOL    HW224863   4.524   1.566   3.151
 7656SOL     OW24864  10.933   3.575  12.499
 7656SOL    HW124865  10.972   3.642  12.442
 7656SOL    HW224866  10.850   3.553  12.455
 7657SOL     OW24867  12.614   5.580   6.491
 7657SOL    HW124868  12.617   5.581   6.586
 7657SOL    HW224869  12.533   5.626   6.469
 7658SOL     OW24870  11.204   0.899   8.268
 7658SOL    HW124871  11.209   0.810   8.232
 7658SOL    HW224872  11.270   0.948   8.220
 7659SOL     OW24873   8.724   9.142  11.063
 7659SOL    HW124874   8.803   9.165  11.112
 7659SOL    HW224875   8.750   9.068  11.009
 7660SOL     OW24876   5.799   5.092   2.839
 7660SOL    HW124877   5.721   5.146   2.850
 7660SOL    HW224878   5.821   5.063   2.928
 7661SOL     OW24879  11.215   2.203  13.922
 7661SOL    HW124880  11.166   2.230  13.844
 7661SOL    HW224881  11.264   2.126  13.894
 7662SOL     OW24882  10.028   6.483  10.475
 7662SOL    HW124883   9.941   6.461  10.441
 7662SOL    HW224884  10.074   6.399  10.478
 7663SOL     OW24885   1.920  12.042   8.929
 7663SOL    HW124886   1.849  11.981   8.908
 7663SOL    HW224887   1.984  12.031   8.859
 7664SOL     OW24888  13.601  11.817   3.889
 7664SOL    HW124889  13.676  11.793   3.943
 7664SOL    HW224890  13.534  11.751   3.909
 7665SOL     OW24891  10.820   7.362   1.840
 7665SOL    HW124892  10.776   7.278   1.852
 7665SOL    HW224893  10.757   7.416   1.793
 7666SOL     OW24894   9.363   7.578   3.199
 7666SOL    HW124895   9.326   7.662   3.225
 7666SOL    HW224896   9.363   7.579   3.104
 7667SOL     OW24897  10.822   1.872   0.228
 7667SOL    HW124898  10.883   1.917   0.170
 7667SOL    HW224899  10.850   1.780   0.225
 7668SOL     OW24900  12.107   1.571   1.980
 7668SOL    HW124901  12.034   1.629   1.957
 7668SOL    HW224902  12.065   1.497   2.025
 7669SOL     OW24903   3.786  11.334  10.299
 7669SOL    HW124904   3.742  11.299  10.221
 7669SOL    HW224905   3.845  11.401  10.265
 7670SOL     OW24906   0.489  13.949  13.690
 7670SOL    HW124907   0.476  13.894  13.612
 7670SOL    HW224908   0.418  14.013  13.686
 7671SOL     OW24909  10.498   0.584   5.051
 7671SOL    HW124910  10.417   0.607   5.095
 7671SOL    HW224911  10.472   0.525   4.981
 7672SOL     OW24912   4.474   0.969   2.394
 7672SOL    HW124913   4.397   0.959   2.338
 7672SOL    HW224914   4.527   0.892   2.377
 7673SOL     OW24915   6.837   4.116   1.168
 7673SOL    HW124916   6.786   4.062   1.229
 7673SOL    HW224917   6.821   4.075   1.082
 7674SOL     OW24918   6.312   9.281   3.382
 7674SOL    HW124919   6.306   9.332   3.463
 7674SOL    HW224920   6.262   9.201   3.399
 7675SOL     OW24921   6.781   0.647   1.429
 7675SOL    HW124922   6.769   0.731   1.474
 7675SOL    HW224923   6.848   0.602   1.479
 7676SOL     OW24924   0.308   9.197   3.382
 7676SOL    HW124925   0.278   9.153   3.302
 7676SOL    HW224926   0.393   9.157   3.400
 7677SOL     OW24927   5.254   1.057  11.145
 7677SOL    HW124928   5.189   0.988  11.137
 7677SOL    HW224929   5.332   1.012  11.178
 7678SOL     OW24930  12.279  11.688   5.227
 7678SOL    HW124931  12.301  11.711   5.136
 7678SOL    HW224932  12.305  11.765   5.278
 7679SOL     OW24933  13.628   6.876   3.809
 7679SOL    HW124934  13.693   6.881   3.880
 7679SOL    HW224935  13.547   6.852   3.853
 7680SOL     OW24936  11.466   5.459   7.862
 7680SOL    HW124937  11.521   5.385   7.889
 7680SOL    HW224938  11.413   5.480   7.939
 7681SOL     OW24939   9.325   8.534  13.124
 7681SOL    HW124940   9.248   8.577  13.163
 7681SOL    HW224941   9.360   8.480  13.196
 7682SOL     OW24942   0.069   8.747   1.912
 7682SOL    HW124943   0.152   8.711   1.943
 7682SOL    HW224944   0.003   8.690   1.950
 7683SOL     OW24945   3.710  12.399   7.036
 7683SOL    HW124946   3.669  12.330   7.087
 7683SOL    HW224947   3.795  12.413   7.078
 7684SOL     OW24948   9.168   3.640   7.261
 7684SOL    HW124949   9.118   3.613   7.185
 7684SOL    HW224950   9.118   3.712   7.299
 7685SOL     OW24951   5.070   2.860   3.746
 7685SOL    HW124952   5.035   2.940   3.784
 7685SOL    HW224953   5.000   2.795   3.758
 7686SOL     OW24954   3.372  10.088   8.965
 7686SOL    HW124955   3.415  10.170   8.987
 7686SOL    HW224956   3.424  10.021   9.010
 7687SOL     OW24957   7.470   4.996  14.747
 7687SOL    HW124958   7.543   5.006  14.686
 7687SOL    HW224959   7.512   4.994  14.833
 7688SOL     OW24960   4.473   4.844   8.205
 7688SOL    HW124961   4.387   4.848   8.163
 7688SOL    HW224962   4.503   4.754   8.190
 7689SOL     OW24963   9.552   8.962  11.129
 7689SOL    HW124964   9.525   9.016  11.203
 7689SOL    HW224965   9.623   8.907  11.164
 7690SOL     OW24966   8.144   3.212   2.930
 7690SOL    HW124967   8.076   3.152   2.900
 7690SOL    HW224968   8.207   3.157   2.975
 7691SOL     OW24969   8.324  12.515   0.277
 7691SOL    HW124970   8.376  12.438   0.253
 7691SOL    HW224971   8.357  12.541   0.363
 7692SOL     OW24972  12.831   2.278   8.260
 7692SOL    HW124973  12.736   2.266   8.264
 7692SOL    HW224974  12.866   2.216   8.324
 7693SOL     OW24975  10.534   0.476  12.320
 7693SOL    HW124976  10.540   0.550  12.260
 7693SOL    HW224977  10.623   0.440  12.321
 7694SOL     OW24978   1.378   5.595   2.614
 7694SOL    HW124979   1.448   5.609   2.677
 7694SOL    HW224980   1.404   5.516   2.565
 7695SOL     OW24981   8.502   8.813   3.047
 7695SOL    HW124982   8.517   8.771   3.131
 7695SOL    HW224983   8.434   8.878   3.063
 7696SOL     OW24984   7.506   8.305   9.909
 7696SOL    HW124985   7.471   8.386   9.946
 7696SOL    HW224986   7.438   8.239   9.927
 7697SOL     OW24987   1.287  10.146   7.636
 7697SOL    HW124988   1.350  10.211   7.603
 7697SOL    HW224989   1.333  10.063   7.629
 7698SOL     OW24990   3.539   1.325   0.833
 7698SOL    HW124991   3.471   1.360   0.889
 7698SOL    HW224992   3.594   1.400   0.810
 7699SOL     OW24993  11.965   7.165   2.051
 7699SOL    HW124994  11.960   7.202   2.139
 7699SOL    HW224995  11.983   7.072   2.065
 7700SOL     OW24996  14.459  10.104  13.056
 7700SOL    HW124997  14.415  10.169  13.001
 7700SOL    HW224998  14.409  10.024  13.042
 7701SOL     OW24999  14.826   8.820   7.831
 7701SOL    HW125000   0.008   8.753   7.855
 7701SOL    HW225001  14.828   8.882   7.904
 7702SOL     OW25002   6.615   5.073  12.035
 7702SOL    HW125003   6.550   5.143  12.044
 7702SOL    HW225004   6.689   5.114  11.989
 7703SOL     OW25005   1.636   1.122   6.669
 7703SOL    HW125006   1.617   1.142   6.577
 7703SOL    HW225007   1.589   1.188   6.718
 7704SOL     OW25008   6.717   8.072   3.099
 7704SOL    HW125009   6.733   7.989   3.053
 7704SOL    HW225010   6.765   8.137   3.048
 7705SOL     OW25011  14.476   4.386   1.080
 7705SOL    HW125012  14.423   4.448   1.030
 7705SOL    HW225013  14.416   4.352   1.147
 7706SOL     OW25014   9.391  10.881   0.937
 7706SOL    HW125015   9.324  10.942   0.966
 7706SOL    HW225016   9.358  10.846   0.854
 7707SOL     OW25017   4.740   4.838   4.939
 7707SOL    HW125018   4.722   4.894   4.864
 7707SOL    HW225019   4.826   4.867   4.970
 7708SOL     OW25020   2.193  11.175   8.640
 7708SOL    HW125021   2.284  11.168   8.611
 7708SOL    HW225022   2.199  11.203   8.732
 7709SOL     OW25023   7.241  11.721   8.678
 7709SOL    HW125024   7.301  11.649   8.700
 7709SOL    HW225025   7.197  11.741   8.761
 7710SOL     OW25026   6.468   6.208  14.220
 7710SOL    HW125027   6.453   6.294  14.179
 7710SOL    HW225028   6.520   6.160  14.155
 7711SOL     OW25029   5.955   5.448   2.277
 7711SOL    HW125030   5.890   5.519   2.278
 7711SOL    HW225031   6.039   5.492   2.266
 7712SOL     OW25032  11.624   0.019  12.807
 7712SOL    HW125033  11.672   0.042  12.728
 7712SOL    HW225034  11.626  14.805  12.810
 7713SOL     OW25035  14.309  11.525   6.908
 7713SOL    HW125036  14.366  11.449   6.922
 7713SOL    HW225037  14.347  11.594   6.962
 7714SOL     OW25038  12.251   4.283   1.749
 7714SOL    HW125039  12.343   4.304   1.766
 7714SOL    HW225040  12.204   4.365   1.767
 7715SOL     OW25041  14.675  13.874  10.971
 7715SOL    HW125042  14.765  13.906  10.962
 7715SOL    HW225043  14.680  13.781  10.946
 7716SOL     OW25044   2.487   3.461   6.977
 7716SOL    HW125045   2.397   3.459   6.945
 7716SOL    HW225046   2.486   3.403   7.053
 7717SOL     OW25047  11.261   5.708   1.915
 7717SOL    HW125048  11.224   5.628   1.878
 7717SOL    HW225049  11.209   5.725   1.993
 7718SOL     OW25050   4.875   7.315  11.736
 7718SOL    HW125051   4.845   7.288  11.649
 7718SOL    HW225052   4.806   7.374  11.767
 7719SOL     OW25053  13.619  13.663  13.866
 7719SOL    HW125054  13.671  13.654  13.946
 7719SOL    HW225055  13.617  13.757  13.849
 7720SOL     OW25056  13.032  14.709   8.539
 7720SOL    HW125057  13.002  14.623   8.510
 7720SOL    HW225058  12.966  14.770   8.505
 7721SOL     OW25059   7.572   9.694  10.789
 7721SOL    HW125060   7.600   9.603  10.785
 7721SOL    HW225061   7.606   9.726  10.873
 7722SOL     OW25062   4.916   1.475   8.880
 7722SOL    HW125063   4.828   1.500   8.910
 7722SOL    HW225064   4.904   1.389   8.841
 7723SOL     OW25065   3.285   4.088   5.202
 7723SOL    HW125066   3.377   4.062   5.195
 7723SOL    HW225067   3.285   4.154   5.272
 7724SOL     OW25068   6.283   6.521   7.074
 7724SOL    HW125069   6.322   6.566   6.999
 7724SOL    HW225070   6.191   6.548   7.073
 7725SOL     OW25071   3.980   7.450   3.458
 7725SOL    HW125072   3.911   7.472   3.521
 7725SOL    HW225073   4.053   7.508   3.482
 7726SOL     OW25074  13.945   7.174  10.265
 7726SOL    HW125075  13.962   7.127  10.184
 7726SOL    HW225076  13.905   7.256  10.238
 7727SOL     OW25077  10.684   2.643   6.267
 7727SOL    HW125078  10.710   2.735   6.272
 7727SOL    HW225079  10.647   2.633   6.179
 7728SOL     OW25080  10.180   8.155  11.345
 7728SOL    HW125081  10.145   8.228  11.294
 7728SOL    HW225082  10.262   8.188  11.382
 7729SOL     OW25083   7.081   8.161  14.254
 7729SOL    HW125084   7.094   8.094  14.187
 7729SOL    HW225085   6.986   8.164  14.267
 7730SOL     OW25086   4.176  14.040  13.692
 7730SOL    HW125087   4.127  14.053  13.610
 7730SOL    HW225088   4.207  13.949  13.687
 7731SOL     OW25089  11.689   0.172   5.870
 7731SOL    HW125090  11.742   0.159   5.791
 7731SOL    HW225091  11.726   0.249   5.912
 7732SOL     OW25092   4.187   8.229  14.527
 7732SOL    HW125093   4.200   8.215  14.620
 7732SOL    HW225094   4.148   8.148  14.495
 7733SOL     OW25095   7.018  12.373   2.679
 7733SOL    HW125096   6.956  12.400   2.746
 7733SOL    HW225097   7.098  12.353   2.727
 7734SOL     OW25098  12.326   8.842   1.514
 7734SOL    HW125099  12.250   8.894   1.486
 7734SOL    HW225100  12.400   8.885   1.471
 7735SOL     OW25101   1.196  12.881   3.558
 7735SOL    HW125102   1.147  12.915   3.483
 7735SOL    HW225103   1.267  12.829   3.519
 7736SOL     OW25104   8.242   7.320   4.260
 7736SOL    HW125105   8.299   7.359   4.326
 7736SOL    HW225106   8.204   7.395   4.215
 7737SOL     OW25107   0.385   0.934  10.570
 7737SOL    HW125108   0.376   1.003  10.636
 7737SOL    HW225109   0.480   0.918  10.566
 7738SOL     OW25110   9.242  10.751  10.042
 7738SOL    HW125111   9.154  10.744  10.078
 7738SOL    HW225112   9.287  10.813  10.099
 7739SOL     OW25113   7.882   6.255   7.830
 7739SOL    HW125114   7.953   6.199   7.860
 7739SOL    HW225115   7.810   6.238   7.891
 7740SOL     OW25116   8.551   0.508   6.970
 7740SOL    HW125117   8.605   0.436   6.940
 7740SOL    HW225118   8.481   0.466   7.021
 7741SOL     OW25119   7.200  10.180   5.502
 7741SOL    HW125120   7.110  10.157   5.478
 7741SOL    HW225121   7.253  10.149   5.428
 7742SOL     OW25122   4.867  12.285  11.078
 7742SOL    HW125123   4.813  12.364  11.072
 7742SOL    HW225124   4.854  12.241  10.994
 7743SOL     OW25125   6.435   0.160   1.430
 7743SOL    HW125126   6.509   0.218   1.449
 7743SOL    HW225127   6.438   0.148   1.335
 7744SOL     OW25128   4.960   5.633  10.136
 7744SOL    HW125129   5.031   5.629  10.200
 7744SOL    HW225130   4.980   5.711  10.084
 7745SOL     OW25131  14.822  14.640  11.135
 7745SOL    HW125132  14.861  14.676  11.056
 7745SOL    HW225133  14.833  14.709  11.201
 7746SOL     OW25134   0.554  11.387   2.366
 7746SOL    HW125135   0.468  11.359   2.396
 7746SOL    HW225136   0.540  11.419   2.277
 7747SOL     OW25137  11.408   0.596   3.986
 7747SOL    HW125138  11.383   0.688   3.974
 7747SOL    HW225139  11.451   0.594   4.071
 7748SOL     OW25140   3.162   3.838   5.231
 7748SOL    HW125141   3.170   3.860   5.324
 7748SOL    HW225142   3.212   3.905   5.185
 7749SOL     OW25143  11.522  14.162   3.892
 7749SOL    HW125144  11.448  14.111   3.923
 7749SOL    HW225145  11.576  14.098   3.844
 7750SOL     OW25146   4.003   4.388  11.062
 7750SOL    HW125147   4.075   4.334  11.030
 7750SOL    HW225148   3.924   4.340  11.037
 7751SOL     OW25149   6.959  13.207   5.425
 7751SOL    HW125150   7.054  13.198   5.425
 7751SOL    HW225151   6.926  13.120   5.404
 7752SOL     OW25152  14.064  12.144  11.326
 7752SOL    HW125153  14.005  12.138  11.250
 7752SOL    HW225154  14.102  12.057  11.333
 7753SOL     OW25155   6.683  10.485  11.936
 7753SOL    HW125156   6.748  10.459  11.872
 7753SOL    HW225157   6.670  10.408  11.991
 7754SOL     OW25158   1.683   6.652  10.403
 7754SOL    HW125159   1.630   6.652  10.323
 7754SOL    HW225160   1.730   6.569  10.401
 7755SOL     OW25161  13.857   3.883  12.732
 7755SOL    HW125162  13.905   3.836  12.800
 7755SOL    HW225163  13.786   3.824  12.708
 7756SOL     OW25164   5.730   7.745   2.980
 7756SOL    HW125165   5.737   7.734   2.885
 7756SOL    HW225166   5.738   7.839   2.994
 7757SOL     OW25167   2.045   9.558   0.500
 7757SOL    HW125168   2.106   9.503   0.549
 7757SOL    HW225169   2.058   9.533   0.409
 7758SOL     OW25170   9.403  10.014   6.931
 7758SOL    HW125171   9.383  10.030   6.839
 7758SOL    HW225172   9.365   9.928   6.949
 7759SOL     OW25173   0.546  10.515  13.743
 7759SOL    HW125174   0.572  10.438  13.794
 7759SOL    HW225175   0.452  10.523  13.756
 7760SOL     OW25176   1.097  11.190  11.879
 7760SOL    HW125177   1.004  11.183  11.899
 7760SOL    HW225178   1.100  11.237  11.795
 7761SOL     OW25179  13.954   0.009   6.969
 7761SOL    HW125180  14.030   0.067   6.978
 7761SOL    HW225181  13.979  14.831   6.899
 7762SOL     OW25182   7.333   8.861  11.018
 7762SOL    HW125183   7.265   8.853  11.086
 7762SOL    HW225184   7.321   8.949  10.983
 7763SOL     OW25185   9.087   8.185   0.336
 7763SOL    HW125186   9.059   8.244   0.406
 7763SOL    HW225187   9.143   8.238   0.280
 7764SOL     OW25188  10.798   8.617  10.052
 7764SOL    HW125189  10.775   8.539  10.104
 7764SOL    HW225190  10.779   8.691  10.110
 7765SOL     OW25191   3.298  13.697  11.729
 7765SOL    HW125192   3.221  13.754  11.739
 7765SOL    HW225193   3.319  13.670  11.819
 7766SOL     OW25194   4.068   0.621   0.709
 7766SOL    HW125195   4.114   0.584   0.784
 7766SOL    HW225196   4.046   0.710   0.735
 7767SOL     OW25197   8.780   1.709  12.790
 7767SOL    HW125198   8.731   1.626  12.790
 7767SOL    HW225199   8.810   1.719  12.700
 7768SOL     OW25200  13.021  14.633  14.066
 7768SOL    HW125201  13.074  14.669  13.995
 7768SOL    HW225202  12.980  14.555  14.027
 7769SOL     OW25203  12.002   4.016  14.794
 7769SOL    HW125204  12.059   4.088  14.767
 7769SOL    HW225205  11.980   4.035   0.003
 7770SOL     OW25206  10.714   5.233  13.549
 7770SOL    HW125207  10.687   5.248  13.459
 7770SOL    HW225208  10.649   5.279  13.602
 7771SOL     OW25209  13.829   8.304  13.122
 7771SOL    HW125210  13.888   8.262  13.059
 7771SOL    HW225211  13.743   8.300  13.080
 7772SOL     OW25212  12.028   9.370   6.161
 7772SOL    HW125213  12.040   9.276   6.154
 7772SOL    HW225214  11.994   9.397   6.076
 7773SOL     OW25215   5.008   4.354   6.472
 7773SOL    HW125216   4.926   4.391   6.440
 7773SOL    HW225217   5.076   4.410   6.434
 7774SOL     OW25218  11.423   1.280  11.479
 7774SOL    HW125219  11.388   1.272  11.390
 7774SOL    HW225220  11.514   1.251  11.470
 7775SOL     OW25221  10.937  11.807   1.294
 7775SOL    HW125222  10.878  11.843   1.228
 7775SOL    HW225223  11.004  11.760   1.244
 7776SOL     OW25224  12.632  10.045   2.698
 7776SOL    HW125225  12.622  10.134   2.734
 7776SOL    HW225226  12.726  10.027   2.704
 7777SOL     OW25227  10.674   0.437  14.251
 7777SOL    HW125228  10.613   0.470  14.317
 7777SOL    HW225229  10.626   0.443  14.168
 7778SOL     OW25230  11.986  13.193   4.739
 7778SOL    HW125231  11.906  13.246   4.736
 7778SOL    HW225232  12.054  13.249   4.704
 7779SOL     OW25233   3.677  10.825   5.211
 7779SOL    HW125234   3.766  10.797   5.188
 7779SOL    HW225235   3.682  10.845   5.304
 7780SOL     OW25236   5.143  10.860   9.577
 7780SOL    HW125237   5.062  10.866   9.627
 7780SOL    HW225238   5.134  10.926   9.509
 7781SOL     OW25239   2.664   5.182  10.471
 7781SOL    HW125240   2.724   5.107  10.473
 7781SOL    HW225241   2.685   5.227  10.389
 7782SOL     OW25242  14.383   9.781   2.533
 7782SOL    HW125243  14.350   9.805   2.446
 7782SOL    HW225244  14.441   9.707   2.517
 7783SOL     OW25245   1.578   5.216   2.256
 7783SOL    HW125246   1.491   5.196   2.223
 7783SOL    HW225247   1.621   5.131   2.265
 7784SOL     OW25248   2.668  14.200   7.065
 7784SOL    HW125249   2.664  14.287   7.025
 7784SOL    HW225250   2.612  14.207   7.143
 7785SOL     OW25251  10.475   7.065   3.636
 7785SOL    HW125252  10.413   7.023   3.696
 7785SOL    HW225253  10.422   7.129   3.589
 7786SOL     OW25254   0.718   2.036  10.685
 7786SOL    HW125255   0.733   2.095  10.612
 7786SOL    HW225256   0.782   1.966  10.673
 7787SOL     OW25257   3.634   3.180   4.903
 7787SOL    HW125258   3.573   3.128   4.954
 7787SOL    HW225259   3.661   3.123   4.831
 7788SOL     OW25260   9.454   3.962   8.210
 7788SOL    HW125261   9.522   3.955   8.277
 7788SOL    HW225262   9.372   3.953   8.258
 7789SOL     OW25263   2.331   6.133   7.403
 7789SOL    HW125264   2.350   6.040   7.391
 7789SOL    HW225265   2.320   6.167   7.315
 7790SOL     OW25266   6.360  10.416   5.534
 7790SOL    HW125267   6.374  10.336   5.585
 7790SOL    HW225268   6.293  10.464   5.583
 7791SOL     OW25269  14.685   8.846   0.757
 7791SOL    HW125270  14.679   8.932   0.799
 7791SOL    HW225271  14.708   8.786   0.828
 7792SOL     OW25272   1.857   9.742   9.685
 7792SOL    HW125273   1.953   9.745   9.677
 7792SOL    HW225274   1.832   9.663   9.638
 7793SOL     OW25275  14.802   2.662   6.953
 7793SOL    HW125276  14.747   2.728   6.994
 7793SOL    HW225277  14.844   2.706   6.880
 7794SOL     OW25278  14.181   2.294  11.974
 7794SOL    HW125279  14.136   2.210  11.984
 7794SOL    HW225280  14.226   2.307  12.058
 7795SOL     OW25281   9.463  12.658  12.485
 7795SOL    HW125282   9.530  12.686  12.423
 7795SOL    HW225283   9.512  12.628  12.561
 7796SOL     OW25284  11.852  10.933   3.761
 7796SOL    HW125285  11.827  10.928   3.669
 7796SOL    HW225286  11.854  10.841   3.790
 7797SOL     OW25287  11.937   2.330   4.229
 7797SOL    HW125288  12.017   2.364   4.269
 7797SOL    HW225289  11.882   2.408   4.213
 7798SOL     OW25290   9.617  12.325   2.661
 7798SOL    HW125291   9.623  12.346   2.567
 7798SOL    HW225292   9.678  12.253   2.673
 7799SOL     OW25293  11.063   7.997   2.522
 7799SOL    HW125294  11.135   7.975   2.462
 7799SOL    HW225295  11.106   8.011   2.606
 7800SOL     OW25296   3.849  10.183   3.502
 7800SOL    HW125297   3.904  10.202   3.577
 7800SOL    HW225298   3.771  10.142   3.539
 7801SOL     OW25299   1.877   3.378   7.847
 7801SOL    HW125300   1.923   3.324   7.912
 7801SOL    HW225301   1.835   3.314   7.789
 7802SOL     OW25302   3.409   4.517  13.057
 7802SOL    HW125303   3.502   4.498  13.066
 7802SOL    HW225304   3.405   4.611  13.040
 7803SOL     OW25305  11.220  13.887  12.269
 7803SOL    HW125306  11.197  13.812  12.325
 7803SOL    HW225307  11.289  13.932  12.317
 7804SOL     OW25308   2.076   7.195   7.805
 7804SOL    HW125309   2.112   7.262   7.862
 7804SOL    HW225310   2.049   7.124   7.864
 7805SOL     OW25311  11.503  13.719  14.755
 7805SOL    HW125312  11.461  13.753  14.676
 7805SOL    HW225313  11.563  13.651  14.724
 7806SOL     OW25314  13.231   1.936   7.593
 7806SOL    HW125315  13.196   1.902   7.510
 7806SOL    HW225316  13.240   1.859   7.648
 7807SOL     OW25317   5.723   4.032  10.704
 7807SOL    HW125318   5.777   4.108  10.680
 7807SOL    HW225319   5.771   3.989  10.775
 7808SOL     OW25320   4.249   8.920  11.036
 7808SOL    HW125321   4.278   8.870  11.113
 7808SOL    HW225322   4.154   8.911  11.037
 7809SOL     OW25323   5.977   9.923   7.455
 7809SOL    HW125324   5.960   9.894   7.545
 7809SOL    HW225325   5.902   9.978   7.433
 7810SOL     OW25326   7.941   5.180   9.507
 7810SOL    HW125327   7.998   5.146   9.437
 7810SOL    HW225328   7.879   5.236   9.461
 7811SOL     OW25329   4.851   0.428   7.613
 7811SOL    HW125330   4.924   0.419   7.552
 7811SOL    HW225331   4.821   0.518   7.601
 7812SOL     OW25332   8.535   9.671   8.284
 7812SOL    HW125333   8.447   9.685   8.249
 7812SOL    HW225334   8.591   9.661   8.207
 7813SOL     OW25335  14.040  10.651   1.130
 7813SOL    HW125336  14.130  10.679   1.146
 7813SOL    HW225337  14.005  10.632   1.217
 7814SOL     OW25338   6.628  12.252   1.333
 7814SOL    HW125339   6.582  12.232   1.414
 7814SOL    HW225340   6.670  12.337   1.349
 7815SOL     OW25341   8.427   8.986  13.981
 7815SOL    HW125342   8.474   9.018  13.904
 7815SOL    HW225343   8.381   9.062  14.016
 7816SOL     OW25344  12.978   2.046   3.732
 7816SOL    HW125345  13.055   1.989   3.730
 7816SOL    HW225346  12.969   2.071   3.824
 7817SOL     OW25347   3.416   4.597   8.333
 7817SOL    HW125348   3.330   4.607   8.291
 7817SOL    HW225349   3.415   4.662   8.404
 7818SOL     OW25350   3.942   3.176  12.735
 7818SOL    HW125351   4.032   3.187  12.705
 7818SOL    HW225352   3.898   3.130  12.664
 7819SOL     OW25353   9.657   0.407  10.615
 7819SOL    HW125354   9.698   0.390  10.530
 7819SOL    HW225355   9.678   0.330  10.668
 7820SOL     OW25356   5.772   7.576   5.250
 7820SOL    HW125357   5.827   7.511   5.206
 7820SOL    HW225358   5.830   7.651   5.263
 7821SOL     OW25359   0.390   3.892   4.416
 7821SOL    HW125360   0.296   3.873   4.417
 7821SOL    HW225361   0.400   3.966   4.356
 7822SOL     OW25362  14.882  10.660   1.040
 7822SOL    HW125363  14.834  10.647   0.958
 7822SOL    HW225364   0.009  10.571   1.076
 7823SOL     OW25365  11.021   6.769   9.331
 7823SOL    HW125366  10.977   6.704   9.276
 7823SOL    HW225367  10.969   6.849   9.318
 7824SOL     OW25368   3.780  13.965   2.253
 7824SOL    HW125369   3.699  14.008   2.280
 7824SOL    HW225370   3.764  13.872   2.267
 7825SOL     OW25371  13.641   3.139   4.291
 7825SOL    HW125372  13.662   3.134   4.384
 7825SOL    HW225373  13.623   3.231   4.275
 7826SOL     OW25374   9.128   6.788  10.460
 7826SOL    HW125375   9.140   6.727  10.533
 7826SOL    HW225376   9.131   6.733  10.382
 7827SOL     OW25377  13.926   7.997   4.380
 7827SOL    HW125378  13.870   7.936   4.332
 7827SOL    HW225379  13.931   8.074   4.323
 7828SOL     OW25380  10.571   2.928   9.990
 7828SOL    HW125381  10.529   2.894   9.911
 7828SOL    HW225382  10.657   2.886   9.992
 7829SOL     OW25383  11.137  12.426   6.254
 7829SOL    HW125384  11.193  12.489   6.299
 7829SOL    HW225385  11.186  12.401   6.176
 7830SOL     OW25386   3.855   9.580   6.181
 7830SOL    HW125387   3.831   9.597   6.090
 7830SOL    HW225388   3.901   9.658   6.210
 7831SOL     OW25389   6.450   3.223   8.088
 7831SOL    HW125390   6.539   3.191   8.105
 7831SOL    HW225391   6.399   3.145   8.066
 7832SOL     OW25392   6.936   1.138   2.938
 7832SOL    HW125393   7.015   1.109   2.983
 7832SOL    HW225394   6.869   1.074   2.962
 7833SOL     OW25395   8.055   2.831   4.125
 7833SOL    HW125396   8.124   2.890   4.096
 7833SOL    HW225397   8.099   2.771   4.186
 7834SOL     OW25398   5.041   5.640  12.075
 7834SOL    HW125399   4.994   5.618  12.155
 7834SOL    HW225400   5.133   5.625  12.096
 7835SOL     OW25401   9.311  10.007   4.944
 7835SOL    HW125402   9.284   9.990   4.854
 7835SOL    HW225403   9.382  10.071   4.936
 7836SOL     OW25404   0.963   7.022  11.380
 7836SOL    HW125405   0.901   6.960  11.342
 7836SOL    HW225406   0.910   7.079  11.435
 7837SOL     OW25407   5.372   6.838   8.683
 7837SOL    HW125408   5.375   6.934   8.682
 7837SOL    HW225409   5.278   6.818   8.680
 7838SOL     OW25410   8.134   5.164   5.955
 7838SOL    HW125411   8.125   5.096   6.022
 7838SOL    HW225412   8.058   5.221   5.969
 7839SOL     OW25413   5.170  11.849   8.649
 7839SOL    HW125414   5.097  11.842   8.710
 7839SOL    HW225415   5.197  11.758   8.633
 7840SOL     OW25416  13.508   4.466   6.767
 7840SOL    HW125417  13.551   4.510   6.840
 7840SOL    HW225418  13.424   4.437   6.803
 7841SOL     OW25419   5.285   1.793   8.925
 7841SOL    HW125420   5.321   1.766   9.009
 7841SOL    HW225421   5.362   1.810   8.871
 7842SOL     OW25422   3.530   6.847  13.060
 7842SOL    HW125423   3.518   6.917  12.996
 7842SOL    HW225424   3.564   6.773  13.008
 7843SOL     OW25425  12.767   9.049  11.737
 7843SOL    HW125426  12.791   9.077  11.648
 7843SOL    HW225427  12.672   9.051  11.737
 7844SOL     OW25428   5.902   7.631   1.353
 7844SOL    HW125429   5.828   7.643   1.293
 7844SOL    HW225430   5.863   7.594   1.432
 7845SOL     OW25431  11.294   6.773   0.332
 7845SOL    HW125432  11.266   6.830   0.404
 7845SOL    HW225433  11.389   6.787   0.328
 7846SOL     OW25434  14.377   7.146   3.425
 7846SOL    HW125435  14.384   7.121   3.333
 7846SOL    HW225436  14.288   7.123   3.450
 7847SOL     OW25437   7.097   8.015   4.227
 7847SOL    HW125438   7.046   8.067   4.289
 7847SOL    HW225439   7.184   8.054   4.229
 7848SOL     OW25440   6.645   5.707  13.451
 7848SOL    HW125441   6.610   5.773  13.391
 7848SOL    HW225442   6.630   5.624  13.406
 7849SOL     OW25443   0.464   9.049   8.220
 7849SOL    HW125444   0.463   8.989   8.295
 7849SOL    HW225445   0.375   9.085   8.217
 7850SOL     OW25446   3.717   6.161   4.917
 7850SOL    HW125447   3.764   6.082   4.947
 7850SOL    HW225448   3.628   6.148   4.948
 7851SOL     OW25449  11.437  12.217  14.349
 7851SOL    HW125450  11.418  12.276  14.276
 7851SOL    HW225451  11.362  12.158  14.353
 7852SOL     OW25452   0.696   9.860   1.596
 7852SOL    HW125453   0.753   9.890   1.668
 7852SOL    HW225454   0.632   9.803   1.638
 7853SOL     OW25455  14.062   5.929  10.437
 7853SOL    HW125456  14.152   5.936  10.405
 7853SOL    HW225457  14.026   5.853  10.392
 7854SOL     OW25458   4.154   6.263   9.663
 7854SOL    HW125459   4.157   6.186   9.607
 7854SOL    HW225460   4.115   6.331   9.608
 7855SOL     OW25461  13.135   4.947  12.749
 7855SOL    HW125462  13.057   4.896  12.773
 7855SOL    HW225463  13.205   4.910  12.802
 7856SOL     OW25464   8.993   5.504   1.451
 7856SOL    HW125465   8.991   5.418   1.411
 7856SOL    HW225466   9.072   5.546   1.415
 7857SOL     OW25467  12.177  11.618   8.935
 7857SOL    HW125468  12.219  11.592   8.853
 7857SOL    HW225469  12.249  11.636   8.995
 7858SOL     OW25470  13.093   4.159   9.520
 7858SOL    HW125471  13.175   4.167   9.570
 7858SOL    HW225472  13.114   4.095   9.452
 7859SOL     OW25473  14.792  10.166   5.051
 7859SOL    HW125474  14.838  10.168   5.135
 7859SOL    HW225475  14.717  10.108   5.065
 7860SOL     OW25476   0.313  10.800   6.493
 7860SOL    HW125477   0.358  10.885   6.487
 7860SOL    HW225478   0.223  10.820   6.467
 7861SOL     OW25479   6.390   6.574   4.494
 7861SOL    HW125480   6.368   6.540   4.407
 7861SOL    HW225481   6.319   6.542   4.550
 7862SOL     OW25482   4.126   6.620   3.392
 7862SOL    HW125483   4.137   6.528   3.416
 7862SOL    HW225484   4.214   6.655   3.390
 7863SOL     OW25485   3.894  11.914  12.760
 7863SOL    HW125486   3.966  11.851  12.749
 7863SOL    HW225487   3.907  11.977  12.689
 7864SOL     OW25488  11.073   1.090  14.310
 7864SOL    HW125489  11.063   0.995  14.313
 7864SOL    HW225490  10.984   1.124  14.322
 7865SOL     OW25491  12.705  13.728   9.063
 7865SOL    HW125492  12.619  13.736   9.104
 7865SOL    HW225493  12.752  13.807   9.088
 7866SOL     OW25494  14.033   4.256  13.624
 7866SOL    HW125495  13.979   4.238  13.547
 7866SOL    HW225496  14.100   4.317  13.592
 7867SOL     OW25497   0.930   1.727   9.008
 7867SOL    HW125498   0.859   1.790   9.002
 7867SOL    HW225499   0.960   1.733   9.099
 7868SOL     OW25500   2.503   0.859  11.136
 7868SOL    HW125501   2.527   0.932  11.194
 7868SOL    HW225502   2.585   0.832  11.096
 7869SOL     OW25503  10.391  13.041   4.532
 7869SOL    HW125504  10.438  13.023   4.451
 7869SOL    HW225505  10.446  13.001   4.600
 7870SOL     OW25506   8.745  10.961   0.764
 7870SOL    HW125507   8.713  10.941   0.851
 7870SOL    HW225508   8.681  11.022   0.727
 7871SOL     OW25509   4.797  13.936   5.396
 7871SOL    HW125510   4.738  13.861   5.405
 7871SOL    HW225511   4.815  13.962   5.486
 7872SOL     OW25512  13.207  12.774   2.117
 7872SOL    HW125513  13.166  12.695   2.082
 7872SOL    HW225514  13.156  12.846   2.080
 7873SOL     OW25515  11.509   2.308   8.501
 7873SOL    HW125516  11.599   2.312   8.469
 7873SOL    HW225517  11.509   2.236   8.563
 7874SOL     OW25518   8.447   0.618   8.721
 7874SOL    HW125519   8.385   0.546   8.705
 7874SOL    HW225520   8.398   0.697   8.701
 7875SOL     OW25521   8.055  14.156   9.006
 7875SOL    HW125522   8.042  14.239   9.053
 7875SOL    HW225523   8.114  14.106   9.062
 7876SOL     OW25524   8.296  14.416   9.535
 7876SOL    HW125525   8.321  14.365   9.612
 7876SOL    HW225526   8.215  14.460   9.561
 7877SOL     OW25527   1.750   6.937   6.365
 7877SOL    HW125528   1.661   6.910   6.388
 7877SOL    HW225529   1.792   6.858   6.333
 7878SOL     OW25530   4.829   7.445   0.660
 7878SOL    HW125531   4.813   7.394   0.739
 7878SOL    HW225532   4.868   7.527   0.691
 7879SOL     OW25533  12.027   9.604  14.711
 7879SOL    HW125534  12.038   9.670  14.780
 7879SOL    HW225535  11.933   9.589  14.707
 7880SOL     OW25536   8.976  10.743  11.234
 7880SOL    HW125537   8.914  10.775  11.168
 7880SOL    HW225538   9.056  10.792  11.216
 7881SOL     OW25539   4.147   4.636   5.299
 7881SOL    HW125540   4.054   4.630   5.318
 7881SOL    HW225541   4.154   4.620   5.204
 7882SOL     OW25542   0.166  14.183  10.914
 7882SOL    HW125543   0.196  14.248  10.850
 7882SOL    HW225544   0.075  14.207  10.932
 7883SOL     OW25545   3.944  11.192  12.575
 7883SOL    HW125546   3.885  11.235  12.637
 7883SOL    HW225547   4.031  11.222  12.599
 7884SOL     OW25548  11.971   2.505   3.900
 7884SOL    HW125549  12.037   2.559   3.856
 7884SOL    HW225550  12.004   2.496   3.989
 7885SOL     OW25551   3.979   3.041   2.910
 7885SOL    HW125552   4.032   3.120   2.901
 7885SOL    HW225553   3.907   3.066   2.968
 7886SOL     OW25554   3.781   6.648  13.695
 7886SOL    HW125555   3.795   6.590  13.770
 7886SOL    HW225556   3.865   6.692  13.683
 7887SOL     OW25557   7.859   2.691   2.361
 7887SOL    HW125558   7.864   2.651   2.274
 7887SOL    HW225559   7.767   2.682   2.386
 7888SOL     OW25560  10.508   8.618   3.549
 7888SOL    HW125561  10.459   8.540   3.523
 7888SOL    HW225562  10.547   8.649   3.468
 7889SOL     OW25563   7.223   0.655   4.438
 7889SOL    HW125564   7.175   0.725   4.481
 7889SOL    HW225565   7.277   0.617   4.508
 7890SOL     OW25566  14.864  10.823   8.255
 7890SOL    HW125567  14.789  10.875   8.224
 7890SOL    HW225568  14.825  10.738   8.279
 7891SOL     OW25569   6.917   1.689   8.967
 7891SOL    HW125570   6.987   1.624   8.970
 7891SOL    HW225571   6.916   1.727   9.055
 7892SOL     OW25572   4.099  11.316   2.984
 7892SOL    HW125573   4.187  11.283   3.001
 7892SOL    HW225574   4.093  11.395   3.038
 7893SOL     OW25575   0.908   7.592   6.325
 7893SOL    HW125576   0.826   7.627   6.358
 7893SOL    HW225577   0.949   7.664   6.277
 7894SOL     OW25578   1.795   7.732   4.270
 7894SOL    HW125579   1.878   7.772   4.247
 7894SOL    HW225580   1.774   7.769   4.356
 7895SOL     OW25581  13.653  11.129   3.038
 7895SOL    HW125582  13.742  11.095   3.031
 7895SOL    HW225583  13.607  11.092   2.963
 7896SOL     OW25584   0.684  12.034  11.943
 7896SOL    HW125585   0.743  11.975  11.990
 7896SOL    HW225586   0.706  12.121  11.976
 7897SOL     OW25587   5.344  13.447   4.521
 7897SOL    HW125588   5.387  13.489   4.595
 7897SOL    HW225589   5.416  13.425   4.462
 7898SOL     OW25590   2.433   4.187   8.540
 7898SOL    HW125591   2.361   4.220   8.594
 7898SOL    HW225592   2.439   4.249   8.468
 7899SOL     OW25593  10.767   6.628   6.610
 7899SOL    HW125594  10.766   6.647   6.516
 7899SOL    HW225595  10.735   6.708   6.651
 7900SOL     OW25596  10.391   3.931   9.801
 7900SOL    HW125597  10.306   3.971   9.782
 7900SOL    HW225598  10.376   3.880   9.880
 7901SOL     OW25599  14.253   4.933  14.642
 7901SOL    HW125600  14.195   4.991  14.691
 7901SOL    HW225601  14.268   4.858  14.701
 7902SOL     OW25602   8.956  13.188  13.945
 7902SOL    HW125603   8.962  13.283  13.943
 7902SOL    HW225604   8.929  13.167  14.034
 7903SOL     OW25605   3.091   4.084  14.801
 7903SOL    HW125606   3.026   4.080  14.731
 7903SOL    HW225607   3.080   4.171  14.839
 7904SOL     OW25608   5.080  12.160   3.650
 7904SOL    HW125609   5.111  12.248   3.627
 7904SOL    HW225610   5.143  12.129   3.715
 7905SOL     OW25611   9.804   8.952   1.013
 7905SOL    HW125612   9.812   8.990   1.101
 7905SOL    HW225613   9.713   8.922   1.009
 7906SOL     OW25614   1.474   7.828   8.934
 7906SOL    HW125615   1.482   7.736   8.960
 7906SOL    HW225616   1.385   7.852   8.960
 7907SOL     OW25617   3.440  13.538   4.087
 7907SOL    HW125618   3.430  13.628   4.116
 7907SOL    HW225619   3.379  13.488   4.142
 7908SOL     OW25620  12.202   2.146   8.396
 7908SOL    HW125621  12.125   2.192   8.432
 7908SOL    HW225622  12.275   2.175   8.450
 7909SOL     OW25623   9.928   1.343   9.574
 7909SOL    HW125624   9.851   1.376   9.527
 7909SOL    HW225625   9.945   1.409   9.641
 7910SOL     OW25626   8.738   4.954   4.184
 7910SOL    HW125627   8.687   5.030   4.157
 7910SOL    HW225628   8.791   4.932   4.107
 7911SOL     OW25629   8.408   1.407   2.553
 7911SOL    HW125630   8.370   1.461   2.622
 7911SOL    HW225631   8.462   1.342   2.600
 7912SOL     OW25632  13.924   8.864  10.239
 7912SOL    HW125633  14.013   8.873  10.273
 7912SOL    HW225634  13.906   8.947  10.196
 7913SOL     OW25635  10.873   5.406   1.618
 7913SOL    HW125636  10.814   5.374   1.550
 7913SOL    HW225637  10.920   5.328   1.648
 7914SOL     OW25638   0.758  11.926   9.753
 7914SOL    HW125639   0.717  11.905   9.837
 7914SOL    HW225640   0.688  11.968   9.703
 7915SOL     OW25641   3.102   8.637  13.448
 7915SOL    HW125642   3.138   8.722  13.423
 7915SOL    HW225643   3.008   8.652  13.455
 7916SOL     OW25644   4.618  12.141   7.800
 7916SOL    HW125645   4.711  12.134   7.821
 7916SOL    HW225646   4.575  12.076   7.856
 7917SOL     OW25647   0.834   1.103   5.312
 7917SOL    HW125648   0.781   1.069   5.240
 7917SOL    HW225649   0.773   1.113   5.384
 7918SOL     OW25650  13.182   4.830   0.841
 7918SOL    HW125651  13.248   4.877   0.892
 7918SOL    HW225652  13.147   4.895   0.781
 7919SOL     OW25653   6.612   1.259  11.304
 7919SOL    HW125654   6.539   1.289  11.359
 7919SOL    HW225655   6.683   1.244  11.366
 7920SOL     OW25656   7.331   4.567  10.450
 7920SOL    HW125657   7.342   4.576  10.356
 7920SOL    HW225658   7.252   4.617  10.470
 7921SOL     OW25659  12.239   2.669   1.624
 7921SOL    HW125660  12.184   2.596   1.596
 7921SOL    HW225661  12.293   2.689   1.548
 7922SOL     OW25662   0.724   6.619   0.711
 7922SOL    HW125663   0.793   6.630   0.646
 7922SOL    HW225664   0.763   6.565   0.779
 7923SOL     OW25665   6.286   4.505   5.908
 7923SOL    HW125666   6.326   4.519   5.994
 7923SOL    HW225667   6.230   4.581   5.895
 7924SOL     OW25668   0.034   1.057   6.351
 7924SOL    HW125669  14.843   1.089   6.297
 7924SOL    HW225670   0.058   0.973   6.311
 7925SOL     OW25671   4.658   7.524   6.694
 7925SOL    HW125672   4.567   7.546   6.676
 7925SOL    HW225673   4.694   7.602   6.738
 7926SOL     OW25674   2.550   1.047   0.511
 7926SOL    HW125675   2.534   0.953   0.511
 7926SOL    HW225676   2.551   1.071   0.604
 7927SOL     OW25677  12.552  13.197   8.272
 7927SOL    HW125678  12.537  13.284   8.235
 7927SOL    HW225679  12.469  13.151   8.259
 7928SOL     OW25680   1.491  11.597   3.786
 7928SOL    HW125681   1.458  11.653   3.715
 7928SOL    HW225682   1.428  11.524   3.789
 7929SOL     OW25683   0.997  10.667   1.009
 7929SOL    HW125684   0.975  10.645   0.919
 7929SOL    HW225685   1.033  10.586   1.046
 7930SOL     OW25686   1.827   7.504  14.180
 7930SOL    HW125687   1.788   7.507  14.267
 7930SOL    HW225688   1.782   7.431  14.136
 7931SOL     OW25689   3.780  11.293   9.823
 7931SOL    HW125690   3.854  11.239   9.799
 7931SOL    HW225691   3.704  11.251   9.782
 7932SOL     OW25692   7.983  13.382   2.928
 7932SOL    HW125693   8.055  13.446   2.936
 7932SOL    HW225694   8.007  13.311   2.988
 7933SOL     OW25695   3.863   8.795   2.724
 7933SOL    HW125696   3.872   8.719   2.665
 7933SOL    HW225697   3.949   8.837   2.723
 7934SOL     OW25698  14.660   7.417  14.715
 7934SOL    HW125699  14.631   7.448  14.629
 7934SOL    HW225700  14.704   7.493  14.753
 7935SOL     OW25701   7.053   9.943   7.398
 7935SOL    HW125702   7.143   9.972   7.406
 7935SOL    HW225703   7.003  10.022   7.381
 7936SOL     OW25704  10.182  10.637  11.818
 7936SOL    HW125705  10.266  10.594  11.832
 7936SOL    HW225706  10.169  10.635  11.723
 7937SOL     OW25707   5.323  13.948   5.488
 7937SOL    HW125708   5.245  13.990   5.524
 7937SOL    HW225709   5.365  14.015   5.434
 7938SOL     OW25710   8.404   7.868   9.777
 7938SOL    HW125711   8.468   7.863   9.706
 7938SOL    HW225712   8.328   7.819   9.745
 7939SOL     OW25713   0.314   4.553  13.583
 7939SOL    HW125714   0.369   4.477  13.600
 7939SOL    HW225715   0.225   4.517  13.577
 7940SOL     OW25716   2.485   6.831   3.651
 7940SOL    HW125717   2.413   6.770   3.640
 7940SOL    HW225718   2.482   6.855   3.744
 7941SOL     OW25719  12.209   0.916   2.055
 7941SOL    HW125720  12.145   0.859   2.013
 7941SOL    HW225721  12.165   1.000   2.064
 7942SOL     OW25722   1.131   0.399   6.243
 7942SOL    HW125723   1.076   0.413   6.320
 7942SOL    HW225724   1.196   0.470   6.246
 7943SOL     OW25725   2.004   3.311   3.386
 7943SOL    HW125726   1.944   3.261   3.442
 7943SOL    HW225727   2.044   3.376   3.444
 7944SOL     OW25728  11.768   6.907  14.336
 7944SOL    HW125729  11.834   6.955  14.385
 7944SOL    HW225730  11.717   6.974  14.291
 7945SOL     OW25731   4.876  13.634  10.157
 7945SOL    HW125732   4.951  13.658  10.102
 7945SOL    HW225733   4.800  13.674  10.114
 7946SOL     OW25734   2.160   3.340  10.668
 7946SOL    HW125735   2.100   3.380  10.604
 7946SOL    HW225736   2.235   3.312  10.616
 7947SOL     OW25737   3.560   6.482  13.648
 7947SOL    HW125738   3.599   6.405  13.609
 7947SOL    HW225739   3.634   6.538  13.671
 7948SOL     OW25740   0.011   8.566   3.241
 7948SOL    HW125741  14.858   8.633   3.300
 7948SOL    HW225742  14.816   8.527   3.200
 7949SOL     OW25743   0.994  12.575   3.255
 7949SOL    HW125744   0.970  12.592   3.164
 7949SOL    HW225745   1.088  12.556   3.252
 7950SOL     OW25746   9.616   9.799   2.878
 7950SOL    HW125747   9.645   9.829   2.964
 7950SOL    HW225748   9.525   9.771   2.892
 7951SOL     OW25749   0.775  11.896   0.293
 7951SOL    HW125750   0.750  11.981   0.330
 7951SOL    HW225751   0.793  11.916   0.200
 7952SOL     OW25752  11.007   0.115   4.656
 7952SOL    HW125753  10.917   0.147   4.671
 7952SOL    HW225754  10.996   0.035   4.606
 7953SOL     OW25755  14.688   2.709  13.276
 7953SOL    HW125756  14.743   2.652  13.330
 7953SOL    HW225757  14.621   2.741  13.337
 7954SOL     OW25758   7.813  13.236   6.204
 7954SOL    HW125759   7.745  13.303   6.196
 7954SOL    HW225760   7.811  13.212   6.297
 7955SOL     OW25761   8.365   1.168   9.955
 7955SOL    HW125762   8.439   1.194   9.899
 7955SOL    HW225763   8.406   1.135  10.035
 7956SOL     OW25764   1.807  13.425   2.480
 7956SOL    HW125765   1.816  13.412   2.386
 7956SOL    HW225766   1.714  13.443   2.493
 7957SOL     OW25767   7.958   5.581   7.584
 7957SOL    HW125768   7.904   5.525   7.529
 7957SOL    HW225769   7.916   5.579   7.670
 7958SOL     OW25770   6.169  11.685   1.189
 7958SOL    HW125771   6.131  11.646   1.268
 7958SOL    HW225772   6.262  11.693   1.208
 7959SOL     OW25773   7.909  12.333   5.195
 7959SOL    HW125774   7.884  12.358   5.284
 7959SOL    HW225775   7.979  12.269   5.207
 7960SOL     OW25776  13.002   6.110   8.277
 7960SOL    HW125777  13.018   6.045   8.209
 7960SOL    HW225778  13.075   6.101   8.338
 7961SOL     OW25779   6.873   4.355   5.030
 7961SOL    HW125780   6.830   4.429   5.073
 7961SOL    HW225781   6.851   4.280   5.084
 7962SOL     OW25782   1.426  11.217   6.501
 7962SOL    HW125783   1.477  11.254   6.429
 7962SOL    HW225784   1.418  11.289   6.564
 7963SOL     OW25785   6.652   4.350   3.058
 7963SOL    HW125786   6.600   4.425   3.086
 7963SOL    HW225787   6.589   4.288   3.022
 7964SOL     OW25788  13.819   8.805   8.696
 7964SOL    HW125789  13.785   8.886   8.735
 7964SOL    HW225790  13.775   8.735   8.744
 7965SOL     OW25791   6.021   2.343   5.478
 7965SOL    HW125792   6.039   2.262   5.526
 7965SOL    HW225793   6.024   2.411   5.545
 7966SOL     OW25794  13.954   3.831   5.996
 7966SOL    HW125795  13.947   3.876   5.912
 7966SOL    HW225796  14.038   3.785   5.992
 7967SOL     OW25797  12.778  10.187   3.749
 7967SOL    HW125798  12.713  10.120   3.728
 7967SOL    HW225799  12.821  10.155   3.828
 7968SOL     OW25800   9.818  14.107   0.061
 7968SOL    HW125801   9.821  14.143   0.150
 7968SOL    HW225802   9.727  14.117   0.034
 7969SOL     OW25803   1.440   8.818   5.232
 7969SOL    HW125804   1.484   8.740   5.199
 7969SOL    HW225805   1.455   8.816   5.326
 7970SOL     OW25806   6.112   9.124   9.623
 7970SOL    HW125807   6.048   9.193   9.605
 7970SOL    HW225808   6.088   9.091   9.709
 7971SOL     OW25809  10.458  14.726  11.665
 7971SOL    HW125810  10.485  14.739  11.756
 7971SOL    HW225811  10.492  14.804  11.619
 7972SOL     OW25812   2.572  12.355   8.165
 7972SOL    HW125813   2.647  12.298   8.181
 7972SOL    HW225814   2.574  12.373   8.071
 7973SOL     OW25815  13.318  11.778   3.675
 7973SOL    HW125816  13.246  11.720   3.700
 7973SOL    HW225817  13.376  11.723   3.621
 7974SOL     OW25818   6.309   8.634  12.769
 7974SOL    HW125819   6.227   8.659  12.727
 7974SOL    HW225820   6.365   8.712  12.762
 7975SOL     OW25821   5.333  12.410  12.903
 7975SOL    HW125822   5.275  12.425  12.829
 7975SOL    HW225823   5.282  12.438  12.979
 7976SOL     OW25824  11.634  13.334   7.173
 7976SOL    HW125825  11.704  13.275   7.201
 7976SOL    HW225826  11.632  13.325   7.078
 7977SOL     OW25827   3.917   3.925   4.455
 7977SOL    HW125828   4.007   3.919   4.489
 7977SOL    HW225829   3.862   3.925   4.533
 7978SOL     OW25830   9.244  13.712   4.218
 7978SOL    HW125831   9.330  13.706   4.176
 7978SOL    HW225832   9.213  13.800   4.197
 7979SOL     OW25833  11.715   7.335   0.219
 7979SOL    HW125834  11.787   7.357   0.161
 7979SOL    HW225835  11.642   7.314   0.160
 7980SOL     OW25836   5.466  10.298  14.362
 7980SOL    HW125837   5.549  10.281  14.407
 7980SOL    HW225838   5.471  10.244  14.282
 7981SOL     OW25839   3.766   2.861   1.675
 7981SOL    HW125840   3.685   2.907   1.653
 7981SOL    HW225841   3.775   2.875   1.770
 7982SOL     OW25842  13.031   2.537  13.182
 7982SOL    HW125843  12.975   2.529  13.104
 7982SOL    HW225844  13.108   2.484  13.162
 7983SOL     OW25845   2.955   6.044   9.018
 7983SOL    HW125846   2.870   6.051   9.062
 7983SOL    HW225847   3.016   6.016   9.086
 7984SOL     OW25848   6.368  13.094   9.754
 7984SOL    HW125849   6.334  13.013   9.716
 7984SOL    HW225850   6.318  13.106   9.835
 7985SOL     OW25851  14.116   2.410  10.887
 7985SOL    HW125852  14.129   2.355  10.809
 7985SOL    HW225853  14.040   2.371  10.931
 7986SOL     OW25854  10.436   2.010   3.409
 7986SOL    HW125855  10.341   2.022   3.403
 7986SOL    HW225856  10.465   2.077   3.471
 7987SOL     OW25857  13.910   0.725   8.363
 7987SOL    HW125858  13.979   0.787   8.342
 7987SOL    HW225859  13.945   0.674   8.436
 7988SOL     OW25860   6.553   0.579   9.769
 7988SOL    HW125861   6.601   0.653   9.806
 7988SOL    HW225862   6.573   0.507   9.829
 7989SOL     OW25863  11.577  11.055  10.004
 7989SOL    HW125864  11.496  11.004  10.011
 7989SOL    HW225865  11.597  11.081  10.094
 7990SOL     OW25866  14.499   0.971   8.322
 7990SOL    HW125867  14.410   0.939   8.340
 7990SOL    HW225868  14.546   0.958   8.405
 7991SOL     OW25869  11.000   7.857  12.795
 7991SOL    HW125870  11.027   7.917  12.725
 7991SOL    HW225871  10.992   7.772  12.752
 7992SOL     OW25872   6.458   5.503  12.229
 7992SOL    HW125873   6.396   5.560  12.274
 7992SOL    HW225874   6.499   5.559  12.164
 7993SOL     OW25875  12.851   0.635  12.908
 7993SOL    HW125876  12.836   0.689  12.830
 7993SOL    HW225877  12.767   0.591  12.923
 7994SOL     OW25878  13.050  11.804   6.085
 7994SOL    HW125879  12.958  11.790   6.111
 7994SOL    HW225880  13.101  11.756   6.150
 7995SOL     OW25881  12.510   3.720   5.242
 7995SOL    HW125882  12.482   3.810   5.260
 7995SOL    HW225883  12.448   3.688   5.177
 7996SOL     OW25884   2.345  10.008  13.240
 7996SOL    HW125885   2.405  10.051  13.179
 7996SOL    HW225886   2.382  10.027  13.327
 7997SOL     OW25887   7.803   1.815   3.419
 7997SOL    HW125888   7.825   1.836   3.329
 7997SOL    HW225889   7.787   1.900   3.460
 7998SOL     OW25890   7.065   7.608  13.534
 7998SOL    HW125891   7.156   7.583  13.515
 7998SOL    HW225892   7.038   7.549  13.604
 7999SOL     OW25893   0.142   9.078  13.988
 7999SOL    HW125894   0.235   9.102  13.988
 7999SOL    HW225895   0.136   9.004  14.049
 8000SOL     OW25896   6.636  13.234   4.991
 8000SOL    HW125897   6.678  13.319   5.004
 8000SOL    HW225898   6.691  13.190   4.926
 8001SOL     OW25899  12.648  13.599   0.684
 8001SOL    HW125900  12.730  13.644   0.668
 8001SOL    HW225901  12.580  13.665   0.668
 8002SOL     OW25902   4.458  11.049   9.518
 8002SOL    HW125903   4.520  11.118   9.542
 8002SOL    HW225904   4.499  10.968   9.549
 8003SOL     OW25905   0.227   3.036   8.414
 8003SOL    HW125906   0.314   3.076   8.407
 8003SOL    HW225907   0.168   3.102   8.379
 8004SOL     OW25908   3.251  14.111   7.118
 8004SOL    HW125909   3.164  14.078   7.094
 8004SOL    HW225910   3.257  14.094   7.212
 8005SOL     OW25911  12.927   7.988  14.442
 8005SOL    HW125912  12.950   7.946  14.359
 8005SOL    HW225913  12.887   8.071  14.417
 8006SOL     OW25914  12.554   1.752   9.249
 8006SOL    HW125915  12.556   1.729   9.342
 8006SOL    HW225916  12.641   1.788   9.232
 8007SOL     OW25917   0.587   0.482  12.886
 8007SOL    HW125918   0.587   0.390  12.861
 8007SOL    HW225919   0.495   0.500  12.909
 8008SOL     OW25920   0.002  12.607   7.765
 8008SOL    HW125921   0.004  12.702   7.755
 8008SOL    HW225922  14.873  12.593   7.859
 8009SOL     OW25923  11.575   2.942   3.671
 8009SOL    HW125924  11.601   2.946   3.579
 8009SOL    HW225925  11.583   3.031   3.703
 8010SOL     OW25926   2.240   5.863  14.828
 8010SOL    HW125927   2.219   5.952  14.799
 8010SOL    HW225928   2.235   5.867   0.042
 8011SOL     OW25929   0.950   1.451   1.485
 8011SOL    HW125930   0.879   1.394   1.515
 8011SOL    HW225931   0.969   1.421   1.396
 8012SOL     OW25932   5.290  14.171   9.330
 8012SOL    HW125933   5.266  14.104   9.266
 8012SOL    HW225934   5.206  14.211   9.354
 8013SOL     OW25935   9.901   6.595   4.050
 8013SOL    HW125936   9.979   6.618   4.101
 8013SOL    HW225937   9.933   6.536   3.982
 8014SOL     OW25938   2.807   9.853   3.482
 8014SOL    HW125939   2.903   9.852   3.481
 8014SOL    HW225940   2.783   9.784   3.544
 8015SOL     OW25941   8.860   8.791   9.506
 8015SOL    HW125942   8.893   8.813   9.593
 8015SOL    HW225943   8.796   8.721   9.522
 8016SOL     OW25944   1.368  11.522  11.278
 8016SOL    HW125945   1.439  11.491  11.222
 8016SOL    HW225946   1.321  11.586  11.225
 8017SOL     OW25947   3.139   1.751   7.541
 8017SOL    HW125948   3.220   1.732   7.589
 8017SOL    HW225949   3.128   1.846   7.551
 8018SOL     OW25950  12.902   9.664   6.275
 8018SOL    HW125951  12.858   9.714   6.344
 8018SOL    HW225952  12.830   9.626   6.224
 8019SOL     OW25953  10.354   6.206   4.607
 8019SOL    HW125954  10.377   6.254   4.527
 8019SOL    HW225955  10.421   6.232   4.670
 8020SOL     OW25956   9.579   9.665   7.013
 8020SOL    HW125957   9.586   9.587   6.958
 8020SOL    HW225958   9.640   9.727   6.974
 8021SOL     OW25959  14.346   3.319   5.254
 8021SOL    HW125960  14.295   3.239   5.241
 8021SOL    HW225961  14.433   3.298   5.220
 8022SOL     OW25962   1.287  11.148   0.749
 8022SOL    HW125963   1.297  11.054   0.763
 8022SOL    HW225964   1.193  11.159   0.732
 8023SOL     OW25965  13.993   1.597  10.404
 8023SOL    HW125966  13.928   1.551  10.351
 8023SOL    HW225967  14.071   1.542  10.400
 8024SOL     OW25968   4.324   1.030  11.507
 8024SOL    HW125969   4.276   1.092  11.562
 8024SOL    HW225970   4.348   0.959  11.567
 8025SOL     OW25971   8.890  14.113   4.701
 8025SOL    HW125972   8.802  14.093   4.733
 8025SOL    HW225973   8.948  14.065   4.760
 8026SOL     OW25974  11.920   1.465   5.567
 8026SOL    HW125975  11.853   1.432   5.507
 8026SOL    HW225976  11.871   1.508   5.637
 8027SOL     OW25977   2.091  12.797   1.344
 8027SOL    HW125978   1.997  12.797   1.323
 8027SOL    HW225979   2.132  12.750   1.271
 8028SOL     OW25980  11.956   3.010   6.467
 8028SOL    HW125981  11.914   2.925   6.452
 8028SOL    HW225982  11.992   3.035   6.382
 8029SOL     OW25983  12.640   2.396   1.326
 8029SOL    HW125984  12.629   2.308   1.289
 8029SOL    HW225985  12.734   2.414   1.318
 8030SOL     OW25986   5.512   2.716  14.733
 8030SOL    HW125987   5.433   2.753  14.694
 8030SOL    HW225988   5.484   2.687  14.820
 8031SOL     OW25989   0.810   8.475   6.288
 8031SOL    HW125990   0.728   8.525   6.289
 8031SOL    HW225991   0.844   8.485   6.200
 8032SOL     OW25992   3.996   7.082  13.761
 8032SOL    HW125993   3.945   7.118  13.833
 8032SOL    HW225994   4.031   7.158  13.715
 8033SOL     OW25995   8.653   4.358   5.757
 8033SOL    HW125996   8.637   4.322   5.844
 8033SOL    HW225997   8.655   4.453   5.770
 8034SOL     OW25998   6.214   2.614   1.162
 8034SOL    HW125999   6.127   2.645   1.134
 8034SOL    HW226000   6.264   2.608   1.080
 8035SOL     OW26001   3.899  14.528   5.401
 8035SOL    HW126002   3.932  14.438   5.393
 8035SOL    HW226003   3.814  14.518   5.445
 8036SOL     OW26004   4.159   8.657  14.757
 8036SOL    HW126005   4.205   8.684  14.678
 8036SOL    HW226006   4.225   8.613  14.810
 8037SOL     OW26007  11.768   9.831   5.225
 8037SOL    HW126008  11.758   9.809   5.318
 8037SOL    HW226009  11.853   9.792   5.201
 8038SOL     OW26010  13.688   9.836  12.159
 8038SOL    HW126011  13.663   9.816  12.069
 8038SOL    HW226012  13.704   9.930  12.160
 8039SOL     OW26013   6.753   2.246  13.125
 8039SOL    HW126014   6.721   2.333  13.148
 8039SOL    HW226015   6.700   2.186  13.178
 8040SOL     OW26016  10.178   1.457   1.038
 8040SOL    HW126017  10.187   1.499   0.952
 8040SOL    HW226018  10.134   1.522   1.092
 8041SOL     OW26019  13.067  12.054  13.954
 8041SOL    HW126020  13.070  12.064  13.859
 8041SOL    HW226021  13.143  12.103  13.986
 8042SOL     OW26022  11.562   9.066  13.730
 8042SOL    HW126023  11.571   9.079  13.824
 8042SOL    HW226024  11.629   9.002  13.708
 8043SOL     OW26025  12.977  12.954   5.363
 8043SOL    HW126026  13.019  12.946   5.449
 8043SOL    HW226027  12.921  13.032   5.371
 8044SOL     OW26028   0.370  13.232   4.883
 8044SOL    HW126029   0.291  13.283   4.865
 8044SOL    HW226030   0.364  13.209   4.975
 8045SOL     OW26031  12.850   0.418  13.454
 8045SOL    HW126032  12.926   0.449  13.405
 8045SOL    HW226033  12.781   0.481  13.432
 8046SOL     OW26034   1.432   7.930   6.609
 8046SOL    HW126035   1.479   7.871   6.668
 8046SOL    HW226036   1.428   8.013   6.657
 8047SOL     OW26037   6.365  12.783   6.632
 8047SOL    HW126038   6.459  12.794   6.618
 8047SOL    HW226039   6.356  12.694   6.666
 8048SOL     OW26040   2.274   7.706   4.268
 8048SOL    HW126041   2.301   7.646   4.338
 8048SOL    HW226042   2.355   7.753   4.245
 8049SOL     OW26043  10.020  13.701  13.101
 8049SOL    HW126044  10.097  13.750  13.129
 8049SOL    HW226045   9.948  13.739  13.151
 8050SOL     OW26046   4.746   3.608  13.848
 8050SOL    HW126047   4.687   3.677  13.816
 8050SOL    HW226048   4.813   3.600  13.780
 8051SOL     OW26049   1.558   3.015   9.902
 8051SOL    HW126050   1.503   3.068   9.844
 8051SOL    HW226051   1.644   3.016   9.860
 8052SOL     OW26052   1.494  13.033   2.876
 8052SOL    HW126053   1.560  12.996   2.935
 8052SOL    HW226054   1.466  12.960   2.821
 8053SOL     OW26055   6.620   5.031  12.757
 8053SOL    HW126056   6.559   4.987  12.698
 8053SOL    HW226057   6.564   5.083  12.815
 8054SOL     OW26058   9.079  13.764  12.081
 8054SOL    HW126059   9.101  13.810  11.999
 8054SOL    HW226060   9.031  13.828  12.133
 8055SOL     OW26061   7.126   2.597   2.099
 8055SOL    HW126062   7.037   2.622   2.124
 8055SOL    HW226063   7.183   2.645   2.160
 8056SOL     OW26064   4.208   6.990  11.303
 8056SOL    HW126065   4.143   7.046  11.346
 8056SOL    HW226066   4.179   6.984  11.212
 8057SOL     OW26067   4.227   8.373  13.321
 8057SOL    HW126068   4.305   8.317  13.315
 8057SOL    HW226069   4.155   8.314  13.299
 8058SOL     OW26070   2.021  11.690   8.314
 8058SOL    HW126071   1.961  11.652   8.250
 8058SOL    HW226072   1.967  11.701   8.393
 8059SOL     OW26073   0.525   2.759  11.508
 8059SOL    HW126074   0.605   2.734  11.463
 8059SOL    HW226075   0.455   2.739  11.446
 8060SOL     OW26076   6.548   5.135   6.652
 8060SOL    HW126077   6.642   5.156   6.652
 8060SOL    HW226078   6.507   5.210   6.696
 8061SOL     OW26079   5.284   4.212   2.568
 8061SOL    HW126080   5.317   4.153   2.637
 8061SOL    HW226081   5.262   4.293   2.614
 8062SOL     OW26082   0.921   3.031   7.643
 8062SOL    HW126083   0.839   3.047   7.598
 8062SOL    HW226084   0.975   2.984   7.578
 8063SOL     OW26085   8.887  11.239   0.970
 8063SOL    HW126086   8.866  11.243   0.877
 8063SOL    HW226087   8.846  11.317   1.008
 8064SOL     OW26088   5.274   5.526   3.105
 8064SOL    HW126089   5.367   5.512   3.088
 8064SOL    HW226090   5.267   5.528   3.201
 8065SOL     OW26091  14.184   2.104   6.487
 8065SOL    HW126092  14.128   2.027   6.497
 8065SOL    HW226093  14.210   2.126   6.576
 8066SOL     OW26094   1.943   1.764   6.307
 8066SOL    HW126095   1.876   1.808   6.359
 8066SOL    HW226096   1.976   1.694   6.363
 8067SOL     OW26097  14.197   2.828   5.097
 8067SOL    HW126098  14.167   2.749   5.053
 8067SOL    HW226099  14.137   2.896   5.068
 8068SOL     OW26100  11.382   0.223   9.847
 8068SOL    HW126101  11.404   0.140   9.805
 8068SOL    HW226102  11.466   0.258   9.875
 8069SOL     OW26103   0.570   4.211   5.812
 8069SOL    HW126104   0.601   4.121   5.827
 8069SOL    HW226105   0.592   4.257   5.893
 8070SOL     OW26106   5.359  11.818   5.898
 8070SOL    HW126107   5.387  11.726   5.899
 8070SOL    HW226108   5.265  11.815   5.910
 8071SOL     OW26109   9.759  12.959   9.662
 8071SOL    HW126110   9.717  13.043   9.643
 8071SOL    HW226111   9.851  12.980   9.671
 8072SOL     OW26112  12.975   7.584   6.999
 8072SOL    HW126113  12.882   7.559   7.005
 8072SOL    HW226114  13.009   7.568   7.087
 8073SOL     OW26115   6.218   0.925   3.089
 8073SOL    HW126116   6.301   0.888   3.117
 8073SOL    HW226117   6.170   0.852   3.050
 8074SOL     OW26118   1.631  11.542   9.799
 8074SOL    HW126119   1.692  11.608   9.832
 8074SOL    HW226120   1.674  11.505   9.723
 8075SOL     OW26121   1.889   6.096   1.928
 8075SOL    HW126122   1.825   6.158   1.963
 8075SOL    HW226123   1.921   6.137   1.848
 8076SOL     OW26124   6.838  10.285  14.681
 8076SOL    HW126125   6.907  10.339  14.721
 8076SOL    HW226126   6.776  10.270  14.752
 8077SOL     OW26127  12.866   4.517   1.391
 8077SOL    HW126128  12.789   4.553   1.435
 8077SOL    HW226129  12.911   4.594   1.357
 8078SOL     OW26130  14.294   6.512   6.514
 8078SOL    HW126131  14.343   6.591   6.537
 8078SOL    HW226132  14.243   6.491   6.592
 8079SOL     OW26133   1.777   2.116   1.150
 8079SOL    HW126134   1.701   2.173   1.143
 8079SOL    HW226135   1.777   2.085   1.241
 8080SOL     OW26136  13.912   0.752   4.441
 8080SOL    HW126137  13.856   0.807   4.495
 8080SOL    HW226138  13.931   0.805   4.363
 8081SOL     OW26139   9.033   8.443   9.681
 8081SOL    HW126140   9.063   8.443   9.590
 8081SOL    HW226141   9.111   8.464   9.732
 8082SOL     OW26142   9.034   1.673   8.598
 8082SOL    HW126143   9.123   1.680   8.635
 8082SOL    HW226144   9.022   1.754   8.549
 8083SOL     OW26145  14.098   2.217   5.791
 8083SOL    HW126146  14.034   2.170   5.737
 8083SOL    HW226147  14.066   2.307   5.794
 8084SOL     OW26148   6.150  13.968   2.525
 8084SOL    HW126149   6.060  13.970   2.559
 8084SOL    HW226150   6.179  13.878   2.539
 8085SOL     OW26151   8.406   0.829   5.208
 8085SOL    HW126152   8.395   0.753   5.265
 8085SOL    HW226153   8.323   0.837   5.162
 8086SOL     OW26154   8.986  10.283  12.618
 8086SOL    HW126155   9.059  10.279  12.680
 8086SOL    HW226156   8.945  10.368  12.634
 8087SOL     OW26157  11.237  11.611   0.111
 8087SOL    HW126158  11.167  11.613   0.046
 8087SOL    HW226159  11.240  11.520   0.141
 8088SOL     OW26160   6.655  11.835   6.281
 8088SOL    HW126161   6.713  11.885   6.224
 8088SOL    HW226162   6.672  11.743   6.258
 8089SOL     OW26163   9.111  10.788  14.116
 8089SOL    HW126164   9.138  10.871  14.157
 8089SOL    HW226165   9.176  10.725  14.147
 8090SOL     OW26166   7.041  11.980   4.798
 8090SOL    HW126167   7.097  11.987   4.876
 8090SOL    HW226168   6.982  11.908   4.818
 8091SOL     OW26169   5.233   7.708  10.972
 8091SOL    HW126170   5.179   7.762  11.031
 8091SOL    HW226171   5.297   7.770  10.936
 8092SOL     OW26172  13.237   1.056   0.780
 8092SOL    HW126173  13.195   1.023   0.701
 8092SOL    HW226174  13.277   0.979   0.820
 8093SOL     OW26175   0.650   0.195   6.243
 8093SOL    HW126176   0.673   0.137   6.316
 8093SOL    HW226177   0.556   0.209   6.253
 8094SOL     OW26178   7.904  12.394   4.502
 8094SOL    HW126179   7.873  12.344   4.427
 8094SOL    HW226180   7.983  12.348   4.530
 8095SOL     OW26181   5.135   7.781  12.109
 8095SOL    HW126182   5.161   7.696  12.073
 8095SOL    HW226183   5.141   7.841  12.035
 8096SOL     OW26184  10.885   3.114   4.002
 8096SOL    HW126185  10.953   3.094   4.066
 8096SOL    HW226186  10.933   3.130   3.921
 8097SOL     OW26187   3.168   3.363   0.124
 8097SOL    HW126188   3.144   3.454   0.107
 8097SOL    HW226189   3.115   3.338   0.200
 8098SOL     OW26190  11.047   5.939  14.245
 8098SOL    HW126191  11.005   5.993  14.312
 8098SOL    HW226192  10.976   5.914  14.185
 8099SOL     OW26193  14.722  11.952   1.468
 8099SOL    HW126194  14.673  12.005   1.531
 8099SOL    HW226195  14.749  11.875   1.518
 8100SOL     OW26196   6.717  11.893  13.023
 8100SOL    HW126197   6.794  11.875  13.077
 8100SOL    HW226198   6.658  11.942  13.080
 8101SOL     OW26199   2.051   9.198   6.474
 8101SOL    HW126200   2.049   9.104   6.487
 8101SOL    HW226201   2.100   9.211   6.393
 8102SOL     OW26202   6.973   7.771  10.200
 8102SOL    HW126203   6.933   7.792  10.116
 8102SOL    HW226204   6.997   7.678  10.192
 8103SOL     OW26205   6.363   2.260   7.188
 8103SOL    HW126206   6.414   2.179   7.188
 8103SOL    HW226207   6.413   2.320   7.242
 8104SOL     OW26208   6.268  12.030   6.246
 8104SOL    HW126209   6.273  12.100   6.311
 8104SOL    HW226210   6.214  11.963   6.287
 8105SOL     OW26211   9.312   9.033   1.069
 8105SOL    HW126212   9.248   9.102   1.088
 8105SOL    HW226213   9.338   9.001   1.156
 8106SOL     OW26214  11.648   2.804   1.852
 8106SOL    HW126215  11.661   2.855   1.772
 8106SOL    HW226216  11.732   2.808   1.897
 8107SOL     OW26217   2.981   5.933   6.000
 8107SOL    HW126218   2.933   5.872   5.944
 8107SOL    HW226219   2.955   6.020   5.969
 8108SOL     OW26220   7.174  14.549  13.574
 8108SOL    HW126221   7.234  14.597  13.632
 8108SOL    HW226222   7.111  14.508  13.632
 8109SOL     OW26223  14.755   4.444   6.078
 8109SOL    HW126224  14.827   4.411   6.133
 8109SOL    HW226225  14.767   4.539   6.078
 8110SOL     OW26226   6.562   3.716  12.438
 8110SOL    HW126227   6.579   3.687  12.527
 8110SOL    HW226228   6.517   3.800  12.447
 8111SOL     OW26229  12.022   5.779   9.254
 8111SOL    HW126230  12.104   5.737   9.229
 8111SOL    HW226231  12.045   5.871   9.269
 8112SOL     OW26232   7.092   4.014  11.682
 8112SOL    HW126233   7.041   3.941  11.717
 8112SOL    HW226234   7.061   4.025  11.592
 8113SOL     OW26235  11.955   6.044   1.503
 8113SOL    HW126236  11.977   6.128   1.461
 8113SOL    HW226237  11.901   5.998   1.438
 8114SOL     OW26238   2.570   4.991  10.702
 8114SOL    HW126239   2.572   5.051  10.627
 8114SOL    HW226240   2.660   4.989  10.734
 8115SOL     OW26241  12.937   2.739   1.127
 8115SOL    HW126242  12.978   2.704   1.048
 8115SOL    HW226243  12.931   2.665   1.186
 8116SOL     OW26244   0.075  12.647   5.979
 8116SOL    HW126245  14.869  12.608   5.982
 8116SOL    HW226246   0.076  12.697   5.897
 8117SOL     OW26247  12.339   4.884  10.339
 8117SOL    HW126248  12.265   4.945  10.343
 8117SOL    HW226249  12.370   4.890  10.249
 8118SOL     OW26250   4.828   6.488  11.310
 8118SOL    HW126251   4.774   6.545  11.254
 8118SOL    HW226252   4.875   6.549  11.367
 8119SOL     OW26253  14.740  12.223   0.435
 8119SOL    HW126254  14.711  12.132   0.442
 8119SOL    HW226255  14.704  12.265   0.513
 8120SOL     OW26256  13.486   9.774  13.846
 8120SOL    HW126257  13.466   9.706  13.911
 8120SOL    HW226258  13.401   9.793  13.806
 8121SOL     OW26259   8.717   7.099   9.702
 8121SOL    HW126260   8.629   7.084   9.736
 8121SOL    HW226261   8.769   7.027   9.737
 8122SOL     OW26262   4.350   6.259  14.787
 8122SOL    HW126263   4.284   6.303  14.734
 8122SOL    HW226264   4.413   6.226  14.723
 8123SOL     OW26265   1.168   6.502  11.494
 8123SOL    HW126266   1.180   6.492  11.399
 8123SOL    HW226267   1.246   6.547  11.524
 8124SOL     OW26268   6.848  10.059  12.122
 8124SOL    HW126269   6.869  10.109  12.043
 8124SOL    HW226270   6.789   9.990  12.091
 8125SOL     OW26271  13.582   9.605   3.503
 8125SOL    HW126272  13.566   9.532   3.562
 8125SOL    HW226273  13.678   9.609   3.495
 8126SOL     OW26274  11.016   1.763   8.630
 8126SOL    HW126275  10.989   1.768   8.538
 8126SOL    HW226276  10.933   1.764   8.679
 8127SOL     OW26277   8.997  10.190  10.571
 8127SOL    HW126278   8.905  10.208  10.592
 8127SOL    HW226279   9.043  10.269  10.598
 8128SOL     OW26280   0.258   3.654   7.113
 8128SOL    HW126281   0.257   3.604   7.194
 8128SOL    HW226282   0.217   3.738   7.135
 8129SOL     OW26283   6.669   3.480  13.185
 8129SOL    HW126284   6.757   3.494  13.220
 8129SOL    HW226285   6.651   3.388  13.200
 8130SOL     OW26286   6.978   3.807  12.374
 8130SOL    HW126287   7.018   3.872  12.316
 8130SOL    HW226288   6.913   3.764  12.319
 8131SOL     OW26289   3.524  10.988  13.877
 8131SOL    HW126290   3.589  10.967  13.810
 8131SOL    HW226291   3.481  11.067  13.845
 8132SOL     OW26292  10.137  12.227   8.324
 8132SOL    HW126293  10.120  12.154   8.265
 8132SOL    HW226294  10.104  12.198   8.409
 8133SOL     OW26295   1.377   8.153   8.197
 8133SOL    HW126296   1.462   8.151   8.153
 8133SOL    HW226297   1.330   8.077   8.162
 8134SOL     OW26298  14.490   9.968  14.476
 8134SOL    HW126299  14.561   9.906  14.457
 8134SOL    HW226300  14.535  10.048  14.504
 8135SOL     OW26301   8.763   8.545   5.641
 8135SOL    HW126302   8.823   8.555   5.567
 8135SOL    HW226303   8.702   8.477   5.613
 8136SOL     OW26304   9.673   8.248   1.894
 8136SOL    HW126305   9.662   8.303   1.816
 8136SOL    HW226306   9.768   8.235   1.900
 8137SOL     OW26307  12.102   0.730   2.880
 8137SOL    HW126308  12.171   0.714   2.945
 8137SOL    HW226309  12.102   0.650   2.826
 8138SOL     OW26310   1.770  12.378   6.104
 8138SOL    HW126311   1.685  12.343   6.075
 8138SOL    HW226312   1.779  12.347   6.194
 8139SOL     OW26313   3.067   5.442   5.094
 8139SOL    HW126314   2.983   5.425   5.138
 8139SOL    HW226315   3.133   5.425   5.161
 8140SOL     OW26316   3.863   1.078   0.308
 8140SOL    HW126317   3.795   1.030   0.259
 8140SOL    HW226318   3.914   1.010   0.351
 8141SOL     OW26319  14.607   0.435   3.022
 8141SOL    HW126320  14.651   0.356   3.054
 8141SOL    HW226321  14.569   0.475   3.100
 8142SOL     OW26322  14.236  14.586   2.083
 8142SOL    HW126323  14.296  14.649   2.123
 8142SOL    HW226324  14.280  14.502   2.092
 8143SOL     OW26325   8.110   1.822   3.745
 8143SOL    HW126326   8.132   1.775   3.825
 8143SOL    HW226327   8.014   1.823   3.743
 8144SOL     OW26328   0.032  10.524  10.871
 8144SOL    HW126329  14.863  10.601  10.894
 8144SOL    HW226330   0.070  10.545  10.785
 8145SOL     OW26331   6.970  11.276   6.749
 8145SOL    HW126332   7.045  11.245   6.697
 8145SOL    HW226333   6.918  11.329   6.688
 8146SOL     OW26334   5.465   6.548  11.953
 8146SOL    HW126335   5.504   6.518  11.871
 8146SOL    HW226336   5.371   6.534  11.941
 8147SOL     OW26337   3.080  13.113   8.543
 8147SOL    HW126338   2.995  13.152   8.521
 8147SOL    HW226339   3.092  13.045   8.477
 8148SOL     OW26340   9.520   1.454   3.777
 8148SOL    HW126341   9.429   1.433   3.752
 8148SOL    HW226342   9.516   1.464   3.872
 8149SOL     OW26343  12.281   6.757   9.489
 8149SOL    HW126344  12.329   6.735   9.569
 8149SOL    HW226345  12.288   6.852   9.482
 8150SOL     OW26346  14.137  14.815   1.796
 8150SOL    HW126347  14.108  14.875   1.865
 8150SOL    HW226348  14.071  14.745   1.797
 8151SOL     OW26349   1.698   4.286   3.409
 8151SOL    HW126350   1.724   4.378   3.399
 8151SOL    HW226351   1.750   4.240   3.343
 8152SOL     OW26352   0.886  12.264   3.576
 8152SOL    HW126353   0.927  12.267   3.490
 8152SOL    HW226354   0.868  12.171   3.591
 8153SOL     OW26355   0.712   6.380  10.671
 8153SOL    HW126356   0.672   6.325  10.738
 8153SOL    HW226357   0.713   6.325  10.592
 8154SOL     OW26358   4.159   5.101  10.963
 8154SOL    HW126359   4.142   5.009  10.985
 8154SOL    HW226360   4.184   5.141  11.046
 8155SOL     OW26361   1.663   2.635  14.133
 8155SOL    HW126362   1.746   2.619  14.089
 8155SOL    HW226363   1.652   2.561  14.193
 8156SOL     OW26364   9.037   7.394   4.410
 8156SOL    HW126365   9.048   7.435   4.324
 8156SOL    HW226366   9.044   7.467   4.472
 8157SOL     OW26367   8.598   5.392   3.975
 8157SOL    HW126368   8.510   5.430   3.969
 8157SOL    HW226369   8.655   5.468   3.990
 8158SOL     OW26370  13.387   8.383  12.842
 8158SOL    HW126371  13.450   8.453  12.824
 8158SOL    HW226372  13.382   8.334  12.760
 8159SOL     OW26373  13.755   3.735   1.592
 8159SOL    HW126374  13.795   3.802   1.537
 8159SOL    HW226375  13.728   3.667   1.530
 8160SOL     OW26376   2.789   8.350   9.664
 8160SOL    HW126377   2.808   8.396   9.582
 8160SOL    HW226378   2.869   8.360   9.716
 8161SOL     OW26379  13.856  13.548   6.857
 8161SOL    HW126380  13.849  13.643   6.856
 8161SOL    HW226381  13.877  13.525   6.766
 8162SOL     OW26382  11.014  12.730  12.352
 8162SOL    HW126383  11.105  12.702  12.360
 8162SOL    HW226384  10.972  12.700  12.432
 8163SOL     OW26385  13.793   1.667  12.134
 8163SOL    HW126386  13.841   1.600  12.086
 8163SOL    HW226387  13.716   1.622  12.167
 8164SOL     OW26388   2.642   3.149   6.249
 8164SOL    HW126389   2.627   3.242   6.267
 8164SOL    HW226390   2.725   3.129   6.293
 8165SOL     OW26391   0.491   8.320  13.740
 8165SOL    HW126392   0.548   8.260  13.787
 8165SOL    HW226393   0.487   8.398  13.795
 8166SOL     OW26394   7.506   8.343   0.720
 8166SOL    HW126395   7.576   8.394   0.680
 8166SOL    HW226396   7.463   8.403   0.780
 8167SOL     OW26397   8.876   4.756   9.379
 8167SOL    HW126398   8.833   4.779   9.297
 8167SOL    HW226399   8.873   4.836   9.432
 8168SOL     OW26400  12.227  10.868   5.034
 8168SOL    HW126401  12.133  10.851   5.030
 8168SOL    HW226402  12.236  10.960   5.010
 8169SOL     OW26403   9.605  13.181  11.190
 8169SOL    HW126404   9.616  13.091  11.221
 8169SOL    HW226405   9.593  13.232  11.270
 8170SOL     OW26406  13.055  12.052  11.708
 8170SOL    HW126407  12.989  12.012  11.763
 8170SOL    HW226408  13.124  12.080  11.768
 8171SOL     OW26409  14.366   0.460   6.966
 8171SOL    HW126410  14.277   0.483   6.941
 8171SOL    HW226411  14.400   0.538   7.010
 8172SOL     OW26412   3.128   2.705  13.152
 8172SOL    HW126413   3.137   2.697  13.247
 8172SOL    HW226414   3.038   2.677  13.134
 8173SOL     OW26415   9.191   7.742  13.517
 8173SOL    HW126416   9.103   7.723  13.551
 8173SOL    HW226417   9.175   7.786  13.434
 8174SOL     OW26418   7.938  13.651   3.795
 8174SOL    HW126419   7.973  13.644   3.706
 8174SOL    HW226420   7.848  13.621   3.788
 8175SOL     OW26421   3.267   6.262   1.948
 8175SOL    HW126422   3.297   6.183   1.992
 8175SOL    HW226423   3.322   6.332   1.984
 8176SOL     OW26424   4.638   3.858   1.344
 8176SOL    HW126425   4.640   3.952   1.361
 8176SOL    HW226426   4.565   3.825   1.397
 8177SOL     OW26427   4.225   7.128   6.051
 8177SOL    HW126428   4.230   7.063   5.980
 8177SOL    HW226429   4.131   7.140   6.064
 8178SOL     OW26430  13.282  10.471   9.645
 8178SOL    HW126431  13.243  10.526   9.713
 8178SOL    HW226432  13.376  10.489   9.650
 8179SOL     OW26433   3.534   8.933   0.212
 8179SOL    HW126434   3.519   8.851   0.260
 8179SOL    HW226435   3.606   8.975   0.259
 8180SOL     OW26436   1.944   9.124   6.749
 8180SOL    HW126437   1.863   9.079   6.727
 8180SOL    HW226438   2.011   9.083   6.694
 8181SOL     OW26439   4.033  11.904  11.561
 8181SOL    HW126440   4.086  11.981  11.582
 8181SOL    HW226441   4.047  11.844  11.634
 8182SOL     OW26442   8.088   4.130   9.273
 8182SOL    HW126443   8.120   4.141   9.184
 8182SOL    HW226444   8.166   4.105   9.323
 8183SOL     OW26445   9.414   3.138   9.156
 8183SOL    HW126446   9.370   3.089   9.086
 8183SOL    HW226447   9.440   3.220   9.115
 8184SOL     OW26448   7.863   5.627   0.469
 8184SOL    HW126449   7.781   5.630   0.518
 8184SOL    HW226450   7.883   5.533   0.462
 8185SOL     OW26451  10.304   1.976   2.827
 8185SOL    HW126452  10.266   1.933   2.750
 8185SOL    HW226453  10.230   2.018   2.870
 8186SOL     OW26454   8.522   2.706   8.696
 8186SOL    HW126455   8.451   2.751   8.741
 8186SOL    HW226456   8.503   2.718   8.603
 8187SOL     OW26457   6.182   1.446  12.783
 8187SOL    HW126458   6.243   1.405  12.844
 8187SOL    HW226459   6.228   1.443  12.698
 8188SOL     OW26460   9.954   9.176   1.952
 8188SOL    HW126461   9.946   9.259   1.999
 8188SOL    HW226462   9.941   9.198   1.860
 8189SOL     OW26463   1.918  11.937  12.598
 8189SOL    HW126464   1.964  11.979  12.671
 8189SOL    HW226465   1.978  11.944  12.524
 8190SOL     OW26466   0.092   9.135  14.292
 8190SOL    HW126467   0.084   9.041  14.273
 8190SOL    HW226468   0.001   9.166  14.294
 8191SOL     OW26469  13.586  10.020   6.521
 8191SOL    HW126470  13.597   9.969   6.601
 8191SOL    HW226471  13.593   9.955   6.450
 8192SOL     OW26472   6.996   5.996   0.190
 8192SOL    HW126473   6.943   5.979   0.268
 8192SOL    HW226474   7.049   6.072   0.213
 8193SOL     OW26475   4.606   8.419  12.316
 8193SOL    HW126476   4.682   8.373  12.353
 8193SOL    HW226477   4.537   8.408  12.382
 8194SOL     OW26478  10.856   9.803   2.138
 8194SOL    HW126479  10.925   9.818   2.204
 8194SOL    HW226480  10.903   9.801   2.055
 8195SOL     OW26481   1.464  14.666   5.043
 8195SOL    HW126482   1.415  14.748   5.043
 8195SOL    HW226483   1.519  14.671   4.965
 8196SOL     OW26484   1.130  11.413  11.016
 8196SOL    HW126485   1.162  11.498  10.985
 8196SOL    HW226486   1.035  11.421  11.014
 8197SOL     OW26487   5.720  14.055   0.528
 8197SOL    HW126488   5.782  14.113   0.572
 8197SOL    HW226489   5.685  14.107   0.456
 8198SOL     OW26490   3.328   1.628   3.102
 8198SOL    HW126491   3.424   1.635   3.104
 8198SOL    HW226492   3.297   1.703   3.152
 8199SOL     OW26493  10.598   2.577  14.102
 8199SOL    HW126494  10.621   2.573  14.195
 8199SOL    HW226495  10.506   2.602  14.101
 8200SOL     OW26496   1.147  10.417   9.727
 8200SOL    HW126497   1.169  10.497   9.775
 8200SOL    HW226498   1.232  10.379   9.704
 8201SOL     OW26499   7.762   1.211  14.646
 8201SOL    HW126500   7.799   1.285  14.694
 8201SOL    HW226501   7.737   1.248  14.561
 8202SOL     OW26502  12.196   1.570  11.104
 8202SOL    HW126503  12.192   1.656  11.061
 8202SOL    HW226504  12.288   1.546  11.100
 8203SOL     OW26505   8.406   7.686   4.892
 8203SOL    HW126506   8.332   7.742   4.919
 8203SOL    HW226507   8.483   7.728   4.931
 8204SOL     OW26508  12.318   8.370   7.335
 8204SOL    HW126509  12.344   8.382   7.427
 8204SOL    HW226510  12.228   8.337   7.340
 8205SOL     OW26511   4.799   6.889   3.287
 8205SOL    HW126512   4.767   6.944   3.216
 8205SOL    HW226513   4.725   6.881   3.347
 8206SOL     OW26514  13.461  13.755   8.669
 8206SOL    HW126515  13.468  13.681   8.609
 8206SOL    HW226516  13.496  13.829   8.620
 8207SOL     OW26517  11.609   9.640   7.491
 8207SOL    HW126518  11.526   9.594   7.478
 8207SOL    HW226519  11.626   9.633   7.585
 8208SOL     OW26520   5.966   0.167   7.519
 8208SOL    HW126521   6.021   0.118   7.581
 8208SOL    HW226522   5.954   0.107   7.445
 8209SOL     OW26523   6.431   7.296   5.560
 8209SOL    HW126524   6.352   7.273   5.610
 8209SOL    HW226525   6.494   7.323   5.627
 8210SOL     OW26526   9.651  14.047   2.563
 8210SOL    HW126527   9.695  14.109   2.621
 8210SOL    HW226528   9.718  14.022   2.499
 8211SOL     OW26529  12.411   8.147   1.770
 8211SOL    HW126530  12.412   8.086   1.844
 8211SOL    HW226531  12.323   8.185   1.773
 8212SOL     OW26532   0.792  14.372   2.254
 8212SOL    HW126533   0.856  14.369   2.325
 8212SOL    HW226534   0.844  14.385   2.175
 8213SOL     OW26535   8.051  12.412  12.554
 8213SOL    HW126536   8.146  12.418  12.563
 8213SOL    HW226537   8.017  12.431  12.641
 8214SOL     OW26538   6.967   2.049   8.413
 8214SOL    HW126539   7.035   2.008   8.466
 8214SOL    HW226540   6.886   2.006   8.440
 8215SOL     OW26541   6.226   5.089  12.577
 8215SOL    HW126542   6.271   5.009  12.604
 8215SOL    HW226543   6.240   5.094  12.482
 8216SOL     OW26544   3.267   8.661  13.843
 8216SOL    HW126545   3.346   8.663  13.789
 8216SOL    HW226546   3.223   8.744  13.826
 8217SOL     OW26547   4.951  13.251   5.959
 8217SOL    HW126548   4.875  13.302   5.985
 8217SOL    HW226549   4.957  13.262   5.864
 8218SOL     OW26550  12.953  11.706   7.651
 8218SOL    HW126551  12.938  11.651   7.574
 8218SOL    HW226552  12.993  11.786   7.616
 8219SOL     OW26553   9.757   7.238  13.697
 8219SOL    HW126554   9.743   7.146  13.677
 8219SOL    HW226555   9.762   7.241  13.793
 8220SOL     OW26556   9.306  11.175   1.407
 8220SOL    HW126557   9.223  11.217   1.385
 8220SOL    HW226558   9.285  11.118   1.482
 8221SOL     OW26559   5.885  12.529   3.235
 8221SOL    HW126560   5.956  12.476   3.272
 8221SOL    HW226561   5.928  12.585   3.171
 8222SOL     OW26562   7.023  13.082  14.011
 8222SOL    HW126563   7.029  13.122  14.098
 8222SOL    HW226564   6.931  13.090  13.987
 8223SOL     OW26565  11.293   6.692   1.024
 8223SOL    HW126566  11.305   6.785   1.005
 8223SOL    HW226567  11.198   6.680   1.025
 8224SOL     OW26568   2.403  11.223   8.317
 8224SOL    HW126569   2.488  11.227   8.274
 8224SOL    HW226570   2.352  11.293   8.276
 8225SOL     OW26571   3.395   0.639   6.464
 8225SOL    HW126572   3.352   0.594   6.391
 8225SOL    HW226573   3.384   0.581   6.539
 8226SOL     OW26574  11.527   5.737   5.923
 8226SOL    HW126575  11.621   5.718   5.921
 8226SOL    HW226576  11.496   5.716   5.835
 8227SOL     OW26577   5.187   9.934   0.072
 8227SOL    HW126578   5.252   9.867   0.092
 8227SOL    HW226579   5.225   9.986   0.002
 8228SOL     OW26580  10.791   2.356   7.845
 8228SOL    HW126581  10.741   2.307   7.780
 8228SOL    HW226582  10.882   2.349   7.815
 8229SOL     OW26583   4.064   8.358   7.925
 8229SOL    HW126584   4.008   8.293   7.967
 8229SOL    HW226585   4.031   8.442   7.956
 8230SOL     OW26586   2.007  14.182  14.420
 8230SOL    HW126587   1.972  14.218  14.338
 8230SOL    HW226588   2.097  14.158  14.399
 8231SOL     OW26589  11.262   0.779   1.416
 8231SOL    HW126590  11.181   0.738   1.446
 8231SOL    HW226591  11.290   0.726   1.342
 8232SOL     OW26592  11.116   7.163   4.472
 8232SOL    HW126593  11.077   7.206   4.549
 8232SOL    HW226594  11.169   7.231   4.431
 8233SOL     OW26595   9.754  11.439   0.481
 8233SOL    HW126596   9.665  11.416   0.507
 8233SOL    HW226597   9.749  11.532   0.458
 8234SOL     OW26598  13.667   8.895   6.580
 8234SOL    HW126599  13.742   8.861   6.532
 8234SOL    HW226600  13.666   8.845   6.662
 8235SOL     OW26601   5.963   9.435  10.306
 8235SOL    HW126602   6.056   9.453  10.322
 8235SOL    HW226603   5.924   9.432  10.394
 8236SOL     OW26604  10.553   6.875   8.436
 8236SOL    HW126605  10.464   6.860   8.405
 8236SOL    HW226606  10.579   6.958   8.395
 8237SOL     OW26607   5.412   4.186   2.277
 8237SOL    HW126608   5.368   4.151   2.355
 8237SOL    HW226609   5.443   4.272   2.305
 8238SOL     OW26610   8.530   0.690   8.025
 8238SOL    HW126611   8.524   0.682   7.929
 8238SOL    HW226612   8.554   0.781   8.039
 8239SOL     OW26613   8.545   7.363   7.645
 8239SOL    HW126614   8.630   7.378   7.686
 8239SOL    HW226615   8.509   7.287   7.690
 8240SOL     OW26616   6.252  13.878  10.454
 8240SOL    HW126617   6.229  13.958  10.502
 8240SOL    HW226618   6.231  13.807  10.514
 8241SOL     OW26619  10.473   1.553   4.446
 8241SOL    HW126620  10.452   1.646   4.444
 8241SOL    HW226621  10.387   1.509   4.449
 8242SOL     OW26622   0.883  12.520   1.534
 8242SOL    HW126623   0.979  12.519   1.531
 8242SOL    HW226624   0.860  12.458   1.602
 8243SOL     OW26625  10.431   7.138  13.931
 8243SOL    HW126626  10.495   7.067  13.936
 8243SOL    HW226627  10.351   7.102  13.969
 8244SOL     OW26628  14.627   2.626   1.275
 8244SOL    HW126629  14.567   2.583   1.213
 8244SOL    HW226630  14.627   2.569   1.352
 8245SOL     OW26631   1.114   1.950   1.462
 8245SOL    HW126632   1.196   1.922   1.503
 8245SOL    HW226633   1.098   2.038   1.498
 8246SOL     OW26634   8.711  14.584   9.924
 8246SOL    HW126635   8.633  14.530   9.938
 8246SOL    HW226636   8.678  14.674   9.921
 8247SOL     OW26637  11.310   7.791   7.819
 8247SOL    HW126638  11.357   7.710   7.801
 8247SOL    HW226639  11.241   7.767   7.880
 8248SOL     OW26640   5.367  11.565   4.807
 8248SOL    HW126641   5.408  11.615   4.737
 8248SOL    HW226642   5.414  11.481   4.808
 8249SOL     OW26643  13.080   4.477   6.779
 8249SOL    HW126644  13.072   4.522   6.694
 8249SOL    HW226645  13.046   4.540   6.842
 8250SOL     OW26646  14.393   3.813   3.804
 8250SOL    HW126647  14.341   3.746   3.849
 8250SOL    HW226648  14.471   3.823   3.859
 8251SOL     OW26649   6.983   6.033   7.396
 8251SOL    HW126650   7.058   6.077   7.356
 8251SOL    HW226651   6.934   6.104   7.439
 8252SOL     OW26652  10.680   2.686   8.108
 8252SOL    HW126653  10.772   2.709   8.124
 8252SOL    HW226654  10.674   2.673   8.014
 8253SOL     OW26655   2.233   7.025   0.379
 8253SOL    HW126656   2.251   7.014   0.286
 8253SOL    HW226657   2.139   7.045   0.383
 8254SOL     OW26658  10.359  11.030   9.822
 8254SOL    HW126659  10.315  11.091   9.882
 8254SOL    HW226660  10.350  10.945   9.864
 8255SOL     OW26661  11.393  10.831   4.828
 8255SOL    HW126662  11.409  10.818   4.921
 8255SOL    HW226663  11.302  10.806   4.815
 8256SOL     OW26664   8.156  11.005   2.769
 8256SOL    HW126665   8.196  10.921   2.793
 8256SOL    HW226666   8.072  10.981   2.730
 8257SOL     OW26667   3.156  13.762   4.272
 8257SOL    HW126668   3.249  13.745   4.284
 8257SOL    HW226669   3.135  13.829   4.337
 8258SOL     OW26670   4.246   5.616   5.060
 8258SOL    HW126671   4.151   5.622   5.051
 8258SOL    HW226672   4.279   5.698   5.023
 8259SOL     OW26673   2.925  11.893  11.328
 8259SOL    HW126674   2.886  11.899  11.241
 8259SOL    HW226675   2.958  11.981  11.345
 8260SOL     OW26676   1.837  10.219  10.635
 8260SOL    HW126677   1.775  10.289  10.612
 8260SOL    HW226678   1.818  10.149  10.574
 8261SOL     OW26679  13.899   2.662   3.059
 8261SOL    HW126680  13.985   2.636   3.029
 8261SOL    HW226681  13.840   2.641   2.986
 8262SOL     OW26682  12.941   2.907  13.956
 8262SOL    HW126683  13.020   2.864  13.923
 8262SOL    HW226684  12.869   2.856  13.920
 8263SOL     OW26685   7.461   4.004   9.230
 8263SOL    HW126686   7.368   3.998   9.210
 8263SOL    HW226687   7.505   3.993   9.145
 8264SOL     OW26688   3.183   0.447  13.287
 8264SOL    HW126689   3.218   0.534  13.266
 8264SOL    HW226690   3.260   0.395  13.309
 8265SOL     OW26691  10.365   1.949   1.620
 8265SOL    HW126692  10.368   1.862   1.660
 8265SOL    HW226693  10.457   1.973   1.609
 8266SOL     OW26694   6.709  13.502   1.006
 8266SOL    HW126695   6.629  13.452   1.021
 8266SOL    HW226696   6.740  13.525   1.094
 8267SOL     OW26697  14.330   2.931   8.462
 8267SOL    HW126698  14.380   2.994   8.410
 8267SOL    HW226699  14.386   2.910   8.536
 8268SOL     OW26700   8.795  12.123   1.279
 8268SOL    HW126701   8.709  12.098   1.245
 8268SOL    HW226702   8.851  12.132   1.202
 8269SOL     OW26703   2.469   2.630   6.972
 8269SOL    HW126704   2.449   2.700   6.910
 8269SOL    HW226705   2.392   2.572   6.969
 8270SOL     OW26706   2.492  10.302   4.309
 8270SOL    HW126707   2.424  10.347   4.360
 8270SOL    HW226708   2.574  10.341   4.340
 8271SOL     OW26709  10.155   6.473   1.756
 8271SOL    HW126710  10.185   6.503   1.670
 8271SOL    HW226711  10.165   6.378   1.753
 8272SOL     OW26712  10.955   5.432   8.899
 8272SOL    HW126713  10.946   5.446   8.805
 8272SOL    HW226714  10.865   5.433   8.932
 8273SOL     OW26715   9.893   3.315  14.438
 8273SOL    HW126716   9.948   3.319  14.359
 8273SOL    HW226717   9.807   3.288  14.406
 8274SOL     OW26718   0.501  10.946   5.322
 8274SOL    HW126719   0.455  11.009   5.377
 8274SOL    HW226720   0.588  10.983   5.310
 8275SOL     OW26721   7.795   4.231   2.793
 8275SOL    HW126722   7.834   4.312   2.824
 8275SOL    HW226723   7.870   4.174   2.773
 8276SOL     OW26724   6.111   1.292  10.701
 8276SOL    HW126725   6.099   1.375  10.654
 8276SOL    HW226726   6.198   1.263  10.676
 8277SOL     OW26727  11.049   3.071  14.440
 8277SOL    HW126728  11.033   3.033  14.526
 8277SOL    HW226729  11.139   3.104  14.444
 8278SOL     OW26730   1.002   3.427   5.207
 8278SOL    HW126731   1.033   3.414   5.297
 8278SOL    HW226732   0.975   3.518   5.205
 8279SOL     OW26733   8.657  10.936  11.618
 8279SOL    HW126734   8.651  11.024  11.654
 8279SOL    HW226735   8.685  10.882  11.692
 8280SOL     OW26736   4.540   5.403  13.308
 8280SOL    HW126737   4.633   5.387  13.290
 8280SOL    HW226738   4.496   5.325  13.274
 8281SOL     OW26739  13.534  13.134   1.072
 8281SOL    HW126740  13.490  13.158   1.154
 8281SOL    HW226741  13.607  13.196   1.066
 8282SOL     OW26742   8.360  12.153   7.868
 8282SOL    HW126743   8.447  12.142   7.907
 8282SOL    HW226744   8.327  12.064   7.857
 8283SOL     OW26745   5.067   5.945   6.384
 8283SOL    HW126746   5.114   6.010   6.437
 8283SOL    HW226747   5.004   5.996   6.334
 8284SOL     OW26748  10.952   8.102  10.587
 8284SOL    HW126749  11.043   8.117  10.564
 8284SOL    HW226750  10.910   8.074  10.506
 8285SOL     OW26751   5.241   1.896   2.002
 8285SOL    HW126752   5.269   1.897   2.094
 8285SOL    HW226753   5.322   1.888   1.952
 8286SOL     OW26754   1.930  13.780   3.561
 8286SOL    HW126755   1.849  13.756   3.605
 8286SOL    HW226756   1.990  13.802   3.633
 8287SOL     OW26757   0.701  10.026   7.870
 8287SOL    HW126758   0.728  10.108   7.829
 8287SOL    HW226759   0.605  10.030   7.872
 8288SOL     OW26760   8.452   2.423  11.960
 8288SOL    HW126761   8.377   2.378  11.999
 8288SOL    HW226762   8.523   2.409  12.022
 8289SOL     OW26763  12.288  13.166  12.860
 8289SOL    HW126764  12.317  13.075  12.860
 8289SOL    HW226765  12.320  13.202  12.778
 8290SOL     OW26766  14.019   4.108  13.838
 8290SOL    HW126767  14.031   4.126  13.744
 8290SOL    HW226768  14.078   4.034  13.855
 8291SOL     OW26769   3.077   9.949   7.617
 8291SOL    HW126770   3.064  10.001   7.537
 8291SOL    HW226771   3.171   9.950   7.632
 8292SOL     OW26772   2.737  12.981  11.191
 8292SOL    HW126773   2.719  13.032  11.112
 8292SOL    HW226774   2.830  12.957  11.182
 8293SOL     OW26775   9.361   8.031  13.713
 8293SOL    HW126776   9.331   8.104  13.769
 8293SOL    HW226777   9.449   8.057  13.686
 8294SOL     OW26778   6.893   9.691   2.775
 8294SOL    HW126779   6.861   9.632   2.707
 8294SOL    HW226780   6.930   9.765   2.727
 8295SOL     OW26781  13.384   3.271  10.620
 8295SOL    HW126782  13.391   3.192  10.674
 8295SOL    HW226783  13.314   3.253  10.558
 8296SOL     OW26784  13.911  10.740   4.295
 8296SOL    HW126785  13.907  10.655   4.251
 8296SOL    HW226786  13.842  10.736   4.361
 8297SOL     OW26787  11.902   9.222   6.396
 8297SOL    HW126788  11.923   9.198   6.306
 8297SOL    HW226789  11.934   9.311   6.406
 8298SOL     OW26790  13.014   7.264   4.698
 8298SOL    HW126791  12.959   7.333   4.662
 8298SOL    HW226792  13.104   7.296   4.687
 8299SOL     OW26793   9.436   7.496  14.676
 8299SOL    HW126794   9.386   7.414  14.669
 8299SOL    HW226795   9.443   7.512  14.770
 8300SOL     OW26796   9.458  11.096   9.697
 8300SOL    HW126797   9.407  11.148   9.758
 8300SOL    HW226798   9.402  11.088   9.619
 8301SOL     OW26799  14.160  14.657  10.917
 8301SOL    HW126800  14.214  14.733  10.937
 8301SOL    HW226801  14.170  14.600  10.994
 8302SOL     OW26802   6.556  11.519   2.620
 8302SOL    HW126803   6.512  11.478   2.694
 8302SOL    HW226804   6.622  11.575   2.661
 8303SOL     OW26805  12.200   2.998   8.667
 8303SOL    HW126806  12.278   3.010   8.613
 8303SOL    HW226807  12.129   3.038   8.617
 8304SOL     OW26808  14.220   5.681   6.573
 8304SOL    HW126809  14.128   5.663   6.591
 8304SOL    HW226810  14.265   5.600   6.596
 8305SOL     OW26811   1.348  13.565   0.263
 8305SOL    HW126812   1.411  13.634   0.241
 8305SOL    HW226813   1.277  13.610   0.309
 8306SOL     OW26814   7.804   1.277   7.150
 8306SOL    HW126815   7.817   1.201   7.206
 8306SOL    HW226816   7.763   1.342   7.207
 8307SOL     OW26817   3.311   7.872  11.965
 8307SOL    HW126818   3.298   7.898  11.874
 8307SOL    HW226819   3.259   7.792  11.975
 8308SOL     OW26820   5.909   2.806   4.957
 8308SOL    HW126821   5.969   2.871   4.921
 8308SOL    HW226822   5.842   2.796   4.890
 8309SOL     OW26823   5.190   3.566  13.914
 8309SOL    HW126824   5.155   3.510  13.983
 8309SOL    HW226825   5.281   3.583  13.940
 8310SOL     OW26826   9.481  12.624   6.785
 8310SOL    HW126827   9.572  12.640   6.759
 8310SOL    HW226828   9.457  12.702   6.836
 8311SOL     OW26829   4.350   7.635   3.195
 8311SOL    HW126830   4.292   7.567   3.162
 8311SOL    HW226831   4.387   7.676   3.117
 8312SOL     OW26832   8.606   0.674  14.224
 8312SOL    HW126833   8.666   0.747  14.208
 8312SOL    HW226834   8.648   0.599  14.182
 8313SOL     OW26835  13.958  14.671   7.125
 8313SOL    HW126836  13.921  14.708   7.206
 8313SOL    HW226837  13.965  14.746   7.066
 8314SOL     OW26838   0.684   9.498  10.952
 8314SOL    HW126839   0.742   9.435  10.995
 8314SOL    HW226840   0.741   9.572  10.931
 8315SOL     OW26841   6.293  12.183  11.353
 8315SOL    HW126842   6.317  12.275  11.343
 8315SOL    HW226843   6.299  12.167  11.447
 8316SOL     OW26844   0.797  13.385   8.740
 8316SOL    HW126845   0.883  13.386   8.696
 8316SOL    HW226846   0.807  13.322   8.811
 8317SOL     OW26847  14.581   4.507   0.069
 8317SOL    HW126848  14.552   4.442   0.004
 8317SOL    HW226849  14.631   4.571   0.018
 8318SOL     OW26850   2.149   1.910   8.577
 8318SOL    HW126851   2.117   1.981   8.522
 8318SOL    HW226852   2.117   1.931   8.665
 8319SOL     OW26853   4.985  11.278   8.930
 8319SOL    HW126854   5.018  11.356   8.885
 8319SOL    HW226855   4.949  11.224   8.860
 8320SOL     OW26856   1.708  12.017   6.240
 8320SOL    HW126857   1.751  12.007   6.325
 8320SOL    HW226858   1.777  12.000   6.176
 8321SOL     OW26859   1.289  11.673   3.096
 8321SOL    HW126860   1.324  11.615   3.163
 8321SOL    HW226861   1.335  11.648   3.016
 8322SOL     OW26862   0.408   9.626   2.113
 8322SOL    HW126863   0.415   9.539   2.073
 8322SOL    HW226864   0.457   9.618   2.194
 8323SOL     OW26865   7.658  11.254   1.307
 8323SOL    HW126866   7.685  11.191   1.240
 8323SOL    HW226867   7.682  11.212   1.390
 8324SOL     OW26868   2.566  14.720   5.342
 8324SOL    HW126869   2.501  14.754   5.280
 8324SOL    HW226870   2.597  14.797   5.389
 8325SOL     OW26871   4.429   7.451  14.591
 8325SOL    HW126872   4.339   7.482  14.596
 8325SOL    HW226873   4.436   7.412  14.504
 8326SOL     OW26874   8.644   1.912  13.077
 8326SOL    HW126875   8.563   1.909  13.025
 8326SOL    HW226876   8.673   1.821  13.080
 8327SOL     OW26877  10.698   1.896   9.751
 8327SOL    HW126878  10.768   1.863   9.807
 8327SOL    HW226879  10.723   1.872   9.662
 8328SOL     OW26880  10.419   4.150   1.411
 8328SOL    HW126881  10.491   4.098   1.378
 8328SOL    HW226882  10.433   4.238   1.375
 8329SOL     OW26883   0.231   7.572   3.287
 8329SOL    HW126884   0.180   7.529   3.357
 8329SOL    HW226885   0.319   7.537   3.298
 8330SOL     OW26886   1.604   5.980   4.886
 8330SOL    HW126887   1.532   5.919   4.901
 8330SOL    HW226888   1.663   5.932   4.827
 8331SOL     OW26889   0.810   5.310   8.210
 8331SOL    HW126890   0.814   5.314   8.114
 8331SOL    HW226891   0.718   5.296   8.229
 8332SOL     OW26892   4.530  11.539   7.799
 8332SOL    HW126893   4.465  11.603   7.767
 8332SOL    HW226894   4.575  11.510   7.720
 8333SOL     OW26895  11.955   0.976   9.827
 8333SOL    HW126896  11.863   0.996   9.843
 8333SOL    HW226897  11.968   0.891   9.869
 8334SOL     OW26898   5.441  11.387   9.647
 8334SOL    HW126899   5.399  11.465   9.612
 8334SOL    HW226900   5.534  11.409   9.650
 8335SOL     OW26901   4.019  10.297  11.835
 8335SOL    HW126902   4.105  10.339  11.835
 8335SOL    HW226903   3.995  10.292  11.743
 8336SOL     OW26904  10.037   1.839   9.983
 8336SOL    HW126905   9.959   1.881  10.021
 8336SOL    HW226906  10.107   1.858  10.045
 8337SOL     OW26907   6.510   2.352   9.209
 8337SOL    HW126908   6.422   2.316   9.216
 8337SOL    HW226909   6.524   2.361   9.114
 8338SOL     OW26910  14.158   6.966  12.185
 8338SOL    HW126911  14.242   6.938  12.221
 8338SOL    HW226912  14.158   7.061  12.195
 8339SOL     OW26913   6.173   6.642  13.026
 8339SOL    HW126914   6.104   6.586  12.992
 8339SOL    HW226915   6.242   6.581  13.053
 8340SOL     OW26916   8.274   4.152  13.302
 8340SOL    HW126917   8.209   4.100  13.254
 8340SOL    HW226918   8.245   4.149  13.393
 8341SOL     OW26919  11.730  10.321   1.295
 8341SOL    HW126920  11.654  10.370   1.262
 8341SOL    HW226921  11.777  10.384   1.349
 8342SOL     OW26922   3.350   8.136   4.573
 8342SOL    HW126923   3.296   8.064   4.543
 8342SOL    HW226924   3.321   8.152   4.663
 8343SOL     OW26925  12.997  10.559  11.475
 8343SOL    HW126926  12.953  10.506  11.542
 8343SOL    HW226927  13.090  10.550  11.495
 8344SOL     OW26928  11.593   9.448   0.022
 8344SOL    HW126929  11.641   9.385   0.075
 8344SOL    HW226930  11.590   9.527   0.076
 8345SOL     OW26931   8.910   7.263   6.874
 8345SOL    HW126932   8.974   7.248   6.804
 8345SOL    HW226933   8.964   7.271   6.953
 8346SOL     OW26934   7.447  13.888   4.804
 8346SOL    HW126935   7.407  13.832   4.871
 8346SOL    HW226936   7.484  13.827   4.741
 8347SOL     OW26937  10.391   1.964   6.785
 8347SOL    HW126938  10.351   1.914   6.715
 8347SOL    HW226939  10.457   1.905   6.822
 8348SOL     OW26940  11.432   7.531   6.201
 8348SOL    HW126941  11.428   7.529   6.297
 8348SOL    HW226942  11.367   7.597   6.176
 8349SOL     OW26943   6.259   1.914   7.299
 8349SOL    HW126944   6.204   1.836   7.304
 8349SOL    HW226945   6.303   1.908   7.215
 8350SOL     OW26946   9.477  10.052   0.665
 8350SOL    HW126947   9.543  10.097   0.613
 8350SOL    HW226948   9.526   9.995   0.724
 8351SOL     OW26949  13.662   0.174  13.496
 8351SOL    HW126950  13.584   0.125  13.520
 8351SOL    HW226951  13.734   0.126  13.537
 8352SOL     OW26952   4.760   2.361   1.347
 8352SOL    HW126953   4.803   2.336   1.265
 8352SOL    HW226954   4.830   2.362   1.412
 8353SOL     OW26955   0.546  10.270   7.859
 8353SOL    HW126956   0.510  10.350   7.820
 8353SOL    HW226957   0.640  10.289   7.868
 8354SOL     OW26958   8.212   9.938   0.109
 8354SOL    HW126959   8.157   9.988   0.169
 8354SOL    HW226960   8.191   9.847   0.128
 8355SOL     OW26961   4.456   2.327  14.778
 8355SOL    HW126962   4.386   2.285  14.827
 8355SOL    HW226963   4.433   2.314  14.686
 8356SOL     OW26964   3.179   5.133  11.519
 8356SOL    HW126965   3.239   5.203  11.543
 8356SOL    HW226966   3.185   5.127  11.424
 8357SOL     OW26967   5.855   3.718   7.999
 8357SOL    HW126968   5.885   3.804   7.971
 8357SOL    HW226969   5.786   3.695   7.936
 8358SOL     OW26970   3.305   6.917   1.292
 8358SOL    HW126971   3.330   6.837   1.339
 8358SOL    HW226972   3.338   6.904   1.203
 8359SOL     OW26973  12.524  14.349   6.010
 8359SOL    HW126974  12.499  14.278   6.069
 8359SOL    HW226975  12.599  14.314   5.961
 8360SOL     OW26976  14.806  10.126   9.335
 8360SOL    HW126977   0.007  10.084   9.311
 8360SOL    HW226978  14.774  10.076   9.410
 8361SOL     OW26979  14.078   7.854   1.136
 8361SOL    HW126980  14.018   7.833   1.065
 8361SOL    HW226981  14.021   7.879   1.209
 8362SOL     OW26982   0.044   5.367   0.619
 8362SOL    HW126983   0.052   5.315   0.539
 8362SOL    HW226984  14.834   5.393   0.620
 8363SOL     OW26985  14.743   5.429  12.616
 8363SOL    HW126986  14.663   5.457  12.660
 8363SOL    HW226987  14.789   5.376  12.682
 8364SOL     OW26988  12.644   8.353   5.063
 8364SOL    HW126989  12.665   8.421   5.127
 8364SOL    HW226990  12.549   8.343   5.069
 8365SOL     OW26991   5.925   1.674   1.971
 8365SOL    HW126992   5.911   1.615   1.897
 8365SOL    HW226993   6.020   1.673   1.985
 8366SOL     OW26994   8.633   9.033  14.823
 8366SOL    HW126995   8.710   9.090  14.822
 8366SOL    HW226996   8.559   9.093  14.808
 8367SOL     OW26997   1.612  13.022  13.169
 8367SOL    HW126998   1.614  12.927  13.166
 8367SOL    HW226999   1.538  13.043  13.227
 8368SOL     OW27000   9.553   6.472  12.783
 8368SOL    HW127001   9.496   6.520  12.844
 8368SOL    HW227002   9.520   6.495  12.696
 8369SOL     OW27003  13.074   1.530  14.719
 8369SOL    HW127004  13.106   1.527  14.629
 8369SOL    HW227005  13.041   1.441  14.735
 8370SOL     OW27006   5.812  10.230  12.791
 8370SOL    HW127007   5.874  10.177  12.840
 8370SOL    HW227008   5.853  10.241  12.705
 8371SOL     OW27009   7.677   6.160  12.425
 8371SOL    HW127010   7.697   6.073  12.390
 8371SOL    HW227011   7.581   6.165  12.421
 8372SOL     OW27012   2.612   2.002   0.875
 8372SOL    HW127013   2.678   2.038   0.934
 8372SOL    HW227014   2.633   1.909   0.869
 8373SOL     OW27015   8.799   0.603   9.129
 8373SOL    HW127016   8.804   0.699   9.126
 8373SOL    HW227017   8.741   0.580   9.056
 8374SOL     OW27018   8.251   5.367   3.606
 8374SOL    HW127019   8.336   5.323   3.613
 8374SOL    HW227020   8.216   5.366   3.695
 8375SOL     OW27021  13.071   2.527   9.033
 8375SOL    HW127022  13.113   2.442   9.040
 8375SOL    HW227023  12.979   2.508   9.017
 8376SOL     OW27024   4.143   0.707  11.626
 8376SOL    HW127025   4.225   0.742  11.662
 8376SOL    HW227026   4.111   0.776  11.568
 8377SOL     OW27027   1.581  11.981   5.918
 8377SOL    HW127028   1.677  11.988   5.913
 8377SOL    HW227029   1.564  11.887   5.923
 8378SOL     OW27030   7.896  11.260   9.507
 8378SOL    HW127031   7.871  11.169   9.497
 8378SOL    HW227032   7.813  11.308   9.508
 8379SOL     OW27033   6.637   9.856   7.545
 8379SOL    HW127034   6.642   9.771   7.502
 8379SOL    HW227035   6.727   9.873   7.575
 8380SOL     OW27036   5.259  11.587   0.279
 8380SOL    HW127037   5.212  11.670   0.266
 8380SOL    HW227038   5.336  11.594   0.223
 8381SOL     OW27039   2.725  12.322  10.848
 8381SOL    HW127040   2.722  12.242  10.795
 8381SOL    HW227041   2.776  12.298  10.925
 8382SOL     OW27042   2.769  11.007   6.197
 8382SOL    HW127043   2.849  10.999   6.146
 8382SOL    HW227044   2.743  10.916   6.216
 8383SOL     OW27045   6.077  12.945  12.738
 8383SOL    HW127046   6.139  12.942  12.811
 8383SOL    HW227047   6.116  13.005  12.675
 8384SOL     OW27048  12.229  14.240   3.051
 8384SOL    HW127049  12.158  14.304   3.059
 8384SOL    HW227050  12.209  14.193   2.970
 8385SOL     OW27051  10.241   1.997   2.138
 8385SOL    HW127052  10.152   2.021   2.165
 8385SOL    HW227053  10.232   1.970   2.047
 8386SOL     OW27054   9.543  13.122   0.262
 8386SOL    HW127055   9.573  13.049   0.208
 8386SOL    HW227056   9.561  13.095   0.352
 8387SOL     OW27057   0.631  11.466   0.356
 8387SOL    HW127058   0.641  11.395   0.293
 8387SOL    HW227059   0.638  11.546   0.304
 8388SOL     OW27060   2.832   1.304   3.805
 8388SOL    HW127061   2.738   1.310   3.786
 8388SOL    HW227062   2.862   1.395   3.808
 8389SOL     OW27063   5.417   8.228  10.757
 8389SOL    HW127064   5.512   8.240  10.749
 8389SOL    HW227065   5.394   8.168  10.687
 8390SOL     OW27066   8.435  13.093   9.760
 8390SOL    HW127067   8.473  13.167   9.808
 8390SOL    HW227068   8.410  13.130   9.676
 8391SOL     OW27069   6.228   9.946   0.810
 8391SOL    HW127070   6.203   9.859   0.844
 8391SOL    HW227071   6.276   9.927   0.730
 8392SOL     OW27072  10.634  13.036  11.316
 8392SOL    HW127073  10.722  13.075  11.317
 8392SOL    HW227074  10.629  12.987  11.398
 8393SOL     OW27075  11.690   2.176   9.162
 8393SOL    HW127076  11.607   2.155   9.205
 8393SOL    HW227077  11.671   2.168   9.068
 8394SOL     OW27078   6.949  13.254  13.467
 8394SOL    HW127079   6.978  13.331  13.516
 8394SOL    HW227080   6.875  13.220  13.518
 8395SOL     OW27081  10.533  12.781   6.747
 8395SOL    HW127082  10.540  12.859   6.802
 8395SOL    HW227083  10.609  12.728   6.769
 8396SOL     OW27084  11.480   7.634  11.218
 8396SOL    HW127085  11.402   7.668  11.174
 8396SOL    HW227086  11.458   7.635  11.311
 8397SOL     OW27087   1.419   1.151  10.699
 8397SOL    HW127088   1.448   1.221  10.758
 8397SOL    HW227089   1.492   1.089  10.697
 8398SOL     OW27090   0.098  12.951   1.905
 8398SOL    HW127091   0.110  12.898   1.984
 8398SOL    HW227092   0.113  13.041   1.935
 8399SOL     OW27093   1.744  13.455   9.765
 8399SOL    HW127094   1.707  13.418   9.845
 8399SOL    HW227095   1.743  13.382   9.703
 8400SOL     OW27096   0.386  14.476   1.934
 8400SOL    HW127097   0.436  14.542   1.981
 8400SOL    HW227098   0.346  14.523   1.861
 8401SOL     OW27099  14.347   4.823  12.333
 8401SOL    HW127100  14.354   4.855  12.243
 8401SOL    HW227101  14.299   4.892  12.379
 8402SOL     OW27102   0.540   7.335   9.702
 8402SOL    HW127103   0.496   7.406   9.656
 8402SOL    HW227104   0.499   7.333   9.789
 8403SOL     OW27105  10.052  13.702   4.590
 8403SOL    HW127106   9.994  13.696   4.514
 8403SOL    HW227107  10.136  13.670   4.558
 8404SOL     OW27108   0.033  10.316   4.335
 8404SOL    HW127109   0.083  10.377   4.390
 8404SOL    HW227110  14.826  10.320   4.371
 8405SOL     OW27111   3.085  14.268   2.670
 8405SOL    HW127112   3.093  14.173   2.668
 8405SOL    HW227113   3.074  14.293   2.578
 8406SOL     OW27114  13.093   0.481   6.142
 8406SOL    HW127115  13.141   0.552   6.098
 8406SOL    HW227116  13.152   0.406   6.138
 8407SOL     OW27117  10.061   3.071  12.525
 8407SOL    HW127118  10.068   3.089  12.431
 8407SOL    HW227119  10.036   3.155  12.564
 8408SOL     OW27120  11.776   2.162   1.365
 8408SOL    HW127121  11.693   2.204   1.342
 8408SOL    HW227122  11.790   2.185   1.457
 8409SOL     OW27123   8.048   6.787   1.522
 8409SOL    HW127124   8.025   6.785   1.615
 8409SOL    HW227125   7.966   6.804   1.477
 8410SOL     OW27126   8.347   7.438   9.831
 8410SOL    HW127127   8.336   7.526   9.865
 8410SOL    HW227128   8.442   7.430   9.817
 8411SOL     OW27129   0.706   1.223  13.051
 8411SOL    HW127130   0.702   1.133  13.083
 8411SOL    HW227131   0.692   1.215  12.957
 8412SOL     OW27132  12.007   5.006   2.710
 8412SOL    HW127133  12.037   4.986   2.799
 8412SOL    HW227134  11.913   5.019   2.719
 8413SOL     OW27135  13.075   7.328  10.218
 8413SOL    HW127136  13.168   7.349  10.212
 8413SOL    HW227137  13.033   7.385  10.154
 8414SOL     OW27138   7.721   1.387   6.633
 8414SOL    HW127139   7.683   1.375   6.546
 8414SOL    HW227140   7.800   1.438   6.618
 8415SOL     OW27141   6.150  11.918  14.845
 8415SOL    HW127142   6.097  11.969   0.025
 8415SOL    HW227143   6.151  11.829   0.000
 8416SOL     OW27144  13.770   9.895   3.748
 8416SOL    HW127145  13.787   9.845   3.827
 8416SOL    HW227146  13.822   9.975   3.758
 8417SOL     OW27147   3.267   5.101   1.369
 8417SOL    HW127148   3.293   5.148   1.290
 8417SOL    HW227149   3.198   5.154   1.407
 8418SOL     OW27150   4.459   2.059  10.700
 8418SOL    HW127151   4.463   2.153  10.687
 8418SOL    HW227152   4.367   2.041  10.718
 8419SOL     OW27153   5.589   8.670   3.590
 8419SOL    HW127154   5.672   8.700   3.628
 8419SOL    HW227155   5.533   8.747   3.590
 8420SOL     OW27156   6.606   1.210  12.506
 8420SOL    HW127157   6.684   1.190  12.454
 8420SOL    HW227158   6.639   1.258  12.582
 8421SOL     OW27159   2.355   2.055   8.023
 8421SOL    HW127160   2.370   2.143   7.989
 8421SOL    HW227161   2.298   2.067   8.098
 8422SOL     OW27162   5.843   2.135   6.082
 8422SOL    HW127163   5.821   2.166   6.170
 8422SOL    HW227164   5.857   2.041   6.092
 8423SOL     OW27165  11.233   3.670   1.195
 8423SOL    HW127166  11.218   3.617   1.274
 8423SOL    HW227167  11.307   3.726   1.217
 8424SOL     OW27168   3.749  13.615   5.930
 8424SOL    HW127169   3.693  13.564   5.989
 8424SOL    HW227170   3.806  13.665   5.989
 8425SOL     OW27171   1.704  14.315   7.107
 8425SOL    HW127172   1.785  14.269   7.129
 8425SOL    HW227173   1.646  14.299   7.182
 8426SOL     OW27174   7.911   1.741   4.571
 8426SOL    HW127175   7.836   1.729   4.629
 8426SOL    HW227176   7.975   1.787   4.625
 8427SOL     OW27177   8.262  14.808   5.408
 8427SOL    HW127178   8.260   0.007   5.357
 8427SOL    HW227179   8.342  14.815   5.460
 8428SOL     OW27180   2.475   6.227   8.542
 8428SOL    HW127181   2.545   6.245   8.604
 8428SOL    HW227182   2.519   6.194   8.464
 8429SOL     OW27183   4.365  13.005   3.029
 8429SOL    HW127184   4.309  13.037   2.958
 8429SOL    HW227185   4.404  13.084   3.066
 8430SOL     OW27186  11.542   0.343  12.860
 8430SOL    HW127187  11.526   0.418  12.803
 8430SOL    HW227188  11.460   0.329  12.906
 8431SOL     OW27189   5.922   9.723   1.946
 8431SOL    HW127190   5.934   9.628   1.945
 8431SOL    HW227191   5.862   9.740   1.874
 8432SOL     OW27192   1.957   8.880   7.505
 8432SOL    HW127193   1.922   8.961   7.540
 8432SOL    HW227194   1.967   8.896   7.411
 8433SOL     OW27195   1.393   9.477   2.033
 8433SOL    HW127196   1.382   9.410   1.966
 8433SOL    HW227197   1.481   9.462   2.068
 8434SOL     OW27198   5.761  11.442   7.616
 8434SOL    HW127199   5.723  11.529   7.604
 8434SOL    HW227200   5.758  11.426   7.710
 8435SOL     OW27201   3.197  14.788   5.820
 8435SOL    HW127202   3.162  14.710   5.863
 8435SOL    HW227203   3.210  14.851   5.890
 8436SOL     OW27204   9.897   6.825   0.238
 8436SOL    HW127205   9.846   6.852   0.314
 8436SOL    HW227206   9.927   6.907   0.199
 8437SOL     OW27207  11.229  14.227   9.492
 8437SOL    HW127208  11.209  14.179   9.412
 8437SOL    HW227209  11.148  14.271   9.516
 8438SOL     OW27210   3.520   5.902   1.546
 8438SOL    HW127211   3.526   5.962   1.472
 8438SOL    HW227212   3.484   5.822   1.509
 8439SOL     OW27213   1.146   6.470   9.838
 8439SOL    HW127214   1.077   6.456   9.903
 8439SOL    HW227215   1.098   6.490   9.757
 8440SOL     OW27216   4.617   0.562   8.638
 8440SOL    HW127217   4.696   0.541   8.588
 8440SOL    HW227218   4.609   0.657   8.630
 8441SOL     OW27219  12.698   5.142   2.163
 8441SOL    HW127220  12.634   5.156   2.233
 8441SOL    HW227221  12.775   5.107   2.208
 8442SOL     OW27222   7.742   1.459  10.908
 8442SOL    HW127223   7.681   1.532  10.918
 8442SOL    HW227224   7.707   1.391  10.965
 8443SOL     OW27225   6.035  11.738  10.764
 8443SOL    HW127226   5.966  11.682  10.800
 8443SOL    HW227227   5.988  11.803  10.710
 8444SOL     OW27228   6.707   7.767   6.249
 8444SOL    HW127229   6.653   7.696   6.216
 8444SOL    HW227230   6.787   7.724   6.280
 8445SOL     OW27231  11.899  14.561   8.285
 8445SOL    HW127232  11.954  14.498   8.239
 8445SOL    HW227233  11.849  14.605   8.215
 8446SOL     OW27234   9.850  13.929   7.278
 8446SOL    HW127235   9.889  13.948   7.192
 8446SOL    HW227236   9.783  13.862   7.259
 8447SOL     OW27237   4.875   0.679   7.804
 8447SOL    HW127238   4.925   0.625   7.742
 8447SOL    HW227239   4.927   0.759   7.812
 8448SOL     OW27240   1.037   7.313   5.854
 8448SOL    HW127241   0.998   7.389   5.810
 8448SOL    HW227242   1.131   7.326   5.845
 8449SOL     OW27243   7.067   9.645   8.917
 8449SOL    HW127244   7.154   9.683   8.903
 8449SOL    HW227245   7.085   9.555   8.945
 8450SOL     OW27246  13.079   5.740  12.512
 8450SOL    HW127247  13.023   5.779  12.445
 8450SOL    HW227248  13.160   5.791  12.508
 8451SOL     OW27249  11.575   0.796  13.872
 8451SOL    HW127250  11.604   0.753  13.792
 8451SOL    HW227251  11.533   0.876  13.843
 8452SOL     OW27252  13.467   6.144  11.926
 8452SOL    HW127253  13.481   6.231  11.962
 8452SOL    HW227254  13.475   6.085  12.001
 8453SOL     OW27255   8.982   3.072  12.069
 8453SOL    HW127256   8.957   3.148  12.121
 8453SOL    HW227257   8.907   3.054  12.013
 8454SOL     OW27258   5.635   8.314   8.750
 8454SOL    HW127259   5.542   8.293   8.736
 8454SOL    HW227260   5.662   8.355   8.668
 8455SOL     OW27261  13.030   5.608   7.381
 8455SOL    HW127262  13.120   5.639   7.373
 8455SOL    HW227263  13.015   5.602   7.475
 8456SOL     OW27264   7.927   2.202   4.770
 8456SOL    HW127265   7.947   2.275   4.830
 8456SOL    HW227266   7.887   2.245   4.694
 8457SOL     OW27267  11.983  11.482  10.300
 8457SOL    HW127268  12.063  11.535  10.305
 8457SOL    HW227269  12.004  11.413  10.236
 8458SOL     OW27270   4.066   8.184  10.778
 8458SOL    HW127271   4.093   8.176  10.869
 8458SOL    HW227272   3.986   8.237  10.781
 8459SOL     OW27273  11.940  13.201   9.400
 8459SOL    HW127274  11.959  13.287   9.362
 8459SOL    HW227275  11.985  13.139   9.342
 8460SOL     OW27276   8.109   2.801  14.137
 8460SOL    HW127277   8.033   2.810  14.194
 8460SOL    HW227278   8.180   2.846  14.183
 8461SOL     OW27279   1.600   0.618   0.358
 8461SOL    HW127280   1.616   0.704   0.319
 8461SOL    HW227281   1.567   0.637   0.446
 8462SOL     OW27282   0.873   8.816   3.063
 8462SOL    HW127283   0.798   8.856   3.019
 8462SOL    HW227284   0.844   8.726   3.081
 8463SOL     OW27285  11.395  11.598   8.844
 8463SOL    HW127286  11.389  11.520   8.900
 8463SOL    HW227287  11.454  11.572   8.774
 8464SOL     OW27288   5.132   2.452   1.909
 8464SOL    HW127289   5.145   2.494   1.994
 8464SOL    HW227290   5.042   2.421   1.910
 8465SOL     OW27291   7.825  11.322   8.312
 8465SOL    HW127292   7.750  11.380   8.324
 8465SOL    HW227293   7.835  11.278   8.396
 8466SOL     OW27294  13.001   8.784   9.956
 8466SOL    HW127295  13.039   8.728  10.023
 8466SOL    HW227296  12.972   8.724   9.888
 8467SOL     OW27297   5.503  10.056  11.754
 8467SOL    HW127298   5.512  10.050  11.849
 8467SOL    HW227299   5.592  10.066  11.722
 8468SOL     OW27300  10.094   7.970   5.264
 8468SOL    HW127301  10.009   7.929   5.276
 8468SOL    HW227302  10.127   7.985   5.353
 8469SOL     OW27303   6.499  10.245   1.538
 8469SOL    HW127304   6.526  10.164   1.495
 8469SOL    HW227305   6.574  10.303   1.527
 8470SOL     OW27306  10.486   0.289   7.718
 8470SOL    HW127307  10.495   0.363   7.657
 8470SOL    HW227308  10.570   0.286   7.764
 8471SOL     OW27309  13.414   0.471   7.722
 8471SOL    HW127310  13.347   0.445   7.659
 8471SOL    HW227311  13.396   0.563   7.739
 8472SOL     OW27312  10.463   2.516  12.760
 8472SOL    HW127313  10.489   2.453  12.828
 8472SOL    HW227314  10.419   2.586  12.809
 8473SOL     OW27315  13.031  14.350   5.282
 8473SOL    HW127316  13.074  14.433   5.262
 8473SOL    HW227317  12.942  14.374   5.306
 8474SOL     OW27318  12.412  14.815   0.202
 8474SOL    HW127319  12.434   0.023   0.226
 8474SOL    HW227320  12.485  14.763   0.234
 8475SOL     OW27321   1.639   9.196   0.284
 8475SOL    HW127322   1.575   9.263   0.261
 8475SOL    HW227323   1.589   9.129   0.331
 8476SOL     OW27324  13.570   8.762   5.263
 8476SOL    HW127325  13.545   8.670   5.255
 8476SOL    HW227326  13.538   8.788   5.349
 8477SOL     OW27327  10.973   7.546  11.720
 8477SOL    HW127328  11.004   7.617  11.775
 8477SOL    HW227329  10.892   7.580  11.681
 8478SOL     OW27330   4.959   1.608  11.671
 8478SOL    HW127331   5.046   1.647  11.663
 8478SOL    HW227332   4.938   1.613  11.764
 8479SOL     OW27333   2.644   7.093   2.465
 8479SOL    HW127334   2.625   7.186   2.478
 8479SOL    HW227335   2.740   7.087   2.473
 8480SOL     OW27336   9.283   0.482   5.272
 8480SOL    HW127337   9.345   0.551   5.298
 8480SOL    HW227338   9.317   0.452   5.188
 8481SOL     OW27339   7.986   1.917  12.559
 8481SOL    HW127340   7.948   1.844  12.608
 8481SOL    HW227341   7.943   1.913  12.474
 8482SOL     OW27342   7.227  14.622  11.181
 8482SOL    HW127343   7.152  14.642  11.125
 8482SOL    HW227344   7.282  14.701  11.176
 8483SOL     OW27345  12.894   0.823  14.346
 8483SOL    HW127346  12.935   0.827  14.259
 8483SOL    HW227347  12.833   0.749  14.340
 8484SOL     OW27348   8.897  11.750   0.641
 8484SOL    HW127349   8.828  11.693   0.675
 8484SOL    HW227350   8.969  11.690   0.623
 8485SOL     OW27351  14.767   1.743   1.875
 8485SOL    HW127352  14.678   1.774   1.858
 8485SOL    HW227353  14.781   1.761   1.968
 8486SOL     OW27354  13.497   1.611  14.122
 8486SOL    HW127355  13.557   1.686  14.119
 8486SOL    HW227356  13.410   1.650  14.113
 8487SOL     OW27357   2.878  10.391   2.472
 8487SOL    HW127358   2.926  10.463   2.513
 8487SOL    HW227359   2.902  10.313   2.523
 8488SOL     OW27360   0.647   8.736   3.768
 8488SOL    HW127361   0.734   8.706   3.744
 8488SOL    HW227362   0.660   8.791   3.844
 8489SOL     OW27363   0.641  13.805  14.530
 8489SOL    HW127364   0.655  13.734  14.466
 8489SOL    HW227365   0.608  13.760  14.608
 8490SOL     OW27366   4.244  10.191  12.032
 8490SOL    HW127367   4.284  10.224  11.952
 8490SOL    HW227368   4.316  10.188  12.095
 8491SOL     OW27369  14.350   4.576   1.513
 8491SOL    HW127370  14.371   4.610   1.600
 8491SOL    HW227371  14.317   4.652   1.465
 8492SOL     OW27372   4.458   7.752  14.282
 8492SOL    HW127373   4.399   7.692  14.328
 8492SOL    HW227374   4.535   7.699  14.262
 8493SOL     OW27375  12.551   2.531   6.176
 8493SOL    HW127376  12.569   2.567   6.089
 8493SOL    HW227377  12.456   2.525   6.181
 8494SOL     OW27378   6.995   3.142   9.389
 8494SOL    HW127379   6.931   3.099   9.332
 8494SOL    HW227380   6.992   3.092   9.471
 8495SOL     OW27381   5.823   9.366   9.919
 8495SOL    HW127382   5.886   9.296   9.935
 8495SOL    HW227383   5.744   9.339   9.965
 8496SOL     OW27384   6.157   7.384  14.523
 8496SOL    HW127385   6.194   7.415  14.440
 8496SOL    HW227386   6.199   7.439  14.589
 8497SOL     OW27387  10.602  13.609   9.590
 8497SOL    HW127388  10.579  13.702   9.583
 8497SOL    HW227389  10.697  13.607   9.579
 8498SOL     OW27390  11.459  12.421   9.082
 8498SOL    HW127391  11.416  12.496   9.123
 8498SOL    HW227392  11.532  12.400   9.140
 8499SOL     OW27393  14.079   8.062   9.406
 8499SOL    HW127394  14.014   8.007   9.450
 8499SOL    HW227395  14.158   8.052   9.460
 8500SOL     OW27396  13.179  14.454   9.185
 8500SOL    HW127397  13.255  14.433   9.239
 8500SOL    HW227398  13.165  14.376   9.131
 8501SOL     OW27399   4.461  14.004   8.128
 8501SOL    HW127400   4.502  13.989   8.043
 8501SOL    HW227401   4.380  14.051   8.107
 8502SOL     OW27402   0.399  12.806  11.985
 8502SOL    HW127403   0.367  12.723  11.949
 8502SOL    HW227404   0.369  12.872  11.922
 8503SOL     OW27405   1.531  10.784  11.233
 8503SOL    HW127406   1.547  10.794  11.327
 8503SOL    HW227407   1.573  10.701  11.211
 8504SOL     OW27408  14.401  14.181   1.857
 8504SOL    HW127409  14.487  14.216   1.838
 8504SOL    HW227410  14.418  14.098   1.903
 8505SOL     OW27411   3.869   7.056   8.224
 8505SOL    HW127412   3.904   7.029   8.139
 8505SOL    HW227413   3.943   7.045   8.284
 8506SOL     OW27414   0.899   6.525  12.953
 8506SOL    HW127415   0.872   6.554  12.866
 8506SOL    HW227416   0.914   6.606  13.002
 8507SOL     OW27417  14.140   6.430  14.199
 8507SOL    HW127418  14.143   6.341  14.234
 8507SOL    HW227419  14.089   6.479  14.264
 8508SOL     OW27420   7.941  12.278   1.007
 8508SOL    HW127421   8.032  12.301   0.987
 8508SOL    HW227422   7.937  12.275   1.102
 8509SOL     OW27423  11.156  11.126   2.693
 8509SOL    HW127424  11.075  11.080   2.676
 8509SOL    HW227425  11.130  11.202   2.745
 8510SOL     OW27426   1.395   0.718  10.597
 8510SOL    HW127427   1.306   0.687  10.617
 8510SOL    HW227428   1.447   0.638  10.591
 8511SOL     OW27429   9.656  13.161  12.528
 8511SOL    HW127430   9.613  13.077  12.543
 8511SOL    HW227431   9.711  13.173  12.605
 8512SOL     OW27432   7.531  13.846   8.847
 8512SOL    HW127433   7.476  13.881   8.917
 8512SOL    HW227434   7.486  13.872   8.767
 8513SOL     OW27435  12.028  12.313  10.902
 8513SOL    HW127436  12.051  12.233  10.950
 8513SOL    HW227437  11.970  12.284  10.832
 8514SOL     OW27438   4.981  10.953   6.882
 8514SOL    HW127439   4.892  10.930   6.909
 8514SOL    HW227440   5.038  10.911   6.947
 8515SOL     OW27441  12.541   4.197   4.115
 8515SOL    HW127442  12.579   4.264   4.060
 8515SOL    HW227443  12.461   4.237   4.150
 8516SOL     OW27444  11.255   3.320  10.968
 8516SOL    HW127445  11.329   3.262  10.988
 8516SOL    HW227446  11.220   3.286  10.885
 8517SOL     OW27447   3.241  12.795   9.058
 8517SOL    HW127448   3.276  12.874   9.016
 8517SOL    HW227449   3.216  12.738   8.985
 8518SOL     OW27450   3.602   6.837  11.490
 8518SOL    HW127451   3.680   6.858  11.541
 8518SOL    HW227452   3.530   6.847  11.551
 8519SOL     OW27453   7.732   2.331   0.086
 8519SOL    HW127454   7.667   2.378   0.138
 8519SOL    HW227455   7.711   2.352  14.878
 8520SOL     OW27456   7.771   8.571  13.071
 8520SOL    HW127457   7.845   8.532  13.024
 8520SOL    HW227458   7.811   8.613  13.147
 8521SOL     OW27459  13.426   6.103   8.943
 8521SOL    HW127460  13.498   6.070   8.998
 8521SOL    HW227461  13.347   6.076   8.989
 8522SOL     OW27462   7.320   9.309   9.321
 8522SOL    HW127463   7.350   9.300   9.230
 8522SOL    HW227464   7.266   9.231   9.336
 8523SOL     OW27465   8.052   1.634   6.941
 8523SOL    HW127466   7.964   1.669   6.936
 8523SOL    HW227467   8.041   1.539   6.935
 8524SOL     OW27468  14.633   4.177   1.923
 8524SOL    HW127469  14.704   4.161   1.986
 8524SOL    HW227470  14.659   4.258   1.879
 8525SOL     OW27471  10.171   3.195   8.281
 8525SOL    HW127472  10.234   3.257   8.318
 8525SOL    HW227473  10.223   3.118   8.258
 8526SOL     OW27474   9.382   2.928  12.883
 8526SOL    HW127475   9.400   2.838  12.908
 8526SOL    HW227476   9.287   2.935  12.886
 8527SOL     OW27477  13.549   9.815  10.005
 8527SOL    HW127478  13.467   9.803   9.957
 8527SOL    HW227479  13.609   9.852   9.940
 8528SOL     OW27480  10.102   4.624   6.059
 8528SOL    HW127481  10.045   4.548   6.068
 8528SOL    HW227482  10.183   4.589   6.022
 8529SOL     OW27483  12.896   5.054   7.219
 8529SOL    HW127484  12.825   5.069   7.157
 8529SOL    HW227485  12.952   5.132   7.211
 8530SOL     OW27486   1.690   0.049   3.812
 8530SOL    HW127487   1.607   0.008   3.838
 8530SOL    HW227488   1.731   0.074   3.894
 8531SOL     OW27489   6.768  12.723   5.766
 8531SOL    HW127490   6.682  12.720   5.723
 8531SOL    HW227491   6.767  12.649   5.827
 8532SOL     OW27492   1.541  13.974  11.158
 8532SOL    HW127493   1.467  13.924  11.124
 8532SOL    HW227494   1.501  14.049  11.201
 8533SOL     OW27495   8.953   6.901  12.550
 8533SOL    HW127496   8.938   6.831  12.614
 8533SOL    HW227497   8.948   6.857  12.465
 8534SOL     OW27498  10.971  12.132   7.196
 8534SOL    HW127499  11.037  12.172   7.140
 8534SOL    HW227500  11.021  12.078   7.257
 8535SOL     OW27501  10.082  12.205  13.772
 8535SOL    HW127502  10.122  12.290  13.757
 8535SOL    HW227503  10.055  12.207  13.864
 8536SOL     OW27504   1.291  10.900  11.818
 8536SOL    HW127505   1.358  10.944  11.766
 8536SOL    HW227506   1.242  10.970  11.860
 8537SOL     OW27507  13.230  12.924   4.640
 8537SOL    HW127508  13.146  12.882   4.620
 8537SOL    HW227509  13.208  12.995   4.700
 8538SOL     OW27510   0.471   9.630   0.219
 8538SOL    HW127511   0.444   9.551   0.265
 8538SOL    HW227512   0.496   9.691   0.289
 8539SOL     OW27513   4.145  13.620   3.886
 8539SOL    HW127514   4.175  13.646   3.799
 8539SOL    HW227515   4.197  13.543   3.908
 8540SOL     OW27516   7.400   7.404   8.229
 8540SOL    HW127517   7.388   7.449   8.312
 8540SOL    HW227518   7.432   7.472   8.169
 8541SOL     OW27519  11.809   1.088  14.469
 8541SOL    HW127520  11.737   1.068  14.529
 8541SOL    HW227521  11.881   1.034  14.500
 8542SOL     OW27522  11.855   1.978  13.172
 8542SOL    HW127523  11.912   2.002  13.099
 8542SOL    HW227524  11.907   1.998  13.250
 8543SOL     OW27525   3.130  12.117  11.487
 8543SOL    HW127526   3.177  12.040  11.454
 8543SOL    HW227527   3.198  12.171  11.527
 8544SOL     OW27528   4.032   7.215   2.089
 8544SOL    HW127529   4.005   7.300   2.054
 8544SOL    HW227530   3.950   7.173   2.114
 8545SOL     OW27531   9.103   7.706  14.143
 8545SOL    HW127532   9.053   7.647  14.087
 8545SOL    HW227533   9.187   7.662  14.155
 8546SOL     OW27534   9.533  12.936  12.254
 8546SOL    HW127535   9.481  12.881  12.195
 8546SOL    HW227536   9.468  12.982  12.307
 8547SOL     OW27537   4.684   3.375   5.884
 8547SOL    HW127538   4.674   3.462   5.845
 8547SOL    HW227539   4.599   3.333   5.872
 8548SOL     OW27540   5.440   1.430  13.957
 8548SOL    HW127541   5.389   1.377  14.019
 8548SOL    HW227542   5.404   1.409  13.872
 8549SOL     OW27543   6.276   5.605   7.347
 8549SOL    HW127544   6.218   5.619   7.273
 8549SOL    HW227545   6.326   5.687   7.354
 8550SOL     OW27546   6.412   7.305  13.176
 8550SOL    HW127547   6.376   7.217  13.185
 8550SOL    HW227548   6.498   7.301  13.218
 8551SOL     OW27549   7.255   2.754   2.967
 8551SOL    HW127550   7.286   2.665   2.984
 8551SOL    HW227551   7.326   2.794   2.916
 8552SOL     OW27552   8.799  10.855   2.677
 8552SOL    HW127553   8.704  10.865   2.668
 8552SOL    HW227554   8.819  10.896   2.761
 8553SOL     OW27555   4.199   7.484   7.647
 8553SOL    HW127556   4.293   7.470   7.656
 8553SOL    HW227557   4.163   7.397   7.629
 8554SOL     OW27558   0.161   1.314  11.846
 8554SOL    HW127559   0.121   1.395  11.816
 8554SOL    HW227560   0.166   1.323  11.942
 8555SOL     OW27561  13.524   6.898  14.842
 8555SOL    HW127562  13.573   6.978  14.819
 8555SOL    HW227563  13.492   6.916   0.048
 8556SOL     OW27564   4.799  13.421  10.343
 8556SOL    HW127565   4.831  13.494  10.290
 8556SOL    HW227566   4.769  13.461  10.424
 8557SOL     OW27567  12.769   3.187   5.396
 8557SOL    HW127568  12.711   3.146   5.333
 8557SOL    HW227569  12.806   3.263   5.350
 8558SOL     OW27570   4.296  10.009  10.546
 8558SOL    HW127571   4.208   9.978  10.568
 8558SOL    HW227572   4.283  10.065  10.470
 8559SOL     OW27573  13.926   3.943   3.191
 8559SOL    HW127574  13.888   4.027   3.163
 8559SOL    HW227575  14.021   3.957   3.187
 8560SOL     OW27576  11.412   8.096  12.668
 8560SOL    HW127577  11.493   8.148  12.662
 8560SOL    HW227578  11.360   8.125  12.593
 8561SOL     OW27579  10.688   5.954   1.709
 8561SOL    HW127580  10.745   5.877   1.701
 8561SOL    HW227581  10.710   6.008   1.633
 8562SOL     OW27582  12.397   5.248   9.836
 8562SOL    HW127583  12.351   5.165   9.849
 8562SOL    HW227584  12.335   5.315   9.865
 8563SOL     OW27585  12.698   5.862   4.312
 8563SOL    HW127586  12.604   5.852   4.294
 8563SOL    HW227587  12.706   5.838   4.405
 8564SOL     OW27588   0.906   5.016  14.504
 8564SOL    HW127589   0.825   5.066  14.513
 8564SOL    HW227590   0.878   4.925  14.507
 8565SOL     OW27591   7.361   6.394   6.705
 8565SOL    HW127592   7.308   6.473   6.700
 8565SOL    HW227593   7.445   6.419   6.666
 8566SOL     OW27594   3.225   1.481   8.657
 8566SOL    HW127595   3.175   1.443   8.730
 8566SOL    HW227596   3.175   1.558   8.631
 8567SOL     OW27597   4.105   5.714   8.410
 8567SOL    HW127598   4.130   5.717   8.503
 8567SOL    HW227599   4.155   5.641   8.374
 8568SOL     OW27600   0.922   0.679   4.710
 8568SOL    HW127601   0.891   0.653   4.797
 8568SOL    HW227602   0.943   0.596   4.667
 8569SOL     OW27603  11.330   4.786   9.702
 8569SOL    HW127604  11.411   4.836   9.693
 8569SOL    HW227605  11.326   4.763   9.795
 8570SOL     OW27606   6.554   2.306  11.048
 8570SOL    HW127607   6.610   2.381  11.068
 8570SOL    HW227608   6.608   2.230  11.069
 8571SOL     OW27609  14.005   0.117  12.737
 8571SOL    HW127610  13.954   0.190  12.702
 8571SOL    HW227611  14.028   0.065  12.660
 8572SOL     OW27612   6.900  11.290   1.524
 8572SOL    HW127613   6.978  11.236   1.509
 8572SOL    HW227614   6.874  11.318   1.436
 8573SOL     OW27615  12.717   5.380   6.084
 8573SOL    HW127616  12.749   5.468   6.104
 8573SOL    HW227617  12.794   5.324   6.092
 8574SOL     OW27618  14.706  10.253   0.763
 8574SOL    HW127619  14.719  10.296   0.679
 8574SOL    HW227620  14.641  10.185   0.746
 8575SOL     OW27621   0.057   4.856   1.858
 8575SOL    HW127622   0.032   4.765   1.875
 8575SOL    HW227623   0.092   4.887   1.941
 8576SOL     OW27624  10.594   5.438  10.120
 8576SOL    HW127625  10.602   5.361  10.064
 8576SOL    HW227626  10.675   5.441  10.170
 8577SOL     OW27627  10.136  12.482   0.229
 8577SOL    HW127628  10.141  12.515   0.139
 8577SOL    HW227629  10.053  12.516   0.263
 8578SOL     OW27630   5.909   1.345   4.036
 8578SOL    HW127631   5.912   1.321   3.943
 8578SOL    HW227632   5.963   1.423   4.042
 8579SOL     OW27633   5.682  14.522   4.943
 8579SOL    HW127634   5.732  14.500   4.865
 8579SOL    HW227635   5.680  14.441   4.994
 8580SOL     OW27636   7.846   6.465   7.277
 8580SOL    HW127637   7.926   6.419   7.251
 8580SOL    HW227638   7.874   6.556   7.289
 8581SOL     OW27639   2.627   7.742   3.733
 8581SOL    HW127640   2.721   7.733   3.718
 8581SOL    HW227641   2.601   7.659   3.773
 8582SOL     OW27642   2.983  12.013   4.242
 8582SOL    HW127643   2.999  11.977   4.155
 8582SOL    HW227644   2.977  12.107   4.229
 8583SOL     OW27645  13.022   1.478  13.962
 8583SOL    HW127646  13.031   1.448  14.052
 8583SOL    HW227647  13.049   1.403  13.909
 8584SOL     OW27648   3.911   4.166   0.617
 8584SOL    HW127649   3.900   4.228   0.545
 8584SOL    HW227650   3.828   4.170   0.665
 8585SOL     OW27651   1.118  11.494  13.790
 8585SOL    HW127652   1.214  11.499  13.790
 8585SOL    HW227653   1.089  11.585  13.790
 8586SOL     OW27654   2.316   8.271   9.762
 8586SOL    HW127655   2.288   8.238   9.847
 8586SOL    HW227656   2.411   8.278   9.768
 8587SOL     OW27657   0.481   8.811   5.234
 8587SOL    HW127658   0.549   8.877   5.221
 8587SOL    HW227659   0.523   8.743   5.287
 8588SOL     OW27660  12.124   5.746   1.050
 8588SOL    HW127661  12.107   5.671   0.994
 8588SOL    HW227662  12.220   5.756   1.048
 8589SOL     OW27663   1.232   6.224  13.295
 8589SOL    HW127664   1.309   6.166  13.288
 8589SOL    HW227665   1.159   6.170  13.265
 8590SOL     OW27666   8.167   1.737  14.342
 8590SOL    HW127667   8.077   1.758  14.319
 8590SOL    HW227668   8.220   1.778  14.274
 8591SOL     OW27669   7.362  12.587   5.347
 8591SOL    HW127670   7.311  12.607   5.269
 8591SOL    HW227671   7.423  12.660   5.356
 8592SOL     OW27672   8.765  10.178   3.367
 8592SOL    HW127673   8.692  10.116   3.369
 8592SOL    HW227674   8.727  10.258   3.330
 8593SOL     OW27675   7.075  14.418   5.425
 8593SOL    HW127676   7.094  14.510   5.406
 8593SOL    HW227677   6.991  14.402   5.384
 8594SOL     OW27678   2.412  11.869  14.596
 8594SOL    HW127679   2.398  11.950  14.547
 8594SOL    HW227680   2.365  11.802  14.546
 8595SOL     OW27681  11.617   1.649  10.182
 8595SOL    HW127682  11.567   1.623  10.260
 8595SOL    HW227683  11.646   1.738  10.201
 8596SOL     OW27684  11.468  10.333   8.811
 8596SOL    HW127685  11.486  10.375   8.895
 8596SOL    HW227686  11.389  10.377   8.779
 8597SOL     OW27687   7.383   2.038   4.586
 8597SOL    HW127688   7.426   2.081   4.660
 8597SOL    HW227689   7.435   1.959   4.571
 8598SOL     OW27690   7.773   2.485   5.356
 8598SOL    HW127691   7.842   2.483   5.422
 8598SOL    HW227692   7.800   2.422   5.290
 8599SOL     OW27693   8.497   4.995   6.895
 8599SOL    HW127694   8.477   5.004   6.988
 8599SOL    HW227695   8.575   5.049   6.882
 8600SOL     OW27696   8.615   2.160   9.625
 8600SOL    HW127697   8.691   2.172   9.568
 8600SOL    HW227698   8.543   2.202   9.578
 8601SOL     OW27699   4.008   4.808   9.330
 8601SOL    HW127700   3.974   4.835   9.415
 8601SOL    HW227701   4.061   4.731   9.349
 8602SOL     OW27702   5.347   7.716   4.736
 8602SOL    HW127703   5.277   7.683   4.792
 8602SOL    HW227704   5.360   7.647   4.671
 8603SOL     OW27705   0.374   3.814  10.955
 8603SOL    HW127706   0.412   3.849  10.875
 8603SOL    HW227707   0.448   3.797  11.012
 8604SOL     OW27708   6.440   3.077   6.681
 8604SOL    HW127709   6.376   3.087   6.611
 8604SOL    HW227710   6.388   3.079   6.762
 8605SOL     OW27711   7.766   4.937   0.967
 8605SOL    HW127712   7.810   4.880   1.031
 8605SOL    HW227713   7.680   4.897   0.956
 8606SOL     OW27714   5.495   3.454   9.612
 8606SOL    HW127715   5.562   3.402   9.569
 8606SOL    HW227716   5.417   3.444   9.558
 8607SOL     OW27717  13.055   0.399   1.423
 8607SOL    HW127718  13.063   0.309   1.455
 8607SOL    HW227719  12.983   0.436   1.474
 8608SOL     OW27720   4.943   9.509   4.861
 8608SOL    HW127721   5.014   9.481   4.918
 8608SOL    HW227722   4.887   9.431   4.854
 8609SOL     OW27723   8.095   6.329   9.044
 8609SOL    HW127724   8.168   6.387   9.067
 8609SOL    HW227725   8.045   6.319   9.126
 8610SOL     OW27726   8.992  12.955   5.158
 8610SOL    HW127727   9.057  13.024   5.142
 8610SOL    HW227728   9.038  12.873   5.140
 8611SOL     OW27729   8.964  10.322   9.823
 8611SOL    HW127730   8.905  10.362   9.887
 8611SOL    HW227731   9.012  10.255   9.872
 8612SOL     OW27732   2.226  10.845  12.722
 8612SOL    HW127733   2.162  10.914  12.703
 8612SOL    HW227734   2.294  10.889  12.773
 8613SOL     OW27735   4.872   4.677   7.607
 8613SOL    HW127736   4.943   4.707   7.664
 8613SOL    HW227737   4.869   4.582   7.620
 8614SOL     OW27738  11.339   9.213   7.969
 8614SOL    HW127739  11.328   9.129   7.925
 8614SOL    HW227740  11.431   9.236   7.954
 8615SOL     OW27741   4.393   3.363  12.505
 8615SOL    HW127742   4.355   3.387  12.421
 8615SOL    HW227743   4.488   3.370  12.491
 8616SOL     OW27744   7.630  11.946  13.333
 8616SOL    HW127745   7.608  11.954  13.425
 8616SOL    HW227746   7.671  11.860  13.325
 8617SOL     OW27747   5.111   4.970   9.004
 8617SOL    HW127748   5.152   4.932   9.082
 8617SOL    HW227749   5.044   4.906   8.979
 8618SOL     OW27750  14.491  12.126   0.230
 8618SOL    HW127751  14.453  12.165   0.151
 8618SOL    HW227752  14.557  12.066   0.197
 8619SOL     OW27753   2.528   2.849   3.749
 8619SOL    HW127754   2.549   2.942   3.756
 8619SOL    HW227755   2.539   2.829   3.656
 8620SOL     OW27756  10.848  12.848   6.372
 8620SOL    HW127757  10.881  12.892   6.450
 8620SOL    HW227758  10.780  12.789   6.405
 8621SOL     OW27759   3.550   8.606   3.652
 8621SOL    HW127760   3.471   8.626   3.701
 8621SOL    HW227761   3.555   8.674   3.585
 8622SOL     OW27762   8.578   0.165   4.111
 8622SOL    HW127763   8.640   0.181   4.040
 8622SOL    HW227764   8.510   0.110   4.072
 8623SOL     OW27765   5.983   6.748   4.046
 8623SOL    HW127766   5.941   6.828   4.078
 8623SOL    HW227767   6.062   6.740   4.099
 8624SOL     OW27768  10.696   4.216   9.378
 8624SOL    HW127769  10.609   4.177   9.389
 8624SOL    HW227770  10.725   4.185   9.292
 8625SOL     OW27771  10.211  12.616   6.432
 8625SOL    HW127772  10.238  12.619   6.524
 8625SOL    HW227773  10.253  12.538   6.397
 8626SOL     OW27774   0.870   8.497   0.447
 8626SOL    HW127775   0.965   8.506   0.442
 8626SOL    HW227776   0.855   8.403   0.456
 8627SOL     OW27777   8.083   0.059   2.701
 8627SOL    HW127778   8.174   0.045   2.725
 8627SOL    HW227779   8.085   0.130   2.637
 8628SOL     OW27780   6.180   5.482   7.588
 8628SOL    HW127781   6.159   5.391   7.568
 8628SOL    HW227782   6.225   5.514   7.511
 8629SOL     OW27783   0.278   7.514   2.935
 8629SOL    HW127784   0.249   7.527   2.845
 8629SOL    HW227785   0.372   7.533   2.932
 8630SOL     OW27786  11.155   1.034  13.052
 8630SOL    HW127787  11.160   1.067  12.962
 8630SOL    HW227788  11.086   1.086  13.093
 8631SOL     OW27789   4.444   2.380   8.584
 8631SOL    HW127790   4.486   2.301   8.549
 8631SOL    HW227791   4.373   2.399   8.524
 8632SOL     OW27792  10.693  13.629  13.772
 8632SOL    HW127793  10.653  13.575  13.841
 8632SOL    HW227794  10.635  13.617  13.696
 8633SOL     OW27795   4.197   5.995   0.474
 8633SOL    HW127796   4.252   5.919   0.459
 8633SOL    HW227797   4.213   6.018   0.566
 8634SOL     OW27798   0.192  13.896   8.491
 8634SOL    HW127799   0.174  13.990   8.494
 8634SOL    HW227800   0.173  13.870   8.401
 8635SOL     OW27801   1.042  14.124   8.048
 8635SOL    HW127802   0.966  14.180   8.028
 8635SOL    HW227803   1.008  14.059   8.109
 8636SOL     OW27804  11.754  14.386   4.985
 8636SOL    HW127805  11.765  14.357   4.894
 8636SOL    HW227806  11.711  14.472   4.977
 8637SOL     OW27807   6.585   8.616   2.141
 8637SOL    HW127808   6.519   8.677   2.176
 8637SOL    HW227809   6.659   8.672   2.119
 8638SOL     OW27810   4.128   7.060   9.604
 8638SOL    HW127811   4.210   7.069   9.652
 8638SOL    HW227812   4.153   7.067   9.512
 8639SOL     OW27813   5.304   8.239   0.069
 8639SOL    HW127814   5.276   8.271  14.865
 8639SOL    HW227815   5.319   8.318   0.120
 8640SOL     OW27816   4.744  10.101  13.076
 8640SOL    HW127817   4.741  10.010  13.104
 8640SOL    HW227818   4.711  10.099  12.986
 8641SOL     OW27819   0.212  13.856   4.447
 8641SOL    HW127820   0.174  13.849   4.360
 8641SOL    HW227821   0.305  13.874   4.432
 8642SOL     OW27822   6.926  13.708   5.133
 8642SOL    HW127823   6.952  13.784   5.081
 8642SOL    HW227824   6.848  13.737   5.180
 8643SOL     OW27825   5.835   3.000  10.519
 8643SOL    HW127826   5.827   2.944  10.597
 8643SOL    HW227827   5.819   2.940  10.446
 8644SOL     OW27828   0.086   3.575   3.466
 8644SOL    HW127829   0.002   3.616   3.484
 8644SOL    HW227830   0.064   3.490   3.428
 8645SOL     OW27831   9.234  10.120   7.428
 8645SOL    HW127832   9.318  10.078   7.412
 8645SOL    HW227833   9.173  10.076   7.370
 8646SOL     OW27834  11.506   2.276  12.672
 8646SOL    HW127835  11.520   2.201  12.730
 8646SOL    HW227836  11.588   2.285  12.624
 8647SOL     OW27837   0.409  13.451   9.775
 8647SOL    HW127838   0.431  13.452   9.682
 8647SOL    HW227839   0.321  13.487   9.778
 8648SOL     OW27840   6.102  11.621  11.974
 8648SOL    HW127841   6.162  11.673  11.921
 8648SOL    HW227842   6.156  11.588  12.046
 8649SOL     OW27843   4.964  10.979   0.091
 8649SOL    HW127844   4.956  11.066   0.130
 8649SOL    HW227845   4.903  10.924   0.141
 8650SOL     OW27846   6.564  14.097  10.193
 8650SOL    HW127847   6.525  14.153  10.260
 8650SOL    HW227848   6.634  14.050  10.239
 8651SOL     OW27849   9.753  14.497   9.918
 8651SOL    HW127850   9.791  14.426   9.971
 8651SOL    HW227851   9.824  14.523   9.859
 8652SOL     OW27852   3.528   9.489  13.596
 8652SOL    HW127853   3.504   9.410  13.646
 8652SOL    HW227854   3.537   9.458  13.506
 8653SOL     OW27855   7.302   6.741   1.046
 8653SOL    HW127856   7.286   6.815   1.106
 8653SOL    HW227857   7.329   6.783   0.965
 8654SOL     OW27858   2.148   8.464  12.132
 8654SOL    HW127859   2.103   8.382  12.150
 8654SOL    HW227860   2.140   8.476  12.037
 8655SOL     OW27861  13.813  14.574   9.659
 8655SOL    HW127862  13.844  14.649   9.709
 8655SOL    HW227863  13.751  14.611   9.596
 8656SOL     OW27864   9.001   6.387   8.154
 8656SOL    HW127865   9.025   6.295   8.167
 8656SOL    HW227866   9.078   6.426   8.112
 8657SOL     OW27867   3.164   3.149   2.040
 8657SOL    HW127868   3.103   3.223   2.031
 8657SOL    HW227869   3.248   3.190   2.061
 8658SOL     OW27870  10.643   8.194   4.978
 8658SOL    HW127871  10.667   8.243   4.900
 8658SOL    HW227872  10.602   8.258   5.036
 8659SOL     OW27873   6.786   5.799   2.730
 8659SOL    HW127874   6.710   5.835   2.775
 8659SOL    HW227875   6.772   5.704   2.732
 8660SOL     OW27876   6.180  12.569   0.259
 8660SOL    HW127877   6.136  12.552   0.343
 8660SOL    HW227878   6.190  12.482   0.220
 8661SOL     OW27879  11.392   9.051   5.601
 8661SOL    HW127880  11.298   9.057   5.617
 8661SOL    HW227881  11.416   8.964   5.632
 8662SOL     OW27882   6.491  12.664   5.338
 8662SOL    HW127883   6.465  12.754   5.318
 8662SOL    HW227884   6.586  12.663   5.326
 8663SOL     OW27885   4.125  10.770  10.503
 8663SOL    HW127886   4.125  10.860  10.468
 8663SOL    HW227887   4.049  10.729  10.463
 8664SOL     OW27888   8.691  13.598   9.281
 8664SOL    HW127889   8.758  13.665   9.270
 8664SOL    HW227890   8.733  13.518   9.250
 8665SOL     OW27891   3.347   0.007   3.286
 8665SOL    HW127892   3.434  14.858   3.262
 8665SOL    HW227893   3.297  14.809   3.304
 8666SOL     OW27894   1.483  14.767   9.517
 8666SOL    HW127895   1.390  14.759   9.536
 8666SOL    HW227896   1.487  14.800   9.428
 8667SOL     OW27897   0.768  14.808   3.796
 8667SOL    HW127898   0.788  14.819   3.704
 8667SOL    HW227899   0.846  14.842   3.842
 8668SOL     OW27900  12.631   2.664  13.034
 8668SOL    HW127901  12.601   2.627  12.951
 8668SOL    HW227902  12.711   2.712  13.011
 8669SOL     OW27903   2.840  14.652  11.356
 8669SOL    HW127904   2.886  14.571  11.377
 8669SOL    HW227905   2.909  14.712  11.328
 8670SOL     OW27906   1.716   5.838  13.567
 8670SOL    HW127907   1.737   5.780  13.640
 8670SOL    HW227908   1.744   5.925  13.596
 8671SOL     OW27909   1.097   9.873   4.935
 8671SOL    HW127910   1.065   9.792   4.974
 8671SOL    HW227911   1.189   9.856   4.916
 8672SOL     OW27912   4.030   9.951  13.157
 8672SOL    HW127913   3.981   9.908  13.087
 8672SOL    HW227914   4.083  10.017  13.112
 8673SOL     OW27915  10.615   7.972   0.345
 8673SOL    HW127916  10.679   7.909   0.313
 8673SOL    HW227917  10.578   7.931   0.423
 8674SOL     OW27918   2.895  10.169   9.234
 8674SOL    HW127919   2.978  10.138   9.195
 8674SOL    HW227920   2.920  10.201   9.320
 8675SOL     OW27921   7.444   1.139  11.616
 8675SOL    HW127922   7.531   1.119  11.582
 8675SOL    HW227923   7.395   1.172  11.541
 8676SOL     OW27924  11.699   2.997   8.704
 8676SOL    HW127925  11.792   3.018   8.705
 8676SOL    HW227926  11.655   3.082   8.702
 8677SOL     OW27927   7.366   2.861  14.683
 8677SOL    HW127928   7.342   2.885  14.593
 8677SOL    HW227929   7.381   2.945  14.727
 8678SOL     OW27930   6.731   9.070  10.963
 8678SOL    HW127931   6.800   9.004  10.971
 8678SOL    HW227932   6.649   9.020  10.964
 8679SOL     OW27933   7.306   5.283   5.757
 8679SOL    HW127934   7.228   5.286   5.812
 8679SOL    HW227935   7.375   5.322   5.811
 8680SOL     OW27936   6.075  11.084  11.432
 8680SOL    HW127937   6.149  11.024  11.416
 8680SOL    HW227938   6.078  11.102  11.526
 8681SOL     OW27939  12.987   0.088  10.773
 8681SOL    HW127940  12.979   0.181  10.752
 8681SOL    HW227941  13.036   0.051  10.699
 8682SOL     OW27942   8.121  11.009   8.696
 8682SOL    HW127943   8.088  11.030   8.609
 8682SOL    HW227944   8.115  10.914   8.702
 8683SOL     OW27945   4.057   7.494  10.874
 8683SOL    HW127946   4.134   7.437  10.887
 8683SOL    HW227947   4.029   7.517  10.962
 8684SOL     OW27948   1.810   1.707   2.273
 8684SOL    HW127949   1.904   1.688   2.272
 8684SOL    HW227950   1.794   1.745   2.359
 8685SOL     OW27951   4.250  11.547  14.750
 8685SOL    HW127952   4.199  11.533  14.670
 8685SOL    HW227953   4.339  11.559  14.719
 8686SOL     OW27954  13.439   8.396   2.534
 8686SOL    HW127955  13.356   8.355   2.560
 8686SOL    HW227956  13.457   8.458   2.604
 8687SOL     OW27957   8.923  12.213   0.199
 8687SOL    HW127958   8.927  12.130   0.151
 8687SOL    HW227959   8.950  12.279   0.135
 8688SOL     OW27960   6.274   6.842   0.183
 8688SOL    HW127961   6.292   6.930   0.149
 8688SOL    HW227962   6.337   6.831   0.254
 8689SOL     OW27963   2.517   6.928   7.630
 8689SOL    HW127964   2.489   6.852   7.681
 8689SOL    HW227965   2.456   6.998   7.655
 8690SOL     OW27966   9.562   3.884   0.080
 8690SOL    HW127967   9.543   3.815   0.144
 8690SOL    HW227968   9.640   3.853   0.035
 8691SOL     OW27969   0.607   3.400  10.697
 8691SOL    HW127970   0.627   3.400  10.603
 8691SOL    HW227971   0.693   3.411  10.738
 8692SOL     OW27972  14.759   1.694   7.442
 8692SOL    HW127973  14.797   1.750   7.510
 8692SOL    HW227974  14.733   1.754   7.373
 8693SOL     OW27975   6.861   6.361   5.159
 8693SOL    HW127976   6.837   6.406   5.078
 8693SOL    HW227977   6.888   6.431   5.218
 8694SOL     OW27978  14.820   9.936  10.344
 8694SOL    HW127979  14.802   9.960  10.253
 8694SOL    HW227980  14.747   9.972  10.394
 8695SOL     OW27981   0.770  13.101   5.834
 8695SOL    HW127982   0.831  13.031   5.855
 8695SOL    HW227983   0.805  13.178   5.877
 8696SOL     OW27984   3.636   3.218  12.061
 8696SOL    HW127985   3.686   3.251  12.136
 8696SOL    HW227986   3.703   3.195  11.997
 8697SOL     OW27987   5.467   2.741  10.628
 8697SOL    HW127988   5.543   2.690  10.599
 8697SOL    HW227989   5.499   2.831  10.635
 8698SOL     OW27990   2.571   6.174   3.989
 8698SOL    HW127991   2.665   6.190   3.988
 8698SOL    HW227992   2.535   6.239   4.048
 8699SOL     OW27993   2.118   2.398   5.343
 8699SOL    HW127994   2.120   2.488   5.375
 8699SOL    HW227995   2.207   2.382   5.311
 8700SOL     OW27996   6.221  13.362  13.547
 8700SOL    HW127997   6.133  13.399  13.548
 8700SOL    HW227998   6.272  13.423  13.493
 8701SOL     OW27999   5.196  12.003   4.421
 8701SOL    HW128000   5.152  11.954   4.490
 8701SOL    HW228001   5.221  11.936   4.356
 8702SOL     OW28002  12.548   3.240  10.756
 8702SOL    HW128003  12.470   3.242  10.813
 8702SOL    HW228004  12.537   3.316  10.699
 8703SOL     OW28005   7.746  11.057   2.388
 8703SOL    HW128006   7.808  11.111   2.437
 8703SOL    HW228007   7.660  11.088   2.417
 8704SOL     OW28008   1.042  10.963   9.167
 8704SOL    HW128009   1.042  10.868   9.175
 8704SOL    HW228010   1.086  10.995   9.246
 8705SOL     OW28011   6.835   9.639   5.578
 8705SOL    HW128012   6.767   9.706   5.573
 8705SOL    HW228013   6.856   9.618   5.487
 8706SOL     OW28014  12.036  13.085   1.039
 8706SOL    HW128015  12.128  13.107   1.058
 8706SOL    HW228016  12.021  13.119   0.951
 8707SOL     OW28017   2.535   0.591  12.575
 8707SOL    HW128018   2.606   0.575  12.638
 8707SOL    HW228019   2.537   0.686  12.561
 8708SOL     OW28020   8.178   1.740   0.802
 8708SOL    HW128021   8.255   1.685   0.788
 8708SOL    HW228022   8.127   1.693   0.868
 8709SOL     OW28023   0.696   4.798  11.886
 8709SOL    HW128024   0.603   4.781  11.868
 8709SOL    HW228025   0.729   4.714  11.919
 8710SOL     OW28026   0.052   5.654  11.780
 8710SOL    HW128027  14.859   5.635  11.724
 8710SOL    HW228028   0.013   5.683  11.862
 8711SOL     OW28029   5.771  12.810   1.163
 8711SOL    HW128030   5.823  12.854   1.230
 8711SOL    HW228031   5.806  12.843   1.080
 8712SOL     OW28032  11.128   5.659  12.004
 8712SOL    HW128033  11.081   5.705  11.935
 8712SOL    HW228034  11.122   5.566  11.980
 8713SOL     OW28035  13.085   5.475   5.988
 8713SOL    HW128036  13.125   5.516   6.065
 8713SOL    HW228037  13.154   5.475   5.922
 8714SOL     OW28038   3.665   8.261   7.941
 8714SOL    HW128039   3.709   8.230   7.861
 8714SOL    HW228040   3.682   8.192   8.005
 8715SOL     OW28041   4.991   9.380   5.244
 8715SOL    HW128042   4.952   9.439   5.309
 8715SOL    HW228043   4.919   9.358   5.185
 8716SOL     OW28044   1.449  13.213  10.061
 8716SOL    HW128045   1.380  13.191   9.998
 8716SOL    HW228046   1.402  13.232  10.142
 8717SOL     OW28047  11.201   0.705  10.116
 8717SOL    HW128048  11.177   0.790  10.078
 8717SOL    HW228049  11.204   0.645  10.042
 8718SOL     OW28050  12.758  10.789   5.866
 8718SOL    HW128051  12.773  10.839   5.786
 8718SOL    HW228052  12.666  10.806   5.888
 8719SOL     OW28053   9.317   0.742  10.088
 8719SOL    HW128054   9.353   0.696  10.165
 8719SOL    HW228055   9.248   0.798  10.124
 8720SOL     OW28056  12.431   1.949  12.964
 8720SOL    HW128057  12.432   1.992  12.879
 8720SOL    HW228058  12.466   2.014  13.025
 8721SOL     OW28059   3.796  12.514   0.124
 8721SOL    HW128060   3.775  12.453   0.195
 8721SOL    HW228061   3.877  12.556   0.152
 8722SOL     OW28062  12.847   2.441   1.757
 8722SOL    HW128063  12.753   2.451   1.741
 8722SOL    HW228064  12.887   2.519   1.717
 8723SOL     OW28065   8.015  12.804   8.655
 8723SOL    HW128066   7.942  12.849   8.697
 8723SOL    HW228067   7.973  12.740   8.598
 8724SOL     OW28068   2.444   2.301   1.108
 8724SOL    HW128069   2.448   2.307   1.012
 8724SOL    HW228070   2.529   2.333   1.138
 8725SOL     OW28071   3.339   3.597   5.380
 8725SOL    HW128072   3.398   3.528   5.348
 8725SOL    HW228073   3.252   3.564   5.362
 8726SOL     OW28074  10.535   3.569  10.962
 8726SOL    HW128075  10.534   3.558  10.867
 8726SOL    HW228076  10.605   3.632  10.978
 8727SOL     OW28077   5.384   2.350   6.829
 8727SOL    HW128078   5.333   2.418   6.874
 8727SOL    HW228079   5.407   2.389   6.745
 8728SOL     OW28080  10.225   0.291   8.440
 8728SOL    HW128081  10.158   0.302   8.508
 8728SOL    HW228082  10.292   0.236   8.481
 8729SOL     OW28083   0.947  12.795   0.247
 8729SOL    HW128084   0.897  12.871   0.219
 8729SOL    HW228085   0.912  12.722   0.196
 8730SOL     OW28086   4.494  14.377   7.768
 8730SOL    HW128087   4.559  14.333   7.712
 8730SOL    HW228088   4.423  14.400   7.709
 8731SOL     OW28089  10.307   9.119  10.114
 8731SOL    HW128090  10.326   9.044  10.171
 8731SOL    HW228091  10.359   9.102  10.035
 8732SOL     OW28092   7.600  14.453  13.863
 8732SOL    HW128093   7.617  14.525  13.803
 8732SOL    HW228094   7.510  14.468  13.894
 8733SOL     OW28095  12.849   6.223   0.864
 8733SOL    HW128096  12.810   6.165   0.929
 8733SOL    HW228097  12.821   6.188   0.780
 8734SOL     OW28098   6.099  14.640   0.853
 8734SOL    HW128099   6.161  14.567   0.856
 8734SOL    HW228100   6.155  14.718   0.854
 8735SOL     OW28101   1.934   5.749   8.682
 8735SOL    HW128102   2.022   5.786   8.690
 8735SOL    HW228103   1.944   5.658   8.710
 8736SOL     OW28104  11.927   2.516   3.398
 8736SOL    HW128105  11.861   2.581   3.422
 8736SOL    HW228106  11.887   2.432   3.420
 8737SOL     OW28107   3.548   7.154   1.605
 8737SOL    HW128108   3.613   7.220   1.580
 8737SOL    HW228109   3.469   7.178   1.557
 8738SOL     OW28110   5.175   8.191   2.394
 8738SOL    HW128111   5.260   8.159   2.424
 8738SOL    HW228112   5.114   8.121   2.417
 8739SOL     OW28113   5.116  11.633   9.794
 8739SOL    HW128114   5.135  11.597   9.707
 8739SOL    HW228115   5.112  11.727   9.781
 8740SOL     OW28116   7.451   6.448   2.732
 8740SOL    HW128117   7.442   6.543   2.729
 8740SOL    HW228118   7.380   6.418   2.787
 8741SOL     OW28119   4.005   5.593   0.275
 8741SOL    HW128120   4.062   5.638   0.213
 8741SOL    HW228121   4.063   5.536   0.325
 8742SOL     OW28122   5.760   6.563  13.837
 8742SOL    HW128123   5.699   6.520  13.897
 8742SOL    HW228124   5.734   6.533  13.750
 8743SOL     OW28125   7.367   1.679   9.098
 8743SOL    HW128126   7.310   1.615   9.055
 8743SOL    HW228127   7.440   1.691   9.038
 8744SOL     OW28128   9.669   9.399   2.418
 8744SOL    HW128129   9.718   9.332   2.465
 8744SOL    HW228130   9.737   9.459   2.386
 8745SOL     OW28131  12.412   1.953  10.873
 8745SOL    HW128132  12.469   1.949  10.796
 8745SOL    HW228133  12.446   2.026  10.924
 8746SOL     OW28134   2.328   4.095   5.912
 8746SOL    HW128135   2.250   4.137   5.948
 8746SOL    HW228136   2.295   4.015   5.871
 8747SOL     OW28137   1.184   1.385   3.643
 8747SOL    HW128138   1.192   1.327   3.567
 8747SOL    HW228139   1.102   1.357   3.685
 8748SOL     OW28140   1.075   7.929   0.578
 8748SOL    HW128141   0.980   7.937   0.567
 8748SOL    HW228142   1.095   7.983   0.654
 8749SOL     OW28143  13.113   1.164  14.458
 8749SOL    HW128144  13.159   1.116  14.528
 8749SOL    HW228145  13.151   1.130  14.377
 8750SOL     OW28146  11.438   5.625  10.584
 8750SOL    HW128147  11.404   5.538  10.561
 8750SOL    HW228148  11.512   5.638  10.524
 8751SOL     OW28149  14.602   5.951   0.713
 8751SOL    HW128150  14.553   5.903   0.646
 8751SOL    HW228151  14.540   6.016   0.746
 8752SOL     OW28152  13.806   0.356   7.251
 8752SOL    HW128153  13.726   0.397   7.283
 8752SOL    HW228154  13.859   0.429   7.220
 8753SOL     OW28155   1.850   7.498  12.093
 8753SOL    HW128156   1.920   7.538  12.040
 8753SOL    HW228157   1.881   7.409  12.110
 8754SOL     OW28158   9.174   6.761  14.702
 8754SOL    HW128159   9.142   6.777  14.791
 8754SOL    HW228160   9.198   6.668  14.701
 8755SOL     OW28161   9.995  13.067   0.382
 8755SOL    HW128162  10.023  13.040   0.295
 8755SOL    HW228163   9.904  13.039   0.388
 8756SOL     OW28164   2.436   1.716  10.991
 8756SOL    HW128165   2.501   1.750  10.929
 8756SOL    HW228166   2.413   1.791  11.045
 8757SOL     OW28167   6.024   8.981  10.293
 8757SOL    HW128168   5.959   9.039  10.254
 8757SOL    HW228169   6.081   8.958  10.220
 8758SOL     OW28170   5.298  12.410   8.277
 8758SOL    HW128171   5.227  12.382   8.219
 8758SOL    HW228172   5.355  12.463   8.222
 8759SOL     OW28173  12.458  11.155   1.171
 8759SOL    HW128174  12.476  11.232   1.225
 8759SOL    HW228175  12.363  11.157   1.158
 8760SOL     OW28176   8.064   1.843   5.020
 8760SOL    HW128177   7.986   1.876   5.064
 8760SOL    HW228178   8.135   1.896   5.055
 8761SOL     OW28179   2.445   6.662   9.091
 8761SOL    HW128180   2.355   6.633   9.080
 8761SOL    HW228181   2.486   6.593   9.145
 8762SOL     OW28182  12.101   2.178  10.633
 8762SOL    HW128183  12.016   2.221  10.628
 8762SOL    HW228184  12.164   2.248  10.613
 8763SOL     OW28185   2.476  13.286   9.648
 8763SOL    HW128186   2.469  13.274   9.743
 8763SOL    HW228187   2.552  13.233   9.623
 8764SOL     OW28188  12.990   7.103   2.222
 8764SOL    HW128189  12.939   7.027   2.193
 8764SOL    HW228190  13.063   7.107   2.160
 8765SOL     OW28191  13.021  12.375  11.057
 8765SOL    HW128192  12.929  12.380  11.030
 8765SOL    HW228193  13.046  12.465  11.076
 8766SOL     OW28194   9.933   2.165  13.875
 8766SOL    HW128195  10.010   2.133  13.827
 8766SOL    HW228196   9.952   2.257  13.893
 8767SOL     OW28197  11.447   4.265   0.107
 8767SOL    HW128198  11.402   4.243   0.025
 8767SOL    HW228199  11.540   4.259   0.086
 8768SOL     OW28200   3.929   1.300  10.909
 8768SOL    HW128201   3.860   1.311  10.843
 8768SOL    HW228202   4.007   1.276  10.858
 8769SOL     OW28203   3.017   6.919   1.348
 8769SOL    HW128204   3.111   6.908   1.333
 8769SOL    HW228205   2.993   6.847   1.407
 8770SOL     OW28206   3.117   0.127  10.125
 8770SOL    HW128207   3.038   0.166  10.089
 8770SOL    HW228208   3.183   0.197  10.121
 8771SOL     OW28209   0.426   5.118   1.803
 8771SOL    HW128210   0.411   5.097   1.711
 8771SOL    HW228211   0.346   5.162   1.832
 8772SOL     OW28212  10.792  12.141   7.674
 8772SOL    HW128213  10.819  12.136   7.582
 8772SOL    HW228214  10.841  12.072   7.717
 8773SOL     OW28215   5.111  13.125  12.052
 8773SOL    HW128216   5.026  13.121  12.009
 8773SOL    HW228217   5.132  13.033  12.071
 8774SOL     OW28218   6.501   1.791   0.520
 8774SOL    HW128219   6.487   1.767   0.611
 8774SOL    HW228220   6.524   1.884   0.523
 8775SOL     OW28221  11.650   6.564   9.993
 8775SOL    HW128222  11.596   6.577  10.071
 8775SOL    HW228223  11.648   6.649   9.948
 8776SOL     OW28224  11.997   0.641   3.622
 8776SOL    HW128225  12.012   0.563   3.570
 8776SOL    HW228226  12.039   0.712   3.572
 8777SOL     OW28227  10.363  11.529   1.927
 8777SOL    HW128228  10.359  11.609   1.875
 8777SOL    HW228229  10.430  11.476   1.885
 8778SOL     OW28230   6.320   0.636  11.417
 8778SOL    HW128231   6.348   0.574  11.349
 8778SOL    HW228232   6.401   0.674  11.450
 8779SOL     OW28233   9.916   8.482  11.369
 8779SOL    HW128234   9.859   8.543  11.416
 8779SOL    HW228235   9.985   8.459  11.432
 8780SOL     OW28236   3.986   7.447  11.558
 8780SOL    HW128237   3.963   7.524  11.611
 8780SOL    HW228238   3.906   7.430  11.507
 8781SOL     OW28239   4.566   2.919   8.053
 8781SOL    HW128240   4.523   2.961   7.979
 8781SOL    HW228241   4.655   2.953   8.052
 8782SOL     OW28242   6.193   0.055   6.776
 8782SOL    HW128243   6.201  14.869   6.843
 8782SOL    HW228244   6.245   0.128   6.809
 8783SOL     OW28245   9.153  13.375   4.088
 8783SOL    HW128246   9.144  13.287   4.050
 8783SOL    HW228247   9.237  13.406   4.056
 8784SOL     OW28248  10.618   3.506   3.183
 8784SOL    HW128249  10.591   3.422   3.219
 8784SOL    HW228250  10.698   3.528   3.230
 8785SOL     OW28251   5.314  10.327   9.445
 8785SOL    HW128252   5.321  10.266   9.518
 8785SOL    HW228253   5.230  10.307   9.405
 8786SOL     OW28254   8.986   2.705   0.009
 8786SOL    HW128255   8.898   2.666   0.010
 8786SOL    HW228256   8.987   2.760  14.813
 8787SOL     OW28257  11.131   6.995  10.815
 8787SOL    HW128258  11.210   6.960  10.773
 8787SOL    HW228259  11.098   7.059  10.751
 8788SOL     OW28260  11.912  10.220  11.135
 8788SOL    HW128261  12.000  10.250  11.157
 8788SOL    HW228262  11.900  10.248  11.044
 8789SOL     OW28263  14.135   2.552   4.121
 8789SOL    HW128264  14.215   2.509   4.152
 8789SOL    HW228265  14.068   2.525   4.185
 8790SOL     OW28266   5.552  14.424  13.051
 8790SOL    HW128267   5.513  14.357  13.106
 8790SOL    HW228268   5.606  14.376  12.988
 8791SOL     OW28269   0.550   7.340  12.332
 8791SOL    HW128270   0.588   7.427  12.319
 8791SOL    HW228271   0.486   7.352  12.402
 8792SOL     OW28272  12.383   9.938   5.121
 8792SOL    HW128273  12.297   9.979   5.108
 8792SOL    HW228274  12.444   9.997   5.076
 8793SOL     OW28275   3.421   2.224  13.876
 8793SOL    HW128276   3.338   2.197  13.837
 8793SOL    HW228277   3.430   2.168  13.954
 8794SOL     OW28278   5.818   9.450   1.747
 8794SOL    HW128279   5.858   9.414   1.826
 8794SOL    HW228280   5.760   9.520   1.779
 8795SOL     OW28281   3.363   1.472   0.985
 8795SOL    HW128282   3.298   1.504   0.923
 8795SOL    HW228283   3.400   1.551   1.025
 8796SOL     OW28284   2.919  10.605   3.028
 8796SOL    HW128285   2.869  10.563   2.958
 8796SOL    HW228286   2.878  10.691   3.038
 8797SOL     OW28287   0.857   4.034  14.140
 8797SOL    HW128288   0.876   4.101  14.074
 8797SOL    HW228289   0.875   4.076  14.224
 8798SOL     OW28290   4.179   6.649   4.250
 8798SOL    HW128291   4.183   6.554   4.264
 8798SOL    HW228292   4.091   6.673   4.278
 8799SOL     OW28293  13.835   8.941   3.022
 8799SOL    HW128294  13.771   8.869   3.017
 8799SOL    HW228295  13.782   9.019   3.035
 8800SOL     OW28296  14.463   8.512  13.475
 8800SOL    HW128297  14.414   8.557  13.544
 8800SOL    HW228298  14.554   8.541  13.488
 8801SOL     OW28299  11.100   0.794   5.460
 8801SOL    HW128300  11.034   0.732   5.491
 8801SOL    HW228301  11.117   0.766   5.369
 8802SOL     OW28302   9.218   1.996   5.989
 8802SOL    HW128303   9.202   2.027   5.900
 8802SOL    HW228304   9.312   2.004   6.002
 8803SOL     OW28305   9.626   1.900  12.401
 8803SOL    HW128306   9.577   1.828  12.362
 8803SOL    HW228307   9.567   1.938  12.466
 8804SOL     OW28308   8.213   8.284   2.792
 8804SOL    HW128309   8.192   8.216   2.729
 8804SOL    HW228310   8.302   8.311   2.769
 8805SOL     OW28311   1.191   1.056  10.509
 8805SOL    HW128312   1.274   1.101  10.528
 8805SOL    HW228313   1.216   0.983  10.452
 8806SOL     OW28314  13.215   2.302   5.194
 8806SOL    HW128315  13.212   2.285   5.099
 8806SOL    HW228316  13.126   2.329   5.216
 8807SOL     OW28317  13.506  11.339   6.208
 8807SOL    HW128318  13.440  11.352   6.140
 8807SOL    HW228319  13.572  11.283   6.166
 8808SOL     OW28320   7.418  13.412  12.951
 8808SOL    HW128321   7.470  13.349  13.000
 8808SOL    HW228322   7.340  13.363  12.923
 8809SOL     OW28323  14.078   3.327  12.943
 8809SOL    HW128324  14.167   3.303  12.970
 8809SOL    HW228325  14.041   3.246  12.908
 8810SOL     OW28326   6.077  13.746   8.544
 8810SOL    HW128327   6.114  13.727   8.630
 8810SOL    HW228328   6.080  13.662   8.498
 8811SOL     OW28329  11.090  11.117   9.261
 8811SOL    HW128330  11.175  11.101   9.302
 8811SOL    HW228331  11.027  11.073   9.319
 8812SOL     OW28332  13.965   7.414   0.051
 8812SOL    HW128333  13.913   7.349   0.002
 8812SOL    HW228334  14.053   7.406   0.015
 8813SOL     OW28335  13.113   1.319   1.230
 8813SOL    HW128336  13.153   1.292   1.147
 8813SOL    HW228337  13.035   1.367   1.205
 8814SOL     OW28338   7.801  10.611  14.114
 8814SOL    HW128339   7.845  10.587  14.032
 8814SOL    HW228340   7.871  10.647  14.168
 8815SOL     OW28341   2.588   1.099   8.853
 8815SOL    HW128342   2.615   1.009   8.872
 8815SOL    HW228343   2.572   1.137   8.940
 8816SOL     OW28344   0.702   0.479  10.717
 8816SOL    HW128345   0.710   0.523  10.802
 8816SOL    HW228346   0.654   0.541  10.662
 8817SOL     OW28347   0.196   0.425   3.343
 8817SOL    HW128348   0.234   0.457   3.261
 8817SOL    HW228349   0.228   0.485   3.410
 8818SOL     OW28350   5.146   9.113  10.489
 8818SOL    HW128351   5.233   9.144  10.516
 8818SOL    HW228352   5.113   9.180  10.430
 8819SOL     OW28353   5.487  13.613   4.252
 8819SOL    HW128354   5.531  13.695   4.274
 8819SOL    HW228355   5.558  13.553   4.230
 8820SOL     OW28356   4.044  12.779   9.012
 8820SOL    HW128357   3.977  12.714   9.033
 8820SOL    HW228358   4.041  12.841   9.085
 8821SOL     OW28359   4.242   7.979   5.664
 8821SOL    HW128360   4.174   7.916   5.640
 8821SOL    HW228361   4.205   8.064   5.641
 8822SOL     OW28362   8.730   6.201   5.790
 8822SOL    HW128363   8.784   6.241   5.722
 8822SOL    HW228364   8.778   6.122   5.815
 8823SOL     OW28365   3.019  11.971  14.460
 8823SOL    HW128366   3.099  11.975  14.512
 8823SOL    HW228367   2.950  11.995  14.522
 8824SOL     OW28368  12.209   8.022   7.272
 8824SOL    HW128369  12.199   8.029   7.177
 8824SOL    HW228370  12.152   8.089   7.308
 8825SOL     OW28371  11.886   0.629  11.963
 8825SOL    HW128372  11.855   0.611  12.052
 8825SOL    HW228373  11.933   0.549  11.937
 8826SOL     OW28374  14.118  10.017   8.567
 8826SOL    HW128375  14.083   9.928   8.561
 8826SOL    HW228376  14.196  10.016   8.512
 8827SOL     OW28377  12.125  11.584   2.993
 8827SOL    HW128378  12.030  11.571   2.998
 8827SOL    HW228379  12.158  11.547   3.075
 8828SOL     OW28380  13.019  14.607   9.378
 8828SOL    HW128381  13.053  14.693   9.354
 8828SOL    HW228382  13.050  14.548   9.309
 8829SOL     OW28383   5.903   8.057   4.074
 8829SOL    HW128384   5.934   8.145   4.054
 8829SOL    HW228385   5.971   8.020   4.131
 8830SOL     OW28386   4.281  12.088  14.548
 8830SOL    HW128387   4.218  12.156  14.573
 8830SOL    HW228388   4.346  12.088  14.618
 8831SOL     OW28389   9.981   6.600  13.858
 8831SOL    HW128390  10.009   6.692  13.857
 8831SOL    HW228391   9.993   6.571  13.767
 8832SOL     OW28392  10.012  13.299  12.964
 8832SOL    HW128393  10.032  13.227  12.904
 8832SOL    HW228394   9.975  13.256  13.041
 8833SOL     OW28395  11.394   5.223   5.332
 8833SOL    HW128396  11.475   5.229   5.383
 8833SOL    HW228397  11.422   5.192   5.246
 8834SOL     OW28398   4.601   8.749   8.175
 8834SOL    HW128399   4.590   8.809   8.102
 8834SOL    HW228400   4.532   8.683   8.164
 8835SOL     OW28401   3.198   3.677   6.143
 8835SOL    HW128402   3.132   3.694   6.210
 8835SOL    HW228403   3.215   3.762   6.103
 8836SOL     OW28404   0.356   6.431  11.918
 8836SOL    HW128405   0.309   6.455  11.998
 8836SOL    HW228406   0.350   6.336  11.914
 8837SOL     OW28407  14.870   4.224   7.725
 8837SOL    HW128408  14.875   4.191   7.635
 8837SOL    HW228409  14.776   4.238   7.739
 8838SOL     OW28410   5.269   1.433   4.697
 8838SOL    HW128411   5.259   1.491   4.773
 8838SOL    HW228412   5.363   1.416   4.692
 8839SOL     OW28413   4.312   1.884  10.020
 8839SOL    HW128414   4.395   1.927  10.039
 8839SOL    HW228415   4.246   1.951  10.038
 8840SOL     OW28416   5.705   7.652   4.273
 8840SOL    HW128417   5.775   7.645   4.208
 8840SOL    HW228418   5.657   7.730   4.249
 8841SOL     OW28419   0.498   4.090   1.879
 8841SOL    HW128420   0.468   4.000   1.868
 8841SOL    HW228421   0.418   4.142   1.879
 8842SOL     OW28422   2.767  12.536   8.461
 8842SOL    HW128423   2.675  12.536   8.485
 8842SOL    HW228424   2.768  12.501   8.372
 8843SOL     OW28425  11.012   2.091   5.940
 8843SOL    HW128426  11.030   2.012   5.888
 8843SOL    HW228427  11.095   2.108   5.985
 8844SOL     OW28428  11.017   5.369   5.813
 8844SOL    HW128429  10.985   5.459   5.812
 8844SOL    HW228430  11.111   5.377   5.794
 8845SOL     OW28431   0.252   2.061   7.190
 8845SOL    HW128432   0.277   2.111   7.113
 8845SOL    HW228433   0.162   2.035   7.174
 8846SOL     OW28434  10.560   4.700   5.704
 8846SOL    HW128435  10.605   4.620   5.733
 8846SOL    HW228436  10.630   4.762   5.686
 8847SOL     OW28437   6.252   4.479   9.257
 8847SOL    HW128438   6.298   4.402   9.226
 8847SOL    HW228439   6.292   4.552   9.209
 8848SOL     OW28440   4.555  10.711   2.715
 8848SOL    HW128441   4.643  10.748   2.700
 8848SOL    HW228442   4.561  10.622   2.678
 8849SOL     OW28443   7.906   8.583   4.685
 8849SOL    HW128444   7.868   8.666   4.655
 8849SOL    HW228445   7.889   8.582   4.779
 8850SOL     OW28446  11.744   3.343   8.747
 8850SOL    HW128447  11.802   3.275   8.780
 8850SOL    HW228448  11.770   3.422   8.795
 8851SOL     OW28449  11.118   6.447  11.572
 8851SOL    HW128450  11.122   6.361  11.531
 8851SOL    HW228451  11.208   6.463  11.601
 8852SOL     OW28452  10.237   0.729   8.476
 8852SOL    HW128453  10.232   0.697   8.566
 8852SOL    HW228454  10.146   0.730   8.447
 8853SOL     OW28455   4.192   6.919   4.148
 8853SOL    HW128456   4.129   6.936   4.078
 8853SOL    HW228457   4.194   6.824   4.156
 8854SOL     OW28458   4.679   1.621   6.118
 8854SOL    HW128459   4.592   1.632   6.079
 8854SOL    HW228460   4.739   1.638   6.045
 8855SOL     OW28461   7.525   1.697   6.996
 8855SOL    HW128462   7.467   1.707   6.921
 8855SOL    HW228463   7.604   1.655   6.961
 8856SOL     OW28464   4.472   2.076   8.662
 8856SOL    HW128465   4.550   2.055   8.610
 8856SOL    HW228466   4.504   2.081   8.752
 8857SOL     OW28467   9.948   9.983   8.441
 8857SOL    HW128468   9.867  10.030   8.421
 8857SOL    HW228469  10.010  10.012   8.374
 8858SOL     OW28470   9.219   2.449   3.078
 8858SOL    HW128471   9.276   2.504   3.025
 8858SOL    HW228472   9.275   2.416   3.148
 8859SOL     OW28473   7.104   9.019  11.404
 8859SOL    HW128474   7.074   9.093  11.350
 8859SOL    HW228475   7.033   9.004  11.466
 8860SOL     OW28476   5.422  14.068   3.116
 8860SOL    HW128477   5.499  14.113   3.083
 8860SOL    HW228478   5.431  14.072   3.212
 8861SOL     OW28479  12.065   7.767  12.015
 8861SOL    HW128480  12.077   7.820  11.937
 8861SOL    HW228481  12.057   7.678  11.983
 8862SOL     OW28482  12.157   3.643   1.181
 8862SOL    HW128483  12.069   3.665   1.211
 8862SOL    HW228484  12.159   3.674   1.090
 8863SOL     OW28485   3.807   7.341  13.434
 8863SOL    HW128486   3.832   7.428  13.463
 8863SOL    HW228487   3.723   7.324  13.478
 8864SOL     OW28488  14.237  11.942   6.782
 8864SOL    HW128489  14.191  11.914   6.862
 8864SOL    HW228490  14.181  11.910   6.711
 8865SOL     OW28491  14.817  14.808   1.547
 8865SOL    HW128492  14.769  14.763   1.478
 8865SOL    HW228493   0.003  14.857   1.501
 8866SOL     OW28494   5.159   1.464  10.590
 8866SOL    HW128495   5.064   1.452  10.588
 8866SOL    HW228496   5.173   1.537  10.650
 8867SOL     OW28497   9.402   7.631  12.973
 8867SOL    HW128498   9.480   7.681  12.945
 8867SOL    HW228499   9.374   7.585  12.893
 8868SOL     OW28500   1.330   2.196   9.063
 8868SOL    HW128501   1.237   2.217   9.076
 8868SOL    HW228502   1.330   2.126   8.998
 8869SOL     OW28503  13.831   8.720   5.072
 8869SOL    HW128504  13.855   8.638   5.116
 8869SOL    HW228505  13.771   8.763   5.133
 8870SOL     OW28506   4.118   5.238  14.209
 8870SOL    HW128507   4.080   5.166  14.260
 8870SOL    HW228508   4.209   5.243  14.237
 8871SOL     OW28509   6.357  12.433  10.021
 8871SOL    HW128510   6.279  12.393   9.981
 8871SOL    HW228511   6.360  12.395  10.109
 8872SOL     OW28512   4.068   2.027   5.712
 8872SOL    HW128513   4.045   2.040   5.804
 8872SOL    HW228514   3.984   2.017   5.667
 8873SOL     OW28515  12.868   0.710   2.664
 8873SOL    HW128516  12.776   0.715   2.642
 8873SOL    HW228517  12.880   0.622   2.700
 8874SOL     OW28518  14.779   7.512  14.234
 8874SOL    HW128519  14.705   7.452  14.246
 8874SOL    HW228520  14.787   7.520  14.139
 8875SOL     OW28521   3.237   8.722   3.488
 8875SOL    HW128522   3.250   8.792   3.551
 8875SOL    HW228523   3.250   8.764   3.403
 8876SOL     OW28524   0.304  11.255  11.389
 8876SOL    HW128525   0.351  11.218  11.464
 8876SOL    HW228526   0.251  11.183  11.356
 8877SOL     OW28527  11.605   9.257   1.325
 8877SOL    HW128528  11.692   9.224   1.304
 8877SOL    HW228529  11.593   9.235   1.417
 8878SOL     OW28530   3.868   9.611   0.798
 8878SOL    HW128531   3.953   9.573   0.821
 8878SOL    HW228532   3.870   9.619   0.703
 8879SOL     OW28533  11.969  13.347   1.455
 8879SOL    HW128534  11.916  13.370   1.379
 8879SOL    HW228535  12.020  13.272   1.426
 8880SOL     OW28536   3.653   4.910   9.774
 8880SOL    HW128537   3.598   4.886   9.848
 8880SOL    HW228538   3.658   5.006   9.778
 8881SOL     OW28539   5.705   6.159   6.299
 8881SOL    HW128540   5.615   6.187   6.280
 8881SOL    HW228541   5.755   6.240   6.306
 8882SOL     OW28542   0.701   8.015   6.565
 8882SOL    HW128543   0.693   8.094   6.511
 8882SOL    HW228544   0.646   8.032   6.641
 8883SOL     OW28545   5.920   7.375  11.418
 8883SOL    HW128546   5.925   7.292  11.466
 8883SOL    HW228547   6.008   7.387  11.381
 8884SOL     OW28548  10.591  12.888   7.130
 8884SOL    HW128549  10.653  12.910   7.061
 8884SOL    HW228550  10.543  12.970   7.147
 8885SOL     OW28551   4.209  13.083  14.111
 8885SOL    HW128552   4.291  13.035  14.122
 8885SOL    HW228553   4.235  13.175  14.110
 8886SOL     OW28554  14.309   3.102   1.210
 8886SOL    HW128555  14.234   3.078   1.156
 8886SOL    HW228556  14.381   3.111   1.149
 8887SOL     OW28557   3.676   9.815  11.137
 8887SOL    HW128558   3.757   9.825  11.187
 8887SOL    HW228559   3.615   9.774  11.198
 8888SOL     OW28560   6.164   2.156  13.735
 8888SOL    HW128561   6.219   2.150  13.813
 8888SOL    HW228562   6.174   2.071  13.692
 8889SOL     OW28563  10.561   4.620  14.355
 8889SOL    HW128564  10.482   4.613  14.410
 8889SOL    HW228565  10.531   4.666  14.276
 8890SOL     OW28566  13.292  12.532   9.662
 8890SOL    HW128567  13.340  12.515   9.581
 8890SOL    HW228568  13.296  12.628   9.672
 8891SOL     OW28569   4.043   0.593   2.883
 8891SOL    HW128570   4.113   0.648   2.848
 8891SOL    HW228571   4.064   0.585   2.977
 8892SOL     OW28572   7.800  12.917   8.782
 8892SOL    HW128573   7.832  13.008   8.779
 8892SOL    HW228574   7.710  12.924   8.813
 8893SOL     OW28575   5.525   5.202   6.101
 8893SOL    HW128576   5.512   5.292   6.071
 8893SOL    HW228577   5.613   5.179   6.073
 8894SOL     OW28578  12.830  14.408   4.909
 8894SOL    HW128579  12.764  14.442   4.969
 8894SOL    HW228580  12.891  14.359   4.965
 8895SOL     OW28581   8.706   0.817   2.582
 8895SOL    HW128582   8.639   0.757   2.614
 8895SOL    HW228583   8.707   0.803   2.487
 8896SOL     OW28584  12.760  13.107   9.959
 8896SOL    HW128585  12.768  13.015   9.985
 8896SOL    HW228586  12.849  13.135   9.938
 8897SOL     OW28587   9.450   5.987   4.209
 8897SOL    HW128588   9.470   6.014   4.298
 8897SOL    HW228589   9.374   6.040   4.184
 8898SOL     OW28590  12.881   9.330  14.117
 8898SOL    HW128591  12.911   9.276  14.191
 8898SOL    HW228592  12.850   9.411  14.158
 8899SOL     OW28593   0.191  12.637   8.234
 8899SOL    HW128594   0.270  12.625   8.287
 8899SOL    HW228595   0.119  12.632   8.297
 8900SOL     OW28596   3.093   1.760   3.914
 8900SOL    HW128597   3.058   1.781   3.827
 8900SOL    HW228598   3.175   1.809   3.919
 8901SOL     OW28599  12.003   1.131   3.525
 8901SOL    HW128600  12.006   1.190   3.450
 8901SOL    HW228601  11.949   1.176   3.589
 8902SOL     OW28602  14.848  12.570   8.044
 8902SOL    HW128603  14.772  12.596   8.096
 8902SOL    HW228604   0.041  12.605   8.092
 8903SOL     OW28605   0.781   4.823   2.218
 8903SOL    HW128606   0.765   4.760   2.289
 8903SOL    HW228607   0.875   4.815   2.200
 8904SOL     OW28608  11.102   9.228   0.948
 8904SOL    HW128609  11.011   9.253   0.960
 8904SOL    HW228610  11.098   9.134   0.926
 8905SOL     OW28611   4.603  10.521   9.603
 8905SOL    HW128612   4.614  10.511   9.698
 8905SOL    HW228613   4.684  10.562   9.573
 8906SOL     OW28614   8.925   2.187   7.697
 8906SOL    HW128615   8.909   2.122   7.765
 8906SOL    HW228616   8.998   2.151   7.646
 8907SOL     OW28617   8.539   6.862  10.834
 8907SOL    HW128618   8.514   6.920  10.906
 8907SOL    HW228619   8.621   6.899  10.801
 8908SOL     OW28620   0.119   2.184  11.201
 8908SOL    HW128621   0.192   2.245  11.215
 8908SOL    HW228622   0.061   2.229  11.140
 8909SOL     OW28623   8.341   4.369  13.567
 8909SOL    HW128624   8.357   4.446  13.511
 8909SOL    HW228625   8.246   4.362  13.572
 8910SOL     OW28626  11.682   0.074  14.374
 8910SOL    HW128627  11.718   0.091  14.287
 8910SOL    HW228628  11.670   0.161  14.412
 8911SOL     OW28629   7.167  10.038   0.066
 8911SOL    HW128630   7.203  10.047  14.860
 8911SOL    HW228631   7.073  10.034   0.054
 8912SOL     OW28632  12.453   8.699   3.707
 8912SOL    HW128633  12.427   8.666   3.621
 8912SOL    HW228634  12.500   8.626   3.747
 8913SOL     OW28635   2.477   9.377   7.326
 8913SOL    HW128636   2.434   9.445   7.378
 8913SOL    HW228637   2.414   9.306   7.322
 8914SOL     OW28638  12.449   7.144   6.778
 8914SOL    HW128639  12.400   7.105   6.850
 8914SOL    HW228640  12.501   7.072   6.742
 8915SOL     OW28641   8.882   2.686   4.345
 8915SOL    HW128642   8.913   2.776   4.360
 8915SOL    HW228643   8.826   2.693   4.267
 8916SOL     OW28644   8.873   6.719   0.156
 8916SOL    HW128645   8.874   6.656   0.228
 8916SOL    HW228646   8.817   6.790   0.186
 8917SOL     OW28647   7.483  13.679   1.627
 8917SOL    HW128648   7.407  13.623   1.612
 8917SOL    HW228649   7.490  13.732   1.548
 8918SOL     OW28650  14.503   1.464  12.141
 8918SOL    HW128651  14.595   1.445  12.160
 8918SOL    HW228652  14.455   1.388  12.175
 8919SOL     OW28653   8.466   3.897   5.170
 8919SOL    HW128654   8.543   3.952   5.177
 8919SOL    HW228655   8.427   3.900   5.258
 8920SOL     OW28656  13.630   6.650  12.188
 8920SOL    HW128657  13.705   6.600  12.221
 8920SOL    HW228658  13.609   6.711  12.259
 8921SOL     OW28659   0.267   6.221   3.662
 8921SOL    HW128660   0.304   6.229   3.574
 8921SOL    HW228661   0.275   6.128   3.683
 8922SOL     OW28662   1.302   5.790   3.063
 8922SOL    HW128663   1.245   5.832   3.127
 8922SOL    HW228664   1.368   5.745   3.114
 8923SOL     OW28665   7.524   8.188   1.354
 8923SOL    HW128666   7.480   8.258   1.305
 8923SOL    HW228667   7.501   8.108   1.306
 8924SOL     OW28668  13.483   5.135   2.336
 8924SOL    HW128669  13.490   5.195   2.262
 8924SOL    HW228670  13.569   5.139   2.378
 8925SOL     OW28671   8.959   0.232   5.018
 8925SOL    HW128672   9.053   0.241   5.004
 8925SOL    HW228673   8.920   0.257   4.934
 8926SOL     OW28674  12.267   6.522   3.703
 8926SOL    HW128675  12.264   6.507   3.609
 8926SOL    HW228676  12.183   6.563   3.725
 8927SOL     OW28677   4.986  12.625   9.277
 8927SOL    HW128678   4.894  12.622   9.251
 8927SOL    HW228679   4.989  12.688   9.349
 8928SOL     OW28680  14.261  10.057  14.286
 8928SOL    HW128681  14.191  10.035  14.348
 8928SOL    HW228682  14.339  10.015  14.323
 8929SOL     OW28683   9.059  13.797  11.059
 8929SOL    HW128684   9.140  13.838  11.090
 8929SOL    HW228685   9.030  13.744  11.133
 8930SOL     OW28686  11.943   9.234  13.344
 8930SOL    HW128687  11.889   9.310  13.324
 8930SOL    HW228688  12.028   9.272  13.368
 8931SOL     OW28689  13.754   8.215  11.788
 8931SOL    HW128690  13.659   8.204  11.782
 8931SOL    HW228691  13.765   8.291  11.845
 8932SOL     OW28692   0.659   4.604  12.253
 8932SOL    HW128693   0.607   4.649  12.319
 8932SOL    HW228694   0.711   4.673  12.212
 8933SOL     OW28695  11.433   9.266   3.905
 8933SOL    HW128696  11.373   9.272   3.831
 8933SOL    HW228697  11.434   9.354   3.943
 8934SOL     OW28698  11.987  12.779   1.715
 8934SOL    HW128699  11.942  12.863   1.728
 8934SOL    HW228700  11.939  12.736   1.645
 8935SOL     OW28701  14.047   6.302   1.697
 8935SOL    HW128702  13.980   6.243   1.664
 8935SOL    HW228703  14.025   6.387   1.658
 8936SOL     OW28704   9.682  14.601   3.944
 8936SOL    HW128705   9.703  14.642   3.861
 8936SOL    HW228706   9.742  14.641   4.007
 8937SOL     OW28707  10.879   1.357   3.887
 8937SOL    HW128708  10.946   1.422   3.904
 8937SOL    HW228709  10.854   1.325   3.974
 8938SOL     OW28710  13.364   9.109   3.702
 8938SOL    HW128711  13.448   9.114   3.747
 8938SOL    HW228712  13.384   9.070   3.617
 8939SOL     OW28713  13.099   0.470   5.432
 8939SOL    HW128714  13.169   0.535   5.427
 8939SOL    HW228715  13.078   0.463   5.525
 8940SOL     OW28716  12.735  11.340  11.527
 8940SOL    HW128717  12.721  11.424  11.569
 8940SOL    HW228718  12.830  11.334  11.515
 8941SOL     OW28719  13.760  12.933   0.001
 8941SOL    HW128720  13.718  12.916   0.086
 8941SOL    HW228721  13.770  13.029  14.881
 8942SOL     OW28722  11.740   3.333   1.783
 8942SOL    HW128723  11.646   3.321   1.779
 8942SOL    HW228724  11.775   3.247   1.806
 8943SOL     OW28725   6.688   1.299   0.830
 8943SOL    HW128726   6.596   1.276   0.843
 8943SOL    HW228727   6.713   1.345   0.911
 8944SOL     OW28728  14.431   1.712  12.161
 8944SOL    HW128729  14.455   1.622  12.185
 8944SOL    HW228730  14.501   1.741  12.103
 8945SOL     OW28731  11.196   4.783   6.764
 8945SOL    HW128732  11.182   4.867   6.721
 8945SOL    HW228733  11.161   4.718   6.703
 8946SOL     OW28734   9.873   4.169  14.424
 8946SOL    HW128735   9.853   4.215  14.343
 8946SOL    HW228736   9.788   4.143  14.459
 8947SOL     OW28737  12.821  12.022  14.196
 8947SOL    HW128738  12.796  11.930  14.207
 8947SOL    HW228739  12.887  12.021  14.127
 8948SOL     OW28740   3.127   4.574   8.394
 8948SOL    HW128741   3.043   4.573   8.348
 8948SOL    HW228742   3.149   4.667   8.401
 8949SOL     OW28743   1.575   5.984   2.941
 8949SOL    HW128744   1.602   5.933   2.865
 8949SOL    HW228745   1.490   6.020   2.917
 8950SOL     OW28746  14.877   6.844   9.263
 8950SOL    HW128747   0.080   6.809   9.292
 8950SOL    HW228748  14.863   6.921   9.318
 8951SOL     OW28749  14.657   7.978  14.846
 8951SOL    HW128750  14.608   8.013   0.038
 8951SOL    HW228751  14.605   8.003  14.769
 8952SOL     OW28752  10.639   0.958   1.082
 8952SOL    HW128753  10.683   0.889   1.131
 8952SOL    HW228754  10.707   0.995   1.025
 8953SOL     OW28755   4.899  12.369   8.567
 8953SOL    HW128756   4.826  12.375   8.505
 8953SOL    HW228757   4.901  12.454   8.610
 8954SOL     OW28758  13.292   6.843   8.423
 8954SOL    HW128759  13.358   6.780   8.394
 8954SOL    HW228760  13.249   6.872   8.343
 8955SOL     OW28761   6.820  12.948   6.450
 8955SOL    HW128762   6.833  13.031   6.497
 8955SOL    HW228763   6.764  12.896   6.508
 8956SOL     OW28764   4.900   9.486   8.481
 8956SOL    HW128765   4.828   9.499   8.542
 8956SOL    HW228766   4.940   9.573   8.472
 8957SOL     OW28767   5.195   3.785   9.578
 8957SOL    HW128768   5.255   3.792   9.504
 8957SOL    HW228769   5.251   3.757   9.651
 8958SOL     OW28770   2.362  11.275   5.335
 8958SOL    HW128771   2.427  11.260   5.403
 8958SOL    HW228772   2.341  11.369   5.341
 8959SOL     OW28773   0.272  12.681   4.676
 8959SOL    HW128774   0.344  12.700   4.616
 8959SOL    HW228775   0.273  12.585   4.684
 8960SOL     OW28776   9.234   7.422  12.192
 8960SOL    HW128777   9.206   7.371  12.268
 8960SOL    HW228778   9.172   7.399  12.123
 8961SOL     OW28779   6.607  12.787   3.196
 8961SOL    HW128780   6.571  12.778   3.107
 8961SOL    HW228781   6.629  12.697   3.222
 8962SOL     OW28782   9.412   9.580  14.106
 8962SOL    HW128783   9.377   9.598  14.018
 8962SOL    HW228784   9.474   9.651  14.122
 8963SOL     OW28785  11.563   6.022   0.669
 8963SOL    HW128786  11.554   5.938   0.624
 8963SOL    HW228787  11.657   6.041   0.666
 8964SOL     OW28788  11.472   8.744   5.182
 8964SOL    HW128789  11.391   8.793   5.167
 8964SOL    HW228790  11.541   8.801   5.149
 8965SOL     OW28791   6.020  12.410   6.171
 8965SOL    HW128792   6.000  12.336   6.114
 8965SOL    HW228793   6.068  12.471   6.115
 8966SOL     OW28794  12.942   8.904   3.168
 8966SOL    HW128795  12.923   8.992   3.137
 8966SOL    HW228796  12.951   8.852   3.088
 8967SOL     OW28797   4.630  10.030  14.764
 8967SOL    HW128798   4.654  10.117  14.794
 8967SOL    HW228799   4.601   9.984  14.844
 8968SOL     OW28800   3.368   8.114   1.117
 8968SOL    HW128801   3.283   8.143   1.152
 8968SOL    HW228802   3.387   8.033   1.165
 8969SOL     OW28803   2.109   7.128   5.966
 8969SOL    HW128804   2.075   7.188   5.900
 8969SOL    HW228805   2.150   7.184   6.031
 8970SOL     OW28806   5.563   4.490   0.925
 8970SOL    HW128807   5.594   4.456   1.009
 8970SOL    HW228808   5.599   4.578   0.919
 8971SOL     OW28809   9.432  10.449  14.629
 8971SOL    HW128810   9.528  10.440  14.633
 8971SOL    HW228811   9.413  10.530  14.676
 8972SOL     OW28812   6.764   4.163  13.793
 8972SOL    HW128813   6.826   4.090  13.794
 8972SOL    HW228814   6.723   4.159  13.707
 8973SOL     OW28815   6.555   7.307  11.955
 8973SOL    HW128816   6.619   7.370  11.920
 8973SOL    HW228817   6.598   7.222  11.945
 8974SOL     OW28818   5.777  11.396  13.200
 8974SOL    HW128819   5.850  11.350  13.241
 8974SOL    HW228820   5.795  11.389  13.106
 8975SOL     OW28821   3.041   9.165   4.321
 8975SOL    HW128822   3.109   9.118   4.273
 8975SOL    HW228823   3.035   9.250   4.277
 8976SOL     OW28824   6.847  14.387   6.110
 8976SOL    HW128825   6.937  14.373   6.138
 8976SOL    HW228826   6.839  14.339   6.027
 8977SOL     OW28827   0.195   8.217   3.871
 8977SOL    HW128828   0.118   8.273   3.887
 8977SOL    HW228829   0.172   8.133   3.912
 8978SOL     OW28830   7.190   7.144   6.914
 8978SOL    HW128831   7.145   7.224   6.941
 8978SOL    HW228832   7.128   7.099   6.857
 8979SOL     OW28833   5.654  13.839   6.610
 8979SOL    HW128834   5.589  13.793   6.557
 8979SOL    HW228835   5.613  13.922   6.632
 8980SOL     OW28836   0.134   7.952   2.302
 8980SOL    HW128837   0.111   8.008   2.228
 8980SOL    HW228838   0.079   7.874   2.292
 8981SOL     OW28839   1.764  10.220   2.821
 8981SOL    HW128840   1.756  10.177   2.906
 8981SOL    HW228841   1.689  10.187   2.771
 8982SOL     OW28842  11.423   1.593   2.552
 8982SOL    HW128843  11.507   1.549   2.539
 8982SOL    HW228844  11.374   1.575   2.472
 8983SOL     OW28845   6.307   9.479  10.773
 8983SOL    HW128846   6.376   9.517  10.718
 8983SOL    HW228847   6.254   9.554  10.799
 8984SOL     OW28848  13.151   5.011  14.662
 8984SOL    HW128849  13.066   4.973  14.683
 8984SOL    HW228850  13.179   4.963  14.584
 8985SOL     OW28851   0.531   3.516   2.777
 8985SOL    HW128852   0.587   3.487   2.850
 8985SOL    HW228853   0.570   3.598   2.748
 8986SOL     OW28854  12.657  10.042   0.348
 8986SOL    HW128855  12.744  10.008   0.370
 8986SOL    HW228856  12.630   9.990   0.272
 8987SOL     OW28857   6.523   6.695   5.650
 8987SOL    HW128858   6.560   6.607   5.652
 8987SOL    HW228859   6.443   6.688   5.701
 8988SOL     OW28860  11.743   2.377   1.893
 8988SOL    HW128861  11.687   2.436   1.841
 8988SOL    HW228862  11.681   2.324   1.943
 8989SOL     OW28863  13.206  12.686  11.448
 8989SOL    HW128864  13.256  12.751  11.399
 8989SOL    HW228865  13.149  12.737  11.505
 8990SOL     OW28866   7.314  12.836   1.168
 8990SOL    HW128867   7.403  12.872   1.174
 8990SOL    HW228868   7.307  12.805   1.078
 8991SOL     OW28869  14.309   8.784  13.381
 8991SOL    HW128870  14.362   8.724  13.329
 8991SOL    HW228871  14.318   8.753  13.471
 8992SOL     OW28872  12.668   1.117  13.467
 8992SOL    HW128873  12.647   1.024  13.456
 8992SOL    HW228874  12.755   1.117  13.506
 8993SOL     OW28875   8.722   0.515  11.932
 8993SOL    HW128876   8.659   0.458  11.975
 8993SOL    HW228877   8.706   0.601  11.971
 8994SOL     OW28878   8.424   0.051  13.803
 8994SOL    HW128879   8.478  14.863  13.838
 8994SOL    HW228880   8.479   0.093  13.736
 8995SOL     OW28881   6.297   8.613   1.755
 8995SOL    HW128882   6.329   8.647   1.672
 8995SOL    HW228883   6.325   8.677   1.821
 8996SOL     OW28884   8.228  10.451  14.108
 8996SOL    HW128885   8.146  10.441  14.059
 8996SOL    HW228886   8.265  10.534  14.076
 8997SOL     OW28887  13.337   9.646   8.961
 8997SOL    HW128888  13.259   9.591   8.964
 8997SOL    HW228889  13.340   9.689   9.047
 8998SOL     OW28890  10.336  11.290   3.369
 8998SOL    HW128891  10.359  11.214   3.315
 8998SOL    HW228892  10.415  11.308   3.420
 8999SOL     OW28893   1.270   4.785   0.820
 8999SOL    HW128894   1.281   4.784   0.915
 8999SOL    HW228895   1.238   4.698   0.799
 9000SOL     OW28896   8.090  14.263   7.198
 9000SOL    HW128897   8.027  14.258   7.126
 9000SOL    HW228898   8.174  14.242   7.158
 9001SOL     OW28899  13.531   1.560   2.250
 9001SOL    HW128900  13.538   1.602   2.164
 9001SOL    HW228901  13.489   1.476   2.232
 9002SOL     OW28902   3.048   1.553   0.368
 9002SOL    HW128903   2.958   1.564   0.397
 9002SOL    HW228904   3.049   1.465   0.330
 9003SOL     OW28905   8.646   3.968   6.171
 9003SOL    HW128906   8.596   3.994   6.248
 9003SOL    HW228907   8.731   3.941   6.206
 9004SOL     OW28908  12.982   9.860   3.748
 9004SOL    HW128909  12.953   9.930   3.690
 9004SOL    HW228910  13.077   9.875   3.757
 9005SOL     OW28911  14.497   7.688  11.975
 9005SOL    HW128912  14.464   7.721  12.059
 9005SOL    HW228913  14.463   7.599  11.970
 9006SOL     OW28914   0.051   7.321   0.419
 9006SOL    HW128915   0.085   7.385   0.357
 9006SOL    HW228916   0.097   7.240   0.397
 9007SOL     OW28917   3.315   2.941   1.129
 9007SOL    HW128918   3.285   2.863   1.081
 9007SOL    HW228919   3.411   2.935   1.124
 9008SOL     OW28920   7.331  13.014  13.236
 9008SOL    HW128921   7.260  13.018  13.300
 9008SOL    HW228922   7.410  13.035  13.286
 9009SOL     OW28923   8.828   7.430   3.794
 9009SOL    HW128924   8.919   7.459   3.787
 9009SOL    HW228925   8.778   7.512   3.796
 9010SOL     OW28926   0.023   3.293   9.492
 9010SOL    HW128927   0.040   3.387   9.499
 9010SOL    HW228928  14.820   3.288   9.448
 9011SOL     OW28929   9.326  11.096   3.331
 9011SOL    HW128930   9.379  11.124   3.257
 9011SOL    HW228931   9.387  11.094   3.405
 9012SOL     OW28932  14.633  11.453   9.815
 9012SOL    HW128933  14.612  11.408   9.733
 9012SOL    HW228934  14.550  11.455   9.863
 9013SOL     OW28935   3.923   9.748   8.791
 9013SOL    HW128936   3.955   9.825   8.744
 9013SOL    HW228937   3.994   9.727   8.852
 9014SOL     OW28938  10.310   7.741  11.660
 9014SOL    HW128939  10.285   7.693  11.582
 9014SOL    HW228940  10.227   7.766  11.702
 9015SOL     OW28941   9.022   6.941   6.554
 9015SOL    HW128942   9.025   6.957   6.459
 9015SOL    HW228943   8.972   7.015   6.589
 9016SOL     OW28944  13.287   8.407   4.041
 9016SOL    HW128945  13.276   8.457   3.960
 9016SOL    HW228946  13.230   8.451   4.104
 9017SOL     OW28947   8.479   2.441   8.677
 9017SOL    HW128948   8.467   2.531   8.705
 9017SOL    HW228949   8.522   2.398   8.751
 9018SOL     OW28950   7.017   2.402   8.725
 9018SOL    HW128951   7.012   2.497   8.726
 9018SOL    HW228952   7.110   2.382   8.715
 9019SOL     OW28953  10.242   6.845  13.741
 9019SOL    HW128954  10.215   6.794  13.664
 9019SOL    HW228955  10.336   6.858  13.728
 9020SOL     OW28956   2.546   6.972  14.071
 9020SOL    HW128957   2.637   6.985  14.098
 9020SOL    HW228958   2.511   7.061  14.063
 9021SOL     OW28959   4.636   9.535   2.825
 9021SOL    HW128960   4.662   9.593   2.753
 9021SOL    HW228961   4.621   9.450   2.783
 9022SOL     OW28962   7.616   6.442   6.196
 9022SOL    HW128963   7.557   6.515   6.215
 9022SOL    HW228964   7.697   6.485   6.166
 9023SOL     OW28965   3.272  10.666  13.433
 9023SOL    HW128966   3.278  10.748  13.481
 9023SOL    HW228967   3.254  10.600  13.501
 9024SOL     OW28968  11.351   7.780   2.481
 9024SOL    HW128969  11.415   7.734   2.429
 9024SOL    HW228970  11.348   7.732   2.564
 9025SOL     OW28971  12.288  10.090  11.720
 9025SOL    HW128972  12.378  10.116  11.735
 9025SOL    HW228973  12.293   9.995  11.704
 9026SOL     OW28974  12.381   0.124  12.860
 9026SOL    HW128975  12.449   0.133  12.926
 9026SOL    HW228976  12.303   0.162  12.900
 9027SOL     OW28977   5.198   8.937   8.280
 9027SOL    HW128978   5.260   8.880   8.326
 9027SOL    HW228979   5.123   8.944   8.340
 9028SOL     OW28980  14.356   8.616  11.643
 9028SOL    HW128981  14.263   8.605  11.663
 9028SOL    HW228982  14.367   8.579  11.556
 9029SOL     OW28983  10.230   7.370  11.228
 9029SOL    HW128984  10.156   7.429  11.215
 9029SOL    HW228985  10.243   7.328  11.143
 9030SOL     OW28986   9.382   7.080   6.714
 9030SOL    HW128987   9.466   7.066   6.757
 9030SOL    HW228988   9.360   7.171   6.732
 9031SOL     OW28989  14.610   6.428   9.963
 9031SOL    HW128990  14.560   6.505   9.936
 9031SOL    HW228991  14.579   6.409  10.052
 9032SOL     OW28992  14.168   8.955  10.056
 9032SOL    HW128993  14.156   8.933  10.148
 9032SOL    HW228994  14.085   8.929  10.015
 9033SOL     OW28995   4.467   2.969   2.465
 9033SOL    HW128996   4.521   3.048   2.463
 9033SOL    HW228997   4.527   2.899   2.488
 9034SOL     OW28998   9.549   6.251   2.538
 9034SOL    HW128999   9.490   6.255   2.462
 9034SOL    HW229000   9.491   6.262   2.614
 9035SOL     OW29001   7.627   5.338   8.867
 9035SOL    HW129002   7.544   5.361   8.826
 9035SOL    HW229003   7.693   5.382   8.814
 9036SOL     OW29004  11.532   4.893  11.107
 9036SOL    HW129005  11.587   4.942  11.046
 9036SOL    HW229006  11.443   4.920  11.085
 9037SOL     OW29007   4.962  11.341   2.763
 9037SOL    HW129008   5.057  11.336   2.775
 9037SOL    HW229009   4.943  11.277   2.695
 9038SOL     OW29010   5.918   3.246   8.262
 9038SOL    HW129011   5.824   3.228   8.252
 9038SOL    HW229012   5.924   3.342   8.255
 9039SOL     OW29013  11.036   3.448  10.722
 9039SOL    HW129014  11.070   3.359  10.715
 9039SOL    HW229015  11.087   3.488  10.793
 9040SOL     OW29016   1.939  13.095   9.019
 9040SOL    HW129017   1.929  13.114   9.113
 9040SOL    HW229018   1.866  13.036   8.999
 9041SOL     OW29019  10.398   0.418   4.004
 9041SOL    HW129020  10.491   0.425   3.986
 9041SOL    HW229021  10.393   0.362   4.082
 9042SOL     OW29022  11.581  13.737   6.992
 9042SOL    HW129023  11.638  13.802   6.951
 9042SOL    HW229024  11.492  13.767   6.973
 9043SOL     OW29025   2.797   0.583  14.679
 9043SOL    HW129026   2.882   0.553  14.711
 9043SOL    HW229027   2.780   0.530  14.601
 9044SOL     OW29028  11.263  11.986   1.815
 9044SOL    HW129029  11.219  12.032   1.887
 9044SOL    HW229030  11.254  12.046   1.740
 9045SOL     OW29031   7.794  12.034   1.605
 9045SOL    HW129032   7.722  12.074   1.654
 9045SOL    HW229033   7.787  11.941   1.624
 9046SOL     OW29034   4.505  11.417   0.356
 9046SOL    HW129035   4.485  11.458   0.272
 9046SOL    HW229036   4.446  11.461   0.418
 9047SOL     OW29037   6.032   5.476   6.114
 9047SOL    HW129038   6.122   5.448   6.133
 9047SOL    HW229039   6.032   5.570   6.131
 9048SOL     OW29040   1.705   9.971  10.883
 9048SOL    HW129041   1.755  10.049  10.863
 9048SOL    HW229042   1.617  10.003  10.904
 9049SOL     OW29043   6.483  10.660  14.451
 9049SOL    HW129044   6.533  10.673  14.531
 9049SOL    HW229045   6.471  10.565  14.446
 9050SOL     OW29046   2.965  13.070   4.264
 9050SOL    HW129047   2.967  13.006   4.193
 9050SOL    HW229048   2.963  13.017   4.344
 9051SOL     OW29049   5.256   8.252   6.397
 9051SOL    HW129050   5.297   8.323   6.348
 9051SOL    HW229051   5.321   8.230   6.465
 9052SOL     OW29052  14.877  10.068   4.590
 9052SOL    HW129053   0.067  10.110   4.637
 9052SOL    HW229054  14.806  10.133   4.591
 9053SOL     OW29055   0.286   8.837   3.059
 9053SOL    HW129056   0.339   8.806   3.132
 9053SOL    HW229057   0.226   8.764   3.040
 9054SOL     OW29058   3.838   5.693   5.730
 9054SOL    HW129059   3.864   5.630   5.663
 9054SOL    HW229060   3.829   5.775   5.683
 9055SOL     OW29061   0.564  13.331   3.096
 9055SOL    HW129062   0.484  13.344   3.147
 9055SOL    HW229063   0.552  13.383   3.017
 9056SOL     OW29064   4.216  14.471  13.702
 9056SOL    HW129065   4.230  14.402  13.766
 9056SOL    HW229066   4.295  14.525  13.707
 9057SOL     OW29067  11.037   0.876   8.741
 9057SOL    HW129068  10.951   0.852   8.776
 9057SOL    HW229069  11.054   0.811   8.673
 9058SOL     OW29070   1.290   7.464   1.640
 9058SOL    HW129071   1.256   7.551   1.620
 9058SOL    HW229072   1.385   7.473   1.634
 9059SOL     OW29073   1.634   5.618   1.345
 9059SOL    HW129074   1.619   5.652   1.257
 9059SOL    HW229075   1.650   5.525   1.332
 9060SOL     OW29076  14.075  11.318   2.896
 9060SOL    HW129077  14.022  11.269   2.958
 9060SOL    HW229078  14.094  11.401   2.940
 9061SOL     OW29079   1.257   2.518   1.120
 9061SOL    HW129080   1.330   2.497   1.062
 9061SOL    HW229081   1.206   2.583   1.072
 9062SOL     OW29082   5.019  12.528   7.102
 9062SOL    HW129083   5.029  12.441   7.063
 9062SOL    HW229084   5.057  12.519   7.190
 9063SOL     OW29085   6.969  12.768   0.600
 9063SOL    HW129086   6.959  12.863   0.603
 9063SOL    HW229087   7.064  12.754   0.600
 9064SOL     OW29088  11.142  12.003  11.000
 9064SOL    HW129089  11.200  12.055  10.945
 9064SOL    HW229090  11.194  11.926  11.023
 9065SOL     OW29091  13.267   6.043   1.025
 9065SOL    HW129092  13.307   6.114   0.975
 9065SOL    HW229093  13.217   5.994   0.960
 9066SOL     OW29094   8.668   6.845  12.164
 9066SOL    HW129095   8.744   6.903  12.165
 9066SOL    HW229096   8.621   6.869  12.084
 9067SOL     OW29097  13.486   1.577   1.745
 9067SOL    HW129098  13.508   1.566   1.838
 9067SOL    HW229099  13.390   1.573   1.743
 9068SOL     OW29100  11.852   8.058   7.065
 9068SOL    HW129101  11.776   8.108   7.034
 9068SOL    HW229102  11.874   8.098   7.150
 9069SOL     OW29103   6.926   1.331   7.719
 9069SOL    HW129104   6.910   1.237   7.730
 9069SOL    HW229105   6.842   1.372   7.740
 9070SOL     OW29106   7.817   5.682  10.750
 9070SOL    HW129107   7.809   5.682  10.654
 9070SOL    HW229108   7.809   5.774  10.775
 9071SOL     OW29109  14.709   8.354  14.266
 9071SOL    HW129110  14.750   8.341  14.352
 9071SOL    HW229111  14.699   8.265  14.231
 9072SOL     OW29112   8.861  10.913  13.841
 9072SOL    HW129113   8.869  10.839  13.781
 9072SOL    HW229114   8.777  10.953  13.819
 9073SOL     OW29115   0.422  12.185  10.206
 9073SOL    HW129116   0.343  12.238  10.195
 9073SOL    HW229117   0.430  12.174  10.301
 9074SOL     OW29118  12.333   7.090   6.353
 9074SOL    HW129119  12.299   7.017   6.301
 9074SOL    HW229120  12.314   7.066   6.444
 9075SOL     OW29121   6.802  13.154  10.670
 9075SOL    HW129122   6.862  13.222  10.640
 9075SOL    HW229123   6.810  13.084  10.605
 9076SOL     OW29124   8.907   4.130   4.454
 9076SOL    HW129125   8.882   4.112   4.545
 9076SOL    HW229126   8.987   4.182   4.459
 9077SOL     OW29127   8.876   5.724  14.035
 9077SOL    HW129128   8.794   5.771  14.021
 9077SOL    HW229129   8.907   5.754  14.120
 9078SOL     OW29130   4.690   3.813   2.408
 9078SOL    HW129131   4.617   3.752   2.400
 9078SOL    HW229132   4.684   3.868   2.330
 9079SOL     OW29133   6.193  10.287   7.609
 9079SOL    HW129134   6.124  10.263   7.670
 9079SOL    HW229135   6.232  10.367   7.646
 9080SOL     OW29136  11.351   7.735  14.611
 9080SOL    HW129137  11.423   7.793  14.635
 9080SOL    HW229138  11.277   7.793  14.595
 9081SOL     OW29139   2.918   4.047   7.361
 9081SOL    HW129140   2.868   4.078   7.286
 9081SOL    HW229141   2.955   3.963   7.332
 9082SOL     OW29142   5.734   6.614   5.434
 9082SOL    HW129143   5.642   6.633   5.455
 9082SOL    HW229144   5.730   6.556   5.358
 9083SOL     OW29145   6.196  11.288   6.909
 9083SOL    HW129146   6.191  11.377   6.944
 9083SOL    HW229147   6.229  11.299   6.820
 9084SOL     OW29148   7.016   1.459  11.759
 9084SOL    HW129149   6.965   1.537  11.737
 9084SOL    HW229150   7.068   1.443  11.681
 9085SOL     OW29151   8.688  13.404   7.906
 9085SOL    HW129152   8.600  13.436   7.887
 9085SOL    HW229153   8.684  13.376   7.997
 9086SOL     OW29154   9.016  10.148   8.500
 9086SOL    HW129155   9.063  10.110   8.575
 9086SOL    HW229156   9.017  10.080   8.433
 9087SOL     OW29157  13.611   0.721   3.875
 9087SOL    HW129158  13.594   0.717   3.781
 9087SOL    HW229159  13.535   0.767   3.911
 9088SOL     OW29160  14.348  12.876   6.307
 9088SOL    HW129161  14.270  12.834   6.345
 9088SOL    HW229162  14.364  12.827   6.226
 9089SOL     OW29163  10.001  10.406   6.489
 9089SOL    HW129164  10.086  10.417   6.446
 9089SOL    HW229165   9.955  10.343   6.434
 9090SOL     OW29166   7.480   2.469   4.007
 9090SOL    HW129167   7.472   2.525   4.085
 9090SOL    HW229168   7.480   2.531   3.934
 9091SOL     OW29169   9.825  10.610  13.787
 9091SOL    HW129170   9.872  10.683  13.748
 9091SOL    HW229171   9.732  10.634  13.780
 9092SOL     OW29172   4.068   1.687  12.104
 9092SOL    HW129173   4.032   1.766  12.062
 9092SOL    HW229174   4.077   1.712  12.197
 9093SOL     OW29175  12.843   9.606   8.198
 9093SOL    HW129176  12.935   9.600   8.170
 9093SOL    HW229177  12.841   9.557   8.281
 9094SOL     OW29178   7.323   0.363  10.450
 9094SOL    HW129179   7.330   0.363  10.545
 9094SOL    HW229180   7.277   0.283  10.429
 9095SOL     OW29181   4.579   0.032   8.116
 9095SOL    HW129182   4.597   0.056   8.025
 9095SOL    HW229183   4.548   0.113   8.157
 9096SOL     OW29184  10.469   9.718  11.323
 9096SOL    HW129185  10.516   9.683  11.247
 9096SOL    HW229186  10.389   9.666  11.328
 9097SOL     OW29187   5.199   2.682  13.820
 9097SOL    HW129188   5.272   2.706  13.877
 9097SOL    HW229189   5.192   2.754  13.757
 9098SOL     OW29190   2.287  13.957   4.113
 9098SOL    HW129191   2.209  13.903   4.116
 9098SOL    HW229192   2.276  14.020   4.184
 9099SOL     OW29193  13.785   0.105   0.834
 9099SOL    HW129194  13.769   0.199   0.844
 9099SOL    HW229195  13.878   0.100   0.809
 9100SOL     OW29196   3.849  10.667   3.633
 9100SOL    HW129197   3.831  10.591   3.688
 9100SOL    HW229198   3.937  10.652   3.600
 9101SOL     OW29199  13.900  10.432   8.832
 9101SOL    HW129200  13.903  10.440   8.927
 9101SOL    HW229201  13.959  10.360   8.812
 9102SOL     OW29202   2.252   7.241   9.711
 9102SOL    HW129203   2.294   7.311   9.760
 9102SOL    HW229204   2.183   7.285   9.661
 9103SOL     OW29205   9.284   2.834  11.112
 9103SOL    HW129206   9.261   2.774  11.183
 9103SOL    HW229207   9.206   2.888  11.100
 9104SOL     OW29208  10.805   3.937   7.030
 9104SOL    HW129209  10.785   3.897   7.115
 9104SOL    HW229210  10.733   3.998   7.014
 9105SOL     OW29211  12.419   4.715   6.518
 9105SOL    HW129212  12.442   4.770   6.444
 9105SOL    HW229213  12.332   4.681   6.496
 9106SOL     OW29214   3.808  14.741  13.863
 9106SOL    HW129215   3.882  14.753  13.804
 9106SOL    HW229216   3.771  14.829  13.874
 9107SOL     OW29217   5.030   6.955   0.999
 9107SOL    HW129218   5.051   7.003   0.918
 9107SOL    HW229219   4.940   6.980   1.018
 9108SOL     OW29220   4.341   4.597   9.278
 9108SOL    HW129221   4.385   4.513   9.292
 9108SOL    HW229222   4.315   4.596   9.186
 9109SOL     OW29223   2.519   9.954   8.580
 9109SOL    HW129224   2.583  10.013   8.621
 9109SOL    HW229225   2.569   9.906   8.514
 9110SOL     OW29226   1.301   2.778  10.541
 9110SOL    HW129227   1.325   2.687  10.522
 9110SOL    HW229228   1.297   2.783  10.636
 9111SOL     OW29229   3.318   8.609  11.675
 9111SOL    HW129230   3.293   8.519  11.696
 9111SOL    HW229231   3.362   8.641  11.754
 9112SOL     OW29232   8.440  12.140   3.707
 9112SOL    HW129233   8.449  12.072   3.774
 9112SOL    HW229234   8.481  12.103   3.629
 9113SOL     OW29235   0.297   7.090  10.826
 9113SOL    HW129236   0.360   7.021  10.805
 9113SOL    HW229237   0.211   7.050  10.808
 9114SOL     OW29238  14.005   6.224   3.502
 9114SOL    HW129239  13.949   6.298   3.525
 9114SOL    HW229240  14.054   6.253   3.425
 9115SOL     OW29241   3.643   5.841  12.941
 9115SOL    HW129242   3.595   5.922  12.958
 9115SOL    HW229243   3.688   5.857  12.858
 9116SOL     OW29244   4.616   6.582  13.481
 9116SOL    HW129245   4.640   6.646  13.548
 9116SOL    HW229246   4.684   6.514  13.488
 9117SOL     OW29247   7.307  10.678  12.992
 9117SOL    HW129248   7.214  10.677  13.015
 9117SOL    HW229249   7.311  10.636  12.906
 9118SOL     OW29250  10.325  12.394   6.827
 9118SOL    HW129251  10.290  12.376   6.740
 9118SOL    HW229252  10.273  12.339   6.886
 9119SOL     OW29253   3.035  11.204   6.279
 9119SOL    HW129254   2.949  11.241   6.298
 9119SOL    HW229255   3.079  11.271   6.227
 9120SOL     OW29256  12.127  11.522  11.544
 9120SOL    HW129257  12.219  11.532  11.520
 9120SOL    HW229258  12.085  11.491  11.463
 9121SOL     OW29259  11.001   7.259   2.881
 9121SOL    HW129260  11.018   7.267   2.975
 9121SOL    HW229261  10.906   7.254   2.874
 9122SOL     OW29262   7.226   5.965   0.811
 9122SOL    HW129263   7.296   5.979   0.874
 9122SOL    HW229264   7.159   6.029   0.835
 9123SOL     OW29265   6.750  11.443   9.881
 9123SOL    HW129266   6.818  11.381   9.909
 9123SOL    HW229267   6.708  11.400   9.806
 9124SOL     OW29268   7.737   1.716  11.165
 9124SOL    HW129269   7.688   1.689  11.244
 9124SOL    HW229270   7.761   1.807  11.182
 9125SOL     OW29271   7.497  10.378  11.496
 9125SOL    HW129272   7.483  10.287  11.522
 9125SOL    HW229273   7.572  10.375  11.437
 9126SOL     OW29274   6.472   3.220  12.146
 9126SOL    HW129275   6.388   3.174  12.137
 9126SOL    HW229276   6.513   3.211  12.060
 9127SOL     OW29277   7.628   4.317  13.167
 9127SOL    HW129278   7.534   4.303  13.179
 9127SOL    HW229279   7.642   4.408  13.191
 9128SOL     OW29280  14.372   1.465  14.788
 9128SOL    HW129281  14.384   1.530  14.718
 9128SOL    HW229282  14.434   1.396  14.767
 9129SOL     OW29283   0.694   5.474   7.714
 9129SOL    HW129284   0.614   5.487   7.663
 9129SOL    HW229285   0.664   5.436   7.796
 9130SOL     OW29286   1.848  13.558  11.624
 9130SOL    HW129287   1.866  13.464  11.616
 9130SOL    HW229288   1.912  13.589  11.689
 9131SOL     OW29289   7.877  10.867   0.254
 9131SOL    HW129290   7.813  10.801   0.281
 9131SOL    HW229291   7.955  10.847   0.306
 9132SOL     OW29292  10.214  11.478   4.332
 9132SOL    HW129293  10.142  11.540   4.345
 9132SOL    HW229294  10.172  11.400   4.296
 9133SOL     OW29295   5.546  11.295  10.992
 9133SOL    HW129296   5.556  11.262  11.081
 9133SOL    HW229297   5.464  11.257  10.961
 9134SOL     OW29298   4.217   3.151   7.938
 9134SOL    HW129299   4.207   3.076   7.879
 9134SOL    HW229300   4.165   3.128   8.015
 9135SOL     OW29301  14.698   7.165  14.275
 9135SOL    HW129302  14.632   7.225  14.238
 9135SOL    HW229303  14.647   7.091  14.307
 9136SOL     OW29304   9.871   8.347   3.613
 9136SOL    HW129305   9.891   8.274   3.555
 9136SOL    HW229306   9.832   8.413   3.555
 9137SOL     OW29307   8.060  11.521   5.173
 9137SOL    HW129308   7.998  11.580   5.131
 9137SOL    HW229309   8.068  11.554   5.262
 9138SOL     OW29310  14.496   9.496   4.089
 9138SOL    HW129311  14.410   9.461   4.112
 9138SOL    HW229312  14.543   9.502   4.173
 9139SOL     OW29313   4.569   0.721   2.850
 9139SOL    HW129314   4.592   0.745   2.940
 9139SOL    HW229315   4.504   0.787   2.824
 9140SOL     OW29316   3.838  13.390   8.936
 9140SOL    HW129317   3.784  13.388   9.015
 9140SOL    HW229318   3.790  13.447   8.876
 9141SOL     OW29319   1.178   2.352   5.082
 9141SOL    HW129320   1.233   2.316   5.012
 9141SOL    HW229321   1.223   2.328   5.163
 9142SOL     OW29322   1.207  12.366   4.702
 9142SOL    HW129323   1.298  12.373   4.732
 9142SOL    HW229324   1.187  12.273   4.707
 9143SOL     OW29325  11.301   7.256   2.483
 9143SOL    HW129326  11.261   7.212   2.559
 9143SOL    HW229327  11.241   7.327   2.463
 9144SOL     OW29328   5.811   4.155   1.780
 9144SOL    HW129329   5.900   4.151   1.746
 9144SOL    HW229330   5.805   4.082   1.840
 9145SOL     OW29331  11.562   3.110   4.202
 9145SOL    HW129332  11.655   3.095   4.219
 9145SOL    HW229333  11.538   3.046   4.136
 9146SOL     OW29334   7.674   1.623  13.172
 9146SOL    HW129335   7.701   1.608  13.082
 9146SOL    HW229336   7.756   1.626  13.222
 9147SOL     OW29337   3.508  11.843   4.464
 9147SOL    HW129338   3.501  11.936   4.443
 9147SOL    HW229339   3.599  11.831   4.491
 9148SOL     OW29340  13.970  11.536   4.980
 9148SOL    HW129341  13.962  11.446   5.010
 9148SOL    HW229342  13.880  11.570   4.983
 9149SOL     OW29343   0.076   9.561   4.295
 9149SOL    HW129344   0.150   9.570   4.235
 9149SOL    HW229345   0.081   9.638   4.351
 9150SOL     OW29346  14.661   5.814   8.240
 9150SOL    HW129347  14.727   5.825   8.309
 9150SOL    HW229348  14.641   5.903   8.212
 9151SOL     OW29349  13.038   8.305  14.168
 9151SOL    HW129350  13.058   8.379  14.224
 9151SOL    HW229351  13.118   8.292  14.116
 9152SOL     OW29352   9.648   4.477   3.734
 9152SOL    HW129353   9.732   4.454   3.773
 9152SOL    HW229354   9.669   4.539   3.664
 9153SOL     OW29355  12.612   1.952   7.769
 9153SOL    HW129356  12.560   1.885   7.724
 9153SOL    HW229357  12.698   1.912   7.780
 9154SOL     OW29358  11.233  14.394   4.165
 9154SOL    HW129359  11.326  14.371   4.157
 9154SOL    HW229360  11.189  14.337   4.101
 9155SOL     OW29361   0.051  10.300  12.139
 9155SOL    HW129362   0.054  10.394  12.118
 9155SOL    HW229363   0.102  10.292  12.219
 9156SOL     OW29364   2.507   2.347   9.076
 9156SOL    HW129365   2.566   2.291   9.025
 9156SOL    HW229366   2.559   2.425   9.096
 9157SOL     OW29367  10.459  10.088   3.422
 9157SOL    HW129368  10.432  10.007   3.466
 9157SOL    HW229369  10.380  10.117   3.376
 9158SOL     OW29370   5.751   2.403   3.523
 9158SOL    HW129371   5.777   2.313   3.538
 9158SOL    HW229372   5.773   2.420   3.431
 9159SOL     OW29373  13.344  10.974   2.130
 9159SOL    HW129374  13.285  10.900   2.135
 9159SOL    HW229375  13.291  11.046   2.096
 9160SOL     OW29376   7.663   1.067   0.697
 9160SOL    HW129377   7.637   0.999   0.635
 9160SOL    HW229378   7.582   1.117   0.713
 9161SOL     OW29379   0.401   8.113  10.449
 9161SOL    HW129380   0.399   8.044  10.383
 9161SOL    HW229381   0.336   8.085  10.514
 9162SOL     OW29382   1.302  14.483   2.095
 9162SOL    HW129383   1.349  14.459   2.014
 9162SOL    HW229384   1.346  14.433   2.164
 9163SOL     OW29385   2.932  12.897   8.974
 9163SOL    HW129386   2.980  12.962   8.922
 9163SOL    HW229387   2.840  12.911   8.951
 9164SOL     OW29388  13.198   3.459   2.519
 9164SOL    HW129389  13.265   3.394   2.542
 9164SOL    HW229390  13.203   3.465   2.424
 9165SOL     OW29391   3.326   8.176   7.825
 9165SOL    HW129392   3.380   8.125   7.885
 9165SOL    HW229393   3.247   8.196   7.875
 9166SOL     OW29394   5.395   1.155  11.920
 9166SOL    HW129395   5.372   1.095  11.849
 9166SOL    HW229396   5.316   1.159  11.974
 9167SOL     OW29397   8.037   1.759  13.054
 9167SOL    HW129398   8.006   1.801  13.135
 9167SOL    HW229399   8.055   1.668  13.080
 9168SOL     OW29400   5.402  10.631   5.537
 9168SOL    HW129401   5.383  10.694   5.468
 9168SOL    HW229402   5.496  10.640   5.554
 9169SOL     OW29403   2.196   0.518   1.240
 9169SOL    HW129404   2.248   0.447   1.277
 9169SOL    HW229405   2.217   0.594   1.294
 9170SOL     OW29406   8.743  12.396  10.200
 9170SOL    HW129407   8.798  12.337  10.148
 9170SOL    HW229408   8.689  12.337  10.254
 9171SOL     OW29409   9.100  14.116   6.553
 9171SOL    HW129410   9.191  14.103   6.579
 9171SOL    HW229411   9.055  14.139   6.635
 9172SOL     OW29412   2.364   5.960   7.131
 9172SOL    HW129413   2.277   5.950   7.091
 9172SOL    HW229414   2.398   5.871   7.136
 9173SOL     OW29415   2.283   5.507  14.048
 9173SOL    HW129416   2.367   5.552  14.046
 9173SOL    HW229417   2.255   5.511  14.139
 9174SOL     OW29418   3.963  11.176  14.336
 9174SOL    HW129419   4.053  11.209  14.341
 9174SOL    HW229420   3.910  11.246  14.374
 9175SOL     OW29421   4.135   1.642   2.637
 9175SOL    HW129422   4.147   1.643   2.542
 9175SOL    HW229423   4.153   1.732   2.664
 9176SOL     OW29424   3.574   3.116   9.090
 9176SOL    HW129425   3.639   3.046   9.100
 9176SOL    HW229426   3.596   3.178   9.160
 9177SOL     OW29427  13.017   8.209   0.751
 9177SOL    HW129428  12.998   8.299   0.725
 9177SOL    HW229429  13.053   8.217   0.840
 9178SOL     OW29430  13.733   3.399  14.403
 9178SOL    HW129431  13.737   3.407  14.499
 9178SOL    HW229432  13.711   3.487  14.373
 9179SOL     OW29433  11.120  13.883   8.442
 9179SOL    HW129434  11.181  13.955   8.431
 9179SOL    HW229435  11.089  13.863   8.353
 9180SOL     OW29436   9.153   2.849   5.622
 9180SOL    HW129437   9.097   2.805   5.686
 9180SOL    HW229438   9.233   2.797   5.620
 9181SOL     OW29439   2.794   3.542  10.327
 9181SOL    HW129440   2.872   3.585  10.362
 9181SOL    HW229441   2.740   3.525  10.404
 9182SOL     OW29442   7.136   1.564   0.274
 9182SOL    HW129443   7.095   1.631   0.219
 9182SOL    HW229444   7.193   1.613   0.333
 9183SOL     OW29445  13.112   6.342   3.100
 9183SOL    HW129446  13.090   6.251   3.079
 9183SOL    HW229447  13.207   6.346   3.094
 9184SOL     OW29448  13.764   2.977   4.971
 9184SOL    HW129449  13.763   2.903   4.910
 9184SOL    HW229450  13.672   3.001   4.982
 9185SOL     OW29451  10.853   7.835   4.409
 9185SOL    HW129452  10.834   7.752   4.367
 9185SOL    HW229453  10.781   7.847   4.472
 9186SOL     OW29454  11.418   3.394  11.330
 9186SOL    HW129455  11.369   3.427  11.406
 9186SOL    HW229456  11.356   3.338  11.284
 9187SOL     OW29457  14.502   1.005   5.003
 9187SOL    HW129458  14.584   1.054   4.998
 9187SOL    HW229459  14.507   0.942   4.931
 9188SOL     OW29460  14.294   3.252  13.067
 9188SOL    HW129461  14.343   3.305  13.129
 9188SOL    HW229462  14.360   3.198  13.023
 9189SOL     OW29463   1.002   9.047   6.235
 9189SOL    HW129464   0.973   8.956   6.225
 9189SOL    HW229465   1.000   9.082   6.146
 9190SOL     OW29466   8.539   6.906   7.003
 9190SOL    HW129467   8.596   6.980   6.980
 9190SOL    HW229468   8.471   6.944   7.058
 9191SOL     OW29469   2.283   0.359   6.319
 9191SOL    HW129470   2.209   0.420   6.321
 9191SOL    HW229471   2.314   0.362   6.229
 9192SOL     OW29472   1.160  12.112   2.774
 9192SOL    HW129473   1.231  12.048   2.766
 9192SOL    HW229474   1.085  12.060   2.804
 9193SOL     OW29475  10.625   5.458   7.732
 9193SOL    HW129476  10.671   5.494   7.808
 9193SOL    HW229477  10.578   5.533   7.694
 9194SOL     OW29478  14.812  10.082   7.001
 9194SOL    HW129479  14.759  10.157   7.030
 9194SOL    HW229480   0.016  10.097   7.040
 9195SOL     OW29481   2.310  12.592  10.196
 9195SOL    HW129482   2.298  12.523  10.131
 9195SOL    HW229483   2.223  12.608  10.232
 9196SOL     OW29484   3.391   2.250   9.857
 9196SOL    HW129485   3.319   2.187   9.854
 9196SOL    HW229486   3.387   2.287   9.945
 9197SOL     OW29487  12.509   2.143  13.126
 9197SOL    HW129488  12.594   2.107  13.148
 9197SOL    HW229489  12.481   2.189  13.206
 9198SOL     OW29490   5.565   5.582  11.593
 9198SOL    HW129491   5.577   5.648  11.661
 9198SOL    HW229492   5.470   5.570  11.588
 9199SOL     OW29493  12.268   7.047   1.172
 9199SOL    HW129494  12.349   7.097   1.168
 9199SOL    HW229495  12.221   7.084   1.247
 9200SOL     OW29496   6.791   7.691   5.943
 9200SOL    HW129497   6.833   7.605   5.940
 9200SOL    HW229498   6.861   7.752   5.919
 9201SOL     OW29499  10.148   8.601  12.562
 9201SOL    HW129500  10.118   8.634  12.647
 9201SOL    HW229501  10.071   8.608  12.506
 9202SOL     OW29502  12.535   1.548   4.231
 9202SOL    HW129503  12.475   1.572   4.161
 9202SOL    HW229504  12.614   1.518   4.187
 9203SOL     OW29505   8.284   2.745  10.946
 9203SOL    HW129506   8.205   2.715  10.901
 9203SOL    HW229507   8.355   2.729  10.883
 9204SOL     OW29508   6.086   1.471  12.314
 9204SOL    HW129509   6.063   1.444  12.402
 9204SOL    HW229510   6.147   1.544  12.326
 9205SOL     OW29511   3.113   0.842  10.183
 9205SOL    HW129512   3.062   0.919  10.208
 9205SOL    HW229513   3.081   0.772  10.240
 9206SOL     OW29514  14.200  10.368   5.739
 9206SOL    HW129515  14.282  10.338   5.778
 9206SOL    HW229516  14.167  10.292   5.691
 9207SOL     OW29517   6.278   0.533  10.052
 9207SOL    HW129518   6.355   0.589  10.053
 9207SOL    HW229519   6.306   0.452  10.092
 9208SOL     OW29520   9.981   6.564   0.264
 9208SOL    HW129521   9.950   6.655   0.257
 9208SOL    HW229522  10.048   6.557   0.196
 9209SOL     OW29523  13.316   0.211  12.462
 9209SOL    HW129524  13.272   0.236  12.543
 9209SOL    HW229525  13.315   0.291  12.408
 9210SOL     OW29526  10.034   7.768  11.724
 9210SOL    HW129527  10.019   7.740  11.634
 9210SOL    HW229528   9.996   7.856  11.728
 9211SOL     OW29529  11.810   6.273  12.575
 9211SOL    HW129530  11.822   6.336  12.646
 9211SOL    HW229531  11.812   6.327  12.495
 9212SOL     OW29532   5.943   6.780   6.547
 9212SOL    HW129533   5.863   6.734   6.522
 9212SOL    HW229534   5.992   6.789   6.465
 9213SOL     OW29535   7.064   2.090   0.689
 9213SOL    HW129536   7.095   2.011   0.733
 9213SOL    HW229537   6.985   2.114   0.737
 9214SOL     OW29538   9.215   4.685   9.756
 9214SOL    HW129539   9.164   4.694   9.837
 9214SOL    HW229540   9.233   4.775   9.730
 9215SOL     OW29541   0.489  11.494   9.113
 9215SOL    HW129542   0.577  11.525   9.089
 9215SOL    HW229543   0.453  11.458   9.032
 9216SOL     OW29544  11.449   7.304   3.884
 9216SOL    HW129545  11.442   7.277   3.976
 9216SOL    HW229546  11.537   7.339   3.876
 9217SOL     OW29547  10.601   9.915   2.382
 9217SOL    HW129548  10.547   9.855   2.330
 9217SOL    HW229549  10.596   9.998   2.336
 9218SOL     OW29550   5.574  10.315   0.664
 9218SOL    HW129551   5.597  10.227   0.635
 9218SOL    HW229552   5.658  10.359   0.678
 9219SOL     OW29553   3.027   9.206   9.753
 9219SOL    HW129554   2.947   9.155   9.739
 9219SOL    HW229555   3.030   9.265   9.677
 9220SOL     OW29556  12.168  12.019  13.908
 9220SOL    HW129557  12.150  11.933  13.946
 9220SOL    HW229558  12.202  12.071  13.982
 9221SOL     OW29559   2.698   5.317  13.786
 9221SOL    HW129560   2.667   5.227  13.790
 9221SOL    HW229561   2.783   5.312  13.743
 9222SOL     OW29562   4.450   3.233   6.372
 9222SOL    HW129563   4.457   3.143   6.402
 9222SOL    HW229564   4.537   3.271   6.390
 9223SOL     OW29565   0.545  12.205   8.074
 9223SOL    HW129566   0.522  12.150   8.149
 9223SOL    HW229567   0.588  12.281   8.112
 9224SOL     OW29568   7.635  10.330  13.326
 9224SOL    HW129569   7.604  10.244  13.354
 9224SOL    HW229570   7.730  10.322  13.324
 9225SOL     OW29571  10.184  14.418  13.933
 9225SOL    HW129572  10.126  14.426  13.857
 9225SOL    HW229573  10.176  14.326  13.959
 9226SOL     OW29574   9.172  12.397   7.931
 9226SOL    HW129575   9.255  12.399   7.883
 9226SOL    HW229576   9.195  12.357   8.015
 9227SOL     OW29577   4.021  11.303   9.264
 9227SOL    HW129578   3.996  11.277   9.353
 9227SOL    HW229579   3.942  11.345   9.229
 9228SOL     OW29580   0.101   0.317   1.023
 9228SOL    HW129581   0.177   0.344   0.973
 9228SOL    HW229582   0.121   0.343   1.113
 9229SOL     OW29583   1.756  12.665   6.030
 9229SOL    HW129584   1.785  12.652   5.940
 9229SOL    HW229585   1.797  12.593   6.079
 9230SOL     OW29586  14.705   6.362  11.126
 9230SOL    HW129587  14.719   6.317  11.209
 9230SOL    HW229588  14.671   6.449  11.151
 9231SOL     OW29589   7.911   6.283  10.233
 9231SOL    HW129590   7.857   6.355  10.265
 9231SOL    HW229591   7.990   6.325  10.200
 9232SOL     OW29592   2.018  14.445  11.478
 9232SOL    HW129593   2.084  14.375  11.478
 9232SOL    HW229594   2.028  14.486  11.564
 9233SOL     OW29595   4.357   7.216   0.838
 9233SOL    HW129596   4.343   7.299   0.793
 9233SOL    HW229597   4.290   7.157   0.803
 9234SOL     OW29598   1.481   2.986   7.578
 9234SOL    HW129599   1.510   3.072   7.607
 9234SOL    HW229600   1.391   2.998   7.550
 9235SOL     OW29601  13.229   2.040   6.492
 9235SOL    HW129602  13.308   2.092   6.476
 9235SOL    HW229603  13.174   2.095   6.547
 9236SOL     OW29604  12.699  12.012   7.576
 9236SOL    HW129605  12.745  12.003   7.659
 9236SOL    HW229606  12.620  12.061   7.597
 9237SOL     OW29607  10.725   9.999   5.709
 9237SOL    HW129608  10.686   9.924   5.663
 9237SOL    HW229609  10.792  10.032   5.649
 9238SOL     OW29610  11.839   1.676   2.669
 9238SOL    HW129611  11.755   1.690   2.626
 9238SOL    HW229612  11.816   1.655   2.759
 9239SOL     OW29613   1.837  11.456   4.627
 9239SOL    HW129614   1.853  11.537   4.675
 9239SOL    HW229615   1.793  11.399   4.689
 9240SOL     OW29616   5.431   4.924   0.689
 9240SOL    HW129617   5.380   4.874   0.752
 9240SOL    HW229618   5.443   4.865   0.614
 9241SOL     OW29619  14.116   7.651  11.806
 9241SOL    HW129620  14.107   7.744  11.830
 9241SOL    HW229621  14.210   7.637  11.798
 9242SOL     OW29622   1.015  12.123   5.751
 9242SOL    HW129623   0.996  12.108   5.843
 9242SOL    HW229624   1.108  12.101   5.741
 9243SOL     OW29625   4.789   3.426   7.732
 9243SOL    HW129626   4.812   3.481   7.657
 9243SOL    HW229627   4.874   3.405   7.773
 9244SOL     OW29628  10.641   2.910   6.525
 9244SOL    HW129629  10.592   2.989   6.548
 9244SOL    HW229630  10.704   2.899   6.597
 9245SOL     OW29631   3.037   7.629  10.768
 9245SOL    HW129632   2.968   7.691  10.744
 9245SOL    HW229633   2.991   7.547  10.782
 9246SOL     OW29634   2.435   4.999   3.731
 9246SOL    HW129635   2.438   5.085   3.688
 9246SOL    HW229636   2.444   5.018   3.824
 9247SOL     OW29637   4.832   2.674   5.098
 9247SOL    HW129638   4.790   2.647   5.016
 9247SOL    HW229639   4.825   2.597   5.155
 9248SOL     OW29640  10.619   4.784  14.840
 9248SOL    HW129641  10.657   4.831  14.766
 9248SOL    HW229642  10.593   4.699  14.805
 9249SOL     OW29643  12.610   0.161   6.466
 9249SOL    HW129644  12.566   0.206   6.393
 9249SOL    HW229645  12.601   0.068   6.445
 9250SOL     OW29646  11.699   1.522   9.088
 9250SOL    HW129647  11.620   1.492   9.132
 9250SOL    HW229648  11.756   1.553   9.159
 9251SOL     OW29649   1.179   2.328   3.448
 9251SOL    HW129650   1.159   2.422   3.444
 9251SOL    HW229651   1.184   2.309   3.541
 9252SOL     OW29652   3.808   7.383  10.890
 9252SOL    HW129653   3.901   7.402  10.901
 9252SOL    HW229654   3.804   7.323  10.816
 9253SOL     OW29655   9.977  12.493   2.268
 9253SOL    HW129656  10.012  12.574   2.231
 9253SOL    HW229657   9.995  12.426   2.202
 9254SOL     OW29658  11.036   8.964   8.621
 9254SOL    HW129659  11.004   8.874   8.620
 9254SOL    HW229660  11.073   8.975   8.709
 9255SOL     OW29661   8.639   9.721   0.046
 9255SOL    HW129662   8.635   9.625   0.040
 9255SOL    HW229663   8.581   9.752  14.859
 9256SOL     OW29664   7.115  12.563   5.110
 9256SOL    HW129665   7.131  12.492   5.047
 9256SOL    HW229666   7.021  12.580   5.103
 9257SOL     OW29667   5.604  11.801  13.544
 9257SOL    HW129668   5.546  11.853  13.488
 9257SOL    HW229669   5.608  11.715  13.501
 9258SOL     OW29670   9.517   2.809   5.878
 9258SOL    HW129671   9.500   2.802   5.972
 9258SOL    HW229672   9.605   2.772   5.866
 9259SOL     OW29673   8.005  12.752  14.001
 9259SOL    HW129674   8.023  12.845  14.015
 9259SOL    HW229675   8.028  12.737  13.909
 9260SOL     OW29676  12.805   7.715   4.266
 9260SOL    HW129677  12.765   7.776   4.203
 9260SOL    HW229678  12.892   7.697   4.229
 9261SOL     OW29679  10.525  14.649   8.288
 9261SOL    HW129680  10.518  14.602   8.371
 9261SOL    HW229681  10.615  14.683   8.287
 9262SOL     OW29682   3.522   6.928  12.124
 9262SOL    HW129683   3.559   6.932  12.212
 9262SOL    HW229684   3.452   6.864  12.130
 9263SOL     OW29685   7.594   8.679   9.386
 9263SOL    HW129686   7.679   8.666   9.428
 9263SOL    HW229687   7.588   8.774   9.373
 9264SOL     OW29688   4.211   4.835   2.629
 9264SOL    HW129689   4.174   4.764   2.577
 9264SOL    HW229690   4.179   4.818   2.718
 9265SOL     OW29691   5.255   1.579   0.719
 9265SOL    HW129692   5.180   1.628   0.752
 9265SOL    HW229693   5.217   1.505   0.672
 9266SOL     OW29694   4.244  13.529   4.752
 9266SOL    HW129695   4.210  13.553   4.665
 9266SOL    HW229696   4.234  13.609   4.804
 9267SOL     OW29697   7.690   5.903  12.304
 9267SOL    HW129698   7.707   5.953  12.224
 9267SOL    HW229699   7.616   5.847  12.281
 9268SOL     OW29700   3.805  14.805   7.375
 9268SOL    HW129701   3.746  14.879   7.364
 9268SOL    HW229702   3.841  14.789   7.288
 9269SOL     OW29703   8.843   7.271   0.205
 9269SOL    HW129704   8.754   7.276   0.239
 9269SOL    HW229705   8.853   7.348   0.150
 9270SOL     OW29706   8.182   0.063  14.465
 9270SOL    HW129707   8.253   0.083  14.403
 9270SOL    HW229708   8.224   0.007  14.531
 9271SOL     OW29709   6.660   2.558  10.655
 9271SOL    HW129710   6.606   2.528  10.728
 9271SOL    HW229711   6.597   2.582  10.587
 9272SOL     OW29712   7.776  14.498  10.232
 9272SOL    HW129713   7.835  14.509  10.307
 9272SOL    HW229714   7.815  14.428  10.181
 9273SOL     OW29715   6.231   8.758  13.865
 9273SOL    HW129716   6.286   8.830  13.896
 9273SOL    HW229717   6.293   8.694  13.830
 9274SOL     OW29718  13.435   7.790  12.028
 9274SOL    HW129719  13.524   7.764  12.006
 9274SOL    HW229720  13.422   7.757  12.118
 9275SOL     OW29721   3.728   1.768   3.770
 9275SOL    HW129722   3.815   1.790   3.802
 9275SOL    HW229723   3.691   1.852   3.743
 9276SOL     OW29724   7.878   1.700   8.267
 9276SOL    HW129725   7.841   1.631   8.211
 9276SOL    HW229726   7.946   1.740   8.212
 9277SOL     OW29727   0.080   1.665  11.062
 9277SOL    HW129728   0.077   1.739  11.123
 9277SOL    HW229729  14.873   1.631  11.060
 9278SOL     OW29730   6.850   8.436  11.053
 9278SOL    HW129731   6.786   8.368  11.032
 9278SOL    HW229732   6.809   8.485  11.125
 9279SOL     OW29733  10.328   2.976   8.301
 9279SOL    HW129734  10.399   2.933   8.253
 9279SOL    HW229735  10.251   2.921   8.285
 9280SOL     OW29736  13.409  12.468  10.554
 9280SOL    HW129737  13.477  12.480  10.620
 9280SOL    HW229738  13.328  12.461  10.604
 9281SOL     OW29739   5.510   0.853  13.902
 9281SOL    HW129740   5.590   0.906  13.901
 9281SOL    HW229741   5.442   0.911  13.868
 9282SOL     OW29742   8.456   7.787   5.326
 9282SOL    HW129743   8.401   7.710   5.310
 9282SOL    HW229744   8.494   7.772   5.412
 9283SOL     OW29745   5.451   3.155   4.748
 9283SOL    HW129746   5.456   3.223   4.815
 9283SOL    HW229747   5.436   3.074   4.797
 9284SOL     OW29748   8.741  12.608   4.369
 9284SOL    HW129749   8.835  12.597   4.357
 9284SOL    HW229750   8.722  12.696   4.335
 9285SOL     OW29751  13.953   3.389   5.419
 9285SOL    HW129752  13.879   3.338   5.455
 9285SOL    HW229753  13.917   3.477   5.408
 9286SOL     OW29754   0.574  10.563  12.682
 9286SOL    HW129755   0.535  10.632  12.736
 9286SOL    HW229756   0.606  10.609  12.604
 9287SOL     OW29757   7.480   3.774   3.707
 9287SOL    HW129758   7.572   3.755   3.690
 9287SOL    HW229759   7.432   3.720   3.645
 9288SOL     OW29760   5.731   8.672  12.547
 9288SOL    HW129761   5.704   8.762  12.565
 9288SOL    HW229762   5.748   8.634  12.634
 9289SOL     OW29763  12.909   3.639   5.225
 9289SOL    HW129764  12.989   3.642   5.172
 9289SOL    HW229765  12.843   3.684   5.171
 9290SOL     OW29766   3.714   3.459  14.062
 9290SOL    HW129767   3.638   3.503  14.101
 9290SOL    HW229768   3.677   3.390  14.007
 9291SOL     OW29769  11.725   9.977   1.892
 9291SOL    HW129770  11.631   9.990   1.875
 9291SOL    HW229771  11.769  10.024   1.821
 9292SOL     OW29772   1.478   6.999  12.769
 9292SOL    HW129773   1.408   7.037  12.716
 9292SOL    HW229774   1.537   7.072  12.787
 9293SOL     OW29775   6.486   4.258  12.320
 9293SOL    HW129776   6.550   4.321  12.286
 9293SOL    HW229777   6.413   4.263  12.258
 9294SOL     OW29778   8.315   4.630   9.700
 9294SOL    HW129779   8.220   4.622   9.691
 9294SOL    HW229780   8.348   4.542   9.680
 9295SOL     OW29781   9.242   2.749  10.639
 9295SOL    HW129782   9.274   2.760  10.728
 9295SOL    HW229783   9.319   2.724  10.588
 9296SOL     OW29784   6.628   6.995   4.330
 9296SOL    HW129785   6.623   6.914   4.279
 9296SOL    HW229786   6.540   7.006   4.367
 9297SOL     OW29787  12.671  12.837   7.522
 9297SOL    HW129788  12.725  12.856   7.445
 9297SOL    HW229789  12.658  12.742   7.520
 9298SOL     OW29790  14.775   2.348   1.679
 9298SOL    HW129791  14.765   2.270   1.624
 9298SOL    HW229792  14.869   2.357   1.691
 9299SOL     OW29793   2.695   6.580   3.017
 9299SOL    HW129794   2.661   6.577   2.928
 9299SOL    HW229795   2.671   6.666   3.050
 9300SOL     OW29796  10.227   2.690   6.659
 9300SOL    HW129797  10.236   2.595   6.672
 9300SOL    HW229798  10.285   2.710   6.586
 9301SOL     OW29799   7.622   6.163   7.994
 9301SOL    HW129800   7.539   6.212   7.989
 9301SOL    HW229801   7.667   6.200   8.069
 9302SOL     OW29802   9.300  11.538   1.628
 9302SOL    HW129803   9.365  11.579   1.571
 9302SOL    HW229804   9.349  11.514   1.707
 9303SOL     OW29805   6.378   4.277  14.852
 9303SOL    HW129806   6.404   4.346   0.031
 9303SOL    HW229807   6.441   4.285  14.780
 9304SOL     OW29808   2.099   3.729   8.248
 9304SOL    HW129809   2.009   3.730   8.215
 9304SOL    HW229810   2.154   3.732   8.170
 9305SOL     OW29811   2.160   8.573   0.375
 9305SOL    HW129812   2.233   8.543   0.321
 9305SOL    HW229813   2.164   8.517   0.453
 9306SOL     OW29814   9.464  10.692  12.091
 9306SOL    HW129815   9.498  10.775  12.059
 9306SOL    HW229816   9.396  10.716  12.154
 9307SOL     OW29817  11.008   6.151   5.606
 9307SOL    HW129818  11.003   6.103   5.689
 9307SOL    HW229819  11.038   6.238   5.630
 9308SOL     OW29820   2.624  11.988   8.767
 9308SOL    HW129821   2.667  12.031   8.841
 9308SOL    HW229822   2.642  12.046   8.693
 9309SOL     OW29823   0.345   7.685   3.668
 9309SOL    HW129824   0.350   7.710   3.576
 9309SOL    HW229825   0.323   7.767   3.713
 9310SOL     OW29826   1.187   9.772  14.680
 9310SOL    HW129827   1.095   9.783  14.703
 9310SOL    HW229828   1.192   9.684  14.642
 9311SOL     OW29829  10.587   0.025   8.162
 9311SOL    HW129830  10.564  14.815   8.178
 9311SOL    HW229831  10.504   0.067   8.141
 9312SOL     OW29832   7.721  12.565  14.808
 9312SOL    HW129833   7.719  12.482  14.856
 9312SOL    HW229834   7.659  12.553  14.736
 9313SOL     OW29835  12.032   8.483   0.861
 9313SOL    HW129836  12.054   8.418   0.794
 9313SOL    HW229837  11.949   8.520   0.832
 9314SOL     OW29838  14.432   5.827   6.633
 9314SOL    HW129839  14.357   5.771   6.611
 9314SOL    HW229840  14.429   5.897   6.569
 9315SOL     OW29841   2.517   4.830  10.405
 9315SOL    HW129842   2.483   4.790  10.485
 9315SOL    HW229843   2.461   4.906  10.390
 9316SOL     OW29844  10.850   5.214   9.732
 9316SOL    HW129845  10.829   5.171   9.650
 9316SOL    HW229846  10.946   5.213   9.736
 9317SOL     OW29847  14.559  10.850   4.337
 9317SOL    HW129848  14.596  10.762   4.342
 9317SOL    HW229849  14.632  10.908   4.359
 9318SOL     OW29850  12.012   1.388   0.423
 9318SOL    HW129851  11.931   1.338   0.430
 9318SOL    HW229852  12.054   1.380   0.509
 9319SOL     OW29853  10.675   9.236   1.862
 9319SOL    HW129854  10.712   9.212   1.947
 9319SOL    HW229855  10.729   9.190   1.798
 9320SOL     OW29856   2.516   3.677   8.819
 9320SOL    HW129857   2.543   3.701   8.908
 9320SOL    HW229858   2.554   3.590   8.806
 9321SOL     OW29859   6.630   6.591   2.633
 9321SOL    HW129860   6.674   6.554   2.556
 9321SOL    HW229861   6.580   6.665   2.598
 9322SOL     OW29862  13.359  13.489   6.484
 9322SOL    HW129863  13.369  13.436   6.563
 9322SOL    HW229864  13.423  13.559   6.494
 9323SOL     OW29865  11.123  12.559   8.451
 9323SOL    HW129866  11.132  12.654   8.458
 9323SOL    HW229867  11.211  12.525   8.463
 9324SOL     OW29868   9.388  11.104   2.711
 9324SOL    HW129869   9.298  11.079   2.691
 9324SOL    HW229870   9.435  11.094   2.628
 9325SOL     OW29871   8.182   0.822   3.891
 9325SOL    HW129872   8.100   0.794   3.931
 9325SOL    HW229873   8.158   0.896   3.836
 9326SOL     OW29874  12.085   1.894  11.450
 9326SOL    HW129875  12.170   1.872  11.413
 9326SOL    HW229876  12.081   1.845  11.532
 9327SOL     OW29877   7.553   6.603  14.379
 9327SOL    HW129878   7.633   6.559  14.407
 9327SOL    HW229879   7.483   6.541  14.399
 9328SOL     OW29880   2.678   5.448   1.857
 9328SOL    HW129881   2.770   5.431   1.835
 9328SOL    HW229882   2.675   5.543   1.873
 9329SOL     OW29883  12.027   7.520  10.440
 9329SOL    HW129884  11.935   7.531  10.416
 9329SOL    HW229885  12.075   7.538  10.359
 9330SOL     OW29886   1.211   0.376   5.625
 9330SOL    HW129887   1.174   0.457   5.662
 9330SOL    HW229888   1.161   0.306   5.667
 9331SOL     OW29889   1.750  10.428   4.449
 9331SOL    HW129890   1.656  10.446   4.444
 9331SOL    HW229891   1.778  10.471   4.530
 9332SOL     OW29892  14.579   9.449  11.064
 9332SOL    HW129893  14.556   9.404  11.145
 9332SOL    HW229894  14.554   9.540  11.079
 9333SOL     OW29895   2.654   4.468  14.064
 9333SOL    HW129896   2.657   4.427  14.151
 9333SOL    HW229897   2.705   4.410  14.008
 9334SOL     OW29898   6.251   9.180   5.769
 9334SOL    HW129899   6.204   9.245   5.717
 9334SOL    HW229900   6.344   9.199   5.754
 9335SOL     OW29901  13.487   5.368   8.338
 9335SOL    HW129902  13.460   5.278   8.355
 9335SOL    HW229903  13.582   5.362   8.326
 9336SOL     OW29904   5.975   5.070  12.757
 9336SOL    HW129905   6.032   5.022  12.818
 9336SOL    HW229906   5.998   5.036  12.671
 9337SOL     OW29907   3.970  13.584   2.872
 9337SOL    HW129908   3.954  13.649   2.803
 9337SOL    HW229909   3.920  13.616   2.947
 9338SOL     OW29910   9.267   8.149  14.267
 9338SOL    HW129911   9.296   8.136  14.357
 9338SOL    HW229912   9.220   8.232  14.268
 9339SOL     OW29913   0.984  11.044  13.365
 9339SOL    HW129914   0.978  11.093  13.447
 9339SOL    HW229915   0.945  10.959  13.385
 9340SOL     OW29916  13.755   4.921  13.019
 9340SOL    HW129917  13.775   4.904  12.927
 9340SOL    HW229918  13.660   4.934  13.021
 9341SOL     OW29919   7.764   8.147   8.708
 9341SOL    HW129920   7.766   8.075   8.645
 9341SOL    HW229921   7.690   8.201   8.681
 9342SOL     OW29922   3.227  13.350  12.186
 9342SOL    HW129923   3.244  13.441  12.212
 9342SOL    HW229924   3.159  13.320  12.247
 9343SOL     OW29925  11.903  12.569  10.954
 9343SOL    HW129926  11.955  12.491  10.974
 9343SOL    HW229927  11.915  12.582  10.860
 9344SOL     OW29928  13.657  14.152   8.016
 9344SOL    HW129929  13.668  14.124   7.926
 9344SOL    HW229930  13.715  14.227   8.026
 9345SOL     OW29931  13.955   8.387  13.349
 9345SOL    HW129932  14.048   8.369  13.336
 9345SOL    HW229933  13.913   8.354  13.269
 9346SOL     OW29934   4.485  14.422   7.382
 9346SOL    HW129935   4.400  14.424   7.426
 9346SOL    HW229936   4.510  14.514   7.373
 9347SOL     OW29937   2.560   1.434  14.579
 9347SOL    HW129938   2.632   1.388  14.621
 9347SOL    HW229939   2.503   1.365  14.545
 9348SOL     OW29940   4.525  12.085  10.917
 9348SOL    HW129941   4.508  12.113  11.007
 9348SOL    HW229942   4.464  12.137  10.865
 9349SOL     OW29943   5.227  14.132  10.579
 9349SOL    HW129944   5.228  14.224  10.603
 9349SOL    HW229945   5.319  14.108  10.572
 9350SOL     OW29946   5.660   8.391   4.829
 9350SOL    HW129947   5.710   8.388   4.748
 9350SOL    HW229948   5.702   8.327   4.886
 9351SOL     OW29949   4.017   3.015  11.777
 9351SOL    HW129950   4.044   2.960  11.851
 9351SOL    HW229951   4.094   3.016  11.720
 9352SOL     OW29952   3.916   4.881   9.591
 9352SOL    HW129953   3.951   4.956   9.639
 9352SOL    HW229954   3.957   4.805   9.631
 9353SOL     OW29955   4.279   3.466   6.316
 9353SOL    HW129956   4.190   3.431   6.313
 9353SOL    HW229957   4.334   3.392   6.341
 9354SOL     OW29958  11.489   4.371   6.558
 9354SOL    HW129959  11.530   4.322   6.487
 9354SOL    HW229960  11.483   4.460   6.525
 9355SOL     OW29961   8.339  12.369   4.544
 9355SOL    HW129962   8.394  12.385   4.621
 9355SOL    HW229963   8.389  12.305   4.492
 9356SOL     OW29964   1.020  10.013   7.197
 9356SOL    HW129965   1.081  10.032   7.268
 9356SOL    HW229966   0.934  10.010   7.238
 9357SOL     OW29967  13.131   1.478   1.454
 9357SOL    HW129968  13.051   1.528   1.472
 9357SOL    HW229969  13.101   1.406   1.398
 9358SOL     OW29970   9.484   7.669   9.415
 9358SOL    HW129971   9.471   7.581   9.451
 9358SOL    HW229972   9.516   7.721   9.489
 9359SOL     OW29973   6.901   8.484   0.387
 9359SOL    HW129974   6.931   8.564   0.431
 9359SOL    HW229975   6.861   8.432   0.456
 9360SOL     OW29976   4.066   4.743   4.115
 9360SOL    HW129977   4.034   4.727   4.204
 9360SOL    HW229978   4.133   4.677   4.101
 9361SOL     OW29979  11.995   3.166   3.788
 9361SOL    HW129980  11.950   3.191   3.708
 9361SOL    HW229981  12.036   3.247   3.819
 9362SOL     OW29982  10.813  12.120   2.761
 9362SOL    HW129983  10.813  12.215   2.772
 9362SOL    HW229984  10.879  12.089   2.823
 9363SOL     OW29985   1.823   6.666   9.987
 9363SOL    HW129986   1.753   6.731   9.984
 9363SOL    HW229987   1.836   6.648  10.080
 9364SOL     OW29988   5.767   4.407   7.876
 9364SOL    HW129989   5.809   4.350   7.812
 9364SOL    HW229990   5.837   4.467   7.903
 9365SOL     OW29991   8.005   9.437  13.872
 9365SOL    HW129992   7.934   9.375  13.861
 9365SOL    HW229993   8.042   9.446  13.784
 9366SOL     OW29994  14.031   9.595   3.637
 9366SOL    HW129995  14.017   9.601   3.731
 9366SOL    HW229996  14.124   9.570   3.628
 9367SOL     OW29997  14.235   1.073   0.710
 9367SOL    HW129998  14.326   1.075   0.741
 9367SOL    HW229999  14.242   1.065   0.615
 9368SOL     OW30000   8.372  12.276   9.180
 9368SOL    HW130001   8.347  12.184   9.178
 9368SOL    HW230002   8.457  12.278   9.223
 9369SOL     OW30003   0.221   0.701   1.938
 9369SOL    HW130004   0.257   0.683   2.025
 9369SOL    HW230005   0.285   0.758   1.896
 9370SOL     OW30006   1.013  12.655   5.441
 9370SOL    HW130007   0.931  12.702   5.454
 9370SOL    HW230008   1.016  12.637   5.347
 9371SOL     OW30009   7.612   9.473   1.799
 9371SOL    HW130010   7.562   9.424   1.864
 9371SOL    HW230011   7.690   9.503   1.847
 9372SOL     OW30012   4.159   6.852   0.321
 9372SOL    HW130013   4.134   6.774   0.370
 9372SOL    HW230014   4.234   6.824   0.268
 9373SOL     OW30015   4.146   0.521  12.949
 9373SOL    HW130016   4.054   0.500  12.965
 9373SOL    HW230017   4.193   0.439  12.963
 9374SOL     OW30018  13.885   0.552  11.933
 9374SOL    HW130019  13.827   0.487  11.971
 9374SOL    HW230020  13.886   0.532  11.840
 9375SOL     OW30021  12.274  12.192   3.573
 9375SOL    HW130022  12.341  12.214   3.509
 9375SOL    HW230023  12.323  12.157   3.648
 9376SOL     OW30024   6.298   9.366   8.992
 9376SOL    HW130025   6.379   9.348   9.040
 9376SOL    HW230026   6.289   9.462   8.996
 9377SOL     OW30027   6.216  11.558   0.443
 9377SOL    HW130028   6.188  11.536   0.532
 9377SOL    HW230029   6.148  11.522   0.386
 9378SOL     OW30030  11.444   2.524  11.525
 9378SOL    HW130031  11.520   2.569  11.561
 9378SOL    HW230032  11.372   2.585  11.537
 9379SOL     OW30033   4.652  13.712   5.034
 9379SOL    HW130034   4.560  13.695   5.014
 9379SOL    HW230035   4.666  13.673   5.120
 9380SOL     OW30036   3.980   5.439   0.587
 9380SOL    HW130037   3.967   5.427   0.493
 9380SOL    HW230038   3.949   5.357   0.626
 9381SOL     OW30039   5.019  10.760   7.685
 9381SOL    HW130040   5.061  10.731   7.766
 9381SOL    HW230041   5.080  10.735   7.616
 9382SOL     OW30042  13.805   9.573  11.041
 9382SOL    HW130043  13.732   9.626  11.008
 9382SOL    HW230044  13.865   9.566  10.966
 9383SOL     OW30045   1.239  12.009   8.679
 9383SOL    HW130046   1.307  11.952   8.643
 9383SOL    HW230047   1.263  12.021   8.771
 9384SOL     OW30048   7.566   6.068   6.325
 9384SOL    HW130049   7.588   5.975   6.330
 9384SOL    HW230050   7.620   6.101   6.253
 9385SOL     OW30051   4.583   3.450   8.466
 9385SOL    HW130052   4.554   3.359   8.472
 9385SOL    HW230053   4.542   3.483   8.387
 9386SOL     OW30054   6.451   7.794   8.378
 9386SOL    HW130055   6.539   7.757   8.387
 9386SOL    HW230056   6.449   7.866   8.441
 9387SOL     OW30057   4.199   0.163  10.021
 9387SOL    HW130058   4.172   0.119  10.101
 9387SOL    HW230059   4.119   0.169   9.968
 9388SOL     OW30060   8.425  12.580   4.151
 9388SOL    HW130061   8.427  12.665   4.107
 9388SOL    HW230062   8.346  12.583   4.205
 9389SOL     OW30063   9.262   1.969   8.928
 9389SOL    HW130064   9.205   2.040   8.901
 9389SOL    HW230065   9.347   1.990   8.888
 9390SOL     OW30066   6.914   5.211  13.168
 9390SOL    HW130067   6.890   5.279  13.231
 9390SOL    HW230068   6.898   5.250  13.082
 9391SOL     OW30069   4.788   8.600   4.491
 9391SOL    HW130070   4.722   8.560   4.548
 9391SOL    HW230071   4.870   8.592   4.540
 9392SOL     OW30072  12.840  13.537   3.334
 9392SOL    HW130073  12.861  13.479   3.407
 9392SOL    HW230074  12.902  13.513   3.265
 9393SOL     OW30075  12.160  11.738   7.348
 9393SOL    HW130076  12.108  11.765   7.273
 9393SOL    HW230077  12.127  11.651   7.371
 9394SOL     OW30078  13.853  14.441  14.214
 9394SOL    HW130079  13.876  14.349  14.202
 9394SOL    HW230080  13.790  14.460  14.145
 9395SOL     OW30081  11.492   4.870  11.672
 9395SOL    HW130082  11.544   4.950  11.660
 9395SOL    HW230083  11.404   4.894  11.641
 9396SOL     OW30084  14.371  11.803  11.787
 9396SOL    HW130085  14.373  11.796  11.691
 9396SOL    HW230086  14.456  11.840  11.810
 9397SOL     OW30087  10.907   7.765   3.708
 9397SOL    HW130088  10.941   7.721   3.630
 9397SOL    HW230089  10.819   7.730   3.719
 9398SOL     OW30090   0.878  12.217   7.363
 9398SOL    HW130091   0.811  12.239   7.428
 9398SOL    HW230092   0.834  12.224   7.279
 9399SOL     OW30093   1.442   1.744   7.772
 9399SOL    HW130094   1.531   1.746   7.809
 9399SOL    HW230095   1.430   1.830   7.733
 9400SOL     OW30096  11.454   3.353   7.363
 9400SOL    HW130097  11.510   3.414   7.412
 9400SOL    HW230098  11.365   3.382   7.381
 9401SOL     OW30099   1.053   9.759   4.389
 9401SOL    HW130100   1.049   9.795   4.478
 9401SOL    HW230101   1.146   9.752   4.369
 9402SOL     OW30102   0.417   2.355  12.794
 9402SOL    HW130103   0.478   2.288  12.824
 9402SOL    HW230104   0.439   2.369  12.702
 9403SOL     OW30105   1.502   2.267  13.352
 9403SOL    HW130106   1.439   2.302  13.416
 9403SOL    HW230107   1.541   2.191  13.397
 9404SOL     OW30108   2.986   8.887   2.704
 9404SOL    HW130109   3.066   8.930   2.674
 9404SOL    HW230110   2.967   8.927   2.789
 9405SOL     OW30111   1.315   7.506   8.193
 9405SOL    HW130112   1.348   7.534   8.278
 9405SOL    HW230113   1.298   7.412   8.204
 9406SOL     OW30114   3.398  12.650   8.344
 9406SOL    HW130115   3.329  12.584   8.347
 9406SOL    HW230116   3.377  12.710   8.415
 9407SOL     OW30117   6.715   2.594  12.495
 9407SOL    HW130118   6.625   2.582  12.525
 9407SOL    HW230119   6.757   2.510  12.514
 9408SOL     OW30120   3.932   1.823  10.788
 9408SOL    HW130121   3.847   1.839  10.828
 9408SOL    HW230122   3.984   1.784  10.858
 9409SOL     OW30123  13.022   4.650   4.593
 9409SOL    HW130124  12.963   4.723   4.576
 9409SOL    HW230125  13.078   4.646   4.515
 9410SOL     OW30126   9.897   5.301  13.954
 9410SOL    HW130127   9.916   5.224  13.899
 9410SOL    HW230128   9.977   5.314  14.005
 9411SOL     OW30129  14.464  13.430   8.583
 9411SOL    HW130130  14.545  13.481   8.579
 9411SOL    HW230131  14.438  13.419   8.492
 9412SOL     OW30132  12.640  12.678   9.671
 9412SOL    HW130133  12.588  12.627   9.609
 9412SOL    HW230134  12.718  12.704   9.621
 9413SOL     OW30135   6.086  10.767  10.558
 9413SOL    HW130136   6.051  10.684  10.526
 9413SOL    HW230137   6.021  10.832  10.534
 9414SOL     OW30138   3.096   0.959  11.254
 9414SOL    HW130139   3.140   1.044  11.265
 9414SOL    HW230140   3.064   0.937  11.341
 9415SOL     OW30141   0.680   2.321  11.783
 9415SOL    HW130142   0.622   2.372  11.727
 9415SOL    HW230143   0.631   2.242  11.804
 9416SOL     OW30144  11.796   6.528   2.449
 9416SOL    HW130145  11.717   6.552   2.401
 9416SOL    HW230146  11.867   6.571   2.401
 9417SOL     OW30147  13.344  11.974   4.381
 9417SOL    HW130148  13.372  11.886   4.356
 9417SOL    HW230149  13.324  11.968   4.474
 9418SOL     OW30150   6.394   9.654  14.067
 9418SOL    HW130151   6.307   9.625  14.096
 9418SOL    HW230152   6.379   9.739  14.027
 9419SOL     OW30153   8.481   1.955   8.041
 9419SOL    HW130154   8.527   1.923   8.119
 9419SOL    HW230155   8.391   1.969   8.070
 9420SOL     OW30156   3.103   6.958  11.621
 9420SOL    HW130157   3.171   7.022  11.599
 9420SOL    HW230158   3.063   6.993  11.701
 9421SOL     OW30159   0.269   0.923   2.448
 9421SOL    HW130160   0.333   0.854   2.463
 9421SOL    HW230161   0.288   0.989   2.515
 9422SOL     OW30162   2.832   0.926   3.042
 9422SOL    HW130163   2.899   0.973   3.092
 9422SOL    HW230164   2.855   0.833   3.053
 9423SOL     OW30165  13.500   5.379  10.762
 9423SOL    HW130166  13.456   5.463  10.779
 9423SOL    HW230167  13.560   5.398  10.690
 9424SOL     OW30168   9.886   6.379   6.168
 9424SOL    HW130169   9.931   6.403   6.087
 9424SOL    HW230170   9.898   6.455   6.225
 9425SOL     OW30171  12.120   7.012  12.450
 9425SOL    HW130172  12.144   7.031  12.359
 9425SOL    HW230173  12.030   6.980  12.444
 9426SOL     OW30174   7.865   6.239   7.562
 9426SOL    HW130175   7.955   6.263   7.541
 9426SOL    HW230176   7.860   6.244   7.658
 9427SOL     OW30177   8.991   1.989   0.572
 9427SOL    HW130178   9.044   2.061   0.607
 9427SOL    HW230179   8.990   2.003   0.478
 9428SOL     OW30180   3.950   5.626   6.233
 9428SOL    HW130181   3.895   5.686   6.182
 9428SOL    HW230182   3.927   5.645   6.324
 9429SOL     OW30183   5.466   2.894   5.195
 9429SOL    HW130184   5.560   2.906   5.210
 9429SOL    HW230185   5.425   2.919   5.277
 9430SOL     OW30186  14.534   1.335   4.673
 9430SOL    HW130187  14.495   1.277   4.738
 9430SOL    HW230188  14.463   1.354   4.612
 9431SOL     OW30189  11.604  12.223   4.100
 9431SOL    HW130190  11.568  12.309   4.119
 9431SOL    HW230191  11.565  12.165   4.166
 9432SOL     OW30192   5.065   0.398   4.778
 9432SOL    HW130193   5.101   0.327   4.832
 9432SOL    HW230194   5.007   0.354   4.716
 9433SOL     OW30195   9.438   2.744   1.141
 9433SOL    HW130196   9.424   2.651   1.158
 9433SOL    HW230197   9.530   2.749   1.115
 9434SOL     OW30198   8.785   8.588   1.779
 9434SOL    HW130199   8.806   8.622   1.692
 9434SOL    HW230200   8.691   8.570   1.776
 9435SOL     OW30201   3.005  12.202   9.666
 9435SOL    HW130202   3.100  12.199   9.672
 9435SOL    HW230203   2.977  12.112   9.682
 9436SOL     OW30204   0.342   9.104  10.358
 9436SOL    HW130205   0.273   9.055  10.313
 9436SOL    HW230206   0.371   9.168  10.293
 9437SOL     OW30207  12.818   2.014   8.926
 9437SOL    HW130208  12.723   2.013   8.941
 9437SOL    HW230209  12.835   2.097   8.882
 9438SOL     OW30210  14.567   8.234  13.493
 9438SOL    HW130211  14.525   8.182  13.561
 9438SOL    HW230212  14.508   8.308  13.479
 9439SOL     OW30213   7.899  12.607   8.459
 9439SOL    HW130214   7.846  12.578   8.385
 9439SOL    HW230215   7.979  12.554   8.454
 9440SOL     OW30216   4.917  13.975   3.619
 9440SOL    HW130217   5.012  13.975   3.628
 9440SOL    HW230218   4.901  13.997   3.527
 9441SOL     OW30219   5.655  10.781   2.903
 9441SOL    HW130220   5.728  10.720   2.912
 9441SOL    HW230221   5.654  10.830   2.985
 9442SOL     OW30222   8.538  12.429  11.486
 9442SOL    HW130223   8.507  12.483  11.414
 9442SOL    HW230224   8.505  12.341  11.466
 9443SOL     OW30225  14.485  10.824  14.503
 9443SOL    HW130226  14.459  10.914  14.486
 9443SOL    HW230227  14.559  10.809  14.445
 9444SOL     OW30228  14.560   8.048  14.609
 9444SOL    HW130229  14.644   8.025  14.569
 9444SOL    HW230230  14.501   8.061  14.534
 9445SOL     OW30231   0.227   2.687   5.568
 9445SOL    HW130232   0.194   2.606   5.606
 9445SOL    HW230233   0.211   2.753   5.636
 9446SOL     OW30234   1.176  11.163  10.471
 9446SOL    HW130235   1.259  11.116  10.482
 9446SOL    HW230236   1.131  11.153  10.554
 9447SOL     OW30237   6.827   8.565  14.403
 9447SOL    HW130238   6.897   8.500  14.408
 9447SOL    HW230239   6.871   8.649  14.419
 9448SOL     OW30240   7.088   5.131  12.418
 9448SOL    HW130241   7.050   5.069  12.480
 9448SOL    HW230242   7.034   5.210  12.426
 9449SOL     OW30243   1.918   5.396  13.128
 9449SOL    HW130244   1.909   5.491  13.131
 9449SOL    HW230245   1.880   5.365  13.210
 9450SOL     OW30246  12.637   9.640  12.641
 9450SOL    HW130247  12.560   9.691  12.616
 9450SOL    HW230248  12.607   9.549  12.642
 9451SOL     OW30249   0.237   1.187  10.331
 9451SOL    HW130250   0.176   1.151  10.267
 9451SOL    HW230251   0.314   1.131  10.325
 9452SOL     OW30252   3.769   5.134  12.906
 9452SOL    HW130253   3.688   5.093  12.876
 9452SOL    HW230254   3.756   5.147  13.000
 9453SOL     OW30255   7.591  14.214  12.258
 9453SOL    HW130256   7.645  14.188  12.183
 9453SOL    HW230257   7.652  14.257  12.318
 9454SOL     OW30258   4.661   7.647   2.327
 9454SOL    HW130259   4.708   7.565   2.341
 9454SOL    HW230260   4.569   7.625   2.345
 9455SOL     OW30261   0.408  10.958   5.828
 9455SOL    HW130262   0.383  10.931   5.740
 9455SOL    HW230263   0.355  11.036   5.845
 9456SOL     OW30264  13.206   7.764   8.678
 9456SOL    HW130265  13.213   7.711   8.599
 9456SOL    HW230266  13.183   7.702   8.747
 9457SOL     OW30267   3.201   5.142   2.130
 9457SOL    HW130268   3.292   5.158   2.108
 9457SOL    HW230269   3.185   5.195   2.209
 9458SOL     OW30270  13.200   1.022   3.213
 9458SOL    HW130271  13.260   1.026   3.287
 9458SOL    HW230272  13.242   1.074   3.144
 9459SOL     OW30273  10.809   4.050  10.202
 9459SOL    HW130274  10.804   3.967  10.248
 9459SOL    HW230275  10.754   4.039  10.125
 9460SOL     OW30276   6.369  11.733   3.596
 9460SOL    HW130277   6.344  11.781   3.517
 9460SOL    HW230278   6.398  11.647   3.563
 9461SOL     OW30279  13.978  11.992  12.110
 9461SOL    HW130280  14.027  11.927  12.159
 9461SOL    HW230281  14.009  11.984  12.020
 9462SOL     OW30282   7.410  11.059   4.543
 9462SOL    HW130283   7.356  11.044   4.466
 9462SOL    HW230284   7.378  11.141   4.580
 9463SOL     OW30285   8.331   3.568  13.642
 9463SOL    HW130286   8.421   3.600  13.637
 9463SOL    HW230287   8.287   3.606  13.567
 9464SOL     OW30288   2.200   4.985   5.962
 9464SOL    HW130289   2.270   5.048   5.946
 9464SOL    HW230290   2.132   5.008   5.899
 9465SOL     OW30291   3.391  12.264   2.090
 9465SOL    HW130292   3.451  12.254   2.016
 9465SOL    HW230293   3.321  12.201   2.073
 9466SOL     OW30294   4.605   9.731  14.816
 9466SOL    HW130295   4.626   9.695  14.730
 9466SOL    HW230296   4.616   9.657  14.876
 9467SOL     OW30297   3.447   6.208   4.908
 9467SOL    HW130298   3.378   6.265   4.943
 9467SOL    HW230299   3.404   6.160   4.836
 9468SOL     OW30300   8.150   7.161   0.041
 9468SOL    HW130301   8.154   7.251   0.008
 9468SOL    HW230302   8.067   7.156   0.088
 9469SOL     OW30303   4.865  14.533  12.186
 9469SOL    HW130304   4.916  14.509  12.108
 9469SOL    HW230305   4.927  14.524  12.258
 9470SOL     OW30306  14.364   8.478  12.108
 9470SOL    HW130307  14.456   8.473  12.134
 9470SOL    HW230308  14.346   8.572  12.105
 9471SOL     OW30309   6.104   6.489   1.850
 9471SOL    HW130310   6.166   6.474   1.779
 9471SOL    HW230311   6.111   6.583   1.868
 9472SOL     OW30312   5.443  12.503   1.998
 9472SOL    HW130313   5.460  12.503   2.093
 9472SOL    HW230314   5.475  12.417   1.969
 9473SOL     OW30315  11.905   7.428   4.203
 9473SOL    HW130316  11.956   7.486   4.146
 9473SOL    HW230317  11.916   7.465   4.291
 9474SOL     OW30318  12.969   0.335   8.649
 9474SOL    HW130319  12.966   0.261   8.710
 9474SOL    HW230320  13.056   0.330   8.609
 9475SOL     OW30321   2.783  11.714   4.455
 9475SOL    HW130322   2.852  11.725   4.389
 9475SOL    HW230323   2.806  11.633   4.500
 9476SOL     OW30324  11.876   5.633   4.861
 9476SOL    HW130325  11.787   5.599   4.863
 9476SOL    HW230326  11.866   5.726   4.881
 9477SOL     OW30327  12.075  11.716   4.088
 9477SOL    HW130328  11.984  11.728   4.060
 9477SOL    HW230329  12.079  11.755   4.175
 9478SOL     OW30330  11.271   6.932   8.663
 9478SOL    HW130331  11.280   6.976   8.578
 9478SOL    HW230332  11.203   6.866   8.648
 9479SOL     OW30333   1.781   0.584  12.776
 9479SOL    HW130334   1.832   0.506  12.755
 9479SOL    HW230335   1.811   0.609  12.864
 9480SOL     OW30336   4.657   9.729   6.621
 9480SOL    HW130337   4.717   9.664   6.658
 9480SOL    HW230338   4.620   9.687   6.543
 9481SOL     OW30339   6.378   4.848  11.107
 9481SOL    HW130340   6.384   4.868  11.014
 9481SOL    HW230341   6.459   4.803  11.127
 9482SOL     OW30342   4.536  14.734   7.621
 9482SOL    HW130343   4.475  14.805   7.643
 9482SOL    HW230344   4.500  14.658   7.667
 9483SOL     OW30345   7.623  10.555  13.111
 9483SOL    HW130346   7.624  10.489  13.041
 9483SOL    HW230347   7.714  10.563  13.138
 9484SOL     OW30348   9.203   0.585   3.283
 9484SOL    HW130349   9.189   0.594   3.189
 9484SOL    HW230350   9.192   0.492   3.301
 9485SOL     OW30351   0.731   5.746  10.230
 9485SOL    HW130352   0.794   5.803  10.274
 9485SOL    HW230353   0.784   5.680  10.187
 9486SOL     OW30354   9.372   4.024   5.920
 9486SOL    HW130355   9.305   4.070   5.971
 9486SOL    HW230356   9.335   4.017   5.832
 9487SOL     OW30357   6.165   1.248   4.218
 9487SOL    HW130358   6.232   1.289   4.274
 9487SOL    HW230359   6.172   1.295   4.135
 9488SOL     OW30360  10.229   2.989  12.136
 9488SOL    HW130361  10.254   2.910  12.088
 9488SOL    HW230362  10.255   2.972  12.226
 9489SOL     OW30363   6.998  10.062   7.811
 9489SOL    HW130364   6.961  10.109   7.885
 9489SOL    HW230365   7.060  10.000   7.851
 9490SOL     OW30366  10.735   0.653   9.161
 9490SOL    HW130367  10.677   0.711   9.212
 9490SOL    HW230368  10.719   0.566   9.199
 9491SOL     OW30369  11.330   0.341   6.947
 9491SOL    HW130370  11.380   0.308   7.022
 9491SOL    HW230371  11.390   0.399   6.901
 9492SOL     OW30372  14.798   5.932  10.408
 9492SOL    HW130373  14.736   6.001  10.388
 9492SOL    HW230374  14.875   5.978  10.442
 9493SOL     OW30375  11.600  12.363   0.811
 9493SOL    HW130376  11.659  12.367   0.736
 9493SOL    HW230377  11.512  12.355   0.772
 9494SOL     OW30378   3.398   7.629   6.357
 9494SOL    HW130379   3.432   7.541   6.373
 9494SOL    HW230380   3.365   7.626   6.267
 9495SOL     OW30381   9.060   6.944   4.198
 9495SOL    HW130382   9.061   7.036   4.171
 9495SOL    HW230383   9.128   6.939   4.266
 9496SOL     OW30384   6.617  12.068  13.592
 9496SOL    HW130385   6.645  12.097  13.679
 9496SOL    HW230386   6.564  12.140  13.559
 9497SOL     OW30387   6.175  12.268   4.338
 9497SOL    HW130388   6.203  12.355   4.311
 9497SOL    HW230389   6.250  12.232   4.386
 9498SOL     OW30390  10.238  12.026  13.629
 9498SOL    HW130391  10.181  12.085  13.679
 9498SOL    HW230392  10.216  11.939  13.662
 9499SOL     OW30393   1.722   0.474   7.282
 9499SOL    HW130394   1.632   0.461   7.251
 9499SOL    HW230395   1.724   0.566   7.308
 9500SOL     OW30396   5.365  14.366   6.455
 9500SOL    HW130397   5.443  14.335   6.501
 9500SOL    HW230398   5.344  14.450   6.496
 9501SOL     OW30399  11.835   4.642   4.878
 9501SOL    HW130400  11.851   4.549   4.897
 9501SOL    HW230401  11.867   4.688   4.956
 9502SOL     OW30402   2.133  13.777   6.155
 9502SOL    HW130403   2.088  13.697   6.125
 9502SOL    HW230404   2.190  13.801   6.082
 9503SOL     OW30405   1.320   1.329   2.285
 9503SOL    HW130406   1.270   1.290   2.357
 9503SOL    HW230407   1.391   1.376   2.328
 9504SOL     OW30408   8.121   6.847  10.438
 9504SOL    HW130409   8.120   6.869  10.531
 9504SOL    HW230410   8.028   6.836  10.415
 9505SOL     OW30411   6.203   7.102  11.024
 9505SOL    HW130412   6.139   7.137  10.962
 9505SOL    HW230413   6.232   7.019  10.985
 9506SOL     OW30414   0.328   3.258  10.669
 9506SOL    HW130415   0.404   3.310  10.641
 9506SOL    HW230416   0.352   3.227  10.756
 9507SOL     OW30417   9.064   5.317   8.678
 9507SOL    HW130418   9.064   5.234   8.631
 9507SOL    HW230419   9.140   5.364   8.643
 9508SOL     OW30420   4.404   7.957   8.577
 9508SOL    HW130421   4.392   7.946   8.483
 9508SOL    HW230422   4.328   7.914   8.616
 9509SOL     OW30423   6.144  11.338   7.595
 9509SOL    HW130424   6.119  11.357   7.686
 9509SOL    HW230425   6.161  11.424   7.557
 9510SOL     OW30426   6.740   6.003  10.330
 9510SOL    HW130427   6.787   5.920  10.331
 9510SOL    HW230428   6.660   5.986  10.379
 9511SOL     OW30429  14.610   8.523  10.756
 9511SOL    HW130430  14.521   8.557  10.761
 9511SOL    HW230431  14.604   8.434  10.792
 9512SOL     OW30432  13.393  12.830  14.783
 9512SOL    HW130433  13.396  12.921  14.813
 9512SOL    HW230434  13.316  12.825  14.727
 9513SOL     OW30435   7.601   2.958   6.121
 9513SOL    HW130436   7.512   2.982   6.096
 9513SOL    HW230437   7.594   2.865   6.144
 9514SOL     OW30438   9.095  11.304   6.173
 9514SOL    HW130439   9.016  11.353   6.198
 9514SOL    HW230440   9.069  11.212   6.183
 9515SOL     OW30441   7.995   3.386  12.884
 9515SOL    HW130442   7.909   3.356  12.912
 9515SOL    HW230443   7.984   3.480  12.867
 9516SOL     OW30444   6.879  12.108   2.211
 9516SOL    HW130445   6.953  12.049   2.223
 9516SOL    HW230446   6.816  12.056   2.160
 9517SOL     OW30447  12.103   4.663   3.599
 9517SOL    HW130448  12.016   4.651   3.559
 9517SOL    HW230449  12.123   4.578   3.638
 9518SOL     OW30450   8.967   3.088   5.199
 9518SOL    HW130451   8.874   3.066   5.210
 9518SOL    HW230452   9.014   3.009   5.226
 9519SOL     OW30453   9.091   7.633   3.016
 9519SOL    HW130454   9.164   7.669   2.965
 9519SOL    HW230455   9.039   7.585   2.952
 9520SOL     OW30456   7.295   7.207   6.357
 9520SOL    HW130457   7.379   7.163   6.369
 9520SOL    HW230458   7.252   7.201   6.442
 9521SOL     OW30459   2.750   0.386  10.729
 9521SOL    HW130460   2.685   0.455  10.743
 9521SOL    HW230461   2.830   0.432  10.704
 9522SOL     OW30462   2.616   1.546   8.096
 9522SOL    HW130463   2.583   1.523   8.009
 9522SOL    HW230464   2.592   1.638   8.106
 9523SOL     OW30465  13.438  14.419   1.903
 9523SOL    HW130466  13.468  14.463   1.823
 9523SOL    HW230467  13.413  14.331   1.874
 9524SOL     OW30468   5.776   8.974   5.044
 9524SOL    HW130469   5.765   9.002   5.134
 9524SOL    HW230470   5.832   9.041   5.005
 9525SOL     OW30471   5.071  12.439  11.567
 9525SOL    HW130472   5.027  12.517  11.533
 9525SOL    HW230473   5.164  12.461  11.563
 9526SOL     OW30474   5.633   5.871   1.909
 9526SOL    HW130475   5.694   5.945   1.901
 9526SOL    HW230476   5.679   5.808   1.964
 9527SOL     OW30477   0.293   0.109   7.000
 9527SOL    HW130478   0.370   0.123   7.055
 9527SOL    HW230479   0.321   0.135   6.912
 9528SOL     OW30480  11.816  12.432   9.822
 9528SOL    HW130481  11.738  12.474   9.858
 9528SOL    HW230482  11.875  12.423   9.897
 9529SOL     OW30483  14.309   0.412   0.946
 9529SOL    HW130484  14.314   0.453   0.859
 9529SOL    HW230485  14.396   0.375   0.960
 9530SOL     OW30486   7.887  13.653  12.924
 9530SOL    HW130487   7.800  13.634  12.889
 9530SOL    HW230488   7.945  13.647  12.848
 9531SOL     OW30489  13.275   8.097  10.393
 9531SOL    HW130490  13.222   8.084  10.472
 9531SOL    HW230491  13.231   8.046  10.325
 9532SOL     OW30492  11.584   4.163  12.140
 9532SOL    HW130493  11.517   4.108  12.100
 9532SOL    HW230494  11.556   4.253  12.123
 9533SOL     OW30495   1.592   1.437  12.333
 9533SOL    HW130496   1.535   1.423  12.257
 9533SOL    HW230497   1.605   1.349  12.370
 9534SOL     OW30498   6.004   3.069  12.224
 9534SOL    HW130499   5.918   3.027  12.216
 9534SOL    HW230500   6.045   3.026  12.298
 9535SOL     OW30501   7.124   0.961   0.317
 9535SOL    HW130502   7.152   0.905   0.389
 9535SOL    HW230503   7.033   0.935   0.299
 9536SOL     OW30504   1.387  12.013   0.832
 9536SOL    HW130505   1.333  11.937   0.809
 9536SOL    HW230506   1.444  12.026   0.756
 9537SOL     OW30507   3.114  13.713   1.410
 9537SOL    HW130508   3.107  13.619   1.426
 9537SOL    HW230509   3.181  13.743   1.472
 9538SOL     OW30510  14.226   1.266  12.525
 9538SOL    HW130511  14.142   1.281  12.481
 9538SOL    HW230512  14.210   1.191  12.583
 9539SOL     OW30513   4.838   5.075   1.787
 9539SOL    HW130514   4.886   4.993   1.803
 9539SOL    HW230515   4.906   5.142   1.781
 9540SOL     OW30516   7.034   3.965   0.081
 9540SOL    HW130517   6.982   3.893   0.115
 9540SOL    HW230518   7.047   4.023   0.156
 9541SOL     OW30519  10.388   3.179   4.174
 9541SOL    HW130520  10.339   3.117   4.228
 9541SOL    HW230521  10.479   3.151   4.182
 9542SOL     OW30522   7.810  11.221   0.475
 9542SOL    HW130523   7.834  11.200   0.385
 9542SOL    HW230524   7.803  11.136   0.518
 9543SOL     OW30525   5.519   7.144   6.249
 9543SOL    HW130526   5.566   7.225   6.271
 9543SOL    HW230527   5.489   7.158   6.159
 9544SOL     OW30528   6.059   9.683   3.720
 9544SOL    HW130529   6.079   9.757   3.777
 9544SOL    HW230530   6.141   9.632   3.718
 9545SOL     OW30531   9.442   1.925  12.007
 9545SOL    HW130532   9.377   1.951  12.073
 9545SOL    HW230533   9.523   1.914  12.056
 9546SOL     OW30534   2.577   8.606   8.097
 9546SOL    HW130535   2.563   8.648   8.182
 9546SOL    HW230536   2.556   8.513   8.113
 9547SOL     OW30537   0.925   1.690   3.442
 9547SOL    HW130538   0.978   1.702   3.520
 9547SOL    HW230539   0.844   1.735   3.460
 9548SOL     OW30540   1.604  12.308   5.678
 9548SOL    HW130541   1.631  12.393   5.642
 9548SOL    HW230542   1.652  12.244   5.625
 9549SOL     OW30543   9.243   9.947  11.690
 9549SOL    HW130544   9.329   9.978  11.719
 9549SOL    HW230545   9.202  10.024  11.652
 9550SOL     OW30546   4.563   6.856   9.694
 9550SOL    HW130547   4.500   6.865   9.765
 9550SOL    HW230548   4.515   6.809   9.626
 9551SOL     OW30549   6.285   3.403   3.996
 9551SOL    HW130550   6.323   3.326   3.953
 9551SOL    HW230551   6.344   3.475   3.972
 9552SOL     OW30552   6.069   0.809  13.856
 9552SOL    HW130553   6.110   0.807  13.942
 9552SOL    HW230554   6.048   0.717  13.837
 9553SOL     OW30555   0.556   5.336   5.855
 9553SOL    HW130556   0.638   5.317   5.809
 9553SOL    HW230557   0.573   5.418   5.901
 9554SOL     OW30558  13.300   7.440   9.990
 9554SOL    HW130559  13.262   7.445   9.902
 9554SOL    HW230560  13.365   7.369   9.983
 9555SOL     OW30561   7.199   8.567   9.810
 9555SOL    HW130562   7.196   8.496   9.745
 9555SOL    HW230563   7.267   8.539   9.872
 9556SOL     OW30564  12.236   1.311  11.701
 9556SOL    HW130565  12.167   1.304  11.635
 9556SOL    HW230566  12.305   1.361  11.659
 9557SOL     OW30567  10.008   4.243   5.810
 9557SOL    HW130568   9.974   4.162   5.849
 9557SOL    HW230569  10.078   4.270   5.870
 9558SOL     OW30570  12.666   1.863   2.624
 9558SOL    HW130571  12.633   1.790   2.572
 9558SOL    HW230572  12.741   1.827   2.671
 9559SOL     OW30573  14.620   8.431   7.622
 9559SOL    HW130574  14.571   8.480   7.556
 9559SOL    HW230575  14.712   8.451   7.603
 9560SOL     OW30576  11.606  11.669   3.049
 9560SOL    HW130577  11.637  11.756   3.027
 9560SOL    HW230578  11.604  11.667   3.144
 9561SOL     OW30579  14.389   4.709   6.430
 9561SOL    HW130580  14.387   4.713   6.526
 9561SOL    HW230581  14.471   4.664   6.409
 9562SOL     OW30582   5.117   4.029   3.818
 9562SOL    HW130583   5.081   4.117   3.831
 9562SOL    HW230584   5.161   4.034   3.733
 9563SOL     OW30585   8.234   2.853   7.715
 9563SOL    HW130586   8.330   2.845   7.716
 9563SOL    HW230587   8.218   2.946   7.697
 9564SOL     OW30588   6.127   9.569   7.399
 9564SOL    HW130589   6.196   9.504   7.386
 9564SOL    HW230590   6.161   9.649   7.360
 9565SOL     OW30591   3.879  10.504   9.131
 9565SOL    HW130592   3.891  10.587   9.084
 9565SOL    HW230593   3.966  10.483   9.165
 9566SOL     OW30594   5.439   6.546   4.855
 9566SOL    HW130595   5.377   6.556   4.928
 9566SOL    HW230596   5.483   6.631   4.850
 9567SOL     OW30597  12.585   0.036   4.478
 9567SOL    HW130598  12.507   0.081   4.445
 9567SOL    HW230599  12.629   0.101   4.533
 9568SOL     OW30600  11.533   5.463  13.226
 9568SOL    HW130601  11.614   5.438  13.182
 9568SOL    HW230602  11.472   5.392  13.205
 9569SOL     OW30603  12.784  12.658  13.471
 9569SOL    HW130604  12.813  12.740  13.509
 9569SOL    HW230605  12.748  12.608  13.544
 9570SOL     OW30606   7.901   5.780   5.237
 9570SOL    HW130607   7.856   5.862   5.216
 9570SOL    HW230608   7.842   5.734   5.296
 9571SOL     OW30609  13.632   9.780   0.927
 9571SOL    HW130610  13.710   9.776   0.872
 9571SOL    HW230611  13.621   9.873   0.947
 9572SOL     OW30612   1.857   0.255   7.203
 9572SOL    HW130613   1.800   0.320   7.244
 9572SOL    HW230614   1.908   0.220   7.275
 9573SOL     OW30615   8.058   2.497   0.370
 9573SOL    HW130616   8.150   2.510   0.395
 9573SOL    HW230617   8.050   2.545   0.287
 9574SOL     OW30618   8.720   2.855   1.351
 9574SOL    HW130619   8.779   2.893   1.286
 9574SOL    HW230620   8.657   2.925   1.370
 9575SOL     OW30621   7.100   2.219   0.274
 9575SOL    HW130622   7.092   2.124   0.279
 9575SOL    HW230623   7.108   2.247   0.365
 9576SOL     OW30624  11.348   6.051  10.574
 9576SOL    HW130625  11.361   6.029  10.666
 9576SOL    HW230626  11.325   5.967  10.532
 9577SOL     OW30627  12.858   7.645   1.726
 9577SOL    HW130628  12.832   7.599   1.806
 9577SOL    HW230629  12.825   7.733   1.737
 9578SOL     OW30630  13.564   2.952   9.750
 9578SOL    HW130631  13.595   2.910   9.830
 9578SOL    HW230632  13.638   2.948   9.690
 9579SOL     OW30633   9.208   2.686   5.861
 9579SOL    HW130634   9.126   2.659   5.903
 9579SOL    HW230635   9.236   2.763   5.911
 9580SOL     OW30636  11.469   0.202   4.170
 9580SOL    HW130637  11.557   0.204   4.132
 9580SOL    HW230638  11.413   0.173   4.098
 9581SOL     OW30639   5.286   4.002   2.756
 9581SOL    HW130640   5.225   3.937   2.791
 9581SOL    HW230641   5.369   3.954   2.746
 9582SOL     OW30642   2.124   5.709   7.231
 9582SOL    HW130643   2.120   5.775   7.162
 9582SOL    HW230644   2.098   5.756   7.310
 9583SOL     OW30645   1.787   5.995   5.848
 9583SOL    HW130646   1.882   6.004   5.842
 9583SOL    HW230647   1.774   5.931   5.918
 9584SOL     OW30648  10.363   3.874   3.886
 9584SOL    HW130649  10.323   3.961   3.890
 9584SOL    HW230650  10.346   3.844   3.796
 9585SOL     OW30651   3.964   2.957   1.509
 9585SOL    HW130652   4.051   2.923   1.531
 9585SOL    HW230653   3.906   2.918   1.575
 9586SOL     OW30654  12.786  12.115   0.354
 9586SOL    HW130655  12.712  12.175   0.350
 9586SOL    HW230656  12.778  12.072   0.439
 9587SOL     OW30657   2.069  12.141  14.882
 9587SOL    HW130658   2.057  12.228  14.845
 9587SOL    HW230659   2.152  12.111  14.846
 9588SOL     OW30660   1.029  13.311   0.232
 9588SOL    HW130661   0.984  13.389   0.199
 9588SOL    HW230662   1.038  13.255   0.155
 9589SOL     OW30663   0.303  11.089   7.846
 9589SOL    HW130664   0.334  11.001   7.823
 9589SOL    HW230665   0.370  11.123   7.905
 9590SOL     OW30666  10.076   5.498   2.391
 9590SOL    HW130667  10.010   5.549   2.344
 9590SOL    HW230668  10.156   5.509   2.339
 9591SOL     OW30669  12.598   6.875  11.891
 9591SOL    HW130670  12.518   6.822  11.886
 9591SOL    HW230671  12.568   6.965  11.885
 9592SOL     OW30672   1.091   5.179   1.541
 9592SOL    HW130673   1.162   5.115   1.535
 9592SOL    HW230674   1.070   5.183   1.634
 9593SOL     OW30675  12.774   8.163  12.140
 9593SOL    HW130676  12.761   8.237  12.080
 9593SOL    HW230677  12.689   8.148  12.179
 9594SOL     OW30678   5.532   7.800   3.850
 9594SOL    HW130679   5.617   7.842   3.841
 9594SOL    HW230680   5.472   7.856   3.801
 9595SOL     OW30681   9.997   5.350   4.306
 9595SOL    HW130682   9.945   5.359   4.227
 9595SOL    HW230683  10.011   5.439   4.337
 9596SOL     OW30684   7.463   5.746   1.321
 9596SOL    HW130685   7.392   5.683   1.313
 9596SOL    HW230686   7.542   5.697   1.300
 9597SOL     OW30687  14.038   6.300   3.879
 9597SOL    HW130688  14.121   6.253   3.873
 9597SOL    HW230689  14.055   6.384   3.835
 9598SOL     OW30690  10.202   0.354   5.960
 9598SOL    HW130691  10.231   0.394   5.878
 9598SOL    HW230692  10.126   0.406   5.986
 9599SOL     OW30693  12.770   4.032  11.519
 9599SOL    HW130694  12.790   4.123  11.537
 9599SOL    HW230695  12.845   4.000  11.468
 9600SOL     OW30696   6.677   5.030   2.380
 9600SOL    HW130697   6.667   4.978   2.460
 9600SOL    HW230698   6.722   4.972   2.319
 9601SOL     OW30699   3.664  12.190   8.783
 9601SOL    HW130700   3.627  12.115   8.830
 9601SOL    HW230701   3.590  12.226   8.734
 9602SOL     OW30702   3.964  12.196  12.725
 9602SOL    HW130703   4.038  12.218  12.782
 9602SOL    HW230704   3.902  12.150  12.782
 9603SOL     OW30705  12.625  12.382   0.757
 9603SOL    HW130706  12.618  12.476   0.768
 9603SOL    HW230707  12.535  12.352   0.742
 9604SOL     OW30708   5.626  10.638  10.733
 9604SOL    HW130709   5.704  10.593  10.765
 9604SOL    HW230710   5.660  10.713  10.684
 9605SOL     OW30711  11.961   2.520   4.754
 9605SOL    HW130712  12.052   2.499   4.731
 9605SOL    HW230713  11.953   2.614   4.735
 9606SOL     OW30714   5.840  10.772   0.969
 9606SOL    HW130715   5.820  10.817   0.888
 9606SOL    HW230716   5.825  10.679   0.949
 9607SOL     OW30717  12.699   5.999   1.365
 9607SOL    HW130718  12.617   6.039   1.336
 9607SOL    HW230719  12.766   6.039   1.310
 9608SOL     OW30720   3.047   5.930   2.108
 9608SOL    HW130721   3.012   5.857   2.058
 9608SOL    HW230722   3.020   5.913   2.198
 9609SOL     OW30723  14.552   8.825   7.968
 9609SOL    HW130724  14.488   8.797   7.902
 9609SOL    HW230725  14.635   8.789   7.937
 9610SOL     OW30726  10.472  10.984   1.613
 9610SOL    HW130727  10.497  10.904   1.660
 9610SOL    HW230728  10.484  10.962   1.520
 9611SOL     OW30729   7.621  13.501   4.018
 9611SOL    HW130730   7.580  13.571   4.070
 9611SOL    HW230731   7.665  13.547   3.946
 9612SOL     OW30732  10.355  12.604   6.665
 9612SOL    HW130733  10.343  12.560   6.750
 9612SOL    HW230734  10.409  12.681   6.685
 9613SOL     OW30735   0.034  13.274  10.585
 9613SOL    HW130736   0.052  13.185  10.616
 9613SOL    HW230737   0.061  13.330  10.657
 9614SOL     OW30738   1.234   7.084   3.025
 9614SOL    HW130739   1.175   7.008   3.028
 9614SOL    HW230740   1.191   7.145   2.966
 9615SOL     OW30741   3.969   9.123  10.420
 9615SOL    HW130742   3.955   9.177  10.342
 9615SOL    HW230743   3.993   9.037  10.387
 9616SOL     OW30744  14.652   9.061  10.917
 9616SOL    HW130745  14.679   9.152  10.910
 9616SOL    HW230746  14.635   9.034  10.827
 9617SOL     OW30747   4.038   8.380   6.440
 9617SOL    HW130748   4.132   8.365   6.442
 9617SOL    HW230749   4.023   8.448   6.507
 9618SOL     OW30750  13.422  10.206  13.493
 9618SOL    HW130751  13.491  10.190  13.428
 9618SOL    HW230752  13.416  10.301  13.498
 9619SOL     OW30753   7.558   2.217   6.732
 9619SOL    HW130754   7.485   2.172   6.774
 9619SOL    HW230755   7.566   2.300   6.780
 9620SOL     OW30756   7.267  11.438   7.720
 9620SOL    HW130757   7.213  11.396   7.786
 9620SOL    HW230758   7.209  11.449   7.645
 9621SOL     OW30759   8.173  11.730   3.833
 9621SOL    HW130760   8.212  11.654   3.789
 9621SOL    HW230761   8.091  11.697   3.870
 9622SOL     OW30762   1.437   9.079   5.362
 9622SOL    HW130763   1.413   9.016   5.430
 9622SOL    HW230764   1.452   9.025   5.284
 9623SOL     OW30765   5.496   8.298   6.680
 9623SOL    HW130766   5.569   8.278   6.739
 9623SOL    HW230767   5.437   8.352   6.733
 9624SOL     OW30768   6.968   7.925   2.809
 9624SOL    HW130769   7.030   7.995   2.791
 9624SOL    HW230770   7.022   7.855   2.847
 9625SOL     OW30771  10.937   4.837  14.415
 9625SOL    HW130772  10.956   4.757  14.463
 9625SOL    HW230773  11.009   4.846  14.352
 9626SOL     OW30774   8.336   8.265  10.900
 9626SOL    HW130775   8.331   8.297  10.810
 9626SOL    HW230776   8.420   8.220  10.905
 9627SOL     OW30777   8.172   7.226  14.438
 9627SOL    HW130778   8.177   7.166  14.363
 9627SOL    HW230779   8.103   7.189  14.493
 9628SOL     OW30780   4.577  11.427   6.280
 9628SOL    HW130781   4.563  11.475   6.362
 9628SOL    HW230782   4.559  11.336   6.302
 9629SOL     OW30783   0.431   4.968  11.917
 9629SOL    HW130784   0.504   4.998  11.971
 9629SOL    HW230785   0.438   5.019  11.837
 9630SOL     OW30786   5.302   9.335   2.954
 9630SOL    HW130787   5.325   9.411   2.900
 9630SOL    HW230788   5.367   9.337   3.025
 9631SOL     OW30789   8.653   7.904   7.529
 9631SOL    HW130790   8.645   7.810   7.540
 9631SOL    HW230791   8.703   7.915   7.448
 9632SOL     OW30792   1.358   5.763  11.474
 9632SOL    HW130793   1.359   5.855  11.500
 9632SOL    HW230794   1.413   5.718  11.539
 9633SOL     OW30795   1.763  11.867  13.189
 9633SOL    HW130796   1.785  11.793  13.132
 9633SOL    HW230797   1.715  11.928  13.133
 9634SOL     OW30798   9.445  10.198  12.185
 9634SOL    HW130799   9.373  10.261  12.182
 9634SOL    HW230800   9.515  10.239  12.134
 9635SOL     OW30801  13.887   7.634   4.882
 9635SOL    HW130802  13.938   7.631   4.801
 9635SOL    HW230803  13.924   7.564   4.936
 9636SOL     OW30804   7.862   6.582   6.606
 9636SOL    HW130805   7.852   6.666   6.650
 9636SOL    HW230806   7.868   6.518   6.677
 9637SOL     OW30807   4.296   8.409   2.970
 9637SOL    HW130808   4.279   8.333   2.914
 9637SOL    HW230809   4.285   8.484   2.913
 9638SOL     OW30810  13.800   4.818   9.370
 9638SOL    HW130811  13.803   4.903   9.326
 9638SOL    HW230812  13.892   4.792   9.379
 9639SOL     OW30813  11.071  11.908  14.188
 9639SOL    HW130814  11.113  11.973  14.244
 9639SOL    HW230815  11.117  11.826  14.208
 9640SOL     OW30816   5.331   8.605   4.879
 9640SOL    HW130817   5.405   8.568   4.926
 9640SOL    HW230818   5.320   8.549   4.803
 9641SOL     OW30819  12.790   3.313  13.405
 9641SOL    HW130820  12.782   3.322  13.500
 9641SOL    HW230821  12.702   3.328  13.371
 9642SOL     OW30822   7.583   4.562   0.156
 9642SOL    HW130823   7.597   4.656   0.145
 9642SOL    HW230824   7.658   4.521   0.111
 9643SOL     OW30825  14.007   5.832  14.665
 9643SOL    HW130826  13.998   5.737  14.664
 9643SOL    HW230827  14.063   5.851  14.740
 9644SOL     OW30828   8.348   6.189   4.593
 9644SOL    HW130829   8.358   6.259   4.658
 9644SOL    HW230830   8.256   6.164   4.599
 9645SOL     OW30831   2.398   3.575  10.246
 9645SOL    HW130832   2.318   3.623  10.226
 9645SOL    HW230833   2.455   3.639  10.289
 9646SOL     OW30834   4.953  10.746  11.204
 9646SOL    HW130835   4.982  10.767  11.115
 9646SOL    HW230836   4.870  10.701  11.192
 9647SOL     OW30837   1.061   7.704   3.983
 9647SOL    HW130838   1.055   7.610   3.966
 9647SOL    HW230839   1.083   7.743   3.898
 9648SOL     OW30840  10.445  12.362  13.801
 9648SOL    HW130841  10.511  12.294  13.813
 9648SOL    HW230842  10.425  12.360  13.707
 9649SOL     OW30843   8.230   8.296  13.700
 9649SOL    HW130844   8.182   8.375  13.674
 9649SOL    HW230845   8.192   8.271  13.784
 9650SOL     OW30846   0.824   1.445   4.938
 9650SOL    HW130847   0.795   1.447   5.029
 9650SOL    HW230848   0.870   1.362   4.929
 9651SOL     OW30849   6.700  13.935  12.415
 9651SOL    HW130850   6.746  13.852  12.418
 9651SOL    HW230851   6.709  13.971  12.503
 9652SOL     OW30852  12.430   9.487  12.215
 9652SOL    HW130853  12.429   9.551  12.144
 9652SOL    HW230854  12.505   9.430  12.194
 9653SOL     OW30855   4.071  10.140   8.266
 9653SOL    HW130856   4.064  10.069   8.330
 9653SOL    HW230857   4.034  10.217   8.310
 9654SOL     OW30858   3.736  12.112   7.821
 9654SOL    HW130859   3.778  12.189   7.858
 9654SOL    HW230860   3.786  12.038   7.855
 9655SOL     OW30861   7.470   7.669   6.439
 9655SOL    HW130862   7.558   7.658   6.403
 9655SOL    HW230863   7.473   7.755   6.482
 9656SOL     OW30864   5.577   6.039   1.107
 9656SOL    HW130865   5.644   6.019   1.173
 9656SOL    HW230866   5.518   6.100   1.152
 9657SOL     OW30867   4.282   7.464   1.958
 9657SOL    HW130868   4.273   7.425   2.045
 9657SOL    HW230869   4.193   7.462   1.923
 9658SOL     OW30870   9.209   9.516   8.125
 9658SOL    HW130871   9.296   9.549   8.105
 9658SOL    HW230872   9.215   9.489   8.217
 9659SOL     OW30873  10.852   8.135  13.125
 9659SOL    HW130874  10.935   8.176  13.149
 9659SOL    HW230875  10.787   8.204  13.139
 9660SOL     OW30876   3.527   6.104  13.246
 9660SOL    HW130877   3.556   6.014  13.235
 9660SOL    HW230878   3.455   6.115  13.183
 9661SOL     OW30879  13.701  14.264   1.620
 9661SOL    HW130880  13.701  14.222   1.534
 9661SOL    HW230881  13.793  14.273   1.643
 9662SOL     OW30882   9.969  10.247  11.520
 9662SOL    HW130883   9.947  10.303  11.595
 9662SOL    HW230884  10.049  10.202  11.547
 9663SOL     OW30885   9.937   9.467  11.534
 9663SOL    HW130886   9.902   9.433  11.616
 9663SOL    HW230887  10.016   9.416  11.518
 9664SOL     OW30888  10.197  12.749   9.824
 9664SOL    HW130889  10.268  12.808   9.849
 9664SOL    HW230890  10.120  12.806   9.815
 9665SOL     OW30891   5.566   5.963  12.350
 9665SOL    HW130892   5.520   6.039  12.386
 9665SOL    HW230893   5.570   5.979  12.256
 9666SOL     OW30894   0.476   6.877   9.595
 9666SOL    HW130895   0.387   6.906   9.576
 9666SOL    HW230896   0.529   6.913   9.525
 9667SOL     OW30897   1.749   6.614   4.865
 9667SOL    HW130898   1.784   6.606   4.776
 9667SOL    HW230899   1.655   6.599   4.856
 9668SOL     OW30900   5.133  12.296   8.060
 9668SOL    HW130901   5.081  12.307   7.980
 9668SOL    HW230902   5.069  12.273   8.127
 9669SOL     OW30903  11.355   5.239  14.633
 9669SOL    HW130904  11.310   5.259  14.714
 9669SOL    HW230905  11.360   5.322  14.586
 9670SOL     OW30906   9.761   4.050   7.034
 9670SOL    HW130907   9.750   4.145   7.028
 9670SOL    HW230908   9.674   4.014   7.016
 9671SOL     OW30909  10.746   6.788   9.675
 9671SOL    HW130910  10.730   6.800   9.769
 9671SOL    HW230911  10.838   6.762   9.670
 9672SOL     OW30912  12.060   6.138   9.859
 9672SOL    HW130913  12.037   6.046   9.846
 9672SOL    HW230914  12.005   6.167   9.932
 9673SOL     OW30915   3.517   5.364  12.812
 9673SOL    HW130916   3.603   5.324  12.822
 9673SOL    HW230917   3.523   5.447  12.859
 9674SOL     OW30918   1.653  10.288  10.326
 9674SOL    HW130919   1.662  10.205  10.373
 9674SOL    HW230920   1.658  10.355  10.394
 9675SOL     OW30921   3.057  11.523  10.382
 9675SOL    HW130922   3.037  11.612  10.355
 9675SOL    HW230923   2.993  11.503  10.450
 9676SOL     OW30924   2.517  11.213   0.563
 9676SOL    HW130925   2.441  11.179   0.515
 9676SOL    HW230926   2.580  11.141   0.563
 9677SOL     OW30927   6.145   8.749   8.273
 9677SOL    HW130928   6.176   8.706   8.193
 9677SOL    HW230929   6.128   8.839   8.247
 9678SOL     OW30930   3.422   3.855  12.974
 9678SOL    HW130931   3.414   3.845  12.880
 9678SOL    HW230932   3.511   3.889  12.987
 9679SOL     OW30933   8.525   1.673   4.416
 9679SOL    HW130934   8.564   1.760   4.429
 9679SOL    HW230935   8.431   1.688   4.418
 9680SOL     OW30936  12.849   9.218   8.807
 9680SOL    HW130937  12.836   9.263   8.724
 9680SOL    HW230938  12.929   9.167   8.795
 9681SOL     OW30939   5.553  11.557   1.565
 9681SOL    HW130940   5.497  11.609   1.623
 9681SOL    HW230941   5.575  11.479   1.616
 9682SOL     OW30942   8.867   5.493   8.107
 9682SOL    HW130943   8.777   5.470   8.083
 9682SOL    HW230944   8.920   5.466   8.032
 9683SOL     OW30945   9.482   9.341   2.836
 9683SOL    HW130946   9.389   9.342   2.857
 9683SOL    HW230947   9.510   9.252   2.854
 9684SOL     OW30948   9.617   9.283   3.891
 9684SOL    HW130949   9.696   9.262   3.842
 9684SOL    HW230950   9.647   9.343   3.960
 9685SOL     OW30951  12.413   5.978   9.311
 9685SOL    HW130952  12.385   5.984   9.219
 9685SOL    HW230953  12.505   6.006   9.309
 9686SOL     OW30954   6.124   2.176  12.015
 9686SOL    HW130955   6.074   2.247  12.056
 9686SOL    HW230956   6.172   2.136  12.087
 9687SOL     OW30957   6.467  12.647  11.156
 9687SOL    HW130958   6.538  12.705  11.133
 9687SOL    HW230959   6.463  12.583  11.085
 9688SOL     OW30960  11.328   9.572   9.593
 9688SOL    HW130961  11.313   9.483   9.626
 9688SOL    HW230962  11.353   9.622   9.670
 9689SOL     OW30963  14.550   3.487  11.077
 9689SOL    HW130964  14.538   3.559  11.138
 9689SOL    HW230965  14.540   3.408  11.130
 9690SOL     OW30966   6.233   9.421   3.867
 9690SOL    HW130967   6.272   9.449   3.950
 9690SOL    HW230968   6.271   9.480   3.802
 9691SOL     OW30969  10.687   2.558   3.456
 9691SOL    HW130970  10.685   2.621   3.528
 9691SOL    HW230971  10.729   2.481   3.493
 9692SOL     OW30972  14.300   5.127   9.805
 9692SOL    HW130973  14.319   5.201   9.863
 9692SOL    HW230974  14.280   5.054   9.864
 9693SOL     OW30975   5.269   0.145   1.902
 9693SOL    HW130976   5.352   0.125   1.858
 9693SOL    HW230977   5.260   0.240   1.894
 9694SOL     OW30978   9.271   3.738   8.804
 9694SOL    HW130979   9.183   3.706   8.784
 9694SOL    HW230980   9.257   3.829   8.831
 9695SOL     OW30981  11.740   4.850  11.975
 9695SOL    HW130982  11.803   4.908  12.020
 9695SOL    HW230983  11.656   4.893  11.987
 9696SOL     OW30984  12.774   8.133   3.638
 9696SOL    HW130985  12.769   8.190   3.561
 9696SOL    HW230986  12.859   8.152   3.677
 9697SOL     OW30987  13.613   1.830   4.942
 9697SOL    HW130988  13.684   1.774   4.973
 9697SOL    HW230989  13.622   1.830   4.847
 9698SOL     OW30990   8.669   2.279   5.400
 9698SOL    HW130991   8.751   2.269   5.449
 9698SOL    HW230992   8.670   2.207   5.337
 9699SOL     OW30993   5.208  10.893  12.881
 9699SOL    HW130994   5.204  10.799  12.900
 9699SOL    HW230995   5.125  10.912  12.837
 9700SOL     OW30996   4.497   8.305  14.094
 9700SOL    HW130997   4.412   8.337  14.122
 9700SOL    HW230998   4.541   8.281  14.175
 9701SOL     OW30999   5.321   2.805   6.249
 9701SOL    HW131000   5.242   2.806   6.195
 9701SOL    HW231001   5.380   2.745   6.203
 9702SOL     OW31002   1.843   1.167   4.815
 9702SOL    HW131003   1.780   1.206   4.875
 9702SOL    HW231004   1.789   1.131   4.744
 9703SOL     OW31005   5.825   4.962   7.732
 9703SOL    HW131006   5.773   5.009   7.667
 9703SOL    HW231007   5.905   4.938   7.686
 9704SOL     OW31008   5.041   8.778  14.158
 9704SOL    HW131009   5.054   8.800  14.251
 9704SOL    HW231010   4.955   8.813  14.137
 9705SOL     OW31011   1.874   1.507   8.904
 9705SOL    HW131012   1.827   1.462   8.974
 9705SOL    HW231013   1.813   1.575   8.874
 9706SOL     OW31014  11.554   9.026   3.859
 9706SOL    HW131015  11.546   9.112   3.901
 9706SOL    HW231016  11.513   9.038   3.773
 9707SOL     OW31017   5.695  14.818   4.535
 9707SOL    HW131018   5.692  14.755   4.464
 9707SOL    HW231019   5.694   0.021   4.492
 9708SOL     OW31020  14.318   5.295  12.477
 9708SOL    HW131021  14.324   5.389  12.460
 9708SOL    HW231022  14.329   5.287  12.572
 9709SOL     OW31023   2.352   8.132  11.555
 9709SOL    HW131024   2.373   8.184  11.478
 9709SOL    HW231025   2.402   8.051  11.544
 9710SOL     OW31026  14.740   1.143   6.131
 9710SOL    HW131027  14.663   1.198   6.142
 9710SOL    HW231028  14.786   1.180   6.056
 9711SOL     OW31029  10.325   2.503  10.207
 9711SOL    HW131030  10.262   2.499  10.136
 9711SOL    HW231031  10.411   2.497  10.164
 9712SOL     OW31032   3.381   7.410  10.169
 9712SOL    HW131033   3.393   7.504  10.157
 9712SOL    HW231034   3.467   7.379  10.198
 9713SOL     OW31035  14.015  12.513   6.217
 9713SOL    HW131036  14.036  12.455   6.143
 9713SOL    HW231037  13.935  12.558   6.190
 9714SOL     OW31038   3.751   0.666   7.445
 9714SOL    HW131039   3.721   0.583   7.483
 9714SOL    HW231040   3.671   0.710   7.418
 9715SOL     OW31041   2.185   6.988  10.033
 9715SOL    HW131042   2.177   7.083  10.031
 9715SOL    HW231043   2.127   6.957   9.963
 9716SOL     OW31044   1.030   2.699  10.754
 9716SOL    HW131045   0.988   2.717  10.838
 9716SOL    HW231046   1.118   2.735  10.762
 9717SOL     OW31047  14.588   2.844   4.604
 9717SOL    HW131048  14.649   2.864   4.675
 9717SOL    HW231049  14.534   2.773   4.639
 9718SOL     OW31050   1.586  14.633   8.171
 9718SOL    HW131051   1.639  14.613   8.248
 9718SOL    HW231052   1.584  14.551   8.121
 9719SOL     OW31053   6.762   4.550  11.830
 9719SOL    HW131054   6.672   4.575  11.853
 9719SOL    HW231055   6.757   4.528  11.737
 9720SOL     OW31056   6.427   5.263  12.037
 9720SOL    HW131057   6.403   5.349  12.073
 9720SOL    HW231058   6.345   5.227  12.004
 9721SOL     OW31059   8.576   7.213  14.417
 9721SOL    HW131060   8.614   7.173  14.339
 9721SOL    HW231061   8.576   7.144  14.483
 9722SOL     OW31062  10.982   6.990   3.071
 9722SOL    HW131063  11.010   7.039   3.149
 9722SOL    HW231064  11.062   6.948   3.039
 9723SOL     OW31065   6.720   6.458  14.128
 9723SOL    HW131066   6.633   6.424  14.148
 9723SOL    HW231067   6.774   6.431  14.203
 9724SOL     OW31068   4.824  13.787   4.873
 9724SOL    HW131069   4.904  13.737   4.857
 9724SOL    HW231070   4.774  13.733   4.934
 9725SOL     OW31071  12.455   2.995   2.460
 9725SOL    HW131072  12.361   2.996   2.440
 9725SOL    HW231073  12.465   2.923   2.522
 9726SOL     OW31074   4.909  10.277   2.245
 9726SOL    HW131075   4.954  10.334   2.307
 9726SOL    HW231076   4.851  10.336   2.196
 9727SOL     OW31077  10.352  13.228   7.728
 9727SOL    HW131078  10.292  13.292   7.765
 9727SOL    HW231079  10.429  13.279   7.702
 9728SOL     OW31080  13.473   3.103   9.011
 9728SOL    HW131081  13.457   3.112   9.105
 9728SOL    HW231082  13.432   3.019   8.988
 9729SOL     OW31083   4.742   4.933   0.474
 9729SOL    HW131084   4.773   4.899   0.390
 9729SOL    HW231085   4.697   5.014   0.452
 9730SOL     OW31086   5.021   2.604   1.344
 9730SOL    HW131087   5.008   2.661   1.420
 9730SOL    HW231088   5.010   2.661   1.268
 9731SOL     OW31089   9.570   0.568   6.975
 9731SOL    HW131090   9.583   0.482   6.935
 9731SOL    HW231091   9.652   0.615   6.958
 9732SOL     OW31092  10.343  10.959  11.260
 9732SOL    HW131093  10.249  10.978  11.266
 9732SOL    HW231094  10.353  10.874  11.302
 9733SOL     OW31095  14.482  13.657  14.818
 9733SOL    HW131096  14.519  13.743  14.837
 9733SOL    HW231097  14.555  13.608  14.780
 9734SOL     OW31098   0.990   1.691  11.439
 9734SOL    HW131099   0.902   1.654  11.435
 9734SOL    HW231100   1.048   1.619  11.415
 9735SOL     OW31101   3.172   9.797  13.421
 9735SOL    HW131102   3.208   9.726  13.476
 9735SOL    HW231103   3.155   9.868  13.482
 9736SOL     OW31104   1.936   3.242   0.004
 9736SOL    HW131105   1.952   3.335  14.872
 9736SOL    HW231106   2.002   3.198  14.833
 9737SOL     OW31107  14.116  11.106   2.038
 9737SOL    HW131108  14.031  11.145   2.019
 9737SOL    HW231109  14.179  11.171   2.007
 9738SOL     OW31110   9.798  13.852  13.180
 9738SOL    HW131111   9.703  13.842  13.182
 9738SOL    HW231112   9.812  13.944  13.159
 9739SOL     OW31113   7.559   2.840   1.476
 9739SOL    HW131114   7.488   2.899   1.450
 9739SOL    HW231115   7.617   2.894   1.530
 9740SOL     OW31116   8.637   6.146   9.498
 9740SOL    HW131117   8.650   6.051   9.491
 9740SOL    HW231118   8.718   6.184   9.465
 9741SOL     OW31119  10.747   3.568   0.721
 9741SOL    HW131120  10.755   3.547   0.814
 9741SOL    HW231121  10.660   3.609   0.714
 9742SOL     OW31122   5.121  10.950   6.428
 9742SOL    HW131123   5.122  11.046   6.431
 9742SOL    HW231124   5.073  10.925   6.507
 9743SOL     OW31125  11.684   6.038   2.561
 9743SOL    HW131126  11.626   6.077   2.627
 9743SOL    HW231127  11.710   5.954   2.599
 9744SOL     OW31128  10.345  12.254   9.191
 9744SOL    HW131129  10.373  12.229   9.103
 9744SOL    HW231130  10.422  12.298   9.229
 9745SOL     OW31131   7.438  10.389  14.346
 9745SOL    HW131132   7.399  10.399  14.433
 9745SOL    HW231133   7.376  10.337  14.297
 9746SOL     OW31134   6.342   5.529  10.638
 9746SOL    HW131135   6.283   5.480  10.580
 9746SOL    HW231136   6.384   5.462  10.691
 9747SOL     OW31137  11.654  13.542   8.705
 9747SOL    HW131138  11.627  13.626   8.742
 9747SOL    HW231139  11.578  13.514   8.653
 9748SOL     OW31140   8.328   8.774   8.341
 9748SOL    HW131141   8.354   8.706   8.403
 9748SOL    HW231142   8.408   8.797   8.295
 9749SOL     OW31143   2.610   8.975   5.895
 9749SOL    HW131144   2.582   8.946   5.808
 9749SOL    HW231145   2.536   8.955   5.952
 9750SOL     OW31146  11.492   1.521  10.508
 9750SOL    HW131147  11.499   1.604  10.554
 9750SOL    HW231148  11.582   1.491  10.498
 9751SOL     OW31149   8.133  14.199   4.163
 9751SOL    HW131150   8.186  14.265   4.207
 9751SOL    HW231151   8.191  14.124   4.152
 9752SOL     OW31152   8.835  14.092   5.272
 9752SOL    HW131153   8.829  14.176   5.317
 9752SOL    HW231154   8.812  14.026   5.338
 9753SOL     OW31155  13.541   0.229  10.543
 9753SOL    HW131156  13.620   0.251  10.592
 9753SOL    HW231157  13.486   0.183  10.607
 9754SOL     OW31158   5.453   6.088  12.812
 9754SOL    HW131159   5.468   6.102  12.905
 9754SOL    HW231160   5.425   5.997  12.806
 9755SOL     OW31161   1.840   4.351   6.655
 9755SOL    HW131162   1.771   4.385   6.598
 9755SOL    HW231163   1.868   4.269   6.614
 9756SOL     OW31164  14.106   6.575  12.118
 9756SOL    HW131165  14.159   6.552  12.194
 9756SOL    HW231166  14.122   6.505  12.055
 9757SOL     OW31167   8.994   0.162  12.803
 9757SOL    HW131168   8.979   0.068  12.789
 9757SOL    HW231169   8.941   0.205  12.736
 9758SOL     OW31170   8.342  14.097   4.901
 9758SOL    HW131171   8.325  14.102   4.995
 9758SOL    HW231172   8.255  14.092   4.861
 9759SOL     OW31173  10.334   1.129   4.625
 9759SOL    HW131174  10.379   1.045   4.616
 9759SOL    HW231175  10.404   1.194   4.624
 9760SOL     OW31176  14.665   7.766  14.669
 9760SOL    HW131177  14.750   7.766  14.625
 9760SOL    HW231178  14.653   7.856  14.698
 9761SOL     OW31179  13.548   5.235   5.096
 9761SOL    HW131180  13.563   5.206   5.186
 9761SOL    HW231181  13.630   5.217   5.051
 9762SOL     OW31182   5.740   8.996   4.475
 9762SOL    HW131183   5.719   9.018   4.566
 9762SOL    HW231184   5.691   8.915   4.458
 9763SOL     OW31185   2.599   9.940   9.775
 9763SOL    HW131186   2.518   9.900   9.806
 9763SOL    HW231187   2.651   9.952   9.854
 9764SOL     OW31188   4.049   0.044   8.682
 9764SOL    HW131189   4.007  14.872   8.615
 9764SOL    HW231190   4.033   0.134   8.655
 9765SOL     OW31191   1.218  11.085  14.709
 9765SOL    HW131192   1.212  10.994  14.740
 9765SOL    HW231193   1.291  11.122  14.757
 9766SOL     OW31194   3.877   1.699   9.283
 9766SOL    HW131195   3.781   1.694   9.279
 9766SOL    HW231196   3.906   1.665   9.198
 9767SOL     OW31197   0.061   0.139   3.643
 9767SOL    HW131198   0.134   0.175   3.693
 9767SOL    HW231199   0.025   0.214   3.595
 9768SOL     OW31200  10.982   9.798   5.775
 9768SOL    HW131201  10.914   9.736   5.802
 9768SOL    HW231202  10.932   9.871   5.736
 9769SOL     OW31203   8.439   6.487  11.754
 9769SOL    HW131204   8.513   6.509  11.810
 9769SOL    HW231205   8.374   6.450  11.814
 9770SOL     OW31206   1.310  12.993   0.632
 9770SOL    HW131207   1.240  12.929   0.622
 9770SOL    HW231208   1.274  13.074   0.597
 9771SOL     OW31209   8.221   0.432   3.317
 9771SOL    HW131210   8.155   0.406   3.381
 9771SOL    HW231211   8.284   0.483   3.368
 9772SOL     OW31212   4.141   9.837   1.077
 9772SOL    HW131213   4.099   9.848   0.992
 9772SOL    HW231214   4.211   9.773   1.061
 9773SOL     OW31215   5.935   9.795   4.835
 9773SOL    HW131216   5.978   9.718   4.797
 9773SOL    HW231217   6.007   9.853   4.860
 9774SOL     OW31218  13.854   2.479   3.734
 9774SOL    HW131219  13.943   2.504   3.709
 9774SOL    HW231220  13.836   2.401   3.682
 9775SOL     OW31221  12.968   8.679   6.541
 9775SOL    HW131222  13.012   8.612   6.489
 9775SOL    HW231223  12.915   8.728   6.478
 9776SOL     OW31224   6.382  12.413   2.131
 9776SOL    HW131225   6.381  12.317   2.134
 9776SOL    HW231226   6.302  12.439   2.177
 9777SOL     OW31227   0.004   6.415  13.574
 9777SOL    HW131228  14.877   6.463  13.492
 9777SOL    HW231229  14.802   6.372  13.587
 9778SOL     OW31230  11.096  14.758   4.845
 9778SOL    HW131231  11.087  14.781   4.753
 9778SOL    HW231232  11.051  14.674   4.853
 9779SOL     OW31233   9.255  13.447   0.459
 9779SOL    HW131234   9.344  13.479   0.445
 9779SOL    HW231235   9.244  13.444   0.554
 9780SOL     OW31236   2.167  10.879  14.220
 9780SOL    HW131237   2.176  10.835  14.135
 9780SOL    HW231238   2.132  10.811  14.278
 9781SOL     OW31239   1.082   8.183  12.171
 9781SOL    HW131240   1.041   8.131  12.102
 9781SOL    HW231241   1.083   8.272  12.137
 9782SOL     OW31242  13.129   0.108   2.215
 9782SOL    HW131243  13.044   0.153   2.220
 9782SOL    HW231244  13.191   0.170   2.253
 9783SOL     OW31245  10.779  10.015   8.026
 9783SOL    HW131246  10.839  10.085   8.004
 9783SOL    HW231247  10.694  10.059   8.039
 9784SOL     OW31248   6.229   4.308  11.697
 9784SOL    HW131249   6.243   4.217  11.671
 9784SOL    HW231250   6.145   4.332  11.657
 9785SOL     OW31251   1.284   0.781   7.234
 9785SOL    HW131252   1.277   0.825   7.149
 9785SOL    HW231253   1.219   0.710   7.229
 9786SOL     OW31254   0.358   5.894  12.729
 9786SOL    HW131255   0.416   5.932  12.794
 9786SOL    HW231256   0.417   5.863  12.659
 9787SOL     OW31257   2.531   3.396   8.766
 9787SOL    HW131258   2.601   3.331   8.774
 9787SOL    HW231259   2.524   3.412   8.672
 9788SOL     OW31260  12.873   8.429   9.220
 9788SOL    HW131261  12.902   8.358   9.162
 9788SOL    HW231262  12.954   8.475   9.243
 9789SOL     OW31263  12.635   7.382   0.246
 9789SOL    HW131264  12.729   7.370   0.259
 9789SOL    HW231265  12.606   7.430   0.323
 9790SOL     OW31266   3.599   7.441   7.378
 9790SOL    HW131267   3.535   7.374   7.355
 9790SOL    HW231268   3.648   7.457   7.297
 9791SOL     OW31269   3.280   0.947   0.228
 9791SOL    HW131270   3.309   1.009   0.161
 9791SOL    HW231271   3.212   0.995   0.277
 9792SOL     OW31272  13.801   6.036   5.818
 9792SOL    HW131273  13.890   6.055   5.788
 9792SOL    HW231274  13.760   6.122   5.826
 9793SOL     OW31275   3.312  12.510   0.675
 9793SOL    HW131276   3.275  12.551   0.597
 9793SOL    HW231277   3.369  12.577   0.713
 9794SOL     OW31278   1.625   2.434  14.298
 9794SOL    HW131279   1.653   2.411  14.387
 9794SOL    HW231280   1.621   2.350  14.253
 9795SOL     OW31281   7.430   2.678   3.827
 9795SOL    HW131282   7.521   2.709   3.819
 9795SOL    HW231283   7.392   2.732   3.896
 9796SOL     OW31284   4.944  12.061  14.209
 9796SOL    HW131285   4.952  12.017  14.125
 9796SOL    HW231286   4.864  12.024  14.248
 9797SOL     OW31287   8.176   0.263   1.122
 9797SOL    HW131288   8.107   0.313   1.078
 9797SOL    HW231289   8.167   0.174   1.089
 9798SOL     OW31290   6.363   1.922  12.252
 9798SOL    HW131291   6.381   1.878  12.168
 9798SOL    HW231292   6.311   1.859  12.301
 9799SOL     OW31293   3.354   4.503   5.849
 9799SOL    HW131294   3.442   4.522   5.815
 9799SOL    HW231295   3.354   4.541   5.937
 9800SOL     OW31296   8.992   8.847   3.708
 9800SOL    HW131297   8.896   8.850   3.707
 9800SOL    HW231298   9.018   8.888   3.625
 9801SOL     OW31299   1.816   4.468   7.695
 9801SOL    HW131300   1.739   4.523   7.705
 9801SOL    HW231301   1.785   4.391   7.648
 9802SOL     OW31302  12.812  10.075  10.551
 9802SOL    HW131303  12.722  10.099  10.574
 9802SOL    HW231304  12.851  10.156  10.519
 9803SOL     OW31305   5.751  13.193  10.669
 9803SOL    HW131306   5.713  13.157  10.750
 9803SOL    HW231307   5.707  13.277  10.658
 9804SOL     OW31308   9.786   3.129  11.871
 9804SOL    HW131309   9.749   3.124  11.960
 9804SOL    HW231310   9.877   3.156  11.885
 9805SOL     OW31311  10.849   5.228   3.418
 9805SOL    HW131312  10.756   5.252   3.420
 9805SOL    HW231313  10.849   5.135   3.444
 9806SOL     OW31314   4.014   4.883  12.944
 9806SOL    HW131315   3.992   4.878  12.851
 9806SOL    HW231316   3.943   4.933  12.983
 9807SOL     OW31317  11.369   5.130  11.215
 9807SOL    HW131318  11.457   5.169  11.217
 9807SOL    HW231319  11.326   5.171  11.141
 9808SOL     OW31320   9.945   9.875   6.431
 9808SOL    HW131321   9.974   9.885   6.521
 9808SOL    HW231322  10.016   9.829   6.387
 9809SOL     OW31323   0.073   0.009   5.076
 9809SOL    HW131324   0.006  14.827   5.053
 9809SOL    HW231325   0.043   0.047   5.159
 9810SOL     OW31326   2.601   9.051   9.271
 9810SOL    HW131327   2.672   9.103   9.235
 9810SOL    HW231328   2.609   9.060   9.366
 9811SOL     OW31329   1.761   3.429   0.975
 9811SOL    HW131330   1.819   3.371   1.026
 9811SOL    HW231331   1.679   3.429   1.024
 9812SOL     OW31332   1.588  13.381  11.487
 9812SOL    HW131333   1.670  13.364  11.532
 9812SOL    HW231334   1.520  13.353  11.549
 9813SOL     OW31335   4.605   7.894   7.356
 9813SOL    HW131336   4.523   7.846   7.346
 9813SOL    HW231337   4.663   7.855   7.290
 9814SOL     OW31338  10.311   4.915   3.868
 9814SOL    HW131339  10.265   4.938   3.788
 9814SOL    HW231340  10.312   4.819   3.870
 9815SOL     OW31341   3.296   4.990   3.266
 9815SOL    HW131342   3.277   5.077   3.231
 9815SOL    HW231343   3.250   4.930   3.207
 9816SOL     OW31344  14.192   2.761  10.377
 9816SOL    HW131345  14.147   2.846  10.377
 9816SOL    HW231346  14.186   2.731  10.286
 9817SOL     OW31347   6.101   2.232   7.289
 9817SOL    HW131348   6.185   2.235   7.242
 9817SOL    HW231349   6.065   2.320   7.279
 9818SOL     OW31350   8.295  12.849   5.622
 9818SOL    HW131351   8.387  12.825   5.631
 9818SOL    HW231352   8.282  12.922   5.681
 9819SOL     OW31353   0.196   8.013   2.568
 9819SOL    HW131354   0.216   7.970   2.485
 9819SOL    HW231355   0.101   8.004   2.577
 9820SOL     OW31356  14.229  13.515  12.113
 9820SOL    HW131357  14.271  13.435  12.144
 9820SOL    HW231358  14.143  13.487  12.082
 9821SOL     OW31359   4.082   6.894   7.654
 9821SOL    HW131360   4.111   6.866   7.741
 9821SOL    HW231361   4.083   6.813   7.602
 9822SOL     OW31362  13.913   9.302   2.751
 9822SOL    HW131363  13.829   9.343   2.770
 9822SOL    HW231364  13.891   9.217   2.713
 9823SOL     OW31365  10.612   5.445   6.994
 9823SOL    HW131366  10.639   5.366   6.949
 9823SOL    HW231367  10.519   5.456   6.973
 9824SOL     OW31368   9.876   6.694   5.808
 9824SOL    HW131369   9.947   6.731   5.754
 9824SOL    HW231370   9.812   6.662   5.745
 9825SOL     OW31371  14.571   9.268   8.550
 9825SOL    HW131372  14.551   9.349   8.504
 9825SOL    HW231373  14.532   9.199   8.497
 9826SOL     OW31374   7.294   4.632   4.113
 9826SOL    HW131375   7.321   4.721   4.137
 9826SOL    HW231376   7.247   4.600   4.189
 9827SOL     OW31377   9.532  13.969   4.949
 9827SOL    HW131378   9.447  14.012   4.943
 9827SOL    HW231379   9.596  14.037   4.929
 9828SOL     OW31380   0.977  13.332   5.189
 9828SOL    HW131381   0.936  13.410   5.227
 9828SOL    HW231382   0.906  13.289   5.140
 9829SOL     OW31383  13.161   0.271   8.493
 9829SOL    HW131384  13.195   0.182   8.495
 9829SOL    HW231385  13.126   0.281   8.404
 9830SOL     OW31386  10.762   7.223   4.544
 9830SOL    HW131387  10.824   7.212   4.616
 9830SOL    HW231388  10.683   7.259   4.585
 9831SOL     OW31389  14.642   1.882  14.804
 9831SOL    HW131390  14.645   1.915   0.012
 9831SOL    HW231391  14.618   1.790  14.813
 9832SOL     OW31392   4.902   0.697   6.277
 9832SOL    HW131393   4.933   0.662   6.360
 9832SOL    HW231394   4.981   0.709   6.224
 9833SOL     OW31395   3.166   6.569   5.395
 9833SOL    HW131396   3.123   6.576   5.480
 9833SOL    HW231397   3.096   6.553   5.332
 9834SOL     OW31398  11.971   2.357   8.966
 9834SOL    HW131399  11.908   2.404   9.021
 9834SOL    HW231400  12.005   2.423   8.906
 9835SOL     OW31401   6.581  10.858   1.097
 9835SOL    HW131402   6.668  10.880   1.065
 9835SOL    HW231403   6.570  10.912   1.176
 9836SOL     OW31404   8.677   2.606   0.801
 9836SOL    HW131405   8.586   2.619   0.828
 9836SOL    HW231406   8.725   2.677   0.844
 9837SOL     OW31407   3.875  11.933  14.255
 9837SOL    HW131408   3.933  11.901  14.324
 9837SOL    HW231409   3.875  12.028  14.265
 9838SOL     OW31410   6.973  11.130  13.677
 9838SOL    HW131411   7.043  11.099  13.734
 9838SOL    HW231412   6.924  11.193  13.732
 9839SOL     OW31413  12.662  10.656   9.901
 9839SOL    HW131414  12.596  10.616   9.844
 9839SOL    HW231415  12.616  10.729   9.943
 9840SOL     OW31416   5.733   5.832   3.645
 9840SOL    HW131417   5.673   5.803   3.713
 9840SOL    HW231418   5.798   5.762   3.638
 9841SOL     OW31419   6.094  11.634   3.084
 9841SOL    HW131420   6.008  11.628   3.125
 9841SOL    HW231421   6.140  11.701   3.135
 9842SOL     OW31422   0.660   2.205  12.118
 9842SOL    HW131423   0.692   2.289  12.084
 9842SOL    HW231424   0.735   2.166  12.161
 9843SOL     OW31425   4.009  12.551   1.338
 9843SOL    HW131426   4.067  12.485   1.301
 9843SOL    HW231427   3.978  12.513   1.420
 9844SOL     OW31428   6.351  13.476   2.165
 9844SOL    HW131429   6.406  13.412   2.120
 9844SOL    HW231430   6.301  13.518   2.095
 9845SOL     OW31431   3.451   7.320   0.806
 9845SOL    HW131432   3.500   7.300   0.726
 9845SOL    HW231433   3.504   7.282   0.876
 9846SOL     OW31434   9.582   4.415  14.109
 9846SOL    HW131435   9.557   4.485  14.049
 9846SOL    HW231436   9.543   4.336  14.072
 9847SOL     OW31437  10.238   2.249   6.433
 9847SOL    HW131438  10.294   2.258   6.511
 9847SOL    HW231439  10.221   2.339   6.406
 9848SOL     OW31440  14.660   9.978   7.459
 9848SOL    HW131441  14.602   9.945   7.527
 9848SOL    HW231442  14.602  10.018   7.395
 9849SOL     OW31443  12.809  13.410  10.149
 9849SOL    HW131444  12.731  13.357  10.133
 9849SOL    HW231445  12.876  13.346  10.177
 9850SOL     OW31446   4.861   7.187   8.278
 9850SOL    HW131447   4.951   7.185   8.311
 9850SOL    HW231448   4.843   7.280   8.266
 9851SOL     OW31449   7.252  11.702   9.597
 9851SOL    HW131450   7.217  11.723   9.511
 9851SOL    HW231451   7.308  11.626   9.583
 9852SOL     OW31452  11.800  13.165   9.657
 9852SOL    HW131453  11.852  13.205   9.587
 9852SOL    HW231454  11.732  13.116   9.612
 9853SOL     OW31455   1.815   9.199  11.377
 9853SOL    HW131456   1.845   9.286  11.349
 9853SOL    HW231457   1.794   9.153  11.296
 9854SOL     OW31458   3.994   0.941   3.231
 9854SOL    HW131459   3.985   0.861   3.179
 9854SOL    HW231460   3.912   0.989   3.214
 9855SOL     OW31461  13.358   9.129   9.911
 9855SOL    HW131462  13.333   9.102   9.999
 9855SOL    HW231463  13.426   9.066   9.885
 9856SOL     OW31464  13.127   3.208  10.427
 9856SOL    HW131465  13.061   3.240  10.365
 9856SOL    HW231466  13.085   3.134  10.471
 9857SOL     OW31467   7.456  13.111   1.968
 9857SOL    HW131468   7.516  13.139   2.038
 9857SOL    HW231469   7.425  13.192   1.929
 9858SOL     OW31470   1.476   1.362   5.951
 9858SOL    HW131471   1.405   1.303   5.978
 9858SOL    HW231472   1.543   1.305   5.914
 9859SOL     OW31473   1.571  13.229  13.574
 9859SOL    HW131474   1.601  13.235  13.483
 9859SOL    HW231475   1.504  13.160  13.572
 9860SOL     OW31476   7.546   7.276   1.970
 9860SOL    HW131477   7.465   7.307   2.010
 9860SOL    HW231478   7.591   7.355   1.941
 9861SOL     OW31479  11.854  11.136   7.077
 9861SOL    HW131480  11.940  11.106   7.108
 9861SOL    HW231481  11.805  11.056   7.060
 9862SOL     OW31482   7.157   3.012   2.933
 9862SOL    HW131483   7.157   3.055   3.019
 9862SOL    HW231484   7.207   2.931   2.947
 9863SOL     OW31485   1.614  11.249   1.539
 9863SOL    HW131486   1.536  11.301   1.518
 9863SOL    HW231487   1.580  11.161   1.555
 9864SOL     OW31488   6.709   7.002   8.232
 9864SOL    HW131489   6.780   7.057   8.266
 9864SOL    HW231490   6.753   6.924   8.198
 9865SOL     OW31491   0.688   3.077   7.488
 9865SOL    HW131492   0.636   3.146   7.530
 9865SOL    HW231493   0.632   3.045   7.417
 9866SOL     OW31494   9.429  10.571   5.529
 9866SOL    HW131495   9.368  10.642   5.550
 9866SOL    HW231496   9.441  10.524   5.612
 9867SOL     OW31497   2.233   3.789   7.440
 9867SOL    HW131498   2.177   3.720   7.475
 9867SOL    HW231499   2.176   3.837   7.379
 9868SOL     OW31500   5.755   6.571   3.759
 9868SOL    HW131501   5.722   6.650   3.802
 9868SOL    HW231502   5.719   6.574   3.671
 9869SOL     OW31503  12.489  10.712   0.909
 9869SOL    HW131504  12.579  10.714   0.943
 9869SOL    HW231505  12.457  10.801   0.919
 9870SOL     OW31506  12.601   9.695   1.372
 9870SOL    HW131507  12.682   9.707   1.421
 9870SOL    HW231508  12.622   9.631   1.305
 9871SOL     OW31509  14.385  12.471   0.873
 9871SOL    HW131510  14.406  12.492   0.782
 9871SOL    HW231511  14.363  12.378   0.872
 9872SOL     OW31512   2.531   9.910   4.183
 9872SOL    HW131513   2.587   9.920   4.260
 9872SOL    HW231514   2.472   9.985   4.187
 9873SOL     OW31515   3.363   5.755   7.958
 9873SOL    HW131516   3.312   5.728   7.882
 9873SOL    HW231517   3.437   5.694   7.960
 9874SOL     OW31518   5.283   7.694  10.596
 9874SOL    HW131519   5.293   7.616  10.650
 9874SOL    HW231520   5.198   7.730  10.621
 9875SOL     OW31521  12.674   7.943   0.353
 9875SOL    HW131522  12.717   7.869   0.310
 9875SOL    HW231523  12.708   7.943   0.442
 9876SOL     OW31524  11.975  11.263   1.031
 9876SOL    HW131525  11.976  11.167   1.024
 9876SOL    HW231526  12.063  11.290   1.005
 9877SOL     OW31527  12.963   2.255   9.743
 9877SOL    HW131528  12.994   2.229   9.656
 9877SOL    HW231529  13.015   2.332   9.764
 9878SOL     OW31530   5.885   6.833  13.860
 9878SOL    HW131531   5.847   6.747  13.841
 9878SOL    HW231532   5.953   6.845  13.795
 9879SOL     OW31533  10.972  11.345  14.382
 9879SOL    HW131534  10.961  11.440  14.380
 9879SOL    HW231535  10.885  11.311  14.401
 9880SOL     OW31536  10.321   6.447   3.546
 9880SOL    HW131537  10.250   6.413   3.491
 9880SOL    HW231538  10.298   6.418   3.635
 9881SOL     OW31539  11.594  11.651   8.108
 9881SOL    HW131540  11.589  11.746   8.117
 9881SOL    HW231541  11.688  11.632   8.104
 9882SOL     OW31542   4.025   1.536  12.564
 9882SOL    HW131543   4.037   1.488  12.482
 9882SOL    HW231544   4.113   1.564  12.589
 9883SOL     OW31545   9.400  13.085  10.550
 9883SOL    HW131546   9.335  13.081  10.480
 9883SOL    HW231547   9.481  13.056  10.509
 9884SOL     OW31548   6.052   4.014   5.832
 9884SOL    HW131549   6.022   4.096   5.794
 9884SOL    HW231550   6.108   4.040   5.905
 9885SOL     OW31551   2.503   9.194   6.339
 9885SOL    HW131552   2.497   9.186   6.434
 9885SOL    HW231553   2.597   9.197   6.321
 9886SOL     OW31554   1.283   1.760   5.721
 9886SOL    HW131555   1.352   1.695   5.735
 9886SOL    HW231556   1.324   1.826   5.665
 9887SOL     OW31557   2.856  11.824   3.084
 9887SOL    HW131558   2.787  11.769   3.047
 9887SOL    HW231559   2.840  11.822   3.178
 9888SOL     OW31560   5.560  12.459   9.705
 9888SOL    HW131561   5.615  12.522   9.658
 9888SOL    HW231562   5.623  12.406   9.756
 9889SOL     OW31563  12.023   5.645  10.206
 9889SOL    HW131564  12.036   5.643  10.301
 9889SOL    HW231565  11.952   5.708  10.194
 9890SOL     OW31566  12.143   0.165   9.547
 9890SOL    HW131567  12.128   0.255   9.574
 9890SOL    HW231568  12.194   0.172   9.467
 9891SOL     OW31569   5.442  11.406   5.100
 9891SOL    HW131570   5.488  11.337   5.148
 9891SOL    HW231571   5.481  11.404   5.012
 9892SOL     OW31572   1.832   1.820   2.015
 9892SOL    HW131573   1.832   1.786   2.104
 9892SOL    HW231574   1.924   1.827   1.991
 9893SOL     OW31575  10.903   5.182  10.132
 9893SOL    HW131576  10.871   5.094  10.150
 9893SOL    HW231577  10.945   5.175  10.046
 9894SOL     OW31578   0.050   5.700   0.899
 9894SOL    HW131579   0.008   5.786   0.901
 9894SOL    HW231580   0.076   5.687   0.808
 9895SOL     OW31581   3.252  10.477  14.353
 9895SOL    HW131582   3.222  10.441  14.270
 9895SOL    HW231583   3.183  10.457  14.415
 9896SOL     OW31584   5.127   7.621   4.894
 9896SOL    HW131585   5.105   7.547   4.951
 9896SOL    HW231586   5.043   7.666   4.881
 9897SOL     OW31587   3.128   6.055  13.216
 9897SOL    HW131588   3.079   6.045  13.134
 9897SOL    HW231589   3.200   5.993  13.208
 9898SOL     OW31590  10.186   0.185   9.965
 9898SOL    HW131591  10.255   0.251   9.954
 9898SOL    HW231592  10.117   0.213   9.904
 9899SOL     OW31593   0.815  11.058   2.051
 9899SOL    HW131594   0.759  10.997   2.003
 9899SOL    HW231595   0.776  11.064   2.138
 9900SOL     OW31596   9.591   1.824   3.191
 9900SOL    HW131597   9.518   1.765   3.207
 9900SOL    HW231598   9.583   1.891   3.259
 9901SOL     OW31599  12.331   3.583  12.342
 9901SOL    HW131600  12.375   3.666  12.359
 9901SOL    HW231601  12.266   3.604  12.275
 9902SOL     OW31602   7.933   7.780  11.899
 9902SOL    HW131603   7.873   7.833  11.847
 9902SOL    HW231604   7.937   7.825  11.984
 9903SOL     OW31605   5.958   9.654  13.570
 9903SOL    HW131606   6.033   9.644  13.512
 9903SOL    HW231607   5.931   9.745  13.560
 9904SOL     OW31608   7.551  11.761   1.184
 9904SOL    HW131609   7.624  11.773   1.124
 9904SOL    HW231610   7.569  11.821   1.256
 9905SOL     OW31611   1.656  14.343   4.048
 9905SOL    HW131612   1.707  14.402   3.992
 9905SOL    HW231613   1.569  14.384   4.053
 9906SOL     OW31614   5.278   8.057   3.553
 9906SOL    HW131615   5.227   8.133   3.524
 9906SOL    HW231616   5.223   7.982   3.531
 9907SOL     OW31617  13.439   1.613  13.188
 9907SOL    HW131618  13.362   1.556  13.177
 9907SOL    HW231619  13.489   1.571  13.258
 9908SOL     OW31620   6.436   5.371   8.088
 9908SOL    HW131621   6.529   5.364   8.108
 9908SOL    HW231622   6.430   5.348   7.995
 9909SOL     OW31623   5.450  13.061  11.686
 9909SOL    HW131624   5.513  13.092  11.750
 9909SOL    HW231625   5.374  13.032  11.737
 9910SOL     OW31626   3.488   1.615  11.481
 9910SOL    HW131627   3.517   1.691  11.531
 9910SOL    HW231628   3.545   1.543  11.511
 9911SOL     OW31629   3.152   6.202   1.461
 9911SOL    HW131630   3.056   6.205   1.456
 9911SOL    HW231631   3.179   6.159   1.380
 9912SOL     OW31632   7.167   6.807  14.833
 9912SOL    HW131633   7.109   6.874  14.797
 9912SOL    HW231634   7.110   6.732  14.849
 9913SOL     OW31635   2.268   3.535   8.880
 9913SOL    HW131636   2.327   3.610   8.891
 9913SOL    HW231637   2.294   3.496   8.797
 9914SOL     OW31638  12.013  10.879   8.573
 9914SOL    HW131639  12.061  10.804   8.537
 9914SOL    HW231640  11.922  10.849   8.578
 9915SOL     OW31641   1.447   7.286   7.670
 9915SOL    HW131642   1.486   7.370   7.696
 9915SOL    HW231643   1.352   7.303   7.668
 9916SOL     OW31644   0.876   5.817   2.944
 9916SOL    HW131645   0.949   5.871   2.915
 9916SOL    HW231646   0.879   5.740   2.888
 9917SOL     OW31647   4.536   4.684   0.200
 9917SOL    HW131648   4.576   4.625   0.264
 9917SOL    HW231649   4.552   4.771   0.235
 9918SOL     OW31650   6.599   8.507   2.554
 9918SOL    HW131651   6.564   8.546   2.634
 9918SOL    HW231652   6.601   8.413   2.572
 9919SOL     OW31653   6.460  12.920  13.533
 9919SOL    HW131654   6.386  12.981  13.530
 9919SOL    HW231655   6.526  12.960  13.476
 9920SOL     OW31656   2.115   2.032  10.151
 9920SOL    HW131657   2.026   1.997  10.155
 9920SOL    HW231658   2.115   2.089  10.073
 9921SOL     OW31659  13.851   0.352   3.458
 9921SOL    HW131660  13.811   0.351   3.371
 9921SOL    HW231661  13.923   0.290   3.452
 9922SOL     OW31662  11.915   7.938  11.614
 9922SOL    HW131663  11.971   7.955  11.538
 9922SOL    HW231664  11.976   7.923  11.686
 9923SOL     OW31665   5.871   3.214   0.923
 9923SOL    HW131666   5.916   3.174   0.998
 9923SOL    HW231667   5.784   3.175   0.924
 9924SOL     OW31668  13.371   7.258   7.046
 9924SOL    HW131669  13.462   7.233   7.029
 9924SOL    HW231670  13.367   7.351   7.025
 9925SOL     OW31671  14.312  13.354   8.327
 9925SOL    HW131672  14.264  13.403   8.260
 9925SOL    HW231673  14.278  13.265   8.320
 9926SOL     OW31674   6.161   1.741  10.168
 9926SOL    HW131675   6.178   1.691  10.089
 9926SOL    HW231676   6.122   1.679  10.229
 9927SOL     OW31677  14.062  13.504   0.378
 9927SOL    HW131678  14.057  13.422   0.330
 9927SOL    HW231679  14.101  13.481   0.462
 9928SOL     OW31680   1.291   2.293  14.681
 9928SOL    HW131681   1.258   2.374  14.720
 9928SOL    HW231682   1.228   2.273  14.611
 9929SOL     OW31683   3.535   2.558  13.607
 9929SOL    HW131684   3.517   2.650  13.626
 9929SOL    HW231685   3.457   2.527  13.561
 9930SOL     OW31686  11.920   5.140  10.466
 9930SOL    HW131687  11.908   5.225  10.508
 9930SOL    HW231688  11.844   5.132  10.407
 9931SOL     OW31689   3.521  12.277   4.204
 9931SOL    HW131690   3.550  12.217   4.136
 9931SOL    HW231691   3.429  12.292   4.187
 9932SOL     OW31692  13.825  14.603   3.452
 9932SOL    HW131693  13.743  14.564   3.485
 9932SOL    HW231694  13.802  14.637   3.366
 9933SOL     OW31695   4.564   1.281  14.516
 9933SOL    HW131696   4.586   1.192  14.541
 9933SOL    HW231697   4.469   1.280  14.504
 9934SOL     OW31698  10.437  14.730   8.780
 9934SOL    HW131699  10.459  14.793   8.711
 9934SOL    HW231700  10.512  14.733   8.839
 9935SOL     OW31701   0.372   8.853   6.422
 9935SOL    HW131702   0.314   8.901   6.363
 9935SOL    HW231703   0.454   8.903   6.422
 9936SOL     OW31704   5.327   5.452   4.002
 9936SOL    HW131705   5.267   5.499   3.944
 9936SOL    HW231706   5.414   5.471   3.968
 9937SOL     OW31707  13.603  12.711  11.473
 9937SOL    HW131708  13.696  12.714  11.492
 9937SOL    HW231709  13.592  12.769  11.397
 9938SOL     OW31710   8.276   3.670   2.165
 9938SOL    HW131711   8.324   3.623   2.097
 9938SOL    HW231712   8.184   3.648   2.148
 9939SOL     OW31713   4.024  14.194   4.976
 9939SOL    HW131714   3.985  14.185   4.889
 9939SOL    HW231715   3.948  14.194   5.035
 9940SOL     OW31716   7.177  11.943   5.260
 9940SOL    HW131717   7.267  11.911   5.259
 9940SOL    HW231718   7.171  11.996   5.340
 9941SOL     OW31719   6.451  14.613  14.243
 9941SOL    HW131720   6.447  14.530  14.196
 9941SOL    HW231721   6.475  14.677  14.176
 9942SOL     OW31722  11.025   1.860  13.493
 9942SOL    HW131723  11.000   1.951  13.509
 9942SOL    HW231724  10.978   1.836  13.413
 9943SOL     OW31725  14.833   7.027  11.091
 9943SOL    HW131726   0.008   7.030  11.167
 9943SOL    HW231727  14.753   7.072  11.118
 9944SOL     OW31728  12.630   6.997  10.808
 9944SOL    HW131729  12.643   7.066  10.742
 9944SOL    HW231730  12.577   6.931  10.763
 9945SOL     OW31731   9.371   9.452  10.419
 9945SOL    HW131732   9.366   9.545  10.440
 9945SOL    HW231733   9.464   9.436  10.402
 9946SOL     OW31734  13.843   8.267   5.000
 9946SOL    HW131735  13.779   8.274   4.929
 9946SOL    HW231736  13.928   8.277   4.957
 9947SOL     OW31737   5.756  13.774   9.712
 9947SOL    HW131738   5.740  13.680   9.703
 9947SOL    HW231739   5.708  13.799   9.791
 9948SOL     OW31740   5.597  11.556  12.391
 9948SOL    HW131741   5.527  11.548  12.456
 9948SOL    HW231742   5.678  11.545  12.441
 9949SOL     OW31743  12.475   0.102   6.757
 9949SOL    HW131744  12.537   0.173   6.739
 9949SOL    HW231745  12.410   0.108   6.687
 9950SOL     OW31746  10.505  14.567   0.968
 9950SOL    HW131747  10.579  14.623   0.945
 9950SOL    HW231748  10.448  14.623   1.021
 9951SOL     OW31749  11.091  12.232  10.692
 9951SOL    HW131750  11.008  12.262  10.729
 9951SOL    HW231751  11.138  12.194  10.766
 9952SOL     OW31752   6.859   4.162   0.243
 9952SOL    HW131753   6.782   4.143   0.296
 9952SOL    HW231754   6.828   4.151   0.152
 9953SOL     OW31755   2.001  12.371   3.378
 9953SOL    HW131756   1.943  12.422   3.434
 9953SOL    HW231757   2.082  12.364   3.428
 9954SOL     OW31758  10.056   2.965   0.008
 9954SOL    HW131759  10.091   2.890   0.058
 9954SOL    HW231760   9.989   2.927  14.834
 9955SOL     OW31761   0.559   4.375  12.136
 9955SOL    HW131762   0.463   4.381  12.136
 9955SOL    HW231763   0.588   4.455  12.181
 9956SOL     OW31764   9.022   1.135   4.465
 9956SOL    HW131765   9.025   1.220   4.420
 9956SOL    HW231766   9.094   1.085   4.427
 9957SOL     OW31767   7.192  12.124   7.634
 9957SOL    HW131768   7.230  12.077   7.708
 9957SOL    HW231769   7.175  12.212   7.668
 9958SOL     OW31770  11.421  11.959  13.471
 9958SOL    HW131771  11.390  12.048  13.485
 9958SOL    HW231772  11.517  11.967  13.466
 9959SOL     OW31773   7.240   0.055   9.893
 9959SOL    HW131774   7.291   0.129   9.927
 9959SOL    HW231775   7.251   0.060   9.798
 9960SOL     OW31776   8.557   9.369   4.198
 9960SOL    HW131777   8.558   9.282   4.159
 9960SOL    HW231778   8.518   9.425   4.130
 9961SOL     OW31779   4.361  14.538  12.736
 9961SOL    HW131780   4.397  14.625  12.717
 9961SOL    HW231781   4.437  14.481  12.745
 9962SOL     OW31782   8.063  10.355   8.403
 9962SOL    HW131783   8.059  10.270   8.359
 9962SOL    HW231784   7.997  10.408   8.359
 9963SOL     OW31785   7.362   0.798   1.286
 9963SOL    HW131786   7.435   0.760   1.237
 9963SOL    HW231787   7.389   0.888   1.303
 9964SOL     OW31788   6.789  12.103   1.177
 9964SOL    HW131789   6.734  12.167   1.223
 9964SOL    HW231790   6.751  12.098   1.089
 9965SOL     OW31791   3.998   3.165   7.669
 9965SOL    HW131792   4.088   3.138   7.684
 9965SOL    HW231793   3.990   3.170   7.574
 9966SOL     OW31794   8.626   8.299   3.793
 9966SOL    HW131795   8.610   8.230   3.857
 9966SOL    HW231796   8.641   8.378   3.846
 9967SOL     OW31797   7.896  12.624  13.397
 9967SOL    HW131798   7.882  12.707  13.443
 9967SOL    HW231799   7.832  12.626  13.326
 9968SOL     OW31800   9.183  13.916   6.914
 9968SOL    HW131801   9.113  13.920   6.979
 9968SOL    HW231802   9.238  13.992   6.933
 9969SOL     OW31803  10.684  14.752   1.381
 9969SOL    HW131804  10.678  14.714   1.469
 9969SOL    HW231805  10.596  14.746   1.345
 9970SOL     OW31806   2.115   7.874   0.021
 9970SOL    HW131807   2.129   7.863  14.809
 9970SOL    HW231808   2.192   7.922   0.051
 9971SOL     OW31809   2.978  11.215   9.747
 9971SOL    HW131810   2.969  11.188   9.656
 9971SOL    HW231811   2.890  11.204   9.784
 9972SOL     OW31812  13.889   3.811   3.850
 9972SOL    HW131813  13.868   3.904   3.851
 9972SOL    HW231814  13.953   3.802   3.779
 9973SOL     OW31815   5.259   6.262   3.724
 9973SOL    HW131816   5.213   6.178   3.737
 9973SOL    HW231817   5.292   6.284   3.810
 9974SOL     OW31818   2.570   3.965   2.032
 9974SOL    HW131819   2.625   3.898   2.074
 9974SOL    HW231820   2.504   3.915   1.985
 9975SOL     OW31821   2.811   0.007   3.342
 9975SOL    HW131822   2.783   0.036   3.255
 9975SOL    HW231823   2.845   0.086   3.384
 9976SOL     OW31824   2.177   0.957   4.184
 9976SOL    HW131825   2.126   1.035   4.159
 9976SOL    HW231826   2.266   0.976   4.155
 9977SOL     OW31827  14.339   7.296   5.734
 9977SOL    HW131828  14.413   7.327   5.683
 9977SOL    HW231829  14.366   7.307   5.825
 9978SOL     OW31830  13.111   1.822  14.754
 9978SOL    HW131831  13.188   1.853  14.800
 9978SOL    HW231832  13.111   1.727  14.767
 9979SOL     OW31833   1.607   9.434   3.889
 9979SOL    HW131834   1.653   9.395   3.964
 9979SOL    HW231835   1.647   9.520   3.879
 9980SOL     OW31836   4.011   5.153   0.234
 9980SOL    HW131837   4.068   5.144   0.310
 9980SOL    HW231838   3.922   5.145   0.270
 9981SOL     OW31839   1.631  11.394   3.192
 9981SOL    HW131840   1.612  11.486   3.176
 9981SOL    HW231841   1.550  11.348   3.169
 9982SOL     OW31842  11.526  12.713   4.059
 9982SOL    HW131843  11.523  12.777   4.130
 9982SOL    HW231844  11.467  12.749   3.992
 9983SOL     OW31845  13.987   3.482   9.255
 9983SOL    HW131846  14.069   3.468   9.302
 9983SOL    HW231847  13.921   3.489   9.324
 9984SOL     OW31848   2.681   9.994  13.526
 9984SOL    HW131849   2.663  10.043  13.606
 9984SOL    HW231850   2.643  10.048  13.456
 9985SOL     OW31851   5.772   0.534   3.855
 9985SOL    HW131852   5.742   0.601   3.918
 9985SOL    HW231853   5.827   0.582   3.793
 9986SOL     OW31854   2.801   7.474   3.891
 9986SOL    HW131855   2.840   7.533   3.827
 9986SOL    HW231856   2.709   7.502   3.896
 9987SOL     OW31857   1.165   4.752   0.098
 9987SOL    HW131858   1.150   4.816   0.028
 9987SOL    HW231859   1.144   4.800   0.178
 9988SOL     OW31860   0.292   3.115  13.447
 9988SOL    HW131861   0.270   3.121  13.354
 9988SOL    HW231862   0.369   3.172  13.457
 9989SOL     OW31863   8.558  14.376   1.645
 9989SOL    HW131864   8.537  14.298   1.696
 9989SOL    HW231865   8.522  14.357   1.558
 9990SOL     OW31866   8.330   5.593   9.619
 9990SOL    HW131867   8.307   5.540   9.543
 9990SOL    HW231868   8.288   5.678   9.602
 9991SOL     OW31869   7.137  10.631   7.024
 9991SOL    HW131870   7.204  10.675   6.972
 9991SOL    HW231871   7.076  10.701   7.049
 9992SOL     OW31872   1.966   5.884   5.432
 9992SOL    HW131873   2.041   5.863   5.376
 9992SOL    HW231874   1.992   5.965   5.477
 9993SOL     OW31875  12.216   0.159   5.030
 9993SOL    HW131876  12.247   0.083   5.079
 9993SOL    HW231877  12.281   0.171   4.961
 9994SOL     OW31878   6.736   4.724  13.822
 9994SOL    HW131879   6.713   4.707  13.731
 9994SOL    HW231880   6.763   4.816  13.823
 9995SOL     OW31881  10.492   8.357   3.373
 9995SOL    HW131882  10.567   8.412   3.351
 9995SOL    HW231883  10.527   8.291   3.433
 9996SOL     OW31884  13.590   2.321  10.032
 9996SOL    HW131885  13.547   2.360   9.956
 9996SOL    HW231886  13.519   2.301  10.093
 9997SOL     OW31887   6.990   1.619   6.783
 9997SOL    HW131888   6.918   1.557   6.769
 9997SOL    HW231889   7.038   1.582   6.857
 9998SOL     OW31890  12.723   2.787  11.395
 9998SOL    HW131891  12.682   2.862  11.352
 9998SOL    HW231892  12.695   2.711  11.342
 9999SOL     OW31893  13.850   1.751   4.061
 9999SOL    HW131894  13.915   1.755   3.991
 9999SOL    HW231895  13.789   1.822   4.040
10000SOL     OW31896   9.526  10.177   4.644
10000SOL    HW131897   9.437  10.205   4.625
10000SOL    HW231898   9.540  10.199   4.737
10001SOL     OW31899  13.884  14.344  14.569
10001SOL    HW131900  13.801  14.389  14.551
10001SOL    HW231901  13.909  14.374  14.656
10002SOL     OW31902  12.854   6.888   7.180
10002SOL    HW131903  12.836   6.900   7.273
10002SOL    HW231904  12.941   6.849   7.177
10003SOL     OW31905  14.199   0.129   7.597
10003SOL    HW131906  14.174   0.185   7.524
10003SOL    HW231907  14.294   0.122   7.591
10004SOL     OW31908   7.435   7.685   5.178
10004SOL    HW131909   7.372   7.740   5.224
10004SOL    HW231910   7.439   7.721   5.089
10005SOL     OW31911   5.323   8.279  11.340
10005SOL    HW131912   5.326   8.373  11.352
10005SOL    HW231913   5.407   8.247  11.373
10006SOL     OW31914   4.250   6.587   8.333
10006SOL    HW131915   4.345   6.579   8.336
10006SOL    HW231916   4.230   6.663   8.387
10007SOL     OW31917   4.138   6.676   1.790
10007SOL    HW131918   4.143   6.736   1.716
10007SOL    HW231919   4.131   6.589   1.751
10008SOL     OW31920   5.205  10.944  14.368
10008SOL    HW131921   5.121  10.905  14.342
10008SOL    HW231922   5.200  11.035  14.338
10009SOL     OW31923   2.316   7.371   3.756
10009SOL    HW131924   2.328   7.305   3.688
10009SOL    HW231925   2.235   7.416   3.731
10010SOL     OW31926  14.604   1.550   8.676
10010SOL    HW131927  14.610   1.646   8.675
10010SOL    HW231928  14.515   1.532   8.704
10011SOL     OW31929  13.938   5.990   4.311
10011SOL    HW131930  13.955   6.079   4.342
10011SOL    HW231931  13.916   5.941   4.390
10012SOL     OW31932  10.113   3.643   5.728
10012SOL    HW131933  10.160   3.716   5.768
10012SOL    HW231934  10.166   3.566   5.749
10013SOL     OW31935   1.198  12.271  13.075
10013SOL    HW131936   1.270  12.333  13.088
10013SOL    HW231937   1.240  12.187  13.059
10014SOL     OW31938   5.328  10.303  11.672
10014SOL    HW131939   5.382  10.374  11.637
10014SOL    HW231940   5.389  10.230  11.684
10015SOL     OW31941  11.508   3.168  10.969
10015SOL    HW131942  11.578   3.138  10.910
10015SOL    HW231943  11.474   3.087  11.008
10016SOL     OW31944  13.873   2.118   5.129
10016SOL    HW131945  13.888   2.040   5.183
10016SOL    HW231946  13.820   2.086   5.055
10017SOL     OW31947   3.247  12.408  10.733
10017SOL    HW131948   3.188  12.424  10.659
10017SOL    HW231949   3.330  12.381  10.693
10018SOL     OW31950   4.753  11.332   3.244
10018SOL    HW131951   4.773  11.425   3.257
10018SOL    HW231952   4.776  11.315   3.153
10019SOL     OW31953   6.682  12.659  12.961
10019SOL    HW131954   6.665  12.626  12.873
10019SOL    HW231955   6.666  12.753  12.955
10020SOL     OW31956   0.011  10.578   8.566
10020SOL    HW131957  14.811  10.609   8.602
10020SOL    HW231958   0.076  10.596   8.634
10021SOL     OW31959  12.112   6.721   8.123
10021SOL    HW131960  12.183   6.658   8.131
10021SOL    HW231961  12.122   6.779   8.198
10022SOL     OW31962   9.686   0.082   2.461
10022SOL    HW131963   9.712   0.166   2.499
10022SOL    HW231964   9.720   0.085   2.372
10023SOL     OW31965   2.818   7.429  12.675
10023SOL    HW131966   2.759   7.501  12.695
10023SOL    HW231967   2.883   7.431  12.746
10024SOL     OW31968   3.760  10.674  13.599
10024SOL    HW131969   3.820  10.720  13.540
10024SOL    HW231970   3.719  10.607  13.544
10025SOL     OW31971   1.669  13.890   4.111
10025SOL    HW131972   1.701  13.830   4.178
10025SOL    HW231973   1.576  13.869   4.101
10026SOL     OW31974   7.777   5.985   3.830
10026SOL    HW131975   7.780   5.906   3.775
10026SOL    HW231976   7.839   6.045   3.789
10027SOL     OW31977   6.095   5.184  14.146
10027SOL    HW131978   6.132   5.112  14.196
10027SOL    HW231979   6.035   5.142  14.084
10028SOL     OW31980   0.027   0.228   9.927
10028SOL    HW131981   0.078   0.298   9.886
10028SOL    HW231982   0.086   0.192   9.994
10029SOL     OW31983   4.581   3.015  11.479
10029SOL    HW131984   4.550   2.935  11.437
10029SOL    HW231985   4.632   2.986  11.553
10030SOL     OW31986  11.391  12.418   8.453
10030SOL    HW131987  11.429  12.483   8.512
10030SOL    HW231988  11.463  12.356   8.436
10031SOL     OW31989   4.424   1.257  11.293
10031SOL    HW131990   4.399   1.238  11.383
10031SOL    HW231991   4.514   1.227  11.286
10032SOL     OW31992   3.274   0.684   5.378
10032SOL    HW131993   3.347   0.623   5.366
10032SOL    HW231994   3.223   0.646   5.450
10033SOL     OW31995   2.316   0.368   4.355
10033SOL    HW131996   2.388   0.313   4.324
10033SOL    HW231997   2.270   0.312   4.419
10034SOL     OW31998  12.727  12.039   2.253
10034SOL    HW131999  12.724  12.056   2.158
10034SOL    HW232000  12.669  12.106   2.290
10035SOL     OW32001   1.753   1.279  13.401
10035SOL    HW132002   1.835   1.281  13.450
10035SOL    HW232003   1.748   1.189  13.367
10036SOL     OW32004   4.266   8.553   6.029
10036SOL    HW132005   4.358   8.545   6.004
10036SOL    HW232006   4.268   8.575   6.122
10037SOL     OW32007   4.437   7.355   9.385
10037SOL    HW132008   4.351   7.363   9.343
10037SOL    HW232009   4.500   7.365   9.314
10038SOL     OW32010   3.882   2.735   5.983
10038SOL    HW132011   3.800   2.778   5.961
10038SOL    HW232012   3.857   2.646   6.009
10039SOL     OW32013   1.384   1.963   2.803
10039SOL    HW132014   1.391   1.957   2.899
10039SOL    HW232015   1.385   2.057   2.786
10040SOL     OW32016   7.500   1.165   5.161
10040SOL    HW132017   7.513   1.125   5.075
10040SOL    HW232018   7.583   1.208   5.180
10041SOL     OW32019  10.955   9.909  14.189
10041SOL    HW132020  10.937   9.878  14.100
10041SOL    HW232021  10.904   9.850  14.245
10042SOL     OW32022  10.590  12.380   3.704
10042SOL    HW132023  10.513  12.323   3.702
10042SOL    HW232024  10.559  12.464   3.669
10043SOL     OW32025  12.029   8.352  13.837
10043SOL    HW132026  11.992   8.294  13.904
10043SOL    HW232027  12.092   8.297  13.790
10044SOL     OW32028   1.403  14.800  10.948
10044SOL    HW132029   1.458  14.832  11.019
10044SOL    HW232030   1.414  14.705  10.950
10045SOL     OW32031   7.263   8.680  10.654
10045SOL    HW132032   7.201   8.751  10.672
10045SOL    HW232033   7.231   8.641  10.573
10046SOL     OW32034   3.415   1.838   9.282
10046SOL    HW132035   3.461   1.841   9.198
10046SOL    HW232036   3.481   1.809   9.345
10047SOL     OW32037   6.675  12.929   9.881
10047SOL    HW132038   6.692  12.853   9.826
10047SOL    HW232039   6.675  13.003   9.820
10048SOL     OW32040   6.431   8.787   9.262
10048SOL    HW132041   6.439   8.867   9.209
10048SOL    HW232042   6.375   8.812   9.335
10049SOL     OW32043  11.609   1.679  11.257
10049SOL    HW132044  11.697   1.716  11.245
10049SOL    HW232045  11.610   1.598  11.206
10050SOL     OW32046   9.014   9.707   8.146
10050SOL    HW132047   9.073   9.633   8.131
10050SOL    HW232048   8.981   9.695   8.234
10051SOL     OW32049   7.710  13.376   8.160
10051SOL    HW132050   7.722  13.400   8.252
10051SOL    HW232051   7.767  13.437   8.112
10052SOL     OW32052  10.435  14.504   1.714
10052SOL    HW132053  10.355  14.455   1.731
10052SOL    HW232054  10.484  14.450   1.652
10053SOL     OW32055   2.017   6.397   4.834
10053SOL    HW132056   2.096   6.451   4.836
10053SOL    HW232057   1.969   6.422   4.914
10054SOL     OW32058  11.636   0.177  13.629
10054SOL    HW132059  11.595   0.259  13.658
10054SOL    HW232060  11.615   0.114  13.698
10055SOL     OW32061  13.428  12.597   6.856
10055SOL    HW132062  13.370  12.521   6.858
10055SOL    HW232063  13.377  12.664   6.810
10056SOL     OW32064   4.570   1.853  13.718
10056SOL    HW132065   4.573   1.919  13.649
10056SOL    HW232066   4.652   1.804  13.709
10057SOL     OW32067  14.069   0.031   1.289
10057SOL    HW132068  14.147   0.017   1.235
10057SOL    HW232069  14.101   0.030   1.379
10058SOL     OW32070   4.270  14.004   7.043
10058SOL    HW132071   4.285  14.098   7.038
10058SOL    HW232072   4.271  13.974   6.952
10059SOL     OW32073  14.559   6.245   2.469
10059SOL    HW132074  14.556   6.152   2.491
10059SOL    HW232075  14.474   6.262   2.428
10060SOL     OW32076  13.319  11.662   7.485
10060SOL    HW132077  13.311  11.574   7.449
10060SOL    HW232078  13.303  11.652   7.579
10061SOL     OW32079   9.406   3.602   8.996
10061SOL    HW132080   9.358   3.647   9.065
10061SOL    HW232081   9.367   3.635   8.915
10062SOL     OW32082   6.172   1.497  13.245
10062SOL    HW132083   6.106   1.492  13.314
10062SOL    HW232084   6.124   1.485  13.164
10063SOL     OW32085   7.298   1.917   0.765
10063SOL    HW132086   7.352   1.947   0.838
10063SOL    HW232087   7.360   1.909   0.692
10064SOL     OW32088   4.380   2.356  12.675
10064SOL    HW132089   4.416   2.285  12.728
10064SOL    HW232090   4.453   2.385  12.620
10065SOL     OW32091   7.380  10.379   0.382
10065SOL    HW132092   7.408  10.289   0.363
10065SOL    HW232093   7.449  10.434   0.345
10066SOL     OW32094   7.711   2.039   3.950
10066SOL    HW132095   7.756   2.100   3.892
10066SOL    HW232096   7.622   2.074   3.957
10067SOL     OW32097   2.014   1.136  13.859
10067SOL    HW132098   2.000   1.076  13.932
10067SOL    HW232099   1.926   1.163  13.832
10068SOL     OW32100  10.903   0.681   2.366
10068SOL    HW132101  10.972   0.743   2.389
10068SOL    HW232102  10.916   0.607   2.425
10069SOL     OW32103   1.462   1.938   8.217
10069SOL    HW132104   1.405   1.937   8.294
10069SOL    HW232105   1.412   1.985   8.151
10070SOL     OW32106   4.280   0.337   1.600
10070SOL    HW132107   4.259   0.356   1.691
10070SOL    HW232108   4.199   0.354   1.553
10071SOL     OW32109  12.740   1.949  12.610
10071SOL    HW132110  12.652   1.974  12.582
10071SOL    HW232111  12.799   2.000  12.555
10072SOL     OW32112   7.856   0.358   6.745
10072SOL    HW132113   7.906   0.391   6.671
10072SOL    HW232114   7.774   0.328   6.707
10073SOL     OW32115   4.277  11.116   1.568
10073SOL    HW132116   4.273  11.073   1.483
10073SOL    HW232117   4.305  11.047   1.628
10074SOL     OW32118   9.406  11.631   1.346
10074SOL    HW132119   9.467  11.560   1.367
10074SOL    HW232120   9.432  11.703   1.403
10075SOL     OW32121   0.524  13.762  12.376
10075SOL    HW132122   0.552  13.783  12.287
10075SOL    HW232123   0.547  13.670  12.388
10076SOL     OW32124  14.582   9.899   3.930
10076SOL    HW132125  14.623   9.954   3.864
10076SOL    HW232126  14.626   9.920   4.012
10077SOL     OW32127   7.906   7.616   4.389
10077SOL    HW132128   7.887   7.525   4.413
10077SOL    HW232129   7.930   7.658   4.472
10078SOL     OW32130   9.403   2.523   5.771
10078SOL    HW132131   9.467   2.535   5.841
10078SOL    HW232132   9.321   2.556   5.807
10079SOL     OW32133  14.030  12.815   7.221
10079SOL    HW132134  14.002  12.776   7.138
10079SOL    HW232135  14.040  12.741   7.280
10080SOL     OW32136   5.881  13.262  12.627
10080SOL    HW132137   5.893  13.168  12.641
10080SOL    HW232138   5.797  13.269  12.582
10081SOL     OW32139   0.433   3.285   8.025
10081SOL    HW132140   0.470   3.241   7.949
10081SOL    HW232141   0.342   3.256   8.027
10082SOL     OW32142   6.753  13.021  12.408
10082SOL    HW132143   6.815  12.980  12.347
10082SOL    HW232144   6.808  13.060  12.475
10083SOL     OW32145   5.178   6.540   2.417
10083SOL    HW132146   5.165   6.488   2.496
10083SOL    HW232147   5.115   6.505   2.354
10084SOL     OW32148  11.137  14.742   4.516
10084SOL    HW132149  11.203  14.675   4.496
10084SOL    HW232150  11.166  14.820   4.469
10085SOL     OW32151   4.686   1.320   4.324
10085SOL    HW132152   4.752   1.344   4.389
10085SOL    HW232153   4.653   1.235   4.354
10086SOL     OW32154  13.686   6.925   7.018
10086SOL    HW132155  13.699   6.849   7.074
10086SOL    HW232156  13.698   6.892   6.929
10087SOL     OW32157  12.791   0.873  10.432
10087SOL    HW132158  12.824   0.906  10.516
10087SOL    HW232159  12.707   0.919  10.421
10088SOL     OW32160   4.799  10.977   9.160
10088SOL    HW132161   4.839  11.015   9.238
10088SOL    HW232162   4.735  11.042   9.132
10089SOL     OW32163   0.946  11.136  14.647
10089SOL    HW132164   1.036  11.105  14.659
10089SOL    HW232165   0.909  11.139  14.736
10090SOL     OW32166  13.492  14.070   2.606
10090SOL    HW132167  13.410  14.101   2.567
10090SOL    HW232168  13.526  14.007   2.543
10091SOL     OW32169   3.481   2.272   8.217
10091SOL    HW132170   3.420   2.345   8.228
10091SOL    HW232171   3.426   2.193   8.222
10092SOL     OW32172   5.339   1.706  14.483
10092SOL    HW132173   5.357   1.615  14.506
10092SOL    HW232174   5.289   1.740  14.557
10093SOL     OW32175  14.740  14.771  13.865
10093SOL    HW132176  14.763  14.712  13.937
10093SOL    HW232177  14.746  14.859  13.902
10094SOL     OW32178   0.254   8.516   4.933
10094SOL    HW132179   0.260   8.450   5.002
10094SOL    HW232180   0.160   8.530   4.922
10095SOL     OW32181   7.324   8.904   2.191
10095SOL    HW132182   7.363   8.986   2.222
10095SOL    HW232183   7.348   8.900   2.098
10096SOL     OW32184  13.566   0.676  10.882
10096SOL    HW132185  13.592   0.741  10.817
10096SOL    HW232186  13.540   0.728  10.959
10097SOL     OW32187   2.080   3.939   7.280
10097SOL    HW132188   1.987   3.918   7.287
10097SOL    HW232189   2.092   3.968   7.190
10098SOL     OW32190   2.937  13.010  13.193
10098SOL    HW132191   2.915  13.100  13.173
10098SOL    HW232192   2.856  12.961  13.178
10099SOL     OW32193  11.776  13.662  14.621
10099SOL    HW132194  11.748  13.592  14.680
10099SOL    HW232195  11.843  13.621  14.566
10100SOL     OW32196   1.988   7.318   9.663
10100SOL    HW132197   2.032   7.308   9.579
10100SOL    HW232198   1.901   7.351   9.641
10101SOL     OW32199  13.318   3.207   6.461
10101SOL    HW132200  13.244   3.211   6.401
10101SOL    HW232201  13.302   3.277   6.525
10102SOL     OW32202   1.286   8.824  12.358
10102SOL    HW132203   1.200   8.845  12.396
10102SOL    HW232204   1.283   8.863  12.270
10103SOL     OW32205   3.602   1.817   2.637
10103SOL    HW132206   3.545   1.807   2.714
10103SOL    HW232207   3.676   1.869   2.669
10104SOL     OW32208   9.112  11.461   5.928
10104SOL    HW132209   9.090  11.432   6.017
10104SOL    HW232210   9.194  11.415   5.909
10105SOL     OW32211   8.390   2.031   4.213
10105SOL    HW132212   8.424   2.058   4.128
10105SOL    HW232213   8.375   2.113   4.260
10106SOL     OW32214   3.955   0.535   1.270
10106SOL    HW132215   3.961   0.625   1.302
10106SOL    HW232216   4.042   0.518   1.232
10107SOL     OW32217   8.835  13.614   3.690
10107SOL    HW132218   8.892  13.599   3.766
10107SOL    HW232219   8.803  13.527   3.666
10108SOL     OW32220   8.432   6.107   8.526
10108SOL    HW132221   8.481   6.030   8.552
10108SOL    HW232222   8.355   6.108   8.583
10109SOL     OW32223  10.540   5.956   0.273
10109SOL    HW132224  10.490   5.881   0.304
10109SOL    HW232225  10.595   5.921   0.203
10110SOL     OW32226   0.874  12.160   6.445
10110SOL    HW132227   0.804  12.145   6.509
10110SOL    HW232228   0.867  12.086   6.385
10111SOL     OW32229   2.392  11.908  11.096
10111SOL    HW132230   2.477  11.873  11.122
10111SOL    HW232231   2.405  12.002  11.091
10112SOL     OW32232   6.766  12.132   0.216
10112SOL    HW132233   6.754  12.059   0.154
10112SOL    HW232234   6.856  12.122   0.247
10113SOL     OW32235   3.369   2.674   0.347
10113SOL    HW132236   3.361   2.769   0.355
10113SOL    HW232237   3.456   2.660   0.311
10114SOL     OW32238   7.923  11.286   6.259
10114SOL    HW132239   7.908  11.194   6.280
10114SOL    HW232240   7.958  11.324   6.340
10115SOL     OW32241   2.374   7.999  14.526
10115SOL    HW132242   2.304   7.970  14.584
10115SOL    HW232243   2.333   8.002  14.439
10116SOL     OW32244   2.901   9.365   0.791
10116SOL    HW132245   2.962   9.425   0.748
10116SOL    HW232246   2.880   9.408   0.874
10117SOL     OW32247   7.090   0.312   4.866
10117SOL    HW132248   7.153   0.318   4.794
10117SOL    HW232249   7.006   0.296   4.823
10118SOL     OW32250   2.095   8.938   4.818
10118SOL    HW132251   2.017   8.992   4.801
10118SOL    HW232252   2.144   8.988   4.883
10119SOL     OW32253  11.536   6.875   7.773
10119SOL    HW132254  11.449   6.916   7.777
10119SOL    HW232255  11.533   6.822   7.693
10120SOL     OW32256   4.742   6.379   2.357
10120SOL    HW132257   4.691   6.453   2.390
10120SOL    HW232258   4.806   6.362   2.426
10121SOL     OW32259  14.196  10.706  11.970
10121SOL    HW132260  14.261  10.657  11.919
10121SOL    HW232261  14.181  10.785  11.919
10122SOL     OW32262   6.657   2.561  13.257
10122SOL    HW132263   6.627   2.613  13.332
10122SOL    HW232264   6.739   2.522  13.286
10123SOL     OW32265  11.963  10.863   6.053
10123SOL    HW132266  11.906  10.933   6.022
10123SOL    HW232267  11.952  10.863   6.148
10124SOL     OW32268  10.576   8.595   5.855
10124SOL    HW132269  10.640   8.611   5.924
10124SOL    HW232270  10.618   8.624   5.775
10125SOL     OW32271   8.754   5.271  14.254
10125SOL    HW132272   8.743   5.320  14.172
10125SOL    HW232273   8.762   5.179  14.226
10126SOL     OW32274   9.122   8.915  14.080
10126SOL    HW132275   9.092   9.006  14.080
10126SOL    HW232276   9.080   8.876  14.003
10127SOL     OW32277   3.955  11.302   5.815
10127SOL    HW132278   4.033  11.358   5.822
10127SOL    HW232279   3.929  11.286   5.906
10128SOL     OW32280   0.438   4.415  14.585
10128SOL    HW132281   0.532   4.431  14.587
10128SOL    HW232282   0.400   4.487  14.636
10129SOL     OW32283   8.120   7.419   6.702
10129SOL    HW132284   8.113   7.395   6.609
10129SOL    HW232285   8.067   7.354   6.748
10130SOL     OW32286   2.265   8.227   6.396
10130SOL    HW132287   2.311   8.227   6.480
10130SOL    HW232288   2.175   8.202   6.418
10131SOL     OW32289   7.442  11.593  11.364
10131SOL    HW132290   7.476  11.620  11.278
10131SOL    HW232291   7.401  11.671  11.399
10132SOL     OW32292   7.029   5.421  10.206
10132SOL    HW132293   7.027   5.338  10.253
10132SOL    HW232294   6.951   5.420  10.151
10133SOL     OW32295   5.343   0.619  12.223
10133SOL    HW132296   5.408   0.548  12.228
10133SOL    HW232297   5.351   0.664  12.307
10134SOL     OW32298  11.380   8.292   2.024
10134SOL    HW132299  11.446   8.325   2.084
10134SOL    HW232300  11.414   8.207   1.996
10135SOL     OW32301   1.784   7.198   6.285
10135SOL    HW132302   1.712   7.222   6.226
10135SOL    HW232303   1.755   7.117   6.327
10136SOL     OW32304  14.606  14.228   3.461
10136SOL    HW132305  14.689  14.192   3.493
10136SOL    HW232306  14.551  14.234   3.539
10137SOL     OW32307   3.482  11.682  14.470
10137SOL    HW132308   3.571  11.714  14.489
10137SOL    HW232309   3.452  11.738  14.398
10138SOL     OW32310   3.310  13.612  13.068
10138SOL    HW132311   3.247  13.542  13.076
10138SOL    HW232312   3.287  13.657  12.986
10139SOL     OW32313   5.025  13.625  14.230
10139SOL    HW132314   4.931  13.620  14.215
10139SOL    HW232315   5.043  13.719  14.237
10140SOL     OW32316  10.468   8.124   3.161
10140SOL    HW132317  10.421   8.202   3.191
10140SOL    HW232318  10.528   8.156   3.094
10141SOL     OW32319   5.846  14.293  10.955
10141SOL    HW132320   5.765  14.252  10.984
10141SOL    HW232321   5.916  14.236  10.986
10142SOL     OW32322  13.909   1.632  13.632
10142SOL    HW132323  13.878   1.677  13.711
10142SOL    HW232324  13.928   1.702  13.570
10143SOL     OW32325   6.848   4.990   0.237
10143SOL    HW132326   6.844   5.058   0.170
10143SOL    HW232327   6.865   4.909   0.188
10144SOL     OW32328   0.747   0.573   4.323
10144SOL    HW132329   0.812   0.584   4.254
10144SOL    HW232330   0.663   0.590   4.280
10145SOL     OW32331   7.747   5.417   7.768
10145SOL    HW132332   7.687   5.358   7.813
10145SOL    HW232333   7.739   5.500   7.815
10146SOL     OW32334   7.214  12.569   7.888
10146SOL    HW132335   7.239  12.635   7.823
10146SOL    HW232336   7.143  12.610   7.937
10147SOL     OW32337   8.747   9.978   6.067
10147SOL    HW132338   8.672   9.945   6.017
10147SOL    HW232339   8.801   9.901   6.082
10148SOL     OW32340   6.532  12.278   4.861
10148SOL    HW132341   6.585  12.258   4.783
10148SOL    HW232342   6.575  12.230   4.932
10149SOL     OW32343   9.844   8.490   8.675
10149SOL    HW132344   9.820   8.572   8.718
10149SOL    HW232345   9.843   8.510   8.582
10150SOL     OW32346   3.439  12.636  10.579
10150SOL    HW132347   3.513  12.696  10.572
10150SOL    HW232348   3.379  12.665  10.510
10151SOL     OW32349   0.340  10.741   7.146
10151SOL    HW132350   0.283  10.736   7.069
10151SOL    HW232351   0.428  10.751   7.110
10152SOL     OW32352  10.329  14.491   4.039
10152SOL    HW132353  10.296  14.491   4.128
10152SOL    HW232354  10.412  14.538   4.044
10153SOL     OW32355  11.733   1.544  12.780
10153SOL    HW132356  11.758   1.545  12.688
10153SOL    HW232357  11.698   1.456  12.795
10154SOL     OW32358   8.671   2.409   6.790
10154SOL    HW132359   8.724   2.395   6.712
10154SOL    HW232360   8.606   2.474   6.764
10155SOL     OW32361  14.787   9.135   8.643
10155SOL    HW132362  14.717   9.073   8.663
10155SOL    HW232363  14.747   9.196   8.581
10156SOL     OW32364   7.873   6.903   2.024
10156SOL    HW132365   7.928   6.954   2.082
10156SOL    HW232366   7.787   6.902   2.067
10157SOL     OW32367   5.109   2.148   7.083
10157SOL    HW132368   5.036   2.137   7.144
10157SOL    HW232369   5.187   2.134   7.136
10158SOL     OW32370   1.299   4.238   9.027
10158SOL    HW132371   1.372   4.178   9.039
10158SOL    HW232372   1.267   4.255   9.116
10159SOL     OW32373   7.253   8.582   4.693
10159SOL    HW132374   7.207   8.652   4.739
10159SOL    HW232375   7.185   8.534   4.647
10160SOL     OW32376   1.551   7.717   0.116
10160SOL    HW132377   1.546   7.775   0.040
10160SOL    HW232378   1.491   7.645   0.094
10161SOL     OW32379  12.062  10.990   0.930
10161SOL    HW132380  12.132  10.944   0.883
10161SOL    HW232381  12.020  11.044   0.863
10162SOL     OW32382   0.747   1.439  12.594
10162SOL    HW132383   0.759   1.344  12.593
10162SOL    HW232384   0.785   1.467  12.677
10163SOL     OW32385   2.863  12.281   1.809
10163SOL    HW132386   2.821  12.196   1.795
10163SOL    HW232387   2.896  12.305   1.722
10164SOL     OW32388  12.741  13.801   4.172
10164SOL    HW132389  12.698  13.886   4.173
10164SOL    HW232390  12.679  13.742   4.213
10165SOL     OW32391   9.183   7.443   7.343
10165SOL    HW132392   9.177   7.473   7.433
10165SOL    HW232393   9.245   7.503   7.301
10166SOL     OW32394   6.476   0.697   5.782
10166SOL    HW132395   6.413   0.629   5.804
10166SOL    HW232396   6.423   0.773   5.757
10167SOL     OW32397   3.366  11.300   6.072
10167SOL    HW132398   3.284  11.285   6.025
10167SOL    HW232399   3.426  11.233   6.039
10168SOL     OW32400   3.350   8.251   2.935
10168SOL    HW132401   3.424   8.231   2.878
10168SOL    HW232402   3.304   8.322   2.891
10169SOL     OW32403  11.842   6.768  13.739
10169SOL    HW132404  11.902   6.697  13.717
10169SOL    HW232405  11.838   6.823  13.661
10170SOL     OW32406   0.407  12.416  11.562
10170SOL    HW132407   0.360  12.351  11.510
10170SOL    HW232408   0.481  12.369  11.599
10171SOL     OW32409  11.848  11.420   0.381
10171SOL    HW132410  11.758  11.454   0.379
10171SOL    HW232411  11.856  11.379   0.467
10172SOL     OW32412  10.202  11.795  10.718
10172SOL    HW132413  10.165  11.854  10.653
10172SOL    HW232414  10.291  11.778  10.689
10173SOL     OW32415   0.157  13.729  10.733
10173SOL    HW132416   0.128  13.789  10.800
10173SOL    HW232417   0.085  13.724  10.671
10174SOL     OW32418   5.404   5.184   7.533
10174SOL    HW132419   5.387   5.238   7.455
10174SOL    HW232420   5.335   5.209   7.595
10175SOL     OW32421   8.557  13.733   4.707
10175SOL    HW132422   8.504  13.723   4.629
10175SOL    HW232423   8.494  13.746   4.778
10176SOL     OW32424   9.431  13.341   4.592
10176SOL    HW132425   9.434  13.429   4.553
10176SOL    HW232426   9.351  13.302   4.556
10177SOL     OW32427   8.499   7.336   7.119
10177SOL    HW132428   8.471   7.374   7.202
10177SOL    HW232429   8.447   7.382   7.053
10178SOL     OW32430   5.554  13.685   2.529
10178SOL    HW132431   5.602  13.633   2.593
10178SOL    HW232432   5.622  13.729   2.478
10179SOL     OW32433  12.059   1.627  11.513
10179SOL    HW132434  11.968   1.612  11.539
10179SOL    HW232435  12.062   1.607  11.420
10180SOL     OW32436  11.326   5.471  14.458
10180SOL    HW132437  11.251   5.511  14.503
10180SOL    HW232438  11.287   5.423  14.385
10181SOL     OW32439  14.462  12.967   6.539
10181SOL    HW132440  14.557  12.982   6.536
10181SOL    HW232441  14.438  12.946   6.449
10182SOL     OW32442   9.598   1.766  14.038
10182SOL    HW132443   9.549   1.813  13.970
10182SOL    HW232444   9.653   1.834  14.078
10183SOL     OW32445   5.220  13.534   8.670
10183SOL    HW132446   5.189  13.622   8.650
10183SOL    HW232447   5.140  13.481   8.673
10184SOL     OW32448   2.349   0.002  12.741
10184SOL    HW132449   2.363  14.814  12.678
10184SOL    HW232450   2.313   0.074  12.689
10185SOL     OW32451   0.125   3.704   0.056
10185SOL    HW132452   0.219   3.718   0.051
10185SOL    HW232453   0.115   3.609   0.064
10186SOL     OW32454   3.870   6.198   6.883
10186SOL    HW132455   3.829   6.207   6.797
10186SOL    HW232456   3.934   6.128   6.872
10187SOL     OW32457   1.512   0.716  13.469
10187SOL    HW132458   1.571   0.782  13.506
10187SOL    HW232459   1.557   0.633  13.482
10188SOL     OW32460   7.169   6.480   6.021
10188SOL    HW132461   7.174   6.497   5.927
10188SOL    HW232462   7.260   6.467   6.047
10189SOL     OW32463  11.478   1.611  12.296
10189SOL    HW132464  11.565   1.626  12.260
10189SOL    HW232465  11.421   1.669  12.245
10190SOL     OW32466   2.594   9.752   6.569
10190SOL    HW132467   2.539   9.810   6.517
10190SOL    HW232468   2.605   9.674   6.515
10191SOL     OW32469   0.093   0.947   0.436
10191SOL    HW132470   0.094   0.852   0.453
10191SOL    HW232471   0.151   0.958   0.361
10192SOL     OW32472   9.190  12.425   2.198
10192SOL    HW132473   9.273  12.458   2.235
10192SOL    HW232474   9.168  12.488   2.129
10193SOL     OW32475  13.684  14.812   6.277
10193SOL    HW132476  13.736  14.742   6.238
10193SOL    HW232477  13.635  14.850   6.204
10194SOL     OW32478   6.466   2.187   8.623
10194SOL    HW132479   6.552   2.145   8.635
10194SOL    HW232480   6.403   2.119   8.648
10195SOL     OW32481  10.123   1.313  11.378
10195SOL    HW132482  10.096   1.251  11.446
10195SOL    HW232483  10.130   1.259  11.299
10196SOL     OW32484   1.207  10.466   8.763
10196SOL    HW132485   1.262  10.543   8.743
10196SOL    HW232486   1.270  10.399   8.789
10197SOL     OW32487   9.297   8.634   9.451
10197SOL    HW132488   9.269   8.543   9.465
10197SOL    HW232489   9.390   8.627   9.431
10198SOL     OW32490   4.585   3.271  10.873
10198SOL    HW132491   4.523   3.304  10.938
10198SOL    HW232492   4.588   3.338  10.805
10199SOL     OW32493  13.413   7.416   4.906
10199SOL    HW132494  13.408   7.424   5.001
10199SOL    HW232495  13.339   7.467   4.873
10200SOL     OW32496  14.343  14.055  14.808
10200SOL    HW132497  14.266  14.021  14.853
10200SOL    HW232498  14.346  14.007  14.725
10201SOL     OW32499  12.024   7.400   8.213
10201SOL    HW132500  11.993   7.315   8.244
10201SOL    HW232501  12.050   7.446   8.293
10202SOL     OW32502   7.078   8.040  14.533
10202SOL    HW132503   7.085   8.027  14.439
10202SOL    HW232504   7.012   7.976  14.562
10203SOL     OW32505   6.283  12.426   3.637
10203SOL    HW132506   6.270  12.420   3.732
10203SOL    HW232507   6.301  12.336   3.610
10204SOL     OW32508   8.724   5.968   4.878
10204SOL    HW132509   8.683   5.882   4.886
10204SOL    HW232510   8.650   6.029   4.869
10205SOL     OW32511  13.267  11.092   2.953
10205SOL    HW132512  13.282  11.149   2.878
10205SOL    HW232513  13.312  11.134   3.025
10206SOL     OW32514   9.214  14.096   2.333
10206SOL    HW132515   9.273  14.106   2.407
10206SOL    HW232516   9.158  14.174   2.336
10207SOL     OW32517   0.280  11.218   4.239
10207SOL    HW132518   0.260  11.124   4.237
10207SOL    HW232519   0.272  11.242   4.331
10208SOL     OW32520   3.034   0.663   9.676
10208SOL    HW132521   2.970   0.731   9.657
10208SOL    HW232522   3.085   0.698   9.749
10209SOL     OW32523  11.638   8.980  10.814
10209SOL    HW132524  11.684   9.003  10.895
10209SOL    HW232525  11.665   8.889  10.797
10210SOL     OW32526  14.583   1.830  14.449
10210SOL    HW132527  14.627   1.880  14.518
10210SOL    HW232528  14.542   1.896  14.394
10211SOL     OW32529   4.549   5.476   9.041
10211SOL    HW132530   4.616   5.425   8.995
10211SOL    HW232531   4.593   5.557   9.066
10212SOL     OW32532   0.944   5.240   4.554
10212SOL    HW132533   0.880   5.201   4.614
10212SOL    HW232534   0.945   5.333   4.577
10213SOL     OW32535  12.506   8.735   4.714
10213SOL    HW132536  12.435   8.673   4.699
10213SOL    HW232537  12.559   8.730   4.634
10214SOL     OW32538   6.377   3.675   3.363
10214SOL    HW132539   6.351   3.680   3.271
10214SOL    HW232540   6.426   3.756   3.379
10215SOL     OW32541  12.926   2.909   1.363
10215SOL    HW132542  12.916   2.849   1.289
10215SOL    HW232543  13.021   2.921   1.372
10216SOL     OW32544   4.065   1.136   5.857
10216SOL    HW132545   4.074   1.040   5.857
10216SOL    HW232546   4.103   1.163   5.940
10217SOL     OW32547   3.215   2.842   1.579
10217SOL    HW132548   3.298   2.794   1.583
10217SOL    HW232549   3.207   2.882   1.666
10218SOL     OW32550   2.800  11.266  12.909
10218SOL    HW132551   2.889  11.278  12.942
10218SOL    HW232552   2.806  11.283  12.815
10219SOL     OW32553   2.543   1.297   3.728
10219SOL    HW132554   2.533   1.205   3.702
10219SOL    HW232555   2.531   1.346   3.647
10220SOL     OW32556   9.839   6.737   5.067
10220SOL    HW132557   9.806   6.756   4.979
10220SOL    HW232558   9.828   6.819   5.115
10221SOL     OW32559   3.683   9.538   4.335
10221SOL    HW132560   3.765   9.491   4.320
10221SOL    HW232561   3.638   9.536   4.251
10222SOL     OW32562   9.704   6.194   1.190
10222SOL    HW132563   9.731   6.286   1.185
10222SOL    HW232564   9.615   6.197   1.224
10223SOL     OW32565   5.929   6.155   6.546
10223SOL    HW132566   5.961   6.076   6.588
10223SOL    HW232567   5.848   6.127   6.502
10224SOL     OW32568   4.047   3.745   4.070
10224SOL    HW132569   4.079   3.830   4.100
10224SOL    HW232570   4.017   3.701   4.149
10225SOL     OW32571   9.028   2.387   6.752
10225SOL    HW132572   8.972   2.318   6.716
10225SOL    HW232573   9.108   2.342   6.778
10226SOL     OW32574   1.136   1.071   5.650
10226SOL    HW132575   1.226   1.104   5.639
10226SOL    HW232576   1.102   1.063   5.561
10227SOL     OW32577   0.660   3.748   4.767
10227SOL    HW132578   0.600   3.806   4.719
10227SOL    HW232579   0.727   3.806   4.802
10228SOL     OW32580  12.363   9.234  13.248
10228SOL    HW132581  12.402   9.153  13.213
10228SOL    HW232582  12.426   9.302  13.226
10229SOL     OW32583   0.168   5.882   0.011
10229SOL    HW132584   0.212   5.799   0.029
10229SOL    HW232585   0.083   5.856  14.857
10230SOL     OW32586   3.837   2.437   6.052
10230SOL    HW132587   3.812   2.394   5.971
10230SOL    HW232588   3.933   2.433   6.053
10231SOL     OW32589   6.982   7.315   5.200
10231SOL    HW132590   7.070   7.316   5.162
10231SOL    HW232591   6.927   7.357   5.134
10232SOL     OW32592  14.209   6.485   7.123
10232SOL    HW132593  14.227   6.470   7.030
10232SOL    HW232594  14.294   6.505   7.162
10233SOL     OW32595   7.723   8.484   1.053
10233SOL    HW132596   7.813   8.454   1.069
10233SOL    HW232597   7.677   8.406   1.021
10234SOL     OW32598  12.042  13.434   1.705
10234SOL    HW132599  12.022  13.382   1.627
10234SOL    HW232600  12.125  13.478   1.684
10235SOL     OW32601  11.573   3.625   6.328
10235SOL    HW132602  11.598   3.702   6.277
10235SOL    HW232603  11.630   3.555   6.297
10236SOL     OW32604   1.854   1.423   9.919
10236SOL    HW132605   1.823   1.395   9.833
10236SOL    HW232606   1.779   1.410   9.977
10237SOL     OW32607   5.946   9.918  13.566
10237SOL    HW132608   5.886   9.964  13.625
10237SOL    HW232609   5.960   9.979  13.494
10238SOL     OW32610   9.573   7.914  14.621
10238SOL    HW132611   9.631   7.949  14.688
10238SOL    HW232612   9.511   7.859  14.670
10239SOL     OW32613   4.219  12.400   3.623
10239SOL    HW132614   4.274  12.426   3.549
10239SOL    HW232615   4.280  12.394   3.697
10240SOL     OW32616   3.137   1.626   1.483
10240SOL    HW132617   3.091   1.555   1.439
10240SOL    HW232618   3.084   1.644   1.561
10241SOL     OW32619   1.515  12.410   4.232
10241SOL    HW132620   1.504  12.470   4.306
10241SOL    HW232621   1.434  12.420   4.181
10242SOL     OW32622   0.002   9.963   1.113
10242SOL    HW132623   0.033  10.050   1.086
10242SOL    HW232624  14.831   9.933   1.040
10243SOL     OW32625  11.251  13.273   5.315
10243SOL    HW132626  11.194  13.335   5.360
10243SOL    HW232627  11.234  13.189   5.358
10244SOL     OW32628   6.361  11.579  12.455
10244SOL    HW132629   6.385  11.635  12.528
10244SOL    HW232630   6.403  11.495  12.474
10245SOL     OW32631  11.775   5.157   9.868
10245SOL    HW132632  11.850   5.147   9.810
10245SOL    HW232633  11.743   5.246   9.850
10246SOL     OW32634   5.243   7.525  12.010
10246SOL    HW132635   5.282   7.447  11.970
10246SOL    HW232636   5.149   7.508  12.010
10247SOL     OW32637  12.825  12.874   7.739
10247SOL    HW132638  12.767  12.846   7.669
10247SOL    HW232639  12.800  12.966   7.755
10248SOL     OW32640   1.579   3.405  12.936
10248SOL    HW132641   1.609   3.331  12.988
10248SOL    HW232642   1.510   3.445  12.989
10249SOL     OW32643   5.464  12.512   5.650
10249SOL    HW132644   5.429  12.499   5.562
10249SOL    HW232645   5.557  12.531   5.636
10250SOL     OW32646   0.624  13.124   4.850
10250SOL    HW132647   0.659  13.178   4.779
10250SOL    HW232648   0.533  13.152   4.858
10251SOL     OW32649   8.031   1.902  10.548
10251SOL    HW132650   8.016   1.991  10.579
10251SOL    HW232651   7.967   1.890  10.478
10252SOL     OW32652   7.210  14.140   3.250
10252SOL    HW132653   7.201  14.235   3.260
10252SOL    HW232654   7.156  14.103   3.320
10253SOL     OW32655  11.139   5.197   9.778
10253SOL    HW132656  11.158   5.120   9.830
10253SOL    HW232657  11.156   5.271   9.837
10254SOL     OW32658   8.983  10.157   5.529
10254SOL    HW132659   8.902  10.115   5.558
10254SOL    HW232660   9.048  10.131   5.594
10255SOL     OW32661  14.738   7.980   6.959
10255SOL    HW132662  14.829   8.004   6.978
10255SOL    HW232663  14.724   7.899   7.008
10256SOL     OW32664   8.019   2.947   7.150
10256SOL    HW132665   7.950   2.894   7.190
10256SOL    HW232666   7.994   3.038   7.169
10257SOL     OW32667   1.755   2.998  12.078
10257SOL    HW132668   1.701   2.970  12.004
10257SOL    HW232669   1.837   2.950  12.067
10258SOL     OW32670   9.692   0.350   0.072
10258SOL    HW132671   9.622   0.415   0.083
10258SOL    HW232672   9.760   0.378   0.132
10259SOL     OW32673   2.448  13.685   9.416
10259SOL    HW132674   2.488  13.614   9.365
10259SOL    HW232675   2.382  13.721   9.358
10260SOL     OW32676   6.212  13.187   9.980
10260SOL    HW132677   6.234  13.168  10.071
10260SOL    HW232678   6.239  13.278   9.967
10261SOL     OW32679   5.788   9.828   3.091
10261SOL    HW132680   5.824   9.906   3.049
10261SOL    HW232681   5.840   9.819   3.171
10262SOL     OW32682   6.740   2.158   4.002
10262SOL    HW132683   6.722   2.119   4.087
10262SOL    HW232684   6.827   2.196   4.011
10263SOL     OW32685   7.236   1.898  10.498
10263SOL    HW132686   7.212   1.956  10.425
10263SOL    HW232687   7.216   1.810  10.467
10264SOL     OW32688   1.553   0.296  13.387
10264SOL    HW132689   1.541   0.205  13.414
10264SOL    HW232690   1.466   0.334  13.391
10265SOL     OW32691   9.083  13.456   5.124
10265SOL    HW132692   9.035  13.374   5.113
10265SOL    HW232693   9.159  13.447   5.067
10266SOL     OW32694  12.589   7.515  14.191
10266SOL    HW132695  12.552   7.501  14.278
10266SOL    HW232696  12.611   7.608  14.189
10267SOL     OW32697  14.455   0.269  13.491
10267SOL    HW132698  14.404   0.244  13.414
10267SOL    HW232699  14.394   0.259  13.565
10268SOL     OW32700   0.001   1.584  14.281
10268SOL    HW132701   0.009   1.536  14.199
10268SOL    HW232702   0.010   1.676  14.256
10269SOL     OW32703   6.984   5.411  11.711
10269SOL    HW132704   7.019   5.355  11.642
10269SOL    HW232705   6.982   5.355  11.789
10270SOL     OW32706   0.917   2.389   6.132
10270SOL    HW132707   0.998   2.356   6.093
10270SOL    HW232708   0.944   2.424   6.217
10271SOL     OW32709   8.007   1.261   2.652
10271SOL    HW132710   7.993   1.178   2.697
10271SOL    HW232711   8.017   1.237   2.560
10272SOL     OW32712  11.041   8.988  10.814
10272SOL    HW132713  11.053   8.899  10.782
10272SOL    HW232714  11.129   9.026  10.814
10273SOL     OW32715   3.796  10.577   9.398
10273SOL    HW132716   3.854  10.652   9.388
10273SOL    HW232717   3.775  10.551   9.309
10274SOL     OW32718  14.582  10.697   7.103
10274SOL    HW132719  14.536  10.627   7.057
10274SOL    HW232720  14.535  10.777   7.079
10275SOL     OW32721   1.392  12.677   2.899
10275SOL    HW132722   1.298  12.665   2.903
10275SOL    HW232723   1.407  12.722   2.816
10276SOL     OW32724  13.153   8.631   1.344
10276SOL    HW132725  13.206   8.621   1.265
10276SOL    HW232726  13.089   8.698   1.322
10277SOL     OW32727   5.594   5.789   4.185
10277SOL    HW132728   5.619   5.834   4.266
10277SOL    HW232729   5.501   5.770   4.197
10278SOL     OW32730  13.501   7.655   8.623
10278SOL    HW132731  13.482   7.627   8.713
10278SOL    HW232732  13.419   7.642   8.576
10279SOL     OW32733  11.743   6.613   3.054
10279SOL    HW132734  11.756   6.518   3.050
10279SOL    HW232735  11.765   6.643   2.965
10280SOL     OW32736   2.965  12.124   2.314
10280SOL    HW132737   3.013  12.205   2.292
10280SOL    HW232738   3.021  12.079   2.377
10281SOL     OW32739   9.596   5.219   8.130
10281SOL    HW132740   9.644   5.172   8.062
10281SOL    HW232741   9.513   5.173   8.137
10282SOL     OW32742   7.914  13.340   2.424
10282SOL    HW132743   7.849  13.408   2.440
10282SOL    HW232744   7.927  13.299   2.509
10283SOL     OW32745   4.080  13.480   7.468
10283SOL    HW132746   3.985  13.491   7.465
10283SOL    HW232747   4.094  13.386   7.461
10284SOL     OW32748   2.823   7.590   5.679
10284SOL    HW132749   2.822   7.549   5.765
10284SOL    HW232750   2.739   7.566   5.640
10285SOL     OW32751  13.168  10.457  14.576
10285SOL    HW132752  13.157  10.516  14.502
10285SOL    HW232753  13.091  10.475  14.631
10286SOL     OW32754   5.219  10.347   6.376
10286SOL    HW132755   5.265  10.426   6.404
10286SOL    HW232756   5.209  10.358   6.281
10287SOL     OW32757  13.765  12.772   2.469
10287SOL    HW132758  13.802  12.857   2.493
10287SOL    HW232759  13.673  12.778   2.494
10288SOL     OW32760   7.723   3.779   1.322
10288SOL    HW132761   7.784   3.837   1.369
10288SOL    HW232762   7.668   3.839   1.271
10289SOL     OW32763  14.073  11.968   8.647
10289SOL    HW132764  14.072  11.920   8.730
10289SOL    HW232765  13.989  11.949   8.606
10290SOL     OW32766   0.077   8.790   9.349
10290SOL    HW132767   0.076   8.878   9.312
10290SOL    HW232768   0.169   8.775   9.373
10291SOL     OW32769   9.482   1.656  12.619
10291SOL    HW132770   9.460   1.684  12.531
10291SOL    HW232771   9.481   1.737  12.671
10292SOL     OW32772   6.536   3.894  13.160
10292SOL    HW132773   6.446   3.917  13.183
10292SOL    HW232774   6.591   3.954  13.211
10293SOL     OW32775   7.767  10.343  12.982
10293SOL    HW132776   7.685  10.296  12.994
10293SOL    HW232777   7.774  10.355  12.887
10294SOL     OW32778  11.175   9.863   4.623
10294SOL    HW132779  11.250   9.817   4.660
10294SOL    HW232780  11.115   9.794   4.596
10295SOL     OW32781  13.969  12.470  12.518
10295SOL    HW132782  14.006  12.403  12.577
10295SOL    HW232783  14.045  12.519  12.487
10296SOL     OW32784   3.084   9.268   0.190
10296SOL    HW132785   3.028   9.290   0.264
10296SOL    HW232786   3.054   9.181   0.162
10297SOL     OW32787   1.502   9.828   7.261
10297SOL    HW132788   1.472   9.739   7.241
10297SOL    HW232789   1.449   9.856   7.335
10298SOL     OW32790   2.305   4.968  13.342
10298SOL    HW132791   2.326   4.883  13.303
10298SOL    HW232792   2.214   4.984  13.317
10299SOL     OW32793  12.413   8.029   7.815
10299SOL    HW132794  12.319   8.028   7.834
10299SOL    HW232795  12.450   7.967   7.878
10300SOL     OW32796  14.776   8.496  14.629
10300SOL    HW132797  14.868   8.497  14.658
10300SOL    HW232798  14.770   8.419  14.573
10301SOL     OW32799   8.094   1.924  13.725
10301SOL    HW132800   8.185   1.949  13.737
10301SOL    HW232801   8.045   1.986  13.779
10302SOL     OW32802   4.848   3.559   3.302
10302SOL    HW132803   4.795   3.486   3.334
10302SOL    HW232804   4.807   3.584   3.219
10303SOL     OW32805   9.433  13.828   6.064
10303SOL    HW132806   9.387  13.843   5.982
10303SOL    HW232807   9.365  13.797   6.124
10304SOL     OW32808   4.651   8.290   5.271
10304SOL    HW132809   4.658   8.355   5.341
10304SOL    HW232810   4.717   8.224   5.294
10305SOL     OW32811  10.908  10.761   2.739
10305SOL    HW132812  10.823  10.778   2.780
10305SOL    HW232813  10.972  10.782   2.807
10306SOL     OW32814  11.748   4.642   6.400
10306SOL    HW132815  11.813   4.639   6.470
10306SOL    HW232816  11.746   4.552   6.366
10307SOL     OW32817   3.646   0.409  10.695
10307SOL    HW132818   3.686   0.406  10.608
10307SOL    HW232819   3.676   0.491  10.732
10308SOL     OW32820   4.173   6.327   0.122
10308SOL    HW132821   4.226   6.269   0.177
10308SOL    HW232822   4.198   6.306   0.032
10309SOL     OW32823   3.521   7.590   6.615
10309SOL    HW132824   3.501   7.671   6.663
10309SOL    HW232825   3.502   7.612   6.524
10310SOL     OW32826   0.563  10.366   3.984
10310SOL    HW132827   0.485  10.410   4.019
10310SOL    HW232828   0.528  10.298   3.926
10311SOL     OW32829   8.968   4.033  14.211
10311SOL    HW132830   8.898   3.978  14.245
10311SOL    HW232831   8.934   4.069  14.130
10312SOL     OW32832  10.531  10.253   1.404
10312SOL    HW132833  10.478  10.332   1.412
10312SOL    HW232834  10.483  10.198   1.342
10313SOL     OW32835   9.322   1.751  14.489
10313SOL    HW132836   9.403   1.753  14.539
10313SOL    HW232837   9.257   1.789  14.548
10314SOL     OW32838  10.085  12.470   2.543
10314SOL    HW132839  10.071  12.382   2.578
10314SOL    HW232840  10.025  12.475   2.468
10315SOL     OW32841   3.012   0.422   6.557
10315SOL    HW132842   3.051   0.483   6.620
10315SOL    HW232843   2.951   0.370   6.609
10316SOL     OW32844   6.156   5.320   1.586
10316SOL    HW132845   6.172   5.229   1.609
10316SOL    HW232846   6.137   5.363   1.670
10317SOL     OW32847  12.923  13.789   7.920
10317SOL    HW132848  12.872  13.824   7.993
10317SOL    HW232849  13.007  13.765   7.959
10318SOL     OW32850   2.912   8.456   1.782
10318SOL    HW132851   2.963   8.532   1.753
10318SOL    HW232852   2.828   8.466   1.738
10319SOL     OW32853  11.117   2.188   9.971
10319SOL    HW132854  11.205   2.153   9.959
10319SOL    HW232855  11.071   2.165   9.891
10320SOL     OW32856   8.439   3.053   2.422
10320SOL    HW132857   8.458   3.145   2.440
10320SOL    HW232858   8.444   3.046   2.327
10321SOL     OW32859  14.534   1.237   7.583
10321SOL    HW132860  14.536   1.321   7.537
10321SOL    HW232861  14.625   1.209   7.585
10322SOL     OW32862   2.877  11.617  11.283
10322SOL    HW132863   2.936  11.550  11.317
10322SOL    HW232864   2.903  11.697  11.329
10323SOL     OW32865   7.566  13.647   3.282
10323SOL    HW132866   7.611  13.696   3.214
10323SOL    HW232867   7.480  13.626   3.244
10324SOL     OW32868   1.651   4.434   9.748
10324SOL    HW132869   1.643   4.529   9.741
10324SOL    HW232870   1.561   4.403   9.761
10325SOL     OW32871   6.377  13.951   8.740
10325SOL    HW132872   6.319  14.004   8.795
10325SOL    HW232873   6.321  13.880   8.708
10326SOL     OW32874   3.842   4.028   4.022
10326SOL    HW132875   3.847   3.949   3.968
10326SOL    HW232876   3.931   4.040   4.055
10327SOL     OW32877   0.909   8.029   2.627
10327SOL    HW132878   0.829   7.980   2.610
10327SOL    HW232879   0.972   7.963   2.655
10328SOL     OW32880   3.493   3.818   6.667
10328SOL    HW132881   3.530   3.731   6.650
10328SOL    HW232882   3.415   3.822   6.612
10329SOL     OW32883  14.710   8.839  13.876
10329SOL    HW132884  14.776   8.777  13.904
10329SOL    HW232885  14.686   8.888  13.955
10330SOL     OW32886  12.392   9.549  13.627
10330SOL    HW132887  12.409   9.641  13.609
10330SOL    HW232888  12.306   9.548  13.669
10331SOL     OW32889   4.932   8.268   2.195
10331SOL    HW132890   4.943   8.205   2.267
10331SOL    HW232891   4.940   8.215   2.116
10332SOL     OW32892   3.367  13.315  11.613
10332SOL    HW132893   3.278  13.300  11.646
10332SOL    HW232894   3.424  13.299  11.688
10333SOL     OW32895  14.438   8.377  10.511
10333SOL    HW132896  14.494   8.346  10.583
10333SOL    HW232897  14.352   8.339  10.530
10334SOL     OW32898   2.507   5.138  13.446
10334SOL    HW132899   2.466   5.179  13.522
10334SOL    HW232900   2.449   5.065  13.423
10335SOL     OW32901   4.870  13.375   4.216
10335SOL    HW132902   4.787  13.401   4.177
10335SOL    HW232903   4.936  13.401   4.152
10336SOL     OW32904   0.812   5.535   8.013
10336SOL    HW132905   0.893   5.483   8.018
10336SOL    HW232906   0.745   5.473   7.986
10337SOL     OW32907  10.988   6.928  13.150
10337SOL    HW132908  10.985   6.941  13.055
10337SOL    HW232909  10.898   6.942  13.179
10338SOL     OW32910   1.005  12.721  13.516
10338SOL    HW132911   1.027  12.630  13.497
10338SOL    HW232912   1.021  12.767  13.433
10339SOL     OW32913  11.700   2.556   7.220
10339SOL    HW132914  11.691   2.598   7.134
10339SOL    HW232915  11.735   2.469   7.201
10340SOL     OW32916   5.322  13.323   6.326
10340SOL    HW132917   5.355  13.397   6.274
10340SOL    HW232918   5.255  13.283   6.271
10341SOL     OW32919   0.695  14.832   6.871
10341SOL    HW132920   0.609  14.832   6.914
10341SOL    HW232921   0.719   0.042   6.867
10342SOL     OW32922  10.693   3.162   1.452
10342SOL    HW132923  10.774   3.113   1.471
10342SOL    HW232924  10.683   3.156   1.357
10343SOL     OW32925   9.467  12.679   7.651
10343SOL    HW132926   9.467  12.584   7.643
10343SOL    HW232927   9.486  12.711   7.563
10344SOL     OW32928   5.482  13.291  10.780
10344SOL    HW132929   5.441  13.269  10.697
10344SOL    HW232930   5.462  13.217  10.837
10345SOL     OW32931   8.312   0.523   7.751
10345SOL    HW132932   8.261   0.546   7.829
10345SOL    HW232933   8.373   0.595   7.739
10346SOL     OW32934   7.692   5.559   8.067
10346SOL    HW132935   7.644   5.513   8.136
10346SOL    HW232936   7.781   5.568   8.101
10347SOL     OW32937   5.474  12.216   1.702
10347SOL    HW132938   5.564  12.186   1.716
10347SOL    HW232939   5.440  12.230   1.790
10348SOL     OW32940   6.263   6.176   4.103
10348SOL    HW132941   6.194   6.160   4.038
10348SOL    HW232942   6.270   6.093   4.150
10349SOL     OW32943   5.701   6.922   9.122
10349SOL    HW132944   5.663   7.009   9.134
10349SOL    HW232945   5.724   6.918   9.029
10350SOL     OW32946  11.871   1.627  13.942
10350SOL    HW132947  11.916   1.701  13.982
10350SOL    HW232948  11.928   1.552  13.959
10351SOL     OW32949   6.271   2.501   6.872
10351SOL    HW132950   6.299   2.532   6.786
10351SOL    HW232951   6.195   2.555   6.893
10352SOL     OW32952   8.065   3.520   7.221
10352SOL    HW132953   8.002   3.566   7.167
10352SOL    HW232954   8.080   3.578   7.296
10353SOL     OW32955  11.156   5.605  12.920
10353SOL    HW132956  11.236   5.642  12.955
10353SOL    HW232957  11.172   5.510  12.919
10354SOL     OW32958  13.715   1.408   5.073
10354SOL    HW132959  13.710   1.322   5.116
10354SOL    HW232960  13.794   1.403   5.019
10355SOL     OW32961   4.636   2.402   8.777
10355SOL    HW132962   4.560   2.389   8.722
10355SOL    HW232963   4.710   2.369   8.725
10356SOL     OW32964   8.544   6.394  14.610
10356SOL    HW132965   8.528   6.480  14.572
10356SOL    HW232966   8.571   6.340  14.536
10357SOL     OW32967   2.964   2.630   6.292
10357SOL    HW132968   2.894   2.623   6.227
10357SOL    HW232969   3.044   2.621   6.241
10358SOL     OW32970  13.859   6.487   1.520
10358SOL    HW132971  13.931   6.546   1.497
10358SOL    HW232972  13.847   6.499   1.614
10359SOL     OW32973   0.173   0.571   8.974
10359SOL    HW132974   0.248   0.614   9.014
10359SOL    HW232975   0.201   0.550   8.885
10360SOL     OW32976  10.792   0.126   8.306
10360SOL    HW132977  10.730   0.076   8.253
10360SOL    HW232978  10.737   0.167   8.373
10361SOL     OW32979   8.848   1.577   6.882
10361SOL    HW132980   8.812   1.647   6.935
10361SOL    HW232981   8.774   1.546   6.829
10362SOL     OW32982   7.566   4.301   2.270
10362SOL    HW132983   7.642   4.248   2.294
10362SOL    HW232984   7.501   4.283   2.338
10363SOL     OW32985   2.311   1.787   3.236
10363SOL    HW132986   2.295   1.823   3.323
10363SOL    HW232987   2.280   1.856   3.176
10364SOL     OW32988  14.728  14.017  13.758
10364SOL    HW132989  14.638  13.992  13.779
10364SOL    HW232990  14.768  13.937  13.725
10365SOL     OW32991  14.805  14.275  13.769
10365SOL    HW132992  14.790  14.181  13.775
10365SOL    HW232993   0.017  14.284  13.753
10366SOL     OW32994   4.893   1.778   9.468
10366SOL    HW132995   4.901   1.705   9.408
10366SOL    HW232996   4.906   1.856   9.413
10367SOL     OW32997   8.753  10.818   6.998
10367SOL    HW132998   8.774  10.748   7.059
10367SOL    HW232999   8.807  10.800   6.921
10368SOL     OW33000   2.547   7.095   8.542
10368SOL    HW133001   2.585   7.177   8.575
10368SOL    HW233002   2.591   7.026   8.591
10369SOL     OW33003   7.035   6.797   1.298
10369SOL    HW133004   7.111   6.855   1.304
10369SOL    HW233005   6.963   6.854   1.273
10370SOL     OW33006   0.809  10.173  14.253
10370SOL    HW133007   0.898  10.199  14.275
10370SOL    HW233008   0.818  10.117  14.176
10371SOL     OW33009  14.647  12.294   5.183
10371SOL    HW133010  14.666  12.261   5.095
10371SOL    HW233011  14.665  12.220   5.240
10372SOL     OW33012  13.576  14.656   5.782
10372SOL    HW133013  13.481  14.649   5.776
10372SOL    HW233014  13.606  14.567   5.800
10373SOL     OW33015  12.870  13.484   4.515
10373SOL    HW133016  12.870  13.515   4.424
10373SOL    HW233017  12.832  13.556   4.565
10374SOL     OW33018   6.345   6.675   6.597
10374SOL    HW133019   6.398   6.604   6.563
10374SOL    HW233020   6.324   6.650   6.686
10375SOL     OW33021   1.476  14.421   2.638
10375SOL    HW133022   1.407  14.427   2.704
10375SOL    HW233023   1.504  14.512   2.625
10376SOL     OW33024   4.994  11.036  13.358
10376SOL    HW133025   4.962  10.968  13.418
10376SOL    HW233026   5.077  11.064  13.396
10377SOL     OW33027   8.510   2.217   6.245
10377SOL    HW133028   8.493   2.306   6.276
10377SOL    HW233029   8.606   2.209   6.248
10378SOL     OW33030   7.447  14.440   1.991
10378SOL    HW133031   7.363  14.394   1.994
10378SOL    HW233032   7.476  14.444   2.082
10379SOL     OW33033  11.559   3.291   2.468
10379SOL    HW133034  11.493   3.222   2.465
10379SOL    HW233035  11.642   3.245   2.456
10380SOL     OW33036  11.128   2.510  14.136
10380SOL    HW133037  11.212   2.548  14.111
10380SOL    HW233038  11.067   2.583  14.132
10381SOL     OW33039   0.543   3.431   8.959
10381SOL    HW133040   0.560   3.479   9.040
10381SOL    HW233041   0.620   3.376   8.946
10382SOL     OW33042   7.713   3.920   9.341
10382SOL    HW133043   7.709   3.937   9.247
10382SOL    HW233044   7.652   3.982   9.380
10383SOL     OW33045   3.750  11.701   7.901
10383SOL    HW133046   3.736  11.733   7.990
10383SOL    HW233047   3.835  11.657   7.904
10384SOL     OW33048  13.762   8.102  11.534
10384SOL    HW133049  13.762   8.136  11.623
10384SOL    HW233050  13.852   8.073  11.519
10385SOL     OW33051   0.366   4.297   8.050
10385SOL    HW133052   0.455   4.263   8.051
10385SOL    HW233053   0.332   4.279   8.137
10386SOL     OW33054  10.127   7.658  10.174
10386SOL    HW133055  10.106   7.752  10.179
10386SOL    HW233056  10.217   7.655  10.143
10387SOL     OW33057  10.509   3.988  13.113
10387SOL    HW133058  10.570   4.059  13.089
10387SOL    HW233059  10.469   3.962  13.030
10388SOL     OW33060  11.984   3.323   1.592
10388SOL    HW133061  11.950   3.242   1.555
10388SOL    HW233062  11.923   3.347   1.661
10389SOL     OW33063  13.523   5.695   3.317
10389SOL    HW133064  13.585   5.720   3.249
10389SOL    HW233065  13.576   5.684   3.396
10390SOL     OW33066   1.769  10.677  10.623
10390SOL    HW133067   1.844  10.635  10.665
10390SOL    HW233068   1.788  10.771  10.628
10391SOL     OW33069   8.459  14.244  13.959
10391SOL    HW133070   8.471  14.282  13.872
10391SOL    HW233071   8.365  14.244  13.972
10392SOL     OW33072   3.225   1.703   3.478
10392SOL    HW133073   3.260   1.623   3.440
10392SOL    HW233074   3.194   1.754   3.403
10393SOL     OW33075   4.685   7.030   2.037
10393SOL    HW133076   4.619   6.983   2.087
10393SOL    HW233077   4.635   7.095   1.987
10394SOL     OW33078   3.659   8.598   9.095
10394SOL    HW133079   3.582   8.548   9.122
10394SOL    HW233080   3.625   8.686   9.078
10395SOL     OW33081   2.734   7.929   0.536
10395SOL    HW133082   2.688   7.897   0.613
10395SOL    HW233083   2.826   7.930   0.562
10396SOL     OW33084   3.955  13.162   0.350
10396SOL    HW133085   4.007  13.215   0.290
10396SOL    HW233086   3.996  13.175   0.435
10397SOL     OW33087  11.405  13.323   2.497
10397SOL    HW133088  11.403  13.243   2.445
10397SOL    HW233089  11.324  13.319   2.549
10398SOL     OW33090   2.594   4.432  12.062
10398SOL    HW133091   2.666   4.391  12.111
10398SOL    HW233092   2.521   4.435  12.125
10399SOL     OW33093   7.339   8.922   9.598
10399SOL    HW133094   7.352   8.936   9.504
10399SOL    HW233095   7.421   8.884   9.628
10400SOL     OW33096   8.218  12.294   0.942
10400SOL    HW133097   8.244  12.275   0.851
10400SOL    HW233098   8.301  12.297   0.990
10401SOL     OW33099  10.721   2.886   1.674
10401SOL    HW133100  10.672   2.817   1.719
10401SOL    HW233101  10.712   2.963   1.730
10402SOL     OW33102   3.028   8.339   0.647
10402SOL    HW133103   2.938   8.319   0.673
10402SOL    HW233104   3.078   8.332   0.729
10403SOL     OW33105   0.469   0.768  12.067
10403SOL    HW133106   0.463   0.799  12.157
10403SOL    HW233107   0.437   0.842  12.014
10404SOL     OW33108  11.662   8.907   6.605
10404SOL    HW133109  11.665   8.815   6.631
10404SOL    HW233110  11.653   8.955   6.688
10405SOL     OW33111  13.015  13.770   1.452
10405SOL    HW133112  12.966  13.693   1.482
10405SOL    HW233113  12.965  13.844   1.486
10406SOL     OW33114   8.612  10.916  14.616
10406SOL    HW133115   8.688  10.961  14.580
10406SOL    HW233116   8.636  10.899  14.708
10407SOL     OW33117   9.606  11.895   6.473
10407SOL    HW133118   9.552  11.896   6.552
10407SOL    HW233119   9.544  11.901   6.401
10408SOL     OW33120   4.688   9.770   6.999
10408SOL    HW133121   4.775   9.760   6.961
10408SOL    HW233122   4.628   9.737   6.933
10409SOL     OW33123  13.241  10.153   0.507
10409SOL    HW133124  13.261  10.156   0.600
10409SOL    HW233125  13.176  10.083   0.498
10410SOL     OW33126   1.391   0.790  13.232
10410SOL    HW133127   1.410   0.756  13.319
10410SOL    HW233128   1.458   0.752  13.176
10411SOL     OW33129   5.220   4.400   1.559
10411SOL    HW133130   5.312   4.421   1.549
10411SOL    HW233131   5.218   4.314   1.599
10412SOL     OW33132   9.697  10.007   6.863
10412SOL    HW133133   9.700  10.087   6.810
10412SOL    HW233134   9.603   9.987   6.871
10413SOL     OW33135   3.044  10.040   7.357
10413SOL    HW133136   2.962  10.005   7.324
10413SOL    HW233137   3.111  10.004   7.299
10414SOL     OW33138   0.312   2.725  11.344
10414SOL    HW133139   0.274   2.655  11.291
10414SOL    HW233140   0.275   2.805  11.308
10415SOL     OW33141  11.085   3.058   0.140
10415SOL    HW133142  11.081   3.056   0.236
10415SOL    HW233143  11.152   3.124   0.121
10416SOL     OW33144  11.496  14.360   5.750
10416SOL    HW133145  11.450  14.335   5.831
10416SOL    HW233146  11.524  14.450   5.765
10417SOL     OW33147   2.662   3.502  13.000
10417SOL    HW133148   2.727   3.433  13.014
10417SOL    HW233149   2.580   3.463  13.030
10418SOL     OW33150   1.519   6.787   5.190
10418SOL    HW133151   1.444   6.761   5.136
10418SOL    HW233152   1.592   6.791   5.128
10419SOL     OW33153   0.024   8.340   5.721
10419SOL    HW133154   0.002   8.334   5.628
10419SOL    HW233155  14.823   8.333   5.767
10420SOL     OW33156   2.861   3.380   3.205
10420SOL    HW133157   2.795   3.315   3.227
10420SOL    HW233158   2.819   3.438   3.142
10421SOL     OW33159   4.184  12.691   9.737
10421SOL    HW133160   4.171  12.607   9.694
10421SOL    HW233161   4.127  12.688   9.814
10422SOL     OW33162   9.742   6.553   8.019
10422SOL    HW133163   9.700   6.469   8.003
10422SOL    HW233164   9.795   6.569   7.941
10423SOL     OW33165  13.074   0.761   2.476
10423SOL    HW133166  13.064   0.855   2.489
10423SOL    HW233167  13.009   0.721   2.533
10424SOL     OW33168  11.422   1.908   8.050
10424SOL    HW133169  11.416   1.927   7.957
10424SOL    HW233170  11.449   1.991   8.090
10425SOL     OW33171  14.022  13.648   5.291
10425SOL    HW133172  13.977  13.722   5.332
10425SOL    HW233173  14.023  13.579   5.358
10426SOL     OW33174   9.314  10.458  14.384
10426SOL    HW133175   9.360  10.420  14.459
10426SOL    HW233176   9.262  10.387  14.348
10427SOL     OW33177   1.480   3.548   0.037
10427SOL    HW133178   1.551   3.536  14.857
10427SOL    HW233179   1.497   3.485   0.107
10428SOL     OW33180  10.988   9.061   6.380
10428SOL    HW133181  11.081   9.053   6.359
10428SOL    HW233182  10.966   8.981   6.426
10429SOL     OW33183   4.357   8.250   1.121
10429SOL    HW133184   4.336   8.256   1.027
10429SOL    HW233185   4.280   8.210   1.160
10430SOL     OW33186   5.832   3.806   9.826
10430SOL    HW133187   5.884   3.816   9.746
10430SOL    HW233188   5.757   3.752   9.799
10431SOL     OW33189   9.151  12.279   2.653
10431SOL    HW133190   9.130  12.359   2.604
10431SOL    HW233191   9.152  12.211   2.586
10432SOL     OW33192  13.144   1.010   1.727
10432SOL    HW133193  13.236   0.996   1.703
10432SOL    HW233194  13.100   0.930   1.700
10433SOL     OW33195   0.143   4.244   5.176
10433SOL    HW133196   0.193   4.166   5.201
10433SOL    HW233197   0.062   4.209   5.139
10434SOL     OW33198   5.626   1.054   0.259
10434SOL    HW133199   5.640   1.111   0.334
10434SOL    HW233200   5.679   0.977   0.277
10435SOL     OW33201   4.842   6.943  11.474
10435SOL    HW133202   4.749   6.964  11.475
10435SOL    HW233203   4.880   7.004  11.410
10436SOL     OW33204   0.528   8.112   9.270
10436SOL    HW133205   0.539   8.147   9.358
10436SOL    HW233206   0.613   8.127   9.227
10437SOL     OW33207   4.009   6.141   5.697
10437SOL    HW133208   3.932   6.163   5.645
10437SOL    HW233209   4.082   6.178   5.649
10438SOL     OW33210   2.885   1.183   2.484
10438SOL    HW133211   2.870   1.188   2.390
10438SOL    HW233212   2.868   1.092   2.507
10439SOL     OW33213  10.399   5.333  12.956
10439SOL    HW133214  10.447   5.295  13.030
10439SOL    HW233215  10.317   5.284  12.954
10440SOL     OW33216   8.484   6.500  13.297
10440SOL    HW133217   8.565   6.469  13.338
10440SOL    HW233218   8.488   6.595  13.303
10441SOL     OW33219   1.494  12.515   7.017
10441SOL    HW133220   1.473  12.564   7.096
10441SOL    HW233221   1.439  12.554   6.949
10442SOL     OW33222  12.924   7.027  10.784
10442SOL    HW133223  12.868   7.055  10.856
10442SOL    HW233224  12.869   6.966  10.734
10443SOL     OW33225   8.106  11.392   0.498
10443SOL    HW133226   8.070  11.455   0.436
10443SOL    HW233227   8.068  11.308   0.472
10444SOL     OW33228   7.892  13.033   2.888
10444SOL    HW133229   7.900  12.938   2.886
10444SOL    HW233230   7.816  13.053   2.833
10445SOL     OW33231   3.214  10.288   9.840
10445SOL    HW133232   3.177  10.204   9.814
10445SOL    HW233233   3.229  10.334   9.758
10446SOL     OW33234  11.753   8.430  14.400
10446SOL    HW133235  11.804   8.462  14.325
10446SOL    HW233236  11.802   8.462  14.477
10447SOL     OW33237   0.228  11.479   6.456
10447SOL    HW133238   0.191  11.399   6.494
10447SOL    HW233239   0.317  11.454   6.431
10448SOL     OW33240   0.542   8.839  14.126
10448SOL    HW133241   0.470   8.824  14.188
10448SOL    HW233242   0.607   8.886  14.178
10449SOL     OW33243  11.958   8.490   1.983
10449SOL    HW133244  11.921   8.419   2.035
10449SOL    HW233245  11.991   8.447   1.903
10450SOL     OW33246  14.050  14.306   0.622
10450SOL    HW133247  14.030  14.222   0.580
10450SOL    HW233248  13.976  14.362   0.599
10451SOL     OW33249  12.915  10.554   9.571
10451SOL    HW133250  12.829  10.516   9.590
10451SOL    HW233251  12.922  10.628   9.631
10452SOL     OW33252  13.827   9.017  10.951
10452SOL    HW133253  13.841   9.002  11.044
10452SOL    HW233254  13.898   8.968  10.908
10453SOL     OW33255   1.256  13.632   5.999
10453SOL    HW133256   1.245  13.541   5.969
10453SOL    HW233257   1.300  13.623   6.083
10454SOL     OW33258   0.095   8.296   6.456
10454SOL    HW133259   0.160   8.359   6.487
10454SOL    HW233260   0.132   8.210   6.478
10455SOL     OW33261   3.206  14.707  12.104
10455SOL    HW133262   3.245  14.761  12.034
10455SOL    HW233263   3.195  14.621  12.064
10456SOL     OW33264  14.201   4.960   6.110
10456SOL    HW133265  14.207   5.001   6.024
10456SOL    HW233266  14.158   4.876   6.093
10457SOL     OW33267  13.071  12.171   2.033
10457SOL    HW133268  13.108  12.220   2.108
10457SOL    HW233269  13.003  12.229   1.999
10458SOL     OW33270   1.796   8.348   5.524
10458SOL    HW133271   1.795   8.440   5.551
10458SOL    HW233272   1.726   8.342   5.459
10459SOL     OW33273  11.884  11.748  14.782
10459SOL    HW133274  11.819  11.785  14.722
10459SOL    HW233275  11.865  11.788  14.866
10460SOL     OW33276   7.171   3.760   3.052
10460SOL    HW133277   7.142   3.784   2.964
10460SOL    HW233278   7.262   3.788   3.055
10461SOL     OW33279   1.667   2.055   6.313
10461SOL    HW133280   1.721   2.083   6.387
10461SOL    HW233281   1.578   2.082   6.337
10462SOL     OW33282   5.388   1.325   6.025
10462SOL    HW133283   5.312   1.334   6.081
10462SOL    HW233284   5.457   1.293   6.084
10463SOL     OW33285  11.845   5.561   7.310
10463SOL    HW133286  11.896   5.622   7.257
10463SOL    HW233287  11.906   5.490   7.332
10464SOL     OW33288   2.997   2.978   8.054
10464SOL    HW133289   3.051   3.029   7.994
10464SOL    HW233290   2.907   2.998   8.029
10465SOL     OW33291  13.650   4.067   0.973
10465SOL    HW133292  13.709   4.116   1.030
10465SOL    HW233293  13.698   4.057   0.891
10466SOL     OW33294  12.433  12.386  12.770
10466SOL    HW133295  12.517  12.349  12.745
10466SOL    HW233296  12.390  12.405  12.686
10467SOL     OW33297  13.448  11.655  13.201
10467SOL    HW133298  13.354  11.673  13.207
10467SOL    HW233299  13.490  11.730  13.241
10468SOL     OW33300  12.198  13.814   2.483
10468SOL    HW133301  12.135  13.876   2.520
10468SOL    HW233302  12.278  13.865   2.472
10469SOL     OW33303   9.975   5.489  10.310
10469SOL    HW133304   9.942   5.534  10.232
10469SOL    HW233305   9.897   5.452  10.352
10470SOL     OW33306  14.112  13.673   7.947
10470SOL    HW133307  14.076  13.683   7.859
10470SOL    HW233308  14.181  13.738   7.953
10471SOL     OW33309   0.151   9.765   2.867
10471SOL    HW133310   0.227   9.821   2.883
10471SOL    HW233311   0.098   9.775   2.947
10472SOL     OW33312  11.646   5.795   6.902
10472SOL    HW133313  11.653   5.853   6.826
10472SOL    HW233314  11.552   5.783   6.914
10473SOL     OW33315  14.315   5.098   8.645
10473SOL    HW133316  14.394   5.152   8.648
10473SOL    HW233317  14.332   5.028   8.708
10474SOL     OW33318   8.940   8.763   5.161
10474SOL    HW133319   8.980   8.735   5.079
10474SOL    HW233320   8.968   8.854   5.171
10475SOL     OW33321  13.822   1.568  11.748
10475SOL    HW133322  13.781   1.650  11.721
10475SOL    HW233323  13.791   1.503  11.686
10476SOL     OW33324   9.043   1.190   9.270
10476SOL    HW133325   9.074   1.100   9.264
10476SOL    HW233326   8.966   1.193   9.214
10477SOL     OW33327   6.044   7.186  13.030
10477SOL    HW133328   6.101   7.110  13.043
10477SOL    HW233329   5.988   7.188  13.107
10478SOL     OW33330   5.569   5.358  11.908
10478SOL    HW133331   5.616   5.320  11.983
10478SOL    HW233332   5.606   5.446  11.898
10479SOL     OW33333   1.885  11.310   2.281
10479SOL    HW133334   1.800  11.276   2.254
10479SOL    HW233335   1.896  11.279   2.371
10480SOL     OW33336   0.876   9.781   2.426
10480SOL    HW133337   0.947   9.842   2.408
10480SOL    HW233338   0.796   9.831   2.408
10481SOL     OW33339   5.008   5.317  11.365
10481SOL    HW133340   5.027   5.382  11.433
10481SOL    HW233341   5.094   5.291  11.332
10482SOL     OW33342  12.085  11.453   0.651
10482SOL    HW133343  12.084  11.485   0.561
10482SOL    HW233344  11.994  11.432   0.670
10483SOL     OW33345   6.859   0.752  14.704
10483SOL    HW133346   6.816   0.785  14.625
10483SOL    HW233347   6.790   0.752  14.770
10484SOL     OW33348   6.259   7.707   4.405
10484SOL    HW133349   6.272   7.612   4.404
10484SOL    HW233350   6.260   7.733   4.313
10485SOL     OW33351   3.257   7.706   0.123
10485SOL    HW133352   3.170   7.721   0.160
10485SOL    HW233353   3.312   7.775   0.160
10486SOL     OW33354   8.352   5.032  10.340
10486SOL    HW133355   8.267   5.032  10.385
10486SOL    HW233356   8.339   4.977  10.263
10487SOL     OW33357   0.545   2.133   8.200
10487SOL    HW133358   0.593   2.052   8.188
10487SOL    HW233359   0.551   2.178   8.115
10488SOL     OW33360  12.646  10.185  13.226
10488SOL    HW133361  12.625  10.093  13.212
10488SOL    HW233362  12.719  10.202  13.166
10489SOL     OW33363   0.862   2.876   5.577
10489SOL    HW133364   0.829   2.961   5.606
10489SOL    HW233365   0.817   2.813   5.633
10490SOL     OW33366   5.884   6.236  14.589
10490SOL    HW133367   5.809   6.214  14.644
10490SOL    HW233368   5.895   6.159  14.532
10491SOL     OW33369   9.724  12.641   9.074
10491SOL    HW133370   9.802  12.586   9.069
10491SOL    HW233371   9.651  12.580   9.071
10492SOL     OW33372   0.297  10.439  12.010
10492SOL    HW133373   0.239  10.423  11.935
10492SOL    HW233374   0.261  10.517  12.052
10493SOL     OW33375  10.806  10.513  14.760
10493SOL    HW133376  10.786  10.448  14.828
10493SOL    HW233377  10.887  10.554  14.789
10494SOL     OW33378   0.494   5.832   5.711
10494SOL    HW133379   0.428   5.763   5.716
10494SOL    HW233380   0.571   5.794   5.754
10495SOL     OW33381   3.783  12.621  13.203
10495SOL    HW133382   3.862  12.676  13.199
10495SOL    HW233383   3.719  12.668  13.149
10496SOL     OW33384   2.867   7.135   5.012
10496SOL    HW133385   2.899   7.065   5.070
10496SOL    HW233386   2.791   7.171   5.057
10497SOL     OW33387   8.532  13.915  13.248
10497SOL    HW133388   8.588  13.943  13.176
10497SOL    HW233389   8.584  13.850  13.295
10498SOL     OW33390   1.864   5.382  14.118
10498SOL    HW133391   1.918   5.311  14.084
10498SOL    HW233392   1.776   5.344  14.124
10499SOL     OW33393  14.102   7.675  13.956
10499SOL    HW133394  14.133   7.630  13.877
10499SOL    HW233395  14.007   7.663  13.954
10500SOL     OW33396   8.294   5.369   6.821
10500SOL    HW133397   8.228   5.376   6.889
10500SOL    HW233398   8.258   5.418   6.747
10501SOL     OW33399   8.758  12.492   6.530
10501SOL    HW133400   8.840  12.442   6.528
10501SOL    HW233401   8.747  12.523   6.441
10502SOL     OW33402   8.468  10.975  14.063
10502SOL    HW133403   8.392  11.028  14.088
10502SOL    HW233404   8.537  11.000  14.125
10503SOL     OW33405   6.186  13.046   1.858
10503SOL    HW133406   6.118  13.076   1.798
10503SOL    HW233407   6.145  12.976   1.909
10504SOL     OW33408   2.286  14.480   1.775
10504SOL    HW133409   2.299  14.484   1.680
10504SOL    HW233410   2.364  14.522   1.811
10505SOL     OW33411   0.911   0.291   0.512
10505SOL    HW133412   0.880   0.236   0.585
10505SOL    HW233413   1.000   0.260   0.495
10506SOL     OW33414   3.968   4.256   5.065
10506SOL    HW133415   3.983   4.253   5.160
10506SOL    HW233416   3.874   4.241   5.055
10507SOL     OW33417   1.262   7.908   8.128
10507SOL    HW133418   1.205   7.834   8.106
10507SOL    HW233419   1.341   7.868   8.164
10508SOL     OW33420   8.377   5.006  12.029
10508SOL    HW133421   8.430   4.927  12.023
10508SOL    HW233422   8.436   5.072  12.064
10509SOL     OW33423   6.272   5.266   3.114
10509SOL    HW133424   6.274   5.304   3.202
10509SOL    HW233425   6.299   5.175   3.126
10510SOL     OW33426   6.902  13.635  10.684
10510SOL    HW133427   6.927  13.584  10.761
10510SOL    HW233428   6.986  13.660  10.644
10511SOL     OW33429   1.960   3.251   1.115
10511SOL    HW133430   2.009   3.237   1.035
10511SOL    HW233431   2.018   3.304   1.170
10512SOL     OW33432  10.366   8.145   2.385
10512SOL    HW133433  10.281   8.106   2.404
10512SOL    HW233434  10.426   8.102   2.446
10513SOL     OW33435   7.914   2.474   9.261
10513SOL    HW133436   7.833   2.441   9.220
10513SOL    HW233437   7.910   2.441   9.351
10514SOL     OW33438   0.566   5.804  11.982
10514SOL    HW133439   0.511   5.801  11.904
10514SOL    HW233440   0.576   5.897  12.001
10515SOL     OW33441   8.448   8.651  14.318
10515SOL    HW133442   8.407   8.565  14.313
10515SOL    HW233443   8.432   8.690  14.232
10516SOL     OW33444   6.646   5.689  10.637
10516SOL    HW133445   6.563   5.646  10.615
10516SOL    HW233446   6.620   5.778  10.662
10517SOL     OW33447   8.829   6.878   8.177
10517SOL    HW133448   8.845   6.855   8.268
10517SOL    HW233449   8.762   6.946   8.180
10518SOL     OW33450   4.545  10.836   9.093
10518SOL    HW133451   4.540  10.929   9.115
10518SOL    HW233452   4.610  10.800   9.154
10519SOL     OW33453   5.208   3.478   3.405
10519SOL    HW133454   5.184   3.497   3.315
10519SOL    HW233455   5.303   3.467   3.402
10520SOL     OW33456   9.361   9.727  10.470
10520SOL    HW133457   9.292   9.786  10.441
10520SOL    HW233458   9.371   9.746  10.563
10521SOL     OW33459  14.466   5.685  14.831
10521SOL    HW133460  14.538   5.623  14.826
10521SOL    HW233461  14.400   5.651  14.771
10522SOL     OW33462   8.412  13.217   0.446
10522SOL    HW133463   8.461  13.207   0.528
10522SOL    HW233464   8.476  13.196   0.378
10523SOL     OW33465   5.980   5.350  14.428
10523SOL    HW133466   5.981   5.352  14.333
10523SOL    HW233467   6.005   5.261  14.451
10524SOL     OW33468  11.171   4.473   0.735
10524SOL    HW133469  11.151   4.380   0.719
10524SOL    HW233470  11.178   4.480   0.830
10525SOL     OW33471   2.957   2.237  13.092
10525SOL    HW133472   2.923   2.210  13.006
10525SOL    HW233473   3.041   2.193  13.100
10526SOL     OW33474   4.144   7.690   3.571
10526SOL    HW133475   4.211   7.707   3.638
10526SOL    HW233476   4.156   7.761   3.508
10527SOL     OW33477   9.154   4.614   8.227
10527SOL    HW133478   9.163   4.697   8.274
10527SOL    HW233479   9.094   4.563   8.281
10528SOL     OW33480   0.669   2.012   4.732
10528SOL    HW133481   0.694   2.103   4.748
10528SOL    HW233482   0.705   1.991   4.646
10529SOL     OW33483   8.780  14.091   8.739
10529SOL    HW133484   8.743  14.069   8.824
10529SOL    HW233485   8.771  14.011   8.687
10530SOL     OW33486   5.741   1.937   0.773
10530SOL    HW133487   5.826   1.977   0.759
10530SOL    HW233488   5.761   1.849   0.805
10531SOL     OW33489   2.470   7.598   1.834
10531SOL    HW133490   2.403   7.589   1.766
10531SOL    HW233491   2.425   7.641   1.906
10532SOL     OW33492   1.615   7.958   6.250
10532SOL    HW133493   1.670   7.958   6.329
10532SOL    HW233494   1.678   7.945   6.178
10533SOL     OW33495   7.961   0.618   1.169
10533SOL    HW133496   8.019   0.599   1.243
10533SOL    HW233497   7.981   0.549   1.105
10534SOL     OW33498   7.908  10.631   5.600
10534SOL    HW133499   7.816  10.609   5.585
10534SOL    HW233500   7.919  10.630   5.695
10535SOL     OW33501   8.629   3.033   9.225
10535SOL    HW133502   8.619   2.968   9.156
10535SOL    HW233503   8.542   3.041   9.264
10536SOL     OW33504   3.348   5.896  11.551
10536SOL    HW133505   3.266   5.848  11.540
10536SOL    HW233506   3.322   5.988  11.554
10537SOL     OW33507   1.948   4.026   4.705
10537SOL    HW133508   1.926   4.119   4.710
10537SOL    HW233509   1.865   3.983   4.686
10538SOL     OW33510   7.865   0.799   8.655
10538SOL    HW133511   7.925   0.797   8.730
10538SOL    HW233512   7.853   0.707   8.631
10539SOL     OW33513   5.372   1.836   1.010
10539SOL    HW133514   5.414   1.839   1.096
10539SOL    HW233515   5.439   1.867   0.950
10540SOL     OW33516   1.573  13.820  13.948
10540SOL    HW133517   1.605  13.770  14.023
10540SOL    HW233518   1.485  13.847  13.973
10541SOL     OW33519   6.122  12.786  13.906
10541SOL    HW133520   6.147  12.758  13.818
10541SOL    HW233521   6.200  12.772  13.959
10542SOL     OW33522  13.655   5.581   8.938
10542SOL    HW133523  13.621   5.657   8.891
10542SOL    HW233524  13.687   5.523   8.870
10543SOL     OW33525   3.003   9.776  13.723
10543SOL    HW133526   2.971   9.799  13.810
10543SOL    HW233527   3.066   9.845  13.702
10544SOL     OW33528  10.985  12.240   6.692
10544SOL    HW133529  10.949  12.253   6.780
10544SOL    HW233530  10.977  12.326   6.651
10545SOL     OW33531  12.085   4.251   1.413
10545SOL    HW133532  12.106   4.333   1.458
10545SOL    HW233533  12.162   4.232   1.359
10546SOL     OW33534   0.741   2.141   1.747
10546SOL    HW133535   0.762   2.052   1.776
10546SOL    HW233536   0.652   2.134   1.712
10547SOL     OW33537   4.314   2.956   1.522
10547SOL    HW133538   4.388   2.986   1.468
10547SOL    HW233539   4.273   2.888   1.469
10548SOL     OW33540   4.423  13.752   2.458
10548SOL    HW133541   4.495  13.692   2.438
10548SOL    HW233542   4.395  13.785   2.372
10549SOL     OW33543   2.938  10.450   8.336
10549SOL    HW133544   2.952  10.405   8.252
10549SOL    HW233545   3.020  10.440   8.383
10550SOL     OW33546   6.260  14.778  10.189
10550SOL    HW133547   6.349  14.759  10.219
10550SOL    HW233548   6.272  14.829  10.108
10551SOL     OW33549   8.793   1.772   6.095
10551SOL    HW133550   8.837   1.690   6.075
10551SOL    HW233551   8.784   1.772   6.191
10552SOL     OW33552   3.578   2.758   2.455
10552SOL    HW133553   3.601   2.666   2.453
10552SOL    HW233554   3.575   2.781   2.548
10553SOL     OW33555   6.236   3.816   0.694
10553SOL    HW133556   6.140   3.825   0.696
10553SOL    HW233557   6.267   3.877   0.761
10554SOL     OW33558  10.898   0.362  12.922
10554SOL    HW133559  10.931   0.273  12.930
10554SOL    HW233560  10.808   0.358  12.953
10555SOL     OW33561   2.073   4.286  11.075
10555SOL    HW133562   2.049   4.285  10.983
10555SOL    HW233563   2.167   4.268  11.076
10556SOL     OW33564  11.050   5.370   7.094
10556SOL    HW133565  11.106   5.401   7.165
10556SOL    HW233566  10.986   5.314   7.137
10557SOL     OW33567   9.233   3.343  13.987
10557SOL    HW133568   9.281   3.271  14.028
10557SOL    HW233569   9.153   3.352  14.039
10558SOL     OW33570  12.222  11.183   6.572
10558SOL    HW133571  12.200  11.125   6.645
10558SOL    HW233572  12.289  11.135   6.523
10559SOL     OW33573   4.120   8.897   2.823
10559SOL    HW133574   4.125   8.823   2.883
10559SOL    HW233575   4.153   8.971   2.874
10560SOL     OW33576   7.862   3.802   3.181
10560SOL    HW133577   7.907   3.772   3.260
10560SOL    HW233578   7.932   3.830   3.122
10561SOL     OW33579  11.088   1.692   2.172
10561SOL    HW133580  11.069   1.705   2.079
10561SOL    HW233581  11.027   1.750   2.217
10562SOL     OW33582   1.351   9.256   1.856
10562SOL    HW133583   1.322   9.178   1.903
10562SOL    HW233584   1.394   9.222   1.778
10563SOL     OW33585   5.808  10.053  14.163
10563SOL    HW133586   5.888  10.105  14.160
10563SOL    HW233587   5.814  10.004  14.244
10564SOL     OW33588  11.995   1.107   6.433
10564SOL    HW133589  12.085   1.124   6.461
10564SOL    HW233590  11.995   1.127   6.340
10565SOL     OW33591  13.938  10.155  13.013
10565SOL    HW133592  13.943  10.060  13.023
10565SOL    HW233593  14.004  10.176  12.947
10566SOL     OW33594   9.696   6.574  13.101
10566SOL    HW133595   9.734   6.582  13.014
10566SOL    HW233596   9.713   6.659  13.142
10567SOL     OW33597   0.497   5.628   8.919
10567SOL    HW133598   0.434   5.617   8.991
10567SOL    HW233599   0.569   5.569   8.940
10568SOL     OW33600   3.932  10.425   0.727
10568SOL    HW133601   3.932  10.520   0.743
10568SOL    HW233602   3.991  10.413   0.653
10569SOL     OW33603  13.160   0.165   0.439
10569SOL    HW133604  13.082   0.119   0.470
10569SOL    HW233605  13.155   0.159   0.344
10570SOL     OW33606  14.109   5.450   9.116
10570SOL    HW133607  14.104   5.357   9.136
10570SOL    HW233608  14.018   5.477   9.102
10571SOL     OW33609   3.889  10.605  14.132
10571SOL    HW133610   3.953  10.628  14.065
10571SOL    HW233611   3.915  10.518  14.163
10572SOL     OW33612  12.096   4.263   2.841
10572SOL    HW133613  12.021   4.206   2.822
10572SOL    HW233614  12.158   4.245   2.770
10573SOL     OW33615   7.385  13.356  14.435
10573SOL    HW133616   7.321  13.417  14.470
10573SOL    HW233617   7.449  13.345  14.505
10574SOL     OW33618  12.865   7.985   7.066
10574SOL    HW133619  12.912   7.919   7.016
10574SOL    HW233620  12.851   8.057   7.005
10575SOL     OW33621  14.714   3.038   3.036
10575SOL    HW133622  14.729   2.974   3.106
10575SOL    HW233623  14.800   3.076   3.019
10576SOL     OW33624  13.934   7.901   2.361
10576SOL    HW133625  13.983   7.819   2.372
10576SOL    HW233626  13.865   7.879   2.298
10577SOL     OW33627   4.299   8.816   8.249
10577SOL    HW133628   4.286   8.845   8.159
10577SOL    HW233629   4.381   8.857   8.276
10578SOL     OW33630   7.490  14.864  12.352
10578SOL    HW133631   7.585  14.873  12.355
10578SOL    HW233632   7.474  14.770  12.359
10579SOL     OW33633  13.982  13.468  14.730
10579SOL    HW133634  14.001  13.479  14.823
10579SOL    HW233635  14.055  13.510  14.685
10580SOL     OW33636   7.911   1.201  11.663
10580SOL    HW133637   7.816   1.196  11.661
10580SOL    HW233638   7.933   1.196  11.756
10581SOL     OW33639   4.883  12.153  14.727
10581SOL    HW133640   4.911  12.197  14.646
10581SOL    HW233641   4.882  12.223  14.793
10582SOL     OW33642   3.360   6.287   0.375
10582SOL    HW133643   3.444   6.329   0.357
10582SOL    HW233644   3.358   6.277   0.470
10583SOL     OW33645   6.586   8.387   6.032
10583SOL    HW133646   6.613   8.427   6.115
10583SOL    HW233647   6.597   8.457   5.967
10584SOL     OW33648   6.615   3.637  11.821
10584SOL    HW133649   6.682   3.648  11.888
10584SOL    HW233650   6.664   3.634  11.739
10585SOL     OW33651   1.706  10.286   7.847
10585SOL    HW133652   1.765  10.211   7.842
10585SOL    HW233653   1.710  10.315   7.938
10586SOL     OW33654  10.593   9.732   1.228
10586SOL    HW133655  10.605   9.717   1.135
10586SOL    HW233656  10.572   9.646   1.264
10587SOL     OW33657  10.338  10.003   2.053
10587SOL    HW133658  10.296   9.987   2.138
10587SOL    HW233659  10.346  10.098   2.047
10588SOL     OW33660   4.804   2.676   3.011
10588SOL    HW133661   4.813   2.766   3.042
10588SOL    HW233662   4.741   2.635   3.071
10589SOL     OW33663   9.651  10.658  11.111
10589SOL    HW133664   9.637  10.711  11.033
10589SOL    HW233665   9.630  10.716  11.184
10590SOL     OW33666  13.333  14.792   0.299
10590SOL    HW133667  13.361  14.818   0.387
10590SOL    HW233668  13.359  14.866   0.244
10591SOL     OW33669   4.036  14.282  10.616
10591SOL    HW133670   4.031  14.344  10.688
10591SOL    HW233671   4.058  14.198  10.658
10592SOL     OW33672   8.602   6.996   7.356
10592SOL    HW133673   8.543   7.053   7.404
10592SOL    HW233674   8.643   7.053   7.291
10593SOL     OW33675  12.386   0.969   7.318
10593SOL    HW133676  12.411   0.878   7.303
10593SOL    HW233677  12.469   1.017   7.318
10594SOL     OW33678   8.337   9.767  12.866
10594SOL    HW133679   8.292   9.836  12.915
10594SOL    HW233680   8.358   9.700  12.931
10595SOL     OW33681   6.566   9.923  13.542
10595SOL    HW133682   6.643   9.979  13.551
10595SOL    HW233683   6.597   9.836  13.566
10596SOL     OW33684  10.721   4.838   6.749
10596SOL    HW133685  10.742   4.759   6.799
10596SOL    HW233686  10.627   4.849   6.759
10597SOL     OW33687   0.093   4.809  14.628
10597SOL    HW133688   0.090   4.821  14.723
10597SOL    HW233689   0.154   4.875  14.597
10598SOL     OW33690   0.636  14.677   1.468
10598SOL    HW133691   0.554  14.722   1.448
10598SOL    HW233692   0.643  14.680   1.563
10599SOL     OW33693   1.566   1.883  10.560
10599SOL    HW133694   1.585   1.853  10.471
10599SOL    HW233695   1.509   1.816  10.597
10600SOL     OW33696  11.710   5.732   1.526
10600SOL    HW133697  11.677   5.650   1.488
10600SOL    HW233698  11.631   5.786   1.535
10601SOL     OW33699   4.554  10.913   0.388
10601SOL    HW133700   4.581  10.840   0.332
10601SOL    HW233701   4.557  10.990   0.331
10602SOL     OW33702  11.055   8.582   3.549
10602SOL    HW133703  11.101   8.618   3.625
10602SOL    HW233704  10.994   8.651   3.522
10603SOL     OW33705  14.691   5.329   4.680
10603SOL    HW133706  14.736   5.413   4.669
10603SOL    HW233707  14.696   5.289   4.594
10604SOL     OW33708   8.457   5.369   5.400
10604SOL    HW133709   8.452   5.284   5.444
10604SOL    HW233710   8.453   5.348   5.306
10605SOL     OW33711  10.170  14.662  14.089
10605SOL    HW133712  10.164  14.576  14.048
10605SOL    HW233713  10.135  14.650  14.177
10606SOL     OW33714  14.064   8.186   2.197
10606SOL    HW133715  13.980   8.214   2.161
10606SOL    HW233716  14.046   8.101   2.237
10607SOL     OW33717   0.866   6.455   1.818
10607SOL    HW133718   0.956   6.445   1.850
10607SOL    HW233719   0.853   6.549   1.810
10608SOL     OW33720   7.771  13.566   2.854
10608SOL    HW133721   7.822  13.501   2.902
10608SOL    HW233722   7.835  13.612   2.800
10609SOL     OW33723   1.982   8.025   1.553
10609SOL    HW133724   2.044   8.092   1.525
10609SOL    HW233725   2.037   7.954   1.587
10610SOL     OW33726  12.607   9.047   7.236
10610SOL    HW133727  12.692   9.014   7.266
10610SOL    HW233728  12.550   9.040   7.312
10611SOL     OW33729   0.667   9.549   1.673
10611SOL    HW133730   0.638   9.526   1.762
10611SOL    HW233731   0.598   9.515   1.616
10612SOL     OW33732  10.656  10.002   7.257
10612SOL    HW133733  10.751   9.990   7.252
10612SOL    HW233734  10.621   9.948   7.186
10613SOL     OW33735   9.373   9.782   6.733
10613SOL    HW133736   9.339   9.871   6.728
10613SOL    HW233737   9.392   9.759   6.642
10614SOL     OW33738   8.934   8.213   8.470
10614SOL    HW133739   8.951   8.302   8.499
10614SOL    HW233740   8.876   8.224   8.394
10615SOL     OW33741   5.024   6.679   7.128
10615SOL    HW133742   5.100   6.666   7.185
10615SOL    HW233743   4.977   6.596   7.131
10616SOL     OW33744   1.863   7.178   9.043
10616SOL    HW133745   1.819   7.165   9.126
10616SOL    HW233746   1.820   7.118   8.982
10617SOL     OW33747   2.013   9.071  11.734
10617SOL    HW133748   2.002   9.053  11.641
10617SOL    HW233749   1.932   9.042  11.775
10618SOL     OW33750  14.266   7.423   9.289
10618SOL    HW133751  14.226   7.402   9.374
10618SOL    HW233752  14.236   7.511   9.270
10619SOL     OW33753   9.830  14.411  12.425
10619SOL    HW133754   9.858  14.500  12.447
10619SOL    HW233755   9.883  14.388  12.349
10620SOL     OW33756   6.966   5.487   3.362
10620SOL    HW133757   7.038   5.546   3.385
10620SOL    HW233758   6.896   5.544   3.330
10621SOL     OW33759   3.213   7.874   8.860
10621SOL    HW133760   3.299   7.851   8.824
10621SOL    HW233761   3.231   7.947   8.920
10622SOL     OW33762   6.251  11.117   2.478
10622SOL    HW133763   6.306  11.065   2.537
10622SOL    HW233764   6.298  11.199   2.466
10623SOL     OW33765   4.425   5.204   3.755
10623SOL    HW133766   4.516   5.233   3.752
10623SOL    HW233767   4.388   5.234   3.672
10624SOL     OW33768   0.765   4.464  12.694
10624SOL    HW133769   0.847   4.462  12.744
10624SOL    HW233770   0.792   4.480  12.604
10625SOL     OW33771  13.542   9.155   9.115
10625SOL    HW133772  13.577   9.132   9.202
10625SOL    HW233773  13.562   9.248   9.105
10626SOL     OW33774   4.877   9.105  13.919
10626SOL    HW133775   4.938   9.076  13.851
10626SOL    HW233776   4.930   9.156  13.980
10627SOL     OW33777   3.556   1.328   9.502
10627SOL    HW133778   3.552   1.289   9.415
10627SOL    HW233779   3.648   1.319   9.528
10628SOL     OW33780   1.454   7.469  12.344
10628SOL    HW133781   1.494   7.473  12.257
10628SOL    HW233782   1.525   7.443  12.402
10629SOL     OW33783   9.468   8.441  14.150
10629SOL    HW133784   9.453   8.507  14.217
10629SOL    HW233785   9.394   8.450  14.090
10630SOL     OW33786  14.614  11.199   5.050
10630SOL    HW133787  14.602  11.293   5.039
10630SOL    HW233788  14.651  11.170   4.967
10631SOL     OW33789   3.385  11.233  11.372
10631SOL    HW133790   3.478  11.255  11.369
10631SOL    HW233791   3.348  11.293  11.437
10632SOL     OW33792  11.421  13.785   7.437
10632SOL    HW133793  11.466  13.771   7.520
10632SOL    HW233794  11.490  13.809   7.376
10633SOL     OW33795   2.060  11.338   6.384
10633SOL    HW133796   2.019  11.291   6.457
10633SOL    HW233797   2.003  11.414   6.369
10634SOL     OW33798  10.062  12.471   4.554
10634SOL    HW133799  10.076  12.491   4.462
10634SOL    HW233800  10.075  12.554   4.599
10635SOL     OW33801  11.263   4.771   4.920
10635SOL    HW133802  11.213   4.795   4.998
10635SOL    HW233803  11.353   4.767   4.950
10636SOL     OW33804  12.049   7.061   5.540
10636SOL    HW133805  11.975   7.010   5.575
10636SOL    HW233806  12.009   7.127   5.484
10637SOL     OW33807   8.243   7.628  12.272
10637SOL    HW133808   8.159   7.587  12.293
10637SOL    HW233809   8.274   7.664  12.355
10638SOL     OW33810  14.607  10.568  14.131
10638SOL    HW133811  14.680  10.512  14.104
10638SOL    HW233812  14.536  10.507  14.153
10639SOL     OW33813  12.049   7.870   8.594
10639SOL    HW133814  12.008   7.861   8.680
10639SOL    HW233815  12.141   7.849   8.610
10640SOL     OW33816   9.783   7.482  11.493
10640SOL    HW133817   9.717   7.417  11.519
10640SOL    HW233818   9.811   7.522  11.576
10641SOL     OW33819  12.039   1.221   9.084
10641SOL    HW133820  11.944   1.212   9.093
10641SOL    HW233821  12.062   1.289   9.147
10642SOL     OW33822   3.940   7.102  13.466
10642SOL    HW133823   3.903   7.176  13.418
10642SOL    HW233824   3.962   7.138  13.552
10643SOL     OW33825   3.368   8.669  14.560
10643SOL    HW133826   3.319   8.656  14.641
10643SOL    HW233827   3.346   8.758  14.532
10644SOL     OW33828  11.138   7.773   7.618
10644SOL    HW133829  11.227   7.784   7.651
10644SOL    HW233830  11.109   7.863   7.599
10645SOL     OW33831   6.943   4.859   3.956
10645SOL    HW133832   7.025   4.896   3.989
10645SOL    HW233833   6.899   4.825   4.034
10646SOL     OW33834  13.602   4.984   5.397
10646SOL    HW133835  13.605   4.944   5.483
10646SOL    HW233836  13.557   4.920   5.342
10647SOL     OW33837   5.012   6.023   8.410
10647SOL    HW133838   4.973   5.938   8.429
10647SOL    HW233839   5.106   6.008   8.412
10648SOL     OW33840  11.902  11.687  11.529
10648SOL    HW133841  11.845  11.613  11.508
10648SOL    HW233842  11.987  11.646  11.546
10649SOL     OW33843   5.367   7.123   3.025
10649SOL    HW133844   5.340   7.174   3.102
10649SOL    HW233845   5.429   7.181   2.980
10650SOL     OW33846   0.680   0.921  11.011
10650SOL    HW133847   0.658   1.007  10.974
10650SOL    HW233848   0.685   0.863  10.936
10651SOL     OW33849  12.422   6.251   6.510
10651SOL    HW133850  12.468   6.184   6.560
10651SOL    HW233851  12.418   6.327   6.568
10652SOL     OW33852  10.930   1.337  13.720
10652SOL    HW133853  10.922   1.432  13.710
10652SOL    HW233854  10.950   1.324  13.813
10653SOL     OW33855  13.296  10.574  10.303
10653SOL    HW133856  13.343  10.519  10.366
10653SOL    HW233857  13.363  10.629  10.263
10654SOL     OW33858  12.577   6.649  14.653
10654SOL    HW133859  12.540   6.674  14.738
10654SOL    HW233860  12.630   6.724  14.627
10655SOL     OW33861   4.414   2.295   3.215
10655SOL    HW133862   4.468   2.264   3.142
10655SOL    HW233863   4.441   2.386   3.227
10656SOL     OW33864   5.640   7.482  13.863
10656SOL    HW133865   5.651   7.485  13.768
10656SOL    HW233866   5.712   7.427  13.894
10657SOL     OW33867   0.150   0.633   3.556
10657SOL    HW133868   0.176   0.706   3.612
10657SOL    HW233869   0.156   0.667   3.467
10658SOL     OW33870   2.825  11.115   5.491
10658SOL    HW133871   2.824  11.020   5.483
10658SOL    HW233872   2.868  11.132   5.575
10659SOL     OW33873  14.797   5.304  10.837
10659SOL    HW133874   0.008   5.283  10.845
10659SOL    HW233875  14.754   5.219  10.821
10660SOL     OW33876   0.929   0.855   8.615
10660SOL    HW133877   0.908   0.921   8.681
10660SOL    HW233878   0.932   0.773   8.664
10661SOL     OW33879   4.409  13.507  11.693
10661SOL    HW133880   4.398  13.413  11.704
10661SOL    HW233881   4.352  13.546  11.760
10662SOL     OW33882   0.164  12.366   8.712
10662SOL    HW133883   0.221  12.306   8.664
10662SOL    HW233884   0.210  12.450   8.710
10663SOL     OW33885  11.075  14.321  11.058
10663SOL    HW133886  11.036  14.370  10.985
10663SOL    HW233887  11.016  14.338  11.131
10664SOL     OW33888  11.631  14.686   4.361
10664SOL    HW133889  11.672  14.760   4.315
10664SOL    HW233890  11.633  14.712   4.453
10665SOL     OW33891  11.165   2.815   9.878
10665SOL    HW133892  11.162   2.721   9.858
10665SOL    HW233893  11.101   2.854   9.818
10666SOL     OW33894   7.581   1.766   1.412
10666SOL    HW133895   7.509   1.771   1.349
10666SOL    HW233896   7.637   1.696   1.379
10667SOL     OW33897   9.745   0.317   2.606
10667SOL    HW133898   9.819   0.365   2.644
10667SOL    HW233899   9.685   0.385   2.577
10668SOL     OW33900   9.626   2.774   3.894
10668SOL    HW133901   9.575   2.694   3.907
10668SOL    HW233902   9.566   2.833   3.847
10669SOL     OW33903  12.632   7.320   5.530
10669SOL    HW133904  12.690   7.364   5.592
10669SOL    HW233905  12.600   7.390   5.473
10670SOL     OW33906  13.479   4.961  14.733
10670SOL    HW133907  13.506   5.052  14.720
10670SOL    HW233908  13.435   4.937  14.652
10671SOL     OW33909  13.186   7.470   6.709
10671SOL    HW133910  13.143   7.506   6.631
10671SOL    HW233911  13.116   7.429   6.759
10672SOL     OW33912  12.587   4.897  10.890
10672SOL    HW133913  12.609   4.904  10.982
10672SOL    HW233914  12.496   4.926  10.884
10673SOL     OW33915  14.732   6.458   1.466
10673SOL    HW133916  14.663   6.492   1.523
10673SOL    HW233917  14.697   6.375   1.433
10674SOL     OW33918  11.847   7.181   9.344
10674SOL    HW133919  11.768   7.230   9.363
10674SOL    HW233920  11.834   7.096   9.387
10675SOL     OW33921   1.780   9.407  13.677
10675SOL    HW133922   1.709   9.435  13.620
10675SOL    HW233923   1.738   9.352  13.742
10676SOL     OW33924   6.610  10.223  10.790
10676SOL    HW133925   6.616  10.160  10.862
10676SOL    HW233926   6.684  10.282  10.802
10677SOL     OW33927  11.050  13.904  12.934
10677SOL    HW133928  11.058  13.999  12.922
10677SOL    HW233929  11.139  13.875  12.951
10678SOL     OW33930  12.254   8.641   5.050
10678SOL    HW133931  12.172   8.690   5.057
10678SOL    HW233932  12.231   8.565   4.995
10679SOL     OW33933   6.752   6.656   5.916
10679SOL    HW133934   6.658   6.659   5.936
10679SOL    HW233935   6.781   6.571   5.947
10680SOL     OW33936  11.527   2.162   9.627
10680SOL    HW133937  11.508   2.242   9.675
10680SOL    HW233938  11.604   2.125   9.670
10681SOL     OW33939  10.102   9.008   9.944
10681SOL    HW133940  10.137   8.986   9.858
10681SOL    HW233941  10.177   9.040   9.994
10682SOL     OW33942   3.958  11.896  11.296
10682SOL    HW133943   3.957  11.909  11.391
10682SOL    HW233944   4.051  11.899  11.272
10683SOL     OW33945   4.545   1.346   4.659
10683SOL    HW133946   4.589   1.267   4.629
10683SOL    HW233947   4.608   1.388   4.718
10684SOL     OW33948   4.210  13.158   4.373
10684SOL    HW133949   4.204  13.091   4.442
10684SOL    HW233950   4.296  13.145   4.334
10685SOL     OW33951  10.603   0.927  11.295
10685SOL    HW133952  10.659   0.859  11.333
10685SOL    HW233953  10.664   0.995  11.267
10686SOL     OW33954  10.234  10.222   3.338
10686SOL    HW133955  10.248  10.294   3.277
10686SOL    HW233956  10.151  10.242   3.380
10687SOL     OW33957   1.440   5.037   9.809
10687SOL    HW133958   1.363   5.057   9.757
10687SOL    HW233959   1.416   4.960   9.860
10688SOL     OW33960   0.875   1.057   3.668
10688SOL    HW133961   0.906   0.969   3.645
10688SOL    HW233962   0.838   1.091   3.587
10689SOL     OW33963  13.225   7.311  13.284
10689SOL    HW133964  13.134   7.281  13.277
10689SOL    HW233965  13.233   7.343  13.373
10690SOL     OW33966  10.076   3.587  10.732
10690SOL    HW133967  10.142   3.602  10.665
10690SOL    HW233968  10.095   3.500  10.767
10691SOL     OW33969  10.760   1.520   1.731
10691SOL    HW133970  10.811   1.441   1.749
10691SOL    HW233971  10.703   1.529   1.807
10692SOL     OW33972   3.286  14.604   7.404
10692SOL    HW133973   3.340  14.527   7.384
10692SOL    HW233974   3.199  14.568   7.422
10693SOL     OW33975  14.595  13.967  12.277
10693SOL    HW133976  14.684  13.937  12.297
10693SOL    HW233977  14.600  14.000  12.188
10694SOL     OW33978   8.554   0.933   9.128
10694SOL    HW133979   8.643   0.899   9.141
10694SOL    HW233980   8.547   1.004   9.192
10695SOL     OW33981  13.729   5.036   9.223
10695SOL    HW133982  13.676   4.970   9.178
10695SOL    HW233983  13.749   5.100   9.154
10696SOL     OW33984   3.793   6.957  11.665
10696SOL    HW133985   3.742   6.908  11.731
10696SOL    HW233986   3.880   6.966  11.704
10697SOL     OW33987   1.628   3.751   9.091
10697SOL    HW133988   1.711   3.704   9.082
10697SOL    HW233989   1.613   3.789   9.004
10698SOL     OW33990   1.938   2.491  11.034
10698SOL    HW133991   1.857   2.441  11.033
10698SOL    HW233992   1.925   2.556  11.104
10699SOL     OW33993   3.587   7.207   8.423
10699SOL    HW133994   3.615   7.298   8.429
10699SOL    HW233995   3.666   7.158   8.400
10700SOL     OW33996  12.521   7.034   2.289
10700SOL    HW133997  12.567   6.964   2.335
10700SOL    HW233998  12.583   7.107   2.289
10701SOL     OW33999   8.200  12.501   5.808
10701SOL    HW134000   8.216  12.441   5.735
10701SOL    HW234001   8.271  12.565   5.802
10702SOL     OW34002   2.686   2.369   2.317
10702SOL    HW134003   2.673   2.390   2.410
10702SOL    HW234004   2.772   2.326   2.314
10703SOL     OW34005   8.125   1.019  12.127
10703SOL    HW134006   8.077   1.006  12.209
10703SOL    HW234007   8.189   0.948  12.125
10704SOL     OW34008   7.459  11.413  12.275
10704SOL    HW134009   7.469  11.368  12.191
10704SOL    HW234010   7.549  11.430  12.303
10705SOL     OW34011  11.497  11.174  12.448
10705SOL    HW134012  11.429  11.200  12.385
10705SOL    HW234013  11.575  11.223  12.422
10706SOL     OW34014   3.845   5.950   9.817
10706SOL    HW134015   3.869   5.878   9.758
10706SOL    HW234016   3.762   5.921   9.856
10707SOL     OW34017  12.412   6.492  10.945
10707SOL    HW134018  12.381   6.535  10.865
10707SOL    HW234019  12.497   6.456  10.921
10708SOL     OW34020   6.480   8.790  10.060
10708SOL    HW134021   6.541   8.854  10.095
10708SOL    HW234022   6.449   8.828   9.978
10709SOL     OW34023  13.321   6.425   9.941
10709SOL    HW134024  13.377   6.363   9.988
10709SOL    HW234025  13.256   6.452  10.006
10710SOL     OW34026  13.841   8.380  11.979
10710SOL    HW134027  13.893   8.459  11.993
10710SOL    HW234028  13.787   8.373  12.058
10711SOL     OW34029  11.438   7.492   0.475
10711SOL    HW134030  11.357   7.447   0.452
10711SOL    HW234031  11.462   7.457   0.561
10712SOL     OW34032  14.301   7.666  10.614
10712SOL    HW134033  14.280   7.575  10.592
10712SOL    HW234034  14.384   7.683  10.569
10713SOL     OW34035   3.074   7.976   0.980
10713SOL    HW134036   3.056   7.964   1.074
10713SOL    HW234037   3.073   8.071   0.968
10714SOL     OW34038   4.181   1.198   9.078
10714SOL    HW134039   4.216   1.228   8.994
10714SOL    HW234040   4.251   1.215   9.141
10715SOL     OW34041  10.262  13.877   0.354
10715SOL    HW134042  10.342  13.851   0.309
10715SOL    HW234043  10.234  13.957   0.308
10716SOL     OW34044  13.544  14.273  13.761
10716SOL    HW134045  13.636  14.273  13.785
10716SOL    HW234046  13.507  14.350  13.805
10717SOL     OW34047   2.405  10.674  10.639
10717SOL    HW134048   2.412  10.599  10.580
10717SOL    HW234049   2.356  10.739  10.589
10718SOL     OW34050  10.584  14.731  12.707
10718SOL    HW134051  10.575  14.795  12.637
10718SOL    HW234052  10.594  14.783  12.787
10719SOL     OW34053  12.756   7.185   5.912
10719SOL    HW134054  12.764   7.166   5.819
10719SOL    HW234055  12.686   7.128   5.943
10720SOL     OW34056   6.164  11.528   7.037
10720SOL    HW134057   6.113  11.591   7.087
10720SOL    HW234058   6.248  11.524   7.083
10721SOL     OW34059   3.849   2.033   9.499
10721SOL    HW134060   3.922   1.977   9.527
10721SOL    HW234061   3.860   2.113   9.549
10722SOL     OW34062   5.683   8.681  11.058
10722SOL    HW134063   5.699   8.748  11.124
10722SOL    HW234064   5.623   8.619  11.100
10723SOL     OW34065   2.750   8.203   1.483
10723SOL    HW134066   2.721   8.112   1.483
10723SOL    HW234067   2.790   8.215   1.569
10724SOL     OW34068  13.278   6.932   7.995
10724SOL    HW134069  13.230   6.916   8.077
10724SOL    HW234070  13.271   6.849   7.947
10725SOL     OW34071   9.906   7.784   3.197
10725SOL    HW134072   9.922   7.698   3.234
10725SOL    HW234073   9.842   7.824   3.256
10726SOL     OW34074   8.505  10.145  11.190
10726SOL    HW134075   8.548  10.200  11.256
10726SOL    HW234076   8.572  10.132  11.122
10727SOL     OW34077   6.818   0.008   5.785
10727SOL    HW134078   6.831  14.816   5.727
10727SOL    HW234079   6.851  14.861   5.870
10728SOL     OW34080   8.407   4.112   8.494
10728SOL    HW134081   8.364   4.170   8.431
10728SOL    HW234082   8.335   4.078   8.547
10729SOL     OW34083  11.279   7.203  10.487
10729SOL    HW134084  11.188   7.181  10.471
10729SOL    HW234085  11.288   7.294  10.460
10730SOL     OW34086   9.188  12.377  14.190
10730SOL    HW134087   9.192  12.446  14.123
10730SOL    HW234088   9.095  12.365  14.206
10731SOL     OW34089   8.115   8.003   1.445
10731SOL    HW134090   8.108   7.967   1.533
10731SOL    HW234091   8.175   8.077   1.454
10732SOL     OW34092  12.082   0.046   9.787
10732SOL    HW134093  12.125   0.091   9.714
10732SOL    HW234094  12.012  14.878   9.746
10733SOL     OW34095  12.327   3.701   8.172
10733SOL    HW134096  12.309   3.608   8.188
10733SOL    HW234097  12.405   3.719   8.225
10734SOL     OW34098   0.980  12.373   6.924
10734SOL    HW134099   1.011  12.375   6.834
10734SOL    HW234100   1.035  12.308   6.967
10735SOL     OW34101  12.219  14.036   1.464
10735SOL    HW134102  12.275  13.984   1.406
10735SOL    HW234103  12.160  14.083   1.406
10736SOL     OW34104   4.802   9.967  14.560
10736SOL    HW134105   4.708   9.978  14.577
10736SOL    HW234106   4.842   9.965  14.646
10737SOL     OW34107   9.868   4.070   7.418
10737SOL    HW134108   9.842   4.162   7.420
10737SOL    HW234109   9.943   4.065   7.477
10738SOL     OW34110   5.044  10.785  10.940
10738SOL    HW134111   5.011  10.703  10.902
10738SOL    HW234112   5.139  10.780  10.928
10739SOL     OW34113   7.974  14.616  14.692
10739SOL    HW134114   8.010  14.602  14.604
10739SOL    HW234115   7.885  14.649  14.676
10740SOL     OW34116   2.500   5.766  14.062
10740SOL    HW134117   2.526   5.679  14.031
10740SOL    HW234118   2.571   5.792  14.122
10741SOL     OW34119   9.412   6.271   1.875
10741SOL    HW134120   9.431   6.305   1.788
10741SOL    HW234121   9.495   6.280   1.922
10742SOL     OW34122   5.617   8.089   0.088
10742SOL    HW134123   5.667   8.073   0.008
10742SOL    HW234124   5.541   8.139   0.059
10743SOL     OW34125   4.518  10.973   6.785
10743SOL    HW134126   4.583  11.014   6.729
10743SOL    HW234127   4.434  10.998   6.748
10744SOL     OW34128   1.194   0.076   1.432
10744SOL    HW134129   1.233   0.076   1.344
10744SOL    HW234130   1.127   0.008   1.428
10745SOL     OW34131   2.053   3.314  10.281
10745SOL    HW134132   2.119   3.246  10.297
10745SOL    HW234133   2.080   3.355  10.199
10746SOL     OW34134   4.137   4.742   0.225
10746SOL    HW134135   4.210   4.709   0.172
10746SOL    HW234136   4.075   4.776   0.160
10747SOL     OW34137   1.138   7.913   7.672
10747SOL    HW134138   1.049   7.932   7.703
10747SOL    HW234139   1.144   7.818   7.677
10748SOL     OW34140  11.738  10.336  10.125
10748SOL    HW134141  11.781  10.340  10.211
10748SOL    HW234142  11.645  10.328  10.146
10749SOL     OW34143  14.648   6.385   3.210
10749SOL    HW134144  14.724   6.416   3.160
10749SOL    HW234145  14.678   6.382   3.301
10750SOL     OW34146  10.754   4.516   5.978
10750SOL    HW134147  10.834   4.510   6.030
10750SOL    HW234148  10.784   4.524   5.888
10751SOL     OW34149   6.559  11.447  13.839
10751SOL    HW134150   6.527  11.465  13.927
10751SOL    HW234151   6.624  11.515  13.823
10752SOL     OW34152  10.901   2.450   0.437
10752SOL    HW134153  10.884   2.410   0.351
10752SOL    HW234154  10.870   2.540   0.427
10753SOL     OW34155  10.906  10.931   9.110
10753SOL    HW134156  10.851  10.937   9.032
10753SOL    HW234157  10.957  11.012   9.110
10754SOL     OW34158  11.243  10.711  14.803
10754SOL    HW134159  11.207  10.780  14.748
10754SOL    HW234160  11.167  10.670  14.843
10755SOL     OW34161   6.641   0.714   2.539
10755SOL    HW134162   6.577   0.784   2.551
10755SOL    HW234163   6.605   0.661   2.468
10756SOL     OW34164  11.494   7.475  11.887
10756SOL    HW134165  11.502   7.530  11.965
10756SOL    HW234166  11.508   7.535  11.814
10757SOL     OW34167   3.802   7.057   4.224
10757SOL    HW134168   3.883   7.104   4.205
10757SOL    HW234169   3.819   6.967   4.196
10758SOL     OW34170   7.093   8.338   0.160
10758SOL    HW134171   7.043   8.331   0.241
10758SOL    HW234172   7.028   8.335   0.091
10759SOL     OW34173   6.845   1.965   7.254
10759SOL    HW134174   6.777   1.898   7.252
10759SOL    HW234175   6.921   1.922   7.293
10760SOL     OW34176  14.631  14.447  13.872
10760SOL    HW134177  14.681  14.529  13.868
10760SOL    HW234178  14.686  14.384  13.825
10761SOL     OW34179  13.827   0.844  14.855
10761SOL    HW134180  13.845   0.829  14.762
10761SOL    HW234181  13.746   0.796  14.872
10762SOL     OW34182  13.825   0.963  10.316
10762SOL    HW134183  13.782   1.034  10.267
10762SOL    HW234184  13.895   0.933  10.257
10763SOL     OW34185   6.410  12.529  13.673
10763SOL    HW134186   6.468  12.604  13.691
10763SOL    HW234187   6.322  12.567  13.674
10764SOL     OW34188   7.719   2.309   5.974
10764SOL    HW134189   7.798   2.336   5.927
10764SOL    HW234190   7.662   2.272   5.907
10765SOL     OW34191  13.578   5.240   8.002
10765SOL    HW134192  13.671   5.248   8.021
10765SOL    HW234193  13.559   5.146   8.011
10766SOL     OW34194   0.293   4.662  12.917
10766SOL    HW134195   0.248   4.724  12.860
10766SOL    HW234196   0.385   4.669  12.893
10767SOL     OW34197  13.372   4.497   3.390
10767SOL    HW134198  13.349   4.574   3.442
10767SOL    HW234199  13.368   4.424   3.452
10768SOL     OW34200   0.991  14.330   3.355
10768SOL    HW134201   1.054  14.297   3.290
10768SOL    HW234202   0.908  14.334   3.308
10769SOL     OW34203  12.634   6.901   9.145
10769SOL    HW134204  12.607   6.815   9.177
10769SOL    HW234205  12.697   6.882   9.075
10770SOL     OW34206   1.625   3.529   1.914
10770SOL    HW134207   1.562   3.500   1.981
10770SOL    HW234208   1.581   3.603   1.871
10771SOL     OW34209   2.134   9.795   6.863
10771SOL    HW134210   2.045   9.760   6.853
10771SOL    HW234211   2.129   9.884   6.826
10772SOL     OW34212   7.341   0.864  13.247
10772SOL    HW134213   7.292   0.901  13.320
10772SOL    HW234214   7.326   0.770  13.252
10773SOL     OW34215   6.536   8.686   7.736
10773SOL    HW134216   6.456   8.651   7.695
10773SOL    HW234217   6.512   8.774   7.765
10774SOL     OW34218  10.226   8.982  10.773
10774SOL    HW134219  10.275   8.986  10.691
10774SOL    HW234220  10.207   9.073  10.794
10775SOL     OW34221   3.837   1.921  12.445
10775SOL    HW134222   3.780   1.945  12.519
10775SOL    HW234223   3.807   1.976  12.373
10776SOL     OW34224   5.843  14.488   0.952
10776SOL    HW134225   5.858  14.481   0.858
10776SOL    HW234226   5.758  14.447   0.966
10777SOL     OW34227   5.362  14.058   0.483
10777SOL    HW134228   5.455  14.081   0.490
10777SOL    HW234229   5.329  14.068   0.572
10778SOL     OW34230  14.470  12.600   9.007
10778SOL    HW134231  14.556  12.641   9.002
10778SOL    HW234232  14.432  12.614   8.920
10779SOL     OW34233  10.169  10.074   9.254
10779SOL    HW134234  10.233  10.133   9.292
10779SOL    HW234235  10.089  10.125   9.247
10780SOL     OW34236   2.253   5.040   7.057
10780SOL    HW134237   2.211   5.017   6.974
10780SOL    HW234238   2.186   5.022   7.123
10781SOL     OW34239   6.028   2.079   0.779
10781SOL    HW134240   6.042   2.173   0.767
10781SOL    HW234241   6.084   2.055   0.853
10782SOL     OW34242  14.438  10.877   1.446
10782SOL    HW134243  14.522  10.906   1.412
10782SOL    HW234244  14.452  10.865   1.540
10783SOL     OW34245   2.642   1.837   9.441
10783SOL    HW134246   2.702   1.853   9.513
10783SOL    HW234247   2.697   1.833   9.364
10784SOL     OW34248  11.786   0.376   4.326
10784SOL    HW134249  11.760   0.378   4.418
10784SOL    HW234250  11.843   0.452   4.315
10785SOL     OW34251   8.306   1.712   2.669
10785SOL    HW134252   8.214   1.695   2.691
10785SOL    HW234253   8.303   1.781   2.604
10786SOL     OW34254  13.546   3.419  14.653
10786SOL    HW134255  13.570   3.407  14.745
10786SOL    HW234256  13.451   3.403  14.651
10787SOL     OW34257  13.156  12.562  14.488
10787SOL    HW134258  13.151  12.570  14.393
10787SOL    HW234259  13.104  12.483  14.508
10788SOL     OW34260   7.023   7.363   9.543
10788SOL    HW134261   7.000   7.424   9.473
10788SOL    HW234262   6.945   7.358   9.598
10789SOL     OW34263   2.185  13.606  13.835
10789SOL    HW134264   2.278  13.622  13.822
10789SOL    HW234265   2.176  13.511  13.828
10790SOL     OW34266   5.263  13.556  13.141
10790SOL    HW134267   5.235  13.569  13.050
10790SOL    HW234268   5.348  13.513  13.133
10791SOL     OW34269  10.008   1.176   1.439
10791SOL    HW134270   9.936   1.202   1.381
10791SOL    HW234271  10.018   1.251   1.498
10792SOL     OW34272   4.553   7.976   4.405
10792SOL    HW134273   4.640   8.014   4.391
10792SOL    HW234274   4.519   7.962   4.316
10793SOL     OW34275   8.852   9.974  14.405
10793SOL    HW134276   8.831   9.985  14.313
10793SOL    HW234277   8.810  10.049  14.448
10794SOL     OW34278   0.497   1.323  12.525
10794SOL    HW134279   0.495   1.285  12.437
10794SOL    HW234280   0.589   1.340  12.543
10795SOL     OW34281   9.966  14.276   2.136
10795SOL    HW134282   9.984  14.185   2.110
10795SOL    HW234283   9.882  14.272   2.180
10796SOL     OW34284   9.697  12.846   8.896
10796SOL    HW134285   9.692  12.782   8.968
10796SOL    HW234286   9.701  12.792   8.817
10797SOL     OW34287   8.039   7.916   7.407
10797SOL    HW134288   8.071   7.946   7.492
10797SOL    HW234289   7.950   7.949   7.401
10798SOL     OW34290   5.407   0.964   0.131
10798SOL    HW134291   5.467   1.005   0.193
10798SOL    HW234292   5.462   0.905   0.080
10799SOL     OW34293   3.399   5.890   8.715
10799SOL    HW134294   3.449   5.922   8.791
10799SOL    HW234295   3.339   5.825   8.752
10800SOL     OW34296  14.548  12.965   8.238
10800SOL    HW134297  14.637  12.938   8.258
10800SOL    HW234298  14.544  13.057   8.263
10801SOL     OW34299  12.143  11.416   7.589
10801SOL    HW134300  12.154  11.408   7.494
10801SOL    HW234301  12.181  11.501   7.610
10802SOL     OW34302  13.559   8.421   0.021
10802SOL    HW134303  13.604   8.337   0.019
10802SOL    HW234304  13.579   8.462  14.819
10803SOL     OW34305   0.167   0.245  13.161
10803SOL    HW134306   0.255   0.260  13.197
10803SOL    HW234307   0.163   0.150  13.149
10804SOL     OW34308   2.303   5.722   0.627
10804SOL    HW134309   2.353   5.643   0.605
10804SOL    HW234310   2.268   5.704   0.715
10805SOL     OW34311   9.129   3.361  14.834
10805SOL    HW134312   9.129   3.433  14.771
10805SOL    HW234313   9.104   3.284  14.782
10806SOL     OW34314   5.690   3.954  10.149
10806SOL    HW134315   5.777   3.927  10.179
10806SOL    HW234316   5.633   3.881  10.172
10807SOL     OW34317  14.327   6.239   0.138
10807SOL    HW134318  14.312   6.293   0.061
10807SOL    HW234319  14.265   6.167   0.130
10808SOL     OW34320   4.799  12.619   1.993
10808SOL    HW134321   4.772  12.551   2.054
10808SOL    HW234322   4.823  12.572   1.913
10809SOL     OW34323  12.291  14.430  12.289
10809SOL    HW134324  12.387  14.433  12.287
10809SOL    HW234325  12.266  14.488  12.361
10810SOL     OW34326  13.336  11.431   8.537
10810SOL    HW134327  13.288  11.429   8.619
10810SOL    HW234328  13.278  11.477   8.476
10811SOL     OW34329   8.329  10.175  13.932
10811SOL    HW134330   8.284  10.103  13.976
10811SOL    HW234331   8.260  10.220  13.882
10812SOL     OW34332   6.576   8.395   5.633
10812SOL    HW134333   6.630   8.474   5.637
10812SOL    HW234334   6.498   8.423   5.585
10813SOL     OW34335   5.497   0.056   8.387
10813SOL    HW134336   5.529  14.855   8.353
10813SOL    HW234337   5.510   0.050   8.482
10814SOL     OW34338   5.636   1.336   8.017
10814SOL    HW134339   5.560   1.345   7.959
10814SOL    HW234340   5.599   1.312   8.102
10815SOL     OW34341   3.550   4.228   7.204
10815SOL    HW134342   3.502   4.311   7.197
10815SOL    HW234343   3.489   4.162   7.170
10816SOL     OW34344   0.531   2.491   9.254
10816SOL    HW134345   0.610   2.546   9.260
10816SOL    HW234346   0.561   2.412   9.209
10817SOL     OW34347   8.353   4.868   0.349
10817SOL    HW134348   8.434   4.836   0.310
10817SOL    HW234349   8.335   4.950   0.303
10818SOL     OW34350   1.829  10.723  12.655
10818SOL    HW134351   1.740  10.688  12.646
10818SOL    HW234352   1.878  10.653  12.697
10819SOL     OW34353   6.384   8.624   1.087
10819SOL    HW134354   6.479   8.611   1.084
10819SOL    HW234355   6.352   8.560   1.149
10820SOL     OW34356   5.155  14.838  12.748
10820SOL    HW134357   5.219  14.768  12.763
10820SOL    HW234358   5.193   0.033  12.789
10821SOL     OW34359  11.893   9.285  10.918
10821SOL    HW134360  11.917   9.333  10.997
10821SOL    HW234361  11.848   9.207  10.951
10822SOL     OW34362  12.200   8.202   6.541
10822SOL    HW134363  12.237   8.114   6.535
10822SOL    HW234364  12.147   8.201   6.621
10823SOL     OW34365   6.674  14.259   6.282
10823SOL    HW134366   6.739  14.303   6.227
10823SOL    HW234367   6.724  14.229   6.359
10824SOL     OW34368   9.454   6.064   0.818
10824SOL    HW134369   9.473   5.971   0.827
10824SOL    HW234370   9.395   6.084   0.891
10825SOL     OW34371  14.801   2.241   0.029
10825SOL    HW134372  14.794   2.311  14.846
10825SOL    HW234373  14.879   2.263   0.079
10826SOL     OW34374   7.136   1.507   8.980
10826SOL    HW134375   7.221   1.465   8.992
10826SOL    HW234376   7.116   1.493   8.887
10827SOL     OW34377  12.142   6.133  14.853
10827SOL    HW134378  12.130   6.047   0.012
10827SOL    HW234379  12.073   6.188   0.008
10828SOL     OW34380  11.683   7.120  14.026
10828SOL    HW134381  11.647   7.147  13.941
10828SOL    HW234382  11.738   7.045  14.005
10829SOL     OW34383   8.945  12.292  14.343
10829SOL    HW134384   8.913  12.279  14.432
10829SOL    HW234385   8.866  12.303  14.290
10830SOL     OW34386   9.353   2.005   0.989
10830SOL    HW134387   9.439   2.040   0.964
10830SOL    HW234388   9.315   1.975   0.907
10831SOL     OW34389   5.490   0.444  12.819
10831SOL    HW134390   5.581   0.467  12.839
10831SOL    HW234391   5.473   0.487  12.735
10832SOL     OW34392   7.123   0.986   1.277
10832SOL    HW134393   7.033   1.009   1.254
10832SOL    HW234394   7.131   1.005   1.370
10833SOL     OW34395   4.312   5.392   2.538
10833SOL    HW134396   4.258   5.351   2.605
10833SOL    HW234397   4.323   5.324   2.471
10834SOL     OW34398  11.279   5.263   6.571
10834SOL    HW134399  11.260   5.291   6.660
10834SOL    HW234400  11.212   5.197   6.551
10835SOL     OW34401  13.566  11.253  12.974
10835SOL    HW134402  13.623  11.319  13.012
10835SOL    HW234403  13.477  11.288  12.986
10836SOL     OW34404   5.466  12.886  11.474
10836SOL    HW134405   5.451  12.933  11.556
10836SOL    HW234406   5.475  12.954  11.408
10837SOL     OW34407  10.873   9.814   7.094
10837SOL    HW134408  10.819   9.813   7.015
10837SOL    HW234409  10.856   9.729   7.135
10838SOL     OW34410  12.079   8.006  12.328
10838SOL    HW134411  12.004   7.946  12.336
10838SOL    HW234412  12.155   7.948  12.327
10839SOL     OW34413   5.575   3.114  11.814
10839SOL    HW134414   5.484   3.103  11.787
10839SOL    HW234415   5.591   3.208  11.806
10840SOL     OW34416   7.973   9.448   7.180
10840SOL    HW134417   7.919   9.415   7.252
10840SOL    HW234418   8.041   9.382   7.169
10841SOL     OW34419   7.392  12.828   1.672
10841SOL    HW134420   7.407  12.791   1.585
10841SOL    HW234421   7.377  12.752   1.729
10842SOL     OW34422   1.287   4.096  10.053
10842SOL    HW134423   1.241   4.014  10.070
10842SOL    HW234424   1.265   4.151  10.127
10843SOL     OW34425   8.114   7.688   1.828
10843SOL    HW134426   8.176   7.636   1.878
10843SOL    HW234427   8.028   7.659   1.859
10844SOL     OW34428   7.541  10.888   2.272
10844SOL    HW134429   7.628  10.906   2.306
10844SOL    HW234430   7.535  10.793   2.269
10845SOL     OW34431  11.229   1.119   0.696
10845SOL    HW134432  11.285   1.054   0.739
10845SOL    HW234433  11.260   1.203   0.728
10846SOL     OW34434  12.319  13.691  10.197
10846SOL    HW134435  12.263  13.712  10.272
10846SOL    HW234436  12.359  13.607  10.219
10847SOL     OW34437   7.788   8.071   7.869
10847SOL    HW134438   7.753   8.156   7.895
10847SOL    HW234439   7.752   8.055   7.782
10848SOL     OW34440   7.927   6.009   4.067
10848SOL    HW134441   7.862   6.000   3.997
10848SOL    HW234442   8.001   6.053   4.025
10849SOL     OW34443   6.110  10.440   8.496
10849SOL    HW134444   6.087  10.533   8.502
10849SOL    HW234445   6.037  10.401   8.448
10850SOL     OW34446  14.259   5.282  14.619
10850SOL    HW134447  14.192   5.245  14.676
10850SOL    HW234448  14.223   5.276  14.531
10851SOL     OW34449   7.497   8.808  14.298
10851SOL    HW134450   7.524   8.716  14.299
10851SOL    HW234451   7.455   8.822  14.382
10852SOL     OW34452   0.552   8.375  11.209
10852SOL    HW134453   0.522   8.389  11.299
10852SOL    HW234454   0.512   8.447  11.160
10853SOL     OW34455  13.582   9.125  10.513
10853SOL    HW134456  13.642   9.162  10.447
10853SOL    HW234457  13.523   9.197  10.534
10854SOL     OW34458  10.561  14.189   0.318
10854SOL    HW134459  10.632  14.135   0.284
10854SOL    HW234460  10.482  14.154   0.277
10855SOL     OW34461   1.202  12.628   5.025
10855SOL    HW134462   1.253  12.558   5.064
10855SOL    HW234463   1.120  12.629   5.074
10856SOL     OW34464   2.194   1.510   4.073
10856SOL    HW134465   2.270   1.562   4.101
10856SOL    HW234466   2.231   1.425   4.049
10857SOL     OW34467   3.207   3.462   1.895
10857SOL    HW134468   3.138   3.466   1.961
10857SOL    HW234469   3.198   3.544   1.847
10858SOL     OW34470   8.252   0.027   6.551
10858SOL    HW134471   8.298   0.103   6.516
10858SOL    HW234472   8.179   0.064   6.600
10859SOL     OW34473  10.476   1.498   2.509
10859SOL    HW134474  10.554   1.479   2.560
10859SOL    HW234475  10.427   1.416   2.507
10860SOL     OW34476   9.798  14.584   9.117
10860SOL    HW134477   9.844  14.609   9.198
10860SOL    HW234478   9.718  14.541   9.148
10861SOL     OW34479   3.097  14.846   2.786
10861SOL    HW134480   3.017  14.857   2.839
10861SOL    HW234481   3.159  14.804   2.845
10862SOL     OW34482   1.776   8.283   9.893
10862SOL    HW134483   1.761   8.269   9.987
10862SOL    HW234484   1.771   8.196   9.855
10863SOL     OW34485  11.098   0.687  13.633
10863SOL    HW134486  11.118   0.743  13.708
10863SOL    HW234487  11.057   0.745  13.569
10864SOL     OW34488   4.730   7.356   8.506
10864SOL    HW134489   4.641   7.322   8.502
10864SOL    HW234490   4.775   7.296   8.565
10865SOL     OW34491   3.532   6.436  12.805
10865SOL    HW134492   3.440   6.461  12.812
10865SOL    HW234493   3.580   6.518  12.817
10866SOL     OW34494  14.788  11.411   6.097
10866SOL    HW134495  14.785  11.439   6.189
10866SOL    HW234496  14.795  11.316   6.101
10867SOL     OW34497   7.163   0.175   6.715
10867SOL    HW134498   7.124   0.242   6.659
10867SOL    HW234499   7.093   0.110   6.726
10868SOL     OW34500  10.473   4.253  12.330
10868SOL    HW134501  10.516   4.174  12.296
10868SOL    HW234502  10.428   4.290  12.254
10869SOL     OW34503   2.842   6.623  13.496
10869SOL    HW134504   2.761   6.601  13.543
10869SOL    HW234505   2.902   6.552  13.517
10870SOL     OW34506   3.646  12.070  10.296
10870SOL    HW134507   3.614  11.983  10.319
10870SOL    HW234508   3.573  12.129  10.314
10871SOL     OW34509  14.090   2.828   8.367
10871SOL    HW134510  14.108   2.735   8.383
10871SOL    HW234511  14.176   2.869   8.364
10872SOL     OW34512   7.936   7.550   5.698
10872SOL    HW134513   7.886   7.601   5.634
10872SOL    HW234514   7.992   7.615   5.742
10873SOL     OW34515   2.443  14.095   0.134
10873SOL    HW134516   2.348  14.096   0.147
10873SOL    HW234517   2.460  14.015   0.084
10874SOL     OW34518   0.355   7.908   8.788
10874SOL    HW134519   0.414   7.878   8.718
10874SOL    HW234520   0.414   7.942   8.856
10875SOL     OW34521   1.218   0.745   1.066
10875SOL    HW134522   1.143   0.753   1.007
10875SOL    HW234523   1.294   0.740   1.008
10876SOL     OW34524  10.515   3.347   2.574
10876SOL    HW134525  10.533   3.365   2.481
10876SOL    HW234526  10.490   3.432   2.610
10877SOL     OW34527   6.465   1.212  14.564
10877SOL    HW134528   6.556   1.181  14.570
10877SOL    HW234529   6.416   1.157  14.624
10878SOL     OW34530   5.526  11.639   0.151
10878SOL    HW134531   5.566  11.672   0.232
10878SOL    HW234532   5.579  11.677   0.081
10879SOL     OW34533   0.893  14.132  10.200
10879SOL    HW134534   0.976  14.146  10.245
10879SOL    HW234535   0.902  14.047  10.157
10880SOL     OW34536   0.183   2.397  11.476
10880SOL    HW134537   0.121   2.466  11.451
10880SOL    HW234538   0.146   2.317  11.441
10881SOL     OW34539   0.130   5.117   2.998
10881SOL    HW134540   0.119   5.200   3.044
10881SOL    HW234541   0.224   5.104   2.992
10882SOL     OW34542  13.849  13.628   3.863
10882SOL    HW134543  13.834  13.581   3.945
10882SOL    HW234544  13.767  13.617   3.814
10883SOL     OW34545   7.720  13.703   5.095
10883SOL    HW134546   7.705  13.652   5.015
10883SOL    HW234547   7.802  13.750   5.078
10884SOL     OW34548   2.649  10.645  11.700
10884SOL    HW134549   2.742  10.623  11.699
10884SOL    HW234550   2.605  10.567  11.665
10885SOL     OW34551  14.097  10.216  12.781
10885SOL    HW134552  14.124  10.128  12.754
10885SOL    HW234553  14.060  10.256  12.702
10886SOL     OW34554   4.502  14.548   9.230
10886SOL    HW134555   4.514  14.453   9.234
10886SOL    HW234556   4.591  14.583   9.236
10887SOL     OW34557   4.398   7.530   8.590
10887SOL    HW134558   4.321   7.573   8.553
10887SOL    HW234559   4.413   7.456   8.530
10888SOL     OW34560   0.005   9.144   7.320
10888SOL    HW134561   0.021   9.237   7.333
10888SOL    HW234562  14.846   9.116   7.402
10889SOL     OW34563  11.475   2.059   7.325
10889SOL    HW134564  11.438   2.117   7.259
10889SOL    HW234565  11.551   2.020   7.282
10890SOL     OW34566   2.408   3.202  13.941
10890SOL    HW134567   2.409   3.225  13.848
10890SOL    HW234568   2.318   3.217  13.969
10891SOL     OW34569   9.839   7.342   6.843
10891SOL    HW134570   9.866   7.262   6.889
10891SOL    HW234571   9.912   7.361   6.784
10892SOL     OW34572   7.185   2.028  13.683
10892SOL    HW134573   7.233   2.110  13.667
10892SOL    HW234574   7.193   2.015  13.778
10893SOL     OW34575   9.210   5.191   2.015
10893SOL    HW134576   9.219   5.275   2.060
10893SOL    HW234577   9.296   5.175   1.976
10894SOL     OW34578   8.044   1.697   2.737
10894SOL    HW134579   8.094   1.714   2.816
10894SOL    HW234580   7.997   1.779   2.720
10895SOL     OW34581  10.201  10.140   7.032
10895SOL    HW134582  10.176  10.232   7.018
10895SOL    HW234583  10.138  10.108   7.096
10896SOL     OW34584   7.970  11.211  13.569
10896SOL    HW134585   7.901  11.273  13.547
10896SOL    HW234586   8.029  11.213  13.493
10897SOL     OW34587  11.496   7.953   5.632
10897SOL    HW134588  11.497   8.048   5.648
10897SOL    HW234589  11.414   7.923   5.670
10898SOL     OW34590  13.576   2.272   0.483
10898SOL    HW134591  13.554   2.308   0.397
10898SOL    HW234592  13.649   2.327   0.513
10899SOL     OW34593  13.245  12.560   4.256
10899SOL    HW134594  13.316  12.623   4.259
10899SOL    HW234595  13.229  12.537   4.348
10900SOL     OW34596  14.001  10.687   2.973
10900SOL    HW134597  14.058  10.664   2.900
10900SOL    HW234598  13.927  10.627   2.966
10901SOL     OW34599   6.615   9.814  12.487
10901SOL    HW134600   6.648   9.724  12.483
10901SOL    HW234601   6.687   9.864  12.526
10902SOL     OW34602   9.963  14.423   1.128
10902SOL    HW134603   9.945  14.516   1.114
10902SOL    HW234604  10.057  14.415   1.113
10903SOL     OW34605  13.837   2.504  13.291
10903SOL    HW134606  13.800   2.536  13.374
10903SOL    HW234607  13.921   2.550  13.283
10904SOL     OW34608   7.318   1.043  11.317
10904SOL    HW134609   7.299   0.949  11.312
10904SOL    HW234610   7.323   1.072  11.226
10905SOL     OW34611  14.324   8.347   4.265
10905SOL    HW134612  14.334   8.296   4.184
10905SOL    HW234613  14.362   8.291   4.333
10906SOL     OW34614   0.502   8.957   8.759
10906SOL    HW134615   0.546   8.873   8.771
10906SOL    HW234616   0.494   8.966   8.664
10907SOL     OW34617   7.902   8.613  13.305
10907SOL    HW134618   7.857   8.593  13.386
10907SOL    HW234619   7.944   8.531  13.279
10908SOL     OW34620  10.030  11.121   0.850
10908SOL    HW134621   9.950  11.171   0.834
10908SOL    HW234622  10.077  11.171   0.916
10909SOL     OW34623   5.134   0.053   0.500
10909SOL    HW134624   5.136   0.137   0.546
10909SOL    HW234625   5.067   0.002   0.546
10910SOL     OW34626   2.855   6.005   8.123
10910SOL    HW134627   2.806   5.932   8.161
10910SOL    HW234628   2.795   6.079   8.128
10911SOL     OW34629   5.115   7.379   2.189
10911SOL    HW134630   5.042   7.331   2.227
10911SOL    HW234631   5.176   7.311   2.160
10912SOL     OW34632   5.742  11.512   0.436
10912SOL    HW134633   5.678  11.581   0.415
10912SOL    HW234634   5.699  11.431   0.409
10913SOL     OW34635   3.083  10.173  10.821
10913SOL    HW134636   3.132  10.102  10.863
10913SOL    HW234637   2.994  10.139  10.811
10914SOL     OW34638  12.911   3.523   0.007
10914SOL    HW134639  12.988   3.523   0.064
10914SOL    HW234640  12.891   3.616  14.876
10915SOL     OW34641   1.535   4.908   5.026
10915SOL    HW134642   1.513   4.815   5.019
10915SOL    HW234643   1.612   4.919   4.970
10916SOL     OW34644  12.841  12.849  11.875
10916SOL    HW134645  12.752  12.875  11.900
10916SOL    HW234646  12.897  12.916  11.914
10917SOL     OW34647   2.494   4.032  14.027
10917SOL    HW134648   2.459   4.118  14.052
10917SOL    HW234649   2.589   4.045  14.023
10918SOL     OW34650   1.280   0.072   7.348
10918SOL    HW134651   1.250   0.155   7.313
10918SOL    HW234652   1.289   0.087   7.442
10919SOL     OW34653  13.628   2.915  11.960
10919SOL    HW134654  13.601   2.855  11.890
10919SOL    HW234655  13.630   2.860  12.038
10920SOL     OW34656   1.509   9.892   6.575
10920SOL    HW134657   1.433   9.948   6.560
10920SOL    HW234658   1.543   9.874   6.487
10921SOL     OW34659  13.462  11.512   6.658
10921SOL    HW134660  13.378  11.534   6.698
10921SOL    HW234661  13.441  11.493   6.567
10922SOL     OW34662   1.600  12.511  12.842
10922SOL    HW134663   1.678  12.539  12.796
10922SOL    HW234664   1.534  12.576  12.820
10923SOL     OW34665  12.584  10.412   0.150
10923SOL    HW134666  12.547  10.490   0.109
10923SOL    HW234667  12.514  10.347   0.144
10924SOL     OW34668  10.577   0.071   2.923
10924SOL    HW134669  10.525   0.024   2.989
10924SOL    HW234670  10.578   0.161   2.954
10925SOL     OW34671   1.997   0.272   7.861
10925SOL    HW134672   2.005   0.367   7.849
10925SOL    HW234673   2.086   0.243   7.877
10926SOL     OW34674   8.796   5.540   1.083
10926SOL    HW134675   8.727   5.593   1.043
10926SOL    HW234676   8.875   5.563   1.034
10927SOL     OW34677  14.176   5.604  11.878
10927SOL    HW134678  14.202   5.517  11.848
10927SOL    HW234679  14.085   5.613  11.851
10928SOL     OW34680   8.052   3.574   5.861
10928SOL    HW134681   7.975   3.571   5.805
10928SOL    HW234682   8.125   3.587   5.801
10929SOL     OW34683  13.553  11.677   9.096
10929SOL    HW134684  13.537  11.677   9.002
10929SOL    HW234685  13.467  11.659   9.135
10930SOL     OW34686  14.687   5.122   9.166
10930SOL    HW134687  14.679   5.098   9.258
10930SOL    HW234688  14.745   5.055   9.129
10931SOL     OW34689   3.244  14.330  12.481
10931SOL    HW134690   3.333  14.344  12.451
10931SOL    HW234691   3.190  14.387  12.425
10932SOL     OW34692   6.035  13.442   4.969
10932SOL    HW134693   6.061  13.466   4.880
10932SOL    HW234694   5.941  13.426   4.962
10933SOL     OW34695   8.062  14.651  14.419
10933SOL    HW134696   8.141  14.612  14.383
10933SOL    HW234697   8.079  14.745  14.421
10934SOL     OW34698   9.813   2.707   7.007
10934SOL    HW134699   9.734   2.756   6.986
10934SOL    HW234700   9.883   2.771   7.004
10935SOL     OW34701  13.273  11.760  14.673
10935SOL    HW134702  13.205  11.700  14.644
10935SOL    HW234703  13.303  11.803  14.593
10936SOL     OW34704  13.880   2.354  11.039
10936SOL    HW134705  13.818   2.326  10.971
10936SOL    HW234706  13.870   2.450  11.042
10937SOL     OW34707  10.317   3.545  12.799
10937SOL    HW134708  10.392   3.603  12.810
10937SOL    HW234709  10.344   3.484  12.730
10938SOL     OW34710   6.940  13.748   2.029
10938SOL    HW134711   7.012  13.707   2.077
10938SOL    HW234712   6.909  13.818   2.087
10939SOL     OW34713   0.428   0.927   6.342
10939SOL    HW134714   0.414   0.936   6.436
10939SOL    HW234715   0.351   0.878   6.311
10940SOL     OW34716  12.301  12.248  13.757
10940SOL    HW134717  12.312  12.153  13.762
10940SOL    HW234718  12.210  12.264  13.780
10941SOL     OW34719   5.679   3.135   9.867
10941SOL    HW134720   5.701   3.158   9.958
10941SOL    HW234721   5.693   3.041   9.863
10942SOL     OW34722  12.644   4.529   8.029
10942SOL    HW134723  12.729   4.556   8.064
10942SOL    HW234724  12.583   4.595   8.062
10943SOL     OW34725   1.922   2.792   4.882
10943SOL    HW134726   1.884   2.854   4.943
10943SOL    HW234727   2.012   2.780   4.913
10944SOL     OW34728  11.101  10.856   8.321
10944SOL    HW134729  11.029  10.858   8.259
10944SOL    HW234730  11.064  10.815   8.400
10945SOL     OW34731   3.666   5.306  11.769
10945SOL    HW134732   3.613   5.228  11.753
10945SOL    HW234733   3.624   5.349  11.843
10946SOL     OW34734   3.037   9.044  14.144
10946SOL    HW134735   3.072   8.970  14.194
10946SOL    HW234736   2.943   9.027  14.139
10947SOL     OW34737  14.299   0.641   5.689
10947SOL    HW134738  14.263   0.713   5.637
10947SOL    HW234739  14.255   0.648   5.773
10948SOL     OW34740   3.509   8.210  13.347
10948SOL    HW134741   3.478   8.262  13.421
10948SOL    HW234742   3.432   8.163  13.316
10949SOL     OW34743   9.218  11.501   9.348
10949SOL    HW134744   9.228  11.450   9.268
10949SOL    HW234745   9.131  11.539   9.342
10950SOL     OW34746  13.722   6.929   9.580
10950SOL    HW134747  13.738   7.002   9.520
10950SOL    HW234748  13.803   6.921   9.630
10951SOL     OW34749   2.017   7.156   5.655
10951SOL    HW134750   1.958   7.148   5.580
10951SOL    HW234751   2.099   7.187   5.617
10952SOL     OW34752   2.218   8.832   2.285
10952SOL    HW134753   2.195   8.872   2.369
10952SOL    HW234754   2.134   8.802   2.248
10953SOL     OW34755  14.118   8.980  13.468
10953SOL    HW134756  14.195   8.935  13.434
10953SOL    HW234757  14.044   8.927  13.438
10954SOL     OW34758   8.430   5.011  13.698
10954SOL    HW134759   8.370   5.047  13.763
10954SOL    HW234760   8.512   4.999  13.746
10955SOL     OW34761  12.767   3.983   8.424
10955SOL    HW134762  12.807   3.914   8.371
10955SOL    HW234763  12.699   3.938   8.474
10956SOL     OW34764   4.615   0.509   4.131
10956SOL    HW134765   4.621   0.466   4.046
10956SOL    HW234766   4.531   0.555   4.129
10957SOL     OW34767   2.164  14.161   5.048
10957SOL    HW134768   2.242  14.192   5.095
10957SOL    HW234769   2.119  14.104   5.110
10958SOL     OW34770   4.385   7.852  11.955
10958SOL    HW134771   4.425   7.877  12.039
10958SOL    HW234772   4.292   7.841  11.976
10959SOL     OW34773   3.022  13.861   6.617
10959SOL    HW134774   2.989  13.946   6.646
10959SOL    HW234775   3.117  13.867   6.626
10960SOL     OW34776   5.694   4.622  14.215
10960SOL    HW134777   5.696   4.573  14.298
10960SOL    HW234778   5.769   4.681  14.220
10961SOL     OW34779   2.910   7.509   8.720
10961SOL    HW134780   2.928   7.523   8.813
10961SOL    HW234781   2.880   7.594   8.688
10962SOL     OW34782   0.694   4.893   5.976
10962SOL    HW134783   0.703   4.944   5.895
10962SOL    HW234784   0.662   4.808   5.947
10963SOL     OW34785   3.268   7.198   2.905
10963SOL    HW134786   3.189   7.227   2.860
10963SOL    HW234787   3.328   7.273   2.898
10964SOL     OW34788   8.230  14.403  12.096
10964SOL    HW134789   8.271  14.422  12.180
10964SOL    HW234790   8.228  14.487  12.050
10965SOL     OW34791   7.528   9.089   6.641
10965SOL    HW134792   7.505   8.996   6.639
10965SOL    HW234793   7.560   9.104   6.730
10966SOL     OW34794  12.118   0.577   4.497
10966SOL    HW134795  12.206   0.609   4.477
10966SOL    HW234796  12.066   0.655   4.514
10967SOL     OW34797   6.403   7.531   8.049
10967SOL    HW134798   6.426   7.594   8.117
10967SOL    HW234799   6.441   7.569   7.969
10968SOL     OW34800  13.963   0.558   8.587
10968SOL    HW134801  13.937   0.472   8.622
10968SOL    HW234802  14.018   0.596   8.655
10969SOL     OW34803   1.875   4.135   0.440
10969SOL    HW134804   1.875   4.068   0.372
10969SOL    HW234805   1.838   4.212   0.397
10970SOL     OW34806   9.384   4.436   9.143
10970SOL    HW134807   9.393   4.350   9.184
10970SOL    HW234808   9.469   4.479   9.159
10971SOL     OW34809  13.887  11.136   4.890
10971SOL    HW134810  13.838  11.218   4.876
10971SOL    HW234811  13.962  11.144   4.832
10972SOL     OW34812   8.304   9.272   5.790
10972SOL    HW134813   8.348   9.188   5.804
10972SOL    HW234814   8.375   9.337   5.793
10973SOL     OW34815  11.923   0.493  13.097
10973SOL    HW134816  12.001   0.500  13.041
10973SOL    HW234817  11.886   0.582  13.097
10974SOL     OW34818   7.235   4.990   1.303
10974SOL    HW134819   7.289   4.920   1.339
10974SOL    HW234820   7.249   4.987   1.209
10975SOL     OW34821  11.520   2.973   6.622
10975SOL    HW134822  11.604   2.928   6.617
10975SOL    HW234823  11.511   2.997   6.714
10976SOL     OW34824  13.745  12.789  10.077
10976SOL    HW134825  13.747  12.693  10.081
10976SOL    HW234826  13.659  12.810  10.041
10977SOL     OW34827   0.122  12.783  14.082
10977SOL    HW134828   0.193  12.817  14.027
10977SOL    HW234829   0.061  12.857  14.089
10978SOL     OW34830   2.872  13.572   4.328
10978SOL    HW134831   2.922  13.491   4.344
10978SOL    HW234832   2.901  13.631   4.398
10979SOL     OW34833  14.593   6.157   7.470
10979SOL    HW134834  14.665   6.132   7.528
10979SOL    HW234835  14.526   6.090   7.484
10980SOL     OW34836   4.935   4.446   5.437
10980SOL    HW134837   5.025   4.480   5.431
10980SOL    HW234838   4.902   4.448   5.348
10981SOL     OW34839   0.042   2.164   3.494
10981SOL    HW134840   0.117   2.117   3.458
10981SOL    HW234841  14.865   2.095   3.524
10982SOL     OW34842   6.791   5.072  14.270
10982SOL    HW134843   6.744   5.093  14.189
10982SOL    HW234844   6.763   5.140  14.331
10983SOL     OW34845   4.305   7.457  10.101
10983SOL    HW134846   4.220   7.436  10.140
10983SOL    HW234847   4.301   7.551  10.083
10984SOL     OW34848   3.752   0.575   1.539
10984SOL    HW134849   3.667   0.612   1.563
10984SOL    HW234850   3.735   0.529   1.457
10985SOL     OW34851   4.714  12.331   1.435
10985SOL    HW134852   4.783  12.280   1.478
10985SOL    HW234853   4.751  12.418   1.423
10986SOL     OW34854   0.994   0.627  11.113
10986SOL    HW134855   1.017   0.692  11.047
10986SOL    HW234856   1.041   0.548  11.087
10987SOL     OW34857   5.344  13.332   0.264
10987SOL    HW134858   5.392  13.326   0.180
10987SOL    HW234859   5.406  13.297   0.328
10988SOL     OW34860   2.950  13.535   0.424
10988SOL    HW134861   3.029  13.576   0.460
10988SOL    HW234862   2.894  13.519   0.500
10989SOL     OW34863  12.240  11.168   4.976
10989SOL    HW134864  12.231  11.251   5.021
10989SOL    HW234865  12.334  11.161   4.957
10990SOL     OW34866   0.165   5.994  11.431
10990SOL    HW134867   0.101   5.978  11.362
10990SOL    HW234868   0.227   5.921  11.425
10991SOL     OW34869   7.405  13.377  12.629
10991SOL    HW134870   7.365  13.335  12.705
10991SOL    HW234871   7.469  13.314  12.597
10992SOL     OW34872   2.646   1.392   5.910
10992SOL    HW134873   2.604   1.376   5.995
10992SOL    HW234874   2.577   1.434   5.858
10993SOL     OW34875  14.783   2.577  14.020
10993SOL    HW134876  14.690   2.566  14.004
10993SOL    HW234877  14.800   2.670  14.003
10994SOL     OW34878   7.480   1.741  12.457
10994SOL    HW134879   7.520   1.681  12.394
10994SOL    HW234880   7.395   1.702  12.477
10995SOL     OW34881   0.960   4.024   8.323
10995SOL    HW134882   0.945   3.977   8.241
10995SOL    HW234883   0.957   4.116   8.299
10996SOL     OW34884   9.571  12.909  11.331
10996SOL    HW134885   9.499  12.870  11.381
10996SOL    HW234886   9.650  12.877  11.375
10997SOL     OW34887   1.010  10.011   9.554
10997SOL    HW134888   0.975  10.099   9.565
10997SOL    HW234889   0.959   9.957   9.614
10998SOL     OW34890  11.980   1.476   8.526
10998SOL    HW134891  11.927   1.416   8.578
10998SOL    HW234892  12.065   1.433   8.519
10999SOL     OW34893   5.375  12.160   1.462
10999SOL    HW134894   5.314  12.093   1.491
10999SOL    HW234895   5.427  12.181   1.540
11000SOL     OW34896   5.552  11.697  10.469
11000SOL    HW134897   5.462  11.673  10.489
11000SOL    HW234898   5.593  11.710  10.555
11001SOL     OW34899   8.216  11.056   5.376
11001SOL    HW134900   8.226  11.038   5.470
11001SOL    HW234901   8.165  10.983   5.343
11002SOL     OW34902  13.921   1.167   5.390
11002SOL    HW134903  14.012   1.193   5.375
11002SOL    HW234904  13.918   1.144   5.483
11003SOL     OW34905   3.617   8.119   8.907
11003SOL    HW134906   3.590   8.028   8.918
11003SOL    HW234907   3.692   8.130   8.965
11004SOL     OW34908  10.460  12.033  12.693
11004SOL    HW134909  10.417  11.993  12.768
11004SOL    HW234910  10.470  12.125  12.717
11005SOL     OW34911   7.147  13.475  11.635
11005SOL    HW134912   7.085  13.414  11.674
11005SOL    HW234913   7.097  13.556  11.623
11006SOL     OW34914  10.178   2.079   4.486
11006SOL    HW134915  10.260   2.114   4.451
11006SOL    HW234916  10.110   2.132   4.446
11007SOL     OW34917  13.967   6.031  14.389
11007SOL    HW134918  13.948   6.122  14.410
11007SOL    HW234919  13.897   6.005  14.329
11008SOL     OW34920  14.262   5.801   8.731
11008SOL    HW134921  14.272   5.764   8.644
11008SOL    HW234922  14.269   5.726   8.790
11009SOL     OW34923   7.754  10.895  14.387
11009SOL    HW134924   7.828  10.877  14.445
11009SOL    HW234925   7.793  10.934  14.309
11010SOL     OW34926   7.812   0.464  12.416
11010SOL    HW134927   7.890   0.421  12.382
11010SOL    HW234928   7.804   0.544  12.364
11011SOL     OW34929   4.092  10.059  13.743
11011SOL    HW134930   4.142  10.141  13.744
11011SOL    HW234931   4.005  10.084  13.713
11012SOL     OW34932  14.380  11.224   2.536
11012SOL    HW134933  14.299  11.197   2.580
11012SOL    HW234934  14.450  11.191   2.591
11013SOL     OW34935   8.075   0.001   6.905
11013SOL    HW134936   8.085   0.029   6.996
11013SOL    HW234937   8.034  14.797   6.910
11014SOL     OW34938   7.440  10.634   1.932
11014SOL    HW134939   7.413  10.714   1.885
11014SOL    HW234940   7.395  10.640   2.016
11015SOL     OW34941   0.027   6.932   9.922
11015SOL    HW134942   0.115   6.909   9.953
11015SOL    HW234943  14.880   7.001   9.982
11016SOL     OW34944   7.360   8.789   3.563
11016SOL    HW134945   7.447   8.820   3.590
11016SOL    HW234946   7.378   8.716   3.504
11017SOL     OW34947  14.786  12.248   8.637
11017SOL    HW134948  14.841  12.206   8.572
11017SOL    HW234949  14.845  12.307   8.684
11018SOL     OW34950   3.008  14.775   8.312
11018SOL    HW134951   3.001  14.688   8.351
11018SOL    HW234952   2.926  14.818   8.336
11019SOL     OW34953   6.115   1.439   9.486
11019SOL    HW134954   6.139   1.437   9.579
11019SOL    HW234955   6.082   1.528   9.472
11020SOL     OW34956   2.485   0.683   5.341
11020SOL    HW134957   2.547   0.752   5.365
11020SOL    HW234958   2.411   0.695   5.401
11021SOL     OW34959  12.086   4.000  11.430
11021SOL    HW134960  12.129   4.066  11.375
11021SOL    HW234961  12.037   4.050  11.494
11022SOL     OW34962   0.145  12.968   0.944
11022SOL    HW134963   0.230  13.004   0.916
11022SOL    HW234964   0.115  13.026   1.013
11023SOL     OW34965  11.825  10.383   0.874
11023SOL    HW134966  11.858  10.326   0.944
11023SOL    HW234967  11.734  10.357   0.862
11024SOL     OW34968   9.856   1.525  12.032
11024SOL    HW134969   9.905   1.600  11.999
11024SOL    HW234970   9.771   1.530  11.988
11025SOL     OW34971   6.442   2.735  14.586
11025SOL    HW134972   6.360   2.703  14.621
11025SOL    HW234973   6.437   2.718  14.492
11026SOL     OW34974  10.139   2.884   4.562
11026SOL    HW134975  10.190   2.953   4.603
11026SOL    HW234976  10.053   2.890   4.604
11027SOL     OW34977  12.695   6.435   8.767
11027SOL    HW134978  12.736   6.431   8.680
11027SOL    HW234979  12.638   6.359   8.770
11028SOL     OW34980  14.644   0.430  10.871
11028SOL    HW134981  14.657   0.424  10.776
11028SOL    HW234982  14.578   0.364  10.890
11029SOL     OW34983   7.637  11.263   4.509
11029SOL    HW134984   7.600  11.334   4.457
11029SOL    HW234985   7.594  11.184   4.475
11030SOL     OW34986   8.806   6.595   9.348
11030SOL    HW134987   8.881   6.555   9.392
11030SOL    HW234988   8.830   6.596   9.255
11031SOL     OW34989   5.038   2.092   0.362
11031SOL    HW134990   5.128   2.095   0.329
11031SOL    HW234991   5.048   2.078   0.456
11032SOL     OW34992   2.623   0.085   1.420
11032SOL    HW134993   2.644   0.137   1.498
11032SOL    HW234994   2.570   0.012   1.452
11033SOL     OW34995   6.257   2.172  12.262
11033SOL    HW134996   6.290   2.234  12.327
11033SOL    HW234997   6.323   2.103  12.259
11034SOL     OW34998  13.090  14.869  11.260
11034SOL    HW134999  13.114  14.870  11.167
11034SOL    HW235000  13.020  14.804  11.266
11035SOL     OW35001   3.803   5.406   4.445
11035SOL    HW135002   3.808   5.310   4.445
11035SOL    HW235003   3.710   5.425   4.452
11036SOL     OW35004  12.549   4.021   3.407
11036SOL    HW135005  12.614   3.959   3.441
11036SOL    HW235006  12.487   3.967   3.358
11037SOL     OW35007  14.500   3.968   9.292
11037SOL    HW135008  14.449   3.926   9.222
11037SOL    HW235009  14.587   3.979   9.255
11038SOL     OW35010   0.879  13.450   6.884
11038SOL    HW135011   0.956  13.487   6.926
11038SOL    HW235012   0.826  13.527   6.861
11039SOL     OW35013   7.222   4.567   5.836
11039SOL    HW135014   7.168   4.556   5.914
11039SOL    HW235015   7.305   4.600   5.869
11040SOL     OW35016  12.340   6.196   2.266
11040SOL    HW135017  12.372   6.209   2.176
11040SOL    HW235018  12.257   6.243   2.268
11041SOL     OW35019  12.725  14.375  12.876
11041SOL    HW135020  12.675  14.343  12.801
11041SOL    HW235021  12.814  14.344  12.859
11042SOL     OW35022   6.994   8.553   2.284
11042SOL    HW135023   6.941   8.554   2.204
11042SOL    HW235024   6.958   8.481   2.335
11043SOL     OW35025   8.333   6.354  12.286
11043SOL    HW135026   8.366   6.441  12.260
11043SOL    HW235027   8.363   6.343  12.376
11044SOL     OW35028   9.307   7.907  11.910
11044SOL    HW135029   9.270   7.988  11.877
11044SOL    HW235030   9.243   7.839  11.887
11045SOL     OW35031   9.308   2.952  11.656
11045SOL    HW135032   9.387   2.978  11.703
11045SOL    HW235033   9.240   2.948  11.723
11046SOL     OW35034   1.269  10.048   5.293
11046SOL    HW135035   1.332  10.089   5.233
11046SOL    HW235036   1.319   9.979   5.337
11047SOL     OW35037   5.792  11.481   5.353
11047SOL    HW135038   5.711  11.501   5.401
11047SOL    HW235039   5.773  11.401   5.305
11048SOL     OW35040  11.777  13.913   3.962
11048SOL    HW135041  11.725  13.934   3.885
11048SOL    HW235042  11.862  13.955   3.946
11049SOL     OW35043   4.592   8.537   3.871
11049SOL    HW135044   4.637   8.615   3.904
11049SOL    HW235045   4.637   8.517   3.789
11050SOL     OW35046  10.070   3.718   7.883
11050SOL    HW135047   9.979   3.727   7.852
11050SOL    HW235048  10.062   3.682   7.971
11051SOL     OW35049   5.396   6.577   7.493
11051SOL    HW135050   5.362   6.560   7.406
11051SOL    HW235051   5.364   6.664   7.515
11052SOL     OW35052   8.509  13.508   3.061
11052SOL    HW135053   8.539  13.464   3.141
11052SOL    HW235054   8.509  13.601   3.083
11053SOL     OW35055  10.732   9.790  12.882
11053SOL    HW135056  10.763   9.827  12.799
11053SOL    HW235057  10.778   9.840  12.949
11054SOL     OW35058   4.318   0.557  12.190
11054SOL    HW135059   4.412   0.541  12.200
11054SOL    HW235060   4.303   0.551  12.095
11055SOL     OW35061  12.298   6.086  10.006
11055SOL    HW135062  12.264   6.082   9.917
11055SOL    HW235063  12.298   6.180  10.028
11056SOL     OW35064  13.670   2.648  13.037
11056SOL    HW135065  13.581   2.653  13.072
11056SOL    HW235066  13.706   2.569  13.077
11057SOL     OW35067   5.891  10.033   0.145
11057SOL    HW135068   5.854  10.121   0.136
11057SOL    HW235069   5.983  10.048   0.166
11058SOL     OW35070   3.329  11.225   5.263
11058SOL    HW135071   3.386  11.241   5.338
11058SOL    HW235072   3.264  11.295   5.267
11059SOL     OW35073  13.254   8.217   0.582
11059SOL    HW135074  13.188   8.191   0.646
11059SOL    HW235075  13.205   8.235   0.502
11060SOL     OW35076  12.646  14.580  14.288
11060SOL    HW135077  12.726  14.627  14.310
11060SOL    HW235078  12.576  14.635  14.322
11061SOL     OW35079  13.544  10.426   8.447
11061SOL    HW135080  13.590  10.343   8.436
11061SOL    HW235081  13.592  10.487   8.392
11062SOL     OW35082   9.185   9.415   9.598
11062SOL    HW135083   9.120   9.453   9.539
11062SOL    HW235084   9.263   9.405   9.544
11063SOL     OW35085   9.289   9.967   9.670
11063SOL    HW135086   9.384   9.954   9.678
11063SOL    HW235087   9.252   9.879   9.671
11064SOL     OW35088   1.083   2.719  11.041
11064SOL    HW135089   1.010   2.765  11.082
11064SOL    HW235090   1.161   2.767  11.068
11065SOL     OW35091  11.669   2.540   4.902
11065SOL    HW135092  11.689   2.465   4.958
11065SOL    HW235093  11.737   2.539   4.834
11066SOL     OW35094   9.240  10.506   9.064
11066SOL    HW135095   9.262  10.426   9.017
11066SOL    HW235096   9.147  10.496   9.084
11067SOL     OW35097   0.445   0.137  11.652
11067SOL    HW135098   0.508   0.189  11.702
11067SOL    HW235099   0.451   0.171  11.563
11068SOL     OW35100   2.793  10.571   9.475
11068SOL    HW135101   2.780  10.476   9.473
11068SOL    HW235102   2.888  10.582   9.471
11069SOL     OW35103   2.110  12.822  13.778
11069SOL    HW135104   2.169  12.819  13.853
11069SOL    HW235105   2.167  12.819  13.702
11070SOL     OW35106   8.538   1.081  10.159
11070SOL    HW135107   8.596   1.033  10.100
11070SOL    HW235108   8.592   1.101  10.235
11071SOL     OW35109   3.611  13.148   9.999
11071SOL    HW135110   3.633  13.241  10.011
11071SOL    HW235111   3.691  13.110   9.961
11072SOL     OW35112   8.546   3.410  10.550
11072SOL    HW135113   8.628   3.402  10.599
11072SOL    HW235114   8.508   3.492  10.582
11073SOL     OW35115   7.993   3.486   9.412
11073SOL    HW135116   7.922   3.455   9.356
11073SOL    HW235117   8.023   3.407   9.458
11074SOL     OW35118  12.997   7.831   5.486
11074SOL    HW135119  13.088   7.822   5.459
11074SOL    HW235120  12.987   7.925   5.505
11075SOL     OW35121  11.316   5.254   5.767
11075SOL    HW135122  11.377   5.310   5.719
11075SOL    HW235123  11.240   5.247   5.710
11076SOL     OW35124   5.135   7.848  14.312
11076SOL    HW135125   5.187   7.926  14.293
11076SOL    HW235126   5.186   7.799  14.376
11077SOL     OW35127   4.478  14.325   2.546
11077SOL    HW135128   4.397  14.312   2.496
11077SOL    HW235129   4.515  14.237   2.554
11078SOL     OW35130  10.169  12.929  12.552
11078SOL    HW135131  10.104  12.996  12.571
11078SOL    HW235132  10.241  12.977  12.510
11079SOL     OW35133   0.207   1.831   1.936
11079SOL    HW135134   0.138   1.881   1.980
11079SOL    HW235135   0.232   1.885   1.861
11080SOL     OW35136  10.284   1.206   4.341
11080SOL    HW135137  10.298   1.160   4.424
11080SOL    HW235138  10.338   1.159   4.278
11081SOL     OW35139   1.755  13.664   9.411
11081SOL    HW135140   1.684  13.706   9.363
11081SOL    HW235141   1.772  13.583   9.363
11082SOL     OW35142  12.235   7.443   8.434
11082SOL    HW135143  12.320   7.480   8.459
11082SOL    HW235144  12.171   7.501   8.476
11083SOL     OW35145   4.006   5.320   8.435
11083SOL    HW135146   4.047   5.308   8.350
11083SOL    HW235147   3.930   5.376   8.418
11084SOL     OW35148   7.472   9.151   7.030
11084SOL    HW135149   7.537   9.104   6.978
11084SOL    HW235150   7.424   9.203   6.966
11085SOL     OW35151   8.559   9.487   1.077
11085SOL    HW135152   8.597   9.557   1.130
11085SOL    HW235153   8.523   9.425   1.140
11086SOL     OW35154   2.903  13.593   3.315
11086SOL    HW135155   2.815  13.630   3.313
11086SOL    HW235156   2.935  13.612   3.403
11087SOL     OW35157   4.135   8.373   4.549
11087SOL    HW135158   4.224   8.401   4.569
11087SOL    HW235159   4.102   8.440   4.489
11088SOL     OW35160   6.450   0.077   5.014
11088SOL    HW135161   6.484   0.164   4.997
11088SOL    HW235162   6.496   0.048   5.092
11089SOL     OW35163  10.637   7.322   6.090
11089SOL    HW135164  10.611   7.240   6.049
11089SOL    HW235165  10.595   7.320   6.176
11090SOL     OW35166   8.936  12.124  10.673
11090SOL    HW135167   8.889  12.067  10.612
11090SOL    HW235168   8.877  12.198  10.686
11091SOL     OW35169  11.374   9.984  10.962
11091SOL    HW135170  11.327   9.947  10.887
11091SOL    HW235171  11.396   9.908  11.016
11092SOL     OW35172  11.984   1.441  12.919
11092SOL    HW135173  11.897   1.471  12.892
11092SOL    HW235174  12.030   1.520  12.947
11093SOL     OW35175   5.645   2.590   8.438
11093SOL    HW135176   5.612   2.507   8.402
11093SOL    HW235177   5.566   2.639   8.459
11094SOL     OW35178  10.923   7.646   0.121
11094SOL    HW135179  10.994   7.599   0.165
11094SOL    HW235180  10.949   7.647   0.029
11095SOL     OW35181  10.262  11.833   3.156
11095SOL    HW135182  10.251  11.825   3.062
11095SOL    HW235183  10.292  11.923   3.169
11096SOL     OW35184   5.009   0.300  10.970
11096SOL    HW135185   5.101   0.315  10.993
11096SOL    HW235186   4.998   0.205  10.973
11097SOL     OW35187   8.728   1.502   4.287
11097SOL    HW135188   8.692   1.492   4.199
11097SOL    HW235189   8.656   1.536   4.339
11098SOL     OW35190   6.591  13.434   2.747
11098SOL    HW135191   6.549  13.415   2.664
11098SOL    HW235192   6.570  13.359   2.803
11099SOL     OW35193   7.152   8.853  12.995
11099SOL    HW135194   7.175   8.937  12.955
11099SOL    HW235195   7.109   8.876  13.077
11100SOL     OW35196   4.209   0.215   8.277
11100SOL    HW135197   4.114   0.223   8.266
11100SOL    HW235198   4.222   0.213   8.371
11101SOL     OW35199  11.840   1.999   5.567
11101SOL    HW135200  11.898   1.934   5.609
11101SOL    HW235201  11.898   2.049   5.509
11102SOL     OW35202   2.357  13.560  14.349
11102SOL    HW135203   2.403  13.628  14.398
11102SOL    HW235204   2.347  13.595  14.261
11103SOL     OW35205  13.399   9.886  12.820
11103SOL    HW135206  13.307   9.859  12.817
11103SOL    HW235207  13.396   9.978  12.844
11104SOL     OW35208   9.344   6.653  11.471
11104SOL    HW135209   9.351   6.572  11.522
11104SOL    HW235210   9.391   6.634  11.390
11105SOL     OW35211   0.530   5.466   0.470
11105SOL    HW135212   0.540   5.561   0.472
11105SOL    HW235213   0.453   5.451   0.415
11106SOL     OW35214   1.284   7.000   0.920
11106SOL    HW135215   1.254   7.064   0.855
11106SOL    HW235216   1.372   6.976   0.892
11107SOL     OW35217   0.664  14.270  10.191
11107SOL    HW135218   0.681  14.364  10.189
11107SOL    HW235219   0.751  14.230  10.183
11108SOL     OW35220   8.317   5.068   8.154
11108SOL    HW135221   8.352   5.125   8.085
11108SOL    HW235222   8.246   5.020   8.111
11109SOL     OW35223   9.276  10.226   0.541
11109SOL    HW135224   9.319  10.310   0.560
11109SOL    HW235225   9.342  10.161   0.563
11110SOL     OW35226  12.086   4.640   8.554
11110SOL    HW135227  12.056   4.645   8.644
11110SOL    HW235228  12.006   4.634   8.502
11111SOL     OW35229   9.174   0.287   9.837
11111SOL    HW135230   9.265   0.260   9.847
11111SOL    HW235231   9.140   0.293   9.927
11112SOL     OW35232   6.380  12.922  13.190
11112SOL    HW135233   6.471  12.902  13.166
11112SOL    HW235234   6.358  12.855  13.256
11113SOL     OW35235  11.110  12.878   8.152
11113SOL    HW135236  11.184  12.938   8.146
11113SOL    HW235237  11.146  12.792   8.128
11114SOL     OW35238   1.331   9.703  10.745
11114SOL    HW135239   1.258   9.722  10.687
11114SOL    HW235240   1.296   9.714  10.833
11115SOL     OW35241   2.036   8.688   4.847
11115SOL    HW135242   2.117   8.653   4.883
11115SOL    HW235243   2.053   8.781   4.834
11116SOL     OW35244  10.506   0.926   6.949
11116SOL    HW135245  10.583   0.956   6.998
11116SOL    HW235246  10.485   0.999   6.891
11117SOL     OW35247  10.455   4.981  11.380
11117SOL    HW135248  10.450   5.060  11.433
11117SOL    HW235249  10.376   4.984  11.326
11118SOL     OW35250   1.079  11.613   5.005
11118SOL    HW135251   1.023  11.680   5.045
11118SOL    HW235252   1.149  11.663   4.963
11119SOL     OW35253   1.496   4.891  10.175
11119SOL    HW135254   1.453   4.948  10.111
11119SOL    HW235255   1.499   4.943  10.255
11120SOL     OW35256   0.323  11.684   5.358
11120SOL    HW135257   0.234  11.673   5.393
11120SOL    HW235258   0.333  11.779   5.351
11121SOL     OW35259   2.457   6.588   4.660
11121SOL    HW135260   2.411   6.653   4.609
11121SOL    HW235261   2.546   6.622   4.669
11122SOL     OW35262  11.401  14.200   3.242
11122SOL    HW135263  11.350  14.190   3.322
11122SOL    HW235264  11.492  14.205   3.271
11123SOL     OW35265   3.492   4.883   0.428
11123SOL    HW135266   3.441   4.826   0.371
11123SOL    HW235267   3.502   4.834   0.509
11124SOL     OW35268   3.593  11.617   4.276
11124SOL    HW135269   3.532  11.638   4.347
11124SOL    HW235270   3.651  11.550   4.314
11125SOL     OW35271   8.930   7.090   1.931
11125SOL    HW135272   9.016   7.114   1.896
11125SOL    HW235273   8.867   7.138   1.876
11126SOL     OW35274   7.529   1.851  13.500
11126SOL    HW135275   7.566   1.939  13.508
11126SOL    HW235276   7.526   1.835  13.405
11127SOL     OW35277   4.333   1.831  13.860
11127SOL    HW135278   4.417   1.824  13.816
11127SOL    HW235279   4.322   1.746  13.904
11128SOL     OW35280   6.017  11.341   5.414
11128SOL    HW135281   5.939  11.338   5.358
11128SOL    HW235282   6.045  11.433   5.410
11129SOL     OW35283   4.051   6.289   6.179
11129SOL    HW135284   4.024   6.280   6.087
11129SOL    HW235285   4.001   6.364   6.211
11130SOL     OW35286   8.211   2.258   8.689
11130SOL    HW135287   8.179   2.195   8.753
11130SOL    HW235288   8.280   2.306   8.734
11131SOL     OW35289   9.583   5.166   2.743
11131SOL    HW135290   9.585   5.145   2.650
11131SOL    HW235291   9.638   5.099   2.783
11132SOL     OW35292  10.151  12.161   3.018
11132SOL    HW135293  10.087  12.091   2.999
11132SOL    HW235294  10.106  12.241   2.993
11133SOL     OW35295  12.933   8.265   6.937
11133SOL    HW135296  12.926   8.316   7.018
11133SOL    HW235297  12.897   8.323   6.870
11134SOL     OW35298   1.740   9.838  10.243
11134SOL    HW135299   1.688   9.763  10.270
11134SOL    HW235300   1.827   9.802  10.226
11135SOL     OW35301  10.539   2.756   3.018
11135SOL    HW135302  10.627   2.755   2.980
11135SOL    HW235303  10.553   2.748   3.112
11136SOL     OW35304   1.997   9.547   8.931
11136SOL    HW135305   2.047   9.530   8.852
11136SOL    HW235306   1.906   9.533   8.906
11137SOL     OW35307  12.877   5.936   2.795
11137SOL    HW135308  12.849   5.962   2.707
11137SOL    HW235309  12.957   5.885   2.781
11138SOL     OW35310   4.586   2.371   4.773
11138SOL    HW135311   4.530   2.298   4.800
11138SOL    HW235312   4.526   2.437   4.738
11139SOL     OW35313   0.008   7.543  11.297
11139SOL    HW135314   0.072   7.529  11.366
11139SOL    HW235315  14.856   7.631  11.314
11140SOL     OW35316   7.224  13.914   3.076
11140SOL    HW135317   7.201  13.997   3.119
11140SOL    HW235318   7.319  13.921   3.062
11141SOL     OW35319   0.733   3.553   4.505
11141SOL    HW135320   0.811   3.558   4.560
11141SOL    HW235321   0.713   3.645   4.485
11142SOL     OW35322  11.999   6.615   2.069
11142SOL    HW135323  11.979   6.522   2.074
11142SOL    HW235324  11.977   6.639   1.979
11143SOL     OW35325  10.681   5.828   3.593
11143SOL    HW135326  10.587   5.828   3.610
11143SOL    HW235327  10.721   5.841   3.679
11144SOL     OW35328   5.241   8.606   9.224
11144SOL    HW135329   5.320   8.655   9.247
11144SOL    HW235330   5.266   8.557   9.145
11145SOL     OW35331   3.678   5.552   1.577
11145SOL    HW135332   3.696   5.618   1.510
11145SOL    HW235333   3.757   5.553   1.632
11146SOL     OW35334   3.303  13.405   8.314
11146SOL    HW135335   3.294  13.404   8.409
11146SOL    HW235336   3.397  13.397   8.299
11147SOL     OW35337  13.271  14.651   4.071
11147SOL    HW135338  13.223  14.591   4.127
11147SOL    HW235339  13.240  14.633   3.983
11148SOL     OW35340   2.302  12.748   3.872
11148SOL    HW135341   2.313  12.747   3.777
11148SOL    HW235342   2.379  12.794   3.904
11149SOL     OW35343  14.328   5.543   3.305
11149SOL    HW135344  14.265   5.471   3.297
11149SOL    HW235345  14.413   5.501   3.312
11150SOL     OW35346   0.483   2.523   8.733
11150SOL    HW135347   0.424   2.592   8.702
11150SOL    HW235348   0.452   2.443   8.690
11151SOL     OW35349  14.623   7.368   9.466
11151SOL    HW135350  14.593   7.302   9.528
11151SOL    HW235351  14.574   7.447   9.489
11152SOL     OW35352  14.327  13.254  11.558
11152SOL    HW135353  14.403  13.308  11.577
11152SOL    HW235354  14.306  13.211  11.641
11153SOL     OW35355   6.873   5.185  10.214
11153SOL    HW135356   6.788   5.226  10.198
11153SOL    HW235357   6.866   5.149  10.302
11154SOL     OW35358   5.992   0.729   9.357
11154SOL    HW135359   5.896   0.735   9.353
11154SOL    HW235360   6.011   0.716   9.450
11155SOL     OW35361   0.746   7.628  11.058
11155SOL    HW135362   0.652   7.615  11.071
11155SOL    HW235363   0.762   7.597  10.969
11156SOL     OW35364   9.483   0.613   4.398
11156SOL    HW135365   9.505   0.520   4.411
11156SOL    HW235366   9.408   0.612   4.340
11157SOL     OW35367   1.115  12.590   8.720
11157SOL    HW135368   1.133  12.576   8.813
11157SOL    HW235369   1.130  12.504   8.680
11158SOL     OW35370   0.581  12.876   4.965
11158SOL    HW135371   0.612  12.954   4.919
11158SOL    HW235372   0.492  12.863   4.934
11159SOL     OW35373  14.355  13.934   7.208
11159SOL    HW135374  14.298  13.911   7.281
11159SOL    HW235375  14.427  13.983   7.249
11160SOL     OW35376   8.706   9.073   8.356
11160SOL    HW135377   8.677   9.061   8.266
11160SOL    HW235378   8.784   9.128   8.350
11161SOL     OW35379  13.542   7.409   1.848
11161SOL    HW135380  13.504   7.322   1.862
11161SOL    HW235381  13.490   7.466   1.905
11162SOL     OW35382  13.443   5.257   7.212
11162SOL    HW135383  13.492   5.337   7.231
11162SOL    HW235384  13.437   5.212   7.296
11163SOL     OW35385  13.620   7.742  11.155
11163SOL    HW135386  13.692   7.780  11.205
11163SOL    HW235387  13.560   7.816  11.142
11164SOL     OW35388   8.816   5.814  11.151
11164SOL    HW135389   8.735   5.764  11.166
11164SOL    HW235390   8.831   5.809  11.057
11165SOL     OW35391   8.407  12.008   3.360
11165SOL    HW135392   8.485  12.031   3.409
11165SOL    HW235393   8.390  11.917   3.382
11166SOL     OW35394  14.528   9.111   5.111
11166SOL    HW135395  14.545   9.160   5.030
11166SOL    HW235396  14.454   9.155   5.151
11167SOL     OW35397   5.477   9.904   2.737
11167SOL    HW135398   5.513   9.977   2.786
11167SOL    HW235399   5.522   9.827   2.770
11168SOL     OW35400   3.603  14.088  11.878
11168SOL    HW135401   3.644  14.154  11.823
11168SOL    HW235402   3.607  14.124  11.966
11169SOL     OW35403   5.770  10.603   1.408
11169SOL    HW135404   5.738  10.642   1.327
11169SOL    HW235405   5.738  10.513   1.405
11170SOL     OW35406   1.696  14.064   5.772
11170SOL    HW135407   1.686  14.090   5.864
11170SOL    HW235408   1.680  13.969   5.772
11171SOL     OW35409   8.827   2.362   4.038
11171SOL    HW135410   8.868   2.331   4.118
11171SOL    HW235411   8.871   2.445   4.019
11172SOL     OW35412   4.487   9.473   0.907
11172SOL    HW135413   4.516   9.448   0.819
11172SOL    HW235414   4.418   9.410   0.928
11173SOL     OW35415   2.417  14.784   1.205
11173SOL    HW135416   2.466  14.745   1.133
11173SOL    HW235417   2.461  14.753   1.284
11174SOL     OW35418   5.422  14.523   1.620
11174SOL    HW135419   5.339  14.486   1.590
11174SOL    HW235420   5.398  14.599   1.672
11175SOL     OW35421   2.448   7.194   4.984
11175SOL    HW135422   2.374   7.206   4.925
11175SOL    HW235423   2.425   7.117   5.036
11176SOL     OW35424   4.693  12.196   8.634
11176SOL    HW135425   4.759  12.250   8.678
11176SOL    HW235426   4.681  12.238   8.548
11177SOL     OW35427  10.838   5.205   7.928
11177SOL    HW135428  10.772   5.138   7.951
11177SOL    HW235429  10.909   5.191   7.991
11178SOL     OW35430   8.121   4.632  11.731
11178SOL    HW135431   8.185   4.652  11.662
11178SOL    HW235432   8.105   4.715  11.774
11179SOL     OW35433   0.392   6.849  10.778
11179SOL    HW135434   0.394   6.798  10.697
11179SOL    HW235435   0.334   6.799  10.836
11180SOL     OW35436   5.355  13.677   1.071
11180SOL    HW135437   5.331  13.762   1.107
11180SOL    HW235438   5.275  13.625   1.076
11181SOL     OW35439   3.756   4.099  14.676
11181SOL    HW135440   3.832   4.096  14.618
11181SOL    HW235441   3.778   4.037  14.746
11182SOL     OW35442   5.225   7.774   9.197
11182SOL    HW135443   5.315   7.746   9.213
11182SOL    HW235444   5.232   7.835   9.123
11183SOL     OW35445  13.497  14.492  13.401
11183SOL    HW135446  13.531  14.535  13.480
11183SOL    HW235447  13.575  14.480  13.346
11184SOL     OW35448   2.334   3.475   2.972
11184SOL    HW135449   2.259   3.442   3.021
11184SOL    HW235450   2.318   3.447   2.882
11185SOL     OW35451  13.562   0.586   4.394
11185SOL    HW135452  13.623   0.525   4.436
11185SOL    HW235453  13.574   0.572   4.300
11186SOL     OW35454  10.269   7.364   3.792
11186SOL    HW135455  10.261   7.309   3.714
11186SOL    HW235456  10.295   7.303   3.862
11187SOL     OW35457  14.247  11.419  13.592
11187SOL    HW135458  14.275  11.361  13.663
11187SOL    HW235459  14.194  11.486  13.635
11188SOL     OW35460  11.970   1.010  11.145
11188SOL    HW135461  11.908   1.016  11.217
11188SOL    HW235462  12.022   1.090  11.152
11189SOL     OW35463  12.221   2.724  13.817
11189SOL    HW135464  12.273   2.677  13.752
11189SOL    HW235465  12.213   2.813  13.781
11190SOL     OW35466   2.483   3.464   4.492
11190SOL    HW135467   2.436   3.526   4.436
11190SOL    HW235468   2.529   3.519   4.556
11191SOL     OW35469   7.048   2.746   4.813
11191SOL    HW135470   7.020   2.657   4.791
11191SOL    HW235471   6.993   2.802   4.759
11192SOL     OW35472  11.897  12.988  11.889
11192SOL    HW135473  11.804  12.963  11.894
11192SOL    HW235474  11.902  13.047  11.814
11193SOL     OW35475  10.025   3.632  13.947
11193SOL    HW135476   9.943   3.637  13.996
11193SOL    HW235477  10.068   3.716  13.964
11194SOL     OW35478   3.895   6.724  11.463
11194SOL    HW135479   3.866   6.662  11.529
11194SOL    HW235480   3.986   6.745  11.487
11195SOL     OW35481  10.757   9.750  11.236
11195SOL    HW135482  10.815   9.789  11.171
11195SOL    HW235483  10.683   9.716  11.186
11196SOL     OW35484   5.496  12.801  13.121
11196SOL    HW135485   5.506  12.847  13.204
11196SOL    HW235486   5.582  12.808  13.079
11197SOL     OW35487  10.348  13.243   0.484
11197SOL    HW135488  10.378  13.258   0.574
11197SOL    HW235489  10.282  13.310   0.468
11198SOL     OW35490  12.992   7.308   3.014
11198SOL    HW135491  13.052   7.254   3.065
11198SOL    HW235492  12.908   7.301   3.060
11199SOL     OW35493  10.480   8.771   6.583
11199SOL    HW135494  10.415   8.840   6.570
11199SOL    HW235495  10.515   8.788   6.671
11200SOL     OW35496   2.845   1.923  12.940
11200SOL    HW135497   2.927   1.882  12.912
11200SOL    HW235498   2.843   2.007  12.893
11201SOL     OW35499   4.051   8.102   5.834
11201SOL    HW135500   4.049   8.124   5.741
11201SOL    HW235501   4.136   8.134   5.864
11202SOL     OW35502   9.338   9.979   1.366
11202SOL    HW135503   9.288   9.938   1.437
11202SOL    HW235504   9.397  10.041   1.411
11203SOL     OW35505   4.955   2.668  14.439
11203SOL    HW135506   4.901   2.729  14.490
11203SOL    HW235507   4.945   2.584  14.483
11204SOL     OW35508   8.155  10.252  11.668
11204SOL    HW135509   8.244  10.242  11.635
11204SOL    HW235510   8.102  10.267  11.590
11205SOL     OW35511   0.666  14.132   3.788
11205SOL    HW135512   0.577  14.143   3.822
11205SOL    HW235513   0.716  14.098   3.862
11206SOL     OW35514  12.393  14.763   8.208
11206SOL    HW135515  12.351  14.693   8.257
11206SOL    HW235516  12.322  14.823   8.186
11207SOL     OW35517  14.450  13.948   6.659
11207SOL    HW135518  14.487  13.973   6.575
11207SOL    HW235519  14.456  14.027   6.713
11208SOL     OW35520   8.998  11.982   5.334
11208SOL    HW135521   9.050  12.002   5.256
11208SOL    HW235522   9.063  11.955   5.399
11209SOL     OW35523   6.115   9.498   1.663
11209SOL    HW135524   6.033   9.458   1.691
11209SOL    HW235525   6.179   9.475   1.731
11210SOL     OW35526  11.538   6.612  10.243
11210SOL    HW135527  11.457   6.662  10.255
11210SOL    HW235528  11.599   6.650  10.306
11211SOL     OW35529   6.344   2.328   0.988
11211SOL    HW135530   6.346   2.423   0.983
11211SOL    HW235531   6.390   2.298   0.909
11212SOL     OW35532  10.955  13.175   7.794
11212SOL    HW135533  10.946  13.085   7.826
11212SOL    HW235534  11.045  13.199   7.817
11213SOL     OW35535   4.127  13.375   5.937
11213SOL    HW135536   4.117  13.442   6.005
11213SOL    HW235537   4.140  13.293   5.986
11214SOL     OW35538   6.644  10.589   8.370
11214SOL    HW135539   6.561  10.609   8.413
11214SOL    HW235540   6.625  10.515   8.312
11215SOL     OW35541  12.925   8.202   3.079
11215SOL    HW135542  12.965   8.147   3.012
11215SOL    HW235543  12.893   8.141   3.145
11216SOL     OW35544  14.446   1.604   3.397
11216SOL    HW135545  14.445   1.565   3.310
11216SOL    HW235546  14.375   1.559   3.444
11217SOL     OW35547  13.058   6.194  11.170
11217SOL    HW135548  13.129   6.219  11.112
11217SOL    HW235549  13.042   6.271  11.224
11218SOL     OW35550   2.766   6.401   6.063
11218SOL    HW135551   2.734   6.482   6.023
11218SOL    HW235552   2.852   6.424   6.097
11219SOL     OW35553   4.756   9.565   0.889
11219SOL    HW135554   4.807   9.550   0.969
11219SOL    HW235555   4.665   9.545   0.915
11220SOL     OW35556   2.914  12.907   5.846
11220SOL    HW135557   2.894  12.995   5.813
11220SOL    HW235558   2.890  12.848   5.774
11221SOL     OW35559   4.674   2.288   2.819
11221SOL    HW135560   4.622   2.245   2.887
11221SOL    HW235561   4.640   2.252   2.737
11222SOL     OW35562   4.662   5.731   4.870
11222SOL    HW135563   4.685   5.709   4.779
11222SOL    HW235564   4.594   5.667   4.892
11223SOL     OW35565   9.138   3.644   4.148
11223SOL    HW135566   9.211   3.584   4.136
11223SOL    HW235567   9.179   3.730   4.160
11224SOL     OW35568   9.789   1.717   3.957
11224SOL    HW135569   9.719   1.683   4.013
11224SOL    HW235570   9.864   1.660   3.977
11225SOL     OW35571  14.322   2.016   1.864
11225SOL    HW135572  14.407   2.043   1.830
11225SOL    HW235573  14.259   2.045   1.798
11226SOL     OW35574   7.686  10.072  12.893
11226SOL    HW135575   7.781  10.077  12.893
11226SOL    HW235576   7.664  10.032  12.977
11227SOL     OW35577   9.425   4.004   1.891
11227SOL    HW135578   9.496   3.984   1.831
11227SOL    HW235579   9.358   3.939   1.872
11228SOL     OW35580  10.338   5.892   5.774
11228SOL    HW135581  10.367   5.911   5.685
11228SOL    HW235582  10.313   5.977   5.810
11229SOL     OW35583   3.711  10.513  10.781
11229SOL    HW135584   3.796  10.555  10.794
11229SOL    HW235585   3.727  10.447  10.714
11230SOL     OW35586  12.307   8.049   6.097
11230SOL    HW135587  12.400   8.026   6.104
11230SOL    HW235588  12.261   7.979   6.143
11231SOL     OW35589  10.537   6.895   9.955
11231SOL    HW135590  10.532   6.805   9.924
11231SOL    HW235591  10.484   6.897  10.035
11232SOL     OW35592   3.926   0.201  10.818
11232SOL    HW135593   3.910   0.183  10.725
11232SOL    HW235594   4.007   0.251  10.819
11233SOL     OW35595   3.115   4.942   0.715
11233SOL    HW135596   3.125   4.862   0.665
11233SOL    HW235597   3.020   4.953   0.723
11234SOL     OW35598   9.164  10.651  10.331
11234SOL    HW135599   9.098  10.616  10.390
11234SOL    HW235600   9.245  10.608  10.359
11235SOL     OW35601   0.075  10.312   8.462
11235SOL    HW135602   0.052  10.402   8.483
11235SOL    HW235603   0.069  10.266   8.546
11236SOL     OW35604  10.052   6.324   6.780
11236SOL    HW135605  10.121   6.376   6.738
11236SOL    HW235606  10.080   6.318   6.871
11237SOL     OW35607   5.961   7.820  14.246
11237SOL    HW135608   5.987   7.848  14.158
11237SOL    HW235609   6.000   7.734  14.256
11238SOL     OW35610   6.953   0.640   1.817
11238SOL    HW135611   6.988   0.654   1.729
11238SOL    HW235612   6.878   0.582   1.804
11239SOL     OW35613   4.375   3.857  14.637
11239SOL    HW135614   4.366   3.923  14.706
11239SOL    HW235615   4.449   3.803  14.665
11240SOL     OW35616   4.654   3.425   4.006
11240SOL    HW135617   4.660   3.332   3.984
11240SOL    HW235618   4.745   3.452   4.017
11241SOL     OW35619   8.236   5.645   0.132
11241SOL    HW135620   8.257   5.698   0.209
11241SOL    HW235621   8.186   5.571   0.167
11242SOL     OW35622  12.421   8.815   0.730
11242SOL    HW135623  12.415   8.766   0.812
11242SOL    HW235624  12.486   8.883   0.747
11243SOL     OW35625  10.020  10.285   1.490
11243SOL    HW135626   9.934  10.243   1.501
11243SOL    HW235627  10.004  10.355   1.427
11244SOL     OW35628   2.982   1.336  12.565
11244SOL    HW135629   2.901   1.382  12.584
11244SOL    HW235630   2.956   1.263  12.508
11245SOL     OW35631  13.088  12.532   2.058
11245SOL    HW135632  13.018  12.556   2.118
11245SOL    HW235633  13.148  12.478   2.110
11246SOL     OW35634   5.647   4.690  10.810
11246SOL    HW135635   5.559   4.727  10.820
11246SOL    HW235636   5.673   4.717  10.721
11247SOL     OW35637  10.487  13.504   3.425
11247SOL    HW135638  10.521  13.594   3.424
11247SOL    HW235639  10.511  13.468   3.340
11248SOL     OW35640  11.075   7.239   6.330
11248SOL    HW135641  11.041   7.251   6.419
11248SOL    HW235642  11.057   7.323   6.287
11249SOL     OW35643   0.837   8.714   3.979
11249SOL    HW135644   0.892   8.637   3.991
11249SOL    HW235645   0.750   8.686   4.009
11250SOL     OW35646   2.151   6.456   2.693
11250SOL    HW135647   2.083   6.410   2.644
11250SOL    HW235648   2.223   6.393   2.699
11251SOL     OW35649   4.915   0.198   0.366
11251SOL    HW135650   4.961   0.150   0.297
11251SOL    HW235651   4.985   0.239   0.417
11252SOL     OW35652  12.129   6.118  12.597
11252SOL    HW135653  12.182   6.187  12.557
11252SOL    HW235654  12.040   6.135  12.568
11253SOL     OW35655  10.275   6.444   2.510
11253SOL    HW135656  10.313   6.375   2.455
11253SOL    HW235657  10.222   6.496   2.450
11254SOL     OW35658   6.406   5.920  12.702
11254SOL    HW135659   6.453   5.838  12.715
11254SOL    HW235660   6.334   5.897  12.643
11255SOL     OW35661   0.126  10.071   7.193
11255SOL    HW135662   0.211  10.038   7.163
11255SOL    HW235663   0.087   9.997   7.240
11256SOL     OW35664   5.167   8.671   1.803
11256SOL    HW135665   5.094   8.642   1.858
11256SOL    HW235666   5.229   8.711   1.865
11257SOL     OW35667  13.701   3.527  10.692
11257SOL    HW135668  13.703   3.615  10.655
11257SOL    HW235669  13.734   3.471  10.622
11258SOL     OW35670   8.485   9.062  10.800
11258SOL    HW135671   8.407   9.048  10.745
11258SOL    HW235672   8.449   9.090  10.885
11259SOL     OW35673   3.728   6.071   5.415
11259SOL    HW135674   3.704   6.141   5.354
11259SOL    HW235675   3.747   5.996   5.360
11260SOL     OW35676   2.691   1.561   0.720
11260SOL    HW135677   2.669   1.633   0.779
11260SOL    HW235678   2.608   1.537   0.679
11261SOL     OW35679   7.930  12.077  12.906
11261SOL    HW135680   7.874  12.112  12.836
11261SOL    HW235681   7.883  12.098  12.987
11262SOL     OW35682   4.767  12.770   0.155
11262SOL    HW135683   4.862  12.782   0.163
11262SOL    HW235684   4.745  12.805   0.069
11263SOL     OW35685  12.015  14.519   6.176
11263SOL    HW135686  11.989  14.551   6.090
11263SOL    HW235687  11.993  14.589   6.236
11264SOL     OW35688   8.948   8.152   9.195
11264SOL    HW135689   8.940   8.078   9.136
11264SOL    HW235690   9.026   8.133   9.248
11265SOL     OW35691   3.145  10.012  13.624
11265SOL    HW135692   3.114  10.081  13.566
11265SOL    HW235693   3.121  10.041  13.712
11266SOL     OW35694   7.858  10.873  10.321
11266SOL    HW135695   7.922  10.854  10.390
11266SOL    HW235696   7.773  10.863  10.364
11267SOL     OW35697  12.118   1.941  13.073
11267SOL    HW135698  12.154   1.998  13.140
11267SOL    HW235699  12.178   1.949  12.999
11268SOL     OW35700  11.314   0.803   4.946
11268SOL    HW135701  11.234   0.787   4.996
11268SOL    HW235702  11.382   0.756   4.994
11269SOL     OW35703  13.223   3.209   6.098
11269SOL    HW135704  13.158   3.140   6.086
11269SOL    HW235705  13.216   3.264   6.020
11270SOL     OW35706   6.543  11.462  10.538
11270SOL    HW135707   6.462  11.498  10.500
11270SOL    HW235708   6.534  11.477  10.632
11271SOL     OW35709   8.332   4.243  13.031
11271SOL    HW135710   8.343   4.204  13.117
11271SOL    HW235711   8.356   4.172  12.970
11272SOL     OW35712  14.422   1.021  12.131
11272SOL    HW135713  14.428   0.926  12.123
11272SOL    HW235714  14.393   1.050  12.044
11273SOL     OW35715   2.630   8.772  12.509
11273SOL    HW135716   2.700   8.788  12.572
11273SOL    HW235717   2.577   8.704  12.550
11274SOL     OW35718  12.058  13.740  11.482
11274SOL    HW135719  12.062  13.652  11.443
11274SOL    HW235720  11.965  13.757  11.494
11275SOL     OW35721  14.486  10.015  11.227
11275SOL    HW135722  14.490  10.110  11.236
11275SOL    HW235723  14.430  10.000  11.151
11276SOL     OW35724   7.155  14.379   5.843
11276SOL    HW135725   7.093  14.306   5.844
11276SOL    HW235726   7.135  14.428   5.922
11277SOL     OW35727  13.834   1.437   4.194
11277SOL    HW135728  13.906   1.457   4.133
11277SOL    HW235729  13.774   1.383   4.143
11278SOL     OW35730   3.359  11.982   5.003
11278SOL    HW135731   3.366  11.935   4.919
11278SOL    HW235732   3.421  11.936   5.060
11279SOL     OW35733   0.373  12.124  10.500
11279SOL    HW135734   0.313  12.093  10.568
11279SOL    HW235735   0.448  12.158  10.549
11280SOL     OW35736   4.425   5.906  10.157
11280SOL    HW135737   4.408   5.980  10.098
11280SOL    HW235738   4.509   5.872  10.129
11281SOL     OW35739   0.982   8.647  14.485
11281SOL    HW135740   1.057   8.665  14.428
11281SOL    HW235741   1.001   8.694  14.566
11282SOL     OW35742   4.042   8.845   0.505
11282SOL    HW135743   4.110   8.810   0.447
11282SOL    HW235744   4.091   8.878   0.581
11283SOL     OW35745   2.595  13.512   4.291
11283SOL    HW135746   2.685  13.536   4.314
11283SOL    HW235747   2.556  13.593   4.260
11284SOL     OW35748   1.084   2.958  12.534
11284SOL    HW135749   1.026   2.961  12.458
11284SOL    HW235750   1.150   2.894  12.512
11285SOL     OW35751  13.995  11.530   9.157
11285SOL    HW135752  13.997  11.541   9.062
11285SOL    HW235753  13.904  11.544   9.182
11286SOL     OW35754  13.709  13.495  10.904
11286SOL    HW135755  13.779  13.438  10.871
11286SOL    HW235756  13.753  13.554  10.966
11287SOL     OW35757   3.708   2.958  10.182
11287SOL    HW135758   3.613   2.964  10.178
11287SOL    HW235759   3.740   3.043  10.153
11288SOL     OW35760   0.060   1.623   6.668
11288SOL    HW135761   0.042   1.529   6.664
11288SOL    HW235762  14.881   1.662   6.606
11289SOL     OW35763  12.253   7.367   0.709
11289SOL    HW135764  12.321   7.375   0.776
11289SOL    HW235765  12.171   7.371   0.758
11290SOL     OW35766  12.786   2.644  14.202
11290SOL    HW135767  12.781   2.626  14.296
11290SOL    HW235768  12.837   2.572  14.166
11291SOL     OW35769   2.896   7.492   6.416
11291SOL    HW135770   2.912   7.420   6.477
11291SOL    HW235771   2.945   7.565   6.453
11292SOL     OW35772  10.013  12.108  11.544
11292SOL    HW135773  10.061  12.187  11.519
11292SOL    HW235774   9.935  12.109  11.489
11293SOL     OW35775   8.942   7.439   5.640
11293SOL    HW135776   9.027   7.400   5.618
11293SOL    HW235777   8.942   7.445   5.735
11294SOL     OW35778  11.072   5.075  14.806
11294SOL    HW135779  11.120   4.992  14.806
11294SOL    HW235780  11.137   5.141  14.829
11295SOL     OW35781  12.188  13.333   0.858
11295SOL    HW135782  12.227  13.260   0.905
11295SOL    HW235783  12.249  13.406   0.871
11296SOL     OW35784  13.382   5.980  13.012
11296SOL    HW135785  13.348   5.910  12.957
11296SOL    HW235786  13.344   6.060  12.975
11297SOL     OW35787  10.301  12.529  12.976
11297SOL    HW135788  10.255  12.452  12.941
11297SOL    HW235789  10.377  12.539  12.920
11298SOL     OW35790  10.827   1.724  12.636
11298SOL    HW135791  10.756   1.663  12.618
11298SOL    HW235792  10.905   1.681  12.599
11299SOL     OW35793   8.599   0.260   3.091
11299SOL    HW135794   8.537   0.332   3.088
11299SOL    HW235795   8.566   0.202   3.160
11300SOL     OW35796  13.387  13.117  14.840
11300SOL    HW135797  13.446  13.189  14.861
11300SOL    HW235798  13.349  13.092   0.042
11301SOL     OW35799   9.514   6.878   4.364
11301SOL    HW135800   9.530   6.972   4.371
11301SOL    HW235801   9.479   6.866   4.276
11302SOL     OW35802   4.945  13.276   0.142
11302SOL    HW135803   5.022  13.251   0.194
11302SOL    HW235804   4.920  13.196   0.096
11303SOL     OW35805   6.761   6.253   3.333
11303SOL    HW135806   6.798   6.261   3.421
11303SOL    HW235807   6.734   6.162   3.327
11304SOL     OW35808   0.905   6.306   5.568
11304SOL    HW135809   0.941   6.384   5.525
11304SOL    HW235810   0.828   6.339   5.615
11305SOL     OW35811   7.481   9.845   1.089
11305SOL    HW135812   7.408   9.899   1.059
11305SOL    HW235813   7.511   9.888   1.169
11306SOL     OW35814   0.288   2.538   7.655
11306SOL    HW135815   0.281   2.443   7.671
11306SOL    HW235816   0.199   2.571   7.666
11307SOL     OW35817   9.908  14.120  10.335
11307SOL    HW135818   9.953  14.125  10.419
11307SOL    HW235819   9.974  14.082  10.275
11308SOL     OW35820  11.071  14.085  10.571
11308SOL    HW135821  11.154  14.129  10.586
11308SOL    HW235822  11.068  14.016  10.637
11309SOL     OW35823  11.851  14.372   3.318
11309SOL    HW135824  11.921  14.402   3.261
11309SOL    HW235825  11.793  14.322   3.261
11310SOL     OW35826  13.132   7.162   1.377
11310SOL    HW135827  13.155   7.254   1.381
11310SOL    HW235828  13.038   7.161   1.358
11311SOL     OW35829   0.309   1.892   5.407
11311SOL    HW135830   0.292   1.910   5.499
11311SOL    HW235831   0.314   1.978   5.365
11312SOL     OW35832  13.360   5.995   2.024
11312SOL    HW135833  13.284   6.054   2.030
11312SOL    HW235834  13.376   5.986   1.931
11313SOL     OW35835   5.221   4.109  13.034
11313SOL    HW135836   5.243   4.019  13.060
11313SOL    HW235837   5.306   4.152  13.025
11314SOL     OW35838   4.982   1.251   5.239
11314SOL    HW135839   4.912   1.203   5.195
11314SOL    HW235840   5.005   1.321   5.178
11315SOL     OW35841  13.021  14.219  13.903
11315SOL    HW135842  12.987  14.164  13.974
11315SOL    HW235843  12.970  14.299  13.908
11316SOL     OW35844   7.770   4.279   3.710
11316SOL    HW135845   7.771   4.187   3.685
11316SOL    HW235846   7.690   4.313   3.671
11317SOL     OW35847   9.218   5.712   8.200
11317SOL    HW135848   9.140   5.682   8.248
11317SOL    HW235849   9.291   5.694   8.260
11318SOL     OW35850   3.279   6.441   0.715
11318SOL    HW135851   3.237   6.518   0.675
11318SOL    HW235852   3.304   6.471   0.802
11319SOL     OW35853  13.873   4.746   9.746
11319SOL    HW135854  13.880   4.744   9.841
11319SOL    HW235855  13.788   4.707   9.728
11320SOL     OW35856   5.589  12.046  11.752
11320SOL    HW135857   5.614  11.962  11.792
11320SOL    HW235858   5.672  12.090  11.734
11321SOL     OW35859  10.715   3.852   3.377
11321SOL    HW135860  10.736   3.800   3.454
11321SOL    HW235861  10.774   3.820   3.309
11322SOL     OW35862  13.374   1.271  13.083
11322SOL    HW135863  13.436   1.242  13.016
11322SOL    HW235864  13.412   1.240  13.166
11323SOL     OW35865   8.577   8.937   6.468
11323SOL    HW135866   8.520   8.996   6.418
11323SOL    HW235867   8.526   8.915   6.546
11324SOL     OW35868  13.358   5.700   0.931
11324SOL    HW135869  13.294   5.681   0.999
11324SOL    HW235870  13.307   5.716   0.852
11325SOL     OW35871   1.133  13.118   5.227
11325SOL    HW135872   1.084  13.200   5.232
11325SOL    HW235873   1.136  13.086   5.317
11326SOL     OW35874   3.893   8.393   9.949
11326SOL    HW135875   3.958   8.415   9.883
11326SOL    HW235876   3.943   8.386  10.031
11327SOL     OW35877   0.370   3.854  10.510
11327SOL    HW135878   0.379   3.791  10.581
11327SOL    HW235879   0.278   3.849  10.485
11328SOL     OW35880   1.146   2.719  12.952
11328SOL    HW135881   1.216   2.764  12.905
11328SOL    HW235882   1.066   2.741  12.904
11329SOL     OW35883  11.620  13.905   4.843
11329SOL    HW135884  11.541  13.883   4.893
11329SOL    HW235885  11.679  13.831   4.857
11330SOL     OW35886   8.358   2.751   8.178
11330SOL    HW135887   8.294   2.808   8.135
11330SOL    HW235888   8.372   2.680   8.115
11331SOL     OW35889   2.000   6.963   6.622
11331SOL    HW135890   1.972   6.874   6.599
11331SOL    HW235891   2.002   7.010   6.538
11332SOL     OW35892   7.090   4.219  11.487
11332SOL    HW135893   7.097   4.229  11.582
11332SOL    HW235894   7.171   4.256  11.453
11333SOL     OW35895  13.199  10.023  11.736
11333SOL    HW135896  13.191   9.984  11.649
11333SOL    HW235897  13.248  10.104  11.722
11334SOL     OW35898   2.136   3.079   0.918
11334SOL    HW135899   2.220   3.124   0.908
11334SOL    HW235900   2.122   3.035   0.834
11335SOL     OW35901   7.880  13.824  13.736
11335SOL    HW135902   7.809  13.772  13.697
11335SOL    HW235903   7.835  13.887  13.793
11336SOL     OW35904   1.684   7.044   8.840
11336SOL    HW135905   1.753   7.044   8.773
11336SOL    HW235906   1.606   7.015   8.793
11337SOL     OW35907   0.549   4.449  11.693
11337SOL    HW135908   0.453   4.446  11.691
11337SOL    HW235909   0.575   4.462  11.602
11338SOL     OW35910   3.637   4.390  11.757
11338SOL    HW135911   3.718   4.351  11.792
11338SOL    HW235912   3.626   4.470  11.808
11339SOL     OW35913   9.412   7.556  11.282
11339SOL    HW135914   9.454   7.591  11.360
11339SOL    HW235915   9.400   7.632  11.225
11340SOL     OW35916   5.928   7.476   7.742
11340SOL    HW135917   5.895   7.565   7.754
11340SOL    HW235918   6.020   7.487   7.719
11341SOL     OW35919  11.343  10.362  13.092
11341SOL    HW135920  11.298  10.396  13.169
11341SOL    HW235921  11.339  10.434  13.028
11342SOL     OW35922   6.164  12.271  13.542
11342SOL    HW135923   6.110  12.235  13.613
11342SOL    HW235924   6.125  12.355  13.523
11343SOL     OW35925   4.233  13.717   8.793
11343SOL    HW135926   4.252  13.706   8.700
11343SOL    HW235927   4.151  13.766   8.795
11344SOL     OW35928   5.701   1.296  12.647
11344SOL    HW135929   5.699   1.240  12.724
11344SOL    HW235930   5.612   1.291  12.612
11345SOL     OW35931   4.914  10.041  10.687
11345SOL    HW135932   4.855  10.042  10.612
11345SOL    HW235933   4.943   9.950  10.694
11346SOL     OW35934   4.571   7.028  14.340
11346SOL    HW135935   4.607   7.091  14.402
11346SOL    HW235936   4.484   7.008  14.374
11347SOL     OW35937  13.148  14.653  13.021
11347SOL    HW135938  13.240  14.655  12.997
11347SOL    HW235939  13.118  14.743  13.011
11348SOL     OW35940  12.029  10.182   7.049
11348SOL    HW135941  12.105  10.128   7.028
11348SOL    HW235942  12.000  10.150   7.134
11349SOL     OW35943  14.184  10.005   3.185
11349SOL    HW135944  14.089  10.010   3.194
11349SOL    HW235945  14.209   9.925   3.230
11350SOL     OW35946   8.669   4.967   9.607
11350SOL    HW135947   8.669   4.984   9.701
11350SOL    HW235948   8.761   4.970   9.582
11351SOL     OW35949   2.346   9.525   9.053
11351SOL    HW135950   2.388   9.476   9.124
11351SOL    HW235951   2.369   9.617   9.070
11352SOL     OW35952   0.599   2.044   5.650
11352SOL    HW135953   0.678   2.003   5.615
11352SOL    HW235954   0.569   2.101   5.580
11353SOL     OW35955  14.492   4.050  12.384
11353SOL    HW135956  14.483   4.144  12.369
11353SOL    HW235957  14.421   4.028  12.445
11354SOL     OW35958   0.484   9.853   0.642
11354SOL    HW135959   0.406   9.906   0.626
11354SOL    HW235960   0.466   9.769   0.600
11355SOL     OW35961  13.760   4.761  12.370
11355SOL    HW135962  13.693   4.697  12.344
11355SOL    HW235963  13.822   4.761  12.297
11356SOL     OW35964  13.264   9.531  14.523
11356SOL    HW135965  13.256   9.561  14.613
11356SOL    HW235966  13.216   9.448  14.521
11357SOL     OW35967   3.026  14.839  12.760
11357SOL    HW135968   3.093   0.009  12.716
11357SOL    HW235969   3.051  14.840  12.852
11358SOL     OW35970   1.575   1.550  12.562
11358SOL    HW135971   1.588   1.514  12.475
11358SOL    HW235972   1.614   1.486  12.621
11359SOL     OW35973   4.732  10.634   3.373
11359SOL    HW135974   4.760  10.544   3.387
11359SOL    HW235975   4.657  10.646   3.430
11360SOL     OW35976   3.077   6.919   7.676
11360SOL    HW135977   3.170   6.895   7.685
11360SOL    HW235978   3.036   6.886   7.756
11361SOL     OW35979   7.808   2.780  13.005
11361SOL    HW135980   7.741   2.826  13.057
11361SOL    HW235981   7.869   2.746  13.070
11362SOL     OW35982   0.628   1.139   5.517
11362SOL    HW135983   0.637   1.127   5.611
11362SOL    HW235984   0.575   1.218   5.508
11363SOL     OW35985   7.930  10.606   8.874
11363SOL    HW135986   7.866  10.560   8.819
11363SOL    HW235987   7.880  10.631   8.952
11364SOL     OW35988  13.953   9.437   7.849
11364SOL    HW135989  14.021   9.371   7.837
11364SOL    HW235990  13.936   9.437   7.944
11365SOL     OW35991  10.531  13.372   0.078
11365SOL    HW135992  10.601  13.319   0.117
11365SOL    HW235993  10.489  13.415   0.152
11366SOL     OW35994   5.758   1.331  11.708
11366SOL    HW135995   5.755   1.405  11.648
11366SOL    HW235996   5.784   1.369  11.792
11367SOL     OW35997   9.161  14.605   5.455
11367SOL    HW135998   9.126  14.518   5.472
11367SOL    HW235999   9.085  14.663   5.463
11368SOL     OW36000  14.753  12.983   6.488
11368SOL    HW136001  14.771  12.904   6.436
11368SOL    HW236002  14.839  13.021   6.503
11369SOL     OW36003   9.301   9.116   0.256
11369SOL    HW136004   9.355   9.108   0.177
11369SOL    HW236005   9.211   9.115   0.224
11370SOL     OW36006   6.517   2.318   2.360
11370SOL    HW136007   6.484   2.267   2.285
11370SOL    HW236008   6.510   2.409   2.332
11371SOL     OW36009  12.537  13.381   7.339
11371SOL    HW136010  12.570  13.432   7.265
11371SOL    HW236011  12.562  13.432   7.416
11372SOL     OW36012   0.445  14.678   2.611
11372SOL    HW136013   0.399  14.635   2.539
11372SOL    HW236014   0.490  14.752   2.569
11373SOL     OW36015   9.503   7.340  12.172
11373SOL    HW136016   9.412   7.363  12.191
11373SOL    HW236017   9.545   7.338  12.258
11374SOL     OW36018   7.896  13.418   5.476
11374SOL    HW136019   7.838  13.467   5.417
11374SOL    HW236020   7.837  13.368   5.532
11375SOL     OW36021   2.508   9.438   9.278
11375SOL    HW136022   2.533   9.499   9.347
11375SOL    HW236023   2.587   9.428   9.225
11376SOL     OW36024   4.725   7.389  14.773
11376SOL    HW136025   4.712   7.447  14.848
11376SOL    HW236026   4.674   7.428  14.703
11377SOL     OW36027   2.881   1.960   1.538
11377SOL    HW136028   2.903   1.950   1.630
11377SOL    HW236029   2.807   2.021   1.537
11378SOL     OW36030  11.316   4.823  14.557
11378SOL    HW136031  11.280   4.899  14.512
11378SOL    HW236032  11.403   4.811  14.518
11379SOL     OW36033  14.156   5.386   7.517
11379SOL    HW136034  14.223   5.318   7.519
11379SOL    HW236035  14.204   5.465   7.492
11380SOL     OW36036  13.728  13.928   4.653
11380SOL    HW136037  13.773  13.866   4.710
11380SOL    HW236038  13.637  13.899   4.654
11381SOL     OW36039   3.046   7.386  11.048
11381SOL    HW136040   2.979   7.383  10.980
11381SOL    HW236041   3.009   7.336  11.121
11382SOL     OW36042   2.269   8.525  14.134
11382SOL    HW136043   2.314   8.573  14.204
11382SOL    HW236044   2.309   8.556  14.053
11383SOL     OW36045   3.167  11.438  12.424
11383SOL    HW136046   3.173  11.487  12.506
11383SOL    HW236047   3.186  11.347  12.449
11384SOL     OW36048   3.897  14.280   5.293
11384SOL    HW136049   3.841  14.232   5.355
11384SOL    HW236050   3.843  14.292   5.215
11385SOL     OW36051   8.945  13.482  14.365
11385SOL    HW136052   9.020  13.538  14.345
11385SOL    HW236053   8.962  13.451  14.454
11386SOL     OW36054   8.077  10.478   9.749
11386SOL    HW136055   8.035  10.497   9.833
11386SOL    HW236056   8.087  10.563   9.707
11387SOL     OW36057   3.793  13.581  10.655
11387SOL    HW136058   3.759  13.494  10.674
11387SOL    HW236059   3.842  13.571  10.573
11388SOL     OW36060  13.851  10.409   5.489
11388SOL    HW136061  13.913  10.348   5.449
11388SOL    HW236062  13.872  10.493   5.448
11389SOL     OW36063  14.184  14.223   0.850
11389SOL    HW136064  14.123  14.253   0.783
11389SOL    HW236065  14.132  14.215   0.930
11390SOL     OW36066   8.972  12.329  12.162
11390SOL    HW136067   9.050  12.323  12.108
11390SOL    HW236068   9.004  12.357  12.248
11391SOL     OW36069   9.665   8.862   2.493
11391SOL    HW136070   9.668   8.901   2.406
11391SOL    HW236071   9.575   8.831   2.503
11392SOL     OW36072  11.046  12.530   3.933
11392SOL    HW136073  10.973  12.473   3.907
11392SOL    HW236074  11.035  12.542   4.027
11393SOL     OW36075   7.753  13.233   6.940
11393SOL    HW136076   7.770  13.322   6.909
11393SOL    HW236077   7.812  13.222   7.014
11394SOL     OW36078   7.031   6.141  10.153
11394SOL    HW136079   7.046   6.161  10.061
11394SOL    HW236080   6.991   6.220  10.189
11395SOL     OW36081  10.204   7.931   9.852
11395SOL    HW136082  10.278   7.920   9.911
11395SOL    HW236083  10.240   7.913   9.765
11396SOL     OW36084  13.351   9.425   9.999
11396SOL    HW136085  13.352   9.331   9.980
11396SOL    HW236086  13.443   9.452   9.993
11397SOL     OW36087   8.152   6.015  12.992
11397SOL    HW136088   8.247   6.010  12.982
11397SOL    HW236089   8.138   6.088  13.052
11398SOL     OW36090  13.310   7.066   0.547
11398SOL    HW136091  13.287   6.977   0.522
11398SOL    HW236092  13.275   7.076   0.635
11399SOL     OW36093  14.397   4.693   1.757
11399SOL    HW136094  14.422   4.641   1.834
11399SOL    HW236095  14.453   4.770   1.761
11400SOL     OW36096   3.233  14.445  12.764
11400SOL    HW136097   3.231  14.540  12.758
11400SOL    HW236098   3.320  14.421  12.732
11401SOL     OW36099   4.091   3.290   6.375
11401SOL    HW136100   4.078   3.206   6.332
11401SOL    HW236101   4.115   3.268   6.465
11402SOL     OW36102  11.962   2.813   2.704
11402SOL    HW136103  11.933   2.743   2.763
11402SOL    HW236104  12.015   2.870   2.759
11403SOL     OW36105  13.523   1.919   2.641
11403SOL    HW136106  13.586   1.989   2.623
11403SOL    HW236107  13.495   1.889   2.555
11404SOL     OW36108  13.387   3.230   0.782
11404SOL    HW136109  13.420   3.143   0.803
11404SOL    HW236110  13.385   3.233   0.686
11405SOL     OW36111   4.329   7.258  14.377
11405SOL    HW136112   4.243   7.252  14.334
11405SOL    HW236113   4.342   7.173  14.417
11406SOL     OW36114  11.930  10.430   5.146
11406SOL    HW136115  11.959  10.340   5.131
11406SOL    HW236116  11.849  10.438   5.095
11407SOL     OW36117   4.271   1.773   1.779
11407SOL    HW136118   4.329   1.727   1.717
11407SOL    HW236119   4.252   1.857   1.737
11408SOL     OW36120   5.989  12.977   9.938
11408SOL    HW136121   6.072  13.024   9.935
11408SOL    HW236122   5.937  13.014   9.867
11409SOL     OW36123   9.830   4.578   6.861
11409SOL    HW136124   9.828   4.672   6.845
11409SOL    HW236125   9.791   4.540   6.783
11410SOL     OW36126  12.734   4.634   4.139
11410SOL    HW136127  12.790   4.608   4.067
11410SOL    HW236128  12.757   4.726   4.156
11411SOL     OW36129  11.921   2.827  10.011
11411SOL    HW136130  11.932   2.733   9.996
11411SOL    HW236131  12.006   2.856  10.045
11412SOL     OW36132   4.683  13.742   3.084
11412SOL    HW136133   4.629  13.687   3.142
11412SOL    HW236134   4.669  13.705   2.997
11413SOL     OW36135   3.850   0.770   6.144
11413SOL    HW136136   3.907   0.696   6.126
11413SOL    HW236137   3.789   0.738   6.210
11414SOL     OW36138   1.197   0.872   3.653
11414SOL    HW136139   1.289   0.899   3.655
11414SOL    HW236140   1.152   0.942   3.605
11415SOL     OW36141   6.225  11.315  14.769
11415SOL    HW136142   6.309  11.296  14.726
11415SOL    HW236143   6.190  11.229  14.791
11416SOL     OW36144   2.839   8.263   2.452
11416SOL    HW136145   2.915   8.234   2.501
11416SOL    HW236146   2.776   8.290   2.519
11417SOL     OW36147  11.526   6.179  14.343
11417SOL    HW136148  11.506   6.191  14.250
11417SOL    HW236149  11.584   6.251  14.365
11418SOL     OW36150   3.363   6.045  13.594
11418SOL    HW136151   3.349   6.084  13.680
11418SOL    HW236152   3.276   6.026  13.560
11419SOL     OW36153   2.473  11.825   7.688
11419SOL    HW136154   2.397  11.883   7.687
11419SOL    HW236155   2.455  11.763   7.758
11420SOL     OW36156   2.238   3.385   6.933
11420SOL    HW136157   2.173   3.432   6.985
11420SOL    HW236158   2.190   3.352   6.857
11421SOL     OW36159   9.876   9.272   1.695
11421SOL    HW136160   9.826   9.203   1.650
11421SOL    HW236161   9.812   9.339   1.715
11422SOL     OW36162   0.843   1.253   4.494
11422SOL    HW136163   0.822   1.161   4.480
11422SOL    HW236164   0.856   1.288   4.406
11423SOL     OW36165   3.565   6.681   0.665
11423SOL    HW136166   3.501   6.747   0.694
11423SOL    HW236167   3.558   6.682   0.570
11424SOL     OW36168   8.665   0.766  11.995
11424SOL    HW136169   8.643   0.858  12.012
11424SOL    HW236170   8.675   0.728  12.082
11425SOL     OW36171   5.637  12.505   4.803
11425SOL    HW136172   5.650  12.444   4.876
11425SOL    HW236173   5.542  12.507   4.790
11426SOL     OW36174   6.480   7.004   8.053
11426SOL    HW136175   6.555   7.024   8.109
11426SOL    HW236176   6.479   7.075   7.989
11427SOL     OW36177   6.841   4.556   1.929
11427SOL    HW136178   6.810   4.611   2.001
11427SOL    HW236179   6.820   4.606   1.850
11428SOL     OW36180  11.844   2.193   9.467
11428SOL    HW136181  11.758   2.167   9.433
11428SOL    HW236182  11.838   2.287   9.480
11429SOL     OW36183  11.065   6.167   2.010
11429SOL    HW136184  10.993   6.220   1.977
11429SOL    HW236185  11.120   6.152   1.933
11430SOL     OW36186   3.037  14.414   3.244
11430SOL    HW136187   3.079  14.387   3.325
11430SOL    HW236188   3.032  14.334   3.192
11431SOL     OW36189   7.319   1.198   1.828
11431SOL    HW136190   7.240   1.251   1.829
11431SOL    HW236191   7.335   1.177   1.920
11432SOL     OW36192   5.371  12.721  11.806
11432SOL    HW136193   5.317  12.728  11.728
11432SOL    HW236194   5.380  12.627  11.821
11433SOL     OW36195   7.525   6.979   2.787
11433SOL    HW136196   7.438   7.015   2.769
11433SOL    HW236197   7.541   7.000   2.879
11434SOL     OW36198  13.404   6.296  13.044
11434SOL    HW136199  13.355   6.377  13.059
11434SOL    HW236200  13.437   6.272  13.130
11435SOL     OW36201   9.952  14.719   8.932
11435SOL    HW136202   9.970  14.661   8.858
11435SOL    HW236203   9.914  14.662   8.999
11436SOL     OW36204   4.661  11.458   2.121
11436SOL    HW136205   4.726  11.454   2.051
11436SOL    HW236206   4.634  11.550   2.124
11437SOL     OW36207  12.463  10.619  10.685
11437SOL    HW136208  12.376  10.631  10.647
11437SOL    HW236209  12.462  10.671  10.765
11438SOL     OW36210   1.547  14.502   5.339
11438SOL    HW136211   1.572  14.526   5.428
11438SOL    HW236212   1.619  14.448   5.308
11439SOL     OW36213  11.743   3.100   3.878
11439SOL    HW136214  11.835   3.098   3.853
11439SOL    HW236215  11.722   3.010   3.903
11440SOL     OW36216   8.860   9.938  10.977
11440SOL    HW136217   8.780   9.889  10.959
11440SOL    HW236218   8.832  10.029  10.981
11441SOL     OW36219   3.234   8.742   7.670
11441SOL    HW136220   3.315   8.692   7.684
11441SOL    HW236221   3.234   8.762   7.577
11442SOL     OW36222   2.231  10.539   7.030
11442SOL    HW136223   2.174  10.500   6.963
11442SOL    HW236224   2.181  10.532   7.111
11443SOL     OW36225   3.092   2.555   2.125
11443SOL    HW136226   3.159   2.608   2.082
11443SOL    HW236227   3.009   2.589   2.093
11444SOL     OW36228   7.793  14.267   7.321
11444SOL    HW136229   7.861  14.274   7.388
11444SOL    HW236230   7.841  14.251   7.239
11445SOL     OW36231   4.640   9.476   6.474
11445SOL    HW136232   4.595   9.394   6.493
11445SOL    HW236233   4.606   9.503   6.388
11446SOL     OW36234  10.831  11.675  11.629
11446SOL    HW136235  10.885  11.596  11.642
11446SOL    HW236236  10.871  11.741  11.685
11447SOL     OW36237   9.238   5.950  14.520
11447SOL    HW136238   9.204   6.039  14.529
11447SOL    HW236239   9.199   5.917  14.439
11448SOL     OW36240  11.207   7.320   0.274
11448SOL    HW136241  11.195   7.244   0.330
11448SOL    HW236242  11.145   7.385   0.308
11449SOL     OW36243   7.772   5.549  14.668
11449SOL    HW136244   7.861   5.539  14.700
11449SOL    HW236245   7.782   5.595  14.584
11450SOL     OW36246   9.120   1.223   8.077
11450SOL    HW136247   9.073   1.189   8.153
11450SOL    HW236248   9.110   1.318   8.083
11451SOL     OW36249   0.979   4.381   3.774
11451SOL    HW136250   0.976   4.450   3.708
11451SOL    HW236251   1.015   4.423   3.852
11452SOL     OW36252   6.231  12.042   2.123
11452SOL    HW136253   6.218  11.971   2.186
11452SOL    HW236254   6.324  12.063   2.128
11453SOL     OW36255   7.681  14.019   8.504
11453SOL    HW136256   7.589  14.006   8.527
11453SOL    HW236257   7.718  13.931   8.500
11454SOL     OW36258   9.725   2.565   7.689
11454SOL    HW136259   9.777   2.626   7.636
11454SOL    HW236260   9.675   2.621   7.748
11455SOL     OW36261   3.265   0.459  12.214
11455SOL    HW136262   3.278   0.486  12.123
11455SOL    HW236263   3.346   0.413  12.237
11456SOL     OW36264   8.075  11.185  11.460
11456SOL    HW136265   8.039  11.163  11.547
11456SOL    HW236266   8.168  11.164  11.467
11457SOL     OW36267   9.588   0.407   8.467
11457SOL    HW136268   9.607   0.405   8.560
11457SOL    HW236269   9.650   0.470   8.431
11458SOL     OW36270  10.208  11.868  11.263
11458SOL    HW136271  10.283  11.850  11.207
11458SOL    HW236272  10.245  11.878  11.350
11459SOL     OW36273   6.769   4.492   6.635
11459SOL    HW136274   6.682   4.478   6.598
11459SOL    HW236275   6.753   4.532   6.720
11460SOL     OW36276   1.486   7.910  11.922
11460SOL    HW136277   1.450   7.913  12.010
11460SOL    HW236278   1.433   7.973  11.872
11461SOL     OW36279  12.605  14.718   0.376
11461SOL    HW136280  12.538  14.696   0.440
11461SOL    HW236281  12.688  14.705   0.422
11462SOL     OW36282  13.973  13.167   6.777
11462SOL    HW136283  14.034  13.100   6.806
11462SOL    HW236284  13.926  13.192   6.856
11463SOL     OW36285  11.157   5.774   5.985
11463SOL    HW136286  11.108   5.809   6.059
11463SOL    HW236287  11.233   5.731   6.023
11464SOL     OW36288  10.427   5.141   1.854
11464SOL    HW136289  10.473   5.219   1.885
11464SOL    HW236290  10.402   5.095   1.934
11465SOL     OW36291  13.847   4.320  10.841
11465SOL    HW136292  13.933   4.279  10.831
11465SOL    HW236293  13.853   4.366  10.925
11466SOL     OW36294  10.249   6.564  10.766
11466SOL    HW136295  10.168   6.567  10.714
11466SOL    HW236296  10.278   6.654  10.769
11467SOL     OW36297  14.262   7.808  13.648
11467SOL    HW136298  14.285   7.743  13.581
11467SOL    HW236299  14.168   7.821  13.638
11468SOL     OW36300   4.136  10.700   8.344
11468SOL    HW136301   4.202  10.734   8.405
11468SOL    HW236302   4.066  10.666   8.400
11469SOL     OW36303  11.760  10.178   8.296
11469SOL    HW136304  11.818  10.118   8.344
11469SOL    HW236305  11.680  10.127   8.283
11470SOL     OW36306   2.691   1.771  12.361
11470SOL    HW136307   2.715   1.762  12.454
11470SOL    HW236308   2.624   1.840  12.361
11471SOL     OW36309   2.645  14.807   7.661
11471SOL    HW136310   2.599  14.745   7.718
11471SOL    HW236311   2.628  14.775   7.573
11472SOL     OW36312   3.868   3.056  11.551
11472SOL    HW136313   3.906   3.042  11.638
11472SOL    HW236314   3.883   2.973  11.505
11473SOL     OW36315   6.573   6.449  12.881
11473SOL    HW136316   6.667   6.463  12.868
11473SOL    HW236317   6.539   6.430  12.794
11474SOL     OW36318   1.370   5.117   5.383
11474SOL    HW136319   1.277   5.139   5.375
11474SOL    HW236320   1.416   5.196   5.354
11475SOL     OW36321   9.129  14.819   2.486
11475SOL    HW136322   9.042  14.838   2.519
11475SOL    HW236323   9.168  14.762   2.552
11476SOL     OW36324  12.918  10.769   3.241
11476SOL    HW136325  12.909  10.854   3.282
11476SOL    HW236326  12.858  10.771   3.167
11477SOL     OW36327   5.580  10.998  11.356
11477SOL    HW136328   5.634  10.974  11.281
11477SOL    HW236329   5.534  10.917  11.379
11478SOL     OW36330   7.966  14.038   0.056
11478SOL    HW136331   7.958  14.048   0.151
11478SOL    HW236332   8.054  14.070   0.036
11479SOL     OW36333   4.771   4.029   5.775
11479SOL    HW136334   4.723   4.035   5.857
11479SOL    HW236335   4.839   3.963   5.792
11480SOL     OW36336   2.082   8.526  13.585
11480SOL    HW136337   2.087   8.439  13.546
11480SOL    HW236338   2.169   8.562  13.574
11481SOL     OW36339  14.855   0.096   5.318
11481SOL    HW136340  14.837   0.150   5.395
11481SOL    HW236341  14.870   0.008   5.352
11482SOL     OW36342   8.726   6.152   8.061
11482SOL    HW136343   8.699   6.140   8.152
11482SOL    HW236344   8.772   6.236   8.060
11483SOL     OW36345   5.302   0.172  12.015
11483SOL    HW136346   5.338   0.100  11.962
11483SOL    HW236347   5.320   0.145  12.105
11484SOL     OW36348   8.097   6.078   7.822
11484SOL    HW136349   8.124   6.151   7.766
11484SOL    HW236350   8.064   6.012   7.761
11485SOL     OW36351   3.399  11.304   8.374
11485SOL    HW136352   3.472  11.357   8.343
11485SOL    HW236353   3.428  11.269   8.458
11486SOL     OW36354   0.146   3.224   2.302
11486SOL    HW136355   0.162   3.302   2.249
11486SOL    HW236356   0.060   3.239   2.341
11487SOL     OW36357   2.475   3.310   9.097
11487SOL    HW136358   2.438   3.263   9.023
11487SOL    HW236359   2.564   3.331   9.069
11488SOL     OW36360  13.030   3.280   0.235
11488SOL    HW136361  12.937   3.282   0.259
11488SOL    HW236362  13.054   3.373   0.226
11489SOL     OW36363   7.094   8.569  10.460
11489SOL    HW136364   7.074   8.603  10.373
11489SOL    HW236365   7.015   8.521  10.485
11490SOL     OW36366  12.899   4.794   7.167
11490SOL    HW136367  12.912   4.740   7.245
11490SOL    HW236368  12.905   4.884   7.199
11491SOL     OW36369  13.078  12.128  10.944
11491SOL    HW136370  13.031  12.206  10.975
11491SOL    HW236371  13.011  12.062  10.933
11492SOL     OW36372  13.606  13.351  14.703
11492SOL    HW136373  13.677  13.326  14.644
11492SOL    HW236374  13.558  13.419  14.655
11493SOL     OW36375  10.446   6.639   6.665
11493SOL    HW136376  10.530   6.603   6.635
11493SOL    HW236377  10.388   6.563   6.671
11494SOL     OW36378  13.025   6.465   6.774
11494SOL    HW136379  12.986   6.551   6.787
11494SOL    HW236380  13.119   6.481   6.770
11495SOL     OW36381   8.939   9.981   8.062
11495SOL    HW136382   8.925   9.953   7.971
11495SOL    HW236383   8.938   9.899   8.112
11496SOL     OW36384   1.573  10.430  12.734
11496SOL    HW136385   1.604  10.369  12.801
11496SOL    HW236386   1.605  10.394  12.652
11497SOL     OW36387   7.526   4.754  12.487
11497SOL    HW136388   7.494   4.664  12.481
11497SOL    HW236389   7.577   4.766  12.407
11498SOL     OW36390   6.629  10.377   7.326
11498SOL    HW136391   6.651  10.436   7.254
11498SOL    HW236392   6.577  10.308   7.284
11499SOL     OW36393  11.483   4.017   7.137
11499SOL    HW136394  11.517   3.961   7.207
11499SOL    HW236395  11.522   4.103   7.155
11500SOL     OW36396   7.410   5.138   6.327
11500SOL    HW136397   7.500   5.158   6.352
11500SOL    HW236398   7.388   5.061   6.379
11501SOL     OW36399   3.370   1.591   6.212
11501SOL    HW136400   3.337   1.580   6.123
11501SOL    HW236401   3.291   1.594   6.267
11502SOL     OW36402   3.205   3.636   8.504
11502SOL    HW136403   3.272   3.685   8.455
11502SOL    HW236404   3.235   3.545   8.499
11503SOL     OW36405   4.756   7.498   8.923
11503SOL    HW136406   4.709   7.442   8.862
11503SOL    HW236407   4.848   7.482   8.905
11504SOL     OW36408   1.748   6.610   5.575
11504SOL    HW136409   1.734   6.703   5.595
11504SOL    HW236410   1.839   6.594   5.599
11505SOL     OW36411   5.186   0.981   2.369
11505SOL    HW136412   5.223   0.892   2.366
11505SOL    HW236413   5.157   0.992   2.459
11506SOL     OW36414   0.037   1.160   1.516
11506SOL    HW136415  14.846   1.131   1.461
11506SOL    HW236416   0.077   1.232   1.468
11507SOL     OW36417   7.219   7.148  12.858
11507SOL    HW136418   7.286   7.198  12.905
11507SOL    HW236419   7.261   7.065  12.837
11508SOL     OW36420   9.145   6.397   7.100
11508SOL    HW136421   9.051   6.411   7.089
11508SOL    HW236422   9.184   6.435   7.021
11509SOL     OW36423  12.164   9.088   1.090
11509SOL    HW136424  12.169   9.161   1.151
11509SOL    HW236425  12.128   9.016   1.142
11510SOL     OW36426   4.376   6.913  11.758
11510SOL    HW136427   4.320   6.836  11.755
11510SOL    HW236428   4.465   6.878  11.761
11511SOL     OW36429   1.043   2.359   7.259
11511SOL    HW136430   1.123   2.311   7.277
11511SOL    HW236431   1.069   2.431   7.201
11512SOL     OW36432   4.679   5.465   1.628
11512SOL    HW136433   4.774   5.459   1.617
11512SOL    HW236434   4.667   5.471   1.723
11513SOL     OW36435   5.211   0.694   9.618
11513SOL    HW136436   5.169   0.691   9.704
11513SOL    HW236437   5.140   0.682   9.556
11514SOL     OW36438   9.880   9.399   8.009
11514SOL    HW136439   9.807   9.339   7.997
11514SOL    HW236440   9.895   9.400   8.104
11515SOL     OW36441  10.833  13.638   4.330
11515SOL    HW136442  10.834  13.669   4.239
11515SOL    HW236443  10.758  13.578   4.333
11516SOL     OW36444   0.313  11.454  14.864
11516SOL    HW136445   0.220  11.461  14.844
11516SOL    HW236446   0.350  11.402  14.792
11517SOL     OW36447   5.976   1.252   5.587
11517SOL    HW136448   5.918   1.178   5.569
11517SOL    HW236449   5.981   1.256   5.682
11518SOL     OW36450   1.367  13.120   8.637
11518SOL    HW136451   1.314  13.166   8.703
11518SOL    HW236452   1.440  13.180   8.620
11519SOL     OW36453   0.496   9.961   4.180
11519SOL    HW136454   0.408   9.958   4.216
11519SOL    HW236455   0.543  10.024   4.235
11520SOL     OW36456   3.631   2.240  10.246
11520SOL    HW136457   3.636   2.283  10.331
11520SOL    HW236458   3.670   2.303  10.185
11521SOL     OW36459   8.440  13.634   2.189
11521SOL    HW136460   8.535  13.633   2.192
11521SOL    HW236461   8.419  13.706   2.128
11522SOL     OW36462  11.590   6.541   0.138
11522SOL    HW136463  11.650   6.555   0.064
11522SOL    HW236464  11.505   6.567   0.104
11523SOL     OW36465   7.301  14.022   6.453
11523SOL    HW136466   7.323  14.011   6.545
11523SOL    HW236467   7.382  14.001   6.405
11524SOL     OW36468  13.772   4.843   1.743
11524SOL    HW136469  13.813   4.782   1.805
11524SOL    HW236470  13.808   4.929   1.766
11525SOL     OW36471   9.571   5.972   9.362
11525SOL    HW136472   9.575   5.979   9.458
11525SOL    HW236473   9.629   5.899   9.341
11526SOL     OW36474  12.194  14.488   1.873
11526SOL    HW136475  12.212  14.441   1.954
11526SOL    HW236476  12.256  14.561   1.873
11527SOL     OW36477   2.622   1.049  10.855
11527SOL    HW136478   2.612   1.143  10.845
11527SOL    HW236479   2.695   1.038  10.916
11528SOL     OW36480  13.818  11.211  12.593
11528SOL    HW136481  13.807  11.304  12.574
11528SOL    HW236482  13.741  11.188  12.645
11529SOL     OW36483   5.004   1.539   8.073
11529SOL    HW136484   5.056   1.520   7.995
11529SOL    HW236485   5.034   1.625   8.102
11530SOL     OW36486  13.207   8.395   9.312
11530SOL    HW136487  13.152   8.473   9.305
11530SOL    HW236488  13.175   8.350   9.390
11531SOL     OW36489   9.941   7.461   6.027
11531SOL    HW136490   9.894   7.437   6.107
11531SOL    HW236491   9.921   7.390   5.966
11532SOL     OW36492   2.212  11.858   8.289
11532SOL    HW136493   2.131  11.808   8.289
11532SOL    HW236494   2.267  11.815   8.355
11533SOL     OW36495   1.731   7.060  11.039
11533SOL    HW136496   1.740   7.016  11.124
11533SOL    HW236497   1.637   7.071  11.028
11534SOL     OW36498   1.090   7.001  10.637
11534SOL    HW136499   1.125   6.915  10.613
11534SOL    HW236500   0.995   6.991  10.628
11535SOL     OW36501  12.670   2.711   2.034
11535SOL    HW136502  12.674   2.805   2.015
11535SOL    HW236503  12.633   2.672   1.955
11536SOL     OW36504   9.181   3.454   1.121
11536SOL    HW136505   9.211   3.385   1.063
11536SOL    HW236506   9.185   3.534   1.068
11537SOL     OW36507   6.009   1.225  13.216
11537SOL    HW136508   6.010   1.313  13.178
11537SOL    HW236509   6.092   1.186  13.191
11538SOL     OW36510   5.676   9.050   6.777
11538SOL    HW136511   5.769   9.059   6.796
11538SOL    HW236512   5.672   9.036   6.682
11539SOL     OW36513  11.253   3.699   7.253
11539SOL    HW136514  11.174   3.739   7.218
11539SOL    HW236515  11.287   3.764   7.316
11540SOL     OW36516  13.569  13.322   0.125
11540SOL    HW136517  13.644  13.333   0.183
11540SOL    HW236518  13.603  13.340   0.037
11541SOL     OW36519   6.535   9.165   6.596
11541SOL    HW136520   6.614   9.121   6.627
11541SOL    HW236521   6.469   9.146   6.663
11542SOL     OW36522   3.858   7.317   0.767
11542SOL    HW136523   3.785   7.264   0.736
11542SOL    HW236524   3.933   7.288   0.714
11543SOL     OW36525  11.115   5.761   3.622
11543SOL    HW136526  11.140   5.672   3.645
11543SOL    HW236527  11.081   5.755   3.533
11544SOL     OW36528   5.074   8.600   7.724
11544SOL    HW136529   5.147   8.631   7.776
11544SOL    HW236530   4.997   8.642   7.763
11545SOL     OW36531   8.354   7.940   6.407
11545SOL    HW136532   8.379   7.980   6.490
11545SOL    HW236533   8.294   7.869   6.432
11546SOL     OW36534   4.090   1.957  12.043
11546SOL    HW136535   4.085   2.013  12.120
11546SOL    HW236536   4.152   2.001  11.985
11547SOL     OW36537  14.128   1.662   6.703
11547SOL    HW136538  14.098   1.735   6.757
11547SOL    HW236539  14.224   1.671   6.702
11548SOL     OW36540  14.424   0.804   4.594
11548SOL    HW136541  14.335   0.835   4.575
11548SOL    HW236542  14.479   0.847   4.528
11549SOL     OW36543   5.388  11.468   6.381
11549SOL    HW136544   5.444  11.473   6.303
11549SOL    HW236545   5.405  11.382   6.418
11550SOL     OW36546  14.783   1.223  10.868
11550SOL    HW136547  14.796   1.191  10.779
11550SOL    HW236548  14.688   1.221  10.881
11551SOL     OW36549   8.442   4.051   4.767
11551SOL    HW136550   8.460   3.963   4.798
11551SOL    HW236551   8.508   4.106   4.810
11552SOL     OW36552   3.249   6.552   6.013
11552SOL    HW136553   3.262   6.482   5.948
11552SOL    HW236554   3.332   6.598   6.016
11553SOL     OW36555  12.170   7.844   3.539
11553SOL    HW136556  12.088   7.885   3.512
11553SOL    HW236557  12.164   7.753   3.508
11554SOL     OW36558   5.607   0.329   3.538
11554SOL    HW136559   5.524   0.371   3.513
11554SOL    HW236560   5.601   0.317   3.633
11555SOL     OW36561   4.467   1.692   9.952
11555SOL    HW136562   4.417   1.648   9.883
11555SOL    HW236563   4.403   1.750   9.994
11556SOL     OW36564  13.889   3.241   7.931
11556SOL    HW136565  13.920   3.303   7.866
11556SOL    HW236566  13.819   3.193   7.887
11557SOL     OW36567   8.666  14.628   8.275
11557SOL    HW136568   8.602  14.655   8.209
11557SOL    HW236569   8.630  14.660   8.358
11558SOL     OW36570  14.030   9.077  13.727
11558SOL    HW136571  14.026   9.084  13.632
11558SOL    HW236572  13.955   9.021  13.750
11559SOL     OW36573   3.604   0.494   9.229
11559SOL    HW136574   3.610   0.425   9.164
11559SOL    HW236575   3.511   0.520   9.228
11560SOL     OW36576   5.256  11.497  14.663
11560SOL    HW136577   5.315  11.459  14.597
11560SOL    HW236578   5.198  11.425  14.687
11561SOL     OW36579   1.094   8.207   4.957
11561SOL    HW136580   1.085   8.177   4.867
11561SOL    HW236581   1.022   8.269   4.969
11562SOL     OW36582   0.332   7.320  10.706
11562SOL    HW136583   0.296   7.308  10.618
11562SOL    HW236584   0.320   7.235  10.749
11563SOL     OW36585   8.194   5.492   5.716
11563SOL    HW136586   8.113   5.506   5.668
11563SOL    HW236587   8.251   5.564   5.690
11564SOL     OW36588   3.389  10.145  14.435
11564SOL    HW136589   3.340  10.097  14.501
11564SOL    HW236590   3.465  10.089  14.417
11565SOL     OW36591   2.050   3.748  10.378
11565SOL    HW136592   2.070   3.656  10.394
11565SOL    HW236593   2.095   3.795  10.448
11566SOL     OW36594   3.828  13.645   8.727
11566SOL    HW136595   3.839  13.718   8.788
11566SOL    HW236596   3.745  13.605   8.751
11567SOL     OW36597   5.016   0.062  11.343
11567SOL    HW136598   4.992  14.856  11.373
11567SOL    HW236599   4.935   0.113  11.350
11568SOL     OW36600  13.500   3.775   7.043
11568SOL    HW136601  13.477   3.776   6.950
11568SOL    HW236602  13.539   3.861   7.059
11569SOL     OW36603   3.882   7.648  14.128
11569SOL    HW136604   3.821   7.596  14.181
11569SOL    HW236605   3.836   7.661  14.045
11570SOL     OW36606  13.962  13.398  10.845
11570SOL    HW136607  13.985  13.351  10.925
11570SOL    HW236608  14.014  13.478  10.847
11571SOL     OW36609   7.607   3.438   2.742
11571SOL    HW136610   7.566   3.493   2.809
11571SOL    HW236611   7.600   3.349   2.777
11572SOL     OW36612   3.207   3.524  14.509
11572SOL    HW136613   3.215   3.576  14.429
11572SOL    HW236614   3.153   3.449  14.483
11573SOL     OW36615   8.606   5.373   8.189
11573SOL    HW136616   8.604   5.309   8.260
11573SOL    HW236617   8.551   5.445   8.220
11574SOL     OW36618   3.312   5.032  14.467
11574SOL    HW136619   3.232   5.048  14.516
11574SOL    HW236620   3.381   5.034  14.533
11575SOL     OW36621  10.150  12.434  11.442
11575SOL    HW136622  10.194  12.493  11.503
11575SOL    HW236623  10.220  12.399  11.388
11576SOL     OW36624   7.512   2.686   0.799
11576SOL    HW136625   7.488   2.673   0.891
11576SOL    HW236626   7.461   2.620   0.751
11577SOL     OW36627   2.010  10.604  10.849
11577SOL    HW136628   1.976  10.544  10.915
11577SOL    HW236629   2.045  10.678  10.899
11578SOL     OW36630   3.841   0.812   7.042
11578SOL    HW136631   3.753   0.834   7.073
11578SOL    HW236632   3.864   0.881   6.981
11579SOL     OW36633   3.769   2.065   5.341
11579SOL    HW136634   3.864   2.063   5.329
11579SOL    HW236635   3.756   2.050   5.435
11580SOL     OW36636  10.985  13.138   0.893
11580SOL    HW136637  10.943  13.077   0.954
11580SOL    HW236638  10.975  13.224   0.934
11581SOL     OW36639   2.751  12.031   2.613
11581SOL    HW136640   2.711  11.986   2.538
11581SOL    HW236641   2.783  12.114   2.576
11582SOL     OW36642  10.538   9.306   5.376
11582SOL    HW136643  10.603   9.242   5.406
11582SOL    HW236644  10.498   9.266   5.299
11583SOL     OW36645  12.157   9.739   1.337
11583SOL    HW136646  12.203   9.692   1.268
11583SOL    HW236647  12.226   9.774   1.392
11584SOL     OW36648  11.481  10.086   5.566
11584SOL    HW136649  11.450  10.145   5.497
11584SOL    HW236650  11.553  10.133   5.607
11585SOL     OW36651  14.476   1.112  11.637
11585SOL    HW136652  14.456   1.066  11.556
11585SOL    HW236653  14.560   1.156  11.620
11586SOL     OW36654   6.672   6.220   9.570
11586SOL    HW136655   6.696   6.270   9.648
11586SOL    HW236656   6.722   6.139   9.576
11587SOL     OW36657  13.262  13.698  14.100
11587SOL    HW136658  13.306  13.783  14.100
11587SOL    HW236659  13.281  13.662  14.186
11588SOL     OW36660   6.822   9.040   6.476
11588SOL    HW136661   6.798   8.952   6.506
11588SOL    HW236662   6.869   9.079   6.550
11589SOL     OW36663  13.384   6.884   3.003
11589SOL    HW136664  13.449   6.816   3.021
11589SOL    HW236665  13.389   6.942   3.079
11590SOL     OW36666   2.300   2.898  13.838
11590SOL    HW136667   2.299   2.986  13.874
11590SOL    HW236668   2.270   2.908  13.748
11591SOL     OW36669   8.796   8.231   1.595
11591SOL    HW136670   8.810   8.239   1.689
11591SOL    HW236671   8.771   8.139   1.582
11592SOL     OW36672   6.389   9.837  12.098
11592SOL    HW136673   6.455   9.846  12.029
11592SOL    HW236674   6.316   9.793  12.055
11593SOL     OW36675   4.737   2.982   4.276
11593SOL    HW136676   4.816   3.004   4.325
11593SOL    HW236677   4.767   2.920   4.209
11594SOL     OW36678   6.065   7.830  13.969
11594SOL    HW136679   6.045   7.922  13.949
11594SOL    HW236680   6.106   7.796  13.890
11595SOL     OW36681  10.187  14.759   5.232
11595SOL    HW136682  10.147  14.700   5.295
11595SOL    HW236683  10.277  14.727   5.222
11596SOL     OW36684   5.138  14.243   8.695
11596SOL    HW136685   5.197  14.300   8.745
11596SOL    HW236686   5.152  14.269   8.604
11597SOL     OW36687   8.144   9.442  11.312
11597SOL    HW136688   8.158   9.412  11.402
11597SOL    HW236689   8.148   9.362  11.259
11598SOL     OW36690   0.096   3.450  13.501
11598SOL    HW136691   0.164   3.428  13.438
11598SOL    HW236692   0.054   3.366  13.521
11599SOL     OW36693   3.855  14.621   8.302
11599SOL    HW136694   3.882  14.567   8.227
11599SOL    HW236695   3.888  14.574   8.379
11600SOL     OW36696  10.514   9.687   4.745
11600SOL    HW136697  10.461   9.608   4.751
11600SOL    HW236698  10.536   9.708   4.836
11601SOL     OW36699   4.766   7.096  10.439
11601SOL    HW136700   4.859   7.086  10.417
11601SOL    HW236701   4.745   7.017  10.490
11602SOL     OW36702  13.774   7.588   6.616
11602SOL    HW136703  13.775   7.503   6.660
11602SOL    HW236704  13.865   7.617   6.618
11603SOL     OW36705   0.099  12.428  14.408
11603SOL    HW136706   0.133  12.389  14.328
11603SOL    HW236707   0.139  12.377  14.478
11604SOL     OW36708   0.537   8.218   1.930
11604SOL    HW136709   0.583   8.212   2.014
11604SOL    HW236710   0.547   8.131   1.891
11605SOL     OW36711   6.311   6.756   4.930
11605SOL    HW136712   6.342   6.670   4.901
11605SOL    HW236713   6.290   6.803   4.849
11606SOL     OW36714  10.442   3.690  11.859
11606SOL    HW136715  10.370   3.740  11.897
11606SOL    HW236716  10.438   3.709  11.766
11607SOL     OW36717   7.218   2.801   9.486
11607SOL    HW136718   7.273   2.730   9.520
11607SOL    HW236719   7.232   2.873   9.547
11608SOL     OW36720  10.199  12.405   0.573
11608SOL    HW136721  10.256  12.361   0.510
11608SOL    HW236722  10.110  12.387   0.540
11609SOL     OW36723   0.252   7.762   0.200
11609SOL    HW136724   0.281   7.844   0.240
11609SOL    HW236725   0.286   7.766   0.110
11610SOL     OW36726   0.192   6.651  10.231
11610SOL    HW136727   0.163   6.599  10.157
11610SOL    HW236728   0.287   6.656  10.221
11611SOL     OW36729   3.900   5.243   6.886
11611SOL    HW136730   3.841   5.292   6.829
11611SOL    HW236731   3.974   5.220   6.830
11612SOL     OW36732   7.183   0.515  11.111
11612SOL    HW136733   7.223   0.536  11.027
11612SOL    HW236734   7.169   0.600  11.152
11613SOL     OW36735   8.418  12.647   0.519
11613SOL    HW136736   8.344  12.659   0.578
11613SOL    HW236737   8.483  12.599   0.571
11614SOL     OW36738   5.991  11.848  11.579
11614SOL    HW136739   5.961  11.759  11.595
11614SOL    HW236740   6.056  11.865  11.646
11615SOL     OW36741   6.826  11.561  10.550
11615SOL    HW136742   6.759  11.503  10.512
11615SOL    HW236743   6.871  11.507  10.614
11616SOL     OW36744  12.565  11.692   5.919
11616SOL    HW136745  12.645  11.644   5.897
11616SOL    HW236746  12.511  11.629   5.966
11617SOL     OW36747   3.221   8.742   9.700
11617SOL    HW136748   3.220   8.820   9.645
11617SOL    HW236749   3.130   8.729   9.726
11618SOL     OW36750   3.692   8.363   0.836
11618SOL    HW136751   3.628   8.292   0.835
11618SOL    HW236752   3.745   8.350   0.757
11619SOL     OW36753   9.579   4.990  14.360
11619SOL    HW136754   9.540   4.910  14.397
11619SOL    HW236755   9.668   4.963  14.335
11620SOL     OW36756  11.147   1.745   7.897
11620SOL    HW136757  11.225   1.780   7.852
11620SOL    HW236758  11.076   1.759   7.835
11621SOL     OW36759  10.063   2.505   7.696
11621SOL    HW136760  10.009   2.441   7.741
11621SOL    HW236761  10.030   2.505   7.606
11622SOL     OW36762   5.840  13.860   8.485
11622SOL    HW136763   5.914  13.823   8.533
11622SOL    HW236764   5.771  13.871   8.550
11623SOL     OW36765  11.314   2.603   2.418
11623SOL    HW136766  11.228   2.597   2.377
11623SOL    HW236767  11.346   2.513   2.419
11624SOL     OW36768   3.888   1.275  13.982
11624SOL    HW136769   3.889   1.185  14.015
11624SOL    HW236770   3.953   1.276  13.912
11625SOL     OW36771   2.291   6.900   5.723
11625SOL    HW136772   2.284   6.901   5.819
11625SOL    HW236773   2.374   6.856   5.705
11626SOL     OW36774  12.095   6.615  13.022
11626SOL    HW136775  12.048   6.537  12.995
11626SOL    HW236776  12.181   6.608  12.980
11627SOL     OW36777   1.390   9.856   4.912
11627SOL    HW136778   1.453   9.807   4.964
11627SOL    HW236779   1.406   9.827   4.822
11628SOL     OW36780  12.687  12.413  13.304
11628SOL    HW136781  12.597  12.445  13.302
11628SOL    HW236782  12.738  12.487  13.334
11629SOL     OW36783  10.405   6.332   5.670
11629SOL    HW136784  10.384   6.386   5.594
11629SOL    HW236785  10.337   6.353   5.734
11630SOL     OW36786   9.606   0.435   7.326
11630SOL    HW136787   9.584   0.522   7.359
11630SOL    HW236788   9.695   0.443   7.294
11631SOL     OW36789   0.701   1.756  13.517
11631SOL    HW136790   0.614   1.764  13.555
11631SOL    HW236791   0.717   1.661  13.514
11632SOL     OW36792   9.167  11.070   9.011
11632SOL    HW136793   9.259  11.076   9.039
11632SOL    HW236794   9.172  11.063   8.915
11633SOL     OW36795  10.019  13.470  13.712
11633SOL    HW136796   9.937  13.458  13.663
11633SOL    HW236797  10.009  13.414  13.789
11634SOL     OW36798   8.592   9.689   2.295
11634SOL    HW136799   8.588   9.739   2.214
11634SOL    HW236800   8.503   9.693   2.330
11635SOL     OW36801   5.991   5.826   7.526
11635SOL    HW136802   6.068   5.880   7.543
11635SOL    HW236803   5.976   5.834   7.432
11636SOL     OW36804  11.739   0.126   9.735
11636SOL    HW136805  11.745   0.191   9.805
11636SOL    HW236806  11.694   0.051   9.775
11637SOL     OW36807   7.220   5.478   0.398
11637SOL    HW136808   7.229   5.545   0.465
11637SOL    HW236809   7.213   5.526   0.316
11638SOL     OW36810  11.592   1.260   9.424
11638SOL    HW136811  11.541   1.188   9.387
11638SOL    HW236812  11.551   1.339   9.389
11639SOL     OW36813   3.616   6.718  11.254
11639SOL    HW136814   3.578   6.773  11.185
11639SOL    HW236815   3.615   6.773  11.332
11640SOL     OW36816   4.429   1.192   7.484
11640SOL    HW136817   4.439   1.270   7.538
11640SOL    HW236818   4.505   1.138   7.507
11641SOL     OW36819   4.428   4.926  14.649
11641SOL    HW136820   4.519   4.948  14.670
11641SOL    HW236821   4.432   4.836  14.618
11642SOL     OW36822   0.179   7.806  12.806
11642SOL    HW136823   0.142   7.858  12.877
11642SOL    HW236824   0.120   7.731  12.798
11643SOL     OW36825   2.713   9.874   2.536
11643SOL    HW136826   2.690   9.957   2.578
11643SOL    HW236827   2.806   9.882   2.515
11644SOL     OW36828   3.570   1.138  11.707
11644SOL    HW136829   3.658   1.130  11.668
11644SOL    HW236830   3.584   1.123  11.800
11645SOL     OW36831   9.904   5.864   6.490
11645SOL    HW136832   9.937   5.826   6.409
11645SOL    HW236833   9.955   5.944   6.501
11646SOL     OW36834   9.330   7.310  14.308
11646SOL    HW136835   9.243   7.339  14.336
11646SOL    HW236836   9.371   7.388  14.270
11647SOL     OW36837   5.753   5.946   4.690
11647SOL    HW136838   5.840   5.921   4.659
11647SOL    HW236839   5.756   6.042   4.696
11648SOL     OW36840  11.999   7.695  12.267
11648SOL    HW136841  12.023   7.604  12.282
11648SOL    HW236842  12.031   7.714  12.179
11649SOL     OW36843   9.988   6.604  12.295
11649SOL    HW136844  10.018   6.662  12.224
11649SOL    HW236845  10.064   6.548  12.313
11650SOL     OW36846   5.956  11.025   1.272
11650SOL    HW136847   5.918  11.099   1.224
11650SOL    HW236848   6.030  11.063   1.319
11651SOL     OW36849   0.332  11.359   0.899
11651SOL    HW136850   0.357  11.446   0.931
11651SOL    HW236851   0.241  11.369   0.872
11652SOL     OW36852  12.637  12.009  13.152
11652SOL    HW136853  12.679  12.083  13.108
11652SOL    HW236854  12.596  11.959  13.080
11653SOL     OW36855  14.468   2.962   0.339
11653SOL    HW136856  14.391   3.013   0.313
11653SOL    HW236857  14.460   2.880   0.289
11654SOL     OW36858  14.542  13.188   2.309
11654SOL    HW136859  14.607  13.123   2.281
11654SOL    HW236860  14.551  13.191   2.404
11655SOL     OW36861   4.676   5.224   0.695
11655SOL    HW136862   4.635   5.141   0.721
11655SOL    HW236863   4.753   5.232   0.752
11656SOL     OW36864   7.570  12.293   4.979
11656SOL    HW136865   7.644  12.352   4.962
11656SOL    HW236866   7.493  12.348   4.965
11657SOL     OW36867   1.251   9.335  10.178
11657SOL    HW136868   1.298   9.393  10.239
11657SOL    HW236869   1.279   9.247  10.202
11658SOL     OW36870   0.642   8.032   1.347
11658SOL    HW136871   0.580   8.063   1.413
11658SOL    HW236872   0.621   7.939   1.337
11659SOL     OW36873   6.439   9.694   0.379
11659SOL    HW136874   6.468   9.773   0.424
11659SOL    HW236875   6.372   9.724   0.318
11660SOL     OW36876   5.180  13.086   3.323
11660SOL    HW136877   5.112  13.107   3.259
11660SOL    HW236878   5.221  13.006   3.288
11661SOL     OW36879  11.856   5.151  14.800
11661SOL    HW136880  11.766   5.179  14.782
11661SOL    HW236881  11.858   5.140   0.013
11662SOL     OW36882   5.903   4.282   5.258
11662SOL    HW136883   5.978   4.223   5.262
11662SOL    HW236884   5.914   4.341   5.332
11663SOL     OW36885   1.572  10.966   5.773
11663SOL    HW136886   1.557  10.872   5.764
11663SOL    HW236887   1.562  11.001   5.684
11664SOL     OW36888   2.916   1.375   0.167
11664SOL    HW136889   2.830   1.335   0.159
11664SOL    HW236890   2.906   1.463   0.132
11665SOL     OW36891   1.993  10.077  10.319
11665SOL    HW136892   1.979  10.149  10.258
11665SOL    HW236893   1.905  10.050  10.346
11666SOL     OW36894   6.622  12.362   2.555
11666SOL    HW136895   6.680  12.378   2.481
11666SOL    HW236896   6.679  12.323   2.621
11667SOL     OW36897  12.502   2.230   9.665
11667SOL    HW136898  12.589   2.229   9.625
11667SOL    HW236899  12.442   2.218   9.592
11668SOL     OW36900   1.992   7.878   3.990
11668SOL    HW136901   2.010   7.914   4.077
11668SOL    HW236902   1.941   7.946   3.946
11669SOL     OW36903   6.668   4.041   6.206
11669SOL    HW136904   6.734   4.098   6.246
11669SOL    HW236905   6.714   3.997   6.135
11670SOL     OW36906   7.483   8.510   0.203
11670SOL    HW136907   7.561   8.458   0.183
11670SOL    HW236908   7.514   8.601   0.202
11671SOL     OW36909   9.122   8.735  14.331
11671SOL    HW136910   9.143   8.726  14.238
11671SOL    HW236911   9.040   8.688  14.341
11672SOL     OW36912   4.758  11.052   4.532
11672SOL    HW136913   4.829  11.110   4.559
11672SOL    HW236914   4.780  10.967   4.571
11673SOL     OW36915   1.149   3.090   5.411
11673SOL    HW136916   1.179   3.177   5.386
11673SOL    HW236917   1.198   3.071   5.491
11674SOL     OW36918   5.038   7.318   9.796
11674SOL    HW136919   5.131   7.296   9.790
11674SOL    HW236920   5.034   7.385   9.864
11675SOL     OW36921  13.071   4.587   0.850
11675SOL    HW136922  13.101   4.536   0.775
11675SOL    HW236923  13.115   4.672   0.841
11676SOL     OW36924  13.193   8.615   1.923
11676SOL    HW136925  13.117   8.620   1.866
11676SOL    HW236926  13.208   8.521   1.934
11677SOL     OW36927   2.940   7.750   5.153
11677SOL    HW136928   2.918   7.685   5.086
11677SOL    HW236929   3.028   7.724   5.182
11678SOL     OW36930  10.995  11.584   4.245
11678SOL    HW136931  10.930  11.522   4.213
11678SOL    HW236932  10.946  11.642   4.304
11679SOL     OW36933  14.701   1.404   4.140
11679SOL    HW136934  14.661   1.408   4.227
11679SOL    HW236935  14.630   1.423   4.079
11680SOL     OW36936   0.004   6.229  11.815
11680SOL    HW136937  14.821   6.284  11.773
11680SOL    HW236938   0.002   6.147  11.765
11681SOL     OW36939  12.480   3.109   2.040
11681SOL    HW136940  12.495   3.123   2.134
11681SOL    HW236941  12.530   3.180   1.998
11682SOL     OW36942   6.866  12.045   0.507
11682SOL    HW136943   6.885  12.002   0.590
11682SOL    HW236944   6.818  11.980   0.456
11683SOL     OW36945   7.511   1.479  11.926
11683SOL    HW136946   7.484   1.529  11.849
11683SOL    HW236947   7.470   1.393  11.913
11684SOL     OW36948   3.828   8.892  14.184
11684SOL    HW136949   3.868   8.975  14.160
11684SOL    HW236950   3.763   8.914  14.251
11685SOL     OW36951  13.806   9.614  10.530
11685SOL    HW136952  13.819   9.657  10.446
11685SOL    HW236953  13.711   9.605  10.538
11686SOL     OW36954   2.670  12.086   4.294
11686SOL    HW136955   2.624  12.146   4.236
11686SOL    HW236956   2.756  12.126   4.309
11687SOL     OW36957   3.062   3.258   1.271
11687SOL    HW136958   3.114   3.236   1.194
11687SOL    HW236959   3.118   3.316   1.322
11688SOL     OW36960   2.747   4.041   1.544
11688SOL    HW136961   2.788   4.111   1.494
11688SOL    HW236962   2.658   4.035   1.509
11689SOL     OW36963  12.516  10.207   5.866
11689SOL    HW136964  12.547  10.160   5.789
11689SOL    HW236965  12.525  10.299   5.843
11690SOL     OW36966   5.410  12.665   7.538
11690SOL    HW136967   5.317  12.669   7.559
11690SOL    HW236968   5.448  12.744   7.578
11691SOL     OW36969  12.387  14.686   1.900
11691SOL    HW136970  12.464  14.662   1.953
11691SOL    HW236971  12.356  14.767   1.939
11692SOL     OW36972  11.664  12.369   4.696
11692SOL    HW136973  11.745  12.321   4.711
11692SOL    HW236974  11.603  12.303   4.661
11693SOL     OW36975   2.180  13.691   8.662
11693SOL    HW136976   2.254  13.672   8.604
11693SOL    HW236977   2.155  13.606   8.697
11694SOL     OW36978   3.364   6.784  12.703
11694SOL    HW136979   3.420   6.807  12.630
11694SOL    HW236980   3.363   6.862  12.759
11695SOL     OW36981   6.270   0.781   5.016
11695SOL    HW136982   6.336   0.805   5.080
11695SOL    HW236983   6.318   0.731   4.949
11696SOL     OW36984  14.631   9.680   5.199
11696SOL    HW136985  14.651   9.588   5.180
11696SOL    HW236986  14.537   9.681   5.215
11697SOL     OW36987   3.827  11.509   4.829
11697SOL    HW136988   3.778  11.431   4.804
11697SOL    HW236989   3.780  11.543   4.905
11698SOL     OW36990  14.030   9.926   2.660
11698SOL    HW136991  14.102   9.939   2.722
11698SOL    HW236992  13.952   9.922   2.715
11699SOL     OW36993   5.959   3.989   0.044
11699SOL    HW136994   6.010   4.065   0.070
11699SOL    HW236995   5.920   4.014  14.843
11700SOL     OW36996   3.301   3.035  11.468
11700SOL    HW136997   3.268   3.034  11.558
11700SOL    HW236998   3.355   3.114  11.463
11701SOL     OW36999   5.964   5.477  11.956
11701SOL    HW137000   5.980   5.383  11.966
11701SOL    HW237001   6.042   5.518  11.992
11702SOL     OW37002  10.492   9.103   2.322
11702SOL    HW137003  10.497   9.010   2.299
11702SOL    HW237004  10.412   9.134   2.280
11703SOL     OW37005   0.337  11.411  10.862
11703SOL    HW137006   0.296  11.376  10.941
11703SOL    HW237007   0.265  11.448  10.811
11704SOL     OW37008   6.495   1.464  10.775
11704SOL    HW137009   6.488   1.456  10.680
11704SOL    HW237010   6.423   1.412  10.809
11705SOL     OW37011  13.283  11.808   2.451
11705SOL    HW137012  13.243  11.871   2.510
11705SOL    HW237013  13.317  11.860   2.378
11706SOL     OW37014   5.233  14.042   9.091
11706SOL    HW137015   5.192  14.116   9.047
11706SOL    HW237016   5.304  14.015   9.033
11707SOL     OW37017   3.435   1.744   5.023
11707SOL    HW137018   3.417   1.716   5.113
11707SOL    HW237019   3.465   1.834   5.031
11708SOL     OW37020   9.087   4.029  13.133
11708SOL    HW137021   9.048   4.095  13.077
11708SOL    HW237022   9.076   4.062  13.222
11709SOL     OW37023   4.307  11.651   1.999
11709SOL    HW137024   4.220  11.626   2.030
11709SOL    HW237025   4.296  11.669   1.906
11710SOL     OW37026   7.672   0.156   7.056
11710SOL    HW137027   7.738   0.219   7.028
11710SOL    HW237028   7.707   0.071   7.030
11711SOL     OW37029   8.585  10.869   8.906
11711SOL    HW137030   8.665  10.877   8.855
11711SOL    HW237031   8.515  10.862   8.840
11712SOL     OW37032   6.101   1.284   2.419
11712SOL    HW137033   6.112   1.213   2.482
11712SOL    HW237034   6.021   1.264   2.372
11713SOL     OW37035   3.031   8.181  14.025
11713SOL    HW137036   3.083   8.249  14.068
11713SOL    HW237037   3.090   8.141  13.962
11714SOL     OW37038  13.997   1.494   2.857
11714SOL    HW137039  14.057   1.568   2.846
11714SOL    HW237040  13.976   1.467   2.768
11715SOL     OW37041  13.146   8.319   5.213
11715SOL    HW137042  13.093   8.333   5.291
11715SOL    HW237043  13.198   8.241   5.233
11716SOL     OW37044  12.970   1.183   1.565
11716SOL    HW137045  13.043   1.133   1.602
11716SOL    HW237046  12.961   1.258   1.624
11717SOL     OW37047   2.985   2.580  10.233
11717SOL    HW137048   2.964   2.663  10.190
11717SOL    HW237049   2.999   2.604  10.325
11718SOL     OW37050   4.521   8.546   0.262
11718SOL    HW137051   4.606   8.502   0.255
11718SOL    HW237052   4.501   8.546   0.355
11719SOL     OW37053   0.216  11.292  11.066
11719SOL    HW137054   0.157  11.269  11.137
11719SOL    HW237055   0.292  11.235  11.079
11720SOL     OW37056  13.132   5.270  12.293
11720SOL    HW137057  13.046   5.233  12.275
11720SOL    HW237058  13.127   5.302  12.383
11721SOL     OW37059   3.517   1.823  13.899
11721SOL    HW137060   3.483   1.897  13.949
11721SOL    HW237061   3.563   1.770  13.964
11722SOL     OW37062   4.741   9.648   6.210
11722SOL    HW137063   4.808   9.626   6.145
11722SOL    HW237064   4.711   9.735   6.184
11723SOL     OW37065   8.047   7.383   1.610
11723SOL    HW137066   7.954   7.371   1.630
11723SOL    HW237067   8.092   7.351   1.689
11724SOL     OW37068   6.732   1.669   6.932
11724SOL    HW137069   6.748   1.577   6.953
11724SOL    HW237070   6.696   1.668   6.844
11725SOL     OW37071  10.437  12.252   4.223
11725SOL    HW137072  10.471  12.191   4.156
11725SOL    HW237073  10.342  12.240   4.220
11726SOL     OW37074  12.248   3.772   9.153
11726SOL    HW137075  12.341   3.767   9.176
11726SOL    HW237076  12.213   3.686   9.179
11727SOL     OW37077  12.906  13.850   5.329
11727SOL    HW137078  12.871  13.896   5.405
11727SOL    HW237079  12.894  13.911   5.256
11728SOL     OW37080   8.081   2.141  12.435
11728SOL    HW137081   8.094   2.216  12.493
11728SOL    HW237082   8.066   2.067  12.495
11729SOL     OW37083   8.869  14.681  13.502
11729SOL    HW137084   8.909  14.755  13.547
11729SOL    HW237085   8.819  14.636  13.571
11730SOL     OW37086  11.636   0.537  10.284
11730SOL    HW137087  11.565   0.497  10.233
11730SOL    HW237088  11.714   0.489  10.258
11731SOL     OW37089   0.460   0.673   4.451
11731SOL    HW137090   0.493   0.679   4.361
11731SOL    HW237091   0.534   0.701   4.505
11732SOL     OW37092  13.696   9.695  12.400
11732SOL    HW137093  13.697   9.722  12.308
11732SOL    HW237094  13.605   9.710  12.428
11733SOL     OW37095   5.333   2.586  10.815
11733SOL    HW137096   5.404   2.565  10.876
11733SOL    HW237097   5.371   2.652  10.756
11734SOL     OW37098   4.685   3.485   0.494
11734SOL    HW137099   4.711   3.540   0.568
11734SOL    HW237100   4.592   3.502   0.483
11735SOL     OW37101  10.311  11.340   7.791
11735SOL    HW137102  10.326  11.346   7.886
11735SOL    HW237103  10.248  11.269   7.781
11736SOL     OW37104  12.546  12.722  14.203
11736SOL    HW137105  12.501  12.795  14.244
11736SOL    HW237106  12.635  12.725  14.238
11737SOL     OW37107   9.501   3.469   9.540
11737SOL    HW137108   9.487   3.388   9.490
11737SOL    HW237109   9.569   3.516   9.491
11738SOL     OW37110   6.546  12.725  10.311
11738SOL    HW137111   6.527  12.763  10.225
11738SOL    HW237112   6.640  12.708  10.310
11739SOL     OW37113  12.303   4.312   5.539
11739SOL    HW137114  12.248   4.272   5.606
11739SOL    HW237115  12.311   4.404   5.566
11740SOL     OW37116   4.340   1.663  13.245
11740SOL    HW137117   4.260   1.625  13.280
11740SOL    HW237118   4.406   1.647  13.313
11741SOL     OW37119  10.329   7.513   2.637
11741SOL    HW137120  10.328   7.458   2.559
11741SOL    HW237121  10.328   7.603   2.603
11742SOL     OW37122  13.172  12.826   3.913
11742SOL    HW137123  13.263  12.846   3.891
11742SOL    HW237124  13.158  12.868   3.998
11743SOL     OW37125  11.289   3.447  11.548
11743SOL    HW137126  11.336   3.446  11.632
11743SOL    HW237127  11.196   3.444  11.572
11744SOL     OW37128   2.303   9.565  10.735
11744SOL    HW137129   2.365   9.581  10.664
11744SOL    HW237130   2.357   9.542  10.810
11745SOL     OW37131  12.298  10.445   8.973
11745SOL    HW137132  12.286  10.531   9.013
11745SOL    HW237133  12.244  10.448   8.893
11746SOL     OW37134   8.941  12.231   4.511
11746SOL    HW137135   8.891  12.150   4.524
11746SOL    HW237136   8.896  12.276   4.439
11747SOL     OW37137  12.223  10.859  12.564
11747SOL    HW137138  12.176  10.843  12.646
11747SOL    HW237139  12.174  10.811  12.498
11748SOL     OW37140   5.923   0.259   1.478
11748SOL    HW137141   5.885   0.269   1.565
11748SOL    HW237142   5.971   0.176   1.483
11749SOL     OW37143  11.875  12.309   1.725
11749SOL    HW137144  11.795  12.351   1.757
11749SOL    HW237145  11.913  12.373   1.665
11750SOL     OW37146   8.638  11.221  13.983
11750SOL    HW137147   8.653  11.170  14.063
11750SOL    HW237148   8.707  11.287  13.982
11751SOL     OW37149  11.336   4.578  11.995
11751SOL    HW137150  11.263   4.528  12.032
11751SOL    HW237151  11.337   4.659  12.047
11752SOL     OW37152   2.962   3.197   5.326
11752SOL    HW137153   2.927   3.228   5.409
11752SOL    HW237154   2.887   3.198   5.266
11753SOL     OW37155   5.701   9.334   7.979
11753SOL    HW137156   5.646   9.393   8.032
11753SOL    HW237157   5.691   9.365   7.890
11754SOL     OW37158   2.624   4.184   3.347
11754SOL    HW137159   2.598   4.208   3.436
11754SOL    HW237160   2.663   4.263   3.311
11755SOL     OW37161   6.234   1.345   3.105
11755SOL    HW137162   6.264   1.424   3.062
11755SOL    HW237163   6.309   1.314   3.155
11756SOL     OW37164   5.791   8.873  12.896
11756SOL    HW137165   5.783   8.787  12.855
11756SOL    HW237166   5.884   8.893  12.893
11757SOL     OW37167   7.004   5.222   2.481
11757SOL    HW137168   7.039   5.311   2.476
11757SOL    HW237169   6.911   5.233   2.461
11758SOL     OW37170  11.645   9.936   4.761
11758SOL    HW137171  11.653   9.877   4.687
11758SOL    HW237172  11.636   9.879   4.837
11759SOL     OW37173   0.404   4.493   1.226
11759SOL    HW137174   0.464   4.495   1.301
11759SOL    HW237175   0.384   4.585   1.209
11760SOL     OW37176  13.225   3.854   6.870
11760SOL    HW137177  13.152   3.847   6.930
11760SOL    HW237178  13.266   3.938   6.891
11761SOL     OW37179   7.249   0.578   7.703
11761SOL    HW137180   7.174   0.636   7.710
11761SOL    HW237181   7.226   0.502   7.756
11762SOL     OW37182  14.833  11.449   8.171
11762SOL    HW137183  14.869  11.420   8.255
11762SOL    HW237184   0.018  11.507   8.135
11763SOL     OW37185  11.722  11.737   9.447
11763SOL    HW137186  11.699  11.739   9.540
11763SOL    HW237187  11.769  11.655   9.436
11764SOL     OW37188   1.535  12.878  10.452
11764SOL    HW137189   1.555  12.905  10.542
11764SOL    HW237190   1.533  12.782  10.456
11765SOL     OW37191   5.591   7.263  11.790
11765SOL    HW137192   5.577   7.208  11.713
11765SOL    HW237193   5.564   7.350  11.762
11766SOL     OW37194   9.719   2.020  13.999
11766SOL    HW137195   9.802   2.068  14.002
11766SOL    HW237196   9.686   2.035  13.910
11767SOL     OW37197   1.199   2.303   4.061
11767SOL    HW137198   1.198   2.390   4.101
11767SOL    HW237199   1.114   2.296   4.018
11768SOL     OW37200   8.897  10.069   5.851
11768SOL    HW137201   8.843  10.091   5.774
11768SOL    HW237202   8.835  10.032   5.914
11769SOL     OW37203   6.771   2.124  12.027
11769SOL    HW137204   6.690   2.175  12.031
11769SOL    HW237205   6.807   2.129  12.116
11770SOL     OW37206   6.290   9.440  11.603
11770SOL    HW137207   6.376   9.400  11.616
11770SOL    HW237208   6.301   9.530  11.634
11771SOL     OW37209   6.443   3.131   9.166
11771SOL    HW137210   6.399   3.213   9.144
11771SOL    HW237211   6.501   3.114   9.092
11772SOL     OW37212   0.535  12.413   9.413
11772SOL    HW137213   0.609  12.369   9.370
11772SOL    HW237214   0.527  12.369   9.498
11773SOL     OW37215   6.433   2.864  12.251
11773SOL    HW137216   6.373   2.803  12.294
11773SOL    HW237217   6.378   2.914  12.191
11774SOL     OW37218   4.061   4.125  11.256
11774SOL    HW137219   4.106   4.206  11.281
11774SOL    HW237220   3.971   4.152  11.237
11775SOL     OW37221  14.614  11.887  11.756
11775SOL    HW137222  14.601  11.979  11.778
11775SOL    HW237223  14.682  11.889  11.688
11776SOL     OW37224   6.994  11.711  10.106
11776SOL    HW137225   6.912  11.712  10.156
11776SOL    HW237226   7.009  11.802  10.083
11777SOL     OW37227  12.974   3.006   5.507
11777SOL    HW137228  12.900   3.056   5.471
11777SOL    HW237229  12.948   2.985   5.596
11778SOL     OW37230   4.899   8.919   7.831
11778SOL    HW137231   4.855   8.869   7.900
11778SOL    HW237232   4.984   8.942   7.869
11779SOL     OW37233   5.984   0.284  12.895
11779SOL    HW137234   5.939   0.202  12.914
11779SOL    HW237235   5.992   0.327  12.980
11780SOL     OW37236   9.008   6.982  14.037
11780SOL    HW137237   9.053   6.931  13.970
11780SOL    HW237238   8.987   6.918  14.106
11781SOL     OW37239   8.100  12.455  10.103
11781SOL    HW137240   8.167  12.519  10.080
11781SOL    HW237241   8.017  12.498  10.084
11782SOL     OW37242   7.160   0.933   0.029
11782SOL    HW137243   7.115   0.850   0.049
11782SOL    HW237244   7.157   0.982   0.111
11783SOL     OW37245  11.358  11.148   5.579
11783SOL    HW137246  11.319  11.144   5.491
11783SOL    HW237247  11.428  11.213   5.571
11784SOL     OW37248   1.905   9.552   1.899
11784SOL    HW137249   1.925   9.463   1.868
11784SOL    HW237250   1.979   9.605   1.869
11785SOL     OW37251   7.862   3.087  14.582
11785SOL    HW137252   7.798   3.094  14.511
11785SOL    HW237253   7.816   3.042  14.652
11786SOL     OW37254   6.160  12.648   1.125
11786SOL    HW137255   6.229  12.677   1.184
11786SOL    HW237256   6.091  12.614   1.182
11787SOL     OW37257  12.107   2.504  11.706
11787SOL    HW137258  12.194   2.465  11.709
11787SOL    HW237259  12.062   2.457  11.636
11788SOL     OW37260  10.586   2.582   5.314
11788SOL    HW137261  10.527   2.536   5.254
11788SOL    HW237262  10.574   2.675   5.292
11789SOL     OW37263   2.735   3.949   0.767
11789SOL    HW137264   2.782   3.989   0.694
11789SOL    HW237265   2.655   4.002   0.776
11790SOL     OW37266   0.961   2.919  14.481
11790SOL    HW137267   0.971   2.867  14.561
11790SOL    HW237268   1.008   3.000  14.500
11791SOL     OW37269   2.783  10.292  11.520
11791SOL    HW137270   2.711  10.342  11.558
11791SOL    HW237271   2.829  10.354  11.464
11792SOL     OW37272   2.807  10.993   1.286
11792SOL    HW137273   2.741  10.951   1.341
11792SOL    HW237274   2.869  10.923   1.267
11793SOL     OW37275   8.934   4.548   4.945
11793SOL    HW137276   8.976   4.561   5.030
11793SOL    HW237277   8.850   4.593   4.953
11794SOL     OW37278  13.376   0.724   8.690
11794SOL    HW137279  13.374   0.629   8.679
11794SOL    HW237280  13.386   0.758   8.601
11795SOL     OW37281  14.190  13.874   4.817
11795SOL    HW137282  14.260  13.830   4.769
11795SOL    HW237283  14.109  13.833   4.786
11796SOL     OW37284   7.455   0.240   7.243
11796SOL    HW137285   7.397   0.213   7.172
11796SOL    HW237286   7.543   0.221   7.211
11797SOL     OW37287   3.679  12.030  10.604
11797SOL    HW137288   3.630  12.021  10.522
11797SOL    HW237289   3.651  11.955  10.657
11798SOL     OW37290   6.470   9.756   4.182
11798SOL    HW137291   6.557   9.789   4.160
11798SOL    HW237292   6.480   9.719   4.270
11799SOL     OW37293   7.853   6.417  11.474
11799SOL    HW137294   7.900   6.392  11.394
11799SOL    HW237295   7.894   6.366  11.543
11800SOL     OW37296   3.839   8.778  13.120
11800SOL    HW137297   3.886   8.717  13.176
11800SOL    HW237298   3.820   8.853  13.176
11801SOL     OW37299   0.921   3.367  14.876
11801SOL    HW137300   0.944   3.417   0.072
11801SOL    HW237301   0.885   3.432  14.815
11802SOL     OW37302  12.069   7.069   0.471
11802SOL    HW137303  12.107   6.983   0.489
11802SOL    HW237304  12.020   7.057   0.390
11803SOL     OW37305   6.363  14.719   1.320
11803SOL    HW137306   6.393  14.770   1.395
11803SOL    HW237307   6.395  14.630   1.338
11804SOL     OW37308   8.845  11.138  10.209
11804SOL    HW137309   8.925  11.160  10.257
11804SOL    HW237310   8.774  11.163  10.268
11805SOL     OW37311   5.173  10.543  10.666
11805SOL    HW137312   5.239  10.561  10.732
11805SOL    HW237313   5.191  10.607  10.597
11806SOL     OW37314   6.200   3.963   3.575
11806SOL    HW137315   6.203   3.987   3.483
11806SOL    HW237316   6.154   4.035   3.618
11807SOL     OW37317   3.655  10.591   8.774
11807SOL    HW137318   3.722  10.637   8.825
11807SOL    HW237319   3.604  10.661   8.733
11808SOL     OW37320   1.580  14.230   2.134
11808SOL    HW137321   1.612  14.301   2.189
11808SOL    HW237322   1.562  14.271   2.050
11809SOL     OW37323  12.715  12.051   5.244
11809SOL    HW137324  12.623  12.079   5.238
11809SOL    HW237325  12.712  11.957   5.224
11810SOL     OW37326  11.017   1.208   0.043
11810SOL    HW137327  11.067   1.230   0.121
11810SOL    HW237328  10.926   1.204   0.072
11811SOL     OW37329  12.258  14.620   8.409
11811SOL    HW137330  12.196  14.557   8.446
11811SOL    HW237331  12.343  14.596   8.448
11812SOL     OW37332   9.023   0.476   6.330
11812SOL    HW137333   8.938   0.495   6.371
11812SOL    HW237334   9.062   0.562   6.316
11813SOL     OW37335  13.603   7.007  10.650
11813SOL    HW137336  13.531   7.068  10.666
11813SOL    HW237337  13.652   7.047  10.579
11814SOL     OW37338  11.054   2.355   1.726
11814SOL    HW137339  10.980   2.345   1.666
11814SOL    HW237340  11.073   2.448   1.725
11815SOL     OW37341  13.655   4.654   2.629
11815SOL    HW137342  13.566   4.686   2.617
11815SOL    HW237343  13.692   4.653   2.541
11816SOL     OW37344   1.383   4.989  11.280
11816SOL    HW137345   1.288   4.994  11.293
11816SOL    HW237346   1.418   4.970  11.367
11817SOL     OW37347   7.457  14.193   6.268
11817SOL    HW137348   7.434  14.254   6.198
11817SOL    HW237349   7.538  14.152   6.237
11818SOL     OW37350   1.764  12.047   2.253
11818SOL    HW137351   1.720  11.982   2.310
11818SOL    HW237352   1.791  11.997   2.176
11819SOL     OW37353   7.863  12.293   3.122
11819SOL    HW137354   7.769  12.299   3.141
11819SOL    HW237355   7.868  12.233   3.047
11820SOL     OW37356   0.981   4.406   0.384
11820SOL    HW137357   1.063   4.368   0.353
11820SOL    HW237358   1.009   4.473   0.447
11821SOL     OW37359   1.890   7.743   4.829
11821SOL    HW137360   1.905   7.835   4.805
11821SOL    HW237361   1.966   7.696   4.794
11822SOL     OW37362   9.894   4.757   5.233
11822SOL    HW137363   9.943   4.683   5.197
11822SOL    HW237364   9.957   4.804   5.287
11823SOL     OW37365   0.612   1.020   6.166
11823SOL    HW137366   0.602   1.110   6.198
11823SOL    HW237367   0.559   0.967   6.226
11824SOL     OW37368   6.471   6.124  11.735
11824SOL    HW137369   6.437   6.184  11.668
11824SOL    HW237370   6.474   6.177  11.814
11825SOL     OW37371   5.065   7.143  14.241
11825SOL    HW137372   5.115   7.071  14.201
11825SOL    HW237373   5.119   7.171  14.315
11826SOL     OW37374   5.316   0.978  11.748
11826SOL    HW137375   5.310   0.883  11.746
11826SOL    HW237376   5.337   1.003  11.658
11827SOL     OW37377   9.113  10.550   7.967
11827SOL    HW137378   9.082  10.546   7.876
11827SOL    HW237379   9.132  10.459   7.990
11828SOL     OW37380  11.449  14.482  14.260
11828SOL    HW137381  11.476  14.567  14.294
11828SOL    HW237382  11.418  14.501  14.171
11829SOL     OW37383   1.748  13.313   5.056
11829SOL    HW137384   1.706  13.258   4.990
11829SOL    HW237385   1.704  13.398   5.047
11830SOL     OW37386  10.581  14.031  10.390
11830SOL    HW137387  10.674  14.053  10.401
11830SOL    HW237388  10.547  14.027  10.479
11831SOL     OW37389  10.134  13.987   7.368
11831SOL    HW137390  10.045  14.002   7.337
11831SOL    HW237391  10.135  14.025   7.456
11832SOL     OW37392   5.685   1.838   2.131
11832SOL    HW137393   5.738   1.766   2.163
11832SOL    HW237394   5.717   1.915   2.178
11833SOL     OW37395   6.570   9.634  11.353
11833SOL    HW137396   6.552   9.724  11.323
11833SOL    HW237397   6.485   9.592  11.354
11834SOL     OW37398   6.173   2.003   8.332
11834SOL    HW137399   6.177   2.098   8.345
11834SOL    HW237400   6.172   1.967   8.421
11835SOL     OW37401   0.976  11.679   8.873
11835SOL    HW137402   0.966  11.584   8.879
11835SOL    HW237403   1.070  11.694   8.884
11836SOL     OW37404   9.376   8.323   1.156
11836SOL    HW137405   9.421   8.258   1.211
11836SOL    HW237406   9.339   8.385   1.218
11837SOL     OW37407   4.872   8.968   4.604
11837SOL    HW137408   4.960   9.000   4.586
11837SOL    HW237409   4.817   9.010   4.537
11838SOL     OW37410   9.622   9.715   9.964
11838SOL    HW137411   9.686   9.764  10.015
11838SOL    HW237412   9.593   9.645  10.021
11839SOL     OW37413  12.041  13.786  12.579
11839SOL    HW137414  11.953  13.811  12.549
11839SOL    HW237415  12.036  13.791  12.674
11840SOL     OW37416   4.048   2.063   5.307
11840SOL    HW137417   4.086   1.996   5.364
11840SOL    HW237418   4.111   2.072   5.235
11841SOL     OW37419   5.125  11.531  11.772
11841SOL    HW137420   5.205  11.558  11.726
11841SOL    HW237421   5.064  11.512  11.702
11842SOL     OW37422   7.163  11.248   5.438
11842SOL    HW137423   7.107  11.258   5.361
11842SOL    HW237424   7.107  11.201   5.501
11843SOL     OW37425  12.872  14.035  13.122
11843SOL    HW137426  12.813  14.109  13.116
11843SOL    HW237427  12.956  14.073  13.149
11844SOL     OW37428   3.299  11.576   4.049
11844SOL    HW137429   3.255  11.491   4.045
11844SOL    HW237430   3.338  11.587   3.962
11845SOL     OW37431   1.031   5.717   1.689
11845SOL    HW137432   1.071   5.640   1.648
11845SOL    HW237433   1.069   5.791   1.643
11846SOL     OW37434  13.359   8.087   8.542
11846SOL    HW137435  13.414   8.008   8.550
11846SOL    HW237436  13.377   8.136   8.623
11847SOL     OW37437   8.490  14.686  12.299
11847SOL    HW137438   8.551  14.757  12.315
11847SOL    HW237439   8.538  14.625  12.243
11848SOL     OW37440   7.396   7.953  13.297
11848SOL    HW137441   7.406   8.024  13.233
11848SOL    HW237442   7.378   7.998  13.379
11849SOL     OW37443  12.094   3.658   7.969
11849SOL    HW137444  12.141   3.605   8.034
11849SOL    HW237445  12.052   3.727   8.020
11850SOL     OW37446   2.359   0.658   4.330
11850SOL    HW137447   2.376   0.726   4.394
11850SOL    HW237448   2.378   0.576   4.376
11851SOL     OW37449  13.890   6.319  13.458
11851SOL    HW137450  13.835   6.369  13.518
11851SOL    HW237451  13.833   6.299  13.384
11852SOL     OW37452   1.812   2.049   6.062
11852SOL    HW137453   1.792   2.139   6.036
11852SOL    HW237454   1.772   2.040   6.148
11853SOL     OW37455  13.304  14.513  11.535
11853SOL    HW137456  13.294  14.428  11.491
11853SOL    HW237457  13.215  14.543  11.552
11854SOL     OW37458   1.387  12.122   4.542
11854SOL    HW137459   1.447  12.152   4.610
11854SOL    HW237460   1.316  12.186   4.542
11855SOL     OW37461  12.413  14.130   8.197
11855SOL    HW137462  12.474  14.062   8.225
11855SOL    HW237463  12.336  14.117   8.252
11856SOL     OW37464  13.616   6.726   3.000
11856SOL    HW137465  13.551   6.681   3.053
11856SOL    HW237466  13.681   6.658   2.978
11857SOL     OW37467   9.914  13.574   7.717
11857SOL    HW137468   9.897  13.507   7.651
11857SOL    HW237469   9.852  13.644   7.697
11858SOL     OW37470   4.109  12.627   0.958
11858SOL    HW137471   4.020  12.608   0.927
11858SOL    HW237472   4.119  12.573   1.036
11859SOL     OW37473  10.921   9.519   9.979
11859SOL    HW137474  10.867   9.452   9.937
11859SOL    HW237475  11.000   9.473  10.007
11860SOL     OW37476  13.984  10.243  13.711
11860SOL    HW137477  13.929  10.187  13.656
11860SOL    HW237478  14.052  10.184  13.745
11861SOL     OW37479   2.995   1.180  14.854
11861SOL    HW137480   2.998   1.218   0.059
11861SOL    HW237481   3.019   1.252  14.795
11862SOL     OW37482   5.925   3.164   9.744
11862SOL    HW137483   5.834   3.146   9.764
11862SOL    HW237484   5.932   3.259   9.748
11863SOL     OW37485  10.993  12.253   1.529
11863SOL    HW137486  10.952  12.177   1.489
11863SOL    HW237487  10.920  12.306   1.560
11864SOL     OW37488   5.690   2.650   6.729
11864SOL    HW137489   5.729   2.686   6.649
11864SOL    HW237490   5.625   2.587   6.699
11865SOL     OW37491   6.334   8.113   1.131
11865SOL    HW137492   6.407   8.095   1.189
11865SOL    HW237493   6.265   8.147   1.189
11866SOL     OW37494   3.994   7.470   8.156
11866SOL    HW137495   4.006   7.565   8.155
11866SOL    HW237496   4.025   7.441   8.070
11867SOL     OW37497   3.038   1.279   5.955
11867SOL    HW137498   2.980   1.295   5.881
11867SOL    HW237499   2.985   1.299   6.032
11868SOL     OW37500   6.915   8.806   4.416
11868SOL    HW137501   6.881   8.775   4.332
11868SOL    HW237502   7.007   8.826   4.400
11869SOL     OW37503   4.337   1.390   3.470
11869SOL    HW137504   4.409   1.428   3.421
11869SOL    HW237505   4.368   1.387   3.560
11870SOL     OW37506   0.766   9.175  13.302
11870SOL    HW137507   0.860   9.154  13.295
11870SOL    HW237508   0.733   9.116  13.369
11871SOL     OW37509   8.955   1.464   8.803
11871SOL    HW137510   9.027   1.519   8.772
11871SOL    HW237511   8.997   1.383   8.831
11872SOL     OW37512   5.927  14.169   7.575
11872SOL    HW137513   5.852  14.222   7.550
11872SOL    HW237514   5.942  14.189   7.667
11873SOL     OW37515  12.676   5.426  10.864
11873SOL    HW137516  12.639   5.507  10.899
11873SOL    HW237517  12.622   5.357  10.903
11874SOL     OW37518   2.877   8.822  10.023
11874SOL    HW137519   2.927   8.826  10.105
11874SOL    HW237520   2.793   8.862  10.045
11875SOL     OW37521   1.456   2.476   0.490
11875SOL    HW137522   1.537   2.524   0.473
11875SOL    HW237523   1.483   2.403   0.545
11876SOL     OW37524   5.457   2.080  12.905
11876SOL    HW137525   5.363   2.092  12.917
11876SOL    HW237526   5.465   2.037  12.820
11877SOL     OW37527   0.160  10.451   8.999
11877SOL    HW137528   0.158  10.472   9.092
11877SOL    HW237529   0.072  10.418   8.980
11878SOL     OW37530   1.633   2.195   0.899
11878SOL    HW137531   1.657   2.148   0.820
11878SOL    HW237532   1.673   2.282   0.888
11879SOL     OW37533  14.647   2.150   5.556
11879SOL    HW137534  14.614   2.113   5.474
11879SOL    HW237535  14.618   2.089   5.623
11880SOL     OW37536   9.502   6.679   0.963
11880SOL    HW137537   9.582   6.628   0.981
11880SOL    HW237538   9.501   6.690   0.868
11881SOL     OW37539  12.484   7.965   3.219
11881SOL    HW137540  12.453   7.874   3.217
11881SOL    HW237541  12.484   7.989   3.312
11882SOL     OW37542  14.806  13.418   7.504
11882SOL    HW137543  14.851  13.470   7.570
11882SOL    HW237544  14.802  13.330   7.541
11883SOL     OW37545  14.008  14.589   2.467
11883SOL    HW137546  14.084  14.537   2.440
11883SOL    HW237547  14.045  14.675   2.486
11884SOL     OW37548   3.594  13.588   7.590
11884SOL    HW137549   3.580  13.494   7.590
11884SOL    HW237550   3.563  13.617   7.504
11885SOL     OW37551   8.519   4.671   7.540
11885SOL    HW137552   8.601   4.660   7.492
11885SOL    HW237553   8.539   4.642   7.629
11886SOL     OW37554  11.703   9.175   2.638
11886SOL    HW137555  11.678   9.267   2.652
11886SOL    HW237556  11.726   9.171   2.545
11887SOL     OW37557  12.983   6.754   1.322
11887SOL    HW137558  13.007   6.714   1.238
11887SOL    HW237559  13.066   6.785   1.358
11888SOL     OW37560   6.344   1.715  10.875
11888SOL    HW137561   6.381   1.794  10.914
11888SOL    HW237562   6.414   1.650  10.885
11889SOL     OW37563   8.768  11.482   7.452
11889SOL    HW137564   8.844  11.425   7.467
11889SOL    HW237565   8.805  11.559   7.408
11890SOL     OW37566   7.494  11.009   8.221
11890SOL    HW137567   7.553  10.968   8.157
11890SOL    HW237568   7.509  10.960   8.302
11891SOL     OW37569  12.271  12.473   3.326
11891SOL    HW137570  12.279  12.554   3.376
11891SOL    HW237571  12.201  12.424   3.370
11892SOL     OW37572   6.468   3.926   6.681
11892SOL    HW137573   6.487   3.918   6.588
11892SOL    HW237574   6.430   3.842   6.705
11893SOL     OW37575   4.120  12.019  13.637
11893SOL    HW137576   4.175  12.031  13.559
11893SOL    HW237577   4.182  12.015  13.709
11894SOL     OW37578  10.507   8.632  14.629
11894SOL    HW137579  10.433   8.691  14.644
11894SOL    HW237580  10.507   8.573  14.704
11895SOL     OW37581   9.247   6.602   6.059
11895SOL    HW137582   9.228   6.547   6.136
11895SOL    HW237583   9.241   6.691   6.092
11896SOL     OW37584  10.365   4.806  12.734
11896SOL    HW137585  10.397   4.723  12.699
11896SOL    HW237586  10.411   4.815  12.818
11897SOL     OW37587   3.032  13.458  10.064
11897SOL    HW137588   3.056  13.525   9.999
11897SOL    HW237589   3.114  13.436  10.107
11898SOL     OW37590   7.204   4.161  12.658
11898SOL    HW137591   7.174   4.247  12.630
11898SOL    HW237592   7.221   4.114  12.577
11899SOL     OW37593  10.760   5.514  12.103
11899SOL    HW137594  10.713   5.436  12.076
11899SOL    HW237595  10.694   5.584  12.101
11900SOL     OW37596  10.641   7.284   4.788
11900SOL    HW137597  10.639   7.200   4.835
11900SOL    HW237598  10.650   7.349   4.857
11901SOL     OW37599   4.314   8.268   5.318
11901SOL    HW137600   4.334   8.358   5.345
11901SOL    HW237601   4.227   8.273   5.278
11902SOL     OW37602  10.772   1.658   5.372
11902SOL    HW137603  10.755   1.575   5.417
11902SOL    HW237604  10.807   1.633   5.287
11903SOL     OW37605  14.280   8.559  11.171
11903SOL    HW137606  14.201   8.526  11.129
11903SOL    HW237607  14.325   8.609  11.102
11904SOL     OW37608   8.832   9.170  13.174
11904SOL    HW137609   8.904   9.228  13.150
11904SOL    HW237610   8.872   9.083  13.179
11905SOL     OW37611   4.106  11.131   3.395
11905SOL    HW137612   4.134  11.219   3.371
11905SOL    HW237613   4.156  11.111   3.474
11906SOL     OW37614   1.267   0.770   6.349
11906SOL    HW137615   1.222   0.841   6.396
11906SOL    HW237616   1.342   0.813   6.307
11907SOL     OW37617   1.359   3.614   0.343
11907SOL    HW137618   1.279   3.656   0.375
11907SOL    HW237619   1.330   3.529   0.309
11908SOL     OW37620   4.237   5.898   5.380
11908SOL    HW137621   4.236   5.975   5.437
11908SOL    HW237622   4.296   5.837   5.423
11909SOL     OW37623   6.045   4.237   2.403
11909SOL    HW137624   6.131   4.275   2.421
11909SOL    HW237625   6.055   4.191   2.321
11910SOL     OW37626   6.847   2.280   5.344
11910SOL    HW137627   6.810   2.199   5.310
11910SOL    HW237628   6.940   2.261   5.357
11911SOL     OW37629  14.514   0.976  13.561
11911SOL    HW137630  14.515   1.063  13.602
11911SOL    HW237631  14.496   0.992  13.469
11912SOL     OW37632  10.988   3.331  14.376
11912SOL    HW137633  11.030   3.376  14.449
11912SOL    HW237634  10.996   3.238  14.397
11913SOL     OW37635  14.390   1.069  11.363
11913SOL    HW137636  14.394   0.973  11.362
11913SOL    HW237637  14.406   1.094  11.272
11914SOL     OW37638   4.190  11.834   0.176
11914SOL    HW137639   4.165  11.810   0.086
11914SOL    HW237640   4.276  11.874   0.166
11915SOL     OW37641   0.620   1.639  10.495
11915SOL    HW137642   0.563   1.701  10.448
11915SOL    HW237643   0.560   1.582  10.542
11916SOL     OW37644   2.511  11.960   6.385
11916SOL    HW137645   2.607  11.960   6.391
11916SOL    HW237646   2.489  11.871   6.358
11917SOL     OW37647   0.203  13.491   2.443
11917SOL    HW137648   0.157  13.540   2.374
11917SOL    HW237649   0.222  13.406   2.402
11918SOL     OW37650   3.325   6.398   5.768
11918SOL    HW137651   3.242   6.353   5.754
11918SOL    HW237652   3.334   6.457   5.693
11919SOL     OW37653  12.532   8.997   2.444
11919SOL    HW137654  12.615   8.999   2.398
11919SOL    HW237655  12.491   9.082   2.425
11920SOL     OW37656   7.581   5.055   0.096
11920SOL    HW137657   7.673   5.038   0.116
11920SOL    HW237658   7.555   5.122   0.159
11921SOL     OW37659   1.558   5.909  13.896
11921SOL    HW137660   1.635   5.858  13.871
11921SOL    HW237661   1.512   5.855  13.961
11922SOL     OW37662  12.885   5.488   8.123
11922SOL    HW137663  12.960   5.451   8.171
11922SOL    HW237664  12.892   5.582   8.139
11923SOL     OW37665   7.459  10.431   8.262
11923SOL    HW137666   7.499  10.358   8.308
11923SOL    HW237667   7.454  10.403   8.171
11924SOL     OW37668  11.543  11.800   8.907
11924SOL    HW137669  11.472  11.745   8.872
11924SOL    HW237670  11.577  11.750   8.981
11925SOL     OW37671   5.649  10.259  10.513
11925SOL    HW137672   5.663  10.205  10.591
11925SOL    HW237673   5.736  10.274  10.479
11926SOL     OW37674   4.564   0.094   7.853
11926SOL    HW137675   4.652   0.068   7.826
11926SOL    HW237676   4.572   0.187   7.875
11927SOL     OW37677   6.167   3.578   9.743
11927SOL    HW137678   6.156   3.664   9.784
11927SOL    HW237679   6.234   3.592   9.676
11928SOL     OW37680  14.682   1.051   1.421
11928SOL    HW137681  14.675   1.039   1.327
11928SOL    HW237682  14.591   1.061   1.451
11929SOL     OW37683  14.075   1.057  11.062
11929SOL    HW137684  14.039   1.034  10.976
11929SOL    HW237685  14.101   1.149  11.054
11930SOL     OW37686  14.114   0.544   6.353
11930SOL    HW137687  14.162   0.467   6.323
11930SOL    HW237688  14.067   0.513   6.431
11931SOL     OW37689   2.585   5.621  13.690
11931SOL    HW137690   2.632   5.622  13.773
11931SOL    HW237691   2.493   5.634  13.714
11932SOL     OW37692  10.967  12.989  12.234
11932SOL    HW137693  11.001  12.912  12.279
11932SOL    HW237694  10.963  13.057  12.301
11933SOL     OW37695   6.275   4.941   9.916
11933SOL    HW137696   6.227   4.963   9.837
11933SOL    HW237697   6.299   4.849   9.906
11934SOL     OW37698  11.945  11.238   7.948
11934SOL    HW137699  11.924  11.259   7.857
11934SOL    HW237700  12.033  11.201   7.945
11935SOL     OW37701   4.246  10.128   8.735
11935SOL    HW137702   4.239  10.033   8.742
11935SOL    HW237703   4.339  10.146   8.748
11936SOL     OW37704   3.240  12.152   0.072
11936SOL    HW137705   3.184  12.230   0.075
11936SOL    HW237706   3.239  12.118   0.161
11937SOL     OW37707   0.801   7.580   5.458
11937SOL    HW137708   0.792   7.520   5.532
11937SOL    HW237709   0.878   7.550   5.410
11938SOL     OW37710   7.120  10.913   0.021
11938SOL    HW137711   7.094  10.944   0.107
11938SOL    HW237712   7.081  10.976  14.842
11939SOL     OW37713   9.462   4.797  13.272
11939SOL    HW137714   9.388   4.856  13.260
11939SOL    HW237715   9.478   4.796  13.366
11940SOL     OW37716  11.955   0.157  11.498
11940SOL    HW137717  11.924   0.075  11.458
11940SOL    HW237718  11.874   0.204  11.520
11941SOL     OW37719   3.107   9.606   3.059
11941SOL    HW137720   3.107   9.539   2.991
11941SOL    HW237721   3.182   9.662   3.038
11942SOL     OW37722   3.278   8.600   5.044
11942SOL    HW137723   3.275   8.589   4.949
11942SOL    HW237724   3.346   8.667   5.057
11943SOL     OW37725   0.253  13.364   1.393
11943SOL    HW137726   0.245  13.396   1.483
11943SOL    HW237727   0.169  13.384   1.353
11944SOL     OW37728   4.793  14.653   7.964
11944SOL    HW137729   4.832  14.568   7.981
11944SOL    HW237730   4.770  14.686   8.051
11945SOL     OW37731  12.944   8.277   4.749
11945SOL    HW137732  12.877   8.239   4.806
11945SOL    HW237733  12.906   8.272   4.662
11946SOL     OW37734   0.384   2.885  13.998
11946SOL    HW137735   0.367   2.791  13.999
11946SOL    HW237736   0.381   2.911  14.090
11947SOL     OW37737  13.498   7.504  14.391
11947SOL    HW137738  13.553   7.432  14.421
11947SOL    HW237739  13.536   7.530  14.307
11948SOL     OW37740   6.708  12.067   3.688
11948SOL    HW137741   6.694  11.980   3.650
11948SOL    HW237742   6.792  12.096   3.651
11949SOL     OW37743  14.758   6.839   1.347
11949SOL    HW137744  14.800   6.755   1.330
11949SOL    HW237745  14.802   6.900   1.288
11950SOL     OW37746   4.497   3.664  14.396
11950SOL    HW137747   4.460   3.727  14.458
11950SOL    HW237748   4.457   3.686  14.312
11951SOL     OW37749  12.480   9.327   0.205
11951SOL    HW137750  12.445   9.243   0.176
11951SOL    HW237751  12.540   9.354   0.136
11952SOL     OW37752   5.865   4.207   3.009
11952SOL    HW137753   5.926   4.262   3.058
11952SOL    HW237754   5.836   4.141   3.071
11953SOL     OW37755   3.337   6.414   8.764
11953SOL    HW137756   3.413   6.411   8.706
11953SOL    HW237757   3.331   6.325   8.799
11954SOL     OW37758  14.517   2.654  13.828
11954SOL    HW137759  14.434   2.703  13.827
11954SOL    HW237760  14.492   2.565  13.803
11955SOL     OW37761   0.685   9.907  10.589
11955SOL    HW137762   0.592   9.904  10.611
11955SOL    HW237763   0.720   9.824  10.621
11956SOL     OW37764  12.313   9.402   1.493
11956SOL    HW137765  12.359   9.469   1.543
11956SOL    HW237766  12.220   9.420   1.507
11957SOL     OW37767   0.923   5.988   7.006
11957SOL    HW137768   0.941   6.004   6.914
11957SOL    HW237769   0.877   5.904   7.008
11958SOL     OW37770   4.551   9.374  10.211
11958SOL    HW137771   4.575   9.287  10.244
11958SOL    HW237772   4.588   9.434  10.275
11959SOL     OW37773   8.501  10.615  10.418
11959SOL    HW137774   8.459  10.575  10.342
11959SOL    HW237775   8.485  10.709  10.408
11960SOL     OW37776   1.275   6.365   8.672
11960SOL    HW137777   1.231   6.341   8.753
11960SOL    HW237778   1.223   6.325   8.602
11961SOL     OW37779   8.753  10.559   7.164
11961SOL    HW137780   8.788  10.529   7.080
11961SOL    HW237781   8.787  10.496   7.228
11962SOL     OW37782   7.919   4.560  12.508
11962SOL    HW137783   7.935   4.564  12.602
11962SOL    HW237784   7.861   4.484  12.497
11963SOL     OW37785   4.427  10.626  11.739
11963SOL    HW137786   4.488  10.616  11.666
11963SOL    HW237787   4.473  10.681  11.802
11964SOL     OW37788   6.847   0.490   5.530
11964SOL    HW137789   6.761   0.497   5.573
11964SOL    HW237790   6.890   0.573   5.548
11965SOL     OW37791   5.987   8.318  14.017
11965SOL    HW137792   5.922   8.388  14.016
11965SOL    HW237793   5.972   8.272  14.100
11966SOL     OW37794  10.785   7.899   4.780
11966SOL    HW137795  10.713   7.886   4.842
11966SOL    HW237796  10.842   7.824   4.793
11967SOL     OW37797   0.263   2.295   5.564
11967SOL    HW137798   0.242   2.355   5.492
11967SOL    HW237799   0.180   2.252   5.584
11968SOL     OW37800   5.040   9.296  10.212
11968SOL    HW137801   5.082   9.360  10.153
11968SOL    HW237802   5.005   9.350  10.283
11969SOL     OW37803   5.435   4.262  13.074
11969SOL    HW137804   5.462   4.317  13.147
11969SOL    HW237805   5.507   4.267  13.011
11970SOL     OW37806   6.382  11.219   4.513
11970SOL    HW137807   6.382  11.267   4.595
11970SOL    HW237808   6.422  11.135   4.534
11971SOL     OW37809  10.550   5.187   6.907
11971SOL    HW137810  10.461   5.170   6.937
11971SOL    HW237811  10.604   5.176   6.986
11972SOL     OW37812   2.160  14.779   2.904
11972SOL    HW137813   2.221  14.771   2.976
11972SOL    HW237814   2.088  14.832   2.940
11973SOL     OW37815   7.801   4.345   0.932
11973SOL    HW137816   7.799   4.420   0.872
11973SOL    HW237817   7.890   4.312   0.926
11974SOL     OW37818   3.310   5.225   2.758
11974SOL    HW137819   3.400   5.196   2.742
11974SOL    HW237820   3.318   5.319   2.771
11975SOL     OW37821   7.257  10.661   9.618
11975SOL    HW137822   7.178  10.714   9.613
11975SOL    HW237823   7.319  10.715   9.667
11976SOL     OW37824   8.286   8.086   9.949
11976SOL    HW137825   8.209   8.046   9.990
11976SOL    HW237826   8.308   8.027   9.877
11977SOL     OW37827   9.016  12.090   8.933
11977SOL    HW137828   8.986  12.156   8.871
11977SOL    HW237829   8.940  12.071   8.988
11978SOL     OW37830  11.066  10.511   8.072
11978SOL    HW137831  11.141  10.551   8.116
11978SOL    HW237832  11.087  10.516   7.979
11979SOL     OW37833   1.328   3.499   5.655
11979SOL    HW137834   1.295   3.589   5.662
11979SOL    HW237835   1.423   3.509   5.646
11980SOL     OW37836   9.632   4.437   0.246
11980SOL    HW137837   9.672   4.359   0.284
11980SOL    HW237838   9.666   4.442   0.157
11981SOL     OW37839   6.583  11.947  14.028
11981SOL    HW137840   6.506  11.983  13.985
11981SOL    HW237841   6.656  12.002  13.999
11982SOL     OW37842   1.125   9.048   3.255
11982SOL    HW137843   1.131   9.040   3.160
11982SOL    HW237844   1.154   8.963   3.288
11983SOL     OW37845   2.898   3.110  10.551
11983SOL    HW137846   2.957   3.142  10.482
11983SOL    HW237847   2.931   3.150  10.631
11984SOL     OW37848  11.470   9.966   3.118
11984SOL    HW137849  11.562   9.952   3.099
11984SOL    HW237850  11.456  10.060   3.103
11985SOL     OW37851   5.592   9.002   4.116
11985SOL    HW137852   5.592   9.015   4.021
11985SOL    HW237853   5.626   9.083   4.152
11986SOL     OW37854   2.524   5.107  14.867
11986SOL    HW137855   2.582   5.032  14.882
11986SOL    HW237856   2.481   5.121   0.070
11987SOL     OW37857   3.445   6.369   6.853
11987SOL    HW137858   3.490   6.289   6.825
11987SOL    HW237859   3.362   6.338   6.890
11988SOL     OW37860   3.039  13.796  13.240
11988SOL    HW137861   3.103  13.733  13.207
11988SOL    HW237862   3.028  13.860  13.169
11989SOL     OW37863   1.114  13.393   1.376
11989SOL    HW137864   1.034  13.399   1.428
11989SOL    HW237865   1.089  13.428   1.291
11990SOL     OW37866   0.651   7.704   4.747
11990SOL    HW137867   0.730   7.654   4.728
11990SOL    HW237868   0.675   7.759   4.822
11991SOL     OW37869   7.347   2.819   8.154
11991SOL    HW137870   7.435   2.789   8.131
11991SOL    HW237871   7.334   2.897   8.101
11992SOL     OW37872   1.426   2.899   2.128
11992SOL    HW137873   1.342   2.860   2.103
11992SOL    HW237874   1.441   2.968   2.063
11993SOL     OW37875   1.496   3.172   6.911
11993SOL    HW137876   1.503   3.172   6.815
11993SOL    HW237877   1.416   3.123   6.929
11994SOL     OW37878   2.233  10.040   5.605
11994SOL    HW137879   2.233  10.112   5.542
11994SOL    HW237880   2.277   9.968   5.560
11995SOL     OW37881   0.847   4.920  13.266
11995SOL    HW137882   0.860   5.002  13.314
11995SOL    HW237883   0.803   4.862  13.329
11996SOL     OW37884  11.334   9.694   9.837
11996SOL    HW137885  11.417   9.742   9.840
11996SOL    HW237886  11.348   9.618   9.894
11997SOL     OW37887  11.114  11.726   5.011
11997SOL    HW137888  11.201  11.694   4.987
11997SOL    HW237889  11.054  11.672   4.959
11998SOL     OW37890   6.324  10.273   2.062
11998SOL    HW137891   6.350  10.365   2.061
11998SOL    HW237892   6.375  10.233   1.991
11999SOL     OW37893  10.205   2.994   4.321
11999SOL    HW137894  10.197   2.936   4.397
11999SOL    HW237895  10.125   3.047   4.322
12000SOL     OW37896   7.902   7.836   1.281
12000SOL    HW137897   7.995   7.819   1.261
12000SOL    HW237898   7.893   7.931   1.269
12001SOL     OW37899   4.468  12.830   7.322
12001SOL    HW137900   4.533  12.777   7.369
12001SOL    HW237901   4.495  12.920   7.339
12002SOL     OW37902   0.476   2.310   2.699
12002SOL    HW137903   0.427   2.390   2.719
12002SOL    HW237904   0.463   2.254   2.776
12003SOL     OW37905   4.832   0.977  11.314
12003SOL    HW137906   4.822   0.904  11.253
12003SOL    HW237907   4.892   0.944  11.381
12004SOL     OW37908  14.643   5.728  13.419
12004SOL    HW137909  14.714   5.744  13.481
12004SOL    HW237910  14.575   5.685  13.471
12005SOL     OW37911   7.138  11.093   6.361
12005SOL    HW137912   7.125  11.167   6.302
12005SOL    HW237913   7.190  11.030   6.310
12006SOL     OW37914   0.772  14.788   9.319
12006SOL    HW137915   0.850  14.765   9.370
12006SOL    HW237916   0.779   0.001   9.306
12007SOL     OW37917   6.119   9.937  10.766
12007SOL    HW137918   6.189   9.962  10.705
12007SOL    HW237919   6.155   9.954  10.853
12008SOL     OW37920  14.092   6.742  12.470
12008SOL    HW137921  14.160   6.686  12.434
12008SOL    HW237922  14.012   6.717  12.423
12009SOL     OW37923  13.954  10.628   6.993
12009SOL    HW137924  14.043  10.633   7.029
12009SOL    HW237925  13.954  10.550   6.938
12010SOL     OW37926   1.566  12.170   4.812
12010SOL    HW137927   1.614  12.129   4.884
12010SOL    HW237928   1.618  12.150   4.734
12011SOL     OW37929  12.629   9.586   7.528
12011SOL    HW137930  12.722   9.590   7.504
12011SOL    HW237931  12.628   9.605   7.622
12012SOL     OW37932  11.243   0.688   6.679
12012SOL    HW137933  11.176   0.669   6.745
12012SOL    HW237934  11.199   0.674   6.595
12013SOL     OW37935   5.494   7.136   3.588
12013SOL    HW137936   5.429   7.125   3.518
12013SOL    HW237937   5.448   7.187   3.654
12014SOL     OW37938   9.188   2.291   9.542
12014SOL    HW137939   9.161   2.327   9.458
12014SOL    HW237940   9.120   2.227   9.565
12015SOL     OW37941   8.644   7.338   8.843
12015SOL    HW137942   8.664   7.255   8.885
12015SOL    HW237943   8.650   7.321   8.749
12016SOL     OW37944  11.607   8.910   1.151
12016SOL    HW137945  11.635   8.828   1.191
12016SOL    HW237946  11.684   8.942   1.104
12017SOL     OW37947   5.086   3.526   3.175
12017SOL    HW137948   5.008   3.561   3.219
12017SOL    HW237949   5.129   3.603   3.138
12018SOL     OW37950   5.660   6.392   9.623
12018SOL    HW137951   5.711   6.362   9.698
12018SOL    HW237952   5.570   6.398   9.655
12019SOL     OW37953   3.153   2.326  10.508
12019SOL    HW137954   3.068   2.342  10.469
12019SOL    HW237955   3.216   2.361  10.444
12020SOL     OW37956   3.027   7.594   8.035
12020SOL    HW137957   2.981   7.513   8.055
12020SOL    HW237958   3.004   7.653   8.107
12021SOL     OW37959  11.700  10.081  12.678
12021SOL    HW137960  11.743  10.127  12.606
12021SOL    HW237961  11.663  10.151  12.732
12022SOL     OW37962  11.877   6.034  13.976
12022SOL    HW137963  11.838   5.956  14.015
12022SOL    HW237964  11.819   6.057  13.903
12023SOL     OW37965   2.203  13.521   7.718
12023SOL    HW137966   2.285  13.561   7.748
12023SOL    HW237967   2.135  13.583   7.745
12024SOL     OW37968   7.898  10.890   1.666
12024SOL    HW137969   7.905  10.921   1.575
12024SOL    HW237970   7.825  10.940   1.702
12025SOL     OW37971  12.266  14.029  11.736
12025SOL    HW137972  12.250  14.104  11.794
12025SOL    HW237973  12.199  13.965  11.761
12026SOL     OW37974   2.932   7.064   0.325
12026SOL    HW137975   2.924   7.129   0.395
12026SOL    HW237976   2.852   7.074   0.273
12027SOL     OW37977   1.729   2.792  10.617
12027SOL    HW137978   1.758   2.794  10.525
12027SOL    HW237979   1.644   2.834  10.617
12028SOL     OW37980   0.414   8.191   4.639
12028SOL    HW137981   0.460   8.264   4.681
12028SOL    HW237982   0.377   8.141   4.711
12029SOL     OW37983  11.601   3.530   2.081
12029SOL    HW137984  11.553   3.576   2.013
12029SOL    HW237985  11.565   3.441   2.080
12030SOL     OW37986   0.768  13.796  10.517
12030SOL    HW137987   0.748  13.716  10.566
12030SOL    HW237988   0.748  13.867  10.578
12031SOL     OW37989   5.045  12.740   9.844
12031SOL    HW137990   5.095  12.695   9.912
12031SOL    HW237991   5.028  12.827   9.880
12032SOL     OW37992   3.712   4.631  10.873
12032SOL    HW137993   3.646   4.567  10.898
12032SOL    HW237994   3.675   4.715  10.898
12033SOL     OW37995   5.856   2.928   0.715
12033SOL    HW137996   5.940   2.970   0.734
12033SOL    HW237997   5.791   2.999   0.723
12034SOL     OW37998   1.636   8.320   7.325
12034SOL    HW137999   1.719   8.272   7.324
12034SOL    HW238000   1.647   8.387   7.258
12035SOL     OW38001   6.341   5.014   3.146
12035SOL    HW138002   6.418   4.966   3.117
12035SOL    HW238003   6.269   4.951   3.138
12036SOL     OW38004   1.896   7.449   6.321
12036SOL    HW138005   1.854   7.500   6.252
12036SOL    HW238006   1.850   7.364   6.319
12037SOL     OW38007   5.660   2.741   2.969
12037SOL    HW138008   5.645   2.689   3.048
12037SOL    HW238009   5.746   2.780   2.982
12038SOL     OW38010  10.576   0.712   1.715
12038SOL    HW138011  10.517   0.661   1.770
12038SOL    HW238012  10.556   0.803   1.737
12039SOL     OW38013  12.079   6.502   4.773
12039SOL    HW138014  12.111   6.584   4.811
12039SOL    HW238015  12.158   6.459   4.740
12040SOL     OW38016  11.140   1.994   7.209
12040SOL    HW138017  11.138   2.082   7.245
12040SOL    HW238018  11.101   1.939   7.277
12041SOL     OW38019   4.436   8.896   7.230
12041SOL    HW138020   4.499   8.858   7.290
12041SOL    HW238021   4.351   8.880   7.271
12042SOL     OW38022   4.276   8.289   1.398
12042SOL    HW138023   4.294   8.195   1.401
12042SOL    HW238024   4.315   8.324   1.479
12043SOL     OW38025   3.253   3.785   9.449
12043SOL    HW138026   3.290   3.764   9.363
12043SOL    HW238027   3.318   3.844   9.489
12044SOL     OW38028   2.894   4.383   4.184
12044SOL    HW138029   2.905   4.438   4.261
12044SOL    HW238030   2.967   4.406   4.127
12045SOL     OW38031   8.119   7.514   6.107
12045SOL    HW138032   8.117   7.493   6.014
12045SOL    HW238033   8.179   7.589   6.114
12046SOL     OW38034   9.055   6.611  13.820
12046SOL    HW138035   8.979   6.588  13.874
12046SOL    HW238036   9.129   6.572  13.865
12047SOL     OW38037   2.572   5.216   1.949
12047SOL    HW138038   2.564   5.155   1.875
12047SOL    HW238039   2.595   5.299   1.908
12048SOL     OW38040  14.869   4.010   4.620
12048SOL    HW138041  14.881   4.034   4.528
12048SOL    HW238042  14.819   4.083   4.657
12049SOL     OW38043   8.490  10.615   7.223
12049SOL    HW138044   8.489  10.706   7.250
12049SOL    HW238045   8.583  10.596   7.207
12050SOL     OW38046  14.246   7.368   8.454
12050SOL    HW138047  14.201   7.365   8.538
12050SOL    HW238048  14.301   7.446   8.458
12051SOL     OW38049   4.645  14.352   3.847
12051SOL    HW138050   4.569  14.296   3.831
12051SOL    HW238051   4.671  14.333   3.937
12052SOL     OW38052   7.539   3.695  11.125
12052SOL    HW138053   7.629   3.677  11.100
12052SOL    HW238054   7.502   3.608  11.144
12053SOL     OW38055   1.139   7.006   4.709
12053SOL    HW138056   1.188   7.088   4.717
12053SOL    HW238057   1.205   6.940   4.689
12054SOL     OW38058   3.736   0.535   3.356
12054SOL    HW138059   3.680   0.457   3.359
12054SOL    HW238060   3.713   0.585   3.434
12055SOL     OW38061   3.603   0.042  14.132
12055SOL    HW138062   3.634   0.076  14.048
12055SOL    HW238063   3.519   0.001  14.112
12056SOL     OW38064  12.964  14.399   3.536
12056SOL    HW138065  13.039  14.368   3.485
12056SOL    HW238066  12.920  14.319   3.566
12057SOL     OW38067  10.269   9.041   4.444
12057SOL    HW138068  10.225   8.963   4.409
12057SOL    HW238069  10.324   9.006   4.515
12058SOL     OW38070   6.910  11.457  13.450
12058SOL    HW138071   6.950  11.431  13.367
12058SOL    HW238072   6.819  11.428  13.443
12059SOL     OW38073  11.717  11.257   8.300
12059SOL    HW138074  11.709  11.341   8.345
12059SOL    HW238075  11.733  11.193   8.370
12060SOL     OW38076  11.077  13.682  10.190
12060SOL    HW138077  11.077  13.596  10.231
12060SOL    HW238078  11.123  13.738  10.253
12061SOL     OW38079   5.701  10.275   9.044
12061SOL    HW138080   5.662  10.253   9.128
12061SOL    HW238081   5.794  10.288   9.063
12062SOL     OW38082   2.224   3.839   3.816
12062SOL    HW138083   2.179   3.904   3.868
12062SOL    HW238084   2.242   3.883   3.733
12063SOL     OW38085   7.213   5.283  14.326
12063SOL    HW138086   7.231   5.354  14.387
12063SOL    HW238087   7.300   5.256  14.295
12064SOL     OW38088  12.131   6.186   4.522
12064SOL    HW138089  12.207   6.144   4.482
12064SOL    HW238090  12.070   6.199   4.449
12065SOL     OW38091   2.189   1.105   5.367
12065SOL    HW138092   2.281   1.103   5.393
12065SOL    HW238093   2.149   1.171   5.425
12066SOL     OW38094   4.377   8.135   3.370
12066SOL    HW138095   4.371   8.174   3.457
12066SOL    HW238096   4.349   8.045   3.382
12067SOL     OW38097   2.473   2.167   6.453
12067SOL    HW138098   2.381   2.191   6.466
12067SOL    HW238099   2.518   2.251   6.445
12068SOL     OW38100  13.881  13.833   8.031
12068SOL    HW138101  13.968  13.819   7.994
12068SOL    HW238102  13.823  13.836   7.955
12069SOL     OW38103   8.139   6.777   6.882
12069SOL    HW138104   8.149   6.870   6.899
12069SOL    HW238105   8.127   6.771   6.787
12070SOL     OW38106  13.006  11.967   5.860
12070SOL    HW138107  13.077  11.996   5.802
12070SOL    HW238108  13.052  11.929   5.935
12071SOL     OW38109  10.440  10.257   9.287
12071SOL    HW138110  10.445  10.197   9.361
12071SOL    HW238111  10.504  10.325   9.307
12072SOL     OW38112   4.423  11.442   8.062
12072SOL    HW138113   4.381  11.521   8.094
12072SOL    HW238114   4.431  11.456   7.967
12073SOL     OW38115  12.774   2.174  14.131
12073SOL    HW138116  12.735   2.091  14.107
12073SOL    HW238117  12.757   2.232  14.057
12074SOL     OW38118  10.440  10.433   0.684
12074SOL    HW138119  10.355  10.446   0.727
12074SOL    HW238120  10.438  10.490   0.608
12075SOL     OW38121   2.190   2.276  13.893
12075SOL    HW138122   2.249   2.202  13.909
12075SOL    HW238123   2.119   2.264  13.956
12076SOL     OW38124  13.437   7.562  13.627
12076SOL    HW138125  13.532   7.563  13.627
12076SOL    HW238126  13.412   7.654  13.622
12077SOL     OW38127  12.273   8.839  10.132
12077SOL    HW138128  12.207   8.836  10.201
12077SOL    HW238129  12.229   8.803  10.055
12078SOL     OW38130  14.636  11.247   8.138
12078SOL    HW138131  14.706  11.300   8.177
12078SOL    HW238132  14.555  11.289   8.169
12079SOL     OW38133   0.376  13.324   6.320
12079SOL    HW138134   0.349  13.300   6.231
12079SOL    HW238135   0.471  13.335   6.315
12080SOL     OW38136   6.153   3.191   8.637
12080SOL    HW138137   6.073   3.177   8.688
12080SOL    HW238138   6.222   3.196   8.703
12081SOL     OW38139  12.419   3.987   1.821
12081SOL    HW138140  12.469   4.017   1.897
12081SOL    HW238141  12.328   4.002   1.844
12082SOL     OW38142   5.901  13.093  12.961
12082SOL    HW138143   5.960  13.153  13.005
12082SOL    HW238144   5.959  13.032  12.915
12083SOL     OW38145  11.711  10.653  13.247
12083SOL    HW138146  11.690  10.738  13.287
12083SOL    HW238147  11.684  10.661  13.156
12084SOL     OW38148  10.787   0.764   8.926
12084SOL    HW138149  10.764   0.716   9.006
12084SOL    HW238150  10.715   0.826   8.914
12085SOL     OW38151  12.179   5.427   3.373
12085SOL    HW138152  12.114   5.362   3.401
12085SOL    HW238153  12.261   5.396   3.411
12086SOL     OW38154   3.034  12.934  11.034
12086SOL    HW138155   3.078  12.932  11.119
12086SOL    HW238156   3.052  12.848  10.995
12087SOL     OW38157  14.486   1.666  10.404
12087SOL    HW138158  14.522   1.614  10.476
12087SOL    HW238159  14.398   1.631  10.391
12088SOL     OW38160   3.790   2.240   1.436
12088SOL    HW138161   3.782   2.174   1.505
12088SOL    HW238162   3.840   2.311   1.476
12089SOL     OW38163   0.793   8.362  12.555
12089SOL    HW138164   0.871   8.362  12.499
12089SOL    HW238165   0.750   8.446  12.535
12090SOL     OW38166  14.807  10.707  13.755
12090SOL    HW138167  14.751  10.632  13.737
12090SOL    HW238168  14.844  10.731  13.670
12091SOL     OW38169   7.665   1.393   6.359
12091SOL    HW138170   7.665   1.487   6.344
12091SOL    HW238171   7.751   1.364   6.327
12092SOL     OW38172   7.385  10.559   5.739
12092SOL    HW138173   7.384  10.655   5.744
12092SOL    HW238174   7.352  10.539   5.652
12093SOL     OW38175   8.593   8.586  10.304
12093SOL    HW138176   8.670   8.606  10.358
12093SOL    HW238177   8.628   8.531  10.234
12094SOL     OW38178   5.599   4.344   3.145
12094SOL    HW138179   5.660   4.331   3.218
12094SOL    HW238180   5.516   4.367   3.186
12095SOL     OW38181  11.165   5.552   7.747
12095SOL    HW138182  11.246   5.538   7.698
12095SOL    HW238183  11.099   5.500   7.701
12096SOL     OW38184   9.270   2.301   7.962
12096SOL    HW138185   9.362   2.322   7.948
12096SOL    HW238186   9.271   2.232   8.028
12097SOL     OW38187   8.189   6.322   0.886
12097SOL    HW138188   8.224   6.238   0.916
12097SOL    HW238189   8.095   6.305   0.872
12098SOL     OW38190   7.034   0.263   0.875
12098SOL    HW138191   7.043   0.282   0.968
12098SOL    HW238192   7.111   0.210   0.854
12099SOL     OW38193  13.181  14.290  11.449
12099SOL    HW138194  13.142  14.251  11.371
12099SOL    HW238195  13.132  14.253  11.522
12100SOL     OW38196   6.555   9.705   6.918
12100SOL    HW138197   6.506   9.708   7.001
12100SOL    HW238198   6.643   9.678   6.944
12101SOL     OW38199   6.662   0.019   8.955
12101SOL    HW138200   6.624  14.857   8.879
12101SOL    HW238201   6.741  14.852   8.975
12102SOL     OW38202   3.516   6.742   0.378
12102SOL    HW138203   3.598   6.792   0.385
12102SOL    HW238204   3.452   6.807   0.346
12103SOL     OW38205  12.197   7.733   5.627
12103SOL    HW138206  12.248   7.765   5.552
12103SOL    HW238207  12.263   7.709   5.692
12104SOL     OW38208   4.873  10.389   7.407
12104SOL    HW138209   4.945  10.445   7.434
12104SOL    HW238210   4.827  10.439   7.340
12105SOL     OW38211  12.158  13.604   6.722
12105SOL    HW138212  12.206  13.639   6.647
12105SOL    HW238213  12.162  13.509   6.710
12106SOL     OW38214   1.242   3.164  10.751
12106SOL    HW138215   1.219   3.222  10.678
12106SOL    HW238216   1.175   3.096  10.750
12107SOL     OW38217  12.122  14.688   4.867
12107SOL    HW138218  12.133  14.595   4.887
12107SOL    HW238219  12.028  14.703   4.871
12108SOL     OW38220   7.264  12.480  14.494
12108SOL    HW138221   7.181  12.461  14.448
12108SOL    HW238222   7.298  12.394  14.518
12109SOL     OW38223   0.286   2.153   6.445
12109SOL    HW138224   0.214   2.214   6.461
12109SOL    HW238225   0.284   2.094   6.520
12110SOL     OW38226  14.801   5.839  14.797
12110SOL    HW138227  14.768   5.923  14.829
12110SOL    HW238228  14.731   5.777  14.817
12111SOL     OW38229   8.918   9.506  11.086
12111SOL    HW138230   8.946   9.464  11.005
12111SOL    HW238231   8.977   9.471  11.153
12112SOL     OW38232  12.522   8.312  14.542
12112SOL    HW138233  12.513   8.232  14.594
12112SOL    HW238234  12.433   8.336  14.518
12113SOL     OW38235   4.867   2.267   1.604
12113SOL    HW138236   4.880   2.208   1.679
12113SOL    HW238237   4.910   2.348   1.629
12114SOL     OW38238  13.827   1.831   4.550
12114SOL    HW138239  13.820   1.789   4.464
12114SOL    HW238240  13.900   1.892   4.543
12115SOL     OW38241   4.629  12.524   3.961
12115SOL    HW138242   4.651  12.432   3.976
12115SOL    HW238243   4.540  12.522   3.926
12116SOL     OW38244   2.646   7.016  12.904
12116SOL    HW138245   2.661   6.924  12.882
12116SOL    HW238246   2.657   7.021  12.999
12117SOL     OW38247   0.395   2.662   1.579
12117SOL    HW138248   0.479   2.633   1.614
12117SOL    HW238249   0.411   2.674   1.486
12118SOL     OW38250   9.603   5.227  11.597
12118SOL    HW138251   9.639   5.142  11.624
12118SOL    HW238252   9.508   5.214  11.596
12119SOL     OW38253   2.644   3.082   9.177
12119SOL    HW138254   2.606   3.169   9.169
12119SOL    HW238255   2.738   3.096   9.176
12120SOL     OW38256  10.842   9.089   2.762
12120SOL    HW138257  10.906   9.133   2.818
12120SOL    HW238258  10.819   9.009   2.810
12121SOL     OW38259  14.391  10.320  14.623
12121SOL    HW138260  14.354  10.396  14.578
12121SOL    HW238261  14.441  10.358  14.695
12122SOL     OW38262  11.798  12.958   0.364
12122SOL    HW138263  11.792  13.053   0.360
12122SOL    HW238264  11.800  12.931   0.272
12123SOL     OW38265   3.819   0.768  12.896
12123SOL    HW138266   3.874   0.843  12.920
12123SOL    HW238267   3.880   0.695  12.886
12124SOL     OW38268  14.437   2.899   3.484
12124SOL    HW138269  14.493   2.945   3.422
12124SOL    HW238270  14.350   2.900   3.443
12125SOL     OW38271   5.462   8.908  12.747
12125SOL    HW138272   5.520   8.934  12.675
12125SOL    HW238273   5.447   8.989  12.796
12126SOL     OW38274   9.542   5.182  13.924
12126SOL    HW138275   9.449   5.184  13.902
12126SOL    HW238276   9.545   5.199  14.018
12127SOL     OW38277   2.675   5.573   0.457
12127SOL    HW138278   2.664   5.605   0.368
12127SOL    HW238279   2.746   5.626   0.493
12128SOL     OW38280   1.152   2.340   7.674
12128SOL    HW138281   1.230   2.302   7.632
12128SOL    HW238282   1.090   2.268   7.680
12129SOL     OW38283   6.480   9.977  11.432
12129SOL    HW138284   6.414  10.026  11.382
12129SOL    HW238285   6.560  10.028  11.422
12130SOL     OW38286  14.329   8.445  14.835
12130SOL    HW138287  14.407   8.407  14.794
12130SOL    HW238288  14.359   8.527  14.874
12131SOL     OW38289   8.020   6.745   3.074
12131SOL    HW138290   8.098   6.786   3.112
12131SOL    HW238291   8.039   6.742   2.980
12132SOL     OW38292   9.262   0.127   1.728
12132SOL    HW138293   9.254   0.182   1.807
12132SOL    HW238294   9.184   0.072   1.729
12133SOL     OW38295  11.211   7.510   5.515
12133SOL    HW138296  11.136   7.565   5.492
12133SOL    HW238297  11.254   7.492   5.431
12134SOL     OW38298   6.385   0.846   6.278
12134SOL    HW138299   6.302   0.852   6.325
12134SOL    HW238300   6.436   0.782   6.326
12135SOL     OW38301   6.546   0.202   0.306
12135SOL    HW138302   6.486   0.147   0.355
12135SOL    HW238303   6.505   0.211   0.220
12136SOL     OW38304   3.136  14.424   5.376
12136SOL    HW138305   3.209  14.433   5.437
12136SOL    HW238306   3.083  14.502   5.389
12137SOL     OW38307   0.961   1.571   7.848
12137SOL    HW138308   0.999   1.484   7.855
12137SOL    HW238309   0.880   1.566   7.900
12138SOL     OW38310   7.762   8.222  11.662
12138SOL    HW138311   7.760   8.177  11.578
12138SOL    HW238312   7.790   8.156  11.725
12139SOL     OW38313   4.424   7.777   4.926
12139SOL    HW138314   4.482   7.846   4.957
12139SOL    HW238315   4.383   7.814   4.847
12140SOL     OW38316   5.664  11.669  10.698
12140SOL    HW138317   5.711  11.751  10.689
12140SOL    HW238318   5.602  11.685  10.770
12141SOL     OW38319   2.380   4.710  13.259
12141SOL    HW138320   2.356   4.617  13.254
12141SOL    HW238321   2.372   4.741  13.169
12142SOL     OW38322   3.560   7.324  13.509
12142SOL    HW138323   3.511   7.385  13.455
12142SOL    HW238324   3.562   7.364  13.596
12143SOL     OW38325   0.888   3.455   0.268
12143SOL    HW138326   0.950   3.400   0.316
12143SOL    HW238327   0.878   3.533   0.322
12144SOL     OW38328   0.845   3.674   3.984
12144SOL    HW138329   0.901   3.746   4.014
12144SOL    HW238330   0.906   3.609   3.950
12145SOL     OW38331   2.837  13.602  10.922
12145SOL    HW138332   2.833  13.523  10.869
12145SOL    HW238333   2.921  13.642  10.899
12146SOL     OW38334   1.106   7.372  12.973
12146SOL    HW138335   1.072   7.455  13.006
12146SOL    HW238336   1.085   7.373  12.879
12147SOL     OW38337   0.810   9.749   7.104
12147SOL    HW138338   0.790   9.760   7.197
12147SOL    HW238339   0.726   9.723   7.065
12148SOL     OW38340  12.254  13.562   5.635
12148SOL    HW138341  12.231  13.578   5.543
12148SOL    HW238342  12.209  13.481   5.658
12149SOL     OW38343   3.631   1.781  14.488
12149SOL    HW138344   3.605   1.692  14.461
12149SOL    HW238345   3.627   1.778  14.584
12150SOL     OW38346   0.654   7.232   6.899
12150SOL    HW138347   0.706   7.170   6.951
12150SOL    HW238348   0.719   7.280   6.847
12151SOL     OW38349  14.151   1.130   8.622
12151SOL    HW138350  14.106   1.127   8.706
12151SOL    HW238351  14.244   1.128   8.644
12152SOL     OW38352   8.149  12.479   2.766
12152SOL    HW138353   8.164  12.454   2.857
12152SOL    HW238354   8.066  12.528   2.768
12153SOL     OW38355   7.935   3.668  12.897
12153SOL    HW138356   7.935   3.664  12.993
12153SOL    HW238357   7.860   3.723  12.876
12154SOL     OW38358   6.153  13.205  11.991
12154SOL    HW138359   6.133  13.294  12.018
12154SOL    HW238360   6.074  13.174  11.947
12155SOL     OW38361  10.324   8.705  11.665
12155SOL    HW138362  10.405   8.714  11.716
12155SOL    HW238363  10.334   8.622  11.618
12156SOL     OW38364   3.005   7.057  13.874
12156SOL    HW138365   2.961   6.972  13.874
12156SOL    HW238366   3.057   7.057  13.954
12157SOL     OW38367   2.596   1.070   3.092
12157SOL    HW138368   2.679   1.024   3.080
12157SOL    HW238369   2.588   1.083   3.186
12158SOL     OW38370   6.225  13.159   2.120
12158SOL    HW138371   6.238  13.136   2.028
12158SOL    HW238372   6.132  13.145   2.136
12159SOL     OW38373  11.327   7.456   6.822
12159SOL    HW138374  11.262   7.433   6.888
12159SOL    HW238375  11.275   7.485   6.747
12160SOL     OW38376  10.226  13.839  14.149
12160SOL    HW138377  10.272  13.803  14.073
12160SOL    HW238378  10.216  13.764  14.209
12161SOL     OW38379   4.017  13.274   6.775
12161SOL    HW138380   4.031  13.248   6.683
12161SOL    HW238381   4.093  13.239   6.821
12162SOL     OW38382   2.573  11.875   4.466
12162SOL    HW138383   2.634  11.804   4.489
12162SOL    HW238384   2.629  11.948   4.441
12163SOL     OW38385   6.990   6.536   7.899
12163SOL    HW138386   7.009   6.628   7.883
12163SOL    HW238387   7.009   6.524   7.992
12164SOL     OW38388   8.162  14.803   1.928
12164SOL    HW138389   8.219  14.878   1.945
12164SOL    HW238390   8.095  14.836   1.869
12165SOL     OW38391   8.720   3.888   7.768
12165SOL    HW138392   8.699   3.891   7.862
12165SOL    HW238393   8.774   3.966   7.754
12166SOL     OW38394  12.188   9.141   0.816
12166SOL    HW138395  12.159   9.065   0.766
12166SOL    HW238396  12.157   9.125   0.905
12167SOL     OW38397   5.070  14.609   6.893
12167SOL    HW138398   5.033  14.671   6.957
12167SOL    HW238399   5.046  14.523   6.927
12168SOL     OW38400   3.690   5.568  10.789
12168SOL    HW138401   3.659   5.490  10.744
12168SOL    HW238402   3.781   5.548  10.812
12169SOL     OW38403   7.312  13.909  11.863
12169SOL    HW138404   7.374  13.954  11.921
12169SOL    HW238405   7.315  13.960  11.781
12170SOL     OW38406   8.225  10.411  10.385
12170SOL    HW138407   8.279  10.433  10.309
12170SOL    HW238408   8.143  10.458  10.370
12171SOL     OW38409   7.935  10.035  12.240
12171SOL    HW138410   8.026  10.041  12.271
12171SOL    HW238411   7.913   9.943  12.250
12172SOL     OW38412  13.533   6.179   5.050
12172SOL    HW138413  13.483   6.164   5.131
12172SOL    HW238414  13.519   6.271   5.030
12173SOL     OW38415   8.253  10.180   7.932
12173SOL    HW138416   8.272  10.263   7.887
12173SOL    HW238417   8.247  10.116   7.861
12174SOL     OW38418   6.299   4.879   9.055
12174SOL    HW138419   6.339   4.795   9.077
12174SOL    HW238420   6.333   4.901   8.969
12175SOL     OW38421   7.892   7.816   4.733
12175SOL    HW138422   7.835   7.867   4.676
12175SOL    HW238423   7.956   7.880   4.766
12176SOL     OW38424   9.476  11.409  13.073
12176SOL    HW138425   9.564  11.387  13.043
12176SOL    HW238426   9.426  11.424  12.993
12177SOL     OW38427   8.990  14.112   9.793
12177SOL    HW138428   9.008  14.074   9.879
12177SOL    HW238429   8.911  14.067   9.763
12178SOL     OW38430  10.143   3.961  13.218
12178SOL    HW138431  10.166   3.916  13.136
12178SOL    HW238432  10.167   3.899  13.287
12179SOL     OW38433   2.350   0.123  13.018
12179SOL    HW138434   2.363   0.138  12.924
12179SOL    HW238435   2.284   0.054  13.023
12180SOL     OW38436  10.811  13.353   3.017
12180SOL    HW138437  10.809  13.300   2.938
12180SOL    HW238438  10.873  13.423   2.997
12181SOL     OW38439   0.859  10.718   7.113
12181SOL    HW138440   0.944  10.741   7.150
12181SOL    HW238441   0.815  10.801   7.096
12182SOL     OW38442   3.484  11.478   0.084
12182SOL    HW138443   3.539  11.556   0.071
12182SOL    HW238444   3.538  11.420   0.137
12183SOL     OW38445   3.802   1.938  10.488
12183SOL    HW138446   3.820   1.896  10.405
12183SOL    HW238447   3.817   2.031  10.471
12184SOL     OW38448  14.417  14.308   5.123
12184SOL    HW138449  14.508  14.327   5.143
12184SOL    HW238450  14.421  14.248   5.049
12185SOL     OW38451   3.999   8.665  13.673
12185SOL    HW138452   3.998   8.755  13.640
12185SOL    HW238453   3.920   8.658  13.727
12186SOL     OW38454  13.550  13.662  12.288
12186SOL    HW138455  13.550  13.570  12.313
12186SOL    HW238456  13.485  13.703  12.346
12187SOL     OW38457   0.238  13.405  13.019
12187SOL    HW138458   0.293  13.365  12.952
12187SOL    HW238459   0.236  13.341  13.090
12188SOL     OW38460   6.050   4.795   9.078
12188SOL    HW138461   6.140   4.815   9.051
12188SOL    HW238462   6.060   4.738   9.155
12189SOL     OW38463  13.233   4.089  12.130
12189SOL    HW138464  13.142   4.113  12.112
12189SOL    HW238465  13.234   3.994  12.125
12190SOL     OW38466  13.102   6.518  11.628
12190SOL    HW138467  13.044   6.493  11.700
12190SOL    HW238468  13.170   6.450  11.628
12191SOL     OW38469   6.261   2.479   5.813
12191SOL    HW138470   6.261   2.385   5.795
12191SOL    HW238471   6.351   2.507   5.797
12192SOL     OW38472   5.076   1.452   6.530
12192SOL    HW138473   5.077   1.507   6.453
12192SOL    HW238474   5.021   1.500   6.593
12193SOL     OW38475   3.817   4.902   4.112
12193SOL    HW138476   3.722   4.894   4.115
12193SOL    HW238477   3.848   4.814   4.090
12194SOL     OW38478   6.535   6.931   5.285
12194SOL    HW138479   6.490   7.015   5.278
12194SOL    HW238480   6.554   6.905   5.195
12195SOL     OW38481  10.762   8.263   1.320
12195SOL    HW138482  10.741   8.331   1.385
12195SOL    HW238483  10.840   8.297   1.276
12196SOL     OW38484   6.796   9.034   7.627
12196SOL    HW138485   6.744   9.115   7.630
12196SOL    HW238486   6.796   9.003   7.718
12197SOL     OW38487   7.236  13.819  13.955
12197SOL    HW138488   7.242  13.847  13.864
12197SOL    HW238489   7.298  13.747  13.962
12198SOL     OW38490   2.138   9.147  11.299
12198SOL    HW138491   2.199   9.118  11.366
12198SOL    HW238492   2.085   9.214  11.343
12199SOL     OW38493  13.015   6.569   2.430
12199SOL    HW138494  12.995   6.647   2.483
12199SOL    HW238495  13.060   6.604   2.353
12200SOL     OW38496  10.965  13.291  14.260
12200SOL    HW138497  11.036  13.303  14.324
12200SOL    HW238498  10.887  13.322  14.305
12201SOL     OW38499  12.946  12.924  11.355
12201SOL    HW138500  13.029  12.964  11.380
12201SOL    HW238501  12.912  12.980  11.286
12202SOL     OW38502   0.803   4.848   6.658
12202SOL    HW138503   0.830   4.920   6.602
12202SOL    HW238504   0.827   4.875   6.746
12203SOL     OW38505  12.897  13.342   1.335
12203SOL    HW138506  12.954  13.397   1.389
12203SOL    HW238507  12.835  13.304   1.397
12204SOL     OW38508  11.504  10.172  10.105
12204SOL    HW138509  11.575  10.149  10.045
12204SOL    HW238510  11.425  10.139  10.061
12205SOL     OW38511   3.738  10.509  11.407
12205SOL    HW138512   3.695  10.579  11.456
12205SOL    HW238513   3.671  10.442  11.397
12206SOL     OW38514   3.606   6.332   3.453
12206SOL    HW138515   3.556   6.336   3.535
12206SOL    HW238516   3.617   6.423   3.427
12207SOL     OW38517   1.678  10.533   9.990
12207SOL    HW138518   1.760  10.575  10.015
12207SOL    HW238519   1.623  10.539  10.069
12208SOL     OW38520   1.522   2.775  10.314
12208SOL    HW138521   1.472   2.780  10.396
12208SOL    HW238522   1.459   2.802  10.247
12209SOL     OW38523  11.738  14.398   0.136
12209SOL    HW138524  11.707  14.464   0.074
12209SOL    HW238525  11.715  14.315   0.095
12210SOL     OW38526   0.317  14.267   7.404
12210SOL    HW138527   0.316  14.311   7.489
12210SOL    HW238528   0.306  14.174   7.425
12211SOL     OW38529   2.204  13.505   2.776
12211SOL    HW138530   2.220  13.597   2.793
12211SOL    HW238531   2.180  13.468   2.861
12212SOL     OW38532   4.423  10.513   1.417
12212SOL    HW138533   4.411  10.426   1.380
12212SOL    HW238534   4.517  10.521   1.431
12213SOL     OW38535   5.430   0.862   9.517
12213SOL    HW138536   5.500   0.797   9.511
12213SOL    HW238537   5.354   0.812   9.548
12214SOL     OW38538   2.536  13.630  12.987
12214SOL    HW138539   2.600  13.691  12.951
12214SOL    HW238540   2.489  13.597  12.911
12215SOL     OW38541   8.921  12.572   4.038
12215SOL    HW138542   9.008  12.533   4.049
12215SOL    HW238543   8.894  12.545   3.950
12216SOL     OW38544   6.989   6.785   8.755
12216SOL    HW138545   7.051   6.712   8.755
12216SOL    HW238546   7.044   6.863   8.744
12217SOL     OW38547   3.929   1.496   9.514
12217SOL    HW138548   3.940   1.557   9.441
12217SOL    HW238549   3.982   1.531   9.584
12218SOL     OW38550   8.950   1.327   4.265
12218SOL    HW138551   8.876   1.387   4.271
12218SOL    HW238552   8.935   1.279   4.183
12219SOL     OW38553  12.057   4.174   6.436
12219SOL    HW138554  12.103   4.150   6.516
12219SOL    HW238555  12.126   4.207   6.377
12220SOL     OW38556  10.869  11.284  13.272
12220SOL    HW138557  10.922  11.247  13.342
12220SOL    HW238558  10.801  11.218  13.257
12221SOL     OW38559  10.414   9.423   9.601
12221SOL    HW138560  10.493   9.393   9.557
12221SOL    HW238561  10.429   9.403   9.693
12222SOL     OW38562  10.672   7.507   0.845
12222SOL    HW138563  10.727   7.446   0.894
12222SOL    HW238564  10.594   7.517   0.898
12223SOL     OW38565   1.807   2.910  14.019
12223SOL    HW138566   1.714   2.891  14.027
12223SOL    HW238567   1.832   2.947  14.103
12224SOL     OW38568   5.758  13.073   8.126
12224SOL    HW138569   5.843  13.052   8.165
12224SOL    HW238570   5.765  13.166   8.105
12225SOL     OW38571   1.092   1.091   4.607
12225SOL    HW138572   1.107   1.182   4.584
12225SOL    HW238573   1.008   1.069   4.566
12226SOL     OW38574   1.661   0.450   7.579
12226SOL    HW138575   1.686   0.527   7.528
12226SOL    HW238576   1.737   0.393   7.575
12227SOL     OW38577   2.595   6.234   6.339
12227SOL    HW138578   2.612   6.140   6.332
12227SOL    HW238579   2.679   6.275   6.318
12228SOL     OW38580   1.785   7.176   9.927
12228SOL    HW138581   1.761   7.222   9.847
12228SOL    HW238582   1.864   7.220   9.958
12229SOL     OW38583   1.141  10.567   6.937
12229SOL    HW138584   1.200  10.583   7.011
12229SOL    HW238585   1.163  10.635   6.874
12230SOL     OW38586   8.404   0.864   1.676
12230SOL    HW138587   8.365   0.777   1.686
12230SOL    HW238588   8.463   0.855   1.601
12231SOL     OW38589   5.073   7.461  14.446
12231SOL    HW138590   5.082   7.551  14.476
12231SOL    HW238591   5.026   7.417  14.517
12232SOL     OW38592   9.592   8.857  14.741
12232SOL    HW138593   9.684   8.875  14.758
12232SOL    HW238594   9.584   8.762  14.751
12233SOL     OW38595   2.785   6.491   0.770
12233SOL    HW138596   2.754   6.523   0.855
12233SOL    HW238597   2.708   6.453   0.729
12234SOL     OW38598   9.669  14.125   1.531
12234SOL    HW138599   9.628  14.211   1.516
12234SOL    HW238600   9.667  14.113   1.626
12235SOL     OW38601   6.674   2.131  10.836
12235SOL    HW138602   6.649   2.223  10.846
12235SOL    HW238603   6.714   2.108  10.920
12236SOL     OW38604  13.323   7.831   8.991
12236SOL    HW138605  13.359   7.808   8.906
12236SOL    HW238606  13.263   7.903   8.973
12237SOL     OW38607   3.526   8.638   0.861
12237SOL    HW138608   3.562   8.585   0.932
12237SOL    HW238609   3.602   8.675   0.817
12238SOL     OW38610   9.098  12.695  12.952
12238SOL    HW138611   9.063  12.637  13.020
12238SOL    HW238612   9.154  12.757  13.000
12239SOL     OW38613  12.344   7.679   4.705
12239SOL    HW138614  12.257   7.715   4.691
12239SOL    HW238615  12.339   7.590   4.670
12240SOL     OW38616   5.861  13.281   0.484
12240SOL    HW138617   5.891  13.209   0.428
12240SOL    HW238618   5.885  13.360   0.436
12241SOL     OW38619  14.263  11.228  10.572
12241SOL    HW138620  14.314  11.275  10.638
12241SOL    HW238621  14.173  11.231  10.604
12242SOL     OW38622  11.337  13.151   2.179
12242SOL    HW138623  11.259  13.170   2.232
12242SOL    HW238624  11.309  13.171   2.089
12243SOL     OW38625  13.502   4.024   9.759
12243SOL    HW138626  13.516   3.932   9.779
12243SOL    HW238627  13.588   4.065   9.769
12244SOL     OW38628  11.164   7.984   5.815
12244SOL    HW138629  11.249   7.961   5.852
12244SOL    HW238630  11.156   8.078   5.829
12245SOL     OW38631   0.202  11.436   9.583
12245SOL    HW138632   0.237  11.441   9.494
12245SOL    HW238633   0.185  11.343   9.597
12246SOL     OW38634  11.697   6.211   5.300
12246SOL    HW138635  11.743   6.228   5.217
12246SOL    HW238636  11.612   6.254   5.290
12247SOL     OW38637  10.162   9.608   7.232
12247SOL    HW138638  10.248   9.565   7.235
12247SOL    HW238639  10.162   9.654   7.148
12248SOL     OW38640  13.631   5.146   2.773
12248SOL    HW138641  13.686   5.070   2.757
12248SOL    HW238642  13.557   5.136   2.713
12249SOL     OW38643  13.912   7.953   5.452
12249SOL    HW138644  13.922   8.018   5.383
12249SOL    HW238645  13.998   7.949   5.494
12250SOL     OW38646   1.498   5.650   4.351
12250SOL    HW138647   1.509   5.604   4.268
12250SOL    HW238648   1.562   5.721   4.348
12251SOL     OW38649  12.908   7.860   0.534
12251SOL    HW138650  12.922   7.767   0.517
12251SOL    HW238651  12.955   7.905   0.463
12252SOL     OW38652  14.597   4.645  11.698
12252SOL    HW138653  14.645   4.688  11.628
12252SOL    HW238654  14.597   4.709  11.770
12253SOL     OW38655   2.385   5.887   3.436
12253SOL    HW138656   2.417   5.888   3.346
12253SOL    HW238657   2.434   5.815   3.477
12254SOL     OW38658   5.280   9.004  10.930
12254SOL    HW138659   5.222   8.933  10.958
12254SOL    HW238660   5.226   9.058  10.873
12255SOL     OW38661  12.809  12.603   6.241
12255SOL    HW138662  12.854  12.679   6.278
12255SOL    HW238663  12.721  12.606   6.279
12256SOL     OW38664   9.851  10.099   7.949
12256SOL    HW138665   9.935  10.066   7.920
12256SOL    HW238666   9.789  10.030   7.927
12257SOL     OW38667   4.700   7.614  14.234
12257SOL    HW138668   4.661   7.532  14.263
12257SOL    HW238669   4.759   7.589  14.163
12258SOL     OW38670   4.688   5.859   1.260
12258SOL    HW138671   4.625   5.800   1.301
12258SOL    HW238672   4.743   5.888   1.333
12259SOL     OW38673   5.552   7.698  14.332
12259SOL    HW138674   5.575   7.791  14.332
12259SOL    HW238675   5.545   7.675  14.240
12260SOL     OW38676  12.239   7.112   4.051
12260SOL    HW138677  12.189   7.094   4.131
12260SOL    HW238678  12.189   7.068   3.982
12261SOL     OW38679   4.049   1.583   7.356
12261SOL    HW138680   4.059   1.646   7.428
12261SOL    HW238681   4.118   1.519   7.372
12262SOL     OW38682  14.711   7.948  12.845
12262SOL    HW138683  14.768   7.941  12.922
12262SOL    HW238684  14.758   8.006  12.786
12263SOL     OW38685   6.794   9.299   8.277
12263SOL    HW138686   6.781   9.367   8.343
12263SOL    HW238687   6.879   9.261   8.298
12264SOL     OW38688   9.367  11.515   2.136
12264SOL    HW138689   9.324  11.445   2.088
12264SOL    HW238690   9.384  11.583   2.071
12265SOL     OW38691   3.142   1.424  10.960
12265SOL    HW138692   3.047   1.419  10.971
12265SOL    HW238693   3.164   1.514  10.985
12266SOL     OW38694  13.424  12.447   6.028
12266SOL    HW138695  13.485  12.514   5.997
12266SOL    HW238696  13.460  12.418   6.111
12267SOL     OW38697   2.749   9.409   9.125
12267SOL    HW138698   2.688   9.364   9.066
12267SOL    HW238699   2.792   9.474   9.070
12268SOL     OW38700   8.507   0.173   3.369
12268SOL    HW138701   8.461   0.159   3.452
12268SOL    HW238702   8.586   0.221   3.392
12269SOL     OW38703   4.553   6.639   6.441
12269SOL    HW138704   4.548   6.663   6.348
12269SOL    HW238705   4.486   6.694   6.482
12270SOL     OW38706   4.885  14.177   8.459
12270SOL    HW138707   4.826  14.195   8.532
12270SOL    HW238708   4.853  14.233   8.388
12271SOL     OW38709  11.754   5.414   1.763
12271SOL    HW138710  11.778   5.394   1.854
12271SOL    HW238711  11.837   5.417   1.716
12272SOL     OW38712  12.913   0.602   0.433
12272SOL    HW138713  12.924   0.508   0.446
12272SOL    HW238714  12.910   0.638   0.522
12273SOL     OW38715   8.221  12.815   8.819
12273SOL    HW138716   8.204  12.881   8.886
12273SOL    HW238717   8.143  12.816   8.763
12274SOL     OW38718   3.376   0.921   4.039
12274SOL    HW138719   3.336   0.905   3.953
12274SOL    HW238720   3.467   0.946   4.019
12275SOL     OW38721  11.267   1.018   0.141
12275SOL    HW138722  11.230   1.102   0.113
12275SOL    HW238723  11.335   1.043   0.204
12276SOL     OW38724   7.466  12.718   7.746
12276SOL    HW138725   7.373  12.740   7.736
12276SOL    HW238726   7.509  12.762   7.673
12277SOL     OW38727   1.634  11.493   7.372
12277SOL    HW138728   1.650  11.414   7.321
12277SOL    HW238729   1.581  11.464   7.446
12278SOL     OW38730   9.872   8.154  10.939
12278SOL    HW138731   9.949   8.102  10.917
12278SOL    HW238732   9.906   8.243  10.949
12279SOL     OW38733  12.916  12.280  13.334
12279SOL    HW138734  12.823  12.302  13.334
12279SOL    HW238735  12.930  12.235  13.251
12280SOL     OW38736   0.848   9.570  11.574
12280SOL    HW138737   0.835   9.664  11.583
12280SOL    HW238738   0.926   9.562  11.518
12281SOL     OW38739   2.099   4.447   2.546
12281SOL    HW138740   2.189   4.469   2.523
12281SOL    HW238741   2.107   4.391   2.624
12282SOL     OW38742   0.531   9.226   8.608
12282SOL    HW138743   0.472   9.257   8.676
12282SOL    HW238744   0.473   9.186   8.543
12283SOL     OW38745  10.042   6.259   8.857
12283SOL    HW138746  10.120   6.213   8.826
12283SOL    HW238747   9.988   6.270   8.778
12284SOL     OW38748   9.810   3.882   7.743
12284SOL    HW138749   9.748   3.941   7.702
12284SOL    HW238750   9.774   3.866   7.830
12285SOL     OW38751  13.078   3.771   2.309
12285SOL    HW138752  13.148   3.707   2.314
12285SOL    HW238753  13.105   3.832   2.241
12286SOL     OW38754   3.254   0.455   3.096
12286SOL    HW138755   3.175   0.406   3.123
12286SOL    HW238756   3.284   0.497   3.177
12287SOL     OW38757   4.446   1.768   6.050
12287SOL    HW138758   4.396   1.848   6.068
12287SOL    HW238759   4.380   1.704   6.024
12288SOL     OW38760  11.390   3.928   2.939
12288SOL    HW138761  11.382   3.839   2.974
12288SOL    HW238762  11.301   3.964   2.946
12289SOL     OW38763   6.492  12.118   1.791
12289SOL    HW138764   6.516  12.025   1.788
12289SOL    HW238765   6.525  12.149   1.875
12290SOL     OW38766   6.837   4.722   0.658
12290SOL    HW138767   6.865   4.637   0.624
12290SOL    HW238768   6.812   4.771   0.580
12291SOL     OW38769   4.094   5.541  12.195
12291SOL    HW138770   4.029   5.611  12.187
12291SOL    HW238771   4.123   5.525  12.105
12292SOL     OW38772  10.928   7.041   0.085
12292SOL    HW138773  10.947   7.113   0.025
12292SOL    HW238774  10.945   6.962   0.034
12293SOL     OW38775   1.082   0.998   5.344
12293SOL    HW138776   0.993   1.033   5.355
12293SOL    HW238777   1.098   1.005   5.250
12294SOL     OW38778   1.052   1.746   1.827
12294SOL    HW138779   1.091   1.729   1.913
12294SOL    HW238780   1.025   1.838   1.830
12295SOL     OW38781   7.132  14.659  12.233
12295SOL    HW138782   7.090  14.686  12.314
12295SOL    HW238783   7.220  14.631  12.259
12296SOL     OW38784   6.238   2.855  11.626
12296SOL    HW138785   6.160   2.800  11.620
12296SOL    HW238786   6.305   2.806  11.578
12297SOL     OW38787   1.987   7.338  14.516
12297SOL    HW138788   2.068   7.343  14.466
12297SOL    HW238789   2.009   7.375  14.601
12298SOL     OW38790   1.144  13.941   1.325
12298SOL    HW138791   1.178  13.912   1.240
12298SOL    HW238792   1.072  13.882   1.344
12299SOL     OW38793   6.715  10.022   5.091
12299SOL    HW138794   6.696   9.935   5.126
12299SOL    HW238795   6.647  10.037   5.024
12300SOL     OW38796  12.164  13.064   3.228
12300SOL    HW138797  12.228  13.002   3.262
12300SOL    HW238798  12.162  13.135   3.292
12301SOL     OW38799   8.103  13.185   6.162
12301SOL    HW138800   8.014  13.220   6.167
12301SOL    HW238801   8.159  13.263   6.158
12302SOL     OW38802  10.127   5.376   9.319
12302SOL    HW138803  10.130   5.346   9.410
12302SOL    HW238804  10.125   5.471   9.325
12303SOL     OW38805   4.841   7.956   4.397
12303SOL    HW138806   4.875   8.045   4.406
12303SOL    HW238807   4.869   7.911   4.476
12304SOL     OW38808   4.769  14.342   0.987
12304SOL    HW138809   4.764  14.248   0.968
12304SOL    HW238810   4.687  14.377   0.953
12305SOL     OW38811   6.441   8.555  10.192
12305SOL    HW138812   6.474   8.600  10.270
12305SOL    HW238813   6.460   8.614  10.120
12306SOL     OW38814  14.106  13.347   1.279
12306SOL    HW138815  14.055  13.311   1.207
12306SOL    HW238816  14.192  13.304   1.271
12307SOL     OW38817  10.053   0.123   3.617
12307SOL    HW138818  10.020   0.190   3.677
12307SOL    HW238819   9.974   0.080   3.583
12308SOL     OW38820   1.381   5.529  12.568
12308SOL    HW138821   1.352   5.498  12.654
12308SOL    HW238822   1.470   5.494  12.559
12309SOL     OW38823   5.266   6.105  14.099
12309SOL    HW138824   5.336   6.058  14.145
12309SOL    HW238825   5.262   6.190  14.143
12310SOL     OW38826  12.229   8.506  11.946
12310SOL    HW138827  12.187   8.502  12.032
12310SOL    HW238828  12.255   8.416  11.929
12311SOL     OW38829  10.585   4.241  11.531
12311SOL    HW138830  10.559   4.257  11.440
12311SOL    HW238831  10.502   4.239  11.579
12312SOL     OW38832   6.835   3.205   7.343
12312SOL    HW138833   6.810   3.126   7.296
12312SOL    HW238834   6.923   3.187   7.375
12313SOL     OW38835  13.318   5.056   6.870
12313SOL    HW138836  13.390   5.111   6.902
12313SOL    HW238837  13.312   4.985   6.934
12314SOL     OW38838  14.209   9.778   0.464
12314SOL    HW138839  14.233   9.688   0.488
12314SOL    HW238840  14.180   9.771   0.373
12315SOL     OW38841   7.057  11.434  10.407
12315SOL    HW138842   7.006  11.406  10.482
12315SOL    HW238843   7.025  11.379  10.335
12316SOL     OW38844  10.434   7.422  12.507
12316SOL    HW138845  10.440   7.395  12.598
12316SOL    HW238846  10.408   7.342  12.460
12317SOL     OW38847   2.082   1.997   5.405
12317SOL    HW138848   1.989   2.019   5.398
12317SOL    HW238849   2.126   2.061   5.349
12318SOL     OW38850   0.203  14.589   5.082
12318SOL    HW138851   0.237  14.621   4.998
12318SOL    HW238852   0.255  14.634   5.148
12319SOL     OW38853   5.704  14.121   5.672
12319SOL    HW138854   5.705  14.215   5.659
12319SOL    HW238855   5.760  14.106   5.748
12320SOL     OW38856   6.933   1.750   5.343
12320SOL    HW138857   6.881   1.822   5.378
12320SOL    HW238858   6.985   1.719   5.417
12321SOL     OW38859   8.818   4.257   8.190
12321SOL    HW138860   8.737   4.232   8.235
12321SOL    HW238861   8.798   4.342   8.149
12322SOL     OW38862   5.067   5.751   5.963
12322SOL    HW138863   4.998   5.720   6.021
12322SOL    HW238864   5.050   5.706   5.880
12323SOL     OW38865   6.931   2.555   1.551
12323SOL    HW138866   6.973   2.529   1.469
12323SOL    HW238867   7.004   2.572   1.611
12324SOL     OW38868  12.153   0.325   4.405
12324SOL    HW138869  12.151   0.358   4.315
12324SOL    HW238870  12.138   0.403   4.459
12325SOL     OW38871   1.396  11.871  13.270
12325SOL    HW138872   1.468  11.809  13.283
12325SOL    HW238873   1.320  11.826  13.306
12326SOL     OW38874   6.831  12.592  13.714
12326SOL    HW138875   6.740  12.623  13.712
12326SOL    HW238876   6.859  12.595  13.622
12327SOL     OW38877   6.426  12.025   0.978
12327SOL    HW138878   6.369  12.001   1.051
12327SOL    HW238879   6.426  12.121   0.979
12328SOL     OW38880   2.844   5.001  10.510
12328SOL    HW138881   2.867   4.981  10.601
12328SOL    HW238882   2.929   5.008  10.466
12329SOL     OW38883  14.779   9.172   4.270
12329SOL    HW138884  14.738   9.213   4.193
12329SOL    HW238885  14.850   9.233   4.293
12330SOL     OW38886   1.739  14.687   6.273
12330SOL    HW138887   1.752  14.722   6.362
12330SOL    HW238888   1.657  14.638   6.279
12331SOL     OW38889  12.404  10.336  10.207
12331SOL    HW138890  12.381  10.335  10.299
12331SOL    HW238891  12.462  10.261  10.196
12332SOL     OW38892   7.550  11.065  13.658
12332SOL    HW138893   7.517  11.153  13.643
12332SOL    HW238894   7.590  11.039  13.575
12333SOL     OW38895   4.009   6.242  11.605
12333SOL    HW138896   4.034   6.229  11.696
12333SOL    HW238897   3.950   6.170  11.585
12334SOL     OW38898   8.815  14.822   4.130
12334SOL    HW138899   8.896  14.793   4.172
12334SOL    HW238900   8.808   0.033   4.153
12335SOL     OW38901  12.060   7.250  13.571
12335SOL    HW138902  12.042   7.156  13.572
12335SOL    HW238903  11.988   7.287  13.519
12336SOL     OW38904  13.013   7.562  13.147
12336SOL    HW138905  12.994   7.586  13.056
12336SOL    HW238906  13.050   7.474  13.141
12337SOL     OW38907  14.246  13.567   7.272
12337SOL    HW138908  14.250  13.564   7.368
12337SOL    HW238909  14.254  13.475   7.245
12338SOL     OW38910   0.212  11.070  13.171
12338SOL    HW138911   0.188  11.160  13.148
12338SOL    HW238912   0.294  11.054  13.124
12339SOL     OW38913  11.937   0.444  14.348
12339SOL    HW138914  11.932   0.412  14.438
12339SOL    HW238915  11.877   0.519  14.346
12340SOL     OW38916   2.312   8.067  13.380
12340SOL    HW138917   2.308   7.997  13.316
12340SOL    HW238918   2.343   8.025  13.461
12341SOL     OW38919   8.895   3.280   5.779
12341SOL    HW138920   8.985   3.260   5.755
12341SOL    HW238921   8.861   3.331   5.706
12342SOL     OW38922   7.612  12.609  10.551
12342SOL    HW138923   7.588  12.517  10.565
12342SOL    HW238924   7.702  12.605  10.519
12343SOL     OW38925  14.874  11.062   9.587
12343SOL    HW138926   0.081  11.097   9.595
12343SOL    HW238927  14.817  11.138   9.598
12344SOL     OW38928   8.352   9.916  13.550
12344SOL    HW138929   8.361   9.915  13.454
12344SOL    HW238930   8.388   9.832  13.578
12345SOL     OW38931   9.338   8.342  11.239
12345SOL    HW138932   9.365   8.270  11.181
12345SOL    HW238933   9.252   8.368  11.207
12346SOL     OW38934   6.736  11.296   8.115
12346SOL    HW138935   6.740  11.209   8.076
12346SOL    HW238936   6.719  11.355   8.041
12347SOL     OW38937   6.630   7.793  11.512
12347SOL    HW138938   6.585   7.753  11.437
12347SOL    HW238939   6.593   7.881  11.518
12348SOL     OW38940  14.057   2.688  13.846
12348SOL    HW138941  13.987   2.754  13.847
12348SOL    HW238942  14.013   2.607  13.869
12349SOL     OW38943  10.221   9.380   9.898
12349SOL    HW138944  10.146   9.337   9.938
12349SOL    HW238945  10.197   9.388   9.805
12350SOL     OW38946   7.708  14.196   3.035
12350SOL    HW138947   7.623  14.170   3.072
12350SOL    HW238948   7.745  14.255   3.100
12351SOL     OW38949   6.224   7.301   8.895
12351SOL    HW138950   6.276   7.221   8.890
12351SOL    HW238951   6.135   7.271   8.910
12352SOL     OW38952   5.601   3.677  13.454
12352SOL    HW138953   5.672   3.727  13.494
12352SOL    HW238954   5.581   3.609  13.518
12353SOL     OW38955   3.008   9.105  14.738
12353SOL    HW138956   3.068   9.055  14.793
12353SOL    HW238957   2.945   9.141  14.799
12354SOL     OW38958   6.016  12.798  13.272
12354SOL    HW138959   6.079  12.736  13.235
12354SOL    HW238960   5.931  12.762  13.248
12355SOL     OW38961   5.251   3.852  13.092
12355SOL    HW138962   5.315   3.805  13.145
12355SOL    HW238963   5.167   3.832  13.132
12356SOL     OW38964  11.987   5.186   2.315
12356SOL    HW138965  11.902   5.208   2.353
12356SOL    HW238966  11.966   5.147   2.230
12357SOL     OW38967   4.997   4.007  10.797
12357SOL    HW138968   4.941   3.940  10.757
12357SOL    HW238969   5.007   4.073  10.729
12358SOL     OW38970   8.093   2.407   2.852
12358SOL    HW138971   8.063   2.468   2.785
12358SOL    HW238972   8.057   2.323   2.825
12359SOL     OW38973   9.585   9.596  13.700
12359SOL    HW138974   9.522   9.614  13.770
12359SOL    HW238975   9.565   9.662  13.633
12360SOL     OW38976  11.068   3.200   2.888
12360SOL    HW138977  11.084   3.106   2.883
12360SOL    HW238978  11.000   3.210   2.954
12361SOL     OW38979   6.050   8.075   3.681
12361SOL    HW138980   6.131   8.120   3.661
12361SOL    HW238981   5.990   8.144   3.711
12362SOL     OW38982  12.401   9.557  11.852
12362SOL    HW138983  12.452   9.476  11.848
12362SOL    HW238984  12.348   9.556  11.773
12363SOL     OW38985   2.673   5.061   2.743
12363SOL    HW138986   2.665   5.099   2.831
12363SOL    HW238987   2.751   5.007   2.748
12364SOL     OW38988   6.297   0.168   4.113
12364SOL    HW138989   6.245   0.228   4.059
12364SOL    HW238990   6.326   0.100   4.053
12365SOL     OW38991   5.512   9.842   0.546
12365SOL    HW138992   5.572   9.844   0.472
12365SOL    HW238993   5.500   9.934   0.570
12366SOL     OW38994   3.601   2.084   0.568
12366SOL    HW138995   3.685   2.130   0.579
12366SOL    HW238996   3.538   2.138   0.614
12367SOL     OW38997  13.758  14.270   1.087
12367SOL    HW138998  13.723  14.311   1.007
12367SOL    HW238999  13.709  14.188   1.095
12368SOL     OW39000   6.919  13.237   5.706
12368SOL    HW139001   6.918  13.239   5.610
12368SOL    HW239002   6.903  13.145   5.728
12369SOL     OW39003   4.742   8.521   3.599
12369SOL    HW139004   4.759   8.607   3.560
12369SOL    HW239005   4.693   8.473   3.533
12370SOL     OW39006   6.184   1.495   0.889
12370SOL    HW139007   6.178   1.589   0.871
12370SOL    HW239008   6.104   1.475   0.937
12371SOL     OW39009  10.408  10.451   9.531
12371SOL    HW139010  10.339  10.387   9.515
12371SOL    HW239011  10.364  10.524   9.573
12372SOL     OW39012  13.422  10.878  14.275
12372SOL    HW139013  13.418  10.900  14.369
12372SOL    HW239014  13.379  10.793  14.268
12373SOL     OW39015   4.238  14.520  10.601
12373SOL    HW139016   4.265  14.557  10.517
12373SOL    HW239017   4.220  14.596  10.656
12374SOL     OW39018  11.242   9.139   1.620
12374SOL    HW139019  11.221   9.109   1.531
12374SOL    HW239020  11.291   9.067   1.658
12375SOL     OW39021  12.204  11.513   3.452
12375SOL    HW139022  12.163  11.578   3.509
12375SOL    HW239023  12.290  11.498   3.491
12376SOL     OW39024  11.558  13.775  12.018
12376SOL    HW139025  11.511  13.706  12.064
12376SOL    HW239026  11.589  13.733  11.938
12377SOL     OW39027  10.891  13.484   6.472
12377SOL    HW139028  10.881  13.392   6.497
12377SOL    HW239029  10.943  13.481   6.391
12378SOL     OW39030   3.287   7.603  13.077
12378SOL    HW139031   3.245   7.586  13.162
12378SOL    HW239032   3.359   7.662  13.097
12379SOL     OW39033   1.450   0.615   1.470
12379SOL    HW139034   1.478   0.625   1.561
12379SOL    HW239035   1.404   0.697   1.450
12380SOL     OW39036   8.950  14.695  13.973
12380SOL    HW139037   8.933  14.706  14.067
12380SOL    HW239038   9.035  14.652  13.969
12381SOL     OW39039   8.240   6.025  11.884
12381SOL    HW139040   8.181   5.955  11.908
12381SOL    HW239041   8.237   6.086  11.958
12382SOL     OW39042   3.096  14.655   6.661
12382SOL    HW139043   3.031  14.599   6.702
12382SOL    HW239044   3.117  14.721   6.728
12383SOL     OW39045  10.968   2.714  14.130
12383SOL    HW139046  10.927   2.739  14.048
12383SOL    HW239047  10.929   2.773  14.195
12384SOL     OW39048   5.025   7.650   0.489
12384SOL    HW139049   4.961   7.680   0.425
12384SOL    HW239050   4.983   7.664   0.574
12385SOL     OW39051   5.634  14.634   3.728
12385SOL    HW139052   5.638  14.563   3.791
12385SOL    HW239053   5.705  14.616   3.666
12386SOL     OW39054   4.678   3.751   6.910
12386SOL    HW139055   4.739   3.819   6.880
12386SOL    HW239056   4.599   3.765   6.858
12387SOL     OW39057   7.549   8.529   7.402
12387SOL    HW139058   7.563   8.616   7.439
12387SOL    HW239059   7.601   8.470   7.457
12388SOL     OW39060  12.912   9.619  14.560
12388SOL    HW139061  12.941   9.609  14.470
12388SOL    HW239062  12.846   9.688  14.556
12389SOL     OW39063   6.190   5.151   4.438
12389SOL    HW139064   6.151   5.104   4.512
12389SOL    HW239065   6.133   5.131   4.364
12390SOL     OW39066  12.912   5.485  10.723
12390SOL    HW139067  12.823   5.476  10.756
12390SOL    HW239068  12.935   5.576  10.740
12391SOL     OW39069   5.844   6.811   4.374
12391SOL    HW139070   5.819   6.729   4.331
12391SOL    HW239071   5.776   6.873   4.348
12392SOL     OW39072  13.273   4.605  13.483
12392SOL    HW139073  13.239   4.525  13.443
12392SOL    HW239074  13.290   4.581  13.574
12393SOL     OW39075   3.474   3.494  11.126
12393SOL    HW139076   3.468   3.530  11.214
12393SOL    HW239077   3.470   3.570  11.068
12394SOL     OW39078   2.271   9.559   2.747
12394SOL    HW139079   2.356   9.562   2.791
12394SOL    HW239080   2.286   9.605   2.664
12395SOL     OW39081   2.670   2.719  13.663
12395SOL    HW139082   2.727   2.681  13.596
12395SOL    HW239083   2.619   2.785  13.615
12396SOL     OW39084  14.687  12.994   7.926
12396SOL    HW139085  14.640  12.911   7.936
12396SOL    HW239086  14.778  12.973   7.946
12397SOL     OW39087  12.727   7.156   4.693
12397SOL    HW139088  12.702   7.118   4.609
12397SOL    HW239089  12.797   7.218   4.672
12398SOL     OW39090   7.477   5.705  12.256
12398SOL    HW139091   7.486   5.623  12.305
12398SOL    HW239092   7.462   5.678  12.166
12399SOL     OW39093  13.254   7.094   2.456
12399SOL    HW139094  13.278   7.104   2.548
12399SOL    HW239095  13.331   7.054   2.414
12400SOL     OW39096   8.458   9.731  12.049
12400SOL    HW139097   8.519   9.699  12.116
12400SOL    HW239098   8.407   9.654  12.025
12401SOL     OW39099   2.903   6.171   7.545
12401SOL    HW139100   2.885   6.135   7.458
12401SOL    HW239101   2.976   6.231   7.530
12402SOL     OW39102   4.756  14.449   7.130
12402SOL    HW139103   4.741  14.536   7.092
12402SOL    HW239104   4.670  14.409   7.132
12403SOL     OW39105   9.641   4.736  13.069
12403SOL    HW139106   9.586   4.737  13.147
12403SOL    HW239107   9.586   4.770  12.999
12404SOL     OW39108   6.184  11.831   6.855
12404SOL    HW139109   6.176  11.840   6.950
12404SOL    HW239110   6.265  11.782   6.843
12405SOL     OW39111  13.590   9.189   1.584
12405SOL    HW139112  13.579   9.275   1.624
12405SOL    HW239113  13.542   9.130   1.642
12406SOL     OW39114   7.739   8.210  11.000
12406SOL    HW139115   7.663   8.191  10.947
12406SOL    HW239116   7.768   8.297  10.971
12407SOL     OW39117  12.431   0.858   4.300
12407SOL    HW139118  12.343   0.855   4.338
12407SOL    HW239119  12.427   0.799   4.224
12408SOL     OW39120  12.915   7.526   0.468
12408SOL    HW139121  12.966   7.466   0.415
12408SOL    HW239122  12.933   7.501   0.558
12409SOL     OW39123   9.709   6.469   7.362
12409SOL    HW139124   9.627   6.421   7.349
12409SOL    HW239125   9.700   6.548   7.308
12410SOL     OW39126   2.157  10.476  14.316
12410SOL    HW139127   2.103  10.451  14.241
12410SOL    HW239128   2.111  10.551  14.355
12411SOL     OW39129   1.776   6.136   2.713
12411SOL    HW139130   1.742   6.190   2.642
12411SOL    HW239131   1.750   6.046   2.690
12412SOL     OW39132   0.522   8.370  10.436
12412SOL    HW139133   0.486   8.283  10.423
12412SOL    HW239134   0.449   8.420  10.474
12413SOL     OW39135   3.557   1.074  10.916
12413SOL    HW139136   3.492   1.068  10.846
12413SOL    HW239137   3.554   1.165  10.945
12414SOL     OW39138   8.828  14.174  10.048
12414SOL    HW139139   8.830  14.172   9.952
12414SOL    HW239140   8.829  14.082  10.074
12415SOL     OW39141   5.138  11.660   2.655
12415SOL    HW139142   5.084  11.647   2.733
12415SOL    HW239143   5.112  11.588   2.597
12416SOL     OW39144  13.893   8.291  12.518
12416SOL    HW139145  13.874   8.378  12.554
12416SOL    HW239146  13.807   8.249  12.511
12417SOL     OW39147   4.316   5.330   3.546
12417SOL    HW139148   4.342   5.420   3.526
12417SOL    HW239149   4.221   5.330   3.538
12418SOL     OW39150   3.408   9.280   2.206
12418SOL    HW139151   3.329   9.247   2.162
12418SOL    HW239152   3.439   9.350   2.149
12419SOL     OW39153   8.195  11.183   1.979
12419SOL    HW139154   8.177  11.167   1.887
12419SOL    HW239155   8.197  11.278   1.987
12420SOL     OW39156   3.849   9.658   3.355
12420SOL    HW139157   3.864   9.749   3.328
12420SOL    HW239158   3.870   9.606   3.277
12421SOL     OW39159   7.401  14.432   1.224
12421SOL    HW139160   7.480  14.379   1.216
12421SOL    HW239161   7.408  14.498   1.155
12422SOL     OW39162   0.391   2.987   9.253
12422SOL    HW139163   0.305   3.028   9.253
12422SOL    HW239164   0.452   3.060   9.241
12423SOL     OW39165   6.064   9.749   9.848
12423SOL    HW139166   6.039   9.827   9.897
12423SOL    HW239167   6.010   9.679   9.886
12424SOL     OW39168   2.052   6.750   9.264
12424SOL    HW139169   2.081   6.751   9.355
12424SOL    HW239170   2.075   6.836   9.230
12425SOL     OW39171   6.260  11.106  13.398
12425SOL    HW139172   6.263  11.202  13.391
12425SOL    HW239173   6.334  11.076  13.345
12426SOL     OW39174   9.657   7.744   1.484
12426SOL    HW139175   9.726   7.690   1.444
12426SOL    HW239176   9.701   7.825   1.509
12427SOL     OW39177   3.879  11.762   1.502
12427SOL    HW139178   3.787  11.784   1.511
12427SOL    HW239179   3.880  11.668   1.485
12428SOL     OW39180   4.217  13.346  11.206
12428SOL    HW139181   4.222  13.252  11.190
12428SOL    HW239182   4.233  13.355  11.300
12429SOL     OW39183   2.002  13.835   6.380
12429SOL    HW139184   1.913  13.859   6.355
12429SOL    HW239185   2.045  13.810   6.298
12430SOL     OW39186   6.746   2.999   5.520
12430SOL    HW139187   6.789   2.976   5.438
12430SOL    HW239188   6.816   2.993   5.586
12431SOL     OW39189   6.512   2.403   8.156
12431SOL    HW139190   6.522   2.314   8.124
12431SOL    HW239191   6.574   2.409   8.228
12432SOL     OW39192   5.691   0.389   4.824
12432SOL    HW139193   5.596   0.391   4.835
12432SOL    HW239194   5.725   0.432   4.903
12433SOL     OW39195   0.096  10.021  13.950
12433SOL    HW139196   0.123   9.964  13.878
12433SOL    HW239197   0.077  10.105  13.908
12434SOL     OW39198  11.558   5.514   2.210
12434SOL    HW139199  11.538   5.579   2.277
12434SOL    HW239200  11.593   5.564   2.137
12435SOL     OW39201   7.097  11.839  11.158
12435SOL    HW139202   7.097  11.888  11.240
12435SOL    HW239203   7.009  11.851  11.123
12436SOL     OW39204   8.353   4.735   4.721
12436SOL    HW139205   8.381   4.686   4.643
12436SOL    HW239206   8.258   4.740   4.713
12437SOL     OW39207   8.197   8.819   5.556
12437SOL    HW139208   8.262   8.830   5.486
12437SOL    HW239209   8.123   8.873   5.528
12438SOL     OW39210   2.224   9.629   8.352
12438SOL    HW139211   2.212   9.700   8.416
12438SOL    HW239212   2.142   9.580   8.355
12439SOL     OW39213   2.635   8.600  11.083
12439SOL    HW139214   2.638   8.561  11.171
12439SOL    HW239215   2.654   8.693  11.098
12440SOL     OW39216   4.241   0.564   8.187
12440SOL    HW139217   4.329   0.534   8.210
12440SOL    HW239218   4.253   0.617   8.109
12441SOL     OW39219   6.000   4.954   9.373
12441SOL    HW139220   6.057   4.877   9.380
12441SOL    HW239221   6.001   4.993   9.460
12442SOL     OW39222   8.356   1.708   2.051
12442SOL    HW139223   8.286   1.766   2.019
12442SOL    HW239224   8.390   1.752   2.129
12443SOL     OW39225   9.783   3.797   0.834
12443SOL    HW139226   9.831   3.868   0.876
12443SOL    HW239227   9.782   3.820   0.742
12444SOL     OW39228   1.672   8.226   7.062
12444SOL    HW139229   1.576   8.225   7.067
12444SOL    HW239230   1.701   8.198   7.148
12445SOL     OW39231   4.136   1.090  13.339
12445SOL    HW139232   4.148   1.103  13.245
12445SOL    HW239233   4.161   0.999  13.354
12446SOL     OW39234  13.230   4.144   7.876
12446SOL    HW139235  13.298   4.078   7.856
12446SOL    HW239236  13.148   4.096   7.870
12447SOL     OW39237   6.783   4.828   0.931
12447SOL    HW139238   6.794   4.797   0.842
12447SOL    HW239239   6.810   4.754   0.986
12448SOL     OW39240   7.673   1.159   5.498
12448SOL    HW139241   7.756   1.132   5.538
12448SOL    HW239242   7.621   1.079   5.494
12449SOL     OW39243   7.195   4.352   1.098
12449SOL    HW139244   7.280   4.376   1.063
12449SOL    HW239245   7.164   4.281   1.042
12450SOL     OW39246   1.936   1.865  14.871
12450SOL    HW139247   1.860   1.916   0.018
12450SOL    HW239248   2.010   1.901   0.038
12451SOL     OW39249  13.755  11.594   6.581
12451SOL    HW139250  13.659  11.596   6.587
12451SOL    HW239251  13.773  11.550   6.497
12452SOL     OW39252   3.789   6.141  14.056
12452SOL    HW139253   3.831   6.078  14.114
12452SOL    HW239254   3.824   6.121  13.969
12453SOL     OW39255   3.013   6.551  11.674
12453SOL    HW139256   3.007   6.625  11.613
12453SOL    HW239257   3.064   6.485  11.627
12454SOL     OW39258   0.024   7.156   2.105
12454SOL    HW139259  14.839   7.214   2.140
12454SOL    HW239260  14.860   7.074   2.087
12455SOL     OW39261  11.879  14.201   5.903
12455SOL    HW139262  11.858  14.235   5.816
12455SOL    HW239263  11.798  14.161   5.934
12456SOL     OW39264  14.420   6.805   7.470
12456SOL    HW139265  14.330   6.784   7.446
12456SOL    HW239266  14.469   6.724   7.451
12457SOL     OW39267  13.712  12.473   7.810
12457SOL    HW139268  13.630  12.438   7.844
12457SOL    HW239269  13.695  12.566   7.795
12458SOL     OW39270   7.070   1.231   9.627
12458SOL    HW139271   6.994   1.186   9.664
12458SOL    HW239272   7.033   1.307   9.582
12459SOL     OW39273  11.814   1.777   5.945
12459SOL    HW139274  11.720   1.764   5.947
12459SOL    HW239275  11.841   1.777   6.037
12460SOL     OW39276   1.346  13.805   8.531
12460SOL    HW139277   1.355  13.785   8.438
12460SOL    HW239278   1.427  13.849   8.555
12461SOL     OW39279  12.409   7.398   0.933
12461SOL    HW139280  12.482   7.454   0.958
12461SOL    HW239281  12.432   7.312   0.967
12462SOL     OW39282   2.037   3.647   8.700
12462SOL    HW139283   2.045   3.570   8.756
12462SOL    HW239284   2.110   3.640   8.638
12463SOL     OW39285  11.435   0.948  10.417
12463SOL    HW139286  11.461   0.857  10.405
12463SOL    HW239287  11.511   0.988  10.461
12464SOL     OW39288  12.647   1.038   3.357
12464SOL    HW139289  12.656   1.098   3.282
12464SOL    HW239290  12.707   0.966   3.337
12465SOL     OW39291   7.368   2.290  12.116
12465SOL    HW139292   7.363   2.386  12.118
12465SOL    HW239293   7.378   2.269  12.023
12466SOL     OW39294  14.405   2.479  13.047
12466SOL    HW139295  14.383   2.442  13.132
12466SOL    HW239296  14.459   2.412  13.004
12467SOL     OW39297   7.428   9.193  12.531
12467SOL    HW139298   7.399   9.136  12.603
12467SOL    HW239299   7.420   9.282  12.565
12468SOL     OW39300   8.395   9.064  13.246
12468SOL    HW139301   8.372   9.006  13.319
12468SOL    HW239302   8.336   9.036  13.175
12469SOL     OW39303   0.293   9.641   3.433
12469SOL    HW139304   0.209   9.686   3.437
12469SOL    HW239305   0.281   9.563   3.487
12470SOL     OW39306  13.837   3.761  14.844
12470SOL    HW139307  13.922   3.771  14.801
12470SOL    HW239308  13.831   3.668  14.865
12471SOL     OW39309   3.601  11.056   2.523
12471SOL    HW139310   3.595  11.125   2.590
12471SOL    HW239311   3.642  10.983   2.569
12472SOL     OW39312   0.480   6.423  10.222
12472SOL    HW139313   0.454   6.514  10.222
12472SOL    HW239314   0.460   6.392  10.310
12473SOL     OW39315   6.573  10.691   6.373
12473SOL    HW139316   6.492  10.741   6.381
12473SOL    HW239317   6.589  10.684   6.279
12474SOL     OW39318  14.290   6.443  14.847
12474SOL    HW139319  14.234   6.452  14.770
12474SOL    HW239320  14.308   6.533  14.874
12475SOL     OW39321   1.476   7.528  14.739
12475SOL    HW139322   1.569   7.532  14.760
12475SOL    HW239323   1.434   7.502  14.821
12476SOL     OW39324   3.169   4.789  12.247
12476SOL    HW139325   3.103   4.728  12.213
12476SOL    HW239326   3.194   4.752  12.331
12477SOL     OW39327  13.826  12.251   2.669
12477SOL    HW139328  13.797  12.321   2.610
12477SOL    HW239329  13.836  12.293   2.754
12478SOL     OW39330   8.285   3.674  14.629
12478SOL    HW139331   8.253   3.617  14.559
12478SOL    HW239332   8.236   3.755  14.618
12479SOL     OW39333   0.316   3.468   7.296
12479SOL    HW139334   0.282   3.395   7.243
12479SOL    HW239335   0.323   3.431   7.385
12480SOL     OW39336  12.265   5.016   5.439
12480SOL    HW139337  12.263   4.959   5.362
12480SOL    HW239338  12.185   5.068   5.433
12481SOL     OW39339  14.751   8.597   4.312
12481SOL    HW139340  14.721   8.506   4.308
12481SOL    HW239341  14.764   8.622   4.220
12482SOL     OW39342   3.137   8.485   6.317
12482SOL    HW139343   3.073   8.537   6.365
12482SOL    HW239344   3.204   8.547   6.290
12483SOL     OW39345   2.983  11.190  10.533
12483SOL    HW139346   3.033  11.224  10.607
12483SOL    HW239347   2.947  11.107  10.564
12484SOL     OW39348  10.065   3.145   3.714
12484SOL    HW139349  10.062   3.080   3.644
12484SOL    HW239350  10.047   3.096   3.794
12485SOL     OW39351  13.435   2.073   2.240
12485SOL    HW139352  13.373   2.060   2.169
12485SOL    HW239353  13.417   2.162   2.272
12486SOL     OW39354  11.057   7.960   8.265
12486SOL    HW139355  11.068   7.971   8.360
12486SOL    HW239356  10.974   8.004   8.246
12487SOL     OW39357   7.715   7.431   9.831
12487SOL    HW139358   7.714   7.375   9.753
12487SOL    HW239359   7.799   7.476   9.827
12488SOL     OW39360  10.125   0.018   0.256
12488SOL    HW139361  10.143   0.111   0.248
12488SOL    HW239362  10.208  14.862   0.285
12489SOL     OW39363  12.088  13.264  14.200
12489SOL    HW139364  12.179  13.234  14.198
12489SOL    HW239365  12.064  13.263  14.293
12490SOL     OW39366  10.784   3.517   8.489
12490SOL    HW139367  10.807   3.482   8.403
12490SOL    HW239368  10.866   3.519   8.538
12491SOL     OW39369  12.613  12.149   6.697
12491SOL    HW139370  12.701  12.112   6.695
12491SOL    HW239371  12.611  12.202   6.777
12492SOL     OW39372  10.599   4.506   3.426
12492SOL    HW139373  10.582   4.531   3.335
12492SOL    HW239374  10.691   4.478   3.426
12493SOL     OW39375   3.189   7.337   7.681
12493SOL    HW139376   3.127   7.395   7.637
12493SOL    HW239377   3.134   7.275   7.729
12494SOL     OW39378  13.660   9.961  14.662
12494SOL    HW139379  13.611   9.884  14.636
12494SOL    HW239380  13.647  10.023  14.590
12495SOL     OW39381   3.875   1.022  14.039
12495SOL    HW139382   3.848   1.006  14.129
12495SOL    HW239383   3.906   0.937  14.008
12496SOL     OW39384  12.082   0.842   5.860
12496SOL    HW139385  12.105   0.935   5.858
12496SOL    HW239386  12.165   0.798   5.879
12497SOL     OW39387   4.518   0.208   7.180
12497SOL    HW139388   4.439   0.262   7.170
12497SOL    HW239389   4.520   0.186   7.273
12498SOL     OW39390  10.792   7.455   5.677
12498SOL    HW139391  10.711   7.409   5.701
12498SOL    HW239392  10.861   7.390   5.690
12499SOL     OW39393   1.824   7.849   1.356
12499SOL    HW139394   1.829   7.767   1.404
12499SOL    HW239395   1.873   7.911   1.410
12500SOL     OW39396  11.883   9.356   5.617
12500SOL    HW139397  11.961   9.302   5.626
12500SOL    HW239398  11.916   9.441   5.587
12501SOL     OW39399  10.070   3.797   3.608
12501SOL    HW139400  10.059   3.839   3.522
12501SOL    HW239401  10.165   3.802   3.624
12502SOL     OW39402  11.599  10.269   3.022
12502SOL    HW139403  11.676  10.282   3.078
12502SOL    HW239404  11.635  10.258   2.934
12503SOL     OW39405  13.454   0.862   4.117
12503SOL    HW139406  13.430   0.954   4.132
12503SOL    HW239407  13.539   0.852   4.160
12504SOL     OW39408   7.394   2.980   6.356
12504SOL    HW139409   7.442   2.911   6.402
12504SOL    HW239410   7.459   3.048   6.341
12505SOL     OW39411   3.553  11.415   8.126
12505SOL    HW139412   3.534  11.466   8.048
12505SOL    HW239413   3.608  11.343   8.096
12506SOL     OW39414  12.464   4.220   2.416
12506SOL    HW139415  12.464   4.294   2.355
12506SOL    HW239416  12.536   4.164   2.386
12507SOL     OW39417  11.449   9.556   4.043
12507SOL    HW139418  11.362   9.588   4.017
12507SOL    HW239419  11.445   9.554   4.139
12508SOL     OW39420   1.524   7.198   0.851
12508SOL    HW139421   1.533   7.113   0.809
12508SOL    HW239422   1.431   7.203   0.876
12509SOL     OW39423  13.919  11.561   3.498
12509SOL    HW139424  13.839  11.537   3.450
12509SOL    HW239425  13.901  11.649   3.533
12510SOL     OW39426  13.811   5.702   9.951
12510SOL    HW139427  13.884   5.695  10.012
12510SOL    HW239428  13.851   5.723   9.866
12511SOL     OW39429   8.565   9.952   0.678
12511SOL    HW139430   8.478   9.917   0.656
12511SOL    HW239431   8.560   9.972   0.771
12512SOL     OW39432   6.191  12.569   0.848
12512SOL    HW139433   6.115  12.599   0.797
12512SOL    HW239434   6.171  12.595   0.938
12513SOL     OW39435  10.534  11.463   7.707
12513SOL    HW139436  10.588  11.410   7.649
12513SOL    HW239437  10.464  11.404   7.736
12514SOL     OW39438  10.151   7.290   4.132
12514SOL    HW139439  10.107   7.370   4.105
12514SOL    HW239440  10.202   7.316   4.209
12515SOL     OW39441   6.368   0.978   1.002
12515SOL    HW139442   6.407   1.008   1.084
12515SOL    HW239443   6.415   0.897   0.982
12516SOL     OW39444   8.895   3.141   0.946
12516SOL    HW139445   8.939   3.138   0.861
12516SOL    HW239446   8.818   3.086   0.935
12517SOL     OW39447  13.845   8.597   7.805
12517SOL    HW139448  13.838   8.677   7.752
12517SOL    HW239449  13.766   8.547   7.784
12518SOL     OW39450  12.452  13.821  13.603
12518SOL    HW139451  12.447  13.878  13.679
12518SOL    HW239452  12.499  13.743  13.633
12519SOL     OW39453   0.319   3.213   2.565
12519SOL    HW139454   0.375   3.140   2.591
12519SOL    HW239455   0.258   3.175   2.502
12520SOL     OW39456   4.930  10.351  14.492
12520SOL    HW139457   4.971  10.434  14.468
12520SOL    HW239458   4.836  10.369  14.491
12521SOL     OW39459  14.638   0.255   8.421
12521SOL    HW139460  14.666   0.297   8.339
12521SOL    HW239461  14.712   0.200   8.446
12522SOL     OW39462   5.292  12.464  14.616
12522SOL    HW139463   5.286  12.464  14.520
12522SOL    HW239464   5.206  12.493  14.646
12523SOL     OW39465   7.173   1.420  10.494
12523SOL    HW139466   7.183   1.345  10.553
12523SOL    HW239467   7.082   1.446  10.505
12524SOL     OW39468   4.931  13.191   3.531
12524SOL    HW139469   5.027  13.196   3.530
12524SOL    HW239470   4.911  13.109   3.487
12525SOL     OW39471   0.057   6.000  14.489
12525SOL    HW139472   0.073   6.072  14.429
12525SOL    HW239473   0.001   6.038  14.557
12526SOL     OW39474   8.668   9.798   3.680
12526SOL    HW139475   8.612   9.875   3.667
12526SOL    HW239476   8.651   9.771   3.770
12527SOL     OW39477  11.814   3.508   8.931
12527SOL    HW139478  11.744   3.527   8.994
12527SOL    HW239479  11.891   3.548   8.969
12528SOL     OW39480   1.252  12.496   3.296
12528SOL    HW139481   1.325  12.548   3.265
12528SOL    HW239482   1.269  12.408   3.263
12529SOL     OW39483  13.133   3.606   0.495
12529SOL    HW139484  13.130   3.683   0.552
12529SOL    HW239485  13.080   3.540   0.540
12530SOL     OW39486   1.332  14.025   0.403
12530SOL    HW139487   1.416  13.984   0.382
12530SOL    HW239488   1.355  14.095   0.464
12531SOL     OW39489  11.281   6.694  10.295
12531SOL    HW139490  11.270   6.771  10.351
12531SOL    HW239491  11.226   6.627  10.336
12532SOL     OW39492   1.366   3.876   3.895
12532SOL    HW139493   1.405   3.817   3.959
12532SOL    HW239494   1.435   3.890   3.831
12533SOL     OW39495   8.129   0.267   6.980
12533SOL    HW139496   8.036   0.283   6.999
12533SOL    HW239497   8.134   0.272   6.884
12534SOL     OW39498   5.260   4.522  13.126
12534SOL    HW139499   5.342   4.570  13.134
12534SOL    HW239500   5.286   4.432  13.110
12535SOL     OW39501   7.950   4.367   0.382
12535SOL    HW139502   7.901   4.300   0.335
12535SOL    HW239503   8.042   4.350   0.362
12536SOL     OW39504  14.596   0.078   5.019
12536SOL    HW139505  14.574   0.047   5.107
12536SOL    HW239506  14.667   0.021   4.990
12537SOL     OW39507   7.804  11.363   2.248
12537SOL    HW139508   7.877  11.308   2.275
12537SOL    HW239509   7.828  11.394   2.161
12538SOL     OW39510  10.177  11.201   5.275
12538SOL    HW139511  10.155  11.150   5.197
12538SOL    HW239512  10.094  11.240   5.303
12539SOL     OW39513   7.678   3.532  10.445
12539SOL    HW139514   7.649   3.616  10.481
12539SOL    HW239515   7.765   3.551  10.409
12540SOL     OW39516   5.588   1.854   0.377
12540SOL    HW139517   5.505   1.841   0.423
12540SOL    HW239518   5.576   1.807   0.294
12541SOL     OW39519   0.220   0.604  11.256
12541SOL    HW139520   0.196   0.527  11.307
12541SOL    HW239521   0.258   0.664  11.320
12542SOL     OW39522   7.375   5.977  13.186
12542SOL    HW139523   7.316   5.974  13.261
12542SOL    HW239524   7.347   6.055  13.137
12543SOL     OW39525   9.303   8.933   3.428
12543SOL    HW139526   9.347   8.979   3.500
12543SOL    HW239527   9.317   8.841   3.447
12544SOL     OW39528  14.320   8.679   8.696
12544SOL    HW139529  14.299   8.603   8.751
12544SOL    HW239530  14.339   8.643   8.610
12545SOL     OW39531  14.666   1.207   4.895
12545SOL    HW139532  14.677   1.257   4.813
12545SOL    HW239533  14.636   1.272   4.958
12546SOL     OW39534   1.020   9.243   5.263
12546SOL    HW139535   1.081   9.243   5.190
12546SOL    HW239536   0.984   9.155   5.265
12547SOL     OW39537   7.152   0.590   9.852
12547SOL    HW139538   7.118   0.678   9.865
12547SOL    HW239539   7.141   0.574   9.758
12548SOL     OW39540  11.580  11.461   8.654
12548SOL    HW139541  11.515  11.489   8.590
12548SOL    HW239542  11.659  11.446   8.602
12549SOL     OW39543   3.000   2.502  10.983
12549SOL    HW139544   2.924   2.473  10.932
12549SOL    HW239545   2.974   2.588  11.018
12550SOL     OW39546   5.448   9.027  11.507
12550SOL    HW139547   5.439   8.957  11.443
12550SOL    HW239548   5.383   9.007  11.574
12551SOL     OW39549   5.968  10.385   0.367
12551SOL    HW139550   5.892  10.443   0.354
12551SOL    HW239551   5.967  10.327   0.291
12552SOL     OW39552   4.799   9.147   9.210
12552SOL    HW139553   4.748   9.069   9.190
12552SOL    HW239554   4.872   9.144   9.148
12553SOL     OW39555   6.482   3.932  11.969
12553SOL    HW139556   6.473   3.848  11.924
12553SOL    HW239557   6.537   3.985  11.911
12554SOL     OW39558  13.872   0.817   5.594
12554SOL    HW139559  13.840   0.816   5.684
12554SOL    HW239560  13.881   0.725   5.571
12555SOL     OW39561   4.041   5.183   4.465
12555SOL    HW139562   4.124   5.162   4.423
12555SOL    HW239563   3.975   5.139   4.412
12556SOL     OW39564   0.644  12.808  14.512
12556SOL    HW139565   0.550  12.822  14.502
12556SOL    HW239566   0.684  12.885  14.470
12557SOL     OW39567   7.402   3.187   3.712
12557SOL    HW139568   7.369   3.260   3.661
12557SOL    HW239569   7.371   3.204   3.801
12558SOL     OW39570  10.042   0.486   4.835
12558SOL    HW139571   9.970   0.548   4.825
12558SOL    HW239572  10.034   0.427   4.760
12559SOL     OW39573   9.453  14.181   4.501
12559SOL    HW139574   9.457  14.086   4.510
12559SOL    HW239575   9.370  14.198   4.458
12560SOL     OW39576   2.276  10.644   4.944
12560SOL    HW139577   2.335  10.622   5.017
12560SOL    HW239578   2.190  10.611   4.973
12561SOL     OW39579   5.540  10.067  10.004
12561SOL    HW139580   5.498  10.110  10.078
12561SOL    HW239581   5.572  10.139   9.950
12562SOL     OW39582   7.852  10.460   0.559
12562SOL    HW139583   7.816  10.374   0.537
12562SOL    HW239584   7.833  10.472   0.652
12563SOL     OW39585   4.521  13.306   5.082
12563SOL    HW139586   4.476  13.385   5.111
12563SOL    HW239587   4.535  13.255   5.162
12564SOL     OW39588  10.457   6.343  14.283
12564SOL    HW139589  10.441   6.328  14.189
12564SOL    HW239590  10.538   6.393  14.286
12565SOL     OW39591   9.546  12.008   9.140
12565SOL    HW139592   9.627  11.959   9.151
12565SOL    HW239593   9.533  12.052   9.224
12566SOL     OW39594   8.250   5.835   3.613
12566SOL    HW139595   8.178   5.856   3.554
12566SOL    HW239596   8.305   5.913   3.612
12567SOL     OW39597   2.135   1.051   7.300
12567SOL    HW139598   2.107   1.140   7.281
12567SOL    HW239599   2.104   1.034   7.389
12568SOL     OW39600  11.560  11.719  14.000
12568SOL    HW139601  11.503  11.680  13.935
12568SOL    HW239602  11.644  11.674  13.989
12569SOL     OW39603   5.686   2.647   5.760
12569SOL    HW139604   5.594   2.633   5.734
12569SOL    HW239605   5.722   2.703   5.692
12570SOL     OW39606   3.665  10.596  12.205
12570SOL    HW139607   3.715  10.535  12.152
12570SOL    HW239608   3.626  10.657  12.141
12571SOL     OW39609   8.322  12.181   3.154
12571SOL    HW139610   8.229  12.197   3.145
12571SOL    HW239611   8.329  12.108   3.216
12572SOL     OW39612  11.777   0.566   6.758
12572SOL    HW139613  11.861   0.539   6.720
12572SOL    HW239614  11.801   0.603   6.843
12573SOL     OW39615   1.232   4.304  10.225
12573SOL    HW139616   1.206   4.333  10.313
12573SOL    HW239617   1.196   4.370  10.166
12574SOL     OW39618   5.812   2.508   4.342
12574SOL    HW139619   5.898   2.466   4.348
12574SOL    HW239620   5.809   2.566   4.418
12575SOL     OW39621   2.474  10.876  12.472
12575SOL    HW139622   2.512  10.788  12.467
12575SOL    HW239623   2.508  10.912  12.554
12576SOL     OW39624  13.001   0.104   2.615
12576SOL    HW139625  12.947   0.056   2.678
12576SOL    HW239626  13.017   0.041   2.545
12577SOL     OW39627  13.333   3.991  10.520
12577SOL    HW139628  13.397   4.055  10.488
12577SOL    HW239629  13.354   3.981  10.613
12578SOL     OW39630   5.575   7.507   3.061
12578SOL    HW139631   5.617   7.471   3.140
12578SOL    HW239632   5.624   7.588   3.043
12579SOL     OW39633   9.695  11.605  14.734
12579SOL    HW139634   9.684  11.558  14.651
12579SOL    HW239635   9.782  11.579  14.764
12580SOL     OW39636  14.633   6.112   7.208
12580SOL    HW139637  14.612   6.129   7.300
12580SOL    HW239638  14.664   6.196   7.174
12581SOL     OW39639   3.958  13.347  11.867
12581SOL    HW139640   3.944  13.415  11.933
12581SOL    HW239641   3.878  13.347  11.815
12582SOL     OW39642   9.582   6.512  14.507
12582SOL    HW139643   9.516   6.510  14.438
12582SOL    HW239644   9.543   6.567  14.575
12583SOL     OW39645   9.977   9.415   5.914
12583SOL    HW139646   9.925   9.493   5.934
12583SOL    HW239647   9.937   9.346   5.967
12584SOL     OW39648   1.924   3.613   0.825
12584SOL    HW139649   1.873   3.541   0.861
12584SOL    HW239650   1.887   3.692   0.864
12585SOL     OW39651   4.251  10.728  12.160
12585SOL    HW139652   4.293  10.659  12.211
12585SOL    HW239653   4.189  10.768  12.221
12586SOL     OW39654   9.667  11.981   7.356
12586SOL    HW139655   9.647  12.029   7.437
12586SOL    HW239656   9.733  11.916   7.383
12587SOL     OW39657   6.006   0.761   3.299
12587SOL    HW139658   6.098   0.735   3.307
12587SOL    HW239659   5.963   0.685   3.261
12588SOL     OW39660   9.213  13.158   3.489
12588SOL    HW139661   9.191  13.122   3.403
12588SOL    HW239662   9.264  13.236   3.470
12589SOL     OW39663   2.630  14.309   9.439
12589SOL    HW139664   2.540  14.333   9.460
12589SOL    HW239665   2.628  14.292   9.345
12590SOL     OW39666  12.920   5.769  10.824
12590SOL    HW139667  12.901   5.862  10.821
12590SOL    HW239668  12.932   5.749  10.917
12591SOL     OW39669   7.840   3.462   6.905
12591SOL    HW139670   7.794   3.453   6.988
12591SOL    HW239671   7.820   3.552   6.877
12592SOL     OW39672   8.209   2.609   2.284
12592SOL    HW139673   8.216   2.515   2.301
12592SOL    HW239674   8.122   2.633   2.316
12593SOL     OW39675  11.572   3.730   0.315
12593SOL    HW139676  11.592   3.820   0.292
12593SOL    HW239677  11.555   3.686   0.232
12594SOL     OW39678   1.713   5.827   4.071
12594SOL    HW139679   1.634   5.809   4.020
12594SOL    HW239680   1.756   5.899   4.025
12595SOL     OW39681  11.241  12.738   7.939
12595SOL    HW139682  11.234  12.672   8.008
12595SOL    HW239683  11.261  12.688   7.860
12596SOL     OW39684  14.078  13.637   5.922
12596SOL    HW139685  14.118  13.720   5.948
12596SOL    HW239686  14.091  13.579   5.998
12597SOL     OW39687   4.722   4.461   5.592
12597SOL    HW139688   4.667   4.478   5.516
12597SOL    HW239689   4.806   4.434   5.555
12598SOL     OW39690  13.395   9.998   3.306
12598SOL    HW139691  13.368  10.004   3.214
12598SOL    HW239692  13.437   9.912   3.313
12599SOL     OW39693  13.162  13.074   8.091
12599SOL    HW139694  13.104  13.144   8.120
12599SOL    HW239695  13.109  13.023   8.029
12600SOL     OW39696  14.573  14.737   0.222
12600SOL    HW139697  14.532  14.739   0.309
12600SOL    HW239698  14.647  14.797   0.229
12601SOL     OW39699   4.931  14.763   0.611
12601SOL    HW139700   4.995  14.696   0.585
12601SOL    HW239701   4.888  14.725   0.688
12602SOL     OW39702   7.932   4.539   6.245
12602SOL    HW139703   7.976   4.623   6.259
12602SOL    HW239704   7.843   4.552   6.279
12603SOL     OW39705   5.796   5.215   4.636
12603SOL    HW139706   5.829   5.154   4.701
12603SOL    HW239707   5.874   5.247   4.591
12604SOL     OW39708  11.512   6.305   9.954
12604SOL    HW139709  11.573   6.377   9.967
12604SOL    HW239710  11.506   6.262  10.040
12605SOL     OW39711   9.877   6.894   9.535
12605SOL    HW139712   9.958   6.937   9.560
12605SOL    HW239713   9.878   6.894   9.440
12606SOL     OW39714   5.215  11.764   9.217
12606SOL    HW139715   5.252  11.746   9.131
12606SOL    HW239716   5.196  11.677   9.253
12607SOL     OW39717   1.202   6.084   4.042
12607SOL    HW139718   1.268   6.055   4.105
12607SOL    HW239719   1.167   6.003   4.004
12608SOL     OW39720   6.862   7.452   9.347
12608SOL    HW139721   6.898   7.396   9.278
12608SOL    HW239722   6.768   7.438   9.341
12609SOL     OW39723   7.733   2.737   8.400
12609SOL    HW139724   7.762   2.797   8.331
12609SOL    HW239725   7.807   2.678   8.413
12610SOL     OW39726   1.398  10.165  14.869
12610SOL    HW139727   1.454  10.230  14.824
12610SOL    HW239728   1.436  10.158   0.075
12611SOL     OW39729   5.553  13.550   4.715
12611SOL    HW139730   5.605  13.474   4.744
12611SOL    HW239731   5.616  13.606   4.671
12612SOL     OW39732  14.653   3.288   9.406
12612SOL    HW139733  14.634   3.324   9.319
12612SOL    HW239734  14.573   3.242   9.431
12613SOL     OW39735  13.825  10.793   6.572
12613SOL    HW139736  13.775  10.773   6.492
12613SOL    HW239737  13.831  10.889   6.573
12614SOL     OW39738   1.599  11.759  13.394
12614SOL    HW139739   1.641  11.784  13.476
12614SOL    HW239740   1.662  11.784  13.326
12615SOL     OW39741   8.457   0.432  12.833
12615SOL    HW139742   8.461   0.352  12.781
12615SOL    HW239743   8.472   0.403  12.923
12616SOL     OW39744  14.406   1.631   4.930
12616SOL    HW139745  14.475   1.649   4.867
12616SOL    HW239746  14.401   1.710   4.984
12617SOL     OW39747   7.793  14.509   1.083
12617SOL    HW139748   7.765  14.444   1.148
12617SOL    HW239749   7.816  14.456   1.006
12618SOL     OW39750   5.170  13.320   2.991
12618SOL    HW139751   5.168  13.292   2.900
12618SOL    HW239752   5.114  13.259   3.037
12619SOL     OW39753   3.743   4.959   3.811
12619SOL    HW139754   3.710   5.048   3.814
12619SOL    HW239755   3.688   4.910   3.873
12620SOL     OW39756   4.810   6.888   2.503
12620SOL    HW139757   4.891   6.837   2.503
12620SOL    HW239758   4.831   6.967   2.453
12621SOL     OW39759   4.831   8.003   5.571
12621SOL    HW139760   4.909   7.997   5.627
12621SOL    HW239761   4.780   7.926   5.593
12622SOL     OW39762   2.066  14.354  10.752
12622SOL    HW139763   2.049  14.410  10.828
12622SOL    HW239764   2.120  14.408  10.695
12623SOL     OW39765  14.549   3.888   5.467
12623SOL    HW139766  14.559   3.906   5.374
12623SOL    HW239767  14.495   3.960   5.500
12624SOL     OW39768   0.193   5.086   6.741
12624SOL    HW139769   0.145   5.163   6.714
12624SOL    HW239770   0.144   5.012   6.704
12625SOL     OW39771   6.554  11.007   1.375
12625SOL    HW139772   6.495  10.934   1.395
12625SOL    HW239773   6.642  10.972   1.392
12626SOL     OW39774  11.444  13.086  13.090
12626SOL    HW139775  11.520  13.083  13.032
12626SOL    HW239776  11.455  13.009  13.147
12627SOL     OW39777   3.013   7.336   3.096
12627SOL    HW139778   2.978   7.260   3.144
12627SOL    HW239779   3.055   7.390   3.163
12628SOL     OW39780   2.249  13.859  12.193
12628SOL    HW139781   2.214  13.876  12.280
12628SOL    HW239782   2.245  13.943  12.148
12629SOL     OW39783  11.787  10.218   4.576
12629SOL    HW139784  11.713  10.173   4.617
12629SOL    HW239785  11.758  10.309   4.568
12630SOL     OW39786  13.363   0.209   9.130
12630SOL    HW139787  13.347   0.273   9.060
12630SOL    HW239788  13.281   0.208   9.180
12631SOL     OW39789  13.632   3.251   2.700
12631SOL    HW139790  13.673   3.226   2.782
12631SOL    HW239791  13.610   3.168   2.658
12632SOL     OW39792   3.385  12.232  14.497
12632SOL    HW139793   3.449  12.165  14.472
12632SOL    HW239794   3.405  12.251  14.589
12633SOL     OW39795  13.113   8.174  11.412
12633SOL    HW139796  13.061   8.245  11.450
12633SOL    HW239797  13.196   8.216  11.387
12634SOL     OW39798   5.579   7.860   5.911
12634SOL    HW139799   5.658   7.828   5.955
12634SOL    HW239800   5.522   7.888   5.983
12635SOL     OW39801   5.194   9.339   4.702
12635SOL    HW139802   5.236   9.253   4.712
12635SOL    HW239803   5.130   9.342   4.773
12636SOL     OW39804   2.857   6.155   9.584
12636SOL    HW139805   2.821   6.200   9.507
12636SOL    HW239806   2.800   6.182   9.656
12637SOL     OW39807   7.877   7.192   7.063
12637SOL    HW139808   7.827   7.113   7.085
12637SOL    HW239809   7.918   7.217   7.146
12638SOL     OW39810   0.306  11.888   5.205
12638SOL    HW139811   0.220  11.910   5.242
12638SOL    HW239812   0.312  11.942   5.126
12639SOL     OW39813   8.869   3.939  12.767
12639SOL    HW139814   8.950   3.903  12.732
12639SOL    HW239815   8.800   3.883  12.731
12640SOL     OW39816   4.341   7.948  13.345
12640SOL    HW139817   4.287   8.003  13.402
12640SOL    HW239818   4.361   8.004  13.269
12641SOL     OW39819   9.437  12.387   7.871
12641SOL    HW139820   9.481  12.389   7.786
12641SOL    HW239821   9.501  12.351   7.931
12642SOL     OW39822  11.737   8.605   3.010
12642SOL    HW139823  11.776   8.524   3.044
12642SOL    HW239824  11.806   8.670   3.021
12643SOL     OW39825  12.478   6.988   4.266
12643SOL    HW139826  12.496   6.898   4.238
12643SOL    HW239827  12.391   6.984   4.305
12644SOL     OW39828  13.220   8.752   7.361
12644SOL    HW139829  13.310   8.727   7.337
12644SOL    HW239830  13.222   8.755   7.457
12645SOL     OW39831   7.193   0.934   7.798
12645SOL    HW139832   7.209   0.967   7.710
12645SOL    HW239833   7.119   0.875   7.789
12646SOL     OW39834   8.185  13.208   6.484
12646SOL    HW139835   8.132  13.214   6.563
12646SOL    HW239836   8.131  13.157   6.423
12647SOL     OW39837   7.108  13.161  12.061
12647SOL    HW139838   7.185  13.105  12.071
12647SOL    HW239839   7.045  13.107  12.013
12648SOL     OW39840  10.503  13.904  14.723
12648SOL    HW139841  10.572  13.880  14.662
12648SOL    HW239842  10.463  13.982  14.686
12649SOL     OW39843   5.607   5.725   8.033
12649SOL    HW139844   5.648   5.648   7.993
12649SOL    HW239845   5.672   5.757   8.096
12650SOL     OW39846   9.271  10.814  10.632
12650SOL    HW139847   9.261  10.893  10.580
12650SOL    HW239848   9.294  10.844  10.719
12651SOL     OW39849   7.431   1.841  14.802
12651SOL    HW139850   7.437   1.746  14.795
12651SOL    HW239851   7.370   1.856  14.874
12652SOL     OW39852  10.726   2.733  10.673
12652SOL    HW139853  10.674   2.670  10.623
12652SOL    HW239854  10.716   2.706  10.764
12653SOL     OW39855  10.257  10.708  13.156
12653SOL    HW139856  10.271  10.623  13.115
12653SOL    HW239857  10.345  10.738  13.178
12654SOL     OW39858   3.459   6.788   5.540
12654SOL    HW139859   3.442   6.765   5.631
12654SOL    HW239860   3.481   6.705   5.497
12655SOL     OW39861  11.692  11.927   4.455
12655SOL    HW139862  11.665  11.961   4.369
12655SOL    HW239863  11.613  11.936   4.509
12656SOL     OW39864   8.102   5.301   6.998
12656SOL    HW139865   8.084   5.209   6.982
12656SOL    HW239866   8.123   5.307   7.091
12657SOL     OW39867  14.566   8.161   3.159
12657SOL    HW139868  14.561   8.215   3.080
12657SOL    HW239869  14.489   8.188   3.210
12658SOL     OW39870  14.067   5.662   6.068
12658SOL    HW139871  14.018   5.639   6.147
12658SOL    HW239872  14.036   5.600   6.002
12659SOL     OW39873  13.354   6.378  11.702
12659SOL    HW139874  13.444   6.396  11.728
12659SOL    HW239875  13.324   6.310  11.763
12660SOL     OW39876   7.524   9.584   5.710
12660SOL    HW139877   7.452   9.597   5.648
12660SOL    HW239878   7.494   9.625   5.791
12661SOL     OW39879   9.081   0.092   4.495
12661SOL    HW139880   9.114   0.088   4.585
12661SOL    HW239881   8.986   0.102   4.506
12662SOL     OW39882   3.927  14.764   5.753
12662SOL    HW139883   4.018  14.795   5.746
12662SOL    HW239884   3.932  14.670   5.737
12663SOL     OW39885   6.516  10.953  13.952
12663SOL    HW139886   6.525  10.858  13.943
12663SOL    HW239887   6.562  10.988  13.875
12664SOL     OW39888   2.565  10.187   0.804
12664SOL    HW139889   2.553  10.236   0.723
12664SOL    HW239890   2.609  10.106   0.777
12665SOL     OW39891   3.284   2.502  13.516
12665SOL    HW139892   3.209   2.501  13.575
12665SOL    HW239893   3.246   2.487  13.429
12666SOL     OW39894   0.301  14.447  10.111
12666SOL    HW139895   0.349  14.440  10.193
12666SOL    HW239896   0.351  14.394  10.049
12667SOL     OW39897   0.296   0.565  12.072
12667SOL    HW139898   0.364   0.633  12.067
12667SOL    HW239899   0.214   0.613  12.075
12668SOL     OW39900  10.487  11.721   2.404
12668SOL    HW139901  10.444  11.656   2.347
12668SOL    HW239902  10.497  11.798   2.348
12669SOL     OW39903  14.282   5.178   2.174
12669SOL    HW139904  14.221   5.105   2.165
12669SOL    HW239905  14.346   5.164   2.103
12670SOL     OW39906   6.890   0.718  13.074
12670SOL    HW139907   6.984   0.734  13.064
12670SOL    HW239908   6.884   0.625  13.094
12671SOL     OW39909  13.545   0.938  13.943
12671SOL    HW139910  13.588   0.871  13.890
12671SOL    HW239911  13.515   0.891  14.021
12672SOL     OW39912   6.422   4.517   8.814
12672SOL    HW139913   6.351   4.463   8.777
12672SOL    HW239914   6.495   4.504   8.754
12673SOL     OW39915   6.729   9.194  12.594
12673SOL    HW139916   6.682   9.141  12.529
12673SOL    HW239917   6.668   9.265  12.615
12674SOL     OW39918   3.500   1.978  13.455
12674SOL    HW139919   3.560   2.043  13.493
12674SOL    HW239920   3.415   1.997  13.495
12675SOL     OW39921   6.883   8.571  11.844
12675SOL    HW139922   6.859   8.527  11.763
12675SOL    HW239923   6.898   8.500  11.906
12676SOL     OW39924   0.806  10.930   0.690
12676SOL    HW139925   0.841  10.842   0.676
12676SOL    HW239926   0.713  10.922   0.668
12677SOL     OW39927  14.451   4.606   4.461
12677SOL    HW139928  14.470   4.663   4.386
12677SOL    HW239929  14.357   4.616   4.475
12678SOL     OW39930   9.428   3.039   9.950
12678SOL    HW139931   9.429   3.048   9.854
12678SOL    HW239932   9.470   2.954   9.966
12679SOL     OW39933  11.095   4.376   3.698
12679SOL    HW139934  11.085   4.438   3.626
12679SOL    HW239935  11.107   4.431   3.775
12680SOL     OW39936   4.811   2.005   2.730
12680SOL    HW139937   4.805   2.079   2.791
12680SOL    HW239938   4.720   1.981   2.713
12681SOL     OW39939   1.417   5.657   1.660
12681SOL    HW139940   1.339   5.612   1.630
12681SOL    HW239941   1.439   5.615   1.743
12682SOL     OW39942  14.663  13.072   1.897
12682SOL    HW139943  14.703  13.097   1.980
12682SOL    HW239944  14.612  12.993   1.918
12683SOL     OW39945  10.851   9.470   2.019
12683SOL    HW139946  10.861   9.468   1.924
12683SOL    HW239947  10.916   9.534   2.049
12684SOL     OW39948   5.029  10.285   8.286
12684SOL    HW139949   4.975  10.242   8.221
12684SOL    HW239950   5.100  10.326   8.236
12685SOL     OW39951  11.362   7.311   1.503
12685SOL    HW139952  11.379   7.228   1.459
12685SOL    HW239953  11.431   7.370   1.471
12686SOL     OW39954   7.585   6.965   3.332
12686SOL    HW139955   7.490   6.970   3.324
12686SOL    HW239956   7.602   6.880   3.372
12687SOL     OW39957   8.380  14.358   4.250
12687SOL    HW139958   8.374  14.334   4.157
12687SOL    HW239959   8.473  14.375   4.264
12688SOL     OW39960   5.900  11.563   2.146
12688SOL    HW139961   5.827  11.624   2.132
12688SOL    HW239962   5.949  11.601   2.219
12689SOL     OW39963  11.659   4.264   3.461
12689SOL    HW139964  11.699   4.237   3.379
12689SOL    HW239965  11.583   4.207   3.471
12690SOL     OW39966   3.955   7.514   0.544
12690SOL    HW139967   3.912   7.493   0.627
12690SOL    HW239968   3.886   7.505   0.478
12691SOL     OW39969  12.724  14.452  11.938
12691SOL    HW139970  12.653  14.397  11.971
12691SOL    HW239971  12.703  14.540  11.967
12692SOL     OW39972  14.346   8.215   7.482
12692SOL    HW139973  14.431   8.186   7.517
12692SOL    HW239974  14.300   8.135   7.460
12693SOL     OW39975   2.462  14.192   3.806
12693SOL    HW139976   2.471  14.221   3.897
12693SOL    HW239977   2.501  14.263   3.755
12694SOL     OW39978  10.986  11.957   9.336
12694SOL    HW139979  10.936  11.974   9.257
12694SOL    HW239980  11.044  12.033   9.344
12695SOL     OW39981   6.402  11.658  11.491
12695SOL    HW139982   6.311  11.643  11.466
12695SOL    HW239983   6.411  11.753  11.494
12696SOL     OW39984  13.433   3.706   1.406
12696SOL    HW139985  13.432   3.751   1.490
12696SOL    HW239986  13.519   3.725   1.369
12697SOL     OW39987   6.519   6.286  11.954
12697SOL    HW139988   6.540   6.340  12.030
12697SOL    HW239989   6.569   6.323  11.883
12698SOL     OW39990   8.031  11.593   9.689
12698SOL    HW139991   7.956  11.533   9.697
12698SOL    HW239992   8.107  11.535   9.685
12699SOL     OW39993   1.614  12.764   8.041
12699SOL    HW139994   1.562  12.844   8.027
12699SOL    HW239995   1.637  12.766   8.134
12700SOL     OW39996   1.082   3.522   2.232
12700SOL    HW139997   1.123   3.497   2.314
12700SOL    HW239998   1.034   3.444   2.204
12701SOL     OW39999   9.703   2.635   1.686
12701SOL    HW140000   9.637   2.567   1.674
12701SOL    HW240001   9.770   2.616   1.620
12702SOL     OW40002   7.783   5.945  10.861
12702SOL    HW140003   7.817   6.027  10.824
12702SOL    HW240004   7.701   5.970  10.904
12703SOL     OW40005  10.820   6.746   0.300
12703SOL    HW140006  10.837   6.685   0.228
12703SOL    HW240007  10.774   6.819   0.259
12704SOL     OW40008   1.386  11.522  13.821
12704SOL    HW140009   1.469  11.498  13.780
12704SOL    HW240010   1.379  11.616  13.808
12705SOL     OW40011   1.719   1.322   1.314
12705SOL    HW140012   1.687   1.409   1.340
12705SOL    HW240013   1.720   1.324   1.219
12706SOL     OW40014   7.611   2.052  13.712
12706SOL    HW140015   7.631   2.099  13.631
12706SOL    HW240016   7.640   2.111  13.782
12707SOL     OW40017   9.049  14.108   1.327
12707SOL    HW140018   8.965  14.106   1.282
12707SOL    HW240019   9.099  14.175   1.281
12708SOL     OW40020   4.696   6.168   6.345
12708SOL    HW140021   4.619   6.165   6.287
12708SOL    HW240022   4.741   6.085   6.329
12709SOL     OW40023   6.559   0.110   4.330
12709SOL    HW140024   6.532   0.033   4.279
12709SOL    HW240025   6.498   0.178   4.303
12710SOL     OW40026   5.707  10.365  13.557
12710SOL    HW140027   5.665  10.357  13.472
12710SOL    HW240028   5.760  10.444  13.551
12711SOL     OW40029   1.974   2.269   5.557
12711SOL    HW140030   2.017   2.326   5.493
12711SOL    HW240031   2.020   2.286   5.639
12712SOL     OW40032  11.649   2.335   5.286
12712SOL    HW140033  11.660   2.240   5.285
12712SOL    HW240034  11.575   2.351   5.228
12713SOL     OW40035   3.053  12.231   5.594
12713SOL    HW140036   3.022  12.268   5.677
12713SOL    HW240037   2.978  12.182   5.561
12714SOL     OW40038  13.979  10.928   8.556
12714SOL    HW140039  13.984  10.906   8.650
12714SOL    HW240040  14.070  10.922   8.526
12715SOL     OW40041   4.528   4.849   6.247
12715SOL    HW140042   4.596   4.892   6.194
12715SOL    HW240043   4.505   4.914   6.313
12716SOL     OW40044  10.383  12.477   2.819
12716SOL    HW140045  10.375  12.497   2.725
12716SOL    HW240046  10.354  12.556   2.863
12717SOL     OW40047   6.333  13.012  10.516
12717SOL    HW140048   6.274  13.043  10.585
12717SOL    HW240049   6.416  13.058  10.533
12718SOL     OW40050   1.577   6.791  13.624
12718SOL    HW140051   1.569   6.705  13.665
12718SOL    HW240052   1.495   6.802  13.576
12719SOL     OW40053   7.602  11.580  10.394
12719SOL    HW140054   7.506  11.579  10.391
12719SOL    HW240055   7.628  11.614  10.308
12720SOL     OW40056   8.465   0.689   7.315
12720SOL    HW140057   8.435   0.747   7.245
12720SOL    HW240058   8.556   0.670   7.292
12721SOL     OW40059  10.260   1.483   6.884
12721SOL    HW140060  10.278   1.411   6.943
12721SOL    HW240061  10.233   1.555   6.941
12722SOL     OW40062  14.812   4.203   4.401
12722SOL    HW140063  14.790   4.246   4.484
12722SOL    HW240064  14.783   4.265   4.334
12723SOL     OW40065   5.299   5.268   7.071
12723SOL    HW140066   5.336   5.224   6.995
12723SOL    HW240067   5.372   5.279   7.131
12724SOL     OW40068  10.281  13.513  10.349
12724SOL    HW140069  10.280  13.453  10.274
12724SOL    HW240070  10.263  13.457  10.424
12725SOL     OW40071  14.497   6.027  13.578
12725SOL    HW140072  14.513   6.001  13.669
12725SOL    HW240073  14.403   6.013  13.565
12726SOL     OW40074   4.708   1.891  13.052
12726SOL    HW140075   4.708   1.834  13.129
12726SOL    HW240076   4.789   1.869  13.006
12727SOL     OW40077  12.839   7.662   6.347
12727SOL    HW140078  12.894   7.661   6.269
12727SOL    HW240079  12.801   7.574   6.351
12728SOL     OW40080   6.350   5.039   0.007
12728SOL    HW140081   6.351   5.133   0.022
12728SOL    HW240082   6.281   5.005   0.064
12729SOL     OW40083   4.169   3.567  10.443
12729SOL    HW140084   4.131   3.487  10.407
12729SOL    HW240085   4.187   3.546  10.535
12730SOL     OW40086   5.686  13.969   2.644
12730SOL    HW140087   5.710  13.891   2.693
12730SOL    HW240088   5.739  13.965   2.565
12731SOL     OW40089   5.627   2.027   9.654
12731SOL    HW140090   5.641   2.106   9.705
12731SOL    HW240091   5.610   2.058   9.565
12732SOL     OW40092   7.272   7.957   1.535
12732SOL    HW140093   7.291   7.961   1.629
12732SOL    HW240094   7.182   7.925   1.530
12733SOL     OW40095  13.134   3.865  10.262
12733SOL    HW140096  13.226   3.890  10.257
12733SOL    HW240097  13.122   3.804  10.189
12734SOL     OW40098   6.913   0.541  14.271
12734SOL    HW140099   6.900   0.488  14.193
12734SOL    HW240100   6.988   0.597  14.250
12735SOL     OW40101   9.141  11.402  10.070
12735SOL    HW140102   9.134  11.307  10.079
12735SOL    HW240103   9.232  11.421  10.093
12736SOL     OW40104   4.447   1.507   4.267
12736SOL    HW140105   4.445   1.595   4.303
12736SOL    HW240106   4.539   1.492   4.244
12737SOL     OW40107  14.175  14.857   1.516
12737SOL    HW140108  14.144  14.795   1.581
12737SOL    HW240109  14.232   0.035   1.565
12738SOL     OW40110   4.999   6.711  13.296
12738SOL    HW140111   4.961   6.631  13.260
12738SOL    HW240112   5.052   6.747  13.224
12739SOL     OW40113   3.889   8.962   0.781
12739SOL    HW140114   3.984   8.968   0.778
12739SOL    HW240115   3.870   8.869   0.775
12740SOL     OW40116  12.598   0.399   7.851
12740SOL    HW140117  12.640   0.472   7.805
12740SOL    HW240118  12.505   0.411   7.836
12741SOL     OW40119   3.511  10.512   7.565
12741SOL    HW140120   3.488  10.553   7.649
12741SOL    HW240121   3.556  10.581   7.516
12742SOL     OW40122   5.026  13.555   3.741
12742SOL    HW140123   5.067  13.544   3.656
12742SOL    HW240124   5.046  13.646   3.766
12743SOL     OW40125   9.434   6.874  10.978
12743SOL    HW140126   9.509   6.875  10.918
12743SOL    HW240127   9.453   6.944  11.041
12744SOL     OW40128   0.788   6.730   5.723
12744SOL    HW140129   0.733   6.808   5.717
12744SOL    HW240130   0.795   6.713   5.817
12745SOL     OW40131   7.563  11.578   8.890
12745SOL    HW140132   7.637  11.598   8.832
12745SOL    HW240133   7.489  11.564   8.830
12746SOL     OW40134   4.555   2.168   2.603
12746SOL    HW140135   4.476   2.124   2.634
12746SOL    HW240136   4.526   2.218   2.526
12747SOL     OW40137   9.311  10.288   9.640
12747SOL    HW140138   9.350  10.228   9.702
12747SOL    HW240139   9.380  10.306   9.576
12748SOL     OW40140   3.888   2.163   3.731
12748SOL    HW140141   3.834   2.112   3.670
12748SOL    HW240142   3.830   2.180   3.805
12749SOL     OW40143   7.369  10.106   5.286
12749SOL    HW140144   7.436  10.126   5.352
12749SOL    HW240145   7.380  10.174   5.220
12750SOL     OW40146   5.084  11.060   0.779
12750SOL    HW140147   5.003  11.095   0.743
12750SOL    HW240148   5.135  11.137   0.804
12751SOL     OW40149  14.087  14.196   2.983
12751SOL    HW140150  14.142  14.120   2.962
12751SOL    HW240151  14.130  14.238   3.057
12752SOL     OW40152   5.070   7.643  12.863
12752SOL    HW140153   5.073   7.593  12.782
12752SOL    HW240154   4.992   7.612  12.908
12753SOL     OW40155   9.110   9.102  10.615
12753SOL    HW140156   9.188   9.155  10.626
12753SOL    HW240157   9.140   9.012  10.628
12754SOL     OW40158  13.224  14.855   5.990
12754SOL    HW140159  13.255  14.835   5.901
12754SOL    HW240160  13.132  14.880   5.978
12755SOL     OW40161   2.944   7.515   9.501
12755SOL    HW140162   3.020   7.562   9.535
12755SOL    HW240163   2.971   7.423   9.499
12756SOL     OW40164   5.167  12.651   4.974
12756SOL    HW140165   5.113  12.574   4.990
12756SOL    HW240166   5.149  12.675   4.883
12757SOL     OW40167   0.773  11.306  10.242
12757SOL    HW140168   0.789  11.305  10.337
12757SOL    HW240169   0.821  11.230  10.209
12758SOL     OW40170   3.481  14.471   4.857
12758SOL    HW140171   3.481  14.504   4.947
12758SOL    HW240172   3.556  14.514   4.815
12759SOL     OW40173   6.362   1.933   9.855
12759SOL    HW140174   6.274   1.969   9.868
12759SOL    HW240175   6.420   2.003   9.884
12760SOL     OW40176   1.756   9.299  10.101
12760SOL    HW140177   1.696   9.357  10.056
12760SOL    HW240178   1.699   9.239  10.150
12761SOL     OW40179   6.079   4.971   0.120
12761SOL    HW140180   6.069   5.041   0.056
12761SOL    HW240181   5.995   4.924   0.117
12762SOL     OW40182  14.328   5.258   4.558
12762SOL    HW140183  14.233   5.261   4.567
12762SOL    HW240184  14.343   5.186   4.496
12763SOL     OW40185   2.792   5.305   5.376
12763SOL    HW140186   2.838   5.237   5.425
12763SOL    HW240187   2.807   5.281   5.284
12764SOL     OW40188  10.146   8.645  13.031
12764SOL    HW140189  10.158   8.640  12.937
12764SOL    HW240190  10.147   8.554  13.061
12765SOL     OW40191  13.112  11.432  10.664
12765SOL    HW140192  13.046  11.432  10.595
12765SOL    HW240193  13.134  11.524  10.677
12766SOL     OW40194   1.035  11.218   7.031
12766SOL    HW140195   0.966  11.279   7.058
12766SOL    HW240196   1.044  11.234   6.937
12767SOL     OW40197   9.655   0.028   0.104
12767SOL    HW140198   9.639   0.117   0.074
12767SOL    HW240199   9.698   0.039   0.189
12768SOL     OW40200   1.697   2.689   2.099
12768SOL    HW140201   1.767   2.635   2.062
12768SOL    HW240202   1.740   2.770   2.124
12769SOL     OW40203  13.372   2.189  12.001
12769SOL    HW140204  13.468   2.194  12.007
12769SOL    HW240205  13.342   2.274  12.034
12770SOL     OW40206   8.917   0.284  10.943
12770SOL    HW140207   8.883   0.341  10.874
12770SOL    HW240208   8.965   0.343  11.001
12771SOL     OW40209   8.048   5.824  11.871
12771SOL    HW140210   8.011   5.871  11.796
12771SOL    HW240211   7.973   5.810  11.930
12772SOL     OW40212   2.130   2.219  10.383
12772SOL    HW140213   2.116   2.137  10.337
12772SOL    HW240214   2.069   2.281  10.342
12773SOL     OW40215   5.781  13.479   7.586
12773SOL    HW140216   5.776  13.572   7.562
12773SOL    HW240217   5.804  13.479   7.679
12774SOL     OW40218   8.059  13.908   4.229
12774SOL    HW140219   8.151  13.917   4.204
12774SOL    HW240220   8.010  13.950   4.158
12775SOL     OW40221  13.160   8.232   0.237
12775SOL    HW140222  13.200   8.297   0.178
12775SOL    HW240223  13.115   8.171   0.178
12776SOL     OW40224   1.810  11.689   7.649
12776SOL    HW140225   1.864  11.613   7.672
12776SOL    HW240226   1.726  11.672   7.691
12777SOL     OW40227  11.509   1.619  10.905
12777SOL    HW140228  11.472   1.583  10.824
12777SOL    HW240229  11.479   1.710  10.907
12778SOL     OW40230  11.134  10.299   3.184
12778SOL    HW140231  11.157  10.240   3.255
12778SOL    HW240232  11.071  10.250   3.131
12779SOL     OW40233   7.700   1.498   9.121
12779SOL    HW140234   7.728   1.413   9.087
12779SOL    HW240235   7.617   1.481   9.164
12780SOL     OW40236   6.609   8.316   6.859
12780SOL    HW140237   6.615   8.341   6.767
12780SOL    HW240238   6.695   8.281   6.880
12781SOL     OW40239   9.111  11.327  12.071
12781SOL    HW140240   9.018  11.351  12.066
12781SOL    HW240241   9.110  11.232  12.086
12782SOL     OW40242   7.132   2.769   3.821
12782SOL    HW140243   7.129   2.826   3.745
12782SOL    HW240244   7.158   2.684   3.786
12783SOL     OW40245   2.596  11.565   8.339
12783SOL    HW140246   2.661  11.496   8.345
12783SOL    HW240247   2.555  11.554   8.253
12784SOL     OW40248   1.175   7.365   3.424
12784SOL    HW140249   1.117   7.354   3.349
12784SOL    HW240250   1.245   7.301   3.409
12785SOL     OW40251   9.636   5.625   9.185
12785SOL    HW140252   9.617   5.594   9.097
12785SOL    HW240253   9.729   5.650   9.182
12786SOL     OW40254   4.335   2.648   5.702
12786SOL    HW140255   4.297   2.710   5.765
12786SOL    HW240256   4.363   2.702   5.629
12787SOL     OW40257   1.701  10.210  12.084
12787SOL    HW140258   1.661  10.125  12.068
12787SOL    HW240259   1.786  10.206  12.039
12788SOL     OW40260   0.606   4.117   3.417
12788SOL    HW140261   0.605   4.212   3.428
12788SOL    HW240262   0.576   4.102   3.328
12789SOL     OW40263   1.130   7.606   0.984
12789SOL    HW140264   1.061   7.540   0.977
12789SOL    HW240265   1.083   7.688   1.002
12790SOL     OW40266   6.333  12.757   4.344
12790SOL    HW140267   6.300  12.829   4.398
12790SOL    HW240268   6.259  12.733   4.288
12791SOL     OW40269   1.106   4.687  11.646
12791SOL    HW140270   1.094   4.782  11.647
12791SOL    HW240271   1.025   4.652  11.684
12792SOL     OW40272   5.868  13.724  10.762
12792SOL    HW140273   5.926  13.649  10.773
12792SOL    HW240274   5.807  13.698  10.693
12793SOL     OW40275  10.692  10.232   4.936
12793SOL    HW140276  10.673  10.143   4.966
12793SOL    HW240277  10.731  10.221   4.849
12794SOL     OW40278  11.489   8.235  13.785
12794SOL    HW140279  11.442   8.289  13.721
12794SOL    HW240280  11.431   8.161  13.802
12795SOL     OW40281  11.045  13.868  11.071
12795SOL    HW140282  10.956  13.845  11.046
12795SOL    HW240283  11.036  13.910  11.157
12796SOL     OW40284  12.827  13.237  13.956
12796SOL    HW140285  12.779  13.165  13.916
12796SOL    HW240286  12.903  13.250  13.900
12797SOL     OW40287   3.505   9.999   1.674
12797SOL    HW140288   3.572   9.961   1.730
12797SOL    HW240289   3.452  10.052   1.734
12798SOL     OW40290   4.193   9.659   6.041
12798SOL    HW140291   4.140   9.597   5.990
12798SOL    HW240292   4.259   9.690   5.979
12799SOL     OW40293   2.029   5.935   9.629
12799SOL    HW140294   2.017   6.009   9.689
12799SOL    HW240295   2.102   5.886   9.667
12800SOL     OW40296   0.514   6.957  13.926
12800SOL    HW140297   0.543   6.867  13.940
12800SOL    HW240298   0.546   7.005  14.003
12801SOL     OW40299   4.428  11.573  12.256
12801SOL    HW140300   4.481  11.516  12.200
12801SOL    HW240301   4.351  11.594  12.203
12802SOL     OW40302   5.051   9.364   8.914
12802SOL    HW140303   5.091   9.287   8.954
12802SOL    HW240304   4.997   9.402   8.984
12803SOL     OW40305  10.017   0.637   2.578
12803SOL    HW140306  10.111   0.640   2.596
12803SOL    HW240307   9.986   0.563   2.629
12804SOL     OW40308   6.187   5.064   1.673
12804SOL    HW140309   6.265   5.026   1.714
12804SOL    HW240310   6.193   5.036   1.581
12805SOL     OW40311   2.334   2.138   2.114
12805SOL    HW140312   2.328   2.222   2.161
12805SOL    HW240313   2.339   2.072   2.183
12806SOL     OW40314   6.449  11.236   1.493
12806SOL    HW140315   6.503  11.159   1.474
12806SOL    HW240316   6.511  11.309   1.492
12807SOL     OW40317   7.250   1.705   0.479
12807SOL    HW140318   7.309   1.648   0.529
12807SOL    HW240319   7.308   1.773   0.443
12808SOL     OW40320   3.821   5.877   6.691
12808SOL    HW140321   3.833   5.877   6.786
12808SOL    HW240322   3.832   5.968   6.665
12809SOL     OW40323   4.794  10.456   3.056
12809SOL    HW140324   4.763  10.541   3.086
12809SOL    HW240325   4.725  10.423   2.999
12810SOL     OW40326  12.015  12.897  10.627
12810SOL    HW140327  12.091  12.848  10.658
12810SOL    HW240328  12.044  12.937  10.545
12811SOL     OW40329   2.618   5.106   0.285
12811SOL    HW140330   2.658   5.168   0.223
12811SOL    HW240331   2.682   5.097   0.355
12812SOL     OW40332   4.523   2.640  14.802
12812SOL    HW140333   4.552   2.553  14.829
12812SOL    HW240334   4.456   2.624  14.735
12813SOL     OW40335   4.739   6.681  11.112
12813SOL    HW140336   4.814   6.740  11.105
12813SOL    HW240337   4.663   6.737  11.095
12814SOL     OW40338   4.163  14.601   8.697
12814SOL    HW140339   4.160  14.604   8.602
12814SOL    HW240340   4.227  14.533   8.718
12815SOL     OW40341  11.023   3.759  14.349
12815SOL    HW140342  10.933   3.761  14.314
12815SOL    HW240343  11.059   3.845  14.327
12816SOL     OW40344  13.414  14.624   8.671
12816SOL    HW140345  13.497  14.580   8.686
12816SOL    HW240346  13.349  14.569   8.715
12817SOL     OW40347   5.535  13.798   3.999
12817SOL    HW140348   5.531  13.708   4.032
12817SOL    HW240349   5.452  13.836   4.025
12818SOL     OW40350   9.511   3.651   3.253
12818SOL    HW140351   9.497   3.591   3.326
12818SOL    HW240352   9.599   3.687   3.268
12819SOL     OW40353   2.382   3.887   3.292
12819SOL    HW140354   2.389   3.974   3.253
12819SOL    HW240355   2.355   3.830   3.220
12820SOL     OW40356   7.492  10.270   6.801
12820SOL    HW140357   7.451  10.196   6.845
12820SOL    HW240358   7.481  10.343   6.862
12821SOL     OW40359   2.559  13.394  14.005
12821SOL    HW140360   2.470  13.427  14.005
12821SOL    HW240361   2.611  13.463  14.045
12822SOL     OW40362   1.416   3.227   8.163
12822SOL    HW140363   1.441   3.225   8.071
12822SOL    HW240364   1.330   3.185   8.166
12823SOL     OW40365   1.281  12.547  11.703
12823SOL    HW140366   1.269  12.612  11.773
12823SOL    HW240367   1.330  12.594  11.635
12824SOL     OW40368  12.821  12.329   6.399
12824SOL    HW140369  12.855  12.411   6.435
12824SOL    HW240370  12.731  12.325   6.430
12825SOL     OW40371   9.479   9.641   0.759
12825SOL    HW140372   9.438   9.554   0.763
12825SOL    HW240373   9.573   9.623   0.752
12826SOL     OW40374   5.516  13.023   9.295
12826SOL    HW140375   5.573  13.000   9.222
12826SOL    HW240376   5.469  13.101   9.265
12827SOL     OW40377  12.296  14.425  13.235
12827SOL    HW140378  12.356  14.352  13.247
12827SOL    HW240379  12.342  14.500  13.273
12828SOL     OW40380  11.760  10.830   8.637
12828SOL    HW140381  11.711  10.880   8.701
12828SOL    HW240382  11.695  10.775   8.594
12829SOL     OW40383  11.598   1.093   3.913
12829SOL    HW140384  11.568   1.139   3.992
12829SOL    HW240385  11.587   1.000   3.933
12830SOL     OW40386   2.527  10.026   6.754
12830SOL    HW140387   2.521   9.961   6.684
12830SOL    HW240388   2.529  10.110   6.708
12831SOL     OW40389   9.165   6.359   0.095
12831SOL    HW140390   9.189   6.403   0.177
12831SOL    HW240391   9.177   6.425   0.027
12832SOL     OW40392   4.228  10.679   1.521
12832SOL    HW140393   4.241  10.679   1.616
12832SOL    HW240394   4.302  10.629   1.487
12833SOL     OW40395   7.617   7.178  13.919
12833SOL    HW140396   7.622   7.274  13.914
12833SOL    HW240397   7.526   7.161  13.945
12834SOL     OW40398   2.821   5.433   9.777
12834SOL    HW140399   2.809   5.516   9.824
12834SOL    HW240400   2.829   5.368   9.846
12835SOL     OW40401   9.070   9.037   5.439
12835SOL    HW140402   9.151   9.086   5.453
12835SOL    HW240403   9.067   9.022   5.344
12836SOL     OW40404   6.564  11.660  12.074
12836SOL    HW140405   6.564  11.564  12.067
12836SOL    HW240406   6.651  11.686  12.043
12837SOL     OW40407   3.336   9.491   3.960
12837SOL    HW140408   3.293   9.572   3.989
12837SOL    HW240409   3.361   9.508   3.869
12838SOL     OW40410   6.426  12.144   2.637
12838SOL    HW140411   6.441  12.189   2.554
12838SOL    HW240412   6.506  12.095   2.654
12839SOL     OW40413  10.718   9.267   7.928
12839SOL    HW140414  10.735   9.361   7.941
12839SOL    HW240415  10.628   9.263   7.896
12840SOL     OW40416   9.882  11.567   4.053
12840SOL    HW140417   9.917  11.596   3.969
12840SOL    HW240418   9.858  11.647   4.099
12841SOL     OW40419   7.402   6.679  12.732
12841SOL    HW140420   7.468   6.617  12.700
12841SOL    HW240421   7.379   6.647  12.819
12842SOL     OW40422  12.163  12.302   0.592
12842SOL    HW140423  12.092  12.319   0.653
12842SOL    HW240424  12.129  12.332   0.507
12843SOL     OW40425   9.774   6.282   0.752
12843SOL    HW140426   9.707   6.321   0.808
12843SOL    HW240427   9.849   6.341   0.759
12844SOL     OW40428   9.892   5.083  10.820
12844SOL    HW140429   9.866   5.114  10.733
12844SOL    HW240430   9.924   5.161  10.865
12845SOL     OW40431   4.285   4.000   4.791
12845SOL    HW140432   4.256   3.976   4.879
12845SOL    HW240433   4.376   3.970   4.786
12846SOL     OW40434   1.328  12.385   0.675
12846SOL    HW140435   1.322  12.291   0.687
12846SOL    HW240436   1.279  12.402   0.594
12847SOL     OW40437   3.993   5.247  12.789
12847SOL    HW140438   3.923   5.190  12.820
12847SOL    HW240439   4.003   5.314  12.857
12848SOL     OW40440   5.268   0.224   0.883
12848SOL    HW140441   5.177   0.201   0.861
12848SOL    HW240442   5.310   0.140   0.902
12849SOL     OW40443   1.039  14.253   8.323
12849SOL    HW140444   1.016  14.287   8.237
12849SOL    HW240445   0.979  14.296   8.384
12850SOL     OW40446   9.187   0.501  11.543
12850SOL    HW140447   9.239   0.457  11.475
12850SOL    HW240448   9.128   0.559  11.494
12851SOL     OW40449  14.049   8.619   4.259
12851SOL    HW140450  14.028   8.534   4.296
12851SOL    HW240451  14.072   8.674   4.334
12852SOL     OW40452   5.782   1.494  10.466
12852SOL    HW140453   5.737   1.544  10.398
12852SOL    HW240454   5.719   1.489  10.538
12853SOL     OW40455   3.623   0.670  11.139
12853SOL    HW140456   3.716   0.673  11.161
12853SOL    HW240457   3.583   0.734  11.198
12854SOL     OW40458  10.650   9.414   9.193
12854SOL    HW140459  10.725   9.469   9.216
12854SOL    HW240460  10.660   9.396   9.100
12855SOL     OW40461  13.334   9.503   6.889
12855SOL    HW140462  13.285   9.575   6.849
12855SOL    HW240463  13.289   9.486   6.972
12856SOL     OW40464  12.597   2.171   2.991
12856SOL    HW140465  12.638   2.161   2.906
12856SOL    HW240466  12.504   2.185   2.972
12857SOL     OW40467   8.786  11.511  11.140
12857SOL    HW140468   8.814  11.488  11.228
12857SOL    HW240469   8.749  11.599  11.149
12858SOL     OW40470   3.962   7.811  14.584
12858SOL    HW140471   3.967   7.898  14.624
12858SOL    HW240472   4.053   7.784  14.573
12859SOL     OW40473   0.483   8.037  12.423
12859SOL    HW140474   0.558   8.046  12.482
12859SOL    HW240475   0.412   8.007  12.480
12860SOL     OW40476  11.908   9.245   7.625
12860SOL    HW140477  11.944   9.333   7.610
12860SOL    HW240478  11.966   9.187   7.577
12861SOL     OW40479   6.467   0.274   1.146
12861SOL    HW140480   6.373   0.288   1.159
12861SOL    HW240481   6.498   0.355   1.106
12862SOL     OW40482   3.234   7.848  10.089
12862SOL    HW140483   3.210   7.891  10.172
12862SOL    HW240484   3.223   7.755  10.107
12863SOL     OW40485   5.487   7.861  13.246
12863SOL    HW140486   5.421   7.842  13.313
12863SOL    HW240487   5.530   7.776  13.232
12864SOL     OW40488   6.007   5.412   4.546
12864SOL    HW140489   6.095   5.440   4.519
12864SOL    HW240490   6.015   5.401   4.641
12865SOL     OW40491  14.776   4.026   3.841
12865SOL    HW140492  14.693   4.069   3.861
12865SOL    HW240493  14.805   3.989   3.925
12866SOL     OW40494   7.094   8.088   9.988
12866SOL    HW140495   6.999   8.100   9.989
12866SOL    HW240496   7.106   7.993   9.983
12867SOL     OW40497   3.242  14.209   7.419
12867SOL    HW140498   3.287  14.240   7.498
12867SOL    HW240499   3.176  14.148   7.452
12868SOL     OW40500   3.639  12.183  14.718
12868SOL    HW140501   3.719  12.190  14.768
12868SOL    HW240502   3.660  12.121  14.647
12869SOL     OW40503   3.436  10.714  14.288
12869SOL    HW140504   3.372  10.652  14.321
12869SOL    HW240505   3.385  10.790  14.262
12870SOL     OW40506  14.325   9.328  13.697
12870SOL    HW140507  14.382   9.251  13.706
12870SOL    HW240508  14.260   9.318  13.767
12871SOL     OW40509   3.562   9.381   7.187
12871SOL    HW140510   3.541   9.474   7.195
12871SOL    HW240511   3.640   9.378   7.131
12872SOL     OW40512  13.648  11.228  10.422
12872SOL    HW140513  13.693  11.257  10.343
12872SOL    HW240514  13.556  11.221  10.396
12873SOL     OW40515   5.553   4.485   1.228
12873SOL    HW140516   5.549   4.464   1.321
12873SOL    HW240517   5.466   4.519   1.207
12874SOL     OW40518  11.285  14.858   7.081
12874SOL    HW140519  11.225  14.830   7.012
12874SOL    HW240520  11.356  14.793   7.080
12875SOL     OW40521   0.543   1.504   1.740
12875SOL    HW140522   0.604   1.570   1.772
12875SOL    HW240523   0.508   1.463   1.819
12876SOL     OW40524   2.441   4.005   3.671
12876SOL    HW140525   2.495   4.084   3.674
12876SOL    HW240526   2.458   3.961   3.754
12877SOL     OW40527   7.973  13.219  13.710
12877SOL    HW140528   8.059  13.239  13.674
12877SOL    HW240529   7.949  13.295  13.762
12878SOL     OW40530   4.528   9.537   4.108
12878SOL    HW140531   4.490   9.458   4.070
12878SOL    HW240532   4.623   9.524   4.099
12879SOL     OW40533  14.407  14.269   9.332
12879SOL    HW140534  14.383  14.343   9.277
12879SOL    HW240535  14.459  14.307   9.403
12880SOL     OW40536   7.002   3.472  12.795
12880SOL    HW140537   6.917   3.432  12.781
12880SOL    HW240538   7.065   3.401  12.781
12881SOL     OW40539   3.590   1.088   6.805
12881SOL    HW140540   3.646   1.155   6.845
12881SOL    HW240541   3.625   1.077   6.717
12882SOL     OW40542   7.721   6.685   0.047
12882SOL    HW140543   7.727   6.780   0.038
12882SOL    HW240544   7.648   6.670   0.107
12883SOL     OW40545   4.890   6.780  10.251
12883SOL    HW140546   4.812   6.733  10.281
12883SOL    HW240547   4.906   6.846  10.318
12884SOL     OW40548   0.910   0.187  10.176
12884SOL    HW140549   1.000   0.218  10.184
12884SOL    HW240550   0.879   0.225  10.094
12885SOL     OW40551  12.879   0.692  11.469
12885SOL    HW140552  12.877   0.678  11.375
12885SOL    HW240553  12.823   0.623  11.506
12886SOL     OW40554   7.646   9.032   6.099
12886SOL    HW140555   7.639   9.103   6.035
12886SOL    HW240556   7.740   9.013   6.104
12887SOL     OW40557   4.166   9.439   5.557
12887SOL    HW140558   4.142   9.363   5.505
12887SOL    HW240559   4.170   9.405   5.647
12888SOL     OW40560  13.676   5.495   4.476
12888SOL    HW140561  13.652   5.540   4.395
12888SOL    HW240562  13.746   5.549   4.513
12889SOL     OW40563   0.385   5.335  13.963
12889SOL    HW140564   0.366   5.427  13.948
12889SOL    HW240565   0.381   5.325  14.058
12890SOL     OW40566  12.744   3.820   3.261
12890SOL    HW140567  12.816   3.761   3.236
12890SOL    HW240568  12.666   3.764   3.257
12891SOL     OW40569  11.288  10.024  12.680
12891SOL    HW140570  11.324   9.970  12.751
12891SOL    HW240571  11.314   9.979  12.600
12892SOL     OW40572   9.278   1.001  11.337
12892SOL    HW140573   9.296   0.945  11.412
12892SOL    HW240574   9.200   1.050  11.361
12893SOL     OW40575   0.844   0.187   1.160
12893SOL    HW140576   0.920   0.205   1.104
12893SOL    HW240577   0.868   0.225   1.245
12894SOL     OW40578  13.315   1.778  14.531
12894SOL    HW140579  13.344   1.842  14.467
12894SOL    HW240580  13.219   1.784  14.529
12895SOL     OW40581   1.678  12.521  10.655
12895SOL    HW140582   1.761  12.485  10.624
12895SOL    HW240583   1.679  12.504  10.749
12896SOL     OW40584   9.708   0.136   5.621
12896SOL    HW140585   9.702   0.042   5.642
12896SOL    HW240586   9.799   0.148   5.594
12897SOL     OW40587   8.519   8.467   4.240
12897SOL    HW140588   8.575   8.400   4.279
12897SOL    HW240589   8.459   8.492   4.310
12898SOL     OW40590   6.184   2.533  13.412
12898SOL    HW140591   6.122   2.573  13.472
12898SOL    HW240592   6.216   2.456  13.460
12899SOL     OW40593   0.077  14.072   1.386
12899SOL    HW140594   0.156  14.019   1.388
12899SOL    HW240595   0.105  14.158   1.417
12900SOL     OW40596   0.875   5.719   8.632
12900SOL    HW140597   0.815   5.645   8.626
12900SOL    HW240598   0.822   5.795   8.606
12901SOL     OW40599   1.549   3.985  10.025
12901SOL    HW140600   1.461   4.022  10.033
12901SOL    HW240601   1.545   3.903  10.075
12902SOL     OW40602   4.340   1.064  14.441
12902SOL    HW140603   4.286   0.991  14.472
12902SOL    HW240604   4.429   1.041  14.467
12903SOL     OW40605   3.271   7.664   2.962
12903SOL    HW140606   3.244   7.739   2.909
12903SOL    HW240607   3.257   7.692   3.053
12904SOL     OW40608  11.288   9.379   1.182
12904SOL    HW140609  11.293   9.284   1.192
12904SOL    HW240610  11.204   9.394   1.139
12905SOL     OW40611   8.675   5.837  12.706
12905SOL    HW140612   8.695   5.894  12.632
12905SOL    HW240613   8.717   5.880  12.781
12906SOL     OW40614  13.590   0.030  12.471
12906SOL    HW140615  13.526   0.011  12.402
12906SOL    HW240616  13.567   0.117  12.502
12907SOL     OW40617  13.023   4.550  12.784
12907SOL    HW140618  13.108   4.523  12.817
12907SOL    HW240619  12.960   4.520  12.850
12908SOL     OW40620   2.366   8.496  12.328
12908SOL    HW140621   2.301   8.512  12.258
12908SOL    HW240622   2.401   8.409  12.309
12909SOL     OW40623   4.904   8.733   3.402
12909SOL    HW140624   4.959   8.758   3.327
12909SOL    HW240625   4.966   8.706   3.469
12910SOL     OW40626  12.947   8.436   5.378
12910SOL    HW140627  12.870   8.459   5.325
12910SOL    HW240628  12.914   8.428   5.467
12911SOL     OW40629   5.579   0.649  10.645
12911SOL    HW140630   5.533   0.731  10.660
12911SOL    HW240631   5.666   0.674  10.615
12912SOL     OW40632   6.776   5.936  12.967
12912SOL    HW140633   6.687   5.928  13.002
12912SOL    HW240634   6.773   6.014  12.912
12913SOL     OW40635   3.859   8.848   1.072
12913SOL    HW140636   3.814   8.769   1.042
12913SOL    HW240637   3.797   8.919   1.051
12914SOL     OW40638   2.409  13.403  10.674
12914SOL    HW140639   2.356  13.480  10.692
12914SOL    HW240640   2.475  13.433  10.612
12915SOL     OW40641   8.492  14.295   9.005
12915SOL    HW140642   8.503  14.315   9.098
12915SOL    HW240643   8.544  14.215   8.992
12916SOL     OW40644   7.172   3.913   7.420
12916SOL    HW140645   7.198   4.004   7.411
12916SOL    HW240646   7.215   3.868   7.347
12917SOL     OW40647  12.824   7.533  13.361
12917SOL    HW140648  12.855   7.619  13.391
12917SOL    HW240649  12.868   7.520  13.277
12918SOL     OW40650   4.483   8.296   3.158
12918SOL    HW140651   4.442   8.239   3.223
12918SOL    HW240652   4.410   8.331   3.107
12919SOL     OW40653   9.834   4.545   9.845
12919SOL    HW140654   9.818   4.591   9.762
12919SOL    HW240655   9.782   4.594   9.909
12920SOL     OW40656  11.511   6.174  12.739
12920SOL    HW140657  11.492   6.163  12.645
12920SOL    HW240658  11.605   6.187  12.743
12921SOL     OW40659  14.348   6.166   9.023
12921SOL    HW140660  14.390   6.252   9.019
12921SOL    HW240661  14.362   6.128   8.936
12922SOL     OW40662   1.848   5.673  10.900
12922SOL    HW140663   1.801   5.647  10.979
12922SOL    HW240664   1.780   5.703  10.840
12923SOL     OW40665  14.451   8.548   5.234
12923SOL    HW140666  14.498   8.533   5.151
12923SOL    HW240667  14.413   8.636   5.223
12924SOL     OW40668  12.521   1.083   5.909
12924SOL    HW140669  12.487   1.069   5.821
12924SOL    HW240670  12.510   1.177   5.924
12925SOL     OW40671   3.486  10.772   7.477
12925SOL    HW140672   3.490  10.833   7.403
12925SOL    HW240673   3.432  10.817   7.542
12926SOL     OW40674  14.231   3.315  14.201
12926SOL    HW140675  14.281   3.318  14.282
12926SOL    HW240676  14.148   3.358  14.222
12927SOL     OW40677   9.728   7.960  12.744
12927SOL    HW140678   9.758   7.926  12.659
12927SOL    HW240679   9.672   8.035  12.721
12928SOL     OW40680  10.838  14.642   0.128
12928SOL    HW140681  10.835  14.552   0.096
12928SOL    HW240682  10.921  14.647   0.176
12929SOL     OW40683   6.350  12.416   3.940
12929SOL    HW140684   6.354  12.323   3.964
12929SOL    HW240685   6.256  12.435   3.936
12930SOL     OW40686  11.459   7.575   8.718
12930SOL    HW140687  11.372   7.607   8.694
12930SOL    HW240688  11.442   7.500   8.775
12931SOL     OW40689   8.742  14.108   6.664
12931SOL    HW140690   8.824  14.112   6.714
12931SOL    HW240691   8.762  14.154   6.582
12932SOL     OW40692   8.720  12.244   8.254
12932SOL    HW140693   8.716  12.201   8.339
12932SOL    HW240694   8.786  12.312   8.265
12933SOL     OW40695   3.465  13.603   5.494
12933SOL    HW140696   3.461  13.562   5.407
12933SOL    HW240697   3.398  13.558   5.545
12934SOL     OW40698   8.412  13.784  12.421
12934SOL    HW140699   8.400  13.873  12.387
12934SOL    HW240700   8.503  13.783  12.451
12935SOL     OW40701   1.330   9.514  14.783
12935SOL    HW140702   1.328   9.592  14.839
12935SOL    HW240703   1.418   9.515  14.744
12936SOL     OW40704   6.081   3.099   0.701
12936SOL    HW140705   6.056   3.187   0.672
12936SOL    HW240706   6.177   3.098   0.696
12937SOL     OW40707  12.707   5.527  11.745
12937SOL    HW140708  12.738   5.607  11.786
12937SOL    HW240709  12.655   5.484  11.813
12938SOL     OW40710   2.229  10.028   1.147
12938SOL    HW140711   2.171  10.046   1.222
12938SOL    HW240712   2.201   9.942   1.116
12939SOL     OW40713   7.541  14.701   5.175
12939SOL    HW140714   7.582  14.734   5.095
12939SOL    HW240715   7.602  14.634   5.207
12940SOL     OW40716   3.229   5.976  12.204
12940SOL    HW140717   3.238   6.071  12.209
12940SOL    HW240718   3.278   5.943  12.280
12941SOL     OW40719   6.875  10.695   5.445
12941SOL    HW140720   6.907  10.669   5.359
12941SOL    HW240721   6.851  10.613   5.488
12942SOL     OW40722   2.712   9.234   7.187
12942SOL    HW140723   2.646   9.289   7.229
12942SOL    HW240724   2.718   9.268   7.098
12943SOL     OW40725   8.755   7.182   5.951
12943SOL    HW140726   8.739   7.147   6.039
12943SOL    HW240727   8.714   7.269   5.952
12944SOL     OW40728   6.391   3.445   3.714
12944SOL    HW140729   6.415   3.438   3.622
12944SOL    HW240730   6.426   3.365   3.754
12945SOL     OW40731   0.237  12.210   1.749
12945SOL    HW140732   0.232  12.239   1.658
12945SOL    HW240733   0.146  12.200   1.777
12946SOL     OW40734  10.966   3.638   5.076
12946SOL    HW140735  11.054   3.656   5.044
12946SOL    HW240736  10.975   3.558   5.127
12947SOL     OW40737   8.864  10.163   2.707
12947SOL    HW140738   8.923  10.154   2.632
12947SOL    HW240739   8.819  10.246   2.692
12948SOL     OW40740   2.858  13.699   2.990
12948SOL    HW140741   2.800  13.773   3.008
12948SOL    HW240742   2.826  13.662   2.908
12949SOL     OW40743   3.676  11.274   9.469
12949SOL    HW140744   3.647  11.282   9.379
12949SOL    HW240745   3.654  11.358   9.509
12950SOL     OW40746   6.273   7.799   9.540
12950SOL    HW140747   6.245   7.716   9.500
12950SOL    HW240748   6.300   7.775   9.628
12951SOL     OW40749   8.423   1.418   0.468
12951SOL    HW140750   8.437   1.342   0.526
12951SOL    HW240751   8.510   1.443   0.440
12952SOL     OW40752  11.643  10.343   9.694
12952SOL    HW140753  11.652  10.408   9.625
12952SOL    HW240754  11.711  10.366   9.758
12953SOL     OW40755   9.463  10.093  10.717
12953SOL    HW140756   9.387  10.061  10.669
12953SOL    HW240757   9.537  10.044  10.680
12954SOL     OW40758  14.798  14.307  10.845
12954SOL    HW140759  14.840  14.381  10.889
12954SOL    HW240760  14.759  14.345  10.766
12955SOL     OW40761  13.539   9.582   1.069
12955SOL    HW140762  13.474   9.629   1.122
12955SOL    HW240763  13.564   9.645   1.001
12956SOL     OW40764   4.112   7.383   8.546
12956SOL    HW140765   4.020   7.356   8.537
12956SOL    HW240766   4.108   7.478   8.554
12957SOL     OW40767   7.161   0.155   0.083
12957SOL    HW140768   7.166   0.162  14.870
12957SOL    HW240769   7.192   0.240   0.115
12958SOL     OW40770   9.386  10.449  10.418
12958SOL    HW140771   9.436  10.472  10.497
12958SOL    HW240772   9.380  10.354  10.419
12959SOL     OW40773  12.229   4.493   8.899
12959SOL    HW140774  12.311   4.504   8.947
12959SOL    HW240775  12.239   4.410   8.852
12960SOL     OW40776   6.222  10.467  14.695
12960SOL    HW140777   6.184  10.387  14.730
12960SOL    HW240778   6.241  10.447  14.604
12961SOL     OW40779   0.460  10.057   8.516
12961SOL    HW140780   0.389   9.999   8.544
12961SOL    HW240781   0.539  10.014   8.547
12962SOL     OW40782   8.602  14.831   9.291
12962SOL    HW140783   8.668  14.859   9.227
12962SOL    HW240784   8.562  14.754   9.251
12963SOL     OW40785  14.080  11.834   6.591
12963SOL    HW140786  14.079  11.758   6.532
12963SOL    HW240787  13.987  11.853   6.608
12964SOL     OW40788   4.289   9.972  12.964
12964SOL    HW140789   4.356   9.941  13.026
12964SOL    HW240790   4.311  10.064  12.950
12965SOL     OW40791   9.865   2.466  14.722
12965SOL    HW140792   9.807   2.524  14.771
12965SOL    HW240793   9.947   2.516  14.712
12966SOL     OW40794   1.838   0.949  10.856
12966SOL    HW140795   1.902   0.934  10.926
12966SOL    HW240796   1.890   0.950  10.776
12967SOL     OW40797   9.263   3.570  13.337
12967SOL    HW140798   9.169   3.570  13.319
12967SOL    HW240799   9.299   3.633  13.274
12968SOL     OW40800   3.911   0.790  13.844
12968SOL    HW140801   3.980   0.804  13.779
12968SOL    HW240802   3.841   0.747  13.796
12969SOL     OW40803  11.371   2.151   0.687
12969SOL    HW140804  11.354   2.178   0.596
12969SOL    HW240805  11.286   2.119   0.718
12970SOL     OW40806   8.826  10.749   4.195
12970SOL    HW140807   8.874  10.774   4.116
12970SOL    HW240808   8.875  10.674   4.230
12971SOL     OW40809  12.037   9.824   7.339
12971SOL    HW140810  11.996   9.903   7.303
12971SOL    HW240811  11.975   9.753   7.319
12972SOL     OW40812   7.642   2.066   2.730
12972SOL    HW140813   7.640   2.135   2.797
12972SOL    HW240814   7.582   2.097   2.663
12973SOL     OW40815  10.214  14.679   3.849
12973SOL    HW140816  10.236  14.750   3.909
12973SOL    HW240817  10.241  14.600   3.896
12974SOL     OW40818   9.003  13.041   0.841
12974SOL    HW140819   8.910  13.032   0.819
12974SOL    HW240820   9.046  13.054   0.756
12975SOL     OW40821  12.411  10.935  12.113
12975SOL    HW140822  12.367  10.865  12.063
12975SOL    HW240823  12.498  10.941  12.074
12976SOL     OW40824   4.056   2.777   5.245
12976SOL    HW140825   4.108   2.829   5.307
12976SOL    HW240826   4.100   2.789   5.161
12977SOL     OW40827  13.662   4.564  11.933
12977SOL    HW140828  13.595   4.560  12.002
12977SOL    HW240829  13.616   4.533  11.854
12978SOL     OW40830   7.749  10.608  14.586
12978SOL    HW140831   7.686  10.614  14.514
12978SOL    HW240832   7.710  10.545  14.647
12979SOL     OW40833  10.034   1.636   9.294
12979SOL    HW140834  10.011   1.651   9.202
12979SOL    HW240835   9.950   1.624   9.339
12980SOL     OW40836   4.898  12.044  11.690
12980SOL    HW140837   4.912  11.950  11.681
12980SOL    HW240838   4.970  12.084  11.641
12981SOL     OW40839   3.253   4.889   2.242
12981SOL    HW140840   3.250   4.967   2.187
12981SOL    HW240841   3.164   4.879   2.276
12982SOL     OW40842   5.755  14.240  12.031
12982SOL    HW140843   5.669  14.280  12.035
12982SOL    HW240844   5.816  14.312  12.048
12983SOL     OW40845   7.898  13.071  13.416
12983SOL    HW140846   7.862  13.025  13.492
12983SOL    HW240847   7.987  13.095  13.442
12984SOL     OW40848  10.068   0.740   0.393
12984SOL    HW140849   9.995   0.678   0.400
12984SOL    HW240850  10.040   0.814   0.447
12985SOL     OW40851   7.421   3.826   8.903
12985SOL    HW140852   7.413   3.740   8.943
12985SOL    HW240853   7.340   3.837   8.854
12986SOL     OW40854  11.265  13.625   9.731
12986SOL    HW140855  11.249  13.585   9.645
12986SOL    HW240856  11.187  13.604   9.782
12987SOL     OW40857  11.027   3.560   9.747
12987SOL    HW140858  11.002   3.519   9.665
12987SOL    HW240859  11.108   3.515   9.773
12988SOL     OW40860   1.593   5.544   3.459
12988SOL    HW140861   1.682   5.559   3.428
12988SOL    HW240862   1.604   5.509   3.547
12989SOL     OW40863  10.981   0.214  11.914
12989SOL    HW140864  10.899   0.169  11.894
12989SOL    HW240865  10.993   0.202  12.008
12990SOL     OW40866   5.174   6.033   3.439
12990SOL    HW140867   5.082   6.054   3.457
12990SOL    HW240868   5.211   6.114   3.406
12991SOL     OW40869   3.742  12.906   3.070
12991SOL    HW140870   3.728  12.811   3.061
12991SOL    HW240871   3.657  12.945   3.051
12992SOL     OW40872   0.550   0.147   4.524
12992SOL    HW140873   0.477   0.159   4.584
12992SOL    HW240874   0.619   0.107   4.577
12993SOL     OW40875   0.394   7.321  12.804
12993SOL    HW140876   0.355   7.235  12.795
12993SOL    HW240877   0.417   7.327  12.897
12994SOL     OW40878   1.650   8.966   1.394
12994SOL    HW140879   1.689   9.028   1.332
12994SOL    HW240880   1.571   8.936   1.350
12995SOL     OW40881  13.176  12.573   1.365
12995SOL    HW140882  13.233  12.641   1.329
12995SOL    HW240883  13.216  12.551   1.449
12996SOL     OW40884  13.229  10.913  10.333
12996SOL    HW140885  13.289  10.853  10.288
12996SOL    HW240886  13.210  10.870  10.416
12997SOL     OW40887   4.726  11.839   3.438
12997SOL    HW140888   4.656  11.774   3.436
12997SOL    HW240889   4.713  11.885   3.521
12998SOL     OW40890   0.813   6.008   9.230
12998SOL    HW140891   0.781   5.921   9.207
12998SOL    HW240892   0.836   6.001   9.323
12999SOL     OW40893  11.992  14.621  12.140
12999SOL    HW140894  11.926  14.553  12.124
12999SOL    HW240895  11.970  14.655  12.227
13000SOL     OW40896   7.184   0.773   1.545
13000SOL    HW140897   7.258   0.776   1.485
13000SOL    HW240898   7.140   0.690   1.525
13001SOL     OW40899  12.658   8.784   4.500
13001SOL    HW140900  12.683   8.855   4.441
13001SOL    HW240901  12.633   8.712   4.442
13002SOL     OW40902   5.301   4.957  13.674
13002SOL    HW140903   5.218   4.958  13.723
13002SOL    HW240904   5.277   4.926  13.587
13003SOL     OW40905  13.322  13.125   8.912
13003SOL    HW140906  13.311  13.038   8.873
13003SOL    HW240907  13.252  13.130   8.977
13004SOL     OW40908   9.174   9.520   4.716
13004SOL    HW140909   9.105   9.565   4.668
13004SOL    HW240910   9.191   9.441   4.664
13005SOL     OW40911   4.922   8.093   9.062
13005SOL    HW140912   4.879   8.170   9.099
13005SOL    HW240913   5.013   8.101   9.091
13006SOL     OW40914   4.924   9.885   4.137
13006SOL    HW140915   4.915   9.790   4.135
13006SOL    HW240916   4.842   9.916   4.175
13007SOL     OW40917  14.745  11.243   0.094
13007SOL    HW140918  14.767  11.214   0.182
13007SOL    HW240919  14.651  11.260   0.097
13008SOL     OW40920   5.968  10.410   3.350
13008SOL    HW140921   6.049  10.456   3.328
13008SOL    HW240922   5.943  10.445   3.435
13009SOL     OW40923   2.386  14.396   4.848
13009SOL    HW140924   2.391  14.300   4.851
13009SOL    HW240925   2.361  14.415   4.758
13010SOL     OW40926   0.958   5.761  13.067
13010SOL    HW140927   1.041   5.808  13.070
13010SOL    HW240928   0.962   5.710  12.986
13011SOL     OW40929   7.687   2.770   3.811
13011SOL    HW140930   7.763   2.777   3.754
13011SOL    HW240931   7.724   2.764   3.899
13012SOL     OW40932   2.115   5.189   8.531
13012SOL    HW140933   2.141   5.245   8.458
13012SOL    HW240934   2.162   5.224   8.606
13013SOL     OW40935   5.208   5.576   8.206
13013SOL    HW140936   5.150   5.529   8.267
13013SOL    HW240937   5.296   5.549   8.232
13014SOL     OW40938   1.599   1.393   2.892
13014SOL    HW140939   1.657   1.330   2.935
13014SOL    HW240940   1.511   1.360   2.908
13015SOL     OW40941   9.026   1.796  11.237
13015SOL    HW140942   9.005   1.881  11.198
13015SOL    HW240943   8.956   1.739  11.208
13016SOL     OW40944   0.972   6.303   3.714
13016SOL    HW140945   0.878   6.293   3.697
13016SOL    HW240946   1.012   6.225   3.675
13017SOL     OW40947  14.106   6.363   1.991
13017SOL    HW140948  14.064   6.342   1.908
13017SOL    HW240949  14.032   6.377   2.051
13018SOL     OW40950   0.891   8.201   4.067
13018SOL    HW140951   0.929   8.229   3.983
13018SOL    HW240952   0.805   8.243   4.069
13019SOL     OW40953   0.624  13.726   9.796
13019SOL    HW140954   0.587  13.658   9.852
13019SOL    HW240955   0.664  13.789   9.856
13020SOL     OW40956  10.391   9.996   3.727
13020SOL    HW140957  10.416   9.910   3.761
13020SOL    HW240958  10.459  10.056   3.759
13021SOL     OW40959   8.741   8.740   1.493
13021SOL    HW140960   8.772   8.710   1.408
13021SOL    HW240961   8.664   8.687   1.511
13022SOL     OW40962  14.005   4.877   8.569
13022SOL    HW140963  13.933   4.882   8.506
13022SOL    HW240964  14.081   4.909   8.520
13023SOL     OW40965   0.658   7.823   4.202
13023SOL    HW140966   0.632   7.902   4.154
13023SOL    HW240967   0.730   7.787   4.151
13024SOL     OW40968   6.030  10.878   3.999
13024SOL    HW140969   6.105  10.922   4.039
13024SOL    HW240970   6.044  10.887   3.904
13025SOL     OW40971  14.457  10.204   5.499
13025SOL    HW140972  14.453  10.299   5.488
13025SOL    HW240973  14.455  10.169   5.410
13026SOL     OW40974   6.145  13.601   4.786
13026SOL    HW140975   6.230  13.638   4.812
13026SOL    HW240976   6.114  13.660   4.716
13027SOL     OW40977   9.436  10.783  14.404
13027SOL    HW140978   9.427  10.872  14.369
13027SOL    HW240979   9.451  10.728  14.327
13028SOL     OW40980  14.262   6.079  12.256
13028SOL    HW140981  14.286   6.070  12.164
13028SOL    HW240982  14.222   5.995  12.279
13029SOL     OW40983   4.392   9.498   3.253
13029SOL    HW140984   4.389   9.478   3.160
13029SOL    HW240985   4.301   9.505   3.280
13030SOL     OW40986   8.860   0.333   1.088
13030SOL    HW140987   8.859   0.387   1.008
13030SOL    HW240988   8.798   0.263   1.069
13031SOL     OW40989   3.955   6.935   2.929
13031SOL    HW140990   3.914   6.985   2.859
13031SOL    HW240991   3.953   6.994   3.005
13032SOL     OW40992  12.226   0.150   6.301
13032SOL    HW140993  12.310   0.193   6.288
13032SOL    HW240994  12.232   0.069   6.249
13033SOL     OW40995  10.559   0.308  10.221
13033SOL    HW140996  10.544   0.383  10.277
13033SOL    HW240997  10.508   0.237  10.261
13034SOL     OW40998  14.654   5.946  13.804
13034SOL    HW140999  14.640   5.865  13.853
13034SOL    HW241000  14.649   6.016  13.870
13035SOL     OW41001   0.387   1.694  12.357
13035SOL    HW141002   0.368   1.771  12.411
13035SOL    HW241003   0.447   1.642  12.410
13036SOL     OW41004   6.282   0.582   3.318
13036SOL    HW141005   6.215   0.529   3.274
13036SOL    HW241006   6.259   0.577   3.410
13037SOL     OW41007   8.894   5.358  10.194
13037SOL    HW141008   8.865   5.405  10.272
13037SOL    HW241009   8.977   5.317  10.220
13038SOL     OW41010   9.003   6.768  14.223
13038SOL    HW141011   8.948   6.690  14.229
13038SOL    HW241012   8.987   6.815  14.304
13039SOL     OW41013   0.416   6.272   3.973
13039SOL    HW141014   0.419   6.330   4.049
13039SOL    HW241015   0.360   6.200   4.000
13040SOL     OW41016   8.021   7.825   6.288
13040SOL    HW141017   8.047   7.788   6.372
13040SOL    HW241018   8.096   7.811   6.230
13041SOL     OW41019  13.861   7.220   8.655
13041SOL    HW141020  13.853   7.126   8.669
13041SOL    HW241021  13.795   7.241   8.590
13042SOL     OW41022  14.814   1.778   6.476
13042SOL    HW141023  14.855   1.737   6.400
13042SOL    HW241024  14.842   1.870   6.471
13043SOL     OW41025   3.251  11.490  11.896
13043SOL    HW141026   3.336  11.458  11.925
13043SOL    HW241027   3.204  11.509  11.978
13044SOL     OW41028  12.677  13.061  13.829
13044SOL    HW141029  12.638  12.999  13.890
13044SOL    HW241030  12.717  13.006  13.761
13045SOL     OW41031   4.705   6.612   7.219
13045SOL    HW141032   4.632   6.598   7.158
13045SOL    HW241033   4.695   6.702   7.248
13046SOL     OW41034   4.381   9.244  10.691
13046SOL    HW141035   4.419   9.203  10.769
13046SOL    HW241036   4.349   9.171  10.638
13047SOL     OW41037   9.135   2.387  10.528
13047SOL    HW141038   9.196   2.398  10.455
13047SOL    HW241039   9.109   2.476  10.551
13048SOL     OW41040   0.206  14.057   9.149
13048SOL    HW141041   0.197  14.131   9.088
13048SOL    HW241042   0.175  14.091   9.233
13049SOL     OW41043   8.310   0.246   4.892
13049SOL    HW141044   8.361   0.200   4.959
13049SOL    HW241045   8.235   0.282   4.940
13050SOL     OW41046   5.848   2.334   6.914
13050SOL    HW141047   5.846   2.239   6.922
13050SOL    HW241048   5.784   2.365   6.977
13051SOL     OW41049   8.706   6.076   3.245
13051SOL    HW141050   8.751   6.154   3.277
13051SOL    HW241051   8.749   6.056   3.162
13052SOL     OW41052   7.562  11.104  11.533
13052SOL    HW141053   7.520  11.188  11.514
13052SOL    HW241054   7.578  11.065  11.447
13053SOL     OW41055   7.599   3.283   4.119
13053SOL    HW141056   7.580   3.374   4.097
13053SOL    HW241057   7.689   3.284   4.151
13054SOL     OW41058   1.931  14.868   2.248
13054SOL    HW141059   1.999   0.052   2.240
13054SOL    HW241060   1.941  14.813   2.170
13055SOL     OW41061   3.997   8.846   7.726
13055SOL    HW141062   3.950   8.883   7.799
13055SOL    HW241063   4.011   8.919   7.666
13056SOL     OW41064   5.056   4.999   2.178
13056SOL    HW141065   5.140   4.995   2.225
13056SOL    HW241066   5.048   5.091   2.153
13057SOL     OW41067   8.248   6.781  14.218
13057SOL    HW141068   8.237   6.686  14.208
13057SOL    HW241069   8.219   6.817  14.135
13058SOL     OW41070   6.343   0.444  11.195
13058SOL    HW141071   6.302   0.405  11.118
13058SOL    HW241072   6.378   0.371  11.245
13059SOL     OW41073   1.994   8.886   4.206
13059SOL    HW141074   1.946   8.825   4.149
13059SOL    HW241075   1.958   8.972   4.184
13060SOL     OW41076   4.082  13.013  14.764
13060SOL    HW141077   4.119  13.031  14.677
13060SOL    HW241078   4.154  12.972  14.812
13061SOL     OW41079   2.918  12.999   1.166
13061SOL    HW141080   2.830  12.999   1.205
13061SOL    HW241081   2.905  13.032   1.077
13062SOL     OW41082   0.115  12.676  14.552
13062SOL    HW141083   0.136  12.596  14.505
13062SOL    HW241084   0.035  12.708  14.510
13063SOL     OW41085   6.108  11.228   8.444
13063SOL    HW141086   6.129  11.223   8.351
13063SOL    HW241087   6.040  11.295   8.449
13064SOL     OW41088   1.715  11.367   8.282
13064SOL    HW141089   1.788  11.309   8.307
13064SOL    HW241090   1.756  11.452   8.267
13065SOL     OW41091   9.420  12.940   9.064
13065SOL    HW141092   9.354  12.994   9.020
13065SOL    HW241093   9.486  13.003   9.094
13066SOL     OW41094  14.330   1.067  14.816
13066SOL    HW141095  14.282   1.095   0.013
13066SOL    HW241096  14.273   1.003  14.775
13067SOL     OW41097   5.143   8.744   2.682
13067SOL    HW141098   5.053   8.763   2.656
13067SOL    HW241099   5.197   8.795   2.622
13068SOL     OW41100  12.971   7.681   0.900
13068SOL    HW141101  12.954   7.766   0.858
13068SOL    HW241102  12.992   7.703   0.991
13069SOL     OW41103   0.852   3.109  14.156
13069SOL    HW141104   0.836   3.129  14.249
13069SOL    HW241105   0.946   3.091  14.152
13070SOL     OW41106   8.946  10.561   8.231
13070SOL    HW141107   9.010  10.626   8.260
13070SOL    HW241108   8.988  10.518   8.157
13071SOL     OW41109  10.667   9.605   0.675
13071SOL    HW141110  10.595   9.591   0.736
13071SOL    HW241111  10.661   9.697   0.651
13072SOL     OW41112   7.252   9.827   9.954
13072SOL    HW141113   7.284   9.826  10.045
13072SOL    HW241114   7.208   9.742   9.944
13073SOL     OW41115   6.838   2.588  11.616
13073SOL    HW141116   6.850   2.545  11.700
13073SOL    HW241117   6.810   2.677  11.639
13074SOL     OW41118  13.020   1.628   0.556
13074SOL    HW141119  12.928   1.601   0.557
13074SOL    HW241120  13.034   1.667   0.642
13075SOL     OW41121   9.171  10.123   2.304
13075SOL    HW141122   9.192  10.030   2.311
13075SOL    HW241123   9.075  10.125   2.298
13076SOL     OW41124   5.346  10.763  10.946
13076SOL    HW141125   5.368  10.671  10.933
13076SOL    HW241126   5.377  10.807  10.866
13077SOL     OW41127   5.211  13.276   7.282
13077SOL    HW141128   5.276  13.308   7.345
13077SOL    HW241129   5.177  13.196   7.322
13078SOL     OW41130   6.613   9.416   8.911
13078SOL    HW141131   6.655   9.452   8.832
13078SOL    HW241132   6.608   9.491   8.971
13079SOL     OW41133   8.330   6.792  11.555
13079SOL    HW141134   8.248   6.768  11.512
13079SOL    HW241135   8.385   6.714  11.548
13080SOL     OW41136  10.617  10.834   4.345
13080SOL    HW141137  10.708  10.820   4.372
13080SOL    HW241138  10.568  10.766   4.389
13081SOL     OW41139   6.938   9.476   5.328
13081SOL    HW141140   6.886   9.470   5.248
13081SOL    HW241141   6.977   9.389   5.338
13082SOL     OW41142   5.275   3.562   9.197
13082SOL    HW141143   5.186   3.591   9.219
13082SOL    HW241144   5.268   3.528   9.108
13083SOL     OW41145  12.485   4.882   7.711
13083SOL    HW141146  12.400   4.859   7.748
13083SOL    HW241147  12.465   4.923   7.627
13084SOL     OW41148   3.020  11.831  10.629
13084SOL    HW141149   2.941  11.883  10.640
13084SOL    HW241150   3.001  11.748  10.673
13085SOL     OW41151   6.195  13.186   8.514
13085SOL    HW141152   6.131  13.159   8.580
13085SOL    HW241153   6.269  13.218   8.565
13086SOL     OW41154   1.481   9.353   8.366
13086SOL    HW141155   1.405   9.396   8.404
13086SOL    HW241156   1.451   9.264   8.346
13087SOL     OW41157   5.092   3.601   2.188
13087SOL    HW141158   5.047   3.520   2.214
13087SOL    HW241159   5.058   3.667   2.249
13088SOL     OW41160  14.376   2.076   7.519
13088SOL    HW141161  14.355   1.988   7.549
13088SOL    HW241162  14.359   2.132   7.595
13089SOL     OW41163   9.239   0.626   2.814
13089SOL    HW141164   9.299   0.616   2.888
13089SOL    HW241165   9.269   0.562   2.749
13090SOL     OW41166  14.613   6.083   8.189
13090SOL    HW141167  14.518   6.089   8.184
13090SOL    HW241168  14.636   6.126   8.271
13091SOL     OW41169   5.598  13.724   3.486
13091SOL    HW141170   5.554  13.658   3.433
13091SOL    HW241171   5.679  13.682   3.515
13092SOL     OW41172  12.302   8.410  14.372
13092SOL    HW141173  12.223   8.379  14.329
13092SOL    HW241174  12.353   8.450  14.301
13093SOL     OW41175   1.988   5.194   3.647
13093SOL    HW141176   1.966   5.170   3.557
13093SOL    HW241177   2.040   5.121   3.680
13094SOL     OW41178   8.701   1.443   8.254
13094SOL    HW141179   8.764   1.475   8.189
13094SOL    HW241180   8.741   1.465   8.338
13095SOL     OW41181   2.417   4.814   0.745
13095SOL    HW141182   2.431   4.904   0.714
13095SOL    HW241183   2.400   4.764   0.665
13096SOL     OW41184  13.829   8.265   0.920
13096SOL    HW141185  13.900   8.230   0.974
13096SOL    HW241186  13.869   8.283   0.835
13097SOL     OW41187   1.229   4.114   3.618
13097SOL    HW141188   1.274   4.156   3.691
13097SOL    HW241189   1.297   4.064   3.574
13098SOL     OW41190   5.214  10.364  12.477
13098SOL    HW141191   5.177  10.403  12.398
13098SOL    HW241192   5.189  10.424  12.548
13099SOL     OW41193   6.146  10.836   0.717
13099SOL    HW141194   6.130  10.926   0.746
13099SOL    HW241195   6.216  10.804   0.775
13100SOL     OW41196  10.536   1.500   1.566
13100SOL    HW141197  10.586   1.433   1.520
13100SOL    HW241198  10.585   1.515   1.647
13101SOL     OW41199  10.038  10.306  12.192
13101SOL    HW141200  10.008  10.343  12.108
13101SOL    HW241201  10.132  10.320  12.192
13102SOL     OW41202   8.180  10.460  11.904
13102SOL    HW141203   8.230  10.438  11.982
13102SOL    HW241204   8.216  10.404  11.835
13103SOL     OW41205  14.582   3.991   7.611
13103SOL    HW141206  14.633   3.984   7.531
13103SOL    HW241207  14.533   3.909   7.616
13104SOL     OW41208   2.294   6.610   0.120
13104SOL    HW141209   2.201   6.629   0.109
13104SOL    HW241210   2.338   6.669   0.059
13105SOL     OW41211   4.363   8.723  14.555
13105SOL    HW141212   4.407   8.786  14.612
13105SOL    HW241213   4.433   8.687  14.500
13106SOL     OW41214   3.095  14.713  10.551
13106SOL    HW141215   3.108  14.643  10.615
13106SOL    HW241216   3.155  14.782  10.578
13107SOL     OW41217   5.459  13.773   0.412
13107SOL    HW141218   5.414  13.855   0.431
13107SOL    HW241219   5.541  13.800   0.370
13108SOL     OW41220   5.822   0.688   2.575
13108SOL    HW141221   5.825   0.781   2.551
13108SOL    HW241222   5.796   0.643   2.495
13109SOL     OW41223   0.539  12.628  12.942
13109SOL    HW141224   0.570  12.606  13.030
13109SOL    HW241225   0.497  12.713  12.952
13110SOL     OW41226  11.911   3.701   3.034
13110SOL    HW141227  11.891   3.618   2.991
13110SOL    HW241228  11.826   3.742   3.047
13111SOL     OW41229   2.372   6.549  14.608
13111SOL    HW141230   2.364   6.464  14.564
13111SOL    HW241231   2.305   6.603  14.567
13112SOL     OW41232   4.285   6.346   3.333
13112SOL    HW141233   4.241   6.392   3.262
13112SOL    HW241234   4.215   6.306   3.384
13113SOL     OW41235   9.081   4.033  14.698
13113SOL    HW141236   9.130   4.065  14.623
13113SOL    HW241237   8.996   4.077  14.692
13114SOL     OW41238  12.215   2.233  12.255
13114SOL    HW141239  12.195   2.327  12.254
13114SOL    HW241240  12.150   2.194  12.197
13115SOL     OW41241  10.793   4.741   1.462
13115SOL    HW141242  10.783   4.817   1.405
13115SOL    HW241243  10.832   4.775   1.542
13116SOL     OW41244   6.043   7.675  10.795
13116SOL    HW141245   6.120   7.731  10.793
13116SOL    HW241246   6.057   7.618  10.870
13117SOL     OW41247   7.938  10.143   4.362
13117SOL    HW141248   8.015  10.098   4.328
13117SOL    HW241249   7.930  10.222   4.309
13118SOL     OW41250   3.368   2.713   2.273
13118SOL    HW141251   3.434   2.741   2.337
13118SOL    HW241252   3.285   2.730   2.316
13119SOL     OW41253   8.546  10.466   0.891
13119SOL    HW141254   8.606  10.465   0.966
13119SOL    HW241255   8.587  10.409   0.826
13120SOL     OW41256   0.945   7.317   2.388
13120SOL    HW141257   0.917   7.229   2.364
13120SOL    HW241258   0.976   7.355   2.305
13121SOL     OW41259  12.576  13.554   6.677
13121SOL    HW141260  12.532  13.545   6.762
13121SOL    HW241261  12.565  13.468   6.635
13122SOL     OW41262   0.578  13.396   1.279
13122SOL    HW141263   0.654  13.343   1.300
13122SOL    HW241264   0.559  13.377   1.187
13123SOL     OW41265   1.321   9.909   3.710
13123SOL    HW141266   1.367   9.847   3.654
13123SOL    HW241267   1.357   9.994   3.688
13124SOL     OW41268   2.085   4.196   0.647
13124SOL    HW141269   2.111   4.106   0.626
13124SOL    HW241270   1.998   4.206   0.610
13125SOL     OW41271   5.626   0.546   6.856
13125SOL    HW141272   5.547   0.493   6.842
13125SOL    HW241273   5.658   0.565   6.767
13126SOL     OW41274   4.633   9.715   1.404
13126SOL    HW141275   4.636   9.625   1.372
13126SOL    HW241276   4.637   9.769   1.325
13127SOL     OW41277   9.248   7.469   4.027
13127SOL    HW141278   9.222   7.489   3.937
13127SOL    HW241279   9.299   7.545   4.055
13128SOL     OW41280  12.883   2.077   7.258
13128SOL    HW141281  12.899   2.050   7.349
13128SOL    HW241282  12.970   2.097   7.224
13129SOL     OW41283   0.750   9.297   0.706
13129SOL    HW141284   0.830   9.293   0.758
13129SOL    HW241285   0.762   9.230   0.639
13130SOL     OW41286  13.831   2.028   2.057
13130SOL    HW141287  13.850   2.112   2.100
13130SOL    HW241288  13.917   1.986   2.050
13131SOL     OW41289  11.149   3.110   6.701
13131SOL    HW141290  11.221   3.166   6.672
13131SOL    HW241291  11.089   3.107   6.626
13132SOL     OW41292  11.890  12.943   2.466
13132SOL    HW141293  11.868  12.996   2.389
13132SOL    HW241294  11.805  12.914   2.500
13133SOL     OW41295   4.197  13.777   6.507
13133SOL    HW141296   4.162  13.862   6.535
13133SOL    HW241297   4.256  13.799   6.435
13134SOL     OW41298  11.310  12.972   5.767
13134SOL    HW141299  11.398  13.008   5.759
13134SOL    HW241300  11.283  12.993   5.856
13135SOL     OW41301   1.977   4.180   1.424
13135SOL    HW141302   2.063   4.168   1.384
13135SOL    HW241303   1.970   4.108   1.487
13136SOL     OW41304   6.140  11.446   2.466
13136SOL    HW141305   6.224  11.492   2.466
13136SOL    HW241306   6.130  11.413   2.377
13137SOL     OW41307   9.585   7.189   5.863
13137SOL    HW141308   9.667   7.223   5.826
13137SOL    HW241309   9.548   7.135   5.794
13138SOL     OW41310   2.046   9.473   6.506
13138SOL    HW141311   2.049   9.488   6.600
13138SOL    HW241312   2.039   9.378   6.497
13139SOL     OW41313  10.901   4.845   2.760
13139SOL    HW141314  10.813   4.822   2.791
13139SOL    HW241315  10.923   4.776   2.697
13140SOL     OW41316   2.541  12.454  11.228
13140SOL    HW141317   2.637  12.449  11.228
13140SOL    HW241318   2.521  12.536  11.184
13141SOL     OW41319  10.594  10.851   3.526
13141SOL    HW141320  10.551  10.934   3.545
13141SOL    HW241321  10.560  10.790   3.592
13142SOL     OW41322   0.744   9.543   6.653
13142SOL    HW141323   0.760   9.636   6.669
13142SOL    HW241324   0.741   9.504   6.741
13143SOL     OW41325   7.000  13.058   3.910
13143SOL    HW141326   6.990  13.059   4.005
13143SOL    HW241327   6.923  13.013   3.878
13144SOL     OW41328  11.766   8.020   0.931
13144SOL    HW141329  11.814   7.939   0.943
13144SOL    HW241330  11.761   8.030   0.836
13145SOL     OW41331   0.985  10.428   8.070
13145SOL    HW141332   1.068  10.383   8.052
13145SOL    HW241333   1.003  10.477   8.151
13146SOL     OW41334   1.100  13.052  10.020
13146SOL    HW141335   1.050  13.067   9.940
13146SOL    HW241336   1.166  13.121  10.021
13147SOL     OW41337   9.636   6.098   2.977
13147SOL    HW141338   9.647   6.179   2.926
13147SOL    HW241339   9.542   6.089   2.987
13148SOL     OW41340   9.374   9.565   8.623
13148SOL    HW141341   9.308   9.592   8.688
13148SOL    HW241342   9.407   9.648   8.588
13149SOL     OW41343   4.304   2.039   2.343
13149SOL    HW141344   4.377   2.100   2.349
13149SOL    HW241345   4.338   1.967   2.289
13150SOL     OW41346  12.087   3.712   7.547
13150SOL    HW141347  12.081   3.620   7.522
13150SOL    HW241348  12.142   3.712   7.625
13151SOL     OW41349  13.647   2.398   5.353
13151SOL    HW141350  13.704   2.353   5.416
13151SOL    HW241351  13.684   2.486   5.347
13152SOL     OW41352  14.432   7.034  13.949
13152SOL    HW141353  14.366   7.050  14.016
13152SOL    HW241354  14.389   6.975  13.886
13153SOL     OW41355   0.499   8.741  11.613
13153SOL    HW141356   0.542   8.655  11.605
13153SOL    HW241357   0.508   8.764  11.705
13154SOL     OW41358  13.573   7.415   0.403
13154SOL    HW141359  13.642   7.441   0.342
13154SOL    HW241360  13.594   7.461   0.484
13155SOL     OW41361   1.585   7.696   3.503
13155SOL    HW141362   1.608   7.622   3.559
13155SOL    HW241363   1.508   7.667   3.454
13156SOL     OW41364  11.112   2.970   0.409
13156SOL    HW141365  11.177   2.969   0.479
13156SOL    HW241366  11.032   2.937   0.451
13157SOL     OW41367   4.935   3.729   4.388
13157SOL    HW141368   4.862   3.737   4.449
13157SOL    HW241369   4.918   3.647   4.340
13158SOL     OW41370   1.044   9.462   8.662
13158SOL    HW141371   1.003   9.488   8.579
13158SOL    HW241372   0.995   9.509   8.729
13159SOL     OW41373  11.630   9.174   1.579
13159SOL    HW141374  11.611   9.207   1.666
13159SOL    HW241375  11.718   9.134   1.586
13160SOL     OW41376   5.012   0.358   1.725
13160SOL    HW141377   4.998   0.271   1.763
13160SOL    HW241378   5.093   0.389   1.766
13161SOL     OW41379   4.117  13.803   9.481
13161SOL    HW141380   4.105  13.727   9.538
13161SOL    HW241381   4.032  13.847   9.482
13162SOL     OW41382   3.665   8.238   7.295
13162SOL    HW141383   3.618   8.241   7.211
13162SOL    HW241384   3.597   8.248   7.361
13163SOL     OW41385   5.874   7.193  12.264
13163SOL    HW141386   5.924   7.264  12.306
13163SOL    HW241387   5.935   7.156  12.201
13164SOL     OW41388  13.401  14.622   6.317
13164SOL    HW141389  13.471  14.680   6.288
13164SOL    HW241390  13.320  14.673   6.306
13165SOL     OW41391   0.437   6.354   7.802
13165SOL    HW141392   0.510   6.408   7.832
13165SOL    HW241393   0.478   6.274   7.768
13166SOL     OW41394   4.208   8.928   5.950
13166SOL    HW141395   4.279   8.981   5.986
13166SOL    HW241396   4.154   8.907   6.025
13167SOL     OW41397   0.940   9.027  12.117
13167SOL    HW141398   0.878   9.038  12.046
13167SOL    HW241399   0.987   9.111  12.120
13168SOL     OW41400  11.918   3.922   2.567
13168SOL    HW141401  12.011   3.936   2.549
13168SOL    HW241402  11.916   3.840   2.617
13169SOL     OW41403   4.040  14.442  13.497
13169SOL    HW141404   4.098  14.451  13.572
13169SOL    HW241405   4.065  14.513  13.438
13170SOL     OW41406  10.568  11.720  11.499
13170SOL    HW141407  10.657  11.754  11.506
13170SOL    HW241408  10.579  11.625  11.492
13171SOL     OW41409  12.729   9.062  12.635
13171SOL    HW141410  12.673   9.102  12.701
13171SOL    HW241411  12.670   9.033  12.566
13172SOL     OW41412   9.237   7.552   0.054
13172SOL    HW141413   9.197   7.481   0.104
13172SOL    HW241414   9.221   7.630   0.106
13173SOL     OW41415   4.587  11.186  10.571
13173SOL    HW141416   4.616  11.137  10.494
13173SOL    HW241417   4.540  11.121  10.623
13174SOL     OW41418   1.063   0.085   9.174
13174SOL    HW141419   1.067   0.033   9.254
13174SOL    HW241420   1.128   0.044   9.116
13175SOL     OW41421  14.027   2.378   1.090
13175SOL    HW141422  13.955   2.388   1.153
13175SOL    HW241423  14.097   2.434   1.125
13176SOL     OW41424   2.026   4.462   9.955
13176SOL    HW141425   1.959   4.396   9.939
13176SOL    HW241426   1.979   4.534   9.998
13177SOL     OW41427   2.966   7.052  12.401
13177SOL    HW141428   2.915   6.993  12.456
13177SOL    HW241429   2.990   7.124  12.459
13178SOL     OW41430   9.170   2.433   8.762
13178SOL    HW141431   9.202   2.516   8.726
13178SOL    HW241432   9.109   2.459   8.831
13179SOL     OW41433   8.615   7.851  13.978
13179SOL    HW141434   8.557   7.820  14.048
13179SOL    HW241435   8.677   7.909  14.021
13180SOL     OW41436  11.415   4.862   7.696
13180SOL    HW141437  11.412   4.843   7.603
13180SOL    HW241438  11.414   4.777   7.739
13181SOL     OW41439   5.091   6.197   6.852
13181SOL    HW141440   5.122   6.207   6.762
13181SOL    HW241441   5.027   6.266   6.863
13182SOL     OW41442   0.072   5.830   0.634
13182SOL    HW141443   0.008   5.787   0.577
13182SOL    HW241444   0.144   5.768   0.640
13183SOL     OW41445   9.331   3.092   3.506
13183SOL    HW141446   9.252   3.106   3.559
13183SOL    HW241447   9.300   3.044   3.429
13184SOL     OW41448   0.383  12.825  14.477
13184SOL    HW141449   0.322  12.816  14.551
13184SOL    HW241450   0.349  12.764  14.412
13185SOL     OW41451   6.614  12.926  12.981
13185SOL    HW141452   6.605  13.005  12.928
13185SOL    HW241453   6.656  12.955  13.061
13186SOL     OW41454   2.479   0.725   8.487
13186SOL    HW141455   2.448   0.669   8.416
13186SOL    HW241456   2.557   0.680   8.521
13187SOL     OW41457   8.761   3.866   8.174
13187SOL    HW141458   8.706   3.932   8.217
13187SOL    HW241459   8.781   3.803   8.244
13188SOL     OW41460  14.702  12.656   1.559
13188SOL    HW141461  14.675  12.722   1.622
13188SOL    HW241462  14.778  12.695   1.515
13189SOL     OW41463   8.333   0.911   1.335
13189SOL    HW141464   8.327   0.821   1.368
13189SOL    HW241465   8.426   0.924   1.319
13190SOL     OW41466   0.851  12.532  12.968
13190SOL    HW141467   0.832  12.544  13.061
13190SOL    HW241468   0.902  12.451  12.964
13191SOL     OW41469   7.612   0.046   0.748
13191SOL    HW141470   7.664   0.003   0.681
13191SOL    HW241471   7.610  14.867   0.821
13192SOL     OW41472  13.941  11.316  11.287
13192SOL    HW141473  13.889  11.306  11.208
13192SOL    HW241474  14.011  11.251  11.279
13193SOL     OW41475   3.484   9.946   9.994
13193SOL    HW141476   3.542   9.965  10.067
13193SOL    HW241477   3.396   9.954  10.030
13194SOL     OW41478   3.773  10.514   1.718
13194SOL    HW141479   3.760  10.572   1.793
13194SOL    HW241480   3.867  10.496   1.717
13195SOL     OW41481   0.925   9.165   8.992
13195SOL    HW141482   0.943   9.182   8.899
13195SOL    HW241483   0.829   9.165   8.998
13196SOL     OW41484  12.622   8.347   4.770
13196SOL    HW141485  12.595   8.335   4.861
13196SOL    HW241486  12.717   8.335   4.771
13197SOL     OW41487  13.052  12.396  12.513
13197SOL    HW141488  12.995  12.361  12.582
13197SOL    HW241489  13.137  12.409  12.557
13198SOL     OW41490   4.984  12.356   0.851
13198SOL    HW141491   5.005  12.269   0.886
13198SOL    HW241492   4.889  12.358   0.846
13199SOL     OW41493   3.796   2.759   5.359
13199SOL    HW141494   3.876   2.727   5.317
13199SOL    HW241495   3.795   2.853   5.341
13200SOL     OW41496  13.175   5.733   9.853
13200SOL    HW141497  13.226   5.808   9.882
13200SOL    HW241498  13.117   5.714   9.926
13201SOL     OW41499   2.444   2.604   5.533
13201SOL    HW141500   2.515   2.637   5.588
13201SOL    HW241501   2.486   2.540   5.475
13202SOL     OW41502  10.555   3.174   4.540
13202SOL    HW141503  10.607   3.153   4.617
13202SOL    HW241504  10.584   3.112   4.473
13203SOL     OW41505   0.882   0.224  10.934
13203SOL    HW141506   0.826   0.170  10.880
13203SOL    HW241507   0.822   0.274  10.990
13204SOL     OW41508  14.791   9.363   3.776
13204SOL    HW141509  14.798   9.422   3.852
13204SOL    HW241510  14.712   9.391   3.731
13205SOL     OW41511   7.811   7.696  13.836
13205SOL    HW141512   7.840   7.777  13.794
13205SOL    HW241513   7.889   7.659  13.876
13206SOL     OW41514  14.667   6.702   3.079
13206SOL    HW141515  14.723   6.651   3.137
13206SOL    HW241516  14.726   6.736   3.012
13207SOL     OW41517   5.587   1.037  11.073
13207SOL    HW141518   5.533   0.993  11.007
13207SOL    HW241519   5.627   1.110  11.026
13208SOL     OW41520   7.860   3.289   4.219
13208SOL    HW141521   7.845   3.380   4.191
13208SOL    HW241522   7.870   3.295   4.314
13209SOL     OW41523   5.512  11.241   0.624
13209SOL    HW141524   5.603  11.224   0.649
13209SOL    HW241525   5.488  11.320   0.672
13210SOL     OW41526   8.604  14.750   1.157
13210SOL    HW141527   8.593  14.655   1.164
13210SOL    HW241528   8.692  14.766   1.191
13211SOL     OW41529   8.281  11.354   7.793
13211SOL    HW141530   8.210  11.298   7.826
13211SOL    HW241531   8.238  11.435   7.767
13212SOL     OW41532   3.245  10.173  12.613
13212SOL    HW141533   3.288  10.160  12.697
13212SOL    HW241534   3.300  10.236  12.567
13213SOL     OW41535  12.786   9.121   3.065
13213SOL    HW141536  12.762   9.078   2.983
13213SOL    HW241537  12.713   9.180   3.083
13214SOL     OW41538  13.972   8.448   3.220
13214SOL    HW141539  14.043   8.392   3.251
13214SOL    HW241540  14.012   8.533   3.205
13215SOL     OW41541   5.962   8.931  14.768
13215SOL    HW141542   6.008   8.951  14.850
13215SOL    HW241543   6.020   8.963  14.700
13216SOL     OW41544  12.891   2.539   6.287
13216SOL    HW141545  12.856   2.466   6.339
13216SOL    HW241546  12.860   2.523   6.198
13217SOL     OW41547   8.719   8.905   3.690
13217SOL    HW141548   8.666   8.873   3.763
13217SOL    HW241549   8.666   8.976   3.652
13218SOL     OW41550   6.606  14.435   3.776
13218SOL    HW141551   6.627  14.374   3.846
13218SOL    HW241552   6.687  14.445   3.726
13219SOL     OW41553  14.528   6.118   1.680
13219SOL    HW141554  14.501   6.026   1.677
13219SOL    HW241555  14.451   6.167   1.651
13220SOL     OW41556  10.301  12.845   1.002
13220SOL    HW141557  10.295  12.902   1.078
13220SOL    HW241558  10.393  12.821   0.996
13221SOL     OW41559   2.758   2.095  12.333
13221SOL    HW141560   2.752   2.033  12.406
13221SOL    HW241561   2.747   2.181  12.374
13222SOL     OW41562  10.374   1.812   1.037
13222SOL    HW141563  10.321   1.888   1.013
13222SOL    HW241564  10.375   1.811   1.132
13223SOL     OW41565   4.869  14.870  10.164
13223SOL    HW141566   4.875  14.777  10.143
13223SOL    HW241567   4.938   0.029  10.112
13224SOL     OW41568   0.818  12.554   4.451
13224SOL    HW141569   0.804  12.518   4.538
13224SOL    HW241570   0.881  12.625   4.465
13225SOL     OW41571  11.155   7.121  11.925
13225SOL    HW141572  11.162   7.213  11.900
13225SOL    HW241573  11.101   7.121  12.004
13226SOL     OW41574   9.460   5.642  11.622
13226SOL    HW141575   9.478   5.709  11.556
13226SOL    HW241576   9.366   5.627  11.616
13227SOL     OW41577   0.724  10.229   6.417
13227SOL    HW141578   0.739  10.168   6.344
13227SOL    HW241579   0.700  10.312   6.376
13228SOL     OW41580  11.414   9.755   5.892
13228SOL    HW141581  11.486   9.809   5.927
13228SOL    HW241582  11.416   9.675   5.945
13229SOL     OW41583  14.793   3.164   4.607
13229SOL    HW141584  14.699   3.152   4.621
13229SOL    HW241585  14.822   3.079   4.574
13230SOL     OW41586  10.793   1.783  13.343
13230SOL    HW141587  10.729   1.766  13.411
13230SOL    HW241588  10.797   1.879  13.336
13231SOL     OW41589  11.575  13.433  13.583
13231SOL    HW141590  11.570  13.340  13.603
13231SOL    HW241591  11.650  13.441  13.524
13232SOL     OW41592   4.669   6.326   9.924
13232SOL    HW141593   4.713   6.281   9.996
13232SOL    HW241594   4.629   6.403   9.964
13233SOL     OW41595  13.795  11.228   7.510
13233SOL    HW141596  13.801  11.279   7.429
13233SOL    HW241597  13.722  11.268   7.558
13234SOL     OW41598  13.348   3.872  12.586
13234SOL    HW141599  13.290   3.842  12.515
13234SOL    HW241600  13.429   3.896  12.542
13235SOL     OW41601   5.859   1.557   8.654
13235SOL    HW141602   5.935   1.601   8.617
13235SOL    HW241603   5.872   1.465   8.632
13236SOL     OW41604   3.547  12.320   7.963
13236SOL    HW141605   3.619  12.373   7.928
13236SOL    HW241606   3.481  12.320   7.894
13237SOL     OW41607  10.843   6.316   0.277
13237SOL    HW141608  10.894   6.356   0.347
13237SOL    HW241609  10.851   6.222   0.291
13238SOL     OW41610  12.272  12.329   5.048
13238SOL    HW141611  12.232  12.383   4.979
13238SOL    HW241612  12.217  12.344   5.125
13239SOL     OW41613   5.512   3.223   3.907
13239SOL    HW141614   5.438   3.164   3.924
13239SOL    HW241615   5.579   3.196   3.969
13240SOL     OW41616   5.726   4.009   3.953
13240SOL    HW141617   5.784   4.016   4.029
13240SOL    HW241618   5.772   3.949   3.893
13241SOL     OW41619  12.247  10.998   8.502
13241SOL    HW141620  12.169  10.964   8.546
13241SOL    HW241621  12.230  10.985   8.409
13242SOL     OW41622   4.382  11.360  14.241
13242SOL    HW141623   4.346  11.320  14.162
13242SOL    HW241624   4.477  11.358  14.228
13243SOL     OW41625   9.268   4.441  11.346
13243SOL    HW141626   9.300   4.444  11.436
13243SOL    HW241627   9.174   4.425  11.354
13244SOL     OW41628   2.983   3.791   2.477
13244SOL    HW141629   2.909   3.791   2.538
13244SOL    HW241630   2.981   3.878   2.437
13245SOL     OW41631   5.912  13.050   6.723
13245SOL    HW141632   6.005  13.056   6.743
13245SOL    HW241633   5.903  13.094   6.639
13246SOL     OW41634  10.851   1.588   6.729
13246SOL    HW141635  10.826   1.569   6.638
13246SOL    HW241636  10.946   1.575   6.731
13247SOL     OW41637  14.799   2.420   5.273
13247SOL    HW141638  14.749   2.497   5.244
13247SOL    HW241639   0.006   2.452   5.282
13248SOL     OW41640   2.243   2.808   5.205
13248SOL    HW141641   2.216   2.796   5.114
13248SOL    HW241642   2.236   2.902   5.220
13249SOL     OW41643   9.536  12.005   7.109
13249SOL    HW141644   9.460  11.957   7.141
13249SOL    HW241645   9.588  12.023   7.188
13250SOL     OW41646   2.458  14.662   0.609
13250SOL    HW141647   2.441  14.676   0.702
13250SOL    HW241648   2.445  14.569   0.595
13251SOL     OW41649   5.721   7.687   0.450
13251SOL    HW141650   5.700   7.594   0.448
13251SOL    HW241651   5.814   7.690   0.469
13252SOL     OW41652  13.765   4.521   5.876
13252SOL    HW141653  13.795   4.612   5.870
13252SOL    HW241654  13.706   4.511   5.801
13253SOL     OW41655   9.283   8.085   5.352
13253SOL    HW141656   9.275   8.001   5.398
13253SOL    HW241657   9.248   8.150   5.413
13254SOL     OW41658  11.781  11.772  10.685
13254SOL    HW141659  11.689  11.745  10.679
13254SOL    HW241660  11.825  11.719  10.618
13255SOL     OW41661   7.293   1.349   5.172
13255SOL    HW141662   7.351   1.273   5.179
13255SOL    HW241663   7.215   1.315   5.129
13256SOL     OW41664  13.835  14.181   6.472
13256SOL    HW141665  13.747  14.147   6.461
13256SOL    HW241666  13.884  14.146   6.398
13257SOL     OW41667   5.421   6.888  11.237
13257SOL    HW141668   5.441   6.806  11.192
13257SOL    HW241669   5.357   6.864  11.303
13258SOL     OW41670   0.203   0.128  14.830
13258SOL    HW141671   0.245   0.101   0.030
13258SOL    HW241672   0.226   0.221  14.821
13259SOL     OW41673   7.671  12.739   9.794
13259SOL    HW141674   7.606  12.670   9.804
13259SOL    HW241675   7.637  12.796   9.725
13260SOL     OW41676  10.484   8.238  14.873
13260SOL    HW141677  10.417   8.196   0.045
13260SOL    HW241678  10.469   8.332   0.001
13261SOL     OW41679  14.613   5.986  13.329
13261SOL    HW141680  14.650   5.900  13.348
13261SOL    HW241681  14.581   6.018  13.414
13262SOL     OW41682   3.337   6.922   2.507
13262SOL    HW141683   3.295   6.848   2.550
13262SOL    HW241684   3.387   6.964   2.577
13263SOL     OW41685   6.604   5.289  11.220
13263SOL    HW141686   6.565   5.220  11.273
13263SOL    HW241687   6.691   5.302  11.259
13264SOL     OW41688   3.033  10.179  10.170
13264SOL    HW141689   3.125  10.155  10.182
13264SOL    HW241690   2.984  10.106  10.209
13265SOL     OW41691  12.419  11.660   6.485
13265SOL    HW141692  12.464  11.583   6.519
13265SOL    HW241693  12.390  11.634   6.397
13266SOL     OW41694   8.897   9.875  12.507
13266SOL    HW141695   8.892   9.847  12.415
13266SOL    HW241696   8.846   9.809  12.555
13267SOL     OW41697   3.751   1.996  13.869
13267SOL    HW141698   3.672   1.961  13.912
13267SOL    HW241699   3.823   1.965  13.923
13268SOL     OW41700  12.808  12.651   9.384
13268SOL    HW141701  12.820  12.653   9.289
13268SOL    HW241702  12.877  12.593   9.415
13269SOL     OW41703  12.227  12.817  10.053
13269SOL    HW141704  12.278  12.765   9.991
13269SOL    HW241705  12.256  12.785  10.139
13270SOL     OW41706  14.110   4.417  12.455
13270SOL    HW141707  14.064   4.488  12.500
13270SOL    HW241708  14.173   4.462  12.398
13271SOL     OW41709   5.234   1.970   6.283
13271SOL    HW141710   5.152   1.924   6.300
13271SOL    HW241711   5.214   2.063   6.298
13272SOL     OW41712   5.154   2.940   6.827
13272SOL    HW141713   5.105   2.995   6.888
13272SOL    HW241714   5.159   2.991   6.747
13273SOL     OW41715  10.233   2.632   4.514
13273SOL    HW141716  10.225   2.720   4.552
13273SOL    HW241717  10.160   2.625   4.452
13274SOL     OW41718   6.950  11.985   2.776
13274SOL    HW141719   6.952  11.891   2.791
13274SOL    HW241720   7.018  12.000   2.710
13275SOL     OW41721   0.265   5.302   7.284
13275SOL    HW141722   0.328   5.342   7.223
13275SOL    HW241723   0.229   5.228   7.236
13276SOL     OW41724   1.772   0.094   7.894
13276SOL    HW141725   1.722   0.123   7.970
13276SOL    HW241726   1.854   0.143   7.899
13277SOL     OW41727  13.601   2.459   5.655
13277SOL    HW141728  13.659   2.499   5.719
13277SOL    HW241729  13.599   2.521   5.582
13278SOL     OW41730  13.833   7.726   1.528
13278SOL    HW141731  13.864   7.726   1.437
13278SOL    HW241732  13.899   7.677   1.576
13279SOL     OW41733  11.743  12.938  13.611
13279SOL    HW141734  11.715  13.026  13.588
13279SOL    HW241735  11.662  12.887  13.620
13280SOL     OW41736  10.092   0.835  14.723
13280SOL    HW141737  10.117   0.898  14.792
13280SOL    HW241738  10.136   0.754  14.748
13281SOL     OW41739   8.148  10.324   9.998
13281SOL    HW141740   8.206  10.257  10.034
13281SOL    HW241741   8.204  10.377   9.942
13282SOL     OW41742   4.961   2.538   8.145
13282SOL    HW141743   4.890   2.521   8.207
13282SOL    HW241744   5.003   2.617   8.177
13283SOL     OW41745   8.927   9.715  13.912
13283SOL    HW141746   8.953   9.793  13.863
13283SOL    HW241747   8.874   9.664  13.851
13284SOL     OW41748   9.572   0.057  12.432
13284SOL    HW141749   9.579   0.054  12.337
13284SOL    HW241750   9.483   0.027  12.451
13285SOL     OW41751  11.024   0.022   8.342
13285SOL    HW141752  11.075   0.103   8.354
13285SOL    HW241753  10.935   0.053   8.322
13286SOL     OW41754  11.549   8.266   0.349
13286SOL    HW141755  11.510   8.324   0.284
13286SOL    HW241756  11.609   8.211   0.299
13287SOL     OW41757   1.531   9.858   4.603
13287SOL    HW141758   1.445   9.890   4.574
13287SOL    HW241759   1.591   9.930   4.584
13288SOL     OW41760  11.617  11.309   5.822
13288SOL    HW141761  11.648  11.396   5.797
13288SOL    HW241762  11.672  11.284   5.896
13289SOL     OW41763   4.519   5.145   3.426
13289SOL    HW141764   4.524   5.236   3.455
13289SOL    HW241765   4.548   5.094   3.502
13290SOL     OW41766   5.864   6.260   3.466
13290SOL    HW141767   5.821   6.176   3.448
13290SOL    HW241768   5.865   6.304   3.381
13291SOL     OW41769   8.943  10.329   4.011
13291SOL    HW141770   8.900  10.266   4.068
13291SOL    HW241771   8.871  10.376   3.969
13292SOL     OW41772   9.139   7.974  10.323
13292SOL    HW141773   9.052   7.963  10.284
13292SOL    HW241774   9.198   7.933  10.260
13293SOL     OW41775   4.311   3.433  14.729
13293SOL    HW141776   4.337   3.346  14.760
13293SOL    HW241777   4.389   3.466  14.683
13294SOL     OW41778  12.647   5.202   1.026
13294SOL    HW141779  12.656   5.271   0.960
13294SOL    HW241780  12.732   5.200   1.069
13295SOL     OW41781   2.904   2.973  13.783
13295SOL    HW141782   2.870   2.947  13.869
13295SOL    HW241783   2.999   2.967  13.793
13296SOL     OW41784  12.326   8.998   9.547
13296SOL    HW141785  12.344   9.078   9.497
13296SOL    HW241786  12.236   8.974   9.523
13297SOL     OW41787   7.249  12.294   5.199
13297SOL    HW141788   7.319  12.236   5.231
13297SOL    HW241789   7.258  12.373   5.252
13298SOL     OW41790  13.124  10.052   5.596
13298SOL    HW141791  13.068  10.101   5.656
13298SOL    HW241792  13.151  10.116   5.530
13299SOL     OW41793  11.891  13.588  11.961
13299SOL    HW141794  11.936  13.516  11.917
13299SOL    HW241795  11.932  13.591  12.048
13300SOL     OW41796  10.528   6.895   8.729
13300SOL    HW141797  10.562   6.983   8.741
13300SOL    HW241798  10.563   6.868   8.644
13301SOL     OW41799   1.196   2.106   0.548
13301SOL    HW141800   1.144   2.027   0.567
13301SOL    HW241801   1.217   2.142   0.634
13302SOL     OW41802   7.267  11.217   8.239
13302SOL    HW141803   7.318  11.137   8.253
13302SOL    HW241804   7.324  11.273   8.186
13303SOL     OW41805   4.317  12.538   4.198
13303SOL    HW141806   4.239  12.553   4.145
13303SOL    HW241807   4.317  12.609   4.261
13304SOL     OW41808   6.393  11.628  12.975
13304SOL    HW141809   6.343  11.563  13.025
13304SOL    HW241810   6.484  11.614  13.002
13305SOL     OW41811   8.713  13.995   3.153
13305SOL    HW141812   8.751  13.909   3.170
13305SOL    HW241813   8.782  14.057   3.177
13306SOL     OW41814   7.583   4.810   5.493
13306SOL    HW141815   7.669   4.816   5.451
13306SOL    HW241816   7.540   4.736   5.450
13307SOL     OW41817  10.191  12.842  10.155
13307SOL    HW141818  10.283  12.867  10.162
13307SOL    HW241819  10.142  12.917  10.189
13308SOL     OW41820  10.117  12.562  12.086
13308SOL    HW141821  10.024  12.540  12.091
13308SOL    HW241822  10.131  12.587  11.994
13309SOL     OW41823   8.536   3.567  13.345
13309SOL    HW141824   8.576   3.502  13.403
13309SOL    HW241825   8.522   3.520  13.263
13310SOL     OW41826  14.001   7.324   9.680
13310SOL    HW141827  14.046   7.398   9.720
13310SOL    HW241828  13.968   7.357   9.597
13311SOL     OW41829   8.255  12.202   5.098
13311SOL    HW141830   8.188  12.142   5.066
13311SOL    HW241831   8.305  12.226   5.020
13312SOL     OW41832  11.558  13.149   8.070
13312SOL    HW141833  11.528  13.222   8.016
13312SOL    HW241834  11.627  13.186   8.124
13313SOL     OW41835   4.923   4.916   0.745
13313SOL    HW141836   4.873   4.867   0.680
13313SOL    HW241837   4.880   4.896   0.829
13314SOL     OW41838   4.632   7.103   4.698
13314SOL    HW141839   4.549   7.125   4.655
13314SOL    HW241840   4.635   7.161   4.775
13315SOL     OW41841   6.502   5.940  12.968
13315SOL    HW141842   6.485   5.964  12.877
13315SOL    HW241843   6.438   5.990  13.018
13316SOL     OW41844   6.896   0.027  13.778
13316SOL    HW141845   6.825  14.850  13.804
13316SOL    HW241846   6.856   0.084  13.711
13317SOL     OW41847  10.050   0.342   7.029
13317SOL    HW141848   9.980   0.279   7.045
13317SOL    HW241849  10.047   0.401   7.105
13318SOL     OW41850  10.100  12.130  11.126
13318SOL    HW141851  10.148  12.185  11.188
13318SOL    HW241852  10.134  12.042  11.142
13319SOL     OW41853  10.599   0.986  12.037
13319SOL    HW141854  10.691   0.995  12.060
13319SOL    HW241855  10.552   0.990  12.120
13320SOL     OW41856  12.015  14.327   6.827
13320SOL    HW141857  12.010  14.239   6.790
13320SOL    HW241858  12.098  14.329   6.873
13321SOL     OW41859  11.557   0.652   5.016
13321SOL    HW141860  11.637   0.694   4.983
13321SOL    HW241861  11.589   0.587   5.079
13322SOL     OW41862   3.665   0.032   7.831
13322SOL    HW141863   3.571   0.023   7.845
13322SOL    HW241864   3.673   0.107   7.772
13323SOL     OW41865   8.225  14.204   1.627
13323SOL    HW141866   8.193  14.287   1.660
13323SOL    HW241867   8.311  14.193   1.669
13324SOL     OW41868  13.915  12.448  13.623
13324SOL    HW141869  13.931  12.482  13.535
13324SOL    HW241870  13.826  12.412  13.619
13325SOL     OW41871   4.449   0.945   2.669
13325SOL    HW141872   4.432   1.036   2.696
13325SOL    HW241873   4.468   0.952   2.576
13326SOL     OW41874   5.414   4.667   3.610
13326SOL    HW141875   5.494   4.688   3.657
13326SOL    HW241876   5.405   4.737   3.545
13327SOL     OW41877   4.273  10.916  12.717
13327SOL    HW141878   4.337  10.871  12.773
13327SOL    HW241879   4.325  10.981  12.669
13328SOL     OW41880   7.698  10.787   5.477
13328SOL    HW141881   7.660  10.720   5.533
13328SOL    HW241882   7.623  10.829   5.435
13329SOL     OW41883  10.810  12.000  12.675
13329SOL    HW141884  10.786  11.940  12.744
13329SOL    HW241885  10.807  12.087  12.716
13330SOL     OW41886   0.891   0.074  12.682
13330SOL    HW141887   0.849  14.871  12.690
13330SOL    HW241888   0.919   0.078  12.591
13331SOL     OW41889   2.942   7.792   8.722
13331SOL    HW141890   3.017   7.811   8.777
13331SOL    HW241891   2.866   7.816   8.776
13332SOL     OW41892  12.757   2.596  12.096
13332SOL    HW141893  12.714   2.675  12.063
13332SOL    HW241894  12.842   2.595  12.052
13333SOL     OW41895  11.036   4.780   1.738
13333SOL    HW141896  11.026   4.685   1.736
13333SOL    HW241897  11.130   4.795   1.728
13334SOL     OW41898  10.775  10.280   0.020
13334SOL    HW141899  10.816  10.230   0.091
13334SOL    HW241900  10.733  10.214  14.847
13335SOL     OW41901   8.733   0.854   0.150
13335SOL    HW141902   8.812   0.810   0.119
13335SOL    HW241903   8.671   0.844   0.078
13336SOL     OW41904   0.131  13.283   3.123
13336SOL    HW141905   0.130  13.189   3.142
13336SOL    HW241906   0.202  13.293   3.059
13337SOL     OW41907   1.821  12.362  11.399
13337SOL    HW141908   1.823  12.272  11.433
13337SOL    HW241909   1.733  12.374  11.365
13338SOL     OW41910  14.481   3.769  12.738
13338SOL    HW141911  14.461   3.690  12.788
13338SOL    HW241912  14.408   3.777  12.676
13339SOL     OW41913  14.445   1.728   0.198
13339SOL    HW141914  14.466   1.745   0.289
13339SOL    HW241915  14.439   1.815   0.158
13340SOL     OW41916  11.328   0.656   4.269
13340SOL    HW141917  11.313   0.689   4.358
13340SOL    HW241918  11.335   0.735   4.215
13341SOL     OW41919   4.334   7.893   7.660
13341SOL    HW141920   4.382   7.813   7.683
13341SOL    HW241921   4.294   7.874   7.576
13342SOL     OW41922   9.260   0.887  10.431
13342SOL    HW141923   9.203   0.960  10.455
13342SOL    HW241924   9.230   0.862  10.344
13343SOL     OW41925   9.947  10.031   2.995
13343SOL    HW141926  10.042  10.039   2.984
13343SOL    HW241927   9.930  10.068   3.082
13344SOL     OW41928  11.852   4.570   3.138
13344SOL    HW141929  11.859   4.663   3.161
13344SOL    HW241930  11.798   4.532   3.208
13345SOL     OW41931   8.844   2.308   3.634
13345SOL    HW141932   8.812   2.324   3.545
13345SOL    HW241933   8.774   2.342   3.691
13346SOL     OW41934   3.281   5.809  10.622
13346SOL    HW141935   3.265   5.718  10.596
13346SOL    HW241936   3.373   5.810  10.649
13347SOL     OW41937   1.442   4.176   2.250
13347SOL    HW141938   1.413   4.108   2.311
13347SOL    HW241939   1.487   4.128   2.180
13348SOL     OW41940   1.201  12.622   2.174
13348SOL    HW141941   1.285  12.655   2.206
13348SOL    HW241942   1.214  12.610   2.079
13349SOL     OW41943  11.880   1.178   2.959
13349SOL    HW141944  11.954   1.121   2.937
13349SOL    HW241945  11.869   1.169   3.053
13350SOL     OW41946   0.458  11.925   0.234
13350SOL    HW141947   0.457  11.940   0.329
13350SOL    HW241948   0.543  11.886   0.217
13351SOL     OW41949   2.969   0.341   0.421
13351SOL    HW141950   2.987   0.255   0.385
13351SOL    HW241951   2.882   0.364   0.387
13352SOL     OW41952   7.713   4.061  14.791
13352SOL    HW141953   7.663   4.110  14.725
13352SOL    HW241954   7.710   4.117  14.869
13353SOL     OW41955   6.157   7.765   0.152
13353SOL    HW141956   6.215   7.801   0.085
13353SOL    HW241957   6.070   7.797   0.130
13354SOL     OW41958   1.877   8.433   1.902
13354SOL    HW141959   1.816   8.360   1.910
13354SOL    HW241960   1.833   8.506   1.945
13355SOL     OW41961   6.387   1.551   7.029
13355SOL    HW141962   6.311   1.509   6.987
13355SOL    HW241963   6.453   1.555   6.960
13356SOL     OW41964   9.638  10.908   0.673
13356SOL    HW141965   9.662  10.927   0.763
13356SOL    HW241966   9.716  10.928   0.622
13357SOL     OW41967  12.162  12.545  11.207
13357SOL    HW141968  12.109  12.592  11.271
13357SOL    HW241969  12.240  12.600  11.196
13358SOL     OW41970   9.264   7.838   3.268
13358SOL    HW141971   9.239   7.924   3.236
13358SOL    HW241972   9.308   7.855   3.351
13359SOL     OW41973  10.704   7.474   5.408
13359SOL    HW141974  10.728   7.468   5.500
13359SOL    HW241975  10.703   7.568   5.390
13360SOL     OW41976   3.590   9.925   9.067
13360SOL    HW141977   3.637  10.008   9.071
13360SOL    HW241978   3.657   9.858   9.085
13361SOL     OW41979  13.645   4.495   8.909
13361SOL    HW141980  13.612   4.565   8.853
13361SOL    HW241981  13.592   4.419   8.886
13362SOL     OW41982  13.266   8.648  10.527
13362SOL    HW141983  13.310   8.717  10.478
13362SOL    HW241984  13.283   8.568  10.476
13363SOL     OW41985   3.784  10.441  13.132
13363SOL    HW141986   3.811  10.367  13.078
13363SOL    HW241987   3.726  10.402  13.198
13364SOL     OW41988   0.750   4.676   1.644
13364SOL    HW141989   0.838   4.704   1.669
13364SOL    HW241990   0.715   4.749   1.593
13365SOL     OW41991   7.641  14.234   0.805
13365SOL    HW141992   7.566  14.266   0.755
13365SOL    HW241993   7.635  14.139   0.799
13366SOL     OW41994   6.183   8.844   9.822
13366SOL    HW141995   6.096   8.807   9.806
13366SOL    HW241996   6.180   8.873   9.913
13367SOL     OW41997  13.224   9.970   9.091
13367SOL    HW141998  13.221   9.915   9.169
13367SOL    HW241999  13.310   9.953   9.053
13368SOL     OW42000   2.617  14.081  12.576
13368SOL    HW142001   2.601  14.150  12.511
13368SOL    HW242002   2.537  14.027  12.573
13369SOL     OW42003   5.784   8.710   2.920
13369SOL    HW142004   5.785   8.784   2.859
13369SOL    HW242005   5.804   8.749   3.005
13370SOL     OW42006   2.624   3.739  10.834
13370SOL    HW142007   2.679   3.781  10.900
13370SOL    HW242008   2.623   3.801  10.761
13371SOL     OW42009   3.603  11.702   5.412
13371SOL    HW142010   3.523  11.666   5.449
13371SOL    HW242011   3.574  11.774   5.357
13372SOL     OW42012   8.430  10.470  10.834
13372SOL    HW142013   8.410  10.553  10.792
13372SOL    HW242014   8.451  10.493  10.924
13373SOL     OW42015   4.352   4.833   3.971
13373SOL    HW142016   4.317   4.750   4.005
13373SOL    HW242017   4.323   4.836   3.880
13374SOL     OW42018   7.153   4.939  10.616
13374SOL    HW142019   7.128   4.852  10.584
13374SOL    HW242020   7.102   4.950  10.697
13375SOL     OW42021   2.184   1.895   7.306
13375SOL    HW142022   2.227   1.845   7.236
13375SOL    HW242023   2.092   1.899   7.279
13376SOL     OW42024   3.391   8.674   9.903
13376SOL    HW142025   3.435   8.603   9.857
13376SOL    HW242026   3.349   8.725   9.834
13377SOL     OW42027   3.072  13.072  14.430
13377SOL    HW142028   3.006  13.103  14.367
13377SOL    HW242029   3.068  13.136  14.501
13378SOL     OW42030   9.081  11.769   2.210
13378SOL    HW142031   9.150  11.818   2.165
13378SOL    HW242032   9.126  11.726   2.283
13379SOL     OW42033  11.662  11.457  13.210
13379SOL    HW142034  11.617  11.513  13.146
13379SOL    HW242035  11.638  11.367  13.184
13380SOL     OW42036  12.047  14.253  11.357
13380SOL    HW142037  12.007  14.218  11.437
13380SOL    HW242038  11.989  14.226  11.287
13381SOL     OW42039  11.718   8.333   1.242
13381SOL    HW142040  11.639   8.287   1.214
13381SOL    HW242041  11.779   8.263   1.265
13382SOL     OW42042   2.469   7.318   1.892
13382SOL    HW142043   2.482   7.412   1.878
13382SOL    HW242044   2.557   7.281   1.882
13383SOL     OW42045   8.403   7.152   5.306
13383SOL    HW142046   8.342   7.165   5.234
13383SOL    HW242047   8.362   7.195   5.381
13384SOL     OW42048  13.303  13.031  12.766
13384SOL    HW142049  13.306  13.052  12.859
13384SOL    HW242050  13.380  12.976  12.751
13385SOL     OW42051  10.281   6.932  14.445
13385SOL    HW142052  10.266   6.858  14.503
13385SOL    HW242053  10.304   7.004  14.504
13386SOL     OW42054   2.522  11.967   0.441
13386SOL    HW142055   2.466  11.891   0.426
13386SOL    HW242056   2.526  11.976   0.537
13387SOL     OW42057  10.433   0.941  10.006
13387SOL    HW142058  10.489   0.901   9.939
13387SOL    HW242059  10.442   0.884  10.082
13388SOL     OW42060   9.104   6.523   6.320
13388SOL    HW142061   9.158   6.550   6.394
13388SOL    HW242062   9.021   6.569   6.333
13389SOL     OW42063  10.048   9.804   7.390
13389SOL    HW142064  10.105   9.813   7.467
13389SOL    HW242065  10.099   9.749   7.330
13390SOL     OW42066   5.964  12.344   2.498
13390SOL    HW142067   6.037  12.362   2.557
13390SOL    HW242068   5.893  12.400   2.530
13391SOL     OW42069   8.094   2.716   5.589
13391SOL    HW142070   8.157   2.696   5.520
13391SOL    HW242071   8.010   2.724   5.544
13392SOL     OW42072   9.491  12.734   8.409
13392SOL    HW142073   9.453  12.668   8.350
13392SOL    HW242074   9.584  12.733   8.388
13393SOL     OW42075   1.042   2.328  10.590
13393SOL    HW142076   1.071   2.254  10.643
13393SOL    HW242077   0.990   2.289  10.520
13394SOL     OW42078  14.087   9.377   4.803
13394SOL    HW142079  14.088   9.293   4.847
13394SOL    HW242080  14.046   9.360   4.718
13395SOL     OW42081  13.411  10.110  12.981
13395SOL    HW142082  13.376  10.199  12.986
13395SOL    HW242083  13.506  10.122  12.973
13396SOL     OW42084   5.767   6.865   3.819
13396SOL    HW142085   5.751   6.896   3.908
13396SOL    HW242086   5.858   6.834   3.821
13397SOL     OW42087  14.287  13.966   1.624
13397SOL    HW142088  14.289  14.050   1.578
13397SOL    HW242089  14.209  13.922   1.591
13398SOL     OW42090   7.098   3.417  11.078
13398SOL    HW142091   7.178   3.468  11.064
13398SOL    HW242092   7.032   3.482  11.101
13399SOL     OW42093   9.463   9.376  11.375
13399SOL    HW142094   9.540   9.347  11.424
13399SOL    HW242095   9.413   9.296  11.360
13400SOL     OW42096   4.019   5.453  12.959
13400SOL    HW142097   3.961   5.504  13.016
13400SOL    HW242098   4.083   5.414  13.018
13401SOL     OW42099   0.426   0.275  10.938
13401SOL    HW142100   0.507   0.279  10.989
13401SOL    HW242101   0.454   0.270  10.847
13402SOL     OW42102   6.188  11.475  11.632
13402SOL    HW142103   6.125  11.519  11.689
13402SOL    HW242104   6.200  11.388  11.670
13403SOL     OW42105   9.963  10.474  13.276
13403SOL    HW142106   9.924  10.421  13.345
13403SOL    HW242107   9.911  10.555  13.275
13404SOL     OW42108  14.702   4.623   8.316
13404SOL    HW142109  14.695   4.626   8.221
13404SOL    HW242110  14.676   4.711   8.344
13405SOL     OW42111   9.449  12.387  12.056
13405SOL    HW142112   9.502  12.456  12.096
13405SOL    HW242113   9.361  12.424  12.052
13406SOL     OW42114  14.771  13.466  12.480
13406SOL    HW142115  14.698  13.528  12.485
13406SOL    HW242116  14.814  13.473  12.565
13407SOL     OW42117   6.141   7.901   0.818
13407SOL    HW142118   6.230   7.937   0.823
13407SOL    HW242119   6.091   7.969   0.774
13408SOL     OW42120  12.531   1.543   7.447
13408SOL    HW142121  12.479   1.464   7.440
13408SOL    HW242122  12.519   1.589   7.364
13409SOL     OW42123   3.367   7.944   4.271
13409SOL    HW142124   3.461   7.933   4.288
13409SOL    HW242125   3.325   7.917   4.353
13410SOL     OW42126  11.838   1.187  13.609
13410SOL    HW142127  11.903   1.149  13.550
13410SOL    HW242128  11.882   1.264  13.645
13411SOL     OW42129  14.528   5.367  14.640
13411SOL    HW142130  14.514   5.436  14.575
13411SOL    HW242131  14.445   5.319  14.641
13412SOL     OW42132   1.633   7.033   4.949
13412SOL    HW142133   1.704   6.986   4.993
13412SOL    HW242134   1.656   7.125   4.957
13413SOL     OW42135   3.930  14.878   0.849
13413SOL    HW142136   3.992  14.805   0.851
13413SOL    HW242137   3.901   0.000   0.757
13414SOL     OW42138   2.474   9.360  10.127
13414SOL    HW142139   2.386   9.351  10.090
13414SOL    HW242140   2.531   9.315  10.065
13415SOL     OW42141   9.995   5.267   1.046
13415SOL    HW142142   9.962   5.178   1.061
13415SOL    HW242143  10.050   5.259   0.968
13416SOL     OW42144   5.667   6.958  14.609
13416SOL    HW142145   5.612   6.946  14.687
13416SOL    HW242146   5.604   6.972  14.538
13417SOL     OW42147   4.663  13.565   6.378
13417SOL    HW142148   4.658  13.478   6.340
13417SOL    HW242149   4.713  13.553   6.459
13418SOL     OW42150   7.986   8.772   0.956
13418SOL    HW142151   7.893   8.752   0.965
13418SOL    HW242152   7.994   8.865   0.978
13419SOL     OW42153   0.008   8.465   1.710
13419SOL    HW142154   0.088   8.469   1.658
13419SOL    HW242155  14.850   8.551   1.700
13420SOL     OW42156  14.199  11.427  12.250
13420SOL    HW142157  14.168  11.421  12.340
13420SOL    HW242158  14.122  11.406  12.197
13421SOL     OW42159  12.853  10.351   1.298
13421SOL    HW142160  12.934  10.313   1.333
13421SOL    HW242161  12.792  10.351   1.372
13422SOL     OW42162   6.558   7.607  10.421
13422SOL    HW142163   6.644   7.581  10.456
13422SOL    HW242164   6.547   7.552  10.343
13423SOL     OW42165   5.204   8.514  14.463
13423SOL    HW142166   5.288   8.542  14.427
13423SOL    HW242167   5.161   8.469  14.390
13424SOL     OW42168   0.564   9.514   6.405
13424SOL    HW142169   0.608   9.542   6.485
13424SOL    HW242170   0.471   9.509   6.429
13425SOL     OW42171  12.364   7.711   6.739
13425SOL    HW142172  12.367   7.654   6.662
13425SOL    HW242173  12.329   7.655   6.809
13426SOL     OW42174   7.664   2.438   6.426
13426SOL    HW142175   7.635   2.415   6.337
13426SOL    HW242176   7.591   2.413   6.482
13427SOL     OW42177   6.653   5.479   0.523
13427SOL    HW142178   6.650   5.452   0.615
13427SOL    HW242179   6.567   5.458   0.489
13428SOL     OW42180   8.936  13.934   3.825
13428SOL    HW142181   8.896  13.913   3.740
13428SOL    HW242182   8.869  13.913   3.890
13429SOL     OW42183  14.280  10.068   3.967
13429SOL    HW142184  14.361  10.029   3.999
13429SOL    HW242185  14.288  10.064   3.871
13430SOL     OW42186  11.767  13.348   5.909
13430SOL    HW142187  11.814  13.300   5.977
13430SOL    HW242188  11.827  13.352   5.836
13431SOL     OW42189  12.999   1.568   2.971
13431SOL    HW142190  13.053   1.597   2.898
13431SOL    HW242191  12.935   1.639   2.984
13432SOL     OW42192   2.755  13.617   1.193
13432SOL    HW142193   2.695  13.592   1.123
13432SOL    HW242194   2.773  13.535   1.239
13433SOL     OW42195  11.158  13.879   8.760
13433SOL    HW142196  11.188  13.875   8.851
13433SOL    HW242197  11.064  13.864   8.766
13434SOL     OW42198  10.911  11.492   6.348
13434SOL    HW142199  10.838  11.431   6.337
13434SOL    HW242200  10.892  11.538   6.430
13435SOL     OW42201   9.275  13.885   8.402
13435SOL    HW142202   9.211  13.893   8.473
13435SOL    HW242203   9.349  13.938   8.432
13436SOL     OW42204  14.562   9.754  12.720
13436SOL    HW142205  14.604   9.826  12.766
13436SOL    HW242206  14.589   9.675  12.768
13437SOL     OW42207  13.340   4.115   6.924
13437SOL    HW142208  13.415   4.093   6.869
13437SOL    HW242209  13.342   4.211   6.930
13438SOL     OW42210  13.068  12.455   6.983
13438SOL    HW142211  13.147  12.432   6.936
13438SOL    HW242212  13.026  12.372   7.003
13439SOL     OW42213  14.128   5.724   9.802
13439SOL    HW142214  14.070   5.753   9.732
13439SOL    HW242215  14.184   5.658   9.761
13440SOL     OW42216  12.901   1.580   7.789
13440SOL    HW142217  12.947   1.590   7.705
13440SOL    HW242218  12.841   1.506   7.775
13441SOL     OW42219   0.152  10.441   2.802
13441SOL    HW142220   0.187  10.353   2.815
13441SOL    HW242221   0.212  10.482   2.740
13442SOL     OW42222   7.520   1.771  12.834
13442SOL    HW142223   7.486   1.689  12.798
13442SOL    HW242224   7.601   1.745  12.878
13443SOL     OW42225  11.789   3.810  11.021
13443SOL    HW142226  11.851   3.871  11.060
13443SOL    HW242227  11.741   3.773  11.095
13444SOL     OW42228   0.132   7.635  14.010
13444SOL    HW142229   0.137   7.687  14.089
13444SOL    HW242230   0.199   7.567  14.021
13445SOL     OW42231  11.471   0.013   9.114
13445SOL    HW142232  11.477  14.839   9.191
13445SOL    HW242233  11.558   0.051   9.105
13446SOL     OW42234  14.392   0.306   8.901
13446SOL    HW142235  14.408   0.306   8.995
13446SOL    HW242236  14.478   0.291   8.862
13447SOL     OW42237   1.839  11.792  10.218
13447SOL    HW142238   1.909  11.743  10.261
13447SOL    HW242239   1.885  11.858  10.166
13448SOL     OW42240   3.339   9.273  10.289
13448SOL    HW142241   3.348   9.328  10.211
13448SOL    HW242242   3.342   9.184  10.257
13449SOL     OW42243  12.991   4.229   5.077
13449SOL    HW142244  12.910   4.260   5.118
13449SOL    HW242245  12.967   4.214   4.986
13450SOL     OW42246   2.319   8.470   4.010
13450SOL    HW142247   2.262   8.395   3.993
13450SOL    HW242248   2.389   8.461   3.945
13451SOL     OW42249   3.565   4.611   2.425
13451SOL    HW142250   3.519   4.615   2.341
13451SOL    HW242251   3.495   4.601   2.490
13452SOL     OW42252   6.332  14.250   9.066
13452SOL    HW142253   6.278  14.323   9.035
13452SOL    HW242254   6.363  14.278   9.152
13453SOL     OW42255   8.220  10.409   4.773
13453SOL    HW142256   8.307  10.433   4.805
13453SOL    HW242257   8.194  10.483   4.718
13454SOL     OW42258   5.116  12.804   6.581
13454SOL    HW142259   5.062  12.761   6.648
13454SOL    HW242260   5.176  12.735   6.552
13455SOL     OW42261  10.858  12.228  10.947
13455SOL    HW142262  10.916  12.188  11.011
13455SOL    HW242263  10.772  12.191  10.965
13456SOL     OW42264  11.234   2.519   9.989
13456SOL    HW142265  11.174   2.489  10.058
13456SOL    HW242266  11.268   2.602  10.022
13457SOL     OW42267   3.808   5.828  11.319
13457SOL    HW142268   3.742   5.822  11.250
13457SOL    HW242269   3.847   5.741  11.323
13458SOL     OW42270   5.472   0.933   8.102
13458SOL    HW142271   5.393   0.896   8.061
13458SOL    HW242272   5.541   0.919   8.037
13459SOL     OW42273   5.626   4.032   4.730
13459SOL    HW142274   5.676   4.093   4.677
13459SOL    HW242275   5.633   3.948   4.684
13460SOL     OW42276  13.038   5.916   8.104
13460SOL    HW142277  13.105   5.849   8.116
13460SOL    HW242278  12.988   5.888   8.028
13461SOL     OW42279   1.350  12.106  11.490
13461SOL    HW142280   1.364  12.043  11.419
13461SOL    HW242281   1.426  12.094  11.548
13462SOL     OW42282  10.485   9.333   0.384
13462SOL    HW142283  10.486   9.240   0.358
13462SOL    HW242284  10.568   9.346   0.430
13463SOL     OW42285   7.555   0.680   5.093
13463SOL    HW142286   7.560   0.587   5.067
13463SOL    HW242287   7.506   0.721   5.021
13464SOL     OW42288  10.798   5.288   2.617
13464SOL    HW142289  10.721   5.338   2.592
13464SOL    HW242290  10.871   5.351   2.609
13465SOL     OW42291   3.223   8.430   8.290
13465SOL    HW142292   3.239   8.351   8.238
13465SOL    HW242293   3.281   8.420   8.366
13466SOL     OW42294   1.808   7.459   8.305
13466SOL    HW142295   1.857   7.431   8.228
13466SOL    HW242296   1.800   7.379   8.358
13467SOL     OW42297   5.370   4.190   9.656
13467SOL    HW142298   5.407   4.106   9.632
13467SOL    HW242299   5.429   4.224   9.723
13468SOL     OW42300  13.608  13.902  13.177
13468SOL    HW142301  13.547  13.946  13.235
13468SOL    HW242302  13.694  13.936  13.203
13469SOL     OW42303   4.288   9.990   1.451
13469SOL    HW142304   4.295  10.072   1.403
13469SOL    HW242305   4.206   9.951   1.421
13470SOL     OW42306   6.226   4.347   8.669
13470SOL    HW142307   6.149   4.378   8.622
13470SOL    HW242308   6.269   4.287   8.607
13471SOL     OW42309  10.359   5.134   3.101
13471SOL    HW142310  10.444   5.177   3.113
13471SOL    HW242311  10.295   5.199   3.132
13472SOL     OW42312  13.498   0.403   2.254
13472SOL    HW142313  13.542   0.478   2.215
13472SOL    HW242314  13.543   0.327   2.218
13473SOL     OW42315   2.124  12.068   9.894
13473SOL    HW142316   2.197  12.129   9.876
13473SOL    HW242317   2.065  12.079   9.820
13474SOL     OW42318   9.826   2.721   7.499
13474SOL    HW142319   9.777   2.682   7.426
13474SOL    HW242320   9.847   2.809   7.469
13475SOL     OW42321   3.699   1.338  14.210
13475SOL    HW142322   3.740   1.284  14.277
13475SOL    HW242323   3.770   1.359  14.149
13476SOL     OW42324  10.304  11.474  12.834
13476SOL    HW142325  10.315  11.388  12.875
13476SOL    HW242326  10.288  11.455  12.742
13477SOL     OW42327   6.857   4.855   5.360
13477SOL    HW142328   6.877   4.890   5.447
13477SOL    HW242329   6.941   4.822   5.327
13478SOL     OW42330   8.503  12.329  13.074
13478SOL    HW142331   8.536  12.242  13.095
13478SOL    HW242332   8.412  12.329  13.106
13479SOL     OW42333   5.614  12.116  14.372
13479SOL    HW142334   5.627  12.189  14.433
13479SOL    HW242335   5.585  12.043  14.428
13480SOL     OW42336   3.469   0.766   0.367
13480SOL    HW142337   3.399   0.729   0.312
13480SOL    HW242338   3.429   0.843   0.407
13481SOL     OW42339  14.742   1.966  12.610
13481SOL    HW142340  14.824   1.960  12.562
13481SOL    HW242341  14.710   1.876  12.615
13482SOL     OW42342   5.042  10.655  13.553
13482SOL    HW142343   5.094  10.600  13.495
13482SOL    HW242344   5.014  10.596  13.624
13483SOL     OW42345   5.353  10.681   3.450
13483SOL    HW142346   5.384  10.610   3.506
13483SOL    HW242347   5.350  10.643   3.362
13484SOL     OW42348   2.882   4.178   9.309
13484SOL    HW142349   2.923   4.160   9.224
13484SOL    HW242350   2.841   4.095   9.333
13485SOL     OW42351  14.232   1.014   0.185
13485SOL    HW142352  14.211   0.926   0.216
13485SOL    HW242353  14.149   1.049   0.154
13486SOL     OW42354   7.909  12.833   4.603
13486SOL    HW142355   7.923  12.809   4.695
13486SOL    HW242356   7.849  12.766   4.570
13487SOL     OW42357   7.358   9.516  12.144
13487SOL    HW142358   7.453   9.513  12.156
13487SOL    HW242359   7.347   9.543  12.053
13488SOL     OW42360   5.614   4.308  11.626
13488SOL    HW142361   5.604   4.402  11.641
13488SOL    HW242362   5.622   4.300  11.531
13489SOL     OW42363   6.850   7.855  11.033
13489SOL    HW142364   6.794   7.888  11.103
13489SOL    HW242365   6.867   7.764  11.056
13490SOL     OW42366  10.167   6.348   5.834
13490SOL    HW142367  10.119   6.354   5.751
13490SOL    HW242368  10.137   6.424   5.884
13491SOL     OW42369   2.319  13.279   8.877
13491SOL    HW142370   2.370  13.285   8.796
13491SOL    HW242371   2.269  13.197   8.868
13492SOL     OW42372   2.291  14.101   2.829
13492SOL    HW142373   2.270  14.015   2.866
13492SOL    HW242374   2.206  14.138   2.807
13493SOL     OW42375   9.792  12.467  11.208
13493SOL    HW142376   9.867  12.483  11.150
13493SOL    HW242377   9.827  12.481  11.296
13494SOL     OW42378  10.492   0.964  12.283
13494SOL    HW142379  10.424   0.921  12.335
13494SOL    HW242380  10.520   1.038  12.337
13495SOL     OW42381   7.476   4.391   6.034
13495SOL    HW142382   7.498   4.423   5.946
13495SOL    HW242383   7.556   4.406   6.085
13496SOL     OW42384   3.246   2.431   2.905
13496SOL    HW142385   3.211   2.342   2.902
13496SOL    HW242386   3.169   2.487   2.892
13497SOL     OW42387  10.444   0.663  14.113
13497SOL    HW142388  10.486   0.589  14.070
13497SOL    HW242389  10.371   0.624  14.162
13498SOL     OW42390  14.589   2.850   8.999
13498SOL    HW142391  14.585   2.899   9.081
13498SOL    HW242392  14.672   2.876   8.959
13499SOL     OW42393   4.644  10.389   6.329
13499SOL    HW142394   4.647  10.406   6.423
13499SOL    HW242395   4.731  10.413   6.298
13500SOL     OW42396   1.623   7.835  13.930
13500SOL    HW142397   1.614   7.833  13.835
13500SOL    HW242398   1.644   7.926  13.950
13501SOL     OW42399   4.800   1.225   7.003
13501SOL    HW142400   4.885   1.202   6.965
13501SOL    HW242401   4.820   1.291   7.068
13502SOL     OW42402  11.490   3.402   0.172
13502SOL    HW142403  11.424   3.334   0.157
13502SOL    HW242404  11.440   3.475   0.209
13503SOL     OW42405   4.278   4.424   1.730
13503SOL    HW142406   4.329   4.398   1.653
13503SOL    HW242407   4.344   4.439   1.798
13504SOL     OW42408   9.256   1.677   5.120
13504SOL    HW142409   9.205   1.634   5.052
13504SOL    HW242410   9.310   1.608   5.157
13505SOL     OW42411   1.768  13.220   5.622
13505SOL    HW142412   1.859  13.247   5.609
13505SOL    HW242413   1.773  13.143   5.679
13506SOL     OW42414   8.503   1.770   9.843
13506SOL    HW142415   8.429   1.724   9.883
13506SOL    HW242416   8.572   1.768   9.910
13507SOL     OW42417  12.633  10.977   8.440
13507SOL    HW142418  12.717  11.009   8.408
13507SOL    HW242419  12.653  10.894   8.482
13508SOL     OW42420   7.574   0.113  11.109
13508SOL    HW142421   7.647   0.132  11.169
13508SOL    HW242422   7.595   0.163  11.030
13509SOL     OW42423   0.372  13.171   5.170
13509SOL    HW142424   0.425  13.213   5.238
13509SOL    HW242425   0.291  13.145   5.215
13510SOL     OW42426  13.345   2.718   9.544
13510SOL    HW142427  13.365   2.805   9.509
13510SOL    HW242428  13.266   2.731   9.596
13511SOL     OW42429   1.861   8.041   9.247
13511SOL    HW142430   1.775   8.023   9.287
13511SOL    HW242431   1.851   8.129   9.209
13512SOL     OW42432  13.530   2.799  10.836
13512SOL    HW142433  13.575   2.804  10.921
13512SOL    HW242434  13.485   2.715  10.838
13513SOL     OW42435   8.274   0.631   5.602
13513SOL    HW142436   8.193   0.580   5.608
13513SOL    HW242437   8.339   0.579   5.649
13514SOL     OW42438   9.740   5.884  10.935
13514SOL    HW142439   9.734   5.792  10.910
13514SOL    HW242440   9.697   5.931  10.864
13515SOL     OW42441   4.152  14.526   3.630
13515SOL    HW142442   4.057  14.535   3.633
13515SOL    HW242443   4.168  14.456   3.566
13516SOL     OW42444   2.190   0.866   9.488
13516SOL    HW142445   2.160   0.776   9.497
13516SOL    HW242446   2.148   0.898   9.408
13517SOL     OW42447   3.820   4.234   6.510
13517SOL    HW142448   3.837   4.152   6.558
13517SOL    HW242449   3.726   4.233   6.493
13518SOL     OW42450   4.611   8.482   7.441
13518SOL    HW142451   4.613   8.423   7.365
13518SOL    HW242452   4.524   8.468   7.479
13519SOL     OW42453  12.338  13.014   8.541
13519SOL    HW142454  12.245  13.026   8.562
13519SOL    HW242455  12.362  13.092   8.491
13520SOL     OW42456  11.636  12.597   1.142
13520SOL    HW142457  11.635  12.540   1.220
13520SOL    HW242458  11.710  12.564   1.091
13521SOL     OW42459   9.945  12.618  10.763
13521SOL    HW142460   9.877  12.681  10.739
13521SOL    HW242461   9.911  12.534  10.732
13522SOL     OW42462   4.478   6.027   9.791
13522SOL    HW142463   4.490   5.987   9.705
13522SOL    HW242464   4.538   5.980   9.849
13523SOL     OW42465  12.588  12.864  10.975
13523SOL    HW142466  12.537  12.852  10.894
13523SOL    HW242467  12.549  12.802  11.037
13524SOL     OW42468   0.086   0.522  13.424
13524SOL    HW142469   0.067   0.459  13.493
13524SOL    HW242470   0.018   0.507  13.358
13525SOL     OW42471   1.998   1.321   9.170
13525SOL    HW142472   2.054   1.398   9.163
13525SOL    HW242473   1.996   1.285   9.081
13526SOL     OW42474   0.943   9.489   0.934
13526SOL    HW142475   0.944   9.531   1.020
13526SOL    HW242476   0.892   9.548   0.879
13527SOL     OW42477   8.689  12.030  12.079
13527SOL    HW142478   8.703  12.081  12.159
13527SOL    HW242479   8.776  12.023  12.040
13528SOL     OW42480   9.953  14.711   4.443
13528SOL    HW142481   9.981  14.619   4.443
13528SOL    HW242482   9.858  14.707   4.430
13529SOL     OW42483   5.113   3.807  14.292
13529SOL    HW142484   5.029   3.768  14.317
13529SOL    HW242485   5.127   3.876  14.357
13530SOL     OW42486   1.188   5.182   5.753
13530SOL    HW142487   1.274   5.206   5.718
13530SOL    HW242488   1.176   5.091   5.727
13531SOL     OW42489   7.183   8.361   9.621
13531SOL    HW142490   7.222   8.274   9.630
13531SOL    HW242491   7.190   8.380   9.528
13532SOL     OW42492  13.418  13.418   3.634
13532SOL    HW142493  13.500  13.380   3.667
13532SOL    HW242494  13.438  13.512   3.625
13533SOL     OW42495  13.058  10.344   1.829
13533SOL    HW142496  13.002  10.368   1.754
13533SOL    HW242497  13.145  10.335   1.792
13534SOL     OW42498   0.215   0.844   3.717
13534SOL    HW142499   0.282   0.901   3.755
13534SOL    HW242500   0.153   0.905   3.676
13535SOL     OW42501   0.810   4.251  11.435
13535SOL    HW142502   0.829   4.160  11.411
13535SOL    HW242503   0.824   4.254  11.530
13536SOL     OW42504  10.096  12.735  14.041
13536SOL    HW142505  10.172  12.770  14.087
13536SOL    HW242506  10.118  12.643  14.026
13537SOL     OW42507   2.303  11.366  13.243
13537SOL    HW142508   2.328  11.445  13.195
13537SOL    HW242509   2.332  11.382  13.333
13538SOL     OW42510   9.564   0.617   0.101
13538SOL    HW142511   9.495   0.660   0.152
13538SOL    HW242512   9.646   0.645   0.141
13539SOL     OW42513   0.666   5.210   9.575
13539SOL    HW142514   0.678   5.256   9.492
13539SOL    HW242515   0.628   5.126   9.549
13540SOL     OW42516   1.374   1.502   9.195
13540SOL    HW142517   1.439   1.463   9.136
13540SOL    HW242518   1.334   1.427   9.239
13541SOL     OW42519   5.622   1.319   5.292
13541SOL    HW142520   5.643   1.300   5.201
13541SOL    HW242521   5.654   1.408   5.306
13542SOL     OW42522   0.115  12.256   1.063
13542SOL    HW142523   0.019  12.259   1.060
13542SOL    HW242524   0.139  12.185   1.003
13543SOL     OW42525   3.027   6.022  14.046
13543SOL    HW142526   2.967   6.091  14.075
13543SOL    HW242527   3.076   5.999  14.125
13544SOL     OW42528  12.635  12.250   2.682
13544SOL    HW142529  12.730  12.246   2.695
13544SOL    HW242530  12.606  12.323   2.738
13545SOL     OW42531   8.660  14.663   7.841
13545SOL    HW142532   8.583  14.673   7.786
13545SOL    HW242533   8.734  14.677   7.782
13546SOL     OW42534  10.561  10.327   3.459
13546SOL    HW142535  10.651  10.333   3.427
13546SOL    HW242536  10.539  10.234   3.453
13547SOL     OW42537   9.720   5.388  10.509
13547SOL    HW142538   9.720   5.456  10.575
13547SOL    HW242539   9.644   5.334  10.529
13548SOL     OW42540   7.744  12.072   0.356
13548SOL    HW142541   7.798  12.013   0.303
13548SOL    HW242542   7.805  12.110   0.420
13549SOL     OW42543  12.442  14.734  14.337
13549SOL    HW142544  12.419  14.710  14.247
13549SOL    HW242545  12.376  14.799  14.362
13550SOL     OW42546   5.203   6.630   2.041
13550SOL    HW142547   5.122   6.604   2.085
13550SOL    HW242548   5.204   6.577   1.961
13551SOL     OW42549   2.968  11.119  13.224
13551SOL    HW142550   2.941  11.208  13.247
13551SOL    HW242551   3.039  11.098  13.285
13552SOL     OW42552   5.063  10.984  10.242
13552SOL    HW142553   5.144  11.009  10.198
13552SOL    HW242554   5.033  10.906  10.195
13553SOL     OW42555   8.729   5.103  10.150
13553SOL    HW142556   8.799   5.093  10.215
13553SOL    HW242557   8.671   5.169  10.187
13554SOL     OW42558   3.478  10.166   4.362
13554SOL    HW142559   3.422  10.182   4.438
13554SOL    HW242560   3.445  10.226   4.295
13555SOL     OW42561   0.273   7.593   8.778
13555SOL    HW142562   0.184   7.625   8.766
13555SOL    HW242563   0.312   7.651   8.842
13556SOL     OW42564  13.698  10.199  12.915
13556SOL    HW142565  13.672  10.284  12.952
13556SOL    HW242566  13.779  10.177  12.961
13557SOL     OW42567   8.167   8.733   2.322
13557SOL    HW142568   8.123   8.712   2.240
13557SOL    HW242569   8.221   8.810   2.302
13558SOL     OW42570   2.175   7.811  10.592
13558SOL    HW142571   2.264   7.840  10.570
13558SOL    HW242572   2.169   7.824  10.687
13559SOL     OW42573  12.375   2.844   2.036
13559SOL    HW142574  12.291   2.866   2.074
13559SOL    HW242575  12.421   2.928   2.028
13560SOL     OW42576   1.936  14.027  14.874
13560SOL    HW142577   1.856  14.019  14.821
13560SOL    HW242578   1.926  13.960   0.060
13561SOL     OW42579  14.075   7.183   2.512
13561SOL    HW142580  14.036   7.270   2.519
13561SOL    HW242581  14.136   7.178   2.586
13562SOL     OW42582   3.344  12.089   7.279
13562SOL    HW142583   3.366  12.013   7.225
13562SOL    HW242584   3.378  12.067   7.366
13563SOL     OW42585   7.248   5.116  12.069
13563SOL    HW142586   7.270   5.172  12.143
13563SOL    HW242587   7.331   5.076  12.043
13564SOL     OW42588   5.254   6.291  11.171
13564SOL    HW142589   5.315   6.256  11.235
13564SOL    HW242590   5.179   6.321  11.222
13565SOL     OW42591   7.409  14.501   6.199
13565SOL    HW142592   7.403  14.491   6.104
13565SOL    HW242593   7.323  14.535   6.224
13566SOL     OW42594  13.525   4.142   2.317
13566SOL    HW142595  13.453   4.175   2.264
13566SOL    HW242596  13.484   4.101   2.392
13567SOL     OW42597   1.375   6.628  11.637
13567SOL    HW142598   1.467   6.639  11.613
13567SOL    HW242599   1.367   6.672  11.721
13568SOL     OW42600   2.199   7.607   4.025
13568SOL    HW142601   2.264   7.664   3.981
13568SOL    HW242602   2.207   7.629   4.117
13569SOL     OW42603  11.903   5.481   2.738
13569SOL    HW142604  11.832   5.517   2.685
13569SOL    HW242605  11.982   5.497   2.687
13570SOL     OW42606   3.944   9.014  12.372
13570SOL    HW142607   3.944   8.963  12.453
13570SOL    HW242608   3.911   9.100  12.398
13571SOL     OW42609  14.706   5.544  14.797
13571SOL    HW142610  14.799   5.526  14.810
13571SOL    HW242611  14.674   5.467  14.749
13572SOL     OW42612   5.507   3.475   6.888
13572SOL    HW142613   5.502   3.515   6.975
13572SOL    HW242614   5.504   3.548   6.827
13573SOL     OW42615  11.896   4.534   3.531
13573SOL    HW142616  11.823   4.514   3.590
13573SOL    HW242617  11.929   4.448   3.505
13574SOL     OW42618   3.782   4.247   6.083
13574SOL    HW142619   3.741   4.260   5.997
13574SOL    HW242620   3.875   4.244   6.064
13575SOL     OW42621   7.157   7.117   2.041
13575SOL    HW142622   7.098   7.162   1.981
13575SOL    HW242623   7.223   7.183   2.064
13576SOL     OW42624   4.631  10.585   5.392
13576SOL    HW142625   4.720  10.592   5.357
13576SOL    HW242626   4.575  10.583   5.314
13577SOL     OW42627  14.862  12.897  14.703
13577SOL    HW142628   0.032  12.833  14.751
13577SOL    HW242629  14.787  12.848  14.671
13578SOL     OW42630   7.889  11.166   0.214
13578SOL    HW142631   7.940  11.173   0.133
13578SOL    HW242632   7.887  11.073   0.233
13579SOL     OW42633  10.336   1.810  14.833
13579SOL    HW142634  10.373   1.844  14.751
13579SOL    HW242635  10.406   1.824   0.015
13580SOL     OW42636   5.093   2.262  10.492
13580SOL    HW142637   5.158   2.309  10.544
13580SOL    HW242638   5.134   2.176  10.476
13581SOL     OW42639   4.383  13.816   5.971
13581SOL    HW142640   4.438  13.849   5.900
13581SOL    HW242641   4.444  13.781   6.036
13582SOL     OW42642   5.082  13.730   6.677
13582SOL    HW142643   5.145  13.701   6.743
13582SOL    HW242644   5.065  13.822   6.698
13583SOL     OW42645   7.698   5.073  10.529
13583SOL    HW142646   7.732   4.992  10.566
13583SOL    HW242647   7.620   5.046  10.479
13584SOL     OW42648   0.316   4.214   2.141
13584SOL    HW142649   0.400   4.205   2.186
13584SOL    HW242650   0.253   4.229   2.211
13585SOL     OW42651  14.598  14.251   0.569
13585SOL    HW142652  14.564  14.275   0.483
13585SOL    HW242653  14.631  14.333   0.606
13586SOL     OW42654   1.458  13.023   3.572
13586SOL    HW142655   1.409  12.970   3.508
13586SOL    HW242656   1.465  13.109   3.531
13587SOL     OW42657  14.082   7.092  13.831
13587SOL    HW142658  14.113   7.066  13.744
13587SOL    HW242659  14.003   7.041  13.844
13588SOL     OW42660   3.130  10.713   5.160
13588SOL    HW142661   3.218  10.748   5.143
13588SOL    HW242662   3.127  10.701   5.255
13589SOL     OW42663  11.853   6.032   6.360
13589SOL    HW142664  11.773   6.075   6.329
13589SOL    HW242665  11.922   6.096   6.343
13590SOL     OW42666   6.922   9.427   9.731
13590SOL    HW142667   6.995   9.453   9.676
13590SOL    HW242668   6.859   9.386   9.672
13591SOL     OW42669  11.607   1.305   8.020
13591SOL    HW142670  11.584   1.393   8.049
13591SOL    HW242671  11.616   1.255   8.101
13592SOL     OW42672   7.942   2.010  13.206
13592SOL    HW142673   8.007   2.050  13.264
13592SOL    HW242674   7.979   2.018  13.119
13593SOL     OW42675   8.165   2.001   0.944
13593SOL    HW142676   8.255   2.006   0.912
13593SOL    HW242677   8.126   1.929   0.894
13594SOL     OW42678   6.874   1.653   5.102
13594SOL    HW142679   6.918   1.689   5.179
13594SOL    HW242680   6.791   1.620   5.135
13595SOL     OW42681  14.732   7.060   3.633
13595SOL    HW142682  14.739   7.122   3.560
13595SOL    HW242683  14.823   7.045   3.660
13596SOL     OW42684   6.350   1.990   9.029
13596SOL    HW142685   6.349   2.069   9.084
13596SOL    HW242686   6.334   2.023   8.940
13597SOL     OW42687   2.402   2.849   5.991
13597SOL    HW142688   2.314   2.822   5.966
13597SOL    HW242689   2.390   2.933   6.034
13598SOL     OW42690   5.833   7.419   7.420
13598SOL    HW142691   5.889   7.463   7.356
13598SOL    HW242692   5.855   7.326   7.411
13599SOL     OW42693   5.701   7.068   2.885
13599SOL    HW142694   5.747   7.089   2.803
13599SOL    HW242695   5.642   7.141   2.899
13600SOL     OW42696  13.864   6.317  11.243
13600SOL    HW142697  13.839   6.343  11.155
13600SOL    HW242698  13.825   6.383  11.300
13601SOL     OW42699   1.013   4.422  10.433
13601SOL    HW142700   1.056   4.455  10.511
13601SOL    HW242701   0.989   4.500  10.383
13602SOL     OW42702   4.059   4.155   1.329
13602SOL    HW142703   3.999   4.230   1.320
13602SOL    HW242704   4.109   4.155   1.248
13603SOL     OW42705   6.768   0.071   3.308
13603SOL    HW142706   6.688   0.088   3.359
13603SOL    HW242707   6.834   0.127   3.348
13604SOL     OW42708   3.851   5.228   5.228
13604SOL    HW142709   3.773   5.185   5.195
13604SOL    HW242710   3.893   5.266   5.151
13605SOL     OW42711   7.907   8.295  14.743
13605SOL    HW142712   7.982   8.271  14.798
13605SOL    HW242713   7.940   8.366  14.688
13606SOL     OW42714  13.452  11.567  11.961
13606SOL    HW142715  13.528  11.511  11.941
13606SOL    HW242716  13.376  11.509  11.948
13607SOL     OW42717   6.860   5.956   8.211
13607SOL    HW142718   6.919   6.000   8.150
13607SOL    HW242719   6.852   5.867   8.177
13608SOL     OW42720   0.452  14.767  14.409
13608SOL    HW142721   0.444  14.847  14.461
13608SOL    HW242722   0.437  14.795  14.319
13609SOL     OW42723  11.110  10.635   6.042
13609SOL    HW142724  11.019  10.606   6.054
13609SOL    HW242725  11.157  10.598   6.117
13610SOL     OW42726   5.359   1.634  11.784
13610SOL    HW142727   5.435   1.656  11.730
13610SOL    HW242728   5.387   1.559  11.836
13611SOL     OW42729  10.167   1.383   4.139
13611SOL    HW142730  10.231   1.318   4.168
13611SOL    HW242731  10.214   1.466   4.141
13612SOL     OW42732   6.624   6.773   0.780
13612SOL    HW142733   6.562   6.706   0.805
13612SOL    HW242734   6.689   6.727   0.727
13613SOL     OW42735   9.140  10.436   5.749
13613SOL    HW142736   9.228  10.404   5.764
13613SOL    HW242737   9.119  10.410   5.659
13614SOL     OW42738   9.166   1.439   9.320
13614SOL    HW142739   9.119   1.362   9.289
13614SOL    HW242740   9.162   1.501   9.248
13615SOL     OW42741  14.159  14.343   7.628
13615SOL    HW142742  14.081  14.299   7.593
13615SOL    HW242743  14.232  14.294   7.591
13616SOL     OW42744   2.947   1.195  13.806
13616SOL    HW142745   2.975   1.283  13.834
13616SOL    HW242746   2.878   1.171  13.868
13617SOL     OW42747   6.402   3.138   9.834
13617SOL    HW142748   6.377   3.230   9.847
13617SOL    HW242749   6.433   3.109   9.919
13618SOL     OW42750   2.804   9.600  14.067
13618SOL    HW142751   2.747   9.538  14.022
13618SOL    HW242752   2.886   9.598  14.017
13619SOL     OW42753   9.760  11.563  10.261
13619SOL    HW142754   9.771  11.621  10.185
13619SOL    HW242755   9.826  11.495  10.249
13620SOL     OW42756   8.701  13.954   7.551
13620SOL    HW142757   8.659  13.979   7.633
13620SOL    HW242758   8.795  13.964   7.567
13621SOL     OW42759   2.252   0.934  12.532
13621SOL    HW142760   2.230   1.012  12.583
13621SOL    HW242761   2.334   0.903  12.569
13622SOL     OW42762  12.624  13.069   4.300
13622SOL    HW142763  12.575  13.135   4.252
13622SOL    HW242764  12.703  13.054   4.248
13623SOL     OW42765   1.547   5.654   6.607
13623SOL    HW142766   1.607   5.715   6.649
13623SOL    HW242767   1.527   5.589   6.674
13624SOL     OW42768   2.771   7.382  11.231
13624SOL    HW142769   2.729   7.441  11.293
13624SOL    HW242770   2.702   7.321  11.204
13625SOL     OW42771   3.273   0.004   1.693
13625SOL    HW142772   3.186   0.029   1.661
13625SOL    HW242773   3.326  14.878   1.614
13626SOL     OW42774   5.354  12.791   5.700
13626SOL    HW142775   5.384  12.801   5.790
13626SOL    HW242776   5.435  12.778   5.649
13627SOL     OW42777  12.645   9.547   3.830
13627SOL    HW142778  12.740   9.539   3.833
13627SOL    HW242779  12.627   9.637   3.855
13628SOL     OW42780   0.066  14.784   6.013
13628SOL    HW142781   0.094  14.865   5.971
13628SOL    HW242782  14.854  14.796   6.028
13629SOL     OW42783   9.198   8.922   1.952
13629SOL    HW142784   9.208   8.843   2.005
13629SOL    HW242785   9.194   8.994   2.015
13630SOL     OW42786   6.560   4.746   6.506
13630SOL    HW142787   6.498   4.725   6.436
13630SOL    HW242788   6.644   4.712   6.475
13631SOL     OW42789   1.021   2.265  11.354
13631SOL    HW142790   1.075   2.295  11.427
13631SOL    HW242791   0.952   2.213  11.395
13632SOL     OW42792   4.452  13.982  13.772
13632SOL    HW142793   4.509  14.022  13.706
13632SOL    HW242794   4.369  14.029  13.764
13633SOL     OW42795   4.648   6.343  12.278
13633SOL    HW142796   4.590   6.418  12.294
13633SOL    HW242797   4.593   6.279  12.232
13634SOL     OW42798  11.188   7.278  11.077
13634SOL    HW142799  11.155   7.295  10.989
13634SOL    HW242800  11.160   7.189  11.097
13635SOL     OW42801  11.263  12.673   5.900
13635SOL    HW142802  11.214  12.726   5.837
13635SOL    HW242803  11.281  12.732   5.973
13636SOL     OW42804  14.418   5.005   6.624
13636SOL    HW142805  14.427   4.977   6.533
13636SOL    HW242806  14.401   4.924   6.673
13637SOL     OW42807   5.126  14.375  10.181
13637SOL    HW142808   5.185  14.394  10.108
13637SOL    HW242809   5.093  14.461  10.208
13638SOL     OW42810   6.670  11.831   7.691
13638SOL    HW142811   6.695  11.756   7.638
13638SOL    HW242812   6.682  11.802   7.782
13639SOL     OW42813   2.768   8.121  14.669
13639SOL    HW142814   2.701   8.190  14.668
13639SOL    HW242815   2.851   8.168  14.668
13640SOL     OW42816  11.986   1.226  11.883
13640SOL    HW142817  12.048   1.270  11.825
13640SOL    HW242818  12.040   1.168  11.936
13641SOL     OW42819  11.701  12.141  11.826
13641SOL    HW142820  11.790  12.164  11.800
13641SOL    HW242821  11.660  12.111  11.745
13642SOL     OW42822  11.330   3.370   7.858
13642SOL    HW142823  11.310   3.278   7.877
13642SOL    HW242824  11.415   3.385   7.900
13643SOL     OW42825   6.810   1.627   6.516
13643SOL    HW142826   6.890   1.659   6.474
13643SOL    HW242827   6.744   1.695   6.498
13644SOL     OW42828   3.707   5.769   0.527
13644SOL    HW142829   3.647   5.749   0.599
13644SOL    HW242830   3.762   5.840   0.560
13645SOL     OW42831  11.312   5.304   3.366
13645SOL    HW142832  11.376   5.322   3.436
13645SOL    HW242833  11.314   5.383   3.312
13646SOL     OW42834   1.148   3.025   6.684
13646SOL    HW142835   1.177   3.014   6.775
13646SOL    HW242836   1.077   2.962   6.674
13647SOL     OW42837   7.895   6.901   9.275
13647SOL    HW142838   7.859   6.969   9.332
13647SOL    HW242839   7.990   6.910   9.285
13648SOL     OW42840  10.047   8.841  11.695
13648SOL    HW142841  10.081   8.924  11.729
13648SOL    HW242842  10.123   8.800  11.654
13649SOL     OW42843  13.441  10.083   7.645
13649SOL    HW142844  13.352  10.103   7.676
13649SOL    HW242845  13.431  10.002   7.595
13650SOL     OW42846   0.567   2.148   0.239
13650SOL    HW142847   0.647   2.198   0.220
13650SOL    HW242848   0.553   2.159   0.333
13651SOL     OW42849   8.244  11.966   2.009
13651SOL    HW142850   8.320  11.956   2.066
13651SOL    HW242851   8.221  12.058   2.016
13652SOL     OW42852   4.896   2.934  11.130
13652SOL    HW142853   4.850   2.853  11.151
13652SOL    HW242854   4.860   2.960  11.045
13653SOL     OW42855   7.397   6.469   8.164
13653SOL    HW142856   7.323   6.432   8.115
13653SOL    HW242857   7.441   6.527   8.102
13654SOL     OW42858  14.136   0.517   1.125
13654SOL    HW142859  14.053   0.469   1.121
13654SOL    HW242860  14.188   0.480   1.053
13655SOL     OW42861  12.090   7.057   8.762
13655SOL    HW142862  12.130   7.054   8.849
13655SOL    HW242863  12.093   7.150   8.738
13656SOL     OW42864   0.733   7.700   5.046
13656SOL    HW142865   0.706   7.721   5.136
13656SOL    HW242866   0.677   7.627   5.021
13657SOL     OW42867   6.207   2.884   3.628
13657SOL    HW142868   6.164   2.803   3.655
13657SOL    HW242869   6.290   2.856   3.590
13658SOL     OW42870   9.923   1.252   4.201
13658SOL    HW142871   9.883   1.181   4.251
13658SOL    HW242872  10.001   1.277   4.252
13659SOL     OW42873   0.585   4.613   4.717
13659SOL    HW142874   0.595   4.518   4.729
13659SOL    HW242875   0.492   4.630   4.731
13660SOL     OW42876   8.187   8.114  14.629
13660SOL    HW142877   8.110   8.058  14.636
13660SOL    HW242878   8.204   8.144  14.718
13661SOL     OW42879  12.016  10.167  10.154
13661SOL    HW142880  12.009  10.232  10.085
13661SOL    HW242881  12.005  10.217  10.235
13662SOL     OW42882  10.379   7.029   4.708
13662SOL    HW142883  10.312   7.078   4.660
13662SOL    HW242884  10.444   7.005   4.642
13663SOL     OW42885   8.561  12.766   6.320
13663SOL    HW142886   8.652  12.741   6.304
13663SOL    HW242887   8.510  12.695   6.280
13664SOL     OW42888   0.055  14.844   9.702
13664SOL    HW142889   0.143  14.832   9.665
13664SOL    HW242890   0.065  14.825   9.795
13665SOL     OW42891   1.602   8.347   4.809
13665SOL    HW142892   1.561   8.271   4.768
13665SOL    HW242893   1.638   8.313   4.891
13666SOL     OW42894   6.705  14.760   8.663
13666SOL    HW142895   6.610  14.749   8.670
13666SOL    HW242896   6.741  14.696   8.724
13667SOL     OW42897   5.240  11.335   8.236
13667SOL    HW142898   5.275  11.256   8.197
13667SOL    HW242899   5.150  11.339   8.204
13668SOL     OW42900   9.739   7.675  12.363
13668SOL    HW142901   9.749   7.710  12.275
13668SOL    HW242902   9.775   7.586  12.358
13669SOL     OW42903   5.195  12.963   0.870
13669SOL    HW142904   5.234  13.049   0.856
13669SOL    HW242905   5.252  12.902   0.823
13670SOL     OW42906  11.261  11.995   6.057
13670SOL    HW142907  11.180  11.960   6.094
13670SOL    HW242908  11.300  12.045   6.128
13671SOL     OW42909   3.809  10.120  13.702
13671SOL    HW142910   3.752  10.043  13.693
13671SOL    HW242911   3.789  10.155  13.789
13672SOL     OW42912   6.174   1.928   4.992
13672SOL    HW142913   6.125   1.857   4.953
13672SOL    HW242914   6.151   1.925   5.085
13673SOL     OW42915   8.529  13.320  10.272
13673SOL    HW142916   8.459  13.297  10.333
13673SOL    HW242917   8.604  13.269  10.301
13674SOL     OW42918  11.938   7.242   5.378
13674SOL    HW142919  11.848   7.220   5.354
13674SOL    HW242920  11.949   7.333   5.352
13675SOL     OW42921   7.533   0.604  14.082
13675SOL    HW142922   7.530   0.586  13.988
13675SOL    HW242923   7.455   0.560  14.117
13676SOL     OW42924   9.550  10.311  13.493
13676SOL    HW142925   9.484  10.303  13.424
13676SOL    HW242926   9.501  10.301  13.574
13677SOL     OW42927  14.305  12.482  12.239
13677SOL    HW142928  14.221  12.446  12.210
13677SOL    HW242929  14.370  12.419  12.207
13678SOL     OW42930  12.856   2.733   4.116
13678SOL    HW142931  12.873   2.660   4.057
13678SOL    HW242932  12.863   2.811   4.061
13679SOL     OW42933  10.758   4.893   5.674
13679SOL    HW142934  10.850   4.872   5.658
13679SOL    HW242935  10.742   4.972   5.622
13680SOL     OW42936  11.079  13.179   2.284
13680SOL    HW142937  11.007  13.138   2.332
13680SOL    HW242938  11.042  13.260   2.249
13681SOL     OW42939   1.167   5.002   8.040
13681SOL    HW142940   1.129   5.034   8.121
13681SOL    HW242941   1.211   5.078   8.002
13682SOL     OW42942  14.806  14.433   7.054
13682SOL    HW142943   0.007  14.456   7.094
13682SOL    HW242944  14.812  14.339   7.037
13683SOL     OW42945   4.028  13.748  14.587
13683SOL    HW142946   3.956  13.758  14.649
13683SOL    HW242947   3.990  13.700  14.513
13684SOL     OW42948   3.935   3.821   5.233
13684SOL    HW142949   3.898   3.852   5.315
13684SOL    HW242950   4.011   3.768   5.258
13685SOL     OW42951   6.108  10.269   1.021
13685SOL    HW142952   6.130  10.331   0.952
13685SOL    HW242953   6.049  10.318   1.078
13686SOL     OW42954   7.707  14.814   0.101
13686SOL    HW142955   7.771  14.881   0.077
13686SOL    HW242956   7.623  14.859   0.100
13687SOL     OW42957   4.413  10.237   9.972
13687SOL    HW142958   4.362  10.318   9.980
13687SOL    HW242959   4.407  10.214   9.879
13688SOL     OW42960   1.615   3.697  13.249
13688SOL    HW142961   1.633   3.614  13.292
13688SOL    HW242962   1.523   3.715  13.268
13689SOL     OW42963   6.413   7.709   7.182
13689SOL    HW142964   6.375   7.707   7.270
13689SOL    HW242965   6.480   7.776   7.186
13690SOL     OW42966   5.428   6.523  11.330
13690SOL    HW142967   5.442   6.541  11.237
13690SOL    HW242968   5.334   6.532  11.342
13691SOL     OW42969  11.659  10.701  12.623
13691SOL    HW142970  11.681  10.609  12.610
13691SOL    HW242971  11.742  10.743  12.643
13692SOL     OW42972  10.746   3.232  12.544
13692SOL    HW142973  10.841   3.243  12.531
13692SOL    HW242974  10.725   3.150  12.499
13693SOL     OW42975  13.054   6.047   2.046
13693SOL    HW142976  13.011   6.083   1.968
13693SOL    HW242977  13.032   5.955   2.046
13694SOL     OW42978  13.959  12.598   2.461
13694SOL    HW142979  13.876  12.644   2.451
13694SOL    HW242980  13.981  12.605   2.554
13695SOL     OW42981   8.746  11.833  14.821
13695SOL    HW142982   8.823  11.888  14.806
13695SOL    HW242983   8.774  11.769   0.005
13696SOL     OW42984  12.741  10.212   3.295
13696SOL    HW142985  12.683  10.142   3.327
13696SOL    HW242986  12.739  10.278   3.363
13697SOL     OW42987  10.171   9.753   0.079
13697SOL    HW142988  10.186   9.723   0.168
13697SOL    HW242989  10.159   9.673   0.028
13698SOL     OW42990  11.783   5.486   4.504
13698SOL    HW142991  11.751   5.464   4.416
13698SOL    HW242992  11.746   5.420   4.561
13699SOL     OW42993   1.123   2.792   7.937
13699SOL    HW142994   1.034   2.820   7.917
13699SOL    HW242995   1.139   2.827   8.025
13700SOL     OW42996  14.791   3.527   1.228
13700SOL    HW142997  14.783   3.578   1.308
13700SOL    HW242998  14.714   3.552   1.176
13701SOL     OW42999   8.679   7.319   3.599
13701SOL    HW143000   8.713   7.236   3.566
13701SOL    HW243001   8.743   7.347   3.665
13702SOL     OW43002  10.989   3.319   8.971
13702SOL    HW143003  10.957   3.233   8.998
13702SOL    HW243004  10.930   3.381   9.014
13703SOL     OW43005   7.163  12.371   0.086
13703SOL    HW143006   7.187  12.340   0.173
13703SOL    HW243007   7.227  12.440   0.067
13704SOL     OW43008  12.714   6.127   4.274
13704SOL    HW143009  12.727   6.125   4.180
13704SOL    HW243010  12.688   6.037   4.296
13705SOL     OW43011   5.531   1.715   4.870
13705SOL    HW143012   5.598   1.662   4.829
13705SOL    HW243013   5.548   1.708   4.964
13706SOL     OW43014   5.304  13.846   8.401
13706SOL    HW143015   5.285  13.926   8.449
13706SOL    HW243016   5.226  13.831   8.348
13707SOL     OW43017  14.171  13.216   8.897
13707SOL    HW143018  14.153  13.236   8.988
13707SOL    HW243019  14.267  13.211   8.892
13708SOL     OW43020   1.421   7.122   9.124
13708SOL    HW143021   1.365   7.174   9.067
13708SOL    HW243022   1.363   7.058   9.165
13709SOL     OW43023   5.346   8.654  13.036
13709SOL    HW143024   5.440   8.637  13.046
13709SOL    HW243025   5.317   8.678  13.124
13710SOL     OW43026  11.695   8.643  10.154
13710SOL    HW143027  11.743   8.693  10.088
13710SOL    HW243028  11.634   8.705  10.193
13711SOL     OW43029   5.646  13.230  12.481
13711SOL    HW143030   5.557  13.197  12.486
13711SOL    HW243031   5.701  13.153  12.497
13712SOL     OW43032  10.962   5.053   8.578
13712SOL    HW143033  10.965   4.959   8.598
13712SOL    HW243034  10.908   5.091   8.647
13713SOL     OW43035   4.483  11.446   0.071
13713SOL    HW143036   4.558  11.388   0.085
13713SOL    HW243037   4.498  11.483  14.866
13714SOL     OW43038   0.271  13.746   5.500
13714SOL    HW143039   0.219  13.672   5.531
13714SOL    HW243040   0.232  13.823   5.541
13715SOL     OW43041   9.895   7.199   5.975
13715SOL    HW143042   9.986   7.170   5.983
13715SOL    HW243043   9.851   7.165   6.053
13716SOL     OW43044   1.094   3.525   3.452
13716SOL    HW143045   1.091   3.448   3.509
13716SOL    HW243046   1.012   3.571   3.471
13717SOL     OW43047  11.175  11.469  14.597
13717SOL    HW143048  11.142  11.382  14.575
13717SOL    HW243049  11.112  11.503  14.661
13718SOL     OW43050   8.075   4.590   6.464
13718SOL    HW143051   8.150   4.541   6.500
13718SOL    HW243052   8.045   4.536   6.391
13719SOL     OW43053   7.095  14.422   3.279
13719SOL    HW143054   7.035  14.411   3.205
13719SOL    HW243055   7.084  14.514   3.305
13720SOL     OW43056   9.185   9.713   1.290
13720SOL    HW143057   9.159   9.652   1.221
13720SOL    HW243058   9.251   9.769   1.249
13721SOL     OW43059   5.461   4.066  13.633
13721SOL    HW143060   5.463   3.973  13.652
13721SOL    HW243061   5.370   4.091  13.647
13722SOL     OW43062   1.215   5.541   0.796
13722SOL    HW143063   1.283   5.558   0.730
13722SOL    HW243064   1.198   5.447   0.790
13723SOL     OW43065   9.039  14.265  14.437
13723SOL    HW143066   9.105  14.210  14.481
13723SOL    HW243067   8.970  14.277  14.502
13724SOL     OW43068  13.543   3.088   3.368
13724SOL    HW143069  13.540   3.093   3.464
13724SOL    HW243070  13.456   3.057   3.343
13725SOL     OW43071  11.710   8.350  11.212
13725SOL    HW143072  11.623   8.321  11.240
13725SOL    HW243073  11.694   8.429  11.161
13726SOL     OW43074   0.072   5.906   8.070
13726SOL    HW143075   0.029   5.987   8.043
13726SOL    HW243076  14.882   5.847   8.091
13727SOL     OW43077   1.635  13.879   3.293
13727SOL    HW143078   1.550  13.868   3.250
13727SOL    HW243079   1.657  13.971   3.279
13728SOL     OW43080  10.059   5.557  14.381
13728SOL    HW143081  10.070   5.652  14.380
13728SOL    HW243082  10.093   5.527  14.297
13729SOL     OW43083  13.481   1.376   6.322
13729SOL    HW143084  13.388   1.390   6.305
13729SOL    HW243085  13.484   1.304   6.384
13730SOL     OW43086   1.067   6.563  12.519
13730SOL    HW143087   1.043   6.655  12.512
13730SOL    HW243088   1.163   6.563  12.523
13731SOL     OW43089   8.137   5.190  12.034
13731SOL    HW143090   8.200   5.122  12.058
13731SOL    HW243091   8.190   5.257  11.991
13732SOL     OW43092   1.024   1.339   0.617
13732SOL    HW143093   1.076   1.292   0.552
13732SOL    HW243094   0.996   1.271   0.679
13733SOL     OW43095  11.453   7.495  13.213
13733SOL    HW143096  11.451   7.461  13.123
13733SOL    HW243097  11.362   7.518  13.232
13734SOL     OW43098  10.137   5.669  14.080
13734SOL    HW143099  10.210   5.701  14.133
13734SOL    HW243100  10.065   5.730  14.099
13735SOL     OW43101   3.068  10.283   5.634
13735SOL    HW143102   3.078  10.292   5.729
13735SOL    HW243103   3.131  10.215   5.609
13736SOL     OW43104  13.063   3.971   3.029
13736SOL    HW143105  13.048   3.909   2.957
13736SOL    HW243106  13.147   4.012   3.009
13737SOL     OW43107   4.920   0.973   2.850
13737SOL    HW143108   4.935   1.067   2.850
13737SOL    HW243109   4.867   0.957   2.928
13738SOL     OW43110   4.822   8.172   7.268
13738SOL    HW143111   4.728   8.165   7.285
13738SOL    HW243112   4.849   8.247   7.321
13739SOL     OW43113  11.352  11.357   2.060
13739SOL    HW143114  11.409  11.369   1.984
13739SOL    HW243115  11.388  11.280   2.105
13740SOL     OW43116   0.563   3.260  13.768
13740SOL    HW143117   0.508   3.285  13.842
13740SOL    HW243118   0.585   3.169  13.783
13741SOL     OW43119   6.830  14.062   3.969
13741SOL    HW143120   6.888  14.119   3.918
13741SOL    HW243121   6.858  13.973   3.946
13742SOL     OW43122   8.157   9.230  13.153
13742SOL    HW143123   8.165   9.148  13.105
13742SOL    HW243124   8.147   9.297  13.084
13743SOL     OW43125   6.907  11.527  11.205
13743SOL    HW143126   6.845  11.456  11.187
13743SOL    HW243127   6.971  11.521  11.135
13744SOL     OW43128   8.424  13.451   0.285
13744SOL    HW143129   8.394  13.396   0.358
13744SOL    HW243130   8.348  13.459   0.228
13745SOL     OW43131   5.174   2.545   3.599
13745SOL    HW143132   5.210   2.602   3.667
13745SOL    HW243133   5.247   2.525   3.541
13746SOL     OW43134  11.409   3.000   9.984
13746SOL    HW143135  11.429   3.093   9.991
13746SOL    HW243136  11.316   2.997   9.961
13747SOL     OW43137   6.303   2.386  14.719
13747SOL    HW143138   6.220   2.339  14.721
13747SOL    HW243139   6.319   2.402  14.626
13748SOL     OW43140   1.326   6.309  10.387
13748SOL    HW143141   1.387   6.330  10.457
13748SOL    HW243142   1.343   6.217  10.367
13749SOL     OW43143   8.157   6.969  11.279
13749SOL    HW143144   8.114   7.054  11.269
13749SOL    HW243145   8.101   6.921  11.340
13750SOL     OW43146  12.653   8.288   2.535
13750SOL    HW143147  12.748   8.300   2.523
13750SOL    HW243148  12.633   8.333   2.617
13751SOL     OW43149  11.938  12.083   4.491
13751SOL    HW143150  11.861  12.028   4.479
13751SOL    HW243151  11.915  12.141   4.564
13752SOL     OW43152   5.279  14.340   6.192
13752SOL    HW143153   5.206  14.278   6.185
13752SOL    HW243154   5.296  14.345   6.286
13753SOL     OW43155   3.668   7.879   4.350
13753SOL    HW143156   3.740   7.932   4.318
13753SOL    HW243157   3.691   7.789   4.326
13754SOL     OW43158   8.898  10.744   8.918
13754SOL    HW143159   8.964  10.756   8.987
13754SOL    HW243160   8.865  10.656   8.931
13755SOL     OW43161  10.117   5.198   7.545
13755SOL    HW143162  10.106   5.286   7.508
13755SOL    HW243163  10.049   5.191   7.612
13756SOL     OW43164   5.485  12.984   2.362
13756SOL    HW143165   5.544  12.973   2.437
13756SOL    HW243166   5.413  12.923   2.379
13757SOL     OW43167   8.006   0.196   9.607
13757SOL    HW143168   7.926   0.245   9.590
13757SOL    HW243169   8.070   0.232   9.545
13758SOL     OW43170   6.505   0.208  11.751
13758SOL    HW143171   6.584   0.162  11.722
13758SOL    HW243172   6.434   0.167  11.701
13759SOL     OW43173  14.236   1.701   3.187
13759SOL    HW143174  14.224   1.792   3.159
13759SOL    HW243175  14.303   1.666   3.127
13760SOL     OW43176   0.256   0.235   3.768
13760SOL    HW143177   0.270   0.316   3.719
13760SOL    HW243178   0.281   0.257   3.858
13761SOL     OW43179   2.890   0.098  11.271
13761SOL    HW143180   2.972   0.130  11.233
13761SOL    HW243181   2.835   0.078  11.194
13762SOL     OW43182   7.471   1.308   5.563
13762SOL    HW143183   7.450   1.270   5.648
13762SOL    HW243184   7.550   1.262   5.535
13763SOL     OW43185   2.962  13.808  14.023
13763SOL    HW143186   2.876  13.827  13.985
13763SOL    HW243187   2.945  13.797  14.117
13764SOL     OW43188   7.925  13.148   7.479
13764SOL    HW143189   7.907  13.054   7.480
13764SOL    HW243190   8.013  13.157   7.514
13765SOL     OW43191  13.693  12.920   4.796
13765SOL    HW143192  13.720  12.832   4.821
13765SOL    HW243193  13.627  12.944   4.860
13766SOL     OW43194  12.253  13.690  13.091
13766SOL    HW143195  12.172  13.639  13.099
13766SOL    HW243196  12.256  13.743  13.170
13767SOL     OW43197   5.784   4.014   2.386
13767SOL    HW143198   5.834   3.935   2.403
13767SOL    HW243199   5.778   4.058   2.471
13768SOL     OW43200   1.260   6.239   7.289
13768SOL    HW143201   1.195   6.298   7.251
13768SOL    HW243202   1.227   6.151   7.271
13769SOL     OW43203   8.058   3.173  14.281
13769SOL    HW143204   8.089   3.186  14.191
13769SOL    HW243205   8.032   3.081  14.283
13770SOL     OW43206  10.362   8.108   8.324
13770SOL    HW143207  10.337   8.178   8.384
13770SOL    HW243208  10.283   8.090   8.274
13771SOL     OW43209   2.227   8.532  11.310
13771SOL    HW143210   2.254   8.526  11.219
13771SOL    HW243211   2.185   8.618  11.317
13772SOL     OW43212  13.907  13.183   6.506
13772SOL    HW143213  13.912  13.159   6.598
13772SOL    HW243214  13.985  13.237   6.490
13773SOL     OW43215  13.489   6.167   3.758
13773SOL    HW143216  13.394   6.173   3.748
13773SOL    HW243217  13.509   6.227   3.830
13774SOL     OW43218   8.074   0.139  14.126
13774SOL    HW143219   8.169   0.152  14.133
13774SOL    HW243220   8.048   0.197  14.054
13775SOL     OW43221  10.465   7.140   1.306
13775SOL    HW143222  10.483   7.230   1.277
13775SOL    HW243223  10.551   7.107   1.334
13776SOL     OW43224   2.100  10.241   3.698
13776SOL    HW143225   2.013  10.268   3.667
13776SOL    HW243226   2.161  10.276   3.633
13777SOL     OW43227   1.305   5.861   4.184
13777SOL    HW143228   1.280   5.780   4.139
13777SOL    HW243229   1.397   5.847   4.208
13778SOL     OW43230  13.416   9.523   6.464
13778SOL    HW143231  13.349   9.530   6.532
13778SOL    HW243232  13.392   9.446   6.414
13779SOL     OW43233   7.241   8.136  12.009
13779SOL    HW143234   7.173   8.090  11.958
13779SOL    HW243235   7.270   8.207  11.951
13780SOL     OW43236   2.650  14.505  13.657
13780SOL    HW143237   2.586  14.562  13.700
13780SOL    HW243238   2.606  14.474  13.578
13781SOL     OW43239  12.153   0.222  12.970
13781SOL    HW143240  12.107   0.197  13.050
13781SOL    HW243241  12.111   0.303  12.943
13782SOL     OW43242  13.041   6.416  11.372
13782SOL    HW143243  13.051   6.460  11.456
13782SOL    HW243244  13.097   6.466  11.312
13783SOL     OW43245   2.836   3.995  13.707
13783SOL    HW143246   2.900   4.018  13.773
13783SOL    HW243247   2.887   3.951  13.638
13784SOL     OW43248   3.480   0.745   1.938
13784SOL    HW143249   3.419   0.673   1.956
13784SOL    HW243250   3.473   0.759   1.843
13785SOL     OW43251   1.515   8.574   4.925
13785SOL    HW143252   1.549   8.516   4.856
13785SOL    HW243253   1.561   8.657   4.911
13786SOL     OW43254  11.580  11.101  13.712
13786SOL    HW143255  11.673  11.077  13.715
13786SOL    HW243256  11.557  11.094  13.619
13787SOL     OW43257   6.492   9.856   9.979
13787SOL    HW143258   6.576   9.851  10.025
13787SOL    HW243259   6.516   9.854   9.886
13788SOL     OW43260   0.246   8.622   6.129
13788SOL    HW143261   0.169   8.579   6.168
13788SOL    HW243262   0.215   8.654   6.044
13789SOL     OW43263   6.643   3.090   0.899
13789SOL    HW143264   6.687   3.007   0.886
13789SOL    HW243265   6.607   3.085   0.987
13790SOL     OW43266  12.980   1.669   5.683
13790SOL    HW143267  13.045   1.652   5.615
13790SOL    HW243268  12.953   1.760   5.669
13791SOL     OW43269   5.762   3.240  13.744
13791SOL    HW143270   5.688   3.236  13.805
13791SOL    HW243271   5.764   3.331  13.715
13792SOL     OW43272  13.687   7.755   6.837
13792SOL    HW143273  13.695   7.740   6.742
13792SOL    HW243274  13.716   7.672   6.876
13793SOL     OW43275  12.165   9.094   7.231
13793SOL    HW143276  12.139   9.183   7.257
13793SOL    HW243277  12.253   9.105   7.196
13794SOL     OW43278  11.175   1.747   8.864
13794SOL    HW143279  11.264   1.741   8.828
13794SOL    HW243280  11.119   1.760   8.788
13795SOL     OW43281  11.973   3.669  14.321
13795SOL    HW143282  11.907   3.729  14.353
13795SOL    HW243283  12.038   3.664  14.391
13796SOL     OW43284   9.891  11.157  13.478
13796SOL    HW143285   9.877  11.070  13.441
13796SOL    HW243286   9.871  11.217  13.407
13797SOL     OW43287   1.813  12.871  11.881
13797SOL    HW143288   1.779  12.788  11.848
13797SOL    HW243289   1.769  12.884  11.964
13798SOL     OW43290  14.469   9.828   7.040
13798SOL    HW143291  14.402   9.781   6.991
13798SOL    HW243292  14.430   9.914   7.056
13799SOL     OW43293  11.368   1.330   1.383
13799SOL    HW143294  11.394   1.421   1.370
13799SOL    HW243295  11.291   1.319   1.327
13800SOL     OW43296   6.141   5.453   6.866
13800SOL    HW143297   6.075   5.499   6.814
13800SOL    HW243298   6.213   5.516   6.875
13801SOL     OW43299  12.939   5.581  14.315
13801SOL    HW143300  12.894   5.553  14.395
13801SOL    HW243301  12.930   5.508  14.255
13802SOL     OW43302   4.374   5.986  13.932
13802SOL    HW143303   4.354   5.893  13.928
13802SOL    HW243304   4.363   6.017  13.842
13803SOL     OW43305   3.612  11.871  12.882
13803SOL    HW143306   3.692  11.888  12.831
13803SOL    HW243307   3.542  11.914  12.832
13804SOL     OW43308  13.333   9.008  12.234
13804SOL    HW143309  13.392   9.034  12.164
13804SOL    HW243310  13.384   9.022  12.314
13805SOL     OW43311   1.556  13.614   4.709
13805SOL    HW143312   1.570  13.652   4.623
13805SOL    HW243313   1.465  13.585   4.709
13806SOL     OW43314   4.025   4.872   0.444
13806SOL    HW143315   4.067   4.823   0.374
13806SOL    HW243316   3.946   4.908   0.404
13807SOL     OW43317   3.887   9.741   3.702
13807SOL    HW143318   3.942   9.758   3.625
13807SOL    HW243319   3.892   9.822   3.754
13808SOL     OW43320   7.873   1.564   7.380
13808SOL    HW143321   7.798   1.613   7.347
13808SOL    HW243322   7.937   1.632   7.405
13809SOL     OW43323   1.624  13.914   3.728
13809SOL    HW143324   1.535  13.913   3.763
13809SOL    HW243325   1.639  14.005   3.704
13810SOL     OW43326   9.708   9.526   0.826
13810SOL    HW143327   9.748   9.582   0.893
13810SOL    HW243328   9.682   9.447   0.873
13811SOL     OW43329   1.192   7.542  11.357
13811SOL    HW143330   1.284   7.538  11.384
13811SOL    HW243331   1.172   7.453  11.329
13812SOL     OW43332   9.997   9.814  10.534
13812SOL    HW143333   9.975   9.877  10.466
13812SOL    HW243334  10.015   9.867  10.612
13813SOL     OW43335   5.499   1.814   1.899
13813SOL    HW143336   5.558   1.847   1.967
13813SOL    HW243337   5.555   1.798   1.823
13814SOL     OW43338  13.738  13.771  11.496
13814SOL    HW143339  13.752  13.764  11.590
13814SOL    HW243340  13.681  13.847  11.485
13815SOL     OW43341   0.175  10.558   3.751
13815SOL    HW143342   0.147  10.557   3.659
13815SOL    HW243343   0.198  10.468   3.770
13816SOL     OW43344   4.765   6.781   6.849
13816SOL    HW143345   4.715   6.813   6.923
13816SOL    HW243346   4.796   6.860   6.804
13817SOL     OW43347  14.735  12.280  11.187
13817SOL    HW143348  14.820  12.308  11.153
13817SOL    HW243349  14.680  12.358  11.183
13818SOL     OW43350   8.219  14.363  10.083
13818SOL    HW143351   8.160  14.324  10.148
13818SOL    HW243352   8.170  14.437  10.048
13819SOL     OW43353   0.192   1.896  10.729
13819SOL    HW143354   0.210   1.810  10.767
13819SOL    HW243355   0.097   1.895  10.712
13820SOL     OW43356   1.368   7.050  14.774
13820SOL    HW143357   1.368   7.042  14.678
13820SOL    HW243358   1.438   6.992  14.803
13821SOL     OW43359   7.619   0.532   6.627
13821SOL    HW143360   7.622   0.443   6.592
13821SOL    HW243361   7.536   0.567   6.596
13822SOL     OW43362   2.621   7.020  11.378
13822SOL    HW143363   2.691   7.075  11.413
13822SOL    HW243364   2.586   7.070  11.304
13823SOL     OW43365   7.975  11.684   3.014
13823SOL    HW143366   7.983  11.771   3.055
13823SOL    HW243367   7.944  11.628   3.085
13824SOL     OW43368  11.898  12.061  14.607
13824SOL    HW143369  11.956  12.031  14.677
13824SOL    HW243370  11.877  11.982  14.558
13825SOL     OW43371   6.106  13.777   4.345
13825SOL    HW143372   6.110  13.732   4.261
13825SOL    HW243373   6.077  13.711   4.407
13826SOL     OW43374   4.325   1.132   7.825
13826SOL    HW143375   4.313   1.079   7.747
13826SOL    HW243376   4.239   1.170   7.843
13827SOL     OW43377   9.861   0.249   4.993
13827SOL    HW143378   9.890   0.159   4.986
13827SOL    HW243379   9.806   0.263   4.916
13828SOL     OW43380   6.603   9.526  10.334
13828SOL    HW143381   6.681   9.569  10.369
13828SOL    HW243382   6.634   9.439  10.307
13829SOL     OW43383   9.020  13.250  11.863
13829SOL    HW143384   9.024  13.310  11.938
13829SOL    HW243385   8.938  13.202  11.875
13830SOL     OW43386   5.643  11.868   1.082
13830SOL    HW143387   5.654  11.774   1.096
13830SOL    HW243388   5.609  11.900   1.166
13831SOL     OW43389   8.110   9.595  12.133
13831SOL    HW143390   8.180   9.530  12.123
13831SOL    HW243391   8.113   9.646  12.053
13832SOL     OW43392   4.271   3.420   1.434
13832SOL    HW143393   4.220   3.476   1.493
13832SOL    HW243394   4.323   3.364   1.492
13833SOL     OW43395   4.138   2.862   4.072
13833SOL    HW143396   4.096   2.933   4.120
13833SOL    HW243397   4.231   2.871   4.093
13834SOL     OW43398  13.149   2.089   1.756
13834SOL    HW143399  13.081   2.047   1.702
13834SOL    HW243400  13.230   2.047   1.729
13835SOL     OW43401  12.073   3.544   4.880
13835SOL    HW143402  12.121   3.614   4.924
13835SOL    HW243403  12.045   3.582   4.797
13836SOL     OW43404   3.329   5.116   0.680
13836SOL    HW143405   3.260   5.051   0.692
13836SOL    HW243406   3.376   5.117   0.764
13837SOL     OW43407   6.545   9.029   7.215
13837SOL    HW143408   6.574   8.974   7.142
13837SOL    HW243409   6.587   8.989   7.292
13838SOL     OW43410   2.762  14.323   5.072
13838SOL    HW143411   2.724  14.410   5.056
13838SOL    HW243412   2.816  14.306   4.994
13839SOL     OW43413  12.038   5.657  11.466
13839SOL    HW143414  12.043   5.665  11.370
13839SOL    HW243415  11.951   5.621  11.483
13840SOL     OW43416  12.621   4.411   0.878
13840SOL    HW143417  12.624   4.504   0.857
13840SOL    HW243418  12.645   4.406   0.970
13841SOL     OW43419   3.219   8.330  12.957
13841SOL    HW143420   3.157   8.357  13.024
13841SOL    HW243421   3.164   8.297  12.885
13842SOL     OW43422   1.183   8.788   2.139
13842SOL    HW143423   1.093   8.817   2.150
13842SOL    HW243424   1.177   8.694   2.126
13843SOL     OW43425   3.277   2.065   1.170
13843SOL    HW143426   3.183   2.059   1.151
13843SOL    HW243427   3.299   1.983   1.213
13844SOL     OW43428   0.636   8.241  11.522
13844SOL    HW143429   0.616   8.164  11.468
13844SOL    HW243430   0.670   8.205  11.603
13845SOL     OW43431   2.612   5.272   2.208
13845SOL    HW143432   2.648   5.361   2.210
13845SOL    HW243433   2.599   5.253   2.115
13846SOL     OW43434   2.995   1.360  12.853
13846SOL    HW143435   3.028   1.316  12.774
13846SOL    HW243436   3.074   1.382  12.902
13847SOL     OW43437   7.595   1.100   8.224
13847SOL    HW143438   7.512   1.143   8.242
13847SOL    HW243439   7.630   1.145   8.147
13848SOL     OW43440  13.063   2.240   7.908
13848SOL    HW143441  13.080   2.291   7.986
13848SOL    HW243442  12.974   2.206   7.920
13849SOL     OW43443  12.408  12.102   2.733
13849SOL    HW143444  12.473  12.165   2.703
13849SOL    HW243445  12.445  12.067   2.814
13850SOL     OW43446  11.191   8.359   2.216
13850SOL    HW143447  11.123   8.419   2.183
13850SOL    HW243448  11.255   8.354   2.144
13851SOL     OW43449  13.684   3.996   0.037
13851SOL    HW143450  13.594   3.996   0.072
13851SOL    HW243451  13.705   3.903   0.026
13852SOL     OW43452  11.358  11.369   1.223
13852SOL    HW143453  11.352  11.460   1.250
13852SOL    HW243454  11.299  11.362   1.147
13853SOL     OW43455  14.380   1.377   7.268
13853SOL    HW143456  14.305   1.389   7.326
13853SOL    HW243457  14.453   1.418   7.315
13854SOL     OW43458   0.135  13.083   4.787
13854SOL    HW143459   0.097  13.063   4.873
13854SOL    HW243460   0.129  13.178   4.779
13855SOL     OW43461   5.367   2.294  14.473
13855SOL    HW143462   5.395   2.209  14.505
13855SOL    HW243463   5.441   2.352  14.489
13856SOL     OW43464   7.932  14.707   3.397
13856SOL    HW143465   8.011  14.698   3.344
13856SOL    HW243466   7.878  14.769   3.348
13857SOL     OW43467   4.130   9.476  13.009
13857SOL    HW143468   4.186   9.524  12.948
13857SOL    HW243469   4.156   9.509  13.095
13858SOL     OW43470   3.643  14.273   0.984
13858SOL    HW143471   3.701  14.347   1.003
13858SOL    HW243472   3.685  14.229   0.910
13859SOL     OW43473   7.287   5.933   9.646
13859SOL    HW143474   7.297   6.022   9.614
13859SOL    HW243475   7.291   5.878   9.568
13860SOL     OW43476   2.680  14.538  12.672
13860SOL    HW143477   2.679  14.581  12.758
13860SOL    HW243478   2.642  14.451  12.689
13861SOL     OW43479   2.369  11.605   4.067
13861SOL    HW143480   2.301  11.635   4.007
13861SOL    HW243481   2.323  11.585   4.148
13862SOL     OW43482   9.437   4.201   7.650
13862SOL    HW143483   9.356   4.199   7.600
13862SOL    HW243484   9.416   4.254   7.727
13863SOL     OW43485   8.476  12.357  13.389
13863SOL    HW143486   8.460  12.452  13.388
13863SOL    HW243487   8.539  12.343  13.319
13864SOL     OW43488  10.571  12.609  12.394
13864SOL    HW143489  10.587  12.667  12.320
13864SOL    HW243490  10.483  12.631  12.424
13865SOL     OW43491   9.295  10.785   2.461
13865SOL    HW143492   9.281  10.732   2.382
13865SOL    HW243493   9.286  10.875   2.431
13866SOL     OW43494  10.174   4.547   1.028
13866SOL    HW143495  10.146   4.465   0.988
13866SOL    HW243496  10.141   4.544   1.117
13867SOL     OW43497   2.768   1.324  14.704
13867SOL    HW143498   2.774   1.237  14.744
13867SOL    HW243499   2.807   1.383  14.769
13868SOL     OW43500  12.439  10.855  13.637
13868SOL    HW143501  12.533  10.868  13.648
13868SOL    HW243502  12.411  10.814  13.719
13869SOL     OW43503   3.191  14.424   4.030
13869SOL    HW143504   3.214  14.383   4.113
13869SOL    HW243505   3.201  14.354   3.965
13870SOL     OW43506   1.654   3.251  11.713
13870SOL    HW143507   1.608   3.205  11.783
13870SOL    HW243508   1.615   3.217  11.633
13871SOL     OW43509   2.409   9.451   6.957
13871SOL    HW143510   2.438   9.511   6.888
13871SOL    HW243511   2.319   9.476   6.974
13872SOL     OW43512   9.729   5.086  12.882
13872SOL    HW143513   9.662   5.080  12.814
13872SOL    HW243514   9.722   5.003  12.929
13873SOL     OW43515   0.983   5.192   3.427
13873SOL    HW143516   0.915   5.195   3.494
13873SOL    HW243517   1.045   5.126   3.458
13874SOL     OW43518   0.780   5.514  12.975
13874SOL    HW143519   0.780   5.597  13.024
13874SOL    HW243520   0.834   5.532  12.899
13875SOL     OW43521   8.178   0.529   8.525
13875SOL    HW143522   8.202   0.615   8.558
13875SOL    HW243523   8.107   0.546   8.463
13876SOL     OW43524   9.029   8.891   4.354
13876SOL    HW143525   8.961   8.958   4.345
13876SOL    HW243526   9.075   8.913   4.435
13877SOL     OW43527   2.106  14.489   6.665
13877SOL    HW143528   2.071  14.547   6.597
13877SOL    HW243529   2.175  14.539   6.707
13878SOL     OW43530  13.863  12.178   0.554
13878SOL    HW143531  13.918  12.123   0.498
13878SOL    HW243532  13.802  12.117   0.595
13879SOL     OW43533   4.321   7.896  11.676
13879SOL    HW143534   4.260   7.967  11.697
13879SOL    HW243535   4.359   7.873  11.760
13880SOL     OW43536  10.633   3.258   9.628
13880SOL    HW143537  10.585   3.260   9.710
13880SOL    HW243538  10.609   3.338   9.583
13881SOL     OW43539  10.102   9.720   9.783
13881SOL    HW143540  10.123   9.672   9.703
13881SOL    HW243541  10.028   9.671   9.821
13882SOL     OW43542   7.766  14.021   4.580
13882SOL    HW143543   7.774  13.928   4.599
13882SOL    HW243544   7.735  14.060   4.662
13883SOL     OW43545   5.748  10.546   8.834
13883SOL    HW143546   5.678  10.549   8.899
13883SOL    HW243547   5.706  10.569   8.752
13884SOL     OW43548  11.772   8.929   3.512
13884SOL    HW143549  11.809   9.008   3.551
13884SOL    HW243550  11.694   8.959   3.465
13885SOL     OW43551   9.265  11.763   0.409
13885SOL    HW143552   9.188  11.796   0.455
13885SOL    HW243553   9.339  11.797   0.458
13886SOL     OW43554  11.843  11.509   3.445
13886SOL    HW143555  11.771  11.445   3.450
13886SOL    HW243556  11.878  11.513   3.534
13887SOL     OW43557   3.738   1.097  10.617
13887SOL    HW143558   3.711   1.044  10.692
13887SOL    HW243559   3.658   1.140  10.588
13888SOL     OW43560   9.276   6.945   3.500
13888SOL    HW143561   9.202   6.897   3.537
13888SOL    HW243562   9.337   6.955   3.573
13889SOL     OW43563  14.820  11.462   4.436
13889SOL    HW143564  14.821  11.503   4.523
13889SOL    HW243565  14.749  11.398   4.441
13890SOL     OW43566   0.247   2.082   2.970
13890SOL    HW143567   0.341   2.080   2.991
13890SOL    HW243568   0.226   2.175   2.968
13891SOL     OW43569   8.169  10.350  13.053
13891SOL    HW143570   8.201  10.313  12.971
13891SOL    HW243571   8.123  10.278  13.096
13892SOL     OW43572   6.928   5.714   3.102
13892SOL    HW143573   7.008   5.766   3.093
13892SOL    HW243574   6.948   5.632   3.058
13893SOL     OW43575  11.355   3.579   0.918
13893SOL    HW143576  11.359   3.589   1.013
13893SOL    HW243577  11.262   3.585   0.897
13894SOL     OW43578   7.691   9.827  12.310
13894SOL    HW143579   7.700   9.911  12.355
13894SOL    HW243580   7.781   9.795  12.301
13895SOL     OW43581   0.353   2.512   2.845
13895SOL    HW143582   0.356   2.594   2.893
13895SOL    HW243583   0.339   2.538   2.754
13896SOL     OW43584  11.160   3.506   8.158
13896SOL    HW143585  11.164   3.519   8.063
13896SOL    HW243586  11.248   3.474   8.181
13897SOL     OW43587   1.604  11.298   6.071
13897SOL    HW143588   1.640  11.259   5.992
13897SOL    HW243589   1.529  11.242   6.093
13898SOL     OW43590   9.998  10.193   6.692
13898SOL    HW143591   9.987  10.288   6.684
13898SOL    HW243592  10.058  10.170   6.621
13899SOL     OW43593   5.246   0.579  14.849
13899SOL    HW143594   5.185   0.592   0.040
13899SOL    HW243595   5.331   0.567   0.009
13900SOL     OW43596  10.551  12.811   1.031
13900SOL    HW143597  10.606  12.812   1.109
13900SOL    HW243598  10.593  12.746   0.974
13901SOL     OW43599  14.003  10.737   5.888
13901SOL    HW143600  13.946  10.778   5.953
13901SOL    HW243601  14.076  10.799   5.879
13902SOL     OW43602   0.985   7.417   4.703
13902SOL    HW143603   0.994   7.434   4.797
13902SOL    HW243604   1.060   7.361   4.682
13903SOL     OW43605   9.224  11.706   4.064
13903SOL    HW143606   9.217  11.611   4.066
13903SOL    HW243607   9.215  11.729   3.972
13904SOL     OW43608   2.726  13.532   6.687
13904SOL    HW143609   2.697  13.617   6.653
13904SOL    HW243610   2.674  13.519   6.766
13905SOL     OW43611   3.306  12.020   1.229
13905SOL    HW143612   3.211  12.012   1.234
13905SOL    HW243613   3.328  12.087   1.294
13906SOL     OW43614  14.144   0.631   3.519
13906SOL    HW143615  14.155   0.536   3.522
13906SOL    HW243616  14.219   0.665   3.569
13907SOL     OW43617  10.442   0.312   6.858
13907SOL    HW143618  10.423   0.353   6.773
13907SOL    HW243619  10.508   0.369   6.897
13908SOL     OW43620   8.079   6.378   8.783
13908SOL    HW143621   8.078   6.343   8.872
13908SOL    HW243622   8.095   6.472   8.795
13909SOL     OW43623   9.934  11.179   2.895
13909SOL    HW143624   9.987  11.244   2.942
13909SOL    HW243625   9.960  11.095   2.934
13910SOL     OW43626  10.716   4.696   0.213
13910SOL    HW143627  10.691   4.712   0.122
13910SOL    HW243628  10.654   4.629   0.244
13911SOL     OW43629   9.967  11.722   0.680
13911SOL    HW143630   9.879  11.722   0.717
13911SOL    HW243631   9.979  11.811   0.647
13912SOL     OW43632   4.611   4.554   6.793
13912SOL    HW143633   4.669   4.612   6.743
13912SOL    HW243634   4.536   4.609   6.815
13913SOL     OW43635   4.616   8.079   3.592
13913SOL    HW143636   4.552   8.096   3.662
13913SOL    HW243637   4.701   8.082   3.636
13914SOL     OW43638  13.731   9.466  11.287
13914SOL    HW143639  13.705   9.545  11.335
13914SOL    HW243640  13.751   9.499  11.199
13915SOL     OW43641   0.970   3.481   6.153
13915SOL    HW143642   0.898   3.535   6.186
13915SOL    HW243643   1.006   3.439   6.230
13916SOL     OW43644   7.823  11.659   7.122
13916SOL    HW143645   7.906  11.667   7.168
13916SOL    HW243646   7.815  11.566   7.103
13917SOL     OW43647  11.943   6.654  13.410
13917SOL    HW143648  11.982   6.600  13.478
13917SOL    HW243649  11.860   6.684  13.449
13918SOL     OW43650   8.806   3.957   1.688
13918SOL    HW143651   8.775   4.039   1.649
13918SOL    HW243652   8.901   3.958   1.673
13919SOL     OW43653   0.171   9.696   7.128
13919SOL    HW143654   0.186   9.633   7.057
13919SOL    HW243655   0.191   9.647   7.208
13920SOL     OW43656   2.503   2.910  10.890
13920SOL    HW143657   2.441   2.976  10.922
13920SOL    HW243658   2.487   2.906  10.796
13921SOL     OW43659   7.403   2.289  14.238
13921SOL    HW143660   7.447   2.205  14.248
13921SOL    HW243661   7.318   2.277  14.281
13922SOL     OW43662   4.177   9.235   2.505
13922SOL    HW143663   4.225   9.194   2.433
13922SOL    HW243664   4.204   9.327   2.502
13923SOL     OW43665  14.330   2.414   4.249
13923SOL    HW143666  14.413   2.402   4.204
13923SOL    HW243667  14.353   2.425   4.341
13924SOL     OW43668   8.119   0.618   9.211
13924SOL    HW143669   8.183   0.620   9.282
13924SOL    HW243670   8.159   0.566   9.142
13925SOL     OW43671  13.394   3.126   7.712
13925SOL    HW143672  13.348   3.208   7.696
13925SOL    HW243673  13.359   3.094   7.795
13926SOL     OW43674  13.709   7.483   5.496
13926SOL    HW143675  13.751   7.409   5.451
13926SOL    HW243676  13.616   7.473   5.476
13927SOL     OW43677  12.836  11.590   6.667
13927SOL    HW143678  12.779  11.581   6.590
13927SOL    HW243679  12.864  11.682   6.665
13928SOL     OW43680   3.968  12.128   2.956
13928SOL    HW143681   3.901  12.147   2.890
13928SOL    HW243682   4.048  12.115   2.906
13929SOL     OW43683   2.839  10.853   4.004
13929SOL    HW143684   2.809  10.811   3.923
13929SOL    HW243685   2.927  10.818   4.019
13930SOL     OW43686   8.840   1.239   8.486
13930SOL    HW143687   8.805   1.201   8.567
13930SOL    HW243688   8.853   1.332   8.507
13931SOL     OW43689  11.576   1.025   7.924
13931SOL    HW143690  11.552   1.117   7.932
13931SOL    HW243691  11.659   1.027   7.876
13932SOL     OW43692   1.641   2.197   3.081
13932SOL    HW143693   1.628   2.163   3.169
13932SOL    HW243694   1.667   2.288   3.093
13933SOL     OW43695  13.603  12.376   3.329
13933SOL    HW143696  13.553  12.402   3.251
13933SOL    HW243697  13.624  12.458   3.372
13934SOL     OW43698  14.233  11.471   3.664
13934SOL    HW143699  14.177  11.502   3.734
13934SOL    HW243700  14.317  11.452   3.706
13935SOL     OW43701   9.799   8.621   3.121
13935SOL    HW143702   9.751   8.650   3.044
13935SOL    HW243703   9.748   8.656   3.195
13936SOL     OW43704  11.122  12.291   2.839
13936SOL    HW143705  11.140  12.340   2.919
13936SOL    HW243706  11.034  12.320   2.813
13937SOL     OW43707  13.315   9.206   2.242
13937SOL    HW143708  13.245   9.204   2.177
13937SOL    HW243709  13.331   9.299   2.257
13938SOL     OW43710   5.348  11.008   5.498
13938SOL    HW143711   5.292  11.068   5.549
13938SOL    HW243712   5.418  10.984   5.558
13939SOL     OW43713   4.575   5.250   1.448
13939SOL    HW143714   4.577   5.331   1.498
13939SOL    HW243715   4.606   5.275   1.360
13940SOL     OW43716   5.934   5.020   3.058
13940SOL    HW143717   5.930   5.051   3.148
13940SOL    HW243718   6.010   4.961   3.057
13941SOL     OW43719   1.205   3.423   0.251
13941SOL    HW143720   1.227   3.341   0.207
13941SOL    HW243721   1.170   3.396   0.336
13942SOL     OW43722   2.553   0.581  11.389
13942SOL    HW143723   2.557   0.491  11.421
13942SOL    HW243724   2.642   0.599  11.357
13943SOL     OW43725   4.798  12.303   0.379
13943SOL    HW143726   4.868  12.301   0.444
13943SOL    HW243727   4.748  12.382   0.399
13944SOL     OW43728   4.988  10.102   0.885
13944SOL    HW143729   5.015  10.011   0.895
13944SOL    HW243730   5.066  10.146   0.850
13945SOL     OW43731   8.803  14.513   9.636
13945SOL    HW143732   8.837  14.522   9.725
13945SOL    HW243733   8.790  14.603   9.606
13946SOL     OW43734   2.534   3.968   7.133
13946SOL    HW143735   2.558   3.876   7.122
13946SOL    HW243736   2.591   3.999   7.204
13947SOL     OW43737  10.135   1.983   3.357
13947SOL    HW143738  10.139   2.072   3.321
13947SOL    HW243739  10.044   1.957   3.344
13948SOL     OW43740  14.047  11.827   9.055
13948SOL    HW143741  14.112  11.798   8.992
13948SOL    HW243742  14.093  11.892   9.108
13949SOL     OW43743   2.192   9.422   0.697
13949SOL    HW143744   2.287   9.435   0.698
13949SOL    HW243745   2.181   9.327   0.690
13950SOL     OW43746   7.391  13.983   6.826
13950SOL    HW143747   7.311  14.030   6.805
13950SOL    HW243748   7.401  13.994   6.921
13951SOL     OW43749   2.534   1.703  10.356
13951SOL    HW143750   2.575   1.730  10.274
13951SOL    HW243751   2.451   1.751  10.358
13952SOL     OW43752   6.263  14.607   0.559
13952SOL    HW143753   6.211  14.535   0.594
13952SOL    HW243754   6.205  14.683   0.561
13953SOL     OW43755   6.780  12.949  10.425
13953SOL    HW143756   6.764  12.953  10.330
13953SOL    HW243757   6.875  12.958  10.433
13954SOL     OW43758   8.763   5.078   1.185
13954SOL    HW143759   8.751   5.159   1.136
13954SOL    HW243760   8.681   5.030   1.173
13955SOL     OW43761  10.637  12.879   2.984
13955SOL    HW143762  10.636  12.784   2.986
13955SOL    HW243763  10.669  12.905   3.071
13956SOL     OW43764  13.848   3.549  10.443
13956SOL    HW143765  13.913   3.617  10.424
13956SOL    HW243766  13.887   3.468  10.411
13957SOL     OW43767   4.879   7.000   7.779
13957SOL    HW143768   4.838   6.914   7.780
13957SOL    HW243769   4.871   7.030   7.688
13958SOL     OW43770  14.350   8.170   3.322
13958SOL    HW143771  14.268   8.136   3.358
13958SOL    HW243772  14.390   8.218   3.394
13959SOL     OW43773  11.404   4.255  11.075
13959SOL    HW143774  11.488   4.283  11.040
13959SOL    HW243775  11.419   4.165  11.104
13960SOL     OW43776   9.431   2.779   8.394
13960SOL    HW143777   9.520   2.808   8.413
13960SOL    HW243778   9.397   2.844   8.333
13961SOL     OW43779   1.447   8.597   3.596
13961SOL    HW143780   1.449   8.523   3.657
13961SOL    HW243781   1.359   8.633   3.606
13962SOL     OW43782   1.606   6.826   9.929
13962SOL    HW143783   1.568   6.909   9.960
13962SOL    HW243784   1.545   6.796   9.863
13963SOL     OW43785   4.533   1.112   4.104
13963SOL    HW143786   4.595   1.040   4.105
13963SOL    HW243787   4.498   1.114   4.193
13964SOL     OW43788   8.414   4.260  13.834
13964SOL    HW143789   8.382   4.286  13.748
13964SOL    HW243790   8.370   4.176  13.852
13965SOL     OW43791  12.500  10.434  10.887
13965SOL    HW143792  12.486  10.342  10.865
13965SOL    HW243793  12.477  10.482  10.808
13966SOL     OW43794   0.223   9.635   9.036
13966SOL    HW143795   0.138   9.663   9.003
13966SOL    HW243796   0.264   9.592   8.961
13967SOL     OW43797   5.480   6.576   8.335
13967SOL    HW143798   5.560   6.544   8.292
13967SOL    HW243799   5.506   6.660   8.373
13968SOL     OW43800  11.867   8.767   3.311
13968SOL    HW143801  11.871   8.824   3.234
13968SOL    HW243802  11.809   8.812   3.372
13969SOL     OW43803   5.401   7.317   3.782
13969SOL    HW143804   5.328   7.379   3.779
13969SOL    HW243805   5.475   7.368   3.813
13970SOL     OW43806   9.546  11.568   3.243
13970SOL    HW143807   9.603  11.518   3.184
13970SOL    HW243808   9.500  11.501   3.294
13971SOL     OW43809   8.923   0.750  10.375
13971SOL    HW143810   8.943   0.760  10.468
13971SOL    HW243811   8.851   0.687  10.372
13972SOL     OW43812   2.020   7.045   0.573
13972SOL    HW143813   1.936   7.090   0.579
13972SOL    HW243814   2.083   7.106   0.611
13973SOL     OW43815   0.819  11.785   6.648
13973SOL    HW143816   0.822  11.881   6.646
13973SOL    HW243817   0.727  11.765   6.668
13974SOL     OW43818   0.907   9.559   8.863
13974SOL    HW143819   0.931   9.513   8.943
13974SOL    HW243820   0.830   9.611   8.888
13975SOL     OW43821  11.150   0.266   8.330
13975SOL    HW143822  11.184   0.349   8.365
13975SOL    HW243823  11.171   0.269   8.237
13976SOL     OW43824   8.542   9.823  11.123
13976SOL    HW143825   8.569   9.877  11.198
13976SOL    HW243826   8.547   9.883  11.049
13977SOL     OW43827   4.208  13.331  14.367
13977SOL    HW143828   4.127  13.380  14.352
13977SOL    HW243829   4.236  13.304  14.279
13978SOL     OW43830   9.482   0.006   2.732
13978SOL    HW143831   9.491  14.850   2.644
13978SOL    HW243832   9.443  14.818   2.784
13979SOL     OW43833  12.496   8.656   9.798
13979SOL    HW143834  12.545   8.606   9.733
13979SOL    HW243835  12.519   8.616   9.882
13980SOL     OW43836   2.160   8.924   2.560
13980SOL    HW143837   2.214   8.883   2.628
13980SOL    HW243838   2.133   9.007   2.599
13981SOL     OW43839   6.498   5.970   4.800
13981SOL    HW143840   6.435   5.921   4.853
13981SOL    HW243841   6.547   6.022   4.865
13982SOL     OW43842  13.985   5.379   0.741
13982SOL    HW143843  14.069   5.420   0.760
13982SOL    HW243844  13.951   5.427   0.666
13983SOL     OW43845   7.914   1.149  11.108
13983SOL    HW143846   7.880   1.221  11.162
13983SOL    HW243847   7.999   1.182  11.076
13984SOL     OW43848   6.957   3.501   1.166
13984SOL    HW143849   6.885   3.483   1.228
13984SOL    HW243850   7.017   3.427   1.178
13985SOL     OW43851  14.131   3.454  13.798
13985SOL    HW143852  14.180   3.443  13.879
13985SOL    HW243853  14.190   3.504  13.741
13986SOL     OW43854   5.510   1.407   1.683
13986SOL    HW143855   5.516   1.431   1.590
13986SOL    HW243856   5.421   1.373   1.693
13987SOL     OW43857   5.625   0.444  13.781
13987SOL    HW143858   5.594   0.419  13.868
13987SOL    HW243859   5.610   0.366  13.727
13988SOL     OW43860   7.470   3.199   8.866
13988SOL    HW143861   7.558   3.186   8.832
13988SOL    HW243862   7.462   3.137   8.938
13989SOL     OW43863   2.363  13.648   0.304
13989SOL    HW143864   2.454  13.635   0.330
13989SOL    HW243865   2.333  13.561   0.279
13990SOL     OW43866   9.806  14.852   8.187
13990SOL    HW143867   9.817   0.020   8.105
13990SOL    HW243868   9.750   0.026   8.241
13991SOL     OW43869  10.405   4.297   6.129
13991SOL    HW143870  10.391   4.274   6.220
13991SOL    HW243871  10.458   4.376   6.132
13992SOL     OW43872   8.903   8.292  11.432
13992SOL    HW143873   8.951   8.292  11.349
13992SOL    HW243874   8.811   8.287  11.406
13993SOL     OW43875   4.999   5.635   5.729
13993SOL    HW143876   5.066   5.620   5.661
13993SOL    HW243877   4.939   5.699   5.689
13994SOL     OW43878   3.630  12.174  13.035
13994SOL    HW143879   3.649  12.224  12.956
13994SOL    HW243880   3.554  12.120  13.012
13995SOL     OW43881   8.310   0.667   0.984
13995SOL    HW143882   8.215   0.676   0.978
13995SOL    HW243883   8.344   0.741   0.935
13996SOL     OW43884   2.891   3.258   0.160
13996SOL    HW143885   2.799   3.281   0.172
13996SOL    HW243886   2.892   3.202   0.082
13997SOL     OW43887   1.621  10.554   4.997
13997SOL    HW143888   1.645  10.505   4.918
13997SOL    HW243889   1.534  10.590   4.977
13998SOL     OW43890  13.930   3.279   2.007
13998SOL    HW143891  13.899   3.260   2.095
13998SOL    HW243892  13.979   3.201   1.981
13999SOL     OW43893   8.782   3.752   4.895
13999SOL    HW143894   8.739   3.769   4.811
13999SOL    HW243895   8.766   3.659   4.912
14000SOL     OW43896  12.976   7.554  12.859
14000SOL    HW143897  12.896   7.518  12.819
14000SOL    HW243898  13.041   7.551  12.789
14001SOL     OW43899  12.132  10.870  10.498
14001SOL    HW143900  12.118  10.869  10.403
14001SOL    HW243901  12.168  10.783  10.517
14002SOL     OW43902   5.821   3.529   1.807
14002SOL    HW143903   5.905   3.572   1.790
14002SOL    HW243904   5.767   3.550   1.731
14003SOL     OW43905  13.629   9.229   0.722
14003SOL    HW143906  13.550   9.256   0.769
14003SOL    HW243907  13.599   9.209   0.634
14004SOL     OW43908  10.502  13.815  13.410
14004SOL    HW143909  10.510  13.759  13.487
14004SOL    HW243910  10.515  13.756  13.336
14005SOL     OW43911   5.591  12.862  13.373
14005SOL    HW143912   5.681  12.836  13.352
14005SOL    HW243913   5.583  12.850  13.467
14006SOL     OW43914  14.831   6.013  11.664
14006SOL    HW143915  14.751   5.992  11.616
14006SOL    HW243916   0.020   5.990  11.604
14007SOL     OW43917   2.990   3.871   9.577
14007SOL    HW143918   2.909   3.879   9.527
14007SOL    HW243919   3.049   3.821   9.520
14008SOL     OW43920   6.244  13.983   4.515
14008SOL    HW143921   6.199  13.913   4.469
14008SOL    HW243922   6.334  13.951   4.525
14009SOL     OW43923   3.320   7.628   3.447
14009SOL    HW143924   3.315   7.707   3.393
14009SOL    HW243925   3.342   7.660   3.535
14010SOL     OW43926   5.293  13.977   9.669
14010SOL    HW143927   5.354  13.958   9.740
14010SOL    HW243928   5.227  13.907   9.675
14011SOL     OW43929   0.163   9.366  10.876
14011SOL    HW143930   0.103   9.344  10.805
14011SOL    HW243931   0.181   9.459  10.864
14012SOL     OW43932   5.701   3.594   1.559
14012SOL    HW143933   5.608   3.610   1.544
14012SOL    HW243934   5.743   3.620   1.476
14013SOL     OW43935   3.378   4.899   3.712
14013SOL    HW143936   3.415   4.973   3.663
14013SOL    HW243937   3.421   4.903   3.797
14014SOL     OW43938  13.711   7.578  13.624
14014SOL    HW143939  13.762   7.657  13.609
14014SOL    HW243940  13.775   7.514  13.657
14015SOL     OW43941   5.760   6.300   9.364
14015SOL    HW143942   5.730   6.341   9.445
14015SOL    HW243943   5.817   6.229   9.393
14016SOL     OW43944   8.275  13.897  12.807
14016SOL    HW143945   8.356  13.861  12.842
14016SOL    HW243946   8.220  13.914  12.884
14017SOL     OW43947   0.590  11.744  11.593
14017SOL    HW143948   0.508  11.770  11.549
14017SOL    HW243949   0.562  11.679  11.658
14018SOL     OW43950   6.051   1.854  14.146
14018SOL    HW143951   6.072   1.812  14.062
14018SOL    HW243952   6.036   1.946  14.124
14019SOL     OW43953   6.076   2.594  12.781
14019SOL    HW143954   6.001   2.562  12.832
14019SOL    HW243955   6.103   2.673  12.827
14020SOL     OW43956   9.898  14.447   4.496
14020SOL    HW143957   9.815  14.491   4.514
14020SOL    HW243958   9.875  14.378   4.434
14021SOL     OW43959   7.183   8.978   8.763
14021SOL    HW143960   7.210   8.898   8.808
14021SOL    HW243961   7.090   8.987   8.785
14022SOL     OW43962  13.883   6.354   5.958
14022SOL    HW143963  13.935   6.427   5.992
14022SOL    HW243964  13.930   6.326   5.879
14023SOL     OW43965  14.420  13.369   1.964
14023SOL    HW143966  14.436  13.328   2.049
14023SOL    HW243967  14.507  13.385   1.928
14024SOL     OW43968   8.401  14.552   0.047
14024SOL    HW143969   8.349  14.482   0.010
14024SOL    HW243970   8.338  14.609   0.091
14025SOL     OW43971   3.274   3.795   4.956
14025SOL    HW143972   3.267   3.706   4.991
14025SOL    HW243973   3.343   3.836   5.008
14026SOL     OW43974   1.273   6.265   6.392
14026SOL    HW143975   1.210   6.324   6.432
14026SOL    HW243976   1.301   6.207   6.462
14027SOL     OW43977   0.601  12.247  10.641
14027SOL    HW143978   0.694  12.270  10.638
14027SOL    HW243979   0.557  12.328  10.666
14028SOL     OW43980   3.847  11.716   5.533
14028SOL    HW143981   3.834  11.650   5.602
14028SOL    HW243982   3.763  11.720   5.487
14029SOL     OW43983  13.399  13.966   4.789
14029SOL    HW143984  13.356  14.025   4.851
14029SOL    HW243985  13.431  13.893   4.842
14030SOL     OW43986   7.577   5.364   4.124
14030SOL    HW143987   7.527   5.411   4.056
14030SOL    HW243988   7.545   5.400   4.206
14031SOL     OW43989   4.305   1.178  10.724
14031SOL    HW143990   4.312   1.268  10.755
14031SOL    HW243991   4.213   1.166  10.703
14032SOL     OW43992  10.670   8.643  12.550
14032SOL    HW143993  10.633   8.628  12.637
14032SOL    HW243994  10.725   8.720  12.560
14033SOL     OW43995   6.078  12.848   7.659
14033SOL    HW143996   6.114  12.890   7.581
14033SOL    HW243997   6.086  12.913   7.728
14034SOL     OW43998  12.460   8.614   2.406
14034SOL    HW143999  12.395   8.587   2.341
14034SOL    HW244000  12.522   8.668   2.357
14035SOL     OW44001  14.455  10.948   8.662
14035SOL    HW144002  14.380  10.903   8.623
14035SOL    HW244003  14.416  11.005   8.729
14036SOL     OW44004   1.625   1.893  12.712
14036SOL    HW144005   1.584   1.975  12.738
14036SOL    HW244006   1.577   1.826  12.760
14037SOL     OW44007   8.150   0.098   1.592
14037SOL    HW144008   8.084   0.154   1.551
14037SOL    HW244009   8.211   0.078   1.522
14038SOL     OW44010   0.084   9.192   4.979
14038SOL    HW144011   0.163   9.201   5.031
14038SOL    HW244012   0.019   9.155   5.040
14039SOL     OW44013   2.502   4.260   5.772
14039SOL    HW144014   2.451   4.188   5.809
14039SOL    HW244015   2.437   4.316   5.730
14040SOL     OW44016   6.242   9.671   4.714
14040SOL    HW144017   6.302   9.605   4.680
14040SOL    HW244018   6.280   9.754   4.686
14041SOL     OW44019   7.768   2.480   4.998
14041SOL    HW144020   7.792   2.416   5.066
14041SOL    HW244021   7.722   2.549   5.045
14042SOL     OW44022   2.672   5.725   0.226
14042SOL    HW144023   2.614   5.778   0.280
14042SOL    HW244024   2.751   5.778   0.215
14043SOL     OW44025   9.290   3.512  13.607
14043SOL    HW144026   9.255   3.550  13.527
14043SOL    HW244027   9.213   3.476  13.652
14044SOL     OW44028   0.610   0.685  12.322
14044SOL    HW144029   0.622   0.751  12.390
14044SOL    HW244030   0.697   0.677  12.282
14045SOL     OW44031   6.583   3.342   5.514
14045SOL    HW144032   6.673   3.348   5.484
14045SOL    HW244033   6.562   3.430   5.546
14046SOL     OW44034   6.533   9.455   2.470
14046SOL    HW144035   6.481   9.415   2.400
14046SOL    HW244036   6.573   9.381   2.516
14047SOL     OW44037   9.228   7.609   5.073
14047SOL    HW144038   9.161   7.591   5.139
14047SOL    HW244039   9.297   7.545   5.091
14048SOL     OW44040   2.420   2.179  13.009
14048SOL    HW144041   2.385   2.091  12.999
14048SOL    HW244042   2.508   2.174  12.972
14049SOL     OW44043   0.807  10.625   4.477
14049SOL    HW144044   0.891  10.667   4.495
14049SOL    HW244045   0.744  10.698   4.474
14050SOL     OW44046  13.446   6.496   3.563
14050SOL    HW144047  13.440   6.409   3.523
14050SOL    HW244048  13.505   6.484   3.638
14051SOL     OW44049   5.370   8.427   5.619
14051SOL    HW144050   5.304   8.385   5.674
14051SOL    HW244051   5.365   8.379   5.536
14052SOL     OW44052   8.126  10.521  10.923
14052SOL    HW144053   8.156  10.488  10.838
14052SOL    HW244054   8.193  10.584  10.950
14053SOL     OW44055  14.632   4.956   6.258
14053SOL    HW144056  14.590   5.041   6.271
14053SOL    HW244057  14.621   4.937   6.165
14054SOL     OW44058   6.534   4.408   6.837
14054SOL    HW144059   6.488   4.492   6.847
14054SOL    HW244060   6.529   4.389   6.743
14055SOL     OW44061   8.251   5.559   5.411
14055SOL    HW144062   8.185   5.531   5.475
14055SOL    HW244063   8.311   5.485   5.405
14056SOL     OW44064  13.511   8.650   9.441
14056SOL    HW144065  13.491   8.568   9.486
14056SOL    HW244066  13.570   8.624   9.369
14057SOL     OW44067  13.240   9.157   7.397
14057SOL    HW144068  13.331   9.183   7.412
14057SOL    HW244069  13.189   9.234   7.418
14058SOL     OW44070   8.505  11.621   9.599
14058SOL    HW144071   8.598  11.640   9.599
14058SOL    HW244072   8.500  11.526   9.595
14059SOL     OW44073  14.014   8.070   6.541
14059SOL    HW144074  14.084   8.006   6.546
14059SOL    HW244075  13.934   8.018   6.530
14060SOL     OW44076   4.775   5.399   6.506
14060SOL    HW144077   4.858   5.369   6.471
14060SOL    HW244078   4.737   5.453   6.437
14061SOL     OW44079   3.666   2.433   2.150
14061SOL    HW144080   3.740   2.387   2.190
14061SOL    HW244081   3.596   2.368   2.146
14062SOL     OW44082   1.574  10.232   0.205
14062SOL    HW144083   1.651  10.289   0.209
14062SOL    HW244084   1.505  10.283   0.247
14063SOL     OW44085   5.798   8.144   9.181
14063SOL    HW144086   5.894   8.145   9.183
14063SOL    HW244087   5.771   8.165   9.270
14064SOL     OW44088   0.343  13.263  14.814
14064SOL    HW144089   0.330  13.232   0.022
14064SOL    HW244090   0.264  13.234  14.768
14065SOL     OW44091   5.092   8.842   4.364
14065SOL    HW144092   5.181   8.876   4.371
14065SOL    HW244093   5.042   8.914   4.326
14066SOL     OW44094   0.320   8.679   8.654
14066SOL    HW144095   0.233   8.638   8.662
14066SOL    HW244096   0.379   8.605   8.636
14067SOL     OW44097   7.507  10.186  12.725
14067SOL    HW144098   7.570  10.145  12.784
14067SOL    HW244099   7.506  10.278  12.750
14068SOL     OW44100   2.927   8.909   4.303
14068SOL    HW144101   2.899   8.894   4.213
14068SOL    HW244102   2.978   8.990   4.299
14069SOL     OW44103   4.401   5.146   1.792
14069SOL    HW144104   4.395   5.062   1.747
14069SOL    HW244105   4.480   5.139   1.845
14070SOL     OW44106   8.031   0.120   6.661
14070SOL    HW144107   7.966   0.188   6.678
14070SOL    HW244108   8.029   0.065   6.740
14071SOL     OW44109  10.588   8.859   2.223
14071SOL    HW144110  10.638   8.878   2.144
14071SOL    HW244111  10.531   8.786   2.198
14072SOL     OW44112   6.877   9.364  14.294
14072SOL    HW144113   6.831   9.315  14.226
14072SOL    HW244114   6.856   9.456  14.275
14073SOL     OW44115   7.716   8.352   0.071
14073SOL    HW144116   7.682   8.269   0.037
14073SOL    HW244117   7.763   8.391  14.878
14074SOL     OW44118   7.538   3.249   1.153
14074SOL    HW144119   7.610   3.207   1.201
14074SOL    HW244120   7.497   3.177   1.105
14075SOL     OW44121   1.365   5.422   8.519
14075SOL    HW144122   1.429   5.459   8.580
14075SOL    HW244123   1.384   5.328   8.519
14076SOL     OW44124   5.406   0.680   1.270
14076SOL    HW144125   5.447   0.606   1.316
14076SOL    HW244126   5.314   0.653   1.260
14077SOL     OW44127   9.396   6.317   2.319
14077SOL    HW144128   9.315   6.362   2.298
14077SOL    HW244129   9.392   6.235   2.269
14078SOL     OW44130   8.632   7.424  11.360
14078SOL    HW144131   8.726   7.415  11.345
14078SOL    HW244132   8.606   7.342  11.404
14079SOL     OW44133   8.831  12.715   1.824
14079SOL    HW144134   8.823  12.656   1.749
14079SOL    HW244135   8.778  12.791   1.801
14080SOL     OW44136   8.526  10.922   0.229
14080SOL    HW144137   8.461  10.980   0.269
14080SOL    HW244138   8.586  10.981   0.183
14081SOL     OW44139   6.060   2.114  14.329
14081SOL    HW144140   6.042   2.197  14.374
14081SOL    HW244141   5.988   2.057  14.354
14082SOL     OW44142  12.793  10.131   4.022
14082SOL    HW144143  12.773  10.216   4.060
14082SOL    HW244144  12.800  10.072   4.097
14083SOL     OW44145  10.229   5.613   5.681
14083SOL    HW144146  10.141   5.626   5.716
14083SOL    HW244147  10.253   5.699   5.645
14084SOL     OW44148   3.025   3.080   1.515
14084SOL    HW144149   3.094   3.023   1.479
14084SOL    HW244150   2.991   3.127   1.438
14085SOL     OW44151  14.575   9.555   2.538
14085SOL    HW144152  14.600   9.555   2.630
14085SOL    HW244153  14.573   9.462   2.514
14086SOL     OW44154  14.165   0.458   5.469
14086SOL    HW144155  14.229   0.492   5.531
14086SOL    HW244156  14.186   0.502   5.386
14087SOL     OW44157  14.294   1.584   7.971
14087SOL    HW144158  14.312   1.583   8.065
14087SOL    HW244159  14.360   1.525   7.933
14088SOL     OW44160  12.304   6.336  14.781
14088SOL    HW144161  12.259   6.251  14.782
14088SOL    HW244162  12.392   6.316  14.749
14089SOL     OW44163   3.573   9.518   8.732
14089SOL    HW144164   3.505   9.577   8.701
14089SOL    HW244165   3.641   9.523   8.664
14090SOL     OW44166   5.773   7.592  11.406
14090SOL    HW144167   5.844   7.643  11.445
14090SOL    HW244168   5.811   7.507  11.388
14091SOL     OW44169   6.937  11.673   1.511
14091SOL    HW144170   7.009  11.736   1.521
14091SOL    HW244171   6.929  11.662   1.416
14092SOL     OW44172  10.467  13.508   6.726
14092SOL    HW144173  10.407  13.567   6.772
14092SOL    HW244174  10.551  13.520   6.770
14093SOL     OW44175   1.742  13.270  14.182
14093SOL    HW144176   1.682  13.261  14.256
14093SOL    HW244177   1.690  13.245  14.106
14094SOL     OW44178  11.911   5.773  12.606
14094SOL    HW144179  11.857   5.852  12.602
14094SOL    HW244180  11.910   5.739  12.517
14095SOL     OW44181  10.520   0.278   5.513
14095SOL    HW144182  10.509   0.186   5.536
14095SOL    HW244183  10.471   0.289   5.431
14096SOL     OW44184   0.316   9.498   7.859
14096SOL    HW144185   0.294   9.422   7.805
14096SOL    HW244186   0.242   9.507   7.919
14097SOL     OW44187   7.622   9.584  12.858
14097SOL    HW144188   7.622   9.544  12.945
14097SOL    HW244189   7.530   9.606  12.843
14098SOL     OW44190   8.953   4.561   0.686
14098SOL    HW144191   8.960   4.487   0.626
14098SOL    HW244192   8.902   4.626   0.638
14099SOL     OW44193   8.727  12.533   8.056
14099SOL    HW144194   8.817  12.526   8.025
14099SOL    HW244195   8.682  12.460   8.013
14100SOL     OW44196  11.853   7.566  14.449
14100SOL    HW144197  11.915   7.541  14.381
14100SOL    HW244198  11.767   7.555  14.408
14101SOL     OW44199   0.063   0.423  14.669
14101SOL    HW144200   0.019   0.338  14.665
14101SOL    HW244201   0.127   0.421  14.598
14102SOL     OW44202  14.633  10.719   0.489
14102SOL    HW144203  14.671  10.799   0.524
14102SOL    HW244204  14.692  10.649   0.519
14103SOL     OW44205   3.711   9.315  11.777
14103SOL    HW144206   3.661   9.314  11.695
14103SOL    HW244207   3.657   9.367  11.837
14104SOL     OW44208   7.328   6.202   2.497
14104SOL    HW144209   7.336   6.182   2.590
14104SOL    HW244210   7.324   6.116   2.454
14105SOL     OW44211   4.100   5.698  10.617
14105SOL    HW144212   4.119   5.708  10.710
14105SOL    HW244213   4.109   5.787  10.582
14106SOL     OW44214   5.713  11.674   7.288
14106SOL    HW144215   5.751  11.652   7.374
14106SOL    HW244216   5.619  11.665   7.301
14107SOL     OW44217   3.520   8.824   7.076
14107SOL    HW144218   3.501   8.910   7.113
14107SOL    HW244219   3.452   8.767   7.112
14108SOL     OW44220   5.009  14.303   6.198
14108SOL    HW144221   4.932  14.290   6.253
14108SOL    HW244222   5.065  14.363   6.248
14109SOL     OW44223   9.930   9.914   6.739
14109SOL    HW144224   9.845   9.912   6.783
14109SOL    HW244225   9.954  10.007   6.737
14110SOL     OW44226   4.966  10.581   0.319
14110SOL    HW144227   5.041  10.546   0.272
14110SOL    HW244228   4.976  10.548   0.408
14111SOL     OW44229  14.116   4.690  14.613
14111SOL    HW144230  14.084   4.687  14.523
14111SOL    HW244231  14.150   4.779  14.623
14112SOL     OW44232  13.778   2.578  13.646
14112SOL    HW144233  13.683   2.562  13.652
14112SOL    HW244234  13.818   2.495  13.671
14113SOL     OW44235  14.715  13.601   7.304
14113SOL    HW144236  14.685  13.642   7.223
14113SOL    HW244237  14.809  13.584   7.289
14114SOL     OW44238  10.467   5.233   4.847
14114SOL    HW144239  10.399   5.165   4.845
14114SOL    HW244240  10.425   5.307   4.891
14115SOL     OW44241  14.117  11.562   9.825
14115SOL    HW144242  14.062  11.622   9.775
14115SOL    HW244243  14.191  11.615   9.855
14116SOL     OW44244   7.509   1.123   6.448
14116SOL    HW144245   7.531   1.137   6.357
14116SOL    HW244246   7.581   1.161   6.498
14117SOL     OW44247   0.134   0.449   8.514
14117SOL    HW144248   0.078   0.423   8.587
14117SOL    HW244249   0.113   0.386   8.445
14118SOL     OW44250   0.227   8.373   0.118
14118SOL    HW144251   0.238   8.449   0.174
14118SOL    HW244252   0.316   8.342   0.100
14119SOL     OW44253  14.119   7.585   1.001
14119SOL    HW144254  14.120   7.678   1.023
14119SOL    HW244255  14.154   7.582   0.912
14120SOL     OW44256  14.446  11.384   3.878
14120SOL    HW144257  14.479  11.460   3.830
14120SOL    HW244258  14.500  11.380   3.957
14121SOL     OW44259  12.482   3.887   2.515
14121SOL    HW144260  12.429   3.889   2.594
14121SOL    HW244261  12.418   3.891   2.443
14122SOL     OW44262   8.885   9.069   1.420
14122SOL    HW144263   8.815   9.133   1.430
14122SOL    HW244264   8.891   9.026   1.505
14123SOL     OW44265   9.475   3.726   5.857
14123SOL    HW144266   9.533   3.789   5.900
14123SOL    HW244267   9.496   3.734   5.764
14124SOL     OW44268   3.482   5.666   0.377
14124SOL    HW144269   3.577   5.672   0.387
14124SOL    HW244270   3.469   5.609   0.302
14125SOL     OW44271   7.295   5.736   4.913
14125SOL    HW144272   7.374   5.790   4.910
14125SOL    HW244273   7.270   5.725   4.821
14126SOL     OW44274   8.418   0.462  13.986
14126SOL    HW144275   8.386   0.380  13.951
14126SOL    HW244276   8.424   0.447  14.081
14127SOL     OW44277  10.492   5.151   3.724
14127SOL    HW144278  10.542   5.123   3.801
14127SOL    HW244279  10.401   5.147   3.752
14128SOL     OW44280   9.203   5.266   0.427
14128SOL    HW144281   9.272   5.201   0.414
14128SOL    HW244282   9.165   5.277   0.340
14129SOL     OW44283  11.361  12.583   5.015
14129SOL    HW144284  11.281  12.531   5.024
14129SOL    HW244285  11.336  12.655   4.956
14130SOL     OW44286  12.385   0.727  10.684
14130SOL    HW144287  12.300   0.740  10.641
14130SOL    HW244288  12.392   0.632  10.695
14131SOL     OW44289  11.182   6.390  10.712
14131SOL    HW144290  11.108   6.337  10.682
14131SOL    HW244291  11.212   6.436  10.634
14132SOL     OW44292   9.374   2.757  10.853
14132SOL    HW144293   9.443   2.822  10.852
14132SOL    HW244294   9.330   2.769  10.938
14133SOL     OW44295   5.935  12.002   1.233
14133SOL    HW144296   5.884  12.079   1.261
14133SOL    HW244297   5.956  11.957   1.315
14134SOL     OW44298   2.359   5.292  13.270
14134SOL    HW144299   2.355   5.250  13.185
14134SOL    HW244300   2.409   5.232  13.325
14135SOL     OW44301   9.153   5.116   3.015
14135SOL    HW144302   9.180   5.202   3.047
14135SOL    HW244303   9.163   5.121   2.920
14136SOL     OW44304   1.833   4.484   8.740
14136SOL    HW144305   1.787   4.426   8.800
14136SOL    HW244306   1.915   4.504   8.784
14137SOL     OW44307   9.867   4.477   8.380
14137SOL    HW144308   9.822   4.465   8.463
14137SOL    HW244309   9.916   4.559   8.390
14138SOL     OW44310  12.329  10.773   0.487
14138SOL    HW144311  12.234  10.780   0.473
14138SOL    HW244312  12.366  10.847   0.440
14139SOL     OW44313   9.549   9.454  10.714
14139SOL    HW144314   9.456   9.475  10.710
14139SOL    HW244315   9.553   9.359  10.702
14140SOL     OW44316  11.596   4.623   5.288
14140SOL    HW144317  11.661   4.693   5.296
14140SOL    HW244318  11.557   4.636   5.201
14141SOL     OW44319   6.990   7.669  12.346
14141SOL    HW144320   6.895   7.661  12.354
14141SOL    HW244321   7.008   7.761  12.362
14142SOL     OW44322  13.322   1.131  14.728
14142SOL    HW144323  13.314   1.118  14.823
14142SOL    HW244324  13.330   1.226  14.717
14143SOL     OW44325   0.462  14.352   5.183
14143SOL    HW144326   0.557  14.350   5.199
14143SOL    HW244327   0.440  14.445   5.182
14144SOL     OW44328   8.121   9.211   8.444
14144SOL    HW144329   8.130   9.141   8.380
14144SOL    HW244330   8.192   9.272   8.423
14145SOL     OW44331   4.163   2.267   7.412
14145SOL    HW144332   4.255   2.281   7.390
14145SOL    HW244333   4.156   2.173   7.427
14146SOL     OW44334   6.870  11.575  11.609
14146SOL    HW144335   6.884  11.639  11.539
14146SOL    HW244336   6.879  11.490  11.565
14147SOL     OW44337  11.258   1.622   1.502
14147SOL    HW144338  11.174   1.623   1.458
14147SOL    HW244339  11.323   1.632   1.432
14148SOL     OW44340   9.222  11.613   1.126
14148SOL    HW144341   9.271  11.609   1.208
14148SOL    HW244342   9.142  11.563   1.144
14149SOL     OW44343   2.655  13.644  14.637
14149SOL    HW144344   2.593  13.666  14.567
14149SOL    HW244345   2.601  13.598  14.702
14150SOL     OW44346   5.286   3.536   8.230
14150SOL    HW144347   5.195   3.560   8.212
14150SOL    HW244348   5.305   3.577   8.314
14151SOL     OW44349   8.124   7.049   2.764
14151SOL    HW144350   8.044   7.012   2.728
14151SOL    HW244351   8.113   7.043   2.859
14152SOL     OW44352   3.729  14.390   2.453
14152SOL    HW144353   3.753  14.389   2.545
14152SOL    HW244354   3.637  14.363   2.451
14153SOL     OW44355  10.396   5.926   2.418
14153SOL    HW144356  10.343   5.888   2.488
14153SOL    HW244357  10.485   5.896   2.436
14154SOL     OW44358   0.157  14.314   1.471
14154SOL    HW144359   0.110  14.340   1.550
14154SOL    HW244360   0.249  14.326   1.494
14155SOL     OW44361   4.761  12.656   4.839
14155SOL    HW144362   4.798  12.569   4.825
14155SOL    HW244363   4.672  12.651   4.802
14156SOL     OW44364   7.357   0.792  10.448
14156SOL    HW144365   7.283   0.744  10.413
14156SOL    HW244366   7.360   0.873  10.396
14157SOL     OW44367  13.890   3.463   3.367
14157SOL    HW144368  13.830   3.509   3.308
14157SOL    HW244369  13.882   3.510   3.450
14158SOL     OW44370   2.954   8.820  12.162
14158SOL    HW144371   3.048   8.830  12.174
14158SOL    HW244372   2.928   8.753  12.225
14159SOL     OW44373   9.912  10.833  11.251
14159SOL    HW144374   9.834  10.849  11.198
14159SOL    HW244375   9.904  10.893  11.325
14160SOL     OW44376  12.286   7.498  12.254
14160SOL    HW144377  12.331   7.545  12.324
14160SOL    HW244378  12.198   7.481  12.288
14161SOL     OW44379   1.588   9.247   4.938
14161SOL    HW144380   1.651   9.254   5.009
14161SOL    HW244381   1.563   9.155   4.937
14162SOL     OW44382   8.883   1.359  13.455
14162SOL    HW144383   8.869   1.277  13.409
14162SOL    HW244384   8.924   1.416  13.390
14163SOL     OW44385   0.635  10.893  12.192
14163SOL    HW144386   0.648  10.957  12.122
14163SOL    HW244387   0.589  10.821  12.149
14164SOL     OW44388  11.413   3.575   7.631
14164SOL    HW144389  11.330   3.600   7.592
14164SOL    HW244390  11.392   3.499   7.686
14165SOL     OW44391   6.757  10.695   3.956
14165SOL    HW144392   6.813  10.660   4.025
14165SOL    HW244393   6.818  10.719   3.886
14166SOL     OW44394  13.086   7.912  11.522
14166SOL    HW144395  13.091   8.001  11.486
14166SOL    HW244396  13.136   7.858  11.461
14167SOL     OW44397   7.160   1.406   2.941
14167SOL    HW144398   7.125   1.360   3.017
14167SOL    HW244399   7.210   1.340   2.893
14168SOL     OW44400  10.355   7.223  13.017
14168SOL    HW144401  10.272   7.177  13.028
14168SOL    HW244402  10.361   7.279  13.094
14169SOL     OW44403   9.667  11.275  11.681
14169SOL    HW144404   9.677  11.202  11.620
14169SOL    HW244405   9.757  11.302  11.701
14170SOL     OW44406   0.358   3.003  11.103
14170SOL    HW144407   0.302   2.925  11.100
14170SOL    HW244408   0.347   3.036  11.193
14171SOL     OW44409   5.949   3.448  12.676
14171SOL    HW144410   6.025   3.480  12.723
14171SOL    HW244411   5.905   3.390  12.738
14172SOL     OW44412   0.193   7.690  13.596
14172SOL    HW144413   0.258   7.758  13.576
14172SOL    HW244414   0.245   7.611  13.608
14173SOL     OW44415  11.755   1.206   9.991
14173SOL    HW144416  11.716   1.291  10.011
14173SOL    HW244417  11.757   1.203   9.895
14174SOL     OW44418  13.856   0.523   0.433
14174SOL    HW144419  13.930   0.562   0.479
14174SOL    HW244420  13.869   0.547   0.341
14175SOL     OW44421   0.773  12.774  10.984
14175SOL    HW144422   0.751  12.859  10.947
14175SOL    HW244423   0.833  12.793  11.056
14176SOL     OW44424   2.436  11.052   3.007
14176SOL    HW144425   2.425  11.018   2.918
14176SOL    HW244426   2.477  10.981   3.055
14177SOL     OW44427  10.169   9.565   4.520
14177SOL    HW144428  10.166   9.491   4.460
14177SOL    HW244429  10.231   9.626   4.480
14178SOL     OW44430   6.803   3.633  13.814
14178SOL    HW144431   6.805   3.559  13.753
14178SOL    HW244432   6.852   3.602  13.890
14179SOL     OW44433   5.678  13.473   6.330
14179SOL    HW144434   5.767  13.461   6.296
14179SOL    HW244435   5.672  13.411   6.402
14180SOL     OW44436   5.226   9.959   7.091
14180SOL    HW144437   5.148  10.008   7.116
14180SOL    HW244438   5.296   9.997   7.144
14181SOL     OW44439   3.117   7.679  14.758
14181SOL    HW144440   3.129   7.768  14.723
14181SOL    HW244441   3.183   7.671  14.826
14182SOL     OW44442   4.924  10.464   6.240
14182SOL    HW144443   5.015  10.433   6.239
14182SOL    HW244444   4.918  10.517   6.320
14183SOL     OW44445   7.594   6.806  12.491
14183SOL    HW144446   7.498   6.804  12.489
14183SOL    HW244447   7.615   6.884  12.542
14184SOL     OW44448   5.139   1.985  11.048
14184SOL    HW144449   5.118   2.061  11.102
14184SOL    HW244450   5.067   1.924  11.063
14185SOL     OW44451   3.861   9.023  11.837
14185SOL    HW144452   3.843   9.113  11.866
14185SOL    HW244453   3.861   8.972  11.918
14186SOL     OW44454  14.089  14.380  11.610
14186SOL    HW144455  14.138  14.459  11.587
14186SOL    HW244456  14.098  14.323  11.534
14187SOL     OW44457   3.163   3.130   4.770
14187SOL    HW144458   3.172   3.198   4.837
14187SOL    HW244459   3.078   3.090   4.787
14188SOL     OW44460   2.166   4.663   4.539
14188SOL    HW144461   2.121   4.644   4.621
14188SOL    HW244462   2.146   4.755   4.521
14189SOL     OW44463   7.749   2.474  13.990
14189SOL    HW144464   7.768   2.522  13.910
14189SOL    HW244465   7.686   2.528  14.037
14190SOL     OW44466   7.534   3.829  10.821
14190SOL    HW144467   7.587   3.871  10.888
14190SOL    HW244468   7.478   3.768  10.869
14191SOL     OW44469   7.242   0.052   3.274
14191SOL    HW144470   7.177   0.013   3.215
14191SOL    HW244471   7.195   0.122   3.319
14192SOL     OW44472   6.478   7.571  11.659
14192SOL    HW144473   6.491   7.611  11.746
14192SOL    HW244474   6.476   7.645  11.599
14193SOL     OW44475   4.918   9.359  12.109
14193SOL    HW144476   4.892   9.337  12.198
14193SOL    HW244477   4.936   9.453  12.111
14194SOL     OW44478   2.603  14.041   6.706
14194SOL    HW144479   2.650  14.058   6.624
14194SOL    HW244480   2.519  14.004   6.677
14195SOL     OW44481   7.173   5.559   0.684
14195SOL    HW144482   7.118   5.600   0.617
14195SOL    HW244483   7.257   5.603   0.677
14196SOL     OW44484   7.771  14.643  12.844
14196SOL    HW144485   7.782  14.549  12.856
14196SOL    HW244486   7.697  14.667  12.900
14197SOL     OW44487   6.997   9.835   9.097
14197SOL    HW144488   6.932   9.885   9.049
14197SOL    HW244489   7.009   9.755   9.044
14198SOL     OW44490   0.438   4.593  12.472
14198SOL    HW144491   0.475   4.510  12.502
14198SOL    HW244492   0.464   4.656  12.539
14199SOL     OW44493   2.350   0.638  10.466
14199SOL    HW144494   2.275   0.651  10.407
14199SOL    HW244495   2.374   0.546  10.453
14200SOL     OW44496   2.787   3.462   6.147
14200SOL    HW144497   2.741   3.428   6.223
14200SOL    HW244498   2.770   3.557   6.149
14201SOL     OW44499  10.728   3.640   4.128
14201SOL    HW144500  10.678   3.621   4.207
14201SOL    HW244501  10.664   3.639   4.057
14202SOL     OW44502   6.654   7.991   6.870
14202SOL    HW144503   6.571   8.037   6.871
14202SOL    HW244504   6.702   8.025   6.946
14203SOL     OW44505   0.816   8.275   7.286
14203SOL    HW144506   0.750   8.236   7.343
14203SOL    HW244507   0.810   8.227   7.204
14204SOL     OW44508   4.289   4.625   6.540
14204SOL    HW144509   4.255   4.705   6.581
14204SOL    HW244510   4.230   4.609   6.466
14205SOL     OW44511   6.676   0.760  12.877
14205SOL    HW144512   6.608   0.816  12.914
14205SOL    HW244513   6.745   0.759  12.944
14206SOL     OW44514   9.384   8.570   3.148
14206SOL    HW144515   9.412   8.656   3.117
14206SOL    HW244516   9.365   8.583   3.241
14207SOL     OW44517   9.072   8.422   5.777
14207SOL    HW144518   9.144   8.474   5.813
14207SOL    HW244519   8.996   8.481   5.778
14208SOL     OW44520   3.597   7.342   4.092
14208SOL    HW144521   3.650   7.319   4.168
14208SOL    HW244522   3.588   7.437   4.097
14209SOL     OW44523   1.474   1.300   8.580
14209SOL    HW144524   1.461   1.281   8.673
14209SOL    HW244525   1.522   1.224   8.547
14210SOL     OW44526   7.130   0.394  13.311
14210SOL    HW144527   7.058   0.385  13.248
14210SOL    HW244528   7.101   0.345  13.388
14211SOL     OW44529   7.083   9.378  10.124
14211SOL    HW144530   7.004   9.430  10.141
14211SOL    HW244531   7.054   9.287  10.132
14212SOL     OW44532  12.989   4.299   3.865
14212SOL    HW144533  13.044   4.293   3.787
14212SOL    HW244534  12.901   4.276   3.834
14213SOL     OW44535   7.757   1.564  12.904
14213SOL    HW144536   7.818   1.496  12.933
14213SOL    HW244537   7.803   1.609  12.833
14214SOL     OW44538   8.798   2.320   2.464
14214SOL    HW144539   8.769   2.402   2.506
14214SOL    HW244540   8.772   2.330   2.373
14215SOL     OW44541   9.611   0.202   7.526
14215SOL    HW144542   9.620   0.273   7.462
14215SOL    HW244543   9.700   0.185   7.557
14216SOL     OW44544   4.499   7.322   5.570
14216SOL    HW144545   4.537   7.234   5.572
14216SOL    HW244546   4.460   7.333   5.657
14217SOL     OW44547   9.998   2.101  10.736
14217SOL    HW144548   9.946   2.127  10.659
14217SOL    HW244549  10.076   2.156  10.732
14218SOL     OW44550   0.620   8.668  12.878
14218SOL    HW144551   0.575   8.734  12.930
14218SOL    HW244552   0.701   8.710  12.850
14219SOL     OW44553  12.208   2.266   3.286
14219SOL    HW144554  12.131   2.323   3.276
14219SOL    HW244555  12.210   2.215   3.206
14220SOL     OW44556  10.739   4.362  11.946
14220SOL    HW144557  10.792   4.441  11.936
14220SOL    HW244558  10.787   4.308  12.008
14221SOL     OW44559   4.523  10.033   9.636
14221SOL    HW144560   4.584  10.060   9.705
14221SOL    HW244561   4.573  10.042   9.555
14222SOL     OW44562   7.300   2.831   6.928
14222SOL    HW144563   7.307   2.757   6.988
14222SOL    HW244564   7.207   2.838   6.909
14223SOL     OW44565   7.150   9.271  11.789
14223SOL    HW144566   7.107   9.277  11.703
14223SOL    HW244567   7.241   9.248  11.768
14224SOL     OW44568   5.468   3.395   8.482
14224SOL    HW144569   5.392   3.343   8.456
14224SOL    HW244570   5.430   3.479   8.510
14225SOL     OW44571  14.610   9.138  13.517
14225SOL    HW144572  14.684   9.077  13.520
14225SOL    HW244573  14.584   9.140  13.425
14226SOL     OW44574  11.043  14.638  14.112
14226SOL    HW144575  10.952  14.646  14.085
14226SOL    HW244576  11.060  14.544  14.112
14227SOL     OW44577   4.050  13.492   8.740
14227SOL    HW144578   4.127  13.540   8.771
14227SOL    HW244579   3.981  13.558   8.734
14228SOL     OW44580   8.281  13.349   2.974
14228SOL    HW144581   8.278  13.263   3.018
14228SOL    HW244582   8.355  13.393   3.014
14229SOL     OW44583   2.635  10.369  14.667
14229SOL    HW144584   2.571  10.328  14.724
14229SOL    HW244585   2.631  10.319  14.586
14230SOL     OW44586  12.507   9.690   5.040
14230SOL    HW144587  12.439   9.626   5.059
14230SOL    HW244588  12.463   9.775   5.049
14231SOL     OW44589  10.600   9.799   1.507
14231SOL    HW144590  10.646   9.843   1.435
14231SOL    HW244591  10.640   9.712   1.511
14232SOL     OW44592   2.354   9.970   0.643
14232SOL    HW144593   2.306  10.016   0.711
14232SOL    HW244594   2.330   9.878   0.655
14233SOL     OW44595  14.168   5.855   0.366
14233SOL    HW144596  14.211   5.814   0.440
14233SOL    HW244597  14.239   5.876   0.306
14234SOL     OW44598   3.203   5.257  12.387
14234SOL    HW144599   3.151   5.232  12.463
14234SOL    HW244600   3.234   5.346  12.408
14235SOL     OW44601   1.943  14.208   2.134
14235SOL    HW144602   1.869  14.150   2.151
14235SOL    HW244603   1.999  14.200   2.211
14236SOL     OW44604   9.830  12.123   8.742
14236SOL    HW144605   9.744  12.086   8.725
14236SOL    HW244606   9.816  12.184   8.815
14237SOL     OW44607   7.143  13.320   6.382
14237SOL    HW144608   7.223  13.322   6.329
14237SOL    HW244609   7.138  13.407   6.422
14238SOL     OW44610   2.714  13.031   8.847
14238SOL    HW144611   2.707  13.115   8.802
14238SOL    HW244612   2.629  12.989   8.834
14239SOL     OW44613  13.079   4.563  14.611
14239SOL    HW144614  13.146   4.500  14.634
14239SOL    HW244615  13.093   4.636  14.670
14240SOL     OW44616   7.030  10.699  11.338
14240SOL    HW144617   6.967  10.742  11.281
14240SOL    HW244618   7.080  10.772  11.376
14241SOL     OW44619  13.340   1.515   4.692
14241SOL    HW144620  13.425   1.544   4.660
14241SOL    HW244621  13.284   1.517   4.614
14242SOL     OW44622   2.420  13.294   0.884
14242SOL    HW144623   2.400  13.235   0.810
14242SOL    HW244624   2.335  13.313   0.923
14243SOL     OW44625   6.347  14.289   6.654
14243SOL    HW144626   6.408  14.216   6.647
14243SOL    HW244627   6.378  14.353   6.590
14244SOL     OW44628   6.392  13.573   8.343
14244SOL    HW144629   6.345  13.520   8.280
14244SOL    HW244630   6.484  13.552   8.328
14245SOL     OW44631   8.768   2.052   1.317
14245SOL    HW144632   8.848   2.039   1.266
14245SOL    HW244633   8.713   1.977   1.296
14246SOL     OW44634   0.813  12.782   8.008
14246SOL    HW144635   0.742  12.717   8.007
14246SOL    HW244636   0.892  12.730   8.019
14247SOL     OW44637   5.967  12.298   9.003
14247SOL    HW144638   5.912  12.369   8.971
14247SOL    HW244639   5.929  12.219   8.964
14248SOL     OW44640   3.349  13.612  14.574
14248SOL    HW144641   3.335  13.544  14.640
14248SOL    HW244642   3.261  13.636  14.545
14249SOL     OW44643   4.326   9.539  11.960
14249SOL    HW144644   4.238   9.522  11.925
14249SOL    HW244645   4.384   9.501  11.894
14250SOL     OW44646   3.042  12.883   9.216
14250SOL    HW144647   2.985  12.905   9.143
14250SOL    HW244648   3.123  12.852   9.176
14251SOL     OW44649   4.055   5.325   3.535
14251SOL    HW144650   4.006   5.263   3.480
14251SOL    HW244651   4.018   5.315   3.622
14252SOL     OW44652   0.542  13.770   8.458
14252SOL    HW144653   0.481  13.763   8.385
14252SOL    HW244654   0.489  13.750   8.535
14253SOL     OW44655  11.338  11.672   4.389
14253SOL    HW144656  11.333  11.763   4.358
14253SOL    HW244657  11.429  11.646   4.375
14254SOL     OW44658   4.317   7.977  12.683
14254SOL    HW144659   4.408   7.990  12.658
14254SOL    HW244660   4.282   8.066  12.692
14255SOL     OW44661   8.820  11.115   7.936
14255SOL    HW144662   8.811  11.113   7.841
14255SOL    HW244663   8.799  11.205   7.961
14256SOL     OW44664   3.706   4.548   1.726
14256SOL    HW144665   3.756   4.476   1.765
14256SOL    HW244666   3.620   4.544   1.768
14257SOL     OW44667  13.124  14.528   9.667
14257SOL    HW144668  13.058  14.546   9.734
14257SOL    HW244669  13.074  14.507   9.588
14258SOL     OW44670   5.579  11.680   9.501
14258SOL    HW144671   5.631  11.619   9.449
14258SOL    HW244672   5.637  11.755   9.516
14259SOL     OW44673   5.420  11.387   3.830
14259SOL    HW144674   5.472  11.397   3.910
14259SOL    HW244675   5.435  11.297   3.804
14260SOL     OW44676   8.575   3.955  10.845
14260SOL    HW144677   8.579   3.967  10.750
14260SOL    HW244678   8.485   3.929  10.862
14261SOL     OW44679  13.955  14.660  10.721
14261SOL    HW144680  13.887  14.632  10.783
14261SOL    HW244681  14.033  14.671  10.776
14262SOL     OW44682  11.126  10.427   6.417
14262SOL    HW144683  11.053  10.488   6.427
14262SOL    HW244684  11.190  10.455   6.484
14263SOL     OW44685   0.809   8.116   1.012
14263SOL    HW144686   0.843   8.119   1.102
14263SOL    HW244687   0.813   8.024   0.988
14264SOL     OW44688   2.079   4.328   9.628
14264SOL    HW144689   1.992   4.298   9.653
14264SOL    HW244690   2.071   4.423   9.623
14265SOL     OW44691   6.605   7.374   9.370
14265SOL    HW144692   6.552   7.453   9.363
14265SOL    HW244693   6.551   7.306   9.330
14266SOL     OW44694   3.092   8.280   4.319
14266SOL    HW144695   3.004   8.271   4.285
14266SOL    HW244696   3.083   8.267   4.414
14267SOL     OW44697   1.272   0.435  13.655
14267SOL    HW144698   1.276   0.365  13.590
14267SOL    HW244699   1.208   0.497  13.620
14268SOL     OW44700   8.652   5.433   4.456
14268SOL    HW144701   8.600   5.420   4.377
14268SOL    HW244702   8.707   5.355   4.463
14269SOL     OW44703  13.556   2.603   9.219
14269SOL    HW144704  13.549   2.698   9.211
14269SOL    HW244705  13.648   2.587   9.241
14270SOL     OW44706  11.387  10.385   0.629
14270SOL    HW144707  11.365  10.293   0.612
14270SOL    HW244708  11.474  10.396   0.592
14271SOL     OW44709  10.069  10.021   7.221
14271SOL    HW144710  10.041   9.977   7.301
14271SOL    HW244711  10.151   9.977   7.197
14272SOL     OW44712  11.466  12.881  13.323
14272SOL    HW144713  11.477  12.800  13.271
14272SOL    HW244714  11.459  12.850  13.413
14273SOL     OW44715  10.791  11.049   1.444
14273SOL    HW144716  10.815  10.958   1.460
14273SOL    HW244717  10.788  11.089   1.530
14274SOL     OW44718  14.795  13.801   2.628
14274SOL    HW144719  14.806  13.825   2.720
14274SOL    HW244720   0.003  13.789   2.596
14275SOL     OW44721  14.722   2.406   5.523
14275SOL    HW144722  14.715   2.313   5.541
14275SOL    HW244723  14.728   2.412   5.428
14276SOL     OW44724   3.021   9.079   9.450
14276SOL    HW144725   2.950   9.040   9.501
14276SOL    HW244726   3.011   9.173   9.463
14277SOL     OW44727  10.686   0.070  11.024
14277SOL    HW144728  10.724   0.139  10.969
14277SOL    HW244729  10.708  14.871  10.979
14278SOL     OW44730  14.325  11.190   4.239
14278SOL    HW144731  14.298  11.184   4.331
14278SOL    HW244732  14.287  11.272   4.209
14279SOL     OW44733   7.145   4.552  10.215
14279SOL    HW144734   7.137   4.482  10.279
14279SOL    HW244735   7.204   4.517  10.148
14280SOL     OW44736   0.084   6.264   9.997
14280SOL    HW144737   0.082   6.357   9.976
14280SOL    HW244738   0.012   6.227   9.945
14281SOL     OW44739   1.142   5.875   0.583
14281SOL    HW144740   1.053   5.839   0.584
14281SOL    HW244741   1.134   5.957   0.535
14282SOL     OW44742   2.617   1.884   8.702
14282SOL    HW144743   2.619   1.911   8.794
14282SOL    HW244744   2.595   1.791   8.704
14283SOL     OW44745   9.936   3.327  10.778
14283SOL    HW144746   9.878   3.393  10.740
14283SOL    HW244747   9.931   3.253  10.718
14284SOL     OW44748   2.853   6.265   4.125
14284SOL    HW144749   2.945   6.238   4.127
14284SOL    HW244750   2.844   6.323   4.201
14285SOL     OW44751   0.828   3.104   5.693
14285SOL    HW144752   0.759   3.130   5.754
14285SOL    HW244753   0.899   3.073   5.750
14286SOL     OW44754   9.915   6.634   4.583
14286SOL    HW144755   9.958   6.549   4.576
14286SOL    HW244756   9.864   6.642   4.503
14287SOL     OW44757   0.275   1.950  11.453
14287SOL    HW144758   0.311   1.880  11.399
14287SOL    HW244759   0.225   1.905  11.521
14288SOL     OW44760   3.604   4.285  11.490
14288SOL    HW144761   3.566   4.200  11.511
14288SOL    HW244762   3.606   4.332  11.574
14289SOL     OW44763   8.460   3.422   6.313
14289SOL    HW144764   8.541   3.384   6.278
14289SOL    HW244765   8.468   3.516   6.293
14290SOL     OW44766   7.391   4.344   2.495
14290SOL    HW144767   7.317   4.297   2.457
14290SOL    HW244768   7.363   4.436   2.494
14291SOL     OW44769  10.855  11.343   3.031
14291SOL    HW144770  10.882  11.255   3.005
14291SOL    HW244771  10.851  11.393   2.949
14292SOL     OW44772  12.653  11.554   2.307
14292SOL    HW144773  12.614  11.473   2.273
14292SOL    HW244774  12.631  11.621   2.242
14293SOL     OW44775   6.329  12.055   8.095
14293SOL    HW144776   6.314  12.142   8.057
14293SOL    HW244777   6.378  12.008   8.028
14294SOL     OW44778   5.883   1.243   4.325
14294SOL    HW144779   5.935   1.252   4.405
14294SOL    HW244780   5.933   1.289   4.258
14295SOL     OW44781   6.217   7.000   3.353
14295SOL    HW144782   6.177   6.914   3.363
14295SOL    HW244783   6.190   7.049   3.431
14296SOL     OW44784  11.394  14.698   0.764
14296SOL    HW144785  11.486  14.719   0.780
14296SOL    HW244786  11.345  14.762   0.816
14297SOL     OW44787  11.356   0.658  10.521
14297SOL    HW144788  11.274   0.671  10.474
14297SOL    HW244789  11.333   0.671  10.613
14298SOL     OW44790   9.691   2.458  10.120
14298SOL    HW144791   9.616   2.442  10.178
14298SOL    HW244792   9.705   2.553  10.126
14299SOL     OW44793  14.520   5.958   6.887
14299SOL    HW144794  14.549   5.918   6.969
14299SOL    HW244795  14.503   5.883   6.829
14300SOL     OW44796  13.583   3.446   5.330
14300SOL    HW144797  13.636   3.523   5.309
14300SOL    HW244798  13.636   3.396   5.392
14301SOL     OW44799   7.871   2.135   9.739
14301SOL    HW144800   7.953   2.085   9.741
14301SOL    HW244801   7.803   2.070   9.722
14302SOL     OW44802   0.896  10.695   1.778
14302SOL    HW144803   0.934  10.665   1.696
14302SOL    HW244804   0.970  10.702   1.838
14303SOL     OW44805  14.554   8.499   6.047
14303SOL    HW144806  14.553   8.595   6.053
14303SOL    HW244807  14.468   8.472   6.076
14304SOL     OW44808   0.521  10.715   1.160
14304SOL    HW144809   0.516  10.788   1.222
14304SOL    HW244810   0.599  10.733   1.107
14305SOL     OW44811   0.534   3.481   7.094
14305SOL    HW144812   0.469   3.467   7.163
14305SOL    HW244813   0.576   3.396   7.083
14306SOL     OW44814  14.313   2.869   6.411
14306SOL    HW144815  14.289   2.801   6.349
14306SOL    HW244816  14.229   2.903   6.444
14307SOL     OW44817   9.129   8.248   2.783
14307SOL    HW144818   9.135   8.275   2.875
14307SOL    HW244819   9.182   8.169   2.777
14308SOL     OW44820   0.510   8.606   6.160
14308SOL    HW144821   0.416   8.591   6.148
14308SOL    HW244822   0.517   8.646   6.247
14309SOL     OW44823  13.626   7.754  13.890
14309SOL    HW144824  13.705   7.805  13.876
14309SOL    HW244825  13.563   7.790  13.829
14310SOL     OW44826   2.624   2.399   5.458
14310SOL    HW144827   2.665   2.314   5.444
14310SOL    HW244828   2.597   2.399   5.550
14311SOL     OW44829   6.545  12.828   2.191
14311SOL    HW144830   6.536  12.733   2.178
14311SOL    HW244831   6.480  12.866   2.132
14312SOL     OW44832  13.753   2.743   3.285
14312SOL    HW144833  13.669   2.703   3.309
14312SOL    HW244834  13.780   2.696   3.206
14313SOL     OW44835   9.848   9.554   3.616
14313SOL    HW144836   9.879   9.610   3.544
14313SOL    HW244837   9.926   9.538   3.669
14314SOL     OW44838   3.854  12.118   8.601
14314SOL    HW144839   3.795  12.164   8.661
14314SOL    HW244840   3.910  12.066   8.658
14315SOL     OW44841  14.302  12.900   8.405
14315SOL    HW144842  14.332  12.869   8.491
14315SOL    HW244843  14.381  12.906   8.352
14316SOL     OW44844  10.766  12.521   8.684
14316SOL    HW144845  10.726  12.483   8.763
14316SOL    HW244846  10.779  12.447   8.626
14317SOL     OW44847   6.817   2.845   3.057
14317SOL    HW144848   6.873   2.796   3.117
14317SOL    HW244849   6.839   2.936   3.073
14318SOL     OW44850  13.114  12.248   3.491
14318SOL    HW144851  13.043  12.186   3.473
14318SOL    HW244852  13.129  12.240   3.585
14319SOL     OW44853  11.572   0.514   4.211
14319SOL    HW144854  11.493   0.512   4.265
14319SOL    HW244855  11.629   0.447   4.249
14320SOL     OW44856   5.955  14.663   8.367
14320SOL    HW144857   5.945  14.699   8.455
14320SOL    HW244858   6.044  14.687   8.340
14321SOL     OW44859   0.127   1.714  12.983
14321SOL    HW144860   0.092   1.691  12.896
14321SOL    HW244861   0.061   1.681  13.044
14322SOL     OW44862   4.372   9.890   2.125
14322SOL    HW144863   4.450   9.944   2.136
14322SOL    HW244864   4.335   9.918   2.042
14323SOL     OW44865   6.553   4.390   4.114
14323SOL    HW144866   6.520   4.480   4.114
14323SOL    HW244867   6.640   4.396   4.073
14324SOL     OW44868  14.385   6.475   3.914
14324SOL    HW144869  14.331   6.491   3.991
14324SOL    HW244870  14.387   6.559   3.868
14325SOL     OW44871  14.198   4.158   9.181
14325SOL    HW144872  14.282   4.186   9.143
14325SOL    HW244873  14.143   4.236   9.176
14326SOL     OW44874   2.160   1.638   5.278
14326SOL    HW144875   2.157   1.673   5.189
14326SOL    HW244876   2.238   1.582   5.279
14327SOL     OW44877   5.661   7.032   2.453
14327SOL    HW144878   5.684   7.096   2.520
14327SOL    HW244879   5.568   7.016   2.466
14328SOL     OW44880   4.666   1.343   3.179
14328SOL    HW144881   4.615   1.421   3.201
14328SOL    HW244882   4.620   1.305   3.104
14329SOL     OW44883   2.427   6.410  12.224
14329SOL    HW144884   2.424   6.502  12.253
14329SOL    HW244885   2.455   6.415  12.133
14330SOL     OW44886  12.853   7.082   9.126
14330SOL    HW144887  12.925   7.030   9.163
14330SOL    HW244888  12.774   7.032   9.147
14331SOL     OW44889   1.592   6.116   8.000
14331SOL    HW144890   1.568   6.085   8.087
14331SOL    HW244891   1.686   6.134   8.006
14332SOL     OW44892   0.776  13.899   0.788
14332SOL    HW144893   0.695  13.891   0.737
14332SOL    HW244894   0.836  13.836   0.748
14333SOL     OW44895   1.583  12.840   4.759
14333SOL    HW144896   1.550  12.793   4.835
14333SOL    HW244897   1.654  12.785   4.725
14334SOL     OW44898  14.863  13.625  11.548
14334SOL    HW144899  14.799  13.651  11.482
14334SOL    HW244900  14.815  13.631  11.631
14335SOL     OW44901   9.148   0.256  11.666
14335SOL    HW144902   9.131   0.351  11.669
14335SOL    HW244903   9.135   0.232  11.574
14336SOL     OW44904   2.975   7.191  11.320
14336SOL    HW144905   2.903   7.250  11.298
14336SOL    HW244906   3.050   7.249  11.336
14337SOL     OW44907  13.381   7.777   1.276
14337SOL    HW144908  13.421   7.753   1.360
14337SOL    HW244909  13.417   7.863   1.256
14338SOL     OW44910  11.189   1.390  14.737
14338SOL    HW144911  11.142   1.334  14.799
14338SOL    HW244912  11.137   1.385  14.657
14339SOL     OW44913  12.444   3.948   9.431
14339SOL    HW144914  12.534   3.963   9.461
14339SOL    HW244915  12.431   4.012   9.362
14340SOL     OW44916   9.302   8.221   4.396
14340SOL    HW144917   9.391   8.240   4.369
14340SOL    HW244918   9.271   8.302   4.437
14341SOL     OW44919   6.536  11.404   8.291
14341SOL    HW144920   6.586  11.420   8.372
14341SOL    HW244921   6.596  11.355   8.235
14342SOL     OW44922   2.208  13.627  10.767
14342SOL    HW144923   2.118  13.633  10.735
14342SOL    HW244924   2.238  13.718  10.771
14343SOL     OW44925   7.233   7.832   3.907
14343SOL    HW144926   7.188   7.906   3.948
14343SOL    HW244927   7.306   7.871   3.860
14344SOL     OW44928  10.043   6.901  12.307
14344SOL    HW144929  10.078   6.812  12.297
14344SOL    HW244930  10.047   6.938  12.218
14345SOL     OW44931  13.106   0.605   1.694
14345SOL    HW144932  13.079   0.541   1.760
14345SOL    HW244933  13.034   0.669   1.692
14346SOL     OW44934   3.613   3.348   9.574
14346SOL    HW144935   3.599   3.434   9.613
14346SOL    HW244936   3.668   3.301   9.638
14347SOL     OW44937   7.180   3.308  13.705
14347SOL    HW144938   7.163   3.224  13.662
14347SOL    HW244939   7.271   3.328  13.683
14348SOL     OW44940   0.408  14.382   7.190
14348SOL    HW144941   0.428  14.291   7.168
14348SOL    HW244942   0.375  14.379   7.279
14349SOL     OW44943  11.348  13.700  10.459
14349SOL    HW144944  11.417  13.665  10.403
14349SOL    HW244945  11.282  13.630  10.462
14350SOL     OW44946   3.544  10.599   7.221
14350SOL    HW144947   3.492  10.621   7.299
14350SOL    HW244948   3.497  10.640   7.149
14351SOL     OW44949  13.355   3.850   4.812
14351SOL    HW144950  13.267   3.849   4.850
14351SOL    HW244951  13.404   3.786   4.863
14352SOL     OW44952   2.342   6.895  13.101
14352SOL    HW144953   2.358   6.893  13.007
14352SOL    HW244954   2.286   6.972  13.114
14353SOL     OW44955   4.752   2.948   1.508
14353SOL    HW144956   4.809   2.929   1.583
14353SOL    HW244957   4.710   2.864   1.488
14354SOL     OW44958   0.175  10.492  11.298
14354SOL    HW144959   0.153  10.431  11.228
14354SOL    HW244960   0.185  10.577  11.255
14355SOL     OW44961   3.162  10.516  12.167
14355SOL    HW144962   3.213  10.436  12.182
14355SOL    HW244963   3.108  10.496  12.091
14356SOL     OW44964   0.651  10.070   0.077
14356SOL    HW144965   0.572  10.100   0.124
14356SOL    HW244966   0.654  10.125  14.881
14357SOL     OW44967   5.416  14.277   0.678
14357SOL    HW144968   5.489  14.218   0.697
14357SOL    HW244969   5.442  14.360   0.718
14358SOL     OW44970   3.251  13.323   7.816
14358SOL    HW144971   3.296  13.258   7.762
14358SOL    HW244972   3.254  13.287   7.904
14359SOL     OW44973   0.093  14.819  10.514
14359SOL    HW144974  14.882  14.835  10.532
14359SOL    HW244975   0.103  14.839  10.421
14360SOL     OW44976   3.571   0.233   3.863
14360SOL    HW144977   3.574   0.300   3.795
14360SOL    HW244978   3.578   0.150   3.815
14361SOL     OW44979   5.299   5.128  14.026
14361SOL    HW144980   5.337   5.116  14.113
14361SOL    HW244981   5.372   5.112  13.966
14362SOL     OW44982   5.650   3.642  11.919
14362SOL    HW144983   5.717   3.603  11.975
14362SOL    HW244984   5.678   3.733  11.908
14363SOL     OW44985  14.662  12.666   4.502
14363SOL    HW144986  14.711  12.741   4.469
14363SOL    HW244987  14.728  12.598   4.516
14364SOL     OW44988   0.346   9.183   5.617
14364SOL    HW144989   0.380   9.162   5.530
14364SOL    HW244990   0.252   9.197   5.603
14365SOL     OW44991  11.631  14.153   6.897
14365SOL    HW144992  11.598  14.241   6.875
14365SOL    HW244993  11.564  14.116   6.955
14366SOL     OW44994   6.292   0.558   3.603
14366SOL    HW144995   6.211   0.515   3.631
14366SOL    HW244996   6.361   0.497   3.630
14367SOL     OW44997  11.705   7.620  13.217
14367SOL    HW144998  11.657   7.698  13.186
14367SOL    HW244999  11.636   7.560  13.247
14368SOL     OW45000   7.210   7.583   6.770
14368SOL    HW145001   7.264   7.551   6.698
14368SOL    HW245002   7.269   7.638   6.822
14369SOL     OW45003   7.728   3.723  13.554
14369SOL    HW145004   7.715   3.737  13.460
14369SOL    HW245005   7.712   3.808  13.593
14370SOL     OW45006  11.314   8.884   0.037
14370SOL    HW145007  11.252   8.890   0.110
14370SOL    HW245008  11.394   8.849   0.076
14371SOL     OW45009  12.596  13.557  11.293
14371SOL    HW145010  12.690  13.539  11.288
14371SOL    HW245011  12.560  13.484  11.344
14372SOL     OW45012   5.855   7.341   1.476
14372SOL    HW145013   5.890   7.270   1.529
14372SOL    HW245014   5.783   7.377   1.529
14373SOL     OW45015   3.110   8.159   7.160
14373SOL    HW145016   3.073   8.246   7.177
14373SOL    HW245017   3.037   8.108   7.126
14374SOL     OW45018   3.321   9.367  11.835
14374SOL    HW145019   3.305   9.448  11.786
14374SOL    HW245020   3.262   9.371  11.910
14375SOL     OW45021   0.144   2.448   9.165
14375SOL    HW145022   0.074   2.508   9.192
14375SOL    HW245023   0.130   2.370   9.219
14376SOL     OW45024  13.725   1.750   8.482
14376SOL    HW145025  13.659   1.722   8.418
14376SOL    HW245026  13.750   1.669   8.527
14377SOL     OW45027   6.326  12.051  14.350
14377SOL    HW145028   6.304  12.066  14.442
14377SOL    HW245029   6.260  11.988  14.320
14378SOL     OW45030  13.138   0.527  11.418
14378SOL    HW145031  13.114   0.619  11.430
14378SOL    HW245032  13.197   0.528  11.342
14379SOL     OW45033   6.274  10.766   5.194
14379SOL    HW145034   6.234  10.692   5.239
14379SOL    HW245035   6.308  10.729   5.113
14380SOL     OW45036   1.339   7.246   1.222
14380SOL    HW145037   1.249   7.275   1.210
14380SOL    HW245038   1.388   7.325   1.242
14381SOL     OW45039  10.070   0.426   9.880
14381SOL    HW145040  10.082   0.479   9.802
14381SOL    HW245041  10.113   0.476   9.950
14382SOL     OW45042  13.878   0.206  12.247
14382SOL    HW145043  13.882   0.300  12.263
14382SOL    HW245044  13.959   0.186  12.200
14383SOL     OW45045   2.722   5.964  10.407
14383SOL    HW145046   2.635   5.994  10.433
14383SOL    HW245047   2.706   5.894  10.344
14384SOL     OW45048  14.639   6.158  12.167
14384SOL    HW145049  14.734   6.145  12.171
14384SOL    HW245050  14.625   6.245  12.205
14385SOL     OW45051   1.729   4.669   0.068
14385SOL    HW145052   1.765   4.757   0.068
14385SOL    HW245053   1.737   4.639  14.860
14386SOL     OW45054  14.862   6.915   1.607
14386SOL    HW145055  14.826   6.886   1.523
14386SOL    HW245056   0.069   6.942   1.588
14387SOL     OW45057  13.483   0.256  11.191
14387SOL    HW145058  13.408   0.291  11.240
14387SOL    HW245059  13.514   0.182  11.243
14388SOL     OW45060  10.905   8.608   6.893
14388SOL    HW145061  10.948   8.546   6.953
14388SOL    HW245062  10.918   8.694   6.934
14389SOL     OW45063  12.573   5.098   3.565
14389SOL    HW145064  12.640   5.132   3.624
14389SOL    HW245065  12.619   5.078   3.484
14390SOL     OW45066  12.393  14.449   7.434
14390SOL    HW145067  12.314  14.418   7.389
14390SOL    HW245068  12.464  14.430   7.373
14391SOL     OW45069   7.883   4.795  10.323
14391SOL    HW145070   7.930   4.841  10.394
14391SOL    HW245071   7.859   4.711  10.361
14392SOL     OW45072  14.353  11.579  10.551
14392SOL    HW145073  14.429  11.596  10.607
14392SOL    HW245074  14.327  11.666  10.519
14393SOL     OW45075  13.324   0.138   9.478
14393SOL    HW145076  13.415   0.154   9.453
14393SOL    HW245077  13.315   0.043   9.480
14394SOL     OW45078   2.979  11.681  13.117
14394SOL    HW145079   2.886  11.703  13.111
14394SOL    HW245080   2.997  11.634  13.036
14395SOL     OW45081   3.633   5.677   8.831
14395SOL    HW145082   3.557   5.636   8.791
14395SOL    HW245083   3.660   5.618   8.901
14396SOL     OW45084   0.704  11.670   0.154
14396SOL    HW145085   0.753  11.643   0.076
14396SOL    HW245086   0.767  11.720   0.206
14397SOL     OW45087   2.891   9.823  10.997
14397SOL    HW145088   2.880   9.889  11.066
14397SOL    HW245089   2.805   9.783  10.988
14398SOL     OW45090  13.619  14.273   5.616
14398SOL    HW145091  13.664  14.196   5.651
14398SOL    HW245092  13.537  14.277   5.664
14399SOL     OW45093   9.178   2.926   2.130
14399SOL    HW145094   9.147   2.939   2.219
14399SOL    HW245095   9.206   3.014   2.102
14400SOL     OW45096   9.818  11.500   6.748
14400SOL    HW145097   9.754  11.474   6.815
14400SOL    HW245098   9.887  11.434   6.755
14401SOL     OW45099   0.631   9.998   9.964
14401SOL    HW145100   0.654  10.030  10.051
14401SOL    HW245101   0.598   9.909   9.978
14402SOL     OW45102   0.878   5.902   6.520
14402SOL    HW145103   0.788   5.935   6.519
14402SOL    HW245104   0.868   5.807   6.521
14403SOL     OW45105   1.304   0.526   8.742
14403SOL    HW145106   1.325   0.440   8.780
14403SOL    HW245107   1.352   0.528   8.659
14404SOL     OW45108  13.225  14.074  10.322
14404SOL    HW145109  13.139  14.097  10.357
14404SOL    HW245110  13.287  14.106  10.387
14405SOL     OW45111  10.169   5.293  14.704
14405SOL    HW145112  10.254   5.311  14.664
14405SOL    HW245113  10.188   5.277  14.796
14406SOL     OW45114   1.829  14.125   6.398
14406SOL    HW145115   1.907  14.173   6.425
14406SOL    HW245116   1.774  14.191   6.355
14407SOL     OW45117   7.073  13.766   6.755
14407SOL    HW145118   7.102  13.696   6.814
14407SOL    HW245119   7.029  13.829   6.812
14408SOL     OW45120   1.480   1.667   6.889
14408SOL    HW145121   1.478   1.691   6.796
14408SOL    HW245122   1.394   1.692   6.923
14409SOL     OW45123   2.135  11.058   1.026
14409SOL    HW145124   2.184  10.992   1.075
14409SOL    HW245125   2.203  11.114   0.987
14410SOL     OW45126  13.004  12.212   5.102
14410SOL    HW145127  13.070  12.275   5.072
14410SOL    HW245128  12.979  12.242   5.189
14411SOL     OW45129   0.787  10.141  12.545
14411SOL    HW145130   0.737  10.060  12.545
14411SOL    HW245131   0.864  10.123  12.492
14412SOL     OW45132  10.357  11.490   5.631
14412SOL    HW145133  10.423  11.443   5.682
14412SOL    HW245134  10.368  11.457   5.542
14413SOL     OW45135   9.403   2.467   1.236
14413SOL    HW145136   9.474   2.443   1.176
14413SOL    HW245137   9.419   2.413   1.314
14414SOL     OW45138   3.707  13.191   7.993
14414SOL    HW145139   3.774  13.161   8.055
14414SOL    HW245140   3.730  13.283   7.976
14415SOL     OW45141   0.672   4.519  10.663
14415SOL    HW145142   0.760   4.517  10.700
14415SOL    HW245143   0.633   4.435  10.689
14416SOL     OW45144   1.699  12.589   7.805
14416SOL    HW145145   1.728  12.639   7.881
14416SOL    HW245146   1.708  12.650   7.731
14417SOL     OW45147   1.343   8.141   5.860
14417SOL    HW145148   1.253   8.161   5.886
14417SOL    HW245149   1.396   8.165   5.936
14418SOL     OW45150   3.983  11.653   0.540
14418SOL    HW145151   4.032  11.731   0.566
14418SOL    HW245152   4.015  11.632   0.453
14419SOL     OW45153   2.950   5.975  12.325
14419SOL    HW145154   3.043   5.961  12.306
14419SOL    HW245155   2.950   6.044  12.392
14420SOL     OW45156  12.108   4.164  10.924
14420SOL    HW145157  12.170   4.092  10.909
14420SOL    HW245158  12.044   4.129  10.985
14421SOL     OW45159   8.902   7.782  14.363
14421SOL    HW145160   8.808   7.775  14.382
14421SOL    HW245161   8.906   7.824  14.277
14422SOL     OW45162   6.803   2.228   3.570
14422SOL    HW145163   6.711   2.236   3.593
14422SOL    HW245164   6.813   2.283   3.492
14423SOL     OW45165  14.072   1.475   4.080
14423SOL    HW145166  14.057   1.555   4.029
14423SOL    HW245167  14.147   1.433   4.036
14424SOL     OW45168   9.716   3.840  12.808
14424SOL    HW145169   9.689   3.927  12.778
14424SOL    HW245170   9.799   3.855  12.854
14425SOL     OW45171  14.462  10.125  13.880
14425SOL    HW145172  14.494  10.074  13.955
14425SOL    HW245173  14.531  10.118  13.815
14426SOL     OW45174   3.649  12.916   8.711
14426SOL    HW145175   3.684  12.946   8.627
14426SOL    HW245176   3.700  12.837   8.732
14427SOL     OW45177   7.194   7.997   8.363
14427SOL    HW145178   7.196   8.092   8.351
14427SOL    HW245179   7.116   7.969   8.315
14428SOL     OW45180   5.158   1.646  13.955
14428SOL    HW145181   5.138   1.608  14.040
14428SOL    HW245182   5.240   1.694  13.968
14429SOL     OW45183  14.600  13.045   8.577
14429SOL    HW145184  14.660  13.073   8.647
14429SOL    HW245185  14.617  12.951   8.569
14430SOL     OW45186   2.074  10.160   1.333
14430SOL    HW145187   2.113  10.219   1.397
14430SOL    HW245188   1.982  10.151   1.360
14431SOL     OW45189   6.013   8.698   8.801
14431SOL    HW145190   6.029   8.741   8.717
14431SOL    HW245191   5.999   8.770   8.863
14432SOL     OW45192   9.635   5.455  10.227
14432SOL    HW145193   9.673   5.427  10.144
14432SOL    HW245194   9.637   5.377  10.283
14433SOL     OW45195   5.265   2.065   1.450
14433SOL    HW145196   5.227   2.130   1.510
14433SOL    HW245197   5.343   2.107   1.414
14434SOL     OW45198   4.026   2.724   9.596
14434SOL    HW145199   3.948   2.720   9.541
14434SOL    HW245200   4.067   2.808   9.574
14435SOL     OW45201   2.130  14.028   4.585
14435SOL    HW145202   2.206  14.034   4.643
14435SOL    HW245203   2.133  13.938   4.551
14436SOL     OW45204   1.638   7.113   7.399
14436SOL    HW145205   1.587   7.109   7.479
14436SOL    HW245206   1.728   7.099   7.427
14437SOL     OW45207   1.493   4.858   2.935
14437SOL    HW145208   1.426   4.797   2.903
14437SOL    HW245209   1.469   4.943   2.898
14438SOL     OW45210   8.139   0.086   8.457
14438SOL    HW145211   8.177  14.880   8.457
14438SOL    HW245212   8.068   0.081   8.394
14439SOL     OW45213   7.150   0.642  12.477
14439SOL    HW145214   7.105   0.611  12.555
14439SOL    HW245215   7.234   0.674  12.509
14440SOL     OW45216  13.326  11.260  13.718
14440SOL    HW145217  13.262  11.199  13.754
14440SOL    HW245218  13.411  11.220  13.737
14441SOL     OW45219   5.217   1.695  13.424
14441SOL    HW145220   5.189   1.614  13.383
14441SOL    HW245221   5.136   1.734  13.457
14442SOL     OW45222  10.472   5.821   1.447
14442SOL    HW145223  10.421   5.812   1.367
14442SOL    HW245224  10.411   5.857   1.511
14443SOL     OW45225  13.765   0.600  10.516
14443SOL    HW145226  13.783   0.580  10.608
14443SOL    HW245227  13.808   0.530  10.467
14444SOL     OW45228   4.344   5.986   8.169
14444SOL    HW145229   4.300   6.008   8.251
14444SOL    HW245230   4.401   5.913   8.190
14445SOL     OW45231   2.955   2.266   5.542
14445SOL    HW145232   2.913   2.205   5.481
14445SOL    HW245233   3.024   2.215   5.583
14446SOL     OW45234   7.664   6.916   6.002
14446SOL    HW145235   7.674   6.849   6.071
14446SOL    HW245236   7.754   6.937   5.976
14447SOL     OW45237  14.538   4.253   6.942
14447SOL    HW145238  14.588   4.317   6.993
14447SOL    HW245239  14.486   4.306   6.881
14448SOL     OW45240  14.466   2.678   4.035
14448SOL    HW145241  14.459   2.709   3.944
14448SOL    HW245242  14.375   2.659   4.060
14449SOL     OW45243   7.911   2.063   3.012
14449SOL    HW145244   7.989   2.064   2.958
14449SOL    HW245245   7.944   2.048   3.101
14450SOL     OW45246   7.177   9.570   7.726
14450SOL    HW145247   7.134   9.508   7.785
14450SOL    HW245248   7.135   9.556   7.641
14451SOL     OW45249  13.548  10.235   3.423
14451SOL    HW145250  13.526  10.238   3.516
14451SOL    HW245251  13.488  10.170   3.387
14452SOL     OW45252   5.708  13.576   5.220
14452SOL    HW145253   5.777  13.569   5.285
14452SOL    HW245254   5.732  13.514   5.152
14453SOL     OW45255   8.664   3.533   0.074
14453SOL    HW145256   8.736   3.471   0.068
14453SOL    HW245257   8.601   3.505   0.007
14454SOL     OW45258  13.515   2.483  10.458
14454SOL    HW145259  13.508   2.577  10.442
14454SOL    HW245260  13.463   2.469  10.537
14455SOL     OW45261   2.009   0.093   5.939
14455SOL    HW145262   1.994  14.882   5.928
14455SOL    HW245263   1.976   0.113   6.026
14456SOL     OW45264   7.410   4.879   6.442
14456SOL    HW145265   7.455   4.889   6.526
14456SOL    HW245266   7.328   4.835   6.464
14457SOL     OW45267   2.908   0.211  12.462
14457SOL    HW145268   2.953   0.238  12.381
14457SOL    HW245269   2.889   0.293  12.507
14458SOL     OW45270   5.464   7.342   8.380
14458SOL    HW145271   5.465   7.412   8.314
14458SOL    HW245272   5.547   7.351   8.426
14459SOL     OW45273   7.967   5.023   6.711
14459SOL    HW145274   8.055   5.045   6.741
14459SOL    HW245275   7.939   4.952   6.769
14460SOL     OW45276   0.229   2.170  14.747
14460SOL    HW145277   0.299   2.146  14.807
14460SOL    HW245278   0.273   2.184  14.663
14461SOL     OW45279   2.759   6.896   7.533
14461SOL    HW145280   2.672   6.910   7.571
14461SOL    HW245281   2.743   6.838   7.459
14462SOL     OW45282  10.280  12.720  13.648
14462SOL    HW145283  10.310  12.791  13.705
14462SOL    HW245284  10.190  12.704  13.675
14463SOL     OW45285  13.339   0.079   7.704
14463SOL    HW145286  13.340   0.103   7.612
14463SOL    HW245287  13.414   0.021   7.715
14464SOL     OW45288  12.485   9.678  13.132
14464SOL    HW145289  12.575   9.645  13.128
14464SOL    HW245290  12.454   9.676  13.042
14465SOL     OW45291   8.899  13.288   6.788
14465SOL    HW145292   8.975  13.311   6.842
14465SOL    HW245293   8.847  13.231   6.844
14466SOL     OW45294  12.571   0.330   1.620
14466SOL    HW145295  12.546   0.404   1.564
14466SOL    HW245296  12.514   0.336   1.696
14467SOL     OW45297   1.842  14.621   9.870
14467SOL    HW145298   1.837  14.529   9.895
14467SOL    HW245299   1.751  14.648   9.859
14468SOL     OW45300   3.383  13.450  14.317
14468SOL    HW145301   3.298  13.439  14.274
14468SOL    HW245302   3.364  13.503  14.394
14469SOL     OW45303   1.344   5.929  13.047
14469SOL    HW145304   1.406   5.895  12.983
14469SOL    HW245305   1.386   5.915  13.132
14470SOL     OW45306  11.140  12.615   9.756
14470SOL    HW145307  11.049  12.589   9.772
14470SOL    HW245308  11.139  12.711   9.764
14471SOL     OW45309   9.430   8.304  10.361
14471SOL    HW145310   9.343   8.317  10.324
14471SOL    HW245311   9.429   8.355  10.443
14472SOL     OW45312   2.356   3.137   3.464
14472SOL    HW145313   2.300   3.204   3.502
14472SOL    HW245314   2.421   3.118   3.531
14473SOL     OW45315  13.497   4.585  10.661
14473SOL    HW145316  13.491   4.663  10.607
14473SOL    HW245317  13.587   4.586  10.695
14474SOL     OW45318   7.324   8.423  10.375
14474SOL    HW145319   7.292   8.394  10.290
14474SOL    HW245320   7.253   8.477  10.410
14475SOL     OW45321   4.454  10.253  12.469
14475SOL    HW145322   4.387  10.212  12.524
14475SOL    HW245323   4.484  10.328  12.520
14476SOL     OW45324  11.756   1.619   5.278
14476SOL    HW145325  11.732   1.557   5.348
14476SOL    HW245326  11.810   1.568   5.219
14477SOL     OW45327  11.121   0.898  11.913
14477SOL    HW145328  11.101   0.809  11.886
14477SOL    HW245329  11.169   0.936  11.839
14478SOL     OW45330   9.534  12.419   3.483
14478SOL    HW145331   9.541  12.401   3.389
14478SOL    HW245332   9.603  12.365   3.523
14479SOL     OW45333   4.226  12.551   9.390
14479SOL    HW145334   4.167  12.622   9.416
14479SOL    HW245335   4.184  12.472   9.424
14480SOL     OW45336  12.432   4.599   7.808
14480SOL    HW145337  12.487   4.634   7.878
14480SOL    HW245338  12.471   4.514   7.787
14481SOL     OW45339  10.691   3.311   7.541
14481SOL    HW145340  10.777   3.306   7.583
14481SOL    HW245341  10.631   3.330   7.613
14482SOL     OW45342  13.709   6.323  10.757
14482SOL    HW145343  13.709   6.354  10.848
14482SOL    HW245344  13.782   6.369  10.716
14483SOL     OW45345   6.154   1.552   6.859
14483SOL    HW145346   6.068   1.539   6.899
14483SOL    HW245347   6.163   1.647   6.852
14484SOL     OW45348   1.590   5.346  13.406
14484SOL    HW145349   1.610   5.428  13.450
14484SOL    HW245350   1.551   5.372  13.323
14485SOL     OW45351   4.872   3.727   7.879
14485SOL    HW145352   4.893   3.819   7.890
14485SOL    HW245353   4.818   3.724   7.800
14486SOL     OW45354   0.276   8.105   9.151
14486SOL    HW145355   0.262   8.164   9.077
14486SOL    HW245356   0.365   8.123   9.180
14487SOL     OW45357   3.418   4.745   4.955
14487SOL    HW145358   3.458   4.809   4.896
14487SOL    HW245359   3.493   4.700   4.995
14488SOL     OW45360   8.157   5.706   1.894
14488SOL    HW145361   8.080   5.662   1.929
14488SOL    HW245362   8.217   5.635   1.870
14489SOL     OW45363   6.420   7.446   7.073
14489SOL    HW145364   6.428   7.536   7.106
14489SOL    HW245365   6.484   7.396   7.123
14490SOL     OW45366   3.996   6.201   1.990
14490SOL    HW145367   3.971   6.249   1.911
14490SOL    HW245368   4.024   6.269   2.052
14491SOL     OW45369   4.876   5.314   0.480
14491SOL    HW145370   4.804   5.262   0.518
14491SOL    HW245371   4.935   5.330   0.554
14492SOL     OW45372  11.900   7.589   2.953
14492SOL    HW145373  11.869   7.500   2.968
14492SOL    HW245374  11.901   7.630   3.039
14493SOL     OW45375   6.354   9.028   4.318
14493SOL    HW145376   6.386   9.091   4.383
14493SOL    HW245377   6.433   8.992   4.277
14494SOL     OW45378   6.293   3.779   1.239
14494SOL    HW145379   6.199   3.792   1.233
14494SOL    HW245380   6.326   3.860   1.279
14495SOL     OW45381   3.548   8.291   5.591
14495SOL    HW145382   3.572   8.342   5.513
14495SOL    HW245383   3.631   8.264   5.630
14496SOL     OW45384   6.665   3.483   8.841
14496SOL    HW145385   6.751   3.520   8.860
14496SOL    HW245386   6.624   3.547   8.782
14497SOL     OW45387   9.320   1.099   9.164
14497SOL    HW145388   9.345   1.147   9.243
14497SOL    HW245389   9.284   1.016   9.197
14498SOL     OW45390  14.192   2.325   8.595
14498SOL    HW145391  14.214   2.255   8.656
14498SOL    HW245392  14.097   2.331   8.598
14499SOL     OW45393  12.008   3.153  10.144
14499SOL    HW145394  11.951   3.112  10.079
14499SOL    HW245395  12.026   3.240  10.109
14500SOL     OW45396   5.639   7.007   7.705
14500SOL    HW145397   5.693   7.082   7.728
14500SOL    HW245398   5.613   7.023   7.614
14501SOL     OW45399  11.579  11.650  13.428
14501SOL    HW145400  11.500  11.684  13.387
14501SOL    HW245401  11.626  11.607  13.357
14502SOL     OW45402   3.130   7.995  11.365
14502SOL    HW145403   3.208   8.049  11.352
14502SOL    HW245404   3.155   7.908  11.332
14503SOL     OW45405  14.082  12.724   1.018
14503SOL    HW145406  14.077  12.788   1.089
14503SOL    HW245407  14.163  12.676   1.034
14504SOL     OW45408   2.412  13.277   2.264
14504SOL    HW145409   2.347  13.215   2.228
14504SOL    HW245410   2.410  13.261   2.358
14505SOL     OW45411  13.915  10.652   3.630
14505SOL    HW145412  13.894  10.740   3.597
14505SOL    HW245413  13.899  10.658   3.725
14506SOL     OW45414   4.205   5.913  11.194
14506SOL    HW145415   4.298   5.893  11.199
14506SOL    HW245416   4.191   5.946  11.105
14507SOL     OW45417   2.313  12.188   4.363
14507SOL    HW145418   2.265  12.258   4.318
14507SOL    HW245419   2.401  12.191   4.325
14508SOL     OW45420   4.478   8.676   2.675
14508SOL    HW145421   4.432   8.757   2.655
14508SOL    HW245422   4.446   8.652   2.762
14509SOL     OW45423   2.606   6.884  13.712
14509SOL    HW145424   2.624   6.852  13.800
14509SOL    HW245425   2.611   6.805  13.657
14510SOL     OW45426  14.280   3.406   7.920
14510SOL    HW145427  14.273   3.412   8.015
14510SOL    HW245428  14.237   3.324   7.897
14511SOL     OW45429   1.636   9.805   2.448
14511SOL    HW145430   1.622   9.838   2.537
14511SOL    HW245431   1.559   9.834   2.399
14512SOL     OW45432   0.361   7.607  10.527
14512SOL    HW145433   0.295   7.657  10.478
14512SOL    HW245434   0.310   7.556  10.590
14513SOL     OW45435   8.856  10.287   6.451
14513SOL    HW145436   8.765  10.271   6.474
14513SOL    HW245437   8.899  10.201   6.460
14514SOL     OW45438   0.845  10.891   1.331
14514SOL    HW145439   0.856  10.968   1.387
14514SOL    HW245440   0.933  10.855   1.320
14515SOL     OW45441   5.273   6.816   6.843
14515SOL    HW145442   5.254   6.839   6.934
14515SOL    HW245443   5.340   6.749   6.848
14516SOL     OW45444   2.226   8.867   0.336
14516SOL    HW145445   2.152   8.811   0.358
14516SOL    HW245446   2.186   8.950   0.308
14517SOL     OW45447  14.130   6.946   7.160
14517SOL    HW145448  14.066   6.911   7.223
14517SOL    HW245449  14.145   6.875   7.098
14518SOL     OW45450   3.004   4.023   3.372
14518SOL    HW145451   2.931   4.005   3.312
14518SOL    HW245452   3.072   4.061   3.316
14519SOL     OW45453   9.301  12.752  14.557
14519SOL    HW145454   9.365  12.731  14.625
14519SOL    HW245455   9.275  12.667  14.521
14520SOL     OW45456   6.823   8.337   0.598
14520SOL    HW145457   6.878   8.264   0.627
14520SOL    HW245458   6.734   8.304   0.607
14521SOL     OW45459   4.102   9.549   9.250
14521SOL    HW145460   4.038   9.617   9.269
14521SOL    HW245461   4.118   9.507   9.335
14522SOL     OW45462   4.852   6.116  13.737
14522SOL    HW145463   4.789   6.059  13.781
14522SOL    HW245464   4.935   6.068  13.745
14523SOL     OW45465  10.027  10.034  11.891
14523SOL    HW145466   9.957  10.065  11.949
14523SOL    HW245467  10.005  10.071  11.805
14524SOL     OW45468  13.013   6.943  12.732
14524SOL    HW145469  13.009   6.955  12.638
14524SOL    HW245470  12.946   7.002  12.767
14525SOL     OW45471   0.446   1.044  14.007
14525SOL    HW145472   0.459   1.090  13.924
14525SOL    HW245473   0.508   1.086  14.068
14526SOL     OW45474   3.547  14.284  10.707
14526SOL    HW145475   3.614  14.349  10.684
14526SOL    HW245476   3.494  14.326  10.774
14527SOL     OW45477   6.552  14.443   7.495
14527SOL    HW145478   6.483  14.467   7.433
14527SOL    HW245479   6.623  14.409   7.441
14528SOL     OW45480   2.430   5.534   6.965
14528SOL    HW145481   2.372   5.501   7.034
14528SOL    HW245482   2.502   5.470   6.962
14529SOL     OW45483   1.312   9.803   6.251
14529SOL    HW145484   1.247   9.761   6.196
14529SOL    HW245485   1.325   9.743   6.325
14530SOL     OW45486   3.537  14.391   2.813
14530SOL    HW145487   3.484  14.459   2.771
14530SOL    HW245488   3.625  14.404   2.776
14531SOL     OW45489   0.455   8.517  11.843
14531SOL    HW145490   0.461   8.464  11.922
14531SOL    HW245491   0.450   8.607  11.876
14532SOL     OW45492  10.008   6.910   2.136
14532SOL    HW145493  10.091   6.924   2.181
14532SOL    HW245494  10.016   6.960   2.055
14533SOL     OW45495   6.972   5.427  14.548
14533SOL    HW145496   6.976   5.375  14.628
14533SOL    HW245497   7.060   5.462  14.537
14534SOL     OW45498  13.028  14.350   7.904
14534SOL    HW145499  13.053  14.287   7.971
14534SOL    HW245500  13.096  14.342   7.837
14535SOL     OW45501   7.514   4.042   1.366
14535SOL    HW145502   7.494   3.983   1.439
14535SOL    HW245503   7.433   4.091   1.352
14536SOL     OW45504   2.555   6.983   5.515
14536SOL    HW145505   2.518   6.896   5.499
14536SOL    HW245506   2.644   6.967   5.545
14537SOL     OW45507   7.958  10.509  11.696
14537SOL    HW145508   7.868  10.478  11.704
14537SOL    HW245509   8.007  10.457  11.760
14538SOL     OW45510   9.348  12.847   6.544
14538SOL    HW145511   9.432  12.806   6.523
14538SOL    HW245512   9.343  12.844   6.639
14539SOL     OW45513  12.887   5.056  11.854
14539SOL    HW145514  12.852   5.126  11.799
14539SOL    HW245515  12.901   5.097  11.939
14540SOL     OW45516  12.533   6.602   7.541
14540SOL    HW145517  12.465   6.552   7.586
14540SOL    HW245518  12.614   6.576   7.586
14541SOL     OW45519  11.332  10.872   9.042
14541SOL    HW145520  11.263  10.825   9.089
14541SOL    HW245521  11.369  10.807   8.982
14542SOL     OW45522  14.859   1.494   6.926
14542SOL    HW145523   0.054   1.455   6.885
14542SOL    HW245524  14.797   1.422   6.935
14543SOL     OW45525  11.315  12.132  10.821
14543SOL    HW145526  11.359  12.061  10.773
14543SOL    HW245527  11.383  12.165  10.881
14544SOL     OW45528   6.906   4.956  12.114
14544SOL    HW145529   6.940   4.901  12.043
14544SOL    HW245530   6.916   4.902  12.192
14545SOL     OW45531   8.252   2.304   2.179
14545SOL    HW145532   8.252   2.273   2.088
14545SOL    HW245533   8.334   2.352   2.187
14546SOL     OW45534   0.232  11.661   1.355
14546SOL    HW145535   0.291  11.589   1.332
14546SOL    HW245536   0.146  11.633   1.323
14547SOL     OW45537   9.677  12.496   7.038
14547SOL    HW145538   9.663  12.437   6.964
14547SOL    HW245539   9.590  12.529   7.060
14548SOL     OW45540   6.380   0.501   9.537
14548SOL    HW145541   6.416   0.546   9.461
14548SOL    HW245542   6.432   0.532   9.611
14549SOL     OW45543  10.864   9.317   8.205
14549SOL    HW145544  10.807   9.341   8.132
14549SOL    HW245545  10.881   9.399   8.251
14550SOL     OW45546   7.328  14.531   4.707
14550SOL    HW145547   7.423  14.523   4.711
14550SOL    HW245548   7.299  14.527   4.798
14551SOL     OW45549  13.660   0.933   7.107
14551SOL    HW145550  13.722   1.003   7.127
14551SOL    HW245551  13.654   0.882   7.188
14552SOL     OW45552   0.650   9.834   7.348
14552SOL    HW145553   0.639   9.834   7.443
14552SOL    HW245554   0.645   9.926   7.323
14553SOL     OW45555   7.029  14.813   2.050
14553SOL    HW145556   7.025  14.866   2.130
14553SOL    HW245557   7.090  14.743   2.071
14554SOL     OW45558   2.838   0.344   8.165
14554SOL    HW145559   2.891   0.420   8.140
14554SOL    HW245560   2.748   0.376   8.167
14555SOL     OW45561   6.485   6.694  11.279
14555SOL    HW145562   6.435   6.774  11.266
14555SOL    HW245563   6.472   6.672  11.372
14556SOL     OW45564   5.741   0.752   4.004
14556SOL    HW145565   5.727   0.844   3.982
14556SOL    HW245566   5.826   0.750   4.047
14557SOL     OW45567   4.972   5.148   5.162
14557SOL    HW145568   4.935   5.152   5.251
14557SOL    HW245569   4.912   5.202   5.110
14558SOL     OW45570   0.927   1.660   5.654
14558SOL    HW145571   0.985   1.704   5.716
14558SOL    HW245572   0.983   1.601   5.605
14559SOL     OW45573  11.964   0.428   7.036
14559SOL    HW145574  11.997   0.391   6.954
14559SOL    HW245575  11.945   0.519   7.016
14560SOL     OW45576  11.945   9.823  12.431
14560SOL    HW145577  11.984   9.754  12.377
14560SOL    HW245578  11.851   9.817  12.414
14561SOL     OW45579   3.419   3.113   5.913
14561SOL    HW145580   3.402   3.041   5.974
14561SOL    HW245581   3.359   3.183   5.941
14562SOL     OW45582  13.602  12.276  12.080
14562SOL    HW145583  13.693  12.304  12.081
14562SOL    HW245584  13.565  12.310  12.161
14563SOL     OW45585   8.194   6.076  10.049
14563SOL    HW145586   8.122   6.139  10.051
14563SOL    HW245587   8.182   6.022  10.127
14564SOL     OW45588   5.406  10.390   3.600
14564SOL    HW145589   5.445  10.311   3.639
14564SOL    HW245590   5.427  10.383   3.507
14565SOL     OW45591   0.872   4.904   1.043
14565SOL    HW145592   0.911   4.991   1.052
14565SOL    HW245593   0.906   4.855   1.118
14566SOL     OW45594   1.871   8.720  12.140
14566SOL    HW145595   1.855   8.753  12.229
14566SOL    HW245596   1.945   8.771  12.109
14567SOL     OW45597   7.343  10.423   6.526
14567SOL    HW145598   7.310  10.442   6.614
14567SOL    HW245599   7.410  10.356   6.540
14568SOL     OW45600   3.593   4.160   6.915
14568SOL    HW145601   3.535   4.154   6.840
14568SOL    HW245602   3.542   4.205   6.982
14569SOL     OW45603   3.682   1.466   8.726
14569SOL    HW145604   3.623   1.396   8.753
14569SOL    HW245605   3.635   1.547   8.747
14570SOL     OW45606   5.131   9.539   6.685
14570SOL    HW145607   5.064   9.557   6.619
14570SOL    HW245608   5.149   9.445   6.675
14571SOL     OW45609  14.744   2.015   9.390
14571SOL    HW145610  14.708   2.012   9.301
14571SOL    HW245611  14.723   2.104   9.421
14572SOL     OW45612   5.354  11.518   2.471
14572SOL    HW145613   5.298  11.503   2.395
14572SOL    HW245614   5.338  11.609   2.495
14573SOL     OW45615   5.067   7.669   3.203
14573SOL    HW145616   5.025   7.586   3.226
14573SOL    HW245617   4.994   7.727   3.180
14574SOL     OW45618   1.854  11.381   6.114
14574SOL    HW145619   1.848  11.471   6.084
14574SOL    HW245620   1.765  11.347   6.106
14575SOL     OW45621   0.340   4.039   0.087
14575SOL    HW145622   0.407   4.005   0.148
14575SOL    HW245623   0.390   4.070   0.012
14576SOL     OW45624  12.397   2.459  12.127
14576SOL    HW145625  12.470   2.510  12.092
14576SOL    HW245626  12.322   2.485  12.074
14577SOL     OW45627   3.040   7.552   0.268
14577SOL    HW145628   2.960   7.506   0.243
14577SOL    HW245629   3.089   7.489   0.320
14578SOL     OW45630  10.879   3.812   5.749
14578SOL    HW145631  10.945   3.873   5.782
14578SOL    HW245632  10.796   3.848   5.779
14579SOL     OW45633  12.668  12.022   9.007
14579SOL    HW145634  12.575  12.003   9.004
14579SOL    HW245635  12.710  11.944   8.972
14580SOL     OW45636   5.290   1.864  13.708
14580SOL    HW145637   5.304   1.820  13.792
14580SOL    HW245638   5.205   1.906  13.716
14581SOL     OW45639  10.508   5.262   5.247
14581SOL    HW145640  10.479   5.291   5.333
14581SOL    HW245641  10.547   5.340   5.207
14582SOL     OW45642  10.868   9.535   7.673
14582SOL    HW145643  10.836   9.587   7.747
14582SOL    HW245644  10.908   9.458   7.714
14583SOL     OW45645  12.666  14.447   7.284
14583SOL    HW145646  12.753  14.487   7.286
14583SOL    HW245647  12.605  14.520   7.291
14584SOL     OW45648   9.677   4.290   9.816
14584SOL    HW145649   9.613   4.338   9.763
14584SOL    HW245650   9.756   4.344   9.813
14585SOL     OW45651   5.092   6.186   7.327
14585SOL    HW145652   5.186   6.169   7.330
14585SOL    HW245653   5.077   6.253   7.393
14586SOL     OW45654   9.866   4.990   3.347
14586SOL    HW145655   9.898   5.022   3.432
14586SOL    HW245656   9.912   4.907   3.334
14587SOL     OW45657  13.391   7.315   3.074
14587SOL    HW145658  13.355   7.361   2.998
14587SOL    HW245659  13.486   7.324   3.064
14588SOL     OW45660   1.168   7.742   3.524
14588SOL    HW145661   1.155   7.836   3.518
14588SOL    HW245662   1.152   7.709   3.436
14589SOL     OW45663  10.956   0.445   7.901
14589SOL    HW145664  10.951   0.411   7.990
14589SOL    HW245665  11.017   0.386   7.856
14590SOL     OW45666   9.999   5.725  13.062
14590SOL    HW145667   9.927   5.668  13.089
14590SOL    HW245668  10.044   5.675  12.993
14591SOL     OW45669   1.666   8.540   8.796
14591SOL    HW145670   1.752   8.500   8.808
14591SOL    HW245671   1.659   8.603   8.867
14592SOL     OW45672   3.162  14.240  11.587
14592SOL    HW145673   3.069  14.253  11.564
14592SOL    HW245674   3.193  14.176  11.524
14593SOL     OW45675   0.440  11.936   8.197
14593SOL    HW145676   0.362  11.985   8.170
14593SOL    HW245677   0.407  11.867   8.254
14594SOL     OW45678   4.625   0.066   9.639
14594SOL    HW145679   4.624  14.867   9.589
14594SOL    HW245680   4.536   0.076   9.672
14595SOL     OW45681  12.828   9.303   3.549
14595SOL    HW145682  12.844   9.371   3.614
14595SOL    HW245683  12.744   9.327   3.510
14596SOL     OW45684   7.987   3.641   0.022
14596SOL    HW145685   7.989   3.601  14.818
14596SOL    HW245686   7.908   3.695   0.022
14597SOL     OW45687   4.186  12.190  11.250
14597SOL    HW145688   4.123  12.210  11.319
14597SOL    HW245689   4.133  12.155  11.178
14598SOL     OW45690   4.212  10.458   9.951
14598SOL    HW145691   4.297  10.500   9.962
14598SOL    HW245692   4.149  10.520   9.986
14599SOL     OW45693  10.295  10.704   6.046
14599SOL    HW145694  10.376  10.667   6.081
14599SOL    HW245695  10.229  10.637   6.064
14600SOL     OW45696   0.768   2.721   0.254
14600SOL    HW145697   0.786   2.696   0.163
14600SOL    HW245698   0.852   2.754   0.286
14601SOL     OW45699   5.016   8.142  10.416
14601SOL    HW145700   5.108   8.138  10.390
14601SOL    HW245701   4.981   8.055  10.398
14602SOL     OW45702  11.427   5.267  11.953
14602SOL    HW145703  11.353   5.312  11.993
14602SOL    HW245704  11.477   5.233  12.027
14603SOL     OW45705  13.867  14.873  13.589
14603SOL    HW145706  13.896  14.792  13.546
14603SOL    HW245707  13.907  14.870  13.676
14604SOL     OW45708   7.701  11.040   1.805
14604SOL    HW145709   7.662  10.973   1.862
14604SOL    HW245710   7.735  11.106   1.865
14605SOL     OW45711   0.406   4.358   8.978
14605SOL    HW145712   0.391   4.452   8.977
14605SOL    HW245713   0.364   4.327   9.058
14606SOL     OW45714   1.879   1.672  14.384
14606SOL    HW145715   1.798   1.624  14.402
14606SOL    HW245716   1.851   1.757  14.352
14607SOL     OW45717   8.603  10.822  12.115
14607SOL    HW145718   8.516  10.851  12.088
14607SOL    HW245719   8.597  10.726  12.115
14608SOL     OW45720   3.821  12.653   5.643
14608SOL    HW145721   3.807  12.576   5.587
14608SOL    HW245722   3.914  12.673   5.633
14609SOL     OW45723   4.869   6.738   1.330
14609SOL    HW145724   4.904   6.649   1.333
14609SOL    HW245725   4.785   6.733   1.375
14610SOL     OW45726   3.946   9.247  13.080
14610SOL    HW145727   4.011   9.253  13.010
14610SOL    HW245728   3.997   9.239  13.161
14611SOL     OW45729  13.177  12.754   6.406
14611SOL    HW145730  13.271  12.750   6.386
14611SOL    HW245731  13.138  12.687   6.351
14612SOL     OW45732  10.553   2.755   4.061
14612SOL    HW145733  10.566   2.674   4.010
14612SOL    HW245734  10.459   2.769   4.060
14613SOL     OW45735   7.077  11.907   2.268
14613SOL    HW145736   7.098  11.904   2.361
14613SOL    HW245737   7.150  11.863   2.225
14614SOL     OW45738   7.950   3.457   0.223
14614SOL    HW145739   7.883   3.415   0.170
14614SOL    HW245740   7.997   3.514   0.161
14615SOL     OW45741   2.839   2.607   8.407
14615SOL    HW145742   2.827   2.524   8.361
14615SOL    HW245743   2.764   2.661   8.381
14616SOL     OW45744   8.480   6.383   1.110
14616SOL    HW145745   8.533   6.325   1.165
14616SOL    HW245746   8.401   6.400   1.161
14617SOL     OW45747   2.595  14.394   8.349
14617SOL    HW145748   2.550  14.382   8.432
14617SOL    HW245749   2.665  14.329   8.349
14618SOL     OW45750   3.731  13.388   2.970
14618SOL    HW145751   3.699  13.473   2.940
14618SOL    HW245752   3.825  13.399   2.978
14619SOL     OW45753  10.858  11.550   1.887
14619SOL    HW145754  10.952  11.529   1.885
14619SOL    HW245755  10.850  11.627   1.832
14620SOL     OW45756   2.758   9.562   2.099
14620SOL    HW145757   2.685   9.594   2.045
14620SOL    HW245758   2.767   9.470   2.075
14621SOL     OW45759   4.253   3.093   0.072
14621SOL    HW145760   4.268   3.110  14.861
14621SOL    HW245761   4.211   3.173   0.105
14622SOL     OW45762   8.610  12.661   3.809
14622SOL    HW145763   8.557  12.694   3.735
14622SOL    HW245764   8.583  12.570   3.818
14623SOL     OW45765  12.788  11.050   7.539
14623SOL    HW145766  12.836  11.032   7.459
14623SOL    HW245767  12.801  10.972   7.593
14624SOL     OW45768  10.353  13.793   3.926
14624SOL    HW145769  10.375  13.704   3.954
14624SOL    HW245770  10.408  13.809   3.849
14625SOL     OW45771   7.085   3.141  13.514
14625SOL    HW145772   7.061   3.131  13.422
14625SOL    HW245773   7.056   3.059  13.555
14626SOL     OW45774   7.140  11.030  13.857
14626SOL    HW145775   7.137  10.951  13.912
14626SOL    HW245776   7.232  11.053  13.853
14627SOL     OW45777   3.773  14.177   0.725
14627SOL    HW145778   3.856  14.130   0.721
14627SOL    HW245779   3.715  14.129   0.666
14628SOL     OW45780  14.155   7.963   8.066
14628SOL    HW145781  14.233   8.011   8.038
14628SOL    HW245782  14.188   7.878   8.094
14629SOL     OW45783   0.064   5.273  11.900
14629SOL    HW145784   0.030   5.327  11.972
14629SOL    HW245785   0.120   5.208  11.944
14630SOL     OW45786   6.826  14.017  13.959
14630SOL    HW145787   6.756  13.959  13.928
14630SOL    HW245788   6.866  14.051  13.879
14631SOL     OW45789   9.345   1.903   1.246
14631SOL    HW145790   9.311   1.935   1.162
14631SOL    HW245791   9.439   1.918   1.240
14632SOL     OW45792  12.937   0.908   9.962
14632SOL    HW145793  12.893   0.992   9.952
14632SOL    HW245794  12.938   0.893  10.057
14633SOL     OW45795  11.692  13.528   3.811
14633SOL    HW145796  11.716  13.542   3.903
14633SOL    HW245797  11.776  13.513   3.767
14634SOL     OW45798   6.377   7.018  14.633
14634SOL    HW145799   6.322   7.077  14.685
14634SOL    HW245800   6.356   6.931  14.666
14635SOL     OW45801   4.981  12.260  14.481
14635SOL    HW145802   4.913  12.254  14.414
14635SOL    HW245803   5.050  12.313  14.441
14636SOL     OW45804   3.854   5.700  12.080
14636SOL    HW145805   3.760   5.717  12.071
14636SOL    HW245806   3.880   5.661  11.997
14637SOL     OW45807   2.513  14.765   2.738
14637SOL    HW145808   2.536  14.699   2.673
14637SOL    HW245809   2.423  14.790   2.718
14638SOL     OW45810   5.641   2.321  14.161
14638SOL    HW145811   5.697   2.390  14.196
14638SOL    HW245812   5.703   2.255  14.129
14639SOL     OW45813   0.188  11.813   3.931
14639SOL    HW145814   0.169  11.818   3.837
14639SOL    HW245815   0.175  11.903   3.962
14640SOL     OW45816  14.657  14.367   5.189
14640SOL    HW145817  14.725  14.381   5.123
14640SOL    HW245818  14.700  14.314   5.257
14641SOL     OW45819   8.641   9.214  12.928
14641SOL    HW145820   8.693   9.197  12.850
14641SOL    HW245821   8.695   9.182  13.000
14642SOL     OW45822  11.492   0.702  14.610
14642SOL    HW145823  11.453   0.640  14.673
14642SOL    HW245824  11.433   0.777  14.611
14643SOL     OW45825  14.406  11.355  12.472
14643SOL    HW145826  14.406  11.377  12.379
14643SOL    HW245827  14.317  11.374  12.501
14644SOL     OW45828  13.755   5.367   8.316
14644SOL    HW145829  13.789   5.430   8.380
14644SOL    HW245830  13.808   5.382   8.238
14645SOL     OW45831   7.076  12.629   7.255
14645SOL    HW145832   7.024  12.575   7.195
14645SOL    HW245833   7.011  12.671   7.312
14646SOL     OW45834  14.065   1.836  12.712
14646SOL    HW145835  14.048   1.742  12.701
14646SOL    HW245836  14.132   1.841  12.780
14647SOL     OW45837  11.800   4.049   5.627
14647SOL    HW145838  11.857   3.973   5.614
14647SOL    HW245839  11.817   4.105   5.552
14648SOL     OW45840   4.963   4.476   3.536
14648SOL    HW145841   4.936   4.404   3.480
14648SOL    HW245842   4.990   4.545   3.475
14649SOL     OW45843   3.098   9.197  12.235
14649SOL    HW145844   3.129   9.268  12.179
14649SOL    HW245845   3.103   9.233  12.324
14650SOL     OW45846   6.953   0.880   8.881
14650SOL    HW145847   6.996   0.837   8.807
14650SOL    HW245848   6.990   0.837   8.958
14651SOL     OW45849  14.855  13.749   0.074
14651SOL    HW145850   0.060  13.717   0.051
14651SOL    HW245851  14.871  13.837   0.109
14652SOL     OW45852   7.697   6.640  12.934
14652SOL    HW145853   7.673   6.588  12.857
14652SOL    HW245854   7.699   6.576  13.006
14653SOL     OW45855  10.685  12.616   4.010
14653SOL    HW145856  10.636  12.535   4.022
14653SOL    HW245857  10.630  12.669   3.951
14654SOL     OW45858  13.645   1.474   0.840
14654SOL    HW145859  13.680   1.407   0.781
14654SOL    HW245860  13.591   1.530   0.784
14655SOL     OW45861   4.070   2.883   6.808
14655SOL    HW145862   4.092   2.789   6.810
14655SOL    HW245863   3.993   2.888   6.752
14656SOL     OW45864   3.207   5.658  12.320
14656SOL    HW145865   3.190   5.735  12.374
14656SOL    HW245866   3.213   5.585  12.382
14657SOL     OW45867   0.529   3.251  13.482
14657SOL    HW145868   0.533   3.333  13.433
14657SOL    HW245869   0.525   3.279  13.574
14658SOL     OW45870  14.426   1.816   9.885
14658SOL    HW145871  14.493   1.882   9.903
14658SOL    HW245872  14.473   1.732   9.885
14659SOL     OW45873  13.596   7.946  10.526
14659SOL    HW145874  13.588   7.964  10.432
14659SOL    HW245875  13.568   8.028  10.568
14660SOL     OW45876  14.570  14.819   5.280
14660SOL    HW145877  14.580  14.859   5.366
14660SOL    HW245878  14.649  14.766   5.269
14661SOL     OW45879  12.985  13.274   8.187
14661SOL    HW145880  12.995  13.330   8.264
14661SOL    HW245881  12.997  13.334   8.113
14662SOL     OW45882  14.019   1.152   0.957
14662SOL    HW145883  13.946   1.209   0.937
14662SOL    HW245884  14.091   1.211   0.980
14663SOL     OW45885   2.224   9.371  12.899
14663SOL    HW145886   2.146   9.425  12.886
14663SOL    HW245887   2.224   9.350  12.992
14664SOL     OW45888  14.194  10.637   7.124
14664SOL    HW145889  14.259  10.582   7.078
14664SOL    HW245890  14.247  10.693   7.181
14665SOL     OW45891   7.896  10.229   3.560
14665SOL    HW145892   7.957  10.303   3.561
14665SOL    HW245893   7.845  10.239   3.640
14666SOL     OW45894   3.408   7.014   0.613
14666SOL    HW145895   3.408   7.004   0.518
14666SOL    HW245896   3.317   6.999   0.639
14667SOL     OW45897   9.926  10.571   2.854
14667SOL    HW145898  10.017  10.583   2.827
14667SOL    HW245899   9.886  10.525   2.780
14668SOL     OW45900   5.314   4.339   9.172
14668SOL    HW145901   5.299   4.387   9.091
14668SOL    HW245902   5.407   4.354   9.192
14669SOL     OW45903   4.122  11.404   0.099
14669SOL    HW145904   4.194  11.424   0.040
14669SOL    HW245905   4.045  11.444   0.058
14670SOL     OW45906  12.810   3.319   8.492
14670SOL    HW145907  12.900   3.322   8.526
14670SOL    HW245908  12.790   3.225   8.486
14671SOL     OW45909  11.713  14.594  11.402
14671SOL    HW145910  11.750  14.682  11.398
14671SOL    HW245911  11.757  14.547  11.331
14672SOL     OW45912   4.100  12.236   0.004
14672SOL    HW145913   4.192  12.213  14.873
14672SOL    HW245914   4.098  12.279   0.090
14673SOL     OW45915   3.789  12.505  10.498
14673SOL    HW145916   3.814  12.421  10.459
14673SOL    HW245917   3.774  12.485  10.590
14674SOL     OW45918   4.474  13.163   8.905
14674SOL    HW145919   4.464  13.120   8.991
14674SOL    HW245920   4.443  13.252   8.920
14675SOL     OW45921   9.359   7.270   3.803
14675SOL    HW145922   9.452   7.253   3.819
14675SOL    HW245923   9.318   7.261   3.888
14676SOL     OW45924   5.825  11.884  10.613
14676SOL    HW145925   5.748  11.940  10.606
14676SOL    HW245926   5.895  11.935  10.572
14677SOL     OW45927   4.683  10.054  10.508
14677SOL    HW145928   4.688  10.129  10.449
14677SOL    HW245929   4.657  10.091  10.592
14678SOL     OW45930   4.874   6.412  14.194
14678SOL    HW145931   4.874   6.390  14.101
14678SOL    HW245932   4.839   6.501  14.197
14679SOL     OW45933   3.674   8.857   1.754
14679SOL    HW145934   3.656   8.767   1.780
14679SOL    HW245935   3.770   8.862   1.751
14680SOL     OW45936  13.027  14.364  10.217
14680SOL    HW145937  12.948  14.387  10.266
14680SOL    HW245938  12.995  14.311  10.144
14681SOL     OW45939  12.289   7.972   2.803
14681SOL    HW145940  12.309   7.888   2.761
14681SOL    HW245941  12.262   8.028   2.730
14682SOL     OW45942  14.350  13.726  14.369
14682SOL    HW145943  14.399  13.797  14.329
14682SOL    HW245944  14.416  13.672  14.412
14683SOL     OW45945   7.268   5.292  12.280
14683SOL    HW145946   7.227   5.378  12.268
14683SOL    HW245947   7.202   5.241  12.326
14684SOL     OW45948   5.184  12.809  13.548
14684SOL    HW145949   5.273  12.775  13.552
14684SOL    HW245950   5.148  12.795  13.636
14685SOL     OW45951   6.665   3.704  12.687
14685SOL    HW145952   6.714   3.785  12.673
14685SOL    HW245953   6.660   3.695  12.783
14686SOL     OW45954   4.736   2.043   5.007
14686SOL    HW145955   4.670   1.992   4.960
14686SOL    HW245956   4.813   1.986   5.008
14687SOL     OW45957   3.316  12.273   1.339
14687SOL    HW145958   3.368  12.346   1.372
14687SOL    HW245959   3.227  12.308   1.331
14688SOL     OW45960  13.445   4.832   7.832
14688SOL    HW145961  13.370   4.891   7.826
14688SOL    HW245962  13.420   4.756   7.779
14689SOL     OW45963  12.562   3.936   8.621
14689SOL    HW145964  12.511   4.015   8.642
14689SOL    HW245965  12.564   3.886   8.702
14690SOL     OW45966  12.231   0.423   6.431
14690SOL    HW145967  12.185   0.344   6.402
14690SOL    HW245968  12.311   0.390   6.473
14691SOL     OW45969  12.122   8.978  14.361
14691SOL    HW145970  12.110   8.908  14.425
14691SOL    HW245971  12.217   8.985  14.350
14692SOL     OW45972  11.951   1.665   2.274
14692SOL    HW145973  11.916   1.740   2.322
14692SOL    HW245974  11.875   1.610   2.254
14693SOL     OW45975   4.385   2.465  10.348
14693SOL    HW145976   4.414   2.522  10.277
14693SOL    HW245977   4.462   2.411  10.367
14694SOL     OW45978  10.838  14.704  10.957
14694SOL    HW145979  10.814  14.673  10.870
14694SOL    HW245980  10.913  14.761  10.943
14695SOL     OW45981   2.556  12.954   8.579
14695SOL    HW145982   2.536  12.925   8.668
14695SOL    HW245983   2.493  12.906   8.524
14696SOL     OW45984   2.135   4.768  13.766
14696SOL    HW145985   2.083   4.708  13.819
14696SOL    HW245986   2.128   4.733  13.677
14697SOL     OW45987  11.857   7.961   3.542
14697SOL    HW145988  11.772   8.004   3.552
14697SOL    HW245989  11.898   8.006   3.468
14698SOL     OW45990   9.483   5.386  11.394
14698SOL    HW145991   9.517   5.352  11.477
14698SOL    HW245992   9.555   5.378  11.333
14699SOL     OW45993  11.291  12.137   9.590
14699SOL    HW145994  11.340  12.211   9.626
14699SOL    HW245995  11.358  12.069   9.578
14700SOL     OW45996  10.114  14.109   4.135
14700SOL    HW145997  10.026  14.113   4.099
14700SOL    HW245998  10.172  14.109   4.058
14701SOL     OW45999   0.249   2.862   6.215
14701SOL    HW146000   0.301   2.929   6.258
14701SOL    HW246001   0.289   2.779   6.242
14702SOL     OW46002  10.379  14.609  11.274
14702SOL    HW146003  10.313  14.620  11.343
14702SOL    HW246004  10.395  14.697  11.241
14703SOL     OW46005  11.089  10.295   2.220
14703SOL    HW146006  11.057  10.312   2.309
14703SOL    HW246007  11.167  10.241   2.233
14704SOL     OW46008   6.567   5.672  13.710
14704SOL    HW146009   6.594   5.704  13.624
14704SOL    HW246010   6.524   5.589  13.692
14705SOL     OW46011  12.194   6.918   1.873
14705SOL    HW146012  12.245   6.974   1.931
14705SOL    HW246013  12.253   6.898   1.801
14706SOL     OW46014  11.077   5.744   4.343
14706SOL    HW146015  11.140   5.781   4.281
14706SOL    HW246016  11.093   5.790   4.425
14707SOL     OW46017   2.645  13.955   3.079
14707SOL    HW146018   2.556  13.988   3.090
14707SOL    HW246019   2.658  13.895   3.152
14708SOL     OW46020   1.024   4.040   4.672
14708SOL    HW146021   0.934   4.071   4.665
14708SOL    HW246022   1.056   4.040   4.582
14709SOL     OW46023   4.005   0.074   5.008
14709SOL    HW146024   4.085   0.098   5.054
14709SOL    HW246025   3.945   0.045   5.077
14710SOL     OW46026   9.341   9.290   4.683
14710SOL    HW146027   9.403   9.345   4.635
14710SOL    HW246028   9.395   9.224   4.725
14711SOL     OW46029  11.883   9.287   8.581
14711SOL    HW146030  11.879   9.203   8.626
14711SOL    HW246031  11.795   9.300   8.546
14712SOL     OW46032   9.535   4.256  12.748
14712SOL    HW146033   9.607   4.198  12.772
14712SOL    HW246034   9.534   4.323  12.816
14713SOL     OW46035   7.030   2.913   6.884
14713SOL    HW146036   6.955   2.917   6.944
14713SOL    HW246037   7.015   2.983   6.821
14714SOL     OW46038   9.111   3.592   4.707
14714SOL    HW146039   9.177   3.585   4.776
14714SOL    HW246040   9.059   3.512   4.715
14715SOL     OW46041  13.961   2.858   4.349
14715SOL    HW146042  13.971   2.888   4.440
14715SOL    HW246043  13.883   2.801   4.351
14716SOL     OW46044  10.990   1.076   5.923
14716SOL    HW146045  11.013   0.997   5.875
14716SOL    HW246046  11.074   1.114   5.948
14717SOL     OW46047  10.067  13.077  10.261
14717SOL    HW146048  10.073  13.169  10.288
14717SOL    HW246049   9.990  13.043  10.306
14718SOL     OW46050   7.464   6.621   1.558
14718SOL    HW146051   7.458   6.653   1.648
14718SOL    HW246052   7.520   6.684   1.513
14719SOL     OW46053   9.651   2.325   9.729
14719SOL    HW146054   9.584   2.266   9.762
14719SOL    HW246055   9.713   2.268   9.683
14720SOL     OW46056  14.458   3.795   3.022
14720SOL    HW146057  14.458   3.791   3.118
14720SOL    HW246058  14.407   3.873   3.001
14721SOL     OW46059   4.859   2.317  13.682
14721SOL    HW146060   4.920   2.306  13.609
14721SOL    HW246061   4.883   2.248  13.744
14722SOL     OW46062  14.243  12.454   3.349
14722SOL    HW146063  14.250  12.382   3.286
14722SOL    HW246064  14.318  12.443   3.407
14723SOL     OW46065   4.495  12.868   4.263
14723SOL    HW146066   4.548  12.789   4.261
14723SOL    HW246067   4.515  12.913   4.181
14724SOL     OW46068   2.916   3.780  12.465
14724SOL    HW146069   2.950   3.851  12.519
14724SOL    HW246070   2.821   3.790  12.469
14725SOL     OW46071   6.408   8.716   7.411
14725SOL    HW146072   6.375   8.781   7.473
14725SOL    HW246073   6.361   8.635   7.433
14726SOL     OW46074   1.006   4.018   6.394
14726SOL    HW146075   0.966   4.101   6.422
14726SOL    HW246076   0.990   3.958   6.468
14727SOL     OW46077   0.524   3.967   0.527
14727SOL    HW146078   0.437   3.925   0.527
14727SOL    HW246079   0.509   4.054   0.562
14728SOL     OW46080  12.324  11.703   1.052
14728SOL    HW146081  12.277  11.665   0.978
14728SOL    HW246082  12.255  11.725   1.115
14729SOL     OW46083   5.409   7.175  12.864
14729SOL    HW146084   5.363   7.153  12.944
14729SOL    HW246085   5.341   7.206  12.804
14730SOL     OW46086   1.287   3.603   5.340
14730SOL    HW146087   1.313   3.658   5.265
14730SOL    HW246088   1.361   3.544   5.353
14731SOL     OW46089  13.187   1.266   4.851
14731SOL    HW146090  13.209   1.339   4.909
14731SOL    HW246091  13.251   1.197   4.874
14732SOL     OW46092   0.859   7.290   6.731
14732SOL    HW146093   0.901   7.362   6.778
14732SOL    HW246094   0.861   7.317   6.639
14733SOL     OW46095   9.451  13.979   6.381
14733SOL    HW146096   9.524  14.030   6.415
14733SOL    HW246097   9.423  14.026   6.302
14734SOL     OW46098   3.307  10.454   6.899
14734SOL    HW146099   3.348  10.386   6.952
14734SOL    HW246100   3.228  10.412   6.865
14735SOL     OW46101  12.218  12.565   3.935
14735SOL    HW146102  12.253  12.487   3.976
14735SOL    HW246103  12.156  12.532   3.869
14736SOL     OW46104   7.186  14.101   0.265
14736SOL    HW146105   7.189  14.013   0.228
14736SOL    HW246106   7.133  14.151   0.203
14737SOL     OW46107  11.760   2.243   3.530
14737SOL    HW146108  11.718   2.185   3.465
14737SOL    HW246109  11.814   2.184   3.583
14738SOL     OW46110   8.614   2.308   1.229
14738SOL    HW146111   8.639   2.318   1.137
14738SOL    HW246112   8.692   2.272   1.271
14739SOL     OW46113  14.033   8.341   7.625
14739SOL    HW146114  13.959   8.327   7.685
14739SOL    HW246115  14.017   8.281   7.553
14740SOL     OW46116   1.484   9.169  11.484
14740SOL    HW146117   1.506   9.076  11.495
14740SOL    HW246118   1.546   9.215  11.541
14741SOL     OW46119   2.364  10.303   4.897
14741SOL    HW146120   2.280  10.307   4.851
14741SOL    HW246121   2.406  10.386   4.877
14742SOL     OW46122   6.475   6.845   0.404
14742SOL    HW146123   6.535   6.905   0.360
14742SOL    HW246124   6.511   6.833   0.491
14743SOL     OW46125  14.143   2.412  11.257
14743SOL    HW146126  14.087   2.473  11.304
14743SOL    HW246127  14.087   2.375  11.189
14744SOL     OW46128   6.469   2.653  11.840
14744SOL    HW146129   6.393   2.595  11.843
14744SOL    HW246130   6.492   2.658  11.747
14745SOL     OW46131  13.484   9.935  13.207
14745SOL    HW146132  13.426   9.864  13.236
14745SOL    HW246133  13.434   9.980  13.139
14746SOL     OW46134   0.951  14.482   0.233
14746SOL    HW146135   0.906  14.501   0.316
14746SOL    HW246136   1.015  14.415   0.255
14747SOL     OW46137   6.360   7.256   7.339
14747SOL    HW146138   6.436   7.198   7.350
14747SOL    HW246139   6.285   7.196   7.333
14748SOL     OW46140  12.585   6.703  10.731
14748SOL    HW146141  12.500   6.664  10.711
14748SOL    HW246142  12.641   6.628  10.751
14749SOL     OW46143   4.060   4.266   7.524
14749SOL    HW146144   4.081   4.357   7.505
14749SOL    HW246145   3.968   4.258   7.501
14750SOL     OW46146   2.990   3.972   5.935
14750SOL    HW146147   2.924   3.997   5.999
14750SOL    HW246148   2.942   3.960   5.853
14751SOL     OW46149   0.279  13.282  10.352
14751SOL    HW146150   0.235  13.198  10.341
14751SOL    HW246151   0.256  13.311  10.440
14752SOL     OW46152   2.094   0.084  11.381
14752SOL    HW146153   2.000   0.102  11.386
14752SOL    HW246154   2.135   0.163  11.414
14753SOL     OW46155   0.333   9.924   7.102
14753SOL    HW146156   0.259   9.870   7.128
14753SOL    HW246157   0.320   9.940   7.009
14754SOL     OW46158   7.202   4.847   3.280
14754SOL    HW146159   7.213   4.798   3.199
14754SOL    HW246160   7.113   4.825   3.309
14755SOL     OW46161  14.351  10.306   7.839
14755SOL    HW146162  14.271  10.260   7.864
14755SOL    HW246163  14.422  10.249   7.869
14756SOL     OW46164  12.379   7.315  12.053
14756SOL    HW146165  12.388   7.364  12.135
14756SOL    HW246166  12.358   7.382  11.988
14757SOL     OW46167   1.482   2.096  14.759
14757SOL    HW146168   1.398   2.141  14.756
14757SOL    HW246169   1.488   2.050  14.675
14758SOL     OW46170   4.013  14.256  14.086
14758SOL    HW146171   3.971  14.319  14.144
14758SOL    HW246172   4.042  14.186  14.145
14759SOL     OW46173   3.930  10.168   2.506
14759SOL    HW146174   3.943  10.239   2.442
14759SOL    HW246175   3.995  10.185   2.574
14760SOL     OW46176  13.122   3.893  14.100
14760SOL    HW146177  13.077   3.871  14.018
14760SOL    HW246178  13.110   3.988  14.108
14761SOL     OW46179   4.749   6.943  14.170
14761SOL    HW146180   4.828   6.930  14.222
14761SOL    HW246181   4.687   6.984  14.229
14762SOL     OW46182   3.561   9.901   5.958
14762SOL    HW146183   3.629   9.933   5.898
14762SOL    HW246184   3.504   9.847   5.904
14763SOL     OW46185  14.553  10.224   3.372
14763SOL    HW146186  14.502  10.189   3.298
14763SOL    HW246187  14.503  10.301   3.400
14764SOL     OW46188   2.415  10.829   4.231
14764SOL    HW146189   2.390  10.831   4.323
14764SOL    HW246190   2.460  10.745   4.221
14765SOL     OW46191   7.820  11.417   3.510
14765SOL    HW146192   7.755  11.403   3.579
14765SOL    HW246193   7.897  11.367   3.538
14766SOL     OW46194  12.217   9.733   8.778
14766SOL    HW146195  12.276   9.790   8.728
14766SOL    HW246196  12.134   9.779   8.779
14767SOL     OW46197  13.578   8.502   0.834
14767SOL    HW146198  13.548   8.433   0.892
14767SOL    HW246199  13.576   8.463   0.747
14768SOL     OW46200   8.018  13.027  12.029
14768SOL    HW146201   8.051  12.951  11.980
14768SOL    HW246202   8.082  13.041  12.098
14769SOL     OW46203   2.588  13.502  12.605
14769SOL    HW146204   2.590  13.573  12.540
14769SOL    HW246205   2.563  13.424  12.555
14770SOL     OW46206   7.336   2.556   6.944
14770SOL    HW146207   7.293   2.471   6.948
14770SOL    HW246208   7.373   2.568   7.032
14771SOL     OW46209  12.298   5.749   4.737
14771SOL    HW146210  12.223   5.809   4.737
14771SOL    HW246211  12.303   5.717   4.827
14772SOL     OW46212   9.169   8.372   8.191
14772SOL    HW146213   9.185   8.461   8.222
14772SOL    HW246214   9.081   8.375   8.153
14773SOL     OW46215   6.828  10.534   6.397
14773SOL    HW146216   6.851  10.559   6.308
14773SOL    HW246217   6.770  10.603   6.428
14774SOL     OW46218   4.816   3.461   5.628
14774SOL    HW146219   4.757   3.414   5.570
14774SOL    HW246220   4.895   3.407   5.632
14775SOL     OW46221   9.669   2.283   0.406
14775SOL    HW146222   9.704   2.371   0.395
14775SOL    HW246223   9.628   2.262   0.322
14776SOL     OW46224   6.806   9.607   6.523
14776SOL    HW146225   6.724   9.558   6.512
14776SOL    HW246226   6.806   9.633   6.615
14777SOL     OW46227  10.440   6.928   6.228
14777SOL    HW146228  10.392   6.994   6.279
14777SOL    HW246229  10.373   6.872   6.191
14778SOL     OW46230  13.381  10.701   6.603
14778SOL    HW146231  13.441  10.694   6.677
14778SOL    HW246232  13.377  10.612   6.567
14779SOL     OW46233   3.603   8.465   2.746
14779SOL    HW146234   3.576   8.539   2.801
14779SOL    HW246235   3.684   8.434   2.787
14780SOL     OW46236   4.781   9.975   6.651
14780SOL    HW146237   4.753  10.014   6.568
14780SOL    HW246238   4.729   9.896   6.660
14781SOL     OW46239  11.997  10.892   8.847
14781SOL    HW146240  11.904  10.877   8.864
14781SOL    HW246241  12.004  10.903   8.753
14782SOL     OW46242   9.366  11.754   3.137
14782SOL    HW146243   9.413  11.816   3.080
14782SOL    HW246244   9.435  11.715   3.190
14783SOL     OW46245   7.045   6.418   2.755
14783SOL    HW146246   7.057   6.394   2.847
14783SOL    HW246247   6.989   6.495   2.757
14784SOL     OW46248   1.264  12.986   4.004
14784SOL    HW146249   1.184  12.936   4.017
14784SOL    HW246250   1.312  12.938   3.937
14785SOL     OW46251  13.053  14.300   0.185
14785SOL    HW146252  12.959  14.316   0.178
14785SOL    HW246253  13.090  14.384   0.209
14786SOL     OW46254   8.743   8.768   8.796
14786SOL    HW146255   8.713   8.679   8.814
14786SOL    HW246256   8.739   8.776   8.701
14787SOL     OW46257   5.078  11.483  11.463
14787SOL    HW146258   5.123  11.406  11.497
14787SOL    HW246259   5.134  11.514  11.391
14788SOL     OW46260   9.160  10.725  13.113
14788SOL    HW146261   9.254  10.740  13.101
14788SOL    HW246262   9.121  10.751  13.029
14789SOL     OW46263   2.623  11.603  11.303
14789SOL    HW146264   2.717  11.621  11.299
14789SOL    HW246265   2.586  11.677  11.350
14790SOL     OW46266   7.048   9.210   0.308
14790SOL    HW146267   7.024   9.136   0.252
14790SOL    HW246268   6.968   9.229   0.358
14791SOL     OW46269  14.351   7.389   3.720
14791SOL    HW146270  14.437   7.373   3.759
14791SOL    HW246271  14.369   7.443   3.643
14792SOL     OW46272   7.777   8.577   8.205
14792SOL    HW146273   7.857   8.613   8.243
14792SOL    HW246274   7.786   8.482   8.215
14793SOL     OW46275   0.731   5.526   1.633
14793SOL    HW146276   0.699   5.610   1.599
14793SOL    HW246277   0.778   5.487   1.559
14794SOL     OW46278   7.662   2.158   1.707
14794SOL    HW146279   7.607   2.152   1.785
14794SOL    HW246280   7.716   2.236   1.720
14795SOL     OW46281   2.264  10.796  11.549
14795SOL    HW146282   2.352  10.808  11.512
14795SOL    HW246283   2.272  10.828  11.639
14796SOL     OW46284  12.744   6.899  13.010
14796SOL    HW146285  12.815   6.836  13.002
14796SOL    HW246286  12.785   6.977  13.049
14797SOL     OW46287  14.659   4.749  12.647
14797SOL    HW146288  14.647   4.698  12.568
14797SOL    HW246289  14.572   4.786  12.665
14798SOL     OW46290  13.109  13.863   7.137
14798SOL    HW146291  13.199  13.896   7.142
14798SOL    HW246292  13.092  13.827   7.224
14799SOL     OW46293   5.906   5.482   5.065
14799SOL    HW146294   5.839   5.493   4.998
14799SOL    HW246295   5.910   5.388   5.079
14800SOL     OW46296  14.859  14.778   9.962
14800SOL    HW146297  14.828  14.817  10.044
14800SOL    HW246298  14.784  14.729   9.929
14801SOL     OW46299  12.133  14.648   7.909
14801SOL    HW146300  12.155  14.701   7.832
14801SOL    HW246301  12.187  14.570   7.901
14802SOL     OW46302  13.719  13.357  11.160
14802SOL    HW146303  13.626  13.339  11.144
14802SOL    HW246304  13.720  13.424  11.227
14803SOL     OW46305   2.276   4.853  10.081
14803SOL    HW146306   2.269   4.822  10.172
14803SOL    HW246307   2.187   4.882  10.059
14804SOL     OW46308   9.855  10.823   2.534
14804SOL    HW146309   9.949  10.844   2.533
14804SOL    HW246310   9.849  10.738   2.491
14805SOL     OW46311   8.741  11.860   1.655
14805SOL    HW146312   8.765  11.951   1.637
14805SOL    HW246313   8.803  11.808   1.604
14806SOL     OW46314  13.180   6.457   7.803
14806SOL    HW146315  13.086   6.470   7.789
14806SOL    HW246316  13.221   6.498   7.726
14807SOL     OW46317  11.648   0.701   7.719
14807SOL    HW146318  11.588   0.774   7.735
14807SOL    HW246319  11.734   0.735   7.745
14808SOL     OW46320   8.301   0.189   8.646
14808SOL    HW146321   8.253   0.171   8.565
14808SOL    HW246322   8.247   0.150   8.715
14809SOL     OW46323   0.618   6.169   4.457
14809SOL    HW146324   0.661   6.239   4.408
14809SOL    HW246325   0.530   6.203   4.476
14810SOL     OW46326  12.794   6.769   0.411
14810SOL    HW146327  12.717   6.718   0.386
14810SOL    HW246328  12.759   6.855   0.434
14811SOL     OW46329   0.324   4.264   1.612
14811SOL    HW146330   0.274   4.189   1.581
14811SOL    HW246331   0.291   4.279   1.701
14812SOL     OW46332   0.383  11.021  10.258
14812SOL    HW146333   0.357  11.090  10.198
14812SOL    HW246334   0.314  10.955  10.251
14813SOL     OW46335   9.482   9.074  14.385
14813SOL    HW146336   9.466   9.009  14.316
14813SOL    HW246337   9.576   9.069  14.400
14814SOL     OW46338   2.225  14.784   7.230
14814SOL    HW146339   2.246  14.793   7.323
14814SOL    HW246340   2.248  14.869   7.193
14815SOL     OW46341  13.481   3.263  13.635
14815SOL    HW146342  13.449   3.209  13.707
14815SOL    HW246343  13.469   3.353  13.666
14816SOL     OW46344  11.672   8.442   7.844
14816SOL    HW146345  11.616   8.429   7.768
14816SOL    HW246346  11.613   8.473   7.913
14817SOL     OW46347  11.945   2.059   8.106
14817SOL    HW146348  12.026   2.016   8.134
14817SOL    HW246349  11.878   2.022   8.162
14818SOL     OW46350  11.353   1.691   7.523
14818SOL    HW146351  11.316   1.777   7.543
14818SOL    HW246352  11.364   1.691   7.428
14819SOL     OW46353   5.125   6.158   9.021
14819SOL    HW146354   5.071   6.120   8.952
14819SOL    HW246355   5.175   6.227   8.977
14820SOL     OW46356   7.417   0.584   4.630
14820SOL    HW146357   7.480   0.533   4.580
14820SOL    HW246358   7.468   0.658   4.664
14821SOL     OW46359  13.666  14.516   8.663
14821SOL    HW146360  13.699  14.430   8.690
14821SOL    HW246361  13.745  14.566   8.640
14822SOL     OW46362   1.959   5.526   7.155
14822SOL    HW146363   1.929   5.491   7.239
14822SOL    HW246364   2.020   5.596   7.178
14823SOL     OW46365   2.786  12.169  11.824
14823SOL    HW146366   2.763  12.260  11.844
14823SOL    HW246367   2.744  12.152  11.740
14824SOL     OW46368   1.990   9.711   3.628
14824SOL    HW146369   2.029   9.794   3.655
14824SOL    HW246370   1.953   9.729   3.542
14825SOL     OW46371   9.314  12.787   4.282
14825SOL    HW146372   9.254  12.729   4.234
14825SOL    HW246373   9.274  12.799   4.367
14826SOL     OW46374  14.873   2.820   0.171
14826SOL    HW146375  14.821   2.778   0.103
14826SOL    HW246376   0.050   2.751   0.202
14827SOL     OW46377  14.080   7.106  11.095
14827SOL    HW146378  14.076   7.201  11.103
14827SOL    HW246379  14.100   7.074  11.183
14828SOL     OW46380  11.371   1.068   6.687
14828SOL    HW146381  11.283   1.107   6.688
14828SOL    HW246382  11.377   1.025   6.602
14829SOL     OW46383   7.342   0.145  13.614
14829SOL    HW146384   7.366   0.211  13.678
14829SOL    HW246385   7.404   0.157  13.542
14830SOL     OW46386   6.208   8.869  14.339
14830SOL    HW146387   6.190   8.934  14.271
14830SOL    HW246388   6.296   8.837  14.320
14831SOL     OW46389   5.211   5.045   2.800
14831SOL    HW146390   5.162   5.127   2.797
14831SOL    HW246391   5.297   5.067   2.764
14832SOL     OW46392   8.135   6.059  11.135
14832SOL    HW146393   8.218   6.105  11.121
14832SOL    HW246394   8.093   6.058  11.048
14833SOL     OW46395   0.743   6.663  12.477
14833SOL    HW146396   0.762   6.654  12.383
14833SOL    HW246397   0.822   6.702  12.514
14834SOL     OW46398  12.648  12.537  11.675
14834SOL    HW146399  12.564  12.531  11.631
14834SOL    HW246400  12.628  12.528  11.768
14835SOL     OW46401   0.944   9.339   3.569
14835SOL    HW146402   0.999   9.267   3.600
14835SOL    HW246403   0.855   9.303   3.570
14836SOL     OW46404   8.368   5.053  13.419
14836SOL    HW146405   8.387   5.034  13.511
14836SOL    HW246406   8.428   5.124  13.396
14837SOL     OW46407   6.001   0.151   4.158
14837SOL    HW146408   5.971   0.241   4.145
14837SOL    HW246409   6.096   0.157   4.160
14838SOL     OW46410  11.867  11.719  14.279
14838SOL    HW146411  11.855  11.807  14.245
14838SOL    HW246412  11.918  11.731  14.359
14839SOL     OW46413   7.659  14.790   3.615
14839SOL    HW146414   7.665  14.769   3.521
14839SOL    HW246415   7.579  14.842   3.622
14840SOL     OW46416   2.389  10.882   4.519
14840SOL    HW146417   2.358  10.805   4.567
14840SOL    HW246418   2.437  10.933   4.585
14841SOL     OW46419   2.875   8.841   1.404
14841SOL    HW146420   2.955   8.813   1.449
14841SOL    HW246421   2.901   8.850   1.313
14842SOL     OW46422   1.618   1.232  12.659
14842SOL    HW146423   1.688   1.167  12.648
14842SOL    HW246424   1.662   1.311  12.689
14843SOL     OW46425   2.622   5.518  14.045
14843SOL    HW146426   2.677   5.484  13.975
14843SOL    HW246427   2.638   5.458  14.119
14844SOL     OW46428   3.521   2.858  13.527
14844SOL    HW146429   3.528   2.954  13.523
14844SOL    HW246430   3.596   2.826  13.476
14845SOL     OW46431   4.275   4.788   6.144
14845SOL    HW146432   4.361   4.808   6.182
14845SOL    HW246433   4.296   4.747   6.060
14846SOL     OW46434  13.158   8.641   5.349
14846SOL    HW146435  13.093   8.570   5.351
14846SOL    HW246436  13.208   8.629   5.430
14847SOL     OW46437   9.737  11.992   0.483
14847SOL    HW146438   9.824  11.982   0.519
14847SOL    HW246439   9.751  12.025   0.394
14848SOL     OW46440  13.206  12.266  14.001
14848SOL    HW146441  13.224  12.309  13.917
14848SOL    HW246442  13.128  12.310  14.034
14849SOL     OW46443   9.959   8.580  12.757
14849SOL    HW146444   9.892   8.565  12.824
14849SOL    HW246445   9.928   8.657  12.709
14850SOL     OW46446   1.482   8.892  11.929
14850SOL    HW146447   1.505   8.826  11.994
14850SOL    HW246448   1.524   8.862  11.848
14851SOL     OW46449   4.065  14.356   1.660
14851SOL    HW146450   4.088  14.406   1.582
14851SOL    HW246451   4.114  14.397   1.730
14852SOL     OW46452  11.824   3.426  13.399
14852SOL    HW146453  11.824   3.505  13.345
14852SOL    HW246454  11.825   3.353  13.336
14853SOL     OW46455   9.500   8.333  11.847
14853SOL    HW146456   9.482   8.398  11.778
14853SOL    HW246457   9.570   8.279  11.811
14854SOL     OW46458  14.621   5.012   9.411
14854SOL    HW146459  14.582   4.924   9.409
14854SOL    HW246460  14.563   5.062   9.468
14855SOL     OW46461   8.194   6.535   6.615
14855SOL    HW146462   8.213   6.627   6.594
14855SOL    HW246463   8.280   6.496   6.630
14856SOL     OW46464   5.280  10.602  11.487
14856SOL    HW146465   5.230  10.581  11.566
14856SOL    HW246466   5.217  10.594  11.416
14857SOL     OW46467  13.688   6.850  11.993
14857SOL    HW146468  13.770   6.848  12.042
14857SOL    HW246469  13.649   6.764  12.008
14858SOL     OW46470   4.441   9.316   3.940
14858SOL    HW146471   4.356   9.319   3.984
14858SOL    HW246472   4.429   9.251   3.870
14859SOL     OW46473   3.261   6.978  11.062
14859SOL    HW146474   3.219   6.983  11.148
14859SOL    HW246475   3.204   6.920  11.012
14860SOL     OW46476   2.775  13.307  10.048
14860SOL    HW146477   2.792  13.225  10.095
14860SOL    HW246478   2.852  13.361  10.066
14861SOL     OW46479   0.238  14.136   2.069
14861SOL    HW146480   0.235  14.187   1.988
14861SOL    HW246481   0.325  14.096   2.069
14862SOL     OW46482   6.705   3.652   1.358
14862SOL    HW146483   6.659   3.653   1.274
14862SOL    HW246484   6.670   3.576   1.403
14863SOL     OW46485   2.826   6.157   5.907
14863SOL    HW146486   2.797   6.224   5.968
14863SOL    HW246487   2.751   6.141   5.851
14864SOL     OW46488   5.597   1.521  12.980
14864SOL    HW146489   5.599   1.610  13.013
14864SOL    HW246490   5.600   1.466  13.058
14865SOL     OW46491   8.883  12.264   5.107
14865SOL    HW146492   8.858  12.254   5.015
14865SOL    HW246493   8.960  12.208   5.118
14866SOL     OW46494   2.371   2.338   6.208
14866SOL    HW146495   2.453   2.291   6.191
14866SOL    HW246496   2.397   2.430   6.212
14867SOL     OW46497   8.939   4.988  13.766
14867SOL    HW146498   8.984   5.007  13.848
14867SOL    HW246499   8.846   4.993  13.787
14868SOL     OW46500   4.610   6.479   4.898
14868SOL    HW146501   4.694   6.455   4.938
14868SOL    HW246502   4.583   6.399   4.851
14869SOL     OW46503   2.989   5.140   7.884
14869SOL    HW146504   2.930   5.083   7.934
14869SOL    HW246505   3.061   5.083   7.859
14870SOL     OW46506   6.596  10.683   2.264
14870SOL    HW146507   6.648  10.663   2.342
14870SOL    HW246508   6.658  10.722   2.203
14871SOL     OW46509   2.716   8.438  12.143
14871SOL    HW146510   2.763   8.486  12.210
14871SOL    HW246511   2.651   8.501  12.110
14872SOL     OW46512   9.996   8.722   1.689
14872SOL    HW146513  10.047   8.767   1.623
14872SOL    HW246514   9.916   8.695   1.644
14873SOL     OW46515  10.084  13.250   2.879
14873SOL    HW146516  10.015  13.311   2.905
14873SOL    HW246517  10.126  13.226   2.962
14874SOL     OW46518  13.100  10.564   7.840
14874SOL    HW146519  13.053  10.617   7.903
14874SOL    HW246520  13.190  10.598   7.841
14875SOL     OW46521   3.918  14.154   2.373
14875SOL    HW146522   3.885  14.103   2.299
14875SOL    HW246523   3.851  14.143   2.441
14876SOL     OW46524   4.751  10.679  13.333
14876SOL    HW146525   4.796  10.731  13.400
14876SOL    HW246526   4.659  10.681  13.359
14877SOL     OW46527   2.269   3.482   9.797
14877SOL    HW146528   2.319   3.420   9.744
14877SOL    HW246529   2.333   3.547   9.825
14878SOL     OW46530   1.261   2.453   4.399
14878SOL    HW146531   1.187   2.423   4.451
14878SOL    HW246532   1.226   2.463   4.310
14879SOL     OW46533   1.209   0.350   1.454
14879SOL    HW146534   1.184   0.261   1.429
14879SOL    HW246535   1.172   0.406   1.385
14880SOL     OW46536   2.799  13.785   6.207
14880SOL    HW146537   2.876  13.778   6.264
14880SOL    HW246538   2.834  13.786   6.118
14881SOL     OW46539  14.774   5.234   6.042
14881SOL    HW146540  14.833   5.289   5.991
14881SOL    HW246541  14.796   5.144   6.017
14882SOL     OW46542   0.310   8.246  10.893
14882SOL    HW146543   0.255   8.238  10.815
14882SOL    HW246544   0.399   8.258  10.858
14883SOL     OW46545   7.945  13.825   3.389
14883SOL    HW146546   7.992  13.867   3.318
14883SOL    HW246547   7.879  13.889   3.415
14884SOL     OW46548   8.294   1.326   3.627
14884SOL    HW146549   8.204   1.343   3.656
14884SOL    HW246550   8.292   1.344   3.533
14885SOL     OW46551   4.116  13.062   9.087
14885SOL    HW146552   4.058  13.061   9.162
14885SOL    HW246553   4.109  13.151   9.052
14886SOL     OW46554   6.248   2.525   5.359
14886SOL    HW146555   6.203   2.478   5.289
14886SOL    HW246556   6.211   2.490   5.440
14887SOL     OW46557   6.937  13.936  10.110
14887SOL    HW146558   6.873  13.977  10.052
14887SOL    HW246559   6.902  13.949  10.198
14888SOL     OW46560   7.831   8.076   5.703
14888SOL    HW146561   7.743   8.078   5.665
14888SOL    HW246562   7.834   7.996   5.754
14889SOL     OW46563   2.170   8.200  10.358
14889SOL    HW146564   2.239   8.225  10.296
14889SOL    HW246565   2.217   8.183  10.440
14890SOL     OW46566   6.544  12.114  13.131
14890SOL    HW146567   6.512  12.143  13.217
14890SOL    HW246568   6.587  12.190  13.094
14891SOL     OW46569  14.202  11.274  11.384
14891SOL    HW146570  14.150  11.341  11.339
14891SOL    HW246571  14.293  11.302  11.373
14892SOL     OW46572   3.812   3.329   2.753
14892SOL    HW146573   3.748   3.261   2.737
14892SOL    HW246574   3.764   3.397   2.800
14893SOL     OW46575  12.860   4.929  14.628
14893SOL    HW146576  12.867   4.954  14.720
14893SOL    HW246577  12.857   4.833  14.629
14894SOL     OW46578   8.621   5.127   2.233
14894SOL    HW146579   8.533   5.092   2.242
14894SOL    HW246580   8.636   5.176   2.314
14895SOL     OW46581   3.124   2.807  11.638
14895SOL    HW146582   3.099   2.896  11.663
14895SOL    HW246583   3.042   2.764  11.616
14896SOL     OW46584   7.322  11.780   5.964
14896SOL    HW146585   7.339  11.687   5.977
14896SOL    HW246586   7.407  11.822   5.982
14897SOL     OW46587   1.550   6.396  14.629
14897SOL    HW146588   1.642   6.388  14.605
14897SOL    HW246589   1.533   6.322  14.687
14898SOL     OW46590   4.309   9.756   0.400
14898SOL    HW146591   4.317   9.677   0.345
14898SOL    HW246592   4.368   9.741   0.473
14899SOL     OW46593  13.150  14.767   6.875
14899SOL    HW146594  13.237  14.782   6.911
14899SOL    HW246595  13.106  14.852   6.879
14900SOL     OW46596   5.501   6.377  11.530
14900SOL    HW146597   5.476   6.422  11.449
14900SOL    HW246598   5.597   6.372  11.525
14901SOL     OW46599   5.852  13.732   4.179
14901SOL    HW146600   5.910  13.761   4.109
14901SOL    HW246601   5.816  13.812   4.217
14902SOL     OW46602   7.807   2.334   4.552
14902SOL    HW146603   7.801   2.270   4.481
14902SOL    HW246604   7.734   2.394   4.538
14903SOL     OW46605  14.181   1.366   1.893
14903SOL    HW146606  14.176   1.405   1.806
14903SOL    HW246607  14.271   1.335   1.900
14904SOL     OW46608  11.565   6.699   6.976
14904SOL    HW146609  11.655   6.667   6.966
14904SOL    HW246610  11.510   6.622   6.962
14905SOL     OW46611  10.992  14.847   7.585
14905SOL    HW146612  10.977   0.060   7.591
14905SOL    HW246613  10.910  14.808   7.615
14906SOL     OW46614   3.585  12.567   6.513
14906SOL    HW146615   3.617  12.641   6.564
14906SOL    HW246616   3.652  12.500   6.525
14907SOL     OW46617  11.793   7.847  14.595
14907SOL    HW146618  11.756   7.888  14.517
14907SOL    HW246619  11.864   7.792  14.561
14908SOL     OW46620  14.846  13.584   0.856
14908SOL    HW146621  14.839  13.632   0.939
14908SOL    HW246622   0.028  13.515   0.874
14909SOL     OW46623   7.985  10.424  12.430
14909SOL    HW146624   7.982  10.520  12.436
14909SOL    HW246625   7.961  10.405  12.339
14910SOL     OW46626  12.174  10.424  12.044
14910SOL    HW146627  12.169  10.490  11.975
14910SOL    HW246628  12.268  10.408  12.054
14911SOL     OW46629   0.308  12.231   2.434
14911SOL    HW146630   0.309  12.325   2.450
14911SOL    HW246631   0.381  12.217   2.374
14912SOL     OW46632  10.835  10.849  14.855
14912SOL    HW146633  10.769  10.918  14.856
14912SOL    HW246634  10.840  10.822  14.763
14913SOL     OW46635  10.092   8.670  10.194
14913SOL    HW146636  10.104   8.585  10.237
14913SOL    HW246637  10.106   8.652  10.101
14914SOL     OW46638   1.309   9.689   9.283
14914SOL    HW146639   1.252   9.613   9.292
14914SOL    HW246640   1.271   9.739   9.210
14915SOL     OW46641   0.354   0.469   3.656
14915SOL    HW146642   0.271   0.514   3.643
14915SOL    HW246643   0.410   0.501   3.585
14916SOL     OW46644   0.719   1.813   3.575
14916SOL    HW146645   0.682   1.782   3.657
14916SOL    HW246646   0.782   1.880   3.601
14917SOL     OW46647   8.479  13.772   3.122
14917SOL    HW146648   8.545  13.841   3.114
14917SOL    HW246649   8.445  13.761   3.033
14918SOL     OW46650   2.055   7.437  10.335
14918SOL    HW146651   1.989   7.390  10.386
14918SOL    HW246652   2.091   7.370  10.276
14919SOL     OW46653   8.996   3.042   5.937
14919SOL    HW146654   9.048   3.075   5.863
14919SOL    HW246655   8.916   3.095   5.935
14920SOL     OW46656  14.325  13.497  12.592
14920SOL    HW146657  14.323  13.418  12.537
14920SOL    HW246658  14.418  13.518  12.601
14921SOL     OW46659   0.414   6.474  10.728
14921SOL    HW146660   0.446   6.414  10.796
14921SOL    HW246661   0.494   6.516  10.695
14922SOL     OW46662  11.084   5.053   6.565
14922SOL    HW146663  11.016   5.029   6.628
14922SOL    HW246664  11.060   5.006   6.485
14923SOL     OW46665   2.962   3.790   7.253
14923SOL    HW146666   2.903   3.715   7.265
14923SOL    HW246667   2.940   3.823   7.165
14924SOL     OW46668   4.814  14.707   3.417
14924SOL    HW146669   4.811  14.740   3.327
14924SOL    HW246670   4.859  14.623   3.410
14925SOL     OW46671  12.704  12.618  10.727
14925SOL    HW146672  12.791  12.616  10.688
14925SOL    HW246673  12.681  12.711  10.730
14926SOL     OW46674  14.331   2.159  14.523
14926SOL    HW146675  14.298   2.228  14.465
14926SOL    HW246676  14.426   2.175  14.527
14927SOL     OW46677   3.312   9.897  11.154
14927SOL    HW146678   3.387   9.950  11.127
14927SOL    HW246679   3.340   9.806  11.141
14928SOL     OW46680  11.128   3.195  10.731
14928SOL    HW146681  11.219   3.163  10.733
14928SOL    HW246682  11.075   3.117  10.738
14929SOL     OW46683   5.246   9.139  13.289
14929SOL    HW146684   5.280   9.058  13.326
14929SOL    HW246685   5.168   9.112  13.240
14930SOL     OW46686  11.803  12.669  11.196
14930SOL    HW146687  11.830  12.648  11.107
14930SOL    HW246688  11.809  12.765  11.200
14931SOL     OW46689  11.839  11.839  13.787
14931SOL    HW146690  11.775  11.894  13.832
14931SOL    HW246691  11.825  11.751  13.823
14932SOL     OW46692   0.178  14.367  11.648
14932SOL    HW146693   0.234  14.409  11.583
14932SOL    HW246694   0.119  14.312  11.598
14933SOL     OW46695   4.481   6.324   2.290
14933SOL    HW146696   4.565   6.308   2.333
14933SOL    HW246697   4.423   6.257   2.325
14934SOL     OW46698   5.927   3.116   8.763
14934SOL    HW146699   5.926   3.052   8.692
14934SOL    HW246700   5.865   3.082   8.827
14935SOL     OW46701   6.196  13.626   5.114
14935SOL    HW146702   6.137  13.565   5.068
14935SOL    HW246703   6.283  13.591   5.097
14936SOL     OW46704   4.311   0.207   6.099
14936SOL    HW146705   4.219   0.231   6.088
14936SOL    HW246706   4.311   0.137   6.164
14937SOL     OW46707   3.098  14.109   9.826
14937SOL    HW146708   3.040  14.032   9.829
14937SOL    HW246709   3.108  14.134   9.918
14938SOL     OW46710   4.844   2.734   1.917
14938SOL    HW146711   4.852   2.641   1.940
14938SOL    HW246712   4.749   2.747   1.909
14939SOL     OW46713  12.342  12.766   0.447
14939SOL    HW146714  12.334  12.854   0.409
14939SOL    HW246715  12.435  12.745   0.438
14940SOL     OW46716   8.249   0.741  13.051
14940SOL    HW146717   8.344   0.753  13.045
14940SOL    HW246718   8.212   0.822  13.017
14941SOL     OW46719   5.237  10.704  14.100
14941SOL    HW146720   5.323  10.694  14.060
14941SOL    HW246721   5.176  10.706  14.026
14942SOL     OW46722  12.156   0.252   5.435
14942SOL    HW146723  12.199   0.206   5.507
14942SOL    HW246724  12.227   0.270   5.373
14943SOL     OW46725   5.342   8.309  12.951
14943SOL    HW146726   5.375   8.252  13.021
14943SOL    HW246727   5.260   8.345  12.985
14944SOL     OW46728   4.302  13.109   7.708
14944SOL    HW146729   4.290  13.128   7.615
14944SOL    HW246730   4.221  13.138   7.750
14945SOL     OW46731   5.566   5.045   5.801
14945SOL    HW146732   5.565   5.013   5.710
14945SOL    HW246733   5.582   5.139   5.793
14946SOL     OW46734   3.343   2.108   6.151
14946SOL    HW146735   3.261   2.115   6.199
14946SOL    HW246736   3.411   2.110   6.218
14947SOL     OW46737  10.455   5.024   1.138
14947SOL    HW146738  10.373   5.039   1.091
14947SOL    HW246739  10.519   5.077   1.092
14948SOL     OW46740  10.706   6.943  13.174
14948SOL    HW146741  10.655   7.011  13.129
14948SOL    HW246742  10.679   6.862  13.132
14949SOL     OW46743   4.595  10.637   0.986
14949SOL    HW146744   4.686  10.663   0.977
14949SOL    HW246745   4.568  10.674   1.070
14950SOL     OW46746   7.487  12.726  12.702
14950SOL    HW146747   7.477  12.657  12.768
14950SOL    HW246748   7.528  12.798  12.750
14951SOL     OW46749   9.981   1.559   9.759
14951SOL    HW146750   9.922   1.625   9.796
14951SOL    HW246751  10.014   1.511   9.835
14952SOL     OW46752   9.785   2.866   8.851
14952SOL    HW146753   9.750   2.920   8.922
14952SOL    HW246754   9.717   2.800   8.836
14953SOL     OW46755   6.380   4.325  14.100
14953SOL    HW146756   6.438   4.251  14.084
14953SOL    HW246757   6.396   4.385  14.028
14954SOL     OW46758  13.542  14.526   0.935
14954SOL    HW146759  13.579  14.612   0.951
14954SOL    HW246760  13.468  14.519   0.996
14955SOL     OW46761  14.586   7.728   1.773
14955SOL    HW146762  14.585   7.821   1.751
14955SOL    HW246763  14.500   7.712   1.811
14956SOL     OW46764   7.165  10.663   7.970
14956SOL    HW146765   7.200  10.747   7.943
14956SOL    HW246766   7.242  10.608   7.983
14957SOL     OW46767   3.965  13.809  11.751
14957SOL    HW146768   3.906  13.776  11.683
14957SOL    HW246769   4.035  13.744  11.755
14958SOL     OW46770   7.612  13.065  13.310
14958SOL    HW146771   7.699  13.091  13.279
14958SOL    HW246772   7.624  12.977  13.344
14959SOL     OW46773   7.383   6.808  11.026
14959SOL    HW146774   7.305   6.803  11.081
14959SOL    HW246775   7.446   6.858  11.078
14960SOL     OW46776   2.566   8.703  10.824
14960SOL    HW146777   2.617   8.681  10.902
14960SOL    HW246778   2.498   8.763  10.854
14961SOL     OW46779   4.985  11.605   4.457
14961SOL    HW146780   5.062  11.549   4.466
14961SOL    HW246781   4.916  11.546   4.428
14962SOL     OW46782  12.628   3.254   3.612
14962SOL    HW146783  12.563   3.274   3.679
14962SOL    HW246784  12.712   3.261   3.657
14963SOL     OW46785  10.245   3.220  10.272
14963SOL    HW146786  10.182   3.279  10.314
14963SOL    HW246787  10.194   3.171  10.209
14964SOL     OW46788   2.755  12.383   0.586
14964SOL    HW146789   2.673  12.393   0.635
14964SOL    HW246790   2.729  12.342   0.504
14965SOL     OW46791   7.606   9.124   1.811
14965SOL    HW146792   7.590   9.203   1.863
14965SOL    HW246793   7.658   9.068   1.868
14966SOL     OW46794   8.686   7.957   4.740
14966SOL    HW146795   8.779   7.964   4.723
14966SOL    HW246796   8.678   7.967   4.835
14967SOL     OW46797   3.258   8.245   3.357
14967SOL    HW146798   3.299   8.313   3.411
14967SOL    HW246799   3.222   8.292   3.282
14968SOL     OW46800  13.013   1.464   9.685
14968SOL    HW146801  13.087   1.422   9.641
14968SOL    HW246802  12.949   1.480   9.616
14969SOL     OW46803   2.475  13.864  14.865
14969SOL    HW146804   2.408  13.822  14.811
14969SOL    HW246805   2.505  13.796   0.043
14970SOL     OW46806   0.472   2.416  14.617
14970SOL    HW146807   0.443   2.459  14.698
14970SOL    HW246808   0.392   2.402  14.567
14971SOL     OW46809   9.858   6.043   2.727
14971SOL    HW146810   9.946   6.007   2.730
14971SOL    HW246811   9.815   6.009   2.805
14972SOL     OW46812   5.304   8.877   4.730
14972SOL    HW146813   5.291   8.814   4.801
14972SOL    HW246814   5.243   8.850   4.662
14973SOL     OW46815   6.658   2.032  14.650
14973SOL    HW146816   6.593   1.975  14.690
14973SOL    HW246817   6.620   2.053  14.564
14974SOL     OW46818   3.337   7.207  11.214
14974SOL    HW146819   3.408   7.164  11.261
14974SOL    HW246820   3.339   7.169  11.126
14975SOL     OW46821  10.922   9.740   3.725
14975SOL    HW146822  10.949   9.809   3.785
14975SOL    HW246823  10.969   9.758   3.644
14976SOL     OW46824  12.986   1.442   3.450
14976SOL    HW146825  13.048   1.445   3.376
14976SOL    HW246826  12.932   1.366   3.433
14977SOL     OW46827   3.539   1.699   8.467
14977SOL    HW146828   3.509   1.690   8.377
14977SOL    HW246829   3.468   1.744   8.512
14978SOL     OW46830   3.442  10.348  10.859
14978SOL    HW146831   3.467  10.439  10.877
14978SOL    HW246832   3.525  10.301  10.854
14979SOL     OW46833  12.359  12.513  12.995
14979SOL    HW146834  12.304  12.446  13.036
14979SOL    HW246835  12.392  12.470  12.916
14980SOL     OW46836  14.625   2.173   3.372
14980SOL    HW146837  14.695   2.238   3.379
14980SOL    HW246838  14.547   2.217   3.407
14981SOL     OW46839   2.454   4.222  14.238
14981SOL    HW146840   2.405   4.152  14.281
14981SOL    HW246841   2.388   4.290  14.222
14982SOL     OW46842   2.692   9.613   9.969
14982SOL    HW146843   2.685   9.518   9.976
14982SOL    HW246844   2.620   9.638   9.911
14983SOL     OW46845   7.697  11.210   0.833
14983SOL    HW146846   7.604  11.188   0.835
14983SOL    HW246847   7.719  11.212   0.740
14984SOL     OW46848  12.639   0.457   5.597
14984SOL    HW146849  12.696   0.454   5.673
14984SOL    HW246850  12.680   0.520   5.538
14985SOL     OW46851   1.112   4.882   8.367
14985SOL    HW146852   1.075   4.970   8.359
14985SOL    HW246853   1.050   4.826   8.320
14986SOL     OW46854   2.881   2.944  12.946
14986SOL    HW146855   2.857   2.999  13.021
14986SOL    HW246856   2.976   2.933  12.955
14987SOL     OW46857   9.232   7.458   4.803
14987SOL    HW146858   9.244   7.487   4.893
14987SOL    HW246859   9.318   7.424   4.777
14988SOL     OW46860   6.225   8.280  13.839
14988SOL    HW146861   6.194   8.338  13.769
14988SOL    HW246862   6.156   8.284  13.905
14989SOL     OW46863   5.029   8.089   5.733
14989SOL    HW146864   5.019   8.062   5.824
14989SOL    HW246865   4.972   8.166   5.725
14990SOL     OW46866   7.579   2.367   4.336
14990SOL    HW146867   7.486   2.383   4.351
14990SOL    HW246868   7.610   2.446   4.292
14991SOL     OW46869   7.554   5.366  12.173
14991SOL    HW146870   7.548   5.440  12.112
14991SOL    HW246871   7.486   5.306  12.144
14992SOL     OW46872   1.982   8.418  14.099
14992SOL    HW146873   1.952   8.327  14.099
14992SOL    HW246874   2.077   8.412  14.100
14993SOL     OW46875  12.338   4.202   9.802
14993SOL    HW146876  12.315   4.293   9.819
14993SOL    HW246877  12.430   4.196   9.829
14994SOL     OW46878  11.236   3.321   8.554
14994SOL    HW146879  11.208   3.316   8.646
14994SOL    HW246880  11.154   3.324   8.504
14995SOL     OW46881   8.513  11.727   0.561
14995SOL    HW146882   8.449  11.714   0.630
14995SOL    HW246883   8.528  11.822   0.560
14996SOL     OW46884   2.864  10.244   3.724
14996SOL    HW146885   2.846  10.208   3.811
14996SOL    HW246886   2.954  10.215   3.705
14997SOL     OW46887   7.506   8.155   8.577
14997SOL    HW146888   7.542   8.146   8.488
14997SOL    HW246889   7.435   8.092   8.580
14998SOL     OW46890   1.346  12.319   6.686
14998SOL    HW146891   1.362  12.315   6.780
14998SOL    HW246892   1.413  12.263   6.648
14999SOL     OW46893  11.357  13.101   1.630
14999SOL    HW146894  11.292  13.033   1.646
14999SOL    HW246895  11.414  13.065   1.563
15000SOL     OW46896  12.676   4.127  11.036
15000SOL    HW146897  12.679   4.206  10.983
15000SOL    HW246898  12.618   4.148  11.108
15001SOL     OW46899   1.418   2.257  10.984
15001SOL    HW146900   1.344   2.309  11.013
15001SOL    HW246901   1.386   2.167  10.985
15002SOL     OW46902  14.152  13.717  13.970
15002SOL    HW146903  14.083  13.699  13.906
15002SOL    HW246904  14.162  13.635  14.019
15003SOL     OW46905   8.477   4.178  10.230
15003SOL    HW146906   8.393   4.133  10.222
15003SOL    HW246907   8.541   4.116  10.196
15004SOL     OW46908   3.266  12.409   5.888
15004SOL    HW146909   3.188  12.461   5.910
15004SOL    HW246910   3.260  12.397   5.793
15005SOL     OW46911   7.386   9.243  11.041
15005SOL    HW146912   7.320   9.310  11.026
15005SOL    HW246913   7.375   9.181  10.969
15006SOL     OW46914  10.202   2.712   2.188
15006SOL    HW146915  10.282   2.687   2.233
15006SOL    HW246916  10.220   2.693   2.096
15007SOL     OW46917  14.437   6.597   7.199
15007SOL    HW146918  14.489   6.580   7.120
15007SOL    HW246919  14.424   6.692   7.198
15008SOL     OW46920   2.121  14.182  13.379
15008SOL    HW146921   2.197  14.154  13.430
15008SOL    HW246922   2.102  14.270  13.409
15009SOL     OW46923  14.163   9.435   8.555
15009SOL    HW146924  14.240   9.462   8.604
15009SOL    HW246925  14.112   9.383   8.617
15010SOL     OW46926   7.244   0.894   3.629
15010SOL    HW146927   7.237   0.922   3.538
15010SOL    HW246928   7.332   0.855   3.636
15011SOL     OW46929   5.245  12.139  13.823
15011SOL    HW146930   5.169  12.141  13.765
15011SOL    HW246931   5.279  12.050  13.816
15012SOL     OW46932   7.415   7.832   2.003
15012SOL    HW146933   7.429   7.908   2.059
15012SOL    HW246934   7.325   7.805   2.021
15013SOL     OW46935   5.269   2.552   6.946
15013SOL    HW146936   5.298   2.510   7.027
15013SOL    HW246937   5.173   2.545   6.948
15014SOL     OW46938   4.913   6.395   6.928
15014SOL    HW146939   4.939   6.487   6.923
15014SOL    HW246940   4.850   6.383   6.857
15015SOL     OW46941  10.853  13.870   8.774
15015SOL    HW146942  10.812  13.938   8.828
15015SOL    HW246943  10.819  13.887   8.686
15016SOL     OW46944  12.250   7.716   8.152
15016SOL    HW146945  12.228   7.746   8.240
15016SOL    HW246946  12.166   7.696   8.112
15017SOL     OW46947   9.235   0.945   2.980
15017SOL    HW146948   9.321   0.960   3.020
15017SOL    HW246949   9.214   1.027   2.936
15018SOL     OW46950   9.066  12.968  14.807
15018SOL    HW146951   9.056  13.063  14.805
15018SOL    HW246952   9.033  12.943   0.011
15019SOL     OW46953   6.377   8.169  10.125
15019SOL    HW146954   6.345   8.209  10.206
15019SOL    HW246955   6.326   8.089  10.115
15020SOL     OW46956   3.540   7.828   9.042
15020SOL    HW146957   3.569   7.737   9.056
15020SOL    HW246958   3.520   7.860   9.130
15021SOL     OW46959   7.526   7.330  10.899
15021SOL    HW146960   7.596   7.268  10.876
15021SOL    HW246961   7.571   7.407  10.931
15022SOL     OW46962   6.065   8.183   9.214
15022SOL    HW146963   6.087   8.168   9.122
15022SOL    HW246964   6.070   8.278   9.225
15023SOL     OW46965   8.351   5.498   1.085
15023SOL    HW146966   8.358   5.407   1.115
15023SOL    HW246967   8.365   5.550   1.164
15024SOL     OW46968  11.657   1.102  10.488
15024SOL    HW146969  11.709   1.181  10.473
15024SOL    HW246970  11.654   1.093  10.583
15025SOL     OW46971   8.478   4.044  14.197
15025SOL    HW146972   8.488   4.056  14.103
15025SOL    HW246973   8.384   4.033  14.210
15026SOL     OW46974   6.040   7.471   9.952
15026SOL    HW146975   6.041   7.507  10.041
15026SOL    HW246976   6.078   7.384   9.961
15027SOL     OW46977  12.289   1.818   1.708
15027SOL    HW146978  12.290   1.723   1.697
15027SOL    HW246979  12.268   1.852   1.621
15028SOL     OW46980  10.635   5.282  11.698
15028SOL    HW146981  10.621   5.376  11.709
15028SOL    HW246982  10.567   5.256  11.636
15029SOL     OW46983  14.870   5.497   7.914
15029SOL    HW146984  14.847   5.475   8.005
15029SOL    HW246985   0.071   5.452   7.899
15030SOL     OW46986   8.058   2.365   7.388
15030SOL    HW146987   7.983   2.417   7.418
15030SOL    HW246988   8.130   2.393   7.444
15031SOL     OW46989  12.438   5.084   4.786
15031SOL    HW146990  12.364   5.056   4.732
15031SOL    HW246991  12.507   5.105   4.723
15032SOL     OW46992  10.434   2.275  10.861
15032SOL    HW146993  10.498   2.223  10.812
15032SOL    HW246994  10.434   2.237  10.948
15033SOL     OW46995   8.579  12.263   9.334
15033SOL    HW146996   8.602  12.356   9.337
15033SOL    HW246997   8.620  12.226   9.412
15034SOL     OW46998  14.447  10.924  12.054
15034SOL    HW146999  14.403  10.999  12.015
15034SOL    HW247000  14.411  10.916  12.142
15035SOL     OW47001   7.661   9.150  12.403
15035SOL    HW147002   7.586   9.179  12.455
15035SOL    HW247003   7.709   9.091  12.461
15036SOL     OW47004   6.793  11.780   0.682
15036SOL    HW147005   6.761  11.705   0.732
15036SOL    HW247006   6.887  11.783   0.702
15037SOL     OW47007   0.575   6.204   0.794
15037SOL    HW147008   0.666   6.227   0.778
15037SOL    HW247009   0.545   6.269   0.858
15038SOL     OW47010   5.990   9.159   7.064
15038SOL    HW147011   5.999   9.254   7.069
15038SOL    HW247012   5.969   9.132   7.153
15039SOL     OW47013   1.131   4.260   3.416
15039SOL    HW147014   1.038   4.280   3.426
15039SOL    HW247015   1.154   4.211   3.495
15040SOL     OW47016   5.501  13.600   8.770
15040SOL    HW147017   5.423  13.590   8.825
15040SOL    HW247018   5.468  13.608   8.681
15041SOL     OW47019   2.138   3.403   3.164
15041SOL    HW147020   2.214   3.419   3.220
15041SOL    HW247021   2.066   3.387   3.225
15042SOL     OW47022   6.255   4.338   4.176
15042SOL    HW147023   6.281   4.254   4.139
15042SOL    HW247024   6.327   4.360   4.237
15043SOL     OW47025   0.780   7.105   3.556
15043SOL    HW147026   0.735   7.022   3.538
15043SOL    HW247027   0.867   7.079   3.586
15044SOL     OW47028   9.349   7.767  14.657
15044SOL    HW147029   9.358   7.673  14.645
15044SOL    HW247030   9.255   7.782  14.665
15045SOL     OW47031  11.441  14.289   8.921
15045SOL    HW147032  11.435  14.315   9.013
15045SOL    HW247033  11.530  14.314   8.895
15046SOL     OW47034   5.017   1.144   6.686
15046SOL    HW147035   5.097   1.190   6.661
15046SOL    HW247036   4.969   1.134   6.603
15047SOL     OW47037   1.330   8.764  10.944
15047SOL    HW147038   1.241   8.748  10.975
15047SOL    HW247039   1.329   8.736  10.852
15048SOL     OW47040   6.616   6.085  13.992
15048SOL    HW147041   6.614   5.998  13.952
15048SOL    HW247042   6.709   6.103  14.006
15049SOL     OW47043  10.782  13.862   7.257
15049SOL    HW147044  10.725  13.843   7.331
15049SOL    HW247045  10.835  13.936   7.285
15050SOL     OW47046  10.429   1.084   1.192
15050SOL    HW147047  10.469   1.027   1.126
15050SOL    HW247048  10.475   1.063   1.273
15051SOL     OW47049  10.451   8.618   2.071
15051SOL    HW147050  10.424   8.526   2.078
15051SOL    HW247051  10.372   8.668   2.094
15052SOL     OW47052  14.370   7.412  13.794
15052SOL    HW147053  14.445   7.359  13.765
15052SOL    HW247054  14.388   7.431  13.886
15053SOL     OW47055   4.776   1.693  13.334
15053SOL    HW147056   4.845   1.637  13.372
15053SOL    HW247057   4.695   1.661  13.374
15054SOL     OW47058   8.684   5.289   7.247
15054SOL    HW147059   8.598   5.299   7.206
15054SOL    HW247060   8.699   5.195   7.248
15055SOL     OW47061   6.331   6.070   6.788
15055SOL    HW147062   6.280   6.145   6.819
15055SOL    HW247063   6.422   6.100   6.794
15056SOL     OW47064   0.189   6.006  12.227
15056SOL    HW147065   0.126   6.060  12.179
15056SOL    HW247066   0.249   6.068  12.267
15057SOL     OW47067   7.688   5.210   7.525
15057SOL    HW147068   7.772   5.188   7.565
15057SOL    HW247069   7.624   5.163   7.578
15058SOL     OW47070   6.810   3.430  10.274
15058SOL    HW147071   6.760   3.439  10.193
15058SOL    HW247072   6.806   3.337  10.295
15059SOL     OW47073   8.100  10.918   5.810
15059SOL    HW147074   8.141  10.831   5.809
15059SOL    HW247075   8.076  10.933   5.901
15060SOL     OW47076   3.309  10.759   4.181
15060SOL    HW147077   3.307  10.821   4.107
15060SOL    HW247078   3.358  10.805   4.249
15061SOL     OW47079   4.480   5.573  13.693
15061SOL    HW147080   4.486   5.495  13.748
15061SOL    HW247081   4.429   5.545  13.617
15062SOL     OW47082   7.834   4.841   3.458
15062SOL    HW147083   7.760   4.834   3.519
15062SOL    HW247084   7.862   4.932   3.466
15063SOL     OW47085   4.497   6.702  14.206
15063SOL    HW147086   4.425   6.742  14.158
15063SOL    HW247087   4.463   6.689  14.295
15064SOL     OW47088   8.375   2.491  13.355
15064SOL    HW147089   8.419   2.572  13.328
15064SOL    HW247090   8.447   2.431  13.377
15065SOL     OW47091   7.697  11.780  11.894
15065SOL    HW147092   7.660  11.785  11.982
15065SOL    HW247093   7.628  11.739  11.841
15066SOL     OW47094   4.100   9.942  13.986
15066SOL    HW147095   4.099   9.989  13.903
15066SOL    HW247096   4.027   9.881  13.980
15067SOL     OW47097   1.603  10.804  10.867
15067SOL    HW147098   1.588  10.712  10.890
15067SOL    HW247099   1.635  10.844  10.948
15068SOL     OW47100   0.493   6.814  12.371
15068SOL    HW147101   0.577   6.775  12.396
15068SOL    HW247102   0.438   6.801  12.449
15069SOL     OW47103   4.209   5.973  10.920
15069SOL    HW147104   4.119   5.987  10.891
15069SOL    HW247105   4.245   6.061  10.931
15070SOL     OW47106   1.407   1.411  12.146
15070SOL    HW147107   1.405   1.484  12.084
15070SOL    HW247108   1.381   1.335  12.093
15071SOL     OW47109   9.212   3.317   4.064
15071SOL    HW147110   9.251   3.242   4.109
15071SOL    HW247111   9.281   3.383   4.063
15072SOL     OW47112  10.986  14.564   6.637
15072SOL    HW147113  10.983  14.531   6.547
15072SOL    HW247114  11.018  14.490   6.688
15073SOL     OW47115  12.871  11.008   3.655
15073SOL    HW147116  12.788  11.011   3.703
15073SOL    HW247117  12.847  10.989   3.565
15074SOL     OW47118   1.211   5.540   1.984
15074SOL    HW147119   1.134   5.483   1.981
15074SOL    HW247120   1.183   5.616   2.035
15075SOL     OW47121   4.693   3.515  12.901
15075SOL    HW147122   4.777   3.500  12.858
15075SOL    HW247123   4.684   3.610  12.905
15076SOL     OW47124   9.225  12.671  12.330
15076SOL    HW147125   9.307  12.687  12.378
15076SOL    HW247126   9.250  12.613  12.258
15077SOL     OW47127   4.704   5.912  13.870
15077SOL    HW147128   4.778   5.884  13.923
15077SOL    HW247129   4.628   5.866  13.907
15078SOL     OW47130   2.360   2.322   4.177
15078SOL    HW147131   2.344   2.389   4.111
15078SOL    HW247132   2.354   2.239   4.129
15079SOL     OW47133  11.633   2.122  13.255
15079SOL    HW147134  11.716   2.147  13.214
15079SOL    HW247135  11.655   2.047  13.311
15080SOL     OW47136  10.906   2.864   2.313
15080SOL    HW147137  10.812   2.850   2.328
15080SOL    HW247138  10.947   2.781   2.335
15081SOL     OW47139   5.986   7.785   5.249
15081SOL    HW147140   5.952   7.872   5.269
15081SOL    HW247141   6.068   7.801   5.202
15082SOL     OW47142   8.675  14.310   9.511
15082SOL    HW147143   8.607  14.348   9.455
15082SOL    HW247144   8.714  14.385   9.556
15083SOL     OW47145   8.730   8.885   0.847
15083SOL    HW147146   8.805   8.932   0.811
15083SOL    HW247147   8.720   8.809   0.789
15084SOL     OW47148  12.623   2.957   4.973
15084SOL    HW147149  12.705   2.936   4.930
15084SOL    HW247150  12.648   2.992   5.058
15085SOL     OW47151   0.643   8.385   3.321
15085SOL    HW147152   0.553   8.395   3.291
15085SOL    HW247153   0.644   8.427   3.407
15086SOL     OW47154   2.442   0.694  14.783
15086SOL    HW147155   2.352   0.679  14.754
15086SOL    HW247156   2.496   0.671  14.707
15087SOL     OW47157   9.754  12.533   0.054
15087SOL    HW147158   9.675  12.584   0.040
15087SOL    HW247159   9.749  12.463  14.871
15088SOL     OW47160   5.569   2.905   2.297
15088SOL    HW147161   5.606   2.982   2.252
15088SOL    HW247162   5.527   2.855   2.228
15089SOL     OW47163   4.710   6.550  11.708
15089SOL    HW147164   4.755   6.573  11.626
15089SOL    HW247165   4.739   6.461  11.728
15090SOL     OW47166   8.392   8.307   1.879
15090SOL    HW147167   8.323   8.292   1.944
15090SOL    HW247168   8.345   8.327   1.798
15091SOL     OW47169   7.968   8.836   3.204
15091SOL    HW147170   7.892   8.872   3.250
15091SOL    HW247171   7.931   8.797   3.124
15092SOL     OW47172  11.089   1.721   6.059
15092SOL    HW147173  11.075   1.780   6.133
15092SOL    HW247174  11.184   1.712   6.054
15093SOL     OW47175   0.894  13.335   9.795
15093SOL    HW147176   0.919  13.410   9.849
15093SOL    HW247177   0.975  13.310   9.750
15094SOL     OW47178   6.556   6.792   3.661
15094SOL    HW147179   6.484   6.747   3.617
15094SOL    HW247180   6.579   6.864   3.603
15095SOL     OW47181   7.523  13.151  10.321
15095SOL    HW147182   7.590  13.093  10.357
15095SOL    HW247183   7.531  13.142  10.226
15096SOL     OW47184  10.063  11.696   3.279
15096SOL    HW147185  10.113  11.760   3.229
15096SOL    HW247186   9.987  11.675   3.224
15097SOL     OW47187   8.649  10.135  12.797
15097SOL    HW147188   8.703  10.136  12.718
15097SOL    HW247189   8.645  10.042  12.822
15098SOL     OW47190   0.454  12.862   5.892
15098SOL    HW147191   0.479  12.902   5.809
15098SOL    HW247192   0.467  12.931   5.957
15099SOL     OW47193   8.295   7.959   0.865
15099SOL    HW147194   8.353   8.034   0.847
15099SOL    HW247195   8.233   7.991   0.930
15100SOL     OW47196   7.910  10.350   2.138
15100SOL    HW147197   7.843  10.402   2.182
15100SOL    HW247198   7.992  10.398   2.153
15101SOL     OW47199   8.741   0.938   4.970
15101SOL    HW147200   8.800   0.864   4.957
15101SOL    HW247201   8.754   0.963   5.061
15102SOL     OW47202   5.907  13.052   5.923
15102SOL    HW147203   5.835  13.113   5.908
15102SOL    HW247204   5.982  13.094   5.882
15103SOL     OW47205   2.169  11.436  14.584
15103SOL    HW147206   2.227  11.399  14.518
15103SOL    HW247207   2.130  11.359  14.627
15104SOL     OW47208   3.762   8.601   9.795
15104SOL    HW147209   3.785   8.693   9.807
15104SOL    HW247210   3.809   8.555   9.864
15105SOL     OW47211   5.302   2.462   7.226
15105SOL    HW147212   5.213   2.443   7.196
15105SOL    HW247213   5.336   2.377   7.254
15106SOL     OW47214   5.230   7.706  10.292
15106SOL    HW147215   5.297   7.663  10.345
15106SOL    HW247216   5.147   7.675  10.329
15107SOL     OW47217  10.726  14.823  12.244
15107SOL    HW147218  10.747  14.755  12.308
15107SOL    HW247219  10.779  14.801  12.168
15108SOL     OW47220   6.841   5.732  11.409
15108SOL    HW147221   6.819   5.706  11.320
15108SOL    HW247222   6.757   5.743  11.453
15109SOL     OW47223   7.776  10.190  12.487
15109SOL    HW147224   7.733  10.130  12.548
15109SOL    HW247225   7.869  10.170  12.496
15110SOL     OW47226   1.330   2.619   9.895
15110SOL    HW147227   1.236   2.637   9.891
15110SOL    HW247228   1.339   2.549   9.960
15111SOL     OW47229   5.381  10.507  12.749
15111SOL    HW147230   5.362  10.563  12.674
15111SOL    HW247231   5.445  10.444  12.716
15112SOL     OW47232   7.000   2.405  14.782
15112SOL    HW147233   6.974   2.345  14.711
15112SOL    HW247234   7.034   2.482  14.738
15113SOL     OW47235   4.287  13.363   5.671
15113SOL    HW147236   4.238  13.372   5.752
15113SOL    HW247237   4.263  13.439   5.619
15114SOL     OW47238  11.376   6.940  10.685
15114SOL    HW147239  11.363   7.035  10.697
15114SOL    HW247240  11.410   6.932  10.597
15115SOL     OW47241  14.477   7.705   4.200
15115SOL    HW147242  14.460   7.653   4.279
15115SOL    HW247243  14.493   7.640   4.132
15116SOL     OW47244  14.306   8.696   1.628
15116SOL    HW147245  14.372   8.679   1.561
15116SOL    HW247246  14.223   8.695   1.581
15117SOL     OW47247  13.048   6.233   2.659
15117SOL    HW147248  13.063   6.244   2.565
15117SOL    HW247249  12.965   6.276   2.676
15118SOL     OW47250   4.390   8.685  13.004
15118SOL    HW147251   4.335   8.740  13.059
15118SOL    HW247252   4.477   8.726  13.010
15119SOL     OW47253   1.932  10.127   7.862
15119SOL    HW147254   1.904  10.056   7.805
15119SOL    HW247255   1.940  10.087   7.949
15120SOL     OW47256   3.864   3.122  13.012
15120SOL    HW147257   3.891   3.161  12.929
15120SOL    HW247258   3.879   3.190  13.077
15121SOL     OW47259   9.651   7.187   9.354
15121SOL    HW147260   9.739   7.210   9.383
15121SOL    HW247261   9.616   7.267   9.314
15122SOL     OW47262   1.572  10.576   0.676
15122SOL    HW147263   1.623  10.655   0.657
15122SOL    HW247264   1.622  10.505   0.635
15123SOL     OW47265   0.876   9.548   5.244
15123SOL    HW147266   0.881   9.453   5.235
15123SOL    HW247267   0.919   9.582   5.165
15124SOL     OW47268  10.336  13.603   6.090
15124SOL    HW147269  10.415  13.608   6.036
15124SOL    HW247270  10.269  13.649   6.039
15125SOL     OW47271   4.620   0.750  11.634
15125SOL    HW147272   4.611   0.675  11.692
15125SOL    HW247273   4.645   0.823  11.691
15126SOL     OW47274  10.089   4.469   1.572
15126SOL    HW147275  10.177   4.481   1.537
15126SOL    HW247276  10.076   4.374   1.572
15127SOL     OW47277   6.507  10.896   5.321
15127SOL    HW147278   6.529  10.810   5.355
15127SOL    HW247279   6.442  10.879   5.253
15128SOL     OW47280   7.286   0.458  14.729
15128SOL    HW147281   7.382   0.456  14.727
15128SOL    HW247282   7.265   0.551  14.724
15129SOL     OW47283   4.563   8.510   5.967
15129SOL    HW147284   4.658   8.515   5.967
15129SOL    HW247285   4.542   8.444   5.902
15130SOL     OW47286   5.294  13.645   2.432
15130SOL    HW147287   5.306  13.622   2.340
15130SOL    HW247288   5.383  13.663   2.463
15131SOL     OW47289   9.033   4.375  11.833
15131SOL    HW147290   9.023   4.361  11.739
15131SOL    HW247291   8.985   4.302  11.873
15132SOL     OW47292  14.476  13.148   7.200
15132SOL    HW147293  14.540  13.212   7.231
15132SOL    HW247294  14.421  13.197   7.139
15133SOL     OW47295   9.459  14.572   9.483
15133SOL    HW147296   9.482  14.502   9.544
15133SOL    HW247297   9.368  14.594   9.505
15134SOL     OW47298  14.013   1.584  14.637
15134SOL    HW147299  14.084   1.587  14.573
15134SOL    HW247300  14.020   1.667  14.684
15135SOL     OW47301   8.144  10.492   5.753
15135SOL    HW147302   8.206  10.565   5.756
15135SOL    HW247303   8.101  10.493   5.839
15136SOL     OW47304   3.203   6.105   2.919
15136SOL    HW147305   3.245   6.160   2.985
15136SOL    HW247306   3.271   6.086   2.855
15137SOL     OW47307   5.246  12.299  14.058
15137SOL    HW147308   5.157  12.322  14.088
15137SOL    HW247309   5.232  12.255  13.974
15138SOL     OW47310  11.750   7.819   5.600
15138SOL    HW147311  11.669   7.829   5.550
15138SOL    HW247312  11.779   7.909   5.617
15139SOL     OW47313   1.973   9.291   7.664
15139SOL    HW147314   1.937   9.298   7.753
15139SOL    HW247315   1.916   9.227   7.621
15140SOL     OW47316   5.132   7.816  10.061
15140SOL    HW147317   5.143   7.722  10.042
15140SOL    HW247318   5.138   7.822  10.156
15141SOL     OW47319   5.746   1.367   1.467
15141SOL    HW147320   5.774   1.338   1.554
15141SOL    HW247321   5.671   1.424   1.484
15142SOL     OW47322   3.706  11.005   3.012
15142SOL    HW147323   3.728  11.096   3.032
15142SOL    HW247324   3.650  10.978   3.085
15143SOL     OW47325   1.746   5.343   3.643
15143SOL    HW147326   1.819   5.283   3.658
15143SOL    HW247327   1.778   5.427   3.676
15144SOL     OW47328  12.181   5.658  12.663
15144SOL    HW147329  12.232   5.738  12.676
15144SOL    HW247330  12.093   5.690  12.641
15145SOL     OW47331   2.487   0.085  11.252
15145SOL    HW147332   2.534   0.076  11.169
15145SOL    HW247333   2.555   0.107  11.316
15146SOL     OW47334  13.246   0.774  14.304
15146SOL    HW147335  13.229   0.705  14.239
15146SOL    HW247336  13.200   0.745  14.383
15147SOL     OW47337   8.624   3.623  13.708
15147SOL    HW147338   8.705   3.618  13.658
15147SOL    HW247339   8.636   3.561  13.780
15148SOL     OW47340   0.123  10.847   9.141
15148SOL    HW147341   0.087  10.861   9.053
15148SOL    HW247342   0.056  10.881   9.200
15149SOL     OW47343  12.019   5.380   8.991
15149SOL    HW147344  12.007   5.410   9.080
15149SOL    HW247345  12.114   5.384   8.977
15150SOL     OW47346   7.804   3.812   7.371
15150SOL    HW147347   7.729   3.867   7.352
15150SOL    HW247348   7.859   3.865   7.428
15151SOL     OW47349   7.127  11.139  14.749
15151SOL    HW147350   7.118  11.087  14.668
15151SOL    HW247351   7.095  11.225  14.726
15152SOL     OW47352   5.005  13.192   4.514
15152SOL    HW147353   4.952  13.271   4.506
15152SOL    HW247354   5.033  13.173   4.425
15153SOL     OW47355   7.448   5.167  11.219
15153SOL    HW147356   7.524   5.110  11.206
15153SOL    HW247357   7.386   5.139  11.152
15154SOL     OW47358   6.706   8.614   5.702
15154SOL    HW147359   6.725   8.618   5.795
15154SOL    HW247360   6.741   8.697   5.667
15155SOL     OW47361  11.490   0.026   3.114
15155SOL    HW147362  11.454  14.882   3.199
15155SOL    HW247363  11.584   0.010   3.122
15156SOL     OW47364   9.963   0.932   4.146
15156SOL    HW147365   9.887   0.900   4.098
15156SOL    HW247366  10.008   0.990   4.085
15157SOL     OW47367   2.591   3.772  11.534
15157SOL    HW147368   2.643   3.693  11.541
15157SOL    HW247369   2.536   3.773  11.612
15158SOL     OW47370   9.166  10.642   0.621
15158SOL    HW147371   9.092  10.631   0.681
15158SOL    HW247372   9.125  10.654   0.535
15159SOL     OW47373   7.756   0.292  12.836
15159SOL    HW147374   7.739   0.273  12.744
15159SOL    HW247375   7.713   0.221  12.884
15160SOL     OW47376  10.012   2.049   3.723
15160SOL    HW147377  10.070   2.061   3.799
15160SOL    HW247378  10.053   1.978   3.673
15161SOL     OW47379  11.147   3.652   9.445
15161SOL    HW147380  11.140   3.746   9.426
15161SOL    HW247381  11.139   3.646   9.540
15162SOL     OW47382   4.632   5.652   9.591
15162SOL    HW147383   4.697   5.719   9.569
15162SOL    HW247384   4.666   5.611   9.670
15163SOL     OW47385   5.672   4.337   4.415
15163SOL    HW147386   5.602   4.370   4.359
15163SOL    HW247387   5.744   4.398   4.401
15164SOL     OW47388  10.085  10.849   0.624
15164SOL    HW147389  10.054  10.852   0.714
15164SOL    HW247390  10.117  10.759   0.613
15165SOL     OW47391   3.773   8.142   1.182
15165SOL    HW147392   3.700   8.202   1.164
15165SOL    HW247393   3.758   8.068   1.123
15166SOL     OW47394   9.970   6.007   7.555
15166SOL    HW147395   9.893   6.011   7.498
15166SOL    HW247396  10.022   6.083   7.530
15167SOL     OW47397   9.810   6.826  14.095
15167SOL    HW147398   9.846   6.888  14.031
15167SOL    HW247399   9.887   6.788  14.137
15168SOL     OW47400   2.900  11.477   6.225
15168SOL    HW147401   2.841  11.415   6.182
15168SOL    HW247402   2.881  11.467   6.318
15169SOL     OW47403   4.309   5.559   7.393
15169SOL    HW147404   4.364   5.503   7.338
15169SOL    HW247405   4.349   5.646   7.384
15170SOL     OW47406  12.932  11.018  10.017
15170SOL    HW147407  12.854  10.974  10.052
15170SOL    HW247408  12.899  11.074   9.948
15171SOL     OW47409   0.413   1.134   2.943
15171SOL    HW147410   0.479   1.198   2.970
15171SOL    HW247411   0.334   1.185   2.926
15172SOL     OW47412  13.225   2.900  12.411
15172SOL    HW147413  13.306   2.921  12.364
15172SOL    HW247414  13.156   2.912  12.346
15173SOL     OW47415   9.761   5.358   0.597
15173SOL    HW147416   9.676   5.354   0.640
15173SOL    HW247417   9.777   5.270   0.565
15174SOL     OW47418   5.271   2.547   1.338
15174SOL    HW147419   5.178   2.573   1.338
15174SOL    HW247420   5.277   2.483   1.408
15175SOL     OW47421   4.837   5.494  12.764
15175SOL    HW147422   4.767   5.438  12.729
15175SOL    HW247423   4.797   5.539  12.838
15176SOL     OW47424  10.660   3.543   9.528
15176SOL    HW147425  10.604   3.620   9.545
15176SOL    HW247426  10.672   3.542   9.434
15177SOL     OW47427  10.120  10.114  10.018
15177SOL    HW147428  10.122  10.167  10.098
15177SOL    HW247429  10.158  10.030  10.043
15178SOL     OW47430  13.742   0.490   8.426
15178SOL    HW147431  13.816   0.513   8.482
15178SOL    HW247432  13.781   0.441   8.354
15179SOL     OW47433   2.553  12.518  10.840
15179SOL    HW147434   2.627  12.458  10.850
15179SOL    HW247435   2.514  12.495  10.756
15180SOL     OW47436   0.800   7.272  10.344
15180SOL    HW147437   0.837   7.201  10.396
15180SOL    HW247438   0.727   7.304  10.395
15181SOL     OW47439   1.499  13.098   3.279
15181SOL    HW147440   1.512  13.157   3.205
15181SOL    HW247441   1.409  13.115   3.308
15182SOL     OW47442  11.958   0.031   5.397
15182SOL    HW147443  11.944  14.835   5.342
15182SOL    HW247444  12.027   0.079   5.351
15183SOL     OW47445   1.150  14.556   1.274
15183SOL    HW147446   1.233  14.602   1.276
15183SOL    HW247447   1.148  14.511   1.190
15184SOL     OW47448   8.306   7.821  12.083
15184SOL    HW147449   8.260   7.785  12.158
15184SOL    HW247450   8.263   7.782  12.007
15185SOL     OW47451  10.168   3.240   9.357
15185SOL    HW147452  10.108   3.219   9.429
15185SOL    HW247453  10.213   3.158   9.338
15186SOL     OW47454  13.697   3.687   1.311
15186SOL    HW147455  13.790   3.712   1.312
15186SOL    HW247456  13.689   3.629   1.235
15187SOL     OW47457  13.044   3.592   4.553
15187SOL    HW147458  12.999   3.529   4.496
15187SOL    HW247459  13.020   3.677   4.518
15188SOL     OW47460   0.043   3.560   4.811
15188SOL    HW147461   0.130   3.590   4.836
15188SOL    HW247462   0.043   3.562   4.716
15189SOL     OW47463   3.226   1.708   7.255
15189SOL    HW147464   3.166   1.703   7.329
15189SOL    HW247465   3.313   1.705   7.295
15190SOL     OW47466   4.738   1.977   2.430
15190SOL    HW147467   4.750   2.063   2.390
15190SOL    HW247468   4.689   1.994   2.510
15191SOL     OW47469   3.460   5.263  10.866
15191SOL    HW147470   3.533   5.260  10.804
15191SOL    HW247471   3.382   5.253  10.812
15192SOL     OW47472   0.662   0.777   8.472
15192SOL    HW147473   0.747   0.801   8.436
15192SOL    HW247474   0.682   0.712   8.540
15193SOL     OW47475   6.146  11.373  13.786
15193SOL    HW147476   6.214  11.314  13.754
15193SOL    HW247477   6.084  11.316  13.832
15194SOL     OW47478  11.929   6.806   0.360
15194SOL    HW147479  11.943   6.712   0.357
15194SOL    HW247480  11.898   6.830   0.273
15195SOL     OW47481   0.814   9.698  13.301
15195SOL    HW147482   0.781   9.783  13.271
15195SOL    HW247483   0.817   9.644  13.221
15196SOL     OW47484   9.014   9.264  10.222
15196SOL    HW147485   8.948   9.250  10.290
15196SOL    HW247486   8.970   9.318  10.157
15197SOL     OW47487  12.324   4.794   6.757
15197SOL    HW147488  12.369   4.750   6.685
15197SOL    HW247489  12.323   4.887   6.732
15198SOL     OW47490  11.345   6.578   9.072
15198SOL    HW147491  11.403   6.642   9.114
15198SOL    HW247492  11.359   6.590   8.978
15199SOL     OW47493  10.910   1.736   4.920
15199SOL    HW147494  10.857   1.717   4.842
15199SOL    HW247495  10.975   1.800   4.890
15200SOL     OW47496   2.269   2.825   1.208
15200SOL    HW147497   2.261   2.747   1.152
15200SOL    HW247498   2.181   2.838   1.245
15201SOL     OW47499   7.595  14.197  11.614
15201SOL    HW147500   7.507  14.159  11.611
15201SOL    HW247501   7.630  14.184  11.526
15202SOL     OW47502  13.856   2.123   1.007
15202SOL    HW147503  13.769   2.110   1.045
15202SOL    HW247504  13.846   2.201   0.952
15203SOL     OW47505   0.969   7.813  10.323
15203SOL    HW147506   0.956   7.908  10.322
15203SOL    HW247507   1.059   7.802  10.292
15204SOL     OW47508  13.460  13.086  11.034
15204SOL    HW147509  13.424  13.012  10.985
15204SOL    HW247510  13.550  13.061  11.053
15205SOL     OW47511  12.626  10.358   7.356
15205SOL    HW147512  12.562  10.288   7.371
15205SOL    HW247513  12.692  10.344   7.424
15206SOL     OW47514   3.159   4.305  14.181
15206SOL    HW147515   3.239   4.331  14.225
15206SOL    HW247516   3.090   4.354  14.226
15207SOL     OW47517  11.622   9.995  10.344
15207SOL    HW147518  11.540   9.973  10.299
15207SOL    HW247519  11.690   9.985  10.276
15208SOL     OW47520   8.387  12.087  12.342
15208SOL    HW147521   8.368  12.039  12.262
15208SOL    HW247522   8.438  12.163  12.313
15209SOL     OW47523  11.400  12.526   3.726
15209SOL    HW147524  11.316  12.559   3.692
15209SOL    HW247525  11.375  12.454   3.784
15210SOL     OW47526   9.727   1.511   7.818
15210SOL    HW147527   9.716   1.539   7.726
15210SOL    HW247528   9.754   1.420   7.812
15211SOL     OW47529   0.191   1.584  11.711
15211SOL    HW147530   0.286   1.593  11.705
15211SOL    HW247531   0.169   1.522  11.641
15212SOL     OW47532   1.529  13.239   5.483
15212SOL    HW147533   1.609  13.237   5.536
15212SOL    HW247534   1.509  13.146   5.468
15213SOL     OW47535  10.848  12.070   8.819
15213SOL    HW147536  10.941  12.081   8.837
15213SOL    HW247537  10.840  11.979   8.789
15214SOL     OW47538   4.473   6.595   1.095
15214SOL    HW147539   4.445   6.605   1.186
15214SOL    HW247540   4.569   6.604   1.098
15215SOL     OW47541   3.708   5.137   1.739
15215SOL    HW147542   3.651   5.180   1.803
15215SOL    HW247543   3.653   5.124   1.663
15216SOL     OW47544   7.259   7.392  10.848
15216SOL    HW147545   7.355   7.384  10.846
15216SOL    HW247546   7.234   7.403  10.756
15217SOL     OW47547   6.399   3.077   0.776
15217SOL    HW147548   6.346   3.127   0.838
15217SOL    HW247549   6.489   3.083   0.809
15218SOL     OW47550   6.718   1.992   5.992
15218SOL    HW147551   6.811   2.000   5.971
15218SOL    HW247552   6.714   2.000   6.087
15219SOL     OW47553  13.516   0.466   9.388
15219SOL    HW147554  13.431   0.506   9.404
15219SOL    HW247555  13.536   0.486   9.297
15220SOL     OW47556   5.995  14.051   2.904
15220SOL    HW147557   6.011  14.110   2.977
15220SOL    HW247558   5.945  14.103   2.841
15221SOL     OW47559  14.026  13.687   3.624
15221SOL    HW147560  13.978  13.663   3.704
15221SOL    HW247561  14.063  13.604   3.593
15222SOL     OW47562  10.685   3.442  10.111
15222SOL    HW147563  10.608   3.406  10.155
15222SOL    HW247564  10.687   3.534  10.138
15223SOL     OW47565   4.822  10.011   1.432
15223SOL    HW147566   4.841   9.917   1.428
15223SOL    HW247567   4.741  10.021   1.383
15224SOL     OW47568   1.373  10.642  12.297
15224SOL    HW147569   1.412  10.725  12.325
15224SOL    HW247570   1.446  10.593  12.258
15225SOL     OW47571   3.097   4.901   7.584
15225SOL    HW147572   3.150   4.835   7.629
15225SOL    HW247573   3.158   4.970   7.561
15226SOL     OW47574   9.803   7.858   2.461
15226SOL    HW147575   9.787   7.922   2.392
15226SOL    HW247576   9.787   7.905   2.542
15227SOL     OW47577   2.621   7.979  14.123
15227SOL    HW147578   2.528   7.964  14.105
15227SOL    HW247579   2.648   7.903  14.174
15228SOL     OW47580   8.608  13.009  12.407
15228SOL    HW147581   8.575  13.024  12.319
15228SOL    HW247582   8.532  12.979  12.457
15229SOL     OW47583   3.809   7.338  12.509
15229SOL    HW147584   3.771   7.277  12.447
15229SOL    HW247585   3.840   7.411  12.456
15230SOL     OW47586   9.011  10.450   6.758
15230SOL    HW147587   8.998  10.465   6.664
15230SOL    HW247588   9.068  10.374   6.763
15231SOL     OW47589  13.822  13.872   7.106
15231SOL    HW147590  13.877  13.839   7.177
15231SOL    HW247591  13.796  13.960   7.135
15232SOL     OW47592   6.355  13.540   1.870
15232SOL    HW147593   6.429  13.483   1.852
15232SOL    HW247594   6.383  13.627   1.841
15233SOL     OW47595   4.174   8.128   4.391
15233SOL    HW147596   4.215   8.188   4.329
15233SOL    HW247597   4.170   8.178   4.473
15234SOL     OW47598   7.085   8.235  12.218
15234SOL    HW147599   7.154   8.192  12.167
15234SOL    HW247600   7.007   8.182  12.200
15235SOL     OW47601   2.833   4.907  14.687
15235SOL    HW147602   2.791   4.823  14.667
15235SOL    HW247603   2.797   4.932  14.772
15236SOL     OW47604   9.093  14.420   1.242
15236SOL    HW147605   9.013  14.438   1.292
15236SOL    HW247606   9.097  14.490   1.178
15237SOL     OW47607   3.496   7.763  13.857
15237SOL    HW147608   3.567   7.761  13.922
15237SOL    HW247609   3.422   7.802  13.903
15238SOL     OW47610  10.723   2.812   1.129
15238SOL    HW147611  10.778   2.761   1.069
15238SOL    HW247612  10.665   2.746   1.168
15239SOL     OW47613  13.515   7.242   8.109
15239SOL    HW147614  13.439   7.295   8.085
15239SOL    HW247615  13.586   7.277   8.054
15240SOL     OW47616  11.916   0.848   6.412
15240SOL    HW147617  11.888   0.818   6.325
15240SOL    HW247618  11.931   0.942   6.400
15241SOL     OW47619   6.992   2.850   4.498
15241SOL    HW147620   6.938   2.862   4.576
15241SOL    HW247621   6.951   2.777   4.452
15242SOL     OW47622   4.296  12.656  14.531
15242SOL    HW147623   4.345  12.597  14.473
15242SOL    HW247624   4.211  12.667  14.488
15243SOL     OW47625   7.950   7.702   2.195
15243SOL    HW147626   7.991   7.689   2.281
15243SOL    HW247627   7.870   7.750   2.214
15244SOL     OW47628  14.047   8.974   4.212
15244SOL    HW147629  14.034   9.046   4.150
15244SOL    HW247630  13.968   8.920   4.203
15245SOL     OW47631   9.891  11.525   9.041
15245SOL    HW147632   9.895  11.439   9.084
15245SOL    HW247633   9.818  11.570   9.084
15246SOL     OW47634   0.580   2.302  13.626
15246SOL    HW147635   0.659   2.311  13.572
15246SOL    HW247636   0.509   2.333  13.571
15247SOL     OW47637   2.483   5.179   5.165
15247SOL    HW147638   2.440   5.094   5.178
15247SOL    HW247639   2.411   5.242   5.156
15248SOL     OW47640   1.257   7.636  11.777
15248SOL    HW147641   1.288   7.602  11.693
15248SOL    HW247642   1.213   7.561  11.817
15249SOL     OW47643  13.315  13.260   7.883
15249SOL    HW147644  13.252  13.332   7.894
15249SOL    HW247645  13.266  13.182   7.908
15250SOL     OW47646  14.789  13.389  11.061
15250SOL    HW147647  14.830  13.408  11.145
15250SOL    HW247648  14.722  13.324  11.081
15251SOL     OW47649   2.642  13.541   9.938
15251SOL    HW147650   2.678  13.457   9.965
15251SOL    HW247651   2.631  13.532   9.843
15252SOL     OW47652  11.169   6.039  14.496
15252SOL    HW147653  11.177   5.945  14.483
15252SOL    HW247654  11.257   6.067  14.522
15253SOL     OW47655   7.599   9.327   6.286
15253SOL    HW147656   7.560   9.249   6.326
15253SOL    HW247657   7.609   9.304   6.194
15254SOL     OW47658   5.269   1.024   4.179
15254SOL    HW147659   5.287   1.034   4.272
15254SOL    HW247660   5.349   0.987   4.142
15255SOL     OW47661   0.961  14.579   7.837
15255SOL    HW147662   1.045  14.610   7.871
15255SOL    HW247663   0.956  14.615   7.748
15256SOL     OW47664   9.783   6.922   0.452
15256SOL    HW147665   9.701   6.968   0.469
15256SOL    HW247666   9.840   6.946   0.525
15257SOL     OW47667   6.546  10.238  14.157
15257SOL    HW147668   6.538  10.214  14.250
15257SOL    HW247669   6.467  10.289  14.139
15258SOL     OW47670   7.915   1.576   5.928
15258SOL    HW147671   7.888   1.486   5.908
15258SOL    HW247672   7.968   1.602   5.853
15259SOL     OW47673  13.440   3.372  12.914
15259SOL    HW147674  13.465   3.464  12.922
15259SOL    HW247675  13.517   3.323  12.943
15260SOL     OW47676   0.727   2.459  13.283
15260SOL    HW147677   0.803   2.416  13.243
15260SOL    HW247678   0.662   2.463  13.213
15261SOL     OW47679  13.666   5.445   6.420
15261SOL    HW147680  13.692   5.535   6.400
15261SOL    HW247681  13.574   5.440   6.397
15262SOL     OW47682  12.675   7.797   7.551
15262SOL    HW147683  12.622   7.869   7.585
15262SOL    HW247684  12.697   7.824   7.462
15263SOL     OW47685  14.299   9.504  10.229
15263SOL    HW147686  14.307   9.435  10.294
15263SOL    HW247687  14.342   9.580  10.269
15264SOL     OW47688   6.727  11.090   3.559
15264SOL    HW147689   6.785  11.043   3.619
15264SOL    HW247690   6.774  11.092   3.476
15265SOL     OW47691  12.382   5.820   5.183
15265SOL    HW147692  12.376   5.756   5.113
15265SOL    HW247693  12.477   5.831   5.197
15266SOL     OW47694   9.644   8.056  13.644
15266SOL    HW147695   9.725   8.075  13.693
15266SOL    HW247696   9.658   7.969  13.608
15267SOL     OW47697  10.699  14.233   3.133
15267SOL    HW147698  10.643  14.155   3.140
15267SOL    HW247699  10.740  14.226   3.047
15268SOL     OW47700   2.477   5.244  11.790
15268SOL    HW147701   2.455   5.168  11.736
15268SOL    HW247702   2.503   5.312  11.728
15269SOL     OW47703  10.833   6.231  12.532
15269SOL    HW147704  10.905   6.219  12.470
15269SOL    HW247705  10.864   6.297  12.593
15270SOL     OW47706   7.077   6.418  13.927
15270SOL    HW147707   7.040   6.463  14.004
15270SOL    HW247708   7.169   6.404  13.950
15271SOL     OW47709   3.529   5.216   4.318
15271SOL    HW147710   3.567   5.215   4.230
15271SOL    HW247711   3.518   5.309   4.337
15272SOL     OW47712   7.130   4.064   6.127
15272SOL    HW147713   7.204   4.119   6.102
15272SOL    HW247714   7.078   4.055   6.047
15273SOL     OW47715  14.667   7.246  11.907
15273SOL    HW147716  14.654   7.153  11.892
15273SOL    HW247717  14.762   7.257  11.913
15274SOL     OW47718   4.130   2.427   5.775
15274SOL    HW147719   4.055   2.402   5.722
15274SOL    HW247720   4.177   2.492   5.723
15275SOL     OW47721   6.758   4.705   2.145
15275SOL    HW147722   6.666   4.733   2.143
15275SOL    HW247723   6.756   4.621   2.191
15276SOL     OW47724   0.619   2.711   3.194
15276SOL    HW147725   0.593   2.754   3.113
15276SOL    HW247726   0.712   2.693   3.182
15277SOL     OW47727   2.278   6.863  11.980
15277SOL    HW147728   2.238   6.942  11.945
15277SOL    HW247729   2.212   6.827  12.039
15278SOL     OW47730   0.980  12.022   8.579
15278SOL    HW147731   1.067  11.993   8.608
15278SOL    HW247732   0.919  11.973   8.635
15279SOL     OW47733   8.791   3.232  10.113
15279SOL    HW147734   8.792   3.264  10.204
15279SOL    HW247735   8.882   3.215  10.092
15280SOL     OW47736   8.365   2.087   1.681
15280SOL    HW147737   8.351   2.147   1.607
15280SOL    HW247738   8.277   2.058   1.706
15281SOL     OW47739   8.684   3.228  13.143
15281SOL    HW147740   8.663   3.321  13.146
15281SOL    HW247741   8.601   3.184  13.126
15282SOL     OW47742   2.240   3.298  12.608
15282SOL    HW147743   2.171   3.365  12.606
15282SOL    HW247744   2.309   3.334  12.553
15283SOL     OW47745   0.554   9.986  10.927
15283SOL    HW147746   0.510  10.063  10.963
15283SOL    HW247747   0.586  10.014  10.841
15284SOL     OW47748   5.711   4.845  11.438
15284SOL    HW147749   5.749   4.931  11.450
15284SOL    HW247750   5.620   4.862  11.412
15285SOL     OW47751  10.636   7.072   5.786
15285SOL    HW147752  10.671   7.004   5.728
15285SOL    HW247753  10.639   7.152   5.734
15286SOL     OW47754   4.084  14.074  14.292
15286SOL    HW147755   4.130  14.014  14.351
15286SOL    HW247756   3.993  14.071  14.320
15287SOL     OW47757   1.934   8.287  10.452
15287SOL    HW147758   1.903   8.224  10.517
15287SOL    HW247759   2.012   8.246  10.415
15288SOL     OW47760  14.791  10.003  14.156
15288SOL    HW147761  14.853  10.001  14.229
15288SOL    HW247762  14.843  10.028  14.080
15289SOL     OW47763   7.049  11.477  10.041
15289SOL    HW147764   7.079  11.471   9.950
15289SOL    HW247765   7.027  11.569  10.052
15290SOL     OW47766   7.259   6.230   3.901
15290SOL    HW147767   7.332   6.275   3.858
15290SOL    HW247768   7.190   6.295   3.906
15291SOL     OW47769  11.522   0.979   2.370
15291SOL    HW147770  11.561   1.050   2.318
15291SOL    HW247771  11.469   1.023   2.435
15292SOL     OW47772   5.622  12.100  11.417
15292SOL    HW147773   5.688  12.132  11.479
15292SOL    HW247774   5.547  12.159  11.429
15293SOL     OW47775   4.328  10.808   2.637
15293SOL    HW147776   4.411  10.766   2.659
15293SOL    HW247777   4.269  10.782   2.708
15294SOL     OW47778   6.531   0.038   2.075
15294SOL    HW147779   6.444   0.077   2.084
15294SOL    HW247780   6.543  14.869   2.154
15295SOL     OW47781   6.983  13.925  13.586
15295SOL    HW147782   7.023  13.842  13.563
15295SOL    HW247783   6.889  13.907  13.587
15296SOL     OW47784   5.422   8.228   9.970
15296SOL    HW147785   5.367   8.280  10.028
15296SOL    HW247786   5.511   8.257   9.989
15297SOL     OW47787   5.614   0.155  13.749
15297SOL    HW147788   5.544   0.122  13.805
15297SOL    HW247789   5.575   0.156  13.661
15298SOL     OW47790   6.917  13.632  14.860
15298SOL    HW147791   6.879  13.611   0.064
15298SOL    HW247792   7.012  13.632  14.876
15299SOL     OW47793   9.391   5.910  10.719
15299SOL    HW147794   9.306   5.944  10.691
15299SOL    HW247795   9.440   5.988  10.747
15300SOL     OW47796   4.071   2.163   4.969
15300SOL    HW147797   3.977   2.146   4.970
15300SOL    HW247798   4.108   2.087   4.923
15301SOL     OW47799   3.873  13.671  14.243
15301SOL    HW147800   3.853  13.656  14.151
15301SOL    HW247801   3.811  13.738  14.271
15302SOL     OW47802  11.686  12.962  12.960
15302SOL    HW147803  11.674  12.927  12.872
15302SOL    HW247804  11.750  12.904  13.001
15303SOL     OW47805   5.748  10.837   6.030
15303SOL    HW147806   5.680  10.775   6.006
15303SOL    HW247807   5.754  10.831   6.125
15304SOL     OW47808   9.962   7.701   3.837
15304SOL    HW147809   9.881   7.698   3.786
15304SOL    HW247810   9.982   7.794   3.845
15305SOL     OW47811   5.226   4.876  10.073
15305SOL    HW147812   5.288   4.877  10.000
15305SOL    HW247813   5.141   4.892  10.033
15306SOL     OW47814   3.307  11.136  10.833
15306SOL    HW147815   3.334  11.086  10.910
15306SOL    HW247816   3.388  11.151  10.785
15307SOL     OW47817   2.397   1.020   9.568
15307SOL    HW147818   2.322   0.993   9.515
15307SOL    HW247819   2.472   0.973   9.530
15308SOL     OW47820  13.837   5.809   1.525
15308SOL    HW147821  13.816   5.742   1.590
15308SOL    HW247822  13.933   5.815   1.527
15309SOL     OW47823   5.613  10.009  13.459
15309SOL    HW147824   5.560  10.024  13.380
15309SOL    HW247825   5.581  10.075  13.521
15310SOL     OW47826   9.227   2.627  12.077
15310SOL    HW147827   9.198   2.555  12.021
15310SOL    HW247828   9.260   2.584  12.156
15311SOL     OW47829  13.948   0.125   7.246
15311SOL    HW147830  13.928   0.218   7.250
15311SOL    HW247831  14.044   0.121   7.239
15312SOL     OW47832   7.439   6.814  11.398
15312SOL    HW147833   7.355   6.832  11.355
15312SOL    HW247834   7.459   6.723  11.375
15313SOL     OW47835   9.966  14.520   6.823
15313SOL    HW147836   9.948  14.510   6.730
15313SOL    HW247837   9.948  14.434   6.860
15314SOL     OW47838  13.593   5.899   3.723
15314SOL    HW147839  13.538   5.967   3.760
15314SOL    HW247840  13.556   5.817   3.756
15315SOL     OW47841  13.708   0.956   5.932
15315SOL    HW147842  13.652   0.987   5.861
15315SOL    HW247843  13.662   0.879   5.966
15316SOL     OW47844   1.977   6.061   2.402
15316SOL    HW147845   2.008   6.051   2.312
15316SOL    HW247846   1.996   5.977   2.443
15317SOL     OW47847   0.583   5.411   9.753
15317SOL    HW147848   0.586   5.349   9.680
15317SOL    HW247849   0.494   5.445   9.752
15318SOL     OW47850   8.936   8.398  12.067
15318SOL    HW147851   8.860   8.451  12.090
15318SOL    HW247852   8.929   8.321  12.123
15319SOL     OW47853   1.620  10.901  10.370
15319SOL    HW147854   1.561  10.919  10.443
15319SOL    HW247855   1.577  10.831  10.320
15320SOL     OW47856  11.249   9.359   5.355
15320SOL    HW147857  11.217   9.442   5.319
15320SOL    HW247858  11.180   9.331   5.415
15321SOL     OW47859   8.267   4.317   0.168
15321SOL    HW147860   8.229   4.293   0.084
15321SOL    HW247861   8.219   4.264   0.232
15322SOL     OW47862   9.689   9.394   0.396
15322SOL    HW147863   9.758   9.460   0.404
15322SOL    HW247864   9.610   9.443   0.373
15323SOL     OW47865  10.121   2.701   0.051
15323SOL    HW147866  10.152   2.627  14.880
15323SOL    HW247867  10.199   2.732   0.097
15324SOL     OW47868   2.276  14.138  14.359
15324SOL    HW147869   2.334  14.183  14.297
15324SOL    HW247870   2.331  14.122  14.436
15325SOL     OW47871   4.517  13.288   0.665
15325SOL    HW147872   4.573  13.354   0.707
15325SOL    HW247873   4.430  13.305   0.701
15326SOL     OW47874   8.279  12.241   0.650
15326SOL    HW147875   8.244  12.169   0.596
15326SOL    HW247876   8.215  12.311   0.641
15327SOL     OW47877  11.192   6.983  13.493
15327SOL    HW147878  11.230   6.919  13.434
15327SOL    HW247879  11.227   6.960  13.579
15328SOL     OW47880   6.268  11.862  11.106
15328SOL    HW147881   6.283  11.826  11.019
15328SOL    HW247882   6.264  11.785  11.163
15329SOL     OW47883  11.526   3.507  10.214
15329SOL    HW147884  11.581   3.564  10.268
15329SOL    HW247885  11.473   3.458  10.276
15330SOL     OW47886   2.607   8.833   2.316
15330SOL    HW147887   2.668   8.793   2.378
15330SOL    HW247888   2.551   8.889   2.370
15331SOL     OW47889   9.851   7.632   1.102
15331SOL    HW147890   9.906   7.571   1.053
15331SOL    HW247891   9.848   7.597   1.191
15332SOL     OW47892   2.905   2.285   3.699
15332SOL    HW147893   2.904   2.189   3.697
15332SOL    HW247894   2.905   2.311   3.607
15333SOL     OW47895   0.111   5.913   7.600
15333SOL    HW147896   0.201   5.941   7.614
15333SOL    HW247897   0.105   5.827   7.642
15334SOL     OW47898   8.225  13.348  13.653
15334SOL    HW147899   8.262  13.401  13.582
15334SOL    HW247900   8.277  13.370  13.730
15335SOL     OW47901   2.496   0.270  13.427
15335SOL    HW147902   2.429   0.316  13.376
15335SOL    HW247903   2.507   0.187  13.383
15336SOL     OW47904   4.470   4.262  13.879
15336SOL    HW147905   4.402   4.241  13.816
15336SOL    HW247906   4.534   4.192  13.869
15337SOL     OW47907  10.922  14.169  13.689
15337SOL    HW147908  10.994  14.222  13.725
15337SOL    HW247909  10.911  14.097  13.751
15338SOL     OW47910   0.367   3.811   1.103
15338SOL    HW147911   0.309   3.887   1.110
15338SOL    HW247912   0.447   3.846   1.063
15339SOL     OW47913  11.026  12.962   6.200
15339SOL    HW147914  10.971  13.015   6.143
15339SOL    HW247915  10.966  12.901   6.242
15340SOL     OW47916  12.291   1.934   9.577
15340SOL    HW147917  12.278   1.952   9.484
15340SOL    HW247918  12.214   1.972   9.620
15341SOL     OW47919  11.587  10.986   2.500
15341SOL    HW147920  11.665  11.019   2.544
15341SOL    HW247921  11.516  11.042   2.532
15342SOL     OW47922   1.626  12.435   4.542
15342SOL    HW147923   1.597  12.512   4.494
15342SOL    HW247924   1.563  12.427   4.615
15343SOL     OW47925   3.743  10.213   8.718
15343SOL    HW147926   3.714  10.264   8.793
15343SOL    HW247927   3.677  10.229   8.651
15344SOL     OW47928  10.369   6.700   1.834
15344SOL    HW147929  10.411   6.750   1.905
15344SOL    HW247930  10.279   6.687   1.864
15345SOL     OW47931   9.973  11.234  10.988
15345SOL    HW147932   9.927  11.167  11.039
15345SOL    HW247933   9.969  11.203  10.898
15346SOL     OW47934  10.813  13.687  12.311
15346SOL    HW147935  10.795  13.741  12.387
15346SOL    HW247936  10.798  13.744  12.236
15347SOL     OW47937  12.283   3.222   3.696
15347SOL    HW147938  12.243   3.163   3.632
15347SOL    HW247939  12.342   3.166   3.747
15348SOL     OW47940  11.388   7.947   7.452
15348SOL    HW147941  11.315   7.896   7.417
15348SOL    HW247942  11.446   7.960   7.377
15349SOL     OW47943  14.831   0.798   7.766
15349SOL    HW147944  14.796   0.795   7.677
15349SOL    HW247945  14.755   0.783   7.822
15350SOL     OW47946  11.683  12.945   6.276
15350SOL    HW147947  11.613  12.919   6.335
15350SOL    HW247948  11.742  12.998   6.329
15351SOL     OW47949  12.212   5.472   5.437
15351SOL    HW147950  12.146   5.475   5.368
15351SOL    HW247951  12.162   5.464   5.518
15352SOL     OW47952   7.606   8.382  12.757
15352SOL    HW147953   7.652   8.300  12.741
15352SOL    HW247954   7.671   8.451  12.742
15353SOL     OW47955   0.048   2.706   2.515
15353SOL    HW147956   0.067   2.799   2.522
15353SOL    HW247957  14.856   2.700   2.456
15354SOL     OW47958   9.964   7.866   9.955
15354SOL    HW147959   9.975   7.883  10.048
15354SOL    HW247960  10.051   7.878   9.918
15355SOL     OW47961   9.760  12.293   9.627
15355SOL    HW147962   9.728  12.256   9.545
15355SOL    HW247963   9.820  12.227   9.661
15356SOL     OW47964   4.909   9.394  14.789
15356SOL    HW147965   4.977   9.461  14.799
15356SOL    HW247966   4.945   9.334  14.724
15357SOL     OW47967  11.723  12.916   8.231
15357SOL    HW147968  11.652  12.886   8.174
15357SOL    HW247969  11.712  12.865   8.311
15358SOL     OW47970   6.362   2.990  11.229
15358SOL    HW147971   6.298   2.943  11.282
15358SOL    HW247972   6.444   2.943  11.245
15359SOL     OW47973  12.996   3.241   4.085
15359SOL    HW147974  13.052   3.167   4.105
15359SOL    HW247975  12.907   3.208   4.096
15360SOL     OW47976   8.124   4.386  13.159
15360SOL    HW147977   8.217   4.385  13.136
15360SOL    HW247978   8.098   4.293  13.157
15361SOL     OW47979   8.074   9.207   3.366
15361SOL    HW147980   8.111   9.128   3.406
15361SOL    HW247981   8.038   9.256   3.440
15362SOL     OW47982   9.695   7.058  12.444
15362SOL    HW147983   9.747   7.075  12.522
15362SOL    HW247984   9.654   7.142  12.423
15363SOL     OW47985   3.538   6.371   0.695
15363SOL    HW147986   3.443   6.381   0.708
15363SOL    HW247987   3.569   6.460   0.681
15364SOL     OW47988   6.378  14.687   2.297
15364SOL    HW147989   6.324  14.712   2.372
15364SOL    HW247990   6.460  14.735   2.308
15365SOL     OW47991   7.639  12.269  14.610
15365SOL    HW147992   7.622  12.175  14.613
15365SOL    HW247993   7.734  12.276  14.602
15366SOL     OW47994  11.619   8.181  13.384
15366SOL    HW147995  11.702   8.139  13.359
15366SOL    HW247996  11.555   8.110  13.385
15367SOL     OW47997   9.831  11.930  12.551
15367SOL    HW147998   9.917  11.956  12.519
15367SOL    HW247999   9.786  11.896  12.474
15368SOL     OW48000   9.624   2.653   8.841
15368SOL    HW148001   9.533   2.648   8.869
15368SOL    HW248002   9.631   2.591   8.769
15369SOL     OW48003  13.701   4.858   8.807
15369SOL    HW148004  13.725   4.939   8.762
15369SOL    HW248005  13.685   4.885   8.898
15370SOL     OW48006   4.929  12.172   3.210
15370SOL    HW148007   4.902  12.110   3.278
15370SOL    HW248008   4.924  12.257   3.252
15371SOL     OW48009   1.524  13.635   0.507
15371SOL    HW148010   1.481  13.643   0.592
15371SOL    HW248011   1.474  13.568   0.461
15372SOL     OW48012   6.868   0.757   2.653
15372SOL    HW148013   6.773   0.757   2.638
15372SOL    HW248014   6.899   0.835   2.607
15373SOL     OW48015   8.025   5.792  13.379
15373SOL    HW148016   7.985   5.872  13.346
15373SOL    HW248017   8.119   5.809  13.377
15374SOL     OW48018   6.386   7.539   9.150
15374SOL    HW148019   6.436   7.620   9.164
15374SOL    HW248020   6.301   7.568   9.118
15375SOL     OW48021  14.566   4.896   8.173
15375SOL    HW148022  14.586   4.880   8.081
15375SOL    HW248023  14.471   4.889   8.179
15376SOL     OW48024  10.720   9.211   4.950
15376SOL    HW148025  10.770   9.143   4.996
15376SOL    HW248026  10.630   9.180   4.952
15377SOL     OW48027  11.641   4.873   2.345
15377SOL    HW148028  11.616   4.818   2.419
15377SOL    HW248029  11.601   4.831   2.269
15378SOL     OW48030   1.835   2.852   4.632
15378SOL    HW148031   1.854   2.811   4.717
15378SOL    HW248032   1.762   2.911   4.651
15379SOL     OW48033   9.459   4.390   0.906
15379SOL    HW148034   9.438   4.301   0.878
15379SOL    HW248035   9.377   4.423   0.942
15380SOL     OW48036   1.456   1.317   4.697
15380SOL    HW148037   1.461   1.400   4.649
15380SOL    HW248038   1.449   1.343   4.789
15381SOL     OW48039   9.192   7.061  13.810
15381SOL    HW148040   9.281   7.032  13.793
15381SOL    HW248041   9.198   7.112  13.890
15382SOL     OW48042  14.837   9.899  14.611
15382SOL    HW148043  14.818   9.828  14.550
15382SOL    HW248044   0.014   9.861  14.676
15383SOL     OW48045   5.840   3.840   5.895
15383SOL    HW148046   5.915   3.899   5.885
15383SOL    HW248047   5.809   3.826   5.806
15384SOL     OW48048  13.996   1.167   4.225
15384SOL    HW148049  13.980   1.073   4.216
15384SOL    HW248050  14.024   1.194   4.137
15385SOL     OW48051   2.469  10.457   2.072
15385SOL    HW148052   2.381  10.421   2.060
15385SOL    HW248053   2.455  10.551   2.083
15386SOL     OW48054  14.426   0.482   0.709
15386SOL    HW148055  14.404   0.484   0.616
15386SOL    HW248056  14.522   0.477   0.711
15387SOL     OW48057   2.483   2.479  10.841
15387SOL    HW148058   2.427   2.409  10.807
15387SOL    HW248059   2.461   2.485  10.934
15388SOL     OW48060   9.821   3.602   6.274
15388SOL    HW148061   9.869   3.541   6.330
15388SOL    HW248062   9.782   3.665   6.335
15389SOL     OW48063  14.861   5.988  12.961
15389SOL    HW148064  14.777   6.007  13.003
15389SOL    HW248065   0.038   5.965  13.032
15390SOL     OW48066   9.683   7.783   2.009
15390SOL    HW148067   9.624   7.713   1.980
15390SOL    HW248068   9.642   7.863   1.977
15391SOL     OW48069   1.824   1.696  12.843
15391SOL    HW148070   1.730   1.708  12.831
15391SOL    HW248071   1.861   1.784  12.834
15392SOL     OW48072   7.020  10.438  14.797
15392SOL    HW148073   7.099  10.420  14.849
15392SOL    HW248074   7.039  10.521  14.753
15393SOL     OW48075   5.026   2.548   4.863
15393SOL    HW148076   5.076   2.585   4.790
15393SOL    HW248077   5.003   2.623   4.917
15394SOL     OW48078   4.388   2.335   1.221
15394SOL    HW148079   4.305   2.288   1.228
15394SOL    HW248080   4.406   2.365   1.310
15395SOL     OW48081   7.084   6.702  14.510
15395SOL    HW148082   7.105   6.674  14.599
15395SOL    HW248083   7.009   6.761  14.520
15396SOL     OW48084   1.240  10.642  11.828
15396SOL    HW148085   1.145  10.639  11.822
15396SOL    HW248086   1.261  10.735  11.830
15397SOL     OW48087   2.181   5.302   0.165
15397SOL    HW148088   2.214   5.214   0.145
15397SOL    HW248089   2.140   5.331   0.083
15398SOL     OW48090  14.051   2.858  11.499
15398SOL    HW148091  14.088   2.940  11.532
15398SOL    HW248092  13.956   2.874  11.497
15399SOL     OW48093   4.296   3.671   3.557
15399SOL    HW148094   4.218   3.635   3.599
15399SOL    HW248095   4.369   3.633   3.606
15400SOL     OW48096   0.448   4.615   8.346
15400SOL    HW148097   0.503   4.588   8.272
15400SOL    HW248098   0.365   4.570   8.332
15401SOL     OW48099   4.245  11.931  12.972
15401SOL    HW148100   4.310  12.000  12.965
15401SOL    HW248101   4.167  11.974  13.006
15402SOL     OW48102   4.372   7.028   8.206
15402SOL    HW148103   4.313   7.087   8.250
15402SOL    HW248104   4.347   7.032   8.114
15403SOL     OW48105   4.857  13.033  13.865
15403SOL    HW148106   4.859  12.978  13.944
15403SOL    HW248107   4.832  12.973  13.795
15404SOL     OW48108   0.833  10.443   5.520
15404SOL    HW148109   0.750  10.448   5.472
15404SOL    HW248110   0.869  10.532   5.515
15405SOL     OW48111   5.040   8.295   3.751
15405SOL    HW148112   5.115   8.292   3.810
15405SOL    HW248113   5.026   8.388   3.735
15406SOL     OW48114  14.673   0.695  11.246
15406SOL    HW148115  14.761   0.709  11.212
15406SOL    HW248116  14.616   0.699  11.169
15407SOL     OW48117  11.778  14.471   6.857
15407SOL    HW148118  11.852  14.411   6.847
15407SOL    HW248119  11.785  14.530   6.781
15408SOL     OW48120   1.385   9.323  14.122
15408SOL    HW148121   1.440   9.348  14.048
15408SOL    HW248122   1.376   9.228  14.114
15409SOL     OW48123   5.231  12.023   7.028
15409SOL    HW148124   5.285  11.952   6.992
15409SOL    HW248125   5.293  12.077   7.076
15410SOL     OW48126  12.995   8.493   5.045
15410SOL    HW148127  13.051   8.462   5.116
15410SOL    HW248128  12.970   8.415   4.997
15411SOL     OW48129  11.866   3.939   7.194
15411SOL    HW148130  11.822   3.902   7.117
15411SOL    HW248131  11.925   4.005   7.158
15412SOL     OW48132  13.640   8.748  13.068
15412SOL    HW148133  13.549   8.727  13.090
15412SOL    HW248134  13.691   8.711  13.141
15413SOL     OW48135   4.134  11.693   4.411
15413SOL    HW148136   4.134  11.781   4.448
15413SOL    HW248137   4.049  11.685   4.368
15414SOL     OW48138  12.014   9.717  11.325
15414SOL    HW148139  12.055   9.669  11.254
15414SOL    HW248140  11.920   9.702  11.313
15415SOL     OW48141  10.055  13.997   6.042
15415SOL    HW148142  10.009  13.996   5.958
15415SOL    HW248143  10.007  13.935   6.097
15416SOL     OW48144   2.515   2.051  10.387
15416SOL    HW148145   2.602   2.076  10.420
15416SOL    HW248146   2.515   2.081  10.297
15417SOL     OW48147   0.250  10.920  11.431
15417SOL    HW148148   0.295  10.972  11.498
15417SOL    HW248149   0.166  10.964  11.419
15418SOL     OW48150   7.268   6.761   3.432
15418SOL    HW148151   7.320   6.683   3.452
15418SOL    HW248152   7.279   6.773   3.337
15419SOL     OW48153   5.227   0.700   2.615
15419SOL    HW148154   5.226   0.796   2.612
15419SOL    HW248155   5.296   0.678   2.678
15420SOL     OW48156   4.976   4.710   6.392
15420SOL    HW148157   5.058   4.752   6.367
15420SOL    HW248158   4.922   4.781   6.426
15421SOL     OW48159   4.781   1.993   6.957
15421SOL    HW148160   4.846   1.923   6.964
15421SOL    HW248161   4.760   1.996   6.863
15422SOL     OW48162  13.640   5.131   4.072
15422SOL    HW148163  13.622   5.224   4.057
15422SOL    HW248164  13.680   5.101   3.991
15423SOL     OW48165   6.301   1.788   5.232
15423SOL    HW148166   6.231   1.723   5.227
15423SOL    HW248167   6.282   1.838   5.312
15424SOL     OW48168   1.751   6.143   1.528
15424SOL    HW148169   1.731   6.064   1.479
15424SOL    HW248170   1.842   6.131   1.557
15425SOL     OW48171   2.622  11.654   3.003
15425SOL    HW148172   2.592  11.713   2.933
15425SOL    HW248173   2.557  11.666   3.073
15426SOL     OW48174   0.167  11.740   3.395
15426SOL    HW148175   0.237  11.704   3.340
15426SOL    HW248176   0.088  11.728   3.343
15427SOL     OW48177   7.216   9.030  12.204
15427SOL    HW148178   7.204   9.122  12.229
15427SOL    HW248179   7.155   9.018  12.131
15428SOL     OW48180   9.787   6.738  13.545
15428SOL    HW148181   9.739   6.699  13.472
15428SOL    HW248182   9.738   6.818  13.565
15429SOL     OW48183  14.453   6.879   7.172
15429SOL    HW148184  14.417   6.925   7.096
15429SOL    HW248185  14.422   6.929   7.247
15430SOL     OW48186  14.004   4.628   7.941
15430SOL    HW148187  13.928   4.685   7.959
15430SOL    HW248188  13.974   4.570   7.871
15431SOL     OW48189   0.438   2.873   3.812
15431SOL    HW148190   0.531   2.885   3.792
15431SOL    HW248191   0.429   2.779   3.830
15432SOL     OW48192   4.485   7.727   6.660
15432SOL    HW148193   4.498   7.764   6.573
15432SOL    HW248194   4.554   7.765   6.714
15433SOL     OW48195   7.169   7.231   6.611
15433SOL    HW148196   7.074   7.240   6.617
15433SOL    HW248197   7.203   7.314   6.644
15434SOL     OW48198  12.855   3.005   9.886
15434SOL    HW148199  12.812   2.964   9.811
15434SOL    HW248200  12.783   3.033   9.943
15435SOL     OW48201  14.466   9.092   7.243
15435SOL    HW148202  14.405   9.133   7.181
15435SOL    HW248203  14.553   9.111   7.208
15436SOL     OW48204  12.448   0.659   6.501
15436SOL    HW148205  12.465   0.753   6.496
15436SOL    HW248206  12.370   0.646   6.446
15437SOL     OW48207   6.681   6.538  13.604
15437SOL    HW148208   6.711   6.542  13.695
15437SOL    HW248209   6.759   6.556  13.552
15438SOL     OW48210   2.967  11.885   2.844
15438SOL    HW148211   2.947  11.849   2.930
15438SOL    HW248212   2.882  11.895   2.801
15439SOL     OW48213  10.043   1.961   1.240
15439SOL    HW148214   9.985   1.896   1.281
15439SOL    HW248215  10.131   1.924   1.250
15440SOL     OW48216  11.284   4.894  14.813
15440SOL    HW148217  11.303   4.873  14.722
15440SOL    HW248218  11.370   4.907  14.853
15441SOL     OW48219   1.242   5.865  10.657
15441SOL    HW148220   1.154   5.883  10.625
15441SOL    HW248221   1.257   5.930  10.726
15442SOL     OW48222   7.478   6.716   0.755
15442SOL    HW148223   7.562   6.683   0.786
15442SOL    HW248224   7.445   6.647   0.698
15443SOL     OW48225   4.569   5.891   3.635
15443SOL    HW148226   4.535   5.806   3.664
15443SOL    HW248227   4.505   5.954   3.667
15444SOL     OW48228   5.889  11.570   3.780
15444SOL    HW148229   5.933  11.654   3.767
15444SOL    HW248230   5.799  11.586   3.752
15445SOL     OW48231  10.266   7.195   6.803
15445SOL    HW148232  10.221   7.112   6.793
15445SOL    HW248233  10.199   7.261   6.790
15446SOL     OW48234   5.795   5.589   2.013
15446SOL    HW148235   5.870   5.617   1.959
15446SOL    HW248236   5.814   5.498   2.036
15447SOL     OW48237  11.375  12.206   1.181
15447SOL    HW148238  11.403  12.243   1.265
15447SOL    HW248239  11.317  12.273   1.144
15448SOL     OW48240  13.274   0.849  10.215
15448SOL    HW148241  13.317   0.856  10.130
15448SOL    HW248242  13.238   0.760  10.216
15449SOL     OW48243  11.274   2.753  10.148
15449SOL    HW148244  11.329   2.810  10.093
15449SOL    HW248245  11.242   2.811  10.217
15450SOL     OW48246  10.509   6.215  12.011
15450SOL    HW148247  10.597   6.178  12.017
15450SOL    HW248248  10.511   6.268  11.930
15451SOL     OW48249   3.317   8.398  12.310
15451SOL    HW148250   3.282   8.312  12.333
15451SOL    HW248251   3.374   8.421  12.384
15452SOL     OW48252   7.207  10.320  12.628
15452SOL    HW148253   7.228  10.245  12.571
15452SOL    HW248254   7.215  10.285  12.717
15453SOL     OW48255   1.356   9.665  13.907
15453SOL    HW148256   1.328   9.737  13.851
15453SOL    HW248257   1.451   9.678  13.916
15454SOL     OW48258   2.469  11.775   9.091
15454SOL    HW148259   2.432  11.761   9.178
15454SOL    HW248260   2.414  11.722   9.033
15455SOL     OW48261   9.133  10.095   7.762
15455SOL    HW148262   9.087  10.157   7.705
15455SOL    HW248263   9.074  10.020   7.769
15456SOL     OW48264   8.554   5.294   2.457
15456SOL    HW148265   8.616   5.358   2.420
15456SOL    HW248266   8.590   5.272   2.542
15457SOL     OW48267   7.334   8.111   2.952
15457SOL    HW148268   7.304   8.038   3.005
15457SOL    HW248269   7.255   8.145   2.910
15458SOL     OW48270   5.854   4.792   3.475
15458SOL    HW148271   5.817   4.723   3.530
15458SOL    HW248272   5.901   4.850   3.535
15459SOL     OW48273  10.356   3.745   2.838
15459SOL    HW148274  10.430   3.718   2.893
15459SOL    HW248275  10.352   3.840   2.850
15460SOL     OW48276   6.854   5.444  13.337
15460SOL    HW148277   6.760   5.465  13.341
15460SOL    HW248278   6.871   5.398  13.419
15461SOL     OW48279   1.985   9.148   8.004
15461SOL    HW148280   1.981   9.084   7.932
15461SOL    HW248281   2.076   9.143   8.034
15462SOL     OW48282  11.745  12.478  10.143
15462SOL    HW148283  11.734  12.386  10.120
15462SOL    HW248284  11.680  12.524  10.090
15463SOL     OW48285   9.233  11.916  12.516
15463SOL    HW148286   9.327  11.906  12.528
15463SOL    HW248287   9.202  11.951  12.600
15464SOL     OW48288   8.177   4.913   3.907
15464SOL    HW148289   8.159   4.867   3.989
15464SOL    HW248290   8.155   4.849   3.839
15465SOL     OW48291   1.611   3.481  14.093
15465SOL    HW148292   1.516   3.479  14.095
15465SOL    HW248293   1.632   3.573  14.074
15466SOL     OW48294   8.736   0.556  11.170
15466SOL    HW148295   8.786   0.592  11.097
15466SOL    HW248296   8.802   0.520  11.229
15467SOL     OW48297  13.025  11.357  13.098
15467SOL    HW148298  12.941  11.390  13.127
15467SOL    HW248299  13.054  11.299  13.168
15468SOL     OW48300   1.653   5.140   4.793
15468SOL    HW148301   1.574   5.101   4.756
15468SOL    HW248302   1.635   5.234   4.796
15469SOL     OW48303   7.602  10.936   9.501
15469SOL    HW148304   7.548  10.898   9.433
15469SOL    HW248305   7.553  11.012   9.533
15470SOL     OW48306  14.719   3.059   1.341
15470SOL    HW148307  14.644   3.002   1.324
15470SOL    HW248308  14.709   3.132   1.279
15471SOL     OW48309   2.898   6.708   7.084
15471SOL    HW148310   2.909   6.693   7.178
15471SOL    HW248311   2.806   6.730   7.074
15472SOL     OW48312   7.766  12.069   3.602
15472SOL    HW148313   7.810  12.089   3.519
15472SOL    HW248314   7.810  11.990   3.633
15473SOL     OW48315  12.754  13.274   3.768
15473SOL    HW148316  12.768  13.335   3.840
15473SOL    HW248317  12.803  13.312   3.695
15474SOL     OW48318   1.781  10.746  13.321
15474SOL    HW148319   1.715  10.766  13.387
15474SOL    HW248320   1.855  10.801  13.345
15475SOL     OW48321   7.489   6.404  12.189
15475SOL    HW148322   7.534   6.415  12.273
15475SOL    HW248323   7.488   6.492  12.151
15476SOL     OW48324   5.580   8.433   4.307
15476SOL    HW148325   5.588   8.356   4.363
15476SOL    HW248326   5.671   8.452   4.280
15477SOL     OW48327   3.590  11.578  13.116
15477SOL    HW148328   3.630  11.539  13.038
15477SOL    HW248329   3.658  11.574  13.183
15478SOL     OW48330   0.524   1.837  14.393
15478SOL    HW148331   0.597   1.806  14.447
15478SOL    HW248332   0.551   1.924  14.364
15479SOL     OW48333   0.275  14.807   5.646
15479SOL    HW148334   0.189  14.849   5.652
15479SOL    HW248335   0.284  14.758   5.727
15480SOL     OW48336   3.356  10.210   1.819
15480SOL    HW148337   3.433  10.255   1.783
15480SOL    HW248338   3.281  10.255   1.780
15481SOL     OW48339  12.494  10.283   9.858
15481SOL    HW148340  12.495  10.364   9.807
15481SOL    HW248341  12.433  10.300   9.929
15482SOL     OW48342   2.444  10.550  14.395
15482SOL    HW148343   2.360  10.560  14.350
15482SOL    HW248344   2.508  10.540  14.324
15483SOL     OW48345   5.443  13.375   7.431
15483SOL    HW148346   5.502  13.317   7.480
15483SOL    HW248347   5.413  13.439   7.496
15484SOL     OW48348  11.641   0.344  14.517
15484SOL    HW148349  11.576   0.345  14.587
15484SOL    HW248350  11.697   0.420  14.536
15485SOL     OW48351   4.427   6.921   0.819
15485SOL    HW148352   4.333   6.912   0.802
15485SOL    HW248353   4.432   6.980   0.894
15486SOL     OW48354   6.779   5.362  12.949
15486SOL    HW148355   6.739   5.309  12.879
15486SOL    HW248356   6.723   5.438  12.957
15487SOL     OW48357   6.399   9.744  11.579
15487SOL    HW148358   6.443   9.792  11.509
15487SOL    HW248359   6.468   9.693  11.621
15488SOL     OW48360  12.415   7.619   9.538
15488SOL    HW148361  12.377   7.705   9.557
15488SOL    HW248362  12.503   7.622   9.577
15489SOL     OW48363  13.975  12.123   7.327
15489SOL    HW148364  14.003  12.189   7.390
15489SOL    HW248365  13.879  12.132   7.324
15490SOL     OW48366   5.549   2.090   5.092
15490SOL    HW148367   5.497   2.164   5.124
15490SOL    HW248368   5.496   2.013   5.112
15491SOL     OW48369   6.987   5.137   7.412
15491SOL    HW148370   6.981   5.047   7.441
15491SOL    HW248371   7.050   5.136   7.340
15492SOL     OW48372  14.397   4.952  12.082
15492SOL    HW148373  14.438   5.017  12.138
15492SOL    HW248374  14.394   4.993  11.995
15493SOL     OW48375   9.460   0.605   1.024
15493SOL    HW148376   9.400   0.531   1.013
15493SOL    HW248377   9.513   0.605   0.945
15494SOL     OW48378   2.921  14.701   9.757
15494SOL    HW148379   2.923  14.689   9.852
15494SOL    HW248380   2.961  14.622   9.722
15495SOL     OW48381  12.004  10.943   7.841
15495SOL    HW148382  12.072  10.944   7.773
15495SOL    HW248383  11.934  10.998   7.805
15496SOL     OW48384   1.400   7.487  11.041
15496SOL    HW148385   1.432   7.517  10.956
15496SOL    HW248386   1.306   7.474  11.027
15497SOL     OW48387  10.113   4.277   9.251
15497SOL    HW148388  10.097   4.308   9.340
15497SOL    HW248389  10.127   4.183   9.260
15498SOL     OW48390  14.044   6.749  10.546
15498SOL    HW148391  14.036   6.842  10.567
15498SOL    HW248392  14.061   6.708  10.631
15499SOL     OW48393   8.562   8.564  12.279
15499SOL    HW148394   8.610   8.483  12.298
15499SOL    HW248395   8.611   8.603  12.206
15500SOL     OW48396   5.772   9.816   0.021
15500SOL    HW148397   5.851   9.765   0.007
15500SOL    HW248398   5.803   9.900   0.056
15501SOL     OW48399  12.800   0.997   0.177
15501SOL    HW148400  12.740   0.934   0.216
15501SOL    HW248401  12.882   0.984   0.224
15502SOL     OW48402   8.632   9.278   0.287
15502SOL    HW148403   8.641   9.367   0.322
15502SOL    HW248404   8.700   9.228   0.331
15503SOL     OW48405   9.140  10.664   0.344
15503SOL    HW148406   9.091  10.626   0.272
15503SOL    HW248407   9.225  10.621   0.341
15504SOL     OW48408  13.352   7.469   4.556
15504SOL    HW148409  13.322   7.526   4.485
15504SOL    HW248410  13.302   7.498   4.632
15505SOL     OW48411   5.387   9.585   7.890
15505SOL    HW148412   5.324   9.520   7.860
15505SOL    HW248413   5.381   9.584   7.985
15506SOL     OW48414   7.640   5.138   3.048
15506SOL    HW148415   7.606   5.087   2.974
15506SOL    HW248416   7.591   5.219   3.047
15507SOL     OW48417  12.923   7.175   4.106
15507SOL    HW148418  12.881   7.163   4.021
15507SOL    HW248419  13.011   7.139   4.094
15508SOL     OW48420   3.867   4.688   4.327
15508SOL    HW148421   3.886   4.632   4.403
15508SOL    HW248422   3.899   4.774   4.353
15509SOL     OW48423  13.969  10.436   3.433
15509SOL    HW148424  13.941  10.484   3.511
15509SOL    HW248425  13.950  10.494   3.360
15510SOL     OW48426   0.963  13.121   3.234
15510SOL    HW148427   0.969  13.035   3.276
15510SOL    HW248428   1.044  13.129   3.184
15511SOL     OW48429   5.779   0.147   4.289
15511SOL    HW148430   5.815   0.191   4.366
15511SOL    HW248431   5.855   0.132   4.233
15512SOL     OW48432  10.590  10.310   9.722
15512SOL    HW148433  10.533  10.347   9.655
15512SOL    HW248434  10.532  10.264   9.782
15513SOL     OW48435   6.262   3.378   5.690
15513SOL    HW148436   6.187   3.434   5.673
15513SOL    HW248437   6.242   3.296   5.644
15514SOL     OW48438  11.127   7.614   8.450
15514SOL    HW148439  11.208   7.639   8.406
15514SOL    HW248440  11.145   7.626   8.543
15515SOL     OW48441  12.064  10.941  11.850
15515SOL    HW148442  12.032  11.020  11.894
15515SOL    HW248443  11.987  10.883  11.847
15516SOL     OW48444   8.580   2.553   0.415
15516SOL    HW148445   8.630   2.490   0.467
15516SOL    HW248446   8.495   2.560   0.459
15517SOL     OW48447  13.018   1.029   3.901
15517SOL    HW148448  13.047   0.942   3.874
15517SOL    HW248449  12.944   1.014   3.959
15518SOL     OW48450  13.154   2.950   7.180
15518SOL    HW148451  13.106   3.001   7.246
15518SOL    HW248452  13.235   2.999   7.166
15519SOL     OW48453   5.598   9.878   5.972
15519SOL    HW148454   5.557   9.964   5.987
15519SOL    HW248455   5.626   9.882   5.880
15520SOL     OW48456  12.936   6.029   0.611
15520SOL    HW148457  12.910   5.949   0.566
15520SOL    HW248458  12.981   6.081   0.544
15521SOL     OW48459   7.304   8.140   0.054
15521SOL    HW148460   7.310   8.058   0.103
15521SOL    HW248461   7.221   8.179   0.084
15522SOL     OW48462   2.817   2.204  10.730
15522SOL    HW148463   2.772   2.288  10.736
15522SOL    HW248464   2.819   2.171  10.820
15523SOL     OW48465   8.923   4.263   1.336
15523SOL    HW148466   8.847   4.234   1.284
15523SOL    HW248467   8.998   4.250   1.277
15524SOL     OW48468   6.207  10.719   9.828
15524SOL    HW148469   6.191  10.784   9.760
15524SOL    HW248470   6.143  10.738   9.897
15525SOL     OW48471  11.043   8.070  12.608
15525SOL    HW148472  11.118   8.122  12.580
15525SOL    HW248473  11.008   8.032  12.528
15526SOL     OW48474   7.430   7.659   5.667
15526SOL    HW148475   7.517   7.695   5.685
15526SOL    HW248476   7.402   7.621   5.749
15527SOL     OW48477   4.478  11.474  13.533
15527SOL    HW148478   4.411  11.520  13.481
15527SOL    HW248479   4.441  11.387  13.546
15528SOL     OW48480   9.751  14.198   9.714
15528SOL    HW148481   9.813  14.232   9.649
15528SOL    HW248482   9.672  14.251   9.702
15529SOL     OW48483   2.633   4.486   7.787
15529SOL    HW148484   2.674   4.549   7.728
15529SOL    HW248485   2.650   4.519   7.875
15530SOL     OW48486   4.741   0.140  14.359
15530SOL    HW148487   4.820   0.182  14.393
15530SOL    HW248488   4.735   0.058  14.408
15531SOL     OW48489   8.741   9.053   2.252
15531SOL    HW148490   8.796   9.127   2.275
15531SOL    HW248491   8.680   9.043   2.325
15532SOL     OW48492   2.711  10.170   8.089
15532SOL    HW148493   2.738  10.222   8.013
15532SOL    HW248494   2.734  10.080   8.065
15533SOL     OW48495   0.301   6.088   5.400
15533SOL    HW148496   0.384   6.119   5.363
15533SOL    HW248497   0.310   6.100   5.494
15534SOL     OW48498   1.535   8.946   9.974
15534SOL    HW148499   1.497   9.007   9.910
15534SOL    HW248500   1.619   8.921   9.935
15535SOL     OW48501  10.345   8.363   2.075
15535SOL    HW148502  10.307   8.315   2.003
15535SOL    HW248503  10.292   8.339   2.151
15536SOL     OW48504   6.036   3.237   6.972
15536SOL    HW148505   5.973   3.301   7.003
15536SOL    HW248506   6.001   3.206   6.889
15537SOL     OW48507   5.556  10.300  10.147
15537SOL    HW148508   5.593  10.277  10.232
15537SOL    HW248509   5.632  10.315  10.091
15538SOL     OW48510   9.103   9.305   7.957
15538SOL    HW148511   9.019   9.318   7.912
15538SOL    HW248512   9.128   9.392   7.986
15539SOL     OW48513   5.926   0.471   2.140
15539SOL    HW148514   6.003   0.485   2.085
15539SOL    HW248515   5.913   0.376   2.140
15540SOL     OW48516   1.519   0.967  10.084
15540SOL    HW148517   1.588   0.904  10.062
15540SOL    HW248518   1.522   0.973  10.180
15541SOL     OW48519   4.569   6.028  13.148
15541SOL    HW148520   4.484   6.033  13.104
15541SOL    HW248521   4.590   6.119  13.170
15542SOL     OW48522   3.837   6.070   0.881
15542SOL    HW148523   3.775   6.136   0.913
15542SOL    HW248524   3.882   6.114   0.808
15543SOL     OW48525   3.891   7.366   9.953
15543SOL    HW148526   3.797   7.354   9.937
15543SOL    HW248527   3.933   7.314   9.884
15544SOL     OW48528  14.238  10.237  10.752
15544SOL    HW148529  14.211  10.322  10.716
15544SOL    HW248530  14.293  10.198  10.684
15545SOL     OW48531  11.332  10.393   9.244
15545SOL    HW148532  11.240  10.366   9.246
15545SOL    HW248533  11.331  10.482   9.278
15546SOL     OW48534   6.024   8.116  10.289
15546SOL    HW148535   6.089   8.047  10.305
15546SOL    HW248536   6.014   8.160  10.373
15547SOL     OW48537  13.635   8.242   8.208
15547SOL    HW148538  13.619   8.149   8.193
15547SOL    HW248539  13.607   8.256   8.299
15548SOL     OW48540   5.783   5.687   5.621
15548SOL    HW148541   5.707   5.639   5.590
15548SOL    HW248542   5.824   5.721   5.541
15549SOL     OW48543   0.407   0.406   4.289
15549SOL    HW148544   0.326   0.359   4.307
15549SOL    HW248545   0.426   0.454   4.370
15550SOL     OW48546  12.281   4.519   4.046
15550SOL    HW148547  12.297   4.434   4.006
15550SOL    HW248548  12.327   4.582   3.989
15551SOL     OW48549   5.494   7.630   1.361
15551SOL    HW148550   5.425   7.584   1.409
15551SOL    HW248551   5.507   7.711   1.410
15552SOL     OW48552  14.122   8.668   3.185
15552SOL    HW148553  14.099   8.671   3.093
15552SOL    HW248554  14.062   8.729   3.228
15553SOL     OW48555  13.586   8.593  12.839
15553SOL    HW148556  13.510   8.651  12.829
15553SOL    HW248557  13.626   8.621  12.922
15554SOL     OW48558  11.781   5.729  11.956
15554SOL    HW148559  11.711   5.734  12.021
15554SOL    HW248560  11.777   5.639  11.923
15555SOL     OW48561  11.361   7.384   7.267
15555SOL    HW148562  11.438   7.415   7.219
15555SOL    HW248563  11.372   7.289   7.270
15556SOL     OW48564  10.811   9.842   9.798
15556SOL    HW148565  10.808   9.786   9.876
15556SOL    HW248566  10.897   9.884   9.802
15557SOL     OW48567   9.772  10.647   1.422
15557SOL    HW148568   9.858  10.673   1.389
15557SOL    HW248569   9.779  10.652   1.517
15558SOL     OW48570   5.104   1.344   3.269
15558SOL    HW148571   5.026   1.288   3.270
15558SOL    HW248572   5.124   1.358   3.361
15559SOL     OW48573   4.117   5.209   1.830
15559SOL    HW148574   4.116   5.129   1.882
15559SOL    HW248575   4.210   5.231   1.821
15560SOL     OW48576   8.702  10.157  13.282
15560SOL    HW148577   8.676  10.201  13.202
15560SOL    HW248578   8.620  10.124  13.319
15561SOL     OW48579   5.253   6.748   0.353
15561SOL    HW148580   5.194   6.673   0.343
15561SOL    HW248581   5.196   6.822   0.371
15562SOL     OW48582   9.112  13.918  11.841
15562SOL    HW148583   9.066  14.002  11.831
15562SOL    HW248584   9.136  13.894  11.751
15563SOL     OW48585  11.593   4.422  13.027
15563SOL    HW148586  11.563   4.449  12.941
15563SOL    HW248587  11.617   4.504  13.071
15564SOL     OW48588   9.940  10.770   6.221
15564SOL    HW148589   9.918  10.778   6.129
15564SOL    HW248590   9.855  10.765   6.266
15565SOL     OW48591   0.288  13.894   2.303
15565SOL    HW148592   0.375  13.934   2.296
15565SOL    HW248593   0.237  13.934   2.233
15566SOL     OW48594  12.072  14.723   9.496
15566SOL    HW148595  11.978  14.739   9.491
15566SOL    HW248596  12.112  14.805   9.467
15567SOL     OW48597  12.379   0.705   6.773
15567SOL    HW148598  12.404   0.693   6.682
15567SOL    HW248599  12.420   0.787   6.799
15568SOL     OW48600   9.147   1.996   3.799
15568SOL    HW148601   9.138   2.079   3.846
15568SOL    HW248602   9.069   1.946   3.823
15569SOL     OW48603   9.830   1.382   4.941
15569SOL    HW148604   9.839   1.358   5.033
15569SOL    HW248605   9.740   1.414   4.933
15570SOL     OW48606  12.957   4.389   8.739
15570SOL    HW148607  12.916   4.332   8.673
15570SOL    HW248608  13.029   4.336   8.773
15571SOL     OW48609   8.228   6.964   1.736
15571SOL    HW148610   8.136   6.940   1.746
15571SOL    HW248611   8.256   6.988   1.824
15572SOL     OW48612   0.272   2.425  11.188
15572SOL    HW148613   0.313   2.447  11.103
15572SOL    HW248614   0.344   2.429  11.250
15573SOL     OW48615   0.940   1.388   9.937
15573SOL    HW148616   0.883   1.465   9.935
15573SOL    HW248617   0.880   1.314   9.932
15574SOL     OW48618   6.819   4.788  14.397
15574SOL    HW148619   6.736   4.816  14.358
15574SOL    HW248620   6.877   4.862  14.384
15575SOL     OW48621  12.823   0.929   6.491
15575SOL    HW148622  12.905   0.964   6.526
15575SOL    HW248623  12.836   0.928   6.396
15576SOL     OW48624   2.381  10.837  13.547
15576SOL    HW148625   2.314  10.895  13.511
15576SOL    HW248626   2.428  10.805  13.471
15577SOL     OW48627   4.765   7.005   1.017
15577SOL    HW148628   4.730   6.996   1.106
15577SOL    HW248629   4.726   6.933   0.968
15578SOL     OW48630   1.970  10.561   4.907
15578SOL    HW148631   1.979  10.633   4.969
15578SOL    HW248632   1.970  10.482   4.960
15579SOL     OW48633   5.247   4.954   4.748
15579SOL    HW148634   5.249   5.042   4.784
15579SOL    HW248635   5.316   4.907   4.796
15580SOL     OW48636   0.801   7.316   5.565
15580SOL    HW148637   0.716   7.311   5.520
15580SOL    HW248638   0.784   7.280   5.652
15581SOL     OW48639  14.087   4.495   6.248
15581SOL    HW148640  14.168   4.455   6.281
15581SOL    HW248641  14.056   4.550   6.319
15582SOL     OW48642   2.742   1.172  14.000
15582SOL    HW148643   2.815   1.165  14.061
15582SOL    HW248644   2.695   1.090  14.009
15583SOL     OW48645  10.492  12.913   0.612
15583SOL    HW148646  10.574  12.905   0.564
15583SOL    HW248647  10.505  12.990   0.668
15584SOL     OW48648   4.448  12.206   1.412
15584SOL    HW148649   4.530  12.255   1.422
15584SOL    HW248650   4.438  12.195   1.317
15585SOL     OW48651  12.428  12.254  11.489
15585SOL    HW148652  12.519  12.271  11.514
15585SOL    HW248653  12.426  12.161  11.468
15586SOL     OW48654  13.757  14.507  13.204
15586SOL    HW148655  13.833  14.520  13.148
15586SOL    HW248656  13.712  14.431  13.166
15587SOL     OW48657   8.391  12.874   2.334
15587SOL    HW148658   8.407  12.931   2.409
15587SOL    HW248659   8.295  12.872   2.325
15588SOL     OW48660  11.670  12.114  10.509
15588SOL    HW148661  11.710  12.178  10.451
15588SOL    HW248662  11.628  12.052  10.450
15589SOL     OW48663  10.878   6.544   0.139
15589SOL    HW148664  10.850   6.479   0.203
15589SOL    HW248665  10.973   6.547   0.147
15590SOL     OW48666   9.884   4.178  13.533
15590SOL    HW148667   9.927   4.096  13.559
15590SOL    HW248668   9.880   4.173  13.437
15591SOL     OW48669  13.492   7.420   8.429
15591SOL    HW148670  13.576   7.409   8.384
15591SOL    HW248671  13.427   7.394   8.364
15592SOL     OW48672   1.183   8.527   8.306
15592SOL    HW148673   1.179   8.621   8.291
15592SOL    HW248674   1.276   8.510   8.321
15593SOL     OW48675   7.562  13.638   5.478
15593SOL    HW148676   7.497  13.569   5.486
15593SOL    HW248677   7.627  13.604   5.417
15594SOL     OW48678   5.117   7.402  11.398
15594SOL    HW148679   5.210   7.417  11.381
15594SOL    HW248680   5.072   7.471  11.349
15595SOL     OW48681   8.704   2.178   4.411
15595SOL    HW148682   8.710   2.134   4.327
15595SOL    HW248683   8.752   2.121   4.472
15596SOL     OW48684  12.898  11.014  13.530
15596SOL    HW148685  12.842  11.062  13.469
15596SOL    HW248686  12.897  11.068  13.610
15597SOL     OW48687   4.278   2.683   1.692
15597SOL    HW148688   4.243   2.762   1.735
15597SOL    HW248689   4.234   2.680   1.607
15598SOL     OW48690   9.862   1.940   7.878
15598SOL    HW148691   9.930   1.926   7.812
15598SOL    HW248692   9.908   1.934   7.962
15599SOL     OW48693   4.733   4.584   1.038
15599SOL    HW148694   4.663   4.607   1.099
15599SOL    HW248695   4.811   4.627   1.073
15600SOL     OW48696   2.494  12.571   4.529
15600SOL    HW148697   2.445  12.639   4.574
15600SOL    HW248698   2.454  12.565   4.442
15601SOL     OW48699  13.920   0.103   0.289
15601SOL    HW148700  13.849   0.043   0.266
15601SOL    HW248701  13.993   0.076   0.234
15602SOL     OW48702   8.166   0.677   2.834
15602SOL    HW148703   8.206   0.708   2.915
15602SOL    HW248704   8.123   0.595   2.859
15603SOL     OW48705  10.711  10.205   5.892
15603SOL    HW148706  10.691  10.276   5.831
15603SOL    HW248707  10.751  10.137   5.838
15604SOL     OW48708   0.628   0.233  12.707
15604SOL    HW148709   0.711   0.186  12.706
15604SOL    HW248710   0.630   0.286  12.628
15605SOL     OW48711  14.684  13.352   9.264
15605SOL    HW148712  14.590  13.356   9.246
15605SOL    HW248713  14.697  13.414   9.336
15606SOL     OW48714   0.526   4.050   0.276
15606SOL    HW148715   0.581   4.129   0.278
15606SOL    HW248716   0.541   4.007   0.360
15607SOL     OW48717   3.764  14.220   1.559
15607SOL    HW148718   3.725  14.149   1.611
15607SOL    HW248719   3.830  14.258   1.617
15608SOL     OW48720   9.314   2.668   0.312
15608SOL    HW148721   9.264   2.608   0.368
15608SOL    HW248722   9.300   2.635   0.223
15609SOL     OW48723   5.962  12.458   3.598
15609SOL    HW148724   6.057  12.460   3.609
15609SOL    HW248725   5.928  12.507   3.673
15610SOL     OW48726   2.630  12.947  13.248
15610SOL    HW148727   2.647  12.904  13.165
15610SOL    HW248728   2.547  12.992  13.236
15611SOL     OW48729   4.234  10.564  12.666
15611SOL    HW148730   4.150  10.610  12.655
15611SOL    HW248731   4.240  10.546  12.760
15612SOL     OW48732   8.188   8.742   5.877
15612SOL    HW148733   8.142   8.693   5.945
15612SOL    HW248734   8.196   8.831   5.911
15613SOL     OW48735  12.020  14.522   0.119
15613SOL    HW148736  12.080  14.572   0.062
15613SOL    HW248737  11.940  14.513   0.067
15614SOL     OW48738   7.805   9.756   1.619
15614SOL    HW148739   7.791   9.777   1.712
15614SOL    HW248740   7.900   9.741   1.612
15615SOL     OW48741   2.553  13.726   1.927
15615SOL    HW148742   2.536  13.677   2.007
15615SOL    HW248743   2.478  13.705   1.870
15616SOL     OW48744   1.888  11.892  14.211
15616SOL    HW148745   1.794  11.895  14.191
15616SOL    HW248746   1.928  11.949  14.146
15617SOL     OW48747  12.522  13.096  12.182
15617SOL    HW148748  12.525  13.163  12.114
15617SOL    HW248749  12.462  13.029  12.148
15618SOL     OW48750  11.494   8.457   7.637
15618SOL    HW148751  11.479   8.535   7.584
15618SOL    HW248752  11.450   8.387   7.588
15619SOL     OW48753   8.887   8.367  13.608
15619SOL    HW148754   8.871   8.282  13.568
15619SOL    HW248755   8.803   8.391  13.647
15620SOL     OW48756  13.715   0.736  13.851
15620SOL    HW148757  13.808   0.739  13.877
15620SOL    HW248758  13.717   0.714  13.758
15621SOL     OW48759   8.903  14.317   6.125
15621SOL    HW148760   8.957  14.329   6.203
15621SOL    HW248761   8.942  14.243   6.079
15622SOL     OW48762  14.122   5.656   4.853
15622SOL    HW148763  14.217   5.649   4.865
15622SOL    HW248764  14.086   5.651   4.942
15623SOL     OW48765   5.044   4.018   3.361
15623SOL    HW148766   4.982   3.955   3.399
15623SOL    HW248767   5.027   4.013   3.267
15624SOL     OW48768   6.758  12.988   1.849
15624SOL    HW148769   6.808  12.933   1.789
15624SOL    HW248770   6.788  13.077   1.831
15625SOL     OW48771   6.645   2.123  13.748
15625SOL    HW148772   6.594   2.047  13.723
15625SOL    HW248773   6.674   2.160  13.665
15626SOL     OW48774   7.054   0.405  11.468
15626SOL    HW148775   7.109   0.362  11.401
15626SOL    HW248776   6.974   0.352  11.470
15627SOL     OW48777   9.024   8.980  12.624
15627SOL    HW148778   8.997   8.908  12.568
15627SOL    HW248779   8.948   8.998  12.679
15628SOL     OW48780   5.185   8.241   4.893
15628SOL    HW148781   5.165   8.175   4.827
15628SOL    HW248782   5.280   8.239   4.900
15629SOL     OW48783  11.509  13.160  13.632
15629SOL    HW148784  11.464  13.156  13.716
15629SOL    HW248785  11.442  13.135  13.568
15630SOL     OW48786  10.132   8.890   5.960
15630SOL    HW148787  10.128   8.817   6.022
15630SOL    HW248788  10.128   8.968   6.014
15631SOL     OW48789   4.167  11.251  11.131
15631SOL    HW148790   4.116  11.332  11.132
15631SOL    HW248791   4.257  11.280  11.146
15632SOL     OW48792   0.743   2.693   5.742
15632SOL    HW148793   0.742   2.617   5.800
15632SOL    HW248794   0.652   2.702   5.713
15633SOL     OW48795  12.995   3.845  13.863
15633SOL    HW148796  13.000   3.899  13.784
15633SOL    HW248797  12.923   3.884  13.914
15634SOL     OW48798   2.619   3.238   4.733
15634SOL    HW148799   2.704   3.278   4.748
15634SOL    HW248800   2.613   3.227   4.638
15635SOL     OW48801   3.452  12.113   0.516
15635SOL    HW148802   3.398  12.190   0.536
15635SOL    HW248803   3.393  12.055   0.467
15636SOL     OW48804   0.906   9.852   1.413
15636SOL    HW148805   0.832   9.850   1.473
15636SOL    HW248806   0.887   9.785   1.348
15637SOL     OW48807  13.214   7.866  12.823
15637SOL    HW148808  13.123   7.854  12.796
15637SOL    HW248809  13.213   7.944  12.878
15638SOL     OW48810   1.934   1.595  11.404
15638SOL    HW148811   2.024   1.626  11.395
15638SOL    HW248812   1.890   1.663  11.455
15639SOL     OW48813   6.842   3.878   9.089
15639SOL    HW148814   6.819   3.844   9.175
15639SOL    HW248815   6.866   3.969   9.104
15640SOL     OW48816   0.751   8.957   0.723
15640SOL    HW148817   0.683   8.973   0.788
15640SOL    HW248818   0.833   8.968   0.772
15641SOL     OW48819   3.494  12.149  11.586
15641SOL    HW148820   3.498  12.203  11.665
15641SOL    HW248821   3.477  12.060  11.618
15642SOL     OW48822   8.983   3.751  12.566
15642SOL    HW148823   9.075   3.731  12.582
15642SOL    HW248824   8.963   3.708  12.482
15643SOL     OW48825   0.093   2.670   5.920
15643SOL    HW148826   0.133   2.748   5.882
15643SOL    HW248827   0.079   2.612   5.846
15644SOL     OW48828  13.296   5.666  12.832
15644SOL    HW148829  13.343   5.613  12.896
15644SOL    HW248830  13.213   5.620  12.820
15645SOL     OW48831  11.585   4.655  13.659
15645SOL    HW148832  11.590   4.751  13.659
15645SOL    HW248833  11.508   4.635  13.607
15646SOL     OW48834   9.438   1.336  13.917
15646SOL    HW148835   9.481   1.291  13.990
15646SOL    HW248836   9.447   1.275  13.843
15647SOL     OW48837  14.460  10.389   5.884
15647SOL    HW148838  14.462  10.304   5.841
15647SOL    HW248839  14.404  10.376   5.961
15648SOL     OW48840  11.274  13.402  13.285
15648SOL    HW148841  11.363  13.373  13.268
15648SOL    HW248842  11.265  13.482  13.232
15649SOL     OW48843   7.441   3.234   9.447
15649SOL    HW148844   7.518   3.286   9.468
15649SOL    HW248845   7.468   3.143   9.462
15650SOL     OW48846   3.108   6.883   7.017
15650SOL    HW148847   3.029   6.831   7.033
15650SOL    HW248848   3.159   6.830   6.955
15651SOL     OW48849   2.651   3.468   2.445
15651SOL    HW148850   2.653   3.445   2.538
15651SOL    HW248851   2.562   3.501   2.430
15652SOL     OW48852   6.839   6.986   0.527
15652SOL    HW148853   6.760   6.994   0.474
15652SOL    HW248854   6.834   7.056   0.591
15653SOL     OW48855  14.725   5.217   4.431
15653SOL    HW148856  14.730   5.137   4.483
15653SOL    HW248857  14.710   5.186   4.342
15654SOL     OW48858   4.450  10.978   6.016
15654SOL    HW148859   4.520  10.913   6.029
15654SOL    HW248860   4.372  10.926   5.999
15655SOL     OW48861  12.502  11.661  11.617
15655SOL    HW148862  12.543  11.639  11.700
15655SOL    HW248863  12.572  11.697  11.563
15656SOL     OW48864  11.399  13.498  11.332
15656SOL    HW148865  11.367  13.422  11.283
15656SOL    HW248866  11.492  13.503  11.310
15657SOL     OW48867   0.915  14.090  11.460
15657SOL    HW148868   0.903  14.156  11.528
15657SOL    HW248869   0.860  14.017  11.488
15658SOL     OW48870   1.649   7.271   5.060
15658SOL    HW148871   1.564   7.315   5.064
15658SOL    HW248872   1.713   7.341   5.069
15659SOL     OW48873   4.669   8.368   8.552
15659SOL    HW148874   4.618   8.431   8.501
15659SOL    HW248875   4.732   8.421   8.600
15660SOL     OW48876   9.490  11.174   3.105
15660SOL    HW148877   9.530  11.239   3.046
15660SOL    HW248878   9.531  11.091   3.080
15661SOL     OW48879  13.348  11.826   1.439
15661SOL    HW148880  13.404  11.798   1.512
15661SOL    HW248881  13.405  11.824   1.363
15662SOL     OW48882   3.195  10.518  13.674
15662SOL    HW148883   3.200  10.601  13.721
15662SOL    HW248884   3.166  10.455  13.741
15663SOL     OW48885  12.680   8.589  10.675
15663SOL    HW148886  12.725   8.538  10.742
15663SOL    HW248887  12.730   8.670  10.669
15664SOL     OW48888   5.860   0.171  14.871
15664SOL    HW148889   5.824   0.222   0.061
15664SOL    HW248890   5.875   0.084   0.026
15665SOL     OW48891   9.504  11.257  12.643
15665SOL    HW148892   9.517  11.163  12.655
15665SOL    HW248893   9.587  11.297  12.669
15666SOL     OW48894  14.019   9.477  10.623
15666SOL    HW148895  13.982   9.403  10.672
15666SOL    HW248896  13.943   9.522  10.587
15667SOL     OW48897   5.017  11.237   7.014
15667SOL    HW148898   5.038  11.183   6.938
15667SOL    HW248899   4.928  11.212   7.037
15668SOL     OW48900   4.280  11.547  12.003
15668SOL    HW148901   4.261  11.481  11.937
15668SOL    HW248902   4.196  11.588  12.022
15669SOL     OW48903  11.801   8.055   5.768
15669SOL    HW148904  11.810   8.041   5.862
15669SOL    HW248905  11.711   8.086   5.756
15670SOL     OW48906   2.452   8.989  13.909
15670SOL    HW148907   2.443   8.926  13.981
15670SOL    HW248908   2.460   9.074  13.953
15671SOL     OW48909   8.081   1.166   7.796
15671SOL    HW148910   8.065   1.243   7.741
15671SOL    HW248911   7.993   1.134   7.819
15672SOL     OW48912   2.340  14.348  10.522
15672SOL    HW148913   2.296  14.308  10.447
15672SOL    HW248914   2.278  14.413  10.555
15673SOL     OW48915   1.441  10.318   8.175
15673SOL    HW148916   1.360  10.333   8.126
15673SOL    HW248917   1.423  10.239   8.227
15674SOL     OW48918   3.245  12.029   2.045
15674SOL    HW148919   3.300  11.985   2.109
15674SOL    HW248920   3.157  11.998   2.063
15675SOL     OW48921   7.090  10.565  14.462
15675SOL    HW148922   6.995  10.567  14.476
15675SOL    HW248923   7.104  10.623  14.388
15676SOL     OW48924  13.501   7.120   1.440
15676SOL    HW148925  13.555   7.075   1.505
15676SOL    HW248926  13.484   7.206   1.478
15677SOL     OW48927   4.627  13.663   8.828
15677SOL    HW148928   4.561  13.595   8.818
15677SOL    HW248929   4.622  13.688   8.920
15678SOL     OW48930   9.449  10.106   8.169
15678SOL    HW148931   9.398  10.025   8.157
15678SOL    HW248932   9.413  10.144   8.250
15679SOL     OW48933   0.645  10.930   4.133
15679SOL    HW148934   0.654  10.870   4.059
15679SOL    HW248935   0.610  11.011   4.095
15680SOL     OW48936  11.103   9.637   1.263
15680SOL    HW148937  11.150   9.628   1.346
15680SOL    HW248938  11.158   9.694   1.210
15681SOL     OW48939  10.845  14.518  10.250
15681SOL    HW148940  10.819  14.534  10.159
15681SOL    HW248941  10.764  14.522  10.300
15682SOL     OW48942  11.859  14.379   7.674
15682SOL    HW148943  11.858  14.432   7.753
15682SOL    HW248944  11.822  14.295   7.701
15683SOL     OW48945   9.672  11.048   6.122
15683SOL    HW148946   9.589  11.001   6.126
15683SOL    HW248947   9.655  11.130   6.169
15684SOL     OW48948   0.565   5.937  13.091
15684SOL    HW148949   0.569   6.032  13.108
15684SOL    HW248950   0.605   5.927  13.005
15685SOL     OW48951  10.190   4.883   2.177
15685SOL    HW148952  10.155   4.795   2.166
15685SOL    HW248953  10.197   4.896   2.271
15686SOL     OW48954  12.779  11.262   3.480
15686SOL    HW148955  12.762  11.356   3.477
15686SOL    HW248956  12.874  11.254   3.468
15687SOL     OW48957   0.077   8.115   0.236
15687SOL    HW148958   0.148   8.058   0.263
15687SOL    HW248959   0.119   8.184   0.185
15688SOL     OW48960   4.593   8.303   4.093
15688SOL    HW148961   4.552   8.379   4.053
15688SOL    HW248962   4.570   8.310   4.186
15689SOL     OW48963  14.385   7.640  11.728
15689SOL    HW148964  14.451   7.688  11.778
15689SOL    HW248965  14.417   7.550  11.726
15690SOL     OW48966  10.634  11.661  12.154
15690SOL    HW148967  10.572  11.675  12.083
15690SOL    HW248968  10.702  11.727  12.139
15691SOL     OW48969   3.910   4.843   6.270
15691SOL    HW148970   3.836   4.896   6.299
15691SOL    HW248971   3.960   4.901   6.213
15692SOL     OW48972   1.355  12.238   3.834
15692SOL    HW148973   1.294  12.302   3.797
15692SOL    HW248974   1.436  12.251   3.784
15693SOL     OW48975   6.318  13.220   2.793
15693SOL    HW148976   6.359  13.145   2.751
15693SOL    HW248977   6.331  13.206   2.887
15694SOL     OW48978   9.906   3.745   7.523
15694SOL    HW148979   9.871   3.799   7.594
15694SOL    HW248980   9.866   3.780   7.443
15695SOL     OW48981  14.205  13.693   3.834
15695SOL    HW148982  14.151  13.664   3.760
15695SOL    HW248983  14.287  13.720   3.794
15696SOL     OW48984   0.980   1.215   2.028
15696SOL    HW148985   1.066   1.204   2.069
15696SOL    HW248986   0.965   1.133   1.982
15697SOL     OW48987  13.466  12.557   8.427
15697SOL    HW148988  13.483  12.565   8.333
15697SOL    HW248989  13.550  12.532   8.465
15698SOL     OW48990   5.143   5.530   7.753
15698SOL    HW148991   5.078   5.521   7.823
15698SOL    HW248992   5.220   5.567   7.797
15699SOL     OW48993   1.207  14.584  12.581
15699SOL    HW148994   1.281  14.645  12.578
15699SOL    HW248995   1.162  14.596  12.498
15700SOL     OW48996   0.722   3.147   5.411
15700SOL    HW148997   0.800   3.187   5.450
15700SOL    HW248998   0.649   3.202   5.440
15701SOL     OW48999   1.031  12.215   0.880
15701SOL    HW149000   0.955  12.194   0.933
15701SOL    HW249001   1.050  12.134   0.832
15702SOL     OW49002   1.368  14.594   9.992
15702SOL    HW149003   1.376  14.652  10.068
15702SOL    HW249004   1.418  14.516  10.017
15703SOL     OW49005  10.268   3.178   6.524
15703SOL    HW149006  10.212   3.107   6.492
15703SOL    HW249007  10.219   3.217   6.596
15704SOL     OW49008   5.893   0.507   5.678
15704SOL    HW149009   5.981   0.516   5.642
15704SOL    HW249010   5.839   0.482   5.603
15705SOL     OW49011  12.140  14.328   7.604
15705SOL    HW149012  12.056  14.375   7.612
15705SOL    HW249013  12.163  14.338   7.512
15706SOL     OW49014  12.534   6.985   3.055
15706SOL    HW149015  12.492   7.052   3.108
15706SOL    HW249016  12.611   6.959   3.105
15707SOL     OW49017   4.628   1.080  13.696
15707SOL    HW149018   4.636   1.028  13.776
15707SOL    HW249019   4.681   1.158  13.713
15708SOL     OW49020   1.583  11.043   1.771
15708SOL    HW149021   1.528  11.121   1.764
15708SOL    HW249022   1.658  11.071   1.822
15709SOL     OW49023   7.939  11.008   9.744
15709SOL    HW149024   8.002  11.080   9.749
15709SOL    HW249025   7.875  11.028   9.812
15710SOL     OW49026  10.004  13.365   3.327
15710SOL    HW149027  10.098  13.380   3.317
15710SOL    HW249028   9.966  13.453   3.331
15711SOL     OW49029   6.813   5.002  10.705
15711SOL    HW149030   6.749   5.068  10.733
15711SOL    HW249031   6.898   5.045  10.715
15712SOL     OW49032   9.019   0.172   8.252
15712SOL    HW149033   8.951   0.154   8.317
15712SOL    HW249034   8.979   0.148   8.168
15713SOL     OW49035   3.716  14.546   1.703
15713SOL    HW149036   3.710  14.472   1.764
15713SOL    HW249037   3.694  14.622   1.756
15714SOL     OW49038   4.990   2.958   2.062
15714SOL    HW149039   4.957   2.869   2.051
15714SOL    HW249040   4.918   3.014   2.034
15715SOL     OW49041   6.881   0.991   5.481
15715SOL    HW149042   6.858   1.082   5.462
15715SOL    HW249043   6.875   0.984   5.576
15716SOL     OW49044   3.687   5.064  13.599
15716SOL    HW149045   3.703   5.153  13.566
15716SOL    HW249046   3.672   5.075  13.692
15717SOL     OW49047   4.451  13.559   4.099
15717SOL    HW149048   4.378  13.511   4.059
15717SOL    HW249049   4.529  13.525   4.055
15718SOL     OW49050   0.946  13.393   1.956
15718SOL    HW149051   0.977  13.405   2.046
15718SOL    HW249052   0.917  13.303   1.952
15719SOL     OW49053  12.872  12.552  10.033
15719SOL    HW149054  12.800  12.508  10.079
15719SOL    HW249055  12.903  12.487   9.970
15720SOL     OW49056   3.095  14.404   2.427
15720SOL    HW149057   3.127  14.494   2.413
15720SOL    HW249058   3.076  14.371   2.339
15721SOL     OW49059   9.388  11.018  14.294
15721SOL    HW149060   9.368  11.045  14.204
15721SOL    HW249061   9.393  11.100  14.343
15722SOL     OW49062   8.992   7.004  10.335
15722SOL    HW149063   9.012   6.926  10.387
15722SOL    HW249064   9.037   7.076  10.380
15723SOL     OW49065  12.751   2.640   9.076
15723SOL    HW149066  12.666   2.654   9.035
15723SOL    HW249067  12.770   2.722   9.122
15724SOL     OW49068  12.218   2.986  13.698
15724SOL    HW149069  12.268   2.942  13.628
15724SOL    HW249070  12.284   3.008  13.763
15725SOL     OW49071   2.149  11.364  13.748
15725SOL    HW149072   2.149  11.452  13.786
15725SOL    HW249073   2.225  11.321  13.787
15726SOL     OW49074  14.228   9.920   8.147
15726SOL    HW149075  14.214  10.015   8.145
15726SOL    HW249076  14.319   9.910   8.175
15727SOL     OW49077   6.058   5.989  11.021
15727SOL    HW149078   6.053   6.084  11.009
15727SOL    HW249079   6.041   5.953  10.934
15728SOL     OW49080   0.187   6.589   3.557
15728SOL    HW149081   0.215   6.611   3.468
15728SOL    HW249082   0.217   6.662   3.611
15729SOL     OW49083   2.638  14.230   7.369
15729SOL    HW149084   2.655  14.310   7.419
15729SOL    HW249085   2.547  14.208   7.388
15730SOL     OW49086  10.758   4.101   5.061
15730SOL    HW149087  10.687   4.141   5.012
15730SOL    HW249088  10.721   4.019   5.093
15731SOL     OW49089   3.152   0.270   6.277
15731SOL    HW149090   3.213   0.250   6.349
15731SOL    HW249091   3.067   0.243   6.310
15732SOL     OW49092   3.458   0.976   2.093
15732SOL    HW149093   3.457   0.887   2.059
15732SOL    HW249094   3.368   0.994   2.119
15733SOL     OW49095  13.679  10.118   9.105
15733SOL    HW149096  13.645  10.066   9.177
15733SOL    HW249097  13.761  10.075   9.080
15734SOL     OW49098   9.182   5.762  13.921
15734SOL    HW149099   9.273   5.786  13.904
15734SOL    HW249100   9.188   5.681  13.972
15735SOL     OW49101  12.629   5.388   7.638
15735SOL    HW149102  12.560   5.339   7.682
15735SOL    HW249103  12.583   5.452   7.584
15736SOL     OW49104   9.325   5.897   3.251
15736SOL    HW149105   9.231   5.881   3.250
15736SOL    HW249106   9.343   5.930   3.339
15737SOL     OW49107  10.876  11.930  12.198
15737SOL    HW149108  10.968  11.954  12.208
15737SOL    HW249109  10.832  11.974  12.272
15738SOL     OW49110  11.896   9.332  13.656
15738SOL    HW149111  11.905   9.351  13.750
15738SOL    HW249112  11.971   9.277  13.635
15739SOL     OW49113  11.534  14.111  10.397
15739SOL    HW149114  11.472  14.087  10.466
15739SOL    HW249115  11.616  14.070  10.424
15740SOL     OW49116   6.713   6.534   9.379
15740SOL    HW149117   6.770   6.601   9.341
15740SOL    HW249118   6.628   6.547   9.335
15741SOL     OW49119  10.345  12.809   0.351
15741SOL    HW149120  10.413  12.762   0.399
15741SOL    HW249121  10.325  12.885   0.406
15742SOL     OW49122  10.195   8.338   2.305
15742SOL    HW149123  10.274   8.296   2.341
15742SOL    HW249124  10.143   8.361   2.381
15743SOL     OW49125   0.378  10.474  13.342
15743SOL    HW149126   0.392  10.561  13.303
15743SOL    HW249127   0.332  10.492  13.424
15744SOL     OW49128   3.309   8.936   0.078
15744SOL    HW149129   3.308   8.852   0.032
15744SOL    HW249130   3.402   8.951   0.098
15745SOL     OW49131   1.035   2.632   8.349
15745SOL    HW149132   0.958   2.658   8.299
15745SOL    HW249133   1.025   2.677   8.433
15746SOL     OW49134   5.545   8.514   0.739
15746SOL    HW149135   5.628   8.516   0.787
15746SOL    HW249136   5.533   8.422   0.716
15747SOL     OW49137   6.534   3.030  11.645
15747SOL    HW149138   6.535   2.947  11.597
15747SOL    HW249139   6.596   3.086  11.598
15748SOL     OW49140   0.206  14.308   2.742
15748SOL    HW149141   0.178  14.216   2.743
15748SOL    HW249142   0.211  14.332   2.834
15749SOL     OW49143  12.582   3.613  14.798
15749SOL    HW149144  12.518   3.674  14.832
15749SOL    HW249145  12.563   3.608  14.704
15750SOL     OW49146   5.693  10.133  12.290
15750SOL    HW149147   5.723  10.049  12.256
15750SOL    HW249148   5.761  10.195  12.263
15751SOL     OW49149  11.345   9.014  11.714
15751SOL    HW149150  11.350   8.923  11.743
15751SOL    HW249151  11.292   9.011  11.634
15752SOL     OW49152   5.039  12.916   2.303
15752SOL    HW149153   5.062  12.882   2.216
15752SOL    HW249154   4.978  12.987   2.285
15753SOL     OW49155   7.018   2.501  12.092
15753SOL    HW149156   6.924   2.486  12.107
15753SOL    HW249157   7.059   2.479  12.176
15754SOL     OW49158  13.708   5.573  12.881
15754SOL    HW149159  13.707   5.647  12.820
15754SOL    HW249160  13.727   5.497  12.826
15755SOL     OW49161   0.789   1.396  14.109
15755SOL    HW149162   0.802   1.484  14.146
15755SOL    HW249163   0.810   1.406  14.016
15756SOL     OW49164   5.257   5.571   3.377
15756SOL    HW149165   5.275   5.578   3.471
15756SOL    HW249166   5.181   5.628   3.363
15757SOL     OW49167   5.677  12.847   7.773
15757SOL    HW149168   5.609  12.911   7.790
15757SOL    HW249169   5.635  12.762   7.787
15758SOL     OW49170   0.515   2.353   6.474
15758SOL    HW149171   0.449   2.415   6.504
15758SOL    HW249172   0.466   2.289   6.422
15759SOL     OW49173   6.210  14.880  13.409
15759SOL    HW149174   6.301   0.022  13.388
15759SOL    HW249175   6.214  14.852  13.500
15760SOL     OW49176  11.223   2.936   3.681
15760SOL    HW149177  11.256   2.996   3.614
15760SOL    HW249178  11.182   2.865   3.633
15761SOL     OW49179   5.772   6.509  12.845
15761SOL    HW149180   5.847   6.556  12.810
15761SOL    HW249181   5.716   6.495  12.769
15762SOL     OW49182  10.040   0.829  13.545
15762SOL    HW149183  10.044   0.735  13.562
15762SOL    HW249184  10.116   0.847  13.489
15763SOL     OW49185   7.612  11.600  14.699
15763SOL    HW149186   7.583  11.653  14.773
15763SOL    HW249187   7.630  11.663  14.630
15764SOL     OW49188   4.566  11.989   6.277
15764SOL    HW149189   4.525  11.909   6.244
15764SOL    HW249190   4.624  12.017   6.206
15765SOL     OW49191  12.648   2.500   3.056
15765SOL    HW149192  12.555   2.521   3.047
15765SOL    HW249193  12.651   2.439   3.129
15766SOL     OW49194   3.571   2.920   1.086
15766SOL    HW149195   3.613   2.951   1.005
15766SOL    HW249196   3.643   2.885   1.138
15767SOL     OW49197   1.306   2.992   2.541
15767SOL    HW149198   1.265   2.911   2.570
15767SOL    HW249199   1.380   2.963   2.486
15768SOL     OW49200  13.859  11.797  11.090
15768SOL    HW149201  13.916  11.729  11.125
15768SOL    HW249202  13.776  11.785  11.135
15769SOL     OW49203  14.596   4.527  10.274
15769SOL    HW149204  14.587   4.456  10.338
15769SOL    HW249205  14.635   4.599  10.323
15770SOL     OW49206   2.870  12.933   2.156
15770SOL    HW149207   2.929  12.857   2.167
15770SOL    HW249208   2.924  12.998   2.111
15771SOL     OW49209  14.134   0.616   2.196
15771SOL    HW149210  14.153   0.709   2.206
15771SOL    HW249211  14.198   0.586   2.132
15772SOL     OW49212   7.274   3.316  11.526
15772SOL    HW149213   7.308   3.227  11.531
15772SOL    HW249214   7.207   3.312  11.457
15773SOL     OW49215   3.710   2.893  12.108
15773SOL    HW149216   3.762   2.834  12.054
15773SOL    HW249217   3.775   2.945  12.155
15774SOL     OW49218   0.088  11.045  11.829
15774SOL    HW149219   0.039  11.015  11.752
15774SOL    HW249220   0.042  11.124  11.857
15775SOL     OW49221   4.763  12.395   3.335
15775SOL    HW149222   4.726  12.458   3.397
15775SOL    HW249223   4.857  12.411   3.338
15776SOL     OW49224   5.012   1.296   4.226
15776SOL    HW149225   5.056   1.307   4.311
15776SOL    HW249226   4.952   1.223   4.240
15777SOL     OW49227  14.682   6.968  12.226
15777SOL    HW149228  14.737   6.909  12.276
15777SOL    HW249229  14.731   6.985  12.146
15778SOL     OW49230   7.194   2.320   9.980
15778SOL    HW149231   7.240   2.389   9.932
15778SOL    HW249232   7.239   2.239   9.955
15779SOL     OW49233   4.674   3.386   0.152
15779SOL    HW149234   4.647   3.297   0.128
15779SOL    HW249235   4.765   3.392   0.124
15780SOL     OW49236  10.661   6.004   2.133
15780SOL    HW149237  10.721   6.027   2.204
15780SOL    HW249238  10.677   5.911   2.117
15781SOL     OW49239  14.092  12.782   6.054
15781SOL    HW149240  14.117  12.873   6.038
15781SOL    HW249241  14.120  12.736   5.975
15782SOL     OW49242   3.605   2.990   9.902
15782SOL    HW149243   3.578   3.081   9.909
15782SOL    HW249244   3.526   2.940   9.922
15783SOL     OW49245   7.935   4.032   7.537
15783SOL    HW149246   7.864   4.093   7.519
15783SOL    HW249247   7.992   4.079   7.598
15784SOL     OW49248   1.394  13.197   9.241
15784SOL    HW149249   1.431  13.170   9.157
15784SOL    HW249250   1.401  13.120   9.297
15785SOL     OW49251  13.834   5.606   9.467
15785SOL    HW149252  13.830   5.620   9.372
15785SOL    HW249253  13.760   5.548   9.486
15786SOL     OW49254   8.029   7.235  12.874
15786SOL    HW149255   8.092   7.198  12.935
15786SOL    HW249256   7.978   7.298  12.926
15787SOL     OW49257  11.671   2.818  13.412
15787SOL    HW149258  11.735   2.885  13.437
15787SOL    HW249259  11.706   2.736  13.447
15788SOL     OW49260   0.395   2.050  12.783
15788SOL    HW149261   0.314   2.067  12.832
15788SOL    HW249262   0.447   1.995  12.841
15789SOL     OW49263   2.668   3.846   2.563
15789SOL    HW149264   2.649   3.917   2.624
15789SOL    HW249265   2.602   3.855   2.494
15790SOL     OW49266   7.157  14.339   8.884
15790SOL    HW149267   7.174  14.431   8.863
15790SOL    HW249268   7.237  14.309   8.928
15791SOL     OW49269   3.058   4.977   8.649
15791SOL    HW149270   2.966   5.006   8.646
15791SOL    HW249271   3.108   5.053   8.621
15792SOL     OW49272   3.177   1.235   8.362
15792SOL    HW149273   3.189   1.192   8.447
15792SOL    HW249274   3.175   1.329   8.382
15793SOL     OW49275  10.923   4.294   5.149
15793SOL    HW149276  10.849   4.254   5.104
15793SOL    HW249277  10.895   4.300   5.240
15794SOL     OW49278  13.883   5.152  14.190
15794SOL    HW149279  13.876   5.227  14.130
15794SOL    HW249280  13.817   5.170  14.257
15795SOL     OW49281   2.624  14.741   7.386
15795SOL    HW149282   2.719  14.745   7.397
15795SOL    HW249283   2.607  14.799   7.311
15796SOL     OW49284  11.523  13.402  10.577
15796SOL    HW149285  11.569  13.467  10.524
15796SOL    HW249286  11.527  13.438  10.666
15797SOL     OW49287  13.662   6.333   2.220
15797SOL    HW149288  13.608   6.255   2.234
15797SOL    HW249289  13.603   6.406   2.239
15798SOL     OW49290   4.864  11.177   4.239
15798SOL    HW149291   4.803  11.108   4.265
15798SOL    HW249292   4.945  11.131   4.218
15799SOL     OW49293   1.013   6.822  12.549
15799SOL    HW149294   1.062   6.841  12.468
15799SOL    HW249295   1.058   6.874  12.616
15800SOL     OW49296  14.410   4.423   6.772
15800SOL    HW149297  14.430   4.515   6.788
15800SOL    HW249298  14.321   4.412   6.804
15801SOL     OW49299   0.068   4.308   6.960
15801SOL    HW149300   0.090   4.391   6.918
15801SOL    HW249301   0.146   4.284   7.008
15802SOL     OW49302   8.729   6.211   5.136
15802SOL    HW149303   8.700   6.302   5.124
15802SOL    HW249304   8.657   6.159   5.100
15803SOL     OW49305   2.252   5.156   2.868
15803SOL    HW149306   2.275   5.180   2.958
15803SOL    HW249307   2.262   5.061   2.865
15804SOL     OW49308   9.634  14.317   7.760
15804SOL    HW149309   9.667  14.248   7.817
15804SOL    HW249310   9.539  14.313   7.770
15805SOL     OW49311  14.531  14.010   7.440
15805SOL    HW149312  14.596  14.052   7.384
15805SOL    HW249313  14.579  13.941   7.486
15806SOL     OW49314  11.802   7.936  10.641
15806SOL    HW149315  11.841   7.849  10.648
15806SOL    HW249316  11.712   7.924  10.671
15807SOL     OW49317   4.499   3.030  12.526
15807SOL    HW149318   4.496   3.092  12.599
15807SOL    HW249319   4.465   2.948  12.564
15808SOL     OW49320   0.959  13.889  11.768
15808SOL    HW149321   1.047  13.901  11.803
15808SOL    HW249322   0.972  13.849  11.682
15809SOL     OW49323   2.840   2.583   3.754
15809SOL    HW149324   2.845   2.498   3.798
15809SOL    HW249325   2.845   2.647   3.824
15810SOL     OW49326  12.690   6.307   2.445
15810SOL    HW149327  12.716   6.305   2.537
15810SOL    HW249328  12.766   6.273   2.398
15811SOL     OW49329   7.993   4.339   7.440
15811SOL    HW149330   8.063   4.285   7.403
15811SOL    HW249331   7.913   4.289   7.423
15812SOL     OW49332   3.182  10.100   4.059
15812SOL    HW149333   3.185  10.017   4.011
15812SOL    HW249334   3.114  10.086   4.126
15813SOL     OW49335   0.394  13.542   6.651
15813SOL    HW149336   0.469  13.548   6.592
15813SOL    HW249337   0.413  13.605   6.720
15814SOL     OW49338   7.498   4.721   0.656
15814SOL    HW149339   7.403   4.708   0.663
15814SOL    HW249340   7.511   4.756   0.568
15815SOL     OW49341   9.174   3.090  13.806
15815SOL    HW149342   9.203   3.159  13.865
15815SOL    HW249343   9.217   3.110  13.723
15816SOL     OW49344   7.571   7.474   5.324
15816SOL    HW149345   7.521   7.543   5.281
15816SOL    HW249346   7.638   7.520   5.374
15817SOL     OW49347   2.610   9.396   2.436
15817SOL    HW149348   2.589   9.477   2.482
15817SOL    HW249349   2.579   9.327   2.495
15818SOL     OW49350   6.285   2.169   9.291
15818SOL    HW149351   6.259   2.243   9.346
15818SOL    HW249352   6.313   2.101   9.352
15819SOL     OW49353  11.614   9.287   7.954
15819SOL    HW149354  11.672   9.227   7.909
15819SOL    HW249355  11.621   9.262   8.047
15820SOL     OW49356  14.233   3.787  11.808
15820SOL    HW149357  14.170   3.819  11.872
15820SOL    HW249358  14.272   3.710  11.850
15821SOL     OW49359  10.385   6.100  10.326
15821SOL    HW149360  10.474   6.086  10.293
15821SOL    HW249361  10.394   6.095  10.422
15822SOL     OW49362   2.393   9.034  10.278
15822SOL    HW149363   2.340   9.113  10.274
15822SOL    HW249364   2.334   8.966  10.313
15823SOL     OW49365   3.718   4.955   6.420
15823SOL    HW149366   3.622   4.956   6.431
15823SOL    HW249367   3.747   5.037   6.459
15824SOL     OW49368   4.970  11.931  10.977
15824SOL    HW149369   4.904  11.993  10.947
15824SOL    HW249370   4.936  11.845  10.949
15825SOL     OW49371   8.223   7.375   3.297
15825SOL    HW149372   8.204   7.404   3.208
15825SOL    HW249373   8.155   7.312   3.317
15826SOL     OW49374   8.937   7.743   0.013
15826SOL    HW149375   8.960   7.752  14.802
15826SOL    HW249376   8.841   7.738   0.013
15827SOL     OW49377   1.682  11.847   8.850
15827SOL    HW149378   1.665  11.763   8.807
15827SOL    HW249379   1.616  11.853   8.919
15828SOL     OW49380   2.428   7.838   2.535
15828SOL    HW149381   2.357   7.831   2.471
15828SOL    HW249382   2.505   7.806   2.489
15829SOL     OW49383   2.160   9.482   7.046
15829SOL    HW149384   2.161   9.527   7.130
15829SOL    HW249385   2.074   9.442   7.040
15830SOL     OW49386  13.848   0.839   7.814
15830SOL    HW149387  13.805   0.852   7.899
15830SOL    HW249388  13.892   0.922   7.796
15831SOL     OW49389   0.183   8.888   5.781
15831SOL    HW149390   0.246   8.938   5.730
15831SOL    HW249391   0.230   8.810   5.808
15832SOL     OW49392   2.945   7.168  12.117
15832SOL    HW149393   2.995   7.154  12.197
15832SOL    HW249394   2.867   7.113  12.127
15833SOL     OW49395   9.285   4.501  11.648
15833SOL    HW149396   9.238   4.582  11.628
15833SOL    HW249397   9.347   4.525  11.716
15834SOL     OW49398  13.466  13.376   1.915
15834SOL    HW149399  13.398  13.418   1.967
15834SOL    HW249400  13.432  13.380   1.825
15835SOL     OW49401   8.596   4.304  10.639
15835SOL    HW149402   8.681   4.298  10.596
15835SOL    HW249403   8.582   4.397  10.654
15836SOL     OW49404   8.055  11.932   5.787
15836SOL    HW149405   8.052  11.842   5.755
15836SOL    HW249406   8.013  11.928   5.873
15837SOL     OW49407   2.030   0.774   4.979
15837SOL    HW149408   2.120   0.788   4.952
15837SOL    HW249409   1.994   0.862   4.991
15838SOL     OW49410   0.614  10.991   3.550
15838SOL    HW149411   0.535  10.991   3.496
15838SOL    HW249412   0.585  11.020   3.636
15839SOL     OW49413   6.667  14.361   9.543
15839SOL    HW149414   6.577  14.381   9.570
15839SOL    HW249415   6.675  14.402   9.457
15840SOL     OW49416   0.426   5.783   6.114
15840SOL    HW149417   0.365   5.856   6.128
15840SOL    HW249418   0.507   5.825   6.085
15841SOL     OW49419   8.878  10.312   4.437
15841SOL    HW149420   8.836  10.314   4.523
15841SOL    HW249421   8.805  10.306   4.375
15842SOL     OW49422  13.815   6.960   8.730
15842SOL    HW149423  13.755   6.909   8.785
15842SOL    HW249424  13.889   6.902   8.714
15843SOL     OW49425   3.590   4.515  11.145
15843SOL    HW149426   3.602   4.430  11.104
15843SOL    HW249427   3.674   4.559  11.133
15844SOL     OW49428   9.916   2.533  11.203
15844SOL    HW149429   9.831   2.553  11.242
15844SOL    HW249430   9.901   2.452  11.155
15845SOL     OW49431   8.801   7.680   1.711
15845SOL    HW149432   8.765   7.744   1.772
15845SOL    HW249433   8.890   7.712   1.693
15846SOL     OW49434   7.987  13.054   5.424
15846SOL    HW149435   8.051  12.993   5.388
15846SOL    HW249436   8.039  13.116   5.476
15847SOL     OW49437  13.277   4.584   4.457
15847SOL    HW149438  13.216   4.520   4.421
15847SOL    HW249439  13.364   4.545   4.443
15848SOL     OW49440   1.098   4.607   1.477
15848SOL    HW149441   1.092   4.690   1.431
15848SOL    HW249442   1.052   4.622   1.560
15849SOL     OW49443  11.105   9.118   0.465
15849SOL    HW149444  11.018   9.105   0.427
15849SOL    HW249445  11.087   9.161   0.549
15850SOL     OW49446  12.058   8.665   6.128
15850SOL    HW149447  12.015   8.635   6.048
15850SOL    HW249448  12.079   8.584   6.175
15851SOL     OW49449   1.970  14.575   1.436
15851SOL    HW149450   2.057  14.603   1.408
15851SOL    HW249451   1.914  14.652   1.421
15852SOL     OW49452   6.242  11.291   6.096
15852SOL    HW149453   6.226  11.206   6.137
15852SOL    HW249454   6.220  11.277   6.003
15853SOL     OW49455   9.128   3.495   3.694
15853SOL    HW149456   9.208   3.478   3.644
15853SOL    HW249457   9.159   3.526   3.779
15854SOL     OW49458  13.240   4.367   8.051
15854SOL    HW149459  13.232   4.310   7.974
15854SOL    HW249460  13.152   4.367   8.089
15855SOL     OW49461   0.708   0.210  14.722
15855SOL    HW149462   0.748   0.166  14.797
15855SOL    HW249463   0.663   0.285  14.759
15856SOL     OW49464   4.508   4.631   3.149
15856SOL    HW149465   4.589   4.583   3.133
15856SOL    HW249466   4.484   4.607   3.239
15857SOL     OW49467  10.059   9.395   7.393
15857SOL    HW149468  10.113   9.462   7.350
15857SOL    HW249469   9.988   9.444   7.434
15858SOL     OW49470  11.719   0.571   1.684
15858SOL    HW149471  11.682   0.494   1.640
15858SOL    HW249472  11.755   0.625   1.613
15859SOL     OW49473  10.624  10.845   1.092
15859SOL    HW149474  10.641  10.830   0.999
15859SOL    HW249475  10.703  10.813   1.136
15860SOL     OW49476   5.595   3.110   7.939
15860SOL    HW149477   5.669   3.057   7.968
15860SOL    HW249478   5.520   3.076   7.989
15861SOL     OW49479   3.325   4.889   1.207
15861SOL    HW149480   3.269   4.891   1.129
15861SOL    HW249481   3.287   4.954   1.266
15862SOL     OW49482  11.443   8.090   1.302
15862SOL    HW149483  11.491   8.035   1.363
15862SOL    HW249484  11.460   8.180   1.331
15863SOL     OW49485   6.816  12.584  10.251
15863SOL    HW149486   6.838  12.601  10.159
15863SOL    HW249487   6.887  12.527  10.282
15864SOL     OW49488   3.478   5.855  14.154
15864SOL    HW149489   3.568   5.824  14.147
15864SOL    HW249490   3.428   5.796  14.098
15865SOL     OW49491   8.100   0.282   1.910
15865SOL    HW149492   8.026   0.220   1.911
15865SOL    HW249493   8.119   0.296   2.003
15866SOL     OW49494   4.245   9.474   4.300
15866SOL    HW149495   4.293   9.554   4.281
15866SOL    HW249496   4.203   9.451   4.218
15867SOL     OW49497   7.179  13.285   4.730
15867SOL    HW149498   7.223  13.225   4.670
15867SOL    HW249499   7.251  13.329   4.775
15868SOL     OW49500   6.890   2.785   1.263
15868SOL    HW149501   6.938   2.863   1.238
15868SOL    HW249502   6.802   2.816   1.282
15869SOL     OW49503   8.104  10.745   8.726
15869SOL    HW149504   8.126  10.688   8.652
15869SOL    HW249505   8.017  10.716   8.754
15870SOL     OW49506   4.739   7.319   6.898
15870SOL    HW149507   4.688   7.369   6.834
15870SOL    HW249508   4.769   7.384   6.961
15871SOL     OW49509   2.403   4.555  12.269
15871SOL    HW149510   2.385   4.648  12.285
15871SOL    HW249511   2.317   4.516  12.255
15872SOL     OW49512   2.019   6.648  11.051
15872SOL    HW149513   2.007   6.678  11.141
15872SOL    HW249514   2.111   6.621  11.047
15873SOL     OW49515   4.272  10.236   1.326
15873SOL    HW149516   4.322  10.258   1.247
15873SOL    HW249517   4.182  10.259   1.303
15874SOL     OW49518   9.716  13.452  10.137
15874SOL    HW149519   9.719  13.543  10.108
15874SOL    HW249520   9.636  13.446  10.189
15875SOL     OW49521   5.065   5.755  10.401
15875SOL    HW149522   5.080   5.849  10.412
15875SOL    HW249523   5.137   5.714  10.448
15876SOL     OW49524  10.535   5.408   5.957
15876SOL    HW149525  10.568   5.343   5.896
15876SOL    HW249526  10.440   5.402   5.950
15877SOL     OW49527   3.388   2.495  14.728
15877SOL    HW149528   3.348   2.539  14.803
15877SOL    HW249529   3.324   2.429  14.701
15878SOL     OW49530   2.597   6.415  11.463
15878SOL    HW149531   2.674   6.469  11.447
15878SOL    HW249532   2.548   6.462  11.531
15879SOL     OW49533   8.192   8.283   2.064
15879SOL    HW149534   8.131   8.322   2.126
15879SOL    HW249535   8.136   8.243   1.997
15880SOL     OW49536  14.409   4.147   1.407
15880SOL    HW149537  14.399   4.102   1.491
15880SOL    HW249538  14.499   4.128   1.380
15881SOL     OW49539   0.444   0.246   3.419
15881SOL    HW149540   0.394   0.244   3.500
15881SOL    HW249541   0.378   0.248   3.349
15882SOL     OW49542  11.476  13.368   2.032
15882SOL    HW149543  11.541  13.323   2.087
15882SOL    HW249544  11.510  13.359   1.943
15883SOL     OW49545  10.208  14.426  12.770
15883SOL    HW149546  10.158  14.348  12.792
15883SOL    HW249547  10.210  14.477  12.851
15884SOL     OW49548  14.628  10.289  13.442
15884SOL    HW149549  14.541  10.251  13.435
15884SOL    HW249550  14.632  10.352  13.370
15885SOL     OW49551   5.741   4.446   1.848
15885SOL    HW149552   5.688   4.382   1.800
15885SOL    HW249553   5.760   4.403   1.931
15886SOL     OW49554   1.326   1.022   3.017
15886SOL    HW149555   1.328   0.965   2.941
15886SOL    HW249556   1.262   0.981   3.076
15887SOL     OW49557   7.369  14.865   2.110
15887SOL    HW149558   7.337   0.044   2.177
15887SOL    HW249559   7.345   0.024   2.027
15888SOL     OW49560   5.418   5.638  10.210
15888SOL    HW149561   5.412   5.578  10.135
15888SOL    HW249562   5.512   5.644  10.228
15889SOL     OW49563   8.682   1.941  13.556
15889SOL    HW149564   8.608   1.962  13.500
15889SOL    HW249565   8.757   1.987  13.518
15890SOL     OW49566   4.792   7.075   6.999
15890SOL    HW149567   4.702   7.044   7.001
15890SOL    HW249568   4.787   7.160   6.955
15891SOL     OW49569   6.161   8.363   3.406
15891SOL    HW149570   6.141   8.396   3.319
15891SOL    HW249571   6.151   8.439   3.464
15892SOL     OW49572  11.362   3.612  10.006
15892SOL    HW149573  11.426   3.569  10.062
15892SOL    HW249574  11.277   3.577  10.034
15893SOL     OW49575   9.618  11.369  10.423
15893SOL    HW149576   9.569  11.448  10.449
15893SOL    HW249577   9.668  11.396  10.346
15894SOL     OW49578  14.144  11.948   4.785
15894SOL    HW149579  14.096  12.015   4.735
15894SOL    HW249580  14.202  11.999   4.842
15895SOL     OW49581  11.303   0.022   0.613
15895SOL    HW149582  11.373   0.067   0.660
15895SOL    HW249583  11.227   0.028   0.672
15896SOL     OW49584  14.179   2.142   5.312
15896SOL    HW149585  14.122   2.084   5.262
15896SOL    HW249586  14.207   2.208   5.248
15897SOL     OW49587  10.931   0.256   3.424
15897SOL    HW149588  10.951   0.234   3.333
15897SOL    HW249589  10.838   0.277   3.424
15898SOL     OW49590  10.526   5.032   9.841
15898SOL    HW149591  10.528   4.982   9.759
15898SOL    HW249592  10.437   5.019   9.875
15899SOL     OW49593   3.444   9.024  13.716
15899SOL    HW149594   3.530   8.985  13.701
15899SOL    HW249595   3.387   8.980  13.652
15900SOL     OW49596  11.622  10.963   8.815
15900SOL    HW149597  11.579  10.894   8.866
15900SOL    HW249598  11.581  11.044   8.844
15901SOL     OW49599   5.256  13.987   1.340
15901SOL    HW149600   5.195  13.954   1.406
15901SOL    HW249601   5.325  13.921   1.335
15902SOL     OW49602  10.325   8.612  10.986
15902SOL    HW149603  10.412   8.614  10.948
15902SOL    HW249604  10.266   8.594  10.913
15903SOL     OW49605   3.708  10.551   0.376
15903SOL    HW149606   3.759  10.631   0.394
15903SOL    HW249607   3.704  10.546   0.281
15904SOL     OW49608  10.473  11.579   6.966
15904SOL    HW149609  10.478  11.673   6.986
15904SOL    HW249610  10.533  11.539   7.029
15905SOL     OW49611   9.999   7.854   6.184
15905SOL    HW149612   9.999   7.761   6.208
15905SOL    HW249613  10.040   7.856   6.098
15906SOL     OW49614  12.034   8.804  14.807
15906SOL    HW149615  11.985   8.794   0.006
15906SOL    HW249616  11.981   8.863  14.753
15907SOL     OW49617   0.626   7.958   3.025
15907SOL    HW149618   0.681   7.919   2.957
15907SOL    HW249619   0.663   8.045   3.038
15908SOL     OW49620  11.703  12.075   3.879
15908SOL    HW149621  11.696  12.119   3.964
15908SOL    HW249622  11.630  12.014   3.878
15909SOL     OW49623   2.757   3.529   9.543
15909SOL    HW149624   2.758   3.437   9.569
15909SOL    HW249625   2.801   3.576   9.614
15910SOL     OW49626  13.543  14.106   0.168
15910SOL    HW149627  13.462  14.066   0.137
15910SOL    HW249628  13.514  14.184   0.216
15911SOL     OW49629  11.523   5.723   8.655
15911SOL    HW149630  11.574   5.780   8.713
15911SOL    HW249631  11.531   5.764   8.569
15912SOL     OW49632  13.485   9.650   4.289
15912SOL    HW149633  13.532   9.681   4.366
15912SOL    HW249634  13.400   9.694   4.294
15913SOL     OW49635   4.417   3.207   6.791
15913SOL    HW149636   4.379   3.138   6.845
15913SOL    HW249637   4.405   3.176   6.701
15914SOL     OW49638   0.833   8.925   4.468
15914SOL    HW149639   0.753   8.926   4.520
15914SOL    HW249640   0.886   8.996   4.504
15915SOL     OW49641   8.648   2.905   3.742
15915SOL    HW149642   8.630   2.968   3.671
15915SOL    HW249643   8.628   2.953   3.822
15916SOL     OW49644   1.701  11.669   4.090
15916SOL    HW149645   1.728  11.598   4.032
15916SOL    HW249646   1.776  11.729   4.090
15917SOL     OW49647  11.399   2.582   5.899
15917SOL    HW149648  11.466   2.514   5.890
15917SOL    HW249649  11.426   2.651   5.838
15918SOL     OW49650   6.931  11.465   2.061
15918SOL    HW149651   6.957  11.403   1.992
15918SOL    HW249652   6.843  11.438   2.085
15919SOL     OW49653  12.733   6.842  10.567
15919SOL    HW149654  12.649   6.879  10.539
15919SOL    HW249655  12.717   6.811  10.656
15920SOL     OW49656   2.092   6.639   5.956
15920SOL    HW149657   2.068   6.730   5.976
15920SOL    HW249658   2.014   6.589   5.978
15921SOL     OW49659  13.340   2.696   1.679
15921SOL    HW149660  13.280   2.715   1.751
15921SOL    HW249661  13.420   2.743   1.701
15922SOL     OW49662  14.712   8.063   0.805
15922SOL    HW149663  14.659   8.004   0.752
15922SOL    HW249664  14.708   8.027   0.893
15923SOL     OW49665   2.324   7.119   9.354
15923SOL    HW149666   2.413   7.152   9.368
15923SOL    HW249667   2.336   7.025   9.343
15924SOL     OW49668   9.559  13.000   0.531
15924SOL    HW149669   9.580  13.026   0.620
15924SOL    HW249670   9.564  12.904   0.531
15925SOL     OW49671  14.024   8.071  13.193
15925SOL    HW149672  14.047   7.978  13.202
15925SOL    HW249673  14.099   8.110  13.149
15926SOL     OW49674  10.553   7.281  14.720
15926SOL    HW149675  10.617   7.327  14.774
15926SOL    HW249676  10.592   7.282  14.632
15927SOL     OW49677  14.184  10.045   2.865
15927SOL    HW149678  14.161  10.027   2.956
15927SOL    HW249679  14.128  10.118   2.840
15928SOL     OW49680   2.124   0.797   7.192
15928SOL    HW149681   2.031   0.796   7.213
15928SOL    HW249682   2.156   0.880   7.227
15929SOL     OW49683   8.403   1.595   4.166
15929SOL    HW149684   8.471   1.647   4.209
15929SOL    HW249685   8.446   1.512   4.145
15930SOL     OW49686  11.041  13.408   8.709
15930SOL    HW149687  10.960  13.358   8.708
15930SOL    HW249688  11.036  13.465   8.632
15931SOL     OW49689  12.037   0.609  11.411
15931SOL    HW149690  12.088   0.684  11.381
15931SOL    HW249691  11.984   0.643  11.483
15932SOL     OW49692   9.068   8.576   2.502
15932SOL    HW149693   9.137   8.593   2.439
15932SOL    HW249694   8.996   8.635   2.477
15933SOL     OW49695  13.733  13.177   4.231
15933SOL    HW149696  13.783  13.232   4.291
15933SOL    HW249697  13.697  13.239   4.167
15934SOL     OW49698   0.558  10.019   9.003
15934SOL    HW149699   0.561  10.051   9.093
15934SOL    HW249700   0.650  10.015   8.976
15935SOL     OW49701  11.474   0.203   0.991
15935SOL    HW149702  11.494   0.287   0.948
15935SOL    HW249703  11.559   0.170   1.019
15936SOL     OW49704   8.070  12.373   3.760
15936SOL    HW149705   8.165  12.358   3.759
15936SOL    HW249706   8.033  12.291   3.791
15937SOL     OW49707   7.886   5.840   5.662
15937SOL    HW149708   7.847   5.927   5.664
15937SOL    HW249709   7.979   5.855   5.677
15938SOL     OW49710   3.986   7.828   0.808
15938SOL    HW149711   4.043   7.759   0.840
15938SOL    HW249712   3.899   7.806   0.841
15939SOL     OW49713  10.628   3.574   7.776
15939SOL    HW149714  10.560   3.509   7.794
15939SOL    HW249715  10.665   3.594   7.862
15940SOL     OW49716  12.866   9.685   1.941
15940SOL    HW149717  12.803   9.627   1.897
15940SOL    HW249718  12.868   9.654   2.031
15941SOL     OW49719   7.161   1.059   5.491
15941SOL    HW149720   7.168   1.154   5.488
15941SOL    HW249721   7.070   1.042   5.464
15942SOL     OW49722  10.869   1.639   0.966
15942SOL    HW149723  10.945   1.694   0.989
15942SOL    HW249724  10.801   1.702   0.942
15943SOL     OW49725   4.402   5.768   5.551
15943SOL    HW149726   4.498   5.766   5.549
15943SOL    HW249727   4.378   5.692   5.603
15944SOL     OW49728   2.655   6.826   3.121
15944SOL    HW149729   2.679   6.776   3.198
15944SOL    HW249730   2.586   6.885   3.150
15945SOL     OW49731   2.324  10.641   9.628
15945SOL    HW149732   2.290  10.574   9.687
15945SOL    HW249733   2.397  10.599   9.582
15946SOL     OW49734   9.246   6.159  14.216
15946SOL    HW149735   9.180   6.121  14.158
15946SOL    HW249736   9.196   6.198  14.287
15947SOL     OW49737  11.092   1.786   1.282
15947SOL    HW149738  11.112   1.753   1.195
15947SOL    HW249739  10.997   1.782   1.289
15948SOL     OW49740   7.576  10.771  13.605
15948SOL    HW149741   7.616  10.821  13.534
15948SOL    HW249742   7.517  10.833  13.648
15949SOL     OW49743   9.103   4.005  11.486
15949SOL    HW149744   9.070   4.000  11.576
15949SOL    HW249745   9.198   3.991  11.494
15950SOL     OW49746   4.046   1.371   6.177
15950SOL    HW149747   4.035   1.410   6.090
15950SOL    HW249748   3.957   1.362   6.211
15951SOL     OW49749   5.164   9.477   3.550
15951SOL    HW149750   5.197   9.387   3.548
15951SOL    HW249751   5.202   9.515   3.629
15952SOL     OW49752  14.154   5.141   3.963
15952SOL    HW149753  14.076   5.132   4.017
15952SOL    HW249754  14.134   5.092   3.883
15953SOL     OW49755   3.881   3.273   4.502
15953SOL    HW149756   3.931   3.252   4.581
15953SOL    HW249757   3.941   3.324   4.448
15954SOL     OW49758   8.232  14.480  13.694
15954SOL    HW149759   8.162  14.500  13.632
15954SOL    HW249760   8.192  14.421  13.758
15955SOL     OW49761  10.443   3.047   7.026
15955SOL    HW149762  10.501   3.032   7.100
15955SOL    HW249763  10.501   3.054   6.950
15956SOL     OW49764   3.116   6.987  10.634
15956SOL    HW149765   3.070   7.070  10.647
15956SOL    HW249766   3.100   6.938  10.715
15957SOL     OW49767   9.324   5.878  10.302
15957SOL    HW149768   9.385   5.941  10.341
15957SOL    HW249769   9.379   5.820  10.249
15958SOL     OW49770  10.089  11.436   6.240
15958SOL    HW149771  10.062  11.354   6.200
15958SOL    HW249772  10.110  11.413   6.331
15959SOL     OW49773  11.722   1.650   2.916
15959SOL    HW149774  11.767   1.691   2.990
15959SOL    HW249775  11.747   1.558   2.921
15960SOL     OW49776   7.855   8.273   2.607
15960SOL    HW149777   7.872   8.200   2.548
15960SOL    HW249778   7.920   8.339   2.584
15961SOL     OW49779  13.232  13.327  14.179
15961SOL    HW149780  13.245  13.414  14.216
15961SOL    HW249781  13.320  13.294  14.161
15962SOL     OW49782  14.164   1.094   0.436
15962SOL    HW149783  14.072   1.069   0.427
15962SOL    HW249784  14.202   1.077   0.350
15963SOL     OW49785  10.943   6.738  12.307
15963SOL    HW149786  10.883   6.730  12.382
15963SOL    HW249787  11.023   6.695  12.336
15964SOL     OW49788  12.361   5.306   3.171
15964SOL    HW149789  12.447   5.330   3.204
15964SOL    HW249790  12.302   5.374   3.203
15965SOL     OW49791  11.218   4.944   5.140
15965SOL    HW149792  11.303   4.986   5.123
15965SOL    HW249793  11.155   4.997   5.091
15966SOL     OW49794   0.795  11.354  14.025
15966SOL    HW149795   0.828  11.341  14.114
15966SOL    HW249796   0.706  11.317  14.027
15967SOL     OW49797   3.996   4.021  12.185
15967SOL    HW149798   3.938   3.944  12.175
15967SOL    HW249799   3.966   4.063  12.265
15968SOL     OW49800   7.000   5.255   5.270
15968SOL    HW149801   7.010   5.249   5.175
15968SOL    HW249802   7.078   5.210   5.305
15969SOL     OW49803  11.905   6.223   6.827
15969SOL    HW149804  11.864   6.139   6.804
15969SOL    HW249805  11.835   6.287   6.818
15970SOL     OW49806  14.873  10.543   7.600
15970SOL    HW149807  14.864  10.473   7.664
15970SOL    HW249808  14.831  10.510   7.521
15971SOL     OW49809  10.683   3.166  12.007
15971SOL    HW149810  10.709   3.074  12.011
15971SOL    HW249811  10.589   3.162  11.986
15972SOL     OW49812   0.553   2.173   2.948
15972SOL    HW149813   0.562   2.118   2.870
15972SOL    HW249814   0.608   2.249   2.931
15973SOL     OW49815   6.439   1.360   8.028
15973SOL    HW149816   6.473   1.437   8.074
15973SOL    HW249817   6.415   1.392   7.941
15974SOL     OW49818   1.973   1.240  10.115
15974SOL    HW149819   1.954   1.280  10.031
15974SOL    HW249820   2.069   1.244  10.123
15975SOL     OW49821   0.081  11.586   4.248
15975SOL    HW149822   0.140  11.511   4.237
15975SOL    HW249823   0.024  11.560   4.321
15976SOL     OW49824  10.380   1.447  14.771
15976SOL    HW149825  10.398   1.432  14.678
15976SOL    HW249826  10.315   1.517  14.772
15977SOL     OW49827   6.760  13.186   2.508
15977SOL    HW149828   6.822  13.204   2.579
15977SOL    HW249829   6.684  13.240   2.528
15978SOL     OW49830   0.541   0.964   3.504
15978SOL    HW149831   0.474   0.969   3.435
15978SOL    HW249832   0.498   1.001   3.581
15979SOL     OW49833   2.524   4.243  12.692
15979SOL    HW149834   2.531   4.323  12.640
15979SOL    HW249835   2.571   4.177  12.640
15980SOL     OW49836   9.448   5.762   7.174
15980SOL    HW149837   9.354   5.753   7.161
15980SOL    HW249838   9.479   5.673   7.190
15981SOL     OW49839   6.686   9.417  14.520
15981SOL    HW149840   6.731   9.390  14.440
15981SOL    HW249841   6.738   9.490  14.553
15982SOL     OW49842  14.044   1.833   4.257
15982SOL    HW149843  13.977   1.796   4.199
15982SOL    HW249844  13.996   1.867   4.332
15983SOL     OW49845   9.031   3.416   9.288
15983SOL    HW149846   9.105   3.473   9.308
15983SOL    HW249847   9.017   3.426   9.194
15984SOL     OW49848   4.323   1.049   0.666
15984SOL    HW149849   4.265   0.991   0.715
15984SOL    HW249850   4.311   1.135   0.706
15985SOL     OW49851   7.421   7.541  10.450
15985SOL    HW149852   7.471   7.460  10.453
15985SOL    HW249853   7.334   7.517  10.483
15986SOL     OW49854   7.179   6.980  14.139
15986SOL    HW149855   7.174   6.942  14.052
15986SOL    HW249856   7.136   7.065  14.131
15987SOL     OW49857  10.113  10.030   1.384
15987SOL    HW149858  10.081  10.102   1.438
15987SOL    HW249859  10.209  10.038   1.389
15988SOL     OW49860  14.437   2.016   1.218
15988SOL    HW149861  14.469   2.069   1.291
15988SOL    HW249862  14.383   2.076   1.167
15989SOL     OW49863   9.414   7.393   5.802
15989SOL    HW149864   9.478   7.464   5.792
15989SOL    HW249865   9.463   7.321   5.841
15990SOL     OW49866  11.453   4.159  13.482
15990SOL    HW149867  11.504   4.197  13.411
15990SOL    HW249868  11.424   4.074  13.449
15991SOL     OW49869  13.697  10.667   5.435
15991SOL    HW149870  13.646  10.618   5.499
15991SOL    HW249871  13.751  10.726   5.488
15992SOL     OW49872   3.139  10.850   7.956
15992SOL    HW149873   3.141  10.765   7.913
15992SOL    HW249874   3.117  10.912   7.887
15993SOL     OW49875   3.146   1.520  12.322
15993SOL    HW149876   3.199   1.560  12.252
15993SOL    HW249877   3.064   1.496  12.280
15994SOL     OW49878   7.248   9.022   7.165
15994SOL    HW149879   7.300   8.942   7.173
15994SOL    HW249880   7.305   9.083   7.118
15995SOL     OW49881  12.166   8.195  10.415
15995SOL    HW149882  12.191   8.279  10.455
15995SOL    HW249883  12.119   8.149  10.484
15996SOL     OW49884   1.143   3.494  13.322
15996SOL    HW149885   1.082   3.467  13.390
15996SOL    HW249886   1.110   3.453  13.242
15997SOL     OW49887   8.859   2.589   3.553
15997SOL    HW149888   8.772   2.609   3.588
15997SOL    HW249889   8.842   2.555   3.465
15998SOL     OW49890   2.447   4.100   4.062
15998SOL    HW149891   2.411   4.161   4.126
15998SOL    HW249892   2.517   4.149   4.018
15999SOL     OW49893   3.338   2.876  10.883
15999SOL    HW149894   3.333   2.949  10.945
15999SOL    HW249895   3.351   2.799  10.938
16000SOL     OW49896   4.975  10.177   7.126
16000SOL    HW149897   4.962  10.271   7.114
16000SOL    HW249898   4.958  10.139   7.039
16001SOL     OW49899   2.591  14.591  13.172
16001SOL    HW149900   2.510  14.590  13.223
16001SOL    HW249901   2.639  14.667  13.204
16002SOL     OW49902   2.840  14.730  10.660
16002SOL    HW149903   2.925  14.719  10.618
16002SOL    HW249904   2.786  14.776  10.596
16003SOL     OW49905  13.597   8.275   3.715
16003SOL    HW149906  13.687   8.309   3.718
16003SOL    HW249907  13.566   8.282   3.805
16004SOL     OW49908   1.871   5.490  10.378
16004SOL    HW149909   1.805   5.528  10.436
16004SOL    HW249910   1.849   5.525  10.291
16005SOL     OW49911  12.152   8.374  12.766
16005SOL    HW149912  12.143   8.452  12.711
16005SOL    HW249913  12.105   8.305  12.718
16006SOL     OW49914   8.355   9.495   0.133
16006SOL    HW149915   8.435   9.490   0.081
16006SOL    HW249916   8.359   9.417   0.190
16007SOL     OW49917  12.303   3.992   5.777
16007SOL    HW149918  12.292   3.992   5.872
16007SOL    HW249919  12.227   4.041   5.744
16008SOL     OW49920   4.895   5.608   5.151
16008SOL    HW149921   4.882   5.600   5.056
16008SOL    HW249922   4.984   5.643   5.160
16009SOL     OW49923   0.560   3.361   9.988
16009SOL    HW149924   0.478   3.327  10.022
16009SOL    HW249925   0.592   3.420  10.057
16010SOL     OW49926  13.638   0.729   8.274
16010SOL    HW149927  13.655   0.673   8.198
16010SOL    HW249928  13.722   0.734   8.319
16011SOL     OW49929   2.379   5.390   1.011
16011SOL    HW149930   2.446   5.381   1.079
16011SOL    HW249931   2.297   5.400   1.060
16012SOL     OW49932   8.839   3.200  10.872
16012SOL    HW149933   8.830   3.260  10.947
16012SOL    HW249934   8.927   3.216  10.839
16013SOL     OW49935   6.065   3.530   4.346
16013SOL    HW149936   6.133   3.573   4.294
16013SOL    HW249937   5.996   3.510   4.284
16014SOL     OW49938   4.046  11.488   9.586
16014SOL    HW149939   3.983  11.522   9.648
16014SOL    HW249940   4.021  11.397   9.573
16015SOL     OW49941   6.516   9.766   3.303
16015SOL    HW149942   6.475   9.847   3.333
16015SOL    HW249943   6.514   9.708   3.379
16016SOL     OW49944   2.931   0.537  11.786
16016SOL    HW149945   2.989   0.578  11.722
16016SOL    HW249946   2.853   0.515  11.737
16017SOL     OW49947   8.836   7.876   7.319
16017SOL    HW149948   8.863   7.786   7.307
16017SOL    HW249949   8.858   7.919   7.236
16018SOL     OW49950   5.986   8.074  13.864
16018SOL    HW149951   5.990   8.168  13.880
16018SOL    HW249952   5.989   8.066  13.769
16019SOL     OW49953   2.369   0.829   4.549
16019SOL    HW149954   2.275   0.840   4.567
16019SOL    HW249955   2.404   0.918   4.553
16020SOL     OW49956   1.370   6.670   2.300
16020SOL    HW149957   1.443   6.652   2.241
16020SOL    HW249958   1.411   6.711   2.377
16021SOL     OW49959  12.160   4.338   6.717
16021SOL    HW149960  12.237   4.384   6.751
16021SOL    HW249961  12.181   4.245   6.726
16022SOL     OW49962  14.874   7.156   3.142
16022SOL    HW149963   0.071   7.206   3.122
16022SOL    HW249964  14.842   7.126   3.057
16023SOL     OW49965   7.030   1.759  10.091
16023SOL    HW149966   7.119   1.749  10.126
16023SOL    HW249967   6.976   1.701  10.144
16024SOL     OW49968  13.363   2.984   9.566
16024SOL    HW149969  13.409   2.958   9.646
16024SOL    HW249970  13.302   3.053   9.595
16025SOL     OW49971  13.718   2.204   8.944
16025SOL    HW149972  13.626   2.179   8.947
16025SOL    HW249973  13.756   2.149   8.875
16026SOL     OW49974  12.290  14.389   2.120
16026SOL    HW149975  12.366  14.346   2.081
16026SOL    HW249976  12.237  14.317   2.155
16027SOL     OW49977  10.857   8.783   7.101
16027SOL    HW149978  10.906   8.847   7.153
16027SOL    HW249979  10.781   8.761   7.155
16028SOL     OW49980   5.109   6.266  12.307
16028SOL    HW149981   5.017   6.239  12.310
16028SOL    HW249982   5.158   6.185  12.324
16029SOL     OW49983   2.573   8.362   1.957
16029SOL    HW149984   2.608   8.440   2.000
16029SOL    HW249985   2.650   8.307   1.941
16030SOL     OW49986   3.073  12.150   7.699
16030SOL    HW149987   3.050  12.166   7.607
16030SOL    HW249988   3.130  12.074   7.697
16031SOL     OW49989   3.004  12.672  14.207
16031SOL    HW149990   2.953  12.592  14.218
16031SOL    HW249991   3.001  12.690  14.114
16032SOL     OW49992  10.605   4.278  10.225
16032SOL    HW149993  10.644   4.237  10.147
16032SOL    HW249994  10.651   4.240  10.299
16033SOL     OW49995  12.158   7.231   5.749
16033SOL    HW149996  12.108   7.312   5.739
16033SOL    HW249997  12.126   7.174   5.679
16034SOL     OW49998   6.018  12.275   2.023
16034SOL    HW149999   6.055  12.363   2.023
16034SOL    HW250000   6.075  12.225   2.082
16035SOL     OW50001   5.198  12.405  14.372
16035SOL    HW150002   5.153  12.483  14.341
16035SOL    HW250003   5.284  12.409  14.330
16036SOL     OW50004   9.657  10.277  14.461
16036SOL    HW150005   9.657  10.210  14.529
16036SOL    HW250006   9.681  10.357  14.507
16037SOL     OW50007   1.045   1.902   0.625
16037SOL    HW150008   1.087   1.828   0.670
16037SOL    HW250009   0.962   1.914   0.671
16038SOL     OW50010  13.175   2.804  12.928
16038SOL    HW150011  13.170   2.794  12.833
16038SOL    HW250012  13.217   2.889  12.941
16039SOL     OW50013  10.877   9.109   0.320
16039SOL    HW150014  10.824   9.089   0.243
16039SOL    HW250015  10.943   9.171   0.288
16040SOL     OW50016   2.707   0.324   5.394
16040SOL    HW150017   2.767   0.273   5.339
16040SOL    HW250018   2.634   0.346   5.336
16041SOL     OW50019   1.014   2.464   0.633
16041SOL    HW150020   0.989   2.387   0.684
16041SOL    HW250021   0.957   2.534   0.665
16042SOL     OW50022   4.622   8.256   1.991
16042SOL    HW150023   4.607   8.339   1.946
16042SOL    HW250024   4.580   8.266   2.076
16043SOL     OW50025   3.142  11.909   9.576
16043SOL    HW150026   3.096  11.952   9.504
16043SOL    HW250027   3.082  11.918   9.650
16044SOL     OW50028   0.348  12.591   7.396
16044SOL    HW150029   0.390  12.550   7.321
16044SOL    HW250030   0.421  12.625   7.449
16045SOL     OW50031   0.968  13.457   6.104
16045SOL    HW150032   1.008  13.519   6.166
16045SOL    HW250033   0.990  13.371   6.139
16046SOL     OW50034  10.669   1.848   0.937
16046SOL    HW150035  10.588   1.842   0.987
16046SOL    HW250036  10.640   1.849   0.845
16047SOL     OW50037   6.155   9.206  12.634
16047SOL    HW150038   6.110   9.290  12.622
16047SOL    HW250039   6.171   9.201  12.728
16048SOL     OW50040   8.302   1.105   4.197
16048SOL    HW150041   8.370   1.154   4.244
16048SOL    HW250042   8.330   1.108   4.106
16049SOL     OW50043   9.931   7.394   8.431
16049SOL    HW150044   9.997   7.431   8.490
16049SOL    HW250045   9.928   7.301   8.453
16050SOL     OW50046   6.345  13.453  10.455
16050SOL    HW150047   6.358  13.377  10.399
16050SOL    HW250048   6.287  13.422  10.525
16051SOL     OW50049   4.875   6.799   0.716
16051SOL    HW150050   4.885   6.704   0.722
16051SOL    HW250051   4.796   6.818   0.768
16052SOL     OW50052  11.759  10.511  11.726
16052SOL    HW150053  11.735  10.529  11.817
16052SOL    HW250054  11.848  10.474  11.731
16053SOL     OW50055   8.207   8.952  11.215
16053SOL    HW150056   8.263   8.875  11.216
16053SOL    HW250057   8.120   8.917  11.193
16054SOL     OW50058   6.734   2.220  11.621
16054SOL    HW150059   6.758   2.258  11.706
16054SOL    HW250060   6.738   2.293  11.560
16055SOL     OW50061  11.986  12.110  13.177
16055SOL    HW150062  11.923  12.039  13.170
16055SOL    HW250063  12.069  12.072  13.147
16056SOL     OW50064  14.496  13.227   4.839
16056SOL    HW150065  14.524  13.140   4.813
16056SOL    HW250066  14.474  13.271   4.757
16057SOL     OW50067  12.437  12.322   4.581
16057SOL    HW150068  12.362  12.349   4.528
16057SOL    HW250069  12.408  12.242   4.624
16058SOL     OW50070   0.240   0.875   8.590
16058SOL    HW150071   0.183   0.916   8.526
16058SOL    HW250072   0.297   0.946   8.621
16059SOL     OW50073   5.492  10.475   9.661
16059SOL    HW150074   5.490  10.555   9.608
16059SOL    HW250075   5.438  10.413   9.612
16060SOL     OW50076   3.388  12.662  13.138
16060SOL    HW150077   3.396  12.726  13.066
16060SOL    HW250078   3.319  12.603  13.110
16061SOL     OW50079  12.631   5.742   0.681
16061SOL    HW150080  12.626   5.834   0.657
16061SOL    HW250081  12.541   5.717   0.703
16062SOL     OW50082  12.392   6.966  13.647
16062SOL    HW150083  12.484   6.949  13.666
16062SOL    HW250084  12.394   7.036  13.581
16063SOL     OW50085   1.345   8.589   7.228
16063SOL    HW150086   1.261   8.550   7.253
16063SOL    HW250087   1.361   8.556   7.140
16064SOL     OW50088  11.743   0.192   3.289
16064SOL    HW150089  11.810   0.258   3.273
16064SOL    HW250090  11.792   0.112   3.307
16065SOL     OW50091   2.602   4.824  13.389
16065SOL    HW150092   2.507   4.824  13.399
16065SOL    HW250093   2.620   4.754  13.327
16066SOL     OW50094  11.203   5.145   3.593
16066SOL    HW150095  11.249   5.188   3.521
16066SOL    HW250096  11.132   5.205   3.615
16067SOL     OW50097   6.896   6.616  13.447
16067SOL    HW150098   6.960   6.575  13.504
16067SOL    HW250099   6.941   6.692  13.410
16068SOL     OW50100  14.134   5.749   0.043
16068SOL    HW150101  14.141   5.675  14.865
16068SOL    HW250102  14.069   5.721   0.108
16069SOL     OW50103   4.800   7.298  12.637
16069SOL    HW150104   4.861   7.349  12.691
16069SOL    HW250105   4.719   7.297  12.688
16070SOL     OW50106   8.036  12.038  10.705
16070SOL    HW150107   8.060  12.113  10.652
16070SOL    HW250108   8.081  12.052  10.789
16071SOL     OW50109   3.439  10.718   6.999
16071SOL    HW150110   3.381  10.786   7.034
16071SOL    HW250111   3.381  10.657   6.953
16072SOL     OW50112  12.509  10.294  11.601
16072SOL    HW150113  12.422  10.327  11.581
16072SOL    HW250114  12.511  10.290  11.697
16073SOL     OW50115  14.583   4.810  13.268
16073SOL    HW150116  14.604   4.737  13.209
16073SOL    HW250117  14.634   4.793  13.347
16074SOL     OW50118   4.958   6.076   6.165
16074SOL    HW150119   4.925   6.038   6.084
16074SOL    HW250120   4.969   6.169   6.145
16075SOL     OW50121  14.362  12.389   0.350
16075SOL    HW150122  14.440  12.336   0.334
16075SOL    HW250123  14.363  12.454   0.280
16076SOL     OW50124   2.442  12.233  13.876
16076SOL    HW150125   2.383  12.185  13.817
16076SOL    HW250126   2.522  12.181  13.878
16077SOL     OW50127   9.872  10.845  11.763
16077SOL    HW150128   9.967  10.843  11.747
16077SOL    HW250129   9.852  10.937  11.777
16078SOL     OW50130  11.136   8.214   0.877
16078SOL    HW150131  11.187   8.145   0.920
16078SOL    HW250132  11.200   8.258   0.821
16079SOL     OW50133   4.686   2.453   2.529
16079SOL    HW150134   4.712   2.361   2.522
16079SOL    HW250135   4.687   2.470   2.623
16080SOL     OW50136  12.968  14.848   0.327
16080SOL    HW150137  12.976  14.753   0.330
16080SOL    HW250138  12.964  14.868   0.233
16081SOL     OW50139   9.329   2.925   7.259
16081SOL    HW150140   9.408   2.969   7.226
16081SOL    HW250141   9.301   2.869   7.187
16082SOL     OW50142   0.630   3.900   1.065
16082SOL    HW150143   0.676   3.960   1.006
16082SOL    HW250144   0.626   3.948   1.148
16083SOL     OW50145   4.974   6.537  10.148
16083SOL    HW150146   4.930   6.622  10.152
16083SOL    HW250147   5.050   6.546  10.206
16084SOL     OW50148  12.743   9.495  10.941
16084SOL    HW150149  12.708   9.411  10.973
16084SOL    HW250150  12.750   9.483  10.846
16085SOL     OW50151   4.966   1.777   6.950
16085SOL    HW150152   4.946   1.696   6.903
16085SOL    HW250153   5.061   1.780   6.954
16086SOL     OW50154   2.893  13.431   8.625
16086SOL    HW150155   2.853  13.430   8.712
16086SOL    HW250156   2.837  13.372   8.573
16087SOL     OW50157  12.658   1.057  13.202
16087SOL    HW150158  12.644   1.131  13.144
16087SOL    HW250159  12.661   1.095  13.290
16088SOL     OW50160  11.751   8.151  10.469
16088SOL    HW150161  11.767   8.080  10.532
16088SOL    HW250162  11.676   8.198  10.505
16089SOL     OW50163   0.382  11.591  14.381
16089SOL    HW150164   0.341  11.675  14.359
16089SOL    HW250165   0.475  11.611  14.390
16090SOL     OW50166  13.717   9.932   0.190
16090SOL    HW150167  13.712  10.018   0.149
16090SOL    HW250168  13.626   9.910   0.209
16091SOL     OW50169   7.694  12.102   7.750
16091SOL    HW150170   7.732  12.149   7.676
16091SOL    HW250171   7.606  12.138   7.760
16092SOL     OW50172   8.179  11.374   8.511
16092SOL    HW150173   8.175  11.414   8.598
16092SOL    HW250174   8.224  11.439   8.457
16093SOL     OW50175  13.607  14.481   3.007
16093SOL    HW150176  13.672  14.416   2.980
16093SOL    HW250177  13.529  14.459   2.956
16094SOL     OW50178   2.455   2.688  12.984
16094SOL    HW150179   2.544   2.718  13.007
16094SOL    HW250180   2.441   2.612  13.040
16095SOL     OW50181   8.066  13.216  11.805
16095SOL    HW150182   8.090  13.282  11.870
16095SOL    HW250183   8.080  13.132  11.851
16096SOL     OW50184   9.190   4.613  14.074
16096SOL    HW150185   9.194   4.681  14.142
16096SOL    HW250186   9.202   4.531  14.122
16097SOL     OW50187   4.584   6.190   8.350
16097SOL    HW150188   4.557   6.264   8.406
16097SOL    HW250189   4.680   6.193   8.350
16098SOL     OW50190   2.936  11.848  13.496
16098SOL    HW150191   2.895  11.878  13.415
16098SOL    HW250192   2.971  11.927  13.536
16099SOL     OW50193   4.344  11.050   6.413
16099SOL    HW150194   4.436  11.078   6.409
16099SOL    HW250195   4.347  10.956   6.394
16100SOL     OW50196  12.934  11.769  12.396
16100SOL    HW150197  13.010  11.787  12.453
16100SOL    HW250198  12.971  11.764  12.308
16101SOL     OW50199  13.080   3.963   5.726
16101SOL    HW150200  13.071   3.871   5.699
16101SOL    HW250201  12.998   3.983   5.771
16102SOL     OW50202   4.440   2.884   4.764
16102SOL    HW150203   4.427   2.824   4.691
16102SOL    HW250204   4.372   2.860   4.827
16103SOL     OW50205  11.405   7.147  14.706
16103SOL    HW150206  11.462   7.224  14.712
16103SOL    HW250207  11.325   7.173  14.752
16104SOL     OW50208   1.918   8.825   2.464
16104SOL    HW150209   2.001   8.836   2.512
16104SOL    HW250210   1.888   8.914   2.448
16105SOL     OW50211   4.856   2.754   5.963
16105SOL    HW150212   4.810   2.791   5.887
16105SOL    HW250213   4.813   2.669   5.977
16106SOL     OW50214  12.308   2.270   2.540
16106SOL    HW150215  12.223   2.263   2.497
16106SOL    HW250216  12.364   2.207   2.494
16107SOL     OW50217  12.095   7.872   6.999
16107SOL    HW150218  12.117   7.793   7.049
16107SOL    HW250219  12.019   7.909   7.045
16108SOL     OW50220   7.381   3.051   7.973
16108SOL    HW150221   7.299   3.069   7.928
16108SOL    HW250222   7.434   3.130   7.960
16109SOL     OW50223   0.266  10.108   1.733
16109SOL    HW150224   0.307  10.036   1.781
16109SOL    HW250225   0.263  10.180   1.796
16110SOL     OW50226  11.786   0.220   0.407
16110SOL    HW150227  11.872   0.210   0.367
16110SOL    HW250228  11.740   0.283   0.351
16111SOL     OW50229   5.290  11.624  10.525
16111SOL    HW150230   5.253  11.705  10.560
16111SOL    HW250231   5.246  11.611  10.441
16112SOL     OW50232  14.634  10.585   5.993
16112SOL    HW150233  14.565  10.550   5.937
16112SOL    HW250234  14.707  10.603   5.934
16113SOL     OW50235   3.164  13.154   5.637
16113SOL    HW150236   3.247  13.181   5.598
16113SOL    HW250237   3.102  13.222   5.614
16114SOL     OW50238  13.013  10.619   8.164
16114SOL    HW150239  12.925  10.642   8.132
16114SOL    HW250240  13.065  10.697   8.145
16115SOL     OW50241  12.915   7.678  11.169
16115SOL    HW150242  12.991   7.720  11.128
16115SOL    HW250243  12.953   7.628  11.242
16116SOL     OW50244   9.074   9.398  13.608
16116SOL    HW150245   8.988   9.426  13.577
16116SOL    HW250246   9.125   9.479  13.613
16117SOL     OW50247  10.745   9.743   0.413
16117SOL    HW150248  10.802   9.811   0.377
16117SOL    HW250249  10.793   9.662   0.400
16118SOL     OW50250  10.158   0.810  11.356
16118SOL    HW150251  10.137   0.849  11.441
16118SOL    HW250252  10.207   0.878  11.310
16119SOL     OW50253   5.823   5.677   2.691
16119SOL    HW150254   5.766   5.601   2.701
16119SOL    HW250255   5.911   5.641   2.693
16120SOL     OW50256  12.421  13.241   8.935
16120SOL    HW150257  12.379  13.176   8.991
16120SOL    HW250258  12.514  13.218   8.938
16121SOL     OW50259   3.798   1.180  11.533
16121SOL    HW150260   3.891   1.182  11.557
16121SOL    HW250261   3.788   1.102  11.479
16122SOL     OW50262  14.874   3.775   9.138
16122SOL    HW150263  14.854   3.721   9.214
16122SOL    HW250264   0.087   3.768   9.127
16123SOL     OW50265   7.791   6.424   3.566
16123SOL    HW150266   7.784   6.472   3.649
16123SOL    HW250267   7.874   6.454   3.528
16124SOL     OW50268   7.546   8.838   4.296
16124SOL    HW150269   7.469   8.850   4.240
16124SOL    HW250270   7.525   8.886   4.376
16125SOL     OW50271   3.397   8.302   9.922
16125SOL    HW150272   3.456   8.344   9.859
16125SOL    HW250273   3.453   8.283   9.998
16126SOL     OW50274  13.570   4.674  13.995
16126SOL    HW150275  13.625   4.690  13.918
16126SOL    HW250276  13.624   4.702  14.069
16127SOL     OW50277  12.649   1.558   9.905
16127SOL    HW150278  12.651   1.648   9.875
16127SOL    HW250279  12.599   1.561   9.987
16128SOL     OW50280   7.969  14.686   4.109
16128SOL    HW150281   8.054  14.698   4.152
16128SOL    HW250282   7.989  14.634   4.031
16129SOL     OW50283   3.108   7.703  12.013
16129SOL    HW150284   3.044   7.662  12.071
16129SOL    HW250285   3.153   7.630  11.971
16130SOL     OW50286   8.546  11.607  13.554
16130SOL    HW150287   8.602  11.681  13.579
16130SOL    HW250288   8.461  11.647  13.534
16131SOL     OW50289   2.328   6.632   4.025
16131SOL    HW150290   2.284   6.716   4.038
16131SOL    HW250291   2.349   6.630   3.932
16132SOL     OW50292   7.767   5.353   3.839
16132SOL    HW150293   7.732   5.268   3.863
16132SOL    HW250294   7.701   5.392   3.782
16133SOL     OW50295  11.886   9.178   3.304
16133SOL    HW150296  11.898   9.269   3.333
16133SOL    HW250297  11.812   9.182   3.244
16134SOL     OW50298   1.005  14.060   4.244
16134SOL    HW150299   1.098  14.074   4.226
16134SOL    HW250300   0.989  14.107   4.327
16135SOL     OW50301   9.751  13.758   0.962
16135SOL    HW150302   9.697  13.720   1.031
16135SOL    HW250303   9.828  13.792   1.008
16136SOL     OW50304  10.726  10.138  12.139
16136SOL    HW150305  10.677  10.058  12.126
16136SOL    HW250306  10.782  10.146  12.061
16137SOL     OW50307  11.713   8.153   1.840
16137SOL    HW150308  11.761   8.087   1.890
16137SOL    HW250309  11.625   8.118   1.832
16138SOL     OW50310  10.120  12.825  14.559
16138SOL    HW150311  10.186  12.858  14.619
16138SOL    HW250312  10.112  12.892  14.492
16139SOL     OW50313   4.363  13.342   0.103
16139SOL    HW150314   4.432  13.406   0.124
16139SOL    HW250315   4.404  13.257   0.116
16140SOL     OW50316  14.244   3.479   3.147
16140SOL    HW150317  14.220   3.386   3.144
16140SOL    HW250318  14.160   3.525   3.147
16141SOL     OW50319  12.515  11.654   8.909
16141SOL    HW150320  12.488  11.746   8.915
16141SOL    HW250321  12.509  11.622   8.999
16142SOL     OW50322   4.473   4.404  11.096
16142SOL    HW150323   4.405   4.339  11.113
16142SOL    HW250324   4.522   4.409  11.178
16143SOL     OW50325  12.500   5.879   1.605
16143SOL    HW150326  12.587   5.904   1.575
16143SOL    HW250327  12.442   5.949   1.576
16144SOL     OW50328   4.631  12.518   4.242
16144SOL    HW150329   4.724  12.498   4.251
16144SOL    HW250330   4.622  12.547   4.151
16145SOL     OW50331   8.519   1.472   2.308
16145SOL    HW150332   8.564   1.550   2.340
16145SOL    HW250333   8.479   1.433   2.386
16146SOL     OW50334   9.972   1.768   4.569
16146SOL    HW150335   9.930   1.800   4.490
16146SOL    HW250336   9.906   1.711   4.610
16147SOL     OW50337  12.439  13.571   9.801
16147SOL    HW150338  12.529  13.539   9.802
16147SOL    HW250339  12.387  13.497   9.771
16148SOL     OW50340   1.167  13.332  14.607
16148SOL    HW150341   1.255  13.310  14.638
16148SOL    HW250342   1.175  13.421  14.573
16149SOL     OW50343  12.399   0.832   1.026
16149SOL    HW150344  12.481   0.814   1.071
16149SOL    HW250345  12.354   0.748   1.024
16150SOL     OW50346  14.015  12.135  10.589
16150SOL    HW150347  14.107  12.112  10.594
16150SOL    HW250348  13.985  12.094  10.507
16151SOL     OW50349   3.592   1.484  13.500
16151SOL    HW150350   3.580   1.569  13.543
16151SOL    HW250351   3.655   1.438  13.555
16152SOL     OW50352   2.220  14.765   0.215
16152SOL    HW150353   2.186  14.685   0.174
16152SOL    HW250354   2.147  14.826   0.214
16153SOL     OW50355  13.122   0.887  14.705
16153SOL    HW150356  13.167   0.969  14.722
16153SOL    HW250357  13.120   0.843  14.790
16154SOL     OW50358   2.328   8.619  13.587
16154SOL    HW150359   2.386   8.546  13.611
16154SOL    HW250360   2.365   8.694  13.633
16155SOL     OW50361   0.203  12.714  13.781
16155SOL    HW150362   0.208  12.792  13.835
16155SOL    HW250363   0.274  12.657  13.812
16156SOL     OW50364  11.644   4.825   9.891
16156SOL    HW150365  11.665   4.733   9.907
16156SOL    HW250366  11.660   4.837   9.797
16157SOL     OW50367  10.578   7.096  11.272
16157SOL    HW150368  10.563   7.040  11.196
16157SOL    HW250369  10.630   7.042  11.332
16158SOL     OW50370   9.158  12.088  14.369
16158SOL    HW150371   9.083  12.147  14.365
16158SOL    HW250372   9.221  12.124  14.307
16159SOL     OW50373  14.834   5.038   8.000
16159SOL    HW150374  14.748   4.995   8.004
16159SOL    HW250375   0.007   4.977   7.952
16160SOL     OW50376   3.796   8.730  12.435
16160SOL    HW150377   3.758   8.728  12.348
16160SOL    HW250378   3.794   8.639  12.465
16161SOL     OW50379   7.441   6.113  14.075
16161SOL    HW150380   7.490   6.090  13.996
16161SOL    HW250381   7.506   6.156  14.131
16162SOL     OW50382  14.404  10.580  11.841
16162SOL    HW150383  14.449  10.614  11.918
16162SOL    HW250384  14.401  10.486  11.854
16163SOL     OW50385  11.306   8.155   3.114
16163SOL    HW150386  11.351   8.121   3.036
16163SOL    HW250387  11.220   8.114   3.112
16164SOL     OW50388   5.135   3.683  11.544
16164SOL    HW150389   5.213   3.677  11.488
16164SOL    HW250390   5.061   3.671  11.485
16165SOL     OW50391  10.871   2.598   1.840
16165SOL    HW150392  10.908   2.608   1.752
16165SOL    HW250393  10.910   2.669   1.890
16166SOL     OW50394  12.354  10.677   9.569
16166SOL    HW150395  12.349  10.731   9.648
16166SOL    HW250396  12.280  10.617   9.577
16167SOL     OW50397  14.231   8.464   6.196
16167SOL    HW150398  14.173   8.502   6.130
16167SOL    HW250399  14.243   8.533   6.261
16168SOL     OW50400   4.223   3.777  10.268
16168SOL    HW150401   4.135   3.765  10.232
16168SOL    HW250402   4.241   3.696  10.315
16169SOL     OW50403  11.774   4.677  14.224
16169SOL    HW150404  11.715   4.604  14.206
16169SOL    HW250405  11.837   4.641  14.287
16170SOL     OW50406  11.408   3.747  11.881
16170SOL    HW150407  11.359   3.708  11.954
16170SOL    HW250408  11.479   3.684  11.864
16171SOL     OW50409   7.390   7.267   5.357
16171SOL    HW150410   7.447   7.344   5.352
16171SOL    HW250411   7.358   7.256   5.267
16172SOL     OW50412   4.285  14.276   7.071
16172SOL    HW150413   4.323  14.358   7.038
16172SOL    HW250414   4.193  14.298   7.088
16173SOL     OW50415  11.989   6.067  10.367
16173SOL    HW150416  12.007   6.025  10.451
16173SOL    HW250417  12.062   6.128  10.354
16174SOL     OW50418  11.294   8.082  14.761
16174SOL    HW150419  11.372   8.041  14.726
16174SOL    HW250420  11.269   8.148  14.696
16175SOL     OW50421   2.698   9.034  11.890
16175SOL    HW150422   2.768   9.056  11.951
16175SOL    HW250423   2.742   8.992  11.816
16176SOL     OW50424   5.427   6.579  14.853
16176SOL    HW150425   5.441   6.639   0.044
16176SOL    HW250426   5.506   6.585  14.800
16177SOL     OW50427  10.078   1.737   2.475
16177SOL    HW150428  10.150   1.758   2.415
16177SOL    HW250429  10.067   1.817   2.527
16178SOL     OW50430   0.048  11.463  10.101
16178SOL    HW150431   0.083  11.546  10.130
16178SOL    HW250432   0.106  11.397  10.139
16179SOL     OW50433   0.831   8.060   9.250
16179SOL    HW150434   0.805   8.066   9.158
16179SOL    HW250435   0.875   8.143   9.268
16180SOL     OW50436  10.411  14.523   2.962
16180SOL    HW150437  10.445  14.585   2.897
16180SOL    HW250438  10.431  14.437   2.925
16181SOL     OW50439   1.872   9.969  14.541
16181SOL    HW150440   1.785  10.009  14.538
16181SOL    HW250441   1.854   9.876  14.556
16182SOL     OW50442   1.977   9.783   3.351
16182SOL    HW150443   1.902   9.788   3.291
16182SOL    HW250444   2.018   9.869   3.344
16183SOL     OW50445  10.365  13.804   2.552
16183SOL    HW150446  10.446  13.770   2.513
16183SOL    HW250447  10.375  13.899   2.550
16184SOL     OW50448   3.038   4.343   0.030
16184SOL    HW150449   3.054   4.319   0.121
16184SOL    HW250450   2.945   4.366   0.027
16185SOL     OW50451   8.882  14.526  12.137
16185SOL    HW150452   8.896  14.485  12.223
16185SOL    HW250453   8.971  14.545  12.105
16186SOL     OW50454   6.768   9.638  14.649
16186SOL    HW150455   6.734   9.585  14.721
16186SOL    HW250456   6.863   9.638  14.662
16187SOL     OW50457  11.161  11.062   3.167
16187SOL    HW150458  11.247  11.051   3.128
16187SOL    HW250459  11.109  11.104   3.099
16188SOL     OW50460   5.687  13.207   5.801
16188SOL    HW150461   5.695  13.215   5.707
16188SOL    HW250462   5.669  13.296   5.832
16189SOL     OW50463   0.021   4.538  12.280
16189SOL    HW150464   0.081   4.579  12.217
16189SOL    HW250465   0.019   4.599  12.354
16190SOL     OW50466  12.407  10.812   1.820
16190SOL    HW150467  12.353  10.748   1.773
16190SOL    HW250468  12.414  10.886   1.758
16191SOL     OW50469   8.980  11.521  10.253
16191SOL    HW150470   8.887  11.504  10.241
16191SOL    HW250471   9.022  11.477  10.179
16192SOL     OW50472   0.495  11.090  13.093
16192SOL    HW150473   0.583  11.055  13.106
16192SOL    HW250474   0.509  11.173  13.047
16193SOL     OW50475   2.451   6.059   1.771
16193SOL    HW150476   2.462   5.982   1.827
16193SOL    HW250477   2.356   6.065   1.757
16194SOL     OW50478  13.047   7.988   2.929
16194SOL    HW150479  13.008   7.922   2.987
16194SOL    HW250480  13.141   7.977   2.942
16195SOL     OW50481   1.829   3.098  10.528
16195SOL    HW150482   1.920   3.074  10.544
16195SOL    HW250483   1.780   3.054  10.598
16196SOL     OW50484   1.242   3.838   7.190
16196SOL    HW150485   1.320   3.827   7.135
16196SOL    HW250486   1.260   3.918   7.240
16197SOL     OW50487   4.588  12.267   9.223
16197SOL    HW150488   4.528  12.247   9.151
16197SOL    HW250489   4.675  12.264   9.182
16198SOL     OW50490   8.686  11.717   7.226
16198SOL    HW150491   8.615  11.769   7.189
16198SOL    HW250492   8.652  11.628   7.228
16199SOL     OW50493   8.197   5.572  10.234
16199SOL    HW150494   8.188   5.485  10.271
16199SOL    HW250495   8.168   5.631  10.304
16200SOL     OW50496   4.651   5.415   7.025
16200SOL    HW150497   4.719   5.483   7.031
16200SOL    HW250498   4.619   5.421   6.935
16201SOL     OW50499   6.305   7.443   4.392
16201SOL    HW150500   6.386   7.406   4.358
16201SOL    HW250501   6.272   7.375   4.452
16202SOL     OW50502   6.092   1.957   7.713
16202SOL    HW150503   6.144   2.014   7.656
16202SOL    HW250504   6.134   1.966   7.799
16203SOL     OW50505   2.578   6.097   5.751
16203SOL    HW150506   2.618   6.052   5.677
16203SOL    HW250507   2.497   6.049   5.768
16204SOL     OW50508  11.088   8.511  11.972
16204SOL    HW150509  11.062   8.597  11.940
16204SOL    HW250510  11.091   8.457  11.893
16205SOL     OW50511   3.566  11.075  11.770
16205SOL    HW150512   3.503  11.085  11.698
16205SOL    HW250513   3.616  11.157  11.769
16206SOL     OW50514   7.770   1.825   9.473
16206SOL    HW150515   7.841   1.806   9.411
16206SOL    HW250516   7.690   1.798   9.427
16207SOL     OW50517   1.502   6.266   6.237
16207SOL    HW150518   1.422   6.262   6.290
16207SOL    HW250519   1.513   6.359   6.217
16208SOL     OW50520   9.811  13.493  11.969
16208SOL    HW150521   9.833  13.440  11.892
16208SOL    HW250522   9.895  13.509  12.012
16209SOL     OW50523   6.000   9.820  12.884
16209SOL    HW150524   5.933   9.877  12.923
16209SOL    HW250525   5.951   9.745  12.850
16210SOL     OW50526   5.546  14.163   1.491
16210SOL    HW150527   5.526  14.155   1.584
16210SOL    HW250528   5.587  14.249   1.483
16211SOL     OW50529  11.524   6.364  12.243
16211SOL    HW150530  11.535   6.332  12.153
16211SOL    HW250531  11.438   6.406  12.243
16212SOL     OW50532   9.788   9.313   7.317
16212SOL    HW150533   9.846   9.379   7.353
16212SOL    HW250534   9.787   9.243   7.382
16213SOL     OW50535   3.637  11.013   4.748
16213SOL    HW150536   3.611  10.982   4.661
16213SOL    HW250537   3.555  11.016   4.797
16214SOL     OW50538  13.221   4.517  12.343
16214SOL    HW150539  13.191   4.606  12.362
16214SOL    HW250540  13.141   4.463  12.351
16215SOL     OW50541   0.350  11.753   4.813
16215SOL    HW150542   0.362  11.848   4.803
16215SOL    HW250543   0.266  11.745   4.859
16216SOL     OW50544  12.183  12.078  12.646
16216SOL    HW150545  12.132  12.079  12.727
16216SOL    HW250546  12.273  12.087  12.675
16217SOL     OW50547   4.864  11.028   8.345
16217SOL    HW150548   4.826  10.940   8.333
16217SOL    HW250549   4.958  11.012   8.354
16218SOL     OW50550   0.997   9.560   8.361
16218SOL    HW150551   1.038   9.638   8.323
16218SOL    HW250552   1.053   9.488   8.332
16219SOL     OW50553  13.058   0.417   8.261
16219SOL    HW150554  12.996   0.489   8.248
16219SOL    HW250555  13.144   0.455   8.244
16220SOL     OW50556   8.478  12.778   3.575
16220SOL    HW150557   8.499  12.746   3.487
16220SOL    HW250558   8.384  12.764   3.583
16221SOL     OW50559   0.187  14.732  10.137
16221SOL    HW150560   0.117  14.752  10.074
16221SOL    HW250561   0.205  14.639  10.124
16222SOL     OW50562  12.515   5.464   1.326
16222SOL    HW150563  12.579   5.392   1.317
16222SOL    HW250564  12.431   5.424   1.304
16223SOL     OW50565   2.995   6.725  13.166
16223SOL    HW150566   3.020   6.814  13.192
16223SOL    HW250567   3.068   6.671  13.196
16224SOL     OW50568   5.442   6.277  11.860
16224SOL    HW150569   5.535   6.297  11.867
16224SOL    HW250570   5.434   6.230  11.776
16225SOL     OW50571   9.118  13.245   8.006
16225SOL    HW150572   9.043  13.284   8.050
16225SOL    HW250573   9.184  13.315   8.005
16226SOL     OW50574   8.936   7.917   9.837
16226SOL    HW150575   9.001   7.985   9.820
16226SOL    HW250576   8.858   7.965   9.864
16227SOL     OW50577  13.416   7.333   6.615
16227SOL    HW150578  13.357   7.264   6.584
16227SOL    HW250579  13.358   7.405   6.640
16228SOL     OW50580   2.522   2.912   0.071
16228SOL    HW150581   2.606   2.935   0.109
16228SOL    HW250582   2.523   2.816   0.065
16229SOL     OW50583   3.493   6.420  14.089
16229SOL    HW150584   3.523   6.426  13.998
16229SOL    HW250585   3.496   6.327  14.109
16230SOL     OW50586   8.547   1.293   6.050
16230SOL    HW150587   8.547   1.203   6.081
16230SOL    HW250588   8.638   1.311   6.027
16231SOL     OW50589   3.528   2.646   3.917
16231SOL    HW150590   3.555   2.615   4.003
16231SOL    HW250591   3.528   2.741   3.925
16232SOL     OW50592  14.344  11.650   8.658
16232SOL    HW150593  14.439  11.639   8.666
16232SOL    HW250594  14.317  11.581   8.598
16233SOL     OW50595   2.585  13.445   7.868
16233SOL    HW150596   2.655  13.401   7.917
16233SOL    HW250597   2.600  13.538   7.884
16234SOL     OW50598  10.766  13.365   7.943
16234SOL    HW150599  10.688  13.321   7.909
16234SOL    HW250600  10.838  13.307   7.920
16235SOL     OW50601   0.487   3.087   3.145
16235SOL    HW150602   0.483   3.050   3.233
16235SOL    HW250603   0.485   3.182   3.158
16236SOL     OW50604   7.084   2.709   7.814
16236SOL    HW150605   7.100   2.619   7.841
16236SOL    HW250606   7.047   2.751   7.891
16237SOL     OW50607   6.482   2.599  12.665
16237SOL    HW150608   6.505   2.670  12.725
16237SOL    HW250609   6.479   2.521  12.720
16238SOL     OW50610   4.974   9.755  10.976
16238SOL    HW150611   4.898   9.703  11.003
16238SOL    HW250612   4.961   9.840  11.018
16239SOL     OW50613  13.163  10.831   6.764
16239SOL    HW150614  13.232  10.780   6.722
16239SOL    HW250615  13.139  10.897   6.698
16240SOL     OW50616  10.380  12.695  10.912
16240SOL    HW150617  10.331  12.619  10.879
16240SOL    HW250618  10.379  12.685  11.007
16241SOL     OW50619   9.264   9.831   0.806
16241SOL    HW150620   9.257   9.839   0.901
16241SOL    HW250621   9.329   9.762   0.793
16242SOL     OW50622   1.449   4.816  10.547
16242SOL    HW150623   1.416   4.906  10.543
16242SOL    HW250624   1.533   4.818  10.501
16243SOL     OW50625   5.085   8.270   0.265
16243SOL    HW150626   5.140   8.348   0.269
16243SOL    HW250627   5.126   8.214   0.199
16244SOL     OW50628  10.500  14.339   9.297
16244SOL    HW150629  10.437  14.268   9.283
16244SOL    HW250630  10.584  14.294   9.310
16245SOL     OW50631   4.483  11.945  12.516
16245SOL    HW150632   4.435  11.928  12.435
16245SOL    HW250633   4.482  12.041  12.525
16246SOL     OW50634  10.107   9.588  12.493
16246SOL    HW150635  10.173   9.654  12.473
16246SOL    HW250636  10.093   9.541  12.411
16247SOL     OW50637   0.339   4.931   0.796
16247SOL    HW150638   0.320   4.872   0.723
16247SOL    HW250639   0.312   5.018   0.764
16248SOL     OW50640   3.175   6.500   4.030
16248SOL    HW150641   3.106   6.566   4.036
16248SOL    HW250642   3.256   6.551   4.027
16249SOL     OW50643  11.567  11.133   3.725
16249SOL    HW150644  11.659  11.133   3.752
16249SOL    HW250645  11.560  11.061   3.663
16250SOL     OW50646   2.925   1.371   0.573
16250SOL    HW150647   2.872   1.430   0.627
16250SOL    HW250648   2.862   1.307   0.539
16251SOL     OW50649  10.661   2.874   4.277
16251SOL    HW150650  10.633   2.833   4.358
16251SOL    HW250651  10.636   2.812   4.208
16252SOL     OW50652  11.625  13.978  13.627
16252SOL    HW150653  11.628  13.989  13.532
16252SOL    HW250654  11.535  13.951  13.645
16253SOL     OW50655   0.138   4.910   7.833
16253SOL    HW150656   0.206   4.976   7.822
16253SOL    HW250657   0.180   4.828   7.806
16254SOL     OW50658  13.652  12.312   1.002
16254SOL    HW150659  13.741  12.286   0.979
16254SOL    HW250660  13.618  12.240   1.054
16255SOL     OW50661  10.660   7.894   1.848
16255SOL    HW150662  10.680   7.952   1.774
16255SOL    HW250663  10.714   7.927   1.920
16256SOL     OW50664  10.420   6.958   7.445
16256SOL    HW150665  10.410   7.002   7.360
16256SOL    HW250666  10.444   7.028   7.505
16257SOL     OW50667  13.126   4.497   2.583
16257SOL    HW150668  13.096   4.495   2.493
16257SOL    HW250669  13.222   4.494   2.576
16258SOL     OW50670  11.870   4.006   0.852
16258SOL    HW150671  11.905   3.918   0.866
16258SOL    HW250672  11.846   4.008   0.760
16259SOL     OW50673   6.714   1.463  13.444
16259SOL    HW150674   6.781   1.530  13.430
16259SOL    HW250675   6.720   1.406  13.368
16260SOL     OW50676  14.670  11.859   9.967
16260SOL    HW150677  14.713  11.907  10.038
16260SOL    HW250678  14.729  11.787   9.947
16261SOL     OW50679  12.307  12.209  12.034
16261SOL    HW150680  12.239  12.142  12.028
16261SOL    HW250681  12.283  12.274  11.968
16262SOL     OW50682   5.129   5.039   9.467
16262SOL    HW150683   5.081   5.051   9.385
16262SOL    HW250684   5.090   5.103   9.527
16263SOL     OW50685  11.528   7.136   1.376
16263SOL    HW150686  11.589   7.138   1.450
16263SOL    HW250687  11.520   7.043   1.355
16264SOL     OW50688  11.230  14.330   2.355
16264SOL    HW150689  11.253  14.316   2.263
16264SOL    HW250690  11.146  14.376   2.353
16265SOL     OW50691   3.727   2.724   7.574
16265SOL    HW150692   3.640   2.762   7.560
16265SOL    HW250693   3.788   2.792   7.548
16266SOL     OW50694   9.957   5.679   1.986
16266SOL    HW150695  10.036   5.669   1.933
16266SOL    HW250696   9.900   5.734   1.933
16267SOL     OW50697   0.132  11.368   1.667
16267SOL    HW150698   0.159  11.321   1.746
16267SOL    HW250699   0.137  11.302   1.598
16268SOL     OW50700   4.733   9.200   6.034
16268SOL    HW150701   4.805   9.263   6.026
16268SOL    HW250702   4.776   9.115   6.044
16269SOL     OW50703   3.947   2.555   7.075
16269SOL    HW150704   3.950   2.483   7.137
16269SOL    HW250705   3.895   2.622   7.118
16270SOL     OW50706   2.008   7.029   5.374
16270SOL    HW150707   2.051   6.966   5.316
16270SOL    HW250708   2.005   7.110   5.323
16271SOL     OW50709   9.918   2.370   9.529
16271SOL    HW150710   9.947   2.363   9.620
16271SOL    HW250711   9.895   2.281   9.504
16272SOL     OW50712   9.545   6.063   6.650
16272SOL    HW150713   9.551   6.089   6.558
16272SOL    HW250714   9.593   5.981   6.655
16273SOL     OW50715   5.185   0.322  10.224
16273SOL    HW150716   5.184   0.383  10.151
16273SOL    HW250717   5.100   0.335  10.267
16274SOL     OW50718   6.127   3.230  10.091
16274SOL    HW150719   6.067   3.303  10.081
16274SOL    HW250720   6.103   3.190  10.175
16275SOL     OW50721   9.704   9.418   7.083
16275SOL    HW150722   9.748   9.382   7.160
16275SOL    HW250723   9.776   9.451   7.028
16276SOL     OW50724   4.931   8.379  14.863
16276SOL    HW150725   4.916   8.296   0.027
16276SOL    HW250726   4.936   8.354  14.771
16277SOL     OW50727   6.477   7.163  10.298
16277SOL    HW150728   6.446   7.107  10.226
16277SOL    HW250729   6.572   7.170  10.283
16278SOL     OW50730   9.306   7.673   2.859
16278SOL    HW150731   9.386   7.624   2.875
16278SOL    HW250732   9.314   7.702   2.768
16279SOL     OW50733   0.891  11.520   6.860
16279SOL    HW150734   0.950  11.506   6.934
16279SOL    HW250735   0.803  11.509   6.897
16280SOL     OW50736   9.433   2.641   9.529
16280SOL    HW150737   9.368   2.623   9.596
16280SOL    HW250738   9.470   2.556   9.507
16281SOL     OW50739   6.028   7.610   5.449
16281SOL    HW150740   6.041   7.670   5.375
16281SOL    HW250741   6.073   7.530   5.422
16282SOL     OW50742   2.701  12.419  11.879
16282SOL    HW150743   2.610  12.420  11.851
16282SOL    HW250744   2.739  12.498  11.841
16283SOL     OW50745   1.092  12.740   3.938
16283SOL    HW150746   1.170  12.699   3.899
16283SOL    HW250747   1.054  12.791   3.867
16284SOL     OW50748  14.281  14.723  14.424
16284SOL    HW150749  14.315  14.673  14.498
16284SOL    HW250750  14.338  14.699  14.351
16285SOL     OW50751   6.595   5.500   9.172
16285SOL    HW150752   6.537   5.425   9.185
16285SOL    HW250753   6.541   5.565   9.127
16286SOL     OW50754   7.469   6.966  11.612
16286SOL    HW150755   7.517   6.894  11.654
16286SOL    HW250756   7.462   6.939  11.520
16287SOL     OW50757  10.164   0.003  12.998
16287SOL    HW150758  10.165  14.793  13.026
16287SOL    HW250759  10.084   0.011  12.946
16288SOL     OW50760   7.993  12.073   2.315
16288SOL    HW150761   7.989  12.142   2.382
16288SOL    HW250762   7.966  11.994   2.361
16289SOL     OW50763  13.043   3.393   9.495
16289SOL    HW150764  13.018   3.485   9.500
16289SOL    HW250765  13.032   3.370   9.403
16290SOL     OW50766   4.362   6.206  14.373
16290SOL    HW150767   4.434   6.173  14.427
16290SOL    HW250768   4.401   6.279  14.324
16291SOL     OW50769   2.010   1.236   0.557
16291SOL    HW150770   1.977   1.182   0.485
16291SOL    HW250771   2.073   1.295   0.516
16292SOL     OW50772   8.794   8.687  13.254
16292SOL    HW150773   8.822   8.721  13.339
16292SOL    HW250774   8.723   8.745  13.226
16293SOL     OW50775   8.250   8.954  11.751
16293SOL    HW150776   8.187   8.904  11.700
16293SOL    HW250777   8.313   8.888  11.782
16294SOL     OW50778   7.281  12.324  13.625
16294SOL    HW150779   7.222  12.392  13.593
16294SOL    HW250780   7.224  12.263  13.674
16295SOL     OW50781   0.632  14.132   4.757
16295SOL    HW150782   0.634  14.045   4.797
16295SOL    HW250783   0.639  14.116   4.663
16296SOL     OW50784   8.148  13.375   7.585
16296SOL    HW150785   8.121  13.350   7.674
16296SOL    HW250786   8.088  13.446   7.561
16297SOL     OW50787  13.554  10.511   7.789
16297SOL    HW150788  13.565  10.605   7.796
16297SOL    HW250789  13.488  10.499   7.721
16298SOL     OW50790   9.725   3.376   4.783
16298SOL    HW150791   9.637   3.338   4.796
16298SOL    HW250792   9.782   3.322   4.839
16299SOL     OW50793  12.330   9.283  12.516
16299SOL    HW150794  12.342   9.207  12.460
16299SOL    HW250795  12.265   9.336  12.471
16300SOL     OW50796  12.030  11.407   2.250
16300SOL    HW150797  12.115  11.384   2.214
16300SOL    HW250798  12.038  11.390   2.344
16301SOL     OW50799  13.884   9.472  12.038
16301SOL    HW150800  13.895   9.378  12.023
16301SOL    HW250801  13.792   9.483  12.063
16302SOL     OW50802  14.264  10.752   0.705
16302SOL    HW150803  14.178  10.789   0.683
16302SOL    HW250804  14.245  10.667   0.744
16303SOL     OW50805   6.063  13.631   0.478
16303SOL    HW150806   5.977  13.658   0.448
16303SOL    HW250807   6.060  13.641   0.574
16304SOL     OW50808   7.949   2.941   9.570
16304SOL    HW150809   7.901   2.861   9.551
16304SOL    HW250810   7.996   2.922   9.651
16305SOL     OW50811   5.741  10.466  11.224
16305SOL    HW150812   5.733  10.493  11.315
16305SOL    HW250813   5.652  10.470  11.189
16306SOL     OW50814  11.315   9.188  10.136
16306SOL    HW150815  11.291   9.096  10.134
16306SOL    HW250816  11.410   9.189  10.132
16307SOL     OW50817  12.603   2.532   7.990
16307SOL    HW150818  12.666   2.537   7.919
16307SOL    HW250819  12.604   2.620   8.029
16308SOL     OW50820  13.891   8.541   5.826
16308SOL    HW150821  13.957   8.481   5.790
16308SOL    HW250822  13.820   8.483   5.855
16309SOL     OW50823   6.944  13.344   2.328
16309SOL    HW150824   6.956  13.300   2.412
16309SOL    HW250825   7.031  13.341   2.287
16310SOL     OW50826  10.576   0.457   2.191
16310SOL    HW150827  10.505   0.396   2.172
16310SOL    HW250828  10.653   0.401   2.204
16311SOL     OW50829   4.285   3.407   9.684
16311SOL    HW150830   4.238   3.328   9.712
16311SOL    HW250831   4.370   3.374   9.654
16312SOL     OW50832   8.073   3.747   0.695
16312SOL    HW150833   8.120   3.688   0.636
16312SOL    HW250834   8.016   3.688   0.745
16313SOL     OW50835   9.568   5.584   8.024
16313SOL    HW150836   9.566   5.537   7.940
16313SOL    HW250837   9.658   5.613   8.033
16314SOL     OW50838   9.350   2.714   8.887
16314SOL    HW150839   9.419   2.772   8.919
16314SOL    HW250840   9.280   2.722   8.952
16315SOL     OW50841  11.604   1.404   7.502
16315SOL    HW150842  11.581   1.399   7.595
16315SOL    HW250843  11.549   1.474   7.467
16316SOL     OW50844   2.300   2.943   4.136
16316SOL    HW150845   2.354   2.983   4.204
16316SOL    HW250846   2.320   2.993   4.056
16317SOL     OW50847   1.958  12.650  12.059
16317SOL    HW150848   2.021  12.663  12.130
16317SOL    HW250849   1.889  12.715  12.075
16318SOL     OW50850   4.287   4.900   6.960
16318SOL    HW150851   4.365   4.946   6.991
16318SOL    HW250852   4.236   4.884   7.039
16319SOL     OW50853  10.524   8.316  12.757
16319SOL    HW150854  10.606   8.361  12.775
16319SOL    HW250855  10.481   8.309  12.842
16320SOL     OW50856  10.811   2.671   9.166
16320SOL    HW150857  10.849   2.719   9.092
16320SOL    HW250858  10.718   2.691   9.163
16321SOL     OW50859   9.258  10.918  14.685
16321SOL    HW150860   9.261  10.850  14.617
16321SOL    HW250861   9.336  10.901  14.738
16322SOL     OW50862  10.927   9.282  12.331
16322SOL    HW150863  10.955   9.223  12.261
16322SOL    HW250864  10.990   9.266  12.402
16323SOL     OW50865   6.918   6.926  11.939
16323SOL    HW150866   6.998   6.977  11.929
16323SOL    HW250867   6.920   6.895  12.029
16324SOL     OW50868   4.775  11.028   5.656
16324SOL    HW150869   4.758  10.969   5.729
16324SOL    HW250870   4.854  11.076   5.681
16325SOL     OW50871   8.923   2.996  11.420
16325SOL    HW150872   8.964   3.083  11.422
16325SOL    HW250873   8.984   2.942  11.369
16326SOL     OW50874   2.350  11.302   1.673
16326SOL    HW150875   2.295  11.262   1.605
16326SOL    HW250876   2.439  11.295   1.638
16327SOL     OW50877  14.682  12.702   6.965
16327SOL    HW150878  14.602  12.650   6.955
16327SOL    HW250879  14.679  12.734   7.055
16328SOL     OW50880  14.051  14.821   9.397
16328SOL    HW150881  14.089  14.820   9.485
16328SOL    HW250882  13.997   0.017   9.395
16329SOL     OW50883  12.005   3.103   0.252
16329SOL    HW150884  11.982   3.059   0.170
16329SOL    HW250885  12.094   3.072   0.272
16330SOL     OW50886   3.713   3.634  13.752
16330SOL    HW150887   3.638   3.655  13.698
16330SOL    HW250888   3.696   3.545  13.784
16331SOL     OW50889   7.032  11.606   8.393
16331SOL    HW150890   7.075  11.522   8.407
16331SOL    HW250891   7.022  11.612   8.298
16332SOL     OW50892  10.661   0.607  13.512
16332SOL    HW150893  10.734   0.596  13.572
16332SOL    HW250894  10.661   0.700  13.490
16333SOL     OW50895   2.752  13.200   2.164
16333SOL    HW150896   2.780  13.108   2.159
16333SOL    HW250897   2.715  13.219   2.079
16334SOL     OW50898   3.237   5.858   3.378
16334SOL    HW150899   3.217   5.942   3.337
16334SOL    HW250900   3.193   5.861   3.462
16335SOL     OW50901  14.397   3.026   7.431
16335SOL    HW150902  14.332   3.046   7.498
16335SOL    HW250903  14.357   2.958   7.377
16336SOL     OW50904   3.121   0.010   7.629
16336SOL    HW150905   3.187   0.066   7.671
16336SOL    HW250906   3.140  14.804   7.660
16337SOL     OW50907   7.972  13.009  14.472
16337SOL    HW150908   7.953  12.915  14.466
16337SOL    HW250909   7.887  13.051  14.463
16338SOL     OW50910  12.272   7.667  11.674
16338SOL    HW150911  12.209   7.656  11.603
16338SOL    HW250912  12.230   7.626  11.750
16339SOL     OW50913  10.588   8.351   3.912
16339SOL    HW150914  10.580   8.436   3.954
16339SOL    HW250915  10.522   8.351   3.843
16340SOL     OW50916   9.220  14.011   2.986
16340SOL    HW150917   9.269  13.929   2.987
16340SOL    HW250918   9.128  13.985   2.984
16341SOL     OW50919  10.120   1.547  10.792
16341SOL    HW150920  10.151   1.546  10.701
16341SOL    HW250921  10.062   1.623  10.797
16342SOL     OW50922   3.602   1.489   4.684
16342SOL    HW150923   3.681   1.512   4.636
16342SOL    HW250924   3.530   1.521   4.629
16343SOL     OW50925   6.228  12.758   2.325
16343SOL    HW150926   6.250  12.785   2.236
16343SOL    HW250927   6.311  12.729   2.362
16344SOL     OW50928  10.442   5.804  10.307
16344SOL    HW150929  10.485   5.879  10.348
16344SOL    HW250930  10.409   5.752  10.381
16345SOL     OW50931   8.161  11.758  14.041
16345SOL    HW150932   8.190  11.850  14.040
16345SOL    HW250933   8.209  11.719  14.114
16346SOL     OW50934   9.705  12.086  14.007
16346SOL    HW150935   9.796  12.081  14.034
16346SOL    HW250936   9.705  12.057  13.916
16347SOL     OW50937   2.320  13.932   8.177
16347SOL    HW150938   2.329  13.949   8.083
16347SOL    HW250939   2.287  14.014   8.214
16348SOL     OW50940   5.380   4.148   7.437
16348SOL    HW150941   5.301   4.113   7.396
16348SOL    HW250942   5.443   4.076   7.432
16349SOL     OW50943   1.499   6.019  10.615
16349SOL    HW150944   1.513   5.991  10.706
16349SOL    HW250945   1.411   5.986  10.593
16350SOL     OW50946  10.887  11.817   5.366
16350SOL    HW150947  10.907  11.774   5.449
16350SOL    HW250948  10.835  11.753   5.317
16351SOL     OW50949   4.419   9.381  12.165
16351SOL    HW150950   4.340   9.343  12.125
16351SOL    HW250951   4.429   9.466  12.123
16352SOL     OW50952   4.216   8.277   7.378
16352SOL    HW150953   4.184   8.363   7.349
16352SOL    HW250954   4.217   8.223   7.299
16353SOL     OW50955  13.655   3.676   9.325
16353SOL    HW150956  13.740   3.718   9.342
16353SOL    HW250957  13.636   3.627   9.404
16354SOL     OW50958  14.383   5.189   5.100
16354SOL    HW150959  14.393   5.223   5.011
16354SOL    HW250960  14.306   5.234   5.135
16355SOL     OW50961   4.197  10.101  14.183
16355SOL    HW150962   4.164  10.184  14.148
16355SOL    HW250963   4.160  10.034  14.125
16356SOL     OW50964  11.933  14.289   1.771
16356SOL    HW150965  12.022  14.274   1.739
16356SOL    HW250966  11.896  14.351   1.709
16357SOL     OW50967  13.749   5.385   0.209
16357SOL    HW150968  13.685   5.363   0.141
16357SOL    HW250969  13.741   5.314   0.273
16358SOL     OW50970   8.045   5.352   2.656
16358SOL    HW150971   8.138   5.328   2.659
16358SOL    HW250972   7.998   5.270   2.669
16359SOL     OW50973  11.381   9.090   3.623
16359SOL    HW150974  11.336   9.010   3.597
16359SOL    HW250975  11.312   9.149   3.654
16360SOL     OW50976   3.948  12.167   0.552
16360SOL    HW150977   3.925  12.100   0.488
16360SOL    HW250978   3.924  12.129   0.637
16361SOL     OW50979   1.685   5.410   4.762
16361SOL    HW150980   1.698   5.457   4.844
16361SOL    HW250981   1.771   5.374   4.741
16362SOL     OW50982   9.040   4.192   3.977
16362SOL    HW150983   9.129   4.161   3.963
16362SOL    HW250984   9.034   4.273   3.926
16363SOL     OW50985   1.543  11.596   7.734
16363SOL    HW150986   1.517  11.597   7.826
16363SOL    HW250987   1.481  11.654   7.690
16364SOL     OW50988   0.036   6.690   7.838
16364SOL    HW150989   0.100   6.626   7.806
16364SOL    HW250990  14.842   6.678   7.782
16365SOL     OW50991   7.326   0.313  10.723
16365SOL    HW150992   7.269   0.289  10.797
16365SOL    HW250993   7.400   0.358  10.764
16366SOL     OW50994   8.584  14.314   6.320
16366SOL    HW150995   8.537  14.375   6.377
16366SOL    HW250996   8.615  14.369   6.247
16367SOL     OW50997  10.469   8.543   9.634
16367SOL    HW150998  10.444   8.485   9.562
16367SOL    HW250999  10.473   8.630   9.594
16368SOL     OW51000  13.865   9.528  14.601
16368SOL    HW151001  13.925   9.471  14.649
16368SOL    HW251002  13.817   9.470  14.543
16369SOL     OW51003   7.562   6.803   4.598
16369SOL    HW151004   7.563   6.895   4.623
16369SOL    HW251005   7.546   6.804   4.504
16370SOL     OW51006   7.301   8.608   9.120
16370SOL    HW151007   7.264   8.640   9.203
16370SOL    HW251008   7.396   8.615   9.132
16371SOL     OW51009   8.562  13.202  10.015
16371SOL    HW151010   8.655  13.222  10.004
16371SOL    HW251011   8.546  13.213  10.109
16372SOL     OW51012   4.273  10.783  10.897
16372SOL    HW151013   4.201  10.805  10.956
16372SOL    HW251014   4.326  10.721  10.946
16373SOL     OW51015  13.283   4.984   4.388
16373SOL    HW151016  13.323   5.001   4.303
16373SOL    HW251017  13.224   4.910   4.372
16374SOL     OW51018   9.644  14.596   2.212
16374SOL    HW151019   9.665  14.687   2.233
16374SOL    HW251020   9.684  14.545   2.282
16375SOL     OW51021  14.170  11.999   1.119
16375SOL    HW151022  14.227  11.925   1.141
16375SOL    HW251023  14.107  11.962   1.056
16376SOL     OW51024  14.388   6.511   3.326
16376SOL    HW151025  14.460   6.448   3.328
16376SOL    HW251026  14.422   6.585   3.276
16377SOL     OW51027   6.930   0.733   5.043
16377SOL    HW151028   6.972   0.774   5.119
16377SOL    HW251029   6.950   0.640   5.052
16378SOL     OW51030   2.436  11.223   3.454
16378SOL    HW151031   2.358  11.183   3.492
16378SOL    HW251032   2.420  11.223   3.360
16379SOL     OW51033  12.534  11.383  12.657
16379SOL    HW151034  12.482  11.307  12.682
16379SOL    HW251035  12.624  11.350  12.651
16380SOL     OW51036   0.442   9.204   9.241
16380SOL    HW151037   0.418   9.161   9.159
16380SOL    HW251038   0.480   9.135   9.294
16381SOL     OW51039   3.602   7.432  10.338
16381SOL    HW151040   3.580   7.471  10.423
16381SOL    HW251041   3.698   7.428  10.338
16382SOL     OW51042  12.419  10.926  14.048
16382SOL    HW151043  12.410  10.976  14.129
16382SOL    HW251044  12.512  10.933  14.026
16383SOL     OW51045   3.493  14.690   4.221
16383SOL    HW151046   3.401  14.670   4.235
16383SOL    HW251047   3.528  14.705   4.309
16384SOL     OW51048   6.252  12.914   0.677
16384SOL    HW151049   6.317  12.927   0.608
16384SOL    HW251050   6.300  12.932   0.758
16385SOL     OW51051   9.631   5.115   5.298
16385SOL    HW151052   9.691   5.051   5.335
16385SOL    HW251053   9.633   5.099   5.204
16386SOL     OW51054   5.030   6.320  11.343
16386SOL    HW151055   4.956   6.380  11.340
16386SOL    HW251056   4.991   6.233  11.343
16387SOL     OW51057  13.022  10.593   7.527
16387SOL    HW151058  13.027  10.503   7.496
16387SOL    HW251059  13.037  10.587   7.621
16388SOL     OW51060  10.536   7.619  14.055
16388SOL    HW151061  10.444   7.647  14.063
16388SOL    HW251062  10.533   7.542  13.999
16389SOL     OW51063   7.977   3.333   4.855
16389SOL    HW151064   7.977   3.259   4.795
16389SOL    HW251065   8.024   3.301   4.932
16390SOL     OW51066   0.139  11.658  14.657
16390SOL    HW151067   0.207  11.591  14.646
16390SOL    HW251068   0.136  11.674  14.752
16391SOL     OW51069   4.689  10.182  14.240
16391SOL    HW151070   4.715  10.117  14.305
16391SOL    HW251071   4.725  10.150  14.157
16392SOL     OW51072   7.555  12.328   4.609
16392SOL    HW151073   7.599  12.372   4.681
16392SOL    HW251074   7.564  12.388   4.535
16393SOL     OW51075   4.304   6.028   3.084
16393SOL    HW151076   4.358   6.104   3.064
16393SOL    HW251077   4.363   5.953   3.073
16394SOL     OW51078  12.438   6.167   0.141
16394SOL    HW151079  12.391   6.119   0.074
16394SOL    HW251080  12.524   6.185   0.103
16395SOL     OW51081   8.302   0.470   4.288
16395SOL    HW151082   8.272   0.410   4.220
16395SOL    HW251083   8.302   0.418   4.369
16396SOL     OW51084   0.338   6.030   9.591
16396SOL    HW151085   0.366   6.033   9.500
16396SOL    HW251086   0.359   6.117   9.625
16397SOL     OW51087   3.062   5.817   5.393
16397SOL    HW151088   3.154   5.801   5.375
16397SOL    HW251089   3.031   5.868   5.318
16398SOL     OW51090   1.589   9.090  10.880
16398SOL    HW151091   1.559   9.042  10.957
16398SOL    HW251092   1.509   9.115  10.834
16399SOL     OW51093   1.669   8.045  10.202
16399SOL    HW151094   1.714   7.960  10.192
16399SOL    HW251095   1.637   8.044  10.292
16400SOL     OW51096  14.859  13.265   3.496
16400SOL    HW151097  14.843  13.356   3.520
16400SOL    HW251098  14.791  13.216   3.542
16401SOL     OW51099  14.129   4.363   7.592
16401SOL    HW151100  14.199   4.353   7.656
16401SOL    HW251101  14.174   4.376   7.508
16402SOL     OW51102  12.041   2.831   5.634
16402SOL    HW151103  12.124   2.864   5.667
16402SOL    HW251104  11.989   2.909   5.615
16403SOL     OW51105   0.703  12.606  14.134
16403SOL    HW151106   0.614  12.576  14.118
16403SOL    HW251107   0.736  12.633  14.049
16404SOL     OW51108  11.367  13.116  13.417
16404SOL    HW151109  11.297  13.154  13.364
16404SOL    HW251110  11.381  13.029  13.379
16405SOL     OW51111   5.006   0.383   9.492
16405SOL    HW151112   4.938   0.328   9.529
16405SOL    HW251113   4.965   0.469   9.484
16406SOL     OW51114   5.891   8.467   7.545
16406SOL    HW151115   5.928   8.520   7.615
16406SOL    HW251116   5.798   8.491   7.544
16407SOL     OW51117  12.966  11.113   4.980
16407SOL    HW151118  12.948  11.192   5.031
16407SOL    HW251119  13.012  11.144   4.903
16408SOL     OW51120  13.565   1.597   6.426
16408SOL    HW151121  13.539   1.632   6.341
16408SOL    HW251122  13.553   1.502   6.417
16409SOL     OW51123   2.387  14.498  10.262
16409SOL    HW151124   2.317  14.437  10.286
16409SOL    HW251125   2.354  14.543  10.184
16410SOL     OW51126   6.743  14.525   0.288
16410SOL    HW151127   6.787  14.497   0.368
16410SOL    HW251128   6.658  14.557   0.318
16411SOL     OW51129   1.541  12.531  12.216
16411SOL    HW151130   1.515  12.485  12.295
16411SOL    HW251131   1.634  12.511  12.205
16412SOL     OW51132   6.411   0.538  13.050
16412SOL    HW151133   6.471   0.497  12.989
16412SOL    HW251134   6.383   0.466  13.108
16413SOL     OW51135  13.977   9.597   1.855
16413SOL    HW151136  14.037   9.522   1.856
16413SOL    HW251137  14.032   9.673   1.872
16414SOL     OW51138   1.903  14.307   4.221
16414SOL    HW151139   1.909  14.217   4.253
16414SOL    HW251140   1.950  14.306   4.138
16415SOL     OW51141  13.414   5.797   1.543
16415SOL    HW151142  13.452   5.710   1.557
16415SOL    HW251143  13.357   5.786   1.466
16416SOL     OW51144  13.561   1.683  12.479
16416SOL    HW151145  13.645   1.648  12.510
16416SOL    HW251146  13.557   1.655  12.387
16417SOL     OW51147  10.499   5.131  10.180
16417SOL    HW151148  10.555   5.122  10.102
16417SOL    HW251149  10.448   5.050  10.181
16418SOL     OW51150   7.196   5.137   9.368
16418SOL    HW151151   7.245   5.207   9.323
16418SOL    HW251152   7.114   5.178   9.393
16419SOL     OW51153   2.152   5.094  11.685
16419SOL    HW151154   2.072   5.068  11.732
16419SOL    HW251155   2.142   5.188  11.672
16420SOL     OW51156   8.058   0.851   6.127
16420SOL    HW151157   8.009   0.830   6.047
16420SOL    HW251158   8.122   0.780   6.136
16421SOL     OW51159  14.149   6.637   9.762
16421SOL    HW151160  14.090   6.594   9.825
16421SOL    HW251161  14.196   6.702   9.814
16422SOL     OW51162   6.488   9.643  13.057
16422SOL    HW151163   6.412   9.681  13.099
16422SOL    HW251164   6.534   9.596  13.127
16423SOL     OW51165   6.520   6.543   0.921
16423SOL    HW151166   6.499   6.457   0.958
16423SOL    HW251167   6.435   6.586   0.910
16424SOL     OW51168   6.089   2.523   3.246
16424SOL    HW151169   6.009   2.572   3.266
16424SOL    HW251170   6.062   2.432   3.247
16425SOL     OW51171  12.530  13.772   8.683
16425SOL    HW151172  12.535  13.676   8.678
16425SOL    HW251173  12.437  13.790   8.691
16426SOL     OW51174   7.198   9.904  10.698
16426SOL    HW151175   7.169   9.813  10.696
16426SOL    HW251176   7.123   9.953  10.733
16427SOL     OW51177   2.566   0.577  10.788
16427SOL    HW151178   2.583   0.669  10.765
16427SOL    HW251179   2.521   0.581  10.872
16428SOL     OW51180   7.416   9.328   9.065
16428SOL    HW151181   7.476   9.263   9.029
16428SOL    HW251182   7.428   9.405   9.010
16429SOL     OW51183   1.742  14.092  10.106
16429SOL    HW151184   1.679  14.049  10.163
16429SOL    HW251185   1.762  14.175  10.150
16430SOL     OW51186  13.304   0.789  10.736
16430SOL    HW151187  13.398   0.806  10.728
16430SOL    HW251188  13.295   0.697  10.711
16431SOL     OW51189   6.318  10.811  13.275
16431SOL    HW151190   6.337  10.898  13.239
16431SOL    HW251191   6.398  10.761  13.258
16432SOL     OW51192   9.153   1.468   1.947
16432SOL    HW151193   9.167   1.379   1.914
16432SOL    HW251194   9.131   1.519   1.869
16433SOL     OW51195  13.840   7.445   7.545
16433SOL    HW151196  13.914   7.384   7.546
16433SOL    HW251197  13.853   7.499   7.623
16434SOL     OW51198   4.852   8.838  12.001
16434SOL    HW151199   4.812   8.758  11.968
16434SOL    HW251200   4.854   8.897  11.925
16435SOL     OW51201   1.404   5.847   0.361
16435SOL    HW151202   1.422   5.935   0.328
16435SOL    HW251203   1.358   5.862   0.444
16436SOL     OW51204   9.460   8.184   5.713
16436SOL    HW151205   9.389   8.169   5.775
16436SOL    HW251206   9.516   8.249   5.755
16437SOL     OW51207   7.648  11.654   2.669
16437SOL    HW151208   7.615  11.717   2.604
16437SOL    HW251209   7.672  11.577   2.618
16438SOL     OW51210  13.289   3.869  11.165
16438SOL    HW151211  13.311   3.777  11.183
16438SOL    HW251212  13.194   3.868  11.153
16439SOL     OW51213   6.403   5.158  12.902
16439SOL    HW151214   6.316   5.131  12.932
16439SOL    HW251215   6.386   5.233  12.845
16440SOL     OW51216   4.495  10.802   8.049
16440SOL    HW151217   4.539  10.743   7.987
16440SOL    HW251218   4.436  10.853   7.995
16441SOL     OW51219   4.150   9.015   8.902
16441SOL    HW151220   4.097   8.935   8.896
16441SOL    HW251221   4.090   9.086   8.877
16442SOL     OW51222   7.739   4.418   1.231
16442SOL    HW151223   7.741   4.403   1.137
16442SOL    HW251224   7.760   4.334   1.270
16443SOL     OW51225  12.730  13.396  13.505
16443SOL    HW151226  12.713  13.308  13.472
16443SOL    HW251227  12.655  13.448  13.476
16444SOL     OW51228   3.057  12.413  13.212
16444SOL    HW151229   3.011  12.470  13.274
16444SOL    HW251230   3.098  12.346  13.267
16445SOL     OW51231   4.315   9.008   5.069
16445SOL    HW151232   4.405   9.002   5.102
16445SOL    HW251233   4.268   8.939   5.115
16446SOL     OW51234  12.292  12.883   5.115
16446SOL    HW151235  12.371  12.932   5.095
16446SOL    HW251236  12.227  12.917   5.053
16447SOL     OW51237   6.415   4.467  11.835
16447SOL    HW151238   6.342   4.422  11.794
16447SOL    HW251239   6.377   4.545  11.875
16448SOL     OW51240   5.946   9.232   1.236
16448SOL    HW151241   5.917   9.323   1.230
16448SOL    HW251242   6.012   9.233   1.305
16449SOL     OW51243   1.674  11.031   7.380
16449SOL    HW151244   1.751  10.982   7.408
16449SOL    HW251245   1.701  11.123   7.383
16450SOL     OW51246   3.669   0.008   4.479
16450SOL    HW151247   3.702   0.004   4.389
16450SOL    HW251248   3.744  14.865   4.533
16451SOL     OW51249   9.492   8.479   2.185
16451SOL    HW151250   9.423   8.507   2.125
16451SOL    HW251251   9.561   8.545   2.175
16452SOL     OW51252   4.108   9.746  10.626
16452SOL    HW151253   4.097   9.674  10.565
16452SOL    HW251254   4.124   9.704  10.711
16453SOL     OW51255  10.349  13.070   9.679
16453SOL    HW151256  10.342  13.013   9.755
16453SOL    HW251257  10.368  13.156   9.716
16454SOL     OW51258   8.822   6.520   0.343
16454SOL    HW151259   8.852   6.568   0.420
16454SOL    HW251260   8.860   6.433   0.352
16455SOL     OW51261   0.352   3.725   2.967
16455SOL    HW151262   0.351   3.630   2.979
16455SOL    HW251263   0.316   3.738   2.879
16456SOL     OW51264   0.247  12.846   4.897
16456SOL    HW151265   0.219  12.936   4.878
16456SOL    HW251266   0.246  12.802   4.812
16457SOL     OW51267   5.406   3.490  11.916
16457SOL    HW151268   5.468   3.547  11.872
16457SOL    HW251269   5.336   3.475  11.852
16458SOL     OW51270   1.074  10.883   6.404
16458SOL    HW151271   0.985  10.885   6.438
16458SOL    HW251272   1.113  10.966   6.431
16459SOL     OW51273   0.388   4.897  12.296
16459SOL    HW151274   0.332   4.927  12.369
16459SOL    HW251275   0.387   4.970  12.234
16460SOL     OW51276  12.158  13.079  12.486
16460SOL    HW151277  12.211  13.134  12.543
16460SOL    HW251278  12.212  13.001  12.471
16461SOL     OW51279   7.426   2.522   6.603
16461SOL    HW151280   7.453   2.507   6.693
16461SOL    HW251281   7.330   2.528   6.607
16462SOL     OW51282   5.840  10.180   3.931
16462SOL    HW151283   5.810  10.182   3.841
16462SOL    HW251284   5.930  10.215   3.928
16463SOL     OW51285   4.985   3.037   3.366
16463SOL    HW151286   5.038   2.958   3.369
16463SOL    HW251287   5.039   3.106   3.404
16464SOL     OW51288   9.833  11.557   6.198
16464SOL    HW151289   9.851  11.628   6.260
16464SOL    HW251290   9.916  11.510   6.191
16465SOL     OW51291  11.318   7.338  13.614
16465SOL    HW151292  11.348   7.426  13.636
16465SOL    HW251293  11.347   7.284  13.687
16466SOL     OW51294   7.354   8.478  13.338
16466SOL    HW151295   7.301   8.558  13.339
16466SOL    HW251296   7.360   8.452  13.430
16467SOL     OW51297  11.374  12.946   5.053
16467SOL    HW151298  11.315  12.902   4.991
16467SOL    HW251299  11.338  13.034   5.062
16468SOL     OW51300   3.719   4.380  14.686
16468SOL    HW151301   3.674   4.404  14.767
16468SOL    HW251302   3.703   4.286  14.676
16469SOL     OW51303   6.418   9.042   5.249
16469SOL    HW151304   6.428   8.964   5.194
16469SOL    HW251305   6.501   9.088   5.242
16470SOL     OW51306   6.064  12.121   9.504
16470SOL    HW151307   6.010  12.167   9.440
16470SOL    HW251308   6.012  12.046   9.531
16471SOL     OW51309   7.201  13.836   7.610
16471SOL    HW151310   7.240  13.779   7.544
16471SOL    HW251311   7.236  13.805   7.693
16472SOL     OW51312   7.854  14.388   6.134
16472SOL    HW151313   7.865  14.293   6.144
16472SOL    HW251314   7.797  14.412   6.207
16473SOL     OW51315  12.351  14.111   3.258
16473SOL    HW151316  12.407  14.184   3.286
16473SOL    HW251317  12.312  14.140   3.176
16474SOL     OW51318  10.048   9.950   8.861
16474SOL    HW151319  10.035   9.855   8.854
16474SOL    HW251320   9.999   9.975   8.940
16475SOL     OW51321   1.164   3.646   9.966
16475SOL    HW151322   1.235   3.585   9.943
16475SOL    HW251323   1.092   3.589   9.992
16476SOL     OW51324   7.652  14.514   3.993
16476SOL    HW151325   7.672  14.498   3.901
16476SOL    HW251326   7.679  14.434   4.038
16477SOL     OW51327  10.412   4.839   3.243
16477SOL    HW151328  10.467   4.837   3.322
16477SOL    HW251329  10.464   4.888   3.179
16478SOL     OW51330  14.728  10.348   6.118
16478SOL    HW151331  14.685  10.414   6.064
16478SOL    HW251332  14.723  10.267   6.066
16479SOL     OW51333   8.236   7.133   0.704
16479SOL    HW151334   8.171   7.064   0.711
16479SOL    HW251335   8.222   7.188   0.781
16480SOL     OW51336  14.331   2.882   2.956
16480SOL    HW151337  14.319   2.801   2.905
16480SOL    HW251338  14.371   2.943   2.894
16481SOL     OW51339  11.456   8.820  14.622
16481SOL    HW151340  11.413   8.759  14.683
16481SOL    HW251341  11.476   8.766  14.546
16482SOL     OW51342   8.585   5.727   4.894
16482SOL    HW151343   8.565   5.691   4.981
16482SOL    HW251344   8.567   5.655   4.834
16483SOL     OW51345   4.299  10.262   1.616
16483SOL    HW151346   4.287  10.271   1.522
16483SOL    HW251347   4.376  10.316   1.636
16484SOL     OW51348  12.303  11.955   1.675
16484SOL    HW151349  12.304  11.959   1.579
16484SOL    HW251350  12.359  11.881   1.697
16485SOL     OW51351   2.098   6.003  12.330
16485SOL    HW151352   2.059   5.952  12.259
16485SOL    HW251353   2.104   6.092  12.296
16486SOL     OW51354   1.147   2.382   3.716
16486SOL    HW151355   1.194   2.301   3.736
16486SOL    HW251356   1.215   2.449   3.712
16487SOL     OW51357   9.432   9.342   3.190
16487SOL    HW151358   9.524   9.329   3.167
16487SOL    HW251359   9.391   9.373   3.110
16488SOL     OW51360   0.468   9.903  12.993
16488SOL    HW151361   0.542   9.915  12.933
16488SOL    HW251362   0.432   9.991  13.005
16489SOL     OW51363  11.745  10.598   3.395
16489SOL    HW151364  11.675  10.573   3.456
16489SOL    HW251365  11.707  10.669   3.343
16490SOL     OW51366   1.229   9.917  14.330
16490SOL    HW151367   1.270   9.986  14.383
16490SOL    HW251368   1.200   9.852  14.394
16491SOL     OW51369   3.664  12.946   3.600
16491SOL    HW151370   3.737  12.992   3.559
16491SOL    HW251371   3.669  12.973   3.692
16492SOL     OW51372   7.538  11.654   6.282
16492SOL    HW151373   7.543  11.577   6.339
16492SOL    HW251374   7.550  11.729   6.341
16493SOL     OW51375   3.734  10.325   7.924
16493SOL    HW151376   3.737  10.407   7.974
16493SOL    HW251377   3.644  10.319   7.893
16494SOL     OW51378   2.631  13.639  11.871
16494SOL    HW151379   2.645  13.625  11.965
16494SOL    HW251380   2.685  13.572  11.829
16495SOL     OW51381   1.565  10.804  14.031
16495SOL    HW151382   1.515  10.782  13.952
16495SOL    HW251383   1.556  10.898  14.040
16496SOL     OW51384   2.680   0.097  11.469
16496SOL    HW151385   2.759   0.106  11.416
16496SOL    HW251386   2.649   0.008  11.453
16497SOL     OW51387   0.945   7.757   6.095
16497SOL    HW151388   0.988   7.684   6.048
16497SOL    HW251389   0.861   7.767   6.051
16498SOL     OW51390   4.077  14.535   1.103
16498SOL    HW151391   3.988  14.555   1.072
16498SOL    HW251392   4.123  14.505   1.025
16499SOL     OW51393  14.776  10.570   0.120
16499SOL    HW151394  14.740  10.488   0.154
16499SOL    HW251395  14.809  10.549   0.033
16500SOL     OW51396   6.356  12.516   1.866
16500SOL    HW151397   6.451  12.505   1.869
16500SOL    HW251398   6.326  12.497   1.954
16501SOL     OW51399  10.175   4.782  14.647
16501SOL    HW151400  10.081   4.801  14.650
16501SOL    HW251401  10.211   4.828  14.723
16502SOL     OW51402   8.531   0.474   0.297
16502SOL    HW151403   8.467   0.524   0.348
16502SOL    HW251404   8.536   0.519   0.214
16503SOL     OW51405   8.504  14.429   0.749
16503SOL    HW151406   8.598  14.416   0.762
16503SOL    HW251407   8.490  14.412   0.656
16504SOL     OW51408   1.755  10.853   0.703
16504SOL    HW151409   1.834  10.889   0.744
16504SOL    HW251410   1.754  10.890   0.615
16505SOL     OW51411   2.950   7.250   6.915
16505SOL    HW151412   3.030   7.269   6.964
16505SOL    HW251413   2.920   7.335   6.883
16506SOL     OW51414   3.232   4.094   1.071
16506SOL    HW151415   3.275   4.159   1.016
16506SOL    HW251416   3.303   4.035   1.098
16507SOL     OW51417   9.634   5.346  11.193
16507SOL    HW151418   9.671   5.258  11.180
16507SOL    HW251419   9.593   5.367  11.109
16508SOL     OW51420   6.704   2.714   2.869
16508SOL    HW151421   6.759   2.774   2.920
16508SOL    HW251422   6.647   2.673   2.933
16509SOL     OW51423   5.081  11.642   2.963
16509SOL    HW151424   5.098  11.549   2.979
16509SOL    HW251425   5.161  11.686   2.991
16510SOL     OW51426   7.909  14.331  13.361
16510SOL    HW151427   7.976  14.281  13.313
16510SOL    HW251428   7.843  14.265  13.384
16511SOL     OW51429   0.690   4.345   4.840
16511SOL    HW151430   0.683   4.360   4.934
16511SOL    HW251431   0.600   4.337   4.810
16512SOL     OW51432   4.545   0.252  12.639
16512SOL    HW151433   4.581   0.183  12.583
16512SOL    HW251434   4.461   0.217  12.668
16513SOL     OW51435  14.085   0.314   0.568
16513SOL    HW151436  14.063   0.362   0.647
16513SOL    HW251437  14.076   0.222   0.592
16514SOL     OW51438  13.759   3.766   2.783
16514SOL    HW151439  13.779   3.826   2.711
16514SOL    HW251440  13.816   3.691   2.767
16515SOL     OW51441  14.801  12.345  13.492
16515SOL    HW151442  14.869  12.364  13.557
16515SOL    HW251443  14.850  12.318  13.414
16516SOL     OW51444   9.596  10.670   3.019
16516SOL    HW151445   9.672  10.614   3.029
16516SOL    HW251446   9.586  10.681   2.924
16517SOL     OW51447  11.008   0.780   5.804
16517SOL    HW151448  10.948   0.791   5.877
16517SOL    HW251449  11.006   0.687   5.784
16518SOL     OW51450   0.153   2.594   1.620
16518SOL    HW151451   0.120   2.541   1.547
16518SOL    HW251452   0.242   2.618   1.594
16519SOL     OW51453   3.422   6.330   4.485
16519SOL    HW151454   3.389   6.290   4.404
16519SOL    HW251455   3.435   6.256   4.544
16520SOL     OW51456   0.888  12.179   2.214
16520SOL    HW151457   0.930  12.143   2.136
16520SOL    HW251458   0.937  12.259   2.234
16521SOL     OW51459   2.235  10.169   7.924
16521SOL    HW151460   2.140  10.173   7.928
16521SOL    HW251461   2.265  10.207   8.007
16522SOL     OW51462   1.424   9.417  11.665
16522SOL    HW151463   1.359   9.374  11.721
16522SOL    HW251464   1.507   9.375  11.688
16523SOL     OW51465   3.556   3.432   6.312
16523SOL    HW151466   3.651   3.444   6.308
16523SOL    HW251467   3.524   3.465   6.228
16524SOL     OW51468   2.615  12.423   1.010
16524SOL    HW151469   2.679  12.485   0.974
16524SOL    HW251470   2.652  12.337   0.991
16525SOL     OW51471   2.359  12.571   1.422
16525SOL    HW151472   2.330  12.543   1.335
16525SOL    HW251473   2.291  12.538   1.481
16526SOL     OW51474   6.322   2.603   6.227
16526SOL    HW151475   6.413   2.633   6.223
16526SOL    HW251476   6.322   2.519   6.182
16527SOL     OW51477  11.706   6.212   7.162
16527SOL    HW151478  11.632   6.212   7.102
16527SOL    HW251479  11.770   6.271   7.121
16528SOL     OW51480   5.352   9.175   3.681
16528SOL    HW151481   5.362   9.226   3.762
16528SOL    HW251482   5.266   9.134   3.690
16529SOL     OW51483   2.440  10.528   2.415
16529SOL    HW151484   2.529  10.520   2.379
16529SOL    HW251485   2.436  10.459   2.482
16530SOL     OW51486  10.165  14.136   4.672
16530SOL    HW151487  10.227  14.100   4.609
16530SOL    HW251488  10.088  14.078   4.665
16531SOL     OW51489  12.510   8.538   1.869
16531SOL    HW151490  12.570   8.473   1.907
16531SOL    HW251491  12.464   8.575   1.945
16532SOL     OW51492  14.187   3.451   7.195
16532SOL    HW151493  14.228   3.468   7.280
16532SOL    HW251494  14.186   3.355   7.188
16533SOL     OW51495   8.180  12.607  11.776
16533SOL    HW151496   8.251  12.547  11.751
16533SOL    HW251497   8.128  12.556  11.838
16534SOL     OW51498   5.510   8.040   3.138
16534SOL    HW151499   5.602   8.065   3.151
16534SOL    HW251500   5.461   8.097   3.198
16535SOL     OW51501   2.535  14.882   3.689
16535SOL    HW151502   2.542  14.829   3.610
16535SOL    HW251503   2.474  14.833   3.745
16536SOL     OW51504   1.033  10.405  10.867
16536SOL    HW151505   1.029  10.498  10.890
16536SOL    HW251506   1.041  10.405  10.771
16537SOL     OW51507  12.886  13.375   9.258
16537SOL    HW151508  12.803  13.416   9.281
16537SOL    HW251509  12.862  13.294   9.214
16538SOL     OW51510   8.527   8.698   2.443
16538SOL    HW151511   8.453   8.659   2.490
16538SOL    HW251512   8.505   8.791   2.437
16539SOL     OW51513   1.781   5.485   0.352
16539SOL    HW151514   1.771   5.576   0.327
16539SOL    HW251515   1.873   5.465   0.334
16540SOL     OW51516   3.033   3.231   2.607
16540SOL    HW151517   3.058   3.250   2.517
16540SOL    HW251518   3.068   3.144   2.625
16541SOL     OW51519  13.334  14.134   5.492
16541SOL    HW151520  13.279  14.085   5.553
16541SOL    HW251521  13.423  14.120   5.524
16542SOL     OW51522   7.734   9.962   5.886
16542SOL    HW151523   7.767  10.008   5.963
16542SOL    HW251524   7.788   9.883   5.880
16543SOL     OW51525   6.937   2.751   3.581
16543SOL    HW151526   6.994   2.826   3.568
16543SOL    HW251527   6.994   2.675   3.568
16544SOL     OW51528   1.457   4.409   4.484
16544SOL    HW151529   1.373   4.448   4.463
16544SOL    HW251530   1.452   4.320   4.451
16545SOL     OW51531   4.723  12.382   6.892
16545SOL    HW151532   4.809  12.392   6.851
16545SOL    HW251533   4.680  12.466   6.879
16546SOL     OW51534  11.135   0.971   7.922
16546SOL    HW151535  11.196   0.915   7.969
16546SOL    HW251536  11.172   0.979   7.834
16547SOL     OW51537  11.540   8.572  12.735
16547SOL    HW151538  11.601   8.505  12.704
16547SOL    HW251539  11.455   8.527  12.738
16548SOL     OW51540  13.487  10.805   5.933
16548SOL    HW151541  13.485  10.752   5.853
16548SOL    HW251542  13.532  10.750   5.997
16549SOL     OW51543   1.077  11.487   8.373
16549SOL    HW151544   1.081  11.545   8.297
16549SOL    HW251545   1.038  11.406   8.340
16550SOL     OW51546  14.493   0.885   0.094
16550SOL    HW151547  14.560   0.928   0.147
16550SOL    HW251548  14.444   0.958   0.054
16551SOL     OW51549   7.857  12.589  10.385
16551SOL    HW151550   7.853  12.649  10.309
16551SOL    HW251551   7.824  12.506  10.351
16552SOL     OW51552  14.811   4.334   1.569
16552SOL    HW151553  14.779   4.420   1.597
16552SOL    HW251554   0.023   4.347   1.553
16553SOL     OW51555   1.001   8.930   7.445
16553SOL    HW151556   0.936   8.994   7.415
16553SOL    HW251557   1.070   8.933   7.379
16554SOL     OW51558   9.646   7.530   5.851
16554SOL    HW151559   9.672   7.529   5.943
16554SOL    HW251560   9.630   7.622   5.831
16555SOL     OW51561   0.370   8.687  12.436
16555SOL    HW151562   0.443   8.672  12.495
16555SOL    HW251563   0.396   8.763  12.384
16556SOL     OW51564   5.776  12.379  14.222
16556SOL    HW151565   5.733  12.318  14.161
16556SOL    HW251566   5.775  12.463  14.177
16557SOL     OW51567  11.258   3.943   4.037
16557SOL    HW151568  11.313   3.874   4.076
16557SOL    HW251569  11.233   3.998   4.111
16558SOL     OW51570   9.107  13.365   0.731
16558SOL    HW151571   9.187  13.374   0.782
16558SOL    HW251572   9.111  13.276   0.694
16559SOL     OW51573   4.080   0.709   4.138
16559SOL    HW151574   4.010   0.649   4.164
16559SOL    HW251575   4.062   0.727   4.046
16560SOL     OW51576   1.224   8.292   0.654
16560SOL    HW151577   1.297   8.249   0.611
16560SOL    HW251578   1.227   8.260   0.744
16561SOL     OW51579  10.781  10.350   6.525
16561SOL    HW151580  10.821  10.281   6.472
16561SOL    HW251581  10.696  10.367   6.483
16562SOL     OW51582  12.993   2.134   8.451
16562SOL    HW151583  13.033   2.048   8.468
16562SOL    HW251584  13.051   2.196   8.494
16563SOL     OW51585  13.110   0.243   5.868
16563SOL    HW151586  13.133   0.224   5.959
16563SOL    HW251587  13.191   0.229   5.819
16564SOL     OW51588   7.571   2.355  13.152
16564SOL    HW151589   7.571   2.272  13.106
16564SOL    HW251590   7.654   2.397  13.128
16565SOL     OW51591  12.207  13.520   9.309
16565SOL    HW151592  12.237  13.469   9.384
16565SOL    HW251593  12.272  13.502   9.241
16566SOL     OW51594   0.393   5.629   7.767
16566SOL    HW151595   0.423   5.579   7.691
16566SOL    HW251596   0.313   5.672   7.737
16567SOL     OW51597   0.168  13.659   7.576
16567SOL    HW151598   0.103  13.696   7.635
16567SOL    HW251599   0.247  13.711   7.592
16568SOL     OW51600  10.042  10.394   8.579
16568SOL    HW151601  10.043  10.298   8.578
16568SOL    HW251602  10.044  10.417   8.672
16569SOL     OW51603   1.974   0.437   6.237
16569SOL    HW151604   1.882   0.416   6.216
16569SOL    HW251605   2.008   0.478   6.157
16570SOL     OW51606  11.519   5.248   6.419
16570SOL    HW151607  11.432   5.252   6.459
16570SOL    HW251608  11.576   5.295   6.480
16571SOL     OW51609   6.687   7.134  13.039
16571SOL    HW151610   6.675   7.206  13.101
16571SOL    HW251611   6.780   7.137  13.017
16572SOL     OW51612   0.820   2.897  12.073
16572SOL    HW151613   0.802   2.988  12.048
16572SOL    HW251614   0.753   2.846  12.029
16573SOL     OW51615  13.633   5.130   1.904
16573SOL    HW151616  13.630   5.168   1.993
16573SOL    HW251617  13.721   5.152   1.873
16574SOL     OW51618   3.252   2.676  11.197
16574SOL    HW151619   3.176   2.730  11.215
16574SOL    HW251620   3.320   2.710  11.257
16575SOL     OW51621  10.305  13.518   3.089
16575SOL    HW151622  10.249  13.594   3.075
16575SOL    HW251623  10.291  13.493   3.180
16576SOL     OW51624   7.737   0.880  13.888
16576SOL    HW151625   7.805   0.847  13.946
16576SOL    HW251626   7.675   0.924  13.946
16577SOL     OW51627  14.641   1.405   2.019
16577SOL    HW151628  14.670   1.326   2.065
16577SOL    HW251629  14.665   1.477   2.077
16578SOL     OW51630   0.935   2.326   4.002
16578SOL    HW151631   0.875   2.370   3.941
16578SOL    HW251632   0.932   2.234   3.976
16579SOL     OW51633  10.121  11.183  13.632
16579SOL    HW151634  10.189  11.126  13.597
16579SOL    HW251635  10.057  11.191  13.561
16580SOL     OW51636   7.302   1.699   2.392
16580SOL    HW151637   7.277   1.640   2.321
16580SOL    HW251638   7.365   1.649   2.444
16581SOL     OW51639   9.072   7.497   8.426
16581SOL    HW151640   9.138   7.450   8.477
16581SOL    HW251641   9.076   7.587   8.459
16582SOL     OW51642   2.941  12.327   7.838
16582SOL    HW151643   2.851  12.347   7.811
16582SOL    HW251644   2.969  12.257   7.779
16583SOL     OW51645   9.948   9.446   2.853
16583SOL    HW151646  10.014   9.516   2.855
16583SOL    HW251647   9.877   9.482   2.800
16584SOL     OW51648   7.393   8.337   9.007
16584SOL    HW151649   7.467   8.277   8.997
16584SOL    HW251650   7.434   8.421   9.026
16585SOL     OW51651   8.740  14.749  10.643
16585SOL    HW151652   8.749  14.812  10.714
16585SOL    HW251653   8.665  14.695  10.667
16586SOL     OW51654  14.365   9.008  10.753
16586SOL    HW151655  14.355   8.960  10.670
16586SOL    HW251656  14.442   9.062  10.739
16587SOL     OW51657   8.119   6.582  10.324
16587SOL    HW151658   8.136   6.676  10.335
16587SOL    HW251659   8.120   6.547  10.413
16588SOL     OW51660  11.174  14.203   7.739
16588SOL    HW151661  11.097  14.204   7.682
16588SOL    HW251662  11.197  14.110   7.746
16589SOL     OW51663   8.615   7.057  14.625
16589SOL    HW151664   8.549   7.028  14.688
16589SOL    HW251665   8.698   7.028  14.664
16590SOL     OW51666  12.283   5.637   1.638
16590SOL    HW151667  12.216   5.606   1.699
16590SOL    HW251668  12.365   5.599   1.671
16591SOL     OW51669   0.127   2.474   4.256
16591SOL    HW151670   0.149   2.456   4.348
16591SOL    HW251671   0.207   2.457   4.208
16592SOL     OW51672   9.531   5.882  12.867
16592SOL    HW151673   9.500   5.792  12.861
16592SOL    HW251674   9.620   5.874  12.903
16593SOL     OW51675  11.831   9.203   5.397
16593SOL    HW151676  11.834   9.264   5.471
16593SOL    HW251677  11.748   9.156   5.408
16594SOL     OW51678   4.421   4.359   9.291
16594SOL    HW151679   4.439   4.296   9.221
16594SOL    HW251680   4.410   4.305   9.369
16595SOL     OW51681  13.418  11.309  13.406
16595SOL    HW151682  13.406  11.372  13.477
16595SOL    HW251683  13.425  11.224  13.450
16596SOL     OW51684   6.380   8.331   7.017
16596SOL    HW151685   6.430   8.269   7.070
16596SOL    HW251686   6.443   8.366   6.954
16597SOL     OW51687   7.434   6.042   7.627
16597SOL    HW151688   7.380   5.964   7.618
16597SOL    HW251689   7.451   6.071   7.538
16598SOL     OW51690   7.165   3.210   5.268
16598SOL    HW151691   7.253   3.175   5.280
16598SOL    HW251692   7.113   3.166   5.335
16599SOL     OW51693  13.663   4.472   2.001
16599SOL    HW151694  13.598   4.495   2.067
16599SOL    HW251695  13.616   4.475   1.918
16600SOL     OW51696   7.283   0.544  14.383
16600SOL    HW151697   7.266   0.615  14.321
16600SOL    HW251698   7.294   0.588  14.467
16601SOL     OW51699   6.531  11.642   0.481
16601SOL    HW151700   6.529  11.578   0.552
16601SOL    HW251701   6.496  11.722   0.519
16602SOL     OW51702   7.338   6.522  10.962
16602SOL    HW151703   7.361   6.616  10.961
16602SOL    HW251704   7.244   6.520  10.979
16603SOL     OW51705   9.680   1.288   9.858
16603SOL    HW151706   9.763   1.301   9.811
16603SOL    HW251707   9.615   1.332   9.804
16604SOL     OW51708  13.861  12.704  14.241
16604SOL    HW151709  13.938  12.746  14.280
16604SOL    HW251710  13.814  12.668  14.316
16605SOL     OW51711  13.674   8.128   7.816
16605SOL    HW151712  13.673   8.044   7.862
16605SOL    HW251713  13.632   8.109   7.731
16606SOL     OW51714   5.171   5.559  10.633
16606SOL    HW151715   5.176   5.565  10.729
16606SOL    HW251716   5.197   5.469  10.614
16607SOL     OW51717   3.722   9.926  11.968
16607SOL    HW151718   3.815   9.934  11.948
16607SOL    HW251719   3.717   9.939  12.063
16608SOL     OW51720   8.456  12.412  10.351
16608SOL    HW151721   8.484  12.352  10.420
16608SOL    HW251722   8.449  12.357  10.273
16609SOL     OW51723  13.289   3.237   1.547
16609SOL    HW151724  13.317   3.324   1.578
16609SOL    HW251725  13.257   3.252   1.458
16610SOL     OW51726  11.292   8.951   4.907
16610SOL    HW151727  11.371   8.988   4.946
16610SOL    HW251728  11.260   8.889   4.973
16611SOL     OW51729   3.431   3.328   1.789
16611SOL    HW151730   3.349   3.345   1.835
16611SOL    HW251731   3.475   3.414   1.786
16612SOL     OW51732   8.932   1.599  11.647
16612SOL    HW151733   9.003   1.557  11.696
16612SOL    HW251734   8.912   1.538  11.576
16613SOL     OW51735  14.769  10.689   6.745
16613SOL    HW151736  14.801  10.764   6.793
16613SOL    HW251737  14.727  10.726   6.667
16614SOL     OW51738  14.261  12.910  13.919
16614SOL    HW151739  14.213  12.985  13.884
16614SOL    HW251740  14.250  12.842  13.854
16615SOL     OW51741  13.743   9.447   6.199
16615SOL    HW151742  13.726   9.535   6.163
16615SOL    HW251743  13.793   9.403   6.130
16616SOL     OW51744   9.224   1.399   3.291
16616SOL    HW151745   9.163   1.446   3.348
16616SOL    HW251746   9.175   1.323   3.260
16617SOL     OW51747  13.307   3.999   4.124
16617SOL    HW151748  13.368   3.940   4.079
16617SOL    HW251749  13.234   4.008   4.063
16618SOL     OW51750   8.922   4.991   9.537
16618SOL    HW151751   8.892   5.073   9.497
16618SOL    HW251752   9.008   5.012   9.574
16619SOL     OW51753   2.621   7.263   5.436
16619SOL    HW151754   2.583   7.181   5.468
16619SOL    HW251755   2.559   7.330   5.462
16620SOL     OW51756   6.551  10.527   1.415
16620SOL    HW151757   6.633  10.479   1.419
16620SOL    HW251758   6.576  10.619   1.412
16621SOL     OW51759   7.207   8.689  13.407
16621SOL    HW151760   7.113   8.699  13.392
16621SOL    HW251761   7.246   8.766  13.367
16622SOL     OW51762  10.144   1.061   1.212
16622SOL    HW151763  10.100   1.102   1.287
16622SOL    HW251764  10.224   1.023   1.250
16623SOL     OW51765  14.206  14.610   9.242
16623SOL    HW151766  14.113  14.599   9.219
16623SOL    HW251767  14.212  14.700   9.275
16624SOL     OW51768   4.232   7.323  10.980
16624SOL    HW151769   4.259   7.318  11.072
16624SOL    HW251770   4.214   7.232  10.956
16625SOL     OW51771  12.178   4.378   8.607
16625SOL    HW151772  12.104   4.336   8.564
16625SOL    HW251773  12.173   4.469   8.579
16626SOL     OW51774   2.122   3.918   0.588
16626SOL    HW151775   2.208   3.881   0.610
16626SOL    HW251776   2.063   3.843   0.587
16627SOL     OW51777   9.153   4.419  13.025
16627SOL    HW151778   9.202   4.342  13.057
16627SOL    HW251779   9.207   4.493  13.051
16628SOL     OW51780  14.205   9.930   9.010
16628SOL    HW151781  14.295   9.961   9.019
16628SOL    HW251782  14.177   9.963   8.924
16629SOL     OW51783   8.216   3.666   9.545
16629SOL    HW151784   8.306   3.640   9.524
16629SOL    HW251785   8.161   3.610   9.491
16630SOL     OW51786  12.233   1.466  12.237
16630SOL    HW151787  12.250   1.372  12.249
16630SOL    HW251788  12.222   1.477  12.143
16631SOL     OW51789   5.373   5.564  10.902
16631SOL    HW151790   5.452   5.607  10.869
16631SOL    HW251791   5.374   5.478  10.860
16632SOL     OW51792   6.332   1.159  10.640
16632SOL    HW151793   6.294   1.074  10.621
16632SOL    HW251794   6.317   1.172  10.734
16633SOL     OW51795   1.860  13.307   7.669
16633SOL    HW151796   1.847  13.219   7.705
16633SOL    HW251797   1.952  13.308   7.642
16634SOL     OW51798  13.699  10.731   4.474
16634SOL    HW151799  13.627  10.676   4.443
16634SOL    HW251800  13.668  10.820   4.460
16635SOL     OW51801  10.276   2.812   2.950
16635SOL    HW151802  10.276   2.904   2.973
16635SOL    HW251803  10.364   2.782   2.972
16636SOL     OW51804   3.109  13.200  11.478
16636SOL    HW151805   3.165  13.249  11.417
16636SOL    HW251806   3.022  13.205  11.438
16637SOL     OW51807   3.898  13.381  11.426
16637SOL    HW151808   3.828  13.437  11.459
16637SOL    HW251809   3.930  13.427  11.348
16638SOL     OW51810   1.764   4.827   2.577
16638SOL    HW151811   1.808   4.742   2.575
16638SOL    HW251812   1.678   4.811   2.538
16639SOL     OW51813   8.927   1.487   7.420
16639SOL    HW151814   8.873   1.566   7.413
16639SOL    HW251815   8.941   1.476   7.514
16640SOL     OW51816   8.201   1.218   5.841
16640SOL    HW151817   8.235   1.265   5.917
16640SOL    HW251818   8.258   1.141   5.833
16641SOL     OW51819   5.049   4.260  14.456
16641SOL    HW151820   5.121   4.301  14.504
16641SOL    HW251821   5.087   4.239  14.370
16642SOL     OW51822  11.464  13.254   4.839
16642SOL    HW151823  11.413  13.273   4.761
16642SOL    HW251824  11.402  13.213   4.899
16643SOL     OW51825  11.620   6.816   8.862
16643SOL    HW151826  11.598   6.845   8.950
16643SOL    HW251827  11.645   6.896   8.816
16644SOL     OW51828   2.078   9.525  14.034
16644SOL    HW151829   1.994   9.521  13.989
16644SOL    HW251830   2.134   9.575  13.974
16645SOL     OW51831  14.189   4.530  11.880
16645SOL    HW151832  14.256   4.558  11.942
16645SOL    HW251833  14.107   4.539  11.928
16646SOL     OW51834   4.614   9.387   0.657
16646SOL    HW151835   4.639   9.308   0.705
16646SOL    HW251836   4.591   9.356   0.570
16647SOL     OW51837  12.072  13.598   8.038
16647SOL    HW151838  12.069  13.539   8.114
16647SOL    HW251839  12.015  13.556   7.974
16648SOL     OW51840   8.485  13.045  13.805
16648SOL    HW151841   8.511  13.114  13.867
16648SOL    HW251842   8.521  13.073  13.721
16649SOL     OW51843   5.807   6.504   9.152
16649SOL    HW151844   5.742   6.481   9.086
16649SOL    HW251845   5.779   6.458   9.231
16650SOL     OW51846   3.991  13.048  12.630
16650SOL    HW151847   3.983  13.077  12.540
16650SOL    HW251848   3.975  13.126  12.683
16651SOL     OW51849   4.968  11.248   6.062
16651SOL    HW151850   5.045  11.239   6.118
16651SOL    HW251851   4.912  11.312   6.107
16652SOL     OW51852   6.706   0.473   1.047
16652SOL    HW151853   6.680   0.541   1.110
16652SOL    HW251854   6.758   0.412   1.099
16653SOL     OW51855  12.470  11.574  13.659
16653SOL    HW151856  12.515  11.502  13.616
16653SOL    HW251857  12.429  11.623  13.587
16654SOL     OW51858   9.691  11.925   7.754
16654SOL    HW151859   9.755  11.948   7.822
16654SOL    HW251860   9.628  11.868   7.799
16655SOL     OW51861   4.016   1.682   7.609
16655SOL    HW151862   4.006   1.766   7.654
16655SOL    HW251863   3.948   1.627   7.647
16656SOL     OW51864   6.712   0.319   2.540
16656SOL    HW151865   6.676   0.388   2.485
16656SOL    HW251866   6.803   0.343   2.553
16657SOL     OW51867   5.552  11.904   8.751
16657SOL    HW151868   5.489  11.948   8.694
16657SOL    HW251869   5.637  11.939   8.724
16658SOL     OW51870   7.372   8.797   4.025
16658SOL    HW151871   7.325   8.787   3.942
16658SOL    HW251872   7.464   8.810   3.999
16659SOL     OW51873   0.492   7.354   8.076
16659SOL    HW151874   0.501   7.430   8.018
16659SOL    HW251875   0.402   7.359   8.109
16660SOL     OW51876  11.801  14.050   1.840
16660SOL    HW151877  11.866  14.106   1.797
16660SOL    HW251878  11.718  14.094   1.825
16661SOL     OW51879   2.796   8.006   8.576
16661SOL    HW151880   2.837   7.929   8.617
16661SOL    HW251881   2.855   8.029   8.505
16662SOL     OW51882   0.236   5.017   9.763
16662SOL    HW151883   0.249   5.045   9.673
16662SOL    HW251884   0.173   4.944   9.757
16663SOL     OW51885  11.031  11.632  13.541
16663SOL    HW151886  11.113  11.583  13.541
16663SOL    HW251887  11.056  11.722  13.521
16664SOL     OW51888  12.904   1.052   4.343
16664SOL    HW151889  12.927   1.056   4.436
16664SOL    HW251890  12.815   1.087   4.340
16665SOL     OW51891   8.169   5.302   7.947
16665SOL    HW151892   8.135   5.228   7.896
16665SOL    HW251893   8.109   5.309   8.021
16666SOL     OW51894   9.334   0.288   4.176
16666SOL    HW151895   9.309   0.231   4.103
16666SOL    HW251896   9.425   0.311   4.158
16667SOL     OW51897   3.572  10.797   4.035
16667SOL    HW151898   3.486  10.836   4.048
16667SOL    HW251899   3.605  10.780   4.123
16668SOL     OW51900  14.546   6.845  14.176
16668SOL    HW151901  14.505   6.915  14.126
16668SOL    HW251902  14.516   6.858  14.266
16669SOL     OW51903   7.205  13.700   5.227
16669SOL    HW151904   7.199  13.783   5.274
16669SOL    HW251905   7.116  13.663   5.231
16670SOL     OW51906   2.400   4.243  12.388
16670SOL    HW151907   2.312   4.267  12.358
16670SOL    HW251908   2.425   4.313  12.447
16671SOL     OW51909   0.138  13.568   9.733
16671SOL    HW151910   0.099  13.579   9.646
16671SOL    HW251911   0.099  13.487   9.766
16672SOL     OW51912  13.739   1.421   4.468
16672SOL    HW151913  13.666   1.481   4.482
16672SOL    HW251914  13.756   1.425   4.374
16673SOL     OW51915  14.388   5.951   9.985
16673SOL    HW151916  14.313   5.892   9.984
16673SOL    HW251917  14.410   5.961  10.078
16674SOL     OW51918   4.003  10.480   3.909
16674SOL    HW151919   4.000  10.575   3.922
16674SOL    HW251920   4.034  10.469   3.819
16675SOL     OW51921   6.564   4.787   6.022
16675SOL    HW151922   6.483   4.827   6.053
16675SOL    HW251923   6.591   4.840   5.947
16676SOL     OW51924   9.850   3.986   5.943
16676SOL    HW151925   9.773   4.038   5.919
16676SOL    HW251926   9.874   3.941   5.863
16677SOL     OW51927   5.419  10.141   1.107
16677SOL    HW151928   5.419  10.213   1.169
16677SOL    HW251929   5.476  10.075   1.147
16678SOL     OW51930   0.161  10.303  12.715
16678SOL    HW151931   0.227  10.366  12.687
16678SOL    HW251932   0.118  10.276  12.634
16679SOL     OW51933   9.700  13.171  10.213
16679SOL    HW151934   9.709  13.256  10.257
16679SOL    HW251935   9.669  13.193  10.125
16680SOL     OW51936  10.814   3.032   3.330
16680SOL    HW151937  10.845   2.945   3.307
16680SOL    HW251938  10.759   3.019   3.407
16681SOL     OW51939  12.866  13.731  13.029
16681SOL    HW151940  12.771  13.734  13.042
16681SOL    HW251941  12.903  13.748  13.115
16682SOL     OW51942   2.347  13.160   3.578
16682SOL    HW151943   2.360  13.071   3.545
16682SOL    HW251944   2.406  13.214   3.526
16683SOL     OW51945   3.210   9.206  14.591
16683SOL    HW151946   3.132   9.170  14.635
16683SOL    HW251947   3.195   9.300  14.589
16684SOL     OW51948   8.569   2.585   7.178
16684SOL    HW151949   8.642   2.578   7.116
16684SOL    HW251950   8.558   2.496   7.211
16685SOL     OW51951   6.653   0.151  13.711
16685SOL    HW151952   6.595   0.091  13.758
16685SOL    HW251953   6.704   0.195  13.779
16686SOL     OW51954   6.182  14.765   5.480
16686SOL    HW151955   6.243  14.702   5.518
16686SOL    HW251956   6.146  14.721   5.403
16687SOL     OW51957  14.399  11.228   9.200
16687SOL    HW151958  14.436  11.206   9.285
16687SOL    HW251959  14.392  11.145   9.154
16688SOL     OW51960   2.334  13.799   2.375
16688SOL    HW151961   2.268  13.845   2.323
16688SOL    HW251962   2.343  13.852   2.454
16689SOL     OW51963  11.903  10.308   8.104
16689SOL    HW151964  11.925  10.240   8.041
16689SOL    HW251965  11.843  10.265   8.166
16690SOL     OW51966   9.822  12.908   2.973
16690SOL    HW151967   9.831  12.968   3.047
16690SOL    HW251968   9.836  12.821   3.011
16691SOL     OW51969   1.877   5.916   0.099
16691SOL    HW151970   1.885   6.001   0.141
16691SOL    HW251971   1.966   5.894   0.069
16692SOL     OW51972  10.981   8.998   7.204
16692SOL    HW151973  10.942   9.085   7.203
16692SOL    HW251974  10.992   8.978   7.297
16693SOL     OW51975   8.848   7.133   3.539
16693SOL    HW151976   8.930   7.135   3.490
16693SOL    HW251977   8.873   7.109   3.628
16694SOL     OW51978   9.981  11.360   5.427
16694SOL    HW151979   9.989  11.445   5.385
16694SOL    HW251980   9.887  11.342   5.429
16695SOL     OW51981  10.552   2.788   4.727
16695SOL    HW151982  10.567   2.867   4.778
16695SOL    HW251983  10.480   2.744   4.772
16696SOL     OW51984  12.350  10.085  11.440
16696SOL    HW151985  12.257  10.068  11.430
16696SOL    HW251986  12.355  10.153  11.507
16697SOL     OW51987   8.410   3.982   0.980
16697SOL    HW151988   8.438   3.937   1.060
16697SOL    HW251989   8.362   3.915   0.931
16698SOL     OW51990  10.533  13.957   1.563
16698SOL    HW151991  10.616  13.982   1.521
16698SOL    HW251992  10.478  13.927   1.492
16699SOL     OW51993  12.648   1.663   0.301
16699SOL    HW151994  12.569   1.701   0.264
16699SOL    HW251995  12.718   1.690   0.242
16700SOL     OW51996   4.059   8.151   4.051
16700SOL    HW151997   4.046   8.238   4.012
16700SOL    HW251998   4.151   8.149   4.075
16701SOL     OW51999   8.042   9.661   6.981
16701SOL    HW152000   8.066   9.575   6.947
16701SOL    HW252001   7.951   9.652   7.008
16702SOL     OW52002   1.265  11.860   8.336
16702SOL    HW152003   1.193  11.828   8.391
16702SOL    HW252004   1.323  11.907   8.397
16703SOL     OW52005  11.831   0.658   2.926
16703SOL    HW152006  11.918   0.694   2.910
16703SOL    HW252007  11.794   0.647   2.838
16704SOL     OW52008  11.075   6.722   8.697
16704SOL    HW152009  10.989   6.762   8.685
16704SOL    HW252010  11.089   6.723   8.791
16705SOL     OW52011   4.865   3.440   3.553
16705SOL    HW152012   4.941   3.490   3.583
16705SOL    HW252013   4.888   3.410   3.465
16706SOL     OW52014   8.892  11.984  13.523
16706SOL    HW152015   8.970  12.040  13.530
16706SOL    HW252016   8.839  12.007  13.599
16707SOL     OW52017   0.534   7.826   8.601
16707SOL    HW152018   0.465   7.770   8.565
16707SOL    HW252019   0.593   7.841   8.528
16708SOL     OW52020   0.126   4.864   1.061
16708SOL    HW152021   0.145   4.775   1.090
16708SOL    HW252022   0.044   4.857   1.013
16709SOL     OW52023   4.017   1.649   9.741
16709SOL    HW152024   4.005   1.741   9.716
16709SOL    HW252025   4.028   1.651   9.836
16710SOL     OW52026   3.126   5.550   1.278
16710SOL    HW152027   3.048   5.564   1.225
16710SOL    HW252028   3.101   5.579   1.366
16711SOL     OW52029  14.086  13.136  12.052
16711SOL    HW152030  14.056  13.225  12.068
16711SOL    HW252031  14.010  13.091  12.015
16712SOL     OW52032  13.270  14.551   0.426
16712SOL    HW152033  13.321  14.604   0.365
16712SOL    HW252034  13.315  14.563   0.510
16713SOL     OW52035  11.739   2.190   6.443
16713SOL    HW152036  11.790   2.115   6.476
16713SOL    HW252037  11.671   2.150   6.390
16714SOL     OW52038  10.426  13.355   2.906
16714SOL    HW152039  10.472  13.283   2.949
16714SOL    HW252040  10.378  13.398   2.977
16715SOL     OW52041   9.112   0.726  14.076
16715SOL    HW152042   9.184   0.789  14.075
16715SOL    HW252043   9.150   0.645  14.045
16716SOL     OW52044  14.693  14.211   4.240
16716SOL    HW152045  14.660  14.279   4.180
16716SOL    HW252046  14.642  14.222   4.319
16717SOL     OW52047   1.222   3.569   4.423
16717SOL    HW152048   1.283   3.498   4.405
16717SOL    HW252049   1.261   3.616   4.496
16718SOL     OW52050  10.057   5.321   8.884
16718SOL    HW152051   9.964   5.318   8.902
16718SOL    HW252052  10.065   5.383   8.811
16719SOL     OW52053   5.600   8.591   9.588
16719SOL    HW152054   5.685   8.636   9.590
16719SOL    HW252055   5.593   8.550   9.674
16720SOL     OW52056   8.982  14.602   4.631
16720SOL    HW152057   9.020  14.568   4.711
16720SOL    HW252058   8.978  14.526   4.572
16721SOL     OW52059  11.958   5.119   7.769
16721SOL    HW152060  11.899   5.051   7.737
16721SOL    HW252061  12.045   5.080   7.762
16722SOL     OW52062   8.822  13.500  13.003
16722SOL    HW152063   8.908  13.467  13.025
16722SOL    HW252064   8.761  13.437  13.041
16723SOL     OW52065   6.719   6.679   7.662
16723SOL    HW152066   6.719   6.583   7.668
16723SOL    HW252067   6.643   6.706   7.714
16724SOL     OW52068   8.931   8.687   5.794
16724SOL    HW152069   8.852   8.648   5.757
16724SOL    HW252070   8.955   8.756   5.733
16725SOL     OW52071   9.249   5.407  11.015
16725SOL    HW152072   9.231   5.335  10.956
16725SOL    HW252073   9.208   5.483  10.973
16726SOL     OW52074   2.781  10.369  11.162
16726SOL    HW152075   2.711  10.304  11.167
16726SOL    HW252076   2.754  10.429  11.092
16727SOL     OW52077   3.522   8.174   9.543
16727SOL    HW152078   3.567   8.257   9.553
16727SOL    HW252079   3.520   8.137   9.631
16728SOL     OW52080   9.274  10.278   4.519
16728SOL    HW152081   9.315  10.346   4.465
16728SOL    HW252082   9.196  10.252   4.471
16729SOL     OW52083   4.827   4.182   7.762
16729SOL    HW152084   4.876   4.114   7.808
16729SOL    HW252085   4.753   4.136   7.723
16730SOL     OW52086  12.307  11.609   2.038
16730SOL    HW152087  12.258  11.674   2.089
16730SOL    HW252088  12.399  11.623   2.062
16731SOL     OW52089  13.077  13.833  11.266
16731SOL    HW152090  12.985  13.827  11.238
16731SOL    HW252091  13.106  13.920  11.237
16732SOL     OW52092   0.478   2.937   1.564
16732SOL    HW152093   0.441   2.849   1.577
16732SOL    HW252094   0.564   2.933   1.607
16733SOL     OW52095   8.488   8.437   4.739
16733SOL    HW152096   8.446   8.432   4.653
16733SOL    HW252097   8.504   8.346   4.764
16734SOL     OW52098   6.357   5.705  12.993
16734SOL    HW152099   6.401   5.790  12.992
16734SOL    HW252100   6.303   5.707  13.071
16735SOL     OW52101   3.480   8.655  12.021
16735SOL    HW152102   3.408   8.684  12.077
16735SOL    HW252103   3.513   8.736  11.982
16736SOL     OW52104  14.610   1.026   9.197
16736SOL    HW152105  14.540   1.011   9.132
16736SOL    HW252106  14.610   0.947   9.251
16737SOL     OW52107   9.388   1.635   9.739
16737SOL    HW152108   9.364   1.677   9.821
16737SOL    HW252109   9.410   1.545   9.763
16738SOL     OW52110   6.510   0.093   9.371
16738SOL    HW152111   6.478   0.112   9.459
16738SOL    HW252112   6.538   0.178   9.337
16739SOL     OW52113   0.038   5.561   2.341
16739SOL    HW152114   0.001   5.610   2.415
16739SOL    HW252115  14.855   5.493   2.323
16740SOL     OW52116   6.092   0.487   8.929
16740SOL    HW152117   6.042   0.564   8.902
16740SOL    HW252118   6.113   0.504   9.021
16741SOL     OW52119   7.783   2.001  12.297
16741SOL    HW152120   7.769   1.958  12.212
16741SOL    HW252121   7.812   2.089  12.275
16742SOL     OW52122  13.105   1.422  11.897
16742SOL    HW152123  13.123   1.467  11.979
16742SOL    HW252124  13.057   1.344  11.923
16743SOL     OW52125  10.781   1.400   0.812
16743SOL    HW152126  10.826   1.360   0.886
16743SOL    HW252127  10.717   1.459   0.852
16744SOL     OW52128   2.879   1.030   8.479
16744SOL    HW152129   2.864   0.954   8.534
16744SOL    HW252130   2.892   1.102   8.542
16745SOL     OW52131  13.510  11.296  10.673
16745SOL    HW152132  13.437  11.234  10.678
16745SOL    HW252133  13.536  11.294  10.581
16746SOL     OW52134   7.316  13.253   9.638
16746SOL    HW152135   7.230  13.241   9.677
16746SOL    HW252136   7.335  13.346   9.650
16747SOL     OW52137   9.016   4.554  10.547
16747SOL    HW152138   9.092   4.608  10.568
16747SOL    HW252139   9.017   4.547  10.452
16748SOL     OW52140  10.136  14.051  10.206
16748SOL    HW152141  10.160  13.962  10.232
16748SOL    HW252142  10.219  14.094  10.187
16749SOL     OW52143   6.928   5.826  12.255
16749SOL    HW152144   6.988   5.807  12.182
16749SOL    HW252145   6.927   5.922  12.260
16750SOL     OW52146   1.113   6.882   4.130
16750SOL    HW152147   1.176   6.934   4.179
16750SOL    HW252148   1.076   6.821   4.194
16751SOL     OW52149   5.328  12.923  13.870
16751SOL    HW152150   5.286  12.952  13.952
16751SOL    HW252151   5.288  12.977  13.802
16752SOL     OW52152  11.413  13.134   1.154
16752SOL    HW152153  11.377  13.115   1.067
16752SOL    HW252154  11.422  13.048   1.195
16753SOL     OW52155   5.502   0.675  11.337
16753SOL    HW152156   5.492   0.767  11.360
16753SOL    HW252157   5.574   0.644  11.392
16754SOL     OW52158   5.502   7.523   8.190
16754SOL    HW152159   5.491   7.598   8.249
16754SOL    HW252160   5.470   7.555   8.106
16755SOL     OW52161   9.873   8.642  10.837
16755SOL    HW152162   9.849   8.550  10.828
16755SOL    HW252163   9.957   8.640  10.884
16756SOL     OW52164  11.881  12.890  14.488
16756SOL    HW152165  11.835  12.806  14.490
16756SOL    HW252166  11.967  12.871  14.527
16757SOL     OW52167   1.966  10.943  14.000
16757SOL    HW152168   1.987  10.867  13.945
16757SOL    HW252169   2.044  10.954  14.055
16758SOL     OW52170   4.220  12.866   6.084
16758SOL    HW152171   4.224  12.778   6.120
16758SOL    HW252172   4.309  12.882   6.051
16759SOL     OW52173   4.032   8.777   4.774
16759SOL    HW152174   4.081   8.857   4.786
16759SOL    HW252175   4.075   8.732   4.701
16760SOL     OW52176   5.461   8.836   9.902
16760SOL    HW152177   5.547   8.797   9.890
16760SOL    HW252178   5.470   8.926   9.869
16761SOL     OW52179   3.048   1.376   1.441
16761SOL    HW152180   3.110   1.357   1.511
16761SOL    HW252181   3.091   1.345   1.361
16762SOL     OW52182   4.900  13.433  12.570
16762SOL    HW152183   4.905  13.376  12.647
16762SOL    HW252184   4.814  13.415  12.533
16763SOL     OW52185  13.599   6.674  13.286
16763SOL    HW152186  13.569   6.702  13.200
16763SOL    HW252187  13.619   6.581  13.276
16764SOL     OW52188   0.049   3.396   6.183
16764SOL    HW152189   0.005   3.355   6.258
16764SOL    HW252190   0.029   3.339   6.109
16765SOL     OW52191  10.295   1.650   0.217
16765SOL    HW152192  10.201   1.645   0.204
16765SOL    HW252193  10.327   1.704   0.144
16766SOL     OW52194  10.695   5.510  12.793
16766SOL    HW152195  10.697   5.446  12.722
16766SOL    HW252196  10.602   5.534  12.801
16767SOL     OW52197   1.059   8.063  10.264
16767SOL    HW152198   1.009   8.094  10.188
16767SOL    HW252199   1.127   8.007  10.227
16768SOL     OW52200  14.435   3.440  13.463
16768SOL    HW152201  14.353   3.393  13.479
16768SOL    HW252202  14.470   3.401  13.383
16769SOL     OW52203  10.712   1.249   2.410
16769SOL    HW152204  10.742   1.321   2.465
16769SOL    HW252205  10.719   1.171   2.465
16770SOL     OW52206  11.150   9.723   8.870
16770SOL    HW152207  11.063   9.722   8.912
16770SOL    HW252208  11.210   9.742   8.942
16771SOL     OW52209   0.792   0.431   2.854
16771SOL    HW152210   0.862   0.365   2.853
16771SOL    HW252211   0.824   0.500   2.797
16772SOL     OW52212   1.670   5.087  13.160
16772SOL    HW152213   1.678   5.131  13.244
16772SOL    HW252214   1.751   5.108  13.114
16773SOL     OW52215  10.198   4.350  10.935
16773SOL    HW152216  10.242   4.272  10.900
16773SOL    HW252217  10.195   4.411  10.861
16774SOL     OW52218   8.001   6.421   6.779
16774SOL    HW152219   8.039   6.499   6.739
16774SOL    HW252220   8.068   6.353   6.767
16775SOL     OW52221   8.749   5.896  12.096
16775SOL    HW152222   8.773   5.985  12.068
16775SOL    HW252223   8.760   5.897  12.191
16776SOL     OW52224   9.958   0.653   8.442
16776SOL    HW152225   9.936   0.726   8.499
16776SOL    HW252226   9.944   0.575   8.495
16777SOL     OW52227   5.959   8.995  11.168
16777SOL    HW152228   5.997   8.909  11.152
16777SOL    HW252229   6.002   9.052  11.104
16778SOL     OW52230  14.809   1.388  13.611
16778SOL    HW152231   0.012   1.384  13.655
16778SOL    HW252232  14.830   1.400  13.518
16779SOL     OW52233   7.681   3.451  14.332
16779SOL    HW152234   7.758   3.438  14.277
16779SOL    HW252235   7.715   3.492  14.411
16780SOL     OW52236   7.896   7.354   3.640
16780SOL    HW152237   7.959   7.422   3.665
16780SOL    HW252238   7.823   7.403   3.601
16781SOL     OW52239   4.503  11.719   4.967
16781SOL    HW152240   4.458  11.646   4.924
16781SOL    HW252241   4.488  11.704   5.060
16782SOL     OW52242   6.442  14.627   4.514
16782SOL    HW152243   6.378  14.650   4.582
16782SOL    HW252244   6.521  14.675   4.539
16783SOL     OW52245   3.114   0.734   1.684
16783SOL    HW152246   3.047   0.775   1.629
16783SOL    HW252247   3.109   0.781   1.767
16784SOL     OW52248   0.852   5.077   3.684
16784SOL    HW152249   0.800   5.005   3.717
16784SOL    HW252250   0.902   5.108   3.760
16785SOL     OW52251   1.999  12.784  14.435
16785SOL    HW152252   1.954  12.721  14.492
16785SOL    HW252253   1.938  12.857  14.426
16786SOL     OW52254  12.417  11.590   6.857
16786SOL    HW152255  12.487  11.614   6.796
16786SOL    HW252256  12.377  11.512   6.819
16787SOL     OW52257   1.900   6.227   3.303
16787SOL    HW152258   1.875   6.319   3.293
16787SOL    HW252259   1.975   6.230   3.363
16788SOL     OW52260   8.107  14.247   0.942
16788SOL    HW152261   8.034  14.299   0.911
16788SOL    HW252262   8.070  14.161   0.960
16789SOL     OW52263   0.263   9.517   9.300
16789SOL    HW152264   0.252   9.546   9.210
16789SOL    HW252265   0.356   9.529   9.318
16790SOL     OW52266  12.343   0.390  13.224
16790SOL    HW152267  12.281   0.327  13.188
16790SOL    HW252268  12.328   0.470  13.174
16791SOL     OW52269   3.679   8.062   8.121
16791SOL    HW152270   3.658   8.088   8.210
16791SOL    HW252271   3.601   8.015   8.090
16792SOL     OW52272   1.529  12.837   8.817
16792SOL    HW152273   1.451  12.825   8.872
16792SOL    HW252274   1.569  12.750   8.814
16793SOL     OW52275   0.857  13.384   2.794
16793SOL    HW152276   0.882  13.435   2.870
16793SOL    HW252277   0.897  13.298   2.808
16794SOL     OW52278   4.903   4.102   6.432
16794SOL    HW152279   4.818   4.139   6.458
16794SOL    HW252280   4.965   4.175   6.443
16795SOL     OW52281   5.281  12.859   3.495
16795SOL    HW152282   5.377  12.859   3.498
16795SOL    HW252283   5.259  12.826   3.408
16796SOL     OW52284   1.136   0.281  11.915
16796SOL    HW152285   1.225   0.284  11.949
16796SOL    HW252286   1.146   0.271  11.821
16797SOL     OW52287   8.575   4.071  14.457
16797SOL    HW152288   8.571   3.983  14.495
16797SOL    HW252289   8.539   4.060  14.368
16798SOL     OW52290  12.123   6.101  11.268
16798SOL    HW152291  12.190   6.122  11.203
16798SOL    HW252292  12.066   6.037  11.225
16799SOL     OW52293   2.625  10.247   7.464
16799SOL    HW152294   2.645  10.181   7.397
16799SOL    HW252295   2.694  10.313   7.454
16800SOL     OW52296  11.662   0.518   9.598
16800SOL    HW152297  11.704   0.465   9.530
16800SOL    HW252298  11.671   0.608   9.567
16801SOL     OW52299   1.419   3.007  12.458
16801SOL    HW152300   1.409   2.912  12.448
16801SOL    HW252301   1.469   3.034  12.381
16802SOL     OW52302  14.419   4.639   6.965
16802SOL    HW152303  14.343   4.680   7.006
16802SOL    HW252304  14.490   4.702   6.976
16803SOL     OW52305  14.531  12.053  12.223
16803SOL    HW152306  14.563  11.964  12.236
16803SOL    HW252307  14.608  12.102  12.195
16804SOL     OW52308   5.473  13.251   3.961
16804SOL    HW152309   5.541  13.216   4.017
16804SOL    HW252310   5.503  13.339   3.937
16805SOL     OW52311   6.249  13.407   5.427
16805SOL    HW152312   6.209  13.378   5.345
16805SOL    HW252313   6.339  13.428   5.405
16806SOL     OW52314  14.586  13.131   3.667
16806SOL    HW152315  14.507  13.081   3.689
16806SOL    HW252316  14.643  13.122   3.743
16807SOL     OW52317  12.992  12.805  12.180
16807SOL    HW152318  12.985  12.727  12.235
16807SOL    HW252319  12.924  12.864  12.212
16808SOL     OW52320   6.127  13.368   4.223
16808SOL    HW152321   6.205  13.316   4.207
16808SOL    HW252322   6.064  13.337   4.158
16809SOL     OW52323   3.430  13.830   2.454
16809SOL    HW152324   3.448  13.913   2.409
16809SOL    HW252325   3.504  13.774   2.432
16810SOL     OW52326   4.529  14.385   6.846
16810SOL    HW152327   4.624  14.392   6.852
16810SOL    HW252328   4.512  14.291   6.846
16811SOL     OW52329  13.146   0.606   2.236
16811SOL    HW152330  13.076   0.544   2.220
16811SOL    HW252331  13.108   0.671   2.296
16812SOL     OW52332  14.543  14.295   7.296
16812SOL    HW152333  14.476  14.276   7.361
16812SOL    HW252334  14.556  14.390   7.303
16813SOL     OW52335   6.171  11.819   0.936
16813SOL    HW152336   6.080  11.848   0.943
16813SOL    HW252337   6.185  11.766   1.015
16814SOL     OW52338   8.836   1.988   7.880
16814SOL    HW152339   8.752   1.972   7.836
16814SOL    HW252340   8.848   1.911   7.936
16815SOL     OW52341  14.446   5.683   5.424
16815SOL    HW152342  14.366   5.642   5.390
16815SOL    HW252343  14.417   5.730   5.503
16816SOL     OW52344   7.565   4.954   2.404
16816SOL    HW152345   7.498   5.011   2.441
16816SOL    HW252346   7.516   4.877   2.375
16817SOL     OW52347   7.910  11.791  12.856
16817SOL    HW152348   7.987  11.772  12.909
16817SOL    HW252349   7.900  11.886  12.861
16818SOL     OW52350  14.592  14.258   1.166
16818SOL    HW152351  14.612  14.330   1.226
16818SOL    HW252352  14.526  14.295   1.107
16819SOL     OW52353   9.026  14.110  10.709
16819SOL    HW152354   8.966  14.044  10.746
16819SOL    HW252355   9.078  14.062  10.645
16820SOL     OW52356   2.369   7.448   0.874
16820SOL    HW152357   2.315   7.432   0.951
16820SOL    HW252358   2.416   7.366   0.860
16821SOL     OW52359   5.896   9.738   0.717
16821SOL    HW152360   5.982   9.711   0.684
16821SOL    HW252361   5.886   9.692   0.800
16822SOL     OW52362  11.456   5.791   4.007
16822SOL    HW152363  11.493   5.708   4.037
16822SOL    HW252364  11.384   5.765   3.948
16823SOL     OW52365   5.890  10.950   9.416
16823SOL    HW152366   5.850  11.037   9.409
16823SOL    HW252367   5.831  10.893   9.366
16824SOL     OW52368   5.809   2.501   8.645
16824SOL    HW152369   5.809   2.416   8.600
16824SOL    HW252370   5.739   2.551   8.603
16825SOL     OW52371   9.870   4.731   2.358
16825SOL    HW152372   9.864   4.710   2.265
16825SOL    HW252373   9.915   4.815   2.361
16826SOL     OW52374   0.254   8.573   5.459
16826SOL    HW152375   0.305   8.561   5.539
16826SOL    HW252376   0.319   8.589   5.390
16827SOL     OW52377   9.881   4.796  10.016
16827SOL    HW152378   9.822   4.816   9.942
16827SOL    HW252379   9.941   4.870  10.019
16828SOL     OW52380   4.891  11.335   7.325
16828SOL    HW152381   4.919  11.246   7.303
16828SOL    HW252382   4.833  11.324   7.400
16829SOL     OW52383   0.735  10.703   6.584
16829SOL    HW152384   0.806  10.642   6.565
16829SOL    HW252385   0.712  10.685   6.675
16830SOL     OW52386   8.204   1.753  11.452
16830SOL    HW152387   8.158   1.809  11.391
16830SOL    HW252388   8.212   1.805  11.532
16831SOL     OW52389   4.479   2.760   7.545
16831SOL    HW152390   4.544   2.783   7.611
16831SOL    HW252391   4.480   2.665   7.541
16832SOL     OW52392   0.355   1.168  10.691
16832SOL    HW152393   0.305   1.249  10.683
16832SOL    HW252394   0.334   1.136  10.778
16833SOL     OW52395   5.131   4.803   2.803
16833SOL    HW152396   5.212   4.756   2.784
16833SOL    HW252397   5.158   4.894   2.811
16834SOL     OW52398  10.612   2.260   3.865
16834SOL    HW152399  10.643   2.172   3.887
16834SOL    HW252400  10.655   2.281   3.783
16835SOL     OW52401   5.204  11.201   5.652
16835SOL    HW152402   5.255  11.282   5.643
16835SOL    HW252403   5.113  11.230   5.645
16836SOL     OW52404  11.385  14.047   8.751
16836SOL    HW152405  11.303  13.998   8.752
16836SOL    HW252406  11.383  14.098   8.833
16837SOL     OW52407   2.989   1.579  10.363
16837SOL    HW152408   2.977   1.655  10.420
16837SOL    HW252409   3.008   1.616  10.277
16838SOL     OW52410   0.713   4.214   8.368
16838SOL    HW152411   0.690   4.154   8.438
16838SOL    HW252412   0.809   4.214   8.367
16839SOL     OW52413   9.531   4.009  13.509
16839SOL    HW152414   9.450   4.046  13.541
16839SOL    HW252415   9.515   3.993  13.415
16840SOL     OW52416  13.602   0.287   3.958
16840SOL    HW152417  13.663   0.223   3.992
16840SOL    HW252418  13.625   0.296   3.866
16841SOL     OW52419   0.288  11.074   6.731
16841SOL    HW152420   0.356  11.071   6.664
16841SOL    HW252421   0.216  11.022   6.695
16842SOL     OW52422   1.210   0.608   0.734
16842SOL    HW152423   1.283   0.632   0.790
16842SOL    HW252424   1.133   0.645   0.777
16843SOL     OW52425   6.749   6.324   4.222
16843SOL    HW152426   6.812   6.342   4.291
16843SOL    HW252427   6.669   6.298   4.269
16844SOL     OW52428   2.597  13.051  12.962
16844SOL    HW152429   2.509  13.059  12.999
16844SOL    HW252430   2.624  12.962  12.981
16845SOL     OW52431   1.445   1.211   2.685
16845SOL    HW152432   1.423   1.224   2.778
16845SOL    HW252433   1.406   1.286   2.640
16846SOL     OW52434   2.270   1.034   0.085
16846SOL    HW152435   2.285   0.973   0.158
16846SOL    HW252436   2.219   0.984   0.022
16847SOL     OW52437  11.566  11.230   8.819
16847SOL    HW152438  11.585  11.296   8.752
16847SOL    HW252439  11.548  11.281   8.898
16848SOL     OW52440   4.015   4.135   6.913
16848SOL    HW152441   4.040   4.219   6.952
16848SOL    HW252442   4.064   4.132   6.830
16849SOL     OW52443  13.564  14.790  10.909
16849SOL    HW152444  13.496  14.791  10.976
16849SOL    HW252445  13.624  14.860  10.935
16850SOL     OW52446   3.905   2.432   4.105
16850SOL    HW152447   3.974   2.401   4.163
16850SOL    HW252448   3.939   2.514   4.070
16851SOL     OW52449   6.366   6.063   5.819
16851SOL    HW152450   6.434   6.030   5.877
16851SOL    HW252451   6.290   6.008   5.838
16852SOL     OW52452   8.136  10.808   9.836
16852SOL    HW152453   8.116  10.804   9.930
16852SOL    HW252454   8.065  10.861   9.799
16853SOL     OW52455   1.985   7.451  11.416
16853SOL    HW152456   2.054   7.431  11.353
16853SOL    HW252457   2.011   7.535  11.455
16854SOL     OW52458   0.389  10.733   2.385
16854SOL    HW152459   0.473  10.688   2.388
16854SOL    HW252460   0.330  10.670   2.343
16855SOL     OW52461   4.869   7.712   6.819
16855SOL    HW152462   4.856   7.806   6.802
16855SOL    HW252463   4.929   7.710   6.893
16856SOL     OW52464  11.573  11.641   1.236
16856SOL    HW152465  11.604  11.570   1.179
16856SOL    HW252466  11.589  11.721   1.185
16857SOL     OW52467   4.172   4.977   1.462
16857SOL    HW152468   4.124   4.937   1.390
16857SOL    HW252469   4.105   5.016   1.518
16858SOL     OW52470  13.342   2.199  10.493
16858SOL    HW152471  13.306   2.279  10.533
16858SOL    HW252472  13.335   2.133  10.561
16859SOL     OW52473  14.304   3.947   4.843
16859SOL    HW152474  14.333   4.032   4.877
16859SOL    HW252475  14.218   3.934   4.881
16860SOL     OW52476   0.256   4.951   8.686
16860SOL    HW152477   0.326   4.910   8.635
16860SOL    HW252478   0.175   4.918   8.646
16861SOL     OW52479  12.192  13.102  13.706
16861SOL    HW152480  12.260  13.159  13.741
16861SOL    HW252481  12.227  13.014  13.716
16862SOL     OW52482   4.407  11.059   9.233
16862SOL    HW152483   4.430  11.020   9.317
16862SOL    HW252484   4.364  11.142   9.256
16863SOL     OW52485   0.343   8.394   1.243
16863SOL    HW152486   0.322   8.302   1.261
16863SOL    HW252487   0.432   8.404   1.276
16864SOL     OW52488   6.249  13.669  10.732
16864SOL    HW152489   6.264  13.726  10.808
16864SOL    HW252490   6.320  13.605  10.736
16865SOL     OW52491  10.275   3.977   6.281
16865SOL    HW152492  10.197   4.024   6.254
16865SOL    HW252493  10.341   4.045   6.293
16866SOL     OW52494  13.647  14.743  11.737
16866SOL    HW152495  13.710  14.804  11.774
16866SOL    HW252496  13.691  14.658  11.739
16867SOL     OW52497   1.256  10.466   4.339
16867SOL    HW152498   1.262  10.562   4.346
16867SOL    HW252499   1.176  10.451   4.288
16868SOL     OW52500  10.182  12.223   7.203
16868SOL    HW152501  10.154  12.291   7.140
16868SOL    HW252502  10.145  12.142   7.168
16869SOL     OW52503   1.196  14.669   6.800
16869SOL    HW152504   1.235  14.732   6.861
16869SOL    HW252505   1.102  14.673   6.820
16870SOL     OW52506  11.400   3.942  11.087
16870SOL    HW152507  11.492   3.916  11.084
16870SOL    HW252508  11.384   3.963  11.179
16871SOL     OW52509  12.455   4.681   1.949
16871SOL    HW152510  12.479   4.771   1.974
16871SOL    HW252511  12.442   4.636   2.033
16872SOL     OW52512   5.026  11.572  13.571
16872SOL    HW152513   5.121  11.560  13.570
16872SOL    HW252514   4.995  11.527  13.492
16873SOL     OW52515  13.317   7.716   5.921
16873SOL    HW152516  13.244   7.666   5.957
16873SOL    HW252517  13.370   7.651   5.876
16874SOL     OW52518   0.405   2.081   2.550
16874SOL    HW152519   0.451   2.161   2.577
16874SOL    HW252520   0.367   2.103   2.464
16875SOL     OW52521  13.690   2.492  14.583
16875SOL    HW152522  13.630   2.425  14.617
16875SOL    HW252523  13.632   2.563  14.555
16876SOL     OW52524   0.862   9.454   8.063
16876SOL    HW152525   0.829   9.543   8.065
16876SOL    HW252526   0.854   9.422   8.153
16877SOL     OW52527  14.697   3.911  11.540
16877SOL    HW152528  14.635   3.843  11.564
16877SOL    HW252529  14.650   3.993  11.555
16878SOL     OW52530  12.580   4.429   4.673
16878SOL    HW152531  12.567   4.504   4.731
16878SOL    HW252532  12.675   4.417   4.670
16879SOL     OW52533   2.345   6.793   4.878
16879SOL    HW152534   2.427   6.843   4.880
16879SOL    HW252535   2.316   6.791   4.969
16880SOL     OW52536  13.252   1.477   7.877
16880SOL    HW152537  13.264   1.518   7.962
16880SOL    HW252538  13.194   1.403   7.893
16881SOL     OW52539   5.571  14.035   8.717
16881SOL    HW152540   5.630  13.960   8.714
16881SOL    HW252541   5.627  14.111   8.700
16882SOL     OW52542  11.551  14.197   8.603
16882SOL    HW152543  11.504  14.133   8.657
16882SOL    HW252544  11.615  14.236   8.662
16883SOL     OW52545  12.381   4.576  12.745
16883SOL    HW152546  12.475   4.568  12.731
16883SOL    HW252547  12.345   4.492  12.718
16884SOL     OW52548   1.390  11.165   6.027
16884SOL    HW152549   1.362  11.076   6.048
16884SOL    HW252550   1.311  11.218   6.032
16885SOL     OW52551  11.719   0.633   0.344
16885SOL    HW152552  11.669   0.685   0.281
16885SOL    HW252553  11.811   0.651   0.322
16886SOL     OW52554   6.570   5.982   5.988
16886SOL    HW152555   6.661   5.960   6.010
16886SOL    HW252556   6.526   5.990   6.073
16887SOL     OW52557   8.239   3.147  10.325
16887SOL    HW152558   8.165   3.089  10.345
16887SOL    HW252559   8.212   3.194  10.246
16888SOL     OW52560  12.314   5.204  11.845
16888SOL    HW152561  12.240   5.264  11.837
16888SOL    HW252562  12.334   5.203  11.938
16889SOL     OW52563   9.252   4.216   8.699
16889SOL    HW152564   9.259   4.265   8.617
16889SOL    HW252565   9.199   4.271   8.756
16890SOL     OW52566  13.123   6.724   7.329
16890SOL    HW152567  13.150   6.800   7.276
16890SOL    HW252568  13.055   6.681   7.277
16891SOL     OW52569  14.081   0.735   6.727
16891SOL    HW152570  14.132   0.659   6.696
16891SOL    HW252571  14.130   0.810   6.694
16892SOL     OW52572   4.971  14.348   2.070
16892SOL    HW152573   4.902  14.298   2.027
16892SOL    HW252574   5.046  14.343   2.011
16893SOL     OW52575   4.514  12.883   2.003
16893SOL    HW152576   4.508  12.973   1.972
16893SOL    HW252577   4.432  12.842   1.973
16894SOL     OW52578  13.830   7.958   1.668
16894SOL    HW152579  13.922   7.984   1.671
16894SOL    HW252580  13.831   7.871   1.629
16895SOL     OW52581   2.272  12.594   2.640
16895SOL    HW152582   2.328  12.596   2.563
16895SOL    HW252583   2.310  12.525   2.695
16896SOL     OW52584   7.053   0.824   3.952
16896SOL    HW152585   7.069   0.919   3.959
16896SOL    HW252586   7.044   0.794   4.042
16897SOL     OW52587  11.682  10.949   8.164
16897SOL    HW152588  11.763  10.907   8.137
16897SOL    HW252589  11.680  11.031   8.114
16898SOL     OW52590   7.883   0.004  13.826
16898SOL    HW152591   7.864   0.047  13.909
16898SOL    HW252592   7.977  14.869  13.828
16899SOL     OW52593   8.089   4.126   5.707
16899SOL    HW152594   8.068   4.040   5.743
16899SOL    HW252595   8.014   4.148   5.652
16900SOL     OW52596   0.283  14.782  13.882
16900SOL    HW152597   0.310  14.714  13.819
16900SOL    HW252598   0.189  14.767  13.895
16901SOL     OW52599   9.143  12.890   7.815
16901SOL    HW152600   9.159  12.968   7.761
16901SOL    HW252601   9.145  12.922   7.905
16902SOL     OW52602   9.746   5.979   4.608
16902SOL    HW152603   9.766   5.980   4.515
16902SOL    HW252604   9.654   5.955   4.613
16903SOL     OW52605   3.890   0.505   9.546
16903SOL    HW152606   3.916   0.419   9.514
16903SOL    HW252607   3.882   0.494   9.640
16904SOL     OW52608   7.833  11.998   7.996
16904SOL    HW152609   7.769  12.012   7.926
16904SOL    HW252610   7.917  12.021   7.957
16905SOL     OW52611   8.606   2.655   9.719
16905SOL    HW152612   8.569   2.737   9.684
16905SOL    HW252613   8.543   2.627   9.785
16906SOL     OW52614  10.257   0.769  13.393
16906SOL    HW152615  10.333   0.806  13.438
16906SOL    HW252616  10.243   0.684  13.433
16907SOL     OW52617  12.422  11.830  12.143
16907SOL    HW152618  12.429  11.741  12.176
16907SOL    HW252619  12.450  11.824  12.051
16908SOL     OW52620   1.570   9.541   5.273
16908SOL    HW152621   1.647   9.500   5.314
16908SOL    HW252622   1.536   9.474   5.214
16909SOL     OW52623   8.659   4.321   7.276
16909SOL    HW152624   8.625   4.269   7.349
16909SOL    HW252625   8.609   4.403   7.281
16910SOL     OW52626   3.645  13.076   1.338
16910SOL    HW152627   3.557  13.046   1.358
16910SOL    HW252628   3.676  13.016   1.269
16911SOL     OW52629  13.180  11.516  10.179
16911SOL    HW152630  13.218  11.524  10.267
16911SOL    HW252631  13.179  11.606  10.146
16912SOL     OW52632  12.060   8.786   9.119
16912SOL    HW152633  12.001   8.818   9.187
16912SOL    HW252634  12.016   8.808   9.036
16913SOL     OW52635  12.597   5.560   9.642
16913SOL    HW152636  12.682   5.562   9.686
16913SOL    HW252637  12.584   5.650   9.610
16914SOL     OW52638   8.099   7.445   0.247
16914SOL    HW152639   8.024   7.389   0.266
16914SOL    HW252640   8.175   7.393   0.274
16915SOL     OW52641   6.523   2.250   5.761
16915SOL    HW152642   6.510   2.274   5.853
16915SOL    HW252643   6.494   2.160   5.755
16916SOL     OW52644   7.704   5.692   6.781
16916SOL    HW152645   7.775   5.628   6.782
16916SOL    HW252646   7.744   5.773   6.813
16917SOL     OW52647   8.250  10.059   0.821
16917SOL    HW152648   8.195  10.036   0.896
16917SOL    HW252649   8.258   9.978   0.771
16918SOL     OW52650   7.788   0.063   4.773
16918SOL    HW152651   7.748   0.023   4.696
16918SOL    HW252652   7.810   0.152   4.745
16919SOL     OW52653   6.332  10.510   7.324
16919SOL    HW152654   6.312  10.483   7.235
16919SOL    HW252655   6.289  10.444   7.379
16920SOL     OW52656   5.775  11.095   9.793
16920SOL    HW152657   5.714  11.091   9.720
16920SOL    HW252658   5.790  11.189   9.806
16921SOL     OW52659   7.398   6.346   5.536
16921SOL    HW152660   7.353   6.289   5.599
16921SOL    HW252661   7.481   6.367   5.578
16922SOL     OW52662  11.011   4.201   9.153
16922SOL    HW152663  10.940   4.184   9.215
16922SOL    HW252664  10.981   4.277   9.103
16923SOL     OW52665  10.116   8.561   1.075
16923SOL    HW152666  10.133   8.475   1.037
16923SOL    HW252667  10.155   8.623   1.013
16924SOL     OW52668   3.453   2.518   3.151
16924SOL    HW152669   3.425   2.500   3.061
16924SOL    HW252670   3.376   2.500   3.204
16925SOL     OW52671   7.162   2.673   6.162
16925SOL    HW152672   7.168   2.578   6.159
16925SOL    HW252673   7.246   2.704   6.130
16926SOL     OW52674   5.717  10.434   3.789
16926SOL    HW152675   5.677  10.375   3.725
16926SOL    HW252676   5.775  10.490   3.738
16927SOL     OW52677   1.289   4.388   2.339
16927SOL    HW152678   1.294   4.384   2.435
16927SOL    HW252679   1.347   4.319   2.308
16928SOL     OW52680  12.376  12.235   0.061
16928SOL    HW152681  12.348  12.189   0.140
16928SOL    HW252682  12.455  12.189   0.033
16929SOL     OW52683  11.224   9.858   1.179
16929SOL    HW152684  11.204   9.933   1.235
16929SOL    HW252685  11.315   9.871   1.154
16930SOL     OW52686   5.059   8.734   9.022
16930SOL    HW152687   5.025   8.767   9.105
16930SOL    HW252688   5.082   8.643   9.041
16931SOL     OW52689  12.226   1.731   5.308
16931SOL    HW152690  12.294   1.705   5.371
16931SOL    HW252691  12.146   1.731   5.360
16932SOL     OW52692   7.916   6.704   5.884
16932SOL    HW152693   7.918   6.794   5.917
16932SOL    HW252694   7.903   6.650   5.962
16933SOL     OW52695   2.607   2.316   4.286
16933SOL    HW152696   2.587   2.357   4.370
16933SOL    HW252697   2.521   2.304   4.245
16934SOL     OW52698   7.472  13.333   4.875
16934SOL    HW152699   7.567  13.317   4.881
16934SOL    HW252700   7.439  13.310   4.962
16935SOL     OW52701   3.888   0.196   6.813
16935SOL    HW152702   3.820   0.130   6.824
16935SOL    HW252703   3.857   0.250   6.740
16936SOL     OW52704   1.413   7.897   5.575
16936SOL    HW152705   1.364   7.865   5.499
16936SOL    HW252706   1.348   7.902   5.645
16937SOL     OW52707   9.303  13.358   2.681
16937SOL    HW152708   9.353  13.283   2.650
16937SOL    HW252709   9.359  13.433   2.663
16938SOL     OW52710   1.538   1.584   8.983
16938SOL    HW152711   1.578   1.667   8.958
16938SOL    HW252712   1.591   1.553   9.057
16939SOL     OW52713   4.316  11.069   8.963
16939SOL    HW152714   4.339  11.053   9.054
16939SOL    HW252715   4.338  11.161   8.948
16940SOL     OW52716  11.105   6.987   7.726
16940SOL    HW152717  11.123   6.966   7.635
16940SOL    HW252718  11.014   7.017   7.726
16941SOL     OW52719  10.859  11.448  12.458
16941SOL    HW152720  10.952  11.459  12.474
16941SOL    HW252721  10.848  11.462  12.364
16942SOL     OW52722   2.267   9.632  12.064
16942SOL    HW152723   2.290   9.626  12.157
16942SOL    HW252724   2.340   9.678  12.024
16943SOL     OW52725  13.908   5.029  11.605
16943SOL    HW152726  13.863   5.076  11.534
16943SOL    HW252727  13.874   5.069  11.685
16944SOL     OW52728   4.397   3.351  10.329
16944SOL    HW152729   4.410   3.257  10.318
16944SOL    HW252730   4.305   3.360  10.354
16945SOL     OW52731   8.102   9.212  11.131
16945SOL    HW152732   8.145   9.127  11.145
16945SOL    HW252733   8.010   9.197  11.155
16946SOL     OW52734   5.064   7.301   4.112
16946SOL    HW152735   5.107   7.327   4.193
16946SOL    HW252736   5.005   7.374   4.092
16947SOL     OW52737   1.445  14.756   2.039
16947SOL    HW152738   1.369  14.800   2.077
16947SOL    HW252739   1.452  14.674   2.089
16948SOL     OW52740  13.686   6.390   9.825
16948SOL    HW152741  13.672   6.351   9.910
16948SOL    HW252742  13.684   6.485   9.841
16949SOL     OW52743   8.096  14.643   9.505
16949SOL    HW152744   8.141  14.707   9.451
16949SOL    HW252745   8.059  14.695   9.577
16950SOL     OW52746   7.344   4.726   4.859
16950SOL    HW152747   7.276   4.690   4.916
16950SOL    HW252748   7.317   4.701   4.771
16951SOL     OW52749  14.285  13.821  10.745
16951SOL    HW152750  14.349  13.854  10.681
16951SOL    HW252751  14.229  13.896  10.764
16952SOL     OW52752  13.692  12.405   2.275
16952SOL    HW152753  13.745  12.443   2.205
16952SOL    HW252754  13.733  12.320   2.293
16953SOL     OW52755   2.009   9.574  13.019
16953SOL    HW152756   1.986   9.483  13.035
16953SOL    HW252757   2.005   9.616  13.105
16954SOL     OW52758  13.822   5.023   9.680
16954SOL    HW152759  13.831   4.928   9.687
16954SOL    HW252760  13.740   5.044   9.725
16955SOL     OW52761  13.770   9.948  10.967
16955SOL    HW152762  13.712   9.884  10.927
16955SOL    HW252763  13.832   9.972  10.898
16956SOL     OW52764   8.213  13.076   9.376
16956SOL    HW152765   8.284  13.048   9.319
16956SOL    HW252766   8.168  12.996   9.400
16957SOL     OW52767   1.301  12.934  11.206
16957SOL    HW152768   1.249  13.000  11.160
16957SOL    HW252769   1.366  12.905  11.141
16958SOL     OW52770   4.834  14.339  14.621
16958SOL    HW152771   4.756  14.289  14.647
16958SOL    HW252772   4.880  14.282  14.559
16959SOL     OW52773  12.357   5.618   4.036
16959SOL    HW152774  12.404   5.595   3.956
16959SOL    HW252775  12.308   5.539   4.059
16960SOL     OW52776   8.425  13.715   6.773
16960SOL    HW152777   8.477  13.783   6.731
16960SOL    HW252778   8.430  13.640   6.713
16961SOL     OW52779  14.644   0.139  11.932
16961SOL    HW152780  14.619   0.047  11.934
16961SOL    HW252781  14.666   0.156  11.840
16962SOL     OW52782   5.143   8.557   7.265
16962SOL    HW152783   5.217   8.617   7.265
16962SOL    HW252784   5.080   8.595   7.327
16963SOL     OW52785  12.095   9.765  13.992
16963SOL    HW152786  12.019   9.768  13.933
16963SOL    HW252787  12.058   9.781  14.079
16964SOL     OW52788  13.903   0.436  11.659
16964SOL    HW152789  13.837   0.368  11.650
16964SOL    HW252790  13.866   0.511  11.612
16965SOL     OW52791  13.043   0.798   4.309
16965SOL    HW152792  13.078   0.782   4.397
16965SOL    HW252793  13.010   0.887   4.312
16966SOL     OW52794   6.281  14.519   5.551
16966SOL    HW152795   6.358  14.495   5.498
16966SOL    HW252796   6.267  14.443   5.608
16967SOL     OW52797   8.009   0.041  12.961
16967SOL    HW152798   7.947  14.857  12.929
16967SOL    HW252799   7.997   0.115  12.902
16968SOL     OW52800  11.593   7.361  13.807
16968SOL    HW152801  11.611   7.276  13.767
16968SOL    HW252802  11.518   7.344  13.864
16969SOL     OW52803   3.591   6.641  12.290
16969SOL    HW152804   3.550   6.622  12.206
16969SOL    HW252805   3.523   6.683  12.341
16970SOL     OW52806   9.420   4.284  10.893
16970SOL    HW152807   9.330   4.313  10.907
16970SOL    HW252808   9.415   4.189  10.890
16971SOL     OW52809  11.877   3.149   8.896
16971SOL    HW152810  11.921   3.073   8.933
16971SOL    HW252811  11.927   3.224   8.928
16972SOL     OW52812   1.121   0.987  10.091
16972SOL    HW152813   1.181   0.939  10.148
16972SOL    HW252814   1.076   1.048  10.150
16973SOL     OW52815   7.592  10.041   7.390
16973SOL    HW152816   7.615  10.057   7.299
16973SOL    HW252817   7.676  10.044   7.436
16974SOL     OW52818   6.585   9.554   0.618
16974SOL    HW152819   6.546   9.502   0.688
16974SOL    HW252820   6.516   9.562   0.552
16975SOL     OW52821  13.941  10.510  12.047
16975SOL    HW152822  13.969  10.471  12.130
16975SOL    HW252823  14.021  10.514  11.994
16976SOL     OW52824  14.803  11.924  10.304
16976SOL    HW152825  14.875  11.969  10.348
16976SOL    HW252826  14.744  11.993  10.275
16977SOL     OW52827  13.751   2.835  12.872
16977SOL    HW152828  13.840   2.863  12.894
16977SOL    HW252829  13.733   2.763  12.933
16978SOL     OW52830  12.828  13.560   9.538
16978SOL    HW152831  12.884  13.520   9.471
16978SOL    HW252832  12.889  13.587   9.607
16979SOL     OW52833  13.256   1.028  10.610
16979SOL    HW152834  13.315   1.041  10.536
16979SOL    HW252835  13.270   0.937  10.636
16980SOL     OW52836  10.740   2.426   2.820
16980SOL    HW152837  10.823   2.392   2.788
16980SOL    HW252838  10.761   2.512   2.856
16981SOL     OW52839   9.116   6.825  11.369
16981SOL    HW152840   9.182   6.790  11.427
16981SOL    HW252841   9.040   6.840  11.425
16982SOL     OW52842   6.207   5.166   0.747
16982SOL    HW152843   6.254   5.249   0.758
16982SOL    HW252844   6.179   5.166   0.655
16983SOL     OW52845   2.872   8.786  12.665
16983SOL    HW152846   2.929   8.798  12.742
16983SOL    HW252847   2.904   8.851  12.602
16984SOL     OW52848   7.389   7.909   9.741
16984SOL    HW152849   7.327   7.871   9.803
16984SOL    HW252850   7.420   7.989   9.783
16985SOL     OW52851  13.264   9.472   4.524
16985SOL    HW152852  13.354   9.440   4.512
16985SOL    HW252853  13.248   9.463   4.618
16986SOL     OW52854   2.127   2.991   6.220
16986SOL    HW152855   2.141   3.034   6.135
16986SOL    HW252856   2.213   2.958   6.244
16987SOL     OW52857  14.579   2.922   2.587
16987SOL    HW152858  14.668   2.924   2.551
16987SOL    HW252859  14.590   2.894   2.677
16988SOL     OW52860   5.346  12.044   3.759
16988SOL    HW152861   5.332  11.952   3.782
16988SOL    HW252862   5.408  12.042   3.687
16989SOL     OW52863   5.003   9.403   0.502
16989SOL    HW152864   4.954   9.413   0.584
16989SOL    HW252865   5.057   9.483   0.497
16990SOL     OW52866  10.014  12.520   5.500
16990SOL    HW152867   9.963  12.439   5.501
16990SOL    HW252868  10.086  12.504   5.562
16991SOL     OW52869   5.848  11.755  12.065
16991SOL    HW152870   5.840  11.686  12.131
16991SOL    HW252871   5.927  11.733  12.017
16992SOL     OW52872   5.159   1.378   4.441
16992SOL    HW152873   5.233   1.413   4.392
16992SOL    HW252874   5.190   1.373   4.531
16993SOL     OW52875   2.172   4.937   7.899
16993SOL    HW152876   2.149   4.845   7.910
16993SOL    HW252877   2.267   4.937   7.885
16994SOL     OW52878   2.992   8.534   8.231
16994SOL    HW152879   2.982   8.586   8.311
16994SOL    HW252880   3.075   8.487   8.243
16995SOL     OW52881   7.270   1.668   9.529
16995SOL    HW152882   7.235   1.652   9.617
16995SOL    HW252883   7.241   1.757   9.507
16996SOL     OW52884   8.251  12.712   6.469
16996SOL    HW152885   8.162  12.747   6.460
16996SOL    HW252886   8.294  12.772   6.530
16997SOL     OW52887  12.141  11.717   3.707
16997SOL    HW152888  12.129  11.792   3.649
16997SOL    HW252889  12.175  11.755   3.789
16998SOL     OW52890  12.575   6.665   8.382
16998SOL    HW152891  12.543   6.744   8.339
16998SOL    HW252892  12.661   6.690   8.417
16999SOL     OW52893   4.196   9.292  12.082
16999SOL    HW152894   4.118   9.334  12.117
16999SOL    HW252895   4.180   9.285  11.988
17000SOL     OW52896   7.001   5.671   6.802
17000SOL    HW152897   7.038   5.642   6.886
17000SOL    HW252898   6.988   5.765   6.814
17001SOL     OW52899  11.205  12.314   8.269
17001SOL    HW152900  11.180  12.226   8.296
17001SOL    HW252901  11.249  12.351   8.346
17002SOL     OW52902   0.697   8.447   0.144
17002SOL    HW152903   0.668   8.458   0.235
17002SOL    HW252904   0.774   8.504   0.137
17003SOL     OW52905   0.681   8.603  13.316
17003SOL    HW152906   0.637   8.594  13.400
17003SOL    HW252907   0.630   8.547  13.257
17004SOL     OW52908   0.473  10.698  13.991
17004SOL    HW152909   0.474  10.791  14.015
17004SOL    HW252910   0.562  10.680  13.962
17005SOL     OW52911  12.132  10.997   9.787
17005SOL    HW152912  12.097  10.932   9.847
17005SOL    HW252913  12.056  11.051   9.763
17006SOL     OW52914   5.367  10.387   6.717
17006SOL    HW152915   5.433  10.402   6.784
17006SOL    HW252916   5.417  10.360   6.640
17007SOL     OW52917  12.122  12.108  14.169
17007SOL    HW152918  12.111  12.092  14.263
17007SOL    HW252919  12.032  12.115  14.136
17008SOL     OW52920   1.171   5.459   1.604
17008SOL    HW152921   1.201   5.427   1.689
17008SOL    HW252922   1.141   5.381   1.558
17009SOL     OW52923  13.397   3.458   0.110
17009SOL    HW152924  13.312   3.482   0.147
17009SOL    HW252925  13.400   3.363   0.118
17010SOL     OW52926   5.475   1.410  11.894
17010SOL    HW152927   5.487   1.429  11.987
17010SOL    HW252928   5.435   1.323  11.893
17011SOL     OW52929  10.457  12.030  11.694
17011SOL    HW152930  10.383  12.058  11.748
17011SOL    HW252931  10.524  12.004  11.757
17012SOL     OW52932  13.230   3.381   9.202
17012SOL    HW152933  13.288   3.453   9.228
17012SOL    HW252934  13.265   3.304   9.246
17013SOL     OW52935  12.196  11.120   7.961
17013SOL    HW152936  12.160  11.033   7.945
17013SOL    HW252937  12.239  11.143   7.879
17014SOL     OW52938   3.995  10.052   1.631
17014SOL    HW152939   4.004  10.069   1.725
17014SOL    HW252940   3.949  10.129   1.597
17015SOL     OW52941  10.432   9.818   0.394
17015SOL    HW152942  10.518   9.790   0.425
17015SOL    HW252943  10.435   9.805   0.299
17016SOL     OW52944   0.927   3.491   0.931
17016SOL    HW152945   0.834   3.511   0.918
17016SOL    HW252946   0.972   3.543   0.865
17017SOL     OW52947   5.962   3.504  14.580
17017SOL    HW152948   5.929   3.579  14.630
17017SOL    HW252949   6.034   3.470  14.633
17018SOL     OW52950   7.334   5.935   3.556
17018SOL    HW152951   7.298   5.953   3.643
17018SOL    HW252952   7.258   5.919   3.501
17019SOL     OW52953   1.204   9.515   6.283
17019SOL    HW152954   1.210   9.424   6.311
17019SOL    HW252955   1.246   9.564   6.354
17020SOL     OW52956  10.206  11.493  10.013
17020SOL    HW152957  10.292  11.524  10.042
17020SOL    HW252958  10.208  11.503   9.918
17021SOL     OW52959   3.809  14.659  13.337
17021SOL    HW152960   3.889  14.636  13.290
17021SOL    HW252961   3.781  14.578  13.379
17022SOL     OW52962   8.518   0.277  12.317
17022SOL    HW152963   8.580   0.334  12.362
17022SOL    HW252964   8.537   0.289  12.224
17023SOL     OW52965   0.569  11.418  12.244
17023SOL    HW152966   0.538  11.440  12.156
17023SOL    HW252967   0.655  11.459  12.251
17024SOL     OW52968  14.467   3.879   0.450
17024SOL    HW152969  14.494   3.913   0.536
17024SOL    HW252970  14.517   3.930   0.387
17025SOL     OW52971   1.858  13.859   0.199
17025SOL    HW152972   1.918  13.915   0.248
17025SOL    HW252973   1.887  13.770   0.216
17026SOL     OW52974   5.771   8.576   8.210
17026SOL    HW152975   5.687   8.546   8.244
17026SOL    HW252976   5.758   8.670   8.195
17027SOL     OW52977   2.953   7.831   3.125
17027SOL    HW152978   2.959   7.855   3.032
17027SOL    HW252979   3.004   7.897   3.171
17028SOL     OW52980   0.829  10.449   2.257
17028SOL    HW152981   0.840  10.475   2.166
17028SOL    HW252982   0.916  10.459   2.296
17029SOL     OW52983   7.162  13.965   9.902
17029SOL    HW152984   7.220  13.906   9.950
17029SOL    HW252985   7.085  13.973   9.960
17030SOL     OW52986   7.786   4.140  11.173
17030SOL    HW152987   7.795   4.111  11.082
17030SOL    HW252988   7.740   4.068  11.216
17031SOL     OW52989  14.584   0.748  10.549
17031SOL    HW152990  14.488   0.746  10.547
17031SOL    HW252991  14.608   0.823  10.495
17032SOL     OW52992   8.273  11.273   4.027
17032SOL    HW152993   8.316  11.358   4.022
17032SOL    HW252994   8.316  11.228   4.100
17033SOL     OW52995   7.911   1.844   1.357
17033SOL    HW152996   7.841   1.789   1.322
17033SOL    HW252997   7.889   1.932   1.328
17034SOL     OW52998  12.526   0.880   4.565
17034SOL    HW152999  12.506   0.857   4.474
17034SOL    HW253000  12.614   0.846   4.580
17035SOL     OW53001   2.324   2.396   2.258
17035SOL    HW153002   2.324   2.359   2.346
17035SOL    HW253003   2.231   2.411   2.239
17036SOL     OW53004  11.929  12.740   3.852
17036SOL    HW153005  11.918  12.828   3.889
17036SOL    HW253006  11.904  12.681   3.924
17037SOL     OW53007  11.643  12.719  10.550
17037SOL    HW153008  11.602  12.742  10.467
17037SOL    HW253009  11.664  12.802  10.592
17038SOL     OW53010   2.088   4.554   4.788
17038SOL    HW153011   2.153   4.512   4.844
17038SOL    HW253012   2.016   4.492   4.784
17039SOL     OW53013   6.068   1.670   3.690
17039SOL    HW153014   6.015   1.671   3.770
17039SOL    HW253015   6.135   1.737   3.705
17040SOL     OW53016   5.813  12.405   5.850
17040SOL    HW153017   5.722  12.432   5.862
17040SOL    HW253018   5.861  12.487   5.839
17041SOL     OW53019  10.495   9.317   9.843
17041SOL    HW153020  10.485   9.222   9.838
17041SOL    HW253021  10.426   9.345   9.903
17042SOL     OW53022  11.144   3.844  11.310
17042SOL    HW153023  11.231   3.879  11.289
17042SOL    HW253024  11.100   3.915  11.355
17043SOL     OW53025   2.594  11.232   1.516
17043SOL    HW153026   2.565  11.241   1.426
17043SOL    HW253027   2.572  11.141   1.539
17044SOL     OW53028  10.849   5.051  11.356
17044SOL    HW153029  10.791   5.044  11.432
17044SOL    HW253030  10.933   5.080  11.392
17045SOL     OW53031  11.851  14.210  11.158
17045SOL    HW153032  11.897  14.222  11.075
17045SOL    HW253033  11.777  14.152  11.137
17046SOL     OW53034   2.380   8.951   6.278
17046SOL    HW153035   2.439   8.877   6.289
17046SOL    HW253036   2.431   9.027   6.307
17047SOL     OW53037   0.321   3.604  12.046
17047SOL    HW153038   0.379   3.680  12.046
17047SOL    HW253039   0.265   3.617  11.970
17048SOL     OW53040   4.530  13.899   8.404
17048SOL    HW153041   4.537  13.922   8.311
17048SOL    HW253042   4.476  13.820   8.404
17049SOL     OW53043  12.010   9.537   8.621
17049SOL    HW153044  11.948   9.463   8.617
17049SOL    HW253045  12.089   9.505   8.577
17050SOL     OW53046   7.718   2.178   7.618
17050SOL    HW153047   7.741   2.114   7.551
17050SOL    HW253048   7.624   2.191   7.608
17051SOL     OW53049  13.163  12.996   2.770
17051SOL    HW153050  13.241  12.996   2.826
17051SOL    HW253051  13.114  12.918   2.798
17052SOL     OW53052   4.770   1.266  14.850
17052SOL    HW153053   4.793   1.259  14.758
17052SOL    HW253054   4.695   1.326  14.851
17053SOL     OW53055  12.261  13.587   1.662
17053SOL    HW153056  12.283  13.569   1.570
17053SOL    HW253057  12.206  13.665   1.658
17054SOL     OW53058  13.987  10.746  13.274
17054SOL    HW153059  14.060  10.686  13.262
17054SOL    HW253060  13.989  10.803  13.198
17055SOL     OW53061  11.843   5.766   6.313
17055SOL    HW153062  11.934   5.742   6.296
17055SOL    HW253063  11.841   5.861   6.305
17056SOL     OW53064   9.614  11.534   4.684
17056SOL    HW153065   9.637  11.574   4.600
17056SOL    HW253066   9.682  11.563   4.744
17057SOL     OW53067   4.800  13.989  11.749
17057SOL    HW153068   4.856  14.066  11.762
17057SOL    HW253069   4.860  13.915  11.753
17058SOL     OW53070   3.056   6.886  12.778
17058SOL    HW153071   3.030   6.934  12.857
17058SOL    HW253072   3.012   6.801  12.787
17059SOL     OW53073   8.648  13.725   2.831
17059SOL    HW153074   8.681  13.807   2.794
17059SOL    HW253075   8.662  13.661   2.761
17060SOL     OW53076   1.395  10.757   6.498
17060SOL    HW153077   1.459  10.697   6.460
17060SOL    HW253078   1.373  10.817   6.427
17061SOL     OW53079   4.091   3.498  13.928
17061SOL    HW153080   4.036   3.541  13.994
17061SOL    HW253081   4.037   3.426  13.896
17062SOL     OW53082   6.218   5.079   9.219
17062SOL    HW153083   6.264   5.000   9.189
17062SOL    HW253084   6.126   5.058   9.207
17063SOL     OW53085   9.725  12.554   9.450
17063SOL    HW153086   9.773  12.501   9.386
17063SOL    HW253087   9.793  12.595   9.504
17064SOL     OW53088   6.228  11.023   4.391
17064SOL    HW153089   6.227  10.992   4.481
17064SOL    HW253090   6.311  11.069   4.382
17065SOL     OW53091  12.908   6.194   2.315
17065SOL    HW153092  12.893   6.117   2.260
17065SOL    HW253093  13.000   6.187   2.343
17066SOL     OW53094   0.532  10.725   2.679
17066SOL    HW153095   0.613  10.702   2.724
17066SOL    HW253096   0.561  10.756   2.593
17067SOL     OW53097   6.083   3.107   8.083
17067SOL    HW153098   6.019   3.131   8.149
17067SOL    HW253099   6.114   3.191   8.048
17068SOL     OW53100   4.037   2.392  12.994
17068SOL    HW153101   4.062   2.460  13.056
17068SOL    HW253102   4.099   2.321  13.011
17069SOL     OW53103   7.561  10.495  14.057
17069SOL    HW153104   7.481  10.542  14.078
17069SOL    HW253105   7.631  10.558  14.076
17070SOL     OW53106  14.839   4.603  14.191
17070SOL    HW153107  14.843   4.507  14.182
17070SOL    HW253108   0.047   4.631  14.176
17071SOL     OW53109   2.472  14.584   6.595
17071SOL    HW153110   2.413  14.596   6.669
17071SOL    HW253111   2.494  14.491   6.596
17072SOL     OW53112   0.757   9.455  12.354
17072SOL    HW153113   0.707   9.388  12.307
17072SOL    HW253114   0.694   9.526  12.370
17073SOL     OW53115  13.244   2.280   1.161
17073SOL    HW153116  13.255   2.339   1.086
17073SOL    HW253117  13.265   2.193   1.126
17074SOL     OW53118   1.812   2.694   8.598
17074SOL    HW153119   1.794   2.634   8.670
17074SOL    HW253120   1.902   2.724   8.613
17075SOL     OW53121   2.189   3.800  14.046
17075SOL    HW153122   2.164   3.762  14.131
17075SOL    HW253123   2.259   3.743  14.015
17076SOL     OW53124  12.017   5.550   5.297
17076SOL    HW153125  12.015   5.645   5.298
17076SOL    HW253126  11.991   5.527   5.207
17077SOL     OW53127   5.057   6.737  12.123
17077SOL    HW153128   4.988   6.783  12.170
17077SOL    HW253129   5.086   6.668  12.183
17078SOL     OW53130  12.280   9.859  10.391
17078SOL    HW153131  12.189   9.884  10.401
17078SOL    HW253132  12.293   9.787  10.452
17079SOL     OW53133   4.855  13.537  12.055
17079SOL    HW153134   4.850  13.574  11.967
17079SOL    HW253135   4.919  13.466  12.049
17080SOL     OW53136   7.229   1.886   9.230
17080SOL    HW153137   7.230   1.946   9.155
17080SOL    HW253138   7.287   1.814   9.203
17081SOL     OW53139   7.843  10.524  12.025
17081SOL    HW153140   7.872  10.449  12.078
17081SOL    HW253141   7.805  10.484  11.946
17082SOL     OW53142  10.155   4.452   4.585
17082SOL    HW153143  10.192   4.487   4.504
17082SOL    HW253144  10.125   4.364   4.560
17083SOL     OW53145   9.263   0.953  11.062
17083SOL    HW153146   9.320   0.877  11.053
17083SOL    HW253147   9.276   0.982  11.153
17084SOL     OW53148   8.008  14.197  10.618
17084SOL    HW153149   7.951  14.188  10.542
17084SOL    HW253150   7.964  14.260  10.674
17085SOL     OW53151   0.029  10.156  11.915
17085SOL    HW153152  14.824  10.115  11.919
17085SOL    HW253153   0.041  10.196  12.001
17086SOL     OW53154  10.325   9.842   4.613
17086SOL    HW153155  10.291   9.890   4.688
17086SOL    HW253156  10.383   9.776   4.650
17087SOL     OW53157  12.342  14.057   0.824
17087SOL    HW153158  12.435  14.038   0.841
17087SOL    HW253159  12.295  14.013   0.895
17088SOL     OW53160  11.203   2.646   4.453
17088SOL    HW153161  11.132   2.696   4.493
17088SOL    HW253162  11.159   2.583   4.396
17089SOL     OW53163  12.287   6.420   4.428
17089SOL    HW153164  12.375   6.391   4.403
17089SOL    HW253165  12.264   6.364   4.503
17090SOL     OW53166   7.533  13.241   6.735
17090SOL    HW153167   7.599  13.252   6.804
17090SOL    HW253168   7.503  13.151   6.744
17091SOL     OW53169   4.584   4.017   8.726
17091SOL    HW153170   4.598   4.092   8.782
17091SOL    HW253171   4.518   4.046   8.662
17092SOL     OW53172   5.168  10.707   0.514
17092SOL    HW153173   5.214  10.626   0.492
17092SOL    HW253174   5.145  10.745   0.430
17093SOL     OW53175   1.940   9.184   8.308
17093SOL    HW153176   2.017   9.132   8.330
17093SOL    HW253177   1.952   9.208   8.217
17094SOL     OW53178   4.676  12.802  13.460
17094SOL    HW153179   4.592  12.802  13.415
17094SOL    HW253180   4.715  12.717  13.438
17095SOL     OW53181   0.927  14.755   0.712
17095SOL    HW153182   0.987  14.689   0.677
17095SOL    HW253183   0.914  14.730   0.803
17096SOL     OW53184   4.390   9.213  14.408
17096SOL    HW153185   4.304   9.247  14.384
17096SOL    HW253186   4.407   9.250  14.495
17097SOL     OW53187   5.226   4.177   6.236
17097SOL    HW153188   5.216   4.217   6.322
17097SOL    HW253189   5.282   4.237   6.187
17098SOL     OW53190   2.145   6.829   1.983
17098SOL    HW153191   2.129   6.923   1.983
17098SOL    HW253192   2.167   6.809   1.892
17099SOL     OW53193   0.129  11.511  11.441
17099SOL    HW153194   0.177  11.430  11.428
17099SOL    HW253195   0.147  11.562  11.362
17100SOL     OW53196   6.010  10.613   7.949
17100SOL    HW153197   6.103  10.599   7.964
17100SOL    HW253198   5.988  10.554   7.877
17101SOL     OW53199   1.123  11.335   5.061
17101SOL    HW153200   1.189  11.325   5.129
17101SOL    HW253201   1.105  11.429   5.057
17102SOL     OW53202  13.865   3.577   8.829
17102SOL    HW153203  13.922   3.609   8.898
17102SOL    HW253204  13.796   3.643   8.822
17103SOL     OW53205  13.814  14.717   0.383
17103SOL    HW153206  13.905  14.721   0.413
17103SOL    HW253207  13.789  14.626   0.394
17104SOL     OW53208   9.134  11.866  13.328
17104SOL    HW153209   9.196  11.927  13.288
17104SOL    HW253210   9.085  11.919  13.391
17105SOL     OW53211   3.828  10.620   5.921
17105SOL    HW153212   3.874  10.692   5.878
17105SOL    HW253213   3.772  10.583   5.852
17106SOL     OW53214   9.946  10.015   1.064
17106SOL    HW153215   9.890  10.087   1.092
17106SOL    HW253216   9.904   9.936   1.099
17107SOL     OW53217   6.327   5.026   7.192
17107SOL    HW153218   6.335   4.939   7.231
17107SOL    HW253219   6.296   5.082   7.263
17108SOL     OW53220   6.266   5.986   9.176
17108SOL    HW153221   6.275   5.894   9.148
17108SOL    HW253222   6.280   5.983   9.270
17109SOL     OW53223   0.043   2.798   8.579
17109SOL    HW153224  14.876   2.770   8.501
17109SOL    HW253225   0.058   2.892   8.564
17110SOL     OW53226   6.766   2.740  14.845
17110SOL    HW153227   6.737   2.649  14.838
17110SOL    HW253228   6.700   2.782   0.019
17111SOL     OW53229   9.261  10.618   5.986
17111SOL    HW153230   9.246  10.581   6.073
17111SOL    HW253231   9.181  10.598   5.938
17112SOL     OW53232   3.080  13.165   6.372
17112SOL    HW153233   3.027  13.234   6.333
17112SOL    HW253234   3.017  13.105   6.411
17113SOL     OW53235  11.247  11.975   7.714
17113SOL    HW153236  11.216  12.065   7.705
17113SOL    HW253237  11.233  11.953   7.806
17114SOL     OW53238  10.313   3.959   7.292
17114SOL    HW153239  10.284   3.941   7.203
17114SOL    HW253240  10.271   4.042   7.315
17115SOL     OW53241  13.283   7.057  12.602
17115SOL    HW153242  13.375   7.080  12.595
17115SOL    HW253243  13.237   7.141  12.606
17116SOL     OW53244  13.358   4.905   8.892
17116SOL    HW153245  13.330   4.817   8.914
17116SOL    HW253246  13.358   4.908   8.796
17117SOL     OW53247   7.577   3.308   5.466
17117SOL    HW153248   7.620   3.335   5.385
17117SOL    HW253249   7.649   3.281   5.523
17118SOL     OW53250  14.185  11.289   3.898
17118SOL    HW153251  14.275  11.320   3.909
17118SOL    HW253252  14.194  11.197   3.875
17119SOL     OW53253   9.804   5.848   1.827
17119SOL    HW153254   9.745   5.923   1.824
17119SOL    HW253255   9.822   5.827   1.736
17120SOL     OW53256   1.144   8.807   8.252
17120SOL    HW153257   1.076   8.798   8.318
17120SOL    HW253258   1.102   8.853   8.180
17121SOL     OW53259  10.610   9.992   4.687
17121SOL    HW153260  10.688   9.937   4.695
17121SOL    HW253261  10.644  10.080   4.671
17122SOL     OW53262  13.183  13.806   8.667
17122SOL    HW153263  13.195  13.716   8.695
17122SOL    HW253264  13.271  13.844   8.669
17123SOL     OW53265   0.921   6.632  10.110
17123SOL    HW153266   0.938   6.653  10.202
17123SOL    HW253267   0.969   6.698  10.061
17124SOL     OW53268   5.890   7.401   4.825
17124SOL    HW153269   5.946   7.441   4.891
17124SOL    HW253270   5.855   7.323   4.868
17125SOL     OW53271   8.759   2.971   0.618
17125SOL    HW153272   8.703   2.963   0.540
17125SOL    HW253273   8.803   2.887   0.624
17126SOL     OW53274  14.323  13.476   1.700
17126SOL    HW153275  14.352  13.493   1.790
17126SOL    HW253276  14.403  13.481   1.648
17127SOL     OW53277  10.545   4.100   3.691
17127SOL    HW153278  10.518   4.047   3.616
17127SOL    HW253279  10.533   4.190   3.662
17128SOL     OW53280  12.629   2.101   2.721
17128SOL    HW153281  12.600   2.144   2.641
17128SOL    HW253282  12.651   2.012   2.694
17129SOL     OW53283  13.599   6.633   0.375
17129SOL    HW153284  13.590   6.697   0.446
17129SOL    HW253285  13.679   6.658   0.330
17130SOL     OW53286  14.337   6.511   4.436
17130SOL    HW153287  14.313   6.439   4.379
17130SOL    HW253288  14.322   6.590   4.383
17131SOL     OW53289   6.859   5.057   9.061
17131SOL    HW153290   6.942   5.020   9.029
17131SOL    HW253291   6.868   5.055   9.157
17132SOL     OW53292  13.149   2.088   7.161
17132SOL    HW153293  13.124   2.178   7.140
17132SOL    HW253294  13.149   2.043   7.076
17133SOL     OW53295   9.078   1.507   4.932
17133SOL    HW153296   9.082   1.483   4.839
17133SOL    HW253297   9.030   1.590   4.933
17134SOL     OW53298   5.025  12.836   8.320
17134SOL    HW153299   5.092  12.902   8.339
17134SOL    HW253300   5.053  12.759   8.369
17135SOL     OW53301  11.575  10.268   0.857
17135SOL    HW153302  11.487  10.243   0.831
17135SOL    HW253303  11.631  10.197   0.826
17136SOL     OW53304   1.776  12.019  14.659
17136SOL    HW153305   1.685  12.017  14.629
17136SOL    HW253306   1.772  11.986  14.749
17137SOL     OW53307   3.231   8.475   2.805
17137SOL    HW153308   3.257   8.553   2.855
17137SOL    HW253309   3.180   8.509   2.732
17138SOL     OW53310  10.067   2.032  14.096
17138SOL    HW153311   9.987   2.047  14.146
17138SOL    HW253312  10.045   2.059  14.007
17139SOL     OW53313  14.279  14.510   3.616
17139SOL    HW153314  14.184  14.498   3.615
17139SOL    HW253315  14.299  14.559   3.536
17140SOL     OW53316  12.858   6.881   7.607
17140SOL    HW153317  12.793   6.843   7.548
17140SOL    HW253318  12.815   6.881   7.693
17141SOL     OW53319   7.863   2.714   2.753
17141SOL    HW153320   7.903   2.737   2.838
17141SOL    HW253321   7.935   2.677   2.702
17142SOL     OW53322   9.616   5.055   0.038
17142SOL    HW153323   9.580   5.081   0.123
17142SOL    HW253324   9.647   5.137  14.881
17143SOL     OW53325   0.524  11.603  11.845
17143SOL    HW153326   0.469  11.547  11.901
17143SOL    HW253327   0.610  11.600  11.887
17144SOL     OW53328  10.303   4.930  10.151
17144SOL    HW153329  10.210   4.948  10.143
17144SOL    HW253330  10.307   4.855  10.211
17145SOL     OW53331  11.465  12.450   2.615
17145SOL    HW153332  11.393  12.426   2.557
17145SOL    HW253333  11.428  12.446   2.703
17146SOL     OW53334  12.936   9.923   1.786
17146SOL    HW153335  12.918   9.842   1.834
17146SOL    HW253336  12.874   9.987   1.821
17147SOL     OW53337   5.987  13.838   4.977
17147SOL    HW153338   6.080  13.846   4.955
17147SOL    HW253339   5.985  13.848   5.073
17148SOL     OW53340   9.842   1.188   0.498
17148SOL    HW153341   9.876   1.186   0.409
17148SOL    HW253342   9.747   1.186   0.488
17149SOL     OW53343   6.143  10.451  12.020
17149SOL    HW153344   6.196  10.422  11.945
17149SOL    HW253345   6.118  10.540  11.998
17150SOL     OW53346  13.117  12.675   9.985
17150SOL    HW153347  13.186  12.610   9.972
17150SOL    HW253348  13.035  12.626   9.973
17151SOL     OW53349   8.722  10.494   2.031
17151SOL    HW153350   8.738  10.472   2.123
17151SOL    HW253351   8.634  10.531   2.031
17152SOL     OW53352  10.662   7.241  12.648
17152SOL    HW153353  10.633   7.293  12.723
17152SOL    HW253354  10.682   7.306  12.581
17153SOL     OW53355  12.424   4.339   4.436
17153SOL    HW153356  12.475   4.354   4.516
17153SOL    HW253357  12.435   4.419   4.386
17154SOL     OW53358   8.528   1.954   4.453
17154SOL    HW153359   8.593   2.024   4.464
17154SOL    HW253360   8.478   1.980   4.376
17155SOL     OW53361   3.583  13.149   4.164
17155SOL    HW153362   3.504  13.096   4.170
17155SOL    HW253363   3.558  13.234   4.201
17156SOL     OW53364   1.308  11.399   5.242
17156SOL    HW153365   1.324  11.485   5.283
17156SOL    HW253366   1.395  11.360   5.236
17157SOL     OW53367   4.183   1.139   6.111
17157SOL    HW153368   4.142   1.224   6.126
17157SOL    HW253369   4.134   1.079   6.166
17158SOL     OW53370   2.531  11.167  11.619
17158SOL    HW153371   2.570  11.085  11.648
17158SOL    HW253372   2.471  11.141  11.549
17159SOL     OW53373   7.892  14.144   5.475
17159SOL    HW153374   7.839  14.104   5.544
17159SOL    HW253375   7.829  14.187   5.417
17160SOL     OW53376   7.885   6.571  13.402
17160SOL    HW153377   7.804   6.610  13.436
17160SOL    HW253378   7.911   6.509  13.470
17161SOL     OW53379  10.185   3.615   2.488
17161SOL    HW153380  10.239   3.617   2.409
17161SOL    HW253381  10.141   3.701   2.489
17162SOL     OW53382  12.482   3.061   3.794
17162SOL    HW153383  12.456   3.019   3.876
17162SOL    HW253384  12.506   2.988   3.737
17163SOL     OW53385   3.507   6.867  11.023
17163SOL    HW153386   3.414   6.890  11.031
17163SOL    HW253387   3.510   6.812  10.944
17164SOL     OW53388   0.717   6.453  12.643
17164SOL    HW153389   0.790   6.399  12.613
17164SOL    HW253390   0.709   6.521  12.576
17165SOL     OW53391   3.200   5.373   0.349
17165SOL    HW153392   3.254   5.426   0.290
17165SOL    HW253393   3.258   5.302   0.377
17166SOL     OW53394   7.829   5.055   6.236
17166SOL    HW153395   7.890   4.981   6.234
17166SOL    HW253396   7.764   5.035   6.169
17167SOL     OW53397   8.006  14.878  12.196
17167SOL    HW153398   7.926  14.849  12.152
17167SOL    HW253399   8.030   0.076  12.150
17168SOL     OW53400   4.374   9.712  14.237
17168SOL    HW153401   4.428   9.634  14.229
17168SOL    HW253402   4.348   9.715  14.329
17169SOL     OW53403   6.000  13.860   0.000
17169SOL    HW153404   5.984  13.946   0.039
17169SOL    HW253405   5.942  13.856  14.806
17170SOL     OW53406  12.116   2.579   6.726
17170SOL    HW153407  12.091   2.647   6.789
17170SOL    HW253408  12.176   2.623   6.667
17171SOL     OW53409   3.191  11.248   0.228
17171SOL    HW153410   3.115  11.194   0.204
17171SOL    HW253411   3.156  11.337   0.233
17172SOL     OW53412   6.575  11.172  10.199
17172SOL    HW153413   6.519  11.172  10.122
17172SOL    HW253414   6.519  11.141  10.270
17173SOL     OW53415  13.553   7.988   8.266
17173SOL    HW153416  13.569   7.949   8.352
17173SOL    HW253417  13.566   7.917   8.204
17174SOL     OW53418  10.992  14.483   8.212
17174SOL    HW153419  10.944  14.433   8.147
17174SOL    HW253420  10.927  14.504   8.279
17175SOL     OW53421   4.833   8.435  12.021
17175SOL    HW153422   4.823   8.452  11.927
17175SOL    HW253423   4.807   8.517  12.063
17176SOL     OW53424  13.824   9.587   4.355
17176SOL    HW153425  13.885   9.646   4.310
17176SOL    HW253426  13.764   9.646   4.402
17177SOL     OW53427   2.310   9.282  14.599
17177SOL    HW153428   2.222   9.315  14.580
17177SOL    HW253429   2.295   9.199  14.644
17178SOL     OW53430  10.427   3.941   0.645
17178SOL    HW153431  10.347   3.943   0.592
17178SOL    HW253432  10.453   4.033   0.652
17179SOL     OW53433  13.170   0.011  14.648
17179SOL    HW153434  13.120   0.050  14.576
17179SOL    HW253435  13.181   0.082  14.711
17180SOL     OW53436   4.882   6.253   0.041
17180SOL    HW153437   4.831   6.332   0.060
17180SOL    HW253438   4.883   6.205   0.124
17181SOL     OW53439  14.820  12.034   5.562
17181SOL    HW153440  14.759  12.099   5.528
17181SOL    HW253441  14.765  11.962   5.592
17182SOL     OW53442  14.614   2.557   7.434
17182SOL    HW153443  14.537   2.529   7.483
17182SOL    HW253444  14.678   2.487   7.447
17183SOL     OW53445  14.738   7.571   6.232
17183SOL    HW153446  14.668   7.615   6.185
17183SOL    HW253447  14.811   7.633   6.230
17184SOL     OW53448  10.681  13.537   6.892
17184SOL    HW153449  10.701  13.455   6.937
17184SOL    HW253450  10.726  13.604   6.943
17185SOL     OW53451   6.483   3.675   5.480
17185SOL    HW153452   6.490   3.770   5.474
17185SOL    HW253453   6.440   3.660   5.565
17186SOL     OW53454   1.047   8.181   6.464
17186SOL    HW153455   1.054   8.243   6.391
17186SOL    HW253456   1.049   8.095   6.421
17187SOL     OW53457   0.402   5.381   8.835
17187SOL    HW153458   0.433   5.355   8.921
17187SOL    HW253459   0.425   5.474   8.829
17188SOL     OW53460   3.187   9.406   8.368
17188SOL    HW153461   3.195   9.327   8.421
17188SOL    HW253462   3.244   9.391   8.293
17189SOL     OW53463  13.281   5.183  11.887
17189SOL    HW153464  13.369   5.151  11.871
17189SOL    HW253465  13.224   5.123  11.838
17190SOL     OW53466   5.030   0.994   5.454
17190SOL    HW153467   5.084   1.008   5.376
17190SOL    HW253468   4.998   1.081   5.477
17191SOL     OW53469   8.446  12.530   6.218
17191SOL    HW153470   8.382  12.475   6.173
17191SOL    HW253471   8.437  12.508   6.311
17192SOL     OW53472  13.709   8.811   4.567
17192SOL    HW153473  13.693   8.819   4.661
17192SOL    HW253474  13.702   8.900   4.533
17193SOL     OW53475   6.138   1.388  14.373
17193SOL    HW153476   6.149   1.294  14.391
17193SOL    HW253477   6.087   1.421  14.447
17194SOL     OW53478  14.601   7.389   5.675
17194SOL    HW153479  14.664   7.358   5.610
17194SOL    HW253480  14.655   7.424   5.746
17195SOL     OW53481  13.303   8.328   1.955
17195SOL    HW153482  13.337   8.349   2.041
17195SOL    HW253483  13.240   8.257   1.971
17196SOL     OW53484   8.256   4.584  12.493
17196SOL    HW153485   8.187   4.639  12.531
17196SOL    HW253486   8.335   4.638  12.497
17197SOL     OW53487   6.072   8.476   1.673
17197SOL    HW153488   6.146   8.523   1.710
17197SOL    HW253489   6.010   8.544   1.647
17198SOL     OW53490  12.318   3.486  10.188
17198SOL    HW153491  12.258   3.462  10.117
17198SOL    HW253492  12.266   3.541  10.246
17199SOL     OW53493  13.942   2.623   7.454
17199SOL    HW153494  13.879   2.685   7.489
17199SOL    HW253495  13.901   2.589   7.375
17200SOL     OW53496  13.953   9.826   9.472
17200SOL    HW153497  14.001   9.907   9.459
17200SOL    HW253498  13.946   9.787   9.385
17201SOL     OW53499   5.840   3.384   7.135
17201SOL    HW153500   5.775   3.331   7.090
17201SOL    HW253501   5.822   3.370   7.228
17202SOL     OW53502   3.203  14.390  13.033
17202SOL    HW153503   3.187  14.424  12.945
17202SOL    HW253504   3.262  14.315  13.020
17203SOL     OW53505   6.102   5.801   3.808
17203SOL    HW153506   6.180   5.853   3.786
17203SOL    HW253507   6.054   5.856   3.869
17204SOL     OW53508  11.241   5.878   5.743
17204SOL    HW153509  11.174   5.841   5.800
17204SOL    HW253510  11.324   5.853   5.783
17205SOL     OW53511   7.685  10.513   2.196
17205SOL    HW153512   7.644  10.546   2.276
17205SOL    HW253513   7.759  10.572   2.181
17206SOL     OW53514   0.582  11.407   3.688
17206SOL    HW153515   0.641  11.461   3.740
17206SOL    HW253516   0.574  11.325   3.738
17207SOL     OW53517   6.733   2.219   4.806
17207SOL    HW153518   6.822   2.188   4.821
17207SOL    HW253519   6.708   2.261   4.888
17208SOL     OW53520   1.084  13.284   3.608
17208SOL    HW153521   0.994  13.315   3.607
17208SOL    HW253522   1.076  13.188   3.613
17209SOL     OW53523  14.448   4.365   1.757
17209SOL    HW153524  14.361   4.395   1.785
17209SOL    HW253525  14.437   4.271   1.741
17210SOL     OW53526   8.135   6.715   2.814
17210SOL    HW153527   8.071   6.659   2.771
17210SOL    HW253528   8.207   6.722   2.751
17211SOL     OW53529  12.641   0.357  12.562
17211SOL    HW153530  12.564   0.390  12.607
17211SOL    HW253531  12.662   0.275  12.605
17212SOL     OW53532   0.148   6.898  12.337
17212SOL    HW153533   0.212   6.873  12.270
17212SOL    HW253534   0.200   6.943  12.404
17213SOL     OW53535   6.248  14.857   8.028
17213SOL    HW153536   6.258  14.769   7.992
17213SOL    HW253537   6.201  14.844   8.111
17214SOL     OW53538   8.869   5.746  13.754
17214SOL    HW153539   8.951   5.711  13.721
17214SOL    HW253540   8.884   5.758  13.848
17215SOL     OW53541   7.069  12.780   4.497
17215SOL    HW153542   7.092  12.700   4.451
17215SOL    HW253543   7.108  12.770   4.584
17216SOL     OW53544   4.328   5.276   1.031
17216SOL    HW153545   4.281   5.354   1.002
17216SOL    HW253546   4.359   5.236   0.949
17217SOL     OW53547  11.562   5.003   0.026
17217SOL    HW153548  11.592   5.086   0.064
17217SOL    HW253549  11.633   4.942   0.044
17218SOL     OW53550   3.401   6.245  11.673
17218SOL    HW153551   3.424   6.287  11.590
17218SOL    HW253552   3.485   6.236  11.719
17219SOL     OW53553   3.176  13.173   9.700
17219SOL    HW153554   3.091  13.139   9.726
17219SOL    HW253555   3.201  13.233   9.770
17220SOL     OW53556   6.239   2.669  13.717
17220SOL    HW153557   6.225   2.588  13.767
17220SOL    HW253558   6.157   2.682  13.670
17221SOL     OW53559   9.163   7.177   4.743
17221SOL    HW153560   9.176   7.258   4.792
17221SOL    HW253561   9.204   7.194   4.658
17222SOL     OW53562  13.030   7.139   7.798
17222SOL    HW153563  13.012   7.171   7.886
17222SOL    HW253564  12.957   7.172   7.745
17223SOL     OW53565   4.892   5.630  14.233
17223SOL    HW153566   4.976   5.599  14.265
17223SOL    HW253567   4.869   5.570  14.162
17224SOL     OW53568   8.809   3.346   4.386
17224SOL    HW153569   8.715   3.359   4.396
17224SOL    HW253570   8.846   3.435   4.392
17225SOL     OW53571  13.215   9.146  12.937
17225SOL    HW153572  13.272   9.216  12.905
17225SOL    HW253573  13.266   9.102  13.005
17226SOL     OW53574   5.954   3.783   0.739
17226SOL    HW153575   5.935   3.690   0.727
17226SOL    HW253576   5.886   3.828   0.688
17227SOL     OW53577   5.539   2.048  13.877
17227SOL    HW153578   5.588   2.010  13.804
17227SOL    HW253579   5.483   1.978  13.908
17228SOL     OW53580   8.077   5.286  12.393
17228SOL    HW153581   8.003   5.341  12.367
17228SOL    HW253582   8.056   5.200  12.356
17229SOL     OW53583  13.682  11.428   8.241
17229SOL    HW153584  13.694  11.374   8.319
17229SOL    HW253585  13.738  11.387   8.175
17230SOL     OW53586   3.242   3.222  13.478
17230SOL    HW153587   3.162   3.258  13.517
17230SOL    HW253588   3.210   3.167  13.406
17231SOL     OW53589  12.214   0.700   6.368
17231SOL    HW153590  12.226   0.785   6.325
17231SOL    HW253591  12.151   0.718   6.438
17232SOL     OW53592   5.345   9.088   2.809
17232SOL    HW153593   5.305   9.024   2.868
17232SOL    HW253594   5.353   9.168   2.861
17233SOL     OW53595  13.648   3.950  11.762
17233SOL    HW153596  13.608   3.942  11.675
17233SOL    HW253597  13.609   3.880  11.814
17234SOL     OW53598   9.808   8.348  13.582
17234SOL    HW153599   9.892   8.328  13.622
17234SOL    HW253600   9.809   8.443  13.571
17235SOL     OW53601  11.636  13.437   3.335
17235SOL    HW153602  11.707  13.373   3.342
17235SOL    HW253603  11.570  13.393   3.281
17236SOL     OW53604  13.402   2.097   4.804
17236SOL    HW153605  13.460   2.162   4.842
17236SOL    HW253606  13.419   2.102   4.710
17237SOL     OW53607   2.636  12.099   1.770
17237SOL    HW153608   2.680  12.018   1.746
17237SOL    HW253609   2.596  12.080   1.855
17238SOL     OW53610  12.499   9.985   6.281
17238SOL    HW153611  12.535   9.980   6.192
17238SOL    HW253612  12.458   9.899   6.295
17239SOL     OW53613   0.993   7.493  10.285
17239SOL    HW153614   0.941   7.568  10.314
17239SOL    HW253615   0.952   7.417  10.327
17240SOL     OW53616  10.406   4.400   7.002
17240SOL    HW153617  10.390   4.480   6.952
17240SOL    HW253618  10.357   4.332   6.956
17241SOL     OW53619  10.320   9.672   8.972
17241SOL    HW153620  10.314   9.765   8.996
17241SOL    HW253621  10.241   9.656   8.920
17242SOL     OW53622   6.840  14.027   2.518
17242SOL    HW153623   6.842  14.111   2.471
17242SOL    HW253624   6.839  13.961   2.449
17243SOL     OW53625   4.153   3.723   8.604
17243SOL    HW153626   4.171   3.767   8.522
17243SOL    HW253627   4.195   3.637   8.595
17244SOL     OW53628   0.903   5.364   3.010
17244SOL    HW153629   0.887   5.390   3.101
17244SOL    HW253630   0.891   5.269   3.010
17245SOL     OW53631   1.608   7.768   5.026
17245SOL    HW153632   1.601   7.856   4.990
17245SOL    HW253633   1.644   7.715   4.954
17246SOL     OW53634   7.332  13.295   5.115
17246SOL    HW153635   7.246  13.335   5.102
17246SOL    HW253636   7.315  13.215   5.164
17247SOL     OW53637   3.720  13.017   2.392
17247SOL    HW153638   3.666  13.096   2.381
17247SOL    HW253639   3.755  13.024   2.480
17248SOL     OW53640   5.502  12.285   1.264
17248SOL    HW153641   5.460  12.364   1.228
17248SOL    HW253642   5.451  12.263   1.341
17249SOL     OW53643  13.532  14.085   9.142
17249SOL    HW153644  13.549  14.058   9.232
17249SOL    HW253645  13.603  14.046   9.091
17250SOL     OW53646   2.007   1.563   6.921
17250SOL    HW153647   2.059   1.569   6.841
17250SOL    HW253648   1.940   1.630   6.912
17251SOL     OW53649  13.354  14.001   8.258
17251SOL    HW153650  13.415  14.059   8.212
17251SOL    HW253651  13.386  13.913   8.240
17252SOL     OW53652   0.861   7.018  10.457
17252SOL    HW153653   0.886   6.965  10.380
17252SOL    HW253654   0.775   6.985  10.482
17253SOL     OW53655  11.110   9.961   0.654
17253SOL    HW153656  11.085   9.904   0.727
17253SOL    HW253657  11.177   9.912   0.607
17254SOL     OW53658   7.355   3.983  13.989
17254SOL    HW153659   7.421   4.051  14.000
17254SOL    HW253660   7.343   3.977  13.894
17255SOL     OW53661   6.191  10.341   8.806
17255SOL    HW153662   6.117  10.390   8.842
17255SOL    HW253663   6.157  10.253   8.791
17256SOL     OW53664   3.261  13.445   4.291
17256SOL    HW153665   3.307  13.508   4.347
17256SOL    HW253666   3.222  13.382   4.351
17257SOL     OW53667   8.998  14.798   7.398
17257SOL    HW153668   8.924  14.812   7.456
17257SOL    HW253669   9.071  14.776   7.457
17258SOL     OW53670   7.910  14.586   9.317
17258SOL    HW153671   7.934  14.628   9.234
17258SOL    HW253672   7.977  14.616   9.378
17259SOL     OW53673   1.551  10.583   1.098
17259SOL    HW153674   1.565  10.629   1.015
17259SOL    HW253675   1.563  10.491   1.076
17260SOL     OW53676   0.791  11.245   1.403
17260SOL    HW153677   0.808  11.251   1.309
17260SOL    HW253678   0.877  11.236   1.443
17261SOL     OW53679   9.426  13.883  12.476
17261SOL    HW153680   9.408  13.855  12.386
17261SOL    HW253681   9.344  13.867  12.523
17262SOL     OW53682  14.267  11.740   9.524
17262SOL    HW153683  14.236  11.816   9.476
17262SOL    HW253684  14.205  11.731   9.597
17263SOL     OW53685   0.180  12.024   1.975
17263SOL    HW153686   0.189  11.931   1.995
17263SOL    HW253687   0.264  12.062   2.001
17264SOL     OW53688   1.303   4.521   7.498
17264SOL    HW153689   1.314   4.445   7.441
17264SOL    HW253690   1.314   4.486   7.587
17265SOL     OW53691   2.637  14.321   0.913
17265SOL    HW153692   2.694  14.353   0.843
17265SOL    HW253693   2.638  14.391   0.979
17266SOL     OW53694   2.952   1.115   2.058
17266SOL    HW153695   2.926   1.089   1.970
17266SOL    HW253696   2.878   1.088   2.114
17267SOL     OW53697   7.387  12.303   2.486
17267SOL    HW153698   7.327  12.228   2.483
17267SOL    HW253699   7.443  12.286   2.562
17268SOL     OW53700   3.718   7.296  11.180
17268SOL    HW153701   3.653   7.235  11.145
17268SOL    HW253702   3.767   7.326  11.103
17269SOL     OW53703   3.702   4.434  12.998
17269SOL    HW153704   3.705   4.440  13.094
17269SOL    HW253705   3.794   4.433  12.971
17270SOL     OW53706   0.050  10.978   6.589
17270SOL    HW153707  14.861  10.945   6.643
17270SOL    HW253708   0.041  10.930   6.506
17271SOL     OW53709  13.167   8.444   2.938
17271SOL    HW153710  13.101   8.464   3.004
17271SOL    HW253711  13.242   8.413   2.988
17272SOL     OW53712  13.801  12.103   9.348
17272SOL    HW153713  13.777  12.034   9.286
17272SOL    HW253714  13.869  12.152   9.303
17273SOL     OW53715   0.587   7.129   8.501
17273SOL    HW153716   0.562   7.057   8.559
17273SOL    HW253717   0.682   7.138   8.514
17274SOL     OW53718   6.590   7.436  10.176
17274SOL    HW153719   6.641   7.364  10.139
17274SOL    HW253720   6.500   7.419  10.148
17275SOL     OW53721   1.163   4.532   5.990
17275SOL    HW153722   1.208   4.610   6.021
17275SOL    HW253723   1.070   4.554   5.994
17276SOL     OW53724   6.380   1.543   3.744
17276SOL    HW153725   6.347   1.632   3.752
17276SOL    HW253726   6.320   1.501   3.682
17277SOL     OW53727   2.627   6.053   8.406
17277SOL    HW153728   2.709   6.102   8.406
17277SOL    HW253729   2.648   5.968   8.367
17278SOL     OW53730   8.990   1.274   3.510
17278SOL    HW153731   8.973   1.220   3.433
17278SOL    HW253732   9.048   1.221   3.564
17279SOL     OW53733  10.835  10.393   1.915
17279SOL    HW153734  10.909  10.332   1.921
17279SOL    HW253735  10.759  10.342   1.941
17280SOL     OW53736  11.150  12.036   8.395
17280SOL    HW153737  11.229  11.993   8.364
17280SOL    HW253738  11.101  11.967   8.440
17281SOL     OW53739   9.028  11.006   3.602
17281SOL    HW153740   9.050  11.062   3.528
17281SOL    HW253741   9.064  10.920   3.578
17282SOL     OW53742   0.491   9.837   5.163
17282SOL    HW153743   0.547   9.809   5.236
17282SOL    HW253744   0.404   9.847   5.202
17283SOL     OW53745  13.237   9.432   5.933
17283SOL    HW153746  13.157   9.479   5.960
17283SOL    HW253747  13.281   9.493   5.874
17284SOL     OW53748   7.280   7.094   8.016
17284SOL    HW153749   7.284   6.999   8.028
17284SOL    HW253750   7.370   7.120   7.998
17285SOL     OW53751   6.707   4.991  11.023
17285SOL    HW153752   6.631   5.048  11.016
17285SOL    HW253753   6.676   4.905  10.996
17286SOL     OW53754   6.894   0.295   6.758
17286SOL    HW153755   6.848   0.237   6.697
17286SOL    HW253756   6.904   0.377   6.710
17287SOL     OW53757  11.094  11.587   8.785
17287SOL    HW153758  11.090  11.579   8.880
17287SOL    HW253759  11.167  11.646   8.769
17288SOL     OW53760  10.996  10.307   7.310
17288SOL    HW153761  10.925  10.320   7.247
17288SOL    HW253762  11.071  10.352   7.271
17289SOL     OW53763   0.706   8.112   3.355
17289SOL    HW153764   0.711   8.179   3.424
17289SOL    HW253765   0.721   8.029   3.402
17290SOL     OW53766   8.213  11.935   2.856
17290SOL    HW153767   8.254  11.971   2.778
17290SOL    HW253768   8.285  11.919   2.917
17291SOL     OW53769   1.403  12.478  13.094
17291SOL    HW153770   1.424  12.560  13.137
17291SOL    HW253771   1.474  12.463  13.032
17292SOL     OW53772   5.003   8.525   6.298
17292SOL    HW153773   5.065   8.594   6.323
17292SOL    HW253774   5.017   8.512   6.204
17293SOL     OW53775   0.367  13.791  13.891
17293SOL    HW153776   0.340  13.868  13.941
17293SOL    HW253777   0.414  13.827  13.815
17294SOL     OW53778   2.763   2.485  10.846
17294SOL    HW153779   2.775   2.543  10.771
17294SOL    HW253780   2.668   2.479  10.858
17295SOL     OW53781   7.123  12.119   3.794
17295SOL    HW153782   7.169  12.062   3.855
17295SOL    HW253783   7.191  12.178   3.760
17296SOL     OW53784   5.174   9.532   4.244
17296SOL    HW153785   5.188   9.623   4.219
17296SOL    HW253786   5.136   9.536   4.332
17297SOL     OW53787   0.604   6.281  12.227
17297SOL    HW153788   0.542   6.350  12.250
17297SOL    HW253789   0.589   6.213  12.293
17298SOL     OW53790   8.958   0.956  13.858
17298SOL    HW153791   8.992   0.930  13.944
17298SOL    HW253792   8.907   0.879  13.829
17299SOL     OW53793  11.519   1.281   7.087
17299SOL    HW153794  11.583   1.328   7.141
17299SOL    HW253795  11.573   1.237   7.021
17300SOL     OW53796  13.439   8.401  11.987
17300SOL    HW153797  13.447   8.494  12.004
17300SOL    HW253798  13.508   8.361  12.039
17301SOL     OW53799   4.315   6.138   5.587
17301SOL    HW153800   4.386   6.144   5.523
17301SOL    HW253801   4.360   6.143   5.672
17302SOL     OW53802   7.904   1.828  14.297
17302SOL    HW153803   7.811   1.812  14.277
17302SOL    HW253804   7.930   1.895  14.234
17303SOL     OW53805  12.444   1.048   0.339
17303SOL    HW153806  12.448   1.083   0.250
17303SOL    HW253807  12.463   0.954   0.329
17304SOL     OW53808   4.060   8.494  13.982
17304SOL    HW153809   4.012   8.431  13.928
17304SOL    HW253810   4.032   8.580  13.949
17305SOL     OW53811   3.920  14.558   8.596
17305SOL    HW153812   3.986  14.596   8.654
17305SOL    HW253813   3.849  14.533   8.654
17306SOL     OW53814  11.737  14.566  14.422
17306SOL    HW153815  11.675  14.565  14.495
17306SOL    HW253816  11.732  14.655  14.387
17307SOL     OW53817  10.352  14.113   1.399
17307SOL    HW153818  10.337  14.095   1.306
17307SOL    HW253819  10.265  14.129   1.435
17308SOL     OW53820  12.032  13.622   0.716
17308SOL    HW153821  11.988  13.627   0.631
17308SOL    HW253822  12.124  13.608   0.694
17309SOL     OW53823  12.705   1.147  10.195
17309SOL    HW153824  12.674   1.078  10.253
17309SOL    HW253825  12.690   1.229  10.243
17310SOL     OW53826   5.381   3.581  14.672
17310SOL    HW153827   5.328   3.649  14.714
17310SOL    HW253828   5.357   3.588  14.579
17311SOL     OW53829  10.719   7.539   8.433
17311SOL    HW153830  10.711   7.614   8.374
17311SOL    HW253831  10.771   7.475   8.384
17312SOL     OW53832   3.288  13.342  10.829
17312SOL    HW153833   3.347  13.403  10.784
17312SOL    HW253834   3.305  13.258  10.788
17313SOL     OW53835   1.734  10.206   6.663
17313SOL    HW153836   1.820  10.214   6.621
17313SOL    HW253837   1.673  10.245   6.601
17314SOL     OW53838  12.977   9.178  12.546
17314SOL    HW153839  13.018   9.120  12.482
17314SOL    HW253840  12.891   9.139  12.562
17315SOL     OW53841   4.862   8.156   5.348
17315SOL    HW153842   4.871   8.091   5.418
17315SOL    HW253843   4.950   8.161   5.309
17316SOL     OW53844   5.759  13.840   6.992
17316SOL    HW153845   5.764  13.909   7.058
17316SOL    HW253846   5.846  13.838   6.951
17317SOL     OW53847  14.777   0.961  14.363
17317SOL    HW153848  14.796   1.009  14.444
17317SOL    HW253849  14.758   1.029  14.299
17318SOL     OW53850   5.493   9.988   4.105
17318SOL    HW153851   5.485  10.083   4.095
17318SOL    HW253852   5.577   9.976   4.148
17319SOL     OW53853  12.886   3.135   3.694
17319SOL    HW153854  12.941   3.069   3.652
17319SOL    HW253855  12.824   3.085   3.747
17320SOL     OW53856   2.068   5.869   7.429
17320SOL    HW153857   2.032   5.943   7.381
17320SOL    HW253858   2.019   5.867   7.511
17321SOL     OW53859   0.245   0.366   8.022
17321SOL    HW153860   0.167   0.421   8.028
17321SOL    HW253861   0.251   0.342   7.930
17322SOL     OW53862   3.919   3.603   1.093
17322SOL    HW153863   3.876   3.555   1.023
17322SOL    HW253864   3.861   3.593   1.168
17323SOL     OW53865  12.667   4.819  13.876
17323SOL    HW153866  12.640   4.727  13.880
17323SOL    HW253867  12.617   4.855  13.802
17324SOL     OW53868   3.996  14.727  13.033
17324SOL    HW153869   3.910  14.768  13.030
17324SOL    HW253870   4.021  14.717  12.941
17325SOL     OW53871   3.136   4.661  11.014
17325SOL    HW153872   3.169   4.712  10.940
17325SOL    HW253873   3.053   4.625  10.983
17326SOL     OW53874  12.898   4.997   9.787
17326SOL    HW153875  12.830   5.055   9.754
17326SOL    HW253876  12.867   4.909   9.766
17327SOL     OW53877   5.903  14.788   8.589
17327SOL    HW153878   5.808  14.785   8.579
17327SOL    HW253879   5.919  14.865   8.644
17328SOL     OW53880  10.341   1.824  13.412
17328SOL    HW153881  10.256   1.793  13.382
17328SOL    HW253882  10.371   1.882  13.341
17329SOL     OW53883   5.995  10.939  13.723
17329SOL    HW153884   5.948  10.924  13.640
17329SOL    HW253885   6.087  10.943  13.697
17330SOL     OW53886  11.009   8.557   1.551
17330SOL    HW153887  11.059   8.607   1.487
17330SOL    HW253888  11.072   8.541   1.622
17331SOL     OW53889   6.399  12.004   0.019
17331SOL    HW153890   6.435  11.964   0.098
17331SOL    HW253891   6.316  11.959   0.005
17332SOL     OW53892   0.706   9.510  14.244
17332SOL    HW153893   0.771   9.446  14.214
17332SOL    HW253894   0.626   9.459  14.257
17333SOL     OW53895  13.724   2.364   6.752
17333SOL    HW153896  13.629   2.352   6.748
17333SOL    HW253897  13.736   2.458   6.763
17334SOL     OW53898   9.053  10.141   9.615
17334SOL    HW153899   9.148  10.129   9.612
17334SOL    HW253900   9.032  10.144   9.708
17335SOL     OW53901  10.468  10.232   5.240
17335SOL    HW153902  10.443  10.142   5.219
17335SOL    HW253903  10.386  10.276   5.263
17336SOL     OW53904   7.408   6.439   9.810
17336SOL    HW153905   7.458   6.460   9.732
17336SOL    HW253906   7.388   6.524   9.850
17337SOL     OW53907   0.091  11.057   5.394
17337SOL    HW153908   0.025  11.076   5.328
17337SOL    HW253909   0.123  10.970   5.372
17338SOL     OW53910   4.105   8.053   1.071
17338SOL    HW153911   4.053   7.977   1.100
17338SOL    HW253912   4.094   8.055   0.976
17339SOL     OW53913  13.420  13.631   4.687
17339SOL    HW153914  13.515  13.621   4.675
17339SOL    HW253915  13.388  13.660   4.601
17340SOL     OW53916   3.692   9.274  14.690
17340SOL    HW153917   3.616   9.219  14.708
17340SOL    HW253918   3.659   9.341  14.630
17341SOL     OW53919   2.681   4.375   6.597
17341SOL    HW153920   2.692   4.451   6.540
17341SOL    HW253921   2.676   4.412   6.685
17342SOL     OW53922   7.045   3.127   7.468
17342SOL    HW153923   7.107   3.055   7.464
17342SOL    HW253924   7.009   3.122   7.557
17343SOL     OW53925   0.366   1.065   7.983
17343SOL    HW153926   0.346   0.974   8.005
17343SOL    HW253927   0.326   1.079   7.897
17344SOL     OW53928   4.335   3.359   2.506
17344SOL    HW153929   4.368   3.398   2.588
17344SOL    HW253930   4.240   3.362   2.515
17345SOL     OW53931   4.760   6.396   6.209
17345SOL    HW153932   4.785   6.460   6.276
17345SOL    HW253933   4.721   6.324   6.259
17346SOL     OW53934   7.937  10.492   9.974
17346SOL    HW153935   7.862  10.432   9.982
17346SOL    HW253936   8.006  10.451  10.026
17347SOL     OW53937   2.253   2.759  10.842
17347SOL    HW153938   2.284   2.738  10.753
17347SOL    HW253939   2.332   2.786  10.889
17348SOL     OW53940   6.558   6.229  10.802
17348SOL    HW153941   6.607   6.260  10.725
17348SOL    HW253942   6.483   6.288  10.808
17349SOL     OW53943   9.716  13.176   1.402
17349SOL    HW153944   9.783  13.194   1.468
17349SOL    HW253945   9.721  13.081   1.388
17350SOL     OW53946   6.176   1.034   5.452
17350SOL    HW153947   6.152   1.090   5.379
17350SOL    HW253948   6.271   1.027   5.448
17351SOL     OW53949   8.523  11.386   5.626
17351SOL    HW153950   8.535  11.292   5.610
17351SOL    HW253951   8.593  11.427   5.576
17352SOL     OW53952   5.215  14.874  10.436
17352SOL    HW153953   5.288  14.839  10.385
17352SOL    HW253954   5.255   0.054  10.496
17353SOL     OW53955  12.531   8.688   7.271
17353SOL    HW153956  12.560   8.739   7.195
17353SOL    HW253957  12.443   8.658   7.248
17354SOL     OW53958   2.669  11.786  14.417
17354SOL    HW153959   2.609  11.851  14.453
17354SOL    HW253960   2.725  11.836  14.357
17355SOL     OW53961   3.005   6.520   5.599
17355SOL    HW153962   2.921   6.485   5.629
17355SOL    HW253963   3.022   6.594   5.658
17356SOL     OW53964  14.502   4.646   2.005
17356SOL    HW153965  14.498   4.741   2.003
17356SOL    HW253966  14.500   4.624   2.099
17357SOL     OW53967  14.207  14.269   4.506
17357SOL    HW153968  14.205  14.248   4.599
17357SOL    HW253969  14.115  14.267   4.479
17358SOL     OW53970   1.155   5.257  10.060
17358SOL    HW153971   1.135   5.171  10.025
17358SOL    HW253972   1.070   5.300  10.070
17359SOL     OW53973   1.338   2.890  12.862
17359SOL    HW153974   1.355   2.967  12.807
17359SOL    HW253975   1.340   2.924  12.952
17360SOL     OW53976  11.020   2.683   7.706
17360SOL    HW153977  10.939   2.722   7.673
17360SOL    HW253978  11.011   2.589   7.686
17361SOL     OW53979   2.509   8.045   3.945
17361SOL    HW153980   2.509   8.122   3.889
17361SOL    HW253981   2.443   8.063   4.011
17362SOL     OW53982  14.664   5.371   9.080
17362SOL    HW153983  14.677   5.278   9.102
17362SOL    HW253984  14.607   5.403   9.149
17363SOL     OW53985   6.334   9.753  11.229
17363SOL    HW153986   6.307   9.662  11.233
17363SOL    HW253987   6.268   9.800  11.280
17364SOL     OW53988   9.613   2.549   2.278
17364SOL    HW153989   9.599   2.604   2.200
17364SOL    HW253990   9.666   2.475   2.246
17365SOL     OW53991   5.226   4.841   5.081
17365SOL    HW153992   5.300   4.892   5.115
17365SOL    HW253993   5.259   4.752   5.074
17366SOL     OW53994  10.647   9.310  12.416
17366SOL    HW153995  10.737   9.302  12.385
17366SOL    HW253996  10.593   9.299  12.338
17367SOL     OW53997   6.913   3.072   4.342
17367SOL    HW153998   6.824   3.060   4.375
17367SOL    HW253999   6.963   3.002   4.383
17368SOL     OW54000   4.060   5.186   7.630
17368SOL    HW154001   4.123   5.163   7.698
17368SOL    HW254002   4.090   5.139   7.552
17369SOL     OW54003   7.526  12.812   5.282
17369SOL    HW154004   7.594  12.770   5.333
17369SOL    HW254005   7.555  12.902   5.272
17370SOL     OW54006   5.537   5.906   2.487
17370SOL    HW154007   5.539   5.948   2.573
17370SOL    HW254008   5.629   5.900   2.461
17371SOL     OW54009  11.780   5.342   2.937
17371SOL    HW154010  11.826   5.378   3.013
17371SOL    HW254011  11.813   5.393   2.863
17372SOL     OW54012  12.672   6.589   7.187
17372SOL    HW154013  12.767   6.598   7.180
17372SOL    HW254014  12.660   6.510   7.240
17373SOL     OW54015  14.079   9.668  10.827
17373SOL    HW154016  14.059   9.593  10.771
17373SOL    HW254017  14.010   9.731  10.807
17374SOL     OW54018   3.967   6.018   3.570
17374SOL    HW154019   3.884   6.044   3.608
17374SOL    HW254020   4.023   5.999   3.645
17375SOL     OW54021  14.767  10.613   0.801
17375SOL    HW154022  14.674  10.590   0.812
17375SOL    HW254023  14.794  10.564   0.723
17376SOL     OW54024  14.175   6.933   3.132
17376SOL    HW154025  14.227   6.966   3.204
17376SOL    HW254026  14.159   6.841   3.154
17377SOL     OW54027   3.567   9.118  11.054
17377SOL    HW154028   3.528   9.169  10.982
17377SOL    HW254029   3.584   9.032  11.016
17378SOL     OW54030  12.478   9.715   0.014
17378SOL    HW154031  12.504   9.661  14.822
17378SOL    HW254032  12.413   9.662   0.061
17379SOL     OW54033   1.880   2.296   4.497
17379SOL    HW154034   1.899   2.384   4.528
17379SOL    HW254035   1.836   2.310   4.413
17380SOL     OW54036  10.196  13.820  12.475
17380SOL    HW154037  10.175  13.910  12.501
17380SOL    HW254038  10.284  13.826  12.438
17381SOL     OW54039   6.426   0.530   0.103
17381SOL    HW154040   6.412   0.436   0.088
17381SOL    HW254041   6.445   0.565   0.016
17382SOL     OW54042  14.548   5.225  13.428
17382SOL    HW154043  14.534   5.149  13.484
17382SOL    HW254044  14.460   5.256  13.409
17383SOL     OW54045   1.428   3.312   4.296
17383SOL    HW154046   1.431   3.230   4.248
17383SOL    HW254047   1.401   3.287   4.384
17384SOL     OW54048  14.288   2.019  10.501
17384SOL    HW154049  14.196   2.005  10.519
17384SOL    HW254050  14.305   2.109  10.530
17385SOL     OW54051   2.830   9.110   3.863
17385SOL    HW154052   2.807   9.044   3.929
17385SOL    HW254053   2.906   9.073   3.818
17386SOL     OW54054   9.957   1.530   3.984
17386SOL    HW154055  10.025   1.491   4.039
17386SOL    HW254056   9.992   1.527   3.896
17387SOL     OW54057  12.352   3.505   0.862
17387SOL    HW154058  12.395   3.471   0.784
17387SOL    HW254059  12.284   3.441   0.883
17388SOL     OW54060   0.603   9.091   2.581
17388SOL    HW154061   0.613   9.146   2.504
17388SOL    HW254062   0.508   9.089   2.597
17389SOL     OW54063   3.231   5.281   9.085
17389SOL    HW154064   3.271   5.210   9.135
17389SOL    HW254065   3.137   5.259   9.083
17390SOL     OW54066   0.003  11.865   9.726
17390SOL    HW154067   0.090  11.843   9.759
17390SOL    HW254068  14.858  11.788   9.676
17391SOL     OW54069   0.620   5.007   8.432
17391SOL    HW154070   0.712   5.013   8.456
17391SOL    HW254071   0.579   5.083   8.474
17392SOL     OW54072  12.421   0.214   0.010
17392SOL    HW154073  12.425   0.229   0.104
17392SOL    HW254074  12.329   0.197  14.873
17393SOL     OW54075   2.002   1.051   5.039
17393SOL    HW154076   1.920   1.097   5.021
17393SOL    HW254077   2.065   1.120   5.058
17394SOL     OW54078   6.885  11.316   8.481
17394SOL    HW154079   6.882  11.230   8.439
17394SOL    HW254080   6.974  11.348   8.465
17395SOL     OW54081  14.402   5.063   9.161
17395SOL    HW154082  14.489   5.098   9.142
17395SOL    HW254083  14.374   5.110   9.240
17396SOL     OW54084   4.831   7.792   7.706
17396SOL    HW154085   4.798   7.729   7.641
17396SOL    HW254086   4.793   7.876   7.678
17397SOL     OW54087   0.598  12.155   7.825
17397SOL    HW154088   0.622  12.241   7.792
17397SOL    HW254089   0.576  12.169   7.917
17398SOL     OW54090   3.428   1.029  11.511
17398SOL    HW154091   3.349   1.083  11.511
17398SOL    HW254092   3.478   1.060  11.586
17399SOL     OW54093   7.663  10.624  13.389
17399SOL    HW154094   7.615  10.556  13.341
17399SOL    HW254095   7.612  10.638  13.468
17400SOL     OW54096   4.985  10.794   8.606
17400SOL    HW154097   5.034  10.788   8.525
17400SOL    HW254098   4.899  10.759   8.585
17401SOL     OW54099   2.407   2.080   4.060
17401SOL    HW154100   2.464   2.098   3.986
17401SOL    HW254101   2.360   2.001   4.036
17402SOL     OW54102   9.825   5.106   8.701
17402SOL    HW154103   9.860   5.162   8.632
17402SOL    HW254104   9.731   5.104   8.685
17403SOL     OW54105   2.113  11.804  10.538
17403SOL    HW154106   2.206  11.786  10.522
17403SOL    HW254107   2.079  11.830  10.452
17404SOL     OW54108   5.700   6.442  11.053
17404SOL    HW154109   5.620   6.492  11.062
17404SOL    HW254110   5.677   6.353  11.080
17405SOL     OW54111  11.024   7.852  10.963
17405SOL    HW154112  10.961   7.800  11.012
17405SOL    HW254113  10.978   7.875  10.882
17406SOL     OW54114   8.945  12.643  12.735
17406SOL    HW154115   8.896  12.725  12.722
17406SOL    HW254116   8.997  12.659  12.814
17407SOL     OW54117   0.725   0.090  13.571
17407SOL    HW154118   0.749  14.879  13.563
17407SOL    HW254119   0.796   0.128  13.623
17408SOL     OW54120  14.173  10.848  14.467
17408SOL    HW154121  14.116  10.877  14.539
17408SOL    HW254122  14.219  10.771  14.502
17409SOL     OW54123   7.865  14.011   8.153
17409SOL    HW154124   7.819  14.087   8.188
17409SOL    HW254125   7.953  14.043   8.133
17410SOL     OW54126   2.363   4.227  13.787
17410SOL    HW154127   2.372   4.144  13.741
17410SOL    HW254128   2.442   4.275  13.765
17411SOL     OW54129   2.370  14.675  12.299
17411SOL    HW154130   2.398  14.662  12.390
17411SOL    HW254131   2.430  14.622  12.247
17412SOL     OW54132   7.016   0.684  11.701
17412SOL    HW154133   7.096   0.634  11.690
17412SOL    HW254134   6.978   0.690  11.613
17413SOL     OW54135   6.157  13.333   9.520
17413SOL    HW154136   6.131  13.379   9.441
17413SOL    HW254137   6.109  13.376   9.591
17414SOL     OW54138  12.175   3.976  12.515
17414SOL    HW154139  12.234   3.905  12.542
17414SOL    HW254140  12.231   4.037  12.468
17415SOL     OW54141   7.313   1.591  13.145
17415SOL    HW154142   7.290   1.521  13.206
17415SOL    HW254143   7.239   1.652  13.150
17416SOL     OW54144   5.938  12.628  12.097
17416SOL    HW154145   5.940  12.567  12.171
17416SOL    HW254146   6.021  12.674  12.103
17417SOL     OW54147  10.453   0.330   8.172
17417SOL    HW154148  10.451   0.242   8.133
17417SOL    HW254149  10.402   0.384   8.112
17418SOL     OW54150   2.675   9.818   9.072
17418SOL    HW154151   2.705   9.828   8.981
17418SOL    HW254152   2.740   9.761   9.113
17419SOL     OW54153  14.826   3.573  14.134
17419SOL    HW154154  14.760   3.632  14.170
17419SOL    HW254155  14.794   3.551  14.047
17420SOL     OW54156  13.136   3.308  12.908
17420SOL    HW154157  13.217   3.358  12.918
17420SOL    HW254158  13.133   3.251  12.984
17421SOL     OW54159   6.877   0.177  14.618
17421SOL    HW154160   6.944   0.127  14.572
17421SOL    HW254161   6.848   0.243  14.555
17422SOL     OW54162  11.817   6.651   4.361
17422SOL    HW154163  11.880   6.594   4.318
17422SOL    HW254164  11.870   6.714   4.410
17423SOL     OW54165   2.097  10.359  14.623
17423SOL    HW154166   2.039  10.418  14.670
17423SOL    HW254167   2.093  10.389  14.532
17424SOL     OW54168  14.393   1.322  12.922
17424SOL    HW154169  14.471   1.290  12.876
17424SOL    HW254170  14.365   1.398  12.870
17425SOL     OW54171  14.321   2.237   7.772
17425SOL    HW154172  14.389   2.174   7.797
17425SOL    HW254173  14.242   2.203   7.814
17426SOL     OW54174  12.270   2.163   8.072
17426SOL    HW154175  12.341   2.116   8.115
17426SOL    HW254176  12.208   2.184   8.142
17427SOL     OW54177  12.571   6.259   9.919
17427SOL    HW154178  12.648   6.225   9.873
17427SOL    HW254179  12.552   6.193   9.985
17428SOL     OW54180   1.558   8.714  12.121
17428SOL    HW154181   1.639   8.663  12.124
17428SOL    HW254182   1.500   8.670  12.183
17429SOL     OW54183   0.907  11.049   5.202
17429SOL    HW154184   0.872  11.129   5.162
17429SOL    HW254185   0.897  11.062   5.296
17430SOL     OW54186   1.749  14.255   2.882
17430SOL    HW154187   1.793  14.202   2.815
17430SOL    HW254188   1.656  14.240   2.866
17431SOL     OW54189  12.050   9.152   8.844
17431SOL    HW154190  12.043   9.139   8.939
17431SOL    HW254191  11.991   9.225   8.825
17432SOL     OW54192  12.946   8.256   3.956
17432SOL    HW154193  13.019   8.194   3.967
17432SOL    HW254194  12.947   8.277   3.862
17433SOL     OW54195   3.284  14.582  11.490
17433SOL    HW154196   3.380  14.583  11.486
17433SOL    HW254197   3.264  14.613  11.578
17434SOL     OW54198   2.939   9.588  12.614
17434SOL    HW154199   2.879   9.651  12.572
17434SOL    HW254200   2.910   9.585  12.705
17435SOL     OW54201   5.014   7.248   6.564
17435SOL    HW154202   5.006   7.342   6.579
17435SOL    HW254203   5.014   7.210   6.652
17436SOL     OW54204   4.232  11.377   3.379
17436SOL    HW154205   4.239  11.424   3.462
17436SOL    HW254206   4.320  11.342   3.364
17437SOL     OW54207   3.796   8.506   1.253
17437SOL    HW154208   3.725   8.457   1.211
17437SOL    HW254209   3.819   8.454   1.330
17438SOL     OW54210  12.331   2.301  12.969
17438SOL    HW154211  12.273   2.323  13.042
17438SOL    HW254212  12.404   2.254  13.009
17439SOL     OW54213   4.362   1.590   5.461
17439SOL    HW154214   4.433   1.626   5.408
17439SOL    HW254215   4.386   1.612   5.551
17440SOL     OW54216   0.651   1.806   2.450
17440SOL    HW154217   0.605   1.804   2.534
17440SOL    HW254218   0.742   1.789   2.472
17441SOL     OW54219  14.579   8.509   4.994
17441SOL    HW154220  14.673   8.515   5.015
17441SOL    HW254221  14.566   8.577   4.928
17442SOL     OW54222   8.602  14.469  12.151
17442SOL    HW154223   8.697  14.465  12.146
17442SOL    HW254224   8.571  14.393  12.102
17443SOL     OW54225  11.544  10.843  11.413
17443SOL    HW154226  11.551  10.754  11.447
17443SOL    HW254227  11.579  10.838  11.324
17444SOL     OW54228   9.275  12.275   5.563
17444SOL    HW154229   9.257  12.208   5.630
17444SOL    HW254230   9.303  12.351   5.613
17445SOL     OW54231   1.798  10.827   4.176
17445SOL    HW154232   1.789  10.907   4.229
17445SOL    HW254233   1.890  10.826   4.149
17446SOL     OW54234   7.670  11.460   3.996
17446SOL    HW154235   7.577  11.440   4.008
17446SOL    HW254236   7.704  11.388   3.942
17447SOL     OW54237  11.624  10.620   9.581
17447SOL    HW154238  11.632  10.715   9.582
17447SOL    HW254239  11.709  10.589   9.549
17448SOL     OW54240   9.349  12.570   8.229
17448SOL    HW154241   9.263  12.613   8.221
17448SOL    HW254242   9.398  12.602   8.153
17449SOL     OW54243   3.813   1.434  11.753
17449SOL    HW154244   3.893   1.413  11.704
17449SOL    HW254245   3.820   1.528  11.769
17450SOL     OW54246   4.608   7.981   1.573
17450SOL    HW154247   4.658   7.961   1.652
17450SOL    HW254248   4.637   7.916   1.509
17451SOL     OW54249   9.676   7.094  12.891
17451SOL    HW154250   9.616   7.028  12.857
17451SOL    HW254251   9.730   7.118  12.816
17452SOL     OW54252   9.510  12.318   8.371
17452SOL    HW154253   9.598  12.329   8.408
17452SOL    HW254254   9.452  12.348   8.441
17453SOL     OW54255   4.810   5.431   4.396
17453SOL    HW154256   4.866   5.361   4.362
17453SOL    HW254257   4.763   5.464   4.320
17454SOL     OW54258   6.038  10.826   8.240
17454SOL    HW154259   6.114  10.813   8.183
17454SOL    HW254260   5.970  10.770   8.203
17455SOL     OW54261   8.672   5.909  13.993
17455SOL    HW154262   8.593   5.941  14.035
17455SOL    HW254263   8.676   5.957  13.910
17456SOL     OW54264   0.680   5.289   1.794
17456SOL    HW154265   0.658   5.335   1.713
17456SOL    HW254266   0.595   5.274   1.836
17457SOL     OW54267  13.030  10.131   4.521
17457SOL    HW154268  13.044  10.053   4.574
17457SOL    HW254269  13.005  10.199   4.583
17458SOL     OW54270  12.719   2.525   7.057
17458SOL    HW154271  12.645   2.552   7.002
17458SOL    HW254272  12.790   2.507   6.995
17459SOL     OW54273   4.161  14.458  11.113
17459SOL    HW154274   4.202  14.434  11.196
17459SOL    HW254275   4.176  14.384  11.056
17460SOL     OW54276   4.911   9.090   2.263
17460SOL    HW154277   4.986   9.038   2.292
17460SOL    HW254278   4.843   9.070   2.327
17461SOL     OW54279   9.021   2.915  13.186
17461SOL    HW154280   9.086   2.892  13.251
17461SOL    HW254281   9.014   3.010  13.192
17462SOL     OW54282  10.492  10.538   5.379
17462SOL    HW154283  10.552  10.505   5.445
17462SOL    HW254284  10.408  10.498   5.400
17463SOL     OW54285  12.714   3.901   2.984
17463SOL    HW154286  12.794   3.918   3.034
17463SOL    HW254287  12.700   3.807   2.993
17464SOL     OW54288   3.013   5.387  13.122
17464SOL    HW154289   3.044   5.303  13.086
17464SOL    HW254290   2.920   5.373  13.139
17465SOL     OW54291   6.083   1.427  13.693
17465SOL    HW154292   6.108   1.337  13.710
17465SOL    HW254293   6.166   1.476  13.697
17466SOL     OW54294  12.548  10.443   1.163
17466SOL    HW154295  12.454  10.433   1.148
17466SOL    HW254296  12.559  10.437   1.257
17467SOL     OW54297   9.853   1.985  11.595
17467SOL    HW154298   9.815   2.022  11.675
17467SOL    HW254299   9.810   1.899  11.586
17468SOL     OW54300  10.427  10.333  11.736
17468SOL    HW154301  10.483  10.263  11.771
17468SOL    HW254302  10.462  10.351  11.649
17469SOL     OW54303  11.094   1.569  14.348
17469SOL    HW154304  11.137   1.654  14.358
17469SOL    HW254305  11.075   1.563  14.254
17470SOL     OW54306  14.031   1.907   6.749
17470SOL    HW154307  14.078   1.990   6.748
17470SOL    HW254308  14.000   1.898   6.839
17471SOL     OW54309   9.036   4.629   7.558
17471SOL    HW154310   9.023   4.660   7.648
17471SOL    HW254311   8.952   4.589   7.534
17472SOL     OW54312  13.529   0.035   2.335
17472SOL    HW154313  13.516  14.831   2.296
17472SOL    HW254314  13.564   0.089   2.264
17473SOL     OW54315   9.323   9.806   4.044
17473SOL    HW154316   9.324   9.885   4.098
17473SOL    HW254317   9.322   9.734   4.108
17474SOL     OW54318  11.977   7.067   0.181
17474SOL    HW154319  12.069   7.053   0.158
17474SOL    HW254320  11.959   7.157   0.152
17475SOL     OW54321  12.211   1.207   4.692
17475SOL    HW154322  12.155   1.211   4.770
17475SOL    HW254323  12.196   1.291   4.648
17476SOL     OW54324  13.131   3.272  11.670
17476SOL    HW154325  13.120   3.344  11.731
17476SOL    HW254326  13.226   3.265  11.658
17477SOL     OW54327  13.726   1.783   4.298
17477SOL    HW154328  13.772   1.754   4.219
17477SOL    HW254329  13.633   1.782   4.273
17478SOL     OW54330   6.320   0.097  10.408
17478SOL    HW154331   6.302   0.036  10.336
17478SOL    HW254332   6.317   0.043  10.487
17479SOL     OW54333  13.428   3.487  10.800
17479SOL    HW154334  13.412   3.401  10.763
17479SOL    HW254335  13.517   3.509  10.772
17480SOL     OW54336   6.733  13.790  10.520
17480SOL    HW154337   6.783  13.737  10.582
17480SOL    HW254338   6.667  13.731  10.484
17481SOL     OW54339  12.269   5.914   0.621
17481SOL    HW154340  12.322   5.845   0.662
17481SOL    HW254341  12.235   5.965   0.695
17482SOL     OW54342  13.736   1.056  14.564
17482SOL    HW154343  13.783   1.127  14.607
17482SOL    HW254344  13.726   1.086  14.474
17483SOL     OW54345   0.734   1.521  12.890
17483SOL    HW154346   0.646   1.484  12.881
17483SOL    HW254347   0.731   1.570  12.973
17484SOL     OW54348   1.405   1.092   6.284
17484SOL    HW154349   1.483   1.036   6.283
17484SOL    HW254350   1.379   1.094   6.376
17485SOL     OW54351   1.581   7.563  13.971
17485SOL    HW154352   1.552   7.655  13.971
17485SOL    HW254353   1.668   7.565  13.931
17486SOL     OW54354   7.796   8.304   1.430
17486SOL    HW154355   7.774   8.397   1.433
17486SOL    HW254356   7.714   8.261   1.408
17487SOL     OW54357   8.217   8.032  11.667
17487SOL    HW154358   8.206   8.064  11.757
17487SOL    HW254359   8.295   8.077  11.635
17488SOL     OW54360  10.217   1.995  11.137
17488SOL    HW154361  10.208   1.901  11.153
17488SOL    HW254362  10.139   2.018  11.086
17489SOL     OW54363   1.145   4.390   4.389
17489SOL    HW154364   1.056   4.403   4.421
17489SOL    HW254365   1.135   4.332   4.314
17490SOL     OW54366   9.479  11.412   0.517
17490SOL    HW154367   9.403  11.459   0.483
17490SOL    HW254368   9.496  11.452   0.602
17491SOL     OW54369   4.681  12.485   2.216
17491SOL    HW154370   4.598  12.534   2.218
17491SOL    HW254371   4.739  12.533   2.275
17492SOL     OW54372   8.341   9.758   1.509
17492SOL    HW154373   8.351   9.740   1.603
17492SOL    HW254374   8.407   9.825   1.491
17493SOL     OW54375  13.853  11.699  12.083
17493SOL    HW154376  13.924  11.704  12.146
17493SOL    HW254377  13.776  11.678  12.135
17494SOL     OW54378   5.783   4.374   3.393
17494SOL    HW154379   5.832   4.442   3.440
17494SOL    HW254380   5.716   4.346   3.455
17495SOL     OW54381  13.804   7.520   2.065
17495SOL    HW154382  13.746   7.455   2.026
17495SOL    HW254383  13.775   7.604   2.028
17496SOL     OW54384   0.699   6.870  11.297
17496SOL    HW154385   0.640   6.919  11.353
17496SOL    HW254386   0.724   6.793  11.349
17497SOL     OW54387   2.612   0.907   1.150
17497SOL    HW154388   2.548   0.875   1.086
17497SOL    HW254389   2.605   1.002   1.146
17498SOL     OW54390  12.400  14.318   2.632
17498SOL    HW154391  12.446  14.269   2.700
17498SOL    HW254392  12.397  14.259   2.557
17499SOL     OW54393  14.090  12.591   1.601
17499SOL    HW154394  14.135  12.536   1.666
17499SOL    HW254395  14.155  12.606   1.533
17500SOL     OW54396   1.909   4.582  14.478
17500SOL    HW154397   1.985   4.580  14.420
17500SOL    HW254398   1.878   4.672  14.473
17501SOL     OW54399   2.597   0.765   4.708
17501SOL    HW154400   2.517   0.773   4.655
17501SOL    HW254401   2.573   0.703   4.777
17502SOL     OW54402   2.245   5.486   1.247
17502SOL    HW154403   2.267   5.525   1.331
17502SOL    HW254404   2.169   5.535   1.216
17503SOL     OW54405  12.667   1.880   9.997
17503SOL    HW154406  12.722   1.954   9.969
17503SOL    HW254407  12.584   1.894   9.952
17504SOL     OW54408  12.346   5.786   6.119
17504SOL    HW154409  12.426   5.809   6.166
17504SOL    HW254410  12.330   5.694   6.143
17505SOL     OW54411  11.844  10.047   3.552
17505SOL    HW154412  11.782  10.037   3.624
17505SOL    HW254413  11.797  10.015   3.475
17506SOL     OW54414  14.621   3.174  14.607
17506SOL    HW154415  14.693   3.228  14.575
17506SOL    HW254416  14.609   3.106  14.540
17507SOL     OW54417   6.308   2.417  14.387
17507SOL    HW154418   6.213   2.406  14.388
17507SOL    HW254419   6.321   2.505  14.352
17508SOL     OW54420   1.744  13.496  12.409
17508SOL    HW154421   1.720  13.439  12.335
17508SOL    HW254422   1.712  13.583  12.383
17509SOL     OW54423   8.117  11.958   7.589
17509SOL    HW154424   8.206  11.929   7.572
17509SOL    HW254425   8.062  11.901   7.536
17510SOL     OW54426   5.269   3.582   3.857
17510SOL    HW154427   5.196   3.556   3.801
17510SOL    HW254428   5.239   3.662   3.900
17511SOL     OW54429   0.315   1.672   4.465
17511SOL    HW154430   0.328   1.651   4.558
17511SOL    HW254431   0.327   1.766   4.459
17512SOL     OW54432   2.771   8.722   0.352
17512SOL    HW154433   2.833   8.687   0.288
17512SOL    HW254434   2.818   8.717   0.435
17513SOL     OW54435   5.760   4.106   8.599
17513SOL    HW154436   5.796   4.073   8.682
17513SOL    HW254437   5.775   4.200   8.602
17514SOL     OW54438  10.898  12.687  10.335
17514SOL    HW154439  10.861  12.605  10.368
17514SOL    HW254440  10.888  12.749  10.408
17515SOL     OW54441   0.026   2.182   0.796
17515SOL    HW154442  14.863   2.108   0.835
17515SOL    HW254443   0.083   2.216   0.865
17516SOL     OW54444   0.942  10.626   3.274
17516SOL    HW154445   1.003  10.590   3.210
17516SOL    HW254446   0.864  10.647   3.225
17517SOL     OW54447  12.092   5.644   2.521
17517SOL    HW154448  12.148   5.623   2.597
17517SOL    HW254449  12.115   5.735   2.500
17518SOL     OW54450  12.580  12.981   5.505
17518SOL    HW154451  12.497  13.024   5.485
17518SOL    HW254452  12.568  12.891   5.474
17519SOL     OW54453   6.323   9.889  14.276
17519SOL    HW154454   6.415   9.863  14.275
17519SOL    HW254455   6.274   9.808  14.268
17520SOL     OW54456   3.509   8.973   7.711
17520SOL    HW154457   3.595   9.013   7.718
17520SOL    HW254458   3.526   8.879   7.703
17521SOL     OW54459   7.421   2.470   7.614
17521SOL    HW154460   7.328   2.495   7.612
17521SOL    HW254461   7.468   2.554   7.617
17522SOL     OW54462  10.251   7.000   2.262
17522SOL    HW154463  10.343   6.976   2.259
17522SOL    HW254464  10.250   7.096   2.258
17523SOL     OW54465   2.709   7.619   1.705
17523SOL    HW154466   2.724   7.697   1.653
17523SOL    HW254467   2.636   7.641   1.762
17524SOL     OW54468  12.107  14.556  13.482
17524SOL    HW154469  12.159  14.552  13.562
17524SOL    HW254470  12.147  14.626  13.431
17525SOL     OW54471  11.543   3.688   0.031
17525SOL    HW154472  11.503   3.658  14.832
17525SOL    HW254473  11.637   3.694   0.011
17526SOL     OW54474  12.279   1.278   9.446
17526SOL    HW154475  12.277   1.326   9.529
17526SOL    HW254476  12.287   1.186   9.471
17527SOL     OW54477   6.569   9.400   9.412
17527SOL    HW154478   6.637   9.442   9.361
17527SOL    HW254479   6.593   9.417   9.503
17528SOL     OW54480   8.674   2.479  12.402
17528SOL    HW154481   8.756   2.459  12.447
17528SOL    HW254482   8.655   2.570  12.425
17529SOL     OW54483  13.689  11.180   0.160
17529SOL    HW154484  13.663  11.244   0.094
17529SOL    HW254485  13.618  11.115   0.159
17530SOL     OW54486  14.084   8.552  12.474
17530SOL    HW154487  14.030   8.486  12.431
17530SOL    HW254488  14.035   8.634  12.464
17531SOL     OW54489   1.996   6.415   7.724
17531SOL    HW154490   1.976   6.480   7.657
17531SOL    HW254491   2.028   6.339   7.676
17532SOL     OW54492   2.493  10.746   5.847
17532SOL    HW154493   2.466  10.837   5.863
17532SOL    HW254494   2.471  10.701   5.929
17533SOL     OW54495   3.972   0.454   9.243
17533SOL    HW154496   3.958   0.409   9.327
17533SOL    HW254497   4.060   0.429   9.217
17534SOL     OW54498   2.602   3.491  10.920
17534SOL    HW154499   2.623   3.494  11.013
17534SOL    HW254500   2.601   3.582  10.892
17535SOL     OW54501   2.274  13.338  12.923
17535SOL    HW154502   2.314  13.261  12.881
17535SOL    HW254503   2.324  13.412  12.889
17536SOL     OW54504   9.203  11.053  10.554
17536SOL    HW154505   9.182  11.121  10.619
17536SOL    HW254506   9.284  11.083  10.514
17537SOL     OW54507  10.269   5.036  10.910
17537SOL    HW154508  10.182   5.068  10.932
17537SOL    HW254509  10.325   5.069  10.980
17538SOL     OW54510   1.866   6.481   0.144
17538SOL    HW154511   1.825   6.396   0.160
17538SOL    HW254512   1.960   6.465   0.154
17539SOL     OW54513   7.369   2.675   5.374
17539SOL    HW154514   7.413   2.604   5.421
17539SOL    HW254515   7.417   2.754   5.398
17540SOL     OW54516   3.541   8.763   1.316
17540SOL    HW154517   3.541   8.856   1.290
17540SOL    HW254518   3.633   8.744   1.332
17541SOL     OW54519  13.040   3.406   1.595
17541SOL    HW154520  13.070   3.384   1.506
17541SOL    HW254521  13.110   3.375   1.652
17542SOL     OW54522   6.033  13.128  11.663
17542SOL    HW154523   6.035  13.105  11.569
17542SOL    HW254524   6.027  13.043  11.707
17543SOL     OW54525  13.875   9.219   9.119
17543SOL    HW154526  13.818   9.241   9.045
17543SOL    HW254527  13.959   9.260   9.097
17544SOL     OW54528  14.541   0.752   4.812
17544SOL    HW154529  14.504   0.774   4.726
17544SOL    HW254530  14.469   0.709   4.859
17545SOL     OW54531  10.488   2.848  11.826
17545SOL    HW154532  10.580   2.823  11.825
17545SOL    HW254533  10.448   2.791  11.892
17546SOL     OW54534   9.176  11.770   1.787
17546SOL    HW154535   9.264  11.779   1.824
17546SOL    HW254536   9.182  11.695   1.727
17547SOL     OW54537   8.028  11.625   3.527
17547SOL    HW154538   7.942  11.584   3.522
17547SOL    HW254539   8.087  11.554   3.552
17548SOL     OW54540  13.295  12.098   1.074
17548SOL    HW154541  13.203  12.123   1.075
17548SOL    HW254542  13.296  12.010   1.035
17549SOL     OW54543   6.891  11.044   3.875
17549SOL    HW154544   6.899  11.088   3.960
17549SOL    HW254545   6.799  11.021   3.868
17550SOL     OW54546  12.687  12.616   1.072
17550SOL    HW154547  12.708  12.527   1.044
17550SOL    HW254548  12.657  12.660   0.993
17551SOL     OW54549  11.659  13.296   9.006
17551SOL    HW154550  11.691  13.322   8.920
17551SOL    HW254551  11.662  13.376   9.058
17552SOL     OW54552   9.032   1.086  11.425
17552SOL    HW154553   9.036   1.131  11.509
17552SOL    HW254554   8.944   1.102  11.393
17553SOL     OW54555  14.774   2.460   3.122
17553SOL    HW154556  14.788   2.423   3.210
17553SOL    HW254557  14.862   2.487   3.094
17554SOL     OW54558  12.153  10.460   4.545
17554SOL    HW154559  12.107  10.395   4.491
17554SOL    HW254560  12.187  10.523   4.482
17555SOL     OW54561   6.756   5.465   0.828
17555SOL    HW154562   6.842   5.491   0.861
17555SOL    HW254563   6.694   5.510   0.886
17556SOL     OW54564  11.976  14.295   4.354
17556SOL    HW154565  11.980  14.387   4.326
17556SOL    HW254566  11.887  14.283   4.385
17557SOL     OW54567   8.890   9.175   2.813
17557SOL    HW154568   8.879   9.109   2.881
17557SOL    HW254569   8.842   9.251   2.845
17558SOL     OW54570   6.410  10.753   1.727
17558SOL    HW154571   6.466  10.708   1.663
17558SOL    HW254572   6.330  10.773   1.678
17559SOL     OW54573   7.656   7.756   7.774
17559SOL    HW154574   7.700   7.732   7.856
17559SOL    HW254575   7.563   7.758   7.797
17560SOL     OW54576   6.432   6.537  12.358
17560SOL    HW154577   6.458   6.513  12.269
17560SOL    HW254578   6.336   6.528  12.358
17561SOL     OW54579   3.095   1.720  11.737
17561SOL    HW154580   3.182   1.687  11.760
17561SOL    HW254581   3.041   1.700  11.813
17562SOL     OW54582   9.379   3.699   1.418
17562SOL    HW154583   9.285   3.703   1.398
17562SOL    HW254584   9.394   3.772   1.478
17563SOL     OW54585   8.088  14.131   8.033
17563SOL    HW154586   8.174  14.121   7.992
17563SOL    HW254587   8.096  14.212   8.085
17564SOL     OW54588   1.277  13.984   9.120
17564SOL    HW154589   1.211  14.001   9.053
17564SOL    HW254590   1.228  13.972   9.201
17565SOL     OW54591   0.959  11.264   9.836
17565SOL    HW154592   0.964  11.351   9.875
17565SOL    HW254593   0.870  11.258   9.802
17566SOL     OW54594   5.002   6.949  12.615
17566SOL    HW154595   4.986   7.034  12.574
17566SOL    HW254596   4.916   6.906  12.612
17567SOL     OW54597   6.549  13.539  10.111
17567SOL    HW154598   6.614  13.609  10.104
17567SOL    HW254599   6.479  13.576  10.165
17568SOL     OW54600   4.971   6.813   5.112
17568SOL    HW154601   5.015   6.756   5.049
17568SOL    HW254602   4.881   6.779   5.115
17569SOL     OW54603   2.640   4.668  11.992
17569SOL    HW154604   2.617   4.576  12.004
17569SOL    HW254605   2.710   4.684  12.056
17570SOL     OW54606  14.823   4.673   2.242
17570SOL    HW154607  14.853   4.650   2.331
17570SOL    HW254608   0.021   4.676   2.190
17571SOL     OW54609   3.981   0.786   1.365
17571SOL    HW154610   4.015   0.763   1.451
17571SOL    HW254611   3.909   0.846   1.383
17572SOL     OW54612   7.019   1.325  12.457
17572SOL    HW154613   7.015   1.392  12.525
17572SOL    HW254614   7.112   1.322  12.432
17573SOL     OW54615   0.761   8.982   7.975
17573SOL    HW154616   0.667   8.968   7.974
17573SOL    HW254617   0.787   8.982   7.883
17574SOL     OW54618   1.791   4.023   9.264
17574SOL    HW154619   1.785   4.111   9.228
17574SOL    HW254620   1.838   4.034   9.347
17575SOL     OW54621   8.425  11.773  10.961
17575SOL    HW154622   8.503  11.738  11.005
17575SOL    HW254623   8.457  11.842  10.905
17576SOL     OW54624   6.601   0.485  12.868
17576SOL    HW154625   6.628   0.576  12.859
17576SOL    HW254626   6.683   0.435  12.872
17577SOL     OW54627  12.980  12.113  10.366
17577SOL    HW154628  13.019  12.180  10.421
17577SOL    HW254629  12.943  12.050  10.427
17578SOL     OW54630   4.965   6.648   6.721
17578SOL    HW154631   5.043   6.700   6.743
17578SOL    HW254632   4.892   6.706   6.743
17579SOL     OW54633   2.340   7.906   9.118
17579SOL    HW154634   2.344   7.999   9.139
17579SOL    HW254635   2.253   7.878   9.145
17580SOL     OW54636  13.202  11.050   9.276
17580SOL    HW154637  13.191  10.963   9.238
17580SOL    HW254638  13.275  11.042   9.336
17581SOL     OW54639   3.819   3.727  11.540
17581SOL    HW154640   3.904   3.762  11.565
17581SOL    HW254641   3.821   3.636  11.570
17582SOL     OW54642   8.397  12.904   1.323
17582SOL    HW154643   8.464  12.840   1.345
17582SOL    HW254644   8.434  12.953   1.250
17583SOL     OW54645   5.694   6.003   6.534
17583SOL    HW154646   5.632   5.938   6.567
17583SOL    HW254647   5.661   6.026   6.447
17584SOL     OW54648   0.978  13.356   0.502
17584SOL    HW154649   0.993  13.340   0.409
17584SOL    HW254650   1.042  13.424   0.525
17585SOL     OW54651   0.068   5.293  12.370
17585SOL    HW154652   0.111   5.361  12.318
17585SOL    HW254653   0.059   5.331  12.457
17586SOL     OW54654  12.914  10.454   5.053
17586SOL    HW154655  13.009  10.440   5.053
17586SOL    HW254656  12.888  10.439   5.144
17587SOL     OW54657   5.787  12.267   1.855
17587SOL    HW154658   5.835  12.294   1.776
17587SOL    HW254659   5.853  12.270   1.925
17588SOL     OW54660  11.860   5.252  12.278
17588SOL    HW154661  11.845   5.276  12.369
17588SOL    HW254662  11.841   5.333  12.229
17589SOL     OW54663   5.997  14.717  10.194
17589SOL    HW154664   5.996  14.623  10.177
17589SOL    HW254665   6.090  14.741  10.194
17590SOL     OW54666   1.871   4.847  14.222
17590SOL    HW154667   1.964   4.826  14.231
17590SOL    HW254668   1.861   4.877  14.131
17591SOL     OW54669  12.425   4.580   2.198
17591SOL    HW154670  12.467   4.501   2.164
17591SOL    HW254671  12.416   4.564   2.292
17592SOL     OW54672   4.814   0.305  13.953
17592SOL    HW154673   4.802   0.292  14.047
17592SOL    HW254674   4.738   0.357  13.927
17593SOL     OW54675   1.568   6.742   2.901
17593SOL    HW154676   1.490   6.750   2.955
17593SOL    HW254677   1.641   6.748   2.963
17594SOL     OW54678   1.664  14.192   9.615
17594SOL    HW154679   1.679  14.140   9.536
17594SOL    HW254680   1.681  14.132   9.687
17595SOL     OW54681   1.576   3.085  12.251
17595SOL    HW154682   1.516   3.045  12.189
17595SOL    HW254683   1.660   3.088  12.205
17596SOL     OW54684   2.286   9.627   8.792
17596SOL    HW154685   2.310   9.593   8.878
17596SOL    HW254686   2.252   9.715   8.810
17597SOL     OW54687   8.475   9.533   4.795
17597SOL    HW154688   8.383   9.554   4.805
17597SOL    HW254689   8.521   9.614   4.814
17598SOL     OW54690   8.965   5.047   6.218
17598SOL    HW154691   8.958   5.076   6.128
17598SOL    HW254692   8.962   4.952   6.213
17599SOL     OW54693   1.335  10.769   0.146
17599SOL    HW154694   1.419  10.805   0.174
17599SOL    HW254695   1.299  10.729   0.225
17600SOL     OW54696  14.688   1.345  14.530
17600SOL    HW154697  14.742   1.365  14.453
17600SOL    HW254698  14.663   1.431  14.565
17601SOL     OW54699  12.813   3.498   6.333
17601SOL    HW154700  12.891   3.530   6.288
17601SOL    HW254701  12.841   3.415   6.373
17602SOL     OW54702   8.961   2.070   1.150
17602SOL    HW154703   9.021   2.143   1.137
17602SOL    HW254704   9.015   1.992   1.146
17603SOL     OW54705   4.964   7.520   6.615
17603SOL    HW154706   4.893   7.566   6.659
17603SOL    HW254707   5.042   7.573   6.633
17604SOL     OW54708   8.780  12.117  13.747
17604SOL    HW154709   8.830  12.178  13.801
17604SOL    HW254710   8.719  12.075  13.808
17605SOL     OW54711  13.225   5.322  12.548
17605SOL    HW154712  13.188   5.289  12.630
17605SOL    HW254713  13.253   5.243  12.502
17606SOL     OW54714   8.016  12.152  13.816
17606SOL    HW154715   7.939  12.197  13.849
17606SOL    HW254716   8.078  12.222  13.797
17607SOL     OW54717   0.036   2.286   6.426
17607SOL    HW154718  14.851   2.218   6.434
17607SOL    HW254719   0.020   2.344   6.500
17608SOL     OW54720   8.779  14.266  10.318
17608SOL    HW154721   8.791  14.361  10.328
17608SOL    HW254722   8.773  14.253  10.224
17609SOL     OW54723  12.301   5.118  12.600
17609SOL    HW154724  12.342   5.124  12.687
17609SOL    HW254725  12.303   5.207  12.567
17610SOL     OW54726   4.754   5.486   9.771
17610SOL    HW154727   4.767   5.404   9.818
17610SOL    HW254728   4.753   5.553   9.840
17611SOL     OW54729  13.361   2.439  12.138
17611SOL    HW154730  13.404   2.469  12.218
17611SOL    HW254731  13.403   2.488  12.068
17612SOL     OW54732   3.909   8.798   3.258
17612SOL    HW154733   3.827   8.839   3.285
17612SOL    HW254734   3.883   8.733   3.193
17613SOL     OW54735  11.097   4.760   3.456
17613SOL    HW154736  11.136   4.841   3.422
17613SOL    HW254737  11.016   4.788   3.499
17614SOL     OW54738   2.419  13.967  11.123
17614SOL    HW154739   2.343  14.016  11.092
17614SOL    HW254740   2.458  13.930  11.044
17615SOL     OW54741   8.535  11.464   7.283
17615SOL    HW154742   8.509  11.522   7.355
17615SOL    HW254743   8.609  11.414   7.317
17616SOL     OW54744   9.681   5.615   4.856
17616SOL    HW154745   9.664   5.621   4.762
17616SOL    HW254746   9.711   5.525   4.869
17617SOL     OW54747   6.205   5.805   8.269
17617SOL    HW154748   6.279   5.861   8.246
17617SOL    HW254749   6.179   5.833   8.357
17618SOL     OW54750   6.560  14.430   8.736
17618SOL    HW154751   6.594  14.437   8.647
17618SOL    HW254752   6.477  14.383   8.727
17619SOL     OW54753   3.707   9.113   0.997
17619SOL    HW154754   3.760   9.177   0.950
17619SOL    HW254755   3.618   9.128   0.964
17620SOL     OW54756   4.496  14.341   1.047
17620SOL    HW154757   4.537  14.293   1.119
17620SOL    HW254758   4.403  14.320   1.054
17621SOL     OW54759  11.813   3.811  13.497
17621SOL    HW154760  11.853   3.788  13.581
17621SOL    HW254761  11.740   3.749  13.488
17622SOL     OW54762  11.722   6.002  13.418
17622SOL    HW154763  11.785   5.972  13.483
17622SOL    HW254764  11.767   5.994  13.334
17623SOL     OW54765  14.038  10.795  14.741
17623SOL    HW154766  13.953  10.818  14.779
17623SOL    HW254767  14.041  10.700  14.744
17624SOL     OW54768   6.060   8.152  14.255
17624SOL    HW154769   6.045   8.213  14.328
17624SOL    HW254770   6.042   8.066  14.291
17625SOL     OW54771  12.142   4.571   0.549
17625SOL    HW154772  12.108   4.487   0.517
17625SOL    HW254773  12.075   4.635   0.522
17626SOL     OW54774   3.723  10.111   3.764
17626SOL    HW154775   3.779  10.040   3.797
17626SOL    HW254776   3.649  10.113   3.825
17627SOL     OW54777   5.234   1.480   1.521
17627SOL    HW154778   5.198   1.437   1.443
17627SOL    HW254779   5.244   1.409   1.584
17628SOL     OW54780  12.199   2.776  13.029
17628SOL    HW154781  12.200   2.872  13.035
17628SOL    HW254782  12.264   2.748  13.093
17629SOL     OW54783  10.718  11.747   0.503
17629SOL    HW154784  10.782  11.801   0.457
17629SOL    HW254785  10.670  11.702   0.434
17630SOL     OW54786   3.615  14.799  11.775
17630SOL    HW154787   3.635  14.870  11.836
17630SOL    HW254788   3.576  14.843  11.700
17631SOL     OW54789   6.550  10.745  11.927
17631SOL    HW154790   6.599  10.775  11.851
17631SOL    HW254791   6.566  10.651  11.932
17632SOL     OW54792   9.047  11.478   6.873
17632SOL    HW154793   9.121  11.520   6.829
17632SOL    HW254794   8.976  11.482   6.810
17633SOL     OW54795  10.856   0.130   9.987
17633SOL    HW154796  10.777   0.108   9.939
17633SOL    HW254797  10.897   0.200   9.936
17634SOL     OW54798  13.206   6.563   3.764
17634SOL    HW154799  13.259   6.529   3.692
17634SOL    HW254800  13.180   6.484   3.813
17635SOL     OW54801   1.746  12.656   3.743
17635SOL    HW154802   1.749  12.752   3.740
17635SOL    HW254803   1.736  12.635   3.836
17636SOL     OW54804   4.351   8.327  13.765
17636SOL    HW154805   4.312   8.410  13.795
17636SOL    HW254806   4.445   8.339  13.777
17637SOL     OW54807   7.148   6.740   2.876
17637SOL    HW154808   7.215   6.695   2.824
17637SOL    HW254809   7.074   6.751   2.815
17638SOL     OW54810   7.762  12.345   8.542
17638SOL    HW154811   7.803  12.404   8.606
17638SOL    HW254812   7.833  12.322   8.482
17639SOL     OW54813   9.850   2.077   9.303
17639SOL    HW154814   9.765   2.116   9.321
17639SOL    HW254815   9.890   2.134   9.238
17640SOL     OW54816   2.588   4.833   2.248
17640SOL    HW154817   2.579   4.915   2.296
17640SOL    HW254818   2.627   4.773   2.312
17641SOL     OW54819   9.733  12.717  12.366
17641SOL    HW154820   9.799  12.701  12.433
17641SOL    HW254821   9.741  12.811  12.346
17642SOL     OW54822  12.093   0.613  10.083
17642SOL    HW154823  12.116   0.638   9.994
17642SOL    HW254824  12.143   0.674  10.138
17643SOL     OW54825   0.490  12.933   9.872
17643SOL    HW154826   0.521  13.002   9.930
17643SOL    HW254827   0.490  12.973   9.785
17644SOL     OW54828   9.025  10.132   5.274
17644SOL    HW154829   9.031  10.036   5.266
17644SOL    HW254830   9.005  10.147   5.366
17645SOL     OW54831   9.781   0.474  11.910
17645SOL    HW154832   9.760   0.401  11.967
17645SOL    HW254833   9.875   0.490  11.925
17646SOL     OW54834   3.375   4.834   6.924
17646SOL    HW154835   3.383   4.930   6.923
17646SOL    HW254836   3.449   4.803   6.873
17647SOL     OW54837   4.648   7.983   0.540
17647SOL    HW154838   4.613   7.973   0.628
17647SOL    HW254839   4.742   7.997   0.552
17648SOL     OW54840  12.800   5.591   3.614
17648SOL    HW154841  12.712   5.629   3.621
17648SOL    HW254842  12.819   5.592   3.520
17649SOL     OW54843   3.407  11.251   4.626
17649SOL    HW154844   3.337  11.296   4.578
17649SOL    HW254845   3.370  11.234   4.713
17650SOL     OW54846  10.893   6.604  10.958
17650SOL    HW154847  10.850   6.661  11.022
17650SOL    HW254848  10.878   6.648  10.874
17651SOL     OW54849  14.855   7.791   9.085
17651SOL    HW154850   0.055   7.827   9.116
17651SOL    HW254851  14.840   7.833   9.000
17652SOL     OW54852  12.453   2.120  12.719
17652SOL    HW154853  12.416   2.088  12.636
17652SOL    HW254854  12.379   2.162  12.764
17653SOL     OW54855   2.299   8.375   2.418
17653SOL    HW154856   2.283   8.381   2.323
17653SOL    HW254857   2.275   8.461   2.452
17654SOL     OW54858   5.018   6.887   4.715
17654SOL    HW154859   5.001   6.945   4.640
17654SOL    HW254860   5.111   6.864   4.708
17655SOL     OW54861   3.062  11.431  11.348
17655SOL    HW154862   3.137  11.488  11.368
17655SOL    HW254863   3.099  11.364  11.290
17656SOL     OW54864   5.005   5.763   8.485
17656SOL    HW154865   4.999   5.682   8.434
17656SOL    HW254866   5.009   5.734   8.576
17657SOL     OW54867  14.027   3.942   2.625
17657SOL    HW154868  14.007   3.856   2.588
17657SOL    HW254869  14.077   3.923   2.704
17658SOL     OW54870   2.432  12.947   9.790
17658SOL    HW154871   2.478  13.025   9.820
17658SOL    HW254872   2.391  12.912   9.869
17659SOL     OW54873   8.973   8.511   3.840
17659SOL    HW154874   9.002   8.443   3.780
17659SOL    HW254875   9.051   8.534   3.891
17660SOL     OW54876   3.038   6.290  10.212
17660SOL    HW154877   2.987   6.324  10.285
17660SOL    HW254878   3.000   6.203  10.195
17661SOL     OW54879   9.749   2.508   3.822
17661SOL    HW154880   9.810   2.578   3.845
17661SOL    HW254881   9.770   2.436   3.880
17662SOL     OW54882  13.961   8.440   8.856
17662SOL    HW154883  13.903   8.471   8.787
17662SOL    HW254884  13.943   8.497   8.930
17663SOL     OW54885   5.105  11.576  13.120
17663SOL    HW154886   5.021  11.614  13.144
17663SOL    HW254887   5.083  11.506  13.058
17664SOL     OW54888   7.362   9.127   7.900
17664SOL    HW154889   7.436   9.090   7.947
17664SOL    HW254890   7.313   9.052   7.867
17665SOL     OW54891  10.970   7.961  14.160
17665SOL    HW154892  10.900   8.001  14.110
17665SOL    HW254893  10.926   7.923  14.236
17666SOL     OW54894   3.215   8.636   2.128
17666SOL    HW154895   3.188   8.718   2.086
17666SOL    HW254896   3.222   8.573   2.057
17667SOL     OW54897   7.282   2.087   7.738
17667SOL    HW154898   7.370   2.054   7.716
17667SOL    HW254899   7.293   2.133   7.821
17668SOL     OW54900   5.619   3.057   9.557
17668SOL    HW154901   5.645   3.148   9.543
17668SOL    HW254902   5.605   3.050   9.652
17669SOL     OW54903   9.576  14.205   0.953
17669SOL    HW154904   9.570  14.125   0.900
17669SOL    HW254905   9.512  14.264   0.914
17670SOL     OW54906   1.756   3.760  11.727
17670SOL    HW154907   1.756   3.665  11.719
17670SOL    HW254908   1.840   3.788  11.691
17671SOL     OW54909  14.776  11.700   1.808
17671SOL    HW154910  14.783  11.639   1.735
17671SOL    HW254911  14.854  11.755   1.801
17672SOL     OW54912  14.739  11.697   2.712
17672SOL    HW154913  14.803  11.737   2.653
17672SOL    HW254914  14.751  11.743   2.795
17673SOL     OW54915   3.356   1.732  13.071
17673SOL    HW154916   3.370   1.648  13.115
17673SOL    HW254917   3.394   1.797  13.130
17674SOL     OW54918   7.093  10.713   8.562
17674SOL    HW154919   6.997  10.718   8.561
17674SOL    HW254920   7.112  10.620   8.576
17675SOL     OW54921  14.727   9.802   8.934
17675SOL    HW154922  14.742   9.887   8.976
17675SOL    HW254923  14.812   9.779   8.897
17676SOL     OW54924  13.183   6.059   3.872
17676SOL    HW154925  13.090   6.049   3.853
17676SOL    HW254926  13.191   6.040   3.965
17677SOL     OW54927  14.854   9.048  13.147
17677SOL    HW154928   0.037   9.010  13.088
17677SOL    HW254929   0.024   9.088  13.216
17678SOL     OW54930  10.199   0.087  12.355
17678SOL    HW154931  10.248   0.163  12.325
17678SOL    HW254932  10.109   0.118  12.364
17679SOL     OW54933  10.420   8.725  14.367
17679SOL    HW154934  10.505   8.715  14.410
17679SOL    HW254935  10.417   8.817  14.342
17680SOL     OW54936   0.935   9.868  14.236
17680SOL    HW154937   0.887   9.925  14.176
17680SOL    HW254938   1.027   9.881  14.214
17681SOL     OW54939   1.349  14.676  12.889
17681SOL    HW154940   1.263  14.645  12.916
17681SOL    HW254941   1.358  14.647  12.798
17682SOL     OW54942   9.921   2.383   5.280
17682SOL    HW154943   9.872   2.445   5.226
17682SOL    HW254944   9.924   2.303   5.227
17683SOL     OW54945   6.439   6.487   9.639
17683SOL    HW154946   6.430   6.398   9.673
17683SOL    HW254947   6.408   6.543   9.710
17684SOL     OW54948  12.901   3.971   7.981
17684SOL    HW154949  12.859   4.039   8.035
17684SOL    HW254950  12.973   3.939   8.036
17685SOL     OW54951   3.543  13.872   8.838
17685SOL    HW154952   3.475  13.843   8.778
17685SOL    HW254953   3.604  13.798   8.843
17686SOL     OW54954   7.540   0.379   3.849
17686SOL    HW154955   7.519   0.467   3.818
17686SOL    HW254956   7.528   0.323   3.772
17687SOL     OW54957   2.367   6.058  12.791
17687SOL    HW154958   2.343   5.968  12.814
17687SOL    HW254959   2.368   6.058  12.695
17688SOL     OW54960  11.353  14.622  13.358
17688SOL    HW154961  11.385  14.701  13.401
17688SOL    HW254962  11.276  14.596  13.409
17689SOL     OW54963  12.314   5.792   8.402
17689SOL    HW154964  12.395   5.800   8.351
17689SOL    HW254965  12.301   5.879   8.441
17690SOL     OW54966   4.014  13.117  13.617
17690SOL    HW154967   3.976  13.039  13.656
17690SOL    HW254968   3.941  13.179  13.609
17691SOL     OW54969   1.356   6.581   1.995
17691SOL    HW154970   1.306   6.537   1.927
17691SOL    HW254971   1.447   6.574   1.967
17692SOL     OW54972   3.405   6.525   5.484
17692SOL    HW154973   3.335   6.548   5.424
17692SOL    HW254974   3.414   6.430   5.475
17693SOL     OW54975   2.222   6.018   7.825
17693SOL    HW154976   2.183   5.985   7.907
17693SOL    HW254977   2.311   5.982   7.826
17694SOL     OW54978  11.732  11.903  13.174
17694SOL    HW154979  11.728  11.906  13.269
17694SOL    HW254980  11.806  11.845  13.154
17695SOL     OW54981  11.344  10.618   6.275
17695SOL    HW154982  11.264  10.631   6.326
17695SOL    HW254983  11.396  10.698   6.291
17696SOL     OW54984   1.645   8.522  11.410
17696SOL    HW154985   1.658   8.615  11.389
17696SOL    HW254986   1.618   8.483  11.328
17697SOL     OW54987  10.574   8.320  11.552
17697SOL    HW154988  10.588   8.335  11.458
17697SOL    HW254989  10.528   8.236  11.557
17698SOL     OW54990  13.127   4.876  13.144
17698SOL    HW154991  13.097   4.787  13.164
17698SOL    HW254992  13.222   4.872  13.153
17699SOL     OW54993   2.810  13.108  10.511
17699SOL    HW154994   2.717  13.129  10.519
17699SOL    HW254995   2.811  13.015  10.489
17700SOL     OW54996   0.265   8.918   7.136
17700SOL    HW154997   0.271   9.012   7.155
17700SOL    HW254998   0.222   8.880   7.213
17701SOL     OW54999   6.370   8.235   1.773
17701SOL    HW155000   6.313   8.279   1.836
17701SOL    HW255001   6.328   8.150   1.758
17702SOL     OW55002   9.375   6.031   3.005
17702SOL    HW155003   9.283   6.049   2.984
17702SOL    HW255004   9.372   5.983   3.088
17703SOL     OW55005   7.971  12.650  10.654
17703SOL    HW155006   7.920  12.649  10.572
17703SOL    HW255007   8.035  12.580  10.643
17704SOL     OW55008  13.100   9.196   6.571
17704SOL    HW155009  13.113   9.113   6.525
17704SOL    HW255010  13.167   9.197   6.640
17705SOL     OW55011  11.253  10.317  12.387
17705SOL    HW155012  11.349  10.312  12.378
17705SOL    HW255013  11.240  10.376  12.461
17706SOL     OW55014   2.039   7.931  10.024
17706SOL    HW155015   2.099   7.912  10.096
17706SOL    HW255016   1.954   7.943  10.065
17707SOL     OW55017   0.230   6.286   0.971
17707SOL    HW155018   0.165   6.224   0.937
17707SOL    HW255019   0.234   6.267   1.064
17708SOL     OW55020   8.412   2.779  14.046
17708SOL    HW155021   8.455   2.748  13.966
17708SOL    HW255022   8.399   2.699  14.098
17709SOL     OW55023   2.775  12.651   4.591
17709SOL    HW155024   2.729  12.723   4.635
17709SOL    HW255025   2.710  12.612   4.533
17710SOL     OW55026   0.616   1.592  10.169
17710SOL    HW155027   0.677   1.548  10.228
17710SOL    HW255028   0.596   1.526  10.102
17711SOL     OW55029  11.263   4.709   7.226
17711SOL    HW155030  11.171   4.689   7.244
17711SOL    HW255031  11.269   4.804   7.232
17712SOL     OW55032  13.418  14.826   2.014
17712SOL    HW155033  13.461  14.750   2.053
17712SOL    HW255034  13.337  14.836   2.065
17713SOL     OW55035  13.194   6.895  14.323
17713SOL    HW155036  13.194   6.803  14.297
17713SOL    HW255037  13.284   6.912  14.351
17714SOL     OW55038   5.876   2.550   2.335
17714SOL    HW155039   5.962   2.538   2.297
17714SOL    HW255040   5.884   2.628   2.390
17715SOL     OW55041  12.448   1.433  11.579
17715SOL    HW155042  12.437   1.439  11.484
17715SOL    HW255043  12.540   1.412  11.591
17716SOL     OW55044   0.130   3.821   4.411
17716SOL    HW155045   0.107   3.739   4.455
17716SOL    HW255046   0.046   3.859   4.385
17717SOL     OW55047   7.948   9.138  11.560
17717SOL    HW155048   7.900   9.170  11.636
17717SOL    HW255049   7.948   9.043  11.568
17718SOL     OW55050   9.808   9.505   4.930
17718SOL    HW155051   9.876   9.518   4.864
17718SOL    HW255052   9.820   9.577   4.991
17719SOL     OW55053   5.875   6.729   2.965
17719SOL    HW155054   5.834   6.794   3.021
17719SOL    HW255055   5.969   6.739   2.981
17720SOL     OW55056   1.585   9.149   5.841
17720SOL    HW155057   1.565   9.242   5.839
17720SOL    HW255058   1.608   9.126   5.751
17721SOL     OW55059   3.648   3.341  10.219
17721SOL    HW155060   3.624   3.323  10.310
17721SOL    HW255061   3.568   3.323  10.169
17722SOL     OW55062  11.603   5.238   9.304
17722SOL    HW155063  11.583   5.301   9.374
17722SOL    HW255064  11.521   5.229   9.256
17723SOL     OW55065   1.336   9.381   7.257
17723SOL    HW155066   1.355   9.359   7.348
17723SOL    HW255067   1.253   9.427   7.259
17724SOL     OW55068   7.322   9.373  13.011
17724SOL    HW155069   7.271   9.452  12.994
17724SOL    HW255070   7.268   9.302  12.978
17725SOL     OW55071  14.492  10.756  14.774
17725SOL    HW155072  14.479  10.779  14.682
17725SOL    HW255073  14.484  10.839  14.821
17726SOL     OW55074   2.856  10.862   7.312
17726SOL    HW155075   2.889  10.799   7.248
17726SOL    HW255076   2.810  10.928   7.259
17727SOL     OW55077   6.180  12.956   6.382
17727SOL    HW155078   6.269  12.961   6.348
17727SOL    HW255079   6.185  13.000   6.467
17728SOL     OW55080   4.507   9.650   0.589
17728SOL    HW155081   4.590   9.698   0.591
17728SOL    HW255082   4.533   9.558   0.590
17729SOL     OW55083  10.363   4.473   8.246
17729SOL    HW155084  10.373   4.566   8.263
17729SOL    HW255085  10.432   4.432   8.299
17730SOL     OW55086   8.065  10.007   1.442
17730SOL    HW155087   8.119  10.060   1.384
17730SOL    HW255088   7.975  10.031   1.420
17731SOL     OW55089  13.043   5.198   8.647
17731SOL    HW155090  12.949   5.198   8.666
17731SOL    HW255091  13.072   5.109   8.666
17732SOL     OW55092   3.201   8.336   6.880
17732SOL    HW155093   3.138   8.325   6.951
17732SOL    HW255094   3.175   8.271   6.814
17733SOL     OW55095  14.294   2.951  13.207
17733SOL    HW155096  14.298   2.939  13.302
17733SOL    HW255097  14.211   2.995  13.192
17734SOL     OW55098   6.914   1.739   1.475
17734SOL    HW155099   6.897   1.651   1.508
17734SOL    HW255100   6.886   1.797   1.546
17735SOL     OW55101   0.590  14.175  12.439
17735SOL    HW155102   0.654  14.199  12.506
17735SOL    HW255103   0.512  14.226  12.460
17736SOL     OW55104   0.802   6.440   4.787
17736SOL    HW155105   0.739   6.369   4.771
17736SOL    HW255106   0.780   6.472   4.875
17737SOL     OW55107  12.861  10.604   2.205
17737SOL    HW155108  12.921  10.678   2.210
17737SOL    HW255109  12.848  10.578   2.296
17738SOL     OW55110   9.954   2.667  11.627
17738SOL    HW155111   9.884   2.715  11.671
17738SOL    HW255112   9.999   2.620  11.697
17739SOL     OW55113  11.374   6.523  11.604
17739SOL    HW155114  11.422   6.486  11.531
17739SOL    HW255115  11.413   6.609  11.617
17740SOL     OW55116   3.057   5.223   9.712
17740SOL    HW155117   2.978   5.276   9.723
17740SOL    HW255118   3.025   5.132   9.713
17741SOL     OW55119   0.806  13.502   8.303
17741SOL    HW155120   0.805  13.584   8.352
17741SOL    HW255121   0.768  13.438   8.363
17742SOL     OW55122   6.304   2.759  10.165
17742SOL    HW155123   6.299   2.828  10.232
17742SOL    HW255124   6.257   2.686  10.204
17743SOL     OW55125   7.285   0.637   6.642
17743SOL    HW155126   7.312   0.711   6.588
17743SOL    HW255127   7.216   0.673   6.699
17744SOL     OW55128   8.424   2.656   4.401
17744SOL    HW155129   8.383   2.666   4.487
17744SOL    HW255130   8.502   2.603   4.418
17745SOL     OW55131   4.171  12.029   6.457
17745SOL    HW155132   4.190  12.044   6.549
17745SOL    HW255133   4.179  12.115   6.416
17746SOL     OW55134   0.314   0.137   6.386
17746SOL    HW155135   0.331   0.191   6.309
17746SOL    HW255136   0.304   0.200   6.457
17747SOL     OW55137   7.124  13.749  11.067
17747SOL    HW155138   7.117  13.678  11.003
17747SOL    HW255139   7.131  13.705  11.151
17748SOL     OW55140  11.389  13.694   9.951
17748SOL    HW155141  11.349  13.695   9.864
17748SOL    HW255142  11.369  13.780   9.988
17749SOL     OW55143   4.016   7.149   9.092
17749SOL    HW155144   4.088   7.086   9.095
17749SOL    HW255145   4.014   7.180   9.001
17750SOL     OW55146   9.986   7.258  12.275
17750SOL    HW155147   9.942   7.238  12.357
17750SOL    HW255148   9.917   7.292  12.218
17751SOL     OW55149   1.963  12.080  12.841
17751SOL    HW155150   1.908  12.135  12.785
17751SOL    HW255151   1.947  12.112  12.930
17752SOL     OW55152   8.118  11.763   9.493
17752SOL    HW155153   8.067  11.740   9.416
17752SOL    HW255154   8.076  11.716   9.565
17753SOL     OW55155  10.677   0.817   2.582
17753SOL    HW155156  10.647   0.794   2.494
17753SOL    HW255157  10.684   0.733   2.628
17754SOL     OW55158   0.465   6.739   1.511
17754SOL    HW155159   0.406   6.809   1.538
17754SOL    HW255160   0.482   6.690   1.592
17755SOL     OW55161   9.974   8.589  14.012
17755SOL    HW155162  10.003   8.503  13.980
17755SOL    HW255163  10.052   8.628  14.051
17756SOL     OW55164   6.126   1.421  14.093
17756SOL    HW155165   6.126   1.405  14.187
17756SOL    HW255166   6.174   1.503  14.082
17757SOL     OW55167  10.318  13.454   4.217
17757SOL    HW155168  10.386  13.468   4.151
17757SOL    HW255169  10.239  13.493   4.179
17758SOL     OW55170   2.364  13.828   3.852
17758SOL    HW155171   2.345  13.888   3.924
17758SOL    HW255172   2.410  13.883   3.788
17759SOL     OW55173   6.535   2.212   0.797
17759SOL    HW155174   6.603   2.145   0.811
17759SOL    HW255175   6.483   2.178   0.724
17760SOL     OW55176   3.798   8.455   8.680
17760SOL    HW155177   3.745   8.406   8.617
17760SOL    HW255178   3.878   8.477   8.632
17761SOL     OW55179  12.790   9.656   3.292
17761SOL    HW155180  12.732   9.642   3.216
17761SOL    HW255181  12.846   9.579   3.293
17762SOL     OW55182  10.563   6.497   2.903
17762SOL    HW155183  10.575   6.492   2.808
17762SOL    HW255184  10.642   6.457   2.939
17763SOL     OW55185   0.902  14.476  14.741
17763SOL    HW155186   0.852  14.425  14.805
17763SOL    HW255187   0.916  14.416  14.668
17764SOL     OW55188  13.476   7.383   2.758
17764SOL    HW155189  13.511   7.463   2.719
17764SOL    HW255190  13.389   7.408   2.790
17765SOL     OW55191  13.287   8.792   9.355
17765SOL    HW155192  13.220   8.723   9.358
17765SOL    HW255193  13.366   8.749   9.388
17766SOL     OW55194  14.029   2.873   5.894
17766SOL    HW155195  14.018   2.859   5.800
17766SOL    HW255196  14.075   2.957   5.900
17767SOL     OW55197  14.371   8.115   7.988
17767SOL    HW155198  14.347   8.176   7.918
17767SOL    HW255199  14.464   8.099   7.976
17768SOL     OW55200   1.367  11.034   3.353
17768SOL    HW155201   1.274  11.014   3.345
17768SOL    HW255202   1.390  11.011   3.443
17769SOL     OW55203  13.721   6.154   1.855
17769SOL    HW155204  13.702   6.130   1.765
17769SOL    HW255205  13.674   6.236   1.869
17770SOL     OW55206   4.406   2.968  12.061
17770SOL    HW155207   4.388   2.900  12.127
17770SOL    HW255208   4.321   2.985  12.021
17771SOL     OW55209   9.483  11.151   8.289
17771SOL    HW155210   9.390  11.157   8.266
17771SOL    HW255211   9.526  11.126   8.208
17772SOL     OW55212  14.325   0.277   4.612
17772SOL    HW155213  14.307   0.332   4.536
17772SOL    HW255214  14.239   0.251   4.644
17773SOL     OW55215   1.043   7.750   2.352
17773SOL    HW155216   1.027   7.683   2.418
17773SOL    HW255217   1.064   7.829   2.402
17774SOL     OW55218  11.719   2.253   8.050
17774SOL    HW155219  11.794   2.204   8.016
17774SOL    HW255220  11.752   2.342   8.062
17775SOL     OW55221  12.906   0.538   0.977
17775SOL    HW155222  12.980   0.586   1.015
17775SOL    HW255223  12.946   0.480   0.912
17776SOL     OW55224   1.067  11.414   7.687
17776SOL    HW155225   1.088  11.493   7.638
17776SOL    HW255226   1.125  11.417   7.764
17777SOL     OW55227   2.236   8.486   4.635
17777SOL    HW155228   2.244   8.579   4.657
17777SOL    HW255229   2.155   8.457   4.677
17778SOL     OW55230  14.430  12.124  11.074
17778SOL    HW155231  14.513  12.129  11.027
17778SOL    HW255232  14.379  12.197  11.040
17779SOL     OW55233   9.907   5.495   6.269
17779SOL    HW155234   9.947   5.507   6.183
17779SOL    HW255235   9.968   5.536   6.330
17780SOL     OW55236  14.022  10.811   0.629
17780SOL    HW155237  13.980  10.773   0.706
17780SOL    HW255238  13.959  10.876   0.596
17781SOL     OW55239   0.776   6.628  11.376
17781SOL    HW155240   0.825   6.547  11.359
17781SOL    HW255241   0.684   6.602  11.370
17782SOL     OW55242   2.358   0.623   3.434
17782SOL    HW155243   2.433   0.587   3.481
17782SOL    HW255244   2.396   0.678   3.366
17783SOL     OW55245  13.243   6.495   3.321
17783SOL    HW155246  13.175   6.444   3.278
17783SOL    HW255247  13.254   6.454   3.407
17784SOL     OW55248   5.701   9.865   6.665
17784SOL    HW155249   5.637   9.817   6.717
17784SOL    HW255250   5.775   9.804   6.654
17785SOL     OW55251   5.108   4.980   6.442
17785SOL    HW155252   5.189   4.948   6.481
17785SOL    HW255253   5.135   5.051   6.384
17786SOL     OW55254   2.787   3.600   5.873
17786SOL    HW155255   2.775   3.540   5.799
17786SOL    HW255256   2.699   3.613   5.907
17787SOL     OW55257   2.072  12.997   3.900
17787SOL    HW155258   2.122  13.066   3.857
17787SOL    HW255259   2.050  12.936   3.829
17788SOL     OW55260   5.911   6.621   6.233
17788SOL    HW155261   5.977   6.673   6.280
17788SOL    HW255262   5.892   6.548   6.292
17789SOL     OW55263  10.869   9.714   4.967
17789SOL    HW155264  10.881   9.625   4.934
17789SOL    HW255265  10.776   9.720   4.987
17790SOL     OW55266   3.098  11.519   2.972
17790SOL    HW155267   3.041  11.446   2.995
17790SOL    HW255268   3.095  11.524   2.877
17791SOL     OW55269   2.716  14.087   6.446
17791SOL    HW155270   2.793  14.049   6.404
17791SOL    HW255271   2.648  14.082   6.379
17792SOL     OW55272   9.410  11.705  11.270
17792SOL    HW155273   9.334  11.722  11.214
17792SOL    HW255274   9.485  11.736  11.219
17793SOL     OW55275  11.286   8.464   5.177
17793SOL    HW155276  11.224   8.393   5.161
17793SOL    HW255277  11.271   8.525   5.105
17794SOL     OW55278   5.587  14.325   7.319
17794SOL    HW155279   5.639  14.343   7.397
17794SOL    HW255280   5.576  14.410   7.277
17795SOL     OW55281   5.711   5.933  13.664
17795SOL    HW155282   5.792   5.927  13.715
17795SOL    HW255283   5.652   5.985  13.719
17796SOL     OW55284  13.836   6.626   6.387
17796SOL    HW155285  13.820   6.717   6.362
17796SOL    HW255286  13.775   6.611   6.460
17797SOL     OW55287   2.330   8.292   7.420
17797SOL    HW155288   2.399   8.347   7.384
17797SOL    HW255289   2.345   8.205   7.382
17798SOL     OW55290   5.130   3.268  12.516
17798SOL    HW155291   5.169   3.333  12.458
17798SOL    HW255292   5.037   3.266  12.491
17799SOL     OW55293  14.862   2.312  11.969
17799SOL    HW155294   0.045   2.381  11.976
17799SOL    HW255295  14.785   2.355  11.932
17800SOL     OW55296   3.498   4.402   3.969
17800SOL    HW155297   3.533   4.318   3.938
17800SOL    HW255298   3.491   4.456   3.891
17801SOL     OW55299   0.340  14.147  14.304
17801SOL    HW155300   0.395  14.211  14.348
17801SOL    HW255301   0.260  14.143  14.358
17802SOL     OW55302   2.724  14.355   3.784
17802SOL    HW155303   2.796  14.362   3.721
17802SOL    HW255304   2.654  14.408   3.747
17803SOL     OW55305   9.193   7.946  10.835
17803SOL    HW155306   9.147   7.864  10.820
17803SOL    HW255307   9.200   7.986  10.749
17804SOL     OW55308  14.259   6.492   7.837
17804SOL    HW155309  14.313   6.542   7.775
17804SOL    HW255310  14.243   6.553   7.909
17805SOL     OW55311   8.975  12.279  11.048
17805SOL    HW155312   8.949  12.359  11.003
17805SOL    HW255313   8.978  12.303  11.141
17806SOL     OW55314   5.396  14.854  12.534
17806SOL    HW155315   5.386  14.760  12.549
17806SOL    HW255316   5.346  14.871  12.455
17807SOL     OW55317  10.535   1.576   7.105
17807SOL    HW155318  10.576   1.662   7.108
17807SOL    HW255319  10.441   1.593   7.110
17808SOL     OW55320  13.107   2.834   4.245
17808SOL    HW155321  13.015   2.810   4.255
17808SOL    HW255322  13.141   2.834   4.334
17809SOL     OW55323   6.281   7.317  11.978
17809SOL    HW155324   6.238   7.378  11.917
17809SOL    HW255325   6.373   7.318  11.951
17810SOL     OW55326   1.091   0.951   3.218
17810SOL    HW155327   1.032   0.952   3.293
17810SOL    HW255328   1.053   0.887   3.158
17811SOL     OW55329   7.416   4.446  13.849
17811SOL    HW155330   7.414   4.527  13.900
17811SOL    HW255331   7.440   4.474  13.761
17812SOL     OW55332  11.719  10.114  12.306
17812SOL    HW155333  11.732  10.027  12.269
17812SOL    HW255334  11.786  10.120  12.374
17813SOL     OW55335   3.731   6.098  11.677
17813SOL    HW155336   3.730   6.013  11.633
17813SOL    HW255337   3.741   6.077  11.770
17814SOL     OW55338  14.319  13.805  12.730
17814SOL    HW155339  14.402  13.823  12.774
17814SOL    HW255340  14.285  13.727  12.774
17815SOL     OW55341  10.434   8.514  14.857
17815SOL    HW155342  10.371   8.582  14.877
17815SOL    HW255343  10.499   8.520   0.046
17816SOL     OW55344  10.354  14.641   7.209
17816SOL    HW155345  10.290  14.570   7.206
17816SOL    HW255346  10.302  14.720   7.223
17817SOL     OW55347   7.802  12.410   2.590
17817SOL    HW155348   7.788  12.448   2.503
17817SOL    HW255349   7.741  12.459   2.646
17818SOL     OW55350   9.324   1.481   2.905
17818SOL    HW155351   9.415   1.500   2.885
17818SOL    HW255352   9.279   1.565   2.895
17819SOL     OW55353   4.400   9.715   4.274
17819SOL    HW155354   4.474   9.673   4.230
17819SOL    HW255355   4.441   9.775   4.337
17820SOL     OW55356  13.340   2.674   6.171
17820SOL    HW155357  13.386   2.709   6.247
17820SOL    HW255358  13.408   2.660   6.106
17821SOL     OW55359   8.105   6.445  13.975
17821SOL    HW155360   8.144   6.462  14.060
17821SOL    HW255361   8.130   6.520  13.921
17822SOL     OW55362   7.835   9.935  11.923
17822SOL    HW155363   7.909   9.996  11.928
17822SOL    HW255364   7.802   9.945  11.834
17823SOL     OW55365   5.092   4.551  13.744
17823SOL    HW155366   5.027   4.618  13.765
17823SOL    HW255367   5.176   4.594  13.757
17824SOL     OW55368  13.528  14.776   3.407
17824SOL    HW155369  13.601  14.836   3.395
17824SOL    HW255370  13.450  14.831   3.401
17825SOL     OW55371  13.322   2.303   3.335
17825SOL    HW155372  13.340   2.210   3.350
17825SOL    HW255373  13.311   2.310   3.240
17826SOL     OW55374   2.002   1.117   2.944
17826SOL    HW155375   2.032   1.187   2.886
17826SOL    HW255376   1.968   1.050   2.885
17827SOL     OW55377   3.358   8.927   3.651
17827SOL    HW155378   3.447   8.933   3.687
17827SOL    HW255379   3.302   8.965   3.719
17828SOL     OW55380   0.823  12.704   8.703
17828SOL    HW155381   0.912  12.738   8.699
17828SOL    HW255382   0.824  12.628   8.644
17829SOL     OW55383  11.879  11.875   3.941
17829SOL    HW155384  11.813  11.941   3.920
17829SOL    HW255385  11.862  11.851   4.032
17830SOL     OW55386   2.437  11.481  12.870
17830SOL    HW155387   2.498  11.416  12.906
17830SOL    HW255388   2.351  11.449  12.896
17831SOL     OW55389  14.656   6.797  10.438
17831SOL    HW155390  14.701   6.825  10.517
17831SOL    HW255391  14.571   6.764  10.469
17832SOL     OW55392  11.998   1.801   0.658
17832SOL    HW155393  11.993   1.758   0.573
17832SOL    HW255394  11.973   1.733   0.721
17833SOL     OW55395   4.100  11.898  12.379
17833SOL    HW155396   4.113  11.826  12.441
17833SOL    HW255397   4.027  11.948  12.415
17834SOL     OW55398   3.448   3.593   3.073
17834SOL    HW155399   3.444   3.512   3.124
17834SOL    HW255400   3.384   3.651   3.115
17835SOL     OW55401  12.433  11.892   3.909
17835SOL    HW155402  12.344  11.918   3.934
17835SOL    HW255403  12.435  11.797   3.921
17836SOL     OW55404   1.951  12.984   9.349
17836SOL    HW155405   2.017  12.981   9.418
17836SOL    HW255406   1.937  12.893   9.324
17837SOL     OW55407   4.559   9.522  11.216
17837SOL    HW155408   4.549   9.616  11.199
17837SOL    HW255409   4.565   9.515  11.311
17838SOL     OW55410   9.987  11.597   3.763
17838SOL    HW155411  10.074  11.625   3.788
17838SOL    HW255412   9.992  11.501   3.762
17839SOL     OW55413   1.477   4.162   7.539
17839SOL    HW155414   1.383   4.181   7.539
17839SOL    HW255415   1.497   4.143   7.631
17840SOL     OW55416  13.791  10.965  12.328
17840SOL    HW155417  13.729  10.942  12.260
17840SOL    HW255418  13.793  11.061  12.327
17841SOL     OW55419   5.132  12.720   5.919
17841SOL    HW155420   5.062  12.783   5.934
17841SOL    HW255421   5.212  12.770   5.935
17842SOL     OW55422   1.260  12.218   3.042
17842SOL    HW155423   1.279  12.290   2.981
17842SOL    HW255424   1.170  12.193   3.020
17843SOL     OW55425   4.575   9.707   5.454
17843SOL    HW155426   4.613   9.620   5.457
17843SOL    HW255427   4.481   9.692   5.457
17844SOL     OW55428   5.095   0.419  13.017
17844SOL    HW155429   5.113   0.459  13.102
17844SOL    HW255430   5.088   0.493  12.956
17845SOL     OW55431   3.470   1.019   1.059
17845SOL    HW155432   3.491   1.090   0.997
17845SOL    HW255433   3.526   1.035   1.134
17846SOL     OW55434   7.511  11.298   9.093
17846SOL    HW155435   7.537  11.366   9.031
17846SOL    HW255436   7.505  11.343   9.177
17847SOL     OW55437  14.623   8.916  14.202
17847SOL    HW155438  14.543   8.864  14.190
17847SOL    HW255439  14.621   8.941  14.295
17848SOL     OW55440   6.374   2.096   4.389
17848SOL    HW155441   6.394   2.154   4.462
17848SOL    HW255442   6.308   2.035   4.424
17849SOL     OW55443  13.963   3.966   2.150
17849SOL    HW155444  13.978   3.875   2.177
17849SOL    HW255445  14.001   4.018   2.221
17850SOL     OW55446  12.305  12.914   4.292
17850SOL    HW155447  12.210  12.920   4.299
17850SOL    HW255448  12.321  12.881   4.203
17851SOL     OW55449   1.027   9.395   9.815
17851SOL    HW155450   1.067   9.341   9.747
17851SOL    HW255451   0.934   9.371   9.814
17852SOL     OW55452   7.271   0.637  10.877
17852SOL    HW155453   7.344   0.677  10.829
17852SOL    HW255454   7.230   0.711  10.923
17853SOL     OW55455   0.253  11.344   5.185
17853SOL    HW155456   0.262  11.254   5.155
17853SOL    HW255457   0.227  11.393   5.107
17854SOL     OW55458   4.279   2.018  13.640
17854SOL    HW155459   4.299   1.946  13.701
17854SOL    HW255460   4.281   2.096  13.695
17855SOL     OW55461   7.554   8.632   0.466
17855SOL    HW155462   7.565   8.687   0.388
17855SOL    HW255463   7.584   8.545   0.439
17856SOL     OW55464   7.507  12.807   2.698
17856SOL    HW155465   7.545  12.866   2.633
17856SOL    HW255466   7.486  12.864   2.773
17857SOL     OW55467   6.340  13.872   0.808
17857SOL    HW155468   6.364  13.831   0.725
17857SOL    HW255469   6.410  13.934   0.825
17858SOL     OW55470  13.766   4.492   2.793
17858SOL    HW155471  13.835   4.449   2.742
17858SOL    HW255472  13.717   4.542   2.728
17859SOL     OW55473   2.114  12.501  12.856
17859SOL    HW155474   2.140  12.447  12.782
17859SOL    HW255475   2.163  12.582  12.846
17860SOL     OW55476   2.306   8.402  13.044
17860SOL    HW155477   2.343   8.314  13.053
17860SOL    HW255478   2.303   8.436  13.133
17861SOL     OW55479   6.915  11.200   5.283
17861SOL    HW155480   6.839  11.175   5.336
17861SOL    HW255481   6.924  11.131   5.218
17862SOL     OW55482  11.507  14.166   4.669
17862SOL    HW155483  11.414  14.157   4.688
17862SOL    HW255484  11.547  14.085   4.700
17863SOL     OW55485  10.659   9.871  11.739
17863SOL    HW155486  10.657   9.856  11.644
17863SOL    HW255487  10.733   9.819  11.769
17864SOL     OW55488   6.819  10.909   5.595
17864SOL    HW155489   6.847  10.842   5.533
17864SOL    HW255490   6.753  10.960   5.547
17865SOL     OW55491   1.326   1.400   5.662
17865SOL    HW155492   1.242   1.425   5.625
17865SOL    HW255493   1.307   1.384   5.755
17866SOL     OW55494  12.368  12.971   5.882
17866SOL    HW155495  12.337  12.951   5.971
17866SOL    HW255496  12.431  12.902   5.863
17867SOL     OW55497  13.843   9.022  14.240
17867SOL    HW155498  13.774   8.960  14.216
17867SOL    HW255499  13.856   9.008  14.334
17868SOL     OW55500   9.446  10.759   5.177
17868SOL    HW155501   9.510  10.815   5.133
17868SOL    HW255502   9.459  10.776   5.270
17869SOL     OW55503   5.138  11.007  12.421
17869SOL    HW155504   5.104  10.977  12.336
17869SOL    HW255505   5.111  10.939  12.483
17870SOL     OW55506   4.509   7.499   1.626
17870SOL    HW155507   4.444   7.439   1.589
17870SOL    HW255508   4.457   7.569   1.666
17871SOL     OW55509   6.375   6.507   0.483
17871SOL    HW155510   6.350   6.474   0.397
17871SOL    HW255511   6.428   6.585   0.464
17872SOL     OW55512  13.569  14.492   1.660
17872SOL    HW155513  13.635  14.558   1.637
17872SOL    HW255514  13.604  14.410   1.624
17873SOL     OW55515   6.351   8.094   5.020
17873SOL    HW155516   6.347   8.172   4.964
17873SOL    HW255517   6.369   8.022   4.959
17874SOL     OW55518  11.839  12.287   0.199
17874SOL    HW155519  11.837  12.382   0.186
17874SOL    HW255520  11.783  12.253   0.129
17875SOL     OW55521   7.553  12.852  10.373
17875SOL    HW155522   7.538  12.783  10.439
17875SOL    HW255523   7.469  12.859  10.328
17876SOL     OW55524  13.946   6.619   1.756
17876SOL    HW155525  14.027   6.671   1.756
17876SOL    HW255526  13.911   6.630   1.844
17877SOL     OW55527   8.695  12.243  14.278
17877SOL    HW155528   8.709  12.166  14.333
17877SOL    HW255529   8.680  12.207  14.190
17878SOL     OW55530   5.231  11.933   1.623
17878SOL    HW155531   5.289  11.912   1.696
17878SOL    HW255532   5.242  11.862   1.561
17879SOL     OW55533   2.363   8.206   2.045
17879SOL    HW155534   2.392   8.278   1.989
17879SOL    HW255535   2.442   8.155   2.061
17880SOL     OW55536   5.477  12.207   2.310
17880SOL    HW155537   5.422  12.202   2.388
17880SOL    HW255538   5.502  12.300   2.305
17881SOL     OW55539   1.256   4.574   4.849
17881SOL    HW155540   1.283   4.486   4.824
17881SOL    HW255541   1.212   4.609   4.772
17882SOL     OW55542   6.316   6.297   4.636
17882SOL    HW155543   6.271   6.351   4.700
17882SOL    HW255544   6.407   6.295   4.666
17883SOL     OW55545   6.215   9.636  14.265
17883SOL    HW155546   6.125   9.649  14.295
17883SOL    HW255547   6.257   9.586  14.336
17884SOL     OW55548  10.827   7.195   9.016
17884SOL    HW155549  10.793   7.272   9.062
17884SOL    HW255550  10.919   7.217   8.999
17885SOL     OW55551  11.992   8.903   0.789
17885SOL    HW155552  12.045   8.827   0.765
17885SOL    HW255553  12.012   8.919   0.881
17886SOL     OW55554  10.711  13.680   6.515
17886SOL    HW155555  10.760  13.598   6.522
17886SOL    HW255556  10.650  13.666   6.442
17887SOL     OW55557  10.516   0.787   0.098
17887SOL    HW155558  10.500   0.880   0.114
17887SOL    HW255559  10.609   0.783   0.074
17888SOL     OW55560  13.532   4.205  13.665
17888SOL    HW155561  13.588   4.240  13.596
17888SOL    HW255562  13.513   4.115  13.639
17889SOL     OW55563   0.639   6.901   9.807
17889SOL    HW155564   0.570   6.902   9.741
17889SOL    HW255565   0.691   6.824   9.786
17890SOL     OW55566   7.661   3.938  13.732
17890SOL    HW155567   7.567   3.920  13.739
17890SOL    HW255568   7.665   4.030  13.704
17891SOL     OW55569   6.937  14.797   6.021
17891SOL    HW155570   6.864  14.748   6.059
17891SOL    HW255571   6.991  14.822   6.096
17892SOL     OW55572   7.633  12.785  13.334
17892SOL    HW155573   7.646  12.778  13.239
17892SOL    HW255574   7.546  12.747  13.350
17893SOL     OW55575  14.813   8.534   1.979
17893SOL    HW155576  14.750   8.466   2.002
17893SOL    HW255577  14.859   8.498   1.903
17894SOL     OW55578   2.176  11.603   2.513
17894SOL    HW155579   2.198  11.552   2.435
17894SOL    HW255580   2.131  11.681   2.479
17895SOL     OW55581   1.863   3.622   7.256
17895SOL    HW155582   1.778   3.604   7.217
17895SOL    HW255583   1.892   3.537   7.290
17896SOL     OW55584   9.593  10.402  12.930
17896SOL    HW155585   9.588  10.387  13.024
17896SOL    HW255586   9.682  10.434  12.916
17897SOL     OW55587  11.424   3.167  11.491
17897SOL    HW155588  11.445   3.232  11.424
17897SOL    HW255589  11.349   3.204  11.538
17898SOL     OW55590   7.806  12.514   9.786
17898SOL    HW155591   7.853  12.525   9.869
17898SOL    HW255592   7.741  12.584   9.786
17899SOL     OW55593   0.285   0.212   1.634
17899SOL    HW155594   0.216   0.149   1.613
17899SOL    HW255595   0.357   0.158   1.667
17900SOL     OW55596   6.698  12.344  12.050
17900SOL    HW155597   6.632  12.280  12.022
17900SOL    HW255598   6.733  12.308  12.131
17901SOL     OW55599   8.081  11.320   5.784
17901SOL    HW155600   8.118  11.364   5.708
17901SOL    HW255601   8.133  11.352   5.858
17902SOL     OW55602   5.438   1.364   0.439
17902SOL    HW155603   5.460   1.274   0.464
17902SOL    HW255604   5.485   1.418   0.502
17903SOL     OW55605   2.886   7.767   7.843
17903SOL    HW155606   2.819   7.782   7.909
17903SOL    HW255607   2.958   7.724   7.890
17904SOL     OW55608   4.694   3.274   9.232
17904SOL    HW155609   4.638   3.351   9.240
17904SOL    HW255610   4.743   3.287   9.151
17905SOL     OW55611   2.475  10.093   5.233
17905SOL    HW155612   2.555  10.113   5.186
17905SOL    HW255613   2.499  10.097   5.326
17906SOL     OW55614   8.333   0.132   9.092
17906SOL    HW155615   8.323   0.037   9.079
17906SOL    HW255616   8.427   0.146   9.090
17907SOL     OW55617   0.691  12.838   1.185
17907SOL    HW155618   0.739  12.840   1.267
17907SOL    HW255619   0.646  12.753   1.185
17908SOL     OW55620   2.736  13.304  14.581
17908SOL    HW155621   2.724  13.360  14.658
17908SOL    HW255622   2.800  13.239  14.609
17909SOL     OW55623   6.891   5.661   5.788
17909SOL    HW155624   6.951   5.709   5.845
17909SOL    HW255625   6.940   5.583   5.761
17910SOL     OW55626   1.962   5.671  12.779
17910SOL    HW155627   2.012   5.688  12.699
17910SOL    HW255628   2.014   5.710  12.849
17911SOL     OW55629   8.643   6.369  13.079
17911SOL    HW155630   8.668   6.461  13.084
17911SOL    HW255631   8.616   6.347  13.168
17912SOL     OW55632  13.404  12.963   8.351
17912SOL    HW155633  13.490  12.928   8.328
17912SOL    HW255634  13.402  13.051   8.313
17913SOL     OW55635  10.101   0.921   3.232
17913SOL    HW155636  10.007   0.933   3.247
17913SOL    HW255637  10.142   0.940   3.316
17914SOL     OW55638   9.602   5.460   2.424
17914SOL    HW155639   9.562   5.518   2.488
17914SOL    HW255640   9.679   5.425   2.468
17915SOL     OW55641   3.480   3.521   9.716
17915SOL    HW155642   3.457   3.579   9.788
17915SOL    HW255643   3.397   3.503   9.672
17916SOL     OW55644  11.515  10.638   2.917
17916SOL    HW155645  11.609  10.650   2.908
17916SOL    HW255646  11.476  10.699   2.855
17917SOL     OW55647  11.874  12.054  11.621
17917SOL    HW155648  11.831  11.994  11.559
17917SOL    HW255649  11.950  12.087  11.573
17918SOL     OW55650  10.953  13.571   6.221
17918SOL    HW155651  10.857  13.576   6.220
17918SOL    HW255652  10.981  13.649   6.267
17919SOL     OW55653  12.533   0.185  10.552
17919SOL    HW155654  12.526   0.266  10.502
17919SOL    HW255655  12.620   0.151  10.530
17920SOL     OW55656   6.437  12.470   3.036
17920SOL    HW155657   6.502  12.443   3.101
17920SOL    HW255658   6.373  12.399   3.035
17921SOL     OW55659   7.282   2.874  10.529
17921SOL    HW155660   7.220   2.899  10.461
17921SOL    HW255661   7.236   2.890  10.611
17922SOL     OW55662   9.870   0.150   7.625
17922SOL    HW155663   9.953   0.122   7.587
17922SOL    HW255664   9.894   0.189   7.709
17923SOL     OW55665   8.669  14.871   2.209
17923SOL    HW155666   8.645   0.060   2.269
17923SOL    HW255667   8.762   0.003   2.191
17924SOL     OW55668   1.787   6.897   5.491
17924SOL    HW155669   1.721   6.920   5.425
17924SOL    HW255670   1.871   6.921   5.450
17925SOL     OW55671   3.448   1.228   7.091
17925SOL    HW155672   3.432   1.276   7.172
17925SOL    HW255673   3.408   1.282   7.023
17926SOL     OW55674   8.370  14.324   1.000
17926SOL    HW155675   8.394  14.370   0.920
17926SOL    HW255676   8.280  14.296   0.984
17927SOL     OW55677   2.323   4.395   2.872
17927SOL    HW155678   2.260   4.332   2.837
17927SOL    HW255679   2.406   4.349   2.871
17928SOL     OW55680   5.026  10.073   5.802
17928SOL    HW155681   5.117  10.082   5.777
17928SOL    HW255682   4.977  10.086   5.721
17929SOL     OW55683   5.041   4.655   3.361
17929SOL    HW155684   5.104   4.674   3.291
17929SOL    HW255685   4.981   4.730   3.359
17930SOL     OW55686   8.244   8.702   1.492
17930SOL    HW155687   8.243   8.791   1.525
17930SOL    HW255688   8.166   8.661   1.529
17931SOL     OW55689   8.129  13.827   5.986
17931SOL    HW155690   8.171  13.913   5.990
17931SOL    HW255691   8.183  13.772   6.042
17932SOL     OW55692   2.278  10.005   4.899
17932SOL    HW155693   2.330  10.085   4.910
17932SOL    HW255694   2.338   9.934   4.922
17933SOL     OW55695  11.589   5.756   0.649
17933SOL    HW155696  11.618   5.688   0.588
17933SOL    HW255697  11.653   5.754   0.720
17934SOL     OW55698   9.839  10.922   4.510
17934SOL    HW155699   9.779  10.875   4.567
17934SOL    HW255700   9.809  11.013   4.512
17935SOL     OW55701   9.375  12.169  14.242
17935SOL    HW155702   9.382  12.237  14.175
17935SOL    HW255703   9.446  12.108  14.222
17936SOL     OW55704   8.011   7.924   7.907
17936SOL    HW155705   8.054   7.973   7.977
17936SOL    HW255706   7.926   7.967   7.896
17937SOL     OW55707   9.318   1.340  10.266
17937SOL    HW155708   9.344   1.385  10.346
17937SOL    HW255709   9.397   1.294  10.238
17938SOL     OW55710   5.531   0.183  12.847
17938SOL    HW155711   5.512   0.276  12.832
17938SOL    HW255712   5.587   0.158  12.773
17939SOL     OW55713  11.138   9.175  12.862
17939SOL    HW155714  11.191   9.253  12.876
17939SOL    HW255715  11.084   9.167  12.941
17940SOL     OW55716  12.541   1.672  10.470
17940SOL    HW155717  12.579   1.714  10.392
17940SOL    HW255718  12.474   1.734  10.500
17941SOL     OW55719  13.590   0.180  13.196
17941SOL    HW155720  13.607   0.192  13.289
17941SOL    HW255721  13.676   0.179  13.155
17942SOL     OW55722  11.415   2.520   8.291
17942SOL    HW155723  11.326   2.528   8.259
17942SOL    HW255724  11.407   2.470   8.372
17943SOL     OW55725   3.271   2.320  12.421
17943SOL    HW155726   3.320   2.246  12.385
17943SOL    HW255727   3.316   2.398  12.387
17944SOL     OW55728   8.440   5.918   1.603
17944SOL    HW155729   8.347   5.899   1.594
17944SOL    HW255730   8.474   5.922   1.514
17945SOL     OW55731   5.299   9.880   1.523
17945SOL    HW155732   5.225   9.921   1.478
17945SOL    HW255733   5.373   9.937   1.504
17946SOL     OW55734   7.355  13.589   1.950
17946SOL    HW155735   7.274  13.629   1.917
17946SOL    HW255736   7.349  13.599   2.045
17947SOL     OW55737   0.744   2.500   5.943
17947SOL    HW155738   0.668   2.511   6.000
17947SOL    HW255739   0.816   2.478   6.003
17948SOL     OW55740   2.800  12.510   7.192
17948SOL    HW155741   2.870  12.488   7.131
17948SOL    HW255742   2.757  12.586   7.152
17949SOL     OW55743   8.474  10.247  10.656
17949SOL    HW155744   8.399  10.193  10.630
17949SOL    HW255745   8.435  10.324  10.698
17950SOL     OW55746   4.102   8.591  12.665
17950SOL    HW155747   4.185   8.608  12.620
17950SOL    HW255748   4.128   8.559  12.752
17951SOL     OW55749   6.080  14.310   3.810
17951SOL    HW155750   6.001  14.315   3.756
17951SOL    HW255751   6.129  14.236   3.774
17952SOL     OW55752   7.497   3.470   2.502
17952SOL    HW155753   7.509   3.467   2.597
17952SOL    HW255754   7.529   3.556   2.476
17953SOL     OW55755  14.062  13.106  10.446
17953SOL    HW155756  14.103  13.040  10.502
17953SOL    HW255757  14.115  13.107  10.367
17954SOL     OW55758   1.254   8.855   7.275
17954SOL    HW155759   1.191   8.906   7.224
17954SOL    HW255760   1.287   8.789   7.213
17955SOL     OW55761  11.845   4.127  12.145
17955SOL    HW155762  11.862   4.099  12.236
17955SOL    HW255763  11.752   4.152  12.145
17956SOL     OW55764  11.748   0.274   7.801
17956SOL    HW155765  11.781   0.189   7.771
17956SOL    HW255766  11.708   0.313   7.723
17957SOL     OW55767   8.204  11.587  10.018
17957SOL    HW155768   8.197  11.526   9.945
17957SOL    HW255769   8.139  11.654  10.000
17958SOL     OW55770  12.202   3.709   2.579
17958SOL    HW155771  12.207   3.737   2.487
17958SOL    HW255772  12.222   3.788   2.629
17959SOL     OW55773   8.757  10.572  11.591
17959SOL    HW155774   8.832  10.562  11.649
17959SOL    HW255775   8.691  10.616  11.645
17960SOL     OW55776   4.402   4.159   6.158
17960SOL    HW155777   4.374   4.193   6.073
17960SOL    HW255778   4.467   4.223   6.188
17961SOL     OW55779   2.264  10.816   2.872
17961SOL    HW155780   2.286  10.730   2.908
17961SOL    HW255781   2.309  10.818   2.787
17962SOL     OW55782   6.905   7.792   8.566
17962SOL    HW155783   6.919   7.879   8.529
17962SOL    HW255784   6.892   7.808   8.660
17963SOL     OW55785   4.073   4.661  13.131
17963SOL    HW155786   4.078   4.732  13.196
17963SOL    HW255787   4.055   4.705  13.048
17964SOL     OW55788  10.761  12.713   1.205
17964SOL    HW155789  10.704  12.652   1.252
17964SOL    HW255790  10.848  12.673   1.208
17965SOL     OW55791  14.878  10.346  10.143
17965SOL    HW155792  14.803  10.401  10.119
17965SOL    HW255793   0.041  10.330  10.060
17966SOL     OW55794   5.539   3.007   0.343
17966SOL    HW155795   5.542   2.972   0.432
17966SOL    HW255796   5.524   2.931   0.287
17967SOL     OW55797  11.451   7.634   5.020
17967SOL    HW155798  11.427   7.710   5.073
17967SOL    HW255799  11.368   7.597   4.992
17968SOL     OW55800   8.704   9.663  13.377
17968SOL    HW155801   8.769   9.600  13.344
17968SOL    HW255802   8.754   9.741  13.398
17969SOL     OW55803   1.579   9.372   3.011
17969SOL    HW155804   1.610   9.281   3.018
17969SOL    HW255805   1.643   9.414   2.953
17970SOL     OW55806   3.926   2.820  14.795
17970SOL    HW155807   3.977   2.797  14.718
17970SOL    HW255808   3.845   2.858  14.760
17971SOL     OW55809  10.767   9.758  13.412
17971SOL    HW155810  10.807   9.794  13.491
17971SOL    HW255811  10.829   9.693  13.381
17972SOL     OW55812   0.840   3.589   9.336
17972SOL    HW155813   0.792   3.541   9.403
17972SOL    HW255814   0.892   3.522   9.291
17973SOL     OW55815   4.022   5.220   8.693
17973SOL    HW155816   4.080   5.144   8.684
17973SOL    HW255817   4.040   5.273   8.616
17974SOL     OW55818   9.288   4.441  11.966
17974SOL    HW155819   9.209   4.465  11.918
17974SOL    HW255820   9.257   4.383  12.036
17975SOL     OW55821   9.841  14.720   1.053
17975SOL    HW155822   9.902  14.791   1.036
17975SOL    HW255823   9.785  14.753   1.123
17976SOL     OW55824   8.116   7.937   0.464
17976SOL    HW155825   8.075   8.022   0.484
17976SOL    HW255826   8.127   7.938   0.369
17977SOL     OW55827   5.184  12.652   6.174
17977SOL    HW155828   5.216  12.599   6.101
17977SOL    HW255829   5.251  12.642   6.242
17978SOL     OW55830  13.362  10.283  14.539
17978SOL    HW155831  13.277  10.324  14.551
17978SOL    HW255832  13.348  10.219  14.469
17979SOL     OW55833   8.410   4.231   8.072
17979SOL    HW155834   8.380   4.147   8.108
17979SOL    HW255835   8.478   4.207   8.009
17980SOL     OW55836   7.619  11.087  10.833
17980SOL    HW155837   7.644  11.101  10.924
17980SOL    HW255838   7.525  11.067  10.836
17981SOL     OW55839  11.193   4.950   9.157
17981SOL    HW155840  11.227   4.873   9.113
17981SOL    HW255841  11.132   4.989   9.094
17982SOL     OW55842  11.312   8.774   3.266
17982SOL    HW155843  11.255   8.837   3.222
17982SOL    HW255844  11.266   8.690   3.256
17983SOL     OW55845   1.519   8.748   1.999
17983SOL    HW155846   1.436   8.748   1.952
17983SOL    HW255847   1.545   8.840   2.001
17984SOL     OW55848   2.649  10.660   2.289
17984SOL    HW155849   2.681  10.589   2.233
17984SOL    HW255850   2.684  10.740   2.249
17985SOL     OW55851   8.611  13.351   2.862
17985SOL    HW155852   8.552  13.411   2.909
17985SOL    HW255853   8.557  13.316   2.791
17986SOL     OW55854   3.285   9.365   0.351
17986SOL    HW155855   3.229   9.314   0.292
17986SOL    HW255856   3.374   9.342   0.325
17987SOL     OW55857   6.843   5.812   6.598
17987SOL    HW155858   6.916   5.755   6.624
17987SOL    HW255859   6.773   5.790   6.659
17988SOL     OW55860   3.657   0.233  10.900
17988SOL    HW155861   3.742   0.200  10.870
17988SOL    HW255862   3.640   0.309  10.844
17989SOL     OW55863   2.780   6.909   8.383
17989SOL    HW155864   2.784   6.832   8.325
17989SOL    HW255865   2.687   6.931   8.388
17990SOL     OW55866  10.091   1.719   7.986
17990SOL    HW155867  10.118   1.811   7.984
17990SOL    HW255868  10.166   1.672   8.021
17991SOL     OW55869   8.102  10.247   3.281
17991SOL    HW155870   8.019  10.293   3.273
17991SOL    HW255871   8.164  10.314   3.310
17992SOL     OW55872  11.523   1.499   4.235
17992SOL    HW155873  11.613   1.507   4.268
17992SOL    HW255874  11.477   1.573   4.272
17993SOL     OW55875  14.398   0.981   9.015
17993SOL    HW155876  14.385   0.998   8.922
17993SOL    HW255877  14.428   0.890   9.018
17994SOL     OW55878  14.503   4.550   7.770
17994SOL    HW155879  14.554   4.529   7.849
17994SOL    HW255880  14.431   4.603   7.803
17995SOL     OW55881   0.154   5.411   3.456
17995SOL    HW155882   0.190   5.323   3.453
17995SOL    HW255883   0.206   5.462   3.393
17996SOL     OW55884   1.958   5.752   8.125
17996SOL    HW155885   1.876   5.725   8.167
17996SOL    HW255886   1.936   5.758   8.032
17997SOL     OW55887   9.425  12.570   7.145
17997SOL    HW155888   9.411  12.488   7.097
17997SOL    HW255889   9.352  12.575   7.206
17998SOL     OW55890  14.180   5.064   0.372
17998SOL    HW155891  14.263   5.083   0.415
17998SOL    HW255892  14.130   5.014   0.436
17999SOL     OW55893   4.647  13.074  13.551
17999SOL    HW155894   4.664  12.982  13.532
17999SOL    HW255895   4.652  13.118  13.467
18000SOL     OW55896   9.089   8.256   3.891
18000SOL    HW155897   9.009   8.211   3.866
18000SOL    HW255898   9.061   8.321   3.956
18001SOL     OW55899   2.823   7.719  12.735
18001SOL    HW155900   2.747   7.763  12.697
18001SOL    HW255901   2.852   7.777  12.805
18002SOL     OW55902   6.070   1.691   7.270
18002SOL    HW155903   6.010   1.705   7.343
18002SOL    HW255904   6.099   1.600   7.278
18003SOL     OW55905  12.161  11.942   3.908
18003SOL    HW155906  12.079  11.897   3.930
18003SOL    HW255907  12.135  12.033   3.894
18004SOL     OW55908   0.120  13.177   2.080
18004SOL    HW155909   0.169  13.238   2.135
18004SOL    HW255910   0.034  13.218   2.070
18005SOL     OW55911  12.891  12.346   1.932
18005SOL    HW155912  12.920  12.391   1.852
18005SOL    HW255913  12.875  12.417   1.994
18006SOL     OW55914   1.068   1.161   8.551
18006SOL    HW155915   0.987   1.121   8.582
18006SOL    HW255916   1.041   1.215   8.477
18007SOL     OW55917   1.640   3.722   6.498
18007SOL    HW155918   1.710   3.781   6.525
18007SOL    HW255919   1.677   3.673   6.424
18008SOL     OW55920   1.222  10.176  12.772
18008SOL    HW155921   1.142  10.132  12.742
18008SOL    HW255922   1.200  10.207  12.860
18009SOL     OW55923  10.442   9.245  11.703
18009SOL    HW155924  10.376   9.176  11.688
18009SOL    HW255925  10.526   9.200  11.693
18010SOL     OW55926  12.645   3.569  13.829
18010SOL    HW155927  12.654   3.474  13.842
18010SOL    HW255928  12.726   3.594  13.783
18011SOL     OW55929   6.790   5.384   6.006
18011SOL    HW155930   6.823   5.321   6.069
18011SOL    HW255931   6.845   5.461   6.018
18012SOL     OW55932   8.474  11.123   0.004
18012SOL    HW155933   8.396  11.073   0.028
18012SOL    HW255934   8.442  11.188  14.823
18013SOL     OW55935  12.467   0.711   7.264
18013SOL    HW155936  12.509   0.658   7.196
18013SOL    HW255937  12.438   0.647   7.329
18014SOL     OW55938   6.061   5.687   9.714
18014SOL    HW155939   6.044   5.603   9.755
18014SOL    HW255940   5.978   5.710   9.672
18015SOL     OW55941   2.255  13.781   2.978
18015SOL    HW155942   2.171  13.826   2.990
18015SOL    HW255943   2.319  13.840   3.017
18016SOL     OW55944  13.287  10.326   1.687
18016SOL    HW155945  13.371  10.321   1.732
18016SOL    HW255946  13.306  10.373   1.606
18017SOL     OW55947   0.324   2.128   5.262
18017SOL    HW155948   0.231   2.148   5.246
18017SOL    HW255949   0.370   2.173   5.192
18018SOL     OW55950   3.046  13.780   6.370
18018SOL    HW155951   3.032  13.806   6.461
18018SOL    HW255952   3.074  13.688   6.375
18019SOL     OW55953   0.236   1.910   2.328
18019SOL    HW155954   0.193   1.884   2.409
18019SOL    HW255955   0.263   1.827   2.288
18020SOL     OW55956   3.123   3.275   4.512
18020SOL    HW155957   3.217   3.261   4.527
18020SOL    HW255958   3.080   3.233   4.586
18021SOL     OW55959   4.051   2.088   2.400
18021SOL    HW155960   4.101   2.134   2.467
18021SOL    HW255961   4.117   2.049   2.342
18022SOL     OW55962  14.288   4.770   5.808
18022SOL    HW155963  14.307   4.794   5.717
18022SOL    HW255964  14.247   4.683   5.801
18023SOL     OW55965  13.368   8.351   2.251
18023SOL    HW155966  13.307   8.280   2.273
18023SOL    HW255967  13.410   8.372   2.335
18024SOL     OW55968   6.881  12.061   5.473
18024SOL    HW155969   6.846  11.995   5.533
18024SOL    HW255970   6.975  12.040   5.467
18025SOL     OW55971  12.995   8.826  14.617
18025SOL    HW155972  12.936   8.857  14.685
18025SOL    HW255973  12.975   8.733  14.608
18026SOL     OW55974  13.245  12.362  11.175
18026SOL    HW155975  13.156  12.361  11.140
18026SOL    HW255976  13.301  12.352  11.098
18027SOL     OW55977   5.672  11.752   2.276
18027SOL    HW155978   5.672  11.755   2.372
18027SOL    HW255979   5.581  11.768   2.252
18028SOL     OW55980   7.826   6.936  14.252
18028SOL    HW155981   7.761   6.931  14.322
18028SOL    HW255982   7.869   6.851  14.253
18029SOL     OW55983  11.419   1.597   1.961
18029SOL    HW155984  11.351   1.645   1.915
18029SOL    HW255985  11.480   1.664   1.992
18030SOL     OW55986   7.814   1.767   3.043
18030SOL    HW155987   7.719   1.767   3.049
18030SOL    HW255988   7.834   1.834   2.978
18031SOL     OW55989   6.727   4.450  10.309
18031SOL    HW155990   6.752   4.379  10.367
18031SOL    HW255991   6.758   4.423  10.223
18032SOL     OW55992   5.581   2.676  11.298
18032SOL    HW155993   5.569   2.751  11.241
18032SOL    HW255994   5.493   2.650  11.323
18033SOL     OW55995   8.793  10.785  11.044
18033SOL    HW155996   8.699  10.802  11.046
18033SOL    HW255997   8.824  10.832  10.966
18034SOL     OW55998  12.575   6.467  12.150
18034SOL    HW155999  12.608   6.442  12.064
18034SOL    HW256000  12.598   6.394  12.207
18035SOL     OW56001  14.079  14.113   6.830
18035SOL    HW156002  14.093  14.147   6.741
18035SOL    HW256003  14.166  14.088   6.861
18036SOL     OW56004   3.424   5.019  11.248
18036SOL    HW156005   3.483   5.078  11.295
18036SOL    HW256006   3.474   4.938  11.237
18037SOL     OW56007  13.892   6.495  10.624
18037SOL    HW156008  13.902   6.565  10.560
18037SOL    HW256009  13.934   6.528  10.703
18038SOL     OW56010   1.101   2.314   2.654
18038SOL    HW156011   1.025   2.369   2.674
18038SOL    HW256012   1.102   2.249   2.724
18039SOL     OW56013  14.513  12.560  14.529
18039SOL    HW156014  14.442  12.623  14.541
18039SOL    HW256015  14.509  12.537  14.436
18040SOL     OW56016   2.626  13.312   1.103
18040SOL    HW156017   2.572  13.323   1.181
18040SOL    HW256018   2.579  13.249   1.049
18041SOL     OW56019   6.669   5.687   0.938
18041SOL    HW156020   6.704   5.774   0.920
18041SOL    HW256021   6.582   5.704   0.975
18042SOL     OW56022   7.075   3.329  11.355
18042SOL    HW156023   6.990   3.366  11.379
18042SOL    HW256024   7.083   3.347  11.261
18043SOL     OW56025   1.343   1.682  12.489
18043SOL    HW156026   1.416   1.648  12.540
18043SOL    HW256027   1.361   1.776  12.480
18044SOL     OW56028  10.579   3.644   6.344
18044SOL    HW156029  10.594   3.664   6.437
18044SOL    HW256030  10.665   3.657   6.303
18045SOL     OW56031  13.728   3.983  11.367
18045SOL    HW156032  13.733   4.079  11.363
18045SOL    HW256033  13.735   3.955  11.276
18046SOL     OW56034   9.510   4.055   2.976
18046SOL    HW156035   9.489   4.130   2.922
18046SOL    HW256036   9.599   4.071   3.008
18047SOL     OW56037   4.116  12.114   9.942
18047SOL    HW156038   4.112  12.133   9.848
18047SOL    HW256039   4.189  12.052   9.951
18048SOL     OW56040  11.695  14.878   2.331
18048SOL    HW156041  11.725   0.060   2.396
18048SOL    HW256042  11.748   0.014   2.254
18049SOL     OW56043   4.441  10.859   1.430
18049SOL    HW156044   4.363  10.820   1.391
18049SOL    HW256045   4.512  10.836   1.371
18050SOL     OW56046   1.804   7.645   3.703
18050SOL    HW156047   1.797   7.634   3.798
18050SOL    HW256048   1.893   7.617   3.683
18051SOL     OW56049  11.108   9.582   5.258
18051SOL    HW156050  11.019   9.612   5.242
18051SOL    HW256051  11.161   9.661   5.259
18052SOL     OW56052   7.474  12.405   0.894
18052SOL    HW156053   7.438  12.341   0.956
18052SOL    HW256054   7.472  12.488   0.941
18053SOL     OW56055   9.268   9.050   8.494
18053SOL    HW156056   9.359   9.060   8.522
18053SOL    HW256057   9.252   8.955   8.500
18054SOL     OW56058  14.670   3.795   4.561
18054SOL    HW156059  14.692   3.807   4.469
18054SOL    HW256060  14.737   3.846   4.608
18055SOL     OW56061   3.186   8.987   4.177
18055SOL    HW156062   3.198   8.993   4.083
18055SOL    HW256063   3.260   9.036   4.214
18056SOL     OW56064   5.566  12.870   4.077
18056SOL    HW156065   5.551  12.837   3.988
18056SOL    HW256066   5.617  12.950   4.064
18057SOL     OW56067   7.245   9.273   2.122
18057SOL    HW156068   7.185   9.288   2.048
18057SOL    HW256069   7.254   9.359   2.163
18058SOL     OW56070  14.835   3.336   3.413
18058SOL    HW156071  14.790   3.283   3.478
18058SOL    HW256072  14.765   3.387   3.371
18059SOL     OW56073   3.465  13.561  13.838
18059SOL    HW156074   3.526  13.634  13.832
18059SOL    HW256075   3.405  13.586  13.909
18060SOL     OW56076   2.402   8.947   0.111
18060SOL    HW156077   2.403   8.913   0.022
18060SOL    HW256078   2.326   8.907   0.152
18061SOL     OW56079   7.779  10.982   0.652
18061SOL    HW156080   7.728  10.927   0.711
18061SOL    HW256081   7.867  10.945   0.656
18062SOL     OW56082   1.844  10.274   3.513
18062SOL    HW156083   1.802  10.283   3.598
18062SOL    HW256084   1.814  10.350   3.463
18063SOL     OW56085  13.385   3.573   0.719
18063SOL    HW156086  13.342   3.659   0.727
18063SOL    HW256087  13.312   3.512   0.709
18064SOL     OW56088  10.835   9.518   5.688
18064SOL    HW156089  10.760   9.471   5.651
18064SOL    HW256090  10.801   9.559   5.767
18065SOL     OW56091   3.777   1.550  12.918
18065SOL    HW156092   3.756   1.571  12.826
18065SOL    HW256093   3.742   1.462  12.931
18066SOL     OW56094  13.690   0.277  11.677
18066SOL    HW156095  13.650   0.332  11.610
18066SOL    HW256096  13.627   0.276  11.749
18067SOL     OW56097   9.428  10.454   9.415
18067SOL    HW156098   9.356  10.423   9.360
18067SOL    HW256099   9.506  10.419   9.375
18068SOL     OW56100   5.865   5.637  10.860
18068SOL    HW156101   5.867   5.668  10.951
18068SOL    HW256102   5.907   5.551  10.863
18069SOL     OW56103   6.797   1.656   9.678
18069SOL    HW156104   6.735   1.588   9.706
18069SOL    HW256105   6.792   1.722   9.747
18070SOL     OW56106  10.478   1.103  13.367
18070SOL    HW156107  10.467   1.027  13.423
18070SOL    HW256108  10.413   1.093  13.298
18071SOL     OW56109  13.077   7.985  10.652
18071SOL    HW156110  13.156   7.982  10.707
18071SOL    HW256111  13.005   7.969  10.712
18072SOL     OW56112   0.649  11.116  12.347
18072SOL    HW156113   0.634  11.031  12.308
18072SOL    HW256114   0.608  11.178  12.287
18073SOL     OW56115  11.275   8.649   2.150
18073SOL    HW156116  11.181   8.631   2.151
18073SOL    HW256117  11.294   8.672   2.059
18074SOL     OW56118   7.679  14.620   7.159
18074SOL    HW156119   7.624  14.561   7.107
18074SOL    HW256120   7.689  14.698   7.104
18075SOL     OW56121  12.302  13.016   9.036
18075SOL    HW156122  12.326  12.929   9.003
18075SOL    HW256123  12.271  13.000   9.126
18076SOL     OW56124   7.638  14.182   5.807
18076SOL    HW156125   7.694  14.108   5.782
18076SOL    HW256126   7.699  14.255   5.815
18077SOL     OW56127   3.083   5.628  11.077
18077SOL    HW156128   3.082   5.712  11.122
18077SOL    HW256129   3.151   5.638  11.010
18078SOL     OW56130   8.872   2.539  11.915
18078SOL    HW156131   8.780   2.512  11.921
18078SOL    HW256132   8.871   2.615  11.857
18079SOL     OW56133   5.607   2.691  13.748
18079SOL    HW156134   5.664   2.729  13.681
18079SOL    HW256135   5.610   2.597  13.732
18080SOL     OW56136   9.135   4.398  13.757
18080SOL    HW156137   9.200   4.420  13.690
18080SOL    HW256138   9.103   4.482  13.789
18081SOL     OW56139  13.455   6.753  12.457
18081SOL    HW156140  13.470   6.769  12.550
18081SOL    HW256141  13.360   6.759  12.447
18082SOL     OW56142   6.793   5.050  13.492
18082SOL    HW156143   6.811   5.013  13.405
18082SOL    HW256144   6.879   5.054  13.534
18083SOL     OW56145   3.762   4.355  13.259
18083SOL    HW156146   3.715   4.380  13.339
18083SOL    HW256147   3.813   4.278  13.284
18084SOL     OW56148  11.980  12.090  12.100
18084SOL    HW156149  12.029  12.087  12.018
18084SOL    HW256150  12.023  12.024  12.155
18085SOL     OW56151   8.340   8.838  13.461
18085SOL    HW156152   8.425   8.829  13.504
18085SOL    HW256153   8.283   8.878  13.527
18086SOL     OW56154  13.616  13.330   1.451
18086SOL    HW156155  13.555  13.262   1.478
18086SOL    HW256156  13.562  13.409   1.444
18087SOL     OW56157  11.225  10.541   2.907
18087SOL    HW156158  11.265  10.496   2.982
18087SOL    HW256159  11.270  10.506   2.831
18088SOL     OW56160   1.097  12.110  13.635
18088SOL    HW156161   1.111  12.016  13.643
18088SOL    HW256162   1.079  12.140  13.724
18089SOL     OW56163   5.564   4.923  14.764
18089SOL    HW156164   5.479   4.887  14.740
18089SOL    HW256165   5.553   5.018  14.755
18090SOL     OW56166   7.215  13.723   3.307
18090SOL    HW156167   7.198  13.801   3.254
18090SOL    HW256168   7.250  13.659   3.245
18091SOL     OW56169  11.566   4.930  11.377
18091SOL    HW156170  11.476   4.903  11.395
18091SOL    HW256171  11.572   4.934  11.282
18092SOL     OW56172   2.924   0.154   7.986
18092SOL    HW156173   2.902   0.233   8.034
18092SOL    HW256174   3.012   0.132   8.015
18093SOL     OW56175  11.636   1.112  12.165
18093SOL    HW156176  11.701   1.181  12.177
18093SOL    HW256177  11.680   1.032  12.193
18094SOL     OW56178   2.215  14.088   0.384
18094SOL    HW156179   2.196  14.038   0.305
18094SOL    HW256180   2.270  14.029   0.437
18095SOL     OW56181   9.818  11.533  12.939
18095SOL    HW156182   9.819  11.603  12.874
18095SOL    HW256183   9.835  11.577  13.023
18096SOL     OW56184  11.193   8.639   4.997
18096SOL    HW156185  11.171   8.640   4.904
18096SOL    HW256186  11.119   8.680   5.041
18097SOL     OW56187  13.347  14.775  11.077
18097SOL    HW156188  13.270  14.829  11.056
18097SOL    HW256189  13.312  14.688  11.092
18098SOL     OW56190   6.375   6.087  14.503
18098SOL    HW156191   6.456   6.093  14.452
18098SOL    HW256192   6.332   6.171  14.489
18099SOL     OW56193  14.142   2.912   8.054
18099SOL    HW156194  14.059   2.906   8.006
18099SOL    HW256195  14.126   2.864   8.136
18100SOL     OW56196  14.272   2.788  11.311
18100SOL    HW156197  14.204   2.824  11.369
18100SOL    HW256198  14.350   2.781  11.367
18101SOL     OW56199  12.051   9.850   7.943
18101SOL    HW156200  11.979   9.904   7.976
18101SOL    HW256201  12.129   9.904   7.956
18102SOL     OW56202   5.714   3.956  11.408
18102SOL    HW156203   5.761   3.885  11.365
18102SOL    HW256204   5.651   3.987  11.343
18103SOL     OW56205   7.669   9.527   7.340
18103SOL    HW156206   7.716   9.606   7.312
18103SOL    HW256207   7.624   9.553   7.420
18104SOL     OW56208   0.265  11.686   1.973
18104SOL    HW156209   0.173  11.673   1.997
18104SOL    HW256210   0.311  11.611   2.012
18105SOL     OW56211   1.091   6.680  14.528
18105SOL    HW156212   1.143   6.625  14.470
18105SOL    HW256213   1.047   6.619  14.587
18106SOL     OW56214   8.899   3.362   2.287
18106SOL    HW156215   8.852   3.304   2.347
18106SOL    HW256216   8.842   3.369   2.211
18107SOL     OW56217   8.542   2.416   3.986
18107SOL    HW156218   8.634   2.433   4.007
18107SOL    HW256219   8.544   2.354   3.914
18108SOL     OW56220   0.844  14.040  13.325
18108SOL    HW156221   0.906  13.992  13.271
18108SOL    HW256222   0.897  14.105  13.372
18109SOL     OW56223   3.164   7.633  13.804
18109SOL    HW156224   3.224   7.706  13.786
18109SOL    HW256225   3.107   7.630  13.727
18110SOL     OW56226   3.179   0.124  14.476
18110SOL    HW156227   3.123   0.202  14.483
18110SOL    HW256228   3.256   0.154  14.427
18111SOL     OW56229   5.528   9.019  10.900
18111SOL    HW156230   5.546   8.975  10.982
18111SOL    HW256231   5.433   9.031  10.900
18112SOL     OW56232   1.796   2.960   7.121
18112SOL    HW156233   1.811   2.995   7.033
18112SOL    HW256234   1.879   2.919   7.145
18113SOL     OW56235  13.882   3.800   0.503
18113SOL    HW156236  13.938   3.869   0.466
18113SOL    HW256237  13.800   3.844   0.525
18114SOL     OW56238   8.324   2.721   9.498
18114SOL    HW156239   8.259   2.661   9.534
18114SOL    HW256240   8.293   2.740   9.409
18115SOL     OW56241   1.737   6.382  12.553
18115SOL    HW156242   1.703   6.302  12.592
18115SOL    HW256243   1.806   6.410  12.612
18116SOL     OW56244  14.799   3.431   6.547
18116SOL    HW156245  14.770   3.371   6.478
18116SOL    HW256246  14.725   3.434   6.608
18117SOL     OW56247   0.801   3.037   5.186
18117SOL    HW156248   0.750   3.074   5.259
18117SOL    HW256249   0.878   2.999   5.227
18118SOL     OW56250   4.017   0.835   2.189
18118SOL    HW156251   3.998   0.753   2.236
18118SOL    HW256252   3.966   0.829   2.108
18119SOL     OW56253  14.447   6.906   0.053
18119SOL    HW156254  14.524   6.947   0.092
18119SOL    HW256255  14.376   6.969   0.069
18120SOL     OW56256  13.066   9.032  10.009
18120SOL    HW156257  12.990   9.079  10.045
18120SOL    HW256258  13.029   8.948   9.980
18121SOL     OW56259   8.289   6.051   9.783
18121SOL    HW156260   8.288   6.062   9.878
18121SOL    HW256261   8.219   6.109   9.751
18122SOL     OW56262   1.807   8.769   0.847
18122SOL    HW156263   1.748   8.705   0.808
18122SOL    HW256264   1.758   8.851   0.846
18123SOL     OW56265  11.819   1.704  13.322
18123SOL    HW156266  11.889   1.731  13.381
18123SOL    HW256267  11.857   1.713  13.235
18124SOL     OW56268   4.545   7.186  11.014
18124SOL    HW156269   4.454   7.156  11.010
18124SOL    HW256270   4.545   7.269  10.967
18125SOL     OW56271   3.973  13.352   1.128
18125SOL    HW156272   3.959  13.290   1.200
18125SOL    HW256273   4.067  13.349   1.112
18126SOL     OW56274  14.458   0.421  11.906
18126SOL    HW156275  14.469   0.366  11.828
18126SOL    HW256276  14.399   0.371  11.962
18127SOL     OW56277  11.448  11.865   4.605
18127SOL    HW156278  11.384  11.796   4.586
18127SOL    HW256279  11.403  11.922   4.668
18128SOL     OW56280  14.063   3.591   0.412
18128SOL    HW156281  14.149   3.625   0.387
18128SOL    HW256282  14.021   3.664   0.459
18129SOL     OW56283  11.626   0.429   6.564
18129SOL    HW156284  11.585   0.387   6.640
18129SOL    HW256285  11.680   0.498   6.602
18130SOL     OW56286   0.966   8.958   5.186
18130SOL    HW156287   0.884   8.943   5.139
18130SOL    HW256288   1.021   8.882   5.164
18131SOL     OW56289   6.666   3.586   0.817
18131SOL    HW156290   6.673   3.499   0.778
18131SOL    HW256291   6.571   3.600   0.826
18132SOL     OW56292   0.884   1.812  12.296
18132SOL    HW156293   0.854   1.880  12.235
18132SOL    HW256294   0.979   1.813  12.289
18133SOL     OW56295   7.316  11.874  10.990
18133SOL    HW156296   7.304  11.839  10.902
18133SOL    HW256297   7.238  11.846  11.038
18134SOL     OW56298   8.863  13.142   5.324
18134SOL    HW156299   8.938  13.109   5.274
18134SOL    HW256300   8.799  13.167   5.257
18135SOL     OW56301  13.998   6.737  13.500
18135SOL    HW156302  13.914   6.737  13.453
18135SOL    HW256303  14.008   6.827  13.530
18136SOL     OW56304  13.849  14.239   6.757
18136SOL    HW156305  13.919  14.193   6.804
18136SOL    HW256306  13.865  14.219   6.665
18137SOL     OW56307   7.306   2.420   2.624
18137SOL    HW156308   7.258   2.397   2.704
18137SOL    HW256309   7.386   2.367   2.628
18138SOL     OW56310   2.207   7.457  12.742
18138SOL    HW156311   2.172   7.513  12.672
18138SOL    HW256312   2.261   7.392  12.696
18139SOL     OW56313  14.261   9.022   6.882
18139SOL    HW156314  14.337   8.986   6.926
18139SOL    HW256315  14.242   8.959   6.812
18140SOL     OW56316   8.946   8.830   9.806
18140SOL    HW156317   9.028   8.795   9.841
18140SOL    HW256318   8.933   8.912   9.853
18141SOL     OW56319  10.303   5.475  11.434
18141SOL    HW156320  10.333   5.566  11.438
18141SOL    HW256321  10.215   5.481  11.397
18142SOL     OW56322   9.937   4.303   6.724
18142SOL    HW156323   9.870   4.234   6.722
18142SOL    HW256324   9.888   4.385   6.726
18143SOL     OW56325   5.349   7.144   7.277
18143SOL    HW156326   5.441   7.165   7.265
18143SOL    HW256327   5.324   7.191   7.357
18144SOL     OW56328  13.068   1.492   0.904
18144SOL    HW156329  13.147   1.530   0.943
18144SOL    HW256330  13.082   1.398   0.909
18145SOL     OW56331   4.317   7.287  13.830
18145SOL    HW156332   4.337   7.370  13.787
18145SOL    HW256333   4.244   7.307  13.888
18146SOL     OW56334   9.645  14.167   6.218
18146SOL    HW156335   9.635  14.174   6.123
18146SOL    HW256336   9.735  14.137   6.230
18147SOL     OW56337   7.093   2.181   7.575
18147SOL    HW156338   7.155   2.144   7.638
18147SOL    HW256339   7.146   2.199   7.497
18148SOL     OW56340   0.122  12.167  12.486
18148SOL    HW156341   0.083  12.136  12.404
18148SOL    HW256342   0.106  12.261  12.486
18149SOL     OW56343   1.496  14.676  14.544
18149SOL    HW156344   1.579  14.693  14.499
18149SOL    HW256345   1.468  14.590  14.511
18150SOL     OW56346  14.718   5.221   8.330
18150SOL    HW156347  14.783   5.171   8.381
18150SOL    HW256348  14.634   5.194   8.367
18151SOL     OW56349  12.877   4.421  13.025
18151SOL    HW156350  12.807   4.424  13.090
18151SOL    HW256351  12.917   4.334  13.036
18152SOL     OW56352   9.397   1.323   1.028
18152SOL    HW156353   9.416   1.306   1.120
18152SOL    HW256354   9.465   1.274   0.980
18153SOL     OW56355   3.937  11.440  14.702
18153SOL    HW156356   3.927  11.507  14.769
18153SOL    HW256357   3.861  11.384  14.712
18154SOL     OW56358  11.970   1.922   6.881
18154SOL    HW156359  11.987   1.829   6.897
18154SOL    HW256360  11.914   1.949   6.954
18155SOL     OW56361   9.441   9.920  12.844
18155SOL    HW156362   9.417   9.998  12.894
18155SOL    HW256363   9.504   9.951  12.780
18156SOL     OW56364   6.934   7.713   9.266
18156SOL    HW156365   7.015   7.663   9.280
18156SOL    HW256366   6.870   7.670   9.322
18157SOL     OW56367   3.633   1.490   0.535
18157SOL    HW156368   3.540   1.511   0.544
18157SOL    HW256369   3.637   1.433   0.459
18158SOL     OW56370  10.129   9.905   3.350
18158SOL    HW156371  10.148   9.977   3.290
18158SOL    HW256372  10.129   9.945   3.437
18159SOL     OW56373   1.251  10.546   1.340
18159SOL    HW156374   1.250  10.502   1.255
18159SOL    HW256375   1.271  10.476   1.403
18160SOL     OW56376   3.979   5.121   1.621
18160SOL    HW156377   3.894   5.118   1.663
18160SOL    HW256378   4.040   5.148   1.691
18161SOL     OW56379   5.292  14.707  13.128
18161SOL    HW156380   5.267  14.794  13.159
18161SOL    HW256381   5.211  14.668  13.097
18162SOL     OW56382  14.242  11.552  14.737
18162SOL    HW156383  14.185  11.574  14.811
18162SOL    HW256384  14.239  11.456  14.733
18163SOL     OW56385   6.099  12.051   9.998
18163SOL    HW156386   6.116  12.131   9.948
18163SOL    HW256387   6.145  12.064  10.080
18164SOL     OW56388  12.295   4.820  12.846
18164SOL    HW156389  12.333   4.903  12.815
18164SOL    HW256390  12.353   4.753  12.811
18165SOL     OW56391  13.225   7.277  12.058
18165SOL    HW156392  13.136   7.269  12.024
18165SOL    HW256393  13.260   7.355  12.015
18166SOL     OW56394   8.377  11.634   9.328
18166SOL    HW156395   8.395  11.629   9.422
18166SOL    HW256396   8.349  11.546   9.305
18167SOL     OW56397   1.331   7.805   6.912
18167SOL    HW156398   1.424   7.783   6.916
18167SOL    HW256399   1.290   7.750   6.978
18168SOL     OW56400  12.786  11.165  12.628
18168SOL    HW156401  12.713  11.105  12.644
18168SOL    HW256402  12.864  11.115  12.650
18169SOL     OW56403  12.820   6.917   9.851
18169SOL    HW156404  12.787   6.953   9.933
18169SOL    HW256405  12.757   6.849   9.826
18170SOL     OW56406  11.682  11.404   7.446
18170SOL    HW156407  11.604  11.394   7.501
18170SOL    HW256408  11.727  11.319   7.453
18171SOL     OW56409  13.474  12.364  13.742
18171SOL    HW156410  13.539  12.312  13.790
18171SOL    HW256411  13.515  12.450  13.731
18172SOL     OW56412   2.611  14.843  14.406
18172SOL    HW156413   2.651  14.839  14.493
18172SOL    HW256414   2.566  14.760  14.396
18173SOL     OW56415   6.351   8.250   8.921
18173SOL    HW156416   6.255   8.251   8.916
18173SOL    HW256417   6.373   8.157   8.924
18174SOL     OW56418  10.096   9.879   5.334
18174SOL    HW156419  10.059   9.818   5.270
18174SOL    HW256420  10.027   9.888   5.400
18175SOL     OW56421  13.164   6.818  12.459
18175SOL    HW156422  13.073   6.817  12.430
18175SOL    HW256423  13.178   6.907  12.491
18176SOL     OW56424   6.003  14.218  13.293
18176SOL    HW156425   6.013  14.197  13.386
18176SOL    HW256426   6.093  14.226  13.261
18177SOL     OW56427  13.290   0.469  11.165
18177SOL    HW156428  13.204   0.437  11.141
18177SOL    HW256429  13.336   0.482  11.082
18178SOL     OW56430   1.528  12.000   1.252
18178SOL    HW156431   1.457  11.997   1.187
18178SOL    HW256432   1.501  12.069   1.313
18179SOL     OW56433   0.942   9.885   7.932
18179SOL    HW156434   0.935   9.831   7.853
18179SOL    HW256435   0.877   9.954   7.920
18180SOL     OW56436  14.103   7.370  13.856
18180SOL    HW156437  14.191   7.403  13.842
18180SOL    HW256438  14.113   7.274  13.858
18181SOL     OW56439   8.341   9.445  12.030
18181SOL    HW156440   8.329   9.374  11.967
18181SOL    HW256441   8.364   9.401  12.112
18182SOL     OW56442   9.052   8.637   2.888
18182SOL    HW156443   9.005   8.619   2.806
18182SOL    HW256444   8.982   8.645   2.953
18183SOL     OW56445   3.024  12.623   8.608
18183SOL    HW156446   3.077  12.696   8.575
18183SOL    HW256447   2.952  12.616   8.547
18184SOL     OW56448   1.174   9.051   8.592
18184SOL    HW156449   1.123   9.121   8.552
18184SOL    HW256450   1.109   8.992   8.630
18185SOL     OW56451  10.276   7.166   8.925
18185SOL    HW156452  10.298   7.257   8.948
18185SOL    HW256453  10.343   7.114   8.969
18186SOL     OW56454   2.685   1.514  11.900
18186SOL    HW156455   2.661   1.473  11.817
18186SOL    HW256456   2.601   1.529  11.944
18187SOL     OW56457  14.298  13.231   2.192
18187SOL    HW156458  14.383  13.223   2.235
18187SOL    HW256459  14.271  13.321   2.207
18188SOL     OW56460  12.280   2.648   1.360
18188SOL    HW156461  12.355   2.640   1.302
18188SOL    HW256462  12.206   2.618   1.308
18189SOL     OW56463   0.020  14.634   4.195
18189SOL    HW156464   0.108  14.667   4.175
18189SOL    HW256465  14.852  14.713   4.217
18190SOL     OW56466  13.885   0.388   1.182
18190SOL    HW156467  13.896   0.314   1.122
18190SOL    HW256468  13.860   0.349   1.265
18191SOL     OW56469   8.346  14.391   6.105
18191SOL    HW156470   8.340  14.301   6.139
18191SOL    HW256471   8.254  14.419   6.098
18192SOL     OW56472   0.639  14.341   2.750
18192SOL    HW156473   0.572  14.316   2.686
18192SOL    HW256474   0.721  14.312   2.710
18193SOL     OW56475  14.486   9.038  11.396
18193SOL    HW156476  14.459   8.995  11.477
18193SOL    HW256477  14.573   9.002  11.378
18194SOL     OW56478   7.023   3.660  14.597
18194SOL    HW156479   7.005   3.745  14.638
18194SOL    HW256480   6.941   3.612  14.603
18195SOL     OW56481  14.816  14.843  13.363
18195SOL    HW156482  14.758  14.837  13.439
18195SOL    HW256483  14.759  14.869  13.291
18196SOL     OW56484   0.891   2.568   6.888
18196SOL    HW156485   0.883   2.641   6.949
18196SOL    HW256486   0.829   2.502   6.921
18197SOL     OW56487   9.410   7.928  12.492
18197SOL    HW156488   9.489   7.975  12.467
18197SOL    HW256489   9.430   7.892  12.579
18198SOL     OW56490   6.125  12.339   8.368
18198SOL    HW156491   6.042  12.310   8.331
18198SOL    HW256492   6.168  12.385   8.296
18199SOL     OW56493   9.069   2.092   8.356
18199SOL    HW156494   9.004   2.029   8.324
18199SOL    HW256495   9.020   2.173   8.370
18200SOL     OW56496   4.632   5.853   0.662
18200SOL    HW156497   4.544   5.879   0.690
18200SOL    HW256498   4.633   5.758   0.674
18201SOL     OW56499   3.339   1.346   9.042
18201SOL    HW156500   3.350   1.272   8.982
18201SOL    HW256501   3.405   1.332   9.109
18202SOL     OW56502   2.913   8.734  14.483
18202SOL    HW156503   2.887   8.823  14.507
18202SOL    HW256504   2.960   8.744  14.401
18203SOL     OW56505   4.354   5.990  12.294
18203SOL    HW156506   4.317   6.066  12.249
18203SOL    HW256507   4.322   5.997  12.384
18204SOL     OW56508   4.103  14.871  12.699
18204SOL    HW156509   4.171   0.054  12.714
18204SOL    HW256510   4.044   0.030  12.635
18205SOL     OW56511  10.673   2.641   7.843
18205SOL    HW156512  10.707   2.697   7.774
18205SOL    HW256513  10.724   2.560   7.836
18206SOL     OW56514   7.040  11.805   9.441
18206SOL    HW156515   6.986  11.882   9.423
18206SOL    HW256516   7.079  11.782   9.357
18207SOL     OW56517   6.089   4.753  10.800
18207SOL    HW156518   6.171   4.801  10.785
18207SOL    HW256519   6.115   4.661  10.800
18208SOL     OW56520   9.127  11.696   7.285
18208SOL    HW156521   9.155  11.607   7.308
18208SOL    HW256522   9.068  11.684   7.210
18209SOL     OW56523   7.792   5.025   9.685
18209SOL    HW156524   7.781   5.071   9.768
18209SOL    HW256525   7.834   5.089   9.627
18210SOL     OW56526  12.888   4.597   1.827
18210SOL    HW156527  12.818   4.641   1.779
18210SOL    HW256528  12.969   4.627   1.786
18211SOL     OW56529   1.718  12.095  10.169
18211SOL    HW156530   1.741  12.044  10.246
18211SOL    HW256531   1.626  12.118  10.182
18212SOL     OW56532  14.799   4.454   4.026
18212SOL    HW156533  14.834   4.490   4.108
18212SOL    HW256534  14.859   4.382   4.005
18213SOL     OW56535   4.539   3.623  13.563
18213SOL    HW156536   4.493   3.641  13.645
18213SOL    HW256537   4.510   3.693  13.503
18214SOL     OW56538   8.539  12.354  14.858
18214SOL    HW156539   8.593  12.283  14.824
18214SOL    HW256540   8.470  12.310   0.027
18215SOL     OW56541   3.801   4.749   9.142
18215SOL    HW156542   3.776   4.839   9.122
18215SOL    HW256543   3.857   4.756   9.219
18216SOL     OW56544  14.044   0.330  13.827
18216SOL    HW156545  13.961   0.358  13.789
18216SOL    HW256546  14.020   0.280  13.905
18217SOL     OW56547  11.698  14.098  13.923
18217SOL    HW156548  11.660  14.018  13.960
18217SOL    HW256549  11.686  14.089  13.828
18218SOL     OW56550  14.839   6.384  13.264
18218SOL    HW156551  14.829   6.305  13.318
18218SOL    HW256552  14.879   6.352  13.183
18219SOL     OW56553   5.246  11.147   6.784
18219SOL    HW156554   5.215  11.237   6.780
18219SOL    HW256555   5.179  11.097   6.737
18220SOL     OW56556   5.438   4.462   1.770
18220SOL    HW156557   5.479   4.499   1.848
18220SOL    HW256558   5.407   4.376   1.797
18221SOL     OW56559   6.879  12.217   4.842
18221SOL    HW156560   6.815  12.242   4.775
18221SOL    HW256561   6.931  12.148   4.801
18222SOL     OW56562  10.294  13.127  11.319
18222SOL    HW156563  10.347  13.079  11.255
18222SOL    HW256564  10.210  13.140  11.275
18223SOL     OW56565  13.679   4.197  12.503
18223SOL    HW156566  13.600   4.148  12.479
18223SOL    HW256567  13.690   4.262  12.433
18224SOL     OW56568   4.335   4.590  13.062
18224SOL    HW156569   4.247   4.620  13.086
18224SOL    HW256570   4.363   4.650  12.992
18225SOL     OW56571  12.400   6.196  10.790
18225SOL    HW156572  12.417   6.222  10.700
18225SOL    HW256573  12.485   6.165  10.822
18226SOL     OW56574  12.538   4.197   6.746
18226SOL    HW156575  12.523   4.221   6.837
18226SOL    HW256576  12.524   4.102   6.744
18227SOL     OW56577   7.613   6.572   8.635
18227SOL    HW156578   7.662   6.610   8.708
18227SOL    HW256579   7.670   6.505   8.599
18228SOL     OW56580   7.280   7.257  12.492
18228SOL    HW156581   7.242   7.310  12.562
18228SOL    HW256582   7.262   7.305  12.412
18229SOL     OW56583  13.832   7.950   7.335
18229SOL    HW156584  13.822   7.996   7.251
18229SOL    HW256585  13.746   7.913   7.352
18230SOL     OW56586  13.596  11.416  13.210
18230SOL    HW156587  13.554  11.501  13.196
18230SOL    HW256588  13.529  11.364  13.255
18231SOL     OW56589   2.873   0.644   6.996
18231SOL    HW156590   2.798   0.639   6.936
18231SOL    HW256591   2.857   0.723   7.047
18232SOL     OW56592   9.407   2.792   1.418
18232SOL    HW156593   9.499   2.795   1.445
18232SOL    HW256594   9.410   2.759   1.328
18233SOL     OW56595   1.248  13.245   9.863
18233SOL    HW156596   1.246  13.341   9.864
18233SOL    HW256597   1.222  13.222   9.774
18234SOL     OW56598   9.158   7.950   5.153
18234SOL    HW156599   9.082   7.920   5.203
18234SOL    HW256600   9.183   8.032   5.195
18235SOL     OW56601  10.882   0.910   1.553
18235SOL    HW156602  10.813   0.850   1.526
18235SOL    HW256603  10.879   0.909   1.649
18236SOL     OW56604   8.607   1.648  13.682
18236SOL    HW156605   8.688   1.694  13.706
18236SOL    HW256606   8.618   1.629  13.589
18237SOL     OW56607   4.712   6.123  10.806
18237SOL    HW156608   4.671   6.038  10.823
18237SOL    HW256609   4.655   6.164  10.741
18238SOL     OW56610  11.738   4.374   4.531
18238SOL    HW156611  11.775   4.371   4.619
18238SOL    HW256612  11.689   4.457   4.529
18239SOL     OW56613   5.508   1.825   8.500
18239SOL    HW156614   5.553   1.824   8.416
18239SOL    HW256615   5.577   1.837   8.565
18240SOL     OW56616   1.179  11.546   6.378
18240SOL    HW156617   1.113  11.568   6.444
18240SOL    HW256618   1.175  11.620   6.316
18241SOL     OW56619   8.995  12.605   7.972
18241SOL    HW156620   9.068  12.543   7.976
18241SOL    HW256621   9.036  12.691   7.980
18242SOL     OW56622   8.860   0.246   0.397
18242SOL    HW156623   8.768   0.222   0.391
18242SOL    HW256624   8.906   0.162   0.408
18243SOL     OW56625   2.285   1.346   1.162
18243SOL    HW156626   2.342   1.271   1.143
18243SOL    HW256627   2.225   1.315   1.229
18244SOL     OW56628   1.254  14.019   3.778
18244SOL    HW156629   1.307  14.092   3.810
18244SOL    HW256630   1.291  13.942   3.822
18245SOL     OW56631  13.531   8.002   4.310
18245SOL    HW156632  13.614   8.048   4.321
18245SOL    HW256633  13.500   7.985   4.399
18246SOL     OW56634   6.286   7.665  12.923
18246SOL    HW156635   6.266   7.572  12.933
18246SOL    HW256636   6.214   7.710  12.967
18247SOL     OW56637  13.164   0.837  12.489
18247SOL    HW156638  13.160   0.755  12.440
18247SOL    HW256639  13.123   0.902  12.432
18248SOL     OW56640   9.350  11.630   6.039
18248SOL    HW156641   9.326  11.598   5.952
18248SOL    HW256642   9.362  11.551   6.091
18249SOL     OW56643  14.845  13.331   5.239
18249SOL    HW156644   0.019  13.356   5.165
18249SOL    HW256645   0.023  13.295   5.303
18250SOL     OW56646  10.451  13.554   1.005
18250SOL    HW156647  10.488  13.588   1.087
18250SOL    HW256648  10.392  13.484   1.033
18251SOL     OW56649   9.210   5.544   9.020
18251SOL    HW156650   9.248   5.528   8.934
18251SOL    HW256651   9.281   5.527   9.081
18252SOL     OW56652   0.981   8.877  12.433
18252SOL    HW156653   0.902   8.928  12.416
18252SOL    HW256654   0.988   8.817  12.358
18253SOL     OW56655  14.288  14.239   0.502
18253SOL    HW156656  14.216  14.278   0.552
18253SOL    HW256657  14.360  14.302   0.510
18254SOL     OW56658  10.543   2.355   1.301
18254SOL    HW156659  10.555   2.270   1.259
18254SOL    HW256660  10.486   2.403   1.242
18255SOL     OW56661  11.249   8.806   5.466
18255SOL    HW156662  11.256   8.712   5.453
18255SOL    HW256663  11.196   8.815   5.545
18256SOL     OW56664   2.548  11.121   7.745
18256SOL    HW156665   2.510  11.110   7.832
18256SOL    HW256666   2.631  11.167   7.761
18257SOL     OW56667  12.909  11.580   1.477
18257SOL    HW156668  12.848  11.637   1.430
18257SOL    HW256669  12.918  11.621   1.563
18258SOL     OW56670   6.218   3.943   8.701
18258SOL    HW156671   6.151   4.007   8.680
18258SOL    HW256672   6.172   3.875   8.752
18259SOL     OW56673  11.014   6.666   3.599
18259SOL    HW156674  11.033   6.759   3.611
18259SOL    HW256675  10.923   6.663   3.571
18260SOL     OW56676   1.266  13.716   7.535
18260SOL    HW156677   1.217  13.645   7.494
18260SOL    HW256678   1.309  13.761   7.462
18261SOL     OW56679   7.880  13.441  13.837
18261SOL    HW156680   7.897  13.509  13.903
18261SOL    HW256681   7.874  13.489  13.755
18262SOL     OW56682   3.866   2.547  13.956
18262SOL    HW156683   3.793   2.500  13.915
18262SOL    HW256684   3.932   2.479  13.970
18263SOL     OW56685   6.484   3.043   7.755
18263SOL    HW156686   6.464   2.967   7.700
18263SOL    HW256687   6.464   3.014   7.844
18264SOL     OW56688  14.219   3.994   3.925
18264SOL    HW156689  14.281   3.948   3.868
18264SOL    HW256690  14.269   4.067   3.961
18265SOL     OW56691   5.857   1.377  14.199
18265SOL    HW156692   5.923   1.353  14.134
18265SOL    HW256693   5.878   1.323  14.276
18266SOL     OW56694  12.885  12.579   4.743
18266SOL    HW156695  12.862  12.591   4.836
18266SOL    HW256696  12.802  12.552   4.702
18267SOL     OW56697   0.695  14.148   4.489
18267SOL    HW156698   0.714  14.241   4.503
18267SOL    HW256699   0.658  14.144   4.401
18268SOL     OW56700   3.696   9.859   7.400
18268SOL    HW156701   3.756   9.900   7.338
18268SOL    HW256702   3.655   9.788   7.349
18269SOL     OW56703   7.414   2.920   9.664
18269SOL    HW156704   7.485   2.857   9.676
18269SOL    HW256705   7.439   2.994   9.720
18270SOL     OW56706  13.787   1.929  12.973
18270SOL    HW156707  13.796   2.024  12.984
18270SOL    HW256708  13.869   1.893  13.008
18271SOL     OW56709  11.196   9.198  10.565
18271SOL    HW156710  11.205   9.130  10.499
18271SOL    HW256711  11.182   9.278  10.514
18272SOL     OW56712   5.951  10.152   6.247
18272SOL    HW156713   5.989  10.134   6.333
18272SOL    HW256714   5.886  10.083   6.235
18273SOL     OW56715   8.770   0.244   9.838
18273SOL    HW156716   8.818   0.322   9.809
18273SOL    HW256717   8.758   0.257   9.932
18274SOL     OW56718   2.602   7.513   2.623
18274SOL    HW156719   2.529   7.572   2.640
18274SOL    HW256720   2.616   7.468   2.707
18275SOL     OW56721   4.247   1.224  14.017
18275SOL    HW156722   4.281   1.311  14.041
18275SOL    HW256723   4.217   1.235  13.927
18276SOL     OW56724   8.422   8.545   6.197
18276SOL    HW156725   8.415   8.607   6.124
18276SOL    HW256726   8.478   8.591   6.260
18277SOL     OW56727   5.514   0.337  11.354
18277SOL    HW156728   5.541   0.259  11.307
18277SOL    HW256729   5.546   0.410  11.300
18278SOL     OW56730   1.244  14.713   9.255
18278SOL    HW156731   1.318  14.751   9.207
18278SOL    HW256732   1.263  14.619   9.257
18279SOL     OW56733   1.487  13.576  10.003
18279SOL    HW156734   1.468  13.588  10.096
18279SOL    HW256735   1.554  13.507  10.001
18280SOL     OW56736   9.024   9.145   4.115
18280SOL    HW156737   8.998   9.075   4.056
18280SOL    HW256738   8.968   9.134   4.192
18281SOL     OW56739  14.621   2.248  10.981
18281SOL    HW156740  14.609   2.235  10.887
18281SOL    HW256741  14.544   2.298  11.009
18282SOL     OW56742  11.045   7.752   5.163
18282SOL    HW156743  11.023   7.700   5.240
18282SOL    HW256744  10.983   7.825   5.165
18283SOL     OW56745  11.784  13.508  12.571
18283SOL    HW156746  11.788  13.475  12.481
18283SOL    HW256747  11.797  13.603  12.562
18284SOL     OW56748   4.450   1.943  11.905
18284SOL    HW156749   4.508   1.980  11.971
18284SOL    HW256750   4.449   1.849  11.923
18285SOL     OW56751   5.694   9.668  10.330
18285SOL    HW156752   5.771   9.704  10.374
18285SOL    HW256753   5.676   9.586  10.376
18286SOL     OW56754   9.535  12.417  10.381
18286SOL    HW156755   9.517  12.400  10.288
18286SOL    HW256756   9.630  12.409  10.389
18287SOL     OW56757  10.210  11.031   1.068
18287SOL    HW156758  10.130  11.025   1.121
18287SOL    HW256759  10.251  11.112   1.096
18288SOL     OW56760   4.422  12.538   3.047
18288SOL    HW156761   4.417  12.533   2.952
18288SOL    HW256762   4.358  12.605   3.071
18289SOL     OW56763  11.663   8.283  10.856
18289SOL    HW156764  11.618   8.363  10.881
18289SOL    HW256765  11.637   8.268  10.764
18290SOL     OW56766  11.210   3.661  13.629
18290SOL    HW156767  11.157   3.590  13.667
18290SOL    HW256768  11.216   3.639  13.536
18291SOL     OW56769  11.985   8.662  11.181
18291SOL    HW156770  11.996   8.584  11.235
18291SOL    HW256771  12.021   8.637  11.096
18292SOL     OW56772   2.750  10.093   8.995
18292SOL    HW156773   2.745  10.016   9.053
18292SOL    HW256774   2.783  10.163   9.052
18293SOL     OW56775   1.985   5.778  10.420
18293SOL    HW156776   1.931   5.841  10.466
18293SOL    HW256777   1.958   5.693  10.455
18294SOL     OW56778  10.446   9.063   0.254
18294SOL    HW156779  10.392   9.043   0.177
18294SOL    HW256780  10.431   8.989   0.313
18295SOL     OW56781   5.696   0.656  12.720
18295SOL    HW156782   5.729   0.611  12.798
18295SOL    HW256783   5.773   0.667  12.664
18296SOL     OW56784  12.561  10.595   7.974
18296SOL    HW156785  12.607  10.547   7.906
18296SOL    HW256786  12.469  10.591   7.948
18297SOL     OW56787  14.345   0.968  11.106
18297SOL    HW156788  14.394   0.973  11.023
18297SOL    HW256789  14.253   0.981  11.080
18298SOL     OW56790   0.563   3.110   2.334
18298SOL    HW156791   0.549   3.136   2.243
18298SOL    HW256792   0.657   3.116   2.347
18299SOL     OW56793   2.666   5.569   1.266
18299SOL    HW156794   2.669   5.497   1.329
18299SOL    HW256795   2.625   5.641   1.314
18300SOL     OW56796   0.487  14.082   9.474
18300SOL    HW156797   0.473  14.054   9.383
18300SOL    HW256798   0.402  14.067   9.516
18301SOL     OW56799   3.275  10.418   2.431
18301SOL    HW156800   3.357  10.420   2.381
18301SOL    HW256801   3.243  10.509   2.429
18302SOL     OW56802   5.691   5.196  13.619
18302SOL    HW156803   5.633   5.172  13.547
18302SOL    HW256804   5.700   5.291  13.612
18303SOL     OW56805   9.006   4.408   5.675
18303SOL    HW156806   9.036   4.453   5.754
18303SOL    HW256807   8.983   4.320   5.706
18304SOL     OW56808   4.076   9.806   9.465
18304SOL    HW156809   4.157   9.764   9.494
18304SOL    HW256810   4.026   9.819   9.546
18305SOL     OW56811   9.469   8.051   8.939
18305SOL    HW156812   9.474   8.012   8.851
18305SOL    HW256813   9.557   8.083   8.956
18306SOL     OW56814   7.749  11.961   7.335
18306SOL    HW156815   7.717  11.911   7.260
18306SOL    HW256816   7.706  11.921   7.411
18307SOL     OW56817   1.931   5.236   8.867
18307SOL    HW156818   2.022   5.237   8.894
18307SOL    HW256819   1.893   5.159   8.909
18308SOL     OW56820  12.954  10.881  14.197
18308SOL    HW156821  12.873  10.864  14.245
18308SOL    HW256822  12.968  10.803  14.144
18309SOL     OW56823   2.364  11.027   5.914
18309SOL    HW156824   2.272  11.018   5.939
18309SOL    HW256825   2.403  11.082   5.982
18310SOL     OW56826   8.813  10.736   7.939
18310SOL    HW156827   8.849  10.745   8.027
18310SOL    HW256828   8.795  10.643   7.930
18311SOL     OW56829   2.397   3.566  13.977
18311SOL    HW156830   2.473   3.507  13.968
18311SOL    HW256831   2.426   3.634  14.038
18312SOL     OW56832  13.069  11.297   4.762
18312SOL    HW156833  13.069  11.389   4.736
18312SOL    HW256834  13.039  11.249   4.685
18313SOL     OW56835  13.125  12.540   4.632
18313SOL    HW156836  13.148  12.447   4.637
18313SOL    HW256837  13.036  12.544   4.669
18314SOL     OW56838  14.814   7.045   8.473
18314SOL    HW156839  14.834   7.045   8.567
18314SOL    HW256840  14.723   7.016   8.468
18315SOL     OW56841  10.841   9.524  13.234
18315SOL    HW156842  10.914   9.555  13.288
18315SOL    HW256843  10.870   9.541  13.144
18316SOL     OW56844   5.276   9.930  11.612
18316SOL    HW156845   5.330  10.004  11.640
18316SOL    HW256846   5.337   9.856  11.606
18317SOL     OW56847   5.382   8.918   4.368
18317SOL    HW156848   5.471   8.887   4.383
18317SOL    HW256849   5.389   8.972   4.289
18318SOL     OW56850  14.040  11.362   5.923
18318SOL    HW156851  13.976  11.304   5.964
18318SOL    HW256852  13.989  11.438   5.894
18319SOL     OW56853  13.420  14.284   4.698
18319SOL    HW156854  13.436  14.193   4.724
18319SOL    HW256855  13.326  14.295   4.706
18320SOL     OW56856   2.177  11.096  11.138
18320SOL    HW156857   2.257  11.044  11.128
18320SOL    HW256858   2.169  11.143  11.055
18321SOL     OW56859   2.777   7.111   4.642
18321SOL    HW156860   2.687   7.082   4.657
18321SOL    HW256861   2.803   7.066   4.562
18322SOL     OW56862  13.586   3.166   1.582
18322SOL    HW156863  13.558   3.153   1.492
18322SOL    HW256864  13.634   3.086   1.604
18323SOL     OW56865  11.109  12.370  14.057
18323SOL    HW156866  11.037  12.414  14.102
18323SOL    HW256867  11.171  12.440  14.038
18324SOL     OW56868   6.257  11.874   3.395
18324SOL    HW156869   6.233  11.885   3.303
18324SOL    HW256870   6.176  11.891   3.443
18325SOL     OW56871   7.214   0.753   0.536
18325SOL    HW156872   7.245   0.827   0.588
18325SOL    HW256873   7.171   0.696   0.600
18326SOL     OW56874   1.391  14.306  14.598
18326SOL    HW156875   1.481  14.337  14.608
18326SOL    HW256876   1.361  14.346  14.516
18327SOL     OW56877   8.797   9.830   2.837
18327SOL    HW156878   8.817   9.921   2.857
18327SOL    HW256879   8.848   9.811   2.758
18328SOL     OW56880  13.489   8.435   0.318
18328SOL    HW156881  13.447   8.377   0.255
18328SOL    HW256882  13.476   8.523   0.283
18329SOL     OW56883  10.379   0.284   3.292
18329SOL    HW156884  10.331   0.332   3.224
18329SOL    HW256885  10.325   0.294   3.371
18330SOL     OW56886  13.602   1.217   1.595
18330SOL    HW156887  13.602   1.134   1.547
18330SOL    HW256888  13.516   1.220   1.638
18331SOL     OW56889  11.874   7.031   3.870
18331SOL    HW156890  11.780   7.020   3.856
18331SOL    HW256891  11.881   7.061   3.961
18332SOL     OW56892  13.887   1.256  14.641
18332SOL    HW156893  13.973   1.216  14.634
18332SOL    HW256894  13.886   1.298  14.727
18333SOL     OW56895   2.347   4.916   9.792
18333SOL    HW156896   2.338   5.010   9.782
18333SOL    HW256897   2.305   4.896   9.876
18334SOL     OW56898   8.154  11.093   4.276
18334SOL    HW156899   8.113  11.179   4.282
18334SOL    HW256900   8.106  11.049   4.206
18335SOL     OW56901  11.587   4.048   6.692
18335SOL    HW156902  11.571   4.129   6.741
18335SOL    HW256903  11.516   3.990   6.720
18336SOL     OW56904   0.289  10.790   9.701
18336SOL    HW156905   0.227  10.817   9.769
18336SOL    HW256906   0.374  10.789   9.745
18337SOL     OW56907   8.082   0.481   3.960
18337SOL    HW156908   8.045   0.566   3.985
18337SOL    HW256909   8.013   0.418   3.980
18338SOL     OW56910   5.477   9.692  11.582
18338SOL    HW156911   5.484   9.598  11.599
18338SOL    HW256912   5.531   9.732  11.650
18339SOL     OW56913   6.139  12.377   7.697
18339SOL    HW156914   6.123  12.283   7.685
18339SOL    HW256915   6.051  12.415   7.702
18340SOL     OW56916   8.798   3.752   6.783
18340SOL    HW156917   8.878   3.700   6.791
18340SOL    HW256918   8.755   3.744   6.867
18341SOL     OW56919   2.693   5.395   9.307
18341SOL    HW156920   2.710   5.437   9.391
18341SOL    HW256921   2.650   5.462   9.254
18342SOL     OW56922   1.495   2.274   0.652
18342SOL    HW156923   1.432   2.261   0.722
18342SOL    HW256924   1.561   2.206   0.665
18343SOL     OW56925  10.843   2.935  12.982
18343SOL    HW156926  10.864   2.937  12.889
18343SOL    HW256927  10.900   2.867  13.018
18344SOL     OW56928   4.670  12.904   1.748
18344SOL    HW156929   4.702  12.835   1.690
18344SOL    HW256930   4.644  12.858   1.827
18345SOL     OW56931  13.022   9.524  10.548
18345SOL    HW156932  12.980   9.440  10.533
18345SOL    HW256933  13.073   9.540  10.469
18346SOL     OW56934   8.018  11.449   4.685
18346SOL    HW156935   7.958  11.389   4.642
18346SOL    HW256936   7.964  11.524   4.710
18347SOL     OW56937   3.444   5.144   9.570
18347SOL    HW156938   3.441   5.056   9.532
18347SOL    HW256939   3.493   5.133   9.651
18348SOL     OW56940   8.498   7.753   1.242
18348SOL    HW156941   8.462   7.841   1.247
18348SOL    HW256942   8.556   7.746   1.319
18349SOL     OW56943  12.471   9.263  13.549
18349SOL    HW156944  12.494   9.206  13.623
18349SOL    HW256945  12.417   9.331  13.588
18350SOL     OW56946   8.594  13.412   0.891
18350SOL    HW156947   8.661  13.477   0.912
18350SOL    HW256948   8.546  13.449   0.817
18351SOL     OW56949   6.301  13.535  12.628
18351SOL    HW156950   6.271  13.451  12.592
18351SOL    HW256951   6.221  13.586  12.639
18352SOL     OW56952  10.347   6.534  13.398
18352SOL    HW156953  10.300   6.616  13.414
18352SOL    HW256954  10.435   6.549  13.432
18353SOL     OW56955   7.483   1.346   0.146
18353SOL    HW156956   7.523   1.283   0.085
18353SOL    HW256957   7.428   1.293   0.203
18354SOL     OW56958   8.599   0.269   6.228
18354SOL    HW156959   8.642   0.256   6.312
18354SOL    HW256960   8.628   0.195   6.175
18355SOL     OW56961   6.290   6.379   5.182
18355SOL    HW156962   6.336   6.462   5.170
18355SOL    HW256963   6.356   6.319   5.216
18356SOL     OW56964   9.987   5.905   8.299
18356SOL    HW156965   9.911   5.854   8.270
18356SOL    HW256966  10.037   5.921   8.219
18357SOL     OW56967  14.167  12.569   4.756
18357SOL    HW156968  14.232  12.600   4.693
18357SOL    HW256969  14.106  12.642   4.765
18358SOL     OW56970  10.332   9.222   0.660
18358SOL    HW156971  10.342   9.243   0.567
18358SOL    HW256972  10.422   9.212   0.692
18359SOL     OW56973   7.341   7.511   4.871
18359SOL    HW156974   7.287   7.434   4.854
18359SOL    HW256975   7.280   7.575   4.909
18360SOL     OW56976  11.988  10.621   2.100
18360SOL    HW156977  12.054  10.564   2.061
18360SOL    HW256978  11.909  10.567   2.104
18361SOL     OW56979   8.909   7.632   0.873
18361SOL    HW156980   8.966   7.612   0.799
18361SOL    HW256981   8.821   7.631   0.837
18362SOL     OW56982  10.890  13.056  11.992
18362SOL    HW156983  10.916  12.975  11.948
18362SOL    HW256984  10.910  13.040  12.084
18363SOL     OW56985  11.364   7.517  14.462
18363SOL    HW156986  11.339   7.572  14.535
18363SOL    HW256987  11.459   7.524  14.458
18364SOL     OW56988   3.050  11.934  10.092
18364SOL    HW156989   2.997  12.008  10.063
18364SOL    HW256990   3.081  11.960  10.179
18365SOL     OW56991   2.150  13.497   4.426
18365SOL    HW156992   2.167  13.588   4.449
18365SOL    HW256993   2.172  13.490   4.333
18366SOL     OW56994  12.974   9.687   9.495
18366SOL    HW156995  12.905   9.632   9.534
18366SOL    HW256996  12.935   9.720   9.414
18367SOL     OW56997   0.424   8.716   3.273
18367SOL    HW156998   0.505   8.752   3.237
18367SOL    HW256999   0.444   8.699   3.365
18368SOL     OW57000   7.496   6.373  13.081
18368SOL    HW157001   7.587   6.384  13.105
18368SOL    HW257002   7.487   6.280  13.059
18369SOL     OW57003   2.814   2.871   2.431
18369SOL    HW157004   2.772   2.954   2.454
18369SOL    HW257005   2.742   2.810   2.416
18370SOL     OW57006   3.450  14.333  14.564
18370SOL    HW157007   3.537  14.373  14.560
18370SOL    HW257008   3.417  14.356  14.651
18371SOL     OW57009   6.604   4.276   0.965
18371SOL    HW157010   6.653   4.257   1.044
18371SOL    HW257011   6.660   4.247   0.893
18372SOL     OW57012   4.396   1.564  13.693
18372SOL    HW157013   4.378   1.483  13.741
18372SOL    HW257014   4.310   1.600  13.673
18373SOL     OW57015   5.909   1.525   1.697
18373SOL    HW157016   5.893   1.431   1.693
18373SOL    HW257017   5.938   1.548   1.608
18374SOL     OW57018  14.139  13.993  14.076
18374SOL    HW157019  14.201  14.064  14.057
18374SOL    HW257020  14.172  13.919  14.024
18375SOL     OW57021  13.711   0.278   9.865
18375SOL    HW157022  13.750   0.282   9.778
18375SOL    HW257023  13.620   0.305   9.851
18376SOL     OW57024   0.717   9.405   0.197
18376SOL    HW157025   0.745   9.496   0.198
18376SOL    HW257026   0.719   9.379   0.289
18377SOL     OW57027   7.029   9.704  14.656
18377SOL    HW157028   7.072   9.788  14.643
18377SOL    HW257029   7.075   9.644  14.598
18378SOL     OW57030  14.330   4.693   8.337
18378SOL    HW157031  14.397   4.642   8.291
18378SOL    HW257032  14.319   4.772   8.286
18379SOL     OW57033   7.074   1.443   2.651
18379SOL    HW157034   7.127   1.392   2.589
18379SOL    HW257035   7.078   1.394   2.733
18380SOL     OW57036  12.382  13.251   6.709
18380SOL    HW157037  12.473  13.238   6.735
18380SOL    HW257038  12.388  13.283   6.619
18381SOL     OW57039   5.993   5.401  10.846
18381SOL    HW157040   5.980   5.361  10.761
18381SOL    HW257041   5.993   5.328  10.908
18382SOL     OW57042   1.090   7.008   1.848
18382SOL    HW157043   1.175   7.014   1.891
18382SOL    HW257044   1.102   6.943   1.778
18383SOL     OW57045   0.608   9.341  12.898
18383SOL    HW157046   0.522   9.369  12.866
18383SOL    HW257047   0.647   9.295  12.823
18384SOL     OW57048   5.015   1.052   4.032
18384SOL    HW157049   5.046   1.030   3.945
18384SOL    HW257050   5.094   1.055   4.086
18385SOL     OW57051   8.830   3.174   2.951
18385SOL    HW157052   8.885   3.165   2.873
18385SOL    HW257053   8.858   3.257   2.990
18386SOL     OW57054  12.486   0.453   3.983
18386SOL    HW157055  12.450   0.377   4.029
18386SOL    HW257056  12.492   0.425   3.892
18387SOL     OW57057   3.786   5.401   6.322
18387SOL    HW157058   3.787   5.496   6.327
18387SOL    HW257059   3.836   5.380   6.244
18388SOL     OW57060   6.274   1.028   2.743
18388SOL    HW157061   6.186   1.043   2.779
18388SOL    HW257062   6.297   0.940   2.774
18389SOL     OW57063   5.412  13.145  13.634
18389SOL    HW157064   5.450  13.059  13.621
18389SOL    HW257065   5.370  13.167  13.551
18390SOL     OW57066  10.014   9.908   4.714
18390SOL    HW157067   9.940   9.849   4.707
18390SOL    HW257068  10.057   9.903   4.628
18391SOL     OW57069   8.433   3.044   7.905
18391SOL    HW157070   8.518   3.067   7.942
18391SOL    HW257071   8.427   3.095   7.824
18392SOL     OW57072   5.035  10.710  13.910
18392SOL    HW157073   5.058  10.635  13.855
18392SOL    HW257074   5.041  10.785  13.851
18393SOL     OW57075  14.788   9.682  13.933
18393SOL    HW157076  14.771   9.772  13.907
18393SOL    HW257077  14.864   9.656  13.881
18394SOL     OW57078   9.088   7.357  10.599
18394SOL    HW157079   9.161   7.325  10.652
18394SOL    HW257080   9.017   7.368  10.662
18395SOL     OW57081   1.993  10.265  12.530
18395SOL    HW157082   1.929  10.194  12.521
18395SOL    HW257083   2.075  10.227  12.497
18396SOL     OW57084   3.057   9.003   0.121
18396SOL    HW157085   3.041   8.982   0.213
18396SOL    HW257086   3.148   8.977   0.106
18397SOL     OW57087  11.052   2.868  14.652
18397SOL    HW157088  11.137   2.840  14.686
18397SOL    HW257089  10.991   2.854  14.724
18398SOL     OW57090   0.865   4.278   5.833
18398SOL    HW157091   0.889   4.258   5.924
18398SOL    HW257092   0.820   4.362   5.838
18399SOL     OW57093  13.005   5.398   0.952
18399SOL    HW157094  12.970   5.313   0.977
18399SOL    HW257095  12.974   5.458   1.020
18400SOL     OW57096  11.495   9.417  14.459
18400SOL    HW157097  11.473   9.374  14.542
18400SOL    HW257098  11.552   9.355  14.413
18401SOL     OW57099  11.620  13.433   4.247
18401SOL    HW157100  11.678  13.503   4.217
18401SOL    HW257101  11.617  13.371   4.174
18402SOL     OW57102   7.397   7.636   0.357
18402SOL    HW157103   7.387   7.722   0.317
18402SOL    HW257104   7.492   7.624   0.364
18403SOL     OW57105  11.985   1.625   8.766
18403SOL    HW157106  11.991   1.601   8.674
18403SOL    HW257107  11.903   1.586   8.796
18404SOL     OW57108   3.192  10.925  10.669
18404SOL    HW157109   3.221  11.006  10.709
18404SOL    HW257110   3.270  10.869  10.667
18405SOL     OW57111   0.301  13.418   7.023
18405SOL    HW157112   0.294  13.372   6.940
18405SOL    HW257113   0.261  13.503   7.007
18406SOL     OW57114   7.650   4.599   6.321
18406SOL    HW157115   7.567   4.562   6.351
18406SOL    HW257116   7.625   4.675   6.270
18407SOL     OW57117  11.010   5.694   5.560
18407SOL    HW157118  11.012   5.688   5.656
18407SOL    HW257119  10.930   5.743   5.541
18408SOL     OW57120   3.949   8.264  12.639
18408SOL    HW157121   3.927   8.250  12.731
18408SOL    HW257122   3.908   8.348  12.617
18409SOL     OW57123  12.326   5.791  11.398
18409SOL    HW157124  12.235   5.760  11.395
18409SOL    HW257125  12.343   5.807  11.491
18410SOL     OW57126  13.661   9.033   0.009
18410SOL    HW157127  13.745   9.048  14.847
18410SOL    HW257128  13.686   9.006   0.098
18411SOL     OW57129   3.116   0.463  12.849
18411SOL    HW157130   3.177   0.390  12.841
18411SOL    HW257131   3.076   0.452  12.935
18412SOL     OW57132   5.031   4.517  10.617
18412SOL    HW157133   5.124   4.518  10.642
18412SOL    HW257134   4.987   4.472  10.689
18413SOL     OW57135   5.031   0.240  13.811
18413SOL    HW157136   4.954   0.267  13.860
18413SOL    HW257137   5.097   0.220  13.878
18414SOL     OW57138  10.556  14.801  10.820
18414SOL    HW157139  10.611  14.880  10.817
18414SOL    HW257140  10.475  14.826  10.776
18415SOL     OW57141   2.743   4.705   4.479
18415SOL    HW157142   2.827   4.660   4.476
18415SOL    HW257143   2.690   4.660   4.414
18416SOL     OW57144  12.986  14.375  11.906
18416SOL    HW157145  13.034  14.458  11.907
18416SOL    HW257146  12.896  14.400  11.886
18417SOL     OW57147  14.135   9.239   9.090
18417SOL    HW157148  14.100   9.322   9.123
18417SOL    HW257149  14.179   9.263   9.009
18418SOL     OW57150   8.659  10.070   8.132
18418SOL    HW157151   8.753  10.058   8.145
18418SOL    HW257152   8.620  10.037   8.213
18419SOL     OW57153   4.051  11.589   5.025
18419SOL    HW157154   3.956  11.598   5.019
18419SOL    HW257155   4.076  11.540   4.946
18420SOL     OW57156   7.275   6.562   4.130
18420SOL    HW157157   7.363   6.565   4.167
18420SOL    HW257158   7.258   6.653   4.103
18421SOL     OW57159  14.835   6.157   4.568
18421SOL    HW157160  14.866   6.229   4.513
18421SOL    HW257161   0.020   6.090   4.560
18422SOL     OW57162  12.255   0.100  10.051
18422SOL    HW157163  12.221   0.107  10.141
18422SOL    HW257164  12.178   0.110   9.996
18423SOL     OW57165   8.973   9.193  11.213
18423SOL    HW157166   8.982   9.264  11.276
18423SOL    HW257167   9.058   9.151  11.212
18424SOL     OW57168  14.684  14.221   8.659
18424SOL    HW157169  14.733  14.201   8.579
18424SOL    HW257170  14.652  14.310   8.645
18425SOL     OW57171   8.636   6.739  11.809
18425SOL    HW157172   8.547   6.777  11.809
18425SOL    HW257173   8.637   6.680  11.884
18426SOL     OW57174   2.332   0.611   0.152
18426SOL    HW157175   2.286   0.528   0.143
18426SOL    HW257176   2.381   0.620   0.070
18427SOL     OW57177   4.531   7.978   6.133
18427SOL    HW157178   4.582   8.059   6.132
18427SOL    HW257179   4.516   7.958   6.041
18428SOL     OW57180   7.180  13.003   6.006
18428SOL    HW157181   7.195  13.042   5.920
18428SOL    HW257182   7.151  13.076   6.060
18429SOL     OW57183   2.666  14.599   6.208
18429SOL    HW157184   2.649  14.609   6.301
18429SOL    HW257185   2.681  14.688   6.177
18430SOL     OW57186   8.516  11.185   7.829
18430SOL    HW157187   8.582  11.197   7.760
18430SOL    HW257188   8.470  11.269   7.833
18431SOL     OW57189   1.127   5.100   1.037
18431SOL    HW157190   1.121   5.192   1.061
18431SOL    HW257191   1.207   5.068   1.079
18432SOL     OW57192   3.802   8.573   0.984
18432SOL    HW157193   3.800   8.551   1.077
18432SOL    HW257194   3.757   8.499   0.942
18433SOL     OW57195   3.761   3.083  13.704
18433SOL    HW157196   3.821   3.010  13.688
18433SOL    HW257197   3.697   3.047  13.766
18434SOL     OW57198   1.546   0.860   6.384
18434SOL    HW157199   1.538   0.772   6.421
18434SOL    HW257200   1.640   0.878   6.383
18435SOL     OW57201   5.539  12.586   3.629
18435SOL    HW157202   5.619  12.597   3.577
18435SOL    HW257203   5.478  12.541   3.571
18436SOL     OW57204   8.416   7.767   1.847
18436SOL    HW157205   8.407   7.733   1.936
18436SOL    HW257206   8.421   7.862   1.858
18437SOL     OW57207  11.927   8.756   6.799
18437SOL    HW157208  11.920   8.662   6.779
18437SOL    HW257209  11.904   8.763   6.891
18438SOL     OW57210   0.115   6.459  10.392
18438SOL    HW157211   0.137   6.531  10.333
18438SOL    HW257212   0.083   6.501  10.472
18439SOL     OW57213   9.557   2.815  13.420
18439SOL    HW157214   9.585   2.806  13.329
18439SOL    HW257215   9.632   2.855  13.464
18440SOL     OW57216   7.018   0.251   7.265
18440SOL    HW157217   6.981   0.257   7.353
18440SOL    HW257218   7.097   0.198   7.276
18441SOL     OW57219   0.117   8.485  11.323
18441SOL    HW157220   0.143   8.469  11.414
18441SOL    HW257221   0.094   8.578  11.320
18442SOL     OW57222   8.537   4.927   8.104
18442SOL    HW157223   8.560   4.992   8.037
18442SOL    HW257224   8.471   4.970   8.158
18443SOL     OW57225   3.515  11.159   3.744
18443SOL    HW157226   3.543  11.133   3.656
18443SOL    HW257227   3.591  11.140   3.799
18444SOL     OW57228   3.729   0.340  13.232
18444SOL    HW157229   3.805   0.368  13.284
18444SOL    HW257230   3.655   0.352  13.290
18445SOL     OW57231   0.223  10.961   4.277
18445SOL    HW157232   0.208  10.904   4.353
18445SOL    HW257233   0.251  10.902   4.208
18446SOL     OW57234   3.254  12.307   1.652
18446SOL    HW157235   3.233  12.306   1.745
18446SOL    HW257236   3.289  12.219   1.635
18447SOL     OW57237   1.048   2.607  13.270
18447SOL    HW157238   1.138   2.636  13.255
18447SOL    HW257239   1.051   2.513  13.251
18448SOL     OW57240   6.501  14.426  11.075
18448SOL    HW157241   6.410  14.412  11.051
18448SOL    HW257242   6.542  14.340  11.068
18449SOL     OW57243   9.815  10.307   1.769
18449SOL    HW157244   9.765  10.275   1.693
18449SOL    HW257245   9.748  10.332   1.833
18450SOL     OW57246   2.251   7.529  13.012
18450SOL    HW157247   2.232   7.516  12.919
18450SOL    HW257248   2.176   7.578  13.045
18451SOL     OW57249   9.176   6.530   6.855
18451SOL    HW157250   9.221   6.585   6.791
18451SOL    HW257251   9.088   6.518   6.818
18452SOL     OW57252   9.999   7.145   1.972
18452SOL    HW157253  10.072   7.207   1.978
18452SOL    HW257254   9.950   7.174   1.895
18453SOL     OW57255   7.112   4.579   0.039
18453SOL    HW157256   7.029   4.544   0.070
18453SOL    HW257257   7.110   4.570  14.826
18454SOL     OW57258   7.802   0.589   2.867
18454SOL    HW157259   7.716   0.630   2.870
18454SOL    HW257260   7.822   0.568   2.958
18455SOL     OW57261  12.044  14.560   9.812
18455SOL    HW157262  12.022  14.482   9.863
18455SOL    HW257263  12.140  14.562   9.812
18456SOL     OW57264   8.114  10.920  14.389
18456SOL    HW157265   8.198  10.949  14.425
18456SOL    HW257266   8.063  10.893  14.466
18457SOL     OW57267   0.882   2.475   5.385
18457SOL    HW157268   0.829   2.545   5.348
18457SOL    HW257269   0.881   2.406   5.318
18458SOL     OW57270  13.816   9.177  10.365
18458SOL    HW157271  13.863   9.149  10.286
18458SOL    HW257272  13.809   9.272  10.357
18459SOL     OW57273   3.674   0.246   5.777
18459SOL    HW157274   3.650   0.212   5.864
18459SOL    HW257275   3.716   0.331   5.795
18460SOL     OW57276   8.277  12.182   4.764
18460SOL    HW157277   8.253  12.182   4.671
18460SOL    HW257278   8.227  12.255   4.801
18461SOL     OW57279   5.693  13.563   8.168
18461SOL    HW157280   5.597  13.555   8.172
18461SOL    HW257281   5.708  13.650   8.132
18462SOL     OW57282  12.756  10.666   0.715
18462SOL    HW157283  12.850  10.656   0.703
18462SOL    HW257284  12.747  10.698   0.805
18463SOL     OW57285  10.440  10.440   7.924
18463SOL    HW157286  10.361  10.427   7.976
18463SOL    HW257287  10.512  10.423   7.985
18464SOL     OW57288   6.755  14.491  14.335
18464SOL    HW157289   6.696  14.541  14.391
18464SOL    HW257290   6.701  14.419  14.302
18465SOL     OW57291   3.986  10.425  14.866
18465SOL    HW157292   3.975  10.435   0.078
18465SOL    HW257293   3.902  10.454  14.828
18466SOL     OW57294  10.430  14.808  14.239
18466SOL    HW157295  10.340  14.788  14.215
18466SOL    HW257296  10.434  14.794  14.333
18467SOL     OW57297  12.907   3.192   4.818
18467SOL    HW157298  12.949   3.261   4.767
18467SOL    HW257299  12.958   3.187   4.899
18468SOL     OW57300  14.496  12.829   5.150
18468SOL    HW157301  14.546  12.783   5.083
18468SOL    HW257302  14.432  12.882   5.101
18469SOL     OW57303  12.590   0.607   8.602
18469SOL    HW157304  12.513   0.634   8.552
18469SOL    HW257305  12.630   0.689   8.630
18470SOL     OW57306   6.773   6.694  12.880
18470SOL    HW157307   6.726   6.738  12.809
18470SOL    HW257308   6.765   6.754  12.955
18471SOL     OW57309  11.545   9.851   6.388
18471SOL    HW157310  11.525   9.771   6.438
18471SOL    HW257311  11.465   9.871   6.341
18472SOL     OW57312   1.285   2.334   6.994
18472SOL    HW157313   1.247   2.316   6.907
18472SOL    HW257314   1.379   2.330   6.980
18473SOL     OW57315  10.268   5.154   6.738
18473SOL    HW157316  10.187   5.198   6.765
18473SOL    HW257317  10.299   5.206   6.664
18474SOL     OW57318   7.961   5.435   6.736
18474SOL    HW157319   7.948   5.397   6.823
18474SOL    HW257320   7.903   5.386   6.679
18475SOL     OW57321   7.839  10.985   8.461
18475SOL    HW157322   7.890  11.065   8.477
18475SOL    HW257323   7.757  11.000   8.508
18476SOL     OW57324  12.127  14.267   9.355
18476SOL    HW157325  12.127  14.173   9.376
18476SOL    HW257326  12.096  14.309   9.436
18477SOL     OW57327  10.326   7.922   6.638
18477SOL    HW157328  10.422   7.925   6.639
18477SOL    HW257329  10.304   7.846   6.692
18478SOL     OW57330  13.249   0.312  12.716
18478SOL    HW157331  13.161   0.275  12.726
18478SOL    HW257332  13.292   0.295  12.799
18479SOL     OW57333   1.906  10.506  12.140
18479SOL    HW157334   1.834  10.474  12.194
18479SOL    HW257335   1.985  10.483  12.190
18480SOL     OW57336  11.141   0.640   5.232
18480SOL    HW157337  11.086   0.576   5.188
18480SOL    HW257338  11.221   0.592   5.254
18481SOL     OW57339   0.432   9.217  13.662
18481SOL    HW157340   0.354   9.267  13.638
18481SOL    HW257341   0.462   9.177  13.581
18482SOL     OW57342  13.289   4.815   2.513
18482SOL    HW157343  13.246   4.897   2.535
18482SOL    HW257344  13.221   4.763   2.470
18483SOL     OW57345   3.379   4.494  11.518
18483SOL    HW157346   3.323   4.525  11.447
18483SOL    HW257347   3.468   4.506  11.485
18484SOL     OW57348   3.938   2.017   2.944
18484SOL    HW157349   3.867   1.965   2.981
18484SOL    HW257350   4.017   1.970   2.969
18485SOL     OW57351   3.791   9.305  13.562
18485SOL    HW157352   3.802   9.299  13.657
18485SOL    HW257353   3.775   9.398  13.546
18486SOL     OW57354   0.386   1.302  14.300
18486SOL    HW157355   0.456   1.361  14.331
18486SOL    HW257356   0.418   1.214  14.320
18487SOL     OW57357   6.164  14.162   9.750
18487SOL    HW157358   6.117  14.153   9.667
18487SOL    HW257359   6.142  14.083   9.799
18488SOL     OW57360   1.074  11.346  11.672
18488SOL    HW157361   1.158  11.346  11.625
18488SOL    HW257362   1.044  11.436  11.667
18489SOL     OW57363   8.491   2.776   5.078
18489SOL    HW157364   8.509   2.847   5.139
18489SOL    HW257365   8.560   2.712   5.094
18490SOL     OW57366  10.066   1.767  14.796
18490SOL    HW157367  10.160   1.777  14.815
18490SOL    HW257368  10.061   1.688  14.743
18491SOL     OW57369   4.125  14.124   1.990
18491SOL    HW157370   4.198  14.112   2.050
18491SOL    HW257371   4.133  14.052   1.928
18492SOL     OW57372   4.381  10.768   6.478
18492SOL    HW157373   4.373  10.704   6.549
18492SOL    HW257374   4.424  10.721   6.407
18493SOL     OW57375   7.666   6.549  12.384
18493SOL    HW157376   7.762   6.552  12.381
18493SOL    HW257377   7.640   6.641  12.393
18494SOL     OW57378   0.861  12.151   2.913
18494SOL    HW157379   0.786  12.191   2.870
18494SOL    HW257380   0.906  12.224   2.956
18495SOL     OW57381   9.431   3.988   5.471
18495SOL    HW157382   9.508   4.045   5.476
18495SOL    HW257383   9.356   4.047   5.471
18496SOL     OW57384   5.901   6.213  12.814
18496SOL    HW157385   5.932   6.123  12.808
18496SOL    HW257386   5.835   6.221  12.745
18497SOL     OW57387  13.298  13.974   9.693
18497SOL    HW157388  13.335  14.037   9.755
18497SOL    HW257389  13.362  13.904   9.687
18498SOL     OW57390  14.822  11.578  13.770
18498SOL    HW157391  14.736  11.613  13.790
18498SOL    HW257392  14.878  11.655  13.757
18499SOL     OW57393  10.465  14.357  11.841
18499SOL    HW157394  10.451  14.263  11.854
18499SOL    HW257395  10.380  14.396  11.860
18500SOL     OW57396   6.746  14.384   7.282
18500SOL    HW157397   6.678  14.395   7.216
18500SOL    HW257398   6.807  14.456   7.266
18501SOL     OW57399   3.462   0.997   4.842
18501SOL    HW157400   3.520   0.922   4.849
18501SOL    HW257401   3.374   0.962   4.855
18502SOL     OW57402   7.530   6.550   4.237
18502SOL    HW157403   7.544   6.513   4.323
18502SOL    HW257404   7.618   6.572   4.206
18503SOL     OW57405   3.251  10.610   7.787
18503SOL    HW157406   3.332  10.661   7.791
18503SOL    HW257407   3.244  10.569   7.874
18504SOL     OW57408   8.258   5.001   3.452
18504SOL    HW157409   8.306   5.044   3.523
18504SOL    HW257410   8.188   5.063   3.430
18505SOL     OW57411   8.201   2.065   6.510
18505SOL    HW157412   8.176   2.062   6.417
18505SOL    HW257413   8.293   2.038   6.511
18506SOL     OW57414  13.865   5.301   2.874
18506SOL    HW157415  13.779   5.292   2.832
18506SOL    HW257416  13.888   5.213   2.902
18507SOL     OW57417   3.405   9.266  12.550
18507SOL    HW157418   3.433   9.355  12.571
18507SOL    HW257419   3.364   9.234  12.631
18508SOL     OW57420  10.805   7.816   3.025
18508SOL    HW157421  10.898   7.830   3.043
18508SOL    HW257422  10.785   7.732   3.066
18509SOL     OW57423   5.189  10.271   0.205
18509SOL    HW157424   5.102  10.233   0.211
18509SOL    HW257425   5.204  10.284   0.112
18510SOL     OW57426  14.674   7.943   1.268
18510SOL    HW157427  14.686   8.029   1.307
18510SOL    HW257428  14.732   7.886   1.318
18511SOL     OW57429  12.343   1.537   6.692
18511SOL    HW157430  12.320   1.491   6.772
18511SOL    HW257431  12.326   1.629   6.711
18512SOL     OW57432   7.773   6.435  14.438
18512SOL    HW157433   7.867   6.430  14.419
18512SOL    HW257434   7.767   6.428  14.533
18513SOL     OW57435  14.821  11.829   0.643
18513SOL    HW157436  14.779  11.754   0.599
18513SOL    HW257437  14.753  11.864   0.700
18514SOL     OW57438   2.621   4.713   4.947
18514SOL    HW157439   2.552   4.651   4.925
18514SOL    HW257440   2.699   4.658   4.960
18515SOL     OW57441  12.912   8.365   0.168
18515SOL    HW157442  12.851   8.326   0.106
18515SOL    HW257443  12.863   8.370   0.250
18516SOL     OW57444   8.122  11.463  14.097
18516SOL    HW157445   8.057  11.434  14.033
18516SOL    HW257446   8.185  11.391  14.100
18517SOL     OW57447  12.975  12.785   3.479
18517SOL    HW157448  12.972  12.694   3.508
18517SOL    HW257449  12.887  12.819   3.496
18518SOL     OW57450   3.465   6.031   0.972
18518SOL    HW157451   3.393   5.969   0.975
18518SOL    HW257452   3.508   6.023   1.057
18519SOL     OW57453   6.553   6.262   8.963
18519SOL    HW157454   6.616   6.236   9.030
18519SOL    HW257455   6.500   6.184   8.949
18520SOL     OW57456   2.293   9.374   9.455
18520SOL    HW157457   2.225   9.407   9.396
18520SOL    HW257458   2.375   9.383   9.406
18521SOL     OW57459  11.727   0.768  11.405
18521SOL    HW157460  11.704   0.728  11.321
18521SOL    HW257461  11.754   0.695  11.460
18522SOL     OW57462   3.078   7.249  10.089
18522SOL    HW157463   3.142   7.284  10.027
18522SOL    HW257464   3.114   7.166  10.118
18523SOL     OW57465  12.077   4.057   7.518
18523SOL    HW157466  12.136   4.067   7.592
18523SOL    HW257467  12.131   4.019   7.449
18524SOL     OW57468   3.401  14.578  13.181
18524SOL    HW157469   3.361  14.511  13.126
18524SOL    HW257470   3.420  14.534  13.264
18525SOL     OW57471  10.393   6.113   3.763
18525SOL    HW157472  10.453   6.126   3.689
18525SOL    HW257473  10.334   6.188   3.759
18526SOL     OW57474  11.126  13.613   0.222
18526SOL    HW157475  11.041  13.608   0.265
18526SOL    HW257476  11.175  13.678   0.271
18527SOL     OW57477  10.291   8.875  11.061
18527SOL    HW157478  10.298   8.780  11.049
18527SOL    HW257479  10.304   8.911  10.973
18528SOL     OW57480  12.231   2.365  14.641
18528SOL    HW157481  12.229   2.345  14.547
18528SOL    HW257482  12.315   2.330  14.671
18529SOL     OW57483   8.321  11.784   6.315
18529SOL    HW157484   8.345  11.763   6.225
18529SOL    HW257485   8.379  11.729   6.368
18530SOL     OW57486   6.459   5.152   0.338
18530SOL    HW157487   6.505   5.135   0.420
18530SOL    HW257488   6.519   5.207   0.287
18531SOL     OW57489   2.157  13.755   2.650
18531SOL    HW157490   2.197  13.705   2.579
18531SOL    HW257491   2.066  13.726   2.652
18532SOL     OW57492  13.111  10.087   8.856
18532SOL    HW157493  13.133  10.045   8.939
18532SOL    HW257494  13.032  10.042   8.826
18533SOL     OW57495   7.087   9.137   9.307
18533SOL    HW157496   7.121   9.053   9.278
18533SOL    HW257497   7.052   9.120   9.394
18534SOL     OW57498   8.771  11.483  14.878
18534SOL    HW157499   8.852  11.522  14.845
18534SOL    HW257500   8.710  11.487  14.805
18535SOL     OW57501  14.298  10.519   3.687
18535SOL    HW157502  14.233  10.455   3.716
18535SOL    HW257503  14.347  10.541   3.767
18536SOL     OW57504   8.372   7.130   7.695
18536SOL    HW157505   8.409   7.044   7.714
18536SOL    HW257506   8.343   7.163   7.781
18537SOL     OW57507   8.964   9.741   3.686
18537SOL    HW157508   8.879   9.779   3.665
18537SOL    HW257509   8.991   9.784   3.767
18538SOL     OW57510  10.294   1.482  13.162
18538SOL    HW157511  10.374   1.495  13.111
18538SOL    HW257512  10.287   1.387  13.171
18539SOL     OW57513   4.899   4.070   0.771
18539SOL    HW157514   4.959   4.023   0.713
18539SOL    HW257515   4.839   4.002   0.804
18540SOL     OW57516   9.735  12.204  12.437
18540SOL    HW157517   9.655  12.193  12.386
18540SOL    HW257518   9.719  12.153  12.517
18541SOL     OW57519   3.304  11.464   3.272
18541SOL    HW157520   3.240  11.522   3.231
18541SOL    HW257521   3.361  11.436   3.201
18542SOL     OW57522   9.140   3.497  12.432
18542SOL    HW157523   9.053   3.530  12.410
18542SOL    HW257524   9.199   3.570  12.412
18543SOL     OW57525  12.438   0.536   7.470
18543SOL    HW157526  12.392   0.452   7.468
18543SOL    HW257527  12.522   0.515   7.512
18544SOL     OW57528  14.183   5.926   5.990
18544SOL    HW157529  14.117   5.882   6.043
18544SOL    HW257530  14.151   5.917   5.900
18545SOL     OW57531   4.386  13.539   9.710
18545SOL    HW157532   4.407  13.450   9.681
18545SOL    HW257533   4.306  13.561   9.662
18546SOL     OW57534  14.815   2.313   4.466
18546SOL    HW157535   0.000   2.380   4.481
18546SOL    HW257536  14.854   2.233   4.500
18547SOL     OW57537   8.050  10.768   1.861
18547SOL    HW157538   8.081  10.837   1.920
18547SOL    HW257539   8.028  10.814   1.780
18548SOL     OW57540  13.171   7.531   4.771
18548SOL    HW157541  13.096   7.509   4.826
18548SOL    HW257542  13.138   7.597   4.711
18549SOL     OW57543  13.412  10.949   8.149
18549SOL    HW157544  13.503  10.941   8.121
18549SOL    HW257545  13.392  11.042   8.137
18550SOL     OW57546  14.068  14.859   5.678
18550SOL    HW157547  14.010  14.820   5.612
18550SOL    HW257548  14.075  14.792   5.746
18551SOL     OW57549   2.848   6.198   2.238
18551SOL    HW157550   2.904   6.209   2.161
18551SOL    HW257551   2.832   6.287   2.268
18552SOL     OW57552  13.183   0.978   0.464
18552SOL    HW157553  13.100   0.995   0.509
18552SOL    HW257554  13.203   1.060   0.419
18553SOL     OW57555  12.773   8.834   6.419
18553SOL    HW157556  12.683   8.836   6.386
18553SOL    HW257557  12.770   8.887   6.499
18554SOL     OW57558   8.293   5.892   4.020
18554SOL    HW157559   8.234   5.960   3.988
18554SOL    HW257560   8.238   5.837   4.076
18555SOL     OW57561  12.003   4.336   0.525
18555SOL    HW157562  12.029   4.332   0.617
18555SOL    HW257563  11.913   4.367   0.527
18556SOL     OW57564   5.945   4.563   3.868
18556SOL    HW157565   6.037   4.534   3.873
18556SOL    HW257566   5.916   4.566   3.959
18557SOL     OW57567  13.420   8.725   4.084
18557SOL    HW157568  13.397   8.735   3.992
18557SOL    HW257569  13.347   8.677   4.123
18558SOL     OW57570   4.347   7.071   3.509
18558SOL    HW157571   4.310   7.107   3.429
18558SOL    HW257572   4.388   7.145   3.553
18559SOL     OW57573   3.428   1.923   2.267
18559SOL    HW157574   3.492   1.859   2.237
18559SOL    HW257575   3.372   1.875   2.328
18560SOL     OW57576  13.969   3.852  12.460
18560SOL    HW157577  13.968   3.766  12.503
18560SOL    HW257578  13.931   3.911  12.525
18561SOL     OW57579   7.041   1.003   8.233
18561SOL    HW157580   6.959   1.028   8.190
18561SOL    HW257581   7.109   1.042   8.179
18562SOL     OW57582   3.983   1.350  12.346
18562SOL    HW157583   4.039   1.377  12.274
18562SOL    HW257584   3.985   1.255  12.344
18563SOL     OW57585   2.233   3.362  13.267
18563SOL    HW157586   2.210   3.281  13.222
18563SOL    HW257587   2.155   3.385  13.318
18564SOL     OW57588   7.148   0.741  11.262
18564SOL    HW157589   7.061   0.717  11.296
18564SOL    HW257590   7.200   0.758  11.340
18565SOL     OW57591  11.984   6.497   6.739
18565SOL    HW157592  11.984   6.553   6.660
18565SOL    HW257593  12.041   6.424   6.716
18566SOL     OW57594   8.354   1.161  13.827
18566SOL    HW157595   8.366   1.071  13.798
18566SOL    HW257596   8.392   1.214  13.757
18567SOL     OW57597   7.338  13.620   8.874
18567SOL    HW157598   7.264  13.680   8.890
18567SOL    HW257599   7.413  13.678   8.862
18568SOL     OW57600   4.925   3.262   8.967
18568SOL    HW157601   4.892   3.186   9.014
18568SOL    HW257602   5.014   3.237   8.940
18569SOL     OW57603   2.408   5.531   1.801
18569SOL    HW157604   2.420   5.586   1.879
18569SOL    HW257605   2.489   5.481   1.795
18570SOL     OW57606  14.607  11.854   6.821
18570SOL    HW157607  14.546  11.787   6.852
18570SOL    HW257608  14.684  11.844   6.877
18571SOL     OW57609  11.118  10.806  14.502
18571SOL    HW157610  11.121  10.893  14.542
18571SOL    HW257611  11.136  10.823  14.409
18572SOL     OW57612  12.031   2.228   3.827
18572SOL    HW157613  12.118   2.225   3.788
18572SOL    HW257614  12.017   2.320   3.847
18573SOL     OW57615  13.712   3.855   4.993
18573SOL    HW157616  13.782   3.916   4.974
18573SOL    HW257617  13.634   3.894   4.954
18574SOL     OW57618  12.538  12.854   9.861
18574SOL    HW157619  12.582  12.839   9.777
18574SOL    HW257620  12.493  12.771   9.879
18575SOL     OW57621   8.090   9.268   0.479
18575SOL    HW157622   8.182   9.245   0.491
18575SOL    HW257623   8.052   9.192   0.435
18576SOL     OW57624   0.791   2.180   6.781
18576SOL    HW157625   0.705   2.149   6.809
18576SOL    HW257626   0.782   2.195   6.687
18577SOL     OW57627  12.367   6.083   5.595
18577SOL    HW157628  12.307   6.048   5.661
18577SOL    HW257629  12.317   6.080   5.513
18578SOL     OW57630   1.737   3.397   8.564
18578SOL    HW157631   1.784   3.317   8.589
18578SOL    HW257632   1.718   3.385   8.471
18579SOL     OW57633  11.604  11.599   1.499
18579SOL    HW157634  11.566  11.623   1.414
18579SOL    HW257635  11.562  11.658   1.562
18580SOL     OW57636  12.526   5.231   6.858
18580SOL    HW157637  12.538   5.313   6.906
18580SOL    HW257638  12.611   5.213   6.818
18581SOL     OW57639  14.315   7.449  14.380
18581SOL    HW157640  14.326   7.544  14.380
18581SOL    HW257641  14.227   7.434  14.346
18582SOL     OW57642   1.406  12.081   5.035
18582SOL    HW157643   1.459  12.008   5.067
18582SOL    HW257644   1.444  12.104   4.950
18583SOL     OW57645  12.946  12.228   4.419
18583SOL    HW157646  12.977  12.301   4.473
18583SOL    HW257647  12.855  12.217   4.444
18584SOL     OW57648   6.493   5.735   9.381
18584SOL    HW157649   6.426   5.697   9.324
18584SOL    HW257650   6.455   5.816   9.413
18585SOL     OW57651   4.478  12.411   6.226
18585SOL    HW157652   4.508  12.400   6.136
18585SOL    HW257653   4.400  12.355   6.232
18586SOL     OW57654   1.077  10.918  11.235
18586SOL    HW157655   1.120  11.003  11.248
18586SOL    HW257656   1.107  10.864  11.307
18587SOL     OW57657   3.872  10.111   9.537
18587SOL    HW157658   3.807  10.061   9.586
18587SOL    HW257659   3.855  10.202   9.559
18588SOL     OW57660   4.379  13.889   5.001
18588SOL    HW157661   4.321  13.950   5.046
18588SOL    HW257662   4.446  13.944   4.961
18589SOL     OW57663   5.352   4.368   6.094
18589SOL    HW157664   5.339   4.381   6.000
18589SOL    HW257665   5.439   4.404   6.111
18590SOL     OW57666   7.122   9.207  10.708
18590SOL    HW157667   7.056   9.234  10.772
18590SOL    HW257668   7.101   9.259  10.630
18591SOL     OW57669   1.487   4.341  11.690
18591SOL    HW157670   1.435   4.275  11.736
18591SOL    HW257671   1.466   4.328  11.597
18592SOL     OW57672   4.345  13.063  12.671
18592SOL    HW157673   4.321  13.125  12.602
18592SOL    HW257674   4.432  13.032  12.646
18593SOL     OW57675   3.386  11.001  14.219
18593SOL    HW157676   3.385  11.012  14.314
18593SOL    HW257677   3.465  11.048  14.190
18594SOL     OW57678   6.751   9.096   8.773
18594SOL    HW157679   6.828   9.148   8.794
18594SOL    HW257680   6.784   9.007   8.763
18595SOL     OW57681  10.142   1.627  12.552
18595SOL    HW157682  10.171   1.699  12.496
18595SOL    HW257683  10.171   1.652  12.640
18596SOL     OW57684  11.281  12.846   2.639
18596SOL    HW157685  11.298  12.897   2.560
18596SOL    HW257686  11.341  12.883   2.704
18597SOL     OW57687   3.179   8.967   7.818
18597SOL    HW157688   3.184   8.895   7.754
18597SOL    HW257689   3.146   8.926   7.898
18598SOL     OW57690   0.665  12.196  12.295
18598SOL    HW157691   0.697  12.194  12.385
18598SOL    HW257692   0.722  12.259  12.251
18599SOL     OW57693   7.639   4.673   3.917
18599SOL    HW157694   7.584   4.595   3.927
18599SOL    HW257695   7.629   4.720   4.000
18600SOL     OW57696   8.349   2.719   7.107
18600SOL    HW157697   8.429   2.670   7.126
18600SOL    HW257698   8.335   2.774   7.184
18601SOL     OW57699   0.437   5.206   6.406
18601SOL    HW157700   0.451   5.148   6.481
18601SOL    HW257701   0.348   5.186   6.377
18602SOL     OW57702   0.606   9.369   7.973
18602SOL    HW157703   0.530   9.409   8.015
18602SOL    HW257704   0.682   9.413   8.012
18603SOL     OW57705   7.704  14.560   7.456
18603SOL    HW157706   7.709  14.464   7.455
18603SOL    HW257707   7.705  14.585   7.364
18604SOL     OW57708  14.855  11.174   6.823
18604SOL    HW157709   0.037  11.169   6.894
18604SOL    HW257710  14.802  11.250   6.844
18605SOL     OW57711   3.329   2.998   3.765
18605SOL    HW157712   3.348   2.930   3.700
18605SOL    HW257713   3.312   3.076   3.713
18606SOL     OW57714  10.520  10.395   2.548
18606SOL    HW157715  10.581  10.349   2.604
18606SOL    HW257716  10.564  10.401   2.463
18607SOL     OW57717   5.895  13.074   1.004
18607SOL    HW157718   5.905  13.072   0.909
18607SOL    HW257719   5.851  13.157   1.021
18608SOL     OW57720  13.196  11.196   2.019
18608SOL    HW157721  13.176  11.219   1.929
18608SOL    HW257722  13.249  11.269   2.052
18609SOL     OW57723   4.200   6.043   7.597
18609SOL    HW157724   4.151   6.081   7.670
18609SOL    HW257725   4.282   6.092   7.595
18610SOL     OW57726   9.161  10.750   9.000
18610SOL    HW157727   9.246  10.784   8.975
18610SOL    HW257728   9.180  10.666   9.043
18611SOL     OW57729   3.609   0.559   2.362
18611SOL    HW157730   3.670   0.568   2.289
18611SOL    HW257731   3.611   0.644   2.405
18612SOL     OW57732  14.598   2.881  12.547
18612SOL    HW157733  14.571   2.921  12.464
18612SOL    HW257734  14.693   2.873  12.540
18613SOL     OW57735  10.994   8.360   5.487
18613SOL    HW157736  10.970   8.366   5.579
18613SOL    HW257737  10.911   8.357   5.440
18614SOL     OW57738   7.332   9.356   6.936
18614SOL    HW157739   7.347   9.415   6.862
18614SOL    HW257740   7.355   9.407   7.013
18615SOL     OW57741   9.882  14.465  11.348
18615SOL    HW157742   9.943  14.411  11.298
18615SOL    HW257743   9.796  14.428  11.328
18616SOL     OW57744   4.392  11.046   2.470
18616SOL    HW157745   4.379  10.993   2.549
18616SOL    HW257746   4.435  11.126   2.501
18617SOL     OW57747   5.161  13.021   4.894
18617SOL    HW157748   5.131  13.003   4.805
18617SOL    HW257749   5.164  13.117   4.899
18618SOL     OW57750   4.595   8.067   8.155
18618SOL    HW157751   4.528   8.008   8.120
18618SOL    HW257752   4.544   8.138   8.196
18619SOL     OW57753   4.229   2.937  14.247
18619SOL    HW157754   4.154   2.927  14.189
18619SOL    HW257755   4.208   3.014  14.299
18620SOL     OW57756   8.935   7.978  13.586
18620SOL    HW157757   8.952   7.990  13.679
18620SOL    HW257758   8.861   7.917  13.582
18621SOL     OW57759   9.254  13.081   7.644
18621SOL    HW157760   9.239  13.175   7.654
18621SOL    HW257761   9.322  13.075   7.577
18622SOL     OW57762  12.132  12.791   2.395
18622SOL    HW157763  12.067  12.862   2.388
18622SOL    HW257764  12.107  12.745   2.475
18623SOL     OW57765  12.989  14.650  12.631
18623SOL    HW157766  12.929  14.650  12.706
18623SOL    HW257767  13.055  14.716  12.653
18624SOL     OW57768   9.932   0.927   7.595
18624SOL    HW157769   9.998   0.977   7.547
18624SOL    HW257770   9.948   0.948   7.687
18625SOL     OW57771   2.278   8.057   5.417
18625SOL    HW157772   2.184   8.062   5.401
18625SOL    HW257773   2.314   8.018   5.338
18626SOL     OW57774   7.321  11.323  14.367
18626SOL    HW157775   7.235  11.294  14.336
18626SOL    HW257776   7.307  11.342  14.460
18627SOL     OW57777   9.217   8.613   8.260
18627SOL    HW157778   9.306   8.644   8.239
18627SOL    HW257779   9.167   8.693   8.273
18628SOL     OW57780   4.248   3.233   8.370
18628SOL    HW157781   4.298   3.236   8.451
18628SOL    HW257782   4.309   3.199   8.305
18629SOL     OW57783   2.956   0.568   5.474
18629SOL    HW157784   2.861   0.562   5.480
18629SOL    HW257785   2.982   0.617   5.552
18630SOL     OW57786   1.427  10.363   0.406
18630SOL    HW157787   1.481  10.367   0.486
18630SOL    HW257788   1.342  10.330   0.436
18631SOL     OW57789   4.747   2.298   4.973
18631SOL    HW157790   4.739   2.203   4.967
18631SOL    HW257791   4.691   2.332   4.903
18632SOL     OW57792   1.789   9.380   4.092
18632SOL    HW157793   1.843   9.446   4.049
18632SOL    HW257794   1.793   9.402   4.185
18633SOL     OW57795   3.894   6.910   7.991
18633SOL    HW157796   3.930   6.825   7.964
18633SOL    HW257797   3.944   6.974   7.940
18634SOL     OW57798  13.808   3.059   0.629
18634SOL    HW157799  13.742   2.993   0.610
18634SOL    HW257800  13.891   3.016   0.608
18635SOL     OW57801   8.900  14.488   3.421
18635SOL    HW157802   8.864  14.522   3.339
18635SOL    HW257803   8.995  14.493   3.409
18636SOL     OW57804  10.434   1.158  14.805
18636SOL    HW157805  10.426   1.129   0.014
18636SOL    HW257806  10.408   1.250  14.808
18637SOL     OW57807  10.557   7.860   1.049
18637SOL    HW157808  10.555   7.946   1.007
18637SOL    HW257809  10.573   7.878   1.141
18638SOL     OW57810   4.375   2.227   4.163
18638SOL    HW157811   4.417   2.175   4.095
18638SOL    HW257812   4.281   2.216   4.147
18639SOL     OW57813   1.149   5.984  13.933
18639SOL    HW157814   1.150   5.973  13.837
18639SOL    HW257815   1.077   5.928  13.962
18640SOL     OW57816   3.123   4.812   3.819
18640SOL    HW157817   3.161   4.764   3.745
18640SOL    HW257818   3.192   4.872   3.846
18641SOL     OW57819   8.829   5.767   6.292
18641SOL    HW157820   8.924   5.771   6.302
18641SOL    HW257821   8.796   5.847   6.333
18642SOL     OW57822   4.046   1.761   8.694
18642SOL    HW157823   4.084   1.720   8.616
18642SOL    HW257824   4.030   1.852   8.669
18643SOL     OW57825   5.507   2.399   9.520
18643SOL    HW157826   5.506   2.470   9.455
18643SOL    HW257827   5.419   2.400   9.558
18644SOL     OW57828  13.027   6.225   4.105
18644SOL    HW157829  13.066   6.229   4.192
18644SOL    HW257830  12.971   6.147   4.107
18645SOL     OW57831  11.086  12.373  10.280
18645SOL    HW157832  11.105  12.466  10.279
18645SOL    HW257833  11.061  12.352  10.190
18646SOL     OW57834   2.289   0.410   0.626
18646SOL    HW157835   2.203   0.449   0.609
18646SOL    HW257836   2.305   0.351   0.553
18647SOL     OW57837   9.369   4.569   1.781
18647SOL    HW157838   9.438   4.619   1.824
18647SOL    HW257839   9.412   4.490   1.748
18648SOL     OW57840   9.958   2.079  14.590
18648SOL    HW157841   9.946   2.155  14.532
18648SOL    HW257842   9.879   2.027  14.576
18649SOL     OW57843   6.972  14.232   0.087
18649SOL    HW157844   6.993  14.326   0.092
18649SOL    HW257845   6.930  14.221   0.002
18650SOL     OW57846   5.068   9.863  14.506
18650SOL    HW157847   4.991   9.903  14.546
18650SOL    HW257848   5.035   9.784  14.462
18651SOL     OW57849   5.134  11.978   9.901
18651SOL    HW157850   5.102  11.927   9.976
18651SOL    HW257851   5.056  12.019   9.865
18652SOL     OW57852   2.031  12.053   6.808
18652SOL    HW157853   2.043  12.095   6.893
18652SOL    HW257854   2.070  11.966   6.818
18653SOL     OW57855  13.475   2.748   4.881
18653SOL    HW157856  13.427   2.725   4.960
18653SOL    HW257857  13.506   2.837   4.896
18654SOL     OW57858   1.346   7.922  13.590
18654SOL    HW157859   1.323   8.001  13.640
18654SOL    HW257860   1.313   7.850  13.644
18655SOL     OW57861  11.867  11.754   4.567
18655SOL    HW157862  11.837  11.737   4.656
18655SOL    HW257863  11.796  11.804   4.527
18656SOL     OW57864   5.381   7.981   8.371
18656SOL    HW157865   5.339   8.023   8.296
18656SOL    HW257866   5.324   7.906   8.391
18657SOL     OW57867   0.552   1.160  13.755
18657SOL    HW157868   0.561   1.223  13.684
18657SOL    HW257869   0.571   1.075  13.715
18658SOL     OW57870   5.556   9.677   3.115
18658SOL    HW157871   5.650   9.697   3.107
18658SOL    HW257872   5.541   9.672   3.210
18659SOL     OW57873   9.607   8.363  10.780
18659SOL    HW157874   9.693   8.332  10.752
18659SOL    HW257875   9.545   8.301  10.742
18660SOL     OW57876   8.184  13.133  12.730
18660SOL    HW157877   8.197  13.228  12.721
18660SOL    HW257878   8.259  13.104  12.782
18661SOL     OW57879   2.040   0.617   2.425
18661SOL    HW157880   1.982   0.633   2.349
18661SOL    HW257881   2.037   0.699   2.474
18662SOL     OW57882  10.213  13.975   3.637
18662SOL    HW157883  10.169  13.947   3.556
18662SOL    HW257884  10.285  14.030   3.607
18663SOL     OW57885   4.850   6.449   5.671
18663SOL    HW157886   4.912   6.484   5.734
18663SOL    HW257887   4.875   6.488   5.587
18664SOL     OW57888   6.682   0.879   5.903
18664SOL    HW157889   6.649   0.921   5.983
18664SOL    HW257890   6.604   0.839   5.864
18665SOL     OW57891   2.631   5.358   3.182
18665SOL    HW157892   2.708   5.385   3.231
18665SOL    HW257893   2.582   5.439   3.166
18666SOL     OW57894  14.761   2.126   0.548
18666SOL    HW157895  14.819   2.062   0.506
18666SOL    HW257896  14.815   2.166   0.617
18667SOL     OW57897   7.944   1.115  10.525
18667SOL    HW157898   7.953   1.021  10.510
18667SOL    HW257899   7.967   1.127  10.617
18668SOL     OW57900   2.719   7.229   7.871
18668SOL    HW157901   2.643   7.178   7.899
18668SOL    HW257902   2.718   7.224   7.776
18669SOL     OW57903   5.666  14.393   6.853
18669SOL    HW157904   5.692  14.309   6.890
18669SOL    HW257905   5.633  14.372   6.766
18670SOL     OW57906   3.011   4.477   3.218
18670SOL    HW157907   3.062   4.557   3.228
18670SOL    HW257908   3.064   4.409   3.258
18671SOL     OW57909   3.393   9.714  12.006
18671SOL    HW157910   3.299   9.723  12.021
18671SOL    HW257911   3.401   9.644  11.940
18672SOL     OW57912   6.833   9.118   7.175
18672SOL    HW157913   6.753   9.137   7.126
18672SOL    HW257914   6.850   9.199   7.223
18673SOL     OW57915   6.242   4.062  11.624
18673SOL    HW157916   6.196   3.983  11.653
18673SOL    HW257917   6.286   4.036  11.543
18674SOL     OW57918  11.510   4.087   3.972
18674SOL    HW157919  11.496   4.117   3.882
18674SOL    HW257920  11.423   4.068   4.005
18675SOL     OW57921   2.454  13.907  13.300
18675SOL    HW157922   2.420  13.934  13.215
18675SOL    HW257923   2.488  13.819  13.286
18676SOL     OW57924   0.678  14.155  13.523
18676SOL    HW157925   0.677  14.105  13.604
18676SOL    HW257926   0.743  14.111  13.468
18677SOL     OW57927   7.416   5.392   8.700
18677SOL    HW157928   7.349   5.452   8.668
18677SOL    HW257929   7.457   5.358   8.621
18678SOL     OW57930   6.233   5.418   4.381
18678SOL    HW157931   6.214   5.325   4.398
18678SOL    HW257932   6.311   5.436   4.433
18679SOL     OW57933   1.341   6.017  14.104
18679SOL    HW157934   1.380   5.930  14.100
18679SOL    HW257935   1.279   6.019  14.030
18680SOL     OW57936   1.781  13.025   4.305
18680SOL    HW157937   1.774  13.018   4.210
18680SOL    HW257938   1.844  13.096   4.319
18681SOL     OW57939  14.194   6.299  12.084
18681SOL    HW157940  14.226   6.272  12.170
18681SOL    HW257941  14.101   6.276  12.085
18682SOL     OW57942   9.439   2.618   7.856
18682SOL    HW157943   9.391   2.619   7.773
18682SOL    HW257944   9.473   2.528   7.863
18683SOL     OW57945   7.608  13.348   2.342
18683SOL    HW157946   7.602  13.442   2.355
18683SOL    HW257947   7.586  13.310   2.427
18684SOL     OW57948   3.372   3.894  10.015
18684SOL    HW157949   3.414   3.969  10.058
18684SOL    HW257950   3.293   3.931   9.975
18685SOL     OW57951   2.378   9.226  13.618
18685SOL    HW157952   2.338   9.230  13.705
18685SOL    HW257953   2.438   9.301  13.616
18686SOL     OW57954   0.317   2.710   3.159
18686SOL    HW157955   0.406   2.693   3.187
18686SOL    HW257956   0.273   2.744   3.237
18687SOL     OW57957   7.214   3.704  12.472
18687SOL    HW157958   7.228   3.763  12.547
18687SOL    HW257959   7.129   3.730  12.437
18688SOL     OW57960   2.834   4.332  12.739
18688SOL    HW157961   2.808   4.405  12.683
18688SOL    HW257962   2.792   4.256  12.700
18689SOL     OW57963  10.763   6.837   0.945
18689SOL    HW157964  10.678   6.869   0.913
18689SOL    HW257965  10.827   6.895   0.903
18690SOL     OW57966   7.920   1.595  11.595
18690SOL    HW157967   7.901   1.571  11.686
18690SOL    HW257968   7.954   1.515  11.556
18691SOL     OW57969  11.562   4.605   2.547
18691SOL    HW157970  11.545   4.695   2.575
18691SOL    HW257971  11.486   4.555   2.579
18692SOL     OW57972  11.756  12.188   6.522
18692SOL    HW157973  11.678  12.140   6.550
18692SOL    HW257974  11.756  12.179   6.427
18693SOL     OW57975   4.227  10.150   3.886
18693SOL    HW157976   4.218  10.199   3.804
18693SOL    HW257977   4.178  10.201   3.950
18694SOL     OW57978   6.388   9.647  12.314
18694SOL    HW157979   6.334   9.688  12.382
18694SOL    HW257980   6.393   9.713  12.245
18695SOL     OW57981   2.754   1.779   2.527
18695SOL    HW157982   2.741   1.766   2.433
18695SOL    HW257983   2.760   1.874   2.537
18696SOL     OW57984   5.926  11.271   6.848
18696SOL    HW157985   6.016  11.246   6.868
18696SOL    HW257986   5.901  11.329   6.920
18697SOL     OW57987   0.300   8.151  13.605
18697SOL    HW157988   0.292   8.208  13.528
18697SOL    HW257989   0.366   8.194  13.660
18698SOL     OW57990  12.403  10.461   6.770
18698SOL    HW157991  12.336  10.519   6.734
18698SOL    HW257992  12.355  10.400   6.826
18699SOL     OW57993  12.545   3.072  10.536
18699SOL    HW157994  12.499   3.114  10.463
18699SOL    HW257995  12.516   3.120  10.613
18700SOL     OW57996   8.246   5.553   8.140
18700SOL    HW157997   8.311   5.491   8.175
18700SOL    HW257998   8.163   5.524   8.177
18701SOL     OW57999   6.898  13.894  11.146
18701SOL    HW158000   6.967  13.830  11.130
18701SOL    HW258001   6.836  13.850  11.204
18702SOL     OW58002  13.679   1.028   0.636
18702SOL    HW158003  13.681   0.961   0.705
18702SOL    HW258004  13.614   0.996   0.574
18703SOL     OW58005  13.738  14.135   7.218
18703SOL    HW158006  13.823  14.159   7.181
18703SOL    HW258007  13.675  14.157   7.150
18704SOL     OW58008   4.950   0.035  11.016
18704SOL    HW158009   4.891  14.872  11.077
18704SOL    HW258010   4.954  14.860  10.940
18705SOL     OW58011  12.226   5.112   4.593
18705SOL    HW158012  12.262   5.174   4.530
18705SOL    HW258013  12.140   5.089   4.556
18706SOL     OW58014   9.595  11.278  10.872
18706SOL    HW158015   9.559  11.333  10.802
18706SOL    HW258016   9.651  11.338  10.922
18707SOL     OW58017  13.339   0.550   5.766
18707SOL    HW158018  13.416   0.550   5.710
18707SOL    HW258019  13.357   0.483   5.832
18708SOL     OW58020   2.656   8.817   3.728
18708SOL    HW158021   2.638   8.848   3.640
18708SOL    HW258022   2.604   8.875   3.785
18709SOL     OW58023  13.656   9.119   4.274
18709SOL    HW158024  13.689   9.209   4.263
18709SOL    HW258025  13.571   9.119   4.231
18710SOL     OW58026   2.916  12.605  13.318
18710SOL    HW158027   2.980  12.670  13.346
18710SOL    HW258028   2.831  12.647  13.333
18711SOL     OW58029   9.693   0.367   2.141
18711SOL    HW158030   9.692   0.423   2.219
18711SOL    HW258031   9.611   0.318   2.146
18712SOL     OW58032  14.266  10.601   5.534
18712SOL    HW158033  14.240  10.692   5.548
18712SOL    HW258034  14.198  10.550   5.579
18713SOL     OW58035  13.914  10.999   4.546
18713SOL    HW158036  13.947  10.931   4.605
18713SOL    HW258037  13.925  10.963   4.458
18714SOL     OW58038   9.923  13.612   2.845
18714SOL    HW158039   9.919  13.690   2.900
18714SOL    HW258040   9.917  13.538   2.906
18715SOL     OW58041  10.708   6.913   7.573
18715SOL    HW158042  10.620   6.894   7.540
18715SOL    HW258043  10.696   6.924   7.667
18716SOL     OW58044  10.551   0.072   6.905
18716SOL    HW158045  10.480   0.134   6.919
18716SOL    HW258046  10.575   0.082   6.813
18717SOL     OW58047   5.228   2.224   6.349
18717SOL    HW158048   5.323   2.231   6.359
18717SOL    HW258049   5.193   2.278   6.419
18718SOL     OW58050   2.634  10.457   9.170
18718SOL    HW158051   2.634  10.439   9.076
18718SOL    HW258052   2.610  10.374   9.211
18719SOL     OW58053   9.604   5.276   4.587
18719SOL    HW158054   9.552   5.254   4.663
18719SOL    HW258055   9.694   5.255   4.612
18720SOL     OW58056  10.190   6.456  12.909
18720SOL    HW158057  10.219   6.439  12.999
18720SOL    HW258058  10.232   6.538  12.886
18721SOL     OW58059   1.172   8.318   5.194
18721SOL    HW158060   1.109   8.389   5.198
18721SOL    HW258061   1.160   8.280   5.107
18722SOL     OW58062   9.698   2.859  12.166
18722SOL    HW158063   9.677   2.950  12.147
18722SOL    HW258064   9.767   2.863  12.232
18723SOL     OW58065   8.641  12.799  13.835
18723SOL    HW158066   8.694  12.826  13.760
18723SOL    HW258067   8.555  12.780  13.797
18724SOL     OW58068   7.036  11.194   0.249
18724SOL    HW158069   7.068  11.251   0.319
18724SOL    HW258070   7.035  11.107   0.288
18725SOL     OW58071  11.871   9.067   0.471
18725SOL    HW158072  11.889   9.129   0.542
18725SOL    HW258073  11.788   9.097   0.434
18726SOL     OW58074   7.657  12.608  11.299
18726SOL    HW158075   7.574  12.651  11.317
18726SOL    HW258076   7.687  12.648  11.217
18727SOL     OW58077   9.759   0.545   4.182
18727SOL    HW158078   9.791   0.518   4.268
18727SOL    HW258079   9.832   0.592   4.142
18728SOL     OW58080  14.830  13.827  13.604
18728SOL    HW158081  14.875  13.755  13.647
18728SOL    HW258082  14.838  13.808  13.510
18729SOL     OW58083   8.441   1.297  13.002
18729SOL    HW158084   8.448   1.393  13.001
18729SOL    HW258085   8.354   1.280  12.965
18730SOL     OW58086  10.556   2.575  14.383
18730SOL    HW158087  10.469   2.546  14.356
18730SOL    HW258088  10.564   2.542  14.473
18731SOL     OW58089   5.908   9.988   2.693
18731SOL    HW158090   5.850  10.019   2.623
18731SOL    HW258091   5.996  10.014   2.665
18732SOL     OW58092  13.043   6.857  14.607
18732SOL    HW158093  13.082   6.823  14.527
18732SOL    HW258094  13.094   6.935  14.628
18733SOL     OW58095   2.623   9.267  14.661
18733SOL    HW158096   2.649   9.195  14.603
18733SOL    HW258097   2.533   9.286  14.636
18734SOL     OW58098   7.512   9.480   0.934
18734SOL    HW158099   7.552   9.445   1.013
18734SOL    HW258100   7.443   9.417   0.912
18735SOL     OW58101   7.374   9.567   2.885
18735SOL    HW158102   7.428   9.626   2.937
18735SOL    HW258103   7.334   9.623   2.819
18736SOL     OW58104  10.361   6.177   0.284
18736SOL    HW158105  10.412   6.257   0.286
18736SOL    HW258106  10.425   6.107   0.268
18737SOL     OW58107   4.884   4.645   5.719
18737SOL    HW158108   4.844   4.722   5.677
18737SOL    HW258109   4.825   4.573   5.697
18738SOL     OW58110  10.622  13.239   1.050
18738SOL    HW158111  10.622  13.171   1.118
18738SOL    HW258112  10.637  13.321   1.098
18739SOL     OW58113   0.487  14.253  11.757
18739SOL    HW158114   0.495  14.328  11.816
18739SOL    HW258115   0.402  14.264  11.715
18740SOL     OW58116   9.200  14.417   2.603
18740SOL    HW158117   9.124  14.445   2.552
18740SOL    HW258118   9.179  14.328   2.631
18741SOL     OW58119   0.818   8.917   7.145
18741SOL    HW158120   0.815   8.822   7.162
18741SOL    HW258121   0.740   8.951   7.188
18742SOL     OW58122   8.450   0.776   4.282
18742SOL    HW158123   8.420   0.746   4.368
18742SOL    HW258124   8.482   0.696   4.239
18743SOL     OW58125   2.707  12.798   6.450
18743SOL    HW158126   2.626  12.828   6.408
18743SOL    HW258127   2.681  12.770   6.537
18744SOL     OW58128  13.359   6.158   9.443
18744SOL    HW158129  13.291   6.094   9.464
18744SOL    HW258130  13.399   6.179   9.527
18745SOL     OW58131   3.902   2.724   9.893
18745SOL    HW158132   3.997   2.733   9.887
18745SOL    HW258133   3.870   2.751   9.807
18746SOL     OW58134  10.118  11.102   7.240
18746SOL    HW158135  10.127  11.064   7.153
18746SOL    HW258136  10.204  11.138   7.260
18747SOL     OW58137  14.373   4.935  10.508
18747SOL    HW158138  14.315   4.877  10.458
18747SOL    HW258139  14.458   4.926  10.465
18748SOL     OW58140  11.860   7.225   6.112
18748SOL    HW158141  11.947   7.260   6.130
18748SOL    HW258142  11.805   7.262   6.181
18749SOL     OW58143  14.541   4.111   9.912
18749SOL    HW158144  14.576   4.040   9.965
18749SOL    HW258145  14.618   4.158   9.881
18750SOL     OW58146   5.431   6.311  14.836
18750SOL    HW158147   5.432   6.405  14.856
18750SOL    HW258148   5.338   6.287  14.839
18751SOL     OW58149  10.758  13.705   3.090
18751SOL    HW158150  10.689  13.759   3.128
18751SOL    HW258151  10.723  13.616   3.091
18752SOL     OW58152   9.255   1.005   2.274
18752SOL    HW158153   9.161   0.986   2.284
18752SOL    HW258154   9.291   0.925   2.235
18753SOL     OW58155   8.871   4.866   9.903
18753SOL    HW158156   8.804   4.873   9.971
18753SOL    HW258157   8.910   4.953   9.897
18754SOL     OW58158  10.058   0.732   6.421
18754SOL    HW158159  10.003   0.765   6.351
18754SOL    HW258160  10.081   0.643   6.394
18755SOL     OW58161   2.096   9.598   7.280
18755SOL    HW158162   2.117   9.668   7.218
18755SOL    HW258163   2.015   9.627   7.323
18756SOL     OW58164  13.487   8.054   1.216
18756SOL    HW158165  13.573   8.027   1.183
18756SOL    HW258166  13.450   8.107   1.146
18757SOL     OW58167  10.492   6.536   9.338
18757SOL    HW158168  10.471   6.477   9.410
18757SOL    HW258169  10.584   6.521   9.319
18758SOL     OW58170   9.314   2.614   7.588
18758SOL    HW158171   9.219   2.606   7.593
18758SOL    HW258172   9.330   2.708   7.588
18759SOL     OW58173   2.038   3.061  14.718
18759SOL    HW158174   1.961   3.063  14.661
18759SOL    HW258175   2.025   2.984  14.773
18760SOL     OW58176   4.837  13.545  11.775
18760SOL    HW158177   4.809  13.462  11.736
18760SOL    HW258178   4.772  13.609  11.745
18761SOL     OW58179  12.000   4.362  12.738
18761SOL    HW158180  12.032   4.272  12.746
18761SOL    HW258181  11.945   4.360  12.659
18762SOL     OW58182   3.568  11.931   8.877
18762SOL    HW158183   3.527  11.855   8.919
18762SOL    HW258184   3.538  11.926   8.786
18763SOL     OW58185  11.195  12.897  12.706
18763SOL    HW158186  11.185  12.863  12.795
18763SOL    HW258187  11.276  12.947  12.709
18764SOL     OW58188   3.865   8.090   1.460
18764SOL    HW158189   3.945   8.037   1.459
18764SOL    HW258190   3.834   8.089   1.370
18765SOL     OW58191  10.919  10.651   2.322
18765SOL    HW158192  10.864  10.681   2.395
18765SOL    HW258193  10.873  10.683   2.244
18766SOL     OW58194   7.068   6.561  11.271
18766SOL    HW158195   7.118   6.483  11.294
18766SOL    HW258196   6.976   6.537  11.284
18767SOL     OW58197   0.321   0.886   6.587
18767SOL    HW158198   0.331   0.823   6.658
18767SOL    HW258199   0.234   0.925   6.601
18768SOL     OW58200   6.569   7.281   4.415
18768SOL    HW158201   6.612   7.199   4.440
18768SOL    HW258202   6.546   7.322   4.497
18769SOL     OW58203  12.951  14.049  14.478
18769SOL    HW158204  12.872  13.999  14.498
18769SOL    HW258205  12.968  14.101  14.556
18770SOL     OW58206   1.610  12.870   0.272
18770SOL    HW158207   1.519  12.889   0.250
18770SOL    HW258208   1.615  12.877   0.367
18771SOL     OW58209  13.772  11.998  11.417
18771SOL    HW158210  13.846  11.938  11.408
18771SOL    HW258211  13.721  11.961  11.489
18772SOL     OW58212   9.709   5.864  14.227
18772SOL    HW158213   9.633   5.921  14.224
18772SOL    HW258214   9.773   5.911  14.280
18773SOL     OW58215   8.373  13.437   4.488
18773SOL    HW158216   8.285  13.429   4.526
18773SOL    HW258217   8.357  13.454   4.395
18774SOL     OW58218   6.025   1.377   0.607
18774SOL    HW158219   5.948   1.428   0.634
18774SOL    HW258220   6.076   1.368   0.687
18775SOL     OW58221  12.218   8.510  11.138
18775SOL    HW158222  12.296   8.455  11.145
18775SOL    HW258223  12.146   8.448  11.129
18776SOL     OW58224  10.638   0.404  13.063
18776SOL    HW158225  10.641   0.312  13.090
18776SOL    HW258226  10.556   0.437  13.100
18777SOL     OW58227  11.597   2.978   8.005
18777SOL    HW158228  11.587   3.073   8.016
18777SOL    HW258229  11.624   2.968   7.914
18778SOL     OW58230   0.380   8.809   0.725
18778SOL    HW158231   0.434   8.857   0.788
18778SOL    HW258232   0.439   8.787   0.654
18779SOL     OW58233  10.611  12.046   2.454
18779SOL    HW158234  10.617  11.992   2.533
18779SOL    HW258235  10.688  12.103   2.458
18780SOL     OW58236   2.150   3.413   1.621
18780SOL    HW158237   2.071   3.460   1.596
18780SOL    HW258238   2.152   3.337   1.562
18781SOL     OW58239   2.961   2.650   4.308
18781SOL    HW158240   2.895   2.618   4.247
18781SOL    HW258241   3.043   2.645   4.261
18782SOL     OW58242  10.866  12.857   0.914
18782SOL    HW158243  10.815  12.805   0.976
18782SOL    HW258244  10.816  12.854   0.833
18783SOL     OW58245   1.139   8.029   5.539
18783SOL    HW158246   1.044   8.021   5.533
18783SOL    HW258247   1.155   8.059   5.629
18784SOL     OW58248  13.201  10.020   4.922
18784SOL    HW158249  13.160   9.990   4.841
18784SOL    HW258250  13.215   9.941   4.973
18785SOL     OW58251   1.635   3.771   8.788
18785SOL    HW158252   1.729   3.763   8.770
18785SOL    HW258253   1.593   3.724   8.715
18786SOL     OW58254   3.935   2.132   6.246
18786SOL    HW158255   4.026   2.140   6.219
18786SOL    HW258256   3.936   2.157   6.339
18787SOL     OW58257  11.838  14.832  13.366
18787SOL    HW158258  11.776  14.814  13.296
18787SOL    HW258259  11.902  14.761  13.361
18788SOL     OW58260   9.642  12.577   5.118
18788SOL    HW158261   9.585  12.510   5.081
18788SOL    HW258262   9.584  12.631   5.171
18789SOL     OW58263   3.549   2.021   3.982
18789SOL    HW158264   3.600   1.983   4.053
18789SOL    HW258265   3.480   1.956   3.964
18790SOL     OW58266  10.905   9.796   1.465
18790SOL    HW158267  10.976   9.800   1.401
18790SOL    HW258268  10.942   9.836   1.544
18791SOL     OW58269  11.081   6.858  11.270
18791SOL    HW158270  11.035   6.790  11.319
18791SOL    HW258271  11.157   6.812  11.232
18792SOL     OW58272  11.710   4.592   7.521
18792SOL    HW158273  11.631   4.550   7.488
18792SOL    HW258274  11.758   4.618   7.442
18793SOL     OW58275   6.351   4.849   5.517
18793SOL    HW158276   6.396   4.796   5.582
18793SOL    HW258277   6.414   4.917   5.494
18794SOL     OW58278   3.141  12.366  11.004
18794SOL    HW158279   3.190  12.375  10.922
18794SOL    HW258280   3.134  12.455  11.038
18795SOL     OW58281   2.644  14.221   4.207
18795SOL    HW158282   2.696  14.164   4.151
18795SOL    HW258283   2.573  14.252   4.151
18796SOL     OW58284  11.370  11.260  11.151
18796SOL    HW158285  11.429  11.218  11.088
18796SOL    HW258286  11.407  11.237  11.237
18797SOL     OW58287   3.968   2.412   3.351
18797SOL    HW158288   4.000   2.501   3.361
18797SOL    HW258289   3.872   2.420   3.353
18798SOL     OW58290   9.970   1.967   1.896
18798SOL    HW158291  10.015   2.035   1.847
18798SOL    HW258292   9.935   1.908   1.829
18799SOL     OW58293   0.367   9.205  13.323
18799SOL    HW158294   0.365   9.189  13.229
18799SOL    HW258295   0.438   9.268  13.336
18800SOL     OW58296   1.521  11.081  14.045
18800SOL    HW158297   1.603  11.131  14.046
18800SOL    HW258298   1.461  11.135  13.993
18801SOL     OW58299   0.656   3.630   1.060
18801SOL    HW158300   0.590   3.590   1.003
18801SOL    HW258301   0.648   3.724   1.044
18802SOL     OW58302   0.162   6.598   3.039
18802SOL    HW158303   0.190   6.642   3.119
18802SOL    HW258304   0.138   6.669   2.979
18803SOL     OW58305  12.531   2.429   5.723
18803SOL    HW158306  12.533   2.361   5.791
18803SOL    HW258307  12.585   2.500   5.759
18804SOL     OW58308   7.999  12.190   2.083
18804SOL    HW158309   8.022  12.165   2.172
18804SOL    HW258310   7.918  12.144   2.065
18805SOL     OW58311  14.671  11.710  12.540
18805SOL    HW158312  14.575  11.713  12.532
18805SOL    HW258313  14.689  11.624  12.577
18806SOL     OW58314   6.969   9.098  10.162
18806SOL    HW158315   6.965   9.029  10.228
18806SOL    HW258316   6.958   9.052  10.079
18807SOL     OW58317  13.097  10.967   0.064
18807SOL    HW158318  13.059  10.970   0.152
18807SOL    HW258319  13.161  11.039   0.063
18808SOL     OW58320   0.989  12.996   8.787
18808SOL    HW158321   0.928  13.067   8.768
18808SOL    HW258322   1.032  13.023   8.868
18809SOL     OW58323  10.765   7.355  13.052
18809SOL    HW158324  10.822   7.360  13.129
18809SOL    HW258325  10.823   7.365  12.977
18810SOL     OW58326   5.892  10.498  10.744
18810SOL    HW158327   5.938  10.519  10.663
18810SOL    HW258328   5.950  10.437  10.790
18811SOL     OW58329   3.599  10.862  14.642
18811SOL    HW158330   3.516  10.910  14.644
18811SOL    HW258331   3.596  10.806  14.720
18812SOL     OW58332   0.931   0.755   9.818
18812SOL    HW158333   0.892   0.758   9.730
18812SOL    HW258334   0.949   0.662   9.832
18813SOL     OW58335  10.527   2.217   2.150
18813SOL    HW158336  10.457   2.272   2.185
18813SOL    HW258337  10.601   2.278   2.137
18814SOL     OW58338  14.198  12.818   4.406
18814SOL    HW158339  14.236  12.768   4.334
18814SOL    HW258340  14.255  12.800   4.481
18815SOL     OW58341   3.139  12.641   6.631
18815SOL    HW158342   3.061  12.586   6.621
18815SOL    HW258343   3.105  12.723   6.666
18816SOL     OW58344  10.188   1.111   7.935
18816SOL    HW158345  10.169   1.025   7.971
18816SOL    HW258346  10.144   1.172   7.994
18817SOL     OW58347  10.750   9.250   7.592
18817SOL    HW158348  10.673   9.290   7.551
18817SOL    HW258349  10.715   9.173   7.637
18818SOL     OW58350   8.101   8.507  13.588
18818SOL    HW158351   8.140   8.594  13.595
18818SOL    HW258352   8.119   8.480  13.498
18819SOL     OW58353  14.157   9.005  11.733
18819SOL    HW158354  14.172   9.097  11.711
18819SOL    HW258355  14.204   8.956  11.664
18820SOL     OW58356   2.214   1.379   0.465
18820SOL    HW158357   2.202   1.474   0.473
18820SOL    HW258358   2.271   1.369   0.389
18821SOL     OW58359   1.636  10.468   5.888
18821SOL    HW158360   1.713  10.412   5.895
18821SOL    HW258361   1.579  10.442   5.961
18822SOL     OW58362  12.277   4.827   5.258
18822SOL    HW158363  12.255   4.861   5.172
18822SOL    HW258364  12.248   4.735   5.256
18823SOL     OW58365   3.487   5.382  11.977
18823SOL    HW158366   3.472   5.290  11.998
18823SOL    HW258367   3.534   5.416  12.053
18824SOL     OW58368  13.593   8.386   3.417
18824SOL    HW158369  13.516   8.424   3.459
18824SOL    HW258370  13.617   8.312   3.473
18825SOL     OW58371   1.883   3.548   9.116
18825SOL    HW158372   1.954   3.589   9.165
18825SOL    HW258373   1.904   3.454   9.117
18826SOL     OW58374   9.846   1.344   2.292
18826SOL    HW158375   9.849   1.410   2.361
18826SOL    HW258376   9.763   1.299   2.305
18827SOL     OW58377   5.178   3.461  13.344
18827SOL    HW158378   5.244   3.425  13.404
18827SOL    HW258379   5.096   3.418  13.371
18828SOL     OW58380  10.323   7.851  13.050
18828SOL    HW158381  10.374   7.865  12.970
18828SOL    HW258382  10.383   7.808  13.111
18829SOL     OW58383   6.887   9.331  12.887
18829SOL    HW158384   6.815   9.326  12.824
18829SOL    HW258385   6.845   9.347  12.971
18830SOL     OW58386   5.805   8.967  10.071
18830SOL    HW158387   5.742   8.978  10.142
18830SOL    HW258388   5.829   8.874  10.076
18831SOL     OW58389   1.213   6.181   9.876
18831SOL    HW158390   1.245   6.221   9.795
18831SOL    HW258391   1.228   6.247   9.943
18832SOL     OW58392   0.193  13.180   0.644
18832SOL    HW158393   0.224  13.270   0.634
18832SOL    HW258394   0.245  13.144   0.715
18833SOL     OW58395   9.859  14.102   2.911
18833SOL    HW158396   9.871  14.126   2.819
18833SOL    HW258397   9.777  14.144   2.936
18834SOL     OW58398  11.316   1.887   5.996
18834SOL    HW158399  11.285   1.928   5.915
18834SOL    HW258400  11.367   1.956   6.039
18835SOL     OW58401   0.740   0.346   0.291
18835SOL    HW158402   0.803   0.335   0.220
18835SOL    HW258403   0.794   0.354   0.370
18836SOL     OW58404   7.649   4.877   7.383
18836SOL    HW158405   7.594   4.949   7.413
18836SOL    HW258406   7.588   4.814   7.345
18837SOL     OW58407   7.887   3.645  10.292
18837SOL    HW158408   7.953   3.713  10.305
18837SOL    HW258409   7.876   3.640  10.197
18838SOL     OW58410   5.201   2.489  13.628
18838SOL    HW158411   5.201   2.550  13.701
18838SOL    HW258412   5.234   2.407  13.665
18839SOL     OW58413   6.264   3.722  14.587
18839SOL    HW158414   6.222   3.711  14.672
18839SOL    HW258415   6.280   3.633  14.556
18840SOL     OW58416   0.382  12.994   5.455
18840SOL    HW158417   0.453  13.039   5.500
18840SOL    HW258418   0.419  12.910   5.429
18841SOL     OW58419  12.232   4.453  10.626
18841SOL    HW158420  12.211   4.498  10.545
18841SOL    HW258421  12.224   4.521  10.694
18842SOL     OW58422   4.435   8.429   0.828
18842SOL    HW158423   4.519   8.384   0.831
18842SOL    HW258424   4.373   8.362   0.800
18843SOL     OW58425   4.530   7.483   6.384
18843SOL    HW158426   4.624   7.492   6.403
18843SOL    HW258427   4.524   7.493   6.289
18844SOL     OW58428  10.892   0.823   7.738
18844SOL    HW158429  10.983   0.798   7.752
18844SOL    HW258430  10.843   0.770   7.801
18845SOL     OW58431  12.342  10.462   9.976
18845SOL    HW158432  12.379  10.547  10.000
18845SOL    HW258433  12.331  10.416  10.059
18846SOL     OW58434   0.344  12.233   3.842
18846SOL    HW158435   0.386  12.269   3.921
18846SOL    HW258436   0.288  12.303   3.811
18847SOL     OW58437   0.977   5.876  12.138
18847SOL    HW158438   0.951   5.802  12.083
18847SOL    HW258439   0.895   5.910  12.174
18848SOL     OW58440   0.036  14.129   3.773
18848SOL    HW158441  14.875  14.102   3.855
18848SOL    HW258442   0.012  14.221   3.763
18849SOL     OW58443   7.889  11.760  13.197
18849SOL    HW158444   7.924  11.723  13.278
18849SOL    HW258445   7.813  11.705  13.177
18850SOL     OW58446   0.009   5.158   1.649
18850SOL    HW158447   0.051   5.101   1.584
18850SOL    HW258448  14.798   5.138   1.642
18851SOL     OW58449  13.599   7.606  14.155
18851SOL    HW158450  13.644   7.527  14.123
18851SOL    HW258451  13.621   7.673  14.090
18852SOL     OW58452   0.429   7.148   0.291
18852SOL    HW158453   0.493   7.171   0.358
18852SOL    HW258454   0.476   7.090   0.231
18853SOL     OW58455   0.629  13.097   1.211
18853SOL    HW158456   0.545  13.081   1.254
18853SOL    HW258457   0.667  13.010   1.198
18854SOL     OW58458   1.813   6.790  13.469
18854SOL    HW158459   1.733   6.805  13.520
18854SOL    HW258460   1.805   6.699  13.438
18855SOL     OW58461  10.982  10.780   9.316
18855SOL    HW158462  10.987  10.695   9.273
18855SOL    HW258463  10.947  10.839   9.249
18856SOL     OW58464  10.700   0.574   3.696
18856SOL    HW158465  10.789   0.589   3.666
18856SOL    HW258466  10.645   0.598   3.621
18857SOL     OW58467   2.747   1.942   7.975
18857SOL    HW158468   2.723   1.871   7.915
18857SOL    HW258469   2.663   1.974   8.008
18858SOL     OW58470  12.106   6.981  10.217
18858SOL    HW158471  12.046   7.018  10.282
18858SOL    HW258472  12.049   6.932  10.157
18859SOL     OW58473   1.741  14.459   6.507
18859SOL    HW158474   1.666  14.513   6.534
18859SOL    HW258475   1.731  14.450   6.412
18860SOL     OW58476   3.746   7.810   3.377
18860SOL    HW158477   3.838   7.804   3.351
18860SOL    HW258478   3.697   7.775   3.302
18861SOL     OW58479   9.834   3.772  10.848
18861SOL    HW158480   9.848   3.833  10.920
18861SOL    HW258481   9.918   3.728  10.837
18862SOL     OW58482  10.199   4.932   0.372
18862SOL    HW158483  10.211   4.845   0.335
18862SOL    HW258484  10.143   4.978   0.309
18863SOL     OW58485   4.642   8.699   6.251
18863SOL    HW158486   4.599   8.647   6.183
18863SOL    HW258487   4.570   8.734   6.303
18864SOL     OW58488   7.081  13.508  10.903
18864SOL    HW158489   7.147  13.530  10.838
18864SOL    HW258490   7.073  13.413  10.898
18865SOL     OW58491   7.115  14.049  14.664
18865SOL    HW158492   7.163  14.053  14.581
18865SOL    HW258493   7.066  14.131  14.667
18866SOL     OW58494  10.512  13.336   9.654
18866SOL    HW158495  10.552  13.423   9.651
18866SOL    HW258496  10.441  13.346   9.717
18867SOL     OW58497  13.348   5.507   5.107
18867SOL    HW158498  13.312   5.453   5.178
18867SOL    HW258499  13.272   5.530   5.053
18868SOL     OW58500   6.022   4.079  10.468
18868SOL    HW158501   6.093   4.107  10.526
18868SOL    HW258502   6.050   3.993  10.436
18869SOL     OW58503  10.994   7.759   1.494
18869SOL    HW158504  11.076   7.738   1.450
18869SOL    HW258505  11.021   7.788   1.581
18870SOL     OW58506   5.650   8.828   8.182
18870SOL    HW158507   5.647   8.795   8.093
18870SOL    HW258508   5.584   8.897   8.184
18871SOL     OW58509   3.075  12.504   2.735
18871SOL    HW158510   3.108  12.440   2.672
18871SOL    HW258511   3.151  12.561   2.754
18872SOL     OW58512   6.184  14.456  14.631
18872SOL    HW158513   6.219  14.534  14.588
18872SOL    HW258514   6.228  14.455  14.716
18873SOL     OW58515  13.685   9.974   4.343
18873SOL    HW158516  13.701   9.994   4.250
18873SOL    HW258517  13.608   9.918   4.342
18874SOL     OW58518   9.548   7.922   2.806
18874SOL    HW158519   9.546   7.877   2.891
18874SOL    HW258520   9.640   7.916   2.779
18875SOL     OW58521   9.276   6.425   0.838
18875SOL    HW158522   9.217   6.426   0.914
18875SOL    HW258523   9.353   6.377   0.869
18876SOL     OW58524   1.401   4.735   3.904
18876SOL    HW158525   1.333   4.669   3.915
18876SOL    HW258526   1.483   4.687   3.916
18877SOL     OW58527   7.746   4.871  14.411
18877SOL    HW158528   7.773   4.814  14.483
18877SOL    HW258529   7.700   4.943  14.454
18878SOL     OW58530  14.863   1.801   9.951
18878SOL    HW158531   0.029   1.803   9.869
18878SOL    HW258532  14.802   1.875   9.945
18879SOL     OW58533  14.433  13.595  10.282
18879SOL    HW158534  14.463  13.594  10.373
18879SOL    HW258535  14.433  13.503  10.255
18880SOL     OW58536   7.357   2.460   0.967
18880SOL    HW158537   7.381   2.521   1.036
18880SOL    HW258538   7.430   2.397   0.966
18881SOL     OW58539   3.389   7.271   3.775
18881SOL    HW158540   3.409   7.232   3.860
18881SOL    HW258541   3.415   7.204   3.712
18882SOL     OW58542  14.730  10.631   4.341
18882SOL    HW158543  14.719  10.633   4.437
18882SOL    HW258544  14.678  10.556   4.312
18883SOL     OW58545   1.016  13.358   7.747
18883SOL    HW158546   0.934  13.323   7.782
18883SOL    HW258547   1.032  13.307   7.668
18884SOL     OW58548  12.869   0.337   2.552
18884SOL    HW158549  12.937   0.286   2.597
18884SOL    HW258550  12.833   0.394   2.620
18885SOL     OW58551   6.716  12.851   1.043
18885SOL    HW158552   6.747  12.831   1.131
18885SOL    HW258553   6.782  12.909   1.006
18886SOL     OW58554   4.356   4.405   1.267
18886SOL    HW158555   4.283   4.363   1.221
18886SOL    HW258556   4.332   4.497   1.271
18887SOL     OW58557   1.080   9.963   3.339
18887SOL    HW158558   1.076  10.003   3.426
18887SOL    HW258559   1.032   9.881   3.348
18888SOL     OW58560   4.766   2.152   6.474
18888SOL    HW158561   4.703   2.087   6.504
18888SOL    HW258562   4.834   2.152   6.541
18889SOL     OW58563   5.527  11.791   3.261
18889SOL    HW158564   5.581  11.760   3.188
18889SOL    HW258565   5.582  11.855   3.306
18890SOL     OW58566   6.296   4.813   4.582
18890SOL    HW158567   6.323   4.781   4.668
18890SOL    HW258568   6.220   4.868   4.600
18891SOL     OW58569  11.689  12.459  13.156
18891SOL    HW158570  11.734  12.474  13.073
18891SOL    HW258571  11.756  12.425  13.215
18892SOL     OW58572  11.249  11.092   0.385
18892SOL    HW158573  11.206  11.176   0.406
18892SOL    HW258574  11.176  11.034   0.362
18893SOL     OW58575  10.641   5.007   9.048
18893SOL    HW158576  10.674   4.947   9.115
18893SOL    HW258577  10.586   5.069   9.095
18894SOL     OW58578   2.813   9.313   8.752
18894SOL    HW158579   2.840   9.331   8.662
18894SOL    HW258580   2.729   9.357   8.761
18895SOL     OW58581  13.757  11.385   5.575
18895SOL    HW158582  13.817  11.453   5.545
18895SOL    HW258583  13.735  11.411   5.665
18896SOL     OW58584   5.902  11.201   7.529
18896SOL    HW158585   5.857  11.280   7.561
18896SOL    HW258586   5.995  11.219   7.545
18897SOL     OW58587   9.607   1.219   2.283
18897SOL    HW158588   9.533   1.221   2.343
18897SOL    HW258589   9.582   1.156   2.216
18898SOL     OW58590   4.971   3.226  10.946
18898SOL    HW158591   4.949   3.151  10.890
18898SOL    HW258592   5.024   3.283  10.891
18899SOL     OW58593  14.334   1.490  14.239
18899SOL    HW158594  14.420   1.531  14.234
18899SOL    HW258595  14.312   1.468  14.148
18900SOL     OW58596   9.352   2.808   6.474
18900SOL    HW158597   9.376   2.888   6.427
18900SOL    HW258598   9.345   2.741   6.407
18901SOL     OW58599   4.715   3.162   2.932
18901SOL    HW158600   4.769   3.101   2.881
18901SOL    HW258601   4.776   3.229   2.961
18902SOL     OW58602  11.221   9.847   3.177
18902SOL    HW158603  11.219   9.756   3.146
18902SOL    HW258604  11.304   9.881   3.146
18903SOL     OW58605   2.696   1.623   7.127
18903SOL    HW158606   2.784   1.632   7.091
18903SOL    HW258607   2.673   1.531   7.110
18904SOL     OW58608   2.216  14.570   7.075
18904SOL    HW158609   2.233  14.498   7.136
18904SOL    HW258610   2.194  14.644   7.131
18905SOL     OW58611  12.936   8.417   8.729
18905SOL    HW158612  12.941   8.372   8.644
18905SOL    HW258613  13.023   8.404   8.767
18906SOL     OW58614   2.068  12.212   7.337
18906SOL    HW158615   2.079  12.284   7.398
18906SOL    HW258616   2.138  12.225   7.272
18907SOL     OW58617  12.426  14.353   4.434
18907SOL    HW158618  12.493  14.391   4.489
18907SOL    HW258619  12.346  14.402   4.455
18908SOL     OW58620  14.444   1.195   9.685
18908SOL    HW158621  14.460   1.288   9.665
18908SOL    HW258622  14.452   1.151   9.601
18909SOL     OW58623  10.012  10.726   4.916
18909SOL    HW158624  10.060  10.644   4.904
18909SOL    HW258625  10.021  10.745   5.009
18910SOL     OW58626  11.278  12.725   2.058
18910SOL    HW158627  11.233  12.807   2.038
18910SOL    HW258628  11.326  12.704   1.978
18911SOL     OW58629   1.048  12.864   3.336
18911SOL    HW158630   0.991  12.787   3.334
18911SOL    HW258631   1.119  12.843   3.276
18912SOL     OW58632   2.438   5.147   5.865
18912SOL    HW158633   2.427   5.057   5.835
18912SOL    HW258634   2.533   5.159   5.870
18913SOL     OW58635  11.306  11.183   4.509
18913SOL    HW158636  11.344  11.104   4.471
18913SOL    HW258637  11.250  11.151   4.579
18914SOL     OW58638  10.653   6.849   6.685
18914SOL    HW158639  10.558   6.839   6.686
18914SOL    HW258640  10.672   6.907   6.759
18915SOL     OW58641   1.755   7.236  11.640
18915SOL    HW158642   1.793   7.316  11.675
18915SOL    HW258643   1.745   7.253  11.546
18916SOL     OW58644   3.527  10.694  10.929
18916SOL    HW158645   3.520  10.742  10.847
18916SOL    HW258646   3.587  10.622  10.910
18917SOL     OW58647   3.194  11.507   4.894
18917SOL    HW158648   3.202  11.506   4.989
18917SOL    HW258649   3.163  11.595   4.873
18918SOL     OW58650  11.557   3.306  12.941
18918SOL    HW158651  11.532   3.256  13.018
18918SOL    HW258652  11.479   3.303  12.884
18919SOL     OW58653   0.454   4.267   1.065
18919SOL    HW158654   0.497   4.197   1.114
18919SOL    HW258655   0.477   4.347   1.111
18920SOL     OW58656   8.940   5.724  14.537
18920SOL    HW158657   8.986   5.757  14.613
18920SOL    HW258658   8.937   5.629  14.550
18921SOL     OW58659  10.933   9.935   1.818
18921SOL    HW158660  10.960   9.865   1.878
18921SOL    HW258661  10.996   9.930   1.746
18922SOL     OW58662  12.131   3.580  10.579
18922SOL    HW158663  12.133   3.676  10.580
18922SOL    HW258664  12.221   3.554  10.596
18923SOL     OW58665  11.354   5.318   0.628
18923SOL    HW158666  11.409   5.245   0.600
18923SOL    HW258667  11.370   5.386   0.563
18924SOL     OW58668  14.739   8.067   8.213
18924SOL    HW158669  14.731   8.050   8.307
18924SOL    HW258670  14.659   8.030   8.176
18925SOL     OW58671  13.606   8.308  14.017
18925SOL    HW158672  13.542   8.270  13.956
18925SOL    HW258673  13.575   8.283  14.104
18926SOL     OW58674   0.733   1.095   7.359
18926SOL    HW158675   0.780   1.012   7.374
18926SOL    HW258676   0.671   1.075   7.289
18927SOL     OW58677  10.484   2.872   9.548
18927SOL    HW158678  10.577   2.849   9.545
18927SOL    HW258679  10.463   2.897   9.458
18928SOL     OW58680   8.253   6.274   6.168
18928SOL    HW158681   8.211   6.317   6.242
18928SOL    HW258682   8.334   6.237   6.204
18929SOL     OW58683  14.471  11.306   6.965
18929SOL    HW158684  14.561  11.326   6.939
18929SOL    HW258685  14.475  11.219   7.003
18930SOL     OW58686   7.036   0.934   4.882
18930SOL    HW158687   7.039   0.869   4.812
18930SOL    HW258688   7.080   0.892   4.956
18931SOL     OW58689   8.017  10.485   1.810
18931SOL    HW158690   8.028  10.579   1.822
18931SOL    HW258691   8.017  10.473   1.715
18932SOL     OW58692  10.763  12.835   3.546
18932SOL    HW158693  10.783  12.755   3.498
18932SOL    HW258694  10.833  12.841   3.612
18933SOL     OW58695   8.869   0.295   9.530
18933SOL    HW158696   8.881   0.312   9.437
18933SOL    HW258697   8.774   0.295   9.543
18934SOL     OW58698  11.115  10.928   1.151
18934SOL    HW158699  11.148  11.002   1.202
18934SOL    HW258700  11.177  10.919   1.079
18935SOL     OW58701   4.665  12.324   6.010
18935SOL    HW158702   4.695  12.239   6.041
18935SOL    HW258703   4.746  12.376   6.002
18936SOL     OW58704   1.467   4.595   3.557
18936SOL    HW158705   1.427   4.679   3.532
18936SOL    HW258706   1.414   4.563   3.630
18937SOL     OW58707  12.845  12.541  10.395
18937SOL    HW158708  12.893  12.549  10.477
18937SOL    HW258709  12.864  12.622  10.348
18938SOL     OW58710  12.154  14.839   0.650
18938SOL    HW158711  12.105  14.808   0.574
18938SOL    HW258712  12.107   0.036   0.678
18939SOL     OW58713  11.604   6.534  11.003
18939SOL    HW158714  11.550   6.514  10.926
18939SOL    HW258715  11.635   6.623  10.988
18940SOL     OW58716   7.686   6.353   0.849
18940SOL    HW158717   7.708   6.324   0.937
18940SOL    HW258718   7.758   6.321   0.794
18941SOL     OW58719  14.065  10.656   9.284
18941SOL    HW158720  13.969  10.656   9.277
18941SOL    HW258721  14.095  10.654   9.193
18942SOL     OW58722   9.746   8.710   6.313
18942SOL    HW158723   9.687   8.681   6.382
18942SOL    HW258724   9.818   8.753   6.360
18943SOL     OW58725  10.027   7.409   9.116
18943SOL    HW158726  10.076   7.473   9.166
18943SOL    HW258727  10.045   7.431   9.024
18944SOL     OW58728   2.011   1.519  13.682
18944SOL    HW158729   2.065   1.451  13.720
18944SOL    HW258730   2.072   1.590  13.661
18945SOL     OW58731   0.231   5.129  13.774
18945SOL    HW158732   0.259   5.172  13.694
18945SOL    HW258733   0.273   5.178  13.844
18946SOL     OW58734   8.671  14.120   5.068
18946SOL    HW158735   8.719  14.120   5.150
18946SOL    HW258736   8.688  14.207   5.030
18947SOL     OW58737   1.213   6.986   1.339
18947SOL    HW158738   1.255   6.966   1.423
18947SOL    HW258739   1.250   7.070   1.313
18948SOL     OW58740   2.493   7.818   4.226
18948SOL    HW158741   2.460   7.898   4.185
18948SOL    HW258742   2.589   7.827   4.223
18949SOL     OW58743   8.878   8.013   2.969
18949SOL    HW158744   8.973   8.004   2.968
18949SOL    HW258745   8.856   8.023   3.061
18950SOL     OW58746   4.313   4.015   1.557
18950SOL    HW158747   4.227   4.043   1.527
18950SOL    HW258748   4.371   4.090   1.539
18951SOL     OW58749   0.368  14.754  10.836
18951SOL    HW158750   0.461  14.775  10.841
18951SOL    HW258751   0.357  14.712  10.751
18952SOL     OW58752   4.858  12.702   7.413
18952SOL    HW158753   4.772  12.721   7.452
18952SOL    HW258754   4.865  12.607   7.416
18953SOL     OW58755  14.446   7.500  10.178
18953SOL    HW158756  14.432   7.581  10.130
18953SOL    HW258757  14.519   7.519  10.236
18954SOL     OW58758   8.275   5.856   9.541
18954SOL    HW158759   8.290   5.923   9.608
18954SOL    HW258760   8.246   5.906   9.464
18955SOL     OW58761   8.655   5.151  13.316
18955SOL    HW158762   8.677   5.157  13.409
18955SOL    HW258763   8.703   5.222  13.275
18956SOL     OW58764  12.399   7.158  11.312
18956SOL    HW158765  12.487   7.196  11.311
18956SOL    HW258766  12.404   7.088  11.377
18957SOL     OW58767   7.393  10.933  10.632
18957SOL    HW158768   7.400  10.910  10.725
18957SOL    HW258769   7.317  10.883  10.601
18958SOL     OW58770   9.743   0.620  13.507
18958SOL    HW158771   9.698   0.548  13.463
18958SOL    HW258772   9.713   0.615  13.598
18959SOL     OW58773   4.940   4.230   0.047
18959SOL    HW158774   4.890   4.263   0.122
18959SOL    HW258775   4.979   4.149   0.080
18960SOL     OW58776   6.446   2.463  13.663
18960SOL    HW158777   6.421   2.376  13.632
18960SOL    HW258778   6.377   2.487  13.725
18961SOL     OW58779  12.073   9.141   1.722
18961SOL    HW158780  12.165   9.149   1.751
18961SOL    HW258781  12.078   9.142   1.627
18962SOL     OW58782  13.997   8.218   8.509
18962SOL    HW158783  13.911   8.258   8.497
18962SOL    HW258784  13.991   8.174   8.595
18963SOL     OW58785   1.326  12.314   2.782
18963SOL    HW158786   1.369  12.230   2.794
18963SOL    HW258787   1.244  12.293   2.738
18964SOL     OW58788   1.463  11.913   7.212
18964SOL    HW158789   1.516  11.962   7.149
18964SOL    HW258790   1.463  11.823   7.179
18965SOL     OW58791  12.865   9.797   0.109
18965SOL    HW158792  12.873   9.892   0.106
18965SOL    HW258793  12.945   9.765   0.067
18966SOL     OW58794   9.767   0.342  10.926
18966SOL    HW158795   9.842   0.401  10.934
18966SOL    HW258796   9.791   0.282  10.856
18967SOL     OW58797  10.050   2.265   4.082
18967SOL    HW158798   9.959   2.294   4.078
18967SOL    HW258799  10.062   2.210   4.004
18968SOL     OW58800  14.863  11.678   9.204
18968SOL    HW158801  14.859  11.769   9.233
18968SOL    HW258802   0.053  11.640   9.254
18969SOL     OW58803   3.434  14.267   9.840
18969SOL    HW158804   3.521  14.289   9.873
18969SOL    HW258805   3.404  14.197   9.898
18970SOL     OW58806  10.518  11.176   3.924
18970SOL    HW158807  10.542  11.260   3.961
18970SOL    HW258808  10.601  11.139   3.891
18971SOL     OW58809   6.908   2.380   9.920
18971SOL    HW158810   6.931   2.330   9.842
18971SOL    HW258811   6.987   2.379   9.974
18972SOL     OW58812   8.900  13.100   1.709
18972SOL    HW158813   8.939  13.186   1.689
18972SOL    HW258814   8.956  13.063   1.777
18973SOL     OW58815  10.930  13.126   3.140
18973SOL    HW158816  10.921  13.079   3.057
18973SOL    HW258817  10.906  13.217   3.119
18974SOL     OW58818   6.182   7.555   7.646
18974SOL    HW158819   6.179   7.651   7.651
18974SOL    HW258820   6.233   7.537   7.568
18975SOL     OW58821   3.520  14.874   0.914
18975SOL    HW158822   3.462  14.849   0.986
18975SOL    HW258823   3.606   0.005   0.956
18976SOL     OW58824   7.113   8.149   2.100
18976SOL    HW158825   7.087   8.168   2.010
18976SOL    HW258826   7.036   8.171   2.153
18977SOL     OW58827   3.232   8.617  12.180
18977SOL    HW158828   3.189   8.666  12.250
18977SOL    HW258829   3.266   8.538  12.223
18978SOL     OW58830   8.976   7.866   6.751
18978SOL    HW158831   8.910   7.854   6.682
18978SOL    HW258832   8.931   7.916   6.818
18979SOL     OW58833   3.000   2.835   9.403
18979SOL    HW158834   2.924   2.890   9.424
18979SOL    HW258835   3.071   2.898   9.386
18980SOL     OW58836   1.222  14.704  10.786
18980SOL    HW158837   1.165  14.661  10.850
18980SOL    HW258838   1.289  14.747  10.839
18981SOL     OW58839   2.987  13.579   6.735
18981SOL    HW158840   2.912  13.526   6.708
18981SOL    HW258841   2.963  13.669   6.711
18982SOL     OW58842   2.790  10.039   4.708
18982SOL    HW158843   2.862   9.976   4.710
18982SOL    HW258844   2.810  10.099   4.781
18983SOL     OW58845   1.678   5.467  13.789
18983SOL    HW158846   1.584   5.447  13.788
18983SOL    HW258847   1.700   5.475  13.882
18984SOL     OW58848   6.872   4.715   8.134
18984SOL    HW158849   6.840   4.630   8.163
18984SOL    HW258850   6.847   4.776   8.203
18985SOL     OW58851   0.337  10.620  10.490
18985SOL    HW158852   0.251  10.617  10.532
18985SOL    HW258853   0.341  10.541  10.436
18986SOL     OW58854   4.236   1.920  11.702
18986SOL    HW158855   4.249   1.985  11.770
18986SOL    HW258856   4.296   1.945  11.632
18987SOL     OW58857   9.241   8.138  14.821
18987SOL    HW158858   9.208   8.060  14.865
18987SOL    HW258859   9.319   8.163  14.871
18988SOL     OW58860   1.977  10.045   8.959
18988SOL    HW158861   2.062  10.021   8.924
18988SOL    HW258862   1.993  10.060   9.052
18989SOL     OW58863   1.566  13.119   4.458
18989SOL    HW158864   1.636  13.087   4.402
18989SOL    HW258865   1.608  13.186   4.513
18990SOL     OW58866   2.368   4.349   6.506
18990SOL    HW158867   2.410   4.315   6.427
18990SOL    HW258868   2.404   4.436   6.518
18991SOL     OW58869   6.259   8.829  14.735
18991SOL    HW158870   6.220   8.898  14.681
18991SOL    HW258871   6.252   8.862  14.825
18992SOL     OW58872   7.076   1.346   1.916
18992SOL    HW158873   7.085   1.424   1.863
18992SOL    HW258874   7.037   1.377   1.998
18993SOL     OW58875  13.853   7.077   6.094
18993SOL    HW158876  13.857   7.171   6.073
18993SOL    HW258877  13.857   7.034   6.009
18994SOL     OW58878   6.469   3.597  11.332
18994SOL    HW158879   6.424   3.555  11.406
18994SOL    HW258880   6.400   3.649  11.289
18995SOL     OW58881   2.894   8.098  10.659
18995SOL    HW158882   2.984   8.065  10.663
18995SOL    HW258883   2.885   8.153  10.737
18996SOL     OW58884  12.354  10.724   8.270
18996SOL    HW158885  12.358  10.673   8.189
18996SOL    HW258886  12.425  10.787   8.262
18997SOL     OW58887  12.290  12.405  13.416
18997SOL    HW158888  12.331  12.415  13.501
18997SOL    HW258889  12.337  12.465  13.359
18998SOL     OW58890   9.736  13.772  11.535
18998SOL    HW158891   9.757  13.786  11.628
18998SOL    HW258892   9.775  13.847  11.490
18999SOL     OW58893   1.606   7.321   4.694
18999SOL    HW158894   1.600   7.416   4.700
18999SOL    HW258895   1.586   7.290   4.782
19000SOL     OW58896   7.258  13.620   6.577
19000SOL    HW158897   7.284  13.674   6.651
19000SOL    HW258898   7.163  13.612   6.586
19001SOL     OW58899   2.813   4.517  10.877
19001SOL    HW158900   2.834   4.574  10.952
19001SOL    HW258901   2.717   4.516  10.874
19002SOL     OW58902  14.368   9.769   3.257
19002SOL    HW158903  14.418   9.792   3.336
19002SOL    HW258904  14.282   9.743   3.290
19003SOL     OW58905   3.297  14.356   2.184
19003SOL    HW158906   3.346  14.375   2.104
19003SOL    HW258907   3.205  14.366   2.158
19004SOL     OW58908   4.507  13.936   1.111
19004SOL    HW158909   4.502  14.016   1.163
19004SOL    HW258910   4.417  13.901   1.113
19005SOL     OW58911  13.996   9.337   8.113
19005SOL    HW158912  14.090   9.323   8.105
19005SOL    HW258913  13.987   9.421   8.158
19006SOL     OW58914  13.929   5.006  12.128
19006SOL    HW158915  13.846   4.959  12.136
19006SOL    HW258916  13.966   4.976  12.044
19007SOL     OW58917   6.683  13.431  12.606
19007SOL    HW158918   6.620  13.463  12.542
19007SOL    HW258919   6.766  13.427  12.560
19008SOL     OW58920   5.994   9.381   7.902
19008SOL    HW158921   5.911   9.357   7.945
19008SOL    HW258922   5.971   9.391   7.810
19009SOL     OW58923   0.747  10.844   5.107
19009SOL    HW158924   0.820  10.901   5.131
19009SOL    HW258925   0.680  10.904   5.075
19010SOL     OW58926   8.749   4.950   1.471
19010SOL    HW158927   8.837   4.982   1.487
19010SOL    HW258928   8.698   5.029   1.451
19011SOL     OW58929  13.472   5.526  11.762
19011SOL    HW158930  13.540   5.511  11.697
19011SOL    HW258931  13.410   5.454  11.750
19012SOL     OW58932   2.654   7.724   9.546
19012SOL    HW158933   2.709   7.696   9.620
19012SOL    HW258934   2.702   7.798   9.507
19013SOL     OW58935   5.907   8.579   2.561
19013SOL    HW158936   5.899   8.517   2.634
19013SOL    HW258937   5.841   8.551   2.498
19014SOL     OW58938   0.567  14.212  10.428
19014SOL    HW158939   0.603  14.243  10.345
19014SOL    HW258940   0.488  14.163  10.404
19015SOL     OW58941  13.812   5.002   2.639
19015SOL    HW158942  13.859   5.017   2.721
19015SOL    HW258943  13.834   4.912   2.614
19016SOL     OW58944  10.454   8.957   5.297
19016SOL    HW158945  10.517   8.920   5.235
19016SOL    HW258946  10.440   8.888   5.362
19017SOL     OW58947   6.569   3.281   6.845
19017SOL    HW158948   6.545   3.238   6.763
19017SOL    HW258949   6.488   3.282   6.896
19018SOL     OW58950   4.227   0.343   1.855
19018SOL    HW158951   4.231   0.301   1.941
19018SOL    HW258952   4.172   0.420   1.868
19019SOL     OW58953   1.196   7.457  12.158
19019SOL    HW158954   1.215   7.517  12.230
19019SOL    HW258955   1.206   7.370  12.196
19020SOL     OW58956   0.342   7.131   3.472
19020SOL    HW158957   0.271   7.078   3.436
19020SOL    HW258958   0.318   7.146   3.563
19021SOL     OW58959   6.956   9.872  10.911
19021SOL    HW158960   7.008   9.801  10.873
19021SOL    HW258961   6.930   9.839  10.997
19022SOL     OW58962   8.010   0.329   0.451
19022SOL    HW158963   7.926   0.288   0.472
19022SOL    HW258964   8.037   0.290   0.368
19023SOL     OW58965   2.161   7.998   6.669
19023SOL    HW158966   2.095   8.015   6.601
19023SOL    HW258967   2.175   8.084   6.710
19024SOL     OW58968   1.371   0.594  14.337
19024SOL    HW158969   1.309   0.666  14.334
19024SOL    HW258970   1.319   0.519  14.367
19025SOL     OW58971  12.290   2.721  12.482
19025SOL    HW158972  12.319   2.783  12.415
19025SOL    HW258973  12.356   2.652  12.480
19026SOL     OW58974  11.171  12.462   8.966
19026SOL    HW158975  11.256  12.504   8.982
19026SOL    HW258976  11.158  12.471   8.872
19027SOL     OW58977   3.469   4.514   9.436
19027SOL    HW158978   3.374   4.498   9.434
19027SOL    HW258979   3.486   4.547   9.524
19028SOL     OW58980  11.509  12.812   0.149
19028SOL    HW158981  11.527  12.777   0.236
19028SOL    HW258982  11.569  12.765   0.091
19029SOL     OW58983   0.835   5.441   8.485
19029SOL    HW158984   0.750   5.486   8.487
19029SOL    HW258985   0.843   5.408   8.396
19030SOL     OW58986   1.373   1.136   5.113
19030SOL    HW158987   1.287   1.174   5.097
19030SOL    HW258988   1.357   1.063   5.172
19031SOL     OW58989   0.509  10.405   3.612
19031SOL    HW158990   0.522  10.436   3.522
19031SOL    HW258991   0.523  10.311   3.607
19032SOL     OW58992   6.583  11.583  14.775
19032SOL    HW158993   6.662  11.541  14.740
19032SOL    HW258994   6.523  11.588  14.701
19033SOL     OW58995   5.718   5.636   6.984
19033SOL    HW158996   5.638   5.584   6.996
19033SOL    HW258997   5.745   5.658   7.073
19034SOL     OW58998   1.769   4.907  10.126
19034SOL    HW158999   1.811   4.990  10.104
19034SOL    HW259000   1.676   4.926  10.125
19035SOL     OW59001   0.677   8.053  14.684
19035SOL    HW159002   0.699   8.095  14.767
19035SOL    HW259003   0.677   7.960  14.703
19036SOL     OW59004   2.601  12.097  14.309
19036SOL    HW159005   2.537  12.069  14.244
19036SOL    HW259006   2.677  12.040  14.295
19037SOL     OW59007   3.362  12.242   5.060
19037SOL    HW159008   3.439  12.289   5.027
19037SOL    HW259009   3.364  12.158   5.015
19038SOL     OW59010  14.378  12.586   3.134
19038SOL    HW159011  14.464  12.549   3.113
19038SOL    HW259012  14.353  12.541   3.215
19039SOL     OW59013  11.607   9.333   9.972
19039SOL    HW159014  11.679   9.395   9.978
19039SOL    HW259015  11.617   9.278  10.050
19040SOL     OW59016   8.501  10.503   4.566
19040SOL    HW159017   8.526  10.430   4.622
19040SOL    HW259018   8.498  10.579   4.624
19041SOL     OW59019  13.155  12.879   1.098
19041SOL    HW159020  13.136  12.968   1.128
19041SOL    HW259021  13.193  12.836   1.175
19042SOL     OW59022   0.173   4.499   1.504
19042SOL    HW159023   0.221   4.476   1.584
19042SOL    HW259024   0.183   4.593   1.496
19043SOL     OW59025   6.927   8.191   9.043
19043SOL    HW159026   6.973   8.140   9.110
19043SOL    HW259027   6.969   8.277   9.046
19044SOL     OW59028   2.123   4.243   8.963
19044SOL    HW159029   2.071   4.288   9.029
19044SOL    HW259030   2.152   4.162   9.005
19045SOL     OW59031   3.388   8.001   9.299
19045SOL    HW159032   3.459   7.946   9.333
19045SOL    HW259033   3.317   7.991   9.363
19046SOL     OW59034   0.837   0.490   5.118
19046SOL    HW159035   0.861   0.416   5.063
19046SOL    HW259036   0.877   0.470   5.203
19047SOL     OW59037  13.879  11.922   8.057
19047SOL    HW159038  13.900  11.943   7.965
19047SOL    HW259039  13.960  11.940   8.104
19048SOL     OW59040   2.071   3.530  11.040
19048SOL    HW159041   2.016   3.521  10.963
19048SOL    HW259042   2.057   3.620  11.070
19049SOL     OW59043   9.763  11.719  11.860
19049SOL    HW159044   9.710  11.797  11.879
19049SOL    HW259045   9.849  11.738  11.898
19050SOL     OW59046   3.944   9.096  14.428
19050SOL    HW159047   3.986   9.029  14.374
19050SOL    HW259048   3.933   9.054  14.514
19051SOL     OW59049   9.761   1.579   0.424
19051SOL    HW159050   9.739   1.646   0.359
19051SOL    HW259051   9.679   1.532   0.438
19052SOL     OW59052   1.301   9.269   9.229
19052SOL    HW159053   1.257   9.190   9.197
19052SOL    HW259054   1.376   9.280   9.171
19053SOL     OW59055   8.299  11.360   3.147
19053SOL    HW159056   8.208  11.335   3.167
19053SOL    HW259057   8.294  11.452   3.124
19054SOL     OW59058   2.340   9.760  14.869
19054SOL    HW159059   2.255   9.755   0.030
19054SOL    HW259060   2.326   9.723  14.782
19055SOL     OW59061   2.778   5.145   9.277
19055SOL    HW159062   2.696   5.098   9.291
19055SOL    HW259063   2.758   5.236   9.300
19056SOL     OW59064   3.009   5.873  11.187
19056SOL    HW159065   3.004   5.967  11.166
19056SOL    HW259066   2.964   5.865  11.271
19057SOL     OW59067   7.762   3.652   2.939
19057SOL    HW159068   7.803   3.708   3.005
19057SOL    HW259069   7.695   3.708   2.899
19058SOL     OW59070  14.013  12.969   0.863
19058SOL    HW159071  14.032  12.939   0.953
19058SOL    HW259072  14.052  12.901   0.807
19059SOL     OW59073   7.621  14.001   4.060
19059SOL    HW159074   7.691  13.968   4.004
19059SOL    HW259075   7.540  13.971   4.017
19060SOL     OW59076   2.554   0.501   4.490
19060SOL    HW159077   2.611   0.425   4.477
19060SOL    HW259078   2.604   0.574   4.455
19061SOL     OW59079   3.526   1.010   6.245
19061SOL    HW159080   3.554   0.967   6.164
19061SOL    HW259081   3.489   1.093   6.217
19062SOL     OW59082   5.637   4.467  13.160
19062SOL    HW159083   5.681   4.400  13.107
19062SOL    HW259084   5.685   4.466  13.243
19063SOL     OW59085   1.293   9.896   7.811
19063SOL    HW159086   1.304   9.823   7.872
19063SOL    HW259087   1.373   9.948   7.822
19064SOL     OW59088   3.172   4.753   0.534
19064SOL    HW159089   3.156   4.792   0.448
19064SOL    HW259090   3.267   4.743   0.539
19065SOL     OW59091  11.672   7.116  13.456
19065SOL    HW159092  11.724   7.189  13.489
19065SOL    HW259093  11.660   7.135  13.363
19066SOL     OW59094  10.081   2.432   4.330
19066SOL    HW159095  10.070   2.414   4.237
19066SOL    HW259096  10.028   2.365   4.373
19067SOL     OW59097   3.581   8.815   9.371
19067SOL    HW159098   3.672   8.841   9.362
19067SOL    HW259099   3.553   8.796   9.281
19068SOL     OW59100  13.648  13.175   3.236
19068SOL    HW159101  13.639  13.251   3.292
19068SOL    HW259102  13.562  13.166   3.194
19069SOL     OW59103  10.350   7.418   5.912
19069SOL    HW159104  10.283   7.461   5.859
19069SOL    HW259105  10.390   7.489   5.962
19070SOL     OW59106   3.035   0.261  10.776
19070SOL    HW159107   2.994   0.174  10.771
19070SOL    HW259108   3.004   0.306  10.698
19071SOL     OW59109   8.948  10.175   8.871
19071SOL    HW159110   8.860  10.152   8.843
19071SOL    HW259111   9.006  10.128   8.812
19072SOL     OW59112  14.309  13.862   4.227
19072SOL    HW159113  14.319  13.941   4.174
19072SOL    HW259114  14.389  13.812   4.211
19073SOL     OW59115   7.588   8.168  10.779
19073SOL    HW159116   7.503   8.134  10.808
19073SOL    HW259117   7.569   8.256  10.748
19074SOL     OW59118   8.648  13.288   6.230
19074SOL    HW159119   8.657  13.365   6.286
19074SOL    HW259120   8.644  13.215   6.291
19075SOL     OW59121  11.330   7.188   7.505
19075SOL    HW159122  11.280   7.250   7.556
19075SOL    HW259123  11.269   7.116   7.486
19076SOL     OW59124   0.836  13.996   8.868
19076SOL    HW159125   0.744  14.021   8.879
19076SOL    HW259126   0.833  13.913   8.821
19077SOL     OW59127  10.896   5.517  11.865
19077SOL    HW159128  10.810   5.520  11.824
19077SOL    HW259129  10.883   5.551  11.953
19078SOL     OW59130   0.517  14.871   0.490
19078SOL    HW159131   0.605   0.006   0.524
19078SOL    HW259132   0.532  14.826   0.406
19079SOL     OW59133   0.676   8.129   8.689
19079SOL    HW159134   0.684   8.048   8.639
19079SOL    HW259135   0.739   8.189   8.648
19080SOL     OW59136   3.096  12.619  10.135
19080SOL    HW159137   3.130  12.566  10.064
19080SOL    HW259138   3.032  12.677  10.094
19081SOL     OW59139  10.401   3.089  13.478
19081SOL    HW159140  10.346   3.026  13.526
19081SOL    HW259141  10.466   3.034  13.434
19082SOL     OW59142   0.672   1.765   3.840
19082SOL    HW159143   0.635   1.691   3.887
19082SOL    HW259144   0.723   1.813   3.905
19083SOL     OW59145  13.577   1.363   3.782
19083SOL    HW159146  13.491   1.405   3.785
19083SOL    HW259147  13.561   1.280   3.736
19084SOL     OW59148   7.971   9.770   2.159
19084SOL    HW159149   8.062   9.745   2.169
19084SOL    HW259150   7.932   9.758   2.246
19085SOL     OW59151   7.269  12.298   3.143
19085SOL    HW159152   7.180  12.265   3.130
19085SOL    HW259153   7.311  12.290   3.058
19086SOL     OW59154   4.062   4.708  14.759
19086SOL    HW159155   4.044   4.771  14.829
19086SOL    HW259156   4.023   4.748  14.681
19087SOL     OW59157   0.342   8.998   2.511
19087SOL    HW159158   0.286   8.989   2.588
19087SOL    HW259159   0.307   8.935   2.448
19088SOL     OW59160   3.256   8.534  12.630
19088SOL    HW159161   3.219   8.603  12.574
19088SOL    HW259162   3.349   8.555  12.634
19089SOL     OW59163   6.585   0.092   7.320
19089SOL    HW159164   6.662   0.067   7.372
19089SOL    HW259165   6.560   0.178   7.355
19090SOL     OW59166  14.130   8.762   5.743
19090SOL    HW159167  14.041   8.734   5.720
19090SOL    HW259168  14.120   8.806   5.827
19091SOL     OW59169   3.612  14.200  10.438
19091SOL    HW159170   3.588  14.193  10.530
19091SOL    HW259171   3.553  14.138  10.394
19092SOL     OW59172  10.065  11.417  12.642
19092SOL    HW159173  10.115  11.394  12.564
19092SOL    HW259174  10.004  11.485  12.613
19093SOL     OW59175   2.225  11.753   4.440
19093SOL    HW159176   2.202  11.837   4.478
19093SOL    HW259177   2.309  11.730   4.481
19094SOL     OW59178   6.904  12.456  10.913
19094SOL    HW159179   6.984  12.461  10.965
19094SOL    HW259180   6.898  12.540  10.869
19095SOL     OW59181  12.711   2.299   7.267
19095SOL    HW159182  12.728   2.333   7.179
19095SOL    HW259183  12.729   2.205   7.261
19096SOL     OW59184   7.212   7.717   9.303
19096SOL    HW159185   7.279   7.649   9.299
19096SOL    HW259186   7.179   7.712   9.393
19097SOL     OW59187  14.688  12.989   0.177
19097SOL    HW159188  14.701  13.083   0.192
19097SOL    HW259189  14.693  12.950   0.264
19098SOL     OW59190   6.789  13.030   8.132
19098SOL    HW159191   6.733  12.959   8.102
19098SOL    HW259192   6.834  12.994   8.209
19099SOL     OW59193   0.670   0.960  14.305
19099SOL    HW159194   0.691   0.873  14.269
19099SOL    HW259195   0.711   1.021  14.243
19100SOL     OW59196   1.686   2.064   3.563
19100SOL    HW159197   1.735   1.982   3.556
19100SOL    HW259198   1.654   2.066   3.653
19101SOL     OW59199  13.590  10.954   5.523
19101SOL    HW159200  13.560  10.870   5.555
19101SOL    HW259201  13.672  10.970   5.570
19102SOL     OW59202  10.208   0.436   4.369
19102SOL    HW159203  10.173   0.419   4.282
19102SOL    HW259204  10.258   0.517   4.359
19103SOL     OW59205   4.518   7.631  10.235
19103SOL    HW159206   4.532   7.721  10.206
19103SOL    HW259207   4.569   7.578  10.173
19104SOL     OW59208   5.257  13.157  11.476
19104SOL    HW159209   5.323  13.139  11.543
19104SOL    HW259210   5.306  13.196  11.404
19105SOL     OW59211   3.688   2.384   3.153
19105SOL    HW159212   3.603   2.427   3.141
19105SOL    HW259213   3.751   2.446   3.118
19106SOL     OW59214  13.877   2.298   9.919
19106SOL    HW159215  13.795   2.306   9.968
19106SOL    HW259216  13.886   2.204   9.901
19107SOL     OW59217   5.225   8.604  12.784
19107SOL    HW159218   5.271   8.625  12.865
19107SOL    HW259219   5.145   8.560  12.813
19108SOL     OW59220   6.140  14.113   5.492
19108SOL    HW159221   6.058  14.064   5.502
19108SOL    HW259222   6.134  14.153   5.406
19109SOL     OW59223   7.004   0.316   5.252
19109SOL    HW159224   7.098   0.337   5.248
19109SOL    HW259225   6.985   0.311   5.345
19110SOL     OW59226   1.570   3.120   6.637
19110SOL    HW159227   1.608   3.037   6.608
19110SOL    HW259228   1.643   3.169   6.673
19111SOL     OW59229   9.569   4.196   8.154
19111SOL    HW159230   9.644   4.195   8.096
19111SOL    HW259231   9.530   4.109   8.145
19112SOL     OW59232   3.257  11.415   6.666
19112SOL    HW159233   3.271  11.399   6.572
19112SOL    HW259234   3.305  11.345   6.710
19113SOL     OW59235   0.316   5.470  12.359
19113SOL    HW159236   0.360   5.445  12.440
19113SOL    HW259237   0.274   5.554  12.380
19114SOL     OW59238   1.372   2.974   4.567
19114SOL    HW159239   1.353   2.901   4.508
19114SOL    HW259240   1.343   2.944   4.653
19115SOL     OW59241  11.445   1.005   0.968
19115SOL    HW159242  11.438   0.909   0.974
19115SOL    HW259243  11.453   1.034   1.059
19116SOL     OW59244   9.724  11.608   4.432
19116SOL    HW159245   9.725  11.668   4.357
19116SOL    HW259246   9.809  11.564   4.427
19117SOL     OW59247   3.164   4.090   4.136
19117SOL    HW159248   3.198   4.034   4.066
19117SOL    HW259249   3.210   4.059   4.215
19118SOL     OW59250  10.655   6.280   9.037
19118SOL    HW159251  10.712   6.203   9.028
19118SOL    HW259252  10.715   6.353   9.051
19119SOL     OW59253  13.826   0.595   0.154
19119SOL    HW159254  13.811   0.501   0.146
19119SOL    HW259255  13.834   0.627   0.064
19120SOL     OW59256   3.899   0.345   4.669
19120SOL    HW159257   3.804   0.352   4.672
19120SOL    HW259258   3.917   0.254   4.694
19121SOL     OW59259   2.051   7.842   6.095
19121SOL    HW159260   2.012   7.862   6.180
19121SOL    HW259261   2.068   7.928   6.056
19122SOL     OW59262  10.027  13.838   1.540
19122SOL    HW159263  10.101  13.894   1.564
19122SOL    HW259264   9.966  13.897   1.495
19123SOL     OW59265   9.394   9.871  12.587
19123SOL    HW159266   9.316   9.916  12.555
19123SOL    HW259267   9.380   9.864  12.681
19124SOL     OW59268   6.511   1.366   6.787
19124SOL    HW159269   6.604   1.385   6.801
19124SOL    HW259270   6.505   1.342   6.695
19125SOL     OW59271   2.970  11.544   8.498
19125SOL    HW159272   2.955  11.638   8.511
19125SOL    HW259273   3.062  11.538   8.473
19126SOL     OW59274   1.033   7.600  13.094
19126SOL    HW159275   1.119   7.641  13.109
19126SOL    HW259276   0.973   7.674  13.083
19127SOL     OW59277  12.940  10.629  13.518
19127SOL    HW159278  12.863  10.582  13.486
19127SOL    HW259279  12.934  10.624  13.613
19128SOL     OW59280   9.762   8.435   6.278
19128SOL    HW159281   9.770   8.529   6.292
19128SOL    HW259282   9.821   8.416   6.205
19129SOL     OW59283  13.945  13.201   5.313
19129SOL    HW159284  14.037  13.183   5.334
19129SOL    HW259285  13.899  13.189   5.395
19130SOL     OW59286  11.966  12.563  14.489
19130SOL    HW159287  12.002  12.557  14.577
19130SOL    HW259288  11.935  12.474  14.470
19131SOL     OW59289   4.794   9.079   5.139
19131SOL    HW159290   4.869   9.025   5.164
19131SOL    HW259291   4.819   9.120   5.056
19132SOL     OW59292   1.353   9.850   1.113
19132SOL    HW159293   1.273   9.846   1.060
19132SOL    HW259294   1.410   9.783   1.075
19133SOL     OW59295  10.620   3.415   5.081
19133SOL    HW159296  10.570   3.339   5.049
19133SOL    HW259297  10.657   3.454   5.002
19134SOL     OW59298  12.939  13.338   8.476
19134SOL    HW159299  12.985  13.256   8.459
19134SOL    HW259300  12.927  13.339   8.571
19135SOL     OW59301   2.776   4.432   6.303
19135SOL    HW159302   2.786   4.506   6.363
19135SOL    HW259303   2.791   4.469   6.216
19136SOL     OW59304  14.216  11.752   2.724
19136SOL    HW159305  14.241  11.822   2.664
19136SOL    HW259306  14.299  11.712   2.751
19137SOL     OW59307  14.518  11.031  11.562
19137SOL    HW159308  14.550  10.994  11.645
19137SOL    HW259309  14.461  10.964  11.526
19138SOL     OW59310  10.664   7.208   3.787
19138SOL    HW159311  10.694   7.167   3.868
19138SOL    HW259312  10.597   7.148   3.753
19139SOL     OW59313  10.198  13.412  10.087
19139SOL    HW159314  10.217  13.479  10.022
19139SOL    HW259315  10.114  13.437  10.125
19140SOL     OW59316   4.114  10.229  10.706
19140SOL    HW159317   4.060  10.233  10.627
19140SOL    HW259318   4.150  10.317  10.715
19141SOL     OW59319  13.734   1.551   3.245
19141SOL    HW159320  13.657   1.553   3.187
19141SOL    HW259321  13.808   1.569   3.187
19142SOL     OW59322  13.558   8.287   7.587
19142SOL    HW159323  13.581   8.323   7.673
19142SOL    HW259324  13.472   8.247   7.599
19143SOL     OW59325  10.882   5.960   9.896
19143SOL    HW159326  10.838   5.876   9.907
19143SOL    HW259327  10.907   5.962   9.804
19144SOL     OW59328   2.329   2.839   8.289
19144SOL    HW159329   2.346   2.815   8.198
19144SOL    HW259330   2.271   2.915   8.283
19145SOL     OW59331  10.938   9.056  13.668
19145SOL    HW159332  10.928   9.149  13.651
19145SOL    HW259333  11.019   9.049  13.719
19146SOL     OW59334  12.413   7.150   1.669
19146SOL    HW159335  12.405   7.055   1.671
19146SOL    HW259336  12.489   7.169   1.725
19147SOL     OW59337   4.133   6.027   4.454
19147SOL    HW159338   4.071   6.055   4.387
19147SOL    HW259339   4.174   5.948   4.418
19148SOL     OW59340  13.198   1.154  13.556
19148SOL    HW159341  13.247   1.233  13.573
19148SOL    HW259342  13.226   1.092  13.623
19149SOL     OW59343   0.352  13.988  12.541
19149SOL    HW159344   0.309  13.906  12.515
19149SOL    HW259345   0.445  13.973  12.523
19150SOL     OW59346   8.643   3.896   9.157
19150SOL    HW159347   8.599   3.969   9.113
19150SOL    HW259348   8.718   3.876   9.101
19151SOL     OW59349  11.125   7.789  12.477
19151SOL    HW159350  11.032   7.779  12.496
19151SOL    HW259351  11.131   7.788  12.382
19152SOL     OW59352   2.982   1.033  11.714
19152SOL    HW159353   3.065   0.987  11.726
19152SOL    HW259354   2.949   1.046  11.803
19153SOL     OW59355  12.442   1.764   7.259
19153SOL    HW159356  12.503   1.835   7.239
19153SOL    HW259357  12.412   1.783   7.348
19154SOL     OW59358   6.463  10.013  13.294
19154SOL    HW159359   6.510   9.986  13.373
19154SOL    HW259360   6.532  10.044  13.234
19155SOL     OW59361   4.005   7.922   3.847
19155SOL    HW159362   3.963   7.861   3.908
19155SOL    HW259363   3.983   8.008   3.882
19156SOL     OW59364   8.055   7.756   0.009
19156SOL    HW159365   8.045   7.811   0.086
19156SOL    HW259366   8.128   7.698   0.030
19157SOL     OW59367   3.261   5.009  10.460
19157SOL    HW159368   3.204   5.074  10.419
19157SOL    HW259369   3.218   4.925  10.443
19158SOL     OW59370   1.840   8.746   6.662
19158SOL    HW159371   1.786   8.728   6.738
19158SOL    HW259372   1.777   8.762   6.591
19159SOL     OW59373   8.223  11.301   2.772
19159SOL    HW159374   8.219  11.205   2.774
19159SOL    HW259375   8.154  11.330   2.831
19160SOL     OW59376   3.539   3.056   1.447
19160SOL    HW159377   3.547   3.146   1.415
19160SOL    HW259378   3.537   3.002   1.368
19161SOL     OW59379   7.023   4.684   9.707
19161SOL    HW159380   7.029   4.749   9.638
19161SOL    HW259381   7.106   4.690   9.754
19162SOL     OW59382   1.523   4.104   9.086
19162SOL    HW159383   1.541   4.069   8.999
19162SOL    HW259384   1.570   4.047   9.146
19163SOL     OW59385   3.506  12.046  11.333
19163SOL    HW159386   3.442  12.083  11.272
19163SOL    HW259387   3.485  12.086  11.417
19164SOL     OW59388   3.793   1.553   8.194
19164SOL    HW159389   3.715   1.501   8.172
19164SOL    HW259390   3.814   1.527   8.283
19165SOL     OW59391   0.024  12.239   4.174
19165SOL    HW159392   0.085  12.308   4.197
19165SOL    HW259393  14.822  12.268   4.209
19166SOL     OW59394   8.758   2.334   7.921
19166SOL    HW159395   8.839   2.310   7.876
19166SOL    HW259396   8.778   2.324   8.014
19167SOL     OW59397  13.791  13.875   1.602
19167SOL    HW159398  13.696  13.874   1.608
19167SOL    HW259399  13.821  13.899   1.689
19168SOL     OW59400   1.947   1.457   3.659
19168SOL    HW159401   1.908   1.386   3.608
19168SOL    HW259402   2.020   1.488   3.607
19169SOL     OW59403   2.915   0.869   8.173
19169SOL    HW159404   2.975   0.944   8.180
19169SOL    HW259405   2.957   0.800   8.226
19170SOL     OW59406   0.607   7.234   0.480
19170SOL    HW159407   0.596   7.149   0.523
19170SOL    HW259408   0.649   7.289   0.546
19171SOL     OW59409  14.334   2.696   0.641
19171SOL    HW159410  14.399   2.670   0.707
19171SOL    HW259411  14.260   2.727   0.693
19172SOL     OW59412  14.257  12.610   2.473
19172SOL    HW159413  14.191  12.602   2.542
19172SOL    HW259414  14.237  12.693   2.430
19173SOL     OW59415   7.945   2.739  14.560
19173SOL    HW159416   7.990   2.795  14.624
19173SOL    HW259417   7.971   2.650  14.583
19174SOL     OW59418   6.761   0.515   0.050
19174SOL    HW159419   6.832   0.485  14.875
19174SOL    HW259420   6.696   0.445   0.045
19175SOL     OW59421  13.538  10.220   7.324
19175SOL    HW159422  13.626  10.184   7.333
19175SOL    HW259423  13.483  10.165   7.380
19176SOL     OW59424   4.027   3.939  11.650
19176SOL    HW159425   3.947   3.914  11.697
19176SOL    HW259426   4.050   4.025  11.686
19177SOL     OW59427  12.580  11.060   6.204
19177SOL    HW159428  12.534  11.105   6.134
19177SOL    HW259429  12.544  10.971   6.203
19178SOL     OW59430  10.561   4.127   3.958
19178SOL    HW159431  10.617   4.050   3.959
19178SOL    HW259432  10.525   4.130   3.869
19179SOL     OW59433   4.283   1.854   9.190
19179SOL    HW159434   4.221   1.917   9.153
19179SOL    HW259435   4.229   1.777   9.210
19180SOL     OW59436   2.351   4.728  10.606
19180SOL    HW159437   2.319   4.819  10.612
19180SOL    HW259438   2.294   4.679  10.665
19181SOL     OW59439  10.784   7.882   0.658
19181SOL    HW159440  10.804   7.964   0.613
19181SOL    HW259441  10.751   7.908   0.743
19182SOL     OW59442   7.271   8.789  14.861
19182SOL    HW159443   7.205   8.726  14.832
19182SOL    HW259444   7.269   8.782   0.075
19183SOL     OW59445   6.932  11.467   5.334
19183SOL    HW159446   6.848  11.488   5.374
19183SOL    HW259447   6.923  11.376   5.307
19184SOL     OW59448   4.275  14.754   5.118
19184SOL    HW159449   4.261  14.848   5.114
19184SOL    HW259450   4.205  14.722   5.176
19185SOL     OW59451  10.235   7.238   0.900
19185SOL    HW159452  10.249   7.149   0.869
19185SOL    HW259453  10.262   7.294   0.828
19186SOL     OW59454  11.648  13.230   0.999
19186SOL    HW159455  11.698  13.303   0.962
19186SOL    HW259456  11.599  13.196   0.924
19187SOL     OW59457   8.672   4.189   3.739
19187SOL    HW159458   8.695   4.196   3.831
19187SOL    HW259459   8.747   4.146   3.698
19188SOL     OW59460  12.839   8.592  14.027
19188SOL    HW159461  12.832   8.677  14.069
19188SOL    HW259462  12.775   8.596  13.955
19189SOL     OW59463  13.115  14.266   4.488
19189SOL    HW159464  13.097  14.326   4.560
19189SOL    HW259465  13.156  14.190   4.530
19190SOL     OW59466   5.266  11.752   7.757
19190SOL    HW159467   5.337  11.704   7.799
19190SOL    HW259468   5.304  11.785   7.675
19191SOL     OW59469  13.075   9.974   5.924
19191SOL    HW159470  12.987   9.937   5.929
19191SOL    HW259471  13.127   9.907   5.881
19192SOL     OW59472   5.491   4.343   8.318
19192SOL    HW159473   5.442   4.273   8.276
19192SOL    HW259474   5.425   4.409   8.338
19193SOL     OW59475   2.741   5.154  11.073
19193SOL    HW159476   2.783   5.160  11.159
19193SOL    HW259477   2.722   5.244  11.049
19194SOL     OW59478   8.554   0.686  13.885
19194SOL    HW159479   8.643   0.690  13.919
19194SOL    HW259480   8.513   0.614  13.933
19195SOL     OW59481   1.077  12.123   7.904
19195SOL    HW159482   1.155  12.170   7.873
19195SOL    HW259483   1.112  12.046   7.948
19196SOL     OW59484   1.203   7.183   9.749
19196SOL    HW159485   1.190   7.226   9.834
19196SOL    HW259486   1.276   7.229   9.709
19197SOL     OW59487  14.681  10.644  11.136
19197SOL    HW159488  14.744  10.588  11.183
19197SOL    HW259489  14.726  10.667  11.055
19198SOL     OW59490  13.155   1.699  13.827
19198SOL    HW159491  13.112   1.632  13.880
19198SOL    HW259492  13.091   1.770  13.821
19199SOL     OW59493  12.387  10.682  13.855
19199SOL    HW159494  12.369  10.589  13.870
19199SOL    HW259495  12.375  10.723  13.940
19200SOL     OW59496   6.708   1.232  13.607
19200SOL    HW159497   6.700   1.319  13.570
19200SOL    HW259498   6.727   1.247  13.700
19201SOL     OW59499   7.385   6.173   1.490
19201SOL    HW159500   7.464   6.128   1.521
19201SOL    HW259501   7.416   6.259   1.464
19202SOL     OW59502  12.663   4.335  14.698
19202SOL    HW159503  12.589   4.289  14.738
19202SOL    HW259504  12.662   4.421  14.740
19203SOL     OW59505  10.214   9.431   0.299
19203SOL    HW159506  10.302   9.409   0.269
19203SOL    HW259507  10.170   9.347   0.311
19204SOL     OW59508   7.014  11.976   6.936
19204SOL    HW159509   7.012  11.913   6.864
19204SOL    HW259510   6.990  12.059   6.896
19205SOL     OW59511   3.068   8.032   3.802
19205SOL    HW159512   3.110   7.992   3.879
19205SOL    HW259513   3.138   8.037   3.737
19206SOL     OW59514  12.335   3.896   3.297
19206SOL    HW159515  12.325   3.870   3.205
19206SOL    HW259516  12.289   3.828   3.346
19207SOL     OW59517   0.428   8.144  13.281
19207SOL    HW159518   0.511   8.148  13.328
19207SOL    HW259519   0.383   8.225  13.306
19208SOL     OW59520  11.634  13.356   4.529
19208SOL    HW159521  11.607  13.359   4.437
19208SOL    HW259522  11.574  13.417   4.573
19209SOL     OW59523   9.319   8.503   6.485
19209SOL    HW159524   9.264   8.494   6.408
19209SOL    HW259525   9.343   8.413   6.508
19210SOL     OW59526  13.510  13.849   4.011
19210SOL    HW159527  13.595  13.854   3.968
19210SOL    HW259528  13.472  13.766   3.979
19211SOL     OW59529  13.794   8.819   2.588
19211SOL    HW159530  13.755   8.759   2.524
19211SOL    HW259531  13.832   8.889   2.536
19212SOL     OW59532   8.922  12.102   9.814
19212SOL    HW159533   8.964  12.172   9.766
19212SOL    HW259534   8.840  12.086   9.767
19213SOL     OW59535   9.903  10.821   2.244
19213SOL    HW159536   9.816  10.827   2.283
19213SOL    HW259537   9.894  10.860   2.157
19214SOL     OW59538   3.052   3.392   1.653
19214SOL    HW159539   2.968   3.347   1.662
19214SOL    HW259540   3.087   3.394   1.742
19215SOL     OW59541   6.176   6.173   5.056
19215SOL    HW159542   6.225   6.240   5.104
19215SOL    HW259543   6.142   6.115   5.125
19216SOL     OW59544   5.050   7.881   1.044
19216SOL    HW159545   5.116   7.842   1.100
19216SOL    HW259546   5.100   7.919   0.971
19217SOL     OW59547   8.690   5.774   3.636
19217SOL    HW159548   8.641   5.795   3.557
19217SOL    HW259549   8.630   5.792   3.708
19218SOL     OW59550   5.856   5.428  13.357
19218SOL    HW159551   5.821   5.382  13.281
19218SOL    HW259552   5.901   5.505  13.321
19219SOL     OW59553   7.865   7.246   4.974
19219SOL    HW159554   7.775   7.261   5.002
19219SOL    HW259555   7.915   7.317   5.014
19220SOL     OW59556   2.924  11.645   9.627
19220SOL    HW159557   2.930  11.608   9.539
19220SOL    HW259558   3.005  11.618   9.670
19221SOL     OW59559  13.201   1.674   8.519
19221SOL    HW159560  13.221   1.713   8.434
19221SOL    HW259561  13.116   1.712   8.543
19222SOL     OW59562  14.571   2.618   3.032
19222SOL    HW159563  14.562   2.584   2.942
19222SOL    HW259564  14.629   2.555   3.075
19223SOL     OW59565   6.596   2.664   7.784
19223SOL    HW159566   6.582   2.580   7.829
19223SOL    HW259567   6.628   2.638   7.697
19224SOL     OW59568   6.307  13.680   3.571
19224SOL    HW159569   6.284  13.589   3.589
19224SOL    HW259570   6.234  13.713   3.518
19225SOL     OW59571   6.808  10.683   8.588
19225SOL    HW159572   6.726  10.683   8.637
19225SOL    HW259573   6.786  10.644   8.504
19226SOL     OW59574   8.630   6.514   5.747
19226SOL    HW159575   8.725   6.505   5.747
19226SOL    HW259576   8.607   6.526   5.655
19227SOL     OW59577   0.981  10.621  11.812
19227SOL    HW159578   0.924  10.677  11.864
19227SOL    HW259579   0.975  10.535  11.854
19228SOL     OW59580   1.008  11.573   6.656
19228SOL    HW159581   0.952  11.545   6.728
19228SOL    HW259582   0.968  11.653   6.623
19229SOL     OW59583  12.440   3.143  13.061
19229SOL    HW159584  12.393   3.221  13.031
19229SOL    HW259585  12.533   3.165  13.048
19230SOL     OW59586  11.449   9.730  13.291
19230SOL    HW159587  11.506   9.658  13.319
19230SOL    HW259588  11.472   9.744  13.199
19231SOL     OW59589   7.235   0.916   6.271
19231SOL    HW159590   7.240   0.823   6.248
19231SOL    HW259591   7.217   0.960   6.188
19232SOL     OW59592   4.566   5.310  14.566
19232SOL    HW159593   4.587   5.389  14.516
19232SOL    HW259594   4.503   5.263  14.512
19233SOL     OW59595  14.858   3.079   9.683
19233SOL    HW159596   0.000   3.158   9.636
19233SOL    HW259597  14.806   3.110   9.757
19234SOL     OW59598   8.156  12.065   0.504
19234SOL    HW159599   8.111  11.985   0.529
19234SOL    HW259600   8.148  12.068   0.409
19235SOL     OW59601  10.832   7.282   4.279
19235SOL    HW159602  10.748   7.326   4.264
19235SOL    HW259603  10.833   7.264   4.373
19236SOL     OW59604  10.292   7.417   0.140
19236SOL    HW159605  10.208   7.459   0.158
19236SOL    HW259606  10.321   7.454   0.057
19237SOL     OW59607  11.423   3.077   8.968
19237SOL    HW159608  11.361   3.075   9.040
19237SOL    HW259609  11.509   3.079   9.010
19238SOL     OW59610   0.522   0.614   4.162
19238SOL    HW159611   0.452   0.562   4.202
19238SOL    HW259612   0.533   0.576   4.075
19239SOL     OW59613  12.296   0.689   3.709
19239SOL    HW159614  12.281   0.761   3.769
19239SOL    HW259615  12.339   0.729   3.633
19240SOL     OW59616   4.695  13.421   4.017
19240SOL    HW159617   4.649  13.363   3.956
19240SOL    HW259618   4.757  13.469   3.962
19241SOL     OW59619   1.694   6.177   8.692
19241SOL    HW159620   1.685   6.259   8.742
19241SOL    HW259621   1.638   6.115   8.738
19242SOL     OW59622   6.861   3.992   3.969
19242SOL    HW159623   6.817   4.038   4.041
19242SOL    HW259624   6.789   3.952   3.919
19243SOL     OW59625   4.504   7.117   8.980
19243SOL    HW159626   4.542   7.039   9.020
19243SOL    HW259627   4.576   7.156   8.931
19244SOL     OW59628  14.011   3.097  14.295
19244SOL    HW159629  13.957   3.153  14.238
19244SOL    HW259630  14.040   3.155  14.365
19245SOL     OW59631   9.142  13.529   7.786
19245SOL    HW159632   9.076  13.500   7.849
19245SOL    HW259633   9.131  13.471   7.711
19246SOL     OW59634   4.967  12.978  13.499
19246SOL    HW159635   5.043  13.031  13.473
19246SOL    HW259636   4.998  12.888  13.493
19247SOL     OW59637   7.180   4.853  13.445
19247SOL    HW159638   7.102   4.801  13.426
19247SOL    HW259639   7.149   4.944  13.440
19248SOL     OW59640  10.545   1.604  12.093
19248SOL    HW159641  10.500   1.572  12.171
19248SOL    HW259642  10.522   1.697  12.089
19249SOL     OW59643  10.541   1.861  10.710
19249SOL    HW159644  10.604   1.913  10.662
19249SOL    HW259645  10.580   1.847  10.797
19250SOL     OW59646  13.250   5.416   6.258
19250SOL    HW159647  13.319   5.354   6.233
19250SOL    HW259648  13.252   5.417   6.354
19251SOL     OW59649   8.221   6.570   0.983
19251SOL    HW159650   8.206   6.483   0.945
19251SOL    HW259651   8.309   6.593   0.955
19252SOL     OW59652   2.160   4.740  10.346
19252SOL    HW159653   2.223   4.744  10.418
19252SOL    HW259654   2.134   4.648  10.342
19253SOL     OW59655   0.770   6.883   2.875
19253SOL    HW159656   0.769   6.931   2.958
19253SOL    HW259657   0.806   6.797   2.898
19254SOL     OW59658   2.938  14.629   2.443
19254SOL    HW159659   2.952  14.554   2.385
19254SOL    HW259660   2.844  14.645   2.439
19255SOL     OW59661   0.051  12.200   4.637
19255SOL    HW159662   0.080  12.143   4.709
19255SOL    HW259663   0.056  12.145   4.559
19256SOL     OW59664  13.000   5.125   9.382
19256SOL    HW159665  12.915   5.134   9.339
19256SOL    HW259666  13.043   5.052   9.337
19257SOL     OW59667   6.031  14.569   9.541
19257SOL    HW159668   6.124  14.577   9.523
19257SOL    HW259669   6.018  14.616   9.624
19258SOL     OW59670  14.334   7.884   5.759
19258SOL    HW159671  14.392   7.817   5.796
19258SOL    HW259672  14.342   7.958   5.819
19259SOL     OW59673   2.321  14.134   2.285
19259SOL    HW159674   2.246  14.149   2.342
19259SOL    HW259675   2.348  14.221   2.257
19260SOL     OW59676   2.087   2.464   8.268
19260SOL    HW159677   2.173   2.491   8.301
19260SOL    HW259678   2.029   2.536   8.293
19261SOL     OW59679  10.331   1.653  11.813
19261SOL    HW159680  10.289   1.711  11.748
19261SOL    HW259681  10.272   1.656  11.889
19262SOL     OW59682   9.158   3.414   2.337
19262SOL    HW159683   9.066   3.387   2.344
19262SOL    HW259684   9.155   3.509   2.338
19263SOL     OW59685   0.461   9.116   0.379
19263SOL    HW159686   0.376   9.076   0.399
19263SOL    HW259687   0.456   9.202   0.421
19264SOL     OW59688   5.440   7.832  10.869
19264SOL    HW159689   5.516   7.788  10.906
19264SOL    HW259690   5.461   7.842  10.776
19265SOL     OW59691   3.962   8.800   7.365
19265SOL    HW159692   3.942   8.758   7.448
19265SOL    HW259693   3.930   8.738   7.299
19266SOL     OW59694  13.041   5.880   1.658
19266SOL    HW159695  13.017   5.844   1.572
19266SOL    HW259696  13.046   5.975   1.643
19267SOL     OW59697  11.851   8.121   0.011
19267SOL    HW159698  11.802   8.065   0.071
19267SOL    HW259699  11.846   8.208   0.050
19268SOL     OW59700  13.956   2.700   3.978
19268SOL    HW159701  13.874   2.656   3.996
19268SOL    HW259702  14.021   2.653   4.031
19269SOL     OW59703  12.575  10.572   4.657
19269SOL    HW159704  12.577  10.591   4.563
19269SOL    HW259705  12.487  10.537   4.672
19270SOL     OW59706   0.255   7.158   4.939
19270SOL    HW159707   0.327   7.096   4.925
19270SOL    HW259708   0.191   7.136   4.872
19271SOL     OW59709  13.334   7.153   9.636
19271SOL    HW159710  13.345   7.077   9.693
19271SOL    HW259711  13.407   7.211   9.657
19272SOL     OW59712   0.022   1.186   7.156
19272SOL    HW159713   0.052   1.198   7.066
19272SOL    HW259714   0.100   1.201   7.209
19273SOL     OW59715   7.590   4.779  14.194
19273SOL    HW159716   7.529   4.835  14.145
19273SOL    HW259717   7.639   4.839  14.249
19274SOL     OW59718  13.548   2.227   1.006
19274SOL    HW159719  13.462   2.200   0.973
19274SOL    HW259720  13.552   2.192   1.095
19275SOL     OW59721   1.680   9.393   0.570
19275SOL    HW159722   1.715   9.401   0.659
19275SOL    HW259723   1.587   9.417   0.579
19276SOL     OW59724   3.116   7.419   3.327
19276SOL    HW159725   3.046   7.415   3.392
19276SOL    HW259726   3.169   7.494   3.355
19277SOL     OW59727  12.377  12.716   3.023
19277SOL    HW159728  12.416  12.689   2.939
19277SOL    HW259729  12.283  12.721   3.005
19278SOL     OW59730  11.536   8.441  13.510
19278SOL    HW159731  11.587   8.494  13.572
19278SOL    HW259732  11.597   8.374  13.479
19279SOL     OW59733   2.205   4.257  11.623
19279SOL    HW159734   2.261   4.186  11.652
19279SOL    HW259735   2.242   4.335  11.663
19280SOL     OW59736  14.337   0.833   5.928
19280SOL    HW159737  14.272   0.764   5.923
19280SOL    HW259738  14.414   0.797   5.884
19281SOL     OW59739  14.312   3.854   7.293
19281SOL    HW159740  14.296   3.928   7.351
19281SOL    HW259741  14.229   3.841   7.247
19282SOL     OW59742  10.289  11.366   9.025
19282SOL    HW159743  10.380  11.343   9.041
19282SOL    HW259744  10.239  11.304   9.080
19283SOL     OW59745   2.668  10.885   0.704
19283SOL    HW159746   2.697  10.802   0.667
19283SOL    HW259747   2.633  10.862   0.790
19284SOL     OW59748  10.321   1.748  11.233
19284SOL    HW159749  10.405   1.795  11.239
19284SOL    HW259750  10.345   1.660  11.204
19285SOL     OW59751  14.665  13.760  13.272
19285SOL    HW159752  14.603  13.693  13.299
19285SOL    HW259753  14.622  13.805  13.199
19286SOL     OW59754  12.240  10.113   0.211
19286SOL    HW159755  12.173  10.063   0.165
19286SOL    HW259756  12.270  10.055   0.281
19287SOL     OW59757   5.402   4.055  12.360
19287SOL    HW159758   5.340   4.080  12.291
19287SOL    HW259759   5.474   4.012  12.313
19288SOL     OW59760   1.672   9.432  13.135
19288SOL    HW159761   1.580   9.416  13.116
19288SOL    HW259762   1.672   9.480  13.218
19289SOL     OW59763   0.111  10.274   2.553
19289SOL    HW159764   0.043  10.243   2.612
19289SOL    HW259765   0.192  10.263   2.603
19290SOL     OW59766   2.406   6.885  12.846
19290SOL    HW159767   2.382   6.910  12.756
19290SOL    HW259768   2.494   6.921  12.857
19291SOL     OW59769   1.759   9.886   7.186
19291SOL    HW159770   1.762   9.964   7.130
19291SOL    HW259771   1.666   9.876   7.208
19292SOL     OW59772   3.760  12.862   4.427
19292SOL    HW159773   3.801  12.777   4.443
19292SOL    HW259774   3.799  12.893   4.345
19293SOL     OW59775  11.445   8.561   4.847
19293SOL    HW159776  11.469   8.608   4.926
19293SOL    HW259777  11.432   8.470   4.876
19294SOL     OW59778   5.781  10.300   2.131
19294SOL    HW159779   5.843  10.366   2.161
19294SOL    HW259780   5.834  10.235   2.085
19295SOL     OW59781  13.230   8.672  13.882
19295SOL    HW159782  13.226   8.763  13.909
19295SOL    HW259783  13.245   8.676  13.787
19296SOL     OW59784   5.309   7.875   9.593
19296SOL    HW159785   5.340   7.965   9.595
19296SOL    HW259786   5.228   7.879   9.542
19297SOL     OW59787  13.817  10.221   0.474
19297SOL    HW159788  13.813  10.205   0.380
19297SOL    HW259789  13.910  10.218   0.495
19298SOL     OW59790   5.890   6.051   9.472
19298SOL    HW159791   5.940   5.977   9.438
19298SOL    HW259792   5.933   6.073   9.555
19299SOL     OW59793   1.068  10.939   2.736
19299SOL    HW159794   1.041  10.851   2.763
19299SOL    HW259795   1.010  10.998   2.784
19300SOL     OW59796   1.697   3.540   7.980
19300SOL    HW159797   1.760   3.563   7.912
19300SOL    HW259798   1.708   3.607   8.047
19301SOL     OW59799   1.950  10.290   3.148
19301SOL    HW159800   1.993  10.337   3.220
19301SOL    HW259801   1.888  10.354   3.112
19302SOL     OW59802  10.131   6.293   0.377
19302SOL    HW159803  10.201   6.273   0.315
19302SOL    HW259804  10.052   6.293   0.324
19303SOL     OW59805  14.020   8.322   9.509
19303SOL    HW159806  13.947   8.364   9.464
19303SOL    HW259807  14.033   8.240   9.462
19304SOL     OW59808   7.841  13.843   2.035
19304SOL    HW159809   7.912  13.857   2.098
19304SOL    HW259810   7.823  13.930   2.000
19305SOL     OW59811   3.088  14.186   9.537
19305SOL    HW159812   3.177  14.158   9.516
19305SOL    HW259813   3.085  14.187   9.632
19306SOL     OW59814  11.371   2.508  12.721
19306SOL    HW159815  11.392   2.513  12.814
19306SOL    HW259816  11.416   2.430  12.690
19307SOL     OW59817   5.820   7.550  12.678
19307SOL    HW159818   5.797   7.591  12.594
19307SOL    HW259819   5.849   7.462  12.654
19308SOL     OW59820  11.906   8.365   0.097
19308SOL    HW159821  11.901   8.449   0.052
19308SOL    HW259822  11.999   8.352   0.114
19309SOL     OW59823   8.406   2.021  11.188
19309SOL    HW159824   8.496   2.051  11.179
19309SOL    HW259825   8.412   1.942  11.241
19310SOL     OW59826   8.238  10.982  11.128
19310SOL    HW159827   8.248  11.077  11.129
19310SOL    HW259828   8.211  10.960  11.218
19311SOL     OW59829   1.842  11.243   0.544
19311SOL    HW159830   1.935  11.245   0.519
19311SOL    HW259831   1.831  11.158   0.586
19312SOL     OW59832  12.503   2.739   9.948
19312SOL    HW159833  12.446   2.755   9.873
19312SOL    HW259834  12.446   2.695  10.011
19313SOL     OW59835   9.692   1.410   5.864
19313SOL    HW159836   9.729   1.496   5.882
19313SOL    HW259837   9.743   1.377   5.790
19314SOL     OW59838   6.894  10.355   6.851
19314SOL    HW159839   6.934  10.416   6.790
19314SOL    HW259840   6.831  10.306   6.798
19315SOL     OW59841   1.535  13.521   4.954
19315SOL    HW159842   1.468  13.455   4.939
19315SOL    HW259843   1.548  13.563   4.868
19316SOL     OW59844  11.899   4.080   1.737
19316SOL    HW159845  11.855   4.001   1.708
19316SOL    HW259846  11.984   4.078   1.695
19317SOL     OW59847  10.176  13.978  13.017
19317SOL    HW159848  10.162  13.962  12.924
19317SOL    HW259849  10.264  13.943  13.034
19318SOL     OW59850   3.145  11.824   0.050
19318SOL    HW159851   3.163  11.870  14.849
19318SOL    HW259852   3.112  11.738   0.023
19319SOL     OW59853   3.495   4.044   6.183
19319SOL    HW159854   3.425   4.015   6.123
19319SOL    HW259855   3.496   3.978   6.252
19320SOL     OW59856   3.242  11.196   7.464
19320SOL    HW159857   3.314  11.209   7.525
19320SOL    HW259858   3.231  11.100   7.460
19321SOL     OW59859  13.009   8.701   0.419
19321SOL    HW159860  13.033   8.791   0.395
19321SOL    HW259861  13.089   8.651   0.405
19322SOL     OW59862   8.438   6.092  13.006
19322SOL    HW159863   8.451   6.183  12.982
19322SOL    HW259864   8.488   6.081  13.087
19323SOL     OW59865   5.883   8.878  13.188
19323SOL    HW159866   5.933   8.829  13.123
19323SOL    HW259867   5.853   8.813  13.251
19324SOL     OW59868   7.122  12.526  13.545
19324SOL    HW159869   7.056  12.529  13.475
19324SOL    HW259870   7.120  12.614  13.582
19325SOL     OW59871   7.865  13.439   0.107
19325SOL    HW159872   7.779  13.397   0.103
19325SOL    HW259873   7.922  13.384   0.055
19326SOL     OW59874  13.472  10.709  12.719
19326SOL    HW159875  13.546  10.770  12.724
19326SOL    HW259876  13.508  10.631  12.676
19327SOL     OW59877   1.327  12.674   1.000
19327SOL    HW159878   1.262  12.744   1.004
19327SOL    HW259879   1.350  12.666   0.908
19328SOL     OW59880   7.897   3.040   3.616
19328SOL    HW159881   7.819   3.091   3.639
19328SOL    HW259882   7.949   3.099   3.561
19329SOL     OW59883   3.701   0.352   2.858
19329SOL    HW159884   3.791   0.384   2.851
19329SOL    HW259885   3.659   0.412   2.919
19330SOL     OW59886  12.096  13.609   5.429
19330SOL    HW159887  12.082  13.537   5.368
19330SOL    HW259888  12.104  13.687   5.374
19331SOL     OW59889  11.560  11.892  10.306
19331SOL    HW159890  11.640  11.874  10.258
19331SOL    HW259891  11.519  11.965  10.259
19332SOL     OW59892   2.994   0.426  13.105
19332SOL    HW159893   3.058   0.404  13.172
19332SOL    HW259894   2.952   0.507  13.137
19333SOL     OW59895  13.036  11.431   7.006
19333SOL    HW159896  12.946  11.414   6.978
19333SOL    HW259897  13.087  11.434   6.925
19334SOL     OW59898   4.452   9.344   0.114
19334SOL    HW159899   4.460   9.433   0.080
19334SOL    HW259900   4.538   9.305   0.102
19335SOL     OW59901   9.945   4.675   4.455
19335SOL    HW159902  10.016   4.695   4.516
19335SOL    HW259903   9.915   4.760   4.424
19336SOL     OW59904   0.780   5.406   0.119
19336SOL    HW159905   0.701   5.367   0.158
19336SOL    HW259906   0.848   5.340   0.133
19337SOL     OW59907   3.426   3.058   5.641
19337SOL    HW159908   3.428   3.063   5.737
19337SOL    HW259909   3.506   3.104   5.613
19338SOL     OW59910   1.376  14.234   1.161
19338SOL    HW159911   1.428  14.235   1.242
19338SOL    HW259912   1.392  14.147   1.123
19339SOL     OW59913  13.063   7.305  13.715
19339SOL    HW159914  12.971   7.298  13.690
19339SOL    HW259915  13.109   7.322  13.633
19340SOL     OW59916   6.265   3.533   8.520
19340SOL    HW159917   6.231   3.452   8.482
19340SOL    HW259918   6.206   3.601   8.488
19341SOL     OW59919   7.518   7.184   4.195
19341SOL    HW159920   7.487   7.109   4.246
19341SOL    HW259921   7.494   7.163   4.105
19342SOL     OW59922   4.648   7.708   3.654
19342SOL    HW159923   4.621   7.690   3.564
19342SOL    HW259924   4.688   7.626   3.683
19343SOL     OW59925   9.342   7.642  10.562
19343SOL    HW159926   9.328   7.602  10.476
19343SOL    HW259927   9.410   7.707  10.548
19344SOL     OW59928   4.954   5.796   0.479
19344SOL    HW159929   4.978   5.883   0.449
19344SOL    HW259930   4.987   5.791   0.568
19345SOL     OW59931  11.939   5.419  12.933
19345SOL    HW159932  11.891   5.499  12.954
19345SOL    HW259933  12.031   5.447  12.930
19346SOL     OW59934  10.598   0.244  13.668
19346SOL    HW159935  10.669   0.231  13.606
19346SOL    HW259936  10.641   0.273  13.748
19347SOL     OW59937   4.503  13.598   1.058
19347SOL    HW159938   4.470  13.608   1.147
19347SOL    HW259939   4.559  13.521   1.061
19348SOL     OW59940  11.188  12.967   1.776
19348SOL    HW159941  11.225  12.883   1.750
19348SOL    HW259942  11.100  12.967   1.739
19349SOL     OW59943  13.944   1.491  11.982
19349SOL    HW159944  13.930   1.483  11.888
19349SOL    HW259945  14.027   1.445  11.998
19350SOL     OW59946   5.300  13.476   6.569
19350SOL    HW159947   5.374  13.530   6.541
19350SOL    HW259948   5.278  13.423   6.493
19351SOL     OW59949  11.928  12.948   9.149
19351SOL    HW159950  11.844  12.973   9.112
19351SOL    HW259951  11.908  12.873   9.206
19352SOL     OW59952   2.865   2.076  14.525
19352SOL    HW159953   2.770   2.064  14.533
19352SOL    HW259954   2.895   2.091  14.615
19353SOL     OW59955  13.514   1.724   2.017
19353SOL    HW159956  13.518   1.818   2.003
19353SOL    HW259957  13.591   1.689   1.972
19354SOL     OW59958   3.228   7.648  14.142
19354SOL    HW159959   3.187   7.629  14.058
19354SOL    HW259960   3.313   7.603  14.137
19355SOL     OW59961   3.643  11.031  10.885
19355SOL    HW159962   3.561  10.982  10.889
19355SOL    HW259963   3.617  11.120  10.861
19356SOL     OW59964   5.522   9.178   2.260
19356SOL    HW159965   5.477   9.108   2.212
19356SOL    HW259966   5.452   9.231   2.297
19357SOL     OW59967  13.258   1.039   2.050
19357SOL    HW159968  13.257   1.046   2.145
19357SOL    HW259969  13.253   0.945   2.033
19358SOL     OW59970   7.608   8.768  11.688
19358SOL    HW159971   7.574   8.779  11.777
19358SOL    HW259972   7.624   8.857  11.657
19359SOL     OW59973  10.963   0.642   9.573
19359SOL    HW159974  10.952   0.621   9.665
19359SOL    HW259975  10.976   0.557   9.530
19360SOL     OW59976  13.887  11.182   9.964
19360SOL    HW159977  13.960  11.142   9.916
19360SOL    HW259978  13.809  11.148   9.921
19361SOL     OW59979   4.587   9.275   9.523
19361SOL    HW159980   4.587   9.362   9.563
19361SOL    HW259981   4.509   9.232   9.560
19362SOL     OW59982  12.261   0.221   7.248
19362SOL    HW159983  12.284   0.219   7.155
19362SOL    HW259984  12.294   0.138   7.283
19363SOL     OW59985   6.584   8.503  13.087
19363SOL    HW159986   6.643   8.575  13.062
19363SOL    HW259987   6.597   8.436  13.020
19364SOL     OW59988   4.712   8.394  12.975
19364SOL    HW159989   4.737   8.404  12.883
19364SOL    HW259990   4.711   8.300  12.990
19365SOL     OW59991   8.138  10.930  10.760
19365SOL    HW159992   8.230  10.932  10.787
19365SOL    HW259993   8.089  10.950  10.840
19366SOL     OW59994   8.745  12.964  10.076
19366SOL    HW159995   8.731  12.899  10.007
19366SOL    HW259996   8.836  12.949  10.105
19367SOL     OW59997   5.812   4.522  10.032
19367SOL    HW159998   5.813   4.611   9.996
19367SOL    HW259999   5.724   4.512  10.068
19368SOL     OW60000  12.368   6.613  12.248
19368SOL    HW160001  12.425   6.548  12.207
19368SOL    HW260002  12.387   6.605  12.342
19369SOL     OW60003   3.643   7.945   5.626
19369SOL    HW160004   3.623   8.017   5.566
19369SOL    HW260005   3.704   7.890   5.577
19370SOL     OW60006   2.825   5.139  11.580
19370SOL    HW160007   2.912   5.150  11.618
19370SOL    HW260008   2.773   5.209  11.620
19371SOL     OW60009   5.901   5.344  11.666
19371SOL    HW160010   5.870   5.407  11.601
19371SOL    HW260011   5.904   5.394  11.748
19372SOL     OW60012  13.340  10.418   7.611
19372SOL    HW160013  13.275  10.409   7.541
19372SOL    HW260014  13.343  10.332   7.653
19373SOL     OW60015  13.553   3.283   9.279
19373SOL    HW160016  13.618   3.262   9.346
19373SOL    HW260017  13.590   3.356   9.231
19374SOL     OW60018  12.799   1.621   3.588
19374SOL    HW160019  12.855   1.557   3.545
19374SOL    HW260020  12.748   1.659   3.517
19375SOL     OW60021   3.701   4.747  12.750
19375SOL    HW160022   3.610   4.777  12.750
19375SOL    HW260023   3.723   4.737  12.843
19376SOL     OW60024  12.433   1.983  14.832
19376SOL    HW160025  12.344   1.995  14.797
19376SOL    HW260026  12.484   2.051  14.789
19377SOL     OW60027   0.187   5.761   2.835
19377SOL    HW160028   0.110   5.760   2.892
19377SOL    HW260029   0.256   5.721   2.888
19378SOL     OW60030   6.069   4.958  11.035
19378SOL    HW160031   6.066   4.897  11.108
19378SOL    HW260032   6.071   4.902  10.957
19379SOL     OW60033  12.875   4.850   3.066
19379SOL    HW160034  12.858   4.788   3.137
19379SOL    HW260035  12.869   4.797   2.986
19380SOL     OW60036   5.701  14.834   7.182
19380SOL    HW160037   5.672  14.758   7.131
19380SOL    HW260038   5.642   0.023   7.154
19381SOL     OW60039   3.146   6.322   7.347
19381SOL    HW160040   3.221   6.374   7.318
19381SOL    HW260041   3.100   6.378   7.408
19382SOL     OW60042   7.276   1.964   8.180
19382SOL    HW160043   7.274   1.899   8.250
19382SOL    HW260044   7.356   2.014   8.196
19383SOL     OW60045  14.433  12.338  13.350
19383SOL    HW160046  14.491  12.262  13.348
19383SOL    HW260047  14.365  12.315  13.413
19384SOL     OW60048   1.172   5.227   6.312
19384SOL    HW160049   1.191   5.205   6.221
19384SOL    HW260050   1.106   5.295   6.307
19385SOL     OW60051  10.841  12.071   1.391
19385SOL    HW160052  10.811  11.997   1.445
19385SOL    HW260053  10.903  12.032   1.329
19386SOL     OW60054   9.574   4.352   8.723
19386SOL    HW160055   9.610   4.290   8.787
19386SOL    HW260056   9.552   4.298   8.647
19387SOL     OW60057   7.344   3.684   4.515
19387SOL    HW160058   7.337   3.761   4.571
19387SOL    HW260059   7.400   3.624   4.564
19388SOL     OW60060   8.840   2.159   8.559
19388SOL    HW160061   8.788   2.083   8.533
19388SOL    HW260062   8.815   2.175   8.650
19389SOL     OW60063   3.461   4.305   3.205
19389SOL    HW160064   3.401   4.302   3.130
19389SOL    HW260065   3.404   4.306   3.282
19390SOL     OW60066   6.793  13.992  10.324
19390SOL    HW160067   6.800  13.930  10.396
19390SOL    HW260068   6.821  14.076  10.361
19391SOL     OW60069   1.518   7.809  14.604
19391SOL    HW160070   1.605   7.776  14.581
19391SOL    HW260071   1.464   7.791  14.527
19392SOL     OW60072   7.831   5.862   2.852
19392SOL    HW160073   7.858   5.807   2.926
19392SOL    HW260074   7.857   5.812   2.775
19393SOL     OW60075   4.133   1.026  12.718
19393SOL    HW160076   4.150   0.933  12.732
19393SOL    HW260077   4.198   1.070  12.773
19394SOL     OW60078  12.864  14.614   3.125
19394SOL    HW160079  12.875  14.638   3.033
19394SOL    HW260080  12.931  14.665   3.171
19395SOL     OW60081  11.662   4.098  10.927
19395SOL    HW160082  11.709   4.031  10.976
19395SOL    HW260083  11.668   4.177  10.981
19396SOL     OW60084   0.019   7.737   0.546
19396SOL    HW160085  14.831   7.791   0.510
19396SOL    HW260086  14.870   7.647   0.534
19397SOL     OW60087  13.479   2.139   8.033
19397SOL    HW160088  13.456   2.224   8.070
19397SOL    HW260089  13.396   2.091   8.032
19398SOL     OW60090   8.883  11.350   3.673
19398SOL    HW160091   8.922  11.295   3.605
19398SOL    HW260092   8.934  11.331   3.751
19399SOL     OW60093   7.955   5.606   7.261
19399SOL    HW160094   7.902   5.552   7.319
19399SOL    HW260095   8.038   5.558   7.254
19400SOL     OW60096   8.737   5.526   1.347
19400SOL    HW160097   8.757   5.541   1.255
19400SOL    HW260098   8.822   5.515   1.389
19401SOL     OW60099   0.628   1.608  12.443
19401SOL    HW160100   0.660   1.540  12.502
19401SOL    HW260101   0.693   1.678  12.451
19402SOL     OW60102   7.703   1.575   5.700
19402SOL    HW160103   7.748   1.642   5.751
19402SOL    HW260104   7.637   1.539   5.759
19403SOL     OW60105   6.783   6.802   5.465
19403SOL    HW160106   6.851   6.868   5.480
19403SOL    HW260107   6.822   6.741   5.403
19404SOL     OW60108   9.550   1.772   4.203
19404SOL    HW160109   9.531   1.691   4.156
19404SOL    HW260110   9.483   1.834   4.173
19405SOL     OW60111  12.229   9.468   9.552
19405SOL    HW160112  12.153   9.494   9.500
19405SOL    HW260113  12.201   9.389   9.598
19406SOL     OW60114   7.995  12.620   6.157
19406SOL    HW160115   8.026  12.537   6.193
19406SOL    HW260116   7.961  12.598   6.070
19407SOL     OW60117   3.965  13.756   5.444
19407SOL    HW160118   3.926  13.677   5.482
19407SOL    HW260119   3.965  13.820   5.515
19408SOL     OW60120  11.268  13.918   5.964
19408SOL    HW160121  11.256  13.835   6.012
19408SOL    HW260122  11.350  13.906   5.917
19409SOL     OW60123   3.080  12.023   5.842
19409SOL    HW160124   2.991  12.056   5.851
19409SOL    HW260125   3.113  12.021   5.932
19410SOL     OW60126   5.263   0.841   7.971
19410SOL    HW160127   5.184   0.863   7.922
19410SOL    HW260128   5.300   0.766   7.924
19411SOL     OW60129   9.587   0.669  13.732
19411SOL    HW160130   9.555   0.756  13.756
19411SOL    HW260131   9.611   0.628  13.815
19412SOL     OW60132  11.682   6.193  10.427
19412SOL    HW160133  11.769   6.154  10.422
19412SOL    HW260134  11.639   6.147  10.499
19413SOL     OW60135  11.188   5.674   1.073
19413SOL    HW160136  11.239   5.734   1.018
19413SOL    HW260137  11.122   5.730   1.114
19414SOL     OW60138   3.208   6.114   6.547
19414SOL    HW160139   3.287   6.160   6.520
19414SOL    HW260140   3.212   6.114   6.643
19415SOL     OW60141   8.143   1.621   8.799
19415SOL    HW160142   8.079   1.579   8.856
19415SOL    HW260143   8.160   1.557   8.730
19416SOL     OW60144   4.565   5.072  13.988
19416SOL    HW160145   4.628   5.088  13.918
19416SOL    HW260146   4.525   4.988  13.966
19417SOL     OW60147   9.172   0.585  10.367
19417SOL    HW160148   9.133   0.507  10.407
19417SOL    HW260149   9.102   0.649  10.365
19418SOL     OW60150   8.944   4.691  13.395
19418SOL    HW160151   8.992   4.751  13.453
19418SOL    HW260152   8.876   4.653  13.450
19419SOL     OW60153   7.772   4.039  10.889
19419SOL    HW160154   7.787   4.125  10.851
19419SOL    HW260155   7.851   3.989  10.867
19420SOL     OW60156  10.771   7.043   7.233
19420SOL    HW160157  10.798   6.953   7.249
19420SOL    HW260158  10.768   7.082   7.321
19421SOL     OW60159   8.257   1.651   5.456
19421SOL    HW160160   8.347   1.619   5.470
19421SOL    HW260161   8.265   1.746   5.462
19422SOL     OW60162  11.990   7.134   0.730
19422SOL    HW160163  12.006   7.152   0.638
19422SOL    HW260164  11.952   7.046   0.731
19423SOL     OW60165   6.293   0.289  10.226
19423SOL    HW160166   6.295   0.230  10.302
19423SOL    HW260167   6.234   0.246  10.164
19424SOL     OW60168   8.762   0.795  13.716
19424SOL    HW160169   8.804   0.710  13.732
19424SOL    HW260170   8.676   0.787  13.758
19425SOL     OW60171   1.031   3.906   0.667
19425SOL    HW160172   1.005   3.829   0.718
19425SOL    HW260173   1.056   3.972   0.732
19426SOL     OW60174  12.587  14.609   1.661
19426SOL    HW160175  12.548  14.595   1.748
19426SOL    HW260176  12.517  14.589   1.600
19427SOL     OW60177   1.043   6.521  11.245
19427SOL    HW160178   0.995   6.589  11.199
19427SOL    HW260179   1.115   6.498  11.187
19428SOL     OW60180   4.737   6.642  14.214
19428SOL    HW160181   4.794   6.719  14.221
19428SOL    HW260182   4.649   6.678  14.203
19429SOL     OW60183  11.199  12.897   6.683
19429SOL    HW160184  11.217  12.953   6.759
19429SOL    HW260185  11.224  12.809   6.711
19430SOL     OW60186  14.810   6.518   4.898
19430SOL    HW160187  14.807   6.572   4.977
19430SOL    HW260188  14.718   6.494   4.883
19431SOL     OW60189   4.225  11.484   7.186
19431SOL    HW160190   4.280  11.487   7.107
19431SOL    HW260191   4.140  11.452   7.154
19432SOL     OW60192  12.291   9.801   2.445
19432SOL    HW160193  12.375   9.764   2.419
19432SOL    HW260194  12.314   9.868   2.510
19433SOL     OW60195   2.330  11.752   2.913
19433SOL    HW160196   2.356  11.843   2.930
19433SOL    HW260197   2.256  11.737   2.971
19434SOL     OW60198   0.124  13.579   7.260
19434SOL    HW160199   0.207  13.590   7.307
19434SOL    HW260200   0.073  13.521   7.317
19435SOL     OW60201  10.594   2.981   7.510
19435SOL    HW160202  10.687   3.003   7.518
19435SOL    HW260203  10.576   2.925   7.586
19436SOL     OW60204   5.439   6.171  11.347
19436SOL    HW160205   5.446   6.079  11.371
19436SOL    HW260206   5.471   6.218  11.425
19437SOL     OW60207   4.977   3.555  14.482
19437SOL    HW160208   4.926   3.597  14.413
19437SOL    HW260209   4.937   3.469  14.493
19438SOL     OW60210  10.681   4.036  13.501
19438SOL    HW160211  10.656   4.082  13.581
19438SOL    HW260212  10.607   3.979  13.481
19439SOL     OW60213   8.829   6.157  12.060
19439SOL    HW160214   8.763   6.221  12.087
19439SOL    HW260215   8.889   6.207  12.004
19440SOL     OW60216   4.857   5.777   9.191
19440SOL    HW160217   4.838   5.706   9.129
19440SOL    HW260218   4.953   5.777   9.199
19441SOL     OW60219  12.935   1.839   9.721
19441SOL    HW160220  13.016   1.837   9.772
19441SOL    HW260221  12.965   1.847   9.630
19442SOL     OW60222  11.559   3.150   7.631
19442SOL    HW160223  11.583   3.227   7.682
19442SOL    HW260224  11.616   3.152   7.554
19443SOL     OW60225   1.609  13.016   2.275
19443SOL    HW160226   1.703  13.010   2.292
19443SOL    HW260227   1.600  13.001   2.181
19444SOL     OW60228   4.910   1.170   9.837
19444SOL    HW160229   5.003   1.178   9.816
19444SOL    HW260230   4.877   1.260   9.834
19445SOL     OW60231  10.945   0.313   0.130
19445SOL    HW160232  10.992   0.300   0.213
19445SOL    HW260233  10.940   0.408   0.120
19446SOL     OW60234   0.506  12.172  11.185
19446SOL    HW160235   0.536  12.260  11.204
19446SOL    HW260236   0.526  12.122  11.264
19447SOL     OW60237   1.663   3.445  13.301
19447SOL    HW160238   1.650   3.372  13.241
19447SOL    HW260239   1.678   3.403  13.386
19448SOL     OW60240   5.135  11.728   7.111
19448SOL    HW160241   5.214  11.709   7.161
19448SOL    HW260242   5.154  11.810   7.065
19449SOL     OW60243  13.082   5.426   9.335
19449SOL    HW160244  13.119   5.404   9.420
19449SOL    HW260245  13.057   5.342   9.297
19450SOL     OW60246  10.561  12.448   1.794
19450SOL    HW160247  10.560  12.536   1.834
19450SOL    HW260248  10.514  12.394   1.857
19451SOL     OW60249   3.262   0.819  13.247
19451SOL    HW160250   3.342   0.768  13.235
19451SOL    HW260251   3.274   0.863  13.331
19452SOL     OW60252   7.807   6.768   4.691
19452SOL    HW160253   7.787   6.755   4.784
19452SOL    HW260254   7.721   6.782   4.650
19453SOL     OW60255   1.474   8.315   6.550
19453SOL    HW160256   1.451   8.264   6.628
19453SOL    HW260257   1.391   8.355   6.522
19454SOL     OW60258  12.585   1.232   0.487
19454SOL    HW160259  12.642   1.259   0.415
19454SOL    HW260260  12.521   1.173   0.446
19455SOL     OW60261   8.780  12.995   7.819
19455SOL    HW160262   8.780  13.079   7.774
19455SOL    HW260263   8.763  12.930   7.750
19456SOL     OW60264  10.314   4.519  12.442
19456SOL    HW160265  10.233   4.563  12.416
19456SOL    HW260266  10.330   4.455  12.372
19457SOL     OW60267  10.419  13.211   8.443
19457SOL    HW160268  10.439  13.295   8.403
19457SOL    HW260269  10.485  13.151   8.408
19458SOL     OW60270   3.785  14.163  13.907
19458SOL    HW160271   3.809  14.231  13.845
19458SOL    HW260272   3.832  14.187  13.987
19459SOL     OW60273   1.469   0.481   4.613
19459SOL    HW160274   1.480   0.516   4.701
19459SOL    HW260275   1.391   0.526   4.579
19460SOL     OW60276   3.535  10.674   0.009
19460SOL    HW160277   3.506  10.764   0.022
19460SOL    HW260278   3.454  10.623   0.007
19461SOL     OW60279   5.659   3.815  13.803
19461SOL    HW160280   5.565   3.795  13.803
19461SOL    HW260281   5.663   3.910  13.795
19462SOL     OW60282   5.399  10.928  13.767
19462SOL    HW160283   5.451  10.931  13.686
19462SOL    HW260284   5.458  10.890  13.831
19463SOL     OW60285   9.499   6.078  13.886
19463SOL    HW160286   9.474   6.161  13.927
19463SOL    HW260287   9.593   6.086  13.871
19464SOL     OW60288   0.477   7.462  13.920
19464SOL    HW160289   0.431   7.380  13.940
19464SOL    HW260290   0.506   7.495  14.005
19465SOL     OW60291   3.533   9.689   3.343
19465SOL    HW160292   3.627   9.671   3.352
19465SOL    HW260293   3.493   9.602   3.338
19466SOL     OW60294   9.790   9.647  10.534
19466SOL    HW160295   9.737   9.691  10.468
19466SOL    HW260296   9.871   9.698  10.536
19467SOL     OW60297   3.131   1.401   1.078
19467SOL    HW160298   3.222   1.419   1.056
19467SOL    HW260299   3.136   1.347   1.157
19468SOL     OW60300   3.712  14.801  10.540
19468SOL    HW160301   3.772  14.875  10.541
19468SOL    HW260302   3.674  14.802  10.452
19469SOL     OW60303   6.163   4.585   0.154
19469SOL    HW160304   6.073   4.554   0.146
19469SOL    HW260305   6.171   4.612   0.246
19470SOL     OW60306   6.455  14.095  14.048
19470SOL    HW160307   6.461  14.015  14.100
19470SOL    HW260308   6.382  14.080  13.988
19471SOL     OW60309   1.659  10.613   1.473
19471SOL    HW160310   1.570  10.633   1.443
19471SOL    HW260311   1.691  10.695   1.511
19472SOL     OW60312  11.926  10.260  13.454
19472SOL    HW160313  11.875  10.189  13.416
19472SOL    HW260314  11.868  10.336  13.449
19473SOL     OW60315  14.827   9.274  10.725
19473SOL    HW160316  14.736   9.264  10.753
19473SOL    HW260317  14.826   9.350  10.667
19474SOL     OW60318   3.342   4.402   6.216
19474SOL    HW160319   3.316   4.348   6.291
19474SOL    HW260320   3.425   4.363   6.187
19475SOL     OW60321   5.683  14.764   5.760
19475SOL    HW160322   5.687  14.737   5.668
19475SOL    HW260323   5.590  14.758   5.783
19476SOL     OW60324   4.940   2.141  13.889
19476SOL    HW160325   4.987   2.068  13.930
19476SOL    HW260326   4.984   2.219  13.922
19477SOL     OW60327   0.948   2.938   5.867
19477SOL    HW160328   0.925   2.874   5.933
19477SOL    HW260329   1.044   2.941   5.867
19478SOL     OW60330   0.550  14.708   8.194
19478SOL    HW160331   0.580  14.620   8.217
19478SOL    HW260332   0.562  14.713   8.099
19479SOL     OW60333   4.069   7.358  14.242
19479SOL    HW160334   3.994   7.376  14.299
19479SOL    HW260335   4.126   7.434  14.252
19480SOL     OW60336   3.620  13.553   0.438
19480SOL    HW160337   3.615  13.570   0.344
19480SOL    HW260338   3.712  13.533   0.453
19481SOL     OW60339   0.999   8.991  13.319
19481SOL    HW160340   1.064   8.930  13.352
19481SOL    HW260341   0.927   8.936  13.289
19482SOL     OW60342   3.052   8.813  14.267
19482SOL    HW160343   3.113   8.746  14.298
19482SOL    HW260344   3.025   8.783  14.181
19483SOL     OW60345   9.374   1.965   4.099
19483SOL    HW160346   9.323   2.001   4.172
19483SOL    HW260347   9.320   1.979   4.022
19484SOL     OW60348  11.839  13.554  10.218
19484SOL    HW160349  11.827  13.463  10.189
19484SOL    HW260350  11.901  13.591  10.156
19485SOL     OW60351   5.310   6.431   9.177
19485SOL    HW160352   5.355   6.505   9.135
19485SOL    HW260353   5.308   6.363   9.110
19486SOL     OW60354  13.445   6.093  13.912
19486SOL    HW160355  13.435   6.015  13.858
19486SOL    HW260356  13.456   6.059  14.001
19487SOL     OW60357   4.870   1.702  13.906
19487SOL    HW160358   4.953   1.657  13.889
19487SOL    HW260359   4.854   1.752  13.827
19488SOL     OW60360   4.822   8.168  12.151
19488SOL    HW160361   4.801   8.186  12.059
19488SOL    HW260362   4.839   8.254  12.189
19489SOL     OW60363  12.586   9.190  12.831
19489SOL    HW160364  12.603   9.237  12.913
19489SOL    HW260365  12.605   9.254  12.762
19490SOL     OW60366  11.307   2.502  13.761
19490SOL    HW160367  11.212   2.502  13.769
19490SOL    HW260368  11.338   2.551  13.837
19491SOL     OW60369   2.042   4.956   9.977
19491SOL    HW160370   1.953   4.925   9.962
19491SOL    HW260371   2.037   5.051   9.962
19492SOL     OW60372   5.111   0.225   0.032
19492SOL    HW160373   5.045   0.291   0.057
19492SOL    HW260374   5.061   0.161  14.863
19493SOL     OW60375   0.585   8.415   6.981
19493SOL    HW160376   0.509   8.410   6.923
19493SOL    HW260377   0.653   8.365   6.936
19494SOL     OW60378   1.652  10.221  12.913
19494SOL    HW160379   1.597  10.154  12.871
19494SOL    HW260380   1.706  10.172  12.974
19495SOL     OW60381   7.744   2.777   9.170
19495SOL    HW160382   7.795   2.857   9.185
19495SOL    HW260383   7.730   2.741   9.257
19496SOL     OW60384   5.337   7.350   6.874
19496SOL    HW160385   5.426   7.314   6.865
19496SOL    HW260386   5.287   7.280   6.915
19497SOL     OW60387  10.635   0.680  11.847
19497SOL    HW160388  10.598   0.671  11.935
19497SOL    HW260389  10.667   0.592  11.825
19498SOL     OW60390   8.091   3.257   6.600
19498SOL    HW160391   8.060   3.254   6.510
19498SOL    HW260392   8.012   3.245   6.653
19499SOL     OW60393   2.828   1.576   0.015
19499SOL    HW160394   2.857   1.661   0.048
19499SOL    HW260395   2.754   1.596  14.841
19500SOL     OW60396  12.894   6.002   8.589
19500SOL    HW160397  12.969   5.965   8.543
19500SOL    HW260398  12.895   5.959   8.675
19501SOL     OW60399   7.674  12.051   2.472
19501SOL    HW160400   7.649  11.983   2.409
19501SOL    HW260401   7.687  12.130   2.418
19502SOL     OW60402   9.607  10.416   0.004
19502SOL    HW160403   9.604  10.379   0.093
19502SOL    HW260404   9.625  10.341  14.830
19503SOL     OW60405   1.339  12.083   9.287
19503SOL    HW160406   1.246  12.076   9.265
19503SOL    HW260407   1.379  12.007   9.244
19504SOL     OW60408   8.330   0.086  12.385
19504SOL    HW160409   8.413   0.132  12.379
19504SOL    HW260410   8.275   0.126  12.317
19505SOL     OW60411   5.812  10.579  11.454
19505SOL    HW160412   5.892  10.630  11.462
19505SOL    HW260413   5.762  10.600  11.533
19506SOL     OW60414   2.712   1.391   8.431
19506SOL    HW160415   2.684   1.464   8.487
19506SOL    HW260416   2.680   1.313   8.475
19507SOL     OW60417  13.674  11.232   3.310
19507SOL    HW160418  13.682  11.198   3.221
19507SOL    HW260419  13.747  11.294   3.319
19508SOL     OW60420  14.187   8.977   7.401
19508SOL    HW160421  14.146   9.055   7.365
19508SOL    HW260422  14.236   8.939   7.328
19509SOL     OW60423   7.553   4.083   0.546
19509SOL    HW160424   7.540   4.162   0.598
19509SOL    HW260425   7.483   4.087   0.480
19510SOL     OW60426   0.371   0.094  10.007
19510SOL    HW160427   0.354   0.004   9.980
19510SOL    HW260428   0.388   0.141   9.926
19511SOL     OW60429  13.067  12.151   4.172
19511SOL    HW160430  13.060  12.055   4.172
19511SOL    HW260431  13.031  12.178   4.256
19512SOL     OW60432   3.270  11.497   7.475
19512SOL    HW160433   3.344  11.491   7.414
19512SOL    HW260434   3.241  11.407   7.485
19513SOL     OW60435   2.597   8.237   9.810
19513SOL    HW160436   2.660   8.276   9.749
19513SOL    HW260437   2.621   8.145   9.814
19514SOL     OW60438  10.734   7.817   1.432
19514SOL    HW160439  10.677   7.741   1.439
19514SOL    HW260440  10.820   7.786   1.460
19515SOL     OW60441   9.872  13.741   3.988
19515SOL    HW160442   9.858  13.667   4.048
19515SOL    HW260443   9.899  13.813   4.044
19516SOL     OW60444   0.729  12.549   2.419
19516SOL    HW160445   0.709  12.485   2.487
19516SOL    HW260446   0.714  12.634   2.460
19517SOL     OW60447  12.594   9.514  11.388
19517SOL    HW160448  12.529   9.569  11.345
19517SOL    HW260449  12.646   9.575  11.441
19518SOL     OW60450   6.359   0.103   8.529
19518SOL    HW160451   6.425   0.172   8.540
19518SOL    HW260452   6.312   0.102   8.613
19519SOL     OW60453   4.147   3.675   1.584
19519SOL    HW160454   4.068   3.699   1.633
19519SOL    HW260455   4.121   3.683   1.492
19520SOL     OW60456  14.532   4.435   1.366
19520SOL    HW160457  14.478   4.477   1.433
19520SOL    HW260458  14.558   4.352   1.406
19521SOL     OW60459   4.133   0.249   7.462
19521SOL    HW160460   4.075   0.281   7.531
19521SOL    HW260461   4.151   0.326   7.408
19522SOL     OW60462  14.749  14.311   1.564
19522SOL    HW160463  14.758  14.333   1.472
19522SOL    HW260464  14.740  14.396   1.608
19523SOL     OW60465   3.017   7.779   1.946
19523SOL    HW160466   2.990   7.687   1.952
19523SOL    HW260467   3.111   7.775   1.929
19524SOL     OW60468   9.739  13.676   2.645
19524SOL    HW160469   9.769  13.763   2.620
19524SOL    HW260470   9.802  13.647   2.712
19525SOL     OW60471   9.863   6.834   4.273
19525SOL    HW160472   9.955   6.810   4.263
19525SOL    HW260473   9.816   6.751   4.282
19526SOL     OW60474   7.225   2.227   8.207
19526SOL    HW160475   7.264   2.156   8.157
19526SOL    HW260476   7.287   2.244   8.278
19527SOL     OW60477   4.209   6.685   6.140
19527SOL    HW160478   4.257   6.765   6.162
19527SOL    HW260479   4.266   6.638   6.079
19528SOL     OW60480  10.576   2.536   3.926
19528SOL    HW160481  10.603   2.448   3.901
19528SOL    HW260482  10.483   2.527   3.948
19529SOL     OW60483   8.673  11.948   1.947
19529SOL    HW160484   8.721  11.869   1.970
19529SOL    HW260485   8.698  11.965   1.856
19530SOL     OW60486   8.314   1.101  13.429
19530SOL    HW160487   8.386   1.041  13.448
19530SOL    HW260488   8.342   1.185  13.467
19531SOL     OW60489  14.210   5.527   0.677
19531SOL    HW160490  14.157   5.576   0.614
19531SOL    HW260491  14.247   5.454   0.626
19532SOL     OW60492  13.355  13.900   0.300
19532SOL    HW160493  13.322  13.811   0.291
19532SOL    HW260494  13.276  13.954   0.310
19533SOL     OW60495   4.439  14.384  10.393
19533SOL    HW160496   4.357  14.336  10.392
19533SOL    HW260497   4.461  14.396  10.301
19534SOL     OW60498   7.553   8.363   5.635
19534SOL    HW160499   7.551   8.338   5.728
19534SOL    HW260500   7.561   8.280   5.589
19535SOL     OW60501   5.812   0.695   4.688
19535SOL    HW160502   5.741   0.632   4.691
19535SOL    HW260503   5.854   0.688   4.774
19536SOL     OW60504  11.722   7.846   5.235
19536SOL    HW160505  11.640   7.816   5.274
19536SOL    HW260506  11.696   7.904   5.165
19537SOL     OW60507   4.392   7.401   3.612
19537SOL    HW160508   4.426   7.404   3.523
19537SOL    HW260509   4.403   7.490   3.645
19538SOL     OW60510   7.449   8.589   4.461
19538SOL    HW160511   7.368   8.607   4.510
19538SOL    HW260512   7.478   8.675   4.431
19539SOL     OW60513   2.071   4.349   3.337
19539SOL    HW160514   2.160   4.324   3.360
19539SOL    HW260515   2.078   4.391   3.252
19540SOL     OW60516  14.239   7.696  11.505
19540SOL    HW160517  14.304   7.679  11.574
19540SOL    HW260518  14.248   7.789  11.486
19541SOL     OW60519   6.329   6.685  11.959
19541SOL    HW160520   6.425   6.686  11.961
19541SOL    HW260521   6.307   6.632  11.882
19542SOL     OW60522   1.274  12.085   5.799
19542SOL    HW160523   1.318  12.051   5.721
19542SOL    HW260524   1.328  12.054   5.872
19543SOL     OW60525   4.205  10.863   6.053
19543SOL    HW160526   4.186  10.783   6.101
19543SOL    HW260527   4.164  10.850   5.967
19544SOL     OW60528  13.369  14.306   5.759
19544SOL    HW160529  13.319  14.340   5.685
19544SOL    HW260530  13.302  14.274   5.820
19545SOL     OW60531  11.017   8.378   9.779
19545SOL    HW160532  11.051   8.458   9.740
19545SOL    HW260533  10.933   8.403   9.817
19546SOL     OW60534  10.106  14.098   8.282
19546SOL    HW160535  10.198  14.122   8.291
19546SOL    HW260536  10.088  14.109   8.188
19547SOL     OW60537   8.499  11.243   7.484
19547SOL    HW160538   8.535  11.200   7.406
19547SOL    HW260539   8.421  11.289   7.452
19548SOL     OW60540  10.058   7.831   4.155
19548SOL    HW160541  10.127   7.773   4.121
19548SOL    HW260542   9.977   7.794   4.119
19549SOL     OW60543   4.524  13.300   6.219
19549SOL    HW160544   4.528  13.285   6.314
19549SOL    HW260545   4.604  13.261   6.185
19550SOL     OW60546   5.271   9.386  13.986
19550SOL    HW160547   5.364   9.365  13.978
19550SOL    HW260548   5.265   9.441  14.064
19551SOL     OW60549   0.404  10.900   4.510
19551SOL    HW160550   0.459  10.962   4.558
19551SOL    HW260551   0.316  10.937   4.514
19552SOL     OW60552  13.006   4.411   2.285
19552SOL    HW160553  12.971   4.326   2.311
19552SOL    HW260554  12.984   4.418   2.192
19553SOL     OW60555   1.319  12.897   5.925
19553SOL    HW160556   1.250  12.889   5.990
19553SOL    HW260557   1.350  12.987   5.934
19554SOL     OW60558   8.824  11.998  14.369
19554SOL    HW160559   8.869  12.060  14.426
19554SOL    HW260560   8.880  11.920  14.369
19555SOL     OW60561  13.718  12.390   4.001
19555SOL    HW160562  13.677  12.386   4.088
19555SOL    HW260563  13.646  12.380   3.940
19556SOL     OW60564   4.069  10.957  12.926
19556SOL    HW160565   4.059  11.032  12.984
19556SOL    HW260566   4.149  10.974  12.877
19557SOL     OW60567  14.643   2.503  10.127
19557SOL    HW160568  14.735   2.488  10.149
19557SOL    HW260569  14.621   2.434  10.065
19558SOL     OW60570  13.185  12.873  10.536
19558SOL    HW160571  13.205  12.964  10.514
19558SOL    HW260572  13.251  12.822  10.488
19559SOL     OW60573   1.652   4.256  11.279
19559SOL    HW160574   1.625   4.166  11.262
19559SOL    HW260575   1.663   4.294  11.191
19560SOL     OW60576   7.608   4.427   4.223
19560SOL    HW160577   7.663   4.468   4.290
19560SOL    HW260578   7.537   4.386   4.273
19561SOL     OW60579   7.450  10.952   7.217
19561SOL    HW160580   7.485  10.866   7.239
19561SOL    HW260581   7.501  11.013   7.270
19562SOL     OW60582   1.795   6.916  14.304
19562SOL    HW160583   1.752   6.873  14.378
19562SOL    HW260584   1.884   6.880  14.304
19563SOL     OW60585   2.817  14.488   9.558
19563SOL    HW160586   2.895  14.469   9.610
19563SOL    HW260587   2.764  14.409   9.564
19564SOL     OW60588  10.978   1.479  13.057
19564SOL    HW160589  10.951   1.570  13.042
19564SOL    HW260590  11.055   1.486  13.114
19565SOL     OW60591   3.541  13.519  13.495
19565SOL    HW160592   3.465  13.564  13.531
19565SOL    HW260593   3.530  13.524  13.400
19566SOL     OW60594  12.989   5.785   1.413
19566SOL    HW160595  12.915   5.728   1.432
19566SOL    HW260596  12.950   5.860   1.368
19567SOL     OW60597   4.708   5.821  11.997
19567SOL    HW160598   4.628   5.807  11.947
19567SOL    HW260599   4.721   5.916  11.995
19568SOL     OW60600   4.863   9.109   6.296
19568SOL    HW160601   4.952   9.140   6.281
19568SOL    HW260602   4.810   9.188   6.296
19569SOL     OW60603   4.666   0.170  13.524
19569SOL    HW160604   4.753   0.204  13.543
19569SOL    HW260605   4.625   0.161  13.610
19570SOL     OW60606  11.926   8.695   7.702
19570SOL    HW160607  11.948   8.611   7.662
19570SOL    HW260608  11.847   8.678   7.753
19571SOL     OW60609   7.069   5.033  11.259
19571SOL    HW160610   7.062   4.940  11.281
19571SOL    HW260611   7.038   5.038  11.169
19572SOL     OW60612   0.215   9.467   2.775
19572SOL    HW160613   0.214   9.557   2.806
19572SOL    HW260614   0.124   9.438   2.782
19573SOL     OW60615  13.629   6.140   5.403
19573SOL    HW160616  13.558   6.143   5.340
19573SOL    HW260617  13.600   6.196   5.475
19574SOL     OW60618   6.124   8.017   9.540
19574SOL    HW160619   6.159   8.055   9.459
19574SOL    HW260620   6.156   7.927   9.540
19575SOL     OW60621   4.135   6.954   4.829
19575SOL    HW160622   4.158   6.902   4.906
19575SOL    HW260623   4.146   7.045   4.858
19576SOL     OW60624   0.650   8.196  13.464
19576SOL    HW160625   0.591   8.253  13.513
19576SOL    HW260626   0.690   8.254  13.398
19577SOL     OW60627   3.302  12.220   1.029
19577SOL    HW160628   3.315  12.157   1.101
19577SOL    HW260629   3.389  12.252   1.009
19578SOL     OW60630   0.227  10.838  10.927
19578SOL    HW160631   0.230  10.770  10.994
19578SOL    HW260632   0.290  10.810  10.861
19579SOL     OW60633   7.044   1.134   8.790
19579SOL    HW160634   7.008   1.050   8.818
19579SOL    HW260635   6.970   1.195   8.795
19580SOL     OW60636  12.481   0.231   0.294
19580SOL    HW160637  12.407   0.288   0.313
19580SOL    HW260638  12.545   0.251   0.363
19581SOL     OW60639   9.860   8.128  13.810
19581SOL    HW160640   9.876   8.222  13.818
19581SOL    HW260641   9.808   8.106  13.888
19582SOL     OW60642  13.571   7.078  10.960
19582SOL    HW160643  13.523   7.133  10.898
19582SOL    HW260644  13.556   6.989  10.930
19583SOL     OW60645   0.638  14.653   5.751
19583SOL    HW160646   0.581  14.577   5.735
19583SOL    HW260647   0.587  14.709   5.810
19584SOL     OW60648   7.169   9.566   0.888
19584SOL    HW160649   7.199   9.657   0.878
19584SOL    HW260650   7.247   9.514   0.870
19585SOL     OW60651  14.005   2.068  14.274
19585SOL    HW160652  14.062   2.110  14.339
19585SOL    HW260653  13.926   2.121  14.273
19586SOL     OW60654  11.152   4.950   7.727
19586SOL    HW160655  11.133   5.043   7.742
19586SOL    HW260656  11.241   4.949   7.692
19587SOL     OW60657  13.113  12.543  13.947
19587SOL    HW160658  13.044  12.501  13.998
19587SOL    HW260659  13.098  12.512  13.857
19588SOL     OW60660  14.247   9.215   3.933
19588SOL    HW160661  14.305   9.148   3.967
19588SOL    HW260662  14.258   9.289   3.992
19589SOL     OW60663   5.602   4.215   6.186
19589SOL    HW160664   5.627   4.233   6.095
19589SOL    HW260665   5.684   4.188   6.228
19590SOL     OW60666  11.397   4.395   3.830
19590SOL    HW160667  11.400   4.375   3.924
19590SOL    HW260668  11.354   4.481   3.826
19591SOL     OW60669   8.888   5.129  11.104
19591SOL    HW160670   8.931   5.206  11.141
19591SOL    HW260671   8.874   5.071  11.179
19592SOL     OW60672   3.554   2.660   9.680
19592SOL    HW160673   3.610   2.599   9.727
19592SOL    HW260674   3.467   2.646   9.717
19593SOL     OW60675   3.613  13.800   4.777
19593SOL    HW160676   3.706  13.781   4.780
19593SOL    HW260677   3.586  13.806   4.868
19594SOL     OW60678   4.170   2.957   8.449
19594SOL    HW160679   4.261   2.930   8.457
19594SOL    HW260680   4.173   3.053   8.456
19595SOL     OW60681  10.803  12.276   7.935
19595SOL    HW160682  10.798  12.241   7.846
19595SOL    HW260683  10.779  12.368   7.925
19596SOL     OW60684   1.290  10.761   7.108
19596SOL    HW160685   1.224  10.816   7.066
19596SOL    HW260686   1.372  10.806   7.093
19597SOL     OW60687   6.293   3.262  12.979
19597SOL    HW160688   6.243   3.310  13.045
19597SOL    HW260689   6.345   3.330  12.934
19598SOL     OW60690   5.736   6.552   4.345
19598SOL    HW160691   5.700   6.541   4.433
19598SOL    HW260692   5.660   6.568   4.289
19599SOL     OW60693  13.664   7.700   3.844
19599SOL    HW160694  13.653   7.738   3.932
19599SOL    HW260695  13.664   7.776   3.785
19600SOL     OW60696  13.549   3.113   8.040
19600SOL    HW160697  13.469   3.073   8.005
19600SOL    HW260698  13.606   3.122   7.963
19601SOL     OW60699   0.464   7.795   5.318
19601SOL    HW160700   0.405   7.779   5.244
19601SOL    HW260701   0.522   7.719   5.319
19602SOL     OW60702   7.285  12.338  11.898
19602SOL    HW160703   7.198  12.303  11.878
19602SOL    HW260704   7.312  12.291  11.976
19603SOL     OW60705  10.265   0.512   5.474
19603SOL    HW160706  10.196   0.494   5.410
19603SOL    HW260707  10.326   0.570   5.428
19604SOL     OW60708   4.261  14.522   1.557
19604SOL    HW160709   4.314  14.595   1.590
19604SOL    HW260710   4.251  14.540   1.464
19605SOL     OW60711  13.646   5.036   4.516
19605SOL    HW160712  13.582   5.004   4.453
19605SOL    HW260713  13.615   5.004   4.601
19606SOL     OW60714   2.876   8.930   5.919
19606SOL    HW160715   2.783   8.946   5.906
19606SOL    HW260716   2.916   8.949   5.834
19607SOL     OW60717  12.846   8.059  12.479
19607SOL    HW160718  12.923   8.009  12.452
19607SOL    HW260719  12.847   8.137  12.424
19608SOL     OW60720   3.643  14.315   8.690
19608SOL    HW160721   3.714  14.252   8.682
19608SOL    HW260722   3.578  14.270   8.745
19609SOL     OW60723   1.651  13.827   7.640
19609SOL    HW160724   1.558  13.823   7.661
19609SOL    HW260725   1.672  13.741   7.603
19610SOL     OW60726   7.316  12.954   8.520
19610SOL    HW160727   7.373  12.889   8.479
19610SOL    HW260728   7.377  13.020   8.554
19611SOL     OW60729  12.849  10.191  10.852
19611SOL    HW160730  12.821  10.114  10.802
19611SOL    HW260731  12.867  10.157  10.940
19612SOL     OW60732   0.256  10.697  12.099
19612SOL    HW160733   0.295  10.727  12.017
19612SOL    HW260734   0.330  10.685  12.158
19613SOL     OW60735   4.231  11.158   7.236
19613SOL    HW160736   4.231  11.195   7.148
19613SOL    HW260737   4.282  11.078   7.229
19614SOL     OW60738   2.871   9.415   6.783
19614SOL    HW160739   2.877   9.495   6.731
19614SOL    HW260740   2.957   9.374   6.774
19615SOL     OW60741   5.162  11.320   7.230
19615SOL    HW160742   5.089  11.363   7.275
19615SOL    HW260743   5.123  11.285   7.150
19616SOL     OW60744   5.773   1.173  10.917
19616SOL    HW160745   5.835   1.102  10.932
19616SOL    HW260746   5.825   1.243  10.877
19617SOL     OW60747   0.070  12.605   5.304
19617SOL    HW160748   0.026  12.590   5.388
19617SOL    HW260749  14.881  12.606   5.240
19618SOL     OW60750   0.126   1.996  12.484
19618SOL    HW160751   0.169   2.072  12.445
19618SOL    HW260752   0.197   1.939  12.511
19619SOL     OW60753  10.563   5.756   0.669
19619SOL    HW160754  10.585   5.664   0.653
19619SOL    HW260755  10.507   5.754   0.747
19620SOL     OW60756   2.719  13.162   7.704
19620SOL    HW160757   2.802  13.208   7.713
19620SOL    HW260758   2.655  13.232   7.689
19621SOL     OW60759   4.273   0.347   7.158
19621SOL    HW160760   4.241   0.421   7.211
19621SOL    HW260761   4.198   0.289   7.150
19622SOL     OW60762   1.146  14.581   3.491
19622SOL    HW160763   1.213  14.596   3.426
19622SOL    HW260764   1.077  14.644   3.471
19623SOL     OW60765  10.652   1.308   1.413
19623SOL    HW160766  10.597   1.236   1.443
19623SOL    HW260767  10.738   1.290   1.451
19624SOL     OW60768  11.862  14.857   3.413
19624SOL    HW160769  11.940  14.860   3.467
19624SOL    HW260770  11.820  14.773   3.435
19625SOL     OW60771   9.374   0.246  11.798
19625SOL    HW160772   9.301   0.229  11.737
19625SOL    HW260773   9.385   0.341  11.796
19626SOL     OW60774   7.643   1.322  10.124
19626SOL    HW160775   7.693   1.266  10.184
19626SOL    HW260776   7.691   1.318  10.041
19627SOL     OW60777   2.002   7.434   6.868
19627SOL    HW160778   1.925   7.413   6.815
19627SOL    HW260779   1.969   7.493   6.936
19628SOL     OW60780   3.576   8.109   6.781
19628SOL    HW160781   3.560   8.069   6.696
19628SOL    HW260782   3.629   8.045   6.828
19629SOL     OW60783   4.867  12.137   2.950
19629SOL    HW160784   4.873  12.171   3.039
19629SOL    HW260785   4.872  12.214   2.894
19630SOL     OW60786  10.771   6.301  13.433
19630SOL    HW160787  10.725   6.219  13.415
19630SOL    HW260788  10.864   6.278  13.432
19631SOL     OW60789   0.089   9.740  11.798
19631SOL    HW160790   0.103   9.731  11.892
19631SOL    HW260791   0.023   9.674  11.777
19632SOL     OW60792   1.194  11.079   3.777
19632SOL    HW160793   1.116  11.039   3.815
19632SOL    HW260794   1.266  11.049   3.832
19633SOL     OW60795   3.729   6.899   0.397
19633SOL    HW160796   3.709   6.946   0.315
19633SOL    HW260797   3.792   6.832   0.372
19634SOL     OW60798  12.440  14.165  13.223
19634SOL    HW160799  12.517  14.177  13.167
19634SOL    HW260800  12.463  14.091  13.279
19635SOL     OW60801   7.392   1.154   4.722
19635SOL    HW160802   7.451   1.142   4.648
19635SOL    HW260803   7.448   1.140   4.799
19636SOL     OW60804   0.473   6.009   3.373
19636SOL    HW160805   0.428   6.090   3.396
19636SOL    HW260806   0.563   6.035   3.354
19637SOL     OW60807   0.718   5.888   4.525
19637SOL    HW160808   0.639   5.849   4.485
19637SOL    HW260809   0.728   5.972   4.480
19638SOL     OW60810   1.065   8.994   7.143
19638SOL    HW160811   1.061   9.090   7.145
19638SOL    HW260812   0.973   8.967   7.139
19639SOL     OW60813   7.107   9.660   1.238
19639SOL    HW160814   7.089   9.588   1.299
19639SOL    HW260815   7.184   9.632   1.189
19640SOL     OW60816   5.886   0.158   3.897
19640SOL    HW160817   5.956   0.118   3.845
19640SOL    HW260818   5.931   0.211   3.962
19641SOL     OW60819   4.307  12.241  13.716
19641SOL    HW160820   4.354  12.164  13.748
19641SOL    HW260821   4.224  12.241  13.764
19642SOL     OW60822   0.285  13.685   2.858
19642SOL    HW160823   0.363  13.693   2.803
19642SOL    HW260824   0.231  13.618   2.815
19643SOL     OW60825   8.106   7.822   0.705
19643SOL    HW160826   8.124   7.844   0.614
19643SOL    HW260827   8.155   7.887   0.756
19644SOL     OW60828   4.231  10.375   8.003
19644SOL    HW160829   4.243  10.463   8.040
19644SOL    HW260830   4.309  10.327   8.029
19645SOL     OW60831   4.983  12.076  13.703
19645SOL    HW160832   4.989  11.980  13.693
19645SOL    HW260833   4.980  12.109  13.613
19646SOL     OW60834  14.140   4.084  11.547
19646SOL    HW160835  14.139   4.008  11.606
19646SOL    HW260836  14.131   4.160  11.604
19647SOL     OW60837  12.011  12.726  12.556
19647SOL    HW160838  12.049  12.666  12.620
19647SOL    HW260839  12.085  12.780  12.527
19648SOL     OW60840   9.820   8.429   1.297
19648SOL    HW160841   9.836   8.519   1.324
19648SOL    HW260842   9.788   8.436   1.208
19649SOL     OW60843  11.966   6.106  10.928
19649SOL    HW160844  11.999   6.068  10.847
19649SOL    HW260845  11.987   6.199  10.923
19650SOL     OW60846  12.257  12.818   6.145
19650SOL    HW160847  12.173  12.781   6.170
19650SOL    HW260848  12.305  12.826   6.228
19651SOL     OW60849   5.592  10.284   6.566
19651SOL    HW160850   5.669  10.323   6.608
19651SOL    HW260851   5.617  10.194   6.549
19652SOL     OW60852   8.739   3.975   5.918
19652SOL    HW160853   8.702   3.978   6.006
19652SOL    HW260854   8.704   3.895   5.880
19653SOL     OW60855  10.118   7.380  11.579
19653SOL    HW160856  10.038   7.350  11.535
19653SOL    HW260857  10.087   7.420  11.660
19654SOL     OW60858   7.712   3.978   9.063
19654SOL    HW160859   7.717   4.073   9.073
19654SOL    HW260860   7.775   3.958   8.994
19655SOL     OW60861  13.514   1.795  14.881
19655SOL    HW160862  13.489   1.703   0.005
19655SOL    HW260863  13.610   1.794   0.002
19656SOL     OW60864   1.178   7.185  10.457
19656SOL    HW160865   1.236   7.190  10.533
19656SOL    HW260866   1.122   7.110  10.474
19657SOL     OW60867   4.860   3.315  12.466
19657SOL    HW160868   4.822   3.228  12.456
19657SOL    HW260869   4.824   3.365  12.393
19658SOL     OW60870   1.399  14.384   2.370
19658SOL    HW160871   1.323  14.326   2.368
19658SOL    HW260872   1.407  14.409   2.462
19659SOL     OW60873   6.009   4.100   9.190
19659SOL    HW160874   6.003   4.005   9.177
19659SOL    HW260875   5.918   4.130   9.190
19660SOL     OW60876   3.086   5.635   3.202
19660SOL    HW160877   3.050   5.601   3.120
19660SOL    HW260878   3.115   5.723   3.180
19661SOL     OW60879   9.058   8.792  11.903
19661SOL    HW160880   9.059   8.852  11.829
19661SOL    HW260881   9.100   8.712  11.870
19662SOL     OW60882   6.083   0.842   1.801
19662SOL    HW160883   6.160   0.886   1.765
19662SOL    HW260884   6.071   0.765   1.745
19663SOL     OW60885  13.617  13.930   6.486
19663SOL    HW160886  13.656  13.843   6.492
19663SOL    HW260887  13.615  13.963   6.576
19664SOL     OW60888   0.696   1.061   5.821
19664SOL    HW160889   0.675   0.968   5.830
19664SOL    HW260890   0.614   1.106   5.841
19665SOL     OW60891   3.996   8.056  10.137
19665SOL    HW160892   3.920   8.111  10.119
19665SOL    HW260893   3.986   7.981  10.078
19666SOL     OW60894   8.028  13.601   9.216
19666SOL    HW160895   7.955  13.640   9.265
19666SOL    HW260896   8.026  13.508   9.240
19667SOL     OW60897   5.932   8.202  11.751
19667SOL    HW160898   5.864   8.239  11.694
19667SOL    HW260899   6.007   8.261  11.741
19668SOL     OW60900  12.416  11.539   1.553
19668SOL    HW160901  12.420  11.590   1.634
19668SOL    HW260902  12.324  11.515   1.545
19669SOL     OW60903  10.194   5.790  12.622
19669SOL    HW160904  10.166   5.699  12.638
19669SOL    HW260905  10.276   5.782  12.575
19670SOL     OW60906   8.689   1.337  10.007
19670SOL    HW160907   8.718   1.247  10.021
19670SOL    HW260908   8.726   1.385  10.081
19671SOL     OW60909   3.574   6.912   1.477
19671SOL    HW160910   3.539   6.987   1.525
19671SOL    HW260911   3.501   6.850   1.473
19672SOL     OW60912  11.066   0.834   5.071
19672SOL    HW160913  11.009   0.902   5.106
19672SOL    HW260914  11.096   0.786   5.148
19673SOL     OW60915  14.250  11.733  13.103
19673SOL    HW160916  14.228  11.757  13.193
19673SOL    HW260917  14.302  11.654  13.110
19674SOL     OW60918  11.501   2.922   0.388
19674SOL    HW160919  11.564   2.974   0.338
19674SOL    HW260920  11.544   2.837   0.400
19675SOL     OW60921   3.916   8.882  14.655
19675SOL    HW160922   3.888   8.888  14.746
19675SOL    HW260923   4.011   8.888  14.658
19676SOL     OW60924   9.823  11.620   1.969
19676SOL    HW160925   9.780  11.536   1.955
19676SOL    HW260926   9.899  11.619   1.911
19677SOL     OW60927  10.191   7.958  13.430
19677SOL    HW160928  10.123   7.974  13.495
19677SOL    HW260929  10.239   7.882  13.464
19678SOL     OW60930   4.777   4.477   6.361
19678SOL    HW160931   4.819   4.562   6.351
19678SOL    HW260932   4.687   4.498   6.387
19679SOL     OW60933  11.859  13.030   5.060
19679SOL    HW160934  11.867  12.942   5.097
19679SOL    HW260935  11.776  13.029   5.012
19680SOL     OW60936   6.878  10.543   7.560
19680SOL    HW160937   6.881  10.454   7.595
19680SOL    HW260938   6.827  10.592   7.625
19681SOL     OW60939   5.226  13.719  10.511
19681SOL    HW160940   5.160  13.776  10.472
19681SOL    HW260941   5.294  13.712  10.443
19682SOL     OW60942   7.304   4.838   9.948
19682SOL    HW160943   7.288   4.829  10.042
19682SOL    HW260944   7.273   4.757   9.909
19683SOL     OW60945   3.948   1.537   5.669
19683SOL    HW160946   4.042   1.550   5.663
19683SOL    HW260947   3.914   1.569   5.585
19684SOL     OW60948   2.369  14.013   3.144
19684SOL    HW160949   2.384  14.084   3.206
19684SOL    HW260950   2.283  14.032   3.105
19685SOL     OW60951  14.789   4.721  11.510
19685SOL    HW160952  14.859   4.721  11.574
19685SOL    HW260953  14.820   4.662  11.441
19686SOL     OW60954  13.531   0.084   4.926
19686SOL    HW160955  13.552   0.173   4.955
19686SOL    HW260956  13.615   0.039   4.925
19687SOL     OW60957  10.479   8.542   0.352
19687SOL    HW160958  10.416   8.477   0.323
19687SOL    HW260959  10.544   8.546   0.282
19688SOL     OW60960   9.834   5.615   8.689
19688SOL    HW160961   9.893   5.541   8.678
19688SOL    HW260962   9.889   5.692   8.675
19689SOL     OW60963   5.513  10.465   5.748
19689SOL    HW160964   5.573  10.527   5.790
19689SOL    HW260965   5.570  10.403   5.702
19690SOL     OW60966  11.457   3.501   8.865
19690SOL    HW160967  11.493   3.449   8.793
19690SOL    HW260968  11.379   3.454   8.893
19691SOL     OW60969   0.061   5.486   9.316
19691SOL    HW160970   0.005   5.444   9.381
19691SOL    HW260971   0.006   5.555   9.279
19692SOL     OW60972   5.297  13.808   5.269
19692SOL    HW160973   5.376  13.756   5.279
19692SOL    HW260974   5.290  13.858   5.350
19693SOL     OW60975   5.698   1.371  10.085
19693SOL    HW160976   5.664   1.436  10.024
19693SOL    HW260977   5.623   1.350  10.142
19694SOL     OW60978  10.873   0.042   8.678
19694SOL    HW160979  10.877   0.136   8.663
19694SOL    HW260980  10.965   0.015   8.682
19695SOL     OW60981  14.013   1.417   9.503
19695SOL    HW160982  14.096   1.382   9.472
19695SOL    HW260983  13.998   1.374   9.587
19696SOL     OW60984  11.644  11.342   3.453
19696SOL    HW160985  11.555  11.346   3.417
19696SOL    HW260986  11.635  11.289   3.533
19697SOL     OW60987  13.601  12.577  12.171
19697SOL    HW160988  13.626  12.556  12.081
19697SOL    HW260989  13.683  12.604  12.213
19698SOL     OW60990   5.774   5.287   8.704
19698SOL    HW160991   5.692   5.260   8.664
19698SOL    HW260992   5.784   5.231   8.780
19699SOL     OW60993   4.000   5.989   5.207
19699SOL    HW160994   4.085   5.953   5.234
19699SOL    HW260995   3.971   5.932   5.136
19700SOL     OW60996   7.665   8.293   7.490
19700SOL    HW160997   7.684   8.269   7.581
19700SOL    HW260998   7.717   8.232   7.438
19701SOL     OW60999  13.683   9.138   1.335
19701SOL    HW161000  13.754   9.189   1.297
19701SOL    HW261001  13.671   9.174   1.423
19702SOL     OW61002   7.477   2.140   1.960
19702SOL    HW161003   7.487   2.056   1.915
19702SOL    HW261004   7.487   2.119   2.053
19703SOL     OW61005  14.842   3.186   6.864
19703SOL    HW161006  14.852   3.269   6.911
19703SOL    HW261007  14.748   3.168   6.867
19704SOL     OW61008   4.790   3.299   7.440
19704SOL    HW161009   4.879   3.290   7.475
19704SOL    HW261010   4.761   3.385   7.471
19705SOL     OW61011   2.686   5.273   5.659
19705SOL    HW161012   2.753   5.205   5.665
19705SOL    HW261013   2.723   5.339   5.601
19706SOL     OW61014  14.278   8.183  13.148
19706SOL    HW161015  14.346   8.239  13.112
19706SOL    HW261016  14.322   8.132  13.216
19707SOL     OW61017  10.581   7.189  14.229
19707SOL    HW161018  10.499   7.235  14.210
19707SOL    HW261019  10.576   7.109  14.177
19708SOL     OW61020   1.910  11.109   1.718
19708SOL    HW161021   1.877  11.084   1.632
19708SOL    HW261022   1.992  11.155   1.700
19709SOL     OW61023   1.015   1.985   7.125
19709SOL    HW161024   1.105   1.961   7.147
19709SOL    HW261025   1.023   2.034   7.043
19710SOL     OW61026   2.277   1.782   6.363
19710SOL    HW161027   2.228   1.779   6.281
19710SOL    HW261028   2.288   1.690   6.388
19711SOL     OW61029   0.819   4.789  12.155
19711SOL    HW161030   0.888   4.852  12.135
19711SOL    HW261031   0.851   4.706  12.119
19712SOL     OW61032   8.243   5.206  12.809
19712SOL    HW161033   8.281   5.210  12.896
19712SOL    HW261034   8.152   5.232  12.821
19713SOL     OW61035   2.509  13.781   4.274
19713SOL    HW161036   2.464  13.852   4.319
19713SOL    HW261037   2.479  13.786   4.183
19714SOL     OW61038   0.180  11.208  14.412
19714SOL    HW161039   0.098  11.200  14.364
19714SOL    HW261040   0.203  11.118  14.436
19715SOL     OW61041   8.214   8.369   1.689
19715SOL    HW161042   8.159   8.291   1.684
19715SOL    HW261043   8.176   8.429   1.625
19716SOL     OW61044   2.979   5.031  10.985
19716SOL    HW161045   2.976   5.066  10.895
19716SOL    HW261046   2.901   5.067  11.027
19717SOL     OW61047  11.426  10.419   1.849
19717SOL    HW161048  11.417  10.473   1.771
19717SOL    HW261049  11.339  10.422   1.890
19718SOL     OW61050  13.097   5.954  13.500
19718SOL    HW161051  13.057   5.939  13.414
19718SOL    HW261052  13.122   5.867  13.530
19719SOL     OW61053  13.258   7.782   1.857
19719SOL    HW161054  13.263   7.790   1.762
19719SOL    HW261055  13.330   7.836   1.890
19720SOL     OW61056   7.529  10.697   8.313
19720SOL    HW161057   7.520  10.602   8.311
19720SOL    HW261058   7.444  10.728   8.346
19721SOL     OW61059  13.721  12.600   6.395
19721SOL    HW161060  13.765  12.671   6.442
19721SOL    HW261061  13.669  12.556   6.462
19722SOL     OW61062   3.026   6.651  14.149
19722SOL    HW161063   3.008   6.560  14.124
19722SOL    HW261064   3.122   6.656  14.152
19723SOL     OW61065   6.174   1.923   6.028
19723SOL    HW161066   6.135   1.840   6.055
19723SOL    HW261067   6.178   1.918   5.932
19724SOL     OW61068   8.862   9.457   4.152
19724SOL    HW161069   8.808   9.461   4.231
19724SOL    HW261070   8.904   9.543   4.147
19725SOL     OW61071  14.238  11.150   1.261
19725SOL    HW161072  14.211  11.061   1.285
19725SOL    HW261073  14.157  11.193   1.234
19726SOL     OW61074  11.630   6.379   3.800
19726SOL    HW161075  11.647   6.418   3.886
19726SOL    HW261076  11.577   6.444   3.754
19727SOL     OW61077   3.035   2.058   5.887
19727SOL    HW161078   3.126   2.062   5.914
19727SOL    HW261079   2.989   2.022   5.963
19728SOL     OW61080  11.209  14.734  10.211
19728SOL    HW161081  11.176  14.645  10.214
19728SOL    HW261082  11.135  14.789  10.237
19729SOL     OW61083   6.206  13.688   1.280
19729SOL    HW161084   6.271  13.758   1.278
19729SOL    HW261085   6.150  13.709   1.355
19730SOL     OW61086   2.147  13.889  14.377
19730SOL    HW161087   2.198  13.968  14.391
19730SOL    HW261088   2.149  13.874  14.283
19731SOL     OW61089   6.907   1.665   3.917
19731SOL    HW161090   6.991   1.620   3.927
19731SOL    HW261091   6.928   1.746   3.871
19732SOL     OW61092   9.411   8.027   2.451
19732SOL    HW161093   9.472   7.991   2.387
19732SOL    HW261094   9.394   8.116   2.421
19733SOL     OW61095   4.350   0.194  12.364
19733SOL    HW161096   4.314   0.232  12.444
19733SOL    HW261097   4.275   0.149  12.323
19734SOL     OW61098  11.163  10.263   2.821
19734SOL    HW161099  11.243  10.279   2.771
19734SOL    HW261100  11.175  10.311   2.903
19735SOL     OW61101   6.809   3.741  14.325
19735SOL    HW161102   6.780   3.652  14.306
19735SOL    HW261103   6.753   3.770  14.397
19736SOL     OW61104   5.725  10.285  13.084
19736SOL    HW161105   5.763  10.347  13.022
19736SOL    HW261106   5.799  10.255  13.137
19737SOL     OW61107   8.873   8.103   3.814
19737SOL    HW161108   8.788   8.111   3.856
19737SOL    HW261109   8.889   8.009   3.809
19738SOL     OW61110  11.350  12.473  14.452
19738SOL    HW161111  11.388  12.556  14.422
19738SOL    HW261112  11.351  12.417  14.374
19739SOL     OW61113  13.851   0.944   2.317
19739SOL    HW161114  13.805   0.966   2.236
19739SOL    HW261115  13.877   0.853   2.306
19740SOL     OW61116   1.154  14.860   3.596
19740SOL    HW161117   1.082   0.035   3.569
19740SOL    HW261118   1.197   0.027   3.667
19741SOL     OW61119   1.981   0.706   0.269
19741SOL    HW161120   1.965   0.625   0.220
19741SOL    HW261121   2.007   0.677   0.356
19742SOL     OW61122   6.271   6.528   9.404
19742SOL    HW161123   6.310   6.496   9.485
19742SOL    HW261124   6.219   6.455   9.371
19743SOL     OW61125   5.209  13.342   5.575
19743SOL    HW161126   5.234  13.263   5.528
19743SOL    HW261127   5.205  13.410   5.508
19744SOL     OW61128  12.072   0.325  12.630
19744SOL    HW161129  12.038   0.338  12.542
19744SOL    HW261130  11.995   0.324  12.686
19745SOL     OW61131   8.425   2.664   0.888
19745SOL    HW161132   8.458   2.703   0.969
19745SOL    HW261133   8.333   2.689   0.885
19746SOL     OW61134   7.294   2.936  13.137
19746SOL    HW161135   7.251   3.022  13.134
19746SOL    HW261136   7.288   2.909  13.228
19747SOL     OW61137  11.192  13.522  12.250
19747SOL    HW161138  11.166  13.431  12.263
19747SOL    HW261139  11.179  13.563  12.335
19748SOL     OW61140   5.616   5.845   1.472
19748SOL    HW161141   5.571   5.865   1.554
19748SOL    HW261142   5.573   5.767   1.438
19749SOL     OW61143  11.527   5.870   3.753
19749SOL    HW161144  11.492   5.907   3.672
19749SOL    HW261145  11.455   5.876   3.815
19750SOL     OW61146   9.694  13.613   6.007
19750SOL    HW161147   9.678  13.579   6.095
19750SOL    HW261148   9.663  13.703   6.010
19751SOL     OW61149  13.873  14.695   8.610
19751SOL    HW161150  13.884  14.753   8.686
19751SOL    HW261151  13.960  14.658   8.595
19752SOL     OW61152   1.857   8.139   5.875
19752SOL    HW161153   1.791   8.208   5.865
19752SOL    HW261154   1.857   8.093   5.791
19753SOL     OW61155   0.976   3.393   2.967
19753SOL    HW161156   1.026   3.474   2.957
19753SOL    HW261157   0.935   3.401   3.054
19754SOL     OW61158  10.601   2.647   0.610
19754SOL    HW161159  10.655   2.655   0.531
19754SOL    HW261160  10.663   2.632   0.681
19755SOL     OW61161   5.770   5.385  14.649
19755SOL    HW161162   5.862   5.367  14.667
19755SOL    HW261163   5.759   5.478  14.670
19756SOL     OW61164  13.610   9.104   8.035
19756SOL    HW161165  13.561   9.185   8.019
19756SOL    HW261166  13.677   9.129   8.099
19757SOL     OW61167  14.728   7.053   4.843
19757SOL    HW161168  14.723   7.091   4.931
19757SOL    HW261169  14.675   7.111   4.788
19758SOL     OW61170  14.144   5.872  13.452
19758SOL    HW161171  14.066   5.925  13.470
19758SOL    HW261172  14.110   5.793  13.409
19759SOL     OW61173   1.507  12.304   0.402
19759SOL    HW161174   1.524  12.374   0.465
19759SOL    HW261175   1.455  12.241   0.451
19760SOL     OW61176  14.065  10.279   9.803
19760SOL    HW161177  14.145  10.311   9.844
19760SOL    HW261178  14.075  10.184   9.800
19761SOL     OW61179   2.923   6.117  12.078
19761SOL    HW161180   2.923   6.031  12.120
19761SOL    HW261181   2.878   6.104  11.995
19762SOL     OW61182  13.947   3.667   8.291
19762SOL    HW161183  13.888   3.594   8.274
19762SOL    HW261184  13.947   3.677   8.386
19763SOL     OW61185   4.334   9.736   2.421
19763SOL    HW161186   4.336   9.715   2.514
19763SOL    HW261187   4.415   9.784   2.405
19764SOL     OW61188   8.923  10.384  14.083
19764SOL    HW161189   8.841  10.361  14.038
19764SOL    HW261190   8.894  10.430  14.162
19765SOL     OW61191  10.619  12.320  12.233
19765SOL    HW161192  10.597  12.244  12.288
19765SOL    HW261193  10.571  12.393  12.273
19766SOL     OW61194   5.035   2.687   0.735
19766SOL    HW161195   4.999   2.757   0.680
19766SOL    HW261196   4.969   2.674   0.803
19767SOL     OW61197   2.041   7.262  10.787
19767SOL    HW161198   2.063   7.334  10.845
19767SOL    HW261199   2.117   7.204  10.791
19768SOL     OW61200  13.480   8.981  12.477
19768SOL    HW161201  13.467   9.070  12.509
19768SOL    HW261202  13.476   8.927  12.556
19769SOL     OW61203  10.655   0.701   2.326
19769SOL    HW161204  10.748   0.689   2.344
19769SOL    HW261205  10.628   0.619   2.285
19770SOL     OW61206  13.017  14.580  11.402
19770SOL    HW161207  13.023  14.580  11.498
19770SOL    HW261208  12.927  14.555  11.383
19771SOL     OW61209   8.897   3.352   3.781
19771SOL    HW161210   8.815   3.350   3.731
19771SOL    HW261211   8.944   3.428   3.747
19772SOL     OW61212   3.459   8.482   2.251
19772SOL    HW161213   3.375   8.509   2.215
19772SOL    HW261214   3.467   8.529   2.333
19773SOL     OW61215   6.159   9.798  11.720
19773SOL    HW161216   6.242   9.792  11.672
19773SOL    HW261217   6.182   9.780  11.811
19774SOL     OW61218  14.013  13.573  11.723
19774SOL    HW161219  14.099  13.546  11.753
19774SOL    HW261220  13.955  13.556  11.797
19775SOL     OW61221  10.789   4.304  10.989
19775SOL    HW161222  10.809   4.225  11.039
19775SOL    HW261223  10.868   4.358  10.997
19776SOL     OW61224   9.534   3.665   6.630
19776SOL    HW161225   9.509   3.750   6.667
19776SOL    HW261226   9.539   3.607   6.706
19777SOL     OW61227   2.734  12.320   9.064
19777SOL    HW161228   2.695  12.405   9.082
19777SOL    HW261229   2.799  12.308   9.134
19778SOL     OW61230  13.447  12.522   7.477
19778SOL    HW161231  13.354  12.535   7.455
19778SOL    HW261232  13.479  12.609   7.499
19779SOL     OW61233  10.506   6.369  12.453
19779SOL    HW161234  10.524   6.278  12.479
19779SOL    HW261235  10.466   6.361  12.367
19780SOL     OW61236   4.208  12.110  11.564
19780SOL    HW161237   4.294  12.100  11.523
19780SOL    HW261238   4.160  12.167  11.504
19781SOL     OW61239   4.223  12.056   9.493
19781SOL    HW161240   4.201  11.964   9.510
19781SOL    HW261241   4.171  12.078   9.416
19782SOL     OW61242   0.181   3.086   3.041
19782SOL    HW161243   0.217   3.165   3.000
19782SOL    HW261244   0.192   3.101   3.135
19783SOL     OW61245  14.407   6.231  13.235
19783SOL    HW161246  14.409   6.312  13.286
19783SOL    HW261247  14.420   6.260  13.144
19784SOL     OW61248   1.237   3.770   4.216
19784SOL    HW161249   1.235   3.708   4.289
19784SOL    HW261250   1.326   3.763   4.181
19785SOL     OW61251  10.773   5.707   9.930
19785SOL    HW161252  10.700   5.714   9.991
19785SOL    HW261253  10.741   5.648   9.862
19786SOL     OW61254   7.909   5.783   4.671
19786SOL    HW161255   7.877   5.851   4.612
19786SOL    HW261256   7.831   5.752   4.717
19787SOL     OW61257   6.104  13.319   7.742
19787SOL    HW161258   6.180  13.286   7.790
19787SOL    HW261259   6.057  13.372   7.806
19788SOL     OW61260   2.607  11.476  14.076
19788SOL    HW161261   2.532  11.524  14.111
19788SOL    HW261262   2.680  11.501  14.132
19789SOL     OW61263   4.746   3.184  10.070
19789SOL    HW161264   4.768   3.094  10.046
19789SOL    HW261265   4.823   3.235  10.044
19790SOL     OW61266   3.703   5.949   2.727
19790SOL    HW161267   3.721   6.019   2.664
19790SOL    HW261268   3.749   5.873   2.691
19791SOL     OW61269  14.082  14.509   9.694
19791SOL    HW161270  14.087  14.414   9.680
19791SOL    HW261271  13.990  14.531   9.680
19792SOL     OW61272  13.861   9.976   6.385
19792SOL    HW161273  13.854   9.881   6.393
19792SOL    HW261274  13.771  10.005   6.366
19793SOL     OW61275  14.149   5.047   1.256
19793SOL    HW161276  14.101   5.039   1.339
19793SOL    HW261277  14.235   5.080   1.282
19794SOL     OW61278   1.389   2.057   6.374
19794SOL    HW161279   1.313   2.112   6.353
19794SOL    HW261280   1.378   1.979   6.318
19795SOL     OW61281   5.873  10.656   4.513
19795SOL    HW161282   5.957  10.632   4.553
19795SOL    HW261283   5.812  10.588   4.542
19796SOL     OW61284   1.910   8.641   3.628
19796SOL    HW161285   1.967   8.697   3.680
19796SOL    HW261286   1.829   8.692   3.619
19797SOL     OW61287   5.806   5.336   9.609
19797SOL    HW161288   5.805   5.279   9.687
19797SOL    HW261289   5.719   5.324   9.570
19798SOL     OW61290   8.607  13.130  13.550
19798SOL    HW161291   8.580  13.160  13.464
19798SOL    HW261292   8.671  13.194  13.580
19799SOL     OW61293   7.610  10.081   3.001
19799SOL    HW161294   7.596  10.064   2.908
19799SOL    HW261295   7.689  10.136   3.003
19800SOL     OW61296   7.464   7.136   6.865
19800SOL    HW161297   7.489   7.225   6.842
19800SOL    HW261298   7.368   7.136   6.860
19801SOL     OW61299   7.075   3.727  12.761
19801SOL    HW161300   7.049   3.636  12.748
19801SOL    HW261301   6.996   3.778  12.740
19802SOL     OW61302   7.193   1.080   6.051
19802SOL    HW161303   7.126   1.021   6.017
19802SOL    HW261304   7.148   1.130   6.119
19803SOL     OW61305   1.961   3.569  13.225
19803SOL    HW161306   2.011   3.524  13.157
19803SOL    HW261307   1.870   3.558  13.198
19804SOL     OW61308   5.004   4.071   4.640
19804SOL    HW161309   4.959   4.061   4.557
19804SOL    HW261310   5.074   4.133   4.623
19805SOL     OW61311   3.333   8.006   7.599
19805SOL    HW161312   3.263   7.942   7.612
19805SOL    HW261313   3.329   8.062   7.676
19806SOL     OW61314   1.405  11.416  14.368
19806SOL    HW161315   1.458  11.344  14.402
19806SOL    HW261316   1.415  11.486  14.434
19807SOL     OW61317   7.892   3.918   8.857
19807SOL    HW161318   7.932   3.991   8.809
19807SOL    HW261319   7.874   3.852   8.789
19808SOL     OW61320   5.559  14.860   8.646
19808SOL    HW161321   5.505  14.875   8.724
19808SOL    HW261322   5.645   0.012   8.669
19809SOL     OW61323   5.951  13.575  11.538
19809SOL    HW161324   5.948  13.532  11.453
19809SOL    HW261325   6.008  13.520  11.591
19810SOL     OW61326  13.712  12.198  14.255
19810SOL    HW161327  13.685  12.264  14.190
19810SOL    HW261328  13.724  12.248  14.336
19811SOL     OW61329  13.492  11.844   3.274
19811SOL    HW161330  13.449  11.888   3.348
19811SOL    HW261331  13.561  11.905   3.248
19812SOL     OW61332   4.871  12.034   9.807
19812SOL    HW161333   4.804  12.024   9.739
19812SOL    HW261334   4.854  12.120   9.845
19813SOL     OW61335   2.531  12.506   9.513
19813SOL    HW161336   2.514  12.478   9.423
19813SOL    HW261337   2.592  12.440   9.547
19814SOL     OW61338   3.421   1.786  11.283
19814SOL    HW161339   3.459   1.712  11.330
19814SOL    HW261340   3.351   1.817  11.340
19815SOL     OW61341   7.178   7.568   1.551
19815SOL    HW161342   7.151   7.649   1.508
19815SOL    HW261343   7.096   7.527   1.580
19816SOL     OW61344  11.894   4.410   8.106
19816SOL    HW161345  11.911   4.488   8.054
19816SOL    HW261346  11.809   4.427   8.148
19817SOL     OW61347  12.900  12.756   3.830
19817SOL    HW161348  12.880  12.836   3.782
19817SOL    HW261349  12.976  12.780   3.884
19818SOL     OW61350   9.543   3.084   0.793
19818SOL    HW161351   9.546   3.175   0.823
19818SOL    HW261352   9.634   3.055   0.792
19819SOL     OW61353   4.712  12.206  12.116
19819SOL    HW161354   4.617  12.217  12.118
19819SOL    HW261355   4.727  12.133  12.056
19820SOL     OW61356   7.381  14.008  12.418
19820SOL    HW161357   7.428  14.043  12.342
19820SOL    HW261358   7.417  14.056  12.493
19821SOL     OW61359   1.697   7.991   1.629
19821SOL    HW161360   1.646   7.911   1.641
19821SOL    HW261361   1.776   7.962   1.583
19822SOL     OW61362  14.528  13.495  11.328
19822SOL    HW161363  14.433  13.507  11.324
19822SOL    HW261364  14.541  13.402  11.309
19823SOL     OW61365   4.843  12.298  12.524
19823SOL    HW161366   4.851  12.204  12.507
19823SOL    HW261367   4.893  12.312  12.605
19824SOL     OW61368   5.604  14.512  10.417
19824SOL    HW161369   5.688  14.552  10.437
19824SOL    HW261370   5.609  14.424  10.455
19825SOL     OW61371   8.615   3.612   9.122
19825SOL    HW161372   8.552   3.649   9.183
19825SOL    HW261373   8.664   3.547   9.174
19826SOL     OW61374   1.332   0.831   6.730
19826SOL    HW161375   1.422   0.829   6.697
19826SOL    HW261376   1.294   0.748   6.702
19827SOL     OW61377   4.351  13.621   1.298
19827SOL    HW161378   4.397  13.581   1.371
19827SOL    HW261379   4.291  13.684   1.338
19828SOL     OW61380   9.024   6.996   6.288
19828SOL    HW161381   9.093   6.933   6.267
19828SOL    HW261382   9.063   7.081   6.269
19829SOL     OW61383  12.522  12.523   5.520
19829SOL    HW161384  12.458  12.530   5.591
19829SOL    HW261385  12.577  12.448   5.544
19830SOL     OW61386  10.771   8.294   5.274
19830SOL    HW161387  10.815   8.209   5.270
19830SOL    HW261388  10.743   8.302   5.365
19831SOL     OW61389  12.341   1.407  11.342
19831SOL    HW161390  12.363   1.448  11.258
19831SOL    HW261391  12.256   1.366  11.327
19832SOL     OW61392  13.782   2.248  13.272
19832SOL    HW161393  13.784   2.340  13.299
19832SOL    HW261394  13.709   2.211  13.320
19833SOL     OW61395   8.689   5.022  13.837
19833SOL    HW161396   8.658   5.064  13.917
19833SOL    HW261397   8.668   4.929  13.849
19834SOL     OW61398  11.552   9.241   9.662
19834SOL    HW161399  11.458   9.257   9.652
19834SOL    HW261400  11.574   9.278   9.747
19835SOL     OW61401   9.034   6.280  10.422
19835SOL    HW161402   9.093   6.274  10.346
19835SOL    HW261403   9.009   6.189  10.439
19836SOL     OW61404   4.300  13.369   7.950
19836SOL    HW161405   4.275  13.443   8.005
19836SOL    HW261406   4.395  13.364   7.958
19837SOL     OW61407   2.079   8.728  14.211
19837SOL    HW161408   1.988   8.756  14.225
19837SOL    HW261409   2.074   8.663  14.141
19838SOL     OW61410  13.853   4.212   5.921
19838SOL    HW161411  13.884   4.226   6.011
19838SOL    HW261412  13.851   4.300   5.883
19839SOL     OW61413  13.075   5.699   3.662
19839SOL    HW161414  13.024   5.684   3.742
19839SOL    HW261415  13.019   5.668   3.591
19840SOL     OW61416   0.535   2.476  13.109
19840SOL    HW161417   0.585   2.428  13.043
19840SOL    HW261418   0.471   2.527  13.059
19841SOL     OW61419   1.730   9.700   7.725
19841SOL    HW161420   1.694   9.734   7.807
19841SOL    HW261421   1.697   9.610   7.719
19842SOL     OW61422   9.930  11.295   9.728
19842SOL    HW161423   9.848  11.300   9.776
19842SOL    HW261424   9.980  11.226   9.774
19843SOL     OW61425  12.424  14.825  13.688
19843SOL    HW161426  12.479  14.757  13.648
19843SOL    HW261427  12.335  14.791  13.678
19844SOL     OW61428   4.401   7.664   1.026
19844SOL    HW161429   4.468   7.596   1.013
19844SOL    HW261430   4.390   7.668   1.121
19845SOL     OW61431   4.618   5.774   4.520
19845SOL    HW161432   4.603   5.687   4.557
19845SOL    HW261433   4.598   5.765   4.427
19846SOL     OW61434  10.996   8.094  11.640
19846SOL    HW161435  10.906   8.066  11.656
19846SOL    HW261436  11.034   8.024  11.587
19847SOL     OW61437   3.301   7.918   5.152
19847SOL    HW161438   3.322   7.873   5.070
19847SOL    HW261439   3.269   7.849   5.209
19848SOL     OW61440   9.586   5.458  14.367
19848SOL    HW161441   9.566   5.549  14.389
19848SOL    HW261442   9.636   5.464  14.285
19849SOL     OW61443   0.702   6.846   4.706
19849SOL    HW161444   0.643   6.789   4.756
19849SOL    HW261445   0.746   6.898   4.772
19850SOL     OW61446  13.490   5.634   4.313
19850SOL    HW161447  13.475   5.645   4.407
19850SOL    HW261448  13.409   5.595   4.280
19851SOL     OW61449  11.032   8.271   6.128
19851SOL    HW161450  11.095   8.324   6.079
19851SOL    HW261451  11.025   8.314   6.213
19852SOL     OW61452   9.520  14.864   5.023
19852SOL    HW161453   9.455   0.051   5.013
19852SOL    HW261454   9.549  14.871   5.114
19853SOL     OW61455   3.749  13.263   3.247
19853SOL    HW161456   3.712  13.289   3.163
19853SOL    HW261457   3.816  13.199   3.226
19854SOL     OW61458  14.288  12.598   1.393
19854SOL    HW161459  14.359  12.563   1.447
19854SOL    HW261460  14.281  12.537   1.320
19855SOL     OW61461   0.322  13.167  14.130
19855SOL    HW161462   0.309  13.151  14.224
19855SOL    HW261463   0.402  13.118  14.109
19856SOL     OW61464   4.827   3.543   7.045
19856SOL    HW161465   4.793   3.617   6.996
19856SOL    HW261466   4.749   3.495   7.072
19857SOL     OW61467   5.401   9.189  10.229
19857SOL    HW161468   5.369   9.105  10.195
19857SOL    HW261469   5.434   9.168  10.316
19858SOL     OW61470   4.299   2.103   9.636
19858SOL    HW161471   4.347   2.059   9.566
19858SOL    HW261472   4.215   2.056   9.640
19859SOL     OW61473  11.269   1.871   9.792
19859SOL    HW161474  11.181   1.868   9.756
19859SOL    HW261475  11.290   1.964   9.798
19860SOL     OW61476   7.723   0.470  14.316
19860SOL    HW161477   7.679   0.386  14.329
19860SOL    HW261478   7.777   0.458  14.238
19861SOL     OW61479   1.729   8.821   9.801
19861SOL    HW161480   1.692   8.735   9.784
19861SOL    HW261481   1.742   8.859   9.715
19862SOL     OW61482   1.068  14.188  11.224
19862SOL    HW161483   1.004  14.182  11.294
19862SOL    HW261484   1.153  14.176  11.268
19863SOL     OW61485   2.493   5.926   3.186
19863SOL    HW161486   2.583   5.896   3.190
19863SOL    HW261487   2.442   5.849   3.160
19864SOL     OW61488   5.908   8.075   0.536
19864SOL    HW161489   5.895   8.165   0.566
19864SOL    HW261490   5.847   8.066   0.462
19865SOL     OW61491   9.836  12.126   1.937
19865SOL    HW161492   9.863  12.205   1.984
19865SOL    HW261493   9.910  12.106   1.879
19866SOL     OW61494   5.024   6.829   5.562
19866SOL    HW161495   4.952   6.853   5.621
19866SOL    HW261496   5.014   6.887   5.487
19867SOL     OW61497   9.873   1.903   3.284
19867SOL    HW161498   9.902   1.812   3.273
19867SOL    HW261499   9.817   1.919   3.208
19868SOL     OW61500   5.060  11.280  12.496
19868SOL    HW161501   5.109  11.204  12.463
19868SOL    HW261502   5.125  11.329  12.547
19869SOL     OW61503   8.426   6.416  13.818
19869SOL    HW161504   8.361   6.469  13.772
19869SOL    HW261505   8.377   6.342  13.852
19870SOL     OW61506   5.478   2.206   6.475
19870SOL    HW161507   5.562   2.173   6.444
19870SOL    HW261508   5.439   2.133   6.522
19871SOL     OW61509   4.480  13.118   2.210
19871SOL    HW161510   4.554  13.060   2.227
19871SOL    HW261511   4.479  13.128   2.114
19872SOL     OW61512  12.795  10.904   5.369
19872SOL    HW161513  12.708  10.906   5.409
19872SOL    HW261514  12.802  10.987   5.322
19873SOL     OW61515   0.416  11.115   5.510
19873SOL    HW161516   0.498  11.159   5.536
19873SOL    HW261517   0.349  11.182   5.523
19874SOL     OW61518  13.986   4.542   0.666
19874SOL    HW161519  13.999   4.454   0.701
19874SOL    HW261520  13.924   4.531   0.594
19875SOL     OW61521  12.356  11.964  13.669
19875SOL    HW161522  12.263  11.966  13.688
19875SOL    HW261523  12.395  11.920  13.745
19876SOL     OW61524  11.018   8.894   8.199
19876SOL    HW161525  10.940   8.839   8.187
19876SOL    HW261526  11.077   8.841   8.252
19877SOL     OW61527  14.018  11.470   7.721
19877SOL    HW161528  13.979  11.554   7.696
19877SOL    HW261529  13.946  11.421   7.760
19878SOL     OW61530   6.578   8.218   0.646
19878SOL    HW161531   6.503   8.163   0.624
19878SOL    HW261532   6.541   8.289   0.698
19879SOL     OW61533   6.365  12.711   4.867
19879SOL    HW161534   6.460  12.719   4.879
19879SOL    HW261535   6.353  12.621   4.836
19880SOL     OW61536  14.618   4.641  13.770
19880SOL    HW161537  14.607   4.571  13.707
19880SOL    HW261538  14.640   4.718  13.717
19881SOL     OW61539   9.018   7.381   0.498
19881SOL    HW161540   9.002   7.295   0.537
19881SOL    HW261541   9.040   7.362   0.407
19882SOL     OW61542   6.798   4.947   9.894
19882SOL    HW161543   6.836   4.878   9.949
19882SOL    HW261544   6.703   4.936   9.905
19883SOL     OW61545   3.270   1.553  14.871
19883SOL    HW161546   3.238   1.511   0.069
19883SOL    HW261547   3.292   1.642   0.016
19884SOL     OW61548  11.987   3.105   8.527
19884SOL    HW161549  11.903   3.104   8.481
19884SOL    HW261550  12.031   3.184   8.495
19885SOL     OW61551   8.296   1.883   0.395
19885SOL    HW161552   8.360   1.840   0.339
19885SOL    HW261553   8.310   1.976   0.381
19886SOL     OW61554   6.327   6.755   3.203
19886SOL    HW161555   6.382   6.834   3.200
19886SOL    HW261556   6.251   6.778   3.149
19887SOL     OW61557   2.348  13.115  13.491
19887SOL    HW161558   2.409  13.186  13.473
19887SOL    HW261559   2.261  13.156  13.491
19888SOL     OW61560   7.338   5.094   7.536
19888SOL    HW161561   7.307   5.180   7.508
19888SOL    HW261562   7.291   5.076   7.617
19889SOL     OW61563   2.969  14.330  12.261
19889SOL    HW161564   3.010  14.408  12.299
19889SOL    HW261565   2.891  14.317  12.314
19890SOL     OW61566   6.530  11.799   9.110
19890SOL    HW161567   6.513  11.891   9.131
19890SOL    HW261568   6.614  11.780   9.152
19891SOL     OW61569   2.189   3.498   6.400
19891SOL    HW161570   2.260   3.534   6.453
19891SOL    HW261571   2.144   3.437   6.459
19892SOL     OW61572   8.531   4.244   3.523
19892SOL    HW161573   8.592   4.229   3.596
19892SOL    HW261574   8.556   4.330   3.489
19893SOL     OW61575   3.727   2.161  11.068
19893SOL    HW161576   3.737   2.096  10.999
19893SOL    HW261577   3.633   2.161  11.087
19894SOL     OW61578  10.142  13.385   7.826
19894SOL    HW161579  10.149  13.384   7.922
19894SOL    HW261580  10.049  13.401   7.809
19895SOL     OW61581  11.416   4.376   2.994
19895SOL    HW161582  11.487   4.387   2.931
19895SOL    HW261583  11.432   4.291   3.034
19896SOL     OW61584   2.027   3.352   5.547
19896SOL    HW161585   1.997   3.317   5.463
19896SOL    HW261586   1.954   3.406   5.577
19897SOL     OW61587  10.131  12.742  11.557
19897SOL    HW161588  10.117  12.801  11.483
19897SOL    HW261589  10.218  12.705  11.542
19898SOL     OW61590  12.430  13.120   3.955
19898SOL    HW161591  12.482  13.162   3.886
19898SOL    HW261592  12.456  13.028   3.952
19899SOL     OW61593   1.448   9.591   7.095
19899SOL    HW161594   1.457   9.607   7.002
19899SOL    HW261595   1.411   9.502   7.100
19900SOL     OW61596   1.867   2.659   1.577
19900SOL    HW161597   1.866   2.702   1.662
19900SOL    HW261598   1.950   2.612   1.574
19901SOL     OW61599   3.671  13.829   6.805
19901SOL    HW161600   3.645  13.882   6.880
19901SOL    HW261601   3.620  13.749   6.812
19902SOL     OW61602  10.492   9.288  12.179
19902SOL    HW161603  10.401   9.276  12.208
19902SOL    HW261604  10.484   9.340  12.099
19903SOL     OW61605   3.921  14.714  11.769
19903SOL    HW161606   4.002  14.763  11.755
19903SOL    HW261607   3.852  14.775  11.742
19904SOL     OW61608   6.816   7.462   4.359
19904SOL    HW161609   6.744   7.519   4.334
19904SOL    HW261610   6.774   7.381   4.389
19905SOL     OW61611  12.029   8.126   5.631
19905SOL    HW161612  12.108   8.108   5.681
19905SOL    HW261613  11.957   8.104   5.689
19906SOL     OW61614  14.445  13.934   9.015
19906SOL    HW161615  14.456  13.964   8.925
19906SOL    HW261616  14.351  13.925   9.026
19907SOL     OW61617   5.771   5.684  13.951
19907SOL    HW161618   5.708   5.690  14.024
19907SOL    HW261619   5.716   5.686  13.873
19908SOL     OW61620   0.480  12.521   4.509
19908SOL    HW161621   0.527  12.505   4.427
19908SOL    HW261622   0.495  12.614   4.527
19909SOL     OW61623   5.688   4.292   5.944
19909SOL    HW161624   5.783   4.283   5.952
19909SOL    HW261625   5.672   4.297   5.850
19910SOL     OW61626  12.045   7.025   7.153
19910SOL    HW161627  12.011   6.965   7.219
19910SOL    HW261628  12.045   7.111   7.195
19911SOL     OW61629   9.886   0.387  14.671
19911SOL    HW161630   9.827   0.462  14.680
19911SOL    HW261631   9.906   0.361  14.761
19912SOL     OW61632   7.752   6.843  10.929
19912SOL    HW161633   7.807   6.921  10.923
19912SOL    HW261634   7.750   6.823  11.022
19913SOL     OW61635   1.463  10.462   4.158
19913SOL    HW161636   1.494  10.376   4.131
19913SOL    HW261637   1.389  10.444   4.216
19914SOL     OW61638  12.155   6.334   9.187
19914SOL    HW161639  12.238   6.349   9.233
19914SOL    HW261640  12.092   6.387   9.235
19915SOL     OW61641   0.825  14.130   2.002
19915SOL    HW161642   0.917  14.107   1.992
19915SOL    HW261643   0.824  14.225   2.007
19916SOL     OW61644   4.848  11.291   6.528
19916SOL    HW161645   4.856  11.325   6.438
19916SOL    HW261646   4.825  11.368   6.580
19917SOL     OW61647   5.742  11.419   2.758
19917SOL    HW161648   5.790  11.449   2.680
19917SOL    HW261649   5.653  11.404   2.727
19918SOL     OW61650   6.715   0.785  13.827
19918SOL    HW161651   6.782   0.824  13.883
19918SOL    HW261652   6.764   0.731  13.765
19919SOL     OW61653   4.299   9.661   6.505
19919SOL    HW161654   4.256   9.688   6.424
19919SOL    HW261655   4.305   9.565   6.498
19920SOL     OW61656  11.251   4.416   5.893
19920SOL    HW161657  11.268   4.466   5.813
19920SOL    HW261658  11.290   4.330   5.877
19921SOL     OW61659   0.614   5.723   7.940
19921SOL    HW161660   0.601   5.781   8.015
19921SOL    HW261661   0.702   5.688   7.951
19922SOL     OW61662  14.349   5.555   5.855
19922SOL    HW161663  14.298   5.630   5.886
19922SOL    HW261664  14.440   5.583   5.864
19923SOL     OW61665   6.527   1.850  13.741
19923SOL    HW161666   6.538   1.764  13.701
19923SOL    HW261667   6.537   1.834  13.835
19924SOL     OW61668   3.909   5.154   5.483
19924SOL    HW161669   3.853   5.218   5.529
19924SOL    HW261670   3.886   5.166   5.391
19925SOL     OW61671  14.840   5.496  10.449
19925SOL    HW161672  14.754   5.492  10.408
19925SOL    HW261673  14.867   5.587  10.441
19926SOL     OW61674   2.232   3.461   8.103
19926SOL    HW161675   2.285   3.540   8.093
19926SOL    HW261676   2.221   3.428   8.013
19927SOL     OW61677  13.378  11.525   1.367
19927SOL    HW161678  13.347  11.501   1.455
19927SOL    HW261679  13.357  11.618   1.359
19928SOL     OW61680   3.228   0.879   4.932
19928SOL    HW161681   3.207   0.871   5.025
19928SOL    HW261682   3.144   0.895   4.889
19929SOL     OW61683  12.385  10.870   6.214
19929SOL    HW161684  12.345  10.788   6.244
19929SOL    HW261685  12.318  10.911   6.159
19930SOL     OW61686   8.500  10.050   3.103
19930SOL    HW161687   8.469  10.135   3.073
19930SOL    HW261688   8.496  10.055   3.198
19931SOL     OW61689   8.044   9.360  12.248
19931SOL    HW161690   8.046   9.437  12.190
19931SOL    HW261691   7.952   9.336  12.252
19932SOL     OW61692   2.597   6.715   5.190
19932SOL    HW161693   2.540   6.695   5.265
19932SOL    HW261694   2.554   6.673   5.115
19933SOL     OW61695   2.816   8.980  10.873
19933SOL    HW161696   2.791   8.923  10.800
19933SOL    HW261697   2.762   9.058  10.862
19934SOL     OW61698  13.505  11.007   3.310
19934SOL    HW161699  13.583  11.062   3.315
19934SOL    HW261700  13.528  10.939   3.247
19935SOL     OW61701   4.655   3.086  10.327
19935SOL    HW161702   4.663   3.162  10.269
19935SOL    HW261703   4.561   3.068  10.329
19936SOL     OW61704   0.545  10.219  13.553
19936SOL    HW161705   0.559  10.165  13.476
19936SOL    HW261706   0.587  10.303  13.531
19937SOL     OW61707   3.603  13.398   7.191
19937SOL    HW161708   3.594  13.374   7.099
19937SOL    HW261709   3.594  13.493   7.192
19938SOL     OW61710  14.669  10.412   8.097
19938SOL    HW161711  14.580  10.421   8.065
19938SOL    HW261712  14.723  10.458   8.032
19939SOL     OW61713   9.742  10.475   9.440
19939SOL    HW161714   9.792  10.395   9.423
19939SOL    HW261715   9.677  10.449   9.506
19940SOL     OW61716   5.502   9.096   1.483
19940SOL    HW161717   5.439   9.044   1.434
19940SOL    HW261718   5.578   9.102   1.426
19941SOL     OW61719  11.639  14.684   4.636
19941SOL    HW161720  11.580  14.758   4.652
19941SOL    HW261721  11.719  14.706   4.684
19942SOL     OW61722   1.733   0.650   5.392
19942SOL    HW161723   1.817   0.697   5.395
19942SOL    HW261724   1.739   0.586   5.462
19943SOL     OW61725   7.499   7.126  11.096
19943SOL    HW161726   7.513   7.173  11.014
19943SOL    HW261727   7.412   7.153  11.125
19944SOL     OW61728  13.119   2.781   7.881
19944SOL    HW161729  13.110   2.811   7.972
19944SOL    HW261730  13.066   2.701   7.877
19945SOL     OW61731   6.837  11.767  12.062
19945SOL    HW161732   6.923  11.807  12.046
19945SOL    HW261733   6.848  11.720  12.145
19946SOL     OW61734   4.126   5.595   2.496
19946SOL    HW161735   4.205   5.541   2.506
19946SOL    HW261736   4.154   5.670   2.443
19947SOL     OW61737   7.433   9.694  12.404
19947SOL    HW161738   7.429   9.768  12.465
19947SOL    HW261739   7.508   9.714  12.347
19948SOL     OW61740  13.250   3.594   3.010
19948SOL    HW161741  13.246   3.628   2.921
19948SOL    HW261742  13.311   3.520   3.006
19949SOL     OW61743   5.484   6.143   3.560
19949SOL    HW161744   5.443   6.062   3.591
19949SOL    HW261745   5.435   6.213   3.604
19950SOL     OW61746   7.335  12.867   0.804
19950SOL    HW161747   7.411  12.925   0.813
19950SOL    HW261748   7.372  12.784   0.773
19951SOL     OW61749   7.373  14.114   4.652
19951SOL    HW161750   7.400  14.025   4.674
19951SOL    HW261751   7.453  14.166   4.658
19952SOL     OW61752   3.346   0.572   7.520
19952SOL    HW161753   3.311   0.658   7.496
19952SOL    HW261754   3.405   0.589   7.593
19953SOL     OW61755   0.979   3.928   6.676
19953SOL    HW161756   0.953   3.998   6.736
19953SOL    HW261757   1.059   3.891   6.715
19954SOL     OW61758  10.209  14.189  11.415
19954SOL    HW161759  10.290  14.220  11.454
19954SOL    HW261760  10.218  14.094  11.412
19955SOL     OW61761   8.641   8.817   3.434
19955SOL    HW161762   8.596   8.732   3.435
19955SOL    HW261763   8.698   8.815   3.510
19956SOL     OW61764   1.033   7.791   2.691
19956SOL    HW161765   1.033   7.712   2.637
19956SOL    HW261766   1.125   7.809   2.708
19957SOL     OW61767   6.006   8.224   5.008
19957SOL    HW161768   6.025   8.132   4.990
19957SOL    HW261769   6.062   8.273   4.946
19958SOL     OW61770   7.664  10.451   5.242
19958SOL    HW161771   7.633  10.396   5.170
19958SOL    HW261772   7.591  10.512   5.257
19959SOL     OW61773   7.149   3.518   4.164
19959SOL    HW161774   7.125   3.434   4.202
19959SOL    HW261775   7.122   3.512   4.072
19960SOL     OW61776   5.173   9.715  11.429
19960SOL    HW161777   5.146   9.772  11.357
19960SOL    HW261778   5.220   9.773  11.490
19961SOL     OW61779   4.086   8.359   9.355
19961SOL    HW161780   3.994   8.335   9.371
19961SOL    HW261781   4.097   8.350   9.260
19962SOL     OW61782   6.843   9.001  12.768
19962SOL    HW161783   6.835   9.002  12.864
19962SOL    HW261784   6.791   9.075  12.738
19963SOL     OW61785   3.874  10.757   0.405
19963SOL    HW161786   3.969  10.753   0.393
19963SOL    HW261787   3.852  10.850   0.393
19964SOL     OW61788   6.241  13.323  14.194
19964SOL    HW161789   6.191  13.244  14.216
19964SOL    HW261790   6.301  13.335  14.269
19965SOL     OW61791   7.511   5.636  11.560
19965SOL    HW161792   7.459   5.562  11.531
19965SOL    HW261793   7.570   5.655  11.487
19966SOL     OW61794  13.155  11.702   1.187
19966SOL    HW161795  13.097  11.777   1.177
19966SOL    HW261796  13.097  11.628   1.204
19967SOL     OW61797   0.342   3.170  12.618
19967SOL    HW161798   0.435   3.158  12.641
19967SOL    HW261799   0.302   3.204  12.698
19968SOL     OW61800   4.576   0.313   5.202
19968SOL    HW161801   4.482   0.317   5.221
19968SOL    HW261802   4.616   0.280   5.283
19969SOL     OW61803  10.519   9.826  10.288
19969SOL    HW161804  10.568   9.788  10.215
19969SOL    HW261805  10.532   9.764  10.360
19970SOL     OW61806   8.466  11.823  13.812
19970SOL    HW161807   8.423  11.739  13.795
19970SOL    HW261808   8.407  11.889  13.777
19971SOL     OW61809  12.107   2.163   9.304
19971SOL    HW161810  12.014   2.163   9.327
19971SOL    HW261811  12.147   2.102   9.366
19972SOL     OW61812  11.364   6.363   5.666
19972SOL    HW161813  11.400   6.402   5.746
19972SOL    HW261814  11.270   6.355   5.684
19973SOL     OW61815   3.733   3.602   3.162
19973SOL    HW161816   3.729   3.692   3.192
19973SOL    HW261817   3.656   3.560   3.201
19974SOL     OW61818   9.817   9.052  11.491
19974SOL    HW161819   9.890   8.997  11.519
19974SOL    HW261820   9.788   9.013  11.408
19975SOL     OW61821  11.509   6.210   3.111
19975SOL    HW161822  11.434   6.269   3.120
19975SOL    HW261823  11.551   6.210   3.197
19976SOL     OW61824   8.378  14.045   9.481
19976SOL    HW161825   8.396  14.133   9.515
19976SOL    HW261826   8.284  14.046   9.462
19977SOL     OW61827   2.149  13.979   9.905
19977SOL    HW161828   2.236  13.990   9.945
19977SOL    HW261829   2.148  14.042   9.833
19978SOL     OW61830  13.596   3.315   8.386
19978SOL    HW161831  13.625   3.403   8.409
19978SOL    HW261832  13.621   3.261   8.461
19979SOL     OW61833   2.656   1.222   0.122
19979SOL    HW161834   2.711   1.145   0.138
19979SOL    HW261835   2.582   1.212   0.181
19980SOL     OW61836  13.508   0.222  14.045
19980SOL    HW161837  13.581   0.185  13.996
19980SOL    HW261838  13.547   0.260  14.123
19981SOL     OW61839  13.564   4.274  10.833
19981SOL    HW161840  13.607   4.249  10.915
19981SOL    HW261841  13.490   4.328  10.860
19982SOL     OW61842  14.297  12.670   5.239
19982SOL    HW161843  14.373  12.725   5.221
19982SOL    HW261844  14.222  12.722   5.209
19983SOL     OW61845   4.461  12.730  13.836
19983SOL    HW161846   4.400  12.667  13.797
19983SOL    HW261847   4.415  12.813  13.834
19984SOL     OW61848   8.541   8.923   5.535
19984SOL    HW161849   8.630   8.945   5.508
19984SOL    HW261850   8.498   8.894   5.454
19985SOL     OW61851  12.028   1.528   1.212
19985SOL    HW161852  11.980   1.448   1.189
19985SOL    HW261853  11.966   1.577   1.265
19986SOL     OW61854  10.322   2.712  14.552
19986SOL    HW161855  10.285   2.731  14.466
19986SOL    HW261856  10.405   2.760  14.554
19987SOL     OW61857   9.027  12.505   5.922
19987SOL    HW161858   9.018  12.565   5.997
19987SOL    HW261859   9.104  12.453   5.943
19988SOL     OW61860  11.368   5.500   3.166
19988SOL    HW161861  11.394   5.494   3.075
19988SOL    HW261862  11.405   5.583   3.197
19989SOL     OW61863   0.992  11.082   0.583
19989SOL    HW161864   0.933  11.022   0.629
19989SOL    HW261865   1.042  11.026   0.523
19990SOL     OW61866  13.310  14.870   3.834
19990SOL    HW161867  13.328  14.872   3.928
19990SOL    HW261868  13.391   0.016   3.793
19991SOL     OW61869   3.502   2.159   2.450
19991SOL    HW161870   3.589   2.179   2.485
19991SOL    HW261871   3.504   2.065   2.433
19992SOL     OW61872   0.331   4.690   4.350
19992SOL    HW161873   0.335   4.741   4.431
19992SOL    HW261874   0.403   4.723   4.297
19993SOL     OW61875  13.465   3.498   7.894
19993SOL    HW161876  13.458   3.443   7.816
19993SOL    HW261877  13.384   3.482   7.942
19994SOL     OW61878   7.406   0.335   6.184
19994SOL    HW161879   7.462   0.410   6.204
19994SOL    HW261880   7.445   0.262   6.232
19995SOL     OW61881   3.131  13.049   7.132
19995SOL    HW161882   3.117  13.051   7.038
19995SOL    HW261883   3.114  13.139   7.161
19996SOL     OW61884   7.726   2.431  12.668
19996SOL    HW161885   7.790   2.361  12.653
19996SOL    HW261886   7.770   2.511  12.639
19997SOL     OW61887   4.920  12.565  10.127
19997SOL    HW161888   4.909  12.561  10.222
19997SOL    HW261889   5.000  12.616  10.114
19998SOL     OW61890   1.765   6.130   5.156
19998SOL    HW161891   1.730   6.170   5.077
19998SOL    HW261892   1.830   6.067   5.125
19999SOL     OW61893   8.399   9.652   7.006
19999SOL    HW161894   8.362   9.706   6.936
19999SOL    HW261895   8.487   9.629   6.976
20000SOL     OW61896   9.380   5.089   3.480
20000SOL    HW161897   9.297   5.047   3.504
20000SOL    HW261898   9.429   5.019   3.436
20001SOL     OW61899   5.548  10.089  12.541
20001SOL    HW161900   5.581  10.110  12.454
20001SOL    HW261901   5.479  10.025  12.525
20002SOL     OW61902   8.551   6.501   0.189
20002SOL    HW161903   8.503   6.496   0.271
20002SOL    HW261904   8.641   6.520   0.215
20003SOL     OW61905   2.560   9.526   8.421
20003SOL    HW161906   2.470   9.501   8.441
20003SOL    HW261907   2.609   9.444   8.424
20004SOL     OW61908   1.344  10.570   7.755
20004SOL    HW161909   1.334  10.655   7.799
20004SOL    HW261910   1.435  10.545   7.772
20005SOL     OW61911   1.702   8.100  13.583
20005SOL    HW161912   1.778   8.154  13.606
20005SOL    HW261913   1.654   8.152  13.518
20006SOL     OW61914   3.745   9.235   9.857
20006SOL    HW161915   3.686   9.199   9.791
20006SOL    HW261916   3.721   9.327   9.864
20007SOL     OW61917   9.631  11.012  10.761
20007SOL    HW161918   9.638  11.079  10.693
20007SOL    HW261919   9.571  11.050  10.826
20008SOL     OW61920  10.312   8.337  14.112
20008SOL    HW161921  10.276   8.296  14.190
20008SOL    HW261922  10.338   8.425  14.141
20009SOL     OW61923   0.616   3.995  13.342
20009SOL    HW161924   0.539   4.051  13.352
20009SOL    HW261925   0.672   4.017  13.416
20010SOL     OW61926  13.575   2.726  12.162
20010SOL    HW161927  13.552   2.671  12.237
20010SOL    HW261928  13.578   2.666  12.088
20011SOL     OW61929  14.043  10.855  10.719
20011SOL    HW161930  14.098  10.871  10.642
20011SOL    HW261931  13.958  10.829  10.683
20012SOL     OW61932   5.324   0.377  10.677
20012SOL    HW161933   5.310   0.403  10.586
20012SOL    HW261934   5.303   0.284  10.680
20013SOL     OW61935   0.327  13.392   0.581
20013SOL    HW161936   0.365  13.428   0.501
20013SOL    HW261937   0.358  13.450   0.650
20014SOL     OW61938  10.472   7.982  14.653
20014SOL    HW161939  10.387   8.022  14.668
20014SOL    HW261940  10.532   8.056  14.642
20015SOL     OW61941  14.334   1.622   4.124
20015SOL    HW161942  14.250   1.643   4.085
20015SOL    HW261943  14.369   1.707   4.154
20016SOL     OW61944   7.210   4.588   4.366
20016SOL    HW161945   7.185   4.568   4.456
20016SOL    HW261946   7.215   4.683   4.363
20017SOL     OW61947   3.312   6.560   1.709
20017SOL    HW161948   3.368   6.483   1.719
20017SOL    HW261949   3.336   6.617   1.782
20018SOL     OW61950   6.309   2.394   0.547
20018SOL    HW161951   6.294   2.485   0.522
20018SOL    HW261952   6.392   2.371   0.507
20019SOL     OW61953   9.087   9.685   7.775
20019SOL    HW161954   9.160   9.720   7.826
20019SOL    HW261955   9.112   9.700   7.684
20020SOL     OW61956  10.293   6.109   3.404
20020SOL    HW161957  10.237   6.058   3.463
20020SOL    HW261958  10.308   6.051   3.330
20021SOL     OW61959  10.352  10.715   0.735
20021SOL    HW161960  10.269  10.691   0.693
20021SOL    HW261961  10.370  10.642   0.794
20022SOL     OW61962   4.617   4.798   4.230
20022SOL    HW161963   4.624   4.832   4.320
20022SOL    HW261964   4.678   4.851   4.180
20023SOL     OW61965   2.470   6.626   2.368
20023SOL    HW161966   2.525   6.692   2.411
20023SOL    HW261967   2.384   6.637   2.407
20024SOL     OW61968  10.553  10.037   6.196
20024SOL    HW161969  10.486   9.984   6.152
20024SOL    HW261970  10.627  10.039   6.136
20025SOL     OW61971   6.571   9.279   7.602
20025SOL    HW161972   6.492   9.227   7.589
20025SOL    HW261973   6.556   9.324   7.685
20026SOL     OW61974   0.897  10.496   6.536
20026SOL    HW161975   0.956  10.456   6.472
20026SOL    HW261976   0.883  10.427   6.601
20027SOL     OW61977   4.573   6.961   7.820
20027SOL    HW161978   4.581   6.867   7.835
20027SOL    HW261979   4.646   6.999   7.869
20028SOL     OW61980   9.252   5.469   8.543
20028SOL    HW161981   9.246   5.438   8.453
20028SOL    HW261982   9.192   5.544   8.547
20029SOL     OW61983   0.194   0.945  12.823
20029SOL    HW161984   0.169   0.859  12.789
20029SOL    HW261985   0.254   0.980  12.757
20030SOL     OW61986   2.408   4.101  11.197
20030SOL    HW161987   2.327   4.151  11.190
20030SOL    HW261988   2.384   4.022  11.247
20031SOL     OW61989   2.793   0.082   8.328
20031SOL    HW161990   2.834   0.154   8.280
20031SOL    HW261991   2.699   0.092   8.310
20032SOL     OW61992  11.493   6.920   9.513
20032SOL    HW161993  11.538   6.984   9.567
20032SOL    HW261994  11.500   6.955   9.424
20033SOL     OW61995   3.026   0.235  14.199
20033SOL    HW161996   2.983   0.294  14.137
20033SOL    HW261997   2.954   0.185  14.239
20034SOL     OW61998   6.782   1.654  12.822
20034SOL    HW161999   6.760   1.689  12.736
20034SOL    HW262000   6.841   1.580  12.804
20035SOL     OW62001   4.367   1.823  10.490
20035SOL    HW162002   4.274   1.803  10.482
20035SOL    HW262003   4.370   1.918  10.501
20036SOL     OW62004  10.477   3.951   3.474
20036SOL    HW162005  10.566   3.924   3.454
20036SOL    HW262006  10.444   3.989   3.392
20037SOL     OW62007  10.156   1.558  14.667
20037SOL    HW162008  10.121   1.469  14.672
20037SOL    HW262009  10.172   1.572  14.573
20038SOL     OW62010   0.049   1.610  12.709
20038SOL    HW162011  14.856   1.645  12.660
20038SOL    HW262012   0.120   1.606  12.645
20039SOL     OW62013   2.887  10.306   9.463
20039SOL    HW162014   2.883  10.303   9.559
20039SOL    HW262015   2.972  10.347   9.445
20040SOL     OW62016  14.428   8.559  13.941
20040SOL    HW162017  14.436   8.582  13.849
20040SOL    HW262018  14.338   8.525  13.950
20041SOL     OW62019  14.018   6.324  12.316
20041SOL    HW162020  14.024   6.383  12.391
20041SOL    HW262021  13.988   6.241  12.352
20042SOL     OW62022  11.330   2.119   2.746
20042SOL    HW162023  11.370   2.044   2.702
20042SOL    HW262024  11.403   2.167   2.784
20043SOL     OW62025   3.371   6.671   2.284
20043SOL    HW162026   3.413   6.727   2.348
20043SOL    HW262027   3.341   6.595   2.334
20044SOL     OW62028  10.418   4.223   6.409
20044SOL    HW162029  10.490   4.278   6.440
20044SOL    HW262030  10.341   4.254   6.456
20045SOL     OW62031   7.393   1.005   5.623
20045SOL    HW162032   7.451   0.981   5.550
20045SOL    HW262033   7.306   1.010   5.583
20046SOL     OW62034   2.348   6.218   6.170
20046SOL    HW162035   2.337   6.133   6.212
20046SOL    HW262036   2.435   6.247   6.197
20047SOL     OW62037  12.600   9.802   3.940
20047SOL    HW162038  12.631   9.871   3.882
20047SOL    HW262039  12.507   9.818   3.951
20048SOL     OW62040   8.110  13.604   8.074
20048SOL    HW162041   8.142  13.657   8.147
20048SOL    HW262042   8.104  13.664   8.001
20049SOL     OW62043  13.839   2.900   5.278
20049SOL    HW162044  13.898   2.959   5.324
20049SOL    HW262045  13.838   2.932   5.188
20050SOL     OW62046   8.893  10.563  14.278
20050SOL    HW162047   8.894  10.647  14.232
20050SOL    HW262048   8.915  10.585  14.369
20051SOL     OW62049   3.377   4.599   5.282
20051SOL    HW162050   3.370   4.603   5.378
20051SOL    HW262051   3.402   4.688   5.257
20052SOL     OW62052   0.898   6.056   4.711
20052SOL    HW162053   0.900   6.063   4.807
20052SOL    HW262054   0.806   6.041   4.689
20053SOL     OW62055   6.635  14.552   2.612
20053SOL    HW162056   6.666  14.574   2.524
20053SOL    HW262057   6.705  14.501   2.650
20054SOL     OW62058   6.872   3.040   2.838
20054SOL    HW162059   6.927   3.109   2.875
20054SOL    HW262060   6.933   2.970   2.816
20055SOL     OW62061   0.792   9.052   1.823
20055SOL    HW162062   0.820   8.961   1.832
20055SOL    HW262063   0.696   9.049   1.830
20056SOL     OW62064  11.650  11.439   1.048
20056SOL    HW162065  11.621  11.455   0.958
20056SOL    HW262066  11.605  11.360   1.075
20057SOL     OW62067  11.211   5.441   4.179
20057SOL    HW162068  11.304   5.464   4.186
20057SOL    HW262069  11.166   5.508   4.232
20058SOL     OW62070  14.409   6.544   2.442
20058SOL    HW162071  14.502   6.546   2.418
20058SOL    HW262072  14.404   6.591   2.525
20059SOL     OW62073   8.840   9.252  12.741
20059SOL    HW162074   8.909   9.187  12.754
20059SOL    HW262075   8.863   9.324  12.801
20060SOL     OW62076  10.467  12.074   5.527
20060SOL    HW162077  10.374  12.051   5.519
20060SOL    HW262078  10.503  12.059   5.439
20061SOL     OW62079  10.919   3.483   1.931
20061SOL    HW162080  10.982   3.475   2.002
20061SOL    HW262081  10.857   3.410   1.945
20062SOL     OW62082   5.073  11.498   5.849
20062SOL    HW162083   5.029  11.581   5.830
20062SOL    HW262084   5.001  11.435   5.857
20063SOL     OW62085   0.415   6.456   4.166
20063SOL    HW162086   0.438   6.515   4.237
20063SOL    HW262087   0.321   6.443   4.175
20064SOL     OW62088   6.128   2.137   8.642
20064SOL    HW162089   6.162   2.225   8.659
20064SOL    HW262090   6.190   2.079   8.686
20065SOL     OW62091   2.158   5.195  11.308
20065SOL    HW162092   2.157   5.231  11.219
20065SOL    HW262093   2.250   5.173  11.324
20066SOL     OW62094   0.460   2.493   1.286
20066SOL    HW162095   0.457   2.581   1.325
20066SOL    HW262096   0.509   2.504   1.205
20067SOL     OW62097   7.142   9.604  12.998
20067SOL    HW162098   7.051   9.603  12.970
20067SOL    HW262099   7.152   9.686  13.046
20068SOL     OW62100   7.185  13.501  10.624
20068SOL    HW162101   7.169  13.589  10.589
20068SOL    HW262102   7.280  13.494  10.629
20069SOL     OW62103   1.575   2.439   4.516
20069SOL    HW162104   1.484   2.462   4.500
20069SOL    HW262105   1.618   2.452   4.431
20070SOL     OW62106  10.311  13.495  12.355
20070SOL    HW162107  10.270  13.434  12.294
20070SOL    HW262108  10.327  13.574  12.303
20071SOL     OW62109   2.052  12.620   8.022
20071SOL    HW162110   2.048  12.633   7.927
20071SOL    HW262111   1.965  12.587   8.045
20072SOL     OW62112   3.024   5.787   2.760
20072SOL    HW162113   3.023   5.773   2.666
20072SOL    HW262114   2.931   5.788   2.785
20073SOL     OW62115   3.807   7.923  12.209
20073SOL    HW162116   3.756   8.003  12.219
20073SOL    HW262117   3.898   7.952  12.202
20074SOL     OW62118   5.589   6.515   1.718
20074SOL    HW162119   5.615   6.526   1.810
20074SOL    HW262120   5.550   6.600   1.695
20075SOL     OW62121   9.485   0.902   5.600
20075SOL    HW162122   9.550   0.897   5.670
20075SOL    HW262123   9.535   0.892   5.519
20076SOL     OW62124   6.989   8.094   0.732
20076SOL    HW162125   7.020   8.068   0.645
20076SOL    HW262126   6.995   8.014   0.785
20077SOL     OW62127   8.945   4.372  14.136
20077SOL    HW162128   8.952   4.284  14.174
20077SOL    HW262129   9.016   4.421  14.177
20078SOL     OW62130   1.384   1.761   0.871
20078SOL    HW162131   1.307   1.791   0.919
20078SOL    HW262132   1.440   1.722   0.938
20079SOL     OW62133   7.088   6.296   9.612
20079SOL    HW162134   7.058   6.277   9.523
20079SOL    HW262135   7.017   6.348   9.651
20080SOL     OW62136   6.438   2.623   5.646
20080SOL    HW162137   6.462   2.698   5.700
20080SOL    HW262138   6.351   2.644   5.613
20081SOL     OW62139  13.046   5.576  10.063
20081SOL    HW162140  13.068   5.580  10.156
20081SOL    HW262141  13.100   5.505  10.029
20082SOL     OW62142  13.255   9.842   4.111
20082SOL    HW162143  13.170   9.874   4.081
20082SOL    HW262144  13.252   9.748   4.095
20083SOL     OW62145  10.288   2.780   6.306
20083SOL    HW162146  10.241   2.798   6.225
20083SOL    HW262147  10.251   2.841   6.370
20084SOL     OW62148   3.020   8.632   2.345
20084SOL    HW162149   3.092   8.649   2.284
20084SOL    HW262150   2.942   8.634   2.291
20085SOL     OW62151  14.086  12.068   7.062
20085SOL    HW162152  14.050  12.104   7.144
20085SOL    HW262153  14.069  11.974   7.068
20086SOL     OW62154   9.247  12.405  12.820
20086SOL    HW162155   9.183  12.452  12.872
20086SOL    HW262156   9.284  12.470  12.761
20087SOL     OW62157   8.152   6.362   2.007
20087SOL    HW162158   8.158   6.446   2.053
20087SOL    HW262159   8.077   6.318   2.047
20088SOL     OW62160  12.544   4.220  10.148
20088SOL    HW162161  12.609   4.205  10.216
20088SOL    HW262162  12.595   4.234  10.068
20089SOL     OW62163  11.984   2.235  14.176
20089SOL    HW162164  11.996   2.216  14.083
20089SOL    HW262165  11.923   2.169  14.207
20090SOL     OW62166   4.532  14.286   6.269
20090SOL    HW162167   4.452  14.322   6.231
20090SOL    HW262168   4.592  14.360   6.274
20091SOL     OW62169   4.009   0.301  13.899
20091SOL    HW162170   4.004   0.394  13.919
20091SOL    HW262171   4.018   0.297  13.804
20092SOL     OW62172   6.898   6.001   9.127
20092SOL    HW162173   6.870   5.937   9.061
20092SOL    HW262174   6.818   6.025   9.173
20093SOL     OW62175   6.823   2.634   6.097
20093SOL    HW162176   6.887   2.703   6.109
20093SOL    HW262177   6.813   2.628   6.002
20094SOL     OW62178  13.646   3.615   1.055
20094SOL    HW162179  13.719   3.554   1.054
20094SOL    HW262180  13.569   3.561   1.073
20095SOL     OW62181   2.177  10.688   0.166
20095SOL    HW162182   2.084  10.681   0.145
20095SOL    HW262183   2.215  10.733   0.091
20096SOL     OW62184   9.814   8.390   0.583
20096SOL    HW162185   9.858   8.473   0.565
20096SOL    HW262186   9.861   8.325   0.532
20097SOL     OW62187   7.785   8.668   7.583
20097SOL    HW162188   7.709   8.617   7.613
20097SOL    HW262189   7.844   8.602   7.546
20098SOL     OW62190  13.289   0.755   9.601
20098SOL    HW162191  13.207   0.761   9.651
20098SOL    HW262192  13.307   0.661   9.597
20099SOL     OW62193   7.497   8.535  14.468
20099SOL    HW162194   7.411   8.497  14.489
20099SOL    HW262195   7.559   8.482  14.518
20100SOL     OW62196   5.744   6.946   3.559
20100SOL    HW162197   5.723   6.926   3.650
20100SOL    HW262198   5.734   6.863   3.513
20101SOL     OW62199   6.667   4.059   8.905
20101SOL    HW162200   6.574   4.045   8.923
20101SOL    HW262201   6.712   3.994   8.959
20102SOL     OW62202   0.143   3.657   4.117
20102SOL    HW162203   0.183   3.665   4.031
20102SOL    HW262204   0.198   3.593   4.163
20103SOL     OW62205  13.873  12.009  13.310
20103SOL    HW162206  13.893  11.952  13.385
20103SOL    HW262207  13.813  11.957  13.256
20104SOL     OW62208   0.975   0.470   4.440
20104SOL    HW162209   0.905   0.455   4.376
20104SOL    HW262210   0.970   0.394   4.498
20105SOL     OW62211  11.229   6.755   1.358
20105SOL    HW162212  11.285   6.721   1.427
20105SOL    HW262213  11.150   6.785   1.404
20106SOL     OW62214   5.499   7.896   7.694
20106SOL    HW162215   5.553   7.971   7.669
20106SOL    HW262216   5.508   7.891   7.789
20107SOL     OW62217   2.925   6.483   3.673
20107SOL    HW162218   2.866   6.558   3.666
20107SOL    HW262219   2.890   6.418   3.613
20108SOL     OW62220   3.506  10.330   3.838
20108SOL    HW162221   3.592  10.363   3.861
20108SOL    HW262222   3.477  10.281   3.915
20109SOL     OW62223   3.830   3.472   6.337
20109SOL    HW162224   3.879   3.390   6.347
20109SOL    HW262225   3.894   3.541   6.349
20110SOL     OW62226  13.691   2.150   6.922
20110SOL    HW162227  13.687   2.231   6.872
20110SOL    HW262228  13.607   2.107   6.903
20111SOL     OW62229  12.877  12.547   9.134
20111SOL    HW162230  12.962  12.502   9.141
20111SOL    HW262231  12.835  12.504   9.060
20112SOL     OW62232   6.540   6.821   6.452
20112SOL    HW162233   6.523   6.795   6.361
20112SOL    HW262234   6.470   6.780   6.502
20113SOL     OW62235   8.643   3.052   6.688
20113SOL    HW162236   8.566   3.029   6.636
20113SOL    HW262237   8.646   2.987   6.758
20114SOL     OW62238  10.503   2.865   1.420
20114SOL    HW162239  10.458   2.919   1.485
20114SOL    HW262240  10.545   2.928   1.362
20115SOL     OW62241   9.520   5.489   9.718
20115SOL    HW162242   9.536   5.517   9.628
20115SOL    HW262243   9.538   5.566   9.772
20116SOL     OW62244   7.218   9.942   5.091
20116SOL    HW162245   7.125   9.966   5.093
20116SOL    HW262246   7.257   9.994   5.161
20117SOL     OW62247  10.339   7.064   6.471
20117SOL    HW162248  10.266   7.126   6.480
20117SOL    HW262249  10.403   7.093   6.535
20118SOL     OW62250   6.094  13.508   5.830
20118SOL    HW162251   6.185  13.527   5.809
20118SOL    HW262252   6.047  13.522   5.747
20119SOL     OW62253   0.523   5.187   8.186
20119SOL    HW162254   0.461   5.135   8.134
20119SOL    HW262255   0.555   5.126   8.252
20120SOL     OW62256  10.223  12.055   0.669
20120SOL    HW162257  10.240  12.127   0.730
20120SOL    HW262258  10.276  12.076   0.592
20121SOL     OW62259   2.523   9.279   1.342
20121SOL    HW162260   2.479   9.305   1.423
20121SOL    HW262261   2.561   9.360   1.308
20122SOL     OW62262   4.761   9.453   4.431
20122SOL    HW162263   4.672   9.481   4.454
20122SOL    HW262264   4.766   9.362   4.458
20123SOL     OW62265   6.332   1.024   9.811
20123SOL    HW162266   6.237   1.027   9.802
20123SOL    HW262267   6.358   0.947   9.760
20124SOL     OW62268   0.111   9.204   8.317
20124SOL    HW162269   0.056   9.131   8.348
20124SOL    HW262270   0.085   9.217   8.226
20125SOL     OW62271  10.493   2.858   7.735
20125SOL    HW162272  10.437   2.792   7.696
20125SOL    HW262273  10.547   2.811   7.798
20126SOL     OW62274   4.512   6.264   1.960
20126SOL    HW162275   4.600   6.280   1.994
20126SOL    HW262276   4.468   6.348   1.968
20127SOL     OW62277  10.786   4.243   1.025
20127SOL    HW162278  10.785   4.338   1.021
20127SOL    HW262279  10.836   4.216   0.948
20128SOL     OW62280   7.567   1.339   8.515
20128SOL    HW162281   7.660   1.345   8.536
20128SOL    HW262282   7.544   1.248   8.532
20129SOL     OW62283   7.644   5.312   8.515
20129SOL    HW162284   7.673   5.287   8.427
20129SOL    HW262285   7.669   5.238   8.571
20130SOL     OW62286   5.318  10.309   1.564
20130SOL    HW162287   5.399  10.259   1.554
20130SOL    HW262288   5.267  10.259   1.628
20131SOL     OW62289   8.005  11.393  11.269
20131SOL    HW162290   8.023  11.325  11.333
20131SOL    HW262291   7.926  11.364  11.224
20132SOL     OW62292   8.956  14.139   4.067
20132SOL    HW162293   8.874  14.096   4.093
20132SOL    HW262294   9.020  14.108   4.130
20133SOL     OW62295  14.252  13.098  13.030
20133SOL    HW162296  14.254  13.182  12.984
20133SOL    HW262297  14.266  13.033  12.962
20134SOL     OW62298  10.496  11.872   8.243
20134SOL    HW162299  10.477  11.966   8.244
20134SOL    HW262300  10.590  11.866   8.257
20135SOL     OW62301   9.866   2.580   8.563
20135SOL    HW162302   9.771   2.571   8.555
20135SOL    HW262303   9.886   2.662   8.517
20136SOL     OW62304   8.667  10.503   6.334
20136SOL    HW162305   8.659  10.471   6.244
20136SOL    HW262306   8.676  10.423   6.387
20137SOL     OW62307   7.535   6.046  10.940
20137SOL    HW162308   7.527   6.124  10.886
20137SOL    HW262309   7.489   5.978  10.890
20138SOL     OW62310  12.504  13.607   7.538
20138SOL    HW162311  12.482  13.633   7.449
20138SOL    HW262312  12.555  13.680   7.573
20139SOL     OW62313  11.847  12.561   9.542
20139SOL    HW162314  11.833  12.540   9.635
20139SOL    HW262315  11.760  12.561   9.504
20140SOL     OW62316   2.559   9.448  14.232
20140SOL    HW162317   2.646   9.483  14.249
20140SOL    HW262318   2.517   9.447  14.318
20141SOL     OW62319   1.231   4.268  14.477
20141SOL    HW162320   1.231   4.333  14.548
20141SOL    HW262321   1.177   4.197  14.510
20142SOL     OW62322   0.535   7.254   1.192
20142SOL    HW162323   0.589   7.302   1.255
20142SOL    HW262324   0.451   7.241   1.237
20143SOL     OW62325   3.824   3.069   8.851
20143SOL    HW162326   3.787   3.041   8.768
20143SOL    HW262327   3.833   3.164   8.842
20144SOL     OW62328   1.695   1.666   4.925
20144SOL    HW162329   1.775   1.664   4.978
20144SOL    HW262330   1.627   1.697   4.986
20145SOL     OW62331   3.066   2.264   8.210
20145SOL    HW162332   3.129   2.324   8.249
20145SOL    HW262333   2.993   2.262   8.271
20146SOL     OW62334  14.031   3.836  14.650
20146SOL    HW162335  13.966   3.876  14.592
20146SOL    HW262336  14.086   3.783  14.592
20147SOL     OW62337   6.696   2.756   8.140
20147SOL    HW162338   6.712   2.679   8.086
20147SOL    HW262339   6.603   2.775   8.128
20148SOL     OW62340   6.450  14.522  10.101
20148SOL    HW162341   6.388  14.449  10.100
20148SOL    HW262342   6.534  14.481  10.119
20149SOL     OW62343   9.807  11.148  12.026
20149SOL    HW162344   9.824  11.113  12.113
20149SOL    HW262345   9.729  11.203  12.037
20150SOL     OW62346   7.605   0.815   0.325
20150SOL    HW162347   7.630   0.781   0.239
20150SOL    HW262348   7.650   0.899   0.331
20151SOL     OW62349   5.056   0.288   7.293
20151SOL    HW162350   5.099   0.323   7.371
20151SOL    HW262351   5.055   0.193   7.306
20152SOL     OW62352  13.102   2.820   9.148
20152SOL    HW162353  13.193   2.823   9.122
20152SOL    HW262354  13.071   2.734   9.118
20153SOL     OW62355   6.514   4.906   9.668
20153SOL    HW162356   6.497   5.000   9.674
20153SOL    HW262357   6.542   4.881   9.756
20154SOL     OW62358  14.242   9.428   7.300
20154SOL    HW162359  14.184   9.481   7.355
20154SOL    HW262360  14.227   9.460   7.211
20155SOL     OW62361   7.446  10.902   1.319
20155SOL    HW162362   7.443  10.979   1.262
20155SOL    HW262363   7.422  10.829   1.261
20156SOL     OW62364   5.261   0.696   7.287
20156SOL    HW162365   5.340   0.644   7.270
20156SOL    HW262366   5.243   0.740   7.204
20157SOL     OW62367   8.137   3.261   9.710
20157SOL    HW162368   8.088   3.247   9.792
20157SOL    HW262369   8.194   3.336   9.728
20158SOL     OW62370  11.949   7.342   0.075
20158SOL    HW162371  11.950   7.351  14.862
20158SOL    HW262372  12.022   7.397   0.105
20159SOL     OW62373  13.036   7.063  14.100
20159SOL    HW162374  13.087   7.121  14.157
20159SOL    HW262375  13.057   7.092  14.012
20160SOL     OW62376   7.199  14.125   8.365
20160SOL    HW162377   7.163  14.036   8.368
20160SOL    HW262378   7.158  14.165   8.288
20161SOL     OW62379  11.056   4.617   2.979
20161SOL    HW162380  11.020   4.586   2.895
20161SOL    HW262381  11.113   4.690   2.955
20162SOL     OW62382  10.169   4.310   6.519
20162SOL    HW162383  10.087   4.318   6.568
20162SOL    HW262384  10.161   4.373   6.448
20163SOL     OW62385   7.738   6.106   3.245
20163SOL    HW162386   7.704   6.142   3.327
20163SOL    HW262387   7.670   6.124   3.180
20164SOL     OW62388   3.884   0.905  13.369
20164SOL    HW162389   3.932   0.901  13.451
20164SOL    HW262390   3.844   0.992  13.369
20165SOL     OW62391   6.812   5.690   8.099
20165SOL    HW162392   6.859   5.606   8.096
20165SOL    HW262393   6.818   5.723   8.009
20166SOL     OW62394   4.176   6.880   1.630
20166SOL    HW162395   4.194   6.936   1.706
20166SOL    HW262396   4.235   6.912   1.562
20167SOL     OW62397   4.705  11.473   9.986
20167SOL    HW162398   4.635  11.526   9.947
20167SOL    HW262399   4.786  11.516   9.959
20168SOL     OW62400   9.516  12.126  11.702
20168SOL    HW162401   9.437  12.073  11.706
20168SOL    HW262402   9.584  12.065  11.672
20169SOL     OW62403   3.829  11.676  11.154
20169SOL    HW162404   3.885  11.733  11.207
20169SOL    HW262405   3.741  11.713  11.164
20170SOL     OW62406  14.100   4.587   2.830
20170SOL    HW162407  14.055   4.599   2.913
20170SOL    HW262408  14.189   4.617   2.846
20171SOL     OW62409  10.806   6.981   1.649
20171SOL    HW162410  10.856   6.944   1.722
20171SOL    HW262411  10.746   7.042   1.691
20172SOL     OW62412   2.483  10.150   1.739
20172SOL    HW162413   2.409  10.209   1.750
20172SOL    HW262414   2.501  10.116   1.827
20173SOL     OW62415  13.765   6.979   5.222
20173SOL    HW162416  13.705   6.910   5.193
20173SOL    HW262417  13.836   6.931   5.265
20174SOL     OW62418   7.484   6.109   7.355
20174SOL    HW162419   7.548   6.179   7.369
20174SOL    HW262420   7.466   6.111   7.261
20175SOL     OW62421  14.420  10.437  11.093
20175SOL    HW162422  14.509  10.448  11.059
20175SOL    HW262423  14.375  10.518  11.070
20176SOL     OW62424  12.313   9.088   8.723
20176SOL    HW162425  12.249   9.104   8.793
20176SOL    HW262426  12.370   9.165   8.725
20177SOL     OW62427   5.911  12.774  11.138
20177SOL    HW162428   5.856  12.699  11.161
20177SOL    HW262429   5.994  12.736  11.110
20178SOL     OW62430   1.789   1.028   6.014
20178SOL    HW162431   1.705   0.985   6.029
20178SOL    HW262432   1.773   1.089   5.943
20179SOL     OW62433  13.670   9.419   3.779
20179SOL    HW162434  13.656   9.370   3.698
20179SOL    HW262435  13.593   9.476   3.786
20180SOL     OW62436  13.352   0.715   6.350
20180SOL    HW162437  13.344   0.625   6.320
20180SOL    HW262438  13.398   0.709   6.433
20181SOL     OW62439  11.557   7.818   3.316
20181SOL    HW162440  11.501   7.882   3.359
20181SOL    HW262441  11.498   7.765   3.262
20182SOL     OW62442   5.425   8.937  12.133
20182SOL    HW162443   5.367   8.911  12.061
20182SOL    HW262444   5.377   9.006  12.178
20183SOL     OW62445  11.819   8.011   4.183
20183SOL    HW162446  11.816   7.932   4.129
20183SOL    HW262447  11.894   7.997   4.241
20184SOL     OW62448   8.037  10.013  13.504
20184SOL    HW162449   7.965  10.052  13.554
20184SOL    HW262450   8.093   9.973  13.570
20185SOL     OW62451   6.617  12.460   1.863
20185SOL    HW162452   6.647  12.369   1.855
20185SOL    HW262453   6.680  12.510   1.812
20186SOL     OW62454  10.412  12.924   4.803
20186SOL    HW162455  10.434  12.831   4.813
20186SOL    HW262456  10.319  12.924   4.780
20187SOL     OW62457   4.914  10.796   9.672
20187SOL    HW162458   4.877  10.764   9.755
20187SOL    HW262459   4.912  10.720   9.614
20188SOL     OW62460   1.981   4.752   8.686
20188SOL    HW162461   2.029   4.725   8.609
20188SOL    HW262462   1.978   4.674   8.742
20189SOL     OW62463  13.940   5.472   8.745
20189SOL    HW162464  13.911   5.562   8.759
20189SOL    HW262465  14.032   5.472   8.772
20190SOL     OW62466   9.076   9.346  11.885
20190SOL    HW162467   9.000   9.290  11.905
20190SOL    HW262468   9.128   9.295  11.823
20191SOL     OW62469  10.211   4.992  14.064
20191SOL    HW162470  10.207   5.005  14.159
20191SOL    HW262471  10.201   5.079  14.027
20192SOL     OW62472  14.805  13.005   8.810
20192SOL    HW162473  14.762  13.082   8.847
20192SOL    HW262474   0.012  13.009   8.845
20193SOL     OW62475   4.213   2.484   1.037
20193SOL    HW162476   4.287   2.474   1.097
20193SOL    HW262477   4.231   2.423   0.966
20194SOL     OW62478  10.078   2.303   6.931
20194SOL    HW162479   9.992   2.346   6.931
20194SOL    HW262480  10.064   2.223   6.982
20195SOL     OW62481   9.180  11.613  13.094
20195SOL    HW162482   9.128  11.550  13.044
20195SOL    HW262483   9.271  11.590  13.074
20196SOL     OW62484   2.428   1.375   2.493
20196SOL    HW162485   2.427   1.280   2.506
20196SOL    HW262486   2.519   1.400   2.510
20197SOL     OW62487   4.853   4.277   3.350
20197SOL    HW162488   4.814   4.205   3.399
20197SOL    HW262489   4.871   4.240   3.264
20198SOL     OW62490  11.113   4.677  13.209
20198SOL    HW162491  11.115   4.597  13.261
20198SOL    HW262492  11.168   4.657  13.133
20199SOL     OW62493  11.498   6.956   2.610
20199SOL    HW162494  11.551   7.001   2.544
20199SOL    HW262495  11.432   6.910   2.559
20200SOL     OW62496   3.533   3.643   0.658
20200SOL    HW162497   3.520   3.737   0.651
20200SOL    HW262498   3.613   3.633   0.710
20201SOL     OW62499   7.321  11.540  10.609
20201SOL    HW162500   7.287  11.581  10.529
20201SOL    HW262501   7.323  11.447  10.589
20202SOL     OW62502  11.619   8.381   0.085
20202SOL    HW162503  11.711   8.370   0.065
20202SOL    HW262504  11.616   8.454   0.147
20203SOL     OW62505   3.956   8.505   6.782
20203SOL    HW162506   3.898   8.429   6.778
20203SOL    HW262507   3.903   8.573   6.826
20204SOL     OW62508   3.402   5.496   8.704
20204SOL    HW162509   3.389   5.541   8.620
20204SOL    HW262510   3.418   5.405   8.680
20205SOL     OW62511   7.792  10.811   1.111
20205SOL    HW162512   7.846  10.800   1.032
20205SOL    HW262513   7.736  10.733   1.112
20206SOL     OW62514   1.487  10.813   3.345
20206SOL    HW162515   1.572  10.825   3.386
20206SOL    HW262516   1.458  10.902   3.323
20207SOL     OW62517   1.790  14.308  10.256
20207SOL    HW162518   1.717  14.314  10.318
20207SOL    HW262519   1.866  14.341  10.305
20208SOL     OW62520  14.874  13.423   9.078
20208SOL    HW162521   0.077  13.408   9.121
20208SOL    HW262522  14.809  13.392   9.141
20209SOL     OW62523   1.704   5.413   2.099
20209SOL    HW162524   1.667   5.351   2.162
20209SOL    HW262525   1.795   5.387   2.090
20210SOL     OW62526   0.298   8.348   5.790
20210SOL    HW162527   0.298   8.268   5.842
20210SOL    HW262528   0.206   8.362   5.766
20211SOL     OW62529   7.126   7.375  14.539
20211SOL    HW162530   7.175   7.451  14.506
20211SOL    HW262531   7.063   7.356  14.470
20212SOL     OW62532   4.031   2.400  12.025
20212SOL    HW162533   3.941   2.389  12.054
20212SOL    HW262534   4.025   2.413  11.931
20213SOL     OW62535   9.649   4.905  11.749
20213SOL    HW162536   9.688   4.966  11.812
20213SOL    HW262537   9.555   4.912  11.764
20214SOL     OW62538  14.272   3.830   4.197
20214SOL    HW162539  14.356   3.856   4.158
20214SOL    HW262540  14.231   3.774   4.131
20215SOL     OW62541   7.587  11.768  12.122
20215SOL    HW162542   7.614  11.756  12.213
20215SOL    HW262543   7.492  11.757  12.124
20216SOL     OW62544  13.740   6.049   3.531
20216SOL    HW162545  13.818   6.098   3.555
20216SOL    HW262546  13.715   6.002   3.610
20217SOL     OW62547  12.686  14.150   3.179
20217SOL    HW162548  12.648  14.185   3.259
20217SOL    HW262549  12.705  14.058   3.199
20218SOL     OW62550  11.532  10.554   0.956
20218SOL    HW162551  11.511  10.549   1.050
20218SOL    HW262552  11.533  10.462   0.928
20219SOL     OW62553   7.058   5.894   1.754
20219SOL    HW162554   7.030   5.965   1.696
20219SOL    HW262555   6.981   5.874   1.807
20220SOL     OW62556  14.162   8.020  10.376
20220SOL    HW162557  14.104   8.097  10.375
20220SOL    HW262558  14.138   7.973  10.456
20221SOL     OW62559   4.172   2.369   8.465
20221SOL    HW162560   4.179   2.299   8.529
20221SOL    HW262561   4.085   2.357   8.426
20222SOL     OW62562   2.079  11.727   3.096
20222SOL    HW162563   2.029  11.809   3.102
20222SOL    HW262564   2.016  11.659   3.118
20223SOL     OW62565   6.369   6.814   9.601
20223SOL    HW162566   6.454   6.822   9.558
20223SOL    HW262567   6.309   6.787   9.532
20224SOL     OW62568   8.686   8.520  11.011
20224SOL    HW162569   8.692   8.439  10.961
20224SOL    HW262570   8.602   8.514  11.057
20225SOL     OW62571  11.129   2.983   3.078
20225SOL    HW162572  11.193   2.915   3.101
20225SOL    HW262573  11.134   3.047   3.149
20226SOL     OW62574  14.308  10.344   6.096
20226SOL    HW162575  14.359  10.361   6.175
20226SOL    HW262576  14.243  10.415   6.094
20227SOL     OW62577  13.523  10.406   0.318
20227SOL    HW162578  13.494  10.497   0.324
20227SOL    HW262579  13.616  10.408   0.342
20228SOL     OW62580  12.519  10.235  13.811
20228SOL    HW162581  12.573  10.168  13.853
20228SOL    HW262582  12.458  10.186  13.756
20229SOL     OW62583   9.379   0.102   0.531
20229SOL    HW162584   9.440   0.088   0.458
20229SOL    HW262585   9.339   0.187   0.513
20230SOL     OW62586   1.911  12.096   7.127
20230SOL    HW162587   1.984  12.041   7.098
20230SOL    HW262588   1.944  12.140   7.205
20231SOL     OW62589   2.544   7.098   4.184
20231SOL    HW162590   2.462   7.137   4.151
20231SOL    HW262591   2.522   7.007   4.201
20232SOL     OW62592  12.121  11.296   0.260
20232SOL    HW162593  12.143  11.356   0.331
20232SOL    HW262594  12.025  11.290   0.262
20233SOL     OW62595  10.538  13.300  10.561
20233SOL    HW162596  10.616  13.332  10.607
20233SOL    HW262597  10.470  13.363  10.585
20234SOL     OW62598   6.538  12.536   6.086
20234SOL    HW162599   6.630  12.528   6.061
20234SOL    HW262600   6.489  12.512   6.007
20235SOL     OW62601  12.491  13.434   5.933
20235SOL    HW162602  12.495  13.500   5.864
20235SOL    HW262603  12.519  13.479   6.012
20236SOL     OW62604   6.493   3.215   3.834
20236SOL    HW162605   6.461   3.157   3.903
20236SOL    HW262606   6.588   3.207   3.838
20237SOL     OW62607   1.529  10.311  14.667
20237SOL    HW162608   1.614  10.299  14.709
20237SOL    HW262609   1.542  10.279  14.578
20238SOL     OW62610   7.700   9.416   3.149
20238SOL    HW162611   7.712   9.321   3.146
20238SOL    HW262612   7.735   9.442   3.234
20239SOL     OW62613   8.266  12.272   7.322
20239SOL    HW162614   8.327  12.286   7.394
20239SOL    HW262615   8.294  12.334   7.254
20240SOL     OW62616   1.596  12.142  11.647
20240SOL    HW162617   1.630  12.144  11.557
20240SOL    HW262618   1.658  12.087  11.695
20241SOL     OW62619   3.523   9.760  10.457
20241SOL    HW162620   3.496   9.675  10.422
20241SOL    HW262621   3.441   9.802  10.483
20242SOL     OW62622   7.931   5.970   4.943
20242SOL    HW162623   7.970   5.892   4.984
20242SOL    HW262624   7.977   5.979   4.860
20243SOL     OW62625   8.446   4.266  14.596
20243SOL    HW162626   8.453   4.255  14.691
20243SOL    HW262627   8.503   4.198  14.560
20244SOL     OW62628  10.286   7.261  12.318
20244SOL    HW162629  10.207   7.209  12.307
20244SOL    HW262630  10.354   7.213  12.270
20245SOL     OW62631   5.903   0.398   4.114
20245SOL    HW162632   5.934   0.476   4.160
20245SOL    HW262633   5.808   0.410   4.110
20246SOL     OW62634  12.262  10.627   6.213
20246SOL    HW162635  12.210  10.683   6.271
20246SOL    HW262636  12.278  10.548   6.263
20247SOL     OW62637   5.972   7.142   4.467
20247SOL    HW162638   5.906   7.098   4.521
20247SOL    HW262639   5.967   7.234   4.493
20248SOL     OW62640   6.097   2.797  14.216
20248SOL    HW162641   6.099   2.837  14.130
20248SOL    HW262642   6.068   2.866  14.275
20249SOL     OW62643   2.264  11.608   6.150
20249SOL    HW162644   2.343  11.620   6.098
20249SOL    HW262645   2.237  11.518   6.134
20250SOL     OW62646  10.376  11.973  14.331
20250SOL    HW162647  10.281  11.981  14.327
20250SOL    HW262648  10.395  11.890  14.288
20251SOL     OW62649   5.140   2.588   2.549
20251SOL    HW162650   5.115   2.519   2.610
20251SOL    HW262651   5.193   2.544   2.482
20252SOL     OW62652   6.213   7.713   4.673
20252SOL    HW162653   6.120   7.714   4.692
20252SOL    HW262654   6.218   7.710   4.578
20253SOL     OW62655  12.616   7.823  14.154
20253SOL    HW162656  12.576   7.908  14.136
20253SOL    HW262657  12.647   7.830  14.245
20254SOL     OW62658   1.862   3.647   2.825
20254SOL    HW162659   1.773   3.620   2.803
20254SOL    HW262660   1.911   3.565   2.834
20255SOL     OW62661   4.355   8.767  13.938
20255SOL    HW162662   4.451   8.769  13.935
20255SOL    HW262663   4.329   8.706  13.869
20256SOL     OW62664  12.203   0.993   5.006
20256SOL    HW162665  12.230   0.965   5.094
20256SOL    HW262666  12.285   1.017   4.963
20257SOL     OW62667  13.682   1.859   9.118
20257SOL    HW162668  13.643   1.839   9.033
20257SOL    HW262669  13.608   1.864   9.178
20258SOL     OW62670   1.096   4.082  11.692
20258SOL    HW162671   1.043   4.003  11.706
20258SOL    HW262672   1.076   4.138  11.766
20259SOL     OW62673   3.949   4.579  10.098
20259SOL    HW162674   3.897   4.645  10.052
20259SOL    HW262675   4.007   4.629  10.155
20260SOL     OW62676   6.860   6.331   3.598
20260SOL    HW162677   6.806   6.400   3.636
20260SOL    HW262678   6.922   6.378   3.541
20261SOL     OW62679   6.486   9.279  11.675
20261SOL    HW162680   6.531   9.252  11.594
20261SOL    HW262681   6.553   9.327  11.724
20262SOL     OW62682  11.341  10.995  10.295
20262SOL    HW162683  11.375  11.081  10.270
20262SOL    HW262684  11.412  10.934  10.274
20263SOL     OW62685  10.778  10.516   3.765
20263SOL    HW162686  10.776  10.438   3.708
20263SOL    HW262687  10.836  10.492   3.837
20264SOL     OW62688   8.748   3.109   2.359
20264SOL    HW162689   8.716   3.031   2.404
20264SOL    HW262690   8.695   3.114   2.279
20265SOL     OW62691   3.131  11.674  14.283
20265SOL    HW162692   3.145  11.768  14.273
20265SOL    HW262693   3.150  11.637  14.197
20266SOL     OW62694  14.082   3.890   7.696
20266SOL    HW162695  14.131   3.965   7.729
20266SOL    HW262696  14.142   3.816   7.709
20267SOL     OW62697   4.070  14.786   6.398
20267SOL    HW162698   4.102  14.756   6.313
20267SOL    HW262699   4.000  14.848   6.376
20268SOL     OW62700   4.851  13.114   9.644
20268SOL    HW162701   4.894  13.082   9.565
20268SOL    HW262702   4.830  13.035   9.693
20269SOL     OW62703   9.833   6.226   9.091
20269SOL    HW162704   9.846   6.283   9.015
20269SOL    HW262705   9.743   6.195   9.082
20270SOL     OW62706   7.400   4.795   1.375
20270SOL    HW162707   7.346   4.731   1.420
20270SOL    HW262708   7.467   4.743   1.331
20271SOL     OW62709   0.921   8.401   1.367
20271SOL    HW162710   0.965   8.390   1.451
20271SOL    HW262711   0.889   8.313   1.345
20272SOL     OW62712   8.780   7.608  11.067
20272SOL    HW162713   8.755   7.687  11.114
20272SOL    HW262714   8.739   7.617  10.981
20273SOL     OW62715  11.337  10.728   3.419
20273SOL    HW162716  11.283  10.807   3.427
20273SOL    HW262717  11.277  10.656   3.438
20274SOL     OW62718   9.756   5.856  13.610
20274SOL    HW162719   9.722   5.783  13.661
20274SOL    HW262720   9.731   5.934  13.660
20275SOL     OW62721   8.520   2.131  11.884
20275SOL    HW162722   8.463   2.185  11.938
20275SOL    HW262723   8.500   2.157  11.795
20276SOL     OW62724   3.629   9.873  13.975
20276SOL    HW162725   3.553   9.816  13.963
20276SOL    HW262726   3.613   9.947  13.916
20277SOL     OW62727   5.147  11.443   0.768
20277SOL    HW162728   5.173  11.532   0.793
20277SOL    HW262729   5.183  11.432   0.679
20278SOL     OW62730  12.579  10.505   6.537
20278SOL    HW162731  12.555  10.475   6.625
20278SOL    HW262732  12.560  10.430   6.481
20279SOL     OW62733  10.029  10.417   0.471
20279SOL    HW162734  10.057  10.332   0.505
20279SOL    HW262735  10.059  10.417   0.381
20280SOL     OW62736  13.370   9.082   4.669
20280SOL    HW162737  13.398   9.146   4.734
20280SOL    HW262738  13.330   9.012   4.720
20281SOL     OW62739   7.206   7.017   8.447
20281SOL    HW162740   7.239   6.936   8.407
20281SOL    HW262741   7.276   7.081   8.434
20282SOL     OW62742  13.292   8.582  14.674
20282SOL    HW162743  13.320   8.632  14.751
20282SOL    HW262744  13.235   8.642  14.627
20283SOL     OW62745  10.180   3.930   6.553
20283SOL    HW162746  10.170   3.835   6.557
20283SOL    HW262747  10.207   3.948   6.463
20284SOL     OW62748  11.907   8.680   2.626
20284SOL    HW162749  11.826   8.688   2.576
20284SOL    HW262750  11.911   8.761   2.678
20285SOL     OW62751   5.587   9.377   7.548
20285SOL    HW162752   5.569   9.430   7.626
20285SOL    HW262753   5.633   9.436   7.489
20286SOL     OW62754  11.282  14.226  10.647
20286SOL    HW162755  11.303  14.188  10.733
20286SOL    HW262756  11.213  14.290  10.667
20287SOL     OW62757  14.099  12.275   1.124
20287SOL    HW162758  14.141  12.190   1.115
20287SOL    HW262759  14.127  12.324   1.046
20288SOL     OW62760  14.228   8.427   3.363
20288SOL    HW162761  14.303   8.439   3.421
20288SOL    HW262762  14.155   8.465   3.411
20289SOL     OW62763  12.395  12.793   0.734
20289SOL    HW162764  12.364  12.777   0.645
20289SOL    HW262765  12.356  12.877   0.759
20290SOL     OW62766   1.115   6.218  10.609
20290SOL    HW162767   1.038   6.162  10.615
20290SOL    HW262768   1.134   6.222  10.515
20291SOL     OW62769  14.123  14.685  11.564
20291SOL    HW162770  14.097  14.698  11.473
20291SOL    HW262771  14.123  14.773  11.602
20292SOL     OW62772   4.472   8.658   0.976
20292SOL    HW162773   4.482   8.617   1.062
20292SOL    HW262774   4.456   8.584   0.916
20293SOL     OW62775   6.244   2.711   9.402
20293SOL    HW162776   6.289   2.756   9.474
20293SOL    HW262777   6.315   2.677   9.347
20294SOL     OW62778   7.326  12.578  14.019
20294SOL    HW162779   7.241  12.535  14.010
20294SOL    HW262780   7.352  12.601  13.930
20295SOL     OW62781   4.062  14.597   6.910
20295SOL    HW162782   3.981  14.547   6.920
20295SOL    HW262783   4.126  14.548   6.961
20296SOL     OW62784   4.824  14.531  11.521
20296SOL    HW162785   4.767  14.588  11.572
20296SOL    HW262786   4.771  14.503  11.447
20297SOL     OW62787   2.771  12.801  13.037
20297SOL    HW162788   2.789  12.711  13.064
20297SOL    HW262789   2.818  12.811  12.954
20298SOL     OW62790   0.872   6.042   5.543
20298SOL    HW162791   0.871   6.025   5.637
20298SOL    HW262792   0.900   6.133   5.535
20299SOL     OW62793   0.542  13.363  12.617
20299SOL    HW162794   0.599  13.432  12.652
20299SOL    HW262795   0.504  13.401  12.538
20300SOL     OW62796  13.885  13.209  14.850
20300SOL    HW162797  13.878  13.291  14.801
20300SOL    HW262798  13.929  13.234   0.050
20301SOL     OW62799   6.361   7.135   2.322
20301SOL    HW162800   6.433   7.178   2.368
20301SOL    HW262801   6.285   7.190   2.341
20302SOL     OW62802  13.477   4.138   0.698
20302SOL    HW162803  13.406   4.160   0.638
20302SOL    HW262804  13.441   4.068   0.752
20303SOL     OW62805   6.637   1.585  14.160
20303SOL    HW162806   6.573   1.515  14.152
20303SOL    HW262807   6.719   1.541  14.181
20304SOL     OW62808   0.421  13.697  11.505
20304SOL    HW162809   0.345  13.711  11.561
20304SOL    HW262810   0.406  13.755  11.430
20305SOL     OW62811   6.631   1.388   7.407
20305SOL    HW162812   6.621   1.416   7.316
20305SOL    HW262813   6.590   1.458   7.459
20306SOL     OW62814   8.456   3.440  14.377
20306SOL    HW162815   8.434   3.412  14.288
20306SOL    HW262816   8.463   3.535  14.372
20307SOL     OW62817   9.612   1.255  11.925
20307SOL    HW162818   9.600   1.340  11.966
20307SOL    HW262819   9.578   1.265  11.836
20308SOL     OW62820   6.356  10.247  10.193
20308SOL    HW162821   6.337  10.250  10.287
20308SOL    HW262822   6.310  10.169  10.162
20309SOL     OW62823   9.498   7.217  13.920
20309SOL    HW162824   9.434   7.229  13.990
20309SOL    HW262825   9.458   7.258  13.843
20310SOL     OW62826   4.129  12.250  13.263
20310SOL    HW162827   4.133  12.345  13.274
20310SOL    HW262828   4.036  12.231  13.259
20311SOL     OW62829   3.184   2.922   6.487
20311SOL    HW162830   3.099   2.906   6.528
20311SOL    HW262831   3.245   2.867   6.535
20312SOL     OW62832   9.489  13.641  11.546
20312SOL    HW162833   9.441  13.672  11.469
20312SOL    HW262834   9.573  13.687  11.543
20313SOL     OW62835  13.710   9.097   9.574
20313SOL    HW162836  13.720   9.190   9.597
20313SOL    HW262837  13.715   9.051   9.658
20314SOL     OW62838  13.550   4.909   9.077
20314SOL    HW162839  13.496   4.904   9.156
20314SOL    HW262840  13.488   4.895   9.005
20315SOL     OW62841   5.024  13.030  11.055
20315SOL    HW162842   5.078  12.999  11.128
20315SOL    HW262843   4.981  13.109  11.089
20316SOL     OW62844   5.292   7.336  14.348
20316SOL    HW162845   5.326   7.373  14.267
20316SOL    HW262846   5.234   7.403  14.383
20317SOL     OW62847   7.925   1.395   6.941
20317SOL    HW162848   7.975   1.314   6.926
20317SOL    HW262849   7.864   1.372   7.011
20318SOL     OW62850   6.056   5.113   2.633
20318SOL    HW162851   6.004   5.119   2.713
20318SOL    HW262852   6.004   5.159   2.567
20319SOL     OW62853  14.302   6.491   9.232
20319SOL    HW162854  14.248   6.548   9.176
20319SOL    HW262855  14.242   6.422   9.260
20320SOL     OW62856   2.278  12.689   5.638
20320SOL    HW162857   2.324  12.666   5.718
20320SOL    HW262858   2.336  12.660   5.568
20321SOL     OW62859   4.242   3.929  13.617
20321SOL    HW162860   4.229   3.890  13.704
20321SOL    HW262861   4.254   4.022  13.633
20322SOL     OW62862   5.260   5.203   8.149
20322SOL    HW162863   5.204   5.233   8.220
20322SOL    HW262864   5.340   5.173   8.193
20323SOL     OW62865   9.836  13.378   4.396
20323SOL    HW162866   9.841  13.303   4.336
20323SOL    HW262867   9.772  13.351   4.461
20324SOL     OW62868  12.008  10.129   0.489
20324SOL    HW162869  11.993  10.187   0.414
20324SOL    HW262870  12.058  10.182   0.551
20325SOL     OW62871   3.672   2.651   3.551
20325SOL    HW162872   3.641   2.606   3.629
20325SOL    HW262873   3.746   2.704   3.581
20326SOL     OW62874  10.823  12.342  11.305
20326SOL    HW162875  10.899  12.299  11.267
20326SOL    HW262876  10.804  12.292  11.384
20327SOL     OW62877   1.643   7.371   8.927
20327SOL    HW162878   1.596   7.312   8.869
20327SOL    HW262879   1.678   7.314   8.996
20328SOL     OW62880   1.844  13.889   4.346
20328SOL    HW162881   1.782  13.919   4.413
20328SOL    HW262882   1.867  13.800   4.372
20329SOL     OW62883   4.882  10.866  13.536
20329SOL    HW162884   4.948  10.798  13.548
20329SOL    HW262885   4.902  10.931  13.603
20330SOL     OW62886   5.906  10.762   8.743
20330SOL    HW162887   5.878  10.683   8.790
20330SOL    HW262888   5.839  10.827   8.765
20331SOL     OW62889  13.909  11.181   1.486
20331SOL    HW162890  13.950  11.101   1.519
20331SOL    HW262891  13.928  11.180   1.392
20332SOL     OW62892  12.738  13.786   8.379
20332SOL    HW162893  12.745  13.695   8.408
20332SOL    HW262894  12.827  13.820   8.382
20333SOL     OW62895   6.225   5.840   2.788
20333SOL    HW162896   6.150   5.784   2.805
20333SOL    HW262897   6.189   5.915   2.741
20334SOL     OW62898   3.655   8.046  13.195
20334SOL    HW162899   3.669   8.114  13.129
20334SOL    HW262900   3.619   8.093  13.270
20335SOL     OW62901   8.319  11.566   7.102
20335SOL    HW162902   8.258  11.494   7.117
20335SOL    HW262903   8.404  11.532   7.130
20336SOL     OW62904   8.417  14.313   4.735
20336SOL    HW162905   8.439  14.244   4.672
20336SOL    HW262906   8.395  14.267   4.815
20337SOL     OW62907  10.957   7.460   9.881
20337SOL    HW162908  10.948   7.491   9.971
20337SOL    HW262909  11.006   7.378   9.889
20338SOL     OW62910   0.530  11.078   3.015
20338SOL    HW162911   0.539  11.055   2.922
20338SOL    HW262912   0.459  11.142   3.017
20339SOL     OW62913  14.305   0.755  10.523
20339SOL    HW162914  14.259   0.837  10.507
20339SOL    HW262915  14.287   0.702  10.445
20340SOL     OW62916   3.297  13.998  11.466
20340SOL    HW162917   3.386  13.982  11.434
20340SOL    HW262918   3.240  13.951  11.405
20341SOL     OW62919   3.991   3.616   3.722
20341SOL    HW162920   3.918   3.555   3.732
20341SOL    HW262921   4.055   3.589   3.788
20342SOL     OW62922   5.978   8.805   3.974
20342SOL    HW162923   5.924   8.798   3.895
20342SOL    HW262924   5.973   8.897   3.999
20343SOL     OW62925  11.061   7.079  10.307
20343SOL    HW162926  10.980   7.029  10.317
20343SOL    HW262927  11.109   7.032  10.239
20344SOL     OW62928  11.435  13.499  12.769
20344SOL    HW162929  11.340  13.488  12.761
20344SOL    HW262930  11.447  13.590  12.795
20345SOL     OW62931   3.503  12.517  12.277
20345SOL    HW162932   3.408  12.505  12.274
20345SOL    HW262933   3.538  12.432  12.251
20346SOL     OW62934  11.278  11.693   7.233
20346SOL    HW162935  11.367  11.671   7.259
20346SOL    HW262936  11.257  11.772   7.282
20347SOL     OW62937   2.905   1.319   7.662
20347SOL    HW162938   2.860   1.295   7.743
20347SOL    HW262939   2.990   1.352   7.692
20348SOL     OW62940   8.632  13.840   2.463
20348SOL    HW162941   8.616  13.809   2.374
20348SOL    HW262942   8.726  13.831   2.475
20349SOL     OW62943  12.706   0.226  10.082
20349SOL    HW162944  12.698   0.203   9.989
20349SOL    HW262945  12.619   0.211  10.118
20350SOL     OW62946   0.294   4.385   9.232
20350SOL    HW162947   0.374   4.418   9.274
20350SOL    HW262948   0.235   4.364   9.305
20351SOL     OW62949   7.572   6.882  13.016
20351SOL    HW162950   7.614   6.898  13.101
20351SOL    HW262951   7.608   6.798  12.988
20352SOL     OW62952   6.658  11.486   2.126
20352SOL    HW162953   6.590  11.524   2.071
20352SOL    HW262954   6.627  11.396   2.143
20353SOL     OW62955   8.007   4.609  14.124
20353SOL    HW162956   8.006   4.571  14.212
20353SOL    HW262957   8.006   4.703  14.138
20354SOL     OW62958   3.601   2.158  13.648
20354SOL    HW162959   3.667   2.123  13.708
20354SOL    HW262960   3.530   2.187  13.705
20355SOL     OW62961   4.969   9.064  13.250
20355SOL    HW162962   4.961   8.973  13.278
20355SOL    HW262963   4.881   9.087  13.218
20356SOL     OW62964  11.300   3.515   1.453
20356SOL    HW162965  11.214   3.503   1.492
20356SOL    HW262966  11.335   3.426   1.445
20357SOL     OW62967  11.011  14.173  14.672
20357SOL    HW162968  11.053  14.090  14.651
20357SOL    HW262969  10.923  14.165  14.636
20358SOL     OW62970  14.478   0.082   1.290
20358SOL    HW162971  14.529   0.152   1.250
20358SOL    HW262972  14.412   0.058   1.224
20359SOL     OW62973   0.685  11.732  11.268
20359SOL    HW162974   0.715  11.784  11.342
20359SOL    HW262975   0.657  11.796  11.203
20360SOL     OW62976  11.773   3.359   4.585
20360SOL    HW162977  11.850   3.337   4.638
20360SOL    HW262978  11.710   3.290   4.605
20361SOL     OW62979   1.690   0.420   6.162
20361SOL    HW162980   1.720   0.392   6.075
20361SOL    HW262981   1.646   0.504   6.146
20362SOL     OW62982  12.488   2.376  10.314
20362SOL    HW162983  12.581   2.356  10.316
20362SOL    HW262984  12.482   2.466  10.347
20363SOL     OW62985   7.913   0.920   1.221
20363SOL    HW162986   7.978   0.960   1.278
20363SOL    HW262987   7.917   0.827   1.242
20364SOL     OW62988   4.115   9.037  11.372
20364SOL    HW162989   4.130   8.948  11.340
20364SOL    HW262990   4.104   9.028  11.467
20365SOL     OW62991  13.264   1.265   0.979
20365SOL    HW162992  13.256   1.215   0.898
20365SOL    HW262993  13.351   1.305   0.974
20366SOL     OW62994   5.719  12.362   3.079
20366SOL    HW162995   5.790  12.396   3.025
20366SOL    HW262996   5.729  12.406   3.163
20367SOL     OW62997  10.741   0.564   2.688
20367SOL    HW162998  10.833   0.566   2.663
20367SOL    HW262999  10.715   0.473   2.676
20368SOL     OW63000  13.670   0.637   5.061
20368SOL    HW163001  13.647   0.729   5.076
20368SOL    HW263002  13.588   0.596   5.036
20369SOL     OW63003  13.123  13.829  14.489
20369SOL    HW163004  13.074  13.809  14.568
20369SOL    HW263005  13.080  13.905  14.451
20370SOL     OW63006  12.083   4.339   0.263
20370SOL    HW163007  12.043   4.333   0.350
20370SOL    HW263008  12.118   4.252   0.247
20371SOL     OW63009   4.558  13.707   3.416
20371SOL    HW163010   4.523  13.787   3.376
20371SOL    HW263011   4.629  13.738   3.472
20372SOL     OW63012  10.696   1.409  11.358
20372SOL    HW163013  10.631   1.433  11.424
20372SOL    HW263014  10.745   1.490  11.342
20373SOL     OW63015   6.562   3.458   4.012
20373SOL    HW163016   6.552   3.494   3.924
20373SOL    HW263017   6.570   3.534   4.069
20374SOL     OW63018  11.223  11.513   9.917
20374SOL    HW163019  11.268  11.474   9.992
20374SOL    HW263020  11.169  11.442   9.882
20375SOL     OW63021   9.870   0.252   5.281
20375SOL    HW163022   9.849   0.284   5.193
20375SOL    HW263023   9.876   0.157   5.270
20376SOL     OW63024  10.290   1.156  14.206
20376SOL    HW163025  10.251   1.207  14.277
20376SOL    HW263026  10.219   1.143  14.144
20377SOL     OW63027   8.508   6.499  14.091
20377SOL    HW163028   8.558   6.419  14.107
20377SOL    HW263029   8.473   6.488  14.002
20378SOL     OW63030  10.001   1.113   3.787
20378SOL    HW163031  10.063   1.076   3.850
20378SOL    HW263032   9.935   1.158   3.841
20379SOL     OW63033   1.221  13.394  13.446
20379SOL    HW163034   1.192  13.312  13.486
20379SOL    HW263035   1.294  13.423  13.501
20380SOL     OW63036  11.321  11.563   9.205
20380SOL    HW163037  11.262  11.616   9.259
20380SOL    HW263038  11.405  11.610   9.209
20381SOL     OW63039  12.104   1.138  12.596
20381SOL    HW163040  12.148   1.079  12.535
20381SOL    HW263041  12.174   1.190  12.635
20382SOL     OW63042   7.500   4.660   7.279
20382SOL    HW163043   7.521   4.586   7.222
20382SOL    HW263044   7.411   4.684   7.256
20383SOL     OW63045   0.180   3.604  10.580
20383SOL    HW163046   0.088   3.586  10.598
20383SOL    HW263047   0.186   3.605  10.484
20384SOL     OW63048   3.550  14.131   9.188
20384SOL    HW163049   3.520  14.040   9.183
20384SOL    HW263050   3.628  14.127   9.244
20385SOL     OW63051   0.429   2.110  10.083
20385SOL    HW163052   0.445   2.136  10.173
20385SOL    HW263053   0.486   2.034  10.070
20386SOL     OW63054   3.737   7.345   6.201
20386SOL    HW163055   3.750   7.368   6.109
20386SOL    HW263056   3.824   7.352   6.240
20387SOL     OW63057   0.989   2.283  12.647
20387SOL    HW163058   1.012   2.271  12.740
20387SOL    HW263059   0.932   2.359  12.646
20388SOL     OW63060  12.046  10.797   3.526
20388SOL    HW163061  12.061  10.761   3.613
20388SOL    HW263062  12.111  10.754   3.471
20389SOL     OW63063  10.323  11.672   5.862
20389SOL    HW163064  10.296  11.652   5.772
20389SOL    HW263065  10.309  11.767   5.869
20390SOL     OW63066   6.173   2.682  14.723
20390SOL    HW163067   6.161   2.752  14.658
20390SOL    HW263068   6.198   2.728  14.803
20391SOL     OW63069  12.464   8.332   9.058
20391SOL    HW163070  12.515   8.254   9.076
20391SOL    HW263071  12.528   8.403   9.059
20392SOL     OW63072   8.302  12.294  12.036
20392SOL    HW163073   8.279  12.350  11.962
20392SOL    HW263074   8.218  12.270  12.075
20393SOL     OW63075   1.240   5.095   9.629
20393SOL    HW163076   1.196   5.168   9.670
20393SOL    HW263077   1.275   5.131   9.547
20394SOL     OW63078  11.807  13.643  11.450
20394SOL    HW163079  11.721  13.669  11.485
20394SOL    HW263080  11.786  13.599  11.367
20395SOL     OW63081   6.113   2.966   4.240
20395SOL    HW163082   6.159   2.890   4.205
20395SOL    HW263083   6.057   2.995   4.168
20396SOL     OW63084  13.475   2.830  13.598
20396SOL    HW163085  13.475   2.808  13.691
20396SOL    HW263086  13.398   2.885  13.586
20397SOL     OW63087   4.607   0.742   2.226
20397SOL    HW163088   4.567   0.728   2.140
20397SOL    HW263089   4.635   0.655   2.254
20398SOL     OW63090   1.092   9.957  11.140
20398SOL    HW163091   1.147   9.924  11.212
20398SOL    HW263092   1.017   9.898  11.138
20399SOL     OW63093   8.941   2.072  10.932
20399SOL    HW163094   9.007   2.141  10.934
20399SOL    HW263095   8.991   1.990  10.931
20400SOL     OW63096  14.546   3.757   4.798
20400SOL    HW163097  14.481   3.825   4.786
20400SOL    HW263098  14.593   3.754   4.714
20401SOL     OW63099  10.103   3.569   8.121
20401SOL    HW163100  10.026   3.610   8.161
20401SOL    HW263101  10.126   3.498   8.182
20402SOL     OW63102   3.897   0.565  14.024
20402SOL    HW163103   3.883   0.659  14.019
20402SOL    HW263104   3.872   0.532  13.937
20403SOL     OW63105   4.525   7.946  14.462
20403SOL    HW163106   4.503   7.902  14.380
20403SOL    HW263107   4.613   7.914  14.484
20404SOL     OW63108   8.173   8.077   2.638
20404SOL    HW163109   8.213   7.992   2.655
20404SOL    HW263110   8.085   8.056   2.606
20405SOL     OW63111   2.577   1.945   6.943
20405SOL    HW163112   2.602   2.013   6.880
20405SOL    HW263113   2.657   1.893   6.953
20406SOL     OW63114  13.575  10.911   3.677
20406SOL    HW163115  13.557  10.873   3.763
20406SOL    HW263116  13.500  10.968   3.659
20407SOL     OW63117   6.954   6.824  12.245
20407SOL    HW163118   6.964   6.916  12.269
20407SOL    HW263119   7.042   6.788  12.247
20408SOL     OW63120  13.826   6.147   3.783
20408SOL    HW163121  13.745   6.191   3.807
20408SOL    HW263122  13.894   6.212   3.799
20409SOL     OW63123   8.759   9.884  10.369
20409SOL    HW163124   8.665   9.867  10.372
20409SOL    HW263125   8.794   9.833  10.443
20410SOL     OW63126   5.578   3.143   5.352
20410SOL    HW163127   5.517   3.108   5.416
20410SOL    HW263128   5.523   3.190   5.289
20411SOL     OW63129  13.229   0.460  12.033
20411SOL    HW163130  13.190   0.418  11.957
20411SOL    HW263131  13.316   0.421  12.040
20412SOL     OW63132   7.607  11.664   3.148
20412SOL    HW163133   7.628  11.723   3.076
20412SOL    HW263134   7.531  11.615   3.118
20413SOL     OW63135   6.140   3.191   5.246
20413SOL    HW163136   6.153   3.100   5.218
20413SOL    HW263137   6.197   3.242   5.188
20414SOL     OW63138  14.649   1.849   2.926
20414SOL    HW163139  14.650   1.865   2.832
20414SOL    HW263140  14.672   1.933   2.966
20415SOL     OW63141   5.543   5.447   3.818
20415SOL    HW163142   5.553   5.360   3.856
20415SOL    HW263143   5.609   5.451   3.749
20416SOL     OW63144   4.469   9.666  13.780
20416SOL    HW163145   4.443   9.727  13.850
20416SOL    HW263146   4.547   9.706  13.742
20417SOL     OW63147   8.037  11.438   1.041
20417SOL    HW163148   8.040  11.532   1.060
20417SOL    HW263149   8.033  11.433   0.945
20418SOL     OW63150   8.014   5.817   8.283
20418SOL    HW163151   8.072   5.883   8.244
20418SOL    HW263152   7.999   5.848   8.372
20419SOL     OW63153   7.436   7.576   8.049
20419SOL    HW163154   7.359   7.626   8.074
20419SOL    HW263155   7.504   7.642   8.035
20420SOL     OW63156  11.255  14.188   6.506
20420SOL    HW163157  11.272  14.129   6.580
20420SOL    HW263158  11.278  14.137   6.429
20421SOL     OW63159   0.734  11.653  12.029
20421SOL    HW163160   0.761  11.599  12.103
20421SOL    HW263161   0.810  11.707  12.009
20422SOL     OW63162   8.880   5.360  13.060
20422SOL    HW163163   8.897   5.274  13.021
20422SOL    HW263164   8.903   5.422  12.991
20423SOL     OW63165   6.361   3.038  13.488
20423SOL    HW163166   6.288   2.980  13.510
20423SOL    HW263167   6.418   3.035  13.565
20424SOL     OW63168   1.930   6.516   3.705
20424SOL    HW163169   1.926   6.605   3.740
20424SOL    HW263170   1.924   6.528   3.610
20425SOL     OW63171   1.326   7.640   5.429
20425SOL    HW163172   1.288   7.678   5.349
20425SOL    HW263173   1.319   7.545   5.416
20426SOL     OW63174   1.123   1.092   9.573
20426SOL    HW163175   1.111   1.048   9.657
20426SOL    HW263176   1.106   1.184   9.592
20427SOL     OW63177   1.300   2.841   1.857
20427SOL    HW163178   1.283   2.925   1.900
20427SOL    HW263179   1.329   2.865   1.769
20428SOL     OW63180   3.407   3.828   1.412
20428SOL    HW163181   3.501   3.812   1.425
20428SOL    HW263182   3.386   3.780   1.331
20429SOL     OW63183  13.877   0.146   4.056
20429SOL    HW163184  13.853   0.107   3.972
20429SOL    HW263185  13.969   0.122   4.069
20430SOL     OW63186   3.003   2.107  10.130
20430SOL    HW163187   3.068   2.113  10.060
20430SOL    HW263188   3.043   2.047  10.193
20431SOL     OW63189  14.879   2.091   7.469
20431SOL    HW163190  14.833   2.056   7.393
20431SOL    HW263191  14.819   2.076   7.542
20432SOL     OW63192  13.458   8.204   9.386
20432SOL    HW163193  13.450   8.277   9.325
20432SOL    HW263194  13.472   8.245   9.472
20433SOL     OW63195   2.585  11.757   7.987
20433SOL    HW163196   2.618  11.678   7.944
20433SOL    HW263197   2.649  11.825   7.965
20434SOL     OW63198   1.828  12.637   1.485
20434SOL    HW163199   1.838  12.642   1.390
20434SOL    HW263200   1.870  12.555   1.509
20435SOL     OW63201  10.029   1.270  13.818
20435SOL    HW163202   9.952   1.271  13.760
20435SOL    HW263203  10.005   1.327  13.891
20436SOL     OW63204   9.550   0.357   4.420
20436SOL    HW163205   9.596   0.316   4.347
20436SOL    HW263206   9.494   0.287   4.456
20437SOL     OW63207   2.502  13.570   2.608
20437SOL    HW163208   2.491  13.537   2.697
20437SOL    HW263209   2.418  13.609   2.587
20438SOL     OW63210   1.701  10.577   0.041
20438SOL    HW163211   1.725  10.526   0.119
20438SOL    HW263212   1.607  10.561   0.030
20439SOL     OW63213   0.227   8.978   8.789
20439SOL    HW163214   0.170   8.902   8.797
20439SOL    HW263215   0.313   8.942   8.768
20440SOL     OW63216   9.779   6.259   7.765
20440SOL    HW163217   9.730   6.256   7.682
20440SOL    HW263218   9.865   6.292   7.741
20441SOL     OW63219  11.906   8.958   4.916
20441SOL    HW163220  11.889   8.944   4.823
20441SOL    HW263221  11.931   9.049   4.923
20442SOL     OW63222   7.964   7.289   6.114
20442SOL    HW163223   7.989   7.221   6.177
20442SOL    HW263224   8.047   7.330   6.090
20443SOL     OW63225  11.756  12.217  12.969
20443SOL    HW163226  11.745  12.228  13.064
20443SOL    HW263227  11.678  12.169  12.941
20444SOL     OW63228   9.111   9.811   3.476
20444SOL    HW163229   9.069   9.778   3.556
20444SOL    HW263230   9.203   9.820   3.499
20445SOL     OW63231   8.087   0.537  11.127
20445SOL    HW163232   8.045   0.575  11.050
20445SOL    HW263233   8.036   0.570  11.201
20446SOL     OW63234   0.148  14.645  14.463
20446SOL    HW163235   0.234  14.687  14.466
20446SOL    HW263236   0.097  14.690  14.530
20447SOL     OW63237  14.657  11.780   9.415
20447SOL    HW163238  14.590  11.730   9.369
20447SOL    HW263239  14.702  11.716   9.470
20448SOL     OW63240   4.544   4.629  13.230
20448SOL    HW163241   4.610   4.689  13.195
20448SOL    HW263242   4.477   4.625  13.162
20449SOL     OW63243   1.294  12.910   7.908
20449SOL    HW163244   1.219  12.963   7.884
20449SOL    HW263245   1.257  12.838   7.960
20450SOL     OW63246  12.649   2.233   2.369
20450SOL    HW163247  12.589   2.159   2.361
20450SOL    HW263248  12.724   2.198   2.416
20451SOL     OW63249   2.665   8.559   1.679
20451SOL    HW163250   2.639   8.650   1.687
20451SOL    HW263251   2.624   8.529   1.597
20452SOL     OW63252   7.534   8.467  13.127
20452SOL    HW163253   7.617   8.514  13.120
20452SOL    HW263254   7.499   8.493  13.212
20453SOL     OW63255  13.833  14.002  10.471
20453SOL    HW163256  13.821  14.018  10.565
20453SOL    HW263257  13.928  14.007  10.458
20454SOL     OW63258   3.610   9.999   5.507
20454SOL    HW163259   3.651  10.072   5.460
20454SOL    HW263260   3.681   9.935   5.519
20455SOL     OW63261   0.844   0.137   6.052
20455SOL    HW163262   0.774   0.127   6.116
20455SOL    HW263263   0.882   0.223   6.071
20456SOL     OW63264  11.404  10.745  14.547
20456SOL    HW163265  11.308  10.746  14.545
20456SOL    HW263266  11.426  10.680  14.614
20457SOL     OW63267   6.628   5.882   8.442
20457SOL    HW163268   6.713   5.898   8.401
20457SOL    HW263269   6.571   5.855   8.371
20458SOL     OW63270   2.194   6.394   9.323
20458SOL    HW163271   2.247   6.317   9.302
20458SOL    HW263272   2.110   6.359   9.352
20459SOL     OW63273   0.271   8.069   7.625
20459SOL    HW163274   0.321   8.047   7.546
20459SOL    HW263275   0.184   8.030   7.610
20460SOL     OW63276   0.329   8.956   4.040
20460SOL    HW163277   0.333   8.864   4.066
20460SOL    HW263278   0.250   8.963   3.987
20461SOL     OW63279   4.335   2.629  12.824
20461SOL    HW163280   4.261   2.577  12.794
20461SOL    HW263281   4.406   2.566  12.836
20462SOL     OW63282   1.087   6.407   6.526
20462SOL    HW163283   1.062   6.464   6.453
20462SOL    HW263284   1.007   6.399   6.578
20463SOL     OW63285   8.681   0.757   3.694
20463SOL    HW163286   8.749   0.780   3.758
20463SOL    HW263287   8.600   0.792   3.732
20464SOL     OW63288   9.955   5.967   6.166
20464SOL    HW163289   9.900   5.919   6.105
20464SOL    HW263290  10.044   5.939   6.146
20465SOL     OW63291   1.229  13.490   2.956
20465SOL    HW163292   1.308  13.513   3.005
20465SOL    HW263293   1.250  13.406   2.916
20466SOL     OW63294   2.547   0.187   8.253
20466SOL    HW163295   2.464   0.156   8.289
20466SOL    HW263296   2.524   0.264   8.202
20467SOL     OW63297   6.239   6.298  12.522
20467SOL    HW163298   6.284   6.326  12.443
20467SOL    HW263299   6.153   6.267  12.492
20468SOL     OW63300   0.922  13.523   3.788
20468SOL    HW163301   0.844  13.517   3.843
20468SOL    HW263302   0.889  13.550   3.702
20469SOL     OW63303   5.510   5.963   5.499
20469SOL    HW163304   5.512   6.013   5.418
20469SOL    HW263305   5.590   5.988   5.545
20470SOL     OW63306   0.811  11.674   3.744
20470SOL    HW163307   0.812  11.684   3.649
20470SOL    HW263308   0.879  11.734   3.775
20471SOL     OW63309  13.146   5.955  13.218
20471SOL    HW163310  13.169   6.044  13.189
20471SOL    HW263311  13.054   5.945  13.194
20472SOL     OW63312  11.733  13.313   4.825
20472SOL    HW163313  11.682  13.353   4.896
20472SOL    HW263314  11.668  13.272   4.769
20473SOL     OW63315   8.502   1.175   8.501
20473SOL    HW163316   8.540   1.175   8.413
20473SOL    HW263317   8.576   1.190   8.560
20474SOL     OW63318  12.231   8.905   8.494
20474SOL    HW163319  12.143   8.937   8.512
20474SOL    HW263320  12.287   8.950   8.557
20475SOL     OW63321   9.457  14.607   5.131
20475SOL    HW163322   9.362  14.618   5.142
20475SOL    HW263323   9.485  14.687   5.086
20476SOL     OW63324   7.314   6.056   2.158
20476SOL    HW163325   7.374   5.983   2.142
20476SOL    HW263326   7.233   6.015   2.186
20477SOL     OW63327   7.387  13.994   1.455
20477SOL    HW163328   7.397  13.941   1.376
20477SOL    HW263329   7.300  13.972   1.488
20478SOL     OW63330  13.122  13.949   2.748
20478SOL    HW163331  13.099  13.907   2.832
20478SOL    HW263332  13.038  13.973   2.710
20479SOL     OW63333   9.188   8.104   9.292
20479SOL    HW163334   9.183   8.077   9.384
20479SOL    HW263335   9.270   8.154   9.287
20480SOL     OW63336  11.959   9.914  12.947
20480SOL    HW163337  11.914   9.859  12.884
20480SOL    HW263338  12.037   9.946  12.900
20481SOL     OW63339  13.317   5.776   2.182
20481SOL    HW163340  13.318   5.869   2.156
20481SOL    HW263341  13.238   5.768   2.236
20482SOL     OW63342   4.869   0.347   6.912
20482SOL    HW163343   4.887   0.273   6.854
20482SOL    HW263344   4.868   0.423   6.855
20483SOL     OW63345  10.792   9.023   1.142
20483SOL    HW163346  10.739   9.013   1.063
20483SOL    HW263347  10.816   8.933   1.165
20484SOL     OW63348  12.946   1.738   1.176
20484SOL    HW163349  13.017   1.722   1.114
20484SOL    HW263350  12.908   1.822   1.148
20485SOL     OW63351  13.725   9.305   6.438
20485SOL    HW163352  13.694   9.220   6.404
20485SOL    HW263353  13.714   9.365   6.365
20486SOL     OW63354   4.152   0.934   8.812
20486SOL    HW163355   4.216   0.926   8.883
20486SOL    HW263356   4.147   0.846   8.775
20487SOL     OW63357   0.875   4.873   5.044
20487SOL    HW163358   0.823   4.796   5.020
20487SOL    HW263359   0.811   4.941   5.064
20488SOL     OW63360   7.467   1.622   0.669
20488SOL    HW163361   7.501   1.677   0.739
20488SOL    HW263362   7.544   1.582   0.630
20489SOL     OW63363   2.270   3.886  10.970
20489SOL    HW163364   2.202   3.948  10.995
20489SOL    HW263365   2.328   3.881  11.046
20490SOL     OW63366   8.158  14.159   3.572
20490SOL    HW163367   8.205  14.079   3.596
20490SOL    HW263368   8.217  14.230   3.599
20491SOL     OW63369   4.713   2.062   5.900
20491SOL    HW163370   4.685   2.125   5.834
20491SOL    HW263371   4.647   2.069   5.969
20492SOL     OW63372  12.421   7.242  14.011
20492SOL    HW163373  12.503   7.225  13.965
20492SOL    HW263374  12.371   7.161  14.001
20493SOL     OW63375   4.919   0.144   6.751
20493SOL    HW163376   4.955   0.083   6.816
20493SOL    HW263377   4.875   0.087   6.687
20494SOL     OW63378  13.831   4.139   4.101
20494SOL    HW163379  13.890   4.214   4.096
20494SOL    HW263380  13.753   4.167   4.054
20495SOL     OW63381   8.951   6.031   6.106
20495SOL    HW163382   9.037   5.999   6.133
20495SOL    HW263383   8.942   6.001   6.015
20496SOL     OW63384   1.624   5.238  14.101
20496SOL    HW163385   1.664   5.153  14.084
20496SOL    HW263386   1.550   5.220  14.159
20497SOL     OW63387   6.309   5.864   4.425
20497SOL    HW163388   6.247   5.937   4.421
20497SOL    HW263389   6.391   5.905   4.453
20498SOL     OW63390   2.109   2.027  14.272
20498SOL    HW163391   2.145   2.115  14.283
20498SOL    HW263392   2.089   1.998  14.361
20499SOL     OW63393   3.453  12.009  12.707
20499SOL    HW163394   3.378  11.965  12.667
20499SOL    HW263395   3.417  12.055  12.782
20500SOL     OW63396   2.564  14.538   1.819
20500SOL    HW163397   2.656  14.533   1.795
20500SOL    HW263398   2.557  14.485   1.899
20501SOL     OW63399   1.195   8.361  13.307
20501SOL    HW163400   1.231   8.319  13.229
20501SOL    HW263401   1.164   8.289  13.362
20502SOL     OW63402   7.326  11.735  12.098
20502SOL    HW163403   7.261  11.800  12.071
20502SOL    HW263404   7.295  11.653  12.058
20503SOL     OW63405   6.325  14.345  12.395
20503SOL    HW163406   6.398  14.307  12.444
20503SOL    HW263407   6.322  14.436  12.424
20504SOL     OW63408   5.286   4.558  10.696
20504SOL    HW163409   5.349   4.595  10.635
20504SOL    HW263410   5.339   4.509  10.759
20505SOL     OW63411  13.022  11.535   0.198
20505SOL    HW163412  13.004  11.472   0.268
20505SOL    HW263413  13.101  11.501   0.156
20506SOL     OW63414   1.940  14.631  14.729
20506SOL    HW163415   1.895  14.715  14.723
20506SOL    HW263416   1.926  14.591  14.643
20507SOL     OW63417   1.900   1.186   9.378
20507SOL    HW163418   1.936   1.225   9.458
20507SOL    HW263419   1.941   1.234   9.307
20508SOL     OW63420   2.674  12.333   6.186
20508SOL    HW163421   2.728  12.412   6.178
20508SOL    HW263422   2.596  12.363   6.234
20509SOL     OW63423   1.297  10.296  14.442
20509SOL    HW163424   1.370  10.289  14.380
20509SOL    HW263425   1.312  10.226  14.505
20510SOL     OW63426   9.821   5.178   5.822
20510SOL    HW163427   9.832   5.101   5.878
20510SOL    HW263428   9.746   5.157   5.766
20511SOL     OW63429  13.422   9.228  12.594
20511SOL    HW163430  13.432   9.243  12.688
20511SOL    HW263431  13.383   9.309  12.561
20512SOL     OW63432   7.885   3.306  13.418
20512SOL    HW163433   7.974   3.302  13.452
20512SOL    HW263434   7.885   3.245  13.344
20513SOL     OW63435   1.589   6.061   5.646
20513SOL    HW163436   1.658   6.125   5.627
20513SOL    HW263437   1.623   6.010   5.719
20514SOL     OW63438  14.680   1.094   9.998
20514SOL    HW163439  14.591   1.128   9.987
20514SOL    HW263440  14.667   1.001  10.020
20515SOL     OW63441   7.056   4.564   2.552
20515SOL    HW163442   7.139   4.606   2.532
20515SOL    HW263443   7.060   4.480   2.505
20516SOL     OW63444  12.209   5.254  14.092
20516SOL    HW163445  12.254   5.171  14.074
20516SOL    HW263446  12.196   5.293  14.005
20517SOL     OW63447   0.858   5.178  10.227
20517SOL    HW163448   0.907   5.127  10.290
20517SOL    HW263449   0.767   5.150  10.239
20518SOL     OW63450   2.400   0.135  14.336
20518SOL    HW163451   2.382   0.125  14.429
20518SOL    HW263452   2.491   0.107  14.326
20519SOL     OW63453  11.527  12.348  13.917
20519SOL    HW163454  11.498  12.366  14.007
20519SOL    HW263455  11.519  12.253  13.909
20520SOL     OW63456  11.865   5.525   3.640
20520SOL    HW163457  11.844   5.433   3.629
20520SOL    HW263458  11.943   5.526   3.696
20521SOL     OW63459   2.598   1.150   0.760
20521SOL    HW163460   2.646   1.216   0.809
20521SOL    HW263461   2.509   1.185   0.754
20522SOL     OW63462   4.571   6.611   6.140
20522SOL    HW163463   4.499   6.579   6.086
20522SOL    HW263464   4.626   6.534   6.154
20523SOL     OW63465   0.318  12.299  14.225
20523SOL    HW163466   0.249  12.239  14.196
20523SOL    HW263467   0.382  12.243  14.269
20524SOL     OW63468   4.455   9.855   7.655
20524SOL    HW163469   4.397   9.860   7.730
20524SOL    HW263470   4.403   9.887   7.581
20525SOL     OW63471   5.263   2.958   2.714
20525SOL    HW163472   5.350   2.970   2.753
20525SOL    HW263473   5.214   3.036   2.740
20526SOL     OW63474  10.028   3.202   3.243
20526SOL    HW163475  10.107   3.212   3.190
20526SOL    HW263476   9.957   3.201   3.180
20527SOL     OW63477  11.679   9.754  12.421
20527SOL    HW163478  11.648   9.788  12.505
20527SOL    HW263479  11.618   9.790  12.356
20528SOL     OW63480  13.342   3.488  14.179
20528SOL    HW163481  13.318   3.430  14.252
20528SOL    HW263482  13.400   3.553  14.219
20529SOL     OW63483   1.287   3.387  12.641
20529SOL    HW163484   1.340   3.440  12.700
20529SOL    HW263485   1.221   3.447  12.606
20530SOL     OW63486  11.299   3.489   9.767
20530SOL    HW163487  11.311   3.531   9.853
20530SOL    HW263488  11.388   3.481   9.732
20531SOL     OW63489   5.685   4.036  13.385
20531SOL    HW163490   5.708   4.115  13.434
20531SOL    HW263491   5.710   3.964  13.443
20532SOL     OW63492   0.469   3.311   4.055
20532SOL    HW163493   0.513   3.327   3.971
20532SOL    HW263494   0.445   3.398   4.087
20533SOL     OW63495  10.373   2.032   7.296
20533SOL    HW163496  10.328   2.078   7.225
20533SOL    HW263497  10.436   2.095   7.330
20534SOL     OW63498   1.542   8.834   1.613
20534SOL    HW163499   1.583   8.874   1.535
20534SOL    HW263500   1.539   8.741   1.593
20535SOL     OW63501   0.842   3.648   3.432
20535SOL    HW163502   0.813   3.739   3.443
20535SOL    HW263503   0.778   3.596   3.482
20536SOL     OW63504  11.331   3.990   3.660
20536SOL    HW163505  11.401   4.044   3.696
20536SOL    HW263506  11.251   4.038   3.680
20537SOL     OW63507  13.388   0.750   3.220
20537SOL    HW163508  13.309   0.735   3.272
20537SOL    HW263509  13.413   0.840   3.238
20538SOL     OW63510  11.609  10.518  13.742
20538SOL    HW163511  11.564  10.599  13.765
20538SOL    HW263512  11.593  10.506  13.649
20539SOL     OW63513   4.783   8.572  13.169
20539SOL    HW163514   4.795   8.505  13.102
20539SOL    HW263515   4.750   8.648  13.121
20540SOL     OW63516   6.055   6.849   7.084
20540SOL    HW163517   6.020   6.938   7.082
20540SOL    HW263518   6.092   6.840   7.172
20541SOL     OW63519   4.429   7.802  13.116
20541SOL    HW163520   4.524   7.813  13.124
20541SOL    HW263521   4.395   7.819  13.204
20542SOL     OW63522   8.676   7.621  10.782
20542SOL    HW163523   8.606   7.568  10.745
20542SOL    HW263524   8.686   7.694  10.721
20543SOL     OW63525   2.952  13.321   1.646
20543SOL    HW163526   2.971  13.238   1.689
20543SOL    HW263527   2.915  13.377   1.714
20544SOL     OW63528   7.121   4.182   7.871
20544SOL    HW163529   7.124   4.255   7.933
20544SOL    HW263530   7.134   4.222   7.785
20545SOL     OW63531   8.432  13.326   9.168
20545SOL    HW163532   8.468  13.265   9.104
20545SOL    HW263533   8.478  13.305   9.249
20546SOL     OW63534   7.401   2.673   6.052
20546SOL    HW163535   7.486   2.631   6.034
20546SOL    HW263536   7.413   2.764   6.027
20547SOL     OW63537  11.242  11.477   4.179
20547SOL    HW163538  11.162  11.502   4.226
20547SOL    HW263539  11.313  11.506   4.236
20548SOL     OW63540   9.782   0.880   6.967
20548SOL    HW163541   9.820   0.793   6.957
20548SOL    HW263542   9.790   0.920   6.881
20549SOL     OW63543   3.522  11.266  12.607
20549SOL    HW163544   3.492  11.287  12.519
20549SOL    HW263545   3.544  11.173  12.604
20550SOL     OW63546   8.744   9.910   8.524
20550SOL    HW163547   8.777   9.842   8.465
20550SOL    HW263548   8.793   9.897   8.605
20551SOL     OW63549   5.734   6.371   1.347
20551SOL    HW163550   5.821   6.398   1.376
20551SOL    HW263551   5.681   6.451   1.351
20552SOL     OW63552  12.555  11.192   4.519
20552SOL    HW163553  12.473  11.240   4.527
20552SOL    HW263554  12.622  11.261   4.513
20553SOL     OW63555  13.291   5.271   9.449
20553SOL    HW163556  13.322   5.292   9.537
20553SOL    HW263557  13.371   5.250   9.400
20554SOL     OW63558   0.718   3.464  13.698
20554SOL    HW163559   0.764   3.495  13.775
20554SOL    HW263560   0.680   3.380  13.725
20555SOL     OW63561   4.849  13.811  10.683
20555SOL    HW163562   4.837  13.793  10.590
20555SOL    HW263563   4.940  13.841  10.690
20556SOL     OW63564   6.246   5.567   1.715
20556SOL    HW163565   6.180   5.614   1.767
20556SOL    HW263566   6.228   5.592   1.625
20557SOL     OW63567  14.476   0.829   8.732
20557SOL    HW163568  14.432   0.749   8.705
20557SOL    HW263569  14.554   0.799   8.780
20558SOL     OW63570   3.343  13.541  11.490
20558SOL    HW163571   3.321  13.609  11.552
20558SOL    HW263572   3.360  13.464  11.544
20559SOL     OW63573   0.349   8.776   4.259
20559SOL    HW163574   0.388   8.764   4.346
20559SOL    HW263575   0.319   8.689   4.234
20560SOL     OW63576   0.857   1.117   3.923
20560SOL    HW163577   0.903   1.049   3.973
20560SOL    HW263578   0.863   1.089   3.832
20561SOL     OW63579  14.158  14.074   1.887
20561SOL    HW163580  14.219  14.078   1.813
20561SOL    HW263581  14.208  14.028   1.956
20562SOL     OW63582  13.064  13.538   3.974
20562SOL    HW163583  13.055  13.544   3.879
20562SOL    HW263584  13.041  13.625   4.006
20563SOL     OW63585  13.776  11.832   8.949
20563SOL    HW163586  13.842  11.840   9.018
20563SOL    HW263587  13.693  11.824   8.997
20564SOL     OW63588   0.549  11.594   8.197
20564SOL    HW163589   0.519  11.643   8.273
20564SOL    HW263590   0.499  11.630   8.124
20565SOL     OW63591   8.679  14.073   8.988
20565SOL    HW163592   8.641  14.088   9.074
20565SOL    HW263593   8.639  13.992   8.957
20566SOL     OW63594  13.761   3.259   0.452
20566SOL    HW163595  13.676   3.243   0.410
20566SOL    HW263596  13.768   3.191   0.519
20567SOL     OW63597   2.744   9.601  14.351
20567SOL    HW163598   2.809   9.591  14.281
20567SOL    HW263599   2.794   9.600  14.432
20568SOL     OW63600   2.758   0.641   8.059
20568SOL    HW163601   2.798   0.728   8.062
20568SOL    HW263602   2.789   0.604   7.976
20569SOL     OW63603   2.308   5.150   9.180
20569SOL    HW163604   2.227   5.111   9.215
20569SOL    HW263605   2.287   5.171   9.089
20570SOL     OW63606   8.857  11.411  14.305
20570SOL    HW163607   8.844  11.405  14.210
20570SOL    HW263608   8.946  11.379  14.319
20571SOL     OW63609   6.574   9.024   9.208
20571SOL    HW163610   6.622   8.995   9.285
20571SOL    HW263611   6.622   9.100   9.176
20572SOL     OW63612  11.804  11.404   6.850
20572SOL    HW163613  11.767  11.319   6.826
20572SOL    HW263614  11.895  11.385   6.873
20573SOL     OW63615  11.877   5.114   0.189
20573SOL    HW163616  11.805   5.166   0.224
20573SOL    HW263617  11.939   5.106   0.262
20574SOL     OW63618   0.127   1.495   9.663
20574SOL    HW163619   0.041   1.459   9.642
20574SOL    HW263620   0.131   1.493   9.758
20575SOL     OW63621   2.774  10.648   1.031
20575SOL    HW163622   2.828  10.583   1.077
20575SOL    HW263623   2.817  10.660   0.947
20576SOL     OW63624   6.298  10.566  12.457
20576SOL    HW163625   6.211  10.529  12.463
20576SOL    HW263626   6.357  10.498  12.489
20577SOL     OW63627   5.843   9.388  10.941
20577SOL    HW163628   5.852   9.296  10.966
20577SOL    HW263629   5.769   9.419  10.993
20578SOL     OW63630  14.587   4.144  13.537
20578SOL    HW163631  14.593   4.053  13.564
20578SOL    HW263632  14.510   4.148  13.480
20579SOL     OW63633  12.008  10.234  12.835
20579SOL    HW163634  12.050  10.150  12.849
20579SOL    HW263635  12.048  10.268  12.755
20580SOL     OW63636   1.528   4.520   1.538
20580SOL    HW163637   1.600   4.480   1.588
20580SOL    HW263638   1.539   4.487   1.449
20581SOL     OW63639   1.508  14.324  11.956
20581SOL    HW163640   1.579  14.348  12.017
20581SOL    HW263641   1.511  14.392  11.889
20582SOL     OW63642   3.553   8.766  13.220
20582SOL    HW163643   3.553   8.784  13.126
20582SOL    HW263644   3.597   8.681  13.228
20583SOL     OW63645   6.384   9.860  10.455
20583SOL    HW163646   6.448   9.908  10.403
20583SOL    HW263647   6.299   9.888  10.422
20584SOL     OW63648   4.242   1.720  11.448
20584SOL    HW163649   4.276   1.651  11.505
20584SOL    HW263650   4.220   1.676  11.366
20585SOL     OW63651   4.565   8.354  10.729
20585SOL    HW163652   4.600   8.442  10.719
20585SOL    HW263653   4.581   8.332  10.820
20586SOL     OW63654   7.335  13.608  11.803
20586SOL    HW163655   7.318  13.702  11.810
20586SOL    HW263656   7.263  13.575  11.749
20587SOL     OW63657  10.270   4.324   5.238
20587SOL    HW163658  10.199   4.337   5.301
20587SOL    HW263659  10.316   4.407   5.238
20588SOL     OW63660   3.489  11.455  14.306
20588SOL    HW163661   3.483  11.550  14.299
20588SOL    HW263662   3.398  11.425  14.312
20589SOL     OW63663   8.482   1.178   2.192
20589SOL    HW163664   8.392   1.150   2.174
20589SOL    HW263665   8.503   1.139   2.277
20590SOL     OW63666  12.071  13.535  10.971
20590SOL    HW163667  12.111  13.526  10.885
20590SOL    HW263668  11.984  13.498  10.961
20591SOL     OW63669   8.234   5.704  13.979
20591SOL    HW163670   8.158   5.742  14.023
20591SOL    HW263671   8.298   5.691  14.049
20592SOL     OW63672  14.759   9.337   9.223
20592SOL    HW163673  14.762   9.263   9.284
20592SOL    HW263674  14.759   9.296   9.136
20593SOL     OW63675   8.683   6.185  11.143
20593SOL    HW163676   8.756   6.198  11.083
20593SOL    HW263677   8.710   6.231  11.223
20594SOL     OW63678   9.437   6.388   0.627
20594SOL    HW163679   9.379   6.415   0.698
20594SOL    HW263680   9.452   6.468   0.576
20595SOL     OW63681   5.183   3.131   5.809
20595SOL    HW163682   5.221   3.081   5.881
20595SOL    HW263683   5.256   3.183   5.775
20596SOL     OW63684   1.103  14.136   0.913
20596SOL    HW163685   1.141  14.206   0.860
20596SOL    HW263686   1.089  14.176   0.999
20597SOL     OW63687   4.274  14.097   4.450
20597SOL    HW163688   4.279  14.052   4.535
20597SOL    HW263689   4.302  14.186   4.468
20598SOL     OW63690   0.684   6.637   2.722
20598SOL    HW163691   0.712   6.650   2.632
20598SOL    HW263692   0.765   6.631   2.772
20599SOL     OW63693   3.991  13.264  14.103
20599SOL    HW163694   4.031  13.195  14.050
20599SOL    HW263695   3.903  13.231  14.122
20600SOL     OW63696   4.082   6.152   6.425
20600SOL    HW163697   4.091   6.216   6.354
20600SOL    HW263698   4.106   6.201   6.504
20601SOL     OW63699   2.540   7.716   1.253
20601SOL    HW163700   2.626   7.747   1.224
20601SOL    HW263701   2.488   7.795   1.264
20602SOL     OW63702   9.146  12.742   8.206
20602SOL    HW163703   9.170  12.824   8.162
20602SOL    HW263704   9.081  12.768   8.271
20603SOL     OW63705   7.788  11.716   1.443
20603SOL    HW163706   7.761  11.725   1.534
20603SOL    HW263707   7.845  11.639   1.442
20604SOL     OW63708  10.211  12.992  14.772
20604SOL    HW163709  10.151  13.062  14.747
20604SOL    HW263710  10.289  13.038  14.804
20605SOL     OW63711   8.598  12.960  13.064
20605SOL    HW163712   8.539  12.937  13.136
20605SOL    HW263713   8.631  13.047  13.088
20606SOL     OW63714   8.686   0.835   6.891
20606SOL    HW163715   8.613   0.886   6.924
20606SOL    HW263716   8.727   0.890   6.824
20607SOL     OW63717   2.866   9.176  12.889
20607SOL    HW163718   2.810   9.102  12.866
20607SOL    HW263719   2.830   9.210  12.970
20608SOL     OW63720   6.528   4.298   1.302
20608SOL    HW163721   6.516   4.273   1.394
20608SOL    HW263722   6.493   4.387   1.297
20609SOL     OW63723   3.776   1.213   9.135
20609SOL    HW163724   3.836   1.286   9.116
20609SOL    HW263725   3.832   1.136   9.141
20610SOL     OW63726  13.459   5.596   7.062
20610SOL    HW163727  13.531   5.551   7.105
20610SOL    HW263728  13.424   5.655   7.129
20611SOL     OW63729   4.474  14.475   2.820
20611SOL    HW163730   4.488  14.423   2.741
20611SOL    HW263731   4.438  14.558   2.788
20612SOL     OW63732  14.239   8.240  10.662
20612SOL    HW163733  14.185   8.317  10.678
20612SOL    HW263734  14.210   8.208  10.576
20613SOL     OW63735  10.959   5.301  13.651
20613SOL    HW163736  10.874   5.276  13.614
20613SOL    HW263737  10.954   5.396  13.662
20614SOL     OW63738   3.227   8.978   2.612
20614SOL    HW163739   3.219   9.073   2.606
20614SOL    HW263740   3.247   8.950   2.522
20615SOL     OW63741   7.035  13.924   8.337
20615SOL    HW163742   6.974  13.980   8.289
20615SOL    HW263743   6.979  13.855   8.374
20616SOL     OW63744   0.349  10.705  11.813
20616SOL    HW163745   0.284  10.663  11.757
20616SOL    HW263746   0.433  10.670  11.784
20617SOL     OW63747  14.727   6.014   8.949
20617SOL    HW163748  14.677   5.956   9.007
20617SOL    HW263749  14.741   6.093   9.001
20618SOL     OW63750  11.250  13.925   7.683
20618SOL    HW163751  11.288  13.961   7.604
20618SOL    HW263752  11.210  13.842   7.655
20619SOL     OW63753  10.194   4.982   4.925
20619SOL    HW163754  10.219   5.024   5.008
20619SOL    HW263755  10.131   4.914   4.951
20620SOL     OW63756   4.833  10.130   4.281
20620SOL    HW163757   4.905  10.163   4.227
20620SOL    HW263758   4.877  10.080   4.350
20621SOL     OW63759   2.893   4.051   9.798
20621SOL    HW163760   2.910   4.055   9.704
20621SOL    HW263761   2.800   4.027   9.805
20622SOL     OW63762   1.131   1.048   4.147
20622SOL    HW163763   1.177   1.005   4.074
20622SOL    HW263764   1.191   1.117   4.176
20623SOL     OW63765  11.105   9.195   5.688
20623SOL    HW163766  11.096   9.277   5.638
20623SOL    HW263767  11.085   9.220   5.778
20624SOL     OW63768  12.694   8.694  11.874
20624SOL    HW163769  12.774   8.705  11.823
20624SOL    HW263770  12.624   8.717  11.812
20625SOL     OW63771  13.270  11.914  11.155
20625SOL    HW163772  13.175  11.911  11.147
20625SOL    HW263773  13.300  11.959  11.076
20626SOL     OW63774   1.847   2.544   4.048
20626SOL    HW163775   1.880   2.613   3.990
20626SOL    HW263776   1.797   2.486   3.990
20627SOL     OW63777   5.862   0.539  13.148
20627SOL    HW163778   5.839   0.517  13.238
20627SOL    HW263779   5.955   0.560  13.151
20628SOL     OW63780  12.698  10.458  14.362
20628SOL    HW163781  12.719  10.551  14.354
20628SOL    HW263782  12.685  10.429  14.271
20629SOL     OW63783   4.393  13.453  13.643
20629SOL    HW163784   4.390  13.497  13.728
20629SOL    HW263785   4.486  13.456  13.618
20630SOL     OW63786  13.427   7.745   0.438
20630SOL    HW163787  13.476   7.728   0.358
20630SOL    HW263788  13.335   7.740   0.412
20631SOL     OW63789   5.153   0.171   2.277
20631SOL    HW163790   5.096   0.223   2.221
20631SOL    HW263791   5.103   0.162   2.359
20632SOL     OW63792  14.670   9.405  11.609
20632SOL    HW163793  14.757   9.407  11.569
20632SOL    HW263794  14.644   9.313  11.606
20633SOL     OW63795   1.525   3.888  11.609
20633SOL    HW163796   1.554   3.971  11.572
20633SOL    HW263797   1.604   3.849  11.646
20634SOL     OW63798   1.631   2.458   2.625
20634SOL    HW163799   1.704   2.407   2.590
20634SOL    HW263800   1.556   2.398   2.623
20635SOL     OW63801   1.051   1.331   1.224
20635SOL    HW163802   1.006   1.279   1.158
20635SOL    HW263803   1.037   1.422   1.197
20636SOL     OW63804   3.881   5.882  13.505
20636SOL    HW163805   3.957   5.855  13.556
20636SOL    HW263806   3.830   5.937  13.565
20637SOL     OW63807   4.319  12.212  10.779
20637SOL    HW163808   4.251  12.275  10.805
20637SOL    HW263809   4.289  12.178  10.695
20638SOL     OW63810  11.970   0.017   5.063
20638SOL    HW163811  11.972  14.806   5.085
20638SOL    HW263812  12.062   0.043   5.058
20639SOL     OW63813   9.811   6.916  13.082
20639SOL    HW163814   9.838   6.849  13.019
20639SOL    HW263815   9.773   6.986  13.029
20640SOL     OW63816   6.583   3.955   1.627
20640SOL    HW163817   6.493   3.986   1.640
20640SOL    HW263818   6.638   4.026   1.660
20641SOL     OW63819   7.669   7.567  14.304
20641SOL    HW163820   7.660   7.659  14.329
20641SOL    HW263821   7.761   7.546  14.324
20642SOL     OW63822   8.720   4.046   3.984
20642SOL    HW163823   8.810   4.040   4.017
20642SOL    HW263824   8.711   3.969   3.928
20643SOL     OW63825   3.179  11.755   4.784
20643SOL    HW163826   3.243  11.818   4.750
20643SOL    HW263827   3.095  11.784   4.747
20644SOL     OW63828   2.879  11.943  13.255
20644SOL    HW163829   2.875  12.031  13.293
20644SOL    HW263830   2.940  11.951  13.182
20645SOL     OW63831  13.403   1.393   9.239
20645SOL    HW163832  13.324   1.369   9.287
20645SOL    HW263833  13.419   1.484   9.265
20646SOL     OW63834   6.711  12.188   3.952
20646SOL    HW163835   6.690  12.144   3.870
20646SOL    HW263836   6.780  12.135   3.992
20647SOL     OW63837   6.846  14.092   8.214
20647SOL    HW163838   6.790  14.131   8.281
20647SOL    HW263839   6.856  14.160   8.148
20648SOL     OW63840   9.122   0.780   6.053
20648SOL    HW163841   9.179   0.809   5.982
20648SOL    HW263842   9.180   0.733   6.113
20649SOL     OW63843  12.675  10.625   5.119
20649SOL    HW163844  12.756  10.668   5.148
20649SOL    HW263845  12.605  10.681   5.152
20650SOL     OW63846   5.477  13.039   8.081
20650SOL    HW163847   5.570  13.051   8.061
20650SOL    HW263848   5.432  13.094   8.017
20651SOL     OW63849   2.181   6.644   8.273
20651SOL    HW163850   2.170   6.607   8.186
20651SOL    HW263851   2.093   6.655   8.307
20652SOL     OW63852   2.331   3.721   4.808
20652SOL    HW163853   2.279   3.780   4.753
20652SOL    HW263854   2.422   3.739   4.782
20653SOL     OW63855  11.645  12.872  11.871
20653SOL    HW163856  11.631  12.792  11.923
20653SOL    HW263857  11.641  12.842  11.780
20654SOL     OW63858   6.008   1.159  10.270
20654SOL    HW163859   5.992   1.227  10.205
20654SOL    HW263860   5.926   1.152  10.318
20655SOL     OW63861  12.641  12.114  11.087
20655SOL    HW163862  12.662  12.197  11.131
20655SOL    HW263863  12.625  12.053  11.158
20656SOL     OW63864  13.636   5.261   5.348
20656SOL    HW163865  13.723   5.288   5.376
20656SOL    HW263866  13.627   5.171   5.380
20657SOL     OW63867  13.931   4.572   7.371
20657SOL    HW163868  13.847   4.565   7.327
20657SOL    HW263869  13.989   4.513   7.322
20658SOL     OW63870   1.726   0.046   9.801
20658SOL    HW163871   1.714   0.043   9.896
20658SOL    HW263872   1.704  14.840   9.771
20659SOL     OW63873   2.832   7.927  14.849
20659SOL    HW163874   2.836   7.978   0.048
20659SOL    HW263875   2.819   7.991  14.780
20660SOL     OW63876  11.677  14.197  11.660
20660SOL    HW163877  11.602  14.236  11.614
20660SOL    HW263878  11.644  14.116  11.697
20661SOL     OW63879  12.378  13.765   0.936
20661SOL    HW163880  12.414  13.676   0.935
20661SOL    HW263881  12.446  13.817   0.979
20662SOL     OW63882  13.797  13.771   2.261
20662SOL    HW163883  13.778  13.759   2.168
20662SOL    HW263884  13.839  13.690   2.288
20663SOL     OW63885   9.390   2.623   3.780
20663SOL    HW163886   9.370   2.687   3.712
20663SOL    HW263887   9.416   2.545   3.733
20664SOL     OW63888   0.484   8.285   0.026
20664SOL    HW163889   0.502   8.248  14.822
20664SOL    HW263890   0.555   8.349   0.040
20665SOL     OW63891  10.008   5.103  14.333
20665SOL    HW163892   9.948   5.154  14.387
20665SOL    HW263893   9.955   5.030  14.302
20666SOL     OW63894   1.158   4.164   7.179
20666SOL    HW163895   1.098   4.198   7.245
20666SOL    HW263896   1.103   4.111   7.122
20667SOL     OW63897  13.310   7.939   9.495
20667SOL    HW163898  13.355   8.021   9.478
20667SOL    HW263899  13.220   7.965   9.515
20668SOL     OW63900   2.369   4.949   4.914
20668SOL    HW163901   2.297   4.994   4.958
20668SOL    HW263902   2.402   4.887   4.980
20669SOL     OW63903  11.794   8.324   1.657
20669SOL    HW163904  11.880   8.333   1.697
20669SOL    HW263905  11.743   8.275   1.721
20670SOL     OW63906   6.618   0.949  12.206
20670SOL    HW163907   6.583   1.037  12.218
20670SOL    HW263908   6.704   0.951  12.247
20671SOL     OW63909   6.495   0.875   0.569
20671SOL    HW163910   6.583   0.895   0.536
20671SOL    HW263911   6.439   0.942   0.529
20672SOL     OW63912   8.064  10.891   0.578
20672SOL    HW163913   8.102  10.813   0.618
20672SOL    HW263914   8.097  10.890   0.488
20673SOL     OW63915   5.661  12.018   7.685
20673SOL    HW163916   5.708  12.068   7.752
20673SOL    HW263917   5.727  12.003   7.616
20674SOL     OW63918   2.889   7.262   8.492
20674SOL    HW163919   2.921   7.173   8.508
20674SOL    HW263920   2.820   7.274   8.556
20675SOL     OW63921   3.120   6.397  10.823
20675SOL    HW163922   3.080   6.313  10.844
20675SOL    HW263923   3.048   6.451  10.791
20676SOL     OW63924   8.224  10.869   8.393
20676SOL    HW163925   8.253  10.955   8.424
20676SOL    HW263926   8.271  10.857   8.311
20677SOL     OW63927   1.403   7.947  12.198
20677SOL    HW163928   1.321   7.907  12.226
20677SOL    HW263929   1.400   8.035  12.236
20678SOL     OW63930   1.315   4.169  10.940
20678SOL    HW163931   1.362   4.246  10.909
20678SOL    HW263932   1.249   4.203  11.000
20679SOL     OW63933  14.807   6.403   9.770
20679SOL    HW163934  14.733   6.411   9.831
20679SOL    HW263935  14.766   6.402   9.683
20680SOL     OW63936   6.774   5.559   4.118
20680SOL    HW163937   6.826   5.576   4.039
20680SOL    HW263938   6.764   5.464   4.120
20681SOL     OW63939   2.561   4.572   9.897
20681SOL    HW163940   2.571   4.477   9.885
20681SOL    HW263941   2.476   4.581   9.942
20682SOL     OW63942  14.697   8.467   3.538
20682SOL    HW163943  14.715   8.387   3.488
20682SOL    HW263944  14.775   8.478   3.592
20683SOL     OW63945   6.184  13.692   7.497
20683SOL    HW163946   6.123  13.765   7.510
20683SOL    HW263947   6.147  13.643   7.423
20684SOL     OW63948   4.222   0.162   2.103
20684SOL    HW163949   4.191   0.089   2.050
20684SOL    HW263950   4.183   0.148   2.189
20685SOL     OW63951   0.432   6.721   1.850
20685SOL    HW163952   0.345   6.683   1.861
20685SOL    HW263953   0.486   6.648   1.820
20686SOL     OW63954   2.035   4.495  10.304
20686SOL    HW163955   1.990   4.531  10.228
20686SOL    HW263956   1.975   4.428  10.337
20687SOL     OW63957  10.190  13.677   5.872
20687SOL    HW163958  10.108  13.700   5.827
20687SOL    HW263959  10.259  13.706   5.812
20688SOL     OW63960   7.522  10.992   6.944
20688SOL    HW163961   7.448  11.049   6.924
20688SOL    HW263962   7.522  10.985   7.039
20689SOL     OW63963  14.141   0.652   4.143
20689SOL    HW163964  14.223   0.614   4.113
20689SOL    HW263965  14.073   0.594   4.109
20690SOL     OW63966  11.796  11.895  10.080
20690SOL    HW163967  11.831  11.928   9.998
20690SOL    HW263968  11.861  11.918  10.146
20691SOL     OW63969  11.548   0.799   0.204
20691SOL    HW163970  11.521   0.890   0.193
20691SOL    HW263971  11.472   0.755   0.241
20692SOL     OW63972   7.691   9.809   5.467
20692SOL    HW163973   7.638   9.747   5.417
20692SOL    HW263974   7.781   9.776   5.458
20693SOL     OW63975   7.614  10.452  12.764
20693SOL    HW163976   7.605  10.547  12.768
20693SOL    HW263977   7.677  10.436  12.694
20694SOL     OW63978  10.532   7.531   3.884
20694SOL    HW163979  10.446   7.521   3.844
20694SOL    HW263980  10.573   7.603   3.836
20695SOL     OW63981   1.854   2.616   8.340
20695SOL    HW163982   1.811   2.666   8.270
20695SOL    HW263983   1.813   2.648   8.421
20696SOL     OW63984  10.136   5.808  11.999
20696SOL    HW163985  10.150   5.788  12.092
20696SOL    HW263986  10.214   5.856  11.972
20697SOL     OW63987   2.445   5.878  13.619
20697SOL    HW163988   2.388   5.825  13.676
20697SOL    HW263989   2.529   5.833  13.621
20698SOL     OW63990   1.977   5.038   7.100
20698SOL    HW163991   1.991   4.945   7.080
20698SOL    HW263992   1.950   5.077   7.017
20699SOL     OW63993  13.422   4.086   1.978
20699SOL    HW163994  13.497   4.057   2.029
20699SOL    HW263995  13.402   4.011   1.921
20700SOL     OW63996   1.919  13.643  10.628
20700SOL    HW163997   1.907  13.729  10.668
20700SOL    HW263998   1.835  13.599  10.640
20701SOL     OW63999   8.645   0.548   8.921
20701SOL    HW164000   8.612   0.548   8.831
20701SOL    HW264001   8.572   0.579   8.974
20702SOL     OW64002   3.138   5.563   3.922
20702SOL    HW164003   3.097   5.518   3.848
20702SOL    HW264004   3.080   5.547   3.996
20703SOL     OW64005  10.932   7.494   6.261
20703SOL    HW164006  10.882   7.563   6.216
20703SOL    HW264007  10.866   7.446   6.311
20704SOL     OW64008   8.424   4.067  11.815
20704SOL    HW164009   8.395   4.075  11.906
20704SOL    HW264010   8.505   4.116  11.811
20705SOL     OW64011  12.749   0.362  11.123
20705SOL    HW164012  12.653   0.367  11.127
20705SOL    HW264013  12.766   0.285  11.069
20706SOL     OW64014  13.158   0.317   9.321
20706SOL    HW164015  13.203   0.401   9.325
20706SOL    HW264016  13.214   0.258   9.372
20707SOL     OW64017   1.290  10.857  11.414
20707SOL    HW164018   1.365  10.858  11.354
20707SOL    HW264019   1.287  10.767  11.447
20708SOL     OW64020   0.777   9.076  11.459
20708SOL    HW164021   0.701   9.079  11.516
20708SOL    HW264022   0.851   9.102  11.515
20709SOL     OW64023  11.633  14.653   3.770
20709SOL    HW164024  11.631  14.659   3.866
20709SOL    HW264025  11.711  14.702   3.745
20710SOL     OW64026  12.658   8.337  14.835
20710SOL    HW164027  12.617   8.310  14.753
20710SOL    HW264028  12.624   8.275   0.018
20711SOL     OW64029  14.683  10.496   5.660
20711SOL    HW164030  14.685  10.405   5.691
20711SOL    HW264031  14.764  10.534   5.694
20712SOL     OW64032  14.404   5.475   7.179
20712SOL    HW164033  14.407   5.567   7.205
20712SOL    HW264034  14.436   5.428   7.256
20713SOL     OW64035   2.803   2.167   5.773
20713SOL    HW164036   2.856   2.129   5.843
20713SOL    HW264037   2.866   2.218   5.721
20714SOL     OW64038   5.808   9.519   5.055
20714SOL    HW164039   5.900   9.518   5.081
20714SOL    HW264040   5.800   9.448   4.991
20715SOL     OW64041   3.769   2.124   4.887
20715SOL    HW164042   3.700   2.102   4.825
20715SOL    HW264043   3.737   2.092   4.971
20716SOL     OW64044   1.056  14.816   6.014
20716SOL    HW164045   0.971  14.856   5.995
20716SOL    HW264046   1.035  14.728   6.045
20717SOL     OW64047   1.393   3.429   8.940
20717SOL    HW164048   1.335   3.499   8.909
20717SOL    HW264049   1.421   3.458   9.026
20718SOL     OW64050   5.705  12.990   6.266
20718SOL    HW164051   5.714  13.050   6.191
20718SOL    HW264052   5.629  13.022   6.313
20719SOL     OW64053   9.660  12.143   5.281
20719SOL    HW164054   9.587  12.128   5.220
20719SOL    HW264055   9.643  12.084   5.354
20720SOL     OW64056   6.574   9.037  11.950
20720SOL    HW164057   6.604   9.109  12.006
20720SOL    HW264058   6.654   8.993  11.921
20721SOL     OW64059   6.499   3.673   1.652
20721SOL    HW164060   6.576   3.622   1.625
20721SOL    HW264061   6.525   3.764   1.638
20722SOL     OW64062   3.080  14.683   5.005
20722SOL    HW164063   3.046  14.666   5.093
20722SOL    HW264064   3.117  14.599   4.977
20723SOL     OW64065   8.977   1.363  13.041
20723SOL    HW164066   9.055   1.314  13.015
20723SOL    HW264067   8.991   1.381  13.134
20724SOL     OW64068   7.056   3.383  12.265
20724SOL    HW164069   7.100   3.298  12.264
20724SOL    HW264070   7.076   3.419  12.351
20725SOL     OW64071   3.413   3.179  10.147
20725SOL    HW164072   3.414   3.089  10.179
20725SOL    HW264073   3.366   3.228  10.214
20726SOL     OW64074   5.751  13.722  11.675
20726SOL    HW164075   5.826  13.689  11.626
20726SOL    HW264076   5.782  13.727  11.766
20727SOL     OW64077   5.158   2.125  14.578
20727SOL    HW164078   5.194   2.177  14.506
20727SOL    HW264079   5.159   2.184  14.653
20728SOL     OW64080  10.331   2.719  12.870
20728SOL    HW164081  10.264   2.779  12.901
20728SOL    HW264082  10.410   2.744  12.918
20729SOL     OW64083   4.605   0.805   4.276
20729SOL    HW164084   4.524   0.816   4.225
20729SOL    HW264085   4.673   0.797   4.210
20730SOL     OW64086   7.313   6.756   8.687
20730SOL    HW164087   7.384   6.727   8.630
20730SOL    HW264088   7.329   6.711   8.770
20731SOL     OW64089   8.781   5.449  14.735
20731SOL    HW164090   8.756   5.408  14.652
20731SOL    HW264091   8.720   5.411  14.799
20732SOL     OW64092  12.590   0.386  13.782
20732SOL    HW164093  12.588   0.319  13.714
20732SOL    HW264094  12.662   0.444  13.756
20733SOL     OW64095   6.554   1.455  12.926
20733SOL    HW164096   6.641   1.494  12.936
20733SOL    HW264097   6.495   1.530  12.921
20734SOL     OW64098   0.302   8.370   9.340
20734SOL    HW164099   0.237   8.413   9.396
20734SOL    HW264100   0.350   8.312   9.400
20735SOL     OW64101   7.755  11.617  10.615
20735SOL    HW164102   7.693  11.589  10.547
20735SOL    HW264103   7.706  11.611  10.696
20736SOL     OW64104   5.339   1.772   0.528
20736SOL    HW164105   5.340   1.701   0.592
20736SOL    HW264106   5.282   1.739   0.458
20737SOL     OW64107  13.769   3.419   9.071
20737SOL    HW164108  13.794   3.452   8.985
20737SOL    HW264109  13.825   3.466   9.133
20738SOL     OW64110   4.168   4.383   4.928
20738SOL    HW164111   4.104   4.335   4.981
20738SOL    HW264112   4.166   4.338   4.843
20739SOL     OW64113   0.986   3.049   9.695
20739SOL    HW164114   1.070   3.054   9.650
20739SOL    HW264115   0.956   3.140   9.698
20740SOL     OW64116   9.873   9.509   6.897
20740SOL    HW164117   9.846   9.513   6.805
20740SOL    HW264118   9.960   9.469   6.894
20741SOL     OW64119   1.137   0.231   0.090
20741SOL    HW164120   1.059   0.286   0.099
20741SOL    HW264121   1.125   0.185   0.007
20742SOL     OW64122   2.921  14.682   4.764
20742SOL    HW164123   2.973  14.616   4.810
20742SOL    HW264124   2.928  14.760   4.818
20743SOL     OW64125   2.437  13.190   2.832
20743SOL    HW164126   2.531  13.198   2.819
20743SOL    HW264127   2.399  13.251   2.768
20744SOL     OW64128  11.851   1.786   4.388
20744SOL    HW164129  11.850   1.775   4.483
20744SOL    HW264130  11.848   1.881   4.374
20745SOL     OW64131   9.959   6.584   9.445
20745SOL    HW164132   9.932   6.659   9.392
20745SOL    HW264133   9.914   6.509   9.407
20746SOL     OW64134   8.778   5.284   6.394
20746SOL    HW164135   8.824   5.299   6.312
20746SOL    HW264136   8.786   5.367   6.441
20747SOL     OW64137   0.606   0.050  13.326
20747SOL    HW164138   0.656   0.053  13.407
20747SOL    HW264139   0.638  14.854  13.281
20748SOL     OW64140   3.790   9.947   5.816
20748SOL    HW164141   3.866   9.947   5.874
20748SOL    HW264142   3.821   9.991   5.737
20749SOL     OW64143   7.619   9.315   0.681
20749SOL    HW164144   7.689   9.378   0.661
20749SOL    HW264145   7.561   9.362   0.741
20750SOL     OW64146  12.051   5.370   7.745
20750SOL    HW164147  12.031   5.285   7.784
20750SOL    HW264148  12.088   5.421   7.817
20751SOL     OW64149   2.464  14.593  10.631
20751SOL    HW164150   2.526  14.520  10.629
20751SOL    HW264151   2.477  14.633  10.717
20752SOL     OW64152  13.814   5.015   6.559
20752SOL    HW164153  13.769   5.076   6.500
20752SOL    HW264154  13.870   4.963   6.501
20753SOL     OW64155  11.960   6.416  14.442
20753SOL    HW164156  11.937   6.323  14.450
20753SOL    HW264157  12.051   6.420  14.473
20754SOL     OW64158   6.373   2.230   4.625
20754SOL    HW164159   6.295   2.214   4.678
20754SOL    HW264160   6.404   2.316   4.654
20755SOL     OW64161   2.356   3.629   0.461
20755SOL    HW164162   2.394   3.700   0.409
20755SOL    HW264163   2.331   3.671   0.544
20756SOL     OW64164   9.391   1.228   6.150
20756SOL    HW164165   9.300   1.250   6.170
20756SOL    HW264166   9.431   1.312   6.126
20757SOL     OW64167   6.552  12.316   8.101
20757SOL    HW164168   6.560  12.326   8.006
20757SOL    HW264169   6.599  12.235   8.121
20758SOL     OW64170   1.241   9.562  14.166
20758SOL    HW164171   1.263   9.610  14.086
20758SOL    HW264172   1.282   9.476  14.155
20759SOL     OW64173   4.075   2.819  14.579
20759SOL    HW164174   4.122   2.744  14.544
20759SOL    HW264175   4.144   2.882  14.601
20760SOL     OW64176   4.640   5.090  12.293
20760SOL    HW164177   4.701   5.047  12.353
20760SOL    HW264178   4.694   5.116  12.219
20761SOL     OW64179   6.562   9.601   4.406
20761SOL    HW164180   6.650   9.625   4.433
20761SOL    HW264181   6.563   9.505   4.405
20762SOL     OW64182   9.319   5.195   6.913
20762SOL    HW164183   9.324   5.228   6.823
20762SOL    HW264184   9.409   5.169   6.934
20763SOL     OW64185  10.249   1.442   6.129
20763SOL    HW164186  10.221   1.422   6.218
20763SOL    HW264187  10.270   1.536   6.130
20764SOL     OW64188   4.891   8.206  14.241
20764SOL    HW164189   4.815   8.250  14.279
20764SOL    HW264190   4.856   8.125  14.205
20765SOL     OW64191  14.880   4.884   6.088
20765SOL    HW164192   0.093   4.879   6.095
20765SOL    HW264193  14.848   4.887   6.178
20766SOL     OW64194  13.856   4.445  11.728
20766SOL    HW164195  13.877   4.522  11.782
20766SOL    HW264196  13.788   4.399  11.778
20767SOL     OW64197   0.387   3.986   6.717
20767SOL    HW164198   0.359   3.895   6.707
20767SOL    HW264199   0.480   3.980   6.739
20768SOL     OW64200  11.444   9.622   6.520
20768SOL    HW164201  11.459   9.631   6.614
20768SOL    HW264202  11.357   9.583   6.513
20769SOL     OW64203  12.600   1.699   4.779
20769SOL    HW164204  12.692   1.698   4.755
20769SOL    HW264205  12.591   1.629   4.844
20770SOL     OW64206  10.988   1.307   6.241
20770SOL    HW164207  10.962   1.397   6.219
20770SOL    HW264208  11.052   1.283   6.174
20771SOL     OW64209   6.534  10.944   0.601
20771SOL    HW164210   6.439  10.959   0.601
20771SOL    HW264211   6.549  10.887   0.527
20772SOL     OW64212  14.547   0.508   3.282
20772SOL    HW164213  14.451   0.513   3.289
20772SOL    HW264214  14.577   0.593   3.314
20773SOL     OW64215   0.409  10.929   9.185
20773SOL    HW164216   0.323  10.893   9.164
20773SOL    HW264217   0.417  10.921   9.280
20774SOL     OW64218   8.718   4.209  13.109
20774SOL    HW164219   8.783   4.279  13.114
20774SOL    HW264220   8.719   4.169  13.196
20775SOL     OW64221  11.873  14.799  11.401
20775SOL    HW164222  11.876  14.810  11.306
20775SOL    HW264223  11.940  14.734  11.420
20776SOL     OW64224   8.130   0.850   2.229
20776SOL    HW164225   8.201   0.788   2.245
20776SOL    HW264226   8.056   0.816   2.278
20777SOL     OW64227   5.068   6.988   8.383
20777SOL    HW164228   5.092   7.079   8.403
20777SOL    HW264229   5.137   6.957   8.325
20778SOL     OW64230  10.132  13.998   2.114
20778SOL    HW164231  10.190  13.980   2.039
20778SOL    HW264232  10.114  13.911   2.150
20779SOL     OW64233   4.908   8.056   2.432
20779SOL    HW164234   4.888   7.982   2.375
20779SOL    HW264235   4.908   8.020   2.520
20780SOL     OW64236   8.476   4.718  10.122
20780SOL    HW164237   8.510   4.707  10.033
20780SOL    HW264238   8.458   4.629  10.153
20781SOL     OW64239   1.746   2.047   0.041
20781SOL    HW164240   1.726   2.047   0.134
20781SOL    HW264241   1.662   2.057  14.879
20782SOL     OW64242  14.157   4.089   1.216
20782SOL    HW164243  14.240   4.050   1.244
20782SOL    HW264244  14.162   4.180   1.245
20783SOL     OW64245  11.087   9.588   9.414
20783SOL    HW164246  11.176   9.570   9.444
20783SOL    HW264247  11.038   9.605   9.494
20784SOL     OW64248   4.331   3.229  10.005
20784SOL    HW164249   4.358   3.138   9.995
20784SOL    HW264250   4.412   3.277  10.017
20785SOL     OW64251   9.063   3.103   0.275
20785SOL    HW164252   8.997   3.043   0.310
20785SOL    HW264253   9.016   3.186   0.264
20786SOL     OW64254   7.451   2.940  12.044
20786SOL    HW164255   7.366   2.902  12.021
20786SOL    HW264256   7.479   2.987  11.965
20787SOL     OW64257   6.522  12.663   7.983
20787SOL    HW164258   6.489  12.753   7.989
20787SOL    HW264259   6.463  12.613   8.039
20788SOL     OW64260  13.895   3.790   9.301
20788SOL    HW164261  13.905   3.873   9.348
20788SOL    HW264262  13.984   3.769   9.272
20789SOL     OW64263  14.647  10.320   1.026
20789SOL    HW164264  14.681  10.295   0.940
20789SOL    HW264265  14.724  10.350   1.075
20790SOL     OW64266   8.035   2.094  14.853
20790SOL    HW164267   8.031   2.149   0.050
20790SOL    HW264268   8.056   2.156  14.783
20791SOL     OW64269  14.855   9.407   9.762
20791SOL    HW164270  14.762   9.398   9.784
20791SOL    HW264271  14.882   9.320   9.733
20792SOL     OW64272   9.637  10.669   0.505
20792SOL    HW164273   9.669  10.727   0.436
20792SOL    HW264274   9.574  10.721   0.554
20793SOL     OW64275   7.770   0.332   9.547
20793SOL    HW164276   7.740   0.405   9.602
20793SOL    HW264277   7.801   0.374   9.467
20794SOL     OW64278  10.311   7.510   4.268
20794SOL    HW164279  10.265   7.567   4.329
20794SOL    HW264280  10.293   7.547   4.182
20795SOL     OW64281   4.262   1.997   8.380
20795SOL    HW164282   4.231   2.071   8.433
20795SOL    HW264283   4.269   1.924   8.442
20796SOL     OW64284   4.913   2.986   6.299
20796SOL    HW164285   4.941   2.895   6.310
20796SOL    HW264286   4.827   2.990   6.342
20797SOL     OW64287   4.975  11.385  11.959
20797SOL    HW164288   5.043  11.423  11.903
20797SOL    HW264289   4.998  11.413  12.048
20798SOL     OW64290   3.078  14.413   1.654
20798SOL    HW164291   3.092  14.325   1.619
20798SOL    HW264292   3.151  14.464   1.619
20799SOL     OW64293  12.243   4.913  12.436
20799SOL    HW164294  12.267   4.985  12.494
20799SOL    HW264295  12.325   4.865  12.423
20800SOL     OW64296   1.213   3.023   7.829
20800SOL    HW164297   1.178   3.009   7.742
20800SOL    HW264298   1.192   2.943   7.877
20801SOL     OW64299   2.776  12.536   5.531
20801SOL    HW164300   2.788  12.477   5.456
20801SOL    HW264301   2.691  12.577   5.516
20802SOL     OW64302   7.214   6.613   2.601
20802SOL    HW164303   7.168   6.534   2.630
20802SOL    HW264304   7.191   6.621   2.508
20803SOL     OW64305  13.915   3.989  10.815
20803SOL    HW164306  13.998   3.965  10.774
20803SOL    HW264307  13.925   3.965  10.907
20804SOL     OW64308   3.626  13.569   6.492
20804SOL    HW164309   3.685  13.607   6.557
20804SOL    HW264310   3.579  13.644   6.456
20805SOL     OW64311   4.944   2.726   2.252
20805SOL    HW164312   4.956   2.768   2.337
20805SOL    HW264313   4.853   2.694   2.254
20806SOL     OW64314   8.436   6.070   3.650
20806SOL    HW164315   8.427   6.148   3.596
20806SOL    HW264316   8.488   6.010   3.597
20807SOL     OW64317   5.919   5.320   1.105
20807SOL    HW164318   5.877   5.354   1.026
20807SOL    HW264319   6.011   5.341   1.094
20808SOL     OW64320  12.487   4.830   4.358
20808SOL    HW164321  12.489   4.739   4.328
20808SOL    HW264322  12.449   4.879   4.285
20809SOL     OW64323   5.089  13.894  12.695
20809SOL    HW164324   5.182  13.878  12.711
20809SOL    HW264325   5.058  13.815  12.650
20810SOL     OW64326  14.270   1.860  12.943
20810SOL    HW164327  14.358   1.883  12.972
20810SOL    HW264328  14.212   1.911  13.000
20811SOL     OW64329   0.637   0.261  12.391
20811SOL    HW164330   0.698   0.211  12.337
20811SOL    HW264331   0.583   0.309  12.328
20812SOL     OW64332   0.560   7.446  11.727
20812SOL    HW164333   0.534   7.535  11.751
20812SOL    HW264334   0.581   7.452  11.634
20813SOL     OW64335   1.999   9.521   8.566
20813SOL    HW164336   1.948   9.501   8.645
20813SOL    HW264337   1.939   9.505   8.493
20814SOL     OW64338   1.748   3.890   4.572
20814SOL    HW164339   1.696   3.924   4.500
20814SOL    HW264340   1.789   3.810   4.538
20815SOL     OW64341  12.542   3.279   1.303
20815SOL    HW164342  12.614   3.243   1.251
20815SOL    HW264343  12.476   3.303   1.238
20816SOL     OW64344  12.267   6.833   4.076
20816SOL    HW164345  12.322   6.907   4.046
20816SOL    HW264346  12.316   6.755   4.048
20817SOL     OW64347   9.677   2.554   4.605
20817SOL    HW164348   9.687   2.585   4.515
20817SOL    HW264349   9.766   2.531   4.632
20818SOL     OW64350   3.730  10.401   2.798
20818SOL    HW164351   3.680  10.398   2.716
20818SOL    HW264352   3.706  10.320   2.843
20819SOL     OW64353  14.377  14.809  11.979
20819SOL    HW164354  14.434  14.764  12.041
20819SOL    HW264355  14.406  14.779  11.893
20820SOL     OW64356  14.727   9.313  12.141
20820SOL    HW164357  14.791   9.380  12.163
20820SOL    HW264358  14.656   9.326  12.204
20821SOL     OW64359   6.830   6.899  14.668
20821SOL    HW164360   6.820   6.986  14.708
20821SOL    HW264361   6.811   6.914  14.575
20822SOL     OW64362   6.132   8.376   9.824
20822SOL    HW164363   6.155   8.365   9.731
20822SOL    HW264364   6.214   8.359   9.871
20823SOL     OW64365   4.773  14.849   6.584
20823SOL    HW164366   4.684  14.876   6.606
20823SOL    HW264367   4.763  14.796   6.505
20824SOL     OW64368   0.549   2.993   7.273
20824SOL    HW164369   0.453   2.986   7.273
20824SOL    HW264370   0.579   2.904   7.256
20825SOL     OW64371   1.650   6.322   2.252
20825SOL    HW164372   1.685   6.398   2.299
20825SOL    HW264373   1.717   6.303   2.186
20826SOL     OW64374   2.725   8.882  11.107
20826SOL    HW164375   2.769   8.907  11.026
20826SOL    HW264376   2.778   8.922  11.176
20827SOL     OW64377   2.133   1.794   0.406
20827SOL    HW164378   2.175   1.771   0.488
20827SOL    HW264379   2.069   1.725   0.391
20828SOL     OW64380  14.143   5.479   3.921
20828SOL    HW164381  14.083   5.430   3.978
20828SOL    HW264382  14.222   5.426   3.919
20829SOL     OW64383   9.238   9.417   2.983
20829SOL    HW164384   9.189   9.434   2.902
20829SOL    HW264385   9.204   9.333   3.014
20830SOL     OW64386   4.942   8.964  12.868
20830SOL    HW164387   4.932   8.894  12.932
20830SOL    HW264388   4.989   8.923  12.795
20831SOL     OW64389   4.179   8.490  12.938
20831SOL    HW164390   4.191   8.434  13.014
20831SOL    HW264391   4.254   8.549  12.939
20832SOL     OW64392  11.498   3.177   2.868
20832SOL    HW164393  11.471   3.091   2.835
20832SOL    HW264394  11.559   3.210   2.802
20833SOL     OW64395   2.736   6.079   9.150
20833SOL    HW164396   2.699   6.054   9.235
20833SOL    HW264397   2.698   6.164   9.131
20834SOL     OW64398   7.232  11.873   2.765
20834SOL    HW164399   7.261  11.943   2.824
20834SOL    HW264400   7.220  11.797   2.821
20835SOL     OW64401   0.519  11.621  12.505
20835SOL    HW164402   0.505  11.706  12.463
20835SOL    HW264403   0.489  11.557  12.441
20836SOL     OW64404  11.216  10.715   3.969
20836SOL    HW164405  11.205  10.739   3.877
20836SOL    HW264406  11.134  10.742   4.011
20837SOL     OW64407   9.152   4.903   1.855
20837SOL    HW164408   9.089   4.974   1.863
20837SOL    HW264409   9.113   4.843   1.791
20838SOL     OW64410  11.545   7.675   6.005
20838SOL    HW164411  11.553   7.620   5.927
20838SOL    HW264412  11.521   7.614   6.075
20839SOL     OW64413   2.605   7.550   9.986
20839SOL    HW164414   2.598   7.532   9.892
20839SOL    HW264415   2.680   7.609   9.994
20840SOL     OW64416   7.236  13.674  12.962
20840SOL    HW164417   7.147  13.648  12.986
20840SOL    HW264418   7.287  13.593  12.967
20841SOL     OW64419   2.527   9.197   7.915
20841SOL    HW164420   2.505   9.108   7.887
20841SOL    HW264421   2.527   9.249   7.835
20842SOL     OW64422   1.585   3.853  13.032
20842SOL    HW164423   1.492   3.871  13.041
20842SOL    HW264424   1.611   3.816  13.116
20843SOL     OW64425   4.264  10.302   9.215
20843SOL    HW164426   4.193  10.238   9.218
20843SOL    HW264427   4.220  10.386   9.208
20844SOL     OW64428   1.884   5.071   2.115
20844SOL    HW164429   1.977   5.055   2.136
20844SOL    HW264430   1.883   5.082   2.020
20845SOL     OW64431   7.001   9.754  11.380
20845SOL    HW164432   6.993   9.697  11.456
20845SOL    HW264433   6.955   9.834  11.404
20846SOL     OW64434   2.462  11.424  14.668
20846SOL    HW164435   2.416  11.445  14.587
20846SOL    HW264436   2.442  11.497  14.727
20847SOL     OW64437   2.438   8.071   0.306
20847SOL    HW164438   2.420   7.978   0.298
20847SOL    HW264439   2.371   8.114   0.253
20848SOL     OW64440  10.521   3.590   7.210
20848SOL    HW164441  10.504   3.498   7.229
20848SOL    HW264442  10.490   3.636   7.288
20849SOL     OW64443  12.394   6.978   0.613
20849SOL    HW164444  12.416   7.027   0.534
20849SOL    HW264445  12.375   7.045   0.679
20850SOL     OW64446   3.993  12.818   1.454
20850SOL    HW164447   3.955  12.857   1.375
20850SOL    HW264448   4.026  12.733   1.425
20851SOL     OW64449   1.346  11.383   0.393
20851SOL    HW164450   1.320  11.295   0.368
20851SOL    HW264451   1.375  11.375   0.484
20852SOL     OW64452   9.332  13.246   1.932
20852SOL    HW164453   9.242  13.230   1.960
20852SOL    HW264454   9.360  13.323   1.981
20853SOL     OW64455   6.460  11.515   9.563
20853SOL    HW164456   6.407  11.572   9.508
20853SOL    HW264457   6.464  11.559   9.648
20854SOL     OW64458   8.476  14.084   9.191
20854SOL    HW164459   8.451  13.999   9.228
20854SOL    HW264460   8.422  14.147   9.238
20855SOL     OW64461   7.760  13.703  10.729
20855SOL    HW164462   7.684  13.749  10.765
20855SOL    HW264463   7.723  13.631  10.678
20856SOL     OW64464   8.065   4.841   5.925
20856SOL    HW164465   8.115   4.760   5.938
20856SOL    HW264466   8.092   4.872   5.839
20857SOL     OW64467   7.504   5.418   9.478
20857SOL    HW164468   7.483   5.502   9.519
20857SOL    HW264469   7.523   5.360   9.552
20858SOL     OW64470  14.428   7.946   2.343
20858SOL    HW164471  14.513   7.986   2.325
20858SOL    HW264472  14.447   7.852   2.349
20859SOL     OW64473  14.814  11.605   9.590
20859SOL    HW164474  14.767  11.590   9.672
20859SOL    HW264475  14.872  11.529   9.581
20860SOL     OW64476  10.211   6.549  14.092
20860SOL    HW164477  10.116   6.546  14.087
20860SOL    HW264478  10.231   6.539  14.185
20861SOL     OW64479  13.978  10.885  13.639
20861SOL    HW164480  13.955  10.840  13.721
20861SOL    HW264481  13.923  10.843  13.573
20862SOL     OW64482   8.153   1.070   9.783
20862SOL    HW164483   8.233   1.076   9.835
20862SOL    HW264484   8.106   1.151   9.802
20863SOL     OW64485   1.119   1.579   0.711
20863SOL    HW164486   1.104   1.501   0.659
20863SOL    HW264487   1.144   1.546   0.798
20864SOL     OW64488  10.222   1.171   3.329
20864SOL    HW164489  10.271   1.202   3.252
20864SOL    HW264490  10.131   1.168   3.300
20865SOL     OW64491   6.519   9.009   0.976
20865SOL    HW164492   6.570   8.998   1.057
20865SOL    HW264493   6.436   8.966   0.995
20866SOL     OW64494   9.198   1.761  14.027
20866SOL    HW164495   9.208   1.807  14.111
20866SOL    HW264496   9.218   1.669  14.047
20867SOL     OW64497   9.655   5.141   4.994
20867SOL    HW164498   9.592   5.085   4.948
20867SOL    HW264499   9.604   5.218   5.018
20868SOL     OW64500  13.805  11.775  12.811
20868SOL    HW164501  13.841  11.815  12.890
20868SOL    HW264502  13.874  11.717  12.779
20869SOL     OW64503   2.627  14.612   9.381
20869SOL    HW164504   2.631  14.556   9.303
20869SOL    HW264505   2.707  14.591   9.429
20870SOL     OW64506   2.994   0.832   4.759
20870SOL    HW164507   3.019   0.795   4.674
20870SOL    HW264508   3.000   0.759   4.820
20871SOL     OW64509   2.539   8.963   4.789
20871SOL    HW164510   2.629   8.957   4.757
20871SOL    HW264511   2.527   8.886   4.844
20872SOL     OW64512  10.152   1.098   0.331
20872SOL    HW164513  10.123   1.189   0.329
20872SOL    HW264514  10.214   1.093   0.404
20873SOL     OW64515   5.978   0.185   9.723
20873SOL    HW164516   6.011   0.265   9.765
20873SOL    HW264517   6.031   0.176   9.644
20874SOL     OW64518  14.453  10.350  14.168
20874SOL    HW164519  14.396  10.349  14.091
20874SOL    HW264520  14.410  10.291  14.230
20875SOL     OW64521  12.676  11.537   4.306
20875SOL    HW164522  12.638  11.450   4.296
20875SOL    HW264523  12.623  11.593   4.248
20876SOL     OW64524   8.056  10.972   7.374
20876SOL    HW164525   8.019  10.900   7.425
20876SOL    HW264526   8.057  11.046   7.435
20877SOL     OW64527   5.125   5.479   9.295
20877SOL    HW164528   5.058   5.521   9.349
20877SOL    HW264529   5.208   5.506   9.334
20878SOL     OW64530   5.755   1.026   3.630
20878SOL    HW164531   5.760   0.999   3.539
20878SOL    HW264532   5.722   1.116   3.627
20879SOL     OW64533   8.250   2.991   4.011
20879SOL    HW164534   8.271   3.044   3.934
20879SOL    HW264535   8.313   3.019   4.077
20880SOL     OW64536   8.076   2.385   4.282
20880SOL    HW164537   7.997   2.438   4.275
20880SOL    HW264538   8.099   2.388   4.375
20881SOL     OW64539  14.448   8.241   9.379
20881SOL    HW164540  14.376   8.207   9.433
20881SOL    HW264541  14.405   8.291   9.310
20882SOL     OW64542  11.050   0.697   8.515
20882SOL    HW164543  11.042   0.717   8.422
20882SOL    HW264544  11.021   0.606   8.522
20883SOL     OW64545   7.959  10.696  12.439
20883SOL    HW164546   7.867  10.720  12.449
20883SOL    HW264547   7.979  10.717  12.347
20884SOL     OW64548   6.774   2.895  13.334
20884SOL    HW164549   6.761   2.861  13.422
20884SOL    HW264550   6.686   2.903  13.298
20885SOL     OW64551   8.401  14.629  12.985
20885SOL    HW164552   8.467  14.598  12.923
20885SOL    HW264553   8.372  14.712  12.949
20886SOL     OW64554   8.007   0.057   3.023
20886SOL    HW164555   8.017   0.065   2.928
20886SOL    HW264556   8.092   0.083   3.058
20887SOL     OW64557   4.884   8.089  11.481
20887SOL    HW164558   4.873   8.168  11.428
20887SOL    HW264559   4.896   8.019  11.418
20888SOL     OW64560   8.875   0.709   8.343
20888SOL    HW164561   8.887   0.713   8.249
20888SOL    HW264562   8.783   0.732   8.357
20889SOL     OW64563  11.740  13.527   1.567
20889SOL    HW164564  11.798  13.466   1.523
20889SOL    HW264565  11.654  13.510   1.529
20890SOL     OW64566   8.095   8.142  10.980
20890SOL    HW164567   8.164   8.192  10.937
20890SOL    HW264568   8.052   8.206  11.037
20891SOL     OW64569  13.269  12.968  13.412
20891SOL    HW164570  13.310  13.039  13.363
20891SOL    HW264571  13.266  13.000  13.502
20892SOL     OW64572  14.135   1.102   1.971
20892SOL    HW164573  14.144   1.191   1.937
20892SOL    HW264574  14.067   1.062   1.916
20893SOL     OW64575   2.054   5.583   6.260
20893SOL    HW164576   2.027   5.639   6.333
20893SOL    HW264577   2.132   5.626   6.226
20894SOL     OW64578   1.413  11.627   2.847
20894SOL    HW164579   1.335  11.676   2.820
20894SOL    HW264580   1.413  11.549   2.792
20895SOL     OW64581  12.419   6.652  12.527
20895SOL    HW164582  12.352   6.718  12.542
20895SOL    HW264583  12.502   6.700  12.531
20896SOL     OW64584   0.237   3.480   9.905
20896SOL    HW164585   0.175   3.541   9.947
20896SOL    HW264586   0.258   3.418   9.974
20897SOL     OW64587   7.972   9.748   9.827
20897SOL    HW164588   8.039   9.686   9.798
20897SOL    HW264589   7.897   9.731   9.770
20898SOL     OW64590  11.342  11.047   7.248
20898SOL    HW164591  11.338  10.998   7.330
20898SOL    HW264592  11.341  11.139   7.275
20899SOL     OW64593  12.088  13.360   8.203
20899SOL    HW164594  12.166  13.349   8.257
20899SOL    HW264595  12.066  13.272   8.173
20900SOL     OW64596  10.976   7.398   7.324
20900SOL    HW164597  10.965   7.491   7.300
20900SOL    HW264598  10.973   7.397   7.419
20901SOL     OW64599   0.842   6.036  10.629
20901SOL    HW164600   0.750   6.034  10.604
20901SOL    HW264601   0.883   5.968  10.576
20902SOL     OW64602  12.552  10.734   1.219
20902SOL    HW164603  12.511  10.752   1.135
20902SOL    HW264604  12.638  10.698   1.198
20903SOL     OW64605   8.470  12.385  12.237
20903SOL    HW164606   8.417  12.357  12.162
20903SOL    HW264607   8.525  12.455  12.203
20904SOL     OW64608   6.760   3.188   3.879
20904SOL    HW164609   6.809   3.160   3.956
20904SOL    HW264610   6.798   3.273   3.856
20905SOL     OW64611  10.410   3.603  13.148
20905SOL    HW164612  10.498   3.632  13.171
20905SOL    HW264613  10.392   3.531  13.208
20906SOL     OW64614   4.826   9.425   2.317
20906SOL    HW164615   4.852   9.517   2.309
20906SOL    HW264616   4.819   9.395   2.226
20907SOL     OW64617  12.082   0.942  12.286
20907SOL    HW164618  11.986   0.948  12.290
20907SOL    HW264619  12.100   0.849  12.272
20908SOL     OW64620   2.323   3.731   8.078
20908SOL    HW164621   2.363   3.755   8.161
20908SOL    HW264622   2.390   3.678   8.034
20909SOL     OW64623   0.113  14.177   8.449
20909SOL    HW164624   0.154  14.219   8.373
20909SOL    HW264625   0.019  14.182   8.430
20910SOL     OW64626   8.245   3.334   1.212
20910SOL    HW164627   8.187   3.374   1.147
20910SOL    HW264628   8.318   3.395   1.220
20911SOL     OW64629   7.077   9.677  12.623
20911SOL    HW164630   7.030   9.660  12.704
20911SOL    HW264631   7.031   9.625  12.557
20912SOL     OW64632   4.588   2.410   7.210
20912SOL    HW164633   4.609   2.317   7.196
20912SOL    HW264634   4.598   2.422   7.304
20913SOL     OW64635   6.412  14.540   4.984
20913SOL    HW164636   6.359  14.617   4.963
20913SOL    HW264637   6.502  14.572   4.985
20914SOL     OW64638  12.823  14.827  13.803
20914SOL    HW164639  12.819  14.810  13.709
20914SOL    HW264640  12.900  14.779  13.834
20915SOL     OW64641   8.501   2.196   6.891
20915SOL    HW164642   8.565   2.266   6.876
20915SOL    HW264643   8.424   2.223   6.840
20916SOL     OW64644   3.791   6.673   8.619
20916SOL    HW164645   3.862   6.703   8.563
20916SOL    HW264646   3.806   6.579   8.630
20917SOL     OW64647   2.291   0.662   1.457
20917SOL    HW164648   2.357   0.723   1.489
20917SOL    HW264649   2.293   0.589   1.519
20918SOL     OW64650  10.528  12.822  13.871
20918SOL    HW164651  10.554  12.799  13.781
20918SOL    HW264652  10.472  12.899  13.861
20919SOL     OW64653   6.968  14.633   3.367
20919SOL    HW164654   6.886  14.584   3.363
20919SOL    HW264655   6.958  14.701   3.301
20920SOL     OW64656   6.592   1.999   3.239
20920SOL    HW164657   6.544   1.918   3.225
20920SOL    HW264658   6.657   1.977   3.306
20921SOL     OW64659   5.431   5.986  10.926
20921SOL    HW164660   5.384   6.055  10.974
20921SOL    HW264661   5.365   5.949  10.867
20922SOL     OW64662   7.954  12.194  10.057
20922SOL    HW164663   7.955  12.280  10.098
20922SOL    HW264664   8.025  12.146  10.100
20923SOL     OW64665   7.247  13.261  11.519
20923SOL    HW164666   7.241  13.180  11.570
20923SOL    HW264667   7.218  13.330  11.578
20924SOL     OW64668   0.919  13.557   5.400
20924SOL    HW164669   0.883  13.645   5.408
20924SOL    HW264670   0.976  13.547   5.477
20925SOL     OW64671   3.624  12.121   6.856
20925SOL    HW164672   3.608  12.031   6.828
20925SOL    HW264673   3.710  12.118   6.898
20926SOL     OW64674   4.313  13.215  12.447
20926SOL    HW164675   4.344  13.188  12.361
20926SOL    HW264676   4.337  13.308  12.453
20927SOL     OW64677   3.714   2.864   2.231
20927SOL    HW164678   3.703   2.949   2.274
20927SOL    HW264679   3.669   2.802   2.289
20928SOL     OW64680  12.311   7.435   7.220
20928SOL    HW164681  12.304   7.343   7.248
20928SOL    HW264682  12.365   7.432   7.141
20929SOL     OW64683   2.055   2.147  13.643
20929SOL    HW164684   2.090   2.209  13.707
20929SOL    HW264685   2.099   2.169  13.561
20930SOL     OW64686  14.154  10.599   2.194
20930SOL    HW164687  14.154  10.518   2.246
20930SOL    HW264688  14.100  10.660   2.245
20931SOL     OW64689   0.570   3.153  12.156
20931SOL    HW164690   0.522   3.073  12.138
20931SOL    HW264691   0.630   3.130  12.227
20932SOL     OW64692  14.433   8.895   3.847
20932SOL    HW164693  14.517   8.906   3.803
20932SOL    HW264694  14.438   8.950   3.925
20933SOL     OW64695   8.599   6.111  13.239
20933SOL    HW164696   8.689   6.088  13.217
20933SOL    HW264697   8.606   6.161  13.321
20934SOL     OW64698  13.856   2.985  11.689
20934SOL    HW164699  13.840   2.915  11.752
20934SOL    HW264700  13.933   3.030  11.724
20935SOL     OW64701  12.882  10.343  10.498
20935SOL    HW164702  12.855  10.413  10.558
20935SOL    HW264703  12.977  10.345  10.501
20936SOL     OW64704   1.146   9.377   5.500
20936SOL    HW164705   1.230   9.349   5.464
20936SOL    HW264706   1.124   9.456   5.450
20937SOL     OW64707  10.588   1.360   7.275
20937SOL    HW164708  10.519   1.298   7.250
20937SOL    HW264709  10.582   1.431   7.211
20938SOL     OW64710   6.051   9.328   0.416
20938SOL    HW164711   6.059   9.241   0.377
20938SOL    HW264712   5.965   9.328   0.458
20939SOL     OW64713   8.568  12.978  11.113
20939SOL    HW164714   8.578  13.069  11.142
20939SOL    HW264715   8.656  12.951  11.088
20940SOL     OW64716   6.915   4.346   2.998
20940SOL    HW164717   6.823   4.352   3.024
20940SOL    HW264718   6.913   4.326   2.904
20941SOL     OW64719  13.254  13.574   5.635
20941SOL    HW164720  13.214  13.661   5.630
20941SOL    HW264721  13.303  13.565   5.554
20942SOL     OW64722  13.852   8.057  10.313
20942SOL    HW164723  13.761   8.039  10.287
20942SOL    HW264724  13.888   7.971  10.334
20943SOL     OW64725   9.700   6.282   5.755
20943SOL    HW164726   9.719   6.267   5.848
20943SOL    HW264727   9.626   6.226   5.736
20944SOL     OW64728   8.028   0.745   1.447
20944SOL    HW164729   7.941   0.729   1.484
20944SOL    HW264730   8.056   0.828   1.486
20945SOL     OW64731  14.169   8.943  10.332
20945SOL    HW164732  14.256   8.979  10.316
20945SOL    HW264733  14.141   8.985  10.414
20946SOL     OW64734   1.124   5.850  11.032
20946SOL    HW164735   1.186   5.909  10.988
20946SOL    HW264736   1.060   5.827  10.964
20947SOL     OW64737   7.008   0.595  12.774
20947SOL    HW164738   7.056   0.530  12.826
20947SOL    HW264739   6.964   0.544  12.706
20948SOL     OW64740  13.212  12.124   8.426
20948SOL    HW164741  13.157  12.176   8.367
20948SOL    HW264742  13.262  12.189   8.475
20949SOL     OW64743   4.219  13.565   3.298
20949SOL    HW164744   4.203  13.505   3.371
20949SOL    HW264745   4.135  13.608   3.284
20950SOL     OW64746   6.472   1.511   2.454
20950SOL    HW164747   6.538   1.569   2.491
20950SOL    HW264748   6.444   1.457   2.528
20951SOL     OW64749   5.143   2.200   7.608
20951SOL    HW164750   5.105   2.114   7.624
20951SOL    HW264751   5.071   2.261   7.618
20952SOL     OW64752   0.429   7.779   2.901
20952SOL    HW164753   0.481   7.839   2.954
20952SOL    HW264754   0.478   7.697   2.900
20953SOL     OW64755  12.949  14.572   2.697
20953SOL    HW164756  12.877  14.513   2.720
20953SOL    HW264757  13.024  14.515   2.681
20954SOL     OW64758  12.968  13.368   6.635
20954SOL    HW164759  12.951  13.345   6.726
20954SOL    HW264760  13.053  13.327   6.616
20955SOL     OW64761   3.177   8.417   9.659
20955SOL    HW164762   3.171   8.473   9.736
20955SOL    HW264763   3.211   8.333   9.692
20956SOL     OW64764   2.713   3.408  13.957
20956SOL    HW164765   2.690   3.394  13.866
20956SOL    HW264766   2.780   3.477  13.954
20957SOL     OW64767   0.520   4.821  14.562
20957SOL    HW164768   0.443   4.809  14.618
20957SOL    HW264769   0.595   4.816  14.621
20958SOL     OW64770   1.123   8.885   3.568
20958SOL    HW164771   1.027   8.887   3.567
20958SOL    HW264772   1.146   8.834   3.490
20959SOL     OW64773  14.818  10.368  12.906
20959SOL    HW164774  14.828  10.327  12.821
20959SOL    HW264775  14.877  10.444  12.904
20960SOL     OW64776   9.415   3.865   7.465
20960SOL    HW164777   9.393   3.889   7.555
20960SOL    HW264778   9.492   3.918   7.444
20961SOL     OW64779   0.353   9.862   0.047
20961SOL    HW164780   0.423   9.881  14.866
20961SOL    HW264781   0.378   9.779   0.087
20962SOL     OW64782   6.320  14.263   2.494
20962SOL    HW164783   6.246  14.203   2.497
20962SOL    HW264784   6.283  14.348   2.519
20963SOL     OW64785   0.462   7.315  13.097
20963SOL    HW164786   0.467   7.219  13.100
20963SOL    HW264787   0.452   7.341  13.189
20964SOL     OW64788   5.741   9.972   6.219
20964SOL    HW164789   5.704   9.960   6.307
20964SOL    HW264790   5.679   9.930   6.160
20965SOL     OW64791   7.703   3.693   4.852
20965SOL    HW164792   7.696   3.760   4.783
20965SOL    HW264793   7.751   3.736   4.922
20966SOL     OW64794   7.017   7.925   0.945
20966SOL    HW164795   7.084   7.970   0.997
20966SOL    HW264796   7.021   7.834   0.974
20967SOL     OW64797  11.227   4.275  11.439
20967SOL    HW164798  11.190   4.337  11.502
20967SOL    HW264799  11.207   4.313  11.353
20968SOL     OW64800   5.894   4.815   8.125
20968SOL    HW164801   5.810   4.769   8.127
20968SOL    HW264802   5.872   4.907   8.143
20969SOL     OW64803   0.803  14.345  10.523
20969SOL    HW164804   0.774  14.435  10.533
20969SOL    HW264805   0.723  14.295  10.505
20970SOL     OW64806   1.468   9.901  14.154
20970SOL    HW164807   1.379   9.879  14.183
20970SOL    HW264808   1.466   9.995  14.138
20971SOL     OW64809   5.083   9.203  14.086
20971SOL    HW164810   5.149   9.255  14.042
20971SOL    HW264811   5.122   9.116  14.094
20972SOL     OW64812   2.829   8.898  11.671
20972SOL    HW164813   2.889   8.911  11.597
20972SOL    HW264814   2.881   8.851  11.736
20973SOL     OW64815   4.998   9.595  13.762
20973SOL    HW164816   4.974   9.610  13.854
20973SOL    HW264817   4.990   9.681  13.721
20974SOL     OW64818   4.560   2.829   9.779
20974SOL    HW164819   4.495   2.889   9.741
20974SOL    HW264820   4.534   2.743   9.748
20975SOL     OW64821   1.768  12.253  11.003
20975SOL    HW164822   1.720  12.173  10.982
20975SOL    HW264823   1.859  12.225  11.015
20976SOL     OW64824   2.627   9.132   8.157
20976SOL    HW164825   2.600   9.159   8.069
20976SOL    HW264826   2.568   9.061   8.180
20977SOL     OW64827  12.746   3.766   5.070
20977SOL    HW164828  12.657   3.745   5.098
20977SOL    HW264829  12.740   3.853   5.031
20978SOL     OW64830   1.166   6.003   7.803
20978SOL    HW164831   1.080   5.978   7.771
20978SOL    HW264832   1.199   5.924   7.847
20979SOL     OW64833   0.041  11.375   4.992
20979SOL    HW164834   0.036  11.450   5.051
20979SOL    HW264835  14.864  11.397   4.920
20980SOL     OW64836   8.447   6.670   3.886
20980SOL    HW164837   8.496   6.665   3.969
20980SOL    HW264838   8.391   6.747   3.896
20981SOL     OW64839   1.600  12.439   1.029
20981SOL    HW164840   1.514  12.464   0.996
20981SOL    HW264841   1.581  12.381   1.103
20982SOL     OW64842   0.113  12.711  10.721
20982SOL    HW164843   0.155  12.628  10.700
20982SOL    HW264844   0.021  12.689  10.734
20983SOL     OW64845   4.513   5.499   0.441
20983SOL    HW164846   4.459   5.449   0.379
20983SOL    HW264847   4.601   5.494   0.405
20984SOL     OW64848   8.680   7.456  13.969
20984SOL    HW164849   8.639   7.469  14.054
20984SOL    HW264850   8.745   7.387  13.984
20985SOL     OW64851  11.037   9.257  10.046
20985SOL    HW164852  11.123   9.249  10.086
20985SOL    HW264853  11.055   9.264   9.952
20986SOL     OW64854  13.523   7.881   7.763
20986SOL    HW164855  13.579   7.829   7.819
20986SOL    HW264856  13.436   7.843   7.774
20987SOL     OW64857  12.057   6.526   4.280
20987SOL    HW164858  12.134   6.538   4.335
20987SOL    HW264859  12.078   6.574   4.199
20988SOL     OW64860   4.541  14.081   6.456
20988SOL    HW164861   4.516  14.158   6.404
20988SOL    HW264862   4.472  14.017   6.438
20989SOL     OW64863   2.109   4.483   3.100
20989SOL    HW164864   2.159   4.429   3.038
20989SOL    HW264865   2.020   4.483   3.065
20990SOL     OW64866   9.704   4.230   9.166
20990SOL    HW164867   9.716   4.226   9.072
20990SOL    HW264868   9.615   4.197   9.181
20991SOL     OW64869   2.063   4.613   7.310
20991SOL    HW164870   2.157   4.596   7.313
20991SOL    HW264871   2.050   4.660   7.228
20992SOL     OW64872   1.623   1.439   6.855
20992SOL    HW164873   1.553   1.397   6.805
20992SOL    HW264874   1.581   1.516   6.895
20993SOL     OW64875   5.654  13.089   2.162
20993SOL    HW164876   5.622  13.179   2.160
20993SOL    HW264877   5.591  13.043   2.218
20994SOL     OW64878   5.810  13.116   5.277
20994SOL    HW164879   5.900  13.114   5.245
20994SOL    HW264880   5.780  13.025   5.270
20995SOL     OW64881   7.011   3.112   6.690
20995SOL    HW164882   6.937   3.151   6.643
20995SOL    HW264883   7.072   3.086   6.621
20996SOL     OW64884  12.100  11.871  12.515
20996SOL    HW164885  12.125  11.947  12.569
20996SOL    HW264886  12.060  11.810  12.578
20997SOL     OW64887   1.849   5.155  11.241
20997SOL    HW164888   1.779   5.098  11.212
20997SOL    HW264889   1.901   5.172  11.163
20998SOL     OW64890   2.438   0.133   2.185
20998SOL    HW164891   2.510   0.188   2.155
20998SOL    HW264892   2.480   0.057   2.224
20999SOL     OW64893  12.183   6.952   6.595
20999SOL    HW164894  12.134   7.023   6.636
20999SOL    HW264895  12.173   6.878   6.654
21000SOL     OW64896  14.795   7.225   4.283
21000SOL    HW164897  14.782   7.254   4.373
21000SOL    HW264898   0.006   7.240   4.265
21001SOL     OW64899   2.086  10.837   0.698
21001SOL    HW164900   2.052  10.923   0.670
21001SOL    HW264901   2.063  10.831   0.790
21002SOL     OW64902  12.046  10.373   2.513
21002SOL    HW164903  12.041  10.390   2.607
21002SOL    HW264904  12.127  10.324   2.501
21003SOL     OW64905   8.762   2.460   0.601
21003SOL    HW164906   8.738   2.516   0.675
21003SOL    HW264907   8.800   2.382   0.641
21004SOL     OW64908   8.890   6.441   7.071
21004SOL    HW164909   8.850   6.520   7.036
21004SOL    HW264910   8.842   6.369   7.028
21005SOL     OW64911   4.043  13.395   9.147
21005SOL    HW164912   3.950  13.388   9.125
21005SOL    HW264913   4.089  13.381   9.064
21006SOL     OW64914   6.904  11.308   0.035
21006SOL    HW164915   6.824  11.294   0.086
21006SOL    HW264916   6.974  11.271   0.089
21007SOL     OW64917  11.712   9.941   6.774
21007SOL    HW164918  11.727   9.894   6.691
21007SOL    HW264919  11.721   9.873   6.841
21008SOL     OW64920   5.831   4.135   4.199
21008SOL    HW164921   5.858   4.074   4.268
21008SOL    HW264922   5.746   4.169   4.230
21009SOL     OW64923  12.275   7.674   4.430
21009SOL    HW164924  12.360   7.631   4.427
21009SOL    HW264925  12.253   7.690   4.339
21010SOL     OW64926   1.373   6.708   4.095
21010SOL    HW164927   1.313   6.719   4.169
21010SOL    HW264928   1.460   6.721   4.134
21011SOL     OW64929  11.920  11.685   2.514
21011SOL    HW164930  11.963  11.770   2.528
21011SOL    HW264931  11.877  11.666   2.598
21012SOL     OW64932   7.453   2.858   3.182
21012SOL    HW164933   7.492   2.916   3.117
21012SOL    HW264934   7.431   2.915   3.256
21013SOL     OW64935   8.852   1.339   1.074
21013SOL    HW164936   8.934   1.291   1.076
21013SOL    HW264937   8.850   1.381   0.988
21014SOL     OW64938   4.920   7.905   1.477
21014SOL    HW164939   4.917   7.987   1.429
21014SOL    HW264940   4.837   7.861   1.455
21015SOL     OW64941   8.320  14.624   0.717
21015SOL    HW164942   8.391  14.687   0.710
21015SOL    HW264943   8.357  14.551   0.767
21016SOL     OW64944   6.720  13.383   8.422
21016SOL    HW164945   6.761  13.360   8.339
21016SOL    HW264946   6.780  13.349   8.489
21017SOL     OW64947   4.203   8.514  14.425
21017SOL    HW164948   4.273   8.555  14.476
21017SOL    HW264949   4.185   8.432  14.471
21018SOL     OW64950   6.285   6.999   2.999
21018SOL    HW164951   6.276   7.092   2.979
21018SOL    HW264952   6.372   6.991   3.038
21019SOL     OW64953   2.810   2.264  13.325
21019SOL    HW164954   2.745   2.195  13.317
21019SOL    HW264955   2.868   2.250  13.250
21020SOL     OW64956   5.690  11.439  10.532
21020SOL    HW164957   5.666  11.512  10.590
21020SOL    HW264958   5.694  11.363  10.590
21021SOL     OW64959  10.711   1.709   2.804
21021SOL    HW164960  10.731   1.801   2.783
21021SOL    HW264961  10.768   1.689   2.878
21022SOL     OW64962   6.142  14.481   2.556
21022SOL    HW164963   6.097  14.420   2.616
21022SOL    HW264964   6.162  14.557   2.610
21023SOL     OW64965   8.905  10.618   0.983
21023SOL    HW164966   8.998  10.628   1.003
21023SOL    HW264967   8.892  10.666   0.902
21024SOL     OW64968   9.989   3.300  13.559
21024SOL    HW164969  10.053   3.251  13.610
21024SOL    HW264970   9.991   3.388  13.597
21025SOL     OW64971  11.671  11.977  14.011
21025SOL    HW164972  11.636  11.890  14.029
21025SOL    HW264973  11.602  12.021  13.961
21026SOL     OW64974   3.123   2.745   7.350
21026SOL    HW164975   3.118   2.669   7.408
21026SOL    HW264976   3.071   2.812   7.394
21027SOL     OW64977   9.819   0.930  12.388
21027SOL    HW164978   9.760   0.946  12.314
21027SOL    HW264979   9.863   1.014  12.403
21028SOL     OW64980   6.558  10.632   8.045
21028SOL    HW164981   6.510  10.666   8.120
21028SOL    HW264982   6.551  10.701   7.979
21029SOL     OW64983  11.403  10.296  11.457
21029SOL    HW164984  11.497  10.312  11.455
21029SOL    HW264985  11.389  10.221  11.399
21030SOL     OW64986   2.873  13.439  14.355
21030SOL    HW164987   2.799  13.458  14.297
21030SOL    HW264988   2.839  13.375  14.418
21031SOL     OW64989  13.901   2.351   1.363
21031SOL    HW164990  13.987   2.361   1.403
21031SOL    HW264991  13.892   2.258   1.346
21032SOL     OW64992  14.430  13.496   7.978
21032SOL    HW164993  14.504  13.526   8.031
21032SOL    HW264994  14.376  13.574   7.965
21033SOL     OW64995   5.070   1.202   5.967
21033SOL    HW164996   5.142   1.226   6.026
21033SOL    HW264997   5.025   1.130   6.012
21034SOL     OW64998   2.515   9.648   1.992
21034SOL    HW164999   2.424   9.670   2.010
21034SOL    HW265000   2.515   9.614   1.903
21035SOL     OW65001  14.394   4.170   4.962
21035SOL    HW165002  14.338   4.227   4.909
21035SOL    HW265003  14.414   4.222   5.040
21036SOL     OW65004   8.556  11.009   9.385
21036SOL    HW165005   8.613  10.998   9.309
21036SOL    HW265006   8.613  11.046   9.453
21037SOL     OW65007  13.130   9.982  11.484
21037SOL    HW165008  13.136   9.888  11.499
21037SOL    HW265009  13.195  10.000  11.416
21038SOL     OW65010  10.049   7.321   5.074
21038SOL    HW165011   9.972   7.342   5.022
21038SOL    HW265012  10.083   7.406   5.102
21039SOL     OW65013   4.894   1.188  10.853
21039SOL    HW165014   4.982   1.169  10.822
21039SOL    HW265015   4.848   1.223  10.777
21040SOL     OW65016   0.517  12.821   7.598
21040SOL    HW165017   0.431  12.833   7.558
21040SOL    HW265018   0.498  12.792   7.687
21041SOL     OW65019   4.536   0.152  13.765
21041SOL    HW165020   4.592   0.117  13.834
21041SOL    HW265021   4.472   0.206  13.810
21042SOL     OW65022   5.058  13.244   2.741
21042SOL    HW165023   5.109  13.165   2.718
21042SOL    HW265024   5.101  13.314   2.692
21043SOL     OW65025   6.484  12.402   0.787
21043SOL    HW165026   6.557  12.398   0.848
21043SOL    HW265027   6.443  12.487   0.803
21044SOL     OW65028  12.574   5.625   9.013
21044SOL    HW165029  12.620   5.556   8.965
21044SOL    HW265030  12.482   5.611   8.993
21045SOL     OW65031   6.391  11.719   6.226
21045SOL    HW165032   6.317  11.715   6.287
21045SOL    HW265033   6.457  11.772   6.271
21046SOL     OW65034  11.084  13.803   2.523
21046SOL    HW165035  11.126  13.838   2.444
21046SOL    HW265036  11.115  13.859   2.594
21047SOL     OW65037   2.024   3.111   2.377
21047SOL    HW165038   2.046   3.132   2.286
21047SOL    HW265039   1.995   3.194   2.415
21048SOL     OW65040   7.955   3.270  12.578
21048SOL    HW165041   7.971   3.354  12.533
21048SOL    HW265042   7.860   3.261  12.577
21049SOL     OW65043  13.289   0.446   9.598
21049SOL    HW165044  13.364   0.404   9.639
21049SOL    HW265045  13.216   0.429   9.658
21050SOL     OW65046  14.068   5.183   4.626
21050SOL    HW165047  13.990   5.190   4.572
21050SOL    HW265048  14.069   5.265   4.677
21051SOL     OW65049   4.811   0.074   2.220
21051SOL    HW165050   4.856   0.044   2.141
21051SOL    HW265051   4.727   0.029   2.219
21052SOL     OW65052   4.504   3.584  10.377
21052SOL    HW165053   4.553   3.599  10.296
21052SOL    HW265054   4.463   3.498  10.364
21053SOL     OW65055   1.112   1.649  12.627
21053SOL    HW165056   1.198   1.638  12.587
21053SOL    HW265057   1.094   1.566  12.671
21054SOL     OW65058   8.047   0.539  13.740
21054SOL    HW165059   8.119   0.587  13.700
21054SOL    HW265060   8.013   0.484  13.670
21055SOL     OW65061  10.572  14.020   2.704
21055SOL    HW165062  10.597  13.985   2.789
21055SOL    HW265063  10.632  13.977   2.642
21056SOL     OW65064   3.574   3.674  10.335
21056SOL    HW165065   3.479   3.660  10.338
21056SOL    HW265066   3.593   3.726  10.412
21057SOL     OW65067  14.411  14.321   6.191
21057SOL    HW165068  14.329  14.283   6.225
21057SOL    HW265069  14.399  14.322   6.096
21058SOL     OW65070   8.360  10.440   9.543
21058SOL    HW165071   8.319  10.454   9.458
21058SOL    HW265072   8.314  10.501   9.602
21059SOL     OW65073   8.260   2.217   6.091
21059SOL    HW165074   8.276   2.132   6.050
21059SOL    HW265075   8.330   2.227   6.155
21060SOL     OW65076   3.418   2.317  12.101
21060SOL    HW165077   3.455   2.405  12.097
21060SOL    HW265078   3.435   2.287  12.190
21061SOL     OW65079   4.843   5.966   2.877
21061SOL    HW165080   4.932   5.943   2.849
21061SOL    HW265081   4.786   5.920   2.816
21062SOL     OW65082   6.821  10.339  12.228
21062SOL    HW165083   6.793  10.346  12.319
21062SOL    HW265084   6.797  10.249  12.203
21063SOL     OW65085   7.661   9.818  11.472
21063SOL    HW165086   7.727   9.753  11.450
21063SOL    HW265087   7.671   9.886  11.405
21064SOL     OW65088   5.762   5.622   2.327
21064SOL    HW165089   5.685   5.626   2.271
21064SOL    HW265090   5.727   5.602   2.414
21065SOL     OW65091   6.679  14.707   4.598
21065SOL    HW165092   6.704  14.649   4.670
21065SOL    HW265093   6.755  14.708   4.540
21066SOL     OW65094  11.244   6.188   4.441
21066SOL    HW165095  11.323   6.166   4.392
21066SOL    HW265096  11.276   6.231   4.520
21067SOL     OW65097   5.556   6.371   0.540
21067SOL    HW165098   5.602   6.383   0.457
21067SOL    HW265099   5.493   6.442   0.544
21068SOL     OW65100   4.192   8.862   6.977
21068SOL    HW165101   4.174   8.911   7.057
21068SOL    HW265102   4.254   8.794   7.003
21069SOL     OW65103   3.748   0.788   5.393
21069SOL    HW165104   3.672   0.831   5.433
21069SOL    HW265105   3.747   0.817   5.302
21070SOL     OW65106   8.677   4.001  10.145
21070SOL    HW165107   8.702   3.923  10.193
21070SOL    HW265108   8.661   3.970  10.056
21071SOL     OW65109   2.679  10.401  12.680
21071SOL    HW165110   2.702  10.311  12.702
21071SOL    HW265111   2.753  10.453  12.713
21072SOL     OW65112  13.882   8.076   2.800
21072SOL    HW165113  13.883   8.134   2.723
21072SOL    HW265114  13.869   8.135   2.874
21073SOL     OW65115   6.724   4.820   6.239
21073SOL    HW165116   6.664   4.778   6.178
21073SOL    HW265117   6.746   4.752   6.303
21074SOL     OW65118   1.647   1.528   9.398
21074SOL    HW165119   1.680   1.618   9.393
21074SOL    HW265120   1.568   1.534   9.452
21075SOL     OW65121   7.500   6.569  11.238
21075SOL    HW165122   7.523   6.481  11.267
21075SOL    HW265123   7.418   6.558  11.190
21076SOL     OW65124   5.033   1.816   9.708
21076SOL    HW165125   4.998   1.900   9.738
21076SOL    HW265126   5.015   1.814   9.614
21077SOL     OW65127  12.333  13.853   3.374
21077SOL    HW165128  12.329  13.936   3.328
21077SOL    HW265129  12.385  13.796   3.318
21078SOL     OW65130  11.771   3.154   9.984
21078SOL    HW165131  11.706   3.205   9.936
21078SOL    HW265132  11.753   3.063   9.961
21079SOL     OW65133   5.708   2.409  11.941
21079SOL    HW165134   5.778   2.404  12.006
21079SOL    HW265135   5.627   2.414  11.991
21080SOL     OW65136   5.990  11.061   6.225
21080SOL    HW165137   5.928  10.988   6.229
21080SOL    HW265138   6.073  11.020   6.201
21081SOL     OW65139   7.572   2.445   6.169
21081SOL    HW165140   7.493   2.390   6.160
21081SOL    HW265141   7.634   2.408   6.107
21082SOL     OW65142  13.939   6.069  12.375
21082SOL    HW165143  13.873   6.011  12.336
21082SOL    HW265144  14.018   6.016  12.381
21083SOL     OW65145  14.674   3.656   6.942
21083SOL    HW165146  14.595   3.709   6.954
21083SOL    HW265147  14.746   3.717   6.959
21084SOL     OW65148   5.822   6.966   7.973
21084SOL    HW165149   5.731   6.940   7.964
21084SOL    HW265150   5.828   7.048   7.924
21085SOL     OW65151  12.662  12.312  13.770
21085SOL    HW165152  12.664  12.277  13.859
21085SOL    HW265153  12.748  12.292  13.734
21086SOL     OW65154   3.307   4.407  10.493
21086SOL    HW165155   3.312   4.349  10.417
21086SOL    HW265156   3.219   4.394  10.528
21087SOL     OW65157   3.595  12.628   6.222
21087SOL    HW165158   3.515  12.584   6.191
21087SOL    HW265159   3.620  12.579   6.300
21088SOL     OW65160  13.920   1.982   9.106
21088SOL    HW165161  13.933   1.993   9.012
21088SOL    HW265162  13.832   1.947   9.115
21089SOL     OW65163   4.138   1.447  10.298
21089SOL    HW165164   4.226   1.469  10.326
21089SOL    HW265165   4.126   1.495  10.216
21090SOL     OW65166   6.955   9.879   1.198
21090SOL    HW165167   7.009   9.801   1.184
21090SOL    HW265168   6.918   9.868   1.286
21091SOL     OW65169  12.534  11.338   6.237
21091SOL    HW165170  12.587  11.259   6.251
21091SOL    HW265171  12.595  11.410   6.248
21092SOL     OW65172  14.531  13.592  11.960
21092SOL    HW165173  14.530  13.687  11.952
21092SOL    HW265174  14.493  13.574  12.046
21093SOL     OW65175  13.943   3.693  12.915
21093SOL    HW165176  13.927   3.606  12.877
21093SOL    HW265177  13.919   3.683  13.007
21094SOL     OW65178  10.933  13.218   7.464
21094SOL    HW165179  10.981  13.251   7.541
21094SOL    HW265180  10.857  13.275   7.457
21095SOL     OW65181  11.639  13.343  12.723
21095SOL    HW165182  11.564  13.399  12.741
21095SOL    HW265183  11.692  13.393  12.661
21096SOL     OW65184   9.039   3.152   0.712
21096SOL    HW165185   8.966   3.135   0.654
21096SOL    HW265186   9.113   3.169   0.653
21097SOL     OW65187  14.194   5.177   3.498
21097SOL    HW165188  14.204   5.179   3.402
21097SOL    HW265189  14.104   5.206   3.513
21098SOL     OW65190   0.869   6.626  13.664
21098SOL    HW165191   0.913   6.613  13.748
21098SOL    HW265192   0.783   6.587  13.676
21099SOL     OW65193   9.158  12.951   9.894
21099SOL    HW165194   9.228  13.004   9.856
21099SOL    HW265195   9.201  12.867   9.915
21100SOL     OW65196   2.248   0.819  10.653
21100SOL    HW165197   2.282   0.783  10.571
21100SOL    HW265198   2.321   0.870  10.688
21101SOL     OW65199  14.034   4.536   6.509
21101SOL    HW165200  14.000   4.558   6.596
21101SOL    HW265201  14.080   4.453   6.522
21102SOL     OW65202  10.017  11.803   4.851
21102SOL    HW165203  10.070  11.872   4.811
21102SOL    HW265204  10.052  11.721   4.816
21103SOL     OW65205  14.656   3.797  14.103
21103SOL    HW165206  14.688   3.887  14.116
21103SOL    HW265207  14.643   3.790  14.008
21104SOL     OW65208   5.663   7.149  10.741
21104SOL    HW165209   5.657   7.232  10.694
21104SOL    HW265210   5.646   7.083  10.674
21105SOL     OW65211   0.448   1.164   7.456
21105SOL    HW165212   0.529   1.203   7.424
21105SOL    HW265213   0.468   1.138   7.546
21106SOL     OW65214   9.242   4.231   6.611
21106SOL    HW165215   9.183   4.270   6.546
21106SOL    HW265216   9.272   4.149   6.570
21107SOL     OW65217   0.472   3.946   3.855
21107SOL    HW165218   0.426   3.902   3.784
21107SOL    HW265219   0.559   3.905   3.856
21108SOL     OW65220   5.637  12.363   7.336
21108SOL    HW165221   5.725  12.349   7.370
21108SOL    HW265222   5.581  12.367   7.413
21109SOL     OW65223   5.352   8.531   6.840
21109SOL    HW165224   5.371   8.568   6.754
21109SOL    HW265225   5.293   8.594   6.881
21110SOL     OW65226   9.251   1.926  14.231
21110SOL    HW165227   9.257   1.878  14.314
21110SOL    HW265228   9.231   2.016  14.256
21111SOL     OW65229   5.506  13.046   0.147
21111SOL    HW165230   5.461  12.985   0.088
21111SOL    HW265231   5.593  13.008   0.158
21112SOL     OW65232   0.840  12.483   1.864
21112SOL    HW165233   0.926  12.449   1.890
21112SOL    HW265234   0.777  12.422   1.902
21113SOL     OW65235   9.592   2.240   4.622
21113SOL    HW165236   9.683   2.250   4.651
21113SOL    HW265237   9.573   2.323   4.577
21114SOL     OW65238   8.265   2.598   5.413
21114SOL    HW165239   8.233   2.606   5.323
21114SOL    HW265240   8.334   2.532   5.408
21115SOL     OW65241   1.158   4.687  10.465
21115SOL    HW165242   1.249   4.697  10.437
21115SOL    HW265243   1.136   4.771  10.503
21116SOL     OW65244  12.126   1.467  13.927
21116SOL    HW165245  12.170   1.390  13.963
21116SOL    HW265246  12.197   1.531  13.915
21117SOL     OW65247   8.880   5.025   3.722
21117SOL    HW165248   8.873   4.959   3.653
21117SOL    HW265249   8.838   5.103   3.685
21118SOL     OW65250   6.097   5.603   2.556
21118SOL    HW165251   6.056   5.678   2.512
21118SOL    HW265252   6.182   5.594   2.513
21119SOL     OW65253  10.402   1.028   9.357
21119SOL    HW165254  10.347   1.045   9.434
21119SOL    HW265255  10.469   1.097   9.360
21120SOL     OW65256   3.980   4.414   2.803
21120SOL    HW165257   3.890   4.381   2.800
21120SOL    HW265258   4.028   4.348   2.853
21121SOL     OW65259   7.144   6.219   7.249
21121SOL    HW165260   7.198   6.181   7.180
21121SOL    HW265261   7.170   6.311   7.253
21122SOL     OW65262   5.821   2.800   3.880
21122SOL    HW165263   5.788   2.736   3.943
21122SOL    HW265264   5.816   2.755   3.796
21123SOL     OW65265  14.595   1.475   7.418
21123SOL    HW165266  14.659   1.507   7.483
21123SOL    HW265267  14.638   1.489   7.334
21124SOL     OW65268   5.092  13.552  10.688
21124SOL    HW165269   5.140  13.613  10.632
21124SOL    HW265270   5.005  13.591  10.697
21125SOL     OW65271   4.646   4.078  13.009
21125SOL    HW165272   4.737   4.093  12.984
21125SOL    HW265273   4.596   4.095  12.929
21126SOL     OW65274   7.746   2.711   7.580
21126SOL    HW165275   7.785   2.798   7.578
21126SOL    HW265276   7.661   2.721   7.537
21127SOL     OW65277   3.309  14.017   1.096
21127SOL    HW165278   3.226  13.974   1.116
21127SOL    HW265279   3.342  13.970   1.020
21128SOL     OW65280   6.319   4.903  10.794
21128SOL    HW165281   6.377   4.854  10.736
21128SOL    HW265282   6.338   4.995  10.774
21129SOL     OW65283   1.872  14.491  11.856
21129SOL    HW165284   1.901  14.565  11.802
21129SOL    HW265285   1.940  14.425  11.844
21130SOL     OW65286   5.236   6.945   2.875
21130SOL    HW165287   5.291   6.987   2.942
21130SOL    HW265288   5.147   6.965   2.902
21131SOL     OW65289   9.886  11.286  14.119
21131SOL    HW165290   9.849  11.354  14.062
21131SOL    HW265291   9.953  11.244  14.065
21132SOL     OW65292  14.458   5.999   8.838
21132SOL    HW165293  14.548   5.967   8.845
21132SOL    HW265294  14.404   5.920   8.845
21133SOL     OW65295  12.376  14.462   6.255
21133SOL    HW165296  12.419  14.398   6.199
21133SOL    HW265297  12.447  14.499   6.308
21134SOL     OW65298  12.935   8.635   9.738
21134SOL    HW165299  12.889   8.568   9.687
21134SOL    HW265300  13.012   8.658   9.685
21135SOL     OW65301  12.828   3.619   4.758
21135SOL    HW165302  12.827   3.713   4.736
21135SOL    HW265303  12.920   3.594   4.751
21136SOL     OW65304   5.334  11.085  12.147
21136SOL    HW165305   5.393  11.148  12.189
21136SOL    HW265306   5.286  11.045  12.219
21137SOL     OW65307   2.503   9.149   1.952
21137SOL    HW165308   2.491   9.169   2.045
21137SOL    HW265309   2.524   9.234   1.912
21138SOL     OW65310   4.185   8.882   1.452
21138SOL    HW165311   4.147   8.832   1.524
21138SOL    HW265312   4.162   8.833   1.374
21139SOL     OW65313  11.164  14.040  13.624
21139SOL    HW165314  11.115  14.117  13.652
21139SOL    HW265315  11.117  14.007  13.547
21140SOL     OW65316   8.947   6.173   8.774
21140SOL    HW165317   8.900   6.112   8.831
21140SOL    HW265318   8.941   6.134   8.687
21141SOL     OW65319  13.079   5.687   5.226
21141SOL    HW165320  12.989   5.676   5.258
21141SOL    HW265321  13.097   5.780   5.235
21142SOL     OW65322   6.213   4.175   5.600
21142SOL    HW165323   6.167   4.157   5.682
21142SOL    HW265324   6.144   4.185   5.535
21143SOL     OW65325  11.463   4.791   2.113
21143SOL    HW165326  11.434   4.882   2.111
21143SOL    HW265327  11.396   4.745   2.164
21144SOL     OW65328   1.828   4.510   7.226
21144SOL    HW165329   1.827   4.417   7.250
21144SOL    HW265330   1.900   4.546   7.278
21145SOL     OW65331  10.821   1.429   7.392
21145SOL    HW165332  10.744   1.393   7.347
21145SOL    HW265333  10.802   1.522   7.399
21146SOL     OW65334  12.435  11.923  10.560
21146SOL    HW165335  12.428  12.004  10.511
21146SOL    HW265336  12.437  11.854  10.493
21147SOL     OW65337  14.523   7.534   8.529
21147SOL    HW165338  14.539   7.439   8.534
21147SOL    HW265339  14.513   7.561   8.620
21148SOL     OW65340  11.292   4.955   4.487
21148SOL    HW165341  11.271   4.913   4.571
21148SOL    HW265342  11.259   4.894   4.421
21149SOL     OW65343   3.705   4.969  10.750
21149SOL    HW165344   3.748   4.923  10.678
21149SOL    HW265345   3.753   5.052  10.757
21150SOL     OW65346  11.393  13.977   6.941
21150SOL    HW165347  11.431  14.014   7.021
21150SOL    HW265348  11.335  13.908   6.972
21151SOL     OW65349  10.287   2.162  11.794
21151SOL    HW165350  10.350   2.223  11.756
21151SOL    HW265351  10.234   2.132  11.719
21152SOL     OW65352   5.841   9.425   6.654
21152SOL    HW165353   5.849   9.443   6.560
21152SOL    HW265354   5.777   9.355   6.660
21153SOL     OW65355   6.420   1.880   8.473
21153SOL    HW165356   6.329   1.864   8.498
21153SOL    HW265357   6.471   1.843   8.545
21154SOL     OW65358   2.172   6.740  14.590
21154SOL    HW165359   2.197   6.797  14.662
21154SOL    HW265360   2.082   6.714  14.610
21155SOL     OW65361   5.376   8.885  13.428
21155SOL    HW165362   5.459   8.927  13.451
21155SOL    HW265363   5.319   8.901  13.503
21156SOL     OW65364  14.464   6.445   0.263
21156SOL    HW165365  14.420   6.364   0.237
21156SOL    HW265366  14.416   6.514   0.217
21157SOL     OW65367   5.839   3.912  10.915
21157SOL    HW165368   5.897   3.968  10.967
21157SOL    HW265369   5.849   3.825  10.953
21158SOL     OW65370   1.288   1.939   1.810
21158SOL    HW165371   1.200   1.966   1.785
21158SOL    HW265372   1.328   2.018   1.846
21159SOL     OW65373  10.357  11.488   9.416
21159SOL    HW165374  10.414  11.511   9.342
21159SOL    HW265375  10.269  11.486   9.378
21160SOL     OW65376  14.798   5.311   2.544
21160SOL    HW165377  14.759   5.294   2.630
21160SOL    HW265378   0.010   5.311   2.561
21161SOL     OW65379   8.466   5.917   0.920
21161SOL    HW165380   8.389   5.919   0.863
21161SOL    HW265381   8.470   6.006   0.957
21162SOL     OW65382   1.739  13.707   7.322
21162SOL    HW165383   1.717  13.655   7.400
21162SOL    HW265384   1.676  13.677   7.256
21163SOL     OW65385   1.509   8.908  11.092
21163SOL    HW165386   1.461   8.867  11.019
21163SOL    HW265387   1.444   8.913  11.163
21164SOL     OW65388  13.504  12.105   3.514
21164SOL    HW165389  13.441  12.168   3.549
21164SOL    HW265390  13.580  12.158   3.491
21165SOL     OW65391   2.765   7.237   7.578
21165SOL    HW165392   2.859   7.221   7.567
21165SOL    HW265393   2.725   7.194   7.503
21166SOL     OW65394  12.132   5.498   7.955
21166SOL    HW165395  12.225   5.515   7.968
21166SOL    HW265396  12.088   5.561   8.012
21167SOL     OW65397  11.127   9.876   7.154
21167SOL    HW165398  11.184   9.839   7.087
21167SOL    HW265399  11.039   9.861   7.121
21168SOL     OW65400   4.477   4.356  12.778
21168SOL    HW165401   4.532   4.295  12.728
21168SOL    HW265402   4.461   4.428  12.717
21169SOL     OW65403   3.021  14.615   2.101
21169SOL    HW165404   3.100  14.657   2.133
21169SOL    HW265405   3.036  14.603   2.007
21170SOL     OW65406   1.522  12.807   3.959
21170SOL    HW165407   1.589  12.746   3.988
21170SOL    HW265408   1.567  12.864   3.896
21171SOL     OW65409   4.346   6.027  11.762
21171SOL    HW165410   4.264   6.063  11.727
21171SOL    HW265411   4.405   6.102  11.767
21172SOL     OW65412   3.676   3.282  13.879
21172SOL    HW165413   3.588   3.269  13.843
21172SOL    HW265414   3.706   3.194  13.901
21173SOL     OW65415  11.661  14.623  12.388
21173SOL    HW165416  11.744  14.668  12.404
21173SOL    HW265417  11.620  14.675  12.318
21174SOL     OW65418   8.631   2.039   1.728
21174SOL    HW165419   8.536   2.053   1.724
21174SOL    HW265420   8.648   1.969   1.665
21175SOL     OW65421   9.073   5.863   0.494
21175SOL    HW165422   9.164   5.870   0.524
21175SOL    HW265423   9.077   5.884   0.401
21176SOL     OW65424   2.260   8.454   7.179
21176SOL    HW165425   2.251   8.439   7.273
21176SOL    HW265426   2.271   8.549   7.171
21177SOL     OW65427   7.318  12.221   0.303
21177SOL    HW165428   7.406  12.234   0.338
21177SOL    HW265429   7.287  12.141   0.345
21178SOL     OW65430  11.413   4.749   3.203
21178SOL    HW165431  11.377   4.663   3.223
21178SOL    HW265432  11.343   4.811   3.225
21179SOL     OW65433  11.376   7.246   3.242
21179SOL    HW165434  11.364   7.178   3.308
21179SOL    HW265435  11.416   7.319   3.290
21180SOL     OW65436   6.454   3.869   4.884
21180SOL    HW165437   6.361   3.865   4.907
21180SOL    HW265438   6.473   3.963   4.878
21181SOL     OW65439  13.929   5.502   7.817
21181SOL    HW165440  13.993   5.570   7.841
21181SOL    HW265441  13.944   5.486   7.724
21182SOL     OW65442  11.837  14.065   0.436
21182SOL    HW165443  11.840  14.013   0.516
21182SOL    HW265444  11.743  14.081   0.422
21183SOL     OW65445   5.715   5.639   3.973
21183SOL    HW165446   5.647   5.646   3.907
21183SOL    HW265447   5.678   5.679   4.051
21184SOL     OW65448   2.721  12.847   0.094
21184SOL    HW165449   2.775  12.769   0.079
21184SOL    HW265450   2.702  12.881   0.006
21185SOL     OW65451  12.426  14.354   4.887
21185SOL    HW165452  12.438  14.438   4.931
21185SOL    HW265453  12.476  14.362   4.806
21186SOL     OW65454   1.786   3.955   8.541
21186SOL    HW165455   1.872   3.993   8.560
21186SOL    HW265456   1.797   3.861   8.557
21187SOL     OW65457   8.924  11.754   6.181
21187SOL    HW165458   8.837  11.795   6.178
21187SOL    HW265459   8.947  11.742   6.089
21188SOL     OW65460   1.071   7.200   7.264
21188SOL    HW165461   1.022   7.273   7.227
21188SOL    HW265462   1.015   7.166   7.334
21189SOL     OW65463   7.753  13.684   6.668
21189SOL    HW165464   7.751  13.625   6.744
21189SOL    HW265465   7.760  13.625   6.592
21190SOL     OW65466   6.277   4.889  13.360
21190SOL    HW165467   6.274   4.982  13.337
21190SOL    HW265468   6.204   4.877  13.421
21191SOL     OW65469   3.259  13.655   8.156
21191SOL    HW165470   3.268  13.562   8.136
21191SOL    HW265471   3.199  13.658   8.231
21192SOL     OW65472   0.605  13.015   0.124
21192SOL    HW165473   0.580  12.952   0.192
21192SOL    HW265474   0.549  13.091   0.139
21193SOL     OW65475   4.562  14.542   0.867
21193SOL    HW165476   4.505  14.516   0.795
21193SOL    HW265477   4.538  14.483   0.939
21194SOL     OW65478  11.210   0.642   9.799
21194SOL    HW165479  11.165   0.633   9.715
21194SOL    HW265480  11.200   0.556   9.840
21195SOL     OW65481   6.540   8.713  14.851
21195SOL    HW165482   6.467   8.716  14.789
21195SOL    HW265483   6.594   8.789  14.830
21196SOL     OW65484   1.528   5.428  12.218
21196SOL    HW165485   1.436   5.434  12.244
21196SOL    HW265486   1.526   5.387  12.131
21197SOL     OW65487   3.516   5.125  10.582
21197SOL    HW165488   3.541   5.033  10.588
21197SOL    HW265489   3.420   5.124  10.583
21198SOL     OW65490  12.037   9.351  10.686
21198SOL    HW165491  11.988   9.346  10.768
21198SOL    HW265492  11.994   9.420  10.636
21199SOL     OW65493   4.487   5.326  14.846
21199SOL    HW165494   4.538   5.386  14.792
21199SOL    HW265495   4.463   5.255  14.787
21200SOL     OW65496   3.185  11.632   9.784
21200SOL    HW165497   3.264  11.650   9.734
21200SOL    HW265498   3.185  11.698   9.854
21201SOL     OW65499   3.778   6.886   9.368
21201SOL    HW165500   3.721   6.810   9.382
21201SOL    HW265501   3.780   6.931   9.452
21202SOL     OW65502   8.182   4.266   3.260
21202SOL    HW165503   8.260   4.232   3.305
21202SOL    HW265504   8.175   4.357   3.288
21203SOL     OW65505   0.471   3.270   6.484
21203SOL    HW165506   0.381   3.301   6.499
21203SOL    HW265507   0.510   3.337   6.428
21204SOL     OW65508   9.295  11.322   3.733
21204SOL    HW165509   9.292  11.227   3.717
21204SOL    HW265510   9.384  11.348   3.710
21205SOL     OW65511   0.368  11.441  13.735
21205SOL    HW165512   0.347  11.519  13.787
21205SOL    HW265513   0.284  11.405  13.709
21206SOL     OW65514   3.972   9.113  13.816
21206SOL    HW165515   3.966   9.042  13.751
21206SOL    HW265516   4.042   9.085  13.876
21207SOL     OW65517  10.947  10.776   4.047
21207SOL    HW165518  10.856  10.747   4.056
21207SOL    HW265519  10.956  10.848   4.109
21208SOL     OW65520   6.472  14.481  13.620
21208SOL    HW165521   6.410  14.408  13.627
21208SOL    HW265522   6.455  14.519  13.534
21209SOL     OW65523  12.087   9.918   2.914
21209SOL    HW165524  12.087   9.938   3.007
21209SOL    HW265525  12.135   9.990   2.873
21210SOL     OW65526  11.023   8.406   4.326
21210SOL    HW165527  10.966   8.409   4.249
21210SOL    HW265528  11.111   8.417   4.291
21211SOL     OW65529  12.206  13.393  14.477
21211SOL    HW165530  12.279  13.336  14.500
21211SOL    HW265531  12.246  13.478  14.461
21212SOL     OW65532   8.843   6.640   6.276
21212SOL    HW165533   8.831   6.735   6.282
21212SOL    HW265534   8.816   6.607   6.361
21213SOL     OW65535  11.314  11.790  11.081
21213SOL    HW165536  11.328  11.697  11.065
21213SOL    HW265537  11.378  11.813  11.148
21214SOL     OW65538  13.145  12.968   4.166
21214SOL    HW165539  13.111  13.057   4.168
21214SOL    HW265540  13.222  12.970   4.223
21215SOL     OW65541   6.987   1.485  12.702
21215SOL    HW165542   7.061   1.438  12.739
21215SOL    HW265543   7.018   1.575  12.692
21216SOL     OW65544   2.621  11.664  11.683
21216SOL    HW165545   2.652  11.584  11.640
21216SOL    HW265546   2.693  11.689  11.741
21217SOL     OW65547  12.372  11.695  14.445
21217SOL    HW165548  12.365  11.640  14.366
21217SOL    HW265549  12.386  11.783  14.411
21218SOL     OW65550   3.308   0.596   4.915
21218SOL    HW165551   3.243   0.665   4.907
21218SOL    HW265552   3.265   0.528   4.966
21219SOL     OW65553   4.876   7.690   9.299
21219SOL    HW165554   4.922   7.770   9.326
21219SOL    HW265555   4.849   7.708   9.209
21220SOL     OW65556  10.509   3.167   6.642
21220SOL    HW165557  10.558   3.228   6.586
21220SOL    HW265558  10.424   3.159   6.600
21221SOL     OW65559   6.932   3.066   3.209
21221SOL    HW165560   6.905   3.014   3.285
21221SOL    HW265561   6.861   3.129   3.196
21222SOL     OW65562   1.536   6.915   2.706
21222SOL    HW165563   1.626   6.947   2.702
21222SOL    HW265564   1.532   6.863   2.787
21223SOL     OW65565   0.482  14.193   3.316
21223SOL    HW165566   0.576  14.176   3.318
21223SOL    HW265567   0.475  14.287   3.299
21224SOL     OW65568   2.777   5.277   3.824
21224SOL    HW165569   2.814   5.203   3.872
21224SOL    HW265570   2.682   5.262   3.826
21225SOL     OW65571   5.859  11.870   6.130
21225SOL    HW165572   5.857  11.833   6.218
21225SOL    HW265573   5.946  11.847   6.097
21226SOL     OW65574   4.912   6.102  14.682
21226SOL    HW165575   4.899   6.157  14.759
21226SOL    HW265576   4.836   6.044  14.681
21227SOL     OW65577  11.173  11.727   7.930
21227SOL    HW165578  11.155  11.714   8.023
21227SOL    HW265579  11.268  11.715   7.922
21228SOL     OW65580   8.488  14.176  14.409
21228SOL    HW165581   8.509  14.251  14.354
21228SOL    HW265582   8.514  14.100  14.357
21229SOL     OW65583   8.506  12.033   2.133
21229SOL    HW165584   8.545  11.980   2.064
21229SOL    HW265585   8.575  12.043   2.198
21230SOL     OW65586  10.319   9.120   1.175
21230SOL    HW165587  10.413   9.139   1.176
21230SOL    HW265588  10.279   9.200   1.210
21231SOL     OW65589   9.930  11.872   7.499
21231SOL    HW165590  10.023  11.862   7.519
21231SOL    HW265591   9.886  11.859   7.583
21232SOL     OW65592   2.556   8.176  13.963
21232SOL    HW165593   2.582   8.119  14.036
21232SOL    HW265594   2.633   8.232  13.949
21233SOL     OW65595  11.208   2.396   1.147
21233SOL    HW165596  11.178   2.424   1.060
21233SOL    HW265597  11.299   2.372   1.135
21234SOL     OW65598   4.629   2.460  14.434
21234SOL    HW165599   4.537   2.446  14.411
21234SOL    HW265600   4.633   2.551  14.462
21235SOL     OW65601  11.667  10.286   9.186
21235SOL    HW165602  11.603  10.216   9.200
21235SOL    HW265603  11.744  10.258   9.236
21236SOL     OW65604   7.971   3.979   6.543
21236SOL    HW165605   8.027   4.047   6.505
21236SOL    HW265606   7.897   3.972   6.482
21237SOL     OW65607   9.844   6.739   5.457
21237SOL    HW165608   9.833   6.653   5.499
21237SOL    HW265609   9.887   6.720   5.374
21238SOL     OW65610  13.272   6.517  13.719
21238SOL    HW165611  13.317   6.485  13.640
21238SOL    HW265612  13.309   6.605  13.733
21239SOL     OW65613   1.691   6.713   7.088
21239SOL    HW165614   1.773   6.669   7.110
21239SOL    HW265615   1.645   6.651   7.032
21240SOL     OW65616  11.542   6.859   3.072
21240SOL    HW165617  11.633   6.884   3.088
21240SOL    HW265618  11.535   6.851   2.977
21241SOL     OW65619  14.516   6.003   2.615
21241SOL    HW165620  14.447   6.067   2.630
21241SOL    HW265621  14.530   5.963   2.701
21242SOL     OW65622   6.469  11.425   4.337
21242SOL    HW165623   6.436  11.355   4.393
21242SOL    HW265624   6.534  11.383   4.281
21243SOL     OW65625  11.607   7.771  10.867
21243SOL    HW165626  11.591   7.691  10.817
21243SOL    HW265627  11.690   7.754  10.913
21244SOL     OW65628  14.727   1.326   3.535
21244SOL    HW165629  14.714   1.324   3.630
21244SOL    HW265630  14.822   1.331   3.524
21245SOL     OW65631   4.617   5.140   0.317
21245SOL    HW165632   4.691   5.200   0.325
21245SOL    HW265633   4.540   5.196   0.321
21246SOL     OW65634   2.813  14.358   6.191
21246SOL    HW165635   2.816  14.331   6.099
21246SOL    HW265636   2.772  14.445   6.189
21247SOL     OW65637   5.307   1.927  14.296
21247SOL    HW165638   5.386   1.975  14.319
21247SOL    HW265639   5.311   1.847  14.348
21248SOL     OW65640  12.109   8.008   0.061
21248SOL    HW165641  12.123   7.923   0.020
21248SOL    HW265642  12.023   8.036   0.030
21249SOL     OW65643   8.974  12.900   5.464
21249SOL    HW165644   9.011  12.820   5.426
21249SOL    HW265645   8.936  12.946   5.389
21250SOL     OW65646   3.670   0.012  12.698
21250SOL    HW165647   3.659  14.800  12.707
21250SOL    HW265648   3.691   0.025  12.605
21251SOL     OW65649   7.302   1.481   4.642
21251SOL    HW165650   7.392   1.479   4.608
21251SOL    HW265651   7.282   1.389   4.663
21252SOL     OW65652  13.242  14.201  14.088
21252SOL    HW165653  13.191  14.280  14.104
21252SOL    HW265654  13.203  14.163  14.009
21253SOL     OW65655  11.646   7.368   6.232
21253SOL    HW165656  11.614   7.325   6.312
21253SOL    HW265657  11.573   7.422   6.203
21254SOL     OW65658   5.224   2.395   0.795
21254SOL    HW165659   5.284   2.338   0.747
21254SOL    HW265660   5.253   2.389   0.886
21255SOL     OW65661   1.688  11.191   2.666
21255SOL    HW165662   1.712  11.103   2.695
21255SOL    HW265663   1.762  11.218   2.611
21256SOL     OW65664   0.639  10.713   0.835
21256SOL    HW165665   0.589  10.791   0.808
21256SOL    HW265666   0.702  10.746   0.899
21257SOL     OW65667   4.669   4.053   4.851
21257SOL    HW165668   4.602   4.118   4.829
21257SOL    HW265669   4.743   4.104   4.881
21258SOL     OW65670   2.872   0.470   4.736
21258SOL    HW165671   2.884   0.517   4.818
21258SOL    HW265672   2.796   0.414   4.752
21259SOL     OW65673   5.175   5.817  11.502
21259SOL    HW165674   5.249   5.833  11.445
21259SOL    HW265675   5.148   5.903  11.533
21260SOL     OW65676   4.314   3.313   9.342
21260SOL    HW165677   4.229   3.271   9.349
21260SOL    HW265678   4.296   3.399   9.304
21261SOL     OW65679   6.536  10.880   7.491
21261SOL    HW165680   6.530  10.970   7.460
21261SOL    HW265681   6.492  10.828   7.424
21262SOL     OW65682   2.997  12.045   5.283
21262SOL    HW165683   2.912  12.045   5.328
21262SOL    HW265684   3.055  11.998   5.342
21263SOL     OW65685  13.228   3.546   1.333
21263SOL    HW165686  13.165   3.603   1.290
21263SOL    HW265687  13.293   3.606   1.371
21264SOL     OW65688  14.674   2.983   9.231
21264SOL    HW165689  14.643   3.067   9.264
21264SOL    HW265690  14.769   2.986   9.242
21265SOL     OW65691   6.413   9.161   3.973
21265SOL    HW165692   6.462   9.237   4.003
21265SOL    HW265693   6.479   9.103   3.935
21266SOL     OW65694   2.113  10.776   5.518
21266SOL    HW165695   2.035  10.742   5.562
21266SOL    HW265696   2.186  10.738   5.567
21267SOL     OW65697   0.731  11.194   0.888
21267SOL    HW165698   0.741  11.103   0.862
21267SOL    HW265699   0.731  11.243   0.805
21268SOL     OW65700   3.378  10.579   8.647
21268SOL    HW165701   3.431  10.654   8.619
21268SOL    HW265702   3.378  10.584   8.742
21269SOL     OW65703   2.419   9.672   4.164
21269SOL    HW165704   2.378   9.657   4.250
21269SOL    HW265705   2.464   9.756   4.174
21270SOL     OW65706   9.590   1.910  14.350
21270SOL    HW165707   9.605   1.825  14.308
21270SOL    HW265708   9.523   1.952  14.295
21271SOL     OW65709   5.430   5.668   1.966
21271SOL    HW165710   5.379   5.626   1.897
21271SOL    HW265711   5.477   5.739   1.922
21272SOL     OW65712   4.262  11.897   8.867
21272SOL    HW165713   4.256  11.803   8.848
21272SOL    HW265714   4.340  11.926   8.819
21273SOL     OW65715   3.578   8.282   7.043
21273SOL    HW165716   3.613   8.220   6.979
21273SOL    HW265717   3.555   8.359   6.992
21274SOL     OW65718   2.484   0.474   0.797
21274SOL    HW165719   2.536   0.400   0.765
21274SOL    HW265720   2.402   0.467   0.748
21275SOL     OW65721   9.461   9.386   6.574
21275SOL    HW165722   9.475   9.439   6.495
21275SOL    HW265723   9.416   9.308   6.543
21276SOL     OW65724   5.976   6.527   9.810
21276SOL    HW165725   6.070   6.510   9.809
21276SOL    HW265726   5.937   6.440   9.806
21277SOL     OW65727  12.566   3.140   0.310
21277SOL    HW165728  12.572   3.081   0.385
21277SOL    HW265729  12.557   3.082   0.235
21278SOL     OW65730   8.915   5.199   5.755
21278SOL    HW165731   8.981   5.267   5.743
21278SOL    HW265732   8.915   5.150   5.672
21279SOL     OW65733   8.068   7.142   9.029
21279SOL    HW165734   8.062   7.123   9.123
21279SOL    HW265735   8.124   7.072   8.994
21280SOL     OW65736   5.493   1.374   4.573
21280SOL    HW165737   5.575   1.417   4.549
21280SOL    HW265738   5.478   1.311   4.503
21281SOL     OW65739   9.597  11.208   4.055
21281SOL    HW165740   9.510  11.170   4.044
21281SOL    HW265741   9.583  11.302   4.053
21282SOL     OW65742   1.393   6.097   3.092
21282SOL    HW165743   1.417   6.189   3.091
21282SOL    HW265744   1.476   6.050   3.084
21283SOL     OW65745   4.152   6.545   9.215
21283SOL    HW165746   4.081   6.481   9.224
21283SOL    HW265747   4.124   6.619   9.268
21284SOL     OW65748   2.108  12.971   0.340
21284SOL    HW165749   2.107  13.066   0.353
21284SOL    HW265750   2.129  12.935   0.426
21285SOL     OW65751  12.556   0.418   3.049
21285SOL    HW165752  12.649   0.427   3.028
21285SOL    HW265753  12.537   0.325   3.035
21286SOL     OW65754   8.594   0.572   0.719
21286SOL    HW165755   8.563   0.541   0.804
21286SOL    HW265756   8.683   0.537   0.712
21287SOL     OW65757   6.894   1.339   8.970
21287SOL    HW165758   6.867   1.318   9.060
21287SOL    HW265759   6.983   1.371   8.979
21288SOL     OW65760   9.533  13.490  13.486
21288SOL    HW165761   9.474  13.497  13.410
21288SOL    HW265762   9.610  13.541  13.462
21289SOL     OW65763  10.090  13.280  13.325
21289SOL    HW165764  10.015  13.339  13.314
21289SOL    HW265765  10.154  13.331  13.374
21290SOL     OW65766  11.234   5.780  14.372
21290SOL    HW165767  11.171   5.845  14.342
21290SOL    HW265768  11.193   5.696  14.352
21291SOL     OW65769   8.916  13.813  13.602
21291SOL    HW165770   8.864  13.782  13.528
21291SOL    HW265771   8.857  13.874  13.647
21292SOL     OW65772   7.360   1.261   7.978
21292SOL    HW165773   7.305   1.290   7.905
21292SOL    HW265774   7.321   1.178   8.005
21293SOL     OW65775   4.126  10.521   9.250
21293SOL    HW165776   4.171  10.580   9.190
21293SOL    HW265777   4.136  10.563   9.336
21294SOL     OW65778   8.548  12.180   4.508
21294SOL    HW165779   8.614  12.126   4.552
21294SOL    HW265780   8.571  12.270   4.532
21295SOL     OW65781  14.155  13.497  11.138
21295SOL    HW165782  14.156  13.504  11.234
21295SOL    HW265783  14.095  13.426  11.120
21296SOL     OW65784  10.663   4.578   4.660
21296SOL    HW165785  10.684   4.512   4.726
21296SOL    HW265786  10.676   4.534   4.576
21297SOL     OW65787  13.935   3.797   6.270
21297SOL    HW165788  13.942   3.813   6.176
21297SOL    HW265789  13.841   3.784   6.285
21298SOL     OW65790   0.934   5.486  13.915
21298SOL    HW165791   0.906   5.519  14.000
21298SOL    HW265792   0.862   5.509  13.856
21299SOL     OW65793   6.424  14.247   9.960
21299SOL    HW165794   6.519  14.246   9.947
21299SOL    HW265795   6.404  14.159   9.993
21300SOL     OW65796   6.453   4.536  10.350
21300SOL    HW165797   6.418   4.505  10.267
21300SOL    HW265798   6.548   4.521  10.342
21301SOL     OW65799   6.537  12.993   0.010
21301SOL    HW165800   6.451  12.965   0.040
21301SOL    HW265801   6.566  13.058   0.073
21302SOL     OW65802  11.282   4.621  14.218
21302SOL    HW165803  11.208   4.681  14.227
21302SOL    HW265804  11.319   4.642  14.132
21303SOL     OW65805  13.076  10.197  12.905
21303SOL    HW165806  13.068  10.215  12.811
21303SOL    HW265807  12.985  10.196  12.937
21304SOL     OW65808  12.954   7.011   9.418
21304SOL    HW165809  12.913   6.930   9.448
21304SOL    HW265810  12.933   7.076   9.486
21305SOL     OW65811   9.267  10.560  13.397
21305SOL    HW165812   9.271  10.478  13.447
21305SOL    HW265813   9.180  10.559  13.357
21306SOL     OW65814   7.972   3.704   8.432
21306SOL    HW165815   7.934   3.713   8.345
21306SOL    HW265816   8.010   3.617   8.433
21307SOL     OW65817   6.774   3.511  14.631
21307SOL    HW165818   6.807   3.485  14.717
21307SOL    HW265819   6.791   3.435  14.575
21308SOL     OW65820   5.037  14.703  11.467
21308SOL    HW165821   4.958  14.649  11.471
21308SOL    HW265822   5.097  14.655  11.410
21309SOL     OW65823   9.747   3.387   9.182
21309SOL    HW165824   9.743   3.387   9.277
21309SOL    HW265825   9.811   3.455   9.160
21310SOL     OW65826   9.056  10.728   4.848
21310SOL    HW165827   9.079  10.733   4.941
21310SOL    HW265828   8.989  10.661   4.843
21311SOL     OW65829   1.061   1.132  10.726
21311SOL    HW165830   0.974   1.153  10.694
21311SOL    HW265831   1.097   1.072  10.661
21312SOL     OW65832   6.481   1.165  13.185
21312SOL    HW165833   6.563   1.213  13.197
21312SOL    HW265834   6.454   1.141  13.274
21313SOL     OW65835  10.735  10.163   1.084
21313SOL    HW165836  10.720  10.094   1.149
21313SOL    HW265837  10.786  10.230   1.131
21314SOL     OW65838  13.939   1.270   9.710
21314SOL    HW165839  13.897   1.205   9.767
21314SOL    HW265840  14.013   1.224   9.671
21315SOL     OW65841   2.236   0.532   7.212
21315SOL    HW165842   2.190   0.615   7.223
21315SOL    HW265843   2.328   0.553   7.229
21316SOL     OW65844   0.978   9.858   9.006
21316SOL    HW165845   1.033   9.895   9.075
21316SOL    HW265846   0.996   9.764   9.009
21317SOL     OW65847   6.767   7.308   6.203
21317SOL    HW165848   6.829   7.359   6.256
21317SOL    HW265849   6.804   7.220   6.200
21318SOL     OW65850  10.242   0.314   2.783
21318SOL    HW165851  10.231   0.222   2.758
21318SOL    HW265852  10.316   0.345   2.730
21319SOL     OW65853  13.323  10.159   6.322
21319SOL    HW165854  13.346  10.074   6.362
21319SOL    HW265855  13.255  10.138   6.258
21320SOL     OW65856   4.455  11.620  10.760
21320SOL    HW165857   4.435  11.529  10.784
21320SOL    HW265858   4.463  11.665  10.843
21321SOL     OW65859   2.760   3.427   8.434
21321SOL    HW165860   2.808   3.386   8.362
21321SOL    HW265861   2.829   3.466   8.488
21322SOL     OW65862   3.735  14.808   2.173
21322SOL    HW165863   3.664  14.871   2.173
21322SOL    HW265864   3.786  14.829   2.094
21323SOL     OW65865  13.898   0.552   5.512
21323SOL    HW165866  13.874   0.549   5.420
21323SOL    HW265867  13.990   0.526   5.514
21324SOL     OW65868   2.326   1.227  12.330
21324SOL    HW165869   2.311   1.133  12.317
21324SOL    HW265870   2.420   1.235  12.343
21325SOL     OW65871  11.231  13.064   9.711
21325SOL    HW165872  11.186  13.108   9.639
21325SOL    HW265873  11.305  13.019   9.668
21326SOL     OW65874   1.578   5.138  12.337
21326SOL    HW165875   1.629   5.066  12.302
21326SOL    HW265876   1.622   5.217  12.304
21327SOL     OW65877   9.855   0.974   2.964
21327SOL    HW165878   9.927   1.034   2.943
21327SOL    HW265879   9.784   1.031   2.993
21328SOL     OW65880   3.482   1.315   3.338
21328SOL    HW165881   3.534   1.336   3.416
21328SOL    HW265882   3.543   1.272   3.279
21329SOL     OW65883   8.492   1.021   6.938
21329SOL    HW165884   8.474   1.088   7.004
21329SOL    HW265885   8.470   1.063   6.855
21330SOL     OW65886   8.636   2.780   8.206
21330SOL    HW165887   8.547   2.810   8.226
21330SOL    HW265888   8.678   2.855   8.164
21331SOL     OW65889   6.098   6.191  14.300
21331SOL    HW165890   6.146   6.210  14.381
21331SOL    HW265891   6.021   6.141  14.329
21332SOL     OW65892   3.621   9.061   4.151
21332SOL    HW165893   3.609   9.129   4.084
21332SOL    HW265894   3.647   8.984   4.102
21333SOL     OW65895  10.557   8.285   6.980
21333SOL    HW165896  10.644   8.264   7.015
21333SOL    HW265897  10.564   8.375   6.951
21334SOL     OW65898   4.136   4.133  14.799
21334SOL    HW165899   4.139   4.153  14.706
21334SOL    HW265900   4.226   4.115  14.823
21335SOL     OW65901   5.667  14.188   9.344
21335SOL    HW165902   5.681  14.120   9.410
21335SOL    HW265903   5.719  14.262   9.374
21336SOL     OW65904   7.096  11.989  11.367
21336SOL    HW165905   7.119  12.081  11.354
21336SOL    HW265906   7.175  11.949  11.403
21337SOL     OW65907   7.674   0.647  10.665
21337SOL    HW165908   7.746   0.697  10.626
21337SOL    HW265909   7.637   0.598  10.591
21338SOL     OW65910   4.317   1.154   3.065
21338SOL    HW165911   4.333   1.166   3.159
21338SOL    HW265912   4.275   1.236   3.037
21339SOL     OW65913  13.802   7.771   1.898
21339SOL    HW165914  13.801   7.784   1.803
21339SOL    HW265915  13.875   7.825   1.928
21340SOL     OW65916   6.773  11.333  11.512
21340SOL    HW165917   6.774  11.272  11.438
21340SOL    HW265918   6.744  11.280  11.586
21341SOL     OW65919  14.426  13.030   6.966
21341SOL    HW165920  14.446  13.065   7.053
21341SOL    HW265921  14.503  13.051   6.913
21342SOL     OW65922   7.063   1.616  14.201
21342SOL    HW165923   7.089   1.570  14.280
21342SOL    HW265924   7.003   1.556  14.157
21343SOL     OW65925   6.778   5.993  12.594
21343SOL    HW165926   6.863   6.038  12.594
21343SOL    HW265927   6.715   6.063  12.614
21344SOL     OW65928  11.968   5.668   6.673
21344SOL    HW165929  12.026   5.673   6.749
21344SOL    HW265930  11.966   5.757   6.637
21345SOL     OW65931  13.862   2.986   1.327
21345SOL    HW165932  13.903   3.072   1.318
21345SOL    HW265933  13.932   2.930   1.360
21346SOL     OW65934   2.937   5.402   1.835
21346SOL    HW165935   2.989   5.330   1.868
21346SOL    HW265936   2.976   5.424   1.750
21347SOL     OW65937   8.265   2.089  14.243
21347SOL    HW165938   8.309   2.005  14.230
21347SOL    HW265939   8.189   2.068  14.298
21348SOL     OW65940   3.818  11.859   3.185
21348SOL    HW165941   3.798  11.877   3.277
21348SOL    HW265942   3.907  11.824   3.186
21349SOL     OW65943   0.927   8.404   8.370
21349SOL    HW165944   1.011   8.440   8.342
21349SOL    HW265945   0.864   8.435   8.305
21350SOL     OW65946   6.310  14.646   9.865
21350SOL    HW165947   6.350  14.626   9.950
21350SOL    HW265948   6.255  14.569   9.846
21351SOL     OW65949  11.077  11.773   3.165
21351SOL    HW165950  11.102  11.831   3.094
21351SOL    HW265951  11.155  11.719   3.181
21352SOL     OW65952  14.473   1.370   2.831
21352SOL    HW165953  14.465   1.378   2.926
21352SOL    HW265954  14.405   1.308   2.806
21353SOL     OW65955   1.871   9.188   3.153
21353SOL    HW165956   1.822   9.131   3.094
21353SOL    HW265957   1.833   9.171   3.239
21354SOL     OW65958   1.701   7.922   7.232
21354SOL    HW165959   1.784   7.921   7.184
21354SOL    HW265960   1.649   7.852   7.192
21355SOL     OW65961  11.879  11.708   5.939
21355SOL    HW165962  11.915  11.785   5.984
21355SOL    HW265963  11.785  11.712   5.957
21356SOL     OW65964   3.462  11.091   0.269
21356SOL    HW165965   3.491  11.084   0.360
21356SOL    HW265966   3.387  11.150   0.272
21357SOL     OW65967  14.391  13.579  10.917
21357SOL    HW165968  14.350  13.664  10.906
21357SOL    HW265969  14.344  13.538  10.989
21358SOL     OW65970  14.584   1.832   5.355
21358SOL    HW165971  14.539   1.916   5.365
21358SOL    HW265972  14.673   1.848   5.387
21359SOL     OW65973   5.636   8.016   7.016
21359SOL    HW165974   5.612   7.928   6.988
21359SOL    HW265975   5.667   8.059   6.936
21360SOL     OW65976   6.632  13.270   8.716
21360SOL    HW165977   6.648  13.335   8.785
21360SOL    HW265978   6.641  13.186   8.760
21361SOL     OW65979   7.331  12.189  10.227
21361SOL    HW165980   7.254  12.152  10.184
21361SOL    HW265981   7.295  12.243  10.298
21362SOL     OW65982  10.449   6.621   4.848
21362SOL    HW165983  10.489   6.595   4.764
21362SOL    HW265984  10.373   6.562   4.857
21363SOL     OW65985  14.527   2.317   0.136
21363SOL    HW165986  14.502   2.243   0.192
21363SOL    HW265987  14.597   2.283   0.080
21364SOL     OW65988   7.163  14.231   5.224
21364SOL    HW165989   7.117  14.309   5.255
21364SOL    HW265990   7.208  14.198   5.302
21365SOL     OW65991  11.721   7.781   2.697
21365SOL    HW165992  11.636   7.737   2.698
21365SOL    HW265993  11.700   7.874   2.694
21366SOL     OW65994  14.580   7.559  10.901
21366SOL    HW165995  14.663   7.595  10.933
21366SOL    HW265996  14.531   7.635  10.870
21367SOL     OW65997   8.616   0.680   2.925
21367SOL    HW165998   8.584   0.747   2.864
21367SOL    HW265999   8.540   0.622   2.938
21368SOL     OW66000   0.060   8.137   1.924
21368SOL    HW166001   0.069   8.198   1.998
21368SOL    HW266002   0.132   8.075   1.935
21369SOL     OW66003   1.978   2.387   8.508
21369SOL    HW166004   2.023   2.370   8.426
21369SOL    HW266005   1.998   2.478   8.529
21370SOL     OW66006   3.527   3.608  13.060
21370SOL    HW166007   3.613   3.593  13.022
21370SOL    HW266008   3.501   3.695  13.027
21371SOL     OW66009  11.306   2.969   9.682
21371SOL    HW166010  11.261   3.049   9.712
21371SOL    HW266011  11.254   2.898   9.719
21372SOL     OW66012   3.525   8.921   9.736
21372SOL    HW166013   3.539   9.014   9.720
21372SOL    HW266014   3.476   8.891   9.659
21373SOL     OW66015  10.975   2.418  10.052
21373SOL    HW166016  11.005   2.339  10.006
21373SOL    HW266017  10.886   2.399  10.078
21374SOL     OW66018   3.779   2.475   7.458
21374SOL    HW166019   3.693   2.483   7.418
21374SOL    HW266020   3.785   2.550   7.517
21375SOL     OW66021   3.544   5.770  12.005
21375SOL    HW166022   3.481   5.700  11.988
21375SOL    HW266023   3.545   5.821  11.924
21376SOL     OW66024  13.285   4.003   9.932
21376SOL    HW166025  13.346   4.009   9.858
21376SOL    HW266026  13.273   3.910   9.947
21377SOL     OW66027  11.646  14.100  10.943
21377SOL    HW166028  11.676  14.190  10.930
21377SOL    HW266029  11.576  14.106  11.008
21378SOL     OW66030   6.998   8.474   0.965
21378SOL    HW166031   6.954   8.456   1.048
21378SOL    HW266032   7.057   8.400   0.953
21379SOL     OW66033   4.048   0.517  10.396
21379SOL    HW166034   4.079   0.516  10.306
21379SOL    HW266035   4.104   0.580  10.441
21380SOL     OW66036   9.264   9.246   6.134
21380SOL    HW166037   9.334   9.282   6.079
21380SOL    HW266038   9.307   9.177   6.185
21381SOL     OW66039   0.214   5.111  10.662
21381SOL    HW166040   0.208   5.156  10.746
21381SOL    HW266041   0.291   5.054  10.670
21382SOL     OW66042   9.034   3.041  14.252
21382SOL    HW166043   9.007   2.972  14.191
21382SOL    HW266044   8.953   3.068  14.294
21383SOL     OW66045  10.657   5.585  11.714
21383SOL    HW166046  10.721   5.621  11.652
21383SOL    HW266047  10.579   5.641  11.703
21384SOL     OW66048   3.608   5.816  13.281
21384SOL    HW166049   3.602   5.841  13.374
21384SOL    HW266050   3.608   5.721  13.282
21385SOL     OW66051   2.615   4.052  12.913
21385SOL    HW166052   2.534   4.023  12.956
21385SOL    HW266053   2.634   3.984  12.849
21386SOL     OW66054   0.891  14.052   9.175
21386SOL    HW166055   0.892  13.989   9.103
21386SOL    HW266056   0.885  14.138   9.132
21387SOL     OW66057  11.770  11.351   1.427
21387SOL    HW166058  11.709  11.280   1.448
21387SOL    HW266059  11.722  11.431   1.446
21388SOL     OW66060   2.034  13.243   2.166
21388SOL    HW166061   1.985  13.188   2.105
21388SOL    HW266062   2.101  13.184   2.202
21389SOL     OW66063   9.984   6.386  10.034
21389SOL    HW166064  10.071   6.360  10.064
21389SOL    HW266065  10.000   6.460   9.975
21390SOL     OW66066  10.642  14.472  12.264
21390SOL    HW166067  10.663  14.388  12.222
21390SOL    HW266068  10.728  14.510  12.284
21391SOL     OW66069   2.581   7.231   3.911
21391SOL    HW166070   2.666   7.192   3.933
21391SOL    HW266071   2.596   7.325   3.917
21392SOL     OW66072   0.260   6.705   9.382
21392SOL    HW166073   0.344   6.749   9.367
21392SOL    HW266074   0.262   6.679   9.474
21393SOL     OW66075   9.792   1.831   8.797
21393SOL    HW166076   9.816   1.885   8.873
21393SOL    HW266077   9.856   1.854   8.730
21394SOL     OW66078   7.998  10.401   0.312
21394SOL    HW166079   7.946  10.439   0.383
21394SOL    HW266080   8.065  10.466   0.293
21395SOL     OW66081   5.541  14.858  13.457
21395SOL    HW166082   5.632  14.835  13.439
21395SOL    HW266083   5.517   0.038  13.388
21396SOL     OW66084   9.296   2.340  13.620
21396SOL    HW166085   9.226   2.279  13.642
21396SOL    HW266086   9.374   2.304  13.662
21397SOL     OW66087   7.787  11.732   8.032
21397SOL    HW166088   7.790  11.720   8.126
21397SOL    HW266089   7.808  11.825   8.019
21398SOL     OW66090   1.854   3.791   5.626
21398SOL    HW166091   1.780   3.850   5.614
21398SOL    HW266092   1.923   3.828   5.571
21399SOL     OW66093   2.701   1.423   4.266
21399SOL    HW166094   2.640   1.496   4.253
21399SOL    HW266095   2.774   1.442   4.206
21400SOL     OW66096   9.683   1.773   0.835
21400SOL    HW166097   9.639   1.858   0.835
21400SOL    HW266098   9.728   1.770   0.920
21401SOL     OW66099   3.797   5.074   7.732
21401SOL    HW166100   3.800   5.133   7.807
21401SOL    HW266101   3.881   5.087   7.689
21402SOL     OW66102   6.793   8.762   0.196
21402SOL    HW166103   6.832   8.678   0.170
21402SOL    HW266104   6.714   8.768   0.143
21403SOL     OW66105  10.477   3.808   5.057
21403SOL    HW166106  10.564   3.799   5.096
21403SOL    HW266107  10.474   3.898   5.024
21404SOL     OW66108  10.069   6.124  13.824
21404SOL    HW166109  10.015   6.175  13.764
21404SOL    HW266110  10.157   6.128  13.786
21405SOL     OW66111   4.205   2.163   8.630
21405SOL    HW166112   4.289   2.122   8.652
21405SOL    HW266113   4.140   2.096   8.652
21406SOL     OW66114   1.685   4.765   2.037
21406SOL    HW166115   1.591   4.750   2.030
21406SOL    HW266116   1.694   4.828   2.108
21407SOL     OW66117  13.991   1.536   7.559
21407SOL    HW166118  14.014   1.483   7.483
21407SOL    HW266119  14.011   1.626   7.532
21408SOL     OW66120  11.757  12.721   7.035
21408SOL    HW166121  11.847  12.698   7.057
21408SOL    HW266122  11.726  12.646   6.984
21409SOL     OW66123  10.109  11.899   2.350
21409SOL    HW166124  10.094  11.839   2.277
21409SOL    HW266125  10.071  11.982   2.321
21410SOL     OW66126   3.606  11.265  12.231
21410SOL    HW166127   3.553  11.337  12.266
21410SOL    HW266128   3.542  11.204  12.195
21411SOL     OW66129  13.231  12.707   7.627
21411SOL    HW166130  13.220  12.797   7.657
21411SOL    HW266131  13.225  12.654   7.706
21412SOL     OW66132   8.581   9.551  12.227
21412SOL    HW166133   8.521   9.479  12.246
21412SOL    HW266134   8.668   9.512  12.234
21413SOL     OW66135  10.731  13.350  12.578
21413SOL    HW166136  10.792  13.372  12.508
21413SOL    HW266137  10.648  13.333  12.533
21414SOL     OW66138   2.963  13.992   5.339
21414SOL    HW166139   2.948  14.082   5.311
21414SOL    HW266140   3.047  13.969   5.299
21415SOL     OW66141  13.114  14.363   5.586
21415SOL    HW166142  13.050  14.431   5.608
21415SOL    HW266143  13.124  14.371   5.491
21416SOL     OW66144   3.916   5.393   4.184
21416SOL    HW166145   3.957   5.307   4.198
21416SOL    HW266146   3.875   5.414   4.268
21417SOL     OW66147   7.215   2.925   7.186
21417SOL    HW166148   7.256   2.959   7.106
21417SOL    HW266149   7.136   2.880   7.155
21418SOL     OW66150   5.945   8.094   4.704
21418SOL    HW166151   5.854   8.081   4.730
21418SOL    HW266152   5.992   8.022   4.746
21419SOL     OW66153   1.064  12.648   7.678
21419SOL    HW166154   0.976  12.658   7.642
21419SOL    HW266155   1.060  12.567   7.729
21420SOL     OW66156  13.657   8.776   0.513
21420SOL    HW166157  13.569   8.737   0.510
21420SOL    HW266158  13.690   8.752   0.599
21421SOL     OW66159  12.842   7.473   9.125
21421SOL    HW166160  12.905   7.412   9.086
21421SOL    HW266161  12.781   7.492   9.054
21422SOL     OW66162  14.172  11.019  14.809
21422SOL    HW166163  14.146  10.929  14.794
21422SOL    HW266164  14.263  11.013  14.837
21423SOL     OW66165  12.214   1.886   8.514
21423SOL    HW166166  12.237   1.947   8.444
21423SOL    HW266167  12.296   1.839   8.533
21424SOL     OW66168   2.068   8.724   6.911
21424SOL    HW166169   1.973   8.730   6.899
21424SOL    HW266170   2.104   8.785   6.847
21425SOL     OW66171   8.120  10.644   1.383
21425SOL    HW166172   8.077  10.710   1.329
21425SOL    HW266173   8.182  10.694   1.436
21426SOL     OW66174  11.918   8.375   7.987
21426SOL    HW166175  11.943   8.456   8.031
21426SOL    HW266176  11.850   8.401   7.925
21427SOL     OW66177   8.127  13.542  11.579
21427SOL    HW166178   8.178  13.515  11.503
21427SOL    HW266179   8.175  13.508  11.654
21428SOL     OW66180   1.396   0.294  10.689
21428SOL    HW166181   1.455   0.221  10.707
21428SOL    HW266182   1.381   0.290  10.595
21429SOL     OW66183  12.785   7.984   5.922
21429SOL    HW166184  12.861   7.963   5.977
21429SOL    HW266185  12.715   7.929   5.957
21430SOL     OW66186  14.110   6.858   5.816
21430SOL    HW166187  14.183   6.908   5.780
21430SOL    HW266188  14.118   6.871   5.911
21431SOL     OW66189   1.045   3.874  14.012
21431SOL    HW166190   0.972   3.930  14.038
21431SOL    HW266191   1.069   3.826  14.091
21432SOL     OW66192   9.234   4.681  10.882
21432SOL    HW166193   9.323   4.648  10.875
21432SOL    HW266194   9.217   4.723  10.797
21433SOL     OW66195   4.417   2.994   1.770
21433SOL    HW166196   4.329   3.003   1.807
21433SOL    HW266197   4.405   3.009   1.677
21434SOL     OW66198  10.403   1.612   8.080
21434SOL    HW166199  10.449   1.687   8.118
21434SOL    HW266200  10.420   1.618   7.986
21435SOL     OW66201   2.546   8.056   1.718
21435SOL    HW166202   2.600   8.076   1.795
21435SOL    HW266203   2.519   8.141   1.684
21436SOL     OW66204  11.515  12.512   0.323
21436SOL    HW166205  11.554  12.512   0.236
21436SOL    HW266206  11.589  12.498   0.382
21437SOL     OW66207   6.100  10.929  14.577
21437SOL    HW166208   6.063  10.841  14.580
21437SOL    HW266209   6.172  10.923  14.515
21438SOL     OW66210   7.508   3.993  12.478
21438SOL    HW166211   7.527   3.947  12.396
21438SOL    HW266212   7.570   3.955  12.541
21439SOL     OW66213   5.750  13.653  10.533
21439SOL    HW166214   5.809  13.628  10.462
21439SOL    HW266215   5.669  13.605  10.514
21440SOL     OW66216   2.475   8.845   7.703
21440SOL    HW166217   2.556   8.888   7.677
21440SOL    HW266218   2.427   8.911   7.753
21441SOL     OW66219   1.584   7.084   5.350
21441SOL    HW166220   1.577   7.049   5.261
21441SOL    HW266221   1.506   7.139   5.359
21442SOL     OW66222   8.675   5.801   4.211
21442SOL    HW166223   8.692   5.754   4.129
21442SOL    HW266224   8.762   5.818   4.247
21443SOL     OW66225  13.712   3.124  14.869
21443SOL    HW166226  13.699   3.210  14.829
21443SOL    HW266227  13.787   3.135   0.045
21444SOL     OW66228   4.838  10.677  14.105
21444SOL    HW166229   4.769  10.711  14.049
21444SOL    HW266230   4.920  10.701  14.061
21445SOL     OW66231   9.736   1.089  10.280
21445SOL    HW166232   9.775   1.010  10.245
21445SOL    HW266233   9.746   1.081  10.375
21446SOL     OW66234  11.689   9.508  10.545
21446SOL    HW166235  11.609   9.470  10.581
21446SOL    HW266236  11.669   9.522  10.452
21447SOL     OW66237   1.097   5.518   1.322
21447SOL    HW166238   1.006   5.549   1.324
21447SOL    HW266239   1.141   5.569   1.391
21448SOL     OW66240   1.488   9.633   1.003
21448SOL    HW166241   1.482   9.538   1.015
21448SOL    HW266242   1.561   9.659   1.058
21449SOL     OW66243   7.691   8.719  10.637
21449SOL    HW166244   7.613   8.753  10.593
21449SOL    HW266245   7.700   8.774  10.716
21450SOL     OW66246  12.306   3.692   9.501
21450SOL    HW166247  12.347   3.776   9.477
21450SOL    HW266248  12.339   3.630   9.436
21451SOL     OW66249   1.822   4.780   7.840
21451SOL    HW166250   1.917   4.781   7.836
21451SOL    HW266251   1.794   4.846   7.776
21452SOL     OW66252   6.880  14.286  10.708
21452SOL    HW166253   6.866  14.288  10.803
21452SOL    HW266254   6.907  14.196  10.690
21453SOL     OW66255   6.786   1.896   2.624
21453SOL    HW166256   6.862   1.913   2.569
21453SOL    HW266257   6.727   1.970   2.608
21454SOL     OW66258  10.202  10.491   2.193
21454SOL    HW166259  10.253  10.571   2.181
21454SOL    HW266260  10.169  10.471   2.105
21455SOL     OW66261   3.056  11.273   7.756
21455SOL    HW166262   2.990  11.285   7.824
21455SOL    HW266263   3.139  11.292   7.800
21456SOL     OW66264  11.385   7.799   3.656
21456SOL    HW166265  11.333   7.721   3.675
21456SOL    HW266266  11.337   7.843   3.586
21457SOL     OW66267  12.290   1.663   9.464
21457SOL    HW166268  12.195   1.650   9.467
21457SOL    HW266269  12.301   1.752   9.431
21458SOL     OW66270  13.509  12.357  10.048
21458SOL    HW166271  13.498  12.268  10.016
21458SOL    HW266272  13.474  12.356  10.137
21459SOL     OW66273  10.790   0.741   4.067
21459SOL    HW166274  10.857   0.801   4.034
21459SOL    HW266275  10.829   0.703   4.146
21460SOL     OW66276   3.453  14.058  13.699
21460SOL    HW166277   3.403  13.988  13.657
21460SOL    HW266278   3.541  14.050  13.662
21461SOL     OW66279   6.277   9.723   1.594
21461SOL    HW166280   6.217   9.657   1.625
21461SOL    HW266281   6.348   9.724   1.658
21462SOL     OW66282  11.374  11.343   6.975
21462SOL    HW166283  11.423  11.378   6.900
21462SOL    HW266284  11.368  11.249   6.957
21463SOL     OW66285   9.885  10.899  10.280
21463SOL    HW166286   9.930  10.839  10.340
21463SOL    HW266287   9.921  10.985  10.301
21464SOL     OW66288   0.926  11.856  11.992
21464SOL    HW166289   1.010  11.898  11.974
21464SOL    HW266290   0.934  11.824  12.082
21465SOL     OW66291   5.617  14.869   3.434
21465SOL    HW166292   5.712  14.876   3.444
21465SOL    HW266293   5.594   0.057   3.372
21466SOL     OW66294  14.798   2.041   6.339
21466SOL    HW166295  14.708   2.066   6.316
21466SOL    HW266296  14.834   2.005   6.258
21467SOL     OW66297   0.156   0.678  10.627
21467SOL    HW166298   0.188   0.768  10.625
21467SOL    HW266299   0.101   0.674  10.705
21468SOL     OW66300   3.119   9.800  10.139
21468SOL    HW166301   3.192   9.862  10.141
21468SOL    HW266302   3.140   9.736  10.207
21469SOL     OW66303  13.547   4.701  14.418
21469SOL    HW166304  13.489   4.772  14.447
21469SOL    HW266305  13.595   4.676  14.498
21470SOL     OW66306  10.316   4.591   2.331
21470SOL    HW166307  10.261   4.656   2.375
21470SOL    HW266308  10.270   4.508   2.342
21471SOL     OW66309   1.377   3.446  13.156
21471SOL    HW166310   1.307   3.487  13.206
21471SOL    HW266311   1.444   3.425  13.222
21472SOL     OW66312   5.723   3.053   6.000
21472SOL    HW166313   5.692   2.962   5.995
21472SOL    HW266314   5.699   3.091   5.915
21473SOL     OW66315   7.429   4.037  13.244
21473SOL    HW166316   7.369   3.966  13.220
21473SOL    HW266317   7.422   4.044  13.339
21474SOL     OW66318   5.690  14.190   3.751
21474SOL    HW166319   5.753  14.119   3.766
21474SOL    HW266320   5.622  14.150   3.696
21475SOL     OW66321   2.067   4.588   9.713
21475SOL    HW166322   1.995   4.652   9.719
21475SOL    HW266323   2.068   4.546   9.800
21476SOL     OW66324   2.879   2.110  10.978
21476SOL    HW166325   2.902   2.021  10.951
21476SOL    HW266326   2.964   2.153  10.991
21477SOL     OW66327   5.527   9.597   4.751
21477SOL    HW166328   5.521   9.685   4.787
21477SOL    HW266329   5.621   9.578   4.750
21478SOL     OW66330   5.782   1.263   1.737
21478SOL    HW166331   5.860   1.244   1.788
21478SOL    HW266332   5.709   1.238   1.794
21479SOL     OW66333   4.407  14.809   0.602
21479SOL    HW166334   4.456  14.840   0.526
21479SOL    HW266335   4.362   0.005   0.634
21480SOL     OW66336   1.805   9.080   1.120
21480SOL    HW166337   1.762   9.138   1.057
21480SOL    HW266338   1.898   9.094   1.106
21481SOL     OW66339   4.474  14.557   8.559
21481SOL    HW166340   4.421  14.636   8.545
21481SOL    HW266341   4.454  14.501   8.484
21482SOL     OW66342  12.805   2.475   9.289
21482SOL    HW166343  12.797   2.512   9.201
21482SOL    HW266344  12.860   2.538   9.336
21483SOL     OW66345  10.575  12.960  11.044
21483SOL    HW166346  10.665  12.936  11.020
21483SOL    HW266347  10.583  12.997  11.132
21484SOL     OW66348  13.175   2.019   7.943
21484SOL    HW166349  13.188   1.989   7.852
21484SOL    HW266350  13.133   2.104   7.934
21485SOL     OW66351   8.909   8.497   4.265
21485SOL    HW166352   8.897   8.409   4.301
21485SOL    HW266353   8.999   8.520   4.286
21486SOL     OW66354  13.629  10.107  13.361
21486SOL    HW166355  13.567  10.040  13.330
21486SOL    HW266356  13.713  10.080  13.325
21487SOL     OW66357   7.287   4.465   9.455
21487SOL    HW166358   7.192   4.472   9.448
21487SOL    HW266359   7.313   4.545   9.500
21488SOL     OW66360   2.131   0.968   4.465
21488SOL    HW166361   2.071   0.895   4.480
21488SOL    HW266362   2.164   0.953   4.376
21489SOL     OW66363  10.957   8.816   3.817
21489SOL    HW166364  10.990   8.770   3.894
21489SOL    HW266365  10.864   8.794   3.814
21490SOL     OW66366   3.709  10.584   2.463
21490SOL    HW166367   3.778  10.617   2.520
21490SOL    HW266368   3.697  10.493   2.488
21491SOL     OW66369   5.917  14.309   7.832
21491SOL    HW166370   5.942  14.338   7.919
21491SOL    HW266371   5.826  14.339   7.822
21492SOL     OW66372   9.303   4.642  13.088
21492SOL    HW166373   9.228   4.699  13.099
21492SOL    HW266374   9.351   4.648  13.171
21493SOL     OW66375   8.244   7.075   8.204
21493SOL    HW166376   8.295   7.094   8.126
21493SOL    HW266377   8.209   7.160   8.232
21494SOL     OW66378  13.712  14.253  12.071
21494SOL    HW166379  13.796  14.209  12.060
21494SOL    HW266380  13.694  14.292  11.986
21495SOL     OW66381   5.225   4.697   5.933
21495SOL    HW166382   5.217   4.777   5.882
21495SOL    HW266383   5.308   4.706   5.980
21496SOL     OW66384  11.710   1.153  14.825
21496SOL    HW166385  11.672   1.080  14.777
21496SOL    HW266386  11.729   1.219  14.758
21497SOL     OW66387   1.161  13.052   6.604
21497SOL    HW166388   1.071  13.061   6.635
21497SOL    HW266389   1.205  13.132   6.632
21498SOL     OW66390   9.598   2.379  10.875
21498SOL    HW166391   9.613   2.353  10.785
21498SOL    HW266392   9.653   2.456  10.888
21499SOL     OW66393  12.751  11.672  11.466
21499SOL    HW166394  12.750  11.648  11.373
21499SOL    HW266395  12.827  11.729  11.475
21500SOL     OW66396   4.707   4.306  14.339
21500SOL    HW166397   4.777   4.329  14.399
21500SOL    HW266398   4.628   4.302  14.394
21501SOL     OW66399   9.320   9.163   5.496
21501SOL    HW166400   9.402   9.122   5.523
21501SOL    HW266401   9.345   9.253   5.474
21502SOL     OW66402   0.338   1.823  10.985
21502SOL    HW166403   0.412   1.862  10.940
21502SOL    HW266404   0.287   1.898  11.016
21503SOL     OW66405  13.238   3.599   6.790
21503SOL    HW166406  13.262   3.680   6.836
21503SOL    HW266407  13.234   3.624   6.698
21504SOL     OW66408   7.322   7.477   6.537
21504SOL    HW166409   7.307   7.418   6.463
21504SOL    HW266410   7.364   7.554   6.498
21505SOL     OW66411  13.103  10.752   1.252
21505SOL    HW166412  13.181  10.698   1.249
21505SOL    HW266413  13.114  10.806   1.331
21506SOL     OW66414   7.456   3.145   7.051
21506SOL    HW166415   7.493   3.167   7.137
21506SOL    HW266416   7.531   3.111   7.002
21507SOL     OW66417   8.053  12.940   6.423
21507SOL    HW166418   7.981  12.881   6.402
21507SOL    HW266419   8.073  12.985   6.341
21508SOL     OW66420   7.738  14.031   3.422
21508SOL    HW166421   7.648  13.998   3.429
21508SOL    HW266422   7.740  14.107   3.481
21509SOL     OW66423   9.073  11.327   4.065
21509SOL    HW166424   9.042  11.249   4.019
21509SOL    HW266425   9.003  11.349   4.125
21510SOL     OW66426  12.085   3.287  13.177
21510SOL    HW166427  12.162   3.336  13.146
21510SOL    HW266428  12.077   3.311  13.269
21511SOL     OW66429   5.972   2.812  13.140
21511SOL    HW166430   5.908   2.749  13.105
21511SOL    HW266431   6.057   2.769  13.127
21512SOL     OW66432  13.402   2.971   2.054
21512SOL    HW166433  13.426   3.047   2.106
21512SOL    HW266434  13.392   3.005   1.965
21513SOL     OW66435   5.547   4.106   7.047
21513SOL    HW166436   5.530   4.034   7.108
21513SOL    HW266437   5.460   4.138   7.023
21514SOL     OW66438   4.206   0.190  14.249
21514SOL    HW166439   4.161   0.131  14.309
21514SOL    HW266440   4.137   0.222  14.190
21515SOL     OW66441   0.020   1.481   6.011
21515SOL    HW166442   0.055   1.393   6.009
21515SOL    HW266443   0.052   1.522   5.931
21516SOL     OW66444   5.748   4.505   6.413
21516SOL    HW166445   5.719   4.415   6.396
21516SOL    HW266446   5.686   4.539   6.477
21517SOL     OW66447   8.322   2.184   3.088
21517SOL    HW166448   8.395   2.237   3.057
21517SOL    HW266449   8.362   2.108   3.129
21518SOL     OW66450  10.899   7.339  13.277
21518SOL    HW166451  10.883   7.250  13.308
21518SOL    HW266452  10.988   7.359  13.306
21519SOL     OW66453  12.938   5.010   4.098
21519SOL    HW166454  12.977   5.002   4.011
21519SOL    HW266455  12.845   4.989   4.084
21520SOL     OW66456   6.041  14.384   8.499
21520SOL    HW166457   6.051  14.289   8.489
21520SOL    HW266458   6.054  14.419   8.411
21521SOL     OW66459   9.157   4.083  10.345
21521SOL    HW166460   9.170   4.154  10.408
21521SOL    HW266461   9.098   4.022  10.388
21522SOL     OW66462   3.920  13.416   5.773
21522SOL    HW166463   3.871  13.487   5.814
21522SOL    HW266464   4.006  13.419   5.813
21523SOL     OW66465   6.177   3.060  12.821
21523SOL    HW166466   6.226   3.129  12.865
21523SOL    HW266467   6.171   3.088  12.730
21524SOL     OW66468   3.098  12.828   7.440
21524SOL    HW166469   3.136  12.799   7.357
21524SOL    HW266470   3.021  12.772   7.451
21525SOL     OW66471   4.918   3.833   6.756
21525SOL    HW166472   4.901   3.911   6.703
21525SOL    HW266473   4.953   3.769   6.695
21526SOL     OW66474   9.290  10.763   3.175
21526SOL    HW166475   9.305  10.670   3.157
21526SOL    HW266476   9.298  10.805   3.089
21527SOL     OW66477   6.591   1.995  12.409
21527SOL    HW166478   6.634   1.951  12.335
21527SOL    HW266479   6.498   1.979  12.395
21528SOL     OW66480  10.009  10.791  13.445
21528SOL    HW166481  10.079  10.730  13.421
21528SOL    HW266482   9.935  10.734  13.466
21529SOL     OW66483   3.001  14.718   3.489
21529SOL    HW166484   3.088  14.704   3.450
21529SOL    HW266485   2.951  14.763   3.421
21530SOL     OW66486   8.403   8.476  14.637
21530SOL    HW166487   8.377   8.560  14.674
21530SOL    HW266488   8.465   8.440  14.701
21531SOL     OW66489   2.128   0.458   9.207
21531SOL    HW166490   2.193   0.514   9.165
21531SOL    HW266491   2.160   0.446   9.296
21532SOL     OW66492   7.826  12.378   5.435
21532SOL    HW166493   7.730  12.371   5.433
21532SOL    HW266494   7.851  12.333   5.516
21533SOL     OW66495   0.903  13.098   6.688
21533SOL    HW166496   0.826  13.067   6.641
21533SOL    HW266497   0.878  13.092   6.780
21534SOL     OW66498   8.378   4.675  11.204
21534SOL    HW166499   8.307   4.619  11.236
21534SOL    HW266500   8.341   4.764  11.205
21535SOL     OW66501   6.469  13.940  13.192
21535SOL    HW166502   6.492  13.893  13.273
21535SOL    HW266503   6.486  13.878  13.122
21536SOL     OW66504  14.534   2.039   0.703
21536SOL    HW166505  14.601   2.039   0.771
21536SOL    HW266506  14.581   2.054   0.621
21537SOL     OW66507  10.278   4.286   8.800
21537SOL    HW166508  10.187   4.264   8.820
21537SOL    HW266509  10.275   4.379   8.776
21538SOL     OW66510   0.545   8.593   9.954
21538SOL    HW166511   0.586   8.518   9.996
21538SOL    HW266512   0.542   8.661  10.022
21539SOL     OW66513   1.248   0.117   5.411
21539SOL    HW166514   1.330   0.127   5.458
21539SOL    HW266515   1.229   0.205   5.377
21540SOL     OW66516   9.848   3.790   4.247
21540SOL    HW166517   9.906   3.732   4.297
21540SOL    HW266518   9.787   3.730   4.203
21541SOL     OW66519   5.348  10.665   1.280
21541SOL    HW166520   5.442  10.666   1.266
21541SOL    HW266521   5.337  10.637   1.370
21542SOL     OW66522  10.841   2.887  10.325
21542SOL    HW166523  10.912   2.868  10.264
21542SOL    HW266524  10.797   2.963  10.288
21543SOL     OW66525   9.297  14.470   0.191
21543SOL    HW166526   9.266  14.385   0.220
21543SOL    HW266527   9.226  14.531   0.214
21544SOL     OW66528  11.842  13.200  12.093
21544SOL    HW166529  11.925  13.217  12.137
21544SOL    HW266530  11.862  13.207  12.000
21545SOL     OW66531   3.447   5.593  12.961
21545SOL    HW166532   3.491   5.677  12.949
21545SOL    HW266533   3.354   5.612  12.946
21546SOL     OW66534   8.829   4.730  12.108
21546SOL    HW166535   8.734   4.735  12.095
21546SOL    HW266536   8.864   4.707  12.022
21547SOL     OW66537   6.679   6.518   3.230
21547SOL    HW166538   6.584   6.525   3.231
21547SOL    HW266539   6.696   6.425   3.247
21548SOL     OW66540   4.693   8.101   7.879
21548SOL    HW166541   4.613   8.088   7.829
21548SOL    HW266542   4.688   8.037   7.950
21549SOL     OW66543   1.675  10.327   6.930
21549SOL    HW166544   1.677  10.276   6.849
21549SOL    HW266545   1.597  10.382   6.923
21550SOL     OW66546   8.632   1.631   7.748
21550SOL    HW166547   8.708   1.675   7.710
21550SOL    HW266548   8.668   1.563   7.804
21551SOL     OW66549   6.990   1.421   2.184
21551SOL    HW166550   6.964   1.465   2.265
21551SOL    HW266551   6.973   1.328   2.200
21552SOL     OW66552   7.155   2.335   6.653
21552SOL    HW166553   7.187   2.325   6.742
21552SOL    HW266554   7.062   2.357   6.663
21553SOL     OW66555  12.234  11.812   6.601
21553SOL    HW166556  12.299  11.763   6.549
21553SOL    HW266557  12.159  11.753   6.607
21554SOL     OW66558   2.298   8.914  14.437
21554SOL    HW166559   2.316   8.995  14.389
21554SOL    HW266560   2.374   8.859  14.420
21555SOL     OW66561   3.093  14.141  10.701
21555SOL    HW166562   3.068  14.056  10.665
21555SOL    HW266563   3.086  14.130  10.796
21556SOL     OW66564   3.612   0.592   6.876
21556SOL    HW166565   3.699   0.611   6.843
21556SOL    HW266566   3.594   0.662   6.940
21557SOL     OW66567  14.505  10.477   5.061
21557SOL    HW166568  14.427  10.501   5.110
21557SOL    HW266569  14.547  10.560   5.039
21558SOL     OW66570   3.793   1.810   6.642
21558SOL    HW166571   3.729   1.739   6.652
21558SOL    HW266572   3.870   1.780   6.689
21559SOL     OW66573  14.866  11.145   5.150
21559SOL    HW166574  14.773  11.163   5.161
21559SOL    HW266575   0.016  11.215   5.093
21560SOL     OW66576   9.976   4.844  12.881
21560SOL    HW166577   9.984   4.937  12.860
21560SOL    HW266578  10.041   4.802  12.824
21561SOL     OW66579  10.715  10.469   8.517
21561SOL    HW166580  10.810  10.476   8.502
21561SOL    HW266581  10.703  10.383   8.557
21562SOL     OW66582  11.016  10.866   2.504
21562SOL    HW166583  11.108  10.873   2.529
21562SOL    HW266584  10.975  10.818   2.577
21563SOL     OW66585   6.053   1.923   4.084
21563SOL    HW166586   6.016   1.979   4.152
21563SOL    HW266587   6.146   1.948   4.081
21564SOL     OW66588  14.691   3.258   0.371
21564SOL    HW166589  14.719   3.168   0.354
21564SOL    HW266590  14.749   3.288   0.441
21565SOL     OW66591  11.634   2.873   7.442
21565SOL    HW166592  11.619   2.878   7.347
21565SOL    HW266593  11.546   2.868   7.479
21566SOL     OW66594   8.537   5.371  13.775
21566SOL    HW166595   8.600   5.347  13.842
21566SOL    HW266596   8.528   5.466  13.783
21567SOL     OW66597   2.422   3.018  10.639
21567SOL    HW166598   2.440   3.069  10.560
21567SOL    HW266599   2.364   2.948  10.610
21568SOL     OW66600  11.632  12.130  12.264
21568SOL    HW166601  11.689  12.105  12.337
21568SOL    HW266602  11.650  12.065  12.196
21569SOL     OW66603  10.343   8.391   9.894
21569SOL    HW166604  10.372   8.476   9.927
21569SOL    HW266605  10.276   8.412   9.829
21570SOL     OW66606   6.795   5.741  10.035
21570SOL    HW166607   6.849   5.785  10.101
21570SOL    HW266608   6.705   5.751  10.067
21571SOL     OW66609   3.831   3.368   8.170
21571SOL    HW166610   3.910   3.314   8.162
21571SOL    HW266611   3.767   3.324   8.115
21572SOL     OW66612  13.426   0.049  13.514
21572SOL    HW166613  13.351   0.090  13.472
21572SOL    HW266614  13.441  14.852  13.463
21573SOL     OW66615  11.204   6.322   7.479
21573SOL    HW166616  11.212   6.349   7.387
21573SOL    HW266617  11.171   6.401   7.523
21574SOL     OW66618  10.395   5.536  10.924
21574SOL    HW166619  10.481   5.544  10.881
21574SOL    HW266620  10.353   5.464  10.878
21575SOL     OW66621   2.144   9.836  13.289
21575SOL    HW166622   2.226   9.885  13.281
21575SOL    HW266623   2.171   9.744  13.293
21576SOL     OW66624   7.654   3.266   9.793
21576SOL    HW166625   7.700   3.306   9.867
21576SOL    HW266626   7.563   3.257   9.824
21577SOL     OW66627  13.423   5.675   1.945
21577SOL    HW166628  13.445   5.751   1.891
21577SOL    HW266629  13.389   5.712   2.026
21578SOL     OW66630   3.724   2.270  12.648
21578SOL    HW166631   3.684   2.197  12.600
21578SOL    HW266632   3.658   2.339  12.645
21579SOL     OW66633  12.429   2.745   3.777
21579SOL    HW166634  12.480   2.717   3.853
21579SOL    HW266635  12.441   2.675   3.713
21580SOL     OW66636   8.255   1.675  12.841
21580SOL    HW166637   8.313   1.677  12.917
21580SOL    HW266638   8.211   1.590  12.847
21581SOL     OW66639  14.112   1.969  12.325
21581SOL    HW166640  14.027   1.926  12.338
21581SOL    HW266641  14.175   1.912  12.368
21582SOL     OW66642   0.443  11.153  12.536
21582SOL    HW166643   0.363  11.124  12.493
21582SOL    HW266644   0.512  11.133  12.473
21583SOL     OW66645   8.154   2.426  10.124
21583SOL    HW166646   8.069   2.466  10.109
21583SOL    HW266647   8.164   2.363  10.052
21584SOL     OW66648  12.094   4.054   2.355
21584SOL    HW166649  11.998   4.050   2.355
21584SOL    HW266650  12.114   4.142   2.324
21585SOL     OW66651  13.734  14.842   9.250
21585SOL    HW166652  13.770  14.785   9.182
21585SOL    HW266653  13.810   0.004   9.289
21586SOL     OW66654  13.954  13.437   7.973
21586SOL    HW166655  13.887  13.454   7.906
21586SOL    HW266656  14.003  13.519   7.979
21587SOL     OW66657   1.815   8.788   6.131
21587SOL    HW166658   1.804   8.864   6.074
21587SOL    HW266659   1.908   8.765   6.123
21588SOL     OW66660  14.208   7.828   2.180
21588SOL    HW166661  14.236   7.895   2.242
21588SOL    HW266662  14.161   7.764   2.234
21589SOL     OW66663   2.120   6.355  13.368
21589SOL    HW166664   2.183   6.414  13.409
21589SOL    HW266665   2.074   6.409  13.304
21590SOL     OW66666  11.599   3.744   3.855
21590SOL    HW166667  11.691   3.721   3.865
21590SOL    HW266668  11.571   3.769   3.943
21591SOL     OW66669  11.354   7.016  12.582
21591SOL    HW166670  11.287   7.019  12.513
21591SOL    HW266671  11.329   7.086  12.642
21592SOL     OW66672  10.351   3.165   3.662
21592SOL    HW166673  10.279   3.193   3.718
21592SOL    HW266674  10.398   3.100   3.714
21593SOL     OW66675  10.139  14.205   9.879
21593SOL    HW166676  10.197  14.130   9.865
21593SOL    HW266677  10.057  14.166   9.908
21594SOL     OW66678  11.340   3.551   9.253
21594SOL    HW166679  11.310   3.592   9.172
21594SOL    HW266680  11.312   3.610   9.322
21595SOL     OW66681   1.064   8.708  11.093
21595SOL    HW166682   0.976   8.672  11.079
21595SOL    HW266683   1.056   8.801  11.073
21596SOL     OW66684   6.900   6.688   4.645
21596SOL    HW166685   6.836   6.648   4.585
21596SOL    HW266686   6.969   6.721   4.588
21597SOL     OW66687   4.331   5.361   1.632
21597SOL    HW166688   4.349   5.270   1.656
21597SOL    HW266689   4.382   5.375   1.552
21598SOL     OW66690  12.750   2.656   1.463
21598SOL    HW166691  12.674   2.635   1.409
21598SOL    HW266692  12.825   2.637   1.407
21599SOL     OW66693   0.068   4.480   5.264
21599SOL    HW166694   0.129   4.407   5.249
21599SOL    HW266695  14.875   4.460   5.208
21600SOL     OW66696   2.045   0.244  14.495
21600SOL    HW166697   2.113   0.309  14.483
21600SOL    HW266698   2.036   0.235  14.590
21601SOL     OW66699   3.793   5.779  14.610
21601SOL    HW166700   3.804   5.870  14.584
21601SOL    HW266701   3.833   5.774  14.697
21602SOL     OW66702   4.459   6.923  12.649
21602SOL    HW166703   4.379   6.900  12.600
21602SOL    HW266704   4.447   7.015  12.672
21603SOL     OW66705   8.432   3.283  14.598
21603SOL    HW166706   8.455   3.358  14.544
21603SOL    HW266707   8.392   3.221  14.537
21604SOL     OW66708  12.922   3.522   8.070
21604SOL    HW166709  12.892   3.599   8.023
21604SOL    HW266710  13.017   3.533   8.077
21605SOL     OW66711   2.167   0.489   6.714
21605SOL    HW166712   2.217   0.570   6.717
21605SOL    HW266713   2.114   0.496   6.635
21606SOL     OW66714   1.539   4.004  11.250
21606SOL    HW166715   1.539   3.987  11.155
21606SOL    HW266716   1.484   3.934  11.286
21607SOL     OW66717   5.309  12.134  10.893
21607SOL    HW166718   5.390  12.084  10.906
21607SOL    HW266719   5.278  12.153  10.982
21608SOL     OW66720   1.055  14.314   9.948
21608SOL    HW166721   0.976  14.327  10.000
21608SOL    HW266722   1.107  14.251   9.998
21609SOL     OW66723  11.760  13.807  12.523
21609SOL    HW166724  11.676  13.788  12.482
21609SOL    HW266725  11.739  13.867  12.595
21610SOL     OW66726  12.370   1.908   0.821
21610SOL    HW166727  12.370   1.998   0.854
21610SOL    HW266728  12.278   1.890   0.802
21611SOL     OW66729   7.671   1.271   0.379
21611SOL    HW166730   7.675   1.354   0.332
21611SOL    HW266731   7.759   1.234   0.370
21612SOL     OW66732   9.638   2.226   6.226
21612SOL    HW166733   9.619   2.188   6.311
21612SOL    HW266734   9.731   2.249   6.230
21613SOL     OW66735   2.963   7.017   8.536
21613SOL    HW166736   2.918   6.961   8.473
21613SOL    HW266737   2.994   6.958   8.604
21614SOL     OW66738   0.556   9.041   3.409
21614SOL    HW166739   0.637   9.086   3.385
21614SOL    HW266740   0.563   8.956   3.365
21615SOL     OW66741  12.444   1.083   0.057
21615SOL    HW166742  12.526   1.058   0.015
21615SOL    HW266743  12.378   1.070  14.871
21616SOL     OW66744   7.286   0.242   2.318
21616SOL    HW166745   7.277   0.274   2.408
21616SOL    HW266746   7.324   0.316   2.270
21617SOL     OW66747   7.790  12.306   4.264
21617SOL    HW166748   7.703  12.340   4.282
21617SOL    HW266749   7.782  12.261   4.180
21618SOL     OW66750  12.260  10.431   0.211
21618SOL    HW166751  12.208  10.352   0.196
21618SOL    HW266752  12.290  10.423   0.301
21619SOL     OW66753   9.300   7.629   9.830
21619SOL    HW166754   9.309   7.537   9.803
21619SOL    HW266755   9.213   7.634   9.871
21620SOL     OW66756  10.280   2.278   0.877
21620SOL    HW166757  10.278   2.237   0.791
21620SOL    HW266758  10.336   2.355   0.866
21621SOL     OW66759  13.043  12.885   9.769
21621SOL    HW166760  13.068  12.817   9.830
21621SOL    HW266761  13.035  12.840   9.685
21622SOL     OW66762   7.231  13.291   8.200
21622SOL    HW166763   7.286  13.369   8.197
21622SOL    HW266764   7.291  13.218   8.182
21623SOL     OW66765  12.425   4.229   7.545
21623SOL    HW166766  12.488   4.258   7.612
21623SOL    HW266767  12.462   4.259   7.462
21624SOL     OW66768   4.742   4.494   3.223
21624SOL    HW166769   4.821   4.518   3.176
21624SOL    HW266770   4.771   4.435   3.292
21625SOL     OW66771   3.253  11.879   0.679
21625SOL    HW166772   3.270  11.905   0.589
21625SOL    HW266773   3.159  11.890   0.691
21626SOL     OW66774  12.180  10.361  11.234
21626SOL    HW166775  12.223  10.275  11.229
21626SOL    HW266776  12.237  10.419  11.183
21627SOL     OW66777   7.158  10.917  11.178
21627SOL    HW166778   7.135  10.834  11.137
21627SOL    HW266779   7.186  10.893  11.267
21628SOL     OW66780   2.375   3.829  11.382
21628SOL    HW166781   2.455   3.787  11.414
21628SOL    HW266782   2.327   3.759  11.337
21629SOL     OW66783   3.370   3.151  12.192
21629SOL    HW166784   3.447   3.144  12.136
21629SOL    HW266785   3.323   3.068  12.179
21630SOL     OW66786   4.063  11.680   7.297
21630SOL    HW166787   4.133  11.637   7.246
21630SOL    HW266788   4.019  11.608   7.342
21631SOL     OW66789  13.799  12.970   7.266
21631SOL    HW166790  13.879  12.938   7.225
21631SOL    HW266791  13.760  12.893   7.307
21632SOL     OW66792  12.829   5.899   6.358
21632SOL    HW166793  12.900   5.849   6.319
21632SOL    HW266794  12.808   5.967   6.294
21633SOL     OW66795   2.631   4.495   4.002
21633SOL    HW166796   2.539   4.493   4.026
21633SOL    HW266797   2.663   4.408   4.023
21634SOL     OW66798   5.455   4.333   2.918
21634SOL    HW166799   5.371   4.289   2.933
21634SOL    HW266800   5.517   4.283   2.970
21635SOL     OW66801  11.176   2.833   8.412
21635SOL    HW166802  11.090   2.793   8.423
21635SOL    HW266803  11.230   2.794   8.481
21636SOL     OW66804   6.049   2.154  11.325
21636SOL    HW166805   6.084   2.182  11.410
21636SOL    HW266806   6.127   2.133  11.273
21637SOL     OW66807   1.460   2.427   0.993
21637SOL    HW166808   1.524   2.419   0.921
21637SOL    HW266809   1.511   2.409   1.072
21638SOL     OW66810   6.771   0.152   1.736
21638SOL    HW166811   6.702   0.086   1.725
21638SOL    HW266812   6.851   0.109   1.707
21639SOL     OW66813  13.300   0.544   4.412
21639SOL    HW166814  13.336   0.485   4.478
21639SOL    HW266815  13.375   0.596   4.384
21640SOL     OW66816   4.391   2.023  12.489
21640SOL    HW166817   4.333   2.085  12.445
21640SOL    HW266818   4.370   1.939  12.449
21641SOL     OW66819   5.176  14.762   2.462
21641SOL    HW166820   5.120  14.840   2.473
21641SOL    HW266821   5.114  14.689   2.455
21642SOL     OW66822  11.097   9.756  13.767
21642SOL    HW166823  11.147   9.829  13.801
21642SOL    HW266824  11.159   9.706  13.714
21643SOL     OW66825  10.122  11.346   1.430
21643SOL    HW166826  10.145  11.258   1.400
21643SOL    HW266827  10.076  11.385   1.356
21644SOL     OW66828  10.029  14.111  13.230
21644SOL    HW166829  10.063  14.082  13.145
21644SOL    HW266830  10.106  14.114  13.287
21645SOL     OW66831  10.812  11.368   3.606
21645SOL    HW166832  10.726  11.345   3.569
21645SOL    HW266833  10.854  11.420   3.538
21646SOL     OW66834   7.573   8.323  10.437
21646SOL    HW166835   7.485   8.352  10.412
21646SOL    HW266836   7.572   8.323  10.533
21647SOL     OW66837  12.727   1.695  10.920
21647SOL    HW166838  12.818   1.687  10.947
21647SOL    HW266839  12.727   1.674  10.827
21648SOL     OW66840  14.425   4.805  11.197
21648SOL    HW166841  14.386   4.807  11.284
21648SOL    HW266842  14.478   4.885  11.193
21649SOL     OW66843  10.299  10.754   1.108
21649SOL    HW166844  10.338  10.709   1.032
21649SOL    HW266845  10.294  10.846   1.081
21650SOL     OW66846   5.101   1.592  12.263
21650SOL    HW166847   5.106   1.561  12.354
21650SOL    HW266848   5.163   1.665  12.260
21651SOL     OW66849   6.494  11.356  12.521
21651SOL    HW166850   6.543  11.293  12.574
21651SOL    HW266851   6.561  11.411  12.480
21652SOL     OW66852   8.600   6.913   6.390
21652SOL    HW166853   8.584   6.819   6.400
21652SOL    HW266854   8.547   6.953   6.459
21653SOL     OW66855   3.564   4.079   1.899
21653SOL    HW166856   3.553   4.165   1.859
21653SOL    HW266857   3.616   4.030   1.835
21654SOL     OW66858   7.841   8.331   1.943
21654SOL    HW166859   7.817   8.330   1.850
21654SOL    HW266860   7.883   8.417   1.956
21655SOL     OW66861  14.395  10.114   5.763
21655SOL    HW166862  14.308  10.078   5.778
21655SOL    HW266863  14.402  10.121   5.667
21656SOL     OW66864   3.495   2.310   0.664
21656SOL    HW166865   3.504   2.405   0.671
21656SOL    HW266866   3.481   2.281   0.755
21657SOL     OW66867   3.571   7.268   4.819
21657SOL    HW166868   3.577   7.193   4.878
21657SOL    HW266869   3.589   7.232   4.732
21658SOL     OW66870   8.779   2.145   6.269
21658SOL    HW166871   8.810   2.100   6.348
21658SOL    HW266872   8.841   2.217   6.255
21659SOL     OW66873   2.468   6.082  10.490
21659SOL    HW166874   2.391   6.062  10.543
21659SOL    HW266875   2.495   6.169  10.519
21660SOL     OW66876   7.604   4.812   8.555
21660SOL    HW166877   7.515   4.847   8.547
21660SOL    HW266878   7.649   4.875   8.612
21661SOL     OW66879  10.424   6.415  11.374
21661SOL    HW166880  10.449   6.487  11.315
21661SOL    HW266881  10.384   6.459  11.449
21662SOL     OW66882   1.142   7.334   9.993
21662SOL    HW166883   1.055   7.354  10.029
21662SOL    HW266884   1.203   7.367  10.059
21663SOL     OW66885   9.349  12.912   0.034
21663SOL    HW166886   9.325  12.949   0.119
21663SOL    HW266887   9.324  12.978  14.853
21664SOL     OW66888   5.566   2.273   5.760
21664SOL    HW166889   5.639   2.220   5.729
21664SOL    HW266890   5.488   2.218   5.745
21665SOL     OW66891   4.967   1.286  12.791
21665SOL    HW166892   4.922   1.211  12.830
21665SOL    HW266893   4.936   1.288  12.700
21666SOL     OW66894  10.849   3.637   7.999
21666SOL    HW166895  10.933   3.617   7.958
21666SOL    HW266896  10.852   3.591   8.083
21667SOL     OW66897   5.761   7.485  13.066
21667SOL    HW166898   5.734   7.504  12.977
21667SOL    HW266899   5.679   7.461  13.111
21668SOL     OW66900  13.525   6.132   6.854
21668SOL    HW166901  13.573   6.050   6.870
21668SOL    HW266902  13.590   6.190   6.815
21669SOL     OW66903   7.049   5.967   2.221
21669SOL    HW166904   6.973   5.914   2.246
21669SOL    HW266905   7.016   6.025   2.152
21670SOL     OW66906   0.910   5.394  10.085
21670SOL    HW166907   0.885   5.324  10.145
21670SOL    HW266908   0.871   5.370  10.002
21671SOL     OW66909  14.437   4.382  10.482
21671SOL    HW166910  14.475   4.378  10.569
21671SOL    HW266911  14.342   4.386  10.498
21672SOL     OW66912   8.468  10.017   8.435
21672SOL    HW166913   8.403  10.035   8.367
21672SOL    HW266914   8.505   9.933   8.412
21673SOL     OW66915   9.788  10.494  10.925
21673SOL    HW166916   9.744  10.543  10.995
21673SOL    HW266917   9.749  10.407  10.930
21674SOL     OW66918   6.787   3.377  12.315
21674SOL    HW166919   6.807   3.447  12.379
21674SOL    HW266920   6.867   3.368  12.264
21675SOL     OW66921  11.432   4.230  13.766
21675SOL    HW166922  11.429   4.203  13.674
21675SOL    HW266923  11.456   4.151  13.814
21676SOL     OW66924   7.411   9.266  10.304
21676SOL    HW166925   7.352   9.335  10.273
21676SOL    HW266926   7.498   9.297  10.277
21677SOL     OW66927   2.793  11.085   9.908
21677SOL    HW166928   2.703  11.094   9.940
21677SOL    HW266929   2.798  10.997   9.872
21678SOL     OW66930   9.010   3.313   4.571
21678SOL    HW166931   8.940   3.301   4.507
21678SOL    HW266932   9.066   3.380   4.532
21679SOL     OW66933   2.700   7.641   8.346
21679SOL    HW166934   2.707   7.561   8.397
21679SOL    HW266935   2.673   7.708   8.409
21680SOL     OW66936   6.122  13.267  13.017
21680SOL    HW166937   6.191  13.231  12.962
21680SOL    HW266938   6.157  13.350  13.050
21681SOL     OW66939  14.801   2.386   7.603
21681SOL    HW166940  14.709   2.386   7.629
21681SOL    HW266941  14.838   2.463   7.647
21682SOL     OW66942   7.379   7.898   3.331
21682SOL    HW166943   7.420   7.820   3.293
21682SOL    HW266944   7.399   7.893   3.424
21683SOL     OW66945   6.942   8.928  13.381
21683SOL    HW166946   6.970   8.987  13.311
21683SOL    HW266947   6.885   8.865  13.338
21684SOL     OW66948  13.608   3.960  12.125
21684SOL    HW166949  13.568   4.046  12.112
21684SOL    HW266950  13.702   3.979  12.135
21685SOL     OW66951   1.660   4.891  12.291
21685SOL    HW166952   1.747   4.897  12.331
21685SOL    HW266953   1.649   4.799  12.270
21686SOL     OW66954   1.350   9.790  11.244
21686SOL    HW166955   1.372   9.719  11.305
21686SOL    HW266956   1.421   9.853  11.254
21687SOL     OW66957  13.083   2.566  14.597
21687SOL    HW166958  13.003   2.513  14.592
21687SOL    HW266959  13.056   2.646  14.641
21688SOL     OW66960   4.506   5.593   1.926
21688SOL    HW166961   4.598   5.620   1.920
21688SOL    HW266962   4.510   5.503   1.959
21689SOL     OW66963   7.012  10.721  13.027
21689SOL    HW166964   6.964  10.747  13.107
21689SOL    HW266965   6.943  10.699  12.964
21690SOL     OW66966   5.220   9.378  13.694
21690SOL    HW166967   5.217   9.367  13.789
21690SOL    HW266968   5.151   9.442  13.675
21691SOL     OW66969  10.851   3.027   7.522
21691SOL    HW166970  10.863   3.039   7.428
21691SOL    HW266971  10.893   3.104   7.561
21692SOL     OW66972   6.065  11.185   2.290
21692SOL    HW166973   6.142  11.152   2.336
21692SOL    HW266974   6.094  11.196   2.200
21693SOL     OW66975   8.307   6.508   9.079
21693SOL    HW166976   8.401   6.491   9.072
21693SOL    HW266977   8.301   6.599   9.108
21694SOL     OW66978   9.869   1.375   5.244
21694SOL    HW166979   9.953   1.401   5.281
21694SOL    HW266980   9.858   1.284   5.270
21695SOL     OW66981   8.895   0.183   7.971
21695SOL    HW166982   8.841   0.261   7.961
21695SOL    HW266983   8.969   0.196   7.913
21696SOL     OW66984   0.593   6.269  13.550
21696SOL    HW166985   0.632   6.202  13.494
21696SOL    HW266986   0.526   6.309  13.496
21697SOL     OW66987   4.905   0.940   0.438
21697SOL    HW166988   4.918   0.863   0.383
21697SOL    HW266989   4.960   1.007   0.397
21698SOL     OW66990   3.973   6.445  14.732
21698SOL    HW166991   4.009   6.532  14.713
21698SOL    HW266992   4.007   6.389  14.662
21699SOL     OW66993  13.255   9.078  10.216
21699SOL    HW166994  13.212   9.092  10.131
21699SOL    HW266995  13.200   9.012  10.259
21700SOL     OW66996  11.628   3.553   7.454
21700SOL    HW166997  11.699   3.612   7.478
21700SOL    HW266998  11.555   3.579   7.511
21701SOL     OW66999   0.528   4.485  12.872
21701SOL    HW167000   0.442   4.472  12.831
21701SOL    HW267001   0.590   4.482  12.799
21702SOL     OW67002   5.681  12.119   9.469
21702SOL    HW167003   5.645  12.154   9.388
21702SOL    HW267004   5.733  12.191   9.506
21703SOL     OW67005   3.095  14.343   1.065
21703SOL    HW167006   3.103  14.268   1.125
21703SOL    HW267007   3.049  14.309   0.989
21704SOL     OW67008   2.995   6.466   6.982
21704SOL    HW167009   2.979   6.559   6.996
21704SOL    HW267010   2.978   6.425   7.067
21705SOL     OW67011   8.091  13.413  11.990
21705SOL    HW167012   8.165  13.435  12.045
21705SOL    HW267013   8.050  13.497  11.969
21706SOL     OW67014  12.764   9.423   2.236
21706SOL    HW167015  12.704   9.402   2.164
21706SOL    HW267016  12.826   9.351   2.237
21707SOL     OW67017   3.109   3.945  14.423
21707SOL    HW167018   3.135   3.989  14.342
21707SOL    HW267019   3.079   3.858  14.396
21708SOL     OW67020   7.223   4.277   5.994
21708SOL    HW167021   7.277   4.229   5.931
21708SOL    HW267022   7.285   4.334   6.040
21709SOL     OW67023   6.581   1.737   0.249
21709SOL    HW167024   6.570   1.765   0.340
21709SOL    HW267025   6.504   1.682   0.231
21710SOL     OW67026   7.151   5.253   2.891
21710SOL    HW167027   7.222   5.225   2.833
21710SOL    HW267028   7.159   5.198   2.968
21711SOL     OW67029   5.551  14.258   5.366
21711SOL    HW167030   5.475  14.223   5.321
21711SOL    HW267031   5.519  14.281   5.453
21712SOL     OW67032  14.218   3.129   7.210
21712SOL    HW167033  14.277   3.054   7.218
21712SOL    HW267034  14.251   3.177   7.134
21713SOL     OW67035   6.203  12.547   6.003
21713SOL    HW167036   6.276  12.517   5.950
21713SOL    HW267037   6.230  12.633   6.036
21714SOL     OW67038   8.641   0.189   4.797
21714SOL    HW167039   8.602   0.102   4.803
21714SOL    HW267040   8.704   0.182   4.725
21715SOL     OW67041   5.357  10.943   4.029
21715SOL    HW167042   5.448  10.939   4.059
21715SOL    HW267043   5.337  10.854   4.001
21716SOL     OW67044  14.269   2.171  12.833
21716SOL    HW167045  14.208   2.157  12.760
21716SOL    HW267046  14.314   2.087  12.842
21717SOL     OW67047   7.007  11.864  13.719
21717SOL    HW167048   7.029  11.902  13.804
21717SOL    HW267049   6.911  11.868  13.714
21718SOL     OW67050   8.340   3.066  13.547
21718SOL    HW167051   8.278   3.108  13.488
21718SOL    HW267052   8.386   3.139  13.589
21719SOL     OW67053  13.157   5.935  10.104
21719SOL    HW167054  13.105   5.970  10.032
21719SOL    HW267055  13.156   6.003  10.171
21720SOL     OW67056   3.601   4.885  14.211
21720SOL    HW167057   3.508   4.904  14.223
21720SOL    HW267058   3.602   4.797  14.172
21721SOL     OW67059   9.680  11.363   7.265
21721SOL    HW167060   9.706  11.452   7.289
21721SOL    HW267061   9.760  11.322   7.232
21722SOL     OW67062   2.290  14.012   4.837
21722SOL    HW167063   2.248  14.025   4.922
21722SOL    HW267064   2.347  13.936   4.850
21723SOL     OW67065   9.613   4.516  11.705
21723SOL    HW167066   9.691   4.564  11.732
21723SOL    HW267067   9.608   4.530  11.610
21724SOL     OW67068   5.252  10.843   7.359
21724SOL    HW167069   5.202  10.921   7.384
21724SOL    HW267070   5.335  10.851   7.405
21725SOL     OW67071  12.545  10.690  10.380
21725SOL    HW167072  12.517  10.732  10.462
21725SOL    HW267073  12.586  10.608  10.408
21726SOL     OW67074  11.846  12.984  13.882
21726SOL    HW167075  11.882  13.068  13.911
21726SOL    HW267076  11.841  12.992  13.787
21727SOL     OW67077   5.533   9.799   9.560
21727SOL    HW167078   5.583   9.807   9.641
21727SOL    HW267079   5.590   9.748   9.502
21728SOL     OW67080   8.272  11.635   3.138
21728SOL    HW167081   8.221  11.711   3.166
21728SOL    HW267082   8.338  11.624   3.207
21729SOL     OW67083   6.888   7.260   6.558
21729SOL    HW167084   6.803   7.226   6.528
21729SOL    HW267085   6.912   7.326   6.493
21730SOL     OW67086  10.316  11.183  11.467
21730SOL    HW167087  10.261  11.169  11.544
21730SOL    HW267088  10.254  11.184  11.394
21731SOL     OW67089   9.614   3.561   2.316
21731SOL    HW167090   9.644   3.652   2.305
21731SOL    HW267091   9.693   3.513   2.338
21732SOL     OW67092   9.038   2.579   9.843
21732SOL    HW167093   8.998   2.552   9.926
21732SOL    HW267094   8.993   2.661   9.821
21733SOL     OW67095   7.898   1.827  10.312
21733SOL    HW167096   7.920   1.862  10.226
21733SOL    HW267097   7.873   1.736  10.295
21734SOL     OW67098   7.669  14.362  12.926
21734SOL    HW167099   7.647  14.367  13.019
21734SOL    HW267100   7.587  14.340  12.883
21735SOL     OW67101   5.697   6.808   9.371
21735SOL    HW167102   5.678   6.814   9.277
21735SOL    HW267103   5.701   6.899   9.400
21736SOL     OW67104  11.562   2.996   6.153
21736SOL    HW167105  11.611   3.065   6.197
21736SOL    HW267106  11.518   2.950   6.224
21737SOL     OW67107   7.510  12.734   8.704
21737SOL    HW167108   7.479  12.723   8.614
21737SOL    HW267109   7.437  12.775   8.750
21738SOL     OW67110  13.003   1.577   5.054
21738SOL    HW167111  13.026   1.670   5.053
21738SOL    HW267112  13.076   1.534   5.009
21739SOL     OW67113  10.199   5.600   0.017
21739SOL    HW167114  10.156   5.674   0.060
21739SOL    HW267115  10.129   5.560  14.847
21740SOL     OW67116  13.495  10.288  11.140
21740SOL    HW167117  13.458  10.201  11.123
21740SOL    HW267118  13.585  10.282  11.107
21741SOL     OW67119  12.967   3.957   8.750
21741SOL    HW167120  13.010   4.020   8.693
21741SOL    HW267121  12.914   4.010   8.810
21742SOL     OW67122  11.874   3.650   5.230
21742SOL    HW167123  11.798   3.660   5.287
21742SOL    HW267124  11.872   3.727   5.173
21743SOL     OW67125  10.523  13.707   4.762
21743SOL    HW167126  10.595  13.650   4.737
21743SOL    HW267127  10.519  13.701   4.857
21744SOL     OW67128   7.767   1.784   8.766
21744SOL    HW167129   7.725   1.791   8.680
21744SOL    HW267130   7.848   1.834   8.757
21745SOL     OW67131   1.528   0.807   9.508
21745SOL    HW167132   1.576   0.842   9.433
21745SOL    HW267133   1.570   0.846   9.585
21746SOL     OW67134  10.816   3.808   6.145
21746SOL    HW167135  10.748   3.862   6.186
21746SOL    HW267136  10.844   3.748   6.215
21747SOL     OW67137   8.445   4.738  14.609
21747SOL    HW167138   8.424   4.803  14.676
21747SOL    HW267139   8.461   4.658  14.659
21748SOL     OW67140  12.045   3.421   6.581
21748SOL    HW167141  12.135   3.414   6.549
21748SOL    HW267142  12.050   3.485   6.651
21749SOL     OW67143   8.748   6.397  11.383
21749SOL    HW167144   8.781   6.481  11.414
21749SOL    HW267145   8.677   6.375  11.444
21750SOL     OW67146  11.644  12.123   5.642
21750SOL    HW167147  11.652  12.066   5.566
21750SOL    HW267148  11.570  12.181   5.621
21751SOL     OW67149   1.471   8.014   8.610
21751SOL    HW167150   1.431   8.095   8.578
21751SOL    HW267151   1.398   7.965   8.649
21752SOL     OW67152  13.891   6.614   8.183
21752SOL    HW167153  13.904   6.534   8.131
21752SOL    HW267154  13.820   6.660   8.139
21753SOL     OW67155   0.161  10.132  14.882
21753SOL    HW167156   0.251  10.161   0.011
21753SOL    HW267157   0.137  10.095   0.085
21754SOL     OW67158   6.141   3.304   2.959
21754SOL    HW167159   6.055   3.271   2.983
21754SOL    HW267160   6.189   3.309   3.042
21755SOL     OW67161   5.438   0.666   6.334
21755SOL    HW167162   5.486   0.605   6.279
21755SOL    HW267163   5.348   0.634   6.333
21756SOL     OW67164  12.138  12.598   6.501
21756SOL    HW167165  12.162  12.690   6.515
21756SOL    HW267166  12.042  12.599   6.503
21757SOL     OW67167   1.544   9.875   3.029
21757SOL    HW167168   1.525   9.905   2.940
21757SOL    HW267169   1.465   9.898   3.079
21758SOL     OW67170   4.131   4.847   0.901
21758SOL    HW167171   4.152   4.927   0.950
21758SOL    HW267172   4.052   4.814   0.943
21759SOL     OW67173   1.725  11.325   6.707
21759SOL    HW167174   1.767  11.310   6.623
21759SOL    HW267175   1.708  11.237   6.742
21760SOL     OW67176   1.043  13.826  13.256
21760SOL    HW167177   1.055  13.836  13.350
21760SOL    HW267178   1.132  13.824  13.220
21761SOL     OW67179   1.538   1.817   9.618
21761SOL    HW167180   1.476   1.745   9.608
21761SOL    HW267181   1.566   1.812   9.709
21762SOL     OW67182  11.299  13.734  13.983
21762SOL    HW167183  11.310  13.825  13.955
21762SOL    HW267184  11.278  13.687  13.902
21763SOL     OW67185   0.681  11.207   2.528
21763SOL    HW167186   0.765  11.238   2.563
21763SOL    HW267187   0.654  11.276   2.467
21764SOL     OW67188   9.265   7.075   0.825
21764SOL    HW167189   9.344   7.023   0.840
21764SOL    HW267190   9.287   7.162   0.857
21765SOL     OW67191  13.660  11.163   7.895
21765SOL    HW167192  13.684  11.176   7.987
21765SOL    HW267193  13.595  11.094   7.897
21766SOL     OW67194   6.862   2.099   3.163
21766SOL    HW167195   6.806   2.176   3.154
21766SOL    HW267196   6.813   2.029   3.121
21767SOL     OW67197  11.746   9.937   3.100
21767SOL    HW167198  11.761   9.848   3.132
21767SOL    HW267199  11.812   9.990   3.143
21768SOL     OW67200   7.269   7.095  10.261
21768SOL    HW167201   7.341   7.075  10.320
21768SOL    HW267202   7.259   7.017  10.207
21769SOL     OW67203   5.682   3.069  11.067
21769SOL    HW167204   5.715   3.122  11.140
21769SOL    HW267205   5.707   3.118  10.989
21770SOL     OW67206   6.498   5.629  14.429
21770SOL    HW167207   6.523   5.648  14.339
21770SOL    HW267208   6.403   5.629  14.428
21771SOL     OW67209   4.652   7.462  11.791
21771SOL    HW167210   4.632   7.503  11.875
21771SOL    HW267211   4.604   7.379  11.793
21772SOL     OW67212  14.198   4.183   7.084
21772SOL    HW167213  14.260   4.188   7.157
21772SOL    HW267214  14.136   4.115   7.110
21773SOL     OW67215  10.722  12.235   5.386
21773SOL    HW167216  10.679  12.150   5.396
21773SOL    HW267217  10.675  12.293   5.446
21774SOL     OW67218   3.227   5.947   7.540
21774SOL    HW167219   3.250   6.029   7.583
21774SOL    HW267220   3.310   5.902   7.528
21775SOL     OW67221  12.609   5.591   6.754
21775SOL    HW167222  12.559   5.663   6.793
21775SOL    HW267223  12.653   5.549   6.827
21776SOL     OW67224   6.855   7.964   2.031
21776SOL    HW167225   6.877   8.044   2.080
21776SOL    HW267226   6.760   7.958   2.036
21777SOL     OW67227   6.410  12.425   8.710
21777SOL    HW167228   6.362  12.361   8.657
21777SOL    HW267229   6.360  12.431   8.792
21778SOL     OW67230   6.284  10.370  10.988
21778SOL    HW167231   6.365  10.323  11.004
21778SOL    HW267232   6.281  10.437  11.057
21779SOL     OW67233  13.418  13.624   0.928
21779SOL    HW167234  13.510  13.597   0.929
21779SOL    HW267235  13.420  13.719   0.933
21780SOL     OW67236   9.893  14.047   9.885
21780SOL    HW167237   9.869  13.956   9.865
21780SOL    HW267238   9.840  14.099   9.825
21781SOL     OW67239  14.811   9.675   0.805
21781SOL    HW167240  14.835   9.690   0.713
21781SOL    HW267241   0.010   9.645   0.846
21782SOL     OW67242  13.317   1.884  10.325
21782SOL    HW167243  13.272   1.890  10.241
21782SOL    HW267244  13.319   1.974  10.357
21783SOL     OW67245   7.875   9.927   8.089
21783SOL    HW167246   7.840   9.890   8.170
21783SOL    HW267247   7.918  10.008   8.116
21784SOL     OW67248   5.854  14.800  12.398
21784SOL    HW167249   5.785  14.859  12.426
21784SOL    HW267250   5.813  14.713  12.396
21785SOL     OW67251   2.109   6.192   4.989
21785SOL    HW167252   2.062   6.110   5.002
21785SOL    HW267253   2.049   6.246   4.936
21786SOL     OW67254  14.175   8.278   9.733
21786SOL    HW167255  14.107   8.278   9.800
21786SOL    HW267256  14.127   8.284   9.650
21787SOL     OW67257   6.046   0.837   8.436
21787SOL    HW167258   6.044   0.751   8.478
21787SOL    HW267259   6.138   0.864   8.443
21788SOL     OW67260   6.662   4.971   5.841
21788SOL    HW167261   6.704   4.982   5.756
21788SOL    HW267262   6.585   5.027   5.837
21789SOL     OW67263   9.807   9.609   3.943
21789SOL    HW167264   9.876   9.562   3.895
21789SOL    HW267265   9.764   9.541   3.995
21790SOL     OW67266  11.281   1.719  13.126
21790SOL    HW167267  11.219   1.667  13.178
21790SOL    HW267268  11.345   1.654  13.095
21791SOL     OW67269   0.109   4.916  13.140
21791SOL    HW167270   0.035   4.976  13.134
21791SOL    HW267271   0.181   4.964  13.099
21792SOL     OW67272   8.956   6.042  14.825
21792SOL    HW167273   8.889   6.001  14.878
21792SOL    HW267274   8.914   6.120  14.788
21793SOL     OW67275   1.848  13.023   8.474
21793SOL    HW167276   1.885  12.992   8.556
21793SOL    HW267277   1.924  13.042   8.418
21794SOL     OW67278   7.248   6.682   6.687
21794SOL    HW167279   7.309   6.708   6.756
21794SOL    HW267280   7.234   6.762   6.636
21795SOL     OW67281   2.268   6.969  13.798
21795SOL    HW167282   2.348   7.001  13.839
21795SOL    HW267283   2.273   6.999  13.707
21796SOL     OW67284   7.291   1.757  14.120
21796SOL    HW167285   7.208   1.714  14.139
21796SOL    HW267286   7.311   1.806  14.200
21797SOL     OW67287   0.506  13.996  11.901
21797SOL    HW167288   0.591  14.033  11.924
21797SOL    HW267289   0.500  14.008  11.806
21798SOL     OW67290  10.519   7.458   7.434
21798SOL    HW167291  10.511   7.518   7.360
21798SOL    HW267292  10.611   7.466   7.462
21799SOL     OW67293   5.286   0.407  14.628
21799SOL    HW167294   5.265   0.476  14.691
21799SOL    HW267295   5.288   0.327  14.680
21800SOL     OW67296   9.066   7.066   2.737
21800SOL    HW167297   9.021   6.993   2.780
21800SOL    HW267298   9.063   7.045   2.644
21801SOL     OW67299  14.193   1.213   4.018
21801SOL    HW167300  14.267   1.246   3.967
21801SOL    HW267301  14.192   1.119   4.002
21802SOL     OW67302   3.246  14.768   2.992
21802SOL    HW167303   3.329  14.815   3.000
21802SOL    HW267304   3.261  14.686   3.040
21803SOL     OW67305   5.460   8.345   7.683
21803SOL    HW167306   5.478   8.286   7.609
21803SOL    HW267307   5.365   8.353   7.684
21804SOL     OW67308   6.449  11.107  12.411
21804SOL    HW167309   6.447  11.196  12.446
21804SOL    HW267310   6.509  11.059  12.469
21805SOL     OW67311   1.035  12.158   8.317
21805SOL    HW167312   1.019  12.139   8.409
21805SOL    HW267313   0.973  12.103   8.269
21806SOL     OW67314   1.220   0.917  11.890
21806SOL    HW167315   1.253   0.928  11.801
21806SOL    HW267316   1.298   0.898  11.942
21807SOL     OW67317  12.514   2.651   9.660
21807SOL    HW167318  12.599   2.614   9.683
21807SOL    HW267319  12.519   2.667   9.565
21808SOL     OW67320   6.219  11.107   0.699
21808SOL    HW167321   6.226  11.093   0.604
21808SOL    HW267322   6.283  11.175   0.718
21809SOL     OW67323   7.110   1.135   7.198
21809SOL    HW167324   7.163   1.183   7.134
21809SOL    HW267325   7.167   1.064   7.228
21810SOL     OW67326   9.940   0.990  11.798
21810SOL    HW167327   9.965   0.922  11.861
21810SOL    HW267328   9.929   1.069  11.851
21811SOL     OW67329   8.539   0.149   4.378
21811SOL    HW167330   8.488   0.223   4.410
21811SOL    HW267331   8.562   0.174   4.288
21812SOL     OW67332   4.179   7.692   4.657
21812SOL    HW167333   4.179   7.788   4.653
21812SOL    HW267334   4.088   7.669   4.675
21813SOL     OW67335  13.999   1.078   0.066
21813SOL    HW167336  13.936   1.009   0.045
21813SOL    HW267337  13.949   1.159   0.058
21814SOL     OW67338   2.421   2.618   7.741
21814SOL    HW167339   2.507   2.598   7.706
21814SOL    HW267340   2.416   2.569   7.823
21815SOL     OW67341   4.458   5.261  10.305
21815SOL    HW167342   4.460   5.234  10.397
21815SOL    HW267343   4.366   5.250  10.280
21816SOL     OW67344   9.150   9.158   3.097
21816SOL    HW167345   9.055   9.147   3.087
21816SOL    HW267346   9.184   9.069   3.103
21817SOL     OW67347   3.013   5.271  12.569
21817SOL    HW167348   2.973   5.211  12.632
21817SOL    HW267349   2.987   5.358  12.598
21818SOL     OW67350   1.780  13.629   0.967
21818SOL    HW167351   1.854  13.670   1.012
21818SOL    HW267352   1.749  13.562   1.028
21819SOL     OW67353   4.265   5.937   1.379
21819SOL    HW167354   4.310   5.854   1.395
21819SOL    HW267355   4.215   5.922   1.298
21820SOL     OW67356   4.600   6.319  13.153
21820SOL    HW167357   4.636   6.346  13.237
21820SOL    HW267358   4.533   6.385  13.132
21821SOL     OW67359   8.120  11.535  14.376
21821SOL    HW167360   8.073  11.614  14.352
21821SOL    HW267361   8.132  11.488  14.294
21822SOL     OW67362   7.563   0.347   9.891
21822SOL    HW167363   7.627   0.413   9.863
21822SOL    HW267364   7.616   0.276   9.928
21823SOL     OW67365  13.696   7.760   0.148
21823SOL    HW167366  13.704   7.669   0.120
21823SOL    HW267367  13.605   7.783   0.127
21824SOL     OW67368  12.110  13.427   7.364
21824SOL    HW167369  12.186  13.368   7.365
21824SOL    HW267370  12.140  13.504   7.317
21825SOL     OW67371   4.829  10.403   6.580
21825SOL    HW167372   4.804  10.379   6.669
21825SOL    HW267373   4.845  10.498   6.584
21826SOL     OW67374  13.944  13.395   2.085
21826SOL    HW167375  13.884  13.321   2.076
21826SOL    HW267376  13.935  13.442   2.002
21827SOL     OW67377   1.551   2.726   2.712
21827SOL    HW167378   1.457   2.742   2.718
21827SOL    HW267379   1.558   2.636   2.678
21828SOL     OW67380   6.091   8.669  10.771
21828SOL    HW167381   6.172   8.713  10.748
21828SOL    HW267382   6.050   8.726  10.836
21829SOL     OW67383  14.543   9.308  11.933
21829SOL    HW167384  14.618   9.284  11.987
21829SOL    HW267385  14.555   9.260  11.851
21830SOL     OW67386   3.350   7.133  11.603
21830SOL    HW167387   3.409   7.186  11.550
21830SOL    HW267388   3.363   7.165  11.692
21831SOL     OW67389  10.530  12.083   7.001
21831SOL    HW167390  10.529  12.073   6.906
21831SOL    HW267391  10.557  12.174   7.015
21832SOL     OW67392  11.830   5.624  13.234
21832SOL    HW167393  11.857   5.543  13.278
21832SOL    HW267394  11.753   5.653  13.283
21833SOL     OW67395  13.776  12.755  14.002
21833SOL    HW167396  13.833  12.734  14.076
21833SOL    HW267397  13.704  12.804  14.041
21834SOL     OW67398  14.833   9.552   2.187
21834SOL    HW167399  14.822   9.518   2.098
21834SOL    HW267400  14.842   9.646   2.176
21835SOL     OW67401   0.285  10.246   9.423
21835SOL    HW167402   0.258  10.253   9.514
21835SOL    HW267403   0.308  10.336   9.398
21836SOL     OW67404  13.809   1.504  10.216
21836SOL    HW167405  13.732   1.466  10.260
21836SOL    HW267406  13.773   1.545  10.138
21837SOL     OW67407   2.466   4.944   7.864
21837SOL    HW167408   2.536   4.923   7.926
21837SOL    HW267409   2.465   4.870   7.803
21838SOL     OW67410   3.581   5.757   7.126
21838SOL    HW167411   3.492   5.791   7.119
21838SOL    HW267412   3.625   5.818   7.184
21839SOL     OW67413   0.533   1.283  11.462
21839SOL    HW167414   0.593   1.262  11.391
21839SOL    HW267415   0.551   1.374  11.484
21840SOL     OW67416   9.197   8.330  12.930
21840SOL    HW167417   9.252   8.407  12.922
21840SOL    HW267418   9.212   8.298  13.019
21841SOL     OW67419   6.091   0.934   4.847
21841SOL    HW167420   6.124   0.848   4.872
21841SOL    HW267421   5.999   0.918   4.822
21842SOL     OW67422   5.086  10.155   9.432
21842SOL    HW167423   5.068  10.119   9.346
21842SOL    HW267424   5.035  10.100   9.492
21843SOL     OW67425  12.000   6.832  10.937
21843SOL    HW167426  12.093   6.826  10.961
21843SOL    HW267427  11.994   6.914  10.888
21844SOL     OW67428   3.729   1.248   6.029
21844SOL    HW167429   3.726   1.153   6.015
21844SOL    HW267430   3.777   1.282   5.954
21845SOL     OW67431  10.458   1.790  13.637
21845SOL    HW167432  10.453   1.876  13.680
21845SOL    HW267433  10.426   1.805  13.549
21846SOL     OW67434   1.148   6.250  14.830
21846SOL    HW167435   1.110   6.215   0.028
21846SOL    HW267436   1.145   6.176  14.769
21847SOL     OW67437   6.543   1.877   9.652
21847SOL    HW167438   6.473   1.896   9.715
21847SOL    HW267439   6.623   1.876   9.705
21848SOL     OW67440  14.731   4.726  13.480
21848SOL    HW167441  14.687   4.795  13.530
21848SOL    HW267442  14.824   4.735  13.502
21849SOL     OW67443   1.518   3.609  12.140
21849SOL    HW167444   1.478   3.523  12.125
21849SOL    HW267445   1.612   3.593  12.133
21850SOL     OW67446   2.924  14.624  13.625
21850SOL    HW167447   2.943  14.704  13.575
21850SOL    HW267448   2.831  14.608  13.609
21851SOL     OW67449   8.476   2.655   2.422
21851SOL    HW167450   8.537   2.604   2.474
21851SOL    HW267451   8.423   2.702   2.487
21852SOL     OW67452   7.208  13.643   9.337
21852SOL    HW167453   7.171  13.712   9.282
21852SOL    HW267454   7.282  13.609   9.286
21853SOL     OW67455   4.492   7.961  10.496
21853SOL    HW167456   4.522   8.014  10.422
21853SOL    HW267457   4.397   7.975  10.499
21854SOL     OW67458   7.077   8.872   9.728
21854SOL    HW167459   7.168   8.894   9.709
21854SOL    HW267460   7.082   8.803   9.794
21855SOL     OW67461  11.114  14.776  14.760
21855SOL    HW167462  11.045  14.751  14.698
21855SOL    HW267463  11.087  14.862  14.792
21856SOL     OW67464   3.793   7.820   9.608
21856SOL    HW167465   3.823   7.793   9.522
21856SOL    HW267466   3.697   7.825   9.599
21857SOL     OW67467   6.568   6.850   6.810
21857SOL    HW167468   6.542   6.930   6.764
21857SOL    HW267469   6.514   6.849   6.889
21858SOL     OW67470  11.605   7.040   6.565
21858SOL    HW167471  11.692   7.069   6.539
21858SOL    HW267472  11.575   6.986   6.491
21859SOL     OW67473  12.042   6.263   8.208
21859SOL    HW167474  12.136   6.274   8.223
21859SOL    HW267475  12.011   6.214   8.285
21860SOL     OW67476   3.761   2.854   4.795
21860SOL    HW167477   3.856   2.863   4.797
21860SOL    HW267478   3.743   2.777   4.850
21861SOL     OW67479  11.423   6.175   8.357
21861SOL    HW167480  11.378   6.250   8.317
21861SOL    HW267481  11.391   6.099   8.309
21862SOL     OW67482   4.328   6.642   7.307
21862SOL    HW167483   4.322   6.737   7.301
21862SOL    HW267484   4.360   6.626   7.396
21863SOL     OW67485  13.207   7.346   3.327
21863SOL    HW167486  13.259   7.361   3.249
21863SOL    HW267487  13.202   7.250   3.335
21864SOL     OW67488  11.366   2.874   1.267
21864SOL    HW167489  11.272   2.895   1.273
21864SOL    HW267490  11.394   2.862   1.357
21865SOL     OW67491   8.557   0.866   9.667
21865SOL    HW167492   8.470   0.830   9.688
21865SOL    HW267493   8.606   0.791   9.634
21866SOL     OW67494   8.213   4.242   9.951
21866SOL    HW167495   8.180   4.326   9.918
21866SOL    HW267496   8.217   4.253  10.046
21867SOL     OW67497   7.755   2.686   4.631
21867SOL    HW167498   7.669   2.690   4.589
21867SOL    HW267499   7.813   2.732   4.570
21868SOL     OW67500   0.708  12.959  13.298
21868SOL    HW167501   0.773  12.889  13.287
21868SOL    HW267502   0.653  12.930  13.370
21869SOL     OW67503   3.819   5.283   1.334
21869SOL    HW167504   3.860   5.267   1.249
21869SOL    HW267505   3.878   5.240   1.396
21870SOL     OW67506   8.602   2.697  13.552
21870SOL    HW167507   8.691   2.708  13.517
21870SOL    HW267508   8.579   2.606  13.532
21871SOL     OW67509   1.861   4.857   5.841
21871SOL    HW167510   1.767   4.844   5.828
21871SOL    HW267511   1.869   4.945   5.878
21872SOL     OW67512  10.731   2.069   6.015
21872SOL    HW167513  10.688   1.987   5.992
21872SOL    HW267514  10.820   2.043   6.040
21873SOL     OW67515   5.320  10.796   5.320
21873SOL    HW167516   5.230  10.789   5.290
21873SOL    HW267517   5.321  10.871   5.379
21874SOL     OW67518  13.491   0.564  13.636
21874SOL    HW167519  13.576   0.524  13.622
21874SOL    HW267520  13.483   0.630  13.567
21875SOL     OW67521   8.019   8.446   9.179
21875SOL    HW167522   7.994   8.476   9.267
21875SOL    HW267523   7.935   8.431   9.135
21876SOL     OW67524  11.233   6.470   8.797
21876SOL    HW167525  11.262   6.560   8.812
21876SOL    HW267526  11.142   6.479   8.771
21877SOL     OW67527   8.209   0.035   4.311
21877SOL    HW167528   8.259  14.839   4.336
21877SOL    HW267529   8.271   0.107   4.319
21878SOL     OW67530   6.128   6.640  14.806
21878SOL    HW167531   6.110   6.585  14.729
21878SOL    HW267532   6.216   6.674  14.791
21879SOL     OW67533   2.322   9.752  11.228
21879SOL    HW167534   2.265   9.697  11.282
21879SOL    HW267535   2.379   9.796  11.291
21880SOL     OW67536   4.663  10.453  10.162
21880SOL    HW167537   4.680  10.529  10.217
21880SOL    HW267538   4.567  10.445  10.162
21881SOL     OW67539   2.725   6.613   0.029
21881SOL    HW167540   2.769   6.603   0.113
21881SOL    HW267541   2.709   6.524  14.881
21882SOL     OW67542  11.317  14.565   6.648
21882SOL    HW167543  11.267  14.527   6.576
21882SOL    HW267544  11.409  14.552   6.623
21883SOL     OW67545   9.299   6.511  13.517
21883SOL    HW167546   9.269   6.602  13.525
21883SOL    HW267547   9.289   6.475  13.605
21884SOL     OW67548   4.108  12.280   0.298
21884SOL    HW167549   4.064  12.207   0.342
21884SOL    HW267550   4.079  12.357   0.346
21885SOL     OW67551   1.857  13.097   0.863
21885SOL    HW167552   1.945  13.087   0.902
21885SOL    HW267553   1.870  13.162   0.793
21886SOL     OW67554   8.481  12.432   9.621
21886SOL    HW167555   8.428  12.352   9.611
21886SOL    HW267556   8.527  12.420   9.704
21887SOL     OW67557  10.047   9.065   1.374
21887SOL    HW167558  10.084   8.996   1.428
21887SOL    HW267559  10.112   9.080   1.305
21888SOL     OW67560   0.345   7.539   4.319
21888SOL    HW167561   0.398   7.595   4.376
21888SOL    HW267562   0.263   7.587   4.308
21889SOL     OW67563   2.391  12.797   3.141
21889SOL    HW167564   2.424  12.843   3.064
21889SOL    HW267565   2.443  12.717   3.146
21890SOL     OW67566   2.451   9.366   5.706
21890SOL    HW167567   2.404   9.351   5.624
21890SOL    HW267568   2.411   9.305   5.768
21891SOL     OW67569   0.870  10.296   2.563
21891SOL    HW167570   0.912  10.210   2.563
21891SOL    HW267571   0.924  10.348   2.503
21892SOL     OW67572  12.737   7.941   7.315
21892SOL    HW167573  12.776   7.956   7.229
21892SOL    HW267574  12.732   8.028   7.354
21893SOL     OW67575   3.897   4.610   5.387
21893SOL    HW167576   3.898   4.541   5.453
21893SOL    HW267577   3.818   4.594   5.335
21894SOL     OW67578   9.498   7.917  10.867
21894SOL    HW167579   9.521   7.888  10.956
21894SOL    HW267580   9.403   7.925  10.869
21895SOL     OW67581   3.999   3.017   6.308
21895SOL    HW167582   3.975   2.928   6.331
21895SOL    HW267583   3.947   3.037   6.230
21896SOL     OW67584  14.772  12.737  14.362
21896SOL    HW167585  14.773  12.688  14.280
21896SOL    HW267586  14.685  12.777  14.364
21897SOL     OW67587   7.479  13.369  14.179
21897SOL    HW167588   7.428  13.358  14.259
21897SOL    HW267589   7.570  13.358  14.207
21898SOL     OW67590  13.874   2.897   2.661
21898SOL    HW167591  13.865   2.918   2.754
21898SOL    HW267592  13.892   2.982   2.619
21899SOL     OW67593   4.530  14.066   2.544
21899SOL    HW167594   4.445  14.025   2.559
21899SOL    HW267595   4.594  13.996   2.554
21900SOL     OW67596  10.496   7.127   7.238
21900SOL    HW167597  10.479   7.155   7.149
21900SOL    HW267598  10.587   7.096   7.238
21901SOL     OW67599   1.325   2.556   3.672
21901SOL    HW167600   1.420   2.556   3.669
21901SOL    HW267601   1.300   2.640   3.632
21902SOL     OW67602  11.033  11.982   5.638
21902SOL    HW167603  11.012  11.892   5.661
21902SOL    HW267604  11.115  12.000   5.684
21903SOL     OW67605   5.472   9.583   0.997
21903SOL    HW167606   5.550   9.532   1.019
21903SOL    HW267607   5.444   9.622   1.080
21904SOL     OW67608   9.705  11.213   9.855
21904SOL    HW167609   9.713  11.137   9.913
21904SOL    HW267610   9.642  11.185   9.788
21905SOL     OW67611   8.624  12.228   6.674
21905SOL    HW167612   8.707  12.277   6.669
21905SOL    HW267613   8.575  12.257   6.597
21906SOL     OW67614  14.841   2.688   0.713
21906SOL    HW167615   0.017   2.680   0.637
21906SOL    HW267616  14.875   2.764   0.761
21907SOL     OW67617   9.891  11.644   5.380
21907SOL    HW167618   9.909  11.671   5.289
21907SOL    HW267619   9.926  11.716   5.433
21908SOL     OW67620   2.118   5.743   9.220
21908SOL    HW167621   2.165   5.668   9.256
21908SOL    HW267622   2.135   5.739   9.126
21909SOL     OW67623   8.226   6.766   6.485
21909SOL    HW167624   8.227   6.810   6.400
21909SOL    HW267625   8.241   6.836   6.549
21910SOL     OW67626   4.017   6.801   0.048
21910SOL    HW167627   4.033   6.826   0.139
21910SOL    HW267628   3.944   6.740   0.053
21911SOL     OW67629   2.916  12.379   9.848
21911SOL    HW167630   2.933  12.317   9.777
21911SOL    HW267631   2.941  12.333   9.928
21912SOL     OW67632  10.150   3.285  12.003
21912SOL    HW167633  10.127   3.369  11.961
21912SOL    HW267634  10.210   3.243  11.941
21913SOL     OW67635   8.463  13.806   3.804
21913SOL    HW167636   8.445  13.714   3.820
21913SOL    HW267637   8.382  13.840   3.765
21914SOL     OW67638   6.842   0.534  10.916
21914SOL    HW167639   6.771   0.504  10.859
21914SOL    HW267640   6.841   0.630  10.907
21915SOL     OW67641   9.151  11.017   8.751
21915SOL    HW167642   9.163  10.997   8.658
21915SOL    HW267643   9.064  11.057   8.756
21916SOL     OW67644   4.629   2.632   8.069
21916SOL    HW167645   4.613   2.725   8.085
21916SOL    HW267646   4.684   2.604   8.142
21917SOL     OW67647   3.067  13.273  14.608
21917SOL    HW167648   3.041  13.361  14.580
21917SOL    HW267649   3.034  13.266  14.698
21918SOL     OW67650   3.227  11.114   3.096
21918SOL    HW167651   3.159  11.059   3.056
21918SOL    HW267652   3.215  11.104   3.190
21919SOL     OW67653   9.480  14.423   0.827
21919SOL    HW167654   9.506  14.510   0.796
21919SOL    HW267655   9.424  14.389   0.757
21920SOL     OW67656  10.015  10.337   3.499
21920SOL    HW167657   9.933  10.332   3.549
21920SOL    HW267658  10.083  10.347   3.565
21921SOL     OW67659   5.911   7.684  11.148
21921SOL    HW167660   5.906   7.698  11.243
21921SOL    HW267661   5.997   7.644  11.134
21922SOL     OW67662   9.720   8.733   9.518
21922SOL    HW167663   9.805   8.690   9.506
21922SOL    HW267664   9.688   8.750   9.430
21923SOL     OW67665   0.214   3.416   3.943
21923SOL    HW167666   0.125   3.415   3.977
21923SOL    HW267667   0.256   3.339   3.983
21924SOL     OW67668   7.289  13.075   5.285
21924SOL    HW167669   7.300  13.078   5.380
21924SOL    HW267670   7.272  12.982   5.266
21925SOL     OW67671   4.096  14.340   2.904
21925SOL    HW167672   4.050  14.271   2.857
21925SOL    HW267673   4.147  14.386   2.838
21926SOL     OW67674  13.672   2.886   9.165
21926SOL    HW167675  13.701   2.976   9.153
21926SOL    HW267676  13.701   2.841   9.085
21927SOL     OW67677   1.811   8.990  13.571
21927SOL    HW167678   1.883   8.979  13.632
21927SOL    HW267679   1.787   8.901  13.545
21928SOL     OW67680   4.954   6.702   4.392
21928SOL    HW167681   4.883   6.724   4.453
21928SOL    HW267682   4.915   6.637   4.333
21929SOL     OW67683   6.647   6.290  14.482
21929SOL    HW167684   6.718   6.226  14.475
21929SOL    HW267685   6.584   6.262  14.416
21930SOL     OW67686   8.735  10.225  14.521
21930SOL    HW167687   8.704  10.159  14.583
21930SOL    HW267688   8.656  10.252  14.473
21931SOL     OW67689  14.391   7.966   1.717
21931SOL    HW167690  14.355   7.914   1.789
21931SOL    HW267691  14.379   8.057   1.744
21932SOL     OW67692   7.653   9.973  11.695
21932SOL    HW167693   7.566   9.989  11.733
21932SOL    HW267694   7.636   9.918  11.618
21933SOL     OW67695  14.421  14.299   2.460
21933SOL    HW167696  14.514  14.318   2.449
21933SOL    HW267697  14.420  14.215   2.506
21934SOL     OW67698  14.408   7.557  14.050
21934SOL    HW167699  14.402   7.652  14.061
21934SOL    HW267700  14.332   7.522  14.096
21935SOL     OW67701  11.364  10.896  10.018
21935SOL    HW167702  11.362  10.863   9.928
21935SOL    HW267703  11.345  10.819  10.072
21936SOL     OW67704   1.742   3.770  11.353
21936SOL    HW167705   1.648   3.769  11.337
21936SOL    HW267706   1.753   3.825  11.430
21937SOL     OW67707  12.646  12.006   7.137
21937SOL    HW167708  12.566  11.969   7.175
21937SOL    HW267709  12.680  11.936   7.081
21938SOL     OW67710   4.474   1.201  12.179
21938SOL    HW167711   4.548   1.175  12.233
21938SOL    HW267712   4.427   1.120  12.162
21939SOL     OW67713   0.309   3.607  13.978
21939SOL    HW167714   0.270   3.619  13.892
21939SOL    HW267715   0.404   3.614  13.963
21940SOL     OW67716   5.869  12.840   7.957
21940SOL    HW167717   5.798  12.840   7.893
21940SOL    HW267718   5.908  12.927   7.950
21941SOL     OW67719   9.914   2.734   3.900
21941SOL    HW167720   9.989   2.776   3.856
21941SOL    HW267721   9.850   2.805   3.910
21942SOL     OW67722  14.696   2.395   9.869
21942SOL    HW167723  14.746   2.323   9.908
21942SOL    HW267724  14.740   2.413   9.786
21943SOL     OW67725  12.045  10.247   5.643
21943SOL    HW167726  11.967  10.196   5.660
21943SOL    HW267727  12.112  10.211   5.701
21944SOL     OW67728   5.056  11.365  14.878
21944SOL    HW167729   5.021  11.309   0.065
21944SOL    HW267730   5.041  11.454   0.028
21945SOL     OW67731   6.763   3.722   5.328
21945SOL    HW167732   6.691   3.740   5.268
21945SOL    HW267733   6.721   3.677   5.402
21946SOL     OW67734   8.437  10.114   0.067
21946SOL    HW167735   8.416  10.169  14.874
21946SOL    HW267736   8.356  10.068   0.087
21947SOL     OW67737   4.925   7.867  10.429
21947SOL    HW167738   4.974   7.785  10.436
21947SOL    HW267739   4.860   7.862  10.499
21948SOL     OW67740  13.467  13.074  12.497
21948SOL    HW167741  13.427  13.067  12.584
21948SOL    HW267742  13.393  13.068  12.437
21949SOL     OW67743   1.750  14.384   8.697
21949SOL    HW167744   1.716  14.306   8.654
21949SOL    HW267745   1.813  14.420   8.634
21950SOL     OW67746   1.049  10.590   1.581
21950SOL    HW167747   1.074  10.498   1.579
21950SOL    HW267748   1.100  10.631   1.511
21951SOL     OW67749  12.870  12.791   0.262
21951SOL    HW167750  12.950  12.770   0.310
21951SOL    HW267751  12.824  12.707   0.255
21952SOL     OW67752   2.625  13.299   7.293
21952SOL    HW167753   2.656  13.238   7.226
21952SOL    HW267754   2.564  13.356   7.247
21953SOL     OW67755  11.003   6.180   3.456
21953SOL    HW167756  10.943   6.237   3.409
21953SOL    HW267757  10.950   6.104   3.482
21954SOL     OW67758  11.244   7.177  12.789
21954SOL    HW167759  11.161   7.173  12.740
21954SOL    HW267760  11.222   7.143  12.876
21955SOL     OW67761   5.836   0.188   8.106
21955SOL    HW167762   5.918   0.219   8.068
21955SOL    HW267763   5.818   0.246   8.179
21956SOL     OW67764   9.914   1.380   8.416
21956SOL    HW167765   9.888   1.405   8.505
21956SOL    HW267766   9.832   1.363   8.370
21957SOL     OW67767   1.810   4.397   5.171
21957SOL    HW167768   1.789   4.489   5.184
21957SOL    HW267769   1.758   4.350   5.235
21958SOL     OW67770   5.704   3.155   6.401
21958SOL    HW167771   5.759   3.145   6.324
21958SOL    HW267772   5.644   3.081   6.398
21959SOL     OW67773   5.075   3.878   2.310
21959SOL    HW167774   5.126   3.898   2.231
21959SOL    HW267775   5.140   3.858   2.376
21960SOL     OW67776  13.281   9.630   7.568
21960SOL    HW167777  13.341   9.613   7.640
21960SOL    HW267778  13.336   9.623   7.489
21961SOL     OW67779   6.548   0.616  11.091
21961SOL    HW167780   6.544   0.626  10.996
21961SOL    HW267781   6.476   0.558  11.112
21962SOL     OW67782   0.759   7.513   7.534
21962SOL    HW167783   0.717   7.460   7.467
21962SOL    HW267784   0.849   7.524   7.503
21963SOL     OW67785  10.208  10.692   1.668
21963SOL    HW167786  10.210  10.598   1.686
21963SOL    HW267787  10.250  10.701   1.583
21964SOL     OW67788   0.270   7.898  14.743
21964SOL    HW167789   0.314   7.977  14.713
21964SOL    HW267790   0.340   7.841  14.775
21965SOL     OW67791   3.014   5.413  10.547
21965SOL    HW167792   2.943   5.472  10.520
21965SOL    HW267793   3.016   5.345  10.480
21966SOL     OW67794   4.820   9.530   8.199
21966SOL    HW167795   4.783   9.618   8.207
21966SOL    HW267796   4.827   9.498   8.289
21967SOL     OW67797   3.822  13.602   2.633
21967SOL    HW167798   3.844  13.510   2.647
21967SOL    HW267799   3.762  13.623   2.704
21968SOL     OW67800  14.603   7.322   2.990
21968SOL    HW167801  14.658   7.256   2.948
21968SOL    HW267802  14.528   7.273   3.024
21969SOL     OW67803   3.895   8.283   4.401
21969SOL    HW167804   3.823   8.334   4.439
21969SOL    HW267805   3.959   8.274   4.472
21970SOL     OW67806   3.953   4.550  14.195
21970SOL    HW167807   3.987   4.620  14.252
21970SOL    HW267808   4.026   4.488  14.189
21971SOL     OW67809   6.317   9.010   1.215
21971SOL    HW167810   6.340   9.092   1.259
21971SOL    HW267811   6.229   9.025   1.180
21972SOL     OW67812  11.207   6.061   7.551
21972SOL    HW167813  11.123   6.016   7.544
21972SOL    HW267814  11.195   6.142   7.501
21973SOL     OW67815   2.192  11.395  12.948
21973SOL    HW167816   2.130  11.456  12.988
21973SOL    HW267817   2.183  11.315  12.999
21974SOL     OW67818   3.364  13.943   0.520
21974SOL    HW167819   3.377  13.850   0.542
21974SOL    HW267820   3.376  13.947   0.425
21975SOL     OW67821  12.035   5.339   5.641
21975SOL    HW167822  12.075   5.261   5.679
21975SOL    HW267823  12.014   5.394   5.717
21976SOL     OW67824   2.080   0.596   6.457
21976SOL    HW167825   2.161   0.623   6.414
21976SOL    HW267826   2.034   0.545   6.390
21977SOL     OW67827  14.306  11.326   7.683
21977SOL    HW167828  14.217  11.362   7.690
21977SOL    HW267829  14.305  11.274   7.603
21978SOL     OW67830   6.280  13.846  10.947
21978SOL    HW167831   6.336  13.915  10.981
21978SOL    HW267832   6.279  13.779  11.016
21979SOL     OW67833   2.326   1.372  10.285
21979SOL    HW167834   2.245   1.390  10.333
21979SOL    HW267835   2.393   1.367  10.353
21980SOL     OW67836   8.286   5.634   4.548
21980SOL    HW167837   8.346   5.658   4.477
21980SOL    HW267838   8.200   5.660   4.516
21981SOL     OW67839  10.543   7.210   2.020
21981SOL    HW167840  10.449   7.207   2.037
21981SOL    HW267841  10.566   7.302   2.030
21982SOL     OW67842   4.827   1.070   1.483
21982SOL    HW167843   4.780   1.152   1.496
21982SOL    HW267844   4.777   1.005   1.533
21983SOL     OW67845  11.892   3.026   6.886
21983SOL    HW167846  11.896   3.099   6.824
21983SOL    HW267847  11.854   3.064   6.965
21984SOL     OW67848   6.040  10.534  13.765
21984SOL    HW167849   6.059  10.622  13.796
21984SOL    HW267850   5.996  10.547  13.681
21985SOL     OW67851   2.008   3.232   6.317
21985SOL    HW167852   2.075   3.172   6.283
21985SOL    HW267853   1.973   3.275   6.238
21986SOL     OW67854   5.090  11.661   1.015
21986SOL    HW167855   5.073  11.706   0.932
21986SOL    HW267856   5.155  11.715   1.059
21987SOL     OW67857   3.215  13.739   2.604
21987SOL    HW167858   3.265  13.777   2.532
21987SOL    HW267859   3.140  13.697   2.562
21988SOL     OW67860   7.968  12.150  12.464
21988SOL    HW167861   7.997  12.236  12.493
21988SOL    HW267862   8.033  12.089  12.499
21989SOL     OW67863  13.282   9.716   2.428
21989SOL    HW167864  13.207   9.752   2.381
21989SOL    HW267865  13.332   9.793   2.456
21990SOL     OW67866   6.402   6.164   8.643
21990SOL    HW167867   6.489   6.203   8.645
21990SOL    HW267868   6.382   6.146   8.735
21991SOL     OW67869   4.218   5.763  13.224
21991SOL    HW167870   4.306   5.737  13.252
21991SOL    HW267871   4.209   5.854  13.253
21992SOL     OW67872   6.080  10.091   8.707
21992SOL    HW167873   6.039  10.034   8.643
21992SOL    HW267874   6.023  10.086   8.784
21993SOL     OW67875   0.573   5.731   0.463
21993SOL    HW167876   0.521   5.802   0.500
21993SOL    HW267877   0.586   5.756   0.371
21994SOL     OW67878   2.254   0.255   0.879
21994SOL    HW167879   2.192   0.304   0.933
21994SOL    HW267880   2.295   0.322   0.824
21995SOL     OW67881   8.931   5.470  13.928
21995SOL    HW167882   8.981   5.496  13.851
21995SOL    HW267883   8.905   5.553  13.969
21996SOL     OW67884  11.833   4.003  10.311
21996SOL    HW167885  11.765   4.024  10.246
21996SOL    HW267886  11.838   4.081  10.365
21997SOL     OW67887  10.155   3.617   7.519
21997SOL    HW167888  10.206   3.696   7.537
21997SOL    HW267889  10.067   3.650   7.498
21998SOL     OW67890   0.841   7.181   8.588
21998SOL    HW167891   0.928   7.216   8.604
21998SOL    HW267892   0.788   7.214   8.660
21999SOL     OW67893  10.646   4.466   0.539
21999SOL    HW167894  10.730   4.511   0.542
21999SOL    HW267895  10.656   4.393   0.601
22000SOL     OW67896   4.439   1.634   5.707
22000SOL    HW167897   4.508   1.593   5.759
22000SOL    HW267898   4.361   1.630   5.762
22001SOL     OW67899   1.017   1.014  13.029
22001SOL    HW167900   1.009   0.941  13.091
22001SOL    HW267901   0.986   0.978  12.946
22002SOL     OW67902  13.012   7.956   0.313
22002SOL    HW167903  12.983   7.988   0.228
22002SOL    HW267904  13.107   7.954   0.307
22003SOL     OW67905   8.221   7.687   1.276
22003SOL    HW167906   8.185   7.696   1.364
22003SOL    HW267907   8.310   7.721   1.284
22004SOL     OW67908   2.267  11.994   7.688
22004SOL    HW167909   2.318  12.039   7.756
22004SOL    HW267910   2.196  11.952   7.736
22005SOL     OW67911   7.719   7.666   8.003
22005SOL    HW167912   7.715   7.651   8.097
22005SOL    HW267913   7.803   7.630   7.976
22006SOL     OW67914  12.772   0.444   5.853
22006SOL    HW167915  12.810   0.523   5.893
22006SOL    HW267916  12.776   0.378   5.923
22007SOL     OW67917   8.115  13.375   3.307
22007SOL    HW167918   8.161  13.446   3.262
22007SOL    HW267919   8.185  13.314   3.332
22008SOL     OW67920   6.441   5.237   0.998
22008SOL    HW167921   6.531   5.206   0.990
22008SOL    HW267922   6.417   5.264   0.909
22009SOL     OW67923   3.422   2.862  14.688
22009SOL    HW167924   3.331   2.890  14.683
22009SOL    HW267925   3.430   2.820  14.773
22010SOL     OW67926   6.346   9.535   9.496
22010SOL    HW167927   6.382   9.556   9.582
22010SOL    HW267928   6.409   9.474   9.457
22011SOL     OW67929  12.279   8.927   2.834
22011SOL    HW167930  12.215   8.856   2.847
22011SOL    HW267931  12.235   9.005   2.867
22012SOL     OW67932   6.280  13.867   8.358
22012SOL    HW167933   6.276  13.808   8.434
22012SOL    HW267934   6.358  13.839   8.310
22013SOL     OW67935   4.158  11.866   7.817
22013SOL    HW167936   4.215  11.917   7.760
22013SOL    HW267937   4.177  11.775   7.795
22014SOL     OW67938   7.409   2.614   9.059
22014SOL    HW167939   7.321   2.636   9.028
22014SOL    HW267940   7.418   2.662   9.141
22015SOL     OW67941   6.368  14.293   7.345
22015SOL    HW167942   6.409  14.226   7.400
22015SOL    HW267943   6.286  14.314   7.391
22016SOL     OW67944   8.758   0.424  14.275
22016SOL    HW167945   8.782   0.339  14.311
22016SOL    HW267946   8.821   0.485  14.313
22017SOL     OW67947  10.550  14.648   3.980
22017SOL    HW167948  10.628  14.671   3.929
22017SOL    HW267949  10.579  14.654   4.071
22018SOL     OW67950   0.258   1.427  13.218
22018SOL    HW167951   0.332   1.488  13.213
22018SOL    HW267952   0.296   1.346  13.251
22019SOL     OW67953   3.650   2.422  10.719
22019SOL    HW167954   3.691   2.461  10.797
22019SOL    HW267955   3.568   2.384  10.752
22020SOL     OW67956  14.559   6.418   6.035
22020SOL    HW167957  14.583   6.421   6.128
22020SOL    HW267958  14.498   6.491   6.023
22021SOL     OW67959  13.593   3.058   2.489
22021SOL    HW167960  13.565   2.968   2.472
22021SOL    HW267961  13.660   3.075   2.424
22022SOL     OW67962   3.234   6.019  14.626
22022SOL    HW167963   3.299   5.992  14.560
22022SOL    HW267964   3.152   5.979  14.595
22023SOL     OW67965  11.186   2.476  12.002
22023SOL    HW167966  11.175   2.431  11.919
22023SOL    HW267967  11.253   2.543  11.985
22024SOL     OW67968   4.725  13.441   2.098
22024SOL    HW167969   4.803  13.498   2.103
22024SOL    HW267970   4.739  13.376   2.166
22025SOL     OW67971   3.141   0.588  14.872
22025SOL    HW167972   3.178   0.626   0.070
22025SOL    HW267973   3.083   0.519   0.021
22026SOL     OW67974   0.206   9.283   9.433
22026SOL    HW167975   0.270   9.297   9.503
22026SOL    HW267976   0.219   9.357   9.374
22027SOL     OW67977   8.746  12.409   8.961
22027SOL    HW167978   8.835  12.440   8.943
22027SOL    HW267979   8.752  12.367   9.047
22028SOL     OW67980  13.517  12.685  10.726
22028SOL    HW167981  13.601  12.683  10.680
22028SOL    HW267982  13.482  12.772  10.708
22029SOL     OW67983  12.489   3.418   2.302
22029SOL    HW167984  12.526   3.333   2.278
22029SOL    HW267985  12.561   3.463   2.347
22030SOL     OW67986   3.223   0.070  10.622
22030SOL    HW167987   3.286   0.127  10.577
22030SOL    HW267988   3.139   0.114  10.608
22031SOL     OW67989   5.884   8.058  12.006
22031SOL    HW167990   5.862   8.133  11.951
22031SOL    HW267991   5.807   8.046  12.061
22032SOL     OW67992   0.992   2.672   9.617
22032SOL    HW167993   0.921   2.639   9.561
22032SOL    HW267994   1.067   2.679   9.558
22033SOL     OW67995   5.266   6.876  12.593
22033SOL    HW167996   5.175   6.901  12.609
22033SOL    HW267997   5.267   6.781  12.602
22034SOL     OW67998   3.724  13.055   6.722
22034SOL    HW167999   3.774  13.122   6.674
22034SOL    HW268000   3.642  13.098   6.743
22035SOL     OW68001   3.002  10.325   7.336
22035SOL    HW168002   3.093  10.338   7.360
22035SOL    HW268003   2.992  10.230   7.327
22036SOL     OW68004  13.777   9.136  12.729
22036SOL    HW168005  13.778   9.224  12.767
22036SOL    HW268006  13.735   9.147  12.643
22037SOL     OW68007   3.183  11.139  13.380
22037SOL    HW168008   3.209  11.225  13.349
22037SOL    HW268009   3.265  11.090  13.387
22038SOL     OW68010   6.257   6.680   5.807
22038SOL    HW168011   6.219   6.767   5.814
22038SOL    HW268012   6.184   6.620   5.822
22039SOL     OW68013   3.455  12.303   6.292
22039SOL    HW168014   3.405  12.373   6.335
22039SOL    HW268015   3.471  12.336   6.204
22040SOL     OW68016   9.676  12.103  13.372
22040SOL    HW168017   9.597  12.065  13.333
22040SOL    HW268018   9.678  12.193  13.338
22041SOL     OW68019  12.753  14.058  14.093
22041SOL    HW168020  12.814  14.106  14.148
22041SOL    HW268021  12.674  14.050  14.146
22042SOL     OW68022   9.439  10.033   7.787
22042SOL    HW168023   9.359  10.075   7.754
22042SOL    HW268024   9.411   9.987   7.866
22043SOL     OW68025   8.238  14.089  14.882
22043SOL    HW168026   8.276  14.035   0.069
22043SOL    HW268027   8.247  14.037  14.802
22044SOL     OW68028   8.136   7.775  11.691
22044SOL    HW168029   8.049   7.786  11.729
22044SOL    HW268030   8.173   7.863  11.689
22045SOL     OW68031   1.399   5.363  13.157
22045SOL    HW168032   1.457   5.321  13.094
22045SOL    HW268033   1.339   5.293  13.183
22046SOL     OW68034  10.781   8.025   8.684
22046SOL    HW168035  10.828   7.945   8.710
22046SOL    HW268036  10.833   8.060   8.611
22047SOL     OW68037  13.358   3.189   0.528
22047SOL    HW168038  13.265   3.211   0.533
22047SOL    HW268039  13.398   3.266   0.487
22048SOL     OW68040   0.180   3.198  14.453
22048SOL    HW168041   0.141   3.232  14.373
22048SOL    HW268042   0.119   3.225  14.522
22049SOL     OW68043   1.547   9.406  12.658
22049SOL    HW168044   1.578   9.477  12.602
22049SOL    HW268045   1.536   9.332  12.598
22050SOL     OW68046  10.128   9.177   0.112
22050SOL    HW168047  10.202   9.116   0.115
22050SOL    HW268048  10.087   9.168   0.198
22051SOL     OW68049  10.396   3.582   0.895
22051SOL    HW168050  10.432   3.611   0.812
22051SOL    HW268051  10.362   3.494   0.878
22052SOL     OW68052   5.482   2.736   4.051
22052SOL    HW168053   5.494   2.805   3.986
22052SOL    HW268054   5.444   2.663   4.002
22053SOL     OW68055   4.641   2.500   5.746
22053SOL    HW168056   4.680   2.544   5.670
22053SOL    HW268057   4.629   2.409   5.717
22054SOL     OW68058   6.664   5.651   6.764
22054SOL    HW168059   6.583   5.666   6.715
22054SOL    HW268060   6.661   5.717   6.833
22055SOL     OW68061  12.843  11.749   0.655
22055SOL    HW168062  12.893  11.752   0.573
22055SOL    HW268063  12.904  11.779   0.722
22056SOL     OW68064   2.907  11.365  13.339
22056SOL    HW168065   2.828  11.413  13.315
22056SOL    HW268066   2.977  11.430  13.340
22057SOL     OW68067  13.657  13.200   5.923
22057SOL    HW168068  13.715  13.275   5.916
22057SOL    HW268069  13.570  13.237   5.939
22058SOL     OW68070   8.511   7.026   1.165
22058SOL    HW168071   8.487   7.057   1.077
22058SOL    HW268072   8.541   7.105   1.210
22059SOL     OW68073   0.890  13.496   0.913
22059SOL    HW168074   0.935  13.575   0.882
22059SOL    HW268075   0.818  13.483   0.851
22060SOL     OW68076  11.501   9.012  14.007
22060SOL    HW168077  11.439   9.022  14.079
22060SOL    HW268078  11.482   8.925  13.971
22061SOL     OW68079  12.772   9.906   7.674
22061SOL    HW168080  12.835   9.968   7.638
22061SOL    HW268081  12.691   9.956   7.682
22062SOL     OW68082   7.906  13.962   9.363
22062SOL    HW168083   7.844  13.914   9.417
22062SOL    HW268084   7.856  13.990   9.287
22063SOL     OW68085   4.540   1.368   6.987
22063SOL    HW168086   4.628   1.345   6.959
22063SOL    HW268087   4.533   1.334   7.076
22064SOL     OW68088   6.625   4.981  12.316
22064SOL    HW168089   6.625   5.014  12.226
22064SOL    HW268090   6.652   5.056  12.369
22065SOL     OW68091  11.977   2.183   2.310
22065SOL    HW168092  11.975   2.220   2.221
22065SOL    HW268093  11.997   2.258   2.366
22066SOL     OW68094  11.837   2.019   3.994
22066SOL    HW168095  11.752   2.026   4.037
22066SOL    HW268096  11.862   2.110   3.976
22067SOL     OW68097  13.936   6.275   4.150
22067SOL    HW168098  13.996   6.307   4.082
22067SOL    HW268099  13.962   6.184   4.164
22068SOL     OW68100  14.443   2.295   9.992
22068SOL    HW168101  14.509   2.305   9.923
22068SOL    HW268102  14.474   2.221  10.044
22069SOL     OW68103   3.587  12.323  11.162
22069SOL    HW168104   3.584  12.381  11.086
22069SOL    HW268105   3.539  12.245  11.134
22070SOL     OW68106   3.357  14.217   4.889
22070SOL    HW168107   3.421  14.286   4.908
22070SOL    HW268108   3.315  14.245   4.808
22071SOL     OW68109   2.941  12.115  12.838
22071SOL    HW168110   3.024  12.068  12.840
22071SOL    HW268111   2.951  12.182  12.906
22072SOL     OW68112  13.954   7.114   3.151
22072SOL    HW168113  14.023   7.047   3.150
22072SOL    HW268114  13.971   7.163   3.231
22073SOL     OW68115   4.528  12.681  12.138
22073SOL    HW168116   4.553  12.766  12.101
22073SOL    HW268117   4.610  12.633  12.148
22074SOL     OW68118   3.033   8.162   5.073
22074SOL    HW168119   3.091   8.235   5.095
22074SOL    HW268120   2.957   8.174   5.130
22075SOL     OW68121   7.841   7.706   8.514
22075SOL    HW168122   7.778   7.674   8.578
22075SOL    HW268123   7.926   7.682   8.550
22076SOL     OW68124   1.874   9.471   4.342
22076SOL    HW168125   1.895   9.547   4.288
22076SOL    HW268126   1.959   9.433   4.364
22077SOL     OW68127  14.313   8.021  14.110
22077SOL    HW168128  14.331   7.988  14.022
22077SOL    HW268129  14.276   8.108  14.096
22078SOL     OW68130   9.573   4.020   7.809
22078SOL    HW168131   9.532   4.098   7.773
22078SOL    HW268132   9.526   4.002   7.890
22079SOL     OW68133  13.102  12.456  12.862
22079SOL    HW168134  13.012  12.452  12.830
22079SOL    HW268135  13.109  12.543  12.902
22080SOL     OW68136   4.821  12.042   9.326
22080SOL    HW168137   4.828  12.096   9.248
22080SOL    HW268138   4.892  11.978   9.319
22081SOL     OW68139  12.602   9.281   3.159
22081SOL    HW168140  12.587   9.280   3.254
22081SOL    HW268141  12.637   9.368   3.141
22082SOL     OW68142   8.899   3.656  14.430
22082SOL    HW168143   8.866   3.732  14.477
22082SOL    HW268144   8.982   3.685  14.392
22083SOL     OW68145   5.894   3.241   9.230
22083SOL    HW168146   5.893   3.151   9.263
22083SOL    HW268147   5.962   3.242   9.163
22084SOL     OW68148   9.679   2.855   1.463
22084SOL    HW168149   9.727   2.796   1.404
22084SOL    HW268150   9.746   2.888   1.522
22085SOL     OW68151   7.383  11.990  11.890
22085SOL    HW168152   7.322  11.917  11.877
22085SOL    HW268153   7.357  12.029  11.974
22086SOL     OW68154  13.080  13.345  11.460
22086SOL    HW168155  13.093  13.405  11.386
22086SOL    HW268156  12.995  13.370  11.496
22087SOL     OW68157   7.536   3.707  11.530
22087SOL    HW168158   7.474   3.668  11.468
22087SOL    HW268159   7.537   3.646  11.604
22088SOL     OW68160   8.346   7.787   7.399
22088SOL    HW168161   8.348   7.880   7.378
22088SOL    HW268162   8.370   7.783   7.492
22089SOL     OW68163  10.642   3.959   6.254
22089SOL    HW168164  10.665   3.963   6.346
22089SOL    HW268165  10.654   4.049   6.222
22090SOL     OW68166   0.424   8.417   0.806
22090SOL    HW168167   0.478   8.338   0.811
22090SOL    HW268168   0.335   8.386   0.821
22091SOL     OW68169   1.779   6.687   9.704
22091SOL    HW168170   1.824   6.632   9.767
22091SOL    HW268171   1.698   6.640   9.684
22092SOL     OW68172   2.359   7.566  13.310
22092SOL    HW168173   2.341   7.652  13.274
22092SOL    HW268174   2.452   7.568  13.333
22093SOL     OW68175   5.897  11.652   9.573
22093SOL    HW168176   5.875  11.703   9.496
22093SOL    HW268177   5.856  11.698   9.646
22094SOL     OW68178  14.786   0.719   0.638
22094SOL    HW168179  14.813   0.647   0.696
22094SOL    HW268180  14.751   0.676   0.561
22095SOL     OW68181  14.107  10.932  11.003
22095SOL    HW168182  14.085  11.025  11.002
22095SOL    HW268183  14.074  10.898  10.920
22096SOL     OW68184  13.352  14.801  14.371
22096SOL    HW168185  13.331  14.878  14.319
22096SOL    HW268186  13.283  14.797  14.437
22097SOL     OW68187   6.626   8.269   7.770
22097SOL    HW168188   6.665   8.356   7.774
22097SOL    HW268189   6.685   8.214   7.821
22098SOL     OW68190  13.477   6.348   7.727
22098SOL    HW168191  13.409   6.284   7.711
22098SOL    HW268192  13.534   6.307   7.792
22099SOL     OW68193   7.703   5.609   9.007
22099SOL    HW168194   7.720   5.631   8.916
22099SOL    HW268195   7.713   5.692   9.054
22100SOL     OW68196   5.226   9.056   5.218
22100SOL    HW168197   5.306   9.028   5.174
22100SOL    HW268198   5.156   9.012   5.171
22101SOL     OW68199  10.754   3.598  11.731
22101SOL    HW168200  10.755   3.510  11.769
22101SOL    HW268201  10.681   3.597  11.669
22102SOL     OW68202   3.611   7.620   4.046
22102SOL    HW168203   3.686   7.623   4.105
22102SOL    HW268204   3.628   7.691   3.984
22103SOL     OW68205   8.264  12.732  11.544
22103SOL    HW168206   8.193  12.775  11.497
22103SOL    HW268207   8.221  12.664  11.595
22104SOL     OW68208   3.358   0.920  12.565
22104SOL    HW168209   3.323   1.007  12.585
22104SOL    HW268210   3.301   0.887  12.495
22105SOL     OW68211  11.142   1.192   4.090
22105SOL    HW168212  11.159   1.268   4.034
22105SOL    HW268213  11.086   1.135   4.037
22106SOL     OW68214   8.239  10.873   4.912
22106SOL    HW168215   8.184  10.952   4.913
22106SOL    HW268216   8.262  10.858   5.003
22107SOL     OW68217  12.388   0.530  13.897
22107SOL    HW168218  12.466   0.488  13.862
22107SOL    HW268219  12.320   0.514  13.831
22108SOL     OW68220   6.204  10.685  11.621
22108SOL    HW168221   6.189  10.591  11.612
22108SOL    HW268222   6.279  10.704  11.563
22109SOL     OW68223  13.735   3.137   5.944
22109SOL    HW168224  13.683   3.057   5.951
22109SOL    HW268225  13.816   3.118   5.990
22110SOL     OW68226  10.850   5.387   4.095
22110SOL    HW168227  10.855   5.480   4.076
22110SOL    HW268228  10.903   5.376   4.174
22111SOL     OW68229   8.754   2.201   1.907
22111SOL    HW168230   8.703   2.142   1.850
22111SOL    HW268231   8.819   2.144   1.948
22112SOL     OW68232   9.025   2.388   7.850
22112SOL    HW168233   9.009   2.326   7.780
22112SOL    HW268234   9.118   2.376   7.872
22113SOL     OW68235   3.480  11.841  11.960
22113SOL    HW168236   3.425  11.898  12.014
22113SOL    HW268237   3.470  11.874  11.871
22114SOL     OW68238   5.543   5.347   9.715
22114SOL    HW168239   5.588   5.408   9.774
22114SOL    HW268240   5.458   5.387   9.699
22115SOL     OW68241  14.101   0.150   9.081
22115SOL    HW168242  14.135   0.150   9.171
22115SOL    HW268243  14.087   0.242   9.060
22116SOL     OW68244   6.550   9.295  13.876
22116SOL    HW168245   6.550   9.217  13.822
22116SOL    HW268246   6.520   9.365  13.818
22117SOL     OW68247   9.568   0.955  13.153
22117SOL    HW168248   9.561   1.004  13.071
22117SOL    HW268249   9.519   0.874  13.137
22118SOL     OW68250  12.378   7.783  11.344
22118SOL    HW168251  12.335   7.697  11.349
22118SOL    HW268252  12.469   7.764  11.366
22119SOL     OW68253   6.672  11.408   1.192
22119SOL    HW168254   6.644  11.428   1.282
22119SOL    HW268255   6.761  11.376   1.201
22120SOL     OW68256  14.045  11.519   4.701
22120SOL    HW168257  14.022  11.552   4.788
22120SOL    HW268258  14.001  11.577   4.640
22121SOL     OW68259  11.114  10.297   4.173
22121SOL    HW168260  11.119  10.354   4.251
22121SOL    HW268261  11.198  10.252   4.171
22122SOL     OW68262  14.023   7.271  13.051
22122SOL    HW168263  14.085   7.228  12.992
22122SOL    HW268264  14.060   7.259  13.138
22123SOL     OW68265  10.927  10.043   0.933
22123SOL    HW168266  10.840  10.058   0.971
22123SOL    HW268267  10.982  10.112   0.970
22124SOL     OW68268   8.843   0.435   5.188
22124SOL    HW168269   8.835   0.407   5.279
22124SOL    HW268270   8.897   0.368   5.146
22125SOL     OW68271   5.322  14.061   8.113
22125SOL    HW168272   5.404  14.088   8.153
22125SOL    HW268273   5.256  14.082   8.179
22126SOL     OW68274  13.401   3.064   7.170
22126SOL    HW168275  13.463   3.095   7.104
22126SOL    HW268276  13.454   3.016   7.233
22127SOL     OW68277   8.665   2.650   1.526
22127SOL    HW168278   8.680   2.679   1.616
22127SOL    HW268279   8.704   2.719   1.472
22128SOL     OW68280  12.004  12.789  13.616
22128SOL    HW168281  12.060  12.830  13.551
22128SOL    HW268282  11.931  12.850  13.628
22129SOL     OW68283  12.893  10.370   3.564
22129SOL    HW168284  12.808  10.404   3.535
22129SOL    HW268285  12.872  10.305   3.630
22130SOL     OW68286   3.575   3.569   3.794
22130SOL    HW168287   3.638   3.583   3.865
22130SOL    HW268288   3.505   3.517   3.833
22131SOL     OW68289   7.096   6.619  12.021
22131SOL    HW168290   7.137   6.653  12.101
22131SOL    HW268291   7.137   6.668  11.950
22132SOL     OW68292   9.272   9.876  10.752
22132SOL    HW168293   9.183   9.886  10.720
22132SOL    HW268294   9.263   9.852  10.844
22133SOL     OW68295   6.577   4.224  10.094
22133SOL    HW168296   6.665   4.259  10.103
22133SOL    HW268297   6.588   4.129  10.098
22134SOL     OW68298   4.380   9.956   7.931
22134SOL    HW168299   4.418  10.042   7.950
22134SOL    HW268300   4.286   9.968   7.944
22135SOL     OW68301   7.269   0.742   3.165
22135SOL    HW168302   7.244   0.813   3.224
22135SOL    HW268303   7.365   0.741   3.169
22136SOL     OW68304   1.713   4.516  14.711
22136SOL    HW168305   1.772   4.553  14.645
22136SOL    HW268306   1.683   4.434  14.672
22137SOL     OW68307   0.895   2.046   5.686
22137SOL    HW168308   0.908   1.972   5.745
22137SOL    HW268309   0.885   2.121   5.744
22138SOL     OW68310  14.065  13.448   8.468
22138SOL    HW168311  14.069  13.454   8.564
22138SOL    HW268312  14.136  13.388   8.445
22139SOL     OW68313   5.849   3.344   7.386
22139SOL    HW168314   5.928   3.298   7.359
22139SOL    HW268315   5.849   3.337   7.482
22140SOL     OW68316   7.013  13.600  14.622
22140SOL    HW168317   7.003  13.624  14.714
22140SOL    HW268318   7.050  13.678  14.580
22141SOL     OW68319   3.740   4.457   6.943
22141SOL    HW168320   3.731   4.362   6.934
22141SOL    HW268321   3.651   4.491   6.931
22142SOL     OW68322   5.979   5.680   5.801
22142SOL    HW168323   5.913   5.682   5.732
22142SOL    HW268324   5.929   5.691   5.882
22143SOL     OW68325   3.128   6.510   1.230
22143SOL    HW168326   3.084   6.457   1.164
22143SOL    HW268327   3.061   6.528   1.296
22144SOL     OW68328  11.791   6.088   0.777
22144SOL    HW168329  11.841   6.061   0.854
22144SOL    HW268330  11.727   6.150   0.810
22145SOL     OW68331  12.843  13.305   1.704
22145SOL    HW168332  12.769  13.246   1.713
22145SOL    HW268333  12.920  13.249   1.710
22146SOL     OW68334   2.403   5.883   8.906
22146SOL    HW168335   2.404   5.957   8.967
22146SOL    HW268336   2.465   5.908   8.837
22147SOL     OW68337   1.714   2.903   6.096
22147SOL    HW168338   1.789   2.903   6.036
22147SOL    HW268339   1.721   2.986   6.142
22148SOL     OW68340  10.999   6.132  13.539
22148SOL    HW168341  10.943   6.089  13.603
22148SOL    HW268342  11.070   6.070  13.522
22149SOL     OW68343   1.530   7.573  13.387
22149SOL    HW168344   1.494   7.587  13.474
22149SOL    HW268345   1.570   7.656  13.363
22150SOL     OW68346   6.647  13.358  12.895
22150SOL    HW168347   6.624  13.280  12.845
22150SOL    HW268348   6.660  13.426  12.830
22151SOL     OW68349   2.424  10.145   2.299
22151SOL    HW168350   2.483  10.171   2.370
22151SOL    HW268351   2.339  10.182   2.323
22152SOL     OW68352  10.697   9.549   0.085
22152SOL    HW168353  10.781   9.591   0.064
22152SOL    HW268354  10.634   9.621   0.088
22153SOL     OW68355   5.070   1.704   4.187
22153SOL    HW168356   4.998   1.724   4.128
22153SOL    HW268357   5.047   1.745   4.270
22154SOL     OW68358  14.243  10.727  13.533
22154SOL    HW168359  14.163  10.760  13.492
22154SOL    HW268360  14.239  10.757  13.623
22155SOL     OW68361   8.276   2.918   3.127
22155SOL    HW168362   8.363   2.898   3.160
22155SOL    HW268363   8.278   2.891   3.035
22156SOL     OW68364  10.534   1.203   0.473
22156SOL    HW168365  10.571   1.115   0.480
22156SOL    HW268366  10.457   1.201   0.529
22157SOL     OW68367  10.138   3.752  12.738
22157SOL    HW168368  10.134   3.712  12.651
22157SOL    HW268369  10.188   3.690  12.791
22158SOL     OW68370  10.389   5.876   1.155
22158SOL    HW168371  10.418   5.951   1.102
22158SOL    HW268372  10.293   5.881   1.152
22159SOL     OW68373   2.991   4.201  11.039
22159SOL    HW168374   2.960   4.292  11.040
22159SOL    HW268375   3.075   4.205  11.085
22160SOL     OW68376   1.965  12.631  14.006
22160SOL    HW168377   2.031  12.563  14.021
22160SOL    HW268378   1.991  12.702  14.064
22161SOL     OW68379   8.745  13.407   7.499
22161SOL    HW168380   8.707  13.495   7.495
22161SOL    HW268381   8.696  13.357   7.434
22162SOL     OW68382   2.449   4.786   7.638
22162SOL    HW168383   2.493   4.760   7.558
22162SOL    HW268384   2.393   4.712   7.661
22163SOL     OW68385   6.284   3.594   6.415
22163SOL    HW168386   6.364   3.544   6.425
22163SOL    HW268387   6.214   3.537   6.446
22164SOL     OW68388   2.782   2.508   4.164
22164SOL    HW168389   2.714   2.458   4.208
22164SOL    HW268390   2.782   2.474   4.074
22165SOL     OW68391  11.753   4.921   5.147
22165SOL    HW168392  11.772   4.968   5.228
22165SOL    HW268393  11.838   4.889   5.117
22166SOL     OW68394  13.767   7.478   0.238
22166SOL    HW168395  13.830   7.536   0.281
22166SOL    HW268396  13.822   7.409   0.199
22167SOL     OW68397   4.725   8.282  10.499
22167SOL    HW168398   4.790   8.229  10.544
22167SOL    HW268399   4.677   8.326  10.568
22168SOL     OW68400  12.766  10.998   3.368
22168SOL    HW168401  12.762  11.094   3.366
22168SOL    HW268402  12.690  10.972   3.421
22169SOL     OW68403   5.935   1.461  13.091
22169SOL    HW168404   5.862   1.461  13.153
22169SOL    HW268405   5.909   1.523  13.024
22170SOL     OW68406   5.092  11.359  12.931
22170SOL    HW168407   5.172  11.316  12.958
22170SOL    HW268408   5.026  11.290  12.930
22171SOL     OW68409   8.538   2.943   2.658
22171SOL    HW168410   8.484   2.962   2.581
22171SOL    HW268411   8.617   2.902   2.622
22172SOL     OW68412  11.059   3.400   5.243
22172SOL    HW168413  11.118   3.475   5.243
22172SOL    HW268414  11.068   3.363   5.331
22173SOL     OW68415   9.769  12.904   1.110
22173SOL    HW168416   9.815  12.857   1.041
22173SOL    HW268417   9.790  12.996   1.096
22174SOL     OW68418   7.437  10.828   6.099
22174SOL    HW168419   7.378  10.884   6.050
22174SOL    HW268420   7.503  10.888   6.135
22175SOL     OW68421   7.596  14.797  14.036
22175SOL    HW168422   7.619  14.816  13.944
22175SOL    HW268423   7.669  14.834  14.086
22176SOL     OW68424   5.387   1.886   4.093
22176SOL    HW168425   5.291   1.894   4.099
22176SOL    HW268426   5.405   1.887   3.999
22177SOL     OW68427  10.420  12.243  10.670
22177SOL    HW168428  10.443  12.249  10.577
22177SOL    HW268429  10.501  12.265  10.716
22178SOL     OW68430   9.643  12.902   6.676
22178SOL    HW168431   9.600  12.955   6.609
22178SOL    HW268432   9.689  12.833   6.627
22179SOL     OW68433   5.212   0.117   8.330
22179SOL    HW168434   5.304   0.093   8.343
22179SOL    HW268435   5.193   0.092   8.240
22180SOL     OW68436   4.089   1.667   4.363
22180SOL    HW168437   4.078   1.576   4.391
22180SOL    HW268438   4.109   1.661   4.269
22181SOL     OW68439   0.190   2.754  10.456
22181SOL    HW168440   0.197   2.667  10.494
22181SOL    HW268441   0.222   2.813  10.525
22182SOL     OW68442   6.058   6.982   4.904
22182SOL    HW168443   6.006   6.905   4.927
22182SOL    HW268444   6.095   6.961   4.819
22183SOL     OW68445   7.111  11.703   7.699
22183SOL    HW168446   7.046  11.638   7.726
22183SOL    HW268447   7.061  11.783   7.683
22184SOL     OW68448   5.377   8.210   9.104
22184SOL    HW168449   5.402   8.175   9.189
22184SOL    HW268450   5.414   8.149   9.040
22185SOL     OW68451  10.096   0.086   0.616
22185SOL    HW168452  10.159   0.105   0.686
22185SOL    HW268453  10.129   0.006   0.575
22186SOL     OW68454   3.344   0.731  12.219
22186SOL    HW168455   3.359   0.640  12.245
22186SOL    HW268456   3.276   0.761  12.279
22187SOL     OW68457   9.093  11.345  12.947
22187SOL    HW168458   9.029  11.296  12.896
22187SOL    HW268459   9.168  11.357  12.888
22188SOL     OW68460   3.483   3.659   8.295
22188SOL    HW168461   3.552   3.697   8.240
22188SOL    HW268462   3.506   3.566   8.301
22189SOL     OW68463   1.842  10.776  11.112
22189SOL    HW168464   1.880  10.793  11.025
22189SOL    HW268465   1.867  10.686  11.132
22190SOL     OW68466   5.062   9.243   8.156
22190SOL    HW168467   4.986   9.229   8.213
22190SOL    HW268468   5.026   9.238   8.068
22191SOL     OW68469   9.655  10.094   2.330
22191SOL    HW168470   9.587  10.049   2.281
22191SOL    HW268471   9.686  10.163   2.271
22192SOL     OW68472  11.401   0.960   7.056
22192SOL    HW168473  11.324   0.907   7.074
22192SOL    HW268474  11.373   1.050   7.070
22193SOL     OW68475   6.398  13.835  11.868
22193SOL    HW168476   6.411  13.801  11.957
22193SOL    HW268477   6.310  13.875  11.871
22194SOL     OW68478   2.772  14.401   0.335
22194SOL    HW168479   2.678  14.391   0.325
22194SOL    HW268480   2.787  14.495   0.332
22195SOL     OW68481  11.964  13.708  13.133
22195SOL    HW168482  11.938  13.781  13.188
22195SOL    HW268483  11.886  13.652  13.128
22196SOL     OW68484  11.907  11.074   5.200
22196SOL    HW168485  11.915  11.027   5.117
22196SOL    HW268486  11.814  11.068   5.222
22197SOL     OW68487  14.399   5.242   6.460
22197SOL    HW168488  14.321   5.187   6.468
22197SOL    HW268489  14.441   5.212   6.378
22198SOL     OW68490   9.873   4.192   2.684
22198SOL    HW168491   9.951   4.140   2.703
22198SOL    HW268492   9.862   4.248   2.761
22199SOL     OW68493  10.050   2.880  11.842
22199SOL    HW168494   9.956   2.899  11.849
22199SOL    HW268495  10.075   2.917  11.758
22200SOL     OW68496   7.841   2.258  12.243
22200SOL    HW168497   7.822   2.350  12.257
22200SOL    HW268498   7.930   2.246  12.276
22201SOL     OW68499   9.969   0.272   7.302
22201SOL    HW168500   9.889   0.239   7.260
22201SOL    HW268501   9.947   0.276   7.395
22202SOL     OW68502   3.822   8.481  12.918
22202SOL    HW168503   3.900   8.537  12.916
22202SOL    HW268504   3.761   8.527  12.976
22203SOL     OW68505   3.839  12.911  11.123
22203SOL    HW168506   3.841  12.842  11.189
22203SOL    HW268507   3.854  12.992  11.171
22204SOL     OW68508  10.146   1.116  11.170
22204SOL    HW168509  10.151   1.022  11.156
22204SOL    HW268510  10.235   1.148  11.156
22205SOL     OW68511   5.301  10.384  10.079
22205SOL    HW168512   5.391  10.359  10.102
22205SOL    HW268513   5.271  10.439  10.152
22206SOL     OW68514   9.075   7.935   8.220
22206SOL    HW168515   9.058   7.863   8.281
22206SOL    HW268516   9.158   7.912   8.178
22207SOL     OW68517   3.352  10.425  13.035
22207SOL    HW168518   3.339  10.511  12.996
22207SOL    HW268519   3.317  10.433  13.124
22208SOL     OW68520   0.944   1.794   2.392
22208SOL    HW168521   0.976   1.779   2.303
22208SOL    HW268522   1.017   1.767   2.448
22209SOL     OW68523  11.501   6.400  10.474
22209SOL    HW168524  11.525   6.485  10.436
22209SOL    HW268525  11.583   6.350  10.474
22210SOL     OW68526   5.733   5.733   5.074
22210SOL    HW168527   5.668   5.771   5.133
22210SOL    HW268528   5.691   5.734   4.988
22211SOL     OW68529   2.738   6.247  13.588
22211SOL    HW168530   2.820   6.200  13.604
22211SOL    HW268531   2.686   6.187  13.534
22212SOL     OW68532   0.732  12.215  14.475
22212SOL    HW168533   0.774  12.172  14.400
22212SOL    HW268534   0.704  12.300  14.441
22213SOL     OW68535   0.977   3.221  13.790
22213SOL    HW168536   1.008   3.131  13.802
22213SOL    HW268537   0.997   3.264  13.873
22214SOL     OW68538   1.917   4.521   0.780
22214SOL    HW168539   1.929   4.590   0.715
22214SOL    HW268540   1.854   4.461   0.740
22215SOL     OW68541   0.197   3.091   0.158
22215SOL    HW168542   0.263   3.159   0.161
22215SOL    HW268543   0.128   3.121   0.216
22216SOL     OW68544  10.742   8.563   9.558
22216SOL    HW168545  10.744   8.596   9.648
22216SOL    HW268546  10.661   8.598   9.522
22217SOL     OW68547   2.367  14.093  12.134
22217SOL    HW168548   2.308  14.162  12.164
22217SOL    HW268549   2.390  14.117  12.044
22218SOL     OW68550   3.815  12.501   4.793
22218SOL    HW168551   3.903  12.515   4.827
22218SOL    HW268552   3.776  12.589   4.792
22219SOL     OW68553  10.633  11.688   5.647
22219SOL    HW168554  10.550  11.641   5.639
22219SOL    HW268555  10.608  11.775   5.677
22220SOL     OW68556   5.832   2.156  11.483
22220SOL    HW168557   5.913   2.162  11.431
22220SOL    HW268558   5.763   2.187  11.424
22221SOL     OW68559   0.333  11.130   2.073
22221SOL    HW168560   0.360  11.038   2.065
22221SOL    HW268561   0.315  11.141   2.166
22222SOL     OW68562   4.792  13.418   4.768
22222SOL    HW168563   4.710  13.456   4.800
22222SOL    HW268564   4.777  13.402   4.675
22223SOL     OW68565   3.349   5.955   9.621
22223SOL    HW168566   3.272   5.956   9.677
22223SOL    HW268567   3.329   5.890   9.553
22224SOL     OW68568  12.931   7.838   9.014
22224SOL    HW168569  12.968   7.896   8.947
22224SOL    HW268570  12.838   7.859   9.015
22225SOL     OW68571  13.872   6.274  14.430
22225SOL    HW168572  13.886   6.365  14.403
22225SOL    HW268573  13.797   6.277  14.489
22226SOL     OW68574   4.330   2.859   8.897
22226SOL    HW168575   4.312   2.776   8.942
22226SOL    HW268576   4.247   2.906   8.901
22227SOL     OW68577   1.686   5.681   2.521
22227SOL    HW168578   1.624   5.670   2.449
22227SOL    HW268579   1.768   5.643   2.489
22228SOL     OW68580   9.513  12.817   3.969
22228SOL    HW168581   9.491  12.893   4.023
22228SOL    HW268582   9.574  12.851   3.904
22229SOL     OW68583   4.924   3.474   0.386
22229SOL    HW168584   4.835   3.475   0.422
22229SOL    HW268585   4.941   3.381   0.369
22230SOL     OW68586  10.313  14.827   4.521
22230SOL    HW168587  10.304  14.790   4.608
22230SOL    HW268588  10.267   0.029   4.525
22231SOL     OW68589   9.967   4.339  10.618
22231SOL    HW168590   9.895   4.316  10.558
22231SOL    HW268591  10.017   4.259  10.628
22232SOL     OW68592  11.774   1.770  14.488
22232SOL    HW168593  11.699   1.825  14.468
22232SOL    HW268594  11.782   1.773  14.583
22233SOL     OW68595   2.930   1.960   6.701
22233SOL    HW168596   2.911   2.045   6.741
22233SOL    HW268597   2.854   1.905   6.723
22234SOL     OW68598   0.286   2.851  13.564
22234SOL    HW168599   0.217   2.850  13.629
22234SOL    HW268600   0.275   2.935  13.519
22235SOL     OW68601  11.489   4.935   3.477
22235SOL    HW168602  11.576   4.895   3.480
22235SOL    HW268603  11.486   4.993   3.553
22236SOL     OW68604   1.084  10.277   9.475
22236SOL    HW168605   1.123  10.364   9.462
22236SOL    HW268606   1.151  10.227   9.521
22237SOL     OW68607   5.921  13.047  10.238
22237SOL    HW168608   5.946  13.015  10.151
22237SOL    HW268609   5.957  12.983  10.299
22238SOL     OW68610  12.064   9.384   2.945
22238SOL    HW168611  12.118   9.439   2.888
22238SOL    HW268612  12.125   9.321   2.983
22239SOL     OW68613   8.289   5.514  12.699
22239SOL    HW168614   8.312   5.504  12.791
22239SOL    HW268615   8.205   5.469  12.690
22240SOL     OW68616   4.727  13.952  11.468
22240SOL    HW168617   4.773  14.008  11.405
22240SOL    HW268618   4.786  13.948  11.543
22241SOL     OW68619  11.521   6.454   3.428
22241SOL    HW168620  11.484   6.478   3.513
22241SOL    HW268621  11.540   6.360   3.436
22242SOL     OW68622   8.744   7.845   6.542
22242SOL    HW168623   8.669   7.812   6.592
22242SOL    HW268624   8.745   7.939   6.561
22243SOL     OW68625   2.573   6.201  12.288
22243SOL    HW168626   2.504   6.267  12.281
22243SOL    HW268627   2.639   6.241  12.344
22244SOL     OW68628   8.548   3.515   3.073
22244SOL    HW168629   8.615   3.500   3.006
22244SOL    HW268630   8.516   3.427   3.095
22245SOL     OW68631   0.568   6.760   8.434
22245SOL    HW168632   0.593   6.825   8.368
22245SOL    HW268633   0.475   6.775   8.448
22246SOL     OW68634   5.106  10.432  12.238
22246SOL    HW168635   5.067  10.359  12.191
22246SOL    HW268636   5.166  10.472  12.175
22247SOL     OW68637   2.456   5.279   8.552
22247SOL    HW168638   2.472   5.370   8.578
22247SOL    HW268639   2.452   5.282   8.456
22248SOL     OW68640   4.187   4.131   6.715
22248SOL    HW168641   4.177   4.083   6.632
22248SOL    HW268642   4.224   4.215   6.689
22249SOL     OW68643  11.284  12.994   2.422
22249SOL    HW168644  11.343  12.932   2.378
22249SOL    HW268645  11.256  13.054   2.353
22250SOL     OW68646  13.140   9.744   0.424
22250SOL    HW168647  13.160   9.661   0.381
22250SOL    HW268648  13.171   9.810   0.362
22251SOL     OW68649   1.006  10.117  12.418
22251SOL    HW168650   1.098  10.140  12.403
22251SOL    HW268651   0.973  10.095  12.331
22252SOL     OW68652   2.833   2.159   1.889
22252SOL    HW168653   2.796   2.190   1.972
22252SOL    HW268654   2.792   2.214   1.822
22253SOL     OW68655   8.535   3.375   0.312
22253SOL    HW168656   8.562   3.397   0.223
22253SOL    HW268657   8.608   3.324   0.348
22254SOL     OW68658   9.064   7.774  14.615
22254SOL    HW168659   9.027   7.778  14.527
22254SOL    HW268660   9.114   7.855  14.624
22255SOL     OW68661   4.067   5.352   9.714
22255SOL    HW168662   4.111   5.386   9.792
22255SOL    HW268663   4.125   5.375   9.641
22256SOL     OW68664   8.512   3.126   8.925
22256SOL    HW168665   8.535   3.192   8.989
22256SOL    HW268666   8.443   3.075   8.967
22257SOL     OW68667  12.930   7.251   8.012
22257SOL    HW168668  12.883   7.332   8.031
22257SOL    HW268669  12.880   7.183   8.057
22258SOL     OW68670   6.592  13.775  12.084
22258SOL    HW168671   6.621  13.747  11.997
22258SOL    HW268672   6.663  13.747  12.142
22259SOL     OW68673   9.976  14.233  12.887
22259SOL    HW168674   9.979  14.137  12.884
22259SOL    HW268675   9.943  14.253  12.974
22260SOL     OW68676   7.684   7.637   0.302
22260SOL    HW168677   7.770   7.670   0.278
22260SOL    HW268678   7.700   7.545   0.325
22261SOL     OW68679   6.430   5.186   9.741
22261SOL    HW168680   6.416   5.233   9.659
22261SOL    HW268681   6.471   5.250   9.799
22262SOL     OW68682   3.456   8.273  12.120
22262SOL    HW168683   3.408   8.323  12.187
22262SOL    HW268684   3.469   8.336  12.049
22263SOL     OW68685   8.863  12.421   5.368
22263SOL    HW168686   8.817  12.344   5.399
22263SOL    HW268687   8.880  12.405   5.275
22264SOL     OW68688  13.171   1.775   9.853
22264SOL    HW168689  13.118   1.715   9.905
22264SOL    HW268690  13.261   1.742   9.865
22265SOL     OW68691  12.789   4.446  12.374
22265SOL    HW168692  12.876   4.450  12.414
22265SOL    HW268693  12.803   4.399  12.292
22266SOL     OW68694   3.067  10.033   3.684
22266SOL    HW168695   3.043   9.993   3.601
22266SOL    HW268696   3.148  10.080   3.666
22267SOL     OW68697   3.068   7.063   5.674
22267SOL    HW168698   3.146   7.049   5.621
22267SOL    HW268699   3.090   7.139   5.728
22268SOL     OW68700   8.059  12.532   0.093
22268SOL    HW168701   8.132  12.552   0.152
22268SOL    HW268702   8.098  12.481   0.023
22269SOL     OW68703   0.196   3.048   4.728
22269SOL    HW168704   0.133   3.116   4.751
22269SOL    HW268705   0.272   3.096   4.696
22270SOL     OW68706   3.825  10.892   8.567
22270SOL    HW168707   3.856  10.972   8.610
22270SOL    HW268708   3.892  10.826   8.588
22271SOL     OW68709   5.820   7.720  12.414
22271SOL    HW168710   5.828   7.815  12.403
22271SOL    HW268711   5.911   7.689  12.417
22272SOL     OW68712   7.241   4.808   8.780
22272SOL    HW168713   7.223   4.819   8.687
22272SOL    HW268714   7.277   4.720   8.787
22273SOL     OW68715  10.664   8.346   6.363
22273SOL    HW168716  10.642   8.317   6.452
22273SOL    HW268717  10.696   8.267   6.320
22274SOL     OW68718   8.625   5.875   8.211
22274SOL    HW168719   8.538   5.838   8.224
22274SOL    HW268720   8.666   5.819   8.144
22275SOL     OW68721   7.158   1.248   9.934
22275SOL    HW168722   7.095   1.181   9.962
22275SOL    HW268723   7.118   1.286   9.856
22276SOL     OW68724  10.551   2.612   0.147
22276SOL    HW168725  10.475   2.554   0.134
22276SOL    HW268726  10.607   2.565   0.209
22277SOL     OW68727  10.912   5.785   6.154
22277SOL    HW168728  10.842   5.779   6.090
22277SOL    HW268729  10.914   5.877   6.180
22278SOL     OW68730  11.822   0.988   7.808
22278SOL    HW168731  11.844   0.946   7.725
22278SOL    HW268732  11.891   0.961   7.868
22279SOL     OW68733  10.702   9.979   5.023
22279SOL    HW168734  10.782   9.988   4.972
22279SOL    HW268735  10.732   9.956   5.111
22280SOL     OW68736   9.205  12.272   1.115
22280SOL    HW168737   9.293  12.309   1.119
22280SOL    HW268738   9.190  12.235   1.202
22281SOL     OW68739   1.497   4.183  13.059
22281SOL    HW168740   1.541   4.268  13.050
22281SOL    HW268741   1.538   4.128  12.992
22282SOL     OW68742   1.574  14.619  13.775
22282SOL    HW168743   1.577  14.524  13.770
22282SOL    HW268744   1.585  14.648  13.684
22283SOL     OW68745   1.851   5.846   6.974
22283SOL    HW168746   1.801   5.766   6.995
22283SOL    HW268747   1.799   5.889   6.907
22284SOL     OW68748   4.354  14.541   6.973
22284SOL    HW168749   4.423  14.485   6.939
22284SOL    HW268750   4.399  14.604   7.029
22285SOL     OW68751   7.980   6.186  14.673
22285SOL    HW168752   7.973   6.175  14.768
22285SOL    HW268753   8.024   6.107  14.643
22286SOL     OW68754  13.412   7.152  10.750
22286SOL    HW168755  13.319   7.138  10.735
22286SOL    HW268756  13.423   7.247  10.755
22287SOL     OW68757   8.917   1.332  11.053
22287SOL    HW168758   8.909   1.398  10.984
22287SOL    HW268759   9.004   1.295  11.041
22288SOL     OW68760   4.866   6.449   1.603
22288SOL    HW168761   4.830   6.381   1.660
22288SOL    HW268762   4.812   6.526   1.620
22289SOL     OW68763   6.252   6.373   9.831
22289SOL    HW168764   6.323   6.313   9.855
22289SOL    HW268765   6.215   6.335   9.751
22290SOL     OW68766   7.815   8.525  12.692
22290SOL    HW168767   7.853   8.473  12.621
22290SOL    HW268768   7.875   8.599  12.702
22291SOL     OW68769   5.004   5.495  12.496
22291SOL    HW168770   4.933   5.515  12.435
22291SOL    HW268771   4.960   5.477  12.579
22292SOL     OW68772   6.253   9.842   8.713
22292SOL    HW168773   6.214   9.860   8.798
22292SOL    HW268774   6.206   9.765   8.680
22293SOL     OW68775   7.256   3.575  12.936
22293SOL    HW168776   7.183   3.600  12.879
22293SOL    HW268777   7.311   3.653  12.941
22294SOL     OW68778  10.852   4.610   2.561
22294SOL    HW168779  10.939   4.617   2.521
22294SOL    HW268780  10.793   4.602   2.486
22295SOL     OW68781  11.696   6.791  13.171
22295SOL    HW168782  11.615   6.753  13.204
22295SOL    HW268783  11.669   6.875  13.133
22296SOL     OW68784  14.045   3.953  11.056
22296SOL    HW168785  14.110   4.019  11.034
22296SOL    HW268786  14.096   3.876  11.081
22297SOL     OW68787   5.222   5.796  10.845
22297SOL    HW168788   5.147   5.814  10.902
22297SOL    HW268789   5.262   5.718  10.882
22298SOL     OW68790   3.526   1.513   6.968
22298SOL    HW168791   3.611   1.539   6.932
22298SOL    HW268792   3.484   1.463   6.898
22299SOL     OW68793   2.302  10.298  14.169
22299SOL    HW168794   2.297  10.209  14.204
22299SOL    HW268795   2.253  10.352  14.232
22300SOL     OW68796   8.124   7.479   4.622
22300SOL    HW168797   8.081   7.396   4.639
22300SOL    HW268798   8.211   7.455   4.589
22301SOL     OW68799   2.458  12.653   0.856
22301SOL    HW168800   2.485  12.569   0.819
22301SOL    HW268801   2.533  12.711   0.842
22302SOL     OW68802   8.333  13.325   3.714
22302SOL    HW168803   8.277  13.248   3.701
22302SOL    HW268804   8.293  13.393   3.661
22303SOL     OW68805   8.088   2.502  13.330
22303SOL    HW168806   8.184   2.509  13.336
22303SOL    HW268807   8.065   2.437  13.396
22304SOL     OW68808   8.085  13.447   8.856
22304SOL    HW168809   8.161  13.490   8.819
22304SOL    HW268810   8.120  13.391   8.925
22305SOL     OW68811   9.388   3.945   5.198
22305SOL    HW168812   9.398   3.956   5.292
22305SOL    HW268813   9.349   4.027   5.168
22306SOL     OW68814   3.167   5.917   8.108
22306SOL    HW168815   3.233   5.855   8.078
22306SOL    HW268816   3.147   5.970   8.030
22307SOL     OW68817  13.779  13.482   7.723
22307SOL    HW168818  13.760  13.523   7.639
22307SOL    HW268819  13.694  13.453   7.755
22308SOL     OW68820  11.685  11.335  12.272
22308SOL    HW168821  11.762  11.313  12.219
22308SOL    HW268822  11.647  11.411  12.229
22309SOL     OW68823   3.663   9.170  10.322
22309SOL    HW168824   3.718   9.201  10.249
22309SOL    HW268825   3.724   9.126  10.381
22310SOL     OW68826   1.958   6.685  11.608
22310SOL    HW168827   2.031   6.723  11.560
22310SOL    HW268828   1.998   6.622  11.667
22311SOL     OW68829   1.643  11.853   6.545
22311SOL    HW168830   1.555  11.815   6.558
22311SOL    HW268831   1.702  11.778   6.547
22312SOL     OW68832   7.670   2.402   2.739
22312SOL    HW168833   7.648   2.491   2.711
22312SOL    HW268834   7.635   2.395   2.827
22313SOL     OW68835   7.373   0.021   2.706
22313SOL    HW168836   7.459  14.880   2.670
22313SOL    HW268837   7.375  14.871   2.796
22314SOL     OW68838   7.766   7.119   0.377
22314SOL    HW168839   7.732   7.206   0.397
22314SOL    HW268840   7.715   7.060   0.432
22315SOL     OW68841  11.901  13.832   9.661
22315SOL    HW168842  11.829  13.871   9.612
22315SOL    HW268843  11.882  13.851   9.753
22316SOL     OW68844   9.791  11.299   0.104
22316SOL    HW168845   9.695  11.294   0.111
22316SOL    HW268846   9.814  11.385   0.140
22317SOL     OW68847   8.776  13.493   4.825
22317SOL    HW168848   8.857  13.535   4.853
22317SOL    HW268849   8.781  13.493   4.729
22318SOL     OW68850   8.045  12.984  11.579
22318SOL    HW168851   8.041  13.080  11.576
22318SOL    HW268852   8.090  12.959  11.498
22319SOL     OW68853   0.647   6.218  10.457
22319SOL    HW168854   0.616   6.128  10.456
22319SOL    HW268855   0.568   6.271  10.445
22320SOL     OW68856  10.695   6.111   8.630
22320SOL    HW168857  10.683   6.058   8.708
22320SOL    HW268858  10.606   6.122   8.594
22321SOL     OW68859   7.528  14.142   9.925
22321SOL    HW168860   7.511  14.096  10.008
22321SOL    HW268861   7.491  14.230   9.938
22322SOL     OW68862   0.354   2.622  14.171
22322SOL    HW168863   0.271   2.573  14.169
22322SOL    HW268864   0.347   2.679  14.247
22323SOL     OW68865   5.472   6.723   1.622
22323SOL    HW168866   5.383   6.726   1.587
22323SOL    HW268867   5.473   6.792   1.689
22324SOL     OW68868   9.163   0.633  11.253
22324SOL    HW168869   9.231   0.646  11.187
22324SOL    HW268870   9.104   0.707  11.241
22325SOL     OW68871   5.860  14.667   1.692
22325SOL    HW168872   5.794  14.634   1.753
22325SOL    HW268873   5.943  14.659   1.740
22326SOL     OW68874   1.915   8.562   7.989
22326SOL    HW168875   1.893   8.533   7.901
22326SOL    HW268876   1.848   8.524   8.045
22327SOL     OW68877   2.486   9.678  14.598
22327SOL    HW168878   2.430   9.612  14.557
22327SOL    HW268879   2.563   9.629  14.628
22328SOL     OW68880   9.651   7.174  11.423
22328SOL    HW168881   9.625   7.234  11.493
22328SOL    HW268882   9.638   7.223  11.342
22329SOL     OW68883   4.791   1.406   9.827
22329SOL    HW168884   4.735   1.443   9.895
22329SOL    HW268885   4.787   1.469   9.755
22330SOL     OW68886   6.440  12.379  13.895
22330SOL    HW168887   6.423  12.423  13.812
22330SOL    HW268888   6.535  12.385  13.906
22331SOL     OW68889   8.317  13.903  13.423
22331SOL    HW168890   8.403  13.909  13.381
22331SOL    HW268891   8.329  13.939  13.510
22332SOL     OW68892   4.208   0.830  13.336
22332SOL    HW168893   4.243   0.763  13.394
22332SOL    HW268894   4.237   0.804  13.249
22333SOL     OW68895   2.660   2.600   9.477
22333SOL    HW168896   2.650   2.691   9.502
22333SOL    HW268897   2.752   2.581   9.494
22334SOL     OW68898   2.979   1.693   1.723
22334SOL    HW168899   2.957   1.672   1.814
22334SOL    HW268900   2.986   1.788   1.722
22335SOL     OW68901   6.849   0.015   5.429
22335SOL    HW168902   6.921   0.075   5.411
22335SOL    HW268903   6.778   0.072   5.459
22336SOL     OW68904  12.451  12.065   3.378
22336SOL    HW168905  12.545  12.061   3.357
22336SOL    HW268906  12.428  11.974   3.398
22337SOL     OW68907  13.838   7.693  13.290
22337SOL    HW168908  13.861   7.650  13.209
22337SOL    HW268909  13.920   7.701  13.338
22338SOL     OW68910  11.062   7.755   3.128
22338SOL    HW168911  11.156   7.738   3.140
22338SOL    HW268912  11.048   7.842   3.165
22339SOL     OW68913  12.614   8.509   9.608
22339SOL    HW168914  12.702   8.474   9.596
22339SOL    HW268915  12.572   8.496   9.523
22340SOL     OW68916  14.243  10.256   0.798
22340SOL    HW168917  14.225  10.211   0.880
22340SOL    HW268918  14.188  10.335   0.802
22341SOL     OW68919  11.479  11.153   3.996
22341SOL    HW168920  11.544  11.134   3.927
22341SOL    HW268921  11.532  11.183   4.070
22342SOL     OW68922   7.088  13.089   8.079
22342SOL    HW168923   7.151  13.137   8.132
22342SOL    HW268924   7.031  13.045   8.143
22343SOL     OW68925  13.616   2.502   0.969
22343SOL    HW168926  13.583   2.412   0.970
22343SOL    HW268927  13.590   2.539   1.054
22344SOL     OW68928  12.815   8.068   7.640
22344SOL    HW168929  12.779   8.004   7.702
22344SOL    HW268930  12.760   8.145   7.652
22345SOL     OW68931   8.295   4.924  12.384
22345SOL    HW168932   8.306   4.912  12.479
22345SOL    HW268933   8.318   5.015  12.369
22346SOL     OW68934  11.522  14.471   6.164
22346SOL    HW168935  11.467  14.523   6.223
22346SOL    HW268936  11.611  14.499   6.183
22347SOL     OW68937   4.141   1.076  10.017
22347SOL    HW168938   4.211   1.077  10.083
22347SOL    HW268939   4.182   1.036   9.940
22348SOL     OW68940  14.804   1.881  10.729
22348SOL    HW168941  14.765   1.841  10.806
22348SOL    HW268942  14.733   1.883  10.664
22349SOL     OW68943   4.105  11.312   8.715
22349SOL    HW168944   4.142  11.323   8.802
22349SOL    HW268945   4.059  11.394   8.698
22350SOL     OW68946   3.015  10.492   8.951
22350SOL    HW168947   3.023  10.401   8.924
22350SOL    HW268948   3.004  10.540   8.869
22351SOL     OW68949   3.207   7.800   6.436
22351SOL    HW168950   3.278   7.740   6.414
22351SOL    HW268951   3.215   7.871   6.372
22352SOL     OW68952  14.022  13.129   7.602
22352SOL    HW168953  14.052  13.220   7.604
22352SOL    HW268954  14.086  13.084   7.547
22353SOL     OW68955  13.683  11.252   4.268
22353SOL    HW168956  13.740  11.179   4.244
22353SOL    HW268957  13.707  11.273   4.358
22354SOL     OW68958  13.829  13.765   5.854
22354SOL    HW168959  13.911  13.721   5.877
22354SOL    HW268960  13.764  13.726   5.913
22355SOL     OW68961   5.033   9.888  10.486
22355SOL    HW168962   5.101   9.949  10.516
22355SOL    HW268963   5.082   9.809  10.460
22356SOL     OW68964  10.590   9.428   5.626
22356SOL    HW168965  10.526   9.404   5.693
22356SOL    HW268966  10.554   9.393   5.544
22357SOL     OW68967  12.445   3.083   6.396
22357SOL    HW168968  12.487   3.139   6.331
22357SOL    HW268969  12.433   3.139   6.472
22358SOL     OW68970   6.940  13.925   1.809
22358SOL    HW168971   6.882  13.891   1.741
22358SOL    HW268972   6.933  13.863   1.881
22359SOL     OW68973   1.465   6.266   1.780
22359SOL    HW168974   1.477   6.319   1.701
22359SOL    HW268975   1.485   6.177   1.753
22360SOL     OW68976   1.127  13.484   7.014
22360SOL    HW168977   1.207  13.533   6.995
22360SOL    HW268978   1.128  13.472   7.109
22361SOL     OW68979   9.538   2.863   4.451
22361SOL    HW168980   9.596   2.795   4.417
22361SOL    HW268981   9.457   2.853   4.401
22362SOL     OW68982   5.411  10.360   3.338
22362SOL    HW168983   5.477  10.291   3.340
22362SOL    HW268984   5.427  10.406   3.256
22363SOL     OW68985  11.149   2.497   8.291
22363SOL    HW168986  11.090   2.533   8.357
22363SOL    HW268987  11.092   2.480   8.216
22364SOL     OW68988  13.680   2.657   8.492
22364SOL    HW168989  13.604   2.662   8.549
22364SOL    HW268990  13.663   2.722   8.423
22365SOL     OW68991  12.513   0.141   2.639
22365SOL    HW168992  12.452   0.118   2.709
22365SOL    HW268993  12.463   0.130   2.559
22366SOL     OW68994   5.540   3.839   7.157
22366SOL    HW168995   5.542   3.744   7.172
22366SOL    HW268996   5.480   3.850   7.084
22367SOL     OW68997  13.899   3.975  14.391
22367SOL    HW168998  13.928   4.061  14.422
22367SOL    HW268999  13.804   3.985  14.379
22368SOL     OW69000  13.564  14.591  10.607
22368SOL    HW169001  13.621  14.535  10.554
22368SOL    HW269002  13.598  14.680  10.592
22369SOL     OW69003   7.818  13.479   6.842
22369SOL    HW169004   7.913  13.474   6.835
22369SOL    HW269005   7.803  13.531   6.922
22370SOL     OW69006   7.740  13.120   1.607
22370SOL    HW169007   7.711  13.103   1.518
22370SOL    HW269008   7.689  13.060   1.661
22371SOL     OW69009   4.657   4.916   4.517
22371SOL    HW169010   4.718   4.953   4.581
22371SOL    HW269011   4.580   4.893   4.569
22372SOL     OW69012  13.858  10.601   8.593
22372SOL    HW169013  13.879  10.546   8.668
22372SOL    HW269014  13.812  10.676   8.630
22373SOL     OW69015   1.636  10.177   2.000
22373SOL    HW169016   1.629  10.270   2.023
22373SOL    HW269017   1.682  10.138   2.074
22374SOL     OW69018  13.876   0.651   2.310
22374SOL    HW169019  13.839   0.601   2.237
22374SOL    HW269020  13.971   0.644   2.298
22375SOL     OW69021  12.521  10.074   4.228
22375SOL    HW169022  12.548  10.110   4.313
22375SOL    HW269023  12.580  10.000   4.213
22376SOL     OW69024   5.174   8.327  10.951
22376SOL    HW169025   5.094   8.313  11.001
22376SOL    HW269026   5.195   8.241  10.916
22377SOL     OW69027  13.706   6.891   1.188
22377SOL    HW169028  13.750   6.942   1.257
22377SOL    HW269029  13.669   6.816   1.234
22378SOL     OW69030  10.136   0.376  10.331
22378SOL    HW169031  10.090   0.333  10.403
22378SOL    HW269032  10.092   0.345  10.252
22379SOL     OW69033   4.062  14.679  14.473
22379SOL    HW169034   4.012  14.651  14.551
22379SOL    HW269035   4.012  14.753  14.438
22380SOL     OW69036   4.162  11.251   3.923
22380SOL    HW169037   4.139  11.343   3.926
22380SOL    HW269038   4.249  11.249   3.883
22381SOL     OW69039  10.059   1.074   1.993
22381SOL    HW169040  10.081   1.112   2.078
22381SOL    HW269041   9.975   1.114   1.969
22382SOL     OW69042   2.301   8.382   1.137
22382SOL    HW169043   2.220   8.427   1.161
22382SOL    HW269044   2.287   8.357   1.045
22383SOL     OW69045   6.779  11.829   9.233
22383SOL    HW169046   6.773  11.908   9.287
22383SOL    HW269047   6.872  11.821   9.213
22384SOL     OW69048  14.619   0.307   6.062
22384SOL    HW169049  14.646   0.216   6.047
22384SOL    HW269050  14.663   0.357   5.994
22385SOL     OW69051   1.863   9.318   0.371
22385SOL    HW169052   1.801   9.286   0.306
22385SOL    HW269053   1.809   9.351   0.442
22386SOL     OW69054   9.190   3.440   0.737
22386SOL    HW169055   9.170   3.519   0.787
22386SOL    HW269056   9.180   3.369   0.801
22387SOL     OW69057  11.872   1.030   1.380
22387SOL    HW169058  11.939   0.991   1.324
22387SOL    HW269059  11.921   1.071   1.451
22388SOL     OW69060   8.436   6.640  14.870
22388SOL    HW169061   8.465   6.633   0.078
22388SOL    HW269062   8.503   6.593  14.819
22389SOL     OW69063   8.010   4.387  13.960
22389SOL    HW169064   8.016   4.444  14.037
22389SOL    HW269065   8.048   4.439  13.889
22390SOL     OW69066  14.879   0.349   5.860
22390SOL    HW169067   0.001   0.408   5.785
22390SOL    HW269068   0.013   0.405   5.936
22391SOL     OW69069  10.597   9.189   1.281
22391SOL    HW169070  10.677   9.146   1.252
22391SOL    HW269071  10.620   9.230   1.365
22392SOL     OW69072   2.141  12.814   2.726
22392SOL    HW169073   2.220  12.763   2.709
22392SOL    HW269074   2.106  12.777   2.807
22393SOL     OW69075  10.475   0.676  10.525
22393SOL    HW169076  10.534   0.687  10.601
22393SOL    HW269077  10.529   0.701  10.450
22394SOL     OW69078   3.973  13.504  14.440
22394SOL    HW169079   3.895  13.451  14.455
22394SOL    HW269080   3.959  13.543  14.354
22395SOL     OW69081   8.098   3.900   7.931
22395SOL    HW169082   8.108   3.983   7.886
22395SOL    HW269083   8.088   3.835   7.861
22396SOL     OW69084   9.526  14.137   5.614
22396SOL    HW169085   9.452  14.090   5.575
22396SOL    HW269086   9.595  14.132   5.547
22397SOL     OW69087  12.875  13.619  11.542
22397SOL    HW169088  12.816  13.550  11.513
22397SOL    HW269089  12.824  13.700  11.536
22398SOL     OW69090  10.558   1.919   5.604
22398SOL    HW169091  10.622   1.938   5.535
22398SOL    HW269092  10.544   1.824   5.598
22399SOL     OW69093   1.110  13.702  12.178
22399SOL    HW169094   1.166  13.718  12.102
22399SOL    HW269095   1.078  13.789  12.203
22400SOL     OW69096  12.926   1.582   4.155
22400SOL    HW169097  12.842   1.548   4.125
22400SOL    HW269098  12.988   1.511   4.137
22401SOL     OW69099   2.067   2.976  14.185
22401SOL    HW169100   1.986   3.007  14.226
22401SOL    HW269101   2.086   3.041  14.118
22402SOL     OW69102   6.988   3.660   5.161
22402SOL    HW169103   7.049   3.606   5.211
22402SOL    HW269104   6.911   3.667   5.216
22403SOL     OW69105   9.309   1.097   5.668
22403SOL    HW169106   9.377   1.058   5.614
22403SOL    HW269107   9.349   1.176   5.704
22404SOL     OW69108   8.422   3.391  14.120
22404SOL    HW169109   8.443   3.331  14.049
22404SOL    HW269110   8.332   3.420  14.102
22405SOL     OW69111   6.919   8.452   5.367
22405SOL    HW169112   6.999   8.457   5.315
22405SOL    HW269113   6.947   8.415   5.451
22406SOL     OW69114   4.877  11.316   0.612
22406SOL    HW169115   4.941  11.352   0.550
22406SOL    HW269116   4.847  11.235   0.571
22407SOL     OW69117   4.302  10.321   5.046
22407SOL    HW169118   4.211  10.289   5.050
22407SOL    HW269119   4.353  10.251   5.087
22408SOL     OW69120   3.662  12.361  12.524
22408SOL    HW169121   3.756  12.361  12.508
22408SOL    HW269122   3.639  12.454  12.528
22409SOL     OW69123  10.364  11.558  10.417
22409SOL    HW169124  10.268  11.555  10.421
22409SOL    HW269125  10.390  11.468  10.400
22410SOL     OW69126  14.775   0.250   4.793
22410SOL    HW169127  14.703   0.198   4.757
22410SOL    HW269128  14.761   0.338   4.757
22411SOL     OW69129  12.019   5.085   9.745
22411SOL    HW169130  12.088   5.090   9.811
22411SOL    HW269131  12.065   5.057   9.665
22412SOL     OW69132   6.109   3.722  13.250
22412SOL    HW169133   6.014   3.724  13.239
22412SOL    HW269134   6.141   3.787  13.188
22413SOL     OW69135  13.707   5.953   7.567
22413SOL    HW169136  13.676   5.984   7.653
22413SOL    HW269137  13.777   6.014   7.545
22414SOL     OW69138   2.633   7.895   2.764
22414SOL    HW169139   2.560   7.861   2.711
22414SOL    HW269140   2.617   7.989   2.768
22415SOL     OW69141  10.712  14.055  14.030
22415SOL    HW169142  10.768  14.026  13.959
22415SOL    HW269143  10.646  14.110  13.988
22416SOL     OW69144  13.377  13.736   8.921
22416SOL    HW169145  13.296  13.687   8.911
22416SOL    HW269146  13.414  13.740   8.832
22417SOL     OW69147  12.308   2.407   1.228
22417SOL    HW169148  12.296   2.396   1.322
22417SOL    HW269149  12.376   2.344   1.206
22418SOL     OW69150  12.769   1.547   0.897
22418SOL    HW169151  12.757   1.472   0.839
22418SOL    HW269152  12.680   1.573   0.922
22419SOL     OW69153   0.134  12.455   1.277
22419SOL    HW169154   0.187  12.408   1.341
22419SOL    HW269155   0.135  12.399   1.200
22420SOL     OW69156  10.904   3.560   4.416
22420SOL    HW169157  10.972   3.627   4.412
22420SOL    HW269158  10.887   3.548   4.509
22421SOL     OW69159   8.747   3.011  10.473
22421SOL    HW169160   8.785   3.097  10.491
22421SOL    HW269161   8.652   3.025  10.479
22422SOL     OW69162  13.580  13.936   8.512
22422SOL    HW169163  13.521  14.012   8.510
22422SOL    HW269164  13.601  13.919   8.421
22423SOL     OW69165   3.778   8.701   2.377
22423SOL    HW169166   3.871   8.686   2.363
22423SOL    HW269167   3.747   8.622   2.421
22424SOL     OW69168   4.361   2.996  13.327
22424SOL    HW169169   4.371   3.018  13.235
22424SOL    HW269170   4.445   2.958  13.352
22425SOL     OW69171  14.830   0.684  10.846
22425SOL    HW169172  14.860   0.703  10.935
22425SOL    HW269173  14.806   0.591  10.848
22426SOL     OW69174   7.676   7.842  14.484
22426SOL    HW169175   7.635   7.782  14.546
22426SOL    HW269176   7.640   7.928  14.506
22427SOL     OW69177   1.622   8.499  10.122
22427SOL    HW169178   1.675   8.568  10.082
22427SOL    HW269179   1.685   8.431  10.146
22428SOL     OW69180   0.410  13.439   8.732
22428SOL    HW169181   0.364  13.356   8.727
22428SOL    HW269182   0.355  13.494   8.789
22429SOL     OW69183   9.149  12.611   9.247
22429SOL    HW169184   9.235  12.632   9.212
22429SOL    HW269185   9.137  12.518   9.227
22430SOL     OW69186  12.845   6.465  13.919
22430SOL    HW169187  12.881   6.479  13.832
22430SOL    HW269188  12.913   6.417  13.967
22431SOL     OW69189  10.015   3.437   1.706
22431SOL    HW169190   9.944   3.485   1.749
22431SOL    HW269191  10.095   3.472   1.745
22432SOL     OW69192  12.262   3.348   9.147
22432SOL    HW169193  12.278   3.347   9.053
22432SOL    HW269194  12.193   3.282   9.160
22433SOL     OW69195   5.043  14.573   2.869
22433SOL    HW169196   5.138  14.575   2.882
22433SOL    HW269197   5.021  14.659   2.835
22434SOL     OW69198  14.591  10.205   4.079
22434SOL    HW169199  14.535  10.233   4.007
22434SOL    HW269200  14.669  10.169   4.036
22435SOL     OW69201  10.767  12.244   8.629
22435SOL    HW169202  10.793  12.173   8.688
22435SOL    HW269203  10.812  12.226   8.547
22436SOL     OW69204   8.024   0.818  10.828
22436SOL    HW169205   7.990   0.731  10.847
22436SOL    HW269206   7.949   0.877  10.841
22437SOL     OW69207   0.690   7.575  12.909
22437SOL    HW169208   0.607   7.620  12.928
22437SOL    HW269209   0.716   7.536  12.992
22438SOL     OW69210   9.877  13.111   6.499
22438SOL    HW169211   9.795  13.062   6.501
22438SOL    HW269212   9.859  13.187   6.444
22439SOL     OW69213   9.358   6.401   3.338
22439SOL    HW169214   9.395   6.356   3.414
22439SOL    HW269215   9.266   6.414   3.359
22440SOL     OW69216   4.664  13.520  10.581
22440SOL    HW169217   4.644  13.427  10.590
22440SOL    HW269218   4.663  13.554  10.670
22441SOL     OW69219   0.954  11.128   2.993
22441SOL    HW169220   1.021  11.179   2.947
22441SOL    HW269221   1.001  11.083   3.062
22442SOL     OW69222   5.646   9.953   2.172
22442SOL    HW169223   5.559   9.985   2.196
22442SOL    HW269224   5.630   9.883   2.109
22443SOL     OW69225  11.548  12.989   6.534
22443SOL    HW169226  11.463  12.974   6.492
22443SOL    HW269227  11.547  12.932   6.611
22444SOL     OW69228   0.634   9.513   1.136
22444SOL    HW169229   0.613   9.499   1.043
22444SOL    HW269230   0.726   9.487   1.143
22445SOL     OW69231   0.808   1.398  10.219
22445SOL    HW169232   0.900   1.417  10.203
22445SOL    HW269233   0.789   1.320  10.166
22446SOL     OW69234  10.949   5.798   9.445
22446SOL    HW169235  10.949   5.761   9.533
22446SOL    HW269236  11.041   5.798   9.418
22447SOL     OW69237  10.677   7.647  14.356
22447SOL    HW169238  10.644   7.606  14.276
22447SOL    HW269239  10.600   7.690  14.393
22448SOL     OW69240   3.435   2.593   0.630
22448SOL    HW169241   3.432   2.658   0.560
22448SOL    HW269242   3.350   2.549   0.627
22449SOL     OW69243   7.701   0.800   9.428
22449SOL    HW169244   7.755   0.850   9.489
22449SOL    HW269245   7.763   0.744   9.382
22450SOL     OW69246   7.969   5.594   8.118
22450SOL    HW169247   7.990   5.617   8.027
22450SOL    HW269248   7.987   5.673   8.168
22451SOL     OW69249   0.091   8.152   1.055
22451SOL    HW169250   0.065   8.060   1.061
22451SOL    HW269251   0.136   8.169   1.138
22452SOL     OW69252   0.287   8.432  12.320
22452SOL    HW169253   0.341   8.413  12.243
22452SOL    HW269254   0.307   8.524  12.340
22453SOL     OW69255  10.163   3.999   5.640
22453SOL    HW169256  10.239   3.999   5.698
22453SOL    HW269257  10.199   4.020   5.553
22454SOL     OW69258  10.592  12.077   3.021
22454SOL    HW169259  10.675  12.030   3.014
22454SOL    HW269260  10.559  12.053   3.108
22455SOL     OW69261   7.401   3.274  13.274
22455SOL    HW169262   7.445   3.240  13.352
22455SOL    HW269263   7.411   3.369  13.281
22456SOL     OW69264   9.951  13.255   0.576
22456SOL    HW169265   9.994  13.236   0.660
22456SOL    HW269266   9.960  13.174   0.526
22457SOL     OW69267   9.997   6.743   6.852
22457SOL    HW169268   9.918   6.713   6.898
22457SOL    HW269269   9.994   6.839   6.861
22458SOL     OW69270   9.566  12.938   3.329
22458SOL    HW169271   9.542  12.949   3.421
22458SOL    HW269272   9.506  12.872   3.295
22459SOL     OW69273   3.283   0.978  13.958
22459SOL    HW169274   3.337   1.046  13.998
22459SOL    HW269275   3.344   0.925  13.907
22460SOL     OW69276   7.521  13.354   5.840
22460SOL    HW169277   7.598  13.382   5.790
22460SOL    HW269278   7.549  13.275   5.885
22461SOL     OW69279  11.001   8.190   0.285
22461SOL    HW169280  10.999   8.098   0.312
22461SOL    HW269281  11.054   8.233   0.352
22462SOL     OW69282  10.876  14.548   7.780
22462SOL    HW169283  10.929  14.476   7.816
22462SOL    HW269284  10.939  14.605   7.737
22463SOL     OW69285   8.511  10.828   0.604
22463SOL    HW169286   8.538  10.915   0.573
22463SOL    HW269287   8.511  10.774   0.526
22464SOL     OW69288   3.791  14.094  11.337
22464SOL    HW169289   3.830  14.059  11.417
22464SOL    HW269290   3.825  14.183  11.331
22465SOL     OW69291  10.237  12.132  12.317
22465SOL    HW169292  10.249  12.202  12.381
22465SOL    HW269293  10.221  12.176  12.234
22466SOL     OW69294   9.982   1.698   0.985
22466SOL    HW169295   9.897   1.722   1.021
22466SOL    HW269296  10.039   1.771   1.007
22467SOL     OW69297  13.816   1.198   6.302
22467SOL    HW169298  13.797   1.247   6.222
22467SOL    HW269299  13.747   1.132   6.307
22468SOL     OW69300   3.144   8.570   9.078
22468SOL    HW169301   3.160   8.660   9.051
22468SOL    HW269302   3.073   8.540   9.022
22469SOL     OW69303   8.539   6.289   5.979
22469SOL    HW169304   8.569   6.201   6.002
22469SOL    HW269305   8.587   6.310   5.899
22470SOL     OW69306   9.786   1.214   2.764
22470SOL    HW169307   9.878   1.197   2.785
22470SOL    HW269308   9.768   1.161   2.687
22471SOL     OW69309   9.413   6.489   7.865
22471SOL    HW169310   9.452   6.566   7.825
22471SOL    HW269311   9.487   6.444   7.908
22472SOL     OW69312   8.021   5.569   9.509
22472SOL    HW169313   7.984   5.481   9.501
22472SOL    HW269314   8.100   5.567   9.456
22473SOL     OW69315  13.758   5.595   3.544
22473SOL    HW169316  13.801   5.589   3.629
22473SOL    HW269317  13.673   5.553   3.558
22474SOL     OW69318   1.311  14.008   6.721
22474SOL    HW169319   1.239  13.947   6.707
22474SOL    HW269320   1.314  14.020   6.816
22475SOL     OW69321   6.425   6.280   0.895
22475SOL    HW169322   6.365   6.205   0.895
22475SOL    HW269323   6.424   6.312   0.805
22476SOL     OW69324  10.929  12.812   0.410
22476SOL    HW169325  10.988  12.878   0.374
22476SOL    HW269326  10.913  12.841   0.500
22477SOL     OW69327   4.098   1.890   6.389
22477SOL    HW169328   4.006   1.902   6.364
22477SOL    HW269329   4.120   1.802   6.359
22478SOL     OW69330  14.472   6.802  11.023
22478SOL    HW169331  14.404   6.867  11.005
22478SOL    HW269332  14.428   6.717  11.013
22479SOL     OW69333  12.458   4.150   9.240
22479SOL    HW169334  12.499   4.133   9.155
22479SOL    HW269335  12.385   4.209   9.221
22480SOL     OW69336   9.015   2.570   5.309
22480SOL    HW169337   8.962   2.514   5.364
22480SOL    HW269338   9.100   2.574   5.353
22481SOL     OW69339   7.314   9.470   5.347
22481SOL    HW169340   7.275   9.557   5.340
22481SOL    HW269341   7.362   9.458   5.265
22482SOL     OW69342  11.588   9.511  12.701
22482SOL    HW169343  11.514   9.519  12.641
22482SOL    HW269344  11.646   9.446  12.660
22483SOL     OW69345   4.806  11.039   6.212
22483SOL    HW169346   4.858  11.094   6.153
22483SOL    HW269347   4.831  10.949   6.189
22484SOL     OW69348   5.166   8.015  12.266
22484SOL    HW169349   5.088   8.050  12.224
22484SOL    HW269350   5.168   7.923  12.242
22485SOL     OW69351   2.554   8.717   0.203
22485SOL    HW169352   2.628   8.735   0.261
22485SOL    HW269353   2.524   8.803   0.175
22486SOL     OW69354   8.266   5.865   7.012
22486SOL    HW169355   8.285   5.865   7.106
22486SOL    HW269356   8.179   5.826   7.005
22487SOL     OW69357   8.906  12.049   3.080
22487SOL    HW169358   8.871  12.022   2.995
22487SOL    HW269359   8.985  11.996   3.092
22488SOL     OW69360  14.455   1.432   6.622
22488SOL    HW169361  14.532   1.411   6.569
22488SOL    HW269362  14.490   1.480   6.697
22489SOL     OW69363   1.794  10.396   9.793
22489SOL    HW169364   1.753  10.310   9.804
22489SOL    HW269365   1.765  10.447   9.869
22490SOL     OW69366   1.460   8.103  10.057
22490SOL    HW169367   1.542   8.083  10.102
22490SOL    HW269368   1.434   8.189  10.090
22491SOL     OW69369  11.761   7.878   7.739
22491SOL    HW169370  11.807   7.913   7.816
22491SOL    HW269371  11.701   7.947   7.713
22492SOL     OW69372   8.769   4.233  11.416
22492SOL    HW169373   8.782   4.243  11.511
22492SOL    HW269374   8.840   4.176  11.387
22493SOL     OW69375  10.377   6.249  11.055
22493SOL    HW169376  10.471   6.233  11.069
22493SOL    HW269377  10.369   6.344  11.056
22494SOL     OW69378   2.428  11.661  13.075
22494SOL    HW169379   2.503  11.720  13.066
22494SOL    HW269380   2.448  11.588  13.016
22495SOL     OW69381   4.041  14.824  10.846
22495SOL    HW169382   4.042  14.808  10.940
22495SOL    HW269383   4.006   0.031  10.837
22496SOL     OW69384   7.988  13.237  11.512
22496SOL    HW169385   7.898  13.254  11.485
22496SOL    HW269386   7.989  13.257  11.605
22497SOL     OW69387  14.727   0.470   3.816
22497SOL    HW169388  14.806   0.519   3.837
22497SOL    HW269389  14.757   0.395   3.765
22498SOL     OW69390   6.163   2.828   5.716
22498SOL    HW169391   6.207   2.798   5.795
22498SOL    HW269392   6.104   2.897   5.745
22499SOL     OW69393   1.987   0.512   7.064
22499SOL    HW169394   1.947   0.439   7.111
22499SOL    HW269395   2.078   0.511   7.092
22500SOL     OW69396   5.026  13.274   9.167
22500SOL    HW169397   5.053  13.352   9.215
22500SOL    HW269398   5.031  13.203   9.232
22501SOL     OW69399  13.266  14.789   2.803
22501SOL    HW169400  13.198  14.742   2.754
22501SOL    HW269401  13.343  14.786   2.746
22502SOL     OW69402   3.144   2.740   8.072
22502SOL    HW169403   3.236   2.768   8.065
22502SOL    HW269404   3.094   2.816   8.040
22503SOL     OW69405   9.499  11.632   8.577
22503SOL    HW169406   9.576  11.591   8.538
22503SOL    HW269407   9.426  11.576   8.549
22504SOL     OW69408  13.975   1.462   1.196
22504SOL    HW169409  14.067   1.466   1.221
22504SOL    HW269410  13.929   1.512   1.263
22505SOL     OW69411   7.147  10.181   1.675
22505SOL    HW169412   7.127  10.219   1.760
22505SOL    HW269413   7.230  10.221   1.649
22506SOL     OW69414   0.333   1.857  12.594
22506SOL    HW169415   0.340   1.773  12.639
22506SOL    HW269416   0.351   1.922  12.662
22507SOL     OW69417   0.273   5.158  10.319
22507SOL    HW169418   0.255   5.122  10.406
22507SOL    HW269419   0.188   5.188  10.288
22508SOL     OW69420   1.842   2.788   3.121
22508SOL    HW169421   1.803   2.869   3.154
22508SOL    HW269422   1.783   2.760   3.051
22509SOL     OW69423  11.943   3.273  11.591
22509SOL    HW169424  11.994   3.335  11.540
22509SOL    HW269425  11.899   3.218  11.525
22510SOL     OW69426  12.571   7.511   7.861
22510SOL    HW169427  12.487   7.467   7.876
22510SOL    HW269428  12.602   7.477   7.777
22511SOL     OW69429  10.050  10.766   5.186
22511SOL    HW169430  10.023  10.763   5.277
22511SOL    HW269431  10.099  10.848   5.177
22512SOL     OW69432   1.385   3.370  12.085
22512SOL    HW169433   1.310   3.394  12.030
22512SOL    HW269434   1.422   3.293  12.043
22513SOL     OW69435   4.857   9.499  11.407
22513SOL    HW169436   4.840   9.484  11.499
22513SOL    HW269437   4.860   9.594  11.398
22514SOL     OW69438   0.097  11.666  12.772
22514SOL    HW169439   0.177  11.682  12.823
22514SOL    HW269440   0.077  11.574  12.787
22515SOL     OW69441  11.634  11.998   7.341
22515SOL    HW169442  11.568  11.957   7.397
22515SOL    HW269443  11.602  11.982   7.252
22516SOL     OW69444   5.027   3.233   1.315
22516SOL    HW169445   5.055   3.321   1.341
22516SOL    HW269446   4.938   3.246   1.280
22517SOL     OW69447   4.162   4.149  11.782
22517SOL    HW169448   4.182   4.143  11.875
22517SOL    HW269449   4.247   4.157  11.739
22518SOL     OW69450  12.054   0.875   3.786
22518SOL    HW169451  11.968   0.917   3.790
22518SOL    HW269452  12.045   0.810   3.716
22519SOL     OW69453   5.971  10.728  11.752
22519SOL    HW169454   6.037  10.691  11.694
22519SOL    HW269455   5.948  10.812  11.712
22520SOL     OW69456  12.288   6.945   8.251
22520SOL    HW169457  12.292   7.019   8.311
22520SOL    HW269458  12.256   6.983   8.169
22521SOL     OW69459   5.948   5.216   5.063
22521SOL    HW169460   6.028   5.165   5.079
22521SOL    HW269461   5.877   5.156   5.086
22522SOL     OW69462  13.144   2.505   2.950
22522SOL    HW169463  13.125   2.516   2.857
22522SOL    HW269464  13.069   2.544   2.995
22523SOL     OW69465  12.162   3.140  11.737
22523SOL    HW169466  12.141   3.047  11.744
22523SOL    HW269467  12.093   3.177  11.681
22524SOL     OW69468   5.407  11.228   5.355
22524SOL    HW169469   5.407  11.134   5.374
22524SOL    HW269470   5.316  11.255   5.367
22525SOL     OW69471  13.939   0.967  10.817
22525SOL    HW169472  13.928   0.914  10.738
22525SOL    HW269473  13.919   1.056  10.789
22526SOL     OW69474   8.062   5.246   6.234
22526SOL    HW169475   7.981   5.196   6.225
22526SOL    HW269476   8.096   5.221   6.320
22527SOL     OW69477   5.702   1.794  10.359
22527SOL    HW169478   5.630   1.855  10.374
22527SOL    HW269479   5.713   1.795  10.264
22528SOL     OW69480   8.919   1.054   1.242
22528SOL    HW169481   8.941   0.971   1.284
22528SOL    HW269482   8.971   1.055   1.162
22529SOL     OW69483  13.297  11.007   9.785
22529SOL    HW169484  13.354  11.084   9.793
22529SOL    HW269485  13.244  11.008   9.865
22530SOL     OW69486   8.961   2.961  10.316
22530SOL    HW169487   8.954   3.035  10.256
22530SOL    HW269488   8.877   2.961  10.363
22531SOL     OW69489   0.205  11.584   5.709
22531SOL    HW169490   0.169  11.529   5.779
22531SOL    HW269491   0.144  11.573   5.636
22532SOL     OW69492  13.714   4.694   7.612
22532SOL    HW169493  13.745   4.723   7.526
22532SOL    HW269494  13.743   4.603   7.618
22533SOL     OW69495   5.545  11.330   3.105
22533SOL    HW169496   5.557  11.386   3.182
22533SOL    HW269497   5.614  11.264   3.113
22534SOL     OW69498  13.348  11.986   0.603
22534SOL    HW169499  13.308  12.029   0.528
22534SOL    HW269500  13.298  11.905   0.614
22535SOL     OW69501  10.038  11.513  11.790
22535SOL    HW169502   9.983  11.541  11.718
22535SOL    HW269503  10.127  11.511  11.753
22536SOL     OW69504   4.135   3.654  11.970
22536SOL    HW169505   4.091   3.678  11.888
22536SOL    HW269506   4.198   3.725  11.984
22537SOL     OW69507  12.767   8.209   1.101
22537SOL    HW169508  12.721   8.226   1.183
22537SOL    HW269509  12.746   8.285   1.046
22538SOL     OW69510  13.194   4.093   9.077
22538SOL    HW169511  13.108   4.128   9.101
22538SOL    HW269512  13.202   4.012   9.126
22539SOL     OW69513   4.468  10.374  11.380
22539SOL    HW169514   4.443  10.349  11.292
22539SOL    HW269515   4.408  10.326  11.437
22540SOL     OW69516   8.004   8.610   5.531
22540SOL    HW169517   7.914   8.585   5.551
22540SOL    HW269518   8.000   8.647   5.443
22541SOL     OW69519  10.341   0.795   3.930
22541SOL    HW169520  10.433   0.815   3.914
22541SOL    HW269521  10.294   0.876   3.909
22542SOL     OW69522   4.150  11.504   5.824
22542SOL    HW169523   4.227  11.477   5.775
22542SOL    HW269524   4.128  11.591   5.788
22543SOL     OW69525   2.809   1.820   6.942
22543SOL    HW169526   2.837   1.760   6.872
22543SOL    HW269527   2.880   1.817   7.006
22544SOL     OW69528   6.339   9.424   8.244
22544SOL    HW169529   6.351   9.340   8.289
22544SOL    HW269530   6.419   9.473   8.264
22545SOL     OW69531   1.151  14.861   5.623
22545SOL    HW169532   1.120   0.043   5.687
22545SOL    HW269533   1.141   0.022   5.539
22546SOL     OW69534   1.309  11.698   4.428
22546SOL    HW169535   1.348  11.742   4.503
22546SOL    HW269536   1.248  11.634   4.466
22547SOL     OW69537  11.444   9.262   5.769
22547SOL    HW169538  11.451   9.184   5.714
22547SOL    HW269539  11.427   9.334   5.707
22548SOL     OW69540   4.305  10.544   4.096
22548SOL    HW169541   4.214  10.556   4.124
22548SOL    HW269542   4.327  10.625   4.049
22549SOL     OW69543   9.724   7.946   9.903
22549SOL    HW169544   9.683   7.867   9.870
22549SOL    HW269545   9.815   7.921   9.918
22550SOL     OW69546  13.894   7.879   9.524
22550SOL    HW169547  13.884   7.898   9.617
22550SOL    HW269548  13.959   7.809   9.520
22551SOL     OW69549   1.775   1.705  10.077
22551SOL    HW169550   1.796   1.637  10.141
22551SOL    HW269551   1.849   1.704  10.016
22552SOL     OW69552  10.574   1.313  14.271
22552SOL    HW169553  10.504   1.369  14.304
22552SOL    HW269554  10.543   1.284  14.185
22553SOL     OW69555   6.171   4.951   6.397
22553SOL    HW169556   6.153   4.919   6.485
22553SOL    HW269557   6.137   4.883   6.339
22554SOL     OW69558   9.374   1.910   3.424
22554SOL    HW169559   9.344   1.931   3.336
22554SOL    HW269560   9.441   1.976   3.443
22555SOL     OW69561  11.528   6.370   7.364
22555SOL    HW169562  11.482   6.371   7.280
22555SOL    HW269563  11.508   6.284   7.402
22556SOL     OW69564   0.283   8.167   4.191
22556SOL    HW169565   0.213   8.206   4.243
22556SOL    HW269566   0.277   8.073   4.210
22557SOL     OW69567  10.823  11.105   1.819
22557SOL    HW169568  10.786  11.192   1.801
22557SOL    HW269569  10.899  11.122   1.875
22558SOL     OW69570   1.477   9.065   1.156
22558SOL    HW169571   1.436   9.007   1.093
22558SOL    HW269572   1.454   9.153   1.126
22559SOL     OW69573  14.445  11.560  11.568
22559SOL    HW169574  14.446  11.491  11.501
22559SOL    HW269575  14.354  11.586  11.574
22560SOL     OW69576   6.201   3.746   9.363
22560SOL    HW169577   6.264   3.750   9.291
22560SOL    HW269578   6.238   3.682   9.424
22561SOL     OW69579   2.633   0.008  12.748
22561SOL    HW169580   2.671  14.853  12.828
22561SOL    HW269581   2.539  14.877  12.757
22562SOL     OW69582   9.090   1.904  13.821
22562SOL    HW169583   9.003   1.872  13.796
22562SOL    HW269584   9.106   1.863  13.906
22563SOL     OW69585  10.817   6.780   8.627
22563SOL    HW169586  10.815   6.843   8.556
22563SOL    HW269587  10.786   6.698   8.588
22564SOL     OW69588   7.038  12.860  11.968
22564SOL    HW169589   6.999  12.839  11.884
22564SOL    HW269590   7.131  12.873  11.949
22565SOL     OW69591   0.069   0.300   7.031
22565SOL    HW169592  14.861   0.274   7.051
22565SOL    HW269593   0.120   0.219   7.037
22566SOL     OW69594   2.595   6.426   9.097
22566SOL    HW169595   2.617   6.395   9.009
22566SOL    HW269596   2.673   6.472   9.127
22567SOL     OW69597  10.758  14.785   4.436
22567SOL    HW169598  10.699  14.710   4.438
22567SOL    HW269599  10.834  14.755   4.386
22568SOL     OW69600   4.835  10.320   6.012
22568SOL    HW169601   4.866  10.397   6.059
22568SOL    HW269602   4.798  10.354   5.931
22569SOL     OW69603  13.375  11.237   3.162
22569SOL    HW169604  13.438  11.299   3.124
22569SOL    HW269605  13.425  11.191   3.229
22570SOL     OW69606  11.600  12.995   3.829
22570SOL    HW169607  11.563  13.064   3.775
22570SOL    HW269608  11.555  12.915   3.802
22571SOL     OW69609   1.795   7.555   0.702
22571SOL    HW169610   1.717   7.502   0.682
22571SOL    HW269611   1.793   7.625   0.637
22572SOL     OW69612   8.698  14.415   7.960
22572SOL    HW169613   8.777  14.417   8.014
22572SOL    HW269614   8.687  14.505   7.931
22573SOL     OW69615  10.881   8.342   2.190
22573SOL    HW169616  10.848   8.340   2.280
22573SOL    HW269617  10.805   8.318   2.136
22574SOL     OW69618   2.049   6.947   1.104
22574SOL    HW169619   2.020   6.998   1.180
22574SOL    HW269620   2.014   6.994   1.029
22575SOL     OW69621  13.687   1.626   0.305
22575SOL    HW169622  13.757   1.605   0.244
22575SOL    HW269623  13.667   1.543   0.348
22576SOL     OW69624   9.600   3.473   1.672
22576SOL    HW169625   9.590   3.436   1.760
22576SOL    HW269626   9.679   3.526   1.678
22577SOL     OW69627  13.866  10.863  12.591
22577SOL    HW169628  13.848  10.894  12.502
22577SOL    HW269629  13.961  10.857  12.595
22578SOL     OW69630   4.235   9.489  11.348
22578SOL    HW169631   4.280   9.443  11.419
22578SOL    HW269632   4.210   9.419  11.287
22579SOL     OW69633   3.498  12.612  13.691
22579SOL    HW169634   3.482  12.585  13.782
22579SOL    HW269635   3.466  12.703  13.687
22580SOL     OW69636   1.149  12.660   7.362
22580SOL    HW169637   1.142  12.637   7.455
22580SOL    HW269638   1.147  12.755   7.360
22581SOL     OW69639   9.175   6.204   8.460
22581SOL    HW169640   9.140   6.151   8.388
22581SOL    HW269641   9.125   6.285   8.457
22582SOL     OW69642  13.202  14.464   2.259
22582SOL    HW169643  13.268  14.460   2.328
22582SOL    HW269644  13.163  14.551   2.269
22583SOL     OW69645   0.549   9.696   7.064
22583SOL    HW169646   0.515   9.714   6.976
22583SOL    HW269647   0.522   9.772   7.116
22584SOL     OW69648  12.511  10.269   8.868
22584SOL    HW169649  12.464  10.345   8.903
22584SOL    HW269650  12.451  10.196   8.880
22585SOL     OW69651   3.353  13.755   6.566
22585SOL    HW169652   3.437  13.782   6.529
22585SOL    HW269653   3.306  13.715   6.493
22586SOL     OW69654  14.686  11.743   7.370
22586SOL    HW169655  14.610  11.788   7.408
22586SOL    HW269656  14.757  11.761   7.432
22587SOL     OW69657  12.318   9.598   1.155
22587SOL    HW169658  12.263   9.559   1.087
22587SOL    HW269659  12.363   9.524   1.195
22588SOL     OW69660   6.896   8.535   2.678
22588SOL    HW169661   6.941   8.530   2.762
22588SOL    HW269662   6.805   8.556   2.700
22589SOL     OW69663   9.924   2.261   7.750
22589SOL    HW169664   9.963   2.174   7.762
22589SOL    HW269665   9.841   2.257   7.798
22590SOL     OW69666  14.347   9.587   8.683
22590SOL    HW169667  14.334   9.676   8.649
22590SOL    HW269668  14.434   9.589   8.722
22591SOL     OW69669   1.563   7.083  10.053
22591SOL    HW169670   1.638   7.112  10.000
22591SOL    HW269671   1.528   7.164  10.091
22592SOL     OW69672  10.515   8.031   2.144
22592SOL    HW169673  10.478   8.092   2.208
22592SOL    HW269674  10.576   8.084   2.092
22593SOL     OW69675   9.888   2.338   6.210
22593SOL    HW169676   9.957   2.346   6.275
22593SOL    HW269677   9.933   2.306   6.131
22594SOL     OW69678   2.797   2.796   0.357
22594SOL    HW169679   2.873   2.817   0.411
22594SOL    HW269680   2.732   2.761   0.418
22595SOL     OW69681   0.612   9.865  12.043
22595SOL    HW169682   0.550   9.936  12.028
22595SOL    HW269683   0.698   9.907  12.041
22596SOL     OW69684   3.932   6.340   1.755
22596SOL    HW169685   3.909   6.407   1.691
22596SOL    HW269686   4.001   6.289   1.713
22597SOL     OW69687  13.258   9.355   5.590
22597SOL    HW169688  13.210   9.297   5.649
22597SOL    HW269689  13.263   9.438   5.636
22598SOL     OW69690   4.483   4.158   9.109
22598SOL    HW169691   4.549   4.123   9.169
22598SOL    HW269692   4.434   4.082   9.079
22599SOL     OW69693   9.018   8.812   9.097
22599SOL    HW169694   9.076   8.749   9.056
22599SOL    HW269695   9.065   8.843   9.174
22600SOL     OW69696   9.768   0.688   0.282
22600SOL    HW169697   9.769   0.708   0.376
22600SOL    HW269698   9.826   0.612   0.274
22601SOL     OW69699   1.520   6.468   9.680
22601SOL    HW169700   1.449   6.455   9.616
22601SOL    HW269701   1.549   6.379   9.702
22602SOL     OW69702   8.080  10.262   4.605
22602SOL    HW169703   8.131  10.306   4.537
22602SOL    HW269704   8.127  10.280   4.686
22603SOL     OW69705   1.141   3.922   3.048
22603SOL    HW169706   1.236   3.929   3.043
22603SOL    HW269707   1.125   3.875   3.130
22604SOL     OW69708   4.726  12.098   2.487
22604SOL    HW169709   4.718  12.050   2.570
22604SOL    HW269710   4.686  12.040   2.422
22605SOL     OW69711   7.852   0.909   6.504
22605SOL    HW169712   7.831   0.985   6.558
22605SOL    HW269713   7.867   0.838   6.567
22606SOL     OW69714   6.512  13.474   9.078
22606SOL    HW169715   6.527  13.390   9.120
22606SOL    HW269716   6.418  13.477   9.063
22607SOL     OW69717   3.690   1.290   0.346
22607SOL    HW169718   3.597   1.268   0.350
22607SOL    HW269719   3.734   1.206   0.335
22608SOL     OW69720   3.647  10.325   6.884
22608SOL    HW169721   3.598  10.319   6.966
22608SOL    HW269722   3.630  10.242   6.839
22609SOL     OW69723   3.840   6.687   4.777
22609SOL    HW169724   3.847   6.601   4.737
22609SOL    HW269725   3.857   6.672   4.870
22610SOL     OW69726  10.617  12.718  12.143
22610SOL    HW169727  10.562  12.649  12.105
22610SOL    HW269728  10.705  12.699  12.111
22611SOL     OW69729   9.641  11.943  14.351
22611SOL    HW169730   9.621  11.911  14.439
22611SOL    HW269731   9.673  12.032  14.365
22612SOL     OW69732   5.241   4.071   3.575
22612SOL    HW169733   5.170   4.065   3.512
22612SOL    HW269734   5.299   4.138   3.538
22613SOL     OW69735   7.506   2.438   8.313
22613SOL    HW169736   7.427   2.481   8.278
22613SOL    HW269737   7.576   2.464   8.253
22614SOL     OW69738   1.729  13.366   1.656
22614SOL    HW169739   1.796  13.301   1.677
22614SOL    HW269740   1.696  13.396   1.741
22615SOL     OW69741  13.713   1.650   2.455
22615SOL    HW169742  13.798   1.630   2.416
22615SOL    HW269743  13.650   1.620   2.390
22616SOL     OW69744   8.326   7.449   3.527
22616SOL    HW169745   8.398   7.509   3.506
22616SOL    HW269746   8.296   7.417   3.442
22617SOL     OW69747  14.131   1.501   7.150
22617SOL    HW169748  14.105   1.572   7.090
22617SOL    HW269749  14.226   1.492   7.136
22618SOL     OW69750  14.106   2.859  12.899
22618SOL    HW169751  14.199   2.884  12.893
22618SOL    HW269752  14.061   2.941  12.919
22619SOL     OW69753  11.607   6.212   5.756
22619SOL    HW169754  11.536   6.276   5.755
22619SOL    HW269755  11.621   6.191   5.663
22620SOL     OW69756   7.123  12.363   4.907
22620SOL    HW169757   7.132  12.270   4.927
22620SOL    HW269758   7.043  12.368   4.854
22621SOL     OW69759   9.206   5.061   0.074
22621SOL    HW169760   9.252   5.062   0.158
22621SOL    HW269761   9.237   5.139   0.028
22622SOL     OW69762  12.297  11.266   5.493
22622SOL    HW169763  12.285  11.348   5.540
22622SOL    HW269764  12.211  11.225   5.494
22623SOL     OW69765   9.491   2.797   0.131
22623SOL    HW169766   9.460   2.723   0.183
22623SOL    HW269767   9.424   2.864   0.144
22624SOL     OW69768   3.457   7.492   9.903
22624SOL    HW169769   3.426   7.583   9.902
22624SOL    HW269770   3.515   7.485   9.827
22625SOL     OW69771  11.029   5.668   9.904
22625SOL    HW169772  11.072   5.753   9.917
22625SOL    HW269773  10.936   5.686   9.917
22626SOL     OW69774  13.242   5.948  10.923
22626SOL    HW169775  13.240   6.039  10.953
22626SOL    HW269776  13.185   5.947  10.846
22627SOL     OW69777   3.682   4.601   5.232
22627SOL    HW169778   3.707   4.691   5.211
22627SOL    HW269779   3.587   4.606   5.245
22628SOL     OW69780   1.865   7.882   2.511
22628SOL    HW169781   1.800   7.834   2.562
22628SOL    HW269782   1.932   7.817   2.490
22629SOL     OW69783   3.018  11.193   8.939
22629SOL    HW169784   2.956  11.210   8.868
22629SOL    HW269785   3.020  11.097   8.946
22630SOL     OW69786   9.965   6.342   4.878
22630SOL    HW169787   9.959   6.260   4.829
22630SOL    HW269788   9.874   6.368   4.891
22631SOL     OW69789   8.272  11.378   5.543
22631SOL    HW169790   8.350  11.391   5.597
22631SOL    HW269791   8.300  11.318   5.474
22632SOL     OW69792  13.626  12.571  11.879
22632SOL    HW169793  13.630  12.665  11.859
22632SOL    HW269794  13.577  12.533  11.806
22633SOL     OW69795   7.538   8.698   3.122
22633SOL    HW169796   7.623   8.725   3.088
22633SOL    HW269797   7.475   8.758   3.082
22634SOL     OW69798   3.576  13.634   3.376
22634SOL    HW169799   3.597  13.542   3.389
22634SOL    HW269800   3.542  13.639   3.287
22635SOL     OW69801   8.480  11.251   2.963
22635SOL    HW169802   8.420  11.300   3.019
22635SOL    HW269803   8.424  11.189   2.917
22636SOL     OW69804  13.620  10.651   6.764
22636SOL    HW169805  13.657  10.563   6.776
22636SOL    HW269806  13.693  10.704   6.730
22637SOL     OW69807   0.311   7.019   9.051
22637SOL    HW169808   0.388   6.971   9.080
22637SOL    HW269809   0.327   7.038   8.959
22638SOL     OW69810  13.859   7.205   4.713
22638SOL    HW169811  13.929   7.265   4.686
22638SOL    HW269812  13.779   7.256   4.703
22639SOL     OW69813  11.942   3.009  13.327
22639SOL    HW169814  11.920   3.078  13.264
22639SOL    HW269815  11.939   2.928  13.275
22640SOL     OW69816   3.526   8.153   5.074
22640SOL    HW169817   3.581   8.225   5.043
22640SOL    HW269818   3.447   8.197   5.107
22641SOL     OW69819  10.892   2.162   4.945
22641SOL    HW169820  10.798   2.164   4.929
22641SOL    HW269821  10.923   2.249   4.920
22642SOL     OW69822   5.631   9.373  12.966
22642SOL    HW169823   5.561   9.362  13.030
22642SOL    HW269824   5.683   9.293  12.973
22643SOL     OW69825   8.399  12.941  11.913
22643SOL    HW169826   8.398  13.033  11.886
22643SOL    HW269827   8.307  12.916  11.914
22644SOL     OW69828   5.697   5.930   9.108
22644SOL    HW169829   5.638   5.996   9.143
22644SOL    HW269830   5.659   5.847   9.135
22645SOL     OW69831   5.473   7.412   8.679
22645SOL    HW169832   5.497   7.467   8.753
22645SOL    HW269833   5.542   7.426   8.614
22646SOL     OW69834   9.160  12.535  13.475
22646SOL    HW169835   9.225  12.468  13.457
22646SOL    HW269836   9.102  12.496  13.540
22647SOL     OW69837   8.883   4.492   1.042
22647SOL    HW169838   8.898   4.398   1.044
22647SOL    HW269839   8.944   4.528   1.107
22648SOL     OW69840  11.865  13.801   1.618
22648SOL    HW169841  11.864  13.713   1.581
22648SOL    HW269842  11.773  13.824   1.630
22649SOL     OW69843   7.739   2.865   5.895
22649SOL    HW169844   7.703   2.897   5.978
22649SOL    HW269845   7.826   2.832   5.918
22650SOL     OW69846  13.905  11.449  10.569
22650SOL    HW169847  13.989  11.420  10.533
22650SOL    HW269848  13.878  11.521  10.512
22651SOL     OW69849   9.882   7.277  13.437
22651SOL    HW169850   9.896   7.262  13.531
22651SOL    HW269851   9.881   7.373  13.428
22652SOL     OW69852   1.932   3.780  10.704
22652SOL    HW169853   1.862   3.827  10.751
22652SOL    HW269854   2.006   3.841  10.704
22653SOL     OW69855   8.639   1.269  11.882
22653SOL    HW169856   8.666   1.352  11.844
22653SOL    HW269857   8.553   1.287  11.921
22654SOL     OW69858   3.069   0.120   1.561
22654SOL    HW169859   3.027   0.199   1.528
22654SOL    HW269860   3.015   0.048   1.526
22655SOL     OW69861   6.158   1.123  14.414
22655SOL    HW169862   6.239   1.088  14.376
22655SOL    HW269863   6.141   1.067  14.490
22656SOL     OW69864  14.472   5.552  13.219
22656SOL    HW169865  14.459   5.620  13.152
22656SOL    HW269866  14.441   5.592  13.300
22657SOL     OW69867   1.225   8.829   5.989
22657SOL    HW169868   1.276   8.884   5.930
22657SOL    HW269869   1.279   8.751   6.002
22658SOL     OW69870   6.287   1.400   2.659
22658SOL    HW169871   6.311   1.338   2.728
22658SOL    HW269872   6.191   1.406   2.666
22659SOL     OW69873   2.118   8.753   6.336
22659SOL    HW169874   2.162   8.668   6.338
22659SOL    HW269875   2.188   8.816   6.319
22660SOL     OW69876  14.392   3.931  13.836
22660SOL    HW169877  14.358   3.931  13.746
22660SOL    HW269878  14.382   4.022  13.866
22661SOL     OW69879   1.122  11.331   2.005
22661SOL    HW169880   1.047  11.342   2.063
22661SOL    HW269881   1.094  11.267   1.940
22662SOL     OW69882  12.294   5.793  10.198
22662SOL    HW169883  12.202   5.816  10.191
22662SOL    HW269884  12.325   5.791  10.107
22663SOL     OW69885   0.368   1.970   4.457
22663SOL    HW169886   0.395   2.026   4.531
22663SOL    HW269887   0.392   2.021   4.379
22664SOL     OW69888   2.092   7.752   8.405
22664SOL    HW169889   2.169   7.806   8.390
22664SOL    HW269890   2.023   7.793   8.352
22665SOL     OW69891   7.718  12.287  11.917
22665SOL    HW169892   7.767  12.313  11.840
22665SOL    HW269893   7.673  12.206  11.892
22666SOL     OW69894  14.019  14.348  11.294
22666SOL    HW169895  14.106  14.321  11.326
22666SOL    HW269896  14.028  14.348  11.198
22667SOL     OW69897  10.465   8.276   5.626
22667SOL    HW169898  10.436   8.315   5.709
22667SOL    HW269899  10.385   8.273   5.573
22668SOL     OW69900   6.925   4.969   4.856
22668SOL    HW169901   6.955   4.991   4.944
22668SOL    HW269902   7.001   4.983   4.800
22669SOL     OW69903   0.713   0.569   9.408
22669SOL    HW169904   0.804   0.560   9.379
22669SOL    HW269905   0.710   0.652   9.454
22670SOL     OW69906  11.991   5.881   3.957
22670SOL    HW169907  12.069   5.832   3.934
22670SOL    HW269908  11.970   5.853   4.046
22671SOL     OW69909   8.984   0.651   6.782
22671SOL    HW169910   9.064   0.665   6.731
22671SOL    HW269911   8.966   0.736   6.822
22672SOL     OW69912   3.129   6.913  14.110
22672SOL    HW169913   3.126   6.903  14.206
22672SOL    HW269914   3.193   6.848  14.081
22673SOL     OW69915   8.951   4.155  12.170
22673SOL    HW169916   8.953   4.064  12.197
22673SOL    HW269917   8.895   4.198  12.234
22674SOL     OW69918   9.135   9.245   2.688
22674SOL    HW169919   9.058   9.224   2.740
22674SOL    HW269920   9.101   9.289   2.610
22675SOL     OW69921  13.516  10.174   0.653
22675SOL    HW169922  13.486  10.262   0.674
22675SOL    HW269923  13.464  10.116   0.709
22676SOL     OW69924  11.892  13.512   9.470
22676SOL    HW169925  11.980  13.512   9.510
22676SOL    HW269926  11.834  13.490   9.543
22677SOL     OW69927   7.359  14.213   2.386
22677SOL    HW169928   7.307  14.283   2.426
22677SOL    HW269929   7.335  14.134   2.435
22678SOL     OW69930   9.401   6.841   4.130
22678SOL    HW169931   9.327   6.784   4.151
22678SOL    HW269932   9.420   6.823   4.038
22679SOL     OW69933  13.111   9.430  11.896
22679SOL    HW169934  13.140   9.416  11.986
22679SOL    HW269935  13.063   9.350  11.873
22680SOL     OW69936   2.112  13.667  14.617
22680SOL    HW169937   2.165  13.671  14.537
22680SOL    HW269938   2.042  13.731  14.603
22681SOL     OW69939   2.946   1.567  11.932
22681SOL    HW169940   2.856   1.545  11.910
22681SOL    HW269941   2.942   1.598  12.023
22682SOL     OW69942  10.875   2.258  12.645
22682SOL    HW169943  10.809   2.283  12.710
22682SOL    HW269944  10.956   2.250  12.696
22683SOL     OW69945   3.399   1.517  13.261
22683SOL    HW169946   3.450   1.474  13.329
22683SOL    HW269947   3.398   1.454  13.189
22684SOL     OW69948   5.955  14.607   0.456
22684SOL    HW169949   6.012  14.673   0.416
22684SOL    HW269950   5.874  14.655   0.476
22685SOL     OW69951   2.755   3.542  11.585
22685SOL    HW169952   2.842   3.563  11.551
22685SOL    HW269953   2.733   3.458  11.544
22686SOL     OW69954   9.630   2.587   6.664
22686SOL    HW169955   9.651   2.561   6.575
22686SOL    HW269956   9.660   2.677   6.672
22687SOL     OW69957   1.872  10.681   2.772
22687SOL    HW169958   1.952  10.633   2.752
22687SOL    HW269959   1.820  10.621   2.826
22688SOL     OW69960  13.706  11.921   0.310
22688SOL    HW169961  13.782  11.976   0.289
22688SOL    HW269962  13.635  11.984   0.325
22689SOL     OW69963  14.582   9.442   3.601
22689SOL    HW169964  14.571   9.532   3.571
22689SOL    HW269965  14.574   9.389   3.521
22690SOL     OW69966   8.690  13.628  14.567
22690SOL    HW169967   8.781  13.653  14.582
22690SOL    HW269968   8.659  13.599  14.653
22691SOL     OW69969   1.953   6.919   9.883
22691SOL    HW169970   1.877   6.963   9.846
22691SOL    HW269971   1.930   6.826   9.880
22692SOL     OW69972   4.836  12.471  11.996
22692SOL    HW169973   4.828  12.433  11.909
22692SOL    HW269974   4.854  12.397  12.054
22693SOL     OW69975   9.477   1.783  13.464
22693SOL    HW169976   9.415   1.776  13.536
22693SOL    HW269977   9.526   1.863  13.482
22694SOL     OW69978  10.394   1.826   4.414
22694SOL    HW169979  10.403   1.902   4.472
22694SOL    HW269980  10.326   1.852   4.351
22695SOL     OW69981   7.530   1.738   2.110
22695SOL    HW169982   7.576   1.660   2.143
22695SOL    HW269983   7.438   1.710   2.104
22696SOL     OW69984   7.023  10.930   7.571
22696SOL    HW169985   7.069  10.846   7.565
22696SOL    HW269986   7.089  10.995   7.550
22697SOL     OW69987   9.154   7.073  11.992
22697SOL    HW169988   9.072   7.023  11.986
22697SOL    HW269989   9.190   7.050  12.078
22698SOL     OW69990  10.388  10.742  11.020
22698SOL    HW169991  10.365  10.827  10.981
22698SOL    HW269992  10.306  10.712  11.061
22699SOL     OW69993   9.484   6.211   4.662
22699SOL    HW169994   9.396   6.246   4.650
22699SOL    HW269995   9.479   6.122   4.626
22700SOL     OW69996   6.528   4.693   5.663
22700SOL    HW169997   6.619   4.690   5.633
22700SOL    HW269998   6.521   4.620   5.725
22701SOL     OW69999  12.831   7.820   3.082
22701SOL    HW170000  12.843   7.738   3.034
22701SOL    HW270001  12.803   7.793   3.169
22702SOL     OW70002  10.531  11.582  13.284
22702SOL    HW170003  10.517  11.522  13.357
22702SOL    HW270004  10.624  11.605  13.289
22703SOL     OW70005  13.370   0.244   7.038
22703SOL    HW170006  13.327   0.193   7.106
22703SOL    HW270007  13.464   0.234   7.056
22704SOL     OW70008   6.031   4.060   3.848
22704SOL    HW170009   6.036   4.118   3.771
22704SOL    HW270010   6.023   4.120   3.922
22705SOL     OW70011  11.781  14.321   4.685
22705SOL    HW170012  11.765  14.398   4.630
22705SOL    HW270013  11.750  14.248   4.632
22706SOL     OW70014   0.283   0.367   2.010
22706SOL    HW170015   0.199   0.370   2.056
22706SOL    HW270016   0.329   0.446   2.040
22707SOL     OW70017   2.891   1.667   7.570
22707SOL    HW170018   2.848   1.753   7.563
22707SOL    HW270019   2.984   1.688   7.578
22708SOL     OW70020  11.613   9.249  10.253
22708SOL    HW170021  11.606   9.160  10.217
22708SOL    HW270022  11.701   9.252  10.290
22709SOL     OW70023   3.517   7.827   9.605
22709SOL    HW170024   3.450   7.760   9.621
22709SOL    HW270025   3.513   7.883   9.682
22710SOL     OW70026   7.918   1.020   4.050
22710SOL    HW170027   7.853   1.060   3.992
22710SOL    HW270028   7.888   1.042   4.138
22711SOL     OW70029  12.395  10.913  14.748
22711SOL    HW170030  12.420  10.964  14.825
22711SOL    HW270031  12.454  10.838  14.748
22712SOL     OW70032   1.126  14.513   9.737
22712SOL    HW170033   1.120  14.454   9.812
22712SOL    HW270034   1.041  14.505   9.693
22713SOL     OW70035   4.244   0.395   9.171
22713SOL    HW170036   4.335   0.365   9.173
22713SOL    HW270037   4.242   0.462   9.103
22714SOL     OW70038   5.878   1.888  14.565
22714SOL    HW170039   5.902   1.944  14.638
22714SOL    HW270040   5.956   1.834  14.550
22715SOL     OW70041  14.762   7.479   7.009
22715SOL    HW170042  14.728   7.443   6.927
22715SOL    HW270043  14.843   7.430   7.024
22716SOL     OW70044  11.109   3.153  10.004
22716SOL    HW170045  11.037   3.211  10.030
22716SOL    HW270046  11.152   3.200   9.932
22717SOL     OW70047  13.196   4.927   2.799
22717SOL    HW170048  13.162   4.841   2.826
22717SOL    HW270049  13.238   4.911   2.714
22718SOL     OW70050  13.849  11.505   1.377
22718SOL    HW170051  13.772  11.466   1.418
22718SOL    HW270052  13.815  11.565   1.312
22719SOL     OW70053   5.324   9.146   6.059
22719SOL    HW170054   5.384   9.170   6.130
22719SOL    HW270055   5.378   9.093   6.000
22720SOL     OW70056   3.973   6.063   8.117
22720SOL    HW170057   4.029   6.033   8.047
22720SOL    HW270058   3.884   6.038   8.089
22721SOL     OW70059   9.366   5.103   2.514
22721SOL    HW170060   9.292   5.042   2.512
22721SOL    HW270061   9.441   5.051   2.483
22722SOL     OW70062  13.803  14.677   4.285
22722SOL    HW170063  13.751  14.604   4.320
22722SOL    HW270064  13.791  14.670   4.190
22723SOL     OW70065   0.662   7.286   8.763
22723SOL    HW170066   0.580   7.286   8.813
22723SOL    HW270067   0.707   7.366   8.790
22724SOL     OW70068   0.711   6.221  11.779
22724SOL    HW170069   0.753   6.307  11.780
22724SOL    HW270070   0.693   6.204  11.687
22725SOL     OW70071   5.877   4.858  14.162
22725SOL    HW170072   5.968   4.829  14.175
22725SOL    HW270073   5.881   4.917  14.087
22726SOL     OW70074   2.138  10.207   7.623
22726SOL    HW170075   2.106  10.222   7.535
22726SOL    HW270076   2.092  10.272   7.677
22727SOL     OW70077  11.511   1.951   0.180
22727SOL    HW170078  11.522   1.860   0.152
22727SOL    HW270079  11.431   1.979   0.136
22728SOL     OW70080  10.035   6.006   7.059
22728SOL    HW170081   9.951   6.024   7.101
22728SOL    HW270082  10.013   5.981   6.970
22729SOL     OW70083   9.952   6.882  14.407
22729SOL    HW170084  10.026   6.871  14.347
22729SOL    HW270085   9.950   6.802  14.459
22730SOL     OW70086   0.246  12.549  12.652
22730SOL    HW170087   0.209  12.497  12.580
22730SOL    HW270088   0.278  12.629  12.610
22731SOL     OW70089   9.380   0.089   3.719
22731SOL    HW170090   9.287   0.065   3.714
22731SOL    HW270091   9.387   0.168   3.665
22732SOL     OW70092   5.134   1.830  12.621
22732SOL    HW170093   5.158   1.918  12.647
22732SOL    HW270094   5.049   1.840  12.577
22733SOL     OW70095   5.327   1.961   5.189
22733SOL    HW170096   5.291   1.984   5.104
22733SOL    HW270097   5.308   2.036   5.245
22734SOL     OW70098   3.384   5.269   7.849
22734SOL    HW170099   3.305   5.316   7.824
22734SOL    HW270100   3.389   5.195   7.788
22735SOL     OW70101   2.822   7.766   3.367
22735SOL    HW170102   2.882   7.779   3.293
22735SOL    HW270103   2.771   7.689   3.343
22736SOL     OW70104   5.685  12.826  14.547
22736SOL    HW170105   5.627  12.763  14.590
22736SOL    HW270106   5.690  12.796  14.457
22737SOL     OW70107   8.401  13.178  11.808
22737SOL    HW170108   8.445  13.176  11.723
22737SOL    HW270109   8.351  13.260  11.807
22738SOL     OW70110   2.876  10.596  13.348
22738SOL    HW170111   2.967  10.607  13.320
22738SOL    HW270112   2.835  10.680  13.327
22739SOL     OW70113  13.969   5.631   6.754
22739SOL    HW170114  14.018   5.661   6.830
22739SOL    HW270115  13.886   5.679   6.758
22740SOL     OW70116   0.065   5.366   3.116
22740SOL    HW170117   0.132   5.433   3.132
22740SOL    HW270118  14.878   5.386   3.179
22741SOL     OW70119  12.102   4.921   1.194
22741SOL    HW170120  12.097   5.016   1.204
22741SOL    HW270121  12.074   4.886   1.278
22742SOL     OW70122   2.470  12.563   7.526
22742SOL    HW170123   2.508  12.557   7.613
22742SOL    HW270124   2.540  12.536   7.467
22743SOL     OW70125  12.758  14.395   5.348
22743SOL    HW170126  12.728  14.306   5.327
22743SOL    HW270127  12.685  14.451   5.322
22744SOL     OW70128   8.197  14.755  13.769
22744SOL    HW170129   8.222  14.666  13.745
22744SOL    HW270130   8.280  14.801  13.781
22745SOL     OW70131  11.249   2.121   9.508
22745SOL    HW170132  11.259   2.041   9.456
22745SOL    HW270133  11.335   2.134   9.549
22746SOL     OW70134   5.395   5.448   6.036
22746SOL    HW170135   5.428   5.528   5.996
22746SOL    HW270136   5.340   5.479   6.109
22747SOL     OW70137   5.550   7.173   6.831
22747SOL    HW170138   5.517   7.182   6.741
22747SOL    HW270139   5.543   7.079   6.849
22748SOL     OW70140   0.533   7.051  13.640
22748SOL    HW170141   0.582   6.969  13.637
22748SOL    HW270142   0.499   7.055  13.730
22749SOL     OW70143   2.414   5.775  12.344
22749SOL    HW170144   2.463   5.769  12.426
22749SOL    HW270145   2.479   5.758  12.276
22750SOL     OW70146   4.665   3.032  10.655
22750SOL    HW170147   4.649   3.104  10.716
22750SOL    HW270148   4.647   3.069  10.568
22751SOL     OW70149   6.705   8.733  13.027
22751SOL    HW170150   6.777   8.687  12.984
22751SOL    HW270151   6.719   8.825  13.005
22752SOL     OW70152  11.251  10.187   0.842
22752SOL    HW170153  11.181  10.138   0.798
22752SOL    HW270154  11.221  10.193   0.933
22753SOL     OW70155  11.254   7.918   3.906
22753SOL    HW170156  11.259   7.967   3.824
22753SOL    HW270157  11.307   7.969   3.968
22754SOL     OW70158   0.498   3.901  14.443
22754SOL    HW170159   0.428   3.966  14.430
22754SOL    HW270160   0.572   3.952  14.476
22755SOL     OW70161  10.618   1.249   9.007
22755SOL    HW170162  10.645   1.183   9.070
22755SOL    HW270163  10.677   1.238   8.932
22756SOL     OW70164   8.163   5.485   3.358
22756SOL    HW170165   8.230   5.446   3.302
22756SOL    HW270166   8.171   5.438   3.441
22757SOL     OW70167   9.771   6.570   4.353
22757SOL    HW170168   9.679   6.548   4.370
22757SOL    HW270169   9.791   6.524   4.271
22758SOL     OW70170  14.858   0.829  10.256
22758SOL    HW170171   0.066   0.855  10.272
22758SOL    HW270172  14.864   0.741  10.219
22759SOL     OW70173   5.886   6.883   5.996
22759SOL    HW170174   5.855   6.799   5.963
22759SOL    HW270175   5.847   6.890   6.083
22760SOL     OW70176  11.691  11.704   7.611
22760SOL    HW170177  11.700  11.797   7.629
22760SOL    HW270178  11.658  11.667   7.693
22761SOL     OW70179   5.989  10.649   5.089
22761SOL    HW170180   6.026  10.626   5.174
22761SOL    HW270181   5.904  10.605   5.087
22762SOL     OW70182  12.040   3.439   4.436
22762SOL    HW170183  12.058   3.390   4.517
22762SOL    HW270184  11.980   3.508   4.463
22763SOL     OW70185  10.126  11.826   1.972
22763SOL    HW170186  10.102  11.894   1.909
22763SOL    HW270187  10.204  11.860   2.015
22764SOL     OW70188   8.030   5.934   6.282
22764SOL    HW170189   8.053   5.897   6.197
22764SOL    HW270190   7.982   5.865   6.326
22765SOL     OW70191   0.087   4.712  11.713
22765SOL    HW170192   0.089   4.731  11.807
22765SOL    HW270193   0.149   4.775  11.675
22766SOL     OW70194   2.691   0.628   3.376
22766SOL    HW170195   2.713   0.571   3.302
22766SOL    HW270196   2.645   0.702   3.337
22767SOL     OW70197   2.663  11.292   6.168
22767SOL    HW170198   2.682  11.206   6.204
22767SOL    HW270199   2.580  11.282   6.122
22768SOL     OW70200   7.971   2.296  14.110
22768SOL    HW170201   7.913   2.324  14.040
22768SOL    HW270202   7.959   2.361  14.179
22769SOL     OW70203   5.355  13.215   9.149
22769SOL    HW170204   5.306  13.141   9.114
22769SOL    HW270205   5.358  13.279   9.077
22770SOL     OW70206   4.369  13.637   3.640
22770SOL    HW170207   4.417  13.561   3.674
22770SOL    HW270208   4.425  13.670   3.570
22771SOL     OW70209   7.963   5.457   0.997
22771SOL    HW170210   7.901   5.414   0.937
22771SOL    HW270211   7.955   5.409   1.079
22772SOL     OW70212   3.398   6.045   2.308
22772SOL    HW170213   3.394   6.028   2.214
22772SOL    HW270214   3.380   5.960   2.349
22773SOL     OW70215   4.942   7.885  11.308
22773SOL    HW170216   4.983   7.920  11.228
22773SOL    HW270217   4.954   7.790  11.301
22774SOL     OW70218  14.568   5.889  12.699
22774SOL    HW170219  14.516   5.861  12.624
22774SOL    HW270220  14.524   5.850  12.775
22775SOL     OW70221   6.407  10.792   8.224
22775SOL    HW170222   6.353  10.852   8.172
22775SOL    HW270223   6.357  10.777   8.304
22776SOL     OW70224  12.611   2.963   6.576
22776SOL    HW170225  12.631   3.044   6.623
22776SOL    HW270226  12.588   2.991   6.488
22777SOL     OW70227  12.874  12.848   0.811
22777SOL    HW170228  12.894  12.941   0.799
22777SOL    HW270229  12.885  12.833   0.905
22778SOL     OW70230  12.201  11.686  10.258
22778SOL    HW170231  12.138  11.746  10.217
22778SOL    HW270232  12.283  11.735  10.260
22779SOL     OW70233   2.353   9.276   0.457
22779SOL    HW170234   2.376   9.369   0.459
22779SOL    HW270235   2.258   9.274   0.470
22780SOL     OW70236   9.115   0.079   1.945
22780SOL    HW170237   9.200   0.058   1.984
22780SOL    HW270238   9.079   0.147   2.000
22781SOL     OW70239   0.451   1.221   9.650
22781SOL    HW170240   0.411   1.177   9.575
22781SOL    HW270241   0.431   1.314   9.637
22782SOL     OW70242   3.982  11.123   2.847
22782SOL    HW170243   4.025  11.197   2.891
22782SOL    HW270244   3.904  11.160   2.807
22783SOL     OW70245  14.628  12.746   8.515
22783SOL    HW170246  14.544  12.746   8.560
22783SOL    HW270247  14.663  12.658   8.531
22784SOL     OW70248   6.291   2.446   7.480
22784SOL    HW170249   6.247   2.526   7.508
22784SOL    HW270250   6.280   2.385   7.553
22785SOL     OW70251  12.732   9.734  12.327
22785SOL    HW170252  12.739   9.737  12.231
22785SOL    HW270253  12.639   9.753  12.344
22786SOL     OW70254  14.184   0.048  10.005
22786SOL    HW170255  14.259   0.086   9.959
22786SOL    HW270256  14.179  14.840   9.971
22787SOL     OW70257   1.335   9.144  10.771
22787SOL    HW170258   1.294   9.100  10.696
22787SOL    HW270259   1.268   9.142  10.839
22788SOL     OW70260  14.395   7.458  12.005
22788SOL    HW170261  14.326   7.425  11.948
22788SOL    HW270262  14.430   7.380  12.047
22789SOL     OW70263   8.245  12.610   3.501
22789SOL    HW170264   8.318  12.549   3.511
22789SOL    HW270265   8.253  12.642   3.411
22790SOL     OW70266  14.211  11.966   3.492
22790SOL    HW170267  14.229  11.873   3.505
22790SOL    HW270268  14.122  11.969   3.455
22791SOL     OW70269   9.854   5.266   2.999
22791SOL    HW170270   9.908   5.335   3.037
22791SOL    HW270271   9.782   5.312   2.957
22792SOL     OW70272   8.394  14.586  12.537
22792SOL    HW170273   8.307  14.625  12.539
22792SOL    HW270274   8.431  14.613  12.453
22793SOL     OW70275   6.245   8.879   7.843
22793SOL    HW170276   6.197   8.892   7.924
22793SOL    HW270277   6.306   8.953   7.838
22794SOL     OW70278   6.671  11.756  14.243
22794SOL    HW170279   6.617  11.799  14.176
22794SOL    HW270280   6.658  11.809  14.322
22795SOL     OW70281   4.674   5.700   5.582
22795SOL    HW170282   4.689   5.697   5.487
22795SOL    HW270283   4.748   5.751   5.616
22796SOL     OW70284   6.221  11.024  13.665
22796SOL    HW170285   6.273  11.061  13.736
22796SOL    HW270286   6.244  11.075  13.588
22797SOL     OW70287   9.318   8.366   9.274
22797SOL    HW170288   9.346   8.339   9.186
22797SOL    HW270289   9.393   8.412   9.310
22798SOL     OW70290  10.639   4.157   9.979
22798SOL    HW170291  10.677   4.210   9.909
22798SOL    HW270292  10.607   4.078   9.934
22799SOL     OW70293  12.727  11.984   4.644
22799SOL    HW170294  12.813  11.961   4.679
22799SOL    HW270295  12.723  11.940   4.560
22800SOL     OW70296  10.833  11.606   4.966
22800SOL    HW170297  10.750  11.577   5.004
22800SOL    HW270298  10.878  11.524   4.944
22801SOL     OW70299   8.277   2.939   7.286
22801SOL    HW170300   8.245   2.863   7.335
22801SOL    HW270301   8.204   2.964   7.230
22802SOL     OW70302   9.317   4.254  12.378
22802SOL    HW170303   9.249   4.312  12.412
22802SOL    HW270304   9.289   4.234  12.289
22803SOL     OW70305   0.036  10.827   2.441
22803SOL    HW170306   0.053  10.733   2.452
22803SOL    HW270307   0.026  10.839   2.346
22804SOL     OW70308   5.902  10.373   8.305
22804SOL    HW170309   5.908  10.323   8.223
22804SOL    HW270310   5.823  10.427   8.293
22805SOL     OW70311  11.683   5.514   2.558
22805SOL    HW170312  11.596   5.526   2.596
22805SOL    HW270313  11.687   5.578   2.487
22806SOL     OW70314  14.302   2.419   1.202
22806SOL    HW170315  14.347   2.385   1.124
22806SOL    HW270316  14.342   2.373   1.275
22807SOL     OW70317  12.970   1.760   0.309
22807SOL    HW170318  12.977   1.727   0.398
22807SOL    HW270319  13.061   1.769   0.279
22808SOL     OW70320   4.480   0.269  14.693
22808SOL    HW170321   4.557   0.255  14.747
22808SOL    HW270322   4.477   0.193  14.635
22809SOL     OW70323   4.448  14.701   1.654
22809SOL    HW170324   4.466  14.737   1.567
22809SOL    HW270325   4.531  14.707   1.701
22810SOL     OW70326   7.577  12.273   8.834
22810SOL    HW170327   7.666  12.243   8.821
22810SOL    HW270328   7.585  12.368   8.841
22811SOL     OW70329  11.824   8.890   2.053
22811SOL    HW170330  11.900   8.920   2.103
22811SOL    HW270331  11.750   8.901   2.113
22812SOL     OW70332   4.347   0.539   4.002
22812SOL    HW170333   4.356   0.450   4.037
22812SOL    HW270334   4.305   0.527   3.917
22813SOL     OW70335  10.567  12.914  12.859
22813SOL    HW170336  10.658  12.938  12.880
22813SOL    HW270337  10.564  12.918  12.763
22814SOL     OW70338  13.772   0.550   8.063
22814SOL    HW170339  13.828   0.548   7.985
22814SOL    HW270340  13.830   0.530   8.135
22815SOL     OW70341  11.089   2.229  11.153
22815SOL    HW170342  11.182   2.210  11.138
22815SOL    HW270343  11.076   2.317  11.116
22816SOL     OW70344  11.460  13.259   3.189
22816SOL    HW170345  11.522  13.228   3.124
22816SOL    HW270346  11.377  13.265   3.142
22817SOL     OW70347   4.596  11.702   0.057
22817SOL    HW170348   4.690  11.689   0.045
22817SOL    HW270349   4.567  11.624   0.106
22818SOL     OW70350   4.665   8.185   6.005
22818SOL    HW170351   4.592   8.228   5.961
22818SOL    HW270352   4.716   8.146   5.933
22819SOL     OW70353  10.692   1.560  14.201
22819SOL    HW170354  10.715   1.472  14.229
22819SOL    HW270355  10.690   1.556  14.106
22820SOL     OW70356  11.949   5.581  14.328
22820SOL    HW170357  12.040   5.569  14.301
22820SOL    HW270358  11.920   5.657  14.278
22821SOL     OW70359   9.060   0.461  11.078
22821SOL    HW170360   9.006   0.526  11.034
22821SOL    HW270361   9.104   0.510  11.148
22822SOL     OW70362   1.444  14.517   3.848
22822SOL    HW170363   1.388  14.592   3.865
22822SOL    HW270364   1.509  14.549   3.784
22823SOL     OW70365  10.389   7.590  10.094
22823SOL    HW170366  10.407   7.511  10.044
22823SOL    HW270367  10.457   7.593  10.161
22824SOL     OW70368  12.917   3.882   9.227
22824SOL    HW170369  13.001   3.859   9.187
22824SOL    HW270370  12.920   3.977   9.234
22825SOL     OW70371   1.993  13.561   6.129
22825SOL    HW170372   1.959  13.531   6.214
22825SOL    HW270373   1.917  13.557   6.070
22826SOL     OW70374   4.437   6.049   5.852
22826SOL    HW170375   4.498   6.005   5.793
22826SOL    HW270376   4.484   6.055   5.935
22827SOL     OW70377   0.271  14.245   3.690
22827SOL    HW170378   0.270  14.204   3.604
22827SOL    HW270379   0.182  14.231   3.724
22828SOL     OW70380   9.715  14.287   1.767
22828SOL    HW170381   9.682  14.318   1.852
22828SOL    HW270382   9.647  14.312   1.705
22829SOL     OW70383   4.577   8.026   2.398
22829SOL    HW170384   4.627   8.009   2.478
22829SOL    HW270385   4.642   8.031   2.329
22830SOL     OW70386   2.432   4.235   7.005
22830SOL    HW170387   2.474   4.167   7.058
22830SOL    HW270388   2.339   4.228   7.025
22831SOL     OW70389   4.376  10.225   0.012
22831SOL    HW170390   4.309  10.177  14.845
22831SOL    HW270391   4.336  10.241   0.098
22832SOL     OW70392   0.502   8.139   1.578
22832SOL    HW170393   0.412   8.163   1.558
22832SOL    HW270394   0.500   8.111   1.669
22833SOL     OW70395   0.837  14.328  13.779
22833SOL    HW170396   0.855  14.419  13.802
22833SOL    HW270397   0.848  14.280  13.860
22834SOL     OW70398   5.433  10.651   8.154
22834SOL    HW170399   5.456  10.642   8.246
22834SOL    HW270400   5.516  10.636   8.107
22835SOL     OW70401   5.293   4.288  13.305
22835SOL    HW170402   5.276   4.212  13.248
22835SOL    HW270403   5.214   4.341  13.299
22836SOL     OW70404  13.809   9.230   7.247
22836SOL    HW170405  13.803   9.307   7.304
22836SOL    HW270406  13.738   9.241   7.185
22837SOL     OW70407   6.913  12.485   4.386
22837SOL    HW170408   6.916  12.396   4.421
22837SOL    HW270409   6.827  12.518   4.413
22838SOL     OW70410  11.906   2.651  11.826
22838SOL    HW170411  11.967   2.581  11.802
22838SOL    HW270412  11.952   2.701  11.893
22839SOL     OW70413  10.920   6.188   9.035
22839SOL    HW170414  11.006   6.228   9.025
22839SOL    HW270415  10.932   6.098   9.003
22840SOL     OW70416  10.750  11.898   6.975
22840SOL    HW170417  10.810  11.972   6.972
22840SOL    HW270418  10.725  11.891   7.067
22841SOL     OW70419   7.896  13.852   1.492
22841SOL    HW170420   7.975  13.797   1.496
22841SOL    HW270421   7.924  13.931   1.446
22842SOL     OW70422   7.740  10.659  11.475
22842SOL    HW170423   7.797  10.584  11.457
22842SOL    HW270424   7.800  10.730  11.497
22843SOL     OW70425  14.874   3.783   6.645
22843SOL    HW170426   0.080   3.802   6.614
22843SOL    HW270427   0.002   3.704   6.698
22844SOL     OW70428   0.487   9.690  13.660
22844SOL    HW170429   0.511   9.741  13.582
22844SOL    HW270430   0.571   9.673  13.704
22845SOL     OW70431   5.742   2.250   7.525
22845SOL    HW170432   5.687   2.176   7.552
22845SOL    HW270433   5.681   2.311   7.484
22846SOL     OW70434   6.008  11.484   9.142
22846SOL    HW170435   5.956  11.437   9.077
22846SOL    HW270436   6.013  11.574   9.109
22847SOL     OW70437   4.543   4.342   3.562
22847SOL    HW170438   4.510   4.302   3.481
22847SOL    HW270439   4.465   4.362   3.613
22848SOL     OW70440   6.788   4.238  11.108
22848SOL    HW170441   6.702   4.210  11.139
22848SOL    HW270442   6.811   4.173  11.041
22849SOL     OW70443   5.025  10.003   7.834
22849SOL    HW170444   5.091   9.950   7.879
22849SOL    HW270445   5.016   9.961   7.749
22850SOL     OW70446   2.557   1.990   7.629
22850SOL    HW170447   2.528   2.067   7.578
22850SOL    HW270448   2.627   1.952   7.576
22851SOL     OW70449  11.290  13.283  11.203
22851SOL    HW170450  11.287  13.187  11.194
22851SOL    HW270451  11.216  13.313  11.151
22852SOL     OW70452  13.069   6.491  10.419
22852SOL    HW170453  13.128   6.566  10.417
22852SOL    HW270454  12.986   6.528  10.449
22853SOL     OW70455   5.449   1.363   9.195
22853SOL    HW170456   5.375   1.312   9.227
22853SOL    HW270457   5.491   1.306   9.130
22854SOL     OW70458   0.701   4.771  13.442
22854SOL    HW170459   0.615   4.746  13.408
22854SOL    HW270460   0.689   4.776  13.537
22855SOL     OW70461   0.404   8.098  14.606
22855SOL    HW170462   0.493   8.079  14.578
22855SOL    HW270463   0.361   8.134  14.529
22856SOL     OW70464   9.848   2.866  10.391
22856SOL    HW170465   9.798   2.819  10.325
22856SOL    HW270466   9.806   2.952  10.396
22857SOL     OW70467  10.245  14.123  13.967
22857SOL    HW170468  10.251  14.102  14.060
22857SOL    HW270469  10.154  14.103  13.944
22858SOL     OW70470   2.547   0.240   6.997
22858SOL    HW170471   2.479   0.299   6.963
22858SOL    HW270472   2.629   0.278   6.966
22859SOL     OW70473   8.387   4.890   9.656
22859SOL    HW170474   8.461   4.895   9.596
22859SOL    HW270475   8.358   4.799   9.650
22860SOL     OW70476   0.324   7.652   0.824
22860SOL    HW170477   0.326   7.674   0.731
22860SOL    HW270478   0.332   7.557   0.826
22861SOL     OW70479   8.724   5.842   4.614
22861SOL    HW170480   8.652   5.892   4.576
22861SOL    HW270481   8.732   5.875   4.703
22862SOL     OW70482   0.461  11.918   7.798
22862SOL    HW170483   0.518  11.996   7.795
22862SOL    HW270484   0.375  11.951   7.773
22863SOL     OW70485  10.548   8.137  10.491
22863SOL    HW170486  10.626   8.183  10.459
22863SOL    HW270487  10.523   8.079  10.420
22864SOL     OW70488  11.656   4.394   5.422
22864SOL    HW170489  11.647   4.405   5.517
22864SOL    HW270490  11.617   4.473   5.385
22865SOL     OW70491   0.617  11.979  13.675
22865SOL    HW170492   0.670  12.056  13.695
22865SOL    HW270493   0.590  11.946  13.761
22866SOL     OW70494  10.102   3.058  14.499
22866SOL    HW170495  10.120   3.135  14.552
22866SOL    HW270496  10.008   3.043  14.507
22867SOL     OW70497   8.697   9.838   9.633
22867SOL    HW170498   8.757   9.881   9.572
22867SOL    HW270499   8.634   9.906   9.657
22868SOL     OW70500   1.235   6.689   0.275
22868SOL    HW170501   1.164   6.629   0.252
22868SOL    HW270502   1.205   6.733   0.354
22869SOL     OW70503  10.776  13.779   4.582
22869SOL    HW170504  10.846  13.746   4.638
22869SOL    HW270505  10.785  13.730   4.501
22870SOL     OW70506  10.593   9.362   4.637
22870SOL    HW170507  10.648   9.299   4.683
22870SOL    HW270508  10.505   9.349   4.673
22871SOL     OW70509  14.847   8.754  12.921
22871SOL    HW170510  14.768   8.723  12.878
22871SOL    HW270511   0.017   8.674  12.936
22872SOL     OW70512   5.616   2.416   0.530
22872SOL    HW170513   5.608   2.437   0.437
22872SOL    HW270514   5.703   2.448   0.553
22873SOL     OW70515   3.630  13.330   6.341
22873SOL    HW170516   3.640  13.404   6.400
22873SOL    HW270517   3.535  13.314   6.338
22874SOL     OW70518   3.330  12.862   3.313
22874SOL    HW170519   3.398  12.842   3.377
22874SOL    HW270520   3.353  12.811   3.236
22875SOL     OW70521  10.793  10.093   6.366
22875SOL    HW170522  10.708  10.083   6.322
22875SOL    HW270523  10.818  10.004   6.390
22876SOL     OW70524  10.930   6.256   7.607
22876SOL    HW170525  11.019   6.276   7.636
22876SOL    HW270526  10.874   6.306   7.665
22877SOL     OW70527   5.039   3.728   9.182
22877SOL    HW170528   5.058   3.801   9.124
22877SOL    HW270529   5.008   3.658   9.125
22878SOL     OW70530   8.170  10.650   9.052
22878SOL    HW170531   8.082  10.624   9.025
22878SOL    HW270532   8.221  10.648   8.971
22879SOL     OW70533  13.829   7.015  14.191
22879SOL    HW170534  13.794   6.962  14.263
22879SOL    HW270535  13.848   7.099  14.231
22880SOL     OW70536   0.132  11.892   7.296
22880SOL    HW170537   0.102  11.885   7.387
22880SOL    HW270538   0.052  11.896   7.244
22881SOL     OW70539  11.727   7.205   5.057
22881SOL    HW170540  11.701   7.168   5.142
22881SOL    HW270541  11.776   7.284   5.080
22882SOL     OW70542   5.887   6.373   6.329
22882SOL    HW170543   5.903   6.302   6.391
22882SOL    HW270544   5.948   6.356   6.257
22883SOL     OW70545   1.853   7.804  12.595
22883SOL    HW170546   1.774   7.832  12.641
22883SOL    HW270547   1.881   7.880  12.545
22884SOL     OW70548   0.941   1.855   5.179
22884SOL    HW170549   0.889   1.852   5.099
22884SOL    HW270550   0.879   1.834   5.249
22885SOL     OW70551   9.502   6.903  12.334
22885SOL    HW170552   9.536   6.814  12.342
22885SOL    HW270553   9.571   6.958  12.370
22886SOL     OW70554   2.597   0.059   7.184
22886SOL    HW170555   2.645   0.127   7.231
22886SOL    HW270556   2.571   0.100   7.102
22887SOL     OW70557  11.113  13.400   7.586
22887SOL    HW170558  11.159  13.458   7.525
22887SOL    HW270559  11.065  13.460   7.644
22888SOL     OW70560   9.051   0.888   9.648
22888SOL    HW170561   9.031   0.853   9.735
22888SOL    HW270562   9.085   0.976   9.666
22889SOL     OW70563  13.088  13.723  13.869
22889SOL    HW170564  13.148  13.751  13.938
22889SOL    HW270565  13.105  13.629  13.860
22890SOL     OW70566   4.494  13.682  10.455
22890SOL    HW170567   4.540  13.749  10.405
22890SOL    HW270568   4.559  13.647  10.516
22891SOL     OW70569   5.535   3.827   8.470
22891SOL    HW170570   5.496   3.914   8.468
22891SOL    HW270571   5.565   3.816   8.561
22892SOL     OW70572   8.416  13.598   1.757
22892SOL    HW170573   8.352  13.670   1.755
22892SOL    HW270574   8.462  13.606   1.673
22893SOL     OW70575  13.893   3.808  11.512
22893SOL    HW170576  13.826   3.872  11.488
22893SOL    HW270577  13.937   3.847  11.588
22894SOL     OW70578   9.465   8.307   8.452
22894SOL    HW170579   9.434   8.267   8.370
22894SOL    HW270580   9.385   8.334   8.497
22895SOL     OW70581   7.045   6.778   9.546
22895SOL    HW170582   6.980   6.828   9.496
22895SOL    HW270583   7.089   6.844   9.599
22896SOL     OW70584   5.185   4.773   1.294
22896SOL    HW170585   5.123   4.817   1.352
22896SOL    HW270586   5.258   4.834   1.287
22897SOL     OW70587   7.998   0.814   9.422
22897SOL    HW170588   8.085   0.853   9.430
22897SOL    HW270589   7.972   0.831   9.332
22898SOL     OW70590  14.432   0.540  12.846
22898SOL    HW170591  14.433   0.583  12.931
22898SOL    HW270592  14.375   0.464  12.858
22899SOL     OW70593   0.180   9.363  13.668
22899SOL    HW170594   0.150   9.452  13.647
22899SOL    HW270595   0.228   9.373  13.751
22900SOL     OW70596   2.294   7.500   3.149
22900SOL    HW170597   2.352   7.572   3.124
22900SOL    HW270598   2.335   7.422   3.112
22901SOL     OW70599   4.695   1.079  12.326
22901SOL    HW170600   4.714   0.991  12.294
22901SOL    HW270601   4.780   1.118  12.344
22902SOL     OW70602   5.420  11.037   8.917
22902SOL    HW170603   5.361  10.965   8.893
22902SOL    HW270604   5.407  11.103   8.849
22903SOL     OW70605   9.872   2.649   4.163
22903SOL    HW170606   9.894   2.688   4.078
22903SOL    HW270607   9.950   2.598   4.186
22904SOL     OW70608   0.677   2.682   2.853
22904SOL    HW170609   0.666   2.680   2.758
22904SOL    HW270610   0.657   2.772   2.878
22905SOL     OW70611   8.433   6.221   8.965
22905SOL    HW170612   8.447   6.237   9.058
22905SOL    HW270613   8.348   6.178   8.960
22906SOL     OW70614  12.349   5.482   6.912
22906SOL    HW170615  12.362   5.450   7.002
22906SOL    HW270616  12.290   5.557   6.921
22907SOL     OW70617   3.802   8.886   9.761
22907SOL    HW170618   3.709   8.903   9.747
22907SOL    HW270619   3.834   8.854   9.676
22908SOL     OW70620   3.789   5.150   2.605
22908SOL    HW170621   3.849   5.222   2.588
22908SOL    HW270622   3.791   5.099   2.523
22909SOL     OW70623   4.526   8.582   7.694
22909SOL    HW170624   4.455   8.527   7.661
22909SOL    HW270625   4.596   8.520   7.715
22910SOL     OW70626  11.746   4.100  13.743
22910SOL    HW170627  11.680   4.085  13.811
22910SOL    HW270628  11.787   4.014  13.730
22911SOL     OW70629  14.362   8.527   6.799
22911SOL    HW170630  14.294   8.471   6.836
22911SOL    HW270631  14.415   8.469   6.745
22912SOL     OW70632  14.285   7.270  12.950
22912SOL    HW170633  14.368   7.223  12.939
22912SOL    HW270634  14.308   7.362  12.938
22913SOL     OW70635  14.824   9.827   2.044
22913SOL    HW170636   0.035   9.814   2.025
22913SOL    HW270637  14.822   9.906   2.098
22914SOL     OW70638   9.183  13.031   8.722
22914SOL    HW170639   9.129  13.031   8.642
22914SOL    HW270640   9.271  13.011   8.691
22915SOL     OW70641   4.243   9.863  13.631
22915SOL    HW170642   4.219   9.776  13.662
22915SOL    HW270643   4.173   9.920  13.664
22916SOL     OW70644   0.607  12.387   3.631
22916SOL    HW170645   0.701  12.371   3.643
22916SOL    HW270646   0.568  12.299   3.624
22917SOL     OW70647   1.341   9.631  10.430
22917SOL    HW170648   1.326   9.661  10.519
22917SOL    HW270649   1.294   9.694  10.375
22918SOL     OW70650  13.274  13.765   3.814
22918SOL    HW170651  13.181  13.750   3.832
22918SOL    HW270652  13.298  13.838   3.871
22919SOL     OW70653   9.715   3.091   3.646
22919SOL    HW170654   9.632   3.051   3.674
22919SOL    HW270655   9.716   3.078   3.551
22920SOL     OW70656   5.399   1.236  14.580
22920SOL    HW170657   5.478   1.194  14.612
22920SOL    HW270658   5.389   1.204  14.490
22921SOL     OW70659   7.152  10.488   0.495
22921SOL    HW170660   7.223  10.447   0.447
22921SOL    HW270661   7.079  10.427   0.488
22922SOL     OW70662   6.176   2.305   5.171
22922SOL    HW170663   6.236   2.348   5.111
22922SOL    HW270664   6.133   2.237   5.118
22923SOL     OW70665   1.948   5.671   5.769
22923SOL    HW170666   2.026   5.710   5.730
22923SOL    HW270667   1.953   5.694   5.862
22924SOL     OW70668   2.087  11.067  11.604
22924SOL    HW170669   2.078  10.977  11.572
22924SOL    HW270670   2.119  11.057  11.694
22925SOL     OW70671  14.055  11.677  10.639
22925SOL    HW170672  14.004  11.691  10.559
22925SOL    HW270673  14.118  11.609  10.616
22926SOL     OW70674   2.865   4.576   8.203
22926SOL    HW170675   2.779   4.596   8.167
22926SOL    HW270676   2.859   4.600   8.296
22927SOL     OW70677  13.833  10.192   3.345
22927SOL    HW170678  13.864  10.282   3.339
22927SOL    HW270679  13.739  10.199   3.360
22928SOL     OW70680   5.008  11.487   3.634
22928SOL    HW170681   5.033  11.466   3.544
22928SOL    HW270682   4.996  11.581   3.635
22929SOL     OW70683  14.321   9.129   3.112
22929SOL    HW170684  14.236   9.097   3.081
22929SOL    HW270685  14.312   9.135   3.207
22930SOL     OW70686  10.086   6.822   7.789
22930SOL    HW170687  10.096   6.892   7.854
22930SOL    HW270688  10.056   6.868   7.710
22931SOL     OW70689  13.370   7.252  12.812
22931SOL    HW170690  13.282   7.273  12.845
22931SOL    HW270691  13.368   7.280  12.721
22932SOL     OW70692  11.224  11.091  12.315
22932SOL    HW170693  11.279  11.032  12.262
22932SOL    HW270694  11.186  11.152  12.251
22933SOL     OW70695   1.748  13.422  13.073
22933SOL    HW170696   1.794  13.463  13.146
22933SOL    HW270697   1.757  13.485  13.001
22934SOL     OW70698   0.695   1.021   0.121
22934SOL    HW170699   0.607   1.027   0.157
22934SOL    HW270700   0.752   1.049   0.193
22935SOL     OW70701   1.776  12.552   7.316
22935SOL    HW170702   1.835  12.536   7.389
22935SOL    HW270703   1.828  12.535   7.238
22936SOL     OW70704  13.569   5.062  10.315
22936SOL    HW170705  13.498   5.028  10.260
22936SOL    HW270706  13.524   5.095  10.393
22937SOL     OW70707   6.033  14.075   9.503
22937SOL    HW170708   6.004  14.165   9.488
22937SOL    HW270709   5.954  14.028   9.529
22938SOL     OW70710   7.718   5.760   9.770
22938SOL    HW170711   7.807   5.727   9.783
22938SOL    HW270712   7.678   5.755   9.857
22939SOL     OW70713   0.516   0.166   4.228
22939SOL    HW170714   0.476   0.252   4.232
22939SOL    HW270715   0.496   0.126   4.313
22940SOL     OW70716   4.697  12.875   5.986
22940SOL    HW170717   4.710  12.899   6.078
22940SOL    HW270718   4.784  12.848   5.956
22941SOL     OW70719   5.465   8.253  13.780
22941SOL    HW170720   5.412   8.330  13.762
22941SOL    HW270721   5.525   8.280  13.849
22942SOL     OW70722   0.601   7.413  10.496
22942SOL    HW170723   0.529   7.378  10.548
22942SOL    HW270724   0.591   7.508  10.503
22943SOL     OW70725   8.851   6.989  14.790
22943SOL    HW170726   8.934   6.977  14.745
22943SOL    HW270727   8.875   7.018  14.878
22944SOL     OW70728  10.300  13.943  12.768
22944SOL    HW170729  10.353  13.892  12.707
22944SOL    HW270730  10.229  13.979  12.715
22945SOL     OW70731   5.407   0.626   4.503
22945SOL    HW170732   5.320   0.640   4.465
22945SOL    HW270733   5.443   0.714   4.514
22946SOL     OW70734   6.731   7.919   4.455
22946SOL    HW170735   6.687   7.835   4.439
22946SOL    HW270736   6.721   7.934   4.549
22947SOL     OW70737   1.618   8.874   6.959
22947SOL    HW170738   1.600   8.799   7.015
22947SOL    HW270739   1.531   8.905   6.933
22948SOL     OW70740   9.129   7.080   6.916
22948SOL    HW170741   9.166   7.097   7.003
22948SOL    HW270742   9.203   7.047   6.865
22949SOL     OW70743   2.278  12.583   7.306
22949SOL    HW170744   2.217  12.651   7.279
22949SOL    HW270745   2.290  12.597   7.400
22950SOL     OW70746  14.116   1.915   8.698
22950SOL    HW170747  14.192   1.972   8.712
22950SOL    HW270748  14.118   1.895   8.605
22951SOL     OW70749   0.604  13.276   4.434
22951SOL    HW170750   0.553  13.350   4.404
22951SOL    HW270751   0.640  13.304   4.518
22952SOL     OW70752   7.866   6.630   2.703
22952SOL    HW170753   7.800   6.629   2.633
22952SOL    HW270754   7.879   6.722   2.722
22953SOL     OW70755   7.710  12.642   8.225
22953SOL    HW170756   7.649  12.659   8.153
22953SOL    HW270757   7.789  12.690   8.201
22954SOL     OW70758  11.762  10.477   6.267
22954SOL    HW170759  11.796  10.411   6.206
22954SOL    HW270760  11.699  10.429   6.321
22955SOL     OW70761   4.640  12.400   0.115
22955SOL    HW170762   4.546  12.392   0.095
22955SOL    HW270763   4.649  12.364   0.203
22956SOL     OW70764  13.074  10.110  12.412
22956SOL    HW170765  12.997  10.165  12.397
22956SOL    HW270766  13.112  10.142  12.494
22957SOL     OW70767  14.263  10.993   0.274
22957SOL    HW170768  14.242  11.059   0.340
22957SOL    HW270769  14.318  10.930   0.320
22958SOL     OW70770   9.072   7.712   7.351
22958SOL    HW170771   9.068   7.729   7.256
22958SOL    HW270772   9.146   7.765   7.381
22959SOL     OW70773   4.726   4.310   5.004
22959SOL    HW170774   4.685   4.273   5.082
22959SOL    HW270775   4.664   4.292   4.933
22960SOL     OW70776  14.672  11.820   8.033
22960SOL    HW170777  14.752  11.827   8.085
22960SOL    HW270778  14.655  11.725   8.028
22961SOL     OW70779   3.277  12.568   1.533
22961SOL    HW170780   3.234  12.488   1.563
22961SOL    HW270781   3.367  12.541   1.516
22962SOL     OW70782   4.922   9.068   1.735
22962SOL    HW170783   4.920   9.122   1.814
22962SOL    HW270784   4.906   8.979   1.766
22963SOL     OW70785  13.609   0.306   6.162
22963SOL    HW170786  13.700   0.282   6.182
22963SOL    HW270787  13.566   0.312   6.247
22964SOL     OW70788   2.969  12.321   4.156
22964SOL    HW170789   2.907  12.335   4.085
22964SOL    HW270790   2.972  12.404   4.203
22965SOL     OW70791  14.131   2.495   0.364
22965SOL    HW170792  14.055   2.553   0.359
22965SOL    HW270793  14.103   2.424   0.421
22966SOL     OW70794   0.736   0.742   3.873
22966SOL    HW170795   0.683   0.735   3.793
22966SOL    HW270796   0.735   0.835   3.894
22967SOL     OW70797  13.204   0.760   1.998
22967SOL    HW170798  13.204   0.683   1.941
22967SOL    HW270799  13.211   0.724   2.086
22968SOL     OW70800   5.785   0.359  14.421
22968SOL    HW170801   5.730   0.431  14.450
22968SOL    HW270802   5.806   0.311  14.501
22969SOL     OW70803   3.363   8.094  11.234
22969SOL    HW170804   3.337   8.164  11.174
22969SOL    HW270805   3.407   8.030  11.178
22970SOL     OW70806   3.168   3.920  12.298
22970SOL    HW170807   3.105   3.851  12.279
22970SOL    HW270808   3.153   3.987  12.231
22971SOL     OW70809  13.954  11.271  12.991
22971SOL    HW170810  13.883  11.321  12.950
22971SOL    HW270811  13.911  11.197  13.034
22972SOL     OW70812   7.021   7.841   8.201
22972SOL    HW170813   6.954   7.863   8.265
22972SOL    HW270814   6.972   7.820   8.121
22973SOL     OW70815   5.067  13.651   4.754
22973SOL    HW170816   5.045  13.565   4.718
22973SOL    HW270817   5.154  13.639   4.791
22974SOL     OW70818  10.004  12.688  14.289
22974SOL    HW170819  10.057  12.723  14.217
22974SOL    HW270820   9.929  12.747  14.295
22975SOL     OW70821   7.531  10.030   1.283
22975SOL    HW170822   7.564  10.087   1.214
22975SOL    HW270823   7.453  10.074   1.316
22976SOL     OW70824  11.265   4.724  12.225
22976SOL    HW170825  11.219   4.807  12.214
22976SOL    HW270826  11.313   4.733  12.307
22977SOL     OW70827   1.544   0.534   2.673
22977SOL    HW170828   1.506   0.538   2.585
22977SOL    HW270829   1.497   0.463   2.716
22978SOL     OW70830   0.361   7.244  14.401
22978SOL    HW170831   0.343   7.177  14.336
22978SOL    HW270832   0.278   7.291  14.410
22979SOL     OW70833   1.721   8.268  12.726
22979SOL    HW170834   1.671   8.190  12.748
22979SOL    HW270835   1.678   8.339  12.774
22980SOL     OW70836   7.334  10.461   4.860
22980SOL    HW170837   7.327  10.547   4.902
22980SOL    HW270838   7.395  10.473   4.788
22981SOL     OW70839   9.054   1.599   1.716
22981SOL    HW170840   8.986   1.662   1.740
22981SOL    HW270841   9.005   1.519   1.694
22982SOL     OW70842   0.162   9.676   2.000
22982SOL    HW170843   0.180   9.655   1.908
22982SOL    HW270844   0.239   9.643   2.047
22983SOL     OW70845   8.473   8.457  11.183
22983SOL    HW170846   8.468   8.423  11.273
22983SOL    HW270847   8.469   8.379  11.128
22984SOL     OW70848  12.133  13.310   5.725
22984SOL    HW170849  12.048  13.353   5.735
22984SOL    HW270850  12.135  13.281   5.634
22985SOL     OW70851   0.924   5.198  13.539
22985SOL    HW170852   0.863   5.219  13.610
22985SOL    HW270853   0.870   5.202  13.459
22986SOL     OW70854   5.440   3.983   6.144
22986SOL    HW170855   5.429   4.074   6.172
22986SOL    HW270856   5.372   3.969   6.078
22987SOL     OW70857   0.898   8.445  14.027
22987SOL    HW170858   0.929   8.535  14.017
22987SOL    HW270859   0.804   8.454  14.040
22988SOL     OW70860   8.078   1.186  12.448
22988SOL    HW170861   8.119   1.104  12.476
22988SOL    HW270862   7.991   1.184  12.488
22989SOL     OW70863   9.952   2.299   4.926
22989SOL    HW170864   9.877   2.351   4.956
22989SOL    HW270865   9.977   2.246   5.002
22990SOL     OW70866  12.235  13.764  12.235
22990SOL    HW170867  12.318  13.749  12.280
22990SOL    HW270868  12.257  13.768  12.143
22991SOL     OW70869   0.586   9.359  13.348
22991SOL    HW170870   0.582   9.432  13.286
22991SOL    HW270871   0.642   9.294  13.305
22992SOL     OW70872   7.153  11.545   4.647
22992SOL    HW170873   7.177  11.612   4.583
22992SOL    HW270874   7.181  11.580   4.731
22993SOL     OW70875   7.000   6.854  12.827
22993SOL    HW170876   6.966   6.769  12.803
22993SOL    HW270877   7.074   6.835  12.885
22994SOL     OW70878  14.038   6.901   4.916
22994SOL    HW170879  14.110   6.884   4.855
22994SOL    HW270880  14.044   6.830   4.980
22995SOL     OW70881   0.566  11.793   2.156
22995SOL    HW170882   0.476  11.815   2.177
22995SOL    HW270883   0.619  11.846   2.215
22996SOL     OW70884   3.964   7.320   5.108
22996SOL    HW170885   3.980   7.247   5.048
22996SOL    HW270886   3.874   7.347   5.089
22997SOL     OW70887   2.412  10.819   2.542
22997SOL    HW170888   2.506  10.811   2.561
22997SOL    HW270889   2.387  10.733   2.509
22998SOL     OW70890   0.805   8.406  11.260
22998SOL    HW170891   0.846   8.420  11.174
22998SOL    HW270892   0.711   8.402  11.240
22999SOL     OW70893   4.220   3.226  12.640
22999SOL    HW170894   4.220   3.253  12.732
22999SOL    HW270895   4.293   3.274  12.601
23000SOL     OW70896   1.538   5.117   2.878
23000SOL    HW170897   1.444   5.127   2.893
23000SOL    HW270898   1.577   5.199   2.907
23001SOL     OW70899  11.219   1.926   5.148
23001SOL    HW170900  11.274   1.895   5.220
23001SOL    HW270901  11.130   1.903   5.174
23002SOL     OW70902   6.219   6.200  11.321
23002SOL    HW170903   6.193   6.135  11.256
23002SOL    HW270904   6.143   6.257  11.330
23003SOL     OW70905  10.856   7.377   2.211
23003SOL    HW170906  10.817   7.394   2.297
23003SOL    HW270907  10.858   7.463   2.168
23004SOL     OW70908  10.732   1.438   8.251
23004SOL    HW170909  10.682   1.356   8.258
23004SOL    HW270910  10.821   1.415   8.276
23005SOL     OW70911   0.888   3.780   5.822
23005SOL    HW170912   0.902   3.723   5.747
23005SOL    HW270913   0.972   3.780   5.869
23006SOL     OW70914  12.270   9.677   0.698
23006SOL    HW170915  12.251   9.585   0.683
23006SOL    HW270916  12.363   9.680   0.721
23007SOL     OW70917   0.673  13.609   8.072
23007SOL    HW170918   0.748  13.567   8.113
23007SOL    HW270919   0.597  13.568   8.113
23008SOL     OW70920   9.896   8.708  14.751
23008SOL    HW170921   9.923   8.622  14.717
23008SOL    HW270922   9.904   8.767  14.676
23009SOL     OW70923   6.749   1.860  12.605
23009SOL    HW170924   6.840   1.889  12.597
23009SOL    HW270925   6.701   1.916  12.544
23010SOL     OW70926  14.218   5.053   3.169
23010SOL    HW170927  14.159   4.978   3.174
23010SOL    HW270928  14.298   5.024   3.213
23011SOL     OW70929   4.895   2.171   6.150
23011SOL    HW170930   4.933   2.173   6.237
23011SOL    HW270931   4.829   2.103   6.154
23012SOL     OW70932   2.436   4.622   6.541
23012SOL    HW170933   2.426   4.633   6.446
23012SOL    HW270934   2.351   4.648   6.577
23013SOL     OW70935   5.685   7.452  13.591
23013SOL    HW170936   5.775   7.461  13.559
23013SOL    HW270937   5.642   7.533  13.561
23014SOL     OW70938   8.742   4.823  13.220
23014SOL    HW170939   8.743   4.881  13.296
23014SOL    HW270940   8.765   4.737  13.255
23015SOL     OW70941   1.011   0.263   1.882
23015SOL    HW170942   1.037   0.236   1.970
23015SOL    HW270943   1.089   0.305   1.846
23016SOL     OW70944   0.548   8.234   2.441
23016SOL    HW170945   0.489   8.307   2.460
23016SOL    HW270946   0.524   8.167   2.505
23017SOL     OW70947  10.164   1.812  14.252
23017SOL    HW170948  10.156   1.902  14.220
23017SOL    HW270949  10.173   1.821  14.347
23018SOL     OW70950   4.559  12.508   8.521
23018SOL    HW170951   4.597  12.513   8.609
23018SOL    HW270952   4.465  12.512   8.535
23019SOL     OW70953   8.234  10.521   9.313
23019SOL    HW170954   8.238  10.579   9.237
23019SOL    HW270955   8.150  10.542   9.355
23020SOL     OW70956   2.649   7.782   7.972
23020SOL    HW170957   2.645   7.689   7.995
23020SOL    HW270958   2.623   7.828   8.051
23021SOL     OW70959   8.787   4.619   5.503
23021SOL    HW170960   8.873   4.648   5.535
23021SOL    HW270961   8.777   4.661   5.418
23022SOL     OW70962   2.078   8.745   7.856
23022SOL    HW170963   2.032   8.698   7.926
23022SOL    HW270964   2.170   8.724   7.869
23023SOL     OW70965   0.709  14.404   1.626
23023SOL    HW170966   0.768  14.429   1.554
23023SOL    HW270967   0.700  14.484   1.679
23024SOL     OW70968  14.676   9.232   8.970
23024SOL    HW170969  14.589   9.268   8.981
23024SOL    HW270970  14.690   9.231   8.875
23025SOL     OW70971   3.952   5.873   7.163
23025SOL    HW170972   3.977   5.844   7.250
23025SOL    HW270973   3.959   5.968   7.166
23026SOL     OW70974   4.703  13.398  13.316
23026SOL    HW170975   4.694  13.416  13.410
23026SOL    HW270976   4.669  13.309  13.305
23027SOL     OW70977  14.244  12.622   0.172
23027SOL    HW170978  14.185  12.619   0.097
23027SOL    HW270979  14.325  12.581   0.140
23028SOL     OW70980   6.323   9.467   7.259
23028SOL    HW170981   6.327   9.398   7.193
23028SOL    HW270982   6.357   9.545   7.215
23029SOL     OW70983   9.173   2.831   7.049
23029SOL    HW170984   9.130   2.826   7.134
23029SOL    HW270985   9.122   2.773   6.992
23030SOL     OW70986   1.726   0.180  10.840
23030SOL    HW170987   1.668   0.104  10.844
23030SOL    HW270988   1.718   0.221  10.927
23031SOL     OW70989   3.365   8.491   4.052
23031SOL    HW170990   3.302   8.485   4.123
23031SOL    HW270991   3.383   8.400   4.028
23032SOL     OW70992   2.352   0.598   9.118
23032SOL    HW170993   2.424   0.660   9.109
23032SOL    HW270994   2.372   0.530   9.053
23033SOL     OW70995   1.495   0.042   4.090
23033SOL    HW170996   1.580   0.050   4.134
23033SOL    HW270997   1.463   0.132   4.084
23034SOL     OW70998   1.033   3.757   4.750
23034SOL    HW170999   1.014   3.847   4.725
23034SOL    HW271000   1.073   3.764   4.837
23035SOL     OW71001   9.094  11.919   0.602
23035SOL    HW171002   9.025  11.854   0.598
23035SOL    HW271003   9.064  11.982   0.668
23036SOL     OW71004   7.739  12.999   6.609
23036SOL    HW171005   7.810  12.935   6.614
23036SOL    HW271006   7.708  13.007   6.698
23037SOL     OW71007   4.767   1.676   1.224
23037SOL    HW171008   4.844   1.709   1.178
23037SOL    HW271009   4.722   1.621   1.160
23038SOL     OW71010  10.131   6.035   5.170
23038SOL    HW171011  10.109   6.083   5.249
23038SOL    HW271012  10.081   6.078   5.100
23039SOL     OW71013   3.912   9.344  14.114
23039SOL    HW171014   3.844   9.306  14.168
23039SOL    HW271015   3.984   9.362  14.174
23040SOL     OW71016  12.618   5.314  13.460
23040SOL    HW171017  12.529   5.279  13.460
23040SOL    HW271018  12.607   5.407  13.480
23041SOL     OW71019   2.574   0.179   5.109
23041SOL    HW171020   2.483   0.206   5.124
23041SOL    HW271021   2.579   0.090   5.143
23042SOL     OW71022   7.471   4.395   8.160
23042SOL    HW171023   7.523   4.349   8.094
23042SOL    HW271024   7.460   4.332   8.231
23043SOL     OW71025   2.182  14.742   1.365
23043SOL    HW171026   2.252  14.746   1.299
23043SOL    HW271027   2.153  14.832   1.376
23044SOL     OW71028   9.153   2.688   2.016
23044SOL    HW171029   9.059   2.668   2.017
23044SOL    HW271030   9.158   2.778   2.050
23045SOL     OW71031  11.615   3.041   0.755
23045SOL    HW171032  11.662   3.111   0.710
23045SOL    HW271033  11.566   3.085   0.824
23046SOL     OW71034  10.183   0.573   3.954
23046SOL    HW171035  10.259   0.516   3.963
23046SOL    HW271036  10.220   0.661   3.947
23047SOL     OW71037   9.529  14.506   8.855
23047SOL    HW171038   9.489  14.563   8.921
23047SOL    HW271039   9.465  14.436   8.841
23048SOL     OW71040   8.913   8.581  11.123
23048SOL    HW171041   8.909   8.624  11.209
23048SOL    HW271042   8.823   8.579  11.092
23049SOL     OW71043   0.572   8.595   7.768
23049SOL    HW171044   0.639   8.582   7.835
23049SOL    HW271045   0.557   8.690   7.767
23050SOL     OW71046   2.291   4.143   9.344
23050SOL    HW171047   2.337   4.175   9.267
23050SOL    HW271048   2.359   4.134   9.411
23051SOL     OW71049  14.837   2.844  11.874
23051SOL    HW171050  14.750   2.846  11.915
23051SOL    HW271051  14.823   2.797  11.792
23052SOL     OW71052  12.834  10.806   7.803
23052SOL    HW171053  12.747  10.825   7.769
23052SOL    HW271054  12.818  10.765   7.889
23053SOL     OW71055   4.742  12.281   1.122
23053SOL    HW171056   4.757  12.269   1.216
23053SOL    HW271057   4.673  12.346   1.117
23054SOL     OW71058   4.784  10.583   6.839
23054SOL    HW171059   4.719  10.530   6.885
23054SOL    HW271060   4.750  10.673   6.844
23055SOL     OW71061  12.908  10.610   5.731
23055SOL    HW171062  12.876  10.639   5.645
23055SOL    HW271063  12.860  10.665   5.793
23056SOL     OW71064   3.075   0.300  11.503
23056SOL    HW171065   3.056   0.253  11.584
23056SOL    HW271066   3.095   0.230  11.440
23057SOL     OW71067   3.104  10.237   1.746
23057SOL    HW171068   3.017  10.233   1.785
23057SOL    HW271069   3.112  10.155   1.697
23058SOL     OW71070   5.502  10.817  14.034
23058SOL    HW171071   5.489  10.821  14.129
23058SOL    HW271072   5.595  10.801  14.023
23059SOL     OW71073  12.566   5.290  13.810
23059SOL    HW171074  12.604   5.233  13.743
23059SOL    HW271075  12.592   5.251  13.893
23060SOL     OW71076   1.857   7.212   4.652
23060SOL    HW171077   1.769   7.246   4.665
23060SOL    HW271078   1.912   7.261   4.713
23061SOL     OW71079  12.198   7.449   1.134
23061SOL    HW171080  12.248   7.519   1.091
23061SOL    HW271081  12.222   7.370   1.087
23062SOL     OW71082   0.751   2.408  10.396
23062SOL    HW171083   0.758   2.471  10.325
23062SOL    HW271084   0.710   2.456  10.468
23063SOL     OW71085   3.901  14.851   1.938
23063SOL    HW171086   3.892   0.037   1.871
23063SOL    HW271087   3.991  14.860   1.969
23064SOL     OW71088  10.032  11.666  14.733
23064SOL    HW171089  10.037  11.571  14.744
23064SOL    HW271090  10.032  11.679  14.638
23065SOL     OW71091   7.770  12.551   3.427
23065SOL    HW171092   7.697  12.513   3.476
23065SOL    HW271093   7.848  12.509   3.462
23066SOL     OW71094   3.846   4.421  10.653
23066SOL    HW171095   3.828   4.487  10.586
23066SOL    HW271096   3.816   4.461  10.735
23067SOL     OW71097  12.838   1.544   6.903
23067SOL    HW171098  12.918   1.523   6.952
23067SOL    HW271099  12.767   1.532   6.966
23068SOL     OW71100   3.457  14.255   1.703
23068SOL    HW171101   3.391  14.187   1.690
23068SOL    HW271102   3.473  14.289   1.615
23069SOL     OW71103  14.654  10.221   9.728
23069SOL    HW171104  14.725  10.285   9.718
23069SOL    HW271105  14.694  10.137   9.707
23070SOL     OW71106   9.215   1.607   7.350
23070SOL    HW171107   9.173   1.525   7.323
23070SOL    HW271108   9.253   1.643   7.270
23071SOL     OW71109  12.920   0.194  10.263
23071SOL    HW171110  12.872   0.214  10.182
23071SOL    HW271111  12.940   0.101  10.256
23072SOL     OW71112   6.362   4.840   3.646
23072SOL    HW171113   6.362   4.917   3.590
23072SOL    HW271114   6.354   4.876   3.735
23073SOL     OW71115   7.821   1.011   8.325
23073SOL    HW171116   7.734   1.027   8.288
23073SOL    HW271117   7.832   0.916   8.320
23074SOL     OW71118   5.099  13.818   8.171
23074SOL    HW171119   5.098  13.912   8.156
23074SOL    HW271120   5.042  13.782   8.103
23075SOL     OW71121  11.910  12.725   9.316
23075SOL    HW171122  11.878  12.677   9.239
23075SOL    HW271123  11.899  12.664   9.389
23076SOL     OW71124   5.034   3.727   9.882
23076SOL    HW171125   5.045   3.798   9.945
23076SOL    HW271126   5.076   3.759   9.802
23077SOL     OW71127   5.690   0.595   5.371
23077SOL    HW171128   5.719   0.509   5.403
23077SOL    HW271129   5.749   0.657   5.413
23078SOL     OW71130  11.465  10.811  12.812
23078SOL    HW171131  11.395  10.833  12.751
23078SOL    HW271132  11.534  10.773  12.758
23079SOL     OW71133  13.647   0.473  11.097
23079SOL    HW171134  13.589   0.413  11.143
23079SOL    HW271135  13.639   0.449  11.005
23080SOL     OW71136   9.909   1.610   6.244
23080SOL    HW171137   9.994   1.640   6.276
23080SOL    HW271138   9.848   1.679   6.269
23081SOL     OW71139   4.932   8.363   5.779
23081SOL    HW171140   4.903   8.340   5.691
23081SOL    HW271141   4.859   8.410   5.818
23082SOL     OW71142   8.588   0.555   5.118
23082SOL    HW171143   8.516   0.494   5.137
23082SOL    HW271144   8.667   0.509   5.148
23083SOL     OW71145   1.740   5.920  13.268
23083SOL    HW171146   1.780   5.835  13.250
23083SOL    HW271147   1.751   5.933  13.362
23084SOL     OW71148   2.173  12.384   9.453
23084SOL    HW171149   2.230  12.433   9.512
23084SOL    HW271150   2.087  12.424   9.463
23085SOL     OW71151   0.492  13.604   3.639
23085SOL    HW171152   0.535  13.573   3.719
23085SOL    HW271153   0.472  13.696   3.656
23086SOL     OW71154   4.282   3.565   3.321
23086SOL    HW171155   4.282   3.629   3.392
23086SOL    HW271156   4.213   3.503   3.345
23087SOL     OW71157   4.181   6.771  11.498
23087SOL    HW171158   4.264   6.732  11.525
23087SOL    HW271159   4.203   6.826  11.423
23088SOL     OW71160   6.343   3.134   2.866
23088SOL    HW171161   6.304   3.114   2.781
23088SOL    HW271162   6.280   3.192   2.908
23089SOL     OW71163   8.623   2.095   0.288
23089SOL    HW171164   8.624   2.055   0.375
23089SOL    HW271165   8.597   2.024   0.230
23090SOL     OW71166   0.690   4.704   9.557
23090SOL    HW171167   0.745   4.644   9.608
23090SOL    HW271168   0.708   4.790   9.595
23091SOL     OW71169   6.587   0.757  11.319
23091SOL    HW171170   6.561   0.714  11.238
23091SOL    HW271171   6.670   0.800  11.298
23092SOL     OW71172   3.034  11.219  14.206
23092SOL    HW171173   3.115  11.266  14.225
23092SOL    HW271174   3.055  11.165  14.130
23093SOL     OW71175  12.294  14.460   1.630
23093SOL    HW171176  12.241  14.491   1.703
23093SOL    HW271177  12.295  14.365   1.640
23094SOL     OW71178   5.704   5.350   8.174
23094SOL    HW171179   5.655   5.416   8.125
23094SOL    HW271180   5.786   5.340   8.125
23095SOL     OW71181   9.031  11.798  14.433
23095SOL    HW171182   9.028  11.775  14.340
23095SOL    HW271183   9.123  11.786  14.457
23096SOL     OW71184  13.673   7.320   8.824
23096SOL    HW171185  13.702   7.345   8.912
23096SOL    HW271186  13.752   7.324   8.771
23097SOL     OW71187   6.248   1.677   9.899
23097SOL    HW171188   6.280   1.762   9.869
23097SOL    HW271189   6.163   1.667   9.857
23098SOL     OW71190   5.446   9.721   8.444
23098SOL    HW171191   5.412   9.770   8.519
23098SOL    HW271192   5.526   9.679   8.477
23099SOL     OW71193   6.856  14.039  12.172
23099SOL    HW171194   6.809  14.001  12.245
23099SOL    HW271195   6.812  14.123  12.156
23100SOL     OW71196   8.891   5.620   4.503
23100SOL    HW171197   8.848   5.536   4.520
23100SOL    HW271198   8.819   5.683   4.503
23101SOL     OW71199   2.469   5.788   9.570
23101SOL    HW171200   2.388   5.740   9.556
23101SOL    HW271201   2.445   5.880   9.563
23102SOL     OW71202   3.739   0.194   2.476
23102SOL    HW171203   3.650   0.225   2.491
23102SOL    HW271204   3.773   0.176   2.564
23103SOL     OW71205  12.898   6.979   5.763
23103SOL    HW171206  12.802   6.983   5.764
23103SOL    HW271207  12.920   6.958   5.673
23104SOL     OW71208  11.798  13.969   4.638
23104SOL    HW171209  11.883  13.940   4.670
23104SOL    HW271210  11.739  13.960   4.713
23105SOL     OW71211   9.784  12.628   8.307
23105SOL    HW171212   9.824  12.634   8.394
23105SOL    HW271213   9.857  12.642   8.246
23106SOL     OW71214  14.086  10.552   1.930
23106SOL    HW171215  14.002  10.594   1.911
23106SOL    HW271216  14.112  10.586   2.016
23107SOL     OW71217   8.601   4.232   7.869
23107SOL    HW171218   8.687   4.217   7.829
23107SOL    HW271219   8.599   4.327   7.885
23108SOL     OW71220   7.427   1.954  11.328
23108SOL    HW171221   7.490   1.938  11.258
23108SOL    HW271222   7.359   2.007  11.286
23109SOL     OW71223   6.627  12.802  10.595
23109SOL    HW171224   6.584  12.737  10.539
23109SOL    HW271225   6.702  12.832  10.544
23110SOL     OW71226   6.881  14.474  11.012
23110SOL    HW171227   6.882  14.452  11.105
23110SOL    HW271228   6.947  14.417  10.972
23111SOL     OW71229   8.727   1.183   4.849
23111SOL    HW171230   8.756   1.144   4.767
23111SOL    HW271231   8.727   1.111   4.912
23112SOL     OW71232   8.084   4.313   9.039
23112SOL    HW171233   8.086   4.403   9.004
23112SOL    HW271234   8.063   4.324   9.132
23113SOL     OW71235  12.322   3.948   8.430
23113SOL    HW171236  12.264   3.945   8.506
23113SOL    HW271237  12.394   3.890   8.453
23114SOL     OW71238   9.678  12.263   9.245
23114SOL    HW171239   9.696  12.194   9.182
23114SOL    HW271240   9.612  12.226   9.304
23115SOL     OW71241   0.157   7.706  10.025
23115SOL    HW171242   0.124   7.720   9.936
23115SOL    HW271243   0.173   7.612  10.029
23116SOL     OW71244   6.226   6.817   5.215
23116SOL    HW171245   6.250   6.780   5.130
23116SOL    HW271246   6.179   6.898   5.193
23117SOL     OW71247   4.728   4.400  13.526
23117SOL    HW171248   4.663   4.460  13.562
23117SOL    HW271249   4.798   4.398  13.591
23118SOL     OW71250  10.431   6.295   1.830
23118SOL    HW171251  10.513   6.255   1.859
23118SOL    HW271252  10.364   6.251   1.882
23119SOL     OW71253   9.803  12.296   7.639
23119SOL    HW171254   9.868  12.302   7.568
23119SOL    HW271255   9.855  12.276   7.717
23120SOL     OW71256  12.496   2.319  11.831
23120SOL    HW171257  12.432   2.300  11.900
23120SOL    HW271258  12.578   2.334  11.877
23121SOL     OW71259   4.731  13.176   1.511
23121SOL    HW171260   4.641  13.147   1.526
23121SOL    HW271261   4.780  13.143   1.586
23122SOL     OW71262  14.333  10.152   7.016
23122SOL    HW171263  14.302  10.084   7.076
23122SOL    HW271264  14.269  10.151   6.945
23123SOL     OW71265   0.091  13.880   7.284
23123SOL    HW171266   0.081  13.917   7.371
23123SOL    HW271267   0.084  13.786   7.297
23124SOL     OW71268  14.525   3.104  14.831
23124SOL    HW171269  14.610   3.107  14.875
23124SOL    HW271270  14.543   3.134  14.742
23125SOL     OW71271   1.196   1.016   6.470
23125SOL    HW171272   1.209   1.043   6.561
23125SOL    HW271273   1.112   1.056   6.446
23126SOL     OW71274   5.807   7.141   8.283
23126SOL    HW171275   5.871   7.069   8.282
23126SOL    HW271276   5.844   7.207   8.224
23127SOL     OW71277   0.335   6.178   4.547
23127SOL    HW171278   0.305   6.248   4.605
23127SOL    HW271279   0.287   6.191   4.466
23128SOL     OW71280  13.072   2.266   0.223
23128SOL    HW171281  13.089   2.275   0.130
23128SOL    HW271282  13.145   2.213   0.256
23129SOL     OW71283   8.514   2.522   4.696
23129SOL    HW171284   8.563   2.488   4.622
23129SOL    HW271285   8.512   2.450   4.759
23130SOL     OW71286   6.804  12.259   6.166
23130SOL    HW171287   6.862  12.203   6.115
23130SOL    HW271288   6.816  12.347   6.129
23131SOL     OW71289  13.529   3.242  13.355
23131SOL    HW171290  13.599   3.307  13.346
23131SOL    HW271291  13.508   3.241  13.448
23132SOL     OW71292   1.851   2.009  10.106
23132SOL    HW171293   1.775   1.954  10.122
23132SOL    HW271294   1.847   2.029  10.012
23133SOL     OW71295   5.447   9.618  10.844
23133SOL    HW171296   5.364   9.665  10.850
23133SOL    HW271297   5.423   9.530  10.815
23134SOL     OW71298  11.601   5.035  10.551
23134SOL    HW171299  11.600   5.102  10.482
23134SOL    HW271300  11.577   4.954  10.507
23135SOL     OW71301   6.149  10.190   5.950
23135SOL    HW171302   6.093  10.112   5.957
23135SOL    HW271303   6.101  10.258   5.997
23136SOL     OW71304   9.506   7.235   4.927
23136SOL    HW171305   9.443   7.163   4.921
23136SOL    HW271306   9.479   7.295   4.857
23137SOL     OW71307  11.505   0.335  11.090
23137SOL    HW171308  11.461   0.253  11.064
23137SOL    HW271309  11.439   0.403  11.076
23138SOL     OW71310   6.579   7.774   2.829
23138SOL    HW171311   6.611   7.724   2.754
23138SOL    HW271312   6.506   7.721   2.863
23139SOL     OW71313   5.970   9.134  11.417
23139SOL    HW171314   6.014   9.062  11.463
23139SOL    HW271315   5.958   9.102  11.328
23140SOL     OW71316  10.675   0.135   6.639
23140SOL    HW171317  10.708   0.206   6.693
23140SOL    HW271318  10.743   0.067   6.643
23141SOL     OW71319   5.026   8.940   8.502
23141SOL    HW171320   5.027   8.926   8.597
23141SOL    HW271321   5.025   9.035   8.492
23142SOL     OW71322  12.365   9.992   6.581
23142SOL    HW171323  12.366   9.897   6.596
23142SOL    HW271324  12.347  10.030   6.667
23143SOL     OW71325   9.547  13.389   5.847
23143SOL    HW171326   9.512  13.405   5.759
23143SOL    HW271327   9.616  13.454   5.858
23144SOL     OW71328  13.538   0.550  11.750
23144SOL    HW171329  13.462   0.494  11.768
23144SOL    HW271330  13.574   0.517  11.668
23145SOL     OW71331   0.778   2.708  12.388
23145SOL    HW171332   0.801   2.752  12.307
23145SOL    HW271333   0.736   2.776  12.441
23146SOL     OW71334  12.026  12.820   1.121
23146SOL    HW171335  11.932  12.804   1.133
23146SOL    HW271336  12.030  12.908   1.083
23147SOL     OW71337   2.837  14.043   3.289
23147SOL    HW171338   2.932  14.056   3.302
23147SOL    HW271339   2.829  13.951   3.266
23148SOL     OW71340   9.981  13.926  12.809
23148SOL    HW171341   9.897  13.923  12.853
23148SOL    HW271342   9.963  13.966  12.724
23149SOL     OW71343  11.352  10.416   6.949
23149SOL    HW171344  11.389  10.503   6.938
23149SOL    HW271345  11.428  10.358   6.957
23150SOL     OW71346   2.630   0.230   1.639
23150SOL    HW171347   2.567   0.180   1.692
23150SOL    HW271348   2.656   0.302   1.696
23151SOL     OW71349   4.384   2.667   1.207
23151SOL    HW171350   4.404   2.759   1.186
23151SOL    HW271351   4.459   2.618   1.172
23152SOL     OW71352   8.796   7.572   8.253
23152SOL    HW171353   8.856   7.525   8.310
23152SOL    HW271354   8.797   7.662   8.285
23153SOL     OW71355   7.342  12.565   3.424
23153SOL    HW171356   7.260  12.612   3.441
23153SOL    HW271357   7.362  12.584   3.332
23154SOL     OW71358   5.610  11.629   6.226
23154SOL    HW171359   5.609  11.643   6.131
23154SOL    HW271360   5.701  11.642   6.252
23155SOL     OW71361  10.056  14.017   3.101
23155SOL    HW171362   9.997  14.070   3.048
23155SOL    HW271363  10.013  14.008   3.185
23156SOL     OW71364  13.488  12.829   9.395
23156SOL    HW171365  13.448  12.825   9.482
23156SOL    HW271366  13.567  12.776   9.403
23157SOL     OW71367  14.122   9.963   2.153
23157SOL    HW171368  14.207   9.929   2.180
23157SOL    HW271369  14.080   9.990   2.235
23158SOL     OW71370   7.172  12.934   7.377
23158SOL    HW171371   7.241  12.870   7.392
23158SOL    HW271372   7.163  12.980   7.461
23159SOL     OW71373   9.459   3.567  11.748
23159SOL    HW171374   9.387   3.505  11.764
23159SOL    HW271375   9.493   3.543  11.662
23160SOL     OW71376  13.556   5.113   6.995
23160SOL    HW171377  13.648   5.137   6.992
23160SOL    HW271378  13.529   5.134   7.084
23161SOL     OW71379   1.856   5.281   0.197
23161SOL    HW171380   1.820   5.355   0.148
23161SOL    HW271381   1.833   5.299   0.288
23162SOL     OW71382   6.964   9.717   7.253
23162SOL    HW171383   6.993   9.627   7.272
23162SOL    HW271384   6.991   9.768   7.329
23163SOL     OW71385   4.341   9.486  10.525
23163SOL    HW171386   4.346   9.413  10.587
23163SOL    HW271387   4.432   9.500  10.497
23164SOL     OW71388   0.255  13.099   7.324
23164SOL    HW171389   0.326  13.134   7.379
23164SOL    HW271390   0.271  13.138   7.238
23165SOL     OW71391  11.400   4.143  14.397
23165SOL    HW171392  11.357   4.181  14.473
23165SOL    HW271393  11.400   4.213  14.332
23166SOL     OW71394   9.362   4.291  10.260
23166SOL    HW171395   9.293   4.282  10.325
23166SOL    HW271396   9.353   4.381  10.228
23167SOL     OW71397  10.706  12.449  13.770
23167SOL    HW171398  10.610  12.445  13.764
23167SOL    HW271399  10.726  12.409  13.854
23168SOL     OW71400  14.256   6.048   5.509
23168SOL    HW171401  14.280   6.024   5.420
23168SOL    HW271402  14.324   6.110   5.536
23169SOL     OW71403   4.809   0.354   1.264
23169SOL    HW171404   4.752   0.315   1.330
23169SOL    HW271405   4.792   0.304   1.184
23170SOL     OW71406   4.516   5.129  13.210
23170SOL    HW171407   4.471   5.071  13.272
23170SOL    HW271408   4.489   5.097  13.124
23171SOL     OW71409   3.725  11.252  14.727
23171SOL    HW171410   3.629  11.246  14.725
23171SOL    HW271411   3.753  11.162  14.745
23172SOL     OW71412   9.940   0.470   6.692
23172SOL    HW171413  10.026   0.428   6.695
23172SOL    HW271414   9.881   0.402   6.660
23173SOL     OW71415  13.399  10.325   9.454
23173SOL    HW171416  13.349  10.359   9.528
23173SOL    HW271417  13.407  10.400   9.394
23174SOL     OW71418   4.490  10.219   7.894
23174SOL    HW171419   4.547  10.183   7.826
23174SOL    HW271420   4.541  10.289   7.935
23175SOL     OW71421   0.303   2.886  10.691
23175SOL    HW171422   0.366   2.820  10.719
23175SOL    HW271423   0.349   2.969  10.701
23176SOL     OW71424   9.164   8.991   2.315
23176SOL    HW171425   9.151   9.084   2.297
23176SOL    HW271426   9.251   8.972   2.279
23177SOL     OW71427   3.648  13.419  11.166
23177SOL    HW171428   3.625  13.345  11.223
23177SOL    HW271429   3.569  13.473  11.166
23178SOL     OW71430   6.040   2.304   2.262
23178SOL    HW171431   6.126   2.345   2.250
23178SOL    HW271432   6.013   2.278   2.174
23179SOL     OW71433  12.926   0.412   9.515
23179SOL    HW171434  12.883   0.450   9.591
23179SOL    HW271435  12.854   0.390   9.456
23180SOL     OW71436   0.585   6.245   7.182
23180SOL    HW171437   0.612   6.216   7.269
23180SOL    HW271438   0.617   6.177   7.123
23181SOL     OW71439   1.633   8.611   5.267
23181SOL    HW171440   1.574   8.552   5.315
23181SOL    HW271441   1.719   8.570   5.273
23182SOL     OW71442  12.874   2.711   9.515
23182SOL    HW171443  12.919   2.793   9.534
23182SOL    HW271444  12.787   2.739   9.484
23183SOL     OW71445   7.493   8.687   6.000
23183SOL    HW171446   7.573   8.638   6.018
23183SOL    HW271447   7.513   8.777   6.022
23184SOL     OW71448  11.919  14.552   5.876
23184SOL    HW171449  11.890  14.551   5.785
23184SOL    HW271450  11.872  14.480   5.918
23185SOL     OW71451   0.944   2.726   4.100
23185SOL    HW171452   0.989   2.658   4.049
23185SOL    HW271453   1.011   2.791   4.118
23186SOL     OW71454   9.429   3.314  14.450
23186SOL    HW171455   9.379   3.280  14.376
23186SOL    HW271456   9.379   3.389  14.481
23187SOL     OW71457   9.951   2.640   2.811
23187SOL    HW171458   9.960   2.604   2.899
23187SOL    HW271459   9.859   2.623   2.787
23188SOL     OW71460   6.242  12.227  14.026
23188SOL    HW171461   6.253  12.136  13.998
23188SOL    HW271462   6.305  12.276  13.974
23189SOL     OW71463   5.972   0.376   1.099
23189SOL    HW171464   5.984   0.452   1.042
23189SOL    HW271465   5.888   0.391   1.141
23190SOL     OW71466  13.478  11.041  10.325
23190SOL    HW171467  13.531  11.008  10.397
23190SOL    HW271468  13.399  10.987  10.327
23191SOL     OW71469   9.689   6.066   6.383
23191SOL    HW171470   9.735   6.150   6.394
23191SOL    HW271471   9.742   6.004   6.434
23192SOL     OW71472  13.707   1.496   7.126
23192SOL    HW171473  13.689   1.505   7.220
23192SOL    HW271474  13.707   1.401   7.111
23193SOL     OW71475  10.103  13.526   2.661
23193SOL    HW171476  10.090  13.432   2.652
23193SOL    HW271477  10.023  13.558   2.703
23194SOL     OW71478   6.890   0.107   3.857
23194SOL    HW171479   6.933   0.088   3.774
23194SOL    HW271480   6.812   0.051   3.857
23195SOL     OW71481   5.722   6.696   1.064
23195SOL    HW171482   5.764   6.610   1.059
23195SOL    HW271483   5.632   6.677   1.087
23196SOL     OW71484  11.876   3.396   4.989
23196SOL    HW171485  11.916   3.380   5.075
23196SOL    HW271486  11.942   3.445   4.941
23197SOL     OW71487   9.065   8.308   5.050
23197SOL    HW171488   9.042   8.397   5.024
23197SOL    HW271489   9.118   8.275   4.978
23198SOL     OW71490   7.519  10.105  13.460
23198SOL    HW171491   7.431  10.081  13.434
23198SOL    HW271492   7.507  10.167  13.532
23199SOL     OW71493   3.611   1.642   1.623
23199SOL    HW171494   3.650   1.645   1.710
23199SOL    HW271495   3.525   1.602   1.637
23200SOL     OW71496   0.866   4.352   9.039
23200SOL    HW171497   0.916   4.288   9.090
23200SOL    HW271498   0.777   4.344   9.071
23201SOL     OW71499   5.475   6.488   4.224
23201SOL    HW171500   5.493   6.486   4.130
23201SOL    HW271501   5.401   6.548   4.233
23202SOL     OW71502   6.534   4.131  11.173
23202SOL    HW171503   6.455   4.169  11.211
23202SOL    HW271504   6.509   4.041  11.151
23203SOL     OW71505   8.669  13.776  12.535
23203SOL    HW171506   8.704  13.741  12.617
23203SOL    HW271507   8.733  13.841  12.508
23204SOL     OW71508  13.890   0.302  11.117
23204SOL    HW171509  13.959   0.363  11.145
23204SOL    HW271510  13.811   0.355  11.115
23205SOL     OW71511   1.189   3.961   8.764
23205SOL    HW171512   1.236   3.970   8.682
23205SOL    HW271513   1.256   3.935   8.828
23206SOL     OW71514   3.480   9.323  12.098
23206SOL    HW171515   3.531   9.372  12.163
23206SOL    HW271516   3.396   9.307  12.142
23207SOL     OW71517   1.694  14.145  14.750
23207SOL    HW171518   1.782  14.181  14.735
23207SOL    HW271519   1.639  14.190  14.687
23208SOL     OW71520   6.302   6.032   1.530
23208SOL    HW171521   6.358   5.958   1.505
23208SOL    HW271522   6.312   6.095   1.459
23209SOL     OW71523   6.670   9.061   8.321
23209SOL    HW171524   6.716   9.136   8.284
23209SOL    HW271525   6.740   9.004   8.352
23210SOL     OW71526   5.857   2.274   9.953
23210SOL    HW171527   5.808   2.299   9.875
23210SOL    HW271528   5.790   2.261  10.020
23211SOL     OW71529  13.167   8.406   8.843
23211SOL    HW171530  13.216   8.416   8.761
23211SOL    HW271531  13.233   8.376   8.906
23212SOL     OW71532  10.878   0.425  11.043
23212SOL    HW171533  10.789   0.410  11.013
23212SOL    HW271534  10.882   0.519  11.061
23213SOL     OW71535   9.844   5.805  12.004
23213SOL    HW171536   9.937   5.791  11.988
23213SOL    HW271537   9.836   5.802  12.100
23214SOL     OW71538   2.575   8.496   5.576
23214SOL    HW171539   2.648   8.508   5.514
23214SOL    HW271540   2.503   8.545   5.537
23215SOL     OW71541   8.693   9.088  14.168
23215SOL    HW171542   8.783   9.091  14.201
23215SOL    HW271543   8.645   9.034  14.231
23216SOL     OW71544  13.260   6.272  14.277
23216SOL    HW171545  13.271   6.188  14.233
23216SOL    HW271546  13.180   6.262  14.329
23217SOL     OW71547   6.885  13.830   1.304
23217SOL    HW171548   6.873  13.846   1.398
23217SOL    HW271549   6.800  13.851   1.265
23218SOL     OW71550   5.922  12.560   8.179
23218SOL    HW171551   5.833  12.589   8.159
23218SOL    HW271552   5.913  12.466   8.196
23219SOL     OW71553  11.996  14.593   8.557
23219SOL    HW171554  11.970  14.587   8.465
23219SOL    HW271555  11.915  14.613   8.604
23220SOL     OW71556   5.868   1.006   5.697
23220SOL    HW171557   5.963   1.016   5.684
23220SOL    HW271558   5.850   1.054   5.778
23221SOL     OW71559   9.240   0.106   8.049
23221SOL    HW171560   9.190   0.157   8.113
23221SOL    HW271561   9.208   0.016   8.060
23222SOL     OW71562   0.640  11.622  14.523
23222SOL    HW171563   0.644  11.658  14.612
23222SOL    HW271564   0.660  11.696  14.466
23223SOL     OW71565   1.867   9.422  11.223
23223SOL    HW171566   1.922   9.408  11.145
23223SOL    HW271567   1.781   9.387  11.199
23224SOL     OW71568  12.272   8.079   4.715
23224SOL    HW171569  12.187   8.076   4.760
23224SOL    HW271570  12.300   8.170   4.722
23225SOL     OW71571   5.806  11.785   2.001
23225SOL    HW171572   5.774  11.801   2.090
23225SOL    HW271573   5.849  11.867   1.976
23226SOL     OW71574   2.161   9.109   2.125
23226SOL    HW171575   2.175   9.149   2.211
23226SOL    HW271576   2.246   9.074   2.100
23227SOL     OW71577   9.272   9.999  14.600
23227SOL    HW171578   9.304   9.924  14.650
23227SOL    HW271579   9.294  10.075  14.654
23228SOL     OW71580   1.229   2.870   5.855
23228SOL    HW171581   1.316   2.846   5.887
23228SOL    HW271582   1.169   2.816   5.906
23229SOL     OW71583  12.629  13.629  13.679
23229SOL    HW171584  12.595  13.562  13.739
23229SOL    HW271585  12.722  13.607  13.668
23230SOL     OW71586   1.812   2.722   5.595
23230SOL    HW171587   1.829   2.628   5.603
23230SOL    HW271588   1.868   2.751   5.523
23231SOL     OW71589   8.888   1.838   5.506
23231SOL    HW171590   8.845   1.900   5.565
23231SOL    HW271591   8.817   1.784   5.471
23232SOL     OW71592   6.188   3.445  12.275
23232SOL    HW171593   6.121   3.406  12.329
23232SOL    HW271594   6.264   3.455  12.333
23233SOL     OW71595  14.419   0.961  10.785
23233SOL    HW171596  14.483   0.956  10.856
23233SOL    HW271597  14.378   0.874  10.784
23234SOL     OW71598  13.591   4.610  11.491
23234SOL    HW171599  13.572   4.623  11.398
23234SOL    HW271600  13.666   4.551  11.492
23235SOL     OW71601   0.396   0.728   0.960
23235SOL    HW171602   0.433   0.680   0.886
23235SOL    HW271603   0.467   0.785   0.990
23236SOL     OW71604   6.444   8.448  11.624
23236SOL    HW171605   6.417   8.430  11.714
23236SOL    HW271606   6.477   8.363  11.593
23237SOL     OW71607   1.185  13.223   0.649
23237SOL    HW171608   1.100  13.212   0.692
23237SOL    HW271609   1.165  13.270   0.569
23238SOL     OW71610  14.065  13.899   2.940
23238SOL    HW171611  14.126  13.935   2.875
23238SOL    HW271612  14.100  13.811   2.958
23239SOL     OW71613  14.699   5.645  11.668
23239SOL    HW171614  14.685   5.739  11.660
23239SOL    HW271615  14.651   5.607  11.594
23240SOL     OW71616  11.784   4.699   2.855
23240SOL    HW171617  11.851   4.767   2.857
23240SOL    HW271618  11.779   4.667   2.945
23241SOL     OW71619  10.065   3.703   5.005
23241SOL    HW171620  10.093   3.748   5.084
23241SOL    HW271621  10.045   3.773   4.943
23242SOL     OW71622   9.849   5.745  14.654
23242SOL    HW171623   9.895   5.662  14.647
23242SOL    HW271624   9.854   5.782  14.566
23243SOL     OW71625   4.066   2.223   1.270
23243SOL    HW171626   4.107   2.137   1.273
23243SOL    HW271627   4.031   2.236   1.358
23244SOL     OW71628   9.223   5.268  12.302
23244SOL    HW171629   9.169   5.305  12.232
23244SOL    HW271630   9.238   5.177  12.275
23245SOL     OW71631   0.789   8.613   7.946
23245SOL    HW171632   0.785   8.676   8.017
23245SOL    HW271633   0.799   8.528   7.990
23246SOL     OW71634   8.379  11.898   4.450
23246SOL    HW171635   8.370  11.984   4.491
23246SOL    HW271636   8.309  11.845   4.490
23247SOL     OW71637  12.226   1.060   9.914
23247SOL    HW171638  12.154   1.079   9.854
23247SOL    HW271639  12.265   1.146   9.932
23248SOL     OW71640   1.165   0.600   2.139
23248SOL    HW171641   1.203   0.676   2.093
23248SOL    HW271642   1.238   0.562   2.186
23249SOL     OW71643  10.316   3.340  12.586
23249SOL    HW171644  10.339   3.343  12.493
23249SOL    HW271645  10.320   3.248  12.609
23250SOL     OW71646   7.408  11.845   2.087
23250SOL    HW171647   7.430  11.936   2.105
23250SOL    HW271648   7.362  11.848   2.003
23251SOL     OW71649  10.292   2.791  12.537
23251SOL    HW171650  10.332   2.839  12.465
23251SOL    HW271651  10.295   2.700  12.510
23252SOL     OW71652   8.921   1.159   7.079
23252SOL    HW171653   8.898   1.202   6.997
23252SOL    HW271654   8.884   1.215   7.147
23253SOL     OW71655  10.103   2.733  10.478
23253SOL    HW171656  10.025   2.785  10.459
23253SOL    HW271657  10.157   2.740  10.399
23254SOL     OW71658  13.561   4.120  10.463
23254SOL    HW171659  13.612   4.134  10.542
23254SOL    HW271660  13.606   4.173  10.396
23255SOL     OW71661  14.437   5.822  12.939
23255SOL    HW171662  14.477   5.904  12.969
23255SOL    HW271663  14.343   5.836  12.952
23256SOL     OW71664   3.633  12.847  10.518
23256SOL    HW171665   3.725  12.845  10.543
23256SOL    HW271666   3.634  12.857  10.422
23257SOL     OW71667  14.084  11.204   8.184
23257SOL    HW171668  14.137  11.151   8.244
23257SOL    HW271669  14.063  11.283   8.233
23258SOL     OW71670   1.197   8.217  13.613
23258SOL    HW171671   1.168   8.159  13.543
23258SOL    HW271672   1.118   8.234  13.664
23259SOL     OW71673   2.503  12.430   0.387
23259SOL    HW171674   2.436  12.422   0.319
23259SOL    HW271675   2.562  12.356   0.370
23260SOL     OW71676  13.326   1.208   3.476
23260SOL    HW171677  13.350   1.299   3.457
23260SOL    HW271678  13.295   1.209   3.566
23261SOL     OW71679  11.690   7.121  13.143
23261SOL    HW171680  11.697   7.061  13.069
23261SOL    HW271681  11.710   7.207  13.106
23262SOL     OW71682  14.703  12.677  11.934
23262SOL    HW171683  14.661  12.706  11.853
23262SOL    HW271684  14.633  12.635  11.984
23263SOL     OW71685   5.336  11.883  13.495
23263SOL    HW171686   5.331  11.886  13.591
23263SOL    HW271687   5.249  11.909  13.466
23264SOL     OW71688   8.987   5.184   1.769
23264SOL    HW171689   8.970   5.242   1.694
23264SOL    HW271690   8.978   5.240   1.845
23265SOL     OW71691  14.081   5.175   7.848
23265SOL    HW171692  14.023   5.191   7.774
23265SOL    HW271693  14.057   5.088   7.880
23266SOL     OW71694  11.178   2.293  12.699
23266SOL    HW171695  11.187   2.220  12.760
23266SOL    HW271696  11.230   2.363  12.738
23267SOL     OW71697   7.241   4.065  12.410
23267SOL    HW171698   7.322   4.100  12.372
23267SOL    HW271699   7.256   3.970  12.415
23268SOL     OW71700   8.033   5.188   5.039
23268SOL    HW171701   7.984   5.138   4.974
23268SOL    HW271702   8.050   5.272   4.996
23269SOL     OW71703   8.281   8.794   4.629
23269SOL    HW171704   8.309   8.748   4.708
23269SOL    HW271705   8.217   8.858   4.660
23270SOL     OW71706  12.763   3.620   1.702
23270SOL    HW171707  12.782   3.550   1.764
23270SOL    HW271708  12.668   3.619   1.693
23271SOL     OW71709  12.198   5.190   3.839
23271SOL    HW171710  12.148   5.215   3.917
23271SOL    HW271711  12.140   5.130   3.791
23272SOL     OW71712   7.744  14.126   8.770
23272SOL    HW171713   7.683  14.136   8.843
23272SOL    HW271714   7.690  14.092   8.698
23273SOL     OW71715  12.199   9.568   2.742
23273SOL    HW171716  12.287   9.591   2.770
23273SOL    HW271717  12.150   9.650   2.747
23274SOL     OW71718   9.476   8.095   7.069
23274SOL    HW171719   9.387   8.119   7.093
23274SOL    HW271720   9.506   8.040   7.141
23275SOL     OW71721  11.916   1.726   6.477
23275SOL    HW171722  11.882   1.682   6.399
23275SOL    HW271723  11.978   1.664   6.515
23276SOL     OW71724   0.713  10.186   1.781
23276SOL    HW171725   0.650  10.168   1.711
23276SOL    HW271726   0.795  10.150   1.748
23277SOL     OW71727  13.502  14.520  11.278
23277SOL    HW171728  13.517  14.585  11.347
23277SOL    HW271729  13.407  14.520  11.266
23278SOL     OW71730   6.690   1.437  10.103
23278SOL    HW171731   6.607   1.471  10.071
23278SOL    HW271732   6.729   1.511  10.152
23279SOL     OW71733   9.007  10.804   7.641
23279SOL    HW171734   9.012  10.730   7.581
23279SOL    HW271735   8.917  10.804   7.673
23280SOL     OW71736   8.631  12.270   5.373
23280SOL    HW171737   8.563  12.331   5.401
23280SOL    HW271738   8.585  12.206   5.319
23281SOL     OW71739   3.603  11.027   2.051
23281SOL    HW171740   3.684  10.977   2.058
23281SOL    HW271741   3.597  11.075   2.133
23282SOL     OW71742  13.551   3.805   4.159
23282SOL    HW171743  13.633   3.839   4.196
23282SOL    HW271744  13.572   3.787   4.068
23283SOL     OW71745   6.860   6.354  12.688
23283SOL    HW171746   6.834   6.442  12.658
23283SOL    HW271747   6.953   6.348  12.664
23284SOL     OW71748   0.944   1.269  13.624
23284SOL    HW171749   1.039   1.275  13.614
23284SOL    HW271750   0.912   1.250  13.536
23285SOL     OW71751   9.805   7.503   7.531
23285SOL    HW171752   9.874   7.569   7.538
23285SOL    HW271753   9.844   7.423   7.568
23286SOL     OW71754   1.213   1.013   0.794
23286SOL    HW171755   1.296   0.967   0.782
23286SOL    HW271756   1.192   0.999   0.887
23287SOL     OW71757   0.295   2.595   1.871
23287SOL    HW171758   0.374   2.541   1.876
23287SOL    HW271759   0.281   2.608   1.777
23288SOL     OW71760  14.388   0.572   9.658
23288SOL    HW171761  14.361   0.645   9.603
23288SOL    HW271762  14.317   0.563   9.721
23289SOL     OW71763   4.362   1.168  11.851
23289SOL    HW171764   4.272   1.146  11.825
23289SOL    HW271765   4.360   1.167  11.947
23290SOL     OW71766   6.860   5.689   0.576
23290SOL    HW171767   6.846   5.734   0.659
23290SOL    HW271768   6.779   5.640   0.561
23291SOL     OW71769   5.116   8.575  10.367
23291SOL    HW171770   5.038   8.525  10.346
23291SOL    HW271771   5.110   8.654  10.314
23292SOL     OW71772   4.001   1.098   6.503
23292SOL    HW171773   3.933   1.140   6.555
23292SOL    HW271774   4.048   1.170   6.462
23293SOL     OW71775  14.331   7.713  10.041
23293SOL    HW171776  14.255   7.673  10.083
23293SOL    HW271777  14.340   7.798  10.082
23294SOL     OW71778   8.579   8.683   0.434
23294SOL    HW171779   8.490   8.653   0.416
23294SOL    HW271780   8.586   8.766   0.386
23295SOL     OW71781   5.381  14.430   3.664
23295SOL    HW171782   5.336  14.369   3.605
23295SOL    HW271783   5.379  14.386   3.749
23296SOL     OW71784  10.688   0.385   9.280
23296SOL    HW171785  10.682   0.313   9.217
23296SOL    HW271786  10.599   0.393   9.315
23297SOL     OW71787   7.580   7.370   7.582
23297SOL    HW171788   7.560   7.276   7.588
23297SOL    HW271789   7.670   7.378   7.614
23298SOL     OW71790   2.688   0.364   4.935
23298SOL    HW171791   2.617   0.428   4.927
23298SOL    HW271792   2.654   0.298   4.995
23299SOL     OW71793   3.195   5.021   5.398
23299SOL    HW171794   3.157   4.964   5.331
23299SOL    HW271795   3.220   4.962   5.468
23300SOL     OW71796   7.728   7.765   1.845
23300SOL    HW171797   7.782   7.778   1.766
23300SOL    HW271798   7.718   7.853   1.882
23301SOL     OW71799   1.645   3.362   3.265
23301SOL    HW171800   1.625   3.289   3.323
23301SOL    HW271801   1.730   3.339   3.226
23302SOL     OW71802   2.726  11.345   9.169
23302SOL    HW171803   2.637  11.352   9.134
23302SOL    HW271804   2.723  11.267   9.225
23303SOL     OW71805   5.084   0.766  12.619
23303SOL    HW171806   5.140   0.799  12.688
23303SOL    HW271807   4.997   0.762  12.658
23304SOL     OW71808   0.609  12.657  13.671
23304SOL    HW171809   0.541  12.612  13.721
23304SOL    HW271810   0.677  12.591  13.657
23305SOL     OW71811  13.534   6.804   1.909
23305SOL    HW171812  13.517   6.863   1.983
23305SOL    HW271813  13.629   6.792   1.910
23306SOL     OW71814   0.292   4.685   0.092
23306SOL    HW171815   0.234   4.760   0.096
23306SOL    HW271816   0.255   4.622   0.154
23307SOL     OW71817   0.165   6.888   7.712
23307SOL    HW171818   0.116   6.831   7.771
23307SOL    HW271819   0.099   6.923   7.653
23308SOL     OW71820  13.940  11.508   1.990
23308SOL    HW171821  13.878  11.578   2.006
23308SOL    HW271822  13.910  11.435   2.045
23309SOL     OW71823  10.552  14.154   5.359
23309SOL    HW171824  10.643  14.134   5.384
23309SOL    HW271825  10.554  14.246   5.334
23310SOL     OW71826  10.646  14.264   5.779
23310SOL    HW171827  10.714  14.197   5.790
23310SOL    HW271828  10.583  14.246   5.848
23311SOL     OW71829   8.923   5.882   6.661
23311SOL    HW171830   8.970   5.932   6.728
23311SOL    HW271831   8.892   5.949   6.599
23312SOL     OW71832   2.041   9.828  12.144
23312SOL    HW171833   2.037   9.909  12.093
23312SOL    HW271834   2.025   9.759  12.079
23313SOL     OW71835   0.370  13.820   9.630
23313SOL    HW171836   0.450  13.776   9.661
23313SOL    HW271837   0.358  13.787   9.541
23314SOL     OW71838   9.744  10.020   4.709
23314SOL    HW171839   9.654  10.047   4.690
23314SOL    HW271840   9.743   9.925   4.702
23315SOL     OW71841   3.349   7.125   6.095
23315SOL    HW171842   3.284   7.195   6.088
23315SOL    HW271843   3.337   7.089   6.183
23316SOL     OW71844   6.374   0.726   6.825
23316SOL    HW171845   6.453   0.766   6.788
23316SOL    HW271846   6.355   0.652   6.766
23317SOL     OW71847  13.667  11.023  11.272
23317SOL    HW171848  13.754  11.035  11.235
23317SOL    HW271849  13.612  11.001  11.196
23318SOL     OW71850  10.833   3.470   6.541
23318SOL    HW171851  10.809   3.510   6.625
23318SOL    HW271852  10.921   3.434   6.556
23319SOL     OW71853   7.900  14.611  13.899
23319SOL    HW171854   7.905  14.629  13.993
23319SOL    HW271855   7.917  14.695  13.857
23320SOL     OW71856  13.916   9.108   1.571
23320SOL    HW171857  13.948   9.028   1.613
23320SOL    HW271858  13.824   9.114   1.598
23321SOL     OW71859   7.382   8.639   8.736
23321SOL    HW171860   7.362   8.620   8.644
23321SOL    HW271861   7.388   8.553   8.777
23322SOL     OW71862   5.372   8.071   6.624
23322SOL    HW171863   5.285   8.103   6.650
23322SOL    HW271864   5.431   8.143   6.645
23323SOL     OW71865   8.874  10.357   8.568
23323SOL    HW171866   8.931  10.282   8.586
23323SOL    HW271867   8.840  10.341   8.480
23324SOL     OW71868  13.571   2.967  13.058
23324SOL    HW171869  13.570   2.895  13.121
23324SOL    HW271870  13.599   2.927  12.976
23325SOL     OW71871  13.938   0.507  13.340
23325SOL    HW171872  13.997   0.582  13.329
23325SOL    HW271873  13.995   0.432  13.353
23326SOL     OW71874  10.416   3.182   8.451
23326SOL    HW171875  10.388   3.161   8.540
23326SOL    HW271876  10.392   3.105   8.399
23327SOL     OW71877  12.819  11.600   8.474
23327SOL    HW171878  12.791  11.678   8.522
23327SOL    HW271879  12.861  11.634   8.395
23328SOL     OW71880  14.254   5.355  11.754
23328SOL    HW171881  14.247   5.270  11.712
23328SOL    HW271882  14.308   5.407  11.695
23329SOL     OW71883   4.273   3.299   2.262
23329SOL    HW171884   4.327   3.308   2.340
23329SOL    HW271885   4.197   3.250   2.291
23330SOL     OW71886   5.384   0.022  13.854
23330SOL    HW171887   5.319  14.849  13.811
23330SOL    HW271888   5.332   0.086  13.904
23331SOL     OW71889   3.201  14.263   4.655
23331SOL    HW171890   3.230  14.192   4.598
23331SOL    HW271891   3.136  14.223   4.713
23332SOL     OW71892   3.895   7.439   4.467
23332SOL    HW171893   3.929   7.353   4.490
23332SOL    HW271894   3.885   7.484   4.551
23333SOL     OW71895  11.559   8.990   7.568
23333SOL    HW171896  11.483   9.004   7.625
23333SOL    HW271897  11.591   8.903   7.592
23334SOL     OW71898   8.619  11.245   1.638
23334SOL    HW171899   8.614  11.339   1.619
23334SOL    HW271900   8.549  11.207   1.584
23335SOL     OW71901   6.027   0.377   3.681
23335SOL    HW171902   6.076   0.325   3.745
23335SOL    HW271903   5.982   0.443   3.734
23336SOL     OW71904   0.601   8.740  14.553
23336SOL    HW171905   0.679   8.794  14.560
23336SOL    HW271906   0.542   8.790  14.496
23337SOL     OW71907   1.818   3.833  12.161
23337SOL    HW171908   1.802   3.741  12.142
23337SOL    HW271909   1.770   3.881  12.093
23338SOL     OW71910   1.333  12.309  14.026
23338SOL    HW171911   1.342  12.402  14.004
23338SOL    HW271912   1.313  12.308  14.120
23339SOL     OW71913  10.805   9.196  11.405
23339SOL    HW171914  10.770   9.253  11.336
23339SOL    HW271915  10.785   9.107  11.375
23340SOL     OW71916   2.591   5.183   7.843
23340SOL    HW171917   2.518   5.245   7.845
23340SOL    HW271918   2.549   5.097   7.843
23341SOL     OW71919   3.600   7.778   5.822
23341SOL    HW171920   3.616   7.837   5.748
23341SOL    HW271921   3.648   7.817   5.895
23342SOL     OW71922  11.845   6.709   9.261
23342SOL    HW171923  11.821   6.643   9.196
23342SOL    HW271924  11.927   6.747   9.228
23343SOL     OW71925   8.390  11.248  14.402
23343SOL    HW171926   8.373  11.266  14.494
23343SOL    HW271927   8.485  11.239  14.396
23344SOL     OW71928  14.845   0.682   6.638
23344SOL    HW171929   0.003   0.688   6.725
23344SOL    HW271930  14.761   0.727   6.648
23345SOL     OW71931   1.166   9.828  13.562
23345SOL    HW171932   1.147   9.915  13.527
23345SOL    HW271933   1.085   9.802  13.606
23346SOL     OW71934   8.629  13.256   8.151
23346SOL    HW171935   8.571  13.183   8.173
23346SOL    HW271936   8.574  13.334   8.157
23347SOL     OW71937   1.257  10.202   5.858
23347SOL    HW171938   1.180  10.232   5.810
23347SOL    HW271939   1.224  10.131   5.914
23348SOL     OW71940  10.912   9.764   8.091
23348SOL    HW171941  10.852   9.838   8.075
23348SOL    HW271942  10.924   9.725   8.004
23349SOL     OW71943   8.225  14.670   3.616
23349SOL    HW171944   8.153  14.711   3.568
23349SOL    HW271945   8.196  14.669   3.707
23350SOL     OW71946   1.724   3.974   6.301
23350SOL    HW171947   1.720   3.893   6.250
23350SOL    HW271948   1.790   4.027   6.256
23351SOL     OW71949   3.673   3.581   5.471
23351SOL    HW171950   3.647   3.662   5.427
23351SOL    HW271951   3.629   3.512   5.421
23352SOL     OW71952   2.645   1.771   7.788
23352SOL    HW171953   2.605   1.688   7.762
23352SOL    HW271954   2.587   1.838   7.752
23353SOL     OW71955  11.023   4.536   5.278
23353SOL    HW171956  11.016   4.492   5.362
23353SOL    HW271957  10.952   4.600   5.277
23354SOL     OW71958   6.023  13.507  10.776
23354SOL    HW171959   6.058  13.429  10.732
23354SOL    HW271960   6.099  13.562  10.792
23355SOL     OW71961   4.835  12.316  10.314
23355SOL    HW171962   4.803  12.242  10.365
23355SOL    HW271963   4.760  12.345  10.264
23356SOL     OW71964   7.513   3.103  12.914
23356SOL    HW171965   7.507   3.109  12.819
23356SOL    HW271966   7.433   3.145  12.945
23357SOL     OW71967   5.745   9.737  13.128
23357SOL    HW171968   5.748   9.830  13.102
23357SOL    HW271969   5.696   9.695  13.058
23358SOL     OW71970   2.473   1.525   0.500
23358SOL    HW171971   2.491   1.610   0.460
23358SOL    HW271972   2.524   1.463   0.448
23359SOL     OW71973   1.364   2.691   0.030
23359SOL    HW171974   1.303   2.631  14.868
23359SOL    HW271975   1.363   2.663   0.122
23360SOL     OW71976   6.211   9.045  10.024
23360SOL    HW171977   6.235   9.106   9.955
23360SOL    HW271978   6.256   9.077  10.102
23361SOL     OW71979  14.309   7.523   0.705
23361SOL    HW171980  14.337   7.488   0.620
23361SOL    HW271981  14.297   7.616   0.689
23362SOL     OW71982   2.356  14.422   2.206
23362SOL    HW171983   2.276  14.406   2.156
23362SOL    HW271984   2.333  14.493   2.266
23363SOL     OW71985   9.370   1.777   3.795
23363SOL    HW171986   9.329   1.696   3.825
23363SOL    HW271987   9.298   1.828   3.758
23364SOL     OW71988   8.167   4.570   6.746
23364SOL    HW171989   8.086   4.519   6.738
23364SOL    HW271990   8.236   4.504   6.750
23365SOL     OW71991   3.493  11.077   7.934
23365SOL    HW171992   3.522  10.987   7.952
23365SOL    HW271993   3.534  11.130   8.003
23366SOL     OW71994   5.223  13.906  13.832
23366SOL    HW171995   5.292  13.844  13.851
23366SOL    HW271996   5.166  13.861  13.770
23367SOL     OW71997   8.527   2.968   1.696
23367SOL    HW171998   8.597   2.905   1.711
23367SOL    HW271999   8.447   2.915   1.698
23368SOL     OW72000  10.066   9.934  14.281
23368SOL    HW172001  10.035  10.024  14.292
23368SOL    HW272002  10.158   9.943  14.255
23369SOL     OW72003   7.217   2.497  13.548
23369SOL    HW172004   7.141   2.544  13.582
23369SOL    HW272005   7.240   2.544  13.468
23370SOL     OW72006   4.925  13.231  14.252
23370SOL    HW172007   4.949  13.304  14.309
23370SOL    HW272008   4.986  13.161  14.275
23371SOL     OW72009  10.011   8.415   2.128
23371SOL    HW172010  10.080   8.400   2.192
23371SOL    HW272011  10.042   8.490   2.076
23372SOL     OW72012   4.980  12.084   7.171
23372SOL    HW172013   5.069  12.115   7.156
23372SOL    HW272014   4.946  12.064   7.084
23373SOL     OW72015   6.530  14.251  12.613
23373SOL    HW172016   6.557  14.206  12.693
23373SOL    HW272017   6.531  14.344  12.636
23374SOL     OW72018  13.474   7.327  10.336
23374SOL    HW172019  13.420   7.392  10.292
23374SOL    HW272020  13.476   7.354  10.427
23375SOL     OW72021   2.762   0.856   4.248
23375SOL    HW172022   2.822   0.916   4.292
23375SOL    HW272023   2.739   0.792   4.316
23376SOL     OW72024  12.777  14.406  11.345
23376SOL    HW172025  12.783  14.323  11.298
23376SOL    HW272026  12.683  14.428  11.344
23377SOL     OW72027  12.150   3.806   4.934
23377SOL    HW172028  12.222   3.840   4.987
23377SOL    HW272029  12.081   3.871   4.942
23378SOL     OW72030  10.682  10.469   2.339
23378SOL    HW172031  10.762  10.519   2.358
23378SOL    HW272032  10.658  10.495   2.250
23379SOL     OW72033   6.163   9.610   1.127
23379SOL    HW172034   6.243   9.608   1.075
23379SOL    HW272035   6.135   9.702   1.126
23380SOL     OW72036   4.271  14.085  13.311
23380SOL    HW172037   4.201  14.105  13.373
23380SOL    HW272038   4.297  13.996  13.332
23381SOL     OW72039   9.105   1.568   6.341
23381SOL    HW172040   9.093   1.480   6.379
23381SOL    HW272041   9.024   1.614   6.363
23382SOL     OW72042  10.010   0.050   7.893
23382SOL    HW172043  10.069   0.112   7.851
23382SOL    HW272044   9.933   0.101   7.916
23383SOL     OW72045  10.178   5.644   3.085
23383SOL    HW172046  10.102   5.683   3.041
23383SOL    HW272047  10.206   5.574   3.026
23384SOL     OW72048   9.565  12.330  11.278
23384SOL    HW172049   9.653  12.363  11.260
23384SOL    HW272050   9.507  12.393  11.234
23385SOL     OW72051   8.761   5.591  13.448
23385SOL    HW172052   8.832   5.625  13.394
23385SOL    HW272053   8.700   5.550  13.387
23386SOL     OW72054  10.200   6.026   3.953
23386SOL    HW172055  10.129   5.982   3.905
23386SOL    HW272056  10.255   6.064   3.885
23387SOL     OW72057  11.966  10.510   3.538
23387SOL    HW172058  12.030  10.577   3.513
23387SOL    HW272059  11.883  10.545   3.507
23388SOL     OW72060   6.902  13.870  14.601
23388SOL    HW172061   6.964  13.909  14.663
23388SOL    HW272062   6.823  13.856  14.652
23389SOL     OW72063   5.132   6.617  10.578
23389SOL    HW172064   5.107   6.626  10.670
23389SOL    HW272065   5.053   6.584  10.535
23390SOL     OW72066   0.043   7.771   1.806
23390SOL    HW172067  14.878   7.819   1.874
23390SOL    HW272068  14.879   7.687   1.800
23391SOL     OW72069   0.459   2.177  11.870
23391SOL    HW172070   0.415   2.169  11.955
23391SOL    HW272071   0.390   2.160  11.806
23392SOL     OW72072  10.167   5.161   5.452
23392SOL    HW172073  10.232   5.100   5.417
23392SOL    HW272074  10.211   5.204   5.526
23393SOL     OW72075   8.305  12.804  14.347
23393SOL    HW172076   8.346  12.776  14.429
23393SOL    HW272077   8.377  12.808  14.284
23394SOL     OW72078  14.392   6.268  12.427
23394SOL    HW172079  14.475   6.238  12.464
23394SOL    HW272080  14.368   6.199  12.365
23395SOL     OW72081  10.038   4.529   0.264
23395SOL    HW172082  10.007   4.609   0.223
23395SOL    HW272083  10.055   4.470   0.191
23396SOL     OW72084   5.913  10.207  11.687
23396SOL    HW172085   5.923  10.285  11.741
23396SOL    HW272086   5.853  10.234  11.618
23397SOL     OW72087   5.607   7.268  12.326
23397SOL    HW172088   5.697   7.236  12.320
23397SOL    HW272089   5.556   7.192  12.355
23398SOL     OW72090   3.068   9.897   3.205
23398SOL    HW172091   3.151   9.923   3.167
23398SOL    HW272092   3.088   9.818   3.256
23399SOL     OW72093   0.019   8.910  11.038
23399SOL    HW172094   0.086   8.971  11.005
23399SOL    HW272095  14.824   8.965  11.052
23400SOL     OW72096  10.187   3.268  14.657
23400SOL    HW172097  10.194   3.363  14.650
23400SOL    HW272098  10.271   3.241  14.694
23401SOL     OW72099   3.738  11.377   2.252
23401SOL    HW172100   3.775  11.389   2.164
23401SOL    HW272101   3.686  11.297   2.245
23402SOL     OW72102   1.722   2.384  12.291
23402SOL    HW172103   1.698   2.371  12.383
23402SOL    HW272104   1.639   2.401  12.246
23403SOL     OW72105  12.965  12.370  14.099
23403SOL    HW172106  12.901  12.301  14.081
23403SOL    HW272107  12.937  12.408  14.182
23404SOL     OW72108   3.274  10.315  11.083
23404SOL    HW172109   3.187  10.339  11.049
23404SOL    HW272110   3.330  10.311  11.005
23405SOL     OW72111   2.450   5.702   8.305
23405SOL    HW172112   2.377   5.703   8.244
23405SOL    HW272113   2.413   5.734   8.387
23406SOL     OW72114   4.033   9.651  11.555
23406SOL    HW172115   4.015   9.563  11.521
23406SOL    HW272116   3.974   9.661  11.629
23407SOL     OW72117   4.981   1.909   3.168
23407SOL    HW172118   5.028   1.827   3.184
23407SOL    HW272119   5.042   1.963   3.118
23408SOL     OW72120   9.778   1.881  14.543
23408SOL    HW172121   9.700   1.882  14.488
23408SOL    HW272122   9.843   1.834  14.491
23409SOL     OW72123   4.853   8.385   5.530
23409SOL    HW172124   4.858   8.319   5.460
23409SOL    HW272125   4.768   8.427   5.518
23410SOL     OW72126   3.791  11.458  12.179
23410SOL    HW172127   3.701  11.488  12.188
23410SOL    HW272128   3.788  11.365  12.203
23411SOL     OW72129   1.024  10.728  13.958
23411SOL    HW172130   1.024  10.823  13.954
23411SOL    HW272131   1.048  10.699  13.870
23412SOL     OW72132   7.428   7.938   1.324
23412SOL    HW172133   7.355   7.965   1.379
23412SOL    HW272134   7.476   7.873   1.375
23413SOL     OW72135  12.723   5.939  14.543
23413SOL    HW172136  12.777   5.981  14.611
23413SOL    HW272137  12.787   5.895  14.486
23414SOL     OW72138   4.748   9.884   4.615
23414SOL    HW172139   4.789   9.801   4.639
23414SOL    HW272140   4.818   9.933   4.571
23415SOL     OW72141   4.186   7.407   7.980
23415SOL    HW172142   4.270   7.449   7.998
23415SOL    HW272143   4.135   7.473   7.934
23416SOL     OW72144  11.349  10.027   7.415
23416SOL    HW172145  11.303  10.090   7.470
23416SOL    HW272146  11.303   9.944   7.431
23417SOL     OW72147   4.217   3.180  14.419
23417SOL    HW172148   4.143   3.218  14.467
23417SOL    HW272149   4.254   3.254  14.371
23418SOL     OW72150  14.705   3.075   5.452
23418SOL    HW172151  14.630   3.131   5.466
23418SOL    HW272152  14.694   3.041   5.363
23419SOL     OW72153   6.425   3.939  10.713
23419SOL    HW172154   6.453   4.013  10.660
23419SOL    HW272155   6.504   3.887  10.726
23420SOL     OW72156  12.941   3.454   0.606
23420SOL    HW172157  12.891   3.501   0.539
23420SOL    HW272158  12.900   3.480   0.689
23421SOL     OW72159   6.697   4.730   0.137
23421SOL    HW172160   6.656   4.796   0.082
23421SOL    HW272161   6.640   4.722   0.214
23422SOL     OW72162  11.813   2.972   1.252
23422SOL    HW172163  11.828   2.971   1.158
23422SOL    HW272164  11.761   2.893   1.269
23423SOL     OW72165  14.686  12.019  13.955
23423SOL    HW172166  14.764  11.968  13.980
23423SOL    HW272167  14.694  12.100  14.006
23424SOL     OW72168   1.594   1.382  10.006
23424SOL    HW172169   1.531   1.312  10.016
23424SOL    HW272170   1.549   1.460  10.038
23425SOL     OW72171  12.329   6.349   7.087
23425SOL    HW172172  12.286   6.272   7.124
23425SOL    HW272173  12.422   6.329   7.091
23426SOL     OW72174  13.876   8.784  11.864
23426SOL    HW172175  13.871   8.850  11.795
23426SOL    HW272176  13.836   8.827  11.940
23427SOL     OW72177   3.797   9.978   4.823
23427SOL    HW172178   3.739   9.905   4.799
23427SOL    HW272179   3.837  10.005   4.740
23428SOL     OW72180   5.376   2.471   8.290
23428SOL    HW172181   5.281   2.477   8.302
23428SOL    HW272182   5.389   2.478   8.195
23429SOL     OW72183   1.018   3.005  11.569
23429SOL    HW172184   1.036   3.087  11.523
23429SOL    HW272185   0.931   3.018  11.607
23430SOL     OW72186   1.296   0.474   4.862
23430SOL    HW172187   1.319   0.566   4.847
23430SOL    HW272188   1.218   0.460   4.809
23431SOL     OW72189   2.680   6.741  13.935
23431SOL    HW172190   2.736   6.671  13.900
23431SOL    HW272191   2.740   6.798  13.984
23432SOL     OW72192  10.091  13.844   9.978
23432SOL    HW172193  10.121  13.827  10.067
23432SOL    HW272194  10.009  13.892   9.989
23433SOL     OW72195  12.657  12.535   5.241
23433SOL    HW172196  12.567  12.503   5.233
23433SOL    HW272197  12.653  12.601   5.309
23434SOL     OW72198   1.064   8.177   7.329
23434SOL    HW172199   1.051   8.107   7.393
23434SOL    HW272200   0.977   8.216   7.319
23435SOL     OW72201   6.079  12.471  12.274
23435SOL    HW172202   6.167  12.493  12.244
23435SOL    HW272203   6.093  12.420  12.354
23436SOL     OW72204   4.855   8.452  14.422
23436SOL    HW172205   4.825   8.479  14.335
23436SOL    HW272206   4.872   8.534  14.468
23437SOL     OW72207   0.492   0.111  14.537
23437SOL    HW172208   0.559   0.136  14.601
23437SOL    HW272209   0.429   0.184  14.538
23438SOL     OW72210  11.447   3.520   2.398
23438SOL    HW172211  11.513   3.563   2.344
23438SOL    HW272212  11.491   3.444   2.434
23439SOL     OW72213   4.486  10.026   6.743
23439SOL    HW172214   4.495  10.012   6.649
23439SOL    HW272215   4.574  10.014   6.778
23440SOL     OW72216   4.596   9.272   2.408
23440SOL    HW172217   4.674   9.309   2.367
23440SOL    HW272218   4.523   9.313   2.362
23441SOL     OW72219   4.020   8.491  12.070
23441SOL    HW172220   4.024   8.571  12.122
23441SOL    HW272221   4.101   8.491  12.019
23442SOL     OW72222  12.923  10.852   4.631
23442SOL    HW172223  12.928  10.946   4.650
23442SOL    HW272224  12.874  10.815   4.705
23443SOL     OW72225   0.759  12.536   3.978
23443SOL    HW172226   0.755  12.498   4.066
23443SOL    HW272227   0.804  12.470   3.925
23444SOL     OW72228   5.752  14.727   0.607
23444SOL    HW172229   5.753  14.707   0.701
23444SOL    HW272230   5.756  14.823   0.603
23445SOL     OW72231   8.752   3.889  14.270
23445SOL    HW172232   8.700   3.883  14.190
23445SOL    HW272233   8.690   3.869  14.340
23446SOL     OW72234   7.916   6.428  12.814
23446SOL    HW172235   7.912   6.411  12.720
23446SOL    HW272236   7.981   6.498  12.823
23447SOL     OW72237   6.115   5.761   3.394
23447SOL    HW172238   6.038   5.811   3.367
23447SOL    HW272239   6.179   5.827   3.420
23448SOL     OW72240   4.367   3.836  11.997
23448SOL    HW172241   4.413   3.864  12.076
23448SOL    HW272242   4.425   3.771  11.957
23449SOL     OW72243   5.576   6.428  13.975
23449SOL    HW172244   5.583   6.418  14.070
23449SOL    HW272245   5.482   6.441  13.960
23450SOL     OW72246   3.319   0.241   7.174
23450SOL    HW172247   3.382   0.313   7.166
23450SOL    HW272248   3.275   0.257   7.258
23451SOL     OW72249   0.354   5.569   2.498
23451SOL    HW172250   0.405   5.650   2.508
23451SOL    HW272251   0.284   5.576   2.563
23452SOL     OW72252   4.253   0.834   8.538
23452SOL    HW172253   4.344   0.858   8.552
23452SOL    HW272254   4.249   0.741   8.560
23453SOL     OW72255  10.947  14.429  14.566
23453SOL    HW172256  10.952  14.352  14.623
23453SOL    HW272257  10.886  14.488  14.612
23454SOL     OW72258  10.446   5.414   5.494
23454SOL    HW172259  10.409   5.487   5.444
23454SOL    HW272260  10.374   5.383   5.548
23455SOL     OW72261  10.126   2.886  11.571
23455SOL    HW172262  10.102   2.795  11.587
23455SOL    HW272263  10.065   2.915  11.503
23456SOL     OW72264   2.647   5.711  12.183
23456SOL    HW172265   2.734   5.677  12.205
23456SOL    HW272266   2.649   5.803  12.210
23457SOL     OW72267   5.006   2.496  12.401
23457SOL    HW172268   5.011   2.592  12.407
23457SOL    HW272269   4.918   2.479  12.366
23458SOL     OW72270  13.236   1.301   0.634
23458SOL    HW172271  13.257   1.389   0.604
23458SOL    HW272272  13.314   1.272   0.682
23459SOL     OW72273   0.767   1.266   2.215
23459SOL    HW172274   0.766   1.359   2.194
23459SOL    HW272275   0.782   1.223   2.131
23460SOL     OW72276   9.552   3.914   6.890
23460SOL    HW172277   9.464   3.879   6.903
23460SOL    HW272278   9.555   3.936   6.796
23461SOL     OW72279  12.932   8.478   3.084
23461SOL    HW172280  12.842   8.497   3.111
23461SOL    HW272281  12.933   8.384   3.065
23462SOL     OW72282   6.354  11.593  11.186
23462SOL    HW172283   6.281  11.603  11.246
23462SOL    HW272284   6.429  11.575  11.242
23463SOL     OW72285  14.866   9.358   2.840
23463SOL    HW172286  14.791   9.414   2.816
23463SOL    HW272287  14.876   9.298   2.766
23464SOL     OW72288   0.137  14.069   7.538
23464SOL    HW172289   0.106  14.159   7.533
23464SOL    HW272290   0.091  14.033   7.615
23465SOL     OW72291   3.783   8.753   4.370
23465SOL    HW172292   3.771   8.836   4.416
23465SOL    HW272293   3.696   8.713   4.372
23466SOL     OW72294   9.552   1.693   9.536
23466SOL    HW172295   9.482   1.692   9.471
23466SOL    HW272296   9.505   1.688   9.620
23467SOL     OW72297   1.175  13.239  12.799
23467SOL    HW172298   1.175  13.332  12.778
23467SOL    HW272299   1.160  13.235  12.893
23468SOL     OW72300   4.577   7.538   0.644
23468SOL    HW172301   4.647   7.472   0.647
23468SOL    HW272302   4.576   7.569   0.554
23469SOL     OW72303   9.477   5.895  14.725
23469SOL    HW172304   9.383   5.909  14.735
23469SOL    HW272305   9.484   5.819  14.667
23470SOL     OW72306   1.070   7.908   3.755
23470SOL    HW172307   1.077   7.977   3.689
23470SOL    HW272308   0.992   7.931   3.806
23471SOL     OW72309   0.312  10.736   8.216
23471SOL    HW172310   0.274  10.651   8.239
23471SOL    HW272311   0.331  10.777   8.300
23472SOL     OW72312   3.970  13.956   8.142
23472SOL    HW172313   3.884  13.914   8.144
23472SOL    HW272314   3.968  14.012   8.065
23473SOL     OW72315   8.709   8.046   9.921
23473SOL    HW172316   8.703   7.999   9.838
23473SOL    HW272317   8.684   7.983   9.988
23474SOL     OW72318   4.207  11.136   2.293
23474SOL    HW172319   4.125  11.128   2.342
23474SOL    HW272320   4.274  11.100   2.352
23475SOL     OW72321   8.462  13.869   5.104
23475SOL    HW172322   8.550  13.903   5.122
23475SOL    HW272323   8.473  13.774   5.103
23476SOL     OW72324  10.018   6.436   9.119
23476SOL    HW172325  10.025   6.372   9.048
23476SOL    HW272326  10.097   6.422   9.172
23477SOL     OW72327   5.296   2.755  13.216
23477SOL    HW172328   5.257   2.755  13.304
23477SOL    HW272329   5.271   2.840  13.179
23478SOL     OW72330   5.307   1.569   2.891
23478SOL    HW172331   5.308   1.629   2.816
23478SOL    HW272332   5.390   1.521   2.884
23479SOL     OW72333  12.573   4.063   4.492
23479SOL    HW172334  12.584   4.101   4.405
23479SOL    HW272335  12.653   4.088   4.539
23480SOL     OW72336   4.522   7.231   2.001
23480SOL    HW172337   4.458   7.276   1.947
23480SOL    HW272338   4.539   7.292   2.074
23481SOL     OW72339  13.030   0.560  10.618
23481SOL    HW172340  13.058   0.638  10.667
23481SOL    HW272341  13.107   0.535  10.568
23482SOL     OW72342   2.841   1.732   8.390
23482SOL    HW172343   2.754   1.694   8.378
23482SOL    HW272344   2.888   1.710   8.309
23483SOL     OW72345  14.617  11.729  11.443
23483SOL    HW172346  14.667  11.786  11.502
23483SOL    HW272347  14.556  11.682  11.500
23484SOL     OW72348   5.923   5.909  14.032
23484SOL    HW172349   5.981   5.956  13.972
23484SOL    HW272350   5.891   5.835  13.982
23485SOL     OW72351  14.856  14.323  14.230
23485SOL    HW172352  14.858  14.264  14.154
23485SOL    HW272353   0.038  14.391  14.208
23486SOL     OW72354  12.757  13.726   4.934
23486SOL    HW172355  12.704  13.799   4.902
23486SOL    HW272356  12.695  13.667   4.976
23487SOL     OW72357  12.729  12.345  12.106
23487SOL    HW172358  12.788  12.310  12.039
23487SOL    HW272359  12.649  12.292  12.097
23488SOL     OW72360   6.720  11.908   0.051
23488SOL    HW172361   6.678  11.830   0.088
23488SOL    HW272362   6.806  11.878   0.022
23489SOL     OW72363  14.670   2.290   7.163
23489SOL    HW172364  14.751   2.338   7.182
23489SOL    HW272365  14.624   2.346   7.100
23490SOL     OW72366   7.350   5.624   8.095
23490SOL    HW172367   7.399   5.596   8.172
23490SOL    HW272368   7.326   5.542   8.051
23491SOL     OW72369   8.528   9.415   8.996
23491SOL    HW172370   8.559   9.399   9.085
23491SOL    HW272371   8.590   9.370   8.939
23492SOL     OW72372   7.028   3.296   2.920
23492SOL    HW172373   7.090   3.333   2.983
23492SOL    HW272374   6.952   3.355   2.924
23493SOL     OW72375  11.013   5.335   3.633
23493SOL    HW172376  10.983   5.380   3.712
23493SOL    HW272377  10.944   5.352   3.568
23494SOL     OW72378   7.398  14.329  12.846
23494SOL    HW172379   7.321  14.273  12.853
23494SOL    HW272380   7.385  14.396  12.913
23495SOL     OW72381   9.375   1.804   2.496
23495SOL    HW172382   9.412   1.751   2.425
23495SOL    HW272383   9.404   1.893   2.477
23496SOL     OW72384  14.268  14.578  13.214
23496SOL    HW172385  14.307  14.508  13.266
23496SOL    HW272386  14.208  14.532  13.154
23497SOL     OW72387   2.486   0.209   5.877
23497SOL    HW172388   2.504   0.290   5.925
23497SOL    HW272389   2.546   0.211   5.803
23498SOL     OW72390   5.014   9.306   2.475
23498SOL    HW172391   4.978   9.335   2.559
23498SOL    HW272392   4.942   9.315   2.413
23499SOL     OW72393   3.409  13.346   2.707
23499SOL    HW172394   3.319  13.335   2.678
23499SOL    HW272395   3.418  13.440   2.724
23500SOL     OW72396  13.253   4.136   4.868
23500SOL    HW172397  13.332   4.093   4.834
23500SOL    HW272398  13.268   4.140   4.963
23501SOL     OW72399   7.543  10.376  10.663
23501SOL    HW172400   7.495  10.454  10.691
23501SOL    HW272401   7.478  10.307  10.661
23502SOL     OW72402   5.809  13.069   4.335
23502SOL    HW172403   5.816  13.149   4.388
23502SOL    HW272404   5.728  13.028   4.364
23503SOL     OW72405   5.085  13.917  13.049
23503SOL    HW172406   5.119  14.002  13.076
23503SOL    HW272407   5.158  13.875  13.004
23504SOL     OW72408  12.051   1.387   9.290
23504SOL    HW172409  12.127   1.382   9.347
23504SOL    HW272410  11.976   1.379   9.349
23505SOL     OW72411  13.183   9.290   3.329
23505SOL    HW172412  13.195   9.257   3.418
23505SOL    HW272413  13.211   9.218   3.273
23506SOL     OW72414   9.990   5.039  11.089
23506SOL    HW172415   9.953   5.052  11.002
23506SOL    HW272416   9.976   5.122  11.134
23507SOL     OW72417   1.469   1.304  10.933
23507SOL    HW172418   1.447   1.395  10.913
23507SOL    HW272419   1.386   1.264  10.958
23508SOL     OW72420  13.076   6.193   0.426
23508SOL    HW172421  13.066   6.179   0.332
23508SOL    HW272422  13.165   6.226   0.435
23509SOL     OW72423   7.260   3.954   2.632
23509SOL    HW172424   7.267   3.894   2.558
23509SOL    HW272425   7.326   4.021   2.614
23510SOL     OW72426  14.160  13.392   4.698
23510SOL    HW172427  14.127  13.415   4.785
23510SOL    HW272428  14.134  13.465   4.642
23511SOL     OW72429   3.096   9.192  13.938
23511SOL    HW172430   3.083   9.130  14.010
23511SOL    HW272431   3.105   9.277  13.981
23512SOL     OW72432   8.857  14.331   8.867
23512SOL    HW172433   8.763  14.341   8.884
23512SOL    HW272434   8.865  14.244   8.828
23513SOL     OW72435   3.643   7.226  14.759
23513SOL    HW172436   3.551   7.227  14.785
23513SOL    HW272437   3.660   7.135  14.735
23514SOL     OW72438   1.421   2.851  10.071
23514SOL    HW172439   1.390   2.791  10.003
23514SOL    HW272440   1.502   2.887  10.036
23515SOL     OW72441   7.165   2.882   5.333
23515SOL    HW172442   7.206   2.797   5.349
23515SOL    HW272443   7.107   2.866   5.258
23516SOL     OW72444   2.589   6.325   3.605
23516SOL    HW172445   2.563   6.243   3.646
23516SOL    HW272446   2.663   6.302   3.549
23517SOL     OW72447  14.455  14.173   8.335
23517SOL    HW172448  14.376  14.125   8.360
23517SOL    HW272449  14.449  14.182   8.240
23518SOL     OW72450   5.923   3.636  14.350
23518SOL    HW172451   5.833   3.620  14.323
23518SOL    HW272452   5.933   3.587  14.431
23519SOL     OW72453  13.391   0.959   7.715
23519SOL    HW172454  13.350   1.045   7.705
23519SOL    HW272455  13.475   0.967   7.670
23520SOL     OW72456  13.225  13.292   6.312
23520SOL    HW172457  13.243  13.210   6.358
23520SOL    HW272458  13.271  13.359   6.361
23521SOL     OW72459  13.458   9.118   6.280
23521SOL    HW172460  13.426   9.208   6.283
23521SOL    HW272461  13.425   9.083   6.197
23522SOL     OW72462  10.355   9.751   5.456
23522SOL    HW172463  10.308   9.695   5.518
23522SOL    HW272464  10.340   9.840   5.487
23523SOL     OW72465  12.450   8.025  14.127
23523SOL    HW172466  12.383   8.074  14.079
23523SOL    HW272467  12.421   8.028  14.218
23524SOL     OW72468  12.961   4.493   3.251
23524SOL    HW172469  12.988   4.412   3.294
23524SOL    HW272470  12.980   4.478   3.158
23525SOL     OW72471   8.478   5.705  12.976
23525SOL    HW172472   8.573   5.709  12.975
23525SOL    HW272473   8.457   5.613  12.962
23526SOL     OW72474  10.222   7.154   4.532
23526SOL    HW172475  10.233   7.236   4.581
23526SOL    HW272476  10.128   7.139   4.530
23527SOL     OW72477  14.819  14.831  12.826
23527SOL    HW172478  14.738  14.838  12.774
23527SOL    HW272479  14.793  14.784  12.905
23528SOL     OW72480   9.297   9.727   6.984
23528SOL    HW172481   9.367   9.686   7.035
23528SOL    HW272482   9.323   9.714   6.893
23529SOL     OW72483  14.821   5.847   2.939
23529SOL    HW172484  14.759   5.804   2.880
23529SOL    HW272485  14.830   5.935   2.904
23530SOL     OW72486   2.757   0.419   3.222
23530SOL    HW172487   2.725   0.367   3.147
23530SOL    HW272488   2.851   0.426   3.207
23531SOL     OW72489   5.659  14.318   1.966
23531SOL    HW172490   5.595  14.356   2.026
23531SOL    HW272491   5.673  14.387   1.900
23532SOL     OW72492   4.483  11.294   1.221
23532SOL    HW172493   4.496  11.373   1.273
23532SOL    HW272494   4.389  11.295   1.199
23533SOL     OW72495   3.324   4.634  10.201
23533SOL    HW172496   3.363   4.552  10.231
23533SOL    HW272497   3.397   4.695  10.196
23534SOL     OW72498  14.198   8.882   1.827
23534SOL    HW172499  14.225   8.972   1.813
23534SOL    HW272500  14.239   8.833   1.756
23535SOL     OW72501  10.207   4.151   8.332
23535SOL    HW172502  10.132   4.203   8.305
23535SOL    HW272503  10.274   4.216   8.356
23536SOL     OW72504  10.565  12.975   1.927
23536SOL    HW172505  10.639  13.021   1.887
23536SOL    HW272506  10.575  12.993   2.021
23537SOL     OW72507   8.920  12.394  12.641
23537SOL    HW172508   8.939  12.411  12.548
23537SOL    HW272509   8.918  12.481  12.681
23538SOL     OW72510  14.748   5.679   0.529
23538SOL    HW172511  14.686   5.751   0.534
23538SOL    HW272512  14.717   5.616   0.595
23539SOL     OW72513   1.431  13.448  13.598
23539SOL    HW172514   1.496  13.505  13.639
23539SOL    HW272515   1.477  13.365  13.587
23540SOL     OW72516   5.463  14.102   7.219
23540SOL    HW172517   5.537  14.150   7.256
23540SOL    HW272518   5.426  14.163   7.154
23541SOL     OW72519   3.937  10.981  14.131
23541SOL    HW172520   3.952  11.073  14.151
23541SOL    HW272521   3.886  10.948  14.205
23542SOL     OW72522  11.847   1.374   1.661
23542SOL    HW172523  11.885   1.462   1.661
23542SOL    HW272524  11.753   1.388   1.666
23543SOL     OW72525   0.540   2.021   8.454
23543SOL    HW172526   0.447   2.008   8.473
23543SOL    HW272527   0.541   2.063   8.368
23544SOL     OW72528  13.288   8.784   8.400
23544SOL    HW172529  13.339   8.846   8.347
23544SOL    HW272530  13.288   8.823   8.487
23545SOL     OW72531  10.855   9.271   9.295
23545SOL    HW172532  10.875   9.282   9.202
23545SOL    HW272533  10.787   9.336   9.313
23546SOL     OW72534   9.770  10.235  13.733
23546SOL    HW172535   9.736  10.147  13.750
23546SOL    HW272536   9.726  10.290  13.797
23547SOL     OW72537  12.656  13.845  10.584
23547SOL    HW172538  12.635  13.859  10.492
23547SOL    HW272539  12.606  13.912  10.631
23548SOL     OW72540  12.275  14.112   3.893
23548SOL    HW172541  12.349  14.173   3.897
23548SOL    HW272542  12.266  14.091   3.801
23549SOL     OW72543  13.822   8.665   3.488
23549SOL    HW172544  13.796   8.637   3.400
23549SOL    HW272545  13.826   8.760   3.484
23550SOL     OW72546  14.425  14.783   3.071
23550SOL    HW172547  14.486  14.856   3.060
23550SOL    HW272548  14.392  14.767   2.983
23551SOL     OW72549   5.340  13.566   3.703
23551SOL    HW172550   5.342  13.661   3.716
23551SOL    HW272551   5.429  13.537   3.724
23552SOL     OW72552  14.405   8.918   2.440
23552SOL    HW172553  14.316   8.891   2.414
23552SOL    HW272554  14.392   8.970   2.519
23553SOL     OW72555   9.780   8.099   1.271
23553SOL    HW172556   9.827   8.148   1.204
23553SOL    HW272557   9.829   8.017   1.279
23554SOL     OW72558  12.813   8.151   4.951
23554SOL    HW172559  12.853   8.094   5.016
23554SOL    HW272560  12.732   8.181   4.992
23555SOL     OW72561   6.745   1.072   7.782
23555SOL    HW172562   6.650   1.078   7.771
23555SOL    HW272563   6.771   0.996   7.729
23556SOL     OW72564   3.903  14.394   2.231
23556SOL    HW172565   3.918  14.300   2.232
23556SOL    HW272566   3.855  14.411   2.312
23557SOL     OW72567  11.025  12.014  10.566
23557SOL    HW172568  11.114  11.996  10.536
23557SOL    HW272569  11.031  12.101  10.606
23558SOL     OW72570  14.655  10.445   1.320
23558SOL    HW172571  14.588  10.513   1.311
23558SOL    HW272572  14.726  10.473   1.263
23559SOL     OW72573  14.448   9.305   7.432
23559SOL    HW172574  14.380   9.355   7.388
23559SOL    HW272575  14.460   9.227   7.377
23560SOL     OW72576   1.938   1.484  11.066
23560SOL    HW172577   2.022   1.522  11.042
23560SOL    HW272578   1.937   1.484  11.161
23561SOL     OW72579   2.124   3.931   5.810
23561SOL    HW172580   2.056   3.901   5.871
23561SOL    HW272581   2.076   3.954   5.730
23562SOL     OW72582   3.171   6.939   2.907
23562SOL    HW172583   3.128   6.941   2.992
23562SOL    HW272584   3.202   7.028   2.893
23563SOL     OW72585  11.020  14.266  12.237
23563SOL    HW172586  11.094  14.225  12.192
23563SOL    HW272587  11.058  14.343  12.281
23564SOL     OW72588  14.742   2.360   8.775
23564SOL    HW172589  14.770   2.346   8.684
23564SOL    HW272590  14.824   2.375   8.822
23565SOL     OW72591   5.817  14.576  14.879
23565SOL    HW172592   5.755  14.528   0.052
23565SOL    HW272593   5.816  14.665   0.031
23566SOL     OW72594  14.091   0.750   2.578
23566SOL    HW172595  14.042   0.669   2.595
23566SOL    HW272596  14.050   0.815   2.636
23567SOL     OW72597  12.478   3.928   6.331
23567SOL    HW172598  12.556   3.922   6.387
23567SOL    HW272599  12.455   4.021   6.331
23568SOL     OW72600  13.572   7.163   0.572
23568SOL    HW172601  13.493   7.110   0.568
23568SOL    HW272602  13.554   7.239   0.516
23569SOL     OW72603   2.760  13.437   8.255
23569SOL    HW172604   2.700  13.512   8.251
23569SOL    HW272605   2.720  13.372   8.197
23570SOL     OW72606   7.923   2.467  14.336
23570SOL    HW172607   7.837   2.440  14.368
23570SOL    HW272608   7.977   2.477  14.414
23571SOL     OW72609   7.475  10.499   0.856
23571SOL    HW172610   7.537  10.430   0.830
23571SOL    HW272611   7.390  10.455   0.860
23572SOL     OW72612   1.750  12.523  13.609
23572SOL    HW172613   1.828  12.520  13.554
23572SOL    HW272614   1.760  12.449  13.668
23573SOL     OW72615   1.064   2.396   7.998
23573SOL    HW172616   1.003   2.450   8.050
23573SOL    HW272617   1.009   2.357   7.930
23574SOL     OW72618   9.447   7.643  13.482
23574SOL    HW172619   9.359   7.677  13.496
23574SOL    HW272620   9.433   7.552  13.454
23575SOL     OW72621   3.605  10.085   1.418
23575SOL    HW172622   3.540  10.063   1.486
23575SOL    HW272623   3.652  10.160   1.454
23576SOL     OW72624   7.217  12.674   9.250
23576SOL    HW172625   7.186  12.680   9.160
23576SOL    HW272626   7.137  12.677   9.303
23577SOL     OW72627  14.180   0.219  12.442
23577SOL    HW172628  14.237   0.171  12.382
23577SOL    HW272629  14.126   0.152  12.483
23578SOL     OW72630   5.656   5.729  12.677
23578SOL    HW172631   5.655   5.667  12.749
23578SOL    HW272632   5.571   5.773  12.682
23579SOL     OW72633  10.449   1.548  10.971
23579SOL    HW172634  10.406   1.470  11.006
23579SOL    HW272635  10.439   1.540  10.876
23580SOL     OW72636   9.476   7.606  12.077
23580SOL    HW172637   9.393   7.613  12.125
23580SOL    HW272638   9.497   7.513  12.080
23581SOL     OW72639  10.495  10.351   4.646
23581SOL    HW172640  10.474  10.365   4.739
23581SOL    HW272641  10.503  10.439   4.610
23582SOL     OW72642   3.323   8.172   6.553
23582SOL    HW172643   3.407   8.129   6.540
23582SOL    HW272644   3.284   8.125   6.627
23583SOL     OW72645  14.006  10.204  11.149
23583SOL    HW172646  14.086  10.189  11.099
23583SOL    HW272647  14.033  10.192  11.240
23584SOL     OW72648   6.804  10.978  12.785
23584SOL    HW172649   6.777  10.888  12.770
23584SOL    HW272650   6.865  10.998  12.714
23585SOL     OW72651  12.288   3.131   7.862
23585SOL    HW172652  12.300   3.161   7.952
23585SOL    HW272653  12.233   3.053   7.869
23586SOL     OW72654  14.439   0.394   8.567
23586SOL    HW172655  14.478   0.395   8.655
23586SOL    HW272656  14.505   0.352   8.512
23587SOL     OW72657  14.089   0.392   6.983
23587SOL    HW172658  14.123   0.318   6.931
23587SOL    HW272659  14.146   0.394   7.060
23588SOL     OW72660   6.705  12.874   4.407
23588SOL    HW172661   6.734  12.835   4.489
23588SOL    HW272662   6.643  12.811   4.370
23589SOL     OW72663   5.022   4.647  10.372
23589SOL    HW172664   5.020   4.739  10.399
23589SOL    HW272665   5.037   4.598  10.453
23590SOL     OW72666  13.978  11.081   3.640
23590SOL    HW172667  13.950  11.172   3.629
23590SOL    HW272668  13.963  11.062   3.732
23591SOL     OW72669   6.381   6.824   3.921
23591SOL    HW172670   6.383   6.823   3.825
23591SOL    HW272671   6.349   6.737   3.945
23592SOL     OW72672   3.869   7.478  10.418
23592SOL    HW172673   3.875   7.519  10.504
23592SOL    HW272674   3.878   7.549  10.356
23593SOL     OW72675   7.124   3.725   9.123
23593SOL    HW172676   7.131   3.679   9.039
23593SOL    HW272677   7.210   3.711   9.165
23594SOL     OW72678  13.698  10.442  10.259
23594SOL    HW172679  13.766  10.417  10.321
23594SOL    HW272680  13.714  10.388  10.182
23595SOL     OW72681   3.229   2.983   9.364
23595SOL    HW172682   3.320   2.989   9.393
23595SOL    HW272683   3.226   3.031   9.282
23596SOL     OW72684  13.991  14.205   7.064
23596SOL    HW172685  14.059  14.251   7.115
23596SOL    HW272686  14.035  14.180   6.983
23597SOL     OW72687   9.872   7.979   4.388
23597SOL    HW172688   9.931   8.053   4.400
23597SOL    HW272689   9.903   7.936   4.308
23598SOL     OW72690   5.634  14.433  13.454
23598SOL    HW172691   5.661  14.501  13.392
23598SOL    HW272692   5.716  14.398  13.489
23599SOL     OW72693  12.314   0.685  13.412
23599SOL    HW172694  12.228   0.678  13.371
23599SOL    HW272695  12.328   0.601  13.455
23600SOL     OW72696  10.270   6.907  12.021
23600SOL    HW172697  10.319   6.931  11.942
23600SOL    HW272698  10.275   6.985  12.077
23601SOL     OW72699   2.958   1.985   8.186
23601SOL    HW172700   2.891   1.970   8.119
23601SOL    HW272701   2.987   2.075   8.171
23602SOL     OW72702   0.840   1.255   4.210
23602SOL    HW172703   0.886   1.178   4.176
23602SOL    HW272704   0.748   1.239   4.189
23603SOL     OW72705  11.271   7.592  12.704
23603SOL    HW172706  11.304   7.671  12.662
23603SOL    HW272707  11.179   7.588  12.677
23604SOL     OW72708   4.749   4.862  10.761
23604SOL    HW172709   4.805   4.794  10.797
23604SOL    HW272710   4.664   4.848  10.804
23605SOL     OW72711  10.718   4.677   1.836
23605SOL    HW172712  10.707   4.587   1.807
23605SOL    HW272713  10.642   4.694   1.891
23606SOL     OW72714   1.066  13.525   9.565
23606SOL    HW172715   1.138  13.588   9.570
23606SOL    HW272716   0.987  13.576   9.583
23607SOL     OW72717   3.416  12.262   3.579
23607SOL    HW172718   3.332  12.298   3.550
23607SOL    HW272719   3.473  12.338   3.589
23608SOL     OW72720   3.139   8.155   1.283
23608SOL    HW172721   3.106   8.238   1.315
23608SOL    HW272722   3.114   8.091   1.350
23609SOL     OW72723  13.691   8.474   8.049
23609SOL    HW172724  13.645   8.469   7.966
23609SOL    HW272725  13.662   8.396   8.097
23610SOL     OW72726  10.890   9.508   1.770
23610SOL    HW172727  10.809   9.483   1.727
23610SOL    HW272728  10.959   9.475   1.712
23611SOL     OW72729  12.389  12.570   3.709
23611SOL    HW172730  12.343  12.579   3.792
23611SOL    HW272731  12.320  12.571   3.643
23612SOL     OW72732  12.140   7.198   6.027
23612SOL    HW172733  12.133   7.222   5.934
23612SOL    HW272734  12.102   7.110   6.031
23613SOL     OW72735   7.089   4.545  10.791
23613SOL    HW172736   7.095   4.595  10.872
23613SOL    HW272737   7.152   4.473  10.802
23614SOL     OW72738  12.792   6.704   6.647
23614SOL    HW172739  12.855   6.700   6.575
23614SOL    HW272740  12.844   6.685   6.725
23615SOL     OW72741   5.453   6.720   9.492
23615SOL    HW172742   5.548   6.726   9.495
23615SOL    HW272743   5.424   6.806   9.461
23616SOL     OW72744   6.378   4.161   4.906
23616SOL    HW172745   6.344   4.198   4.825
23616SOL    HW272746   6.427   4.233   4.946
23617SOL     OW72747  10.183   7.044  14.044
23617SOL    HW172748  10.097   7.078  14.018
23617SOL    HW272749  10.163   6.966  14.096
23618SOL     OW72750   3.028   0.126   3.975
23618SOL    HW172751   2.967   0.063   4.014
23618SOL    HW272752   3.049   0.089   3.890
23619SOL     OW72753   0.202   6.140   1.212
23619SOL    HW172754   0.143   6.067   1.234
23619SOL    HW272755   0.216   6.185   1.295
23620SOL     OW72756   8.572   4.638   2.933
23620SOL    HW172757   8.500   4.685   2.892
23620SOL    HW272758   8.531   4.560   2.971
23621SOL     OW72759   0.674  12.970   6.569
23621SOL    HW172760   0.595  12.926   6.598
23621SOL    HW272761   0.665  12.976   6.474
23622SOL     OW72762   7.913   0.572   3.274
23622SOL    HW172763   7.890   0.480   3.258
23622SOL    HW272764   7.899   0.584   3.368
23623SOL     OW72765   2.593  11.586  12.139
23623SOL    HW172766   2.562  11.523  12.205
23623SOL    HW272767   2.563  11.549  12.056
23624SOL     OW72768   7.883   6.151   6.171
23624SOL    HW172769   7.869   6.121   6.081
23624SOL    HW272770   7.944   6.088   6.209
23625SOL     OW72771  13.984   3.329  10.362
23625SOL    HW172772  14.073   3.361  10.372
23625SOL    HW272773  13.971   3.321  10.268
23626SOL     OW72774  14.161  13.265   9.628
23626SOL    HW172775  14.140  13.197   9.692
23626SOL    HW272776  14.256  13.272   9.631
23627SOL     OW72777   7.518  14.457   0.512
23627SOL    HW172778   7.579  14.425   0.446
23627SOL    HW272779   7.431  14.444   0.473
23628SOL     OW72780   8.544   8.048   2.557
23628SOL    HW172781   8.504   7.967   2.526
23628SOL    HW272782   8.490   8.117   2.519
23629SOL     OW72783   2.929   0.454  12.618
23629SOL    HW172784   2.985   0.502  12.557
23629SOL    HW272785   2.981   0.448  12.698
23630SOL     OW72786  13.700   7.126  10.439
23630SOL    HW172787  13.632   7.169  10.388
23630SOL    HW272788  13.774   7.118  10.379
23631SOL     OW72789   5.685   1.172  13.631
23631SOL    HW172790   5.699   1.173  13.725
23631SOL    HW272791   5.773   1.170  13.594
23632SOL     OW72792   9.289  10.639   2.230
23632SOL    HW172793   9.264  10.683   2.149
23632SOL    HW272794   9.309  10.550   2.203
23633SOL     OW72795   7.346  13.581   7.520
23633SOL    HW172796   7.388  13.599   7.436
23633SOL    HW272797   7.416  13.545   7.574
23634SOL     OW72798   7.089   6.847  10.267
23634SOL    HW172799   7.106   6.813  10.355
23634SOL    HW272800   7.037   6.926  10.282
23635SOL     OW72801  14.210   9.374   4.197
23635SOL    HW172802  14.134   9.324   4.166
23635SOL    HW272803  14.181   9.465   4.194
23636SOL     OW72804  11.346   2.484  11.206
23636SOL    HW172805  11.314   2.538  11.133
23636SOL    HW272806  11.270   2.470  11.261
23637SOL     OW72807  11.457   8.555  12.220
23637SOL    HW172808  11.401   8.613  12.168
23637SOL    HW272809  11.480   8.606  12.298
23638SOL     OW72810   5.832   4.359   8.640
23638SOL    HW172811   5.862   4.445   8.610
23638SOL    HW272812   5.741   4.372   8.665
23639SOL     OW72813   5.957   5.648   8.220
23639SOL    HW172814   6.031   5.694   8.260
23639SOL    HW272815   5.901   5.624   8.294
23640SOL     OW72816   5.299   9.784   2.298
23640SOL    HW172817   5.239   9.851   2.330
23640SOL    HW272818   5.298   9.795   2.203
23641SOL     OW72819   1.519   4.394   1.288
23641SOL    HW172820   1.527   4.398   1.193
23641SOL    HW272821   1.598   4.350   1.317
23642SOL     OW72822   2.170   4.227   7.342
23642SOL    HW172823   2.138   4.220   7.432
23642SOL    HW272824   2.226   4.304   7.342
23643SOL     OW72825   5.996   7.756  13.454
23643SOL    HW172826   6.086   7.771  13.423
23643SOL    HW272827   5.954   7.707  13.383
23644SOL     OW72828   4.703   2.826   9.356
23644SOL    HW172829   4.651   2.823   9.275
23644SOL    HW272830   4.745   2.912   9.354
23645SOL     OW72831   9.727   6.760  10.131
23645SOL    HW172832   9.755   6.792  10.217
23645SOL    HW272833   9.666   6.689  10.151
23646SOL     OW72834  14.431  10.440   4.575
23646SOL    HW172835  14.453  10.529   4.603
23646SOL    HW272836  14.407  10.394   4.656
23647SOL     OW72837   5.644   2.777   9.191
23647SOL    HW172838   5.691   2.735   9.263
23647SOL    HW272839   5.641   2.711   9.122
23648SOL     OW72840  10.810  10.373  11.227
23648SOL    HW172841  10.901  10.348  11.237
23648SOL    HW272842  10.769  10.299  11.183
23649SOL     OW72843  12.893   6.514   7.539
23649SOL    HW172844  12.882   6.543   7.449
23649SOL    HW272845  12.918   6.422   7.532
23650SOL     OW72846   8.778   7.256  10.077
23650SOL    HW172847   8.723   7.219  10.146
23650SOL    HW272848   8.830   7.323  10.122
23651SOL     OW72849   7.206  10.069   3.095
23651SOL    HW172850   7.273  10.057   3.163
23651SOL    HW272851   7.128  10.028   3.131
23652SOL     OW72852  12.765  12.950   0.552
23652SOL    HW172853  12.768  12.918   0.642
23652SOL    HW272854  12.852  12.984   0.535
23653SOL     OW72855   9.801   4.097   8.470
23653SOL    HW172856   9.745   4.027   8.435
23653SOL    HW272857   9.865   4.112   8.400
23654SOL     OW72858   4.497  13.310   5.457
23654SOL    HW172859   4.410  13.350   5.458
23654SOL    HW272860   4.480  13.216   5.459
23655SOL     OW72861   6.139  11.706  11.300
23655SOL    HW172862   6.093  11.629  11.332
23655SOL    HW272863   6.070  11.762  11.264
23656SOL     OW72864   3.409   9.005   2.221
23656SOL    HW172865   3.322   8.971   2.239
23656SOL    HW272866   3.396   9.100   2.211
23657SOL     OW72867   6.994  14.410  14.727
23657SOL    HW172868   7.036  14.376  14.648
23657SOL    HW272869   6.945  14.486  14.697
23658SOL     OW72870   4.643  10.035   6.976
23658SOL    HW172871   4.631   9.941   6.987
23658SOL    HW272872   4.669  10.066   7.063
23659SOL     OW72873   6.530   7.354   0.787
23659SOL    HW172874   6.477   7.348   0.867
23659SOL    HW272875   6.491   7.290   0.728
23660SOL     OW72876   4.425   7.447  13.072
23660SOL    HW172877   4.369   7.461  12.996
23660SOL    HW272878   4.376   7.483  13.146
23661SOL     OW72879   9.177   5.200   7.297
23661SOL    HW172880   9.083   5.198   7.277
23661SOL    HW272881   9.212   5.267   7.238
23662SOL     OW72882   8.858   6.796   5.139
23662SOL    HW172883   8.953   6.797   5.149
23662SOL    HW272884   8.826   6.751   5.217
23663SOL     OW72885   7.847   1.130   4.275
23663SOL    HW172886   7.887   1.211   4.306
23663SOL    HW272887   7.883   1.062   4.332
23664SOL     OW72888   6.963   8.453  12.388
23664SOL    HW172889   6.984   8.373  12.340
23664SOL    HW272890   7.025   8.453  12.462
23665SOL     OW72891   3.231   4.071   9.312
23665SOL    HW172892   3.320   4.037   9.312
23665SOL    HW272893   3.185   4.019   9.379
23666SOL     OW72894   3.880   2.688   0.584
23666SOL    HW172895   3.900   2.603   0.545
23666SOL    HW272896   3.941   2.748   0.541
23667SOL     OW72897   4.144   5.380   7.969
23667SOL    HW172898   4.215   5.416   7.917
23667SOL    HW272899   4.068   5.381   7.911
23668SOL     OW72900  10.038  10.739  14.755
23668SOL    HW172901  10.070  10.649  14.749
23668SOL    HW272902   9.944  10.733  14.738
23669SOL     OW72903   8.864  13.368   0.248
23669SOL    HW172904   8.778  13.390   0.214
23669SOL    HW272905   8.895  13.448   0.291
23670SOL     OW72906  13.846   7.287  10.652
23670SOL    HW172907  13.805   7.229  10.588
23670SOL    HW272908  13.870   7.230  10.724
23671SOL     OW72909   5.831   4.178   6.360
23671SOL    HW172910   5.862   4.187   6.451
23671SOL    HW272911   5.827   4.084   6.346
23672SOL     OW72912  10.970   5.643   5.829
23672SOL    HW172913  10.886   5.676   5.861
23672SOL    HW272914  11.031   5.663   5.899
23673SOL     OW72915  10.434   1.299   5.923
23673SOL    HW172916  10.380   1.346   5.987
23673SOL    HW272917  10.500   1.254   5.976
23674SOL     OW72918  11.987   1.745   5.009
23674SOL    HW172919  12.021   1.792   5.085
23674SOL    HW272920  12.046   1.768   4.938
23675SOL     OW72921  10.612   4.675   7.281
23675SOL    HW172922  10.633   4.744   7.343
23675SOL    HW272923  10.534   4.706   7.234
23676SOL     OW72924   1.162  13.212  12.103
23676SOL    HW172925   1.176  13.223  12.197
23676SOL    HW272926   1.087  13.267  12.082
23677SOL     OW72927  14.788  10.959  11.145
23677SOL    HW172928  14.775  11.006  11.062
23677SOL    HW272929  14.826  10.875  11.119
23678SOL     OW72930  10.796   6.457   3.054
23678SOL    HW172931  10.808   6.552   3.062
23678SOL    HW272932  10.877   6.426   3.012
23679SOL     OW72933  11.789  11.539  12.847
23679SOL    HW172934  11.707  11.587  12.845
23679SOL    HW272935  11.853  11.598  12.806
23680SOL     OW72936   3.785   5.808   4.121
23680SOL    HW172937   3.766   5.859   4.042
23680SOL    HW272938   3.780   5.717   4.092
23681SOL     OW72939   8.172   6.230  13.188
23681SOL    HW172940   8.256   6.263  13.154
23681SOL    HW272941   8.109   6.298  13.165
23682SOL     OW72942   7.087  12.184   5.754
23682SOL    HW172943   7.051  12.190   5.666
23682SOL    HW272944   7.164  12.241   5.753
23683SOL     OW72945  12.805   9.154  10.660
23683SOL    HW172946  12.714   9.182  10.650
23683SOL    HW272947  12.853   9.203  10.593
23684SOL     OW72948   8.425  14.865   3.958
23684SOL    HW172949   8.463  14.806   3.893
23684SOL    HW272950   8.333  14.873   3.932
23685SOL     OW72951  14.275   6.218   5.163
23685SOL    HW172952  14.216   6.242   5.091
23685SOL    HW272953  14.359   6.202   5.122
23686SOL     OW72954  14.335   8.967   9.162
23686SOL    HW172955  14.251   9.014   9.166
23686SOL    HW272956  14.326   8.909   9.087
23687SOL     OW72957  10.159   0.556  14.737
23687SOL    HW172958  10.250   0.575  14.761
23687SOL    HW272959  10.163   0.473  14.691
23688SOL     OW72960  13.305   0.736   2.970
23688SOL    HW172961  13.242   0.664   2.980
23688SOL    HW272962  13.347   0.742   3.055
23689SOL     OW72963  11.025  11.519   9.644
23689SOL    HW172964  11.110  11.511   9.603
23689SOL    HW272965  11.020  11.443   9.704
23690SOL     OW72966   4.146  10.062   3.412
23690SOL    HW172967   4.064  10.076   3.364
23690SOL    HW272968   4.214  10.088   3.351
23691SOL     OW72969   7.180   2.897  11.368
23691SOL    HW172970   7.180   2.809  11.406
23691SOL    HW272971   7.222   2.887  11.283
23692SOL     OW72972   7.467   5.347   6.698
23692SOL    HW172973   7.446   5.441   6.695
23692SOL    HW272974   7.415   5.309   6.626
23693SOL     OW72975  13.404   1.721  11.904
23693SOL    HW172976  13.476   1.766  11.860
23693SOL    HW272977  13.334   1.786  11.910
23694SOL     OW72978   6.217   6.978   0.456
23694SOL    HW172979   6.294   6.924   0.476
23694SOL    HW272980   6.226   7.000   0.364
23695SOL     OW72981   9.830  12.966  12.384
23695SOL    HW172982   9.750  13.016  12.366
23695SOL    HW272983   9.878  13.020  12.446
23696SOL     OW72984  13.331   1.227   7.459
23696SOL    HW172985  13.284   1.147   7.437
23696SOL    HW272986  13.345   1.270   7.375
23697SOL     OW72987   0.856   4.677   0.076
23697SOL    HW172988   0.939   4.722   0.088
23697SOL    HW272989   0.798   4.714   0.142
23698SOL     OW72990  10.568   2.177   9.270
23698SOL    HW172991  10.490   2.202   9.319
23698SOL    HW272992  10.637   2.232   9.306
23699SOL     OW72993   7.121   4.451  12.704
23699SOL    HW172994   7.125   4.404  12.787
23699SOL    HW272995   7.210   4.485  12.692
23700SOL     OW72996   8.634   8.083  13.550
23700SOL    HW172997   8.655   8.136  13.474
23700SOL    HW272998   8.670   7.997  13.531
23701SOL     OW72999   4.884   5.361   9.203
23701SOL    HW173000   4.906   5.274   9.236
23701SOL    HW273001   4.928   5.421   9.264
23702SOL     OW73002   0.690   5.458   2.060
23702SOL    HW173003   0.737   5.511   1.995
23702SOL    HW273004   0.690   5.369   2.023
23703SOL     OW73005  12.269   4.095  10.322
23703SOL    HW173006  12.364   4.098  10.327
23703SOL    HW273007  12.243   4.186  10.309
23704SOL     OW73008   5.281   4.556   5.459
23704SOL    HW173009   5.206   4.594   5.506
23704SOL    HW273010   5.302   4.477   5.508
23705SOL     OW73011   7.951   1.221  14.293
23705SOL    HW173012   8.034   1.268  14.299
23705SOL    HW273013   7.911   1.252  14.212
23706SOL     OW73014   9.886  12.451  11.459
23706SOL    HW173015   9.870  12.444  11.553
23706SOL    HW273016   9.981  12.447  11.451
23707SOL     OW73017  10.549  12.685   8.522
23707SOL    HW173018  10.635  12.659   8.555
23707SOL    HW273019  10.535  12.629   8.446
23708SOL     OW73020  10.785  14.165   9.812
23708SOL    HW173021  10.768  14.257   9.789
23708SOL    HW273022  10.789  14.120   9.728
23709SOL     OW73023   2.902  12.223  11.346
23709SOL    HW173024   2.987  12.206  11.385
23709SOL    HW273025   2.840  12.218  11.419
23710SOL     OW73026   7.137   4.835   3.706
23710SOL    HW173027   7.224   4.813   3.674
23710SOL    HW273028   7.116   4.765   3.768
23711SOL     OW73029  14.347  13.788   7.986
23711SOL    HW173030  14.325  13.836   8.065
23711SOL    HW273031  14.438  13.810   7.969
23712SOL     OW73032   2.872  10.365   0.105
23712SOL    HW173033   2.790  10.412   0.111
23712SOL    HW273034   2.848  10.277   0.076
23713SOL     OW73035  13.810   2.870   7.489
23713SOL    HW173036  13.808   2.947   7.546
23713SOL    HW273037  13.721   2.866   7.452
23714SOL     OW73038  10.548   1.500   4.776
23714SOL    HW173039  10.453   1.495   4.764
23714SOL    HW273040  10.581   1.418   4.740
23715SOL     OW73041   3.263   3.622   9.217
23715SOL    HW173042   3.320   3.545   9.232
23715SOL    HW273043   3.273   3.641   9.124
23716SOL     OW73044   4.330   0.805   6.040
23716SOL    HW173045   4.319   0.794   6.135
23716SOL    HW273046   4.294   0.891   6.022
23717SOL     OW73047   0.620   4.808   2.681
23717SOL    HW173048   0.615   4.738   2.745
23717SOL    HW273049   0.702   4.793   2.634
23718SOL     OW73050   5.500   4.228   4.886
23718SOL    HW173051   5.537   4.317   4.892
23718SOL    HW273052   5.557   4.183   4.823
23719SOL     OW73053   4.928   2.399  10.247
23719SOL    HW173054   4.950   2.377  10.338
23719SOL    HW273055   4.895   2.317  10.210
23720SOL     OW73056  13.757   7.396  14.737
23720SOL    HW173057  13.795   7.475  14.699
23720SOL    HW273058  13.668   7.422  14.763
23721SOL     OW73059   8.208  10.985  13.061
23721SOL    HW173060   8.301  10.967  13.052
23721SOL    HW273061   8.182  11.023  12.977
23722SOL     OW73062  13.262   2.048   9.874
23722SOL    HW173063  13.264   2.079   9.783
23722SOL    HW273064  13.220   1.962   9.869
23723SOL     OW73065   8.480   4.517   8.482
23723SOL    HW173066   8.388   4.540   8.469
23723SOL    HW273067   8.527   4.600   8.475
23724SOL     OW73068  11.492   2.231  11.872
23724SOL    HW173069  11.457   2.312  11.836
23724SOL    HW273070  11.463   2.163  11.811
23725SOL     OW73071  11.488   5.388   3.632
23725SOL    HW173072  11.508   5.451   3.701
23725SOL    HW273073  11.560   5.396   3.570
23726SOL     OW73074   5.517   0.864   6.751
23726SOL    HW173075   5.512   0.769   6.746
23726SOL    HW273076   5.560   0.891   6.670
23727SOL     OW73077   0.015  12.665  10.215
23727SOL    HW173078   0.084  12.699  10.157
23727SOL    HW273079   0.002  12.733  10.280
23728SOL     OW73080  12.635   9.895   6.647
23728SOL    HW173081  12.597   9.881   6.734
23728SOL    HW273082  12.562   9.925   6.594
23729SOL     OW73083   0.328  10.718   6.752
23729SOL    HW173084   0.306  10.627   6.731
23729SOL    HW273085   0.320  10.764   6.669
23730SOL     OW73086   5.712   1.661  13.777
23730SOL    HW173087   5.784   1.623  13.826
23730SOL    HW273088   5.653   1.588  13.759
23731SOL     OW73089  12.022  10.871   9.431
23731SOL    HW173090  12.109  10.855   9.395
23731SOL    HW273091  11.967  10.888   9.355
23732SOL     OW73092   6.307   2.080  14.880
23732SOL    HW173093   6.290   2.129  14.799
23732SOL    HW273094   6.396   2.104   0.022
23733SOL     OW73095   7.595   0.818   1.045
23733SOL    HW173096   7.587   0.777   0.959
23733SOL    HW273097   7.589   0.912   1.027
23734SOL     OW73098   8.068   3.177   5.737
23734SOL    HW173099   7.987   3.212   5.700
23734SOL    HW273100   8.091   3.239   5.807
23735SOL     OW73101  10.315  13.579  12.835
23735SOL    HW173102  10.249  13.626  12.785
23735SOL    HW273103  10.345  13.510  12.776
23736SOL     OW73104   0.805   5.811   3.225
23736SOL    HW173105   0.779   5.723   3.250
23736SOL    HW273106   0.813   5.808   3.130
23737SOL     OW73107   1.558   8.091   8.937
23737SOL    HW173108   1.529   8.001   8.953
23737SOL    HW273109   1.650   8.083   8.912
23738SOL     OW73110   0.772  14.549   7.170
23738SOL    HW173111   0.824  14.628   7.154
23738SOL    HW273112   0.684  14.572   7.141
23739SOL     OW73113  13.840   3.565   0.189
23739SOL    HW173114  13.786   3.600   0.260
23739SOL    HW273115  13.916   3.527   0.234
23740SOL     OW73116  11.978   8.574   5.358
23740SOL    HW173117  12.006   8.491   5.396
23740SOL    HW273118  12.017   8.641   5.415
23741SOL     OW73119   5.018   4.204   5.592
23741SOL    HW173120   5.014   4.228   5.684
23741SOL    HW273121   5.011   4.287   5.545
23742SOL     OW73122   5.463   7.411  12.598
23742SOL    HW173123   5.511   7.419  12.516
23742SOL    HW273124   5.492   7.327  12.634
23743SOL     OW73125   0.650   7.056   3.808
23743SOL    HW173126   0.730   7.047   3.861
23743SOL    HW273127   0.682   7.087   3.723
23744SOL     OW73128   0.207  12.149   5.606
23744SOL    HW173129   0.119  12.113   5.609
23744SOL    HW273130   0.223  12.182   5.694
23745SOL     OW73131  11.108   4.488   9.047
23745SOL    HW173132  11.203   4.494   9.041
23745SOL    HW273133  11.082   4.444   8.966
23746SOL     OW73134   2.054   1.901   5.681
23746SOL    HW173135   2.090   1.968   5.740
23746SOL    HW273136   2.084   1.928   5.594
23747SOL     OW73137  13.534   9.122   6.685
23747SOL    HW173138  13.463   9.060   6.702
23747SOL    HW273139  13.607   9.068   6.657
23748SOL     OW73140   1.025  13.548   7.482
23748SOL    HW173141   1.073  13.528   7.562
23748SOL    HW273142   0.942  13.584   7.512
23749SOL     OW73143   6.112   8.422   3.773
23749SOL    HW173144   6.135   8.475   3.850
23749SOL    HW273145   6.125   8.481   3.699
23750SOL     OW73146   5.707   3.338   9.443
23750SOL    HW173147   5.779   3.384   9.487
23750SOL    HW273148   5.749   3.289   9.373
23751SOL     OW73149  13.501  10.751   7.034
23751SOL    HW173150  13.556  10.738   6.957
23751SOL    HW273151  13.461  10.836   7.021
23752SOL     OW73152   3.273   8.768   0.973
23752SOL    HW173153   3.315   8.852   0.993
23752SOL    HW273154   3.346   8.710   0.950
23753SOL     OW73155   3.674   0.752  14.067
23753SOL    HW173156   3.707   0.662  14.065
23753SOL    HW273157   3.635   0.762  14.154
23754SOL     OW73158   1.652   8.582  11.093
23754SOL    HW173159   1.562   8.589  11.125
23754SOL    HW273160   1.645   8.598  10.999
23755SOL     OW73161   4.890   0.648  14.152
23755SOL    HW173162   4.804   0.626  14.117
23755SOL    HW273163   4.950   0.632  14.078
23756SOL     OW73164   4.124   0.515   3.133
23756SOL    HW173165   4.172   0.459   3.194
23756SOL    HW273166   4.035   0.482   3.135
23757SOL     OW73167   7.645  14.026   7.285
23757SOL    HW173168   7.668  14.119   7.282
23757SOL    HW273169   7.710  13.987   7.343
23758SOL     OW73170   9.210   6.511   2.293
23758SOL    HW173171   9.173   6.599   2.298
23758SOL    HW273172   9.266   6.513   2.216
23759SOL     OW73173  13.871   3.655   5.484
23759SOL    HW173174  13.821   3.734   5.462
23759SOL    HW273175  13.946   3.687   5.534
23760SOL     OW73176   0.471  13.323  11.249
23760SOL    HW173177   0.397  13.286  11.297
23760SOL    HW273178   0.433  13.354  11.167
23761SOL     OW73179   1.412   3.553   9.181
23761SOL    HW173180   1.442   3.644   9.181
23761SOL    HW273181   1.324   3.556   9.218
23762SOL     OW73182   6.127   5.171   2.181
23762SOL    HW173183   6.197   5.236   2.181
23762SOL    HW273184   6.092   5.173   2.270
23763SOL     OW73185   3.462   0.711   4.220
23763SOL    HW173186   3.490   0.746   4.304
23763SOL    HW273187   3.401   0.777   4.186
23764SOL     OW73188   6.245   9.783   6.497
23764SOL    HW173189   6.246   9.878   6.508
23764SOL    HW273190   6.337   9.758   6.490
23765SOL     OW73191   4.618  10.740   1.253
23765SOL    HW173192   4.649  10.658   1.291
23765SOL    HW273193   4.695  10.777   1.209
23766SOL     OW73194   2.343   6.228   5.771
23766SOL    HW173195   2.314   6.247   5.683
23766SOL    HW273196   2.435   6.201   5.761
23767SOL     OW73197  13.679   0.268  12.880
23767SOL    HW173198  13.713   0.312  12.802
23767SOL    HW273199  13.756   0.256  12.936
23768SOL     OW73200   3.166   7.677   5.265
23768SOL    HW173201   3.173   7.587   5.234
23768SOL    HW273202   3.113   7.671   5.344
23769SOL     OW73203   7.529   9.799   9.655
23769SOL    HW173204   7.514   9.846   9.737
23769SOL    HW273205   7.486   9.853   9.589
23770SOL     OW73206   7.558   7.623  11.569
23770SOL    HW173207   7.624   7.555  11.579
23770SOL    HW273208   7.607   7.705  11.566
23771SOL     OW73209   1.681   5.042   5.557
23771SOL    HW173210   1.757   5.060   5.612
23771SOL    HW273211   1.619   4.999   5.616
23772SOL     OW73212   2.494  14.661   0.126
23772SOL    HW173213   2.407  14.695   0.146
23772SOL    HW273214   2.484  14.566   0.129
23773SOL     OW73215   7.770  13.389   7.531
23773SOL    HW173216   7.845  13.331   7.517
23773SOL    HW273217   7.710  13.367   7.459
23774SOL     OW73218   5.889   6.560  10.816
23774SOL    HW173219   5.861   6.496  10.750
23774SOL    HW273220   5.815   6.565  10.876
23775SOL     OW73221   6.844   0.130   0.004
23775SOL    HW173222   6.866   0.144  14.794
23775SOL    HW273223   6.911   0.070   0.036
23776SOL     OW73224   4.075   7.625   0.186
23776SOL    HW173225   4.107   7.685   0.254
23776SOL    HW273226   4.082   7.538   0.226
23777SOL     OW73227  12.874   3.704  14.690
23777SOL    HW173228  12.849   3.791  14.660
23777SOL    HW273229  12.791   3.663  14.715
23778SOL     OW73230   1.334   6.394   0.938
23778SOL    HW173231   1.329   6.477   0.986
23778SOL    HW273232   1.260   6.343   0.971
23779SOL     OW73233   9.244   1.478   1.339
23779SOL    HW173234   9.168   1.500   1.392
23779SOL    HW273235   9.207   1.448   1.255
23780SOL     OW73236   9.198   9.708   9.679
23780SOL    HW173237   9.256   9.641   9.715
23780SOL    HW273238   9.140   9.660   9.620
23781SOL     OW73239   3.360   8.078   7.050
23781SOL    HW173240   3.279   8.103   7.096
23781SOL    HW273241   3.398   8.161   7.021
23782SOL     OW73242  13.019  12.026   6.622
23782SOL    HW173243  12.995  12.062   6.537
23782SOL    HW273244  12.948  11.966   6.645
23783SOL     OW73245   6.577  14.833   2.385
23783SOL    HW173246   6.666  14.842   2.421
23783SOL    HW273247   6.523   0.001   2.446
23784SOL     OW73248  13.651   3.210  10.588
23784SOL    HW173249  13.559   3.194  10.607
23784SOL    HW273250  13.653   3.236  10.496
23785SOL     OW73251   4.656   5.348  10.620
23785SOL    HW173252   4.710   5.403  10.564
23785SOL    HW273253   4.715   5.276  10.646
23786SOL     OW73254  14.775   4.379   8.444
23786SOL    HW173255  14.729   4.463   8.438
23786SOL    HW273256  14.808   4.363   8.356
23787SOL     OW73257   4.575  13.604   0.547
23787SOL    HW173258   4.583  13.684   0.495
23787SOL    HW273259   4.563  13.534   0.483
23788SOL     OW73260  14.741   8.462  13.715
23788SOL    HW173261  14.751   8.438  13.807
23788SOL    HW273262  14.693   8.545  13.717
23789SOL     OW73263  13.174   4.259   1.579
23789SOL    HW173264  13.134   4.344   1.559
23789SOL    HW273265  13.227   4.239   1.502
23790SOL     OW73266  12.100  13.158  11.075
23790SOL    HW173267  12.140  13.113  11.150
23790SOL    HW273268  12.161  13.140  11.002
23791SOL     OW73269   3.059  14.013  13.068
23791SOL    HW173270   3.080  14.091  13.120
23791SOL    HW273271   3.094  14.032  12.981
23792SOL     OW73272   7.181   1.348   7.795
23792SOL    HW173273   7.187   1.443   7.798
23792SOL    HW273274   7.087   1.331   7.785
23793SOL     OW73275   5.526   2.424  13.690
23793SOL    HW173276   5.518   2.418  13.785
23793SOL    HW273277   5.515   2.334  13.659
23794SOL     OW73278  12.833  10.291  12.142
23794SOL    HW173279  12.808  10.213  12.192
23794SOL    HW273280  12.832  10.362  12.207
23795SOL     OW73281   0.263   0.764   2.865
23795SOL    HW173282   0.312   0.774   2.784
23795SOL    HW273283   0.198   0.696   2.845
23796SOL     OW73284   4.944   9.695   6.928
23796SOL    HW173285   5.030   9.728   6.901
23796SOL    HW273286   4.906   9.660   6.848
23797SOL     OW73287   0.810  10.432  10.514
23797SOL    HW173288   0.720  10.438  10.543
23797SOL    HW273289   0.804  10.428  10.418
23798SOL     OW73290  13.288  10.887  10.826
23798SOL    HW173291  13.353  10.885  10.896
23798SOL    HW273292  13.211  10.928  10.865
23799SOL     OW73293  11.679   7.612   3.752
23799SOL    HW173294  11.677   7.645   3.663
23799SOL    HW273295  11.654   7.687   3.806
23800SOL     OW73296   6.414   5.065   6.408
23800SOL    HW173297   6.454   5.060   6.495
23800SOL    HW273298   6.329   5.022   6.419
23801SOL     OW73299  13.598   8.209   5.184
23801SOL    HW173300  13.645   8.262   5.119
23801SOL    HW273301  13.599   8.262   5.263
23802SOL     OW73302   1.179  10.531   8.373
23802SOL    HW173303   1.190  10.624   8.392
23802SOL    HW273304   1.084  10.519   8.370
23803SOL     OW73305  11.845  12.657  12.304
23803SOL    HW173306  11.890  12.686  12.225
23803SOL    HW273307  11.901  12.687  12.376
23804SOL     OW73308   1.806   5.079   7.362
23804SOL    HW173309   1.730   5.030   7.329
23804SOL    HW273310   1.880   5.046   7.313
23805SOL     OW73311  13.907   1.107   1.397
23805SOL    HW173312  13.858   1.028   1.419
23805SOL    HW273313  13.868   1.138   1.316
23806SOL     OW73314   6.388   2.604   3.883
23806SOL    HW173315   6.339   2.523   3.869
23806SOL    HW273316   6.478   2.575   3.897
23807SOL     OW73317   2.644   1.789  14.852
23807SOL    HW173318   2.548   1.788  14.844
23807SOL    HW273319   2.664   1.876   0.004
23808SOL     OW73320   0.213   6.553   7.666
23808SOL    HW173321   0.210   6.460   7.689
23808SOL    HW273322   0.301   6.582   7.692
23809SOL     OW73323   7.638   9.258  12.814
23809SOL    HW173324   7.644   9.311  12.735
23809SOL    HW273325   7.686   9.308  12.880
23810SOL     OW73326  11.593  11.991   5.199
23810SOL    HW173327  11.533  11.981   5.126
23810SOL    HW273328  11.660  12.052   5.167
23811SOL     OW73329   4.130   3.160   4.213
23811SOL    HW173330   4.201   3.222   4.229
23811SOL    HW273331   4.050   3.211   4.228
23812SOL     OW73332  10.994   2.544  12.202
23812SOL    HW173333  11.031   2.527  12.289
23812SOL    HW273334  11.061   2.514  12.141
23813SOL     OW73335   6.629   0.600  14.311
23813SOL    HW173336   6.615   0.652  14.232
23813SOL    HW273337   6.724   0.598  14.322
23814SOL     OW73338  10.670   5.554  10.849
23814SOL    HW173339  10.732   5.561  10.776
23814SOL    HW273340  10.701   5.479  10.898
23815SOL     OW73341   2.321  10.040  14.330
23815SOL    HW173342   2.227  10.021  14.324
23815SOL    HW273343   2.338  10.050  14.424
23816SOL     OW73344   8.140   4.878  10.466
23816SOL    HW173345   8.209   4.826  10.508
23816SOL    HW273346   8.124   4.951  10.526
23817SOL     OW73347   3.036   8.674   1.710
23817SOL    HW173348   3.086   8.721   1.644
23817SOL    HW273349   2.980   8.740   1.751
23818SOL     OW73350   5.899  13.355   4.008
23818SOL    HW173351   5.873  13.278   3.957
23818SOL    HW273352   5.976  13.388   3.962
23819SOL     OW73353   9.625   6.589   9.097
23819SOL    HW173354   9.651   6.528   9.166
23819SOL    HW273355   9.575   6.657   9.141
23820SOL     OW73356   8.136   2.679   3.916
23820SOL    HW173357   8.103   2.742   3.980
23820SOL    HW273358   8.231   2.690   3.919
23821SOL     OW73359   0.976  11.989  12.375
23821SOL    HW173360   1.041  12.041  12.328
23821SOL    HW273361   0.892  12.029  12.352
23822SOL     OW73362   5.501  13.085   3.725
23822SOL    HW173363   5.480  12.993   3.741
23822SOL    HW273364   5.498  13.126   3.812
23823SOL     OW73365  10.591   4.479  10.922
23823SOL    HW173366  10.646   4.409  10.956
23823SOL    HW273367  10.527   4.495  10.992
23824SOL     OW73368  10.208   1.799   1.868
23824SOL    HW173369  10.149   1.852   1.921
23824SOL    HW273370  10.158   1.720   1.847
23825SOL     OW73371  11.336   2.737   8.613
23825SOL    HW173372  11.311   2.645   8.605
23825SOL    HW273373  11.370   2.744   8.702
23826SOL     OW73374   9.164  14.729   8.296
23826SOL    HW173375   9.176  14.702   8.205
23826SOL    HW273376   9.194  14.655   8.347
23827SOL     OW73377  13.879   4.434   1.812
23827SOL    HW173378  13.855   4.487   1.888
23827SOL    HW273379  13.815   4.362   1.812
23828SOL     OW73380   6.033   8.584   0.685
23828SOL    HW173381   6.030   8.664   0.633
23828SOL    HW273382   6.096   8.604   0.755
23829SOL     OW73383  14.125   5.507  12.850
23829SOL    HW173384  14.049   5.502  12.792
23829SOL    HW273385  14.121   5.595  12.886
23830SOL     OW73386   8.925  14.736   9.302
23830SOL    HW173387   8.865  14.766   9.371
23830SOL    HW273388   8.963  14.656   9.336
23831SOL     OW73389   9.433   1.388  11.677
23831SOL    HW173390   9.457   1.451  11.608
23831SOL    HW273391   9.441   1.302  11.635
23832SOL     OW73392   1.564  11.051   6.335
23832SOL    HW173393   1.520  11.089   6.411
23832SOL    HW273394   1.496  11.001   6.290
23833SOL     OW73395  11.069  14.473   6.940
23833SOL    HW173396  11.022  14.418   6.877
23833SOL    HW273397  11.007  14.484   7.013
23834SOL     OW73398   9.117  11.142   9.311
23834SOL    HW173399   9.135  11.119   9.220
23834SOL    HW273400   9.044  11.204   9.307
23835SOL     OW73401   1.713   8.388  13.844
23835SOL    HW173402   1.777   8.453  13.814
23835SOL    HW273403   1.628   8.428  13.826
23836SOL     OW73404   1.335   4.781  13.254
23836SOL    HW173405   1.271   4.711  13.270
23836SOL    HW273406   1.383   4.788  13.337
23837SOL     OW73407   5.631  10.501  12.485
23837SOL    HW173408   5.546  10.516  12.444
23837SOL    HW273409   5.611  10.444  12.560
23838SOL     OW73410   9.402   8.203   8.215
23838SOL    HW173411   9.393   8.116   8.177
23838SOL    HW273412   9.317   8.245   8.201
23839SOL     OW73413   4.301   0.520  13.302
23839SOL    HW173414   4.388   0.531  13.263
23839SOL    HW273415   4.317   0.471  13.382
23840SOL     OW73416   3.545  13.299   1.179
23840SOL    HW173417   3.460  13.327   1.212
23840SOL    HW273418   3.584  13.251   1.252
23841SOL     OW73419   6.855   5.525   2.672
23841SOL    HW173420   6.816   5.449   2.714
23841SOL    HW273421   6.833   5.516   2.580
23842SOL     OW73422   2.533   8.428   3.051
23842SOL    HW173423   2.554   8.405   2.960
23842SOL    HW273424   2.583   8.507   3.069
23843SOL     OW73425  10.768   0.414  11.468
23843SOL    HW173426  10.683   0.386  11.432
23843SOL    HW273427  10.776   0.505  11.441
23844SOL     OW73428   9.940   1.131  12.837
23844SOL    HW173429   9.887   1.146  12.758
23844SOL    HW273430   9.969   1.040  12.829
23845SOL     OW73431  10.869   0.912  14.036
23845SOL    HW173432  10.961   0.887  14.042
23845SOL    HW273433  10.822   0.843  14.083
23846SOL     OW73434  13.477  13.903   1.639
23846SOL    HW173435  13.433  13.940   1.715
23846SOL    HW273436  13.463  13.808   1.648
23847SOL     OW73437  11.387  10.675  14.163
23847SOL    HW173438  11.448  10.604  14.180
23847SOL    HW273439  11.324  10.638  14.101
23848SOL     OW73440   6.622  10.964   4.085
23848SOL    HW173441   6.631  10.951   3.990
23848SOL    HW273442   6.567  10.890   4.113
23849SOL     OW73443   8.737   7.421   6.733
23849SOL    HW173444   8.788   7.375   6.800
23849SOL    HW273445   8.796   7.428   6.658
23850SOL     OW73446   4.684  14.269  12.961
23850SOL    HW173447   4.729  14.233  12.885
23850SOL    HW273448   4.628  14.197  12.992
23851SOL     OW73449   8.094   4.404   5.216
23851SOL    HW173450   8.108   4.386   5.309
23851SOL    HW273451   8.165   4.357   5.172
23852SOL     OW73452  13.216  13.874   6.854
23852SOL    HW173453  13.126  13.868   6.886
23852SOL    HW273454  13.231  13.968   6.841
23853SOL     OW73455  10.244  13.259   5.573
23853SOL    HW173456  10.219  13.226   5.486
23853SOL    HW273457  10.218  13.351   5.572
23854SOL     OW73458   7.770   0.208   5.253
23854SOL    HW173459   7.688   0.165   5.280
23854SOL    HW273460   7.827   0.135   5.228
23855SOL     OW73461  11.734   4.170  11.567
23855SOL    HW173462  11.659   4.140  11.618
23855SOL    HW273463  11.695   4.203  11.485
23856SOL     OW73464   8.338   0.571   1.700
23856SOL    HW173465   8.368   0.482   1.717
23856SOL    HW273466   8.243   0.567   1.711
23857SOL     OW73467   8.250   6.860   3.968
23857SOL    HW173468   8.168   6.909   3.978
23857SOL    HW273469   8.317   6.918   4.004
23858SOL     OW73470  13.113  14.397  13.044
23858SOL    HW173471  13.124  14.397  12.948
23858SOL    HW273472  13.112  14.490  13.068
23859SOL     OW73473  14.206   3.700   5.854
23859SOL    HW173474  14.297   3.670   5.846
23859SOL    HW273475  14.159   3.625   5.891
23860SOL     OW73476   6.553   0.477   2.362
23860SOL    HW173477   6.464   0.511   2.351
23860SOL    HW273478   6.595   0.492   2.277
23861SOL     OW73479   5.603   6.833   8.382
23861SOL    HW173480   5.685   6.828   8.334
23861SOL    HW273481   5.574   6.923   8.371
23862SOL     OW73482  10.965  13.038   9.200
23862SOL    HW173483  10.901  12.970   9.177
23862SOL    HW273484  11.003  13.063   9.116
23863SOL     OW73485   2.962   3.897   3.930
23863SOL    HW173486   2.970   3.948   3.850
23863SOL    HW273487   3.046   3.908   3.975
23864SOL     OW73488   1.099   3.297   4.667
23864SOL    HW173489   1.031   3.264   4.608
23864SOL    HW273490   1.107   3.229   4.734
23865SOL     OW73491  11.200  10.293  10.700
23865SOL    HW173492  11.264  10.232  10.665
23865SOL    HW273493  11.124  10.284  10.642
23866SOL     OW73494   0.838  13.129  14.678
23866SOL    HW173495   0.915  13.104  14.627
23866SOL    HW273496   0.856  13.098  14.766
23867SOL     OW73497   6.974   8.161  11.779
23867SOL    HW173498   7.035   8.163  11.705
23867SOL    HW273499   6.985   8.074  11.817
23868SOL     OW73500   9.071  11.509   1.501
23868SOL    HW173501   9.151  11.517   1.553
23868SOL    HW273502   9.094  11.448   1.431
23869SOL     OW73503   3.318   2.569   9.783
23869SOL    HW173504   3.262   2.553   9.708
23869SOL    HW273505   3.262   2.552   9.859
23870SOL     OW73506  14.057   0.066   0.697
23870SOL    HW173507  14.030  14.870   0.746
23870SOL    HW273508  14.150   0.075   0.716
23871SOL     OW73509   0.329  11.933  13.216
23871SOL    HW173510   0.383  11.926  13.137
23871SOL    HW273511   0.243  11.962  13.184
23872SOL     OW73512  14.161   5.422  12.214
23872SOL    HW173513  14.224   5.437  12.285
23872SOL    HW273514  14.111   5.345  12.243
23873SOL     OW73515   5.716   0.249   4.613
23873SOL    HW173516   5.709   0.298   4.695
23873SOL    HW273517   5.629   0.209   4.602
23874SOL     OW73518   8.253   6.966   8.978
23874SOL    HW173519   8.342   6.991   8.953
23874SOL    HW273520   8.261   6.875   9.006
23875SOL     OW73521  10.248   3.598   0.560
23875SOL    HW173522  10.186   3.624   0.493
23875SOL    HW273523  10.211   3.632   0.642
23876SOL     OW73524   8.513   7.811   0.921
23876SOL    HW173525   8.451   7.882   0.937
23876SOL    HW273526   8.496   7.748   0.992
23877SOL     OW73527   5.639  11.837  12.619
23877SOL    HW173528   5.627  11.930  12.638
23877SOL    HW273529   5.569  11.793  12.667
23878SOL     OW73530  14.503  13.918  13.131
23878SOL    HW173531  14.519  14.013  13.128
23878SOL    HW273532  14.408  13.910  13.135
23879SOL     OW73533  11.165   6.691   6.284
23879SOL    HW173534  11.217   6.650   6.353
23879SOL    HW273535  11.158   6.783   6.310
23880SOL     OW73536  14.144   6.481   6.734
23880SOL    HW173537  14.123   6.403   6.785
23880SOL    HW273538  14.059   6.521   6.715
23881SOL     OW73539   0.416   7.502   9.520
23881SOL    HW173540   0.334   7.549   9.507
23881SOL    HW273541   0.477   7.543   9.458
23882SOL     OW73542   0.171   6.014   2.316
23882SOL    HW173543   0.126   5.965   2.384
23882SOL    HW273544   0.236   5.953   2.282
23883SOL     OW73545  11.654   7.332   8.692
23883SOL    HW173546  11.598   7.370   8.760
23883SOL    HW273547  11.740   7.369   8.709
23884SOL     OW73548  11.826   9.161   2.873
23884SOL    HW173549  11.862   9.240   2.914
23884SOL    HW273550  11.761   9.193   2.811
23885SOL     OW73551   0.434  14.365   6.827
23885SOL    HW173552   0.492  14.289   6.832
23885SOL    HW273553   0.422  14.379   6.733
23886SOL     OW73554   3.152  10.081  10.469
23886SOL    HW173555   3.068  10.081  10.515
23886SOL    HW273556   3.194  10.163  10.494
23887SOL     OW73557   0.692  13.872  13.005
23887SOL    HW173558   0.634  13.922  12.948
23887SOL    HW273559   0.670  13.902  13.093
23888SOL     OW73560   7.886  11.259   2.526
23888SOL    HW173561   7.915  11.249   2.617
23888SOL    HW273562   7.954  11.312   2.485
23889SOL     OW73563  12.015  10.536  13.224
23889SOL    HW173564  12.002  10.523  13.130
23889SOL    HW273565  11.967  10.617  13.244
23890SOL     OW73566   5.191  14.461  11.353
23890SOL    HW173567   5.243  14.498  11.281
23890SOL    HW273568   5.113  14.425  11.310
23891SOL     OW73569   8.544   0.776   6.246
23891SOL    HW173570   8.570   0.860   6.208
23891SOL    HW273571   8.525   0.720   6.170
23892SOL     OW73572   1.724   0.039  12.512
23892SOL    HW173573   1.801   0.071  12.559
23892SOL    HW273574   1.747  14.831  12.489
23893SOL     OW73575   5.834   3.181   2.355
23893SOL    HW173576   5.740   3.190   2.370
23893SOL    HW273577   5.873   3.181   2.442
23894SOL     OW73578   7.280   6.132  10.362
23894SOL    HW173579   7.337   6.187  10.307
23894SOL    HW273580   7.202   6.119  10.308
23895SOL     OW73581   3.147  11.632  13.709
23895SOL    HW173582   3.121  11.689  13.637
23895SOL    HW273583   3.090  11.555  13.699
23896SOL     OW73584  10.917  12.504   5.184
23896SOL    HW173585  10.980  12.487   5.255
23896SOL    HW273586  10.833  12.515   5.229
23897SOL     OW73587   1.921  14.165   7.208
23897SOL    HW173588   1.892  14.080   7.240
23897SOL    HW273589   1.991  14.144   7.145
23898SOL     OW73590   2.431   4.556   4.796
23898SOL    HW173591   2.424   4.523   4.707
23898SOL    HW273592   2.444   4.477   4.850
23899SOL     OW73593   3.097  11.859   1.821
23899SOL    HW173594   3.137  11.864   1.735
23899SOL    HW273595   3.156  11.909   1.878
23900SOL     OW73596   8.393   6.339   4.140
23900SOL    HW173597   8.398   6.331   4.045
23900SOL    HW273598   8.411   6.251   4.173
23901SOL     OW73599   8.561   8.811  11.402
23901SOL    HW173600   8.570   8.906  11.395
23901SOL    HW273601   8.582   8.791  11.493
23902SOL     OW73602   2.540   7.884   2.130
23902SOL    HW173603   2.520   7.836   2.210
23902SOL    HW273604   2.605   7.948   2.156
23903SOL     OW73605   5.028  14.432  12.672
23903SOL    HW173606   4.969  14.365  12.705
23903SOL    HW273607   5.058  14.479  12.749
23904SOL     OW73608  12.899   3.157  12.353
23904SOL    HW173609  12.926   3.190  12.267
23904SOL    HW273610  12.978   3.166  12.407
23905SOL     OW73611   2.680   6.773   1.316
23905SOL    HW173612   2.686   6.834   1.243
23905SOL    HW273613   2.637   6.823   1.385
23906SOL     OW73614  10.092  11.218   1.689
23906SOL    HW173615  10.117  11.244   1.601
23906SOL    HW273616  10.171  11.178   1.726
23907SOL     OW73617   9.554   3.279   7.273
23907SOL    HW173618   9.472   3.305   7.315
23907SOL    HW273619   9.609   3.357   7.280
23908SOL     OW73620   7.657   6.304   7.427
23908SOL    HW173621   7.696   6.346   7.351
23908SOL    HW273622   7.731   6.286   7.485
23909SOL     OW73623   4.698   5.554   1.371
23909SOL    HW173624   4.730   5.516   1.453
23909SOL    HW273625   4.777   5.589   1.329
23910SOL     OW73626  11.761   3.147   7.107
23910SOL    HW173627  11.719   3.062   7.121
23910SOL    HW273628  11.758   3.190   7.192
23911SOL     OW73629  12.879  12.446  14.865
23911SOL    HW173630  12.974  12.458  14.860
23911SOL    HW273631  12.860  12.445   0.077
23912SOL     OW73632   7.760  10.555   4.899
23912SOL    HW173633   7.710  10.481   4.934
23912SOL    HW273634   7.700  10.596   4.836
23913SOL     OW73635   5.736   0.946   4.792
23913SOL    HW173636   5.640   0.940   4.796
23913SOL    HW273637   5.762   0.874   4.735
23914SOL     OW73638   1.032  12.446  13.507
23914SOL    HW173639   0.988  12.361  13.507
23914SOL    HW273640   1.105  12.435  13.446
23915SOL     OW73641   7.539   2.041   0.657
23915SOL    HW173642   7.615   2.068   0.708
23915SOL    HW273643   7.573   2.028   0.569
23916SOL     OW73644   9.090   2.419   8.153
23916SOL    HW173645   9.142   2.358   8.101
23916SOL    HW273646   9.000   2.391   8.140
23917SOL     OW73647   8.369  14.564   8.516
23917SOL    HW173648   8.405  14.475   8.515
23917SOL    HW273649   8.420  14.611   8.582
23918SOL     OW73650   2.026   9.304   7.297
23918SOL    HW173651   1.975   9.295   7.216
23918SOL    HW273652   2.047   9.397   7.303
23919SOL     OW73653  13.839   5.446   3.211
23919SOL    HW173654  13.803   5.477   3.128
23919SOL    HW273655  13.881   5.523   3.249
23920SOL     OW73656   3.894   5.635   4.739
23920SOL    HW173657   3.820   5.678   4.695
23920SOL    HW273658   3.933   5.579   4.672
23921SOL     OW73659   1.328   5.989  10.881
23921SOL    HW173660   1.334   6.083  10.896
23921SOL    HW273661   1.418   5.958  10.886
23922SOL     OW73662   7.495   7.963  12.038
23922SOL    HW173663   7.403   7.989  12.030
23922SOL    HW273664   7.492   7.869  12.057
23923SOL     OW73665   1.760   2.443   5.613
23923SOL    HW173666   1.821   2.370   5.620
23923SOL    HW273667   1.705   2.420   5.538
23924SOL     OW73668  14.699   9.186  14.373
23924SOL    HW173669  14.669   9.114  14.428
23924SOL    HW273670  14.620   9.239  14.358
23925SOL     OW73671   1.696   9.692   4.013
23925SOL    HW173672   1.767   9.715   4.073
23925SOL    HW273673   1.739   9.671   3.931
23926SOL     OW73674   3.685   3.955  10.968
23926SOL    HW173675   3.694   3.876  11.022
23926SOL    HW273676   3.605   3.996  11.000
23927SOL     OW73677   3.311  11.543   0.302
23927SOL    HW173678   3.365  11.501   0.234
23927SOL    HW273679   3.312  11.636   0.280
23928SOL     OW73680   8.840   5.237   3.409
23928SOL    HW173681   8.810   5.154   3.372
23928SOL    HW273682   8.934   5.238   3.394
23929SOL     OW73683   3.158   8.071   5.330
23929SOL    HW173684   3.081   8.074   5.273
23929SOL    HW273685   3.221   8.018   5.281
23930SOL     OW73686  13.125   9.185   7.148
23930SOL    HW173687  13.164   9.193   7.235
23930SOL    HW273688  13.176   9.117   7.105
23931SOL     OW73689   7.012   4.328   2.437
23931SOL    HW173690   7.076   4.259   2.419
23931SOL    HW273691   6.927   4.286   2.424
23932SOL     OW73692   5.201   3.127   6.609
23932SOL    HW173693   5.248   3.129   6.525
23932SOL    HW273694   5.237   3.201   6.658
23933SOL     OW73695   5.897   6.146   6.070
23933SOL    HW173696   5.900   6.124   6.163
23933SOL    HW273697   5.940   6.231   6.064
23934SOL     OW73698  10.849  12.356  10.408
23934SOL    HW173699  10.927  12.355  10.353
23934SOL    HW273700  10.779  12.323  10.352
23935SOL     OW73701   4.532   0.027   4.754
23935SOL    HW173702   4.556   0.022   4.662
23935SOL    HW273703   4.489   0.113   4.763
23936SOL     OW73704   6.906   5.640   9.378
23936SOL    HW173705   6.988   5.611   9.418
23936SOL    HW273706   6.883   5.570   9.317
23937SOL     OW73707   2.156  13.292  11.399
23937SOL    HW173708   2.180  13.345  11.474
23937SOL    HW273709   2.067  13.318  11.378
23938SOL     OW73710  11.541  13.639  13.115
23938SOL    HW173711  11.479  13.677  13.177
23938SOL    HW273712  11.542  13.701  13.042
23939SOL     OW73713   6.453  12.810   5.894
23939SOL    HW173714   6.505  12.874   5.943
23939SOL    HW273715   6.448  12.733   5.951
23940SOL     OW73716   4.066   1.345  11.659
23940SOL    HW173717   4.061   1.301  11.574
23940SOL    HW273718   4.147   1.395  11.655
23941SOL     OW73719   6.999   0.457   6.184
23941SOL    HW173720   6.913   0.449   6.225
23941SOL    HW273721   6.981   0.480   6.093
23942SOL     OW73722   8.083  13.492   4.599
23942SOL    HW173723   8.086  13.572   4.651
23942SOL    HW273724   8.065  13.422   4.662
23943SOL     OW73725   0.516   3.822  11.272
23943SOL    HW173726   0.427   3.792  11.288
23943SOL    HW273727   0.566   3.741  11.257
23944SOL     OW73728  14.020   9.470   1.461
23944SOL    HW173729  14.009   9.383   1.422
23944SOL    HW273730  14.031   9.529   1.386
23945SOL     OW73731   2.954   9.402   2.617
23945SOL    HW173732   2.884   9.338   2.609
23945SOL    HW273733   2.915   9.475   2.665
23946SOL     OW73734   6.401   6.747  10.201
23946SOL    HW173735   6.344   6.716  10.272
23946SOL    HW273736   6.437   6.667  10.162
23947SOL     OW73737   1.726  14.451   2.240
23947SOL    HW173738   1.799  14.495   2.284
23947SOL    HW273739   1.731  14.482   2.149
23948SOL     OW73740   3.576  13.402   8.344
23948SOL    HW173741   3.584  13.425   8.251
23948SOL    HW273742   3.666  13.403   8.377
23949SOL     OW73743   0.542  11.768   6.739
23949SOL    HW173744   0.543  11.743   6.831
23949SOL    HW273745   0.485  11.703   6.697
23950SOL     OW73746   7.772   5.808  11.254
23950SOL    HW173747   7.834   5.772  11.190
23950SOL    HW273748   7.708   5.739  11.267
23951SOL     OW73749  14.499   2.756  11.495
23951SOL    HW173750  14.561   2.712  11.436
23951SOL    HW273751  14.498   2.701  11.573
23952SOL     OW73752   9.344   9.923   1.944
23952SOL    HW173753   9.312   9.837   1.973
23952SOL    HW273754   9.400   9.904   1.869
23953SOL     OW73755   4.516   3.186  11.259
23953SOL    HW173756   4.608   3.196  11.235
23953SOL    HW273757   4.516   3.127  11.334
23954SOL     OW73758   5.365   4.855  14.191
23954SOL    HW173759   5.410   4.783  14.236
23954SOL    HW273760   5.408   4.934  14.224
23955SOL     OW73761   3.204  13.608   0.668
23955SOL    HW173762   3.189  13.531   0.722
23955SOL    HW273763   3.183  13.682   0.725
23956SOL     OW73764   7.429  11.107   9.672
23956SOL    HW173765   7.449  11.195   9.705
23956SOL    HW273766   7.349  11.119   9.620
23957SOL     OW73767   7.906  12.410   8.947
23957SOL    HW173768   7.908  12.367   8.861
23957SOL    HW273769   7.885  12.501   8.928
23958SOL     OW73770   7.969   4.539   4.672
23958SOL    HW173771   8.041   4.524   4.734
23958SOL    HW273772   7.985   4.627   4.637
23959SOL     OW73773  14.522   7.839   4.855
23959SOL    HW173774  14.486   7.770   4.800
23959SOL    HW273775  14.585   7.884   4.799
23960SOL     OW73776  12.685   9.086   0.901
23960SOL    HW173777  12.750   9.126   0.843
23960SOL    HW273778  12.707   8.993   0.901
23961SOL     OW73779  10.665   4.992   5.907
23961SOL    HW173780  10.675   4.906   5.867
23961SOL    HW273781  10.752   5.031   5.902
23962SOL     OW73782   8.317   9.978   7.725
23962SOL    HW173783   8.270   9.899   7.750
23962SOL    HW273784   8.408   9.960   7.747
23963SOL     OW73785  10.950  10.040   7.315
23963SOL    HW173786  10.968  10.134   7.317
23963SOL    HW273787  11.004  10.006   7.244
23964SOL     OW73788  13.287  10.909   6.436
23964SOL    HW173789  13.326  10.843   6.493
23964SOL    HW273790  13.253  10.859   6.361
23965SOL     OW73791   2.540  10.481   4.793
23965SOL    HW173792   2.532  10.562   4.742
23965SOL    HW273793   2.633  10.475   4.814
23966SOL     OW73794  11.967   0.890   2.674
23966SOL    HW173795  12.014   0.973   2.671
23966SOL    HW273796  12.017   0.837   2.737
23967SOL     OW73797   5.087   1.687   6.041
23967SOL    HW173798   5.168   1.736   6.026
23967SOL    HW273799   5.020   1.754   6.049
23968SOL     OW73800   2.461   8.514   1.419
23968SOL    HW173801   2.529   8.519   1.352
23968SOL    HW273802   2.401   8.585   1.397
23969SOL     OW73803  11.595   6.345  12.981
23969SOL    HW173804  11.618   6.379  13.067
23969SOL    HW273805  11.635   6.258  12.979
23970SOL     OW73806  10.407   4.376  14.205
23970SOL    HW173807  10.457   4.445  14.247
23970SOL    HW273808  10.397   4.308  14.272
23971SOL     OW73809  14.055  12.534   9.656
23971SOL    HW173810  13.961  12.516   9.654
23971SOL    HW273811  14.062  12.628   9.668
23972SOL     OW73812   6.397  12.981   7.364
23972SOL    HW173813   6.366  12.920   7.297
23972SOL    HW273814   6.443  13.050   7.316
23973SOL     OW73815   8.192   1.649   1.622
23973SOL    HW173816   8.193   1.572   1.678
23973SOL    HW273817   8.282   1.659   1.592
23974SOL     OW73818   9.069   7.620  10.995
23974SOL    HW173819   9.084   7.664  10.912
23974SOL    HW273820   8.977   7.637  11.015
23975SOL     OW73821  12.739   4.463  14.399
23975SOL    HW173822  12.734   4.498  14.310
23975SOL    HW273823  12.648   4.447  14.424
23976SOL     OW73824   1.075  11.640   1.703
23976SOL    HW173825   1.044  11.648   1.793
23976SOL    HW273826   1.151  11.583   1.709
23977SOL     OW73827   8.990   8.083   6.075
23977SOL    HW173828   9.056   8.072   6.143
23977SOL    HW273829   8.907   8.085   6.123
23978SOL     OW73830   4.094  12.639  11.495
23978SOL    HW173831   4.130  12.634  11.583
23978SOL    HW273832   4.008  12.599  11.502
23979SOL     OW73833   6.074  13.309   0.692
23979SOL    HW173834   6.010  13.298   0.621
23979SOL    HW273835   6.064  13.400   0.720
23980SOL     OW73836  12.875   0.642  14.109
23980SOL    HW173837  12.805   0.578  14.122
23980SOL    HW273838  12.851   0.688  14.029
23981SOL     OW73839   0.702   5.766   1.207
23981SOL    HW173840   0.717   5.703   1.137
23981SOL    HW273841   0.687   5.849   1.161
23982SOL     OW73842   9.875   8.192  10.516
23982SOL    HW173843   9.823   8.175  10.436
23982SOL    HW273844   9.889   8.105  10.554
23983SOL     OW73845   7.177  11.237   1.199
23983SOL    HW173846   7.204  11.173   1.134
23983SOL    HW273847   7.257  11.283   1.223
23984SOL     OW73848   1.842   3.377   9.992
23984SOL    HW173849   1.839   3.473   9.994
23984SOL    HW273850   1.930   3.356  10.024
23985SOL     OW73851   0.918   3.045  10.595
23985SOL    HW173852   0.874   2.966  10.562
23985SOL    HW273853   0.855   3.083  10.656
23986SOL     OW73854   2.865   5.133   0.444
23986SOL    HW173855   2.942   5.077   0.433
23986SOL    HW273856   2.890   5.193   0.515
23987SOL     OW73857   3.995   7.725   7.182
23987SOL    HW173858   3.985   7.819   7.170
23987SOL    HW273859   3.914   7.697   7.224
23988SOL     OW73860  12.853   7.412   0.925
23988SOL    HW173861  12.914   7.437   0.994
23988SOL    HW273862  12.818   7.495   0.892
23989SOL     OW73863   6.941  11.777  13.127
23989SOL    HW173864   7.021  11.806  13.172
23989SOL    HW273865   6.928  11.687  13.157
23990SOL     OW73866   9.549   0.620   3.558
23990SOL    HW173867   9.584   0.542   3.601
23990SOL    HW273868   9.461   0.595   3.531
23991SOL     OW73869  14.246   4.243   9.470
23991SOL    HW173870  14.229   4.220   9.379
23991SOL    HW273871  14.160   4.263   9.507
23992SOL     OW73872   4.789  13.222   3.278
23992SOL    HW173873   4.726  13.285   3.244
23992SOL    HW273874   4.800  13.245   3.370
23993SOL     OW73875  13.901  13.906   3.915
23993SOL    HW173876  13.961  13.922   3.988
23993SOL    HW273877  13.894  13.810   3.911
23994SOL     OW73878   3.684  12.949  14.768
23994SOL    HW173879   3.749  13.015  14.793
23994SOL    HW273880   3.673  12.895  14.847
23995SOL     OW73881   0.412  11.279   9.825
23995SOL    HW173882   0.452  11.333   9.757
23995SOL    HW273883   0.486  11.248   9.877
23996SOL     OW73884   3.905   3.608   8.033
23996SOL    HW173885   3.954   3.607   7.951
23996SOL    HW273886   3.926   3.525   8.075
23997SOL     OW73887   9.430  13.480   8.958
23997SOL    HW173888   9.477  13.408   9.000
23997SOL    HW273889   9.420  13.452   8.867
23998SOL     OW73890   5.020   8.645   6.697
23998SOL    HW173891   4.993   8.628   6.787
23998SOL    HW273892   4.967   8.585   6.645
23999SOL     OW73893  11.125  11.805   4.061
23999SOL    HW173894  11.049  11.760   4.097
23999SOL    HW273895  11.173  11.736   4.014
24000SOL     OW73896  11.821   0.062  14.608
24000SOL    HW173897  11.762   0.081  14.535
24000SOL    HW273898  11.902   0.108  14.586
24001SOL     OW73899  13.961   6.997  10.620
24001SOL    HW173900  13.914   7.009  10.702
24001SOL    HW273901  14.040   7.050  10.630
24002SOL     OW73902  14.380   2.744   2.509
24002SOL    HW173903  14.443   2.802   2.553
24002SOL    HW273904  14.426   2.713   2.432
24003SOL     OW73905  14.423   1.686   8.306
24003SOL    HW173906  14.494   1.633   8.342
24003SOL    HW273907  14.354   1.622   8.286
24004SOL     OW73908  11.518  12.829  12.662
24004SOL    HW173909  11.510  12.815  12.757
24004SOL    HW273910  11.579  12.761  12.634
24005SOL     OW73911  11.998   7.574   7.543
24005SOL    HW173912  12.007   7.645   7.479
24005SOL    HW273913  11.961   7.616   7.621
24006SOL     OW73914   6.622   1.540   5.121
24006SOL    HW173915   6.677   1.468   5.089
24006SOL    HW273916   6.532   1.505   5.115
24007SOL     OW73917  13.128   0.944   2.852
24007SOL    HW173918  13.123   0.907   2.764
24007SOL    HW273919  13.196   0.893   2.896
24008SOL     OW73920   1.061  14.184   3.890
24008SOL    HW173921   1.130  14.119   3.881
24008SOL    HW273922   1.083  14.252   3.825
24009SOL     OW73923  14.727  12.325   9.358
24009SOL    HW173924  14.662  12.303   9.291
24009SOL    HW273925  14.704  12.270   9.433
24010SOL     OW73926   4.977   9.036   1.472
24010SOL    HW173927   4.946   8.946   1.461
24010SOL    HW273928   4.964   9.056   1.565
24011SOL     OW73929   2.451  10.613   3.983
24011SOL    HW173930   2.514  10.641   4.049
24011SOL    HW273931   2.502  10.561   3.921
24012SOL     OW73932  10.733  11.382   7.961
24012SOL    HW173933  10.677  11.417   7.891
24012SOL    HW273934  10.693  11.298   7.983
24013SOL     OW73935   0.116  10.299   7.796
24013SOL    HW173936   0.043  10.249   7.759
24013SOL    HW273937   0.182  10.300   7.726
24014SOL     OW73938   0.324  12.875   6.808
24014SOL    HW173939   0.245  12.844   6.764
24014SOL    HW273940   0.378  12.797   6.817
24015SOL     OW73941  11.971   3.356  12.657
24015SOL    HW173942  12.043   3.415  12.679
24015SOL    HW273943  11.960   3.301  12.735
24016SOL     OW73944  10.984   1.665   7.202
24016SOL    HW173945  10.960   1.685   7.111
24016SOL    HW273946  11.029   1.581   7.196
24017SOL     OW73947   2.682   5.577  10.792
24017SOL    HW173948   2.659   5.522  10.717
24017SOL    HW273949   2.687   5.665  10.756
24018SOL     OW73950   4.937   7.398   0.363
24018SOL    HW173951   4.922   7.472   0.422
24018SOL    HW273952   4.918   7.321   0.416
24019SOL     OW73953   7.244   2.149   7.332
24019SOL    HW173954   7.225   2.065   7.289
24019SOL    HW273955   7.313   2.128   7.395
24020SOL     OW73956  10.204  11.528   9.730
24020SOL    HW173957  10.112  11.547   9.709
24020SOL    HW273958  10.233  11.469   9.660
24021SOL     OW73959   7.205   1.578   6.597
24021SOL    HW173960   7.134   1.592   6.659
24021SOL    HW273961   7.177   1.623   6.517
24022SOL     OW73962  12.528  13.664   0.341
24022SOL    HW173963  12.499  13.575   0.324
24022SOL    HW273964  12.478  13.718   0.280
24023SOL     OW73965   6.692   1.667   2.261
24023SOL    HW173966   6.749   1.654   2.336
24023SOL    HW273967   6.687   1.582   2.219
24024SOL     OW73968  14.254   5.587   1.995
24024SOL    HW173969  14.320   5.652   2.018
24024SOL    HW273970  14.298   5.527   1.935
24025SOL     OW73971  14.785   1.077  12.481
24025SOL    HW173972  14.729   1.076  12.403
24025SOL    HW273973  14.769   0.993  12.523
24026SOL     OW73974   9.071  13.502   3.275
24026SOL    HW173975   9.090  13.537   3.362
24026SOL    HW273976   9.088  13.408   3.282
24027SOL     OW73977  10.110   1.753   6.343
24027SOL    HW173978  10.146   1.727   6.428
24027SOL    HW273979  10.075   1.841   6.359
24028SOL     OW73980   3.642   4.282  13.934
24028SOL    HW173981   3.623   4.220  14.004
24028SOL    HW273982   3.556   4.302  13.896
24029SOL     OW73983  13.795  14.219   9.661
24029SOL    HW173984  13.807  14.128   9.689
24029SOL    HW273985  13.726  14.252   9.718
24030SOL     OW73986  14.004  13.998   4.193
24030SOL    HW173987  14.083  13.948   4.217
24030SOL    HW273988  14.002  14.071   4.255
24031SOL     OW73989  13.466   9.459  14.744
24031SOL    HW173990  13.524   9.409  14.686
24031SOL    HW273991  13.526   9.508  14.801
24032SOL     OW73992   2.540   8.355   8.156
24032SOL    HW173993   2.591   8.315   8.226
24032SOL    HW273994   2.589   8.334   8.076
24033SOL     OW73995   6.281   4.838  13.920
24033SOL    HW173996   6.349   4.893  13.958
24033SOL    HW273997   6.277   4.866  13.828
24034SOL     OW73998   5.721  13.568  14.637
24034SOL    HW173999   5.634  13.594  14.606
24034SOL    HW274000   5.742  13.490  14.584
24035SOL     OW74001   1.863   1.759   3.692
24035SOL    HW174002   1.819   1.794   3.614
24035SOL    HW274003   1.885   1.669   3.668
24036SOL     OW74004  13.868   2.497  14.353
24036SOL    HW174005  13.814   2.499  14.433
24036SOL    HW274006  13.811   2.533  14.285
24037SOL     OW74007   1.933  10.317  11.943
24037SOL    HW174008   2.023  10.332  11.913
24037SOL    HW274009   1.910  10.398  11.988
24038SOL     OW74010   2.234   9.159   1.779
24038SOL    HW174011   2.278   9.209   1.849
24038SOL    HW274012   2.304   9.143   1.715
24039SOL     OW74013   9.145   7.305   2.165
24039SOL    HW174014   9.205   7.240   2.129
24039SOL    HW274015   9.123   7.361   2.090
24040SOL     OW74016  10.319  10.334  12.573
24040SOL    HW174017  10.378  10.343  12.498
24040SOL    HW274018  10.241  10.384  12.550
24041SOL     OW74019  10.798   7.612   8.166
24041SOL    HW174020  10.761   7.682   8.113
24041SOL    HW274021  10.855   7.656   8.228
24042SOL     OW74022  12.296  10.614   1.650
24042SOL    HW174023  12.275  10.521   1.661
24042SOL    HW274024  12.278  10.632   1.558
24043SOL     OW74025  10.750   6.657  13.049
24043SOL    HW174026  10.774   6.596  13.119
24043SOL    HW274027  10.657   6.639  13.033
24044SOL     OW74028   0.050  13.765   2.045
24044SOL    HW174029   0.023  13.856   2.051
24044SOL    HW274030   0.002  13.731   1.969
24045SOL     OW74031  13.767   8.433   0.243
24045SOL    HW174032  13.774   8.427   0.148
24045SOL    HW274033  13.673   8.438   0.260
24046SOL     OW74034   8.111  11.589   2.346
24046SOL    HW174035   8.198  11.611   2.312
24046SOL    HW274036   8.128  11.548   2.431
24047SOL     OW74037  14.430   4.064   3.178
24047SOL    HW174038  14.422   4.144   3.231
24047SOL    HW274039  14.505   4.081   3.120
24048SOL     OW74040  13.866   6.833   0.614
24048SOL    HW174041  13.817   6.843   0.696
24048SOL    HW274042  13.905   6.746   0.620
24049SOL     OW74043   8.061   9.138  10.448
24049SOL    HW174044   8.109   9.186  10.380
24049SOL    HW274045   8.014   9.070  10.401
24050SOL     OW74046   9.516   2.421   7.584
24050SOL    HW174047   9.598   2.470   7.593
24050SOL    HW274048   9.461   2.476   7.528
24051SOL     OW74049   4.994  11.864   4.539
24051SOL    HW174050   4.997  11.768   4.537
24051SOL    HW274051   4.901  11.885   4.539
24052SOL     OW74052  13.456   5.277   9.983
24052SOL    HW174053  13.432   5.199  10.033
24052SOL    HW274054  13.493   5.337  10.048
24053SOL     OW74055   4.593  13.796   0.198
24053SOL    HW174056   4.597  13.885   0.165
24053SOL    HW274057   4.627  13.802   0.287
24054SOL     OW74058   5.360   7.587   7.896
24054SOL    HW174059   5.278   7.538   7.887
24054SOL    HW274060   5.332   7.678   7.905
24055SOL     OW74061  13.637   6.062   4.613
24055SOL    HW174062  13.641   6.156   4.596
24055SOL    HW274063  13.579   6.028   4.545
24056SOL     OW74064   3.133   6.211  11.787
24056SOL    HW174065   3.216   6.219  11.740
24056SOL    HW274066   3.128   6.291  11.839
24057SOL     OW74067   5.440   1.622   2.101
24057SOL    HW174068   5.480   1.698   2.059
24057SOL    HW274069   5.366   1.599   2.044
24058SOL     OW74070   1.743   6.743   3.827
24058SOL    HW174071   1.838   6.738   3.840
24058SOL    HW274072   1.708   6.673   3.881
24059SOL     OW74073   5.717  14.342   7.545
24059SOL    HW174074   5.740  14.427   7.581
24059SOL    HW274075   5.665  14.300   7.614
24060SOL     OW74076   0.659  11.268   9.961
24060SOL    HW174077   0.653  11.265  10.056
24060SOL    HW274078   0.671  11.360   9.939
24061SOL     OW74079   7.658  14.814   9.578
24061SOL    HW174080   7.637   0.004   9.517
24061SOL    HW274081   7.749  14.830   9.602
24062SOL     OW74082   7.616  12.631   2.441
24062SOL    HW174083   7.655  12.633   2.528
24062SOL    HW274084   7.661  12.702   2.394
24063SOL     OW74085   7.188  12.971  11.330
24063SOL    HW174086   7.273  12.933  11.350
24063SOL    HW274087   7.127  12.897  11.334
24064SOL     OW74088   9.870   2.622   0.854
24064SOL    HW174089   9.932   2.685   0.891
24064SOL    HW274090   9.809   2.603   0.925
24065SOL     OW74091  11.657  11.681   0.293
24065SOL    HW174092  11.637  11.623   0.220
24065SOL    HW274093  11.682  11.764   0.252
24066SOL     OW74094   0.069   2.975   0.495
24066SOL    HW174095   0.008   2.952   0.424
24066SOL    HW274096   0.110   2.892   0.518
24067SOL     OW74097  14.307  14.544   5.203
24067SOL    HW174098  14.335  14.455   5.185
24067SOL    HW274099  14.380  14.584   5.250
24068SOL     OW74100   9.958   1.966   8.168
24068SOL    HW174101   9.921   1.891   8.215
24068SOL    HW274102  10.052   1.962   8.186
24069SOL     OW74103   4.372   9.218   5.330
24069SOL    HW174104   4.460   9.222   5.292
24069SOL    HW274105   4.385   9.172   5.413
24070SOL     OW74106   4.882  13.395   8.966
24070SOL    HW174107   4.949  13.337   9.001
24070SOL    HW274108   4.901  13.481   9.004
24071SOL     OW74109  12.422   6.635   9.720
24071SOL    HW174110  12.348   6.622   9.780
24071SOL    HW274111  12.451   6.724   9.737
24072SOL     OW74112  11.631  10.488   6.916
24072SOL    HW174113  11.724  10.473   6.935
24072SOL    HW274114  11.628  10.499   6.821
24073SOL     OW74115   6.887   7.330   9.924
24073SOL    HW174116   6.907   7.245   9.885
24073SOL    HW274117   6.942   7.335  10.001
24074SOL     OW74118   2.065   7.705   8.964
24074SOL    HW174119   2.020   7.715   8.880
24074SOL    HW274120   1.999   7.727   9.029
24075SOL     OW74121  11.279   3.406  14.804
24075SOL    HW174122  11.201   3.362  14.772
24075SOL    HW274123  11.307   3.462  14.732
24076SOL     OW74124   5.834   9.133  14.625
24076SOL    HW174125   5.869   9.050  14.657
24076SOL    HW274126   5.765   9.107  14.563
24077SOL     OW74127  12.916  12.158   9.487
24077SOL    HW174128  12.880  12.161   9.399
24077SOL    HW274129  13.008  12.183   9.477
24078SOL     OW74130   2.979   4.879   2.398
24078SOL    HW174131   2.920   4.954   2.405
24078SOL    HW274132   2.981   4.860   2.304
24079SOL     OW74133   6.749   6.752   1.788
24079SOL    HW174134   6.745   6.675   1.844
24079SOL    HW274135   6.834   6.745   1.744
24080SOL     OW74136   9.149   1.882   6.805
24080SOL    HW174137   9.102   1.897   6.888
24080SOL    HW274138   9.084   1.842   6.747
24081SOL     OW74139   6.507  11.955   9.640
24081SOL    HW174140   6.456  11.991   9.567
24081SOL    HW274141   6.492  11.861   9.634
24082SOL     OW74142   1.917   6.260  13.558
24082SOL    HW174143   1.963   6.263  13.475
24082SOL    HW274144   1.843   6.319  13.547
24083SOL     OW74145   0.023   5.058   4.987
24083SOL    HW174146  14.876   4.968   4.975
24083SOL    HW274147   0.005   5.076   5.080
24084SOL     OW74148  10.665  14.060   8.801
24084SOL    HW174149  10.580  14.020   8.784
24084SOL    HW274150  10.674  14.127   8.734
24085SOL     OW74151   7.636   9.597  10.318
24085SOL    HW174152   7.698   9.562  10.253
24085SOL    HW274153   7.691   9.644  10.380
24086SOL     OW74154   3.262  10.240   7.600
24086SOL    HW174155   3.197  10.177   7.633
24086SOL    HW274156   3.248  10.319   7.652
24087SOL     OW74157  14.685  11.037   9.927
24087SOL    HW174158  14.608  10.998   9.968
24087SOL    HW274159  14.684  11.128   9.956
24088SOL     OW74160   0.928  11.955   5.538
24088SOL    HW174161   0.843  11.914   5.554
24088SOL    HW274162   0.936  12.022   5.605
24089SOL     OW74163   0.563   2.646   6.107
24089SOL    HW174164   0.593   2.673   6.194
24089SOL    HW274165   0.476   2.608   6.122
24090SOL     OW74166  14.243  13.308  12.407
24090SOL    HW174167  14.287  13.289  12.324
24090SOL    HW274168  14.150  13.295  12.388
24091SOL     OW74169  12.560   7.172   0.399
24091SOL    HW174170  12.618   7.228   0.349
24091SOL    HW274171  12.484   7.228   0.419
24092SOL     OW74172  11.327   4.669   9.450
24092SOL    HW174173  11.325   4.718   9.532
24092SOL    HW274174  11.247   4.695   9.405
24093SOL     OW74175   2.294   9.929   9.381
24093SOL    HW174176   2.334   9.865   9.439
24093SOL    HW274177   2.297  10.011   9.430
24094SOL     OW74178   9.928   2.986  11.403
24094SOL    HW174179   9.854   2.927  11.390
24094SOL    HW274180   9.931   3.040  11.325
24095SOL     OW74181  12.831   5.803   6.926
24095SOL    HW174182  12.821   5.713   6.955
24095SOL    HW274183  12.842   5.797   6.831
24096SOL     OW74184  12.804   3.906   9.833
24096SOL    HW174185  12.709   3.898   9.837
24096SOL    HW274186  12.820   3.999   9.815
24097SOL     OW74187  10.807   8.866   2.906
24097SOL    HW174188  10.737   8.803   2.892
24097SOL    HW274189  10.851   8.834   2.985
24098SOL     OW74190  13.205   1.590   8.978
24098SOL    HW174191  13.266   1.529   8.937
24098SOL    HW274192  13.254   1.627   9.051
24099SOL     OW74193   8.457  13.945   1.507
24099SOL    HW174194   8.422  13.875   1.452
24099SOL    HW274195   8.414  13.933   1.591
24100SOL     OW74196   0.270   0.270   7.564
24100SOL    HW174197   0.216   0.219   7.625
24100SOL    HW274198   0.261   0.224   7.481
24101SOL     OW74199   3.799   6.371   7.296
24101SOL    HW174200   3.833   6.329   7.375
24101SOL    HW274201   3.706   6.351   7.296
24102SOL     OW74202   1.285   9.136  11.888
24102SOL    HW174203   1.308   9.047  11.863
24102SOL    HW274204   1.369   9.183  11.888
24103SOL     OW74205   7.845  13.647   5.844
24103SOL    HW174206   7.766  13.690   5.813
24103SOL    HW274207   7.832  13.637   5.938
24104SOL     OW74208   2.112   8.603   8.197
24104SOL    HW174209   2.169   8.680   8.191
24104SOL    HW274210   2.059   8.608   8.118
24105SOL     OW74211   6.060  11.143   5.131
24105SOL    HW174212   6.093  11.081   5.196
24105SOL    HW274213   6.138  11.191   5.102
24106SOL     OW74214   8.795   8.725   4.301
24106SOL    HW174215   8.871   8.765   4.342
24106SOL    HW274216   8.822   8.635   4.281
24107SOL     OW74217   8.043   2.221   3.248
24107SOL    HW174218   8.127   2.221   3.202
24107SOL    HW274219   8.011   2.311   3.240
24108SOL     OW74220   8.697   0.834  12.584
24108SOL    HW174221   8.785   0.803  12.605
24108SOL    HW274222   8.642   0.756  12.588
24109SOL     OW74223   2.825  14.760  12.308
24109SOL    HW174224   2.872  14.726  12.384
24109SOL    HW274225   2.770  14.830  12.343
24110SOL     OW74226   1.336   1.082   0.442
24110SOL    HW174227   1.411   1.127   0.481
24110SOL    HW274228   1.338   0.994   0.481
24111SOL     OW74229   1.457  12.415   4.784
24111SOL    HW174230   1.474  12.499   4.826
24111SOL    HW274231   1.526  12.357   4.816
24112SOL     OW74232   8.205   4.005  14.183
24112SOL    HW174233   8.187   4.079  14.241
24112SOL    HW274234   8.141   4.014  14.112
24113SOL     OW74235   5.784   8.009   6.106
24113SOL    HW174236   5.847   7.976   6.170
24113SOL    HW274237   5.743   8.084   6.148
24114SOL     OW74238  10.613   8.815   1.439
24114SOL    HW174239  10.665   8.746   1.479
24114SOL    HW274240  10.677   8.881   1.412
24115SOL     OW74241   0.658   6.413   3.137
24115SOL    HW174242   0.677   6.420   3.044
24115SOL    HW274243   0.725   6.355   3.171
24116SOL     OW74244  13.060   5.534  12.905
24116SOL    HW174245  13.000   5.467  12.939
24116SOL    HW274246  13.019   5.565  12.825
24117SOL     OW74247   8.537   1.900   1.364
24117SOL    HW174248   8.604   1.904   1.432
24117SOL    HW274249   8.473   1.837   1.397
24118SOL     OW74250   6.085   1.632  10.942
24118SOL    HW174251   6.066   1.711  10.993
24118SOL    HW274252   6.171   1.649  10.903
24119SOL     OW74253   2.528  10.208  13.682
24119SOL    HW174254   2.501  10.222  13.773
24119SOL    HW274255   2.453  10.236  13.630
24120SOL     OW74256   4.671   4.426   1.702
24120SOL    HW174257   4.603   4.485   1.671
24120SOL    HW274258   4.631   4.378   1.774
24121SOL     OW74259  11.400   3.768  12.852
24121SOL    HW174260  11.426   3.677  12.862
24121SOL    HW274261  11.337   3.767  12.780
24122SOL     OW74262  12.236  10.629   3.439
24122SOL    HW174263  12.210  10.542   3.408
24122SOL    HW274264  12.321  10.644   3.399
24123SOL     OW74265   9.772   5.134   2.525
24123SOL    HW174266   9.811   5.106   2.442
24123SOL    HW274267   9.781   5.229   2.524
24124SOL     OW74268   9.821  14.525  14.468
24124SOL    HW174269   9.890  14.589  14.485
24124SOL    HW274270   9.833  14.458  14.535
24125SOL     OW74271   2.423   5.292   6.110
24125SOL    HW174272   2.499   5.350   6.120
24125SOL    HW274273   2.430   5.261   6.020
24126SOL     OW74274   5.706   1.515   3.133
24126SOL    HW174275   5.787   1.499   3.083
24126SOL    HW274276   5.713   1.457   3.209
24127SOL     OW74277   8.221   0.538  12.877
24127SOL    HW174278   8.301   0.494  12.848
24127SOL    HW274279   8.249   0.592  12.951
24128SOL     OW74280   1.198   6.963   7.131
24128SOL    HW174281   1.196   7.047   7.178
24128SOL    HW274282   1.140   6.976   7.056
24129SOL     OW74283   5.963  12.758   6.642
24129SOL    HW174284   5.931  12.826   6.701
24129SOL    HW274285   5.973  12.803   6.558
24130SOL     OW74286   3.595   8.827   7.439
24130SOL    HW174287   3.688   8.806   7.448
24130SOL    HW274288   3.553   8.743   7.418
24131SOL     OW74289   8.298   0.643   4.512
24131SOL    HW174290   8.203   0.651   4.514
24131SOL    HW274291   8.317   0.592   4.434
24132SOL     OW74292  13.137  10.527   6.013
24132SOL    HW174293  13.049  10.551   5.985
24132SOL    HW274294  13.130  10.516   6.108
24133SOL     OW74295   5.100   4.250   9.650
24133SOL    HW174296   5.192   4.225   9.648
24133SOL    HW274297   5.096   4.321   9.714
24134SOL     OW74298   0.284   4.554  10.447
24134SOL    HW174299   0.376   4.579  10.449
24134SOL    HW274300   0.250   4.580  10.533
24135SOL     OW74301   0.632   3.493   0.242
24135SOL    HW174302   0.728   3.488   0.247
24135SOL    HW274303   0.613   3.499   0.148
24136SOL     OW74304   1.460   9.164   2.448
24136SOL    HW174305   1.488   9.148   2.538
24136SOL    HW274306   1.500   9.093   2.397
24137SOL     OW74307   4.551   3.995   2.949
24137SOL    HW174308   4.599   3.939   2.889
24137SOL    HW274309   4.481   4.033   2.895
24138SOL     OW74310   9.597   1.637   6.587
24138SOL    HW174311   9.644   1.621   6.669
24138SOL    HW274312   9.506   1.649   6.613
24139SOL     OW74313   7.104   6.428   4.327
24139SOL    HW174314   7.126   6.500   4.268
24139SOL    HW274315   7.126   6.349   4.279
24140SOL     OW74316   2.870   6.625   9.066
24140SOL    HW174317   2.854   6.709   9.109
24140SOL    HW274318   2.966   6.616   9.065
24141SOL     OW74319  11.986  14.243   6.157
24141SOL    HW174320  11.968  14.335   6.174
24141SOL    HW274321  11.938  14.223   6.077
24142SOL     OW74322   5.511  10.017  11.271
24142SOL    HW174323   5.460  10.082  11.222
24142SOL    HW274324   5.484   9.933  11.233
24143SOL     OW74325  12.516  10.892  11.587
24143SOL    HW174326  12.549  10.899  11.498
24143SOL    HW274327  12.539  10.975  11.628
24144SOL     OW74328   9.549  13.458  11.974
24144SOL    HW174329   9.554  13.411  11.891
24144SOL    HW274330   9.641  13.472  11.999
24145SOL     OW74331  13.427   8.881   6.429
24145SOL    HW174332  13.428   8.975   6.410
24145SOL    HW274333  13.481   8.872   6.507
24146SOL     OW74334   4.477   8.288   5.823
24146SOL    HW174335   4.387   8.314   5.809
24146SOL    HW274336   4.494   8.220   5.758
24147SOL     OW74337   5.773   5.026   5.188
24147SOL    HW174338   5.728   4.956   5.142
24147SOL    HW274339   5.850   4.984   5.228
24148SOL     OW74340  10.441  11.011  13.104
24148SOL    HW174341  10.433  10.994  13.010
24148SOL    HW274342  10.450  10.925  13.144
24149SOL     OW74343   9.724   3.091  11.602
24149SOL    HW174344   9.803   3.047  11.570
24149SOL    HW274345   9.751   3.131  11.685
24150SOL     OW74346  10.153   1.301   5.495
24150SOL    HW174347  10.223   1.331   5.553
24150SOL    HW274348  10.076   1.296   5.552
24151SOL     OW74349   9.805   8.861   8.517
24151SOL    HW174350   9.872   8.809   8.473
24151SOL    HW274351   9.787   8.815   8.598
24152SOL     OW74352   2.277   9.617   3.386
24152SOL    HW174353   2.312   9.645   3.301
24152SOL    HW274354   2.184   9.637   3.382
24153SOL     OW74355   5.720  14.814   7.478
24153SOL    HW174356   5.709  14.832   7.384
24153SOL    HW274357   5.813  14.828   7.495
24154SOL     OW74358   4.709  11.284  13.844
24154SOL    HW174359   4.785  11.342  13.844
24154SOL    HW274360   4.633  11.343  13.841
24155SOL     OW74361   2.950  12.657   6.388
24155SOL    HW174362   3.023  12.719   6.395
24155SOL    HW274363   2.872  12.713   6.387
24156SOL     OW74364   9.181   0.802   3.457
24156SOL    HW174365   9.248   0.870   3.458
24156SOL    HW274366   9.223   0.728   3.412
24157SOL     OW74367   9.844  13.369   2.978
24157SOL    HW174368   9.821  13.311   3.050
24157SOL    HW274369   9.798  13.331   2.902
24158SOL     OW74370  10.872  13.588   7.379
24158SOL    HW174371  10.814  13.558   7.448
24158SOL    HW274372  10.813  13.624   7.312
24159SOL     OW74373  13.678   7.096   7.714
24159SOL    HW174374  13.585   7.107   7.732
24159SOL    HW274375  13.712   7.047   7.790
24160SOL     OW74376  11.415   6.983   6.767
24160SOL    HW174377  11.468   6.981   6.688
24160SOL    HW274378  11.377   7.071   6.769
24161SOL     OW74379  13.350  11.564   0.791
24161SOL    HW174380  13.361  11.648   0.835
24161SOL    HW274381  13.351  11.500   0.862
24162SOL     OW74382   4.357  11.563   4.822
24162SOL    HW174383   4.264  11.541   4.824
24162SOL    HW274384   4.399  11.485   4.786
24163SOL     OW74385   6.040   3.548  10.358
24163SOL    HW174386   6.027   3.613  10.427
24163SOL    HW274387   6.115   3.496  10.387
24164SOL     OW74388   4.136   5.819  10.241
24164SOL    HW174389   4.196   5.892  10.224
24164SOL    HW274390   4.049   5.860  10.245
24165SOL     OW74391   8.693  12.700  13.380
24165SOL    HW174392   8.605  12.664  13.375
24165SOL    HW274393   8.747  12.639  13.330
24166SOL     OW74394   9.193  13.959  10.419
24166SOL    HW174395   9.247  13.970  10.340
24166SOL    HW274396   9.147  13.876  10.405
24167SOL     OW74397  14.335  12.413   7.393
24167SOL    HW174398  14.409  12.465   7.364
24167SOL    HW274399  14.329  12.341   7.331
24168SOL     OW74400  11.908  13.171   9.900
24168SOL    HW174401  11.889  13.262   9.923
24168SOL    HW274402  11.875  13.161   9.811
24169SOL     OW74403   4.111   1.660   0.850
24169SOL    HW174404   4.199   1.696   0.843
24169SOL    HW274405   4.074   1.669   0.763
24170SOL     OW74406  13.858  14.544   0.677
24170SOL    HW174407  13.788  14.477   0.678
24170SOL    HW274408  13.811  14.627   0.678
24171SOL     OW74409   1.019  13.273   3.907
24171SOL    HW174410   1.052  13.206   3.848
24171SOL    HW274411   0.985  13.341   3.849
24172SOL     OW74412  14.743  13.442  10.008
24172SOL    HW174413  14.777  13.395   9.931
24172SOL    HW274414  14.654  13.407  10.020
24173SOL     OW74415   2.757   3.649   5.373
24173SOL    HW174416   2.671   3.633   5.335
24173SOL    HW274417   2.815   3.661   5.297
24174SOL     OW74418   4.980  12.653  13.467
24174SOL    HW174419   5.068  12.688  13.482
24174SOL    HW274420   4.934  12.667  13.549
24175SOL     OW74421   4.681  10.230  11.244
24175SOL    HW174422   4.596  10.265  11.272
24175SOL    HW274423   4.663  10.192  11.158
24176SOL     OW74424  13.778  12.410  11.678
24176SOL    HW174425  13.696  12.362  11.686
24176SOL    HW274426  13.824  12.366  11.606
24177SOL     OW74427  13.219   6.600   5.998
24177SOL    HW174428  13.199   6.659   5.926
24177SOL    HW274429  13.195   6.648   6.077
24178SOL     OW74430  11.945   7.564  13.291
24178SOL    HW174431  11.992   7.646  13.276
24178SOL    HW274432  11.855   7.582  13.263
24179SOL     OW74433   6.310   0.597   7.562
24179SOL    HW174434   6.256   0.519   7.553
24179SOL    HW274435   6.401   0.565   7.558
24180SOL     OW74436  12.136   0.293  11.652
24180SOL    HW174437  12.060   0.265  11.601
24180SOL    HW274438  12.180   0.357  11.596
24181SOL     OW74439   1.675   1.016   9.366
24181SOL    HW174440   1.668   0.996   9.272
24181SOL    HW274441   1.741   1.085   9.372
24182SOL     OW74442   9.712   2.555   6.397
24182SOL    HW174443   9.738   2.475   6.351
24182SOL    HW274444   9.631   2.583   6.354
24183SOL     OW74445   2.208   3.605  11.816
24183SOL    HW174446   2.213   3.648  11.901
24183SOL    HW274447   2.299   3.596  11.788
24184SOL     OW74448  14.254   1.257   1.052
24184SOL    HW174449  14.249   1.322   1.122
24184SOL    HW274450  14.296   1.181   1.092
24185SOL     OW74451  10.426   5.649   4.575
24185SOL    HW174452  10.377   5.617   4.499
24185SOL    HW274453  10.370   5.717   4.613
24186SOL     OW74454   1.538  14.880  10.683
24186SOL    HW174455   1.464   0.011  10.624
24186SOL    HW274456   1.500  14.844  10.763
24187SOL     OW74457   7.037   4.144   0.439
24187SOL    HW174458   6.983   4.094   0.500
24187SOL    HW274459   6.986   4.147   0.358
24188SOL     OW74460   6.905   9.755   5.244
24188SOL    HW174461   6.815   9.762   5.276
24188SOL    HW274462   6.899   9.696   5.169
24189SOL     OW74463  11.076  11.879  12.678
24189SOL    HW174464  10.985  11.901  12.701
24189SOL    HW274465  11.073  11.858  12.585
24190SOL     OW74466   9.924   3.767   6.655
24190SOL    HW174467  10.003   3.717   6.631
24190SOL    HW274468   9.905   3.740   6.744
24191SOL     OW74469   7.510  14.661   7.617
24191SOL    HW174470   7.537  14.581   7.662
24191SOL    HW274471   7.558  14.660   7.535
24192SOL     OW74472   7.712   3.043   1.993
24192SOL    HW174473   7.680   2.956   1.970
24192SOL    HW274474   7.798   3.049   1.951
24193SOL     OW74475   2.180  11.556  12.299
24193SOL    HW174476   2.157  11.587  12.212
24193SOL    HW274477   2.097  11.538  12.342
24194SOL     OW74478   5.711   7.396   0.458
24194SOL    HW174479   5.783   7.398   0.394
24194SOL    HW274480   5.664   7.315   0.439
24195SOL     OW74481   3.855  12.190  14.147
24195SOL    HW174482   3.784  12.242  14.183
24195SOL    HW274483   3.857  12.213  14.054
24196SOL     OW74484   3.071   4.727   4.137
24196SOL    HW174485   2.995   4.698   4.086
24196SOL    HW274486   3.146   4.689   4.091
24197SOL     OW74487   9.478   5.274   0.631
24197SOL    HW174488   9.480   5.309   0.542
24197SOL    HW274489   9.419   5.200   0.627
24198SOL     OW74490   3.512   8.012  12.761
24198SOL    HW174491   3.470   7.983  12.842
24198SOL    HW274492   3.489   7.944  12.697
24199SOL     OW74493   5.923  13.866   9.050
24199SOL    HW174494   5.841  13.836   9.092
24199SOL    HW274495   5.920  13.961   9.056
24200SOL     OW74496  12.490   2.518  12.806
24200SOL    HW174497  12.425   2.483  12.867
24200SOL    HW274498  12.534   2.441  12.771
24201SOL     OW74499  12.264   6.512  14.324
24201SOL    HW174500  12.262   6.424  14.285
24201SOL    HW274501  12.356   6.526  14.346
24202SOL     OW74502   1.786   5.003   7.648
24202SOL    HW174503   1.819   4.969   7.564
24202SOL    HW274504   1.692   5.010   7.636
24203SOL     OW74505   1.452  14.241   0.821
24203SOL    HW174506   1.435  14.159   0.867
24203SOL    HW274507   1.513  14.289   0.877
24204SOL     OW74508   9.784   8.539   2.205
24204SOL    HW174509   9.775   8.467   2.268
24204SOL    HW274510   9.845   8.505   2.139
24205SOL     OW74511   8.759   8.192   3.231
24205SOL    HW174512   8.681   8.203   3.177
24205SOL    HW274513   8.778   8.099   3.229
24206SOL     OW74514   8.882   5.082   7.406
24206SOL    HW174515   8.825   5.158   7.424
24206SOL    HW274516   8.821   5.009   7.395
24207SOL     OW74517   8.229   9.815   1.833
24207SOL    HW174518   8.232   9.850   1.921
24207SOL    HW274519   8.235   9.891   1.776
24208SOL     OW74520  13.772  11.877   2.972
24208SOL    HW174521  13.690  11.855   2.927
24208SOL    HW274522  13.832  11.806   2.948
24209SOL     OW74523   2.251  11.148   3.633
24209SOL    HW174524   2.175  11.199   3.662
24209SOL    HW274525   2.301  11.133   3.713
24210SOL     OW74526   8.305   4.705   2.827
24210SOL    HW174527   8.311   4.791   2.786
24210SOL    HW274528   8.255   4.720   2.908
24211SOL     OW74529  12.214   7.709   7.246
24211SOL    HW174530  12.297   7.739   7.282
24211SOL    HW274531  12.211   7.616   7.269
24212SOL     OW74532   5.546   9.365  13.960
24212SOL    HW174533   5.628   9.337  13.919
24212SOL    HW274534   5.560   9.354  14.054
24213SOL     OW74535   4.713   4.939  10.470
24213SOL    HW174536   4.719   4.935  10.566
24213SOL    HW274537   4.621   4.958  10.453
24214SOL     OW74538   9.478   7.370   9.811
24214SOL    HW174539   9.563   7.335   9.838
24214SOL    HW274540   9.463   7.332   9.724
24215SOL     OW74541   4.612  13.009  11.204
24215SOL    HW174542   4.642  13.075  11.266
24215SOL    HW274543   4.581  13.059  11.129
24216SOL     OW74544  11.608   1.502   4.917
24216SOL    HW174545  11.588   1.425   4.970
24216SOL    HW274546  11.678   1.472   4.858
24217SOL     OW74547   3.754   5.017   8.012
24217SOL    HW174548   3.842   5.021   8.051
24217SOL    HW274549   3.695   5.036   8.084
24218SOL     OW74550  10.197   0.465   2.286
24218SOL    HW174551  10.213   0.425   2.201
24218SOL    HW274552  10.202   0.392   2.349
24219SOL     OW74553   0.462  12.787   6.522
24219SOL    HW174554   0.408  12.824   6.453
24219SOL    HW274555   0.431  12.697   6.532
24220SOL     OW74556   7.962   7.639   6.858
24220SOL    HW174557   8.004   7.593   6.786
24220SOL    HW274558   8.009   7.610   6.936
24221SOL     OW74559  14.015   4.756   6.139
24221SOL    HW174560  13.950   4.711   6.084
24221SOL    HW274561  14.082   4.689   6.156
24222SOL     OW74562  11.053   4.433  10.804
24222SOL    HW174563  11.142   4.465  10.820
24222SOL    HW274564  11.004   4.458  10.882
24223SOL     OW74565   9.136   0.921  11.972
24223SOL    HW174566   9.154   0.962  12.056
24223SOL    HW274567   9.047   0.886  11.981
24224SOL     OW74568  14.489   3.075   6.041
24224SOL    HW174569  14.475   3.076   6.135
24224SOL    HW274570  14.436   3.002   6.010
24225SOL     OW74571  13.334   0.669   2.484
24225SOL    HW174572  13.239   0.671   2.490
24225SOL    HW274573  13.361   0.606   2.551
24226SOL     OW74574   4.915   6.272   1.824
24226SOL    HW174575   4.870   6.333   1.882
24226SOL    HW274576   4.910   6.188   1.869
24227SOL     OW74577   9.655   2.291  13.226
24227SOL    HW174578   9.726   2.305  13.288
24227SOL    HW274579   9.698   2.254  13.149
24228SOL     OW74580   8.909   1.345   5.070
24228SOL    HW174581   8.959   1.388   5.001
24228SOL    HW274582   8.878   1.416   5.126
24229SOL     OW74583  14.080  13.190   1.668
24229SOL    HW174584  14.136  13.191   1.745
24229SOL    HW274585  13.997  13.153   1.700
24230SOL     OW74586   7.462   0.680   5.383
24230SOL    HW174587   7.524   0.711   5.317
24230SOL    HW274588   7.504   0.605   5.423
24231SOL     OW74589  11.746   1.110   1.136
24231SOL    HW174590  11.700   1.109   1.220
24231SOL    HW274591  11.785   1.023   1.129
24232SOL     OW74592  13.979  12.146   5.775
24232SOL    HW174593  13.899  12.104   5.746
24232SOL    HW274594  14.042  12.131   5.705
24233SOL     OW74595   0.430   1.692   0.464
24233SOL    HW174596   0.457   1.622   0.523
24233SOL    HW274597   0.508   1.746   0.454
24234SOL     OW74598   1.177   9.371   1.603
24234SOL    HW174599   1.231   9.305   1.645
24234SOL    HW274600   1.137   9.419   1.675
24235SOL     OW74601   1.802   4.279   9.593
24235SOL    HW174602   1.750   4.344   9.641
24235SOL    HW274603   1.763   4.195   9.617
24236SOL     OW74604   5.272   4.582   5.137
24236SOL    HW174605   5.335   4.524   5.095
24236SOL    HW274606   5.260   4.546   5.225
24237SOL     OW74607   6.859   2.701   2.141
24237SOL    HW174608   6.824   2.790   2.141
24237SOL    HW274609   6.822   2.661   2.220
24238SOL     OW74610   7.199  12.916   3.765
24238SOL    HW174611   7.211  12.869   3.848
24238SOL    HW274612   7.166  13.002   3.790
24239SOL     OW74613  14.655   0.904   7.053
24239SOL    HW174614  14.655   0.988   7.099
24239SOL    HW274615  14.574   0.904   7.003
24240SOL     OW74616   4.427   9.163   7.245
24240SOL    HW174617   4.464   9.076   7.232
24240SOL    HW274618   4.378   9.181   7.165
24241SOL     OW74619   3.900   6.510   5.210
24241SOL    HW174620   3.893   6.415   5.219
24241SOL    HW274621   3.984   6.524   5.168
24242SOL     OW74622   1.033  10.998   7.658
24242SOL    HW174623   1.082  10.922   7.625
24242SOL    HW274624   0.948  10.962   7.685
24243SOL     OW74625   7.878   7.395  13.026
24243SOL    HW174626   7.922   7.479  13.041
24243SOL    HW274627   7.863   7.360  13.114
24244SOL     OW74628   2.047   7.562   7.209
24244SOL    HW174629   2.012   7.487   7.256
24244SOL    HW274630   2.131   7.579   7.250
24245SOL     OW74631  12.479   2.150   0.338
24245SOL    HW174632  12.535   2.076   0.313
24245SOL    HW274633  12.412   2.112   0.394
24246SOL     OW74634  12.278   0.610   8.089
24246SOL    HW174635  12.344   0.569   8.144
24246SOL    HW274636  12.311   0.699   8.075
24247SOL     OW74637   1.112   8.065  10.846
24247SOL    HW174638   1.068   8.095  10.766
24247SOL    HW274639   1.165   8.140  10.873
24248SOL     OW74640   5.131  11.499   1.561
24248SOL    HW174641   5.161  11.417   1.599
24248SOL    HW274642   5.060  11.475   1.502
24249SOL     OW74643   1.803   3.057  14.575
24249SOL    HW174644   1.782   2.968  14.606
24249SOL    HW274645   1.735   3.112  14.612
24250SOL     OW74646   9.762  13.454  12.352
24250SOL    HW174647   9.834  13.510  12.381
24250SOL    HW274648   9.735  13.406  12.431
24251SOL     OW74649   7.103   1.243  13.943
24251SOL    HW174650   7.087   1.196  13.861
24251SOL    HW274651   7.154   1.320  13.917
24252SOL     OW74652  13.000   7.781   3.738
24252SOL    HW174653  13.052   7.852   3.701
24252SOL    HW274654  13.061   7.708   3.748
24253SOL     OW74655  11.009  13.134  12.459
24253SOL    HW174656  11.050  13.178  12.384
24253SOL    HW274657  11.021  13.194  12.532
24254SOL     OW74658  12.225   5.287   0.791
24254SOL    HW174659  12.206   5.308   0.700
24254SOL    HW274660  12.250   5.195   0.790
24255SOL     OW74661  12.160  12.482   5.554
24255SOL    HW174662  12.084  12.442   5.596
24255SOL    HW274663  12.186  12.553   5.614
24256SOL     OW74664  10.793   4.862   6.481
24256SOL    HW174665  10.792   4.854   6.576
24256SOL    HW274666  10.711   4.907   6.460
24257SOL     OW74667   4.593   7.466   1.045
24257SOL    HW174668   4.599   7.391   1.105
24257SOL    HW274669   4.681   7.504   1.046
24258SOL     OW74670   5.011  12.256   8.347
24258SOL    HW174671   5.003  12.276   8.441
24258SOL    HW274672   4.924  12.273   8.312
24259SOL     OW74673   7.106   7.534   7.874
24259SOL    HW174674   7.117   7.557   7.966
24259SOL    HW274675   7.180   7.477   7.853
24260SOL     OW74676   2.613  14.338   7.970
24260SOL    HW174677   2.698  14.295   7.965
24260SOL    HW274678   2.633  14.431   7.983
24261SOL     OW74679  12.065  13.028   8.888
24261SOL    HW174680  12.153  13.029   8.925
24261SOL    HW274681  12.010  12.997   8.960
24262SOL     OW74682   1.080   2.525   7.482
24262SOL    HW174683   1.086   2.464   7.555
24262SOL    HW274684   1.071   2.469   7.404
24263SOL     OW74685   8.098   9.310   4.698
24263SOL    HW174686   8.098   9.378   4.631
24263SOL    HW274687   8.181   9.321   4.744
24264SOL     OW74688   5.525   0.198  10.497
24264SOL    HW174689   5.585   0.271  10.479
24264SOL    HW274690   5.535   0.183  10.591
24265SOL     OW74691   6.182   3.895   5.011
24265SOL    HW174692   6.109   3.845   4.974
24265SOL    HW274693   6.210   3.844   5.087
24266SOL     OW74694   3.122  12.431   7.336
24266SOL    HW174695   3.136  12.416   7.242
24266SOL    HW274696   3.092  12.522   7.341
24267SOL     OW74697   9.767   8.851   1.980
24267SOL    HW174698   9.721   8.880   1.901
24267SOL    HW274699   9.855   8.830   1.950
24268SOL     OW74700   0.314   5.144   3.825
24268SOL    HW174701   0.248   5.147   3.894
24268SOL    HW274702   0.364   5.064   3.843
24269SOL     OW74703   4.961   0.615   2.666
24269SOL    HW174704   4.907   0.668   2.607
24269SOL    HW274705   5.049   0.622   2.630
24270SOL     OW74706  12.291   8.977   5.751
24270SOL    HW174707  12.307   8.971   5.657
24270SOL    HW274708  12.311   9.068   5.773
24271SOL     OW74709   4.847  10.317   3.669
24271SOL    HW174710   4.804  10.249   3.721
24271SOL    HW274711   4.775  10.374   3.641
24272SOL     OW74712  13.552   6.368  12.769
24272SOL    HW174713  13.522   6.324  12.849
24272SOL    HW274714  13.624   6.424  12.797
24273SOL     OW74715   5.575   6.642   0.785
24273SOL    HW174716   5.510   6.706   0.754
24273SOL    HW274717   5.656   6.693   0.792
24274SOL     OW74718   5.201   9.521  14.276
24274SOL    HW174719   5.239   9.604  14.304
24274SOL    HW274720   5.223   9.459  14.345
24275SOL     OW74721  13.743  13.024   7.663
24275SOL    HW174722  13.725  12.931   7.679
24275SOL    HW274723  13.833  13.025   7.629
24276SOL     OW74724   7.019   4.069   4.797
24276SOL    HW174725   7.005   4.162   4.777
24276SOL    HW274726   6.943   4.044   4.849
24277SOL     OW74727  13.791   3.410  12.723
24277SOL    HW174728  13.821   3.382  12.636
24277SOL    HW274729  13.737   3.337  12.754
24278SOL     OW74730   7.694   4.914  12.961
24278SOL    HW174731   7.664   4.823  12.961
24278SOL    HW274732   7.779   4.911  13.004
24279SOL     OW74733   7.523  11.087   6.092
24279SOL    HW174734   7.546  11.167   6.139
24279SOL    HW274735   7.479  11.117   6.013
24280SOL     OW74736   7.705   1.115   1.560
24280SOL    HW174737   7.613   1.133   1.583
24280SOL    HW274738   7.753   1.189   1.597
24281SOL     OW74739  11.394   1.253  11.188
24281SOL    HW174740  11.449   1.311  11.136
24281SOL    HW274741  11.313   1.302  11.203
24282SOL     OW74742  13.137   0.383   6.948
24282SOL    HW174743  13.146   0.473   6.918
24282SOL    HW274744  13.211   0.369   7.006
24283SOL     OW74745   0.211   8.890   8.494
24283SOL    HW174746   0.206   8.839   8.575
24283SOL    HW274747   0.303   8.887   8.470
24284SOL     OW74748   8.091   7.673   8.648
24284SOL    HW174749   8.175   7.628   8.657
24284SOL    HW274750   8.059   7.682   8.738
24285SOL     OW74751   7.760   7.818   9.534
24285SOL    HW174752   7.748   7.832   9.628
24285SOL    HW274753   7.686   7.863   9.493
24286SOL     OW74754   4.663   7.295   0.850
24286SOL    HW174755   4.595   7.229   0.855
24286SOL    HW274756   4.629   7.368   0.902
24287SOL     OW74757   9.468   0.760  14.629
24287SOL    HW174758   9.425   0.797  14.706
24287SOL    HW274759   9.483   0.835  14.571
24288SOL     OW74760  10.979   4.359   5.472
24288SOL    HW174761  11.069   4.329   5.488
24288SOL    HW274762  10.936   4.351   5.557
24289SOL     OW74763   0.296  13.135   9.520
24289SOL    HW174764   0.245  13.078   9.578
24289SOL    HW274765   0.230  13.188   9.475
24290SOL     OW74766   6.861  13.950   5.721
24290SOL    HW174767   6.948  13.942   5.759
24290SOL    HW274768   6.874  13.930   5.628
24291SOL     OW74769   3.756   4.805  13.049
24291SOL    HW174770   3.663   4.826  13.056
24291SOL    HW274771   3.768   4.733  13.111
24292SOL     OW74772  12.003   7.232   2.698
24292SOL    HW174773  11.914   7.243   2.668
24292SOL    HW274774  11.996   7.230   2.794
24293SOL     OW74775  13.251  13.925   7.651
24293SOL    HW174776  13.304  13.929   7.572
24293SOL    HW274777  13.264  14.010   7.693
24294SOL     OW74778   5.578   1.806   7.194
24294SOL    HW174779   5.583   1.772   7.284
24294SOL    HW274780   5.652   1.765   7.149
24295SOL     OW74781   9.664   1.782   1.896
24295SOL    HW174782   9.589   1.838   1.916
24295SOL    HW274783   9.651   1.705   1.952
24296SOL     OW74784   6.206  13.230  11.339
24296SOL    HW174785   6.176  13.142  11.362
24296SOL    HW274786   6.264  13.256  11.412
24297SOL     OW74787  11.514   8.230  10.646
24297SOL    HW174788  11.454   8.263  10.579
24297SOL    HW274789  11.476   8.145  10.671
24298SOL     OW74790   9.506   1.087   3.085
24298SOL    HW174791   9.496   1.121   2.996
24298SOL    HW274792   9.500   1.164   3.141
24299SOL     OW74793   0.147   5.929   8.984
24299SOL    HW174794   0.102   6.003   8.944
24299SOL    HW274795   0.132   5.856   8.924
24300SOL     OW74796   4.205  12.180   2.848
24300SOL    HW174797   4.194  12.249   2.782
24300SOL    HW274798   4.258  12.114   2.804
24301SOL     OW74799   8.850   4.815   0.418
24301SOL    HW174800   8.840   4.789   0.327
24301SOL    HW274801   8.935   4.859   0.422
24302SOL     OW74802  14.864  13.875   2.874
24302SOL    HW174803  14.795  13.923   2.920
24302SOL    HW274804   0.008  13.806   2.935
24303SOL     OW74805   3.891  10.645  10.359
24303SOL    HW174806   3.828  10.657  10.430
24303SOL    HW274807   3.838  10.614  10.285
24304SOL     OW74808   3.796   4.036   1.082
24304SOL    HW174809   3.837   4.102   1.026
24304SOL    HW274810   3.709   4.070   1.100
24305SOL     OW74811   1.548  12.049  14.531
24305SOL    HW174812   1.468  12.000  14.513
24305SOL    HW274813   1.570  12.091  14.448
24306SOL     OW74814   7.418  13.358   1.838
24306SOL    HW174815   7.396  13.446   1.869
24306SOL    HW274816   7.513  13.360   1.825
24307SOL     OW74817   6.841   5.578   8.359
24307SOL    HW174818   6.799   5.647   8.308
24307SOL    HW274819   6.928   5.569   8.321
24308SOL     OW74820  14.735   9.851   6.293
24308SOL    HW174821  14.792   9.920   6.328
24308SOL    HW274822  14.703   9.888   6.210
24309SOL     OW74823   3.082   5.306   8.120
24309SOL    HW174824   3.098   5.394   8.085
24309SOL    HW274825   3.046   5.257   8.047
24310SOL     OW74826   8.549  14.776  11.929
24310SOL    HW174827   8.536  14.681  11.935
24310SOL    HW274828   8.607  14.787  11.853
24311SOL     OW74829   8.356   0.567   4.959
24311SOL    HW174830   8.433   0.575   5.015
24311SOL    HW274831   8.345   0.653   4.920
24312SOL     OW74832  10.321   7.305   9.464
24312SOL    HW174833  10.346   7.321   9.373
24312SOL    HW274834  10.320   7.210   9.473
24313SOL     OW74835  10.643  14.684   7.891
24313SOL    HW174836  10.664  14.689   7.985
24313SOL    HW274837  10.727  14.665   7.850
24314SOL     OW74838   4.841   5.112   4.354
24314SOL    HW174839   4.764   5.076   4.398
24314SOL    HW274840   4.818   5.112   4.261
24315SOL     OW74841   5.317  12.188   5.000
24315SOL    HW174842   5.265  12.234   5.067
24315SOL    HW274843   5.252  12.141   4.948
24316SOL     OW74844   2.671  10.410   6.892
24316SOL    HW174845   2.593  10.466   6.894
24316SOL    HW274846   2.718  10.433   6.973
24317SOL     OW74847   4.745   6.677  13.710
24317SOL    HW174848   4.794   6.712  13.635
24317SOL    HW274849   4.782   6.722  13.786
24318SOL     OW74850   6.059  11.568   1.402
24318SOL    HW174851   6.083  11.516   1.479
24318SOL    HW274852   5.968  11.594   1.418
24319SOL     OW74853  13.028  11.463  11.412
24319SOL    HW174854  13.063  11.550  11.394
24319SOL    HW274855  13.081  11.404  11.360
24320SOL     OW74856   6.282   7.203  14.851
24320SOL    HW174857   6.187   7.202  14.857
24320SOL    HW274858   6.305   7.295  14.835
24321SOL     OW74859   6.144  12.440  14.872
24321SOL    HW174860   6.237  12.429   0.011
24321SOL    HW274861   6.142  12.446  14.776
24322SOL     OW74862   2.435   9.312   5.308
24322SOL    HW174863   2.383   9.263   5.371
24322SOL    HW274864   2.481   9.245   5.257
24323SOL     OW74865  11.952   2.520  13.315
24323SOL    HW174866  11.935   2.492  13.225
24323SOL    HW274867  11.967   2.614  13.309
24324SOL     OW74868  11.346   1.798  12.140
24324SOL    HW174869  11.340   1.769  12.049
24324SOL    HW274870  11.255   1.803  12.170
24325SOL     OW74871   4.537   0.337   7.989
24325SOL    HW174872   4.549   0.411   7.929
24325SOL    HW274873   4.539   0.376   8.076
24326SOL     OW74874  12.568   2.308   8.146
24326SOL    HW174875  12.538   2.226   8.107
24326SOL    HW274876  12.565   2.372   8.075
24327SOL     OW74877   3.806  10.065  14.446
24327SOL    HW174878   3.899  10.045  14.438
24327SOL    HW274879   3.783  10.105  14.362
24328SOL     OW74880   8.868   3.926  11.387
24328SOL    HW174881   8.962   3.940  11.396
24328SOL    HW274882   8.836   3.922  11.478
24329SOL     OW74883   1.728   3.861   2.128
24329SOL    HW174884   1.646   3.905   2.103
24329SOL    HW274885   1.767   3.835   2.044
24330SOL     OW74886   3.089   6.275  12.881
24330SOL    HW174887   3.106   6.344  12.945
24330SOL    HW274888   3.025   6.313  12.821
24331SOL     OW74889   9.081   5.313  12.584
24331SOL    HW174890   9.047   5.233  12.543
24331SOL    HW274891   9.124   5.360  12.513
24332SOL     OW74892  10.702  10.515   8.867
24332SOL    HW174893  10.627  10.456   8.859
24332SOL    HW274894  10.733  10.503   8.956
24333SOL     OW74895   8.005   1.361   5.567
24333SOL    HW174896   8.085   1.309   5.561
24333SOL    HW274897   7.944   1.305   5.616
24334SOL     OW74898   8.650   7.766   9.631
24334SOL    HW174899   8.715   7.700   9.653
24334SOL    HW274900   8.696   7.849   9.642
24335SOL     OW74901   7.953   2.927   7.629
24335SOL    HW174902   8.018   2.997   7.631
24335SOL    HW274903   8.000   2.850   7.659
24336SOL     OW74904   3.889   4.631   2.950
24336SOL    HW174905   3.847   4.614   3.034
24336SOL    HW274906   3.886   4.547   2.904
24337SOL     OW74907   5.527  10.506   8.660
24337SOL    HW174908   5.526  10.418   8.624
24337SOL    HW274909   5.499  10.496   8.751
24338SOL     OW74910  11.406  11.484  14.793
24338SOL    HW174911  11.345  11.450  14.728
24338SOL    HW274912  11.370  11.569  14.817
24339SOL     OW74913   5.282   3.892  12.104
24339SOL    HW174914   5.336   3.814  12.092
24339SOL    HW274915   5.290   3.940  12.022
24340SOL     OW74916  14.552   8.207  13.971
24340SOL    HW174917  14.593   8.293  13.982
24340SOL    HW274918  14.596   8.152  14.035
24341SOL     OW74919   6.248  12.095   4.739
24341SOL    HW174920   6.182  12.040   4.697
24341SOL    HW274921   6.256  12.060   4.828
24342SOL     OW74922   0.523   0.550   1.937
24342SOL    HW174923   0.615   0.525   1.939
24342SOL    HW274924   0.490   0.515   1.855
24343SOL     OW74925   4.365   9.310   6.602
24343SOL    HW174926   4.347   9.348   6.688
24343SOL    HW274927   4.301   9.352   6.544
24344SOL     OW74928   3.174  12.811   6.408
24344SOL    HW174929   3.245  12.868   6.379
24344SOL    HW274930   3.161  12.832   6.501
24345SOL     OW74931  11.185   0.017   5.983
24345SOL    HW174932  11.280   0.004   5.975
24345SOL    HW274933  11.165   0.086   5.920
24346SOL     OW74934   5.472  12.127   8.611
24346SOL    HW174935   5.531  12.193   8.647
24346SOL    HW274936   5.405  12.177   8.564
24347SOL     OW74937  13.998   0.054   2.005
24347SOL    HW174938  14.000  14.852   2.051
24347SOL    HW274939  13.906   0.080   2.006
24348SOL     OW74940  11.897   5.446   1.283
24348SOL    HW174941  11.905   5.383   1.355
24348SOL    HW274942  11.940   5.525   1.316
24349SOL     OW74943   7.186   5.703   6.555
24349SOL    HW174944   7.212   5.779   6.503
24349SOL    HW274945   7.269   5.659   6.576
24350SOL     OW74946  12.619   1.060   9.288
24350SOL    HW174947  12.538   1.018   9.258
24350SOL    HW274948  12.660   0.995   9.344
24351SOL     OW74949  11.425   1.160   5.654
24351SOL    HW174950  11.340   1.116   5.656
24351SOL    HW274951  11.482   1.101   5.605
24352SOL     OW74952  14.734   4.161   2.179
24352SOL    HW174953  14.695   4.081   2.214
24352SOL    HW274954  14.705   4.230   2.239
24353SOL     OW74955   0.579  10.558   0.296
24353SOL    HW174956   0.609  10.588   0.381
24353SOL    HW274957   0.488  10.587   0.292
24354SOL     OW74958  12.491   4.316   5.344
24354SOL    HW174959  12.419   4.295   5.404
24354SOL    HW274960  12.472   4.405   5.314
24355SOL     OW74961   4.596   7.209  12.223
24355SOL    HW174962   4.525   7.174  12.277
24355SOL    HW274963   4.553   7.269  12.162
24356SOL     OW74964   5.512   5.288   8.906
24356SOL    HW174965   5.491   5.277   8.813
24356SOL    HW274966   5.527   5.200   8.939
24357SOL     OW74967   8.701   6.928   3.433
24357SOL    HW174968   8.756   6.917   3.355
24357SOL    HW274969   8.741   7.002   3.480
24358SOL     OW74970  14.104   8.887   2.680
24358SOL    HW174971  14.137   8.862   2.594
24358SOL    HW274972  14.012   8.908   2.665
24359SOL     OW74973   9.460   2.492   1.691
24359SOL    HW174974   9.391   2.558   1.693
24359SOL    HW274975   9.458   2.453   1.779
24360SOL     OW74976   8.313   1.313  10.240
24360SOL    HW174977   8.389   1.282  10.191
24360SOL    HW274978   8.307   1.253  10.315
24361SOL     OW74979  14.363   2.990   2.298
24361SOL    HW174980  14.442   2.941   2.321
24361SOL    HW274981  14.384   3.031   2.214
24362SOL     OW74982  13.217   3.205   9.609
24362SOL    HW174983  13.181   3.232   9.694
24362SOL    HW274984  13.177   3.265   9.546
24363SOL     OW74985  14.169   0.756   0.251
24363SOL    HW174986  14.138   0.685   0.195
24363SOL    HW274987  14.202   0.712   0.329
24364SOL     OW74988  13.547   6.372   0.738
24364SOL    HW174989  13.546   6.305   0.806
24364SOL    HW274990  13.636   6.369   0.703
24365SOL     OW74991   9.461  10.435  12.628
24365SOL    HW174992   9.499  10.473  12.707
24365SOL    HW274993   9.481  10.341  12.635
24366SOL     OW74994   9.943   2.747   6.331
24366SOL    HW174995   9.882   2.697   6.385
24366SOL    HW274996  10.025   2.698   6.336
24367SOL     OW74997   1.297  12.231   0.985
24367SOL    HW174998   1.215  12.259   0.946
24367SOL    HW274999   1.323  12.153   0.936
24368SOL     OW75000  10.295   7.226  10.470
24368SOL    HW175001  10.265   7.308  10.510
24368SOL    HW275002  10.277   7.237  10.377
24369SOL     OW75003   7.882   2.632  12.561
24369SOL    HW175004   7.909   2.681  12.639
24369SOL    HW275005   7.937   2.667  12.491
24370SOL     OW75006   3.825   2.177   3.350
24370SOL    HW175007   3.802   2.236   3.278
24370SOL    HW275008   3.912   2.204   3.376
24371SOL     OW75009   6.020   1.850  11.084
24371SOL    HW175010   5.926   1.835  11.078
24371SOL    HW275011   6.034   1.885  11.172
24372SOL     OW75012   4.505  11.546   1.371
24372SOL    HW175013   4.548  11.630   1.355
24372SOL    HW275014   4.542  11.515   1.453
24373SOL     OW75015   0.178  14.496   7.103
24373SOL    HW175016   0.200  14.575   7.054
24373SOL    HW275017   0.261  14.449   7.112
24374SOL     OW75018  10.855  12.925  13.590
24374SOL    HW175019  10.892  12.939  13.503
24374SOL    HW275020  10.871  12.833  13.609
24375SOL     OW75021  11.396   3.464  14.410
24375SOL    HW175022  11.411   3.428  14.322
24375SOL    HW275023  11.475   3.443  14.459
24376SOL     OW75024  11.164  14.179   6.060
24376SOL    HW175025  11.106  14.233   6.007
24376SOL    HW275026  11.175  14.098   6.009
24377SOL     OW75027   9.543   9.279   5.239
24377SOL    HW175028   9.475   9.268   5.173
24377SOL    HW275029   9.497   9.316   5.315
24378SOL     OW75030   9.703   6.544  11.915
24378SOL    HW175031   9.617   6.521  11.880
24378SOL    HW275032   9.749   6.460  11.921
24379SOL     OW75033   0.967   3.054  11.006
24379SOL    HW175034   1.059   3.079  11.010
24379SOL    HW275035   0.960   2.978  11.063
24380SOL     OW75036   9.914  12.732   1.933
24380SOL    HW175037   9.852  12.662   1.913
24380SOL    HW275038   9.860  12.811   1.940
24381SOL     OW75039   5.820  11.884  13.667
24381SOL    HW175040   5.751  11.835  13.621
24381SOL    HW275041   5.833  11.837  13.749
24382SOL     OW75042   9.525   2.018   8.873
24382SOL    HW175043   9.561   2.008   8.784
24382SOL    HW275044   9.586   2.078   8.916
24383SOL     OW75045   6.307   7.499   5.081
24383SOL    HW175046   6.347   7.457   5.157
24383SOL    HW275047   6.247   7.433   5.046
24384SOL     OW75048   7.885  12.870   8.097
24384SOL    HW175049   7.884  12.871   8.002
24384SOL    HW275050   7.972  12.905   8.120
24385SOL     OW75051   1.402  11.823   9.916
24385SOL    HW175052   1.390  11.770   9.837
24385SOL    HW275053   1.485  11.868   9.903
24386SOL     OW75054  12.527   1.230   0.916
24386SOL    HW175055  12.443   1.184   0.925
24386SOL    HW275056  12.592   1.168   0.949
24387SOL     OW75057  10.559   4.603  12.239
24387SOL    HW175058  10.599   4.624  12.155
24387SOL    HW275059  10.475   4.563  12.217
24388SOL     OW75060  11.980   8.535   8.863
24388SOL    HW175061  11.951   8.626   8.871
24388SOL    HW275062  12.036   8.520   8.939
24389SOL     OW75063   1.981   6.115   7.310
24389SOL    HW175064   2.011   6.198   7.346
24389SOL    HW275065   1.897   6.099   7.353
24390SOL     OW75066   0.190   9.415   4.830
24390SOL    HW175067   0.161   9.341   4.882
24390SOL    HW275068   0.179   9.491   4.887
24391SOL     OW75069   1.433   7.308   6.379
24391SOL    HW175070   1.489   7.308   6.457
24391SOL    HW275071   1.468   7.377   6.324
24392SOL     OW75072   8.326   5.774   7.927
24392SOL    HW175073   8.346   5.758   8.020
24392SOL    HW275074   8.270   5.852   7.928
24393SOL     OW75075   4.332  14.696  12.097
24393SOL    HW175076   4.407  14.679  12.040
24393SOL    HW275077   4.363  14.675  12.185
24394SOL     OW75078   6.110   4.472  12.815
24394SOL    HW175079   6.084   4.406  12.880
24394SOL    HW275080   6.156   4.422  12.747
24395SOL     OW75081   5.799   3.703   6.792
24395SOL    HW175082   5.704   3.699   6.792
24395SOL    HW275083   5.824   3.690   6.883
24396SOL     OW75084  10.298   7.595   4.746
24396SOL    HW175085  10.357   7.655   4.700
24396SOL    HW275086  10.347   7.568   4.823
24397SOL     OW75087   3.219   6.686   8.047
24397SOL    HW175088   3.152   6.717   8.108
24397SOL    HW275089   3.179   6.610   8.003
24398SOL     OW75090   1.874   3.270  12.195
24398SOL    HW175091   1.888   3.222  12.276
24398SOL    HW275092   1.843   3.205  12.133
24399SOL     OW75093  14.687   9.882   4.740
24399SOL    HW175094  14.772   9.909   4.705
24399SOL    HW275095  14.629   9.957   4.722
24400SOL     OW75096   3.361   1.555   0.587
24400SOL    HW175097   3.329   1.596   0.667
24400SOL    HW275098   3.338   1.617   0.518
24401SOL     OW75099   2.924  12.390   8.759
24401SOL    HW175100   2.878  12.467   8.792
24401SOL    HW275101   2.877  12.365   8.680
24402SOL     OW75102   5.755  13.575   0.887
24402SOL    HW175103   5.714  13.626   0.818
24402SOL    HW275104   5.682  13.541   0.938
24403SOL     OW75105  11.601  12.175   1.486
24403SOL    HW175106  11.674  12.175   1.547
24403SOL    HW275107  11.541  12.241   1.521
24404SOL     OW75108  11.374   2.312   0.075
24404SOL    HW175109  11.366   2.277  14.869
24404SOL    HW275110  11.317   2.388   0.077
24405SOL     OW75111   2.135   4.988  14.206
24405SOL    HW175112   2.114   4.990  14.113
24405SOL    HW275113   2.222   4.948  14.211
24406SOL     OW75114   0.806   0.641   1.077
24406SOL    HW175115   0.764   0.567   1.121
24406SOL    HW275116   0.750   0.716   1.098
24407SOL     OW75117   5.807  11.183   0.673
24407SOL    HW175118   5.862  11.218   0.604
24407SOL    HW275119   5.837  11.226   0.753
24408SOL     OW75120  13.118   8.104  14.686
24408SOL    HW175121  13.097   8.197  14.687
24408SOL    HW275122  13.090   8.074  14.600
24409SOL     OW75123   9.588   6.361  12.519
24409SOL    HW175124   9.655   6.305  12.559
24409SOL    HW275125   9.634   6.407  12.448
24410SOL     OW75126   9.824   0.771  13.279
24410SOL    HW175127   9.788   0.711  13.344
24410SOL    HW275128   9.795   0.858  13.308
24411SOL     OW75129   5.326   5.080   4.160
24411SOL    HW175130   5.339   5.168   4.196
24411SOL    HW275131   5.403   5.031   4.187
24412SOL     OW75132  14.839  13.247   5.577
24412SOL    HW175133  14.829  13.202   5.493
24412SOL    HW275134   0.025  13.197   5.622
24413SOL     OW75135  11.481  11.573  13.763
24413SOL    HW175136  11.433  11.494  13.740
24413SOL    HW275137  11.565  11.565  13.717
24414SOL     OW75138   1.616  13.570  12.663
24414SOL    HW175139   1.610  13.655  12.620
24414SOL    HW275140   1.672  13.518  12.605
24415SOL     OW75141   3.344  11.645   2.007
24415SOL    HW175142   3.262  11.602   2.031
24415SOL    HW275143   3.407  11.615   2.073
24416SOL     OW75144   9.196   2.547   0.073
24416SOL    HW175145   9.147   2.466   0.090
24416SOL    HW275146   9.128   2.611   0.052
24417SOL     OW75147  13.581   5.190  12.154
24417SOL    HW175148  13.593   5.135  12.077
24417SOL    HW275149  13.487   5.185  12.172
24418SOL     OW75150   1.257   0.216  10.905
24418SOL    HW175151   1.313   0.142  10.930
24418SOL    HW275152   1.309   0.265  10.841
24419SOL     OW75153   6.523   8.139  10.529
24419SOL    HW175154   6.506   8.107  10.618
24419SOL    HW275155   6.584   8.075  10.493
24420SOL     OW75156   7.447   8.340  13.549
24420SOL    HW175157   7.382   8.284  13.590
24420SOL    HW275158   7.500   8.373  13.622
24421SOL     OW75159  12.624   6.229   8.152
24421SOL    HW175160  12.681   6.238   8.075
24421SOL    HW275161  12.670   6.275   8.222
24422SOL     OW75162   9.624   9.433   8.791
24422SOL    HW175163   9.558   9.472   8.734
24422SOL    HW275164   9.579   9.361   8.835
24423SOL     OW75165   6.038  11.059   6.515
24423SOL    HW175166   6.028  11.152   6.532
24423SOL    HW275167   6.007  11.046   6.426
24424SOL     OW75168  14.355   1.111   4.270
24424SOL    HW175169  14.312   1.065   4.198
24424SOL    HW275170  14.339   1.203   4.252
24425SOL     OW75171  12.171   7.039   9.047
24425SOL    HW175172  12.205   7.128   9.059
24425SOL    HW275173  12.116   7.024   9.124
24426SOL     OW75174  10.789   3.774   2.879
24426SOL    HW175175  10.739   3.716   2.937
24426SOL    HW275176  10.737   3.855   2.875
24427SOL     OW75177  10.654  10.250   2.049
24427SOL    HW175178  10.566  10.278   2.026
24427SOL    HW275179  10.646  10.155   2.064
24428SOL     OW75180   7.368   3.676  14.442
24428SOL    HW175181   7.304   3.735  14.402
24428SOL    HW275182   7.448   3.728  14.451
24429SOL     OW75183  11.418   3.723   0.535
24429SOL    HW175184  11.465   3.727   0.452
24429SOL    HW275185  11.332   3.761   0.515
24430SOL     OW75186  10.571  11.279   0.334
24430SOL    HW175187  10.502  11.322   0.384
24430SOL    HW275188  10.587  11.337   0.260
24431SOL     OW75189  13.172   0.745   3.393
24431SOL    HW175190  13.155   0.653   3.414
24431SOL    HW275191  13.193   0.784   3.478
24432SOL     OW75192   6.355   9.741   1.966
24432SOL    HW175193   6.302   9.820   1.962
24432SOL    HW275194   6.432   9.760   1.913
24433SOL     OW75195  13.903   1.321   0.036
24433SOL    HW175196  13.920   1.374   0.114
24433SOL    HW275197  13.807   1.319   0.030
24434SOL     OW75198  12.207   7.313   9.120
24434SOL    HW175199  12.142   7.305   9.189
24434SOL    HW275200  12.164   7.366   9.052
24435SOL     OW75201  10.689   1.851   4.256
24435SOL    HW175202  10.616   1.801   4.293
24435SOL    HW275203  10.726   1.897   4.331
24436SOL     OW75204  13.170  11.307  10.893
24436SOL    HW175205  13.216  11.369  10.949
24436SOL    HW275206  13.172  11.346  10.806
24437SOL     OW75207  11.039   4.660   6.946
24437SOL    HW175208  11.098   4.723   6.905
24437SOL    HW275209  11.089   4.579   6.949
24438SOL     OW75210   0.837  14.624   6.206
24438SOL    HW175211   0.859  14.619   6.113
24438SOL    HW275212   0.822  14.533   6.231
24439SOL     OW75213  12.287   0.418   2.949
24439SOL    HW175214  12.207   0.471   2.952
24439SOL    HW275215  12.340   0.452   3.020
24440SOL     OW75216   6.060  10.209   2.173
24440SOL    HW175217   6.060  10.119   2.142
24440SOL    HW275218   6.138  10.248   2.134
24441SOL     OW75219  13.847   4.429  11.445
24441SOL    HW175220  13.884   4.508  11.407
24441SOL    HW275221  13.877   4.429  11.536
24442SOL     OW75222  13.594   4.285   7.589
24442SOL    HW175223  13.660   4.219   7.612
24442SOL    HW275224  13.554   4.309   7.672
24443SOL     OW75225   0.443   5.074  12.647
24443SOL    HW175226   0.358   5.116  12.659
24443SOL    HW275227   0.505   5.146  12.639
24444SOL     OW75228   4.644  11.651  10.550
24444SOL    HW175229   4.554  11.656  10.583
24444SOL    HW275230   4.678  11.569  10.587
24445SOL     OW75231  11.963   4.941   5.936
24445SOL    HW175232  11.990   4.953   6.027
24445SOL    HW275233  11.987   4.851   5.916
24446SOL     OW75234   7.710   6.221   1.778
24446SOL    HW175235   7.699   6.210   1.872
24446SOL    HW275236   7.751   6.307   1.768
24447SOL     OW75237   6.748  13.186   7.050
24447SOL    HW175238   6.775  13.095   7.033
24447SOL    HW275239   6.822  13.225   7.096
24448SOL     OW75240  11.766   2.924  12.577
24448SOL    HW175241  11.698   2.858  12.588
24448SOL    HW275242  11.769   2.969  12.661
24449SOL     OW75243   4.740   2.093   7.931
24449SOL    HW175244   4.729   2.179   7.890
24449SOL    HW275245   4.817   2.103   7.988
24450SOL     OW75246  13.554   0.194   3.027
24450SOL    HW175247  13.472   0.158   3.060
24450SOL    HW275248  13.590   0.124   2.973
24451SOL     OW75249   3.787  10.609   3.990
24451SOL    HW175250   3.751  10.522   4.011
24451SOL    HW275251   3.710  10.664   3.977
24452SOL     OW75252  13.898  14.030   5.921
24452SOL    HW175253  13.869  14.072   5.840
24452SOL    HW275254  13.856  13.943   5.919
24453SOL     OW75255   6.959  13.508   0.859
24453SOL    HW175256   6.890  13.500   0.925
24453SOL    HW275257   6.958  13.424   0.812
24454SOL     OW75258  10.215   1.214  10.790
24454SOL    HW175259  10.285   1.193  10.852
24454SOL    HW275260  10.259   1.230  10.707
24455SOL     OW75261   1.981   3.696   4.373
24455SOL    HW175262   2.047   3.766   4.371
24455SOL    HW275263   2.031   3.617   4.392
24456SOL     OW75264   5.666   9.116   7.116
24456SOL    HW175265   5.594   9.135   7.056
24456SOL    HW275266   5.741   9.163   7.078
24457SOL     OW75267  14.127  12.764  14.296
24457SOL    HW175268  14.139  12.859  14.304
24457SOL    HW275269  14.191  12.738  14.229
24458SOL     OW75270   9.153  14.520   6.602
24458SOL    HW175271   9.144  14.611   6.630
24458SOL    HW275272   9.068  14.480   6.622
24459SOL     OW75273   6.963  13.000   4.631
24459SOL    HW175274   7.004  12.935   4.574
24459SOL    HW275275   6.961  13.080   4.578
24460SOL     OW75276   0.823   5.453  11.049
24460SOL    HW175277   0.796   5.397  11.122
24460SOL    HW275278   0.849   5.392  10.980
24461SOL     OW75279   5.714   1.514   0.993
24461SOL    HW175280   5.625   1.479   1.006
24461SOL    HW275281   5.709   1.604   1.023
24462SOL     OW75282  13.844   6.843  10.941
24462SOL    HW175283  13.844   6.938  10.935
24462SOL    HW275284  13.868   6.824  11.032
24463SOL     OW75285   5.874   3.881   6.326
24463SOL    HW175286   5.812   3.855   6.258
24463SOL    HW275287   5.956   3.838   6.302
24464SOL     OW75288   2.500   7.885   3.492
24464SOL    HW175289   2.429   7.882   3.556
24464SOL    HW275290   2.548   7.803   3.505
24465SOL     OW75291   1.207   7.343  13.864
24465SOL    HW175292   1.133   7.291  13.895
24465SOL    HW275293   1.250   7.287  13.799
24466SOL     OW75294   3.252   5.342   9.549
24466SOL    HW175295   3.165   5.322   9.585
24466SOL    HW275296   3.286   5.258   9.519
24467SOL     OW75297  12.490   8.027   1.523
24467SOL    HW175298  12.435   8.063   1.453
24467SOL    HW275299  12.530   8.104   1.564
24468SOL     OW75300  12.220  10.100  14.413
24468SOL    HW175301  12.208  10.094  14.508
24468SOL    HW275302  12.169  10.026  14.379
24469SOL     OW75303   6.857   5.302  11.300
24469SOL    HW175304   6.889   5.375  11.352
24469SOL    HW275305   6.911   5.302  11.222
24470SOL     OW75306   9.620  14.081   6.568
24470SOL    HW175307   9.690  14.145   6.580
24470SOL    HW275308   9.665  13.996   6.567
24471SOL     OW75309  11.026   0.747  10.901
24471SOL    HW175310  11.029   0.715  10.991
24471SOL    HW275311  11.029   0.842  10.910
24472SOL     OW75312  13.664   9.402   2.326
24472SOL    HW175313  13.622   9.319   2.302
24472SOL    HW275314  13.609   9.469   2.287
24473SOL     OW75315  10.871  10.816   9.989
24473SOL    HW175316  10.858  10.897   9.940
24473SOL    HW275317  10.961  10.821  10.021
24474SOL     OW75318   4.320   8.889  13.177
24474SOL    HW175319   4.398   8.943  13.163
24474SOL    HW275320   4.247   8.946  13.157
24475SOL     OW75321   7.062   3.633  12.092
24475SOL    HW175322   7.061   3.553  12.145
24475SOL    HW275323   7.152   3.664  12.098
24476SOL     OW75324   8.977   2.491  10.101
24476SOL    HW175325   8.888   2.456  10.108
24476SOL    HW275326   8.978   2.566  10.162
24477SOL     OW75327   1.418   7.248  13.494
24477SOL    HW175328   1.415   7.177  13.558
24477SOL    HW275329   1.460   7.321  13.539
24478SOL     OW75330   6.128   6.046   5.488
24478SOL    HW175331   6.091   6.079   5.570
24478SOL    HW275332   6.216   6.017   5.512
24479SOL     OW75333   1.422   7.001   5.601
24479SOL    HW175334   1.474   7.028   5.525
24479SOL    HW275335   1.356   6.942   5.565
24480SOL     OW75336   8.787   9.407   9.473
24480SOL    HW175337   8.752   9.496   9.469
24480SOL    HW275338   8.762   9.375   9.559
24481SOL     OW75339  11.087   2.087  14.458
24481SOL    HW175340  11.152   2.152  14.432
24481SOL    HW275341  11.080   2.028  14.382
24482SOL     OW75342   0.730  12.424   7.807
24482SOL    HW175343   0.678  12.472   7.870
24482SOL    HW275344   0.710  12.464   7.723
24483SOL     OW75345  10.258   2.707  11.926
24483SOL    HW175346  10.205   2.651  11.984
24483SOL    HW275347  10.193   2.753  11.873
24484SOL     OW75348  13.690   9.870   9.538
24484SOL    HW175349  13.781   9.853   9.514
24484SOL    HW275350  13.640   9.805   9.489
24485SOL     OW75351   3.646   5.496   1.943
24485SOL    HW175352   3.669   5.586   1.924
24485SOL    HW275353   3.660   5.486   2.037
24486SOL     OW75354   7.578   6.027  13.873
24486SOL    HW175355   7.545   6.064  13.791
24486SOL    HW275356   7.643   5.962  13.845
24487SOL     OW75357   3.169  12.669   0.537
24487SOL    HW175358   3.141  12.728   0.467
24487SOL    HW275359   3.166  12.723   0.616
24488SOL     OW75360   8.848   8.956   3.298
24488SOL    HW175361   8.794   8.885   3.331
24488SOL    HW275362   8.925   8.957   3.355
24489SOL     OW75363   1.663   0.478   3.013
24489SOL    HW175364   1.675   0.432   3.096
24489SOL    HW275365   1.584   0.439   2.975
24490SOL     OW75366   9.537   8.750   4.262
24490SOL    HW175367   9.476   8.733   4.334
24490SOL    HW275368   9.505   8.830   4.221
24491SOL     OW75369   6.191   5.029   5.128
24491SOL    HW175370   6.179   4.939   5.159
24491SOL    HW275371   6.215   5.078   5.207
24492SOL     OW75372   3.210   8.919   4.969
24492SOL    HW175373   3.224   8.872   4.887
24492SOL    HW275374   3.276   8.988   4.969
24493SOL     OW75375   7.967   3.216   7.239
24493SOL    HW175376   8.021   3.290   7.268
24493SOL    HW275377   7.899   3.256   7.185
24494SOL     OW75378   5.862   1.804   5.115
24494SOL    HW175379   5.941   1.749   5.116
24494SOL    HW275380   5.889   1.885   5.158
24495SOL     OW75381   4.385   9.655   2.667
24495SOL    HW175382   4.477   9.637   2.650
24495SOL    HW275383   4.384   9.744   2.701
24496SOL     OW75384   1.815  11.512   1.217
24496SOL    HW175385   1.728  11.548   1.202
24496SOL    HW275386   1.811  11.476   1.306
24497SOL     OW75387   5.675   4.687  10.537
24497SOL    HW175388   5.717   4.712  10.454
24497SOL    HW275389   5.582   4.705  10.524
24498SOL     OW75390   4.288  14.126  11.871
24498SOL    HW175391   4.325  14.214  11.880
24498SOL    HW275392   4.333  14.075  11.939
24499SOL     OW75393   1.162   3.682  11.113
24499SOL    HW175394   1.252   3.699  11.086
24499SOL    HW275395   1.142   3.750  11.177
24500SOL     OW75396   8.418   0.546  11.790
24500SOL    HW175397   8.476   0.535  11.865
24500SOL    HW275398   8.402   0.640  11.787
24501SOL     OW75399  10.003   4.100   6.178
24501SOL    HW175400   9.955   4.047   6.115
24501SOL    HW275401   9.970   4.072   6.263
24502SOL     OW75402  14.538   6.960   9.924
24502SOL    HW175403  14.480   6.971   9.849
24502SOL    HW275404  14.523   7.038   9.978
24503SOL     OW75405  13.970   9.036  11.231
24503SOL    HW175406  14.061   9.039  11.259
24503SOL    HW275407  13.927   9.106  11.280
24504SOL     OW75408   0.343   2.489  14.860
24504SOL    HW175409   0.267   2.544  14.843
24504SOL    HW275410   0.398   2.541   0.036
24505SOL     OW75411   8.006   0.862   7.240
24505SOL    HW175412   7.967   0.793   7.293
24505SOL    HW275413   8.006   0.826   7.151
24506SOL     OW75414   5.215  12.755   1.185
24506SOL    HW175415   5.295  12.788   1.144
24506SOL    HW275416   5.151  12.752   1.113
24507SOL     OW75417   4.447  12.754  12.745
24507SOL    HW175418   4.483  12.694  12.680
24507SOL    HW275419   4.353  12.757  12.726
24508SOL     OW75420   9.017   2.918   4.394
24508SOL    HW175421   9.043   2.951   4.481
24508SOL    HW275422   8.948   2.977   4.366
24509SOL     OW75423   3.246   0.276   3.431
24509SOL    HW175424   3.314   0.214   3.402
24509SOL    HW275425   3.241   0.263   3.525
24510SOL     OW75426   7.685   9.908  13.102
24510SOL    HW175427   7.763   9.932  13.151
24510SOL    HW275428   7.669   9.816  13.124
24511SOL     OW75429   5.326   5.982   6.870
24511SOL    HW175430   5.329   6.057   6.929
24511SOL    HW275431   5.410   5.983   6.825
24512SOL     OW75432   5.462  11.879  12.032
24512SOL    HW175433   5.520  11.845  11.964
24512SOL    HW275434   5.378  11.836  12.015
24513SOL     OW75435   3.070   2.041   2.643
24513SOL    HW175436   3.128   2.071   2.573
24513SOL    HW275437   3.087   1.947   2.650
24514SOL     OW75438   3.558   8.763  12.927
24514SOL    HW175439   3.649   8.735  12.924
24514SOL    HW275440   3.508   8.683  12.941
24515SOL     OW75441  14.077   8.448  12.206
24515SOL    HW175442  14.053   8.516  12.142
24515SOL    HW275443  14.166   8.471  12.232
24516SOL     OW75444   0.287   4.425  12.054
24516SOL    HW175445   0.270   4.502  12.109
24516SOL    HW275446   0.223   4.431  11.984
24517SOL     OW75447   6.288   8.417   7.290
24517SOL    HW175448   6.204   8.461   7.298
24517SOL    HW275449   6.297   8.398   7.197
24518SOL     OW75450   6.411   4.129   1.803
24518SOL    HW175451   6.504   4.121   1.826
24518SOL    HW275452   6.378   4.198   1.860
24519SOL     OW75453   1.447  11.493   7.982
24519SOL    HW175454   1.365  11.454   7.951
24519SOL    HW275455   1.420  11.566   8.038
24520SOL     OW75456  14.709   0.294  12.831
24520SOL    HW175457  14.740   0.293  12.741
24520SOL    HW275458  14.614   0.300  12.823
24521SOL     OW75459   6.147   6.931   1.524
24521SOL    HW175460   6.202   6.938   1.602
24521SOL    HW275461   6.206   6.953   1.452
24522SOL     OW75462  11.935  11.273   5.756
24522SOL    HW175463  11.933  11.369   5.749
24522SOL    HW275464  11.849  11.246   5.725
24523SOL     OW75465   0.776   5.068  11.027
24523SOL    HW175466   0.714   5.081  11.099
24523SOL    HW275467   0.815   4.983  11.044
24524SOL     OW75468   6.416   4.058   3.902
24524SOL    HW175469   6.340   4.013   3.864
24524SOL    HW275470   6.442   4.003   3.976
24525SOL     OW75471   6.185   1.152   3.759
24525SOL    HW175472   6.258   1.159   3.821
24525SOL    HW275473   6.185   1.236   3.712
24526SOL     OW75474   9.504   8.362   3.419
24526SOL    HW175475   9.557   8.321   3.351
24526SOL    HW275476   9.508   8.301   3.493
24527SOL     OW75477   4.537   2.001   7.706
24527SOL    HW175478   4.450   2.029   7.736
24527SOL    HW275479   4.597   2.041   7.769
24528SOL     OW75480  10.565   3.301  12.745
24528SOL    HW175481  10.523   3.369  12.692
24528SOL    HW275482  10.629   3.260  12.686
24529SOL     OW75483  13.749   8.077  11.121
24529SOL    HW175484  13.759   8.027  11.040
24529SOL    HW275485  13.836   8.075  11.162
24530SOL     OW75486   2.677  14.776  13.352
24530SOL    HW175487   2.621  14.760  13.428
24530SOL    HW275488   2.629  14.841  13.301
24531SOL     OW75489   2.036  14.579   4.324
24531SOL    HW175490   1.940  14.587   4.319
24531SOL    HW275491   2.057  14.607   4.413
24532SOL     OW75492   7.305  12.400  11.407
24532SOL    HW175493   7.332  12.396  11.499
24532SOL    HW275494   7.222  12.353  11.404
24533SOL     OW75495  11.219   6.609  11.205
24533SOL    HW175496  11.224   6.606  11.110
24533SOL    HW275497  11.308   6.627  11.234
24534SOL     OW75498  13.069  11.216   7.314
24534SOL    HW175499  13.042  11.308   7.315
24534SOL    HW275500  13.123  11.207   7.392
24535SOL     OW75501  12.684   1.326   0.711
24535SOL    HW175502  12.651   1.280   0.634
24535SOL    HW275503  12.643   1.282   0.785
24536SOL     OW75504   7.224  13.589   6.091
24536SOL    HW175505   7.238  13.652   6.162
24536SOL    HW275506   7.128  13.579   6.087
24537SOL     OW75507  12.961   6.528   8.818
24537SOL    HW175508  12.869   6.503   8.828
24537SOL    HW275509  12.960   6.624   8.826
24538SOL     OW75510  14.879   8.595  12.581
24538SOL    HW175511   0.046   8.569  12.660
24538SOL    HW275512  14.787   8.585  12.606
24539SOL     OW75513  14.171  11.355   5.531
24539SOL    HW175514  14.153  11.288   5.597
24539SOL    HW275515  14.172  11.306   5.448
24540SOL     OW75516   1.980   4.725  11.880
24540SOL    HW175517   1.939   4.805  11.849
24540SOL    HW275518   1.908   4.665  11.894
24541SOL     OW75519  13.159   0.316  10.435
24541SOL    HW175520  13.065   0.331  10.432
24541SOL    HW275521  13.170   0.237  10.487
24542SOL     OW75522   7.291   7.928   4.738
24542SOL    HW175523   7.202   7.902   4.762
24542SOL    HW275524   7.280   8.013   4.695
24543SOL     OW75525  10.092   7.585   8.897
24543SOL    HW175526  10.029   7.607   8.828
24543SOL    HW275527  10.110   7.668   8.940
24544SOL     OW75528   0.085   7.465   5.090
24544SOL    HW175529   0.078   7.524   5.165
24544SOL    HW275530   0.155   7.404   5.113
24545SOL     OW75531   3.084  11.447   1.162
24545SOL    HW175532   3.039  11.516   1.210
24545SOL    HW275533   3.114  11.489   1.081
24546SOL     OW75534   5.714  13.975   3.943
24546SOL    HW175535   5.646  13.909   3.953
24546SOL    HW275536   5.705  14.031   4.019
24547SOL     OW75537   0.343   1.794   6.280
24547SOL    HW175538   0.305   1.876   6.248
24547SOL    HW275539   0.419   1.779   6.223
24548SOL     OW75540  10.749   2.680   6.901
24548SOL    HW175541  10.730   2.703   6.992
24548SOL    HW275542  10.819   2.615   6.907
24549SOL     OW75543   2.097   6.528   8.054
24549SOL    HW175544   2.121   6.546   7.963
24549SOL    HW275545   2.129   6.439   8.071
24550SOL     OW75546  11.029   1.451  10.237
24550SOL    HW175547  11.092   1.465  10.308
24550SOL    HW275548  11.042   1.525  10.178
24551SOL     OW75549   7.844   0.304  11.291
24551SOL    HW175550   7.834   0.367  11.220
24551SOL    HW275551   7.873   0.357  11.366
24552SOL     OW75552  14.476  10.982   1.794
24552SOL    HW175553  14.446  10.959   1.883
24552SOL    HW275554  14.517  10.902   1.762
24553SOL     OW75555   5.491  14.132   1.744
24553SOL    HW175556   5.556  14.086   1.797
24553SOL    HW275557   5.476  14.214   1.790
24554SOL     OW75558  10.763  11.164  13.998
24554SOL    HW175559  10.814  11.107  14.056
24554SOL    HW275560  10.825  11.191  13.930
24555SOL     OW75561   4.863   0.056   8.482
24555SOL    HW175562   4.882   0.050   8.388
24555SOL    HW275563   4.920  14.873   8.522
24556SOL     OW75564  12.011   0.425   9.210
24556SOL    HW175565  11.948   0.462   9.148
24556SOL    HW275566  12.056   0.357   9.160
24557SOL     OW75567  10.889  13.731   2.201
24557SOL    HW175568  10.928  13.734   2.114
24557SOL    HW275569  10.820  13.797   2.199
24558SOL     OW75570   8.745   2.688   4.134
24558SOL    HW175571   8.778   2.729   4.054
24558SOL    HW275572   8.650   2.704   4.132
24559SOL     OW75573   6.549   5.205   2.944
24559SOL    HW175574   6.459   5.239   2.951
24559SOL    HW275575   6.574   5.223   2.853
24560SOL     OW75576   2.239   5.748   8.145
24560SOL    HW175577   2.146   5.734   8.164
24560SOL    HW275578   2.249   5.720   8.054
24561SOL     OW75579  14.167   5.319   3.254
24561SOL    HW175580  14.072   5.331   3.248
24561SOL    HW275581  14.186   5.248   3.193
24562SOL     OW75582  11.113   1.287   9.192
24562SOL    HW175583  11.153   1.230   9.126
24562SOL    HW275584  11.163   1.368   9.187
24563SOL     OW75585   3.336   6.379   1.330
24563SOL    HW175586   3.275   6.429   1.276
24563SOL    HW275587   3.280   6.329   1.389
24564SOL     OW75588   0.168   8.221  14.348
24564SOL    HW175589   0.262   8.210  14.333
24564SOL    HW275590   0.129   8.218  14.261
24565SOL     OW75591   0.342   8.128   1.278
24565SOL    HW175592   0.290   8.090   1.349
24565SOL    HW275593   0.329   8.069   1.204
24566SOL     OW75594   2.940   9.955  12.987
24566SOL    HW175595   3.000   9.934  13.059
24566SOL    HW275596   2.966  10.042  12.958
24567SOL     OW75597   5.775   1.892   1.833
24567SOL    HW175598   5.745   1.837   1.761
24567SOL    HW275599   5.824   1.833   1.890
24568SOL     OW75600  13.950   1.726  11.073
24568SOL    HW175601  14.035   1.762  11.099
24568SOL    HW275602  13.889   1.757  11.140
24569SOL     OW75603   2.014   6.742   3.864
24569SOL    HW175604   2.079   6.785   3.920
24569SOL    HW275605   2.015   6.793   3.783
24570SOL     OW75606   1.002   4.978   4.830
24570SOL    HW175607   0.934   5.026   4.782
24570SOL    HW275608   0.957   4.942   4.906
24571SOL     OW75609  14.305   2.203   9.691
24571SOL    HW175610  14.256   2.284   9.686
24571SOL    HW275611  14.379   2.223   9.748
24572SOL     OW75612  14.021   0.667   0.596
24572SOL    HW175613  14.017   0.750   0.643
24572SOL    HW275614  14.042   0.603   0.665
24573SOL     OW75615   4.941  13.547  11.327
24573SOL    HW175616   5.005  13.604  11.371
24573SOL    HW275617   4.959  13.460  11.363
24574SOL     OW75618   7.573  11.865   0.219
24574SOL    HW175619   7.567  11.957   0.195
24574SOL    HW275620   7.662  11.855   0.253
24575SOL     OW75621   9.049  10.913  10.249
24575SOL    HW175622   9.092  10.845  10.301
24575SOL    HW275623   8.977  10.944  10.304
24576SOL     OW75624   9.387  12.809  12.043
24576SOL    HW175625   9.384  12.890  11.992
24576SOL    HW275626   9.384  12.739  11.978
24577SOL     OW75627   8.288  10.931   2.040
24577SOL    HW175628   8.236  11.008   2.019
24577SOL    HW275629   8.374  10.948   2.001
24578SOL     OW75630   1.087  12.168  13.942
24578SOL    HW175631   1.173  12.194  13.973
24578SOL    HW275632   1.034  12.248  13.947
24579SOL     OW75633   4.942   1.450  10.299
24579SOL    HW175634   4.985   1.365  10.292
24579SOL    HW275635   4.906   1.453  10.388
24580SOL     OW75636   4.433  11.204  11.760
24580SOL    HW175637   4.510  11.151  11.742
24580SOL    HW275638   4.397  11.225  11.673
24581SOL     OW75639   6.446   2.230   2.652
24581SOL    HW175640   6.488   2.290   2.713
24581SOL    HW275641   6.495   2.238   2.570
24582SOL     OW75642   9.550   7.154   4.451
24582SOL    HW175643   9.455   7.152   4.465
24582SOL    HW275644   9.567   7.244   4.421
24583SOL     OW75645   0.175  13.738   4.188
24583SOL    HW175646   0.114  13.740   4.115
24583SOL    HW275647   0.179  13.646   4.214
24584SOL     OW75648  13.961   0.574  13.985
24584SOL    HW175649  14.001   0.526  14.058
24584SOL    HW275650  14.021   0.562  13.912
24585SOL     OW75651  10.804   8.388   3.734
24585SOL    HW175652  10.882   8.347   3.772
24585SOL    HW275653  10.740   8.388   3.805
24586SOL     OW75654   5.040   2.462   2.198
24586SOL    HW175655   5.009   2.546   2.232
24586SOL    HW275656   5.042   2.405   2.275
24587SOL     OW75657   6.541  14.514   7.105
24587SOL    HW175658   6.572  14.601   7.128
24587SOL    HW275659   6.466  14.529   7.048
24588SOL     OW75660  10.592   4.038   7.307
24588SOL    HW175661  10.505   4.016   7.338
24588SOL    HW275662  10.579   4.114   7.250
24589SOL     OW75663  10.250   3.775   9.094
24589SOL    HW175664  10.289   3.724   9.165
24589SOL    HW275665  10.290   3.741   9.014
24590SOL     OW75666   4.216  13.540  14.848
24590SOL    HW175667   4.156  13.479  14.805
24590SOL    HW275668   4.289  13.486  14.877
24591SOL     OW75669  13.507   1.681   1.491
24591SOL    HW175670  13.506   1.669   1.586
24591SOL    HW275671  13.507   1.592   1.456
24592SOL     OW75672   0.158   3.932  13.018
24592SOL    HW175673   0.138   3.841  13.041
24592SOL    HW275674   0.252   3.940  13.030
24593SOL     OW75675   4.749   1.335   1.427
24593SOL    HW175676   4.810   1.381   1.484
24593SOL    HW275677   4.663   1.369   1.450
24594SOL     OW75678   1.200   3.973  11.158
24594SOL    HW175679   1.201   4.067  11.173
24594SOL    HW275680   1.261   3.937  11.222
24595SOL     OW75681  14.581   7.877  14.083
24595SOL    HW175682  14.629   7.817  14.026
24595SOL    HW275683  14.489   7.857  14.066
24596SOL     OW75684  10.665  12.517   7.457
24596SOL    HW175685  10.686  12.447   7.396
24596SOL    HW275686  10.584  12.555   7.423
24597SOL     OW75687  14.696   0.019   6.037
24597SOL    HW175688  14.700   0.003   5.943
24597SOL    HW275689  14.620  14.852   6.067
24598SOL     OW75690  12.785   4.713  10.080
24598SOL    HW175691  12.854   4.751  10.135
24598SOL    HW275692  12.737   4.655  10.140
24599SOL     OW75693   5.618   1.921  12.241
24599SOL    HW175694   5.661   2.006  12.229
24599SOL    HW275695   5.585   1.923  12.331
24600SOL     OW75696  12.726   5.065   7.968
24600SOL    HW175697  12.711   5.085   7.876
24600SOL    HW275698  12.673   5.129   8.016
24601SOL     OW75699  11.188  11.863   6.378
24601SOL    HW175700  11.127  11.832   6.444
24601SOL    HW275701  11.159  11.952   6.358
24602SOL     OW75702   8.996   1.023   8.702
24602SOL    HW175703   9.074   0.992   8.748
24602SOL    HW275704   8.978   1.108   8.742
24603SOL     OW75705  14.730  10.915  11.416
24603SOL    HW175706  14.748  10.956  11.332
24603SOL    HW275707  14.665  10.972  11.457
24604SOL     OW75708   1.757   5.397   1.392
24604SOL    HW175709   1.796   5.467   1.444
24604SOL    HW275710   1.746   5.324   1.453
24605SOL     OW75711   5.304  14.287   0.296
24605SOL    HW175712   5.333  14.207   0.340
24605SOL    HW275713   5.314  14.356   0.361
24606SOL     OW75714   4.062   6.051   4.849
24606SOL    HW175715   4.048   6.025   4.758
24606SOL    HW275716   3.976   6.046   4.890
24607SOL     OW75717   6.994  12.115   6.009
24607SOL    HW175718   7.065  12.097   6.070
24607SOL    HW275719   7.035  12.114   5.923
24608SOL     OW75720   2.803   7.378   4.391
24608SOL    HW175721   2.824   7.289   4.418
24608SOL    HW275722   2.814   7.378   4.296
24609SOL     OW75723   6.434   5.364   6.497
24609SOL    HW175724   6.450   5.304   6.425
24609SOL    HW275725   6.392   5.311   6.564
24610SOL     OW75726  10.327   5.749  12.247
24610SOL    HW175727  10.235   5.725  12.246
24610SOL    HW275728  10.361   5.715  12.330
24611SOL     OW75729   2.842   1.108   9.529
24611SOL    HW175730   2.853   1.054   9.607
24611SOL    HW275731   2.896   1.067   9.462
24612SOL     OW75732  12.660   5.378   7.334
24612SOL    HW175733  12.639   5.284   7.332
24612SOL    HW275734  12.723   5.386   7.406
24613SOL     OW75735   9.248  12.595  11.486
24613SOL    HW175736   9.290  12.510  11.499
24613SOL    HW275737   9.267  12.618  11.395
24614SOL     OW75738  12.350   3.314  10.976
24614SOL    HW175739  12.400   3.275  11.048
24614SOL    HW275740  12.263   3.330  11.013
24615SOL     OW75741  10.483   3.301   8.790
24615SOL    HW175742  10.421   3.245   8.744
24615SOL    HW275743  10.528   3.350   8.721
24616SOL     OW75744   5.155   9.946   6.207
24616SOL    HW175745   5.077   9.987   6.170
24616SOL    HW275746   5.125   9.861   6.239
24617SOL     OW75747   9.574   2.518   8.574
24617SOL    HW175748   9.571   2.423   8.565
24617SOL    HW275749   9.518   2.550   8.504
24618SOL     OW75750  11.945   5.811   3.146
24618SOL    HW175751  11.928   5.895   3.103
24618SOL    HW275752  11.874   5.802   3.209
24619SOL     OW75753   4.220  12.891   3.685
24619SOL    HW175754   4.229  12.865   3.593
24619SOL    HW275755   4.126  12.882   3.703
24620SOL     OW75756   3.996   0.732  14.322
24620SOL    HW175757   3.938   0.784  14.267
24620SOL    HW275758   3.948   0.721  14.404
24621SOL     OW75759   1.083   1.788   6.288
24621SOL    HW175760   0.992   1.792   6.257
24621SOL    HW275761   1.116   1.705   6.252
24622SOL     OW75762   7.828   2.683  10.530
24622SOL    HW175763   7.752   2.643  10.572
24622SOL    HW275764   7.791   2.754  10.477
24623SOL     OW75765   1.541   9.609   6.840
24623SOL    HW175766   1.552   9.533   6.784
24623SOL    HW275767   1.477   9.663   6.795
24624SOL     OW75768   2.539  13.933   9.511
24624SOL    HW175769   2.520  13.841   9.498
24624SOL    HW275770   2.504  13.976   9.433
24625SOL     OW75771   9.171   8.428   4.502
24625SOL    HW175772   9.242   8.489   4.522
24625SOL    HW275773   9.091   8.473   4.531
24626SOL     OW75774   0.747   1.142  10.098
24626SOL    HW175775   0.732   1.097  10.181
24626SOL    HW275776   0.683   1.103  10.038
24627SOL     OW75777  12.007   4.491   5.500
24627SOL    HW175778  11.945   4.550   5.543
24627SOL    HW275779  12.091   4.513   5.540
24628SOL     OW75780   4.154   7.907   3.104
24628SOL    HW175781   4.110   7.826   3.078
24628SOL    HW275782   4.237   7.906   3.058
24629SOL     OW75783   3.703   3.892   0.563
24629SOL    HW175784   3.653   3.923   0.487
24629SOL    HW275785   3.684   3.955   0.632
24630SOL     OW75786   6.033   8.540   5.241
24630SOL    HW175787   5.949   8.527   5.285
24630SOL    HW275788   6.010   8.588   5.161
24631SOL     OW75789   6.646   5.054   0.956
24631SOL    HW175790   6.573   5.001   0.924
24631SOL    HW275791   6.723   4.997   0.947
24632SOL     OW75792   4.238   1.846  14.263
24632SOL    HW175793   4.224   1.774  14.324
24632SOL    HW275794   4.333   1.859  14.264
24633SOL     OW75795   3.433   8.221  11.611
24633SOL    HW175796   3.367   8.154  11.625
24633SOL    HW275797   3.432   8.274  11.690
24634SOL     OW75798   0.437  13.838   3.878
24634SOL    HW175799   0.493  13.828   3.954
24634SOL    HW275800   0.496  13.865   3.808
24635SOL     OW75801   6.337   3.632   7.067
24635SOL    HW175802   6.272   3.666   7.129
24635SOL    HW275803   6.421   3.661   7.102
24636SOL     OW75804   5.603   7.942  13.694
24636SOL    HW175805   5.648   7.952  13.610
24636SOL    HW275806   5.640   7.862  13.732
24637SOL     OW75807  12.644   3.177  14.409
24637SOL    HW175808  12.607   3.121  14.478
24637SOL    HW275809  12.704   3.235  14.455
24638SOL     OW75810  12.025   1.268  10.011
24638SOL    HW175811  12.063   1.284   9.924
24638SOL    HW275812  11.945   1.220   9.993
24639SOL     OW75813   0.309  14.645   7.378
24639SOL    HW175814   0.394  14.668   7.341
24639SOL    HW275815   0.329  14.579   7.445
24640SOL     OW75816   2.378  11.898   8.687
24640SOL    HW175817   2.470  11.895   8.711
24640SOL    HW275818   2.373  11.847   8.605
24641SOL     OW75819  10.370  10.903  11.776
24641SOL    HW175820  10.411  10.927  11.693
24641SOL    HW275821  10.415  10.823  11.803
24642SOL     OW75822   6.031  11.209   0.378
24642SOL    HW175823   6.123  11.186   0.394
24642SOL    HW275824   5.986  11.125   0.376
24643SOL     OW75825  12.110  14.515   0.639
24643SOL    HW175826  12.054  14.444   0.607
24643SOL    HW275827  12.049  14.578   0.677
24644SOL     OW75828  10.343   4.823  10.427
24644SOL    HW175829  10.297   4.902  10.398
24644SOL    HW275830  10.357   4.836  10.521
24645SOL     OW75831   0.049   7.176   9.173
24645SOL    HW175832   0.096   7.095   9.153
24645SOL    HW275833   0.117   7.238   9.199
24646SOL     OW75834  11.989   1.848   1.833
24646SOL    HW175835  11.986   1.926   1.778
24646SOL    HW275836  12.038   1.875   1.911
24647SOL     OW75837   1.541   4.954   3.546
24647SOL    HW175838   1.507   4.933   3.633
24647SOL    HW275839   1.628   4.989   3.562
24648SOL     OW75840  13.638   7.936   9.828
24648SOL    HW175841  13.573   7.889   9.775
24648SOL    HW275842  13.600   8.023   9.843
24649SOL     OW75843   2.805   7.121   6.740
24649SOL    HW175844   2.883   7.133   6.794
24649SOL    HW275845   2.758   7.204   6.747
24650SOL     OW75846   1.683   6.700  11.650
24650SOL    HW175847   1.773   6.670  11.637
24650SOL    HW275848   1.686   6.793  11.626
24651SOL     OW75849  10.840   0.486  13.257
24651SOL    HW175850  10.841   0.571  13.303
24651SOL    HW275851  10.750   0.455  13.268
24652SOL     OW75852   5.770  11.847   9.391
24652SOL    HW175853   5.778  11.942   9.399
24652SOL    HW275854   5.806  11.827   9.304
24653SOL     OW75855   3.766  13.568   2.186
24653SOL    HW175856   3.678  13.577   2.150
24653SOL    HW275857   3.820  13.542   2.112
24654SOL     OW75858   9.175  13.242   4.545
24654SOL    HW175859   9.137  13.157   4.564
24654SOL    HW275860   9.117  13.279   4.478
24655SOL     OW75861   4.100  10.207  12.767
24655SOL    HW175862   4.050  10.279  12.730
24655SOL    HW275863   4.087  10.215  12.862
24656SOL     OW75864   5.273  10.010   8.466
24656SOL    HW175865   5.295   9.925   8.504
24656SOL    HW275866   5.236   9.989   8.380
24657SOL     OW75867   2.064  10.978   2.789
24657SOL    HW175868   2.098  10.900   2.833
24657SOL    HW275869   2.142  11.030   2.770
24658SOL     OW75870  13.956   9.317  11.281
24658SOL    HW175871  14.032   9.374  11.294
24658SOL    HW275872  13.883   9.377  11.266
24659SOL     OW75873   4.039   8.918  13.607
24659SOL    HW175874   3.999   8.972  13.539
24659SOL    HW275875   4.133   8.923  13.589
24660SOL     OW75876  13.570   2.004   0.507
24660SOL    HW175877  13.582   2.098   0.498
24660SOL    HW275878  13.610   1.982   0.591
24661SOL     OW75879  12.050  10.771   2.617
24661SOL    HW175880  12.054  10.735   2.528
24661SOL    HW275881  12.138  10.758   2.652
24662SOL     OW75882   2.597  12.214   8.586
24662SOL    HW175883   2.688  12.243   8.576
24662SOL    HW275884   2.555  12.237   8.503
24663SOL     OW75885  12.211   1.440   5.490
24663SOL    HW175886  12.127   1.477   5.463
24663SOL    HW275887  12.193   1.348   5.506
24664SOL     OW75888  12.340   7.646   3.693
24664SOL    HW175889  12.303   7.724   3.735
24664SOL    HW275890  12.280   7.628   3.620
24665SOL     OW75891   0.578  10.216   2.642
24665SOL    HW175892   0.657  10.228   2.590
24665SOL    HW275893   0.579  10.123   2.666
24666SOL     OW75894  11.099   7.798   1.753
24666SOL    HW175895  11.191   7.823   1.749
24666SOL    HW275896  11.062   7.852   1.824
24667SOL     OW75897  10.124   2.044   7.409
24667SOL    HW175898  10.086   2.055   7.322
24667SOL    HW275899  10.219   2.046   7.394
24668SOL     OW75900   9.682  13.618   2.403
24668SOL    HW175901   9.728  13.617   2.487
24668SOL    HW275902   9.666  13.526   2.383
24669SOL     OW75903   8.815  11.985   8.680
24669SOL    HW175904   8.783  11.928   8.610
24669SOL    HW275905   8.898  12.019   8.647
24670SOL     OW75906  14.590   9.332   3.355
24670SOL    HW175907  14.661   9.382   3.314
24670SOL    HW275908  14.513   9.351   3.300
24671SOL     OW75909   3.959   6.702   8.385
24671SOL    HW175910   3.954   6.611   8.358
24671SOL    HW275911   3.890   6.746   8.335
24672SOL     OW75912   3.771   1.464   6.244
24672SOL    HW175913   3.721   1.395   6.200
24672SOL    HW275914   3.710   1.538   6.248
24673SOL     OW75915  14.100   2.019  11.127
24673SOL    HW175916  14.191   1.997  11.148
24673SOL    HW275917  14.056   2.026  11.212
24674SOL     OW75918   7.360   2.603   1.878
24674SOL    HW175919   7.364   2.685   1.829
24674SOL    HW275920   7.330   2.628   1.965
24675SOL     OW75921   1.049   7.085  13.655
24675SOL    HW175922   0.973   7.035  13.626
24675SOL    HW275923   1.036   7.172  13.618
24676SOL     OW75924   7.320   3.211   7.710
24676SOL    HW175925   7.299   3.289   7.659
24676SOL    HW275926   7.237   3.185   7.750
24677SOL     OW75927   6.256   4.445   6.747
24677SOL    HW175928   6.238   4.357   6.715
24677SOL    HW275929   6.169   4.481   6.767
24678SOL     OW75930  11.132   7.392   6.061
24678SOL    HW175931  11.088   7.466   6.103
24678SOL    HW275932  11.061   7.344   6.019
24679SOL     OW75933   4.572   5.133   5.256
24679SOL    HW175934   4.640   5.180   5.305
24679SOL    HW275935   4.490   5.178   5.280
24680SOL     OW75936   6.228  11.339  10.786
24680SOL    HW175937   6.279  11.418  10.766
24680SOL    HW275938   6.251  11.319  10.877
24681SOL     OW75939   3.678   4.185   0.784
24681SOL    HW175940   3.650   4.272   0.757
24681SOL    HW275941   3.737   4.201   0.858
24682SOL     OW75942  10.815   7.905   5.522
24682SOL    HW175943  10.720   7.918   5.532
24682SOL    HW275944  10.842   7.862   5.603
24683SOL     OW75945   1.177  10.572  13.041
24683SOL    HW175946   1.252  10.541  12.990
24683SOL    HW275947   1.170  10.665  13.019
24684SOL     OW75948  11.128   4.162   6.360
24684SOL    HW175949  11.216   4.135   6.386
24684SOL    HW275950  11.070   4.098   6.402
24685SOL     OW75951   8.727   7.907   1.879
24685SOL    HW175952   8.784   7.925   1.954
24685SOL    HW275953   8.641   7.889   1.918
24686SOL     OW75954  14.826   1.008   8.696
24686SOL    HW175955  14.863   1.067   8.763
24686SOL    HW275956  14.737   1.040   8.682
24687SOL     OW75957   9.179  12.099   3.530
24687SOL    HW175958   9.159  12.185   3.566
24687SOL    HW275959   9.168  12.109   3.436
24688SOL     OW75960   5.586  13.173   0.887
24688SOL    HW175961   5.612  13.225   0.810
24688SOL    HW275962   5.625  13.219   0.961
24689SOL     OW75963   5.841   9.537  14.213
24689SOL    HW175964   5.763   9.593  14.216
24689SOL    HW275965   5.900   9.575  14.277
24690SOL     OW75966   7.515   8.223   5.871
24690SOL    HW175967   7.472   8.139   5.889
24690SOL    HW275968   7.552   8.249   5.956
24691SOL     OW75969   8.446   8.234   9.334
24691SOL    HW175970   8.387   8.253   9.261
24691SOL    HW275971   8.494   8.315   9.349
24692SOL     OW75972   8.271   4.993  10.973
24692SOL    HW175973   8.255   4.963  11.063
24692SOL    HW275974   8.285   5.087  10.981
24693SOL     OW75975  12.466  14.285   1.366
24693SOL    HW175976  12.375  14.304   1.341
24693SOL    HW275977  12.513  14.278   1.284
24694SOL     OW75978  14.421  10.443   1.687
24694SOL    HW175979  14.360  10.376   1.717
24694SOL    HW275980  14.380  10.479   1.609
24695SOL     OW75981   8.766  14.435   6.677
24695SOL    HW175982   8.773  14.361   6.617
24695SOL    HW275983   8.752  14.511   6.620
24696SOL     OW75984   3.257   8.558   6.555
24696SOL    HW175985   3.230   8.569   6.646
24696SOL    HW275986   3.187   8.506   6.515
24697SOL     OW75987   0.798  10.482   6.116
24697SOL    HW175988   0.783  10.467   6.209
24697SOL    HW275989   0.821  10.575   6.110
24698SOL     OW75990   6.153   4.788  12.309
24698SOL    HW175991   6.213   4.863  12.310
24698SOL    HW275992   6.206   4.715  12.340
24699SOL     OW75993   6.484   1.692   6.061
24699SOL    HW175994   6.575   1.681   6.088
24699SOL    HW275995   6.470   1.786   6.061
24700SOL     OW75996   4.225   0.941   5.160
24700SOL    HW175997   4.187   0.899   5.082
24700SOL    HW275998   4.287   1.006   5.124
24701SOL     OW75999  14.164   2.713   7.019
24701SOL    HW176000  14.147   2.663   6.939
24701SOL    HW276001  14.093   2.777   7.023
24702SOL     OW76002   7.896   5.717   7.846
24702SOL    HW176003   7.954   5.777   7.799
24702SOL    HW276004   7.825   5.773   7.879
24703SOL     OW76005   6.441   9.292   1.241
24703SOL    HW176006   6.528   9.253   1.232
24703SOL    HW276007   6.431   9.306   1.336
24704SOL     OW76008  14.522  12.537   3.838
24704SOL    HW176009  14.492  12.467   3.780
24704SOL    HW276010  14.617  12.540   3.826
24705SOL     OW76011   4.223   1.239   8.399
24705SOL    HW176012   4.275   1.216   8.322
24705SOL    HW276013   4.191   1.328   8.381
24706SOL     OW76014   0.502  12.848   8.272
24706SOL    HW176015   0.523  12.757   8.293
24706SOL    HW276016   0.464  12.883   8.352
24707SOL     OW76017   9.632   7.800  14.369
24707SOL    HW176018   9.595   7.834  14.450
24707SOL    HW276019   9.563   7.744  14.334
24708SOL     OW76020  11.684   7.845   4.808
24708SOL    HW176021  11.714   7.775   4.865
24708SOL    HW276022  11.664   7.918   4.867
24709SOL     OW76023   9.331   9.577  12.207
24709SOL    HW176024   9.356   9.563  12.116
24709SOL    HW276025   9.387   9.649  12.237
24710SOL     OW76026   0.459  10.364  10.757
24710SOL    HW176027   0.459  10.396  10.847
24710SOL    HW276028   0.485  10.439  10.705
24711SOL     OW76029   5.625   1.173   4.371
24711SOL    HW176030   5.610   1.171   4.276
24711SOL    HW276031   5.717   1.199   4.380
24712SOL     OW76032   1.763   4.258   6.142
24712SOL    HW176033   1.702   4.185   6.134
24712SOL    HW276034   1.849   4.219   6.126
24713SOL     OW76035   6.589  12.582  12.153
24713SOL    HW176036   6.615  12.490  12.145
24713SOL    HW276037   6.628  12.624  12.076
24714SOL     OW76038  11.367   8.895   4.647
24714SOL    HW176039  11.337   8.917   4.735
24714SOL    HW276040  11.449   8.944   4.637
24715SOL     OW76041   7.745   6.707   0.503
24715SOL    HW176042   7.826   6.677   0.462
24715SOL    HW276043   7.754   6.684   0.595
24716SOL     OW76044  12.066   8.547   3.789
24716SOL    HW176045  12.052   8.627   3.739
24716SOL    HW276046  12.139   8.567   3.848
24717SOL     OW76047  14.180  13.008   2.439
24717SOL    HW176048  14.109  12.976   2.496
24717SOL    HW276049  14.193  12.938   2.375
24718SOL     OW76050   3.846   7.299   1.394
24718SOL    HW176051   3.903   7.353   1.339
24718SOL    HW276052   3.906   7.247   1.447
24719SOL     OW76053   1.301  10.931  13.620
24719SOL    HW176054   1.284  11.018  13.656
24719SOL    HW276055   1.322  10.947  13.528
24720SOL     OW76056   1.461   8.492   2.556
24720SOL    HW176057   1.530   8.488   2.490
24720SOL    HW276058   1.467   8.581   2.591
24721SOL     OW76059   2.976   5.170   5.527
24721SOL    HW176060   3.042   5.103   5.546
24721SOL    HW276061   3.027   5.248   5.505
24722SOL     OW76062   7.040  10.713  13.413
24722SOL    HW176063   7.054  10.640  13.353
24722SOL    HW276064   7.079  10.684  13.495
24723SOL     OW76065   3.445  10.059  12.188
24723SOL    HW176066   3.514  10.118  12.158
24723SOL    HW276067   3.397  10.036  12.109
24724SOL     OW76068  11.998   5.837   2.788
24724SOL    HW176069  12.059   5.763   2.791
24724SOL    HW276070  12.035   5.895   2.722
24725SOL     OW76071  14.579  10.562   2.457
24725SOL    HW176072  14.616  10.540   2.371
24725SOL    HW276073  14.501  10.508   2.464
24726SOL     OW76074   9.038  12.509   7.149
24726SOL    HW176075   9.065  12.589   7.195
24726SOL    HW276076   8.945  12.521   7.133
24727SOL     OW76077   9.695   7.432  10.704
24727SOL    HW176078   9.653   7.346  10.715
24727SOL    HW276079   9.690   7.448  10.610
24728SOL     OW76080   9.516  11.708  13.522
24728SOL    HW176081   9.467  11.790  13.527
24728SOL    HW276082   9.450  11.642  13.504
24729SOL     OW76083   7.724   5.815   9.218
24729SOL    HW176084   7.732   5.782   9.307
24729SOL    HW276085   7.629   5.825   9.204
24730SOL     OW76086   6.317   5.419   5.150
24730SOL    HW176087   6.272   5.414   5.066
24730SOL    HW276088   6.278   5.350   5.203
24731SOL     OW76089   5.675   6.001   3.429
24731SOL    HW176090   5.608   6.053   3.474
24731SOL    HW276091   5.665   5.913   3.463
24732SOL     OW76092   5.331   2.449   0.197
24732SOL    HW176093   5.255   2.485   0.243
24732SOL    HW276094   5.342   2.505   0.120
24733SOL     OW76095   6.876  11.630   8.625
24733SOL    HW176096   6.950  11.613   8.566
24733SOL    HW276097   6.809  11.669   8.569
24734SOL     OW76098   2.236   7.219   2.346
24734SOL    HW176099   2.257   7.198   2.254
24734SOL    HW276100   2.321   7.214   2.391
24735SOL     OW76101   3.392   9.538   9.940
24735SOL    HW176102   3.314   9.535   9.885
24735SOL    HW276103   3.394   9.453   9.984
24736SOL     OW76104   5.672  14.551  13.760
24736SOL    HW176105   5.672  14.637  13.803
24736SOL    HW276106   5.603  14.557  13.694
24737SOL     OW76107   5.536  13.128  14.475
24737SOL    HW176108   5.570  13.039  14.480
24737SOL    HW276109   5.470  13.132  14.544
24738SOL     OW76110   4.551   8.557  11.312
24738SOL    HW176111   4.464   8.517  11.309
24738SOL    HW276112   4.568   8.585  11.222
24739SOL     OW76113   0.987   3.965  12.091
24739SOL    HW176114   1.052   3.927  12.150
24739SOL    HW276115   0.904   3.957  12.138
24740SOL     OW76116   6.272   9.458   0.517
24740SOL    HW176117   6.216   9.410   0.456
24740SOL    HW276118   6.306   9.531   0.465
24741SOL     OW76119   8.479  13.776   0.825
24741SOL    HW176120   8.443  13.860   0.796
24741SOL    HW276121   8.543  13.799   0.892
24742SOL     OW76122   4.697   8.894   3.411
24742SOL    HW176123   4.701   8.951   3.488
24742SOL    HW276124   4.787   8.867   3.397
24743SOL     OW76125  12.255   6.548   7.833
24743SOL    HW176126  12.234   6.625   7.781
24743SOL    HW276127  12.199   6.479   7.797
24744SOL     OW76128   2.917   8.775   1.149
24744SOL    HW176129   2.994   8.832   1.150
24744SOL    HW276130   2.850   8.825   1.102
24745SOL     OW76131   5.127   4.569   1.803
24745SOL    HW176132   5.042   4.525   1.793
24745SOL    HW276133   5.181   4.533   1.733
24746SOL     OW76134   4.829   1.698   6.643
24746SOL    HW176135   4.788   1.663   6.564
24746SOL    HW276136   4.850   1.620   6.695
24747SOL     OW76137   1.719   4.281   1.455
24747SOL    HW176138   1.807   4.246   1.437
24747SOL    HW276139   1.661   4.208   1.435
24748SOL     OW76140  13.117  11.947   5.040
24748SOL    HW176141  13.085  12.032   5.069
24748SOL    HW276142  13.068  11.883   5.092
24749SOL     OW76143  12.309   6.193  11.057
24749SOL    HW176144  12.247   6.258  11.023
24749SOL    HW276145  12.351   6.157  10.979
24750SOL     OW76146   8.194   1.024   3.583
24750SOL    HW176147   8.150   1.081   3.521
24750SOL    HW276148   8.160   1.050   3.669
24751SOL     OW76149   1.201   6.040   5.626
24751SOL    HW176150   1.215   6.134   5.637
24751SOL    HW276151   1.144   6.015   5.699
24752SOL     OW76152  11.552   9.122  11.252
24752SOL    HW176153  11.525   9.187  11.186
24752SOL    HW276154  11.496   9.046  11.234
24753SOL     OW76155   9.929   8.335   9.960
24753SOL    HW176156   9.900   8.337   9.869
24753SOL    HW276157   9.910   8.423   9.993
24754SOL     OW76158   6.391   4.631   6.320
24754SOL    HW176159   6.309   4.664   6.281
24754SOL    HW276160   6.430   4.577   6.251
24755SOL     OW76161   1.324  14.055  12.468
24755SOL    HW176162   1.333  14.029  12.376
24755SOL    HW276163   1.323  13.972  12.516
24756SOL     OW76164  12.741   8.526  13.575
24756SOL    HW176165  12.733   8.579  13.654
24756SOL    HW276166  12.675   8.562  13.515
24757SOL     OW76167   5.595   5.654  10.787
24757SOL    HW176168   5.571   5.618  10.701
24757SOL    HW276169   5.688   5.635  10.795
24758SOL     OW76170   5.758   0.367   0.157
24758SOL    HW176171   5.701   0.393   0.085
24758SOL    HW276172   5.810   0.445   0.176
24759SOL     OW76173   9.323   9.149  13.769
24759SOL    HW176174   9.270   9.128  13.692
24759SOL    HW276175   9.382   9.218  13.739
24760SOL     OW76176  13.782  13.052   1.346
24760SOL    HW176177  13.699  13.054   1.394
24760SOL    HW276178  13.768  12.989   1.276
24761SOL     OW76179  11.835   9.507   3.002
24761SOL    HW176180  11.781   9.522   2.924
24761SOL    HW276181  11.906   9.450   2.971
24762SOL     OW76182  10.911   6.265   8.627
24762SOL    HW176183  10.960   6.245   8.547
24762SOL    HW276184  10.831   6.213   8.620
24763SOL     OW76185  11.549   1.476  14.836
24763SOL    HW176186  11.528   1.489  14.744
24763SOL    HW276187  11.590   1.389  14.839
24764SOL     OW76188  10.827   0.319   6.797
24764SOL    HW176189  10.789   0.379   6.861
24764SOL    HW276190  10.919   0.344   6.792
24765SOL     OW76191  12.749   6.703  11.154
24765SOL    HW176192  12.734   6.794  11.132
24765SOL    HW276193  12.839   6.686  11.125
24766SOL     OW76194  10.068   7.037   4.122
24766SOL    HW176195   9.976   7.045   4.099
24766SOL    HW276196  10.106   7.122   4.101
24767SOL     OW76197   9.234  10.276   4.818
24767SOL    HW176198   9.151  10.317   4.841
24767SOL    HW276199   9.233  10.272   4.722
24768SOL     OW76200  11.732   9.672  13.183
24768SOL    HW176201  11.712   9.661  13.090
24768SOL    HW276202  11.804   9.611  13.200
24769SOL     OW76203  13.597  12.153   5.993
24769SOL    HW176204  13.573  12.193   6.077
24769SOL    HW276205  13.638  12.224   5.944
24770SOL     OW76206  13.219   7.963   4.209
24770SOL    HW176207  13.255   7.947   4.296
24770SOL    HW276208  13.125   7.950   4.220
24771SOL     OW76209  10.774   1.317   9.929
24771SOL    HW176210  10.688   1.316   9.970
24771SOL    HW276211  10.790   1.227   9.902
24772SOL     OW76212  12.891  13.510   5.419
24772SOL    HW176213  12.902  13.418   5.398
24772SOL    HW276214  12.921  13.557   5.341
24773SOL     OW76215   5.683   5.008   4.517
24773SOL    HW176216   5.664   4.969   4.602
24773SOL    HW276217   5.735   5.086   4.538
24774SOL     OW76218   8.263   0.124  10.008
24774SOL    HW176219   8.242   0.032  10.024
24774SOL    HW276220   8.262   0.164  10.095
24775SOL     OW76221  14.000   8.751   7.332
24775SOL    HW176222  14.055   8.673   7.335
24775SOL    HW276223  14.050   8.814   7.279
24776SOL     OW76224  13.022   0.827   8.395
24776SOL    HW176225  13.050   0.786   8.477
24776SOL    HW276226  13.076   0.786   8.327
24777SOL     OW76227   4.228  12.244   5.306
24777SOL    HW176228   4.286  12.267   5.234
24777SOL    HW276229   4.262  12.161   5.339
24778SOL     OW76230   6.116   3.578  11.080
24778SOL    HW176231   6.038   3.561  11.027
24778SOL    HW276232   6.105   3.522  11.157
24779SOL     OW76233   7.544   8.838   9.744
24779SOL    HW176234   7.494   8.818   9.823
24779SOL    HW276235   7.629   8.867   9.777
24780SOL     OW76236  14.771   3.572  10.145
24780SOL    HW176237  14.748   3.512  10.215
24780SOL    HW276238  14.686   3.601  10.110
24781SOL     OW76239  10.870   3.811   9.551
24781SOL    HW176240  10.898   3.754   9.623
24781SOL    HW276241  10.943   3.871   9.537
24782SOL     OW76242   6.373   6.025   7.129
24782SOL    HW176243   6.291   5.986   7.097
24782SOL    HW276244   6.416   5.954   7.176
24783SOL     OW76245   0.885   4.052   8.042
24783SOL    HW176246   0.823   4.016   7.978
24783SOL    HW276247   0.931   4.121   7.995
24784SOL     OW76248  10.129   7.050   8.191
24784SOL    HW176249  10.155   7.051   8.099
24784SOL    HW276250  10.160   7.133   8.226
24785SOL     OW76251   5.479  11.315  11.259
24785SOL    HW176252   5.503  11.255  11.329
24785SOL    HW276253   5.499  11.402  11.294
24786SOL     OW76254   9.670  12.592  14.481
24786SOL    HW176255   9.740  12.527  14.494
24786SOL    HW276256   9.714  12.676  14.493
24787SOL     OW76257   6.120  14.821  12.762
24787SOL    HW176258   6.183  14.837  12.833
24787SOL    HW276259   6.037  14.807  12.807
24788SOL     OW76260   9.282   4.440  12.647
24788SOL    HW176261   9.317   4.363  12.692
24788SOL    HW276262   9.302   4.513  12.705
24789SOL     OW76263   3.426  11.653   0.737
24789SOL    HW176264   3.439  11.620   0.648
24789SOL    HW276265   3.386  11.739   0.726
24790SOL     OW76266  13.505   7.071   0.958
24790SOL    HW176267  13.531   7.132   0.888
24790SOL    HW276268  13.532   7.115   1.039
24791SOL     OW76269   1.342  14.791  11.724
24791SOL    HW176270   1.406  14.722  11.739
24791SOL    HW276271   1.395  14.866  11.694
24792SOL     OW76272   1.299   3.267  11.721
24792SOL    HW176273   1.227   3.220  11.761
24792SOL    HW276274   1.307   3.229  11.633
24793SOL     OW76275   0.978   7.692  10.602
24793SOL    HW176276   0.883   7.694  10.590
24793SOL    HW276277   1.011   7.758  10.542
24794SOL     OW76278   7.030   4.637   6.938
24794SOL    HW176279   6.939   4.617   6.960
24794SOL    HW276280   7.038   4.615   6.845
24795SOL     OW76281   3.898   1.976   2.603
24795SOL    HW176282   3.922   2.013   2.518
24795SOL    HW276283   3.881   2.053   2.658
24796SOL     OW76284   3.956   6.875   6.780
24796SOL    HW176285   3.946   6.782   6.800
24796SOL    HW276286   3.972   6.877   6.685
24797SOL     OW76287   3.837   6.367   1.103
24797SOL    HW176288   3.774   6.346   1.034
24797SOL    HW276289   3.786   6.362   1.184
24798SOL     OW76290  13.310   1.398  13.711
24798SOL    HW176291  13.378   1.388  13.777
24798SOL    HW276292  13.314   1.490  13.685
24799SOL     OW76293   9.807  10.400   8.858
24799SOL    HW176294   9.805  10.326   8.797
24799SOL    HW276295   9.891  10.392   8.903
24800SOL     OW76296  14.077   2.718  13.239
24800SOL    HW176297  14.107   2.782  13.174
24800SOL    HW276298  14.091   2.762  13.323
24801SOL     OW76299   2.581   7.659  10.456
24801SOL    HW176300   2.594   7.752  10.443
24801SOL    HW276301   2.615   7.642  10.544
24802SOL     OW76302  14.350   2.483   6.057
24802SOL    HW176303  14.263   2.468   6.094
24802SOL    HW276304  14.367   2.575   6.075
24803SOL     OW76305   8.240   1.361  10.768
24803SOL    HW176306   8.293   1.440  10.762
24803SOL    HW276307   8.226   1.349  10.862
24804SOL     OW76308   1.647   4.407  13.076
24804SOL    HW176309   1.664   4.475  13.012
24804SOL    HW276310   1.726   4.406  13.132
24805SOL     OW76311   7.519   0.394   5.440
24805SOL    HW176312   7.512   0.326   5.507
24805SOL    HW276313   7.428   0.418   5.420
24806SOL     OW76314   8.258   1.397   4.276
24806SOL    HW176315   8.293   1.482   4.247
24806SOL    HW276316   8.336   1.346   4.299
24807SOL     OW76317  10.101  13.591   1.541
24807SOL    HW176318  10.062  13.677   1.529
24807SOL    HW276319  10.189  13.609   1.573
24808SOL     OW76320  12.271   3.958  14.466
24808SOL    HW176321  12.193   3.919  14.504
24808SOL    HW276322  12.315   3.885  14.422
24809SOL     OW76323   0.503  13.844  10.417
24809SOL    HW176324   0.445  13.768  10.425
24809SOL    HW276325   0.587  13.814  10.453
24810SOL     OW76326   0.607   6.092  12.016
24810SOL    HW176327   0.652   6.135  11.943
24810SOL    HW276328   0.627   6.147  12.092
24811SOL     OW76329   4.044   6.650  14.144
24811SOL    HW176330   3.962   6.696  14.163
24811SOL    HW276331   4.113   6.711  14.170
24812SOL     OW76332   0.911   3.246   3.367
24812SOL    HW176333   0.950   3.218   3.450
24812SOL    HW276334   0.857   3.172   3.340
24813SOL     OW76335   8.843   8.748   8.283
24813SOL    HW176336   8.918   8.805   8.267
24813SOL    HW276337   8.879   8.660   8.277
24814SOL     OW76338   8.961   8.183   2.158
24814SOL    HW176339   9.000   8.249   2.100
24814SOL    HW276340   8.890   8.229   2.203
24815SOL     OW76341   0.517   2.503   0.703
24815SOL    HW176342   0.506   2.598   0.713
24815SOL    HW276343   0.475   2.466   0.780
24816SOL     OW76344   2.055  13.523  10.372
24816SOL    HW176345   2.014  13.569  10.445
24816SOL    HW276346   2.149  13.543  10.380
24817SOL     OW76347   2.263   9.777   2.106
24817SOL    HW176348   2.230   9.867   2.102
24817SOL    HW276349   2.262   9.756   2.199
24818SOL     OW76350   1.399  10.099  11.308
24818SOL    HW176351   1.488  10.111  11.274
24818SOL    HW276352   1.348  10.168  11.266
24819SOL     OW76353   4.902   1.759   0.060
24819SOL    HW176354   4.973   1.730   0.117
24819SOL    HW276355   4.918   1.852   0.046
24820SOL     OW76356   6.740   1.368  10.894
24820SOL    HW176357   6.650   1.398  10.878
24820SOL    HW276358   6.792   1.449  10.898
24821SOL     OW76359   7.171  11.613   9.253
24821SOL    HW176360   7.147  11.547   9.318
24821SOL    HW276361   7.267  11.610   9.250
24822SOL     OW76362  11.880  14.762   1.293
24822SOL    HW176363  11.864  14.786   1.384
24822SOL    HW276364  11.803  14.795   1.245
24823SOL     OW76365  12.746   0.768  12.672
24823SOL    HW176366  12.716   0.846  12.626
24823SOL    HW276367  12.791   0.716  12.605
24824SOL     OW76368   7.321   8.156   7.174
24824SOL    HW176369   7.342   8.116   7.089
24824SOL    HW276370   7.329   8.250   7.159
24825SOL     OW76371   2.651  12.663   7.025
24825SOL    HW176372   2.587  12.698   7.087
24825SOL    HW276373   2.607  12.588   6.985
24826SOL     OW76374  13.513   4.862  11.605
24826SOL    HW176375  13.503   4.774  11.570
24826SOL    HW276376  13.597   4.859  11.653
24827SOL     OW76377   6.558   3.759   5.133
24827SOL    HW176378   6.547   3.759   5.038
24827SOL    HW276379   6.518   3.841   5.162
24828SOL     OW76380   3.163   2.425   6.512
24828SOL    HW176381   3.203   2.419   6.599
24828SOL    HW276382   3.209   2.499   6.470
24829SOL     OW76383   1.351   4.483   7.788
24829SOL    HW176384   1.439   4.521   7.796
24829SOL    HW276385   1.341   4.429   7.866
24830SOL     OW76386   3.873   1.498   6.510
24830SOL    HW176387   3.837   1.520   6.424
24830SOL    HW276388   3.873   1.402   6.512
24831SOL     OW76389   1.574   6.529   6.228
24831SOL    HW176390   1.662   6.504   6.258
24831SOL    HW276391   1.576   6.625   6.228
24832SOL     OW76392   8.214   9.338  12.471
24832SOL    HW176393   8.158   9.275  12.516
24832SOL    HW276394   8.171   9.354  12.387
24833SOL     OW76395   7.297   3.093   0.640
24833SOL    HW176396   7.347   3.174   0.648
24833SOL    HW276397   7.358   3.024   0.666
24834SOL     OW76398   1.485   5.915   0.975
24834SOL    HW176399   1.392   5.893   0.967
24834SOL    HW276400   1.491   6.006   0.946
24835SOL     OW76401   5.650  14.667   5.496
24835SOL    HW176402   5.616  14.693   5.410
24835SOL    HW276403   5.586  14.605   5.530
24836SOL     OW76404  11.022   0.294   4.880
24836SOL    HW176405  10.974   0.302   4.798
24836SOL    HW276406  10.998   0.372   4.930
24837SOL     OW76407   1.107   9.996   5.988
24837SOL    HW176408   1.090  10.047   6.067
24837SOL    HW276409   1.090   9.905   6.015
24838SOL     OW76410  11.802   9.465  14.709
24838SOL    HW176411  11.727   9.459  14.768
24838SOL    HW276412  11.816   9.375  14.679
24839SOL     OW76413   4.113   6.551  11.201
24839SOL    HW176414   4.036   6.607  11.198
24839SOL    HW276415   4.080   6.466  11.230
24840SOL     OW76416   8.005   0.763  13.412
24840SOL    HW176417   8.019   0.854  13.437
24840SOL    HW276418   7.924   0.738  13.457
24841SOL     OW76419   5.352   7.911   0.772
24841SOL    HW176420   5.340   7.824   0.810
24841SOL    HW276421   5.439   7.908   0.733
24842SOL     OW76422   9.087   2.376  12.321
24842SOL    HW176423   9.174   2.404  12.292
24842SOL    HW276424   9.072   2.426  12.402
24843SOL     OW76425  10.200   0.931   8.723
24843SOL    HW176426  10.193   0.910   8.816
24843SOL    HW276427  10.256   1.008   8.720
24844SOL     OW76428   5.868  12.136  12.189
24844SOL    HW176429   5.793  12.077  12.197
24844SOL    HW276430   5.909  12.110  12.106
24845SOL     OW76431   7.564   1.179   7.554
24845SOL    HW176432   7.491   1.238   7.535
24845SOL    HW276433   7.526   1.092   7.554
24846SOL     OW76434   2.463   8.699   9.279
24846SOL    HW176435   2.394   8.634   9.263
24846SOL    HW276436   2.441   8.738   9.363
24847SOL     OW76437   1.189  14.317   0.348
24847SOL    HW176438   1.146  14.270   0.419
24847SOL    HW276439   1.282  14.305   0.363
24848SOL     OW76440  10.048   8.700   1.276
24848SOL    HW176441  10.091   8.639   1.215
24848SOL    HW276442   9.961   8.713   1.240
24849SOL     OW76443   4.837   5.889   0.063
24849SOL    HW176444   4.799   5.906  14.859
24849SOL    HW276445   4.805   5.803   0.088
24850SOL     OW76446  10.208   7.496   3.038
24850SOL    HW176447  10.195   7.557   3.111
24850SOL    HW276448  10.292   7.454   3.057
24851SOL     OW76449  14.742  12.591  10.776
24851SOL    HW176450  14.788  12.553  10.851
24851SOL    HW276451  14.655  12.611  10.809
24852SOL     OW76452  14.552   1.059  12.727
24852SOL    HW176453  14.522   0.990  12.787
24852SOL    HW276454  14.526   1.028  12.641
24853SOL     OW76455  10.543   3.312   1.138
24853SOL    HW176456  10.577   3.399   1.162
24853SOL    HW276457  10.469   3.298   1.196
24854SOL     OW76458   1.162   3.946  13.279
24854SOL    HW176459   1.174   3.869  13.335
24854SOL    HW276460   1.110   4.006  13.332
24855SOL     OW76461   9.336   6.125  13.497
24855SOL    HW176462   9.372   6.060  13.437
24855SOL    HW276463   9.401   6.195  13.499
24856SOL     OW76464   7.561  10.863   2.706
24856SOL    HW176465   7.628  10.893   2.644
24856SOL    HW276466   7.553  10.769   2.688
24857SOL     OW76467   4.662   2.090  13.956
24857SOL    HW176468   4.744   2.137  13.942
24857SOL    HW276469   4.614   2.100  13.874
24858SOL     OW76470   9.314  10.454   0.283
24858SOL    HW176471   9.233  10.403   0.291
24858SOL    HW276472   9.323  10.469   0.189
24859SOL     OW76473   3.023  14.398  11.054
24859SOL    HW176474   3.076  14.318  11.056
24859SOL    HW276475   3.035  14.438  11.140
24860SOL     OW76476  12.342   8.794  10.828
24860SOL    HW176477  12.251   8.811  10.801
24860SOL    HW276478  12.386   8.765  10.748
24861SOL     OW76479   0.099   4.321   7.944
24861SOL    HW176480   0.193   4.320   7.962
24861SOL    HW276481   0.092   4.284   7.855
24862SOL     OW76482   6.044   7.128  10.781
24862SOL    HW176483   6.028   7.059  10.716
24862SOL    HW276484   5.956   7.158  10.805
24863SOL     OW76485   4.968   0.660   7.429
24863SOL    HW176486   5.035   0.608   7.385
24863SOL    HW276487   5.003   0.749   7.428
24864SOL     OW76488  13.295  13.048   3.669
24864SOL    HW176489  13.234  13.035   3.596
24864SOL    HW276490  13.337  12.963   3.681
24865SOL     OW76491   7.795  11.594   7.634
24865SOL    HW176492   7.724  11.613   7.695
24865SOL    HW276493   7.833  11.512   7.666
24866SOL     OW76494   4.256   2.620   8.420
24866SOL    HW176495   4.239   2.628   8.326
24866SOL    HW276496   4.248   2.526   8.437
24867SOL     OW76497   0.035   5.280   6.655
24867SOL    HW176498   0.047   5.375   6.662
24867SOL    HW276499  14.832   5.270   6.614
24868SOL     OW76500   1.627  12.655   3.480
24868SOL    HW176501   1.658  12.662   3.570
24868SOL    HW276502   1.540  12.695   3.481
24869SOL     OW76503   7.855  13.035   3.268
24869SOL    HW176504   7.764  13.047   3.242
24869SOL    HW276505   7.866  13.092   3.344
24870SOL     OW76506   9.558   3.357   7.914
24870SOL    HW176507   9.650   3.334   7.900
24870SOL    HW276508   9.530   3.303   7.987
24871SOL     OW76509   9.016  12.458   8.979
24871SOL    HW176510   9.032  12.405   9.058
24871SOL    HW276511   9.103  12.479   8.946
24872SOL     OW76512  11.197   3.178  11.751
24872SOL    HW176513  11.216   3.140  11.837
24872SOL    HW276514  11.232   3.267  11.756
24873SOL     OW76515   0.178   5.350   2.532
24873SOL    HW176516   0.154   5.429   2.581
24873SOL    HW276517   0.175   5.378   2.440
24874SOL     OW76518  13.369  14.355   6.328
24874SOL    HW176519  13.378  14.360   6.233
24874SOL    HW276520  13.357  14.446   6.355
24875SOL     OW76521   0.414  13.094  11.842
24875SOL    HW176522   0.376  13.165  11.790
24875SOL    HW276523   0.457  13.137  11.915
24876SOL     OW76524   1.984   6.936   3.039
24876SOL    HW176525   1.935   6.858   3.065
24876SOL    HW276526   1.934   7.010   3.075
24877SOL     OW76527  11.294   4.549   5.657
24877SOL    HW176528  11.210   4.594   5.662
24877SOL    HW276529  11.313   4.545   5.563
24878SOL     OW76530  14.254   6.538   6.032
24878SOL    HW176531  14.242   6.446   6.053
24878SOL    HW276532  14.265   6.581   6.117
24879SOL     OW76533   5.544   5.465  12.421
24879SOL    HW176534   5.574   5.555  12.423
24879SOL    HW276535   5.452   5.471  12.396
24880SOL     OW76536   2.747   5.229   8.170
24880SOL    HW176537   2.711   5.318   8.161
24880SOL    HW276538   2.673   5.171   8.153
24881SOL     OW76539   9.749   4.508   6.586
24881SOL    HW176540   9.776   4.569   6.517
24881SOL    HW276541   9.656   4.493   6.571
24882SOL     OW76542   4.234   6.100  10.348
24882SOL    HW176543   4.191   6.053  10.419
24882SOL    HW276544   4.185   6.182  10.341
24883SOL     OW76545  11.162  14.746   2.313
24883SOL    HW176546  11.243  14.755   2.262
24883SOL    HW276547  11.147  14.834   2.349
24884SOL     OW76548  10.185   1.695   3.014
24884SOL    HW176549  10.248   1.656   3.076
24884SOL    HW276550  10.100   1.682   3.055
24885SOL     OW76551   2.620   6.491   6.768
24885SOL    HW176552   2.578   6.409   6.742
24885SOL    HW276553   2.580   6.513   6.852
24886SOL     OW76554  10.850  13.187   6.463
24886SOL    HW176555  10.787  13.174   6.533
24886SOL    HW276556  10.923  13.129   6.485
24887SOL     OW76557   0.121  11.967  11.411
24887SOL    HW176558   0.147  12.018  11.335
24887SOL    HW276559   0.193  11.976  11.473
24888SOL     OW76560   8.991   6.369  11.967
24888SOL    HW176561   9.078   6.333  11.951
24888SOL    HW276562   9.001   6.419  12.048
24889SOL     OW76563  10.710  13.740  11.912
24889SOL    HW176564  10.672  13.681  11.977
24889SOL    HW276565  10.641  13.751  11.847
24890SOL     OW76566   6.243  13.601   9.370
24890SOL    HW176567   6.154  13.631   9.385
24890SOL    HW276568   6.280  13.590   9.457
24891SOL     OW76569   6.180   0.166   9.119
24891SOL    HW176570   6.181   0.085   9.169
24891SOL    HW276571   6.185   0.235   9.185
24892SOL     OW76572   4.564   1.697   5.313
24892SOL    HW176573   4.606   1.731   5.392
24892SOL    HW276574   4.614   1.617   5.293
24893SOL     OW76575  10.869  10.858   6.673
24893SOL    HW176576  10.943  10.913   6.645
24893SOL    HW276577  10.802  10.875   6.607
24894SOL     OW76578   1.402   6.933   8.756
24894SOL    HW176579   1.360   6.885   8.828
24894SOL    HW276580   1.381   6.882   8.678
24895SOL     OW76581   6.989  14.678  11.696
24895SOL    HW176582   6.990  14.670  11.791
24895SOL    HW276583   7.007  14.771  11.680
24896SOL     OW76584   9.623  11.383   9.349
24896SOL    HW176585   9.637  11.433   9.429
24896SOL    HW276586   9.543  11.421   9.311
24897SOL     OW76587   6.094   4.591   2.418
24897SOL    HW176588   6.063   4.674   2.454
24897SOL    HW276589   6.156   4.617   2.349
24898SOL     OW76590  14.243   9.638   6.612
24898SOL    HW176591  14.275   9.714   6.660
24898SOL    HW276592  14.159   9.618   6.652
24899SOL     OW76593  12.760  11.372   2.994
24899SOL    HW176594  12.776  11.417   2.911
24899SOL    HW276595  12.767  11.279   2.973
24900SOL     OW76596  13.671  10.641   4.813
24900SOL    HW176597  13.740  10.659   4.750
24900SOL    HW276598  13.690  10.553   4.846
24901SOL     OW76599   5.806   8.837  11.482
24901SOL    HW176600   5.882   8.784  11.456
24901SOL    HW276601   5.804   8.830  11.577
24902SOL     OW76602   5.110  13.108   4.283
24902SOL    HW176603   5.181  13.055   4.246
24902SOL    HW276604   5.042  13.107   4.215
24903SOL     OW76605   8.498   2.579  13.071
24903SOL    HW176606   8.479   2.634  12.995
24903SOL    HW276607   8.528   2.640  13.138
24904SOL     OW76608  14.165  14.765   5.328
24904SOL    HW176609  14.170  14.732   5.418
24904SOL    HW276610  14.165  14.686   5.273
24905SOL     OW76611   6.626   9.838  11.866
24905SOL    HW176612   6.691   9.810  11.930
24905SOL    HW276613   6.647   9.788  11.787
24906SOL     OW76614   9.391   6.603   2.542
24906SOL    HW176615   9.337   6.587   2.465
24906SOL    HW276616   9.382   6.697   2.559
24907SOL     OW76617   6.209  14.661   3.454
24907SOL    HW176618   6.198  14.746   3.412
24907SOL    HW276619   6.265  14.678   3.529
24908SOL     OW76620   9.382   3.912  10.226
24908SOL    HW176621   9.404   3.828  10.266
24908SOL    HW276622   9.300   3.938  10.268
24909SOL     OW76623   0.893   5.953   1.338
24909SOL    HW176624   0.848   5.908   1.267
24909SOL    HW276625   0.823   5.995   1.389
24910SOL     OW76626   2.100   4.316  12.764
24910SOL    HW176627   2.020   4.301  12.714
24910SOL    HW276628   2.070   4.345  12.850
24911SOL     OW76629   7.663  14.183   0.246
24911SOL    HW176630   7.664  14.088   0.237
24911SOL    HW276631   7.653  14.215   0.156
24912SOL     OW76632  10.858   9.254   7.179
24912SOL    HW176633  10.777   9.304   7.194
24912SOL    HW276634  10.909   9.268   7.259
24913SOL     OW76635  13.900  14.642  14.387
24913SOL    HW176636  13.871  14.708  14.323
24913SOL    HW276637  13.916  14.564  14.334
24914SOL     OW76638   0.383   4.684   1.634
24914SOL    HW176639   0.371   4.633   1.714
24914SOL    HW276640   0.446   4.634   1.583
24915SOL     OW76641   9.566   1.598   7.598
24915SOL    HW176642   9.555   1.692   7.580
24915SOL    HW276643   9.477   1.565   7.608
24916SOL     OW76644   1.969   0.173   1.658
24916SOL    HW176645   1.893   0.120   1.683
24916SOL    HW276646   2.002   0.132   1.578
24917SOL     OW76647  14.544   4.858  13.990
24917SOL    HW176648  14.635   4.885  13.982
24917SOL    HW276649  14.527   4.808  13.910
24918SOL     OW76650   5.593   8.272  11.388
24918SOL    HW176651   5.680   8.283  11.351
24918SOL    HW276652   5.606   8.216  11.464
24919SOL     OW76653  10.643  11.691   0.951
24919SOL    HW176654  10.673  11.744   1.025
24919SOL    HW276655  10.720  11.683   0.894
24920SOL     OW76656  14.869   4.432   9.190
24920SOL    HW176657   0.023   4.435   9.279
24920SOL    HW276658   0.010   4.344   9.158
24921SOL     OW76659   8.988  12.410   1.878
24921SOL    HW176660   8.943  12.335   1.918
24921SOL    HW276661   8.933  12.485   1.900
24922SOL     OW76662   4.188   7.604   2.685
24922SOL    HW176663   4.154   7.666   2.750
24922SOL    HW276664   4.115   7.589   2.626
24923SOL     OW76665  10.707   5.410  13.303
24923SOL    HW176666  10.613   5.421  13.317
24923SOL    HW276667  10.747   5.476  13.359
24924SOL     OW76668   7.026   3.848  11.428
24924SOL    HW176669   7.096   3.801  11.472
24924SOL    HW276670   7.057   3.861  11.339
24925SOL     OW76671   6.950   9.380   9.311
24925SOL    HW176672   7.013   9.401   9.380
24925SOL    HW276673   6.970   9.290   9.286
24926SOL     OW76674   5.236   1.578   7.159
24926SOL    HW176675   5.306   1.581   7.225
24926SOL    HW276676   5.160   1.615   7.204
24927SOL     OW76677   7.885   3.365   1.525
24927SOL    HW176678   7.923   3.315   1.452
24927SOL    HW276679   7.806   3.404   1.487
24928SOL     OW76680   2.037   2.772   1.338
24928SOL    HW176681   1.997   2.825   1.270
24928SOL    HW276682   1.997   2.685   1.327
24929SOL     OW76683   2.620   0.502   5.850
24929SOL    HW176684   2.677   0.476   5.923
24929SOL    HW276685   2.568   0.574   5.886
24930SOL     OW76686   3.506  14.109  12.713
24930SOL    HW176687   3.561  14.049  12.763
24930SOL    HW276688   3.530  14.094  12.621
24931SOL     OW76689  10.116   9.345   5.048
24931SOL    HW176690  10.133   9.357   5.141
24931SOL    HW276691  10.111   9.434   5.012
24932SOL     OW76692   9.541   3.912  12.363
24932SOL    HW176693   9.482   3.934  12.435
24932SOL    HW276694   9.538   3.988  12.305
24933SOL     OW76695   8.046   0.970  14.584
24933SOL    HW176696   7.961   0.931  14.565
24933SOL    HW276697   8.075   1.006  14.500
24934SOL     OW76698  14.227  11.053   8.811
24934SOL    HW176699  14.134  11.031   8.808
24934SOL    HW276700  14.266  10.983   8.863
24935SOL     OW76701   1.285   4.969   3.767
24935SOL    HW176702   1.268   4.926   3.684
24935SOL    HW276703   1.298   4.897   3.829
24936SOL     OW76704   2.011   5.229   2.781
24936SOL    HW176705   1.951   5.156   2.767
24936SOL    HW276706   2.088   5.189   2.823
24937SOL     OW76707   8.771   8.099  11.222
24937SOL    HW176708   8.805   8.015  11.193
24937SOL    HW276709   8.832   8.164  11.186
24938SOL     OW76710   5.963   6.757   9.113
24938SOL    HW176711   5.907   6.796   9.181
24938SOL    HW276712   5.936   6.666   9.110
24939SOL     OW76713   4.001   4.913  13.734
24939SOL    HW176714   3.924   4.884  13.783
24939SOL    HW276715   3.973   4.908  13.642
24940SOL     OW76716  10.603   3.003   8.051
24940SOL    HW176717  10.635   3.023   7.963
24940SOL    HW276718  10.600   2.907   8.055
24941SOL     OW76719   3.465   1.144   7.580
24941SOL    HW176720   3.459   1.236   7.553
24941SOL    HW276721   3.379   1.125   7.617
24942SOL     OW76722   8.499   7.798   0.409
24942SOL    HW176723   8.451   7.855   0.469
24942SOL    HW276724   8.467   7.709   0.429
24943SOL     OW76725  10.984  14.176   3.321
24943SOL    HW176726  10.929  14.102   3.296
24943SOL    HW276727  10.971  14.240   3.251
24944SOL     OW76728   3.759   1.544  13.826
24944SOL    HW176729   3.681   1.520  13.875
24944SOL    HW276730   3.779   1.468  13.771
24945SOL     OW76731  14.632  11.378  10.849
24945SOL    HW176732  14.629  11.315  10.922
24945SOL    HW276733  14.546  11.371  10.809
24946SOL     OW76734   7.741  10.371   1.389
24946SOL    HW176735   7.673  10.327   1.338
24946SOL    HW276736   7.750  10.317   1.467
24947SOL     OW76737   0.367  14.060  10.365
24947SOL    HW176738   0.411  13.977  10.383
24947SOL    HW276739   0.345  14.056  10.272
24948SOL     OW76740   8.957   2.520   5.591
24948SOL    HW176741   8.984   2.547   5.679
24948SOL    HW276742   8.874   2.565   5.576
24949SOL     OW76743  13.221   1.810   9.386
24949SOL    HW176744  13.277   1.782   9.314
24949SOL    HW276745  13.282   1.832   9.457
24950SOL     OW76746  12.301   1.883   4.105
24950SOL    HW176747  12.381   1.935   4.102
24950SOL    HW276748  12.240   1.936   4.157
24951SOL     OW76749   6.370   3.541   9.533
24951SOL    HW176750   6.448   3.513   9.485
24951SOL    HW276751   6.391   3.628   9.566
24952SOL     OW76752   7.643   4.250   9.377
24952SOL    HW176753   7.731   4.239   9.412
24952SOL    HW276754   7.648   4.216   9.287
24953SOL     OW76755   6.941  10.588   6.709
24953SOL    HW176756   6.946  10.684   6.702
24953SOL    HW276757   6.950  10.558   6.619
24954SOL     OW76758   6.621   0.927   1.955
24954SOL    HW176759   6.562   0.852   1.948
24954SOL    HW276760   6.690   0.897   2.014
24955SOL     OW76761   8.198   1.284  11.673
24955SOL    HW176762   8.161   1.196  11.682
24955SOL    HW276763   8.192   1.321  11.761
24956SOL     OW76764   8.191  13.052  14.310
24956SOL    HW176765   8.119  13.034  14.370
24956SOL    HW276766   8.254  12.981  14.326
24957SOL     OW76767   1.463  11.520   6.719
24957SOL    HW176768   1.518  11.559   6.787
24957SOL    HW276769   1.417  11.449   6.764
24958SOL     OW76770   9.540   5.517   1.652
24958SOL    HW176771   9.624   5.560   1.637
24958SOL    HW276772   9.511   5.549   1.737
24959SOL     OW76773   5.288   4.273  14.832
24959SOL    HW176774   5.286   4.288   0.045
24959SOL    HW276775   5.373   4.232  14.817
24960SOL     OW76776   7.737   4.147   1.274
24960SOL    HW176777   7.658   4.109   1.313
24960SOL    HW276778   7.802   4.142   1.344
24961SOL     OW76779   4.349   3.386  11.076
24961SOL    HW176780   4.410   3.317  11.102
24961SOL    HW276781   4.311   3.416  11.158
24962SOL     OW76782   3.645   5.163  14.213
24962SOL    HW176783   3.623   5.073  14.191
24962SOL    HW276784   3.651   5.208  14.128
24963SOL     OW76785   0.460  14.339  10.860
24963SOL    HW176786   0.496  14.294  10.936
24963SOL    HW276787   0.445  14.270  10.795
24964SOL     OW76788   7.711   3.635   8.018
24964SOL    HW176789   7.788   3.579   8.032
24964SOL    HW276790   7.659   3.588   7.953
24965SOL     OW76791   1.420   1.184   3.231
24965SOL    HW176792   1.388   1.148   3.149
24965SOL    HW276793   1.385   1.125   3.298
24966SOL     OW76794   9.850  12.539  12.011
24966SOL    HW176795   9.789  12.520  12.083
24966SOL    HW276796   9.838  12.632  11.994
24967SOL     OW76797  14.831  10.020   8.255
24967SOL    HW176798   0.029  10.038   8.206
24967SOL    HW276799  14.792  10.106   8.271
24968SOL     OW76800  13.789   9.635  14.115
24968SOL    HW176801  13.759   9.707  14.059
24968SOL    HW276802  13.808   9.564  14.053
24969SOL     OW76803  12.079   1.533   4.672
24969SOL    HW176804  12.101   1.494   4.587
24969SOL    HW276805  12.139   1.607   4.681
24970SOL     OW76806  14.109  13.616   2.899
24970SOL    HW176807  14.175  13.649   2.838
24970SOL    HW276808  14.159  13.566   2.964
24971SOL     OW76809   2.636  13.721   2.363
24971SOL    HW176810   2.543  13.724   2.344
24971SOL    HW276811   2.656  13.628   2.374
24972SOL     OW76812   2.759  11.760  14.691
24972SOL    HW176813   2.725  11.709  14.618
24972SOL    HW276814   2.816  11.700  14.738
24973SOL     OW76815  13.917  12.021  10.191
24973SOL    HW176816  13.998  12.002  10.237
24973SOL    HW276817  13.915  11.960  10.117
24974SOL     OW76818  13.165   4.386  13.629
24974SOL    HW176819  13.240   4.425  13.673
24974SOL    HW276820  13.183   4.292  13.629
24975SOL     OW76821   3.549   5.870  13.536
24975SOL    HW176822   3.492   5.946  13.530
24975SOL    HW276823   3.549   5.847  13.629
24976SOL     OW76824   1.072  14.205   5.627
24976SOL    HW176825   1.119  14.140   5.575
24976SOL    HW276826   0.997  14.230   5.572
24977SOL     OW76827  11.391   6.746   6.580
24977SOL    HW176828  11.395   6.803   6.503
24977SOL    HW276829  11.471   6.764   6.628
24978SOL     OW76830  10.019   8.401   2.493
24978SOL    HW176831  10.071   8.451   2.556
24978SOL    HW276832   9.931   8.437   2.502
24979SOL     OW76833   0.742   5.245   0.826
24979SOL    HW176834   0.784   5.324   0.859
24979SOL    HW276835   0.664   5.276   0.781
24980SOL     OW76836   7.168   5.006   4.061
24980SOL    HW176837   7.145   5.091   4.022
24980SOL    HW276838   7.256   4.988   4.029
24981SOL     OW76839   8.118   0.581  14.024
24981SOL    HW176840   8.093   0.588  13.932
24981SOL    HW276841   8.211   0.602  14.026
24982SOL     OW76842   5.624   1.180   5.545
24982SOL    HW176843   5.635   1.242   5.473
24982SOL    HW276844   5.586   1.232   5.616
24983SOL     OW76845  10.219   0.739   5.889
24983SOL    HW176846  10.128   0.743   5.919
24983SOL    HW276847  10.266   0.798   5.947
24984SOL     OW76848   4.306  11.480   6.762
24984SOL    HW176849   4.274  11.568   6.784
24984SOL    HW276850   4.349  11.450   6.843
24985SOL     OW76851   9.224   8.144   8.516
24985SOL    HW176852   9.260   8.077   8.457
24985SOL    HW276853   9.135   8.159   8.483
24986SOL     OW76854   9.197  12.095   7.045
24986SOL    HW176855   9.134  12.141   7.101
24986SOL    HW276856   9.240  12.033   7.104
24987SOL     OW76857   3.530   5.013  12.822
24987SOL    HW176858   3.488   5.045  12.902
24987SOL    HW276859   3.487   4.929  12.804
24988SOL     OW76860   7.338  14.814   5.999
24988SOL    HW176861   7.344  14.720   5.983
24988SOL    HW276862   7.419  14.849   5.962
24989SOL     OW76863  10.555   3.288   3.509
24989SOL    HW176864  10.520   3.274   3.421
24989SOL    HW276865  10.486   3.257   3.567
24990SOL     OW76866   4.178  12.746   4.655
24990SOL    HW176867   4.249  12.770   4.715
24990SOL    HW276868   4.221  12.695   4.586
24991SOL     OW76869  12.014  11.444   2.508
24991SOL    HW176870  12.053  11.437   2.594
24991SOL    HW276871  11.970  11.530   2.508
24992SOL     OW76872  10.112   0.554   8.950
24992SOL    HW176873  10.039   0.616   8.955
24992SOL    HW276874  10.082   0.477   8.997
24993SOL     OW76875   4.883   3.714  13.612
24993SOL    HW176876   4.875   3.663  13.531
24993SOL    HW276877   4.819   3.785  13.601
24994SOL     OW76878   6.416   1.957   9.421
24994SOL    HW176879   6.470   1.922   9.350
24994SOL    HW276880   6.459   1.927   9.501
24995SOL     OW76881  10.264   2.167   8.891
24995SOL    HW176882  10.355   2.142   8.911
24995SOL    HW276883  10.272   2.232   8.821
24996SOL     OW76884   8.943   7.282  12.348
24996SOL    HW176885   8.923   7.292  12.441
24996SOL    HW276886   8.900   7.357  12.306
24997SOL     OW76887   0.317   2.968   0.955
24997SOL    HW176888   0.412   2.957   0.958
24997SOL    HW276889   0.303   3.059   0.980
24998SOL     OW76890   7.864   6.703  10.687
24998SOL    HW176891   7.836   6.772  10.747
24998SOL    HW276892   7.926   6.650  10.738
24999SOL     OW76893  11.975   8.022   6.555
24999SOL    HW176894  11.901   7.981   6.599
24999SOL    HW276895  12.048   7.961   6.569
25000SOL     OW76896  13.267  14.718   1.313
25000SOL    HW176897  13.267  14.699   1.407
25000SOL    HW276898  13.355  14.750   1.295
25001SOL     OW76899   2.579  13.246  11.830
25001SOL    HW176900   2.492  13.220  11.798
25001SOL    HW276901   2.636  13.235  11.754
25002SOL     OW76902   9.703   8.786   4.803
25002SOL    HW176903   9.750   8.711   4.840
25002SOL    HW276904   9.770   8.851   4.787
25003SOL     OW76905  14.609  13.329   7.339
25003SOL    HW176906  14.684  13.379   7.370
25003SOL    HW276907  14.558  13.392   7.287
25004SOL     OW76908   0.675   1.772   7.495
25004SOL    HW176909   0.636   1.854   7.526
25004SOL    HW276910   0.759   1.766   7.540
25005SOL     OW76911   8.914  12.876   3.465
25005SOL    HW176912   8.919  12.814   3.538
25005SOL    HW276913   8.905  12.961   3.507
25006SOL     OW76914   1.031   8.918   8.027
25006SOL    HW176915   1.050   8.881   7.941
25006SOL    HW276916   0.938   8.943   8.022
25007SOL     OW76917   5.782  12.587  11.512
25007SOL    HW176918   5.786  12.518  11.578
25007SOL    HW276919   5.836  12.555  11.440
25008SOL     OW76920  13.736   9.846  13.200
25008SOL    HW176921  13.698   9.818  13.283
25008SOL    HW276922  13.664   9.887  13.152
25009SOL     OW76923   2.302   2.218  10.605
25009SOL    HW176924   2.247   2.244  10.531
25009SOL    HW276925   2.369   2.162  10.566
25010SOL     OW76926  12.548   3.073   2.807
25010SOL    HW176927  12.586   3.036   2.887
25010SOL    HW276928  12.610   3.051   2.738
25011SOL     OW76929   8.687   5.467   3.394
25011SOL    HW176930   8.663   5.451   3.485
25011SOL    HW276931   8.742   5.393   3.370
25012SOL     OW76932  13.846   3.428   1.320
25012SOL    HW176933  13.915   3.490   1.297
25012SOL    HW276934  13.889   3.364   1.376
25013SOL     OW76935  11.220  10.350   3.839
25013SOL    HW176936  11.192  10.407   3.768
25013SOL    HW276937  11.143  10.339   3.894
25014SOL     OW76938  13.170   1.169   8.311
25014SOL    HW176939  13.247   1.129   8.351
25014SOL    HW276940  13.154   1.247   8.365
25015SOL     OW76941  12.552   9.841  11.028
25015SOL    HW176942  12.625   9.834  11.090
25015SOL    HW276943  12.473   9.837  11.083
25016SOL     OW76944   5.334  10.787   2.071
25016SOL    HW176945   5.363  10.847   2.140
25016SOL    HW276946   5.239  10.783   2.082
25017SOL     OW76947   4.352  14.201   4.853
25017SOL    HW176948   4.272  14.233   4.895
25017SOL    HW276949   4.398  14.280   4.826
25018SOL     OW76950   8.878  12.493  11.931
25018SOL    HW176951   8.886  12.564  11.996
25018SOL    HW276952   8.894  12.413  11.981
25019SOL     OW76953   3.252  14.666   2.401
25019SOL    HW176954   3.236  14.754   2.435
25019SOL    HW276955   3.289  14.681   2.313
25020SOL     OW76956   1.763   1.166  13.747
25020SOL    HW176957   1.684   1.175  13.801
25020SOL    HW276958   1.729   1.156  13.658
25021SOL     OW76959  14.633  10.074   3.634
25021SOL    HW176960  14.604  10.133   3.565
25021SOL    HW276961  14.726  10.059   3.617
25022SOL     OW76962  12.805   0.730   5.900
25022SOL    HW176963  12.892   0.767   5.888
25022SOL    HW276964  12.757   0.797   5.949
25023SOL     OW76965   1.283   2.556   9.098
25023SOL    HW176966   1.318   2.642   9.122
25023SOL    HW276967   1.193   2.557   9.131
25024SOL     OW76968   1.500   0.397   4.353
25024SOL    HW176969   1.487   0.367   4.443
25024SOL    HW276970   1.475   0.489   4.354
25025SOL     OW76971   1.853   8.594  13.725
25025SOL    HW176972   1.940   8.562  13.701
25025SOL    HW276973   1.822   8.640  13.647
25026SOL     OW76974   1.995   6.227   4.325
25026SOL    HW176975   2.035   6.250   4.409
25026SOL    HW276976   2.066   6.237   4.262
25027SOL     OW76977   1.153   5.256  11.600
25027SOL    HW176978   1.123   5.325  11.661
25027SOL    HW276979   1.200   5.304  11.532
25028SOL     OW76980   0.625   5.357   7.968
25028SOL    HW176981   0.603   5.265   7.985
25028SOL    HW276982   0.562   5.406   8.020
25029SOL     OW76983   3.847   0.465   8.514
25029SOL    HW176984   3.860   0.517   8.594
25029SOL    HW276985   3.910   0.500   8.452
25030SOL     OW76986   5.425   9.291   8.309
25030SOL    HW176987   5.359   9.271   8.375
25030SOL    HW276988   5.406   9.381   8.282
25031SOL     OW76989  14.880   7.605   5.307
25031SOL    HW176990  14.804   7.629   5.361
25031SOL    HW276991   0.032   7.688   5.275
25032SOL     OW76992   1.700  12.865   8.318
25032SOL    HW176993   1.751  12.938   8.354
25032SOL    HW276994   1.643  12.838   8.390
25033SOL     OW76995   1.072  11.746   0.545
25033SOL    HW176996   0.984  11.710   0.560
25033SOL    HW276997   1.071  11.774   0.453
25034SOL     OW76998   6.795   0.923  12.588
25034SOL    HW176999   6.842   0.861  12.532
25034SOL    HW277000   6.717   0.874  12.616
25035SOL     OW77001  11.375   0.633  10.802
25035SOL    HW177002  11.344   0.721  10.820
25035SOL    HW277003  11.378   0.590  10.887
25036SOL     OW77004   7.055   2.584   5.885
25036SOL    HW177005   7.059   2.583   5.981
25036SOL    HW277006   7.083   2.672   5.861
25037SOL     OW77007   8.926  14.499   1.851
25037SOL    HW177008   8.907  14.587   1.884
25037SOL    HW277009   9.017  14.504   1.823
25038SOL     OW77010   4.050   3.630   1.335
25038SOL    HW177011   4.077   3.626   1.244
25038SOL    HW277012   3.976   3.570   1.342
25039SOL     OW77013   9.826  13.569   0.418
25039SOL    HW177014   9.799  13.630   0.351
25039SOL    HW277015   9.806  13.482   0.382
25040SOL     OW77016   9.441  14.442  11.745
25040SOL    HW177017   9.472  14.528  11.717
25040SOL    HW277018   9.345  14.449  11.742
25041SOL     OW77019   3.206   0.272   5.757
25041SOL    HW177020   3.136   0.227   5.711
25041SOL    HW277021   3.250   0.324   5.689
25042SOL     OW77022   8.399   0.123  11.771
25042SOL    HW177023   8.424   0.109  11.680
25042SOL    HW277024   8.430   0.045  11.817
25043SOL     OW77025   8.674   8.470  10.684
25043SOL    HW177026   8.581   8.451  10.693
25043SOL    HW277027   8.706   8.403  10.622
25044SOL     OW77028  13.216   6.328   3.928
25044SOL    HW177029  13.226   6.245   3.882
25044SOL    HW277030  13.158   6.308   4.001
25045SOL     OW77031  10.789   0.324  10.570
25045SOL    HW177032  10.772   0.412  10.605
25045SOL    HW277033  10.809   0.338  10.478
25046SOL     OW77034   5.929   0.072  13.759
25046SOL    HW177035   5.872   0.069  13.682
25046SOL    HW277036   5.999   0.132  13.736
25047SOL     OW77037   5.599   5.004  10.591
25047SOL    HW177038   5.639   5.017  10.677
25047SOL    HW277039   5.655   5.053  10.531
25048SOL     OW77040  11.457   7.563   7.727
25048SOL    HW177041  11.411   7.495   7.777
25048SOL    HW277042  11.544   7.525   7.711
25049SOL     OW77043   8.085   5.073   7.824
25049SOL    HW177044   8.087   5.024   7.742
25049SOL    HW277045   7.999   5.053   7.862
25050SOL     OW77046  12.888   4.323   7.876
25050SOL    HW177047  12.835   4.391   7.835
25050SOL    HW277048  12.900   4.352   7.966
25051SOL     OW77049   9.303  13.153   5.775
25051SOL    HW177050   9.380  13.162   5.831
25051SOL    HW277051   9.235  13.120   5.833
25052SOL     OW77052   5.492   2.437   4.799
25052SOL    HW177053   5.578   2.433   4.840
25052SOL    HW277054   5.434   2.464   4.870
25053SOL     OW77055   7.646   1.307   8.010
25053SOL    HW177056   7.701   1.290   7.934
25053SOL    HW277057   7.556   1.298   7.977
25054SOL     OW77058   7.786   5.322  11.568
25054SOL    HW177059   7.783   5.227  11.555
25054SOL    HW277060   7.694   5.347  11.578
25055SOL     OW77061   9.981   5.289   1.697
25055SOL    HW177062  10.060   5.237   1.710
25055SOL    HW277063   9.979   5.348   1.772
25056SOL     OW77064  12.366  10.454   8.552
25056SOL    HW177065  12.386  10.492   8.637
25056SOL    HW277066  12.449  10.457   8.503
25057SOL     OW77067   8.184   5.582  11.576
25057SOL    HW177068   8.096   5.565  11.542
25057SOL    HW277069   8.239   5.591  11.499
25058SOL     OW77070   2.824   0.493   9.296
25058SOL    HW177071   2.740   0.457   9.268
25058SOL    HW277072   2.883   0.476   9.222
25059SOL     OW77073  13.297   6.877   0.166
25059SOL    HW177074  13.206   6.904   0.152
25059SOL    HW277075  13.300   6.786   0.136
25060SOL     OW77076  14.340   8.114   8.953
25060SOL    HW177077  14.408   8.115   8.886
25060SOL    HW277078  14.362   8.188   9.010
25061SOL     OW77079  12.544   1.250   8.909
25061SOL    HW177080  12.555   1.330   8.960
25061SOL    HW277081  12.628   1.205   8.918
25062SOL     OW77082   4.596  12.208   7.142
25062SOL    HW177083   4.643  12.260   7.077
25062SOL    HW277084   4.547  12.144   7.091
25063SOL     OW77085   2.994   1.982   1.764
25063SOL    HW177086   2.943   2.024   1.833
25063SOL    HW277087   3.075   2.033   1.761
25064SOL     OW77088   3.096  10.180   6.519
25064SOL    HW177089   3.170  10.136   6.476
25064SOL    HW277090   3.065  10.117   6.584
25065SOL     OW77091   5.499   8.567   5.333
25065SOL    HW177092   5.452   8.603   5.407
25065SOL    HW277093   5.492   8.472   5.343
25066SOL     OW77094  10.667   7.787  11.971
25066SOL    HW177095  10.647   7.854  12.036
25066SOL    HW277096  10.614   7.712  11.996
25067SOL     OW77097  10.800   6.203   6.278
25067SOL    HW177098  10.770   6.243   6.197
25067SOL    HW277099  10.770   6.262   6.347
25068SOL     OW77100   7.746   0.418  10.239
25068SOL    HW177101   7.719   0.334  10.278
25068SOL    HW277102   7.690   0.483  10.282
25069SOL     OW77103   9.960   7.775   1.975
25069SOL    HW177104   9.986   7.866   1.961
25069SOL    HW277105   9.865   7.779   1.986
25070SOL     OW77106   6.340   5.612   8.891
25070SOL    HW177107   6.245   5.621   8.886
25070SOL    HW277108   6.368   5.590   8.802
25071SOL     OW77109   4.274  13.371   1.202
25071SOL    HW177110   4.343  13.315   1.167
25071SOL    HW277111   4.315  13.457   1.209
25072SOL     OW77112  11.879  10.767  13.586
25072SOL    HW177113  11.969  10.734  13.576
25072SOL    HW277114  11.878  10.806  13.673
25073SOL     OW77115   8.466  12.672   5.940
25073SOL    HW177116   8.520  12.702   6.014
25073SOL    HW277117   8.376  12.688   5.969
25074SOL     OW77118  14.510   1.253  14.262
25074SOL    HW177119  14.432   1.296  14.225
25074SOL    HW277120  14.508   1.276  14.355
25075SOL     OW77121   5.915  11.509   6.042
25075SOL    HW177122   5.890  11.476   6.128
25075SOL    HW277123   5.918  11.431   5.986
25076SOL     OW77124   5.703   8.095   8.903
25076SOL    HW177125   5.716   8.180   8.861
25076SOL    HW277126   5.697   8.114   8.996
25077SOL     OW77127   7.525  12.175  10.447
25077SOL    HW177128   7.503  12.083  10.433
25077SOL    HW277129   7.529  12.213  10.359
25078SOL     OW77130   6.552  10.541  13.221
25078SOL    HW177131   6.547  10.452  13.187
25078SOL    HW277132   6.525  10.534  13.312
25079SOL     OW77133  10.893   4.038  14.522
25079SOL    HW177134  10.967   3.983  14.547
25079SOL    HW277135  10.930   4.106  14.466
25080SOL     OW77136  14.437  10.550   9.501
25080SOL    HW177137  14.515  10.505   9.533
25080SOL    HW277138  14.447  10.641   9.530
25081SOL     OW77139  12.324  13.389  12.188
25081SOL    HW177140  12.392  13.414  12.251
25081SOL    HW277141  12.344  13.441  12.110
25082SOL     OW77142  10.342   5.063   7.490
25082SOL    HW177143  10.403   5.125   7.531
25082SOL    HW277144  10.255   5.095   7.516
25083SOL     OW77145   4.784   6.913   1.755
25083SOL    HW177146   4.826   6.828   1.770
25083SOL    HW277147   4.791   6.958   1.839
25084SOL     OW77148   5.612   1.346   7.619
25084SOL    HW177149   5.577   1.282   7.557
25084SOL    HW277150   5.534   1.382   7.662
25085SOL     OW77151   0.934   3.285   5.534
25085SOL    HW177152   0.892   3.234   5.603
25085SOL    HW277153   1.028   3.270   5.546
25086SOL     OW77154   7.358   6.737  14.267
25086SOL    HW177155   7.284   6.678  14.272
25086SOL    HW277156   7.429   6.692  14.313
25087SOL     OW77157   0.757   3.081  14.743
25087SOL    HW177158   0.725   3.108  14.657
25087SOL    HW277159   0.691   3.112  14.805
25088SOL     OW77160   5.501   9.593   2.127
25088SOL    HW177161   5.520   9.614   2.218
25088SOL    HW277162   5.430   9.529   2.131
25089SOL     OW77163   8.955   8.691   8.648
25089SOL    HW177164   9.011   8.768   8.662
25089SOL    HW277165   8.943   8.654   8.736
25090SOL     OW77166   2.092   1.857   1.935
25090SOL    HW177167   2.182   1.837   1.961
25090SOL    HW277168   2.095   1.862   1.840
25091SOL     OW77169  10.536   7.925   5.475
25091SOL    HW177170  10.584   7.863   5.420
25091SOL    HW277171  10.505   7.992   5.414
25092SOL     OW77172   2.292   6.659   7.270
25092SOL    HW177173   2.318   6.630   7.183
25092SOL    HW277174   2.367   6.639   7.326
25093SOL     OW77175   3.497  12.805   6.864
25093SOL    HW177176   3.542  12.883   6.896
25093SOL    HW277177   3.432  12.838   6.802
25094SOL     OW77178   1.252   7.867  10.348
25094SOL    HW177179   1.292   7.782  10.364
25094SOL    HW277180   1.283   7.922  10.420
25095SOL     OW77181   6.627   3.147   6.086
25095SOL    HW177182   6.597   3.084   6.021
25095SOL    HW277183   6.603   3.232   6.049
25096SOL     OW77184  10.586  10.348  10.064
25096SOL    HW177185  10.663  10.392  10.027
25096SOL    HW277186  10.546  10.303   9.989
25097SOL     OW77187  10.122   3.363   3.994
25097SOL    HW177188  10.050   3.427   3.999
25097SOL    HW277189  10.189   3.398   4.053
25098SOL     OW77190   9.265   9.424  10.981
25098SOL    HW177191   9.294   9.335  10.960
25098SOL    HW277192   9.249   9.464  10.895
25099SOL     OW77193  10.764  13.421  14.443
25099SOL    HW177194  10.830  13.487  14.462
25099SOL    HW277195  10.745  13.380  14.527
25100SOL     OW77196   0.699   0.366   5.511
25100SOL    HW177197   0.675   0.341   5.600
25100SOL    HW277198   0.780   0.416   5.522
25101SOL     OW77199  10.944   5.304   6.745
25101SOL    HW177200  10.953   5.222   6.793
25101SOL    HW277201  10.852   5.304   6.716
25102SOL     OW77202   3.443  13.096   5.498
25102SOL    HW177203   3.525  13.105   5.450
25102SOL    HW277204   3.469  13.083   5.589
25103SOL     OW77205  10.903   6.462   1.701
25103SOL    HW177206  10.886   6.370   1.683
25103SOL    HW277207  10.999   6.470   1.698
25104SOL     OW77208   0.603   9.453  11.732
25104SOL    HW177209   0.659   9.400  11.790
25104SOL    HW277210   0.659   9.526  11.706
25105SOL     OW77211   7.618  14.479  11.453
25105SOL    HW177212   7.618  14.409  11.517
25105SOL    HW277213   7.683  14.542  11.485
25106SOL     OW77214   1.393   8.450  14.010
25106SOL    HW177215   1.407   8.427  13.919
25106SOL    HW277216   1.470   8.416  14.056
25107SOL     OW77217   3.753   1.470   0.168
25107SOL    HW177218   3.714   1.404   0.226
25107SOL    HW277219   3.815   1.516   0.225
25108SOL     OW77220  11.165   2.385   5.859
25108SOL    HW177221  11.224   2.453   5.891
25108SOL    HW277222  11.185   2.308   5.912
25109SOL     OW77223  10.584  10.060  14.832
25109SOL    HW177224  10.567  10.132  14.772
25109SOL    HW277225  10.594   9.983  14.776
25110SOL     OW77226   3.841   8.766   5.435
25110SOL    HW177227   3.860   8.835   5.372
25110SOL    HW277228   3.814   8.812   5.514
25111SOL     OW77229   8.642   3.376  13.530
25111SOL    HW177230   8.691   3.298  13.504
25111SOL    HW277231   8.710   3.442  13.548
25112SOL     OW77232  14.057   5.838   7.617
25112SOL    HW177233  14.007   5.905   7.665
25112SOL    HW277234  14.148   5.854   7.641
25113SOL     OW77235   8.187   6.457   7.440
25113SOL    HW177236   8.270   6.500   7.418
25113SOL    HW277237   8.137   6.523   7.488
25114SOL     OW77238  14.662   8.108   9.281
25114SOL    HW177239  14.608   8.177   9.318
25114SOL    HW277240  14.749   8.147   9.271
25115SOL     OW77241   9.346   6.042   2.463
25115SOL    HW177242   9.295   5.987   2.522
25115SOL    HW277243   9.311   6.024   2.376
25116SOL     OW77244   4.559   7.005  11.460
25116SOL    HW177245   4.543   6.972  11.372
25116SOL    HW277246   4.488   7.067  11.476
25117SOL     OW77247   5.138  12.584   3.532
25117SOL    HW177248   5.209  12.647   3.518
25117SOL    HW277249   5.175  12.519   3.592
25118SOL     OW77250   5.023  13.325  11.433
25118SOL    HW177251   5.094  13.308  11.495
25118SOL    HW277252   5.002  13.239  11.397
25119SOL     OW77253   9.075  10.888   1.516
25119SOL    HW177254   8.995  10.939   1.508
25119SOL    HW277255   9.050  10.814   1.572
25120SOL     OW77256  12.819   2.235   0.336
25120SOL    HW177257  12.788   2.144   0.339
25120SOL    HW277258  12.901   2.231   0.286
25121SOL     OW77259   0.440   9.226   1.746
25121SOL    HW177260   0.485   9.161   1.800
25121SOL    HW277261   0.380   9.175   1.691
25122SOL     OW77262  10.548  11.857  13.837
25122SOL    HW177263  10.521  11.948  13.831
25122SOL    HW277264  10.485  11.809  13.783
25123SOL     OW77265   9.246   3.012  12.540
25123SOL    HW177266   9.305   3.082  12.568
25123SOL    HW277267   9.179   3.056  12.489
25124SOL     OW77268   7.017   8.612   5.680
25124SOL    HW177269   6.989   8.522   5.662
25124SOL    HW277270   7.033   8.649   5.593
25125SOL     OW77271  10.755   1.012   7.176
25125SOL    HW177272  10.782   1.068   7.103
25125SOL    HW277273  10.824   1.022   7.241
25126SOL     OW77274  11.957   3.100  10.406
25126SOL    HW177275  11.977   3.171  10.467
25126SOL    HW277276  11.967   3.139  10.319
25127SOL     OW77277  14.312  11.254   3.261
25127SOL    HW177278  14.229  11.268   3.308
25127SOL    HW277279  14.293  11.182   3.201
25128SOL     OW77280   3.848  10.957   7.964
25128SOL    HW177281   3.838  10.944   7.870
25128SOL    HW277282   3.943  10.961   7.978
25129SOL     OW77283   1.164   9.940  10.823
25129SOL    HW177284   1.153   9.886  10.901
25129SOL    HW277285   1.088   9.998  10.824
25130SOL     OW77286   3.657   9.089  12.066
25130SOL    HW177287   3.578   9.143  12.073
25130SOL    HW277288   3.692   9.086  12.155
25131SOL     OW77289   4.901   8.081  10.887
25131SOL    HW177290   4.969   8.119  10.831
25131SOL    HW277291   4.839   8.041  10.826
25132SOL     OW77292   7.012   6.762   3.913
25132SOL    HW177293   7.045   6.841   3.870
25132SOL    HW277294   6.922   6.754   3.881
25133SOL     OW77295   0.199   3.823  10.174
25133SOL    HW177296   0.158   3.774  10.103
25133SOL    HW277297   0.220   3.757  10.240
25134SOL     OW77298   6.456  12.033   9.236
25134SOL    HW177299   6.503  12.116   9.229
25134SOL    HW277300   6.400  12.044   9.313
25135SOL     OW77301  11.279  14.156  12.412
25135SOL    HW177302  11.243  14.233  12.456
25135SOL    HW277303  11.247  14.164  12.322
25136SOL     OW77304  14.404   1.276   6.908
25136SOL    HW177305  14.315   1.299   6.933
25136SOL    HW277306  14.397   1.189   6.870
25137SOL     OW77307   3.239   1.266  12.552
25137SOL    HW177308   3.294   1.343  12.547
25137SOL    HW277309   3.149   1.300  12.547
25138SOL     OW77310   2.343   1.465   7.594
25138SOL    HW177311   2.405   1.491   7.527
25138SOL    HW277312   2.257   1.487   7.559
25139SOL     OW77313   0.025   2.140   2.336
25139SOL    HW177314   0.084   2.205   2.374
25139SOL    HW277315   0.064   2.119   2.251
25140SOL     OW77316   7.472   8.831  12.842
25140SOL    HW177317   7.509   8.911  12.882
25140SOL    HW277318   7.405   8.803  12.905
25141SOL     OW77319   9.497  13.815  12.077
25141SOL    HW177320   9.518  13.736  12.026
25141SOL    HW277321   9.496  13.784  12.168
25142SOL     OW77322   2.608   9.018   4.493
25142SOL    HW177323   2.624   8.944   4.552
25142SOL    HW277324   2.670   9.085   4.521
25143SOL     OW77325   5.000   2.283   6.868
25143SOL    HW177326   4.925   2.329   6.905
25143SOL    HW277327   5.029   2.224   6.937
25144SOL     OW77328  14.845  14.535  10.676
25144SOL    HW177329   0.056  14.541  10.697
25144SOL    HW277330  14.807  14.617  10.707
25145SOL     OW77331   9.305   0.760   4.569
25145SOL    HW177332   9.340   0.849   4.559
25145SOL    HW277333   9.366   0.705   4.520
25146SOL     OW77334  11.134   1.386  11.180
25146SOL    HW177335  11.096   1.415  11.097
25146SOL    HW277336  11.064   1.397  11.244
25147SOL     OW77337   9.496   6.375   1.602
25147SOL    HW177338   9.555   6.423   1.544
25147SOL    HW277339   9.410   6.384   1.563
25148SOL     OW77340  14.661   8.277  12.203
25148SOL    HW177341  14.728   8.297  12.269
25148SOL    HW277342  14.646   8.183  12.213
25149SOL     OW77343  10.951   4.810   9.967
25149SOL    HW177344  10.950   4.715   9.977
25149SOL    HW277345  10.907   4.843  10.046
25150SOL     OW77346   0.031   0.588  14.001
25150SOL    HW177347   0.030   0.673  14.045
25150SOL    HW277348   0.121   0.579  13.969
25151SOL     OW77349   3.081   2.144   5.211
25151SOL    HW177350   3.165   2.190   5.218
25151SOL    HW277351   3.016   2.215   5.204
25152SOL     OW77352   4.860   5.697  14.559
25152SOL    HW177353   4.836   5.621  14.506
25152SOL    HW277354   4.942   5.728  14.520
25153SOL     OW77355   8.857  13.104  10.853
25153SOL    HW177356   8.810  13.165  10.911
25153SOL    HW277357   8.816  13.116  10.768
25154SOL     OW77358   5.816  14.192  13.585
25154SOL    HW177359   5.910  14.177  13.574
25154SOL    HW277360   5.807  14.221  13.675
25155SOL     OW77361   3.241   9.219   5.846
25155SOL    HW177362   3.332   9.241   5.864
25155SOL    HW277363   3.225   9.138   5.896
25156SOL     OW77364  13.169   3.348   6.892
25156SOL    HW177365  13.171   3.434   6.849
25156SOL    HW277366  13.103   3.299   6.843
25157SOL     OW77367   9.534  14.646  10.043
25157SOL    HW177368   9.487  14.581   9.991
25157SOL    HW277369   9.610  14.670   9.990
25158SOL     OW77370   6.421   2.580   8.627
25158SOL    HW177371   6.382   2.618   8.706
25158SOL    HW277372   6.384   2.630   8.555
25159SOL     OW77373  10.400   7.684   7.668
25159SOL    HW177374  10.458   7.746   7.623
25159SOL    HW277375  10.324   7.676   7.610
25160SOL     OW77376  14.844  14.048   3.529
25160SOL    HW177377   0.031  13.987   3.503
25160SOL    HW277378  14.868  14.074   3.618
25161SOL     OW77379   6.053   6.385   6.116
25161SOL    HW177380   6.113   6.381   6.041
25161SOL    HW277381   6.000   6.463   6.100
25162SOL     OW77382   0.315  14.647   6.453
25162SOL    HW177383   0.268  14.661   6.371
25162SOL    HW277384   0.366  14.727   6.466
25163SOL     OW77385  11.567  13.016  12.117
25163SOL    HW177386  11.528  12.963  12.047
25163SOL    HW277387  11.660  13.015  12.099
25164SOL     OW77388  12.152   0.521  12.934
25164SOL    HW177389  12.204   0.580  12.988
25164SOL    HW277390  12.154   0.560  12.846
25165SOL     OW77391   1.139   5.854  13.674
25165SOL    HW177392   1.231   5.871  13.655
25165SOL    HW277393   1.131   5.759  13.671
25166SOL     OW77394   7.754   7.839   6.019
25166SOL    HW177395   7.764   7.745   6.030
25166SOL    HW277396   7.841   7.871   5.997
25167SOL     OW77397   5.481   6.525   6.460
25167SOL    HW177398   5.467   6.571   6.378
25167SOL    HW277399   5.498   6.434   6.435
25168SOL     OW77400  12.042   5.397   4.282
25168SOL    HW177401  12.082   5.465   4.335
25168SOL    HW277402  12.052   5.317   4.334
25169SOL     OW77403   0.366   9.226   8.827
25169SOL    HW177404   0.373   9.133   8.806
25169SOL    HW277405   0.290   9.231   8.885
25170SOL     OW77406  11.201   1.624  11.455
25170SOL    HW177407  11.180   1.680  11.380
25170SOL    HW277408  11.288   1.652  11.482
25171SOL     OW77409   8.810   8.784   2.990
25171SOL    HW177410   8.727   8.817   2.955
25171SOL    HW277411   8.784   8.709   3.044
25172SOL     OW77412   5.548  11.948   6.684
25172SOL    HW177413   5.639  11.960   6.711
25172SOL    HW277414   5.554  11.917   6.594
25173SOL     OW77415  12.036   6.791   5.401
25173SOL    HW177416  12.039   6.879   5.438
25173SOL    HW277417  12.118   6.750   5.429
25174SOL     OW77418   8.692   4.811  14.498
25174SOL    HW177419   8.600   4.824  14.522
25174SOL    HW277420   8.708   4.718  14.514
25175SOL     OW77421   1.952  10.841   8.540
25175SOL    HW177422   1.975  10.757   8.581
25175SOL    HW277423   1.943  10.820   8.447
25176SOL     OW77424  11.126  13.123   8.540
25176SOL    HW177425  11.039  13.148   8.572
25176SOL    HW277426  11.186  13.184   8.584
25177SOL     OW77427  10.123  12.300  14.435
25177SOL    HW177428  10.207  12.346  14.433
25177SOL    HW277429  10.124  12.250  14.516
25178SOL     OW77430   8.660  14.055   7.789
25178SOL    HW177431   8.616  13.980   7.829
25178SOL    HW277432   8.734  14.073   7.847
25179SOL     OW77433   7.451   7.099   7.710
25179SOL    HW177434   7.407   7.076   7.629
25179SOL    HW277435   7.397   7.168   7.748
25180SOL     OW77436   7.531   7.135   6.060
25180SOL    HW177437   7.526   7.135   6.155
25180SOL    HW277438   7.561   7.047   6.037
25181SOL     OW77439  14.417  11.008   4.850
25181SOL    HW177440  14.419  11.088   4.797
25181SOL    HW277441  14.509  10.989   4.868
25182SOL     OW77442   9.493  12.543   4.789
25182SOL    HW177443   9.566  12.568   4.732
25182SOL    HW277444   9.453  12.626   4.814
25183SOL     OW77445  11.362   1.073  10.091
25183SOL    HW177446  11.454   1.052  10.104
25183SOL    HW277447  11.337   1.025  10.012
25184SOL     OW77448   9.685   0.074   0.391
25184SOL    HW177449   9.661   0.160   0.424
25184SOL    HW277450   9.746   0.039   0.456
25185SOL     OW77451  14.457  14.107  12.011
25185SOL    HW177452  14.379  14.158  11.988
25185SOL    HW277453  14.469  14.122  12.105
25186SOL     OW77454   2.117   5.829   3.007
25186SOL    HW177455   2.201   5.865   2.976
25186SOL    HW277456   2.072   5.803   2.927
25187SOL     OW77457   8.811  14.004  12.039
25187SOL    HW177458   8.850  14.059  11.971
25187SOL    HW277459   8.728  14.047  12.060
25188SOL     OW77460   7.298   3.745  11.289
25188SOL    HW177461   7.242   3.684  11.240
25188SOL    HW277462   7.383   3.701  11.294
25189SOL     OW77463   4.831  12.999   4.929
25189SOL    HW177464   4.888  13.017   4.855
25189SOL    HW277465   4.746  12.980   4.890
25190SOL     OW77466   1.267   0.782  13.561
25190SOL    HW177467   1.196   0.733  13.519
25190SOL    HW277468   1.346   0.751  13.517
25191SOL     OW77469   3.290   6.985   6.328
25191SOL    HW177470   3.253   6.977   6.416
25191SOL    HW277471   3.369   6.931   6.330
25192SOL     OW77472   2.439   9.386   3.479
25192SOL    HW177473   2.445   9.467   3.428
25192SOL    HW277474   2.488   9.406   3.559
25193SOL     OW77475   1.016   1.611  13.520
25193SOL    HW177476   1.074   1.537  13.498
25193SOL    HW277477   0.928   1.573  13.517
25194SOL     OW77478  11.541  14.174  12.407
25194SOL    HW177479  11.451  14.175  12.439
25194SOL    HW277480  11.539  14.114  12.332
25195SOL     OW77481   1.158  12.385   4.436
25195SOL    HW177482   1.083  12.329   4.419
25195SOL    HW277483   1.161  12.392   4.532
25196SOL     OW77484   6.992   0.564   5.872
25196SOL    HW177485   6.977   0.470   5.862
25196SOL    HW277486   7.069   0.581   5.817
25197SOL     OW77487  14.271   4.483  14.756
25197SOL    HW177488  14.254   4.544  14.684
25197SOL    HW277489  14.295   4.401  14.713
25198SOL     OW77490   6.046   3.156  11.489
25198SOL    HW177491   6.060   3.246  11.459
25198SOL    HW277492   6.122   3.136  11.544
25199SOL     OW77493   8.793   4.655  10.678
25199SOL    HW177494   8.862   4.610  10.629
25199SOL    HW277495   8.838   4.722  10.729
25200SOL     OW77496   6.049   6.861  13.647
25200SOL    HW177497   5.961   6.869  13.611
25200SOL    HW277498   6.088   6.787  13.601
25201SOL     OW77499  13.272  14.501   4.392
25201SOL    HW177500  13.319  14.585   4.391
25201SOL    HW277501  13.245  14.489   4.483
25202SOL     OW77502  14.490  13.940  13.880
25202SOL    HW177503  14.426  14.009  13.894
25202SOL    HW277504  14.534  13.929  13.965
25203SOL     OW77505  14.623   9.373   1.535
25203SOL    HW177506  14.566   9.441   1.498
25203SOL    HW277507  14.708   9.416   1.543
25204SOL     OW77508  14.081   8.867   5.501
25204SOL    HW177509  14.119   8.848   5.587
25204SOL    HW277510  14.074   8.962   5.499
25205SOL     OW77511   6.023   1.135   1.542
25205SOL    HW177512   6.081   1.182   1.602
25205SOL    HW277513   5.962   1.089   1.599
25206SOL     OW77514  14.396   6.012   6.187
25206SOL    HW177515  14.379   6.066   6.264
25206SOL    HW277516  14.312   6.005   6.143
25207SOL     OW77517  12.394   1.043  11.685
25207SOL    HW177518  12.350   0.971  11.729
25207SOL    HW277519  12.333   1.116  11.692
25208SOL     OW77520  12.182   9.784   6.898
25208SOL    HW177521  12.224   9.853   6.949
25208SOL    HW277522  12.160   9.717   6.963
25209SOL     OW77523   4.126   4.608  11.582
25209SOL    HW177524   4.053   4.562  11.541
25209SOL    HW277525   4.096   4.624  11.672
25210SOL     OW77526  14.180   6.948  12.624
25210SOL    HW177527  14.180   6.862  12.582
25210SOL    HW277528  14.090   6.961  12.654
25211SOL     OW77529   0.659   2.396   5.586
25211SOL    HW177530   0.737   2.432   5.543
25211SOL    HW277531   0.619   2.340   5.521
25212SOL     OW77532   0.258   5.820  14.563
25212SOL    HW177533   0.191   5.760  14.596
25212SOL    HW277534   0.212   5.904  14.552
25213SOL     OW77535   7.134  10.315   7.693
25213SOL    HW177536   7.043  10.290   7.676
25213SOL    HW277537   7.164  10.254   7.761
25214SOL     OW77538  11.705   6.774   5.671
25214SOL    HW177539  11.744   6.862   5.676
25214SOL    HW277540  11.611   6.791   5.664
25215SOL     OW77541  11.183   3.773  10.649
25215SOL    HW177542  11.249   3.775  10.718
25215SOL    HW277543  11.136   3.856  10.659
25216SOL     OW77544  11.856  10.860  12.181
25216SOL    HW177545  11.909  10.782  12.164
25216SOL    HW277546  11.839  10.896  12.094
25217SOL     OW77547  10.692   4.122   1.245
25217SOL    HW177548  10.727   4.198   1.198
25217SOL    HW277549  10.723   4.132   1.335
25218SOL     OW77550   3.285  13.448   6.693
25218SOL    HW177551   3.219  13.419   6.757
25218SOL    HW277552   3.233  13.483   6.620
25219SOL     OW77553   3.547   5.624  14.521
25219SOL    HW177554   3.641   5.639  14.532
25219SOL    HW277555   3.533   5.536  14.555
25220SOL     OW77556   4.638  10.430  14.512
25220SOL    HW177557   4.650  10.504  14.452
25220SOL    HW277558   4.563  10.382  14.476
25221SOL     OW77559   9.339   5.878   5.579
25221SOL    HW177560   9.383   5.800   5.613
25221SOL    HW277561   9.261   5.886   5.634
25222SOL     OW77562  11.670   8.608   0.317
25222SOL    HW177563  11.699   8.539   0.377
25222SOL    HW277564  11.720   8.685   0.344
25223SOL     OW77565   1.199   4.013   1.317
25223SOL    HW177566   1.106   4.028   1.336
25223SOL    HW277567   1.242   4.095   1.343
25224SOL     OW77568   9.031  14.215   9.515
25224SOL    HW177569   8.973  14.161   9.461
25224SOL    HW277570   8.997  14.206   9.604
25225SOL     OW77571   0.224   2.959  12.504
25225SOL    HW177572   0.136   2.953  12.541
25225SOL    HW277573   0.265   3.032  12.551
25226SOL     OW77574   1.821  12.208   9.882
25226SOL    HW177575   1.773  12.291   9.880
25226SOL    HW277576   1.808  12.174   9.970
25227SOL     OW77577   4.464  12.210  10.039
25227SOL    HW177578   4.441  12.142   9.975
25227SOL    HW277579   4.446  12.292   9.995
25228SOL     OW77580   7.738   8.850   5.699
25228SOL    HW177581   7.719   8.757   5.683
25228SOL    HW277582   7.672   8.877   5.763
25229SOL     OW77583   9.925   8.863   4.579
25229SOL    HW177584   9.893   8.846   4.490
25229SOL    HW277585   9.928   8.777   4.619
25230SOL     OW77586   5.667   0.250   1.640
25230SOL    HW177587   5.727   0.221   1.709
25230SOL    HW277588   5.648   0.341   1.663
25231SOL     OW77589   4.241   7.149   4.979
25231SOL    HW177590   4.219   7.222   5.036
25231SOL    HW277591   4.327   7.120   5.009
25232SOL     OW77592   8.314   0.157   0.105
25232SOL    HW177593   8.408   0.142   0.109
25232SOL    HW277594   8.303   0.226   0.039
25233SOL     OW77595   5.420   5.397   2.347
25233SOL    HW177596   5.468   5.475   2.319
25233SOL    HW277597   5.341   5.430   2.389
25234SOL     OW77598   1.158   2.223   4.577
25234SOL    HW177599   1.252   2.215   4.562
25234SOL    HW277600   1.120   2.144   4.537
25235SOL     OW77601   2.601   0.647   6.916
25235SOL    HW177602   2.514   0.610   6.906
25235SOL    HW277603   2.589   0.741   6.904
25236SOL     OW77604   6.119  10.745   8.916
25236SOL    HW177605   6.200  10.785   8.884
25236SOL    HW277606   6.060  10.747   8.841
25237SOL     OW77607   9.555   4.975   2.344
25237SOL    HW177608   9.520   4.935   2.264
25237SOL    HW277609   9.607   5.049   2.313
25238SOL     OW77610  10.738  10.802   5.180
25238SOL    HW177611  10.802  10.841   5.239
25238SOL    HW277612  10.676  10.872   5.162
25239SOL     OW77613  14.692   2.148   4.282
25239SOL    HW177614  14.711   2.236   4.312
25239SOL    HW277615  14.656   2.104   4.359
25240SOL     OW77616   8.080  14.270   3.305
25240SOL    HW177617   8.042  14.352   3.337
25240SOL    HW277618   8.088  14.215   3.383
25241SOL     OW77619   2.692   3.835   1.220
25241SOL    HW177620   2.672   3.827   1.313
25241SOL    HW277621   2.787   3.828   1.216
25242SOL     OW77622  12.198   2.182   2.989
25242SOL    HW177623  12.236   2.095   3.002
25242SOL    HW277624  12.249   2.220   2.917
25243SOL     OW77625   9.728   1.673   4.636
25243SOL    HW177626   9.697   1.737   4.701
25243SOL    HW277627   9.665   1.679   4.565
25244SOL     OW77628  14.306   9.782   5.306
25244SOL    HW177629  14.260   9.700   5.326
25244SOL    HW277630  14.379   9.785   5.369
25245SOL     OW77631   3.053   6.345   3.273
25245SOL    HW177632   3.118   6.415   3.278
25245SOL    HW277633   2.978   6.386   3.230
25246SOL     OW77634   5.467  10.363   0.016
25246SOL    HW177635   5.380  10.343  14.865
25246SOL    HW277636   5.488  10.449  14.860
25247SOL     OW77637   0.159   9.896   7.669
25247SOL    HW177638   0.191   9.959   7.733
25247SOL    HW277639   0.228   9.830   7.662
25248SOL     OW77640  11.636  13.847  10.184
25248SOL    HW177641  11.656  13.855  10.091
25248SOL    HW277642  11.678  13.923  10.224
25249SOL     OW77643   3.906  11.590   7.590
25249SOL    HW177644   3.962  11.535   7.535
25249SOL    HW277645   3.822  11.594   7.543
25250SOL     OW77646  11.619   2.465   4.649
25250SOL    HW177647  11.557   2.408   4.605
25250SOL    HW277648  11.575   2.491   4.730
25251SOL     OW77649  14.312   5.348   1.854
25251SOL    HW177650  14.377   5.301   1.908
25251SOL    HW277651  14.350   5.348   1.766
25252SOL     OW77652   9.028   3.731  13.730
25252SOL    HW177653   8.948   3.781  13.717
25252SOL    HW277654   9.094   3.777  13.678
25253SOL     OW77655  13.675  11.108   6.116
25253SOL    HW177656  13.675  11.070   6.029
25253SOL    HW277657  13.663  11.033   6.175
25254SOL     OW77658  11.216   3.386   1.830
25254SOL    HW177659  11.183   3.467   1.869
25254SOL    HW277660  11.171   3.317   1.879
25255SOL     OW77661  11.511  12.877   9.042
25255SOL    HW177662  11.439  12.930   9.006
25255SOL    HW277663  11.590  12.924   9.014
25256SOL     OW77664   8.675   7.094   5.723
25256SOL    HW177665   8.703   7.128   5.808
25256SOL    HW277666   8.671   7.171   5.667
25257SOL     OW77667   0.725   9.173   9.247
25257SOL    HW177668   0.726   9.154   9.341
25257SOL    HW277669   0.734   9.268   9.242
25258SOL     OW77670   6.493   8.956   1.759
25258SOL    HW177671   6.432   8.951   1.832
25258SOL    HW277672   6.450   9.015   1.696
25259SOL     OW77673   3.407   2.002  12.310
25259SOL    HW177674   3.331   2.044  12.270
25259SOL    HW277675   3.370   1.951  12.383
25260SOL     OW77676   7.968  14.001  14.150
25260SOL    HW177677   7.970  14.051  14.231
25260SOL    HW277678   8.007  13.916  14.173
25261SOL     OW77679   3.034   1.055   8.805
25261SOL    HW177680   2.959   1.115   8.806
25261SOL    HW277681   2.994   0.968   8.799
25262SOL     OW77682   2.741  11.632   5.182
25262SOL    HW177683   2.797  11.645   5.259
25262SOL    HW277684   2.799  11.645   5.107
25263SOL     OW77685  11.145  12.813   0.172
25263SOL    HW177686  11.173  12.726   0.141
25263SOL    HW277687  11.187  12.822   0.257
25264SOL     OW77688  10.244   6.716   4.508
25264SOL    HW177689  10.196   6.742   4.586
25264SOL    HW277690  10.279   6.798   4.473
25265SOL     OW77691   5.478  10.793   0.945
25265SOL    HW177692   5.460  10.855   0.875
25265SOL    HW277693   5.552  10.741   0.913
25266SOL     OW77694   3.506   6.829   2.997
25266SOL    HW177695   3.438   6.775   3.037
25266SOL    HW277696   3.585   6.811   3.048
25267SOL     OW77697   2.842   2.271   3.421
25267SOL    HW177698   2.754   2.305   3.405
25267SOL    HW277699   2.888   2.282   3.338
25268SOL     OW77700   8.335   1.598   2.989
25268SOL    HW177701   8.243   1.622   2.996
25268SOL    HW277702   8.340   1.510   3.027
25269SOL     OW77703   9.871  10.499  10.415
25269SOL    HW177704   9.890  10.429  10.477
25269SOL    HW277705   9.866  10.578  10.469
25270SOL     OW77706  14.122  12.315   2.783
25270SOL    HW177707  14.141  12.317   2.689
25270SOL    HW277708  14.208  12.316   2.825
25271SOL     OW77709   2.280   8.773  10.368
25271SOL    HW177710   2.211   8.732  10.419
25271SOL    HW277711   2.358   8.766  10.423
25272SOL     OW77712  10.054  13.566   1.187
25272SOL    HW177713  10.108  13.627   1.136
25272SOL    HW277714  10.106  13.549   1.265
25273SOL     OW77715   1.499   4.396   2.047
25273SOL    HW177716   1.543   4.395   2.133
25273SOL    HW277717   1.415   4.352   2.063
25274SOL     OW77718  14.498  12.479   8.395
25274SOL    HW177719  14.522  12.517   8.479
25274SOL    HW277720  14.408  12.450   8.405
25275SOL     OW77721  11.900   0.384  12.415
25275SOL    HW177722  11.832   0.439  12.455
25275SOL    HW277723  11.853   0.304  12.388
25276SOL     OW77724  11.359   2.889  11.679
25276SOL    HW177725  11.416   2.953  11.723
25276SOL    HW277726  11.344   2.926  11.592
25277SOL     OW77727   3.129  14.359   3.542
25277SOL    HW177728   3.050  14.411   3.557
25277SOL    HW277729   3.192  14.390   3.606
25278SOL     OW77730   1.711  11.814  13.660
25278SOL    HW177731   1.788  11.800  13.715
25278SOL    HW277732   1.671  11.893  13.694
25279SOL     OW77733   6.515   5.461   0.025
25279SOL    HW177734   6.554   5.386   0.069
25279SOL    HW277735   6.529   5.445  14.814
25280SOL     OW77736   2.832   2.343   2.816
25280SOL    HW177737   2.806   2.355   2.907
25280SOL    HW277738   2.854   2.431   2.785
25281SOL     OW77739   8.419   3.979   5.429
25281SOL    HW177740   8.397   3.990   5.522
25281SOL    HW277741   8.479   4.051   5.410
25282SOL     OW77742   6.567   7.975   5.766
25282SOL    HW177743   6.644   8.029   5.749
25282SOL    HW277744   6.592   7.922   5.842
25283SOL     OW77745   8.258   3.397   7.585
25283SOL    HW177746   8.253   3.353   7.500
25283SOL    HW277747   8.216   3.482   7.571
25284SOL     OW77748  14.134   4.225  13.211
25284SOL    HW177749  14.205   4.230  13.147
25284SOL    HW277750  14.146   4.303  13.266
25285SOL     OW77751  10.691   2.993   2.548
25285SOL    HW177752  10.691   2.897   2.553
25285SOL    HW277753  10.779   3.016   2.520
25286SOL     OW77754  13.504   5.067  13.088
25286SOL    HW177755  13.467   5.062  12.999
25286SOL    HW277756  13.436   5.112  13.139
25287SOL     OW77757   3.655  12.668  13.988
25287SOL    HW177758   3.671  12.585  13.943
25287SOL    HW277759   3.695  12.733  13.930
25288SOL     OW77760   6.019  13.653   9.513
25288SOL    HW177761   5.961  13.622   9.443
25288SOL    HW277762   5.992  13.603   9.590
25289SOL     OW77763   0.914   6.495  10.833
25289SOL    HW177764   0.878   6.444  10.761
25289SOL    HW277765   0.846   6.560  10.852
25290SOL     OW77766   7.360   5.815  11.364
25290SOL    HW177767   7.363   5.732  11.316
25290SOL    HW277768   7.282   5.808  11.419
25291SOL     OW77769   4.416   5.447   6.688
25291SOL    HW177770   4.402   5.471   6.596
25291SOL    HW277771   4.510   5.458   6.702
25292SOL     OW77772  13.633  10.903  11.523
25292SOL    HW177773  13.712  10.852  11.540
25292SOL    HW277774  13.650  10.946  11.439
25293SOL     OW77775   5.971   8.910   9.005
25293SOL    HW177776   6.022   8.979   8.963
25293SOL    HW277777   5.893   8.954   9.038
25294SOL     OW77778   4.378   4.538   4.909
25294SOL    HW177779   4.403   4.524   4.817
25294SOL    HW277780   4.293   4.495   4.917
25295SOL     OW77781   0.550   4.468   9.383
25295SOL    HW177782   0.543   4.418   9.464
25295SOL    HW277783   0.584   4.553   9.409
25296SOL     OW77784   6.875   0.335   2.225
25296SOL    HW177785   6.860   0.430   2.231
25296SOL    HW277786   6.818   0.306   2.154
25297SOL     OW77787  11.802   6.423   4.704
25297SOL    HW177788  11.785   6.413   4.610
25297SOL    HW277789  11.885   6.469   4.708
25298SOL     OW77790   3.261   5.679  14.637
25298SOL    HW177791   3.179   5.724  14.660
25298SOL    HW277792   3.311   5.744  14.588
25299SOL     OW77793  11.532   6.475  14.411
25299SOL    HW177794  11.450   6.446  14.370
25299SOL    HW277795  11.527   6.570  14.410
25300SOL     OW77796  10.586   1.852   7.171
25300SOL    HW177797  10.605   1.892   7.086
25300SOL    HW277798  10.530   1.917   7.215
25301SOL     OW77799   2.918   4.493   3.754
25301SOL    HW177800   2.999   4.444   3.768
25301SOL    HW277801   2.896   4.528   3.840
25302SOL     OW77802  13.754   9.692   1.999
25302SOL    HW177803  13.711   9.767   1.957
25302SOL    HW277804  13.822   9.665   1.937
25303SOL     OW77805   3.981  13.959   9.096
25303SOL    HW177806   3.936  14.033   9.136
25303SOL    HW277807   4.041  13.927   9.164
25304SOL     OW77808   2.774   4.434   9.214
25304SOL    HW177809   2.784   4.414   9.121
25304SOL    HW277810   2.802   4.353   9.259
25305SOL     OW77811  12.369   8.799   8.829
25305SOL    HW177812  12.366   8.865   8.760
25305SOL    HW277813  12.410   8.722   8.788
25306SOL     OW77814   7.928  12.040  13.566
25306SOL    HW177815   7.995  12.007  13.506
25306SOL    HW277816   7.971  12.043  13.652
25307SOL     OW77817  12.037  13.015   6.758
25307SOL    HW177818  12.107  13.001   6.821
25307SOL    HW277819  11.956  13.011   6.809
25308SOL     OW77820   0.637   2.474  14.388
25308SOL    HW177821   0.557   2.463  14.438
25308SOL    HW277822   0.610   2.467  14.297
25309SOL     OW77823   5.846  10.260   8.057
25309SOL    HW177824   5.758  10.297   8.057
25309SOL    HW277825   5.841  10.187   7.994
25310SOL     OW77826   0.390  10.973  11.827
25310SOL    HW177827   0.401  10.879  11.842
25310SOL    HW277828   0.298  10.989  11.848
25311SOL     OW77829  12.083   0.289   6.112
25311SOL    HW177830  12.108   0.382   6.114
25311SOL    HW277831  12.128   0.251   6.187
25312SOL     OW77832   8.475   7.927  13.709
25312SOL    HW177833   8.515   7.951  13.792
25312SOL    HW277834   8.524   7.977  13.643
25313SOL     OW77835   0.221   0.856   5.525
25313SOL    HW177836   0.166   0.866   5.447
25313SOL    HW277837   0.310   0.848   5.490
25314SOL     OW77838  14.471   0.941  14.299
25314SOL    HW177839  14.511   0.959  14.214
25314SOL    HW277840  14.543   0.950  14.361
25315SOL     OW77841   3.857   9.103   7.117
25315SOL    HW177842   3.857   9.012   7.090
25315SOL    HW277843   3.848   9.100   7.212
25316SOL     OW77844   6.197   4.324  12.602
25316SOL    HW177845   6.124   4.350  12.546
25316SOL    HW277846   6.186   4.229  12.613
25317SOL     OW77847   7.204   4.144   2.367
25317SOL    HW177848   7.256   4.065   2.382
25317SOL    HW277849   7.198   4.151   2.272
25318SOL     OW77850   8.037   5.800  12.792
25318SOL    HW177851   7.953   5.792  12.748
25318SOL    HW277852   8.020   5.855  12.869
25319SOL     OW77853   3.648   9.491   2.307
25319SOL    HW177854   3.635   9.526   2.219
25319SOL    HW277855   3.679   9.402   2.293
25320SOL     OW77856  10.881  12.131   2.474
25320SOL    HW177857  10.958  12.185   2.494
25320SOL    HW277858  10.914  12.041   2.477
25321SOL     OW77859  10.577  11.350   3.489
25321SOL    HW177860  10.591  11.347   3.395
25321SOL    HW277861  10.515  11.422   3.502
25322SOL     OW77862   9.177   9.174  13.534
25322SOL    HW177863   9.152   9.265  13.547
25322SOL    HW277864   9.103   9.123  13.567
25323SOL     OW77865   5.807   8.302   7.933
25323SOL    HW177866   5.821   8.261   8.018
25323SOL    HW277867   5.873   8.262   7.876
25324SOL     OW77868   7.144   8.106   2.631
25324SOL    HW177869   7.226   8.061   2.610
25324SOL    HW277870   7.163   8.199   2.615
25325SOL     OW77871   2.605   6.003  10.117
25325SOL    HW177872   2.520   6.016  10.159
25325SOL    HW277873   2.596   6.046  10.032
25326SOL     OW77874   5.138   3.993  14.012
25326SOL    HW177875   5.103   3.938  13.942
25326SOL    HW277876   5.135   3.937  14.089
25327SOL     OW77877   3.548  11.263  10.753
25327SOL    HW177878   3.523  11.353  10.772
25327SOL    HW277879   3.616  11.270  10.686
25328SOL     OW77880  10.942  12.806  14.477
25328SOL    HW177881  11.001  12.869  14.436
25328SOL    HW277882  10.863  12.808  14.423
25329SOL     OW77883  13.044   9.276   8.228
25329SOL    HW177884  13.071   9.367   8.239
25329SOL    HW277885  13.065   9.255   8.137
25330SOL     OW77886   8.909  10.138   2.295
25330SOL    HW177887   8.854  10.089   2.355
25330SOL    HW277888   8.908  10.228   2.329
25331SOL     OW77889   0.160  11.622   8.058
25331SOL    HW177890   0.143  11.636   7.965
25331SOL    HW277891   0.254  11.642   8.068
25332SOL     OW77892   5.052  11.809   4.831
25332SOL    HW177893   5.028  11.821   4.739
25332SOL    HW277894   4.972  11.776   4.873
25333SOL     OW77895   9.239  10.319   5.119
25333SOL    HW177896   9.192  10.390   5.164
25333SOL    HW277897   9.330  10.348   5.119
25334SOL     OW77898  12.393   5.672  13.789
25334SOL    HW177899  12.476   5.626  13.773
25334SOL    HW277900  12.358   5.689  13.702
25335SOL     OW77901   5.860  13.424   4.686
25335SOL    HW177902   5.827  13.351   4.738
25335SOL    HW277903   5.841  13.501   4.739
25336SOL     OW77904   0.097  14.481   0.948
25336SOL    HW177905   0.178  14.450   0.909
25336SOL    HW277906   0.048  14.402   0.968
25337SOL     OW77907   9.519   5.710  13.382
25337SOL    HW177908   9.525   5.798  13.347
25337SOL    HW277909   9.606   5.692  13.418
25338SOL     OW77910  13.132  10.986  12.348
25338SOL    HW177911  13.223  10.959  12.365
25338SOL    HW277912  13.139  11.078  12.322
25339SOL     OW77913  14.141  10.039   5.716
25339SOL    HW177914  14.058  10.055   5.762
25339SOL    HW277915  14.115   9.989   5.638
25340SOL     OW77916   1.689   6.891  13.866
25340SOL    HW177917   1.607   6.896  13.915
25340SOL    HW277918   1.663   6.880  13.775
25341SOL     OW77919   0.424   6.537  12.923
25341SOL    HW177920   0.334   6.566  12.939
25341SOL    HW277921   0.449   6.493  13.005
25342SOL     OW77922   6.595  10.261  12.855
25342SOL    HW177923   6.535  10.231  12.924
25342SOL    HW277924   6.574  10.205  12.780
25343SOL     OW77925   2.982  11.279   5.335
25343SOL    HW177926   2.912  11.215   5.345
25343SOL    HW277927   3.045  11.258   5.404
25344SOL     OW77928   7.804   2.802   7.204
25344SOL    HW177929   7.709   2.817   7.213
25344SOL    HW277930   7.811   2.729   7.141
25345SOL     OW77931   8.931   2.024   2.060
25345SOL    HW177932   8.965   1.961   1.997
25345SOL    HW277933   9.009   2.062   2.101
25346SOL     OW77934   1.263   4.223   8.411
25346SOL    HW177935   1.204   4.198   8.483
25346SOL    HW277936   1.346   4.243   8.454
25347SOL     OW77937   5.224   1.528   1.985
25347SOL    HW177938   5.240   1.477   2.065
25347SOL    HW277939   5.138   1.500   1.955
25348SOL     OW77940   8.224   6.102   8.705
25348SOL    HW177941   8.229   6.068   8.795
25348SOL    HW277942   8.156   6.170   8.710
25349SOL     OW77943   9.275   4.788  13.750
25349SOL    HW177944   9.321   4.871  13.767
25349SOL    HW277945   9.227   4.771  13.831
25350SOL     OW77946   7.054   2.158   1.533
25350SOL    HW177947   6.976   2.204   1.564
25350SOL    HW277948   7.097   2.126   1.612
25351SOL     OW77949   6.236  13.415   0.084
25351SOL    HW177950   6.287  13.496   0.091
25351SOL    HW277951   6.188  13.410   0.167
25352SOL     OW77952  12.838   9.810   1.512
25352SOL    HW177953  12.905   9.786   1.448
25352SOL    HW277954  12.863   9.762   1.591
25353SOL     OW77955   9.071  11.112  14.621
25353SOL    HW177956   9.025  11.073  14.695
25353SOL    HW277957   9.155  11.066  14.617
25354SOL     OW77958  14.216   7.353  11.824
25354SOL    HW177959  14.188   7.371  11.734
25354SOL    HW277960  14.136   7.323  11.868
25355SOL     OW77961   9.332  11.089   4.009
25355SOL    HW177962   9.318  11.165   3.952
25355SOL    HW277963   9.276  11.105   4.085
25356SOL     OW77964   9.718   7.546   4.802
25356SOL    HW177965   9.775   7.490   4.854
25356SOL    HW277966   9.714   7.628   4.850
25357SOL     OW77967  12.294  11.296  13.539
25357SOL    HW177968  12.216  11.351  13.525
25357SOL    HW277969  12.367  11.352  13.512
25358SOL     OW77970  10.540  13.801   3.219
25358SOL    HW177971  10.567  13.821   3.309
25358SOL    HW277972  10.445  13.812   3.220
25359SOL     OW77973  10.302   5.463   1.154
25359SOL    HW177974  10.333   5.402   1.087
25359SOL    HW277975  10.381   5.499   1.193
25360SOL     OW77976   4.015   4.380  12.056
25360SOL    HW177977   3.948   4.445  12.078
25360SOL    HW277978   4.039   4.341  12.140
25361SOL     OW77979  13.210  11.659   4.271
25361SOL    HW177980  13.198  11.634   4.363
25361SOL    HW277981  13.224  11.576   4.226
25362SOL     OW77982   3.089  10.087   1.108
25362SOL    HW177983   3.114   9.995   1.110
25362SOL    HW277984   3.092  10.115   1.199
25363SOL     OW77985  13.580   8.879   5.518
25363SOL    HW177986  13.627   8.812   5.569
25363SOL    HW277987  13.533   8.930   5.584
25364SOL     OW77988   1.775   9.839  11.765
25364SOL    HW177989   1.713   9.832  11.692
25364SOL    HW277990   1.860   9.855  11.723
25365SOL     OW77991   0.228  14.676  11.858
25365SOL    HW177992   0.189  14.589  11.851
25365SOL    HW277993   0.171  14.723  11.919
25366SOL     OW77994   2.982   7.596   5.442
25366SOL    HW177995   2.922   7.625   5.512
25366SOL    HW277996   2.991   7.502   5.455
25367SOL     OW77997  14.426  13.885   2.306
25367SOL    HW177998  14.510  13.897   2.351
25367SOL    HW277999  14.437  13.934   2.224
25368SOL     OW78000   1.709   1.799   9.419
25368SOL    HW178001   1.691   1.819   9.510
25368SOL    HW278002   1.622   1.789   9.379
25369SOL     OW78003   1.093   8.245   9.006
25369SOL    HW178004   1.170   8.191   8.988
25369SOL    HW278005   1.033   8.226   8.934
25370SOL     OW78006  12.786  14.004  10.886
25370SOL    HW178007  12.830  14.088  10.898
25370SOL    HW278008  12.693  14.026  10.875
25371SOL     OW78009   3.802   2.071   9.233
25371SOL    HW178010   3.810   2.044   9.325
25371SOL    HW278011   3.732   2.136   9.234
25372SOL     OW78012   4.582  11.985   1.478
25372SOL    HW178013   4.577  11.981   1.573
25372SOL    HW278014   4.532  12.063   1.454
25373SOL     OW78015   7.217   1.833   2.892
25373SOL    HW178016   7.280   1.904   2.907
25373SOL    HW278017   7.242   1.795   2.808
25374SOL     OW78018   2.945   6.581  10.752
25374SOL    HW178019   2.996   6.643  10.699
25374SOL    HW278020   2.895   6.637  10.812
25375SOL     OW78021   5.868   8.697   4.362
25375SOL    HW178022   5.904   8.679   4.449
25375SOL    HW278023   5.901   8.784   4.340
25376SOL     OW78024   8.913  13.493   3.936
25376SOL    HW178025   8.886  13.406   3.964
25376SOL    HW278026   8.897  13.549   4.012
25377SOL     OW78027  11.038  10.088   9.807
25377SOL    HW178028  11.010  10.158   9.748
25377SOL    HW278029  11.056  10.014   9.749
25378SOL     OW78030   3.723   6.184  10.121
25378SOL    HW178031   3.639   6.181  10.074
25378SOL    HW278032   3.754   6.273  10.109
25379SOL     OW78033   1.328   3.882  14.528
25379SOL    HW178034   1.259   3.818  14.545
25379SOL    HW278035   1.325   3.942  14.603
25380SOL     OW78036   5.197   7.034  10.556
25380SOL    HW178037   5.232   6.951  10.524
25380SOL    HW278038   5.275   7.090  10.565
25381SOL     OW78039   8.707  10.441   1.090
25381SOL    HW178040   8.786  10.488   1.063
25381SOL    HW278041   8.733  10.395   1.170
25382SOL     OW78042   8.643   9.396  11.061
25382SOL    HW178043   8.658   9.316  11.009
25382SOL    HW278044   8.728   9.441  11.060
25383SOL     OW78045   6.429  10.348  11.516
25383SOL    HW178046   6.502  10.319  11.462
25383SOL    HW278047   6.433  10.444  11.512
25384SOL     OW78048   1.405  10.365  12.442
25384SOL    HW178049   1.417  10.420  12.365
25384SOL    HW278050   1.324  10.396  12.482
25385SOL     OW78051   5.899   9.213   6.326
25385SOL    HW178052   5.978   9.163   6.347
25385SOL    HW278053   5.925   9.305   6.333
25386SOL     OW78054   8.268   6.682   7.976
25386SOL    HW178055   8.242   6.757   7.922
25386SOL    HW278056   8.225   6.696   8.060
25387SOL     OW78057  11.250   9.465   7.729
25387SOL    HW178058  11.170   9.413   7.734
25387SOL    HW278059  11.317   9.404   7.698
25388SOL     OW78060   3.741  14.229   4.825
25388SOL    HW178061   3.760  14.135   4.826
25388SOL    HW278062   3.668  14.238   4.763
25389SOL     OW78063   6.735   6.761   4.844
25389SOL    HW178064   6.801   6.718   4.899
25389SOL    HW278065   6.772   6.757   4.755
25390SOL     OW78066   0.505   7.406   8.979
25390SOL    HW178067   0.568   7.382   9.047
25390SOL    HW278068   0.447   7.470   9.021
25391SOL     OW78069  12.168  10.180   6.089
25391SOL    HW178070  12.203  10.181   6.178
25391SOL    HW278071  12.106  10.107   6.088
25392SOL     OW78072   7.975   9.871   1.897
25392SOL    HW178073   8.058   9.846   1.856
25392SOL    HW278074   7.994   9.875   1.990
25393SOL     OW78075   2.947  10.712  13.880
25393SOL    HW178076   2.946  10.742  13.970
25393SOL    HW278077   3.038  10.720  13.852
25394SOL     OW78078   9.957   5.034   0.472
25394SOL    HW178079   9.967   4.944   0.501
25394SOL    HW278080  10.046   5.070   0.473
25395SOL     OW78081   5.901   8.580   7.950
25395SOL    HW178082   5.845   8.512   7.912
25395SOL    HW278083   5.878   8.580   8.043
25396SOL     OW78084   7.803   8.241  13.534
25396SOL    HW178085   7.726   8.278  13.491
25396SOL    HW278086   7.859   8.211  13.463
25397SOL     OW78087   7.564   9.662   3.059
25397SOL    HW178088   7.637   9.716   3.029
25397SOL    HW278089   7.606   9.591   3.108
25398SOL     OW78090   9.690  10.736  10.642
25398SOL    HW178091   9.759  10.673  10.666
25398SOL    HW278092   9.663  10.774  10.725
25399SOL     OW78093   7.191  14.743   4.804
25399SOL    HW178094   7.258  14.695   4.756
25399SOL    HW278095   7.237  14.818   4.842
25400SOL     OW78096   6.399   1.928   3.521
25400SOL    HW178097   6.409   2.019   3.547
25400SOL    HW278098   6.335   1.930   3.449
25401SOL     OW78099   7.533  10.258   6.309
25401SOL    HW178100   7.573  10.179   6.272
25401SOL    HW278101   7.591  10.329   6.284
25402SOL     OW78102  10.381  12.256  11.565
25402SOL    HW178103  10.435  12.328  11.597
25402SOL    HW278104  10.434  12.178  11.579
25403SOL     OW78105   1.215  11.011   1.778
25403SOL    HW178106   1.273  11.086   1.787
25403SOL    HW278107   1.129  11.044   1.806
25404SOL     OW78108   6.089   3.448   6.494
25404SOL    HW178109   6.100   3.443   6.589
25404SOL    HW278110   6.073   3.357   6.467
25405SOL     OW78111  10.394   3.578   1.651
25405SOL    HW178112  10.471   3.584   1.594
25405SOL    HW278113  10.320   3.570   1.591
25406SOL     OW78114   1.634   7.844   2.207
25406SOL    HW178115   1.559   7.790   2.184
25406SOL    HW278116   1.710   7.789   2.188
25407SOL     OW78117  12.634  11.586   6.255
25407SOL    HW178118  12.719  11.613   6.288
25407SOL    HW278119  12.587  11.668   6.239
25408SOL     OW78120   9.148  10.225   3.612
25408SOL    HW178121   9.104  10.165   3.551
25408SOL    HW278122   9.186  10.293   3.556
25409SOL     OW78123   6.446   9.182   8.417
25409SOL    HW178124   6.490   9.228   8.488
25409SOL    HW278125   6.504   9.109   8.395
25410SOL     OW78126   2.144   9.587   9.988
25410SOL    HW178127   2.234   9.608  10.015
25410SOL    HW278128   2.089   9.631  10.052
25411SOL     OW78129   5.737   2.628  10.170
25411SOL    HW178130   5.805   2.560  10.161
25411SOL    HW278131   5.740   2.675  10.087
25412SOL     OW78132   6.879   4.481   0.166
25412SOL    HW178133   6.812   4.516   0.226
25412SOL    HW278134   6.828   4.437   0.097
25413SOL     OW78135   7.654   1.707  14.203
25413SOL    HW178136   7.620   1.693  14.115
25413SOL    HW278137   7.599   1.652  14.259
25414SOL     OW78138  14.417  14.606  13.937
25414SOL    HW178139  14.477  14.540  13.902
25414SOL    HW278140  14.342  14.556  13.968
25415SOL     OW78141   0.305  10.242   4.440
25415SOL    HW178142   0.259  10.325   4.422
25415SOL    HW278143   0.271  10.215   4.525
25416SOL     OW78144   6.878   1.160   1.919
25416SOL    HW178145   6.958   1.212   1.907
25416SOL    HW278146   6.899   1.074   1.883
25417SOL     OW78147   9.152   9.409   3.959
25417SOL    HW178148   9.170   9.500   3.985
25417SOL    HW278149   9.213   9.357   4.012
25418SOL     OW78150  14.406   0.417  12.237
25418SOL    HW178151  14.429   0.442  12.326
25418SOL    HW278152  14.472   0.351  12.213
25419SOL     OW78153   3.779  11.907   9.269
25419SOL    HW178154   3.790  11.834   9.330
25419SOL    HW278155   3.825  11.980   9.310
25420SOL     OW78156  13.872  13.857   0.745
25420SOL    HW178157  13.811  13.914   0.791
25420SOL    HW278158  13.947  13.849   0.803
25421SOL     OW78159   8.673   8.624  14.143
25421SOL    HW178160   8.684   8.536  14.107
25421SOL    HW278161   8.625   8.611  14.225
25422SOL     OW78162   2.811   4.250  11.374
25422SOL    HW178163   2.875   4.272  11.441
25422SOL    HW278164   2.859   4.254  11.292
25423SOL     OW78165   4.221   8.858   1.945
25423SOL    HW178166   4.238   8.951   1.959
25423SOL    HW278167   4.136   8.842   1.986
25424SOL     OW78168   6.382   3.611   5.765
25424SOL    HW178169   6.348   3.521   5.762
25424SOL    HW278170   6.459   3.604   5.822
25425SOL     OW78171   0.420  13.699   7.893
25425SOL    HW178172   0.455  13.668   7.977
25425SOL    HW278173   0.385  13.786   7.912
25426SOL     OW78174   4.806   1.689  11.446
25426SOL    HW178175   4.851   1.693  11.530
25426SOL    HW278176   4.748   1.614  11.453
25427SOL     OW78177  12.978   1.705   1.705
25427SOL    HW178178  12.936   1.705   1.791
25427SOL    HW278179  12.930   1.639   1.655
25428SOL     OW78180  12.142  12.876   6.557
25428SOL    HW178181  12.233  12.903   6.564
25428SOL    HW278182  12.097  12.925   6.626
25429SOL     OW78183   5.008   6.261  14.467
25429SOL    HW178184   4.957   6.337  14.440
25429SOL    HW278185   4.962   6.227  14.544
25430SOL     OW78186   6.465  14.596   0.772
25430SOL    HW178187   6.394  14.626   0.716
25430SOL    HW278188   6.439  14.622   0.860
25431SOL     OW78189  10.429   3.096  12.888
25431SOL    HW178190  10.378   3.128  12.962
25431SOL    HW278191  10.482   3.171  12.860
25432SOL     OW78192   0.563   2.865   8.312
25432SOL    HW178193   0.538   2.933   8.375
25432SOL    HW278194   0.570   2.912   8.229
25433SOL     OW78195  14.316   8.851   8.905
25433SOL    HW178196  14.284   8.815   8.822
25433SOL    HW278197  14.403   8.814   8.916
25434SOL     OW78198  11.152  10.472   7.134
25434SOL    HW178199  11.217  10.435   7.075
25434SOL    HW278200  11.202  10.530   7.192
25435SOL     OW78201   9.100  13.048  11.490
25435SOL    HW178202   9.009  13.029  11.465
25435SOL    HW278203   9.147  13.054  11.407
25436SOL     OW78204   4.381   8.588   7.023
25436SOL    HW178205   4.395   8.614   6.932
25436SOL    HW278206   4.466   8.554   7.052
25437SOL     OW78207  14.181   1.780  12.051
25437SOL    HW178208  14.141   1.804  12.134
25437SOL    HW278209  14.248   1.715  12.074
25438SOL     OW78210  11.389   8.265   8.565
25438SOL    HW178211  11.372   8.298   8.653
25438SOL    HW278212  11.305   8.273   8.520
25439SOL     OW78213  14.822  11.996   7.139
25439SOL    HW178214  14.802  11.915   7.092
25439SOL    HW278215  14.861  12.053   7.073
25440SOL     OW78216   9.713   6.292  10.616
25440SOL    HW178217   9.735   6.315  10.526
25440SOL    HW278218   9.652   6.360  10.644
25441SOL     OW78219   8.289   8.527   5.425
25441SOL    HW178220   8.203   8.511   5.386
25441SOL    HW278221   8.299   8.622   5.423
25442SOL     OW78222  11.612   4.542  12.738
25442SOL    HW178223  11.651   4.629  12.749
25442SOL    HW278224  11.616   4.526  12.643
25443SOL     OW78225   5.095   5.000   0.950
25443SOL    HW178226   5.037   5.020   0.876
25443SOL    HW278227   5.122   4.910   0.935
25444SOL     OW78228  14.022   9.182   1.327
25444SOL    HW178229  13.988   9.163   1.415
25444SOL    HW278230  14.117   9.188   1.339
25445SOL     OW78231   8.292   8.716   4.247
25445SOL    HW178232   8.311   8.803   4.212
25445SOL    HW278233   8.350   8.708   4.323
25446SOL     OW78234  11.896   4.657  13.324
25446SOL    HW178235  11.950   4.734  13.346
25446SOL    HW278236  11.954   4.601  13.273
25447SOL     OW78237   4.227   4.244   4.707
25447SOL    HW178238   4.224   4.164   4.759
25447SOL    HW278239   4.249   4.213   4.619
25448SOL     OW78240   2.641  10.871   7.654
25448SOL    HW178241   2.608  10.950   7.697
25448SOL    HW278242   2.576  10.804   7.674
25449SOL     OW78243   2.657   7.947   5.486
25449SOL    HW178244   2.643   7.919   5.577
25449SOL    HW278245   2.578   7.920   5.440
25450SOL     OW78246   4.928   4.409   5.151
25450SOL    HW178247   4.853   4.368   5.108
25450SOL    HW278248   4.911   4.503   5.144
25451SOL     OW78249   2.956   7.082   9.869
25451SOL    HW178250   3.007   7.004   9.848
25451SOL    HW278251   2.977   7.101   9.961
25452SOL     OW78252   7.239  12.666   0.524
25452SOL    HW178253   7.225  12.574   0.503
25452SOL    HW278254   7.319  12.667   0.576
25453SOL     OW78255   2.074   1.612   6.505
25453SOL    HW178256   2.016   1.615   6.581
25453SOL    HW278257   2.076   1.520   6.479
25454SOL     OW78258   9.587   6.150   2.102
25454SOL    HW178259   9.636   6.068   2.112
25454SOL    HW278260   9.631   6.212   2.160
25455SOL     OW78261   5.283   3.079   9.165
25455SOL    HW178262   5.204   3.067   9.218
25455SOL    HW278263   5.352   3.036   9.216
25456SOL     OW78264  13.265   6.194  10.276
25456SOL    HW178265  13.324   6.256  10.318
25456SOL    HW278266  13.243   6.131  10.345
25457SOL     OW78267   6.918   1.047   6.370
25457SOL    HW178268   6.965   1.126   6.343
25457SOL    HW278269   6.936   0.983   6.301
25458SOL     OW78270   6.112   3.809   8.902
25458SOL    HW178271   6.073   3.823   8.988
25458SOL    HW278272   6.133   3.716   8.899
25459SOL     OW78273  10.018   1.925   8.669
25459SOL    HW178274  10.054   1.968   8.592
25459SOL    HW278275  10.087   1.864   8.697
25460SOL     OW78276   9.071  11.522   8.335
25460SOL    HW178277   9.000  11.534   8.398
25460SOL    HW278278   9.039  11.453   8.277
25461SOL     OW78279   6.508   1.983   2.772
25461SOL    HW178280   6.417   1.992   2.800
25461SOL    HW278281   6.513   2.028   2.688
25462SOL     OW78282  13.201  13.285  12.711
25462SOL    HW178283  13.170  13.334  12.787
25462SOL    HW278284  13.223  13.198  12.745
25463SOL     OW78285  14.430   9.650  14.398
25463SOL    HW178286  14.335   9.654  14.384
25463SOL    HW278287  14.453   9.559  14.378
25464SOL     OW78288   2.716   6.274   7.989
25464SOL    HW178289   2.627   6.293   7.957
25464SOL    HW278290   2.772   6.285   7.912
25465SOL     OW78291   6.841   4.232  11.404
25465SOL    HW178292   6.880   4.225  11.317
25465SOL    HW278293   6.914   4.226  11.465
25466SOL     OW78294  10.932  14.458  11.272
25466SOL    HW178295  10.885  14.423  11.348
25466SOL    HW278296  10.863  14.471  11.206
25467SOL     OW78297   8.457  11.058   5.766
25467SOL    HW178298   8.531  11.099   5.723
25467SOL    HW278299   8.384  11.069   5.705
25468SOL     OW78300   9.920   2.997   7.473
25468SOL    HW178301  10.011   3.025   7.483
25468SOL    HW278302   9.869   3.074   7.498
25469SOL     OW78303   2.995  13.354   8.939
25469SOL    HW178304   2.987  13.356   9.034
25469SOL    HW278305   2.912  13.388   8.907
25470SOL     OW78306   8.073   0.091   7.180
25470SOL    HW178307   8.044   0.174   7.217
25470SOL    HW278308   8.151   0.113   7.129
25471SOL     OW78309  10.990   2.934  11.142
25471SOL    HW178310  10.897   2.912  11.144
25471SOL    HW278311  11.016   2.921  11.050
25472SOL     OW78312   2.035   6.370  14.166
25472SOL    HW178313   2.114   6.317  14.183
25472SOL    HW278314   1.963   6.307  14.171
25473SOL     OW78315   5.230  10.334  14.813
25473SOL    HW178316   5.210  10.302  14.725
25473SOL    HW278317   5.191  10.421  14.816
25474SOL     OW78318   1.585  10.890   5.015
25474SOL    HW178319   1.612  10.886   4.923
25474SOL    HW278320   1.556  10.801   5.035
25475SOL     OW78321  11.584  13.286  10.021
25475SOL    HW178322  11.650  13.297  10.090
25475SOL    HW278323  11.600  13.359   9.962
25476SOL     OW78324  13.510   6.261   6.512
25476SOL    HW178325  13.586   6.229   6.561
25476SOL    HW278326  13.436   6.245   6.569
25477SOL     OW78327   1.336  11.668   9.327
25477SOL    HW178328   1.243  11.643   9.327
25477SOL    HW278329   1.342  11.733   9.396
25478SOL     OW78330   0.928  12.638   9.397
25478SOL    HW178331   0.863  12.701   9.368
25478SOL    HW278332   0.893  12.601   9.477
25479SOL     OW78333  10.848   6.508  13.253
25479SOL    HW178334  10.815   6.461  13.329
25479SOL    HW278335  10.925   6.554  13.285
25480SOL     OW78336  13.569  14.272   0.884
25480SOL    HW178337  13.556  14.364   0.908
25480SOL    HW278338  13.540  14.267   0.793
25481SOL     OW78339   6.423   1.081   5.768
25481SOL    HW178340   6.444   1.025   5.693
25481SOL    HW278341   6.456   1.167   5.744
25482SOL     OW78342  12.650   9.999  11.850
25482SOL    HW178343  12.613  10.085  11.869
25482SOL    HW278344  12.734  10.017  11.809
25483SOL     OW78345   0.870   9.900   5.452
25483SOL    HW178346   0.896   9.990   5.436
25483SOL    HW278347   0.803   9.905   5.520
25484SOL     OW78348   7.394   0.900  13.947
25484SOL    HW178349   7.438   0.887  13.863
25484SOL    HW278350   7.465   0.918  14.009
25485SOL     OW78351   1.110   2.182  10.254
25485SOL    HW178352   1.123   2.087  10.248
25485SOL    HW278353   1.168   2.209  10.326
25486SOL     OW78354   7.186   1.647   4.811
25486SOL    HW178355   7.230   1.579   4.760
25486SOL    HW278356   7.229   1.643   4.897
25487SOL     OW78357   4.326   9.092   3.310
25487SOL    HW178358   4.394   9.052   3.255
25487SOL    HW278359   4.266   9.021   3.331
25488SOL     OW78360   2.577  10.596  13.577
25488SOL    HW178361   2.597  10.668  13.517
25488SOL    HW278362   2.614  10.623  13.661
25489SOL     OW78363   6.096  11.529  14.720
25489SOL    HW178364   6.133  11.566  14.800
25489SOL    HW278365   6.141  11.445  14.709
25490SOL     OW78366   6.132   6.832   7.365
25490SOL    HW178367   6.210   6.778   7.381
25490SOL    HW278368   6.094   6.846   7.452
25491SOL     OW78369   3.530   0.845   9.000
25491SOL    HW178370   3.467   0.828   8.929
25491SOL    HW278371   3.494   0.798   9.075
25492SOL     OW78372  12.993  13.074   6.297
25492SOL    HW178373  13.015  13.119   6.216
25492SOL    HW278374  12.948  13.140   6.350
25493SOL     OW78375   2.342   3.585   5.558
25493SOL    HW178376   2.415   3.536   5.595
25493SOL    HW278377   2.320   3.539   5.477
25494SOL     OW78378   6.509   6.168   5.109
25494SOL    HW178379   6.590   6.151   5.061
25494SOL    HW278380   6.534   6.162   5.201
25495SOL     OW78381   6.006   2.652  11.140
25495SOL    HW178382   5.942   2.615  11.201
25495SOL    HW278383   6.052   2.575  11.106
25496SOL     OW78384  10.227  10.378   1.187
25496SOL    HW178385  10.131  10.388   1.187
25496SOL    HW278386  10.242  10.284   1.191
25497SOL     OW78387  10.859  11.411   0.544
25497SOL    HW178388  10.916  11.343   0.580
25497SOL    HW278389  10.771  11.374   0.552
25498SOL     OW78390   1.069   3.264   7.978
25498SOL    HW178391   1.119   3.221   8.048
25498SOL    HW278392   1.089   3.213   7.899
25499SOL     OW78393  11.532  13.435  14.549
25499SOL    HW178394  11.543  13.369  14.618
25499SOL    HW278395  11.612  13.428  14.496
25500SOL     OW78396  13.665  14.272   3.600
25500SOL    HW178397  13.626  14.353   3.567
25500SOL    HW278398  13.759  14.290   3.603
25501SOL     OW78399  10.017   0.622  11.747
25501SOL    HW178400  10.099   0.665  11.722
25501SOL    HW278401  10.004   0.648  11.839
25502SOL     OW78402  10.339   4.193   4.331
25502SOL    HW178403  10.410   4.192   4.394
25502SOL    HW278404  10.326   4.286   4.311
25503SOL     OW78405  12.157   8.553   0.279
25503SOL    HW178406  12.141   8.476   0.224
25503SOL    HW278407  12.107   8.536   0.359
25504SOL     OW78408   5.531  11.610  11.374
25504SOL    HW178409   5.512  11.637  11.464
25504SOL    HW278410   5.624  11.588  11.375
25505SOL     OW78411   7.977  13.578   7.482
25505SOL    HW178412   7.947  13.602   7.394
25505SOL    HW278413   7.897  13.563   7.532
25506SOL     OW78414   9.098   9.222  11.584
25506SOL    HW178415   9.003   9.228  11.574
25506SOL    HW278416   9.132   9.295  11.531
25507SOL     OW78417  11.399   4.018   0.252
25507SOL    HW178418  11.408   4.089   0.189
25507SOL    HW278419  11.477   3.964   0.240
25508SOL     OW78420  14.310  12.052  11.956
25508SOL    HW178421  14.216  12.032  11.949
25508SOL    HW278422  14.352  11.967  11.957
25509SOL     OW78423   3.640   6.254   0.932
25509SOL    HW178424   3.579   6.180   0.946
25509SOL    HW278425   3.597   6.308   0.866
25510SOL     OW78426  11.063  12.258   0.035
25510SOL    HW178427  11.064  12.221   0.123
25510SOL    HW278428  11.154  12.253   0.005
25511SOL     OW78429   0.694   8.824  12.143
25511SOL    HW178430   0.743   8.765  12.086
25511SOL    HW278431   0.761   8.868  12.196
25512SOL     OW78432   4.914   6.697   7.994
25512SOL    HW178433   4.934   6.699   7.900
25512SOL    HW278434   4.917   6.789   8.021
25513SOL     OW78435  10.442   0.581   0.249
25513SOL    HW178436  10.463   0.665   0.208
25513SOL    HW278437  10.392   0.534   0.182
25514SOL     OW78438   6.420  13.503   9.601
25514SOL    HW178439   6.463  13.440   9.543
25514SOL    HW278440   6.366  13.450   9.658
25515SOL     OW78441  11.640   7.330   9.411
25515SOL    HW178442  11.650   7.424   9.423
25515SOL    HW278443  11.584   7.303   9.484
25516SOL     OW78444   8.815   4.293  12.326
25516SOL    HW178445   8.830   4.388  12.320
25516SOL    HW278446   8.737   4.284  12.380
25517SOL     OW78447   0.624   5.848   1.923
25517SOL    HW178448   0.689   5.788   1.960
25517SOL    HW278449   0.574   5.793   1.861
25518SOL     OW78450   0.520   9.567   9.326
25518SOL    HW178451   0.575   9.516   9.265
25518SOL    HW278452   0.517   9.654   9.287
25519SOL     OW78453   6.482   6.319  10.518
25519SOL    HW178454   6.535   6.359  10.449
25519SOL    HW278455   6.479   6.226  10.495
25520SOL     OW78456  12.074   9.989   4.613
25520SOL    HW178457  12.011   9.918   4.604
25520SOL    HW278458  12.133   9.978   4.538
25521SOL     OW78459  13.299  11.935   3.454
25521SOL    HW178460  13.351  12.009   3.482
25521SOL    HW278461  13.300  11.875   3.528
25522SOL     OW78462  12.934  11.488  10.469
25522SOL    HW178463  12.931  11.561  10.407
25522SOL    HW278464  12.923  11.410  10.416
25523SOL     OW78465  13.458   4.218   5.120
25523SOL    HW178466  13.392   4.152   5.138
25523SOL    HW278467  13.484   4.250   5.206
25524SOL     OW78468   7.334   7.271   9.860
25524SOL    HW178469   7.370   7.359   9.860
25524SOL    HW278470   7.284   7.265   9.941
25525SOL     OW78471  14.605  13.658  13.999
25525SOL    HW178472  14.618  13.751  14.013
25525SOL    HW278473  14.601  13.621  14.087
25526SOL     OW78474   8.767   6.487   7.296
25526SOL    HW178475   8.815   6.452   7.220
25526SOL    HW278476   8.701   6.544   7.258
25527SOL     OW78477   3.677  14.445   0.033
25527SOL    HW178478   3.726  14.371   0.069
25527SOL    HW278479   3.610  14.464   0.099
25528SOL     OW78480   4.413   2.130   6.437
25528SOL    HW178481   4.399   2.043   6.399
25528SOL    HW278482   4.505   2.149   6.423
25529SOL     OW78483   1.448   9.290   7.029
25529SOL    HW178484   1.387   9.309   7.101
25529SOL    HW278485   1.393   9.287   6.951
25530SOL     OW78486   3.729  13.323   4.808
25530SOL    HW178487   3.750  13.393   4.870
25530SOL    HW278488   3.681  13.259   4.861
25531SOL     OW78489   9.062   7.593   4.235
25531SOL    HW178490   9.140   7.641   4.262
25531SOL    HW278491   9.069   7.586   4.140
25532SOL     OW78492   0.983   5.422   2.084
25532SOL    HW178493   0.948   5.511   2.091
25532SOL    HW278494   1.030   5.408   2.166
25533SOL     OW78495   2.989   2.015   3.991
25533SOL    HW178496   3.005   1.946   4.055
25533SOL    HW278497   3.008   2.097   4.038
25534SOL     OW78498  12.625   3.711   5.699
25534SOL    HW178499  12.529   3.710   5.691
25534SOL    HW278500  12.655   3.653   5.630
25535SOL     OW78501  11.613  12.080   9.070
25535SOL    HW178502  11.553  12.020   9.025
25535SOL    HW278503  11.665  12.023   9.126
25536SOL     OW78504  11.273  14.021  14.745
25536SOL    HW178505  11.303  13.975  14.666
25536SOL    HW278506  11.249  13.951  14.806
25537SOL     OW78507  11.138   1.746   0.320
25537SOL    HW178508  11.212   1.767   0.377
25537SOL    HW278509  11.077   1.700   0.377
25538SOL     OW78510   2.529  14.816  12.034
25538SOL    HW178511   2.530  14.881  12.104
25538SOL    HW278512   2.576  14.741  12.070
25539SOL     OW78513  10.711   5.053   7.107
25539SOL    HW178514  10.639   5.022   7.162
25539SOL    HW278515  10.737   4.976   7.056
25540SOL     OW78516   1.496   3.380   8.368
25540SOL    HW178517   1.455   3.462   8.342
25540SOL    HW278518   1.481   3.321   8.295
25541SOL     OW78519   1.414  11.184  13.013
25541SOL    HW178520   1.449  11.111  13.064
25541SOL    HW278521   1.327  11.200  13.050
25542SOL     OW78522   4.752  14.164   9.518
25542SOL    HW178523   4.809  14.185   9.592
25542SOL    HW278524   4.808  14.116   9.457
25543SOL     OW78525   9.605   0.500   1.913
25543SOL    HW178526   9.646   0.447   1.981
25543SOL    HW278527   9.585   0.439   1.843
25544SOL     OW78528   7.327  12.049   2.946
25544SOL    HW178529   7.331  12.021   3.038
25544SOL    HW278530   7.419  12.058   2.920
25545SOL     OW78531   7.271   3.424  12.541
25545SOL    HW178532   7.258   3.518  12.525
25545SOL    HW278533   7.182   3.388  12.539
25546SOL     OW78534  12.003   6.531   8.533
25546SOL    HW178535  12.077   6.562   8.481
25546SOL    HW278536  12.023   6.560   8.622
25547SOL     OW78537  10.679   1.951   1.290
25547SOL    HW178538  10.654   1.954   1.382
25547SOL    HW278539  10.624   2.016   1.247
25548SOL     OW78540  14.730   6.402  11.644
25548SOL    HW178541  14.765   6.437  11.562
25548SOL    HW278542  14.749   6.470  11.709
25549SOL     OW78543   8.007   7.585  13.992
25549SOL    HW178544   8.081   7.549  13.943
25549SOL    HW278545   7.941   7.516  13.989
25550SOL     OW78546   8.212   1.229   0.299
25550SOL    HW178547   8.228   1.321   0.277
25550SOL    HW278548   8.180   1.191   0.217
25551SOL     OW78549   4.897   6.666  11.488
25551SOL    HW178550   4.973   6.676  11.546
25551SOL    HW278551   4.857   6.753  11.487
25552SOL     OW78552   0.529  12.640   3.851
25552SOL    HW178553   0.587  12.605   3.919
25552SOL    HW278554   0.534  12.576   3.780
25553SOL     OW78555   4.118   5.399   8.878
25553SOL    HW178556   4.068   5.340   8.822
25553SOL    HW278557   4.209   5.371   8.867
25554SOL     OW78558   3.088   5.628  10.238
25554SOL    HW178559   3.054   5.586  10.158
25554SOL    HW278560   3.036   5.707  10.247
25555SOL     OW78561   2.175   4.095  14.583
25555SOL    HW178562   2.149   4.177  14.624
25555SOL    HW278563   2.245   4.061  14.638
25556SOL     OW78564   9.905   6.212  14.112
25556SOL    HW178565   9.956   6.160  14.175
25556SOL    HW278566   9.948   6.297  14.110
25557SOL     OW78567   9.409  13.629   3.991
25557SOL    HW178568   9.324  13.642   3.949
25557SOL    HW278569   9.469  13.608   3.920
25558SOL     OW78570   3.898   3.931   1.378
25558SOL    HW178571   3.977   3.984   1.368
25558SOL    HW278572   3.853   3.939   1.294
25559SOL     OW78573   2.183  11.184   6.782
25559SOL    HW178574   2.210  11.095   6.804
25559SOL    HW278575   2.257  11.220   6.732
25560SOL     OW78576   7.831   6.078  13.128
25560SOL    HW178577   7.800   6.168  13.114
25560SOL    HW278578   7.840   6.042  13.040
25561SOL     OW78579  10.479   7.739  14.508
25561SOL    HW178580  10.470   7.666  14.570
25561SOL    HW278581  10.466   7.817  14.561
25562SOL     OW78582   0.225  11.950   1.445
25562SOL    HW178583   0.284  11.875   1.434
25562SOL    HW278584   0.166  11.923   1.515
25563SOL     OW78585   9.188  13.229   4.837
25563SOL    HW178586   9.219  13.215   4.747
25563SOL    HW278587   9.212  13.320   4.856
25564SOL     OW78588   7.521   5.329  11.666
25564SOL    HW178589   7.569   5.302  11.744
25564SOL    HW278590   7.527   5.255  11.606
25565SOL     OW78591  14.740  11.351  14.097
25565SOL    HW178592  14.704  11.337  14.185
25565SOL    HW278593  14.828  11.385  14.112
25566SOL     OW78594   4.488   3.825   4.836
25566SOL    HW178595   4.483   3.851   4.928
25566SOL    HW278596   4.575   3.855   4.808
25567SOL     OW78597   0.320   4.303   5.765
25567SOL    HW178598   0.409   4.281   5.794
25567SOL    HW278599   0.288   4.223   5.724
25568SOL     OW78600   4.144   3.183   9.083
25568SOL    HW178601   4.238   3.172   9.095
25568SOL    HW278602   4.105   3.137   9.158
25569SOL     OW78603   3.074   5.797   1.487
25569SOL    HW178604   3.038   5.856   1.421
25569SOL    HW278605   3.127   5.853   1.544
25570SOL     OW78606   6.817   0.604  11.874
25570SOL    HW178607   6.865   0.650  11.805
25570SOL    HW278608   6.743   0.661  11.893
25571SOL     OW78609   1.137   7.063   7.685
25571SOL    HW178610   1.046   7.053   7.715
25571SOL    HW278611   1.143   7.006   7.608
25572SOL     OW78612  11.218  12.145   8.018
25572SOL    HW178613  11.237  12.219   8.075
25572SOL    HW278614  11.179  12.183   7.940
25573SOL     OW78615  11.280  13.365  14.673
25573SOL    HW178616  11.357  13.390  14.622
25573SOL    HW278617  11.268  13.272  14.656
25574SOL     OW78618  11.774   9.336   8.892
25574SOL    HW178619  11.730   9.337   8.977
25574SOL    HW278620  11.822   9.419   8.889
25575SOL     OW78621   6.295   7.975   4.535
25575SOL    HW178622   6.361   8.003   4.471
25575SOL    HW278623   6.263   7.892   4.501
25576SOL     OW78624   8.703   4.013   0.165
25576SOL    HW178625   8.693   4.072   0.240
25576SOL    HW278626   8.770   3.950   0.192
25577SOL     OW78627  11.863   0.043  10.461
25577SOL    HW178628  11.819  14.856  10.411
25577SOL    HW278629  11.874   0.115  10.398
25578SOL     OW78630   7.727   3.420  11.182
25578SOL    HW178631   7.719   3.426  11.278
25578SOL    HW278632   7.647   3.375  11.154
25579SOL     OW78633   8.271  11.906   7.977
25579SOL    HW178634   8.300  11.815   7.982
25579SOL    HW278635   8.281  11.939   8.067
25580SOL     OW78636   6.068   3.665   8.364
25580SOL    HW178637   6.060   3.757   8.389
25580SOL    HW278638   5.979   3.637   8.344
25581SOL     OW78639   3.378  13.432   1.533
25581SOL    HW178640   3.454  13.390   1.494
25581SOL    HW278641   3.388  13.416   1.627
25582SOL     OW78642  14.385   4.628   9.574
25582SOL    HW178643  14.425   4.541   9.580
25582SOL    HW278644  14.409   4.671   9.656
25583SOL     OW78645  11.621   5.867   8.435
25583SOL    HW178646  11.664   5.939   8.481
25583SOL    HW278647  11.576   5.909   8.361
25584SOL     OW78648   8.740   6.347   8.559
25584SOL    HW178649   8.662   6.335   8.613
25584SOL    HW278650   8.781   6.261   8.556
25585SOL     OW78651  11.540   8.018   8.309
25585SOL    HW178652  11.573   8.096   8.264
25585SOL    HW278653  11.617   7.978   8.348
25586SOL     OW78654   4.477   6.278   3.057
25586SOL    HW178655   4.566   6.254   3.033
25586SOL    HW278656   4.485   6.315   3.145
25587SOL     OW78657  10.262  13.707   7.263
25587SOL    HW178658  10.185  13.752   7.297
25587SOL    HW278659  10.229  13.649   7.195
25588SOL     OW78660   1.950   6.110  12.591
25588SOL    HW178661   1.875   6.113  12.650
25588SOL    HW278662   1.916   6.073  12.510
25589SOL     OW78663   7.804   1.149   9.611
25589SOL    HW178664   7.717   1.146   9.571
25589SOL    HW278665   7.795   1.098   9.691
25590SOL     OW78666   1.082   8.004  11.163
25590SOL    HW178667   1.090   7.909  11.174
25590SOL    HW278668   1.037   8.014  11.079
25591SOL     OW78669  14.593   8.401   4.174
25591SOL    HW178670  14.504   8.377   4.200
25591SOL    HW278671  14.581   8.455   4.096
25592SOL     OW78672   8.929   1.956   6.409
25592SOL    HW178673   8.870   1.889   6.373
25592SOL    HW278674   9.001   1.960   6.346
25593SOL     OW78675   6.328   0.479  13.376
25593SOL    HW178676   6.420   0.452  13.377
25593SOL    HW278677   6.280   0.401  13.406
25594SOL     OW78678   1.312  11.655   8.137
25594SOL    HW178679   1.224  11.620   8.123
25594SOL    HW278680   1.307  11.699   8.223
25595SOL     OW78681  12.683   6.176  12.930
25595SOL    HW178682  12.699   6.203  13.020
25595SOL    HW278683  12.592   6.201  12.913
25596SOL     OW78684  12.314   6.039   5.335
25596SOL    HW178685  12.222   6.058   5.317
25596SOL    HW278686  12.338   5.971   5.273
25597SOL     OW78687  12.727  14.624   6.804
25597SOL    HW178688  12.778  14.584   6.875
25597SOL    HW278689  12.792  14.642   6.736
25598SOL     OW78690   8.111  14.522  13.456
25598SOL    HW178691   8.161  14.469  13.394
25598SOL    HW278692   8.027  14.476  13.463
25599SOL     OW78693  14.178  12.455   8.023
25599SOL    HW178694  14.248  12.465   7.958
25599SOL    HW278695  14.209  12.386   8.081
25600SOL     OW78696   9.667   0.134  13.172
25600SOL    HW178697   9.572   0.132  13.186
25600SOL    HW278698   9.700   0.192  13.241
25601SOL     OW78699   4.563   0.464   2.746
25601SOL    HW178700   4.569   0.544   2.798
25601SOL    HW278701   4.551   0.394   2.811
25602SOL     OW78702  11.696   2.621   6.640
25602SOL    HW178703  11.775   2.571   6.659
25602SOL    HW278704  11.694   2.689   6.707
25603SOL     OW78705   4.162   6.327   5.398
25603SOL    HW178706   4.221   6.268   5.444
25603SOL    HW278707   4.079   6.320   5.447
25604SOL     OW78708   1.982   1.734  13.926
25604SOL    HW178709   2.043   1.807  13.935
25604SOL    HW278710   2.037   1.661  13.896
25605SOL     OW78711  10.355   8.810  10.010
25605SOL    HW178712  10.274   8.764   9.988
25605SOL    HW278713  10.425   8.748   9.988
25606SOL     OW78714  11.006  10.372   5.905
25606SOL    HW178715  10.949  10.295   5.909
25606SOL    HW278716  11.071  10.357   5.974
25607SOL     OW78717  14.399   1.805   5.166
25607SOL    HW178718  14.334   1.788   5.235
25607SOL    HW278719  14.483   1.798   5.210
25608SOL     OW78720  13.803  13.680   0.088
25608SOL    HW178721  13.768  13.767   0.108
25608SOL    HW278722  13.897  13.689   0.103
25609SOL     OW78723  13.157   2.061  12.786
25609SOL    HW178724  13.081   2.114  12.760
25609SOL    HW278725  13.178   2.011  12.707
25610SOL     OW78726  14.731  13.593   5.689
25610SOL    HW178727  14.659  13.565   5.632
25610SOL    HW278728  14.767  13.671   5.646
25611SOL     OW78729   5.935   8.115   6.862
25611SOL    HW178730   6.019   8.162   6.863
25611SOL    HW278731   5.917   8.097   6.954
25612SOL     OW78732  12.813   6.786  13.876
25612SOL    HW178733  12.857   6.813  13.956
25612SOL    HW278734  12.810   6.691  13.881
25613SOL     OW78735   0.186   7.511   2.126
25613SOL    HW178736   0.232   7.583   2.170
25613SOL    HW278737   0.094   7.537   2.128
25614SOL     OW78738   3.639  14.464  14.189
25614SOL    HW178739   3.697  14.401  14.232
25614SOL    HW278740   3.698  14.529  14.152
25615SOL     OW78741   5.735  10.909   0.753
25615SOL    HW178742   5.796  10.974   0.718
25615SOL    HW278743   5.648  10.942   0.730
25616SOL     OW78744   6.143   9.600   8.278
25616SOL    HW178745   6.187   9.684   8.286
25616SOL    HW278746   6.211   9.540   8.249
25617SOL     OW78747   3.447  13.068  14.691
25617SOL    HW178748   3.534  13.039  14.720
25617SOL    HW278749   3.443  13.044  14.599
25618SOL     OW78750  13.434   4.447  13.953
25618SOL    HW178751  13.482   4.528  13.973
25618SOL    HW278752  13.427   4.448  13.858
25619SOL     OW78753   9.584   6.574   8.340
25619SOL    HW178754   9.597   6.650   8.395
25619SOL    HW278755   9.655   6.578   8.276
25620SOL     OW78756   7.084  14.163   9.367
25620SOL    HW178757   7.088  14.110   9.446
25620SOL    HW278758   6.993  14.155   9.338
25621SOL     OW78759   2.393   8.178   5.938
25621SOL    HW178760   2.480   8.171   5.898
25621SOL    HW278761   2.400   8.128   6.019
25622SOL     OW78762   2.007   2.905  11.959
25622SOL    HW178763   2.080   2.962  11.983
25622SOL    HW278764   1.999   2.917  11.864
25623SOL     OW78765   0.728  10.167   6.140
25623SOL    HW178766   0.766  10.165   6.052
25623SOL    HW278767   0.648  10.115   6.133
25624SOL     OW78768   2.707   5.369   1.475
25624SOL    HW178769   2.622   5.326   1.475
25624SOL    HW278770   2.770   5.298   1.489
25625SOL     OW78771  10.236   4.528  10.311
25625SOL    HW178772  10.303   4.595  10.302
25625SOL    HW278773  10.166   4.555  10.252
25626SOL     OW78774   9.434  11.293  14.769
25626SOL    HW178775   9.447  11.292  14.863
25626SOL    HW278776   9.515  11.328  14.733
25627SOL     OW78777   8.366  10.841   9.479
25627SOL    HW178778   8.318  10.829   9.397
25627SOL    HW278779   8.418  10.920   9.466
25628SOL     OW78780   0.591  13.053  11.630
25628SOL    HW178781   0.520  13.065  11.693
25628SOL    HW278782   0.670  13.077  11.678
25629SOL     OW78783   0.529  13.192   8.968
25629SOL    HW178784   0.461  13.200   8.902
25629SOL    HW278785   0.611  13.206   8.921
25630SOL     OW78786  11.787  11.983  14.276
25630SOL    HW178787  11.732  11.989  14.198
25630SOL    HW278788  11.792  12.073  14.308
25631SOL     OW78789   0.197   9.122  12.113
25631SOL    HW178790   0.121   9.068  12.137
25631SOL    HW278791   0.195   9.194  12.176
25632SOL     OW78792   0.569   9.598   5.024
25632SOL    HW178793   0.559   9.691   5.042
25632SOL    HW278794   0.554   9.591   4.929
25633SOL     OW78795   0.036  13.776   0.384
25633SOL    HW178796   0.023  13.714   0.456
25633SOL    HW278797   0.061  13.858   0.427
25634SOL     OW78798   4.837   7.558  13.014
25634SOL    HW178799   4.834   7.467  13.042
25634SOL    HW278800   4.745   7.581  12.996
25635SOL     OW78801   5.296   1.605   7.908
25635SOL    HW178802   5.340   1.690   7.899
25635SOL    HW278803   5.209   1.619   7.871
25636SOL     OW78804   7.343   8.895  13.284
25636SOL    HW178805   7.422   8.860  13.243
25636SOL    HW278806   7.371   8.978  13.323
25637SOL     OW78807   9.680   2.629   4.334
25637SOL    HW178808   9.750   2.639   4.269
25637SOL    HW278809   9.607   2.590   4.285
25638SOL     OW78810   1.342   5.756   4.819
25638SOL    HW178811   1.343   5.844   4.782
25638SOL    HW278812   1.281   5.708   4.763
25639SOL     OW78813  11.891  10.023   5.402
25639SOL    HW178814  11.815   9.981   5.443
25639SOL    HW278815  11.857  10.107   5.371
25640SOL     OW78816  10.045   7.022  13.589
25640SOL    HW178817  10.007   7.002  13.503
25640SOL    HW278818  10.125   6.969  13.592
25641SOL     OW78819  13.956   4.933   6.332
25641SOL    HW178820  13.966   4.877   6.255
25641SOL    HW278821  14.010   5.009   6.313
25642SOL     OW78822   5.547   6.893   6.954
25642SOL    HW178823   5.612   6.922   7.018
25642SOL    HW278824   5.464   6.898   7.001
25643SOL     OW78825   3.900   6.635  13.125
25643SOL    HW178826   3.856   6.711  13.164
25643SOL    HW278827   3.976   6.620  13.181
25644SOL     OW78828  12.111   0.870   7.706
25644SOL    HW178829  12.039   0.863   7.643
25644SOL    HW278830  12.178   0.920   7.660
25645SOL     OW78831   7.090  10.797  14.223
25645SOL    HW178832   7.058  10.869  14.276
25645SOL    HW278833   7.180  10.821  14.201
25646SOL     OW78834   6.993  14.389  13.141
25646SOL    HW178835   6.898  14.380  13.138
25646SOL    HW278836   7.009  14.481  13.119
25647SOL     OW78837   1.090   6.857   3.192
25647SOL    HW178838   1.019   6.918   3.170
25647SOL    HW278839   1.045   6.775   3.211
25648SOL     OW78840  13.114  14.826   5.594
25648SOL    HW178841  13.183  14.816   5.529
25648SOL    HW278842  13.034  14.800   5.548
25649SOL     OW78843  13.473   3.417   0.388
25649SOL    HW178844  13.558   3.445   0.422
25649SOL    HW278845  13.470   3.453   0.299
25650SOL     OW78846   5.191  12.565   7.917
25650SOL    HW178847   5.225  12.616   7.991
25650SOL    HW278848   5.125  12.508   7.957
25651SOL     OW78849  13.974   4.322   6.685
25651SOL    HW178850  14.029   4.246   6.705
25651SOL    HW278851  13.891   4.304   6.729
25652SOL     OW78852   4.620   6.952   6.215
25652SOL    HW178853   4.689   6.914   6.269
25652SOL    HW278854   4.643   6.926   6.126
25653SOL     OW78855   4.285   0.906   7.670
25653SOL    HW178856   4.328   0.875   7.590
25653SOL    HW278857   4.203   0.856   7.674
25654SOL     OW78858  10.523   4.993   8.693
25654SOL    HW178859  10.463   4.960   8.760
25654SOL    HW278860  10.483   5.074   8.662
25655SOL     OW78861  10.810   1.079  11.214
25655SOL    HW178862  10.825   1.125  11.131
25655SOL    HW278863  10.809   1.148  11.280
25656SOL     OW78864  14.267  12.419  11.894
25656SOL    HW178865  14.186  12.394  11.938
25656SOL    HW278866  14.313  12.337  11.880
25657SOL     OW78867   5.427   8.105   9.544
25657SOL    HW178868   5.422   8.199   9.525
25657SOL    HW278869   5.489   8.099   9.616
25658SOL     OW78870  14.686   0.463   9.056
25658SOL    HW178871  14.712   0.512   8.978
25658SOL    HW278872  14.756   0.399   9.069
25659SOL     OW78873   4.392   4.954   0.044
25659SOL    HW178874   4.361   4.889  14.863
25659SOL    HW278875   4.356   4.926   0.128
25660SOL     OW78876   3.709   7.176  14.189
25660SOL    HW178877   3.738   7.131  14.269
25660SOL    HW278878   3.614   7.183  14.198
25661SOL     OW78879   5.198  11.166   2.076
25661SOL    HW178880   5.233  11.124   1.998
25661SOL    HW278881   5.180  11.094   2.137
25662SOL     OW78882  11.818   5.453  12.496
25662SOL    HW178883  11.729   5.445  12.532
25662SOL    HW278884  11.812   5.527  12.434
25663SOL     OW78885   7.918  13.963   6.742
25663SOL    HW178886   7.944  13.962   6.834
25663SOL    HW278887   7.874  13.879   6.729
25664SOL     OW78888  12.508   6.988   3.654
25664SOL    HW178889  12.540   6.971   3.743
25664SOL    HW278890  12.441   7.056   3.665
25665SOL     OW78891   1.148   5.680  12.601
25665SOL    HW178892   1.224   5.625  12.582
25665SOL    HW278893   1.175   5.768  12.575
25666SOL     OW78894   5.707  13.115   2.691
25666SOL    HW178895   5.751  13.115   2.606
25666SOL    HW278896   5.777  13.108   2.755
25667SOL     OW78897   4.875   3.812   4.726
25667SOL    HW178898   4.877   3.907   4.731
25667SOL    HW278899   4.966   3.787   4.709
25668SOL     OW78900  10.684   6.711   8.266
25668SOL    HW178901  10.652   6.768   8.336
25668SOL    HW278902  10.777   6.697   8.287
25669SOL     OW78903   9.727   1.358   3.567
25669SOL    HW178904   9.702   1.417   3.496
25669SOL    HW278905   9.685   1.394   3.644
25670SOL     OW78906  10.081  14.811   9.965
25670SOL    HW178907   9.995  14.830   9.928
25670SOL    HW278908  10.126   0.014   9.967
25671SOL     OW78909   6.806   1.033   5.014
25671SOL    HW178910   6.881   0.990   4.972
25671SOL    HW278911   6.793   0.983   5.095
25672SOL     OW78912   8.170   8.689   9.729
25672SOL    HW178913   8.117   8.735   9.794
25672SOL    HW278914   8.151   8.596   9.744
25673SOL     OW78915   2.739  12.826   0.503
25673SOL    HW178916   2.759  12.916   0.477
25673SOL    HW278917   2.647  12.814   0.480
25674SOL     OW78918   1.723   5.445   0.859
25674SOL    HW178919   1.735   5.473   0.949
25674SOL    HW278920   1.702   5.351   0.865
25675SOL     OW78921  11.368   2.270  13.316
25675SOL    HW178922  11.343   2.342  13.374
25675SOL    HW278923  11.464   2.272  13.316
25676SOL     OW78924  14.137   2.346   8.047
25676SOL    HW178925  14.064   2.290   8.071
25676SOL    HW278926  14.209   2.285   8.028
25677SOL     OW78927   1.951   8.379   4.031
25677SOL    HW178928   2.019   8.335   3.981
25677SOL    HW278929   1.936   8.321   4.106
25678SOL     OW78930   3.734   8.258   3.835
25678SOL    HW178931   3.720   8.330   3.896
25678SOL    HW278932   3.810   8.284   3.783
25679SOL     OW78933   1.583   8.335   3.466
25679SOL    HW178934   1.550   8.368   3.550
25679SOL    HW278935   1.675   8.363   3.464
25680SOL     OW78936  12.450  10.303   7.704
25680SOL    HW178937  12.427  10.384   7.660
25680SOL    HW278938  12.420  10.315   7.794
25681SOL     OW78939   2.488   1.564  12.314
25681SOL    HW178940   2.416   1.571  12.378
25681SOL    HW278941   2.536   1.647  12.324
25682SOL     OW78942  12.493   0.034  11.842
25682SOL    HW178943  12.541   0.107  11.882
25682SOL    HW278944  12.401   0.060  11.848
25683SOL     OW78945   1.988   8.304   6.510
25683SOL    HW178946   1.904   8.284   6.550
25683SOL    HW278947   1.981   8.270   6.421
25684SOL     OW78948   7.520   0.418  14.554
25684SOL    HW178949   7.457   0.439  14.484
25684SOL    HW278950   7.572   0.346  14.518
25685SOL     OW78951   3.192   5.620  14.172
25685SOL    HW178952   3.264   5.575  14.128
25685SOL    HW278953   3.192   5.585  14.261
25686SOL     OW78954  13.353  14.676  14.023
25686SOL    HW178955  13.408  14.732  13.968
25686SOL    HW278956  13.300  14.737  14.074
25687SOL     OW78957  10.970   7.479  12.881
25687SOL    HW178958  11.043   7.460  12.940
25687SOL    HW278959  10.999   7.447  12.796
25688SOL     OW78960  14.596   7.231  13.845
25688SOL    HW178961  14.605   7.298  13.913
25688SOL    HW278962  14.535   7.168  13.882
25689SOL     OW78963   0.948   6.823   3.805
25689SOL    HW178964   0.950   6.883   3.880
25689SOL    HW278965   0.879   6.761   3.825
25690SOL     OW78966   6.363   4.528  13.043
25690SOL    HW178967   6.402   4.605  13.083
25690SOL    HW278968   6.434   4.489  12.991
25691SOL     OW78969   5.160   0.813   6.612
25691SOL    HW178970   5.221   0.885   6.624
25691SOL    HW278971   5.148   0.806   6.517
25692SOL     OW78972  13.878  10.128   3.896
25692SOL    HW178973  13.790  10.123   3.934
25692SOL    HW278974  13.863  10.160   3.807
25693SOL     OW78975  11.809   6.137   4.785
25693SOL    HW178976  11.815   6.232   4.780
25693SOL    HW278977  11.812   6.108   4.694
25694SOL     OW78978   1.706   6.801   7.338
25694SOL    HW178979   1.668   6.744   7.406
25694SOL    HW278980   1.677   6.761   7.255
25695SOL     OW78981   1.304  13.274  10.778
25695SOL    HW178982   1.225  13.275  10.723
25695SOL    HW278983   1.376  13.267  10.715
25696SOL     OW78984  12.844   0.240  13.665
25696SOL    HW178985  12.927   0.232  13.713
25696SOL    HW278986  12.864   0.301  13.594
25697SOL     OW78987   7.854  14.587   4.490
25697SOL    HW178988   7.919  14.657   4.487
25697SOL    HW278989   7.803  14.598   4.410
25698SOL     OW78990   5.297   0.154   2.596
25698SOL    HW178991   5.299   0.242   2.559
25698SOL    HW278992   5.249   0.164   2.679
25699SOL     OW78993   1.639  10.883  14.388
25699SOL    HW178994   1.548  10.911  14.401
25699SOL    HW278995   1.633  10.812  14.324
25700SOL     OW78996   7.471   7.726   1.731
25700SOL    HW178997   7.483   7.767   1.817
25700SOL    HW278998   7.534   7.769   1.674
25701SOL     OW78999  12.700   5.586   5.510
25701SOL    HW179000  12.608   5.614   5.511
25701SOL    HW279001  12.724   5.579   5.602
25702SOL     OW79002  12.234   2.601   9.966
25702SOL    HW179003  12.245   2.523   9.911
25702SOL    HW279004  12.194   2.666   9.908
25703SOL     OW79005  14.642   9.561   4.823
25703SOL    HW179006  14.567   9.614   4.847
25703SOL    HW279007  14.604   9.478   4.792
25704SOL     OW79008  10.054   7.298  13.200
25704SOL    HW179009  10.010   7.245  13.267
25704SOL    HW279010  10.071   7.236  13.129
25705SOL     OW79011   7.874   3.947  14.536
25705SOL    HW179012   7.852   3.999  14.613
25705SOL    HW279013   7.899   4.011  14.470
25706SOL     OW79014   3.748   0.947   1.426
25706SOL    HW179015   3.727   1.033   1.392
25706SOL    HW279016   3.697   0.940   1.507
25707SOL     OW79017   2.034  10.738   2.488
25707SOL    HW179018   2.093  10.747   2.413
25707SOL    HW279019   2.003  10.826   2.506
25708SOL     OW79020  14.376  11.414   9.946
25708SOL    HW179021  14.294  11.372   9.971
25708SOL    HW279022  14.407  11.455  10.026
25709SOL     OW79023   3.078   4.784  10.705
25709SOL    HW179024   3.167   4.778  10.738
25709SOL    HW279025   3.087   4.786  10.610
25710SOL     OW79026  13.586  10.352   8.019
25710SOL    HW179027  13.572  10.405   7.940
25710SOL    HW279028  13.551  10.265   7.996
25711SOL     OW79029   4.579   0.744   3.130
25711SOL    HW179030   4.557   0.833   3.156
25711SOL    HW279031   4.495   0.702   3.112
25712SOL     OW79032  13.585   8.541   1.550
25712SOL    HW179033  13.521   8.608   1.574
25712SOL    HW279034  13.569   8.469   1.610
25713SOL     OW79035   0.287   8.441   6.611
25713SOL    HW179036   0.322   8.381   6.678
25713SOL    HW279037   0.321   8.527   6.636
25714SOL     OW79038   3.902   0.577   5.456
25714SOL    HW179039   3.971   0.619   5.507
25714SOL    HW279040   3.835   0.644   5.446
25715SOL     OW79041   9.605  10.885   8.423
25715SOL    HW179042   9.526  10.833   8.436
25715SOL    HW279043   9.585  10.942   8.349
25716SOL     OW79044   6.510   2.406  13.104
25716SOL    HW179045   6.528   2.486  13.153
25716SOL    HW279046   6.547   2.423  13.017
25717SOL     OW79047   1.912   4.604   2.653
25717SOL    HW179048   1.934   4.654   2.731
25717SOL    HW279049   1.996   4.577   2.616
25718SOL     OW79050   3.072   8.219   7.965
25718SOL    HW179051   3.013   8.144   7.978
25718SOL    HW279052   3.028   8.292   8.009
25719SOL     OW79053   3.933   3.848   9.389
25719SOL    HW179054   4.017   3.893   9.388
25719SOL    HW279055   3.924   3.816   9.479
25720SOL     OW79056  10.717   5.955   9.118
25720SOL    HW179057  10.811   5.935   9.120
25720SOL    HW279058  10.692   5.948   9.026
25721SOL     OW79059   9.653   5.198   4.337
25721SOL    HW179060   9.630   5.220   4.427
25721SOL    HW279061   9.587   5.243   4.284
25722SOL     OW79062   4.865   3.102  14.520
25722SOL    HW179063   4.818   3.079  14.440
25722SOL    HW279064   4.929   3.031  14.531
25723SOL     OW79065   0.586   4.185   7.745
25723SOL    HW179066   0.535   4.167   7.824
25723SOL    HW279067   0.532   4.150   7.674
25724SOL     OW79068   1.601   0.671   4.092
25724SOL    HW179069   1.675   0.711   4.138
25724SOL    HW279070   1.632   0.661   4.002
25725SOL     OW79071  12.048   0.292   8.488
25725SOL    HW179072  12.100   0.217   8.460
25725SOL    HW279073  12.110   0.351   8.530
25726SOL     OW79074   0.779   3.024   3.226
25726SOL    HW179075   0.789   3.023   3.131
25726SOL    HW279076   0.750   2.936   3.248
25727SOL     OW79077  11.791   0.891   3.251
25727SOL    HW179078  11.726   0.953   3.283
25727SOL    HW279079  11.829   0.934   3.174
25728SOL     OW79080   7.139   1.857   7.769
25728SOL    HW179081   7.183   1.941   7.758
25728SOL    HW279082   7.050   1.871   7.736
25729SOL     OW79083   5.215   5.669  12.527
25729SOL    HW179084   5.151   5.731  12.561
25729SOL    HW279085   5.163   5.593  12.502
25730SOL     OW79086   3.862   5.617   9.443
25730SOL    HW179087   3.931   5.666   9.488
25730SOL    HW279088   3.815   5.571   9.513
25731SOL     OW79089   4.240   6.997   9.342
25731SOL    HW179090   4.216   6.996   9.249
25731SOL    HW279091   4.336   6.993   9.343
25732SOL     OW79092  13.222   3.268   7.134
25732SOL    HW179093  13.292   3.205   7.114
25732SOL    HW279094  13.183   3.288   7.049
25733SOL     OW79095  11.497   5.666   8.122
25733SOL    HW179096  11.412   5.630   8.093
25733SOL    HW279097  11.473   5.738   8.181
25734SOL     OW79098   7.034   8.694   2.513
25734SOL    HW179099   7.009   8.650   2.432
25734SOL    HW279100   6.991   8.643   2.582
25735SOL     OW79101   3.348  13.458   0.469
25735SOL    HW179102   3.321  13.494   0.553
25735SOL    HW279103   3.443  13.470   0.466
25736SOL     OW79104   8.622  13.316  11.678
25736SOL    HW179105   8.669  13.234  11.667
25736SOL    HW279106   8.666  13.360  11.751
25737SOL     OW79107   3.717   7.069  13.887
25737SOL    HW179108   3.717   6.988  13.837
25737SOL    HW279109   3.660   7.051  13.962
25738SOL     OW79110   6.101  11.443   3.282
25738SOL    HW179111   6.035  11.495   3.236
25738SOL    HW279112   6.181  11.458   3.231
25739SOL     OW79113   4.526   9.802   9.991
25739SOL    HW179114   4.607   9.783  10.037
25739SOL    HW279115   4.460   9.810  10.060
25740SOL     OW79116   4.451   9.090  10.911
25740SOL    HW179117   4.471   9.143  10.988
25740SOL    HW279118   4.387   9.026  10.943
25741SOL     OW79119  12.640   3.191   1.810
25741SOL    HW179120  12.613   3.199   1.719
25741SOL    HW279121  12.736   3.188   1.807
25742SOL     OW79122   0.436   5.102   5.744
25742SOL    HW179123   0.504   5.169   5.757
25742SOL    HW279124   0.485   5.022   5.723
25743SOL     OW79125   4.062  11.970   7.068
25743SOL    HW179126   4.000  11.981   7.140
25743SOL    HW279127   4.010  11.989   6.990
25744SOL     OW79128   8.854  13.093   8.056
25744SOL    HW179129   8.795  13.167   8.068
25744SOL    HW279130   8.833  13.060   7.969
25745SOL     OW79131  12.001   4.865  11.324
25745SOL    HW179132  12.085   4.850  11.366
25745SOL    HW279133  11.937   4.854  11.395
25746SOL     OW79134  11.270  10.532   4.875
25746SOL    HW179135  11.192  10.482   4.854
25746SOL    HW279136  11.305  10.491   4.954
25747SOL     OW79137  12.871  10.830  10.599
25747SOL    HW179138  12.851  10.898  10.534
25747SOL    HW279139  12.836  10.749  10.560
25748SOL     OW79140   2.409   0.995   8.437
25748SOL    HW179141   2.347   0.992   8.364
25748SOL    HW279142   2.437   0.904   8.449
25749SOL     OW79143   5.256   7.590   8.587
25749SOL    HW179144   5.325   7.529   8.614
25749SOL    HW279145   5.254   7.655   8.657
25750SOL     OW79146   9.514   0.965  14.438
25750SOL    HW179147   9.470   1.011  14.367
25750SOL    HW279148   9.606   0.965  14.413
25751SOL     OW79149   4.630   9.899   6.150
25751SOL    HW179150   4.677   9.939   6.077
25751SOL    HW279151   4.544   9.940   6.150
25752SOL     OW79152   8.422   9.846   8.693
25752SOL    HW179153   8.341   9.895   8.710
25752SOL    HW279154   8.428   9.783   8.765
25753SOL     OW79155  12.625   5.824  14.059
25753SOL    HW179156  12.604   5.742  14.104
25753SOL    HW279157  12.719   5.837  14.075
25754SOL     OW79158   0.919   4.225   5.067
25754SOL    HW179159   0.944   4.313   5.039
25754SOL    HW279160   0.882   4.238   5.155
25755SOL     OW79161   2.754  14.041  10.541
25755SOL    HW179162   2.715  13.971  10.488
25755SOL    HW279163   2.720  14.122  10.503
25756SOL     OW79164  11.677  12.464   6.279
25756SOL    HW179165  11.728  12.385   6.263
25756SOL    HW279166  11.691  12.518   6.201
25757SOL     OW79167  13.588  12.955   4.333
25757SOL    HW179168  13.647  12.928   4.403
25757SOL    HW279169  13.631  13.030   4.293
25758SOL     OW79170   7.585  12.475   1.513
25758SOL    HW179171   7.679  12.460   1.523
25758SOL    HW279172   7.576  12.570   1.506
25759SOL     OW79173   2.313   4.493   0.909
25759SOL    HW179174   2.318   4.412   0.859
25759SOL    HW279175   2.277   4.557   0.848
25760SOL     OW79176  13.757  10.609  14.740
25760SOL    HW179177  13.847  10.580  14.723
25760SOL    HW279178  13.708  10.529  14.759
25761SOL     OW79179   6.981   7.412   6.812
25761SOL    HW179180   6.919   7.398   6.741
25761SOL    HW279181   7.050   7.466   6.774
25762SOL     OW79182   0.650   4.614   9.115
25762SOL    HW179183   0.607   4.675   9.175
25762SOL    HW279184   0.584   4.597   9.047
25763SOL     OW79185  11.862  14.382   5.219
25763SOL    HW179186  11.824  14.368   5.132
25763SOL    HW279187  11.952  14.406   5.202
25764SOL     OW79188   1.955  13.613   0.305
25764SOL    HW179189   1.904  13.561   0.368
25764SOL    HW279190   2.037  13.632   0.351
25765SOL     OW79191   6.920   8.533   8.210
25765SOL    HW179192   6.995   8.558   8.264
25765SOL    HW279193   6.879   8.460   8.256
25766SOL     OW79194   0.287   4.626  12.268
25766SOL    HW179195   0.331   4.598  12.348
25766SOL    HW279196   0.320   4.714  12.252
25767SOL     OW79197  10.174   4.314   7.918
25767SOL    HW179198  10.212   4.227   7.907
25767SOL    HW279199  10.093   4.311   7.867
25768SOL     OW79200   2.120   4.943   9.196
25768SOL    HW179201   2.083   4.884   9.262
25768SOL    HW279202   2.084   4.912   9.113
25769SOL     OW79203   6.290  11.078   9.084
25769SOL    HW179204   6.357  11.140   9.057
25769SOL    HW279205   6.299  11.005   9.023
25770SOL     OW79206   0.949   8.755   6.007
25770SOL    HW179207   1.042   8.760   5.985
25770SOL    HW279208   0.904   8.794   5.933
25771SOL     OW79209  14.360  14.160   7.583
25771SOL    HW179210  14.290  14.107   7.620
25771SOL    HW279211  14.417  14.097   7.539
25772SOL     OW79212   0.312   7.253  11.761
25772SOL    HW179213   0.286   7.161  11.776
25772SOL    HW279214   0.405   7.256  11.783
25773SOL     OW79215   3.413  11.859   7.919
25773SOL    HW179216   3.490  11.867   7.975
25773SOL    HW279217   3.421  11.929   7.855
25774SOL     OW79218   6.864  10.708  14.835
25774SOL    HW179219   6.957  10.726  14.826
25774SOL    HW279220   6.840  10.746   0.038
25775SOL     OW79221   6.474   2.770   3.587
25775SOL    HW179222   6.556   2.753   3.633
25775SOL    HW279223   6.411   2.711   3.629
25776SOL     OW79224  12.604   6.370   7.337
25776SOL    HW179225  12.517   6.408   7.342
25776SOL    HW279226  12.594   6.280   7.367
25777SOL     OW79227   9.023   5.954   7.200
25777SOL    HW179228   9.086   5.913   7.141
25777SOL    HW279229   9.069   6.031   7.234
25778SOL     OW79230   3.722  12.948  12.094
25778SOL    HW179231   3.771  13.029  12.112
25778SOL    HW279232   3.766  12.910  12.018
25779SOL     OW79233   0.395   8.172   7.162
25779SOL    HW179234   0.410   8.136   7.249
25779SOL    HW279235   0.431   8.107   7.102
25780SOL     OW79236   4.636   6.393   4.510
25780SOL    HW179237   4.643   6.422   4.419
25780SOL    HW279238   4.721   6.413   4.548
25781SOL     OW79239  10.839  13.838   7.845
25781SOL    HW179240  10.744  13.846   7.844
25781SOL    HW279241  10.870  13.918   7.803
25782SOL     OW79242  14.781   7.282  11.562
25782SOL    HW179243  14.856   7.342  11.562
25782SOL    HW279244  14.729   7.310  11.638
25783SOL     OW79245   5.577   6.655  10.580
25783SOL    HW179246   5.552   6.660  10.672
25783SOL    HW279247   5.548   6.568  10.553
25784SOL     OW79248   2.097  14.134   7.529
25784SOL    HW179249   2.010  14.164   7.557
25784SOL    HW279250   2.079  14.064   7.466
25785SOL     OW79251  10.550   9.729   9.201
25785SOL    HW179252  10.478   9.792   9.208
25785SOL    HW279253  10.544   9.697   9.111
25786SOL     OW79254   6.973   6.539   1.209
25786SOL    HW179255   6.990   6.564   1.118
25786SOL    HW279256   7.004   6.613   1.261
25787SOL     OW79257   6.614  10.991   4.384
25787SOL    HW179258   6.629  11.026   4.296
25787SOL    HW279259   6.681  11.033   4.438
25788SOL     OW79260   5.757   5.511   7.950
25788SOL    HW179261   5.850   5.530   7.966
25788SOL    HW279262   5.757   5.459   7.870
25789SOL     OW79263  12.143   2.227  12.791
25789SOL    HW179264  12.156   2.281  12.713
25789SOL    HW279265  12.196   2.270  12.859
25790SOL     OW79266   3.744  12.675   3.482
25790SOL    HW179267   3.745  12.723   3.565
25790SOL    HW279268   3.836  12.657   3.464
25791SOL     OW79269   2.610   2.951  14.355
25791SOL    HW179270   2.582   2.909  14.436
25791SOL    HW279271   2.612   2.881  14.290
25792SOL     OW79272  12.581   5.852   6.224
25792SOL    HW179273  12.582   5.867   6.318
25792SOL    HW279274  12.636   5.921   6.187
25793SOL     OW79275   9.760   1.620  11.133
25793SOL    HW179276   9.834   1.611  11.193
25793SOL    HW279277   9.695   1.558  11.166
25794SOL     OW79278   7.608  11.139   7.359
25794SOL    HW179279   7.685  11.093   7.324
25794SOL    HW279280   7.627  11.232   7.347
25795SOL     OW79281   9.660   1.099  11.064
25795SOL    HW179282   9.722   1.120  11.135
25795SOL    HW279283   9.701   1.025  11.018
25796SOL     OW79284   5.803  13.185  14.877
25796SOL    HW179285   5.828  13.124  14.808
25796SOL    HW279286   5.848  13.267  14.854
25797SOL     OW79287   4.885  10.674   6.432
25797SOL    HW179288   4.937  10.724   6.495
25797SOL    HW279289   4.896  10.722   6.350
25798SOL     OW79290   0.060   0.671  14.794
25798SOL    HW179291  14.857   0.712  14.776
25798SOL    HW279292   0.049   0.580  14.765
25799SOL     OW79293  11.842  12.807  10.300
25799SOL    HW179294  11.755  12.768  10.299
25799SOL    HW279295  11.885  12.771  10.222
25800SOL     OW79296   1.870   3.414   1.522
25800SOL    HW179297   1.791   3.440   1.473
25800SOL    HW279298   1.842   3.338   1.573
25801SOL     OW79299   8.642   0.095   8.075
25801SOL    HW179300   8.686   0.064   8.154
25801SOL    HW279301   8.711   0.135   8.022
25802SOL     OW79302   1.485   5.627   9.888
25802SOL    HW179303   1.547   5.669   9.828
25802SOL    HW279304   1.463   5.544   9.845
25803SOL     OW79305   2.241   8.616  11.037
25803SOL    HW179306   2.150   8.629  11.010
25803SOL    HW279307   2.265   8.698  11.081
25804SOL     OW79308  14.286   6.761   0.375
25804SOL    HW179309  14.354   6.829   0.380
25804SOL    HW279310  14.211   6.799   0.422
25805SOL     OW79311   5.674   0.914   7.927
25805SOL    HW179312   5.766   0.931   7.946
25805SOL    HW279313   5.668   0.917   7.832
25806SOL     OW79314   9.714   4.965   7.479
25806SOL    HW179315   9.619   4.962   7.481
25806SOL    HW279316   9.739   4.892   7.423
25807SOL     OW79317   7.048  14.511   6.633
25807SOL    HW179318   7.025  14.458   6.709
25807SOL    HW279319   7.129  14.472   6.601
25808SOL     OW79320   4.142   2.391   5.124
25808SOL    HW179321   4.236   2.395   5.107
25808SOL    HW279322   4.113   2.313   5.076
25809SOL     OW79323   8.157  13.049   8.485
25809SOL    HW179324   8.067  13.077   8.466
25809SOL    HW279325   8.180  13.098   8.564
25810SOL     OW79326  13.253  13.350  13.812
25810SOL    HW179327  13.330  13.383  13.858
25810SOL    HW279328  13.214  13.427  13.771
25811SOL     OW79329   2.910  11.073  10.840
25811SOL    HW179330   2.984  11.060  10.780
25811SOL    HW279331   2.901  10.989  10.886
25812SOL     OW79332   9.093  12.328   9.205
25812SOL    HW179333   9.124  12.244   9.172
25812SOL    HW279334   9.044  12.306   9.285
25813SOL     OW79335   1.973  10.787  14.687
25813SOL    HW179336   1.878  10.791  14.678
25813SOL    HW279337   2.000  10.879  14.697
25814SOL     OW79338  10.185   4.200  13.377
25814SOL    HW179339  10.165   4.268  13.312
25814SOL    HW279340  10.165   4.118  13.333
25815SOL     OW79341   4.269   1.314   4.287
25815SOL    HW179342   4.326   1.390   4.280
25815SOL    HW279343   4.330   1.239   4.292
25816SOL     OW79344   5.721  13.758   4.592
25816SOL    HW179345   5.754  13.846   4.610
25816SOL    HW279346   5.677  13.765   4.507
25817SOL     OW79347   6.984   6.107   6.241
25817SOL    HW179348   7.031   6.089   6.322
25817SOL    HW279349   6.916   6.169   6.266
25818SOL     OW79350   9.471  13.900   4.535
25818SOL    HW179351   9.423  13.817   4.534
25818SOL    HW279352   9.485  13.921   4.443
25819SOL     OW79353   0.112   5.602  14.139
25819SOL    HW179354   0.106   5.697  14.136
25819SOL    HW279355   0.192   5.581  14.090
25820SOL     OW79356  13.285   7.521  14.604
25820SOL    HW179357  13.358   7.482  14.557
25820SOL    HW279358  13.223   7.547  14.536
25821SOL     OW79359  11.461  12.516  10.375
25821SOL    HW179360  11.368  12.498  10.392
25821SOL    HW279361  11.506  12.484  10.453
25822SOL     OW79362  13.371  10.236  11.673
25822SOL    HW179363  13.390  10.270  11.585
25822SOL    HW279364  13.378  10.312  11.730
25823SOL     OW79365   9.212   8.413  12.359
25823SOL    HW179366   9.165   8.329  12.357
25823SOL    HW279367   9.304   8.389  12.362
25824SOL     OW79368  13.770  14.251  11.183
25824SOL    HW179369  13.847  14.241  11.239
25824SOL    HW279370  13.746  14.161  11.160
25825SOL     OW79371   5.531  12.363  10.041
25825SOL    HW179372   5.540  12.274  10.075
25825SOL    HW279373   5.575  12.360   9.956
25826SOL     OW79374   3.788  11.043   8.316
25826SOL    HW179375   3.770  10.959   8.358
25826SOL    HW279376   3.884  11.047   8.310
25827SOL     OW79377   5.622  13.437  10.443
25827SOL    HW179378   5.550  13.394  10.491
25827SOL    HW279379   5.673  13.364  10.408
25828SOL     OW79380   4.767   0.920  11.814
25828SOL    HW179381   4.846   0.894  11.767
25828SOL    HW279382   4.758   1.014  11.796
25829SOL     OW79383   7.631   7.361  10.461
25829SOL    HW179384   7.657   7.446  10.497
25829SOL    HW279385   7.676   7.357  10.376
25830SOL     OW79386   6.642   0.316   4.483
25830SOL    HW179387   6.643   0.221   4.475
25830SOL    HW279388   6.574   0.334   4.548
25831SOL     OW79389  11.965   5.887   9.778
25831SOL    HW179390  12.031   5.823   9.751
25831SOL    HW279391  11.890   5.869   9.723
25832SOL     OW79392   8.804   8.955   5.463
25832SOL    HW179393   8.840   8.866   5.458
25832SOL    HW279394   8.877   9.012   5.437
25833SOL     OW79395   3.719   4.643   0.170
25833SOL    HW179396   3.691   4.553   0.186
25833SOL    HW279397   3.652   4.679   0.112
25834SOL     OW79398   1.599   6.328   8.300
25834SOL    HW179399   1.576   6.388   8.371
25834SOL    HW279400   1.660   6.266   8.339
25835SOL     OW79401  11.156   0.955   2.686
25835SOL    HW179402  11.117   1.029   2.732
25835SOL    HW279403  11.245   0.949   2.721
25836SOL     OW79404   2.298   5.644   7.887
25836SOL    HW179405   2.275   5.555   7.916
25836SOL    HW279406   2.252   5.654   7.804
25837SOL     OW79407   6.578   1.764  13.334
25837SOL    HW179408   6.518   1.794  13.402
25837SOL    HW279409   6.573   1.669  13.338
25838SOL     OW79410  11.305  10.965   8.512
25838SOL    HW179411  11.385  10.916   8.494
25838SOL    HW279412  11.326  11.015   8.591
25839SOL     OW79413  14.853  11.261  13.018
25839SOL    HW179414   0.054  11.292  13.054
25839SOL    HW279415  14.787  11.296  13.078
25840SOL     OW79416   6.756   2.279   7.024
25840SOL    HW179417   6.717   2.287   7.111
25840SOL    HW279418   6.695   2.325   6.966
25841SOL     OW79419   3.442   1.381  11.718
25841SOL    HW179420   3.351   1.380  11.689
25841SOL    HW279421   3.485   1.313  11.666
25842SOL     OW79422   9.409   1.086   5.341
25842SOL    HW179423   9.322   1.047   5.334
25842SOL    HW279424   9.465   1.031   5.286
25843SOL     OW79425  10.780  14.642   6.378
25843SOL    HW179426  10.748  14.704   6.312
25843SOL    HW279427  10.706  14.582   6.391
25844SOL     OW79428   7.197   4.864   1.868
25844SOL    HW179429   7.102   4.869   1.881
25844SOL    HW279430   7.219   4.948   1.828
25845SOL     OW79431  13.776   8.275  10.842
25845SOL    HW179432  13.780   8.365  10.809
25845SOL    HW279433  13.867   8.249  10.852
25846SOL     OW79434  11.042  11.463   7.210
25846SOL    HW179435  10.971  11.471   7.146
25846SOL    HW279436  11.071  11.553   7.225
25847SOL     OW79437  10.963  14.848  13.023
25847SOL    HW179438  10.911   0.023  13.080
25847SOL    HW279439  11.048  14.843  13.066
25848SOL     OW79440   9.014   2.213  14.399
25848SOL    HW179441   8.996   2.149  14.468
25848SOL    HW279442   9.109   2.222  14.398
25849SOL     OW79443   0.954  13.597   6.599
25849SOL    HW179444   1.036  13.568   6.638
25849SOL    HW279445   0.907  13.517   6.579
25850SOL     OW79446   5.852   9.308   8.617
25850SOL    HW179447   5.886   9.348   8.536
25850SOL    HW279448   5.806   9.230   8.587
25851SOL     OW79449  12.972   6.522  13.685
25851SOL    HW179450  12.973   6.464  13.609
25851SOL    HW279451  13.065   6.536  13.705
25852SOL     OW79452   4.274   2.671  13.526
25852SOL    HW179453   4.220   2.701  13.454
25852SOL    HW279454   4.214   2.662  13.600
25853SOL     OW79455  14.319  10.566   1.462
25853SOL    HW179456  14.283  10.515   1.390
25853SOL    HW279457  14.404  10.596   1.430
25854SOL     OW79458   6.473   7.629   9.449
25854SOL    HW179459   6.384   7.594   9.461
25854SOL    HW279460   6.460   7.711   9.400
25855SOL     OW79461  10.743   8.625   5.360
25855SOL    HW179462  10.810   8.595   5.299
25855SOL    HW279463  10.682   8.551   5.366
25856SOL     OW79464  14.557   9.316  10.791
25856SOL    HW179465  14.548   9.357  10.877
25856SOL    HW279466  14.476   9.338  10.745
25857SOL     OW79467  10.875   4.301   7.036
25857SOL    HW179468  10.804   4.244   7.007
25857SOL    HW279469  10.831   4.375   7.078
25858SOL     OW79470   5.870  14.716   2.591
25858SOL    HW179471   5.801  14.726   2.657
25858SOL    HW279472   5.950  14.705   2.642
25859SOL     OW79473   7.597   8.434   1.798
25859SOL    HW179474   7.540   8.507   1.825
25859SOL    HW279475   7.537   8.366   1.770
25860SOL     OW79476  10.440  10.683   3.022
25860SOL    HW179477  10.359  10.734   3.020
25860SOL    HW279478  10.464  10.679   3.114
25861SOL     OW79479   4.206  14.406   5.130
25861SOL    HW179480   4.224  14.490   5.088
25861SOL    HW279481   4.148  14.360   5.069
25862SOL     OW79482   0.140   2.330   7.419
25862SOL    HW179483   0.086   2.337   7.498
25862SOL    HW279484   0.122   2.243   7.386
25863SOL     OW79485  11.309  12.159  14.844
25863SOL    HW179486  11.369  12.164  14.770
25863SOL    HW279487  11.283  12.066  14.847
25864SOL     OW79488  11.919  14.427  13.770
25864SOL    HW179489  11.951  14.413  13.681
25864SOL    HW279490  11.828  14.454  13.758
25865SOL     OW79491   5.277  12.379   2.810
25865SOL    HW179492   5.340  12.373   2.882
25865SOL    HW279493   5.224  12.456   2.830
25866SOL     OW79494  12.620   4.736   2.580
25866SOL    HW179495  12.663   4.777   2.655
25866SOL    HW279496  12.692   4.693   2.532
25867SOL     OW79497   7.033  12.715  11.509
25867SOL    HW179498   7.016  12.679  11.596
25867SOL    HW279499   7.123  12.747  11.513
25868SOL     OW79500   3.326   3.560   6.524
25868SOL    HW179501   3.417   3.554   6.553
25868SOL    HW279502   3.320   3.500   6.450
25869SOL     OW79503  13.330   2.707  14.180
25869SOL    HW179504  13.333   2.666  14.267
25869SOL    HW279505  13.237   2.724  14.165
25870SOL     OW79506  14.639  13.529   9.486
25870SOL    HW179507  14.634  13.540   9.581
25870SOL    HW279508  14.653  13.617   9.452
25871SOL     OW79509  11.839   8.363   2.412
25871SOL    HW179510  11.787   8.439   2.384
25871SOL    HW279511  11.863   8.384   2.503
25872SOL     OW79512  12.772  11.285   9.589
25872SOL    HW179513  12.730  11.306   9.506
25872SOL    HW279514  12.864  11.275   9.569
25873SOL     OW79515  12.770  12.190   9.706
25873SOL    HW179516  12.827  12.157   9.636
25873SOL    HW279517  12.701  12.238   9.659
25874SOL     OW79518  11.163   0.273  12.572
25874SOL    HW179519  11.183   0.213  12.643
25874SOL    HW279520  11.127   0.351  12.615
25875SOL     OW79521   6.972  10.636   0.936
25875SOL    HW179522   6.898  10.680   0.978
25875SOL    HW279523   6.968  10.546   0.968
25876SOL     OW79524  13.692   5.630   0.363
25876SOL    HW179525  13.670   5.543   0.329
25876SOL    HW279526  13.613   5.681   0.350
25877SOL     OW79527   4.194  13.981  11.320
25877SOL    HW179528   4.146  14.024  11.249
25877SOL    HW279529   4.184  13.887  11.302
25878SOL     OW79530   7.115   0.966   9.609
25878SOL    HW179531   7.116   1.061   9.624
25878SOL    HW279532   7.190   0.950   9.552
25879SOL     OW79533   0.168   3.211  14.050
25879SOL    HW179534   0.087   3.185  14.006
25879SOL    HW279535   0.229   3.231  13.979
25880SOL     OW79536   5.212   2.899   8.523
25880SOL    HW179537   5.121   2.883   8.499
25880SOL    HW279538   5.209   2.927   8.614
25881SOL     OW79539   9.084   3.217  13.237
25881SOL    HW179540   9.104   3.144  13.296
25881SOL    HW279541   9.169   3.257  13.220
25882SOL     OW79542   1.959   6.627   4.665
25882SOL    HW179543   1.991   6.713   4.639
25882SOL    HW279544   2.035   6.582   4.700
25883SOL     OW79545   4.008   7.246   4.188
25883SOL    HW179546   4.098   7.266   4.214
25883SOL    HW279547   4.002   7.279   4.098
25884SOL     OW79548  13.617   5.475   7.262
25884SOL    HW179549  13.700   5.430   7.246
25884SOL    HW279550  13.640   5.554   7.310
25885SOL     OW79551   0.467   2.451   9.940
25885SOL    HW179552   0.485   2.533   9.987
25885SOL    HW279553   0.553   2.412   9.925
25886SOL     OW79554   5.669   8.102   3.518
25886SOL    HW179555   5.741   8.040   3.529
25886SOL    HW279556   5.708   8.177   3.474
25887SOL     OW79557  11.863   0.464  10.139
25887SOL    HW179558  11.840   0.429  10.053
25887SOL    HW279559  11.948   0.505  10.127
25888SOL     OW79560   0.491   1.093   9.096
25888SOL    HW179561   0.516   1.128   9.181
25888SOL    HW279562   0.573   1.079   9.049
25889SOL     OW79563   5.199   1.951   7.851
25889SOL    HW179564   5.184   1.903   7.769
25889SOL    HW279565   5.294   1.951   7.861
25890SOL     OW79566  12.626  13.145   7.618
25890SOL    HW179567  12.704  13.113   7.662
25890SOL    HW279568  12.598  13.220   7.670
25891SOL     OW79569  13.183  14.067  11.216
25891SOL    HW179570  13.139  14.139  11.171
25891SOL    HW279571  13.273  14.071  11.185
25892SOL     OW79572  13.948   1.502   4.635
25892SOL    HW179573  13.920   1.471   4.721
25892SOL    HW279574  13.870   1.492   4.580
25893SOL     OW79575  14.202   8.840   2.090
25893SOL    HW179576  14.119   8.875   2.122
25893SOL    HW279577  14.204   8.864   1.998
25894SOL     OW79578   5.225   8.835  14.724
25894SOL    HW179579   5.225   8.877  14.811
25894SOL    HW279580   5.209   8.743  14.742
25895SOL     OW79581   7.611   8.837   3.651
25895SOL    HW179582   7.616   8.908   3.714
25895SOL    HW279583   7.684   8.779   3.674
25896SOL     OW79584   3.660  12.488   0.827
25896SOL    HW179585   3.611  12.556   0.781
25896SOL    HW279586   3.718  12.452   0.761
25897SOL     OW79587  14.489   4.758   3.052
25897SOL    HW179588  14.441   4.679   3.076
25897SOL    HW279589  14.442   4.793   2.976
25898SOL     OW79590   1.412  12.562   9.638
25898SOL    HW179591   1.402  12.489   9.699
25898SOL    HW279592   1.332  12.560   9.586
25899SOL     OW79593   9.915   5.680   2.247
25899SOL    HW179594   9.947   5.729   2.171
25899SOL    HW279595   9.836   5.636   2.216
25900SOL     OW79596   6.779   2.366   0.755
25900SOL    HW179597   6.835   2.319   0.816
25900SOL    HW279598   6.706   2.307   0.739
25901SOL     OW79599   0.599  13.284   3.394
25901SOL    HW179600   0.536  13.213   3.404
25901SOL    HW279601   0.602  13.301   3.300
25902SOL     OW79602   7.631  14.627  11.803
25902SOL    HW179603   7.651  14.533  11.804
25902SOL    HW279604   7.603  14.646  11.892
25903SOL     OW79605  13.027   6.469  14.183
25903SOL    HW179606  13.103   6.466  14.126
25903SOL    HW279607  12.981   6.386  14.167
25904SOL     OW79608  11.059   0.027   5.221
25904SOL    HW179609  11.097   0.102   5.266
25904SOL    HW279610  11.128  14.878   5.162
25905SOL     OW79611   5.604   9.250  11.480
25905SOL    HW179612   5.551   9.171  11.479
25905SOL    HW279613   5.675   9.232  11.418
25906SOL     OW79614   6.088  13.424   8.091
25906SOL    HW179615   6.155  13.395   8.153
25906SOL    HW279616   6.090  13.519   8.095
25907SOL     OW79617  11.123   8.414  12.336
25907SOL    HW179618  11.115   8.505  12.305
25907SOL    HW279619  11.033   8.388  12.356
25908SOL     OW79620   9.449   3.905   9.970
25908SOL    HW179621   9.490   3.991   9.978
25908SOL    HW279622   9.401   3.893  10.052
25909SOL     OW79623  10.774   0.983   6.063
25909SOL    HW179624  10.846   1.042   6.041
25909SOL    HW279625  10.816   0.904   6.096
25910SOL     OW79626   7.483   5.100  13.027
25910SOL    HW179627   7.543   5.032  12.995
25910SOL    HW279628   7.423   5.115  12.954
25911SOL     OW79629   1.826   3.627   5.847
25911SOL    HW179630   1.744   3.580   5.830
25911SOL    HW279631   1.845   3.672   5.765
25912SOL     OW79632   5.856   8.990   1.658
25912SOL    HW179633   5.906   8.953   1.585
25912SOL    HW279634   5.913   9.058   1.694
25913SOL     OW79635   5.684   3.461  14.171
25913SOL    HW179636   5.680   3.493  14.261
25913SOL    HW279637   5.689   3.365  14.180
25914SOL     OW79638  10.625  12.063   2.172
25914SOL    HW179639  10.663  11.976   2.176
25914SOL    HW279640  10.612  12.088   2.264
25915SOL     OW79641   9.763  11.524   2.381
25915SOL    HW179642   9.841  11.470   2.366
25915SOL    HW279643   9.689  11.467   2.358
25916SOL     OW79644   9.256   5.153  14.118
25916SOL    HW179645   9.350   5.166  14.118
25916SOL    HW279646   9.233   5.141  14.211
25917SOL     OW79647  14.109   4.393   5.566
25917SOL    HW179648  14.185   4.348   5.529
25917SOL    HW279649  14.090   4.344   5.647
25918SOL     OW79650  11.156   1.125  14.036
25918SOL    HW179651  11.130   1.090  14.121
25918SOL    HW279652  11.243   1.088  14.020
25919SOL     OW79653   2.516  14.446   3.656
25919SOL    HW179654   2.471  14.526   3.686
25919SOL    HW279655   2.511  14.450   3.561
25920SOL     OW79656  12.984   5.517   2.799
25920SOL    HW179657  12.942   5.519   2.884
25920SOL    HW279658  13.064   5.465   2.813
25921SOL     OW79659   5.930  14.533  13.721
25921SOL    HW179660   5.957  14.612  13.674
25921SOL    HW279661   5.835  14.542  13.728
25922SOL     OW79662   8.107   2.431   6.215
25922SOL    HW179663   8.053   2.353   6.232
25922SOL    HW279664   8.173   2.401   6.152
25923SOL     OW79665   5.547   2.406  13.212
25923SOL    HW179666   5.540   2.312  13.228
25923SOL    HW279667   5.522   2.447  13.295
25924SOL     OW79668   2.053   5.021  13.289
25924SOL    HW179669   2.021   5.089  13.347
25924SOL    HW279670   1.982   4.957  13.284
25925SOL     OW79671   1.708  12.329   0.037
25925SOL    HW179672   1.783  12.270   0.036
25925SOL    HW279673   1.671  12.321   0.125
25926SOL     OW79674   3.155   1.420   7.488
25926SOL    HW179675   3.247   1.432   7.464
25926SOL    HW279676   3.131   1.501   7.532
25927SOL     OW79677   6.638   4.661  14.705
25927SOL    HW179678   6.609   4.738  14.754
25927SOL    HW279679   6.625   4.588  14.765
25928SOL     OW79680   5.816  13.342   9.911
25928SOL    HW179681   5.840  13.312   9.999
25928SOL    HW279682   5.723  13.323   9.904
25929SOL     OW79683   5.754   9.932   3.470
25929SOL    HW179684   5.814   9.873   3.424
25929SOL    HW279685   5.687   9.875   3.507
25930SOL     OW79686   0.643   4.763   0.914
25930SOL    HW179687   0.694   4.829   0.962
25930SOL    HW279688   0.553   4.778   0.941
25931SOL     OW79689   5.688   2.941  11.523
25931SOL    HW179690   5.632   2.937  11.600
25931SOL    HW279691   5.664   3.024  11.481
25932SOL     OW79692   0.804  12.781   9.769
25932SOL    HW179693   0.874  12.764   9.832
25932SOL    HW279694   0.789  12.876   9.774
25933SOL     OW79695  12.140   8.850   7.363
25933SOL    HW179696  12.171   8.921   7.308
25933SOL    HW279697  12.045   8.847   7.346
25934SOL     OW79698   7.795  12.436  13.080
25934SOL    HW179699   7.703  12.416  13.060
25934SOL    HW279700   7.802  12.424  13.175
25935SOL     OW79701  11.267   7.366   3.700
25935SOL    HW179702  11.330   7.335   3.766
25935SOL    HW279703  11.216   7.433   3.745
25936SOL     OW79704   2.765   5.522  13.518
25936SOL    HW179705   2.706   5.555  13.586
25936SOL    HW279706   2.708   5.506  13.442
25937SOL     OW79707   1.842  10.273   8.842
25937SOL    HW179708   1.878  10.358   8.870
25937SOL    HW279709   1.900  10.208   8.882
25938SOL     OW79710   5.014   7.536   8.817
25938SOL    HW179711   5.071   7.613   8.813
25938SOL    HW279712   4.950   7.550   8.747
25939SOL     OW79713  12.731   0.379   6.789
25939SOL    HW179714  12.796   0.440   6.754
25939SOL    HW279715  12.753   0.370   6.881
25940SOL     OW79716   8.563  10.041   3.507
25940SOL    HW179717   8.621  10.078   3.574
25940SOL    HW279718   8.498  10.109   3.492
25941SOL     OW79719   7.734  14.173  11.378
25941SOL    HW179720   7.684  14.160  11.297
25941SOL    HW279721   7.804  14.108  11.373
25942SOL     OW79722   1.376   3.161   9.049
25942SOL    HW179723   1.449   3.103   9.029
25942SOL    HW279724   1.396   3.241   9.001
25943SOL     OW79725  11.047   8.125   4.031
25943SOL    HW179726  11.000   8.090   4.107
25943SOL    HW279727  11.024   8.066   3.959
25944SOL     OW79728   4.482  14.197   1.293
25944SOL    HW179729   4.388  14.184   1.292
25944SOL    HW279730   4.499  14.250   1.371
25945SOL     OW79731  11.658  13.867   1.247
25945SOL    HW179732  11.706  13.888   1.167
25945SOL    HW279733  11.647  13.772   1.243
25946SOL     OW79734   1.361  13.617   6.969
25946SOL    HW179735   1.357  13.712   6.973
25946SOL    HW279736   1.400  13.598   6.884
25947SOL     OW79737   3.195  10.103  14.806
25947SOL    HW179738   3.256  10.031  14.820
25947SOL    HW279739   3.161  10.123   0.012
25948SOL     OW79740   2.601   2.690   0.534
25948SOL    HW179741   2.542   2.683   0.459
25948SOL    HW279742   2.634   2.601   0.546
25949SOL     OW79743  14.464   5.949   3.942
25949SOL    HW179744  14.419   5.964   3.859
25949SOL    HW279745  14.409   5.992   4.008
25950SOL     OW79746  11.806   1.734   3.157
25950SOL    HW179747  11.756   1.723   3.238
25950SOL    HW279748  11.866   1.806   3.176
25951SOL     OW79749   0.763   0.503  12.505
25951SOL    HW179750   0.727   0.415  12.502
25951SOL    HW279751   0.764   0.531  12.413
25952SOL     OW79752   1.703   5.136   8.704
25952SOL    HW179753   1.789   5.094   8.703
25952SOL    HW279754   1.712   5.209   8.642
25953SOL     OW79755   0.155  13.852  14.523
25953SOL    HW179756   0.182  13.802  14.599
25953SOL    HW279757   0.226  13.841  14.460
25954SOL     OW79758   5.806   9.000   3.375
25954SOL    HW179759   5.867   9.071   3.396
25954SOL    HW279760   5.721   9.044   3.368
25955SOL     OW79761   5.656  13.171   8.689
25955SOL    HW179762   5.683  13.111   8.620
25955SOL    HW279763   5.651  13.257   8.645
25956SOL     OW79764   5.235  10.036   6.738
25956SOL    HW179765   5.256  10.021   6.646
25956SOL    HW279766   5.315  10.072   6.775
25957SOL     OW79767   9.909   1.625   5.392
25957SOL    HW179768   9.849   1.573   5.339
25957SOL    HW279769   9.995   1.613   5.351
25958SOL     OW79770  14.182  11.660   3.458
25958SOL    HW179771  14.204  11.600   3.529
25958SOL    HW279772  14.090  11.644   3.440
25959SOL     OW79773  11.318  10.659   0.678
25959SOL    HW179774  11.362  10.742   0.663
25959SOL    HW279775  11.377  10.593   0.642
25960SOL     OW79776  10.531   2.595   9.823
25960SOL    HW179777  10.553   2.590   9.916
25960SOL    HW279778  10.574   2.675   9.793
25961SOL     OW79779  12.120  13.893   5.367
25961SOL    HW179780  12.131  13.970   5.311
25961SOL    HW279781  12.064  13.923   5.438
25962SOL     OW79782   3.233   7.430   5.145
25962SOL    HW179783   3.294   7.475   5.086
25962SOL    HW279784   3.188   7.367   5.088
25963SOL     OW79785  11.959   0.128  13.144
25963SOL    HW179786  11.938   0.046  13.190
25963SOL    HW279787  11.877   0.153  13.101
25964SOL     OW79788   4.535  10.329   6.581
25964SOL    HW179789   4.506  10.252   6.532
25964SOL    HW279790   4.591  10.293   6.651
25965SOL     OW79791   2.710  12.524   1.688
25965SOL    HW179792   2.734  12.452   1.746
25965SOL    HW279793   2.642  12.572   1.736
25966SOL     OW79794   6.328  14.157   3.936
25966SOL    HW179795   6.313  14.063   3.928
25966SOL    HW279796   6.380  14.167   4.015
25967SOL     OW79797   4.456   0.788  14.295
25967SOL    HW179798   4.515   0.801  14.369
25967SOL    HW279799   4.431   0.876  14.268
25968SOL     OW79800   1.216   5.405   3.792
25968SOL    HW179801   1.227   5.378   3.700
25968SOL    HW279802   1.129   5.444   3.795
25969SOL     OW79803  13.852   7.680  11.558
25969SOL    HW179804  13.933   7.720  11.590
25969SOL    HW279805  13.859   7.588  11.583
25970SOL     OW79806  13.166   4.910  13.717
25970SOL    HW179807  13.073   4.926  13.699
25970SOL    HW279808  13.209   4.923  13.633
25971SOL     OW79809   3.525  11.629   3.823
25971SOL    HW179810   3.541  11.628   3.729
25971SOL    HW279811   3.601  11.675   3.859
25972SOL     OW79812   5.425   8.334  10.362
25972SOL    HW179813   5.350   8.327  10.304
25972SOL    HW279814   5.422   8.423  10.395
25973SOL     OW79815   8.681  12.502  14.077
25973SOL    HW179816   8.747  12.564  14.108
25973SOL    HW279817   8.731  12.436  14.029
25974SOL     OW79818   4.699   1.294  13.457
25974SOL    HW179819   4.605   1.293  13.476
25974SOL    HW279820   4.740   1.303  13.543
25975SOL     OW79821  14.248   5.532   5.308
25975SOL    HW179822  14.183   5.557   5.242
25975SOL    HW279823  14.239   5.437   5.315
25976SOL     OW79824   0.193   0.707  12.370
25976SOL    HW179825   0.143   0.724  12.291
25976SOL    HW279826   0.245   0.786  12.383
25977SOL     OW79827   7.876   0.284   4.426
25977SOL    HW179828   7.926   0.203   4.428
25977SOL    HW279829   7.937   0.350   4.460
25978SOL     OW79830  11.253  11.330   3.941
25978SOL    HW179831  11.230  11.379   4.020
25978SOL    HW279832  11.295  11.250   3.974
25979SOL     OW79833   0.546   2.425  11.578
25979SOL    HW179834   0.563   2.438  11.485
25979SOL    HW279835   0.470   2.479  11.597
25980SOL     OW79836   5.752  12.564   3.476
25980SOL    HW179837   5.752  12.516   3.394
25980SOL    HW279838   5.837  12.546   3.515
25981SOL     OW79839   3.317  12.502   2.452
25981SOL    HW179840   3.273  12.421   2.477
25981SOL    HW279841   3.315  12.555   2.532
25982SOL     OW79842   4.480  13.096   1.278
25982SOL    HW179843   4.468  13.137   1.364
25982SOL    HW279844   4.481  13.002   1.297
25983SOL     OW79845  13.799  11.704   4.019
25983SOL    HW179846  13.854  11.662   4.085
25983SOL    HW279847  13.861  11.736   3.953
25984SOL     OW79848   5.451  11.135   3.584
25984SOL    HW179849   5.463  11.104   3.673
25984SOL    HW279850   5.539  11.152   3.552
25985SOL     OW79851   3.726   5.475   8.978
25985SOL    HW179852   3.736   5.444   9.069
25985SOL    HW279853   3.737   5.396   8.925
25986SOL     OW79854   8.308   0.762   6.429
25986SOL    HW179855   8.255   0.731   6.356
25986SOL    HW279856   8.398   0.764   6.395
25987SOL     OW79857   8.940   8.288  13.014
25987SOL    HW179858   8.997   8.356  12.978
25987SOL    HW279859   8.996   8.238  13.073
25988SOL     OW79860  13.218  10.563  12.733
25988SOL    HW179861  13.257  10.645  12.704
25988SOL    HW279862  13.124  10.575  12.719
25989SOL     OW79863   9.375   8.352   9.002
25989SOL    HW179864   9.311   8.315   8.941
25989SOL    HW279865   9.460   8.326   8.966
25990SOL     OW79866   0.605  11.207   4.214
25990SOL    HW179867   0.567  11.233   4.298
25990SOL    HW279868   0.637  11.118   4.229
25991SOL     OW79869  13.716  14.730  10.206
25991SOL    HW179870  13.666  14.790  10.261
25991SOL    HW279871  13.744  14.783  10.132
25992SOL     OW79872   5.690   5.730  12.411
25992SOL    HW179873   5.655   5.709  12.497
25992SOL    HW279874   5.631   5.797  12.377
25993SOL     OW79875   7.866   8.978   4.239
25993SOL    HW179876   7.955   8.962   4.271
25993SOL    HW279877   7.843   9.064   4.275
25994SOL     OW79878   2.908   4.066  14.584
25994SOL    HW179879   2.967   4.015  14.529
25994SOL    HW279880   2.823   4.025  14.572
25995SOL     OW79881   6.858   8.377  11.649
25995SOL    HW179882   6.891   8.304  11.701
25995SOL    HW279883   6.764   8.378  11.666
25996SOL     OW79884   5.136   6.655   3.381
25996SOL    HW179885   5.063   6.675   3.440
25996SOL    HW279886   5.111   6.573   3.339
25997SOL     OW79887   2.001   1.955   2.452
25997SOL    HW179888   2.003   2.006   2.371
25997SOL    HW279889   2.092   1.945   2.477
25998SOL     OW79890   2.076   5.490   3.112
25998SOL    HW179891   2.161   5.450   3.129
25998SOL    HW279892   2.015   5.443   3.170
25999SOL     OW79893  10.306  12.146   7.540
25999SOL    HW179894  10.379  12.129   7.600
25999SOL    HW279895  10.317  12.238   7.516
26000SOL     OW79896   8.864   1.194   6.407
26000SOL    HW179897   8.774   1.210   6.436
26000SOL    HW279898   8.863   1.103   6.376
26001SOL     OW79899   8.442  14.721   3.219
26001SOL    HW179900   8.427  14.813   3.200
26001SOL    HW279901   8.478  14.721   3.308
26002SOL     OW79902   0.451   4.033  13.068
26002SOL    HW179903   0.425   4.090  13.141
26002SOL    HW279904   0.533   3.993  13.097
26003SOL     OW79905   3.783   2.696  10.126
26003SOL    HW179906   3.762   2.790  10.118
26003SOL    HW279907   3.829   2.676  10.045
26004SOL     OW79908   5.022  12.356  12.198
26004SOL    HW179909   5.100  12.323  12.244
26004SOL    HW279910   4.964  12.386  12.268
26005SOL     OW79911   8.014  14.354   9.213
26005SOL    HW179912   8.006  14.442   9.250
26005SOL    HW279913   7.924  14.328   9.193
26006SOL     OW79914   2.632  10.953  12.124
26006SOL    HW179915   2.562  11.019  12.117
26006SOL    HW279916   2.585  10.869  12.129
26007SOL     OW79917  11.899   4.690   6.635
26007SOL    HW179918  11.831   4.636   6.676
26007SOL    HW279919  11.944   4.732   6.707
26008SOL     OW79920   1.879   2.669  13.369
26008SOL    HW179921   1.863   2.692  13.277
26008SOL    HW279922   1.793   2.647  13.403
26009SOL     OW79923   0.882   7.098   0.241
26009SOL    HW179924   0.973   7.091   0.211
26009SOL    HW279925   0.883   7.060   0.329
26010SOL     OW79926   9.110  10.807   0.015
26010SOL    HW179927   9.139  10.876   0.075
26010SOL    HW279928   9.143  10.834  14.812
26011SOL     OW79929   3.554   7.645   5.174
26011SOL    HW179930   3.574   7.721   5.119
26011SOL    HW279931   3.493   7.677   5.240
26012SOL     OW79932   8.369   0.054  13.171
26012SOL    HW179933   8.319  14.861  13.203
26012SOL    HW279934   8.378   0.038  13.077
26013SOL     OW79935   8.628   9.198   8.801
26013SOL    HW179936   8.643   9.121   8.855
26013SOL    HW279937   8.712   9.243   8.798
26014SOL     OW79938  11.496   0.321   7.592
26014SOL    HW179939  11.524   0.230   7.585
26014SOL    HW279940  11.401   0.317   7.600
26015SOL     OW79941   4.650   2.220   0.752
26015SOL    HW179942   4.565   2.197   0.713
26015SOL    HW279943   4.629   2.247   0.841
26016SOL     OW79944   8.885  11.421   6.670
26016SOL    HW179945   8.918  11.333   6.652
26016SOL    HW279946   8.830  11.442   6.594
26017SOL     OW79947   0.275  11.663  13.832
26017SOL    HW179948   0.246  11.690  13.919
26017SOL    HW279949   0.230  11.722  13.772
26018SOL     OW79950   1.438  14.000   2.349
26018SOL    HW179951   1.390  13.976   2.428
26018SOL    HW279952   1.421  13.928   2.288
26019SOL     OW79953  12.120   9.182  14.176
26019SOL    HW179954  12.119   9.264  14.227
26019SOL    HW279955  12.107   9.114  14.241
26020SOL     OW79956  14.635  13.361   0.746
26020SOL    HW179957  14.675  13.417   0.812
26020SOL    HW279958  14.654  13.272   0.775
26021SOL     OW79959   8.874  11.887   6.856
26021SOL    HW179960   8.842  11.938   6.930
26021SOL    HW279961   8.847  11.797   6.876
26022SOL     OW79962   9.884   9.776  13.240
26022SOL    HW179963   9.853   9.782  13.149
26022SOL    HW279964   9.903   9.867  13.264
26023SOL     OW79965   3.223   2.781   9.058
26023SOL    HW179966   3.153   2.844   9.037
26023SOL    HW279967   3.183   2.723   9.123
26024SOL     OW79968   1.027   3.429   5.877
26024SOL    HW179969   1.076   3.511   5.882
26024SOL    HW279970   1.008   3.407   5.968
26025SOL     OW79971  11.199   8.535   5.483
26025SOL    HW179972  11.115   8.489   5.490
26025SOL    HW279973  11.261   8.466   5.459
26026SOL     OW79974  14.462   2.420  13.747
26026SOL    HW179975  14.492   2.347  13.801
26026SOL    HW279976  14.476   2.390  13.657
26027SOL     OW79977  12.441  12.511  10.502
26027SOL    HW179978  12.533  12.539  10.506
26027SOL    HW279979  12.428  12.462  10.583
26028SOL     OW79980   0.706   7.296   6.212
26028SOL    HW179981   0.680   7.278   6.121
26028SOL    HW279982   0.801   7.308   6.208
26029SOL     OW79983  14.438   5.336  13.955
26029SOL    HW179984  14.505   5.310  14.018
26029SOL    HW279985  14.383   5.258  13.945
26030SOL     OW79986   7.232  13.398  14.713
26030SOL    HW179987   7.180  13.325  14.678
26030SOL    HW279988   7.315  13.358  14.738
26031SOL     OW79989  11.267   0.173  12.091
26031SOL    HW179990  11.351   0.127  12.102
26031SOL    HW279991  11.225   0.167  12.177
26032SOL     OW79992  10.957   5.031  13.970
26032SOL    HW179993  10.978   4.948  13.927
26032SOL    HW279994  10.919   5.006  14.054
26033SOL     OW79995   1.391   3.542   0.943
26033SOL    HW179996   1.479   3.579   0.956
26033SOL    HW279997   1.367   3.567   0.854
26034SOL     OW79998   6.266   1.141  14.845
26034SOL    HW179999   6.187   1.157   0.015
26034SOL    HW280000   6.302   1.229  14.830
26035SOL     OW80001  10.452   0.612   1.997
26035SOL    HW180002  10.409   0.547   1.941
26035SOL    HW280003  10.507   0.560   2.056
26036SOL     OW80004   5.896   8.671   1.589
26036SOL    HW180005   5.807   8.654   1.621
26036SOL    HW280006   5.895   8.645   1.497
26037SOL     OW80007   8.194   6.981   2.026
26037SOL    HW180008   8.131   7.002   2.095
26037SOL    HW280009   8.199   6.886   2.026
26038SOL     OW80010   2.318   6.367   1.831
26038SOL    HW180011   2.405   6.336   1.857
26038SOL    HW280012   2.305   6.447   1.881
26039SOL     OW80013   5.081   4.008  11.636
26039SOL    HW180014   5.068   4.071  11.565
26039SOL    HW280015   5.070   4.059  11.716
26040SOL     OW80016   6.947   9.807   9.827
26040SOL    HW180017   6.888   9.758   9.884
26040SOL    HW280018   7.000   9.859   9.888
26041SOL     OW80019   8.822   9.213   3.303
26041SOL    HW180020   8.806   9.211   3.209
26041SOL    HW280021   8.836   9.121   3.327
26042SOL     OW80022  13.008   7.519  11.377
26042SOL    HW180023  13.079   7.581  11.392
26042SOL    HW280024  12.975   7.498  11.465
26043SOL     OW80025   1.118   0.394  11.100
26043SOL    HW180026   1.170   0.371  11.177
26043SOL    HW280027   1.158   0.346  11.028
26044SOL     OW80028   2.967   3.562  14.703
26044SOL    HW180029   3.042   3.532  14.652
26044SOL    HW280030   2.995   3.553  14.795
26045SOL     OW80031   3.584  14.336  11.714
26045SOL    HW180032   3.500  14.316  11.755
26045SOL    HW280033   3.565  14.406  11.652
26046SOL     OW80034   2.347  13.199  10.487
26046SOL    HW180035   2.355  13.268  10.553
26046SOL    HW280036   2.355  13.117  10.536
26047SOL     OW80037   9.036   2.343   2.186
26047SOL    HW180038   9.076   2.279   2.246
26047SOL    HW280039   9.073   2.427   2.213
26048SOL     OW80040  12.286   6.991   6.962
26048SOL    HW180041  12.220   6.971   6.895
26048SOL    HW280042  12.239   6.984   7.045
26049SOL     OW80043   4.508   9.409  12.843
26049SOL    HW180044   4.552   9.343  12.789
26049SOL    HW280045   4.423   9.421  12.803
26050SOL     OW80046  11.327   6.435  13.313
26050SOL    HW180047  11.343   6.363  13.374
26050SOL    HW280048  11.323   6.392  13.227
26051SOL     OW80049  11.243   8.212  12.039
26051SOL    HW180050  11.228   8.268  12.115
26051SOL    HW280051  11.228   8.270  11.964
26052SOL     OW80052   6.418   6.105   1.951
26052SOL    HW180053   6.481   6.136   2.016
26052SOL    HW280054   6.452   6.020   1.924
26053SOL     OW80055   9.692   8.599  12.578
26053SOL    HW180056   9.597   8.595  12.567
26053SOL    HW280057   9.718   8.511  12.605
26054SOL     OW80058   2.587   0.954  13.924
26054SOL    HW180059   2.573   0.862  13.946
26054SOL    HW280060   2.642   0.953  13.846
26055SOL     OW80061  13.370   8.366   3.099
26055SOL    HW180062  13.338   8.313   3.172
26055SOL    HW280063  13.465   8.349   3.097
26056SOL     OW80064   5.158  12.224   1.663
26056SOL    HW180065   5.211  12.144   1.656
26056SOL    HW280066   5.175  12.255   1.752
26057SOL     OW80067   8.148   0.398   6.208
26057SOL    HW180068   8.058   0.413   6.238
26057SOL    HW280069   8.192   0.357   6.283
26058SOL     OW80070   1.995   4.421   6.222
26058SOL    HW180071   2.031   4.390   6.305
26058SOL    HW280072   1.919   4.365   6.206
26059SOL     OW80073  13.744   5.900   2.321
26059SOL    HW180074  13.726   5.945   2.238
26059SOL    HW280075  13.665   5.850   2.338
26060SOL     OW80076   1.172   3.584   1.934
26060SOL    HW180077   1.079   3.581   1.912
26060SOL    HW280078   1.173   3.598   2.029
26061SOL     OW80079   5.854   2.933  14.797
26061SOL    HW180080   5.872   3.012  14.746
26061SOL    HW280081   5.897   2.949  14.882
26062SOL     OW80082   5.771   1.113   7.697
26062SOL    HW180083   5.731   1.200   7.699
26062SOL    HW280084   5.865   1.130   7.695
26063SOL     OW80085  11.600   0.973  14.674
26063SOL    HW180086  11.650   0.901  14.635
26063SOL    HW280087  11.509   0.955  14.650
26064SOL     OW80088   6.713  14.739   1.004
26064SOL    HW180089   6.775  14.704   0.940
26064SOL    HW280090   6.629  14.701   0.978
26065SOL     OW80091   1.424   9.458   5.592
26065SOL    HW180092   1.383   9.544   5.604
26065SOL    HW280093   1.387   9.426   5.510
26066SOL     OW80094   5.518  12.645  14.684
26066SOL    HW180095   5.559  12.581  14.742
26066SOL    HW280096   5.431  12.610  14.667
26067SOL     OW80097  11.474  14.646   7.032
26067SOL    HW180098  11.433  14.611   7.110
26067SOL    HW280099  11.472  14.574   6.969
26068SOL     OW80100  11.036   0.331   0.403
26068SOL    HW180101  11.056   0.243   0.434
26068SOL    HW280102  10.956   0.355   0.451
26069SOL     OW80103   0.368  10.722   2.932
26069SOL    HW180104   0.421  10.762   2.863
26069SOL    HW280105   0.283  10.706   2.891
26070SOL     OW80106   0.478   0.162  11.392
26070SOL    HW180107   0.571   0.139  11.391
26070SOL    HW280108   0.438   0.104  11.326
26071SOL     OW80109   5.921   4.315  12.553
26071SOL    HW180110   5.869   4.381  12.599
26071SOL    HW280111   5.880   4.232  12.576
26072SOL     OW80112   7.341   8.783  10.263
26072SOL    HW180113   7.422   8.781  10.313
26072SOL    HW280114   7.337   8.872  10.226
26073SOL     OW80115  14.137  14.093   1.249
26073SOL    HW180116  14.117  14.002   1.275
26073SOL    HW280117  14.224  14.088   1.209
26074SOL     OW80118   3.878   6.836   4.051
26074SOL    HW180119   3.926   6.908   4.009
26074SOL    HW280120   3.885   6.763   3.990
26075SOL     OW80121   4.550   6.964  13.210
26075SOL    HW180122   4.628   7.010  13.238
26075SOL    HW280123   4.573   6.871  13.214
26076SOL     OW80124   4.244   2.153   3.074
26076SOL    HW180125   4.203   2.230   3.034
26076SOL    HW280126   4.312   2.188   3.130
26077SOL     OW80127   2.154   0.966   1.204
26077SOL    HW180128   2.176   0.873   1.202
26077SOL    HW280129   2.216   1.007   1.144
26078SOL     OW80130   2.929  11.951  11.049
26078SOL    HW180131   3.024  11.942  11.054
26078SOL    HW280132   2.914  12.045  11.040
26079SOL     OW80133   0.500   0.793   1.573
26079SOL    HW180134   0.505   0.723   1.508
26079SOL    HW280135   0.482   0.872   1.521
26080SOL     OW80136  12.124   7.605   5.958
26080SOL    HW180137  12.082   7.691   5.956
26080SOL    HW280138  12.092   7.561   5.879
26081SOL     OW80139  14.640   5.428  13.594
26081SOL    HW180140  14.733   5.406  13.582
26081SOL    HW280141  14.594   5.365  13.537
26082SOL     OW80142   8.426   9.401   9.690
26082SOL    HW180143   8.476   9.481   9.708
26082SOL    HW280144   8.408   9.405   9.596
26083SOL     OW80145   8.598   8.398   1.123
26083SOL    HW180146   8.604   8.358   1.210
26083SOL    HW280147   8.507   8.381   1.096
26084SOL     OW80148   4.900   8.225   9.749
26084SOL    HW180149   4.914   8.311   9.708
26084SOL    HW280150   4.983   8.179   9.737
26085SOL     OW80151   8.455   9.148  10.008
26085SOL    HW180152   8.414   9.206   9.944
26085SOL    HW280153   8.392   9.145  10.081
26086SOL     OW80154  14.582  11.517   4.634
26086SOL    HW180155  14.491  11.529   4.664
26086SOL    HW280156  14.589  11.572   4.556
26087SOL     OW80157   9.557  14.365   4.007
26087SOL    HW180158   9.568  14.299   3.938
26087SOL    HW280159   9.586  14.447   3.966
26088SOL     OW80160   3.416  11.217   1.971
26088SOL    HW180161   3.373  11.157   2.032
26088SOL    HW280162   3.497  11.172   1.947
26089SOL     OW80163   2.712   0.199  13.036
26089SOL    HW180164   2.657   0.227  12.963
26089SOL    HW280165   2.758   0.278  13.064
26090SOL     OW80166   7.401   3.578   6.980
26090SOL    HW180167   7.489   3.584   6.942
26090SOL    HW280168   7.354   3.519   6.922
26091SOL     OW80169   7.382   1.125  14.582
26091SOL    HW180170   7.349   1.146  14.494
26091SOL    HW280171   7.414   1.035  14.574
26092SOL     OW80172   3.501   1.753   9.517
26092SOL    HW180173   3.566   1.722   9.579
26092SOL    HW280174   3.471   1.836   9.552
26093SOL     OW80175  11.624   1.182   6.213
26093SOL    HW180176  11.529   1.194   6.221
26093SOL    HW280177  11.650   1.139   6.295
26094SOL     OW80178  12.918   4.233  14.808
26094SOL    HW180179  12.969   4.312  14.820
26094SOL    HW280180  12.831   4.256  14.841
26095SOL     OW80181   5.022   8.568  11.378
26095SOL    HW180182   5.062   8.518  11.450
26095SOL    HW280183   5.096   8.608  11.334
26096SOL     OW80184   0.864   8.157  10.627
26096SOL    HW180185   0.936   8.111  10.583
26096SOL    HW280186   0.786   8.126  10.583
26097SOL     OW80187  10.382  11.545   3.531
26097SOL    HW180188  10.401  11.609   3.599
26097SOL    HW280189  10.287  11.535   3.533
26098SOL     OW80190   1.697  13.974   7.047
26098SOL    HW180191   1.767  13.947   7.106
26098SOL    HW280192   1.743  14.015   6.973
26099SOL     OW80193  13.592   4.340   8.452
26099SOL    HW180194  13.530   4.332   8.379
26099SOL    HW280195  13.678   4.341   8.409
26100SOL     OW80196   4.906   6.781  13.542
26100SOL    HW180197   4.965   6.759  13.470
26100SOL    HW280198   4.963   6.822  13.607
26101SOL     OW80199   1.114   7.554   9.830
26101SOL    HW180200   1.106   7.469   9.872
26101SOL    HW280201   1.179   7.601   9.883
26102SOL     OW80202   3.426   3.279  11.377
26102SOL    HW180203   3.499   3.275  11.439
26102SOL    HW280204   3.450   3.348  11.316
26103SOL     OW80205   6.531  11.304  14.224
26103SOL    HW180206   6.486  11.381  14.257
26103SOL    HW280207   6.476  11.274  14.151
26104SOL     OW80208  12.807  14.638   8.240
26104SOL    HW180209  12.817  14.544   8.231
26104SOL    HW280210  12.889  14.674   8.205
26105SOL     OW80211   6.312   9.924   9.170
26105SOL    HW180212   6.281  10.015   9.173
26105SOL    HW280213   6.291   9.888   9.256
26106SOL     OW80214   7.861   4.583  13.749
26106SOL    HW180215   7.804   4.519  13.792
26106SOL    HW280216   7.818   4.668  13.764
26107SOL     OW80217   9.476   9.112   9.516
26107SOL    HW180218   9.383   9.091   9.521
26107SOL    HW280219   9.489   9.139   9.425
26108SOL     OW80220   9.939   2.651  12.465
26108SOL    HW180221   9.934   2.744  12.446
26108SOL    HW280222   9.866   2.612  12.417
26109SOL     OW80223  12.172   4.378   3.641
26109SOL    HW180224  12.240   4.323   3.601
26109SOL    HW280225  12.091   4.350   3.599
26110SOL     OW80226  13.387   3.881   7.894
26110SOL    HW180227  13.357   3.866   7.984
26110SOL    HW280228  13.363   3.801   7.848
26111SOL     OW80229   9.672   1.275   9.388
26111SOL    HW180230   9.735   1.236   9.328
26111SOL    HW280231   9.684   1.370   9.377
26112SOL     OW80232  14.782   2.956   8.868
26112SOL    HW180233  14.817   3.008   8.796
26112SOL    HW280234  14.829   2.986   8.945
26113SOL     OW80235  12.088   7.303   7.957
26113SOL    HW180236  12.005   7.255   7.959
26113SOL    HW280237  12.078   7.372   8.023
26114SOL     OW80238   2.911   7.426   9.173
26114SOL    HW180239   2.884   7.378   9.094
26114SOL    HW280240   2.952   7.359   9.229
26115SOL     OW80241  14.494  11.635   3.790
26115SOL    HW180242  14.576  11.684   3.797
26115SOL    HW280243  14.433  11.681   3.848
26116SOL     OW80244  12.397   6.622  13.158
26116SOL    HW180245  12.423   6.649  13.246
26116SOL    HW280246  12.369   6.531  13.168
26117SOL     OW80247   9.052   4.382  13.448
26117SOL    HW180248   9.119   4.438  13.489
26117SOL    HW280249   8.970   4.408  13.490
26118SOL     OW80250  14.006   4.998   7.304
26118SOL    HW180251  14.043   5.028   7.220
26118SOL    HW280252  13.991   5.079   7.353
26119SOL     OW80253  11.736  12.600   1.862
26119SOL    HW180254  11.782  12.573   1.941
26119SOL    HW280255  11.669  12.661   1.893
26120SOL     OW80256   1.932  12.243  14.633
26120SOL    HW180257   2.017  12.238  14.589
26120SOL    HW280258   1.896  12.155  14.625
26121SOL     OW80259  11.127  11.477   6.201
26121SOL    HW180260  11.053  11.484   6.261
26121SOL    HW280261  11.090  11.440   6.121
26122SOL     OW80262  10.493   3.587   5.960
26122SOL    HW180263  10.500   3.682   5.967
26122SOL    HW280264  10.551   3.563   5.887
26123SOL     OW80265   1.887  11.593   5.647
26123SOL    HW180266   1.969  11.641   5.635
26123SOL    HW280267   1.839  11.605   5.565
26124SOL     OW80268  14.605  14.615   9.721
26124SOL    HW180269  14.700  14.608   9.722
26124SOL    HW280270  14.588  14.709   9.718
26125SOL     OW80271  13.863   4.990   6.833
26125SOL    HW180272  13.792   4.935   6.866
26125SOL    HW280273  13.842   5.003   6.741
26126SOL     OW80274   0.651   4.280   9.187
26126SOL    HW180275   0.590   4.342   9.227
26126SOL    HW280276   0.670   4.217   9.256
26127SOL     OW80277   9.573  12.780  10.935
26127SOL    HW180278   9.644  12.797  10.997
26127SOL    HW280279   9.497  12.824  10.973
26128SOL     OW80280   6.565  10.757   8.707
26128SOL    HW180281   6.512  10.816   8.653
26128SOL    HW280282   6.501  10.706   8.756
26129SOL     OW80283  11.958   7.771   3.224
26129SOL    HW180284  11.900   7.847   3.235
26129SOL    HW280285  12.019   7.798   3.155
26130SOL     OW80286   4.077  10.087   0.945
26130SOL    HW180287   4.072  10.019   0.878
26130SOL    HW280288   4.062  10.042   1.028
26131SOL     OW80289  11.384   1.282   3.314
26131SOL    HW180290  11.340   1.353   3.361
26131SOL    HW280291  11.469   1.274   3.358
26132SOL     OW80292   3.171  14.178   6.448
26132SOL    HW180293   3.177  14.166   6.543
26132SOL    HW280294   3.141  14.268   6.437
26133SOL     OW80295  10.172   1.565  14.391
26133SOL    HW180296  10.208   1.620  14.322
26133SOL    HW280297  10.114   1.504  14.346
26134SOL     OW80298   6.499   3.420   9.793
26134SOL    HW180299   6.552   3.500   9.790
26134SOL    HW280300   6.420   3.444   9.840
26135SOL     OW80301   7.579   6.593   1.167
26135SOL    HW180302   7.534   6.634   1.093
26135SOL    HW280303   7.669   6.582   1.137
26136SOL     OW80304  13.704   2.985  12.521
26136SOL    HW180305  13.627   2.946  12.479
26136SOL    HW280306  13.760   2.911  12.543
26137SOL     OW80307  14.506  10.101   6.239
26137SOL    HW180308  14.497  10.196   6.241
26137SOL    HW280309  14.418  10.069   6.220
26138SOL     OW80310  14.677   8.489   2.738
26138SOL    HW180311  14.648   8.557   2.798
26138SOL    HW280312  14.740   8.532   2.680
26139SOL     OW80313   4.231   9.869  12.026
26139SOL    HW180314   4.181   9.792  12.054
26139SOL    HW280315   4.265   9.906  12.107
26140SOL     OW80316   8.711   5.229   8.970
26140SOL    HW180317   8.683   5.258   8.883
26140SOL    HW280318   8.796   5.271   8.983
26141SOL     OW80319  10.437  10.504   4.304
26141SOL    HW180320  10.490  10.501   4.383
26141SOL    HW280321  10.360  10.450   4.324
26142SOL     OW80322   1.719   9.507   8.395
26142SOL    HW180323   1.656   9.459   8.341
26142SOL    HW280324   1.758   9.572   8.336
26143SOL     OW80325   6.769   9.397   6.802
26143SOL    HW180326   6.781   9.319   6.856
26143SOL    HW280327   6.842   9.394   6.740
26144SOL     OW80328  14.458   7.050   3.706
26144SOL    HW180329  14.552   7.064   3.696
26144SOL    HW280330  14.418   7.127   3.666
26145SOL     OW80331  12.582  13.452  12.287
26145SOL    HW180332  12.612  13.541  12.271
26145SOL    HW280333  12.661  13.404  12.313
26146SOL     OW80334   6.200  11.445   0.120
26146SOL    HW180335   6.118  11.412   0.159
26146SOL    HW280336   6.229  11.374   0.063
26147SOL     OW80337   4.140  12.746   0.662
26147SOL    HW180338   4.102  12.745   0.750
26147SOL    HW280339   4.207  12.814   0.665
26148SOL     OW80340  10.665  10.233  13.530
26148SOL    HW180341  10.613  10.153  13.544
26148SOL    HW280342  10.741  10.222  13.587
26149SOL     OW80343   0.859   6.223   0.757
26149SOL    HW180344   0.894   6.152   0.812
26149SOL    HW280345   0.879   6.303   0.806
26150SOL     OW80346   1.498  14.577   6.566
26150SOL    HW180347   1.506  14.561   6.660
26150SOL    HW280348   1.452  14.661   6.560
26151SOL     OW80349  12.462  13.933   7.750
26151SOL    HW180350  12.392  13.985   7.711
26151SOL    HW280351  12.418  13.854   7.782
26152SOL     OW80352   6.386  11.290   9.964
26152SOL    HW180353   6.423  11.372   9.996
26152SOL    HW280354   6.450  11.257   9.902
26153SOL     OW80355   1.285   9.581   2.259
26153SOL    HW180356   1.201   9.536   2.259
26153SOL    HW280357   1.333   9.542   2.186
26154SOL     OW80358   8.351  13.793   9.253
26154SOL    HW180359   8.427  13.800   9.311
26154SOL    HW280360   8.370  13.717   9.198
26155SOL     OW80361   2.296   3.979   2.943
26155SOL    HW180362   2.215   4.016   2.906
26155SOL    HW280363   2.334   4.050   2.995
26156SOL     OW80364   2.140   1.617   7.468
26156SOL    HW180365   2.046   1.631   7.474
26156SOL    HW280366   2.161   1.634   7.376
26157SOL     OW80367  12.395  13.305   9.814
26157SOL    HW180368  12.460  13.260   9.760
26157SOL    HW280369  12.312  13.261   9.792
26158SOL     OW80370   3.003   5.954   9.520
26158SOL    HW180371   2.966   6.037   9.549
26158SOL    HW280372   3.030   5.970   9.430
26159SOL     OW80373   2.779   0.445   1.744
26159SOL    HW180374   2.861   0.407   1.714
26159SOL    HW280375   2.802   0.485   1.828
26160SOL     OW80376   3.615   8.637  13.997
26160SOL    HW180377   3.586   8.728  13.991
26160SOL    HW280378   3.635   8.625  14.090
26161SOL     OW80379   2.012   7.927  13.294
26161SOL    HW180380   1.958   7.970  13.228
26161SOL    HW280381   2.098   7.916  13.252
26162SOL     OW80382   4.512  11.793   8.444
26162SOL    HW180383   4.530  11.764   8.533
26162SOL    HW280384   4.584  11.756   8.392
26163SOL     OW80385  11.778   2.794   6.413
26163SOL    HW180386  11.793   2.742   6.334
26163SOL    HW280387  11.760   2.729   6.481
26164SOL     OW80388   4.490   1.411   8.320
26164SOL    HW180389   4.563   1.446   8.270
26164SOL    HW280390   4.511   1.318   8.331
26165SOL     OW80391  14.665   6.275  13.546
26165SOL    HW180392  14.630   6.289  13.458
26165SOL    HW280393  14.609   6.207  13.584
26166SOL     OW80394  11.038  13.442  14.758
26166SOL    HW180395  11.003  13.355  14.774
26166SOL    HW280396  11.133  13.429  14.754
26167SOL     OW80397  11.125  10.528   3.666
26167SOL    HW180398  11.051  10.522   3.606
26167SOL    HW280399  11.128  10.620   3.692
26168SOL     OW80400   5.689   7.746  13.860
26168SOL    HW180401   5.680   7.651  13.862
26168SOL    HW280402   5.687   7.773  13.952
26169SOL     OW80403   9.418   6.698  12.826
26169SOL    HW180404   9.483   6.717  12.758
26169SOL    HW280405   9.340   6.746  12.797
26170SOL     OW80406   9.392   5.468   9.227
26170SOL    HW180407   9.476   5.481   9.271
26170SOL    HW280408   9.393   5.377   9.199
26171SOL     OW80409   3.308  13.354   1.791
26171SOL    HW180410   3.291  13.290   1.722
26171SOL    HW280411   3.225  13.400   1.802
26172SOL     OW80412   9.445  11.096  11.306
26172SOL    HW180413   9.447  11.104  11.211
26172SOL    HW280414   9.353  11.109  11.330
26173SOL     OW80415   1.550   3.083  11.098
26173SOL    HW180416   1.595   3.036  11.028
26173SOL    HW280417   1.614   3.148  11.128
26174SOL     OW80418  13.110   4.832   9.529
26174SOL    HW180419  13.019   4.810   9.550
26174SOL    HW280420  13.113   4.833   9.433
26175SOL     OW80421   0.882  11.812   2.057
26175SOL    HW180422   0.834  11.868   1.996
26175SOL    HW280423   0.865  11.723   2.027
26176SOL     OW80424   6.674   8.849  11.359
26176SOL    HW180425   6.657   8.920  11.421
26176SOL    HW280426   6.618   8.870  11.284
26177SOL     OW80427   7.710   2.315  10.675
26177SOL    HW180428   7.675   2.355  10.595
26177SOL    HW280429   7.634   2.305  10.731
26178SOL     OW80430   0.140   0.250  11.604
26178SOL    HW180431   0.185   0.170  11.632
26178SOL    HW280432   0.160   0.314  11.672
26179SOL     OW80433   4.397   1.530  10.398
26179SOL    HW180434   4.483   1.571  10.392
26179SOL    HW280435   4.349   1.582  10.462
26180SOL     OW80436   3.746  10.631   4.278
26180SOL    HW180437   3.726  10.567   4.210
26180SOL    HW280438   3.758  10.713   4.231
26181SOL     OW80439   0.255  12.407  10.870
26181SOL    HW180440   0.344  12.441  10.877
26181SOL    HW280441   0.229  12.426  10.779
26182SOL     OW80442   6.785  14.735   1.298
26182SOL    HW180443   6.748  14.764   1.215
26182SOL    HW280444   6.879  14.752   1.289
26183SOL     OW80445  14.600  12.654   0.337
26183SOL    HW180446  14.603  12.584   0.402
26183SOL    HW280447  14.692  12.670   0.314
26184SOL     OW80448   9.846   4.702  11.751
26184SOL    HW180449   9.792   4.781  11.755
26184SOL    HW280450   9.900   4.704  11.830
26185SOL     OW80451   7.051  12.650  10.561
26185SOL    HW180452   7.031  12.640  10.467
26185SOL    HW280453   6.973  12.692  10.597
26186SOL     OW80454   4.527   2.561   5.351
26186SOL    HW180455   4.617   2.533   5.335
26186SOL    HW280456   4.522   2.573   5.446
26187SOL     OW80457  10.576  10.405   2.983
26187SOL    HW180458  10.614  10.377   2.899
26187SOL    HW280459  10.620  10.488   3.002
26188SOL     OW80460   5.224   3.511  11.072
26188SOL    HW180461   5.282   3.582  11.100
26188SOL    HW280462   5.163   3.552  11.011
26189SOL     OW80463   5.199   2.537  10.160
26189SOL    HW180464   5.133   2.469  10.175
26189SOL    HW280465   5.148   2.615  10.136
26190SOL     OW80466   2.852  11.388   0.061
26190SOL    HW180467   2.869  11.295   0.077
26190SOL    HW280468   2.830  11.392  14.850
26191SOL     OW80469   0.515  10.776   8.044
26191SOL    HW180470   0.570  10.743   8.115
26191SOL    HW280471   0.427  10.748   8.066
26192SOL     OW80472   0.414  11.101  11.590
26192SOL    HW180473   0.488  11.064  11.541
26192SOL    HW280474   0.431  11.076  11.681
26193SOL     OW80475  13.013   4.114  10.221
26193SOL    HW180476  13.057   4.157  10.149
26193SOL    HW280477  13.051   4.026  10.224
26194SOL     OW80478   0.923   3.518   4.706
26194SOL    HW180479   0.963   3.601   4.731
26194SOL    HW280480   0.996   3.457   4.698
26195SOL     OW80481   8.677  10.181   3.722
26195SOL    HW180482   8.762  10.167   3.766
26195SOL    HW280483   8.669  10.276   3.714
26196SOL     OW80484   8.056  10.561  14.533
26196SOL    HW180485   7.975  10.531  14.574
26196SOL    HW280486   8.044  10.655  14.522
26197SOL     OW80487   3.854   3.873  11.852
26197SOL    HW180488   3.845   3.932  11.926
26197SOL    HW280489   3.845   3.785  11.890
26198SOL     OW80490   8.016   5.180   2.372
26198SOL    HW180491   8.078   5.156   2.441
26198SOL    HW280492   7.934   5.198   2.419
26199SOL     OW80493  13.762  10.424   6.710
26199SOL    HW180494  13.798  10.340   6.680
26199SOL    HW280495  13.837  10.484   6.709
26200SOL     OW80496  12.201   2.909   4.546
26200SOL    HW180497  12.224   2.819   4.525
26200SOL    HW280498  12.216   2.958   4.465
26201SOL     OW80499  11.878   0.564   8.995
26201SOL    HW180500  11.929   0.580   8.916
26201SOL    HW280501  11.819   0.639   9.001
26202SOL     OW80502   3.175   1.988  10.519
26202SOL    HW180503   3.269   1.975  10.502
26202SOL    HW280504   3.161   2.082  10.503
26203SOL     OW80505  10.830   0.992  12.393
26203SOL    HW180506  10.918   1.004  12.429
26203SOL    HW280507  10.831   0.902  12.359
26204SOL     OW80508   3.158   2.412   1.295
26204SOL    HW180509   3.206   2.494   1.301
26204SOL    HW280510   3.067   2.438   1.282
26205SOL     OW80511  12.395   5.230   7.595
26205SOL    HW180512  12.432   5.173   7.528
26205SOL    HW280513  12.345   5.296   7.546
26206SOL     OW80514  11.235  11.637   0.731
26206SOL    HW180515  11.284  11.663   0.653
26206SOL    HW280516  11.267  11.694   0.800
26207SOL     OW80517   3.044   2.594   2.830
26207SOL    HW180518   3.000   2.640   2.759
26207SOL    HW280519   2.994   2.616   2.908
26208SOL     OW80520   9.220   4.237  12.119
26208SOL    HW180521   9.248   4.166  12.062
26208SOL    HW280522   9.126   4.221  12.133
26209SOL     OW80523   1.618  13.311   3.857
26209SOL    HW180524   1.538  13.267   3.829
26209SOL    HW280525   1.676  13.306   3.781
26210SOL     OW80526  10.395  11.654  11.777
26210SOL    HW180527  10.487  11.643  11.753
26210SOL    HW280528  10.350  11.581  11.734
26211SOL     OW80529  14.249   7.911   5.299
26211SOL    HW180530  14.342   7.922   5.279
26211SOL    HW280531  14.211   7.998   5.284
26212SOL     OW80532  12.455   9.673   2.799
26212SOL    HW180533  12.544   9.696   2.823
26212SOL    HW280534  12.458   9.659   2.704
26213SOL     OW80535  11.710  14.707  14.165
26213SOL    HW180536  11.695  14.703  14.070
26213SOL    HW280537  11.735  14.618  14.189
26214SOL     OW80538  11.486   6.503   8.607
26214SOL    HW180539  11.424   6.550   8.662
26214SOL    HW280540  11.479   6.411   8.635
26215SOL     OW80541  10.890   2.909  14.299
26215SOL    HW180542  10.834   2.865  14.363
26215SOL    HW280543  10.929   2.983  14.348
26216SOL     OW80544   8.427   2.465   8.410
26216SOL    HW180545   8.390   2.551   8.429
26216SOL    HW280546   8.483   2.446   8.485
26217SOL     OW80547   7.245   3.426  11.759
26217SOL    HW180548   7.209   3.515  11.751
26217SOL    HW280549   7.236   3.389  11.672
26218SOL     OW80550   4.123   5.463   9.967
26218SOL    HW180551   4.061   5.531   9.993
26218SOL    HW280552   4.118   5.397  10.036
26219SOL     OW80553   0.164  14.242  14.811
26219SOL    HW180554   0.164  14.306   0.001
26219SOL    HW280555   0.197  14.291  14.736
26220SOL     OW80556   2.118   3.957   5.234
26220SOL    HW180557   2.121   3.873   5.188
26220SOL    HW280558   2.092   4.020   5.168
26221SOL     OW80559   1.462   2.680   0.841
26221SOL    HW180560   1.397   2.657   0.775
26221SOL    HW280561   1.475   2.599   0.891
26222SOL     OW80562   9.960   4.630   2.613
26222SOL    HW180563   9.997   4.664   2.532
26222SOL    HW280564  10.037   4.612   2.668
26223SOL     OW80565  13.191  14.374   1.459
26223SOL    HW180566  13.188  14.329   1.375
26223SOL    HW280567  13.164  14.464   1.439
26224SOL     OW80568  14.052   0.043  14.203
26224SOL    HW180569  14.068   0.012  14.292
26224SOL    HW280570  13.989  14.862  14.167
26225SOL     OW80571   8.820   3.165   7.516
26225SOL    HW180572   8.749   3.104   7.496
26225SOL    HW280573   8.896   3.130   7.469
26226SOL     OW80574   9.333   4.031  10.879
26226SOL    HW180575   9.238   4.040  10.875
26226SOL    HW280576   9.358   4.001  10.791
26227SOL     OW80577   0.252   7.180   5.774
26227SOL    HW180578   0.286   7.103   5.727
26227SOL    HW280579   0.187   7.218   5.714
26228SOL     OW80580   6.696   5.723   6.160
26228SOL    HW180581   6.619   5.764   6.201
26228SOL    HW280582   6.718   5.650   6.218
26229SOL     OW80583   4.121   0.961   0.116
26229SOL    HW180584   4.093   0.916   0.196
26229SOL    HW280585   4.205   0.921   0.094
26230SOL     OW80586   5.703  13.850   8.067
26230SOL    HW180587   5.776  13.896   8.109
26230SOL    HW280588   5.692  13.894   7.983
26231SOL     OW80589   7.091  13.113   1.450
26231SOL    HW180590   7.156  13.101   1.520
26231SOL    HW280591   7.143  13.123   1.371
26232SOL     OW80592   0.130   2.505  10.602
26232SOL    HW180593   0.096   2.417  10.585
26232SOL    HW280594   0.082   2.535  10.680
26233SOL     OW80595   2.540   8.682   7.231
26233SOL    HW180596   2.628   8.677   7.193
26233SOL    HW280597   2.523   8.776   7.239
26234SOL     OW80598   5.149   4.951  10.773
26234SOL    HW180599   5.173   4.861  10.796
26234SOL    HW280600   5.203   5.006  10.830
26235SOL     OW80601   1.177  10.387   0.091
26235SOL    HW180602   1.268  10.416   0.098
26235SOL    HW280603   1.130  10.463   0.057
26236SOL     OW80604  13.364   7.473  11.352
26236SOL    HW180605  13.430   7.451  11.287
26236SOL    HW280606  13.361   7.568  11.353
26237SOL     OW80607   6.177  12.265   7.258
26237SOL    HW180608   6.222  12.212   7.324
26237SOL    HW280609   6.246  12.291   7.196
26238SOL     OW80610   7.837   7.242  13.280
26238SOL    HW180611   7.894   7.171  13.253
26238SOL    HW280612   7.866   7.264  13.369
26239SOL     OW80613  10.209   5.820   2.630
26239SOL    HW180614  10.165   5.889   2.581
26239SOL    HW280615  10.211   5.852   2.720
26240SOL     OW80616  14.476   8.627   7.018
26240SOL    HW180617  14.519   8.545   7.042
26240SOL    HW280618  14.444   8.612   6.929
26241SOL     OW80619   3.030   2.885  11.312
26241SOL    HW180620   3.054   2.808  11.362
26241SOL    HW280621   3.033   2.957  11.375
26242SOL     OW80622  10.641  11.429   3.985
26242SOL    HW180623  10.611  11.508   4.030
26242SOL    HW280624  10.716  11.399   4.036
26243SOL     OW80625  11.797   1.542   3.455
26243SOL    HW180626  11.835   1.455   3.465
26243SOL    HW280627  11.808   1.584   3.540
26244SOL     OW80628   4.885  11.411   9.142
26244SOL    HW180629   4.790  11.423   9.142
26244SOL    HW280630   4.903  11.367   9.059
26245SOL     OW80631  10.793   6.444   2.254
26245SOL    HW180632  10.880   6.434   2.292
26245SOL    HW280633  10.804   6.416   2.163
26246SOL     OW80634   5.023  11.514  10.347
26246SOL    HW180635   4.968  11.506  10.425
26246SOL    HW280636   4.987  11.450  10.286
26247SOL     OW80637   0.437   5.897  13.982
26247SOL    HW180638   0.500   5.894  13.910
26247SOL    HW280639   0.357   5.862  13.945
26248SOL     OW80640   6.629  14.349  11.667
26248SOL    HW180641   6.715  14.373  11.701
26248SOL    HW280642   6.600  14.425  11.617
26249SOL     OW80643   0.570   2.586   8.163
26249SOL    HW180644   0.519   2.643   8.220
26249SOL    HW280645   0.505   2.546   8.105
26250SOL     OW80646   4.173   1.418   0.009
26250SOL    HW180647   4.123   1.488  14.848
26250SOL    HW280648   4.137   1.415   0.098
26251SOL     OW80649  13.692   4.140  12.889
26251SOL    HW180650  13.720   4.143  12.798
26251SOL    HW280651  13.773   4.130  12.939
26252SOL     OW80652  12.850  12.293   4.064
26252SOL    HW180653  12.933  12.275   4.106
26252SOL    HW280654  12.832  12.216   4.011
26253SOL     OW80655   1.608  10.869  12.861
26253SOL    HW180656   1.609  10.945  12.804
26253SOL    HW280657   1.699  10.858  12.889
26254SOL     OW80658  12.681  13.536   3.578
26254SOL    HW180659  12.602  13.588   3.589
26254SOL    HW280660  12.650  13.449   3.554
26255SOL     OW80661   1.974   3.426   8.849
26255SOL    HW180662   1.958   3.353   8.789
26255SOL    HW280663   1.887   3.452   8.878
26256SOL     OW80664  13.827   4.467   9.943
26256SOL    HW180665  13.759   4.478   9.876
26256SOL    HW280666  13.845   4.555   9.974
26257SOL     OW80667   1.524  14.364  12.859
26257SOL    HW180668   1.534  14.347  12.765
26257SOL    HW280669   1.448  14.312  12.885
26258SOL     OW80670   6.607   4.197   2.729
26258SOL    HW180671   6.627   4.103   2.726
26258SOL    HW280672   6.535   4.204   2.791
26259SOL     OW80673   9.320  13.511   5.432
26259SOL    HW180674   9.380  13.548   5.497
26259SOL    HW280675   9.273  13.443   5.479
26260SOL     OW80676   3.658   3.490  13.286
26260SOL    HW180677   3.600   3.455  13.353
26260SOL    HW280678   3.600   3.538  13.227
26261SOL     OW80679   3.792  14.422   2.728
26261SOL    HW180680   3.854  14.349   2.733
26261SOL    HW280681   3.837  14.495   2.771
26262SOL     OW80682   2.182   6.355   3.990
26262SOL    HW180683   2.245   6.426   4.003
26262SOL    HW280684   2.211   6.287   4.050
26263SOL     OW80685  13.229  12.038  12.800
26263SOL    HW180686  13.224  11.946  12.825
26263SOL    HW280687  13.138  12.066  12.792
26264SOL     OW80688   9.387   0.522  14.802
26264SOL    HW180689   9.434   0.487  14.725
26264SOL    HW280690   9.450   0.582  14.842
26265SOL     OW80691  11.943  14.695   5.237
26265SOL    HW180692  11.997  14.616   5.232
26265SOL    HW280693  11.855  14.665   5.212
26266SOL     OW80694  12.520   4.644  10.245
26266SOL    HW180695  12.523   4.717  10.308
26266SOL    HW280696  12.583   4.581  10.278
26267SOL     OW80697   3.610   7.528  13.702
26267SOL    HW180698   3.541   7.584  13.736
26267SOL    HW280699   3.687   7.551  13.755
26268SOL     OW80700  13.331  13.647   2.385
26268SOL    HW180701  13.318  13.736   2.354
26268SOL    HW280702  13.329  13.654   2.481
26269SOL     OW80703   5.255   2.164   9.952
26269SOL    HW180704   5.340   2.121   9.943
26269SOL    HW280705   5.198   2.118   9.890
26270SOL     OW80706   3.142   7.306  12.287
26270SOL    HW180707   3.106   7.391  12.261
26270SOL    HW280708   3.106   7.290  12.374
26271SOL     OW80709   6.857   0.247   4.756
26271SOL    HW180710   6.776   0.295   4.771
26271SOL    HW280711   6.845   0.204   4.672
26272SOL     OW80712   5.241   1.502  10.284
26272SOL    HW180713   5.199   1.525  10.367
26272SOL    HW280714   5.177   1.526  10.217
26273SOL     OW80715  12.307   3.388  13.044
26273SOL    HW180716  12.351   3.470  13.069
26273SOL    HW280717  12.269   3.407  12.959
26274SOL     OW80718  14.176  11.106  13.568
26274SOL    HW180719  14.229  11.130  13.644
26274SOL    HW280720  14.122  11.034  13.598
26275SOL     OW80721   3.451  13.803   4.065
26275SOL    HW180722   3.536  13.783   4.025
26275SOL    HW280723   3.388  13.792   3.995
26276SOL     OW80724  10.372  14.214   0.744
26276SOL    HW180725  10.311  14.150   0.707
26276SOL    HW280726  10.438  14.227   0.677
26277SOL     OW80727   7.463  11.377   9.765
26277SOL    HW180728   7.489  11.393   9.856
26277SOL    HW280729   7.451  11.465   9.729
26278SOL     OW80730   0.432   2.602   3.856
26278SOL    HW180731   0.410   2.546   3.931
26278SOL    HW280732   0.452   2.540   3.786
26279SOL     OW80733   3.071   2.134   9.057
26279SOL    HW180734   3.035   2.099   9.139
26279SOL    HW280735   3.060   2.229   9.066
26280SOL     OW80736  13.272   9.040   9.455
26280SOL    HW180737  13.256   9.027   9.549
26280SOL    HW280738  13.279   8.951   9.420
26281SOL     OW80739  13.624  11.766   4.478
26281SOL    HW180740  13.576  11.761   4.395
26281SOL    HW280741  13.625  11.676   4.511
26282SOL     OW80742  10.044   8.941   4.032
26282SOL    HW180743   9.968   8.962   3.978
26282SOL    HW280744  10.119   8.969   3.980
26283SOL     OW80745   1.223   7.287  14.876
26283SOL    HW180746   1.266   7.225  14.817
26283SOL    HW280747   1.196   7.234   0.069
26284SOL     OW80748  10.487  11.998  13.480
26284SOL    HW180749  10.407  12.013  13.531
26284SOL    HW280750  10.537  11.936  13.534
26285SOL     OW80751   4.452   5.372   2.063
26285SOL    HW180752   4.514   5.323   2.117
26285SOL    HW280753   4.390   5.306   2.032
26286SOL     OW80754   1.097   2.979   8.796
26286SOL    HW180755   1.083   3.039   8.869
26286SOL    HW280756   1.170   2.924   8.823
26287SOL     OW80757   0.595  11.910  11.077
26287SOL    HW180758   0.664  11.974  11.094
26287SOL    HW280759   0.518  11.964  11.056
26288SOL     OW80760  11.478   1.825   9.051
26288SOL    HW180761  11.516   1.909   9.023
26288SOL    HW280762  11.548   1.761   9.037
26289SOL     OW80763   2.110  14.400   2.071
26289SOL    HW180764   2.040  14.338   2.089
26289SOL    HW280765   2.065  14.477   2.035
26290SOL     OW80766   3.424   1.541   4.494
26290SOL    HW180767   3.360   1.481   4.455
26290SOL    HW280768   3.371   1.602   4.546
26291SOL     OW80769   0.477  12.760   6.192
26291SOL    HW180770   0.419  12.837   6.194
26291SOL    HW280771   0.429  12.697   6.138
26292SOL     OW80772   7.024  13.383   1.636
26292SOL    HW180773   7.048  13.386   1.728
26292SOL    HW280774   7.030  13.291   1.611
26293SOL     OW80775   9.083   0.445   7.337
26293SOL    HW180776   9.094   0.484   7.250
26293SOL    HW280777   9.029   0.508   7.385
26294SOL     OW80778  12.468   3.761  13.801
26294SOL    HW180779  12.524   3.689  13.830
26294SOL    HW280780  12.476   3.762  13.706
26295SOL     OW80781  11.623   8.146  12.917
26295SOL    HW180782  11.582   8.201  12.984
26295SOL    HW280783  11.623   8.201  12.838
26296SOL     OW80784   3.802   4.940   1.441
26296SOL    HW180785   3.862   4.994   1.493
26296SOL    HW280786   3.773   4.871   1.500
26297SOL     OW80787  11.037   6.446   0.855
26297SOL    HW180788  10.941   6.444   0.856
26297SOL    HW280789  11.062   6.395   0.933
26298SOL     OW80790  10.098   6.852   1.559
26298SOL    HW180791  10.155   6.776   1.545
26298SOL    HW280792  10.094   6.862   1.654
26299SOL     OW80793   1.512  12.133   3.077
26299SOL    HW180794   1.422  12.166   3.078
26299SOL    HW280795   1.513  12.065   3.144
26300SOL     OW80796  10.806   0.917  12.930
26300SOL    HW180797  10.729   0.860  12.921
26300SOL    HW280798  10.879   0.864  12.901
26301SOL     OW80799   1.362  14.751   8.374
26301SOL    HW180800   1.313  14.684   8.421
26301SOL    HW280801   1.398  14.705   8.298
26302SOL     OW80802   9.727   6.350   2.846
26302SOL    HW180803   9.725   6.381   2.756
26302SOL    HW280804   9.819   6.336   2.865
26303SOL     OW80805   6.376   2.214   1.246
26303SOL    HW180806   6.333   2.293   1.278
26303SOL    HW280807   6.380   2.226   1.151
26304SOL     OW80808  14.189   8.089  13.671
26304SOL    HW180809  14.161   8.066  13.759
26304SOL    HW280810  14.108   8.088  13.619
26305SOL     OW80811  12.227   1.181  14.060
26305SOL    HW180812  12.218   1.089  14.087
26305SOL    HW280813  12.220   1.231  14.141
26306SOL     OW80814  12.374   9.136   1.690
26306SOL    HW180815  12.333   9.093   1.615
26306SOL    HW280816  12.378   9.069   1.758
26307SOL     OW80817  14.172   5.021  11.310
26307SOL    HW180818  14.178   5.029  11.215
26307SOL    HW280819  14.229   4.947  11.331
26308SOL     OW80820   9.210   7.262  14.689
26308SOL    HW180821   9.160   7.344  14.683
26308SOL    HW280822   9.262   7.272  14.768
26309SOL     OW80823   5.149  12.780   0.346
26309SOL    HW180824   5.239  12.768   0.315
26309SOL    HW280825   5.106  12.829   0.277
26310SOL     OW80826   0.552  13.401  12.096
26310SOL    HW180827   0.628  13.401  12.037
26310SOL    HW280828   0.488  13.457  12.052
26311SOL     OW80829   6.132   3.737  14.878
26311SOL    HW180830   6.056   3.787  14.847
26311SOL    HW280831   6.103   3.646  14.879
26312SOL     OW80832   5.888   7.416  14.826
26312SOL    HW180833   5.800   7.400  14.860
26312SOL    HW280834   5.915   7.332  14.790
26313SOL     OW80835  14.167  13.641   9.708
26313SOL    HW180836  14.100  13.614   9.770
26313SOL    HW280837  14.242  13.665   9.762
26314SOL     OW80838  14.147   5.917  10.693
26314SOL    HW180839  14.220   5.865  10.660
26314SOL    HW280840  14.118   5.968  10.617
26315SOL     OW80841  13.594   7.081  11.234
26315SOL    HW180842  13.518   7.120  11.278
26315SOL    HW280843  13.587   7.110  11.143
26316SOL     OW80844   8.292   5.457   1.845
26316SOL    HW180845   8.297   5.388   1.910
26316SOL    HW280846   8.383   5.482   1.829
26317SOL     OW80847  13.713   0.252   1.370
26317SOL    HW180848  13.662   0.177   1.399
26317SOL    HW280849  13.773   0.271   1.443
26318SOL     OW80850   0.005   3.516   3.103
26318SOL    HW180851  14.845   3.593   3.065
26318SOL    HW280852  14.827   3.444   3.086
26319SOL     OW80853  12.272   8.508   5.314
26319SOL    HW180854  12.194   8.453   5.307
26319SOL    HW280855  12.273   8.560   5.234
26320SOL     OW80856  14.373   2.369  13.292
26320SOL    HW180857  14.454   2.332  13.327
26320SOL    HW280858  14.352   2.441  13.350
26321SOL     OW80859  12.375  10.314   1.537
26321SOL    HW180860  12.286  10.299   1.505
26321SOL    HW280861  12.366  10.324   1.631
26322SOL     OW80862   0.988   1.544   8.308
26322SOL    HW180863   0.899   1.544   8.272
26322SOL    HW280864   1.020   1.455   8.293
26323SOL     OW80865  10.122   2.585   5.267
26323SOL    HW180866  10.057   2.612   5.203
26323SOL    HW280867  10.082   2.510   5.312
26324SOL     OW80868   8.063  11.098  11.917
26324SOL    HW180869   8.000  11.145  11.861
26324SOL    HW280870   8.131  11.068  11.856
26325SOL     OW80871  13.289   0.083  14.143
26325SOL    HW180872  13.229   0.149  14.177
26325SOL    HW280873  13.360   0.134  14.103
26326SOL     OW80874  10.068  11.703  10.211
26326SOL    HW180875  10.157  11.688  10.179
26326SOL    HW280876  10.057  11.640  10.282
26327SOL     OW80877   8.963   7.514   0.174
26327SOL    HW180878   8.958   7.580   0.106
26327SOL    HW280879   9.016   7.555   0.243
26328SOL     OW80880   4.702   2.735  10.620
26328SOL    HW180881   4.629   2.686  10.582
26328SOL    HW280882   4.683   2.826  10.599
26329SOL     OW80883   5.550  11.733   9.087
26329SOL    HW180884   5.527  11.704   9.175
26329SOL    HW280885   5.466  11.743   9.042
26330SOL     OW80886   8.941  14.260  11.322
26330SOL    HW180887   8.911  14.225  11.405
26330SOL    HW280888   8.872  14.320  11.295
26331SOL     OW80889   4.109  12.666  10.021
26331SOL    HW180890   4.054  12.737  10.053
26331SOL    HW280891   4.194  12.681  10.062
26332SOL     OW80892   2.407  11.375   3.878
26332SOL    HW180893   2.323  11.336   3.900
26332SOL    HW280894   2.412  11.454   3.933
26333SOL     OW80895  14.882  12.361   9.078
26333SOL    HW180896  14.836  12.410   9.146
26333SOL    HW280897  14.829  12.282   9.066
26334SOL     OW80898   2.687   7.416   2.362
26334SOL    HW180899   2.687   7.468   2.442
26334SOL    HW280900   2.594   7.401   2.343
26335SOL     OW80901   0.477  11.702   5.078
26335SOL    HW180902   0.447  11.707   4.987
26335SOL    HW280903   0.422  11.764   5.125
26336SOL     OW80904   9.275   9.542  10.732
26336SOL    HW180905   9.240   9.629  10.753
26336SOL    HW280906   9.213   9.506  10.669
26337SOL     OW80907   2.546   4.468   0.358
26337SOL    HW180908   2.495   4.474   0.439
26337SOL    HW280909   2.481   4.450   0.290
26338SOL     OW80910   4.851   0.510   4.962
26338SOL    HW180911   4.939   0.541   4.987
26338SOL    HW280912   4.862   0.417   4.943
26339SOL     OW80913   6.513   5.044   5.372
26339SOL    HW180914   6.557   4.984   5.312
26339SOL    HW280915   6.579   5.111   5.393
26340SOL     OW80916   9.125   9.671  12.872
26340SOL    HW180917   9.141   9.628  12.788
26340SOL    HW280918   9.128   9.765  12.852
26341SOL     OW80919   9.090  12.632   0.946
26341SOL    HW180920   9.156  12.696   0.975
26341SOL    HW280921   9.083  12.646   0.852
26342SOL     OW80922   4.034   3.076  13.952
26342SOL    HW180923   4.036   3.145  14.018
26342SOL    HW280924   3.951   3.030  13.967
26343SOL     OW80925   9.175   4.678   1.551
26343SOL    HW180926   9.106   4.617   1.526
26343SOL    HW280927   9.220   4.635   1.624
26344SOL     OW80928   9.841  12.859   0.628
26344SOL    HW180929   9.907  12.791   0.643
26344SOL    HW280930   9.817  12.850   0.536
26345SOL     OW80931   4.534   6.567   8.376
26345SOL    HW180932   4.596   6.579   8.304
26345SOL    HW280933   4.518   6.655   8.409
26346SOL     OW80934   9.519   1.036  12.841
26346SOL    HW180935   9.602   0.994  12.815
26346SOL    HW280936   9.460   1.019  12.767
26347SOL     OW80937   9.615   9.933   3.132
26347SOL    HW180938   9.618  10.021   3.093
26347SOL    HW280939   9.528   9.927   3.172
26348SOL     OW80940   1.831   2.073  11.699
26348SOL    HW180941   1.781   2.121  11.633
26348SOL    HW280942   1.900   2.029  11.650
26349SOL     OW80943   5.045   3.938   7.029
26349SOL    HW180944   5.084   3.924   6.942
26349SOL    HW280945   4.960   3.894   7.024
26350SOL     OW80946   7.315  14.099   4.185
26350SOL    HW180947   7.307  14.010   4.219
26350SOL    HW280948   7.400  14.130   4.216
26351SOL     OW80949   8.486   8.262   3.376
26351SOL    HW180950   8.405   8.241   3.423
26351SOL    HW280951   8.507   8.182   3.327
26352SOL     OW80952  13.677   0.052   1.710
26352SOL    HW180953  13.709  14.864   1.766
26352SOL    HW280954  13.582   0.052   1.723
26353SOL     OW80955   2.907   4.643  10.270
26353SOL    HW180956   2.860   4.718  10.234
26353SOL    HW280957   2.886   4.644  10.364
26354SOL     OW80958   6.041   3.805  12.758
26354SOL    HW180959   6.061   3.725  12.805
26354SOL    HW280960   5.962   3.839  12.800
26355SOL     OW80961   8.978   5.736   8.986
26355SOL    HW180962   8.985   5.792   9.063
26355SOL    HW280963   9.049   5.673   8.996
26356SOL     OW80964  12.375   1.601   2.548
26356SOL    HW180965  12.417   1.521   2.580
26356SOL    HW280966  12.371   1.658   2.625
26357SOL     OW80967   5.381  11.723   5.578
26357SOL    HW180968   5.434  11.785   5.629
26357SOL    HW280969   5.443  11.683   5.517
26358SOL     OW80970   1.840   3.357  10.630
26358SOL    HW180971   1.835   3.270  10.590
26358SOL    HW280972   1.754   3.395  10.615
26359SOL     OW80973  10.217   7.629   0.890
26359SOL    HW180974  10.231   7.594   0.802
26359SOL    HW280975  10.183   7.717   0.875
26360SOL     OW80976  13.376   0.603  14.663
26360SOL    HW180977  13.397   0.673  14.726
26360SOL    HW280978  13.452   0.600  14.605
26361SOL     OW80979  12.475  10.163  10.850
26361SOL    HW180980  12.540  10.096  10.830
26361SOL    HW280981  12.439  10.137  10.935
26362SOL     OW80982   1.748  13.414  10.290
26362SOL    HW180983   1.793  13.386  10.369
26362SOL    HW280984   1.794  13.494  10.263
26363SOL     OW80985   4.150   1.887   2.743
26363SOL    HW180986   4.219   1.953   2.750
26363SOL    HW280987   4.069   1.937   2.738
26364SOL     OW80988  13.334  14.777   9.137
26364SOL    HW180989  13.400  14.844   9.157
26364SOL    HW280990  13.378  14.718   9.076
26365SOL     OW80991   8.470   1.127   7.245
26365SOL    HW180992   8.508   1.147   7.331
26365SOL    HW280993   8.392   1.076   7.265
26366SOL     OW80994  12.485   3.728  13.524
26366SOL    HW180995  12.490   3.806  13.468
26366SOL    HW280996  12.391   3.708  13.527
26367SOL     OW80997  14.186   3.738   6.749
26367SOL    HW180998  14.271   3.758   6.788
26367SOL    HW280999  14.197   3.651   6.711
26368SOL     OW81000  13.317   8.300   7.185
26368SOL    HW181001  13.265   8.253   7.250
26368SOL    HW281002  13.407   8.277   7.205
26369SOL     OW81003   6.260  14.709   7.409
26369SOL    HW181004   6.266  14.650   7.333
26369SOL    HW281005   6.270  14.797   7.372
26370SOL     OW81006  10.433  10.572   4.034
26370SOL    HW181007  10.444  10.477   4.023
26370SOL    HW281008  10.393  10.581   4.121
26371SOL     OW81009   8.136  13.020   8.991
26371SOL    HW181010   8.069  12.974   9.041
26371SOL    HW281011   8.146  13.104   9.034
26372SOL     OW81012  13.378   8.806  14.411
26372SOL    HW181013  13.343   8.729  14.368
26372SOL    HW281014  13.471   8.787  14.423
26373SOL     OW81015   1.375   4.572   8.393
26373SOL    HW181016   1.428   4.649   8.374
26373SOL    HW281017   1.404   4.541   8.478
26374SOL     OW81018   0.006   6.530   7.081
26374SOL    HW181019  14.866   6.599   7.144
26374SOL    HW281020  14.857   6.564   6.997
26375SOL     OW81021   2.597   7.370   1.379
26375SOL    HW181022   2.645   7.396   1.458
26375SOL    HW281023   2.617   7.439   1.315
26376SOL     OW81024   3.840  12.494   9.685
26376SOL    HW181025   3.791  12.412   9.691
26376SOL    HW281026   3.790  12.556   9.739
26377SOL     OW81027   5.633  14.621   9.943
26377SOL    HW181028   5.595  14.703   9.976
26377SOL    HW281029   5.667  14.577  10.020
26378SOL     OW81030   5.517   9.268   1.684
26378SOL    HW181031   5.486   9.204   1.620
26378SOL    HW281032   5.601   9.233   1.713
26379SOL     OW81033  10.624  11.307   7.181
26379SOL    HW181034  10.665  11.355   7.253
26379SOL    HW281035  10.691  11.305   7.113
26380SOL     OW81036  13.368   8.828   3.831
26380SOL    HW181037  13.283   8.866   3.853
26380SOL    HW281038  13.405   8.888   3.766
26381SOL     OW81039   4.178   8.778  11.308
26381SOL    HW181040   4.138   8.718  11.370
26381SOL    HW281041   4.213   8.722  11.239
26382SOL     OW81042   5.377   5.227  12.710
26382SOL    HW181043   5.395   5.219  12.616
26382SOL    HW281044   5.387   5.320  12.728
26383SOL     OW81045  11.161   7.326   6.986
26383SOL    HW181046  11.069   7.304   6.996
26383SOL    HW281047  11.208   7.246   7.012
26384SOL     OW81048  11.770  13.084   5.451
26384SOL    HW181049  11.789  13.014   5.513
26384SOL    HW281050  11.684  13.061   5.416
26385SOL     OW81051   9.689  14.377   4.890
26385SOL    HW181052   9.611  14.370   4.944
26385SOL    HW281053   9.661  14.347   4.803
26386SOL     OW81054   7.943  13.909   4.919
26386SOL    HW181055   7.918  13.968   4.991
26386SOL    HW281056   7.996  13.964   4.861
26387SOL     OW81057   5.113   9.056  11.280
26387SOL    HW181058   5.193   9.108  11.290
26387SOL    HW281059   5.098   9.054  11.185
26388SOL     OW81060  14.780   6.106   2.240
26388SOL    HW181061  14.779   6.180   2.179
26388SOL    HW281062  14.871   6.099   2.269
26389SOL     OW81063   6.178  13.905  13.573
26389SOL    HW181064   6.146  13.827  13.618
26389SOL    HW281065   6.157  13.889  13.481
26390SOL     OW81066   0.672   2.777   4.153
26390SOL    HW181067   0.655   2.871   4.156
26390SOL    HW281068   0.762   2.770   4.121
26391SOL     OW81069   2.535   5.271   9.747
26391SOL    HW181070   2.621   5.231   9.757
26391SOL    HW281071   2.517   5.312   9.832
26392SOL     OW81072   1.077  10.429   2.422
26392SOL    HW181073   1.129  10.400   2.347
26392SOL    HW281074   1.137  10.425   2.496
26393SOL     OW81075   0.049   9.858   1.342
26393SOL    HW181076   0.035   9.904   1.259
26393SOL    HW281077   0.075   9.928   1.403
26394SOL     OW81078   8.465   9.100   6.113
26394SOL    HW181079   8.466   9.106   6.209
26394SOL    HW281080   8.513   9.177   6.084
26395SOL     OW81081  11.656   7.795   1.221
26395SOL    HW181082  11.746   7.809   1.253
26395SOL    HW281083  11.665   7.789   1.126
26396SOL     OW81084   5.994   0.594   7.940
26396SOL    HW181085   5.990   0.614   8.033
26396SOL    HW281086   6.067   0.647   7.907
26397SOL     OW81087  11.007   7.247   4.708
26397SOL    HW181088  10.983   7.330   4.748
26397SOL    HW281089  11.044   7.195   4.779
26398SOL     OW81090   4.823   0.817  12.413
26398SOL    HW181091   4.876   0.771  12.478
26398SOL    HW281092   4.732   0.798  12.438
26399SOL     OW81093   4.254   5.065   4.677
26399SOL    HW181094   4.224   5.152   4.650
26399SOL    HW281095   4.273   5.019   4.595
26400SOL     OW81096  13.019   7.172   8.619
26400SOL    HW181097  13.098   7.134   8.580
26400SOL    HW281098  13.051   7.247   8.669
26401SOL     OW81099   5.982  10.411   9.275
26401SOL    HW181100   6.040  10.427   9.349
26401SOL    HW281101   5.951  10.498   9.249
26402SOL     OW81102   9.105  10.762   4.341
26402SOL    HW181103   9.177  10.753   4.404
26402SOL    HW281104   9.125  10.698   4.273
26403SOL     OW81105   5.528  14.049  12.667
26403SOL    HW181106   5.473  14.025  12.742
26403SOL    HW281107   5.589  14.114  12.702
26404SOL     OW81108   6.246   1.638   6.225
26404SOL    HW181109   6.292   1.693   6.162
26404SOL    HW281110   6.294   1.555   6.223
26405SOL     OW81111   4.967  14.724   1.703
26405SOL    HW181112   4.969  14.628   1.708
26405SOL    HW281113   5.055  14.748   1.674
26406SOL     OW81114  10.019   8.146   7.038
26406SOL    HW181115   9.937   8.187   7.065
26406SOL    HW281116  10.086   8.184   7.095
26407SOL     OW81117   2.585   3.135   8.021
26407SOL    HW181118   2.596   3.053   8.069
26407SOL    HW281119   2.496   3.163   8.040
26408SOL     OW81120   8.795   6.944   1.114
26408SOL    HW181121   8.842   7.019   1.079
26408SOL    HW281122   8.703   6.968   1.108
26409SOL     OW81123   8.301   9.362   1.591
26409SOL    HW181124   8.351   9.291   1.632
26409SOL    HW281125   8.336   9.442   1.631
26410SOL     OW81126  14.381  12.802   0.349
26410SOL    HW181127  14.468  12.761   0.347
26410SOL    HW281128  14.329  12.749   0.289
26411SOL     OW81129   8.114  13.614   2.220
26411SOL    HW181130   8.183  13.547   2.220
26411SOL    HW281131   8.033  13.565   2.213
26412SOL     OW81132   0.149   9.276   0.226
26412SOL    HW181133   0.134   9.210   0.159
26412SOL    HW281134   0.064   9.316   0.241
26413SOL     OW81135   1.322   2.382  10.054
26413SOL    HW181136   1.319   2.384  10.150
26413SOL    HW281137   1.387   2.314  10.034
26414SOL     OW81138   6.188   1.704  12.246
26414SOL    HW181139   6.143   1.787  12.255
26414SOL    HW281140   6.196   1.691  12.151
26415SOL     OW81141   7.622   6.137   9.882
26415SOL    HW181142   7.530   6.113   9.895
26415SOL    HW281143   7.649   6.086   9.805
26416SOL     OW81144  12.190   2.126   6.892
26416SOL    HW181145  12.226   2.155   6.976
26416SOL    HW281146  12.105   2.089   6.913
26417SOL     OW81147   1.779  12.046  12.373
26417SOL    HW181148   1.869  12.020  12.395
26417SOL    HW281149   1.786  12.139  12.352
26418SOL     OW81150   8.150   9.693   0.158
26418SOL    HW181151   8.104   9.651   0.231
26418SOL    HW281152   8.233   9.645   0.151
26419SOL     OW81153   7.965   6.645  13.733
26419SOL    HW181154   7.905   6.577  13.766
26419SOL    HW281155   8.020   6.599  13.669
26420SOL     OW81156   1.716  10.031  10.434
26420SOL    HW181157   1.713   9.958  10.373
26420SOL    HW281158   1.664  10.001  10.509
26421SOL     OW81159  13.729   3.807   4.681
26421SOL    HW181160  13.783   3.777   4.608
26421SOL    HW281161  13.773   3.776   4.759
26422SOL     OW81162   6.100  12.151   5.349
26422SOL    HW181163   6.140  12.213   5.288
26422SOL    HW281164   6.018  12.125   5.307
26423SOL     OW81165   6.608   3.208   2.313
26423SOL    HW181166   6.572   3.129   2.272
26423SOL    HW281167   6.589   3.278   2.251
26424SOL     OW81168  14.707  12.266  14.083
26424SOL    HW181169  14.784  12.323  14.088
26424SOL    HW281170  14.649  12.310  14.022
26425SOL     OW81171   0.127  10.186  10.345
26425SOL    HW181172   0.086  10.102  10.323
26425SOL    HW281173   0.094  10.247  10.280
26426SOL     OW81174  13.315   4.321  12.584
26426SOL    HW181175  13.242   4.374  12.552
26426SOL    HW281176  13.339   4.266  12.509
26427SOL     OW81177  13.168   4.162   4.584
26427SOL    HW181178  13.204   4.139   4.670
26427SOL    HW281179  13.206   4.097   4.524
26428SOL     OW81180  12.418   0.418   3.373
26428SOL    HW181181  12.342   0.360   3.374
26428SOL    HW281182  12.487   0.367   3.330
26429SOL     OW81183   0.368  14.679   0.249
26429SOL    HW181184   0.335  14.766   0.228
26429SOL    HW281185   0.463  14.687   0.245
26430SOL     OW81186   3.429   1.067  10.205
26430SOL    HW181187   3.438   0.972  10.202
26430SOL    HW281188   3.336   1.081  10.223
26431SOL     OW81189  14.426  11.256   8.652
26431SOL    HW181190  14.332  11.262   8.671
26431SOL    HW281191  14.468  11.294   8.729
26432SOL     OW81192   2.805  13.745   8.329
26432SOL    HW181193   2.714  13.717   8.327
26432SOL    HW281194   2.801  13.840   8.335
26433SOL     OW81195   8.841   8.715  14.834
26433SOL    HW181196   8.844   8.769  14.755
26433SOL    HW281197   8.849   8.778   0.024
26434SOL     OW81198  12.374   7.804   5.428
26434SOL    HW181199  12.442   7.792   5.494
26434SOL    HW281200  12.414   7.774   5.347
26435SOL     OW81201   3.290  10.997   9.123
26435SOL    HW181202   3.238  10.916   9.121
26435SOL    HW281203   3.378  10.968   9.146
26436SOL     OW81204  11.547   8.538   3.707
26436SOL    HW181205  11.605   8.611   3.731
26436SOL    HW281206  11.559   8.527   3.613
26437SOL     OW81207  14.409   9.810   7.587
26437SOL    HW181208  14.405   9.865   7.665
26437SOL    HW281209  14.395   9.721   7.619
26438SOL     OW81210   1.246   3.363   9.637
26438SOL    HW181211   1.311   3.430   9.655
26438SOL    HW281212   1.222   3.330   9.724
26439SOL     OW81213  11.921  14.023  14.120
26439SOL    HW181214  11.895  14.076  14.045
26439SOL    HW281215  11.993  14.072  14.160
26440SOL     OW81216  13.188  12.058   1.426
26440SOL    HW181217  13.115  12.028   1.371
26440SOL    HW281218  13.248  11.983   1.429
26441SOL     OW81219  10.439   9.761   2.219
26441SOL    HW181220  10.350   9.726   2.220
26441SOL    HW281221  10.476   9.731   2.136
26442SOL     OW81222  14.614   8.067   7.903
26442SOL    HW181223  14.708   8.050   7.905
26442SOL    HW281224  14.575   7.980   7.893
26443SOL     OW81225   7.599   3.298   5.935
26443SOL    HW181226   7.618   3.390   5.954
26443SOL    HW281227   7.524   3.300   5.876
26444SOL     OW81228   3.145   4.716  10.435
26444SOL    HW181229   3.224   4.670  10.408
26444SOL    HW281230   3.080   4.693  10.369
26445SOL     OW81231   2.032   8.342   2.878
26445SOL    HW181232   1.997   8.282   2.812
26445SOL    HW281233   2.109   8.381   2.836
26446SOL     OW81234   1.380   4.800   7.744
26446SOL    HW181235   1.455   4.742   7.751
26446SOL    HW281236   1.417   4.888   7.749
26447SOL     OW81237  10.853   5.543  13.011
26447SOL    HW181238  10.790   5.559  12.940
26447SOL    HW281239  10.924   5.604  12.993
26448SOL     OW81240  11.317   2.016   5.758
26448SOL    HW181241  11.300   2.087   5.696
26448SOL    HW281242  11.241   1.959   5.750
26449SOL     OW81243   8.472   6.060   0.561
26449SOL    HW181244   8.518   5.976   0.571
26449SOL    HW281245   8.523   6.121   0.614
26450SOL     OW81246   2.538   0.536  12.288
26450SOL    HW181247   2.507   0.532  12.378
26450SOL    HW281248   2.624   0.578  12.294
26451SOL     OW81249   1.063   8.271  14.134
26451SOL    HW181250   1.053   8.291  14.227
26451SOL    HW281251   1.019   8.343  14.089
26452SOL     OW81252  12.535   8.421   5.550
26452SOL    HW181253  12.536   8.356   5.480
26452SOL    HW281254  12.447   8.416   5.587
26453SOL     OW81255   0.015   9.620   9.943
26453SOL    HW181256   0.001   9.537   9.897
26453SOL    HW281257  14.823   9.675   9.918
26454SOL     OW81258   7.819  10.949   5.739
26454SOL    HW181259   7.823  10.879   5.804
26454SOL    HW281260   7.851  10.909   5.658
26455SOL     OW81261   4.505   1.400   6.392
26455SOL    HW181262   4.470   1.328   6.341
26455SOL    HW281263   4.598   1.380   6.403
26456SOL     OW81264   2.082   9.060  11.987
26456SOL    HW181265   2.125   9.144  12.003
26456SOL    HW281266   2.062   9.060  11.894
26457SOL     OW81267   3.014  10.773  11.455
26457SOL    HW181268   3.011  10.721  11.374
26457SOL    HW281269   3.088  10.737  11.504
26458SOL     OW81270   7.933   1.899  13.485
26458SOL    HW181271   7.973   1.915  13.570
26458SOL    HW281272   7.999   1.928  13.421
26459SOL     OW81273  10.251  13.921  11.478
26459SOL    HW181274  10.193  13.845  11.472
26459SOL    HW281275  10.239  13.954  11.567
26460SOL     OW81276   2.771   8.518   9.107
26460SOL    HW181277   2.791   8.506   9.014
26460SOL    HW281278   2.817   8.598   9.131
26461SOL     OW81279   9.694   3.301   3.222
26461SOL    HW181280   9.677   3.388   3.187
26461SOL    HW281281   9.741   3.255   3.152
26462SOL     OW81282  11.624   1.034  12.671
26462SOL    HW181283  11.573   1.115  12.668
26462SOL    HW281284  11.695   1.049  12.609
26463SOL     OW81285  12.361  14.074   9.553
26463SOL    HW181286  12.292  14.057   9.489
26463SOL    HW281287  12.376  13.990   9.595
26464SOL     OW81288  11.638  12.690   0.629
26464SOL    HW181289  11.714  12.726   0.674
26464SOL    HW281290  11.565  12.706   0.688
26465SOL     OW81291   9.325   1.906   0.734
26465SOL    HW181292   9.370   1.950   0.662
26465SOL    HW281293   9.269   1.841   0.691
26466SOL     OW81294   3.568   5.475   3.424
26466SOL    HW181295   3.635   5.517   3.479
26466SOL    HW281296   3.527   5.548   3.378
26467SOL     OW81297  14.449   0.313  11.653
26467SOL    HW181298  14.363   0.354  11.652
26467SOL    HW281299  14.476   0.311  11.562
26468SOL     OW81300   9.811   7.885   8.583
26468SOL    HW181301   9.721   7.852   8.582
26468SOL    HW281302   9.809   7.958   8.644
26469SOL     OW81303   8.125   7.759   7.703
26469SOL    HW181304   8.204   7.809   7.681
26469SOL    HW281305   8.079   7.813   7.767
26470SOL     OW81306   7.005   7.000   2.995
26470SOL    HW181307   7.064   6.950   2.938
26470SOL    HW281308   6.923   7.006   2.945
26471SOL     OW81309   7.174   8.639  12.788
26471SOL    HW181310   7.243   8.582  12.821
26471SOL    HW281311   7.161   8.705  12.856
26472SOL     OW81312  10.888  13.205  12.815
26472SOL    HW181313  10.947  13.231  12.745
26472SOL    HW281314  10.867  13.287  12.860
26473SOL     OW81315   0.594   2.321   7.726
26473SOL    HW181316   0.590   2.408   7.687
26473SOL    HW281317   0.563   2.262   7.657
26474SOL     OW81318  11.391  12.429   7.777
26474SOL    HW181319  11.461  12.457   7.835
26474SOL    HW281320  11.428  12.356   7.728
26475SOL     OW81321   0.535  11.322   8.812
26475SOL    HW181322   0.527  11.264   8.736
26475SOL    HW281323   0.482  11.281   8.880
26476SOL     OW81324   9.194   9.558   8.835
26476SOL    HW181325   9.190   9.543   8.930
26476SOL    HW281326   9.104   9.577   8.810
26477SOL     OW81327   5.865  13.666   2.582
26477SOL    HW181328   5.901  13.723   2.514
26477SOL    HW281329   5.886  13.711   2.664
26478SOL     OW81330  13.160  14.214   2.953
26478SOL    HW181331  13.111  14.193   3.032
26478SOL    HW281332  13.110  14.173   2.882
26479SOL     OW81333   1.265   8.765   0.337
26479SOL    HW181334   1.249   8.755   0.431
26479SOL    HW281335   1.179   8.781   0.299
26480SOL     OW81336   7.251   8.443  13.847
26480SOL    HW181337   7.261   8.501  13.922
26480SOL    HW281338   7.276   8.497  13.772
26481SOL     OW81339   5.113   2.577   8.443
26481SOL    HW181340   5.077   2.665   8.439
26481SOL    HW281341   5.037   2.521   8.464
26482SOL     OW81342   0.964   3.719   6.481
26482SOL    HW181343   0.935   3.636   6.519
26482SOL    HW281344   0.954   3.782   6.552
26483SOL     OW81345  13.616   7.979   6.947
26483SOL    HW181346  13.521   7.987   6.943
26483SOL    HW281347  13.636   7.900   6.898
26484SOL     OW81348   8.231   8.189   7.173
26484SOL    HW181349   8.250   8.201   7.080
26484SOL    HW281350   8.185   8.269   7.199
26485SOL     OW81351  12.025   5.821  10.808
26485SOL    HW181352  12.106   5.791  10.768
26485SOL    HW281353  11.990   5.743  10.853
26486SOL     OW81354   6.197   7.449   7.903
26486SOL    HW181355   6.201   7.475   7.811
26486SOL    HW281356   6.277   7.485   7.942
26487SOL     OW81357   7.323   8.159   4.238
26487SOL    HW181358   7.416   8.139   4.226
26487SOL    HW281359   7.303   8.220   4.168
26488SOL     OW81360   4.516   2.265   6.872
26488SOL    HW181361   4.453   2.303   6.811
26488SOL    HW281362   4.601   2.295   6.841
26489SOL     OW81363   8.553   3.032   8.435
26489SOL    HW181364   8.595   3.087   8.369
26489SOL    HW281365   8.526   3.093   8.503
26490SOL     OW81366   6.613   0.519  11.567
26490SOL    HW181367   6.604   0.467  11.646
26490SOL    HW281368   6.570   0.602  11.587
26491SOL     OW81369   1.795   1.571   2.756
26491SOL    HW181370   1.727   1.506   2.778
26491SOL    HW281371   1.804   1.625   2.834
26492SOL     OW81372  11.234   9.454   6.885
26492SOL    HW181373  11.172   9.475   6.815
26492SOL    HW281374  11.186   9.473   6.966
26493SOL     OW81375  13.728   5.151   2.439
26493SOL    HW181376  13.805   5.171   2.384
26493SOL    HW281377  13.762   5.091   2.505
26494SOL     OW81378   1.715   6.259  11.974
26494SOL    HW181379   1.810   6.270  11.972
26494SOL    HW281380   1.688   6.267  11.882
26495SOL     OW81381   6.116   4.016   8.177
26495SOL    HW181382   6.069   3.994   8.257
26495SOL    HW281383   6.096   4.109   8.163
26496SOL     OW81384   4.115  14.116   1.516
26496SOL    HW181385   4.089  14.062   1.590
26496SOL    HW281386   4.152  14.195   1.556
26497SOL     OW81387   1.823  14.542   3.904
26497SOL    HW181388   1.771  14.615   3.938
26497SOL    HW281389   1.904  14.546   3.956
26498SOL     OW81390   3.032   9.960   0.766
26498SOL    HW181391   3.048  10.055   0.770
26498SOL    HW281392   3.105   9.922   0.815
26499SOL     OW81393  11.715  14.367  12.350
26499SOL    HW181394  11.685  14.455  12.373
26499SOL    HW281395  11.641  14.310  12.371
26500SOL     OW81396   8.776   0.478  12.694
26500SOL    HW181397   8.779   0.494  12.789
26500SOL    HW281398   8.760   0.384  12.686
26501SOL     OW81399   3.406   5.092   8.392
26501SOL    HW181400   3.383   5.102   8.300
26501SOL    HW281401   3.326   5.112   8.440
26502SOL     OW81402   2.582   8.456  12.736
26502SOL    HW181403   2.536   8.537  12.758
26502SOL    HW281404   2.657   8.484  12.684
26503SOL     OW81405  10.234  12.365  11.862
26503SOL    HW181406  10.182  12.445  11.856
26503SOL    HW281407  10.273  12.355  11.775
26504SOL     OW81408   1.570  11.528  12.019
26504SOL    HW181409   1.475  11.538  12.019
26504SOL    HW281410   1.604  11.617  12.012
26505SOL     OW81411  14.418   1.033   9.449
26505SOL    HW181412  14.359   1.033   9.374
26505SOL    HW281413  14.489   1.093   9.424
26506SOL     OW81414  13.131  14.504   6.810
26506SOL    HW181415  13.151  14.594   6.836
26506SOL    HW281416  13.216  14.465   6.789
26507SOL     OW81417   6.621   9.049   1.482
26507SOL    HW181418   6.644   9.044   1.389
26507SOL    HW281419   6.526   9.058   1.483
26508SOL     OW81420  14.658   0.570  12.000
26508SOL    HW181421  14.642   0.559  12.094
26508SOL    HW281422  14.575   0.549  11.958
26509SOL     OW81423   2.762   3.733   3.984
26509SOL    HW181424   2.845   3.774   4.006
26509SOL    HW281425   2.785   3.656   3.933
26510SOL     OW81426   7.495   8.953   5.821
26510SOL    HW181427   7.444   8.872   5.816
26510SOL    HW281428   7.440   9.012   5.873
26511SOL     OW81429  13.282   4.972  13.441
26511SOL    HW181430  13.208   4.936  13.392
26511SOL    HW281431  13.261   5.064  13.452
26512SOL     OW81432   8.817  13.814   0.768
26512SOL    HW181433   8.760  13.864   0.709
26512SOL    HW281434   8.867  13.756   0.711
26513SOL     OW81435   1.713  14.528   4.946
26513SOL    HW181436   1.771  14.464   4.989
26513SOL    HW281437   1.626  14.506   4.979
26514SOL     OW81438   8.875  10.829  12.489
26514SOL    HW181439   8.817  10.758  12.519
26514SOL    HW281440   8.872  10.822  12.393
26515SOL     OW81441   0.028   0.582  13.096
26515SOL    HW181442  14.843   0.558  13.159
26515SOL    HW281443   0.046   0.502  13.048
26516SOL     OW81444   2.024  11.383  11.682
26516SOL    HW181445   1.960  11.424  11.624
26516SOL    HW281446   2.036  11.295  11.646
26517SOL     OW81447  10.358   3.092   7.692
26517SOL    HW181448  10.408   3.016   7.720
26517SOL    HW281449  10.291   3.056   7.633
26518SOL     OW81450  11.841   5.896  13.202
26518SOL    HW181451  11.825   5.803  13.185
26518SOL    HW281452  11.911   5.920  13.141
26519SOL     OW81453   6.190   2.144   4.821
26519SOL    HW181454   6.192   2.057   4.862
26519SOL    HW281455   6.122   2.191   4.869
26520SOL     OW81456  11.236   3.809   0.171
26520SOL    HW181457  11.182   3.861   0.112
26520SOL    HW281458  11.274   3.872   0.232
26521SOL     OW81459   4.352  11.583  12.872
26521SOL    HW181460   4.428  11.529  12.895
26521SOL    HW281461   4.377  11.627  12.791
26522SOL     OW81462  13.594   7.706   2.364
26522SOL    HW181463  13.574   7.700   2.457
26522SOL    HW281464  13.585   7.800   2.344
26523SOL     OW81465   0.635  13.741   3.223
26523SOL    HW181466   0.664  13.669   3.279
26523SOL    HW281467   0.556  13.708   3.179
26524SOL     OW81468   3.552   0.244   4.429
26524SOL    HW181469   3.607   0.174   4.463
26524SOL    HW281470   3.538   0.222   4.337
26525SOL     OW81471   5.137   1.784   8.135
26525SOL    HW181472   5.221   1.767   8.091
26525SOL    HW281473   5.161   1.834   8.213
26526SOL     OW81474  10.643   1.131   3.451
26526SOL    HW181475  10.565   1.078   3.439
26526SOL    HW281476  10.612   1.221   3.447
26527SOL     OW81477   7.484   1.797  11.709
26527SOL    HW181478   7.479   1.710  11.671
26527SOL    HW281479   7.410   1.802  11.769
26528SOL     OW81480   2.055   8.883  14.602
26528SOL    HW181481   2.137   8.871  14.554
26528SOL    HW281482   2.001   8.938  14.546
26529SOL     OW81483   5.481   4.924  10.915
26529SOL    HW181484   5.564   4.967  10.892
26529SOL    HW281485   5.507   4.847  10.965
26530SOL     OW81486   6.685  11.358  10.856
26530SOL    HW181487   6.617  11.398  10.801
26530SOL    HW281488   6.715  11.283  10.805
26531SOL     OW81489  10.683  12.197   1.051
26531SOL    HW181490  10.603  12.175   1.004
26531SOL    HW281491  10.753  12.182   0.988
26532SOL     OW81492  10.913   4.938   3.179
26532SOL    HW181493  10.908   4.978   3.265
26532SOL    HW281494  10.894   4.845   3.194
26533SOL     OW81495   1.507   6.499   0.101
26533SOL    HW181496   1.418   6.523   0.074
26533SOL    HW281497   1.564   6.546   0.039
26534SOL     OW81498  14.375  12.004  13.503
26534SOL    HW181499  14.405  12.076  13.449
26534SOL    HW281500  14.455  11.958  13.529
26535SOL     OW81501   9.919   9.186  14.031
26535SOL    HW181502   9.957   9.245  13.966
26535SOL    HW281503   9.851   9.139  13.984
26536SOL     OW81504   5.239   1.309   1.732
26536SOL    HW181505   5.245   1.215   1.749
26536SOL    HW281506   5.167   1.338   1.789
26537SOL     OW81507  10.938   7.116   8.042
26537SOL    HW181508  10.881   7.186   8.073
26537SOL    HW281509  11.012   7.161   8.001
26538SOL     OW81510   6.760   9.045  13.030
26538SOL    HW181511   6.692   9.107  13.001
26538SOL    HW281512   6.730   9.016  13.116
26539SOL     OW81513   3.971   5.399  10.658
26539SOL    HW181514   4.050   5.371  10.612
26539SOL    HW281515   3.992   5.389  10.751
26540SOL     OW81516   9.813   9.091   4.155
26540SOL    HW181517   9.785   9.050   4.074
26540SOL    HW281518   9.880   9.032   4.190
26541SOL     OW81519   6.907   4.626  13.054
26541SOL    HW181520   6.968   4.649  12.984
26541SOL    HW281521   6.902   4.705  13.108
26542SOL     OW81522   0.565   3.571  11.746
26542SOL    HW181523   0.648   3.554  11.704
26542SOL    HW281524   0.570   3.523  11.829
26543SOL     OW81525   4.640   3.353   8.034
26543SOL    HW181526   4.665   3.415   7.966
26543SOL    HW281527   4.557   3.387   8.067
26544SOL     OW81528   3.007   8.757   3.220
26544SOL    HW181529   2.915   8.769   3.196
26544SOL    HW281530   3.017   8.807   3.301
26545SOL     OW81531  14.644   0.678   7.217
26545SOL    HW181532  14.669   0.765   7.184
26545SOL    HW281533  14.565   0.695   7.269
26546SOL     OW81534   2.002   5.840   9.965
26546SOL    HW181535   1.952   5.759   9.956
26546SOL    HW281536   2.091   5.817   9.939
26547SOL     OW81537  10.622   0.751  12.845
26547SOL    HW181538  10.553   0.776  12.783
26547SOL    HW281539  10.645   0.661  12.820
26548SOL     OW81540  11.579  12.402  10.604
26548SOL    HW181541  11.513  12.333  10.601
26548SOL    HW281542  11.608  12.404  10.695
26549SOL     OW81543   9.209  13.305  14.066
26549SOL    HW181544   9.229  13.398  14.072
26549SOL    HW281545   9.113  13.302  14.069
26550SOL     OW81546   2.139   9.322   4.091
26550SOL    HW181547   2.193   9.314   4.170
26550SOL    HW281548   2.164   9.406   4.053
26551SOL     OW81549   8.218  13.633   8.651
26551SOL    HW181550   8.240  13.661   8.740
26551SOL    HW281551   8.145  13.690   8.626
26552SOL     OW81552  14.205   1.171  13.706
26552SOL    HW181553  14.231   1.219  13.628
26552SOL    HW281554  14.269   1.197  13.773
26553SOL     OW81555   6.748   0.318  11.378
26553SOL    HW181556   6.755   0.343  11.286
26553SOL    HW281557   6.685   0.379  11.415
26554SOL     OW81558   7.118   6.960   3.682
26554SOL    HW181559   7.031   7.000   3.687
26554SOL    HW281560   7.104   6.877   3.638
26555SOL     OW81561   5.476  12.831   7.286
26555SOL    HW181562   5.566  12.843   7.317
26555SOL    HW281563   5.450  12.917   7.252
26556SOL     OW81564  12.932   1.526   9.955
26556SOL    HW181565  12.838   1.542   9.956
26556SOL    HW281566  12.953   1.510   9.863
26557SOL     OW81567   3.727  13.658  12.963
26557SOL    HW181568   3.674  13.686  12.888
26557SOL    HW281569   3.747  13.566  12.946
26558SOL     OW81570   5.440  11.843   0.530
26558SOL    HW181571   5.450  11.918   0.471
26558SOL    HW281572   5.515  11.786   0.511
26559SOL     OW81573   3.364  14.764  14.517
26559SOL    HW181574   3.275  14.737  14.540
26559SOL    HW281575   3.402  14.793  14.600
26560SOL     OW81576  13.116   3.375   4.699
26560SOL    HW181577  13.184   3.322   4.658
26560SOL    HW281578  13.111   3.455   4.646
26561SOL     OW81579  12.902   9.425  13.699
26561SOL    HW181580  12.869   9.468  13.620
26561SOL    HW281581  12.842   9.352  13.713
26562SOL     OW81582  14.570   3.141   1.042
26562SOL    HW181583  14.651   3.182   1.073
26562SOL    HW281584  14.522   3.212   1.000
26563SOL     OW81585  14.400   0.401  10.517
26563SOL    HW181586  14.344   0.429  10.445
26563SOL    HW281587  14.343   0.398  10.594
26564SOL     OW81588   5.146   5.328   9.079
26564SOL    HW181589   5.051   5.310   9.080
26564SOL    HW281590   5.161   5.381   9.157
26565SOL     OW81591  13.583  14.001  11.444
26565SOL    HW181592  13.493  14.006  11.476
26565SOL    HW281593  13.618  14.089  11.456
26566SOL     OW81594   0.656  12.479   7.514
26566SOL    HW181595   0.663  12.384   7.516
26566SOL    HW281596   0.615  12.498   7.429
26567SOL     OW81597   2.182   4.541   6.029
26567SOL    HW181598   2.181   4.633   6.054
26567SOL    HW281599   2.126   4.498   6.093
26568SOL     OW81600   8.131   2.067  11.957
26568SOL    HW181601   8.036   2.078  11.958
26568SOL    HW281602   8.146   1.985  12.004
26569SOL     OW81603   1.283   5.163   3.100
26569SOL    HW181604   1.322   5.196   3.181
26569SOL    HW281605   1.274   5.069   3.115
26570SOL     OW81606   5.147   9.434  10.784
26570SOL    HW181607   5.217   9.369  10.782
26570SOL    HW281608   5.067   9.383  10.772
26571SOL     OW81609  13.027   4.038   5.411
26571SOL    HW181610  12.977   3.964   5.377
26571SOL    HW281611  13.092   3.998   5.469
26572SOL     OW81612  13.020  13.817   4.958
26572SOL    HW181613  12.966  13.739   4.950
26572SOL    HW281614  13.110  13.786   4.945
26573SOL     OW81615   3.063   9.386   1.489
26573SOL    HW181616   2.986   9.336   1.461
26573SOL    HW281617   3.031   9.475   1.502
26574SOL     OW81618  13.445   5.776  12.144
26574SOL    HW181619  13.354   5.755  12.162
26574SOL    HW281620  13.492   5.693  12.152
26575SOL     OW81621  14.527  14.248  11.315
26575SOL    HW181622  14.575  14.326  11.288
26575SOL    HW281623  14.510  14.201  11.234
26576SOL     OW81624   4.215   9.441  14.234
26576SOL    HW181625   4.294   9.424  14.182
26576SOL    HW281626   4.154   9.481  14.171
26577SOL     OW81627  10.568   3.780   8.946
26577SOL    HW181628  10.658   3.748   8.940
26577SOL    HW281629  10.517   3.717   8.894
26578SOL     OW81630   3.716   2.119   6.061
26578SOL    HW181631   3.666   2.201   6.055
26578SOL    HW281632   3.759   2.124   6.146
26579SOL     OW81633   0.975   4.869   2.785
26579SOL    HW181634   0.949   4.935   2.721
26579SOL    HW281635   0.904   4.805   2.783
26580SOL     OW81636   7.621   6.327   8.856
26580SOL    HW181637   7.543   6.352   8.806
26580SOL    HW281638   7.606   6.363   8.943
26581SOL     OW81639  10.306   7.927  11.047
26581SOL    HW181640  10.349   7.849  11.083
26581SOL    HW281641  10.369   7.998  11.062
26582SOL     OW81642  10.862  14.514   0.499
26582SOL    HW181643  10.912  14.518   0.581
26582SOL    HW281644  10.796  14.584   0.508
26583SOL     OW81645   3.249   4.713   7.715
26583SOL    HW181646   3.253   4.638   7.774
26583SOL    HW281647   3.340   4.743   7.708
26584SOL     OW81648   2.411   0.275  11.960
26584SOL    HW181649   2.405   0.201  11.899
26584SOL    HW281650   2.502   0.272  11.992
26585SOL     OW81651  14.594   2.285   8.221
26585SOL    HW181652  14.522   2.341   8.247
26585SOL    HW281653  14.672   2.326   8.260
26586SOL     OW81654  11.132   7.422  13.076
26586SOL    HW181655  11.170   7.454  13.158
26586SOL    HW281656  11.166   7.332  13.068
26587SOL     OW81657   4.642   8.776  11.768
26587SOL    HW181658   4.622   8.791  11.860
26587SOL    HW281659   4.726   8.820  11.754
26588SOL     OW81660   1.987   9.904   8.043
26588SOL    HW181661   2.061   9.911   8.102
26588SOL    HW281662   1.989   9.813   8.012
26589SOL     OW81663   0.782  10.449   3.778
26589SOL    HW181664   0.815  10.421   3.693
26589SOL    HW281665   0.691  10.420   3.780
26590SOL     OW81666   2.797   5.704  13.864
26590SOL    HW181667   2.782   5.729  13.955
26590SOL    HW281668   2.856   5.629  13.870
26591SOL     OW81669   7.637   3.949  10.262
26591SOL    HW181670   7.673   3.879  10.208
26591SOL    HW281671   7.664   3.928  10.351
26592SOL     OW81672   5.261  12.217   7.278
26592SOL    HW181673   5.299  12.130   7.288
26592SOL    HW281674   5.292  12.248   7.193
26593SOL     OW81675   8.856  11.613  10.489
26593SOL    HW181676   8.882  11.571  10.407
26593SOL    HW281677   8.864  11.544  10.554
26594SOL     OW81678  11.175  13.587   3.220
26594SOL    HW181679  11.240  13.521   3.196
26594SOL    HW281680  11.129  13.607   3.139
26595SOL     OW81681  10.452   1.163   2.156
26595SOL    HW181682  10.439   1.072   2.182
26595SOL    HW281683  10.406   1.214   2.223
26596SOL     OW81684  10.346  11.705   4.352
26596SOL    HW181685  10.298  11.626   4.326
26596SOL    HW281686  10.381  11.685   4.439
26597SOL     OW81687   2.951   8.568  11.362
26597SOL    HW181688   3.012   8.499  11.387
26597SOL    HW281689   2.932   8.552  11.270
26598SOL     OW81690   3.598  10.959  13.588
26598SOL    HW181691   3.601  11.015  13.510
26598SOL    HW281692   3.659  10.888  13.568
26599SOL     OW81693   0.143   9.133  13.410
26599SOL    HW181694   0.111   9.218  13.441
26599SOL    HW281695   0.230   9.152  13.375
26600SOL     OW81696   2.823  11.629   1.721
26600SOL    HW181697   2.893  11.591   1.774
26600SOL    HW281698   2.844  11.601   1.631
26601SOL     OW81699  14.454   8.482   9.512
26601SOL    HW181700  14.485   8.395   9.485
26601SOL    HW281701  14.481   8.539   9.440
26602SOL     OW81702   2.889   7.486   6.130
26602SOL    HW181703   2.909   7.497   6.223
26602SOL    HW281704   2.916   7.569   6.090
26603SOL     OW81705   8.766  13.209   5.970
26603SOL    HW181706   8.785  13.196   6.062
26603SOL    HW281707   8.686  13.159   5.955
26604SOL     OW81708   6.281  10.913  10.104
26604SOL    HW181709   6.305  10.942  10.015
26604SOL    HW281710   6.187  10.929  10.109
26605SOL     OW81711  14.561   4.591  14.229
26605SOL    HW181712  14.651   4.609  14.202
26605SOL    HW281713  14.527   4.675  14.258
26606SOL     OW81714   6.694   3.357   4.470
26606SOL    HW181715   6.702   3.333   4.377
26606SOL    HW281716   6.778   3.397   4.491
26607SOL     OW81717   5.102   8.124   1.421
26607SOL    HW181718   5.098   8.030   1.406
26607SOL    HW281719   5.019   8.158   1.387
26608SOL     OW81720   6.993  12.749  13.851
26608SOL    HW181721   6.925  12.695  13.811
26608SOL    HW281722   6.989  12.727  13.944
26609SOL     OW81723   7.231  14.075   6.119
26609SOL    HW181724   7.244  14.122   6.201
26609SOL    HW281725   7.292  14.116   6.058
26610SOL     OW81726   9.734   2.997   2.333
26610SOL    HW181727   9.756   2.966   2.421
26610SOL    HW281728   9.639   3.006   2.334
26611SOL     OW81729  14.432   8.818   7.258
26611SOL    HW181730  14.438   8.765   7.178
26611SOL    HW281731  14.457   8.906   7.230
26612SOL     OW81732   7.868   7.432  13.553
26612SOL    HW181733   7.942   7.469  13.504
26612SOL    HW281734   7.908   7.388  13.628
26613SOL     OW81735   8.958   3.113   6.631
26613SOL    HW181736   8.902   3.159   6.694
26613SOL    HW281737   9.011   3.054   6.684
26614SOL     OW81738   8.100   9.760  11.495
26614SOL    HW181739   8.170   9.784  11.555
26614SOL    HW281740   8.098   9.830  11.430
26615SOL     OW81741  11.668   2.437   3.054
26615SOL    HW181742  11.708   2.519   3.081
26615SOL    HW281743  11.739   2.373   3.061
26616SOL     OW81744   3.987  10.242   4.084
26616SOL    HW181745   4.007  10.322   4.035
26616SOL    HW281746   3.916  10.201   4.034
26617SOL     OW81747   0.580  11.090   8.607
26617SOL    HW181748   0.650  11.029   8.631
26617SOL    HW281749   0.500  11.038   8.608
26618SOL     OW81750   0.803  13.780  13.479
26618SOL    HW181751   0.863  13.712  13.508
26618SOL    HW281752   0.858  13.843  13.432
26619SOL     OW81753   3.171   3.488   1.058
26619SOL    HW181754   3.248   3.439   1.088
26619SOL    HW281755   3.184   3.499   0.964
26620SOL     OW81756   4.373  11.722   5.515
26620SOL    HW181757   4.287  11.682   5.509
26620SOL    HW281758   4.386  11.738   5.608
26621SOL     OW81759   4.204  14.202  10.356
26621SOL    HW181760   4.179  14.122  10.310
26621SOL    HW281761   4.166  14.193  10.443
26622SOL     OW81762   9.983   9.181   3.821
26622SOL    HW181763  10.017   9.193   3.909
26622SOL    HW281764  10.053   9.138   3.773
26623SOL     OW81765   1.716   0.411   0.224
26623SOL    HW181766   1.681   0.327   0.252
26623SOL    HW281767   1.665   0.476   0.273
26624SOL     OW81768   9.577  10.390   6.348
26624SOL    HW181769   9.658  10.341   6.334
26624SOL    HW281770   9.508  10.330   6.320
26625SOL     OW81771  12.134   4.667  13.682
26625SOL    HW181772  12.137   4.573  13.661
26625SOL    HW281773  12.084   4.671  13.764
26626SOL     OW81774  11.343   1.090  14.351
26626SOL    HW181775  11.373   1.116  14.264
26626SOL    HW281776  11.248   1.091  14.344
26627SOL     OW81777   4.883  11.445   9.646
26627SOL    HW181778   4.938  11.375   9.609
26627SOL    HW281779   4.794  11.418   9.626
26628SOL     OW81780  10.496   6.188   0.545
26628SOL    HW181781  10.441   6.199   0.467
26628SOL    HW281782  10.534   6.274   0.559
26629SOL     OW81783  12.026   8.674  14.199
26629SOL    HW181784  11.939   8.698  14.168
26629SOL    HW281785  12.059   8.612  14.134
26630SOL     OW81786   7.587   7.346   8.846
26630SOL    HW181787   7.667   7.315   8.888
26630SOL    HW281788   7.608   7.433   8.814
26631SOL     OW81789   9.314   5.098  13.782
26631SOL    HW181790   9.291   5.188  13.808
26631SOL    HW281791   9.325   5.103  13.687
26632SOL     OW81792  11.288   4.578   2.269
26632SOL    HW181793  11.311   4.486   2.253
26632SOL    HW281794  11.195   4.576   2.292
26633SOL     OW81795  11.556  14.184   0.405
26633SOL    HW181796  11.461  14.194   0.408
26633SOL    HW281797  11.582  14.227   0.324
26634SOL     OW81798   5.357   3.042   5.485
26634SOL    HW181799   5.404   3.007   5.561
26634SOL    HW281800   5.284   2.982   5.472
26635SOL     OW81801   4.616   7.228   6.199
26635SOL    HW181802   4.702   7.259   6.225
26635SOL    HW281803   4.620   7.133   6.213
26636SOL     OW81804   0.268   1.911   1.106
26636SOL    HW181805   0.221   1.856   1.044
26636SOL    HW281806   0.359   1.882   1.101
26637SOL     OW81807   0.248   0.813   9.911
26637SOL    HW181808   0.210   0.725   9.902
26637SOL    HW281809   0.307   0.806   9.986
26638SOL     OW81810  13.957  10.809   2.188
26638SOL    HW181811  13.923  10.879   2.244
26638SOL    HW281812  13.939  10.839   2.099
26639SOL     OW81813  10.137  10.806   9.857
26639SOL    HW181814  10.060  10.768   9.898
26639SOL    HW281815  10.208  10.791   9.920
26640SOL     OW81816   3.543   1.804   5.917
26640SOL    HW181817   3.633   1.800   5.884
26640SOL    HW281818   3.516   1.712   5.925
26641SOL     OW81819  13.251   7.978  12.005
26641SOL    HW181820  13.173   7.962  12.058
26641SOL    HW281821  13.302   7.897  12.012
26642SOL     OW81822  13.794   3.118   9.139
26642SOL    HW181823  13.857   3.116   9.210
26642SOL    HW281824  13.782   3.211   9.119
26643SOL     OW81825   3.152   1.329  14.119
26643SOL    HW181826   3.225   1.367  14.071
26643SOL    HW281827   3.087   1.399  14.124
26644SOL     OW81828   2.163  10.335   1.080
26644SOL    HW181829   2.137  10.301   1.165
26644SOL    HW281830   2.186  10.258   1.029
26645SOL     OW81831   6.802   5.145   0.034
26645SOL    HW181832   6.818   5.232  14.879
26645SOL    HW281833   6.865   5.088  14.871
26646SOL     OW81834  12.062   8.406   1.685
26646SOL    HW181835  12.141   8.411   1.631
26646SOL    HW281836  12.006   8.476   1.653
26647SOL     OW81837   8.960   1.719   7.678
26647SOL    HW181838   8.997   1.744   7.762
26647SOL    HW281839   9.022   1.753   7.613
26648SOL     OW81840   6.240   9.095   0.297
26648SOL    HW181841   6.269   9.065   0.383
26648SOL    HW281842   6.318   9.137   0.259
26649SOL     OW81843  12.423   3.687   8.502
26649SOL    HW181844  12.337   3.647   8.493
26649SOL    HW281845  12.422   3.726   8.590
26650SOL     OW81846  10.576   0.024  12.486
26650SOL    HW181847  10.597  14.859  12.406
26650SOL    HW281848  10.485   0.050  12.476
26651SOL     OW81849   3.323  10.321   1.557
26651SOL    HW181850   3.418  10.328   1.565
26651SOL    HW281851   3.293  10.412   1.552
26652SOL     OW81852   8.962   8.279  11.154
26652SOL    HW181853   9.024   8.234  11.096
26652SOL    HW281854   8.980   8.372  11.140
26653SOL     OW81855   2.738   8.251   5.215
26653SOL    HW181856   2.687   8.229   5.293
26653SOL    HW281857   2.806   8.311   5.245
26654SOL     OW81858  10.173  10.573   8.393
26654SOL    HW181859  10.263  10.571   8.424
26654SOL    HW281860  10.126  10.513   8.451
26655SOL     OW81861  10.219   0.414   1.998
26655SOL    HW181862  10.175   0.464   1.930
26655SOL    HW281863  10.193   0.323   1.982
26656SOL     OW81864   3.156   0.499  14.574
26656SOL    HW181865   3.233   0.482  14.520
26656SOL    HW281866   3.167   0.589  14.603
26657SOL     OW81867   9.359   1.464   0.419
26657SOL    HW181868   9.279   1.438   0.466
26657SOL    HW281869   9.431   1.431   0.473
26658SOL     OW81870   2.461   5.453   0.613
26658SOL    HW181871   2.502   5.422   0.694
26658SOL    HW281872   2.530   5.502   0.569
26659SOL     OW81873  11.309   0.502   8.376
26659SOL    HW181874  11.318   0.557   8.454
26659SOL    HW281875  11.398   0.485   8.348
26660SOL     OW81876  13.950  11.246  13.492
26660SOL    HW181877  14.041  11.231  13.515
26660SOL    HW281878  13.902  11.233  13.574
26661SOL     OW81879   7.073  11.052   0.845
26661SOL    HW181880   7.139  11.117   0.821
26661SOL    HW281881   7.105  11.014   0.927
26662SOL     OW81882  14.613   4.600   5.714
26662SOL    HW181883  14.674   4.594   5.640
26662SOL    HW281884  14.669   4.618   5.790
26663SOL     OW81885  14.165   7.402  14.130
26663SOL    HW181886  14.115   7.429  14.053
26663SOL    HW281887  14.170   7.307  14.123
26664SOL     OW81888  10.878   7.157   9.429
26664SOL    HW181889  10.962   7.118   9.402
26664SOL    HW281890  10.859   7.222   9.361
26665SOL     OW81891   0.125  11.080   4.020
26665SOL    HW181892   0.152  11.144   4.086
26665SOL    HW281893   0.190  11.088   3.950
26666SOL     OW81894   8.553   6.967  13.362
26666SOL    HW181895   8.592   6.920  13.435
26666SOL    HW281896   8.500   7.036  13.403
26667SOL     OW81897   8.948   2.483   7.307
26667SOL    HW181898   8.934   2.482   7.213
26667SOL    HW281899   8.905   2.403   7.339
26668SOL     OW81900   6.687  10.870  14.423
26668SOL    HW181901   6.733  10.947  14.459
26668SOL    HW281902   6.644  10.831  14.499
26669SOL     OW81903  10.726  13.365   0.493
26669SOL    HW181904  10.666  13.426   0.449
26669SOL    HW281905  10.788  13.339   0.424
26670SOL     OW81906  11.713   1.457   3.224
26670SOL    HW181907  11.743   1.494   3.307
26670SOL    HW281908  11.632   1.504   3.205
26671SOL     OW81909   6.433   5.162   1.267
26671SOL    HW181910   6.518   5.119   1.271
26671SOL    HW281911   6.424   5.189   1.176
26672SOL     OW81912   2.455  10.041   3.695
26672SOL    HW181913   2.453  10.069   3.603
26672SOL    HW281914   2.492  10.115   3.742
26673SOL     OW81915   6.627  11.091  13.759
26673SOL    HW181916   6.687  11.164  13.775
26673SOL    HW281917   6.545  11.132  13.732
26674SOL     OW81918   5.708   9.086   2.433
26674SOL    HW181919   5.675   9.149   2.498
26674SOL    HW281920   5.653   9.100   2.356
26675SOL     OW81921   8.078   0.829   0.956
26675SOL    HW181922   8.009   0.854   0.895
26675SOL    HW281923   8.032   0.810   1.037
26676SOL     OW81924   7.444  13.228  13.935
26676SOL    HW181925   7.503  13.198  13.866
26676SOL    HW281926   7.500  13.274  13.997
26677SOL     OW81927   0.143   7.732   6.724
26677SOL    HW181928   0.099   7.809   6.689
26677SOL    HW281929   0.093   7.658   6.690
26678SOL     OW81930  11.768   9.119  10.571
26678SOL    HW181931  11.681   9.112  10.611
26678SOL    HW281932  11.829   9.109  10.645
26679SOL     OW81933  12.005  13.556   0.028
26679SOL    HW181934  11.921  13.579  14.869
26679SOL    HW281935  11.998  13.590   0.117
26680SOL     OW81936   1.412   1.274   6.737
26680SOL    HW181937   1.353   1.202   6.759
26680SOL    HW281938   1.355   1.341   6.699
26681SOL     OW81939   1.590  14.358  13.768
26681SOL    HW181940   1.645  14.299  13.717
26681SOL    HW281941   1.544  14.300  13.830
26682SOL     OW81942   7.650   2.823  10.299
26682SOL    HW181943   7.619   2.738  10.266
26682SOL    HW281944   7.740   2.830  10.267
26683SOL     OW81945  14.072  13.091   2.150
26683SOL    HW181946  14.150  13.121   2.196
26683SOL    HW281947  13.999  13.121   2.205
26684SOL     OW81948   9.809  13.880   8.662
26684SOL    HW181949   9.860  13.840   8.592
26684SOL    HW281950   9.812  13.974   8.643
26685SOL     OW81951   3.347   7.865   2.505
26685SOL    HW181952   3.416   7.840   2.567
26685SOL    HW281953   3.269   7.877   2.559
26686SOL     OW81954  13.826   7.836   5.050
26686SOL    HW181955  13.808   7.895   4.976
26686SOL    HW281956  13.859   7.756   5.010
26687SOL     OW81957   5.414  10.984   2.262
26687SOL    HW181958   5.455  10.947   2.340
26687SOL    HW281959   5.439  11.076   2.264
26688SOL     OW81960   0.140  12.354   0.646
26688SOL    HW181961   0.183  12.409   0.712
26688SOL    HW281962   0.136  12.267   0.686
26689SOL     OW81963   1.090   6.706   0.775
26689SOL    HW181964   1.130   6.673   0.855
26689SOL    HW281965   1.130   6.792   0.763
26690SOL     OW81966   1.450   1.042   1.626
26690SOL    HW181967   1.411   1.120   1.588
26690SOL    HW281968   1.540   1.067   1.646
26691SOL     OW81969   6.590   8.322  14.827
26691SOL    HW181970   6.629   8.388  14.769
26691SOL    HW281971   6.591   8.363   0.031
26692SOL     OW81972  10.236  10.396   8.135
26692SOL    HW181973  10.220  10.462   8.203
26692SOL    HW281974  10.152  10.351   8.126
26693SOL     OW81975   3.428   1.975   8.257
26693SOL    HW181976   3.451   1.901   8.201
26693SOL    HW281977   3.368   1.938   8.322
26694SOL     OW81978   4.404  11.109   8.290
26694SOL    HW181979   4.384  11.106   8.384
26694SOL    HW281980   4.480  11.167   8.284
26695SOL     OW81981   3.087  14.614   4.537
26695SOL    HW181982   3.155  14.569   4.587
26695SOL    HW281983   3.035  14.659   4.603
26696SOL     OW81984   4.403  13.970   9.831
26696SOL    HW181985   4.497  13.992   9.832
26696SOL    HW281986   4.362  14.044   9.785
26697SOL     OW81987  13.542  14.748   7.628
26697SOL    HW181988  13.605  14.682   7.598
26697SOL    HW281989  13.468  14.696   7.660
26698SOL     OW81990   9.509  13.735   2.015
26698SOL    HW181991   9.522  13.749   1.921
26698SOL    HW281992   9.596  13.711   2.047
26699SOL     OW81993   9.138  13.496   2.497
26699SOL    HW181994   9.048  13.464   2.507
26699SOL    HW281995   9.189  13.443   2.560
26700SOL     OW81996   5.035   9.070   5.834
26700SOL    HW181997   5.084   9.138   5.879
26700SOL    HW281998   5.032   8.997   5.896
26701SOL     OW81999  11.590   3.892   7.362
26701SOL    HW182000  11.621   3.810   7.323
26701SOL    HW282001  11.670   3.939   7.385
26702SOL     OW82002   8.208   5.678  14.744
26702SOL    HW182003   8.161   5.597  14.727
26702SOL    HW282004   8.219   5.681  14.839
26703SOL     OW82005   8.601   8.430   2.462
26703SOL    HW182006   8.669   8.415   2.396
26703SOL    HW282007   8.557   8.510   2.434
26704SOL     OW82008   6.710  14.073   2.073
26704SOL    HW182009   6.762  14.146   2.041
26704SOL    HW282010   6.767  14.028   2.135
26705SOL     OW82011  12.583   5.645   5.847
26705SOL    HW182012  12.597   5.725   5.899
26705SOL    HW282013  12.669   5.626   5.809
26706SOL     OW82014  10.378  14.190   3.593
26706SOL    HW182015  10.332  14.234   3.664
26706SOL    HW282016  10.453  14.246   3.574
26707SOL     OW82017  11.027  10.349  12.578
26707SOL    HW182018  11.112  10.372  12.614
26707SOL    HW282019  11.047  10.288  12.507
26708SOL     OW82020   0.803   2.053   9.550
26708SOL    HW182021   0.775   1.965   9.572
26708SOL    HW282022   0.741   2.111   9.595
26709SOL     OW82023  14.816   7.687   8.194
26709SOL    HW182024   0.011   7.737   8.168
26709SOL    HW282025  14.743   7.748   8.181
26710SOL     OW82026  11.556  11.517   0.825
26710SOL    HW182027  11.581  11.563   0.744
26710SOL    HW282028  11.482  11.462   0.799
26711SOL     OW82029   3.060   5.823  11.564
26711SOL    HW182030   3.006   5.752  11.530
26711SOL    HW282031   3.016   5.903  11.535
26712SOL     OW82032  13.884   2.364   2.104
26712SOL    HW182033  13.839   2.444   2.079
26712SOL    HW282034  13.822   2.318   2.160
26713SOL     OW82035   2.321  12.833   1.734
26713SOL    HW182036   2.277  12.889   1.670
26713SOL    HW282037   2.283  12.746   1.720
26714SOL     OW82038   5.670   4.792   8.666
26714SOL    HW182039   5.764   4.794   8.651
26714SOL    HW282040   5.660   4.818   8.758
26715SOL     OW82041   4.583  10.470   3.591
26715SOL    HW182042   4.527  10.546   3.574
26715SOL    HW282043   4.589  10.425   3.507
26716SOL     OW82044   6.252   2.063   2.948
26716SOL    HW182045   6.204   2.002   3.003
26716SOL    HW282046   6.186   2.097   2.887
26717SOL     OW82047  10.934   9.095  11.870
26717SOL    HW182048  10.907   9.166  11.812
26717SOL    HW282049  10.946   9.019  11.812
26718SOL     OW82050   9.160   1.291   5.214
26718SOL    HW182051   9.174   1.197   5.226
26718SOL    HW282052   9.074   1.298   5.174
26719SOL     OW82053   8.803  10.294   9.541
26719SOL    HW182054   8.875  10.236   9.567
26719SOL    HW282055   8.823  10.377   9.583
26720SOL     OW82056   0.164   4.947   0.356
26720SOL    HW182057   0.226   4.956   0.283
26720SOL    HW282058   0.105   4.876   0.328
26721SOL     OW82059  12.640  14.850   4.232
26721SOL    HW182060  12.605  14.869   4.319
26721SOL    HW282061  12.707   0.035   4.218
26722SOL     OW82062   4.905  11.347  14.376
26722SOL    HW182063   4.990  11.342  14.333
26722SOL    HW282064   4.901  11.436  14.412
26723SOL     OW82065   1.068   6.279   4.915
26723SOL    HW182066   1.072   6.258   4.821
26723SOL    HW282067   0.997   6.225   4.949
26724SOL     OW82068  12.011  13.333   8.603
26724SOL    HW182069  11.997  13.384   8.524
26724SOL    HW282070  12.076  13.383   8.653
26725SOL     OW82071  12.584  14.461   4.644
26725SOL    HW182072  12.556  14.550   4.624
26725SOL    HW282073  12.669  14.451   4.602
26726SOL     OW82074   1.788  13.620   5.969
26726SOL    HW182075   1.770  13.536   5.927
26726SOL    HW282076   1.809  13.679   5.897
26727SOL     OW82077   7.568   6.302  11.743
26727SOL    HW182078   7.567   6.232  11.678
26727SOL    HW282079   7.476   6.317  11.765
26728SOL     OW82080   9.131   5.709  10.419
26728SOL    HW182081   9.194   5.760  10.368
26728SOL    HW282082   9.047   5.723  10.376
26729SOL     OW82083   3.928   9.766   8.029
26729SOL    HW182084   3.856   9.824   8.052
26729SOL    HW282085   3.982   9.817   7.969
26730SOL     OW82086   2.378   1.646   5.603
26730SOL    HW182087   2.376   1.734   5.567
26730SOL    HW282088   2.470   1.621   5.602
26731SOL     OW82089   2.059   5.947   2.132
26731SOL    HW182090   1.988   5.994   2.089
26731SOL    HW282091   2.138   5.996   2.109
26732SOL     OW82092   9.152   8.521  10.440
26732SOL    HW182093   9.072   8.568  10.416
26732SOL    HW282094   9.195   8.503  10.357
26733SOL     OW82095   5.819   6.976   0.998
26733SOL    HW182096   5.766   6.923   1.056
26733SOL    HW282097   5.862   7.039   1.056
26734SOL     OW82098   8.604   0.618   8.405
26734SOL    HW182099   8.559   0.702   8.395
26734SOL    HW282100   8.556   0.558   8.348
26735SOL     OW82101   7.041  11.547   0.118
26735SOL    HW182102   6.968  11.570   0.176
26735SOL    HW282103   7.005  11.480   0.060
26736SOL     OW82104   3.787   3.937   6.549
26736SOL    HW182105   3.766   3.914   6.639
26736SOL    HW282106   3.848   3.870   6.520
26737SOL     OW82107  11.301  10.710  13.181
26737SOL    HW182108  11.254  10.732  13.100
26737SOL    HW282109  11.385  10.756  13.174
26738SOL     OW82110   0.258  14.569   8.216
26738SOL    HW182111   0.287  14.552   8.306
26738SOL    HW282112   0.302  14.651   8.192
26739SOL     OW82113   5.554   2.704   5.000
26739SOL    HW182114   5.565   2.769   5.069
26739SOL    HW282115   5.459   2.698   4.989
26740SOL     OW82116   6.360   9.653   9.023
26740SOL    HW182117   6.447   9.681   9.051
26740SOL    HW282118   6.362   9.661   8.928
26741SOL     OW82119   0.667  11.318   6.294
26741SOL    HW182120   0.755  11.282   6.283
26741SOL    HW282121   0.616  11.278   6.223
26742SOL     OW82122   1.008  12.640  10.330
26742SOL    HW182123   1.016  12.733  10.309
26742SOL    HW282124   1.073  12.597  10.274
26743SOL     OW82125  10.862   6.114  11.829
26743SOL    HW182126  10.839   6.204  11.808
26743SOL    HW282127  10.929   6.122  11.897
26744SOL     OW82128   1.119  13.493  11.784
26744SOL    HW182129   1.202  13.538  11.796
26744SOL    HW282130   1.091  13.469  11.872
26745SOL     OW82131  14.566   4.608   3.991
26745SOL    HW182132  14.578   4.642   3.903
26745SOL    HW282133  14.628   4.535   3.997
26746SOL     OW82134   0.678  13.008   6.294
26746SOL    HW182135   0.772  12.995   6.290
26746SOL    HW282136   0.641  12.921   6.286
26747SOL     OW82137   8.141   1.135  13.210
26747SOL    HW182138   8.200   1.107  13.280
26747SOL    HW282139   8.065   1.170  13.256
26748SOL     OW82140   4.065   1.034   8.500
26748SOL    HW182141   4.123   1.105   8.474
26748SOL    HW282142   4.123   0.958   8.510
26749SOL     OW82143   8.544   7.021   6.660
26749SOL    HW182144   8.518   7.111   6.679
26749SOL    HW282145   8.621   7.007   6.714
26750SOL     OW82146   0.736   2.978   8.571
26750SOL    HW182147   0.683   3.007   8.645
26750SOL    HW282148   0.727   2.883   8.571
26751SOL     OW82149  11.002   3.306  14.736
26751SOL    HW182150  10.945   3.374  14.770
26751SOL    HW282151  10.987   3.230  14.793
26752SOL     OW82152   1.347   2.305   1.605
26752SOL    HW182153   1.326   2.327   1.514
26752SOL    HW282154   1.277   2.345   1.656
26753SOL     OW82155  11.571   5.911  10.122
26753SOL    HW182156  11.618   5.884  10.201
26753SOL    HW282157  11.563   6.006  10.130
26754SOL     OW82158   1.735   3.786   1.582
26754SOL    HW182159   1.658   3.753   1.628
26754SOL    HW282160   1.764   3.713   1.527
26755SOL     OW82161   8.593   4.344  14.299
26755SOL    HW182162   8.622   4.253  14.305
26755SOL    HW282163   8.580   4.359  14.205
26756SOL     OW82164   5.333   8.638  12.538
26756SOL    HW182165   5.301   8.625  12.627
26756SOL    HW282166   5.405   8.576  12.528
26757SOL     OW82167   3.845   6.386   8.610
26757SOL    HW182168   3.925   6.398   8.560
26757SOL    HW282169   3.806   6.306   8.575
26758SOL     OW82170   7.533   2.646  13.276
26758SOL    HW182171   7.537   2.550  13.270
26758SOL    HW282172   7.610   2.670  13.328
26759SOL     OW82173  11.095   4.076  13.749
26759SOL    HW182174  11.116   4.067  13.656
26759SOL    HW282175  11.049   4.160  13.755
26760SOL     OW82176   5.640   0.087  11.252
26760SOL    HW182177   5.695   0.154  11.212
26760SOL    HW282178   5.588   0.052  11.179
26761SOL     OW82179   2.945   4.060   0.903
26761SOL    HW182180   2.864   4.018   0.873
26761SOL    HW282181   2.964   4.017   0.987
26762SOL     OW82182   7.160   5.863   9.873
26762SOL    HW182183   7.079   5.825   9.839
26762SOL    HW282184   7.211   5.884   9.794
26763SOL     OW82185   4.109   8.259   3.399
26763SOL    HW182186   4.096   8.327   3.332
26763SOL    HW282187   4.200   8.267   3.424
26764SOL     OW82188  13.977   4.275   0.706
26764SOL    HW182189  13.980   4.240   0.795
26764SOL    HW282190  13.890   4.252   0.674
26765SOL     OW82191  12.057  11.070   4.787
26765SOL    HW182192  12.006  11.007   4.837
26765SOL    HW282193  12.115  11.110   4.851
26766SOL     OW82194  12.852   6.989   1.151
26766SOL    HW182195  12.863   6.923   1.220
26766SOL    HW282196  12.850   7.072   1.198
26767SOL     OW82197   1.305   4.571   7.191
26767SOL    HW182198   1.299   4.480   7.219
26767SOL    HW282199   1.391   4.600   7.220
26768SOL     OW82200  12.421  14.203   1.968
26768SOL    HW182201  12.455  14.113   1.961
26768SOL    HW282202  12.427  14.237   1.879
26769SOL     OW82203   4.325   1.268   6.853
26769SOL    HW182204   4.386   1.325   6.900
26769SOL    HW282205   4.324   1.187   6.903
26770SOL     OW82206   9.347  11.810   9.055
26770SOL    HW182207   9.367  11.856   9.136
26770SOL    HW282208   9.366  11.875   8.986
26771SOL     OW82209   6.695   6.001   1.696
26771SOL    HW182210   6.716   6.046   1.614
26771SOL    HW282211   6.663   6.070   1.754
26772SOL     OW82212   5.045   6.570  14.447
26772SOL    HW182213   5.138   6.585  14.433
26772SOL    HW282214   5.012   6.538  14.363
26773SOL     OW82215  14.815  11.136  14.296
26773SOL    HW182216  14.811  11.096  14.209
26773SOL    HW282217  14.776  11.071  14.355
26774SOL     OW82218   8.745   7.120   5.345
26774SOL    HW182219   8.732   7.170   5.426
26774SOL    HW282220   8.684   7.047   5.351
26775SOL     OW82221   5.006   0.981   1.297
26775SOL    HW182222   4.986   1.015   1.210
26775SOL    HW282223   4.967   1.045   1.357
26776SOL     OW82224   3.723   3.086   6.152
26776SOL    HW182225   3.720   3.009   6.095
26776SOL    HW282226   3.674   3.153   6.106
26777SOL     OW82227   2.223  12.112   0.666
26777SOL    HW182228   2.317  12.123   0.678
26777SOL    HW282229   2.200  12.176   0.598
26778SOL     OW82230   2.507  12.118   5.840
26778SOL    HW182231   2.568  12.064   5.789
26778SOL    HW282232   2.518  12.087   5.930
26779SOL     OW82233   9.798   0.867  10.658
26779SOL    HW182234   9.749   0.808  10.600
26779SOL    HW282235   9.754   0.859  10.743
26780SOL     OW82236  12.712  12.381  10.238
26780SOL    HW182237  12.675  12.324  10.305
26780SOL    HW282238  12.772  12.439  10.286
26781SOL     OW82239  10.722   5.171  13.899
26781SOL    HW182240  10.692   5.092  13.855
26781SOL    HW282241  10.811   5.150  13.928
26782SOL     OW82242   0.273   6.279   6.705
26782SOL    HW182243   0.275   6.356   6.761
26782SOL    HW282244   0.300   6.310   6.619
26783SOL     OW82245   1.070  13.223   7.521
26783SOL    HW182246   1.130  13.160   7.559
26783SOL    HW282247   0.995  13.171   7.492
26784SOL     OW82248  13.072   8.403   6.432
26784SOL    HW182249  13.142   8.350   6.393
26784SOL    HW282250  13.064   8.371   6.521
26785SOL     OW82251  12.873   2.082  12.406
26785SOL    HW182252  12.879   1.996  12.365
26785SOL    HW282253  12.796   2.123  12.365
26786SOL     OW82254  10.204   0.976  12.642
26786SOL    HW182255  10.234   1.066  12.660
26786SOL    HW282256  10.276   0.936  12.593
26787SOL     OW82257   6.589  11.543  14.454
26787SOL    HW182258   6.620  11.616  14.401
26787SOL    HW282259   6.501  11.525  14.421
26788SOL     OW82260   5.216   7.834  12.592
26788SOL    HW182261   5.254   7.747  12.578
26788SOL    HW282262   5.285   7.883  12.637
26789SOL     OW82263   5.450   8.590   3.892
26789SOL    HW182264   5.519   8.636   3.844
26789SOL    HW282265   5.379   8.653   3.898
26790SOL     OW82266   5.287   6.991   6.149
26790SOL    HW182267   5.311   7.030   6.233
26790SOL    HW282268   5.323   7.051   6.083
26791SOL     OW82269   7.040   4.456   0.427
26791SOL    HW182270   7.105   4.385   0.422
26791SOL    HW282271   7.011   4.468   0.336
26792SOL     OW82272  13.194   4.791  11.912
26792SOL    HW182273  13.102   4.780  11.937
26792SOL    HW282274  13.193   4.861  11.846
26793SOL     OW82275   5.329   4.895   1.611
26793SOL    HW182276   5.390   4.822   1.603
26793SOL    HW282277   5.243   4.854   1.625
26794SOL     OW82278  12.438   1.472   8.262
26794SOL    HW182279  12.344   1.461   8.277
26794SOL    HW282280  12.478   1.394   8.300
26795SOL     OW82281   4.108   0.988   2.506
26795SOL    HW182282   4.147   0.998   2.419
26795SOL    HW282283   4.144   1.060   2.558
26796SOL     OW82284   2.229   5.308   0.567
26796SOL    HW182285   2.299   5.373   0.568
26796SOL    HW282286   2.169   5.336   0.636
26797SOL     OW82287  12.048  11.644   1.811
26797SOL    HW182288  12.122  11.682   1.859
26797SOL    HW282289  11.973  11.654   1.869
26798SOL     OW82290   5.460   1.553   8.873
26798SOL    HW182291   5.553   1.536   8.862
26798SOL    HW282292   5.448   1.562   8.968
26799SOL     OW82293   1.627   7.850  13.663
26799SOL    HW182294   1.537   7.844  13.630
26799SOL    HW282295   1.655   7.939  13.642
26800SOL     OW82296   7.161   0.966   3.313
26800SOL    HW182297   7.201   1.020   3.244
26800SOL    HW282298   7.068   0.989   3.311
26801SOL     OW82299   5.726  13.514  13.006
26801SOL    HW182300   5.754  13.478  13.090
26801SOL    HW282301   5.781  13.470  12.941
26802SOL     OW82302  11.757  14.808   3.073
26802SOL    HW182303  11.832  14.778   3.021
26802SOL    HW282304  11.733  14.732   3.126
26803SOL     OW82305   0.969   6.286   1.451
26803SOL    HW182306   0.978   6.196   1.483
26803SOL    HW282307   0.877   6.307   1.465
26804SOL     OW82308   1.670   6.265   2.945
26804SOL    HW182309   1.677   6.179   2.987
26804SOL    HW282310   1.736   6.264   2.876
26805SOL     OW82311   1.429   0.227   5.916
26805SOL    HW182312   1.378   0.181   5.983
26805SOL    HW282313   1.367   0.289   5.877
26806SOL     OW82314  11.818   4.146   1.407
26806SOL    HW182315  11.903   4.182   1.383
26806SOL    HW282316  11.833   4.051   1.413
26807SOL     OW82317  12.543   6.191   1.256
26807SOL    HW182318  12.478   6.236   1.310
26807SOL    HW282319  12.595   6.262   1.217
26808SOL     OW82320   5.524  13.072   7.786
26808SOL    HW182321   5.474  13.125   7.848
26808SOL    HW282322   5.583  13.133   7.744
26809SOL     OW82323   3.260   8.456   3.539
26809SOL    HW182324   3.297   8.471   3.626
26809SOL    HW282325   3.242   8.544   3.505
26810SOL     OW82326   5.049  14.800  12.402
26810SOL    HW182327   4.962  14.783  12.366
26810SOL    HW282328   5.034  14.819  12.495
26811SOL     OW82329   2.183   4.364  12.296
26811SOL    HW182330   2.142   4.362  12.209
26811SOL    HW282331   2.120   4.320  12.353
26812SOL     OW82332   0.158  14.376   6.806
26812SOL    HW182333   0.130  14.333   6.887
26812SOL    HW282334   0.254  14.379   6.812
26813SOL     OW82335  14.693  10.308  11.777
26813SOL    HW182336  14.681  10.333  11.869
26813SOL    HW282337  14.611  10.263  11.754
26814SOL     OW82338   9.867   0.795  11.339
26814SOL    HW182339   9.857   0.843  11.421
26814SOL    HW282340   9.950   0.826  11.303
26815SOL     OW82341   4.683   6.849  12.116
26815SOL    HW182342   4.747   6.853  12.187
26815SOL    HW282343   4.732   6.811  12.043
26816SOL     OW82344   5.436   9.970  14.496
26816SOL    HW182345   5.467   9.986  14.407
26816SOL    HW282346   5.480   9.889  14.523
26817SOL     OW82347   2.674  11.794  13.143
26817SOL    HW182348   2.743  11.825  13.202
26817SOL    HW282349   2.687  11.846  13.063
26818SOL     OW82350   2.149  11.140   7.640
26818SOL    HW182351   2.074  11.186   7.603
26818SOL    HW282352   2.141  11.152   7.735
26819SOL     OW82353   4.502   8.297  12.737
26819SOL    HW182354   4.413   8.264  12.748
26819SOL    HW282355   4.550   8.264  12.813
26820SOL     OW82356   5.322   4.563  13.437
26820SOL    HW182357   5.242   4.584  13.486
26820SOL    HW282358   5.315   4.469  13.418
26821SOL     OW82359   3.054  14.198  14.105
26821SOL    HW182360   3.085  14.289  14.110
26821SOL    HW282361   2.959  14.205  14.109
26822SOL     OW82362  10.715  14.444   2.950
26822SOL    HW182363  10.702  14.526   2.903
26822SOL    HW282364  10.631  14.399   2.945
26823SOL     OW82365   3.901  10.106   6.880
26823SOL    HW182366   3.830  10.168   6.894
26823SOL    HW282367   3.874  10.055   6.804
26824SOL     OW82368   8.171   6.425   0.043
26824SOL    HW182369   8.163   6.517   0.019
26824SOL    HW282370   8.238   6.391  14.865
26825SOL     OW82371   4.672   2.001   1.103
26825SOL    HW182372   4.758   1.994   1.062
26825SOL    HW282373   4.689   2.033   1.191
26826SOL     OW82374  14.606   9.974   5.115
26826SOL    HW182375  14.639   9.889   5.088
26826SOL    HW282376  14.512   9.970   5.097
26827SOL     OW82377   6.718  13.058   9.474
26827SOL    HW182378   6.796  13.088   9.521
26827SOL    HW282379   6.657  13.131   9.481
26828SOL     OW82380   3.895   8.409   1.495
26828SOL    HW182381   3.946   8.374   1.422
26828SOL    HW282382   3.859   8.332   1.539
26829SOL     OW82383   2.282  14.732   6.422
26829SOL    HW182384   2.325  14.687   6.494
26829SOL    HW282385   2.326  14.698   6.343
26830SOL     OW82386   3.641   9.311   5.713
26830SOL    HW182387   3.599   9.312   5.799
26830SOL    HW282388   3.569   9.305   5.651
26831SOL     OW82389   6.889   4.844   7.216
26831SOL    HW182390   6.799   4.848   7.184
26831SOL    HW282391   6.935   4.912   7.166
26832SOL     OW82392   5.854  14.722  12.911
26832SOL    HW182393   5.766  14.714  12.875
26832SOL    HW282394   5.873  14.635  12.947
26833SOL     OW82395   2.491   8.332  11.682
26833SOL    HW182396   2.435   8.266  11.641
26833SOL    HW282397   2.453   8.416  11.655
26834SOL     OW82398   3.892   0.278   6.244
26834SOL    HW182399   3.978   0.299   6.280
26834SOL    HW282400   3.870   0.193   6.283
26835SOL     OW82401   0.374   7.962   7.361
26835SOL    HW182402   0.425   7.889   7.325
26835SOL    HW282403   0.288   7.954   7.318
26836SOL     OW82404   4.215  10.300  13.738
26836SOL    HW182405   4.191  10.392  13.734
26836SOL    HW282406   4.310  10.300  13.748
26837SOL     OW82407  14.767  12.894  10.858
26837SOL    HW182408  14.697  12.835  10.830
26837SOL    HW282409  14.812  12.848  10.928
26838SOL     OW82410   9.628   5.874   3.708
26838SOL    HW182411   9.585   5.947   3.751
26838SOL    HW282412   9.613   5.799   3.766
26839SOL     OW82413  12.468   0.824  11.263
26839SOL    HW182414  12.462   0.730  11.280
26839SOL    HW282415  12.560   0.846  11.278
26840SOL     OW82416   9.880   9.513   9.435
26840SOL    HW182417   9.901   9.482   9.523
26840SOL    HW282418   9.962   9.548   9.401
26841SOL     OW82419  12.831  11.710   5.568
26841SOL    HW182420  12.761  11.683   5.508
26841SOL    HW282421  12.847  11.802   5.545
26842SOL     OW82422   7.558   5.268  14.031
26842SOL    HW182423   7.653   5.275  14.037
26842SOL    HW282424   7.533   5.336  13.969
26843SOL     OW82425   4.359   8.756   0.485
26843SOL    HW182426   4.419   8.817   0.527
26843SOL    HW282427   4.324   8.804   0.410
26844SOL     OW82428   1.062   6.044  12.720
26844SOL    HW182429   1.084   6.023  12.811
26844SOL    HW282430   1.147   6.043  12.675
26845SOL     OW82431  12.471   6.193   6.032
26845SOL    HW182432  12.432   6.225   6.113
26845SOL    HW282433  12.396   6.172   5.976
26846SOL     OW82434   7.088  13.718  11.353
26846SOL    HW182435   7.066  13.713  11.446
26846SOL    HW282436   7.051  13.638  11.316
26847SOL     OW82437   5.227   5.950   5.249
26847SOL    HW182438   5.262   5.867   5.279
26847SOL    HW282439   5.283   5.975   5.175
26848SOL     OW82440  13.526   8.947  12.790
26848SOL    HW182441  13.585   9.023  12.785
26848SOL    HW282442  13.475   8.961  12.870
26849SOL     OW82443   3.124  13.347   4.900
26849SOL    HW182444   3.098  13.383   4.815
26849SOL    HW282445   3.179  13.415   4.939
26850SOL     OW82446   4.318   3.586   4.122
26850SOL    HW182447   4.306   3.646   4.196
26850SOL    HW282448   4.367   3.637   4.058
26851SOL     OW82449   6.494  13.543  12.394
26851SOL    HW182450   6.415  13.493  12.417
26851SOL    HW282451   6.473  13.633  12.417
26852SOL     OW82452   3.166   3.363  10.041
26852SOL    HW182453   3.255   3.391  10.019
26852SOL    HW282454   3.112   3.390   9.967
26853SOL     OW82455  13.103   7.707   4.575
26853SOL    HW182456  13.186   7.742   4.542
26853SOL    HW282457  13.048   7.784   4.588
26854SOL     OW82458   8.548   6.453  10.673
26854SOL    HW182459   8.621   6.447  10.734
26854SOL    HW282460   8.554   6.374  10.619
26855SOL     OW82461  12.980   1.913   9.455
26855SOL    HW182462  13.057   1.874   9.413
26855SOL    HW282463  13.013   1.995   9.493
26856SOL     OW82464   7.079   7.241  13.210
26856SOL    HW182465   7.017   7.183  13.253
26856SOL    HW282466   7.060   7.232  13.117
26857SOL     OW82467   9.728   4.081   2.474
26857SOL    HW182468   9.681   4.160   2.450
26857SOL    HW282469   9.777   4.104   2.553
26858SOL     OW82470   9.558   6.040   5.677
26858SOL    HW182471   9.495   6.001   5.616
26858SOL    HW282472   9.566   5.975   5.747
26859SOL     OW82473   4.327   5.860   4.906
26859SOL    HW182474   4.325   5.827   4.816
26859SOL    HW282475   4.310   5.954   4.897
26860SOL     OW82476   3.295   5.116   0.088
26860SOL    HW182477   3.200   5.103   0.089
26860SOL    HW282478   3.306   5.209   0.066
26861SOL     OW82479   4.159  10.988  11.101
26861SOL    HW182480   4.157  11.083  11.113
26861SOL    HW282481   4.070  10.965  11.073
26862SOL     OW82482  14.315   3.342   2.019
26862SOL    HW182483  14.305   3.362   2.112
26862SOL    HW282484  14.283   3.252   2.011
26863SOL     OW82485  13.189  13.045  11.788
26863SOL    HW182486  13.177  13.132  11.750
26863SOL    HW282487  13.280  13.022  11.767
26864SOL     OW82488   4.050   2.331  10.818
26864SOL    HW182489   4.076   2.289  10.736
26864SOL    HW282490   4.097   2.282  10.885
26865SOL     OW82491  14.080   6.616   1.436
26865SOL    HW182492  14.157   6.569   1.403
26865SOL    HW282493  14.047   6.665   1.360
26866SOL     OW82494   5.480   3.671   5.563
26866SOL    HW182495   5.507   3.721   5.486
26866SOL    HW282496   5.385   3.684   5.568
26867SOL     OW82497   6.337   1.377   6.230
26867SOL    HW182498   6.378   1.311   6.176
26867SOL    HW282499   6.249   1.344   6.246
26868SOL     OW82500   0.349   7.178   7.136
26868SOL    HW182501   0.302   7.127   7.202
26868SOL    HW282502   0.438   7.187   7.171
26869SOL     OW82503   4.761   6.044  11.695
26869SOL    HW182504   4.676   6.004  11.676
26869SOL    HW282505   4.754   6.073  11.786
26870SOL     OW82506   1.095   5.848   3.924
26870SOL    HW182507   1.006   5.833   3.893
26870SOL    HW282508   1.108   5.783   3.993
26871SOL     OW82509   0.371   9.342  10.232
26871SOL    HW182510   0.344   9.434  10.231
26871SOL    HW282511   0.443   9.339  10.295
26872SOL     OW82512  12.966  14.184   8.830
26872SOL    HW182513  12.885  14.208   8.784
26872SOL    HW282514  12.958  14.090   8.845
26873SOL     OW82515   3.685  13.978  13.597
26873SOL    HW182516   3.741  14.033  13.541
26873SOL    HW282517   3.734  13.897  13.607
26874SOL     OW82518  13.091   9.414   9.625
26874SOL    HW182519  13.184   9.413   9.648
26874SOL    HW282520  13.082   9.487   9.564
26875SOL     OW82521  12.081   2.567   1.915
26875SOL    HW182522  12.139   2.507   1.868
26875SOL    HW282523  12.034   2.614   1.846
26876SOL     OW82524   1.570   7.132   4.468
26876SOL    HW182525   1.622   7.057   4.495
26876SOL    HW282526   1.548   7.178   4.549
26877SOL     OW82527   1.099   3.062   0.902
26877SOL    HW182528   1.160   3.136   0.908
26877SOL    HW282529   1.122   3.019   0.820
26878SOL     OW82530  14.769   7.641   9.654
26878SOL    HW182531  14.798   7.551   9.636
26878SOL    HW282532  14.688   7.650   9.605
26879SOL     OW82533   7.377   9.532   0.207
26879SOL    HW182534   7.344   9.617   0.178
26879SOL    HW282535   7.357   9.529   0.300
26880SOL     OW82536   5.831   5.859   2.877
26880SOL    HW182537   5.908   5.830   2.926
26880SOL    HW282538   5.816   5.791   2.812
26881SOL     OW82539   9.308   5.155  10.434
26881SOL    HW182540   9.270   5.228  10.384
26881SOL    HW282541   9.241   5.086  10.430
26882SOL     OW82542   7.733  14.742  14.590
26882SOL    HW182543   7.715  14.729  14.497
26882SOL    HW282544   7.672  14.811  14.617
26883SOL     OW82545  14.399   1.808   4.627
26883SOL    HW182546  14.474   1.786   4.682
26883SOL    HW282547  14.392   1.736   4.565
26884SOL     OW82548   0.772  10.429  11.173
26884SOL    HW182549   0.817  10.345  11.183
26884SOL    HW282550   0.684  10.414  11.208
26885SOL     OW82551  11.969  12.744  10.073
26885SOL    HW182552  12.060  12.764  10.050
26885SOL    HW282553  11.918  12.815  10.035
26886SOL     OW82554   8.807   1.494  10.183
26886SOL    HW182555   8.891   1.470  10.223
26886SOL    HW282556   8.750   1.514  10.258
26887SOL     OW82557  11.273  12.202   3.702
26887SOL    HW182558  11.271  12.230   3.794
26887SOL    HW282559  11.191  12.156   3.689
26888SOL     OW82560   8.201   4.083  13.591
26888SOL    HW182561   8.230   4.076  13.682
26888SOL    HW282562   8.141   4.158  13.590
26889SOL     OW82563   2.448   1.925   3.717
26889SOL    HW182564   2.529   1.971   3.695
26889SOL    HW282565   2.474   1.859   3.782
26890SOL     OW82566  13.950   4.066   0.102
26890SOL    HW182567  13.871   4.027   0.066
26890SOL    HW282568  13.962   4.147   0.052
26891SOL     OW82569   1.661   5.372  10.131
26891SOL    HW182570   1.643   5.446  10.189
26891SOL    HW282571   1.577   5.329  10.121
26892SOL     OW82572   3.104  12.341   2.236
26892SOL    HW182573   3.187  12.326   2.191
26892SOL    HW282574   3.050  12.388   2.172
26893SOL     OW82575  10.629   5.827  12.985
26893SOL    HW182576  10.638   5.894  12.917
26893SOL    HW282577  10.573   5.760  12.945
26894SOL     OW82578  12.787   5.917  12.633
26894SOL    HW182579  12.742   5.832  12.624
26894SOL    HW282580  12.811   5.940  12.543
26895SOL     OW82581  12.289   7.180  12.587
26895SOL    HW182582  12.211   7.131  12.565
26895SOL    HW282583  12.267   7.271  12.566
26896SOL     OW82584   7.933  10.177   9.220
26896SOL    HW182585   7.903  10.173   9.129
26896SOL    HW282586   7.908  10.093   9.257
26897SOL     OW82587  13.489   4.604   0.498
26897SOL    HW182588  13.473   4.649   0.415
26897SOL    HW282589  13.493   4.511   0.474
26898SOL     OW82590  10.385   5.055   2.553
26898SOL    HW182591  10.329   5.133   2.554
26898SOL    HW282592  10.458   5.078   2.610
26899SOL     OW82593   4.182  13.561   8.106
26899SOL    HW182594   4.187  13.589   8.198
26899SOL    HW282595   4.175  13.643   8.057
26900SOL     OW82596   9.869   2.972   4.655
26900SOL    HW182597   9.836   2.920   4.582
26900SOL    HW282598   9.885   3.058   4.618
26901SOL     OW82599   6.226  10.027   1.752
26901SOL    HW182600   6.157  10.053   1.812
26901SOL    HW282601   6.185   9.961   1.696
26902SOL     OW82602   0.893   2.057  12.169
26902SOL    HW182603   0.972   2.051  12.224
26902SOL    HW282604   0.924   2.033  12.082
26903SOL     OW82605   1.813   6.187  14.064
26903SOL    HW182606   1.735   6.239  14.081
26903SOL    HW282607   1.783   6.096  14.070
26904SOL     OW82608   4.506   8.514   8.395
26904SOL    HW182609   4.411   8.507   8.390
26904SOL    HW282610   4.538   8.480   8.312
26905SOL     OW82611   1.268   5.543   4.450
26905SOL    HW182612   1.292   5.452   4.466
26905SOL    HW282613   1.347   5.582   4.412
26906SOL     OW82614  12.082   5.562   1.781
26906SOL    HW182615  12.024   5.534   1.852
26906SOL    HW282616  12.030   5.624   1.730
26907SOL     OW82617   5.204   8.955  14.011
26907SOL    HW182618   5.148   8.882  14.037
26907SOL    HW282619   5.289   8.914  13.993
26908SOL     OW82620   4.243   1.649   9.462
26908SOL    HW182621   4.207   1.592   9.394
26908SOL    HW282622   4.334   1.661   9.437
26909SOL     OW82623   1.712  14.082   2.450
26909SOL    HW182624   1.626  14.055   2.419
26909SOL    HW282625   1.708  14.178   2.452
26910SOL     OW82626   1.759   2.054   0.618
26910SOL    HW182627   1.837   2.015   0.659
26910SOL    HW282628   1.794   2.125   0.564
26911SOL     OW82629  10.976  14.788  11.367
26911SOL    HW182630  10.903  14.735  11.334
26911SOL    HW282631  10.948  14.879  11.352
26912SOL     OW82632   4.448   7.962   4.639
26912SOL    HW182633   4.392   8.030   4.677
26912SOL    HW282634   4.464   7.992   4.550
26913SOL     OW82635   1.843   4.037  10.469
26913SOL    HW182636   1.885   3.987  10.539
26913SOL    HW282637   1.839   3.977  10.395
26914SOL     OW82638   7.866   7.280  12.627
26914SOL    HW182639   7.892   7.268  12.719
26914SOL    HW282640   7.884   7.373  12.609
26915SOL     OW82641   6.856   8.290   1.929
26915SOL    HW182642   6.855   8.322   2.019
26915SOL    HW282643   6.763   8.286   1.904
26916SOL     OW82644   3.816  10.996   3.730
26916SOL    HW182645   3.768  11.030   3.806
26916SOL    HW282646   3.764  10.921   3.701
26917SOL     OW82647   4.459   6.173  11.320
26917SOL    HW182648   4.551   6.191  11.339
26917SOL    HW282649   4.410   6.215  11.390
26918SOL     OW82650   7.621   7.711   4.359
26918SOL    HW182651   7.690   7.703   4.292
26918SOL    HW282652   7.656   7.775   4.421
26919SOL     OW82653   9.459   6.428   9.349
26919SOL    HW182654   9.382   6.393   9.305
26919SOL    HW282655   9.529   6.368   9.326
26920SOL     OW82656   0.907   5.747   9.974
26920SOL    HW182657   0.836   5.796   9.935
26920SOL    HW282658   0.971   5.813  10.001
26921SOL     OW82659  14.065   4.707   4.873
26921SOL    HW182660  14.116   4.786   4.889
26921SOL    HW282661  14.034   4.715   4.783
26922SOL     OW82662   3.253  11.786   8.230
26922SOL    HW182663   3.209  11.860   8.270
26922SOL    HW282664   3.230  11.711   8.285
26923SOL     OW82665   3.829   8.228   7.719
26923SOL    HW182666   3.867   8.141   7.735
26923SOL    HW282667   3.905   8.284   7.702
26924SOL     OW82668   6.145   0.317   0.661
26924SOL    HW182669   6.239   0.335   0.666
26924SOL    HW282670   6.116   0.319   0.752
26925SOL     OW82671  12.746  14.280   8.689
26925SOL    HW182672  12.734  14.188   8.669
26925SOL    HW282673  12.688  14.296   8.764
26926SOL     OW82674   9.909  14.633   5.674
26926SOL    HW182675   9.823  14.673   5.680
26926SOL    HW282676   9.964  14.685   5.733
26927SOL     OW82677   2.995  14.861  11.488
26927SOL    HW182678   3.080  14.860  11.442
26927SOL    HW282679   2.935   0.019  11.425
26928SOL     OW82680   1.018   4.242   0.754
26928SOL    HW182681   1.102   4.199   0.765
26928SOL    HW282682   0.993   4.270   0.842
26929SOL     OW82683   1.723  11.103   8.943
26929SOL    HW182684   1.646  11.080   8.995
26929SOL    HW282685   1.721  11.044   8.869
26930SOL     OW82686   6.562   5.936  10.662
26930SOL    HW182687   6.649   5.959  10.696
26930SOL    HW282688   6.501   5.973  10.726
26931SOL     OW82689   4.201   7.361   5.596
26931SOL    HW182690   4.274   7.360   5.658
26931SOL    HW282691   4.226   7.300   5.527
26932SOL     OW82692   2.164  12.079   3.341
26932SOL    HW182693   2.211  12.023   3.279
26932SOL    HW282694   2.215  12.160   3.344
26933SOL     OW82695   3.699  12.599  12.054
26933SOL    HW182696   3.623  12.624  12.107
26933SOL    HW282697   3.729  12.516  12.092
26934SOL     OW82698   6.149  13.233   8.986
26934SOL    HW182699   6.152  13.296   9.058
26934SOL    HW282700   6.131  13.286   8.909
26935SOL     OW82701   1.355  12.871   0.083
26935SOL    HW182702   1.267  12.888   0.116
26935SOL    HW282703   1.379  12.952   0.038
26936SOL     OW82704   7.271   6.607   9.544
26936SOL    HW182705   7.247   6.520   9.575
26936SOL    HW282706   7.188   6.656   9.545
26937SOL     OW82707  11.661   9.472   2.785
26937SOL    HW182708  11.612   9.542   2.741
26937SOL    HW282709  11.733   9.452   2.726
26938SOL     OW82710   2.357   5.395   4.927
26938SOL    HW182711   2.332   5.380   5.018
26938SOL    HW282712   2.290   5.349   4.876
26939SOL     OW82713   1.172   6.250   8.916
26939SOL    HW182714   1.107   6.182   8.935
26939SOL    HW282715   1.146   6.324   8.971
26940SOL     OW82716  10.598   3.365   8.316
26940SOL    HW182717  10.546   3.308   8.373
26940SOL    HW282718  10.551   3.367   8.233
26941SOL     OW82719   4.267   8.580  13.753
26941SOL    HW182720   4.303   8.566  13.665
26941SOL    HW282721   4.175   8.600  13.738
26942SOL     OW82722   2.941   5.948  13.791
26942SOL    HW182723   2.968   5.976  13.879
26942SOL    HW282724   2.914   5.857  13.801
26943SOL     OW82725  11.166   4.217   2.531
26943SOL    HW182726  11.225   4.246   2.462
26943SOL    HW282727  11.208   4.245   2.613
26944SOL     OW82728   9.417   9.039  14.848
26944SOL    HW182729   9.369   9.087  14.781
26944SOL    HW282730   9.489   8.998  14.800
26945SOL     OW82731  10.788   3.734   7.604
26945SOL    HW182732  10.836   3.657   7.574
26945SOL    HW282733  10.715   3.699   7.655
26946SOL     OW82734   1.926   4.857  12.386
26946SOL    HW182735   1.932   4.780  12.330
26946SOL    HW282736   1.966   4.927  12.334
26947SOL     OW82737   4.003  14.534   2.024
26947SOL    HW182738   3.934  14.595   1.995
26947SOL    HW282739   3.960  14.479   2.089
26948SOL     OW82740   1.353   9.271   5.073
26948SOL    HW182741   1.314   9.196   5.028
26948SOL    HW282742   1.440   9.279   5.034
26949SOL     OW82743   0.480   1.508   7.068
26949SOL    HW182744   0.432   1.426   7.060
26949SOL    HW282745   0.499   1.517   7.161
26950SOL     OW82746  13.969   8.320  11.634
26950SOL    HW182747  13.879   8.292  11.645
26950SOL    HW282748  14.018   8.239  11.620
26951SOL     OW82749  10.106   4.300   3.125
26951SOL    HW182750  10.038   4.279   3.189
26951SOL    HW282751  10.176   4.339   3.176
26952SOL     OW82752   8.316   4.018  13.848
26952SOL    HW182753   8.350   3.950  13.790
26952SOL    HW282754   8.342   3.992  13.936
26953SOL     OW82755   0.360  12.543  11.884
26953SOL    HW182756   0.313  12.465  11.913
26953SOL    HW282757   0.402  12.516  11.802
26954SOL     OW82758   0.282  10.150  11.725
26954SOL    HW182759   0.215  10.178  11.786
26954SOL    HW282760   0.271  10.207  11.649
26955SOL     OW82761   3.290  14.251   0.173
26955SOL    HW182762   3.251  14.282   0.092
26955SOL    HW282763   3.219  14.204   0.217
26956SOL     OW82764  12.966   2.445   2.427
26956SOL    HW182765  12.911   2.399   2.364
26956SOL    HW282766  13.036   2.383   2.448
26957SOL     OW82767   3.246   6.238   6.989
26957SOL    HW182768   3.168   6.267   7.037
26957SOL    HW282769   3.225   6.149   6.960
26958SOL     OW82770   0.559   2.534  12.404
26958SOL    HW182771   0.645   2.577  12.404
26958SOL    HW282772   0.499   2.601  12.438
26959SOL     OW82773   1.572  14.028   2.999
26959SOL    HW182774   1.508  13.958   2.988
26959SOL    HW282775   1.554  14.089   2.928
26960SOL     OW82776   8.134  11.493   1.682
26960SOL    HW182777   8.180  11.567   1.723
26960SOL    HW282778   8.169  11.416   1.726
26961SOL     OW82779   7.544  11.955   4.252
26961SOL    HW182780   7.607  11.883   4.250
26961SOL    HW282781   7.558  11.998   4.336
26962SOL     OW82782   9.204   2.799   2.948
26962SOL    HW182783   9.153   2.816   2.869
26962SOL    HW282784   9.143   2.815   3.020
26963SOL     OW82785   3.354  14.436   5.564
26963SOL    HW182786   3.358  14.532   5.568
26963SOL    HW282787   3.371  14.409   5.655
26964SOL     OW82788   2.139   0.753   0.967
26964SOL    HW182789   2.053   0.775   0.931
26964SOL    HW282790   2.126   0.668   1.010
26965SOL     OW82791  11.899  10.600   0.432
26965SOL    HW182792  11.955  10.674   0.411
26965SOL    HW282793  11.816  10.618   0.387
26966SOL     OW82794  13.708   5.715   5.380
26966SOL    HW182795  13.628   5.733   5.429
26966SOL    HW282796  13.678   5.671   5.300
26967SOL     OW82797  10.448  10.336   4.909
26967SOL    HW182798  10.538  10.313   4.932
26967SOL    HW282799  10.411  10.370   4.990
26968SOL     OW82800   9.651   7.713   6.114
26968SOL    HW182801   9.680   7.791   6.067
26968SOL    HW282802   9.570   7.740   6.158
26969SOL     OW82803   2.287  10.607   9.250
26969SOL    HW182804   2.355  10.597   9.317
26969SOL    HW282805   2.273  10.519   9.217
26970SOL     OW82806   8.654  13.138   3.931
26970SOL    HW182807   8.605  13.099   3.859
26970SOL    HW282808   8.649  13.073   4.002
26971SOL     OW82809  12.043   3.643   9.589
26971SOL    HW182810  12.022   3.717   9.532
26971SOL    HW282811  12.131   3.616   9.562
26972SOL     OW82812   5.538  11.630   4.622
26972SOL    HW182813   5.608  11.593   4.568
26972SOL    HW282814   5.566  11.720   4.638
26973SOL     OW82815   5.493   7.742  10.270
26973SOL    HW182816   5.420   7.788  10.312
26973SOL    HW282817   5.523   7.803  10.202
26974SOL     OW82818   6.892   0.466  12.555
26974SOL    HW182819   6.814   0.502  12.512
26974SOL    HW282820   6.924   0.399  12.494
26975SOL     OW82821   5.193   5.511   2.449
26975SOL    HW182822   5.217   5.580   2.511
26975SOL    HW282823   5.098   5.510   2.450
26976SOL     OW82824   5.599   5.909  12.066
26976SOL    HW182825   5.536   5.839  12.053
26976SOL    HW282826   5.673   5.885  12.010
26977SOL     OW82827   0.662   2.548   7.570
26977SOL    HW182828   0.727   2.522   7.505
26977SOL    HW282829   0.682   2.641   7.587
26978SOL     OW82830   8.403   8.181  11.559
26978SOL    HW182831   8.473   8.121  11.530
26978SOL    HW282832   8.439   8.268  11.544
26979SOL     OW82833   9.951   5.921   3.859
26979SOL    HW182834   9.896   5.935   3.936
26979SOL    HW282835   9.925   5.835   3.826
26980SOL     OW82836   4.369   8.312   6.393
26980SOL    HW182837   4.391   8.222   6.368
26980SOL    HW282838   4.326   8.303   6.478
26981SOL     OW82839   1.654   8.325   5.848
26981SOL    HW182840   1.641   8.304   5.755
26981SOL    HW282841   1.589   8.392   5.867
26982SOL     OW82842   5.565  10.517  10.478
26982SOL    HW182843   5.556  10.565  10.559
26982SOL    HW282844   5.571  10.425  10.505
26983SOL     OW82845   2.262  10.505   9.873
26983SOL    HW182846   2.211  10.582   9.900
26983SOL    HW282847   2.258  10.446   9.948
26984SOL     OW82848   7.334   4.611   2.516
26984SOL    HW182849   7.360   4.634   2.427
26984SOL    HW282850   7.347   4.692   2.566
26985SOL     OW82851   8.996   4.614  13.887
26985SOL    HW182852   8.940   4.548  13.928
26985SOL    HW282853   9.077   4.612  13.938
26986SOL     OW82854   4.667   1.627   0.793
26986SOL    HW182855   4.669   1.551   0.735
26986SOL    HW282856   4.629   1.697   0.739
26987SOL     OW82857   2.022   0.537   4.436
26987SOL    HW182858   1.986   0.610   4.486
26987SOL    HW282859   1.980   0.459   4.472
26988SOL     OW82860   3.173   0.051  12.295
26988SOL    HW182861   3.146  14.860  12.240
26988SOL    HW282862   3.243   0.094  12.246
26989SOL     OW82863   9.873   7.446  12.477
26989SOL    HW182864   9.838   7.478  12.560
26989SOL    HW282865   9.966   7.428  12.495
26990SOL     OW82866   6.062  13.303   6.947
26990SOL    HW182867   6.014  13.325   7.027
26990SOL    HW282868   6.098  13.216   6.964
26991SOL     OW82869   3.629   9.442   7.790
26991SOL    HW182870   3.556   9.380   7.777
26991SOL    HW282871   3.662   9.458   7.702
26992SOL     OW82872  10.297   5.397  14.292
26992SOL    HW182873  10.274   5.368  14.381
26992SOL    HW282874  10.300   5.493  14.299
26993SOL     OW82875   0.773   7.864   9.755
26993SOL    HW182876   0.819   7.948   9.745
26993SOL    HW282877   0.839   7.798   9.733
26994SOL     OW82878   8.682   7.180   4.036
26994SOL    HW182879   8.720   7.225   4.112
26994SOL    HW282880   8.723   7.094   4.037
26995SOL     OW82881  13.478  11.423   2.301
26995SOL    HW182882  13.436  11.486   2.360
26995SOL    HW282883  13.437  11.339   2.321
26996SOL     OW82884  10.085  12.706   6.889
26996SOL    HW182885  10.057  12.674   6.803
26996SOL    HW282886  10.122  12.792   6.871
26997SOL     OW82887   1.525  10.199   4.939
26997SOL    HW182888   1.512  10.290   4.962
26997SOL    HW282889   1.437  10.166   4.918
26998SOL     OW82890  11.270   4.384  14.566
26998SOL    HW182891  11.282   4.319  14.635
26998SOL    HW282892  11.245   4.464  14.613
26999SOL     OW82893  11.072   2.956  11.663
26999SOL    HW182894  11.113   3.033  11.702
26999SOL    HW282895  11.101   2.956  11.572
27000SOL     OW82896   1.476   5.020   1.425
27000SOL    HW182897   1.485   5.110   1.393
27000SOL    HW282898   1.549   4.973   1.386
27001SOL     OW82899   5.271  11.982   3.385
27001SOL    HW182900   5.306  11.905   3.430
27001SOL    HW282901   5.176  11.972   3.392
27002SOL     OW82902  11.044   3.800   7.085
27002SOL    HW182903  10.989   3.876   7.102
27002SOL    HW282904  11.120   3.835   7.039
27003SOL     OW82905  10.412  13.088  10.824
27003SOL    HW182906  10.468  13.074  10.901
27003SOL    HW282907  10.341  13.024  10.834
27004SOL     OW82908  13.825  13.061   3.629
27004SOL    HW182909  13.888  13.117   3.584
27004SOL    HW282910  13.764  13.034   3.561
27005SOL     OW82911  10.928  12.152   2.202
27005SOL    HW182912  10.850  12.194   2.165
27005SOL    HW282913  10.905  12.134   2.293
27006SOL     OW82914   9.888  12.215   6.547
27006SOL    HW182915   9.794  12.235   6.543
27006SOL    HW282916   9.892  12.130   6.590
27007SOL     OW82917  10.710   6.408  14.302
27007SOL    HW182918  10.797   6.392  14.265
27007SOL    HW282919  10.726   6.429  14.394
27008SOL     OW82920   7.750   5.166   9.056
27008SOL    HW182921   7.726   5.234   8.993
27008SOL    HW282922   7.764   5.215   9.138
27009SOL     OW82923   8.578  10.388   3.158
27009SOL    HW182924   8.533  10.473   3.162
27009SOL    HW282925   8.659  10.406   3.110
27010SOL     OW82926   2.032   3.553   1.916
27010SOL    HW182927   1.998   3.579   2.001
27010SOL    HW282928   1.979   3.477   1.891
27011SOL     OW82929  12.589  11.283   4.192
27011SOL    HW182930  12.610  11.217   4.127
27011SOL    HW282931  12.494  11.278   4.201
27012SOL     OW82932  13.018   3.293  10.187
27012SOL    HW182933  12.946   3.349  10.158
27012SOL    HW282934  13.093   3.319  10.134
27013SOL     OW82935   4.253   1.196   1.103
27013SOL    HW182936   4.237   1.108   1.138
27013SOL    HW282937   4.261   1.182   1.008
27014SOL     OW82938   1.847  11.731   8.524
27014SOL    HW182939   1.775  11.725   8.586
27014SOL    HW282940   1.855  11.825   8.506
27015SOL     OW82941   8.766  13.448  11.925
27015SOL    HW182942   8.826  13.514  11.889
27015SOL    HW282943   8.814  13.409  11.998
27016SOL     OW82944  11.776   5.569   6.098
27016SOL    HW182945  11.789   5.623   6.177
27016SOL    HW282946  11.699   5.516   6.119
27017SOL     OW82947   2.748   5.396   2.644
27017SOL    HW182948   2.681   5.328   2.647
27017SOL    HW282949   2.830   5.350   2.661
27018SOL     OW82950   5.202   9.059   1.008
27018SOL    HW182951   5.123   9.028   0.963
27018SOL    HW282952   5.272   9.050   0.943
27019SOL     OW82953   3.316  12.512   6.448
27019SOL    HW182954   3.263  12.561   6.511
27019SOL    HW282955   3.407  12.528   6.475
27020SOL     OW82956  11.909  14.583   9.260
27020SOL    HW182957  11.987  14.605   9.311
27020SOL    HW282958  11.867  14.667   9.243
27021SOL     OW82959  14.038   2.583   0.665
27021SOL    HW182960  14.052   2.490   0.678
27021SOL    HW282961  13.987   2.612   0.741
27022SOL     OW82962  11.586   7.213  14.421
27022SOL    HW182963  11.600   7.286  14.480
27022SOL    HW282964  11.529   7.153  14.470
27023SOL     OW82965   7.217   2.991  10.991
27023SOL    HW182966   7.282   3.053  11.025
27023SOL    HW282967   7.143   3.046  10.964
27024SOL     OW82968   3.636   1.941   4.214
27024SOL    HW182969   3.711   1.998   4.234
27024SOL    HW282970   3.659   1.857   4.254
27025SOL     OW82971   7.191   7.079  11.984
27025SOL    HW182972   7.230   7.003  12.028
27025SOL    HW282973   7.230   7.078  11.897
27026SOL     OW82974   1.755  12.609   8.607
27026SOL    HW182975   1.724  12.630   8.695
27026SOL    HW282976   1.680  12.567   8.564
27027SOL     OW82977   2.199   7.933   4.483
27027SOL    HW182978   2.215   8.028   4.481
27027SOL    HW282979   2.286   7.894   4.489
27028SOL     OW82980  10.113   1.855  12.885
27028SOL    HW182981  10.168   1.782  12.855
27028SOL    HW282982  10.049   1.814  12.943
27029SOL     OW82983   7.242   0.078   3.755
27029SOL    HW182984   7.184   0.113   3.688
27029SOL    HW282985   7.245  14.866   3.739
27030SOL     OW82986  14.123  10.388   6.909
27030SOL    HW182987  14.189  10.419   6.847
27030SOL    HW282988  14.068  10.329   6.858
27031SOL     OW82989   4.302   9.800   9.204
27031SOL    HW182990   4.359   9.741   9.155
27031SOL    HW282991   4.217   9.791   9.161
27032SOL     OW82992   0.196   6.259   1.460
27032SOL    HW182993   0.117   6.216   1.494
27032SOL    HW282994   0.181   6.352   1.475
27033SOL     OW82995   9.669   2.189   9.013
27033SOL    HW182996   9.743   2.195   8.954
27033SOL    HW282997   9.682   2.259   9.076
27034SOL     OW82998   5.819   3.991   1.383
27034SOL    HW182999   5.812   3.948   1.298
27034SOL    HW283000   5.729   3.997   1.415
27035SOL     OW83001   2.933  14.659  12.565
27035SOL    HW183002   2.990  14.723  12.607
27035SOL    HW283003   2.856  14.654  12.621
27036SOL     OW83004  13.930   7.517   0.742
27036SOL    HW183005  13.852   7.555   0.701
27036SOL    HW283006  13.940   7.432   0.699
27037SOL     OW83007   6.128   4.457  11.132
27037SOL    HW183008   6.051   4.411  11.166
27037SOL    HW283009   6.114   4.548  11.155
27038SOL     OW83010   1.940   4.989   2.431
27038SOL    HW183011   2.007   4.934   2.390
27038SOL    HW283012   1.895   4.931   2.492
27039SOL     OW83013   2.293  10.372   8.117
27039SOL    HW183014   2.298  10.459   8.157
27039SOL    HW283015   2.234  10.323   8.175
27040SOL     OW83016   3.071   5.906   8.769
27040SOL    HW183017   3.003   5.842   8.788
27040SOL    HW283018   3.093   5.944   8.854
27041SOL     OW83019   1.092   5.359   2.674
27041SOL    HW183020   1.124   5.375   2.762
27041SOL    HW283021   1.109   5.266   2.659
27042SOL     OW83022  13.248   2.086   2.024
27042SOL    HW183023  13.242   2.181   2.024
27042SOL    HW283024  13.177   2.057   1.967
27043SOL     OW83025  11.936   6.974   4.326
27043SOL    HW183026  11.867   6.966   4.392
27043SOL    HW283027  12.016   6.987   4.377
27044SOL     OW83028   3.937   0.926   2.801
27044SOL    HW183029   4.027   0.908   2.828
27044SOL    HW283030   3.934   1.020   2.786
27045SOL     OW83031   4.195   7.093   0.113
27045SOL    HW183032   4.130   7.091   0.043
27045SOL    HW283033   4.149   7.058   0.189
27046SOL     OW83034   3.700   3.148   7.056
27046SOL    HW183035   3.753   3.172   6.980
27046SOL    HW283036   3.635   3.087   7.021
27047SOL     OW83037   6.153   4.370   4.466
27047SOL    HW183038   6.072   4.324   4.445
27047SOL    HW283039   6.178   4.415   4.385
27048SOL     OW83040  10.954   2.775   0.972
27048SOL    HW183041  11.006   2.776   0.892
27048SOL    HW283042  11.005   2.827   1.034
27049SOL     OW83043  11.122  11.253  14.043
27049SOL    HW183044  11.210  11.216  14.048
27049SOL    HW283045  11.065  11.178  14.027
27050SOL     OW83046   1.822  10.093   5.333
27050SOL    HW183047   1.757  10.055   5.273
27050SOL    HW283048   1.904  10.050   5.310
27051SOL     OW83049   8.685   6.614  12.522
27051SOL    HW183050   8.765   6.615  12.470
27051SOL    HW283051   8.707   6.564  12.600
27052SOL     OW83052  14.185  12.391   6.996
27052SOL    HW183053  14.096  12.387   7.031
27052SOL    HW283054  14.239  12.350   7.063
27053SOL     OW83055   7.050   0.896   5.238
27053SOL    HW183056   6.999   0.968   5.275
27053SOL    HW283057   7.139   0.932   5.229
27054SOL     OW83058   8.668  12.509  12.970
27054SOL    HW183059   8.663  12.493  12.876
27054SOL    HW283060   8.592  12.462  13.006
27055SOL     OW83061   1.698   2.211  11.081
27055SOL    HW183062   1.612   2.252  11.089
27055SOL    HW283063   1.724   2.225  10.990
27056SOL     OW83064   2.971   9.993   8.894
27056SOL    HW183065   3.009  10.076   8.919
27056SOL    HW283066   2.880   9.998   8.925
27057SOL     OW83067   7.776   5.132  13.830
27057SOL    HW183068   7.776   5.196  13.901
27057SOL    HW283069   7.732   5.177  13.758
27058SOL     OW83070   9.868  14.028   6.370
27058SOL    HW183071   9.954  14.069   6.385
27058SOL    HW283072   9.845  13.990   6.455
27059SOL     OW83073   3.077   7.464   0.829
27059SOL    HW183074   3.076   7.555   0.858
27059SOL    HW283075   3.048   7.414   0.905
27060SOL     OW83076   7.069   7.219  14.128
27060SOL    HW183077   7.030   7.242  14.043
27060SOL    HW283078   7.124   7.295  14.150
27061SOL     OW83079   7.973  12.737   2.770
27061SOL    HW183080   7.929  12.712   2.852
27061SOL    HW283081   7.905  12.730   2.703
27062SOL     OW83082  11.704   0.508   7.545
27062SOL    HW183083  11.625   0.454   7.536
27062SOL    HW283084  11.686   0.564   7.621
27063SOL     OW83085   2.944   0.077   6.139
27063SOL    HW183086   2.907  14.870   6.138
27063SOL    HW283087   3.016   0.074   6.076
27064SOL     OW83088   5.640  13.365  13.285
27064SOL    HW183089   5.584  13.290  13.305
27064SOL    HW283090   5.729  13.335  13.305
27065SOL     OW83091   3.782   5.459   8.126
27065SOL    HW183092   3.779   5.527   8.194
27065SOL    HW283093   3.703   5.407   8.139
27066SOL     OW83094   5.801   2.161   5.130
27066SOL    HW183095   5.710   2.135   5.111
27066SOL    HW283096   5.800   2.185   5.222
27067SOL     OW83097   9.173   5.098   9.575
27067SOL    HW183098   9.201   5.166   9.515
27067SOL    HW283099   9.225   5.021   9.551
27068SOL     OW83100   4.181  12.850  12.666
27068SOL    HW183101   4.252  12.913  12.666
27068SOL    HW283102   4.102  12.902  12.681
27069SOL     OW83103  10.050  14.756   5.883
27069SOL    HW183104   9.983  14.770   5.951
27069SOL    HW283105  10.086  14.843   5.866
27070SOL     OW83106   3.597   8.800   3.401
27070SOL    HW183107   3.523   8.846   3.363
27070SOL    HW283108   3.658   8.869   3.427
27071SOL     OW83109  14.469  12.482   0.094
27071SOL    HW183110  14.471  12.440   0.008
27071SOL    HW283111  14.561  12.499   0.114
27072SOL     OW83112   3.527   4.033   9.095
27072SOL    HW183113   3.607   4.038   9.044
27072SOL    HW283114   3.553   4.061   9.183
27073SOL     OW83115  14.693   0.154  14.169
27073SOL    HW183116  14.744   0.235  14.163
27073SOL    HW283117  14.758   0.085  14.173
27074SOL     OW83118   4.452   7.405   8.358
27074SOL    HW183119   4.491   7.318   8.356
27074SOL    HW283120   4.479   7.445   8.275
27075SOL     OW83121   3.189   1.513  13.626
27075SOL    HW183122   3.260   1.465  13.583
27075SOL    HW283123   3.233   1.591  13.662
27076SOL     OW83124   3.937  14.172   9.759
27076SOL    HW183125   3.848  14.138   9.771
27076SOL    HW283126   3.976  14.167   9.846
27077SOL     OW83127  11.450   1.452  11.695
27077SOL    HW183128  11.486   1.386  11.753
27077SOL    HW283129  11.419   1.403  11.619
27078SOL     OW83130  14.179   7.921  11.865
27078SOL    HW183131  14.269   7.933  11.897
27078SOL    HW283132  14.134   8.002  11.890
27079SOL     OW83133   8.753   3.654   7.339
27079SOL    HW183134   8.805   3.709   7.398
27079SOL    HW283135   8.777   3.564   7.362
27080SOL     OW83136   2.026   7.115   6.375
27080SOL    HW183137   1.938   7.141   6.347
27080SOL    HW283138   2.076   7.105   6.294
27081SOL     OW83139   5.239  11.197   4.960
27081SOL    HW183140   5.169  11.151   5.007
27081SOL    HW283141   5.320  11.158   4.993
27082SOL     OW83142   5.504   7.395   2.214
27082SOL    HW183143   5.449   7.345   2.153
27082SOL    HW283144   5.506   7.483   2.176
27083SOL     OW83145  14.287  13.059   7.790
27083SOL    HW183146  14.368  13.089   7.750
27083SOL    HW283147  14.250  13.136   7.833
27084SOL     OW83148   6.860   0.980   0.780
27084SOL    HW183149   6.875   0.887   0.765
27084SOL    HW283150   6.938   1.010   0.827
27085SOL     OW83151   2.359   1.749   8.633
27085SOL    HW183152   2.337   1.663   8.597
27085SOL    HW283153   2.288   1.806   8.605
27086SOL     OW83154   8.723   3.242  14.769
27086SOL    HW183155   8.640   3.240  14.722
27086SOL    HW283156   8.759   3.328  14.751
27087SOL     OW83157  12.981  10.190   5.772
27087SOL    HW183158  12.902  10.237   5.799
27087SOL    HW283159  12.998  10.128   5.843
27088SOL     OW83160  12.614   6.443  13.078
27088SOL    HW183161  12.684   6.489  13.031
27088SOL    HW283162  12.572   6.511  13.130
27089SOL     OW83163   0.756  14.694  13.524
27089SOL    HW183164   0.843  14.658  13.541
27089SOL    HW283165   0.748  14.690  13.428
27090SOL     OW83166   1.887  13.467   2.751
27090SOL    HW183167   1.876  13.448   2.658
27090SOL    HW283168   1.975  13.505   2.758
27091SOL     OW83169  14.684   4.723   1.358
27091SOL    HW183170  14.673   4.641   1.405
27091SOL    HW283171  14.622   4.719   1.285
27092SOL     OW83172   8.485   4.312   0.957
27092SOL    HW183173   8.465   4.354   0.873
27092SOL    HW283174   8.455   4.222   0.947
27093SOL     OW83175   9.412  12.687  10.182
27093SOL    HW183176   9.437  12.696  10.274
27093SOL    HW283177   9.488  12.648  10.140
27094SOL     OW83178   6.467   6.498  10.048
27094SOL    HW183179   6.416   6.536   9.977
27094SOL    HW283180   6.527   6.436  10.005
27095SOL     OW83181  11.454   2.245   1.425
27095SOL    HW183182  11.402   2.242   1.505
27095SOL    HW283183  11.469   2.339   1.410
27096SOL     OW83184   5.169  10.135   1.734
27096SOL    HW183185   5.160  10.040   1.744
27096SOL    HW283186   5.088  10.162   1.690
27097SOL     OW83187   9.412   8.809   5.405
27097SOL    HW183188   9.466   8.735   5.434
27097SOL    HW283189   9.463   8.886   5.430
27098SOL     OW83190  12.133  13.828   1.646
27098SOL    HW183191  12.140  13.889   1.573
27098SOL    HW283192  12.039  13.810   1.653
27099SOL     OW83193   7.283   1.992   9.484
27099SOL    HW183194   7.260   1.942   9.405
27099SOL    HW283195   7.279   2.083   9.457
27100SOL     OW83196  10.060  11.504  12.302
27100SOL    HW183197  10.105  11.421  12.286
27100SOL    HW283198   9.982  11.500  12.247
27101SOL     OW83199   7.689  10.840   6.771
27101SOL    HW183200   7.642  10.905   6.824
27101SOL    HW283201   7.773  10.828   6.816
27102SOL     OW83202  12.782  12.523  14.436
27102SOL    HW183203  12.813  12.613  14.447
27102SOL    HW283204  12.828  12.474  14.505
27103SOL     OW83205   4.698  13.425   1.495
27103SOL    HW183206   4.708  13.330   1.495
27103SOL    HW283207   4.737  13.453   1.578
27104SOL     OW83208  14.853   8.836   4.997
27104SOL    HW183209  14.813   8.794   4.921
27104SOL    HW283210   0.063   8.846   4.974
27105SOL     OW83211   2.208  12.124   0.970
27105SOL    HW183212   2.284  12.159   1.016
27105SOL    HW283213   2.192  12.188   0.900
27106SOL     OW83214   5.243  10.786   2.475
27106SOL    HW183215   5.309  10.748   2.417
27106SOL    HW283216   5.284  10.866   2.509
27107SOL     OW83217   0.917  13.450  14.583
27107SOL    HW183218   0.882  13.366  14.554
27107SOL    HW283219   0.996  13.428  14.631
27108SOL     OW83220  11.855   0.664  13.956
27108SOL    HW183221  11.808   0.600  14.010
27108SOL    HW283222  11.874   0.617  13.875
27109SOL     OW83223   5.882   9.267   7.659
27109SOL    HW183224   5.849   9.332   7.596
27109SOL    HW283225   5.972   9.251   7.631
27110SOL     OW83226   4.954   5.110   9.254
27110SOL    HW183227   4.873   5.072   9.288
27110SOL    HW283228   4.957   5.083   9.162
27111SOL     OW83229  11.727   2.291   4.973
27111SOL    HW183230  11.795   2.280   4.906
27111SOL    HW283231  11.742   2.218   5.033
27112SOL     OW83232  12.900   8.672   7.700
27112SOL    HW183233  12.926   8.720   7.622
27112SOL    HW283234  12.919   8.580   7.680
27113SOL     OW83235   9.463   5.976  14.233
27113SOL    HW183236   9.395   5.909  14.226
27113SOL    HW283237   9.415   6.059  14.230
27114SOL     OW83238   0.998   5.024  14.075
27114SOL    HW183239   1.046   4.975  14.008
27114SOL    HW283240   0.946   5.088  14.026
27115SOL     OW83241  14.490   5.189   6.184
27115SOL    HW183242  14.410   5.222   6.144
27115SOL    HW283243  14.557   5.200   6.117
27116SOL     OW83244   4.479   1.930   4.225
27116SOL    HW183245   4.465   1.863   4.292
27116SOL    HW283246   4.397   1.933   4.176
27117SOL     OW83247   9.907  10.150   5.709
27117SOL    HW183248   9.844  10.171   5.641
27117SOL    HW283249   9.882  10.063   5.740
27118SOL     OW83250  13.220   4.864   5.478
27118SOL    HW183251  13.294   4.887   5.535
27118SOL    HW283252  13.218   4.934   5.413
27119SOL     OW83253   0.022  10.526  14.365
27119SOL    HW183254   0.079  10.482  14.302
27119SOL    HW283255  14.870  10.455  14.420
27120SOL     OW83256   4.655  10.675   2.190
27120SOL    HW183257   4.644  10.711   2.278
27120SOL    HW283258   4.573  10.695   2.145
27121SOL     OW83259  10.063   7.914  14.529
27121SOL    HW183260  10.006   7.977  14.572
27121SOL    HW283261  10.005   7.843  14.501
27122SOL     OW83262   7.704   6.990   6.926
27122SOL    HW183263   7.623   7.031   6.896
27122SOL    HW283264   7.696   6.989   7.022
27123SOL     OW83265  10.545   3.568   0.351
27123SOL    HW183266  10.526   3.583   0.258
27123SOL    HW283267  10.640   3.582   0.359
27124SOL     OW83268   4.700   2.167   9.697
27124SOL    HW183269   4.678   2.089   9.748
27124SOL    HW283270   4.617   2.197   9.660
27125SOL     OW83271   2.879   3.819   5.554
27125SOL    HW183272   2.849   3.761   5.483
27125SOL    HW283273   2.915   3.759   5.619
27126SOL     OW83274   1.415   5.625   0.230
27126SOL    HW183275   1.417   5.711   0.273
27126SOL    HW283276   1.329   5.622   0.188
27127SOL     OW83277   0.078   3.558   6.771
27127SOL    HW183278   0.031   3.524   6.848
27127SOL    HW283279   0.051   3.500   6.699
27128SOL     OW83280  12.488   1.987   1.474
27128SOL    HW183281  12.405   1.940   1.469
27128SOL    HW283282  12.529   1.957   1.555
27129SOL     OW83283  14.331   3.867   2.334
27129SOL    HW183284  14.343   3.842   2.242
27129SOL    HW283285  14.250   3.917   2.335
27130SOL     OW83286   0.621   3.352   8.409
27130SOL    HW183287   0.640   3.414   8.339
27130SOL    HW283288   0.708   3.329   8.445
27131SOL     OW83289   3.064   1.812   0.854
27131SOL    HW183290   3.124   1.885   0.835
27131SOL    HW283291   3.061   1.808   0.949
27132SOL     OW83292   4.997  12.881   1.683
27132SOL    HW183293   4.957  12.967   1.700
27132SOL    HW283294   5.085  12.889   1.719
27133SOL     OW83295   5.783   7.598  10.780
27133SOL    HW183296   5.871   7.636  10.774
27133SOL    HW283297   5.745   7.638  10.858
27134SOL     OW83298   5.025   9.131  11.005
27134SOL    HW183299   4.975   9.115  10.924
27134SOL    HW283300   5.004   9.221  11.029
27135SOL     OW83301   4.407   5.566   3.463
27135SOL    HW183302   4.479   5.558   3.400
27135SOL    HW283303   4.353   5.637   3.428
27136SOL     OW83304   4.278   0.592  11.933
27136SOL    HW183305   4.337   0.539  11.879
27136SOL    HW283306   4.276   0.678  11.890
27137SOL     OW83307   2.494  10.385   5.382
27137SOL    HW183308   2.559  10.370   5.450
27137SOL    HW283309   2.418  10.335   5.409
27138SOL     OW83310   0.211   7.349   8.229
27138SOL    HW183311   0.162   7.366   8.309
27138SOL    HW283312   0.198   7.256   8.212
27139SOL     OW83313   6.883   8.734   9.598
27139SOL    HW183314   6.970   8.740   9.637
27139SOL    HW283315   6.832   8.802   9.642
27140SOL     OW83316  12.215  12.715   8.803
27140SOL    HW183317  12.191  12.641   8.747
27140SOL    HW283318  12.150  12.713   8.873
27141SOL     OW83319   7.439   5.004   9.113
27141SOL    HW183320   7.379   5.062   9.067
27141SOL    HW283321   7.480   5.059   9.180
27142SOL     OW83322   7.630   4.618   8.301
27142SOL    HW183323   7.555   4.571   8.264
27142SOL    HW283324   7.625   4.602   8.395
27143SOL     OW83325   5.569  14.513   9.496
27143SOL    HW183326   5.492  14.544   9.544
27143SOL    HW283327   5.642  14.532   9.554
27144SOL     OW83328  14.456   1.833  10.767
27144SOL    HW183329  14.528   1.816  10.828
27144SOL    HW283330  14.440   1.927  10.773
27145SOL     OW83331   6.591  11.863   7.281
27145SOL    HW183332   6.664  11.808   7.255
27145SOL    HW283333   6.548  11.887   7.199
27146SOL     OW83334  10.360   4.116   3.278
27146SOL    HW183335  10.407   4.102   3.195
27146SOL    HW283336  10.341   4.209   3.279
27147SOL     OW83337  11.231   6.878   3.194
27147SOL    HW183338  11.205   6.786   3.191
27147SOL    HW283339  11.309   6.879   3.250
27148SOL     OW83340   1.418   4.304  11.430
27148SOL    HW183341   1.477   4.267  11.364
27148SOL    HW283342   1.431   4.398  11.424
27149SOL     OW83343   4.913   4.214   2.829
27149SOL    HW183344   4.839   4.193   2.773
27149SOL    HW283345   4.877   4.216   2.918
27150SOL     OW83346   8.460   6.809   8.242
27150SOL    HW183347   8.528   6.875   8.230
27150SOL    HW283348   8.442   6.777   8.154
27151SOL     OW83349   7.107   4.877   4.589
27151SOL    HW183350   7.095   4.787   4.619
27151SOL    HW283351   7.202   4.887   4.583
27152SOL     OW83352   2.850   3.773   1.592
27152SOL    HW183353   2.785   3.709   1.565
27152SOL    HW283354   2.805   3.857   1.589
27153SOL     OW83355   1.113  13.181   9.295
27153SOL    HW183356   1.095  13.087   9.289
27153SOL    HW283357   1.208  13.188   9.289
27154SOL     OW83358   2.402   1.035   7.341
27154SOL    HW183359   2.307   1.034   7.328
27154SOL    HW283360   2.416   0.979   7.417
27155SOL     OW83361   3.689   1.424   3.767
27155SOL    HW183362   3.667   1.400   3.857
27155SOL    HW283363   3.781   1.451   3.772
27156SOL     OW83364   8.302   7.742  14.053
27156SOL    HW183365   8.283   7.667  13.998
27156SOL    HW283366   8.218   7.785  14.066
27157SOL     OW83367   3.935  13.137  12.144
27157SOL    HW183368   3.961  13.227  12.129
27157SOL    HW283369   3.968  13.115  12.231
27158SOL     OW83370   9.090   1.982   5.405
27158SOL    HW183371   9.029   1.919   5.445
27158SOL    HW283372   9.046   2.009   5.324
27159SOL     OW83373  14.229   7.344  14.877
27159SOL    HW183374  14.264   7.330  14.789
27159SOL    HW283375  14.245   7.262   0.040
27160SOL     OW83376   6.569   3.576   9.085
27160SOL    HW183377   6.652   3.579   9.132
27160SOL    HW283378   6.590   3.536   9.001
27161SOL     OW83379  11.223   3.231   5.990
27161SOL    HW183380  11.224   3.308   5.933
27161SOL    HW283381  11.152   3.247   6.051
27162SOL     OW83382   2.043   5.140   4.472
27162SOL    HW183383   2.101   5.202   4.429
27162SOL    HW283384   1.962   5.144   4.422
27163SOL     OW83385  11.503   5.433   9.462
27163SOL    HW183386  11.434   5.433   9.527
27163SOL    HW283387  11.459   5.459   9.380
27164SOL     OW83388   7.361   5.119   6.820
27164SOL    HW183389   7.269   5.138   6.805
27164SOL    HW283390   7.407   5.194   6.782
27165SOL     OW83391  13.650   4.982  12.526
27165SOL    HW183392  13.722   4.989  12.588
27165SOL    HW283393  13.676   4.914  12.465
27166SOL     OW83394  14.618   4.224  14.292
27166SOL    HW183395  14.606   4.165  14.367
27166SOL    HW283396  14.638   4.309  14.332
27167SOL     OW83397   7.866   6.346   2.590
27167SOL    HW183398   7.771   6.360   2.588
27167SOL    HW283399   7.880   6.268   2.537
27168SOL     OW83400   1.944   9.700   5.352
27168SOL    HW183401   1.985   9.775   5.310
27168SOL    HW283402   1.877   9.671   5.290
27169SOL     OW83403   7.667   5.634  10.213
27169SOL    HW183404   7.598   5.681  10.168
27169SOL    HW283405   7.748   5.665  10.173
27170SOL     OW83406   5.876  12.637  12.463
27170SOL    HW183407   5.923  12.653  12.545
27170SOL    HW283408   5.938  12.588  12.409
27171SOL     OW83409   5.738   8.808   1.191
27171SOL    HW183410   5.805   8.761   1.242
27171SOL    HW283411   5.683   8.850   1.257
27172SOL     OW83412   7.460   2.197  10.276
27172SOL    HW183413   7.492   2.243  10.199
27172SOL    HW283414   7.537   2.149  10.308
27173SOL     OW83415   3.706  14.869   9.979
27173SOL    HW183416   3.628  14.814   9.982
27173SOL    HW283417   3.775  14.816  10.018
27174SOL     OW83418  12.534   6.741  12.953
27174SOL    HW183419  12.492   6.703  13.030
27174SOL    HW283420  12.607   6.792  12.989
27175SOL     OW83421  11.754   9.636   1.057
27175SOL    HW183422  11.811   9.676   1.123
27175SOL    HW283423  11.685   9.592   1.108
27176SOL     OW83424  11.729   8.636  12.329
27176SOL    HW183425  11.654   8.681  12.367
27176SOL    HW283426  11.730   8.662  12.238
27177SOL     OW83427  14.643  10.262   1.553
27177SOL    HW183428  14.652  10.306   1.468
27177SOL    HW283429  14.668  10.327   1.617
27178SOL     OW83430  10.204   0.845  10.642
27178SOL    HW183431  10.169   0.897  10.570
27178SOL    HW283432  10.148   0.767  10.645
27179SOL     OW83433   3.800   0.204   4.033
27179SOL    HW183434   3.737   0.213   3.961
27179SOL    HW283435   3.833   0.292   4.048
27180SOL     OW83436   3.937   4.969   5.818
27180SOL    HW183437   3.957   4.876   5.811
27180SOL    HW283438   3.977   5.009   5.741
27181SOL     OW83439   3.326  13.969   4.828
27181SOL    HW183440   3.402  13.912   4.840
27181SOL    HW283441   3.349  14.051   4.871
27182SOL     OW83442   9.083   1.737   2.493
27182SOL    HW183443   9.015   1.797   2.461
27182SOL    HW283444   9.152   1.794   2.527
27183SOL     OW83445  14.245   6.415   0.997
27183SOL    HW183446  14.205   6.350   0.938
27183SOL    HW283447  14.325   6.372   1.028
27184SOL     OW83448   7.295  12.065  13.486
27184SOL    HW183449   7.323  12.129  13.552
27184SOL    HW283450   7.337  12.093  13.405
27185SOL     OW83451   0.418   6.240  11.458
27185SOL    HW183452   0.346   6.221  11.518
27185SOL    HW283453   0.492   6.191  11.494
27186SOL     OW83454  13.497   2.979   0.839
27186SOL    HW183455  13.557   2.904   0.828
27186SOL    HW283456  13.480   2.981   0.933
27187SOL     OW83457  12.189   2.878  14.650
27187SOL    HW183458  12.228   2.943  14.708
27187SOL    HW283459  12.170   2.927  14.570
27188SOL     OW83460   8.722   4.170  12.029
27188SOL    HW183461   8.807   4.166  12.073
27188SOL    HW283462   8.660   4.190  12.099
27189SOL     OW83463   1.368  13.929  11.676
27189SOL    HW183464   1.454  13.971  11.669
27189SOL    HW283465   1.319  13.986  11.735
27190SOL     OW83466  11.370   8.521  14.256
27190SOL    HW183467  11.295   8.473  14.291
27190SOL    HW283468  11.408   8.461  14.192
27191SOL     OW83469   2.887   4.751   5.981
27191SOL    HW183470   2.819   4.815   5.960
27191SOL    HW283471   2.950   4.799   6.034
27192SOL     OW83472   7.983   2.598   1.115
27192SOL    HW183473   8.049   2.529   1.112
27192SOL    HW283474   8.010   2.653   1.189
27193SOL     OW83475   0.525   5.238  14.681
27193SOL    HW183476   0.461   5.305  14.702
27193SOL    HW283477   0.535   5.188  14.762
27194SOL     OW83478   1.218   0.244  11.608
27194SOL    HW183479   1.162   0.318  11.632
27194SOL    HW283480   1.157   0.174  11.587
27195SOL     OW83481  13.927  12.324  10.134
27195SOL    HW183482  13.941  12.383  10.208
27195SOL    HW283483  13.928  12.236  10.174
27196SOL     OW83484  10.111  14.612  12.171
27196SOL    HW183485  10.132  14.624  12.264
27196SOL    HW283486  10.082  14.699  12.142
27197SOL     OW83487   9.159   6.946   8.165
27197SOL    HW183488   9.168   7.030   8.209
27197SOL    HW283489   9.226   6.890   8.205
27198SOL     OW83490   2.790   9.198   0.012
27198SOL    HW183491   2.738   9.210  14.815
27198SOL    HW283492   2.757   9.264   0.073
27199SOL     OW83493  14.060   6.798   8.349
27199SOL    HW183494  14.037   6.817   8.440
27199SOL    HW283495  13.991   6.739   8.318
27200SOL     OW83496   4.100  14.136   9.990
27200SOL    HW183497   4.161  14.182   9.933
27200SOL    HW283498   4.147  14.058  10.019
27201SOL     OW83499   4.031   7.019   3.937
27201SOL    HW183500   4.058   7.003   3.847
27201SOL    HW283501   4.011   7.112   3.940
27202SOL     OW83502   1.305  10.079   7.304
27202SOL    HW183503   1.242  10.109   7.239
27202SOL    HW283504   1.382  10.134   7.290
27203SOL     OW83505   0.181  14.538  12.304
27203SOL    HW183506   0.207  14.516  12.214
27203SOL    HW283507   0.263  14.565  12.346
27204SOL     OW83508   1.794  12.284  14.357
27204SOL    HW183509   1.865  12.256  14.300
27204SOL    HW283510   1.827  12.271  14.446
27205SOL     OW83511  11.583   3.721   4.270
27205SOL    HW183512  11.498   3.699   4.231
27205SOL    HW283513  11.619   3.788   4.212
27206SOL     OW83514  12.656   3.978   7.325
27206SOL    HW183515  12.719   4.026   7.378
27206SOL    HW283516  12.580   4.036   7.319
27207SOL     OW83517   8.708   4.509  13.301
27207SOL    HW183518   8.700   4.488  13.394
27207SOL    HW283519   8.779   4.453  13.269
27208SOL     OW83520   8.480   4.387   1.231
27208SOL    HW183521   8.485   4.373   1.137
27208SOL    HW283522   8.424   4.465   1.241
27209SOL     OW83523   1.167  14.166   1.671
27209SOL    HW183524   1.232  14.150   1.740
27209SOL    HW283525   1.166  14.085   1.619
27210SOL     OW83526   0.164  13.728   9.417
27210SOL    HW183527   0.250  13.688   9.402
27210SOL    HW283528   0.132  13.751   9.330
27211SOL     OW83529  13.287  12.367   6.856
27211SOL    HW183530  13.365  12.316   6.833
27211SOL    HW283531  13.214  12.316   6.820
27212SOL     OW83532  12.233  14.785  11.746
27212SOL    HW183533  12.146  14.745  11.746
27212SOL    HW283534  12.224  14.863  11.800
27213SOL     OW83535   9.563   6.993   9.517
27213SOL    HW183536   9.610   7.065   9.473
27213SOL    HW283537   9.626   6.921   9.517
27214SOL     OW83538   6.826   3.266   1.987
27214SOL    HW183539   6.784   3.217   1.916
27214SOL    HW283540   6.870   3.200   2.039
27215SOL     OW83541   8.634  12.508  12.689
27215SOL    HW183542   8.569  12.539  12.626
27215SOL    HW283543   8.713  12.495  12.637
27216SOL     OW83544   5.109   7.339   8.980
27216SOL    HW183545   5.093   7.399   8.907
27216SOL    HW283546   5.077   7.386   9.057
27217SOL     OW83547  10.705   8.031   1.619
27217SOL    HW183548  10.681   7.971   1.549
27217SOL    HW283549  10.795   8.058   1.597
27218SOL     OW83550   6.632   7.033  13.815
27218SOL    HW183551   6.557   7.092  13.821
27218SOL    HW283552   6.628   6.980  13.895
27219SOL     OW83553   4.643   6.639   1.851
27219SOL    HW183554   4.560   6.667   1.890
27219SOL    HW283555   4.620   6.618   1.760
27220SOL     OW83556   5.455   0.562   5.829
27220SOL    HW183557   5.483   0.565   5.921
27220SOL    HW283558   5.488   0.478   5.797
27221SOL     OW83559   4.360  12.787   9.175
27221SOL    HW183560   4.358  12.713   9.236
27221SOL    HW283561   4.391  12.749   9.093
27222SOL     OW83562   1.200   6.638   1.030
27222SOL    HW183563   1.166   6.642   1.119
27222SOL    HW283564   1.291   6.666   1.038
27223SOL     OW83565   6.197  10.183  12.668
27223SOL    HW183566   6.153  10.269  12.662
27223SOL    HW283567   6.208  10.155  12.578
27224SOL     OW83568  12.717   1.222  11.212
27224SOL    HW183569  12.696   1.315  11.219
27224SOL    HW283570  12.701   1.188  11.300
27225SOL     OW83571   1.535   6.547   1.609
27225SOL    HW183572   1.579   6.630   1.591
27225SOL    HW283573   1.509   6.514   1.523
27226SOL     OW83574   3.593   1.659   3.157
27226SOL    HW183575   3.638   1.575   3.150
27226SOL    HW283576   3.662   1.724   3.169
27227SOL     OW83577  13.336   0.365   8.005
27227SOL    HW183578  13.250   0.396   7.978
27227SOL    HW283579  13.339   0.382   8.099
27228SOL     OW83580  10.788   6.486   9.178
27228SOL    HW183581  10.872   6.518   9.146
27228SOL    HW283582  10.798   6.481   9.273
27229SOL     OW83583  13.589  12.735   1.974
27229SOL    HW183584  13.647  12.743   2.050
27229SOL    HW283585  13.647  12.713   1.902
27230SOL     OW83586   9.693   6.487  14.258
27230SOL    HW183587   9.605   6.456  14.233
27230SOL    HW283588   9.683   6.516  14.349
27231SOL     OW83589   1.257  13.269   6.788
27231SOL    HW183590   1.339  13.287   6.834
27231SOL    HW283591   1.196  13.242   6.856
27232SOL     OW83592   0.787   9.179   0.035
27232SOL    HW183593   0.791   9.257   0.089
27232SOL    HW283594   0.742   9.114   0.089
27233SOL     OW83595   9.553   3.442   3.418
27233SOL    HW183596   9.618   3.503   3.454
27233SOL    HW283597   9.604   3.382   3.364
27234SOL     OW83598   9.415   8.128  14.506
27234SOL    HW183599   9.472   8.058  14.538
27234SOL    HW283600   9.471   8.206  14.506
27235SOL     OW83601   9.823   2.309  14.382
27235SOL    HW183602   9.747   2.355  14.348
27235SOL    HW283603   9.818   2.222  14.342
27236SOL     OW83604   9.448   6.578   4.389
27236SOL    HW183605   9.461   6.672   4.376
27236SOL    HW283606   9.511   6.554   4.456
27237SOL     OW83607   6.196   7.686  12.134
27237SOL    HW183608   6.133   7.624  12.172
27237SOL    HW283609   6.158   7.772  12.152
27238SOL     OW83610   9.815   0.828   7.996
27238SOL    HW183611   9.792   0.770   8.070
27238SOL    HW283612   9.910   0.836   8.001
27239SOL     OW83613   6.445   5.602   4.433
27239SOL    HW183614   6.484   5.636   4.353
27239SOL    HW283615   6.379   5.668   4.458
27240SOL     OW83616   6.289   5.907   8.697
27240SOL    HW183617   6.294   5.975   8.630
27240SOL    HW283618   6.226   5.844   8.663
27241SOL     OW83619   5.103   5.077   4.439
27241SOL    HW183620   5.014   5.046   4.421
27241SOL    HW283621   5.117   5.146   4.374
27242SOL     OW83622  12.227   1.043   4.465
27242SOL    HW183623  12.186   1.077   4.386
27242SOL    HW283624  12.227   1.117   4.526
27243SOL     OW83625   2.275   5.714   4.675
27243SOL    HW183626   2.349   5.657   4.697
27243SOL    HW283627   2.239   5.677   4.595
27244SOL     OW83628   1.790   9.176  14.510
27244SOL    HW183629   1.766   9.169  14.417
27244SOL    HW283630   1.884   9.193  14.509
27245SOL     OW83631  11.962  13.115  11.657
27245SOL    HW183632  11.970  13.076  11.570
27245SOL    HW283633  11.906  13.192  11.644
27246SOL     OW83634   6.957   3.962  13.875
27246SOL    HW183635   6.967   3.992  13.966
27246SOL    HW283636   6.976   3.868  13.879
27247SOL     OW83637   4.695   3.245   1.050
27247SOL    HW183638   4.664   3.325   1.010
27247SOL    HW283639   4.652   3.175   1.001
27248SOL     OW83640  11.014  13.838   4.329
27248SOL    HW183641  10.987  13.766   4.386
27248SOL    HW283642  11.056  13.901   4.388
27249SOL     OW83643   7.167  11.211  12.269
27249SOL    HW183644   7.110  11.135  12.282
27249SOL    HW283645   7.245  11.176  12.226
27250SOL     OW83646   5.950   7.998   2.753
27250SOL    HW183647   6.020   8.059   2.777
27250SOL    HW283648   5.879   8.054   2.722
27251SOL     OW83649   5.404   9.326   3.904
27251SOL    HW183650   5.466   9.399   3.910
27251SOL    HW283651   5.370   9.316   3.993
27252SOL     OW83652   6.993   9.979   0.727
27252SOL    HW183653   6.953   9.997   0.812
27252SOL    HW283654   7.011   9.886   0.728
27253SOL     OW83655   7.897   7.104   4.745
27253SOL    HW183656   7.923   7.029   4.799
27253SOL    HW283657   7.891   7.176   4.807
27254SOL     OW83658   4.066   9.889   5.899
27254SOL    HW183659   4.121   9.813   5.920
27254SOL    HW283660   4.060   9.937   5.982
27255SOL     OW83661   1.940   6.912  12.548
27255SOL    HW183662   1.860   6.868  12.579
27255SOL    HW283663   1.933   7.001  12.581
27256SOL     OW83664  11.154   0.424  10.012
27256SOL    HW183665  11.069   0.448  10.049
27256SOL    HW283666  11.136   0.352   9.952
27257SOL     OW83667   8.472   3.853   7.134
27257SOL    HW183668   8.530   3.783   7.103
27257SOL    HW283669   8.477   3.847   7.229
27258SOL     OW83670  11.052   3.311   0.698
27258SOL    HW183671  11.034   3.402   0.675
27258SOL    HW283672  11.098   3.276   0.621
27259SOL     OW83673   0.846  12.522   1.239
27259SOL    HW183674   0.854  12.518   1.334
27259SOL    HW283675   0.914  12.584   1.212
27260SOL     OW83676   7.827   1.469   8.591
27260SOL    HW183677   7.890   1.460   8.663
27260SOL    HW283678   7.824   1.563   8.574
27261SOL     OW83679  11.374  11.721  10.394
27261SOL    HW183680  11.439  11.774  10.348
27261SOL    HW283681  11.309  11.699  10.327
27262SOL     OW83682   3.118   1.302   3.478
27262SOL    HW183683   3.201   1.291   3.524
27262SOL    HW283684   3.135   1.372   3.414
27263SOL     OW83685  14.148   1.130   9.613
27263SOL    HW183686  14.135   1.084   9.530
27263SOL    HW283687  14.235   1.103   9.642
27264SOL     OW83688   4.152   2.574   6.265
27264SOL    HW183689   4.168   2.653   6.214
27264SOL    HW283690   4.128   2.508   6.200
27265SOL     OW83691   4.037   1.639   0.582
27265SOL    HW183692   4.122   1.680   0.564
27265SOL    HW283693   3.994   1.635   0.497
27266SOL     OW83694   4.798   1.759   8.688
27266SOL    HW183695   4.889   1.741   8.708
27266SOL    HW283696   4.767   1.680   8.644
27267SOL     OW83697   3.639   1.049   4.019
27267SOL    HW183698   3.697   1.013   4.086
27267SOL    HW283699   3.690   1.043   3.938
27268SOL     OW83700  10.737   8.020  13.665
27268SOL    HW183701  10.797   7.949  13.645
27268SOL    HW283702  10.688   7.989  13.741
27269SOL     OW83703   4.017   6.177  11.876
27269SOL    HW183704   3.945   6.237  11.894
27269SOL    HW283705   3.996   6.098  11.927
27270SOL     OW83706   6.803   7.883   0.402
27270SOL    HW183707   6.897   7.883   0.422
27270SOL    HW283708   6.787   7.969   0.363
27271SOL     OW83709   2.299  12.730  13.232
27271SOL    HW183710   2.339  12.643  13.228
27271SOL    HW283711   2.205  12.714  13.220
27272SOL     OW83712   6.940   7.417  12.037
27272SOL    HW183713   6.999   7.346  12.063
27272SOL    HW283714   6.964   7.490  12.095
27273SOL     OW83715   7.504   8.148   5.465
27273SOL    HW183716   7.539   8.121   5.381
27273SOL    HW283717   7.409   8.145   5.454
27274SOL     OW83718   9.291   0.799   2.482
27274SOL    HW183719   9.278   0.735   2.411
27274SOL    HW283720   9.373   0.844   2.458
27275SOL     OW83721  10.701   2.941  14.092
27275SOL    HW183722  10.629   2.905  14.145
27275SOL    HW283723  10.778   2.931  14.148
27276SOL     OW83724  11.644  11.547   5.314
27276SOL    HW183725  11.610  11.476   5.260
27276SOL    HW283726  11.659  11.619   5.252
27277SOL     OW83727  12.317   3.646   4.031
27277SOL    HW183728  12.397   3.600   4.058
27277SOL    HW283729  12.261   3.642   4.109
27278SOL     OW83730   6.662   2.552   3.979
27278SOL    HW183731   6.687   2.640   4.007
27278SOL    HW283732   6.734   2.523   3.923
27279SOL     OW83733  10.167   5.834  10.035
27279SOL    HW183734  10.154   5.853  10.128
27279SOL    HW283735  10.147   5.916   9.991
27280SOL     OW83736   4.025  12.269  11.434
27280SOL    HW183737   4.028  12.310  11.521
27280SOL    HW283738   3.932  12.264  11.413
27281SOL     OW83739   9.172  11.437   7.321
27281SOL    HW183740   9.146  11.384   7.245
27281SOL    HW283741   9.262  11.409   7.339
27282SOL     OW83742   8.655   9.345   9.227
27282SOL    HW183743   8.675   9.383   9.312
27282SOL    HW283744   8.642   9.252   9.244
27283SOL     OW83745   5.402  12.419   0.742
27283SOL    HW183746   5.472  12.382   0.796
27283SOL    HW283747   5.349  12.343   0.716
27284SOL     OW83748  13.975  11.015   7.950
27284SOL    HW183749  13.988  11.086   7.887
27284SOL    HW283750  13.968  10.936   7.896
27285SOL     OW83751   5.414   5.070   5.097
27285SOL    HW183752   5.470   5.021   5.037
27285SOL    HW283753   5.410   5.158   5.059
27286SOL     OW83754  11.531   0.688  13.397
27286SOL    HW183755  11.612   0.664  13.443
27286SOL    HW283756  11.499   0.606  13.360
27287SOL     OW83757   0.139   5.150   2.308
27287SOL    HW183758   0.195   5.204   2.252
27287SOL    HW283759   0.176   5.162   2.396
27288SOL     OW83760  12.714   1.396  11.995
27288SOL    HW183761  12.630   1.352  11.986
27288SOL    HW283762  12.731   1.398  12.089
27289SOL     OW83763   8.296   6.655   4.607
27289SOL    HW183764   8.233   6.727   4.614
27289SOL    HW283765   8.242   6.579   4.584
27290SOL     OW83766  10.181   6.518   4.864
27290SOL    HW183767  10.169   6.541   4.957
27290SOL    HW283768  10.129   6.438   4.852
27291SOL     OW83769   3.793  13.296  10.959
27291SOL    HW183770   3.884  13.323  10.966
27291SOL    HW283771   3.750  13.336  11.035
27292SOL     OW83772  14.774   4.314   9.825
27292SOL    HW183773  14.698   4.371   9.840
27292SOL    HW283774  14.832   4.332   9.899
27293SOL     OW83775   3.734   4.473   7.221
27293SOL    HW183776   3.671   4.532   7.262
27293SOL    HW283777   3.743   4.506   7.131
27294SOL     OW83778   3.802   0.335   1.763
27294SOL    HW183779   3.858   0.270   1.721
27294SOL    HW283780   3.762   0.382   1.690
27295SOL     OW83781   6.089   6.554  11.386
27295SOL    HW183782   6.026   6.624  11.404
27295SOL    HW283783   6.174   6.596  11.393
27296SOL     OW83784   9.528   8.995   5.580
27296SOL    HW183785   9.468   8.936   5.625
27296SOL    HW283786   9.558   9.056   5.647
27297SOL     OW83787  12.896  10.865   5.079
27297SOL    HW183788  12.899  10.885   5.173
27297SOL    HW283789  12.931  10.944   5.038
27298SOL     OW83790   1.980  14.186  11.096
27298SOL    HW183791   2.001  14.276  11.071
27298SOL    HW283792   1.957  14.192  11.188
27299SOL     OW83793  10.747  11.697  12.590
27299SOL    HW183794  10.771  11.604  12.592
27299SOL    HW283795  10.804  11.735  12.524
27300SOL     OW83796   7.024   1.260  13.464
27300SOL    HW183797   7.000   1.293  13.377
27300SOL    HW283798   7.047   1.338  13.514
27301SOL     OW83799  11.410  13.155   7.643
27301SOL    HW183800  11.377  13.141   7.554
27301SOL    HW283801  11.428  13.249   7.647
27302SOL     OW83802   1.258  10.588  10.522
27302SOL    HW183803   1.240  10.620  10.434
27302SOL    HW283804   1.328  10.645  10.555
27303SOL     OW83805   8.681   4.157   4.234
27303SOL    HW183806   8.765   4.145   4.278
27303SOL    HW283807   8.692   4.118   4.148
27304SOL     OW83808   5.808   8.545   0.846
27304SOL    HW183809   5.877   8.524   0.783
27304SOL    HW283810   5.822   8.637   0.867
27305SOL     OW83811   4.662   2.735   7.214
27305SOL    HW183812   4.689   2.723   7.123
27305SOL    HW283813   4.676   2.649   7.254
27306SOL     OW83814   3.824   0.791   8.526
27306SOL    HW183815   3.898   0.830   8.479
27306SOL    HW283816   3.767   0.758   8.457
27307SOL     OW83817  14.176  14.816  13.129
27307SOL    HW183818  14.205  14.733  13.166
27307SOL    HW283819  14.183  14.879  13.201
27308SOL     OW83820   0.349  13.108  14.414
27308SOL    HW183821   0.324  13.016  14.424
27308SOL    HW283822   0.439  13.112  14.446
27309SOL     OW83823   3.849   2.254   8.900
27309SOL    HW183824   3.840   2.159   8.908
27309SOL    HW283825   3.849   2.270   8.806
27310SOL     OW83826  14.794  14.843   9.423
27310SOL    HW183827  14.838  14.771   9.379
27310SOL    HW283828  14.853  14.866   9.495
27311SOL     OW83829   0.941   4.923  11.448
27311SOL    HW183830   0.864   4.959  11.493
27311SOL    HW283831   1.012   4.929  11.512
27312SOL     OW83832   5.074  10.716   3.175
27312SOL    HW183833   5.056  10.711   3.268
27312SOL    HW283834   5.165  10.745   3.170
27313SOL     OW83835   9.164  13.878  11.573
27313SOL    HW183836   9.197  13.804  11.522
27313SOL    HW283837   9.206  13.955  11.534
27314SOL     OW83838   2.043  12.122   6.192
27314SOL    HW183839   1.990  12.172   6.254
27314SOL    HW283840   2.052  12.036   6.233
27315SOL     OW83841   4.880  10.640   8.938
27315SOL    HW183842   4.956  10.607   8.889
27315SOL    HW283843   4.813  10.574   8.927
27316SOL     OW83844  12.385  12.201  14.091
27316SOL    HW183845  12.303  12.180  14.134
27316SOL    HW283846  12.385  12.296  14.081
27317SOL     OW83847   7.038  11.752   8.022
27317SOL    HW183848   7.032  11.682   7.956
27317SOL    HW283849   6.996  11.715   8.100
27318SOL     OW83850   2.678  14.149   5.384
27318SOL    HW183851   2.643  14.080   5.328
27318SOL    HW283852   2.756  14.180   5.337
27319SOL     OW83853   2.732  13.764   9.218
27319SOL    HW183854   2.820  13.794   9.243
27319SOL    HW283855   2.680  13.845   9.214
27320SOL     OW83856   9.282   8.998   5.194
27320SOL    HW183857   9.309   8.939   5.265
27320SOL    HW283858   9.187   8.988   5.189
27321SOL     OW83859  11.774  11.270   3.200
27321SOL    HW183860  11.691  11.315   3.188
27321SOL    HW283861  11.769  11.234   3.289
27322SOL     OW83862  13.090   5.011  12.485
27322SOL    HW183863  13.117   4.974  12.569
27322SOL    HW283864  13.059   4.936  12.434
27323SOL     OW83865   3.876   6.964   6.158
27323SOL    HW183866   3.889   6.878   6.118
27323SOL    HW283867   3.946   6.972   6.223
27324SOL     OW83868   2.637  11.803   7.282
27324SOL    HW183869   2.579  11.873   7.251
27324SOL    HW283870   2.628  11.734   7.217
27325SOL     OW83871   9.042   8.835   0.350
27325SOL    HW183872   9.049   8.780   0.428
27325SOL    HW283873   9.091   8.787   0.282
27326SOL     OW83874   6.660  13.397  10.392
27326SOL    HW183875   6.659  13.482  10.347
27326SOL    HW283876   6.569  13.366  10.384
27327SOL     OW83877  14.256   9.251   1.417
27327SOL    HW183878  14.280   9.295   1.499
27327SOL    HW283879  14.338   9.216   1.384
27328SOL     OW83880   7.401   0.762   7.858
27328SOL    HW183881   7.346   0.837   7.834
27328SOL    HW283882   7.366   0.690   7.806
27329SOL     OW83883   0.128   2.481   4.569
27329SOL    HW183884   0.102   2.490   4.661
27329SOL    HW283885   0.211   2.527   4.563
27330SOL     OW83886   7.271   4.155  14.791
27330SOL    HW183887   7.192   4.209  14.780
27330SOL    HW283888   7.244   4.086  14.852
27331SOL     OW83889   6.570  12.178  12.560
27331SOL    HW183890   6.517  12.124  12.618
27331SOL    HW283891   6.651  12.129  12.549
27332SOL     OW83892   5.003   1.094   1.051
27332SOL    HW183893   4.954   1.166   1.092
27332SOL    HW283894   4.942   1.057   0.987
27333SOL     OW83895   6.902   6.159   7.792
27333SOL    HW183896   6.867   6.193   7.874
27333SOL    HW283897   6.985   6.205   7.779
27334SOL     OW83898   8.254   8.484   0.040
27334SOL    HW183899   8.270   8.422  14.851
27334SOL    HW283900   8.245   8.429   0.118
27335SOL     OW83901   6.407  11.026   5.715
27335SOL    HW183902   6.457  11.094   5.669
27335SOL    HW283903   6.343  11.074   5.766
27336SOL     OW83904  12.118  14.723  14.521
27336SOL    HW183905  12.041  14.735  14.465
27336SOL    HW283906  12.174  14.798  14.499
27337SOL     OW83907  14.460  13.146   1.719
27337SOL    HW183908  14.540  13.139   1.772
27337SOL    HW283909  14.391  13.164   1.783
27338SOL     OW83910  13.906  11.976  12.546
27338SOL    HW183911  13.844  11.981  12.619
27338SOL    HW283912  13.875  12.042  12.483
27339SOL     OW83913   0.578  11.066   4.980
27339SOL    HW183914   0.667  11.101   4.986
27339SOL    HW283915   0.523  11.142   4.962
27340SOL     OW83916  11.053   3.375   5.520
27340SOL    HW183917  11.140   3.412   5.509
27340SOL    HW283918  11.018   3.419   5.598
27341SOL     OW83919   6.917   9.172  11.861
27341SOL    HW183920   6.877   9.134  11.939
27341SOL    HW283921   7.006   9.194  11.887
27342SOL     OW83922   2.472   7.074   9.660
27342SOL    HW183923   2.459   7.020   9.738
27342SOL    HW283924   2.398   7.135   9.661
27343SOL     OW83925   8.560  11.168   0.929
27343SOL    HW183926   8.533  11.236   0.991
27343SOL    HW283927   8.633  11.124   0.972
27344SOL     OW83928   7.121   3.127   4.675
27344SOL    HW183929   7.165   3.171   4.748
27344SOL    HW283930   7.178   3.144   4.600
27345SOL     OW83931  14.454   9.296   1.736
27345SOL    HW183932  14.443   9.391   1.727
27345SOL    HW283933  14.545   9.280   1.713
27346SOL     OW83934   9.421   3.166   2.818
27346SOL    HW183935   9.425   3.110   2.741
27346SOL    HW283936   9.335   3.149   2.857
27347SOL     OW83937   1.617  12.983   9.479
27347SOL    HW183938   1.532  12.963   9.519
27347SOL    HW283939   1.600  12.982   9.385
27348SOL     OW83940   4.421   1.169   6.576
27348SOL    HW183941   4.388   1.204   6.659
27348SOL    HW283942   4.362   1.205   6.510
27349SOL     OW83943  14.691  11.498   2.535
27349SOL    HW183944  14.723  11.555   2.604
27349SOL    HW283945  14.598  11.519   2.528
27350SOL     OW83946   3.084  13.125  12.885
27350SOL    HW183947   3.084  13.031  12.900
27350SOL    HW283948   3.165  13.142  12.837
27351SOL     OW83949   7.896   2.232   2.642
27351SOL    HW183950   7.814   2.227   2.691
27351SOL    HW283951   7.951   2.165   2.681
27352SOL     OW83952   9.347   5.288   7.993
27352SOL    HW183953   9.270   5.255   7.945
27352SOL    HW283954   9.383   5.210   8.036
27353SOL     OW83955  11.068   2.224   8.650
27353SOL    HW183956  10.995   2.284   8.636
27353SOL    HW283957  11.066   2.165   8.575
27354SOL     OW83958   3.911   2.889   8.574
27354SOL    HW183959   3.923   2.805   8.619
27354SOL    HW283960   3.997   2.908   8.536
27355SOL     OW83961   3.156   3.654   1.725
27355SOL    HW183962   3.128   3.597   1.653
27355SOL    HW283963   3.181   3.736   1.683
27356SOL     OW83964   8.958  11.860   9.597
27356SOL    HW183965   8.921  11.870   9.685
27356SOL    HW283966   9.052  11.853   9.612
27357SOL     OW83967   2.570  14.214   4.752
27357SOL    HW183968   2.602  14.142   4.808
27357SOL    HW283969   2.560  14.174   4.666
27358SOL     OW83970   0.145   7.776   7.729
27358SOL    HW183971   0.143   7.827   7.648
27358SOL    HW283972   0.059   7.734   7.733
27359SOL     OW83973  11.502   2.051  14.649
27359SOL    HW183974  11.442   2.025  14.720
27359SOL    HW283975  11.481   1.992  14.577
27360SOL     OW83976   9.373   8.983  10.388
27360SOL    HW183977   9.456   8.944  10.361
27360SOL    HW283978   9.354   9.049  10.322
27361SOL     OW83979   9.936   4.602  10.542
27361SOL    HW183980  10.018   4.638  10.508
27361SOL    HW283981   9.953   4.508  10.549
27362SOL     OW83982   3.610   2.203  14.711
27362SOL    HW183983   3.673   2.233  14.646
27362SOL    HW283984   3.536   2.170  14.660
27363SOL     OW83985   6.070   9.801  11.288
27363SOL    HW183986   5.988   9.751  11.288
27363SOL    HW283987   6.047   9.884  11.329
27364SOL     OW83988   3.111  10.845   4.500
27364SOL    HW183989   3.115  10.774   4.436
27364SOL    HW283990   3.018  10.853   4.520
27365SOL     OW83991  12.949  14.509  13.610
27365SOL    HW183992  13.036  14.471  13.607
27365SOL    HW283993  12.964  14.603  13.602
27366SOL     OW83994   5.707  10.807   9.285
27366SOL    HW183995   5.674  10.722   9.312
27366SOL    HW283996   5.633  10.849   9.241
27367SOL     OW83997  14.754   1.568   0.420
27367SOL    HW183998  14.799   1.588   0.339
27367SOL    HW283999  14.798   1.490   0.454
27368SOL     OW84000  10.716   0.612  10.729
27368SOL    HW184001  10.718   0.703  10.700
27368SOL    HW284002  10.806   0.581  10.718
27369SOL     OW84003  12.473  10.970   0.363
27369SOL    HW184004  12.547  10.945   0.418
27369SOL    HW284005  12.436  11.047   0.406
27370SOL     OW84006   0.230   0.547  13.743
27370SOL    HW184007   0.177   0.488  13.690
27370SOL    HW284008   0.190   0.633  13.728
27371SOL     OW84009   8.102   6.697   2.389
27371SOL    HW184010   8.094   6.625   2.452
27371SOL    HW284011   8.017   6.741   2.393
27372SOL     OW84012  11.608   5.750   2.409
27372SOL    HW184013  11.577   5.814   2.345
27372SOL    HW284014  11.701   5.770   2.419
27373SOL     OW84015   2.279  11.359   1.264
27373SOL    HW184016   2.319  11.273   1.248
27373SOL    HW284017   2.261  11.394   1.177
27374SOL     OW84018   8.577   6.517   3.430
27374SOL    HW184019   8.553   6.571   3.506
27374SOL    HW284020   8.563   6.574   3.354
27375SOL     OW84021   3.407  10.090   3.176
27375SOL    HW184022   3.362  10.098   3.260
27375SOL    HW284023   3.390  10.173   3.131
27376SOL     OW84024   5.231  12.879   3.887
27376SOL    HW184025   5.191  12.921   3.811
27376SOL    HW284026   5.157  12.860   3.945
27377SOL     OW84027   9.884   6.841  11.444
27377SOL    HW184028   9.898   6.894  11.523
27377SOL    HW284029   9.804   6.875  11.405
27378SOL     OW84030  10.586   3.920   1.549
27378SOL    HW184031  10.579   3.930   1.644
27378SOL    HW284032  10.679   3.903   1.534
27379SOL     OW84033   1.197   8.558   2.456
27379SOL    HW184034   1.274   8.504   2.475
27379SOL    HW284035   1.148   8.559   2.538
27380SOL     OW84036  11.626  10.445  14.409
27380SOL    HW184037  11.570  10.398  14.347
27380SOL    HW284038  11.715  10.426  14.380
27381SOL     OW84039  11.846  12.037   7.085
27381SOL    HW184040  11.904  12.077   7.021
27381SOL    HW284041  11.861  12.086   7.166
27382SOL     OW84042  13.091   7.561  13.852
27382SOL    HW184043  13.094   7.468  13.830
27382SOL    HW284044  13.058   7.604  13.773
27383SOL     OW84045  14.139   9.522  11.306
27383SOL    HW184046  14.227   9.546  11.332
27383SOL    HW284047  14.111   9.592  11.246
27384SOL     OW84048   8.136  12.217   5.760
27384SOL    HW184049   8.230  12.238   5.762
27384SOL    HW284050   8.127  12.146   5.824
27385SOL     OW84051  10.974  14.220   3.781
27385SOL    HW184052  10.898  14.163   3.778
27385SOL    HW284053  10.980  14.259   3.694
27386SOL     OW84054   4.157  13.417  12.173
27386SOL    HW184055   4.126  13.394  12.261
27386SOL    HW284056   4.169  13.512  12.176
27387SOL     OW84057   3.767   9.445  13.116
27387SOL    HW184058   3.829   9.373  13.104
27387SOL    HW284059   3.771   9.494  13.034
27388SOL     OW84060   4.624   9.195   8.438
27388SOL    HW184061   4.606   9.101   8.430
27388SOL    HW284062   4.591   9.233   8.356
27389SOL     OW84063  14.118   9.056  14.183
27389SOL    HW184064  14.025   9.043  14.201
27389SOL    HW284065  14.137   8.998  14.110
27390SOL     OW84066  14.305   2.357   5.504
27390SOL    HW184067  14.252   2.321   5.433
27390SOL    HW284068  14.322   2.448   5.477
27391SOL     OW84069  10.180  13.179   4.138
27391SOL    HW184070  10.243  13.227   4.192
27391SOL    HW284071  10.110  13.242   4.122
27392SOL     OW84072   1.187  10.203   0.873
27392SOL    HW184073   1.276  10.179   0.899
27392SOL    HW284074   1.198  10.239   0.785
27393SOL     OW84075   8.194   8.662   2.971
27393SOL    HW184076   8.177   8.740   2.919
27393SOL    HW284077   8.272   8.623   2.931
27394SOL     OW84078  10.824   2.988   5.117
27394SOL    HW184079  10.819   3.076   5.155
27394SOL    HW284080  10.747   2.943   5.151
27395SOL     OW84081  11.946  10.556   5.380
27395SOL    HW184082  12.027  10.593   5.415
27395SOL    HW284083  11.968  10.530   5.290
27396SOL     OW84084   3.662   8.929  14.819
27396SOL    HW184085   3.593   8.927   0.004
27396SOL    HW284086   3.617   8.957  14.739
27397SOL     OW84087  12.886   9.917   0.706
27397SOL    HW184088  12.923   9.941   0.791
27397SOL    HW284089  12.939   9.843   0.677
27398SOL     OW84090   7.718  11.194  14.494
27398SOL    HW184091   7.797  11.236  14.528
27398SOL    HW284092   7.720  11.212  14.400
27399SOL     OW84093   7.617   2.194   2.202
27399SOL    HW184094   7.656   2.169   2.286
27399SOL    HW284095   7.691   2.199   2.141
27400SOL     OW84096   0.781   6.809   1.535
27400SOL    HW184097   0.715   6.752   1.496
27400SOL    HW284098   0.865   6.770   1.508
27401SOL     OW84099   2.742  13.818   4.452
27401SOL    HW184100   2.670  13.796   4.392
27401SOL    HW284101   2.705  13.807   4.539
27402SOL     OW84102  10.471  11.067   4.568
27402SOL    HW184103  10.425  11.122   4.506
27402SOL    HW284104  10.451  10.977   4.541
27403SOL     OW84105  11.746   3.754   5.656
27403SOL    HW184106  11.659   3.747   5.694
27403SOL    HW284107  11.801   3.788   5.727
27404SOL     OW84108  12.851   4.843   4.548
27404SOL    HW184109  12.808   4.842   4.634
27404SOL    HW284110  12.804   4.911   4.499
27405SOL     OW84111   6.529   2.930  14.783
27405SOL    HW184112   6.489   2.885  14.858
27405SOL    HW284113   6.499   2.880  14.707
27406SOL     OW84114   9.675   1.303   4.441
27406SOL    HW184115   9.607   1.314   4.375
27406SOL    HW284116   9.741   1.248   4.399
27407SOL     OW84117   4.793   3.446  11.623
27407SOL    HW184118   4.725   3.386  11.657
27407SOL    HW284119   4.834   3.397  11.552
27408SOL     OW84120  11.471  13.560  10.948
27408SOL    HW184121  11.531  13.635  10.956
27408SOL    HW284122  11.414  13.568  11.024
27409SOL     OW84123   4.781   7.264   5.306
27409SOL    HW184124   4.727   7.329   5.262
27409SOL    HW284125   4.871   7.291   5.288
27410SOL     OW84126   6.184   2.802  12.922
27410SOL    HW184127   6.269   2.783  12.962
27410SOL    HW284128   6.189   2.894  12.896
27411SOL     OW84129   2.493   2.151  10.118
27411SOL    HW184130   2.499   2.207  10.041
27411SOL    HW284131   2.496   2.062  10.084
27412SOL     OW84132   6.697  10.176   5.593
27412SOL    HW184133   6.768  10.125   5.556
27412SOL    HW284134   6.635  10.187   5.521
27413SOL     OW84135   6.359   0.503   6.652
27413SOL    HW184136   6.349   0.450   6.731
27413SOL    HW284137   6.303   0.460   6.587
27414SOL     OW84138   9.155   0.959   7.974
27414SOL    HW184139   9.076   0.954   7.920
27414SOL    HW284140   9.155   1.049   8.007
27415SOL     OW84141   3.661   8.173  14.487
27415SOL    HW184142   3.688   8.261  14.460
27415SOL    HW284143   3.742   8.130  14.515
27416SOL     OW84144   5.003   1.794  14.277
27416SOL    HW184145   5.036   1.864  14.334
27416SOL    HW284146   4.908   1.802  14.281
27417SOL     OW84147   7.244   7.070  11.721
27417SOL    HW184148   7.172   7.044  11.664
27417SOL    HW284149   7.323   7.035  11.678
27418SOL     OW84150   4.245   9.178   9.143
27418SOL    HW184151   4.318   9.163   9.203
27418SOL    HW284152   4.262   9.264   9.106
27419SOL     OW84153   8.223  10.081   3.598
27419SOL    HW184154   8.167  10.159   3.602
27419SOL    HW284155   8.166  10.013   3.564
27420SOL     OW84156   9.850  11.570  12.535
27420SOL    HW184157   9.822  11.522  12.457
27420SOL    HW284158   9.861  11.660  12.505
27421SOL     OW84159  10.708   1.606   7.594
27421SOL    HW184160  10.762   1.654   7.531
27421SOL    HW284161  10.619   1.638   7.578
27422SOL     OW84162  14.710  12.530   2.697
27422SOL    HW184163  14.791  12.577   2.679
27422SOL    HW284164  14.730  12.439   2.676
27423SOL     OW84165  12.489   1.867  11.516
27423SOL    HW184166  12.419   1.812  11.551
27423SOL    HW284167  12.532   1.903  11.594
27424SOL     OW84168   3.748   3.849  13.406
27424SOL    HW184169   3.678   3.816  13.462
27424SOL    HW284170   3.787   3.771  13.368
27425SOL     OW84171  12.986   1.508   7.348
27425SOL    HW184172  12.959   1.594   7.318
27425SOL    HW284173  13.045   1.525   7.422
27426SOL     OW84174  11.359   6.365  11.916
27426SOL    HW184175  11.286   6.306  11.936
27426SOL    HW284176  11.396   6.330  11.836
27427SOL     OW84177  10.580   0.895   4.525
27427SOL    HW184178  10.534   0.817   4.555
27427SOL    HW284179  10.621   0.930   4.604
27428SOL     OW84180   6.667  11.457   7.892
27428SOL    HW184181   6.666  11.541   7.846
27428SOL    HW284182   6.621  11.397   7.833
27429SOL     OW84183   8.215   3.059   1.207
27429SOL    HW184184   8.238   3.151   1.200
27429SOL    HW284185   8.256   3.030   1.289
27430SOL     OW84186   4.968   6.941   7.174
27430SOL    HW184187   4.984   6.860   7.126
27430SOL    HW284188   4.933   7.002   7.109
27431SOL     OW84189   6.619   4.113   0.074
27431SOL    HW184190   6.654   4.195   0.040
27431SOL    HW284191   6.537   4.138   0.117
27432SOL     OW84192   9.722   1.516  12.309
27432SOL    HW184193   9.761   1.504  12.222
27432SOL    HW284194   9.764   1.595  12.343
27433SOL     OW84195   3.007   6.377  12.117
27433SOL    HW184196   2.949   6.408  12.187
27433SOL    HW284197   2.989   6.284  12.109
27434SOL     OW84198  10.789  13.750  10.996
27434SOL    HW184199  10.847  13.694  10.945
27434SOL    HW284200  10.732  13.688  11.043
27435SOL     OW84201   8.434  10.127   7.351
27435SOL    HW184202   8.364  10.067   7.324
27435SOL    HW284203   8.488  10.137   7.273
27436SOL     OW84204  11.661   5.166  11.111
27436SOL    HW184205  11.748   5.128  11.096
27436SOL    HW284206  11.643   5.215  11.031
27437SOL     OW84207   0.214   1.000  14.129
27437SOL    HW184208   0.300   1.010  14.088
27437SOL    HW284209   0.215   1.062  14.202
27438SOL     OW84210   2.958   3.720   5.077
27438SOL    HW184211   3.022   3.748   5.142
27438SOL    HW284212   2.968   3.625   5.074
27439SOL     OW84213   5.452  14.811   2.403
27439SOL    HW184214   5.475  14.732   2.452
27439SOL    HW284215   5.356  14.815   2.408
27440SOL     OW84216   8.121  14.344   3.027
27440SOL    HW184217   8.096  14.291   2.951
27440SOL    HW284218   8.093  14.291   3.102
27441SOL     OW84219   9.370   1.399  13.556
27441SOL    HW184220   9.418   1.330  13.511
27441SOL    HW284221   9.437   1.447  13.604
27442SOL     OW84222   9.228   7.311   3.320
27442SOL    HW184223   9.244   7.402   3.296
27442SOL    HW284224   9.308   7.283   3.364
27443SOL     OW84225   1.218  14.493   8.437
27443SOL    HW184226   1.270  14.420   8.473
27443SOL    HW284227   1.235  14.489   8.343
27444SOL     OW84228   0.581   5.247   8.550
27444SOL    HW184229   0.613   5.263   8.638
27444SOL    HW284230   0.503   5.301   8.543
27445SOL     OW84231   4.591  13.792   9.441
27445SOL    HW184232   4.555  13.875   9.473
27445SOL    HW284233   4.517  13.749   9.397
27446SOL     OW84234   5.378  13.765  12.398
27446SOL    HW184235   5.338  13.844  12.432
27446SOL    HW284236   5.472  13.785  12.396
27447SOL     OW84237   5.645   6.349  14.534
27447SOL    HW184238   5.737   6.322  14.528
27447SOL    HW284239   5.596   6.277  14.495
27448SOL     OW84240   8.582   0.214   7.001
27448SOL    HW184241   8.498   0.258   7.013
27448SOL    HW284242   8.563   0.122   7.014
27449SOL     OW84243  14.297   4.900   8.188
27449SOL    HW184244  14.242   4.927   8.115
27449SOL    HW284245  14.287   4.969   8.253
27450SOL     OW84246   8.259   5.192   5.707
27450SOL    HW184247   8.230   5.151   5.788
27450SOL    HW284248   8.248   5.286   5.722
27451SOL     OW84249   0.738   1.741   4.461
27451SOL    HW184250   0.825   1.702   4.472
27451SOL    HW284251   0.755   1.833   4.442
27452SOL     OW84252  12.450   3.134   7.353
27452SOL    HW184253  12.501   3.168   7.279
27452SOL    HW284254  12.397   3.209   7.381
27453SOL     OW84255  10.840   7.696   1.078
27453SOL    HW184256  10.852   7.669   0.987
27453SOL    HW284257  10.861   7.789   1.079
27454SOL     OW84258   0.407   7.658  12.514
27454SOL    HW184259   0.361   7.577  12.536
27454SOL    HW284260   0.470   7.632  12.447
27455SOL     OW84261   5.301   2.168   0.291
27455SOL    HW184262   5.338   2.145   0.205
27455SOL    HW284263   5.303   2.263   0.292
27456SOL     OW84264   2.452   8.576   8.609
27456SOL    HW184265   2.494   8.650   8.654
27456SOL    HW284266   2.361   8.581   8.636
27457SOL     OW84267   7.904   8.054   0.711
27457SOL    HW184268   7.879   7.989   0.646
27457SOL    HW284269   7.953   8.120   0.662
27458SOL     OW84270   6.281  10.099   7.401
27458SOL    HW184271   6.227  10.158   7.349
27458SOL    HW284272   6.271  10.131   7.491
27459SOL     OW84273   1.340   3.644  10.647
27459SOL    HW184274   1.349   3.719  10.589
27459SOL    HW284275   1.274   3.670  10.711
27460SOL     OW84276   1.899   3.740   9.828
27460SOL    HW184277   1.893   3.733   9.923
27460SOL    HW284278   1.929   3.829   9.812
27461SOL     OW84279   0.248   5.961   2.654
27461SOL    HW184280   0.232   5.894   2.721
27461SOL    HW284281   0.276   6.038   2.704
27462SOL     OW84282   3.256   1.706   0.390
27462SOL    HW184283   3.292   1.749   0.313
27462SOL    HW284284   3.183   1.654   0.356
27463SOL     OW84285  13.940  12.478  13.340
27463SOL    HW184286  13.895  12.407  13.292
27463SOL    HW284287  14.029  12.476  13.307
27464SOL     OW84288   9.449   6.407   9.713
27464SOL    HW184289   9.517   6.365   9.661
27464SOL    HW284290   9.446   6.497   9.680
27465SOL     OW84291  10.959   4.091   9.515
27465SOL    HW184292  10.991   4.179   9.535
27465SOL    HW284293  10.875   4.085   9.561
27466SOL     OW84294  10.577  10.217  12.361
27466SOL    HW184295  10.615  10.227  12.274
27466SOL    HW284296  10.487  10.187  12.345
27467SOL     OW84297   4.967   4.749   9.002
27467SOL    HW184298   4.874   4.737   9.023
27467SOL    HW284299   5.013   4.690   9.061
27468SOL     OW84300   7.464   5.635   6.694
27468SOL    HW184301   7.414   5.710   6.727
27468SOL    HW284302   7.555   5.655   6.716
27469SOL     OW84303   0.462   8.681  13.592
27469SOL    HW184304   0.374   8.718  13.603
27469SOL    HW284305   0.506   8.700  13.675
27470SOL     OW84306   8.004   2.531   8.353
27470SOL    HW184307   8.015   2.542   8.447
27470SOL    HW284308   8.051   2.450   8.332
27471SOL     OW84309  10.493  10.502   6.764
27471SOL    HW184310  10.415  10.535   6.808
27471SOL    HW284311  10.526  10.576   6.714
27472SOL     OW84312   5.479  11.401   5.938
27472SOL    HW184313   5.415  11.417   5.869
27472SOL    HW284314   5.560  11.441   5.905
27473SOL     OW84315   8.275   1.939   6.037
27473SOL    HW184316   8.321   1.880   6.097
27473SOL    HW284317   8.183   1.913   6.044
27474SOL     OW84318   5.752   5.367   7.727
27474SOL    HW184319   5.751   5.300   7.659
27474SOL    HW284320   5.660   5.387   7.743
27475SOL     OW84321  10.861  12.073  14.179
27475SOL    HW184322  10.934  12.011  14.186
27475SOL    HW284323  10.784  12.018  14.166
27476SOL     OW84324  12.679  11.921   0.533
27476SOL    HW184325  12.605  11.929   0.593
27476SOL    HW284326  12.747  11.878   0.584
27477SOL     OW84327   2.114   1.204   4.562
27477SOL    HW184328   2.137   1.117   4.530
27477SOL    HW284329   2.025   1.218   4.530
27478SOL     OW84330   4.000   0.371   5.752
27478SOL    HW184331   4.050   0.416   5.685
27478SOL    HW284332   3.948   0.306   5.704
27479SOL     OW84333   9.748  14.358   6.871
27479SOL    HW184334   9.738  14.435   6.815
27479SOL    HW284335   9.731  14.390   6.959
27480SOL     OW84336   2.332   7.697  11.127
27480SOL    HW184337   2.366   7.626  11.073
27480SOL    HW284338   2.304   7.764  11.064
27481SOL     OW84339   5.130   7.368   8.117
27481SOL    HW184340   5.221   7.339   8.120
27481SOL    HW284341   5.122   7.413   8.033
27482SOL     OW84342  10.287   1.564  10.160
27482SOL    HW184343  10.317   1.573  10.069
27482SOL    HW284344  10.333   1.634  10.207
27483SOL     OW84345   9.772   9.360  14.661
27483SOL    HW184346   9.681   9.375  14.634
27483SOL    HW284347   9.823   9.422  14.608
27484SOL     OW84348   3.477   8.623   1.734
27484SOL    HW184349   3.509   8.576   1.658
27484SOL    HW284350   3.529   8.589   1.807
27485SOL     OW84351   1.098  13.009  13.288
27485SOL    HW184352   1.028  12.946  13.271
27485SOL    HW284353   1.073  13.087  13.238
27486SOL     OW84354   2.943   8.620  10.453
27486SOL    HW184355   2.897   8.536  10.443
27486SOL    HW284356   3.036   8.597  10.448
27487SOL     OW84357   2.736   7.988   3.091
27487SOL    HW184358   2.818   7.945   3.069
27487SOL    HW284359   2.676   7.916   3.111
27488SOL     OW84360   0.127  11.541  11.964
27488SOL    HW184361   0.065  11.614  11.968
27488SOL    HW284362   0.071  11.463  11.965
27489SOL     OW84363   3.255  12.729   0.977
27489SOL    HW184364   3.305  12.663   1.024
27489SOL    HW284365   3.272  12.810   1.025
27490SOL     OW84366   4.798   2.422   3.723
27490SOL    HW184367   4.867   2.480   3.757
27490SOL    HW284368   4.772   2.463   3.641
27491SOL     OW84369  14.693   1.587   9.174
27491SOL    HW184370  14.761   1.654   9.175
27491SOL    HW284371  14.726   1.519   9.232
27492SOL     OW84372   4.603  12.288   4.734
27492SOL    HW184373   4.627  12.299   4.642
27492SOL    HW284374   4.587  12.194   4.743
27493SOL     OW84375   4.883   1.181   6.455
27493SOL    HW184376   4.865   1.093   6.423
27493SOL    HW284377   4.890   1.235   6.376
27494SOL     OW84378   7.143  13.421   3.895
27494SOL    HW184379   7.226  13.376   3.912
27494SOL    HW284380   7.076  13.357   3.917
27495SOL     OW84381   5.783   4.877   9.622
27495SOL    HW184382   5.825   4.943   9.677
27495SOL    HW284383   5.710   4.923   9.581
27496SOL     OW84384   5.225  13.201   9.945
27496SOL    HW184385   5.271  13.253   9.879
27496SOL    HW284386   5.214  13.260  10.019
27497SOL     OW84387   6.807   6.033  10.685
27497SOL    HW184388   6.890   5.986  10.678
27497SOL    HW284389   6.832   6.125  10.694
27498SOL     OW84390  12.718   9.221  13.393
27498SOL    HW184391  12.625   9.241  13.406
27498SOL    HW284392  12.727   9.129  13.418
27499SOL     OW84393   3.912  11.915   4.723
27499SOL    HW184394   3.919  11.973   4.647
27499SOL    HW284395   3.998  11.921   4.765
27500SOL     OW84396  12.671   8.303   8.311
27500SOL    HW184397  12.616   8.338   8.381
27500SOL    HW284398  12.627   8.328   8.230
27501SOL     OW84399   3.243   4.793   5.593
27501SOL    HW184400   3.252   4.702   5.563
27501SOL    HW284401   3.287   4.794   5.678
27502SOL     OW84402   6.617   8.201  11.541
27502SOL    HW184403   6.679   8.254  11.491
27502SOL    HW284404   6.583   8.137  11.478
27503SOL     OW84405   3.475   9.925   8.569
27503SOL    HW184406   3.456   9.831   8.571
27503SOL    HW284407   3.556   9.934   8.619
27504SOL     OW84408   2.300  14.624   3.716
27504SOL    HW184409   2.227  14.635   3.777
27504SOL    HW284410   2.262  14.646   3.630
27505SOL     OW84411   8.714   5.615  12.571
27505SOL    HW184412   8.705   5.694  12.624
27505SOL    HW284413   8.781   5.563  12.615
27506SOL     OW84414  12.355   4.188  12.359
27506SOL    HW184415  12.344   4.225  12.271
27506SOL    HW284416  12.372   4.264  12.414
27507SOL     OW84417  10.883   5.794   1.622
27507SOL    HW184418  10.864   5.769   1.531
27507SOL    HW284419  10.955   5.738   1.648
27508SOL     OW84420   8.378   8.570   9.036
27508SOL    HW184421   8.383   8.586   9.131
27508SOL    HW284422   8.465   8.591   9.004
27509SOL     OW84423  12.844   5.656  11.109
27509SOL    HW184424  12.749   5.652  11.104
27509SOL    HW284425  12.869   5.580  11.161
27510SOL     OW84426   0.940  13.944  11.104
27510SOL    HW184427   1.015  13.888  11.086
27510SOL    HW284428   0.972  14.008  11.168
27511SOL     OW84429   3.445   0.177  14.380
27511SOL    HW184430   3.487   0.166  14.295
27511SOL    HW284431   3.484   0.109  14.435
27512SOL     OW84432  13.321   6.504   6.959
27512SOL    HW184433  13.369   6.533   7.036
27512SOL    HW284434  13.300   6.412   6.976
27513SOL     OW84435  14.794  12.445   4.662
27513SOL    HW184436  14.847  12.478   4.735
27513SOL    HW284437  14.828  12.357   4.646
27514SOL     OW84438  14.322   7.029   5.737
27514SOL    HW184439  14.343   7.118   5.765
27514SOL    HW284440  14.348   7.027   5.645
27515SOL     OW84441   9.945   9.250  12.710
27515SOL    HW184442   9.871   9.305  12.738
27515SOL    HW284443   9.929   9.165  12.751
27516SOL     OW84444   7.978  14.581  10.033
27516SOL    HW184445   7.940  14.541  10.111
27516SOL    HW284446   7.906  14.585   9.970
27517SOL     OW84447   7.137   6.224   4.155
27517SOL    HW184448   7.048   6.190   4.150
27517SOL    HW284449   7.180   6.191   4.076
27518SOL     OW84450   9.817  12.343  14.738
27518SOL    HW184451   9.879  12.366  14.670
27518SOL    HW284452   9.736  12.324  14.690
27519SOL     OW84453  12.816   1.798   3.058
27519SOL    HW184454  12.736   1.844   3.085
27519SOL    HW284455  12.880   1.820   3.125
27520SOL     OW84456   2.187   1.991  14.756
27520SOL    HW184457   2.238   2.046  14.696
27520SOL    HW284458   2.126   1.944  14.700
27521SOL     OW84459   4.706   0.664  13.458
27521SOL    HW184460   4.709   0.718  13.538
27521SOL    HW284461   4.796   0.662  13.427
27522SOL     OW84462   8.960   2.548   3.077
27522SOL    HW184463   9.044   2.503   3.085
27522SOL    HW284464   8.900   2.482   3.043
27523SOL     OW84465  10.226   3.082   2.964
27523SOL    HW184466  10.133   3.087   2.943
27523SOL    HW284467  10.270   3.122   2.889
27524SOL     OW84468   6.529   9.038  13.748
27524SOL    HW184469   6.475   9.041  13.827
27524SOL    HW284470   6.612   9.001  13.777
27525SOL     OW84471   1.675   0.802   6.644
27525SOL    HW184472   1.657   0.892   6.619
27525SOL    HW284473   1.770   0.792   6.635
27526SOL     OW84474   6.915   8.041  12.154
27526SOL    HW184475   6.840   8.074  12.204
27526SOL    HW284476   6.877   8.004  12.074
27527SOL     OW84477  10.415   2.647   2.354
27527SOL    HW184478  10.440   2.559   2.380
27527SOL    HW284479  10.375   2.685   2.432
27528SOL     OW84480   7.095  12.632   1.625
27528SOL    HW184481   7.163  12.675   1.678
27528SOL    HW284482   7.043  12.705   1.591
27529SOL     OW84483   2.448  11.357   6.947
27529SOL    HW184484   2.450  11.450   6.925
27529SOL    HW284485   2.362  11.327   6.918
27530SOL     OW84486  12.581  13.479   6.367
27530SOL    HW184487  12.630  13.547   6.413
27530SOL    HW284488  12.511  13.527   6.321
27531SOL     OW84489   8.005   9.466   5.779
27531SOL    HW184490   7.931   9.489   5.723
27531SOL    HW284491   7.964   9.429   5.857
27532SOL     OW84492  13.500  12.638   5.815
27532SOL    HW184493  13.534  12.591   5.739
27532SOL    HW284494  13.418  12.677   5.784
27533SOL     OW84495   9.964   7.449   1.655
27533SOL    HW184496   9.903   7.381   1.681
27533SOL    HW284497  10.048   7.405   1.648
27534SOL     OW84498   9.206  14.446  11.397
27534SOL    HW184499   9.117  14.477  11.378
27534SOL    HW284500   9.261  14.522  11.380
27535SOL     OW84501   7.364   6.287  11.982
27535SOL    HW184502   7.274   6.276  12.013
27535SOL    HW284503   7.413   6.316  12.058
27536SOL     OW84504   3.924  14.538  11.489
27536SOL    HW184505   3.848  14.576  11.445
27536SOL    HW284506   3.892  14.457  11.528
27537SOL     OW84507  13.271   5.492  13.931
27537SOL    HW184508  13.359   5.457  13.929
27537SOL    HW284509  13.251   5.502  14.025
27538SOL     OW84510   5.200   0.417  11.896
27538SOL    HW184511   5.267   0.355  11.925
27538SOL    HW284512   5.121   0.393  11.945
27539SOL     OW84513   4.576  12.631  10.070
27539SOL    HW184514   4.625  12.621   9.989
27539SOL    HW284515   4.606  12.714  10.107
27540SOL     OW84516   2.170   7.072  11.840
27540SOL    HW184517   2.164   7.162  11.872
27540SOL    HW284518   2.107   7.068  11.767
27541SOL     OW84519   8.109  11.723   6.496
27541SOL    HW184520   8.059  11.642   6.485
27541SOL    HW284521   8.174  11.721   6.426
27542SOL     OW84522  10.537   6.594   3.651
27542SOL    HW184523  10.466   6.535   3.627
27542SOL    HW284524  10.549   6.582   3.745
27543SOL     OW84525   5.070  13.510   6.962
27543SOL    HW184526   5.143  13.554   7.005
27543SOL    HW284527   5.110  13.455   6.895
27544SOL     OW84528   5.550   5.442   3.030
27544SOL    HW184529   5.627   5.404   3.073
27544SOL    HW284530   5.514   5.371   2.978
27545SOL     OW84531  10.443  14.854  11.174
27545SOL    HW184532  10.529   0.003  11.149
27545SOL    HW284533  10.384   0.045  11.154
27546SOL     OW84534   0.832   0.066   0.038
27546SOL    HW184535   0.849  14.858   0.011
27546SOL    HW284536   0.865   0.071   0.128
27547SOL     OW84537   5.398  12.517   1.156
27547SOL    HW184538   5.404  12.606   1.123
27547SOL    HW284539   5.304  12.501   1.166
27548SOL     OW84540   8.870   6.500  14.246
27548SOL    HW184541   8.896   6.518  14.336
27548SOL    HW284542   8.794   6.442  14.254
27549SOL     OW84543   7.729  11.949  13.916
27549SOL    HW184544   7.674  11.913  13.986
27549SOL    HW284545   7.816  11.955  13.956
27550SOL     OW84546   7.719  14.731   0.924
27550SOL    HW184547   7.787  14.693   0.980
27550SOL    HW284548   7.718  14.677   0.846
27551SOL     OW84549   9.532   1.845   6.419
27551SOL    HW184550   9.464   1.816   6.358
27551SOL    HW284551   9.548   1.769   6.475
27552SOL     OW84552  12.986   1.287  14.682
27552SOL    HW184553  12.967   1.212  14.739
27552SOL    HW284554  12.998   1.249  14.595
27553SOL     OW84555   9.950   4.762   8.388
27553SOL    HW184556   9.966   4.798   8.476
27553SOL    HW284557  10.037   4.755   8.349
27554SOL     OW84558  10.174  13.839   4.176
27554SOL    HW184559  10.151  13.931   4.168
27554SOL    HW284560  10.268  13.837   4.157
27555SOL     OW84561  12.209   8.171  13.100
27555SOL    HW184562  12.159   8.134  13.027
27555SOL    HW284563  12.300   8.171  13.069
27556SOL     OW84564   3.492  14.512   0.215
27556SOL    HW184565   3.499  14.432   0.267
27556SOL    HW284566   3.473  14.580   0.279
27557SOL     OW84567  12.630   0.720   3.233
27557SOL    HW184568  12.630   0.628   3.207
27557SOL    HW284569  12.537   0.744   3.236
27558SOL     OW84570  10.567  14.643   9.640
27558SOL    HW184571  10.513  14.606   9.570
27558SOL    HW284572  10.637  14.690   9.595
27559SOL     OW84573  13.978   0.569   7.222
27559SOL    HW184574  13.960   0.662   7.230
27559SOL    HW284575  14.045   0.552   7.289
27560SOL     OW84576   7.416   9.533  10.164
27560SOL    HW184577   7.377   9.619  10.183
27560SOL    HW284578   7.499   9.535  10.211
27561SOL     OW84579  13.903  14.083  14.735
27561SOL    HW184580  13.874  14.127  14.815
27561SOL    HW284581  13.828  14.091  14.676
27562SOL     OW84582   1.123   3.721   0.485
27562SOL    HW184583   1.028   3.709   0.495
27562SOL    HW284584   1.140   3.807   0.523
27563SOL     OW84585  14.490   1.635   5.681
27563SOL    HW184586  14.396   1.622   5.675
27563SOL    HW284587  14.527   1.546   5.677
27564SOL     OW84588   7.962   5.008   1.182
27564SOL    HW184589   8.005   4.991   1.099
27564SOL    HW284590   7.934   5.100   1.176
27565SOL     OW84591   2.514   2.942  10.045
27565SOL    HW184592   2.515   2.958   9.951
27565SOL    HW284593   2.592   2.985  10.078
27566SOL     OW84594   1.700   2.891   6.572
27566SOL    HW184595   1.782   2.901   6.621
27566SOL    HW284596   1.662   2.810   6.606
27567SOL     OW84597   1.291  11.855   2.712
27567SOL    HW184598   1.355  11.910   2.667
27567SOL    HW284599   1.242  11.813   2.642
27568SOL     OW84600   2.211   4.058  14.004
27568SOL    HW184601   2.306   4.059  13.991
27568SOL    HW284602   2.189   3.965  14.014
27569SOL     OW84603  10.497  11.207  13.948
27569SOL    HW184604  10.585  11.173  13.968
27569SOL    HW284605  10.461  11.144  13.886
27570SOL     OW84606  13.589   2.886   9.421
27570SOL    HW184607  13.546   2.965   9.453
27570SOL    HW284608  13.578   2.889   9.326
27571SOL     OW84609   9.194   5.297  10.224
27571SOL    HW184610   9.246   5.232  10.177
27571SOL    HW284611   9.253   5.372  10.234
27572SOL     OW84612  12.414  11.473   5.744
27572SOL    HW184613  12.422  11.452   5.837
27572SOL    HW284614  12.501  11.454   5.708
27573SOL     OW84615   9.388   7.078   9.275
27573SOL    HW184616   9.466   7.113   9.319
27573SOL    HW284617   9.409   7.084   9.181
27574SOL     OW84618   9.954   5.796   4.717
27574SOL    HW184619   9.947   5.858   4.790
27574SOL    HW284620   9.871   5.807   4.670
27575SOL     OW84621  13.220   1.787   0.211
27575SOL    HW184622  13.303   1.793   0.258
27575SOL    HW284623  13.230   1.847   0.136
27576SOL     OW84624   4.730   9.116  13.148
27576SOL    HW184625   4.693   9.200  13.175
27576SOL    HW284626   4.714   9.112  13.053
27577SOL     OW84627   1.803  12.647   0.515
27577SOL    HW184628   1.851  12.679   0.591
27577SOL    HW284629   1.713  12.638   0.544
27578SOL     OW84630   2.983   5.893   5.638
27578SOL    HW184631   2.991   5.815   5.692
27578SOL    HW284632   3.016   5.867   5.552
27579SOL     OW84633   3.054   7.162   4.713
27579SOL    HW184634   2.962   7.137   4.724
27579SOL    HW284635   3.092   7.090   4.662
27580SOL     OW84636  12.297  13.024   0.365
27580SOL    HW184637  12.360  13.069   0.308
27580SOL    HW284638  12.313  13.060   0.452
27581SOL     OW84639   8.135   2.549   9.633
27581SOL    HW184640   8.179   2.481   9.684
27581SOL    HW284641   8.081   2.502   9.570
27582SOL     OW84642  10.971   4.815  11.159
27582SOL    HW184643  10.995   4.774  11.242
27582SOL    HW284644  10.899   4.874  11.181
27583SOL     OW84645   5.305   0.143  14.680
27583SOL    HW184646   5.352   0.060  14.682
27583SOL    HW284647   5.214   0.120  14.701
27584SOL     OW84648   2.288  13.421   7.457
27584SOL    HW184649   2.251  13.487   7.516
27584SOL    HW284650   2.378  13.408   7.488
27585SOL     OW84651   8.088   4.885  12.183
27585SOL    HW184652   8.148   4.852  12.250
27585SOL    HW284653   8.028   4.942  12.231
27586SOL     OW84654   6.930   4.328   6.003
27586SOL    HW184655   7.025   4.334   6.014
27586SOL    HW284656   6.916   4.242   5.963
27587SOL     OW84657   2.596   5.058  13.150
27587SOL    HW184658   2.646   5.011  13.084
27587SOL    HW284659   2.568   4.991  13.212
27588SOL     OW84660   2.972  12.663   5.213
27588SOL    HW184661   2.945  12.752   5.234
27588SOL    HW284662   2.928  12.608   5.278
27589SOL     OW84663  12.624   3.471   5.330
27589SOL    HW184664  12.600   3.555   5.292
27589SOL    HW284665  12.541   3.423   5.336
27590SOL     OW84666   9.081   5.991   9.778
27590SOL    HW184667   9.056   6.083   9.788
27590SOL    HW284668   9.161   5.993   9.726
27591SOL     OW84669   3.629  14.584  12.143
27591SOL    HW184670   3.687  14.556  12.072
27591SOL    HW284671   3.679  14.650  12.190
27592SOL     OW84672  12.736  10.621  11.417
27592SOL    HW184673  12.827  10.592  11.415
27592SOL    HW284674  12.688  10.550  11.373
27593SOL     OW84675   7.737  12.299   0.024
27593SOL    HW184676   7.739  12.209   0.057
27593SOL    HW284677   7.761  12.291  14.814
27594SOL     OW84678  11.508  12.978   4.186
27594SOL    HW184679  11.436  12.999   4.245
27594SOL    HW284680  11.527  13.060   4.141
27595SOL     OW84681   2.464   7.810  11.881
27595SOL    HW184682   2.491   7.722  11.855
27595SOL    HW284683   2.503   7.868  11.816
27596SOL     OW84684   7.592  11.302   5.589
27596SOL    HW184685   7.685  11.310   5.607
27596SOL    HW284686   7.555  11.387   5.614
27597SOL     OW84687   4.793   3.784  14.618
27597SOL    HW184688   4.812   3.750  14.531
27597SOL    HW284689   4.863   3.848  14.634
27598SOL     OW84690   9.982   0.601   2.205
27598SOL    HW184691  10.063   0.559   2.235
27598SOL    HW284692   9.992   0.608   2.110
27599SOL     OW84693   9.747   7.834  11.761
27599SOL    HW184694   9.666   7.797  11.794
27599SOL    HW284695   9.720   7.890  11.688
27600SOL     OW84696   9.251   2.598  14.026
27600SOL    HW184697   9.345   2.592  14.009
27600SOL    HW284698   9.218   2.657  13.958
27601SOL     OW84699  13.478  11.571  14.781
27601SOL    HW184700  13.408  11.635  14.786
27601SOL    HW284701  13.549  11.616  14.736
27602SOL     OW84702   9.005  12.910  10.153
27602SOL    HW184703   9.033  12.821  10.175
27602SOL    HW284704   9.056  12.932  10.074
27603SOL     OW84705  13.664   2.697   5.433
27603SOL    HW184706  13.707   2.764   5.379
27603SOL    HW284707  13.575   2.730   5.445
27604SOL     OW84708   3.074   1.387  14.732
27604SOL    HW184709   3.113   1.396  14.645
27604SOL    HW284710   3.079   1.474  14.770
27605SOL     OW84711   3.299  14.351   7.018
27605SOL    HW184712   3.314  14.347   6.924
27605SOL    HW284713   3.304  14.260   7.047
27606SOL     OW84714   8.531   7.653  13.214
27606SOL    HW184715   8.568   7.572  13.249
27606SOL    HW284716   8.565   7.660  13.125
27607SOL     OW84717   8.441   5.417   4.262
27607SOL    HW184718   8.369   5.386   4.316
27607SOL    HW284719   8.405   5.423   4.173
27608SOL     OW84720   0.387  13.056   1.333
27608SOL    HW184721   0.332  13.133   1.344
27608SOL    HW284722   0.375  13.006   1.414
27609SOL     OW84723   6.936   9.313  12.294
27609SOL    HW184724   7.027   9.318  12.263
27609SOL    HW284725   6.943   9.284  12.384
27610SOL     OW84726  12.415   2.711  13.182
27610SOL    HW184727  12.431   2.786  13.239
27610SOL    HW284728  12.495   2.703  13.131
27611SOL     OW84729   0.636  10.109   1.528
27611SOL    HW184730   0.543  10.113   1.504
27611SOL    HW284731   0.647  10.021   1.565
27612SOL     OW84732  11.026   3.163   5.025
27612SOL    HW184733  11.066   3.133   5.107
27612SOL    HW284734  10.966   3.093   5.000
27613SOL     OW84735  10.782   0.057   7.346
27613SOL    HW184736  10.839   0.077   7.420
27613SOL    HW284737  10.764   0.142   7.307
27614SOL     OW84738   5.750   1.560   4.793
27614SOL    HW184739   5.745   1.474   4.835
27614SOL    HW284740   5.752   1.540   4.699
27615SOL     OW84741   5.904  10.911  10.441
27615SOL    HW184742   5.907  10.920  10.346
27615SOL    HW284743   5.817  10.874  10.459
27616SOL     OW84744   3.503   9.275   2.470
27616SOL    HW184745   3.454   9.276   2.388
27616SOL    HW284746   3.552   9.193   2.468
27617SOL     OW84747   8.908   3.111   7.820
27617SOL    HW184748   8.991   3.157   7.801
27617SOL    HW284749   8.885   3.069   7.737
27618SOL     OW84750   1.674  11.872   1.435
27618SOL    HW184751   1.631  11.915   1.361
27618SOL    HW284752   1.688  11.942   1.499
27619SOL     OW84753   2.302  13.182   1.172
27619SOL    HW184754   2.345  13.096   1.174
27619SOL    HW284755   2.361  13.239   1.222
27620SOL     OW84756   4.482   7.827   2.033
27620SOL    HW184757   4.538   7.905   2.039
27620SOL    HW284758   4.465   7.803   2.124
27621SOL     OW84759   5.877  14.826  14.267
27621SOL    HW184760   5.942  14.857  14.204
27621SOL    HW284761   5.841  14.747  14.228
27622SOL     OW84762   1.024   3.399   1.172
27622SOL    HW184763   0.978   3.429   1.094
27622SOL    HW284764   1.108   3.445   1.170
27623SOL     OW84765   5.504   7.331  14.675
27623SOL    HW184766   5.450   7.394  14.723
27623SOL    HW284767   5.549   7.383  14.609
27624SOL     OW84768   8.941   8.887   3.994
27624SOL    HW184769   8.913   8.810   4.043
27624SOL    HW284770   8.948   8.856   3.903
27625SOL     OW84771   4.390  12.149  14.823
27625SOL    HW184772   4.383  12.196   0.024
27625SOL    HW284773   4.482  12.123  14.818
27626SOL     OW84774   7.776  10.217   8.544
27626SOL    HW184775   7.831  10.260   8.478
27626SOL    HW284776   7.708  10.282   8.563
27627SOL     OW84777  10.488   5.408  14.118
27627SOL    HW184778  10.539   5.333  14.146
27627SOL    HW284779  10.422   5.420  14.187
27628SOL     OW84780   5.026   8.065   8.462
27628SOL    HW184781   5.068   8.058   8.377
27628SOL    HW284782   4.951   8.123   8.447
27629SOL     OW84783   7.116   3.746  13.994
27629SOL    HW184784   7.031   3.704  14.007
27629SOL    HW284785   7.145   3.770  14.082
27630SOL     OW84786   8.651   6.084   1.708
27630SOL    HW184787   8.586   6.143   1.747
27630SOL    HW284788   8.599   6.011   1.674
27631SOL     OW84789   0.941   5.581   0.289
27631SOL    HW184790   1.000   5.635   0.236
27631SOL    HW284791   0.880   5.544   0.225
27632SOL     OW84792  11.687   5.370   7.114
27632SOL    HW184793  11.631   5.377   7.037
27632SOL    HW284794  11.687   5.459   7.151
27633SOL     OW84795   8.837   7.502  12.241
27633SOL    HW184796   8.770   7.494  12.173
27633SOL    HW284797   8.875   7.589  12.228
27634SOL     OW84798   3.105   4.338   4.038
27634SOL    HW184799   3.132   4.253   4.072
27634SOL    HW284800   3.121   4.331   3.943
27635SOL     OW84801   7.113  11.504  12.249
27635SOL    HW184802   7.163  11.493  12.168
27635SOL    HW284803   7.118  11.419  12.292
27636SOL     OW84804  13.623  12.469   0.738
27636SOL    HW184805  13.603  12.476   0.832
27636SOL    HW284806  13.555  12.410   0.704
27637SOL     OW84807  11.879   7.489   1.078
27637SOL    HW184808  11.877   7.413   1.137
27637SOL    HW284809  11.946   7.468   1.013
27638SOL     OW84810   9.694   3.741   5.061
27638SOL    HW184811   9.615   3.691   5.080
27638SOL    HW284812   9.698   3.744   4.965
27639SOL     OW84813   7.280   7.800  12.196
27639SOL    HW184814   7.324   7.728  12.239
27639SOL    HW284815   7.206   7.759  12.151
27640SOL     OW84816   0.431  13.804  10.721
27640SOL    HW184817   0.401  13.879  10.772
27640SOL    HW284818   0.351  13.759  10.694
27641SOL     OW84819   6.291   7.213  12.296
27641SOL    HW184820   6.367   7.187  12.243
27641SOL    HW284821   6.287   7.148  12.366
27642SOL     OW84822  10.111  14.318  10.766
27642SOL    HW184823  10.145  14.401  10.732
27642SOL    HW284824  10.164  14.300  10.843
27643SOL     OW84825   3.207  11.578  10.798
27643SOL    HW184826   3.227  11.630  10.721
27643SOL    HW284827   3.276  11.600  10.861
27644SOL     OW84828  13.469   9.568   5.249
27644SOL    HW184829  13.397   9.516   5.284
27644SOL    HW284830  13.443   9.588   5.159
27645SOL     OW84831   4.214   4.383   6.130
27645SOL    HW184832   4.229   4.436   6.051
27645SOL    HW284833   4.209   4.447   6.201
27646SOL     OW84834  14.098   2.359   6.525
27646SOL    HW184835  14.003   2.363   6.512
27646SOL    HW284836  14.117   2.265   6.530
27647SOL     OW84837   3.305   3.558  14.231
27647SOL    HW184838   3.239   3.546  14.163
27647SOL    HW284839   3.328   3.469  14.258
27648SOL     OW84840  14.465  10.140  12.469
27648SOL    HW184841  14.455  10.176  12.381
27648SOL    HW284842  14.437  10.049  12.461
27649SOL     OW84843  10.696   5.436   8.998
27649SOL    HW184844  10.631   5.369   8.975
27649SOL    HW284845  10.677   5.459   9.088
27650SOL     OW84846  10.537   8.473   3.054
27650SOL    HW184847  10.442   8.459   3.050
27650SOL    HW284848  10.574   8.385   3.057
27651SOL     OW84849   5.278   1.936   8.312
27651SOL    HW184850   5.279   2.015   8.366
27651SOL    HW284851   5.338   1.876   8.356
27652SOL     OW84852   8.937  13.677   7.422
27652SOL    HW184853   8.941  13.583   7.406
27652SOL    HW284854   9.027  13.701   7.446
27653SOL     OW84855   8.474  12.993   3.769
27653SOL    HW184856   8.486  12.910   3.724
27653SOL    HW284857   8.379  13.001   3.780
27654SOL     OW84858  13.257   1.042  14.267
27654SOL    HW184859  13.230   0.953  14.290
27654SOL    HW284860  13.353   1.038  14.262
27655SOL     OW84861  11.650   4.472   3.633
27655SOL    HW184862  11.564   4.514   3.627
27655SOL    HW284863  11.650   4.406   3.563
27656SOL     OW84864   0.541   4.336  13.602
27656SOL    HW184865   0.602   4.364  13.670
27656SOL    HW284866   0.544   4.406  13.537
27657SOL     OW84867   9.032  10.788   8.331
27657SOL    HW184868   9.078  10.821   8.254
27657SOL    HW284869   8.941  10.812   8.317
27658SOL     OW84870   9.832  13.184   3.760
27658SOL    HW184871   9.921  13.199   3.792
27658SOL    HW284872   9.837  13.199   3.666
27659SOL     OW84873   1.186  12.443   8.424
27659SOL    HW184874   1.232  12.377   8.371
27659SOL    HW284875   1.224  12.526   8.396
27660SOL     OW84876   4.981  12.697   1.350
27660SOL    HW184877   5.058  12.641   1.339
27660SOL    HW284878   4.986  12.758   1.277
27661SOL     OW84879  10.969  11.599  13.808
27661SOL    HW184880  10.982  11.595  13.713
27661SOL    HW284881  10.915  11.677  13.822
27662SOL     OW84882  13.588  12.554   8.175
27662SOL    HW184883  13.614  12.469   8.138
27662SOL    HW284884  13.671  12.598   8.195
27663SOL     OW84885  12.472   4.159  14.391
27663SOL    HW184886  12.391   4.109  14.387
27663SOL    HW284887  12.498   4.170  14.300
27664SOL     OW84888   8.333   7.374  12.340
27664SOL    HW184889   8.250   7.410  12.311
27664SOL    HW284890   8.392   7.386  12.265
27665SOL     OW84891  11.549   0.480  10.527
27665SOL    HW184892  11.593   0.478  10.442
27665SOL    HW284893  11.477   0.543  10.515
27666SOL     OW84894   7.137   9.879   6.195
27666SOL    HW184895   7.132   9.962   6.148
27666SOL    HW284896   7.202   9.894   6.264
27667SOL     OW84897   9.202   3.781   3.307
27667SOL    HW184898   9.278   3.809   3.256
27667SOL    HW284899   9.143   3.742   3.242
27668SOL     OW84900   2.175   2.126  12.227
27668SOL    HW184901   2.209   2.171  12.304
27668SOL    HW284902   2.084   2.155  12.221
27669SOL     OW84903  12.475   2.617   1.175
27669SOL    HW184904  12.518   2.634   1.091
27669SOL    HW284905  12.440   2.528   1.167
27670SOL     OW84906   7.497   3.543  13.284
27670SOL    HW184907   7.504   3.614  13.348
27670SOL    HW284908   7.584   3.539  13.244
27671SOL     OW84909  10.846  13.227   2.553
27671SOL    HW184910  10.780  13.282   2.511
27671SOL    HW284911  10.848  13.147   2.500
27672SOL     OW84912   3.115  10.925   0.021
27672SOL    HW184913   3.149  10.938  14.815
27672SOL    HW284914   3.120  10.830   0.035
27673SOL     OW84915  14.168   0.483  11.824
27673SOL    HW184916  14.165   0.433  11.906
27673SOL    HW284917  14.092   0.453  11.775
27674SOL     OW84918   6.976  13.628  12.990
27674SOL    HW184919   6.958  13.710  13.037
27674SOL    HW284920   6.942  13.559  13.046
27675SOL     OW84921   0.575   1.273   0.841
27675SOL    HW184922   0.504   1.337   0.845
27675SOL    HW284923   0.538   1.200   0.792
27676SOL     OW84924  13.001   7.707   4.023
27676SOL    HW184925  12.998   7.725   3.929
27676SOL    HW284926  12.959   7.622   4.033
27677SOL     OW84927   4.873   9.386   1.487
27677SOL    HW184928   4.928   9.312   1.512
27677SOL    HW284929   4.846   9.366   1.397
27678SOL     OW84930   9.529   8.831  11.727
27678SOL    HW184931   9.563   8.755  11.773
27678SOL    HW284932   9.607   8.881  11.703
27679SOL     OW84933   6.642   0.857   7.615
27679SOL    HW184934   6.587   0.839   7.691
27679SOL    HW284935   6.591   0.826   7.540
27680SOL     OW84936   6.397   7.981   8.587
27680SOL    HW184937   6.420   8.071   8.566
27680SOL    HW284938   6.445   7.962   8.667
27681SOL     OW84939  14.221   8.347  13.431
27681SOL    HW184940  14.254   8.259  13.444
27681SOL    HW284941  14.299   8.400  13.412
27682SOL     OW84942   6.690   2.028   5.311
27682SOL    HW184943   6.603   2.065   5.323
27682SOL    HW284944   6.676   1.946   5.263
27683SOL     OW84945   9.764  12.481   1.873
27683SOL    HW184946   9.765  12.420   1.799
27683SOL    HW284947   9.683  12.531   1.862
27684SOL     OW84948   1.949  10.961  10.117
27684SOL    HW184949   1.855  10.955  10.134
27684SOL    HW284950   1.964  11.053  10.097
27685SOL     OW84951   4.228  11.105   6.649
27685SOL    HW184952   4.298  11.100   6.585
27685SOL    HW284953   4.179  11.024   6.638
27686SOL     OW84954  13.791  10.766   2.616
27686SOL    HW184955  13.877  10.782   2.577
27686SOL    HW284956  13.803  10.684   2.665
27687SOL     OW84957   3.281  14.604  13.679
27687SOL    HW184958   3.297  14.510  13.666
27687SOL    HW284959   3.320  14.624  13.763
27688SOL     OW84960  13.651   4.554   4.582
27688SOL    HW184961  13.682   4.484   4.640
27688SOL    HW284962  13.607   4.508   4.510
27689SOL     OW84963  12.274   0.064   6.541
27689SOL    HW184964  12.257   0.089   6.450
27689SOL    HW284965  12.190   0.031   6.574
27690SOL     OW84966   3.582   7.520   8.964
27690SOL    HW184967   3.487   7.523   8.953
27690SOL    HW284968   3.603   7.427   8.963
27691SOL     OW84969   3.989   8.189   9.691
27691SOL    HW184970   4.055   8.119   9.689
27691SOL    HW284971   4.040   8.269   9.702
27692SOL     OW84972  10.366  14.752   6.913
27692SOL    HW184973  10.386  14.717   7.000
27692SOL    HW284974  10.431  14.821   6.900
27693SOL     OW84975  10.840  14.760  11.686
27693SOL    HW184976  10.809  14.740  11.598
27693SOL    HW284977  10.894  14.838  11.676
27694SOL     OW84978  11.222   1.979   1.424
27694SOL    HW184979  11.175   1.902   1.392
27694SOL    HW284980  11.154   2.045   1.437
27695SOL     OW84981  11.069   1.195   8.363
27695SOL    HW184982  11.125   1.174   8.438
27695SOL    HW284983  11.129   1.198   8.289
27696SOL     OW84984   5.149  12.180  10.432
27696SOL    HW184985   5.118  12.160  10.343
27696SOL    HW284986   5.069  12.199  10.481
27697SOL     OW84987  14.537   9.259  12.346
27697SOL    HW184988  14.538   9.324  12.416
27697SOL    HW284989  14.446   9.260  12.314
27698SOL     OW84990   5.781   8.383  10.745
27698SOL    HW184991   5.768   8.465  10.698
27698SOL    HW284992   5.725   8.320  10.700
27699SOL     OW84993   7.874   9.037   8.457
27699SOL    HW184994   7.963   9.073   8.450
27699SOL    HW284995   7.878   8.979   8.533
27700SOL     OW84996   5.330  10.490  10.342
27700SOL    HW184997   5.310  10.576  10.307
27700SOL    HW284998   5.419  10.499  10.377
27701SOL     OW84999  13.902  10.883   7.080
27701SOL    HW185000  13.920  10.790   7.068
27701SOL    HW285001  13.982  10.918   7.120
27702SOL     OW85002  12.252  12.972  11.733
27702SOL    HW185003  12.213  13.043  11.682
27702SOL    HW285004  12.222  12.988  11.823
27703SOL     OW85005   4.196  10.126  10.314
27703SOL    HW185006   4.137  10.088  10.249
27703SOL    HW285007   4.144  10.192  10.359
27704SOL     OW85008   9.500   1.203   2.844
27704SOL    HW185009   9.442   1.277   2.823
27704SOL    HW285010   9.585   1.228   2.807
27705SOL     OW85011   9.366   2.300  13.201
27705SOL    HW185012   9.367   2.249  13.120
27705SOL    HW285013   9.457   2.298  13.232
27706SOL     OW85014   9.980   5.754   5.154
27706SOL    HW185015  10.025   5.832   5.120
27706SOL    HW285016   9.898   5.788   5.191
27707SOL     OW85017   5.169   1.700   4.502
27707SOL    HW185018   5.155   1.664   4.589
27707SOL    HW285019   5.252   1.660   4.473
27708SOL     OW85020   2.043  14.562   1.838
27708SOL    HW185021   1.989  14.594   1.765
27708SOL    HW285022   2.124  14.534   1.796
27709SOL     OW85023  12.325   8.443   5.734
27709SOL    HW185024  12.289   8.371   5.786
27709SOL    HW285025  12.348   8.510   5.799
27710SOL     OW85026   7.046   9.370   1.320
27710SOL    HW185027   7.086   9.363   1.407
27710SOL    HW285028   7.061   9.285   1.280
27711SOL     OW85029   7.497  14.231   4.342
27711SOL    HW185030   7.497  14.320   4.306
27711SOL    HW285031   7.515  14.243   4.435
27712SOL     OW85032   8.926   0.527   1.291
27712SOL    HW185033   9.006   0.524   1.239
27712SOL    HW285034   8.867   0.466   1.247
27713SOL     OW85035   3.890   9.931  10.805
27713SOL    HW185036   3.955   9.866  10.778
27713SOL    HW285037   3.851   9.961  10.723
27714SOL     OW85038   4.794   0.303   9.222
27714SOL    HW185039   4.851   0.295   9.145
27714SOL    HW285040   4.792   0.397   9.241
27715SOL     OW85041   0.073   0.131   6.676
27715SOL    HW185042   0.080   0.060   6.740
27715SOL    HW285043   0.014   0.195   6.716
27716SOL     OW85044   4.867   2.993   2.761
27716SOL    HW185045   4.871   2.900   2.738
27716SOL    HW285046   4.958   3.021   2.766
27717SOL     OW85047  10.718  10.056   8.350
27717SOL    HW185048  10.811  10.042   8.368
27717SOL    HW285049  10.677   9.971   8.368
27718SOL     OW85050   5.469   6.300   4.471
27718SOL    HW185051   5.487   6.335   4.384
27718SOL    HW285052   5.376   6.281   4.471
27719SOL     OW85053   5.246  13.034  13.187
27719SOL    HW185054   5.259  13.071  13.099
27719SOL    HW285055   5.151  13.025  13.195
27720SOL     OW85056   8.552  10.910   3.324
27720SOL    HW185057   8.583  10.974   3.259
27720SOL    HW285058   8.631  10.875   3.364
27721SOL     OW85059   2.327   1.283   6.086
27721SOL    HW185060   2.297   1.192   6.080
27721SOL    HW285061   2.252   1.331   6.120
27722SOL     OW85062   0.106  13.572   6.617
27722SOL    HW185063   0.196  13.557   6.646
27722SOL    HW285064   0.107  13.554   6.523
27723SOL     OW85065  12.773   3.466  11.908
27723SOL    HW185066  12.859   3.468  11.948
27723SOL    HW285067  12.717   3.516  11.968
27724SOL     OW85068   3.339   5.076   7.045
27724SOL    HW185069   3.335   5.161   7.001
27724SOL    HW285070   3.401   5.089   7.117
27725SOL     OW85071   4.199  13.845   3.668
27725SOL    HW185072   4.250  13.765   3.659
27725SOL    HW285073   4.264  13.915   3.668
27726SOL     OW85074   5.465  14.267  13.274
27726SOL    HW185075   5.520  14.190  13.261
27726SOL    HW285076   5.516  14.324  13.332
27727SOL     OW85077  13.617   7.285   0.818
27727SOL    HW185078  13.700   7.239   0.832
27727SOL    HW285079  13.594   7.266   0.727
27728SOL     OW85080   8.519  14.707   8.070
27728SOL    HW185081   8.563  14.791   8.081
27728SOL    HW285082   8.542  14.679   7.981
27729SOL     OW85083   6.249   7.281   9.368
27729SOL    HW185084   6.204   7.202   9.337
27729SOL    HW285085   6.334   7.279   9.324
27730SOL     OW85086   1.712  11.064   3.947
27730SOL    HW185087   1.678  10.975   3.939
27730SOL    HW285088   1.651  11.118   3.896
27731SOL     OW85089   4.223  13.821   1.415
27731SOL    HW185090   4.249  13.855   1.329
27731SOL    HW285091   4.281  13.865   1.477
27732SOL     OW85092   8.930   0.696   0.005
27732SOL    HW185093   8.996   0.635  14.856
27732SOL    HW285094   8.860   0.691  14.821
27733SOL     OW85095   1.828   0.034   8.376
27733SOL    HW185096   1.820   0.015   8.470
27733SOL    HW285097   1.875   0.117   8.372
27734SOL     OW85098   9.836  13.965   1.354
27734SOL    HW185099   9.868  14.042   1.307
27734SOL    HW285100   9.767  13.999   1.411
27735SOL     OW85101   1.547   9.444   4.706
27735SOL    HW185102   1.595   9.371   4.667
27735SOL    HW285103   1.534   9.418   4.797
27736SOL     OW85104   4.173   1.666  10.080
27736SOL    HW185105   4.200   1.611  10.007
27736SOL    HW285106   4.221   1.748  10.068
27737SOL     OW85107   5.830   2.071   4.143
27737SOL    HW185108   5.866   2.074   4.055
27737SOL    HW285109   5.776   2.150   4.150
27738SOL     OW85110   0.749   9.079   5.857
27738SOL    HW185111   0.694   9.125   5.920
27738SOL    HW285112   0.838   9.093   5.890
27739SOL     OW85113   5.990   9.686  14.420
27739SOL    HW185114   5.984   9.781  14.410
27739SOL    HW285115   5.929   9.667  14.492
27740SOL     OW85116  11.048   4.687  12.622
27740SOL    HW185117  11.000   4.722  12.696
27740SOL    HW285118  11.033   4.749  12.551
27741SOL     OW85119  11.708   7.097   9.033
27741SOL    HW185120  11.733   7.084   9.124
27741SOL    HW285121  11.641   7.165   9.035
27742SOL     OW85122   7.462   7.780   4.919
27742SOL    HW185123   7.411   7.832   4.857
27742SOL    HW285124   7.433   7.690   4.904
27743SOL     OW85125   8.978   5.088   0.297
27743SOL    HW185126   9.040   5.018   0.315
27743SOL    HW285127   9.031   5.158   0.258
27744SOL     OW85128  13.525  14.342  10.770
27744SOL    HW185129  13.549  14.369  10.859
27744SOL    HW285130  13.515  14.423  10.722
27745SOL     OW85131   3.585   9.764   6.189
27745SOL    HW185132   3.496   9.730   6.180
27745SOL    HW285133   3.601   9.811   6.106
27746SOL     OW85134  12.101   5.098   1.886
27746SOL    HW185135  12.180   5.088   1.939
27746SOL    HW285136  12.082   5.009   1.855
27747SOL     OW85137   2.275  14.115  12.886
27747SOL    HW185138   2.254  14.026  12.915
27747SOL    HW285139   2.356  14.137  12.932
27748SOL     OW85140   9.409  10.500   3.138
27748SOL    HW185141   9.403  10.404   3.132
27748SOL    HW285142   9.503  10.517   3.143
27749SOL     OW85143   1.833   0.954  11.378
27749SOL    HW185144   1.863   0.866  11.353
27749SOL    HW285145   1.836   1.004  11.296
27750SOL     OW85146   8.594   5.007  12.842
27750SOL    HW185147   8.594   4.916  12.870
27750SOL    HW285148   8.576   5.004  12.748
27751SOL     OW85149   0.447   8.702   4.981
27751SOL    HW185150   0.460   8.712   5.075
27751SOL    HW285151   0.361   8.660   4.973
27752SOL     OW85152   4.332  11.963   3.812
27752SOL    HW185153   4.376  12.048   3.801
27752SOL    HW285154   4.371  11.927   3.892
27753SOL     OW85155  12.002  11.069  12.342
27753SOL    HW185156  11.955  11.048  12.422
27753SOL    HW285157  11.971  11.005  12.278
27754SOL     OW85158   9.810   3.257   7.490
27754SOL    HW185159   9.787   3.256   7.397
27754SOL    HW285160   9.769   3.337   7.524
27755SOL     OW85161   2.887   9.438   3.396
27755SOL    HW185162   2.885   9.455   3.490
27755SOL    HW285163   2.839   9.511   3.357
27756SOL     OW85164  11.606   9.361  13.693
27756SOL    HW185165  11.588   9.270  13.672
27756SOL    HW285166  11.700   9.372  13.678
27757SOL     OW85167   5.305   9.401   1.787
27757SOL    HW185168   5.388   9.353   1.778
27757SOL    HW285169   5.322   9.486   1.746
27758SOL     OW85170   0.951   8.104  13.175
27758SOL    HW185171   0.899   8.170  13.220
27758SOL    HW285172   0.914   8.100  13.087
27759SOL     OW85173  11.813  13.511   1.819
27759SOL    HW185174  11.902  13.494   1.788
27759SOL    HW285175  11.764  13.531   1.740
27760SOL     OW85176   8.004   1.705   9.290
27760SOL    HW185177   7.985   1.717   9.197
27760SOL    HW285178   8.086   1.751   9.305
27761SOL     OW85179   0.411  11.470  10.133
27761SOL    HW185180   0.437  11.562  10.141
27761SOL    HW285181   0.461  11.425  10.202
27762SOL     OW85182   9.293  13.867   5.844
27762SOL    HW185183   9.227  13.815   5.797
27762SOL    HW285184   9.273  13.958   5.819
27763SOL     OW85185   8.713  10.156   0.100
27763SOL    HW185186   8.619  10.175   0.094
27763SOL    HW285187   8.744  10.212   0.171
27764SOL     OW85188   5.353   4.676  12.147
27764SOL    HW185189   5.279   4.643  12.199
27764SOL    HW285190   5.373   4.606  12.086
27765SOL     OW85191  10.222   1.337   5.036
27765SOL    HW185192  10.158   1.401   5.005
27765SOL    HW285193  10.289   1.389   5.079
27766SOL     OW85194   4.187   9.703   2.909
27766SOL    HW185195   4.247   9.629   2.918
27766SOL    HW285196   4.223   9.770   2.968
27767SOL     OW85197   1.977   3.362   4.215
27767SOL    HW185198   1.889   3.375   4.251
27767SOL    HW285199   2.034   3.360   4.292
27768SOL     OW85200   7.643  13.074   2.188
27768SOL    HW185201   7.728  13.096   2.149
27768SOL    HW285202   7.630  13.141   2.255
27769SOL     OW85203   7.391  14.178   8.550
27769SOL    HW185204   7.462  14.221   8.503
27769SOL    HW285205   7.330  14.150   8.482
27770SOL     OW85206   4.957  13.355   9.592
27770SOL    HW185207   4.913  13.358   9.508
27770SOL    HW285208   4.942  13.266   9.624
27771SOL     OW85209   0.173   7.311   6.796
27771SOL    HW185210   0.189   7.364   6.719
27771SOL    HW285211   0.081   7.327   6.818
27772SOL     OW85212   1.878  13.118   7.860
27772SOL    HW185213   1.811  13.104   7.927
27772SOL    HW285214   1.946  13.169   7.905
27773SOL     OW85215  13.854  14.757   1.303
27773SOL    HW185216  13.926  14.819   1.312
27773SOL    HW285217  13.775  14.811   1.297
27774SOL     OW85218   7.452  10.285  13.637
27774SOL    HW185219   7.490  10.372  13.651
27774SOL    HW285220   7.392  10.273  13.711
27775SOL     OW85221   0.674   9.084   5.580
27775SOL    HW185222   0.769   9.099   5.577
27775SOL    HW285223   0.652   9.091   5.673
27776SOL     OW85224   9.085   4.083   4.995
27776SOL    HW185225   9.061   4.085   4.903
27776SOL    HW285226   9.091   3.990   5.016
27777SOL     OW85227  10.902   6.917   4.426
27777SOL    HW185228  10.952   6.997   4.444
27777SOL    HW285229  10.852   6.901   4.506
27778SOL     OW85230   0.928  14.468   9.284
27778SOL    HW185231   0.923  14.486   9.190
27778SOL    HW285232   1.020  14.483   9.306
27779SOL     OW85233   5.310   5.430   5.347
27779SOL    HW185234   5.286   5.339   5.325
27779SOL    HW285235   5.377   5.421   5.414
27780SOL     OW85236   5.334   8.958   1.749
27780SOL    HW185237   5.278   8.941   1.673
27780SOL    HW285238   5.419   8.923   1.724
27781SOL     OW85239  12.776   9.296   8.281
27781SOL    HW185240  12.869   9.287   8.260
27781SOL    HW285241  12.757   9.221   8.338
27782SOL     OW85242   4.596   6.707  13.226
27782SOL    HW185243   4.612   6.645  13.155
27782SOL    HW285244   4.603   6.654  13.306
27783SOL     OW85245   3.250   8.157   8.176
27783SOL    HW185246   3.256   8.076   8.227
27783SOL    HW285247   3.193   8.135   8.103
27784SOL     OW85248  14.298   1.876   0.901
27784SOL    HW185249  14.284   1.867   0.995
27784SOL    HW285250  14.214   1.905   0.867
27785SOL     OW85251  13.639   7.052   3.347
27785SOL    HW185252  13.680   7.120   3.400
27785SOL    HW285253  13.685   7.057   3.263
27786SOL     OW85254  13.314   5.193   0.285
27786SOL    HW185255  13.238   5.136   0.290
27786SOL    HW285256  13.389   5.135   0.298
27787SOL     OW85257   5.641   3.231   1.238
27787SOL    HW185258   5.711   3.186   1.190
27787SOL    HW285259   5.581   3.161   1.263
27788SOL     OW85260   0.841   3.698   0.422
27788SOL    HW185261   0.865   3.790   0.412
27788SOL    HW285262   0.749   3.700   0.451
27789SOL     OW85263  11.368   7.448   1.947
27789SOL    HW185264  11.274   7.465   1.961
27789SOL    HW285265  11.394   7.395   2.021
27790SOL     OW85266   9.433  12.044   3.371
27790SOL    HW185267   9.383  12.089   3.438
27790SOL    HW285268   9.524  12.056   3.398
27791SOL     OW85269   2.617   2.744   3.182
27791SOL    HW185270   2.594   2.781   3.096
27791SOL    HW285271   2.552   2.675   3.197
27792SOL     OW85272   6.801  14.434   5.699
27792SOL    HW185273   6.862  14.381   5.749
27792SOL    HW285274   6.856  14.493   5.648
27793SOL     OW85275   3.853   8.347   2.855
27793SOL    HW185276   3.891   8.344   2.943
27793SOL    HW285277   3.927   8.331   2.796
27794SOL     OW85278  11.167  12.745   8.843
27794SOL    HW185279  11.239  12.688   8.814
27794SOL    HW285280  11.207  12.831   8.853
27795SOL     OW85281   3.887  14.501   4.515
27795SOL    HW185282   3.945  14.428   4.540
27795SOL    HW285283   3.801  14.460   4.503
27796SOL     OW85284   7.634   8.962   2.663
27796SOL    HW185285   7.667   8.896   2.602
27796SOL    HW285286   7.574   8.914   2.719
27797SOL     OW85287   5.779   4.987   3.316
27797SOL    HW185288   5.829   5.043   3.376
27797SOL    HW285289   5.782   4.900   3.356
27798SOL     OW85290   0.942   1.752   4.204
27798SOL    HW185291   0.899   1.668   4.188
27798SOL    HW285292   1.005   1.734   4.274
27799SOL     OW85293   1.914   2.887   6.349
27799SOL    HW185294   1.969   2.929   6.282
27799SOL    HW285295   1.828   2.927   6.337
27800SOL     OW85296   8.805   3.617  11.568
27800SOL    HW185297   8.715   3.637  11.543
27800SOL    HW285298   8.802   3.608  11.663
27801SOL     OW85299  13.586   3.631  13.165
27801SOL    HW185300  13.633   3.709  13.194
27801SOL    HW285301  13.554   3.653  13.077
27802SOL     OW85302   1.288  14.750  12.362
27802SOL    HW185303   1.253  14.837  12.381
27802SOL    HW285304   1.306  14.751  12.268
27803SOL     OW85305   4.588   7.062   5.521
27803SOL    HW185306   4.654   7.010   5.568
27803SOL    HW285307   4.605   7.044   5.429
27804SOL     OW85308  11.123   2.484  10.973
27804SOL    HW185309  11.165   2.471  10.888
27804SOL    HW285310  11.122   2.579  10.984
27805SOL     OW85311   0.376   1.756   8.613
27805SOL    HW185312   0.426   1.705   8.549
27805SOL    HW285313   0.295   1.780   8.567
27806SOL     OW85314  10.276   7.661   1.956
27806SOL    HW185315  10.197   7.608   1.951
27806SOL    HW285316  10.245   7.747   1.984
27807SOL     OW85317  13.870   7.404   1.006
27807SOL    HW185318  13.855   7.312   0.984
27807SOL    HW285319  13.923   7.438   0.934
27808SOL     OW85320   0.801   8.059   4.550
27808SOL    HW185321   0.810   8.109   4.631
27808SOL    HW285322   0.878   8.002   4.548
27809SOL     OW85323   7.548  11.744  13.525
27809SOL    HW185324   7.459  11.747  13.561
27809SOL    HW285325   7.604  11.724  13.600
27810SOL     OW85326   9.120  13.397   1.245
27810SOL    HW185327   9.173  13.322   1.271
27810SOL    HW285328   9.068  13.366   1.172
27811SOL     OW85329  11.537   8.724   0.114
27811SOL    HW185330  11.591   8.804   0.113
27811SOL    HW285331  11.565   8.679   0.194
27812SOL     OW85332   5.573   1.185   6.193
27812SOL    HW185333   5.598   1.133   6.269
27812SOL    HW285334   5.633   1.157   6.124
27813SOL     OW85335   8.322   3.498   2.666
27813SOL    HW185336   8.277   3.566   2.615
27813SOL    HW285337   8.294   3.514   2.757
27814SOL     OW85338   2.227   8.463   0.628
27814SOL    HW185339   2.166   8.392   0.647
27814SOL    HW285340   2.309   8.418   0.607
27815SOL     OW85341   4.845   5.142  11.494
27815SOL    HW185342   4.795   5.101  11.423
27815SOL    HW285343   4.901   5.206  11.450
27816SOL     OW85344   5.029   9.624  12.464
27816SOL    HW185345   5.122   9.605  12.477
27816SOL    HW285346   4.995   9.546  12.419
27817SOL     OW85347   6.678  13.632  11.882
27817SOL    HW185348   6.737  13.565  11.916
27817SOL    HW285349   6.653  13.601  11.795
27818SOL     OW85350   1.819   2.244   7.599
27818SOL    HW185351   1.865   2.209   7.523
27818SOL    HW285352   1.851   2.191   7.672
27819SOL     OW85353   7.922   8.049   0.077
27819SOL    HW185354   7.856   8.022   0.013
27819SOL    HW285355   7.872   8.086   0.150
27820SOL     OW85356  12.617  12.970   8.972
27820SOL    HW185357  12.550  12.912   8.936
27820SOL    HW285358  12.652  12.923   9.047
27821SOL     OW85359   3.129   7.434  14.603
27821SOL    HW185360   3.056   7.446  14.542
27821SOL    HW285361   3.137   7.518  14.647
27822SOL     OW85362   5.892   0.935   4.328
27822SOL    HW185363   5.876   1.024   4.360
27822SOL    HW285364   5.909   0.946   4.235
27823SOL     OW85365   2.899   7.958   5.314
27823SOL    HW185366   2.900   7.878   5.261
27823SOL    HW285367   2.820   7.950   5.368
27824SOL     OW85368   9.185  12.361   4.486
27824SOL    HW185369   9.150  12.437   4.440
27824SOL    HW285370   9.114  12.332   4.542
27825SOL     OW85371  10.904   3.411  14.002
27825SOL    HW185372  10.970   3.466  14.046
27825SOL    HW285373  10.837   3.397  14.069
27826SOL     OW85374   6.931   8.746  11.298
27826SOL    HW185375   6.859   8.788  11.345
27826SOL    HW285376   6.897   8.660  11.273
27827SOL     OW85377   7.015   9.965  10.377
27827SOL    HW185378   6.931   9.997  10.410
27827SOL    HW285379   7.079  10.027  10.411
27828SOL     OW85380   5.099  13.081  14.832
27828SOL    HW185381   5.125  13.163  14.790
27828SOL    HW285382   5.004  13.087  14.842
27829SOL     OW85383   2.448   8.053  11.229
27829SOL    HW185384   2.533   8.048  11.274
27829SOL    HW285385   2.433   8.147  11.219
27830SOL     OW85386   3.385   4.647   2.196
27830SOL    HW185387   3.348   4.734   2.204
27830SOL    HW285388   3.422   4.644   2.108
27831SOL     OW85389  11.878  14.578   7.187
27831SOL    HW185390  11.835  14.530   7.116
27831SOL    HW285391  11.867  14.521   7.263
27832SOL     OW85392   2.594   1.314  12.274
27832SOL    HW185393   2.576   1.408  12.285
27832SOL    HW285394   2.590   1.278  12.362
27833SOL     OW85395  12.658   7.306  11.233
27833SOL    HW185396  12.734   7.249  11.234
27833SOL    HW285397  12.672   7.364  11.158
27834SOL     OW85398   3.278   2.552   4.577
27834SOL    HW185399   3.323   2.503   4.509
27834SOL    HW285400   3.348   2.586   4.633
27835SOL     OW85401   0.032  13.510  10.446
27835SOL    HW185402  14.874  13.567  10.511
27835SOL    HW285403   0.038  13.425  10.490
27836SOL     OW85404  13.458   0.825   8.951
27836SOL    HW185405  13.481   0.804   8.861
27836SOL    HW285406  13.482   0.917   8.961
27837SOL     OW85407   1.452   9.813   5.378
27837SOL    HW185408   1.541   9.838   5.353
27837SOL    HW285409   1.418   9.766   5.301
27838SOL     OW85410  11.055  11.699   9.869
27838SOL    HW185411  11.136  11.649   9.879
27838SOL    HW285412  11.016  11.665   9.789
27839SOL     OW85413   3.035  12.892   6.661
27839SOL    HW185414   3.051  12.954   6.732
27839SOL    HW285415   2.977  12.939   6.601
27840SOL     OW85416   6.727  10.976   6.268
27840SOL    HW185417   6.702  10.890   6.302
27840SOL    HW285418   6.816  10.990   6.302
27841SOL     OW85419   8.185   6.352  10.142
27841SOL    HW185420   8.199   6.426  10.201
27841SOL    HW285421   8.207   6.386  10.055
27842SOL     OW85422  11.809   2.576   4.189
27842SOL    HW185423  11.717   2.559   4.169
27842SOL    HW285424  11.812   2.581   4.285
27843SOL     OW85425   5.332  11.690   1.430
27843SOL    HW185426   5.407  11.629   1.435
27843SOL    HW285427   5.255  11.633   1.435
27844SOL     OW85428   4.050  12.126   9.230
27844SOL    HW185429   4.094  12.197   9.183
27844SOL    HW285430   4.054  12.051   9.170
27845SOL     OW85431  11.147  12.227   2.574
27845SOL    HW185432  11.191  12.292   2.519
27845SOL    HW285433  11.127  12.274   2.655
27846SOL     OW85434   7.482  12.181   0.045
27846SOL    HW185435   7.561  12.234   0.037
27846SOL    HW285436   7.420  12.236   0.093
27847SOL     OW85437   8.701  12.368   6.124
27847SOL    HW185438   8.617  12.357   6.170
27847SOL    HW285439   8.724  12.279   6.097
27848SOL     OW85440   7.106   2.835   5.075
27848SOL    HW185441   7.077   2.925   5.064
27848SOL    HW285442   7.077   2.790   4.995
27849SOL     OW85443   9.516  14.231   3.519
27849SOL    HW185444   9.543  14.139   3.529
27849SOL    HW285445   9.598  14.278   3.503
27850SOL     OW85446  14.141   6.940   0.529
27850SOL    HW185447  14.183   6.938   0.615
27850SOL    HW285448  14.047   6.929   0.548
27851SOL     OW85449   7.051  12.609  10.099
27851SOL    HW185450   7.071  12.703  10.102
27851SOL    HW285451   6.982  12.602  10.033
27852SOL     OW85452   0.374  10.000   7.481
27852SOL    HW185453   0.314   9.931   7.510
27852SOL    HW285454   0.334  10.081   7.511
27853SOL     OW85455   2.420   0.807   0.975
27853SOL    HW185456   2.432   0.737   0.911
27853SOL    HW285457   2.326   0.825   0.973
27854SOL     OW85458  14.107   2.258  13.255
27854SOL    HW185459  14.081   2.288  13.168
27854SOL    HW285460  14.200   2.278  13.261
27855SOL     OW85461   8.615   3.242   4.011
27855SOL    HW185462   8.688   3.301   4.029
27855SOL    HW285463   8.547   3.268   4.073
27856SOL     OW85464   3.352   5.558  11.757
27856SOL    HW185465   3.372   5.494  11.826
27856SOL    HW285466   3.297   5.623  11.800
27857SOL     OW85467   1.006   5.209   0.489
27857SOL    HW185468   1.083   5.183   0.539
27857SOL    HW285469   0.966   5.279   0.540
27858SOL     OW85470   5.243   3.535   6.323
27858SOL    HW185471   5.165   3.483   6.341
27858SOL    HW285472   5.277   3.558   6.410
27859SOL     OW85473   3.898   6.714   6.416
27859SOL    HW185474   3.811   6.674   6.424
27859SOL    HW285475   3.887   6.803   6.448
27860SOL     OW85476  13.602  11.636   7.402
27860SOL    HW185477  13.557  11.607   7.481
27860SOL    HW285478  13.570  11.577   7.333
27861SOL     OW85479   2.616  12.932   0.958
27861SOL    HW185480   2.708  12.956   0.946
27861SOL    HW285481   2.575  12.951   0.873
27862SOL     OW85482  14.806  10.138  14.769
27862SOL    HW185483  14.800  10.063  14.710
27862SOL    HW285484   0.018  10.152  14.781
27863SOL     OW85485  14.129   8.526   7.340
27863SOL    HW185486  14.220   8.518   7.314
27863SOL    HW285487  14.099   8.435   7.352
27864SOL     OW85488   2.277  10.666   5.688
27864SOL    HW185489   2.360  10.685   5.730
27864SOL    HW285490   2.233  10.605   5.747
27865SOL     OW85491  10.204   7.610   7.459
27865SOL    HW185492  10.109   7.610   7.445
27865SOL    HW285493  10.241   7.623   7.372
27866SOL     OW85494  13.666   7.445  11.522
27866SOL    HW185495  13.652   7.443  11.427
27866SOL    HW285496  13.634   7.531  11.549
27867SOL     OW85497  13.900  10.743   7.371
27867SOL    HW185498  13.816  10.772   7.335
27867SOL    HW285499  13.928  10.673   7.311
27868SOL     OW85500   6.785  13.494   6.332
27868SOL    HW185501   6.717  13.561   6.327
27868SOL    HW285502   6.747  13.425   6.386
27869SOL     OW85503   5.446  13.082   6.373
27869SOL    HW185504   5.390  13.005   6.383
27869SOL    HW285505   5.385  13.156   6.374
27870SOL     OW85506  11.223   8.405  14.036
27870SOL    HW185507  11.243   8.313  14.053
27870SOL    HW285508  11.158   8.428  14.102
27871SOL     OW85509  12.282  11.055  10.983
27871SOL    HW185510  12.197  11.024  11.014
27871SOL    HW285511  12.338  11.056  11.061
27872SOL     OW85512  13.110   4.706  14.830
27872SOL    HW185513  13.087   4.756   0.026
27872SOL    HW285514  13.205   4.712  14.825
27873SOL     OW85515   1.777   0.311   5.509
27873SOL    HW185516   1.725   0.321   5.429
27873SOL    HW285517   1.713   0.313   5.580
27874SOL     OW85518  14.753   9.932   4.135
27874SOL    HW185519  14.804  10.009   4.112
27874SOL    HW285520  14.818   9.862   4.146
27875SOL     OW85521   8.116   4.776   4.587
27875SOL    HW185522   8.095   4.869   4.602
27875SOL    HW285523   8.112   4.765   4.492
27876SOL     OW85524  14.694   4.722  10.434
27876SOL    HW185525  14.708   4.808  10.474
27876SOL    HW285526  14.706   4.660  10.506
27877SOL     OW85527   7.473   0.866   4.370
27877SOL    HW185528   7.425   0.934   4.322
27877SOL    HW285529   7.456   0.785   4.321
27878SOL     OW85530  10.038   1.146   2.807
27878SOL    HW185531  10.060   1.080   2.741
27878SOL    HW285532  10.120   1.192   2.823
27879SOL     OW85533   2.269   5.220  14.422
27879SOL    HW185534   2.288   5.227  14.515
27879SOL    HW285535   2.280   5.309  14.389
27880SOL     OW85536  12.914  10.991   7.299
27880SOL    HW185537  12.964  10.919   7.339
27880SOL    HW285538  12.972  11.066   7.305
27881SOL     OW85539   8.738  14.877   3.178
27881SOL    HW185540   8.674   0.038   3.235
27881SOL    HW285541   8.773  14.805   3.230
27882SOL     OW85542   5.844   2.252  12.899
27882SOL    HW185543   5.780   2.318  12.874
27882SOL    HW285544   5.835   2.184  12.832
27883SOL     OW85545  12.672   4.572   3.705
27883SOL    HW185546  12.619   4.492   3.703
27883SOL    HW285547  12.741   4.556   3.641
27884SOL     OW85548   7.285   7.633   0.797
27884SOL    HW185549   7.329   7.718   0.796
27884SOL    HW285550   7.246   7.627   0.884
27885SOL     OW85551   9.544   4.574  13.649
27885SOL    HW185552   9.563   4.617  13.733
27885SOL    HW285553   9.511   4.645  13.593
27886SOL     OW85554   4.708   7.429  12.383
27886SOL    HW185555   4.633   7.376  12.357
27886SOL    HW285556   4.758   7.372  12.442
27887SOL     OW85557   4.379   1.504   8.567
27887SOL    HW185558   4.384   1.464   8.480
27887SOL    HW285559   4.301   1.465   8.607
27888SOL     OW85560   3.474   8.373   6.763
27888SOL    HW185561   3.379   8.389   6.762
27888SOL    HW285562   3.482   8.278   6.757
27889SOL     OW85563  12.910  10.145   7.233
27889SOL    HW185564  12.888  10.221   7.179
27889SOL    HW285565  13.004  10.134   7.223
27890SOL     OW85566  10.155  12.861   9.005
27890SOL    HW185567  10.177  12.919   8.932
27890SOL    HW285568  10.069  12.890   9.034
27891SOL     OW85569  11.289  11.029  12.560
27891SOL    HW185570  11.381  11.041  12.536
27891SOL    HW285571  11.240  11.072  12.489
27892SOL     OW85572   4.890   0.503  11.654
27892SOL    HW185573   4.908   0.595  11.676
27892SOL    HW285574   4.803   0.487  11.690
27893SOL     OW85575   9.839   2.038  14.261
27893SOL    HW185576   9.747   2.026  14.240
27893SOL    HW285577   9.865   1.958  14.305
27894SOL     OW85578   6.427   0.427   0.689
27894SOL    HW185579   6.451   0.487   0.619
27894SOL    HW285580   6.509   0.381   0.710
27895SOL     OW85581  14.759   7.177   1.211
27895SOL    HW185582  14.701   7.148   1.141
27895SOL    HW285583  14.843   7.135   1.191
27896SOL     OW85584  10.338   3.895  14.497
27896SOL    HW185585  10.255   3.849  14.508
27896SOL    HW285586  10.336   3.965  14.562
27897SOL     OW85587   8.993   5.455   9.611
27897SOL    HW185588   9.058   5.425   9.675
27897SOL    HW285589   8.984   5.549   9.627
27898SOL     OW85590  10.220  12.262   8.722
27898SOL    HW185591  10.167  12.224   8.652
27898SOL    HW285592  10.266  12.187   8.761
27899SOL     OW85593   8.057   7.039   5.477
27899SOL    HW185594   8.099   7.040   5.563
27899SOL    HW285595   8.011   7.123   5.472
27900SOL     OW85596   7.169  10.783   0.784
27900SOL    HW185597   7.128  10.713   0.835
27900SOL    HW285598   7.103  10.853   0.781
27901SOL     OW85599  11.647   7.127   2.871
27901SOL    HW185600  11.553   7.109   2.867
27901SOL    HW285601  11.688   7.047   2.836
27902SOL     OW85602   1.299   3.298   8.548
27902SOL    HW185603   1.359   3.302   8.623
27902SOL    HW285604   1.354   3.317   8.472
27903SOL     OW85605   1.210   5.473   9.080
27903SOL    HW185606   1.148   5.545   9.093
27903SOL    HW285607   1.199   5.449   8.988
27904SOL     OW85608   5.575   8.685  10.274
27904SOL    HW185609   5.526   8.664  10.353
27904SOL    HW285610   5.661   8.712  10.306
27905SOL     OW85611   0.413   9.885  10.685
27905SOL    HW185612   0.423   9.809  10.627
27905SOL    HW285613   0.319   9.893  10.700
27906SOL     OW85614  11.333   1.216   8.687
27906SOL    HW185615  11.267   1.191   8.752
27906SOL    HW285616  11.303   1.175   8.606
27907SOL     OW85617  10.281   6.766   0.455
27907SOL    HW185618  10.315   6.855   0.452
27907SOL    HW285619  10.190   6.776   0.483
27908SOL     OW85620   6.086  11.896   7.736
27908SOL    HW185621   6.052  11.973   7.689
27908SOL    HW285622   6.119  11.932   7.819
27909SOL     OW85623   9.256   5.312   3.583
27909SOL    HW185624   9.201   5.304   3.505
27909SOL    HW285625   9.325   5.246   3.571
27910SOL     OW85626   3.501   1.937  10.690
27910SOL    HW185627   3.535   2.013  10.643
27910SOL    HW285628   3.526   1.863  10.636
27911SOL     OW85629   6.315   9.595   7.709
27911SOL    HW185630   6.384   9.539   7.744
27911SOL    HW285631   6.350   9.626   7.626
27912SOL     OW85632   7.042   6.340   2.488
27912SOL    HW185633   7.125   6.300   2.461
27912SOL    HW285634   7.043   6.335   2.583
27913SOL     OW85635  10.637  10.982   2.503
27913SOL    HW185636  10.629  11.009   2.594
27913SOL    HW285637  10.641  11.064   2.453
27914SOL     OW85638   7.754   1.571   1.326
27914SOL    HW185639   7.835   1.545   1.369
27914SOL    HW285640   7.726   1.494   1.276
27915SOL     OW85641  13.421   4.951   5.697
27915SOL    HW185642  13.392   4.878   5.750
27915SOL    HW285643  13.495   4.988   5.745
27916SOL     OW85644   3.257  12.975   9.499
27916SOL    HW185645   3.210  13.043   9.548
27916SOL    HW285646   3.338  13.018   9.470
27917SOL     OW85647   3.829   0.265   7.979
27917SOL    HW185648   3.862   0.213   7.906
27917SOL    HW285649   3.873   0.350   7.970
27918SOL     OW85650   6.095   7.989   7.870
27918SOL    HW185651   6.132   8.017   7.954
27918SOL    HW285652   6.043   8.064   7.840
27919SOL     OW85653   0.258  12.754   1.756
27919SOL    HW185654   0.202  12.821   1.796
27919SOL    HW285655   0.201  12.678   1.746
27920SOL     OW85656  10.561   5.052   1.636
27920SOL    HW185657  10.631   5.025   1.696
27920SOL    HW285658  10.495   5.093   1.692
27921SOL     OW85659   5.321   1.093   1.940
27921SOL    HW185660   5.290   1.036   1.870
27921SOL    HW285661   5.256   1.080   2.010
27922SOL     OW85662  13.997   1.913   0.931
27922SOL    HW185663  13.939   1.988   0.946
27922SOL    HW285664  14.028   1.925   0.841
27923SOL     OW85665   2.998   7.942   4.262
27923SOL    HW185666   2.978   7.888   4.185
27923SOL    HW285667   3.055   8.011   4.227
27924SOL     OW85668  12.236   8.041   5.346
27924SOL    HW185669  12.160   8.058   5.401
27924SOL    HW285670  12.259   7.950   5.365
27925SOL     OW85671   4.228   5.117  10.202
27925SOL    HW185672   4.246   5.132  10.109
27925SOL    HW285673   4.241   5.023  10.215
27926SOL     OW85674  10.536  13.053   0.854
27926SOL    HW185675  10.541  12.986   0.922
27926SOL    HW285676  10.539  13.136   0.902
27927SOL     OW85677   3.163   9.655  12.483
27927SOL    HW185678   3.199   9.735  12.520
27927SOL    HW285679   3.090   9.633  12.542
27928SOL     OW85680   6.457   8.775  14.249
27928SOL    HW185681   6.535   8.723  14.227
27928SOL    HW285682   6.472   8.859  14.205
27929SOL     OW85683   8.139   6.588   0.337
27929SOL    HW185684   8.109   6.605   0.247
27929SOL    HW285685   8.233   6.572   0.328
27930SOL     OW85686  12.486  12.564   9.479
27930SOL    HW185687  12.455  12.653   9.465
27930SOL    HW285688  12.435  12.511   9.418
27931SOL     OW85689   2.996   6.483   0.528
27931SOL    HW185690   2.970   6.507   0.617
27931SOL    HW285691   2.963   6.394   0.517
27932SOL     OW85692   9.378   9.087  11.324
27932SOL    HW185693   9.324   9.039  11.261
27932SOL    HW285694   9.380   9.030  11.401
27933SOL     OW85695   3.558  13.494  12.482
27933SOL    HW185696   3.504  13.553  12.430
27933SOL    HW285697   3.644  13.496  12.441
27934SOL     OW85698   2.878  13.723  14.541
27934SOL    HW185699   2.933  13.727  14.619
27934SOL    HW285700   2.806  13.664  14.566
27935SOL     OW85701   7.240   4.799   6.671
27935SOL    HW185702   7.199   4.713   6.675
27935SOL    HW285703   7.194   4.851   6.736
27936SOL     OW85704  13.888   7.771  13.599
27936SOL    HW185705  13.870   7.858  13.564
27936SOL    HW285706  13.961   7.738  13.546
27937SOL     OW85707   3.853   1.306   5.791
27937SOL    HW185708   3.912   1.231   5.800
27937SOL    HW285709   3.906   1.373   5.747
27938SOL     OW85710   1.878  13.093   1.995
27938SOL    HW185711   1.797  13.061   2.034
27938SOL    HW285712   1.920  13.015   1.959
27939SOL     OW85713  13.808   4.377   4.750
27939SOL    HW185714  13.737   4.360   4.811
27939SOL    HW285715  13.880   4.409   4.805
27940SOL     OW85716  10.431   5.266   8.963
27940SOL    HW185717  10.424   5.200   8.894
27940SOL    HW285718  10.373   5.234   9.032
27941SOL     OW85719   5.233   2.698   6.709
27941SOL    HW185720   5.264   2.630   6.769
27941SOL    HW285721   5.220   2.775   6.765
27942SOL     OW85722   2.296   9.004  10.588
27942SOL    HW185723   2.341   9.035  10.666
27942SOL    HW285724   2.342   8.924  10.563
27943SOL     OW85725  13.459   8.539  10.718
27943SOL    HW185726  13.370   8.572  10.731
27943SOL    HW285727  13.450   8.467  10.656
27944SOL     OW85728   1.833   1.592   3.326
27944SOL    HW185729   1.766   1.582   3.259
27944SOL    HW285730   1.840   1.505   3.367
27945SOL     OW85731   1.649   0.634   8.734
27945SOL    HW185732   1.704   0.612   8.659
27945SOL    HW285733   1.559   0.627   8.701
27946SOL     OW85734   4.091   0.098   6.662
27946SOL    HW185735   4.020   0.130   6.718
27946SOL    HW285736   4.055   0.021   6.619
27947SOL     OW85737   4.232   2.559  14.656
27947SOL    HW185738   4.265   2.485  14.605
27947SOL    HW285739   4.184   2.518  14.728
27948SOL     OW85740  12.905  11.015   8.832
27948SOL    HW185741  12.871  10.950   8.770
27948SOL    HW285742  12.927  10.965   8.910
27949SOL     OW85743  10.288   0.130  11.859
27949SOL    HW185744  10.298   0.040  11.890
27949SOL    HW285745  10.194   0.140  11.844
27950SOL     OW85746   7.435   3.926   1.648
27950SOL    HW185747   7.506   3.908   1.710
27950SOL    HW285748   7.416   4.019   1.659
27951SOL     OW85749  11.156   5.627  12.625
27951SOL    HW185750  11.157   5.654  12.716
27951SOL    HW285751  11.063   5.625  12.601
27952SOL     OW85752  11.785   3.372   6.828
27952SOL    HW185753  11.843   3.296   6.831
27952SOL    HW285754  11.838   3.444   6.863
27953SOL     OW85755   6.614   9.292   8.632
27953SOL    HW185756   6.655   9.223   8.684
27953SOL    HW285757   6.593   9.360   8.696
27954SOL     OW85758  10.717   2.548  11.745
27954SOL    HW185759  10.734   2.475  11.805
27954SOL    HW285760  10.622   2.561  11.750
27955SOL     OW85761   7.072   7.449   5.446
27955SOL    HW185762   7.153   7.499   5.452
27955SOL    HW285763   7.083   7.394   5.369
27956SOL     OW85764   9.600   6.765  12.059
27956SOL    HW185765   9.522   6.801  12.018
27956SOL    HW285766   9.618   6.685  12.010
27957SOL     OW85767  13.864   6.737  10.151
27957SOL    HW185768  13.949   6.781  10.161
27957SOL    HW285769  13.811   6.798  10.100
27958SOL     OW85770  13.726   4.254   6.767
27958SOL    HW185771  13.668   4.183   6.794
27958SOL    HW285772  13.667   4.318   6.725
27959SOL     OW85773   6.709  10.702   5.118
27959SOL    HW185774   6.694  10.625   5.062
27959SOL    HW285775   6.719  10.666   5.206
27960SOL     OW85776   9.538  14.256   9.337
27960SOL    HW185777   9.521  14.338   9.290
27960SOL    HW285778   9.460  14.203   9.322
27961SOL     OW85779  14.624  12.281   2.238
27961SOL    HW185780  14.593  12.254   2.152
27961SOL    HW285781  14.629  12.200   2.289
27962SOL     OW85782   1.790   5.597  12.464
27962SOL    HW185783   1.860   5.642  12.509
27962SOL    HW285784   1.779   5.644  12.381
27963SOL     OW85785   5.451  14.375   0.066
27963SOL    HW185786   5.414  14.340   0.147
27963SOL    HW285787   5.527  14.426   0.094
27964SOL     OW85788   2.165   5.867  13.810
27964SOL    HW185789   2.107   5.911  13.873
27964SOL    HW285790   2.134   5.895  13.724
27965SOL     OW85791  13.120   1.969   6.907
27965SOL    HW185792  13.121   1.875   6.893
27965SOL    HW285793  13.040   2.000   6.865
27966SOL     OW85794   5.093  11.376   3.040
27966SOL    HW185795   5.004  11.360   3.071
27966SOL    HW285796   5.109  11.308   2.974
27967SOL     OW85797   8.852  10.408   1.334
27967SOL    HW185798   8.788  10.443   1.395
27967SOL    HW285799   8.932  10.457   1.352
27968SOL     OW85800   2.413   7.795   6.912
27968SOL    HW185801   2.405   7.800   7.007
27968SOL    HW285802   2.337   7.744   6.884
27969SOL     OW85803  13.007   7.326   9.323
27969SOL    HW185804  13.047   7.328   9.236
27969SOL    HW285805  12.927   7.275   9.311
27970SOL     OW85806  12.155   7.116   1.413
27970SOL    HW185807  12.094   7.083   1.479
27970SOL    HW285808  12.135   7.209   1.405
27971SOL     OW85809   1.478   1.010   7.251
27971SOL    HW185810   1.508   0.943   7.189
27971SOL    HW285811   1.428   1.071   7.197
27972SOL     OW85812   0.407  10.692  11.379
27972SOL    HW185813   0.362  10.770  11.411
27972SOL    HW285814   0.385  10.624  11.442
27973SOL     OW85815   0.779   0.677   2.383
27973SOL    HW185816   0.863   0.680   2.428
27973SOL    HW285817   0.722   0.733   2.435
27974SOL     OW85818   3.106   6.708  12.532
27974SOL    HW185819   3.086   6.770  12.462
27974SOL    HW285820   3.197   6.727  12.556
27975SOL     OW85821   8.560   5.257  10.302
27975SOL    HW185822   8.533   5.281  10.213
27975SOL    HW285823   8.481   5.219  10.341
27976SOL     OW85824   5.406   8.504   8.016
27976SOL    HW185825   5.462   8.570   7.975
27976SOL    HW285826   5.449   8.420   7.997
27977SOL     OW85827   1.428   7.186  11.078
27977SOL    HW185828   1.408   7.168  11.170
27977SOL    HW285829   1.426   7.281  11.072
27978SOL     OW85830  12.103  13.366  13.185
27978SOL    HW185831  12.088  13.328  13.099
27978SOL    HW285832  12.031  13.334  13.239
27979SOL     OW85833  10.944  13.138   5.465
27979SOL    HW185834  11.007  13.101   5.403
27979SOL    HW285835  10.988  13.130   5.550
27980SOL     OW85836  14.672   6.222   4.764
27980SOL    HW185837  14.745   6.208   4.704
27980SOL    HW285838  14.595   6.227   4.707
27981SOL     OW85839   7.826  11.159  12.515
27981SOL    HW185840   7.868  11.245  12.521
27981SOL    HW285841   7.841  11.119  12.601
27982SOL     OW85842   2.736  13.647   5.774
27982SOL    HW185843   2.734  13.724   5.717
27982SOL    HW285844   2.650  13.606   5.761
27983SOL     OW85845  10.490   3.151   9.083
27983SOL    HW185846  10.554   3.118   9.020
27983SOL    HW285847  10.411   3.165   9.030
27984SOL     OW85848   9.951   3.408   6.422
27984SOL    HW185849  10.046   3.412   6.434
27984SOL    HW285850   9.915   3.410   6.511
27985SOL     OW85851   2.387   0.381  10.396
27985SOL    HW185852   2.478   0.368  10.367
27985SOL    HW285853   2.338   0.310  10.355
27986SOL     OW85854   9.089   9.826   3.200
27986SOL    HW185855   9.008   9.780   3.177
27986SOL    HW285856   9.092   9.823   3.295
27987SOL     OW85857  12.717   7.899  14.588
27987SOL    HW185858  12.790   7.942  14.545
27987SOL    HW285859  12.685   7.836  14.523
27988SOL     OW85860   5.604   5.608   1.040
27988SOL    HW185861   5.563   5.691   1.017
27988SOL    HW285862   5.671   5.595   0.972
27989SOL     OW85863   7.551  12.438   5.668
27989SOL    HW185864   7.579  12.529   5.673
27989SOL    HW285865   7.556  12.406   5.758
27990SOL     OW85866  14.650  13.670   1.847
27990SOL    HW185867  14.635  13.698   1.938
27990SOL    HW285868  14.592  13.725   1.795
27991SOL     OW85869  14.439  14.021   4.439
27991SOL    HW185870  14.393  14.100   4.468
27991SOL    HW285871  14.380  13.982   4.373
27992SOL     OW85872   5.244   2.034  10.571
27992SOL    HW185873   5.216   2.068  10.656
27992SOL    HW285874   5.339   2.043  10.571
27993SOL     OW85875  10.803  10.591   8.025
27993SOL    HW185876  10.890  10.568   8.058
27993SOL    HW285877  10.752  10.510   8.035
27994SOL     OW85878   1.696   7.095   5.739
27994SOL    HW185879   1.763   7.028   5.731
27994SOL    HW285880   1.643   7.086   5.660
27995SOL     OW85881   9.464  12.616  10.577
27995SOL    HW185882   9.378  12.581  10.599
27995SOL    HW285883   9.507  12.546  10.527
27996SOL     OW85884   9.088   2.013  13.044
27996SOL    HW185885   9.135   2.082  13.092
27996SOL    HW285886   9.141   1.996  12.967
27997SOL     OW85887   5.142  12.271   2.343
27997SOL    HW185888   5.101  12.348   2.384
27997SOL    HW285889   5.188  12.227   2.415
27998SOL     OW85890  11.111   1.646   6.442
27998SOL    HW185891  11.090   1.738   6.425
27998SOL    HW285892  11.206   1.640   6.432
27999SOL     OW85893  12.385   7.087   4.872
27999SOL    HW185894  12.390   6.995   4.896
27999SOL    HW285895  12.459   7.128   4.916
28000SOL     OW85896   9.700  11.149   4.561
28000SOL    HW185897   9.638  11.171   4.491
28000SOL    HW285898   9.769  11.215   4.553
28001SOL     OW85899   1.583  12.011   5.636
28001SOL    HW185900   1.612  12.021   5.727
28001SOL    HW285901   1.608  11.921   5.613
28002SOL     OW85902  14.262  12.407   9.448
28002SOL    HW185903  14.344  12.456   9.439
28002SOL    HW285904  14.206  12.465   9.499
28003SOL     OW85905   9.134   5.771  11.149
28003SOL    HW185906   9.039   5.776  11.164
28003SOL    HW285907   9.143   5.771  11.054
28004SOL     OW85908  13.657  12.867   8.280
28004SOL    HW185909  13.673  12.777   8.251
28004SOL    HW285910  13.737  12.894   8.324
28005SOL     OW85911   3.203   4.217   8.269
28005SOL    HW185912   3.235   4.286   8.210
28005SOL    HW285913   3.138   4.170   8.217
28006SOL     OW85914   1.006   9.134   5.939
28006SOL    HW185915   1.034   9.217   5.901
28006SOL    HW285916   1.024   9.069   5.871
28007SOL     OW85917  11.162   6.896  13.812
28007SOL    HW185918  11.109   6.818  13.827
28007SOL    HW285919  11.144   6.952  13.888
28008SOL     OW85920   6.149   6.772   9.427
28008SOL    HW185921   6.159   6.699   9.366
28008SOL    HW285922   6.072   6.751   9.479
28009SOL     OW85923  11.470   9.514   7.916
28009SOL    HW185924  11.518   9.449   7.967
28009SOL    HW285925  11.409   9.463   7.862
28010SOL     OW85926   5.230  12.557   6.521
28010SOL    HW185927   5.269  12.484   6.474
28010SOL    HW285928   5.248  12.539   6.613
28011SOL     OW85929   1.348   1.525   7.623
28011SOL    HW185930   1.414   1.507   7.555
28011SOL    HW285931   1.390   1.590   7.679
28012SOL     OW85932  10.677  14.722  13.379
28012SOL    HW185933  10.652  14.636  13.346
28012SOL    HW285934  10.631  14.784  13.322
28013SOL     OW85935   6.836   0.487  10.447
28013SOL    HW185936   6.810   0.572  10.410
28013SOL    HW285937   6.879   0.510  10.530
28014SOL     OW85938   8.681   6.359  12.203
28014SOL    HW185939   8.735   6.417  12.257
28014SOL    HW285940   8.623   6.315  12.266
28015SOL     OW85941   3.945   4.869   0.068
28015SOL    HW185942   3.936   4.950   0.120
28015SOL    HW285943   3.860   4.857   0.027
28016SOL     OW85944   4.594   4.241   7.394
28016SOL    HW185945   4.627   4.230   7.304
28016SOL    HW285946   4.519   4.300   7.384
28017SOL     OW85947  14.305  14.230   1.555
28017SOL    HW185948  14.298  14.303   1.616
28017SOL    HW285949  14.257  14.259   1.477
28018SOL     OW85950  13.376   2.306   7.353
28018SOL    HW185951  13.341   2.386   7.313
28018SOL    HW285952  13.304   2.273   7.407
28019SOL     OW85953  12.580   2.501  14.516
28019SOL    HW185954  12.508   2.448  14.550
28019SOL    HW285955  12.588   2.573  14.579
28020SOL     OW85956  11.129   9.928   8.193
28020SOL    HW185957  11.077   9.870   8.138
28020SOL    HW285958  11.182   9.868   8.246
28021SOL     OW85959  10.122   5.956   1.939
28021SOL    HW185960  10.133   5.863   1.923
28021SOL    HW285961  10.187   5.976   2.007
28022SOL     OW85962   3.999   5.210   6.589
28022SOL    HW185963   4.052   5.265   6.530
28022SOL    HW285964   3.909   5.237   6.573
28023SOL     OW85965  13.067  11.410   8.390
28023SOL    HW185966  12.999  11.472   8.418
28023SOL    HW285967  13.050  11.332   8.443
28024SOL     OW85968  10.283  10.521  14.529
28024SOL    HW185969  10.219  10.503  14.598
28024SOL    HW285970  10.364  10.540  14.575
28025SOL     OW85971   9.109  12.231   9.654
28025SOL    HW185972   9.171  12.244   9.582
28025SOL    HW285973   9.160  12.248   9.733
28026SOL     OW85974   8.721   2.307  10.579
28026SOL    HW185975   8.801   2.286  10.626
28026SOL    HW285976   8.740   2.284  10.488
28027SOL     OW85977  14.108   5.579  14.459
28027SOL    HW185978  14.188   5.531  14.433
28027SOL    HW285979  14.043   5.554  14.393
28028SOL     OW85980  11.714  14.787   9.974
28028SOL    HW185981  11.763  14.768   9.894
28028SOL    HW285982  11.744  14.874  10.000
28029SOL     OW85983  11.265   6.280   2.588
28029SOL    HW185984  11.346   6.232   2.601
28029SOL    HW285985  11.197   6.212   2.586
28030SOL     OW85986  14.641   1.190  10.622
28030SOL    HW185987  14.709   1.206  10.557
28030SOL    HW285988  14.645   1.096  10.640
28031SOL     OW85989  10.165   0.400   5.070
28031SOL    HW185990  10.074   0.401   5.040
28031SOL    HW285991  10.191   0.308   5.064
28032SOL     OW85992   0.381   0.492   7.684
28032SOL    HW185993   0.308   0.553   7.697
28032SOL    HW285994   0.339   0.407   7.671
28033SOL     OW85995  13.950   7.461  11.698
28033SOL    HW185996  13.942   7.378  11.744
28033SOL    HW285997  14.002   7.516  11.756
28034SOL     OW85998   6.977   3.802   4.126
28034SOL    HW185999   6.988   3.723   4.073
28034SOL    HW286000   6.954   3.870   4.063
28035SOL     OW86001   6.045  10.980  13.196
28035SOL    HW186002   6.108  11.005  13.263
28035SOL    HW286003   6.088  10.999  13.113
28036SOL     OW86004   2.094  13.981  11.483
28036SOL    HW186005   2.154  13.910  11.460
28036SOL    HW286006   2.007  13.941  11.482
28037SOL     OW86007  14.119  13.139   4.627
28037SOL    HW186008  14.033  13.142   4.668
28037SOL    HW286009  14.163  13.219   4.656
28038SOL     OW86010   2.373   1.859   5.429
28038SOL    HW186011   2.302   1.921   5.415
28038SOL    HW286012   2.401   1.834   5.341
28039SOL     OW86013   8.264   4.811   8.378
28039SOL    HW186014   8.200   4.849   8.317
28039SOL    HW286015   8.249   4.858   8.460
28040SOL     OW86016   7.177   4.646   3.890
28040SOL    HW186017   7.220   4.649   3.976
28040SOL    HW286018   7.235   4.592   3.836
28041SOL     OW86019  14.689   4.522   5.434
28041SOL    HW186020  14.656   4.445   5.479
28041SOL    HW286021  14.752   4.488   5.371
28042SOL     OW86022   7.237   6.893   6.442
28042SOL    HW186023   7.175   6.829   6.406
28042SOL    HW286024   7.181   6.959   6.483
28043SOL     OW86025   2.293  11.132   2.764
28043SOL    HW186026   2.388  11.136   2.751
28043SOL    HW286027   2.273  11.206   2.821
28044SOL     OW86028   3.495   4.550   3.663
28044SOL    HW186029   3.509   4.627   3.608
28044SOL    HW286030   3.556   4.561   3.736
28045SOL     OW86031   0.187   0.638   5.958
28045SOL    HW186032   0.170   0.694   5.882
28045SOL    HW286033   0.102   0.629   6.001
28046SOL     OW86034   5.136  10.579   1.901
28046SOL    HW186035   5.061  10.599   1.844
28046SOL    HW286036   5.206  10.635   1.869
28047SOL     OW86037   2.624   2.875   1.363
28047SOL    HW186038   2.656   2.843   1.447
28047SOL    HW286039   2.703   2.883   1.309
28048SOL     OW86040   2.279   7.110   8.518
28048SOL    HW186041   2.248   7.021   8.502
28048SOL    HW286042   2.373   7.100   8.535
28049SOL     OW86043  10.311  12.958  13.826
28049SOL    HW186044  10.327  12.989  13.915
28049SOL    HW286045  10.250  13.021  13.789
28050SOL     OW86046  11.786   1.995   8.816
28050SOL    HW186047  11.857   1.978   8.754
28050SOL    HW286048  11.753   2.082   8.792
28051SOL     OW86049   0.338   9.343   9.932
28051SOL    HW186050   0.432   9.343   9.952
28051SOL    HW286051   0.301   9.403   9.997
28052SOL     OW86052   1.798   0.414  10.551
28052SOL    HW186053   1.852   0.336  10.566
28052SOL    HW286054   1.860   0.487  10.557
28053SOL     OW86055   0.139   2.314   2.908
28053SOL    HW186056   0.055   2.291   2.868
28053SOL    HW286057   0.170   2.390   2.858
28054SOL     OW86058   9.488  11.202   6.723
28054SOL    HW186059   9.400  11.189   6.758
28054SOL    HW286060   9.505  11.295   6.738
28055SOL     OW86061   5.415   8.123   1.663
28055SOL    HW186062   5.502   8.131   1.702
28055SOL    HW286063   5.432   8.108   1.570
28056SOL     OW86064   1.077  11.354   4.754
28056SOL    HW186065   1.082  11.328   4.846
28056SOL    HW286066   1.168  11.366   4.728
28057SOL     OW86067  13.836   7.927  13.864
28057SOL    HW186068  13.931   7.940  13.874
28057SOL    HW286069  13.810   7.990  13.798
28058SOL     OW86070   3.220   1.495  11.452
28058SOL    HW186071   3.289   1.559  11.432
28058SOL    HW286072   3.141   1.531  11.410
28059SOL     OW86073   5.078   8.431   9.041
28059SOL    HW186074   5.083   8.414   8.947
28059SOL    HW286075   5.091   8.346   9.082
28060SOL     OW86076   7.265   1.860  12.840
28060SOL    HW186077   7.358   1.836  12.838
28060SOL    HW286078   7.257   1.918  12.915
28061SOL     OW86079   6.752   8.301   8.653
28061SOL    HW186080   6.712   8.342   8.730
28061SOL    HW286081   6.842   8.284   8.679
28062SOL     OW86082   1.533  10.274   7.597
28062SOL    HW186083   1.609  10.237   7.643
28062SOL    HW286084   1.521  10.360   7.637
28063SOL     OW86085   6.698   4.193   0.704
28063SOL    HW186086   6.784   4.151   0.701
28063SOL    HW286087   6.707   4.271   0.649
28064SOL     OW86088  12.415  13.616  12.879
28064SOL    HW186089  12.346  13.549  12.876
28064SOL    HW286090  12.399  13.663  12.961
28065SOL     OW86091   2.955   0.785  11.456
28065SOL    HW186092   2.883   0.816  11.511
28065SOL    HW286093   2.914   0.723  11.395
28066SOL     OW86094   3.305  14.416   6.161
28066SOL    HW186095   3.221  14.378   6.187
28066SOL    HW286096   3.347  14.442   6.243
28067SOL     OW86097   5.152   3.939   4.854
28067SOL    HW186098   5.224   3.884   4.826
28067SOL    HW286099   5.102   3.957   4.773
28068SOL     OW86100  10.744   9.351   8.917
28068SOL    HW186101  10.707   9.263   8.909
28068SOL    HW286102  10.839   9.337   8.911
28069SOL     OW86103   0.264   7.742  14.247
28069SOL    HW186104   0.315   7.664  14.228
28069SOL    HW286105   0.324   7.800  14.294
28070SOL     OW86106  12.305  12.126   1.215
28070SOL    HW186107  12.244  12.168   1.154
28070SOL    HW286108  12.386  12.176   1.206
28071SOL     OW86109  10.109  13.097  13.690
28071SOL    HW186110  10.047  13.051  13.633
28071SOL    HW286111  10.077  13.188  13.690
28072SOL     OW86112  10.719   9.821   6.553
28072SOL    HW186113  10.747   9.743   6.505
28072SOL    HW286114  10.800   9.870   6.567
28073SOL     OW86115   5.155   0.968   5.028
28073SOL    HW186116   5.184   0.994   5.115
28073SOL    HW286117   5.206   0.890   5.007
28074SOL     OW86118   3.494  12.642   7.844
28074SOL    HW186119   3.582  12.624   7.876
28074SOL    HW286120   3.447  12.559   7.854
28075SOL     OW86121   4.325   3.488   5.886
28075SOL    HW186122   4.387   3.520   5.821
28075SOL    HW286123   4.366   3.409   5.922
28076SOL     OW86124   2.379   5.972  13.950
28076SOL    HW186125   2.438   5.915  14.000
28076SOL    HW286126   2.312   5.914  13.915
28077SOL     OW86127   5.360  11.978  10.530
28077SOL    HW186128   5.297  12.049  10.537
28077SOL    HW286129   5.428  12.011  10.472
28078SOL     OW86130  10.879   5.645   4.015
28078SOL    HW186131  10.932   5.725   4.014
28078SOL    HW286132  10.789   5.677   4.022
28079SOL     OW86133   0.935   2.755  12.736
28079SOL    HW186134   0.984   2.780  12.658
28079SOL    HW286135   0.891   2.836  12.764
28080SOL     OW86136  12.588   7.649   0.994
28080SOL    HW186137  12.661   7.682   1.045
28080SOL    HW286138  12.613   7.664   0.903
28081SOL     OW86139   8.405  14.212   9.725
28081SOL    HW186140   8.344  14.200   9.798
28081SOL    HW286141   8.490  14.186   9.760
28082SOL     OW86142   4.394  10.147   7.207
28082SOL    HW186143   4.406  10.053   7.220
28082SOL    HW286144   4.460  10.171   7.142
28083SOL     OW86145   9.707   2.045   6.722
28083SOL    HW186146   9.717   1.999   6.639
28083SOL    HW286147   9.719   2.138   6.699
28084SOL     OW86148   0.259   8.620  13.021
28084SOL    HW186149   0.305   8.693  12.978
28084SOL    HW286150   0.218   8.659  13.098
28085SOL     OW86151  12.110  11.947   0.693
28085SOL    HW186152  12.086  12.013   0.758
28085SOL    HW286153  12.072  11.865   0.726
28086SOL     OW86154   3.364  10.950   2.828
28086SOL    HW186155   3.414  10.879   2.868
28086SOL    HW286156   3.427  11.020   2.813
28087SOL     OW86157   5.705   2.628  13.189
28087SOL    HW186158   5.648   2.559  13.223
28087SOL    HW286159   5.756   2.585  13.121
28088SOL     OW86160  11.010   3.342   1.587
28088SOL    HW186161  11.071   3.343   1.661
28088SOL    HW286162  11.041   3.271   1.531
28089SOL     OW86163  14.625   3.423  10.345
28089SOL    HW186164  14.553   3.485  10.351
28089SOL    HW286165  14.624   3.377  10.429
28090SOL     OW86166   4.692   7.801   1.396
28090SOL    HW186167   4.606   7.784   1.358
28090SOL    HW286168   4.742   7.722   1.379
28091SOL     OW86169   0.347   3.296  12.200
28091SOL    HW186170   0.418   3.234  12.188
28091SOL    HW286171   0.384   3.365  12.255
28092SOL     OW86172   6.384  14.725   8.471
28092SOL    HW186173   6.330  14.698   8.544
28092SOL    HW286174   6.414  14.813   8.495
28093SOL     OW86175   7.925  10.589   3.543
28093SOL    HW186176   7.920  10.655   3.612
28093SOL    HW286177   7.946  10.640   3.464
28094SOL     OW86178   3.106  10.440  12.770
28094SOL    HW186179   3.155  10.509  12.814
28094SOL    HW286180   3.158  10.419  12.693
28095SOL     OW86181   7.244  13.502  10.253
28095SOL    HW186182   7.202  13.587  10.244
28095SOL    HW286183   7.251  13.469  10.163
28096SOL     OW86184  10.077   0.463   6.369
28096SOL    HW186185  10.092   0.455   6.275
28096SOL    HW286186   9.996   0.415   6.386
28097SOL     OW86187  12.803   3.139   7.547
28097SOL    HW186188  12.826   3.081   7.619
28097SOL    HW286189  12.808   3.083   7.469
28098SOL     OW86190   2.206   1.434   3.319
28098SOL    HW186191   2.127   1.481   3.292
28098SOL    HW286192   2.221   1.370   3.250
28099SOL     OW86193  11.315   0.364   9.409
28099SOL    HW186194  11.349   0.277   9.387
28099SOL    HW286195  11.338   0.376   9.501
28100SOL     OW86196   7.712  13.071   5.342
28100SOL    HW186197   7.807  13.066   5.340
28100SOL    HW286198   7.689  13.064   5.434
28101SOL     OW86199  13.884   4.054   9.479
28101SOL    HW186200  13.938   3.994   9.529
28101SOL    HW286201  13.883   4.135   9.531
28102SOL     OW86202   7.389   3.278   5.762
28102SOL    HW186203   7.319   3.318   5.814
28102SOL    HW286204   7.351   3.266   5.675
28103SOL     OW86205  14.255   4.808   2.259
28103SOL    HW186206  14.347   4.797   2.234
28103SOL    HW286207  14.210   4.737   2.214
28104SOL     OW86208  13.372   4.657  11.274
28104SOL    HW186209  13.459   4.659  11.235
28104SOL    HW286210  13.335   4.743  11.255
28105SOL     OW86211  13.764   3.499  13.582
28105SOL    HW186212  13.675   3.518  13.612
28105SOL    HW286213  13.753   3.469  13.492
28106SOL     OW86214   9.153   9.678  13.316
28106SOL    HW186215   9.080   9.651  13.261
28106SOL    HW286216   9.208   9.732  13.259
28107SOL     OW86217   5.580  10.610   8.426
28107SOL    HW186218   5.617  10.695   8.449
28107SOL    HW286219   5.548  10.575   8.509
28108SOL     OW86220   5.360   2.182   5.343
28108SOL    HW186221   5.369   2.223   5.258
28108SOL    HW286222   5.394   2.246   5.405
28109SOL     OW86223  11.535   7.781   0.082
28109SOL    HW186224  11.443   7.765   0.063
28109SOL    HW286225  11.560   7.711   0.141
28110SOL     OW86226   8.600   6.416   9.126
28110SOL    HW186227   8.558   6.359   9.190
28110SOL    HW286228   8.693   6.418   9.152
28111SOL     OW86229  12.113   9.184   4.561
28111SOL    HW186230  12.170   9.211   4.633
28111SOL    HW286231  12.026   9.178   4.599
28112SOL     OW86232   2.435  13.138   9.151
28112SOL    HW186233   2.420  13.191   9.230
28112SOL    HW286234   2.405  13.193   9.079
28113SOL     OW86235  12.077  11.931  10.170
28113SOL    HW186236  12.118  11.976  10.096
28113SOL    HW286237  12.009  11.992  10.199
28114SOL     OW86238  13.915  10.619  12.355
28114SOL    HW186239  13.872  10.623  12.441
28114SOL    HW286240  13.994  10.567  12.370
28115SOL     OW86241   4.705   6.346  14.420
28115SOL    HW186242   4.718   6.375  14.330
28115SOL    HW286243   4.723   6.252  14.417
28116SOL     OW86244   7.129   5.287   3.998
28116SOL    HW186245   7.048   5.280   3.948
28116SOL    HW286246   7.162   5.375   3.978
28117SOL     OW86247   8.310  10.959  14.568
28117SOL    HW186248   8.328  11.024  14.636
28117SOL    HW286249   8.390  10.907  14.562
28118SOL     OW86250  12.623   5.393   8.259
28118SOL    HW186251  12.699   5.416   8.204
28118SOL    HW286252  12.587   5.314   8.219
28119SOL     OW86253   7.703  10.628   6.587
28119SOL    HW186254   7.699  10.710   6.636
28119SOL    HW286255   7.786  10.634   6.538
28120SOL     OW86256   9.335   8.977   1.734
28120SOL    HW186257   9.297   8.937   1.656
28120SOL    HW286258   9.264   8.977   1.798
28121SOL     OW86259   7.598   8.164  14.788
28121SOL    HW186260   7.644   8.082  14.806
28121SOL    HW286261   7.510   8.137  14.761
28122SOL     OW86262   4.408  10.266   8.212
28122SOL    HW186263   4.407  10.341   8.271
28122SOL    HW286264   4.501  10.250   8.195
28123SOL     OW86265  14.870  14.541  13.010
28123SOL    HW186266   0.041  14.471  13.048
28123SOL    HW286267  14.797  14.552  13.071
28124SOL     OW86268   2.020   4.004  13.796
28124SOL    HW186269   1.972   4.076  13.755
28124SOL    HW286270   2.070   4.046  13.866
28125SOL     OW86271   7.349  13.987   3.954
28125SOL    HW186272   7.312  13.906   3.989
28125SOL    HW286273   7.321  14.055   4.015
28126SOL     OW86274  13.147  10.960   1.442
28126SOL    HW186275  13.125  11.048   1.411
28126SOL    HW286276  13.116  10.959   1.533
28127SOL     OW86277   5.398  14.725   7.205
28127SOL    HW186278   5.460  14.694   7.271
28127SOL    HW286279   5.319  14.747   7.255
28128SOL     OW86280  10.124   4.865   3.331
28128SOL    HW186281  10.208   4.832   3.365
28128SOL    HW286282  10.146   4.902   3.246
28129SOL     OW86283   6.750   0.290   3.724
28129SOL    HW186284   6.824   0.317   3.670
28129SOL    HW286285   6.787   0.226   3.785
28130SOL     OW86286  13.256  13.014  14.089
28130SOL    HW186287  13.261  13.109  14.076
28130SOL    HW286288  13.167  12.998  14.119
28131SOL     OW86289  13.325  11.038   3.514
28131SOL    HW186290  13.279  10.956   3.531
28131SOL    HW286291  13.375  11.022   3.434
28132SOL     OW86292  13.284  12.342  13.260
28132SOL    HW186293  13.222  12.292  13.208
28132SOL    HW286294  13.311  12.414  13.203
28133SOL     OW86295   3.446  12.873  13.711
28133SOL    HW186296   3.519  12.932  13.692
28133SOL    HW286297   3.424  12.891  13.803
28134SOL     OW86298  10.496   9.680   3.104
28134SOL    HW186299  10.454   9.713   3.024
28134SOL    HW286300  10.587   9.710   3.097
28135SOL     OW86301   6.660  13.776   3.341
28135SOL    HW186302   6.712  13.727   3.277
28135SOL    HW286303   6.574  13.786   3.299
28136SOL     OW86304   3.692   3.607   4.496
28136SOL    HW186305   3.613   3.655   4.521
28136SOL    HW286306   3.744   3.601   4.577
28137SOL     OW86307   9.756   0.301   8.216
28137SOL    HW186308   9.690   0.261   8.272
28137SOL    HW286309   9.800   0.365   8.272
28138SOL     OW86310   3.526   0.869   0.809
28138SOL    HW186311   3.497   0.804   0.744
28138SOL    HW286312   3.459   0.936   0.809
28139SOL     OW86313   4.224   5.686  11.729
28139SOL    HW186314   4.260   5.741  11.660
28139SOL    HW286315   4.139   5.725  11.749
28140SOL     OW86316   8.131   2.484  11.670
28140SOL    HW186317   8.120   2.520  11.582
28140SOL    HW286318   8.225   2.474  11.680
28141SOL     OW86319   5.194   0.828  12.088
28141SOL    HW186320   5.235   0.750  12.125
28141SOL    HW286321   5.250   0.900  12.115
28142SOL     OW86322   0.143   3.677   1.084
28142SOL    HW186323   0.232   3.688   1.119
28142SOL    HW286324   0.105   3.608   1.138
28143SOL     OW86325   1.359  12.650   0.729
28143SOL    HW186326   1.342  12.556   0.720
28143SOL    HW286327   1.454  12.655   0.746
28144SOL     OW86328   0.380   2.944   2.657
28144SOL    HW186329   0.292   2.913   2.677
28144SOL    HW286330   0.423   2.871   2.613
28145SOL     OW86331   9.505   7.595  12.491
28145SOL    HW186332   9.435   7.606  12.426
28145SOL    HW286333   9.582   7.632  12.450
28146SOL     OW86334   1.884   7.633   7.007
28146SOL    HW186335   1.803   7.584   7.021
28146SOL    HW286336   1.923   7.640   7.094
28147SOL     OW86337   2.494   4.100   0.812
28147SOL    HW186338   2.529   4.189   0.802
28147SOL    HW286339   2.403   4.108   0.784
28148SOL     OW86340   6.280  10.465   9.745
28148SOL    HW186341   6.365  10.464   9.788
28148SOL    HW286342   6.246  10.553   9.761
28149SOL     OW86343   1.993   4.760   2.069
28149SOL    HW186344   2.019   4.671   2.048
28149SOL    HW286345   1.902   4.767   2.039
28150SOL     OW86346   1.986   1.729  11.852
28150SOL    HW186347   1.985   1.788  11.776
28150SOL    HW286348   2.079   1.719  11.873
28151SOL     OW86349   4.500   2.091   3.962
28151SOL    HW186350   4.593   2.113   3.955
28151SOL    HW286351   4.493   2.006   3.918
28152SOL     OW86352   2.919  11.080   8.424
28152SOL    HW186353   3.008  11.084   8.387
28152SOL    HW286354   2.862  11.075   8.347
28153SOL     OW86355   8.629   7.125   0.455
28153SOL    HW186356   8.606   7.163   0.540
28153SOL    HW286357   8.611   7.196   0.392
28154SOL     OW86358   6.091  11.877   9.708
28154SOL    HW186359   6.059  11.930   9.781
28154SOL    HW286360   6.063  11.788   9.728
28155SOL     OW86361   6.093   6.057   0.202
28155SOL    HW186362   6.098   6.153   0.198
28155SOL    HW286363   6.124   6.028   0.116
28156SOL     OW86364  13.447   2.204  10.875
28156SOL    HW186365  13.405   2.191  10.959
28156SOL    HW286366  13.537   2.231  10.897
28157SOL     OW86367  11.903  14.771   3.752
28157SOL    HW186368  11.990  14.812   3.748
28157SOL    HW286369  11.846  14.841   3.783
28158SOL     OW86370   0.540   8.282  10.748
28158SOL    HW186371   0.526   8.281  10.653
28158SOL    HW286372   0.575   8.369  10.766
28159SOL     OW86373   6.499   0.673   1.691
28159SOL    HW186374   6.457   0.650   1.608
28159SOL    HW286375   6.573   0.728   1.665
28160SOL     OW86376   6.417  14.751   0.232
28160SOL    HW186377   6.468  14.781   0.157
28160SOL    HW286378   6.459  14.792   0.308
28161SOL     OW86379   4.829  14.479   5.143
28161SOL    HW186380   4.743  14.511   5.114
28161SOL    HW286381   4.835  14.391   5.104
28162SOL     OW86382   9.103   6.827   0.097
28162SOL    HW186383   9.085   6.921   0.103
28162SOL    HW286384   9.016   6.787   0.093
28163SOL     OW86385   5.056  10.698   1.379
28163SOL    HW186386   5.144  10.716   1.347
28163SOL    HW286387   5.028  10.621   1.330
28164SOL     OW86388   4.058   8.380   3.922
28164SOL    HW186389   4.018   8.414   3.841
28164SOL    HW286390   4.152   8.383   3.905
28165SOL     OW86391   7.711   7.857  11.582
28165SOL    HW186392   7.792   7.890  11.542
28165SOL    HW286393   7.646   7.926  11.566
28166SOL     OW86394  14.419   9.044   2.063
28166SOL    HW186395  14.368   8.981   2.115
28166SOL    HW286396  14.357   9.078   1.999
28167SOL     OW86397   7.518   4.486   7.532
28167SOL    HW186398   7.513   4.512   7.440
28167SOL    HW286399   7.435   4.515   7.569
28168SOL     OW86400  10.732  10.728  12.189
28168SOL    HW186401  10.751  10.636  12.209
28168SOL    HW286402  10.817  10.772  12.198
28169SOL     OW86403   6.815  14.765  11.205
28169SOL    HW186404   6.762  14.687  11.191
28169SOL    HW286405   6.896  14.749  11.156
28170SOL     OW86406   7.398   9.288   8.522
28170SOL    HW186407   7.377   9.274   8.430
28170SOL    HW286408   7.473   9.230   8.538
28171SOL     OW86409   2.230  13.745   4.528
28171SOL    HW186410   2.290  13.688   4.575
28171SOL    HW286411   2.283  13.821   4.503
28172SOL     OW86412   0.629  11.154   6.662
28172SOL    HW186413   0.651  11.226   6.721
28172SOL    HW286414   0.708  11.139   6.611
28173SOL     OW86415   5.448  14.348   2.183
28173SOL    HW186416   5.415  14.435   2.206
28173SOL    HW286417   5.515  14.330   2.250
28174SOL     OW86418   7.900  11.586   9.334
28174SOL    HW186419   7.904  11.677   9.306
28174SOL    HW286420   7.882  11.590   9.427
28175SOL     OW86421   7.372  12.906   4.239
28175SOL    HW186422   7.325  12.877   4.161
28175SOL    HW286423   7.386  12.826   4.290
28176SOL     OW86424   1.083  14.186   2.902
28176SOL    HW186425   1.088  14.098   2.940
28176SOL    HW286426   1.123  14.243   2.968
28177SOL     OW86427  10.284   4.568   4.871
28177SOL    HW186428  10.204   4.568   4.817
28177SOL    HW286429  10.321   4.480   4.859
28178SOL     OW86430   5.176   4.889   1.947
28178SOL    HW186431   5.135   4.823   1.891
28178SOL    HW286432   5.121   4.892   2.026
28179SOL     OW86433   0.054  13.151  12.685
28179SOL    HW186434   0.120  13.159  12.616
28179SOL    HW286435   0.041  13.240  12.717
28180SOL     OW86436  11.450   3.298   2.075
28180SOL    HW186437  11.381   3.270   2.135
28180SOL    HW286438  11.470   3.221   2.022
28181SOL     OW86439   7.696  13.600  14.816
28181SOL    HW186440   7.735  13.586   0.021
28181SOL    HW286441   7.693  13.695  14.807
28182SOL     OW86442   8.295   2.420   7.745
28182SOL    HW186443   8.321   2.469   7.667
28182SOL    HW286444   8.334   2.333   7.732
28183SOL     OW86445  11.057   0.577   6.226
28183SOL    HW186446  11.001   0.499   6.230
28183SOL    HW286447  11.084   0.592   6.316
28184SOL     OW86448   8.925  12.277   7.879
28184SOL    HW186449   9.014  12.311   7.881
28184SOL    HW286450   8.920  12.219   7.955
28185SOL     OW86451   7.227  13.123   1.220
28185SOL    HW186452   7.249  13.032   1.201
28185SOL    HW286453   7.296  13.173   1.177
28186SOL     OW86454  12.723   5.783   4.559
28186SOL    HW186455  12.741   5.846   4.629
28186SOL    HW286456  12.765   5.702   4.589
28187SOL     OW86457   2.917   5.064   6.065
28187SOL    HW186458   2.868   5.055   5.984
28187SOL    HW286459   2.878   5.140   6.109
28188SOL     OW86460  11.664   9.048   1.880
28188SOL    HW186461  11.695   8.983   1.943
28188SOL    HW286462  11.672   9.005   1.795
28189SOL     OW86463  10.291   8.313   6.737
28189SOL    HW186464  10.290   8.289   6.830
28189SOL    HW286465  10.210   8.362   6.724
28190SOL     OW86466   7.027   0.741   7.785
28190SOL    HW186467   6.946   0.699   7.756
28190SOL    HW286468   7.043   0.705   7.873
28191SOL     OW86469   2.104  12.992  12.239
28191SOL    HW186470   2.041  12.927  12.271
28191SOL    HW286471   2.162  13.008  12.314
28192SOL     OW86472   8.770  12.411   0.855
28192SOL    HW186473   8.717  12.491   0.857
28192SOL    HW286474   8.706  12.340   0.859
28193SOL     OW86475   5.602  11.081   1.286
28193SOL    HW186476   5.609  11.090   1.381
28193SOL    HW286477   5.678  11.128   1.252
28194SOL     OW86478   6.367   9.880   9.539
28194SOL    HW186479   6.425   9.805   9.525
28194SOL    HW286480   6.282   9.850   9.509
28195SOL     OW86481  11.763  11.249   6.039
28195SOL    HW186482  11.845  11.282   6.005
28195SOL    HW286483  11.773  11.153   6.037
28196SOL     OW86484  11.160   6.935  14.621
28196SOL    HW186485  11.135   7.020  14.657
28196SOL    HW286486  11.106   6.925  14.543
28197SOL     OW86487   0.315   9.393   4.453
28197SOL    HW186488   0.407   9.370   4.468
28197SOL    HW286489   0.295   9.458   4.520
28198SOL     OW86490   6.900  10.013   0.047
28198SOL    HW186491   6.839  10.012  14.855
28198SOL    HW286492   6.873   9.939   0.102
28199SOL     OW86493   7.594   1.566  12.288
28199SOL    HW186494   7.666   1.576  12.225
28199SOL    HW286495   7.520   1.611  12.246
28200SOL     OW86496   2.156  12.227   5.960
28200SOL    HW186497   2.118  12.314   5.963
28200SOL    HW286498   2.125  12.184   6.040
28201SOL     OW86499   7.191   4.349  13.667
28201SOL    HW186500   7.129   4.374  13.735
28201SOL    HW286501   7.261   4.414  13.673
28202SOL     OW86502  13.435   6.394  14.439
28202SOL    HW186503  13.387   6.326  14.391
28202SOL    HW286504  13.367   6.456  14.466
28203SOL     OW86505  14.114   4.339   3.216
28203SOL    HW186506  14.076   4.274   3.157
28203SOL    HW286507  14.041   4.396   3.239
28204SOL     OW86508  11.346   5.145  10.085
28204SOL    HW186509  11.271   5.095  10.054
28204SOL    HW286510  11.403   5.079  10.126
28205SOL     OW86511   1.068   4.206   8.607
28205SOL    HW186512   1.024   4.138   8.658
28205SOL    HW286513   1.100   4.268   8.673
28206SOL     OW86514   0.961   5.660  12.801
28206SOL    HW186515   1.038   5.659  12.745
28206SOL    HW286516   0.897   5.714  12.754
28207SOL     OW86517  13.608   4.560   6.528
28207SOL    HW186518  13.542   4.591   6.467
28207SOL    HW286519  13.558   4.533   6.605
28208SOL     OW86520   2.847  13.744  12.617
28208SOL    HW186521   2.880  13.655  12.602
28208SOL    HW286522   2.921  13.791  12.656
28209SOL     OW86523   8.397   6.088   6.882
28209SOL    HW186524   8.483   6.107   6.920
28209SOL    HW286525   8.363   6.016   6.935
28210SOL     OW86526   7.346   4.059   1.058
28210SOL    HW186527   7.278   4.098   1.002
28210SOL    HW286528   7.428   4.093   1.022
28211SOL     OW86529  13.115  13.349   2.094
28211SOL    HW186530  13.089  13.259   2.114
28211SOL    HW286531  13.196  13.362   2.143
28212SOL     OW86532  11.619   8.953  11.736
28212SOL    HW186533  11.534   8.996  11.730
28212SOL    HW286534  11.612   8.877  11.678
28213SOL     OW86535   5.801  13.352   3.060
28213SOL    HW186536   5.745  13.352   2.983
28213SOL    HW286537   5.878  13.301   3.035
28214SOL     OW86538   1.326   4.268   8.759
28214SOL    HW186539   1.266   4.295   8.829
28214SOL    HW286540   1.377   4.197   8.798
28215SOL     OW86541   3.343  12.464  11.935
28215SOL    HW186542   3.352  12.557  11.919
28215SOL    HW286543   3.307  12.458  12.024
28216SOL     OW86544  12.346  13.699  13.949
28216SOL    HW186545  12.333  13.629  14.013
28216SOL    HW286546  12.390  13.769  13.998
28217SOL     OW86547   7.819   1.395   4.698
28217SOL    HW186548   7.871   1.475   4.708
28217SOL    HW286549   7.884   1.326   4.689
28218SOL     OW86550  14.170   3.083   4.321
28218SOL    HW186551  14.150   2.993   4.295
28218SOL    HW286552  14.199   3.076   4.412
28219SOL     OW86553   7.656   0.194  14.419
28219SOL    HW186554   7.632   0.155  14.503
28219SOL    HW286555   7.752   0.188  14.417
28220SOL     OW86556   7.657   0.815  12.742
28220SOL    HW186557   7.679   0.874  12.813
28220SOL    HW286558   7.633   0.733  12.785
28221SOL     OW86559   7.275   2.741  11.073
28221SOL    HW186560   7.365   2.717  11.051
28221SOL    HW286561   7.265   2.830  11.040
28222SOL     OW86562   6.557   6.245   1.731
28222SOL    HW186563   6.510   6.292   1.662
28222SOL    HW286564   6.490   6.193   1.775
28223SOL     OW86565   1.093  13.294   6.401
28223SOL    HW186566   1.093  13.389   6.388
28223SOL    HW286567   1.157  13.261   6.338
28224SOL     OW86568   3.254  13.237   8.053
28224SOL    HW186569   3.258  13.286   8.135
28224SOL    HW286570   3.161  13.214   8.043
28225SOL     OW86571  14.476   0.640  11.641
28225SOL    HW186572  14.453   0.648  11.733
28225SOL    HW286573  14.572   0.636  11.640
28226SOL     OW86574  10.288  13.588  11.932
28226SOL    HW186575  10.346  13.655  11.896
28226SOL    HW286576  10.293  13.516  11.868
28227SOL     OW86577  10.557   2.204   2.975
28227SOL    HW186578  10.557   2.292   2.938
28227SOL    HW286579  10.488   2.205   3.041
28228SOL     OW86580   4.606  11.934   5.818
28228SOL    HW186581   4.681  11.910   5.763
28228SOL    HW286582   4.529  11.918   5.763
28229SOL     OW86583  10.778   0.140  13.160
28229SOL    HW186584  10.692   0.135  13.201
28229SOL    HW286585  10.838   0.157  13.232
28230SOL     OW86586   7.534   7.873   3.592
28230SOL    HW186587   7.571   7.794   3.554
28230SOL    HW286588   7.575   7.880   3.678
28231SOL     OW86589   5.090   6.297   3.490
28231SOL    HW186590   5.028   6.255   3.549
28231SOL    HW286591   5.166   6.316   3.544
28232SOL     OW86592   6.318  12.524  12.158
28232SOL    HW186593   6.292  12.615  12.146
28232SOL    HW286594   6.411  12.528  12.178
28233SOL     OW86595   1.718  13.272  13.359
28233SOL    HW186596   1.782  13.339  13.332
28233SOL    HW286597   1.759  13.189  13.335
28234SOL     OW86598   2.857   3.061  13.185
28234SOL    HW186599   2.789   3.026  13.243
28234SOL    HW286600   2.937   3.060  13.238
28235SOL     OW86601   1.164   2.845   4.179
28235SOL    HW186602   1.155   2.923   4.233
28235SOL    HW286603   1.207   2.875   4.099
28236SOL     OW86604   6.709   8.676   9.281
28236SOL    HW186605   6.664   8.611   9.335
28236SOL    HW286606   6.641   8.740   9.259
28237SOL     OW86607   7.499   3.704   1.494
28237SOL    HW186608   7.563   3.734   1.429
28237SOL    HW286609   7.465   3.785   1.532
28238SOL     OW86610   7.893   1.869   6.419
28238SOL    HW186611   7.885   1.795   6.359
28238SOL    HW286612   7.830   1.933   6.387
28239SOL     OW86613   4.993  12.882   4.054
28239SOL    HW186614   4.965  12.972   4.037
28239SOL    HW286615   4.970  12.867   4.146
28240SOL     OW86616   8.298   3.756  11.944
28240SOL    HW186617   8.381   3.743  11.899
28240SOL    HW286618   8.284   3.675  11.994
28241SOL     OW86619   2.388  12.483  12.005
28241SOL    HW186620   2.379  12.390  12.025
28241SOL    HW286621   2.412  12.524  12.089
28242SOL     OW86622  12.599   4.328   2.168
28242SOL    HW186623  12.636   4.379   2.096
28242SOL    HW286624  12.619   4.237   2.144
28243SOL     OW86625  12.906  11.001   6.689
28243SOL    HW186626  12.872  10.976   6.776
28243SOL    HW286627  12.892  10.923   6.635
28244SOL     OW86628   7.404   6.729   6.960
28244SOL    HW186629   7.376   6.646   6.997
28244SOL    HW286630   7.329   6.787   6.972
28245SOL     OW86631  13.592   7.527   5.218
28245SOL    HW186632  13.687   7.514   5.228
28245SOL    HW286633  13.581   7.622   5.217
28246SOL     OW86634  14.762   3.862  12.923
28246SOL    HW186635  14.770   3.879  12.829
28246SOL    HW286636  14.830   3.918  12.963
28247SOL     OW86637  14.537  10.377  10.303
28247SOL    HW186638  14.578  10.417  10.227
28247SOL    HW286639  14.459  10.430  10.319
28248SOL     OW86640  13.201  11.094   6.012
28248SOL    HW186641  13.157  11.011   5.997
28248SOL    HW286642  13.288  11.071   6.045
28249SOL     OW86643   1.902   4.858   0.421
28249SOL    HW186644   1.945   4.907   0.351
28249SOL    HW286645   1.857   4.925   0.473
28250SOL     OW86646   2.908  12.755  13.901
28250SOL    HW186647   2.966  12.738  13.827
28250SOL    HW286648   2.839  12.689  13.894
28251SOL     OW86649   1.463  11.708   6.222
28251SOL    HW186650   1.398  11.760   6.269
28251SOL    HW286651   1.485  11.636   6.281
28252SOL     OW86652   4.419  10.362  13.214
28252SOL    HW186653   4.448  10.444  13.175
28252SOL    HW286654   4.467  10.294  13.166
28253SOL     OW86655  14.850   4.827   0.738
28253SOL    HW186656   0.026   4.751   0.732
28253SOL    HW286657  14.795   4.809   0.814
28254SOL     OW86658   3.767  14.418  13.514
28254SOL    HW186659   3.862  14.413  13.502
28254SOL    HW286660   3.755  14.422  13.609
28255SOL     OW86661  14.328   8.662   4.631
28255SOL    HW186662  14.288   8.689   4.549
28255SOL    HW286663  14.414   8.628   4.606
28256SOL     OW86664   9.192   8.892   0.870
28256SOL    HW186665   9.265   8.909   0.810
28256SOL    HW286666   9.192   8.967   0.930
28257SOL     OW86667   7.728   6.677   8.843
28257SOL    HW186668   7.743   6.768   8.869
28257SOL    HW286669   7.774   6.626   8.909
28258SOL     OW86670   1.948   0.978   3.225
28258SOL    HW186671   1.956   0.883   3.219
28258SOL    HW286672   1.970   1.009   3.138
28259SOL     OW86673   5.415  10.436   3.075
28259SOL    HW186674   5.464  10.396   3.003
28259SOL    HW286675   5.400  10.526   3.048
28260SOL     OW86676   1.223   6.298   5.953
28260SOL    HW186677   1.203   6.364   6.018
28260SOL    HW286678   1.178   6.219   5.983
28261SOL     OW86679   0.302  13.672   0.329
28261SOL    HW186680   0.299  13.611   0.255
28261SOL    HW286681   0.212  13.699   0.342
28262SOL     OW86682  11.904   3.177   5.351
28262SOL    HW186683  11.889   3.127   5.431
28262SOL    HW286684  11.818   3.213   5.329
28263SOL     OW86685   2.992  10.086   4.910
28263SOL    HW186686   2.942  10.043   4.979
28263SOL    HW286687   3.083  10.080   4.939
28264SOL     OW86688   2.894   8.327   0.107
28264SOL    HW186689   2.967   8.274   0.074
28264SOL    HW286690   2.915   8.342   0.199
28265SOL     OW86691   5.746   1.628   6.751
28265SOL    HW186692   5.738   1.719   6.725
28265SOL    HW286693   5.690   1.619   6.828
28266SOL     OW86694   2.931   2.331  10.353
28266SOL    HW186695   2.958   2.303  10.266
28266SOL    HW286696   2.905   2.422  10.342
28267SOL     OW86697  11.774   4.837   0.094
28267SOL    HW186698  11.830   4.808   0.022
28267SOL    HW286699  11.819   4.915   0.129
28268SOL     OW86700   7.213   6.746  11.786
28268SOL    HW186701   7.185   6.802  11.714
28268SOL    HW286702   7.309   6.747  11.781
28269SOL     OW86703   0.838   6.932   7.701
28269SOL    HW186704   0.858   6.914   7.793
28269SOL    HW286705   0.884   6.864   7.653
28270SOL     OW86706   1.156   1.829   7.579
28270SOL    HW186707   1.153   1.894   7.509
28270SOL    HW286708   1.197   1.875   7.653
28271SOL     OW86709  11.334  12.710   3.029
28271SOL    HW186710  11.404  12.724   3.092
28271SOL    HW286711  11.284  12.791   3.028
28272SOL     OW86712   9.711   6.514   9.761
28272SOL    HW186713   9.675   6.464   9.835
28272SOL    HW286714   9.694   6.459   9.685
28273SOL     OW86715  14.659  13.495   4.546
28273SOL    HW186716  14.704  13.575   4.573
28273SOL    HW286717  14.678  13.488   4.452
28274SOL     OW86718   3.321   4.209   4.634
28274SOL    HW186719   3.266   4.182   4.708
28274SOL    HW286720   3.410   4.210   4.669
28275SOL     OW86721   5.816  14.523   6.556
28275SOL    HW186722   5.747  14.559   6.499
28275SOL    HW286723   5.808  14.428   6.546
28276SOL     OW86724   7.786  14.217   1.686
28276SOL    HW186725   7.710  14.273   1.668
28276SOL    HW286726   7.749  14.128   1.688
28277SOL     OW86727   5.568   6.068  13.882
28277SOL    HW186728   5.604   6.150  13.916
28277SOL    HW286729   5.482   6.093  13.847
28278SOL     OW86730  12.167   5.396   9.920
28278SOL    HW186731  12.131   5.424   9.836
28278SOL    HW286732  12.095   5.351   9.964
28279SOL     OW86733  13.328  14.592   1.089
28279SOL    HW186734  13.287  14.635   1.164
28279SOL    HW286735  13.292  14.637   1.012
28280SOL     OW86736   6.452   0.115   8.252
28280SOL    HW186737   6.398   0.073   8.318
28280SOL    HW286738   6.434   0.067   8.171
28281SOL     OW86739   8.673   1.093  13.631
28281SOL    HW186740   8.656   1.009  13.672
28281SOL    HW286741   8.713   1.072  13.547
28282SOL     OW86742  14.423   7.165  10.819
28282SOL    HW186743  14.476   7.205  10.889
28282SOL    HW286744  14.439   7.221  10.743
28283SOL     OW86745  14.422   3.426  11.659
28283SOL    HW186746  14.342   3.460  11.700
28283SOL    HW286747  14.391   3.354  11.604
28284SOL     OW86748   8.345   4.225   2.134
28284SOL    HW186749   8.342   4.170   2.055
28284SOL    HW286750   8.281   4.295   2.116
28285SOL     OW86751  12.731  10.864   0.090
28285SOL    HW186752  12.694  10.923   0.024
28285SOL    HW286753  12.740  10.919   0.168
28286SOL     OW86754   6.428  11.128   1.836
28286SOL    HW186755   6.355  11.101   1.892
28286SOL    HW286756   6.400  11.210   1.797
28287SOL     OW86757   6.068   2.561   6.016
28287SOL    HW186758   5.993   2.547   5.959
28287SOL    HW286759   6.142   2.523   5.968
28288SOL     OW86760   0.538   8.199   3.880
28288SOL    HW186761   0.549   8.161   3.967
28288SOL    HW286762   0.507   8.288   3.896
28289SOL     OW86763  14.571   2.180  12.633
28289SOL    HW186764  14.489   2.144  12.597
28289SOL    HW286765  14.636   2.111  12.618
28290SOL     OW86766  13.484  10.192  14.860
28290SOL    HW186767  13.410  10.214  14.803
28290SOL    HW286768  13.449  10.198   0.066
28291SOL     OW86769   2.696   4.116   2.250
28291SOL    HW186770   2.648   4.067   2.184
28291SOL    HW286771   2.743   4.050   2.300
28292SOL     OW86772  13.569   9.260   1.965
28292SOL    HW186773  13.527   9.177   1.990
28292SOL    HW286774  13.499   9.310   1.922
28293SOL     OW86775   4.465   8.193  14.560
28293SOL    HW186776   4.373   8.206  14.538
28293SOL    HW286777   4.479   8.099  14.551
28294SOL     OW86778  12.087   3.586   9.284
28294SOL    HW186779  12.016   3.628   9.332
28294SOL    HW286780  12.079   3.493   9.307
28295SOL     OW86781   3.817   4.513   8.042
28295SOL    HW186782   3.844   4.578   8.107
28295SOL    HW286783   3.772   4.564   7.974
28296SOL     OW86784   3.114   6.475  13.046
28296SOL    HW186785   3.140   6.474  13.138
28296SOL    HW286786   3.034   6.528  13.045
28297SOL     OW86787   6.693   6.645   9.642
28297SOL    HW186788   6.729   6.659   9.554
28297SOL    HW286789   6.612   6.595   9.627
28298SOL     OW86790   3.879   1.590   5.425
28298SOL    HW186791   3.794   1.588   5.382
28298SOL    HW286792   3.943   1.588   5.354
28299SOL     OW86793  10.953  10.262   7.933
28299SOL    HW186794  10.909  10.317   7.998
28299SOL    HW286795  10.976  10.323   7.863
28300SOL     OW86796   4.229   8.077   3.729
28300SOL    HW186797   4.261   8.077   3.819
28300SOL    HW286798   4.162   8.009   3.727
28301SOL     OW86799   3.564  12.504  10.960
28301SOL    HW186800   3.627  12.566  10.923
28301SOL    HW286801   3.483  12.555  10.968
28302SOL     OW86802  14.701   3.884  13.569
28302SOL    HW186803  14.695   3.789  13.580
28302SOL    HW286804  14.708   3.918  13.658
28303SOL     OW86805  10.299   5.780  11.330
28303SOL    HW186806  10.256   5.865  11.341
28303SOL    HW286807  10.271   5.750  11.243
28304SOL     OW86808  14.008  12.383   5.590
28304SOL    HW186809  13.938  12.336   5.636
28304SOL    HW286810  13.965  12.420   5.513
28305SOL     OW86811   7.670  13.536  10.548
28305SOL    HW186812   7.582  13.501  10.534
28305SOL    HW286813   7.715  13.524  10.464
28306SOL     OW86814   1.743  10.971  11.824
28306SOL    HW186815   1.828  10.927  11.830
28306SOL    HW286816   1.691  10.933  11.895
28307SOL     OW86817   7.229   5.579   3.428
28307SOL    HW186818   7.305   5.637   3.429
28307SOL    HW286819   7.219   5.550   3.519
28308SOL     OW86820  10.745   5.895   3.854
28308SOL    HW186821  10.827   5.902   3.903
28308SOL    HW286822  10.676   5.900   3.920
28309SOL     OW86823   6.690   5.129  14.028
28309SOL    HW186824   6.737   5.093  13.953
28309SOL    HW286825   6.738   5.209  14.051
28310SOL     OW86826   7.915  10.550  14.862
28310SOL    HW186827   7.978  10.478  14.873
28310SOL    HW286828   7.832  10.506  14.844
28311SOL     OW86829   5.373  10.075   7.448
28311SOL    HW186830   5.297  10.121   7.486
28311SOL    HW286831   5.394  10.124   7.369
28312SOL     OW86832  13.350  12.186  14.830
28312SOL    HW186833  13.358  12.097  14.863
28312SOL    HW286834  13.381  12.181  14.739
28313SOL     OW86835   4.206   7.598  14.325
28313SOL    HW186836   4.164   7.571  14.407
28313SOL    HW286837   4.185   7.691  14.318
28314SOL     OW86838   7.216  12.786   5.723
28314SOL    HW186839   7.194  12.715   5.663
28314SOL    HW286840   7.296  12.758   5.766
28315SOL     OW86841   8.330   4.468  12.902
28315SOL    HW186842   8.244   4.510  12.905
28315SOL    HW286843   8.318   4.385  12.948
28316SOL     OW86844  13.940   9.347   3.847
28316SOL    HW186845  13.853   9.340   3.808
28316SOL    HW286846  13.951   9.441   3.864
28317SOL     OW86847  10.052   2.133  12.267
28317SOL    HW186848   9.977   2.110  12.321
28317SOL    HW286849  10.065   2.226  12.283
28318SOL     OW86850  13.599   9.614   2.729
28318SOL    HW186851  13.632   9.675   2.664
28318SOL    HW286852  13.647   9.533   2.711
28319SOL     OW86853   5.033   2.744  10.107
28319SOL    HW186854   4.977   2.812  10.144
28319SOL    HW286855   4.987   2.716  10.028
28320SOL     OW86856   6.183   6.234   0.679
28320SOL    HW186857   6.221   6.174   0.743
28320SOL    HW286858   6.176   6.182   0.598
28321SOL     OW86859   3.133   5.394   5.544
28321SOL    HW186860   3.184   5.457   5.494
28321SOL    HW286861   3.174   5.393   5.631
28322SOL     OW86862   9.838   6.416  11.033
28322SOL    HW186863   9.838   6.419  10.937
28322SOL    HW286864   9.923   6.379  11.056
28323SOL     OW86865   6.118  13.499   1.751
28323SOL    HW186866   6.109  13.588   1.718
28323SOL    HW286867   6.199  13.500   1.801
28324SOL     OW86868   8.735  10.045   4.455
28324SOL    HW186869   8.748  10.082   4.542
28324SOL    HW286870   8.681   9.968   4.469
28325SOL     OW86871   7.862   1.918   2.675
28325SOL    HW186872   7.834   1.859   2.605
28325SOL    HW286873   7.789   1.979   2.686
28326SOL     OW86874   5.206   2.339   4.492
28326SOL    HW186875   5.142   2.356   4.561
28326SOL    HW286876   5.240   2.252   4.512
28327SOL     OW86877   2.200  12.709   2.008
28327SOL    HW186878   2.266  12.646   1.980
28327SOL    HW286879   2.117  12.673   1.978
28328SOL     OW86880   5.523   0.857  14.348
28328SOL    HW186881   5.505   0.832  14.439
28328SOL    HW286882   5.476   0.792  14.296
28329SOL     OW86883  10.016   1.428   5.944
28329SOL    HW186884   9.978   1.515   5.951
28329SOL    HW286885  10.098   1.433   5.993
28330SOL     OW86886   8.277  14.480   9.016
28330SOL    HW186887   8.187  14.462   8.988
28330SOL    HW286888   8.326  14.403   8.988
28331SOL     OW86889   4.969  11.775   8.195
28331SOL    HW186890   4.926  11.781   8.110
28331SOL    HW286891   5.026  11.852   8.199
28332SOL     OW86892  10.805  14.283  13.465
28332SOL    HW186893  10.829  14.219  13.532
28332SOL    HW286894  10.720  14.316  13.494
28333SOL     OW86895   6.670   7.313  13.262
28333SOL    HW186896   6.685   7.391  13.315
28333SOL    HW286897   6.633   7.249  13.323
28334SOL     OW86898   0.454   7.954   7.037
28334SOL    HW186899   0.534   7.910   7.066
28334SOL    HW286900   0.399   7.884   7.002
28335SOL     OW86901   6.187   8.515   4.026
28335SOL    HW186902   6.122   8.492   4.092
28335SOL    HW286903   6.207   8.607   4.043
28336SOL     OW86904  11.847  12.593   6.470
28336SOL    HW186905  11.797  12.512   6.480
28336SOL    HW286906  11.837  12.639   6.553
28337SOL     OW86907  13.434  12.836   3.819
28337SOL    HW186908  13.465  12.915   3.863
28337SOL    HW286909  13.510  12.805   3.770
28338SOL     OW86910  13.167  12.273  10.522
28338SOL    HW186911  13.144  12.335  10.591
28338SOL    HW286912  13.251  12.236  10.550
28339SOL     OW86913  13.569   0.113   6.723
28339SOL    HW186914  13.643   0.155   6.767
28339SOL    HW286915  13.609   0.051   6.662
28340SOL     OW86916   4.659  14.751   2.172
28340SOL    HW186917   4.634  14.708   2.090
28340SOL    HW286918   4.750  14.724   2.186
28341SOL     OW86919   7.336  11.632  10.036
28341SOL    HW186920   7.398  11.559  10.035
28341SOL    HW286921   7.258  11.597  10.079
28342SOL     OW86922  12.049   6.588  10.737
28342SOL    HW186923  12.065   6.654  10.805
28342SOL    HW286924  11.988   6.527  10.778
28343SOL     OW86925  12.249  13.585  14.756
28343SOL    HW186926  12.292  13.504  14.783
28343SOL    HW286927  12.167  13.586  14.805
28344SOL     OW86928   2.185   3.969   3.472
28344SOL    HW186929   2.230   4.005   3.396
28344SOL    HW286930   2.221   4.018   3.546
28345SOL     OW86931   5.539   4.713   2.314
28345SOL    HW186932   5.596   4.771   2.364
28345SOL    HW286933   5.594   4.682   2.242
28346SOL     OW86934   1.348  10.017   9.090
28346SOL    HW186935   1.344  10.047   9.181
28346SOL    HW286936   1.400  10.084   9.045
28347SOL     OW86937  10.094   1.497   3.744
28347SOL    HW186938  10.190   1.491   3.750
28347SOL    HW286939  10.076   1.518   3.653
28348SOL     OW86940  11.812  12.546  12.939
28348SOL    HW186941  11.824  12.633  12.978
28348SOL    HW286942  11.792  12.564  12.847
28349SOL     OW86943   2.477   9.565   2.983
28349SOL    HW186944   2.531   9.512   3.042
28349SOL    HW286945   2.512   9.549   2.896
28350SOL     OW86946   8.944   8.173   9.496
28350SOL    HW186947   8.973   8.084   9.476
28350SOL    HW286948   9.025   8.224   9.497
28351SOL     OW86949   3.723  11.479   0.581
28351SOL    HW186950   3.720  11.406   0.644
28351SOL    HW286951   3.800  11.530   0.608
28352SOL     OW86952   7.631   2.599  10.131
28352SOL    HW186953   7.707   2.558  10.171
28352SOL    HW286954   7.572   2.526  10.111
28353SOL     OW86955  10.315   3.549  13.520
28353SOL    HW186956  10.332   3.492  13.445
28353SOL    HW286957  10.235   3.514  13.560
28354SOL     OW86958   0.663   8.705   6.396
28354SOL    HW186959   0.710   8.685   6.476
28354SOL    HW286960   0.616   8.787   6.415
28355SOL     OW86961  11.611   2.756  11.512
28355SOL    HW186962  11.564   2.792  11.436
28355SOL    HW286963  11.635   2.833  11.564
28356SOL     OW86964   6.457  11.150   2.843
28356SOL    HW186965   6.395  11.196   2.787
28356SOL    HW286966   6.457  11.200   2.925
28357SOL     OW86967   4.061   0.864   5.881
28357SOL    HW186968   4.067   0.826   5.793
28357SOL    HW286969   3.988   0.817   5.922
28358SOL     OW86970   1.034   0.072  13.439
28358SOL    HW186971   0.976   0.119  13.379
28358SOL    HW286972   1.057  14.873  13.392
28359SOL     OW86973   3.592   4.200   5.056
28359SOL    HW186974   3.580   4.167   5.145
28359SOL    HW286975   3.619   4.291   5.068
28360SOL     OW86976  11.271  12.374   3.925
28360SOL    HW186977  11.200  12.437   3.927
28360SOL    HW286978  11.319  12.389   4.007
28361SOL     OW86979  12.580  14.866   7.441
28361SOL    HW186980  12.643  14.856   7.370
28361SOL    HW286981  12.633   0.002   7.518
28362SOL     OW86982  12.663  14.153   4.379
28362SOL    HW186983  12.651  14.247   4.390
28362SOL    HW286984  12.673  14.119   4.468
28363SOL     OW86985  12.026   1.318   8.777
28363SOL    HW186986  12.036   1.329   8.872
28363SOL    HW286987  12.020   1.223   8.764
28364SOL     OW86988   2.441  11.269  14.131
28364SOL    HW186989   2.493  11.199  14.171
28364SOL    HW286990   2.506  11.329  14.096
28365SOL     OW86991   5.680   3.172  14.449
28365SOL    HW186992   5.700   3.175  14.355
28365SOL    HW286993   5.596   3.126  14.454
28366SOL     OW86994  12.492   0.469   5.899
28366SOL    HW186995  12.572   0.457   5.847
28366SOL    HW286996  12.470   0.381   5.930
28367SOL     OW86997  11.922  13.831   3.706
28367SOL    HW186998  12.015  13.852   3.705
28367SOL    HW286999  11.910  13.774   3.629
28368SOL     OW87000   9.309   6.282   5.252
28368SOL    HW187001   9.397   6.282   5.290
28368SOL    HW287002   9.281   6.191   5.256
28369SOL     OW87003   6.004   7.250   8.009
28369SOL    HW187004   6.030   7.324   7.954
28369SOL    HW287005   6.025   7.277   8.098
28370SOL     OW87006   2.978   3.530   8.991
28370SOL    HW187007   2.973   3.583   8.912
28370SOL    HW287008   2.977   3.593   9.063
28371SOL     OW87009   4.174   0.745  10.530
28371SOL    HW187010   4.102   0.777  10.586
28371SOL    HW287011   4.195   0.820  10.474
28372SOL     OW87012   6.731  13.553   2.052
28372SOL    HW187013   6.791  13.625   2.029
28372SOL    HW287014   6.740  13.543   2.146
28373SOL     OW87015   0.988   2.751   4.426
28373SOL    HW187016   1.048   2.791   4.490
28373SOL    HW287017   1.029   2.766   4.341
28374SOL     OW87018   8.781   6.226  13.965
28374SOL    HW187019   8.874   6.234  13.944
28374SOL    HW287020   8.738   6.217  13.880
28375SOL     OW87021   6.014   2.941   4.500
28375SOL    HW187022   5.997   3.034   4.516
28375SOL    HW287023   6.040   2.937   4.408
28376SOL     OW87024   8.426  12.025   5.493
28376SOL    HW187025   8.473  12.035   5.577
28376SOL    HW287026   8.386  11.939   5.498
28377SOL     OW87027   3.483  10.637   6.408
28377SOL    HW187028   3.444  10.592   6.483
28377SOL    HW287029   3.456  10.584   6.332
28378SOL     OW87030   7.935  14.198   2.878
28378SOL    HW187031   7.899  14.208   2.790
28378SOL    HW287032   7.858  14.204   2.936
28379SOL     OW87033   2.251   9.987   8.552
28379SOL    HW187034   2.342   9.958   8.565
28379SOL    HW287035   2.199   9.906   8.559
28380SOL     OW87036  12.066   6.988  14.739
28380SOL    HW187037  11.976   6.958  14.749
28380SOL    HW287038  12.119   6.910  14.753
28381SOL     OW87039  12.933   8.862   5.626
28381SOL    HW187040  12.840   8.858   5.604
28381SOL    HW287041  12.937   8.919   5.704
28382SOL     OW87042  14.181   2.382   1.793
28382SOL    HW187043  14.158   2.339   1.876
28382SOL    HW287044  14.096   2.402   1.753
28383SOL     OW87045   6.921  12.702   7.464
28383SOL    HW187046   6.839  12.655   7.480
28383SOL    HW287047   6.925  12.769   7.532
28384SOL     OW87048   9.797  14.472   0.226
28384SOL    HW187049   9.773  14.520   0.146
28384SOL    HW287050   9.729  14.406   0.235
28385SOL     OW87051   6.492   0.686   6.495
28385SOL    HW187052   6.555   0.734   6.549
28385SOL    HW287053   6.466   0.612   6.549
28386SOL     OW87054  11.608   2.930   7.130
28386SOL    HW187055  11.527   2.950   7.178
28386SOL    HW287056  11.592   2.843   7.093
28387SOL     OW87057   6.560  13.289   6.860
28387SOL    HW187058   6.568  13.384   6.846
28387SOL    HW287059   6.621  13.271   6.932
28388SOL     OW87060  12.993  13.618   2.440
28388SOL    HW187061  13.003  13.612   2.345
28388SOL    HW287062  12.928  13.550   2.461
28389SOL     OW87063   4.188  14.395   1.905
28389SOL    HW187064   4.159  14.326   1.966
28389SOL    HW287065   4.144  14.474   1.936
28390SOL     OW87066   0.577   4.713   0.182
28390SOL    HW187067   0.485   4.708   0.154
28390SOL    HW287068   0.580   4.787   0.242
28391SOL     OW87069   4.539  11.383   4.070
28391SOL    HW187070   4.467  11.388   4.133
28391SOL    HW287071   4.597  11.454   4.094
28392SOL     OW87072  12.339  11.378   4.305
28392SOL    HW187073  12.305  11.290   4.321
28392SOL    HW287074  12.313  11.397   4.214
28393SOL     OW87075  13.221   9.037  13.682
28393SOL    HW187076  13.260   8.983  13.614
28393SOL    HW287077  13.173   9.105  13.635
28394SOL     OW87078   9.425   9.538   0.318
28394SOL    HW187079   9.476   9.617   0.338
28394SOL    HW287080   9.343   9.549   0.365
28395SOL     OW87081   4.709  14.675   5.807
28395SOL    HW187082   4.730  14.674   5.713
28395SOL    HW287083   4.631  14.619   5.814
28396SOL     OW87084   5.220  13.075   0.196
28396SOL    HW187085   5.294  13.134   0.188
28396SOL    HW287086   5.188  13.064   0.107
28397SOL     OW87087  14.055  14.532   8.944
28397SOL    HW187088  13.985  14.578   8.989
28397SOL    HW287089  14.015  14.501   8.863
28398SOL     OW87090   8.798   0.999   2.782
28398SOL    HW187091   8.892   1.008   2.769
28398SOL    HW287092   8.767   0.953   2.704
28399SOL     OW87093   2.612   6.055   7.114
28399SOL    HW187094   2.519   6.039   7.127
28399SOL    HW287095   2.618   6.105   7.033
28400SOL     OW87096  10.415  11.263   0.954
28400SOL    HW187097  10.446  11.174   0.934
28400SOL    HW287098  10.495  11.312   0.972
28401SOL     OW87099   4.453  11.681  14.192
28401SOL    HW187100   4.536  11.649  14.156
28401SOL    HW287101   4.426  11.750  14.131
28402SOL     OW87102  11.003   2.273   6.523
28402SOL    HW187103  10.962   2.331   6.587
28402SOL    HW287104  10.989   2.316   6.439
28403SOL     OW87105   4.518   9.460   4.564
28403SOL    HW187106   4.528   9.390   4.629
28403SOL    HW287107   4.437   9.439   4.518
28404SOL     OW87108  14.088   7.879   2.806
28404SOL    HW187109  14.023   7.947   2.788
28404SOL    HW287110  14.091   7.873   2.901
28405SOL     OW87111   8.274   1.511  10.013
28405SOL    HW187112   8.337   1.490   9.943
28405SOL    HW287113   8.227   1.430  10.029
28406SOL     OW87114   4.772   2.812   7.910
28406SOL    HW187115   4.814   2.728   7.891
28406SOL    HW287116   4.731   2.837   7.827
28407SOL     OW87117  10.200   2.762   1.683
28407SOL    HW187118  10.282   2.713   1.677
28407SOL    HW287119  10.145   2.710   1.742
28408SOL     OW87120   9.946  13.665   9.041
28408SOL    HW187121   9.949  13.760   9.050
28408SOL    HW287122   9.999  13.647   8.963
28409SOL     OW87123   8.827   1.467  12.452
28409SOL    HW187124   8.909   1.445  12.407
28409SOL    HW287125   8.759   1.451  12.388
28410SOL     OW87126  10.884  13.931  13.839
28410SOL    HW187127  10.855  13.877  13.765
28410SOL    HW287128  10.968  13.893  13.865
28411SOL     OW87129   1.639  10.987  12.213
28411SOL    HW187130   1.698  10.912  12.221
28411SOL    HW287131   1.687  11.060  12.254
28412SOL     OW87132   5.021  11.318   1.127
28412SOL    HW187133   5.017  11.223   1.116
28412SOL    HW287134   4.968  11.335   1.206
28413SOL     OW87135   6.791  13.679  13.354
28413SOL    HW187136   6.843  13.608  13.391
28413SOL    HW287137   6.736  13.637  13.288
28414SOL     OW87138   0.294  11.609   8.781
28414SOL    HW187139   0.280  11.704   8.781
28414SOL    HW287140   0.361  11.595   8.714
28415SOL     OW87141   0.760   5.095   2.194
28415SOL    HW187142   0.759   5.000   2.190
28415SOL    HW287143   0.684   5.122   2.142
28416SOL     OW87144   9.726   9.285   7.615
28416SOL    HW187145   9.649   9.314   7.565
28416SOL    HW287146   9.763   9.215   7.562
28417SOL     OW87147   6.007   8.568  12.556
28417SOL    HW187148   5.933   8.611  12.599
28417SOL    HW287149   6.031   8.626  12.484
28418SOL     OW87150  14.615   2.107   4.001
28418SOL    HW187151  14.685   2.141   3.946
28418SOL    HW287152  14.617   2.162   4.079
28419SOL     OW87153  13.805  10.676   7.913
28419SOL    HW187154  13.800  10.580   7.919
28419SOL    HW287155  13.887  10.694   7.867
28420SOL     OW87156  10.254   3.430   6.363
28420SOL    HW187157  10.253   3.514   6.410
28420SOL    HW287158  10.339   3.392   6.384
28421SOL     OW87159  12.855   0.753   4.859
28421SOL    HW187160  12.859   0.728   4.767
28421SOL    HW287161  12.799   0.831   4.860
28422SOL     OW87162   4.069   8.614   1.612
28422SOL    HW187163   4.019   8.572   1.542
28422SOL    HW287164   4.158   8.580   1.602
28423SOL     OW87165   4.689   3.168  11.867
28423SOL    HW187166   4.763   3.204  11.915
28423SOL    HW287167   4.619   3.162  11.931
28424SOL     OW87168   4.362   9.132   7.888
28424SOL    HW187169   4.439   9.188   7.876
28424SOL    HW287170   4.301   9.162   7.820
28425SOL     OW87171   0.005   0.454   0.433
28425SOL    HW187172   0.010   0.430   0.340
28425SOL    HW287173  14.801   0.424   0.461
28426SOL     OW87174   4.987   0.259   3.647
28426SOL    HW187175   4.919   0.302   3.698
28426SOL    HW287176   4.952   0.172   3.629
28427SOL     OW87177  13.110   6.680   2.680
28427SOL    HW187178  13.069   6.746   2.735
28427SOL    HW287179  13.040   6.616   2.663
28428SOL     OW87180  13.141  13.840   8.078
28428SOL    HW187181  13.228  13.817   8.045
28428SOL    HW287182  13.144  13.817   8.171
28429SOL     OW87183  12.545  11.593  10.072
28429SOL    HW187184  12.603  11.517  10.083
28429SOL    HW287185  12.570  11.630   9.988
28430SOL     OW87186   9.401  10.655   9.245
28430SOL    HW187187   9.306  10.655   9.232
28430SOL    HW287188   9.413  10.611   9.329
28431SOL     OW87189  11.195   0.543   6.446
28431SOL    HW187190  11.261   0.536   6.377
28431SOL    HW287191  11.194   0.456   6.487
28432SOL     OW87192   7.340   8.293  12.547
28432SOL    HW187193   7.405   8.362  12.560
28432SOL    HW287194   7.259   8.339  12.526
28433SOL     OW87195  10.378   2.629   3.450
28433SOL    HW187196  10.346   2.668   3.532
28433SOL    HW287197  10.474   2.633   3.458
28434SOL     OW87198   0.610   3.233   7.109
28434SOL    HW187199   0.612   3.186   7.025
28434SOL    HW287200   0.621   3.165   7.175
28435SOL     OW87201  14.450   8.539   3.506
28435SOL    HW187202  14.544   8.523   3.509
28435SOL    HW287203  14.440   8.615   3.450
28436SOL     OW87204   0.711   6.278   8.650
28436SOL    HW187205   0.708   6.291   8.555
28436SOL    HW287206   0.648   6.340   8.686
28437SOL     OW87207   0.203  10.235  10.758
28437SOL    HW187208   0.164  10.275  10.680
28437SOL    HW287209   0.288  10.279  10.768
28438SOL     OW87210   0.482   6.972   8.721
28438SOL    HW187211   0.565   6.987   8.767
28438SOL    HW287212   0.425   7.043   8.751
28439SOL     OW87213  11.880  13.051   2.214
28439SOL    HW187214  11.792  13.029   2.184
28439SOL    HW287215  11.938  12.995   2.163
28440SOL     OW87216  12.558   3.003   0.080
28440SOL    HW187217  12.623   3.012   0.010
28440SOL    HW287218  12.573   2.916   0.116
28441SOL     OW87219   0.528   0.089   1.327
28441SOL    HW187220   0.578   0.115   1.405
28441SOL    HW287221   0.595   0.070   1.261
28442SOL     OW87222   4.645   7.780   2.625
28442SOL    HW187223   4.567   7.776   2.570
28442SOL    HW287224   4.623   7.726   2.701
28443SOL     OW87225  12.818   5.119   4.918
28443SOL    HW187226  12.868   5.045   4.955
28443SOL    HW287227  12.870   5.147   4.843
28444SOL     OW87228   2.718   2.291   4.948
28444SOL    HW187229   2.624   2.311   4.949
28444SOL    HW287230   2.746   2.315   4.860
28445SOL     OW87231   0.343   0.212   3.130
28445SOL    HW187232   0.302   0.241   3.049
28445SOL    HW287233   0.282   0.148   3.167
28446SOL     OW87234   3.508   6.371   1.744
28446SOL    HW187235   3.543   6.298   1.795
28446SOL    HW287236   3.582   6.428   1.729
28447SOL     OW87237   7.242  10.570  11.674
28447SOL    HW187238   7.204  10.654  11.699
28447SOL    HW287239   7.233  10.515  11.752
28448SOL     OW87240  10.241   3.546  11.256
28448SOL    HW187241  10.166   3.587  11.212
28448SOL    HW287242  10.272   3.481  11.193
28449SOL     OW87243  14.816  11.646   0.137
28449SOL    HW187244  14.813  11.649   0.232
28449SOL    HW287245  14.724  11.645   0.110
28450SOL     OW87246   6.787   6.439  13.241
28450SOL    HW187247   6.817   6.466  13.154
28450SOL    HW287248   6.852   6.475  13.302
28451SOL     OW87249   1.275   2.728   2.705
28451SOL    HW187250   1.254   2.682   2.624
28451SOL    HW287251   1.198   2.717   2.760
28452SOL     OW87252   1.362  11.435   1.500
28452SOL    HW187253   1.412  11.458   1.422
28452SOL    HW287254   1.277  11.478   1.488
28453SOL     OW87255   1.817   3.929   5.129
28453SOL    HW187256   1.741   3.872   5.122
28453SOL    HW287257   1.874   3.885   5.193
28454SOL     OW87258  10.404   0.166  13.047
28454SOL    HW187259  10.358   0.247  13.069
28454SOL    HW287260  10.335   0.105  13.021
28455SOL     OW87261  14.322   3.191  10.430
28455SOL    HW187262  14.354   3.112  10.385
28455SOL    HW287263  14.311   3.164  10.521
28456SOL     OW87264   8.818   3.289   8.618
28456SOL    HW187265   8.846   3.305   8.708
28456SOL    HW287266   8.878   3.222   8.585
28457SOL     OW87267   7.478   4.041   9.776
28457SOL    HW187268   7.547   4.067   9.837
28457SOL    HW287269   7.471   4.114   9.715
28458SOL     OW87270  11.045   8.821  14.101
28458SOL    HW187271  11.081   8.887  14.040
28458SOL    HW287272  11.044   8.740  14.050
28459SOL     OW87273  11.806   1.294  10.892
28459SOL    HW187274  11.767   1.216  10.851
28459SOL    HW287275  11.897   1.270  10.908
28460SOL     OW87276  13.148   7.956   5.879
28460SOL    HW187277  13.203   7.877   5.882
28460SOL    HW287278  13.069   7.931   5.926
28461SOL     OW87279  13.818  13.134   9.470
28461SOL    HW187280  13.723  13.126   9.464
28461SOL    HW287281  13.842  13.079   9.544
28462SOL     OW87282   7.972   3.253   5.152
28462SOL    HW187283   8.038   3.183   5.158
28462SOL    HW287284   8.012   3.327   5.199
28463SOL     OW87285   8.505  11.063  11.263
28463SOL    HW187286   8.446  11.120  11.213
28463SOL    HW287287   8.592  11.098  11.246
28464SOL     OW87288  13.089  12.779  10.247
28464SOL    HW187289  13.094  12.742  10.159
28464SOL    HW287290  13.145  12.723  10.301
28465SOL     OW87291   6.142  11.104   4.771
28465SOL    HW187292   6.180  11.072   4.853
28465SOL    HW287293   6.181  11.048   4.703
28466SOL     OW87294   4.619  12.558   7.991
28466SOL    HW187295   4.690  12.586   7.934
28466SOL    HW287296   4.615  12.626   8.059
28467SOL     OW87297   7.271   9.801   0.129
28467SOL    HW187298   7.268   9.809   0.224
28467SOL    HW287299   7.240   9.886   0.096
28468SOL     OW87300   0.318   6.233  12.884
28468SOL    HW187301   0.395   6.251  12.832
28468SOL    HW287302   0.332   6.280  12.966
28469SOL     OW87303   5.405  13.855   4.825
28469SOL    HW187304   5.361  13.888   4.903
28469SOL    HW287305   5.496  13.881   4.835
28470SOL     OW87306  14.725  10.041   6.056
28470SOL    HW187307  14.686  10.067   6.139
28470SOL    HW287308  14.651  10.012   6.003
28471SOL     OW87309  11.753   3.088  14.325
28471SOL    HW187310  11.802   3.034  14.263
28471SOL    HW287311  11.800   3.171  14.328
28472SOL     OW87312   7.538   7.073   6.328
28472SOL    HW187313   7.586   7.115   6.399
28472SOL    HW287314   7.547   6.979   6.345
28473SOL     OW87315   3.658   1.936  10.919
28473SOL    HW187316   3.653   1.952  10.824
28473SOL    HW287317   3.567   1.926  10.946
28474SOL     OW87318   8.832   9.510  13.596
28474SOL    HW187319   8.767   9.577  13.574
28474SOL    HW287320   8.798   9.469  13.676
28475SOL     OW87321  11.209   6.252   8.993
28475SOL    HW187322  11.247   6.323   8.942
28475SOL    HW287323  11.271   6.238   9.065
28476SOL     OW87324  14.151  14.230  12.327
28476SOL    HW187325  14.071  14.186  12.355
28476SOL    HW287326  14.208  14.159  12.299
28477SOL     OW87327  10.376  10.847  10.046
28477SOL    HW187328  10.416  10.905  10.110
28477SOL    HW287329  10.446  10.787  10.019
28478SOL     OW87330  13.044  14.109   5.641
28478SOL    HW187331  12.984  14.073   5.577
28478SOL    HW287332  13.077  14.190   5.601
28479SOL     OW87333  10.077   1.954   2.619
28479SOL    HW187334  10.085   2.042   2.582
28479SOL    HW287335  10.008   1.962   2.686
28480SOL     OW87336  11.142   3.915  14.630
28480SOL    HW187337  11.145   3.867  14.547
28480SOL    HW287338  11.233   3.930  14.653
28481SOL     OW87339   9.797  11.605  13.258
28481SOL    HW187340   9.857  11.681  13.255
28481SOL    HW287341   9.710  11.644  13.252
28482SOL     OW87342   9.850   0.283   9.841
28482SOL    HW187343   9.938   0.313   9.865
28482SOL    HW287344   9.807   0.362   9.808
28483SOL     OW87345  13.152   1.307   9.349
28483SOL    HW187346  13.178   1.274   9.435
28483SOL    HW287347  13.130   1.399   9.363
28484SOL     OW87348   4.036  13.256  12.395
28484SOL    HW187349   4.116  13.210  12.368
28484SOL    HW287350   4.067  13.327  12.451
28485SOL     OW87351   9.331  11.052   9.462
28485SOL    HW187352   9.250  11.068   9.413
28485SOL    HW287353   9.392  11.016   9.398
28486SOL     OW87354   5.346  12.977  11.176
28486SOL    HW187355   5.403  12.903  11.157
28486SOL    HW287356   5.268  12.937  11.216
28487SOL     OW87357   1.062  14.730   2.366
28487SOL    HW187358   1.015  14.804   2.405
28487SOL    HW287359   1.073  14.668   2.438
28488SOL     OW87360  13.196  10.381   1.077
28488SOL    HW187361  13.232  10.419   1.157
28488SOL    HW287362  13.107  10.416   1.072
28489SOL     OW87363   2.714   7.201   1.888
28489SOL    HW187364   2.778   7.140   1.853
28489SOL    HW287365   2.744   7.219   1.977
28490SOL     OW87366   4.694   0.349   3.901
28490SOL    HW187367   4.786   0.358   3.928
28490SOL    HW287368   4.696   0.284   3.830
28491SOL     OW87369   0.436  12.224  12.164
28491SOL    HW187370   0.509  12.271  12.204
28491SOL    HW287371   0.455  12.132  12.183
28492SOL     OW87372  12.902  10.767   6.851
28492SOL    HW187373  12.977  10.766   6.791
28492SOL    HW287374  12.853  10.687   6.829
28493SOL     OW87375   4.912   4.537   4.339
28493SOL    HW187376   4.866   4.573   4.263
28493SOL    HW287377   4.913   4.609   4.402
28494SOL     OW87378  12.301  10.107   7.101
28494SOL    HW187379  12.382  10.150   7.125
28494SOL    HW287380  12.255  10.093   7.184
28495SOL     OW87381   4.702  13.723  12.928
28495SOL    HW187382   4.698  13.694  13.020
28495SOL    HW287383   4.718  13.642  12.879
28496SOL     OW87384   8.510   2.119   5.742
28496SOL    HW187385   8.430   2.066   5.748
28496SOL    HW287386   8.487   2.201   5.786
28497SOL     OW87387   9.125  14.822   2.932
28497SOL    HW187388   9.166   0.024   2.951
28497SOL    HW287389   9.159  14.762   2.999
28498SOL     OW87390  14.482   5.189  10.041
28498SOL    HW187391  14.392   5.191  10.073
28498SOL    HW287392  14.535   5.190  10.120
28499SOL     OW87393  11.646  13.081   2.678
28499SOL    HW187394  11.645  12.986   2.688
28499SOL    HW287395  11.604  13.097   2.594
28500SOL     OW87396  12.202  10.281   6.841
28500SOL    HW187397  12.145  10.228   6.897
28500SOL    HW287398  12.272  10.222   6.815
28501SOL     OW87399   1.941   0.480  11.472
28501SOL    HW187400   1.968   0.503  11.383
28501SOL    HW287401   2.019   0.496  11.525
28502SOL     OW87402  14.526  12.616   1.236
28502SOL    HW187403  14.577  12.659   1.305
28502SOL    HW287404  14.591  12.569   1.184
28503SOL     OW87405  11.871   0.155   1.855
28503SOL    HW187406  11.905   0.174   1.768
28503SOL    HW287407  11.784   0.119   1.839
28504SOL     OW87408  13.892   4.499   3.335
28504SOL    HW187409  13.936   4.574   3.375
28504SOL    HW287410  13.807   4.494   3.380
28505SOL     OW87411  11.989   4.823   3.941
28505SOL    HW187412  11.919   4.869   3.987
28505SOL    HW287413  11.953   4.737   3.920
28506SOL     OW87414  12.163   8.576  12.603
28506SOL    HW187415  12.234   8.547  12.546
28506SOL    HW287416  12.143   8.664  12.574
28507SOL     OW87417   8.095   2.639   7.622
28507SOL    HW187418   8.060   2.599   7.702
28507SOL    HW287419   8.154   2.707   7.653
28508SOL     OW87420   4.556   3.312   2.721
28508SOL    HW187421   4.633   3.269   2.758
28508SOL    HW287422   4.486   3.247   2.727
28509SOL     OW87423   3.113  10.356  14.776
28509SOL    HW187424   3.022  10.354  14.806
28509SOL    HW287425   3.139  10.264  14.772
28510SOL     OW87426  13.548  14.584   4.021
28510SOL    HW187427  13.538  14.492   4.045
28510SOL    HW287428  13.474  14.627   4.063
28511SOL     OW87429  13.142   4.374   0.330
28511SOL    HW187430  13.165   4.466   0.317
28511SOL    HW287431  13.089   4.374   0.410
28512SOL     OW87432  11.969   6.034   5.578
28512SOL    HW187433  12.021   6.092   5.633
28512SOL    HW287434  11.889   6.019   5.627
28513SOL     OW87435  12.388   6.720   7.369
28513SOL    HW187436  12.439   6.677   7.438
28513SOL    HW287437  12.394   6.813   7.391
28514SOL     OW87438   6.378  12.719   9.067
28514SOL    HW187439   6.377  12.625   9.085
28514SOL    HW287440   6.287  12.740   9.045
28515SOL     OW87441  12.092  13.941   7.414
28515SOL    HW187442  12.049  14.026   7.410
28515SOL    HW287443  12.135  13.932   7.329
28516SOL     OW87444   5.994   8.213   7.719
28516SOL    HW187445   6.020   8.154   7.649
28516SOL    HW287446   5.954   8.288   7.674
28517SOL     OW87447   2.509  11.023   9.642
28517SOL    HW187448   2.533  10.986   9.727
28517SOL    HW287449   2.558  10.972   9.578
28518SOL     OW87450  14.467  11.312  11.375
28518SOL    HW187451  14.488  11.292  11.283
28518SOL    HW287452  14.445  11.226  11.413
28519SOL     OW87453   6.352  13.598   5.765
28519SOL    HW187454   6.351  13.689   5.795
28519SOL    HW287455   6.429  13.592   5.709
28520SOL     OW87456   5.616   6.969   4.215
28520SOL    HW187457   5.539   6.929   4.256
28520SOL    HW287458   5.580   7.022   4.144
28521SOL     OW87459  10.840  13.828   1.953
28521SOL    HW187460  10.865  13.920   1.940
28521SOL    HW287461  10.745  13.827   1.938
28522SOL     OW87462  10.579   1.184   6.539
28522SOL    HW187463  10.667   1.223   6.535
28522SOL    HW287464  10.530   1.230   6.471
28523SOL     OW87465   2.892   3.740   0.843
28523SOL    HW187466   2.818   3.801   0.835
28523SOL    HW287467   2.961   3.790   0.886
28524SOL     OW87468   1.496   6.208   5.330
28524SOL    HW187469   1.489   6.117   5.301
28524SOL    HW287470   1.544   6.203   5.413
28525SOL     OW87471  12.023   7.446  14.166
28525SOL    HW187472  12.043   7.404  14.083
28525SOL    HW287473  11.938   7.410  14.191
28526SOL     OW87474  13.303   9.051   7.872
28526SOL    HW187475  13.260   9.047   7.957
28526SOL    HW287476  13.320   9.144   7.857
28527SOL     OW87477   0.805   1.451  11.655
28527SOL    HW187478   0.741   1.437  11.725
28527SOL    HW287479   0.766   1.519  11.599
28528SOL     OW87480  10.639   1.501  13.292
28528SOL    HW187481  10.602   1.552  13.220
28528SOL    HW287482  10.678   1.424  13.251
28529SOL     OW87483   5.849  13.345   3.357
28529SOL    HW187484   5.761  13.319   3.383
28529SOL    HW287485   5.842  13.362   3.263
28530SOL     OW87486   6.227  12.987   0.065
28530SOL    HW187487   6.252  12.931   0.139
28530SOL    HW287488   6.171  12.931   0.011
28531SOL     OW87489  11.431   9.745   5.311
28531SOL    HW187490  11.487   9.676   5.275
28531SOL    HW287491  11.455   9.749   5.404
28532SOL     OW87492   6.122   2.913   5.158
28532SOL    HW187493   6.047   2.891   5.103
28532SOL    HW287494   6.194   2.863   5.120
28533SOL     OW87495   2.441  13.656   8.567
28533SOL    HW187496   2.458  13.592   8.636
28533SOL    HW287497   2.501  13.728   8.587
28534SOL     OW87498  11.079   7.252   4.165
28534SOL    HW187499  11.082   7.235   4.071
28534SOL    HW287500  10.987   7.242   4.189
28535SOL     OW87501   7.217  13.004   2.713
28535SOL    HW187502   7.165  12.994   2.793
28535SOL    HW287503   7.198  12.925   2.662
28536SOL     OW87504   8.908   5.609   6.636
28536SOL    HW187505   8.896   5.702   6.621
28536SOL    HW287506   8.999   5.601   6.666
28537SOL     OW87507   3.052  13.758  14.778
28537SOL    HW187508   3.120  13.696  14.804
28537SOL    HW287509   2.990  13.758  14.852
28538SOL     OW87510   0.811  13.308   3.594
28538SOL    HW187511   0.753  13.314   3.518
28538SOL    HW287512   0.768  13.245   3.652
28539SOL     OW87513  10.317   9.990   5.623
28539SOL    HW187514  10.244   9.938   5.656
28539SOL    HW287515  10.318  10.068   5.677
28540SOL     OW87516  14.073   8.212   7.064
28540SOL    HW187517  14.153   8.162   7.078
28540SOL    HW287518  14.047   8.240   7.151
28541SOL     OW87519   2.740   9.094   6.252
28541SOL    HW187520   2.767   9.156   6.185
28541SOL    HW287521   2.793   9.016   6.236
28542SOL     OW87522   8.648   4.979  11.027
28542SOL    HW187523   8.633   4.976  11.121
28542SOL    HW287524   8.734   5.020  11.017
28543SOL     OW87525   9.935  14.648   7.850
28543SOL    HW187526   9.937  14.607   7.936
28543SOL    HW287527   9.957  14.739   7.866
28544SOL     OW87528   4.223   0.941   0.948
28544SOL    HW187529   4.157   0.884   0.988
28544SOL    HW287530   4.305   0.917   0.990
28545SOL     OW87531   7.143   8.211  10.616
28545SOL    HW187532   7.115   8.247  10.532
28545SOL    HW287533   7.116   8.277  10.680
28546SOL     OW87534   1.664   8.653   7.464
28546SOL    HW187535   1.596   8.585   7.460
28546SOL    HW287536   1.743   8.610   7.434
28547SOL     OW87537   6.708   8.744   4.729
28547SOL    HW187538   6.754   8.827   4.713
28547SOL    HW287539   6.766   8.696   4.787
28548SOL     OW87540   0.471   3.940  10.143
28548SOL    HW187541   0.418   3.879  10.091
28548SOL    HW287542   0.407   3.984  10.199
28549SOL     OW87543  12.344   8.633   5.947
28549SOL    HW187544  12.333   8.614   6.041
28549SOL    HW287545  12.417   8.695   5.944
28550SOL     OW87546   8.432  14.841  10.408
28550SOL    HW187547   8.338  14.839  10.424
28550SOL    HW287548   8.449  14.762  10.356
28551SOL     OW87549   0.495   3.243   9.243
28551SOL    HW187550   0.549   3.319   9.222
28551SOL    HW287551   0.451   3.268   9.325
28552SOL     OW87552  14.820   4.671   6.302
28552SOL    HW187553  14.769   4.590   6.306
28552SOL    HW287554  14.756   4.740   6.321
28553SOL     OW87555   9.162  14.236  10.244
28553SOL    HW187556   9.228  14.302  10.222
28553SOL    HW287557   9.080  14.284  10.249
28554SOL     OW87558   0.532   4.360   8.487
28554SOL    HW187559   0.598   4.313   8.436
28554SOL    HW287560   0.576   4.441   8.514
28555SOL     OW87561   5.769   5.396   6.037
28555SOL    HW187562   5.856   5.429   6.058
28555SOL    HW287563   5.709   5.454   6.083
28556SOL     OW87564  12.303   4.600  13.300
28556SOL    HW187565  12.266   4.516  13.272
28556SOL    HW287566  12.366   4.622  13.231
28557SOL     OW87567  13.828  14.786  11.188
28557SOL    HW187568  13.839  14.746  11.102
28557SOL    HW287569  13.740  14.760  11.216
28558SOL     OW87570   8.314  14.586   1.828
28558SOL    HW187571   8.250  14.531   1.782
28558SOL    HW287572   8.261  14.645   1.882
28559SOL     OW87573   5.790   8.256   5.626
28559SOL    HW187574   5.859   8.189   5.629
28559SOL    HW287575   5.742   8.245   5.708
28560SOL     OW87576  10.888   2.765  13.311
28560SOL    HW187577  10.894   2.678  13.350
28560SOL    HW287578  10.909   2.752  13.219
28561SOL     OW87579   8.450   9.594  11.033
28561SOL    HW187580   8.516   9.526  11.047
28561SOL    HW287581   8.494   9.675  11.062
28562SOL     OW87582  12.004  14.021   2.552
28562SOL    HW187583  11.936  14.010   2.618
28562SOL    HW287584  11.957  14.034   2.470
28563SOL     OW87585   5.415   1.967  10.941
28563SOL    HW187586   5.487   1.918  10.982
28563SOL    HW287587   5.339   1.946  10.995
28564SOL     OW87588   0.300   4.104  14.411
28564SOL    HW187589   0.281   4.172  14.346
28564SOL    HW287590   0.215   4.085  14.451
28565SOL     OW87591  14.362  12.951   8.882
28565SOL    HW187592  14.274  12.962   8.847
28565SOL    HW287593  14.404  13.036   8.868
28566SOL     OW87594   3.130  10.414  11.898
28566SOL    HW187595   3.223  10.395  11.893
28566SOL    HW287596   3.089  10.347  11.843
28567SOL     OW87597   2.956   3.705  14.310
28567SOL    HW187598   2.867   3.713  14.275
28567SOL    HW287599   2.989   3.622  14.276
28568SOL     OW87600  13.763  13.744  12.521
28568SOL    HW187601  13.684  13.691  12.512
28568SOL    HW287602  13.835  13.682  12.513
28569SOL     OW87603  10.207  10.858   2.890
28569SOL    HW187604  10.264  10.829   2.819
28569SOL    HW287605  10.240  10.945   2.913
28570SOL     OW87606   1.104  13.481   8.269
28570SOL    HW187607   1.008  13.482   8.271
28570SOL    HW287608   1.128  13.573   8.255
28571SOL     OW87609   6.517   8.776   8.656
28571SOL    HW187610   6.544   8.865   8.677
28571SOL    HW287611   6.468   8.784   8.574
28572SOL     OW87612   0.994   5.085   0.762
28572SOL    HW187613   0.910   5.130   0.772
28572SOL    HW287614   1.024   5.070   0.852
28573SOL     OW87615   2.253  11.974   0.156
28573SOL    HW187616   2.244  12.037   0.084
28573SOL    HW287617   2.250  12.028   0.235
28574SOL     OW87618   7.529   5.448   1.655
28574SOL    HW187619   7.465   5.379   1.633
28574SOL    HW287620   7.606   5.426   1.603
28575SOL     OW87621  13.796   6.360  10.378
28575SOL    HW187622  13.811   6.418  10.453
28575SOL    HW287623  13.808   6.272  10.414
28576SOL     OW87624   4.221  10.734   1.809
28576SOL    HW187625   4.297  10.772   1.853
28576SOL    HW287626   4.197  10.659   1.864
28577SOL     OW87627   6.084   0.522   9.874
28577SOL    HW187628   6.125   0.476   9.801
28577SOL    HW287629   6.140   0.504   9.949
28578SOL     OW87630   1.292   3.794  12.527
28578SOL    HW187631   1.319   3.833  12.610
28578SOL    HW287632   1.374   3.775  12.482
28579SOL     OW87633  10.971   9.233  13.982
28579SOL    HW187634  11.020   9.208  13.904
28579SOL    HW287635  10.979   9.328  13.986
28580SOL     OW87636   7.425  11.393   4.068
28580SOL    HW187637   7.341  11.412   4.028
28580SOL    HW287638   7.403  11.352   4.152
28581SOL     OW87639   5.091   6.977  11.965
28581SOL    HW187640   5.067   6.907  12.025
28581SOL    HW287641   5.020   7.041  11.973
28582SOL     OW87642   9.542   9.128   2.392
28582SOL    HW187643   9.620   9.181   2.411
28582SOL    HW287644   9.481   9.149   2.463
28583SOL     OW87645  13.472  10.765   9.331
28583SOL    HW187646  13.407  10.824   9.370
28583SOL    HW287647  13.551  10.780   9.382
28584SOL     OW87648   7.772   3.567   4.529
28584SOL    HW187649   7.799   3.480   4.501
28584SOL    HW287650   7.838   3.592   4.594
28585SOL     OW87651  10.366   8.255  13.452
28585SOL    HW187652  10.332   8.166  13.440
28585SOL    HW287653  10.378   8.288  13.363
28586SOL     OW87654  14.534  14.850   7.267
28586SOL    HW187655  14.623  14.878   7.246
28586SOL    HW287656  14.478   0.019   7.209
28587SOL     OW87657   9.175   8.583   9.055
28587SOL    HW187658   9.220   8.509   9.094
28587SOL    HW287659   9.092   8.547   9.023
28588SOL     OW87660  11.295  14.372   8.699
28588SOL    HW187661  11.319  14.296   8.752
28588SOL    HW287662  11.371  14.386   8.642
28589SOL     OW87663  13.985  12.697   7.938
28589SOL    HW187664  14.023  12.763   7.880
28589SOL    HW287665  14.042  12.621   7.929
28590SOL     OW87666   5.160  11.218  14.251
28590SOL    HW187667   5.224  11.285  14.273
28590SOL    HW287668   5.154  11.221  14.155
28591SOL     OW87669  14.209  11.707  10.234
28591SOL    HW187670  14.181  11.616  10.240
28591SOL    HW287671  14.224  11.722  10.141
28592SOL     OW87672  10.003  10.950  12.214
28592SOL    HW187673  10.033  10.930  12.125
28592SOL    HW287674   9.928  10.893  12.228
28593SOL     OW87675  13.836   0.806   8.690
28593SOL    HW187676  13.802   0.717   8.683
28593SOL    HW287677  13.925   0.801   8.656
28594SOL     OW87678  13.103   2.433   9.966
28594SOL    HW187679  13.032   2.378   9.998
28594SOL    HW287680  13.068   2.522   9.968
28595SOL     OW87681   1.903   1.486   0.148
28595SOL    HW187682   1.854   1.404   0.155
28595SOL    HW287683   1.866   1.529   0.071
28596SOL     OW87684   9.999  11.626   4.434
28596SOL    HW187685   9.994  11.721   4.425
28596SOL    HW287686   9.997  11.610   4.528
28597SOL     OW87687   1.561  12.714   5.587
28597SOL    HW187688   1.500  12.755   5.526
28597SOL    HW287689   1.554  12.766   5.667
28598SOL     OW87690   2.909   9.072   5.296
28598SOL    HW187691   2.968   8.998   5.307
28598SOL    HW287692   2.909   9.089   5.202
28599SOL     OW87693   2.718   7.278   8.712
28599SOL    HW187694   2.649   7.285   8.778
28599SOL    HW287695   2.795   7.317   8.755
28600SOL     OW87696   1.146  13.480   2.308
28600SOL    HW187697   1.192  13.399   2.287
28600SOL    HW287698   1.056  13.464   2.281
28601SOL     OW87699   4.681   5.757  11.018
28601SOL    HW187700   4.689   5.693  10.947
28601SOL    HW287701   4.618   5.718  11.079
28602SOL     OW87702   7.533  13.922   5.486
28602SOL    HW187703   7.567  13.832   5.489
28602SOL    HW287704   7.463  13.923   5.552
28603SOL     OW87705   6.475  11.730   4.975
28603SOL    HW187706   6.470  11.816   4.932
28603SOL    HW287707   6.540  11.682   4.923
28604SOL     OW87708  12.378   8.354   9.951
28604SOL    HW187709  12.416   8.297   9.885
28604SOL    HW287710  12.451   8.408   9.981
28605SOL     OW87711   3.607   8.407  10.882
28605SOL    HW187712   3.545   8.418  10.811
28605SOL    HW287713   3.572   8.461  10.953
28606SOL     OW87714   4.365   7.168  12.363
28606SOL    HW187715   4.315   7.212  12.294
28606SOL    HW287716   4.299   7.143  12.428
28607SOL     OW87717  11.723  12.168   6.151
28607SOL    HW187718  11.698  12.196   6.064
28607SOL    HW287719  11.791  12.102   6.136
28608SOL     OW87720  13.881   4.196   6.419
28608SOL    HW187721  13.904   4.265   6.481
28608SOL    HW287722  13.928   4.119   6.451
28609SOL     OW87723   6.119   7.403   1.896
28609SOL    HW187724   6.094   7.457   1.821
28609SOL    HW287725   6.214   7.413   1.902
28610SOL     OW87726   1.924   5.409   2.391
28610SOL    HW187727   1.894   5.401   2.300
28610SOL    HW287728   1.982   5.333   2.403
28611SOL     OW87729   5.993  11.330   6.567
28611SOL    HW187730   6.027  11.375   6.645
28611SOL    HW287731   5.900  11.315   6.587
28612SOL     OW87732  12.407   1.100  11.251
28612SOL    HW187733  12.465   1.134  11.319
28612SOL    HW287734  12.428   1.006  11.247
28613SOL     OW87735   7.921  11.235   8.059
28613SOL    HW187736   7.926  11.267   8.149
28613SOL    HW287737   7.827  11.224   8.043
28614SOL     OW87738  11.571  10.880   8.414
28614SOL    HW187739  11.598  10.832   8.336
28614SOL    HW287740  11.640  10.946   8.426
28615SOL     OW87741   7.178  13.216   5.837
28615SOL    HW187742   7.231  13.210   5.758
28615SOL    HW287743   7.088  13.224   5.806
28616SOL     OW87744   7.853  11.470  14.736
28616SOL    HW187745   7.763  11.501  14.723
28616SOL    HW287746   7.880  11.438  14.650
28617SOL     OW87747   8.619  13.467   4.568
28617SOL    HW187748   8.532  13.461   4.529
28617SOL    HW287749   8.606  13.523   4.645
28618SOL     OW87750   1.371  13.688   6.215
28618SOL    HW187751   1.456  13.643   6.217
28618SOL    HW287752   1.393  13.781   6.216
28619SOL     OW87753   9.841  10.199  12.676
28619SOL    HW187754   9.934  10.175  12.672
28619SOL    HW287755   9.833  10.272  12.614
28620SOL     OW87756  14.465   9.743  11.026
28620SOL    HW187757  14.413   9.822  11.042
28620SOL    HW287758  14.550   9.776  10.997
28621SOL     OW87759   6.927   0.102  12.115
28621SOL    HW187760   6.942   0.171  12.050
28621SOL    HW287761   7.009   0.053  12.117
28622SOL     OW87762   0.593  12.008   5.254
28622SOL    HW187763   0.655  11.943   5.220
28622SOL    HW287764   0.528  11.956   5.302
28623SOL     OW87765   5.062   1.429   5.016
28623SOL    HW187766   5.024   1.515   4.998
28623SOL    HW287767   5.053   1.381   4.933
28624SOL     OW87768  11.443   5.325  12.329
28624SOL    HW187769  11.508   5.394  12.333
28624SOL    HW287770  11.373   5.354  12.387
28625SOL     OW87771  13.872   8.837   1.148
28625SOL    HW187772  13.834   8.859   1.063
28625SOL    HW287773  13.955   8.884   1.151
28626SOL     OW87774   8.907   9.321   8.844
28626SOL    HW187775   8.955   9.278   8.773
28626SOL    HW287776   8.969   9.323   8.917
28627SOL     OW87777  14.058   9.226  12.726
28627SOL    HW187778  14.115   9.164  12.770
28627SOL    HW287779  13.972   9.184  12.725
28628SOL     OW87780   0.589   3.076   6.637
28628SOL    HW187781   0.547   3.099   6.720
28628SOL    HW287782   0.552   3.137   6.574
28629SOL     OW87783   6.396  13.253  10.295
28629SOL    HW187784   6.470  13.253  10.234
28629SOL    HW287785   6.337  13.185  10.262
28630SOL     OW87786   0.265  10.480   4.133
28630SOL    HW187787   0.215  10.521   4.203
28630SOL    HW287788   0.200  10.464   4.064
28631SOL     OW87789   6.642  14.021   1.240
28631SOL    HW187790   6.648  14.106   1.284
28631SOL    HW287791   6.707  14.026   1.170
28632SOL     OW87792   3.595  14.271   6.943
28632SOL    HW187793   3.619  14.343   6.884
28632SOL    HW287794   3.619  14.304   7.030
28633SOL     OW87795  14.367   4.569  13.095
28633SOL    HW187796  14.457   4.563  13.127
28633SOL    HW287797  14.340   4.478  13.085
28634SOL     OW87798   2.416   4.356  14.830
28634SOL    HW187799   2.358   4.390  14.761
28634SOL    HW287800   2.484   4.309  14.782
28635SOL     OW87801   7.745   0.898   5.667
28635SOL    HW187802   7.719   0.821   5.719
28635SOL    HW287803   7.775   0.961   5.732
28636SOL     OW87804  14.791   8.777  14.718
28636SOL    HW187805  14.838   8.735  14.790
28636SOL    HW287806  14.765   8.705  14.661
28637SOL     OW87807   5.137   6.206   7.644
28637SOL    HW187808   5.092   6.180   7.724
28637SOL    HW287809   5.079   6.271   7.604
28638SOL     OW87810  11.712  12.449   0.561
28638SOL    HW187811  11.800  12.475   0.536
28638SOL    HW287812  11.672  12.530   0.595
28639SOL     OW87813  11.183   7.511   6.590
28639SOL    HW187814  11.127   7.434   6.585
28639SOL    HW287815  11.154   7.566   6.517
28640SOL     OW87816   7.927   2.949   1.379
28640SOL    HW187817   8.018   2.940   1.409
28640SOL    HW287818   7.915   2.877   1.316
28641SOL     OW87819   5.454   7.710  12.074
28641SOL    HW187820   5.404   7.776  12.124
28641SOL    HW287821   5.390   7.642  12.054
28642SOL     OW87822   0.735   9.070   4.798
28642SOL    HW187823   0.673   9.142   4.812
28642SOL    HW287824   0.790   9.099   4.725
28643SOL     OW87825   1.754  12.940  12.145
28643SOL    HW187826   1.666  12.922  12.179
28643SOL    HW287827   1.813  12.908  12.212
28644SOL     OW87828  12.063   8.264   8.281
28644SOL    HW187829  12.038   8.197   8.217
28644SOL    HW287830  12.046   8.347   8.237
28645SOL     OW87831   3.342  12.940   2.275
28645SOL    HW187832   3.371  12.924   2.185
28645SOL    HW287833   3.354  13.034   2.288
28646SOL     OW87834  10.432   6.514  12.100
28646SOL    HW187835  10.416   6.420  12.089
28646SOL    HW287836  10.416   6.551  12.013
28647SOL     OW87837  13.097   3.782  14.372
28647SOL    HW187838  13.098   3.847  14.442
28647SOL    HW287839  13.102   3.834  14.292
28648SOL     OW87840   9.824   5.949   9.914
28648SOL    HW187841   9.905   5.998   9.922
28648SOL    HW287842   9.802   5.924  10.004
28649SOL     OW87843  12.817  10.595  14.870
28649SOL    HW187844  12.735  10.599   0.036
28649SOL    HW287845  12.844  10.686  14.861
28650SOL     OW87846   1.656  14.751   5.251
28650SOL    HW187847   1.613  14.739   5.167
28650SOL    HW287848   1.623  14.679   5.305
28651SOL     OW87849  10.518   1.994   0.456
28651SOL    HW187850  10.535   1.909   0.414
28651SOL    HW287851  10.605   2.035   0.460
28652SOL     OW87852   8.752  11.478   5.510
28652SOL    HW187853   8.777  11.464   5.419
28652SOL    HW287854   8.835  11.474   5.558
28653SOL     OW87855  12.777   1.292   1.837
28653SOL    HW187856  12.818   1.222   1.888
28653SOL    HW287857  12.712   1.247   1.782
28654SOL     OW87858  13.763   3.152   4.539
28654SOL    HW187859  13.770   3.057   4.548
28654SOL    HW287860  13.854   3.182   4.540
28655SOL     OW87861  13.959   4.510   0.372
28655SOL    HW187862  13.992   4.570   0.304
28655SOL    HW287863  14.034   4.455   0.393
28656SOL     OW87864  10.851  12.536  11.732
28656SOL    HW187865  10.864  12.452  11.776
28656SOL    HW287866  10.932  12.550  11.683
28657SOL     OW87867   0.097  14.029   2.669
28657SOL    HW187868   0.181  13.989   2.645
28657SOL    HW287869   0.077  13.993   2.755
28658SOL     OW87870  13.351   3.085   1.803
28658SOL    HW187871  13.262   3.049   1.801
28658SOL    HW287872  13.364   3.122   1.715
28659SOL     OW87873  13.553   5.288   0.073
28659SOL    HW187874  13.504   5.317  14.879
28659SOL    HW287875  13.487   5.260   0.136
28660SOL     OW87876   4.757   4.264  11.007
28660SOL    HW187877   4.676   4.295  11.048
28660SOL    HW287878   4.763   4.172  11.031
28661SOL     OW87879   2.658   1.097   8.334
28661SOL    HW187880   2.732   1.077   8.392
28661SOL    HW287881   2.587   1.042   8.367
28662SOL     OW87882   3.390   6.891  12.450
28662SOL    HW187883   3.323   6.927  12.508
28662SOL    HW287884   3.465   6.949  12.461
28663SOL     OW87885   9.966  11.953   7.916
28663SOL    HW187886   9.967  11.915   8.004
28663SOL    HW287887   9.967  11.877   7.857
28664SOL     OW87888   3.618   7.489  12.668
28664SOL    HW187889   3.682   7.559  12.679
28664SOL    HW287890   3.669   7.415  12.633
28665SOL     OW87891   4.904  12.889  11.676
28665SOL    HW187892   4.948  12.810  11.710
28665SOL    HW287893   4.958  12.962  11.707
28666SOL     OW87894   5.963   8.998   2.989
28666SOL    HW187895   5.984   8.962   2.903
28666SOL    HW287896   6.030   9.065   3.004
28667SOL     OW87897   5.880   9.527   7.552
28667SOL    HW187898   5.951   9.529   7.487
28667SOL    HW287899   5.907   9.590   7.619
28668SOL     OW87900  11.694   6.277   5.014
28668SOL    HW187901  11.739   6.362   5.011
28668SOL    HW287902  11.756   6.216   4.975
28669SOL     OW87903  14.516   5.164  12.211
28669SOL    HW187904  14.504   5.230  12.279
28669SOL    HW287905  14.482   5.206  12.132
28670SOL     OW87906   2.295   9.221  11.061
28670SOL    HW187907   2.232   9.215  11.133
28670SOL    HW287908   2.367   9.163  11.087
28671SOL     OW87909  11.296  10.196   7.764
28671SOL    HW187910  11.217  10.214   7.713
28671SOL    HW287911  11.316  10.280   7.806
28672SOL     OW87912  13.861  10.828   6.148
28672SOL    HW187913  13.939  10.857   6.196
28672SOL    HW287914  13.808  10.783   6.213
28673SOL     OW87915   0.908  12.920  13.860
28673SOL    HW187916   0.999  12.921  13.831
28673SOL    HW287917   0.863  12.980  13.800
28674SOL     OW87918   6.239  14.386  10.689
28674SOL    HW187919   6.216  14.357  10.777
28674SOL    HW287920   6.316  14.334  10.666
28675SOL     OW87921  12.123   8.416   4.933
28675SOL    HW187922  12.037   8.417   4.975
28675SOL    HW287923  12.106   8.385   4.844
28676SOL     OW87924  12.919  12.804   6.368
28676SOL    HW187925  12.922  12.895   6.340
28676SOL    HW287926  12.999  12.791   6.419
28677SOL     OW87927   5.780   0.423   1.318
28677SOL    HW187928   5.840   0.365   1.365
28677SOL    HW287929   5.700   0.373   1.309
28678SOL     OW87930  13.902  13.614   8.927
28678SOL    HW187931  13.809  13.623   8.946
28678SOL    HW287932  13.936  13.704   8.931
28679SOL     OW87933  10.182  10.284   0.234
28679SOL    HW187934  10.179  10.189   0.221
28679SOL    HW287935  10.111  10.318   0.181
28680SOL     OW87936   5.791  13.543   1.916
28680SOL    HW187937   5.787  13.569   1.824
28680SOL    HW287938   5.826  13.620   1.960
28681SOL     OW87939   4.352   4.203  13.645
28681SOL    HW187940   4.433   4.183  13.599
28681SOL    HW287941   4.320   4.283  13.603
28682SOL     OW87942  10.441   1.596   7.801
28682SOL    HW187943  10.479   1.515   7.836
28682SOL    HW287944  10.438   1.582   7.707
28683SOL     OW87945   8.254   9.694  11.229
28683SOL    HW187946   8.318   9.672  11.161
28683SOL    HW287947   8.219   9.609  11.257
28684SOL     OW87948  12.714   9.449   6.166
28684SOL    HW187949  12.747   9.404   6.089
28684SOL    HW287950  12.634   9.402   6.189
28685SOL     OW87951  10.909   2.597  11.549
28685SOL    HW187952  10.858   2.632  11.477
28685SOL    HW287953  10.849   2.600  11.624
28686SOL     OW87954   2.173   9.589   5.075
28686SOL    HW187955   2.236   9.557   5.010
28686SOL    HW287956   2.210   9.673   5.103
28687SOL     OW87957   3.180   7.910   9.786
28687SOL    HW187958   3.191   7.827   9.740
28687SOL    HW287959   3.167   7.885   9.878
28688SOL     OW87960  10.988  11.761  12.428
28688SOL    HW187961  11.012  11.697  12.360
28688SOL    HW287962  10.961  11.839  12.379
28689SOL     OW87963  12.217  13.045  10.822
28689SOL    HW187964  12.290  12.985  10.805
28689SOL    HW287965  12.139  12.990  10.811
28690SOL     OW87966  14.056   1.446   7.983
28690SOL    HW187967  14.047   1.436   7.889
28690SOL    HW287968  14.149   1.460   7.998
28691SOL     OW87969  12.592   8.889   1.840
28691SOL    HW187970  12.541   8.829   1.895
28691SOL    HW287971  12.542   8.895   1.758
28692SOL     OW87972   6.854  12.438   2.446
28692SOL    HW187973   6.924  12.437   2.510
28692SOL    HW287974   6.842  12.531   2.425
28693SOL     OW87975  10.181  14.573  10.681
28693SOL    HW187976  10.264  14.569  10.633
28693SOL    HW287977  10.117  14.605  10.618
28694SOL     OW87978  11.364   6.874   7.281
28694SOL    HW187979  11.441   6.921   7.315
28694SOL    HW287980  11.388   6.782   7.287
28695SOL     OW87981  14.676  11.650  13.393
28695SOL    HW187982  14.588  11.621  13.417
28695SOL    HW287983  14.725  11.569  13.378
28696SOL     OW87984   2.328   6.831   2.205
28696SOL    HW187985   2.265   6.831   2.133
28696SOL    HW287986   2.411   6.859   2.165
28697SOL     OW87987  13.819   7.042  11.413
28697SOL    HW187988  13.841   7.134  11.427
28697SOL    HW287989  13.737   7.044  11.364
28698SOL     OW87990   7.265  11.024   7.967
28698SOL    HW187991   7.278  10.951   7.906
28698SOL    HW287992   7.353  11.059   7.980
28699SOL     OW87993   2.766   7.096   4.337
28699SOL    HW187994   2.835   7.042   4.299
28699SOL    HW287995   2.691   7.083   4.279
28700SOL     OW87996   0.896  11.012   8.711
28700SOL    HW187997   0.831  10.943   8.720
28700SOL    HW287998   0.914  11.016   8.617
28701SOL     OW87999   9.303   0.247  13.052
28701SOL    HW188000   9.232   0.310  13.045
28701SOL    HW288001   9.349   0.253  12.969
28702SOL     OW88002  11.377   5.744   6.159
28702SOL    HW188003  11.432   5.756   6.082
28702SOL    HW288004  11.433   5.699   6.222
28703SOL     OW88005  10.447   3.439   9.189
28703SOL    HW188006  10.447   3.463   9.096
28703SOL    HW288007  10.474   3.347   9.190
28704SOL     OW88008   3.519   5.607   8.268
28704SOL    HW188009   3.576   5.680   8.293
28704SOL    HW288010   3.500   5.622   8.175
28705SOL     OW88011   1.107  13.736   5.021
28705SOL    HW188012   1.111  13.641   5.030
28705SOL    HW288013   1.174  13.757   4.954
28706SOL     OW88014  13.619   4.738   8.594
28706SOL    HW188015  13.578   4.811   8.549
28706SOL    HW288016  13.644   4.773   8.679
28707SOL     OW88017   0.986  13.595   4.317
28707SOL    HW188018   1.005  13.513   4.364
28707SOL    HW288019   1.049  13.596   4.245
28708SOL     OW88020  10.684  10.199   3.137
28708SOL    HW188021  10.646  10.276   3.095
28708SOL    HW288022  10.664  10.127   3.076
28709SOL     OW88023   6.926   9.772  12.300
28709SOL    HW188024   7.019   9.750  12.293
28709SOL    HW288025   6.918   9.814  12.386
28710SOL     OW88026   4.713   2.413  11.709
28710SOL    HW188027   4.653   2.342  11.734
28710SOL    HW288028   4.763   2.378  11.635
28711SOL     OW88029  12.178   9.784   0.930
28711SOL    HW188030  12.215   9.762   0.844
28711SOL    HW288031  12.119   9.711   0.949
28712SOL     OW88032   8.353   0.551   3.515
28712SOL    HW188033   8.311   0.552   3.601
28712SOL    HW288034   8.445   0.568   3.532
28713SOL     OW88035   2.050   3.066   3.667
28713SOL    HW188036   2.110   2.994   3.688
28713SOL    HW288037   2.019   3.046   3.578
28714SOL     OW88038   2.772   5.819  14.142
28714SOL    HW188039   2.780   5.906  14.180
28714SOL    HW288040   2.820   5.762  14.201
28715SOL     OW88041  11.122   5.560   4.559
28715SOL    HW188042  11.098   5.611   4.482
28715SOL    HW288043  11.094   5.471   4.537
28716SOL     OW88044  10.009   4.524   5.093
28716SOL    HW188045   9.975   4.464   5.159
28716SOL    HW288046  10.023   4.469   5.016
28717SOL     OW88047   7.515   8.058  11.601
28717SOL    HW188048   7.441   8.001  11.579
28717SOL    HW288049   7.486   8.146  11.578
28718SOL     OW88050   8.222   3.661  11.328
28718SOL    HW188051   8.179   3.697  11.406
28718SOL    HW288052   8.149   3.638  11.269
28719SOL     OW88053   9.699   1.566  11.449
28719SOL    HW188054   9.777   1.516  11.424
28719SOL    HW288055   9.626   1.510  11.421
28720SOL     OW88056   7.358  12.075  14.229
28720SOL    HW188057   7.284  12.081  14.290
28720SOL    HW288058   7.338  12.139  14.161
28721SOL     OW88059  11.300   8.384  13.634
28721SOL    HW188060  11.390   8.393  13.601
28721SOL    HW288061  11.246   8.384  13.555
28722SOL     OW88062   3.481   4.846   9.986
28722SOL    HW188063   3.494   4.849  10.081
28722SOL    HW288064   3.388   4.827   9.975
28723SOL     OW88065   3.063   9.976   1.630
28723SOL    HW188066   2.989   9.933   1.673
28723SOL    HW288067   3.128   9.907   1.619
28724SOL     OW88068  12.336   6.023  12.971
28724SOL    HW188069  12.360   6.115  12.976
28724SOL    HW288070  12.343   6.001  12.877
28725SOL     OW88071   7.414   4.889  12.244
28725SOL    HW188072   7.335   4.873  12.296
28725SOL    HW288073   7.443   4.976  12.272
28726SOL     OW88074   9.480   7.138   6.399
28726SOL    HW188075   9.525   7.181   6.471
28726SOL    HW288076   9.530   7.058   6.384
28727SOL     OW88077  12.768   8.631   1.741
28727SOL    HW188078  12.795   8.710   1.695
28727SOL    HW288079  12.672   8.630   1.732
28728SOL     OW88080   6.621   3.976   4.398
28728SOL    HW188081   6.599   3.950   4.487
28728SOL    HW288082   6.653   3.897   4.356
28729SOL     OW88083   2.829   2.457  13.744
28729SOL    HW188084   2.780   2.509  13.807
28729SOL    HW288085   2.794   2.369  13.753
28730SOL     OW88086   7.791   9.321  10.996
28730SOL    HW188087   7.810   9.410  10.965
28730SOL    HW288088   7.877   9.280  11.003
28731SOL     OW88089   1.110  11.983   5.342
28731SOL    HW188090   1.195  12.012   5.375
28731SOL    HW288091   1.057  11.968   5.421
28732SOL     OW88092  13.347   4.921  10.198
28732SOL    HW188093  13.289   4.996  10.183
28732SOL    HW288094  13.298   4.847  10.162
28733SOL     OW88095   7.661  12.366  12.535
28733SOL    HW188096   7.659  12.335  12.445
28733SOL    HW288097   7.687  12.288  12.586
28734SOL     OW88098   5.172   9.683   6.376
28734SOL    HW188099   5.169   9.597   6.335
28734SOL    HW288100   5.084   9.698   6.409
28735SOL     OW88101   1.786   4.852  11.527
28735SOL    HW188102   1.851   4.915  11.497
28735SOL    HW288103   1.825   4.767  11.508
28736SOL     OW88104   3.627  14.586   5.322
28736SOL    HW188105   3.722  14.586   5.323
28736SOL    HW288106   3.601  14.619   5.408
28737SOL     OW88107   4.742  12.569  10.428
28737SOL    HW188108   4.766  12.567  10.521
28737SOL    HW288109   4.771  12.484  10.394
28738SOL     OW88110   8.523   2.048   8.958
28738SOL    HW188111   8.507   2.082   9.046
28738SOL    HW288112   8.551   1.958   8.971
28739SOL     OW88113   3.506   4.793   7.841
28739SOL    HW188114   3.528   4.869   7.787
28739SOL    HW288115   3.589   4.764   7.877
28740SOL     OW88116   6.289   4.885   7.915
28740SOL    HW188117   6.302   4.790   7.909
28740SOL    HW288118   6.266   4.900   8.007
28741SOL     OW88119   1.583  10.232   4.023
28741SOL    HW188120   1.620  10.148   4.047
28741SOL    HW288121   1.508  10.211   3.968
28742SOL     OW88122  10.613   6.560  12.648
28742SOL    HW188123  10.528   6.537  12.686
28742SOL    HW288124  10.625   6.497  12.577
28743SOL     OW88125  13.296   6.041   1.307
28743SOL    HW188126  13.287   6.078   1.220
28743SOL    HW288127  13.294   5.946   1.293
28744SOL     OW88128   7.903   9.940  14.029
28744SOL    HW188129   7.877   9.992  14.104
28744SOL    HW288130   7.929   9.855  14.065
28745SOL     OW88131   9.937   3.257   9.045
28745SOL    HW188132   9.859   3.292   9.087
28745SOL    HW288133   9.952   3.315   8.970
28746SOL     OW88134   5.528   3.609  12.741
28746SOL    HW188135   5.440   3.617  12.780
28746SOL    HW288136   5.531   3.520  12.706
28747SOL     OW88137  14.577   2.371  14.315
28747SOL    HW188138  14.485   2.348  14.312
28747SOL    HW288139  14.580   2.462  14.284
28748SOL     OW88140  10.829   0.625   4.302
28748SOL    HW188141  10.736   0.631   4.328
28748SOL    HW288142  10.848   0.532   4.304
28749SOL     OW88143   6.314   5.074   3.474
28749SOL    HW188144   6.249   5.087   3.405
28749SOL    HW288145   6.328   5.162   3.510
28750SOL     OW88146   0.832   4.084   5.584
28750SOL    HW188147   0.837   4.139   5.662
28750SOL    HW288148   0.771   4.014   5.607
28751SOL     OW88149  11.264  11.075   3.755
28751SOL    HW188150  11.315  11.097   3.833
28751SOL    HW288151  11.176  11.055   3.789
28752SOL     OW88152   7.243  14.787   0.219
28752SOL    HW188153   7.193  14.729   0.277
28752SOL    HW288154   7.201  14.872   0.228
28753SOL     OW88155  10.756   1.015   2.043
28753SOL    HW188156  10.743   1.109   2.057
28753SOL    HW288157  10.802   0.986   2.122
28754SOL     OW88158   9.518   1.574   4.886
28754SOL    HW188159   9.529   1.530   4.801
28754SOL    HW288160   9.451   1.522   4.931
28755SOL     OW88161   1.304  12.376   2.496
28755SOL    HW188162   1.288  12.390   2.403
28755SOL    HW288163   1.256  12.295   2.516
28756SOL     OW88164   0.326   4.182  10.723
28756SOL    HW188165   0.285   4.191  10.637
28756SOL    HW288166   0.382   4.259  10.732
28757SOL     OW88167   4.458   4.368   8.635
28757SOL    HW188168   4.482   4.328   8.718
28757SOL    HW288169   4.367   4.341   8.620
28758SOL     OW88170  11.408   3.838  12.390
28758SOL    HW188171  11.406   3.933  12.376
28758SOL    HW288172  11.501   3.816  12.391
28759SOL     OW88173   9.899   4.709   0.080
28759SOL    HW188174   9.811   4.700   0.117
28759SOL    HW288175   9.892   4.673  14.874
28760SOL     OW88176   4.665  11.703  11.132
28760SOL    HW188177   4.689  11.721  11.041
28760SOL    HW288178   4.712  11.623  11.155
28761SOL     OW88179  12.334   3.203   2.676
28761SOL    HW188180  12.416   3.165   2.708
28761SOL    HW288181  12.313   3.151   2.599
28762SOL     OW88182   4.515   4.482  14.229
28762SOL    HW188183   4.598   4.530  14.222
28762SOL    HW288184   4.541   4.394  14.255
28763SOL     OW88185   8.763   8.008   8.894
28763SOL    HW188186   8.703   8.083   8.896
28763SOL    HW288187   8.771   7.986   8.802
28764SOL     OW88188  14.649  10.564  11.654
28764SOL    HW188189  14.579  10.589  11.714
28764SOL    HW288190  14.680  10.480  11.688
28765SOL     OW88191   5.676  13.894  13.792
28765SOL    HW188192   5.659  13.987  13.805
28765SOL    HW288193   5.595  13.859  13.756
28766SOL     OW88194   7.650   7.384   4.669
28766SOL    HW188195   7.582   7.448   4.691
28766SOL    HW288196   7.731   7.434   4.674
28767SOL     OW88197   9.900  13.693  10.999
28767SOL    HW188198   9.829  13.670  10.938
28767SOL    HW288199   9.978  13.699  10.944
28768SOL     OW88200   6.434   8.524   8.296
28768SOL    HW188201   6.464   8.442   8.258
28768SOL    HW288202   6.345   8.536   8.261
28769SOL     OW88203   1.234  13.787   9.845
28769SOL    HW188204   1.280  13.796   9.929
28769SOL    HW288205   1.217  13.693   9.839
28770SOL     OW88206  10.048  13.117   2.646
28770SOL    HW188207  10.044  13.168   2.727
28770SOL    HW288208  10.051  13.025   2.675
28771SOL     OW88209   8.836   5.147  12.850
28771SOL    HW188210   8.750   5.113  12.875
28771SOL    HW288211   8.825   5.176  12.759
28772SOL     OW88212   0.421   1.690   2.008
28772SOL    HW188213   0.426   1.709   2.102
28772SOL    HW288214   0.343   1.737   1.979
28773SOL     OW88215   7.739   3.388   0.043
28773SOL    HW188216   7.793   3.421  14.853
28773SOL    HW288217   7.651   3.420   0.022
28774SOL     OW88218   8.042  11.653   5.708
28774SOL    HW188219   7.969  11.619   5.759
28774SOL    HW288220   8.034  11.611   5.623
28775SOL     OW88221  13.834  10.478  12.829
28775SOL    HW188222  13.923  10.482  12.792
28775SOL    HW288223  13.825  10.389  12.861
28776SOL     OW88224   3.196   4.840   8.302
28776SOL    HW188225   3.253   4.819   8.228
28776SOL    HW288226   3.133   4.903   8.266
28777SOL     OW88227   0.867   4.045   7.369
28777SOL    HW188228   0.816   4.076   7.294
28777SOL    HW288229   0.916   3.971   7.335
28778SOL     OW88230  13.420   9.971   1.286
28778SOL    HW188231  13.489  10.019   1.332
28778SOL    HW288232  13.405   9.892   1.339
28779SOL     OW88233   0.159  10.894   3.590
28779SOL    HW188234   0.085  10.911   3.532
28779SOL    HW288235   0.225  10.854   3.533
28780SOL     OW88236  11.915   8.477  10.140
28780SOL    HW188237  11.971   8.501  10.066
28780SOL    HW288238  11.850   8.548  10.145
28781SOL     OW88239   5.261  10.711   2.797
28781SOL    HW188240   5.265  10.782   2.733
28781SOL    HW288241   5.172  10.677   2.789
28782SOL     OW88242   4.724   2.003   8.562
28782SOL    HW188243   4.755   1.997   8.471
28782SOL    HW288244   4.764   1.928   8.606
28783SOL     OW88245   5.717  12.760   9.767
28783SOL    HW188246   5.751  12.849   9.755
28783SOL    HW288247   5.623  12.773   9.782
28784SOL     OW88248   9.963   0.051   0.056
28784SOL    HW188249  10.029   0.007   0.110
28784SOL    HW288250   9.922   0.114   0.115
28785SOL     OW88251   1.529   2.338   2.236
28785SOL    HW188252   1.483   2.332   2.152
28785SOL    HW288253   1.474   2.396   2.289
28786SOL     OW88254   1.962   9.666  11.416
28786SOL    HW188255   1.911   9.736  11.376
28786SOL    HW288256   2.006   9.623  11.343
28787SOL     OW88257   7.544  10.674  12.093
28787SOL    HW188258   7.534  10.739  12.163
28787SOL    HW288259   7.634  10.686  12.063
28788SOL     OW88260  13.377   2.852   3.164
28788SOL    HW188261  13.457   2.905   3.170
28788SOL    HW288262  13.307   2.916   3.150
28789SOL     OW88263   9.821  13.319   8.296
28789SOL    HW188264   9.790  13.401   8.335
28789SOL    HW288265   9.746  13.286   8.246
28790SOL     OW88266   0.718  14.341   5.252
28790SOL    HW188267   0.752  14.419   5.208
28790SOL    HW288268   0.786  14.275   5.239
28791SOL     OW88269   8.606   1.549  14.403
28791SOL    HW188270   8.627   1.461  14.435
28791SOL    HW288271   8.687   1.599  14.414
28792SOL     OW88272   3.759  10.124   7.248
28792SOL    HW188273   3.842  10.130   7.201
28792SOL    HW288274   3.752  10.207   7.295
28793SOL     OW88275   3.257   5.092   4.006
28793SOL    HW188276   3.202   5.052   4.074
28793SOL    HW288277   3.209   5.171   3.981
28794SOL     OW88278  13.613   9.950   6.226
28794SOL    HW188279  13.518   9.939   6.225
28794SOL    HW288280  13.629  10.027   6.171
28795SOL     OW88281  12.284   2.344  10.515
28795SOL    HW188282  12.362   2.357  10.461
28795SOL    HW288283  12.245   2.431  10.523
28796SOL     OW88284   5.913   0.570   0.198
28796SOL    HW188285   5.968   0.569   0.277
28796SOL    HW288286   5.925   0.658   0.162
28797SOL     OW88287   7.135   0.196  10.962
28797SOL    HW188288   7.057   0.187  11.016
28797SOL    HW288289   7.150   0.109  10.926
28798SOL     OW88290  12.807   5.482  14.509
28798SOL    HW188291  12.835   5.391  14.516
28798SOL    HW288292  12.759   5.499  14.591
28799SOL     OW88293   2.142   5.237   6.202
28799SOL    HW188294   2.154   5.156   6.150
28799SOL    HW288295   2.220   5.288   6.183
28800SOL     OW88296   4.564   8.375   7.202
28800SOL    HW188297   4.495   8.337   7.148
28800SOL    HW288298   4.624   8.415   7.139
28801SOL     OW88299   4.768   0.566   9.258
28801SOL    HW188300   4.697   0.611   9.304
28801SOL    HW288301   4.821   0.636   9.221
28802SOL     OW88302   9.667  14.314   8.551
28802SOL    HW188303   9.736  14.335   8.488
28802SOL    HW288304   9.589  14.297   8.498
28803SOL     OW88305   8.884  13.947  10.452
28803SOL    HW188306   8.895  13.879  10.386
28803SOL    HW288307   8.873  14.028  10.401
28804SOL     OW88308  14.587  14.400   9.506
28804SOL    HW188309  14.544  14.481   9.535
28804SOL    HW288310  14.680  14.421   9.507
28805SOL     OW88311   4.571   0.200   4.280
28805SOL    HW188312   4.554   0.126   4.222
28805SOL    HW288313   4.637   0.252   4.234
28806SOL     OW88314   8.199   9.622   3.346
28806SOL    HW188315   8.243   9.567   3.280
28806SOL    HW288316   8.269   9.644   3.408
28807SOL     OW88317   3.931  10.734  11.365
28807SOL    HW188318   3.866  10.682  11.318
28807SOL    HW288319   3.899  10.824  11.360
28808SOL     OW88320   2.433  12.766  11.691
28808SOL    HW188321   2.451  12.786  11.599
28808SOL    HW288322   2.351  12.718  11.689
28809SOL     OW88323   4.844   1.760  11.174
28809SOL    HW188324   4.852   1.735  11.266
28809SOL    HW288325   4.853   1.855  11.174
28810SOL     OW88326  13.705   8.702   9.863
28810SOL    HW188327  13.773   8.670   9.804
28810SOL    HW288328  13.629   8.647   9.844
28811SOL     OW88329  12.257   2.303   7.448
28811SOL    HW188330  12.169   2.337   7.434
28811SOL    HW288331  12.248   2.208   7.440
28812SOL     OW88332   3.418   9.520   8.029
28812SOL    HW188333   3.493   9.522   7.969
28812SOL    HW288334   3.411   9.610   8.061
28813SOL     OW88335   2.021  14.114   6.915
28813SOL    HW188336   2.062  14.028   6.908
28813SOL    HW288337   2.083  14.174   6.874
28814SOL     OW88338   7.199  14.678   9.335
28814SOL    HW188339   7.151  14.603   9.299
28814SOL    HW288340   7.214  14.656   9.427
28815SOL     OW88341   0.732  12.155   4.220
28815SOL    HW188342   0.712  12.248   4.229
28815SOL    HW288343   0.660  12.120   4.168
28816SOL     OW88344   5.440   6.641   6.218
28816SOL    HW188345   5.367   6.691   6.182
28816SOL    HW288346   5.476   6.594   6.143
28817SOL     OW88347   9.454   2.676  13.685
28817SOL    HW188348   9.381   2.638  13.638
28817SOL    HW288349   9.513   2.708  13.616
28818SOL     OW88350   0.847  11.346   1.755
28818SOL    HW188351   0.751  11.351   1.749
28818SOL    HW288352   0.874  11.431   1.787
28819SOL     OW88353   6.440  13.847  12.440
28819SOL    HW188354   6.389  13.882  12.367
28819SOL    HW288355   6.528  13.882  12.427
28820SOL     OW88356   0.514  12.625   1.234
28820SOL    HW188357   0.509  12.537   1.195
28820SOL    HW288358   0.424  12.657   1.231
28821SOL     OW88359  13.980  13.869  14.386
28821SOL    HW188360  13.973  13.962  14.408
28821SOL    HW288361  13.949  13.864  14.295
28822SOL     OW88362  11.421  14.779   6.470
28822SOL    HW188363  11.343  14.829   6.495
28822SOL    HW288364  11.493  14.828   6.509
28823SOL     OW88365   3.488  13.780   7.894
28823SOL    HW188366   3.470  13.686   7.887
28823SOL    HW288367   3.425  13.820   7.834
28824SOL     OW88368  12.076   7.470  10.999
28824SOL    HW188369  12.067   7.486  10.906
28824SOL    HW288370  12.046   7.551  11.041
28825SOL     OW88371   5.698  13.899   3.118
28825SOL    HW188372   5.623  13.852   3.154
28825SOL    HW288373   5.659  13.961   3.056
28826SOL     OW88374   5.549  11.562  11.041
28826SOL    HW188375   5.532  11.565  11.135
28826SOL    HW288376   5.550  11.469  11.019
28827SOL     OW88377   4.766  14.304  10.690
28827SOL    HW188378   4.840  14.247  10.711
28827SOL    HW288379   4.706  14.247  10.642
28828SOL     OW88380  13.775   5.155   8.753
28828SOL    HW188381  13.871   5.152   8.748
28828SOL    HW288382  13.754   5.248   8.748
28829SOL     OW88383   0.679   7.559   2.204
28829SOL    HW188384   0.648   7.578   2.115
28829SOL    HW288385   0.626   7.484   2.232
28830SOL     OW88386   8.447   2.723   3.676
28830SOL    HW188387   8.413   2.715   3.765
28830SOL    HW288388   8.520   2.784   3.683
28831SOL     OW88389   9.546  13.483   2.656
28831SOL    HW188390   9.608  13.411   2.645
28831SOL    HW288391   9.599  13.562   2.645
28832SOL     OW88392   6.740  10.744   1.432
28832SOL    HW188393   6.777  10.830   1.451
28832SOL    HW288394   6.714  10.709   1.517
28833SOL     OW88395  11.476   2.152   8.109
28833SOL    HW188396  11.489   2.134   8.202
28833SOL    HW288397  11.559   2.190   8.080
28834SOL     OW88398   4.962  13.058  11.332
28834SOL    HW188399   4.897  12.988  11.338
28834SOL    HW288400   5.041  13.020  11.370
28835SOL     OW88401  12.033  14.525  10.507
28835SOL    HW188402  12.074  14.576  10.438
28835SOL    HW288403  12.092  14.451  10.521
28836SOL     OW88404   6.328  11.926   7.501
28836SOL    HW188405   6.234  11.923   7.515
28836SOL    HW288406   6.341  11.995   7.436
28837SOL     OW88407   2.217   9.521   7.944
28837SOL    HW188408   2.257   9.508   7.858
28837SOL    HW288409   2.225   9.615   7.959
28838SOL     OW88410  14.168   1.875   5.612
28838SOL    HW188411  14.169   1.878   5.708
28838SOL    HW288412  14.076   1.862   5.589
28839SOL     OW88413  12.194  11.277   3.637
28839SOL    HW188414  12.197  11.247   3.728
28839SOL    HW288415  12.230  11.366   3.640
28840SOL     OW88416   0.185   4.227  14.180
28840SOL    HW188417   0.101   4.260  14.148
28840SOL    HW288418   0.233   4.306  14.206
28841SOL     OW88419   1.162   1.117   6.142
28841SOL    HW188420   1.074   1.111   6.180
28841SOL    HW288421   1.219   1.138   6.216
28842SOL     OW88422   1.479  13.867   1.652
28842SOL    HW188423   1.390  13.857   1.618
28842SOL    HW288424   1.469  13.861   1.747
28843SOL     OW88425  10.681  14.624   0.752
28843SOL    HW188426  10.626  14.609   0.674
28843SOL    HW288427  10.698  14.537   0.787
28844SOL     OW88428  10.451   5.280   9.625
28844SOL    HW188429  10.501   5.248   9.550
28844SOL    HW288430  10.516   5.287   9.695
28845SOL     OW88431   4.896  12.441   9.707
28845SOL    HW188432   4.867  12.365   9.657
28845SOL    HW288433   4.983  12.418   9.738
28846SOL     OW88434  10.483  10.496  10.973
28846SOL    HW188435  10.458  10.587  10.989
28846SOL    HW288436  10.511  10.495  10.881
28847SOL     OW88437   1.362   0.847   1.324
28847SOL    HW188438   1.451   0.846   1.288
28847SOL    HW288439   1.305   0.836   1.247
28848SOL     OW88440   6.885  13.565   7.007
28848SOL    HW188441   6.951  13.630   7.030
28848SOL    HW288442   6.880  13.508   7.084
28849SOL     OW88443   8.193   2.921  10.584
28849SOL    HW188444   8.267   2.907  10.644
28849SOL    HW288445   8.210   2.859  10.512
28850SOL     OW88446   4.896  10.383   3.301
28850SOL    HW188447   4.988  10.356   3.303
28850SOL    HW288448   4.880  10.409   3.210
28851SOL     OW88449  14.336   2.763   6.128
28851SOL    HW188450  14.361   2.799   6.044
28851SOL    HW288451  14.245   2.790   6.140
28852SOL     OW88452   1.113   1.560  12.074
28852SOL    HW188453   1.204   1.579  12.051
28852SOL    HW288454   1.076   1.520  11.994
28853SOL     OW88455   0.229   1.723   0.765
28853SOL    HW188456   0.140   1.722   0.803
28853SOL    HW288457   0.216   1.750   0.674
28854SOL     OW88458   3.472   3.853   2.664
28854SOL    HW188459   3.382   3.871   2.691
28854SOL    HW288460   3.464   3.810   2.579
28855SOL     OW88461   4.156   7.197  13.100
28855SOL    HW188462   4.230   7.156  13.146
28855SOL    HW288463   4.093   7.215  13.169
28856SOL     OW88464   3.615   1.726   9.023
28856SOL    HW188465   3.550   1.705   8.956
28856SOL    HW288466   3.611   1.652   9.084
28857SOL     OW88467   7.294  11.871   5.690
28857SOL    HW188468   7.226  11.816   5.652
28857SOL    HW288469   7.294  11.850   5.783
28858SOL     OW88470   2.692  11.954  11.996
28858SOL    HW188471   2.736  12.020  11.944
28858SOL    HW288472   2.722  11.870  11.960
28859SOL     OW88473   3.259  13.578   4.894
28859SOL    HW188474   3.215  13.623   4.822
28859SOL    HW288475   3.347  13.560   4.862
28860SOL     OW88476  12.006   8.889   7.919
28860SOL    HW188477  11.982   8.875   7.827
28860SOL    HW288478  11.951   8.828   7.968
28861SOL     OW88479   0.354  10.685  11.114
28861SOL    HW188480   0.399  10.601  11.113
28861SOL    HW288481   0.369  10.719  11.202
28862SOL     OW88482  11.030   5.096   0.697
28862SOL    HW188483  11.067   5.035   0.760
28862SOL    HW288484  11.021   5.178   0.745
28863SOL     OW88485  14.674  10.170   1.924
28863SOL    HW188486  14.580  10.156   1.934
28863SOL    HW288487  14.702  10.208   2.008
28864SOL     OW88488   9.061   6.829   3.022
28864SOL    HW188489   9.150   6.805   2.994
28864SOL    HW288490   9.004   6.789   2.956
28865SOL     OW88491  12.002  14.205   3.504
28865SOL    HW188492  11.981  14.262   3.430
28865SOL    HW288493  11.958  14.122   3.483
28866SOL     OW88494  14.660  12.453   6.757
28866SOL    HW188495  14.698  12.536   6.727
28866SOL    HW288496  14.577  12.478   6.797
28867SOL     OW88497   2.307   2.300  11.599
28867SOL    HW188498   2.282   2.244  11.526
28867SOL    HW288499   2.343   2.241  11.665
28868SOL     OW88500  10.232   6.112   5.921
28868SOL    HW188501  10.151   6.091   5.875
28868SOL    HW288502  10.233   6.208   5.925
28869SOL     OW88503  12.377   8.076   3.844
28869SOL    HW188504  12.458   8.027   3.827
28869SOL    HW288505  12.403   8.168   3.833
28870SOL     OW88506  13.736  13.185   7.899
28870SOL    HW188507  13.759  13.184   7.806
28870SOL    HW288508  13.820  13.175   7.944
28871SOL     OW88509   8.637   8.845   2.737
28871SOL    HW188510   8.628   8.939   2.752
28871SOL    HW288511   8.679   8.838   2.652
28872SOL     OW88512   6.307   8.593   9.102
28872SOL    HW188513   6.352   8.666   9.144
28872SOL    HW288514   6.315   8.610   9.008
28873SOL     OW88515  12.167   6.252  12.284
28873SOL    HW188516  12.204   6.291  12.205
28873SOL    HW288517  12.072   6.257  12.272
28874SOL     OW88518  13.135  11.922   2.022
28874SOL    HW188519  13.125  12.017   2.016
28874SOL    HW288520  13.056  11.891   2.065
28875SOL     OW88521   7.524   9.415   7.126
28875SOL    HW188522   7.606   9.437   7.170
28875SOL    HW288523   7.527   9.319   7.116
28876SOL     OW88524  11.419  13.690   1.760
28876SOL    HW188525  11.332  13.729   1.760
28876SOL    HW288526  11.454  13.709   1.847
28877SOL     OW88527   3.248   9.397  11.160
28877SOL    HW188528   3.307   9.427  11.091
28877SOL    HW288529   3.252   9.301  11.154
28878SOL     OW88530  10.438   0.978  10.677
28878SOL    HW188531  10.359   0.924  10.673
28878SOL    HW288532  10.427   1.042  10.606
28879SOL     OW88533   4.080   9.145  10.699
28879SOL    HW188534   4.158   9.123  10.649
28879SOL    HW288535   4.018   9.177  10.634
28880SOL     OW88536   5.242   8.684  12.029
28880SOL    HW188537   5.262   8.773  12.001
28880SOL    HW288538   5.180   8.695  12.101
28881SOL     OW88539   8.416   9.767   2.666
28881SOL    HW188540   8.429   9.860   2.683
28881SOL    HW288541   8.486   9.723   2.715
28882SOL     OW88542   9.292   5.065   0.678
28882SOL    HW188543   9.287   5.071   0.774
28882SOL    HW288544   9.204   5.041   0.651
28883SOL     OW88545  14.782   0.635   8.598
28883SOL    HW188546  14.859   0.674   8.556
28883SOL    HW288547  14.811   0.548   8.626
28884SOL     OW88548  11.470  14.704  11.934
28884SOL    HW188549  11.547  14.743  11.975
28884SOL    HW288550  11.450  14.761  11.860
28885SOL     OW88551  13.642   4.774   2.351
28885SOL    HW188552  13.727   4.767   2.306
28885SOL    HW288553  13.615   4.865   2.337
28886SOL     OW88554   5.739   5.607  11.963
28886SOL    HW188555   5.823   5.562  11.971
28886SOL    HW288556   5.744   5.653  11.880
28887SOL     OW88557   1.064   7.622  14.352
28887SOL    HW188558   1.054   7.710  14.316
28887SOL    HW288559   1.075   7.636  14.446
28888SOL     OW88560   4.334  11.916   7.107
28888SOL    HW188561   4.244  11.911   7.074
28888SOL    HW288562   4.325  11.903   7.202
28889SOL     OW88563   8.901   0.641  11.475
28889SOL    HW188564   8.947   0.722  11.451
28889SOL    HW288565   8.829   0.670  11.530
28890SOL     OW88566   7.867   8.740  12.032
28890SOL    HW188567   7.952   8.703  12.057
28890SOL    HW288568   7.807   8.713  12.101
28891SOL     OW88569  10.905  12.534  10.909
28891SOL    HW188570  10.897  12.450  10.954
28891SOL    HW288571  10.887  12.515  10.817
28892SOL     OW88572   3.735  14.495   4.153
28892SOL    HW188573   3.647  14.533   4.164
28892SOL    HW288574   3.722  14.424   4.090
28893SOL     OW88575  11.237   1.189  13.534
28893SOL    HW188576  11.255   1.095  13.535
28893SOL    HW288577  11.272   1.219  13.450
28894SOL     OW88578   3.176  11.889   7.581
28894SOL    HW188579   3.266  11.908   7.555
28894SOL    HW288580   3.124  11.913   7.504
28895SOL     OW88581  10.115  10.877  11.627
28895SOL    HW188582  10.111  10.813  11.556
28895SOL    HW288583  10.198  10.859  11.671
28896SOL     OW88584   7.935  11.480  13.234
28896SOL    HW188585   7.973  11.504  13.149
28896SOL    HW288586   7.904  11.390  13.221
28897SOL     OW88587  10.890  12.899   7.974
28897SOL    HW188588  10.945  12.887   8.052
28897SOL    HW288589  10.908  12.823   7.920
28898SOL     OW88590  13.576   1.760   3.743
28898SOL    HW188591  13.642   1.692   3.729
28898SOL    HW288592  13.617   1.841   3.712
28899SOL     OW88593   0.578   8.666   1.815
28899SOL    HW188594   0.600   8.574   1.796
28899SOL    HW288595   0.650   8.696   1.870
28900SOL     OW88596   9.749   7.510   3.053
28900SOL    HW188597   9.830   7.461   3.069
28900SOL    HW288598   9.712   7.524   3.141
28901SOL     OW88599   2.274  12.783  13.983
28901SOL    HW188600   2.352  12.833  14.007
28901SOL    HW288601   2.211  12.803  14.053
28902SOL     OW88602   2.306   7.772   6.352
28902SOL    HW188603   2.269   7.854   6.321
28902SOL    HW288604   2.335   7.790   6.441
28903SOL     OW88605  10.116   0.948  14.469
28903SOL    HW188606  10.082   0.907  14.548
28903SOL    HW288607  10.092   0.887  14.399
28904SOL     OW88608   8.955   5.075   6.487
28904SOL    HW188609   8.958   5.041   6.398
28904SOL    HW288610   8.995   5.162   6.481
28905SOL     OW88611  14.355   9.469   8.291
28905SOL    HW188612  14.332   9.394   8.345
28905SOL    HW288613  14.323   9.447   8.204
28906SOL     OW88614   2.788   6.429   8.478
28906SOL    HW188615   2.816   6.339   8.498
28906SOL    HW288616   2.749   6.422   8.391
28907SOL     OW88617   1.176  12.115  10.950
28907SOL    HW188618   1.095  12.167  10.943
28907SOL    HW288619   1.171  12.054  10.877
28908SOL     OW88620   1.643  11.299   4.750
28908SOL    HW188621   1.578  11.231   4.730
28908SOL    HW288622   1.609  11.341   4.829
28909SOL     OW88623   5.253  12.218   8.467
28909SOL    HW188624   5.162  12.194   8.447
28909SOL    HW288625   5.282  12.266   8.390
28910SOL     OW88626  13.305   9.731  14.337
28910SOL    HW188627  13.395   9.759  14.349
28910SOL    HW288628  13.297   9.652  14.391
28911SOL     OW88629   3.292   5.803   4.891
28911SOL    HW188630   3.345   5.732   4.853
28911SOL    HW288631   3.206   5.763   4.906
28912SOL     OW88632   7.578   0.747   4.035
28912SOL    HW188633   7.487   0.749   4.003
28912SOL    HW288634   7.605   0.838   4.036
28913SOL     OW88635   1.098  12.931   7.377
28913SOL    HW188636   1.183  12.972   7.389
28913SOL    HW288637   1.056  12.937   7.463
28914SOL     OW88638   0.413   0.475   1.688
28914SOL    HW188639   0.337   0.424   1.661
28914SOL    HW288640   0.390   0.566   1.670
28915SOL     OW88641  10.827   0.683  11.429
28915SOL    HW188642  10.869   0.766  11.452
28915SOL    HW288643  10.754   0.675  11.491
28916SOL     OW88644   5.886   5.503  12.577
28916SOL    HW188645   5.910   5.454  12.657
28916SOL    HW288646   5.808   5.459  12.544
28917SOL     OW88647   4.420   2.600  13.308
28917SOL    HW188648   4.371   2.523  13.281
28917SOL    HW288649   4.383   2.624  13.393
28918SOL     OW88650   3.728   7.401  11.423
28918SOL    HW188651   3.646   7.364  11.454
28918SOL    HW288652   3.745   7.355  11.340
28919SOL     OW88653  11.899   6.877   6.696
28919SOL    HW188654  11.892   6.934   6.772
28919SOL    HW288655  11.978   6.825   6.712
28920SOL     OW88656  13.441   8.911   9.086
28920SOL    HW188657  13.379   8.905   9.159
28920SOL    HW288658  13.491   8.991   9.103
28921SOL     OW88659   5.180   4.253  13.711
28921SOL    HW188660   5.150   4.169  13.677
28921SOL    HW288661   5.108   4.313  13.694
28922SOL     OW88662   6.564  10.805  11.364
28922SOL    HW188663   6.601  10.771  11.282
28922SOL    HW288664   6.547  10.897  11.346
28923SOL     OW88665  11.127   0.332  10.726
28923SOL    HW188666  11.221   0.321  10.713
28923SOL    HW288667  11.098   0.248  10.762
28924SOL     OW88668   9.153   7.081   7.391
28924SOL    HW188669   9.138   7.169   7.426
28924SOL    HW288670   9.066   7.039   7.395
28925SOL     OW88671  14.253  10.646  11.008
28925SOL    HW188672  14.186  10.577  11.001
28925SOL    HW288673  14.203  10.726  11.025
28926SOL     OW88674  13.192  11.268   5.425
28926SOL    HW188675  13.152  11.222   5.351
28926SOL    HW288676  13.285  11.248   5.418
28927SOL     OW88677   8.803   3.219   5.494
28927SOL    HW188678   8.733   3.216   5.428
28927SOL    HW288679   8.825   3.127   5.510
28928SOL     OW88680  12.470   6.360  10.286
28928SOL    HW188681  12.425   6.441  10.311
28928SOL    HW288682  12.549   6.390  10.241
28929SOL     OW88683   3.597   5.776   9.809
28929SOL    HW188684   3.592   5.782   9.713
28929SOL    HW288685   3.507   5.786   9.838
28930SOL     OW88686   3.437  10.576   1.111
28930SOL    HW188687   3.385  10.626   1.047
28930SOL    HW288688   3.410  10.485   1.098
28931SOL     OW88689  12.586  11.024   5.075
28931SOL    HW188690  12.567  11.047   4.984
28931SOL    HW288691  12.660  11.081   5.099
28932SOL     OW88692   8.579   4.322   8.310
28932SOL    HW188693   8.512   4.293   8.248
28932SOL    HW288694   8.530   4.373   8.376
28933SOL     OW88695   0.941   8.651   1.283
28933SOL    HW188696   0.920   8.566   1.320
28933SOL    HW288697   0.998   8.693   1.348
28934SOL     OW88698   9.010   6.028  12.969
28934SOL    HW188699   9.063   6.040  12.890
28934SOL    HW288700   9.073   6.001  13.036
28935SOL     OW88701  13.590  10.791   3.982
28935SOL    HW188702  13.580  10.809   4.075
28935SOL    HW288703  13.624  10.702   3.977
28936SOL     OW88704   2.406   2.940   2.978
28936SOL    HW188705   2.330   2.921   2.923
28936SOL    HW288706   2.375   3.007   3.039
28937SOL     OW88707   8.903  10.643   6.203
28937SOL    HW188708   8.833  10.703   6.226
28937SOL    HW288709   8.862  10.580   6.144
28938SOL     OW88710   0.847  12.795   1.510
28938SOL    HW188711   0.752  12.792   1.517
28938SOL    HW288712   0.873  12.704   1.496
28939SOL     OW88713   1.228   4.521  11.471
28939SOL    HW188714   1.192   4.589  11.528
28939SOL    HW288715   1.154   4.495  11.415
28940SOL     OW88716   1.929   6.519  13.828
28940SOL    HW188717   1.948   6.466  13.906
28940SOL    HW288718   1.842   6.490  13.801
28941SOL     OW88719  13.218   6.234   7.950
28941SOL    HW188720  13.225   6.311   7.895
28941SOL    HW288721  13.178   6.266   8.031
28942SOL     OW88722   3.202  10.647   3.825
28942SOL    HW188723   3.283  10.637   3.773
28942SOL    HW288724   3.232  10.649   3.915
28943SOL     OW88725  14.042   3.915   9.679
28943SOL    HW188726  14.131   3.942   9.704
28943SOL    HW288727  14.054   3.834   9.631
28944SOL     OW88728   4.258   7.509  13.304
28944SOL    HW188729   4.188   7.515  13.238
28944SOL    HW288730   4.211   7.507  13.388
28945SOL     OW88731   8.170   6.885   5.269
28945SOL    HW188732   8.147   6.975   5.246
28945SOL    HW288733   8.183   6.887   5.364
28946SOL     OW88734   1.243  14.082  14.302
28946SOL    HW188735   1.282  14.159  14.342
28946SOL    HW288736   1.177  14.053  14.365
28947SOL     OW88737   5.012   9.910   8.996
28947SOL    HW188738   5.017   9.821   8.960
28947SOL    HW288739   5.060   9.905   9.079
28948SOL     OW88740   4.395   7.260   9.939
28948SOL    HW188741   4.490   7.253   9.925
28948SOL    HW288742   4.385   7.340   9.991
28949SOL     OW88743  14.549   1.146   7.183
28949SOL    HW188744  14.499   1.221   7.213
28949SOL    HW288745  14.572   1.099   7.263
28950SOL     OW88746   2.835   9.716   6.997
28950SOL    HW188747   2.769   9.648   7.012
28950SOL    HW288748   2.918   9.674   7.016
28951SOL     OW88749  10.424  11.687   0.795
28951SOL    HW188750  10.501  11.691   0.852
28951SOL    HW288751  10.441  11.752   0.727
28952SOL     OW88752   6.416   9.614   7.459
28952SOL    HW188753   6.499   9.643   7.423
28952SOL    HW288754   6.386   9.545   7.398
28953SOL     OW88755   3.006   3.004   2.887
28953SOL    HW188756   3.061   3.022   2.810
28953SOL    HW288757   2.920   3.038   2.863
28954SOL     OW88758   6.377   0.828  12.228
28954SOL    HW188759   6.372   0.826  12.324
28954SOL    HW288760   6.453   0.884  12.210
28955SOL     OW88761  10.322  13.089   1.347
28955SOL    HW188762  10.322  13.184   1.347
28955SOL    HW288763  10.360  13.064   1.431
28956SOL     OW88764  12.008   3.687   8.966
28956SOL    HW188765  11.985   3.747   8.895
28956SOL    HW288766  12.085   3.727   9.007
28957SOL     OW88767   8.491   7.789   0.117
28957SOL    HW188768   8.478   7.819   0.207
28957SOL    HW288769   8.435   7.712   0.109
28958SOL     OW88770   2.512   3.610   7.954
28958SOL    HW188771   2.576   3.539   7.951
28958SOL    HW288772   2.562   3.690   7.938
28959SOL     OW88773   3.535   6.238   7.714
28959SOL    HW188774   3.591   6.208   7.642
28959SOL    HW288775   3.497   6.158   7.749
28960SOL     OW88776   7.530   7.156  10.111
28960SOL    HW188777   7.596   7.146  10.043
28960SOL    HW288778   7.485   7.071  10.113
28961SOL     OW88779  12.917   6.192   9.261
28961SOL    HW188780  12.871   6.215   9.181
28961SOL    HW288781  12.968   6.270   9.282
28962SOL     OW88782   4.513  10.762  10.762
28962SOL    HW188783   4.427  10.782  10.799
28962SOL    HW288784   4.574  10.786  10.832
28963SOL     OW88785  13.855   3.344   6.815
28963SOL    HW188786  13.851   3.290   6.736
28963SOL    HW288787  13.769   3.335   6.856
28964SOL     OW88788   7.569   0.229   3.375
28964SOL    HW188789   7.503   0.243   3.308
28964SOL    HW288790   7.579   0.314   3.417
28965SOL     OW88791  13.525   7.260  12.259
28965SOL    HW188792  13.487   7.337  12.216
28965SOL    HW288793  13.618   7.281  12.266
28966SOL     OW88794   0.581  13.174   0.662
28966SOL    HW188795   0.535  13.229   0.599
28966SOL    HW288796   0.661  13.147   0.617
28967SOL     OW88797   1.383   6.030   2.700
28967SOL    HW188798   1.352   6.114   2.732
28967SOL    HW288799   1.313   5.968   2.721
28968SOL     OW88800   5.694   9.203   9.453
28968SOL    HW188801   5.624   9.176   9.512
28968SOL    HW288802   5.656   9.274   9.401
28969SOL     OW88803   8.290   4.530  10.853
28969SOL    HW188804   8.377   4.511  10.888
28969SOL    HW288805   8.304   4.602  10.791
28970SOL     OW88806   4.639   8.760  13.572
28970SOL    HW188807   4.573   8.736  13.506
28970SOL    HW288808   4.631   8.855  13.580
28971SOL     OW88809   1.524  12.280  13.810
28971SOL    HW188810   1.496  12.335  13.883
28971SOL    HW288811   1.459  12.298  13.741
28972SOL     OW88812  11.411   4.427   5.123
28972SOL    HW188813  11.463   4.426   5.043
28972SOL    HW288814  11.322   4.449   5.095
28973SOL     OW88815  12.490   8.569   6.419
28973SOL    HW188816  12.469   8.556   6.511
28973SOL    HW288817  12.454   8.492   6.375
28974SOL     OW88818  11.820   7.574   1.712
28974SOL    HW188819  11.863   7.512   1.772
28974SOL    HW288820  11.846   7.545   1.625
28975SOL     OW88821   9.577  14.694   1.755
28975SOL    HW188822   9.546  14.707   1.665
28975SOL    HW288823   9.504  14.651   1.799
28976SOL     OW88824   3.107   9.537   3.589
28976SOL    HW188825   3.093   9.464   3.649
28976SOL    HW288826   3.143   9.496   3.510
28977SOL     OW88827   7.209   1.492  11.487
28977SOL    HW188828   7.229   1.564  11.428
28977SOL    HW288829   7.148   1.437  11.437
28978SOL     OW88830   5.826   2.274   2.467
28978SOL    HW188831   5.796   2.363   2.448
28978SOL    HW288832   5.909   2.267   2.421
28979SOL     OW88833   8.597   5.407  13.016
28979SOL    HW188834   8.691   5.395  13.025
28979SOL    HW288835   8.576   5.369  12.931
28980SOL     OW88836   6.843   5.711  12.854
28980SOL    HW188837   6.860   5.721  12.761
28980SOL    HW288838   6.790   5.787  12.877
28981SOL     OW88839   6.525  13.587   7.620
28981SOL    HW188840   6.488  13.605   7.707
28981SOL    HW288841   6.480  13.508   7.591
28982SOL     OW88842   4.984   4.921   4.999
28982SOL    HW188843   4.974   5.009   5.036
28982SOL    HW288844   5.070   4.892   5.029
28983SOL     OW88845   7.146   2.852   1.014
28983SOL    HW188846   7.217   2.903   0.975
28983SOL    HW288847   7.092   2.827   0.939
28984SOL     OW88848  14.818   6.241   9.314
28984SOL    HW188849  14.807   6.248   9.219
28984SOL    HW288850  14.853   6.152   9.327
28985SOL     OW88851   4.107   2.882   1.046
28985SOL    HW188852   4.054   2.955   1.013
28985SOL    HW288853   4.138   2.912   1.131
28986SOL     OW88854   4.436   5.812   8.792
28986SOL    HW188855   4.466   5.777   8.876
28986SOL    HW288856   4.464   5.904   8.794
28987SOL     OW88857   3.873  12.284   8.223
28987SOL    HW188858   3.961  12.269   8.257
28987SOL    HW288859   3.827  12.201   8.239
28988SOL     OW88860  13.048   7.186   7.217
28988SOL    HW188861  13.082   7.267   7.255
28988SOL    HW288862  13.010   7.139   7.292
28989SOL     OW88863   5.569   8.944  14.647
28989SOL    HW188864   5.636   8.885  14.614
28989SOL    HW288865   5.527   8.896  14.718
28990SOL     OW88866  13.030  11.100  12.835
28990SOL    HW188867  12.976  11.022  12.844
28990SOL    HW288868  13.120  11.068  12.832
28991SOL     OW88869   7.652   6.310   6.535
28991SOL    HW188870   7.734   6.328   6.490
28991SOL    HW288871   7.590   6.288   6.465
28992SOL     OW88872   4.439  11.148  13.871
28992SOL    HW188873   4.502  11.182  13.934
28992SOL    HW288874   4.369  11.110  13.925
28993SOL     OW88875   7.356   6.130   8.732
28993SOL    HW188876   7.443   6.097   8.712
28993SOL    HW288877   7.348   6.211   8.682
28994SOL     OW88878   4.722  14.768  10.823
28994SOL    HW188879   4.688  14.711  10.892
28994SOL    HW288880   4.687  14.855  10.844
28995SOL     OW88881   8.118   3.419   5.326
28995SOL    HW188882   8.177   3.494   5.334
28995SOL    HW288883   8.165   3.347   5.368
28996SOL     OW88884  12.745   0.218   0.923
28996SOL    HW188885  12.712   0.210   1.013
28996SOL    HW288886  12.769   0.129   0.898
28997SOL     OW88887   9.931  14.831   3.804
28997SOL    HW188888  10.002  14.768   3.802
28997SOL    HW288889   9.856  14.784   3.767
28998SOL     OW88890  11.073  13.638   5.149
28998SOL    HW188891  11.078  13.721   5.101
28998SOL    HW288892  11.016  13.656   5.223
28999SOL     OW88893  10.703   3.518  12.362
28999SOL    HW188894  10.699   3.438  12.311
28999SOL    HW288895  10.638   3.576  12.323
29000SOL     OW88896   1.557   3.874   9.571
29000SOL    HW188897   1.550   3.859   9.477
29000SOL    HW288898   1.618   3.808   9.602
29001SOL     OW88899   3.720  14.146   5.492
29001SOL    HW188900   3.689  14.114   5.577
29001SOL    HW288901   3.658  14.110   5.429
29002SOL     OW88902   5.562   6.588   2.250
29002SOL    HW188903   5.496   6.623   2.310
29002SOL    HW288904   5.645   6.616   2.286
29003SOL     OW88905  14.561  14.653   8.973
29003SOL    HW188906  14.609  14.735   8.957
29003SOL    HW288907  14.574  14.603   8.893
29004SOL     OW88908   2.095   1.400   9.513
29004SOL    HW188909   2.189   1.417   9.501
29004SOL    HW288910   2.051   1.460   9.454
29005SOL     OW88911   1.847   4.175   2.671
29005SOL    HW188912   1.845   4.268   2.694
29005SOL    HW288913   1.810   4.172   2.582
29006SOL     OW88914   5.244   7.694   8.839
29006SOL    HW188915   5.233   7.785   8.867
29006SOL    HW288916   5.280   7.649   8.916
29007SOL     OW88917   5.107   3.722  10.367
29007SOL    HW188918   5.151   3.645  10.403
29007SOL    HW288919   5.056   3.756  10.440
29008SOL     OW88920   2.546  12.439   5.287
29008SOL    HW188921   2.621  12.393   5.326
29008SOL    HW288922   2.493  12.369   5.250
29009SOL     OW88923  10.312  10.950  14.299
29009SOL    HW188924  10.362  10.959  14.218
29009SOL    HW288925  10.223  10.933  14.270
29010SOL     OW88926   7.602  11.484   8.408
29010SOL    HW188927   7.550  11.408   8.432
29010SOL    HW288928   7.538  11.554   8.394
29011SOL     OW88929   8.379   7.661  13.670
29011SOL    HW188930   8.342   7.692  13.588
29011SOL    HW288931   8.438   7.731  13.698
29012SOL     OW88932   7.037   9.232   9.869
29012SOL    HW188933   7.088   9.290   9.926
29012SOL    HW288934   6.967   9.287   9.836
29013SOL     OW88935   3.749  13.768  11.581
29013SOL    HW188936   3.723  13.700  11.519
29013SOL    HW288937   3.667  13.796  11.621
29014SOL     OW88938  12.145   9.211   5.904
29014SOL    HW188939  12.050   9.209   5.915
29014SOL    HW288940  12.158   9.227   5.811
29015SOL     OW88941   7.186   7.050   6.150
29015SOL    HW188942   7.239   7.089   6.219
29015SOL    HW288943   7.197   7.108   6.075
29016SOL     OW88944   6.493   0.763   7.210
29016SOL    HW188945   6.544   0.685   7.186
29016SOL    HW288946   6.411   0.753   7.162
29017SOL     OW88947  13.739   2.078   6.561
29017SOL    HW188948  13.698   2.104   6.479
29017SOL    HW288949  13.777   2.159   6.596
29018SOL     OW88950   9.445  12.821   5.595
29018SOL    HW188951   9.393  12.870   5.531
29018SOL    HW288952   9.526  12.873   5.604
29019SOL     OW88953   6.189   8.084  10.523
29019SOL    HW188954   6.126   8.029  10.569
29019SOL    HW288955   6.222   8.029  10.452
29020SOL     OW88956   6.523   4.867   8.199
29020SOL    HW188957   6.526   4.797   8.265
29020SOL    HW288958   6.431   4.895   8.199
29021SOL     OW88959   5.292   4.380  11.158
29021SOL    HW188960   5.317   4.369  11.067
29021SOL    HW288961   5.373   4.405  11.203
29022SOL     OW88962   4.061   2.054   0.545
29022SOL    HW188963   4.092   2.129   0.596
29022SOL    HW288964   4.020   2.092   0.468
29023SOL     OW88965  11.929   4.386  11.308
29023SOL    HW188966  11.927   4.376  11.403
29023SOL    HW288967  11.856   4.444  11.288
29024SOL     OW88968   1.396   4.404  10.843
29024SOL    HW188969   1.377   4.472  10.907
29024SOL    HW288970   1.467   4.441  10.790
29025SOL     OW88971  11.455   8.202   2.613
29025SOL    HW188972  11.421   8.224   2.526
29025SOL    HW288973  11.382   8.158   2.657
29026SOL     OW88974   9.838   5.526   1.374
29026SOL    HW188975   9.818   5.439   1.408
29026SOL    HW288976   9.925   5.516   1.333
29027SOL     OW88977   1.484   6.552   6.943
29027SOL    HW188978   1.389   6.552   6.959
29027SOL    HW288979   1.500   6.635   6.897
29028SOL     OW88980  12.030  14.094   3.962
29028SOL    HW188981  12.121  14.107   3.934
29028SOL    HW288982  11.981  14.162   3.916
29029SOL     OW88983   4.578  13.313   6.716
29029SOL    HW188984   4.650  13.305   6.779
29029SOL    HW288985   4.620  13.306   6.631
29030SOL     OW88986  11.771   8.602  14.832
29030SOL    HW188987  11.806   8.653   0.023
29030SOL    HW288988  11.692   8.649  14.805
29031SOL     OW88989   2.486  12.495   2.986
29031SOL    HW188990   2.452  12.505   2.898
29031SOL    HW288991   2.465  12.404   3.010
29032SOL     OW88992   6.398   7.528   6.802
29032SOL    HW188993   6.395   7.517   6.897
29032SOL    HW288994   6.482   7.491   6.777
29033SOL     OW88995  14.700   1.338   3.818
29033SOL    HW188996  14.762   1.410   3.813
29033SOL    HW288997  14.625   1.374   3.866
29034SOL     OW88998  12.751   1.562   0.553
29034SOL    HW188999  12.703   1.480   0.568
29034SOL    HW289000  12.754   1.571   0.458
29035SOL     OW89001  10.830  12.886  10.927
29035SOL    HW189002  10.808  12.823  10.859
29035SOL    HW289003  10.878  12.835  10.992
29036SOL     OW89004   6.685  12.247   4.640
29036SOL    HW189005   6.703  12.185   4.570
29036SOL    HW289006   6.689  12.333   4.598
29037SOL     OW89007  12.863   3.025  13.156
29037SOL    HW189008  12.897   2.989  13.074
29037SOL    HW289009  12.903   2.972  13.224
29038SOL     OW89010   6.637  10.125   8.800
29038SOL    HW189011   6.709  10.114   8.738
29038SOL    HW289012   6.655  10.208   8.843
29039SOL     OW89013   4.071  14.458  10.385
29039SOL    HW189014   4.058  14.429  10.476
29039SOL    HW289015   4.102  14.379  10.340
29040SOL     OW89016   7.292   4.385  10.856
29040SOL    HW189017   7.370   4.329  10.851
29040SOL    HW289018   7.263   4.377  10.946
29041SOL     OW89019   0.729   9.852   3.792
29041SOL    HW189020   0.740   9.875   3.884
29041SOL    HW289021   0.653   9.795   3.790
29042SOL     OW89022   3.783   0.435  11.439
29042SOL    HW189023   3.776   0.360  11.380
29042SOL    HW289024   3.692   0.459  11.457
29043SOL     OW89025   4.829   0.430   8.969
29043SOL    HW189026   4.735   0.448   8.973
29043SOL    HW289027   4.867   0.484   9.038
29044SOL     OW89028   4.760  11.259   1.764
29044SOL    HW189029   4.818  11.321   1.808
29044SOL    HW289030   4.707  11.312   1.706
29045SOL     OW89031   5.819  12.482   2.174
29045SOL    HW189032   5.889  12.456   2.113
29045SOL    HW289033   5.777  12.399   2.198
29046SOL     OW89034  10.543  10.135   8.152
29046SOL    HW189035  10.585  10.113   8.235
29046SOL    HW289036  10.452  10.107   8.163
29047SOL     OW89037   0.643   1.354   4.650
29047SOL    HW189038   0.735   1.356   4.623
29047SOL    HW289039   0.622   1.261   4.655
29048SOL     OW89040   4.778  12.171   7.348
29048SOL    HW189041   4.842  12.121   7.298
29048SOL    HW289042   4.712  12.196   7.284
29049SOL     OW89043  12.116  13.968   9.924
29049SOL    HW189044  12.169  13.889   9.914
29049SOL    HW289045  12.072  13.958  10.008
29050SOL     OW89046  12.934   1.928   5.613
29050SOL    HW189047  12.858   1.964   5.568
29050SOL    HW289048  12.954   1.991   5.682
29051SOL     OW89049   7.628   3.740   5.782
29051SOL    HW189050   7.537   3.754   5.808
29051SOL    HW289051   7.657   3.825   5.748
29052SOL     OW89052   3.381  12.699   4.755
29052SOL    HW189053   3.456  12.759   4.749
29052SOL    HW289054   3.371  12.683   4.849
29053SOL     OW89055   0.872   0.780   5.029
29053SOL    HW189056   0.782   0.815   5.033
29053SOL    HW289057   0.864   0.690   5.059
29054SOL     OW89058   5.173   6.689   0.698
29054SOL    HW189059   5.172   6.685   0.794
29054SOL    HW289060   5.096   6.741   0.676
29055SOL     OW89061   2.342  10.238   9.750
29055SOL    HW189062   2.420  10.284   9.720
29055SOL    HW289063   2.282  10.307   9.778
29056SOL     OW89064   0.965   7.858   9.052
29056SOL    HW189065   0.927   7.943   9.028
29056SOL    HW289066   0.992   7.819   8.969
29057SOL     OW89067   1.362   8.796  13.707
29057SOL    HW189068   1.295   8.736  13.674
29057SOL    HW289069   1.312   8.866  13.749
29058SOL     OW89070  14.435   1.931  13.957
29058SOL    HW189071  14.365   1.872  13.981
29058SOL    HW289072  14.515   1.879  13.966
29059SOL     OW89073   9.712  11.279  13.294
29059SOL    HW189074   9.723  11.223  13.217
29059SOL    HW289075   9.713  11.368  13.260
29060SOL     OW89076   6.245  13.087  10.860
29060SOL    HW189077   6.197  13.013  10.823
29060SOL    HW289078   6.189  13.121  10.929
29061SOL     OW89079   9.444   2.950  10.405
29061SOL    HW189080   9.423   3.023  10.462
29061SOL    HW289081   9.376   2.951  10.338
29062SOL     OW89082  10.006   5.502  14.673
29062SOL    HW189083  10.065   5.427  14.685
29062SOL    HW289084  10.029   5.537  14.587
29063SOL     OW89085   1.333   7.618   5.727
29063SOL    HW189086   1.322   7.623   5.632
29063SOL    HW289087   1.299   7.702   5.759
29064SOL     OW89088   9.137  12.101   1.977
29064SOL    HW189089   9.073  12.032   1.961
29064SOL    HW289090   9.100  12.152   2.049
29065SOL     OW89091  13.603  10.687  13.211
29065SOL    HW189092  13.526  10.697  13.267
29065SOL    HW289093  13.669  10.745  13.249
29066SOL     OW89094  14.707   1.544   6.238
29066SOL    HW189095  14.672   1.505   6.158
29066SOL    HW289096  14.796   1.571   6.216
29067SOL     OW89097   6.658  14.587   5.279
29067SOL    HW189098   6.641  14.569   5.372
29067SOL    HW289099   6.727  14.525   5.255
29068SOL     OW89100  14.395   4.368   5.811
29068SOL    HW189101  14.436   4.452   5.789
29068SOL    HW289102  14.465   4.317   5.851
29069SOL     OW89103   9.766  11.648   7.200
29069SOL    HW189104   9.807  11.683   7.121
29069SOL    HW289105   9.676  11.628   7.173
29070SOL     OW89106  14.647  11.451   1.222
29070SOL    HW189107  14.693  11.368   1.235
29070SOL    HW289108  14.627  11.454   1.129
29071SOL     OW89109   1.735  13.740  14.159
29071SOL    HW189110   1.807  13.693  14.117
29071SOL    HW289111   1.766  13.830  14.167
29072SOL     OW89112   4.446   0.637   0.581
29072SOL    HW189113   4.511   0.703   0.558
29072SOL    HW289114   4.463   0.564   0.521
29073SOL     OW89115   0.883   4.624   0.590
29073SOL    HW189116   0.904   4.688   0.658
29073SOL    HW289117   0.796   4.593   0.611
29074SOL     OW89118  13.573   8.886   8.402
29074SOL    HW189119  13.585   8.837   8.320
29074SOL    HW289120  13.661   8.917   8.424
29075SOL     OW89121   3.426   0.877  10.493
29075SOL    HW189122   3.482   0.806  10.463
29075SOL    HW289123   3.351   0.876  10.433
29076SOL     OW89124   6.047  14.045   7.908
29076SOL    HW189125   6.087  14.078   7.827
29076SOL    HW289126   6.113  14.060   7.975
29077SOL     OW89127  11.346   2.179   0.415
29077SOL    HW189128  11.422   2.199   0.360
29077SOL    HW289129  11.289   2.126   0.359
29078SOL     OW89130   0.444   2.608  13.900
29078SOL    HW189131   0.418   2.621  13.991
29078SOL    HW289132   0.388   2.537  13.868
29079SOL     OW89133   2.315  14.634   6.806
29079SOL    HW189134   2.298  14.604   6.895
29079SOL    HW289135   2.296  14.728   6.807
29080SOL     OW89136  14.766  13.432   4.923
29080SOL    HW189137  14.856  13.409   4.898
29080SOL    HW289138  14.727  13.348   4.948
29081SOL     OW89139  11.674   2.764   1.328
29081SOL    HW189140  11.583   2.778   1.354
29081SOL    HW289141  11.724   2.777   1.409
29082SOL     OW89142   0.982  11.714   9.167
29082SOL    HW189143   0.967  11.620   9.152
29082SOL    HW289144   1.035  11.742   9.092
29083SOL     OW89145   3.616  12.008   6.493
29083SOL    HW189146   3.668  12.028   6.415
29083SOL    HW289147   3.526  12.028   6.467
29084SOL     OW89148   8.147   9.997   4.244
29084SOL    HW189149   8.171  10.070   4.187
29084SOL    HW289150   8.231   9.958   4.271
29085SOL     OW89151   0.828  11.121  11.896
29085SOL    HW189152   0.835  11.034  11.937
29085SOL    HW289153   0.830  11.103  11.802
29086SOL     OW89154   7.342   8.042   1.818
29086SOL    HW189155   7.295   8.109   1.869
29086SOL    HW289156   7.350   7.968   1.879
29087SOL     OW89157   0.980   0.644  13.195
29087SOL    HW189158   1.016   0.608  13.114
29087SOL    HW289159   0.886   0.629  13.189
29088SOL     OW89160   2.936   1.926  11.434
29088SOL    HW189161   2.952   1.865  11.362
29088SOL    HW289162   2.940   2.013  11.395
29089SOL     OW89163   9.887   5.115  13.290
29089SOL    HW189164   9.868   5.028  13.255
29089SOL    HW289165   9.947   5.098  13.363
29090SOL     OW89166   0.561   6.399  13.997
29090SOL    HW189167   0.637   6.355  14.034
29090SOL    HW289168   0.494   6.331  13.989
29091SOL     OW89169  14.289   2.487   3.173
29091SOL    HW189170  14.323   2.480   3.084
29091SOL    HW289171  14.303   2.578   3.198
29092SOL     OW89172  12.968   4.917   5.031
29092SOL    HW189173  13.048   4.891   4.985
29092SOL    HW289174  12.947   4.842   5.086
29093SOL     OW89175  10.227   1.871   8.928
29093SOL    HW189176  10.277   1.789   8.924
29093SOL    HW289177  10.278   1.931   8.874
29094SOL     OW89178  12.999  12.687  10.606
29094SOL    HW189179  13.019  12.698  10.699
29094SOL    HW289180  13.047  12.757  10.563
29095SOL     OW89181  13.118   9.894   7.225
29095SOL    HW189182  13.031   9.893   7.184
29095SOL    HW289183  13.179   9.906   7.153
29096SOL     OW89184   8.195  12.464   9.639
29096SOL    HW189185   8.145  12.489   9.562
29096SOL    HW289186   8.283  12.498   9.623
29097SOL     OW89187   7.639  13.182   0.510
29097SOL    HW189188   7.667  13.106   0.561
29097SOL    HW289189   7.677  13.257   0.557
29098SOL     OW89190   1.800  13.861  10.783
29098SOL    HW189191   1.801  13.905  10.868
29098SOL    HW289192   1.746  13.917  10.727
29099SOL     OW89193   7.139   7.669  11.956
29099SOL    HW189194   7.211   7.660  11.894
29099SOL    HW289195   7.118   7.579  11.982
29100SOL     OW89196  10.319   7.823   8.226
29100SOL    HW189197  10.251   7.882   8.195
29100SOL    HW289198  10.388   7.880   8.259
29101SOL     OW89199  13.324   3.540   9.537
29101SOL    HW189200  13.247   3.545   9.593
29101SOL    HW289201  13.392   3.502   9.592
29102SOL     OW89202  13.933   9.796   4.586
29102SOL    HW189203  13.956   9.820   4.676
29102SOL    HW289204  14.016   9.790   4.540
29103SOL     OW89205   8.460  11.842   1.647
29103SOL    HW189206   8.546  11.880   1.629
29103SOL    HW289207   8.399  11.892   1.593
29104SOL     OW89208   7.392   4.536   6.654
29104SOL    HW189209   7.365   4.520   6.744
29104SOL    HW289210   7.459   4.604   6.661
29105SOL     OW89211   7.289   3.631   5.005
29105SOL    HW189212   7.371   3.597   5.041
29105SOL    HW289213   7.232   3.554   4.997
29106SOL     OW89214   6.356  10.816  10.954
29106SOL    HW189215   6.338  10.909  10.966
29106SOL    HW289216   6.296  10.789  10.885
29107SOL     OW89217   5.167  12.054  14.703
29107SOL    HW189218   5.182  12.053  14.608
29107SOL    HW289219   5.075  12.078  14.712
29108SOL     OW89220   2.979   6.685  10.258
29108SOL    HW189221   3.057   6.662  10.207
29108SOL    HW289222   2.913   6.709  10.193
29109SOL     OW89223  10.633   8.284   2.009
29109SOL    HW189224  10.631   8.256   1.918
29109SOL    HW289225  10.549   8.327   2.022
29110SOL     OW89226   9.875  14.829   2.632
29110SOL    HW189227   9.825  14.807   2.710
29110SOL    HW289228   9.808  14.855   2.567
29111SOL     OW89229  10.270   5.253   3.461
29111SOL    HW189230  10.290   5.326   3.519
29111SOL    HW289231  10.355   5.209   3.447
29112SOL     OW89232  13.611  10.384  12.472
29112SOL    HW189233  13.535  10.399  12.528
29112SOL    HW289234  13.679  10.441  12.507
29113SOL     OW89235   4.090  13.659   9.164
29113SOL    HW189236   4.091  13.567   9.138
29113SOL    HW289237   4.182  13.681   9.178
29114SOL     OW89238  11.578   9.239   2.298
29114SOL    HW189239  11.597   9.149   2.325
29114SOL    HW289240  11.565   9.286   2.380
29115SOL     OW89241   7.436   5.858  10.766
29115SOL    HW189242   7.407   5.885  10.679
29115SOL    HW289243   7.394   5.773  10.780
29116SOL     OW89244   5.477   8.637   3.301
29116SOL    HW189245   5.544   8.661   3.364
29116SOL    HW289246   5.395   8.641   3.351
29117SOL     OW89247   2.868  11.611   7.542
29117SOL    HW189248   2.776  11.638   7.535
29117SOL    HW289249   2.872  11.527   7.496
29118SOL     OW89250   8.765   0.879   4.458
29118SOL    HW189251   8.798   0.793   4.433
29118SOL    HW289252   8.696   0.862   4.522
29119SOL     OW89253  11.471   5.915   5.367
29119SOL    HW189254  11.520   5.834   5.352
29119SOL    HW289255  11.389   5.887   5.408
29120SOL     OW89256  13.508  11.481   3.133
29120SOL    HW189257  13.566  11.492   3.058
29120SOL    HW289258  13.448  11.555   3.129
29121SOL     OW89259  11.665   7.534   5.453
29121SOL    HW189260  11.748   7.574   5.429
29121SOL    HW289261  11.689   7.457   5.504
29122SOL     OW89262   6.413   3.986   5.222
29122SOL    HW189263   6.385   3.966   5.312
29122SOL    HW289264   6.349   4.051   5.192
29123SOL     OW89265  14.732   6.948   4.252
29123SOL    HW189266  14.747   7.041   4.267
29123SOL    HW289267  14.637   6.938   4.251
29124SOL     OW89268   7.404   1.847   7.962
29124SOL    HW189269   7.364   1.880   8.042
29124SOL    HW289270   7.357   1.767   7.943
29125SOL     OW89271   3.832   9.516   5.645
29125SOL    HW189272   3.848   9.484   5.556
29125SOL    HW289273   3.767   9.455   5.681
29126SOL     OW89274  14.224   9.004   0.795
29126SOL    HW189275  14.305   9.053   0.776
29126SOL    HW289276  14.238   8.918   0.756
29127SOL     OW89277   3.715   0.760   9.844
29127SOL    HW189278   3.625   0.794   9.843
29127SOL    HW289279   3.759   0.812   9.911
29128SOL     OW89280   4.550   4.585   8.130
29128SOL    HW189281   4.595   4.602   8.047
29128SOL    HW289282   4.620   4.554   8.188
29129SOL     OW89283  12.628  13.411  13.864
29129SOL    HW189284  12.583  13.348  13.808
29129SOL    HW289285  12.713  13.371  13.882
29130SOL     OW89286  12.806   1.736  14.133
29130SOL    HW189287  12.796   1.779  14.218
29130SOL    HW289288  12.766   1.650  14.146
29131SOL     OW89289   8.272   8.935   3.455
29131SOL    HW189290   8.235   8.847   3.465
29131SOL    HW289291   8.277   8.969   3.544
29132SOL     OW89292   3.640   0.118   9.439
29132SOL    HW189293   3.657   0.023   9.434
29132SOL    HW289294   3.570   0.126   9.504
29133SOL     OW89295   5.948   0.971   7.926
29133SOL    HW189296   5.968   1.008   7.840
29133SOL    HW289297   6.026   0.987   7.979
29134SOL     OW89298  10.976   6.374   8.190
29134SOL    HW189299  10.942   6.464   8.195
29134SOL    HW289300  10.955   6.345   8.102
29135SOL     OW89301  14.230   9.572  14.074
29135SOL    HW189302  14.226   9.585  13.979
29135SOL    HW289303  14.236   9.477  14.086
29136SOL     OW89304   1.362   6.670   7.443
29136SOL    HW189305   1.373   6.728   7.368
29136SOL    HW289306   1.443   6.619   7.446
29137SOL     OW89307   2.684  10.692  13.827
29137SOL    HW189308   2.776  10.701  13.849
29137SOL    HW289309   2.649  10.633  13.894
29138SOL     OW89310  13.810  10.897   3.261
29138SOL    HW189311  13.722  10.876   3.228
29138SOL    HW289312  13.798  10.910   3.355
29139SOL     OW89313   7.488  13.759   9.845
29139SOL    HW189314   7.537  13.820   9.789
29139SOL    HW289315   7.545  13.682   9.851
29140SOL     OW89316   5.951  11.879  11.140
29140SOL    HW189317   5.924  11.789  11.126
29140SOL    HW289318   5.895  11.910  11.212
29141SOL     OW89319  14.872  11.668  10.903
29141SOL    HW189320   0.069  11.720  10.921
29141SOL    HW289321   0.017  11.605  10.836
29142SOL     OW89322   6.023   0.556  13.819
29142SOL    HW189323   6.113   0.536  13.844
29142SOL    HW289324   6.021   0.545  13.724
29143SOL     OW89325   1.263  14.746   8.641
29143SOL    HW189326   1.324  14.672   8.634
29143SOL    HW289327   1.312  14.812   8.691
29144SOL     OW89328   4.715   1.005   2.642
29144SOL    HW189329   4.782   0.984   2.708
29144SOL    HW289330   4.636   0.961   2.674
29145SOL     OW89331   0.989   0.202   5.726
29145SOL    HW189332   0.937   0.127   5.697
29145SOL    HW289333   0.925   0.264   5.760
29146SOL     OW89334   3.434   2.307   8.496
29146SOL    HW189335   3.468   2.293   8.408
29146SOL    HW289336   3.341   2.322   8.484
29147SOL     OW89337   4.001   3.093  14.698
29147SOL    HW189338   3.987   3.139  14.781
29147SOL    HW289339   3.978   3.002  14.717
29148SOL     OW89340   1.965   5.656  14.637
29148SOL    HW189341   1.983   5.578  14.691
29148SOL    HW289342   2.046   5.670  14.588
29149SOL     OW89343   7.703   2.485   9.710
29149SOL    HW189344   7.772   2.446   9.656
29149SOL    HW289345   7.649   2.411   9.738
29150SOL     OW89346   7.633  10.237   4.489
29150SOL    HW189347   7.599  10.265   4.404
29150SOL    HW289348   7.592  10.152   4.505
29151SOL     OW89349  10.870  13.234   4.721
29151SOL    HW189350  10.779  13.260   4.736
29151SOL    HW289351  10.882  13.156   4.775
29152SOL     OW89352   2.923  12.100  12.276
29152SOL    HW189353   2.943  12.112  12.183
29152SOL    HW289354   2.828  12.100  12.280
29153SOL     OW89355   9.105  11.166   2.619
29153SOL    HW189356   9.044  11.159   2.545
29153SOL    HW289357   9.056  11.214   2.686
29154SOL     OW89358   7.403  11.612   7.295
29154SOL    HW189359   7.414  11.608   7.390
29154SOL    HW289360   7.485  11.578   7.260
29155SOL     OW89361   8.147  13.286   1.313
29155SOL    HW189362   8.133  13.330   1.397
29155SOL    HW289363   8.093  13.207   1.318
29156SOL     OW89364   2.563   9.589   5.826
29156SOL    HW189365   2.522   9.515   5.781
29156SOL    HW289366   2.501   9.662   5.815
29157SOL     OW89367   1.297   4.072   5.330
29157SOL    HW189368   1.375   4.068   5.275
29157SOL    HW289369   1.232   4.118   5.277
29158SOL     OW89370   4.840   2.653   4.561
29158SOL    HW189371   4.796   2.590   4.504
29158SOL    HW289372   4.932   2.628   4.557
29159SOL     OW89373   3.536   2.985  12.645
29159SOL    HW189374   3.560   3.053  12.709
29159SOL    HW289375   3.517   3.034  12.565
29160SOL     OW89376  14.856  10.055   2.222
29160SOL    HW189377  14.838  10.024   2.311
29160SOL    HW289378  14.830  10.147   2.223
29161SOL     OW89379   4.883   7.846   3.887
29161SOL    HW189380   4.929   7.799   3.818
29161SOL    HW289381   4.932   7.825   3.967
29162SOL     OW89382   9.432  12.383   1.115
29162SOL    HW189383   9.465  12.468   1.084
29162SOL    HW289384   9.454  12.322   1.045
29163SOL     OW89385   1.481   0.258   1.726
29163SOL    HW189386   1.398   0.289   1.761
29163SOL    HW289387   1.492   0.170   1.761
29164SOL     OW89388   7.891  14.091   5.116
29164SOL    HW189389   7.924  14.150   5.183
29164SOL    HW289390   7.828  14.035   5.161
29165SOL     OW89391   2.594   1.584   8.619
29165SOL    HW189392   2.498   1.589   8.621
29165SOL    HW289393   2.617   1.539   8.700
29166SOL     OW89394   4.674   4.699  14.851
29166SOL    HW189395   4.740   4.731   0.030
29166SOL    HW289396   4.590   4.722   0.011
29167SOL     OW89397  11.400   2.941   7.590
29167SOL    HW189398  11.442   3.022   7.620
29167SOL    HW289399  11.430   2.874   7.650
29168SOL     OW89400   9.501  10.970  12.244
29168SOL    HW189401   9.503  11.061  12.274
29168SOL    HW289402   9.569  10.927  12.295
29169SOL     OW89403   7.540   3.564   4.650
29169SOL    HW189404   7.628   3.581   4.615
29169SOL    HW289405   7.550   3.573   4.745
29170SOL     OW89406  13.890  13.411   8.227
29170SOL    HW189407  13.944  13.460   8.289
29170SOL    HW289408  13.916  13.444   8.141
29171SOL     OW89409  13.846   5.956  13.776
29171SOL    HW189410  13.892   5.891  13.723
29171SOL    HW289411  13.764   5.913  13.801
29172SOL     OW89412  12.938   4.213  13.446
29172SOL    HW189413  13.028   4.197  13.420
29172SOL    HW289414  12.937   4.304  13.476
29173SOL     OW89415   3.465  14.320   2.420
29173SOL    HW189416   3.432  14.337   2.332
29173SOL    HW289417   3.418  14.381   2.476
29174SOL     OW89418  10.377   1.445   0.708
29174SOL    HW189419  10.409   1.495   0.784
29174SOL    HW289420  10.335   1.510   0.653
29175SOL     OW89421   1.994   4.839  10.996
29175SOL    HW189422   2.005   4.744  11.009
29175SOL    HW289423   2.076   4.877  11.027
29176SOL     OW89424   9.698  14.243  11.636
29176SOL    HW189425   9.609  14.216  11.658
29176SOL    HW289426   9.690  14.286  11.551
29177SOL     OW89427   0.479  12.601   3.509
29177SOL    HW189428   0.536  12.528   3.534
29177SOL    HW289429   0.506  12.622   3.420
29178SOL     OW89430   2.465  10.560   6.629
29178SOL    HW189431   2.393  10.610   6.589
29178SOL    HW289432   2.455  10.577   6.723
29179SOL     OW89433   4.446  12.392   7.826
29179SOL    HW189434   4.516  12.446   7.863
29179SOL    HW289435   4.486  12.306   7.811
29180SOL     OW89436  14.374  10.498  13.674
29180SOL    HW189437  14.368  10.593  13.676
29180SOL    HW289438  14.322  10.472  13.598
29181SOL     OW89439   9.142   0.915   6.888
29181SOL    HW189440   9.210   0.859   6.851
29181SOL    HW289441   9.190   0.991   6.922
29182SOL     OW89442  10.733  11.828   2.208
29182SOL    HW189443  10.721  11.742   2.248
29182SOL    HW289444  10.792  11.812   2.134
29183SOL     OW89445   0.413  14.535   6.129
29183SOL    HW189446   0.460  14.614   6.157
29183SOL    HW289447   0.478  14.485   6.079
29184SOL     OW89448   2.837   9.613   2.371
29184SOL    HW189449   2.771   9.598   2.438
29184SOL    HW289450   2.796   9.585   2.289
29185SOL     OW89451  14.095  12.780   9.901
29185SOL    HW189452  14.181  12.741   9.884
29185SOL    HW289453  14.054  12.721   9.965
29186SOL     OW89454   5.309   9.454   0.256
29186SOL    HW189455   5.303   9.504   0.338
29186SOL    HW289456   5.391   9.405   0.265
29187SOL     OW89457   3.186   1.301   6.586
29187SOL    HW189458   3.164   1.310   6.679
29187SOL    HW289459   3.107   1.329   6.540
29188SOL     OW89460   4.741   6.639  12.688
29188SOL    HW189461   4.780   6.610  12.605
29188SOL    HW289462   4.773   6.728  12.699
29189SOL     OW89463   4.392   2.593  12.463
29189SOL    HW189464   4.301   2.578  12.438
29189SOL    HW289465   4.431   2.506  12.463
29190SOL     OW89466   1.951  10.565   3.796
29190SOL    HW189467   1.894  10.540   3.869
29190SOL    HW289468   2.035  10.587   3.837
29191SOL     OW89469   0.462  12.449   6.551
29191SOL    HW189470   0.391  12.455   6.487
29191SOL    HW289471   0.533  12.405   6.504
29192SOL     OW89472  11.577   1.032   3.389
29192SOL    HW189473  11.504   0.970   3.388
29192SOL    HW289474  11.575   1.070   3.477
29193SOL     OW89475   8.751   8.717  10.097
29193SOL    HW189476   8.664   8.756  10.103
29193SOL    HW289477   8.810   8.793  10.094
29194SOL     OW89478   0.576   9.159   9.953
29194SOL    HW189479   0.489   9.120   9.951
29194SOL    HW289480   0.618   9.129   9.873
29195SOL     OW89481   1.043   9.440  13.413
29195SOL    HW189482   1.054   9.352  13.449
29195SOL    HW289483   1.085   9.498  13.477
29196SOL     OW89484   9.753  10.191   1.200
29196SOL    HW189485   9.659  10.179   1.208
29196SOL    HW289486   9.790  10.109   1.233
29197SOL     OW89487   0.851   8.015   6.166
29197SOL    HW189488   0.787   7.999   6.235
29197SOL    HW289489   0.917   7.946   6.178
29198SOL     OW89490   7.297   7.499  11.098
29198SOL    HW189491   7.242   7.427  11.131
29198SOL    HW289492   7.281   7.499  11.003
29199SOL     OW89493   6.198   1.801  12.553
29199SOL    HW189494   6.205   1.837  12.641
29199SOL    HW289495   6.250   1.721  12.555
29200SOL     OW89496   7.746  13.370  12.383
29200SOL    HW189497   7.838  13.363  12.359
29200SOL    HW289498   7.708  13.426  12.315
29201SOL     OW89499   8.408   7.106   4.355
29201SOL    HW189500   8.340   7.173   4.360
29201SOL    HW289501   8.418   7.089   4.261
29202SOL     OW89502  14.611   1.729   4.812
29202SOL    HW189503  14.666   1.804   4.836
29202SOL    HW289504  14.664   1.678   4.752
29203SOL     OW89505   0.427  11.189  13.838
29203SOL    HW189506   0.413  11.272  13.792
29203SOL    HW289507   0.494  11.208  13.903
29204SOL     OW89508   4.673   6.140   5.645
29204SOL    HW189509   4.715   6.096   5.571
29204SOL    HW289510   4.734   6.209   5.670
29205SOL     OW89511   3.185  14.420  12.043
29205SOL    HW189512   3.203  14.379  11.958
29205SOL    HW289513   3.147  14.350  12.096
29206SOL     OW89514   1.755  11.562   3.791
29206SOL    HW189515   1.771  11.566   3.696
29206SOL    HW289516   1.660  11.557   3.799
29207SOL     OW89517   8.870  13.344   3.572
29207SOL    HW189518   8.863  13.263   3.622
29207SOL    HW289519   8.856  13.318   3.481
29208SOL     OW89520   1.740  10.603  14.104
29208SOL    HW189521   1.722  10.689  14.064
29208SOL    HW289522   1.687  10.542  14.053
29209SOL     OW89523  12.677   0.994  12.496
29209SOL    HW189524  12.626   0.921  12.463
29209SOL    HW289525  12.612   1.059  12.523
29210SOL     OW89526   0.551   8.736  13.858
29210SOL    HW189527   0.562   8.779  13.943
29210SOL    HW289528   0.516   8.649  13.880
29211SOL     OW89529   4.777   2.613   5.517
29211SOL    HW189530   4.777   2.709   5.524
29211SOL    HW289531   4.867   2.591   5.492
29212SOL     OW89532   2.117   0.095   0.590
29212SOL    HW189533   2.206   0.081   0.557
29212SOL    HW289534   2.115   0.052   0.675
29213SOL     OW89535   1.821   8.652   6.962
29213SOL    HW189536   1.829   8.610   7.048
29213SOL    HW289537   1.730   8.681   6.959
29214SOL     OW89538  13.569  12.098   3.156
29214SOL    HW189539  13.632  12.159   3.120
29214SOL    HW289540  13.507  12.152   3.205
29215SOL     OW89541  10.403  13.234  13.179
29215SOL    HW189542  10.383  13.141  13.173
29215SOL    HW289543  10.351  13.274  13.109
29216SOL     OW89544  14.824  12.945   1.674
29216SOL    HW189545   0.002  12.941   1.748
29216SOL    HW289546  14.747  12.991   1.708
29217SOL     OW89547  14.407   8.774  14.115
29217SOL    HW189548  14.321   8.806  14.088
29217SOL    HW289549  14.412   8.685  14.080
29218SOL     OW89550  13.517   6.222  14.788
29218SOL    HW189551  13.423   6.217  14.770
29218SOL    HW289552  13.522   6.239   0.000
29219SOL     OW89553   3.283   9.639   5.602
29219SOL    HW189554   3.343   9.589   5.547
29219SOL    HW289555   3.211   9.579   5.621
29220SOL     OW89556  14.434   5.357   8.086
29220SOL    HW189557  14.522   5.396   8.087
29220SOL    HW289558  14.413   5.349   7.993
29221SOL     OW89559   4.719   7.203   8.845
29221SOL    HW189560   4.725   7.146   8.768
29221SOL    HW289561   4.804   7.194   8.888
29222SOL     OW89562   5.816  10.718  12.532
29222SOL    HW189563   5.831  10.779  12.460
29222SOL    HW289564   5.788  10.637  12.489
29223SOL     OW89565   6.828   9.669   1.684
29223SOL    HW189566   6.819   9.683   1.778
29223SOL    HW289567   6.911   9.621   1.675
29224SOL     OW89568  13.800  13.726   4.846
29224SOL    HW189569  13.883  13.716   4.894
29224SOL    HW289570  13.786  13.641   4.805
29225SOL     OW89571  13.729   2.134   4.856
29225SOL    HW189572  13.663   2.195   4.889
29225SOL    HW289573  13.678   2.057   4.830
29226SOL     OW89574   2.454   6.779   7.859
29226SOL    HW189575   2.497   6.713   7.913
29226SOL    HW289576   2.381   6.733   7.818
29227SOL     OW89577  10.999   9.528  12.186
29227SOL    HW189578  10.981   9.462  12.253
29227SOL    HW289579  10.913   9.551  12.151
29228SOL     OW89580   2.390   6.577   3.257
29228SOL    HW189581   2.375   6.666   3.225
29228SOL    HW289582   2.373   6.521   3.181
29229SOL     OW89583   2.432   3.634   2.469
29229SOL    HW189584   2.436   3.673   2.556
29229SOL    HW289585   2.443   3.708   2.409
29230SOL     OW89586   6.021   6.064   7.963
29230SOL    HW189587   5.986   6.152   7.978
29230SOL    HW289588   6.004   6.046   7.870
29231SOL     OW89589  12.662  12.056   1.049
29231SOL    HW189590  12.698  12.094   0.969
29231SOL    HW289591  12.591  11.999   1.018
29232SOL     OW89592   3.115  13.308   4.030
29232SOL    HW189593   3.138  13.289   4.121
29232SOL    HW289594   3.074  13.394   4.032
29233SOL     OW89595  12.209  11.886   5.902
29233SOL    HW189596  12.171  11.814   5.952
29233SOL    HW289597  12.219  11.851   5.813
29234SOL     OW89598   8.937  13.197   7.403
29234SOL    HW189599   8.860  13.254   7.413
29234SOL    HW289600   8.918  13.120   7.456
29235SOL     OW89601   5.928   5.182   3.771
29235SOL    HW189602   6.002   5.159   3.827
29235SOL    HW289603   5.877   5.245   3.822
29236SOL     OW89604  12.811   4.529  11.812
29236SOL    HW189605  12.815   4.506  11.719
29236SOL    HW289606  12.857   4.612  11.818
29237SOL     OW89607   3.434  11.490   7.032
29237SOL    HW189608   3.498  11.459   6.967
29237SOL    HW289609   3.463  11.579   7.054
29238SOL     OW89610   2.477  11.975  10.199
29238SOL    HW189611   2.549  11.981  10.261
29238SOL    HW289612   2.440  12.064  10.197
29239SOL     OW89613   1.444  10.889   7.495
29239SOL    HW189614   1.509  10.940   7.447
29239SOL    HW289615   1.475  10.891   7.586
29240SOL     OW89616   7.843   6.714   8.452
29240SOL    HW189617   7.877   6.649   8.390
29240SOL    HW289618   7.865   6.798   8.413
29241SOL     OW89619   8.829  11.607   4.079
29241SOL    HW189620   8.817  11.514   4.097
29241SOL    HW289621   8.752  11.649   4.118
29242SOL     OW89622  13.706   9.342   3.311
29242SOL    HW189623  13.796   9.363   3.286
29242SOL    HW289624  13.654   9.361   3.232
29243SOL     OW89625  10.121  14.017   2.438
29243SOL    HW189626  10.122  14.041   2.346
29243SOL    HW289627  10.197  14.061   2.476
29244SOL     OW89628   7.971   9.504  14.843
29244SOL    HW189629   8.022   9.437   0.008
29244SOL    HW289630   7.996   9.586   0.003
29245SOL     OW89631  14.085   8.100   1.703
29245SOL    HW189632  14.105   8.058   1.619
29245SOL    HW289633  14.170   8.109   1.746
29246SOL     OW89634   0.127  13.366   0.901
29246SOL    HW189635   0.042  13.323   0.907
29246SOL    HW289636   0.179  13.328   0.972
29247SOL     OW89637  14.107   6.498  13.562
29247SOL    HW189638  14.053   6.576  13.571
29247SOL    HW289639  14.048   6.431  13.528
29248SOL     OW89640   2.980   1.071  12.994
29248SOL    HW189641   3.025   0.988  12.978
29248SOL    HW289642   3.049   1.137  12.984
29249SOL     OW89643   7.446  12.862   9.194
29249SOL    HW189644   7.392  12.786   9.216
29249SOL    HW289645   7.385  12.926   9.159
29250SOL     OW89646   2.259   0.564  12.670
29250SOL    HW189647   2.272   0.508  12.747
29250SOL    HW289648   2.346   0.570  12.630
29251SOL     OW89649  11.954   0.156   7.317
29251SOL    HW189650  12.010   0.184   7.245
29251SOL    HW289651  11.877   0.213   7.312
29252SOL     OW89652   9.129  14.305   3.922
29252SOL    HW189653   9.061  14.239   3.940
29252SOL    HW289654   9.178  14.269   3.848
29253SOL     OW89655   0.752   1.926   8.194
29253SOL    HW189656   0.794   1.907   8.110
29253SOL    HW289657   0.763   1.846   8.245
29254SOL     OW89658   4.957  12.204  13.437
29254SOL    HW189659   5.049  12.227  13.445
29254SOL    HW289660   4.951  12.155  13.355
29255SOL     OW89661   3.707   8.617   1.928
29255SOL    HW189662   3.695   8.538   1.980
29255SOL    HW289663   3.683   8.689   1.986
29256SOL     OW89664  12.361   1.618  12.413
29256SOL    HW189665  12.298   1.690  12.418
29256SOL    HW289666  12.321   1.557  12.350
29257SOL     OW89667  11.724   9.982   4.092
29257SOL    HW189668  11.749   9.905   4.041
29257SOL    HW289669  11.636  10.004   4.060
29258SOL     OW89670   0.555   2.113  14.281
29258SOL    HW189671   0.536   2.073  14.196
29258SOL    HW289672   0.570   2.205  14.261
29259SOL     OW89673   1.124   3.207   8.964
29259SOL    HW189674   1.095   3.263   8.892
29259SOL    HW289675   1.217   3.192   8.947
29260SOL     OW89676   6.290  12.485   4.240
29260SOL    HW189677   6.354  12.536   4.290
29260SOL    HW289678   6.240  12.550   4.191
29261SOL     OW89679   9.101   0.223   1.055
29261SOL    HW189680   9.146   0.177   1.126
29261SOL    HW289681   9.037   0.279   1.099
29262SOL     OW89682   7.224  11.744   0.892
29262SOL    HW189683   7.238  11.785   0.978
29262SOL    HW289684   7.312  11.736   0.854
29263SOL     OW89685  10.398   8.046   0.169
29263SOL    HW189686  10.398   7.972   0.107
29263SOL    HW289687  10.475   8.031   0.224
29264SOL     OW89688   8.702   4.206  13.768
29264SOL    HW189689   8.664   4.285  13.807
29264SOL    HW289690   8.637   4.177  13.705
29265SOL     OW89691   6.688  11.832   3.566
29265SOL    HW189692   6.646  11.760   3.613
29265SOL    HW289693   6.648  11.829   3.479
29266SOL     OW89694   0.007   8.013   3.223
29266SOL    HW189695   0.067   7.994   3.295
29266SOL    HW289696   0.064   8.017   3.146
29267SOL     OW89697   1.459   2.411   7.889
29267SOL    HW189698   1.395   2.482   7.873
29267SOL    HW289699   1.485   2.383   7.802
29268SOL     OW89700   6.754   3.774   9.308
29268SOL    HW189701   6.678   3.812   9.351
29268SOL    HW289702   6.744   3.679   9.319
29269SOL     OW89703  13.100   3.129   4.387
29269SOL    HW189704  13.176   3.161   4.338
29269SOL    HW289705  13.137   3.085   4.463
29270SOL     OW89706   4.446   8.549   4.137
29270SOL    HW189707   4.411   8.575   4.222
29270SOL    HW289708   4.394   8.598   4.073
29271SOL     OW89709  13.404   5.388   5.475
29271SOL    HW189710  13.340   5.370   5.406
29271SOL    HW289711  13.485   5.348   5.443
29272SOL     OW89712   2.696  12.422  12.681
29272SOL    HW189713   2.610  12.385  12.698
29272SOL    HW289714   2.757  12.349  12.692
29273SOL     OW89715  11.291   8.195   4.518
29273SOL    HW189716  11.201   8.165   4.506
29273SOL    HW289717  11.332   8.186   4.432
29274SOL     OW89718   5.439   2.830   3.379
29274SOL    HW189719   5.369   2.808   3.317
29274SOL    HW289720   5.393   2.841   3.463
29275SOL     OW89721  12.735   4.096   6.057
29275SOL    HW189722  12.687   4.117   5.977
29275SOL    HW289723  12.802   4.034   6.030
29276SOL     OW89724   9.930   6.480  14.136
29276SOL    HW189725   9.935   6.521  14.050
29276SOL    HW289726   9.838   6.488  14.162
29277SOL     OW89727   7.301  10.231   9.172
29277SOL    HW189728   7.222  10.179   9.187
29277SOL    HW289729   7.346  10.231   9.257
29278SOL     OW89730  12.101   5.436  11.785
29278SOL    HW189731  12.145   5.517  11.760
29278SOL    HW289732  12.100   5.384  11.706
29279SOL     OW89733   0.221  10.886   6.139
29279SOL    HW189734   0.225  10.818   6.072
29279SOL    HW289735   0.312  10.914   6.151
29280SOL     OW89736   9.477  10.867   2.024
29280SOL    HW189737   9.530  10.791   1.999
29280SOL    HW289738   9.388  10.845   1.995
29281SOL     OW89739   2.471   3.778   6.797
29281SOL    HW189740   2.433   3.863   6.777
29281SOL    HW289741   2.453   3.764   6.890
29282SOL     OW89742   6.040   3.286  12.088
29282SOL    HW189743   6.102   3.336  12.140
29282SOL    HW289744   6.033   3.202  12.132
29283SOL     OW89745   1.969   6.707   4.210
29283SOL    HW189746   1.958   6.659   4.129
29283SOL    HW289747   1.905   6.669   4.270
29284SOL     OW89748   1.608   9.222   9.375
29284SOL    HW189749   1.576   9.172   9.300
29284SOL    HW289750   1.589   9.314   9.353
29285SOL     OW89751   6.754   8.605   5.966
29285SOL    HW189752   6.782   8.557   6.044
29285SOL    HW289753   6.713   8.684   6.000
29286SOL     OW89754  11.612  10.867  11.162
29286SOL    HW189755  11.563  10.934  11.113
29286SOL    HW289756  11.699  10.906  11.174
29287SOL     OW89757  13.162   7.083   1.055
29287SOL    HW189758  13.206   7.161   1.089
29287SOL    HW289759  13.073   7.090   1.090
29288SOL     OW89760  11.148  10.459   0.790
29288SOL    HW189761  11.193  10.526   0.738
29288SOL    HW289762  11.219  10.410   0.831
29289SOL     OW89763   6.321   9.497  11.898
29289SOL    HW189764   6.402   9.495  11.949
29289SOL    HW289765   6.294   9.405  11.892
29290SOL     OW89766   8.735   6.687   3.049
29290SOL    HW189767   8.818   6.733   3.062
29290SOL    HW289768   8.669   6.749   3.078
29291SOL     OW89769   4.051  10.784  12.604
29291SOL    HW189770   3.974  10.777  12.659
29291SOL    HW289771   4.120  10.816  12.663
29292SOL     OW89772  11.552   0.848   1.222
29292SOL    HW189773  11.479   0.889   1.269
29292SOL    HW289774  11.526   0.756   1.214
29293SOL     OW89775   9.071   8.223   7.425
29293SOL    HW189776   9.147   8.169   7.445
29293SOL    HW289777   9.100   8.281   7.355
29294SOL     OW89778   6.649   4.227  13.527
29294SOL    HW189779   6.697   4.304  13.497
29294SOL    HW289780   6.580   4.263  13.583
29295SOL     OW89781   2.695   4.679   0.198
29295SOL    HW189782   2.747   4.682   0.278
29295SOL    HW289783   2.623   4.619   0.219
29296SOL     OW89784   6.789   6.465   1.579
29296SOL    HW189785   6.707   6.512   1.561
29296SOL    HW289786   6.793   6.398   1.510
29297SOL     OW89787   5.275   9.996  10.593
29297SOL    HW189788   5.350   9.981  10.651
29297SOL    HW289789   5.231  10.072  10.630
29298SOL     OW89790  14.821  12.922   8.274
29298SOL    HW189791   0.005  12.857   8.300
29298SOL    HW289792  14.851  12.955   8.190
29299SOL     OW89793   2.763   5.034  14.461
29299SOL    HW189794   2.771   4.966  14.528
29299SOL    HW289795   2.700   5.096  14.497
29300SOL     OW89796  10.222  12.434  10.438
29300SOL    HW189797  10.165  12.471  10.371
29300SOL    HW289798  10.178  12.353  10.464
29301SOL     OW89799  12.501   4.462   6.335
29301SOL    HW189800  12.564   4.534   6.328
29301SOL    HW289801  12.432   4.496   6.391
29302SOL     OW89802   1.356   1.076   9.126
29302SOL    HW189803   1.362   1.070   9.221
29302SOL    HW289804   1.410   1.004   9.094
29303SOL     OW89805   0.631   5.264   0.281
29303SOL    HW189806   0.569   5.324   0.322
29303SOL    HW289807   0.674   5.220   0.355
29304SOL     OW89808  13.842   1.342   0.988
29304SOL    HW189809  13.892   1.387   1.056
29304SOL    HW289810  13.765   1.397   0.975
29305SOL     OW89811   9.438  11.062   7.625
29305SOL    HW189812   9.416  10.980   7.668
29305SOL    HW289813   9.532  11.053   7.604
29306SOL     OW89814  12.634   5.291  14.331
29306SOL    HW189815  12.576   5.275  14.405
29306SOL    HW289816  12.722   5.271  14.364
29307SOL     OW89817   1.566  12.671  13.760
29307SOL    HW189818   1.604  12.742  13.812
29307SOL    HW289819   1.635  12.647  13.698
29308SOL     OW89820   0.225   1.006   0.782
29308SOL    HW189821   0.143   0.984   0.738
29308SOL    HW289822   0.215   0.971   0.871
29309SOL     OW89823  14.311   4.158   2.622
29309SOL    HW189824  14.376   4.229   2.626
29309SOL    HW289825  14.270   4.168   2.537
29310SOL     OW89826   1.821   4.903  12.948
29310SOL    HW189827   1.908   4.864  12.936
29310SOL    HW289828   1.837   4.997  12.949
29311SOL     OW89829   5.458  13.441   9.941
29311SOL    HW189830   5.492  13.360   9.980
29311SOL    HW289831   5.404  13.412   9.868
29312SOL     OW89832   9.432   3.785   7.212
29312SOL    HW189833   9.417   3.853   7.277
29312SOL    HW289834   9.360   3.723   7.225
29313SOL     OW89835  12.321   4.542   8.305
29313SOL    HW189836  12.332   4.569   8.214
29313SOL    HW289837  12.244   4.486   8.305
29314SOL     OW89838  13.602  14.416  11.026
29314SOL    HW189839  13.552  14.460  11.095
29314SOL    HW289840  13.671  14.369  11.072
29315SOL     OW89841   7.976  12.893   9.163
29315SOL    HW189842   7.982  12.935   9.249
29315SOL    HW289843   7.885  12.905   9.137
29316SOL     OW89844   5.462   0.501   5.011
29316SOL    HW189845   5.393   0.455   5.059
29316SOL    HW289846   5.424   0.514   4.924
29317SOL     OW89847   7.565  10.241   5.792
29317SOL    HW189848   7.617  10.175   5.746
29317SOL    HW289849   7.617  10.321   5.786
29318SOL     OW89850   2.851   9.048  13.630
29318SOL    HW189851   2.909   8.988  13.583
29318SOL    HW289852   2.797   8.992  13.684
29319SOL     OW89853   6.315   2.388   4.365
29319SOL    HW189854   6.392   2.429   4.326
29319SOL    HW289855   6.337   2.295   4.372
29320SOL     OW89856   1.310  13.431   1.735
29320SOL    HW189857   1.345  13.400   1.652
29320SOL    HW289858   1.239  13.491   1.711
29321SOL     OW89859   1.140   4.974  14.820
29321SOL    HW189860   1.201   5.043  14.846
29321SOL    HW289861   1.173   4.942  14.736
29322SOL     OW89862  11.909  13.132   8.140
29322SOL    HW189863  11.868  13.046   8.149
29322SOL    HW289864  11.900  13.153   8.047
29323SOL     OW89865   4.491   5.817   7.252
29323SOL    HW189866   4.491   5.845   7.161
29323SOL    HW289867   4.414   5.860   7.290
29324SOL     OW89868  10.461   4.532   1.092
29324SOL    HW189869  10.437   4.474   1.164
29324SOL    HW289870  10.377   4.551   1.049
29325SOL     OW89871   2.740  12.986   4.070
29325SOL    HW189872   2.830  12.985   4.039
29325SOL    HW289873   2.725  13.076   4.100
29326SOL     OW89874  13.837   9.954  10.497
29326SOL    HW189875  13.774   9.897  10.451
29326SOL    HW289876  13.866  10.015  10.430
29327SOL     OW89877   7.238   9.221   7.380
29327SOL    HW189878   7.257   9.150   7.319
29327SOL    HW289879   7.234   9.178   7.466
29328SOL     OW89880   0.057   5.026  11.446
29328SOL    HW189881   0.008   4.961  11.496
29328SOL    HW289882   0.077   4.982  11.363
29329SOL     OW89883  12.038  12.351  12.898
29329SOL    HW189884  11.965  12.400  12.939
29329SOL    HW289885  12.000  12.266  12.875
29330SOL     OW89886   5.252  11.548  13.873
29330SOL    HW189887   5.264  11.621  13.932
29330SOL    HW289888   5.163  11.517  13.890
29331SOL     OW89889   4.362   3.464  14.004
29331SOL    HW189890   4.281   3.463  13.953
29331SOL    HW289891   4.420   3.403  13.960
29332SOL     OW89892  11.429  14.434   4.732
29332SOL    HW189893  11.461  14.506   4.785
29332SOL    HW289894  11.506  14.379   4.717
29333SOL     OW89895   0.795  13.020   2.491
29333SOL    HW189896   0.783  13.087   2.424
29333SOL    HW289897   0.770  13.063   2.573
29334SOL     OW89898  11.393   9.641  14.589
29334SOL    HW189899  11.462   9.707  14.580
29334SOL    HW289900  11.411   9.576  14.522
29335SOL     OW89901   9.893   2.220   3.531
29335SOL    HW189902   9.962   2.220   3.464
29335SOL    HW289903   9.929   2.166   3.602
29336SOL     OW89904   2.570  11.402   8.788
29336SOL    HW189905   2.649  11.354   8.765
29336SOL    HW289906   2.593  11.494   8.776
29337SOL     OW89907  11.539   6.076   8.907
29337SOL    HW189908  11.576   6.024   8.835
29337SOL    HW289909  11.584   6.044   8.985
29338SOL     OW89910   8.162  12.115  10.191
29338SOL    HW189911   8.225  12.186  10.180
29338SOL    HW289912   8.212  12.036  10.172
29339SOL     OW89913   0.862   8.505  12.267
29339SOL    HW189914   0.938   8.471  12.220
29339SOL    HW289915   0.869   8.600  12.260
29340SOL     OW89916   6.981   3.276   2.430
29340SOL    HW189917   6.991   3.184   2.453
29340SOL    HW289918   7.066   3.315   2.448
29341SOL     OW89919  12.395   8.302   8.122
29341SOL    HW189920  12.340   8.239   8.168
29341SOL    HW289921  12.465   8.251   8.084
29342SOL     OW89922   4.360  11.990   5.706
29342SOL    HW189923   4.317  12.075   5.698
29342SOL    HW289924   4.289  11.929   5.725
29343SOL     OW89925   2.631  14.616  12.175
29343SOL    HW189926   2.674  14.559  12.111
29343SOL    HW289927   2.700  14.642  12.235
29344SOL     OW89928   3.372  12.910  12.460
29344SOL    HW189929   3.303  12.852  12.492
29344SOL    HW289930   3.411  12.863  12.386
29345SOL     OW89931   3.816  10.958   5.948
29345SOL    HW189932   3.796  10.900   6.022
29345SOL    HW289933   3.905  10.988   5.964
29346SOL     OW89934  14.413   0.907   5.245
29346SOL    HW189935  14.491   0.902   5.300
29346SOL    HW289936  14.446   0.938   5.160
29347SOL     OW89937   1.583   2.974   2.350
29347SOL    HW189938   1.513   2.962   2.286
29347SOL    HW289939   1.660   2.996   2.298
29348SOL     OW89940   4.379  11.217  13.246
29348SOL    HW189941   4.357  11.273  13.171
29348SOL    HW289942   4.308  11.232  13.308
29349SOL     OW89943   6.307   1.557   6.637
29349SOL    HW189944   6.258   1.560   6.719
29349SOL    HW289945   6.246   1.589   6.570
29350SOL     OW89946   8.114  12.209   8.141
29350SOL    HW189947   8.134  12.201   8.048
29350SOL    HW289948   8.114  12.304   8.157
29351SOL     OW89949   9.361   0.836   3.844
29351SOL    HW189950   9.276   0.871   3.870
29351SOL    HW289951   9.369   0.754   3.892
29352SOL     OW89952  10.593   6.619   5.535
29352SOL    HW189953  10.583   6.599   5.628
29352SOL    HW289954  10.505   6.611   5.499
29353SOL     OW89955   6.377  12.334   7.092
29353SOL    HW189956   6.418  12.262   7.045
29353SOL    HW289957   6.442  12.404   7.090
29354SOL     OW89958   3.770   6.283   4.578
29354SOL    HW189959   3.779   6.365   4.529
29354SOL    HW289960   3.756   6.311   4.668
29355SOL     OW89961  11.842   5.823   5.328
29355SOL    HW189962  11.930   5.840   5.292
29355SOL    HW289963  11.825   5.897   5.385
29356SOL     OW89964  12.054   6.671  14.234
29356SOL    HW189965  12.141   6.685  14.271
29356SOL    HW289966  12.042   6.576  14.237
29357SOL     OW89967   8.013   4.035   6.796
29357SOL    HW189968   8.049   4.121   6.777
29357SOL    HW289969   7.982   4.002   6.711
29358SOL     OW89970   0.772   3.969   2.793
29358SOL    HW189971   0.852   3.921   2.775
29358SOL    HW289972   0.779   3.993   2.886
29359SOL     OW89973  13.509  11.961   4.647
29359SOL    HW189974  13.571  12.031   4.625
29359SOL    HW289975  13.541  11.885   4.599
29360SOL     OW89976   4.861   8.352  11.386
29360SOL    HW189977   4.894   8.442  11.390
29360SOL    HW289978   4.766   8.361  11.381
29361SOL     OW89979   4.724  12.876   4.583
29361SOL    HW189980   4.660  12.844   4.647
29361SOL    HW289981   4.688  12.960   4.553
29362SOL     OW89982   4.412  10.231  11.155
29362SOL    HW189983   4.365  10.175  11.217
29362SOL    HW289984   4.374  10.210  11.070
29363SOL     OW89985  14.240  11.678  12.702
29363SOL    HW189986  14.281  11.752  12.656
29363SOL    HW289987  14.311  11.613  12.711
29364SOL     OW89988   2.438  11.263   6.032
29364SOL    HW189989   2.418  11.307   5.949
29364SOL    HW289990   2.386  11.310   6.097
29365SOL     OW89991  14.028   7.913   1.976
29365SOL    HW189992  14.045   7.885   1.886
29365SOL    HW289993  14.107   7.890   2.024
29366SOL     OW89994  14.671   8.124   2.005
29366SOL    HW189995  14.762   8.114   1.979
29366SOL    HW289996  14.655   8.218   2.002
29367SOL     OW89997   9.673   2.539   0.333
29367SOL    HW189998   9.643   2.610   0.390
29367SOL    HW289999   9.740   2.579   0.277
29368SOL     OW90000  13.544   9.384   4.454
29368SOL    HW190001  13.542   9.438   4.375
29368SOL    HW290002  13.615   9.322   4.438
29369SOL     OW90003  10.555   4.930   4.232
29369SOL    HW190004  10.508   4.862   4.280
29369SOL    HW290005  10.603   4.978   4.299
29370SOL     OW90006  13.455   1.267   5.287
29370SOL    HW190007  13.469   1.251   5.194
29370SOL    HW290008  13.542   1.284   5.322
29371SOL     OW90009  10.548  11.609   9.259
29371SOL    HW190010  10.520  11.692   9.222
29371SOL    HW290011  10.634  11.627   9.298
29372SOL     OW90012   1.823  12.983   4.002
29372SOL    HW190013   1.774  12.938   3.933
29372SOL    HW290014   1.897  13.023   3.956
29373SOL     OW90015   3.270  12.823   3.692
29373SOL    HW190016   3.255  12.729   3.701
29373SOL    HW290017   3.343  12.831   3.631
29374SOL     OW90018   4.008   7.872   5.449
29374SOL    HW190019   4.014   7.776   5.443
29374SOL    HW290020   4.006   7.902   5.358
29375SOL     OW90021  10.501  10.033   5.908
29375SOL    HW190022  10.564  10.082   5.855
29375SOL    HW290023  10.536   9.944   5.911
29376SOL     OW90024  11.001   2.348   2.748
29376SOL    HW190025  11.007   2.264   2.703
29376SOL    HW290026  11.092   2.379   2.752
29377SOL     OW90027  14.379   6.716   2.647
29377SOL    HW190028  14.455   6.697   2.702
29377SOL    HW290029  14.312   6.746   2.708
29378SOL     OW90030   9.011   3.618   8.070
29378SOL    HW190031   9.029   3.524   8.081
29378SOL    HW290032   8.917   3.621   8.050
29379SOL     OW90033  14.012  10.010   0.176
29379SOL    HW190034  13.990  10.017   0.083
29379SOL    HW290035  13.954   9.942   0.209
29380SOL     OW90036   7.286   9.866   0.392
29380SOL    HW190037   7.379   9.875   0.414
29380SOL    HW290038   7.258   9.787   0.438
29381SOL     OW90039   1.938  11.801   4.140
29381SOL    HW190040   1.929  11.884   4.186
29381SOL    HW290041   1.976  11.741   4.205
29382SOL     OW90042   0.432   9.292  10.601
29382SOL    HW190043   0.341   9.300  10.573
29382SOL    HW290044   0.481   9.270  10.522
29383SOL     OW90045  12.780   7.688  12.566
29383SOL    HW190046  12.817   7.633  12.498
29383SOL    HW290047  12.726   7.752  12.519
29384SOL     OW90048  13.837   9.678   5.737
29384SOL    HW190049  13.819   9.621   5.662
29384SOL    HW290050  13.911   9.636   5.782
29385SOL     OW90051   4.402   8.039   3.954
29385SOL    HW190052   4.460   7.979   3.908
29385SOL    HW290053   4.451   8.122   3.958
29386SOL     OW90054   9.550   6.260  13.577
29386SOL    HW190055   9.597   6.288  13.499
29386SOL    HW290056   9.556   6.334  13.637
29387SOL     OW90057   9.747  10.084  12.916
29387SOL    HW190058   9.789   9.999  12.902
29387SOL    HW290059   9.796  10.144  12.859
29388SOL     OW90060  11.743  10.448  12.214
29388SOL    HW190061  11.702  10.512  12.271
29388SOL    HW290062  11.704  10.364  12.238
29389SOL     OW90063   4.700   0.730   8.304
29389SOL    HW190064   4.792   0.702   8.301
29389SOL    HW290065   4.689   0.784   8.225
29390SOL     OW90066   5.983   5.782  10.422
29390SOL    HW190067   5.987   5.708  10.482
29390SOL    HW290068   6.072   5.790  10.388
29391SOL     OW90069  12.061   7.507  11.880
29391SOL    HW190070  12.097   7.430  11.924
29391SOL    HW290071  11.986   7.474  11.831
29392SOL     OW90072   1.704   3.957   2.792
29392SOL    HW190073   1.758   3.878   2.796
29392SOL    HW290074   1.765   4.027   2.770
29393SOL     OW90075   8.371   1.384  12.712
29393SOL    HW190076   8.278   1.380  12.735
29393SOL    HW290077   8.372   1.398  12.617
29394SOL     OW90078   9.899   5.193   0.203
29394SOL    HW190079   9.819   5.153   0.237
29394SOL    HW290080   9.957   5.119   0.186
29395SOL     OW90081   8.725  13.475   6.026
29395SOL    HW190082   8.726  13.393   5.977
29395SOL    HW290083   8.709  13.448   6.117
29396SOL     OW90084  12.338  13.849   4.435
29396SOL    HW190085  12.250  13.813   4.443
29396SOL    HW290086  12.336  13.931   4.484
29397SOL     OW90087   7.161   3.406   2.709
29397SOL    HW190088   7.228   3.440   2.769
29397SOL    HW290089   7.103   3.354   2.765
29398SOL     OW90090  11.252   8.222   5.568
29398SOL    HW190091  11.303   8.258   5.496
29398SOL    HW290092  11.165   8.209   5.531
29399SOL     OW90093   8.326  10.443   7.865
29399SOL    HW190094   8.410  10.435   7.911
29399SOL    HW290095   8.342  10.509   7.798
29400SOL     OW90096   0.991   2.754   1.619
29400SOL    HW190097   0.970   2.759   1.712
29400SOL    HW290098   1.077   2.796   1.612
29401SOL     OW90099  10.162  14.850   7.173
29401SOL    HW190100  10.071  14.838   7.147
29401SOL    HW290101  10.203   0.013   7.099
29402SOL     OW90102   9.087   1.095  14.723
29402SOL    HW190103   9.116   1.037  14.652
29402SOL    HW290104   8.993   1.076  14.731
29403SOL     OW90105   9.782  10.063   0.265
29403SOL    HW190106   9.782  10.058   0.170
29403SOL    HW290107   9.748  10.150   0.285
29404SOL     OW90108   0.118   5.239   5.387
29404SOL    HW190109   0.192   5.273   5.336
29404SOL    HW290110   0.054   5.311   5.387
29405SOL     OW90111   3.440   4.373   8.102
29405SOL    HW190112   3.524   4.410   8.129
29405SOL    HW290113   3.462   4.310   8.034
29406SOL     OW90114   3.648   8.112   5.326
29406SOL    HW190115   3.629   8.103   5.232
29406SOL    HW290116   3.562   8.108   5.368
29407SOL     OW90117   7.150   7.343  10.140
29407SOL    HW190118   7.182   7.253  10.137
29407SOL    HW290119   7.228   7.395  10.159
29408SOL     OW90120   8.468   9.677  13.536
29408SOL    HW190121   8.407   9.653  13.467
29408SOL    HW290122   8.554   9.661  13.498
29409SOL     OW90123  10.729   6.548   0.526
29409SOL    HW190124  10.699   6.611   0.461
29409SOL    HW290125  10.821   6.534   0.505
29410SOL     OW90126  14.237   3.960  13.294
29410SOL    HW190127  14.244   3.867  13.315
29410SOL    HW290128  14.147   3.971  13.262
29411SOL     OW90129   9.906   2.247   4.452
29411SOL    HW190130   9.832   2.266   4.394
29411SOL    HW290131   9.866   2.239   4.539
29412SOL     OW90132   9.182  14.549   8.801
29412SOL    HW190133   9.236  14.477   8.835
29412SOL    HW290134   9.243  14.622   8.792
29413SOL     OW90135   3.504   5.703   2.942
29413SOL    HW190136   3.434   5.724   2.881
29413SOL    HW290137   3.491   5.611   2.963
29414SOL     OW90138   5.354   7.921  14.641
29414SOL    HW190139   5.319   7.855  14.581
29414SOL    HW290140   5.400   7.983  14.585
29415SOL     OW90141   6.728  11.667   1.094
29415SOL    HW190142   6.732  11.723   1.170
29415SOL    HW290143   6.675  11.592   1.122
29416SOL     OW90144   8.845   2.121  13.014
29416SOL    HW190145   8.796   2.049  13.053
29416SOL    HW290146   8.930   2.084  12.993
29417SOL     OW90147   8.701  13.463   6.662
29417SOL    HW190148   8.731  13.549   6.692
29417SOL    HW290149   8.764  13.401   6.698
29418SOL     OW90150  14.354   1.582   6.388
29418SOL    HW190151  14.380   1.565   6.478
29418SOL    HW290152  14.425   1.636   6.353
29419SOL     OW90153   8.604   6.992   8.643
29419SOL    HW190154   8.675   6.968   8.584
29419SOL    HW290155   8.533   7.021   8.586
29420SOL     OW90156   0.406  14.759   0.726
29420SOL    HW190157   0.413  14.843   0.680
29420SOL    HW290158   0.469  14.702   0.682
29421SOL     OW90159  10.113   5.828  14.385
29421SOL    HW190160  10.181   5.860  14.444
29421SOL    HW290161  10.089   5.905  14.332
29422SOL     OW90162   0.146   6.055  11.164
29422SOL    HW190163   0.125   6.112  11.091
29422SOL    HW290164   0.234   6.081  11.191
29423SOL     OW90165   0.444   5.038   6.631
29423SOL    HW190166   0.369   5.061   6.686
29423SOL    HW290167   0.509   5.106   6.649
29424SOL     OW90168  14.755   6.476   1.127
29424SOL    HW190169  14.668   6.512   1.109
29424SOL    HW290170  14.773   6.421   1.051
29425SOL     OW90171  12.771   6.552  12.830
29425SOL    HW190172  12.782   6.472  12.780
29425SOL    HW290173  12.750   6.619  12.765
29426SOL     OW90174  13.648   9.382   7.814
29426SOL    HW190175  13.650   9.462   7.866
29426SOL    HW290176  13.718   9.328   7.850
29427SOL     OW90177  13.462  10.659   0.621
29427SOL    HW190178  13.397  10.615   0.568
29427SOL    HW290179  13.532  10.594   0.633
29428SOL     OW90180   0.287   5.628   4.394
29428SOL    HW190181   0.365   5.582   4.427
29428SOL    HW290182   0.227   5.629   4.469
29429SOL     OW90183   0.851   7.134   1.826
29429SOL    HW190184   0.828   7.099   1.740
29429SOL    HW290185   0.942   7.106   1.839
29430SOL     OW90186  13.041  10.435   6.299
29430SOL    HW190187  13.103  10.388   6.355
29430SOL    HW290188  12.974  10.370   6.278
29431SOL     OW90189   9.956   6.567  11.523
29431SOL    HW190190   9.901   6.500  11.483
29431SOL    HW290191   9.909   6.649  11.510
29432SOL     OW90192   3.633   7.741  14.408
29432SOL    HW190193   3.711   7.700  14.447
29432SOL    HW290194   3.586   7.777  14.483
29433SOL     OW90195   9.912  11.157   6.551
29433SOL    HW190196   9.822  11.139   6.579
29433SOL    HW290197   9.925  11.103   6.474
29434SOL     OW90198  13.878   5.565  10.930
29434SOL    HW190199  13.893   5.595  10.840
29434SOL    HW290200  13.965   5.567  10.970
29435SOL     OW90201   2.074  13.457   0.618
29435SOL    HW190202   2.069  13.519   0.545
29435SOL    HW290203   2.113  13.508   0.689
29436SOL     OW90204  11.803  11.465   8.498
29436SOL    HW190205  11.882  11.453   8.551
29436SOL    HW290206  11.786  11.559   8.501
29437SOL     OW90207   9.792  11.052   5.261
29437SOL    HW190208   9.847  10.997   5.316
29437SOL    HW290209   9.813  11.025   5.172
29438SOL     OW90210   4.050  10.969  11.941
29438SOL    HW190211   4.121  10.904  11.941
29438SOL    HW290212   4.036  10.990  11.849
29439SOL     OW90213   5.447   5.666   6.360
29439SOL    HW190214   5.437   5.760   6.372
29439SOL    HW290215   5.461   5.631   6.448
29440SOL     OW90216   1.271   1.349   4.111
29440SOL    HW190217   1.216   1.364   4.035
29440SOL    HW290218   1.215   1.372   4.186
29441SOL     OW90219  14.499   7.266   1.632
29441SOL    HW190220  14.481   7.248   1.540
29441SOL    HW290221  14.434   7.215   1.680
29442SOL     OW90222   2.181  11.890   7.336
29442SOL    HW190223   2.179  11.972   7.385
29442SOL    HW290224   2.163  11.822   7.400
29443SOL     OW90225  12.005  11.525  14.094
29443SOL    HW190226  11.931  11.558  14.146
29443SOL    HW290227  12.025  11.440  14.133
29444SOL     OW90228  12.230  14.018   1.120
29444SOL    HW190229  12.174  14.092   1.094
29444SOL    HW290230  12.174  13.965   1.177
29445SOL     OW90231   5.365   5.589   1.410
29445SOL    HW190232   5.309   5.637   1.349
29445SOL    HW290233   5.453   5.597   1.373
29446SOL     OW90234   0.797   1.691  13.827
29446SOL    HW190235   0.717   1.694  13.774
29446SOL    HW290236   0.841   1.774  13.810
29447SOL     OW90237   1.965  12.156   2.413
29447SOL    HW190238   1.902  12.143   2.342
29447SOL    HW290239   1.969  12.073   2.459
29448SOL     OW90240   5.537  12.617   0.583
29448SOL    HW190241   5.493  12.547   0.632
29448SOL    HW290242   5.500  12.612   0.495
29449SOL     OW90243   8.583  12.015   1.172
29449SOL    HW190244   8.608  11.923   1.168
29449SOL    HW290245   8.501  12.020   1.123
29450SOL     OW90246   2.353  10.001   9.921
29450SOL    HW190247   2.375  10.080   9.872
29450SOL    HW290248   2.284   9.959   9.871
29451SOL     OW90249   3.414   6.392  11.026
29451SOL    HW190250   3.459   6.370  11.107
29451SOL    HW290251   3.481   6.433  10.971
29452SOL     OW90252  11.997   1.338   2.068
29452SOL    HW190253  11.975   1.299   2.153
29452SOL    HW290254  12.070   1.286   2.036
29453SOL     OW90255   7.257   3.429   0.961
29453SOL    HW190256   7.342   3.444   0.920
29453SOL    HW290257   7.267   3.461   1.050
29454SOL     OW90258  10.837   4.924  10.191
29454SOL    HW190259  10.757   4.904  10.239
29454SOL    HW290260  10.906   4.875  10.235
29455SOL     OW90261   8.902  13.210  12.844
29455SOL    HW190262   8.918  13.116  12.849
29455SOL    HW290263   8.949  13.246  12.919
29456SOL     OW90264   6.890   4.963  12.647
29456SOL    HW190265   6.907   4.869  12.641
29456SOL    HW290266   6.798   4.970  12.671
29457SOL     OW90267   8.016  11.462   9.128
29457SOL    HW190268   7.968  11.490   9.206
29457SOL    HW290269   7.970  11.382   9.100
29458SOL     OW90270  14.076  10.457  14.059
29458SOL    HW190271  14.144  10.398  14.027
29458SOL    HW290272  14.111  10.494  14.140
29459SOL     OW90273  10.741   6.735   1.196
29459SOL    HW190274  10.726   6.758   1.105
29459SOL    HW290275  10.780   6.813   1.235
29460SOL     OW90276   2.948   7.687   9.247
29460SOL    HW190277   2.947   7.594   9.270
29460SOL    HW290278   2.890   7.728   9.310
29461SOL     OW90279   9.505   8.708  12.994
29461SOL    HW190280   9.435   8.667  13.044
29461SOL    HW290281   9.470   8.794  12.970
29462SOL     OW90282  11.763   5.361   7.914
29462SOL    HW190283  11.778   5.330   8.003
29462SOL    HW290284  11.768   5.456   7.921
29463SOL     OW90285  13.466   7.166  11.913
29463SOL    HW190286  13.487   7.081  11.953
29463SOL    HW290287  13.393   7.199  11.965
29464SOL     OW90288  10.610   9.867   0.966
29464SOL    HW190289  10.528   9.829   0.934
29464SOL    HW290290  10.601   9.961   0.949
29465SOL     OW90291   3.821   8.187  11.318
29465SOL    HW190292   3.792   8.206  11.228
29465SOL    HW290293   3.904   8.141  11.307
29466SOL     OW90294   9.421   5.826   1.749
29466SOL    HW190295   9.446   5.848   1.659
29466SOL    HW290296   9.333   5.863   1.759
29467SOL     OW90297   3.045   8.263   4.587
29467SOL    HW190298   2.959   8.251   4.625
29467SOL    HW290299   3.106   8.236   4.655
29468SOL     OW90300  10.150   5.541   3.369
29468SOL    HW190301  10.218   5.555   3.303
29468SOL    HW290302  10.072   5.519   3.319
29469SOL     OW90303   1.944   1.494  12.002
29469SOL    HW190304   1.937   1.578  11.957
29469SOL    HW290305   1.879   1.438  11.959
29470SOL     OW90306   4.410   8.341  10.452
29470SOL    HW190307   4.458   8.312  10.529
29470SOL    HW290308   4.464   8.411  10.415
29471SOL     OW90309   2.685   9.096   6.518
29471SOL    HW190310   2.693   9.083   6.424
29471SOL    HW290311   2.652   9.012   6.551
29472SOL     OW90312   7.001   7.502   3.094
29472SOL    HW190313   7.024   7.416   3.128
29472SOL    HW290314   7.042   7.564   3.155
29473SOL     OW90315   6.371   9.077  10.714
29473SOL    HW190316   6.281   9.109  10.715
29473SOL    HW290317   6.425   9.155  10.706
29474SOL     OW90318   8.210  12.334  13.770
29474SOL    HW190319   8.303  12.352  13.777
29474SOL    HW290320   8.188  12.353  13.679
29475SOL     OW90321   7.809  12.474   1.779
29475SOL    HW190322   7.755  12.401   1.807
29475SOL    HW290323   7.885  12.433   1.736
29476SOL     OW90324   1.867  12.638   0.220
29476SOL    HW190325   1.890  12.731   0.209
29476SOL    HW290326   1.806  12.638   0.294
29477SOL     OW90327   0.576  12.178  11.678
29477SOL    HW190328   0.579  12.109  11.745
29477SOL    HW290329   0.627  12.250  11.715
29478SOL     OW90330   0.832  13.906  14.374
29478SOL    HW190331   0.762  13.873  14.431
29478SOL    HW290332   0.857  13.831  14.321
29479SOL     OW90333   1.756   3.235   3.016
29479SOL    HW190334   1.785   3.159   2.967
29479SOL    HW290335   1.661   3.224   3.023
29480SOL     OW90336   4.339  11.326   8.969
29480SOL    HW190337   4.394  11.356   8.896
29480SOL    HW290338   4.301  11.406   9.005
29481SOL     OW90339  10.227   0.208   5.431
29481SOL    HW190340  10.257   0.292   5.466
29481SOL    HW290341  10.240   0.215   5.336
29482SOL     OW90342   3.366   4.295   3.618
29482SOL    HW190343   3.420   4.228   3.576
29482SOL    HW290344   3.421   4.373   3.618
29483SOL     OW90345  13.389  12.851   7.868
29483SOL    HW190346  13.351  12.793   7.934
29483SOL    HW290347  13.475  12.874   7.904
29484SOL     OW90348  12.483  12.354   1.626
29484SOL    HW190349  12.475  12.440   1.585
29484SOL    HW290350  12.576  12.344   1.644
29485SOL     OW90351   1.478   5.366   0.720
29485SOL    HW190352   1.465   5.450   0.676
29485SOL    HW290353   1.485   5.302   0.650
29486SOL     OW90354  14.244  11.849   7.963
29486SOL    HW190355  14.215  11.922   7.908
29486SOL    HW290356  14.323  11.883   8.007
29487SOL     OW90357  14.433   5.105   0.546
29487SOL    HW190358  14.452   5.076   0.635
29487SOL    HW290359  14.515   5.093   0.499
29488SOL     OW90360   9.978   2.688  10.111
29488SOL    HW190361  10.014   2.603  10.084
29488SOL    HW290362  10.048   2.729  10.161
29489SOL     OW90363   6.822  14.432  10.104
29489SOL    HW190364   6.892  14.373  10.077
29489SOL    HW290365   6.819  14.423  10.199
29490SOL     OW90366   6.663   0.352  12.137
29490SOL    HW190367   6.672   0.432  12.189
29490SOL    HW290368   6.740   0.352  12.080
29491SOL     OW90369  13.702   8.757   5.760
29491SOL    HW190370  13.737   8.839   5.793
29491SOL    HW290371  13.771   8.692   5.777
29492SOL     OW90372  11.666   3.425  12.207
29492SOL    HW190373  11.749   3.465  12.181
29492SOL    HW290374  11.665   3.430  12.302
29493SOL     OW90375   9.314  11.603   8.249
29493SOL    HW190376   9.327  11.539   8.179
29493SOL    HW290377   9.232  11.577   8.291
29494SOL     OW90378  12.134  14.232   0.496
29494SOL    HW190379  12.053  14.188   0.520
29494SOL    HW290380  12.107  14.303   0.438
29495SOL     OW90381  11.292   2.909   7.068
29495SOL    HW190382  11.262   2.980   7.124
29495SOL    HW290383  11.215   2.883   7.018
29496SOL     OW90384  14.854   8.540   4.637
29496SOL    HW190385   0.009   8.598   4.572
29496SOL    HW290386   0.028   8.462   4.635
29497SOL     OW90387   4.521   3.229   3.111
29497SOL    HW190388   4.556   3.225   3.022
29497SOL    HW290389   4.443   3.284   3.104
29498SOL     OW90390   9.512   1.107   2.018
29498SOL    HW190391   9.440   1.150   2.064
29498SOL    HW290392   9.551   1.177   1.965
29499SOL     OW90393   7.729   7.670  12.930
29499SOL    HW190394   7.807   7.630  12.891
29499SOL    HW290395   7.657   7.645  12.871
29500SOL     OW90396  11.162   6.969   4.846
29500SOL    HW190397  11.120   7.024   4.912
29500SOL    HW290398  11.256   6.983   4.860
29501SOL     OW90399   0.038   5.608   7.479
29501SOL    HW190400  14.838   5.591   7.433
29501SOL    HW290401   0.096   5.644   7.412
29502SOL     OW90402  11.599   8.596   3.449
29502SOL    HW190403  11.597   8.691   3.465
29502SOL    HW290404  11.585   8.588   3.355
29503SOL     OW90405   8.992  14.545   5.960
29503SOL    HW190406   8.974  14.477   6.025
29503SOL    HW290407   8.972  14.627   6.006
29504SOL     OW90408  11.168  10.896  14.240
29504SOL    HW190409  11.207  10.983  14.254
29504SOL    HW290410  11.243  10.837  14.234
29505SOL     OW90411   6.361   6.988   9.114
29505SOL    HW190412   6.268   7.011   9.109
29505SOL    HW290413   6.363   6.893   9.107
29506SOL     OW90414  10.553   9.004  12.018
29506SOL    HW190415  10.554   9.046  12.104
29506SOL    HW290416  10.492   8.931  12.027
29507SOL     OW90417   1.578   8.773   5.740
29507SOL    HW190418   1.523   8.851   5.746
29507SOL    HW290419   1.517   8.700   5.753
29508SOL     OW90420  11.406  12.511   8.837
29508SOL    HW190421  11.468  12.533   8.767
29508SOL    HW290422  11.455  12.452   8.894
29509SOL     OW90423   5.132   3.217   3.482
29509SOL    HW190424   5.187   3.241   3.557
29509SOL    HW290425   5.122   3.298   3.433
29510SOL     OW90426   1.779   2.016  14.599
29510SOL    HW190427   1.708   1.989  14.540
29510SOL    HW290428   1.768   1.960  14.676
29511SOL     OW90429   4.538  10.102  13.981
29511SOL    HW190430   4.468  10.065  13.928
29511SOL    HW290431   4.539  10.048  14.060
29512SOL     OW90432   3.722  11.239  13.738
29512SOL    HW190433   3.770  11.201  13.665
29512SOL    HW290434   3.733  11.176  13.809
29513SOL     OW90435   6.910   4.774   5.723
29513SOL    HW190436   6.890   4.723   5.801
29513SOL    HW290437   6.866   4.858   5.736
29514SOL     OW90438   0.331   2.658   9.168
29514SOL    HW190439   0.394   2.606   9.218
29514SOL    HW290440   0.266   2.594   9.138
29515SOL     OW90441   6.605  13.940  14.668
29515SOL    HW190442   6.547  14.005  14.630
29515SOL    HW290443   6.662  13.990  14.726
29516SOL     OW90444   3.204   6.784   4.323
29516SOL    HW190445   3.265   6.711   4.322
29516SOL    HW290446   3.247   6.852   4.271
29517SOL     OW90447  14.428  13.333  14.646
29517SOL    HW190448  14.427  13.240  14.625
29517SOL    HW290449  14.488  13.341  14.721
29518SOL     OW90450   2.333   0.054   1.504
29518SOL    HW190451   2.335  14.841   1.490
29518SOL    HW290452   2.354   0.065   1.596
29519SOL     OW90453   9.810   2.994  13.841
29519SOL    HW190454   9.807   2.942  13.922
29519SOL    HW290455   9.803   3.084  13.871
29520SOL     OW90456   1.389   5.225   8.270
29520SOL    HW190457   1.463   5.190   8.220
29520SOL    HW290458   1.365   5.154   8.330
29521SOL     OW90459   0.665  11.641  10.962
29521SOL    HW190460   0.735  11.702  10.983
29521SOL    HW290461   0.596  11.661  11.024
29522SOL     OW90462   1.652   0.165   6.240
29522SOL    HW190463   1.679   0.103   6.172
29522SOL    HW290464   1.649   0.249   6.196
29523SOL     OW90465   3.056   9.811   9.083
29523SOL    HW190466   3.034   9.885   9.026
29523SOL    HW290467   3.121   9.762   9.033
29524SOL     OW90468  13.498  12.292  12.343
29524SOL    HW190469  13.407  12.317  12.331
29524SOL    HW290470  13.531  12.349  12.412
29525SOL     OW90471  13.212   7.281  11.115
29525SOL    HW190472  13.245   7.305  11.028
29525SOL    HW290473  13.164   7.358  11.145
29526SOL     OW90474   2.112  11.994   5.826
29526SOL    HW190475   2.148  12.065   5.879
29526SOL    HW290476   2.102  11.921   5.887
29527SOL     OW90477   9.782  12.898   7.272
29527SOL    HW190478   9.801  12.815   7.227
29527SOL    HW290479   9.716  12.940   7.218
29528SOL     OW90480   1.964  12.021   2.975
29528SOL    HW190481   2.007  12.105   2.991
29528SOL    HW290482   1.933  11.993   3.061
29529SOL     OW90483   3.430   3.384   1.094
29529SOL    HW190484   3.454   3.393   1.187
29529SOL    HW290485   3.472   3.458   1.051
29530SOL     OW90486   3.311  12.665   2.676
29530SOL    HW190487   3.377  12.634   2.738
29530SOL    HW290488   3.325  12.760   2.671
29531SOL     OW90489   3.460  13.510  10.403
29531SOL    HW190490   3.438  13.477  10.315
29531SOL    HW290491   3.527  13.577  10.387
29532SOL     OW90492  12.613   0.566  13.457
29532SOL    HW190493  12.528   0.523  13.464
29532SOL    HW290494  12.631   0.598  13.545
29533SOL     OW90495  14.143   8.917   1.026
29533SOL    HW190496  14.159   8.963   0.944
29533SOL    HW290497  14.201   8.841   1.023
29534SOL     OW90498   2.901   1.354   5.467
29534SOL    HW190499   2.978   1.303   5.493
29534SOL    HW290500   2.935   1.442   5.452
29535SOL     OW90501   6.296   4.243  11.261
29535SOL    HW190502   6.312   4.337  11.251
29535SOL    HW290503   6.217   4.237  11.314
29536SOL     OW90504  10.042   0.037   3.039
29536SOL    HW190505   9.971   0.001   3.091
29536SOL    HW290506  10.059   0.123   3.077
29537SOL     OW90507   9.828   2.110   9.628
29537SOL    HW190508   9.771   2.067   9.565
29537SOL    HW290509   9.882   2.039   9.664
29538SOL     OW90510   6.032   6.753   1.063
29538SOL    HW190511   5.970   6.686   1.034
29538SOL    HW290512   5.999   6.781   1.149
29539SOL     OW90513   7.384   4.923  12.617
29539SOL    HW190514   7.425   4.860  12.557
29539SOL    HW290515   7.329   4.869  12.674
29540SOL     OW90516  13.738   4.687   7.944
29540SOL    HW190517  13.701   4.650   7.864
29540SOL    HW290518  13.691   4.643   8.015
29541SOL     OW90519  14.525   5.088  11.065
29541SOL    HW190520  14.606   5.059  11.025
29541SOL    HW290521  14.457   5.065  11.002
29542SOL     OW90522  14.856   2.666  13.708
29542SOL    HW190523  14.864   2.754  13.743
29542SOL    HW290524  14.774   2.633  13.745
29543SOL     OW90525  10.524   1.679  13.080
29543SOL    HW190526  10.561   1.667  12.993
29543SOL    HW290527  10.510   1.773  13.088
29544SOL     OW90528   4.460   5.259   2.852
29544SOL    HW190529   4.489   5.225   2.768
29544SOL    HW290530   4.479   5.188   2.914
29545SOL     OW90531  12.714  11.264   0.466
29545SOL    HW190532  12.772  11.322   0.516
29545SOL    HW290533  12.685  11.317   0.392
29546SOL     OW90534   3.559   1.851  11.617
29546SOL    HW190535   3.580   1.944  11.606
29546SOL    HW290536   3.540   1.843  11.711
29547SOL     OW90537   1.212  13.210   3.156
29547SOL    HW190538   1.238  13.192   3.066
29547SOL    HW290539   1.201  13.305   3.160
29548SOL     OW90540   9.574   9.973   2.568
29548SOL    HW190541   9.604  10.030   2.497
29548SOL    HW290542   9.579  10.028   2.646
29549SOL     OW90543  11.788  13.233   1.807
29549SOL    HW190544  11.807  13.327   1.817
29549SOL    HW290545  11.693  13.229   1.802
29550SOL     OW90546   1.967   0.892  13.135
29550SOL    HW190547   2.038   0.939  13.179
29550SOL    HW290548   1.902   0.877  13.204
29551SOL     OW90549   3.914   2.913   7.508
29551SOL    HW190550   3.935   2.986   7.566
29551SOL    HW290551   4.000   2.877   7.484
29552SOL     OW90552  11.799   5.744   9.392
29552SOL    HW190553  11.879   5.753   9.339
29552SOL    HW290554  11.803   5.818   9.452
29553SOL     OW90555   9.420   4.562   7.293
29553SOL    HW190556   9.330   4.591   7.305
29553SOL    HW290557   9.441   4.514   7.374
29554SOL     OW90558   2.535   3.673   6.197
29554SOL    HW190559   2.473   3.726   6.147
29554SOL    HW290560   2.558   3.728   6.272
29555SOL     OW90561   1.736   4.421   2.747
29555SOL    HW190562   1.647   4.419   2.713
29555SOL    HW290563   1.778   4.494   2.701
29556SOL     OW90564  10.880  14.812   5.430
29556SOL    HW190565  10.936  14.848   5.362
29556SOL    HW290566  10.937  14.802   5.505
29557SOL     OW90567   1.560   2.052   5.102
29557SOL    HW190568   1.542   1.970   5.149
29557SOL    HW290569   1.653   2.048   5.082
29558SOL     OW90570   3.618  10.754  11.979
29558SOL    HW190571   3.692  10.808  12.007
29558SOL    HW290572   3.651  10.706  11.903
29559SOL     OW90573   8.602   7.324   5.137
29559SOL    HW190574   8.555   7.276   5.205
29559SOL    HW290575   8.534   7.376   5.094
29560SOL     OW90576   2.930  11.809   7.726
29560SOL    HW190577   3.023  11.834   7.732
29560SOL    HW290578   2.925  11.757   7.645
29561SOL     OW90579   4.344   8.656  14.217
29561SOL    HW190580   4.319   8.696  14.133
29561SOL    HW290581   4.305   8.569  14.214
29562SOL     OW90582  11.766   8.682   3.971
29562SOL    HW190583  11.720   8.737   3.908
29562SOL    HW290584  11.715   8.601   3.975
29563SOL     OW90585   6.583   8.240   7.503
29563SOL    HW190586   6.594   8.258   7.597
29563SOL    HW290587   6.489   8.252   7.489
29564SOL     OW90588   1.332  12.017   6.793
29564SOL    HW190589   1.254  12.059   6.758
29564SOL    HW290590   1.394  12.088   6.807
29565SOL     OW90591  13.884   2.297   9.439
29565SOL    HW190592  13.870   2.257   9.353
29565SOL    HW290593  13.918   2.226   9.493
29566SOL     OW90594   2.689   5.943  12.268
29566SOL    HW190595   2.658   6.033  12.280
29566SOL    HW290596   2.784   5.949  12.278
29567SOL     OW90597  14.844   2.965  12.142
29567SOL    HW190598  14.840   2.947  12.049
29567SOL    HW290599   0.053   2.947  12.166
29568SOL     OW90600  12.325   6.402   0.975
29568SOL    HW190601  12.291   6.453   0.902
29568SOL    HW290602  12.364   6.468   1.033
29569SOL     OW90603   6.020   3.039   6.767
29569SOL    HW190604   6.037   2.972   6.834
29569SOL    HW290605   5.936   3.013   6.729
29570SOL     OW90606   9.807   5.985   0.362
29570SOL    HW190607   9.824   6.024   0.448
29570SOL    HW290608   9.787   6.059   0.305
29571SOL     OW90609   7.534   1.875   1.852
29571SOL    HW190610   7.532   1.822   1.932
29571SOL    HW290611   7.601   1.834   1.797
29572SOL     OW90612   7.741  14.275   2.008
29572SOL    HW190613   7.674  14.274   1.941
29572SOL    HW290614   7.695  14.253   2.089
29573SOL     OW90615   4.159  14.599   5.941
29573SOL    HW190616   4.143  14.564   5.853
29573SOL    HW290617   4.123  14.687   5.939
29574SOL     OW90618  10.347  11.947   2.124
29574SOL    HW190619  10.435  11.978   2.104
29574SOL    HW290620  10.303  12.024   2.161
29575SOL     OW90621   6.229   1.504   7.499
29575SOL    HW190622   6.306   1.508   7.443
29575SOL    HW290623   6.208   1.595   7.518
29576SOL     OW90624   7.383   6.431   8.737
29576SOL    HW190625   7.292   6.446   8.712
29576SOL    HW290626   7.434   6.484   8.676
29577SOL     OW90627  11.339  10.925   7.902
29577SOL    HW190628  11.356  11.016   7.879
29577SOL    HW290629  11.377  10.914   7.989
29578SOL     OW90630   2.018  13.937   2.403
29578SOL    HW190631   1.941  13.885   2.427
29578SOL    HW290632   2.040  13.909   2.315
29579SOL     OW90633   8.796   7.846  10.649
29579SOL    HW190634   8.815   7.939  10.633
29579SOL    HW290635   8.827   7.802  10.570
29580SOL     OW90636  12.110   9.534  12.979
29580SOL    HW190637  12.021   9.513  13.005
29580SOL    HW290638  12.146   9.450  12.949
29581SOL     OW90639   0.054   8.687   3.857
29581SOL    HW190640   0.063   8.737   3.775
29581SOL    HW290641  14.860   8.726   3.900
29582SOL     OW90642   2.030  14.422   5.835
29582SOL    HW190643   2.098  14.355   5.822
29582SOL    HW290644   2.002  14.445   5.747
29583SOL     OW90645   7.085   4.214   8.328
29583SOL    HW190646   7.082   4.248   8.239
29583SOL    HW290647   7.028   4.137   8.326
29584SOL     OW90648   3.853   9.046   8.805
29584SOL    HW190649   3.891   9.131   8.828
29584SOL    HW290650   3.914   9.009   8.742
29585SOL     OW90651   6.883  10.006  11.442
29585SOL    HW190652   6.856  10.053  11.521
29585SOL    HW290653   6.966  10.048  11.417
29586SOL     OW90654   4.763  14.635   8.590
29586SOL    HW190655   4.775  14.556   8.643
29586SOL    HW290656   4.672  14.629   8.559
29587SOL     OW90657   0.261  10.646  10.018
29587SOL    HW190658   0.341  10.686  10.052
29587SOL    HW290659   0.203  10.720   9.999
29588SOL     OW90660   2.683   8.675   4.170
29588SOL    HW190661   2.756   8.642   4.118
29588SOL    HW290662   2.678   8.614   4.244
29589SOL     OW90663   6.487  10.058   2.614
29589SOL    HW190664   6.412  10.023   2.565
29589SOL    HW290665   6.460  10.147   2.638
29590SOL     OW90666   0.291   0.005   4.479
29590SOL    HW190667   0.301   0.077   4.541
29590SOL    HW290668   0.322  14.810   4.526
29591SOL     OW90669  10.011   6.991   4.657
29591SOL    HW190670   9.960   6.928   4.605
29591SOL    HW290671  10.070   6.937   4.709
29592SOL     OW90672  13.250   9.058   3.210
29592SOL    HW190673  13.301   9.013   3.143
29592SOL    HW290674  13.170   9.006   3.218
29593SOL     OW90675   2.854  12.902   4.790
29593SOL    HW190676   2.865  12.917   4.884
29593SOL    HW290677   2.762  12.877   4.781
29594SOL     OW90678   1.998  13.186   4.201
29594SOL    HW190679   2.059  13.255   4.229
29594SOL    HW290680   1.995  13.195   4.106
29595SOL     OW90681   2.885   3.174  10.937
29595SOL    HW190682   2.972   3.135  10.949
29595SOL    HW290683   2.824   3.102  10.954
29596SOL     OW90684   3.921   9.960   3.909
29596SOL    HW190685   3.870   9.917   3.978
29596SOL    HW290686   4.009   9.968   3.945
29597SOL     OW90687   0.171   3.905   8.222
29597SOL    HW190688   0.117   3.969   8.177
29597SOL    HW290689   0.221   3.862   8.153
29598SOL     OW90690   9.029   1.835   4.077
29598SOL    HW190691   9.071   1.752   4.054
29598SOL    HW290692   8.967   1.851   4.006
29599SOL     OW90693  10.177   2.156   9.529
29599SOL    HW190694  10.236   2.113   9.590
29599SOL    HW290695  10.149   2.087   9.469
29600SOL     OW90696  11.351   0.916  14.600
29600SOL    HW190697  11.266   0.941  14.636
29600SOL    HW290698  11.343   0.934  14.506
29601SOL     OW90699   3.697   1.174   4.774
29601SOL    HW190700   3.686   1.267   4.795
29601SOL    HW290701   3.616   1.133   4.803
29602SOL     OW90702   2.833  14.038   2.892
29602SOL    HW190703   2.844  13.946   2.871
29602SOL    HW290704   2.769  14.039   2.964
29603SOL     OW90705   7.116  10.700   1.978
29603SOL    HW190706   7.183  10.734   1.917
29603SOL    HW290707   7.056  10.650   1.922
29604SOL     OW90708   5.500  10.698   7.176
29604SOL    HW190709   5.503  10.629   7.110
29604SOL    HW290710   5.542  10.773   7.135
29605SOL     OW90711  12.857   6.068   5.007
29605SOL    HW190712  12.941   6.108   4.988
29605SOL    HW290713  12.878   5.977   5.028
29606SOL     OW90714   7.531  11.088   2.846
29606SOL    HW190715   7.540  11.019   2.781
29606SOL    HW290716   7.453  11.063   2.896
29607SOL     OW90717  13.304   0.714   7.768
29607SOL    HW190718  13.317   0.800   7.727
29607SOL    HW290719  13.354   0.720   7.850
29608SOL     OW90720  12.640   4.823  11.196
29608SOL    HW190721  12.683   4.902  11.162
29608SOL    HW290722  12.601   4.852  11.279
29609SOL     OW90723   4.060   8.624   6.272
29609SOL    HW190724   4.146   8.612   6.313
29609SOL    HW290725   4.036   8.536   6.243
29610SOL     OW90726   2.646  12.375  12.317
29610SOL    HW190727   2.722  12.393  12.371
29610SOL    HW290728   2.680  12.325  12.243
29611SOL     OW90729   6.968  10.777   7.240
29611SOL    HW190730   6.884  10.812   7.271
29611SOL    HW290731   7.034  10.829   7.286
29612SOL     OW90732   7.768  13.286  11.374
29612SOL    HW190733   7.676  13.264  11.388
29612SOL    HW290734   7.777  13.291  11.279
29613SOL     OW90735  13.760   4.071   9.025
29613SOL    HW190736  13.790   3.980   9.022
29613SOL    HW290737  13.683   4.072   8.967
29614SOL     OW90738   9.552   7.938   7.291
29614SOL    HW190739   9.608   8.002   7.335
29614SOL    HW290740   9.604   7.858   7.290
29615SOL     OW90741  10.971  11.981   4.910
29615SOL    HW190742  11.054  11.935   4.922
29615SOL    HW290743  10.933  11.987   4.998
29616SOL     OW90744   6.786   5.240   5.428
29616SOL    HW190745   6.853   5.227   5.361
29616SOL    HW290746   6.719   5.292   5.383
29617SOL     OW90747   9.571   6.451   3.151
29617SOL    HW190748   9.635   6.436   3.221
29617SOL    HW290749   9.486   6.451   3.196
29618SOL     OW90750   6.272   6.956   1.767
29618SOL    HW190751   6.316   6.875   1.793
29618SOL    HW290752   6.329   7.026   1.799
29619SOL     OW90753   6.551   9.761   1.795
29619SOL    HW190754   6.637   9.790   1.827
29619SOL    HW290755   6.571   9.715   1.713
29620SOL     OW90756   2.966   3.314  10.735
29620SOL    HW190757   2.927   3.270  10.810
29620SOL    HW290758   2.897   3.373  10.703
29621SOL     OW90759   4.411  14.365  11.936
29621SOL    HW190760   4.499  14.390  11.965
29621SOL    HW290761   4.369  14.447  11.910
29622SOL     OW90762   8.832   2.085   3.357
29622SOL    HW190763   8.918   2.093   3.398
29622SOL    HW290764   8.770   2.088   3.431
29623SOL     OW90765   4.988  11.066   7.238
29623SOL    HW190766   5.005  10.975   7.212
29623SOL    HW290767   5.020  11.118   7.164
29624SOL     OW90768   0.560   4.051   9.058
29624SOL    HW190769   0.581   4.128   9.110
29624SOL    HW290770   0.524   4.086   8.976
29625SOL     OW90771  14.070   5.098   7.048
29625SOL    HW190772  14.068   5.187   7.013
29625SOL    HW290773  13.989   5.058   7.015
29626SOL     OW90774   0.933   9.101  13.714
29626SOL    HW190775   0.864   9.090  13.649
29626SOL    HW290776   0.903   9.053  13.791
29627SOL     OW90777  13.642   7.144   5.835
29627SOL    HW190778  13.619   7.115   5.747
29627SOL    HW290779  13.728   7.185   5.826
29628SOL     OW90780   8.418   8.675   5.672
29628SOL    HW190781   8.501   8.632   5.652
29628SOL    HW290782   8.419   8.756   5.620
29629SOL     OW90783  13.648   4.442  12.984
29629SOL    HW190784  13.579   4.508  12.977
29629SOL    HW290785  13.639   4.390  12.904
29630SOL     OW90786   4.367   9.074   6.460
29630SOL    HW190787   4.339   9.126   6.535
29630SOL    HW290788   4.402   9.138   6.397
29631SOL     OW90789   0.240  10.244   9.687
29631SOL    HW190790   0.202  10.284   9.765
29631SOL    HW290791   0.331  10.225   9.711
29632SOL     OW90792   2.503  11.807   5.468
29632SOL    HW190793   2.433  11.764   5.518
29632SOL    HW290794   2.485  11.784   5.377
29633SOL     OW90795   3.801  13.573  13.610
29633SOL    HW190796   3.721  13.561  13.560
29633SOL    HW290797   3.772  13.607  13.695
29634SOL     OW90798   7.729   2.235  13.898
29634SOL    HW190799   7.716   2.319  13.942
29634SOL    HW290800   7.768   2.178  13.964
29635SOL     OW90801  14.016   0.195   3.734
29635SOL    HW190802  13.935   0.145   3.743
29635SOL    HW290803  14.080   0.145   3.784
29636SOL     OW90804   3.248   8.691  14.790
29636SOL    HW190805   3.250   8.608  14.838
29636SOL    HW290806   3.156   8.705  14.770
29637SOL     OW90807   5.780   5.491   4.743
29637SOL    HW190808   5.765   5.409   4.694
29637SOL    HW290809   5.870   5.484   4.774
29638SOL     OW90810   8.431  13.947   7.434
29638SOL    HW190811   8.451  13.870   7.380
29638SOL    HW290812   8.510  13.959   7.487
29639SOL     OW90813   8.185   9.230  14.032
29639SOL    HW190814   8.114   9.210  14.092
29639SOL    HW290815   8.222   9.311  14.066
29640SOL     OW90816  13.368   9.857  13.478
29640SOL    HW190817  13.360   9.848  13.573
29640SOL    HW290818  13.307   9.927  13.455
29641SOL     OW90819  12.280   7.028  13.928
29641SOL    HW190820  12.253   7.012  13.837
29641SOL    HW290821  12.204   7.003  13.980
29642SOL     OW90822   7.317   9.088  14.828
29642SOL    HW190823   7.232   9.086  14.783
29642SOL    HW290824   7.306   9.156   0.013
29643SOL     OW90825  10.847   5.547   0.931
29643SOL    HW190826  10.770   5.591   0.966
29643SOL    HW290827  10.817   5.459   0.908
29644SOL     OW90828   3.346   4.681   4.676
29644SOL    HW190829   3.420   4.660   4.620
29644SOL    HW290830   3.362   4.632   4.757
29645SOL     OW90831   2.943   8.466   5.629
29645SOL    HW190832   2.889   8.408   5.682
29645SOL    HW290833   2.932   8.435   5.540
29646SOL     OW90834   5.610  14.171   0.318
29646SOL    HW190835   5.572  14.116   0.249
29646SOL    HW290836   5.619  14.257   0.277
29647SOL     OW90837   0.779  12.570   6.580
29647SOL    HW190838   0.757  12.514   6.655
29647SOL    HW290839   0.804  12.509   6.511
29648SOL     OW90840   0.399   3.947   2.346
29648SOL    HW190841   0.382   3.991   2.430
29648SOL    HW290842   0.328   3.884   2.337
29649SOL     OW90843  11.728   4.441   0.602
29649SOL    HW190844  11.649   4.490   0.579
29649SOL    HW290845  11.742   4.463   0.694
29650SOL     OW90846  10.752   5.856  10.747
29650SOL    HW190847  10.722   5.767  10.731
29650SOL    HW290848  10.808   5.876  10.672
29651SOL     OW90849  11.879   9.473   0.549
29651SOL    HW190850  11.789   9.469   0.584
29651SOL    HW290851  11.875   9.426   0.466
29652SOL     OW90852   3.753   9.323  10.967
29652SOL    HW190853   3.710   9.406  10.984
29652SOL    HW290854   3.807   9.307  11.044
29653SOL     OW90855  11.216   1.841  12.566
29653SOL    HW190856  11.306   1.833  12.533
29653SOL    HW290857  11.163   1.853  12.488
29654SOL     OW90858  14.783   9.120   9.375
29654SOL    HW190859  14.876   9.109   9.360
29654SOL    HW290860  14.743   9.040   9.339
29655SOL     OW90861   1.800   2.325  10.565
29655SOL    HW190862   1.884   2.282  10.580
29655SOL    HW290863   1.780   2.369  10.647
29656SOL     OW90864   5.833   7.227   7.786
29656SOL    HW190865   5.884   7.239   7.866
29656SOL    HW290866   5.866   7.294   7.726
29657SOL     OW90867   5.776   0.833   2.196
29657SOL    HW190868   5.731   0.880   2.126
29657SOL    HW290869   5.867   0.831   2.169
29658SOL     OW90870  10.426   2.346   8.093
29658SOL    HW190871  10.358   2.299   8.045
29658SOL    HW290872  10.496   2.283   8.106
29659SOL     OW90873   8.479   4.399  12.356
29659SOL    HW190874   8.427   4.382  12.435
29659SOL    HW290875   8.547   4.460  12.385
29660SOL     OW90876   4.276   2.068   6.674
29660SOL    HW190877   4.241   1.989   6.634
29660SOL    HW290878   4.319   2.114   6.603
29661SOL     OW90879   8.205  14.690   0.474
29661SOL    HW190880   8.256  14.637   0.536
29661SOL    HW290881   8.170  14.762   0.527
29662SOL     OW90882   8.222  14.499   4.781
29662SOL    HW190883   8.298  14.443   4.762
29662SOL    HW290884   8.159  14.478   4.712
29663SOL     OW90885   6.970   0.463  14.761
29663SOL    HW190886   7.061   0.438  14.779
29663SOL    HW290887   6.956   0.438  14.669
29664SOL     OW90888   2.438  10.139  14.740
29664SOL    HW190889   2.434  10.053  14.699
29664SOL    HW290890   2.406  10.199  14.673
29665SOL     OW90891   8.628   9.509   9.953
29665SOL    HW190892   8.591   9.585   9.908
29665SOL    HW290893   8.554   9.469   9.998
29666SOL     OW90894  11.936   0.095   4.066
29666SOL    HW190895  11.869   0.081   3.999
29666SOL    HW290896  11.888   0.102   4.148
29667SOL     OW90897   7.457   0.935   7.600
29667SOL    HW190898   7.364   0.915   7.592
29667SOL    HW290899   7.485   0.889   7.679
29668SOL     OW90900   4.108  10.789   6.394
29668SOL    HW190901   4.195  10.788   6.433
29668SOL    HW290902   4.109  10.715   6.333
29669SOL     OW90903  13.941   9.663  11.682
29669SOL    HW190904  14.034   9.658  11.662
29669SOL    HW290905  13.903   9.713  11.610
29670SOL     OW90906  11.792   8.452   4.750
29670SOL    HW190907  11.778   8.494   4.665
29670SOL    HW290908  11.771   8.520   4.814
29671SOL     OW90909   5.768   4.826   2.418
29671SOL    HW190910   5.819   4.892   2.371
29671SOL    HW290911   5.789   4.840   2.510
29672SOL     OW90912   5.772   9.987  12.975
29672SOL    HW190913   5.834  10.030  13.034
29672SOL    HW290914   5.705  10.054  12.957
29673SOL     OW90915   7.081   6.579   8.968
29673SOL    HW190916   6.992   6.594   8.997
29673SOL    HW290917   7.135   6.630   9.029
29674SOL     OW90918   6.616   7.877   6.021
29674SOL    HW190919   6.581   7.849   6.106
29674SOL    HW290920   6.676   7.807   5.996
29675SOL     OW90921  12.214  13.988   6.906
29675SOL    HW190922  12.141  14.022   6.855
29675SOL    HW290923  12.292  14.017   6.858
29676SOL     OW90924   2.744  11.871   2.206
29676SOL    HW190925   2.835  11.842   2.216
29676SOL    HW290926   2.706  11.860   2.293
29677SOL     OW90927   8.498   7.468  11.622
29677SOL    HW190928   8.552   7.515  11.558
29677SOL    HW290929   8.411   7.506  11.611
29678SOL     OW90930   9.683   8.511   4.446
29678SOL    HW190931   9.734   8.583   4.408
29678SOL    HW290932   9.747   8.446   4.473
29679SOL     OW90933   0.594   7.980  10.903
29679SOL    HW190934   0.578   7.891  10.871
29679SOL    HW290935   0.567   8.037  10.831
29680SOL     OW90936  12.449   4.701  11.540
29680SOL    HW190937  12.533   4.748  11.539
29680SOL    HW290938  12.433   4.683  11.633
29681SOL     OW90939   8.692   4.578   6.237
29681SOL    HW190940   8.610   4.607   6.198
29681SOL    HW290941   8.675   4.488   6.265
29682SOL     OW90942   4.066   8.294   2.668
29682SOL    HW190943   4.153   8.287   2.708
29682SOL    HW290944   4.042   8.204   2.646
29683SOL     OW90945   0.280  12.259   6.704
29683SOL    HW190946   0.254  12.335   6.758
29683SOL    HW290947   0.333  12.297   6.634
29684SOL     OW90948   2.610  13.713   7.882
29684SOL    HW190949   2.596  13.768   7.959
29684SOL    HW290950   2.700  13.733   7.855
29685SOL     OW90951   8.786   6.735   4.439
29685SOL    HW190952   8.711   6.713   4.493
29685SOL    HW290953   8.766   6.696   4.354
29686SOL     OW90954  14.234   8.276  14.058
29686SOL    HW190955  14.310   8.314  14.103
29686SOL    HW290956  14.183   8.352  14.030
29687SOL     OW90957   6.648  14.279   2.366
29687SOL    HW190958   6.565  14.324   2.348
29687SOL    HW290959   6.715  14.346   2.351
29688SOL     OW90960  10.877   3.447   0.100
29688SOL    HW190961  10.940   3.472   0.033
29688SOL    HW290962  10.850   3.529   0.140
29689SOL     OW90963  11.037  13.643   1.098
29689SOL    HW190964  11.089  13.650   1.018
29689SOL    HW290965  10.955  13.688   1.077
29690SOL     OW90966   3.751   7.003   5.800
29690SOL    HW190967   3.712   6.971   5.882
29690SOL    HW290968   3.685   7.062   5.765
29691SOL     OW90969  11.802   0.054   4.315
29691SOL    HW190970  11.756   0.134   4.339
29691SOL    HW290971  11.879   0.053   4.372
29692SOL     OW90972  12.515   9.859   6.924
29692SOL    HW190973  12.589   9.886   6.978
29692SOL    HW290974  12.513   9.764   6.932
29693SOL     OW90975   5.905  11.156   0.082
29693SOL    HW190976   5.991  11.120   0.061
29693SOL    HW290977   5.894  11.139   0.175
29694SOL     OW90978   2.401  12.059   8.300
29694SOL    HW190979   2.333  11.991   8.298
29694SOL    HW290980   2.482  12.012   8.282
29695SOL     OW90981   3.096   3.337   0.613
29695SOL    HW190982   3.171   3.356   0.670
29695SOL    HW290983   3.019   3.357   0.666
29696SOL     OW90984   6.905   7.598   9.765
29696SOL    HW190985   6.849   7.612   9.689
29696SOL    HW290986   6.876   7.514   9.801
29697SOL     OW90987   2.166   9.989  11.114
29697SOL    HW190988   2.203  10.015  11.030
29697SOL    HW290989   2.188   9.897  11.124
29698SOL     OW90990   3.621   7.175   2.466
29698SOL    HW190991   3.565   7.111   2.422
29698SOL    HW290992   3.559   7.239   2.503
29699SOL     OW90993   2.991  11.786   2.250
29699SOL    HW190994   2.967  11.698   2.280
29699SOL    HW290995   3.075  11.803   2.292
29700SOL     OW90996   8.722   7.086  12.652
29700SOL    HW190997   8.655   7.140  12.611
29700SOL    HW290998   8.755   7.031  12.581
29701SOL     OW90999   1.594  14.828   3.032
29701SOL    HW191000   1.660   0.011   3.056
29701SOL    HW291001   1.557  14.800   3.116
29702SOL     OW91002   7.721  13.056   0.820
29702SOL    HW191003   7.701  13.002   0.744
29702SOL    HW291004   7.816  13.066   0.818
29703SOL     OW91005   2.674   7.397   6.638
29703SOL    HW191006   2.666   7.460   6.710
29703SOL    HW291007   2.594   7.345   6.644
29704SOL     OW91008  12.820   2.329  13.636
29704SOL    HW191009  12.794   2.261  13.698
29704SOL    HW291010  12.809   2.288  13.550
29705SOL     OW91011   9.909   4.220   4.252
29705SOL    HW191012   9.918   4.316   4.250
29705SOL    HW291013   9.879   4.197   4.165
29706SOL     OW91014   1.034   6.982   8.770
29706SOL    HW191015   0.995   7.054   8.818
29706SOL    HW291016   1.095   7.024   8.709
29707SOL     OW91017   0.147   4.999   2.671
29707SOL    HW191018   0.221   5.051   2.639
29707SOL    HW291019   0.169   4.979   2.762
29708SOL     OW91020   0.221   0.001  11.661
29708SOL    HW191021   0.313   0.027  11.667
29708SOL    HW291022   0.207  14.824  11.736
29709SOL     OW91023   0.102  13.623   6.916
29709SOL    HW191024   0.013  13.658   6.924
29709SOL    HW291025   0.099  13.563   6.842
29710SOL     OW91026  14.312   8.817   0.516
29710SOL    HW191027  14.365   8.893   0.489
29710SOL    HW291028  14.374   8.744   0.517
29711SOL     OW91029  11.344  13.808   1.141
29711SOL    HW191030  11.350  13.751   1.217
29711SOL    HW291031  11.320  13.894   1.177
29712SOL     OW91032   3.277  13.312   4.643
29712SOL    HW191033   3.193  13.359   4.647
29712SOL    HW291034   3.255  13.229   4.600
29713SOL     OW91035  11.151   0.955   1.091
29713SOL    HW191036  11.197   0.983   1.171
29713SOL    HW291037  11.133   1.036   1.044
29714SOL     OW91038  14.482  10.187   2.857
29714SOL    HW191039  14.399  10.236   2.858
29714SOL    HW291040  14.468  10.117   2.921
29715SOL     OW91041   8.819   9.032   4.615
29715SOL    HW191042   8.744   8.978   4.639
29715SOL    HW291043   8.822   9.100   4.682
29716SOL     OW91044   2.594  11.353  10.915
29716SOL    HW191045   2.586  11.399  10.831
29716SOL    HW291046   2.552  11.268  10.900
29717SOL     OW91047  10.446   1.682   7.543
29717SOL    HW191048  10.353   1.696   7.528
29717SOL    HW291049  10.485   1.683   7.455
29718SOL     OW91050   9.784   7.086  14.357
29718SOL    HW191051   9.861   7.029  14.366
29718SOL    HW291052   9.738   7.051  14.280
29719SOL     OW91053   4.312   3.508   7.094
29719SOL    HW191054   4.315   3.488   7.001
29719SOL    HW291055   4.326   3.603   7.099
29720SOL     OW91056  12.582  12.292   9.548
29720SOL    HW191057  12.487  12.288   9.559
29720SOL    HW291058  12.599  12.378   9.510
29721SOL     OW91059   4.249   2.945  13.902
29721SOL    HW191060   4.208   2.878  13.846
29721SOL    HW291061   4.176   2.998  13.933
29722SOL     OW91062  12.303   5.498   2.226
29722SOL    HW191063  12.380   5.447   2.199
29722SOL    HW291064  12.318   5.585   2.190
29723SOL     OW91065  11.566  14.851   1.750
29723SOL    HW191066  11.536   0.053   1.785
29723SOL    HW291067  11.490  14.814   1.706
29724SOL     OW91068   5.962  10.006  11.096
29724SOL    HW191069   5.996   9.918  11.115
29724SOL    HW291070   5.974  10.054  11.178
29725SOL     OW91071   9.213   5.516  10.733
29725SOL    HW191072   9.266   5.533  10.655
29725SOL    HW291073   9.197   5.422  10.731
29726SOL     OW91074  13.809  12.589   7.561
29726SOL    HW191075  13.790  12.496   7.573
29726SOL    HW291076  13.803  12.625   7.649
29727SOL     OW91077   3.270   3.183   0.473
29727SOL    HW191078   3.189   3.211   0.518
29727SOL    HW291079   3.324   3.262   0.472
29728SOL     OW91080   2.147   6.723  12.167
29728SOL    HW191081   2.214   6.689  12.225
29728SOL    HW291082   2.073   6.744  12.225
29729SOL     OW91083   3.225  10.597  11.528
29729SOL    HW191084   3.217  10.518  11.475
29729SOL    HW291085   3.301  10.581  11.585
29730SOL     OW91086   2.447   5.606   3.566
29730SOL    HW191087   2.413   5.531   3.517
29730SOL    HW291088   2.533   5.622   3.527
29731SOL     OW91089   9.362  13.605   9.565
29731SOL    HW191090   9.434  13.642   9.615
29731SOL    HW291091   9.384  13.512   9.557
29732SOL     OW91092   8.505   1.817  10.276
29732SOL    HW191093   8.592   1.778  10.260
29732SOL    HW291094   8.519   1.910  10.263
29733SOL     OW91095   3.346   3.502   8.038
29733SOL    HW191096   3.294   3.465   8.109
29733SOL    HW291097   3.329   3.596   8.043
29734SOL     OW91098   9.821   7.249   2.821
29734SOL    HW191099   9.785   7.169   2.781
29734SOL    HW291100   9.877   7.286   2.753
29735SOL     OW91101   9.785   2.250  10.013
29735SOL    HW191102   9.768   2.320  10.076
29735SOL    HW291103   9.763   2.288   9.928
29736SOL     OW91104   7.488   3.148  13.839
29736SOL    HW191105   7.521   3.226  13.883
29736SOL    HW291106   7.474   3.176  13.748
29737SOL     OW91107   5.858  13.027   7.580
29737SOL    HW191108   5.838  12.958   7.644
29737SOL    HW291109   5.946  13.005   7.548
29738SOL     OW91110   1.662   8.573  14.251
29738SOL    HW191111   1.583   8.626  14.247
29738SOL    HW291112   1.639   8.493  14.203
29739SOL     OW91113  11.206   1.012   3.647
29739SOL    HW191114  11.223   1.028   3.554
29739SOL    HW291115  11.154   1.087   3.675
29740SOL     OW91116  10.591  12.907   9.606
29740SOL    HW191117  10.543  12.954   9.674
29740SOL    HW291118  10.646  12.974   9.565
29741SOL     OW91119   1.982  12.395   0.202
29741SOL    HW191120   1.954  12.484   0.227
29741SOL    HW291121   2.053  12.409   0.140
29742SOL     OW91122   7.711   3.049   9.617
29742SOL    HW191123   7.691   3.105   9.692
29742SOL    HW291124   7.806   3.052   9.609
29743SOL     OW91125   0.311   4.266   8.307
29743SOL    HW191126   0.295   4.183   8.352
29743SOL    HW291127   0.388   4.303   8.351
29744SOL     OW91128   2.262   4.480  14.592
29744SOL    HW191129   2.350   4.511  14.571
29744SOL    HW291130   2.209   4.505  14.516
29745SOL     OW91131   2.653  11.016   8.972
29745SOL    HW191132   2.672  11.109   8.988
29745SOL    HW291133   2.562  11.015   8.944
29746SOL     OW91134   4.969   2.136  13.121
29746SOL    HW191135   4.962   2.048  13.158
29746SOL    HW291136   4.888   2.180  13.147
29747SOL     OW91137   6.160   8.366  13.369
29747SOL    HW191138   6.177   8.421  13.293
29747SOL    HW291139   6.225   8.296  13.363
29748SOL     OW91140   6.066  10.626  10.220
29748SOL    HW191141   6.126  10.612  10.147
29748SOL    HW291142   6.047  10.538  10.253
29749SOL     OW91143   8.243   4.731   3.575
29749SOL    HW191144   8.226   4.785   3.498
29749SOL    HW291145   8.337   4.735   3.587
29750SOL     OW91146   3.577   5.956   0.179
29750SOL    HW191147   3.511   5.948   0.110
29750SOL    HW291148   3.639   6.021   0.146
29751SOL     OW91149  13.967   6.013   4.019
29751SOL    HW191150  13.896   5.984   3.962
29751SOL    HW291151  13.944   5.981   4.106
29752SOL     OW91152   7.610   4.237   5.083
29752SOL    HW191153   7.693   4.228   5.130
29752SOL    HW291154   7.627   4.202   4.996
29753SOL     OW91155   9.030   3.691   2.411
29753SOL    HW191156   9.052   3.712   2.502
29753SOL    HW291157   8.940   3.658   2.416
29754SOL     OW91158  14.327  13.571   8.807
29754SOL    HW191159  14.233  13.561   8.794
29754SOL    HW291160  14.366  13.503   8.752
29755SOL     OW91161   0.740   1.976   8.923
29755SOL    HW191162   0.703   2.044   8.979
29755SOL    HW291163   0.673   1.959   8.857
29756SOL     OW91164   5.660  13.795   9.100
29756SOL    HW191165   5.603  13.859   9.144
29756SOL    HW291166   5.614  13.712   9.110
29757SOL     OW91167  10.206  11.030  13.244
29757SOL    HW191168  10.119  11.048  13.211
29757SOL    HW291169  10.254  10.993  13.170
29758SOL     OW91170   4.554   3.972   9.544
29758SOL    HW191171   4.601   3.890   9.531
29758SOL    HW291172   4.491   3.952   9.614
29759SOL     OW91173   7.880  10.412   3.227
29759SOL    HW191174   7.929  10.494   3.237
29759SOL    HW291175   7.794  10.431   3.264
29760SOL     OW91176  11.359   3.050   0.587
29760SOL    HW191177  11.426   3.002   0.539
29760SOL    HW291178  11.406   3.096   0.656
29761SOL     OW91179   6.406   2.355   6.510
29761SOL    HW191180   6.489   2.338   6.555
29761SOL    HW291181   6.375   2.436   6.548
29762SOL     OW91182  10.643   8.215   2.991
29762SOL    HW191183  10.716   8.267   2.957
29762SOL    HW291184  10.655   8.129   2.952
29763SOL     OW91185   3.796  10.366   9.886
29763SOL    HW191186   3.708  10.333   9.902
29763SOL    HW291187   3.809  10.357   9.792
29764SOL     OW91188   0.439   2.627   3.460
29764SOL    HW191189   0.357   2.674   3.443
29764SOL    HW291190   0.419   2.567   3.531
29765SOL     OW91191   7.647  10.028   5.624
29765SOL    HW191192   7.643   9.955   5.563
29765SOL    HW291193   7.696   9.995   5.699
29766SOL     OW91194   4.807  11.858   1.129
29766SOL    HW191195   4.860  11.900   1.197
29766SOL    HW291196   4.825  11.765   1.138
29767SOL     OW91197   5.875   5.071   0.704
29767SOL    HW191198   5.804   5.082   0.767
29767SOL    HW291199   5.937   5.012   0.748
29768SOL     OW91200   3.856   1.828   5.046
29768SOL    HW191201   3.947   1.846   5.023
29768SOL    HW291202   3.827   1.764   4.981
29769SOL     OW91203  12.374  13.371  13.067
29769SOL    HW191204  12.313  13.333  13.003
29769SOL    HW291205  12.320  13.429  13.120
29770SOL     OW91206   7.643   0.998   4.898
29770SOL    HW191207   7.677   1.043   4.820
29770SOL    HW291208   7.722   0.976   4.949
29771SOL     OW91209  10.013   7.121   8.894
29771SOL    HW191210  10.108   7.134   8.888
29771SOL    HW291211   9.993   7.136   8.986
29772SOL     OW91212   6.227   6.577   8.894
29772SOL    HW191213   6.161   6.519   8.934
29772SOL    HW291214   6.309   6.529   8.903
29773SOL     OW91215  14.382  13.065   0.949
29773SOL    HW191216  14.459  13.010   0.952
29773SOL    HW291217  14.324  13.029   1.016
29774SOL     OW91218  14.507   4.370   2.606
29774SOL    HW191219  14.535   4.421   2.682
29774SOL    HW291220  14.442   4.425   2.562
29775SOL     OW91221   5.013  10.753  11.487
29775SOL    HW191222   5.011  10.743  11.392
29775SOL    HW291223   4.941  10.698  11.518
29776SOL     OW91224  12.326   9.851  13.631
29776SOL    HW191225  12.233   9.835  13.614
29776SOL    HW291226  12.367   9.844  13.545
29777SOL     OW91227   2.965  12.025   2.038
29777SOL    HW191228   2.914  11.946   2.024
29777SOL    HW291229   2.932  12.061   2.121
29778SOL     OW91230   6.376   8.831   3.892
29778SOL    HW191231   6.451   8.881   3.922
29778SOL    HW291232   6.407   8.787   3.813
29779SOL     OW91233  11.580  11.660   2.231
29779SOL    HW191234  11.580  11.682   2.324
29779SOL    HW291235  11.673  11.654   2.208
29780SOL     OW91236  10.830   3.986   2.502
29780SOL    HW191237  10.759   4.009   2.442
29780SOL    HW291238  10.906   3.970   2.445
29781SOL     OW91239   4.843  12.966   2.923
29781SOL    HW191240   4.784  13.019   2.870
29781SOL    HW291241   4.903  12.925   2.861
29782SOL     OW91242   1.728   0.067   1.072
29782SOL    HW191243   1.669   0.141   1.086
29782SOL    HW291244   1.815   0.100   1.095
29783SOL     OW91245   3.599  13.883   6.498
29783SOL    HW191246   3.580  13.974   6.476
29783SOL    HW291247   3.660  13.887   6.571
29784SOL     OW91248   6.244   2.514  11.926
29784SOL    HW191249   6.208   2.429  11.953
29784SOL    HW291250   6.172   2.558  11.881
29785SOL     OW91251   3.505   7.564  10.576
29785SOL    HW191252   3.427   7.598  10.532
29785SOL    HW291253   3.543   7.640  10.621
29786SOL     OW91254   9.640   1.538   4.083
29786SOL    HW191255   9.716   1.490   4.051
29786SOL    HW291256   9.588   1.473   4.130
29787SOL     OW91257   5.602   4.766   8.254
29787SOL    HW191258   5.585   4.834   8.319
29787SOL    HW291259   5.584   4.809   8.170
29788SOL     OW91260   1.801  13.436   3.057
29788SOL    HW191261   1.794  13.516   3.109
29788SOL    HW291262   1.856  13.461   2.982
29789SOL     OW91263   0.082   9.177   5.581
29789SOL    HW191264   0.052   9.168   5.672
29789SOL    HW291265   0.011   9.139   5.529
29790SOL     OW91266   2.111   7.490   4.971
29790SOL    HW191267   2.194   7.526   5.004
29790SOL    HW291268   2.102   7.528   4.884
29791SOL     OW91269   2.587   9.447  12.467
29791SOL    HW191270   2.660   9.385  12.467
29791SOL    HW291271   2.545   9.434  12.552
29792SOL     OW91272  13.435   4.516  13.690
29792SOL    HW191273  13.432   4.611  13.704
29792SOL    HW291274  13.523   4.500  13.656
29793SOL     OW91275  13.733   6.349  14.664
29793SOL    HW191276  13.650   6.310  14.692
29793SOL    HW291277  13.709   6.437  14.636
29794SOL     OW91278  12.374   5.679   0.726
29794SOL    HW191279  12.361   5.618   0.798
29794SOL    HW291280  12.326   5.641   0.653
29795SOL     OW91281   1.884   6.782  10.720
29795SOL    HW191282   1.821   6.793  10.791
29795SOL    HW291283   1.927   6.867  10.712
29796SOL     OW91284   3.903   0.513   1.964
29796SOL    HW191285   3.859   0.463   1.895
29796SOL    HW291286   3.991   0.528   1.929
29797SOL     OW91287   6.006   0.555   6.549
29797SOL    HW191288   6.019   0.568   6.455
29797SOL    HW291289   6.025   0.640   6.588
29798SOL     OW91290   6.587   8.228   1.927
29798SOL    HW191291   6.522   8.214   1.859
29798SOL    HW291292   6.553   8.180   2.003
29799SOL     OW91293   8.305   8.883   0.594
29799SOL    HW191294   8.398   8.901   0.601
29799SOL    HW291295   8.298   8.816   0.526
29800SOL     OW91296   4.641   1.103  11.011
29800SOL    HW191297   4.714   1.099  10.949
29800SOL    HW291298   4.620   1.011  11.029
29801SOL     OW91299   7.658   4.811   3.680
29801SOL    HW191300   7.676   4.757   3.758
29801SOL    HW291301   7.566   4.794   3.660
29802SOL     OW91302   3.962   6.907  12.903
29802SOL    HW191303   4.021   6.890  12.977
29802SOL    HW291304   3.943   6.820  12.868
29803SOL     OW91305   3.156   3.025   8.297
29803SOL    HW191306   3.177   2.939   8.335
29803SOL    HW291307   3.114   3.004   8.213
29804SOL     OW91308   6.866  10.232  12.871
29804SOL    HW191309   6.879  10.139  12.886
29804SOL    HW291310   6.771  10.244  12.871
29805SOL     OW91311  11.672   8.016   5.039
29805SOL    HW191312  11.731   8.079   4.997
29805SOL    HW291313  11.597   8.068   5.067
29806SOL     OW91314  10.697   7.491   7.082
29806SOL    HW191315  10.650   7.562   7.126
29806SOL    HW291316  10.634   7.419   7.078
29807SOL     OW91317   7.907   5.326  13.144
29807SOL    HW191318   7.967   5.399  13.159
29807SOL    HW291319   7.846   5.358  13.078
29808SOL     OW91320   7.851   0.392   2.126
29808SOL    HW191321   7.824   0.389   2.034
29808SOL    HW291322   7.827   0.306   2.161
29809SOL     OW91323   8.048  14.880   4.530
29809SOL    HW191324   8.070  14.877   4.623
29809SOL    HW291325   8.133   0.011   4.486
29810SOL     OW91326  13.947  10.112  10.202
29810SOL    HW191327  13.974  10.036  10.149
29810SOL    HW291328  14.014  10.118  10.270
29811SOL     OW91329   5.655  11.792  11.864
29811SOL    HW191330   5.696  11.747  11.790
29811SOL    HW291331   5.710  11.770  11.939
29812SOL     OW91332  12.263  12.826  11.153
29812SOL    HW191333  12.316  12.891  11.200
29812SOL    HW291334  12.325  12.754  11.136
29813SOL     OW91335   4.698   4.076   3.519
29813SOL    HW191336   4.655   4.118   3.593
29813SOL    HW291337   4.681   3.982   3.530
29814SOL     OW91338  12.985   8.901   4.225
29814SOL    HW191339  12.909   8.960   4.220
29814SOL    HW291340  12.990   8.875   4.317
29815SOL     OW91341  14.707   4.730   7.161
29815SOL    HW191342  14.675   4.762   7.077
29815SOL    HW291343  14.670   4.790   7.226
29816SOL     OW91344   6.349   3.090   4.042
29816SOL    HW191345   6.364   2.996   4.031
29816SOL    HW291346   6.356   3.105   4.137
29817SOL     OW91347   7.844   9.245   4.655
29817SOL    HW191348   7.935   9.242   4.624
29817SOL    HW291349   7.842   9.317   4.717
29818SOL     OW91350  12.893   1.211  11.470
29818SOL    HW191351  12.901   1.157  11.548
29818SOL    HW291352  12.806   1.250  11.476
29819SOL     OW91353  12.285   2.434   5.990
29819SOL    HW191354  12.281   2.451   6.084
29819SOL    HW291355  12.296   2.339   5.983
29820SOL     OW91356   0.100  13.422  11.677
29820SOL    HW191357   0.017  13.375  11.690
29820SOL    HW291358   0.076  13.499  11.626
29821SOL     OW91359  10.250   6.395   7.586
29821SOL    HW191360  10.317   6.449   7.629
29821SOL    HW291361  10.294   6.362   7.508
29822SOL     OW91362  12.509   6.842   2.820
29822SOL    HW191363  12.539   6.850   2.911
29822SOL    HW291364  12.473   6.754   2.815
29823SOL     OW91365   1.974  10.188   9.985
29823SOL    HW191366   1.980  10.258  10.051
29823SOL    HW291367   1.945  10.233   9.906
29824SOL     OW91368   3.278  12.493   9.172
29824SOL    HW191369   3.362  12.511   9.130
29824SOL    HW291370   3.229  12.575   9.161
29825SOL     OW91371  10.056   0.549   7.898
29825SOL    HW191372  10.015   0.577   7.979
29825SOL    HW291373   9.989   0.499   7.852
29826SOL     OW91374   3.263   4.971   7.878
29826SOL    HW191375   3.304   4.999   7.797
29826SOL    HW291376   3.315   4.896   7.907
29827SOL     OW91377   5.219   4.815   8.185
29827SOL    HW191378   5.245   4.876   8.254
29827SOL    HW291379   5.186   4.872   8.115
29828SOL     OW91380   3.387   9.471  14.697
29828SOL    HW191381   3.413   9.462  14.789
29828SOL    HW291382   3.469   9.493  14.651
29829SOL     OW91383  10.005   9.855   2.403
29829SOL    HW191384   9.974   9.847   2.494
29829SOL    HW291385  10.095   9.885   2.412
29830SOL     OW91386  14.827   2.827   8.129
29830SOL    HW191387  14.794   2.907   8.170
29830SOL    HW291388  14.757   2.763   8.144
29831SOL     OW91389   4.850   1.558   5.607
29831SOL    HW191390   4.837   1.465   5.585
29831SOL    HW291391   4.927   1.584   5.558
29832SOL     OW91392  12.706  11.907  11.269
29832SOL    HW191393  12.635  11.892  11.331
29832SOL    HW291394  12.786  11.891  11.319
29833SOL     OW91395  10.084   8.145  13.211
29833SOL    HW191396  10.092   8.083  13.139
29833SOL    HW291397  10.104   8.094  13.289
29834SOL     OW91398   1.879  13.832  11.708
29834SOL    HW191399   1.870  13.814  11.614
29834SOL    HW291400   1.952  13.777  11.736
29835SOL     OW91401   9.443   6.456   5.032
29835SOL    HW191402   9.430   6.361   5.039
29835SOL    HW291403   9.529   6.471   5.072
29836SOL     OW91404  10.238   5.875   6.120
29836SOL    HW191405  10.264   5.799   6.067
29836SOL    HW291406  10.224   5.945   6.057
29837SOL     OW91407   0.740  13.058   5.440
29837SOL    HW191408   0.766  13.150   5.442
29837SOL    HW291409   0.675  13.049   5.509
29838SOL     OW91410  14.217   1.128   8.334
29838SOL    HW191411  14.209   1.107   8.427
29838SOL    HW291412  14.152   1.073   8.291
29839SOL     OW91413   3.256  13.576   0.237
29839SOL    HW191414   3.270  13.536   0.323
29839SOL    HW291415   3.226  13.664   0.256
29840SOL     OW91416   5.852   0.336  13.935
29840SOL    HW191417   5.900   0.408  13.894
29840SOL    HW291418   5.913   0.262  13.932
29841SOL     OW91419   0.561   2.569   9.699
29841SOL    HW191420   0.540   2.494   9.644
29841SOL    HW291421   0.504   2.639   9.665
29842SOL     OW91422   9.756   5.864   5.259
29842SOL    HW191423   9.725   5.853   5.169
29842SOL    HW291424   9.719   5.948   5.286
29843SOL     OW91425   0.352  10.046   6.790
29843SOL    HW191426   0.446  10.057   6.773
29843SOL    HW291427   0.310  10.100   6.723
29844SOL     OW91428   4.891   9.595   5.387
29844SOL    HW191429   4.834   9.555   5.452
29844SOL    HW291430   4.884   9.689   5.403
29845SOL     OW91431   1.168   1.799  12.288
29845SOL    HW191432   1.202   1.773  12.374
29845SOL    HW291433   1.148   1.716  12.244
29846SOL     OW91434   8.062   1.189   0.064
29846SOL    HW191435   8.030   1.119   0.007
29846SOL    HW291436   7.986   1.245   0.080
29847SOL     OW91437  13.370   5.022  14.181
29847SOL    HW191438  13.319   5.062  14.110
29847SOL    HW291439  13.397   4.937  14.147
29848SOL     OW91440  12.081   9.899   9.963
29848SOL    HW191441  12.109   9.973  10.017
29848SOL    HW291442  12.038   9.940   9.887
29849SOL     OW91443   2.051  10.981   9.629
29849SOL    HW191444   2.015  10.897   9.658
29849SOL    HW291445   2.119  10.957   9.566
29850SOL     OW91446  11.361  10.334   3.548
29850SOL    HW191447  11.331  10.354   3.637
29850SOL    HW291448  11.311  10.393   3.492
29851SOL     OW91449   8.744  13.228   1.035
29851SOL    HW191450   8.811  13.292   1.015
29851SOL    HW291451   8.662  13.270   1.010
29852SOL     OW91452   8.658   5.335   9.762
29852SOL    HW191453   8.718   5.369   9.828
29852SOL    HW291454   8.633   5.248   9.794
29853SOL     OW91455   4.821  12.250   3.711
29853SOL    HW191456   4.889  12.185   3.693
29853SOL    HW291457   4.865  12.334   3.703
29854SOL     OW91458   3.356  14.334  14.119
29854SOL    HW191459   3.310  14.345  14.202
29854SOL    HW291460   3.397  14.248  14.126
29855SOL     OW91461   5.939   5.249   8.313
29855SOL    HW191462   5.888   5.306   8.372
29855SOL    HW291463   6.024   5.292   8.307
29856SOL     OW91464  12.520   0.452   8.895
29856SOL    HW191465  12.514   0.358   8.877
29856SOL    HW291466  12.560   0.489   8.817
29857SOL     OW91467  12.777   6.013   2.545
29857SOL    HW191468  12.838   6.046   2.479
29857SOL    HW291469  12.691   6.025   2.505
29858SOL     OW91470   7.560   6.077  13.573
29858SOL    HW191471   7.471   6.042  13.564
29858SOL    HW291472   7.606   6.046  13.495
29859SOL     OW91473   0.467   2.664   5.724
29859SOL    HW191474   0.403   2.686   5.657
29859SOL    HW291475   0.451   2.571   5.743
29860SOL     OW91476   2.209   3.943   1.059
29860SOL    HW191477   2.305   3.949   1.051
29860SOL    HW291478   2.195   3.900   1.143
29861SOL     OW91479   9.800   3.026   0.809
29861SOL    HW191480   9.881   3.069   0.836
29861SOL    HW291481   9.821   2.986   0.724
29862SOL     OW91482   7.144  10.702  14.732
29862SOL    HW191483   7.129  10.729  14.642
29862SOL    HW291484   7.185  10.778  14.774
29863SOL     OW91485  13.665  12.454  12.556
29863SOL    HW191486  13.673  12.546  12.530
29863SOL    HW291487  13.754  12.420  12.551
29864SOL     OW91488   7.989  11.381   2.891
29864SOL    HW191489   7.931  11.449   2.923
29864SOL    HW291490   7.934  11.303   2.887
29865SOL     OW91491   2.410  12.274   1.106
29865SOL    HW191492   2.448  12.244   1.189
29865SOL    HW291493   2.473  12.338   1.073
29866SOL     OW91494   1.679  12.090   6.992
29866SOL    HW191495   1.763  12.118   7.028
29866SOL    HW291496   1.698  12.069   6.900
29867SOL     OW91497  14.321   5.218   9.377
29867SOL    HW191498  14.365   5.187   9.456
29867SOL    HW291499  14.282   5.301   9.403
29868SOL     OW91500  13.080   4.065  10.488
29868SOL    HW191501  13.160   4.017  10.468
29868SOL    HW291502  13.035   4.073  10.404
29869SOL     OW91503   8.417   5.601   7.357
29869SOL    HW191504   8.414   5.695   7.344
29869SOL    HW291505   8.339   5.581   7.409
29870SOL     OW91506   1.474   6.565  13.372
29870SOL    HW191507   1.486   6.644  13.320
29870SOL    HW291508   1.432   6.503  13.312
29871SOL     OW91509  12.054  13.906   4.713
29871SOL    HW191510  12.131  13.933   4.664
29871SOL    HW291511  12.055  13.810   4.710
29872SOL     OW91512   9.249  10.397   2.796
29872SOL    HW191513   9.287  10.469   2.846
29872SOL    HW291514   9.259  10.321   2.853
29873SOL     OW91515  11.416   6.941  10.415
29873SOL    HW191516  11.500   6.929  10.371
29873SOL    HW291517  11.386   7.027  10.385
29874SOL     OW91518   4.298   2.787   9.423
29874SOL    HW191519   4.218   2.838   9.408
29874SOL    HW291520   4.316   2.746   9.338
29875SOL     OW91521  14.009   5.550   7.154
29875SOL    HW191522  14.069   5.574   7.225
29875SOL    HW291523  14.066   5.511   7.087
29876SOL     OW91524   0.023  14.135  12.418
29876SOL    HW191525  14.843  14.139  12.491
29876SOL    HW291526   0.028  14.225  12.386
29877SOL     OW91527   5.688   4.421   7.520
29877SOL    HW191528   5.660   4.377   7.439
29877SOL    HW291529   5.665   4.512   7.507
29878SOL     OW91530  12.046   1.197  12.980
29878SOL    HW191531  12.023   1.290  12.984
29878SOL    HW291532  11.962   1.152  12.968
29879SOL     OW91533   3.808   4.858   6.918
29879SOL    HW191534   3.730   4.863   6.863
29879SOL    HW291535   3.878   4.831   6.858
29880SOL     OW91536   0.480  11.904  14.662
29880SOL    HW191537   0.492  11.827  14.717
29880SOL    HW291538   0.386  11.924  14.669
29881SOL     OW91539   6.740   2.592   0.577
29881SOL    HW191540   6.753   2.536   0.653
29881SOL    HW291541   6.694   2.669   0.611
29882SOL     OW91542   4.705   7.974  10.714
29882SOL    HW191543   4.658   8.027  10.649
29882SOL    HW291544   4.679   7.884  10.695
29883SOL     OW91545  13.999   6.263   7.171
29883SOL    HW191546  13.927   6.320   7.144
29883SOL    HW291547  14.078   6.305   7.134
29884SOL     OW91548  13.434   4.308   6.363
29884SOL    HW191549  13.506   4.288   6.303
29884SOL    HW291550  13.449   4.398   6.391
29885SOL     OW91551   4.318  10.319   0.265
29885SOL    HW191552   4.393  10.352   0.314
29885SOL    HW291553   4.313  10.226   0.287
29886SOL     OW91554  12.608  10.067   0.652
29886SOL    HW191555  12.703  10.056   0.660
29886SOL    HW291556  12.595  10.105   0.565
29887SOL     OW91557   4.980  10.697  10.454
29887SOL    HW191558   4.900  10.732  10.492
29887SOL    HW291559   4.960  10.685  10.361
29888SOL     OW91560  10.781  10.425   9.122
29888SOL    HW191561  10.795  10.331   9.123
29888SOL    HW291562  10.720  10.442   9.193
29889SOL     OW91563  12.341   9.512   0.343
29889SOL    HW191564  12.403   9.564   0.394
29889SOL    HW291565  12.394   9.441   0.305
29890SOL     OW91566  12.513   5.489   2.708
29890SOL    HW191567  12.510   5.584   2.700
29890SOL    HW291568  12.570   5.473   2.783
29891SOL     OW91569   5.357   7.142   1.838
29891SOL    HW191570   5.415   7.218   1.836
29891SOL    HW291571   5.297   7.156   1.765
29892SOL     OW91572   1.304  11.060  10.179
29892SOL    HW191573   1.242  11.039  10.249
29892SOL    HW291574   1.254  11.115  10.118
29893SOL     OW91575  10.883   7.237   1.112
29893SOL    HW191576  10.816   7.200   1.169
29893SOL    HW291577  10.966   7.209   1.150
29894SOL     OW91578  12.171   3.546   4.233
29894SOL    HW191579  12.085   3.553   4.192
29894SOL    HW291580  12.154   3.504   4.318
29895SOL     OW91581  10.491  14.533   5.771
29895SOL    HW191582  10.398  14.553   5.777
29895SOL    HW291583  10.497  14.439   5.787
29896SOL     OW91584   2.111  13.138  11.153
29896SOL    HW191585   2.064  13.220  11.167
29896SOL    HW291586   2.192  13.148  11.203
29897SOL     OW91587   9.471   6.579   5.601
29897SOL    HW191588   9.384   6.540   5.613
29897SOL    HW291589   9.454   6.672   5.585
29898SOL     OW91590   2.231  14.662   5.440
29898SOL    HW191591   2.268  14.747   5.463
29898SOL    HW291592   2.213  14.669   5.346
29899SOL     OW91593   7.727   8.582   6.176
29899SOL    HW191594   7.749   8.602   6.267
29899SOL    HW291595   7.811   8.588   6.130
29900SOL     OW91596   6.433   5.265   4.755
29900SOL    HW191597   6.465   5.206   4.824
29900SOL    HW291598   6.494   5.253   4.683
29901SOL     OW91599   3.571   8.062   6.528
29901SOL    HW191600   3.587   8.001   6.456
29901SOL    HW291601   3.652   8.113   6.536
29902SOL     OW91602   5.257   4.383  14.586
29902SOL    HW191603   5.261   4.355  14.677
29902SOL    HW291604   5.344   4.416  14.567
29903SOL     OW91605   7.782   0.330   6.289
29903SOL    HW191606   7.737   0.271   6.349
29903SOL    HW291607   7.874   0.307   6.296
29904SOL     OW91608   3.299   2.780   8.718
29904SOL    HW191609   3.280   2.710   8.780
29904SOL    HW291610   3.357   2.840   8.765
29905SOL     OW91611   3.317  14.594   8.971
29905SOL    HW191612   3.230  14.633   8.978
29905SOL    HW291613   3.314  14.519   9.030
29906SOL     OW91614  13.090   1.999   2.979
29906SOL    HW191615  13.131   1.962   3.057
29906SOL    HW291616  13.113   1.939   2.909
29907SOL     OW91617   7.628   0.690   5.981
29907SOL    HW191618   7.611   0.632   6.055
29907SOL    HW291619   7.637   0.631   5.906
29908SOL     OW91620  14.633   0.477   9.729
29908SOL    HW191621  14.545   0.499   9.698
29908SOL    HW291622  14.680   0.560   9.730
29909SOL     OW91623   4.288   7.857  11.029
29909SOL    HW191624   4.282   7.924  11.097
29909SOL    HW291625   4.380   7.854  11.005
29910SOL     OW91626  12.489   6.043   3.190
29910SOL    HW191627  12.409   5.993   3.209
29910SOL    HW291628  12.515   6.014   3.103
29911SOL     OW91629  13.157   5.319  14.484
29911SOL    HW191630  13.128   5.357  14.567
29911SOL    HW291631  13.164   5.225  14.502
29912SOL     OW91632   7.592  13.876  11.456
29912SOL    HW191633   7.610  13.798  11.508
29912SOL    HW291634   7.581  13.843  11.366
29913SOL     OW91635   8.705   6.380  13.398
29913SOL    HW191636   8.749   6.303  13.433
29913SOL    HW291637   8.771   6.449  13.399
29914SOL     OW91638  14.411   1.463  13.346
29914SOL    HW191639  14.470   1.511  13.405
29914SOL    HW291640  14.374   1.394  13.400
29915SOL     OW91641   6.826   3.015  10.774
29915SOL    HW191642   6.888   3.041  10.843
29915SOL    HW291643   6.814   2.921  10.787
29916SOL     OW91644   4.751   0.862  14.721
29916SOL    HW191645   4.714   0.795  14.664
29916SOL    HW291646   4.845   0.842  14.723
29917SOL     OW91647   6.834  10.176   8.003
29917SOL    HW191648   6.862  10.183   8.094
29917SOL    HW291649   6.780  10.254   7.989
29918SOL     OW91650   5.527   4.726   0.137
29918SOL    HW191651   5.463   4.795   0.116
29918SOL    HW291652   5.582   4.764   0.204
29919SOL     OW91653   5.223   7.997   7.401
29919SOL    HW191654   5.295   7.948   7.441
29919SOL    HW291655   5.260   8.084   7.385
29920SOL     OW91656   9.575   1.135   0.532
29920SOL    HW191657   9.519   1.116   0.606
29920SOL    HW291658   9.516   1.139   0.457
29921SOL     OW91659   1.946  11.608  12.543
29921SOL    HW191660   1.910  11.594  12.455
29921SOL    HW291661   1.869  11.607  12.600
29922SOL     OW91662   1.752   7.087   3.169
29922SOL    HW191663   1.677   7.056   3.119
29922SOL    HW291664   1.717   7.103   3.257
29923SOL     OW91665   4.915   9.069   3.016
29923SOL    HW191666   4.970   9.120   3.074
29923SOL    HW291667   4.862   9.134   2.969
29924SOL     OW91668  10.437   2.253  13.849
29924SOL    HW191669  10.428   2.343  13.818
29924SOL    HW291670  10.516   2.253  13.902
29925SOL     OW91671   4.317   5.481   7.743
29925SOL    HW191672   4.378   5.549   7.716
29925SOL    HW291673   4.323   5.415   7.674
29926SOL     OW91674   9.623  14.199   7.125
29926SOL    HW191675   9.648  14.291   7.138
29926SOL    HW291676   9.684  14.167   7.058
29927SOL     OW91677   2.108   7.577   1.255
29927SOL    HW191678   2.016   7.567   1.279
29927SOL    HW291679   2.128   7.668   1.278
29928SOL     OW91680   1.367   8.710   7.794
29928SOL    HW191681   1.341   8.618   7.792
29928SOL    HW291682   1.364   8.737   7.702
29929SOL     OW91683   2.905   8.581   4.052
29929SOL    HW191684   2.930   8.515   3.988
29929SOL    HW291685   2.977   8.644   4.051
29930SOL     OW91686   2.279  12.992   7.714
29930SOL    HW191687   2.210  13.058   7.716
29930SOL    HW291688   2.348  13.031   7.661
29931SOL     OW91689  11.886  13.433   5.650
29931SOL    HW191690  11.883  13.525   5.676
29931SOL    HW291691  11.837  13.429   5.568
29932SOL     OW91692   5.298   3.777   3.485
29932SOL    HW191693   5.383   3.768   3.527
29932SOL    HW291694   5.274   3.869   3.500
29933SOL     OW91695   9.573   4.334  12.364
29933SOL    HW191696   9.583   4.384  12.446
29933SOL    HW291697   9.482   4.305  12.365
29934SOL     OW91698   9.573   9.626   3.646
29934SOL    HW191699   9.658   9.583   3.649
29934SOL    HW291700   9.513   9.565   3.688
29935SOL     OW91701   8.401  11.196  11.027
29935SOL    HW191702   8.396  11.144  10.946
29935SOL    HW291703   8.348  11.274  11.009
29936SOL     OW91704  13.519   2.792  12.682
29936SOL    HW191705  13.539   2.702  12.709
29936SOL    HW291706  13.592   2.844  12.715
29937SOL     OW91707   2.356   5.319   7.572
29937SOL    HW191708   2.342   5.264   7.495
29937SOL    HW291709   2.435   5.370   7.552
29938SOL     OW91710  10.745   6.195   0.945
29938SOL    HW191711  10.759   6.288   0.925
29938SOL    HW291712  10.782   6.149   0.869
29939SOL     OW91713   9.182   4.266   2.942
29939SOL    HW191714   9.158   4.247   2.851
29939SOL    HW291715   9.126   4.340   2.966
29940SOL     OW91716   1.781   3.709   9.382
29940SOL    HW191717   1.764   3.770   9.311
29940SOL    HW291718   1.855   3.748   9.429
29941SOL     OW91719   8.857  11.261   9.309
29941SOL    HW191720   8.837  11.250   9.216
29941SOL    HW291721   8.775  11.291   9.348
29942SOL     OW91722   8.821   7.471  12.599
29942SOL    HW191723   8.853   7.534  12.535
29942SOL    HW291724   8.883   7.478  12.672
29943SOL     OW91725   2.691  12.183   0.946
29943SOL    HW191726   2.717  12.126   1.018
29943SOL    HW291727   2.772  12.229   0.922
29944SOL     OW91728   2.786   7.179   7.168
29944SOL    HW191729   2.840   7.105   7.197
29944SOL    HW291730   2.833   7.215   7.093
29945SOL     OW91731   7.822   7.504   2.594
29945SOL    HW191732   7.864   7.427   2.631
29945SOL    HW291733   7.891   7.549   2.546
29946SOL     OW91734   7.251   5.044   3.473
29946SOL    HW191735   7.270   4.968   3.529
29946SOL    HW291736   7.219   5.006   3.391
29947SOL     OW91737   7.100   3.934   7.733
29947SOL    HW191738   7.057   3.971   7.656
29947SOL    HW291739   7.103   4.006   7.796
29948SOL     OW91740   6.412   0.962  14.340
29948SOL    HW191741   6.450   1.004  14.417
29948SOL    HW291742   6.474   0.981  14.270
29949SOL     OW91743  10.079  13.608   6.244
29949SOL    HW191744  10.162  13.598   6.198
29949SOL    HW291745  10.042  13.690   6.210
29950SOL     OW91746   6.111   0.453  12.096
29950SOL    HW191747   6.128   0.547  12.090
29950SOL    HW291748   6.043   0.437  12.030
29951SOL     OW91749  13.534   1.413   1.425
29951SOL    HW191750  13.579   1.367   1.496
29951SOL    HW291751  13.487   1.343   1.378
29952SOL     OW91752   0.246   7.067  11.453
29952SOL    HW191753   0.217   7.155  11.428
29952SOL    HW291754   0.170   7.027  11.495
29953SOL     OW91755   1.188  14.450   4.693
29953SOL    HW191756   1.139  14.437   4.774
29953SOL    HW291757   1.227  14.364   4.675
29954SOL     OW91758  13.992   2.150   2.555
29954SOL    HW191759  14.019   2.185   2.470
29954SOL    HW291760  14.014   2.057   2.551
29955SOL     OW91761   5.354   1.012  12.675
29955SOL    HW191762   5.359   1.101  12.710
29955SOL    HW291763   5.400   0.959  12.741
29956SOL     OW91764   9.027   1.038  12.404
29956SOL    HW191765   8.964   1.068  12.470
29956SOL    HW291766   9.084   0.977  12.451
29957SOL     OW91767   1.026   4.885   8.777
29957SOL    HW191768   1.040   4.910   8.868
29957SOL    HW291769   1.089   4.815   8.761
29958SOL     OW91770  13.930  10.148  10.815
29958SOL    HW191771  13.919  10.155  10.720
29958SOL    HW291772  14.024  10.162  10.829
29959SOL     OW91773  13.907   7.001  11.861
29959SOL    HW191774  13.841   6.958  11.916
29959SOL    HW291775  13.910   6.949  11.781
29960SOL     OW91776   2.052  10.790   8.289
29960SOL    HW191777   2.130  10.795   8.344
29960SOL    HW291778   2.080  10.743   8.211
29961SOL     OW91779   7.011   6.643   7.213
29961SOL    HW191780   6.975   6.724   7.177
29961SOL    HW291781   7.042   6.594   7.136
29962SOL     OW91782   5.066  12.762   8.969
29962SOL    HW191783   5.010  12.696   9.009
29962SOL    HW291784   5.010  12.840   8.964
29963SOL     OW91785  12.782   2.291   4.245
29963SOL    HW191786  12.733   2.225   4.293
29963SOL    HW291787  12.745   2.374   4.273
29964SOL     OW91788  11.224   5.587  13.609
29964SOL    HW191789  11.276   5.508  13.590
29964SOL    HW291790  11.214   5.630  13.524
29965SOL     OW91791  12.320   6.199   6.261
29965SOL    HW191792  12.343   6.221   6.351
29965SOL    HW291793  12.238   6.151   6.269
29966SOL     OW91794   6.254  11.478   2.198
29966SOL    HW191795   6.303  11.485   2.280
29966SOL    HW291796   6.261  11.564   2.157
29967SOL     OW91797   3.973   3.381   9.040
29967SOL    HW191798   4.032   3.306   9.035
29967SOL    HW291799   4.009   3.435   9.110
29968SOL     OW91800  11.272  12.365   6.014
29968SOL    HW191801  11.265  12.454   5.979
29968SOL    HW291802  11.299  12.311   5.940
29969SOL     OW91803   3.376   9.011   6.279
29969SOL    HW191804   3.468   8.985   6.287
29969SOL    HW291805   3.335   8.979   6.359
29970SOL     OW91806  13.688  10.645   2.151
29970SOL    HW191807  13.725  10.728   2.183
29970SOL    HW291808  13.675  10.660   2.057
29971SOL     OW91809   6.959   1.922   6.285
29971SOL    HW191810   6.983   1.982   6.214
29971SOL    HW291811   6.902   1.973   6.342
29972SOL     OW91812  12.576   6.377   4.690
29972SOL    HW191813  12.552   6.434   4.617
29972SOL    HW291814  12.652   6.329   4.658
29973SOL     OW91815   7.584   4.716   5.022
29973SOL    HW191816   7.524   4.721   4.948
29973SOL    HW291817   7.661   4.766   4.994
29974SOL     OW91818   3.461   9.530   5.346
29974SOL    HW191819   3.472   9.502   5.255
29974SOL    HW291820   3.436   9.623   5.340
29975SOL     OW91821   8.158  10.768   5.324
29975SOL    HW191822   8.228  10.736   5.380
29975SOL    HW291823   8.195  10.771   5.236
29976SOL     OW91824   4.001   1.968   9.082
29976SOL    HW191825   3.960   1.883   9.068
29976SOL    HW291826   3.936   2.020   9.128
29977SOL     OW91827   4.150  13.146   0.735
29977SOL    HW191828   4.190  13.223   0.775
29977SOL    HW291829   4.059  13.172   0.719
29978SOL     OW91830   0.404   6.986   8.247
29978SOL    HW191831   0.355   6.904   8.251
29978SOL    HW291832   0.351   7.048   8.297
29979SOL     OW91833  11.322   6.085   2.264
29979SOL    HW191834  11.335   6.109   2.173
29979SOL    HW291835  11.400   6.117   2.309
29980SOL     OW91836   6.003   5.096   6.637
29980SOL    HW191837   5.975   5.119   6.726
29980SOL    HW291838   6.019   5.002   6.641
29981SOL     OW91839  13.725   1.978  10.879
29981SOL    HW191840  13.686   1.934  10.804
29981SOL    HW291841  13.695   1.928  10.955
29982SOL     OW91842   5.511   7.824  12.829
29982SOL    HW191843   5.428   7.870  12.846
29982SOL    HW291844   5.577   7.893  12.833
29983SOL     OW91845   9.697  11.913   1.035
29983SOL    HW191846   9.775  11.964   1.057
29983SOL    HW291847   9.702  11.837   1.092
29984SOL     OW91848   5.994   7.157  11.524
29984SOL    HW191849   5.930   7.086  11.524
29984SOL    HW291850   6.078   7.113  11.507
29985SOL     OW91851  14.557   6.229  10.951
29985SOL    HW191852  14.608   6.218  11.030
29985SOL    HW291853  14.543   6.324  10.944
29986SOL     OW91854  11.463   0.590   5.575
29986SOL    HW191855  11.556   0.568   5.583
29986SOL    HW291856  11.426   0.567   5.660
29987SOL     OW91857  12.624   0.526   4.435
29987SOL    HW191858  12.663   0.531   4.348
29987SOL    HW291859  12.533   0.552   4.422
29988SOL     OW91860   1.630   5.888  14.802
29988SOL    HW191861   1.720   5.909  14.827
29988SOL    HW291862   1.594   5.842  14.877
29989SOL     OW91863  14.733   6.138   6.905
29989SOL    HW191864  14.668   6.074   6.875
29989SOL    HW291865  14.815   6.110   6.862
29990SOL     OW91866   6.237  10.909   8.420
29990SOL    HW191867   6.163  10.922   8.361
29990SOL    HW291868   6.197  10.882   8.502
29991SOL     OW91869  10.558   1.238   8.259
29991SOL    HW191870  10.464   1.250   8.249
29991SOL    HW291871  10.569   1.144   8.277
29992SOL     OW91872   9.345  14.127   6.663
29992SOL    HW191873   9.374  14.179   6.738
29992SOL    HW291874   9.426  14.107   6.615
29993SOL     OW91875   6.507  10.136   7.119
29993SOL    HW191876   6.528  10.076   7.190
29993SOL    HW291877   6.427  10.100   7.080
29994SOL     OW91878   5.995   3.811   9.181
29994SOL    HW191879   6.063   3.793   9.246
29994SOL    HW291880   5.925   3.749   9.202
29995SOL     OW91881   9.910  12.684   7.139
29995SOL    HW191882   9.873  12.613   7.086
29995SOL    HW291883   9.979  12.721   7.085
29996SOL     OW91884   2.106   5.724  11.758
29996SOL    HW191885   2.132   5.655  11.697
29996SOL    HW291886   2.082   5.677  11.838
29997SOL     OW91887   2.094  13.066   8.340
29997SOL    HW191888   2.140  13.124   8.278
29997SOL    HW291889   2.150  12.989   8.346
29998SOL     OW91890   7.449  12.675   5.054
29998SOL    HW191891   7.495  12.731   4.992
29998SOL    HW291892   7.461  12.717   5.139
29999SOL     OW91893  10.057   3.731   2.807
29999SOL    HW191894  10.152   3.721   2.801
29999SOL    HW291895  10.026   3.646   2.838
30000SOL     OW91896  12.742   1.676   1.997
30000SOL    HW191897  12.815   1.738   1.992
30000SOL    HW291898  12.664   1.731   1.990
30001SOL     OW91899  11.860   3.484   0.216
30001SOL    HW191900  11.870   3.451   0.306
30001SOL    HW291901  11.920   3.430   0.165
30002SOL     OW91902   2.171   8.362   0.057
30002SOL    HW191903   2.205   8.445   0.089
30002SOL    HW291904   2.248   8.314   0.027
30003SOL     OW91905   5.887   9.277   9.630
30003SOL    HW191906   5.834   9.289   9.709
30003SOL    HW291907   5.827   9.240   9.565
30004SOL     OW91908  11.623   9.020  10.124
30004SOL    HW191909  11.697   8.975  10.082
30004SOL    HW291910  11.574   8.950  10.167
30005SOL     OW91911  11.261  14.371  11.858
30005SOL    HW191912  11.291  14.444  11.803
30005SOL    HW291913  11.305  14.294  11.823
30006SOL     OW91914   0.273   9.247   2.228
30006SOL    HW191915   0.330   9.195   2.284
30006SOL    HW291916   0.186   9.237   2.265
30007SOL     OW91917   7.125   5.072   0.564
30007SOL    HW191918   7.092   5.154   0.600
30007SOL    HW291919   7.217   5.070   0.589
30008SOL     OW91920   5.926   0.413   7.740
30008SOL    HW191921   5.947   0.487   7.798
30008SOL    HW291922   5.854   0.445   7.686
30009SOL     OW91923   3.429   5.681   3.303
30009SOL    HW191924   3.366   5.715   3.366
30009SOL    HW291925   3.474   5.759   3.269
30010SOL     OW91926  11.314   4.664  11.749
30010SOL    HW191927  11.361   4.747  11.761
30010SOL    HW291928  11.302   4.630  11.838
30011SOL     OW91929  13.729   3.396   4.258
30011SOL    HW191930  13.728   3.474   4.313
30011SOL    HW291931  13.818   3.392   4.223
30012SOL     OW91932  11.346   0.830   3.821
30012SOL    HW191933  11.436   0.851   3.796
30012SOL    HW291934  11.293   0.893   3.772
30013SOL     OW91935   1.081   5.861   9.310
30013SOL    HW191936   1.102   5.921   9.382
30013SOL    HW291937   1.134   5.893   9.236
30014SOL     OW91938   3.415   4.434  10.761
30014SOL    HW191939   3.424   4.341  10.781
30014SOL    HW291940   3.394   4.436  10.667
30015SOL     OW91941   3.142   3.830   4.693
30015SOL    HW191942   3.197   3.849   4.769
30015SOL    HW291943   3.070   3.777   4.729
30016SOL     OW91944   5.918  12.847   8.658
30016SOL    HW191945   5.909  12.905   8.734
30016SOL    HW291946   5.841  12.865   8.605
30017SOL     OW91947  11.308   3.005  10.738
30017SOL    HW191948  11.295   2.933  10.800
30017SOL    HW291949  11.400   2.998  10.712
30018SOL     OW91950   9.354  10.859   6.844
30018SOL    HW191951   9.380  10.844   6.935
30018SOL    HW291952   9.307  10.780   6.818
30019SOL     OW91953  11.036  10.663  11.119
30019SOL    HW191954  11.003  10.750  11.141
30019SOL    HW291955  11.027  10.613  11.200
30020SOL     OW91956   8.597   4.632   8.997
30020SOL    HW191957   8.526   4.581   9.037
30020SOL    HW291958   8.653   4.566   8.956
30021SOL     OW91959   1.391  11.545  13.126
30021SOL    HW191960   1.463  11.552  13.063
30021SOL    HW291961   1.433  11.544  13.212
30022SOL     OW91962  11.003  12.097   1.050
30022SOL    HW191963  10.986  12.175   0.998
30022SOL    HW291964  10.939  12.033   1.019
30023SOL     OW91965   9.186   4.145   1.228
30023SOL    HW191966   9.179   4.135   1.133
30023SOL    HW291967   9.151   4.063   1.263
30024SOL     OW91968   0.460   1.662  14.057
30024SOL    HW191969   0.457   1.567  14.070
30024SOL    HW291970   0.536   1.691  14.106
30025SOL     OW91971   4.761   8.314   6.310
30025SOL    HW191972   4.806   8.397   6.321
30025SOL    HW291973   4.734   8.313   6.218
30026SOL     OW91974   5.843  10.625  12.823
30026SOL    HW191975   5.854  10.644  12.730
30026SOL    HW291976   5.751  10.647  12.841
30027SOL     OW91977  12.116  12.193   6.052
30027SOL    HW191978  12.137  12.286   6.050
30027SOL    HW291979  12.186  12.153   6.103
30028SOL     OW91980  12.708   0.368   9.345
30028SOL    HW191981  12.619   0.341   9.321
30028SOL    HW291982  12.714   0.458   9.313
30029SOL     OW91983   9.741  14.535  14.840
30029SOL    HW191984   9.762  14.478  14.766
30029SOL    HW291985   9.757  14.624  14.808
30030SOL     OW91986   3.551   4.935   2.249
30030SOL    HW191987   3.460   4.912   2.266
30030SOL    HW291988   3.562   4.920   2.155
30031SOL     OW91989   8.486   6.160   2.695
30031SOL    HW191990   8.472   6.225   2.625
30031SOL    HW291991   8.410   6.172   2.752
30032SOL     OW91992   0.283   2.543   6.071
30032SOL    HW191993   0.225   2.608   6.031
30032SOL    HW291994   0.225   2.483   6.117
30033SOL     OW91995   3.829   9.172  11.424
30033SOL    HW191996   3.743   9.177  11.466
30033SOL    HW291997   3.817   9.214  11.339
30034SOL     OW91998   1.799   7.965   0.761
30034SOL    HW191999   1.799   7.942   0.853
30034SOL    HW292000   1.712   8.003   0.746
30035SOL     OW92001   5.255  12.822   3.218
30035SOL    HW192002   5.184  12.798   3.157
30035SOL    HW292003   5.314  12.876   3.166
30036SOL     OW92004   3.290  11.049   2.171
30036SOL    HW192005   3.201  11.017   2.179
30036SOL    HW292006   3.318  11.064   2.262
30037SOL     OW92007   3.056   7.909   4.951
30037SOL    HW192008   3.045   7.982   5.013
30037SOL    HW292009   3.031   7.831   5.001
30038SOL     OW92010  13.756   1.346   2.982
30038SOL    HW192011  13.662   1.363   2.972
30038SOL    HW292012  13.797   1.423   2.942
30039SOL     OW92013  12.412  11.378  10.186
30039SOL    HW192014  12.373  11.403  10.103
30039SOL    HW292015  12.410  11.458  10.239
30040SOL     OW92016  14.440  13.749   5.856
30040SOL    HW192017  14.461  13.791   5.773
30040SOL    HW292018  14.380  13.678   5.833
30041SOL     OW92019   4.395   6.826   8.411
30041SOL    HW192020   4.429   6.875   8.486
30041SOL    HW292021   4.379   6.892   8.344
30042SOL     OW92022   2.431   2.614   2.136
30042SOL    HW192023   2.402   2.538   2.187
30042SOL    HW292024   2.513   2.641   2.177
30043SOL     OW92025   3.550  11.322  11.597
30043SOL    HW192026   3.563  11.405  11.551
30043SOL    HW292027   3.639  11.294  11.620
30044SOL     OW92028   8.950   3.571   4.342
30044SOL    HW192029   8.933   3.658   4.378
30044SOL    HW292030   9.007   3.587   4.267
30045SOL     OW92031  13.111  14.032   6.218
30045SOL    HW192032  13.147  13.950   6.184
30045SOL    HW292033  13.178  14.098   6.198
30046SOL     OW92034   6.232   9.032   3.515
30046SOL    HW192035   6.280   9.104   3.556
30046SOL    HW292036   6.185   8.990   3.587
30047SOL     OW92037   7.085   0.106  10.130
30047SOL    HW192038   7.157   0.114  10.068
30047SOL    HW292039   7.095   0.181  10.189
30048SOL     OW92040   2.297   0.899   5.215
30048SOL    HW192041   2.238   0.970   5.240
30048SOL    HW292042   2.323   0.859   5.298
30049SOL     OW92043   1.640  14.355  14.551
30049SOL    HW192044   1.724  14.386  14.583
30049SOL    HW292045   1.661  14.308  14.470
30050SOL     OW92046   1.828   2.505   0.608
30050SOL    HW192047   1.764   2.576   0.616
30050SOL    HW292048   1.865   2.515   0.521
30051SOL     OW92049   5.831   1.663   9.790
30051SOL    HW192050   5.915   1.679   9.747
30051SOL    HW292051   5.766   1.701   9.731
30052SOL     OW92052  10.372   0.880   2.746
30052SOL    HW192053  10.352   0.929   2.825
30052SOL    HW292054  10.423   0.804   2.776
30053SOL     OW92055  11.385   7.892   5.939
30053SOL    HW192056  11.436   7.811   5.925
30053SOL    HW292057  11.443   7.947   5.991
30054SOL     OW92058   8.651  10.582   3.677
30054SOL    HW192059   8.688  10.645   3.615
30054SOL    HW292060   8.570  10.553   3.636
30055SOL     OW92061   2.342   1.262   0.753
30055SOL    HW192062   2.297   1.316   0.817
30055SOL    HW292063   2.284   1.262   0.677
30056SOL     OW92064  13.082   3.352   9.826
30056SOL    HW192065  13.119   3.432   9.789
30056SOL    HW292066  12.988   3.359   9.809
30057SOL     OW92067   8.349  12.822  11.122
30057SOL    HW192068   8.411  12.894  11.125
30057SOL    HW292069   8.263  12.864  11.126
30058SOL     OW92070  13.168   6.809   9.555
30058SOL    HW192071  13.122   6.734   9.592
30058SOL    HW292072  13.134   6.884   9.604
30059SOL     OW92073   4.590   5.674   6.087
30059SOL    HW192074   4.540   5.754   6.068
30059SOL    HW292075   4.600   5.632   6.001
30060SOL     OW92076   9.801  14.386   5.561
30060SOL    HW192077   9.866  14.372   5.492
30060SOL    HW292078   9.797  14.481   5.573
30061SOL     OW92079  10.396  10.922  12.856
30061SOL    HW192080  10.447  10.972  12.793
30061SOL    HW292081  10.390  10.834  12.818
30062SOL     OW92082   4.859   6.455   4.662
30062SOL    HW192083   4.823   6.388   4.721
30062SOL    HW292084   4.847   6.538   4.710
30063SOL     OW92085   8.043   7.092   3.033
30063SOL    HW192086   8.037   7.019   3.095
30063SOL    HW292087   7.963   7.142   3.048
30064SOL     OW92088   5.614  14.038   5.085
30064SOL    HW192089   5.518  14.037   5.092
30064SOL    HW292090   5.637  13.950   5.055
30065SOL     OW92091   0.765   1.061   8.443
30065SOL    HW192092   0.810   1.013   8.375
30065SOL    HW292093   0.706   1.121   8.396
30066SOL     OW92094   4.481  13.758  13.252
30066SOL    HW192095   4.452  13.837  13.207
30066SOL    HW292096   4.428  13.755  13.331
30067SOL     OW92097  14.079  10.383  10.151
30067SOL    HW192098  14.042  10.295  10.150
30067SOL    HW292099  14.130  10.389  10.070
30068SOL     OW92100   1.222   1.487   6.708
30068SOL    HW192101   1.205   1.570   6.752
30068SOL    HW292102   1.239   1.510   6.617
30069SOL     OW92103   1.150   9.149   8.049
30069SOL    HW192104   1.101   9.195   7.981
30069SOL    HW292105   1.108   9.064   8.056
30070SOL     OW92106   0.093  12.531   7.508
30070SOL    HW192107   0.163  12.576   7.460
30070SOL    HW292108   0.115  12.544   7.600
30071SOL     OW92109  10.151   4.570   4.071
30071SOL    HW192110  10.082   4.635   4.059
30071SOL    HW292111  10.204   4.576   3.992
30072SOL     OW92112  13.020   0.479   7.216
30072SOL    HW192113  13.054   0.479   7.127
30072SOL    HW292114  12.939   0.529   7.212
30073SOL     OW92115   8.980  13.345  10.723
30073SOL    HW192116   8.892  13.319  10.696
30073SOL    HW292117   8.984  13.321  10.816
30074SOL     OW92118  11.122  11.634   9.034
30074SOL    HW192119  11.152  11.719   9.001
30074SOL    HW292120  11.195  11.602   9.088
30075SOL     OW92121   8.990   2.677  10.317
30075SOL    HW192122   8.996   2.664  10.411
30075SOL    HW292123   8.975   2.771  10.306
30076SOL     OW92124   9.667  10.635  14.258
30076SOL    HW192125   9.728  10.563  14.239
30076SOL    HW292126   9.635  10.662  14.172
30077SOL     OW92127   2.705   1.399   5.279
30077SOL    HW192128   2.683   1.486   5.313
30077SOL    HW292129   2.783   1.373   5.329
30078SOL     OW92130   5.045  14.670  14.006
30078SOL    HW192131   5.067  14.754  14.046
30078SOL    HW292132   5.112  14.610  14.039
30079SOL     OW92133   3.545   3.838   4.732
30079SOL    HW192134   3.522   3.805   4.819
30079SOL    HW292135   3.469   3.818   4.678
30080SOL     OW92136  12.413   6.033   4.699
30080SOL    HW192137  12.411   5.937   4.697
30080SOL    HW292138  12.420   6.058   4.607
30081SOL     OW92139   0.512   2.820  14.530
30081SOL    HW192140   0.477   2.888  14.588
30081SOL    HW292141   0.454   2.745  14.543
30082SOL     OW92142   4.928  13.284   3.851
30082SOL    HW192143   4.868  13.335   3.796
30082SOL    HW292144   5.015  13.317   3.828
30083SOL     OW92145   8.864  12.995  11.358
30083SOL    HW192146   8.860  12.956  11.271
30083SOL    HW292147   8.826  12.928  11.416
30084SOL     OW92148   7.187   1.809  11.089
30084SOL    HW192149   7.210   1.737  11.031
30084SOL    HW292150   7.207   1.888  11.038
30085SOL     OW92151   2.363   0.928  11.892
30085SOL    HW192152   2.271   0.905  11.884
30085SOL    HW292153   2.406   0.847  11.920
30086SOL     OW92154   5.977   4.972  10.666
30086SOL    HW192155   6.012   4.916  10.736
30086SOL    HW292156   5.992   4.923  10.586
30087SOL     OW92157   3.676  12.788   5.850
30087SOL    HW192158   3.696  12.717   5.911
30087SOL    HW292159   3.718  12.762   5.768
30088SOL     OW92160  10.325   6.928   3.830
30088SOL    HW192161  10.262   6.867   3.867
30088SOL    HW292162  10.398   6.929   3.891
30089SOL     OW92163  14.522   5.503   8.887
30089SOL    HW192164  14.472   5.566   8.939
30089SOL    HW292165  14.580   5.460   8.950
30090SOL     OW92166   2.025  12.695  13.252
30090SOL    HW192167   2.008  12.770  13.194
30090SOL    HW292168   1.970  12.712  13.328
30091SOL     OW92169   5.735   4.015  11.690
30091SOL    HW192170   5.762   4.055  11.607
30091SOL    HW292171   5.778   3.930  11.690
30092SOL     OW92172  11.375   1.364  14.001
30092SOL    HW192173  11.315   1.371  13.927
30092SOL    HW292174  11.353   1.281  14.043
30093SOL     OW92175   9.539  10.141   7.548
30093SOL    HW192176   9.563  10.057   7.509
30093SOL    HW292177   9.503  10.118   7.634
30094SOL     OW92178   5.377  12.220  11.435
30094SOL    HW192179   5.306  12.285  11.439
30094SOL    HW292180   5.377  12.179  11.521
30095SOL     OW92181   0.274   9.445  14.823
30095SOL    HW192182   0.262   9.362  14.777
30095SOL    HW292183   0.368   9.462  14.819
30096SOL     OW92184  10.062   2.924   5.751
30096SOL    HW192185   9.993   2.858   5.752
30096SOL    HW292186  10.108   2.909   5.668
30097SOL     OW92187   9.912   2.024   0.314
30097SOL    HW192188  10.003   2.002   0.329
30097SOL    HW292189   9.863   1.965   0.371
30098SOL     OW92190   3.023  14.586  14.754
30098SOL    HW192191   3.043  14.635  14.674
30098SOL    HW292192   3.092  14.612  14.816
30099SOL     OW92193  11.498  11.828   4.953
30099SOL    HW192194  11.494  11.789   4.865
30099SOL    HW292195  11.453  11.912   4.944
30100SOL     OW92196  11.782  11.851  12.791
30100SOL    HW192197  11.724  11.927  12.787
30100SOL    HW292198  11.819  11.844  12.704
30101SOL     OW92199   2.528   8.571   8.939
30101SOL    HW192200   2.582   8.497   8.969
30101SOL    HW292201   2.442   8.533   8.924
30102SOL     OW92202   0.729  10.599  12.013
30102SOL    HW192203   0.667  10.578  11.942
30102SOL    HW292204   0.722  10.524  12.072
30103SOL     OW92205   8.201   6.531   4.058
30103SOL    HW192206   8.245   6.611   4.030
30103SOL    HW292207   8.271   6.476   4.094
30104SOL     OW92208  11.074  11.462  13.209
30104SOL    HW192209  11.004  11.398  13.223
30104SOL    HW292210  11.028  11.542  13.185
30105SOL     OW92211  12.809   7.894   6.476
30105SOL    HW192212  12.755   7.866   6.549
30105SOL    HW292213  12.835   7.813   6.432
30106SOL     OW92214  14.825   2.904   3.250
30106SOL    HW192215   0.006   2.970   3.278
30106SOL    HW292216  14.784   2.874   3.331
30107SOL     OW92217  13.336   8.936   6.745
30107SOL    HW192218  13.297   8.939   6.833
30107SOL    HW292219  13.261   8.942   6.686
30108SOL     OW92220   8.641  13.549   8.367
30108SOL    HW192221   8.559  13.583   8.403
30108SOL    HW292222   8.680  13.499   8.438
30109SOL     OW92223   4.112   3.238  11.432
30109SOL    HW192224   4.061   3.162  11.404
30109SOL    HW292225   4.057   3.314  11.410
30110SOL     OW92226  10.809   5.283  13.101
30110SOL    HW192227  10.836   5.353  13.041
30110SOL    HW292228  10.786   5.328  13.182
30111SOL     OW92229   5.153   0.667   4.481
30111SOL    HW192230   5.105   0.678   4.563
30111SOL    HW292231   5.100   0.606   4.431
30112SOL     OW92232   1.899   2.712   9.897
30112SOL    HW192233   1.821   2.665   9.928
30112SOL    HW292234   1.973   2.661   9.930
30113SOL     OW92235  12.312  10.398  13.882
30113SOL    HW192236  12.388  10.345  13.856
30113SOL    HW292237  12.247  10.334  13.911
30114SOL     OW92238  14.025   5.765   9.039
30114SOL    HW192239  14.104   5.738   9.086
30114SOL    HW292240  14.035   5.860   9.029
30115SOL     OW92241   6.508   3.339   0.223
30115SOL    HW192242   6.540   3.271   0.282
30115SOL    HW292243   6.429   3.372   0.266
30116SOL     OW92244   2.752   2.654  10.625
30116SOL    HW192245   2.714   2.742  10.627
30116SOL    HW292246   2.834   2.664  10.576
30117SOL     OW92247   8.730   4.313   3.083
30117SOL    HW192248   8.748   4.220   3.097
30117SOL    HW292249   8.647   4.315   3.035
30118SOL     OW92250  13.941  12.279   3.560
30118SOL    HW192251  13.972  12.369   3.553
30118SOL    HW292252  13.863  12.276   3.504
30119SOL     OW92253   8.073  10.447   7.948
30119SOL    HW192254   8.051  10.540   7.951
30119SOL    HW292255   8.167  10.446   7.930
30120SOL     OW92256   8.577   2.178   8.297
30120SOL    HW192257   8.597   2.090   8.265
30120SOL    HW292258   8.546   2.166   8.386
30121SOL     OW92259  13.405   9.272   7.768
30121SOL    HW192260  13.433   9.239   7.683
30121SOL    HW292261  13.479   9.325   7.798
30122SOL     OW92262   3.103   4.530  11.679
30122SOL    HW192263   3.118   4.624  11.687
30122SOL    HW292264   3.184   4.490  11.708
30123SOL     OW92265  11.846  13.656   3.497
30123SOL    HW192266  11.891  13.618   3.422
30123SOL    HW292267  11.864  13.596   3.570
30124SOL     OW92268   9.702   7.252  10.218
30124SOL    HW192269   9.742   7.336  10.195
30124SOL    HW292270   9.737   7.190  10.154
30125SOL     OW92271   8.388   0.905  14.574
30125SOL    HW192272   8.379   0.954  14.493
30125SOL    HW292273   8.317   0.938  14.630
30126SOL     OW92274  12.492  14.504   8.513
30126SOL    HW192275  12.556  14.516   8.583
30126SOL    HW292276  12.531  14.439   8.455
30127SOL     OW92277   7.265  13.148  14.205
30127SOL    HW192278   7.250  13.148  14.111
30127SOL    HW292279   7.355  13.116  14.215
30128SOL     OW92280   8.337   0.992  10.587
30128SOL    HW192281   8.326   1.085  10.564
30128SOL    HW292282   8.425   0.988  10.624
30129SOL     OW92283  12.714  12.589   8.590
30129SOL    HW192284  12.800  12.552   8.570
30129SOL    HW292285  12.722  12.682   8.567
30130SOL     OW92286   3.859   3.306   4.191
30130SOL    HW192287   3.871   3.250   4.115
30130SOL    HW292288   3.775   3.350   4.176
30131SOL     OW92289   8.193   8.160  13.957
30131SOL    HW192290   8.246   8.093  14.000
30131SOL    HW292291   8.192   8.233  14.019
30132SOL     OW92292  10.520  11.019  10.193
30132SOL    HW192293  10.528  11.092  10.255
30132SOL    HW292294  10.588  11.036  10.128
30133SOL     OW92295   9.669  13.229   6.226
30133SOL    HW192296   9.575  13.242   6.240
30133SOL    HW292297   9.704  13.318   6.217
30134SOL     OW92298  13.009   6.186   5.314
30134SOL    HW192299  12.920   6.154   5.328
30134SOL    HW292300  13.028   6.240   5.391
30135SOL     OW92301   2.636   3.682   9.079
30135SOL    HW192302   2.656   3.713   9.167
30135SOL    HW292303   2.605   3.592   9.092
30136SOL     OW92304   4.348   5.447  12.791
30136SOL    HW192305   4.268   5.395  12.796
30136SOL    HW292306   4.363   5.477  12.880
30137SOL     OW92307   5.780   3.868   9.372
30137SOL    HW192308   5.773   3.890   9.279
30137SOL    HW292309   5.707   3.809   9.388
30138SOL     OW92310   0.326  14.507  12.635
30138SOL    HW192311   0.232  14.523  12.631
30138SOL    HW292312   0.335  14.412  12.626
30139SOL     OW92313   0.527  10.431   3.014
30139SOL    HW192314   0.535  10.447   2.920
30139SOL    HW292315   0.477  10.505   3.047
30140SOL     OW92316  11.077   8.883  11.104
30140SOL    HW192317  11.060   8.945  11.033
30140SOL    HW292318  11.044   8.799  11.072
30141SOL     OW92319   5.992   7.547  13.201
30141SOL    HW192320   6.057   7.497  13.151
30141SOL    HW292321   5.911   7.540  13.151
30142SOL     OW92322  10.064  12.527  14.640
30142SOL    HW192323  10.127  12.594  14.614
30142SOL    HW292324  10.040  12.484  14.558
30143SOL     OW92325   2.159   6.568  14.034
30143SOL    HW192326   2.099   6.507  14.079
30143SOL    HW292327   2.238   6.567  14.088
30144SOL     OW92328   9.516   9.571   9.047
30144SOL    HW192329   9.532   9.525   8.964
30144SOL    HW292330   9.421   9.563   9.061
30145SOL     OW92331   3.457   2.751   9.249
30145SOL    HW192332   3.392   2.796   9.195
30145SOL    HW292333   3.476   2.814   9.319
30146SOL     OW92334   8.152   8.947   2.858
30146SOL    HW192335   8.133   8.910   2.772
30146SOL    HW292336   8.073   8.996   2.880
30147SOL     OW92337   2.613  11.838   2.439
30147SOL    HW192338   2.584  11.765   2.385
30147SOL    HW292339   2.532  11.877   2.472
30148SOL     OW92340  10.314   0.420  12.465
30148SOL    HW192341  10.268   0.387  12.388
30148SOL    HW292342  10.401   0.445  12.431
30149SOL     OW92343  10.634   2.932   8.316
30149SOL    HW192344  10.705   2.871   8.295
30149SOL    HW292345  10.649   3.007   8.259
30150SOL     OW92346   0.451  12.667   9.878
30150SOL    HW192347   0.393  12.641   9.807
30150SOL    HW292348   0.478  12.756   9.858
30151SOL     OW92349  12.712   1.276   7.846
30151SOL    HW192350  12.651   1.234   7.906
30151SOL    HW292351  12.677   1.364   7.832
30152SOL     OW92352   8.515   2.748  12.842
30152SOL    HW192353   8.439   2.771  12.789
30152SOL    HW292354   8.553   2.832  12.868
30153SOL     OW92355  11.681   2.883   5.926
30153SOL    HW192356  11.596   2.873   5.883
30153SOL    HW292357  11.661   2.914   6.014
30154SOL     OW92358   7.275  13.295   6.069
30154SOL    HW192359   7.242  13.385   6.066
30154SOL    HW292360   7.243  13.255   5.988
30155SOL     OW92361   5.296  13.619   5.766
30155SOL    HW192362   5.267  13.554   5.831
30155SOL    HW292363   5.280  13.577   5.682
30156SOL     OW92364   3.700   8.758  10.581
30156SOL    HW192365   3.638   8.762  10.653
30156SOL    HW292366   3.714   8.849  10.555
30157SOL     OW92367  14.764   5.470   3.292
30157SOL    HW192368  14.826   5.523   3.342
30157SOL    HW292369  14.683   5.473   3.343
30158SOL     OW92370   3.281   8.491   0.781
30158SOL    HW192371   3.226   8.556   0.737
30158SOL    HW292372   3.367   8.533   0.788
30159SOL     OW92373   0.509   7.921   4.902
30159SOL    HW192374   0.515   7.830   4.874
30159SOL    HW292375   0.597   7.956   4.890
30160SOL     OW92376   0.021   6.978   4.025
30160SOL    HW192377   0.066   7.045   4.076
30160SOL    HW292378  14.841   6.938   4.086
30161SOL     OW92379  12.353  11.053   2.661
30161SOL    HW192380  12.424  11.117   2.653
30161SOL    HW292381  12.283  11.089   2.606
30162SOL     OW92382   6.080   9.581   4.123
30162SOL    HW192383   6.116   9.669   4.133
30162SOL    HW292384   6.157   9.525   4.114
30163SOL     OW92385   7.749   7.334   4.421
30163SOL    HW192386   7.721   7.330   4.513
30163SOL    HW292387   7.776   7.245   4.400
30164SOL     OW92388  11.247   2.230   5.642
30164SOL    HW192389  11.212   2.276   5.718
30164SOL    HW292390  11.171   2.191   5.600
30165SOL     OW92391   2.108   5.511   9.034
30165SOL    HW192392   2.164   5.533   8.959
30165SOL    HW292393   2.029   5.563   9.021
30166SOL     OW92394  13.112  11.544   5.208
30166SOL    HW192395  13.064  11.625   5.192
30166SOL    HW292396  13.135  11.547   5.301
30167SOL     OW92397   9.910  11.843   5.978
30167SOL    HW192398   9.931  11.836   5.885
30167SOL    HW292399   9.976  11.788   6.021
30168SOL     OW92400   6.876   2.290  12.681
30168SOL    HW192401   6.925   2.351  12.735
30168SOL    HW292402   6.939   2.221  12.659
30169SOL     OW92403  14.829   8.245   3.404
30169SOL    HW192404   0.022   8.208   3.450
30169SOL    HW292405  14.830   8.203   3.318
30170SOL     OW92406   4.619   8.138  11.592
30170SOL    HW192407   4.712   8.114  11.585
30170SOL    HW292408   4.576   8.088  11.523
30171SOL     OW92409   4.057  13.783   7.398
30171SOL    HW192410   4.021  13.840   7.466
30171SOL    HW292411   4.142  13.821   7.377
30172SOL     OW92412   2.656   3.353  13.688
30172SOL    HW192413   2.702   3.270  13.672
30172SOL    HW292414   2.660   3.399  13.605
30173SOL     OW92415   4.412  14.827   1.419
30173SOL    HW192416   4.329  14.784   1.404
30173SOL    HW292417   4.455  14.830   1.333
30174SOL     OW92418   1.976   8.204   1.036
30174SOL    HW192419   1.925   8.285   1.039
30174SOL    HW292420   1.913   8.134   1.051
30175SOL     OW92421   0.318   7.631   7.993
30175SOL    HW192422   0.384   7.597   7.933
30175SOL    HW292423   0.333   7.726   7.993
30176SOL     OW92424   7.272   6.978   9.167
30176SOL    HW192425   7.337   7.006   9.103
30176SOL    HW292426   7.306   7.009   9.251
30177SOL     OW92427   4.553   3.147   0.133
30177SOL    HW192428   4.459   3.132   0.135
30177SOL    HW292429   4.582   3.111   0.049
30178SOL     OW92430  13.507   3.990   3.048
30178SOL    HW192431  13.537   4.079   3.030
30178SOL    HW292432  13.439   4.001   3.115
30179SOL     OW92433   4.682   7.322   7.718
30179SOL    HW192434   4.740   7.274   7.660
30179SOL    HW292435   4.691   7.278   7.803
30180SOL     OW92436  12.707   7.711   5.872
30180SOL    HW192437  12.793   7.745   5.899
30180SOL    HW292438  12.679   7.657   5.946
30181SOL     OW92439   1.743   9.902   8.879
30181SOL    HW192440   1.779   9.987   8.903
30181SOL    HW292441   1.797   9.872   8.806
30182SOL     OW92442   9.335   5.791   4.940
30182SOL    HW192443   9.336   5.801   5.035
30182SOL    HW292444   9.287   5.867   4.908
30183SOL     OW92445   8.429   2.304  10.115
30183SOL    HW192446   8.386   2.364  10.177
30183SOL    HW292447   8.426   2.350  10.031
30184SOL     OW92448   1.395  13.283   1.390
30184SOL    HW192449   1.421  13.373   1.406
30184SOL    HW292450   1.299  13.284   1.399
30185SOL     OW92451   4.272  10.139  10.940
30185SOL    HW192452   4.258  10.053  10.978
30185SOL    HW292453   4.203  10.148  10.874
30186SOL     OW92454  10.147   7.522   1.351
30186SOL    HW192455  10.208   7.583   1.392
30186SOL    HW292456  10.201   7.466   1.296
30187SOL     OW92457  12.289   9.569   4.452
30187SOL    HW192458  12.205   9.601   4.419
30187SOL    HW292459  12.284   9.581   4.546
30188SOL     OW92460   7.709  12.509   7.945
30188SOL    HW192461   7.619  12.484   7.967
30188SOL    HW292462   7.758  12.495   8.027
30189SOL     OW92463   3.126  12.270   8.297
30189SOL    HW192464   3.048  12.256   8.242
30189SOL    HW292465   3.196  12.285   8.234
30190SOL     OW92466   3.068   7.280   2.734
30190SOL    HW192467   3.097   7.324   2.654
30190SOL    HW292468   3.002   7.338   2.772
30191SOL     OW92469   0.352   2.937   8.122
30191SOL    HW192470   0.290   3.009   8.109
30191SOL    HW292471   0.424   2.955   8.061
30192SOL     OW92472   4.795   1.420   4.073
30192SOL    HW192473   4.750   1.411   4.157
30192SOL    HW292474   4.883   1.385   4.089
30193SOL     OW92475   7.117  10.150   9.549
30193SOL    HW192476   7.205  10.154   9.512
30193SOL    HW292477   7.089  10.060   9.533
30194SOL     OW92478   6.204  14.234   4.304
30194SOL    HW192479   6.227  14.292   4.377
30194SOL    HW292480   6.288  14.202   4.272
30195SOL     OW92481  11.372   4.993   9.348
30195SOL    HW192482  11.311   4.984   9.275
30195SOL    HW292483  11.322   5.037   9.417
30196SOL     OW92484  10.196  14.466  11.077
30196SOL    HW192485  10.200  14.522  11.000
30196SOL    HW292486  10.248  14.511  11.143
30197SOL     OW92487  11.123   0.133  12.338
30197SOL    HW192488  11.134   0.182  12.419
30197SOL    HW292489  11.176   0.054  12.351
30198SOL     OW92490   6.785   6.423  14.715
30198SOL    HW192491   6.737   6.382  14.643
30198SOL    HW292492   6.832   6.351  14.756
30199SOL     OW92493  12.512  12.272   5.185
30199SOL    HW192494  12.426  12.286   5.147
30199SOL    HW292495  12.570  12.258   5.111
30200SOL     OW92496   5.168   2.053   3.030
30200SOL    HW192497   5.230   1.995   2.986
30200SOL    HW292498   5.176   2.136   2.984
30201SOL     OW92499   1.862   5.102  10.922
30201SOL    HW192500   1.930   5.104  10.855
30201SOL    HW292501   1.876   5.020  10.969
30202SOL     OW92502   6.849   4.650  11.103
30202SOL    HW192503   6.798   4.575  11.134
30202SOL    HW292504   6.851   4.710  11.177
30203SOL     OW92505   9.494   8.419  12.858
30203SOL    HW192506   9.555   8.370  12.913
30203SOL    HW292507   9.492   8.507  12.897
30204SOL     OW92508   5.110  13.756  11.397
30204SOL    HW192509   5.065  13.840  11.387
30204SOL    HW292510   5.202  13.775  11.378
30205SOL     OW92511   3.719   7.908   8.409
30205SOL    HW192512   3.689   7.925   8.498
30205SOL    HW292513   3.793   7.967   8.397
30206SOL     OW92514   4.374  13.522   6.136
30206SOL    HW192515   4.403  13.436   6.168
30206SOL    HW292516   4.453  13.576   6.139
30207SOL     OW92517   0.649   0.654   8.047
30207SOL    HW192518   0.643   0.654   7.951
30207SOL    HW292519   0.654   0.747   8.070
30208SOL     OW92520  13.357   3.818  13.152
30208SOL    HW192521  13.372   3.752  13.084
30208SOL    HW292522  13.389   3.900  13.114
30209SOL     OW92523   3.828   6.314  12.665
30209SOL    HW192524   3.886   6.238  12.661
30209SOL    HW292525   3.800   6.318  12.757
30210SOL     OW92526   0.770   3.302   0.609
30210SOL    HW192527   0.690   3.277   0.655
30210SOL    HW292528   0.793   3.388   0.645
30211SOL     OW92529   6.712   4.887  10.253
30211SOL    HW192530   6.706   4.936  10.335
30211SOL    HW292531   6.636   4.915  10.202
30212SOL     OW92532   6.379   7.578  11.040
30212SOL    HW192533   6.401   7.574  10.946
30212SOL    HW292534   6.286   7.558  11.043
30213SOL     OW92535   0.142   9.026   2.750
30213SOL    HW192536   0.216   9.055   2.804
30213SOL    HW292537   0.065   9.038   2.805
30214SOL     OW92538   5.967  14.800  11.090
30214SOL    HW192539   5.950  14.749  11.170
30214SOL    HW292540   5.922  14.752  11.021
30215SOL     OW92541   5.488   7.926   5.132
30215SOL    HW192542   5.571   7.933   5.085
30215SOL    HW292543   5.495   7.844   5.181
30216SOL     OW92544   6.071  13.837  11.242
30216SOL    HW192545   5.986  13.794  11.228
30216SOL    HW292546   6.135  13.771  11.216
30217SOL     OW92547   2.351   7.281   7.365
30217SOL    HW192548   2.429   7.234   7.396
30217SOL    HW292549   2.312   7.222   7.301
30218SOL     OW92550   4.590   3.550  10.768
30218SOL    HW192551   4.677   3.586  10.752
30218SOL    HW292552   4.531   3.624  10.760
30219SOL     OW92553   9.237  14.542   7.357
30219SOL    HW192554   9.200  14.465   7.313
30219SOL    HW292555   9.213  14.616   7.301
30220SOL     OW92556  10.408   6.581  14.826
30220SOL    HW192557  10.459   6.500  14.830
30220SOL    HW292558  10.387   6.592  14.733
30221SOL     OW92559   7.268   0.386   5.943
30221SOL    HW192560   7.206   0.313   5.943
30221SOL    HW292561   7.313   0.380   6.027
30222SOL     OW92562   8.762  10.589   0.146
30222SOL    HW192563   8.781  10.671   0.191
30222SOL    HW292564   8.727  10.617   0.061
30223SOL     OW92565   1.151  10.218   6.781
30223SOL    HW192566   1.200  10.299   6.790
30223SOL    HW292567   1.069  10.233   6.829
30224SOL     OW92568   1.064   9.465   1.842
30224SOL    HW192569   1.091   9.539   1.897
30224SOL    HW292570   1.013   9.410   1.901
30225SOL     OW92571   2.537  10.542   3.211
30225SOL    HW192572   2.501  10.550   3.299
30225SOL    HW292573   2.469  10.497   3.161
30226SOL     OW92574   4.541   9.045  12.368
30226SOL    HW192575   4.563   9.111  12.302
30226SOL    HW292576   4.448   9.030  12.356
30227SOL     OW92577  11.791  13.963  12.994
30227SOL    HW192578  11.835  14.003  12.919
30227SOL    HW292579  11.812  14.020  13.068
30228SOL     OW92580   4.601  13.188   3.876
30228SOL    HW192581   4.661  13.117   3.898
30228SOL    HW292582   4.515  13.146   3.872
30229SOL     OW92583   9.249   7.064  12.936
30229SOL    HW192584   9.216   7.151  12.913
30229SOL    HW292585   9.262   7.020  12.852
30230SOL     OW92586  10.342  11.219   8.506
30230SOL    HW192587  10.316  11.142   8.558
30230SOL    HW292588  10.312  11.199   8.417
30231SOL     OW92589   8.534   6.254   1.359
30231SOL    HW192590   8.549   6.316   1.431
30231SOL    HW292591   8.517   6.170   1.403
30232SOL     OW92592  13.632   8.588  12.104
30232SOL    HW192593  13.688   8.571  12.180
30232SOL    HW292594  13.563   8.645  12.137
30233SOL     OW92595   4.463   2.879   5.603
30233SOL    HW192596   4.431   2.860   5.691
30233SOL    HW292597   4.559   2.879   5.612
30234SOL     OW92598   1.461   5.945  14.360
30234SOL    HW192599   1.379   5.899  14.341
30234SOL    HW292600   1.449   6.032  14.321
30235SOL     OW92601   6.911  12.578   8.767
30235SOL    HW192602   6.838  12.526   8.801
30235SOL    HW292603   6.920  12.551   8.676
30236SOL     OW92604   0.808  14.627   2.627
30236SOL    HW192605   0.864  14.630   2.704
30236SOL    HW292606   0.719  14.631   2.662
30237SOL     OW92607   1.911  10.277   6.010
30237SOL    HW192608   1.849  10.215   5.972
30237SOL    HW292609   1.961  10.310   5.935
30238SOL     OW92610   0.658   0.762   7.192
30238SOL    HW192611   0.594   0.761   7.263
30238SOL    HW292612   0.740   0.788   7.234
30239SOL     OW92613   3.204   6.775   9.212
30239SOL    HW192614   3.164   6.798   9.128
30239SOL    HW292615   3.216   6.680   9.207
30240SOL     OW92616   6.164  11.868  11.792
30240SOL    HW192617   6.175  11.961  11.809
30240SOL    HW292618   6.251  11.830  11.808
30241SOL     OW92619  14.712  12.704  10.533
30241SOL    HW192620  14.623  12.689  10.500
30241SOL    HW292621  14.719  12.648  10.610
30242SOL     OW92622  14.586  10.785  13.959
30242SOL    HW192623  14.601  10.718  14.026
30242SOL    HW292624  14.645  10.761  13.887
30243SOL     OW92625   8.171  14.504   2.772
30243SOL    HW192626   8.205  14.543   2.852
30243SOL    HW292627   8.078  14.487   2.791
30244SOL     OW92628  12.813   7.933  13.858
30244SOL    HW192629  12.894   7.952  13.812
30244SOL    HW292630  12.806   8.001  13.925
30245SOL     OW92631   1.394   4.140   1.674
30245SOL    HW192632   1.387   4.134   1.579
30245SOL    HW292633   1.309   4.174   1.703
30246SOL     OW92634   4.787  10.843   2.722
30246SOL    HW192635   4.799  10.804   2.808
30246SOL    HW292636   4.853  10.802   2.667
30247SOL     OW92637   4.647  13.636   9.764
30247SOL    HW192638   4.593  13.605   9.837
30247SOL    HW292639   4.587  13.643   9.690
30248SOL     OW92640   3.410   9.036  12.365
30248SOL    HW192641   3.501   9.014  12.382
30248SOL    HW292642   3.394   9.114  12.418
30249SOL     OW92643   9.256  11.608   6.717
30249SOL    HW192644   9.292  11.696   6.724
30249SOL    HW292645   9.232  11.599   6.624
30250SOL     OW92646   7.076  12.524   3.094
30250SOL    HW192647   7.119  12.530   3.179
30250SOL    HW292648   7.048  12.433   3.087
30251SOL     OW92649   5.784   3.071   6.649
30251SOL    HW192650   5.703   3.045   6.692
30251SOL    HW292651   5.756   3.125   6.575
30252SOL     OW92652   0.579  13.429   2.377
30252SOL    HW192653   0.642  13.441   2.448
30252SOL    HW292654   0.493  13.432   2.419
30253SOL     OW92655   9.491   5.551  11.872
30253SOL    HW192656   9.497   5.623  11.936
30253SOL    HW292657   9.469   5.595  11.790
30254SOL     OW92658   8.255   9.167  11.897
30254SOL    HW192659   8.251   9.091  11.838
30254SOL    HW292660   8.178   9.157  11.953
30255SOL     OW92661   3.467   4.151  11.792
30255SOL    HW192662   3.513   4.091  11.733
30255SOL    HW292663   3.525   4.161  11.867
30256SOL     OW92664  12.654   6.096   8.527
30256SOL    HW192665  12.686   6.166   8.470
30256SOL    HW292666  12.732   6.042   8.545
30257SOL     OW92667  13.128  11.203   8.773
30257SOL    HW192668  13.189  11.130   8.785
30257SOL    HW292669  13.045  11.171   8.807
30258SOL     OW92670   9.291   7.790   0.900
30258SOL    HW192671   9.246   7.826   0.824
30258SOL    HW292672   9.230   7.726   0.936
30259SOL     OW92673   7.073   9.676  10.566
30259SOL    HW192674   7.083   9.649  10.657
30259SOL    HW292675   7.162   9.668  10.529
30260SOL     OW92676  10.352   2.156   1.905
30260SOL    HW192677  10.364   2.085   1.842
30260SOL    HW292678  10.427   2.150   1.964
30261SOL     OW92679   5.575  10.445   1.794
30261SOL    HW192680   5.494  10.496   1.787
30261SOL    HW292681   5.570  10.403   1.879
30262SOL     OW92682   7.800  12.669   2.046
30262SOL    HW192683   7.838  12.613   2.113
30262SOL    HW292684   7.753  12.608   1.988
30263SOL     OW92685   0.580   4.515   8.131
30263SOL    HW192686   0.564   4.423   8.110
30263SOL    HW292687   0.546   4.563   8.055
30264SOL     OW92688   9.738   0.927  11.604
30264SOL    HW192689   9.806   0.922  11.671
30264SOL    HW292690   9.710   1.019  11.605
30265SOL     OW92691   7.411   2.284  11.861
30265SOL    HW192692   7.489   2.290  11.807
30265SOL    HW292693   7.339   2.277  11.798
30266SOL     OW92694   8.890   7.561   6.178
30266SOL    HW192695   8.913   7.614   6.254
30266SOL    HW292696   8.834   7.617   6.124
30267SOL     OW92697   6.701   2.882   4.369
30267SOL    HW192698   6.753   2.806   4.342
30267SOL    HW292699   6.625   2.845   4.414
30268SOL     OW92700  11.337  14.391   7.934
30268SOL    HW192701  11.332  14.361   8.024
30268SOL    HW292702  11.272  14.338   7.887
30269SOL     OW92703   3.911   7.697  10.283
30269SOL    HW192704   3.878   7.745  10.207
30269SOL    HW292705   4.006   7.693  10.270
30270SOL     OW92706   7.379   7.612   8.415
30270SOL    HW192707   7.410   7.698   8.390
30270SOL    HW292708   7.297   7.628   8.461
30271SOL     OW92709   6.145  12.126  11.840
30271SOL    HW192710   6.146  12.199  11.902
30271SOL    HW292711   6.052  12.105  11.829
30272SOL     OW92712   1.387   9.780   0.009
30272SOL    HW192713   1.447   9.844  14.852
30272SOL    HW292714   1.305   9.793  14.845
30273SOL     OW92715   0.943   6.341  12.615
30273SOL    HW192716   0.992   6.418  12.587
30273SOL    HW292717   1.008   6.283  12.655
30274SOL     OW92718  12.387   3.361   1.095
30274SOL    HW192719  12.450   3.350   1.025
30274SOL    HW292720  12.331   3.434   1.067
30275SOL     OW92721  11.933   4.259   3.541
30275SOL    HW192722  11.978   4.187   3.497
30275SOL    HW292723  11.841   4.231   3.544
30276SOL     OW92724  11.007  13.260   1.500
30276SOL    HW192725  11.095  13.291   1.525
30276SOL    HW292726  10.961  13.340   1.474
30277SOL     OW92727   2.332  14.160  13.577
30277SOL    HW192728   2.312  14.231  13.638
30277SOL    HW292729   2.398  14.198  13.518
30278SOL     OW92730   2.704   5.928   2.150
30278SOL    HW192731   2.772   5.989   2.178
30278SOL    HW292732   2.738   5.841   2.171
30279SOL     OW92733  11.428  14.832   5.549
30279SOL    HW192734  11.523  14.837   5.540
30279SOL    HW292735  11.402   0.038   5.577
30280SOL     OW92736  13.892   6.446   2.148
30280SOL    HW192737  13.803   6.412   2.163
30280SOL    HW292738  13.918   6.483   2.232
30281SOL     OW92739  12.704  10.801  13.600
30281SOL    HW192740  12.756  10.881  13.587
30281SOL    HW292741  12.758  10.747  13.658
30282SOL     OW92742   1.380  13.903   3.192
30282SOL    HW192743   1.293  13.868   3.211
30282SOL    HW292744   1.372  13.997   3.206
30283SOL     OW92745   3.436   5.125   8.938
30283SOL    HW192746   3.426   5.203   8.993
30283SOL    HW292747   3.424   5.052   8.999
30284SOL     OW92748   3.303   6.510   7.244
30284SOL    HW192749   3.275   6.601   7.250
30284SOL    HW292750   3.379   6.511   7.187
30285SOL     OW92751   7.841   5.746   2.140
30285SOL    HW192752   7.802   5.700   2.214
30285SOL    HW292753   7.919   5.694   2.119
30286SOL     OW92754   1.920   7.765   8.726
30286SOL    HW192755   1.837   7.804   8.699
30286SOL    HW292756   1.938   7.699   8.659
30287SOL     OW92757   2.480  11.357   9.073
30287SOL    HW192758   2.487  11.402   8.989
30287SOL    HW292759   2.400  11.392   9.113
30288SOL     OW92760   3.271  10.365   2.032
30288SOL    HW192761   3.317  10.312   1.966
30288SOL    HW292762   3.196  10.311   2.057
30289SOL     OW92763  13.251   2.378  13.114
30289SOL    HW192764  13.294   2.459  13.086
30289SOL    HW292765  13.283   2.312  13.053
30290SOL     OW92766   4.806  12.523   5.578
30290SOL    HW192767   4.737  12.456   5.575
30290SOL    HW292768   4.877  12.481   5.626
30291SOL     OW92769   7.489   6.406   0.128
30291SOL    HW192770   7.407   6.392   0.080
30291SOL    HW292771   7.498   6.501   0.133
30292SOL     OW92772   5.876  11.344   8.723
30292SOL    HW192773   5.901  11.374   8.635
30292SOL    HW292774   5.958  11.334   8.770
30293SOL     OW92775  10.867   5.799  13.149
30293SOL    HW192776  10.932   5.848  13.100
30293SOL    HW292777  10.798   5.779  13.085
30294SOL     OW92778   8.112   4.446  12.277
30294SOL    HW192779   8.050   4.393  12.327
30294SOL    HW292780   8.144   4.511  12.340
30295SOL     OW92781   3.622   0.394   7.471
30295SOL    HW192782   3.709   0.355   7.465
30295SOL    HW292783   3.567   0.326   7.509
30296SOL     OW92784   9.423   8.070  11.174
30296SOL    HW192785   9.411   8.034  11.262
30296SOL    HW292786   9.500   8.024  11.139
30297SOL     OW92787  10.317   7.362  13.265
30297SOL    HW192788  10.333   7.281  13.314
30297SOL    HW292789  10.225   7.381  13.279
30298SOL     OW92790   8.897   9.527  12.845
30298SOL    HW192791   8.852   9.569  12.771
30298SOL    HW292792   8.986   9.562  12.843
30299SOL     OW92793   8.125   3.992  11.487
30299SOL    HW192794   8.200   3.941  11.520
30299SOL    HW292795   8.057   3.927  11.471
30300SOL     OW92796   9.419  11.151   9.091
30300SOL    HW192797   9.441  11.058   9.091
30300SOL    HW292798   9.498  11.194   9.123
30301SOL     OW92799   0.801   3.016   6.415
30301SOL    HW192800   0.740   3.074   6.460
30301SOL    HW292801   0.850   3.073   6.356
30302SOL     OW92802   4.587   1.865  10.297
30302SOL    HW192803   4.534   1.892  10.222
30302SOL    HW292804   4.522   1.843  10.364
30303SOL     OW92805   7.441  11.767   8.145
30303SOL    HW192806   7.369  11.825   8.119
30303SOL    HW292807   7.430  11.689   8.091
30304SOL     OW92808  14.257   0.522  11.475
30304SOL    HW192809  14.327   0.574  11.514
30304SOL    HW292810  14.193   0.587  11.445
30305SOL     OW92811   8.378  10.264   1.013
30305SOL    HW192812   8.433  10.323   0.961
30305SOL    HW292813   8.329  10.213   0.948
30306SOL     OW92814   9.881   5.312  14.438
30306SOL    HW192815   9.920   5.398  14.453
30306SOL    HW292816   9.834   5.293  14.519
30307SOL     OW92817  12.485   1.098   7.656
30307SOL    HW192818  12.578   1.105   7.636
30307SOL    HW292819  12.445   1.072   7.573
30308SOL     OW92820   8.300   8.151   4.063
30308SOL    HW192821   8.318   8.166   4.156
30308SOL    HW292822   8.253   8.068   4.061
30309SOL     OW92823   8.486   7.670   3.437
30309SOL    HW192824   8.515   7.643   3.350
30309SOL    HW292825   8.442   7.754   3.424
30310SOL     OW92826  11.588   5.472  13.695
30310SOL    HW192827  11.648   5.403  13.666
30310SOL    HW292828  11.502   5.443  13.666
30311SOL     OW92829  13.626   6.210   7.920
30311SOL    HW192830  13.633   6.211   8.016
30311SOL    HW292831  13.625   6.118   7.897
30312SOL     OW92832   2.267   4.699   9.016
30312SOL    HW192833   2.359   4.695   8.990
30312SOL    HW292834   2.269   4.691   9.112
30313SOL     OW92835  12.841  11.735   1.747
30313SOL    HW192836  12.784  11.666   1.780
30313SOL    HW292837  12.794  11.816   1.768
30314SOL     OW92838   2.398  14.709  11.644
30314SOL    HW192839   2.457  14.701  11.569
30314SOL    HW292840   2.311  14.689  11.609
30315SOL     OW92841   6.571  10.164   8.513
30315SOL    HW192842   6.653  10.196   8.552
30315SOL    HW292843   6.505  10.177   8.581
30316SOL     OW92844   2.582  10.819   7.392
30316SOL    HW192845   2.673  10.810   7.422
30316SOL    HW292846   2.582  10.898   7.339
30317SOL     OW92847   3.986   6.077   9.132
30317SOL    HW192848   3.951   5.989   9.125
30317SOL    HW292849   4.078   6.069   9.107
30318SOL     OW92850   6.047  10.668   0.403
30318SOL    HW192851   5.973  10.728   0.406
30318SOL    HW292852   6.010  10.583   0.423
30319SOL     OW92853  11.865  14.744   9.731
30319SOL    HW192854  11.931  14.675   9.732
30319SOL    HW292855  11.804  14.719   9.662
30320SOL     OW92856   4.983  11.804  14.792
30320SOL    HW192857   4.947  11.855  14.720
30320SOL    HW292858   4.921  11.816  14.864
30321SOL     OW92859  11.144   0.453   5.967
30321SOL    HW192860  11.062   0.407   5.945
30321SOL    HW292861  11.127   0.491   6.053
30322SOL     OW92862  11.261   8.202   8.234
30322SOL    HW192863  11.197   8.170   8.171
30322SOL    HW292864  11.279   8.127   8.291
30323SOL     OW92865  14.880   5.043   5.259
30323SOL    HW192866   0.027   5.117   5.312
30323SOL    HW292867  14.792   5.023   5.291
30324SOL     OW92868   2.099   2.267  10.850
30324SOL    HW192869   2.160   2.228  10.787
30324SOL    HW292870   2.135   2.354  10.867
30325SOL     OW92871   6.908  11.821  10.568
30325SOL    HW192872   6.913  11.809  10.663
30325SOL    HW292873   6.871  11.739  10.536
30326SOL     OW92874   4.014   1.365   8.132
30326SOL    HW192875   3.955   1.440   8.131
30326SOL    HW292876   4.001   1.326   8.219
30327SOL     OW92877   4.261   8.558   9.446
30327SOL    HW192878   4.206   8.481   9.433
30327SOL    HW292879   4.329   8.551   9.379
30328SOL     OW92880   4.062   2.288   1.985
30328SOL    HW192881   4.091   2.330   1.904
30328SOL    HW292882   4.042   2.360   2.045
30329SOL     OW92883   7.788   7.562  11.994
30329SOL    HW192884   7.873   7.525  12.019
30329SOL    HW292885   7.810   7.642  11.946
30330SOL     OW92886   0.213   6.861   9.676
30330SOL    HW192887   0.253   6.803   9.741
30330SOL    HW292888   0.131   6.817   9.652
30331SOL     OW92889  12.085   0.503  10.682
30331SOL    HW192890  12.092   0.587  10.638
30331SOL    HW292891  11.991   0.489  10.694
30332SOL     OW92892   7.856   9.340   3.505
30332SOL    HW192893   7.843   9.432   3.482
30332SOL    HW292894   7.770   9.311   3.538
30333SOL     OW92895   8.973   7.314   6.264
30333SOL    HW192896   8.954   7.405   6.239
30333SOL    HW292897   8.888   7.279   6.291
30334SOL     OW92898  14.738  13.547   8.607
30334SOL    HW192899  14.779  13.461   8.617
30334SOL    HW292900  14.707  13.568   8.695
30335SOL     OW92901  13.662  12.938   0.909
30335SOL    HW192902  13.684  13.028   0.884
30335SOL    HW292903  13.572  12.944   0.942
30336SOL     OW92904   3.518   3.947   0.800
30336SOL    HW192905   3.465   3.925   0.877
30336SOL    HW292906   3.563   4.028   0.824
30337SOL     OW92907   4.690   3.161   3.939
30337SOL    HW192908   4.653   3.115   3.863
30337SOL    HW292909   4.646   3.122   4.015
30338SOL     OW92910   2.512   5.901   1.975
30338SOL    HW192911   2.586   5.924   2.030
30338SOL    HW292912   2.490   5.811   1.999
30339SOL     OW92913  12.314   4.276  13.005
30339SOL    HW192914  12.243   4.215  13.026
30339SOL    HW292915  12.275   4.338  12.944
30340SOL     OW92916  14.013  14.152  13.259
30340SOL    HW192917  13.966  14.072  13.233
30340SOL    HW292918  14.024  14.201  13.178
30341SOL     OW92919   2.088   4.901   3.109
30341SOL    HW192920   2.003   4.943   3.120
30341SOL    HW292921   2.152   4.972   3.119
30342SOL     OW92922   6.044   8.612   9.428
30342SOL    HW192923   6.129   8.594   9.469
30342SOL    HW292924   6.059   8.691   9.377
30343SOL     OW92925   6.797   8.174  14.245
30343SOL    HW192926   6.722   8.142  14.194
30343SOL    HW292927   6.758   8.205  14.327
30344SOL     OW92928   4.524   1.084  12.695
30344SOL    HW192929   4.552   1.164  12.649
30344SOL    HW292930   4.521   1.017  12.627
30345SOL     OW92931   8.752   7.443   1.820
30345SOL    HW192932   8.689   7.391   1.769
30345SOL    HW292933   8.772   7.518   1.764
30346SOL     OW92934   6.265   0.277  13.079
30346SOL    HW192935   6.187   0.224  13.096
30346SOL    HW292936   6.292   0.253  12.991
30347SOL     OW92937   8.068   8.277   3.037
30347SOL    HW192938   8.114   8.296   2.955
30347SOL    HW292939   8.011   8.352   3.051
30348SOL     OW92940  11.951   1.848  14.095
30348SOL    HW192941  12.005   1.909  14.044
30348SOL    HW292942  11.883   1.903  14.135
30349SOL     OW92943   3.893  10.804   3.053
30349SOL    HW192944   3.841  10.883   3.039
30349SOL    HW292945   3.874  10.749   2.977
30350SOL     OW92946   3.242   8.087  13.260
30350SOL    HW192947   3.250   8.039  13.343
30350SOL    HW292948   3.149   8.088  13.241
30351SOL     OW92949   1.927   4.198  11.602
30351SOL    HW192950   2.021   4.204  11.622
30351SOL    HW292951   1.889   4.275  11.644
30352SOL     OW92952   8.390   3.712  10.918
30352SOL    HW192953   8.302   3.727  10.951
30352SOL    HW292954   8.447   3.754  10.982
30353SOL     OW92955   6.287   2.203  11.150
30353SOL    HW192956   6.338   2.127  11.177
30353SOL    HW292957   6.341   2.247  11.084
30354SOL     OW92958   6.756   8.036   2.705
30354SOL    HW192959   6.675   8.007   2.746
30354SOL    HW292960   6.825   7.984   2.747
30355SOL     OW92961   7.638   2.599   1.320
30355SOL    HW192962   7.654   2.684   1.361
30355SOL    HW292963   7.548   2.577   1.346
30356SOL     OW92964   3.817   5.433   9.673
30356SOL    HW192965   3.791   5.403   9.586
30356SOL    HW292966   3.909   5.408   9.681
30357SOL     OW92967   3.056  14.218   8.577
30357SOL    HW192968   3.146  14.197   8.554
30357SOL    HW292969   3.047  14.189   8.668
30358SOL     OW92970  14.165   0.161   0.147
30358SOL    HW192971  14.198   0.194   0.231
30358SOL    HW292972  14.212   0.213   0.081
30359SOL     OW92973   9.929   9.482   4.260
30359SOL    HW192974  10.014   9.445   4.287
30359SOL    HW292975   9.880   9.490   4.342
30360SOL     OW92976   3.747  14.089   5.929
30360SOL    HW192977   3.736  14.051   6.016
30360SOL    HW292978   3.835  14.126   5.928
30361SOL     OW92979   3.611   0.417   9.528
30361SOL    HW192980   3.612   0.430   9.433
30361SOL    HW292981   3.598   0.323   9.539
30362SOL     OW92982   8.414   7.954   3.395
30362SOL    HW192983   8.502   7.960   3.430
30362SOL    HW292984   8.423   7.983   3.304
30363SOL     OW92985  13.980  12.185   6.258
30363SOL    HW192986  14.030  12.239   6.196
30363SOL    HW292987  14.047  12.136   6.306
30364SOL     OW92988  14.287   5.808   0.842
30364SOL    HW192989  14.203   5.831   0.883
30364SOL    HW292990  14.271   5.724   0.799
30365SOL     OW92991   8.718  10.122   9.991
30365SOL    HW192992   8.776  10.145   9.918
30365SOL    HW292993   8.630  10.137   9.958
30366SOL     OW92994   4.522   8.939   4.259
30366SOL    HW192995   4.518   8.882   4.182
30366SOL    HW292996   4.453   9.004   4.243
30367SOL     OW92997   7.972   3.461  11.005
30367SOL    HW192998   7.883   3.469  11.039
30367SOL    HW292999   7.998   3.371  11.025
30368SOL     OW93000   8.423   1.300  11.502
30368SOL    HW193001   8.341   1.268  11.541
30368SOL    HW293002   8.395   1.351  11.426
30369SOL     OW93003  13.283   2.258  14.606
30369SOL    HW193004  13.211   2.197  14.593
30369SOL    HW293005  13.319   2.270  14.518
30370SOL     OW93006  14.530   3.547   4.027
30370SOL    HW193007  14.449   3.596   4.008
30370SOL    HW293008  14.520   3.519   4.118
30371SOL     OW93009   4.310   5.527  11.935
30371SOL    HW193010   4.297   5.594  11.868
30371SOL    HW293011   4.344   5.575  12.011
30372SOL     OW93012  12.694  12.848   8.586
30372SOL    HW193013  12.692  12.862   8.491
30372SOL    HW293014  12.608  12.811   8.607
30373SOL     OW93015  13.530   6.807   3.393
30373SOL    HW193016  13.499   6.804   3.484
30373SOL    HW293017  13.574   6.892   3.385
30374SOL     OW93018   7.640  13.765  13.973
30374SOL    HW193019   7.654  13.858  13.951
30374SOL    HW293020   7.713  13.744  14.032
30375SOL     OW93021   6.014   3.251  13.853
30375SOL    HW193022   5.935   3.222  13.809
30375SOL    HW293023   6.077   3.266  13.783
30376SOL     OW93024   1.289   3.686   4.654
30376SOL    HW193025   1.363   3.747   4.660
30376SOL    HW293026   1.212   3.741   4.664
30377SOL     OW93027   3.715  14.078   9.881
30377SOL    HW193028   3.729  14.027   9.960
30377SOL    HW293029   3.676  14.160   9.911
30378SOL     OW93030  10.337   7.577  14.830
30378SOL    HW193031  10.283   7.575  14.750
30378SOL    HW293032  10.316   7.662  14.870
30379SOL     OW93033   6.684   1.037  10.629
30379SOL    HW193034   6.685   0.991  10.546
30379SOL    HW293035   6.617   0.993  10.681
30380SOL     OW93036  14.350  11.796   0.817
30380SOL    HW193037  14.316  11.879   0.783
30380SOL    HW293038  14.325  11.796   0.909
30381SOL     OW93039  13.586   1.667  10.487
30381SOL    HW193040  13.569   1.575  10.508
30381SOL    HW293041  13.639   1.664  10.407
30382SOL     OW93042  13.126  13.977  13.527
30382SOL    HW193043  13.054  13.957  13.586
30382SOL    HW293044  13.192  13.910  13.546
30383SOL     OW93045  13.640   4.536  11.210
30383SOL    HW193046  13.599   4.455  11.241
30383SOL    HW293047  13.712   4.507  11.156
30384SOL     OW93048  12.039   1.337   6.887
30384SOL    HW193049  12.134   1.346   6.891
30384SOL    HW293050  12.024   1.266   6.824
30385SOL     OW93051   7.073   7.784   7.419
30385SOL    HW193052   7.018   7.746   7.487
30385SOL    HW293053   7.070   7.878   7.436
30386SOL     OW93054   3.027   4.023   7.629
30386SOL    HW193055   3.038   3.928   7.633
30386SOL    HW293056   2.999   4.040   7.540
30387SOL     OW93057   9.980  11.885   4.399
30387SOL    HW193058   9.900  11.924   4.435
30387SOL    HW293059  10.050  11.946   4.424
30388SOL     OW93060   8.229   9.033  10.666
30388SOL    HW193061   8.183   9.077  10.594
30388SOL    HW293062   8.165   8.972  10.702
30389SOL     OW93063   4.499   1.941   7.294
30389SOL    HW193064   4.564   1.962   7.361
30389SOL    HW293065   4.516   2.004   7.224
30390SOL     OW93066  10.917   7.525   3.184
30390SOL    HW193067  10.984   7.468   3.148
30390SOL    HW293068  10.945   7.613   3.158
30391SOL     OW93069   3.934   2.764   2.495
30391SOL    HW193070   3.989   2.831   2.536
30391SOL    HW293071   3.844   2.790   2.516
30392SOL     OW93072   1.801   2.298  10.837
30392SOL    HW193073   1.890   2.281  10.866
30392SOL    HW293074   1.798   2.393  10.823
30393SOL     OW93075  10.629   7.507   9.835
30393SOL    HW193076  10.552   7.561   9.818
30393SOL    HW293077  10.687   7.562   9.886
30394SOL     OW93078   7.180   7.161   3.450
30394SOL    HW193079   7.144   7.241   3.489
30394SOL    HW293080   7.124   7.091   3.484
30395SOL     OW93081   1.646   0.837   7.096
30395SOL    HW193082   1.617   0.770   7.035
30395SOL    HW293083   1.693   0.901   7.042
30396SOL     OW93084  14.723  11.590   7.168
30396SOL    HW193085  14.714  11.639   7.250
30396SOL    HW293086  14.754  11.504   7.195
30397SOL     OW93087  10.671  13.070   5.447
30397SOL    HW193088  10.762  13.097   5.458
30397SOL    HW293089  10.645  13.108   5.363
30398SOL     OW93090  11.364  13.164   7.102
30398SOL    HW193091  11.414  13.245   7.112
30398SOL    HW293092  11.399  13.106   7.171
30399SOL     OW93093   3.355   3.903   3.440
30399SOL    HW193094   3.328   3.813   3.423
30399SOL    HW293095   3.348   3.947   3.355
30400SOL     OW93096   0.698   4.633  13.045
30400SOL    HW193097   0.713   4.593  13.130
30400SOL    HW293098   0.633   4.576  13.003
30401SOL     OW93099   8.961   8.687   3.350
30401SOL    HW193100   8.906   8.652   3.280
30401SOL    HW293101   8.908   8.676   3.429
30402SOL     OW93102   0.605  13.511   5.672
30402SOL    HW193103   0.607  13.560   5.590
30402SOL    HW293104   0.613  13.579   5.740
30403SOL     OW93105   1.253  13.007  12.252
30403SOL    HW193106   1.165  12.977  12.276
30403SOL    HW293107   1.245  13.033  12.160
30404SOL     OW93108   3.713   7.381  12.995
30404SOL    HW193109   3.773   7.359  13.066
30404SOL    HW293110   3.747   7.333  12.919
30405SOL     OW93111   3.890   8.391  12.282
30405SOL    HW193112   3.810   8.338  12.275
30405SOL    HW293113   3.915   8.409  12.192
30406SOL     OW93114   7.966   6.999   0.984
30406SOL    HW193115   7.994   7.084   1.018
30406SOL    HW293116   8.018   6.935   1.032
30407SOL     OW93117   5.356   7.253   7.545
30407SOL    HW193118   5.357   7.173   7.597
30407SOL    HW293119   5.441   7.294   7.562
30408SOL     OW93120  12.785   3.532  12.544
30408SOL    HW193121  12.734   3.452  12.557
30408SOL    HW293122  12.722   3.597  12.516
30409SOL     OW93123   1.173   5.257  12.495
30409SOL    HW193124   1.256   5.218  12.520
30409SOL    HW293125   1.115   5.183  12.477
30410SOL     OW93126   5.203   3.777  14.752
30410SOL    HW193127   5.176   3.869  14.744
30410SOL    HW293128   5.121   3.730  14.767
30411SOL     OW93129  10.604   0.933   0.498
30411SOL    HW193130  10.620   0.925   0.592
30411SOL    HW293131  10.516   0.895   0.486
30412SOL     OW93132  11.632   6.351  13.395
30412SOL    HW193133  11.633   6.318  13.485
30412SOL    HW293134  11.593   6.281  13.344
30413SOL     OW93135   1.710   1.457   9.128
30413SOL    HW193136   1.770   1.384   9.141
30413SOL    HW293137   1.677   1.478   9.215
30414SOL     OW93138  10.306   5.212   9.190
30414SOL    HW193139  10.244   5.271   9.232
30414SOL    HW293140  10.258   5.130   9.180
30415SOL     OW93141   8.226   7.713   2.288
30415SOL    HW193142   8.187   7.705   2.201
30415SOL    HW293143   8.312   7.752   2.272
30416SOL     OW93144   3.456   8.522  11.060
30416SOL    HW193145   3.386   8.568  11.015
30416SOL    HW293146   3.501   8.590  11.110
30417SOL     OW93147   3.638   5.176   2.341
30417SOL    HW193148   3.554   5.216   2.361
30417SOL    HW293149   3.619   5.083   2.330
30418SOL     OW93150   0.178   5.098   5.922
30418SOL    HW193151   0.260   5.051   5.903
30418SOL    HW293152   0.120   5.075   5.849
30419SOL     OW93153  12.587   0.066  13.925
30419SOL    HW193154  12.678   0.096  13.930
30419SOL    HW293155  12.592  14.865  13.878
30420SOL     OW93156   5.403  11.538   8.358
30420SOL    HW193157   5.496  11.518   8.365
30420SOL    HW293158   5.365  11.463   8.312
30421SOL     OW93159   2.860   3.676   8.161
30421SOL    HW193160   2.924   3.715   8.221
30421SOL    HW293161   2.863   3.582   8.181
30422SOL     OW93162   4.307   7.067   7.174
30422SOL    HW193163   4.383   7.124   7.162
30422SOL    HW293164   4.274   7.052   7.086
30423SOL     OW93165   6.307  11.707   2.590
30423SOL    HW193166   6.391  11.670   2.617
30423SOL    HW293167   6.258  11.717   2.671
30424SOL     OW93168   5.772   9.631   6.808
30424SOL    HW193169   5.810   9.610   6.723
30424SOL    HW293170   5.702   9.567   6.819
30425SOL     OW93171  12.752   5.962   2.216
30425SOL    HW193172  12.811   5.900   2.173
30425SOL    HW293173  12.667   5.917   2.217
30426SOL     OW93174   3.756  10.914   1.193
30426SOL    HW193175   3.796  10.983   1.245
30426SOL    HW293176   3.721  10.852   1.257
30427SOL     OW93177  10.293   3.018   1.758
30427SOL    HW193178  10.319   3.053   1.673
30427SOL    HW293179  10.243   2.940   1.738
30428SOL     OW93180   1.002  11.331   3.305
30428SOL    HW193181   1.009  11.278   3.385
30428SOL    HW293182   1.004  11.267   3.234
30429SOL     OW93183   8.115  12.641   5.026
30429SOL    HW193184   8.021  12.645   5.007
30429SOL    HW293185   8.142  12.733   5.032
30430SOL     OW93186   5.136  14.822   3.751
30430SOL    HW193187   5.165   0.031   3.755
30430SOL    HW293188   5.215  14.771   3.769
30431SOL     OW93189   2.098  11.460  10.011
30431SOL    HW193190   2.118  11.537   9.959
30431SOL    HW293191   2.183  11.418  10.026
30432SOL     OW93192   2.116   2.945   3.424
30432SOL    HW193193   2.095   2.941   3.331
30432SOL    HW293194   2.201   2.989   3.428
30433SOL     OW93195  12.087   1.862   2.098
30433SOL    HW193196  12.053   1.787   2.147
30433SOL    HW293197  12.182   1.851   2.100
30434SOL     OW93198  13.006   3.200   6.657
30434SOL    HW193199  12.976   3.160   6.575
30434SOL    HW293200  13.034   3.125   6.711
30435SOL     OW93201  10.360   4.490  11.116
30435SOL    HW193202  10.331   4.572  11.075
30435SOL    HW293203  10.311   4.422  11.070
30436SOL     OW93204   9.317  11.386  12.804
30436SOL    HW193205   9.269  11.449  12.750
30436SOL    HW293206   9.397  11.369  12.754
30437SOL     OW93207   0.645  10.040   5.003
30437SOL    HW193208   0.740  10.032   5.001
30437SOL    HW293209   0.615   9.965   5.054
30438SOL     OW93210   1.569   0.551  10.320
30438SOL    HW193211   1.591   0.598  10.400
30438SOL    HW293212   1.630   0.585  10.254
30439SOL     OW93213   8.421  14.325   0.227
30439SOL    HW193214   8.450  14.415   0.217
30439SOL    HW293215   8.327  14.327   0.208
30440SOL     OW93216  10.439   3.650   1.917
30440SOL    HW193217  10.486   3.587   1.972
30440SOL    HW293218  10.434   3.608   1.831
30441SOL     OW93219  11.187   2.680  10.555
30441SOL    HW193220  11.108   2.728  10.580
30441SOL    HW293221  11.243   2.745  10.514
30442SOL     OW93222   6.371  11.916  13.036
30442SOL    HW193223   6.431  11.846  13.011
30442SOL    HW293224   6.428  11.990  13.057
30443SOL     OW93225  12.237   6.013  13.716
30443SOL    HW193226  12.189   6.092  13.689
30443SOL    HW293227  12.217   6.005  13.809
30444SOL     OW93228  10.318   4.800   8.569
30444SOL    HW193229  10.343   4.757   8.487
30444SOL    HW293230  10.384   4.868   8.582
30445SOL     OW93231   8.442   5.017   3.911
30445SOL    HW193232   8.503   4.944   3.907
30445SOL    HW293233   8.362   4.980   3.949
30446SOL     OW93234   2.662   1.025   1.517
30446SOL    HW193235   2.589   1.087   1.522
30446SOL    HW293236   2.720   1.062   1.450
30447SOL     OW93237   1.090   3.552   6.878
30447SOL    HW193238   1.107   3.505   6.959
30447SOL    HW293239   1.094   3.485   6.810
30448SOL     OW93240   9.538   8.918  12.160
30448SOL    HW193241   9.491   8.996  12.131
30448SOL    HW293242   9.627   8.950  12.176
30449SOL     OW93243  14.109   7.792  13.180
30449SOL    HW193244  14.049   7.764  13.111
30449SOL    HW293245  14.196   7.788  13.140
30450SOL     OW93246   7.535   5.838   2.260
30450SOL    HW193247   7.572   5.919   2.295
30450SOL    HW293248   7.547   5.845   2.165
30451SOL     OW93249   3.673  13.922   1.676
30451SOL    HW193250   3.611  13.873   1.622
30451SOL    HW293251   3.640  13.914   1.765
30452SOL     OW93252   3.116   7.745  13.347
30452SOL    HW193253   3.177   7.770  13.416
30452SOL    HW293254   3.122   7.650  13.342
30453SOL     OW93255   4.833   7.693   0.094
30453SOL    HW193256   4.884   7.679   0.014
30453SOL    HW293257   4.769   7.760   0.069
30454SOL     OW93258  10.456   7.599   1.044
30454SOL    HW193259  10.493   7.685   1.061
30454SOL    HW293260  10.370   7.617   1.006
30455SOL     OW93261   1.085  10.963   0.094
30455SOL    HW193262   1.000  10.920   0.084
30455SOL    HW293263   1.149  10.892   0.090
30456SOL     OW93264   0.363  10.538   5.781
30456SOL    HW193265   0.411  10.580   5.709
30456SOL    HW293266   0.432  10.506   5.839
30457SOL     OW93267   5.527   5.175  13.838
30457SOL    HW193268   5.596   5.186  13.773
30457SOL    HW293269   5.564   5.214  13.918
30458SOL     OW93270   7.364   6.110   2.734
30458SOL    HW193271   7.453   6.073   2.740
30458SOL    HW293272   7.356   6.165   2.812
30459SOL     OW93273   7.817  13.604  14.505
30459SOL    HW193274   7.902  13.636  14.537
30459SOL    HW293275   7.791  13.537  14.569
30460SOL     OW93276   5.140   6.694   0.971
30460SOL    HW193277   5.071   6.629   0.952
30460SOL    HW293278   5.094   6.767   1.011
30461SOL     OW93279  11.396   4.845   0.598
30461SOL    HW193280  11.410   4.827   0.505
30461SOL    HW293281  11.303   4.827   0.612
30462SOL     OW93282   2.423   9.107   7.060
30462SOL    HW193283   2.377   9.184   7.026
30462SOL    HW293284   2.492   9.091   6.996
30463SOL     OW93285   9.241   5.596   7.956
30463SOL    HW193286   9.316   5.540   7.972
30463SOL    HW293287   9.236   5.653   8.032
30464SOL     OW93288   3.182  13.573  10.484
30464SOL    HW193289   3.260  13.522  10.465
30464SOL    HW293290   3.110  13.510  10.480
30465SOL     OW93291   2.509   8.280   4.847
30465SOL    HW193292   2.591   8.328   4.861
30465SOL    HW293293   2.497   8.280   4.752
30466SOL     OW93294   2.434   2.661  13.793
30466SOL    HW193295   2.401   2.751  13.797
30466SOL    HW293296   2.510   2.666  13.734
30467SOL     OW93297   6.799  10.436   9.299
30467SOL    HW193298   6.791  10.510   9.238
30467SOL    HW293299   6.888  10.404   9.285
30468SOL     OW93300   3.777   2.313  11.318
30468SOL    HW193301   3.757   2.251  11.249
30468SOL    HW293302   3.692   2.335  11.356
30469SOL     OW93303  12.043   2.316  10.040
30469SOL    HW193304  12.138   2.316  10.053
30469SOL    HW293305  12.008   2.276  10.120
30470SOL     OW93306  12.800   5.653   4.160
30470SOL    HW193307  12.843   5.588   4.216
30470SOL    HW293308  12.762   5.716   4.222
30471SOL     OW93309   7.972   5.993   1.013
30471SOL    HW193310   7.962   5.959   0.924
30471SOL    HW293311   7.973   5.915   1.069
30472SOL     OW93312   6.736   4.601   2.831
30472SOL    HW193313   6.784   4.555   2.900
30472SOL    HW293314   6.759   4.693   2.844
30473SOL     OW93315   7.261  14.632   2.112
30473SOL    HW193316   7.294  14.722   2.113
30473SOL    HW293317   7.292  14.594   2.194
30474SOL     OW93318  13.369   9.727   8.262
30474SOL    HW193319  13.362   9.817   8.293
30474SOL    HW293320  13.450   9.724   8.211
30475SOL     OW93321   2.607   0.285   3.004
30475SOL    HW193322   2.518   0.299   3.035
30475SOL    HW293323   2.602   0.299   2.909
30476SOL     OW93324   4.502   8.712   3.470
30476SOL    HW193325   4.572   8.769   3.438
30476SOL    HW293326   4.501   8.638   3.409
30477SOL     OW93327   4.459   2.346   0.499
30477SOL    HW193328   4.444   2.280   0.431
30477SOL    HW293329   4.546   2.327   0.532
30478SOL     OW93330  11.860   6.634   8.028
30478SOL    HW193331  11.946   6.664   8.059
30478SOL    HW293332  11.874   6.543   8.004
30479SOL     OW93333   4.743   2.733   4.139
30479SOL    HW193334   4.829   2.700   4.115
30479SOL    HW293335   4.682   2.666   4.108
30480SOL     OW93336   7.971   1.150   5.733
30480SOL    HW193337   8.029   1.124   5.662
30480SOL    HW293338   8.030   1.174   5.805
30481SOL     OW93339   1.364   3.138   1.319
30481SOL    HW193340   1.291   3.115   1.262
30481SOL    HW293341   1.330   3.207   1.376
30482SOL     OW93342   5.851   3.549   8.255
30482SOL    HW193343   5.855   3.581   8.165
30482SOL    HW293344   5.767   3.504   8.261
30483SOL     OW93345   3.770  12.104   6.286
30483SOL    HW193346   3.775  12.116   6.191
30483SOL    HW293347   3.843  12.046   6.307
30484SOL     OW93348  13.504   8.145   9.991
30484SOL    HW193349  13.468   8.201  10.059
30484SOL    HW293350  13.428   8.101   9.953
30485SOL     OW93351   7.852  11.670   8.293
30485SOL    HW193352   7.807  11.606   8.348
30485SOL    HW293353   7.883  11.737   8.354
30486SOL     OW93354  11.962   5.855   4.256
30486SOL    HW193355  11.891   5.846   4.319
30486SOL    HW293356  11.947   5.940   4.215
30487SOL     OW93357   4.520  12.187   6.826
30487SOL    HW193358   4.547  12.099   6.850
30487SOL    HW293359   4.600  12.239   6.832
30488SOL     OW93360  14.680   8.397  11.461
30488SOL    HW193361  14.645   8.409  11.550
30488SOL    HW293362  14.620   8.446  11.405
30489SOL     OW93363  14.127   3.144   8.499
30489SOL    HW193364  14.064   3.127   8.569
30489SOL    HW293365  14.187   3.070   8.502
30490SOL     OW93366  12.645  14.539   5.034
30490SOL    HW193367  12.598  14.594   4.971
30490SOL    HW293368  12.635  14.584   5.118
30491SOL     OW93369   7.232   4.957  14.878
30491SOL    HW193370   7.264   4.896   0.062
30491SOL    HW293371   7.311   4.993  14.838
30492SOL     OW93372  14.317   2.283  10.601
30492SOL    HW193373  14.368   2.352  10.561
30492SOL    HW293374  14.228   2.297  10.570
30493SOL     OW93375   6.147   4.435   9.500
30493SOL    HW193376   6.220   4.428   9.439
30493SOL    HW293377   6.184   4.414   9.586
30494SOL     OW93378   7.739  11.056   1.132
30494SOL    HW193379   7.814  11.089   1.083
30494SOL    HW293380   7.752  10.961   1.137
30495SOL     OW93381  12.936   4.807  12.951
30495SOL    HW193382  12.855   4.827  12.997
30495SOL    HW293383  13.004   4.849  13.002
30496SOL     OW93384   6.388  12.288  10.548
30496SOL    HW193385   6.407  12.202  10.510
30496SOL    HW293386   6.412  12.279  10.640
30497SOL     OW93387   8.892   6.905   9.801
30497SOL    HW193388   8.854   6.818   9.796
30497SOL    HW293389   8.904   6.921   9.895
30498SOL     OW93390   6.956   2.011   9.940
30498SOL    HW193391   7.007   2.017   9.860
30498SOL    HW293392   7.011   1.961  10.001
30499SOL     OW93393  13.221   3.738   7.257
30499SOL    HW193394  13.128   3.758   7.249
30499SOL    HW293395  13.265   3.821   7.236
30500SOL     OW93396   8.752   2.924  12.818
30500SOL    HW193397   8.747   2.866  12.894
30500SOL    HW293398   8.764   2.866  12.744
30501SOL     OW93399   8.529  11.567   6.667
30501SOL    HW193400   8.599  11.622   6.703
30501SOL    HW293401   8.452  11.588   6.720
30502SOL     OW93402  11.222  12.983  13.795
30502SOL    HW193403  11.197  12.949  13.880
30502SOL    HW293404  11.301  13.035  13.811
30503SOL     OW93405   4.089   4.636   6.291
30503SOL    HW193406   4.019   4.700   6.310
30503SOL    HW293407   4.159   4.688   6.252
30504SOL     OW93408   2.728  10.273   5.061
30504SOL    HW193409   2.724  10.312   4.974
30504SOL    HW293410   2.762  10.343   5.117
30505SOL     OW93411   4.796  14.660   0.830
30505SOL    HW193412   4.720  14.602   0.839
30505SOL    HW293413   4.802  14.704   0.914
30506SOL     OW93414   3.374  11.669   7.640
30506SOL    HW193415   3.313  11.725   7.687
30506SOL    HW293416   3.318  11.616   7.583
30507SOL     OW93417  13.880   2.741   9.938
30507SOL    HW193418  13.894   2.668   9.998
30507SOL    HW293419  13.830   2.704   9.865
30508SOL     OW93420   5.803   0.014  10.084
30508SOL    HW193421   5.709   0.020  10.098
30508SOL    HW293422   5.830  14.822  10.139
30509SOL     OW93423   6.953  12.387  14.811
30509SOL    HW193424   6.876  12.388  14.868
30509SOL    HW293425   7.025  12.414  14.867
30510SOL     OW93426   2.879  14.619   3.105
30510SOL    HW193427   2.872  14.686   3.173
30510SOL    HW293428   2.948  14.560   3.136
30511SOL     OW93429  12.328   8.118   8.862
30511SOL    HW193430  12.362   8.137   8.950
30511SOL    HW293431  12.377   8.041   8.833
30512SOL     OW93432   0.689   6.530   5.558
30512SOL    HW193433   0.646   6.592   5.500
30512SOL    HW293434   0.724   6.584   5.629
30513SOL     OW93435   4.837   9.406  13.615
30513SOL    HW193436   4.888   9.478  13.653
30513SOL    HW293437   4.902   9.350  13.573
30514SOL     OW93438  13.575   0.568   1.430
30514SOL    HW193439  13.545   0.477   1.434
30514SOL    HW293440  13.570   0.599   1.521
30515SOL     OW93441   4.683   3.131  14.068
30515SOL    HW193442   4.609   3.076  14.092
30515SOL    HW293443   4.759   3.086  14.105
30516SOL     OW93444   5.983  14.453   8.085
30516SOL    HW193445   6.042  14.489   8.152
30516SOL    HW293446   5.920  14.522   8.068
30517SOL     OW93447   1.829  11.463  14.745
30517SOL    HW193448   1.851  11.439  14.836
30517SOL    HW293449   1.821  11.558  14.747
30518SOL     OW93450   1.653   4.336   3.671
30518SOL    HW193451   1.570   4.375   3.641
30518SOL    HW293452   1.700   4.317   3.590
30519SOL     OW93453   6.044   5.672   2.960
30519SOL    HW193454   6.042   5.589   2.913
30519SOL    HW293455   6.061   5.649   3.051
30520SOL     OW93456   3.796   7.185  10.682
30520SOL    HW193457   3.786   7.089  10.681
30520SOL    HW293458   3.713   7.218  10.648
30521SOL     OW93459   1.528   4.691   1.042
30521SOL    HW193460   1.561   4.759   0.984
30521SOL    HW293461   1.598   4.626   1.044
30522SOL     OW93462  11.267  14.639  12.837
30522SOL    HW193463  11.276  14.597  12.923
30522SOL    HW293464  11.185  14.688  12.843
30523SOL     OW93465   6.212  12.454   8.137
30523SOL    HW193466   6.238  12.386   8.075
30523SOL    HW293467   6.167  12.520   8.084
30524SOL     OW93468  12.884  14.694   9.795
30524SOL    HW193469  12.799  14.724   9.828
30524SOL    HW293470  12.890  14.731   9.707
30525SOL     OW93471   4.918  13.543  12.902
30525SOL    HW193472   4.927  13.512  12.992
30525SOL    HW293473   4.849  13.488  12.865
30526SOL     OW93474   3.279   0.085  14.146
30526SOL    HW193475   3.274   0.009  14.204
30526SOL    HW293476   3.194   0.128  14.156
30527SOL     OW93477  14.449   2.931   4.392
30527SOL    HW193478  14.366   2.948   4.437
30527SOL    HW293479  14.509   2.903   4.461
30528SOL     OW93480  11.362   9.876  10.200
30528SOL    HW193481  11.316   9.912  10.124
30528SOL    HW293482  11.357   9.781  10.189
30529SOL     OW93483   6.534   0.356   9.287
30529SOL    HW193484   6.486   0.349   9.205
30529SOL    HW293485   6.521   0.446   9.315
30530SOL     OW93486   0.052  13.644  12.287
30530SOL    HW193487   0.015  13.568  12.332
30530SOL    HW293488   0.008  13.719  12.327
30531SOL     OW93489  14.395  12.390   1.849
30531SOL    HW193490  14.390  12.435   1.764
30531SOL    HW293491  14.472  12.333   1.840
30532SOL     OW93492   6.207  10.820   2.494
30532SOL    HW193493   6.142  10.881   2.459
30532SOL    HW293494   6.275  10.877   2.530
30533SOL     OW93495  14.133   2.217   7.194
30533SOL    HW193496  14.125   2.312   7.196
30533SOL    HW293497  14.043   2.185   7.207
30534SOL     OW93498   3.753  11.963   3.691
30534SOL    HW193499   3.842  11.989   3.718
30534SOL    HW293500   3.723  12.035   3.636
30535SOL     OW93501  14.580  13.934  14.881
30535SOL    HW193502  14.500  13.983  14.862
30535SOL    HW293503  14.633  13.943  14.802
30536SOL     OW93504  14.054   9.833   1.927
30536SOL    HW193505  13.972   9.880   1.908
30536SOL    HW293506  14.093   9.884   1.999
30537SOL     OW93507  12.624   0.224  12.315
30537SOL    HW193508  12.529   0.213  12.305
30537SOL    HW293509  12.634   0.280  12.393
30538SOL     OW93510   8.322  11.473  10.238
30538SOL    HW193511   8.362  11.394  10.203
30538SOL    HW293512   8.281  11.515  10.162
30539SOL     OW93513   6.619  10.815   0.383
30539SOL    HW193514   6.594  10.723   0.390
30539SOL    HW293515   6.686  10.817   0.314
30540SOL     OW93516   7.170  13.674   4.751
30540SOL    HW193517   7.182  13.753   4.804
30540SOL    HW293518   7.246  13.619   4.773
30541SOL     OW93519  12.540   6.990  10.434
30541SOL    HW193520  12.574   7.071  10.395
30541SOL    HW293521  12.446   6.994  10.417
30542SOL     OW93522  10.523   8.223  13.673
30542SOL    HW193523  10.610   8.193  13.645
30542SOL    HW293524  10.473   8.227  13.592
30543SOL     OW93525   2.786   9.721   7.533
30543SOL    HW193526   2.753   9.640   7.572
30543SOL    HW293527   2.842   9.693   7.461
30544SOL     OW93528   2.649   9.530   7.675
30544SOL    HW193529   2.568   9.559   7.632
30544SOL    HW293530   2.650   9.435   7.660
30545SOL     OW93531  10.535   1.339   2.931
30545SOL    HW193532  10.587   1.404   2.884
30545SOL    HW293533  10.599   1.292   2.986
30546SOL     OW93534   5.278  10.958   1.367
30546SOL    HW193535   5.323  10.894   1.312
30546SOL    HW293536   5.202  10.912   1.401
30547SOL     OW93537   8.954   2.260   5.146
30547SOL    HW193538   8.935   2.261   5.240
30547SOL    HW293539   9.049   2.253   5.141
30548SOL     OW93540   0.885   6.813   9.633
30548SOL    HW193541   0.897   6.725   9.599
30548SOL    HW293542   0.938   6.816   9.712
30549SOL     OW93543  13.284   8.929   2.319
30549SOL    HW193544  13.251   8.866   2.254
30549SOL    HW293545  13.268   9.015   2.280
30550SOL     OW93546  12.572  12.220   2.410
30550SOL    HW193547  12.589  12.208   2.504
30550SOL    HW293548  12.485  12.184   2.397
30551SOL     OW93549  14.361   3.079   3.886
30551SOL    HW193550  14.398   3.020   3.951
30551SOL    HW293551  14.267   3.062   3.889
30552SOL     OW93552  13.530   6.343  13.803
30552SOL    HW193553  13.589   6.303  13.739
30552SOL    HW293554  13.587   6.364  13.877
30553SOL     OW93555   6.696   2.620   6.882
30553SOL    HW193556   6.774   2.597   6.932
30553SOL    HW293557   6.682   2.713   6.900
30554SOL     OW93558   5.443  11.006   5.995
30554SOL    HW193559   5.358  11.017   5.952
30554SOL    HW293560   5.445  11.074   6.062
30555SOL     OW93561   5.088   2.786   8.201
30555SOL    HW193562   4.993   2.794   8.196
30555SOL    HW293563   5.112   2.835   8.280
30556SOL     OW93564  11.885   9.654   7.974
30556SOL    HW193565  11.941   9.586   8.011
30556SOL    HW293566  11.939   9.733   7.974
30557SOL     OW93567   2.557   7.867  12.358
30557SOL    HW193568   2.586   7.905  12.275
30557SOL    HW293569   2.477   7.819  12.336
30558SOL     OW93570  12.458   1.463  11.067
30558SOL    HW193571  12.508   1.541  11.093
30558SOL    HW293572  12.520   1.411  11.017
30559SOL     OW93573   3.259   6.142   0.180
30559SOL    HW193574   3.201   6.085   0.229
30559SOL    HW293575   3.301   6.196   0.246
30560SOL     OW93576  12.136   0.474   8.789
30560SOL    HW193577  12.148   0.405   8.855
30560SOL    HW293578  12.214   0.468   8.733
30561SOL     OW93579   1.237  13.285   7.902
30561SOL    HW193580   1.201  13.282   7.991
30561SOL    HW293581   1.159  13.286   7.846
30562SOL     OW93582   6.076   7.572   1.650
30562SOL    HW193583   6.037   7.509   1.588
30562SOL    HW293584   6.141   7.619   1.598
30563SOL     OW93585   9.945  11.404  14.777
30563SOL    HW193586   9.960  11.328  14.722
30563SOL    HW293587   9.897  11.371  14.853
30564SOL     OW93588   7.320   7.279   8.694
30564SOL    HW193589   7.385   7.326   8.746
30564SOL    HW293590   7.340   7.186   8.710
30565SOL     OW93591  13.831  10.362  14.360
30565SOL    HW193592  13.839  10.410  14.443
30565SOL    HW293593  13.864  10.274  14.380
30566SOL     OW93594  13.186  12.719   5.260
30566SOL    HW193595  13.133  12.643   5.282
30566SOL    HW293596  13.209  12.758   5.344
30567SOL     OW93597  11.027   2.405  10.411
30567SOL    HW193598  11.052   2.496  10.426
30567SOL    HW293599  11.110   2.358  10.403
30568SOL     OW93600   3.317   4.679   8.949
30568SOL    HW193601   3.259   4.755   8.949
30568SOL    HW293602   3.302   4.638   9.034
30569SOL     OW93603   7.761  13.742   4.275
30569SOL    HW193604   7.846  13.701   4.257
30569SOL    HW293605   7.784  13.829   4.309
30570SOL     OW93606   4.348   0.536  11.463
30570SOL    HW193607   4.319   0.481  11.536
30570SOL    HW293608   4.295   0.615  11.470
30571SOL     OW93609   1.211  12.803   1.789
30571SOL    HW193610   1.191  12.885   1.834
30571SOL    HW293611   1.214  12.738   1.859
30572SOL     OW93612   1.744   7.718  14.489
30572SOL    HW193613   1.805   7.688  14.556
30572SOL    HW293614   1.740   7.646  14.426
30573SOL     OW93615   9.401   8.637  14.335
30573SOL    HW193616   9.314   8.647  14.375
30573SOL    HW293617   9.407   8.709  14.273
30574SOL     OW93618   2.075   5.058  13.957
30574SOL    HW193619   2.092   5.000  13.883
30574SOL    HW293620   2.144   5.124  13.953
30575SOL     OW93621  12.540  10.951   4.751
30575SOL    HW193622  12.613  10.890   4.763
30575SOL    HW293623  12.463  10.895   4.744
30576SOL     OW93624  11.759   5.638  12.971
30576SOL    HW193625  11.770   5.617  13.064
30576SOL    HW293626  11.673   5.603  12.948
30577SOL     OW93627  11.248   7.538   0.004
30577SOL    HW193628  11.317   7.581  14.835
30577SOL    HW293629  11.167   7.556  14.837
30578SOL     OW93630   6.404  11.907   3.816
30578SOL    HW193631   6.419  11.873   3.728
30578SOL    HW293632   6.469  11.863   3.870
30579SOL     OW93633  10.541  10.325   6.405
30579SOL    HW193634  10.500  10.273   6.473
30579SOL    HW293635  10.538  10.269   6.327
30580SOL     OW93636  13.733  13.997  10.745
30580SOL    HW193637  13.659  14.051  10.773
30580SOL    HW293638  13.707  13.908  10.768
30581SOL     OW93639   7.139  10.663  10.986
30581SOL    HW193640   7.179  10.600  11.047
30581SOL    HW293641   7.124  10.612  10.906
30582SOL     OW93642   2.793  13.862  12.164
30582SOL    HW193643   2.853  13.933  12.188
30582SOL    HW293644   2.813  13.844  12.072
30583SOL     OW93645   4.077   3.400   2.088
30583SOL    HW193646   4.093   3.493   2.073
30583SOL    HW293647   4.145   3.373   2.149
30584SOL     OW93648   9.477   6.033  12.641
30584SOL    HW193649   9.566   6.036  12.607
30584SOL    HW293650   9.482   5.979  12.720
30585SOL     OW93651   5.285   9.549   1.270
30585SOL    HW193652   5.291   9.464   1.228
30585SOL    HW293653   5.227   9.535   1.345
30586SOL     OW93654  12.332   8.357   6.347
30586SOL    HW193655  12.272   8.306   6.401
30586SOL    HW293656  12.348   8.302   6.271
30587SOL     OW93657   6.805  14.672   3.781
30587SOL    HW193658   6.746  14.667   3.857
30587SOL    HW293659   6.892  14.655   3.817
30588SOL     OW93660  12.232  12.517   8.137
30588SOL    HW193661  12.219  12.443   8.195
30588SOL    HW293662  12.198  12.592   8.185
30589SOL     OW93663   4.083   6.797   8.655
30589SOL    HW193664   4.141   6.720   8.658
30589SOL    HW293665   4.092   6.831   8.567
30590SOL     OW93666   7.435   3.040   5.646
30590SOL    HW193667   7.447   2.956   5.689
30590SOL    HW293668   7.457   3.105   5.713
30591SOL     OW93669   2.619   0.151   8.960
30591SOL    HW193670   2.665   0.067   8.957
30591SOL    HW293671   2.674   0.211   8.910
30592SOL     OW93672  11.775   7.590   6.374
30592SOL    HW193673  11.724   7.555   6.301
30592SOL    HW293674  11.853   7.535   6.377
30593SOL     OW93675   3.855   5.342   6.057
30593SOL    HW193676   3.892   5.342   5.968
30593SOL    HW293677   3.779   5.285   6.052
30594SOL     OW93678   2.542   3.622  12.373
30594SOL    HW193679   2.469   3.655  12.320
30594SOL    HW293680   2.582   3.700  12.411
30595SOL     OW93681   9.181   1.145   3.654
30595SOL    HW193682   9.133   1.078   3.703
30595SOL    HW293683   9.273   1.119   3.661
30596SOL     OW93684   0.733   7.493   8.532
30596SOL    HW193685   0.828   7.486   8.525
30596SOL    HW293686   0.699   7.415   8.488
30597SOL     OW93687   9.861   1.773   6.541
30597SOL    HW193688   9.783   1.739   6.585
30597SOL    HW293689   9.931   1.713   6.565
30598SOL     OW93690   5.250   3.257   4.234
30598SOL    HW193691   5.209   3.236   4.318
30598SOL    HW293692   5.339   3.283   4.257
30599SOL     OW93693   4.577   6.327   3.700
30599SOL    HW193694   4.603   6.406   3.748
30599SOL    HW293695   4.540   6.361   3.618
30600SOL     OW93696  11.834   1.187  13.287
30600SOL    HW193697  11.867   1.277  13.289
30600SOL    HW293698  11.838   1.163  13.194
30601SOL     OW93699   6.528   6.402   3.601
30601SOL    HW193700   6.565   6.453   3.529
30601SOL    HW293701   6.539   6.458   3.678
30602SOL     OW93702   2.588   1.351   4.502
30602SOL    HW193703   2.641   1.273   4.515
30602SOL    HW293704   2.622   1.391   4.423
30603SOL     OW93705  14.155   9.093   8.623
30603SOL    HW193706  14.060   9.092   8.619
30603SOL    HW293707  14.182   9.010   8.584
30604SOL     OW93708   6.892   1.194  14.124
30604SOL    HW193709   6.885   1.100  14.107
30604SOL    HW293710   6.959   1.224  14.062
30605SOL     OW93711  14.613  14.660  10.340
30605SOL    HW193712  14.633  14.584  10.394
30605SOL    HW293713  14.567  14.625  10.264
30606SOL     OW93714   8.607   5.397   5.087
30606SOL    HW193715   8.663   5.344   5.144
30606SOL    HW293716   8.518   5.375   5.113
30607SOL     OW93717   8.592   2.506   5.523
30607SOL    HW193718   8.611   2.452   5.446
30607SOL    HW293719   8.604   2.448   5.598
30608SOL     OW93720   3.156   0.918   6.970
30608SOL    HW193721   3.234   0.906   6.916
30608SOL    HW293722   3.084   0.929   6.908
30609SOL     OW93723  10.344   8.091  12.690
30609SOL    HW193724  10.278   8.067  12.754
30609SOL    HW293725  10.412   8.135  12.740
30610SOL     OW93726   8.990  13.959   7.095
30610SOL    HW193727   9.004  14.010   7.175
30610SOL    HW293728   8.945  13.880   7.125
30611SOL     OW93729  13.714  13.651  14.359
30611SOL    HW193730  13.743  13.672  14.447
30611SOL    HW293731  13.663  13.728  14.332
30612SOL     OW93732   5.765   5.291   3.150
30612SOL    HW193733   5.858   5.293   3.128
30612SOL    HW293734   5.747   5.199   3.169
30613SOL     OW93735   8.968   6.854  14.468
30613SOL    HW193736   8.873   6.848  14.458
30613SOL    HW293737   8.981   6.919  14.538
30614SOL     OW93738   2.074  11.956   3.882
30614SOL    HW193739   2.101  11.867   3.905
30614SOL    HW293740   1.981  11.947   3.860
30615SOL     OW93741   8.486   1.557  11.617
30615SOL    HW193742   8.483   1.468  11.582
30615SOL    HW293743   8.450   1.612  11.548
30616SOL     OW93744   5.838  10.388   0.769
30616SOL    HW193745   5.905  10.329   0.803
30616SOL    HW293746   5.886  10.465   0.740
30617SOL     OW93747  14.766   0.921   5.733
30617SOL    HW193748  14.755   0.933   5.638
30617SOL    HW293749  14.690   0.871   5.760
30618SOL     OW93750   2.264   3.052  12.049
30618SOL    HW193751   2.358   3.031  12.044
30618SOL    HW293752   2.248   3.067  12.142
30619SOL     OW93753   2.132   2.135  12.596
30619SOL    HW193754   2.062   2.088  12.551
30619SOL    HW293755   2.169   2.069  12.656
30620SOL     OW93756   1.933   9.305   4.775
30620SOL    HW193757   1.897   9.255   4.848
30620SOL    HW293758   1.869   9.295   4.704
30621SOL     OW93759   3.841  13.631   7.711
30621SOL    HW193760   3.867  13.538   7.709
30621SOL    HW293761   3.773  13.638   7.643
30622SOL     OW93762   9.572  12.098   1.970
30622SOL    HW193763   9.555  12.103   2.064
30622SOL    HW293764   9.667  12.099   1.963
30623SOL     OW93765   5.991   8.719  11.161
30623SOL    HW193766   6.066   8.712  11.220
30623SOL    HW293767   5.974   8.629  11.133
30624SOL     OW93768  14.618   4.846   6.929
30624SOL    HW193769  14.555   4.895   6.983
30624SOL    HW293770  14.676   4.914   6.895
30625SOL     OW93771  10.839   2.503   5.408
30625SOL    HW193772  10.876   2.583   5.371
30625SOL    HW293773  10.744   2.514   5.398
30626SOL     OW93774   8.994   3.992   0.837
30626SOL    HW193775   8.950   3.951   0.912
30626SOL    HW293776   9.047   3.922   0.799
30627SOL     OW93777   3.397   8.810  12.603
30627SOL    HW193778   3.475   8.851  12.566
30627SOL    HW293779   3.427   8.725  12.636
30628SOL     OW93780   6.104   4.158   9.820
30628SOL    HW193781   6.015   4.191   9.827
30628SOL    HW293782   6.120   4.152   9.725
30629SOL     OW93783   5.541   2.376  12.627
30629SOL    HW193784   5.559   2.370  12.721
30629SOL    HW293785   5.615   2.331  12.586
30630SOL     OW93786   0.014  13.272   5.949
30630SOL    HW193787   0.018  13.292   6.042
30630SOL    HW293788  14.805  13.284   5.925
30631SOL     OW93789   4.528  14.636  10.474
30631SOL    HW193790   4.494  14.552  10.444
30631SOL    HW293791   4.599  14.613  10.535
30632SOL     OW93792  12.532   1.411   1.126
30632SOL    HW193793  12.439   1.432   1.137
30632SOL    HW293794  12.534   1.346   1.056
30633SOL     OW93795   2.336   1.952   6.813
30633SOL    HW193796   2.418   1.921   6.852
30633SOL    HW293797   2.355   1.954   6.719
30634SOL     OW93798   6.085   5.113  14.509
30634SOL    HW193799   6.046   5.068  14.584
30634SOL    HW293800   6.155   5.054  14.479
30635SOL     OW93801  12.742  10.736   4.809
30635SOL    HW193802  12.735  10.708   4.900
30635SOL    HW293803  12.691  10.672   4.760
30636SOL     OW93804   4.519  14.752  12.683
30636SOL    HW193805   4.581  14.735  12.754
30636SOL    HW293806   4.568  14.806  12.621
30637SOL     OW93807   1.239   0.304   0.801
30637SOL    HW193808   1.215   0.396   0.790
30637SOL    HW293809   1.156   0.257   0.796
30638SOL     OW93810   7.302   1.658   3.359
30638SOL    HW193811   7.356   1.735   3.379
30638SOL    HW293812   7.291   1.661   3.264
30639SOL     OW93813   0.630   1.403   7.598
30639SOL    HW193814   0.711   1.454   7.592
30639SOL    HW293815   0.659   1.315   7.624
30640SOL     OW93816   5.255   7.819   6.832
30640SOL    HW193817   5.191   7.802   6.901
30640SOL    HW293818   5.220   7.776   6.755
30641SOL     OW93819  11.736  11.093  10.240
30641SOL    HW193820  11.763  11.176  10.200
30641SOL    HW293821  11.803  11.074  10.305
30642SOL     OW93822   4.675  13.135  12.745
30642SOL    HW193823   4.639  13.130  12.656
30642SOL    HW293824   4.770  13.136  12.732
30643SOL     OW93825  10.339  14.820  12.101
30643SOL    HW193826  10.244  14.827  12.098
30643SOL    HW293827  10.359  14.796  12.191
30644SOL     OW93828   5.445   2.236   0.700
30644SOL    HW193829   5.472   2.153   0.662
30644SOL    HW293830   5.511   2.299   0.668
30645SOL     OW93831   7.550  14.674   1.927
30645SOL    HW193832   7.489  14.713   1.989
30645SOL    HW293833   7.530  14.580   1.930
30646SOL     OW93834   9.557   1.771   9.084
30646SOL    HW193835   9.561   1.833   9.011
30646SOL    HW293836   9.555   1.826   9.162
30647SOL     OW93837   1.328  14.359   1.562
30647SOL    HW193838   1.406  14.305   1.574
30647SOL    HW293839   1.257  14.309   1.601
30648SOL     OW93840   4.068  12.683   8.361
30648SOL    HW193841   4.089  12.621   8.291
30648SOL    HW293842   4.020  12.632   8.426
30649SOL     OW93843   5.478  10.985   6.351
30649SOL    HW193844   5.540  10.927   6.395
30649SOL    HW293845   5.436  10.931   6.284
30650SOL     OW93846   7.585  11.155  12.866
30650SOL    HW193847   7.551  11.208  12.794
30650SOL    HW293848   7.673  11.130  12.838
30651SOL     OW93849   8.467   0.460  14.534
30651SOL    HW193850   8.521   0.537  14.518
30651SOL    HW293851   8.380   0.496  14.554
30652SOL     OW93852  11.694  10.834   2.209
30652SOL    HW193853  11.780  10.833   2.250
30652SOL    HW293854  11.654  10.916   2.238
30653SOL     OW93855  14.156   9.195   0.438
30653SOL    HW193856  14.157   9.291   0.434
30653SOL    HW293857  14.233   9.173   0.490
30654SOL     OW93858  12.369   2.331   0.172
30654SOL    HW193859  12.422   2.259   0.204
30654SOL    HW293860  12.423   2.373   0.105
30655SOL     OW93861   5.771  14.176   6.997
30655SOL    HW193862   5.769  14.147   7.089
30655SOL    HW293863   5.841  14.125   6.958
30656SOL     OW93864   9.800   9.805   7.292
30656SOL    HW193865   9.888   9.775   7.318
30656SOL    HW293866   9.748   9.725   7.291
30657SOL     OW93867   2.523   2.371   3.844
30657SOL    HW193868   2.499   2.288   3.804
30657SOL    HW293869   2.442   2.403   3.883
30658SOL     OW93870   5.238   6.012  12.497
30658SOL    HW193871   5.149   5.978  12.505
30658SOL    HW293872   5.240   6.090  12.552
30659SOL     OW93873  10.235   5.495   7.250
30659SOL    HW193874  10.299   5.425   7.264
30659SOL    HW293875  10.185   5.499   7.331
30660SOL     OW93876   8.581   4.687  10.509
30660SOL    HW193877   8.654   4.678  10.570
30660SOL    HW293878   8.611   4.751  10.445
30661SOL     OW93879  14.595   6.819   5.359
30661SOL    HW193880  14.545   6.766   5.297
30661SOL    HW293881  14.607   6.762   5.435
30662SOL     OW93882   4.154   9.728   6.294
30662SOL    HW193883   4.187   9.817   6.292
30662SOL    HW293884   4.171   9.694   6.206
30663SOL     OW93885   5.758   2.378   2.014
30663SOL    HW193886   5.846   2.395   1.982
30663SOL    HW293887   5.746   2.284   2.002
30664SOL     OW93888  12.074   4.586   2.164
30664SOL    HW193889  12.127   4.666   2.162
30664SOL    HW293890  12.033   4.586   2.251
30665SOL     OW93891   2.649  10.383   2.784
30665SOL    HW193892   2.709  10.373   2.857
30665SOL    HW293893   2.683  10.324   2.717
30666SOL     OW93894   7.107   5.405   7.806
30666SOL    HW193895   7.047   5.356   7.750
30666SOL    HW293896   7.193   5.390   7.767
30667SOL     OW93897   8.787   2.889   5.240
30667SOL    HW193898   8.840   2.828   5.189
30667SOL    HW293899   8.742   2.834   5.304
30668SOL     OW93900  11.805  13.072  14.286
30668SOL    HW193901  11.896  13.097  14.304
30668SOL    HW293902  11.811  13.002  14.222
30669SOL     OW93903   1.578   8.822   4.536
30669SOL    HW193904   1.560   8.827   4.442
30669SOL    HW293905   1.638   8.895   4.553
30670SOL     OW93906   7.217   5.941  14.100
30670SOL    HW193907   7.295   5.988  14.070
30670SOL    HW293908   7.150   5.961  14.035
30671SOL     OW93909   7.217   3.703   0.573
30671SOL    HW193910   7.302   3.666   0.550
30671SOL    HW293911   7.176   3.635   0.627
30672SOL     OW93912   0.428   6.442   7.432
30672SOL    HW193913   0.371   6.366   7.421
30672SOL    HW293914   0.381   6.498   7.494
30673SOL     OW93915   0.310   0.788  14.482
30673SOL    HW193916   0.404   0.770  14.479
30673SOL    HW293917   0.271   0.720  14.427
30674SOL     OW93918   4.522  11.229   5.828
30674SOL    HW193919   4.504  11.146   5.872
30674SOL    HW293920   4.563  11.283   5.896
30675SOL     OW93921   2.446   6.557  10.504
30675SOL    HW193922   2.440   6.572  10.409
30675SOL    HW293923   2.359   6.582  10.537
30676SOL     OW93924  13.050  10.485   6.650
30676SOL    HW193925  12.991  10.488   6.575
30676SOL    HW293926  13.120  10.425   6.622
30677SOL     OW93927  14.097   8.834   8.572
30677SOL    HW193928  14.172   8.792   8.615
30677SOL    HW293929  14.023   8.815   8.630
30678SOL     OW93930   1.783   7.030  10.409
30678SOL    HW193931   1.696   6.991  10.420
30678SOL    HW293932   1.809   7.007  10.320
30679SOL     OW93933   9.557  12.750   8.129
30679SOL    HW193934   9.519  12.717   8.047
30679SOL    HW293935   9.646  12.717   8.129
30680SOL     OW93936  12.856  10.337   2.133
30680SOL    HW193937  12.863  10.432   2.125
30680SOL    HW293938  12.769  10.316   2.098
30681SOL     OW93939   6.493   6.731   1.696
30681SOL    HW193940   6.580   6.743   1.734
30681SOL    HW293941   6.507   6.737   1.602
30682SOL     OW93942   8.751   7.339  10.507
30682SOL    HW193943   8.774   7.383  10.589
30682SOL    HW293944   8.722   7.252  10.533
30683SOL     OW93945  10.556  12.349  14.352
30683SOL    HW193946  10.503  12.378  14.426
30683SOL    HW293947  10.625  12.295  14.391
30684SOL     OW93948  11.085   9.830   5.055
30684SOL    HW193949  11.160   9.804   5.003
30684SOL    HW293950  11.010   9.791   5.010
30685SOL     OW93951   9.947   4.815   0.646
30685SOL    HW193952   9.865   4.822   0.695
30685SOL    HW293953  10.015   4.810   0.713
30686SOL     OW93954   2.627   0.629   0.508
30686SOL    HW193955   2.575   0.670   0.577
30686SOL    HW293956   2.642   0.700   0.445
30687SOL     OW93957   6.012   4.575   6.822
30687SOL    HW193958   6.023   4.650   6.881
30687SOL    HW293959   5.934   4.531   6.853
30688SOL     OW93960  11.764   3.567  11.611
30688SOL    HW193961  11.841   3.525  11.647
30688SOL    HW293962  11.719   3.605  11.687
30689SOL     OW93963   5.776  11.922   3.388
30689SOL    HW193964   5.837  11.848   3.385
30689SOL    HW293965   5.808  11.976   3.460
30690SOL     OW93966  12.719   9.333   9.705
30690SOL    HW193967  12.729   9.286   9.788
30690SOL    HW293968  12.693   9.265   9.643
30691SOL     OW93969   8.154   7.919  12.619
30691SOL    HW193970   8.077   7.942  12.672
30691SOL    HW293971   8.204   8.000  12.613
30692SOL     OW93972   5.703  12.836   5.237
30692SOL    HW193973   5.791  12.806   5.259
30692SOL    HW293974   5.692  12.812   5.145
30693SOL     OW93975   5.951   4.296   4.787
30693SOL    HW193976   5.995   4.219   4.822
30693SOL    HW293977   5.897   4.262   4.716
30694SOL     OW93978   3.538   3.691   8.557
30694SOL    HW193979   3.540   3.670   8.464
30694SOL    HW293980   3.528   3.786   8.560
30695SOL     OW93981   7.623   0.323   8.047
30695SOL    HW193982   7.569   0.260   7.998
30695SOL    HW293983   7.712   0.291   8.038
30696SOL     OW93984   3.934  14.306   5.591
30696SOL    HW193985   3.865  14.244   5.566
30696SOL    HW293986   3.943  14.296   5.686
30697SOL     OW93987   0.997   7.963  11.972
30697SOL    HW193988   1.011   7.946  11.878
30697SOL    HW293989   1.025   7.883  12.015
30698SOL     OW93990   1.237   2.740  12.656
30698SOL    HW193991   1.280   2.656  12.673
30698SOL    HW293992   1.272   2.799  12.722
30699SOL     OW93993  13.589   2.462   3.131
30699SOL    HW193994  13.572   2.394   3.066
30699SOL    HW293995  13.626   2.534   3.081
30700SOL     OW93996  14.593   1.208   1.660
30700SOL    HW193997  14.566   1.234   1.572
30700SOL    HW293998  14.672   1.155   1.647
30701SOL     OW93999  12.308  10.971   2.077
30701SOL    HW194000  12.303  10.877   2.095
30701SOL    HW294001  12.259  10.982   1.995
30702SOL     OW94002  13.239   9.563   3.285
30702SOL    HW194003  13.220   9.567   3.191
30702SOL    HW294004  13.255   9.470   3.301
30703SOL     OW94005   2.232  12.248   5.017
30703SOL    HW194006   2.315  12.210   5.045
30703SOL    HW294007   2.256  12.312   4.950
30704SOL     OW94008  13.401  14.685  12.878
30704SOL    HW194009  13.468  14.618  12.884
30704SOL    HW294010  13.448  14.768  12.893
30705SOL     OW94011   7.101   1.320   0.993
30705SOL    HW194012   7.085   1.332   0.899
30705SOL    HW294013   7.149   1.238   0.999
30706SOL     OW94014   9.949   3.903  12.942
30706SOL    HW194015   9.966   3.838  13.010
30706SOL    HW294016  10.011   3.880  12.872
30707SOL     OW94017   3.975   2.672   0.959
30707SOL    HW194018   3.977   2.600   1.022
30707SOL    HW294019   4.020   2.744   1.003
30708SOL     OW94020   8.605   1.867   3.464
30708SOL    HW194021   8.537   1.863   3.531
30708SOL    HW294022   8.612   1.960   3.442
30709SOL     OW94023   3.517   5.689   4.627
30709SOL    HW194024   3.607   5.708   4.601
30709SOL    HW294025   3.468   5.769   4.605
30710SOL     OW94026   0.538   5.500   0.957
30710SOL    HW194027   0.504   5.445   1.027
30710SOL    HW294028   0.501   5.587   0.975
30711SOL     OW94029   9.399   0.033   2.347
30711SOL    HW194030   9.357  14.830   2.334
30711SOL    HW294031   9.491   0.011   2.364
30712SOL     OW94032   9.245  11.578   0.859
30712SOL    HW194033   9.249  11.665   0.819
30712SOL    HW294034   9.234  11.596   0.952
30713SOL     OW94035  13.020  10.105   1.303
30713SOL    HW194036  13.060  10.113   1.216
30713SOL    HW294037  13.094  10.096   1.363
30714SOL     OW94038   4.983   7.464  12.018
30714SOL    HW194039   4.938   7.548  12.025
30714SOL    HW294040   4.941   7.420  11.944
30715SOL     OW94041   3.932   1.461   3.401
30715SOL    HW194042   3.935   1.557   3.397
30715SOL    HW294043   3.908   1.434   3.312
30716SOL     OW94044   3.515  14.010   6.978
30716SOL    HW194045   3.554  14.097   6.965
30716SOL    HW294046   3.428  14.028   7.012
30717SOL     OW94047  11.105   0.055  11.745
30717SOL    HW194048  11.088   0.112  11.820
30717SOL    HW294049  11.158   0.109  11.686
30718SOL     OW94050   3.697   5.815   7.663
30718SOL    HW194051   3.710   5.732   7.616
30718SOL    HW294052   3.779   5.829   7.710
30719SOL     OW94053   7.516   1.237  12.939
30719SOL    HW194054   7.444   1.178  12.961
30719SOL    HW294055   7.564   1.247  13.022
30720SOL     OW94056   8.441  14.720   2.134
30720SOL    HW194057   8.422  14.699   2.042
30720SOL    HW294058   8.494  14.799   2.130
30721SOL     OW94059  13.598  13.135   8.993
30721SOL    HW194060  13.508  13.127   8.963
30721SOL    HW294061  13.605  13.074   9.066
30722SOL     OW94062  10.017   5.557   6.005
30722SOL    HW194063   9.951   5.541   5.938
30722SOL    HW294064  10.096   5.514   5.972
30723SOL     OW94065   7.263  11.856   7.296
30723SOL    HW194066   7.337  11.798   7.279
30723SOL    HW294067   7.303  11.941   7.314
30724SOL     OW94068   4.501   5.278   4.255
30724SOL    HW194069   4.566   5.326   4.203
30724SOL    HW294070   4.479   5.203   4.200
30725SOL     OW94071  10.087  14.497  10.355
30725SOL    HW194072  10.116  14.522  10.268
30725SOL    HW294073  10.059  14.580  10.395
30726SOL     OW94074   8.931  12.951  12.864
30726SOL    HW194075   8.904  12.923  12.777
30726SOL    HW294076   8.915  12.875  12.920
30727SOL     OW94077   6.015   5.289   3.070
30727SOL    HW194078   6.110   5.279   3.080
30727SOL    HW294079   5.991   5.221   3.006
30728SOL     OW94080   9.270   0.298   9.409
30728SOL    HW194081   9.228   0.273   9.491
30728SOL    HW294082   9.261   0.221   9.353
30729SOL     OW94083   4.756  10.857  10.585
30729SOL    HW194084   4.695  10.903  10.527
30729SOL    HW294085   4.735  10.890  10.673
30730SOL     OW94086  10.538   6.578   3.930
30730SOL    HW194087  10.451   6.565   3.967
30730SOL    HW294088  10.587   6.500   3.956
30731SOL     OW94089  11.042  11.070   7.121
30731SOL    HW194090  10.975  11.008   7.093
30731SOL    HW294091  11.103  11.074   7.047
30732SOL     OW94092   3.805   3.621  12.034
30732SOL    HW194093   3.820   3.548  11.974
30732SOL    HW294094   3.883   3.623  12.089
30733SOL     OW94095  12.047   1.239   2.326
30733SOL    HW194096  12.081   1.326   2.304
30733SOL    HW294097  12.025   1.245   2.419
30734SOL     OW94098   9.141   2.523  11.562
30734SOL    HW194099   9.093   2.585  11.617
30734SOL    HW294100   9.188   2.467  11.624
30735SOL     OW94101  11.407  11.329  13.584
30735SOL    HW194102  11.436  11.263  13.521
30735SOL    HW294103  11.369  11.398  13.529
30736SOL     OW94104   9.752   3.804   4.780
30736SOL    HW194105   9.683   3.853   4.736
30736SOL    HW294106   9.769   3.730   4.722
30737SOL     OW94107   2.243   9.423  12.436
30737SOL    HW194108   2.180   9.494  12.426
30737SOL    HW294109   2.264   9.424  12.530
30738SOL     OW94110   3.685   3.835   3.316
30738SOL    HW194111   3.649   3.823   3.404
30738SOL    HW294112   3.711   3.927   3.313
30739SOL     OW94113   1.586   3.843   5.903
30739SOL    HW194114   1.612   3.930   5.872
30739SOL    HW294115   1.505   3.824   5.855
30740SOL     OW94116  13.177   6.335   5.947
30740SOL    HW194117  13.084   6.326   5.927
30740SOL    HW294118  13.185   6.424   5.982
30741SOL     OW94119   5.318  14.314   9.643
30741SOL    HW194120   5.351  14.377   9.707
30741SOL    HW294121   5.388  14.249   9.636
30742SOL     OW94122   5.487  14.702   4.739
30742SOL    HW194123   5.519  14.715   4.829
30742SOL    HW294124   5.564  14.717   4.684
30743SOL     OW94125  13.843   7.578  13.940
30743SOL    HW194126  13.797   7.501  13.907
30743SOL    HW294127  13.778   7.649  13.935
30744SOL     OW94128  11.548   0.076   4.920
30744SOL    HW194129  11.462   0.089   4.961
30744SOL    HW294130  11.603   0.044   4.991
30745SOL     OW94131   2.342   7.883  14.072
30745SOL    HW194132   2.300   7.916  14.152
30745SOL    HW294133   2.334   7.788  14.078
30746SOL     OW94134   5.146   8.380   4.128
30746SOL    HW194135   5.194   8.352   4.050
30746SOL    HW294136   5.065   8.417   4.094
30747SOL     OW94137   3.472   3.157   0.263
30747SOL    HW194138   3.450   3.249   0.248
30747SOL    HW294139   3.399   3.123   0.315
30748SOL     OW94140   7.691  11.203  13.989
30748SOL    HW194141   7.736  11.146  13.927
30748SOL    HW294142   7.672  11.283  13.939
30749SOL     OW94143   4.926  11.197   3.416
30749SOL    HW194144   4.984  11.141   3.364
30749SOL    HW294145   4.846  11.205   3.363
30750SOL     OW94146   0.706  12.361   6.095
30750SOL    HW194147   0.761  12.440   6.096
30750SOL    HW294148   0.724  12.321   6.010
30751SOL     OW94149  12.210   7.205   7.694
30751SOL    HW194150  12.236   7.276   7.753
30751SOL    HW294151  12.139   7.161   7.741
30752SOL     OW94152   9.156   5.055  14.397
30752SOL    HW194153   9.077   5.001  14.407
30752SOL    HW294154   9.166   5.099  14.482
30753SOL     OW94155   4.487  13.091   0.119
30753SOL    HW194156   4.459  13.008   0.158
30753SOL    HW294157   4.569  13.112   0.164
30754SOL     OW94158  12.390   9.532   5.798
30754SOL    HW194159  12.376   9.599   5.866
30754SOL    HW294160  12.357   9.573   5.718
30755SOL     OW94161   5.935   9.038  12.462
30755SOL    HW194162   5.971   8.980  12.396
30755SOL    HW294163   6.009   9.058  12.520
30756SOL     OW94164  12.256   1.803  13.286
30756SOL    HW194165  12.223   1.794  13.197
30756SOL    HW294166  12.344   1.767  13.283
30757SOL     OW94167   7.949   8.846  11.145
30757SOL    HW194168   7.861   8.870  11.173
30757SOL    HW294169   7.938   8.760  11.104
30758SOL     OW94170   2.126   4.885   8.878
30758SOL    HW194171   2.083   4.842   8.804
30758SOL    HW294172   2.177   4.816   8.919
30759SOL     OW94173   6.788   1.311  10.468
30759SOL    HW194174   6.697   1.341  10.474
30759SOL    HW294175   6.782   1.222  10.432
30760SOL     OW94176   0.926   2.736   7.545
30760SOL    HW194177   0.975   2.656   7.525
30760SOL    HW294178   0.891   2.721   7.633
30761SOL     OW94179  14.090   1.392  10.167
30761SOL    HW194180  13.996   1.375  10.171
30761SOL    HW294181  14.125   1.323  10.110
30762SOL     OW94182   8.257   4.352   5.839
30762SOL    HW194183   8.176   4.305   5.823
30762SOL    HW294184   8.323   4.284   5.854
30763SOL     OW94185   2.798  10.505   4.408
30763SOL    HW194186   2.846  10.563   4.349
30763SOL    HW294187   2.833  10.525   4.495
30764SOL     OW94188   8.608   1.137   1.119
30764SOL    HW194189   8.609   1.059   1.174
30764SOL    HW294190   8.687   1.185   1.144
30765SOL     OW94191   2.996   3.924   3.642
30765SOL    HW194192   3.089   3.946   3.653
30765SOL    HW294193   2.976   3.950   3.552
30766SOL     OW94194   9.184  13.696   6.764
30766SOL    HW194195   9.184  13.777   6.816
30766SOL    HW294196   9.270  13.694   6.722
30767SOL     OW94197  11.664   1.752   2.475
30767SOL    HW194198  11.657   1.711   2.388
30767SOL    HW294199  11.580   1.797   2.487
30768SOL     OW94200   4.273  11.403  12.398
30768SOL    HW194201   4.344  11.464  12.376
30768SOL    HW294202   4.218  11.399  12.320
30769SOL     OW94203   5.149   2.687  10.559
30769SOL    HW194204   5.098   2.695  10.640
30769SOL    HW294205   5.180   2.596  10.560
30770SOL     OW94206   7.393  14.161   1.684
30770SOL    HW194207   7.305  14.135   1.712
30770SOL    HW294208   7.403  14.120   1.598
30771SOL     OW94209   2.590   5.421  11.003
30771SOL    HW194210   2.622   5.476  11.074
30771SOL    HW294211   2.603   5.475  10.924
30772SOL     OW94212   5.205   9.516  10.103
30772SOL    HW194213   5.257   9.532  10.024
30772SOL    HW294214   5.271   9.501  10.171
30773SOL     OW94215   9.128   4.846   7.111
30773SOL    HW194216   9.201   4.818   7.057
30773SOL    HW294217   9.111   4.936   7.084
30774SOL     OW94218   7.295   0.236   7.972
30774SOL    HW194219   7.324   0.305   8.031
30774SOL    HW294220   7.199   0.244   7.971
30775SOL     OW94221   0.709  12.684   6.336
30775SOL    HW194222   0.705  12.659   6.428
30775SOL    HW294223   0.618  12.693   6.310
30776SOL     OW94224   1.310   5.140   9.370
30776SOL    HW194225   1.379   5.094   9.324
30776SOL    HW294226   1.233   5.129   9.315
30777SOL     OW94227  14.080   2.527   3.441
30777SOL    HW194228  14.121   2.447   3.474
30777SOL    HW294229  14.104   2.594   3.505
30778SOL     OW94230  11.892   1.869  12.539
30778SOL    HW194231  11.827   1.940  12.541
30778SOL    HW294232  11.910   1.851  12.632
30779SOL     OW94233   9.511   9.110   8.645
30779SOL    HW194234   9.476   9.176   8.705
30779SOL    HW294235   9.570   9.057   8.699
30780SOL     OW94236  14.394  13.679   6.666
30780SOL    HW194237  14.394  13.770   6.694
30780SOL    HW294238  14.437  13.680   6.580
30781SOL     OW94239   3.143   4.910   6.698
30781SOL    HW194240   3.168   4.841   6.637
30781SOL    HW294241   3.159   4.992   6.651
30782SOL     OW94242  10.284   4.969   4.272
30782SOL    HW194243  10.267   5.032   4.341
30782SOL    HW294244  10.379   4.974   4.258
30783SOL     OW94245   5.467  10.851  14.317
30783SOL    HW194246   5.524  10.902  14.375
30783SOL    HW294247   5.379  10.879  14.340
30784SOL     OW94248   8.275   7.325  11.416
30784SOL    HW194249   8.276   7.413  11.453
30784SOL    HW294250   8.283   7.267  11.492
30785SOL     OW94251   5.619  11.425   4.016
30785SOL    HW194252   5.654  11.514   4.020
30785SOL    HW294253   5.610  11.399   4.108
30786SOL     OW94254   1.138   7.888   1.096
30786SOL    HW194255   1.153   7.914   1.187
30786SOL    HW294256   1.052   7.846   1.097
30787SOL     OW94257   7.059  11.829  14.457
30787SOL    HW194258   6.986  11.770  14.475
30787SOL    HW294259   7.136  11.783  14.491
30788SOL     OW94260   0.120   6.334   4.976
30788SOL    HW194261   0.051   6.377   4.925
30788SOL    HW294262   0.160   6.272   4.915
30789SOL     OW94263  12.760   5.196   8.644
30789SOL    HW194264  12.768   5.188   8.549
30789SOL    HW294265  12.757   5.290   8.660
30790SOL     OW94266   5.673   0.170  14.649
30790SOL    HW194267   5.635   0.213  14.725
30790SOL    HW294268   5.753   0.128  14.681
30791SOL     OW94269  10.976  12.106   4.673
30791SOL    HW194270  10.969  12.199   4.693
30791SOL    HW294271  10.955  12.062   4.755
30792SOL     OW94272   0.434  12.357   4.065
30792SOL    HW194273   0.513  12.392   4.025
30792SOL    HW294274   0.465  12.305   4.140
30793SOL     OW94275   3.249  10.317   2.725
30793SOL    HW194276   3.220  10.338   2.636
30793SOL    HW294277   3.258  10.222   2.725
30794SOL     OW94278  10.103   6.106   4.507
30794SOL    HW194279  10.184   6.156   4.513
30794SOL    HW294280  10.122   6.035   4.445
30795SOL     OW94281  12.300   8.571   7.177
30795SOL    HW194282  12.310   8.545   7.085
30795SOL    HW294283  12.293   8.489   7.225
30796SOL     OW94284   3.384   5.461  11.319
30796SOL    HW194285   3.341   5.452  11.234
30796SOL    HW294286   3.400   5.555  11.327
30797SOL     OW94287   4.968   2.028  14.878
30797SOL    HW194288   4.920   2.042  14.797
30797SOL    HW294289   4.972   2.114   0.037
30798SOL     OW94290   4.368  14.621  13.282
30798SOL    HW194291   4.452  14.576  13.295
30798SOL    HW294292   4.384  14.677  13.206
30799SOL     OW94293   0.041   3.640   8.609
30799SOL    HW194294   0.105   3.709   8.592
30799SOL    HW294295  14.843   3.670   8.566
30800SOL     OW94296  14.847   3.282   5.310
30800SOL    HW194297  14.845   3.339   5.234
30800SOL    HW294298   0.036   3.316   5.364
30801SOL     OW94299   5.780  11.303   8.230
30801SOL    HW194300   5.830  11.222   8.220
30801SOL    HW294301   5.830  11.369   8.181
30802SOL     OW94302  10.448   9.124   5.038
30802SOL    HW194303  10.444   9.053   5.102
30802SOL    HW294304  10.363   9.121   4.994
30803SOL     OW94305   8.569   9.391   8.360
30803SOL    HW194306   8.596   9.399   8.269
30803SOL    HW294307   8.637   9.435   8.410
30804SOL     OW94308   4.591   3.125  13.535
30804SOL    HW194309   4.684   3.117  13.518
30804SOL    HW294310   4.560   3.034  13.542
30805SOL     OW94311   9.118  11.045   3.124
30805SOL    HW194312   9.165  11.127   3.107
30805SOL    HW294313   9.144  11.021   3.213
30806SOL     OW94314  13.132  14.323   3.348
30806SOL    HW194315  13.219  14.282   3.351
30806SOL    HW294316  13.088  14.280   3.275
30807SOL     OW94317   7.333  13.885   0.778
30807SOL    HW194318   7.271  13.831   0.827
30807SOL    HW294319   7.341  13.841   0.694
30808SOL     OW94320   1.694   8.562   2.818
30808SOL    HW194321   1.694   8.478   2.773
30808SOL    HW294322   1.728   8.543   2.906
30809SOL     OW94323   5.209   5.956   8.704
30809SOL    HW194324   5.118   5.974   8.729
30809SOL    HW294325   5.226   6.018   8.633
30810SOL     OW94326  14.124   2.869   0.833
30810SOL    HW194327  14.160   2.790   0.874
30810SOL    HW294328  14.112   2.930   0.906
30811SOL     OW94329  13.106  14.316  11.114
30811SOL    HW194330  13.103  14.318  11.019
30811SOL    HW294331  13.014  14.313  11.141
30812SOL     OW94332   2.286  13.759   1.112
30812SOL    HW194333   2.347  13.776   1.041
30812SOL    HW294334   2.322  13.808   1.187
30813SOL     OW94335   4.613  11.179   0.337
30813SOL    HW194336   4.567  11.167   0.254
30813SOL    HW294337   4.579  11.262   0.371
30814SOL     OW94338   6.042   7.141   1.973
30814SOL    HW194339   6.079   7.228   1.959
30814SOL    HW294340   5.953   7.158   2.003
30815SOL     OW94341   7.033   0.567   8.008
30815SOL    HW194342   7.054   0.478   8.039
30815SOL    HW294343   6.947   0.558   7.966
30816SOL     OW94344  10.515   4.353   3.646
30816SOL    HW194345  10.499   4.425   3.707
30816SOL    HW294346  10.515   4.394   3.559
30817SOL     OW94347   7.072   4.773  12.901
30817SOL    HW194348   7.151   4.813  12.939
30817SOL    HW294349   7.091   4.767  12.807
30818SOL     OW94350   5.259  13.562   5.432
30818SOL    HW194351   5.248  13.549   5.337
30818SOL    HW294352   5.331  13.624   5.439
30819SOL     OW94353   6.045  14.539   7.669
30819SOL    HW194354   5.995  14.620   7.669
30819SOL    HW294355   5.990  14.475   7.715
30820SOL     OW94356   6.768  11.304   3.769
30820SOL    HW194357   6.776  11.258   3.853
30820SOL    HW294358   6.842  11.271   3.717
30821SOL     OW94359   8.615  14.146   0.253
30821SOL    HW194360   8.535  14.199   0.264
30821SOL    HW294361   8.590  14.059   0.283
30822SOL     OW94362  14.051  12.250  11.908
30822SOL    HW194363  13.975  12.306  11.898
30822SOL    HW294364  14.044  12.187  11.836
30823SOL     OW94365  10.855   9.256   6.156
30823SOL    HW194366  10.872   9.189   6.223
30823SOL    HW294367  10.896   9.336   6.191
30824SOL     OW94368   3.036   1.854   1.144
30824SOL    HW194369   2.965   1.904   1.185
30824SOL    HW294370   3.107   1.856   1.209
30825SOL     OW94371   6.707   1.104  14.658
30825SOL    HW194372   6.747   1.145  14.735
30825SOL    HW294373   6.748   1.018  14.652
30826SOL     OW94374   9.255   4.655  10.564
30826SOL    HW194375   9.320   4.587  10.580
30826SOL    HW294376   9.298   4.716  10.503
30827SOL     OW94377  14.663  11.573   9.072
30827SOL    HW194378  14.736  11.621   9.112
30827SOL    HW294379  14.625  11.635   9.010
30828SOL     OW94380   8.147  14.009   9.208
30828SOL    HW194381   8.207  13.952   9.256
30828SOL    HW294382   8.063  13.998   9.252
30829SOL     OW94383   9.135   2.880   5.230
30829SOL    HW194384   9.070   2.813   5.211
30829SOL    HW294385   9.202   2.835   5.281
30830SOL     OW94386  12.284   9.121   0.434
30830SOL    HW194387  12.305   9.041   0.387
30830SOL    HW294388  12.348   9.124   0.506
30831SOL     OW94389   7.323   3.423   8.203
30831SOL    HW194390   7.292   3.338   8.234
30831SOL    HW294391   7.402   3.403   8.152
30832SOL     OW94392   1.057   2.160  10.813
30832SOL    HW194393   1.056   2.067  10.833
30832SOL    HW294394   1.055   2.204  10.898
30833SOL     OW94395   0.986   3.835  13.097
30833SOL    HW194396   0.896   3.827  13.129
30833SOL    HW294397   1.037   3.855  13.175
30834SOL     OW94398  11.365   4.573   4.527
30834SOL    HW194399  11.311   4.650   4.543
30834SOL    HW294400  11.337   4.509   4.592
30835SOL     OW94401   9.907   1.426   5.703
30835SOL    HW194402   9.945   1.490   5.643
30835SOL    HW294403   9.948   1.444   5.787
30836SOL     OW94404   5.602  11.197  13.031
30836SOL    HW194405   5.685  11.160  13.063
30836SOL    HW294406   5.540  11.179  13.101
30837SOL     OW94407   2.166   3.177   7.141
30837SOL    HW194408   2.243   3.163   7.196
30837SOL    HW294409   2.187   3.256   7.090
30838SOL     OW94410   7.004   9.050   4.157
30838SOL    HW194411   7.074   9.018   4.214
30838SOL    HW294412   7.049   9.090   4.083
30839SOL     OW94413  14.620   1.994  11.066
30839SOL    HW194414  14.635   2.083  11.033
30839SOL    HW294415  14.557   2.005  11.137
30840SOL     OW94416   3.199   2.260   9.424
30840SOL    HW194417   3.240   2.230   9.343
30840SOL    HW294418   3.273   2.281   9.482
30841SOL     OW94419   0.537   6.261   2.726
30841SOL    HW194420   0.533   6.226   2.637
30841SOL    HW294421   0.495   6.194   2.780
30842SOL     OW94422  14.736   0.965   1.702
30842SOL    HW194423  14.765   0.963   1.611
30842SOL    HW294424  14.727   0.873   1.727
30843SOL     OW94425  10.245   1.079   3.916
30843SOL    HW194426  10.289   1.076   4.001
30843SOL    HW294427  10.282   1.156   3.873
30844SOL     OW94428  10.297   3.062   4.690
30844SOL    HW194429  10.366   3.104   4.639
30844SOL    HW294430  10.342   3.024   4.766
30845SOL     OW94431   9.275   7.590   1.421
30845SOL    HW194432   9.343   7.552   1.366
30845SOL    HW294433   9.250   7.671   1.377
30846SOL     OW94434  10.068   4.822   8.629
30846SOL    HW194435  10.059   4.903   8.680
30846SOL    HW294436  10.160   4.820   8.603
30847SOL     OW94437   8.294  11.127   8.364
30847SOL    HW194438   8.305  11.187   8.438
30847SOL    HW294439   8.357  11.157   8.299
30848SOL     OW94440   7.470  14.503   4.287
30848SOL    HW194441   7.552  14.540   4.254
30848SOL    HW294442   7.410  14.578   4.291
30849SOL     OW94443   8.826   8.565   0.796
30849SOL    HW194444   8.852   8.479   0.829
30849SOL    HW294445   8.862   8.627   0.860
30850SOL     OW94446  11.530   5.878  14.712
30850SOL    HW194447  11.611   5.827  14.708
30850SOL    HW294448  11.534   5.924  14.796
30851SOL     OW94449  12.885   8.582  14.631
30851SOL    HW194450  12.816   8.550  14.573
30851SOL    HW294451  12.841   8.599  14.714
30852SOL     OW94452   3.431   1.241   0.326
30852SOL    HW194453   3.352   1.292   0.343
30852SOL    HW294454   3.427   1.222   0.233
30853SOL     OW94455  13.831   3.246   5.194
30853SOL    HW194456  13.817   3.273   5.285
30853SOL    HW294457  13.901   3.181   5.199
30854SOL     OW94458   7.118  11.771   0.387
30854SOL    HW194459   7.159  11.719   0.456
30854SOL    HW294460   7.026  11.777   0.413
30855SOL     OW94461  12.891   1.317   6.418
30855SOL    HW194462  12.852   1.265   6.348
30855SOL    HW294463  12.818   1.371   6.451
30856SOL     OW94464  14.639   8.679   0.261
30856SOL    HW194465  14.634   8.738   0.186
30856SOL    HW294466  14.703   8.612   0.235
30857SOL     OW94467  13.473   9.017  11.998
30857SOL    HW194468  13.495   9.105  11.966
30857SOL    HW294469  13.403   8.988  11.940
30858SOL     OW94470  10.332  11.928  10.245
30858SOL    HW194471  10.305  11.884  10.164
30858SOL    HW294472  10.362  12.014  10.217
30859SOL     OW94473   5.219   2.879   7.726
30859SOL    HW194474   5.166   2.895   7.648
30859SOL    HW294475   5.243   2.786   7.719
30860SOL     OW94476  12.645  13.863  13.109
30860SOL    HW194477  12.727  13.908  13.130
30860SOL    HW294478  12.580  13.903  13.166
30861SOL     OW94479   4.983   0.194  14.448
30861SOL    HW194480   5.021   0.107  14.457
30861SOL    HW294481   5.036   0.249  14.505
30862SOL     OW94482   8.803   3.509   5.030
30862SOL    HW194483   8.892   3.519   5.064
30862SOL    HW294484   8.810   3.443   4.961
30863SOL     OW94485   0.525   5.150   2.049
30863SOL    HW194486   0.488   5.142   1.962
30863SOL    HW294487   0.449   5.159   2.107
30864SOL     OW94488   9.975   3.412   0.707
30864SOL    HW194489  10.057   3.455   0.731
30864SOL    HW294490   9.911   3.447   0.769
30865SOL     OW94491   7.703   3.422  13.576
30865SOL    HW194492   7.771   3.387  13.519
30865SOL    HW294493   7.705   3.517  13.561
30866SOL     OW94494   0.234   8.904   5.044
30866SOL    HW194495   0.258   8.991   5.009
30866SOL    HW294496   0.311   8.877   5.094
30867SOL     OW94497  13.486   8.920   7.551
30867SOL    HW194498  13.437   8.894   7.629
30867SOL    HW294499  13.538   8.843   7.528
30868SOL     OW94500   0.253   2.012   8.498
30868SOL    HW194501   0.192   1.981   8.431
30868SOL    HW294502   0.200   2.018   8.578
30869SOL     OW94503  12.243  14.561  12.056
30869SOL    HW194504  12.148  14.571  12.059
30869SOL    HW294505  12.264  14.505  12.130
30870SOL     OW94506   4.882  12.598  14.056
30870SOL    HW194507   4.922  12.582  13.971
30870SOL    HW294508   4.788  12.599  14.038
30871SOL     OW94509   4.171   0.046  12.225
30871SOL    HW194510   4.094   0.014  12.273
30871SOL    HW294511   4.206  14.850  12.181
30872SOL     OW94512  11.466   4.229  10.241
30872SOL    HW194513  11.523   4.170  10.191
30872SOL    HW294514  11.508   4.238  10.326
30873SOL     OW94515  11.076   3.054   7.711
30873SOL    HW194516  11.150   3.026   7.766
30873SOL    HW294517  11.102   3.028   7.622
30874SOL     OW94518   7.651   4.344   6.831
30874SOL    HW194519   7.643   4.336   6.736
30874SOL    HW294520   7.646   4.254   6.863
30875SOL     OW94521   2.928   8.851  10.299
30875SOL    HW194522   2.935   8.771  10.350
30875SOL    HW294523   2.851   8.895  10.335
30876SOL     OW94524   4.736   6.903  12.690
30876SOL    HW194525   4.662   6.872  12.637
30876SOL    HW294526   4.704   6.986  12.727
30877SOL     OW94527   1.288   0.570   5.399
30877SOL    HW194528   1.275   0.618   5.481
30877SOL    HW294529   1.300   0.638   5.333
30878SOL     OW94530   9.001   7.643  12.472
30878SOL    HW194531   9.084   7.613  12.509
30878SOL    HW294532   9.023   7.672  12.383
30879SOL     OW94533  13.127   8.392   4.293
30879SOL    HW194534  13.048   8.347   4.263
30879SOL    HW294535  13.095   8.475   4.330
30880SOL     OW94536   6.089   3.756  11.766
30880SOL    HW194537   6.085   3.827  11.830
30880SOL    HW294538   6.100   3.677  11.818
30881SOL     OW94539   9.524   7.510  13.868
30881SOL    HW194540   9.469   7.455  13.812
30881SOL    HW294541   9.479   7.594  13.871
30882SOL     OW94542   9.912   3.780   9.924
30882SOL    HW194543   9.894   3.863   9.881
30882SOL    HW294544   9.937   3.803  10.014
30883SOL     OW94545   8.559   7.034   9.208
30883SOL    HW194546   8.608   7.089   9.148
30883SOL    HW294547   8.595   7.054   9.295
30884SOL     OW94548  14.098   7.157  14.609
30884SOL    HW194549  14.075   7.123  14.696
30884SOL    HW294550  14.174   7.213  14.626
30885SOL     OW94551  11.033  13.657   7.162
30885SOL    HW194552  10.957  13.703   7.125
30885SOL    HW294553  11.004  13.631   7.250
30886SOL     OW94554   9.759   8.829  10.550
30886SOL    HW194555   9.740   8.736  10.563
30886SOL    HW294556   9.802   8.855  10.631
30887SOL     OW94557   7.812   8.968  12.590
30887SOL    HW194558   7.829   8.891  12.536
30887SOL    HW294559   7.814   8.935  12.680
30888SOL     OW94560  13.407  12.859  13.756
30888SOL    HW194561  13.474  12.884  13.693
30888SOL    HW294562  13.347  12.934  13.759
30889SOL     OW94563   5.077  13.474   2.605
30889SOL    HW194564   5.114  13.524   2.532
30889SOL    HW294565   5.028  13.539   2.656
30890SOL     OW94566  14.741  13.506  13.508
30890SOL    HW194567  14.787  13.491  13.426
30890SOL    HW294568  14.810  13.534  13.569
30891SOL     OW94569   4.209   4.619  13.826
30891SOL    HW194570   4.135   4.661  13.870
30891SOL    HW294571   4.257   4.576  13.897
30892SOL     OW94572   5.181  13.534   2.009
30892SOL    HW194573   5.176  13.451   2.055
30892SOL    HW294574   5.241  13.587   2.060
30893SOL     OW94575   0.612   3.786   9.066
30893SOL    HW194576   0.580   3.873   9.043
30893SOL    HW294577   0.695   3.779   9.018
30894SOL     OW94578   0.825   9.519   2.400
30894SOL    HW194579   0.817   9.498   2.493
30894SOL    HW294580   0.853   9.610   2.399
30895SOL     OW94581   5.575  13.293   0.086
30895SOL    HW194582   5.538  13.207   0.102
30895SOL    HW294583   5.660  13.275   0.045
30896SOL     OW94584  10.063  10.800   8.536
30896SOL    HW194585  10.003  10.838   8.472
30896SOL    HW294586  10.084  10.713   8.500
30897SOL     OW94587  13.134  13.907   3.325
30897SOL    HW194588  13.171  13.833   3.277
30897SOL    HW294589  13.207  13.943   3.376
30898SOL     OW94590   1.885   6.440  10.397
30898SOL    HW194591   1.964   6.398  10.361
30898SOL    HW294592   1.902   6.449  10.490
30899SOL     OW94593   7.594  10.913  14.739
30899SOL    HW194594   7.542  10.848  14.690
30899SOL    HW294595   7.673  10.866  14.764
30900SOL     OW94596   5.567  10.119  14.764
30900SOL    HW194597   5.478  10.093  14.743
30900SOL    HW294598   5.557  10.189  14.829
30901SOL     OW94599   3.045  12.769  13.631
30901SOL    HW194600   3.052  12.854  13.675
30901SOL    HW294601   3.093  12.780  13.549
30902SOL     OW94602   9.217   6.933  13.343
30902SOL    HW194603   9.262   6.858  13.304
30902SOL    HW294604   9.131   6.933  13.302
30903SOL     OW94605   9.929   3.688   7.061
30903SOL    HW194606   9.883   3.770   7.075
30903SOL    HW294607  10.018   3.705   7.091
30904SOL     OW94608   5.197   7.454   5.441
30904SOL    HW194609   5.274   7.503   5.413
30904SOL    HW294610   5.233   7.380   5.489
30905SOL     OW94611  12.488  11.052  11.182
30905SOL    HW194612  12.493  11.141  11.217
30905SOL    HW294613  12.554  11.003  11.232
30906SOL     OW94614   2.746   4.718  10.483
30906SOL    HW194615   2.665   4.750  10.442
30906SOL    HW294616   2.738   4.745  10.575
30907SOL     OW94617  14.214   4.550   2.173
30907SOL    HW194618  14.268   4.514   2.103
30907SOL    HW294619  14.162   4.475   2.204
30908SOL     OW94620   5.890   1.203   2.757
30908SOL    HW194621   5.911   1.296   2.743
30908SOL    HW294622   5.961   1.156   2.713
30909SOL     OW94623   7.133   2.231   5.074
30909SOL    HW194624   7.225   2.211   5.058
30909SOL    HW294625   7.130   2.327   5.081
30910SOL     OW94626  10.366   7.142  13.406
30910SOL    HW194627  10.460   7.155  13.421
30910SOL    HW294628  10.331   7.123  13.493
30911SOL     OW94629   2.868   9.944   2.890
30911SOL    HW194630   2.925   9.901   2.826
30911SOL    HW294631   2.928  10.000   2.940
30912SOL     OW94632   6.558  13.746   3.599
30912SOL    HW194633   6.592  13.769   3.512
30912SOL    HW294634   6.467  13.720   3.582
30913SOL     OW94635   7.922   8.919  10.369
30913SOL    HW194636   7.991   8.858  10.342
30913SOL    HW294637   7.882   8.948  10.287
30914SOL     OW94638   1.806  12.922  12.568
30914SOL    HW194639   1.849  12.980  12.631
30914SOL    HW294640   1.719  12.959  12.557
30915SOL     OW94641  10.906  14.160  13.018
30915SOL    HW194642  10.870  14.248  13.009
30915SOL    HW294643  10.866  14.126  13.098
30916SOL     OW94644  10.881   3.879   1.182
30916SOL    HW194645  10.870   3.970   1.207
30916SOL    HW294646  10.803   3.858   1.131
30917SOL     OW94647   6.963  12.396   1.850
30917SOL    HW194648   6.932  12.462   1.911
30917SOL    HW294649   7.053  12.422   1.829
30918SOL     OW94650  11.624  10.643  12.350
30918SOL    HW194651  11.636  10.663  12.443
30918SOL    HW294652  11.605  10.728  12.310
30919SOL     OW94653   6.597  12.974  11.937
30919SOL    HW194654   6.543  12.897  11.918
30919SOL    HW294655   6.619  12.966  12.030
30920SOL     OW94656   3.528  10.948   1.518
30920SOL    HW194657   3.476  10.901   1.453
30920SOL    HW294658   3.606  10.895   1.530
30921SOL     OW94659   2.525   5.826   9.915
30921SOL    HW194660   2.526   5.831  10.011
30921SOL    HW294661   2.582   5.898   9.887
30922SOL     OW94662   9.650  14.854   9.053
30922SOL    HW194663   9.597  14.877   9.130
30922SOL    HW294664   9.673  14.762   9.067
30923SOL     OW94665   9.302  12.614   5.432
30923SOL    HW194666   9.349  12.598   5.514
30923SOL    HW294667   9.365  12.661   5.377
30924SOL     OW94668   9.522   5.592  14.679
30924SOL    HW194669   9.606   5.600  14.724
30924SOL    HW294670   9.538   5.623  14.591
30925SOL     OW94671   0.456   8.437  13.442
30925SOL    HW194672   0.450   8.506  13.508
30925SOL    HW294673   0.367   8.402  13.436
30926SOL     OW94674   7.585   3.715  12.697
30926SOL    HW194675   7.497   3.710  12.735
30926SOL    HW294676   7.572   3.699  12.604
30927SOL     OW94677  12.623   2.795  11.983
30927SOL    HW194678  12.628   2.888  11.961
30927SOL    HW294679  12.547   2.788  12.041
30928SOL     OW94680  13.767   8.420   5.415
30928SOL    HW194681  13.728   8.423   5.502
30928SOL    HW294682  13.701   8.458   5.357
30929SOL     OW94683   5.969   4.494   9.230
30929SOL    HW194684   6.062   4.518   9.237
30929SOL    HW294685   5.955   4.433   9.302
30930SOL     OW94686  10.572  10.492   9.282
30930SOL    HW194687  10.521  10.543   9.220
30930SOL    HW294688  10.548  10.527   9.368
30931SOL     OW94689  12.993  14.655   9.002
30931SOL    HW194690  12.951  14.597   8.939
30931SOL    HW294691  13.023  14.597   9.072
30932SOL     OW94692   2.414   1.915   6.539
30932SOL    HW194693   2.437   2.003   6.510
30932SOL    HW294694   2.352   1.884   6.474
30933SOL     OW94695  12.930  11.726  10.288
30933SOL    HW194696  12.844  11.708  10.250
30933SOL    HW294697  12.984  11.753  10.213
30934SOL     OW94698  13.755   8.858   1.949
30934SOL    HW194699  13.689   8.789   1.943
30934SOL    HW294700  13.831   8.823   1.902
30935SOL     OW94701   9.813  13.146   7.366
30935SOL    HW194702   9.904  13.172   7.353
30935SOL    HW294703   9.810  13.053   7.340
30936SOL     OW94704  11.175  11.871   8.812
30936SOL    HW194705  11.216  11.842   8.731
30936SOL    HW294706  11.167  11.966   8.802
30937SOL     OW94707   7.793   5.333  10.576
30937SOL    HW194708   7.748   5.384  10.509
30937SOL    HW294709   7.779   5.242  10.549
30938SOL     OW94710   7.821   0.837   9.722
30938SOL    HW194711   7.868   0.757   9.699
30938SOL    HW294712   7.872   0.876   9.793
30939SOL     OW94713   0.656  14.807  11.191
30939SOL    HW194714   0.623  14.722  11.163
30939SOL    HW294715   0.578  14.859  11.211
30940SOL     OW94716   6.319   6.505   1.675
30940SOL    HW194717   6.360   6.453   1.606
30940SOL    HW294718   6.383   6.575   1.692
30941SOL     OW94719   0.506   0.735   5.705
30941SOL    HW194720   0.473   0.807   5.651
30941SOL    HW294721   0.564   0.777   5.769
30942SOL     OW94722   6.060   2.573   5.632
30942SOL    HW194723   6.077   2.667   5.641
30942SOL    HW294724   6.125   2.532   5.689
30943SOL     OW94725  13.861   1.976   3.567
30943SOL    HW194726  13.827   1.895   3.530
30943SOL    HW294727  13.907   2.018   3.495
30944SOL     OW94728   0.382   5.816  12.337
30944SOL    HW194729   0.377   5.783  12.248
30944SOL    HW294730   0.291   5.812  12.369
30945SOL     OW94731   1.360   3.416   9.958
30945SOL    HW194732   1.306   3.338   9.949
30945SOL    HW294733   1.442   3.394   9.913
30946SOL     OW94734   4.508  10.631   8.652
30946SOL    HW194735   4.472  10.548   8.621
30946SOL    HW294736   4.510  10.623   8.747
30947SOL     OW94737   2.492   1.935  12.290
30947SOL    HW194738   2.410   1.892  12.268
30947SOL    HW294739   2.465   2.021  12.324
30948SOL     OW94740   3.662   6.335  11.518
30948SOL    HW194741   3.683   6.258  11.570
30948SOL    HW294742   3.727   6.401  11.546
30949SOL     OW94743  11.873   1.684  10.108
30949SOL    HW194744  11.906   1.718  10.191
30949SOL    HW294745  11.782   1.659  10.127
30950SOL     OW94746   5.909   4.661   0.289
30950SOL    HW194747   5.897   4.611   0.370
30950SOL    HW294748   5.884   4.601   0.219
30951SOL     OW94749  10.982   3.948   8.655
30951SOL    HW194750  10.897   3.940   8.611
30951SOL    HW294751  10.963   3.995   8.736
30952SOL     OW94752  13.903   8.475   5.174
30952SOL    HW194753  13.876   8.396   5.126
30952SOL    HW294754  13.875   8.459   5.264
30953SOL     OW94755   8.696   8.654   5.160
30953SOL    HW194756   8.769   8.702   5.199
30953SOL    HW294757   8.627   8.719   5.151
30954SOL     OW94758   1.314  12.857   1.314
30954SOL    HW194759   1.354  12.920   1.254
30954SOL    HW294760   1.227  12.841   1.276
30955SOL     OW94761   9.560  11.888   5.356
30955SOL    HW194762   9.468  11.863   5.361
30955SOL    HW294763   9.608  11.805   5.367
30956SOL     OW94764   3.525   4.142   9.995
30956SOL    HW194765   3.596   4.157   9.933
30956SOL    HW294766   3.556   4.179  10.077
30957SOL     OW94767   6.533   4.683   8.415
30957SOL    HW194768   6.439   4.672   8.432
30957SOL    HW294769   6.574   4.673   8.500
30958SOL     OW94770   3.019   0.314   3.197
30958SOL    HW194771   3.054   0.228   3.171
30958SOL    HW294772   3.001   0.304   3.290
30959SOL     OW94773  11.529   5.696   3.243
30959SOL    HW194774  11.519   5.760   3.313
30959SOL    HW294775  11.591   5.736   3.183
30960SOL     OW94776  14.849   1.600   3.185
30960SOL    HW194777  14.779   1.634   3.242
30960SOL    HW294778   0.007   1.678   3.147
30961SOL     OW94779   1.400   1.196  10.003
30961SOL    HW194780   1.311   1.192   9.967
30961SOL    HW294781   1.424   1.105  10.018
30962SOL     OW94782   7.762   7.994  13.203
30962SOL    HW194783   7.743   7.969  13.293
30962SOL    HW294784   7.750   8.088  13.200
30963SOL     OW94785  11.033   3.886  12.666
30963SOL    HW194786  10.942   3.868  12.689
30963SOL    HW294787  11.070   3.929  12.744
30964SOL     OW94788   1.840   7.720   3.134
30964SOL    HW194789   1.871   7.759   3.216
30964SOL    HW294790   1.913   7.733   3.073
30965SOL     OW94791   4.581  10.811  13.993
30965SOL    HW194792   4.605  10.892  13.948
30965SOL    HW294793   4.507  10.836  14.049
30966SOL     OW94794   1.731   4.119  13.407
30966SOL    HW194795   1.809   4.064  13.418
30966SOL    HW294796   1.710   4.114  13.314
30967SOL     OW94797   5.073   4.935   9.834
30967SOL    HW194798   5.091   4.870   9.766
30967SOL    HW294799   4.990   4.975   9.808
30968SOL     OW94800   3.426  10.367   5.491
30968SOL    HW194801   3.453  10.350   5.581
30968SOL    HW294802   3.498  10.416   5.452
30969SOL     OW94803   1.316   1.979   6.893
30969SOL    HW194804   1.329   1.985   6.988
30969SOL    HW294805   1.229   2.014   6.879
30970SOL     OW94806   1.838   3.126   3.851
30970SOL    HW194807   1.922   3.090   3.823
30970SOL    HW294808   1.853   3.154   3.942
30971SOL     OW94809  12.959   4.934   1.694
30971SOL    HW194810  12.948   5.019   1.652
30971SOL    HW294811  13.022   4.950   1.764
30972SOL     OW94812   6.336   5.796   6.300
30972SOL    HW194813   6.402   5.727   6.301
30972SOL    HW294814   6.385   5.877   6.309
30973SOL     OW94815   3.748   6.712  12.573
30973SOL    HW194816   3.823   6.659  12.602
30973SOL    HW294817   3.724   6.673  12.489
30974SOL     OW94818   4.863  12.671   2.359
30974SOL    HW194819   4.857  12.757   2.401
30974SOL    HW294820   4.913  12.688   2.279
30975SOL     OW94821   6.455   8.580  13.767
30975SOL    HW194822   6.499   8.547  13.688
30975SOL    HW294823   6.504   8.541  13.839
30976SOL     OW94824   4.675   7.246   4.944
30976SOL    HW194825   4.767   7.225   4.959
30976SOL    HW294826   4.664   7.333   4.981
30977SOL     OW94827   7.316  12.700   9.672
30977SOL    HW194828   7.379  12.722   9.603
30977SOL    HW294829   7.369  12.660   9.741
30978SOL     OW94830   9.412   8.558   1.507
30978SOL    HW194831   9.468   8.500   1.455
30978SOL    HW294832   9.324   8.542   1.473
30979SOL     OW94833   7.801   9.517  10.073
30979SOL    HW194834   7.887   9.553  10.094
30979SOL    HW294835   7.780   9.551   9.986
30980SOL     OW94836   1.412  14.396  10.685
30980SOL    HW194837   1.503  14.414  10.711
30980SOL    HW294838   1.360  14.422  10.762
30981SOL     OW94839  10.182   1.902  14.502
30981SOL    HW194840  10.207   1.844  14.573
30981SOL    HW294841  10.112   1.956  14.539
30982SOL     OW94842  13.311   7.802  11.709
30982SOL    HW194843  13.285   7.727  11.655
30982SOL    HW294844  13.259   7.792  11.789
30983SOL     OW94845  10.512   5.569  13.142
30983SOL    HW194846  10.532   5.641  13.201
30983SOL    HW294847  10.598   5.536  13.114
30984SOL     OW94848   5.330  13.940   1.969
30984SOL    HW194849   5.410  13.889   1.962
30984SOL    HW294850   5.330  13.972   2.059
30985SOL     OW94851  13.595  14.465  12.891
30985SOL    HW194852  13.622  14.480  12.800
30985SOL    HW294853  13.656  14.398  12.923
30986SOL     OW94854  11.801  11.377   7.157
30986SOL    HW194855  11.773  11.382   7.249
30986SOL    HW294856  11.793  11.284   7.135
30987SOL     OW94857   2.559  10.477   8.098
30987SOL    HW194858   2.599  10.460   8.183
30987SOL    HW294859   2.522  10.393   8.072
30988SOL     OW94860  14.720   5.627   4.074
30988SOL    HW194861  14.630   5.647   4.045
30988SOL    HW294862  14.771   5.625   3.993
30989SOL     OW94863  10.746   8.239  10.712
30989SOL    HW194864  10.807   8.206  10.647
30989SOL    HW294865  10.687   8.166  10.730
30990SOL     OW94866   9.986   7.107   0.992
30990SOL    HW194867  10.007   7.097   1.085
30990SOL    HW294868  10.055   7.162   0.958
30991SOL     OW94869  11.233  12.816   4.860
30991SOL    HW194870  11.150  12.807   4.815
30991SOL    HW294871  11.294  12.845   4.793
30992SOL     OW94872   0.032   3.094   8.634
30992SOL    HW194873   0.032   3.183   8.669
30992SOL    HW294874   0.084   3.100   8.553
30993SOL     OW94875   5.824  10.675   8.119
30993SOL    HW194876   5.887  10.650   8.052
30993SOL    HW294877   5.770  10.597   8.132
30994SOL     OW94878   4.692  10.705   4.190
30994SOL    HW194879   4.640  10.627   4.203
30994SOL    HW294880   4.629  10.777   4.190
30995SOL     OW94881   2.467   8.737   6.957
30995SOL    HW194882   2.412   8.719   7.033
30995SOL    HW294883   2.407   8.772   6.891
30996SOL     OW94884   3.824   0.354  12.082
30996SOL    HW194885   3.787   0.422  12.025
30996SOL    HW294886   3.886   0.307  12.026
30997SOL     OW94887  14.818   3.019  10.819
30997SOL    HW194888  14.878   3.084  10.783
30997SOL    HW294889  14.838   2.939  10.771
30998SOL     OW94890   1.002   6.299   8.672
30998SOL    HW194891   1.036   6.277   8.759
30998SOL    HW294892   0.907   6.308   8.686
30999SOL     OW94893   8.437   8.667   0.005
30999SOL    HW194894   8.351   8.627   0.016
30999SOL    HW294895   8.449   8.720   0.084
31000SOL     OW94896   3.459   5.094   0.933
31000SOL    HW194897   3.450   5.002   0.957
31000SOL    HW294898   3.382   5.136   0.972
31001SOL     OW94899   8.203  13.775   9.900
31001SOL    HW194900   8.241  13.835   9.836
31001SOL    HW294901   8.244  13.800   9.983
31002SOL     OW94902   7.915  12.831  12.864
31002SOL    HW194903   7.925  12.796  12.775
31002SOL    HW294904   7.856  12.769  12.907
31003SOL     OW94905   4.893  10.431  13.344
31003SOL    HW194906   4.863  10.396  13.260
31003SOL    HW294907   4.858  10.520  13.347
31004SOL     OW94908  14.404  13.182  14.321
31004SOL    HW194909  14.422  13.256  14.263
31004SOL    HW294910  14.357  13.220  14.395
31005SOL     OW94911   1.309   6.272  10.800
31005SOL    HW194912   1.267   6.314  10.875
31005SOL    HW294913   1.240   6.267  10.734
31006SOL     OW94914  10.667  10.364   7.583
31006SOL    HW194915  10.613  10.357   7.504
31006SOL    HW294916  10.705  10.277   7.593
31007SOL     OW94917  10.622   0.486  12.777
31007SOL    HW194918  10.627   0.469  12.871
31007SOL    HW294919  10.621   0.400  12.736
31008SOL     OW94920  11.487   6.772  13.995
31008SOL    HW194921  11.571   6.733  14.019
31008SOL    HW294922  11.422   6.706  14.021
31009SOL     OW94923   9.542   1.786   8.673
31009SOL    HW194924   9.633   1.803   8.693
31009SOL    HW294925   9.516   1.856   8.612
31010SOL     OW94926   7.003   2.750  13.297
31010SOL    HW194927   6.910   2.765  13.281
31010SOL    HW294928   7.021   2.794  13.379
31011SOL     OW94929   7.577   6.217   3.044
31011SOL    HW194930   7.616   6.256   2.966
31011SOL    HW294931   7.530   6.289   3.086
31012SOL     OW94932   6.940   3.569  11.369
31012SOL    HW194933   6.973   3.656  11.392
31012SOL    HW294934   6.920   3.527  11.453
31013SOL     OW94935  10.126   0.408  14.007
31013SOL    HW194936  10.135   0.338  13.942
31013SOL    HW294937  10.106   0.486  13.955
31014SOL     OW94938   0.940   0.949   8.278
31014SOL    HW194939   1.023   0.970   8.235
31014SOL    HW294940   0.950   0.859   8.307
31015SOL     OW94941  12.745   9.853  14.547
31015SOL    HW194942  12.746   9.893  14.634
31015SOL    HW294943  12.724   9.926  14.488
31016SOL     OW94944   3.930   1.526  14.822
31016SOL    HW194945   3.895   1.452  14.871
31016SOL    HW294946   3.885   1.524  14.738
31017SOL     OW94947   7.748   1.249   7.774
31017SOL    HW194948   7.814   1.315   7.751
31017SOL    HW294949   7.686   1.250   7.701
31018SOL     OW94950   9.472   1.386   8.871
31018SOL    HW194951   9.388   1.366   8.831
31018SOL    HW294952   9.537   1.359   8.807
31019SOL     OW94953   7.150  11.194  12.546
31019SOL    HW194954   7.062  11.231  12.545
31019SOL    HW294955   7.178  11.201  12.638
31020SOL     OW94956   0.455   1.232  14.876
31020SOL    HW194957   0.427   1.193  14.793
31020SOL    HW294958   0.539   1.273  14.856
31021SOL     OW94959   9.055   5.849  12.059
31021SOL    HW194960   9.091   5.830  11.972
31021SOL    HW294961   8.961   5.853  12.045
31022SOL     OW94962   1.473  12.705  10.777
31022SOL    HW194963   1.497  12.642  10.709
31022SOL    HW294964   1.383  12.682  10.801
31023SOL     OW94965   3.254   9.668   2.609
31023SOL    HW194966   3.298   9.647   2.527
31023SOL    HW294967   3.323   9.662   2.676
31024SOL     OW94968   2.306   5.127   2.102
31024SOL    HW194969   2.401   5.124   2.091
31024SOL    HW294970   2.284   5.042   2.141
31025SOL     OW94971   7.651   6.944   8.607
31025SOL    HW194972   7.711   7.015   8.630
31025SOL    HW294973   7.702   6.864   8.619
31026SOL     OW94974  11.709  10.599  11.971
31026SOL    HW194975  11.715  10.518  12.022
31026SOL    HW294976  11.615  10.616  11.965
31027SOL     OW94977   5.611   0.516   9.852
31027SOL    HW194978   5.583   0.608   9.857
31027SOL    HW294979   5.699   0.516   9.888
31028SOL     OW94980   9.388   5.114   5.967
31028SOL    HW194981   9.377   5.130   5.873
31028SOL    HW294982   9.411   5.021   5.973
31029SOL     OW94983  11.234   2.913   3.956
31029SOL    HW194984  11.257   2.913   3.862
31029SOL    HW294985  11.144   2.883   3.958
31030SOL     OW94986   2.959   3.695   4.252
31030SOL    HW194987   2.947   3.783   4.286
31030SOL    HW294988   2.877   3.650   4.272
31031SOL     OW94989   3.346   4.398  10.060
31031SOL    HW194990   3.270   4.403  10.003
31031SOL    HW294991   3.410   4.457  10.020
31032SOL     OW94992  13.952   3.640  13.200
31032SOL    HW194993  13.932   3.550  13.173
31032SOL    HW294994  13.953   3.637  13.295
31033SOL     OW94995  13.543  12.278  11.610
31033SOL    HW194996  13.491  12.358  11.599
31033SOL    HW294997  13.545  12.238  11.524
31034SOL     OW94998  13.556   6.048  11.686
31034SOL    HW194999  13.536   6.066  11.778
31034SOL    HW295000  13.588   6.131  11.652
31035SOL     OW95001   3.173  13.976  14.049
31035SOL    HW195002   3.098  13.921  14.027
31035SOL    HW295003   3.135  14.061  14.069
31036SOL     OW95004   9.697   5.958   8.950
31036SOL    HW195005   9.774   5.917   8.910
31036SOL    HW295006   9.697   6.047   8.916
31037SOL     OW95007  13.599   5.940   7.860
31037SOL    HW195008  13.566   5.894   7.784
31037SOL    HW295009  13.635   5.871   7.916
31038SOL     OW95010  11.121  10.277   7.546
31038SOL    HW195011  11.200  10.318   7.510
31038SOL    HW295012  11.059  10.277   7.473
31039SOL     OW95013   9.754   4.927   8.215
31039SOL    HW195014   9.832   4.881   8.246
31039SOL    HW295015   9.781   4.964   8.130
31040SOL     OW95016   5.925   6.718   0.106
31040SOL    HW195017   5.950   6.741   0.196
31040SOL    HW295018   6.007   6.692   0.065
31041SOL     OW95019   5.733   9.071   1.352
31041SOL    HW195020   5.812   9.125   1.360
31041SOL    HW295021   5.697   9.093   1.266
31042SOL     OW95022   1.908   7.599   1.448
31042SOL    HW195023   1.930   7.599   1.541
31042SOL    HW295024   1.874   7.511   1.432
31043SOL     OW95025   9.090  13.591   3.537
31043SOL    HW195026   8.996  13.582   3.550
31043SOL    HW295027   9.106  13.686   3.541
31044SOL     OW95028   8.295   9.293   4.907
31044SOL    HW195029   8.227   9.302   4.974
31044SOL    HW295030   8.376   9.280   4.956
31045SOL     OW95031   0.535   8.625   0.993
31045SOL    HW195032   0.614   8.571   0.993
31045SOL    HW295033   0.481   8.588   0.924
31046SOL     OW95034   4.864   0.682   3.165
31046SOL    HW195035   4.885   0.602   3.213
31046SOL    HW295036   4.778   0.665   3.127
31047SOL     OW95037  10.068   4.959   1.417
31047SOL    HW195038  10.160   4.965   1.392
31047SOL    HW295039  10.051   5.040   1.464
31048SOL     OW95040  11.693   3.280   3.684
31048SOL    HW195041  11.684   3.212   3.751
31048SOL    HW295042  11.610   3.328   3.687
31049SOL     OW95043   2.077   9.181   3.360
31049SOL    HW195044   2.000   9.155   3.409
31049SOL    HW295045   2.055   9.266   3.322
31050SOL     OW95046   3.974   1.541   3.689
31050SOL    HW195047   4.033   1.608   3.653
31050SOL    HW295048   3.918   1.516   3.616
31051SOL     OW95049  14.628   6.983   9.575
31051SOL    HW195050  14.669   6.916   9.630
31051SOL    HW295051  14.689   6.995   9.502
31052SOL     OW95052  12.296  12.382  12.534
31052SOL    HW195053  12.266  12.437  12.461
31052SOL    HW295054  12.283  12.293  12.503
31053SOL     OW95055  14.513  11.581   1.861
31053SOL    HW195056  14.500  11.530   1.941
31053SOL    HW295057  14.608  11.586   1.851
31054SOL     OW95058   3.063   2.205   9.666
31054SOL    HW195059   2.968   2.220   9.669
31054SOL    HW295060   3.087   2.225   9.575
31055SOL     OW95061  13.300  14.218   2.497
31055SOL    HW195062  13.316  14.312   2.491
31055SOL    HW295063  13.205  14.209   2.500
31056SOL     OW95064   5.821   6.787   1.726
31056SOL    HW195065   5.810   6.853   1.657
31056SOL    HW295066   5.777   6.825   1.803
31057SOL     OW95067   3.567  11.912   2.086
31057SOL    HW195068   3.639  11.855   2.113
31057SOL    HW295069   3.509  11.916   2.163
31058SOL     OW95070  13.858   2.642   1.347
31058SOL    HW195071  13.832   2.666   1.257
31058SOL    HW295072  13.776   2.627   1.392
31059SOL     OW95073   8.520   1.652   8.174
31059SOL    HW195074   8.447   1.637   8.113
31059SOL    HW295075   8.520   1.574   8.230
31060SOL     OW95076   5.669   8.006  11.564
31060SOL    HW195077   5.611   7.932  11.546
31060SOL    HW295078   5.757   7.969  11.562
31061SOL     OW95079  14.213  11.423   8.533
31061SOL    HW195080  14.153  11.447   8.462
31061SOL    HW295081  14.156  11.408   8.609
31062SOL     OW95082   2.295  14.562  10.946
31062SOL    HW195083   2.386  14.590  10.944
31062SOL    HW295084   2.249  14.628  10.894
31063SOL     OW95085   3.961   0.133   1.344
31063SOL    HW195086   3.951   0.057   1.402
31063SOL    HW295087   4.038   0.111   1.291
31064SOL     OW95088  10.029   6.494   5.331
31064SOL    HW195089   9.980   6.417   5.301
31064SOL    HW295090  10.049   6.542   5.250
31065SOL     OW95091  11.303   9.516   0.654
31065SOL    HW195092  11.222   9.471   0.675
31065SOL    HW295093  11.341   9.540   0.738
31066SOL     OW95094   3.054   1.803   4.222
31066SOL    HW195095   3.082   1.750   4.148
31066SOL    HW295096   3.132   1.809   4.278
31067SOL     OW95097   9.946  13.972   7.002
31067SOL    HW195098  10.011  13.931   6.945
31067SOL    HW295099   9.875  13.999   6.944
31068SOL     OW95100   4.506   9.944   8.639
31068SOL    HW195101   4.473   9.983   8.558
31068SOL    HW295102   4.557   9.869   8.611
31069SOL     OW95103  14.293   9.311   2.583
31069SOL    HW195104  14.218   9.330   2.639
31069SOL    HW295105  14.264   9.336   2.495
31070SOL     OW95106  13.359  12.312   3.580
31070SOL    HW195107  13.328  12.403   3.582
31070SOL    HW295108  13.299  12.267   3.522
31071SOL     OW95109   1.850   0.490   9.163
31071SOL    HW195110   1.937   0.453   9.176
31071SOL    HW295111   1.861   0.552   9.091
31072SOL     OW95112  12.856  14.507   1.660
31072SOL    HW195113  12.851  14.420   1.619
31072SOL    HW295114  12.767  14.541   1.654
31073SOL     OW95115   2.802   2.370   3.093
31073SOL    HW195116   2.813   2.429   3.167
31073SOL    HW295117   2.709   2.374   3.072
31074SOL     OW95118  13.320   3.650   3.971
31074SOL    HW195119  13.395   3.621   4.022
31074SOL    HW295120  13.353   3.722   3.918
31075SOL     OW95121  12.116  12.652   2.901
31075SOL    HW195122  12.096  12.572   2.949
31075SOL    HW295123  12.052  12.716   2.933
31076SOL     OW95124   5.294   0.102   9.761
31076SOL    HW195125   5.372   0.157   9.773
31076SOL    HW295126   5.319   0.040   9.692
31077SOL     OW95127   9.171  11.138  10.115
31077SOL    HW195128   9.234  11.156  10.185
31077SOL    HW295129   9.139  11.050  10.136
31078SOL     OW95130   9.670   9.095  13.397
31078SOL    HW195131   9.624   9.058  13.473
31078SOL    HW295132   9.665   9.190  13.410
31079SOL     OW95133   8.661   1.751   2.436
31079SOL    HW195134   8.599   1.777   2.368
31079SOL    HW295135   8.746   1.748   2.392
31080SOL     OW95136   5.788   2.779   2.102
31080SOL    HW195137   5.712   2.835   2.092
31080SOL    HW295138   5.831   2.809   2.182
31081SOL     OW95139  13.766   3.874   9.753
31081SOL    HW195140  13.750   3.967   9.766
31081SOL    HW295141  13.856   3.869   9.722
31082SOL     OW95142   5.828   7.906   6.693
31082SOL    HW195143   5.854   7.958   6.769
31082SOL    HW295144   5.872   7.947   6.619
31083SOL     OW95145   7.185   4.604   2.830
31083SOL    HW195146   7.180   4.530   2.770
31083SOL    HW295147   7.177   4.681   2.774
31084SOL     OW95148   3.576   0.883   9.286
31084SOL    HW195149   3.656   0.874   9.338
31084SOL    HW295150   3.562   0.796   9.249
31085SOL     OW95151   6.071  11.111   7.886
31085SOL    HW195152   5.978  11.097   7.905
31085SOL    HW295153   6.090  11.049   7.816
31086SOL     OW95154   2.346  12.570  12.606
31086SOL    HW195155   2.419  12.617  12.647
31086SOL    HW295156   2.367  12.478  12.618
31087SOL     OW95157   7.257  12.633  13.113
31087SOL    HW195158   7.256  12.708  13.173
31087SOL    HW295159   7.243  12.557  13.169
31088SOL     OW95160   7.169   1.545  13.548
31088SOL    HW195161   7.095   1.576  13.495
31088SOL    HW295162   7.222   1.624  13.562
31089SOL     OW95163  12.533   9.509   7.125
31089SOL    HW195164  12.502   9.524   7.214
31089SOL    HW295165  12.605   9.447   7.135
31090SOL     OW95166   7.001   1.798   5.924
31090SOL    HW195167   7.016   1.845   5.842
31090SOL    HW295168   7.084   1.753   5.941
31091SOL     OW95169  13.463   9.569   3.761
31091SOL    HW195170  13.380   9.548   3.718
31091SOL    HW295171  13.476   9.663   3.743
31092SOL     OW95172   2.580   5.000   1.377
31092SOL    HW195173   2.540   5.084   1.354
31092SOL    HW295174   2.507   4.938   1.374
31093SOL     OW95175   5.190   7.727   6.599
31093SOL    HW195176   5.255   7.658   6.585
31093SOL    HW295177   5.167   7.756   6.511
31094SOL     OW95178  14.546  14.740  11.063
31094SOL    HW195179  14.633  14.767  11.032
31094SOL    HW295180  14.505  14.700  10.987
31095SOL     OW95181   3.686   5.899   5.201
31095SOL    HW195182   3.612   5.941   5.157
31095SOL    HW295183   3.651   5.814   5.231
31096SOL     OW95184   6.880  13.947   2.237
31096SOL    HW195185   6.849  13.879   2.297
31096SOL    HW295186   6.971  13.962   2.263
31097SOL     OW95187   3.027  14.014   0.518
31097SOL    HW195188   3.071  14.019   0.602
31097SOL    HW295189   3.010  14.105   0.494
31098SOL     OW95190   1.292   5.969  12.243
31098SOL    HW195191   1.259   6.058  12.228
31098SOL    HW295192   1.258   5.946  12.330
31099SOL     OW95193   8.977   5.196   0.581
31099SOL    HW195194   8.932   5.280   0.580
31099SOL    HW295195   9.040   5.201   0.510
31100SOL     OW95196   3.180  11.095   0.681
31100SOL    HW195197   3.123  11.145   0.739
31100SOL    HW295198   3.266  11.137   0.689
31101SOL     OW95199   3.935   7.494  12.331
31101SOL    HW195200   3.969   7.580  12.309
31101SOL    HW295201   4.011   7.445  12.363
31102SOL     OW95202   8.297  12.685  12.818
31102SOL    HW195203   8.266  12.605  12.860
31102SOL    HW295204   8.296  12.665  12.724
31103SOL     OW95205   3.239   0.522  11.944
31103SOL    HW195206   3.231   0.613  11.970
31103SOL    HW295207   3.190   0.515  11.862
31104SOL     OW95208   7.284  13.742   0.484
31104SOL    HW195209   7.296  13.664   0.538
31104SOL    HW295210   7.216  13.717   0.421
31105SOL     OW95211  11.515  10.423   0.184
31105SOL    HW195212  11.452  10.487   0.152
31105SOL    HW295213  11.577  10.473   0.238
31106SOL     OW95214   4.362  14.558  11.758
31106SOL    HW195215   4.434  14.582  11.699
31106SOL    HW295216   4.317  14.486  11.713
31107SOL     OW95217  14.471   1.064   8.611
31107SOL    HW195218  14.471   0.974   8.644
31107SOL    HW295219  14.521   1.114   8.675
31108SOL     OW95220  10.355  12.796  11.892
31108SOL    HW195221  10.285  12.860  11.877
31108SOL    HW295222  10.415  12.808  11.818
31109SOL     OW95223   2.366   9.924  14.589
31109SOL    HW195224   2.413   9.844  14.612
31109SOL    HW295225   2.279   9.912  14.626
31110SOL     OW95226   6.178   8.267   4.783
31110SOL    HW195227   6.101   8.251   4.728
31110SOL    HW295228   6.251   8.270   4.721
31111SOL     OW95229   2.337   0.420   5.191
31111SOL    HW195230   2.430   0.442   5.186
31111SOL    HW295231   2.294   0.485   5.135
31112SOL     OW95232   2.914  11.238  11.525
31112SOL    HW195233   2.837  11.293  11.531
31112SOL    HW295234   2.977  11.290  11.474
31113SOL     OW95235  13.445   4.217   4.213
31113SOL    HW195236  13.476   4.248   4.129
31113SOL    HW295237  13.378   4.152   4.191
31114SOL     OW95238  11.129   2.639   5.220
31114SOL    HW195239  11.163   2.562   5.175
31114SOL    HW295240  11.201   2.668   5.277
31115SOL     OW95241   7.762   7.212  10.249
31115SOL    HW195242   7.695   7.183  10.187
31115SOL    HW295243   7.761   7.146  10.318
31116SOL     OW95244  10.619  14.111   8.532
31116SOL    HW195245  10.562  14.038   8.508
31116SOL    HW295246  10.690  14.109   8.468
31117SOL     OW95247   0.830  13.249  13.377
31117SOL    HW195248   0.901  13.250  13.312
31117SOL    HW295249   0.813  13.156  13.391
31118SOL     OW95250  12.529   4.430   6.600
31118SOL    HW195251  12.524   4.341   6.633
31118SOL    HW295252  12.511   4.422   6.506
31119SOL     OW95253   9.992   1.348   3.356
31119SOL    HW195254   9.951   1.433   3.375
31119SOL    HW295255   9.959   1.290   3.424
31120SOL     OW95256   4.709   5.070  13.592
31120SOL    HW195257   4.738   5.066  13.683
31120SOL    HW295258   4.697   4.979  13.566
31121SOL     OW95259   8.292  12.177   2.245
31121SOL    HW195260   8.239  12.110   2.288
31121SOL    HW295261   8.373  12.133   2.221
31122SOL     OW95262   5.641   4.182  10.029
31122SOL    HW195263   5.637   4.158   9.936
31122SOL    HW295264   5.653   4.099  10.075
31123SOL     OW95265  14.225   5.135   2.916
31123SOL    HW195266  14.171   5.210   2.890
31123SOL    HW295267  14.205   5.121   3.009
31124SOL     OW95268   9.322  14.743   4.855
31124SOL    HW195269   9.354  14.784   4.935
31124SOL    HW295270   9.238  14.786   4.837
31125SOL     OW95271   8.529   3.358  11.285
31125SOL    HW195272   8.590   3.286  11.268
31125SOL    HW295273   8.558   3.428  11.226
31126SOL     OW95274  13.466   7.518  12.287
31126SOL    HW195275  13.403   7.587  12.310
31126SOL    HW295276  13.551   7.560  12.296
31127SOL     OW95277   4.622   5.871   9.952
31127SOL    HW195278   4.702   5.916   9.981
31127SOL    HW295279   4.641   5.778   9.964
31128SOL     OW95280   2.110   4.858   1.537
31128SOL    HW195281   2.038   4.863   1.475
31128SOL    HW295282   2.074   4.811   1.612
31129SOL     OW95283   4.100   3.295   0.927
31129SOL    HW195284   4.133   3.330   1.010
31129SOL    HW295285   4.177   3.294   0.870
31130SOL     OW95286   6.156   5.572   8.460
31130SOL    HW195287   6.229   5.633   8.450
31130SOL    HW295288   6.178   5.499   8.402
31131SOL     OW95289   1.998   2.540   1.213
31131SOL    HW195290   2.089   2.557   1.186
31131SOL    HW295291   1.971   2.464   1.162
31132SOL     OW95292   5.951   7.434  13.456
31132SOL    HW195293   6.034   7.447  13.501
31132SOL    HW295294   5.970   7.450  13.364
31133SOL     OW95295   6.081   3.708   6.274
31133SOL    HW195296   6.151   3.687   6.337
31133SOL    HW295297   6.038   3.624   6.257
31134SOL     OW95298   7.257   7.792   3.609
31134SOL    HW195299   7.349   7.818   3.619
31134SOL    HW295300   7.254   7.702   3.642
31135SOL     OW95301   0.180   9.244  10.526
31135SOL    HW195302   0.145   9.184  10.592
31135SOL    HW295303   0.216   9.187  10.458
31136SOL     OW95304   5.065   1.337   9.543
31136SOL    HW195305   5.137   1.277   9.558
31136SOL    HW295306   5.074   1.403   9.611
31137SOL     OW95307   9.468  12.991   8.141
31137SOL    HW195308   9.488  12.897   8.142
31137SOL    HW295309   9.422  13.006   8.224
31138SOL     OW95310  10.900  11.477   2.804
31138SOL    HW195311  10.921  11.564   2.769
31138SOL    HW295312  10.977  11.424   2.784
31139SOL     OW95313  14.552   1.757   6.322
31139SOL    HW195314  14.598   1.788   6.400
31139SOL    HW295315  14.604   1.682   6.292
31140SOL     OW95316   7.528  12.910   7.536
31140SOL    HW195317   7.492  12.856   7.465
31140SOL    HW295318   7.598  12.961   7.494
31141SOL     OW95319  13.086   3.228   1.858
31141SOL    HW195320  13.051   3.317   1.850
31141SOL    HW295321  13.020   3.173   1.815
31142SOL     OW95322   4.252   5.582   0.878
31142SOL    HW195323   4.300   5.564   0.958
31142SOL    HW295324   4.283   5.516   0.816
31143SOL     OW95325  11.885   8.163   4.492
31143SOL    HW195326  11.790   8.178   4.487
31143SOL    HW295327  11.918   8.191   4.407
31144SOL     OW95328   0.245   1.190   6.359
31144SOL    HW195329   0.303   1.143   6.300
31144SOL    HW295330   0.173   1.129   6.376
31145SOL     OW95331   7.699   3.918   0.948
31145SOL    HW195332   7.647   3.998   0.947
31145SOL    HW295333   7.786   3.945   0.920
31146SOL     OW95334   3.596   8.147   2.799
31146SOL    HW195335   3.585   8.128   2.706
31146SOL    HW295336   3.689   8.168   2.808
31147SOL     OW95337   0.062   5.064   9.972
31147SOL    HW195338   0.133   5.052   9.909
31147SOL    HW295339   0.068   4.988  10.030
31148SOL     OW95340   9.784  13.961  11.342
31148SOL    HW195341   9.736  14.044  11.341
31148SOL    HW295342   9.755  13.915  11.263
31149SOL     OW95343  11.385  10.044   3.494
31149SOL    HW195344  11.478  10.027   3.476
31149SOL    HW295345  11.383  10.136   3.519
31150SOL     OW95346   9.633   6.239  14.070
31150SOL    HW195347   9.729   6.244  14.067
31150SOL    HW295348   9.614   6.147  14.086
31151SOL     OW95349   2.884   5.659  11.970
31151SOL    HW195350   2.971   5.695  11.953
31151SOL    HW295351   2.890   5.623  12.058
31152SOL     OW95352   5.479  14.070   6.644
31152SOL    HW195353   5.414  14.051   6.576
31152SOL    HW295354   5.436  14.043   6.725
31153SOL     OW95355   0.968  10.208   4.293
31153SOL    HW195356   1.013  10.164   4.221
31153SOL    HW295357   0.884  10.235   4.257
31154SOL     OW95358   9.593  10.702   1.215
31154SOL    HW195359   9.505  10.667   1.227
31154SOL    HW295360   9.636  10.687   1.299
31155SOL     OW95361   8.253   1.021   1.104
31155SOL    HW195362   8.196   0.955   1.067
31155SOL    HW295363   8.262   0.996   1.196
31156SOL     OW95364   0.822  12.042   6.728
31156SOL    HW195365   0.732  12.076   6.724
31156SOL    HW295366   0.847  12.049   6.820
31157SOL     OW95367   0.602  13.132  12.443
31157SOL    HW195368   0.538  13.164  12.379
31157SOL    HW295369   0.594  13.192  12.517
31158SOL     OW95370   7.454   9.315   1.937
31158SOL    HW195371   7.398   9.316   2.015
31158SOL    HW295372   7.393   9.316   1.863
31159SOL     OW95373   5.578   6.909   1.309
31159SOL    HW195374   5.503   6.940   1.257
31159SOL    HW295375   5.571   6.814   1.305
31160SOL     OW95376  13.720  11.564  13.834
31160SOL    HW195377  13.694  11.533  13.921
31160SOL    HW295378  13.722  11.485  13.780
31161SOL     OW95379  10.439   9.867  13.934
31161SOL    HW195380  10.452   9.837  13.844
31161SOL    HW295381  10.415   9.789  13.983
31162SOL     OW95382   4.191  13.710   4.958
31162SOL    HW195383   4.168  13.733   5.048
31162SOL    HW295384   4.279  13.747   4.946
31163SOL     OW95385   4.056   5.857   3.761
31163SOL    HW195386   4.081   5.776   3.807
31163SOL    HW295387   4.013   5.827   3.681
31164SOL     OW95388   4.149   3.440   8.018
31164SOL    HW195389   4.180   3.373   7.956
31164SOL    HW295390   4.229   3.471   8.061
31165SOL     OW95391   2.117   0.737   2.944
31165SOL    HW195392   2.065   0.659   2.923
31165SOL    HW295393   2.148   0.722   3.034
31166SOL     OW95394   7.496   1.887   3.838
31166SOL    HW195395   7.564   1.933   3.887
31166SOL    HW295396   7.439   1.850   3.904
31167SOL     OW95397  14.836   7.400   2.875
31167SOL    HW195398   0.025   7.394   2.939
31167SOL    HW295399  14.756   7.399   2.927
31168SOL     OW95400   7.721  13.498   8.403
31168SOL    HW195401   7.750  13.477   8.491
31168SOL    HW295402   7.721  13.594   8.399
31169SOL     OW95403   9.295   3.155   1.630
31169SOL    HW195404   9.297   3.220   1.560
31169SOL    HW295405   9.272   3.073   1.587
31170SOL     OW95406   6.849   8.881   8.429
31170SOL    HW195407   6.821   8.792   8.449
31170SOL    HW295408   6.944   8.874   8.417
31171SOL     OW95409  12.396   2.602   3.320
31171SOL    HW195410  12.420   2.527   3.374
31171SOL    HW295411  12.311   2.630   3.353
31172SOL     OW95412   5.960   9.036   0.454
31172SOL    HW195413   5.898   9.038   0.527
31172SOL    HW295414   6.023   8.969   0.478
31173SOL     OW95415   3.552   3.848   7.024
31173SOL    HW195416   3.493   3.922   7.037
31173SOL    HW295417   3.598   3.868   6.942
31174SOL     OW95418  12.483  10.642   4.156
31174SOL    HW195419  12.560  10.591   4.131
31174SOL    HW295420  12.421  10.630   4.084
31175SOL     OW95421  13.500  13.868   5.377
31175SOL    HW195422  13.488  13.780   5.413
31175SOL    HW295423  13.527  13.921   5.452
31176SOL     OW95424   4.129   6.582   5.777
31176SOL    HW195425   4.123   6.585   5.682
31176SOL    HW295426   4.039   6.591   5.808
31177SOL     OW95427   2.006   4.075   2.985
31177SOL    HW195428   1.915   4.089   3.011
31177SOL    HW295429   2.018   3.981   2.992
31178SOL     OW95430  11.325   4.118   4.692
31178SOL    HW195431  11.351   4.072   4.611
31178SOL    HW295432  11.401   4.173   4.713
31179SOL     OW95433   7.595  12.343   7.149
31179SOL    HW195434   7.597  12.289   7.228
31179SOL    HW295435   7.532  12.299   7.091
31180SOL     OW95436   4.322  13.555   2.208
31180SOL    HW195437   4.244  13.609   2.204
31180SOL    HW295438   4.394  13.617   2.219
31181SOL     OW95439   8.639   9.539   0.409
31181SOL    HW195440   8.641   9.630   0.380
31181SOL    HW295441   8.551   9.528   0.445
31182SOL     OW95442   1.137  11.808   5.970
31182SOL    HW195443   1.084  11.872   5.922
31182SOL    HW295444   1.200  11.860   6.019
31183SOL     OW95445   9.724  10.685   8.687
31183SOL    HW195446   9.673  10.759   8.653
31183SOL    HW295447   9.732  10.625   8.613
31184SOL     OW95448   2.202   3.168   1.450
31184SOL    HW195449   2.118   3.124   1.450
31184SOL    HW295450   2.259   3.112   1.396
31185SOL     OW95451   8.324   8.221   1.107
31185SOL    HW195452   8.303   8.296   1.051
31185SOL    HW295453   8.255   8.157   1.088
31186SOL     OW95454   4.618   2.879  14.308
31186SOL    HW195455   4.693   2.909  14.256
31186SOL    HW295456   4.580   2.960  14.342
31187SOL     OW95457  12.436   4.670   3.880
31187SOL    HW195458  12.419   4.736   3.813
31187SOL    HW295459  12.530   4.653   3.874
31188SOL     OW95460   4.536  14.236   5.083
31188SOL    HW195461   4.544  14.154   5.131
31188SOL    HW295462   4.506  14.210   4.996
31189SOL     OW95463  13.498   0.552  13.310
31189SOL    HW195464  13.579   0.541  13.360
31189SOL    HW295465  13.527   0.581  13.223
31190SOL     OW95466  13.399   2.225   2.659
31190SOL    HW195467  13.349   2.286   2.604
31190SOL    HW295468  13.456   2.179   2.598
31191SOL     OW95469  11.768   5.044   9.579
31191SOL    HW195470  11.851   5.021   9.620
31191SOL    HW295471  11.747   5.131   9.614
31192SOL     OW95472   6.555   4.826   3.093
31192SOL    HW195473   6.648   4.829   3.114
31192SOL    HW295474   6.530   4.734   3.106
31193SOL     OW95475   6.743   5.974   3.354
31193SOL    HW195476   6.738   5.951   3.262
31193SOL    HW295477   6.673   5.924   3.396
31194SOL     OW95478   5.482   4.113   1.069
31194SOL    HW195479   5.407   4.167   1.095
31194SOL    HW295480   5.493   4.052   1.142
31195SOL     OW95481   0.356  11.878   2.461
31195SOL    HW195482   0.393  11.917   2.541
31195SOL    HW295483   0.305  11.804   2.492
31196SOL     OW95484   1.631   2.119   2.460
31196SOL    HW195485   1.662   2.161   2.380
31196SOL    HW295486   1.699   2.139   2.524
31197SOL     OW95487  10.271   3.799   7.686
31197SOL    HW195488  10.212   3.745   7.738
31197SOL    HW295489  10.348   3.811   7.742
31198SOL     OW95490   6.702   5.726   5.159
31198SOL    HW195491   6.642   5.782   5.209
31198SOL    HW295492   6.776   5.713   5.218
31199SOL     OW95493   1.419  13.601   9.600
31199SOL    HW195494   1.505  13.639   9.618
31199SOL    HW295495   1.432  13.548   9.522
31200SOL     OW95496  13.625  11.509   3.847
31200SOL    HW195497  13.595  11.531   3.759
31200SOL    HW295498  13.713  11.546   3.853
31201SOL     OW95499   5.169   6.098   4.913
31201SOL    HW195500   5.236   6.051   4.962
31201SOL    HW295501   5.219   6.151   4.849
31202SOL     OW95502   2.520   6.908   3.918
31202SOL    HW195503   2.565   6.874   3.995
31202SOL    HW295504   2.544   7.001   3.915
31203SOL     OW95505  13.851   2.809  13.733
31203SOL    HW195506  13.816   2.722  13.712
31203SOL    HW295507  13.858   2.853  13.649
31204SOL     OW95508   8.762   2.050   5.636
31204SOL    HW195509   8.832   2.096   5.682
31204SOL    HW295510   8.682   2.080   5.677
31205SOL     OW95511  11.727  13.104   7.592
31205SOL    HW195512  11.663  13.038   7.565
31205SOL    HW295513  11.788  13.110   7.519
31206SOL     OW95514  12.352  12.940  14.440
31206SOL    HW195515  12.366  12.846  14.433
31206SOL    HW295516  12.296  12.962  14.365
31207SOL     OW95517   4.660  11.666   3.963
31207SOL    HW195518   4.715  11.609   3.909
31207SOL    HW295519   4.670  11.633   4.052
31208SOL     OW95520  10.596  14.841  13.626
31208SOL    HW195521  10.615  14.787  13.549
31208SOL    HW295522  10.657   0.032  13.620
31209SOL     OW95523   6.459   5.777   3.622
31209SOL    HW195524   6.406   5.827   3.684
31209SOL    HW295525   6.539   5.829   3.611
31210SOL     OW95526  12.630  14.037   0.718
31210SOL    HW195527  12.701  13.994   0.766
31210SOL    HW295528  12.582  13.965   0.677
31211SOL     OW95529   7.538  12.985   8.872
31211SOL    HW195530   7.477  12.923   8.910
31211SOL    HW295531   7.487  13.031   8.805
31212SOL     OW95532  11.830   5.222  12.806
31212SOL    HW195533  11.867   5.305  12.835
31212SOL    HW295534  11.902   5.179  12.759
31213SOL     OW95535   8.659   1.406   7.897
31213SOL    HW195536   8.681   1.353   7.974
31213SOL    HW295537   8.566   1.427   7.909
31214SOL     OW95538   5.059   2.271   2.423
31214SOL    HW195539   5.030   2.294   2.511
31214SOL    HW295540   5.147   2.308   2.416
31215SOL     OW95541   2.203  14.337   3.654
31215SOL    HW195542   2.252  14.264   3.690
31215SOL    HW295543   2.237  14.414   3.699
31216SOL     OW95544   5.423   6.013   0.327
31216SOL    HW195545   5.443   6.010   0.421
31216SOL    HW295546   5.433   6.105   0.304
31217SOL     OW95547  14.640   9.260   5.999
31217SOL    HW195548  14.717   9.204   5.990
31217SOL    HW295549  14.585   9.237   5.924
31218SOL     OW95550   9.259   7.178  14.058
31218SOL    HW195551   9.250   7.085  14.079
31218SOL    HW295552   9.258   7.222  14.143
31219SOL     OW95553   8.728   0.979   7.171
31219SOL    HW195554   8.809   1.017   7.139
31219SOL    HW295555   8.662   1.047   7.158
31220SOL     OW95556   8.641   0.910   5.841
31220SOL    HW195557   8.633   0.931   5.748
31220SOL    HW295558   8.668   0.818   5.843
31221SOL     OW95559  12.266   3.789   6.222
31221SOL    HW195560  12.204   3.861   6.215
31221SOL    HW295561  12.342   3.827   6.266
31222SOL     OW95562   2.119   6.168  10.331
31222SOL    HW195563   2.139   6.260  10.314
31222SOL    HW295564   2.110   6.162  10.426
31223SOL     OW95565  12.245   3.946  10.841
31223SOL    HW195566  12.221   3.855  10.862
31223SOL    HW295567  12.265   3.943  10.747
31224SOL     OW95568  12.519  12.417   3.257
31224SOL    HW195569  12.565  12.453   3.333
31224SOL    HW295570  12.427  12.429   3.277
31225SOL     OW95571   5.179  11.867   0.316
31225SOL    HW195572   5.247  11.868   0.384
31225SOL    HW295573   5.146  11.957   0.314
31226SOL     OW95574   9.649   6.366   5.377
31226SOL    HW195575   9.617   6.435   5.435
31226SOL    HW295576   9.701   6.412   5.310
31227SOL     OW95577  12.807   0.549  13.743
31227SOL    HW195578  12.874   0.609  13.775
31227SOL    HW295579  12.851   0.494  13.680
31228SOL     OW95580   4.419   0.314  14.365
31228SOL    HW195581   4.333   0.278  14.343
31228SOL    HW295582   4.400   0.401  14.401
31229SOL     OW95583  11.108   9.539   7.101
31229SOL    HW195584  11.091   9.519   7.193
31229SOL    HW295585  11.052   9.614   7.082
31230SOL     OW95586  10.593   7.607  10.292
31230SOL    HW195587  10.677   7.630  10.333
31230SOL    HW295588  10.590   7.512  10.295
31231SOL     OW95589  13.551  13.103   7.191
31231SOL    HW195590  13.460  13.077   7.210
31231SOL    HW295591  13.604  13.030   7.224
31232SOL     OW95592   3.491  10.344  11.316
31232SOL    HW195593   3.442  10.264  11.299
31232SOL    HW295594   3.442  10.413  11.270
31233SOL     OW95595   1.684  11.128   3.260
31233SOL    HW195596   1.672  11.220   3.236
31233SOL    HW295597   1.652  11.079   3.185
31234SOL     OW95598   5.111   1.670   7.379
31234SOL    HW195599   5.037   1.632   7.427
31234SOL    HW295600   5.091   1.763   7.373
31235SOL     OW95601   5.315  12.145  12.554
31235SOL    HW195602   5.318  12.152  12.650
31235SOL    HW295603   5.353  12.227  12.523
31236SOL     OW95604  12.896  10.424   0.942
31236SOL    HW195605  12.831  10.376   0.890
31236SOL    HW295606  12.847  10.453   1.019
31237SOL     OW95607   0.082   8.015  13.824
31237SOL    HW195608   0.102   8.091  13.770
31237SOL    HW295609   0.025   7.961  13.769
31238SOL     OW95610  10.327   8.894  10.288
31238SOL    HW195611  10.312   8.852  10.204
31238SOL    HW295612  10.358   8.823  10.345
31239SOL     OW95613   9.520   0.760  12.328
31239SOL    HW195614   9.557   0.761  12.240
31239SOL    HW295615   9.442   0.816  12.321
31240SOL     OW95616   6.272   9.456  10.270
31240SOL    HW195617   6.328   9.514  10.218
31240SOL    HW295618   6.296   9.368  10.243
31241SOL     OW95619   7.981   1.899   0.296
31241SOL    HW195620   8.068   1.910   0.336
31241SOL    HW295621   8.000   1.866   0.208
31242SOL     OW95622   2.780   7.985   6.850
31242SOL    HW195623   2.815   8.069   6.823
31242SOL    HW295624   2.686   8.001   6.862
31243SOL     OW95625  13.781   0.415  13.838
31243SOL    HW195626  13.828   0.469  13.901
31243SOL    HW295627  13.801   0.454  13.753
31244SOL     OW95628   4.409   2.742  12.216
31244SOL    HW195629   4.335   2.705  12.168
31244SOL    HW295630   4.400   2.706  12.304
31245SOL     OW95631   2.700   1.016  11.883
31245SOL    HW195632   2.752   1.043  11.959
31245SOL    HW295633   2.617   1.062  11.892
31246SOL     OW95634  13.035  12.062   2.328
31246SOL    HW195635  12.941  12.080   2.323
31246SOL    HW295636  13.076  12.143   2.296
31247SOL     OW95637   2.507   2.206   0.491
31247SOL    HW195638   2.559   2.147   0.545
31247SOL    HW295639   2.429   2.155   0.468
31248SOL     OW95640   1.967  11.293   8.369
31248SOL    HW195641   2.045  11.334   8.332
31248SOL    HW295642   1.975  11.201   8.344
31249SOL     OW95643   3.997  12.968  14.341
31249SOL    HW195644   4.075  13.013  14.374
31249SOL    HW295645   3.928  12.994  14.401
31250SOL     OW95646   0.382   4.862   2.803
31250SOL    HW195647   0.454   4.880   2.743
31250SOL    HW295648   0.418   4.876   2.890
31251SOL     OW95649  12.955  11.804  14.773
31251SOL    HW195650  12.903  11.724  14.786
31251SOL    HW295651  12.957  11.845  14.860
31252SOL     OW95652   8.467   3.182   8.646
31252SOL    HW195653   8.481   3.276   8.651
31252SOL    HW295654   8.497   3.148   8.731
31253SOL     OW95655  10.868   2.070   8.180
31253SOL    HW195656  10.926   2.000   8.149
31253SOL    HW295657  10.780   2.032   8.176
31254SOL     OW95658   8.596   8.004  14.871
31254SOL    HW195659   8.690   8.021  14.879
31254SOL    HW295660   8.578   7.935   0.054
31255SOL     OW95661  12.141   0.827  11.286
31255SOL    HW195662  12.065   0.868  11.247
31255SOL    HW295663  12.214   0.849  11.227
31256SOL     OW95664  10.425   1.111   8.706
31256SOL    HW195665  10.433   1.206   8.714
31256SOL    HW295666  10.382   1.098   8.622
31257SOL     OW95667   3.624   4.930   7.127
31257SOL    HW195668   3.601   5.020   7.152
31257SOL    HW295669   3.704   4.939   7.075
31258SOL     OW95670  14.155   9.666   8.391
31258SOL    HW195671  14.215   9.592   8.400
31258SOL    HW295672  14.115   9.676   8.477
31259SOL     OW95673   9.231   7.232   6.420
31259SOL    HW195674   9.304   7.178   6.449
31259SOL    HW295675   9.185   7.255   6.501
31260SOL     OW95676   7.761   0.221  13.213
31260SOL    HW195677   7.744   0.171  13.133
31260SOL    HW295678   7.809   0.298  13.183
31261SOL     OW95679   1.440   4.444   3.304
31261SOL    HW195680   1.519   4.448   3.250
31261SOL    HW295681   1.465   4.489   3.385
31262SOL     OW95682   2.584   1.625   3.281
31262SOL    HW195683   2.495   1.654   3.299
31262SOL    HW295684   2.580   1.590   3.192
31263SOL     OW95685   8.626   2.398  14.088
31263SOL    HW195686   8.656   2.367  14.173
31263SOL    HW295687   8.568   2.472  14.108
31264SOL     OW95688   8.936   2.785   2.937
31264SOL    HW195689   8.870   2.839   2.981
31264SOL    HW295690   8.945   2.708   2.993
31265SOL     OW95691   1.871   0.346  12.673
31265SOL    HW195692   1.783   0.341  12.636
31265SOL    HW295693   1.891   0.256  12.698
31266SOL     OW95694   3.226   2.456   9.113
31266SOL    HW195695   3.290   2.462   9.183
31266SOL    HW295696   3.149   2.503   9.146
31267SOL     OW95697   0.404   6.240   9.799
31267SOL    HW195698   0.479   6.258   9.857
31267SOL    HW295699   0.440   6.247   9.711
31268SOL     OW95700   1.922   0.359  14.248
31268SOL    HW195701   1.945   0.289  14.310
31268SOL    HW295702   1.935   0.319  14.162
31269SOL     OW95703   5.140  12.053  14.406
31269SOL    HW195704   5.074  12.054  14.337
31269SOL    HW295705   5.151  12.145  14.430
31270SOL     OW95706   3.851  13.551  12.065
31270SOL    HW195707   3.794  13.587  11.997
31270SOL    HW295708   3.864  13.624  12.126
31271SOL     OW95709  11.744   4.749   8.880
31271SOL    HW195710  11.724   4.841   8.899
31271SOL    HW295711  11.836   4.750   8.854
31272SOL     OW95712   6.218  11.339  13.045
31272SOL    HW195713   6.235  11.386  13.126
31272SOL    HW295714   6.304  11.313  13.013
31273SOL     OW95715   3.808   6.290   1.416
31273SOL    HW195716   3.720   6.294   1.379
31273SOL    HW295717   3.815   6.203   1.456
31274SOL     OW95718  14.517   1.850   1.645
31274SOL    HW195719  14.430   1.853   1.605
31274SOL    HW295720  14.577   1.873   1.574
31275SOL     OW95721   7.194  10.403  10.862
31275SOL    HW195722   7.213  10.315  10.893
31275SOL    HW295723   7.278  10.447  10.861
31276SOL     OW95724   4.379  12.039   2.704
31276SOL    HW195725   4.354  12.029   2.612
31276SOL    HW295726   4.452  11.978   2.716
31277SOL     OW95727   0.925   2.949   1.268
31277SOL    HW195728   0.876   2.872   1.296
31277SOL    HW295729   0.861   3.004   1.224
31278SOL     OW95730   8.906   3.834   4.404
31278SOL    HW195731   8.975   3.853   4.468
31278SOL    HW295732   8.901   3.912   4.350
31279SOL     OW95733   5.630  14.880   1.118
31279SOL    HW195734   5.718   0.036   1.126
31279SOL    HW295735   5.604  14.863   1.208
31280SOL     OW95736   9.731  13.820  10.532
31280SOL    HW195737   9.816  13.857  10.558
31280SOL    HW295738   9.704  13.873  10.457
31281SOL     OW95739   7.487  14.361  14.228
31281SOL    HW195740   7.484  14.270  14.197
31281SOL    HW295741   7.416  14.404  14.179
31282SOL     OW95742  14.460  12.629   6.546
31282SOL    HW195743  14.440  12.652   6.455
31282SOL    HW295744  14.381  12.588   6.579
31283SOL     OW95745   9.202   4.459   5.481
31283SOL    HW195746   9.135   4.462   5.550
31283SOL    HW295747   9.156   4.423   5.405
31284SOL     OW95748  10.272   2.706  14.016
31284SOL    HW195749  10.350   2.761  14.013
31284SOL    HW295750  10.202   2.764  14.048
31285SOL     OW95751   4.660  10.834   7.203
31285SOL    HW195752   4.702  10.832   7.289
31285SOL    HW295753   4.672  10.746   7.168
31286SOL     OW95754   1.618   5.744   9.343
31286SOL    HW195755   1.585   5.668   9.389
31286SOL    HW295756   1.550   5.810   9.352
31287SOL     OW95757   7.325   0.108  11.631
31287SOL    HW195758   7.235   0.088  11.654
31287SOL    HW295759   7.369   0.023  11.626
31288SOL     OW95760  14.072   7.642  12.936
31288SOL    HW195761  14.164   7.628  12.913
31288SOL    HW295762  14.037   7.694  12.864
31289SOL     OW95763   1.699   0.096  13.130
31289SOL    HW195764   1.718   0.086  13.224
31289SOL    HW295765   1.610   0.063  13.120
31290SOL     OW95766   3.615   9.274  14.062
31290SOL    HW195767   3.571   9.260  14.146
31290SOL    HW295768   3.655   9.361  14.070
31291SOL     OW95769   4.322   1.152   3.333
31291SOL    HW195770   4.362   1.098   3.401
31291SOL    HW295771   4.330   1.242   3.365
31292SOL     OW95772  11.664   3.530  14.134
31292SOL    HW195773  11.636   3.440  14.153
31292SOL    HW295774  11.754   3.534  14.166
31293SOL     OW95775   4.869   9.841  11.354
31293SOL    HW195776   4.806   9.866  11.286
31293SOL    HW295777   4.920   9.920  11.370
31294SOL     OW95778   5.941   9.895   7.777
31294SOL    HW195779   5.981   9.822   7.730
31294SOL    HW295780   6.014   9.945   7.812
31295SOL     OW95781   9.848  12.778   5.440
31295SOL    HW195782   9.889  12.746   5.360
31295SOL    HW295783   9.846  12.701   5.498
31296SOL     OW95784   8.026   5.444   4.913
31296SOL    HW195785   7.966   5.507   4.954
31296SOL    HW295786   8.076   5.497   4.850
31297SOL     OW95787   0.953   5.391   5.150
31297SOL    HW195788   1.010   5.330   5.195
31297SOL    HW295789   0.963   5.474   5.197
31298SOL     OW95790   5.599  14.582   6.392
31298SOL    HW195791   5.574  14.645   6.459
31298SOL    HW295792   5.526  14.520   6.389
31299SOL     OW95793   3.294  10.908   7.600
31299SOL    HW195794   3.261  10.870   7.519
31299SOL    HW295795   3.215  10.937   7.647
31300SOL     OW95796   2.384  11.948   2.520
31300SOL    HW195797   2.333  11.946   2.601
31300SOL    HW295798   2.326  11.987   2.455
31301SOL     OW95799   0.422   7.716   4.025
31301SOL    HW195800   0.400   7.771   3.950
31301SOL    HW295801   0.517   7.726   4.036
31302SOL     OW95802   4.694   4.084  13.850
31302SOL    HW195803   4.692   4.015  13.917
31302SOL    HW295804   4.766   4.141  13.875
31303SOL     OW95805   5.702   8.395   6.515
31303SOL    HW195806   5.752   8.462   6.560
31303SOL    HW295807   5.667   8.340   6.586
31304SOL     OW95808  11.433  12.436  12.461
31304SOL    HW195809  11.465  12.357  12.505
31304SOL    HW295810  11.501  12.457  12.398
31305SOL     OW95811   2.841   4.942   7.426
31305SOL    HW195812   2.815   5.027   7.391
31305SOL    HW295813   2.907   4.962   7.492
31306SOL     OW95814   7.446   9.870   5.907
31306SOL    HW195815   7.387   9.891   5.835
31306SOL    HW295816   7.515   9.936   5.900
31307SOL     OW95817  12.775   4.437   0.449
31307SOL    HW195818  12.819   4.519   0.471
31307SOL    HW295819  12.706   4.462   0.387
31308SOL     OW95820  10.435   6.446   8.388
31308SOL    HW195821  10.426   6.485   8.301
31308SOL    HW295822  10.376   6.496   8.444
31309SOL     OW95823   0.199   1.955   1.577
31309SOL    HW195824   0.148   1.875   1.591
31309SOL    HW295825   0.290   1.929   1.591
31310SOL     OW95826   2.379   6.725   0.789
31310SOL    HW195827   2.463   6.680   0.779
31310SOL    HW295828   2.348   6.739   0.700
31311SOL     OW95829  14.829  11.712  13.147
31311SOL    HW195830  14.766  11.721  13.219
31311SOL    HW295831  14.776  11.717  13.068
31312SOL     OW95832  14.635   1.410   5.704
31312SOL    HW195833  14.585   1.345   5.753
31312SOL    HW295834  14.726   1.379   5.709
31313SOL     OW95835  11.924  13.245  10.500
31313SOL    HW195836  12.007  13.291  10.493
31313SOL    HW295837  11.942  13.158  10.464
31314SOL     OW95838   3.125  12.336   3.902
31314SOL    HW195839   3.133  12.310   3.993
31314SOL    HW295840   3.215  12.348   3.872
31315SOL     OW95841   8.746   3.811   3.843
31315SOL    HW195842   8.838   3.786   3.853
31315SOL    HW295843   8.697   3.731   3.863
31316SOL     OW95844   2.611  11.400  12.358
31316SOL    HW195845   2.636  11.324  12.306
31316SOL    HW295846   2.527  11.376  12.397
31317SOL     OW95847   2.009   2.462  11.357
31317SOL    HW195848   1.945   2.525  11.323
31317SOL    HW295849   1.965   2.378  11.352
31318SOL     OW95850   8.895   7.907   0.907
31318SOL    HW195851   8.859   7.928   0.821
31318SOL    HW295852   8.875   7.814   0.920
31319SOL     OW95853   1.263   5.411  11.408
31319SOL    HW195854   1.219   5.496  11.414
31319SOL    HW295855   1.256   5.387  11.316
31320SOL     OW95856   6.407   1.556   1.624
31320SOL    HW195857   6.411   1.637   1.674
31320SOL    HW295858   6.494   1.517   1.635
31321SOL     OW95859   7.955   4.403  11.462
31321SOL    HW195860   7.894   4.442  11.525
31321SOL    HW295861   7.995   4.330  11.509
31322SOL     OW95862  13.121   7.058   3.425
31322SOL    HW195863  13.028   7.055   3.444
31322SOL    HW295864  13.147   6.966   3.415
31323SOL     OW95865   3.318   5.353   1.248
31323SOL    HW195866   3.407   5.350   1.281
31323SOL    HW295867   3.274   5.419   1.302
31324SOL     OW95868   8.456   9.689  11.549
31324SOL    HW195869   8.413   9.606  11.531
31324SOL    HW295870   8.497   9.714  11.465
31325SOL     OW95871   3.550   3.508   6.903
31325SOL    HW195872   3.554   3.586   6.960
31325SOL    HW295873   3.474   3.459   6.935
31326SOL     OW95874   9.934   5.891   7.793
31326SOL    HW195875   9.948   5.963   7.855
31326SOL    HW295876   9.954   5.929   7.707
31327SOL     OW95877   9.688   8.499  12.041
31327SOL    HW195878   9.687   8.594  12.030
31327SOL    HW295879   9.622   8.468  11.979
31328SOL     OW95880   2.118  11.121  14.334
31328SOL    HW195881   2.045  11.090  14.387
31328SOL    HW295882   2.149  11.043  14.288
31329SOL     OW95883   1.983   6.624   7.528
31329SOL    HW195884   1.915   6.681   7.563
31329SOL    HW295885   2.050   6.684   7.494
31330SOL     OW95886   5.142   7.716   3.977
31330SOL    HW195887   5.180   7.779   3.915
31330SOL    HW295888   5.214   7.694   4.035
31331SOL     OW95889   3.709   7.446   5.153
31331SOL    HW195890   3.723   7.428   5.246
31331SOL    HW295891   3.646   7.518   5.152
31332SOL     OW95892   1.549  12.933   6.327
31332SOL    HW195893   1.530  12.840   6.329
31332SOL    HW295894   1.515  12.966   6.411
31333SOL     OW95895   6.316   8.072   5.794
31333SOL    HW195896   6.289   8.065   5.702
31333SOL    HW295897   6.403   8.032   5.797
31334SOL     OW95898   3.190   1.347   0.180
31334SOL    HW195899   3.168   1.314   0.093
31334SOL    HW295900   3.150   1.283   0.240
31335SOL     OW95901   5.454   8.360   9.468
31335SOL    HW195902   5.490   8.430   9.521
31335SOL    HW295903   5.491   8.373   9.381
31336SOL     OW95904   1.012  14.242   1.153
31336SOL    HW195905   0.979  14.168   1.204
31336SOL    HW295906   1.058  14.296   1.217
31337SOL     OW95907   8.111  11.198  12.876
31337SOL    HW195908   8.172  11.199  12.802
31337SOL    HW295909   8.070  11.284  12.875
31338SOL     OW95910  14.303  10.563   5.209
31338SOL    HW195911  14.331  10.569   5.300
31338SOL    HW295912  14.207  10.565   5.213
31339SOL     OW95913   9.682   1.084   1.578
31339SOL    HW195914   9.624   1.043   1.642
31339SOL    HW295915   9.768   1.084   1.619
31340SOL     OW95916  10.489   7.362  11.338
31340SOL    HW195917  10.397   7.357  11.310
31340SOL    HW295918  10.520   7.271  11.335
31341SOL     OW95919   0.584   6.730  14.636
31341SOL    HW195920   0.563   6.807  14.582
31341SOL    HW295921   0.658   6.758  14.689
31342SOL     OW95922   2.581  12.912  14.748
31342SOL    HW195923   2.512  12.860  14.790
31342SOL    HW295924   2.538  12.996  14.729
31343SOL     OW95925  11.637   5.386   4.280
31343SOL    HW195926  11.572   5.455   4.292
31343SOL    HW295927  11.614   5.319   4.344
31344SOL     OW95928   9.568   6.242  14.755
31344SOL    HW195929   9.488   6.194  14.778
31344SOL    HW295930   9.597   6.280  14.838
31345SOL     OW95931   3.221  14.091   0.730
31345SOL    HW195932   3.280  14.150   0.776
31345SOL    HW295933   3.276  14.045   0.667
31346SOL     OW95934   9.800  13.968  14.697
31346SOL    HW195935   9.822  13.974  14.790
31346SOL    HW295936   9.870  14.017  14.653
31347SOL     OW95937  12.666   6.816  13.293
31347SOL    HW195938  12.649   6.843  13.383
31347SOL    HW295939  12.736   6.752  13.300
31348SOL     OW95940   0.313  14.405   0.795
31348SOL    HW195941   0.296  14.415   0.701
31348SOL    HW295942   0.348  14.317   0.803
31349SOL     OW95943   5.695   0.579  10.156
31349SOL    HW195944   5.772   0.535  10.120
31349SOL    HW295945   5.623   0.518  10.139
31350SOL     OW95946  12.338   7.831   4.944
31350SOL    HW195947  12.250   7.846   4.908
31350SOL    HW295948  12.387   7.794   4.871
31351SOL     OW95949  10.730   0.850  13.460
31351SOL    HW195950  10.719   0.875  13.369
31351SOL    HW295951  10.808   0.899  13.489
31352SOL     OW95952  11.216   0.050  13.889
31352SOL    HW195953  11.258   0.067  13.804
31352SOL    HW295954  11.220   0.135  13.934
31353SOL     OW95955   6.768   5.691  14.329
31353SOL    HW195956   6.863   5.702  14.343
31353SOL    HW295957   6.728   5.732  14.406
31354SOL     OW95958   2.173   3.420   4.020
31354SOL    HW195959   2.233   3.456   4.086
31354SOL    HW295960   2.100   3.384   4.071
31355SOL     OW95961  10.501  14.645   2.728
31355SOL    HW195962  10.441  14.716   2.708
31355SOL    HW295963  10.530  14.613   2.642
31356SOL     OW95964   0.335   4.197   3.951
31356SOL    HW195965   0.425   4.187   3.983
31356SOL    HW295966   0.327   4.132   3.881
31357SOL     OW95967   1.741   0.030   6.942
31357SOL    HW195968   1.712   0.020   6.851
31357SOL    HW295969   1.697   0.109   6.973
31358SOL     OW95970   3.034  13.856   3.379
31358SOL    HW195971   3.050  13.865   3.285
31358SOL    HW295972   3.066  13.938   3.416
31359SOL     OW95973   9.103  13.192  10.968
31359SOL    HW195974   9.194  13.181  10.942
31359SOL    HW295975   9.055  13.129  10.914
31360SOL     OW95976  10.522   2.447   4.916
31360SOL    HW195977  10.484   2.365   4.884
31360SOL    HW295978  10.521   2.437   5.012
31361SOL     OW95979   7.800   5.308  14.196
31361SOL    HW195980   7.840   5.232  14.238
31361SOL    HW295981   7.835   5.308  14.107
31362SOL     OW95982   9.466   8.739  10.083
31362SOL    HW195983   9.391   8.795  10.065
31362SOL    HW295984   9.543   8.793  10.065
31363SOL     OW95985  14.507  12.340  11.538
31363SOL    HW195986  14.491  12.304  11.625
31363SOL    HW295987  14.439  12.300  11.483
31364SOL     OW95988  14.626   7.879   5.200
31364SOL    HW195989  14.594   7.960   5.241
31364SOL    HW295990  14.721   7.881   5.215
31365SOL     OW95991   7.991  14.705  11.870
31365SOL    HW195992   7.986  14.729  11.777
31365SOL    HW295993   7.907  14.733  11.906
31366SOL     OW95994  12.317   9.961   0.419
31366SOL    HW195995  12.381   9.891   0.422
31366SOL    HW295996  12.239   9.924   0.461
31367SOL     OW95997  10.736  12.583   8.120
31367SOL    HW195998  10.792  12.578   8.198
31367SOL    HW295999  10.763  12.664   8.076
31368SOL     OW96000   8.553  10.592   2.815
31368SOL    HW196001   8.497  10.595   2.892
31368SOL    HW296002   8.637  10.627   2.845
31369SOL     OW96003  12.170  13.975  10.639
31369SOL    HW196004  12.155  13.985  10.733
31369SOL    HW296005  12.226  13.898  10.632
31370SOL     OW96006   7.718   0.194  11.635
31370SOL    HW196007   7.731   0.280  11.594
31370SOL    HW296008   7.660   0.148  11.574
31371SOL     OW96009  13.068   7.640   1.317
31371SOL    HW196010  13.079   7.733   1.297
31371SOL    HW296011  13.115   7.628   1.400
31372SOL     OW96012   5.029  14.454  12.385
31372SOL    HW196013   5.096  14.521  12.369
31372SOL    HW296014   5.011  14.460  12.479
31373SOL     OW96015  14.556  10.687   8.514
31373SOL    HW196016  14.588  10.657   8.429
31373SOL    HW296017  14.561  10.783   8.510
31374SOL     OW96018   3.247  12.763  11.705
31374SOL    HW196019   3.265  12.749  11.798
31374SOL    HW296020   3.317  12.821  11.675
31375SOL     OW96021  14.250   9.161   3.391
31375SOL    HW196022  14.155   9.150   3.391
31375SOL    HW296023  14.280   9.106   3.464
31376SOL     OW96024   1.266   3.154   3.698
31376SOL    HW196025   1.246   3.061   3.694
31376SOL    HW296026   1.354   3.162   3.663
31377SOL     OW96027   7.827  12.643   6.751
31377SOL    HW196028   7.742  12.687   6.755
31377SOL    HW296029   7.819  12.570   6.812
31378SOL     OW96030   4.398   6.787   4.848
31378SOL    HW196031   4.338   6.807   4.776
31378SOL    HW296032   4.485   6.806   4.813
31379SOL     OW96033  14.364   4.373  11.166
31379SOL    HW196034  14.335   4.333  11.248
31379SOL    HW296035  14.452   4.406  11.184
31380SOL     OW96036   4.516   8.865   7.660
31380SOL    HW196037   4.563   8.886   7.580
31380SOL    HW296038   4.531   8.772   7.673
31381SOL     OW96039  13.179   7.609   0.275
31381SOL    HW196040  13.130   7.598   0.193
31381SOL    HW296041  13.174   7.523   0.317
31382SOL     OW96042   7.718   7.776   2.351
31382SOL    HW196043   7.628   7.805   2.365
31382SOL    HW296044   7.757   7.776   2.438
31383SOL     OW96045  11.621  13.935   3.763
31383SOL    HW196046  11.663  13.922   3.677
31383SOL    HW296047  11.542  13.882   3.759
31384SOL     OW96048  11.819  12.973   4.761
31384SOL    HW196049  11.877  13.045   4.785
31384SOL    HW296050  11.736  12.994   4.804
31385SOL     OW96051  14.782  14.182   6.026
31385SOL    HW196052  14.873  14.169   6.001
31385SOL    HW296053  14.752  14.255   5.971
31386SOL     OW96054   2.346   8.653   7.880
31386SOL    HW196055   2.405   8.630   7.952
31386SOL    HW296056   2.400   8.707   7.822
31387SOL     OW96057  14.578  14.353  14.145
31387SOL    HW196058  14.613  14.368  14.057
31387SOL    HW296059  14.656  14.350  14.201
31388SOL     OW96060   5.314   3.395   9.431
31388SOL    HW196061   5.289   3.410   9.340
31388SOL    HW296062   5.309   3.299   9.441
31389SOL     OW96063   7.779   5.114   7.004
31389SOL    HW196064   7.736   5.199   7.014
31389SOL    HW296065   7.722   5.064   6.946
31390SOL     OW96066   8.733   3.574  11.824
31390SOL    HW196067   8.745   3.555  11.917
31390SOL    HW296068   8.664   3.641  11.822
31391SOL     OW96069   0.155  14.027  13.681
31391SOL    HW196070   0.128  14.050  13.592
31391SOL    HW296071   0.126  13.936  13.692
31392SOL     OW96072   4.709  11.870  13.731
31392SOL    HW196073   4.796  11.845  13.701
31392SOL    HW296074   4.713  11.966  13.739
31393SOL     OW96075  10.599   4.556   1.414
31393SOL    HW196076  10.593   4.633   1.357
31393SOL    HW296077  10.645   4.589   1.492
31394SOL     OW96078   2.924   9.575  12.067
31394SOL    HW196079   2.852   9.607  12.012
31394SOL    HW296080   2.882   9.554  12.150
31395SOL     OW96081  12.848  12.470   7.618
31395SOL    HW196082  12.763  12.515   7.616
31395SOL    HW296083  12.901  12.515   7.552
31396SOL     OW96084   3.577   6.624   5.966
31396SOL    HW196085   3.502   6.614   5.908
31396SOL    HW296086   3.589   6.719   5.974
31397SOL     OW96087  10.264   6.983   0.761
31397SOL    HW196088  10.281   7.003   0.669
31397SOL    HW296089  10.209   6.905   0.760
31398SOL     OW96090  14.378  12.170   8.366
31398SOL    HW196091  14.357  12.088   8.411
31398SOL    HW296092  14.324  12.236   8.410
31399SOL     OW96093   9.180  10.885  13.392
31399SOL    HW196094   9.259  10.831  13.394
31399SOL    HW296095   9.190  10.943  13.467
31400SOL     OW96096   6.173   9.025   8.340
31400SOL    HW196097   6.254   9.067   8.369
31400SOL    HW296098   6.108   9.052   8.404
31401SOL     OW96099   7.651  10.732   0.814
31401SOL    HW196100   7.746  10.724   0.821
31401SOL    HW296101   7.617  10.644   0.832
31402SOL     OW96102   3.757  10.853   3.435
31402SOL    HW196103   3.781  10.802   3.513
31402SOL    HW296104   3.840  10.870   3.391
31403SOL     OW96105  11.101   8.122   8.013
31403SOL    HW196106  11.008   8.106   7.992
31403SOL    HW296107  11.144   8.125   7.927
31404SOL     OW96108   8.777   1.479  14.632
31404SOL    HW196109   8.800   1.393  14.597
31404SOL    HW296110   8.837   1.539  14.587
31405SOL     OW96111   4.135  10.656   2.849
31405SOL    HW196112   4.087  10.574   2.844
31405SOL    HW296113   4.074  10.722   2.816
31406SOL     OW96114   2.505  12.465   3.569
31406SOL    HW196115   2.530  12.412   3.494
31406SOL    HW296116   2.547  12.422   3.644
31407SOL     OW96117   9.669   7.156  13.301
31407SOL    HW196118   9.726   7.222  13.341
31407SOL    HW296119   9.631   7.201  13.225
31408SOL     OW96120  10.857   1.798  11.223
31408SOL    HW196121  10.944   1.834  11.206
31408SOL    HW296122  10.871   1.732  11.291
31409SOL     OW96123   1.441   3.952  10.630
31409SOL    HW196124   1.431   4.043  10.658
31409SOL    HW296125   1.524   3.924  10.669
31410SOL     OW96126   9.456   6.143   8.426
31410SOL    HW196127   9.485   6.109   8.341
31410SOL    HW296128   9.368   6.176   8.409
31411SOL     OW96129   2.068  10.006   7.290
31411SOL    HW196130   2.114   9.942   7.235
31411SOL    HW296131   2.133  10.073   7.308
31412SOL     OW96132   9.823   4.630   2.115
31412SOL    HW196133   9.823   4.539   2.144
31412SOL    HW296134   9.800   4.625   2.022
31413SOL     OW96135  13.670  10.389   9.158
31413SOL    HW196136  13.764  10.407   9.160
31413SOL    HW296137  13.663  10.298   9.127
31414SOL     OW96138   0.945   1.154   6.401
31414SOL    HW196139   0.952   1.190   6.489
31414SOL    HW296140   0.938   1.231   6.344
31415SOL     OW96141   3.064   2.970   4.279
31415SOL    HW196142   3.022   2.910   4.340
31415SOL    HW296143   3.158   2.956   4.291
31416SOL     OW96144   9.184  11.882   1.121
31416SOL    HW196145   9.175  11.787   1.121
31416SOL    HW296146   9.266  11.899   1.076
31417SOL     OW96147  10.341  12.896   9.210
31417SOL    HW196148  10.267  12.907   9.150
31417SOL    HW296149  10.394  12.827   9.170
31418SOL     OW96150   5.501   6.568   7.802
31418SOL    HW196151   5.418   6.590   7.843
31418SOL    HW296152   5.477   6.511   7.729
31419SOL     OW96153  10.940  13.183   9.565
31419SOL    HW196154  10.960  13.250   9.631
31419SOL    HW296155  10.849  13.201   9.541
31420SOL     OW96156   9.824   2.891   4.396
31420SOL    HW196157   9.852   2.955   4.331
31420SOL    HW296158   9.808   2.811   4.346
31421SOL     OW96159  11.696   5.991  11.203
31421SOL    HW196160  11.638   5.945  11.142
31421SOL    HW296161  11.702   6.080  11.169
31422SOL     OW96162   8.083   7.314  10.220
31422SOL    HW196163   8.004   7.341  10.267
31422SOL    HW296164   8.051   7.279  10.137
31423SOL     OW96165   3.798   0.682   9.346
31423SOL    HW196166   3.828   0.642   9.427
31423SOL    HW296167   3.784   0.609   9.286
31424SOL     OW96168   1.625   6.497  11.068
31424SOL    HW196169   1.557   6.448  11.113
31424SOL    HW296170   1.601   6.491  10.975
31425SOL     OW96171   3.585  12.430   3.190
31425SOL    HW196172   3.668  12.438   3.238
31425SOL    HW296173   3.589  12.343   3.150
31426SOL     OW96174   4.555   8.926   9.581
31426SOL    HW196175   4.547   8.834   9.606
31426SOL    HW296176   4.632   8.929   9.524
31427SOL     OW96177  13.717   1.947   2.348
31427SOL    HW196178  13.763   1.903   2.420
31427SOL    HW296179  13.624   1.933   2.368
31428SOL     OW96180   3.675   8.652  14.788
31428SOL    HW196181   3.707   8.739  14.812
31428SOL    HW296182   3.652   8.611  14.872
31429SOL     OW96183   6.634   3.438   1.506
31429SOL    HW196184   6.699   3.447   1.576
31429SOL    HW296185   6.563   3.387   1.545
31430SOL     OW96186   7.284   0.309   1.133
31430SOL    HW196187   7.329   0.226   1.118
31430SOL    HW296188   7.312   0.365   1.061
31431SOL     OW96189   0.767  13.920   7.892
31431SOL    HW196190   0.836  13.874   7.844
31431SOL    HW296191   0.707  13.951   7.825
31432SOL     OW96192   3.360   6.207  12.743
31432SOL    HW196193   3.275   6.246  12.762
31432SOL    HW296194   3.422   6.280  12.752
31433SOL     OW96195   5.247   5.003   8.350
31433SOL    HW196196   5.152   4.988   8.354
31433SOL    HW296197   5.270   5.034   8.437
31434SOL     OW96198   7.386   3.599   5.625
31434SOL    HW196199   7.477   3.572   5.615
31434SOL    HW296200   7.391   3.694   5.641
31435SOL     OW96201  13.318   9.400   4.780
31435SOL    HW196202  13.373   9.399   4.858
31435SOL    HW296203  13.245   9.342   4.801
31436SOL     OW96204  11.074   4.375  14.342
31436SOL    HW196205  11.149   4.358  14.398
31436SOL    HW296206  11.112   4.403  14.258
31437SOL     OW96207   4.716  11.764  11.503
31437SOL    HW196208   4.620  11.770  11.507
31437SOL    HW296209   4.743  11.838  11.450
31438SOL     OW96210   4.271  12.772   2.452
31438SOL    HW196211   4.252  12.686   2.414
31438SOL    HW296212   4.315  12.820   2.381
31439SOL     OW96213   8.534   3.397  10.049
31439SOL    HW196214   8.520   3.357  10.135
31439SOL    HW296215   8.628   3.388  10.034
31440SOL     OW96216  10.253   0.732   7.813
31440SOL    HW196217  10.162   0.709   7.833
31440SOL    HW296218  10.289   0.760   7.897
31441SOL     OW96219  10.754   7.306  13.632
31441SOL    HW196220  10.687   7.329  13.568
31441SOL    HW296221  10.779   7.216  13.611
31442SOL     OW96222  14.216   9.450   5.049
31442SOL    HW196223  14.157   9.461   5.124
31442SOL    HW296224  14.157   9.434   4.975
31443SOL     OW96225   6.312   3.098  14.107
31443SOL    HW196226   6.329   3.103  14.201
31443SOL    HW296227   6.337   3.010  14.082
31444SOL     OW96228   2.822   6.535   2.399
31444SOL    HW196229   2.901   6.588   2.410
31444SOL    HW296230   2.825   6.473   2.473
31445SOL     OW96231   8.763  10.350  10.750
31445SOL    HW196232   8.805  10.348  10.837
31445SOL    HW296233   8.680  10.305  10.763
31446SOL     OW96234   3.198   3.223  10.823
31446SOL    HW196235   3.136   3.268  10.766
31446SOL    HW296236   3.205   3.135  10.786
31447SOL     OW96237   5.417   0.555   2.765
31447SOL    HW196238   5.469   0.523   2.691
31447SOL    HW296239   5.431   0.491   2.834
31448SOL     OW96240   6.142   3.703   5.217
31448SOL    HW196241   6.223   3.652   5.228
31448SOL    HW296242   6.087   3.649   5.160
31449SOL     OW96243   3.716   4.986   8.738
31449SOL    HW196244   3.713   4.911   8.797
31449SOL    HW296245   3.789   4.966   8.679
31450SOL     OW96246   9.327   4.956   8.900
31450SOL    HW196247   9.358   4.873   8.939
31450SOL    HW296248   9.385   5.022   8.937
31451SOL     OW96249   7.123   8.480   4.369
31451SOL    HW196250   7.047   8.508   4.318
31451SOL    HW296251   7.090   8.468   4.458
31452SOL     OW96252   0.970  13.168   6.083
31452SOL    HW196253   1.038  13.136   6.024
31452SOL    HW296254   0.969  13.105   6.156
31453SOL     OW96255   8.378  12.806  12.204
31453SOL    HW196256   8.292  12.847  12.197
31453SOL    HW296257   8.440  12.879  12.199
31454SOL     OW96258   9.053  12.879  14.537
31454SOL    HW196259   9.129  12.828  14.511
31454SOL    HW296260   9.070  12.901  14.628
31455SOL     OW96261  11.957   6.369   7.982
31455SOL    HW196262  11.980   6.338   8.070
31455SOL    HW296263  12.030   6.340   7.927
31456SOL     OW96264  11.742   6.838   7.464
31456SOL    HW196265  11.704   6.775   7.526
31456SOL    HW296266  11.668   6.893   7.439
31457SOL     OW96267   1.422   9.646   7.848
31457SOL    HW196268   1.479   9.720   7.865
31457SOL    HW296269   1.473   9.569   7.873
31458SOL     OW96270   6.432  14.166  10.695
31458SOL    HW196271   6.400  14.168  10.785
31458SOL    HW296272   6.515  14.117  10.700
31459SOL     OW96273   0.806  14.556   4.656
31459SOL    HW196274   0.814  14.461   4.663
31459SOL    HW296275   0.800  14.572   4.562
31460SOL     OW96276  11.204   5.356  10.798
31460SOL    HW196277  11.124   5.311  10.770
31460SOL    HW296278  11.266   5.342  10.726
31461SOL     OW96279   4.615  14.179  14.687
31461SOL    HW196280   4.551  14.122  14.644
31461SOL    HW296281   4.613  14.152  14.779
31462SOL     OW96282  10.328   6.295  14.034
31462SOL    HW196283  10.290   6.382  14.046
31462SOL    HW296284  10.262   6.247  13.983
31463SOL     OW96285  12.246   0.208  12.120
31463SOL    HW196286  12.253   0.113  12.114
31463SOL    HW296287  12.257   0.228  12.213
31464SOL     OW96288  13.493   3.937   6.252
31464SOL    HW196289  13.420   3.949   6.192
31464SOL    HW296290  13.546   4.016   6.243
31465SOL     OW96291   9.938   1.001   6.115
31465SOL    HW196292   9.894   1.055   6.049
31465SOL    HW296293  10.024   1.042   6.126
31466SOL     OW96294   0.345   8.131   9.552
31466SOL    HW196295   0.256   8.106   9.579
31466SOL    HW296296   0.391   8.149   9.634
31467SOL     OW96297  13.527   6.027  14.582
31467SOL    HW196298  13.529   6.089  14.654
31467SOL    HW296299  13.618   6.001  14.569
31468SOL     OW96300   5.178  12.690  10.105
31468SOL    HW196301   5.272  12.701  10.095
31468SOL    HW296302   5.161  12.717  10.196
31469SOL     OW96303   6.865  14.833   2.396
31469SOL    HW196304   6.943  14.865   2.350
31469SOL    HW296305   6.886  14.842   2.489
31470SOL     OW96306   6.034  12.921  13.526
31470SOL    HW196307   6.108  12.982  13.527
31470SOL    HW296308   6.024  12.896  13.435
31471SOL     OW96309  14.299   5.199   6.777
31471SOL    HW196310  14.355   5.204   6.855
31471SOL    HW296311  14.329   5.120   6.732
31472SOL     OW96312   2.859  14.093   3.763
31472SOL    HW196313   2.813  14.080   3.681
31472SOL    HW296314   2.827  14.177   3.796
31473SOL     OW96315   9.662   5.860   5.000
31473SOL    HW196316   9.676   5.775   4.959
31473SOL    HW296317   9.567   5.869   5.005
31474SOL     OW96318  12.388  12.562   2.525
31474SOL    HW196319  12.412  12.508   2.601
31474SOL    HW296320  12.308  12.521   2.491
31475SOL     OW96321   9.520   2.718   0.507
31475SOL    HW196322   9.454   2.711   0.438
31475SOL    HW296323   9.495   2.796   0.556
31476SOL     OW96324   8.708   3.281   6.450
31476SOL    HW196325   8.769   3.212   6.478
31476SOL    HW296326   8.634   3.273   6.509
31477SOL     OW96327  10.259   0.042  10.774
31477SOL    HW196328  10.247   0.084  10.689
31477SOL    HW296329  10.186   0.074  10.827
31478SOL     OW96330   6.505   2.232  14.469
31478SOL    HW196331   6.429   2.276  14.430
31478SOL    HW296332   6.492   2.139  14.446
31479SOL     OW96333   2.084   8.980   5.634
31479SOL    HW196334   2.011   8.920   5.650
31479SOL    HW296335   2.061   9.059   5.683
31480SOL     OW96336   7.626   2.876  14.309
31480SOL    HW196337   7.607   2.959  14.354
31480SOL    HW296338   7.605   2.809  14.374
31481SOL     OW96339   6.876  14.148  10.986
31481SOL    HW196340   6.969  14.152  10.964
31481SOL    HW296341   6.863  14.059  11.019
31482SOL     OW96342   5.548   4.852  13.775
31482SOL    HW196343   5.482   4.849  13.706
31482SOL    HW296344   5.566   4.945  13.788
31483SOL     OW96345   8.375   1.022   1.891
31483SOL    HW196346   8.394   0.966   1.815
31483SOL    HW296347   8.412   1.107   1.867
31484SOL     OW96348  14.118   1.882   7.186
31484SOL    HW196349  14.143   1.971   7.210
31484SOL    HW296350  14.048   1.892   7.122
31485SOL     OW96351   2.286  14.636   9.511
31485SOL    HW196352   2.360  14.667   9.563
31485SOL    HW296353   2.264  14.710   9.454
31486SOL     OW96354   8.623   3.662   7.050
31486SOL    HW196355   8.668   3.665   7.135
31486SOL    HW296356   8.646   3.576   7.015
31487SOL     OW96357   9.021   6.660  11.869
31487SOL    HW196358   8.996   6.751  11.851
31487SOL    HW296359   8.991   6.611  11.792
31488SOL     OW96360   4.940   9.953   7.548
31488SOL    HW196361   4.868   9.893   7.530
31488SOL    HW296362   5.016   9.914   7.504
31489SOL     OW96363   7.698   0.229  14.088
31489SOL    HW196364   7.764   0.163  14.108
31489SOL    HW296365   7.747   0.305  14.058
31490SOL     OW96366  12.801  10.902  10.897
31490SOL    HW196367  12.746  10.981  10.899
31490SOL    HW296368  12.788  10.866  10.810
31491SOL     OW96369   6.836  13.103   4.856
31491SOL    HW196370   6.852  13.064   4.770
31491SOL    HW296371   6.920  13.096   4.902
31492SOL     OW96372  14.864   0.572   2.464
31492SOL    HW196373   0.058   0.620   2.431
31492SOL    HW296374  14.790   0.629   2.444
31493SOL     OW96375   1.438   6.639  14.670
31493SOL    HW196376   1.372   6.631  14.739
31493SOL    HW296377   1.462   6.548  14.650
31494SOL     OW96378   0.901  12.894   7.187
31494SOL    HW196379   0.958  12.927   7.257
31494SOL    HW296380   0.871  12.973   7.141
31495SOL     OW96381  13.426   1.361   8.488
31495SOL    HW196382  13.440   1.433   8.549
31495SOL    HW296383  13.496   1.369   8.424
31496SOL     OW96384   7.226   3.889   4.712
31496SOL    HW196385   7.154   3.952   4.700
31496SOL    HW296386   7.305   3.940   4.698
31497SOL     OW96387  10.856  13.937   4.131
31497SOL    HW196388  10.840  14.029   4.150
31497SOL    HW296389  10.923  13.910   4.194
31498SOL     OW96390   1.546  10.443   2.074
31498SOL    HW196391   1.558  10.537   2.086
31498SOL    HW296392   1.530  10.409   2.162
31499SOL     OW96393  13.044   2.434  11.038
31499SOL    HW196394  13.097   2.497  10.988
31499SOL    HW296395  12.970   2.485  11.070
31500SOL     OW96396  12.426   6.457   2.498
31500SOL    HW196397  12.507   6.413   2.471
31500SOL    HW296398  12.384   6.395   2.558
31501SOL     OW96399   8.383  13.921   8.430
31501SOL    HW196400   8.449  13.986   8.405
31501SOL    HW296401   8.316  13.972   8.477
31502SOL     OW96402  11.655  12.202   3.457
31502SOL    HW196403  11.574  12.210   3.407
31502SOL    HW296404  11.658  12.281   3.511
31503SOL     OW96405  12.002   5.112   8.972
31503SOL    HW196406  11.907   5.123   8.977
31503SOL    HW296407  12.036   5.199   8.951
31504SOL     OW96408   0.886  12.763   2.767
31504SOL    HW196409   0.836  12.845   2.767
31504SOL    HW296410   0.976  12.791   2.746
31505SOL     OW96411   4.453   6.097   0.248
31505SOL    HW196412   4.489   6.185   0.260
31505SOL    HW296413   4.526   6.039   0.270
31506SOL     OW96414   4.576   1.555   0.232
31506SOL    HW196415   4.595   1.515   0.147
31506SOL    HW296416   4.551   1.482   0.288
31507SOL     OW96417   4.801   5.349   5.079
31507SOL    HW196418   4.713   5.365   5.112
31507SOL    HW296419   4.854   5.420   5.117
31508SOL     OW96420   4.063   0.729   4.952
31508SOL    HW196421   4.071   0.671   4.876
31508SOL    HW296422   4.057   0.670   5.027
31509SOL     OW96423   7.303   6.517  14.483
31509SOL    HW196424   7.316   6.525  14.578
31509SOL    HW296425   7.231   6.577  14.464
31510SOL     OW96426   4.288   7.342   9.687
31510SOL    HW196427   4.366   7.303   9.647
31510SOL    HW296428   4.294   7.317   9.780
31511SOL     OW96429  11.975   7.059  14.475
31511SOL    HW196430  12.011   7.021  14.555
31511SOL    HW296431  12.052   7.094  14.429
31512SOL     OW96432  11.879   8.317  11.489
31512SOL    HW196433  11.901   8.401  11.529
31512SOL    HW296434  11.964   8.279  11.464
31513SOL     OW96435   6.000  11.805   4.303
31513SOL    HW196436   6.010  11.846   4.389
31513SOL    HW296437   6.069  11.738   4.300
31514SOL     OW96438   0.631  11.597   3.986
31514SOL    HW196439   0.684  11.600   4.065
31514SOL    HW296440   0.694  11.605   3.914
31515SOL     OW96441   3.262   6.749   2.705
31515SOL    HW196442   3.329   6.699   2.751
31515SOL    HW296443   3.242   6.822   2.764
31516SOL     OW96444  10.098  14.594   6.479
31516SOL    HW196445  10.143  14.537   6.417
31516SOL    HW296446  10.152  14.590   6.558
31517SOL     OW96447  10.259   6.426   0.874
31517SOL    HW196448  10.197   6.494   0.847
31517SOL    HW296449  10.334   6.474   0.908
31518SOL     OW96450   9.299  13.401   3.465
31518SOL    HW196451   9.325  13.438   3.381
31518SOL    HW296452   9.261  13.474   3.513
31519SOL     OW96453   3.997   2.020  12.804
31519SOL    HW196454   4.064   2.047  12.867
31519SOL    HW296455   4.015   2.073  12.726
31520SOL     OW96456   7.993   0.144   8.907
31520SOL    HW196457   8.048   0.084   8.856
31520SOL    HW296458   8.023   0.231   8.882
31521SOL     OW96459  11.316   0.007   0.928
31521SOL    HW196460  11.265  14.861   1.004
31521SOL    HW296461  11.376   0.074   0.963
31522SOL     OW96462   6.212   0.835  13.395
31522SOL    HW196463   6.186   0.901  13.458
31522SOL    HW296464   6.210   0.753  13.444
31523SOL     OW96465  11.977   3.376   8.553
31523SOL    HW196466  11.897   3.341   8.594
31523SOL    HW296467  11.944   3.435   8.485
31524SOL     OW96468   7.640   5.109   8.171
31524SOL    HW196469   7.587   5.097   8.093
31524SOL    HW296470   7.689   5.189   8.155
31525SOL     OW96471   0.664   6.065   6.029
31525SOL    HW196472   0.664   6.104   6.116
31525SOL    HW296473   0.600   6.116   5.979
31526SOL     OW96474   8.186   8.676   8.818
31526SOL    HW196475   8.253   8.661   8.751
31526SOL    HW296476   8.236   8.703   8.896
31527SOL     OW96477   3.915   9.384   9.134
31527SOL    HW196478   3.862   9.464   9.126
31527SOL    HW296479   4.002   9.416   9.158
31528SOL     OW96480  13.191  14.317   9.868
31528SOL    HW196481  13.170  14.351   9.780
31528SOL    HW296482  13.106  14.309   9.911
31529SOL     OW96483  10.005   2.913   7.021
31529SOL    HW196484  10.089   2.949   6.992
31529SOL    HW296485   9.945   2.988   7.022
31530SOL     OW96486  10.906   2.348   5.894
31530SOL    HW196487  10.935   2.259   5.912
31530SOL    HW296488  10.984   2.392   5.859
31531SOL     OW96489   3.691   7.859   7.795
31531SOL    HW196490   3.732   7.921   7.735
31531SOL    HW296491   3.654   7.792   7.739
31532SOL     OW96492   1.666   7.128   9.240
31532SOL    HW196493   1.576   7.116   9.210
31532SOL    HW296494   1.698   7.040   9.258
31533SOL     OW96495  12.627   1.918   6.769
31533SOL    HW196496  12.628   2.004   6.727
31533SOL    HW296497  12.703   1.918   6.827
31534SOL     OW96498   1.853  11.344  12.608
31534SOL    HW196499   1.875  11.353  12.515
31534SOL    HW296500   1.826  11.253  12.617
31535SOL     OW96501   9.942   6.901  12.552
31535SOL    HW196502   9.962   6.907  12.458
31535SOL    HW296503  10.024   6.925  12.595
31536SOL     OW96504  13.211   7.619   3.763
31536SOL    HW196505  13.213   7.590   3.671
31536SOL    HW296506  13.265   7.698   3.763
31537SOL     OW96507   8.765  14.161   5.816
31537SOL    HW196508   8.793  14.163   5.724
31537SOL    HW296509   8.674  14.131   5.811
31538SOL     OW96510   2.168   5.722   1.678
31538SOL    HW196511   2.146   5.683   1.763
31538SOL    HW296512   2.166   5.816   1.694
31539SOL     OW96513   8.672  13.146   4.568
31539SOL    HW196514   8.672  13.142   4.664
31539SOL    HW296515   8.632  13.231   4.548
31540SOL     OW96516   6.927   8.786   6.678
31540SOL    HW196517   6.924   8.870   6.724
31540SOL    HW296518   7.014   8.784   6.638
31541SOL     OW96519   4.082   2.773   5.777
31541SOL    HW196520   4.010   2.774   5.714
31541SOL    HW296521   4.044   2.735   5.856
31542SOL     OW96522  12.485   8.662  11.664
31542SOL    HW196523  12.423   8.735  11.653
31542SOL    HW296524  12.433   8.584  11.643
31543SOL     OW96525  14.277   6.138   7.465
31543SOL    HW196526  14.327   6.217   7.487
31543SOL    HW296527  14.210   6.134   7.534
31544SOL     OW96528   6.540  10.510   0.983
31544SOL    HW196529   6.621  10.524   1.033
31544SOL    HW296530   6.479  10.474   1.048
31545SOL     OW96531   0.538   6.483  11.419
31545SOL    HW196532   0.474   6.470  11.350
31545SOL    HW296533   0.532   6.405  11.474
31546SOL     OW96534  11.398   8.729   6.380
31546SOL    HW196535  11.431   8.815   6.355
31546SOL    HW296536  11.313   8.722   6.337
31547SOL     OW96537   8.089  14.282   0.517
31547SOL    HW196538   7.994  14.277   0.512
31547SOL    HW296539   8.112  14.362   0.470
31548SOL     OW96540   2.216  12.682   9.363
31548SOL    HW196541   2.166  12.679   9.445
31548SOL    HW296542   2.239  12.774   9.352
31549SOL     OW96543   5.736   7.085   2.203
31549SOL    HW196544   5.698   7.069   2.289
31549SOL    HW296545   5.828   7.060   2.213
31550SOL     OW96546   0.215   4.300   1.301
31550SOL    HW196547   0.285   4.343   1.252
31550SOL    HW296548   0.199   4.358   1.376
31551SOL     OW96549  11.657   6.221  11.894
31551SOL    HW196550  11.591   6.216  11.825
31551SOL    HW296551  11.684   6.313  11.894
31552SOL     OW96552   6.383   4.877  12.672
31552SOL    HW196553   6.323   4.857  12.743
31552SOL    HW296554   6.407   4.792  12.635
31553SOL     OW96555   7.674   8.029   1.966
31553SOL    HW196556   7.713   8.071   2.043
31553SOL    HW296557   7.581   8.021   1.988
31554SOL     OW96558   0.080   6.387   5.724
31554SOL    HW196559   0.015   6.373   5.655
31554SOL    HW296560   0.163   6.361   5.684
31555SOL     OW96561   9.419  10.344  10.080
31555SOL    HW196562   9.496  10.293  10.054
31555SOL    HW296563   9.455  10.421  10.124
31556SOL     OW96564   5.220   1.388   8.880
31556SOL    HW196565   5.146   1.441   8.911
31556SOL    HW296566   5.296   1.446   8.890
31557SOL     OW96567  10.059   2.403  12.347
31557SOL    HW196568  10.088   2.468  12.412
31557SOL    HW296569   9.965   2.419  12.337
31558SOL     OW96570   9.498   6.734   7.477
31558SOL    HW196571   9.409   6.747   7.445
31558SOL    HW296572   9.544   6.693   7.404
31559SOL     OW96573   2.696   3.408  12.232
31559SOL    HW196574   2.652   3.466  12.294
31559SOL    HW296575   2.626   3.370  12.180
31560SOL     OW96576   6.991  13.293   5.136
31560SOL    HW196577   7.029  13.239   5.066
31560SOL    HW296578   6.981  13.233   5.210
31561SOL     OW96579  14.131   7.739   4.337
31561SOL    HW196580  14.114   7.753   4.430
31561SOL    HW296581  14.044   7.740   4.297
31562SOL     OW96582   8.389  14.062  11.239
31562SOL    HW196583   8.304  14.106  11.233
31562SOL    HW296584   8.403  14.024  11.153
31563SOL     OW96585  12.515  14.027  11.328
31563SOL    HW196586  12.455  13.959  11.358
31563SOL    HW296587  12.552  14.064  11.408
31564SOL     OW96588   3.315   8.517  13.328
31564SOL    HW196589   3.258   8.454  13.373
31564SOL    HW296590   3.279   8.602  13.351
31565SOL     OW96591   8.877  12.177   3.730
31565SOL    HW196592   8.850  12.085   3.738
31565SOL    HW296593   8.908  12.201   3.817
31566SOL     OW96594   3.015  10.917   8.952
31566SOL    HW196595   3.087  10.855   8.938
31566SOL    HW296596   2.936  10.865   8.938
31567SOL     OW96597   8.157   9.915  10.740
31567SOL    HW196598   8.110   9.972  10.679
31567SOL    HW296599   8.216   9.973  10.788
31568SOL     OW96600  11.202  13.242   3.102
31568SOL    HW196601  11.116  13.242   3.144
31568SOL    HW296602  11.188  13.286   3.018
31569SOL     OW96603   3.154   4.402   2.504
31569SOL    HW196604   3.157   4.396   2.409
31569SOL    HW296605   3.079   4.458   2.522
31570SOL     OW96606   8.744  14.772   9.523
31570SOL    HW196607   8.679  14.776   9.452
31570SOL    HW296608   8.714  14.837   9.586
31571SOL     OW96609   1.162   9.982  11.417
31571SOL    HW196610   1.181   9.933  11.497
31571SOL    HW296611   1.248  10.013  11.387
31572SOL     OW96612   1.462   7.200  11.551
31572SOL    HW196613   1.433   7.188  11.641
31572SOL    HW296614   1.460   7.295  11.538
31573SOL     OW96615   0.925   6.593  14.851
31573SOL    HW196616   0.936   6.541  14.771
31573SOL    HW296617   0.867   6.665  14.825
31574SOL     OW96618   3.775   1.804   6.092
31574SOL    HW196619   3.686   1.835   6.078
31574SOL    HW296620   3.804   1.846   6.173
31575SOL     OW96621   4.251   2.950   5.397
31575SOL    HW196622   4.182   2.947   5.462
31575SOL    HW296623   4.332   2.937   5.447
31576SOL     OW96624   3.437   9.786   8.148
31576SOL    HW196625   3.503   9.826   8.092
31576SOL    HW296626   3.486   9.731   8.208
31577SOL     OW96627  12.602   0.816   0.304
31577SOL    HW196628  12.606   0.810   0.400
31577SOL    HW296629  12.625   0.729   0.273
31578SOL     OW96630  10.230   0.294   7.336
31578SOL    HW196631  10.229   0.353   7.412
31578SOL    HW296632  10.137   0.284   7.313
31579SOL     OW96633   7.750   8.017  11.198
31579SOL    HW196634   7.666   7.971  11.204
31579SOL    HW296635   7.729   8.100  11.157
31580SOL     OW96636  14.442   5.245  14.313
31580SOL    HW196637  14.423   5.160  14.352
31580SOL    HW296638  14.515   5.229  14.254
31581SOL     OW96639  12.613   5.752  12.504
31581SOL    HW196640  12.672   5.716  12.437
31581SOL    HW296641  12.527   5.754  12.461
31582SOL     OW96642  12.920   6.075   5.876
31582SOL    HW196643  12.938   6.099   5.967
31582SOL    HW296644  12.981   6.004   5.857
31583SOL     OW96645   5.814   2.493   2.736
31583SOL    HW196646   5.886   2.554   2.745
31583SOL    HW296647   5.738   2.548   2.717
31584SOL     OW96648   2.660   4.797  11.708
31584SOL    HW196649   2.681   4.757  11.793
31584SOL    HW296650   2.713   4.748  11.645
31585SOL     OW96651   5.349   6.400   8.505
31585SOL    HW196652   5.397   6.472   8.464
31585SOL    HW296653   5.258   6.415   8.481
31586SOL     OW96654   5.885  12.271   8.222
31586SOL    HW196655   5.836  12.218   8.285
31586SOL    HW296656   5.886  12.217   8.142
31587SOL     OW96657  11.283   5.952   1.758
31587SOL    HW196658  11.274   5.869   1.805
31587SOL    HW296659  11.194   5.980   1.741
31588SOL     OW96660   7.314   7.414   3.327
31588SOL    HW196661   7.363   7.340   3.362
31588SOL    HW296662   7.248   7.432   3.395
31589SOL     OW96663   2.942   3.804   6.953
31589SOL    HW196664   3.002   3.875   6.930
31589SOL    HW296665   2.856   3.836   6.929
31590SOL     OW96666   8.823  11.428  13.467
31590SOL    HW196667   8.746  11.398  13.417
31590SOL    HW296668   8.874  11.478  13.404
31591SOL     OW96669   5.809  11.280   1.535
31591SOL    HW196670   5.727  11.234   1.554
31591SOL    HW296671   5.859  11.218   1.482
31592SOL     OW96672   5.677  14.510   3.231
31592SOL    HW196673   5.642  14.504   3.320
31592SOL    HW296674   5.724  14.593   3.230
31593SOL     OW96675   7.465  11.888   3.714
31593SOL    HW196676   7.517  11.838   3.652
31593SOL    HW296677   7.515  11.968   3.729
31594SOL     OW96678   3.303  10.149  11.717
31594SOL    HW196679   3.346  10.226  11.679
31594SOL    HW296680   3.356  10.127  11.793
31595SOL     OW96681  13.795   1.481   8.555
31595SOL    HW196682  13.727   1.413   8.550
31595SOL    HW296683  13.877   1.432   8.554
31596SOL     OW96684   5.031  13.063   0.402
31596SOL    HW196685   5.084  13.076   0.323
31596SOL    HW296686   5.018  13.151   0.437
31597SOL     OW96687  12.584  12.383   3.721
31597SOL    HW196688  12.551  12.294   3.737
31597SOL    HW296689  12.508  12.439   3.734
31598SOL     OW96690   9.105  14.809  11.425
31598SOL    HW196691   9.065   0.012  11.412
31598SOL    HW296692   9.091  14.790  11.518
31599SOL     OW96693   1.870  11.166   1.098
31599SOL    HW196694   1.956  11.138   1.129
31599SOL    HW296695   1.812  11.154   1.174
31600SOL     OW96696  10.907   7.421  10.551
31600SOL    HW196697  10.883   7.477  10.624
31600SOL    HW296698  10.976   7.469  10.505
31601SOL     OW96699  13.477  11.384   5.631
31601SOL    HW196700  13.412  11.448   5.602
31601SOL    HW296701  13.509  11.344   5.550
31602SOL     OW96702   2.330   6.166   3.180
31602SOL    HW196703   2.335   6.072   3.196
31602SOL    HW296704   2.351   6.175   3.087
31603SOL     OW96705   4.726   0.206  14.805
31603SOL    HW196706   4.763   0.118  14.813
31603SOL    HW296707   4.780   0.249  14.738
31604SOL     OW96708  11.223  10.661  10.082
31604SOL    HW196709  11.211  10.578  10.126
31604SOL    HW296710  11.246  10.637   9.992
31605SOL     OW96711   1.897   1.026   5.311
31605SOL    HW196712   1.857   1.083   5.245
31605SOL    HW296713   1.991   1.030   5.293
31606SOL     OW96714   2.373  13.832   6.326
31606SOL    HW196715   2.423  13.907   6.292
31606SOL    HW296716   2.298  13.824   6.267
31607SOL     OW96717   7.110  14.180   7.997
31607SOL    HW196718   7.098  14.180   7.902
31607SOL    HW296719   7.107  14.273   8.021
31608SOL     OW96720  11.558  14.152   5.071
31608SOL    HW196721  11.475  14.184   5.037
31608SOL    HW296722  11.617  14.228   5.066
31609SOL     OW96723  10.860   3.419   4.000
31609SOL    HW196724  10.805   3.484   4.043
31609SOL    HW296725  10.824   3.335   4.028
31610SOL     OW96726   4.310  13.340  14.066
31610SOL    HW196727   4.400  13.373  14.061
31610SOL    HW296728   4.274  13.358  13.979
31611SOL     OW96729   8.062   5.756  10.883
31611SOL    HW196730   8.042   5.849  10.874
31611SOL    HW296731   7.989   5.711  10.841
31612SOL     OW96732   2.473   2.874  13.568
31612SOL    HW196733   2.456   2.968  13.575
31612SOL    HW296734   2.441   2.850  13.482
31613SOL     OW96735   7.413  12.980   3.303
31613SOL    HW196736   7.365  12.932   3.235
31613SOL    HW296737   7.499  12.937   3.307
31614SOL     OW96738   8.029   3.371  12.190
31614SOL    HW196739   7.951   3.328  12.157
31614SOL    HW296740   8.091   3.300  12.206
31615SOL     OW96741  11.536   4.105   3.060
31615SOL    HW196742  11.627   4.102   3.030
31615SOL    HW296743  11.496   4.026   3.025
31616SOL     OW96744   9.874  12.075   0.273
31616SOL    HW196745   9.831  12.079   0.188
31616SOL    HW296746   9.935  12.002   0.266
31617SOL     OW96747   7.135   8.743   8.553
31617SOL    HW196748   7.138   8.829   8.511
31617SOL    HW296749   7.058   8.746   8.609
31618SOL     OW96750  12.906   8.168  11.860
31618SOL    HW196751  12.986   8.219  11.851
31618SOL    HW296752  12.933   8.078  11.844
31619SOL     OW96753   0.451   2.415  13.403
31619SOL    HW196754   0.383   2.357  13.369
31619SOL    HW296755   0.526   2.400  13.345
31620SOL     OW96756   6.317   5.357   2.125
31620SOL    HW196757   6.264   5.430   2.157
31620SOL    HW296758   6.359   5.391   2.046
31621SOL     OW96759   4.257  12.029   6.769
31621SOL    HW196760   4.318  12.100   6.753
31621SOL    HW296761   4.190  12.068   6.825
31622SOL     OW96762  10.816   6.712  10.721
31622SOL    HW196763  10.724   6.727  10.702
31622SOL    HW296764  10.863   6.755  10.650
31623SOL     OW96765   3.833  14.383  12.281
31623SOL    HW196766   3.860  14.407  12.369
31623SOL    HW296767   3.775  14.455  12.253
31624SOL     OW96768   6.218   6.136   6.542
31624SOL    HW196769   6.123   6.138   6.531
31624SOL    HW296770   6.231   6.084   6.621
31625SOL     OW96771  14.414  14.355   8.653
31625SOL    HW196772  14.435  14.287   8.718
31625SOL    HW296773  14.354  14.413   8.699
31626SOL     OW96774   8.629  10.067  14.731
31626SOL    HW196775   8.606   9.977  14.751
31626SOL    HW296776   8.661  10.103  14.814
31627SOL     OW96777   0.479  12.552   8.299
31627SOL    HW196778   0.435  12.475   8.335
31627SOL    HW296779   0.567  12.521   8.276
31628SOL     OW96780   5.741  12.347  13.757
31628SOL    HW196781   5.681  12.357  13.683
31628SOL    HW296782   5.773  12.436  13.774
31629SOL     OW96783   0.750  12.148   0.726
31629SOL    HW196784   0.754  12.062   0.685
31629SOL    HW296785   0.771  12.209   0.655
31630SOL     OW96786   7.914   1.674  13.362
31630SOL    HW196787   7.927   1.601  13.423
31630SOL    HW296788   7.913   1.752  13.417
31631SOL     OW96789  11.101   4.376   8.316
31631SOL    HW196790  11.152   4.374   8.235
31631SOL    HW296791  11.146   4.442   8.370
31632SOL     OW96792  12.187   0.564   6.141
31632SOL    HW196793  12.268   0.587   6.094
31632SOL    HW296794  12.210   0.574   6.233
31633SOL     OW96795   1.064  14.436   7.191
31633SOL    HW196796   1.092  14.521   7.226
31633SOL    HW296797   0.976  14.423   7.227
31634SOL     OW96798  10.359   9.902   9.126
31634SOL    HW196799  10.400   9.982   9.091
31634SOL    HW296800  10.287   9.934   9.179
31635SOL     OW96801   4.165   2.224  12.550
31635SOL    HW196802   4.091   2.279  12.577
31635SOL    HW296803   4.242   2.271  12.583
31636SOL     OW96804   4.252   7.287   4.320
31636SOL    HW196805   4.346   7.299   4.315
31636SOL    HW296806   4.219   7.370   4.355
31637SOL     OW96807  12.759  12.283   7.316
31637SOL    HW196808  12.752  12.246   7.405
31637SOL    HW296809  12.700  12.358   7.317
31638SOL     OW96810  10.628  12.046   3.280
31638SOL    HW196811  10.700  12.084   3.330
31638SOL    HW296812  10.643  11.952   3.285
31639SOL     OW96813   7.977   9.137   2.247
31639SOL    HW196814   8.058   9.187   2.238
31639SOL    HW296815   7.908   9.203   2.254
31640SOL     OW96816   9.701   4.880   3.974
31640SOL    HW196817   9.686   4.903   3.882
31640SOL    HW296818   9.615   4.853   4.007
31641SOL     OW96819   0.307   5.600   5.691
31641SOL    HW196820   0.270   5.522   5.730
31641SOL    HW296821   0.302   5.586   5.597
31642SOL     OW96822   3.265  11.427   7.866
31642SOL    HW196823   3.219  11.509   7.848
31642SOL    HW296824   3.353  11.454   7.893
31643SOL     OW96825  11.996   9.740   6.139
31643SOL    HW196826  12.024   9.777   6.223
31643SOL    HW296827  11.901   9.734   6.146
31644SOL     OW96828   1.724  11.177  10.290
31644SOL    HW196829   1.672  11.103  10.260
31644SOL    HW296830   1.776  11.141  10.363
31645SOL     OW96831   6.490  10.401   6.365
31645SOL    HW196832   6.423  10.408   6.297
31645SOL    HW296833   6.532  10.487   6.366
31646SOL     OW96834   7.188  14.303   4.596
31646SOL    HW196835   7.238  14.357   4.658
31646SOL    HW296836   7.231  14.218   4.598
31647SOL     OW96837   0.886   7.612   4.275
31647SOL    HW196838   0.819   7.562   4.229
31647SOL    HW296839   0.969   7.581   4.237
31648SOL     OW96840   4.948   0.087  10.404
31648SOL    HW196841   5.032   0.057  10.437
31648SOL    HW296842   4.939   0.043  10.319
31649SOL     OW96843   8.534   8.265   8.616
31649SOL    HW196844   8.583   8.231   8.540
31649SOL    HW296845   8.454   8.300   8.578
31650SOL     OW96846   6.724   6.902   3.341
31650SOL    HW196847   6.795   6.958   3.373
31650SOL    HW296848   6.646   6.937   3.383
31651SOL     OW96849   6.082  10.151  14.061
31651SOL    HW196850   6.030  10.199  13.997
31651SOL    HW296851   6.120  10.078  14.012
31652SOL     OW96852  10.948   9.881  10.718
31652SOL    HW196853  10.952   9.791  10.688
31652SOL    HW296854  10.903   9.928  10.648
31653SOL     OW96855   9.326   8.319  11.525
31653SOL    HW196856   9.377   8.240  11.543
31653SOL    HW296857   9.342   8.337  11.432
31654SOL     OW96858   8.402   3.619  10.661
31654SOL    HW196859   8.417   3.660  10.746
31654SOL    HW296860   8.312   3.643  10.639
31655SOL     OW96861   8.770   5.639   8.499
31655SOL    HW196862   8.825   5.643   8.578
31655SOL    HW296863   8.707   5.570   8.517
31656SOL     OW96864   3.197   2.068  12.774
31656SOL    HW196865   3.292   2.076  12.778
31656SOL    HW296866   3.177   1.986  12.820
31657SOL     OW96867  12.331  12.622   5.179
31657SOL    HW196868  12.366  12.613   5.090
31657SOL    HW296869  12.276  12.701   5.174
31658SOL     OW96870   2.892   9.162   3.328
31658SOL    HW196871   2.943   9.241   3.346
31658SOL    HW296872   2.804   9.183   3.360
31659SOL     OW96873  14.017  13.382  14.295
31659SOL    HW196874  14.017  13.468  14.337
31659SOL    HW296875  14.100  13.342  14.323
31660SOL     OW96876   5.975   5.319   9.406
31660SOL    HW196877   5.920   5.322   9.484
31660SOL    HW296878   6.063   5.297   9.439
31661SOL     OW96879  13.927  14.573   7.618
31661SOL    HW196880  13.902  14.560   7.710
31661SOL    HW296881  13.995  14.642   7.622
31662SOL     OW96882   3.154   8.548   8.658
31662SOL    HW196883   3.231   8.516   8.704
31662SOL    HW296884   3.117   8.615   8.715
31663SOL     OW96885   1.004   7.532  13.735
31663SOL    HW196886   1.035   7.495  13.817
31663SOL    HW296887   0.917   7.565  13.754
31664SOL     OW96888  12.410   7.923  13.364
31664SOL    HW196889  12.487   7.953  13.316
31664SOL    HW296890  12.430   7.833  13.389
31665SOL     OW96891   3.814   6.850  14.516
31665SOL    HW196892   3.889   6.819  14.567
31665SOL    HW296893   3.844   6.931  14.476
31666SOL     OW96894  12.421  12.176   3.135
31666SOL    HW196895  12.461  12.263   3.144
31666SOL    HW296896  12.432  12.136   3.221
31667SOL     OW96897   8.575   8.145  10.900
31667SOL    HW196898   8.568   8.067  10.845
31667SOL    HW296899   8.665   8.175  10.888
31668SOL     OW96900  13.276   3.717   7.731
31668SOL    HW196901  13.242   3.792   7.683
31668SOL    HW296902  13.356   3.692   7.684
31669SOL     OW96903   1.180   7.283   4.384
31669SOL    HW196904   1.255   7.263   4.330
31669SOL    HW296905   1.157   7.373   4.362
31670SOL     OW96906   5.157  13.119  13.769
31670SOL    HW196907   5.076  13.069  13.768
31670SOL    HW296908   5.191  13.111  13.680
31671SOL     OW96909   0.749   2.312   1.429
31671SOL    HW196910   0.674   2.310   1.369
31671SOL    HW296911   0.741   2.396   1.475
31672SOL     OW96912  11.118  14.613   3.778
31672SOL    HW196913  11.096  14.703   3.752
31672SOL    HW296914  11.034  14.567   3.777
31673SOL     OW96915  10.143   2.470   9.993
31673SOL    HW196916  10.099   2.474   9.908
31673SOL    HW296917  10.205   2.397   9.984
31674SOL     OW96918   3.787  10.629   7.964
31674SOL    HW196919   3.783  10.624   7.869
31674SOL    HW296920   3.756  10.717   7.985
31675SOL     OW96921   4.769   9.312   7.696
31675SOL    HW196922   4.727   9.259   7.762
31675SOL    HW296923   4.712   9.306   7.619
31676SOL     OW96924   6.048   6.816   3.766
31676SOL    HW196925   6.030   6.810   3.860
31676SOL    HW296926   6.091   6.901   3.755
31677SOL     OW96927  12.232  10.103   6.368
31677SOL    HW196928  12.202  10.111   6.459
31677SOL    HW296929  12.317  10.058   6.375
31678SOL     OW96930   6.153  14.348   7.483
31678SOL    HW196931   6.107  14.274   7.521
31678SOL    HW296932   6.129  14.422   7.539
31679SOL     OW96933  12.193  10.597   6.708
31679SOL    HW196934  12.171  10.664   6.643
31679SOL    HW296935  12.122  10.603   6.773
31680SOL     OW96936   3.402   3.809  12.712
31680SOL    HW196937   3.313   3.784  12.690
31680SOL    HW296938   3.415   3.894  12.669
31681SOL     OW96939  13.524   9.912   4.119
31681SOL    HW196940  13.500   9.977   4.185
31681SOL    HW296941  13.446   9.857   4.109
31682SOL     OW96942   6.061   1.606   5.206
31682SOL    HW196943   6.059   1.596   5.302
31682SOL    HW296944   6.016   1.528   5.174
31683SOL     OW96945  11.906   7.804   7.282
31683SOL    HW196946  11.998   7.787   7.266
31683SOL    HW296947  11.905   7.868   7.354
31684SOL     OW96948   1.753   2.576   1.328
31684SOL    HW196949   1.825   2.514   1.323
31684SOL    HW296950   1.772   2.629   1.406
31685SOL     OW96951   2.876   8.126   2.824
31685SOL    HW196952   2.843   8.036   2.828
31685SOL    HW296953   2.947   8.128   2.889
31686SOL     OW96954   9.516   5.100   7.244
31686SOL    HW196955   9.513   5.016   7.289
31686SOL    HW296956   9.425   5.127   7.235
31687SOL     OW96957   4.616  14.726   9.476
31687SOL    HW196958   4.539  14.768   9.437
31687SOL    HW296959   4.665  14.692   9.401
31688SOL     OW96960  12.093  10.328  12.316
31688SOL    HW196961  12.153  10.397  12.287
31688SOL    HW296962  12.059  10.291  12.234
31689SOL     OW96963  11.364   2.856  10.987
31689SOL    HW196964  11.423   2.790  10.950
31689SOL    HW296965  11.406   2.882  11.069
31690SOL     OW96966   9.980  13.035   3.183
31690SOL    HW196967  10.044  13.053   3.115
31690SOL    HW296968  10.031  13.027   3.263
31691SOL     OW96969   4.257  11.827   3.538
31691SOL    HW196970   4.307  11.878   3.602
31691SOL    HW296971   4.252  11.739   3.575
31692SOL     OW96972  11.586  13.358   7.559
31692SOL    HW196973  11.644  13.286   7.581
31692SOL    HW296974  11.645  13.429   7.533
31693SOL     OW96975   6.416   8.886   6.145
31693SOL    HW196976   6.351   8.816   6.146
31693SOL    HW296977   6.376   8.955   6.093
31694SOL     OW96978  12.805   2.602   8.402
31694SOL    HW196979  12.750   2.524   8.415
31694SOL    HW296980  12.840   2.621   8.489
31695SOL     OW96981  13.293  10.507  11.286
31695SOL    HW196982  13.294  10.573  11.216
31695SOL    HW296983  13.263  10.427  11.244
31696SOL     OW96984   1.125   5.692   8.253
31696SOL    HW196985   1.177   5.615   8.276
31696SOL    HW296986   1.183   5.766   8.268
31697SOL     OW96987   3.279   7.782  10.785
31697SOL    HW196988   3.187   7.758  10.797
31697SOL    HW296989   3.321   7.701  10.757
31698SOL     OW96990   7.017  13.282   0.179
31698SOL    HW196991   7.104  13.247   0.196
31698SOL    HW296992   7.028  13.339   0.103
31699SOL     OW96993   4.517  10.458   9.184
31699SOL    HW196994   4.554  10.404   9.253
31699SOL    HW296995   4.429  10.422   9.170
31700SOL     OW96996   3.607  11.823   1.528
31700SOL    HW196997   3.564  11.743   1.499
31700SOL    HW296998   3.540  11.890   1.522
31701SOL     OW96999   0.040  14.621   1.180
31701SOL    HW197000   0.127  14.614   1.219
31701SOL    HW297001   0.053  14.591   1.090
31702SOL     OW97002   5.711   7.645  12.157
31702SOL    HW197003   5.619   7.663  12.138
31702SOL    HW297004   5.726   7.681  12.244
31703SOL     OW97005   1.579   1.209   9.601
31703SOL    HW197006   1.602   1.129   9.552
31703SOL    HW297007   1.644   1.214   9.670
31704SOL     OW97008   2.641  13.909  11.848
31704SOL    HW197009   2.594  13.830  11.821
31704SOL    HW297010   2.732  13.882  11.855
31705SOL     OW97011  10.931  13.714  11.740
31705SOL    HW197012  10.997  13.669  11.792
31705SOL    HW297013  10.853  13.714  11.795
31706SOL     OW97014   0.013  12.503  13.056
31706SOL    HW197015   0.028  12.530  12.965
31706SOL    HW297016  14.831  12.567  13.090
31707SOL     OW97017   4.462   7.350   7.413
31707SOL    HW197018   4.368   7.358   7.396
31707SOL    HW297019   4.495   7.440   7.406
31708SOL     OW97020   0.210   3.089   5.217
31708SOL    HW197021   0.169   3.038   5.287
31708SOL    HW297022   0.252   3.162   5.261
31709SOL     OW97023   3.446  13.404   5.253
31709SOL    HW197024   3.431  13.310   5.242
31709SOL    HW297025   3.541  13.412   5.257
31710SOL     OW97026   1.834  10.458   0.259
31710SOL    HW197027   1.843  10.505   0.342
31710SOL    HW297028   1.906  10.395   0.259
31711SOL     OW97029   3.145   4.319   6.042
31711SOL    HW197030   3.099   4.249   6.088
31711SOL    HW297031   3.218   4.342   6.099
31712SOL     OW97032   7.891   0.872   4.987
31712SOL    HW197033   7.874   0.806   4.920
31712SOL    HW297034   7.986   0.885   4.985
31713SOL     OW97035  13.277  13.182   8.607
31713SOL    HW197036  13.200  13.145   8.566
31713SOL    HW297037  13.263  13.169   8.701
31714SOL     OW97038   6.680   8.688   3.121
31714SOL    HW197039   6.611   8.714   3.182
31714SOL    HW297040   6.697   8.596   3.143
31715SOL     OW97041  11.621   4.441  14.239
31715SOL    HW197042  11.531   4.417  14.217
31715SOL    HW297043  11.670   4.359  14.231
31716SOL     OW97044  13.570   4.849  10.053
31716SOL    HW197045  13.498   4.802  10.011
31716SOL    HW297046  13.552   4.843  10.147
31717SOL     OW97047   5.481   4.395   2.073
31717SOL    HW197048   5.567   4.365   2.104
31717SOL    HW297049   5.422   4.375   2.146
31718SOL     OW97050  11.256   0.992   4.457
31718SOL    HW197051  11.199   0.957   4.388
31718SOL    HW297052  11.227   0.947   4.537
31719SOL     OW97053   0.233  11.774   6.887
31719SOL    HW197054   0.227  11.843   6.821
31719SOL    HW297055   0.263  11.697   6.839
31720SOL     OW97056   5.035   6.419   2.618
31720SOL    HW197057   5.108   6.386   2.670
31720SOL    HW297058   4.966   6.353   2.630
31721SOL     OW97059   0.890   7.309  14.245
31721SOL    HW197060   0.940   7.338  14.321
31721SOL    HW297061   0.835   7.238  14.279
31722SOL     OW97062   0.752   1.232   0.529
31722SOL    HW197063   0.749   1.326   0.551
31722SOL    HW297064   0.778   1.190   0.610
31723SOL     OW97065   3.405   5.916   7.315
31723SOL    HW197066   3.498   5.909   7.339
31723SOL    HW297067   3.396   6.006   7.282
31724SOL     OW97068   9.018   1.865   7.397
31724SOL    HW197069   9.078   1.807   7.351
31724SOL    HW297070   8.934   1.856   7.351
31725SOL     OW97071   4.715   4.598   1.950
31725SOL    HW197072   4.792   4.544   1.969
31725SOL    HW297073   4.649   4.568   2.012
31726SOL     OW97074   3.233  13.589   7.145
31726SOL    HW197075   3.241  13.546   7.230
31726SOL    HW297076   3.180  13.667   7.162
31727SOL     OW97077   4.041  10.316  10.428
31727SOL    HW197078   4.068  10.404  10.402
31727SOL    HW297079   3.950  10.326  10.458
31728SOL     OW97080  13.265   3.440   7.355
31728SOL    HW197081  13.243   3.530   7.332
31728SOL    HW297082  13.259   3.391   7.273
31729SOL     OW97083   6.377   3.452  11.553
31729SOL    HW197084   6.350   3.365  11.583
31729SOL    HW297085   6.469   3.458  11.575
31730SOL     OW97086   2.583  13.895  10.302
31730SOL    HW197087   2.602  13.939  10.219
31730SOL    HW297088   2.525  13.955  10.348
31731SOL     OW97089   9.766   2.849   6.622
31731SOL    HW197090   9.746   2.892   6.539
31731SOL    HW297091   9.857   2.875   6.641
31732SOL     OW97092   7.496   8.114   0.312
31732SOL    HW197093   7.440   8.053   0.264
31732SOL    HW297094   7.437   8.183   0.343
31733SOL     OW97095  12.670   4.686   0.827
31733SOL    HW197096  12.677   4.729   0.741
31733SOL    HW297097  12.607   4.740   0.875
31734SOL     OW97098  12.186   9.989   2.279
31734SOL    HW197099  12.225   9.938   2.350
31734SOL    HW297100  12.195   9.933   2.201
31735SOL     OW97101   6.560   0.178   6.732
31735SOL    HW197102   6.536   0.099   6.684
31735SOL    HW297103   6.627   0.219   6.678
31736SOL     OW97104   6.832  12.974   5.374
31736SOL    HW197105   6.758  13.014   5.421
31736SOL    HW297106   6.827  12.881   5.396
31737SOL     OW97107   3.619   8.401   3.458
31737SOL    HW197108   3.601   8.457   3.534
31737SOL    HW297109   3.597   8.455   3.383
31738SOL     OW97110   5.733  12.884   6.888
31738SOL    HW197111   5.656  12.874   6.831
31738SOL    HW297112   5.783  12.955   6.848
31739SOL     OW97113  11.614   4.078   9.375
31739SOL    HW197114  11.541   4.020   9.355
31739SOL    HW297115  11.579   4.166   9.362
31740SOL     OW97116  10.372   8.097   0.759
31740SOL    HW197117  10.400   8.175   0.712
31740SOL    HW297118  10.310   8.130   0.824
31741SOL     OW97119   7.629  12.692  10.069
31741SOL    HW197120   7.616  12.710   9.976
31741SOL    HW297121   7.575  12.757  10.114
31742SOL     OW97122  12.959   2.238   3.079
31742SOL    HW197123  12.912   2.264   3.000
31742SOL    HW297124  12.975   2.144   3.068
31743SOL     OW97125   9.874   0.819   2.328
31743SOL    HW197126   9.897   0.744   2.273
31743SOL    HW297127   9.948   0.828   2.388
31744SOL     OW97128   6.097   8.409  10.696
31744SOL    HW197129   6.074   8.500  10.708
31744SOL    HW297130   6.065   8.387  10.608
31745SOL     OW97131  13.981   2.422   2.668
31745SOL    HW197132  14.005   2.458   2.582
31745SOL    HW297133  13.934   2.341   2.648
31746SOL     OW97134   7.731  10.443   6.270
31746SOL    HW197135   7.786  10.380   6.318
31746SOL    HW297136   7.748  10.527   6.313
31747SOL     OW97137   3.808   1.255  10.168
31747SOL    HW197138   3.819   1.186  10.103
31747SOL    HW297139   3.714   1.274  10.169
31748SOL     OW97140  10.691  14.315   8.930
31748SOL    HW197141  10.684  14.220   8.925
31748SOL    HW297142  10.601  14.346   8.922
31749SOL     OW97143  10.198   7.696   3.229
31749SOL    HW197144  10.270   7.752   3.200
31749SOL    HW297145  10.119   7.738   3.196
31750SOL     OW97146   8.973   5.776   9.926
31750SOL    HW197147   8.931   5.844   9.976
31750SOL    HW297148   9.032   5.823   9.866
31751SOL     OW97149  12.920   8.943  11.256
31751SOL    HW197150  13.014   8.957  11.246
31751SOL    HW297151  12.890   8.915  11.169
31752SOL     OW97152   2.992  11.045   6.535
31752SOL    HW197153   3.004  11.135   6.505
31752SOL    HW297154   2.904  11.021   6.505
31753SOL     OW97155   8.220  13.294   4.978
31753SOL    HW197156   8.255  13.376   5.013
31753SOL    HW297157   8.256  13.226   5.034
31754SOL     OW97158   7.578   9.766   8.686
31754SOL    HW197159   7.562   9.672   8.696
31754SOL    HW297160   7.651   9.783   8.746
31755SOL     OW97161   9.429  10.482   4.445
31755SOL    HW197162   9.453  10.466   4.354
31755SOL    HW297163   9.472  10.565   4.467
31756SOL     OW97164   9.726  13.209   2.803
31756SOL    HW197165   9.765  13.211   2.716
31756SOL    HW297166   9.674  13.129   2.805
31757SOL     OW97167   9.375   7.810   8.737
31757SOL    HW197168   9.422   7.782   8.815
31757SOL    HW297169   9.440   7.804   8.667
31758SOL     OW97170   1.008   1.342   3.889
31758SOL    HW197171   0.947   1.338   3.963
31758SOL    HW297172   1.048   1.255   3.886
31759SOL     OW97173   1.669   7.618  11.378
31759SOL    HW197174   1.687   7.630  11.285
31759SOL    HW297175   1.749   7.646  11.422
31760SOL     OW97176   6.978   4.566   3.530
31760SOL    HW197177   6.991   4.471   3.530
31760SOL    HW297178   6.935   4.583   3.614
31761SOL     OW97179   3.581   7.550  10.899
31761SOL    HW197180   3.660   7.497  10.888
31761SOL    HW297181   3.593   7.623  10.839
31762SOL     OW97182   7.570  12.178   7.370
31762SOL    HW197183   7.479  12.149   7.377
31762SOL    HW297184   7.622  12.098   7.370
31763SOL     OW97185  14.295  14.475   1.661
31763SOL    HW197186  14.206  14.503   1.683
31763SOL    HW297187  14.350  14.516   1.728
31764SOL     OW97188   7.915   4.497  14.351
31764SOL    HW197189   7.852   4.426  14.361
31764SOL    HW297190   7.948   4.513  14.439
31765SOL     OW97191  11.475   3.033   2.445
31765SOL    HW197192  11.531   2.999   2.376
31765SOL    HW297193  11.392   2.985   2.435
31766SOL     OW97194   6.481   1.283   9.631
31766SOL    HW197195   6.444   1.195   9.632
31766SOL    HW297196   6.405   1.340   9.618
31767SOL     OW97197  14.777  12.236   6.683
31767SOL    HW197198  14.854  12.275   6.642
31767SOL    HW297199  14.734  12.308   6.729
31768SOL     OW97200  14.685   0.281  13.096
31768SOL    HW197201  14.705   0.273  13.003
31768SOL    HW297202  14.659   0.193  13.123
31769SOL     OW97203   6.062  10.857  12.047
31769SOL    HW197204   6.015  10.916  12.106
31769SOL    HW297205   6.154  10.881  12.058
31770SOL     OW97206  11.035   3.636  11.223
31770SOL    HW197207  11.074   3.717  11.256
31770SOL    HW297208  11.095   3.607  11.154
31771SOL     OW97209   1.024   5.310   6.720
31771SOL    HW197210   1.015   5.334   6.627
31771SOL    HW297211   0.934   5.311   6.754
31772SOL     OW97212  13.129   8.835  10.315
31772SOL    HW197213  13.222   8.834  10.337
31772SOL    HW297214  13.120   8.768  10.248
31773SOL     OW97215   7.111   2.276   4.642
31773SOL    HW197216   7.058   2.203   4.677
31773SOL    HW297217   7.197   2.264   4.681
31774SOL     OW97218   1.948   0.570  10.884
31774SOL    HW197219   1.860   0.608  10.893
31774SOL    HW297220   1.933   0.481  10.852
31775SOL     OW97221   8.092   8.709   9.118
31775SOL    HW197222   8.129   8.683   9.203
31775SOL    HW297223   8.071   8.626   9.075
31776SOL     OW97224   3.776   2.763   0.813
31776SOL    HW197225   3.817   2.726   0.735
31776SOL    HW297226   3.831   2.735   0.885
31777SOL     OW97227  11.464  14.698   0.491
31777SOL    HW197228  11.415  14.745   0.559
31777SOL    HW297229  11.515  14.767   0.448
31778SOL     OW97230   2.306   7.767   2.021
31778SOL    HW197231   2.278   7.838   1.963
31778SOL    HW297232   2.385   7.801   2.063
31779SOL     OW97233   0.853   8.935  14.550
31779SOL    HW197234   0.850   9.021  14.593
31779SOL    HW297235   0.892   8.952  14.464
31780SOL     OW97236   8.613  12.851  14.128
31780SOL    HW197237   8.616  12.837  14.033
31780SOL    HW297238   8.696  12.817  14.160
31781SOL     OW97239  13.107   0.193   4.295
31781SOL    HW197240  13.187   0.174   4.246
31781SOL    HW297241  13.134   0.254   4.363
31782SOL     OW97242   0.665   2.769   2.317
31782SOL    HW197243   0.708   2.683   2.316
31782SOL    HW297244   0.736   2.832   2.311
31783SOL     OW97245   4.745   6.014   8.949
31783SOL    HW197246   4.732   6.023   9.043
31783SOL    HW297247   4.733   5.921   8.932
31784SOL     OW97248   4.632   8.738   0.786
31784SOL    HW197249   4.683   8.803   0.835
31784SOL    HW297250   4.557   8.719   0.843
31785SOL     OW97251  12.731   6.638  13.552
31785SOL    HW197252  12.718   6.569  13.617
31785SOL    HW297253  12.821   6.667  13.566
31786SOL     OW97254   1.769  11.753   5.297
31786SOL    HW197255   1.738  11.671   5.336
31786SOL    HW297256   1.842  11.780   5.353
31787SOL     OW97257   5.500  13.667   5.382
31787SOL    HW197258   5.511  13.709   5.467
31787SOL    HW297259   5.586  13.672   5.341
31788SOL     OW97260   1.573   9.444   9.957
31788SOL    HW197261   1.479   9.427   9.954
31788SOL    HW297262   1.580   9.539   9.962
31789SOL     OW97263   2.507   7.832  12.952
31789SOL    HW197264   2.568   7.905  12.945
31789SOL    HW297265   2.478   7.816  12.862
31790SOL     OW97266  13.589   0.858   1.824
31790SOL    HW197267  13.636   0.869   1.741
31790SOL    HW297268  13.555   0.945   1.844
31791SOL     OW97269   5.557   8.157   2.385
31791SOL    HW197270   5.625   8.118   2.440
31791SOL    HW297271   5.604   8.186   2.307
31792SOL     OW97272   1.549   9.015  13.598
31792SOL    HW197273   1.527   8.948  13.663
31792SOL    HW297274   1.643   9.004  13.582
31793SOL     OW97275   0.704   1.144  14.101
31793SOL    HW197276   0.754   1.223  14.121
31793SOL    HW297277   0.749   1.106  14.026
31794SOL     OW97278   4.562   1.496  11.210
31794SOL    HW197279   4.599   1.503  11.299
31794SOL    HW297280   4.474   1.462  11.224
31795SOL     OW97281  11.753   6.442   4.119
31795SOL    HW197282  11.837   6.434   4.073
31795SOL    HW297283  11.732   6.535   4.115
31796SOL     OW97284   2.627   6.474   2.243
31796SOL    HW197285   2.700   6.497   2.300
31796SOL    HW297286   2.557   6.534   2.269
31797SOL     OW97287   8.257   6.941   8.513
31797SOL    HW197288   8.301   6.859   8.492
31797SOL    HW297289   8.291   7.003   8.447
31798SOL     OW97290   7.248   4.985   4.858
31798SOL    HW197291   7.291   4.900   4.848
31798SOL    HW297292   7.190   4.974   4.933
31799SOL     OW97293   7.445   3.019   9.080
31799SOL    HW197294   7.378   3.043   9.143
31799SOL    HW297295   7.527   3.022   9.129
31800SOL     OW97296   5.263   1.935   7.210
31800SOL    HW197297   5.309   1.851   7.215
31800SOL    HW297298   5.179   1.918   7.255
31801SOL     OW97299   4.242  11.726  13.785
31801SOL    HW197300   4.246  11.694  13.695
31801SOL    HW297301   4.173  11.674  13.826
31802SOL     OW97302  12.327  13.801  11.977
31802SOL    HW197303  12.407  13.847  11.953
31802SOL    HW297304  12.278  13.795  11.895
31803SOL     OW97305   9.488   1.630   3.484
31803SOL    HW197306   9.413   1.597   3.533
31803SOL    HW297307   9.486   1.725   3.499
31804SOL     OW97308  10.957  13.890   8.102
31804SOL    HW197309  11.042  13.850   8.083
31804SOL    HW297310  10.915  13.897   8.017
31805SOL     OW97311  13.408   5.630   9.775
31805SOL    HW197312  13.407   5.676   9.691
31805SOL    HW297313  13.330   5.661   9.820
31806SOL     OW97314  12.411   8.940   1.011
31806SOL    HW197315  12.351   9.008   1.041
31806SOL    HW297316  12.354   8.870   0.979
31807SOL     OW97317   7.342  13.578   3.103
31807SOL    HW197318   7.343  13.487   3.131
31807SOL    HW297319   7.307  13.576   3.014
31808SOL     OW97320   5.955  14.307   1.521
31808SOL    HW197321   5.909  14.273   1.598
31808SOL    HW297322   5.975  14.230   1.469
31809SOL     OW97323  14.450  10.606   9.833
31809SOL    HW197324  14.532  10.564   9.806
31809SOL    HW297325  14.473  10.699   9.840
31810SOL     OW97326   3.256   1.746   8.307
31810SOL    HW197327   3.269   1.652   8.319
31810SOL    HW297328   3.175   1.753   8.257
31811SOL     OW97329   9.017   6.060   6.838
31811SOL    HW197330   9.091   6.043   6.896
31811SOL    HW297331   9.020   6.154   6.822
31812SOL     OW97332   9.028  10.671   6.993
31812SOL    HW197333   9.123  10.667   6.990
31812SOL    HW297334   8.999  10.638   6.908
31813SOL     OW97335   0.218   9.559   1.313
31813SOL    HW197336   0.215   9.650   1.282
31813SOL    HW297337   0.305   9.551   1.352
31814SOL     OW97338  10.778   3.726  11.084
31814SOL    HW197339  10.831   3.750  11.008
31814SOL    HW297340  10.826   3.656  11.126
31815SOL     OW97341   2.419  13.248   2.555
31815SOL    HW197342   2.514  13.258   2.551
31815SOL    HW297343   2.405  13.153   2.557
31816SOL     OW97344   4.707   4.459   8.974
31816SOL    HW197345   4.721   4.543   9.018
31816SOL    HW297346   4.774   4.401   9.011
31817SOL     OW97347   4.390   5.262   8.572
31817SOL    HW197348   4.410   5.284   8.663
31817SOL    HW297349   4.474   5.265   8.527
31818SOL     OW97350  10.165   3.177  13.199
31818SOL    HW197351  10.209   3.252  13.160
31818SOL    HW297352  10.100   3.150  13.133
31819SOL     OW97353   8.619   5.067   0.113
31819SOL    HW197354   8.666   5.054   0.196
31819SOL    HW297355   8.670   5.019   0.049
31820SOL     OW97356  14.752  13.969   1.023
31820SOL    HW197357  14.697  14.034   0.979
31820SOL    HW297358  14.758  14.000   1.113
31821SOL     OW97359  14.188   1.793  10.863
31821SOL    HW197360  14.265   1.820  10.814
31821SOL    HW297361  14.134   1.872  10.867
31822SOL     OW97362  14.768   9.801  10.990
31822SOL    HW197363  14.848   9.761  11.025
31822SOL    HW297364  14.761   9.885  11.036
31823SOL     OW97365   9.644  11.877   8.148
31823SOL    HW197366   9.561  11.880   8.195
31823SOL    HW297367   9.633  11.807   8.084
31824SOL     OW97368   3.682  10.686   0.886
31824SOL    HW197369   3.645  10.602   0.860
31824SOL    HW297370   3.750  10.703   0.821
31825SOL     OW97371   9.696   7.936  14.047
31825SOL    HW197372   9.621   7.935  13.989
31825SOL    HW297373   9.675   8.003  14.112
31826SOL     OW97374   4.223   4.243   9.765
31826SOL    HW197375   4.161   4.305   9.803
31826SOL    HW297376   4.288   4.297   9.720
31827SOL     OW97377   2.010   9.987  12.528
31827SOL    HW197378   2.051   9.910  12.567
31827SOL    HW297379   1.940  10.010  12.589
31828SOL     OW97380   5.524   9.333   3.556
31828SOL    HW197381   5.477   9.283   3.624
31828SOL    HW297382   5.456   9.356   3.492
31829SOL     OW97383  10.666  12.406   5.634
31829SOL    HW197384  10.608  12.482   5.628
31829SOL    HW297385  10.655  12.374   5.723
31830SOL     OW97386  14.266   1.087   5.819
31830SOL    HW197387  14.247   1.141   5.896
31830SOL    HW297388  14.269   0.998   5.854
31831SOL     OW97389  12.909  14.251   7.041
31831SOL    HW197390  12.888  14.342   7.065
31831SOL    HW297391  12.918  14.253   6.946
31832SOL     OW97392   0.382  14.784   3.576
31832SOL    HW197393   0.365  14.696   3.609
31832SOL    HW297394   0.300  14.812   3.537
31833SOL     OW97395   9.506   1.372   6.523
31833SOL    HW197396   9.517   1.462   6.553
31833SOL    HW297397   9.431   1.339   6.573
31834SOL     OW97398   0.529   8.447   6.459
31834SOL    HW197399   0.445   8.437   6.503
31834SOL    HW297400   0.542   8.542   6.452
31835SOL     OW97401   7.349  12.350  12.237
31835SOL    HW197402   7.293  12.427  12.246
31835SOL    HW297403   7.437  12.385  12.226
31836SOL     OW97404   8.826  13.176   9.574
31836SOL    HW197405   8.860  13.115   9.640
31836SOL    HW297406   8.853  13.139   9.490
31837SOL     OW97407   0.084   3.918   4.031
31837SOL    HW197408   0.078   3.862   3.954
31837SOL    HW297409   0.112   3.859   4.102
31838SOL     OW97410   2.506   0.154  14.815
31838SOL    HW197411   2.545   0.237  14.788
31838SOL    HW297412   2.570   0.115  14.875
31839SOL     OW97413   6.459   6.907  10.972
31839SOL    HW197414   6.427   6.904  11.062
31839SOL    HW297415   6.496   6.995  10.963
31840SOL     OW97416  12.828   0.435  11.792
31840SOL    HW197417  12.846   0.361  11.849
31840SOL    HW297418  12.915   0.469  11.769
31841SOL     OW97419   0.337  11.519   8.493
31841SOL    HW197420   0.278  11.451   8.460
31841SOL    HW297421   0.424  11.481   8.484
31842SOL     OW97422   2.249  14.425   4.296
31842SOL    HW197423   2.308  14.461   4.361
31842SOL    HW297424   2.177  14.489   4.291
31843SOL     OW97425  11.250  13.194   7.928
31843SOL    HW197426  11.260  13.145   8.010
31843SOL    HW297427  11.327  13.168   7.876
31844SOL     OW97428  14.082   5.654   5.115
31844SOL    HW197429  14.029   5.580   5.083
31844SOL    HW297430  14.017   5.720   5.142
31845SOL     OW97431   6.837   5.136  11.916
31845SOL    HW197432   6.843   5.084  11.836
31845SOL    HW297433   6.882   5.085  11.982
31846SOL     OW97434  11.333  11.702   3.229
31846SOL    HW197435  11.420  11.715   3.267
31846SOL    HW297436  11.275  11.691   3.304
31847SOL     OW97437   5.254   3.739   3.186
31847SOL    HW197438   5.324   3.804   3.179
31847SOL    HW297439   5.223   3.747   3.277
31848SOL     OW97440   9.346  11.418  12.137
31848SOL    HW197441   9.261  11.389  12.104
31848SOL    HW297442   9.350  11.511  12.114
31849SOL     OW97443   3.622  13.489  14.191
31849SOL    HW197444   3.545  13.469  14.245
31849SOL    HW297445   3.625  13.419  14.126
31850SOL     OW97446   0.802   5.041   1.677
31850SOL    HW197447   0.839   5.017   1.762
31850SOL    HW297448   0.804   5.136   1.676
31851SOL     OW97449   7.929  14.587  10.450
31851SOL    HW197450   8.018  14.623  10.452
31851SOL    HW297451   7.874  14.658  10.482
31852SOL     OW97452   3.845   0.079   4.752
31852SOL    HW197453   3.879   0.023   4.682
31852SOL    HW297454   3.892   0.049   4.831
31853SOL     OW97455   6.920  13.095   7.876
31853SOL    HW197456   6.979  13.092   7.952
31853SOL    HW297457   6.832  13.088   7.914
31854SOL     OW97458   2.876  11.801   8.315
31854SOL    HW197459   2.828  11.772   8.393
31854SOL    HW297460   2.939  11.865   8.348
31855SOL     OW97461   3.459   1.399   8.525
31855SOL    HW197462   3.511   1.476   8.547
31855SOL    HW297463   3.372   1.417   8.561
31856SOL     OW97464   7.817   9.833   8.805
31856SOL    HW197465   7.828   9.771   8.878
31856SOL    HW297466   7.838   9.918   8.843
31857SOL     OW97467  12.863   5.872  13.197
31857SOL    HW197468  12.832   5.948  13.147
31857SOL    HW297469  12.822   5.797  13.154
31858SOL     OW97470   3.335   4.241   8.977
31858SOL    HW197471   3.390   4.178   9.024
31858SOL    HW297472   3.367   4.239   8.887
31859SOL     OW97473  10.358   3.050  12.384
31859SOL    HW197474  10.363   3.061  12.479
31859SOL    HW297475  10.352   3.140  12.350
31860SOL     OW97476  13.882  10.779   8.315
31860SOL    HW197477  13.863  10.871   8.330
31860SOL    HW297478  13.819  10.732   8.370
31861SOL     OW97479  10.830  13.593  14.801
31861SOL    HW197480  10.908  13.538  14.801
31861SOL    HW297481  10.757  13.531  14.794
31862SOL     OW97482   0.661  11.235   0.220
31862SOL    HW197483   0.747  11.196   0.239
31862SOL    HW297484   0.601  11.160   0.215
31863SOL     OW97485  13.938   4.556  12.036
31863SOL    HW197486  13.954   4.627  12.099
31863SOL    HW297487  13.844   4.561  12.017
31864SOL     OW97488   9.972   8.177   8.022
31864SOL    HW197489   9.878   8.183   8.038
31864SOL    HW297490   9.992   8.254   7.969
31865SOL     OW97491   1.478   5.808  10.368
31865SOL    HW197492   1.442   5.774  10.286
31865SOL    HW297493   1.527   5.886  10.342
31866SOL     OW97494  11.798   0.116  12.366
31866SOL    HW197495  11.820   0.056  12.437
31866SOL    HW297496  11.862   0.097  12.297
31867SOL     OW97497   6.847  10.397  11.321
31867SOL    HW197498   6.894  10.339  11.260
31867SOL    HW297499   6.916  10.435  11.375
31868SOL     OW97500   0.011   1.083  14.610
31868SOL    HW197501   0.080   1.032  14.652
31868SOL    HW297502   0.050   1.170  14.596
31869SOL     OW97503  12.076   0.605   1.159
31869SOL    HW197504  11.988   0.572   1.177
31869SOL    HW297505  12.068   0.648   1.073
31870SOL     OW97506   2.763   4.862  10.185
31870SOL    HW197507   2.725   4.920  10.251
31870SOL    HW297508   2.693   4.852  10.120
31871SOL     OW97509   3.153   0.175  11.841
31871SOL    HW197510   3.070   0.221  11.828
31871SOL    HW297511   3.171   0.183  11.934
31872SOL     OW97512   4.676   7.560  13.314
31872SOL    HW197513   4.687   7.620  13.240
31872SOL    HW297514   4.621   7.608  13.376
31873SOL     OW97515   9.966  13.030  14.078
31873SOL    HW197516  10.019  13.046  14.156
31873SOL    HW297517   9.961  12.935  14.072
31874SOL     OW97518   5.426  10.146  12.220
31874SOL    HW197519   5.521  10.129  12.223
31874SOL    HW297520   5.394  10.087  12.152
31875SOL     OW97521   0.817   8.201   0.330
31875SOL    HW197522   0.855   8.127   0.282
31875SOL    HW297523   0.846   8.188   0.420
31876SOL     OW97524   0.588   0.496   5.757
31876SOL    HW197525   0.676   0.507   5.722
31876SOL    HW297526   0.534   0.557   5.707
31877SOL     OW97527  12.354   9.769  12.623
31877SOL    HW197528  12.367   9.780  12.717
31877SOL    HW297529  12.301   9.690  12.616
31878SOL     OW97530   9.271   4.216  11.635
31878SOL    HW197531   9.277   4.312  11.639
31878SOL    HW297532   9.287   4.187  11.724
31879SOL     OW97533   8.545  14.024   6.258
31879SOL    HW197534   8.534  14.119   6.255
31879SOL    HW297535   8.486  13.994   6.327
31880SOL     OW97536  13.609   6.062  11.114
31880SOL    HW197537  13.537   6.020  11.162
31880SOL    HW297538  13.590   6.155  11.119
31881SOL     OW97539  13.875   5.133   7.674
31881SOL    HW197540  13.797   5.079   7.689
31881SOL    HW297541  13.873   5.152   7.581
31882SOL     OW97542   9.909   6.154  10.219
31882SOL    HW197543   9.944   6.203  10.144
31882SOL    HW297544   9.985   6.135  10.273
31883SOL     OW97545  14.349   0.703   7.296
31883SOL    HW197546  14.334   0.615   7.330
31883SOL    HW297547  14.261   0.739   7.284
31884SOL     OW97548   5.225  12.704  12.463
31884SOL    HW197549   5.277  12.699  12.543
31884SOL    HW297550   5.279  12.754  12.402
31885SOL     OW97551   7.183   4.819   7.624
31885SOL    HW197552   7.192   4.811   7.529
31885SOL    HW297553   7.226   4.742   7.659
31886SOL     OW97554   3.019   7.843   2.281
31886SOL    HW197555   2.972   7.805   2.207
31886SOL    HW297556   3.106   7.803   2.279
31887SOL     OW97557  10.214   0.304   0.213
31887SOL    HW197558  10.295   0.269   0.249
31887SOL    HW297559  10.155   0.308   0.289
31888SOL     OW97560  13.454   8.093   8.828
31888SOL    HW197561  13.517   8.091   8.899
31888SOL    HW297562  13.371   8.117   8.869
31889SOL     OW97563  14.695   2.834  14.652
31889SOL    HW197564  14.638   2.882  14.592
31889SOL    HW297565  14.704   2.747  14.613
31890SOL     OW97566   4.964  14.172  10.326
31890SOL    HW197567   5.007  14.248  10.286
31890SOL    HW297568   4.882  14.163  10.278
31891SOL     OW97569   4.212   8.199  14.838
31891SOL    HW197570   4.234   8.109  14.858
31891SOL    HW297571   4.269   8.251   0.012
31892SOL     OW97572   0.045   0.695   0.189
31892SOL    HW197573   0.080   0.653   0.110
31892SOL    HW297574  14.835   0.711   0.169
31893SOL     OW97575   5.672   6.360   2.355
31893SOL    HW197576   5.694   6.401   2.271
31893SOL    HW297577   5.678   6.431   2.419
31894SOL     OW97578   6.046   6.883   5.588
31894SOL    HW197579   5.974   6.830   5.555
31894SOL    HW297580   6.043   6.871   5.683
31895SOL     OW97581  11.771  11.195  14.287
31895SOL    HW197582  11.764  11.126  14.222
31895SOL    HW297583  11.758  11.276  14.238
31896SOL     OW97584  13.581   3.754   3.646
31896SOL    HW197585  13.595   3.784   3.736
31896SOL    HW297586  13.631   3.673   3.639
31897SOL     OW97587  13.758   2.971   9.972
31897SOL    HW197588  13.813   2.894   9.959
31897SOL    HW297589  13.763   2.989  10.066
31898SOL     OW97590   1.896   7.419   5.671
31898SOL    HW197591   1.953   7.344   5.689
31898SOL    HW297592   1.860   7.403   5.584
31899SOL     OW97593  13.073  13.043   3.126
31899SOL    HW197594  13.117  13.128   3.127
31899SOL    HW297595  13.138  12.982   3.163
31900SOL     OW97596   4.898   8.651  13.563
31900SOL    HW197597   4.805   8.629  13.553
31900SOL    HW297598   4.899   8.713  13.636
31901SOL     OW97599   1.955   0.157   6.207
31901SOL    HW197600   1.975   0.247   6.236
31901SOL    HW297601   1.867   0.141   6.240
31902SOL     OW97602   3.772   8.502  13.525
31902SOL    HW197603   3.791   8.417  13.565
31902SOL    HW297604   3.765   8.562  13.600
31903SOL     OW97605   7.137   2.769  11.759
31903SOL    HW197606   7.224   2.730  11.746
31903SOL    HW297607   7.097   2.717  11.828
31904SOL     OW97608   5.613   9.148   7.703
31904SOL    HW197609   5.705   9.173   7.698
31904SOL    HW297610   5.571   9.198   7.633
31905SOL     OW97611   5.996   0.698   7.316
31905SOL    HW197612   5.937   0.767   7.286
31905SOL    HW297613   6.067   0.698   7.252
31906SOL     OW97614  11.566   2.477   4.163
31906SOL    HW197615  11.494   2.533   4.192
31906SOL    HW297616  11.555   2.396   4.213
31907SOL     OW97617   4.048  14.795   1.492
31907SOL    HW197618   4.011  14.708   1.476
31907SOL    HW297619   4.122  14.779   1.550
31908SOL     OW97620  14.648   9.265   8.046
31908SOL    HW197621  14.725   9.256   7.989
31908SOL    HW297622  14.650   9.187   8.102
31909SOL     OW97623   3.644   0.990   7.711
31909SOL    HW197624   3.657   0.924   7.642
31909SOL    HW297625   3.557   1.026   7.693
31910SOL     OW97626   1.898   8.437   8.967
31910SOL    HW197627   1.888   8.383   9.045
31910SOL    HW297628   1.932   8.521   8.999
31911SOL     OW97629   3.694   5.971   4.312
31911SOL    HW197630   3.727   5.909   4.246
31911SOL    HW297631   3.610   6.000   4.278
31912SOL     OW97632  12.278  13.148   2.993
31912SOL    HW197633  12.278  13.085   2.920
31912SOL    HW297634  12.229  13.105   3.062
31913SOL     OW97635   5.615   6.232  10.462
31913SOL    HW197636   5.700   6.199  10.434
31913SOL    HW297637   5.552   6.178  10.414
31914SOL     OW97638  13.212   4.118  11.000
31914SOL    HW197639  13.182   4.067  10.925
31914SOL    HW297640  13.305   4.097  11.008
31915SOL     OW97641  13.149   9.284   2.050
31915SOL    HW197642  13.144   9.378   2.033
31915SOL    HW297643  13.177   9.246   1.967
31916SOL     OW97644  12.521   3.467  14.549
31916SOL    HW197645  12.440   3.452  14.501
31916SOL    HW297646  12.526   3.394  14.610
31917SOL     OW97647  14.821   4.302   5.742
31917SOL    HW197648  14.755   4.236   5.723
31917SOL    HW297649  14.856   4.326   5.656
31918SOL     OW97650  14.111   2.741   9.137
31918SOL    HW197651  14.076   2.705   9.056
31918SOL    HW297652  14.179   2.679   9.163
31919SOL     OW97653   5.800   2.126  11.168
31919SOL    HW197654   5.889   2.124  11.203
31919SOL    HW297655   5.811   2.127  11.073
31920SOL     OW97656  11.301   7.285   4.302
31920SOL    HW197657  11.233   7.247   4.246
31920SOL    HW297658  11.308   7.376   4.274
31921SOL     OW97659   9.036   7.157   8.952
31921SOL    HW197660   9.108   7.171   9.013
31921SOL    HW297661   9.068   7.191   8.868
31922SOL     OW97662   4.863  11.817   1.571
31922SOL    HW197663   4.834  11.859   1.490
31922SOL    HW297664   4.901  11.733   1.542
31923SOL     OW97665  11.446  12.627  10.961
31923SOL    HW197666  11.426  12.608  10.869
31923SOL    HW297667  11.486  12.714  10.959
31924SOL     OW97668   4.706   1.591   3.015
31924SOL    HW197669   4.733   1.681   2.999
31924SOL    HW297670   4.785   1.546   3.045
31925SOL     OW97671  13.705   3.611   9.993
31925SOL    HW197672  13.767   3.634   9.924
31925SOL    HW297673  13.650   3.689  10.003
31926SOL     OW97674   9.318  11.430   8.523
31926SOL    HW197675   9.269  11.433   8.440
31926SOL    HW297676   9.251  11.417   8.590
31927SOL     OW97677   4.277   3.368   4.303
31927SOL    HW197678   4.316   3.427   4.238
31927SOL    HW297679   4.191   3.406   4.321
31928SOL     OW97680   2.728   7.887   6.415
31928SOL    HW197681   2.715   7.857   6.505
31928SOL    HW297682   2.679   7.969   6.410
31929SOL     OW97683   6.630   8.933   7.452
31929SOL    HW197684   6.689   8.978   7.513
31929SOL    HW297685   6.631   8.842   7.481
31930SOL     OW97686  13.321   1.755  10.576
31930SOL    HW197687  13.406   1.710  10.576
31930SOL    HW297688  13.306   1.776  10.484
31931SOL     OW97689   9.066  10.060   3.037
31931SOL    HW197690   9.086   9.979   3.083
31931SOL    HW297691   8.972  10.074   3.051
31932SOL     OW97692   7.617   1.951   5.316
31932SOL    HW197693   7.532   1.926   5.279
31932SOL    HW297694   7.625   1.899   5.396
31933SOL     OW97695   7.494  10.553   1.517
31933SOL    HW197696   7.527  10.494   1.585
31933SOL    HW297697   7.561  10.620   1.508
31934SOL     OW97698   3.865   2.815   4.440
31934SOL    HW197699   3.839   2.733   4.481
31934SOL    HW297700   3.935   2.848   4.496
31935SOL     OW97701   0.943  11.557   2.632
31935SOL    HW197702   0.976  11.522   2.715
31935SOL    HW297703   0.888  11.630   2.658
31936SOL     OW97704   5.917   1.276   3.759
31936SOL    HW197705   5.914   1.335   3.684
31936SOL    HW297706   5.989   1.216   3.739
31937SOL     OW97707   7.679   3.030   3.000
31937SOL    HW197708   7.755   3.031   2.942
31937SOL    HW297709   7.608   3.066   2.948
31938SOL     OW97710   7.388   8.888   2.964
31938SOL    HW197711   7.464   8.937   2.994
31938SOL    HW297712   7.315   8.949   2.973
31939SOL     OW97713  11.215   9.148  14.804
31939SOL    HW197714  11.206   9.126  14.711
31939SOL    HW297715  11.248   9.068  14.844
31940SOL     OW97716  10.437  13.895  13.070
31940SOL    HW197717  10.472  13.967  13.017
31940SOL    HW297718  10.465  13.816  13.023
31941SOL     OW97719  11.036   0.610   6.866
31941SOL    HW197720  11.059   0.608   6.959
31941SOL    HW297721  11.042   0.518   6.838
31942SOL     OW97722   3.076   7.621   5.777
31942SOL    HW197723   3.012   7.637   5.708
31942SOL    HW297724   3.160   7.615   5.732
31943SOL     OW97725  11.141   9.660   8.593
31943SOL    HW197726  11.136   9.677   8.688
31943SOL    HW297727  11.050   9.654   8.565
31944SOL     OW97728   7.452   5.211   2.123
31944SOL    HW197729   7.382   5.236   2.183
31944SOL    HW297730   7.529   5.258   2.155
31945SOL     OW97731  10.119   7.183  12.747
31945SOL    HW197732  10.176   7.118  12.706
31945SOL    HW297733  10.146   7.266  12.708
31946SOL     OW97734   1.653   2.118   1.800
31946SOL    HW197735   1.740   2.124   1.762
31946SOL    HW297736   1.668   2.111   1.894
31947SOL     OW97737   1.564   4.613   9.208
31947SOL    HW197738   1.485   4.572   9.243
31947SOL    HW297739   1.602   4.547   9.150
31948SOL     OW97740  11.986   1.401  13.389
31948SOL    HW197741  11.959   1.490  13.412
31948SOL    HW297742  12.057   1.381  13.450
31949SOL     OW97743   0.958   4.814  12.562
31949SOL    HW197744   0.869   4.830  12.593
31949SOL    HW297745   0.953   4.730  12.516
31950SOL     OW97746   8.998  11.291  12.639
31950SOL    HW197747   8.973  11.373  12.596
31950SOL    HW297748   8.945  11.224  12.597
31951SOL     OW97749   8.239   8.622  11.454
31951SOL    HW197750   8.173   8.607  11.386
31951SOL    HW297751   8.226   8.713  11.480
31952SOL     OW97752  10.501   7.089   9.078
31952SOL    HW197753  10.523   7.129   9.162
31952SOL    HW297754  10.573   7.114   9.020
31953SOL     OW97755  14.470  12.210  10.652
31953SOL    HW197756  14.528  12.284  10.667
31953SOL    HW297757  14.520  12.134  10.682
31954SOL     OW97758   3.755  11.299   1.977
31954SOL    HW197759   3.715  11.213   1.993
31954SOL    HW297760   3.849  11.284   1.988
31955SOL     OW97761   7.367   8.640   1.850
31955SOL    HW197762   7.336   8.593   1.928
31955SOL    HW297763   7.290   8.689   1.820
31956SOL     OW97764  10.540   0.741   6.204
31956SOL    HW197765  10.549   0.820   6.256
31956SOL    HW297766  10.523   0.671   6.268
31957SOL     OW97767   6.340  12.457   6.275
31957SOL    HW197768   6.404  12.489   6.211
31957SOL    HW297769   6.282  12.532   6.289
31958SOL     OW97770  14.760   7.103   2.890
31958SOL    HW197771  14.800   7.121   2.805
31958SOL    HW297772  14.716   7.019   2.879
31959SOL     OW97773  13.455   6.073   3.241
31959SOL    HW197774  13.529   6.016   3.259
31959SOL    HW297775  13.447   6.127   3.319
31960SOL     OW97776  11.000  14.615   5.151
31960SOL    HW197777  10.931  14.601   5.086
31960SOL    HW297778  10.993  14.708   5.174
31961SOL     OW97779  14.042   3.766   5.640
31961SOL    HW197780  14.100   3.737   5.710
31961SOL    HW297781  14.023   3.857   5.660
31962SOL     OW97782   6.904   8.485   9.132
31962SOL    HW197783   6.888   8.556   9.194
31962SOL    HW297784   6.903   8.405   9.186
31963SOL     OW97785   6.487   3.705   8.220
31963SOL    HW197786   6.408   3.661   8.189
31963SOL    HW297787   6.553   3.635   8.225
31964SOL     OW97788  13.029  13.971   9.723
31964SOL    HW197789  13.005  13.979   9.631
31964SOL    HW297790  13.124  13.980   9.725
31965SOL     OW97791  14.100   1.829  11.748
31965SOL    HW197792  14.100   1.795  11.837
31965SOL    HW297793  14.172   1.893  11.747
31966SOL     OW97794   3.604   5.214   2.789
31966SOL    HW197795   3.667   5.197   2.719
31966SOL    HW297796   3.594   5.129   2.833
31967SOL     OW97797   3.335   8.610   4.434
31967SOL    HW197798   3.393   8.558   4.489
31967SOL    HW297799   3.258   8.627   4.489
31968SOL     OW97800   2.996   0.959   1.175
31968SOL    HW197801   2.934   1.031   1.191
31968SOL    HW297802   2.950   0.902   1.114
31969SOL     OW97803  12.040   5.051  13.694
31969SOL    HW197804  12.129   5.038  13.727
31969SOL    HW297805  12.041   5.139  13.657
31970SOL     OW97806  12.732   6.073   4.005
31970SOL    HW197807  12.662   6.122   3.962
31970SOL    HW297808  12.791   6.049   3.934
31971SOL     OW97809   0.668   7.915   2.626
31971SOL    HW197810   0.638   7.853   2.559
31971SOL    HW297811   0.602   7.985   2.625
31972SOL     OW97812   8.376   4.513  10.425
31972SOL    HW197813   8.419   4.461  10.357
31972SOL    HW297814   8.432   4.589  10.436
31973SOL     OW97815   3.613  13.393   4.381
31973SOL    HW197816   3.624  13.313   4.433
31973SOL    HW297817   3.672  13.456   4.423
31974SOL     OW97818   9.192   3.605  10.724
31974SOL    HW197819   9.105   3.620  10.689
31974SOL    HW297820   9.249   3.661  10.671
31975SOL     OW97821   2.586   7.264  12.059
31975SOL    HW197822   2.613   7.173  12.056
31975SOL    HW297823   2.490   7.261  12.067
31976SOL     OW97824  10.132   1.249   8.333
31976SOL    HW197825  10.165   1.301   8.259
31976SOL    HW297826  10.069   1.307   8.376
31977SOL     OW97827  13.289   9.552  12.509
31977SOL    HW197828  13.196   9.547  12.490
31977SOL    HW297829  13.308   9.645  12.516
31978SOL     OW97830  11.237   7.703  11.102
31978SOL    HW197831  11.176   7.766  11.063
31978SOL    HW297832  11.183   7.651  11.160
31979SOL     OW97833   8.823   1.309   5.814
31979SOL    HW197834   8.879   1.351   5.749
31979SOL    HW297835   8.769   1.248   5.764
31980SOL     OW97836  10.615   1.776   9.090
31980SOL    HW197837  10.616   1.851   9.032
31980SOL    HW297838  10.620   1.700   9.031
31981SOL     OW97839  12.180  11.526   1.266
31981SOL    HW197840  12.149  11.615   1.253
31981SOL    HW297841  12.102  11.476   1.290
31982SOL     OW97842   5.926   1.776   2.862
31982SOL    HW197843   5.939   1.864   2.897
31982SOL    HW297844   5.986   1.771   2.787
31983SOL     OW97845   0.334   0.554  12.961
31983SOL    HW197846   0.347   0.535  13.054
31983SOL    HW297847   0.252   0.509  12.939
31984SOL     OW97848  11.349  14.634   6.269
31984SOL    HW197849  11.254  14.623   6.261
31984SOL    HW297850  11.360  14.705   6.332
31985SOL     OW97851   7.500   6.101   8.411
31985SOL    HW197852   7.537   6.023   8.371
31985SOL    HW297853   7.564   6.170   8.392
31986SOL     OW97854   4.550   8.478   6.790
31986SOL    HW197855   4.496   8.556   6.788
31986SOL    HW297856   4.588   8.472   6.702
31987SOL     OW97857   9.087   6.001  10.272
31987SOL    HW197858   9.056   5.994  10.182
31987SOL    HW297859   9.166   5.947  10.275
31988SOL     OW97860  11.434   2.177   1.899
31988SOL    HW197861  11.528   2.156   1.902
31988SOL    HW297862  11.392   2.095   1.874
31989SOL     OW97863  13.657   9.353   6.713
31989SOL    HW197864  13.598   9.279   6.729
31989SOL    HW297865  13.682   9.344   6.621
31990SOL     OW97866   0.824   9.004   6.657
31990SOL    HW197867   0.801   9.094   6.636
31990SOL    HW297868   0.900   9.011   6.715
31991SOL     OW97869   3.216   3.550   5.130
31991SOL    HW197870   3.211   3.628   5.185
31991SOL    HW297871   3.151   3.490   5.166
31992SOL     OW97872   4.444   2.780   8.525
31992SOL    HW197873   4.374   2.719   8.502
31992SOL    HW297874   4.465   2.825   8.443
31993SOL     OW97875  13.874   2.027  11.760
31993SOL    HW197876  13.918   1.973  11.694
31993SOL    HW297877  13.896   1.986  11.843
31994SOL     OW97878   1.004   1.774  12.889
31994SOL    HW197879   1.062   1.708  12.927
31994SOL    HW297880   1.033   1.781  12.798
31995SOL     OW97881   7.092   4.009   3.352
31995SOL    HW197882   7.022   4.038   3.294
31995SOL    HW297883   7.048   3.991   3.435
31996SOL     OW97884  12.577   1.132  12.202
31996SOL    HW197885  12.505   1.182  12.164
31996SOL    HW297886  12.534   1.069  12.261
31997SOL     OW97887   5.236   8.292   2.838
31997SOL    HW197888   5.189   8.256   2.914
31997SOL    HW297889   5.172   8.289   2.767
31998SOL     OW97890   8.836   0.016  14.182
31998SOL    HW197891   8.888   0.092  14.211
31998SOL    HW297892   8.817  14.851  14.263
31999SOL     OW97893  13.318   3.551  10.497
31999SOL    HW197894  13.406   3.551  10.458
31999SOL    HW297895  13.325   3.490  10.571
32000SOL     OW97896   8.426  14.748   7.503
32000SOL    HW197897   8.377  14.731   7.583
32000SOL    HW297898   8.359  14.757   7.435
32001SOL     OW97899  13.960  13.075   9.220
32001SOL    HW197900  13.917  13.116   9.145
32001SOL    HW297901  13.913  13.107   9.296
32002SOL     OW97902   9.423  11.829   1.870
32002SOL    HW197903   9.494  11.805   1.930
32002SOL    HW297904   9.461  11.896   1.813
32003SOL     OW97905   7.277   5.080   8.555
32003SOL    HW197906   7.279   4.985   8.546
32003SOL    HW297907   7.215   5.096   8.627
32004SOL     OW97908   1.363   1.359  12.902
32004SOL    HW197909   1.358   1.338  12.809
32004SOL    HW297910   1.333   1.279  12.947
32005SOL     OW97911   8.646   0.851   0.409
32005SOL    HW197912   8.653   0.821   0.319
32005SOL    HW297913   8.682   0.779   0.461
32006SOL     OW97914  13.605   1.886  10.667
32006SOL    HW197915  13.627   1.819  10.603
32006SOL    HW297916  13.585   1.964  10.615
32007SOL     OW97917  10.956   3.252   1.246
32007SOL    HW197918  10.878   3.200   1.226
32007SOL    HW297919  10.926   3.343   1.244
32008SOL     OW97920   8.563   2.013   5.299
32008SOL    HW197921   8.595   1.937   5.348
32008SOL    HW297922   8.607   2.007   5.214
32009SOL     OW97923   9.457   9.462   6.079
32009SOL    HW197924   9.440   9.463   5.985
32009SOL    HW297925   9.420   9.544   6.111
32010SOL     OW97926  10.043  12.458   3.506
32010SOL    HW197927  10.099  12.383   3.488
32010SOL    HW297928   9.966  12.444   3.449
32011SOL     OW97929   9.777   7.330   4.970
32011SOL    HW197930   9.685   7.306   4.987
32011SOL    HW297931   9.796   7.292   4.884
32012SOL     OW97932   4.798  12.654   1.054
32012SOL    HW197933   4.736  12.723   1.080
32012SOL    HW297934   4.875  12.701   1.022
32013SOL     OW97935   1.598   0.074   6.687
32013SOL    HW197936   1.604   0.145   6.622
32013SOL    HW297937   1.509   0.041   6.676
32014SOL     OW97938  10.038   6.769   7.389
32014SOL    HW197939   9.984   6.801   7.461
32014SOL    HW297940   9.994   6.690   7.359
32015SOL     OW97941  10.491   0.697  13.116
32015SOL    HW197942  10.555   0.725  13.051
32015SOL    HW297943  10.407   0.730  13.084
32016SOL     OW97944  12.847  11.616   7.360
32016SOL    HW197945  12.808  11.538   7.319
32016SOL    HW297946  12.810  11.689   7.311
32017SOL     OW97947   0.617   5.404  14.470
32017SOL    HW197948   0.604   5.345  14.544
32017SOL    HW297949   0.676   5.472  14.503
32018SOL     OW97950  14.367   3.666   8.852
32018SOL    HW197951  14.358   3.624   8.766
32018SOL    HW297952  14.385   3.594   8.912
32019SOL     OW97953   8.827  11.339   2.620
32019SOL    HW197954   8.856  11.287   2.695
32019SOL    HW297955   8.748  11.295   2.590
32020SOL     OW97956   2.020   1.196   8.028
32020SOL    HW197957   1.978   1.225   7.948
32020SOL    HW297958   2.112   1.189   8.006
32021SOL     OW97959  13.996  14.400  13.767
32021SOL    HW197960  13.989  14.486  13.725
32021SOL    HW297961  14.030  14.342  13.699
32022SOL     OW97962  14.537  12.867  14.363
32022SOL    HW197963  14.535  12.941  14.302
32022SOL    HW297964  14.507  12.904  14.446
32023SOL     OW97965  11.839   6.671  11.420
32023SOL    HW197966  11.903   6.620  11.370
32023SOL    HW297967  11.803   6.608  11.482
32024SOL     OW97968   0.658   4.178  10.229
32024SOL    HW197969   0.638   4.185  10.322
32024SOL    HW297970   0.604   4.106  10.198
32025SOL     OW97971   9.073  14.559  12.556
32025SOL    HW197972   9.051  14.616  12.482
32025SOL    HW297973   9.168  14.550  12.553
32026SOL     OW97974   0.604   3.201  12.733
32026SOL    HW197975   0.628   3.269  12.671
32026SOL    HW297976   0.593   3.246  12.817
32027SOL     OW97977   9.299   6.995  10.571
32027SOL    HW197978   9.366   6.974  10.506
32027SOL    HW297979   9.227   6.935  10.550
32028SOL     OW97980   4.366  14.202   3.765
32028SOL    HW197981   4.372  14.151   3.846
32028SOL    HW297982   4.443  14.175   3.715
32029SOL     OW97983  10.367  13.262  13.467
32029SOL    HW197984  10.400  13.278  13.378
32029SOL    HW297985  10.351  13.167  13.469
32030SOL     OW97986   1.858   4.145  11.887
32030SOL    HW197987   1.802   4.076  11.922
32030SOL    HW297988   1.812   4.176  11.809
32031SOL     OW97989  11.454  11.855   0.693
32031SOL    HW197990  11.515  11.894   0.755
32031SOL    HW297991  11.500  11.779   0.658
32032SOL     OW97992   1.881   7.074  14.521
32032SOL    HW197993   1.923   7.159  14.501
32032SOL    HW297994   1.871   7.032  14.436
32033SOL     OW97995  14.353   1.066   7.622
32033SOL    HW197996  14.267   1.105   7.639
32033SOL    HW297997  14.410   1.140   7.601
32034SOL     OW97998  13.160   2.760   1.862
32034SOL    HW197999  13.115   2.802   1.936
32034SOL    HW298000  13.096   2.761   1.791
32035SOL     OW98001   9.123  12.830   9.414
32035SOL    HW198002   9.110  12.756   9.354
32035SOL    HW298003   9.143  12.790   9.498
32036SOL     OW98004   1.412   4.379  14.299
32036SOL    HW198005   1.434   4.329  14.220
32036SOL    HW298006   1.360   4.318  14.352
32037SOL     OW98007   9.501  12.775  13.349
32037SOL    HW198008   9.418  12.823  13.356
32037SOL    HW298009   9.486  12.713  13.277
32038SOL     OW98010   0.600   8.328  14.599
32038SOL    HW198011   0.636   8.241  14.583
32038SOL    HW298012   0.655   8.387  14.548
32039SOL     OW98013   8.694  10.452  12.213
32039SOL    HW198014   8.675  10.364  12.246
32039SOL    HW298015   8.725  10.500  12.289
32040SOL     OW98016  14.715   9.334   0.913
32040SOL    HW198017  14.664   9.379   0.845
32040SOL    HW298018  14.804   9.367   0.901
32041SOL     OW98019   4.269   5.861   7.087
32041SOL    HW198020   4.174   5.860   7.097
32041SOL    HW298021   4.290   5.775   7.049
32042SOL     OW98022  14.698   1.782  10.271
32042SOL    HW198023  14.652   1.849  10.221
32042SOL    HW298024  14.634   1.753  10.336
32043SOL     OW98025  13.367  10.474  13.478
32043SOL    HW198026  13.451  10.514  13.496
32043SOL    HW298027  13.348  10.495  13.387
32044SOL     OW98028   9.860   0.114  10.736
32044SOL    HW198029   9.861   0.043  10.800
32044SOL    HW298030   9.840   0.071  10.652
32045SOL     OW98031  14.414   2.380   3.422
32045SOL    HW198032  14.346   2.344   3.479
32045SOL    HW298033  14.370   2.397   3.339
32046SOL     OW98034   4.089  14.641  13.265
32046SOL    HW198035   4.071  14.662  13.173
32046SOL    HW298036   4.182  14.620  13.267
32047SOL     OW98037   0.061   8.465   3.687
32047SOL    HW198038   0.112   8.491   3.610
32047SOL    HW298039   0.078   8.534   3.751
32048SOL     OW98040   2.109   0.835   3.668
32048SOL    HW198041   2.202   0.845   3.688
32048SOL    HW298042   2.067   0.829   3.754
32049SOL     OW98043   4.290  12.730   4.374
32049SOL    HW198044   4.349  12.784   4.322
32049SOL    HW298045   4.215  12.786   4.392
32050SOL     OW98046   6.150  11.761   5.000
32050SOL    HW198047   6.199  11.681   4.977
32050SOL    HW298048   6.215  11.818   5.041
32051SOL     OW98049   2.546   1.731   1.764
32051SOL    HW198050   2.585   1.800   1.710
32051SOL    HW298051   2.555   1.651   1.712
32052SOL     OW98052   3.211   8.353   5.572
32052SOL    HW198053   3.139   8.395   5.619
32052SOL    HW298054   3.234   8.277   5.626
32053SOL     OW98055   9.228  13.903  14.430
32053SOL    HW198056   9.313  13.942  14.446
32053SOL    HW298057   9.169  13.946  14.492
32054SOL     OW98058   3.718   6.944   7.072
32054SOL    HW198059   3.775   7.016   7.046
32054SOL    HW298060   3.679   6.913   6.990
32055SOL     OW98061   6.218  12.030  13.459
32055SOL    HW198062   6.214  12.122  13.483
32055SOL    HW298063   6.224  12.029  13.364
32056SOL     OW98064  14.149   4.114  12.853
32056SOL    HW198065  14.182   4.026  12.833
32056SOL    HW298066  14.114   4.146  12.771
32057SOL     OW98067  13.320   6.470   4.302
32057SOL    HW198068  13.359   6.492   4.387
32057SOL    HW298069  13.244   6.416   4.324
32058SOL     OW98070   9.030   6.769   4.605
32058SOL    HW198071   8.972   6.843   4.624
32058SOL    HW298072   8.974   6.705   4.560
32059SOL     OW98073   2.932   4.277   6.480
32059SOL    HW198074   2.871   4.340   6.443
32059SOL    HW298075   2.927   4.290   6.575
32060SOL     OW98076   8.733   6.156  10.636
32060SOL    HW198077   8.777   6.082  10.594
32060SOL    HW298078   8.708   6.213  10.563
32061SOL     OW98079   1.898   6.247   5.374
32061SOL    HW198080   1.849   6.261   5.455
32061SOL    HW298081   1.830   6.224   5.310
32062SOL     OW98082   7.709  11.151   7.707
32062SOL    HW198083   7.643  11.124   7.643
32062SOL    HW298084   7.697  11.091   7.781
32063SOL     OW98085   1.972   7.875   7.573
32063SOL    HW198086   2.064   7.859   7.550
32063SOL    HW298087   1.959   7.828   7.655
32064SOL     OW98088   9.725   3.214  14.727
32064SOL    HW198089   9.815   3.191  14.704
32064SOL    HW298090   9.720   3.309  14.712
32065SOL     OW98091   2.823  12.883   3.516
32065SOL    HW198092   2.775  12.818   3.567
32065SOL    HW298093   2.916  12.861   3.530
32066SOL     OW98094   3.945   5.936  10.828
32066SOL    HW198095   3.891   5.980  10.894
32066SOL    HW298096   3.919   5.978  10.745
32067SOL     OW98097   5.260   1.651   4.854
32067SOL    HW198098   5.283   1.670   4.945
32067SOL    HW298099   5.339   1.674   4.804
32068SOL     OW98100   2.879   2.789   4.529
32068SOL    HW198101   2.890   2.758   4.439
32068SOL    HW298102   2.963   2.771   4.571
32069SOL     OW98103  14.020  13.802  11.515
32069SOL    HW198104  13.931  13.835  11.524
32069SOL    HW298105  14.033  13.747  11.593
32070SOL     OW98106   0.649   4.224   8.089
32070SOL    HW198107   0.645   4.226   8.185
32070SOL    HW298108   0.704   4.149   8.068
32071SOL     OW98109  12.415  14.472   0.947
32071SOL    HW198110  12.340  14.413   0.940
32071SOL    HW298111  12.386  14.552   0.904
32072SOL     OW98112   6.352   7.833   7.489
32072SOL    HW198113   6.345   7.900   7.557
32072SOL    HW298114   6.428   7.781   7.515
32073SOL     OW98115   5.114   2.250   5.656
32073SOL    HW198116   5.084   2.216   5.572
32073SOL    HW298117   5.209   2.245   5.652
32074SOL     OW98118   7.372   6.932   2.119
32074SOL    HW198119   7.362   7.024   2.095
32074SOL    HW298120   7.282   6.901   2.131
32075SOL     OW98121   2.055   6.862   5.606
32075SOL    HW198122   1.996   6.937   5.596
32075SOL    HW298123   2.128   6.896   5.657
32076SOL     OW98124   7.253   8.999   5.600
32076SOL    HW198125   7.270   9.093   5.607
32076SOL    HW298126   7.329   8.964   5.553
32077SOL     OW98127   9.687   9.833   6.552
32077SOL    HW198128   9.663   9.925   6.568
32077SOL    HW298129   9.765   9.839   6.497
32078SOL     OW98130   6.333   0.579   6.137
32078SOL    HW198131   6.371   0.666   6.151
32078SOL    HW298132   6.389   0.538   6.071
32079SOL     OW98133   5.767   3.195  12.399
32079SOL    HW198134   5.748   3.128  12.333
32079SOL    HW298135   5.681   3.228  12.425
32080SOL     OW98136  11.291  12.859  10.759
32080SOL    HW198137  11.383  12.877  10.778
32080SOL    HW298138  11.259  12.940  10.719
32081SOL     OW98139   7.511   5.079  11.991
32081SOL    HW198140   7.548   5.004  11.944
32081SOL    HW298141   7.573   5.150  11.977
32082SOL     OW98142  10.915   6.713  12.026
32082SOL    HW198143  10.840   6.746  11.976
32082SOL    HW298144  10.894   6.733  12.117
32083SOL     OW98145   2.395   8.102   3.404
32083SOL    HW198146   2.342   8.062   3.335
32083SOL    HW298147   2.446   8.030   3.440
32084SOL     OW98148  14.429   3.322  12.140
32084SOL    HW198149  14.504   3.296  12.194
32084SOL    HW298150  14.387   3.239  12.116
32085SOL     OW98151   5.528  14.385   3.040
32085SOL    HW198152   5.578  14.451   3.090
32085SOL    HW298153   5.533  14.415   2.950
32086SOL     OW98154  11.798   2.448   9.159
32086SOL    HW198155  11.766   2.494   9.236
32086SOL    HW298156  11.777   2.356   9.175
32087SOL     OW98157   1.777   7.037   2.789
32087SOL    HW198158   1.728   7.095   2.847
32087SOL    HW298159   1.851   7.008   2.841
32088SOL     OW98160   6.426  10.851   9.485
32088SOL    HW198161   6.447  10.757   9.488
32088SOL    HW298162   6.340  10.858   9.525
32089SOL     OW98163   9.721  11.539  14.453
32089SOL    HW198164   9.767  11.596  14.391
32089SOL    HW298165   9.678  11.473  14.399
32090SOL     OW98166   3.802  11.746   2.076
32090SOL    HW198167   3.802  11.814   2.009
32090SOL    HW298168   3.744  11.678   2.042
32091SOL     OW98169  12.331  11.157   4.162
32091SOL    HW198170  12.404  11.098   4.143
32091SOL    HW298171  12.253  11.105   4.142
32092SOL     OW98172   6.568  14.863   0.023
32092SOL    HW198173   6.539   0.031  14.829
32092SOL    HW298174   6.663  14.853   0.010
32093SOL     OW98175   4.964  11.318  10.848
32093SOL    HW198176   5.002  11.379  10.785
32093SOL    HW298177   4.919  11.253  10.794
32094SOL     OW98178   2.740  14.114  12.041
32094SOL    HW198179   2.681  14.077  11.974
32094SOL    HW298180   2.734  14.052  12.114
32095SOL     OW98181   1.818   2.649  12.273
32095SOL    HW198182   1.836   2.568  12.321
32095SOL    HW298183   1.890   2.657  12.210
32096SOL     OW98184   1.236   2.171  14.259
32096SOL    HW198185   1.226   2.123  14.177
32096SOL    HW298186   1.219   2.262  14.236
32097SOL     OW98187   5.166  14.525   9.962
32097SOL    HW198188   5.235  14.512   9.897
32097SOL    HW298189   5.135  14.614   9.946
32098SOL     OW98190   1.240   3.030   5.150
32098SOL    HW198191   1.292   2.950   5.159
32098SOL    HW298192   1.205   3.047   5.237
32099SOL     OW98193   0.050   9.523   0.396
32099SOL    HW198194   0.082   9.559   0.479
32099SOL    HW298195   0.043   9.429   0.413
32100SOL     OW98196   8.987  11.130   3.858
32100SOL    HW198197   8.902  11.175   3.853
32100SOL    HW298198   9.006  11.106   3.767
32101SOL     OW98199   7.588  10.439   8.875
32101SOL    HW198200   7.610  10.420   8.784
32101SOL    HW298201   7.579  10.353   8.917
32102SOL     OW98202   4.551   2.119   3.003
32102SOL    HW198203   4.623   2.113   3.066
32102SOL    HW298204   4.490   2.049   3.028
32103SOL     OW98205   7.976   4.171   5.051
32103SOL    HW198206   8.025   4.234   5.103
32103SOL    HW298207   7.969   4.210   4.964
32104SOL     OW98208  11.356  14.476   7.239
32104SOL    HW198209  11.306  14.412   7.188
32104SOL    HW298210  11.326  14.464   7.329
32105SOL     OW98211   9.333  10.186   5.929
32105SOL    HW198212   9.380  10.113   5.968
32105SOL    HW298213   9.289  10.229   6.002
32106SOL     OW98214  11.949   5.931  11.148
32106SOL    HW198215  11.862   5.949  11.184
32106SOL    HW298216  11.949   5.974  11.063
32107SOL     OW98217   9.528  11.486   6.702
32107SOL    HW198218   9.440  11.524   6.700
32107SOL    HW298219   9.563  11.501   6.614
32108SOL     OW98220  10.743   7.239   2.906
32108SOL    HW198221  10.673   7.269   2.964
32108SOL    HW298222  10.722   7.147   2.889
32109SOL     OW98223   6.486  11.307  14.705
32109SOL    HW198224   6.551  11.287  14.773
32109SOL    HW298225   6.496  11.400  14.689
32110SOL     OW98226   4.752   6.870   0.270
32110SOL    HW198227   4.706   6.805   0.322
32110SOL    HW298228   4.709   6.868   0.184
32111SOL     OW98229  12.262  12.229   5.507
32111SOL    HW198230  12.231  12.320   5.505
32111SOL    HW298231  12.262  12.206   5.599
32112SOL     OW98232   1.765   6.366   7.523
32112SOL    HW198233   1.742   6.316   7.444
32112SOL    HW298234   1.714   6.325   7.593
32113SOL     OW98235   7.162   3.600   8.023
32113SOL    HW198236   7.225   3.547   8.071
32113SOL    HW298237   7.198   3.606   7.934
32114SOL     OW98238   1.878  13.651   4.941
32114SOL    HW198239   1.789  13.684   4.931
32114SOL    HW298240   1.932  13.712   4.891
32115SOL     OW98241   6.670   9.569   6.225
32115SOL    HW198242   6.758   9.603   6.241
32115SOL    HW298243   6.679   9.474   6.231
32116SOL     OW98244   0.759   4.933   9.663
32116SOL    HW198245   0.672   4.963   9.636
32116SOL    HW298246   0.818   4.967   9.596
32117SOL     OW98247   6.595  11.080   9.504
32117SOL    HW198248   6.549  10.998   9.521
32117SOL    HW298249   6.525  11.143   9.485
32118SOL     OW98250   8.624   4.627   0.668
32118SOL    HW198251   8.547   4.585   0.707
32118SOL    HW298252   8.698   4.574   0.698
32119SOL     OW98253   7.545   2.058  13.117
32119SOL    HW198254   7.450   2.047  13.112
32119SOL    HW298255   7.577   1.975  13.153
32120SOL     OW98256   1.977   1.616   0.760
32120SOL    HW198257   2.072   1.602   0.761
32120SOL    HW298258   1.940   1.528   0.765
32121SOL     OW98259   5.974  11.114   2.786
32121SOL    HW198260   6.019  11.188   2.744
32121SOL    HW298261   6.040  11.075   2.843
32122SOL     OW98262  11.464   4.342   1.516
32122SOL    HW198263  11.430   4.411   1.574
32122SOL    HW298264  11.554   4.329   1.546
32123SOL     OW98265   3.404   6.368  13.107
32123SOL    HW198266   3.485   6.414  13.084
32123SOL    HW298267   3.335   6.420  13.067
32124SOL     OW98268   7.915   6.521   8.281
32124SOL    HW198269   8.009   6.510   8.293
32124SOL    HW298270   7.907   6.579   8.206
32125SOL     OW98271   6.329  14.178  13.190
32125SOL    HW198272   6.375  14.095  13.187
32125SOL    HW298273   6.336  14.208  13.281
32126SOL     OW98274   2.070   6.829   2.351
32126SOL    HW198275   2.064   6.740   2.385
32126SOL    HW298276   2.156   6.834   2.310
32127SOL     OW98277  14.020   8.594  11.978
32127SOL    HW198278  13.955   8.659  11.950
32127SOL    HW298279  14.083   8.591  11.906
32128SOL     OW98280  13.073   4.582  10.312
32128SOL    HW198281  13.145   4.606  10.253
32128SOL    HW298282  13.117   4.550  10.391
32129SOL     OW98283   3.895   6.399   0.115
32129SOL    HW198284   3.986   6.379   0.135
32129SOL    HW298285   3.893   6.413   0.021
32130SOL     OW98286   0.585   2.802   4.857
32130SOL    HW198287   0.626   2.773   4.938
32130SOL    HW298288   0.495   2.772   4.863
32131SOL     OW98289   9.569  12.831   2.081
32131SOL    HW198290   9.572  12.799   1.990
32131SOL    HW298291   9.659  12.853   2.101
32132SOL     OW98292   3.025   0.486   7.995
32132SOL    HW198293   3.084   0.419   7.962
32132SOL    HW298294   3.018   0.550   7.924
32133SOL     OW98295  14.625  13.579   8.127
32133SOL    HW198296  14.717  13.608   8.127
32133SOL    HW298297  14.622  13.508   8.191
32134SOL     OW98298  12.366   1.679  11.870
32134SOL    HW198299  12.353   1.711  11.781
32134SOL    HW298300  12.458   1.698  11.889
32135SOL     OW98301   9.756   9.138  10.425
32135SOL    HW198302   9.739   9.099  10.339
32135SOL    HW298303   9.827   9.085  10.461
32136SOL     OW98304  12.973  10.669   7.107
32136SOL    HW198305  12.964  10.713   7.023
32136SOL    HW298306  13.067  10.671   7.124
32137SOL     OW98307  13.107   1.905  12.502
32137SOL    HW198308  13.102   1.852  12.582
32137SOL    HW298309  13.054   1.858  12.438
32138SOL     OW98310  12.180  10.850   1.193
32138SOL    HW198311  12.097  10.844   1.145
32138SOL    HW298312  12.245  10.869   1.125
32139SOL     OW98313   3.790   2.228   3.957
32139SOL    HW198314   3.826   2.307   3.995
32139SOL    HW298315   3.774   2.170   4.031
32140SOL     OW98316   5.847   9.635  12.695
32140SOL    HW198317   5.770   9.632  12.750
32140SOL    HW298318   5.840   9.718  12.648
32141SOL     OW98319  13.362   8.744  11.022
32141SOL    HW198320  13.302   8.742  10.947
32141SOL    HW298321  13.368   8.837  11.044
32142SOL     OW98322   8.502  14.419   7.521
32142SOL    HW198323   8.498  14.391   7.612
32142SOL    HW298324   8.426  14.475   7.509
32143SOL     OW98325  14.849  10.832  12.339
32143SOL    HW198326  14.850  10.873  12.252
32143SOL    HW298327  14.759  10.842  12.369
32144SOL     OW98328   3.311   9.372   9.518
32144SOL    HW198329   3.348   9.354   9.432
32144SOL    HW298330   3.216   9.373   9.503
32145SOL     OW98331   5.048   3.950   8.671
32145SOL    HW198332   5.090   4.024   8.627
32145SOL    HW298333   4.972   3.930   8.617
32146SOL     OW98334   6.524   2.157  11.428
32146SOL    HW198335   6.527   2.208  11.347
32146SOL    HW298336   6.593   2.194  11.482
32147SOL     OW98337   8.048   2.163   4.153
32147SOL    HW198338   7.952   2.155   4.147
32147SOL    HW298339   8.062   2.226   4.224
32148SOL     OW98340   6.807  12.029  12.582
32148SOL    HW198341   6.833  12.067  12.666
32148SOL    HW298342   6.872  12.062  12.520
32149SOL     OW98343   3.005   7.425  12.060
32149SOL    HW198344   2.955   7.434  11.978
32149SOL    HW298345   2.962   7.353  12.105
32150SOL     OW98346  13.100   1.844   5.069
32150SOL    HW198347  13.181   1.870   5.026
32150SOL    HW298348  13.031   1.888   5.020
32151SOL     OW98349  13.783   2.702  11.313
32151SOL    HW198350  13.855   2.648  11.282
32151SOL    HW298351  13.794   2.785  11.266
32152SOL     OW98352   5.333  13.214   7.904
32152SOL    HW198353   5.285  13.295   7.923
32152SOL    HW298354   5.296  13.183   7.821
32153SOL     OW98355  13.822  11.081   5.263
32153SOL    HW198356  13.834  11.071   5.357
32153SOL    HW298357  13.866  11.163   5.241
32154SOL     OW98358   0.288   7.726  10.846
32154SOL    HW198359   0.268   7.636  10.872
32154SOL    HW298360   0.228   7.744  10.773
32155SOL     OW98361   1.423   3.142  14.384
32155SOL    HW198362   1.404   3.054  14.417
32155SOL    HW298363   1.434   3.130  14.289
32156SOL     OW98364   6.374   7.815   1.880
32156SOL    HW198365   6.292   7.768   1.896
32156SOL    HW298366   6.347   7.902   1.852
32157SOL     OW98367  10.569   0.553   4.374
32157SOL    HW198368  10.519   0.583   4.450
32157SOL    HW298369  10.580   0.459   4.388
32158SOL     OW98370   0.211   4.057   1.060
32158SOL    HW198371   0.263   4.137   1.059
32158SOL    HW298372   0.164   4.058   0.977
32159SOL     OW98373   6.549  10.461   7.583
32159SOL    HW198374   6.568  10.462   7.489
32159SOL    HW298375   6.536  10.368   7.603
32160SOL     OW98376   7.627   1.388  11.480
32160SOL    HW198377   7.664   1.387  11.568
32160SOL    HW298378   7.686   1.332  11.428
32161SOL     OW98379  12.416   4.532   2.485
32161SOL    HW198380  12.505   4.567   2.482
32161SOL    HW298381  12.393   4.534   2.578
32162SOL     OW98382   6.958   4.094  13.400
32162SOL    HW198383   6.964   4.056  13.487
32162SOL    HW298384   7.016   4.170  13.404
32163SOL     OW98385  10.554  14.102   7.951
32163SOL    HW198386  10.544  14.156   8.029
32163SOL    HW298387  10.564  14.165   7.880
32164SOL     OW98388   6.242  12.835   0.296
32164SOL    HW198389   6.248  12.740   0.288
32164SOL    HW298390   6.304  12.858   0.366
32165SOL     OW98391   2.976  12.200   0.616
32165SOL    HW198392   2.911  12.267   0.592
32165SOL    HW298393   2.936  12.118   0.589
32166SOL     OW98394   0.926   9.230  12.434
32166SOL    HW198395   1.016   9.251  12.457
32166SOL    HW298396   0.912   9.274  12.350
32167SOL     OW98397  13.478   0.787  13.440
32167SOL    HW198398  13.512   0.723  13.378
32167SOL    HW298399  13.386   0.799  13.415
32168SOL     OW98400  14.831   3.572   2.793
32168SOL    HW198401  14.847   3.504   2.859
32168SOL    HW298402  14.875   3.649   2.829
32169SOL     OW98403   1.257  13.238  13.060
32169SOL    HW198404   1.320  13.187  13.011
32169SOL    HW298405   1.302  13.259  13.142
32170SOL     OW98406   5.113   8.779   9.536
32170SOL    HW198407   5.173   8.805   9.606
32170SOL    HW298408   5.123   8.684   9.529
32171SOL     OW98409   8.557  13.700   7.013
32171SOL    HW198410   8.646  13.728   6.992
32171SOL    HW298411   8.506  13.720   6.935
32172SOL     OW98412   9.078   0.432  12.881
32172SOL    HW198413   9.031   0.348  12.889
32172SOL    HW298414   9.068   0.456  12.789
32173SOL     OW98415  14.790   4.772  11.096
32173SOL    HW198416  14.725   4.706  11.074
32173SOL    HW298417  14.872   4.738  11.060
32174SOL     OW98418  12.519   6.313  12.387
32174SOL    HW198419  12.542   6.220  12.382
32174SOL    HW298420  12.445   6.315  12.448
32175SOL     OW98421   5.665   4.137   9.752
32175SOL    HW198422   5.680   4.112   9.661
32175SOL    HW298423   5.726   4.209   9.768
32176SOL     OW98424   5.194  13.964   3.588
32176SOL    HW198425   5.209  14.057   3.576
32176SOL    HW298426   5.235  13.923   3.512
32177SOL     OW98427   9.468   3.099   2.330
32177SOL    HW198428   9.441   3.044   2.257
32177SOL    HW298429   9.455   3.189   2.299
32178SOL     OW98430   4.287  10.194  11.529
32178SOL    HW198431   4.362  10.147  11.565
32178SOL    HW298432   4.264  10.258  11.597
32179SOL     OW98433   9.585   0.016   8.689
32179SOL    HW198434   9.644  14.827   8.667
32179SOL    HW298435   9.510  14.855   8.730
32180SOL     OW98436  14.459   7.203   7.582
32180SOL    HW198437  14.437   7.237   7.495
32180SOL    HW298438  14.503   7.276   7.626
32181SOL     OW98439   6.004   4.308   3.203
32181SOL    HW198440   6.057   4.387   3.193
32181SOL    HW298441   5.932   4.334   3.260
32182SOL     OW98442  13.979   3.666   1.263
32182SOL    HW198443  14.053   3.702   1.311
32182SOL    HW298444  14.010   3.657   1.173
32183SOL     OW98445   0.490   5.436   7.543
32183SOL    HW198446   0.437   5.357   7.531
32183SOL    HW298447   0.462   5.494   7.472
32184SOL     OW98448   4.427   6.953   8.637
32184SOL    HW198449   4.411   7.040   8.672
32184SOL    HW298450   4.407   6.894   8.710
32185SOL     OW98451   1.290   4.050   4.434
32185SOL    HW198452   1.279   3.968   4.481
32185SOL    HW298453   1.202   4.071   4.401
32186SOL     OW98454  14.509   4.354   5.150
32186SOL    HW198455  14.462   4.428   5.187
32186SOL    HW298456  14.527   4.297   5.226
32187SOL     OW98457   7.806  13.377  13.357
32187SOL    HW198458   7.828  13.357  13.266
32187SOL    HW298459   7.815  13.293  13.403
32188SOL     OW98460   2.183   3.197   4.534
32188SOL    HW198461   2.240   3.128   4.501
32188SOL    HW298462   2.233   3.239   4.605
32189SOL     OW98463  12.022   2.382   0.523
32189SOL    HW198464  11.957   2.413   0.586
32189SOL    HW298465  11.970   2.344   0.452
32190SOL     OW98466  14.292   9.529  10.941
32190SOL    HW198467  14.220   9.572  10.895
32190SOL    HW298468  14.338   9.599  10.986
32191SOL     OW98469  14.351   4.835   0.318
32191SOL    HW198470  14.390   4.920   0.296
32191SOL    HW298471  14.403   4.804   0.392
32192SOL     OW98472  13.266   6.524  13.315
32192SOL    HW198473  13.272   6.617  13.335
32192SOL    HW298474  13.262   6.519  13.219
32193SOL     OW98475   6.709  10.703  13.781
32193SOL    HW198476   6.627  10.678  13.823
32193SOL    HW298477   6.777  10.683  13.845
32194SOL     OW98478   8.632   4.254  11.753
32194SOL    HW198479   8.601   4.331  11.706
32194SOL    HW298480   8.647   4.285  11.842
32195SOL     OW98481   2.706   2.570   7.688
32195SOL    HW198482   2.748   2.559   7.603
32195SOL    HW298483   2.771   2.541   7.752
32196SOL     OW98484  11.604  13.044   2.387
32196SOL    HW198485  11.570  12.965   2.344
32196SOL    HW298486  11.590  13.114   2.323
32197SOL     OW98487   8.705   6.153  13.687
32197SOL    HW198488   8.610   6.158  13.678
32197SOL    HW298489   8.733   6.094  13.617
32198SOL     OW98490   5.211  10.178   7.754
32198SOL    HW198491   5.148  10.126   7.805
32198SOL    HW298492   5.169  10.189   7.669
32199SOL     OW98493   5.273   9.845   9.485
32199SOL    HW198494   5.367   9.855   9.504
32199SOL    HW298495   5.231   9.844   9.571
32200SOL     OW98496  14.582   8.573   4.554
32200SOL    HW198497  14.604   8.603   4.466
32200SOL    HW298498  14.667   8.565   4.598
32201SOL     OW98499   3.625   5.209   6.090
32201SOL    HW198500   3.590   5.264   6.159
32201SOL    HW298501   3.600   5.120   6.115
32202SOL     OW98502   8.082   3.109  13.667
32202SOL    HW198503   8.164   3.060  13.665
32202SOL    HW298504   8.021   3.051  13.713
32203SOL     OW98505   8.376   7.234   3.026
32203SOL    HW198506   8.365   7.182   3.105
32203SOL    HW298507   8.470   7.235   3.010
32204SOL     OW98508   9.441   1.370   9.767
32204SOL    HW198509   9.369   1.350   9.827
32204SOL    HW298510   9.400   1.375   9.681
32205SOL     OW98511   6.139  13.642   4.109
32205SOL    HW198512   6.222  13.615   4.069
32205SOL    HW298513   6.110  13.565   4.158
32206SOL     OW98514   9.499   1.290   3.277
32206SOL    HW198515   9.546   1.364   3.315
32206SOL    HW298516   9.407   1.317   3.278
32207SOL     OW98517   1.824   8.488   3.407
32207SOL    HW198518   1.877   8.539   3.468
32207SOL    HW298519   1.821   8.541   3.327
32208SOL     OW98520  10.911   7.603  10.770
32208SOL    HW198521  10.992   7.636  10.808
32208SOL    HW298522  10.861   7.682  10.748
32209SOL     OW98523  14.314   0.866   2.950
32209SOL    HW198524  14.401   0.874   2.910
32209SOL    HW298525  14.254   0.854   2.876
32210SOL     OW98526  14.800   0.984   4.940
32210SOL    HW198527   0.010   0.994   4.915
32210SOL    HW298528  14.762   1.071   4.928
32211SOL     OW98529   4.653   8.187  14.367
32211SOL    HW198530   4.658   8.092  14.362
32211SOL    HW298531   4.618   8.205  14.454
32212SOL     OW98532   0.379   4.112  13.558
32212SOL    HW198533   0.332   4.080  13.635
32212SOL    HW298534   0.422   4.192  13.588
32213SOL     OW98535   1.561   1.244  11.250
32213SOL    HW198536   1.563   1.330  11.292
32213SOL    HW298537   1.628   1.249  11.181
32214SOL     OW98538   3.193   3.034   1.795
32214SOL    HW198539   3.159   3.102   1.737
32214SOL    HW298540   3.178   3.068   1.883
32215SOL     OW98541   3.509   2.929   3.968
32215SOL    HW198542   3.491   2.998   4.032
32215SOL    HW298543   3.440   2.937   3.903
32216SOL     OW98544  10.298   0.203   7.081
32216SOL    HW198545  10.260   0.211   7.168
32216SOL    HW298546  10.238   0.251   7.024
32217SOL     OW98547   6.638  12.813   7.208
32217SOL    HW198548   6.640  12.786   7.300
32217SOL    HW298549   6.547  12.803   7.181
32218SOL     OW98550   6.504   6.000  11.379
32218SOL    HW198551   6.521   5.991  11.285
32218SOL    HW298552   6.451   6.080  11.386
32219SOL     OW98553  13.771   8.897   0.226
32219SOL    HW198554  13.831   8.910   0.300
32219SOL    HW298555  13.826   8.860   0.157
32220SOL     OW98556  12.518   0.093   1.914
32220SOL    HW198557  12.441   0.073   1.861
32220SOL    HW298558  12.588   0.041   1.875
32221SOL     OW98559   4.812  13.780   8.648
32221SOL    HW198560   4.901  13.778   8.682
32221SOL    HW298561   4.758  13.743   8.719
32222SOL     OW98562   1.523  14.206   1.372
32222SOL    HW198563   1.577  14.285   1.373
32222SOL    HW298564   1.521  14.178   1.464
32223SOL     OW98565   3.142  10.130  11.454
32223SOL    HW198566   3.219  10.108  11.509
32223SOL    HW298567   3.067  10.111  11.511
32224SOL     OW98568   7.141   2.150  14.827
32224SOL    HW198569   7.099   2.231  14.856
32224SOL    HW298570   7.094   2.126  14.747
32225SOL     OW98571   0.543  11.788  13.879
32225SOL    HW198572   0.469  11.752  13.829
32225SOL    HW298573   0.584  11.712  13.920
32226SOL     OW98574   7.184   0.936   7.521
32226SOL    HW198575   7.156   0.870   7.458
32226SOL    HW298576   7.129   1.012   7.503
32227SOL     OW98577   7.466   9.144   2.268
32227SOL    HW198578   7.422   9.220   2.229
32227SOL    HW298579   7.559   9.160   2.253
32228SOL     OW98580   9.131   5.234   4.563
32228SOL    HW198581   9.160   5.325   4.574
32228SOL    HW298582   9.115   5.225   4.470
32229SOL     OW98583   6.769  14.170   5.526
32229SOL    HW198584   6.802  14.088   5.562
32229SOL    HW298585   6.761  14.229   5.601
32230SOL     OW98586  11.446   2.882   6.356
32230SOL    HW198587  11.417   2.792   6.342
32230SOL    HW298588  11.453   2.890   6.451
32231SOL     OW98589  10.596   1.853   5.927
32231SOL    HW198590  10.568   1.762   5.929
32231SOL    HW298591  10.514   1.903   5.917
32232SOL     OW98592  10.813   7.986   3.361
32232SOL    HW198593  10.856   7.997   3.276
32232SOL    HW298594  10.738   7.930   3.342
32233SOL     OW98595   4.563   2.598   3.539
32233SOL    HW198596   4.571   2.688   3.507
32233SOL    HW298597   4.492   2.561   3.487
32234SOL     OW98598   8.292   3.999   8.920
32234SOL    HW198599   8.358   3.930   8.920
32234SOL    HW298600   8.218   3.962   8.968
32235SOL     OW98601  13.726   6.105   6.637
32235SOL    HW198602  13.709   6.053   6.558
32235SOL    HW298603  13.821   6.114   6.641
32236SOL     OW98604  11.276   3.259   2.668
32236SOL    HW198605  11.317   3.344   2.685
32236SOL    HW298606  11.257   3.224   2.755
32237SOL     OW98607   8.120   5.756   8.895
32237SOL    HW198608   8.166   5.680   8.931
32237SOL    HW298609   8.157   5.767   8.808
32238SOL     OW98610   6.318   1.061   7.531
32238SOL    HW198611   6.306   0.967   7.522
32238SOL    HW298612   6.359   1.088   7.449
32239SOL     OW98613  12.509  11.950  13.915
32239SOL    HW198614  12.468  11.942  14.001
32239SOL    HW298615  12.532  12.042  13.908
32240SOL     OW98616   6.779   2.749   0.337
32240SOL    HW198617   6.757   2.694   0.412
32240SOL    HW298618   6.867   2.720   0.311
32241SOL     OW98619  12.894   1.071  14.809
32241SOL    HW198620  12.856   1.040   0.009
32241SOL    HW298621  12.826   1.059  14.744
32242SOL     OW98622   8.425   1.089   0.403
32242SOL    HW198623   8.482   1.058   0.333
32242SOL    HW298624   8.355   1.136   0.357
32243SOL     OW98625  14.394  14.561   0.516
32243SOL    HW198626  14.473  14.599   0.556
32243SOL    HW298627  14.422  14.529   0.431
32244SOL     OW98628   6.155   2.377   4.115
32244SOL    HW198629   6.080   2.400   4.169
32244SOL    HW298630   6.225   2.357   4.178
32245SOL     OW98631   4.927  10.300   8.716
32245SOL    HW198632   4.979  10.379   8.733
32245SOL    HW298633   4.988  10.240   8.675
32246SOL     OW98634   9.505   9.195   9.220
32246SOL    HW198635   9.576   9.131   9.232
32246SOL    HW298636   9.550   9.279   9.212
32247SOL     OW98637   8.357  14.706  10.835
32247SOL    HW198638   8.374  14.691  10.928
32247SOL    HW298639   8.265  14.731  10.831
32248SOL     OW98640   7.189   6.857  13.018
32248SOL    HW198641   7.180   6.915  13.094
32248SOL    HW298642   7.267   6.888  12.972
32249SOL     OW98643  13.060  13.557   8.358
32249SOL    HW198644  13.014  13.493   8.412
32249SOL    HW298645  13.011  13.638   8.370
32250SOL     OW98646   6.935  13.137  12.556
32250SOL    HW198647   6.922  13.073  12.627
32250SOL    HW298648   7.029  13.133  12.538
32251SOL     OW98649   3.715   0.147  13.594
32251SOL    HW198650   3.635   0.094  13.595
32251SOL    HW298651   3.763   0.115  13.517
32252SOL     OW98652   0.162   1.171  13.601
32252SOL    HW198653   0.194   1.091  13.643
32252SOL    HW298654   0.107   1.140  13.529
32253SOL     OW98655   8.501  14.351  13.705
32253SOL    HW198656   8.582  14.347  13.654
32253SOL    HW298657   8.438  14.394  13.647
32254SOL     OW98658   7.151   3.470   3.095
32254SOL    HW198659   7.117   3.558   3.079
32254SOL    HW298660   7.227   3.483   3.151
32255SOL     OW98661  10.781   3.740   9.293
32255SOL    HW198662  10.807   3.783   9.374
32255SOL    HW298663  10.703   3.789   9.265
32256SOL     OW98664   5.330   5.707   8.703
32256SOL    HW198665   5.272   5.783   8.706
32256SOL    HW298666   5.296   5.649   8.772
32257SOL     OW98667   9.410   3.507   5.641
32257SOL    HW198668   9.490   3.480   5.596
32257SOL    HW298669   9.424   3.599   5.662
32258SOL     OW98670  14.089  12.504  14.845
32258SOL    HW198671  14.081  12.414  14.814
32258SOL    HW298672  14.071  12.558  14.768
32259SOL     OW98673   8.315  13.742   4.552
32259SOL    HW198674   8.263  13.662   4.549
32259SOL    HW298675   8.251  13.812   4.566
32260SOL     OW98676   4.860   8.757  11.487
32260SOL    HW198677   4.916   8.688  11.451
32260SOL    HW298678   4.787   8.709  11.527
32261SOL     OW98679   1.225   8.466   4.717
32261SOL    HW198680   1.254   8.381   4.748
32261SOL    HW298681   1.204   8.452   4.624
32262SOL     OW98682   9.142   4.079   6.096
32262SOL    HW198683   9.053   4.110   6.081
32262SOL    HW298684   9.182   4.146   6.152
32263SOL     OW98685  13.650  14.814   8.888
32263SOL    HW198686  13.585  14.827   8.819
32263SOL    HW298687  13.718  14.761   8.847
32264SOL     OW98688   4.218  10.815   9.370
32264SOL    HW198689   4.292  10.757   9.389
32264SOL    HW298690   4.225  10.884   9.436
32265SOL     OW98691   3.211  14.125   3.922
32265SOL    HW198692   3.132  14.077   3.946
32265SOL    HW298693   3.277  14.057   3.908
32266SOL     OW98694  11.251   9.879  14.532
32266SOL    HW198695  11.241   9.926  14.614
32266SOL    HW298696  11.308   9.805  14.553
32267SOL     OW98697   1.463   0.135  11.652
32267SOL    HW198698   1.394   0.200  11.640
32267SOL    HW298699   1.541   0.187  11.672
32268SOL     OW98700   9.302   3.540   9.711
32268SOL    HW198701   9.270   3.626   9.682
32268SOL    HW298702   9.363   3.513   9.642
32269SOL     OW98703   6.207   7.746  11.668
32269SOL    HW198704   6.239   7.836  11.656
32269SOL    HW298705   6.242   7.720  11.753
32270SOL     OW98706   8.071  14.387   7.450
32270SOL    HW198707   8.066  14.336   7.369
32270SOL    HW298708   8.081  14.321   7.518
32271SOL     OW98709   2.340  10.774  13.223
32271SOL    HW198710   2.409  10.708  13.226
32271SOL    HW298711   2.258  10.723  13.222
32272SOL     OW98712   9.700   6.206   0.245
32272SOL    HW198713   9.632   6.169   0.301
32272SOL    HW298714   9.747   6.267   0.302
32273SOL     OW98715  12.108   1.812   6.081
32273SOL    HW198716  12.153   1.821   5.997
32273SOL    HW298717  12.095   1.718   6.091
32274SOL     OW98718   4.042  12.826   2.612
32274SOL    HW198719   4.124  12.847   2.567
32274SOL    HW298720   3.985  12.901   2.596
32275SOL     OW98721   0.487  11.021   6.183
32275SOL    HW198722   0.547  10.948   6.172
32275SOL    HW298723   0.500  11.075   6.105
32276SOL     OW98724  12.245   4.033   6.052
32276SOL    HW198725  12.165   4.045   6.104
32276SOL    HW298726  12.300   4.107   6.075
32277SOL     OW98727  13.887   7.428   9.418
32277SOL    HW198728  13.799   7.460   9.438
32277SOL    HW298729  13.920   7.489   9.351
32278SOL     OW98730  11.079   5.807   6.404
32278SOL    HW198731  11.135   5.733   6.430
32278SOL    HW298732  11.012   5.767   6.349
32279SOL     OW98733  14.737   7.946  13.623
32279SOL    HW198734  14.695   8.032  13.614
32279SOL    HW298735  14.672   7.892  13.668
32280SOL     OW98736   7.041   0.864  12.740
32280SOL    HW198737   6.973   0.908  12.691
32280SOL    HW298738   7.007   0.776  12.756
32281SOL     OW98739   8.315   6.370   6.998
32281SOL    HW198740   8.392   6.418   6.967
32281SOL    HW298741   8.295   6.310   6.926
32282SOL     OW98742   0.939   9.354  10.248
32282SOL    HW198743   0.960   9.394  10.163
32282SOL    HW298744   1.011   9.381  10.305
32283SOL     OW98745   2.954   8.593  10.847
32283SOL    HW198746   2.911   8.533  10.786
32283SOL    HW298747   2.933   8.681  10.813
32284SOL     OW98748   6.485  14.549   0.390
32284SOL    HW198749   6.452  14.609   0.323
32284SOL    HW298750   6.432  14.568   0.468
32285SOL     OW98751  13.577   7.385   4.172
32285SOL    HW198752  13.615   7.423   4.093
32285SOL    HW298753  13.647   7.331   4.209
32286SOL     OW98754  13.251   6.465   8.604
32286SOL    HW198755  13.267   6.515   8.684
32286SOL    HW298756  13.249   6.373   8.633
32287SOL     OW98757   1.915  13.867   7.203
32287SOL    HW198758   1.858  13.815   7.260
32287SOL    HW298759   1.935  13.808   7.130
32288SOL     OW98760   6.750  11.618  10.927
32288SOL    HW198761   6.840  11.629  10.896
32288SOL    HW298762   6.724  11.532  10.894
32289SOL     OW98763  10.227   8.409   3.317
32289SOL    HW198764  10.223   8.423   3.222
32289SOL    HW298765  10.321   8.407   3.337
32290SOL     OW98766   1.014   6.952   8.331
32290SOL    HW198767   0.927   6.989   8.313
32290SOL    HW298768   0.999   6.858   8.335
32291SOL     OW98769   8.306  11.395   2.093
32291SOL    HW198770   8.294  11.392   2.188
32291SOL    HW298771   8.315  11.488   2.072
32292SOL     OW98772  14.242  13.538   7.577
32292SOL    HW198773  14.300  13.462   7.580
32292SOL    HW298774  14.154  13.500   7.570
32293SOL     OW98775   8.150   1.347   6.681
32293SOL    HW198776   8.086   1.419   6.677
32293SOL    HW298777   8.102   1.275   6.723
32294SOL     OW98778   9.964   8.156  11.505
32294SOL    HW198779  10.002   8.179  11.590
32294SOL    HW298780  10.039   8.128  11.452
32295SOL     OW98781  13.738   7.238  13.218
32295SOL    HW198782  13.751   7.270  13.128
32295SOL    HW298783  13.686   7.306  13.260
32296SOL     OW98784  13.241   4.300  10.587
32296SOL    HW198785  13.159   4.285  10.540
32296SOL    HW298786  13.258   4.218  10.632
32297SOL     OW98787   7.654   3.739   7.706
32297SOL    HW198788   7.593   3.724   7.633
32297SOL    HW298789   7.638   3.666   7.765
32298SOL     OW98790   6.409   7.177   1.868
32298SOL    HW198791   6.417   7.268   1.898
32298SOL    HW298792   6.417   7.125   1.947
32299SOL     OW98793   2.954   4.058   8.457
32299SOL    HW198794   2.938   3.966   8.437
32299SOL    HW298795   3.048   4.064   8.474
32300SOL     OW98796  13.331  10.618   1.161
32300SOL    HW198797  13.288  10.660   1.087
32300SOL    HW298798  13.417  10.591   1.126
32301SOL     OW98799  12.938   4.310  10.731
32301SOL    HW198800  12.963   4.218  10.727
32301SOL    HW298801  12.871   4.320  10.663
32302SOL     OW98802   6.114   6.166   3.160
32302SOL    HW198803   6.100   6.172   3.254
32302SOL    HW298804   6.125   6.073   3.143
32303SOL     OW98805   8.986   7.097   5.034
32303SOL    HW198806   8.938   7.179   5.018
32303SOL    HW298807   8.952   7.037   4.967
32304SOL     OW98808   8.933   3.213   1.408
32304SOL    HW198809   8.944   3.168   1.492
32304SOL    HW298810   9.021   3.243   1.385
32305SOL     OW98811  14.393  11.859  12.894
32305SOL    HW198812  14.371  11.872  12.802
32305SOL    HW298813  14.333  11.790  12.923
32306SOL     OW98814  10.019   8.693   4.981
32306SOL    HW198815   9.975   8.610   4.965
32306SOL    HW298816   9.955   8.744   5.032
32307SOL     OW98817  14.179   5.385   5.704
32307SOL    HW198818  14.118   5.450   5.668
32307SOL    HW298819  14.241   5.437   5.755
32308SOL     OW98820   6.748  11.165   6.905
32308SOL    HW198821   6.663  11.208   6.892
32308SOL    HW298822   6.808  11.213   6.848
32309SOL     OW98823   5.247   5.855  10.139
32309SOL    HW198824   5.172   5.809  10.102
32309SOL    HW298825   5.307   5.784  10.166
32310SOL     OW98826   4.868   3.624   7.525
32310SOL    HW198827   4.782   3.633   7.483
32310SOL    HW298828   4.892   3.713   7.549
32311SOL     OW98829  12.331  13.141   7.687
32311SOL    HW198830  12.382  13.082   7.631
32311SOL    HW298831  12.377  13.140   7.771
32312SOL     OW98832   2.444   1.487  10.028
32312SOL    HW198833   2.498   1.566  10.033
32312SOL    HW298834   2.431   1.461  10.120
32313SOL     OW98835  13.133  10.451   8.957
32313SOL    HW198836  13.144  10.358   8.977
32313SOL    HW298837  13.207  10.473   8.900
32314SOL     OW98838   1.865   0.531   5.627
32314SOL    HW198839   1.945   0.486   5.654
32314SOL    HW298840   1.825   0.473   5.563
32315SOL     OW98841  10.381   9.798   3.328
32315SOL    HW198842  10.376   9.766   3.238
32315SOL    HW298843  10.297   9.843   3.342
32316SOL     OW98844   8.116   1.192   4.579
32316SOL    HW198845   8.092   1.281   4.604
32316SOL    HW298846   8.212   1.192   4.577
32317SOL     OW98847  10.929   0.190  12.175
32317SOL    HW198848  11.003   0.156  12.225
32317SOL    HW298849  10.851   0.160  12.221
32318SOL     OW98850   3.838   3.979   8.105
32318SOL    HW198851   3.842   4.075   8.108
32318SOL    HW298852   3.859   3.956   8.015
32319SOL     OW98853   9.151   3.817   6.179
32319SOL    HW198854   9.118   3.902   6.149
32319SOL    HW298855   9.246   3.824   6.170
32320SOL     OW98856   8.968  10.619   9.815
32320SOL    HW198857   8.976  10.711   9.793
32320SOL    HW298858   9.004  10.611   9.903
32321SOL     OW98859  14.050   8.925   7.143
32321SOL    HW198860  14.052   8.894   7.052
32321SOL    HW298861  14.041   9.020   7.135
32322SOL     OW98862   0.752   5.659  12.393
32322SOL    HW198863   0.716   5.593  12.334
32322SOL    HW298864   0.833   5.620  12.426
32323SOL     OW98865  13.643   8.722  10.591
32323SOL    HW198866  13.642   8.804  10.640
32323SOL    HW298867  13.561   8.679  10.613
32324SOL     OW98868   9.384  13.226   3.771
32324SOL    HW198869   9.340  13.195   3.850
32324SOL    HW298870   9.313  13.263   3.717
32325SOL     OW98871   7.088   9.181   6.911
32325SOL    HW198872   7.124   9.092   6.914
32325SOL    HW298873   7.165   9.238   6.914
32326SOL     OW98874   0.935  10.302  13.604
32326SOL    HW198875   0.939  10.206  13.603
32326SOL    HW298876   0.902  10.323  13.692
32327SOL     OW98877   5.204   6.291   4.473
32327SOL    HW198878   5.116   6.311   4.442
32327SOL    HW298879   5.207   6.325   4.563
32328SOL     OW98880   1.353   6.861   4.638
32328SOL    HW198881   1.433   6.901   4.673
32328SOL    HW298882   1.371   6.767   4.638
32329SOL     OW98883  12.779   2.480   6.675
32329SOL    HW198884  12.785   2.573   6.656
32329SOL    HW298885  12.745   2.441   6.594
32330SOL     OW98886   7.486   6.586   0.472
32330SOL    HW198887   7.582   6.592   0.475
32330SOL    HW298888   7.462   6.638   0.395
32331SOL     OW98889   8.952   5.570   3.328
32331SOL    HW198890   8.889   5.595   3.396
32331SOL    HW298891   8.995   5.652   3.305
32332SOL     OW98892   9.023  13.682  13.826
32332SOL    HW198893   8.991  13.597  13.796
32332SOL    HW298894   8.990  13.745  13.762
32333SOL     OW98895   1.553   3.741   0.210
32333SOL    HW198896   1.485   3.708   0.269
32333SOL    HW298897   1.540   3.691   0.129
32334SOL     OW98898   3.808  14.439   0.321
32334SOL    HW198899   3.772  14.523   0.293
32334SOL    HW298900   3.894  14.460   0.358
32335SOL     OW98901  11.660   9.705  11.481
32335SOL    HW198902  11.677   9.768  11.552
32335SOL    HW298903  11.603   9.753  11.420
32336SOL     OW98904   1.914   9.687   2.764
32336SOL    HW198905   1.955   9.741   2.696
32336SOL    HW298906   1.926   9.737   2.845
32337SOL     OW98907  10.664  14.097   9.542
32337SOL    HW198908  10.715  14.016   9.536
32337SOL    HW298909  10.670  14.135   9.455
32338SOL     OW98910  12.208  13.561  12.528
32338SOL    HW198911  12.276  13.581  12.464
32338SOL    HW298912  12.162  13.644  12.541
32339SOL     OW98913   0.856   6.923   4.039
32339SOL    HW198914   0.829   7.001   4.087
32339SOL    HW298915   0.951   6.920   4.048
32340SOL     OW98916   7.773  10.179   7.685
32340SOL    HW198917   7.819  10.148   7.606
32340SOL    HW298918   7.843  10.215   7.740
32341SOL     OW98919  12.090   9.401   1.943
32341SOL    HW198920  11.999   9.388   1.969
32341SOL    HW298921  12.096   9.495   1.924
32342SOL     OW98922   4.255   7.125  13.382
32342SOL    HW198923   4.216   7.042  13.355
32342SOL    HW298924   4.199   7.156  13.453
32343SOL     OW98925   3.664  14.677  12.405
32343SOL    HW198926   3.724  14.610  12.436
32343SOL    HW298927   3.578  14.635  12.405
32344SOL     OW98928   8.152   8.678   3.338
32344SOL    HW198929   8.090   8.716   3.276
32344SOL    HW298930   8.184   8.600   3.294
32345SOL     OW98931   8.028   7.131   4.182
32345SOL    HW198932   8.113   7.175   4.191
32345SOL    HW298933   7.964   7.201   4.187
32346SOL     OW98934   6.985   7.427   6.357
32346SOL    HW198935   6.963   7.514   6.391
32346SOL    HW298936   7.055   7.444   6.294
32347SOL     OW98937   7.269  14.146   9.168
32347SOL    HW198938   7.189  14.156   9.221
32347SOL    HW298939   7.321  14.223   9.189
32348SOL     OW98940  14.103  11.243   7.231
32348SOL    HW198941  14.113  11.328   7.188
32348SOL    HW298942  14.017  11.248   7.274
32349SOL     OW98943  13.008   2.541   8.653
32349SOL    HW198944  13.020   2.609   8.586
32349SOL    HW298945  12.956   2.584   8.721
32350SOL     OW98946   5.710   4.767   3.133
32350SOL    HW198947   5.767   4.766   3.210
32350SOL    HW298948   5.681   4.857   3.125
32351SOL     OW98949   3.761   2.810  13.366
32351SOL    HW198950   3.806   2.726  13.370
32351SOL    HW298951   3.828   2.872  13.337
32352SOL     OW98952   1.716   8.396   6.852
32352SOL    HW198953   1.773   8.462   6.890
32352SOL    HW298954   1.706   8.330   6.921
32353SOL     OW98955  12.108   0.723   0.018
32353SOL    HW198956  12.034   0.781   0.036
32353SOL    HW298957  12.079   0.668  14.827
32354SOL     OW98958   3.451   8.263   3.962
32354SOL    HW198959   3.495   8.195   4.014
32354SOL    HW298960   3.490   8.255   3.875
32355SOL     OW98961   9.626   4.961   6.470
32355SOL    HW198962   9.610   4.922   6.557
32355SOL    HW298963   9.651   4.887   6.415
32356SOL     OW98964  12.965  10.113   0.178
32356SOL    HW198965  12.937  10.100   0.268
32356SOL    HW298966  12.919  10.192   0.149
32357SOL     OW98967   0.202   1.563  10.840
32357SOL    HW198968   0.152   1.592  10.916
32357SOL    HW298969   0.293   1.579  10.862
32358SOL     OW98970   1.118   8.630  12.838
32358SOL    HW198971   1.117   8.676  12.923
32358SOL    HW298972   1.105   8.699  12.773
32359SOL     OW98973   9.057   4.331   9.750
32359SOL    HW198974   9.003   4.353   9.673
32359SOL    HW298975   9.040   4.403   9.811
32360SOL     OW98976  14.228   5.710   6.901
32360SOL    HW198977  14.197   5.775   6.965
32360SOL    HW298978  14.193   5.740   6.818
32361SOL     OW98979   6.408   9.868   6.754
32361SOL    HW198980   6.475   9.830   6.811
32361SOL    HW298981   6.433   9.839   6.666
32362SOL     OW98982   8.410  12.632   9.113
32362SOL    HW198983   8.421  12.605   9.204
32362SOL    HW298984   8.332  12.586   9.084
32363SOL     OW98985   0.258  14.029  11.725
32363SOL    HW198986   0.233  14.053  11.636
32363SOL    HW298987   0.251  13.934  11.727
32364SOL     OW98988  14.552  13.190   2.580
32364SOL    HW198989  14.473  13.244   2.581
32364SOL    HW298990  14.524  13.107   2.620
32365SOL     OW98991   7.397   8.246   3.271
32365SOL    HW198992   7.354   8.255   3.186
32365SOL    HW298993   7.490   8.264   3.252
32366SOL     OW98994  10.244   8.283  10.856
32366SOL    HW198995  10.274   8.270  10.766
32366SOL    HW298996  10.193   8.204  10.876
32367SOL     OW98997   5.220   0.877   3.859
32367SOL    HW198998   5.176   0.847   3.779
32367SOL    HW298999   5.222   0.800   3.916
32368SOL     OW99000  10.643   9.754   3.656
32368SOL    HW199001  10.574   9.789   3.713
32368SOL    HW299002  10.716   9.735   3.715
32369SOL     OW99003   7.074   6.014  14.443
32369SOL    HW199004   7.160   6.008  14.401
32369SOL    HW299005   7.029   5.933  14.419
32370SOL     OW99006  10.537   4.508   0.283
32370SOL    HW199007  10.487   4.434   0.248
32370SOL    HW299008  10.574   4.475   0.365
32371SOL     OW99009   4.534  11.621   3.159
32371SOL    HW199010   4.494  11.666   3.234
32371SOL    HW299011   4.620  11.663   3.150
32372SOL     OW99012   8.703   4.841   2.447
32372SOL    HW199013   8.698   4.932   2.419
32372SOL    HW299014   8.613   4.818   2.471
32373SOL     OW99015   3.026   6.067   7.931
32373SOL    HW199016   2.975   6.064   8.011
32373SOL    HW299017   2.974   6.017   7.867
32374SOL     OW99018   5.393   6.727   1.138
32374SOL    HW199019   5.318   6.699   1.086
32374SOL    HW299020   5.418   6.649   1.188
32375SOL     OW99021   3.393   5.827  12.668
32375SOL    HW199022   3.341   5.820  12.748
32375SOL    HW299023   3.404   5.921  12.654
32376SOL     OW99024  13.819   1.523  10.953
32376SOL    HW199025  13.865   1.597  10.992
32376SOL    HW299026  13.883   1.483  10.894
32377SOL     OW99027   6.062   7.140   5.455
32377SOL    HW199028   6.045   7.112   5.365
32377SOL    HW299029   6.048   7.062   5.508
32378SOL     OW99030   7.763   0.151   2.211
32378SOL    HW199031   7.836   0.098   2.243
32378SOL    HW299032   7.691   0.131   2.271
32379SOL     OW99033   2.342   1.247   8.481
32379SOL    HW199034   2.321   1.155   8.498
32379SOL    HW299035   2.393   1.246   8.400
32380SOL     OW99036  12.664   7.212   3.561
32380SOL    HW199037  12.681   7.249   3.648
32380SOL    HW299038  12.580   7.166   3.570
32381SOL     OW99039  11.631   3.058   3.422
32381SOL    HW199040  11.633   3.153   3.413
32381SOL    HW299041  11.569   3.029   3.355
32382SOL     OW99042   0.122  12.706  14.825
32382SOL    HW199043   0.141  12.672  14.738
32382SOL    HW299044   0.208  12.711  14.868
32383SOL     OW99045   6.779   3.348   9.817
32383SOL    HW199046   6.748   3.365   9.728
32383SOL    HW299047   6.766   3.254   9.830
32384SOL     OW99048   4.846   6.300  10.158
32384SOL    HW199049   4.847   6.278  10.251
32384SOL    HW299050   4.894   6.383  10.152
32385SOL     OW99051   7.297  11.057  13.504
32385SOL    HW199052   7.372  11.012  13.543
32385SOL    HW299053   7.288  11.018  13.417
32386SOL     OW99054   9.291   7.169  11.242
32386SOL    HW199055   9.243   7.250  11.223
32386SOL    HW299056   9.357   7.164  11.174
32387SOL     OW99057   3.847  13.645   0.177
32387SOL    HW199058   3.762  13.688   0.190
32387SOL    HW299059   3.887  13.644   0.264
32388SOL     OW99060   3.960   6.208  13.344
32388SOL    HW199061   3.887   6.241  13.292
32388SOL    HW299062   4.009   6.151  13.285
32389SOL     OW99063   3.092   5.551   7.147
32389SOL    HW199064   3.036   5.555   7.070
32389SOL    HW299065   3.166   5.495   7.120
32390SOL     OW99066  11.904   3.408  10.017
32390SOL    HW199067  11.846   3.480  10.042
32390SOL    HW299068  11.848   3.330  10.016
32391SOL     OW99069   0.727   4.865  12.737
32391SOL    HW199070   0.739   4.845  12.830
32391SOL    HW299071   0.644   4.824  12.714
32392SOL     OW99072   0.843   6.909  13.717
32392SOL    HW199073   0.872   6.836  13.663
32392SOL    HW299074   0.751   6.890  13.736
32393SOL     OW99075  14.114  10.065   3.692
32393SOL    HW199076  14.095  10.111   3.610
32393SOL    HW299077  14.207  10.083   3.708
32394SOL     OW99078   8.575  14.501   3.933
32394SOL    HW199079   8.618  14.416   3.940
32394SOL    HW299080   8.570  14.533   4.024
32395SOL     OW99081  11.564  13.927   6.507
32395SOL    HW199082  11.654  13.935   6.475
32395SOL    HW299083  11.514  13.899   6.431
32396SOL     OW99084   5.834   3.471  13.534
32396SOL    HW199085   5.871   3.527  13.603
32396SOL    HW299086   5.739   3.475  13.548
32397SOL     OW99087   9.078   1.844   1.019
32397SOL    HW199088   9.086   1.831   0.924
32397SOL    HW299089   9.152   1.797   1.056
32398SOL     OW99090   3.467   5.151   2.062
32398SOL    HW199091   3.559   5.138   2.084
32398SOL    HW299092   3.468   5.217   1.992
32399SOL     OW99093  12.183   1.205  13.536
32399SOL    HW199094  12.222   1.179  13.453
32399SOL    HW299095  12.215   1.141  13.599
32400SOL     OW99096   5.048  10.041   3.838
32400SOL    HW199097   4.955  10.038   3.816
32400SOL    HW299098   5.051  10.088   3.921
32401SOL     OW99099   3.358   0.169  12.113
32401SOL    HW199100   3.434   0.224  12.131
32401SOL    HW299101   3.390   0.103  12.052
32402SOL     OW99102   6.349   3.999  13.886
32402SOL    HW199103   6.407   4.064  13.926
32402SOL    HW299104   6.391   3.978  13.802
32403SOL     OW99105   3.829  14.229   3.750
32403SOL    HW199106   3.878  14.203   3.672
32403SOL    HW299107   3.821  14.324   3.743
32404SOL     OW99108  13.330  13.402   7.496
32404SOL    HW199109  13.293  13.479   7.452
32404SOL    HW299110  13.400  13.373   7.437
32405SOL     OW99111   4.328   0.929  14.795
32405SOL    HW199112   4.237   0.950  14.772
32405SOL    HW299113   4.371   1.014  14.800
32406SOL     OW99114   2.309   0.456   9.467
32406SOL    HW199115   2.356   0.539   9.477
32406SOL    HW299116   2.378   0.390   9.460
32407SOL     OW99117   6.748  11.939   5.235
32407SOL    HW199118   6.817  11.875   5.219
32407SOL    HW299119   6.786  12.001   5.297
32408SOL     OW99120   1.860  11.521  12.045
32408SOL    HW199121   1.854  11.426  12.040
32408SOL    HW299122   1.830  11.552  11.960
32409SOL     OW99123   4.674   0.711   3.388
32409SOL    HW199124   4.619   0.727   3.311
32409SOL    HW299125   4.677   0.796   3.433
32410SOL     OW99126   5.071   2.045   3.582
32410SOL    HW199127   5.050   2.082   3.668
32410SOL    HW299128   5.158   2.079   3.562
32411SOL     OW99129   3.260   5.781   4.268
32411SOL    HW199130   3.201   5.814   4.201
32411SOL    HW299131   3.338   5.751   4.220
32412SOL     OW99132   2.222   7.806  11.982
32412SOL    HW199133   2.308   7.822  11.943
32412SOL    HW299134   2.188   7.894  12.000
32413SOL     OW99135   7.837  11.399   5.591
32413SOL    HW199136   7.849  11.412   5.685
32413SOL    HW299137   7.845  11.487   5.553
32414SOL     OW99138   4.497   5.907  10.876
32414SOL    HW199139   4.472   5.972  10.942
32414SOL    HW299140   4.557   5.848  10.921
32415SOL     OW99141  12.345   3.394   7.455
32415SOL    HW199142  12.377   3.473   7.411
32415SOL    HW299143  12.253   3.412   7.473
32416SOL     OW99144   8.659  14.713   1.542
32416SOL    HW199145   8.642  14.681   1.630
32416SOL    HW299146   8.618  14.799   1.539
32417SOL     OW99147   8.259  13.848   0.450
32417SOL    HW199148   8.197  13.856   0.522
32417SOL    HW299149   8.342  13.825   0.491
32418SOL     OW99150  12.726   4.791   3.871
32418SOL    HW199151  12.815   4.812   3.844
32418SOL    HW299152  12.703   4.713   3.821
32419SOL     OW99153   2.115  14.038   9.086
32419SOL    HW199154   2.136  13.987   9.008
32419SOL    HW299155   2.196  14.082   9.110
32420SOL     OW99156   4.559  14.024  13.049
32420SOL    HW199157   4.482  13.993  13.002
32420SOL    HW299158   4.633  13.981  13.005
32421SOL     OW99159  13.438   5.972   0.161
32421SOL    HW199160  13.389   6.023   0.226
32421SOL    HW299161  13.529   5.977   0.191
32422SOL     OW99162   9.846   2.754  14.399
32422SOL    HW199163   9.837   2.837  14.352
32422SOL    HW299164   9.832   2.777  14.491
32423SOL     OW99165   1.975   3.376  13.458
32423SOL    HW199166   1.925   3.420  13.388
32423SOL    HW299167   1.952   3.424  13.537
32424SOL     OW99168   5.022   5.589   8.712
32424SOL    HW199169   5.044   5.608   8.803
32424SOL    HW299170   5.058   5.502   8.696
32425SOL     OW99171   1.106   5.072   7.491
32425SOL    HW199172   1.167   5.096   7.560
32425SOL    HW299173   1.023   5.055   7.538
32426SOL     OW99174   2.540   6.499  12.005
32426SOL    HW199175   2.622   6.541  12.031
32426SOL    HW299176   2.559   6.461  11.919
32427SOL     OW99177   6.374  11.358   6.337
32427SOL    HW199178   6.406  11.282   6.386
32427SOL    HW299179   6.333  11.321   6.259
32428SOL     OW99180   7.259  13.828   4.246
32428SOL    HW199181   7.334  13.770   4.231
32428SOL    HW299182   7.202  13.813   4.171
32429SOL     OW99183   0.907  12.638   0.860
32429SOL    HW199184   0.966  12.604   0.927
32429SOL    HW299185   0.963  12.660   0.786
32430SOL     OW99186  13.081   9.263   4.755
32430SOL    HW199187  13.018   9.230   4.819
32430SOL    HW299188  13.035   9.258   4.672
32431SOL     OW99189   2.983   7.923   4.658
32431SOL    HW199190   2.969   8.011   4.693
32431SOL    HW299191   2.908   7.872   4.689
32432SOL     OW99192  13.256   4.635   8.883
32432SOL    HW199193  13.225   4.571   8.947
32432SOL    HW299194  13.275   4.583   8.805
32433SOL     OW99195   0.687  10.023   7.566
32433SOL    HW199196   0.740  10.096   7.535
32433SOL    HW299197   0.597  10.048   7.545
32434SOL     OW99198   3.561   4.603   8.756
32434SOL    HW199199   3.608   4.550   8.692
32434SOL    HW299200   3.470   4.603   8.725
32435SOL     OW99201   7.170  12.630   4.733
32435SOL    HW199202   7.265  12.639   4.737
32435SOL    HW299203   7.156  12.548   4.684
32436SOL     OW99204   9.799   0.410  12.415
32436SOL    HW199205   9.729   0.464  12.452
32436SOL    HW299206   9.877   0.434  12.465
32437SOL     OW99207  14.818   4.726   4.585
32437SOL    HW199208  14.776   4.640   4.595
32437SOL    HW299209  14.858   4.723   4.498
32438SOL     OW99210  11.956   5.313   7.054
32438SOL    HW199211  11.868   5.347   7.071
32438SOL    HW299212  12.010   5.348   7.125
32439SOL     OW99213  14.522   9.559   9.452
32439SOL    HW199214  14.583   9.497   9.490
32439SOL    HW299215  14.577   9.619   9.401
32440SOL     OW99216   3.112   8.491  13.672
32440SOL    HW199217   3.179   8.532  13.726
32440SOL    HW299218   3.106   8.546  13.595
32441SOL     OW99219   2.938  10.715   4.280
32441SOL    HW199220   2.973  10.797   4.244
32441SOL    HW299221   3.015  10.662   4.299
32442SOL     OW99222  10.812   7.317   5.054
32442SOL    HW199223  10.847   7.375   5.122
32442SOL    HW299224  10.762   7.251   5.101
32443SOL     OW99225  12.035   3.915  14.551
32443SOL    HW199226  11.957   3.923  14.496
32443SOL    HW299227  12.005   3.939  14.638
32444SOL     OW99228   9.572   7.850  10.634
32444SOL    HW199229   9.547   7.869  10.725
32444SOL    HW299230   9.523   7.914  10.582
32445SOL     OW99231   0.723   5.789   6.051
32445SOL    HW199232   0.721   5.882   6.031
32445SOL    HW299233   0.816   5.768   6.060
32446SOL     OW99234   9.640   0.224   9.006
32446SOL    HW199235   9.659   0.135   9.035
32446SOL    HW299236   9.618   0.271   9.086
32447SOL     OW99237   5.660   7.055   9.478
32447SOL    HW199238   5.581   7.061   9.425
32447SOL    HW299239   5.627   7.048   9.568
32448SOL     OW99240   7.313   0.287   2.595
32448SOL    HW199241   7.286   0.201   2.627
32448SOL    HW299242   7.384   0.314   2.654
32449SOL     OW99243   8.919   2.647   2.441
32449SOL    HW199244   8.986   2.602   2.390
32449SOL    HW299245   8.928   2.612   2.530
32450SOL     OW99246   5.694   0.111   0.534
32450SOL    HW199247   5.616   0.071   0.573
32450SOL    HW299248   5.719   0.180   0.595
32451SOL     OW99249   2.224   7.736   3.559
32451SOL    HW199250   2.183   7.804   3.505
32451SOL    HW299251   2.165   7.726   3.634
32452SOL     OW99252   8.921  14.433   2.534
32452SOL    HW199253   8.871  14.514   2.549
32452SOL    HW299254   8.874  14.366   2.582
32453SOL     OW99255   4.991   2.747   6.281
32453SOL    HW199256   5.021   2.718   6.195
32453SOL    HW299257   4.899   2.721   6.284
32454SOL     OW99258   9.806   5.968  10.447
32454SOL    HW199259   9.816   5.881  10.486
32454SOL    HW299260   9.864   6.024  10.499
32455SOL     OW99261  13.874   9.294   5.621
32455SOL    HW199262  13.815   9.271   5.693
32455SOL    HW299263  13.831   9.367   5.577
32456SOL     OW99264   2.626  10.598  12.479
32456SOL    HW199265   2.622  10.628  12.570
32456SOL    HW299266   2.608  10.504  12.485
32457SOL     OW99267   6.313   7.086   6.073
32457SOL    HW199268   6.370   7.145   6.122
32457SOL    HW299269   6.258   7.045   6.140
32458SOL     OW99270  13.490   0.863  11.075
32458SOL    HW199271  13.407   0.908  11.058
32458SOL    HW299272  13.487   0.839  11.167
32459SOL     OW99273  12.185  11.494   5.617
32459SOL    HW199274  12.186  11.559   5.546
32459SOL    HW299275  12.265  11.511   5.666
32460SOL     OW99276   2.365   9.260   8.410
32460SOL    HW199277   2.338   9.331   8.468
32460SOL    HW299278   2.360   9.297   8.322
32461SOL     OW99279   7.291   0.096   5.386
32461SOL    HW199280   7.292   0.089   5.482
32461SOL    HW299281   7.289   0.190   5.369
32462SOL     OW99282   3.013   4.583  12.155
32462SOL    HW199283   2.992   4.524  12.083
32462SOL    HW299284   2.968   4.545  12.231
32463SOL     OW99285   9.330  10.328   2.258
32463SOL    HW199286   9.333  10.323   2.163
32463SOL    HW299287   9.291  10.246   2.286
32464SOL     OW99288  10.542   6.139  13.916
32464SOL    HW199289  10.497   6.223  13.924
32464SOL    HW299290  10.632   6.157  13.942
32465SOL     OW99291   5.395  12.391   8.785
32465SOL    HW199292   5.303  12.367   8.773
32465SOL    HW299293   5.396  12.439   8.868
32466SOL     OW99294  13.037  13.871   1.192
32466SOL    HW199295  12.964  13.849   1.134
32466SOL    HW299296  13.026  13.813   1.267
32467SOL     OW99297   1.667   2.978  13.099
32467SOL    HW199298   1.639   2.904  13.046
32467SOL    HW299299   1.702   2.939  13.180
32468SOL     OW99300  14.866   7.013  11.547
32468SOL    HW199301  14.880   7.102  11.580
32468SOL    HW299302  14.801   7.024  11.478
32469SOL     OW99303  11.995   5.096  12.623
32469SOL    HW199304  12.053   5.062  12.555
32469SOL    HW299305  12.008   5.191  12.620
32470SOL     OW99306   5.235  14.868   4.628
32470SOL    HW199307   5.324  14.837   4.644
32470SOL    HW299308   5.205  14.814   4.554
32471SOL     OW99309   1.467   1.106   0.113
32471SOL    HW199310   1.381   1.067   0.094
32471SOL    HW299311   1.507   1.119   0.028
32472SOL     OW99312  14.457   6.240   4.605
32472SOL    HW199313  14.481   6.229   4.513
32472SOL    HW299314  14.438   6.333   4.614
32473SOL     OW99315   7.023   3.929   5.220
32473SOL    HW199316   6.988   3.874   5.290
32473SOL    HW299317   7.073   3.869   5.165
32474SOL     OW99318   9.059   4.595  12.839
32474SOL    HW199319   8.994   4.628  12.901
32474SOL    HW299320   9.097   4.519  12.881
32475SOL     OW99321   4.201   7.268   8.253
32475SOL    HW199322   4.174   7.323   8.179
32475SOL    HW299323   4.216   7.330   8.324
32476SOL     OW99324  10.350   7.860   6.115
32476SOL    HW199325  10.283   7.853   6.047
32476SOL    HW299326  10.365   7.954   6.125
32477SOL     OW99327  10.482  13.854   9.557
32477SOL    HW199328  10.517  13.943   9.561
32477SOL    HW299329  10.416  13.858   9.488
32478SOL     OW99330   7.523   2.439  10.494
32478SOL    HW199331   7.595   2.419  10.435
32478SOL    HW299332   7.549   2.520  10.537
32479SOL     OW99333   3.124   6.016   6.810
32479SOL    HW199334   3.055   5.966   6.767
32479SOL    HW299335   3.135   5.973   6.895
32480SOL     OW99336   6.926   5.330   3.720
32480SOL    HW199337   6.865   5.343   3.647
32480SOL    HW299338   6.964   5.244   3.706
32481SOL     OW99339   2.963   8.644   0.189
32481SOL    HW199340   2.943   8.652   0.095
32481SOL    HW299341   2.993   8.554   0.199
32482SOL     OW99342   2.918   7.658  14.153
32482SOL    HW199343   2.940   7.732  14.097
32482SOL    HW299344   2.922   7.582  14.095
32483SOL     OW99345   5.804   6.666  11.421
32483SOL    HW199346   5.851   6.732  11.474
32483SOL    HW299347   5.716   6.664  11.458
32484SOL     OW99348  12.305  14.649   8.800
32484SOL    HW199349  12.334  14.693   8.880
32484SOL    HW299350  12.383  14.644   8.746
32485SOL     OW99351   3.808   4.582  12.475
32485SOL    HW199352   3.782   4.648  12.539
32485SOL    HW299353   3.860   4.519  12.526
32486SOL     OW99354   4.152   6.161  12.438
32486SOL    HW199355   4.191   6.184  12.523
32486SOL    HW299356   4.085   6.095  12.460
32487SOL     OW99357   8.785   5.941  13.549
32487SOL    HW199358   8.877   5.932  13.525
32487SOL    HW299359   8.763   5.858  13.590
32488SOL     OW99360   4.686   6.494   3.495
32488SOL    HW199361   4.673   6.563   3.560
32488SOL    HW299362   4.780   6.497   3.475
32489SOL     OW99363   0.921   5.183  14.782
32489SOL    HW199364   0.911   5.088  14.777
32489SOL    HW299365   0.947   5.200  14.872
32490SOL     OW99366   5.463   8.172   7.194
32490SOL    HW199367   5.513   8.116   7.134
32490SOL    HW299368   5.461   8.257   7.151
32491SOL     OW99369  14.257   8.625   4.057
32491SOL    HW199370  14.187   8.621   4.123
32491SOL    HW299371  14.313   8.550   4.077
32492SOL     OW99372   4.383   1.158   5.070
32492SOL    HW199373   4.358   1.242   5.108
32492SOL    HW299374   4.469   1.174   5.031
32493SOL     OW99375   1.113   9.955   6.813
32493SOL    HW199376   1.151   9.945   6.901
32493SOL    HW299377   1.099  10.049   6.803
32494SOL     OW99378   9.517  14.019  11.708
32494SOL    HW199379   9.589  14.000  11.768
32494SOL    HW299380   9.442  13.972  11.744
32495SOL     OW99381   0.698   7.428  14.088
32495SOL    HW199382   0.768   7.392  14.142
32495SOL    HW299383   0.659   7.352  14.046
32496SOL     OW99384   3.671  14.619  12.756
32496SOL    HW199385   3.631  14.532  12.761
32496SOL    HW299386   3.687  14.643  12.848
32497SOL     OW99387  10.132   7.076   7.915
32497SOL    HW199388  10.037   7.090   7.908
32497SOL    HW299389  10.168   7.116   7.836
32498SOL     OW99390   3.918   3.654   1.834
32498SOL    HW199391   3.856   3.617   1.896
32498SOL    HW299392   3.994   3.677   1.888
32499SOL     OW99393   6.809  14.179   7.444
32499SOL    HW199394   6.888  14.209   7.488
32499SOL    HW299395   6.790  14.248   7.379
32500SOL     OW99396   2.980  13.639  11.766
32500SOL    HW199397   3.013  13.633  11.676
32500SOL    HW299398   2.921  13.565  11.775
32501SOL     OW99399   0.498   3.158  14.074
32501SOL    HW199400   0.497   3.069  14.111
32501SOL    HW299401   0.409   3.172  14.043
32502SOL     OW99402   3.590   7.559   6.929
32502SOL    HW199403   3.559   7.625   6.991
32502SOL    HW299404   3.676   7.591   6.901
32503SOL     OW99405  13.528   2.274   4.963
32503SOL    HW199406  13.517   2.367   4.983
32503SOL    HW299407  13.473   2.230   5.028
32504SOL     OW99408  14.537   3.338   1.519
32504SOL    HW199409  14.607   3.295   1.569
32504SOL    HW299410  14.541   3.430   1.547
32505SOL     OW99411   4.220   5.527  10.440
32505SOL    HW199412   4.161   5.583  10.490
32505SOL    HW299413   4.181   5.440  10.445
32506SOL     OW99414   5.819   4.065   1.019
32506SOL    HW199415   5.849   4.101   0.935
32506SOL    HW299416   5.764   4.134   1.056
32507SOL     OW99417  10.991   4.244  10.234
32507SOL    HW199418  10.945   4.161  10.226
32507SOL    HW299419  10.923   4.311  10.231
32508SOL     OW99420   2.766   3.173  14.313
32508SOL    HW199421   2.837   3.116  14.284
32508SOL    HW299422   2.698   3.112  14.343
32509SOL     OW99423   1.920   7.920   8.247
32509SOL    HW199424   1.924   7.960   8.160
32509SOL    HW299425   1.829   7.891   8.255
32510SOL     OW99426   2.052   9.248   5.232
32510SOL    HW199427   2.121   9.235   5.297
32510SOL    HW299428   1.973   9.215   5.274
32511SOL     OW99429   4.635  14.040   2.224
32511SOL    HW199430   4.623  14.038   2.319
32511SOL    HW299431   4.624  14.133   2.201
32512SOL     OW99432  12.178   8.863   3.302
32512SOL    HW199433  12.148   8.821   3.221
32512SOL    HW299434  12.137   8.813   3.372
32513SOL     OW99435  12.876   4.705   9.587
32513SOL    HW199436  12.788   4.737   9.607
32513SOL    HW299437  12.862   4.636   9.522
32514SOL     OW99438   8.904  10.372   0.488
32514SOL    HW199439   8.973  10.312   0.460
32514SOL    HW299440   8.912  10.373   0.584
32515SOL     OW99441   5.764  13.710  13.601
32515SOL    HW199442   5.761  13.780  13.667
32515SOL    HW299443   5.729  13.633  13.646
32516SOL     OW99444   8.763   6.645   1.140
32516SOL    HW199445   8.791   6.732   1.113
32516SOL    HW299446   8.668   6.651   1.147
32517SOL     OW99447   8.544   5.715   9.386
32517SOL    HW199448   8.551   5.629   9.429
32517SOL    HW299449   8.577   5.777   9.452
32518SOL     OW99450  12.201   1.875   2.503
32518SOL    HW199451  12.214   1.781   2.518
32518SOL    HW299452  12.122   1.880   2.450
32519SOL     OW99453   0.688   5.026  12.010
32519SOL    HW199454   0.761   5.033  12.073
32519SOL    HW299455   0.707   4.947  11.960
32520SOL     OW99456   5.315   9.652   3.773
32520SOL    HW199457   5.378   9.623   3.838
32520SOL    HW299458   5.294   9.742   3.799
32521SOL     OW99459   3.829   8.792  12.859
32521SOL    HW199460   3.841   8.781  12.953
32521SOL    HW299461   3.833   8.887  12.845
32522SOL     OW99462   0.534   5.407  10.879
32522SOL    HW199463   0.515   5.406  10.785
32522SOL    HW299464   0.552   5.316  10.900
32523SOL     OW99465   4.433  12.779   5.873
32523SOL    HW199466   4.476  12.775   5.787
32523SOL    HW299467   4.505  12.792   5.935
32524SOL     OW99468  13.988  12.320   0.743
32524SOL    HW199469  13.930  12.271   0.685
32524SOL    HW299470  13.960  12.411   0.734
32525SOL     OW99471  13.289  13.450  12.252
32525SOL    HW199472  13.244  13.493  12.325
32525SOL    HW299473  13.302  13.519  12.188
32526SOL     OW99474  10.012  13.097   9.660
32526SOL    HW199475  10.049  13.146   9.733
32526SOL    HW299476  10.078  13.103   9.591
32527SOL     OW99477  13.977  14.527  10.038
32527SOL    HW199478  13.958  14.619  10.020
32527SOL    HW299479  13.891  14.487  10.049
32528SOL     OW99480   1.280  12.413   7.234
32528SOL    HW199481   1.375  12.416   7.247
32528SOL    HW299482   1.249  12.500   7.258
32529SOL     OW99483   6.548  13.264   3.017
32529SOL    HW199484   6.630  13.279   3.065
32529SOL    HW299485   6.536  13.169   3.019
32530SOL     OW99486   7.595   9.079   8.528
32530SOL    HW199487   7.684   9.091   8.497
32530SOL    HW299488   7.560   9.008   8.474
32531SOL     OW99489   2.249  14.240   1.897
32531SOL    HW199490   2.202  14.300   1.955
32531SOL    HW299491   2.290  14.297   1.832
32532SOL     OW99492  12.073   6.948  13.554
32532SOL    HW199493  12.100   6.889  13.624
32532SOL    HW299494  12.154   6.964  13.505
32533SOL     OW99495  14.043   0.574  12.781
32533SOL    HW199496  14.082   0.593  12.866
32533SOL    HW299497  14.000   0.656  12.756
32534SOL     OW99498   9.885  10.859   7.986
32534SOL    HW199499   9.924  10.772   7.999
32534SOL    HW299500   9.953  10.920   8.013
32535SOL     OW99501  13.153  14.092  13.267
32535SOL    HW199502  13.218  14.155  13.298
32535SOL    HW299503  13.139  14.034  13.342
32536SOL     OW99504   0.647   3.216   9.768
32536SOL    HW199505   0.570   3.243   9.717
32536SOL    HW299506   0.647   3.274   9.845
32537SOL     OW99507  10.525   9.257   9.386
32537SOL    HW199508  10.557   9.307   9.310
32537SOL    HW299509  10.533   9.166   9.359
32538SOL     OW99510   0.793   3.881   3.786
32538SOL    HW199511   0.832   3.860   3.871
32538SOL    HW299512   0.839   3.961   3.759
32539SOL     OW99513  11.523   3.897   2.217
32539SOL    HW199514  11.602   3.921   2.169
32539SOL    HW299515  11.519   3.802   2.213
32540SOL     OW99516   8.545   0.514   6.102
32540SOL    HW199517   8.482   0.532   6.172
32540SOL    HW299518   8.563   0.420   6.110
32541SOL     OW99519  11.828  11.708   6.856
32541SOL    HW199520  11.848  11.729   6.948
32541SOL    HW299521  11.803  11.616   6.857
32542SOL     OW99522  10.143  11.078   0.485
32542SOL    HW199523  10.189  11.131   0.550
32542SOL    HW299524  10.104  11.007   0.537
32543SOL     OW99525  10.962   1.185  13.106
32543SOL    HW199526  11.007   1.270  13.102
32543SOL    HW299527  10.879   1.204  13.150
32544SOL     OW99528  12.880   9.738   9.981
32544SOL    HW199529  12.926   9.671   9.930
32544SOL    HW299530  12.876   9.702  10.070
32545SOL     OW99531   7.327  11.639  13.687
32545SOL    HW199532   7.312  11.639  13.782
32545SOL    HW299533   7.405  11.585  13.675
32546SOL     OW99534   5.616   0.909   9.000
32546SOL    HW199535   5.535   0.914   9.052
32546SOL    HW299536   5.608   0.826   8.953
32547SOL     OW99537   7.028   7.157   7.267
32547SOL    HW199538   7.058   7.222   7.204
32547SOL    HW299539   7.108   7.128   7.311
32548SOL     OW99540   3.084   9.783   6.288
32548SOL    HW199541   2.994   9.813   6.290
32548SOL    HW299542   3.082   9.703   6.236
32549SOL     OW99543   6.270   0.384  10.937
32549SOL    HW199544   6.269   0.288  10.931
32549SOL    HW299545   6.249   0.414  10.849
32550SOL     OW99546  14.041   1.182   5.104
32550SOL    HW199547  14.113   1.143   5.054
32550SOL    HW299548  14.069   1.272   5.121
32551SOL     OW99549   7.448  13.246   2.531
32551SOL    HW199550   7.478  13.326   2.574
32551SOL    HW299551   7.359  13.234   2.563
32552SOL     OW99552   0.692   4.888   1.498
32552SOL    HW199553   0.634   4.938   1.441
32552SOL    HW299554   0.694   4.939   1.580
32553SOL     OW99555   9.123   2.161   8.783
32553SOL    HW199556   9.128   2.251   8.815
32553SOL    HW299557   9.045   2.160   8.727
32554SOL     OW99558   9.636   5.246   9.707
32554SOL    HW199559   9.595   5.332   9.719
32554SOL    HW299560   9.694   5.258   9.631
32555SOL     OW99561   2.772   5.670   7.327
32555SOL    HW199562   2.856   5.676   7.373
32555SOL    HW299563   2.750   5.761   7.305
32556SOL     OW99564   1.728  14.007   2.168
32556SOL    HW199565   1.767  14.015   2.255
32556SOL    HW299566   1.663  14.078   2.165
32557SOL     OW99567  14.169   9.653  10.013
32557SOL    HW199568  14.225   9.599  10.070
32557SOL    HW299569  14.212   9.650   9.928
32558SOL     OW99570  10.220   3.469   7.762
32558SOL    HW199571  10.141   3.424   7.791
32558SOL    HW299572  10.200   3.498   7.673
32559SOL     OW99573   8.880  11.623   9.019
32559SOL    HW199574   8.844  11.700   8.975
32559SOL    HW299575   8.808  11.589   9.072
32560SOL     OW99576   3.982   5.457  12.585
32560SOL    HW199577   3.992   5.379  12.640
32560SOL    HW299578   3.952   5.524  12.646
32561SOL     OW99579   8.400   9.932   9.643
32561SOL    HW199580   8.445  10.008   9.606
32561SOL    HW299581   8.308   9.945   9.620
32562SOL     OW99582  14.867  13.019  11.290
32562SOL    HW199583  14.803  12.976  11.233
32562SOL    HW299584  14.821  13.095  11.326
32563SOL     OW99585   1.708  14.272  10.807
32563SOL    HW199586   1.721  14.246  10.898
32563SOL    HW299587   1.781  14.232  10.760
32564SOL     OW99588   4.176   9.879   0.152
32564SOL    HW199589   4.100   9.923   0.113
32564SOL    HW299590   4.200   9.933   0.227
32565SOL     OW99591  12.241   3.394   7.171
32565SOL    HW199592  12.187   3.315   7.163
32565SOL    HW299593  12.280   3.388   7.258
32566SOL     OW99594   0.226   5.141   1.057
32566SOL    HW199595   0.210   5.047   1.068
32566SOL    HW299596   0.245   5.151   0.964
32567SOL     OW99597  13.555   8.681   9.157
32567SOL    HW199598  13.534   8.625   9.083
32567SOL    HW299599  13.496   8.756   9.149
32568SOL     OW99600   7.241  12.279   2.809
32568SOL    HW199601   7.246  12.186   2.828
32568SOL    HW299602   7.322  12.298   2.762
32569SOL     OW99603   5.902   9.226  13.229
32569SOL    HW199604   5.824   9.188  13.270
32569SOL    HW299605   5.956   9.255  13.302
32570SOL     OW99606  13.709   5.909  14.230
32570SOL    HW199607  13.755   5.854  14.166
32570SOL    HW299608  13.678   5.848  14.296
32571SOL     OW99609  10.642   4.026   8.817
32571SOL    HW199610  10.738   4.031   8.819
32571SOL    HW299611  10.621   3.942   8.858
32572SOL     OW99612   1.889   8.743  10.567
32572SOL    HW199613   1.936   8.692  10.501
32572SOL    HW299614   1.841   8.809  10.517
32573SOL     OW99615   8.949   6.260   3.769
32573SOL    HW199616   8.891   6.255   3.845
32573SOL    HW299617   8.893   6.293   3.698
32574SOL     OW99618   7.432  13.593  14.006
32574SOL    HW199619   7.517  13.636  14.015
32574SOL    HW299620   7.437  13.517  14.065
32575SOL     OW99621   0.991  12.080   9.599
32575SOL    HW199622   0.989  12.072   9.695
32575SOL    HW299623   0.899  12.076   9.573
32576SOL     OW99624   3.490   5.907   3.555
32576SOL    HW199625   3.415   5.861   3.592
32576SOL    HW299626   3.452   5.977   3.503
32577SOL     OW99627   1.219  14.685   5.309
32577SOL    HW199628   1.260  14.604   5.279
32577SOL    HW299629   1.274  14.755   5.273
32578SOL     OW99630   8.249   5.947   4.349
32578SOL    HW199631   8.303   5.985   4.280
32578SOL    HW299632   8.214   5.866   4.310
32579SOL     OW99633   1.350   7.906  13.285
32579SOL    HW199634   1.297   7.881  13.210
32579SOL    HW299635   1.313   7.858  13.359
32580SOL     OW99636   2.750  10.407   7.156
32580SOL    HW199637   2.726  10.431   7.246
32580SOL    HW299638   2.761  10.312   7.159
32581SOL     OW99639  11.086   5.257  14.024
32581SOL    HW199640  11.075   5.318  13.951
32581SOL    HW299641  11.048   5.175  13.994
32582SOL     OW99642  11.115   7.325   3.147
32582SOL    HW199643  11.063   7.277   3.211
32582SOL    HW299644  11.204   7.324   3.183
32583SOL     OW99645   7.030  13.914   6.528
32583SOL    HW199646   7.050  13.862   6.607
32583SOL    HW299647   7.116  13.933   6.490
32584SOL     OW99648   2.467   6.583   1.397
32584SOL    HW199649   2.401   6.594   1.465
32584SOL    HW299650   2.525   6.659   1.406
32585SOL     OW99651   6.955   7.033  11.055
32585SOL    HW199652   6.937   7.021  10.961
32585SOL    HW299653   6.911   7.116  11.076
32586SOL     OW99654   9.215   8.513   8.524
32586SOL    HW199655   9.229   8.525   8.430
32586SOL    HW299656   9.124   8.484   8.532
32587SOL     OW99657   5.484   2.961   8.340
32587SOL    HW199658   5.552   2.944   8.406
32587SOL    HW299659   5.415   2.898   8.360
32588SOL     OW99660   2.128   9.720   4.034
32588SOL    HW199661   2.158   9.737   4.124
32588SOL    HW299662   2.194   9.761   3.978
32589SOL     OW99663  12.405   0.945   2.437
32589SOL    HW199664  12.331   0.956   2.498
32589SOL    HW299665  12.370   0.972   2.352
32590SOL     OW99666   5.810  11.923   8.364
32590SOL    HW199667   5.884  11.982   8.378
32590SOL    HW299668   5.734  11.980   8.359
32591SOL     OW99669   0.072   3.688   8.335
32591SOL    HW199670  14.860   3.674   8.346
32591SOL    HW299671   0.078   3.776   8.297
32592SOL     OW99672   2.744  11.797  10.651
32592SOL    HW199673   2.772  11.707  10.671
32592SOL    HW299674   2.709  11.791  10.562
32593SOL     OW99675   4.836  13.133  11.874
32593SOL    HW199676   4.760  13.175  11.914
32593SOL    HW299677   4.829  13.041  11.901
32594SOL     OW99678   0.943  11.592   4.713
32594SOL    HW199679   0.978  11.508   4.740
32594SOL    HW299680   0.898  11.626   4.790
32595SOL     OW99681  11.425   8.932   1.696
32595SOL    HW199682  11.487   8.990   1.653
32595SOL    HW299683  11.453   8.844   1.671
32596SOL     OW99684   0.740   9.016  12.396
32596SOL    HW199685   0.658   9.041  12.354
32596SOL    HW299686   0.792   9.097  12.397
32597SOL     OW99687  13.988   9.497   0.334
32597SOL    HW199688  13.977   9.592   0.323
32597SOL    HW299689  13.927   9.458   0.270
32598SOL     OW99690   0.838   4.455   7.938
32598SOL    HW199691   0.892   4.516   7.989
32598SOL    HW299692   0.788   4.406   8.004
32599SOL     OW99693  12.276   9.726   9.667
32599SOL    HW199694  12.364   9.754   9.643
32599SOL    HW299695  12.259   9.650   9.611
32600SOL     OW99696   0.145   8.504  14.700
32600SOL    HW199697   0.221   8.473  14.651
32600SOL    HW299698   0.171   8.494  14.792
32601SOL     OW99699  11.459  13.620   3.914
32601SOL    HW199700  11.536  13.578   3.876
32601SOL    HW299701  11.483  13.637   4.005
32602SOL     OW99702   6.987   3.063   5.028
32602SOL    HW199703   7.011   3.110   4.949
32602SOL    HW299704   6.900   3.095   5.050
32603SOL     OW99705   7.036   7.821   4.571
32603SOL    HW199706   7.066   7.766   4.499
32603SOL    HW299707   6.975   7.882   4.530
32604SOL     OW99708   9.981  13.425  10.249
32604SOL    HW199709   9.903  13.468  10.212
32604SOL    HW299710   9.963  13.420  10.343
32605SOL     OW99711  13.271   6.595   1.709
32605SOL    HW199712  13.297   6.564   1.622
32605SOL    HW299713  13.307   6.684   1.714
32606SOL     OW99714   8.984   3.332   8.025
32606SOL    HW199715   8.949   3.383   7.952
32606SOL    HW299716   9.069   3.301   7.993
32607SOL     OW99717  14.774   6.064   1.777
32607SOL    HW199718  14.682   6.068   1.750
32607SOL    HW299719  14.823   6.077   1.696
32608SOL     OW99720   7.833   8.432  10.383
32608SOL    HW199721   7.748   8.396  10.408
32608SOL    HW299722   7.886   8.355  10.361
32609SOL     OW99723   5.025   5.718   1.579
32609SOL    HW199724   5.091   5.775   1.540
32609SOL    HW299725   5.013   5.753   1.667
32610SOL     OW99726   3.620  13.936   2.667
32610SOL    HW199727   3.548  13.987   2.705
32610SOL    HW299728   3.588  13.910   2.581
32611SOL     OW99729  12.707   5.356   8.958
32611SOL    HW199730  12.655   5.282   8.990
32611SOL    HW299731  12.791   5.346   9.002
32612SOL     OW99732  10.918   1.101  13.426
32612SOL    HW199733  10.838   1.121  13.475
32612SOL    HW299734  10.949   1.187  13.397
32613SOL     OW99735  10.298  11.698   8.710
32613SOL    HW199736  10.324  11.610   8.683
32613SOL    HW299737  10.357  11.757   8.663
32614SOL     OW99738  12.384   6.955   5.248
32614SOL    HW199739  12.342   6.881   5.292
32614SOL    HW299740  12.312   7.015   5.229
32615SOL     OW99741   3.871   8.844   9.401
32615SOL    HW199742   3.963   8.865   9.390
32615SOL    HW299743   3.864   8.751   9.380
32616SOL     OW99744   0.433   1.712   2.294
32616SOL    HW199745   0.505   1.748   2.346
32616SOL    HW299746   0.402   1.637   2.345
32617SOL     OW99747   0.412   6.243  12.516
32617SOL    HW199748   0.454   6.235  12.602
32617SOL    HW299749   0.448   6.171  12.465
32618SOL     OW99750   9.539  12.284  14.045
32618SOL    HW199751   9.599  12.211  14.033
32618SOL    HW299752   9.587  12.361  14.014
32619SOL     OW99753  11.048   2.784   6.513
32619SOL    HW199754  11.039   2.729   6.435
32619SOL    HW299755  10.988   2.857   6.498
32620SOL     OW99756   7.688   1.183  11.958
32620SOL    HW199757   7.740   1.214  12.032
32620SOL    HW299758   7.736   1.106  11.926
32621SOL     OW99759   2.724   5.617   7.032
32621SOL    HW199760   2.744   5.625   7.125
32621SOL    HW299761   2.698   5.525   7.021
32622SOL     OW99762   6.285   5.360   1.352
32622SOL    HW199763   6.337   5.288   1.316
32622SOL    HW299764   6.231   5.319   1.420
32623SOL     OW99765  12.798   7.575  14.777
32623SOL    HW199766  12.716   7.595  14.821
32623SOL    HW299767  12.865   7.597  14.842
32624SOL     OW99768  13.434   2.404   1.639
32624SOL    HW199769  13.408   2.396   1.547
32624SOL    HW299770  13.369   2.462   1.678
32625SOL     OW99771  14.449  12.750   6.062
32625SOL    HW199772  14.402  12.708   5.989
32625SOL    HW299773  14.518  12.688   6.083
32626SOL     OW99774   3.981   9.016   0.207
32626SOL    HW199775   4.001   8.929   0.172
32626SOL    HW299776   3.963   9.070   0.130
32627SOL     OW99777   1.710   8.944   5.146
32627SOL    HW199778   1.757   8.861   5.134
32627SOL    HW299779   1.621   8.918   5.171
32628SOL     OW99780   8.961  13.961  12.267
32628SOL    HW199781   8.896  13.971  12.336
32628SOL    HW299782   8.919  13.999  12.189
32629SOL     OW99783  11.553  12.687   6.650
32629SOL    HW199784  11.579  12.598   6.628
32629SOL    HW299785  11.636  12.735   6.657
32630SOL     OW99786   8.496  10.943   6.029
32630SOL    HW199787   8.494  10.972   5.938
32630SOL    HW299788   8.487  10.848   6.024
32631SOL     OW99789   8.338  10.599   1.072
32631SOL    HW199790   8.398  10.644   1.132
32631SOL    HW299791   8.385  10.521   1.045
32632SOL     OW99792  11.541   2.945  10.620
32632SOL    HW199793  11.517   3.013  10.557
32632SOL    HW299794  11.564   2.869  10.567
32633SOL     OW99795   8.534   1.899   7.133
32633SOL    HW199796   8.518   1.899   7.038
32633SOL    HW299797   8.482   1.826   7.166
32634SOL     OW99798   8.932   4.166  12.930
32634SOL    HW199799   8.852   4.188  12.977
32634SOL    HW299800   8.915   4.080  12.891
32635SOL     OW99801  14.468  10.119   0.725
32635SOL    HW199802  14.417  10.081   0.654
32635SOL    HW299803  14.404  10.170   0.776
32636SOL     OW99804   4.311   0.569   8.640
32636SOL    HW199805   4.383   0.557   8.702
32636SOL    HW299806   4.305   0.486   8.593
32637SOL     OW99807   3.682   1.045   6.530
32637SOL    HW199808   3.647   1.032   6.442
32637SOL    HW299809   3.730   0.965   6.549
32638SOL     OW99810   3.638  13.346   1.472
32638SOL    HW199811   3.656  13.271   1.529
32638SOL    HW299812   3.714  13.403   1.482
32639SOL     OW99813  13.756   4.243   5.122
32639SOL    HW199814  13.663   4.223   5.137
32639SOL    HW299815  13.776   4.314   5.183
32640SOL     OW99816   6.353   0.037   2.730
32640SOL    HW199817   6.337  14.862   2.654
32640SOL    HW299818   6.280   0.098   2.729
32641SOL     OW99819   0.205   9.595   9.690
32641SOL    HW199820   0.122   9.548   9.703
32641SOL    HW299821   0.239   9.607   9.779
32642SOL     OW99822  10.521   6.717  12.286
32642SOL    HW199823  10.507   6.639  12.232
32642SOL    HW299824  10.471   6.785  12.241
32643SOL     OW99825   8.935  13.703   2.388
32643SOL    HW199826   9.013  13.661   2.425
32643SOL    HW299827   8.966  13.787   2.355
32644SOL     OW99828  14.220   8.182   2.721
32644SOL    HW199829  14.213   8.230   2.804
32644SOL    HW299830  14.132   8.188   2.683
32645SOL     OW99831   1.682  11.776  11.687
32645SOL    HW199832   1.691  11.681  11.682
32645SOL    HW299833   1.751  11.809  11.629
32646SOL     OW99834  10.906   0.234   7.555
32646SOL    HW199835  10.825   0.245   7.605
32646SOL    HW299836  10.938   0.323   7.541
32647SOL     OW99837   1.346  11.876   4.640
32647SOL    HW199838   1.251  11.864   4.641
32647SOL    HW299839   1.359  11.963   4.602
32648SOL     OW99840  12.395  14.496  11.813
32648SOL    HW199841  12.391  14.569  11.751
32648SOL    HW299842  12.350  14.528  11.891
32649SOL     OW99843   6.363   8.554   5.499
32649SOL    HW199844   6.343   8.575   5.590
32649SOL    HW299845   6.401   8.635   5.464
32650SOL     OW99846   9.910  13.847   5.082
32650SOL    HW199847   9.865  13.787   5.142
32650SOL    HW299848   9.920  13.797   5.001
32651SOL     OW99849  10.519   8.102  11.137
32651SOL    HW199850  10.513   8.089  11.232
32651SOL    HW299851  10.482   8.189  11.122
32652SOL     OW99852  11.380  13.885   9.530
32652SOL    HW199853  11.414  13.809   9.577
32652SOL    HW299854  11.371  13.953   9.597
32653SOL     OW99855   9.876  13.810   3.033
32653SOL    HW199856   9.924  13.881   3.076
32653SOL    HW299857   9.787  13.843   3.025
32654SOL     OW99858   9.341   3.804  13.734
32654SOL    HW199859   9.270   3.742  13.754
32654SOL    HW299860   9.318   3.883  13.783
32655SOL     OW99861   1.446   1.566   6.424
32655SOL    HW199862   1.361   1.580   6.384
32655SOL    HW299863   1.480   1.487   6.381
32656SOL     OW99864   3.094  10.696   0.704
32656SOL    HW199865   3.126  10.686   0.614
32656SOL    HW299866   3.169  10.731   0.752
32657SOL     OW99867  10.432   8.085  11.661
32657SOL    HW199868  10.341   8.091  11.690
32657SOL    HW299869  10.465   8.004  11.700
32658SOL     OW99870   9.826  14.310   0.888
32658SOL    HW199871   9.844  14.346   0.975
32658SOL    HW299872   9.741  14.266   0.897
32659SOL     OW99873   1.849  12.594   4.186
32659SOL    HW199874   1.917  12.571   4.122
32659SOL    HW299875   1.888  12.667   4.236
32660SOL     OW99876  11.479   3.558  11.111
32660SOL    HW199877  11.489   3.632  11.171
32660SOL    HW299878  11.464   3.483  11.168
32661SOL     OW99879  12.180   3.019   2.131
32661SOL    HW199880  12.208   3.105   2.162
32661SOL    HW299881  12.176   3.029   2.035
32662SOL     OW99882  11.212   2.743  12.669
32662SOL    HW199883  11.134   2.741  12.725
32662SOL    HW299884  11.265   2.669  12.700
32663SOL     OW99885   9.825   3.089  13.455
32663SOL    HW199886   9.909   3.134  13.465
32663SOL    HW299887   9.795   3.115  13.368
32664SOL     OW99888   5.889   5.065   1.195
32664SOL    HW199889   5.884   5.157   1.170
32664SOL    HW299890   5.950   5.027   1.132
32665SOL     OW99891   0.485   3.118  10.426
32665SOL    HW199892   0.555   3.177  10.457
32665SOL    HW299893   0.523   3.030  10.433
32666SOL     OW99894   2.214   4.357  14.195
32666SOL    HW199895   2.156   4.340  14.121
32666SOL    HW299896   2.159   4.402  14.259
32667SOL     OW99897   8.512  13.378  10.787
32667SOL    HW199898   8.431  13.339  10.752
32667SOL    HW299899   8.494  13.472  10.788
32668SOL     OW99900   7.714   4.511   5.996
32668SOL    HW199901   7.767   4.572   6.047
32668SOL    HW299902   7.777   4.458   5.947
32669SOL     OW99903   6.929   7.082  12.354
32669SOL    HW199904   6.879   7.161  12.377
32669SOL    HW299905   6.939   7.035  12.436
32670SOL     OW99906   3.041   4.681  11.331
32670SOL    HW199907   3.023   4.732  11.252
32670SOL    HW299908   3.133   4.697  11.349
32671SOL     OW99909   1.456  13.922   9.672
32671SOL    HW199910   1.419  13.860   9.735
32671SOL    HW299911   1.540  13.885   9.647
32672SOL     OW99912   8.454   6.842   0.273
32672SOL    HW199913   8.472   6.820   0.365
32672SOL    HW299914   8.395   6.917   0.277
32673SOL     OW99915  10.410   9.758   3.872
32673SOL    HW199916  10.437   9.673   3.908
32673SOL    HW299917  10.323   9.742   3.837
32674SOL     OW99918  12.176   4.209   9.326
32674SOL    HW199919  12.208   4.295   9.299
32674SOL    HW299920  12.211   4.197   9.414
32675SOL     OW99921   7.781   1.005  14.311
32675SOL    HW199922   7.847   1.074  14.323
32675SOL    HW299923   7.817   0.930  14.358
32676SOL     OW99924   2.749  10.661   3.828
32676SOL    HW199925   2.697  10.651   3.749
32676SOL    HW299926   2.796  10.578   3.837
32677SOL     OW99927  12.336   2.015   5.600
32677SOL    HW199928  12.274   2.088   5.595
32677SOL    HW299929  12.399   2.033   5.531
32678SOL     OW99930   6.713   0.270   5.201
32678SOL    HW199931   6.714   0.175   5.197
32678SOL    HW299932   6.802   0.295   5.227
32679SOL     OW99933   0.109   2.864  14.381
32679SOL    HW199934   0.165   2.797  14.419
32679SOL    HW299935   0.078   2.915  14.456
32680SOL     OW99936   3.791   5.448  13.812
32680SOL    HW199937   3.846   5.370  13.815
32680SOL    HW299938   3.816   5.492  13.731
32681SOL     OW99939   1.577  12.061  13.672
32681SOL    HW199940   1.526  12.090  13.596
32681SOL    HW299941   1.586  12.140  13.726
32682SOL     OW99942   8.350   5.487   6.150
32682SOL    HW199943   8.296   5.411   6.126
32682SOL    HW299944   8.354   5.484   6.246
32683SOL     OW99945   4.091  12.963   1.067
32683SOL    HW199946   4.055  12.941   0.981
32683SOL    HW299947   4.182  12.989   1.049
32684SOL     OW99948  12.804   5.313  10.324
32684SOL    HW199949  12.861   5.239  10.344
32684SOL    HW299950  12.763   5.289  10.241
32685SOL     OW99951   5.097   7.932   0.735
32685SOL    HW199952   5.190   7.910   0.736
32685SOL    HW299953   5.085   7.984   0.656
32686SOL     OW99954   5.356   5.745   0.708
32686SOL    HW199955   5.399   5.768   0.790
32686SOL    HW299956   5.428   5.716   0.651
32687SOL     OW99957  13.115   3.112   5.767
32687SOL    HW199958  13.032   3.066   5.769
32687SOL    HW299959  13.097   3.196   5.809
32688SOL     OW99960  12.497  10.801  12.675
32688SOL    HW199961  12.547  10.881  12.695
32688SOL    HW299962  12.414  10.833  12.641
32689SOL     OW99963   9.726  11.464  11.003
32689SOL    HW199964   9.701  11.555  11.021
32689SOL    HW299965   9.772  11.435  11.081
32690SOL     OW99966   2.917   1.310  10.460
32690SOL    HW199967   3.007   1.290  10.487
32690SOL    HW299968   2.926   1.385  10.402
32691SOL     OW99969  13.496  11.021   2.774
32691SOL    HW199970  13.402  11.009   2.783
32691SOL    HW299971  13.506  11.106   2.731
32692SOL     OW99972   2.853   8.454   2.070
32692SOL    HW199973   2.930   8.404   2.099
32692SOL    HW299974   2.863   8.461   1.975
32693SOL     OW99975  14.438  13.832  11.460
32693SOL    HW199976  14.397  13.767  11.515
32693SOL    HW299977  14.390  13.828  11.377
32694SOL     OW99978   4.668   1.552   7.461
32694SOL    HW199979   4.617   1.581   7.386
32694SOL    HW299980   4.658   1.622   7.525
32695SOL     OW99981   7.554   5.782   9.997
32695SOL    HW199982   7.530   5.874   9.994
32695SOL    HW299983   7.487   5.738   9.944
32696SOL     OW99984   6.112   0.280   0.006
32696SOL    HW199985   6.026   0.239  14.874
32696SOL    HW299986   6.094   0.374   0.007
32697SOL     OW99987   8.657   2.834   5.865
32697SOL    HW199988   8.572   2.829   5.909
32697SOL    HW299989   8.662   2.925   5.833
32698SOL     OW99990  14.212   3.192   3.136
32698SOL    HW199991  14.247   3.144   3.060
32698SOL    HW299992  14.132   3.145   3.159
32699SOL     OW99993  11.665   9.204  14.364
32699SOL    HW199994  11.674   9.223  14.271
32699SOL    HW299995  11.675   9.109  14.370
32700SOL     OW99996  14.585   1.308   5.307
32700SOL    HW199997  14.620   1.386   5.350
32700SOL    HW299998  14.577   1.332   5.215
32701SOL     OW99999   3.714   9.626  13.763
32701SOL    HW1    0   3.762   9.554  13.804
32701SOL    HW2    1   3.643   9.583  13.715
32702SOL     OW    2  10.730  14.388  10.539
32702SOL    HW1    3  10.748  14.481  10.541
32702SOL    HW2    4  10.691  14.372  10.453
32703SOL     OW    5   9.554   6.115  10.783
32703SOL    HW1    6   9.624   6.168  10.745
32703SOL    HW2    7   9.490   6.178  10.815
32704SOL     OW    8   6.759   4.988   6.891
32704SOL    HW1    9   6.755   5.051   6.820
32704SOL    HW2   10   6.667   4.969   6.912
32705SOL     OW   11  13.394  12.186   8.053
32705SOL    HW1   12  13.343  12.105   8.058
32705SOL    HW2   13  13.372  12.233   8.133
32706SOL     OW   14   6.154  12.303  12.046
32706SOL    HW1   15   6.131  12.262  12.129
32706SOL    HW2   16   6.219  12.370  12.070
32707SOL     OW   17  13.579   3.617  10.363
32707SOL    HW1   18  13.659   3.576  10.394
32707SOL    HW2   19  13.579   3.601  10.268
32708SOL     OW   20  12.386   2.187  11.424
32708SOL    HW1   21  12.307   2.160  11.470
32708SOL    HW2   22  12.443   2.223  11.492
32709SOL     OW   23  12.696  14.485   2.788
32709SOL    HW1   24  12.617  14.503   2.737
32709SOL    HW2   25  12.674  14.408   2.841
32710SOL     OW   26   6.892   8.101  13.737
32710SOL    HW1   27   6.984   8.084  13.717
32710SOL    HW2   28   6.888   8.196  13.752
32711SOL     OW   29  12.242  14.074   7.618
32711SOL    HW1   30  12.214  14.019   7.545
32711SOL    HW2   31  12.201  14.159   7.601
32712SOL     OW   32  12.223   1.192  12.225
32712SOL    HW1   33  12.187   1.125  12.284
32712SOL    HW2   34  12.213   1.155  12.138
32713SOL     OW   35   0.716   8.478   5.106
32713SOL    HW1   36   0.691   8.397   5.061
32713SOL    HW2   37   0.723   8.543   5.035
32714SOL     OW   38   4.592   0.623  14.127
32714SOL    HW1   39   4.539   0.679  14.184
32714SOL    HW2   40   4.529   0.563  14.088
32715SOL     OW   41   1.962   4.048   7.552
32715SOL    HW1   42   1.952   4.005   7.467
32715SOL    HW2   43   2.013   3.986   7.604
32716SOL     OW   44   0.046   3.842   7.568
32716SOL    HW1   45  14.863   3.773   7.552
32716SOL    HW2   46   0.023   3.876   7.654
32717SOL     OW   47   6.483   9.682   6.481
32717SOL    HW1   48   6.531   9.600   6.476
32717SOL    HW2   49   6.523   9.738   6.414
32718SOL     OW   50   3.776   9.224   1.274
32718SOL    HW1   51   3.734   9.163   1.214
32718SOL    HW2   52   3.869   9.219   1.253
32719SOL     OW   53   9.309   7.058   2.439
32719SOL    HW1   54   9.400   7.082   2.421
32719SOL    HW2   55   9.258   7.135   2.412
32720SOL     OW   56   3.398   3.781  14.064
32720SOL    HW1   57   3.395   3.729  14.145
32720SOL    HW2   58   3.317   3.832  14.065
32721SOL     OW   59   4.636  11.451   0.796
32721SOL    HW1   60   4.718  11.492   0.825
32721SOL    HW2   61   4.664  11.366   0.761
32722SOL     OW   62  10.337   7.455  11.835
32722SOL    HW1   63  10.336   7.523  11.768
32722SOL    HW2   64  10.245   7.427  11.841
32723SOL     OW   65  10.400  14.129   7.317
32723SOL    HW1   66  10.426  14.129   7.225
32723SOL    HW2   67  10.311  14.095   7.316
32724SOL     OW   68   8.114   6.893   9.944
32724SOL    HW1   69   8.169   6.907   9.867
32724SOL    HW2   70   8.167   6.924  10.018
32725SOL     OW   71  13.995   7.438   2.567
32725SOL    HW1   72  14.052   7.500   2.613
32725SOL    HW2   73  13.931   7.493   2.523
32726SOL     OW   74  14.565   9.510   0.199
32726SOL    HW1   75  14.525   9.562   0.129
32726SOL    HW2   76  14.622   9.571   0.246
32727SOL     OW   77  14.729   9.916   8.565
32727SOL    HW1   78  14.774   9.917   8.480
32727SOL    HW2   79  14.738   9.825   8.595
32728SOL     OW   80  12.833   7.885  12.985
32728SOL    HW1   81  12.829   7.813  12.923
32728SOL    HW2   82  12.768   7.863  13.051
32729SOL     OW   83   5.939   9.259  11.829
32729SOL    HW1   84   5.998   9.291  11.898
32729SOL    HW2   85   5.979   9.292  11.748
32730SOL     OW   86   1.088   9.419   2.313
32730SOL    HW1   87   1.076   9.325   2.324
32730SOL    HW2   88   1.003   9.451   2.281
32731SOL     OW   89   3.517  10.211   9.244
32731SOL    HW1   90   3.611  10.211   9.264
32731SOL    HW2   91   3.512  10.248   9.156
32732SOL     OW   92   9.645  10.425   5.915
32732SOL    HW1   93   9.698  10.504   5.903
32732SOL    HW2   94   9.708  10.359   5.944
32733SOL     OW   95   7.680  14.792   3.904
32733SOL    HW1   96   7.679  14.702   3.939
32733SOL    HW2   97   7.687  14.781   3.810
32734SOL     OW   98  11.557   1.822   6.188
32734SOL    HW1   99  11.651   1.811   6.170
32734SOL    HW2  100  11.513   1.784   6.112
32735SOL     OW  101  11.776   4.157   2.236
32735SOL    HW1  102  11.760   4.132   2.146
32735SOL    HW2  103  11.846   4.223   2.230
32736SOL     OW  104   9.675   7.784  13.531
32736SOL    HW1  105   9.591   7.746  13.505
32736SOL    HW2  106   9.711   7.720  13.593
32737SOL     OW  107  12.323  10.000   9.755
32737SOL    HW1  108  12.298   9.925   9.702
32737SOL    HW2  109  12.271   9.991   9.835
32738SOL     OW  110  11.069   2.452  12.463
32738SOL    HW1  111  11.104   2.397  12.533
32738SOL    HW2  112  10.975   2.455  12.479
32739SOL     OW  113   0.771   4.006  12.267
32739SOL    HW1  114   0.792   4.015  12.360
32739SOL    HW2  115   0.676   3.999  12.264
32740SOL     OW  116   1.019   0.408   7.363
32740SOL    HW1  117   1.031   0.359   7.444
32740SOL    HW2  118   0.969   0.485   7.389
32741SOL     OW  119   9.224  11.941  10.417
32741SOL    HW1  120   9.220  11.924  10.511
32741SOL    HW2  121   9.271  12.024  10.409
32742SOL     OW  122   1.000   0.812   2.552
32742SOL    HW1  123   1.019   0.864   2.474
32742SOL    HW2  124   1.023   0.869   2.625
32743SOL     OW  125   3.214   6.502  10.225
32743SOL    HW1  126   3.147   6.434  10.222
32743SOL    HW2  127   3.246   6.499  10.315
32744SOL     OW  128   9.325  14.574   1.320
32744SOL    HW1  129   9.244  14.624   1.330
32744SOL    HW2  130   9.350  14.586   1.229
32745SOL     OW  131   8.408   2.917   5.984
32745SOL    HW1  132   8.398   3.000   6.032
32745SOL    HW2  133   8.327   2.911   5.933
32746SOL     OW  134   1.844  13.828  12.503
32746SOL    HW1  135   1.752  13.811  12.481
32746SOL    HW2  136   1.887  13.744  12.493
32747SOL     OW  137   7.122   2.310  10.995
32747SOL    HW1  138   7.079   2.362  10.928
32747SOL    HW2  139   7.177   2.372  11.042
32748SOL     OW  140   3.565   8.374   8.820
32748SOL    HW1  141   3.645   8.367   8.770
32748SOL    HW2  142   3.573   8.307   8.888
32749SOL     OW  143   8.126  10.427   3.664
32749SOL    HW1  144   8.067  10.491   3.625
32749SOL    HW2  145   8.190  10.479   3.712
32750SOL     OW  146   9.923  13.012   7.738
32750SOL    HW1  147  10.002  13.049   7.698
32750SOL    HW2  148   9.901  12.937   7.683
32751SOL     OW  149   2.147  10.350   1.527
32751SOL    HW1  150   2.206  10.411   1.570
32751SOL    HW2  151   2.078  10.335   1.592
32752SOL     OW  152   9.994   2.209   1.779
32752SOL    HW1  153   9.905   2.217   1.745
32752SOL    HW2  154  10.049   2.201   1.702
32753SOL     OW  155   1.758   7.006   6.733
32753SOL    HW1  156   1.847   6.991   6.702
32753SOL    HW2  157   1.710   7.033   6.655
32754SOL     OW  158   3.724  11.189   8.080
32754SOL    HW1  159   3.749  11.170   8.170
32754SOL    HW2  160   3.772  11.125   8.027
32755SOL     OW  161   2.165   8.764  13.421
32755SOL    HW1  162   2.194   8.717  13.499
32755SOL    HW2  163   2.163   8.856  13.448
32756SOL     OW  164   9.211  13.710   7.466
32756SOL    HW1  165   9.279  13.702   7.533
32756SOL    HW2  166   9.247  13.774   7.404
32757SOL     OW  167   2.772  13.416  11.139
32757SOL    HW1  168   2.679  13.437  11.145
32757SOL    HW2  169   2.804  13.467  11.064
32758SOL     OW  170   7.413   4.452  11.685
32758SOL    HW1  171   7.358   4.529  11.671
32758SOL    HW2  172   7.386   4.390  11.616
32759SOL     OW  173  10.544  14.874   0.795
32759SOL    HW1  174  10.615  14.812   0.780
32759SOL    HW2  175  10.532   0.036   0.711
32760SOL     OW  176  12.077  12.771   7.450
32760SOL    HW1  177  12.021  12.804   7.380
32760SOL    HW2  178  12.017  12.724   7.509
32761SOL     OW  179  11.228   9.472   6.567
32761SOL    HW1  180  11.151   9.421   6.544
32761SOL    HW2  181  11.298   9.407   6.576
32762SOL     OW  182  10.187   7.741   6.478
32762SOL    HW1  183  10.111   7.714   6.427
32762SOL    HW2  184  10.173   7.834   6.495
32763SOL     OW  185   5.829   0.866   0.842
32763SOL    HW1  186   5.862   0.792   0.893
32763SOL    HW2  187   5.777   0.916   0.904
32764SOL     OW  188   6.777   7.066   9.364
32764SOL    HW1  189   6.769   7.100   9.275
32764SOL    HW2  190   6.870   7.048   9.375
32765SOL     OW  191   1.821   6.750  13.165
32765SOL    HW1  192   1.822   6.837  13.125
32765SOL    HW2  193   1.736   6.746  13.210
32766SOL     OW  194   6.572   8.702   0.479
32766SOL    HW1  195   6.517   8.648   0.535
32766SOL    HW2  196   6.561   8.666   0.391
32767SOL     OW  197   9.502   8.309  13.823
32767SOL    HW1  198   9.412   8.290  13.851
32767SOL    HW2  199   9.557   8.282  13.897
32768SOL     OW  200  10.560   9.996  13.615
32768SOL    HW1  201  10.611   9.915  13.618
32768SOL    HW2  202  10.486   9.981  13.674
32769SOL     OW  203  14.749  13.577   8.870
32769SOL    HW1  204  14.672  13.609   8.918
32769SOL    HW2  205  14.807  13.542   8.937
32770SOL     OW  206   0.584   2.655   8.950
32770SOL    HW1  207   0.535   2.734   8.975
32770SOL    HW2  208   0.538   2.622   8.872
32771SOL     OW  209   4.276   0.559   3.727
32771SOL    HW1  210   4.293   0.617   3.653
32771SOL    HW2  211   4.269   0.472   3.688
32772SOL     OW  212   3.123   8.729   4.067
32772SOL    HW1  213   3.151   8.646   4.107
32772SOL    HW2  214   3.155   8.796   4.128
32773SOL     OW  215   9.602  10.598   6.694
32773SOL    HW1  216   9.623  10.557   6.610
32773SOL    HW2  217   9.620  10.691   6.681
32774SOL     OW  218   2.896  10.977  11.627
32774SOL    HW1  219   2.917  11.059  11.582
32774SOL    HW2  220   2.959  10.914  11.593
32775SOL     OW  221  11.585  12.748   3.688
32775SOL    HW1  222  11.535  12.672   3.719
32775SOL    HW2  223  11.640  12.714   3.618
32776SOL     OW  224  11.794  10.983   5.875
32776SOL    HW1  225  11.799  11.028   5.790
32776SOL    HW2  226  11.777  10.892   5.852
32777SOL     OW  227   5.525   9.362   6.047
32777SOL    HW1  228   5.448   9.392   5.998
32777SOL    HW2  229   5.575   9.442   6.064
32778SOL     OW  230   5.537  12.872  11.981
32778SOL    HW1  231   5.622  12.856  11.942
32778SOL    HW2  232   5.475  12.824  11.926
32779SOL     OW  233   4.857   9.226  12.617
32779SOL    HW1  234   4.892   9.145  12.581
32779SOL    HW2  235   4.767   9.203  12.641
32780SOL     OW  236  10.981   3.176  11.403
32780SOL    HW1  237  10.953   3.258  11.362
32780SOL    HW2  238  10.909   3.153  11.461
32781SOL     OW  239   1.247   6.789   5.485
32781SOL    HW1  240   1.322   6.730   5.485
32781SOL    HW2  241   1.171   6.732   5.471
32782SOL     OW  242  12.527   4.172   7.025
32782SOL    HW1  243  12.556   4.205   7.110
32782SOL    HW2  244  12.432   4.160   7.035
32783SOL     OW  245   0.411  12.598   0.732
32783SOL    HW1  246   0.493  12.571   0.774
32783SOL    HW2  247   0.343  12.571   0.793
32784SOL     OW  248   3.307   0.997   1.620
32784SOL    HW1  249   3.258   0.986   1.539
32784SOL    HW2  250   3.347   0.911   1.636
32785SOL     OW  251   1.521   9.263   3.529
32785SOL    HW1  252   1.512   9.298   3.440
32785SOL    HW2  253   1.468   9.322   3.583
32786SOL     OW  254   8.284  12.263  14.175
32786SOL    HW1  255   8.210  12.322  14.165
32786SOL    HW2  256   8.355  12.318  14.209
32787SOL     OW  257  14.068   6.466  14.623
32787SOL    HW1  258  14.022   6.405  14.681
32787SOL    HW2  259  14.032   6.449  14.536
32788SOL     OW  260   5.060   1.414   2.230
32788SOL    HW1  261   5.070   1.507   2.248
32788SOL    HW2  262   5.149   1.381   2.219
32789SOL     OW  263   4.053   5.856   2.723
32789SOL    HW1  264   4.043   5.779   2.779
32789SOL    HW2  265   3.973   5.858   2.670
32790SOL     OW  266   7.288   6.777   3.126
32790SOL    HW1  267   7.234   6.778   3.047
32790SOL    HW2  268   7.378   6.778   3.093
32791SOL     OW  269   1.612   6.609   7.509
32791SOL    HW1  270   1.620   6.635   7.601
32791SOL    HW2  271   1.695   6.565   7.491
32792SOL     OW  272  10.017   5.063   5.223
32792SOL    HW1  273  10.078   5.058   5.296
32792SOL    HW2  274  10.015   5.156   5.200
32793SOL     OW  275  13.024   1.687  12.147
32793SOL    HW1  276  13.109   1.648  12.128
32793SOL    HW2  277  12.978   1.687  12.063
32794SOL     OW  278   9.617   5.776   3.367
32794SOL    HW1  279   9.636   5.714   3.297
32794SOL    HW2  280   9.528   5.757   3.394
32795SOL     OW  281  11.228  12.111   0.826
32795SOL    HW1  282  11.224  12.016   0.823
32795SOL    HW2  283  11.163  12.136   0.892
32796SOL     OW  284   4.334  11.967   5.366
32796SOL    HW1  285   4.419  11.998   5.398
32796SOL    HW2  286   4.313  11.892   5.422
32797SOL     OW  287  10.217  11.962   5.519
32797SOL    HW1  288  10.181  12.011   5.594
32797SOL    HW2  289  10.184  12.009   5.442
32798SOL     OW  290  11.194  13.597   0.891
32798SOL    HW1  291  11.281  13.569   0.865
32798SOL    HW2  292  11.165  13.655   0.820
32799SOL     OW  293   8.993   2.593   3.961
32799SOL    HW1  294   8.954   2.675   3.930
32799SOL    HW2  295   9.008   2.542   3.882
32800SOL     OW  296  10.987   8.200   6.498
32800SOL    HW1  297  10.916   8.144   6.466
32800SOL    HW2  298  10.946   8.252   6.567
32801SOL     OW  299   8.271  14.795  14.692
32801SOL    HW1  300   8.237  14.761  14.775
32801SOL    HW2  301   8.338  14.732  14.665
32802SOL     OW  302  12.553   0.785  13.946
32802SOL    HW1  303  12.563   0.840  13.868
32802SOL    HW2  304  12.514   0.704  13.913
32803SOL     OW  305  14.586  12.277   3.043
32803SOL    HW1  306  14.528  12.227   3.101
32803SOL    HW2  307  14.673  12.263   3.079
32804SOL     OW  308  14.547  12.655  12.633
32804SOL    HW1  309  14.544  12.606  12.715
32804SOL    HW2  310  14.582  12.741  12.658
32805SOL     OW  311   2.824   2.946   3.306
32805SOL    HW1  312   2.771   3.026   3.307
32805SOL    HW2  313   2.761   2.875   3.292
32806SOL     OW  314   8.011   9.026  14.642
32806SOL    HW1  315   7.919   9.034  14.616
32806SOL    HW2  316   8.053   8.977  14.571
32807SOL     OW  317   5.777   5.078   0.435
32807SOL    HW1  318   5.815   4.998   0.398
32807SOL    HW2  319   5.782   5.066   0.529
32808SOL     OW  320  13.769   8.593   1.176
32808SOL    HW1  321  13.823   8.672   1.170
32808SOL    HW2  322  13.705   8.602   1.105
32809SOL     OW  323  13.918  14.368   7.463
32809SOL    HW1  324  13.936  14.440   7.524
32809SOL    HW2  325  13.822  14.362   7.462
32810SOL     OW  326   8.300  10.184   2.465
32810SOL    HW1  327   8.312  10.260   2.522
32810SOL    HW2  328   8.211  10.194   2.431
32811SOL     OW  329  13.836   5.049  12.745
32811SOL    HW1  330  13.848   5.084  12.833
32811SOL    HW2  331  13.924   5.043  12.708
32812SOL     OW  332   3.740   7.634   1.849
32812SOL    HW1  333   3.707   7.681   1.926
32812SOL    HW2  334   3.682   7.662   1.778
32813SOL     OW  335   6.341  12.874   8.192
32813SOL    HW1  336   6.249  12.873   8.220
32813SOL    HW2  337   6.338  12.909   8.103
32814SOL     OW  338  14.290  14.346  13.580
32814SOL    HW1  339  14.381  14.328  13.605
32814SOL    HW2  340  14.241  14.270  13.613
32815SOL     OW  341   8.625   8.025  11.444
32815SOL    HW1  342   8.686   8.055  11.377
32815SOL    HW2  343   8.679   8.010  11.521
32816SOL     OW  344   9.890   5.037  12.102
32816SOL    HW1  345   9.886   4.989  12.185
32816SOL    HW2  346   9.978   5.020  12.069
32817SOL     OW  347   1.725   1.818   6.474
32817SOL    HW1  348   1.733   1.909   6.444
32817SOL    HW2  349   1.639   1.815   6.516
32818SOL     OW  350   7.659   7.674  10.065
32818SOL    HW1  351   7.736   7.617  10.063
32818SOL    HW2  352   7.635   7.679  10.157
32819SOL     OW  353   0.935  11.590   0.014
32819SOL    HW1  354   0.985  11.509   0.010
32819SOL    HW2  355   0.941  11.626  14.807
32820SOL     OW  356  10.220   5.772   4.065
32820SOL    HW1  357  10.260   5.713   4.000
32820SOL    HW2  358  10.229   5.859   4.026
32821SOL     OW  359  14.073   9.196   7.276
32821SOL    HW1  360  14.107   9.280   7.308
32821SOL    HW2  361  13.983   9.214   7.252
32822SOL     OW  362  11.509  11.597   5.714
32822SOL    HW1  363  11.545  11.644   5.788
32822SOL    HW2  364  11.418  11.627   5.708
32823SOL     OW  365   4.817  14.830   4.603
32823SOL    HW1  366   4.735  14.848   4.556
32823SOL    HW2  367   4.798  14.753   4.656
32824SOL     OW  368   2.195   3.304   8.533
32824SOL    HW1  369   2.131   3.343   8.473
32824SOL    HW2  370   2.251   3.377   8.559
32825SOL     OW  371   6.039  12.186  12.959
32825SOL    HW1  372   6.064  12.236  12.881
32825SOL    HW2  373   5.945  12.171  12.948
32826SOL     OW  374   9.699   5.877   2.145
32826SOL    HW1  375   9.684   5.887   2.239
32826SOL    HW2  376   9.794   5.878   2.135
32827SOL     OW  377   7.784   9.384  13.037
32827SOL    HW1  378   7.836   9.430  13.103
32827SOL    HW2  379   7.715   9.340  13.087
32828SOL     OW  380   8.482   5.605  12.087
32828SOL    HW1  381   8.547   5.541  12.059
32828SOL    HW2  382   8.426   5.557  12.148
32829SOL     OW  383   2.888   0.827   1.543
32829SOL    HW1  384   2.826   0.754   1.536
32829SOL    HW2  385   2.832   0.905   1.540
32830SOL     OW  386  11.148   0.712   7.785
32830SOL    HW1  387  11.197   0.794   7.777
32830SOL    HW2  388  11.216   0.645   7.798
32831SOL     OW  389   7.005   8.949   0.192
32831SOL    HW1  390   7.069   8.895   0.239
32831SOL    HW2  391   6.926   8.895   0.188
32832SOL     OW  392   0.127   5.763  12.421
32832SOL    HW1  393   0.108   5.810  12.340
32832SOL    HW2  394   0.064   5.798  12.485
32833SOL     OW  395   0.854   6.717   1.840
32833SOL    HW1  396   0.857   6.763   1.756
32833SOL    HW2  397   0.783   6.760   1.889
32834SOL     OW  398   2.407   3.782   2.705
32834SOL    HW1  399   2.317   3.805   2.729
32834SOL    HW2  400   2.460   3.854   2.740
32835SOL     OW  401   0.056   1.033   8.465
32835SOL    HW1  402   0.023   1.016   8.553
32835SOL    HW2  403   0.097   1.119   8.472
32836SOL     OW  404  12.193  11.146  10.508
32836SOL    HW1  405  12.276  11.098  10.503
32836SOL    HW2  406  12.132  11.084  10.548
32837SOL     OW  407   9.858   3.935   3.738
32837SOL    HW1  408   9.874   3.930   3.832
32837SOL    HW2  409   9.929   3.884   3.699
32838SOL     OW  410   3.213  14.196   5.775
32838SOL    HW1  411   3.135  14.167   5.728
32838SOL    HW2  412   3.213  14.146   5.856
32839SOL     OW  413   3.419   1.904   6.564
32839SOL    HW1  414   3.414   1.817   6.606
32839SOL    HW2  415   3.373   1.893   6.481
32840SOL     OW  416  14.390   6.397   9.535
32840SOL    HW1  417  14.481   6.422   9.545
32840SOL    HW2  418  14.348   6.472   9.494
32841SOL     OW  419  14.674  13.390  10.335
32841SOL    HW1  420  14.624  13.436  10.403
32841SOL    HW2  421  14.761  13.430  10.338
32842SOL     OW  422   0.481   7.264   1.891
32842SOL    HW1  423   0.398   7.219   1.900
32842SOL    HW2  424   0.459   7.357   1.892
32843SOL     OW  425  11.468  14.061  14.150
32843SOL    HW1  426  11.534  13.993  14.138
32843SOL    HW2  427  11.517  14.135  14.186
32844SOL     OW  428   4.591  11.712   9.814
32844SOL    HW1  429   4.586  11.716   9.719
32844SOL    HW2  430   4.501  11.697   9.842
32845SOL     OW  431   0.862   4.576  11.712
32845SOL    HW1  432   0.789   4.587  11.772
32845SOL    HW2  433   0.842   4.495  11.665
32846SOL     OW  434  10.790   3.417   2.658
32846SOL    HW1  435  10.737   3.397   2.736
32846SOL    HW2  436  10.728   3.412   2.585
32847SOL     OW  437   1.979   0.314  10.802
32847SOL    HW1  438   1.897   0.279  10.839
32847SOL    HW2  439   1.987   0.270  10.717
32848SOL     OW  440  14.738  10.434   7.395
32848SOL    HW1  441  14.645  10.411   7.381
32848SOL    HW2  442  14.786  10.370   7.342
32849SOL     OW  443  13.195   6.792   3.485
32849SOL    HW1  444  13.235   6.718   3.438
32849SOL    HW2  445  13.255   6.808   3.559
32850SOL     OW  446   6.376   8.289   8.634
32850SOL    HW1  447   6.326   8.371   8.638
32850SOL    HW2  448   6.415   8.281   8.721
32851SOL     OW  449   5.297   1.707  12.810
32851SOL    HW1  450   5.241   1.673  12.880
32851SOL    HW2  451   5.238   1.754  12.751
32852SOL     OW  452   8.435   5.684   4.334
32852SOL    HW1  453   8.441   5.592   4.309
32852SOL    HW2  454   8.516   5.723   4.302
32853SOL     OW  455   2.040  13.349  12.586
32853SOL    HW1  456   1.950  13.334  12.612
32853SOL    HW2  457   2.081  13.391  12.662
32854SOL     OW  458   3.150   9.119   5.133
32854SOL    HW1  459   3.161   9.035   5.089
32854SOL    HW2  460   3.109   9.175   5.067
32855SOL     OW  461   6.995   0.344   2.611
32855SOL    HW1  462   6.972   0.376   2.698
32855SOL    HW2  463   7.085   0.313   2.620
32856SOL     OW  464   8.619  10.871  12.725
32856SOL    HW1  465   8.541  10.835  12.682
32856SOL    HW2  466   8.585  10.915  12.803
32857SOL     OW  467  10.966  14.592  13.734
32857SOL    HW1  468  11.052  14.617  13.768
32857SOL    HW2  469  10.951  14.503  13.767
32858SOL     OW  470  13.756  12.854   6.555
32858SOL    HW1  471  13.804  12.916   6.500
32858SOL    HW2  472  13.685  12.905   6.592
32859SOL     OW  473  12.794  11.036   1.048
32859SOL    HW1  474  12.771  11.060   1.138
32859SOL    HW2  475  12.802  11.119   1.002
32860SOL     OW  476   1.830   9.920   9.252
32860SOL    HW1  477   1.776   9.863   9.198
32860SOL    HW2  478   1.802   9.901   9.342
32861SOL     OW  479   6.424   1.953   1.977
32861SOL    HW1  480   6.513   1.921   1.963
32861SOL    HW2  481   6.387   1.960   1.889
32862SOL     OW  482  13.499  13.664   6.683
32862SOL    HW1  483  13.577  13.659   6.628
32862SOL    HW2  484  13.514  13.740   6.739
32863SOL     OW  485  11.673   3.567   2.591
32863SOL    HW1  486  11.661   3.624   2.515
32863SOL    HW2  487  11.749   3.602   2.636
32864SOL     OW  488  11.721   2.699   8.522
32864SOL    HW1  489  11.722   2.793   8.504
32864SOL    HW2  490  11.628   2.679   8.535
32865SOL     OW  491   9.946   0.066  11.461
32865SOL    HW1  492  10.027   0.022  11.487
32865SOL    HW2  493   9.902   0.087  11.543
32866SOL     OW  494   0.459   4.656   7.890
32866SOL    HW1  495   0.551   4.675   7.870
32866SOL    HW2  496   0.438   4.579   7.837
32867SOL     OW  497   3.091  10.884   9.542
32867SOL    HW1  498   3.043  10.919   9.467
32867SOL    HW2  499   3.167  10.941   9.552
32868SOL     OW  500  10.016   3.324   4.291
32868SOL    HW1  501   9.973   3.409   4.304
32868SOL    HW2  502  10.110   3.343   4.298
32869SOL     OW  503   2.622   9.558   7.155
32869SOL    HW1  504   2.566   9.608   7.096
32869SOL    HW2  505   2.563   9.496   7.198
32870SOL     OW  506   5.826   7.342  10.352
32870SOL    HW1  507   5.816   7.369  10.444
32870SOL    HW2  508   5.788   7.415  10.302
32871SOL     OW  509   6.891   0.359   8.808
32871SOL    HW1  510   6.925   0.283   8.760
32871SOL    HW2  511   6.823   0.323   8.865
32872SOL     OW  512  14.654   2.884   7.011
32872SOL    HW1  513  14.574   2.836   6.989
32872SOL    HW2  514  14.646   2.967   6.964
32873SOL     OW  515   8.907  10.746   6.745
32873SOL    HW1  516   8.855  10.753   6.665
32873SOL    HW2  517   8.997  10.757   6.715
32874SOL     OW  518  14.081   8.044  11.165
32874SOL    HW1  519  14.136   7.989  11.109
32874SOL    HW2  520  14.099   8.133  11.137
32875SOL     OW  521  14.372   5.941  11.784
32875SOL    HW1  522  14.281   5.969  11.795
32875SOL    HW2  523  14.422   6.023  11.781
32876SOL     OW  524  10.920  11.285   3.848
32876SOL    HW1  525  10.861  11.289   3.773
32876SOL    HW2  526  10.872  11.331   3.918
32877SOL     OW  527   1.709   9.954   6.780
32877SOL    HW1  528   1.716  10.048   6.769
32877SOL    HW2  529   1.640   9.927   6.720
32878SOL     OW  530   2.667   5.316  14.228
32878SOL    HW1  531   2.753   5.275  14.216
32878SOL    HW2  532   2.606   5.243  14.224
32879SOL     OW  533  12.775   7.288   8.755
32879SOL    HW1  534  12.789   7.381   8.734
32879SOL    HW2  535  12.863   7.251   8.758
32880SOL     OW  536   1.440  14.721  12.605
32880SOL    HW1  537   1.418  14.811  12.628
32880SOL    HW2  538   1.445  14.721  12.510
32881SOL     OW  539   8.696   1.469   6.679
32881SOL    HW1  540   8.668   1.555   6.650
32881SOL    HW2  541   8.648   1.407   6.623
32882SOL     OW  542   6.248   3.996  13.235
32882SOL    HW1  543   6.267   4.044  13.154
32882SOL    HW2  544   6.153   3.997  13.242
32883SOL     OW  545   6.172   7.943   6.103
32883SOL    HW1  546   6.121   7.918   6.180
32883SOL    HW2  547   6.251   7.890   6.108
32884SOL     OW  548   0.320   4.911   9.295
32884SOL    HW1  549   0.272   4.964   9.231
32884SOL    HW2  550   0.300   4.952   9.380
32885SOL     OW  551   1.427  12.645  12.678
32885SOL    HW1  552   1.450  12.698  12.601
32885SOL    HW2  553   1.361  12.584  12.646
32886SOL     OW  554   4.894  12.701   9.569
32886SOL    HW1  555   4.859  12.614   9.589
32886SOL    HW2  556   4.939  12.727   9.649
32887SOL     OW  557   1.307   6.706   8.613
32887SOL    HW1  558   1.219   6.694   8.648
32887SOL    HW2  559   1.319   6.633   8.551
32888SOL     OW  560   0.697  11.001   9.840
32888SOL    HW1  561   0.694  11.076   9.900
32888SOL    HW2  562   0.784  10.963   9.854
32889SOL     OW  563   0.847  10.744   6.077
32889SOL    HW1  564   0.904  10.749   6.000
32889SOL    HW2  565   0.767  10.789   6.051
32890SOL     OW  566   5.050   1.508   2.868
32890SOL    HW1  567   4.999   1.519   2.948
32890SOL    HW2  568   5.140   1.525   2.894
32891SOL     OW  569   6.061  13.649   8.973
32891SOL    HW1  570   5.988  13.588   8.961
32891SOL    HW2  571   6.021  13.730   9.003
32892SOL     OW  572   9.793  14.478   2.438
32892SOL    HW1  573   9.834  14.472   2.525
32892SOL    HW2  574   9.710  14.432   2.447
32893SOL     OW  575   9.464   5.810   2.026
32893SOL    HW1  576   9.557   5.812   2.048
32893SOL    HW2  577   9.461   5.830   1.932
32894SOL     OW  578   8.406   9.317  13.361
32894SOL    HW1  579   8.499   9.337  13.372
32894SOL    HW2  580   8.404   9.244  13.299
32895SOL     OW  581   2.173  11.591   9.416
32895SOL    HW1  582   2.168  11.617   9.508
32895SOL    HW2  583   2.125  11.509   9.412
32896SOL     OW  584   2.200   9.627   5.349
32896SOL    HW1  585   2.108   9.642   5.368
32896SOL    HW2  586   2.203   9.605   5.256
32897SOL     OW  587   9.627  12.627   7.375
32897SOL    HW1  588   9.586  12.710   7.401
32897SOL    HW2  589   9.631  12.631   7.280
32898SOL     OW  590  11.923  12.782   3.404
32898SOL    HW1  591  11.885  12.819   3.484
32898SOL    HW2  592  11.898  12.690   3.405
32899SOL     OW  593   8.252   8.622   9.354
32899SOL    HW1  594   8.180   8.573   9.394
32899SOL    HW2  595   8.312   8.639   9.427
32900SOL     OW  596  13.821   6.423   9.585
32900SOL    HW1  597  13.902   6.380   9.612
32900SOL    HW2  598  13.777   6.445   9.666
32901SOL     OW  599   6.864   8.516   6.837
32901SOL    HW1  600   6.793   8.580   6.840
32901SOL    HW2  601   6.939   8.561   6.875
32902SOL     OW  602   6.622   9.098   0.742
32902SOL    HW1  603   6.707   9.108   0.785
32902SOL    HW2  604   6.566   9.059   0.809
32903SOL     OW  605   1.843   8.161  14.345
32903SOL    HW1  606   1.895   8.156  14.265
32903SOL    HW2  607   1.842   8.254  14.367
32904SOL     OW  608   8.023   9.393   1.212
32904SOL    HW1  609   8.006   9.475   1.258
32904SOL    HW2  610   8.064   9.337   1.277
32905SOL     OW  611   0.168   8.670  10.361
32905SOL    HW1  612   0.089   8.618  10.348
32905SOL    HW2  613   0.138   8.747  10.410
32906SOL     OW  614   0.949   3.206   6.658
32906SOL    HW1  615   1.026   3.150   6.652
32906SOL    HW2  616   0.917   3.194   6.748
32907SOL     OW  617   9.582   5.926  11.570
32907SOL    HW1  618   9.629   5.869  11.632
32907SOL    HW2  619   9.565   6.006  11.620
32908SOL     OW  620   5.447  14.487   5.538
32908SOL    HW1  621   5.418  14.485   5.447
32908SOL    HW2  622   5.396  14.418   5.581
32909SOL     OW  623  10.199  14.648   3.562
32909SOL    HW1  624  10.192  14.677   3.653
32909SOL    HW2  625  10.257  14.571   3.565
32910SOL     OW  626   2.769   5.989  12.598
32910SOL    HW1  627   2.709   6.047  12.551
32910SOL    HW2  628   2.714   5.946  12.664
32911SOL     OW  629   0.474   1.530   7.921
32911SOL    HW1  630   0.415   1.534   7.845
32911SOL    HW2  631   0.466   1.440   7.953
32912SOL     OW  632  12.644   3.427   0.939
32912SOL    HW1  633  12.654   3.347   0.887
32912SOL    HW2  634  12.691   3.408   1.020
32913SOL     OW  635   8.407  13.345   5.344
32913SOL    HW1  636   8.323  13.345   5.299
32913SOL    HW2  637   8.430  13.253   5.353
32914SOL     OW  638  11.319   6.546   0.021
32914SOL    HW1  639  11.250   6.510  14.847
32914SOL    HW2  640  11.321   6.639  14.882
32915SOL     OW  641   9.564   0.128   9.670
32915SOL    HW1  642   9.503   0.092   9.605
32915SOL    HW2  643   9.628   0.058   9.684
32916SOL     OW  644   6.171   6.886  12.094
32916SOL    HW1  645   6.093   6.873  12.039
32916SOL    HW2  646   6.235   6.825  12.059
32917SOL     OW  647   6.574   9.470   9.670
32917SOL    HW1  648   6.508   9.438   9.731
32917SOL    HW2  649   6.637   9.516   9.726
32918SOL     OW  650   6.057  12.237  11.211
32918SOL    HW1  651   6.045  12.187  11.130
32918SOL    HW2  652   6.123  12.187  11.260
32919SOL     OW  653   5.535  14.777  12.122
32919SOL    HW1  654   5.454  14.757  12.075
32919SOL    HW2  655   5.584  14.833  12.061
32920SOL     OW  656   9.436  10.073   5.625
32920SOL    HW1  657   9.349  10.066   5.664
32920SOL    HW2  658   9.420  10.095   5.533
32921SOL     OW  659  13.524   5.892   8.456
32921SOL    HW1  660  13.538   5.803   8.490
32921SOL    HW2  661  13.511   5.880   8.362
32922SOL     OW  662  11.941   9.592  10.547
32922SOL    HW1  663  11.923   9.631  10.461
32922SOL    HW2  664  11.858   9.553  10.575
32923SOL     OW  665   4.021   7.524   2.461
32923SOL    HW1  666   4.060   7.445   2.498
32923SOL    HW2  667   4.029   7.513   2.366
32924SOL     OW  668  13.505  10.390   6.340
32924SOL    HW1  669  13.458  10.398   6.257
32924SOL    HW2  670  13.487  10.300   6.368
32925SOL     OW  671  12.064   3.890  13.365
32925SOL    HW1  672  12.104   3.951  13.427
32925SOL    HW2  673  11.975   3.877  13.399
32926SOL     OW  674   7.066   1.006  12.090
32926SOL    HW1  675   6.993   0.950  12.063
32926SOL    HW2  676   7.068   1.077  12.027
32927SOL     OW  677   5.821  12.362   9.502
32927SOL    HW1  678   5.786  12.451   9.510
32927SOL    HW2  679   5.911  12.368   9.532
32928SOL     OW  680  11.959  13.500   8.379
32928SOL    HW1  681  11.893  13.531   8.317
32928SOL    HW2  682  12.022  13.452   8.325
32929SOL     OW  683   9.169   4.483   2.267
32929SOL    HW1  684   9.140   4.572   2.288
32929SOL    HW2  685   9.262   4.491   2.250
32930SOL     OW  686   3.181   2.324  14.222
32930SOL    HW1  687   3.102   2.304  14.271
32930SOL    HW2  688   3.239   2.365  14.286
32931SOL     OW  689  12.031   9.050  11.715
32931SOL    HW1  690  12.038   9.079  11.624
32931SOL    HW2  691  12.050   8.956  11.712
32932SOL     OW  692  11.074  13.393   2.582
32932SOL    HW1  693  11.035  13.455   2.643
32932SOL    HW2  694  11.002  13.333   2.560
32933SOL     OW  695   0.499   6.450  14.579
32933SOL    HW1  696   0.508   6.542  14.603
32933SOL    HW2  697   0.482   6.452  14.485
32934SOL     OW  698   4.970   8.732   0.412
32934SOL    HW1  699   5.004   8.668   0.474
32934SOL    HW2  700   4.898   8.775   0.459
32935SOL     OW  701   3.768  13.384  10.083
32935SOL    HW1  702   3.739  13.451  10.145
32935SOL    HW2  703   3.845  13.421  10.041
32936SOL     OW  704  11.535  14.601  12.809
32936SOL    HW1  705  11.541  14.584  12.903
32936SOL    HW2  706  11.442  14.618  12.794
32937SOL     OW  707   1.488   1.403   1.806
32937SOL    HW1  708   1.482   1.493   1.774
32937SOL    HW2  709   1.569   1.401   1.857
32938SOL     OW  710  11.389   0.378   4.901
32938SOL    HW1  711  11.359   0.404   4.988
32938SOL    HW2  712  11.363   0.286   4.893
32939SOL     OW  713   7.730  13.292  14.265
32939SOL    HW1  714   7.814  13.325  14.231
32939SOL    HW2  715   7.754  13.246  14.345
32940SOL     OW  716   1.518   8.044   1.112
32940SOL    HW1  717   1.503   8.085   1.197
32940SOL    HW2  718   1.431   8.043   1.071
32941SOL     OW  719   6.500   8.052   4.398
32941SOL    HW1  720   6.520   8.105   4.321
32941SOL    HW2  721   6.585   8.022   4.430
32942SOL     OW  722  11.930   2.183  12.976
32942SOL    HW1  723  12.003   2.216  12.924
32942SOL    HW2  724  11.896   2.260  13.022
32943SOL     OW  725  11.413   7.896   0.717
32943SOL    HW1  726  11.360   7.827   0.676
32943SOL    HW2  727  11.461   7.935   0.644
32944SOL     OW  728   3.642  12.370   3.773
32944SOL    HW1  729   3.632  12.395   3.681
32944SOL    HW2  730   3.723  12.319   3.774
32945SOL     OW  731   6.528  11.427   7.495
32945SOL    HW1  732   6.465  11.476   7.443
32945SOL    HW2  733   6.593  11.493   7.521
32946SOL     OW  734   2.691   4.055   8.282
32946SOL    HW1  735   2.674   4.091   8.369
32946SOL    HW2  736   2.782   4.077   8.263
32947SOL     OW  737   0.295  12.097   0.073
32947SOL    HW1  738   0.217  12.105   0.126
32947SOL    HW2  739   0.343  12.024   0.112
32948SOL     OW  740  11.589   6.154   9.388
32948SOL    HW1  741  11.551   6.238   9.412
32948SOL    HW2  742  11.655   6.137   9.454
32949SOL     OW  743   1.859   5.901   0.489
32949SOL    HW1  744   1.823   5.827   0.441
32949SOL    HW2  745   1.782   5.951   0.518
32950SOL     OW  746   4.005   2.153  11.074
32950SOL    HW1  747   3.910   2.159  11.078
32950SOL    HW2  748   4.031   2.118  11.159
32951SOL     OW  749   3.070  11.667  14.540
32951SOL    HW1  750   3.042  11.757  14.553
32951SOL    HW2  751   3.063  11.652  14.446
32952SOL     OW  752  13.116   5.082   1.894
32952SOL    HW1  753  13.164   5.039   1.965
32952SOL    HW2  754  13.184   5.118   1.837
32953SOL     OW  755   1.528  11.415   1.245
32953SOL    HW1  756   1.530  11.464   1.162
32953SOL    HW2  757   1.597  11.350   1.236
32954SOL     OW  758  12.063   6.758   2.816
32954SOL    HW1  759  12.138   6.814   2.835
32954SOL    HW2  760  12.086   6.716   2.733
32955SOL     OW  761  14.027   4.206  12.314
32955SOL    HW1  762  14.061   4.263  12.383
32955SOL    HW2  763  14.085   4.222  12.239
32956SOL     OW  764  11.657   7.307   1.239
32956SOL    HW1  765  11.701   7.246   1.180
32956SOL    HW2  766  11.602   7.252   1.295
32957SOL     OW  767  12.906   0.958  11.585
32957SOL    HW1  768  12.986   0.915  11.617
32957SOL    HW2  769  12.870   0.896  11.522
32958SOL     OW  770   5.487  10.739  11.338
32958SOL    HW1  771   5.405  10.721  11.383
32958SOL    HW2  772   5.494  10.671  11.271
32959SOL     OW  773   6.376  11.893   2.803
32959SOL    HW1  774   6.376  11.926   2.893
32959SOL    HW2  775   6.387  11.970   2.748
32960SOL     OW  776   5.588   4.950   7.330
32960SOL    HW1  777   5.525   4.940   7.259
32960SOL    HW2  778   5.651   4.879   7.317
32961SOL     OW  779  11.113   0.494  12.769
32961SOL    HW1  780  11.093   0.586  12.787
32961SOL    HW2  781  11.041   0.445  12.809
32962SOL     OW  782   0.197   2.523   5.328
32962SOL    HW1  783   0.249   2.552   5.252
32962SOL    HW2  784   0.195   2.599   5.385
32963SOL     OW  785   1.454   4.587  11.058
32963SOL    HW1  786   1.520   4.518  11.057
32963SOL    HW2  787   1.456   4.622  11.147
32964SOL     OW  788   2.318   2.304   8.574
32964SOL    HW1  789   2.353   2.215   8.582
32964SOL    HW2  790   2.391   2.354   8.537
32965SOL     OW  791   0.996  10.158   6.474
32965SOL    HW1  792   1.038  10.164   6.560
32965SOL    HW2  793   0.905  10.179   6.491
32966SOL     OW  794  10.257  14.669   9.824
32966SOL    HW1  795  10.199  14.705   9.891
32966SOL    HW2  796  10.316  14.741   9.802
32967SOL     OW  797   8.150   8.887  13.681
32967SOL    HW1  798   8.177   8.970  13.720
32967SOL    HW2  799   8.062   8.903  13.648
32968SOL     OW  800  12.915   8.917   6.131
32968SOL    HW1  801  12.877   9.000   6.159
32968SOL    HW2  802  12.899   8.858   6.204
32969SOL     OW  803  13.988   7.760  11.076
32969SOL    HW1  804  13.986   7.725  11.165
32969SOL    HW2  805  14.062   7.820  11.076
32970SOL     OW  806   2.181   5.535   4.190
32970SOL    HW1  807   2.087   5.553   4.181
32970SOL    HW2  808   2.209   5.592   4.262
32971SOL     OW  809   7.261  14.517  10.246
32971SOL    HW1  810   7.257  14.587  10.180
32971SOL    HW2  811   7.355  14.507  10.264
32972SOL     OW  812   1.467   2.547  10.560
32972SOL    HW1  813   1.458   2.485  10.633
32972SOL    HW2  814   1.561   2.561  10.552
32973SOL     OW  815   9.459   2.292   3.974
32973SOL    HW1  816   9.513   2.213   3.969
32973SOL    HW2  817   9.492   2.348   3.903
32974SOL     OW  818  13.340   1.291   5.725
32974SOL    HW1  819  13.287   1.215   5.702
32974SOL    HW2  820  13.418   1.254   5.766
32975SOL     OW  821   3.149   1.686   6.427
32975SOL    HW1  822   3.057   1.674   6.404
32975SOL    HW2  823   3.150   1.689   6.522
32976SOL     OW  824   6.621   1.728   3.134
32976SOL    HW1  825   6.623   1.789   3.060
32976SOL    HW2  826   6.708   1.688   3.135
32977SOL     OW  827  13.370   1.440   7.247
32977SOL    HW1  828  13.385   1.433   7.153
32977SOL    HW2  829  13.393   1.530   7.268
32978SOL     OW  830   7.421   2.228   1.250
32978SOL    HW1  831   7.420   2.322   1.268
32978SOL    HW2  832   7.509   2.211   1.216
32979SOL     OW  833  14.881  12.536   9.843
32979SOL    HW1  834  14.797  12.578   9.827
32979SOL    HW2  835  14.876  12.505   9.934
32980SOL     OW  836   4.421   4.626   8.989
32980SOL    HW1  837   4.359   4.626   8.915
32980SOL    HW2  838   4.481   4.555   8.969
32981SOL     OW  839  14.394   4.982  10.810
32981SOL    HW1  840  14.456   4.911  10.825
32981SOL    HW2  841  14.396   4.996  10.715
32982SOL     OW  842  13.845  12.133   4.120
32982SOL    HW1  843  13.759  12.118   4.081
32982SOL    HW2  844  13.880  12.209   4.074
32983SOL     OW  845   3.564   6.783   9.174
32983SOL    HW1  846   3.649   6.740   9.169
32983SOL    HW2  847   3.503   6.713   9.197
32984SOL     OW  848   1.285  12.215  12.742
32984SOL    HW1  849   1.273  12.125  12.773
32984SOL    HW2  850   1.368  12.242  12.780
32985SOL     OW  851   1.256   3.263   0.658
32985SOL    HW1  852   1.328   3.202   0.644
32985SOL    HW2  853   1.258   3.282   0.752
32986SOL     OW  854   9.957   5.289  12.266
32986SOL    HW1  855   9.914   5.207  12.241
32986SOL    HW2  856  10.025   5.302  12.200
32987SOL     OW  857   6.030   7.633   9.743
32987SOL    HW1  858   6.034   7.567   9.674
32987SOL    HW2  859   6.024   7.584   9.824
32988SOL     OW  860  14.670  11.093  10.926
32988SOL    HW1  861  14.759  11.105  10.894
32988SOL    HW2  862  14.622  11.059  10.850
32989SOL     OW  863   9.268   3.146   8.482
32989SOL    HW1  864   9.357   3.172   8.458
32989SOL    HW2  865   9.221   3.140   8.398
32990SOL     OW  866  10.422  13.022   5.574
32990SOL    HW1  867  10.507  13.028   5.531
32990SOL    HW2  868  10.373  13.097   5.542
32991SOL     OW  869   2.702  14.252   3.136
32991SOL    HW1  870   2.647  14.230   3.060
32991SOL    HW2  871   2.744  14.169   3.160
32992SOL     OW  872   1.891   6.989   2.150
32992SOL    HW1  873   1.813   6.936   2.164
32992SOL    HW2  874   1.961   6.942   2.196
32993SOL     OW  875  12.179  12.124  11.587
32993SOL    HW1  876  12.190  12.031  11.568
32993SOL    HW2  877  12.210  12.169  11.508
32994SOL     OW  878   8.464   3.805   0.522
32994SOL    HW1  879   8.509   3.739   0.470
32994SOL    HW2  880   8.434   3.759   0.600
32995SOL     OW  881  11.351   1.881   2.330
32995SOL    HW1  882  11.340   1.896   2.236
32995SOL    HW2  883  11.318   1.792   2.343
32996SOL     OW  884   7.787  10.329   6.009
32996SOL    HW1  885   7.793  10.355   6.101
32996SOL    HW2  886   7.781  10.234   6.011
32997SOL     OW  887   1.035   3.132   0.018
32997SOL    HW1  888   0.972   3.203   0.011
32997SOL    HW2  889   1.032   3.107   0.111
32998SOL     OW  890   7.453  11.470   2.042
32998SOL    HW1  891   7.409  11.401   1.992
32998SOL    HW2  892   7.382  11.520   2.082
32999SOL     OW  893   5.446  11.701   7.246
32999SOL    HW1  894   5.375  11.652   7.288
32999SOL    HW2  895   5.481  11.641   7.180
33000SOL     OW  896  14.396   3.628   0.567
33000SOL    HW1  897  14.482   3.598   0.597
33000SOL    HW2  898  14.416   3.687   0.494
33001SOL     OW  899   6.017   9.612   0.315
33001SOL    HW1  900   5.927   9.581   0.325
33001SOL    HW2  901   6.070   9.546   0.360
33002SOL     OW  902   1.241   0.010   4.318
33002SOL    HW1  903   1.171  14.846   4.364
33002SOL    HW2  904   1.322  14.851   4.348
33003SOL     OW  905   4.442  10.691  13.662
33003SOL    HW1  906   4.513  10.755  13.656
33003SOL    HW2  907   4.466  10.636  13.736
33004SOL     OW  908   2.749   6.494   5.732
33004SOL    HW1  909   2.718   6.573   5.689
33004SOL    HW2  910   2.736   6.511   5.826
33005SOL     OW  911   8.558   4.664   8.204
33005SOL    HW1  912   8.473   4.622   8.191
33005SOL    HW2  913   8.548   4.751   8.166
33006SOL     OW  914  11.818  13.756  13.707
33006SOL    HW1  915  11.856  13.778  13.792
33006SOL    HW2  916  11.760  13.829  13.687
33007SOL     OW  917  14.754  11.862   0.356
33007SOL    HW1  918  14.828  11.906   0.397
33007SOL    HW2  919  14.716  11.809   0.426
33008SOL     OW  920   8.477  13.024   3.202
33008SOL    HW1  921   8.562  13.010   3.243
33008SOL    HW2  922   8.496  13.030   3.108
33009SOL     OW  923   2.022   3.893   1.534
33009SOL    HW1  924   2.058   3.811   1.503
33009SOL    HW2  925   1.962   3.868   1.604
33010SOL     OW  926  11.709   5.023  13.669
33010SOL    HW1  927  11.749   4.949  13.623
33010SOL    HW2  928  11.617   4.999  13.678
33011SOL     OW  929  12.112   2.136   4.562
33011SOL    HW1  930  12.203   2.132   4.593
33011SOL    HW2  931  12.060   2.114   4.639
33012SOL     OW  932   6.431   6.451  14.120
33012SOL    HW1  933   6.337   6.436  14.117
33012SOL    HW2  934   6.450   6.503  14.042
33013SOL     OW  935  12.219   8.069   5.055
33013SOL    HW1  936  12.219   8.054   5.149
33013SOL    HW2  937  12.271   7.997   5.019
33014SOL     OW  938   7.186   7.370   7.504
33014SOL    HW1  939   7.258   7.358   7.441
33014SOL    HW2  940   7.228   7.411   7.580
33015SOL     OW  941  14.091   7.669   2.377
33015SOL    HW1  942  14.129   7.674   2.465
33015SOL    HW2  943  14.064   7.577   2.368
33016SOL     OW  944   7.051   4.276  12.207
33016SOL    HW1  945   6.981   4.321  12.160
33016SOL    HW2  946   7.068   4.331  12.283
33017SOL     OW  947   8.322   6.959   9.693
33017SOL    HW1  948   8.396   6.942   9.751
33017SOL    HW2  949   8.348   7.037   9.644
33018SOL     OW  950   9.357   3.086  14.798
33018SOL    HW1  951   9.352   3.021  14.868
33018SOL    HW2  952   9.319   3.165  14.837
33019SOL     OW  953   3.078   3.377   6.677
33019SOL    HW1  954   3.062   3.412   6.764
33019SOL    HW2  955   3.174   3.378   6.669
33020SOL     OW  956   0.937   4.911   6.140
33020SOL    HW1  957   0.855   4.902   6.091
33020SOL    HW2  958   0.919   4.980   6.204
33021SOL     OW  959  11.897   2.554  10.019
33021SOL    HW1  960  11.837   2.549  10.093
33021SOL    HW2  961  11.955   2.478  10.029
33022SOL     OW  962   1.223   4.925   3.425
33022SOL    HW1  963   1.257   5.009   3.455
33022SOL    HW2  964   1.265   4.911   3.340
33023SOL     OW  965  11.311   1.781   3.438
33023SOL    HW1  966  11.227   1.796   3.395
33023SOL    HW2  967  11.316   1.849   3.505
33024SOL     OW  968   2.043   9.042   0.966
33024SOL    HW1  969   2.121   9.094   0.947
33024SOL    HW2  970   2.020   9.003   0.882
33025SOL     OW  971  14.758  12.643   6.541
33025SOL    HW1  972  14.759  12.713   6.475
33025SOL    HW2  973  14.669  12.608   6.538
33026SOL     OW  974  12.368   5.013   9.551
33026SOL    HW1  975  12.447   4.999   9.602
33026SOL    HW2  976  12.339   5.101   9.575
33027SOL     OW  977  14.548  12.299  12.953
33027SOL    HW1  978  14.613  12.230  12.943
33027SOL    HW2  979  14.576  12.367  12.892
33028SOL     OW  980  11.286  13.923   4.833
33028SOL    HW1  981  11.320  13.860   4.896
33028SOL    HW2  982  11.295  14.008   4.876
33029SOL     OW  983   9.387   9.289   8.852
33029SOL    HW1  984   9.355   9.203   8.878
33029SOL    HW2  985   9.320   9.351   8.882
33030SOL     OW  986   7.950   1.921  14.634
33030SOL    HW1  987   7.986   1.969  14.709
33030SOL    HW2  988   7.855   1.931  14.643
33031SOL     OW  989   0.951  11.515   2.886
33031SOL    HW1  990   0.946  11.599   2.932
33031SOL    HW2  991   0.870  11.470   2.909
33032SOL     OW  992   8.028  14.247   8.402
33032SOL    HW1  993   8.084  14.274   8.329
33032SOL    HW2  994   8.083  14.187   8.453
33033SOL     OW  995  12.422  14.548  14.549
33033SOL    HW1  996  12.436  14.603  14.472
33033SOL    HW2  997  12.428  14.609  14.623
33034SOL     OW  998  12.388   4.571   7.524
33034SOL    HW1  999  12.363   4.663   7.516
33034SOL    HW2 1000  12.424   4.563   7.612
33035SOL     OW 1001   0.094   9.810   8.806
33035SOL    HW1 1002   0.151   9.872   8.760
33035SOL    HW2 1003   0.071   9.745   8.740
33036SOL     OW 1004  14.163  12.920   7.479
33036SOL    HW1 1005  14.256  12.905   7.492
33036SOL    HW2 1006  14.148  12.903   7.386
33037SOL     OW 1007   6.170  10.693   2.221
33037SOL    HW1 1008   6.237  10.631   2.193
33037SOL    HW2 1009   6.186  10.705   2.315
33038SOL     OW 1010   9.464  14.239   8.030
33038SOL    HW1 1011   9.399  14.169   8.040
33038SOL    HW2 1012   9.455  14.292   8.109
33039SOL     OW 1013  11.245   6.426   2.815
33039SOL    HW1 1014  11.340   6.421   2.821
33039SOL    HW2 1015  11.225   6.382   2.732
33040SOL     OW 1016   7.724   8.581   5.620
33040SOL    HW1 1017   7.661   8.509   5.621
33040SOL    HW2 1018   7.723   8.612   5.529
33041SOL     OW 1019  10.555   9.857  13.208
33041SOL    HW1 1020  10.622   9.833  13.272
33041SOL    HW2 1021  10.554   9.785  13.145
33042SOL     OW 1022   8.395   5.987  13.883
33042SOL    HW1 1023   8.318   6.038  13.856
33042SOL    HW2 1024   8.429   5.950  13.801
33043SOL     OW 1025   8.325   2.080  10.294
33043SOL    HW1 1026   8.280   2.131  10.362
33043SOL    HW2 1027   8.386   2.142  10.254
33044SOL     OW 1028  13.845  11.179   2.034
33044SOL    HW1 1029  13.829  11.108   2.096
33044SOL    HW2 1030  13.779  11.166   1.965
33045SOL     OW 1031   6.460   5.064   2.122
33045SOL    HW1 1032   6.405   5.132   2.083
33045SOL    HW2 1033   6.539   5.063   2.068
33046SOL     OW 1034  14.515   9.363   7.085
33046SOL    HW1 1035  14.590   9.308   7.063
33046SOL    HW2 1036  14.553   9.445   7.115
33047SOL     OW 1037   7.481   1.999  12.324
33047SOL    HW1 1038   7.572   2.024  12.311
33047SOL    HW2 1039   7.485   1.920  12.378
33048SOL     OW 1040   9.852   2.848   2.549
33048SOL    HW1 1041   9.916   2.842   2.478
33048SOL    HW2 1042   9.904   2.879   2.624
33049SOL     OW 1043   3.672  10.056   2.542
33049SOL    HW1 1044   3.767  10.068   2.537
33049SOL    HW2 1045   3.661   9.963   2.564
33050SOL     OW 1046   2.352   8.642   2.463
33050SOL    HW1 1047   2.344   8.703   2.389
33050SOL    HW2 1048   2.284   8.670   2.524
33051SOL     OW 1049  12.862   3.676   2.173
33051SOL    HW1 1050  12.894   3.652   2.086
33051SOL    HW2 1051  12.941   3.704   2.220
33052SOL     OW 1052   2.721   4.226   5.121
33052SOL    HW1 1053   2.723   4.148   5.066
33052SOL    HW2 1054   2.813   4.250   5.133
33053SOL     OW 1055  11.623  11.546  10.381
33053SOL    HW1 1056  11.564  11.563  10.308
33053SOL    HW2 1057  11.566  11.516  10.452
33054SOL     OW 1058   8.373   8.809   7.647
33054SOL    HW1 1059   8.289   8.852   7.666
33054SOL    HW2 1060   8.428   8.878   7.611
33055SOL     OW 1061   8.340  11.462  10.513
33055SOL    HW1 1062   8.312  11.465  10.421
33055SOL    HW2 1063   8.320  11.549  10.547
33056SOL     OW 1064   6.999   7.477   8.852
33056SOL    HW1 1065   6.921   7.446   8.897
33056SOL    HW2 1066   7.018   7.562   8.892
33057SOL     OW 1067   5.448  12.409   4.378
33057SOL    HW1 1068   5.454  12.495   4.337
33057SOL    HW2 1069   5.527  12.401   4.430
33058SOL     OW 1070  12.581  12.586   7.643
33058SOL    HW1 1071  12.586  12.583   7.738
33058SOL    HW2 1072  12.513  12.522   7.620
33059SOL     OW 1073   2.673   0.286  12.023
33059SOL    HW1 1074   2.765   0.308  12.037
33059SOL    HW2 1075   2.639   0.270  12.111
33060SOL     OW 1076  12.754   2.000  13.730
33060SOL    HW1 1077  12.665   2.023  13.756
33060SOL    HW2 1078  12.743   1.929  13.667
33061SOL     OW 1079   0.810   1.229  11.190
33061SOL    HW1 1080   0.847   1.245  11.277
33061SOL    HW2 1081   0.730   1.280  11.188
33062SOL     OW 1082   0.630   6.017   6.520
33062SOL    HW1 1083   0.595   6.065   6.595
33062SOL    HW2 1084   0.552   5.990   6.471
33063SOL     OW 1085   5.592   5.332   4.326
33063SOL    HW1 1086   5.646   5.324   4.405
33063SOL    HW2 1087   5.637   5.398   4.273
33064SOL     OW 1088   1.405   4.700  14.706
33064SOL    HW1 1089   1.425   4.708  14.799
33064SOL    HW2 1090   1.487   4.670  14.666
33065SOL     OW 1091   4.563   8.023  12.576
33065SOL    HW1 1092   4.623   8.018  12.501
33065SOL    HW2 1093   4.578   8.110  12.613
33066SOL     OW 1094   0.038   5.862   9.825
33066SOL    HW1 1095   0.018   5.802   9.752
33066SOL    HW2 1096   0.132   5.853   9.838
33067SOL     OW 1097   9.109   7.708  10.739
33067SOL    HW1 1098   9.189   7.679  10.695
33067SOL    HW2 1099   9.044   7.716  10.669
33068SOL     OW 1100   1.910   6.679   5.265
33068SOL    HW1 1101   1.861   6.717   5.338
33068SOL    HW2 1102   1.913   6.585   5.284
33069SOL     OW 1103   3.822   8.329  11.961
33069SOL    HW1 1104   3.880   8.405  11.960
33069SOL    HW2 1105   3.737   8.364  11.935
33070SOL     OW 1106   7.064   2.398   4.378
33070SOL    HW1 1107   7.067   2.379   4.472
33070SOL    HW2 1108   6.972   2.384   4.354
33071SOL     OW 1109   4.921   5.195   7.325
33071SOL    HW1 1110   4.968   5.276   7.304
33071SOL    HW2 1111   4.957   5.168   7.410
33072SOL     OW 1112  12.848  10.010   1.037
33072SOL    HW1 1113  12.804  10.095   1.038
33072SOL    HW2 1114  12.941  10.031   1.043
33073SOL     OW 1115   2.719   5.330   0.210
33073SOL    HW1 1116   2.647   5.366   0.263
33073SOL    HW2 1117   2.797   5.377   0.241
33074SOL     OW 1118   5.246  10.620  11.780
33074SOL    HW1 1119   5.329  10.648  11.819
33074SOL    HW2 1120   5.184  10.688  11.805
33075SOL     OW 1121  12.448   0.626  13.056
33075SOL    HW1 1122  12.454   0.713  13.017
33075SOL    HW2 1123  12.532   0.615  13.102
33076SOL     OW 1124   0.750   8.431   8.599
33076SOL    HW1 1125   0.785   8.438   8.689
33076SOL    HW2 1126   0.828   8.423   8.544
33077SOL     OW 1127   7.886   9.178   5.786
33077SOL    HW1 1128   7.801   9.184   5.742
33077SOL    HW2 1129   7.950   9.182   5.715
33078SOL     OW 1130   0.287   2.861   4.406
33078SOL    HW1 1131   0.211   2.820   4.364
33078SOL    HW2 1132   0.310   2.933   4.347
33079SOL     OW 1133   5.410   0.921  13.603
33079SOL    HW1 1134   5.459   0.838  13.608
33079SOL    HW2 1135   5.470   0.981  13.560
33080SOL     OW 1136  10.089   3.019   3.470
33080SOL    HW1 1137  10.022   2.950   3.467
33080SOL    HW2 1138  10.069   3.075   3.396
33081SOL     OW 1139   9.453  14.293  14.395
33081SOL    HW1 1140   9.475  14.356  14.464
33081SOL    HW2 1141   9.437  14.348  14.318
33082SOL     OW 1142   6.072  11.075   9.221
33082SOL    HW1 1143   6.157  11.091   9.180
33082SOL    HW2 1144   6.067  10.980   9.229
33083SOL     OW 1145   8.284   6.617   1.376
33083SOL    HW1 1146   8.209   6.658   1.420
33083SOL    HW2 1147   8.248   6.535   1.341
33084SOL     OW 1148   8.444  10.980   6.445
33084SOL    HW1 1149   8.393  10.907   6.479
33084SOL    HW2 1150   8.393  11.014   6.372
33085SOL     OW 1151   0.727  11.933   7.542
33085SOL    HW1 1152   0.761  11.845   7.525
33085SOL    HW2 1153   0.783  11.967   7.612
33086SOL     OW 1154  14.497   1.866   3.305
33086SOL    HW1 1155  14.584   1.885   3.339
33086SOL    HW2 1156  14.470   1.787   3.352
33087SOL     OW 1157  11.100   8.889   6.773
33087SOL    HW1 1158  11.139   8.820   6.720
33087SOL    HW2 1159  11.019   8.911   6.727
33088SOL     OW 1160   2.349  10.489   1.216
33088SOL    HW1 1161   2.377  10.458   1.130
33088SOL    HW2 1162   2.360  10.413   1.274
33089SOL     OW 1163  13.778   7.884   6.547
33089SOL    HW1 1164  13.693   7.917   6.518
33089SOL    HW2 1165  13.790   7.802   6.500
33090SOL     OW 1166   7.494  12.387   9.461
33090SOL    HW1 1167   7.418  12.389   9.519
33090SOL    HW2 1168   7.564  12.351   9.514
33091SOL     OW 1169   3.566   1.274   2.214
33091SOL    HW1 1170   3.581   1.339   2.283
33091SOL    HW2 1171   3.544   1.194   2.262
33092SOL     OW 1172  13.581   0.040   7.348
33092SOL    HW1 1173  13.649   0.024   7.413
33092SOL    HW2 1174  13.511   0.085   7.396
33093SOL     OW 1175   7.319   7.075   9.694
33093SOL    HW1 1176   7.308   7.156   9.744
33093SOL    HW2 1177   7.381   7.096   9.625
33094SOL     OW 1178  10.678   0.301  14.668
33094SOL    HW1 1179  10.717   0.341  14.590
33094SOL    HW2 1180  10.706   0.209  14.664
33095SOL     OW 1181   4.345   1.294   0.813
33095SOL    HW1 1182   4.254   1.322   0.822
33095SOL    HW2 1183   4.392   1.374   0.787
33096SOL     OW 1184   5.301  14.300   5.687
33096SOL    HW1 1185   5.271  14.334   5.772
33096SOL    HW2 1186   5.227  14.248   5.655
33097SOL     OW 1187   3.723  11.452   8.345
33097SOL    HW1 1188   3.812  11.452   8.310
33097SOL    HW2 1189   3.667  11.458   8.267
33098SOL     OW 1190  14.684  11.212   4.459
33098SOL    HW1 1191  14.634  11.197   4.378
33098SOL    HW2 1192  14.740  11.135   4.467
33099SOL     OW 1193  11.620   3.244   6.268
33099SOL    HW1 1194  11.704   3.290   6.267
33099SOL    HW2 1195  11.593   3.246   6.360
33100SOL     OW 1196  12.506   9.341   7.385
33100SOL    HW1 1197  12.509   9.424   7.433
33100SOL    HW2 1198  12.427   9.297   7.415
33101SOL     OW 1199   2.568   3.804   3.799
33101SOL    HW1 1200   2.522   3.740   3.854
33101SOL    HW2 1201   2.657   3.807   3.836
33102SOL     OW 1202   3.058   3.476  14.123
33102SOL    HW1 1203   3.041   3.383  14.108
33102SOL    HW2 1204   3.014   3.520  14.050
33103SOL     OW 1205   1.090  11.715   2.228
33103SOL    HW1 1206   1.006  11.672   2.245
33103SOL    HW2 1207   1.080  11.802   2.267
33104SOL     OW 1208   8.382   4.844  13.210
33104SOL    HW1 1209   8.447   4.889  13.157
33104SOL    HW2 1210   8.393   4.880  13.298
33105SOL     OW 1211  11.318   4.506   2.661
33105SOL    HW1 1212  11.329   4.530   2.753
33105SOL    HW2 1213  11.230   4.538   2.639
33106SOL     OW 1214  12.926  11.586   9.958
33106SOL    HW1 1215  13.015  11.606   9.989
33106SOL    HW2 1216  12.896  11.667   9.916
33107SOL     OW 1217   3.122   0.207   0.829
33107SOL    HW1 1218   3.215   0.211   0.806
33107SOL    HW2 1219   3.114   0.130   0.885
33108SOL     OW 1220  12.194   2.137  10.314
33108SOL    HW1 1221  12.221   2.199  10.381
33108SOL    HW2 1222  12.244   2.161  10.236
33109SOL     OW 1223  14.724   5.483  14.195
33109SOL    HW1 1224  14.815   5.512  14.186
33109SOL    HW2 1225  14.672   5.561  14.175
33110SOL     OW 1226  11.448   6.783  11.651
33110SOL    HW1 1227  11.391   6.846  11.607
33110SOL    HW2 1228  11.448   6.810  11.742
33111SOL     OW 1229  14.343   7.344   6.287
33111SOL    HW1 1230  14.364   7.333   6.194
33111SOL    HW2 1231  14.429   7.343   6.331
33112SOL     OW 1232   2.188   7.764  14.648
33112SOL    HW1 1233   2.244   7.767  14.570
33112SOL    HW2 1234   2.106   7.724  14.617
33113SOL     OW 1235   6.535   1.719   4.188
33113SOL    HW1 1236   6.452   1.700   4.145
33113SOL    HW2 1237   6.531   1.811   4.211
33114SOL     OW 1238  10.029  14.403  13.234
33114SOL    HW1 1239   9.946  14.430  13.273
33114SOL    HW2 1240  10.031  14.308  13.247
33115SOL     OW 1241  10.156  12.037   1.437
33115SOL    HW1 1242  10.176  12.064   1.347
33115SOL    HW2 1243  10.094  11.965   1.427
33116SOL     OW 1244   7.976   0.777   9.016
33116SOL    HW1 1245   8.031   0.739   9.084
33116SOL    HW2 1246   7.915   0.834   9.064
33117SOL     OW 1247   1.219   6.109  11.201
33117SOL    HW1 1248   1.274   6.042  11.162
33117SOL    HW2 1249   1.167   6.143  11.129
33118SOL     OW 1250   9.634  11.354   6.144
33118SOL    HW1 1251   9.696  11.412   6.189
33118SOL    HW2 1252   9.550  11.400   6.150
33119SOL     OW 1253  13.742   4.333  10.341
33119SOL    HW1 1254  13.776   4.423  10.345
33119SOL    HW2 1255  13.659   4.337  10.388
33120SOL     OW 1256   9.215   4.993  10.844
33120SOL    HW1 1257   9.261   4.965  10.765
33120SOL    HW2 1258   9.257   4.944  10.915
33121SOL     OW 1259   3.170   9.411  12.045
33121SOL    HW1 1260   3.194   9.466  12.120
33121SOL    HW2 1261   3.086   9.446  12.016
33122SOL     OW 1262  14.661   2.348  10.623
33122SOL    HW1 1263  14.743   2.309  10.594
33122SOL    HW2 1264  14.614   2.368  10.541
33123SOL     OW 1265  14.308   8.273   7.773
33123SOL    HW1 1266  14.360   8.321   7.708
33123SOL    HW2 1267  14.220   8.271   7.736
33124SOL     OW 1268   1.563  13.885   8.190
33124SOL    HW1 1269   1.640  13.839   8.155
33124SOL    HW2 1270   1.580  13.891   8.284
33125SOL     OW 1271  12.902   3.078   6.419
33125SOL    HW1 1272  12.905   3.144   6.350
33125SOL    HW2 1273  12.916   2.995   6.373
33126SOL     OW 1274   6.529   1.966   3.893
33126SOL    HW1 1275   6.590   2.016   3.948
33126SOL    HW2 1276   6.576   1.951   3.812
33127SOL     OW 1277  12.214   3.539  14.803
33127SOL    HW1 1278  12.307   3.561  14.802
33127SOL    HW2 1279  12.170   3.622  14.822
33128SOL     OW 1280   4.171   8.091   8.322
33128SOL    HW1 1281   4.138   8.108   8.234
33128SOL    HW2 1282   4.254   8.046   8.307
33129SOL     OW 1283  12.996  10.760   6.544
33129SOL    HW1 1284  13.071  10.755   6.485
33129SOL    HW2 1285  12.941  10.685   6.520
33130SOL     OW 1286  14.686  10.692   3.949
33130SOL    HW1 1287  14.735  10.721   3.872
33130SOL    HW2 1288  14.719  10.746   4.021
33131SOL     OW 1289   7.486   3.552   1.169
33131SOL    HW1 1290   7.522   3.474   1.126
33131SOL    HW2 1291   7.468   3.613   1.098
33132SOL     OW 1292   6.094   2.820   6.609
33132SOL    HW1 1293   6.148   2.897   6.589
33132SOL    HW2 1294   6.157   2.748   6.612
33133SOL     OW 1295   3.411  12.870   0.261
33133SOL    HW1 1296   3.481  12.811   0.233
33133SOL    HW2 1297   3.367  12.895   0.180
33134SOL     OW 1298   9.940  13.833  12.069
33134SOL    HW1 1299   9.860  13.817  12.119
33134SOL    HW2 1300   9.982  13.747  12.063
33135SOL     OW 1301   3.587   5.853   5.801
33135SOL    HW1 1302   3.540   5.851   5.718
33135SOL    HW2 1303   3.660   5.792   5.788
33136SOL     OW 1304   0.042   9.840   4.457
33136SOL    HW1 1305  14.865   9.912   4.479
33136SOL    HW2 1306   0.025   9.773   4.524
33137SOL     OW 1307   4.420   3.938  11.321
33137SOL    HW1 1308   4.326   3.943  11.339
33137SOL    HW2 1309   4.454   3.873  11.382
33138SOL     OW 1310   3.960   5.284  11.408
33138SOL    HW1 1311   3.937   5.194  11.384
33138SOL    HW2 1312   3.885   5.314  11.459
33139SOL     OW 1313  11.314   1.000   3.290
33139SOL    HW1 1314  11.222   0.997   3.264
33139SOL    HW2 1315  11.332   1.092   3.308
33140SOL     OW 1316   9.090  10.844   6.118
33140SOL    HW1 1317   9.125  10.844   6.029
33140SOL    HW2 1318   9.030  10.769   6.120
33141SOL     OW 1319   5.198   5.466   4.884
33141SOL    HW1 1320   5.278   5.427   4.920
33141SOL    HW2 1321   5.188   5.426   4.798
33142SOL     OW 1322  10.915   1.711   5.607
33142SOL    HW1 1323  10.872   1.723   5.692
33142SOL    HW2 1324  10.843   1.694   5.547
33143SOL     OW 1325  12.731   9.227  13.753
33143SOL    HW1 1326  12.681   9.153  13.718
33143SOL    HW2 1327  12.694   9.242  13.840
33144SOL     OW 1328   3.537  13.917   1.931
33144SOL    HW1 1329   3.446  13.912   1.959
33144SOL    HW2 1330   3.587  13.916   2.013
33145SOL     OW 1331   5.927   2.682   1.405
33145SOL    HW1 1332   5.940   2.700   1.312
33145SOL    HW2 1333   5.884   2.596   1.406
33146SOL     OW 1334   8.367   1.613  10.795
33146SOL    HW1 1335   8.326   1.687  10.749
33146SOL    HW2 1336   8.396   1.650  10.879
33147SOL     OW 1337   9.483   3.921   1.014
33147SOL    HW1 1338   9.463   3.901   0.922
33147SOL    HW2 1339   9.505   4.015   1.014
33148SOL     OW 1340   2.719   7.037  12.183
33148SOL    HW1 1341   2.698   7.050  12.275
33148SOL    HW2 1342   2.653   6.973  12.152
33149SOL     OW 1343   0.210  10.439   5.136
33149SOL    HW1 1344   0.284  10.500   5.144
33149SOL    HW2 1345   0.249  10.353   5.149
33150SOL     OW 1346   9.235   9.859   0.103
33150SOL    HW1 1347   9.183   9.829   0.178
33150SOL    HW2 1348   9.208   9.950   0.091
33151SOL     OW 1349   1.902   8.601  13.341
33151SOL    HW1 1350   1.904   8.587  13.246
33151SOL    HW2 1351   1.994   8.597  13.367
33152SOL     OW 1352   0.958   4.547  14.180
33152SOL    HW1 1353   0.910   4.530  14.260
33152SOL    HW2 1354   1.040   4.588  14.208
33153SOL     OW 1355   9.376  14.417  12.165
33153SOL    HW1 1356   9.422  14.394  12.084
33153SOL    HW2 1357   9.396  14.346  12.226
33154SOL     OW 1358  11.866   8.201   8.483
33154SOL    HW1 1359  11.808   8.262   8.438
33154SOL    HW2 1360  11.944   8.197   8.427
33155SOL     OW 1361   0.546   2.365  11.310
33155SOL    HW1 1362   0.602   2.344  11.235
33155SOL    HW2 1363   0.489   2.289  11.321
33156SOL     OW 1364  13.552  14.723   1.262
33156SOL    HW1 1365  13.567  14.632   1.288
33156SOL    HW2 1366  13.596  14.732   1.178
33157SOL     OW 1367  14.406   7.822   3.006
33157SOL    HW1 1368  14.473   7.871   3.053
33157SOL    HW2 1369  14.325   7.840   3.054
33158SOL     OW 1370   5.578   9.076  13.572
33158SOL    HW1 1371   5.557   9.086  13.665
33158SOL    HW2 1372   5.563   9.162  13.534
33159SOL     OW 1373   9.826   8.493   5.108
33159SOL    HW1 1374   9.783   8.554   5.167
33159SOL    HW2 1375   9.782   8.410   5.123
33160SOL     OW 1376   9.999  14.675   8.274
33160SOL    HW1 1377   9.928  14.732   8.243
33160SOL    HW2 1378  10.068  14.735   8.300
33161SOL     OW 1379  11.284  14.347   2.654
33161SOL    HW1 1380  11.259  14.374   2.565
33161SOL    HW2 1381  11.370  14.387   2.668
33162SOL     OW 1382   0.758  13.217  12.093
33162SOL    HW1 1383   0.807  13.194  12.172
33162SOL    HW2 1384   0.677  13.256  12.126
33163SOL     OW 1385   8.789  14.406   0.880
33163SOL    HW1 1386   8.825  14.483   0.836
33163SOL    HW2 1387   8.865  14.365   0.921
33164SOL     OW 1388  12.855   2.567   2.146
33164SOL    HW1 1389  12.802   2.613   2.080
33164SOL    HW2 1390  12.909   2.635   2.185
33165SOL     OW 1391   9.121   0.202   3.954
33165SOL    HW1 1392   9.114   0.267   3.884
33165SOL    HW2 1393   9.035   0.161   3.958
33166SOL     OW 1394   5.423   3.501  14.062
33166SOL    HW1 1395   5.360   3.518  14.132
33166SOL    HW2 1396   5.508   3.498  14.106
33167SOL     OW 1397  13.176  13.236   5.185
33167SOL    HW1 1398  13.250  13.263   5.130
33167SOL    HW2 1399  13.175  13.140   5.178
33168SOL     OW 1400  13.491   6.341   1.930
33168SOL    HW1 1401  13.494   6.340   2.025
33168SOL    HW2 1402  13.400   6.360   1.908
33169SOL     OW 1403   1.879   1.010   8.529
33169SOL    HW1 1404   1.821   1.038   8.458
33169SOL    HW2 1405   1.953   1.070   8.525
33170SOL     OW 1406  10.379   0.438   2.553
33170SOL    HW1 1407  10.395   0.532   2.557
33170SOL    HW2 1408  10.297   0.429   2.504
33171SOL     OW 1409   5.601   7.345   7.611
33171SOL    HW1 1410   5.645   7.349   7.696
33171SOL    HW2 1411   5.655   7.399   7.554
33172SOL     OW 1412   6.835   0.851  11.204
33172SOL    HW1 1413   6.876   0.918  11.150
33172SOL    HW2 1414   6.901   0.782  11.210
33173SOL     OW 1415  10.161  12.288   6.633
33173SOL    HW1 1416  10.204  12.207   6.659
33173SOL    HW2 1417  10.068  12.265   6.627
33174SOL     OW 1418  14.306   6.469   1.359
33174SOL    HW1 1419  14.396   6.493   1.384
33174SOL    HW2 1420  14.314   6.379   1.326
33175SOL     OW 1421   5.606   3.290   1.566
33175SOL    HW1 1422   5.641   3.377   1.548
33175SOL    HW2 1423   5.595   3.250   1.479
33176SOL     OW 1424   2.881   1.757  13.440
33176SOL    HW1 1425   2.942   1.687  13.417
33176SOL    HW2 1426   2.878   1.813  13.362
33177SOL     OW 1427  12.417  11.045   0.107
33177SOL    HW1 1428  12.323  11.030   0.100
33177SOL    HW2 1429  12.438  11.024   0.198
33178SOL     OW 1430  10.340  13.033  14.401
33178SOL    HW1 1431  10.419  12.988  14.432
33178SOL    HW2 1432  10.335  13.112  14.454
33179SOL     OW 1433   2.427   0.667  13.051
33179SOL    HW1 1434   2.486   0.654  13.125
33179SOL    HW2 1435   2.341   0.641  13.084
33180SOL     OW 1436  13.088   9.775   5.434
33180SOL    HW1 1437  13.015   9.818   5.389
33180SOL    HW2 1438  13.163   9.830   5.415
33181SOL     OW 1439  12.494  10.553   3.135
33181SOL    HW1 1440  12.544  10.472   3.125
33181SOL    HW2 1441  12.505  10.577   3.226
33182SOL     OW 1442  11.044  10.059   5.230
33182SOL    HW1 1443  11.098  10.021   5.298
33182SOL    HW2 1444  11.059  10.004   5.153
33183SOL     OW 1445   0.563   9.291   4.844
33183SOL    HW1 1446   0.571   9.384   4.866
33183SOL    HW2 1447   0.531   9.250   4.924
33184SOL     OW 1448   6.310   5.139   7.492
33184SOL    HW1 1449   6.380   5.130   7.556
33184SOL    HW2 1450   6.336   5.214   7.439
33185SOL     OW 1451   0.892  10.879   8.371
33185SOL    HW1 1452   0.907  10.944   8.303
33185SOL    HW2 1453   0.797  10.868   8.374
33186SOL     OW 1454   2.576   0.645   6.315
33186SOL    HW1 1455   2.648   0.611   6.263
33186SOL    HW2 1456   2.613   0.721   6.360
33187SOL     OW 1457   4.983  12.175   1.082
33187SOL    HW1 1458   4.912  12.235   1.107
33187SOL    HW2 1459   4.992  12.117   1.158
33188SOL     OW 1460   8.415   7.077   4.068
33188SOL    HW1 1461   8.350   7.131   4.022
33188SOL    HW2 1462   8.499   7.113   4.038
33189SOL     OW 1463   4.877   3.217   0.280
33189SOL    HW1 1464   4.786   3.248   0.281
33189SOL    HW2 1465   4.870   3.122   0.275
33190SOL     OW 1466   6.225   8.770   4.102
33190SOL    HW1 1467   6.290   8.809   4.043
33190SOL    HW2 1468   6.143   8.811   4.076
33191SOL     OW 1469   4.115  12.680   5.833
33191SOL    HW1 1470   4.117  12.764   5.788
33191SOL    HW2 1471   4.205  12.666   5.862
33192SOL     OW 1472   7.094   2.102   2.468
33192SOL    HW1 1473   7.179   2.082   2.428
33192SOL    HW2 1474   7.033   2.108   2.394
33193SOL     OW 1475   5.650  13.425  13.911
33193SOL    HW1 1476   5.643  13.330  13.921
33193SOL    HW2 1477   5.572  13.459  13.954
33194SOL     OW 1478  14.027  12.065   2.608
33194SOL    HW1 1479  14.093  12.075   2.676
33194SOL    HW2 1480  13.975  12.145   2.614
33195SOL     OW 1481  11.660  10.273  11.624
33195SOL    HW1 1482  11.746  10.243  11.595
33195SOL    HW2 1483  11.676  10.359  11.664
33196SOL     OW 1484   6.760  11.575   7.591
33196SOL    HW1 1485   6.784  11.500   7.646
33196SOL    HW2 1486   6.792  11.553   7.504
33197SOL     OW 1487   1.739  10.964   6.552
33197SOL    HW1 1488   1.682  10.887   6.553
33197SOL    HW2 1489   1.708  11.017   6.479
33198SOL     OW 1490  11.141  13.770   2.031
33198SOL    HW1 1491  11.129  13.804   2.120
33198SOL    HW2 1492  11.190  13.689   2.043
33199SOL     OW 1493   3.551   2.060   7.544
33199SOL    HW1 1494   3.578   2.054   7.636
33199SOL    HW2 1495   3.632   2.051   7.494
33200SOL     OW 1496  11.883   0.547  13.433
33200SOL    HW1 1497  11.884   0.641  13.414
33200SOL    HW2 1498  11.852   0.507  13.352
33201SOL     OW 1499  10.777   3.704   2.530
33201SOL    HW1 1500  10.693   3.687   2.572
33201SOL    HW2 1501  10.809   3.784   2.572
33202SOL     OW 1502   2.750   3.414   6.871
33202SOL    HW1 1503   2.829   3.458   6.902
33202SOL    HW2 1504   2.703   3.481   6.822
33203SOL     OW 1505  11.985   0.913   4.844
33203SOL    HW1 1506  12.053   0.927   4.911
33203SOL    HW2 1507  11.993   0.821   4.821
33204SOL     OW 1508   0.399  10.250  14.858
33204SOL    HW1 1509   0.395  10.345  14.846
33204SOL    HW2 1510   0.451  10.219  14.784
33205SOL     OW 1511   9.480   2.370   9.509
33205SOL    HW1 1512   9.397   2.326   9.527
33205SOL    HW2 1513   9.534   2.353   9.586
33206SOL     OW 1514   5.901   4.799   7.464
33206SOL    HW1 1515   5.931   4.890   7.461
33206SOL    HW2 1516   5.807   4.805   7.446
33207SOL     OW 1517   4.378  11.285   5.450
33207SOL    HW1 1518   4.426  11.208   5.479
33207SOL    HW2 1519   4.386  11.348   5.521
33208SOL     OW 1520   6.316   8.176  12.303
33208SOL    HW1 1521   6.339   8.263  12.336
33208SOL    HW2 1522   6.318   8.120  12.380
33209SOL     OW 1523  11.275  11.908   0.091
33209SOL    HW1 1524  11.234  11.821   0.087
33209SOL    HW2 1525  11.369  11.890   0.102
33210SOL     OW 1526  14.225  12.772   8.100
33210SOL    HW1 1527  14.176  12.693   8.078
33210SOL    HW2 1528  14.180  12.808   8.177
33211SOL     OW 1529   7.854   2.418   0.531
33211SOL    HW1 1530   7.926   2.453   0.479
33211SOL    HW2 1531   7.791   2.489   0.536
33212SOL     OW 1532  11.202   2.135   2.359
33212SOL    HW1 1533  11.210   2.150   2.265
33212SOL    HW2 1534  11.265   2.065   2.378
33213SOL     OW 1535   6.561   9.987   0.723
33213SOL    HW1 1536   6.505   9.994   0.645
33213SOL    HW2 1537   6.623   9.917   0.701
33214SOL     OW 1538  13.941   0.305  10.589
33214SOL    HW1 1539  13.907   0.375  10.646
33214SOL    HW2 1540  14.014   0.268  10.638
33215SOL     OW 1541  11.978   4.592  13.959
33215SOL    HW1 1542  11.895   4.592  13.912
33215SOL    HW2 1543  11.954   4.613  14.049
33216SOL     OW 1544  11.073  14.592   6.266
33216SOL    HW1 1545  11.069  14.516   6.323
33216SOL    HW2 1546  10.986  14.633   6.274
33217SOL     OW 1547   9.482  11.615  10.468
33217SOL    HW1 1548   9.393  11.631  10.437
33217SOL    HW2 1549   9.528  11.697  10.450
33218SOL     OW 1550  11.450   1.134   4.607
33218SOL    HW1 1551  11.415   1.223   4.616
33218SOL    HW2 1552  11.389   1.091   4.547
33219SOL     OW 1553   0.579   8.680   4.076
33219SOL    HW1 1554   0.489   8.711   4.075
33219SOL    HW2 1555   0.574   8.591   4.112
33220SOL     OW 1556   9.737  11.156   3.668
33220SOL    HW1 1557   9.786  11.091   3.617
33220SOL    HW2 1558   9.774  11.151   3.756
33221SOL     OW 1559   7.214  11.258   0.773
33221SOL    HW1 1560   7.255  11.322   0.832
33221SOL    HW2 1561   7.238  11.288   0.685
33222SOL     OW 1562   8.781  13.701  12.787
33222SOL    HW1 1563   8.775  13.639  12.861
33222SOL    HW2 1564   8.864  13.747  12.801
33223SOL     OW 1565   4.452  14.363   0.421
33223SOL    HW1 1566   4.497  14.295   0.472
33223SOL    HW2 1567   4.522  14.408   0.374
33224SOL     OW 1568   2.730   6.240   5.006
33224SOL    HW1 1569   2.802   6.191   4.967
33224SOL    HW2 1570   2.759   6.331   5.004
33225SOL     OW 1571   4.774  13.851   6.291
33225SOL    HW1 1572   4.826  13.787   6.340
33225SOL    HW2 1573   4.739  13.909   6.358
33226SOL     OW 1574   4.063   1.296  13.791
33226SOL    HW1 1575   4.151   1.309  13.757
33226SOL    HW2 1576   4.008   1.289  13.713
33227SOL     OW 1577   3.785   7.054   2.076
33227SOL    HW1 1578   3.801   7.115   2.004
33227SOL    HW2 1579   3.705   7.007   2.051
33228SOL     OW 1580  13.977   6.317   8.551
33228SOL    HW1 1581  13.917   6.279   8.615
33228SOL    HW2 1582  14.042   6.363   8.603
33229SOL     OW 1583   2.238   7.103  13.541
33229SOL    HW1 1584   2.201   7.025  13.500
33229SOL    HW2 1585   2.300   7.137  13.476
33230SOL     OW 1586   9.872  14.680  12.478
33230SOL    HW1 1587   9.862  14.742  12.550
33230SOL    HW2 1588   9.964  14.686  12.453
33231SOL     OW 1589   6.745   9.733   8.650
33231SOL    HW1 1590   6.666   9.751   8.701
33231SOL    HW2 1591   6.763   9.640   8.666
33232SOL     OW 1592   3.673   5.867  10.342
33232SOL    HW1 1593   3.743   5.832  10.398
33232SOL    HW2 1594   3.634   5.938  10.394
33233SOL     OW 1595  10.297  11.948   5.918
33233SOL    HW1 1596  10.360  12.010   5.956
33233SOL    HW2 1597  10.234  12.004   5.873
33234SOL     OW 1598   1.564   6.899  12.989
33234SOL    HW1 1599   1.519   6.943  12.918
33234SOL    HW2 1600   1.641   6.952  13.006
33235SOL     OW 1601  10.867   8.057   7.881
33235SOL    HW1 1602  10.846   8.040   7.789
33235SOL    HW2 1603  10.782   8.060   7.925
33236SOL     OW 1604   1.961   7.046  11.644
33236SOL    HW1 1605   1.950   7.029  11.550
33236SOL    HW2 1606   1.886   7.099  11.668
33237SOL     OW 1607   5.506   1.180  10.726
33237SOL    HW1 1608   5.437   1.216  10.670
33237SOL    HW2 1609   5.577   1.244  10.720
33238SOL     OW 1610  11.777   8.621   8.488
33238SOL    HW1 1611  11.706   8.558   8.485
33238SOL    HW2 1612  11.748   8.688   8.549
33239SOL     OW 1613   0.966   2.459   4.306
33239SOL    HW1 1614   0.920   2.524   4.253
33239SOL    HW2 1615   0.949   2.375   4.263
33240SOL     OW 1616  13.832   3.694   3.201
33240SOL    HW1 1617  13.899   3.656   3.145
33240SOL    HW2 1618  13.847   3.789   3.194
33241SOL     OW 1619   4.587  12.399  10.214
33241SOL    HW1 1620   4.574  12.472  10.154
33241SOL    HW2 1621   4.552  12.323  10.166
33242SOL     OW 1622   7.870   1.830   0.629
33242SOL    HW1 1623   7.857   1.872   0.713
33242SOL    HW2 1624   7.963   1.839   0.611
33243SOL     OW 1625   0.015   7.359   6.339
33243SOL    HW1 1626   0.104   7.358   6.304
33243SOL    HW2 1627  14.862   7.444   6.312
33244SOL     OW 1628   4.435  14.476   2.254
33244SOL    HW1 1629   4.458  14.554   2.204
33244SOL    HW2 1630   4.345  14.491   2.283
33245SOL     OW 1631  11.654  14.684  10.570
33245SOL    HW1 1632  11.725  14.695  10.633
33245SOL    HW2 1633  11.688  14.621  10.506
33246SOL     OW 1634   9.757   6.932   3.486
33246SOL    HW1 1635   9.816   6.861   3.509
33246SOL    HW2 1636   9.745   6.924   3.391
33247SOL     OW 1637  13.774   9.407   0.170
33247SOL    HW1 1638  13.723   9.487   0.153
33247SOL    HW2 1639  13.710   9.346   0.206
33248SOL     OW 1640   0.536   9.316   7.294
33248SOL    HW1 1641   0.575   9.246   7.242
33248SOL    HW2 1642   0.485   9.367   7.231
33249SOL     OW 1643   6.430   4.243  13.678
33249SOL    HW1 1644   6.444   4.315  13.740
33249SOL    HW2 1645   6.337   4.222  13.687
33250SOL     OW 1646   8.737   6.248   6.954
33250SOL    HW1 1647   8.769   6.164   6.987
33250SOL    HW2 1648   8.656   6.264   7.002
33251SOL     OW 1649  11.325  11.756   0.970
33251SOL    HW1 1650  11.273  11.823   1.012
33251SOL    HW2 1651  11.416  11.778   0.991
33252SOL     OW 1652   5.244   2.794  11.637
33252SOL    HW1 1653   5.339   2.786  11.631
33252SOL    HW2 1654   5.211   2.705  11.625
33253SOL     OW 1655   0.864  13.377  13.826
33253SOL    HW1 1656   0.923  13.415  13.891
33253SOL    HW2 1657   0.863  13.442  13.755
33254SOL     OW 1658   8.119   0.631  10.197
33254SOL    HW1 1659   8.175   0.708  10.209
33254SOL    HW2 1660   8.127   0.611  10.103
33255SOL     OW 1661   3.901  12.216   5.758
33255SOL    HW1 1662   3.948  12.227   5.675
33255SOL    HW2 1663   3.904  12.302   5.799
33256SOL     OW 1664   2.363  12.049   2.967
33256SOL    HW1 1665   2.362  12.030   3.061
33256SOL    HW2 1666   2.455  12.065   2.947
33257SOL     OW 1667  14.472  11.080   9.421
33257SOL    HW1 1668  14.407  11.040   9.479
33257SOL    HW2 1669  14.492  11.013   9.356
33258SOL     OW 1670   9.615   7.791   9.630
33258SOL    HW1 1671   9.709   7.786   9.611
33258SOL    HW2 1672   9.598   7.884   9.642
33259SOL     OW 1673   6.304   8.334   0.869
33259SOL    HW1 1674   6.323   8.283   0.948
33259SOL    HW2 1675   6.258   8.272   0.811
33260SOL     OW 1676  11.488  11.246  10.303
33260SOL    HW1 1677  11.476  11.283  10.390
33260SOL    HW2 1678  11.583  11.230  10.296
33261SOL     OW 1679   5.813  10.415  11.851
33261SOL    HW1 1680   5.855  10.459  11.924
33261SOL    HW2 1681   5.719  10.422  11.869
33262SOL     OW 1682  14.535   0.773  12.704
33262SOL    HW1 1683  14.621   0.751  12.740
33262SOL    HW2 1684  14.476   0.708  12.742
33263SOL     OW 1685  11.861   8.050  11.930
33263SOL    HW1 1686  11.794   8.082  11.870
33263SOL    HW2 1687  11.834   7.961  11.951
33264SOL     OW 1688   6.152   3.781   7.220
33264SOL    HW1 1689   6.131   3.800   7.311
33264SOL    HW2 1690   6.204   3.855   7.190
33265SOL     OW 1691   5.615   2.688   2.718
33265SOL    HW1 1692   5.632   2.703   2.811
33265SOL    HW2 1693   5.520   2.694   2.709
33266SOL     OW 1694  11.388   6.526   2.189
33266SOL    HW1 1695  11.320   6.529   2.256
33266SOL    HW2 1696  11.381   6.610   2.144
33267SOL     OW 1697   3.014   0.370   0.080
33267SOL    HW1 1698   3.030   0.332  14.875
33267SOL    HW2 1699   2.940   0.319   0.115
33268SOL     OW 1700   2.416   8.617  13.901
33268SOL    HW1 1701   2.462   8.589  13.822
33268SOL    HW2 1702   2.332   8.650  13.870
33269SOL     OW 1703   0.347   4.979   7.359
33269SOL    HW1 1704   0.285   5.002   7.289
33269SOL    HW2 1705   0.429   5.022   7.333
33270SOL     OW 1706   1.354  13.278   4.377
33270SOL    HW1 1707   1.377  13.277   4.284
33270SOL    HW2 1708   1.435  13.256   4.422
33271SOL     OW 1709   1.764  11.858   4.511
33271SOL    HW1 1710   1.694  11.910   4.471
33271SOL    HW2 1711   1.753  11.771   4.472
33272SOL     OW 1712   3.262   0.947  13.570
33272SOL    HW1 1713   3.201   0.872  13.568
33272SOL    HW2 1714   3.205   1.024  13.563
33273SOL     OW 1715   1.546   5.535   5.524
33273SOL    HW1 1716   1.640   5.526   5.542
33273SOL    HW2 1717   1.532   5.630   5.523
33274SOL     OW 1718   4.433  11.465   2.527
33274SOL    HW1 1719   4.358  11.441   2.581
33274SOL    HW2 1720   4.476  11.536   2.575
33275SOL     OW 1721  13.174  12.283   4.595
33275SOL    HW1 1722  13.152  12.192   4.616
33275SOL    HW2 1723  13.213  12.279   4.508
33276SOL     OW 1724   4.164  14.342   3.949
33276SOL    HW1 1725   4.149  14.297   3.866
33276SOL    HW2 1726   4.251  14.380   3.940
33277SOL     OW 1727   6.520   1.771   8.705
33277SOL    HW1 1728   6.598   1.816   8.736
33277SOL    HW2 1729   6.552   1.689   8.667
33278SOL     OW 1730   0.604   9.802   0.377
33278SOL    HW1 1731   0.551   9.874   0.343
33278SOL    HW2 1732   0.604   9.814   0.472
33279SOL     OW 1733   3.441  10.370  11.578
33279SOL    HW1 1734   3.470  10.373  11.487
33279SOL    HW2 1735   3.478  10.449  11.618
33280SOL     OW 1736   3.830  13.014   9.946
33280SOL    HW1 1737   3.853  12.934   9.993
33280SOL    HW2 1738   3.858  12.998   9.856
33281SOL     OW 1739   6.206  11.957   5.755
33281SOL    HW1 1740   6.192  11.873   5.800
33281SOL    HW2 1741   6.227  12.018   5.825
33282SOL     OW 1742   3.479   7.246  13.045
33282SOL    HW1 1743   3.485   7.183  12.973
33282SOL    HW2 1744   3.561   7.296  13.039
33283SOL     OW 1745   9.816   2.877   9.972
33283SOL    HW1 1746   9.881   2.809   9.991
33283SOL    HW2 1747   9.770   2.844   9.895
33284SOL     OW 1748  11.584   2.421  12.290
33284SOL    HW1 1749  11.492   2.409  12.268
33284SOL    HW2 1750  11.631   2.376  12.221
33285SOL     OW 1751  10.576   6.071   4.416
33285SOL    HW1 1752  10.667   6.088   4.439
33285SOL    HW2 1753  10.527   6.092   4.495
33286SOL     OW 1754  10.855   0.383   4.660
33286SOL    HW1 1755  10.822   0.321   4.595
33286SOL    HW2 1756  10.927   0.428   4.616
33287SOL     OW 1757  13.736  12.843  14.636
33287SOL    HW1 1758  13.737  12.885  14.722
33287SOL    HW2 1759  13.653  12.869  14.597
33288SOL     OW 1760   4.890  13.821  13.790
33288SOL    HW1 1761   4.833  13.865  13.853
33288SOL    HW2 1762   4.951  13.771  13.845
33289SOL     OW 1763  10.479   6.381  11.813
33289SOL    HW1 1764  10.436   6.463  11.789
33289SOL    HW2 1765  10.438   6.315  11.757
33290SOL     OW 1766   6.341  12.718  14.058
33290SOL    HW1 1767   6.399  12.784  14.020
33290SOL    HW2 1768   6.401  12.653  14.095
33291SOL     OW 1769  11.285   2.693  12.392
33291SOL    HW1 1770  11.257   2.669  12.481
33291SOL    HW2 1771  11.298   2.609  12.348
33292SOL     OW 1772   7.141  11.709  13.524
33292SOL    HW1 1773   7.094  11.759  13.590
33292SOL    HW2 1774   7.223  11.683  13.567
33293SOL     OW 1775   9.586  13.645  12.936
33293SOL    HW1 1776   9.561  13.553  12.947
33293SOL    HW2 1777   9.682  13.644  12.935
33294SOL     OW 1778   3.771   5.541   0.393
33294SOL    HW1 1779   3.851   5.572   0.352
33294SOL    HW2 1780   3.749   5.608   0.458
33295SOL     OW 1781   7.563   9.323   8.228
33295SOL    HW1 1782   7.635   9.259   8.235
33295SOL    HW2 1783   7.590   9.396   8.284
33296SOL     OW 1784   1.795  10.232   5.572
33296SOL    HW1 1785   1.813  10.168   5.502
33296SOL    HW2 1786   1.852  10.306   5.551
33297SOL     OW 1787   5.332   2.690   2.743
33297SOL    HW1 1788   5.304   2.781   2.751
33297SOL    HW2 1789   5.327   2.671   2.649
33298SOL     OW 1790   3.681   8.510   5.405
33298SOL    HW1 1791   3.706   8.469   5.322
33298SOL    HW2 1792   3.715   8.599   5.400
33299SOL     OW 1793   7.492  14.232   3.845
33299SOL    HW1 1794   7.588  14.239   3.845
33299SOL    HW2 1795   7.473  14.153   3.895
33300SOL     OW 1796   9.665   3.872   1.212
33300SOL    HW1 1797   9.609   3.889   1.136
33300SOL    HW2 1798   9.621   3.916   1.285
33301SOL     OW 1799  10.629   7.611   1.768
33301SOL    HW1 1800  10.646   7.607   1.674
33301SOL    HW2 1801  10.652   7.700   1.793
33302SOL     OW 1802  13.747   5.100   8.422
33302SOL    HW1 1803  13.792   5.122   8.503
33302SOL    HW2 1804  13.754   5.179   8.369
33303SOL     OW 1805   8.320  14.430   7.105
33303SOL    HW1 1806   8.266  14.403   7.031
33303SOL    HW2 1807   8.408  14.401   7.082
33304SOL     OW 1808   0.964   4.582  12.440
33304SOL    HW1 1809   0.900   4.535  12.387
33304SOL    HW2 1810   1.004   4.514  12.495
33305SOL     OW 1811   8.269  11.181   5.974
33305SOL    HW1 1812   8.311  11.169   5.888
33305SOL    HW2 1813   8.207  11.108   5.980
33306SOL     OW 1814  10.575   0.884   4.249
33306SOL    HW1 1815  10.570   0.893   4.345
33306SOL    HW2 1816  10.529   0.802   4.231
33307SOL     OW 1817   4.864   4.072   9.028
33307SOL    HW1 1818   4.783   4.068   9.079
33307SOL    HW2 1819   4.904   4.155   9.053
33308SOL     OW 1820   3.339   5.012  12.361
33308SOL    HW1 1821   3.308   5.102  12.349
33308SOL    HW2 1822   3.322   4.970  12.276
33309SOL     OW 1823   7.272   0.349   5.158
33309SOL    HW1 1824   7.230   0.411   5.098
33309SOL    HW2 1825   7.365   0.355   5.139
33310SOL     OW 1826  10.046  13.395   8.106
33310SOL    HW1 1827   9.982  13.328   8.129
33310SOL    HW2 1828   9.997  13.459   8.055
33311SOL     OW 1829   3.837   0.465  14.651
33311SOL    HW1 1830   3.791   0.538  14.692
33311SOL    HW2 1831   3.894   0.507  14.586
33312SOL     OW 1832   9.534   2.789   4.735
33312SOL    HW1 1833   9.539   2.839   4.653
33312SOL    HW2 1834   9.586   2.710   4.718
33313SOL     OW 1835   8.469  12.120  10.821
33313SOL    HW1 1836   8.502  12.078  10.741
33313SOL    HW2 1837   8.431  12.202  10.790
33314SOL     OW 1838   5.170   0.133   5.773
33314SOL    HW1 1839   5.152   0.197   5.704
33314SOL    HW2 1840   5.142   0.050   5.736
33315SOL     OW 1841  13.657   3.608   8.459
33315SOL    HW1 1842  13.678   3.685   8.406
33315SOL    HW2 1843  13.677   3.633   8.549
33316SOL     OW 1844  13.373   5.173   8.677
33316SOL    HW1 1845  13.324   5.254   8.690
33316SOL    HW2 1846  13.312   5.104   8.705
33317SOL     OW 1847  11.068   9.044   3.902
33317SOL    HW1 1848  11.050   8.976   3.837
33317SOL    HW2 1849  10.986   9.053   3.951
33318SOL     OW 1850   9.261   2.122   9.239
33318SOL    HW1 1851   9.238   2.029   9.240
33318SOL    HW2 1852   9.204   2.161   9.305
33319SOL     OW 1853  14.376  12.136  14.149
33319SOL    HW1 1854  14.293  12.172  14.180
33319SOL    HW2 1855  14.363  12.123  14.055
33320SOL     OW 1856   9.872  14.787   6.122
33320SOL    HW1 1857   9.869  14.856   6.188
33320SOL    HW2 1858   9.863  14.706   6.171
33321SOL     OW 1859   4.344  14.416   8.762
33321SOL    HW1 1860   4.373  14.345   8.706
33321SOL    HW2 1861   4.416  14.479   8.760
33322SOL     OW 1862   0.616   5.283   6.714
33322SOL    HW1 1863   0.686   5.248   6.768
33322SOL    HW2 1864   0.649   5.276   6.624
33323SOL     OW 1865   5.541   8.600   5.737
33323SOL    HW1 1866   5.563   8.690   5.713
33323SOL    HW2 1867   5.496   8.564   5.661
33324SOL     OW 1868  10.768   0.590   5.180
33324SOL    HW1 1869  10.678   0.611   5.154
33324SOL    HW2 1870  10.757   0.532   5.255
33325SOL     OW 1871   3.464   1.759   7.077
33325SOL    HW1 1872   3.391   1.758   7.140
33325SOL    HW2 1873   3.467   1.670   7.042
33326SOL     OW 1874   5.467   0.642   6.616
33326SOL    HW1 1875   5.428   0.633   6.529
33326SOL    HW2 1876   5.555   0.606   6.607
33327SOL     OW 1877   0.383   6.301   9.236
33327SOL    HW1 1878   0.341   6.325   9.153
33327SOL    HW2 1879   0.469   6.342   9.233
33328SOL     OW 1880  12.513   4.636   8.459
33328SOL    HW1 1881  12.539   4.725   8.435
33328SOL    HW2 1882  12.429   4.623   8.414
33329SOL     OW 1883   9.482  10.053  10.977
33329SOL    HW1 1884   9.458  10.053  10.885
33329SOL    HW2 1885   9.512   9.963  10.994
33330SOL     OW 1886  11.650   8.811  12.082
33330SOL    HW1 1887  11.722   8.872  12.072
33330SOL    HW2 1888  11.575   8.854  12.040
33331SOL     OW 1889   3.107   1.481   6.831
33331SOL    HW1 1890   3.105   1.458   6.924
33331SOL    HW2 1891   3.015   1.487   6.806
33332SOL     OW 1892   0.445   6.482  12.365
33332SOL    HW1 1893   0.482   6.548  12.424
33332SOL    HW2 1894   0.422   6.409  12.423
33333SOL     OW 1895   0.970  13.192   8.096
33333SOL    HW1 1896   0.946  13.124   8.158
33333SOL    HW2 1897   0.888  13.210   8.048
33334SOL     OW 1898   1.878  14.731   2.484
33334SOL    HW1 1899   1.922  14.649   2.463
33334SOL    HW2 1900   1.897  14.789   2.411
33335SOL     OW 1901   8.707   6.883  14.390
33335SOL    HW1 1902   8.618   6.900  14.423
33335SOL    HW2 1903   8.709   6.924  14.304
33336SOL     OW 1904   4.558  13.296   7.999
33336SOL    HW1 1905   4.636  13.316   7.948
33336SOL    HW2 1906   4.585  13.312   8.090
33337SOL     OW 1907   8.869   4.898   8.647
33337SOL    HW1 1908   8.855   4.965   8.580
33337SOL    HW2 1909   8.805   4.830   8.626
33338SOL     OW 1910   9.723  14.032  13.730
33338SOL    HW1 1911   9.747  14.036  13.823
33338SOL    HW2 1912   9.660  13.960  13.725
33339SOL     OW 1913   1.019   9.496  10.848
33339SOL    HW1 1914   0.957   9.483  10.920
33339SOL    HW2 1915   1.102   9.516  10.891
33340SOL     OW 1916   5.403  10.608   9.894
33340SOL    HW1 1917   5.340  10.631   9.826
33340SOL    HW2 1918   5.465  10.549   9.850
33341SOL     OW 1919   2.070   8.787   1.489
33341SOL    HW1 1920   2.123   8.728   1.542
33341SOL    HW2 1921   2.117   8.792   1.405
33342SOL     OW 1922  13.716  11.582  11.496
33342SOL    HW1 1923  13.684  11.571  11.407
33342SOL    HW2 1924  13.677  11.664  11.525
33343SOL     OW 1925   8.328  14.290  12.646
33343SOL    HW1 1926   8.380  14.359  12.603
33343SOL    HW2 1927   8.386  14.214  12.646
33344SOL     OW 1928   7.269  12.784  13.412
33344SOL    HW1 1929   7.196  12.841  13.387
33344SOL    HW2 1930   7.277  12.795  13.507
33345SOL     OW 1931  12.966   7.157  10.400
33345SOL    HW1 1932  12.999   7.212  10.330
33345SOL    HW2 1933  13.033   7.160  10.467
33346SOL     OW 1934   1.547   6.161  13.429
33346SOL    HW1 1935   1.514   6.231  13.373
33346SOL    HW2 1936   1.640   6.155  13.408
33347SOL     OW 1937   4.256   1.843   0.537
33347SOL    HW1 1938   4.297   1.837   0.451
33347SOL    HW2 1939   4.172   1.886   0.521
33348SOL     OW 1940  14.671   3.050   8.253
33348SOL    HW1 1941  14.650   3.092   8.336
33348SOL    HW2 1942  14.586   3.019   8.220
33349SOL     OW 1943  11.261   8.249  10.956
33349SOL    HW1 1944  11.321   8.191  11.003
33349SOL    HW2 1945  11.271   8.334  10.998
33350SOL     OW 1946  14.627  13.906  12.611
33350SOL    HW1 1947  14.580  13.985  12.583
33350SOL    HW2 1948  14.608  13.900  12.705
33351SOL     OW 1949  12.031   2.019   6.270
33351SOL    HW1 1950  12.067   1.963   6.200
33351SOL    HW2 1951  11.938   2.023   6.251
33352SOL     OW 1952  10.952  12.694   7.335
33352SOL    HW1 1953  10.890  12.761   7.363
33352SOL    HW2 1954  11.036  12.739   7.329
33353SOL     OW 1955   3.596   3.888  12.447
33353SOL    HW1 1956   3.586   3.827  12.374
33353SOL    HW2 1957   3.507   3.900  12.480
33354SOL     OW 1958   8.721  11.916  10.135
33354SOL    HW1 1959   8.800  11.951  10.174
33354SOL    HW2 1960   8.752  11.851  10.071
33355SOL     OW 1961  12.799   3.431   2.826
33355SOL    HW1 1962  12.791   3.346   2.869
33355SOL    HW2 1963  12.849   3.413   2.746
33356SOL     OW 1964   0.801  13.109   7.454
33356SOL    HW1 1965   0.718  13.147   7.484
33356SOL    HW2 1966   0.812  13.142   7.365
33357SOL     OW 1967   3.852   6.948   5.112
33357SOL    HW1 1968   3.859   6.985   5.200
33357SOL    HW2 1969   3.927   6.889   5.104
33358SOL     OW 1970   5.430   3.141  10.819
33358SOL    HW1 1971   5.494   3.112  10.754
33358SOL    HW2 1972   5.466   3.223  10.854
33359SOL     OW 1973   5.980  12.866  10.463
33359SOL    HW1 1974   5.968  12.939  10.524
33359SOL    HW2 1975   5.898  12.817  10.467
33360SOL     OW 1976   4.297  11.827  14.020
33360SOL    HW1 1977   4.231  11.889  14.050
33360SOL    HW2 1978   4.271  11.807  13.929
33361SOL     OW 1979  13.808  13.999   2.948
33361SOL    HW1 1980  13.767  13.935   2.890
33361SOL    HW2 1981  13.902  13.986   2.935
33362SOL     OW 1982   3.135   5.526  14.438
33362SOL    HW1 1983   3.203   5.541  14.505
33362SOL    HW2 1984   3.088   5.448  14.468
33363SOL     OW 1985   4.238  11.698  10.097
33363SOL    HW1 1986   4.253  11.757  10.170
33363SOL    HW2 1987   4.295  11.623  10.114
33364SOL     OW 1988   7.033   1.094  11.637
33364SOL    HW1 1989   7.108   1.068  11.690
33364SOL    HW2 1990   7.003   1.012  11.596
33365SOL     OW 1991  14.357   6.558   6.883
33365SOL    HW1 1992  14.305   6.519   6.813
33365SOL    HW2 1993  14.445   6.566   6.845
33366SOL     OW 1994  10.245   7.932   3.825
33366SOL    HW1 1995  10.329   7.969   3.796
33366SOL    HW2 1996  10.239   7.958   3.917
33367SOL     OW 1997   1.753   7.578   0.259
33367SOL    HW1 1998   1.686   7.630   0.215
33367SOL    HW2 1999   1.722   7.487   0.250
33368SOL     OW 2000   2.863   8.238   3.199
33368SOL    HW1 2001   2.829   8.189   3.275
33368SOL    HW2 2002   2.846   8.181   3.124
33369SOL     OW 2003  13.765  11.958   0.727
33369SOL    HW1 2004  13.768  11.882   0.668
33369SOL    HW2 2005  13.674  11.961   0.756
33370SOL     OW 2006   5.912   4.773   4.613
33370SOL    HW1 2007   5.841   4.797   4.554
33370SOL    HW2 2008   5.874   4.707   4.671
33371SOL     OW 2009   9.081  12.678   0.682
33371SOL    HW1 2010   9.161  12.653   0.637
33371SOL    HW2 2011   9.011  12.658   0.621
33372SOL     OW 2012  14.449   8.015   6.898
33372SOL    HW1 2013  14.395   7.938   6.878
33372SOL    HW2 2014  14.537   7.981   6.909
33373SOL     OW 2015   7.579   6.125   4.488
33373SOL    HW1 2016   7.667   6.138   4.522
33373SOL    HW2 2017   7.540   6.060   4.547
33374SOL     OW 2018   5.703   1.231   9.517
33374SOL    HW1 2019   5.621   1.270   9.487
33374SOL    HW2 2020   5.681   1.192   9.602
33375SOL     OW 2021   5.819  10.315   3.172
33375SOL    HW1 2022   5.820  10.391   3.114
33375SOL    HW2 2023   5.886  10.334   3.237
33376SOL     OW 2024  13.047   3.335   3.839
33376SOL    HW1 2025  13.034   3.308   3.930
33376SOL    HW2 2026  12.993   3.275   3.788
33377SOL     OW 2027   4.665   4.586  10.899
33377SOL    HW1 2028   4.622   4.652  10.845
33377SOL    HW2 2029   4.622   4.504  10.876
33378SOL     OW 2030  11.972   2.204   2.718
33378SOL    HW1 2031  11.981   2.242   2.806
33378SOL    HW2 2032  11.990   2.111   2.730
33379SOL     OW 2033   0.996   2.913   7.368
33379SOL    HW1 2034   1.076   2.878   7.328
33379SOL    HW2 2035   0.966   2.844   7.427
33380SOL     OW 2036   4.766   9.624   8.966
33380SOL    HW1 2037   4.761   9.687   9.038
33380SOL    HW2 2038   4.783   9.540   9.009
33381SOL     OW 2039   6.609   3.894   8.563
33381SOL    HW1 2040   6.581   3.820   8.618
33381SOL    HW2 2041   6.544   3.898   8.493
33382SOL     OW 2042  14.577   5.799   7.532
33382SOL    HW1 2043  14.572   5.865   7.602
33382SOL    HW2 2044  14.614   5.722   7.575
33383SOL     OW 2045  12.904   0.302   4.122
33383SOL    HW1 2046  12.863   0.378   4.162
33383SOL    HW2 2047  12.981   0.285   4.176
33384SOL     OW 2048   4.435   5.719   7.954
33384SOL    HW1 2049   4.427   5.650   8.019
33384SOL    HW2 2050   4.428   5.674   7.870
33385SOL     OW 2051   8.720   0.356   3.417
33385SOL    HW1 2052   8.765   0.405   3.348
33385SOL    HW2 2053   8.687   0.422   3.477
33386SOL     OW 2054   9.521  13.581   0.503
33386SOL    HW1 2055   9.567  13.544   0.578
33386SOL    HW2 2056   9.470  13.654   0.540
33387SOL     OW 2057   0.272  11.794   9.818
33387SOL    HW1 2058   0.254  11.833   9.904
33387SOL    HW2 2059   0.314  11.865   9.769
33388SOL     OW 2060  11.916   3.890   1.464
33388SOL    HW1 2061  11.929   3.824   1.396
33388SOL    HW2 2062  11.894   3.840   1.542
33389SOL     OW 2063  12.446   7.854   8.793
33389SOL    HW1 2064  12.488   7.826   8.712
33389SOL    HW2 2065  12.515   7.853   8.859
33390SOL     OW 2066   5.378   4.808   4.501
33390SOL    HW1 2067   5.328   4.879   4.542
33390SOL    HW2 2068   5.321   4.776   4.431
33391SOL     OW 2069   4.605  11.935   4.208
33391SOL    HW1 2070   4.554  11.939   4.289
33391SOL    HW2 2071   4.680  11.992   4.223
33392SOL     OW 2072  10.541   1.056  14.170
33392SOL    HW1 2073  10.585   1.042  14.254
33392SOL    HW2 2074  10.454   1.086  14.193
33393SOL     OW 2075  11.139   0.478  14.513
33393SOL    HW1 2076  11.177   0.547  14.458
33393SOL    HW2 2077  11.215   0.434  14.551
33394SOL     OW 2078   5.300   7.163   2.630
33394SOL    HW1 2079   5.282   7.123   2.715
33394SOL    HW2 2080   5.314   7.088   2.571
33395SOL     OW 2081  11.745   3.937   4.758
33395SOL    HW1 2082  11.753   4.030   4.741
33395SOL    HW2 2083  11.764   3.895   4.674
33396SOL     OW 2084   7.968   2.790   3.727
33396SOL    HW1 2085   8.005   2.876   3.704
33396SOL    HW2 2086   8.029   2.755   3.792
33397SOL     OW 2087   5.948  11.568   4.508
33397SOL    HW1 2088   5.959  11.473   4.521
33397SOL    HW2 2089   5.866  11.575   4.458
33398SOL     OW 2090  10.537  14.447  12.774
33398SOL    HW1 2091  10.509  14.463  12.864
33398SOL    HW2 2092  10.587  14.525  12.750
33399SOL     OW 2093  11.103   3.170   9.519
33399SOL    HW1 2094  11.113   3.245   9.460
33399SOL    HW2 2095  11.009   3.157   9.525
33400SOL     OW 2096   4.977   2.552  13.860
33400SOL    HW1 2097   5.054   2.605  13.840
33400SOL    HW2 2098   5.011   2.479  13.913
33401SOL     OW 2099  12.404  11.647  13.331
33401SOL    HW1 2100  12.360  11.636  13.247
33401SOL    HW2 2101  12.425  11.740  13.335
33402SOL     OW 2102  13.066  12.166  11.357
33402SOL    HW1 2103  13.099  12.246  11.399
33402SOL    HW2 2104  13.141  12.107  11.357
33403SOL     OW 2105  10.585  10.277  10.686
33403SOL    HW1 2106  10.677  10.251  10.688
33403SOL    HW2 2107  10.583  10.350  10.623
33404SOL     OW 2108   9.550   6.989   2.058
33404SOL    HW1 2109   9.636   7.014   2.093
33404SOL    HW2 2110   9.552   6.893   2.055
33405SOL     OW 2111   2.857   6.247   1.781
33405SOL    HW1 2112   2.927   6.279   1.723
33405SOL    HW2 2113   2.902   6.193   1.846
33406SOL     OW 2114  10.538   0.665   2.841
33406SOL    HW1 2115  10.581   0.605   2.780
33406SOL    HW2 2116  10.605   0.729   2.864
33407SOL     OW 2117   2.179   2.234   5.074
33407SOL    HW1 2118   2.088   2.228   5.103
33407SOL    HW2 2119   2.231   2.213   5.152
33408SOL     OW 2120   8.883  11.500  12.492
33408SOL    HW1 2121   8.841  11.515  12.407
33408SOL    HW2 2122   8.880  11.585  12.536
33409SOL     OW 2123  14.281  11.617   0.207
33409SOL    HW1 2124  14.270  11.693   0.149
33409SOL    HW2 2125  14.216  11.554   0.176
33410SOL     OW 2126   9.257  10.810  12.254
33410SOL    HW1 2127   9.221  10.770  12.334
33410SOL    HW2 2128   9.333  10.859  12.284
33411SOL     OW 2129   8.158   7.918  14.313
33411SOL    HW1 2130   8.082   7.904  14.368
33411SOL    HW2 2131   8.126   7.906  14.223
33412SOL     OW 2132   8.150  10.581   4.066
33412SOL    HW1 2133   8.223  10.558   4.007
33412SOL    HW2 2134   8.071  10.560   4.016
33413SOL     OW 2135  13.002   8.719   1.133
33413SOL    HW1 2136  13.079   8.683   1.090
33413SOL    HW2 2137  13.004   8.813   1.113
33414SOL     OW 2138   1.614   0.230  12.312
33414SOL    HW1 2139   1.558   0.231  12.390
33414SOL    HW2 2140   1.690   0.176  12.338
33415SOL     OW 2141  10.614  10.243   0.336
33415SOL    HW1 2142  10.699  10.285   0.348
33415SOL    HW2 2143  10.556  10.315   0.309
33416SOL     OW 2144   0.947  13.917   7.589
33416SOL    HW1 2145   1.017  13.939   7.651
33416SOL    HW2 2146   0.953  13.985   7.522
33417SOL     OW 2147   1.232   1.296   1.819
33417SOL    HW1 2148   1.320   1.334   1.828
33417SOL    HW2 2149   1.208   1.271   1.908
33418SOL     OW 2150   8.124  12.660  14.244
33418SOL    HW1 2151   8.192  12.725  14.264
33418SOL    HW2 2152   8.113  12.665  14.149
33419SOL     OW 2153   8.272  12.073   8.497
33419SOL    HW1 2154   8.240  12.087   8.586
33419SOL    HW2 2155   8.332  12.146   8.481
33420SOL     OW 2156  12.808   1.964   1.104
33420SOL    HW1 2157  12.750   1.974   1.028
33420SOL    HW2 2158  12.768   2.017   1.172
33421SOL     OW 2159   8.775   8.267   4.154
33421SOL    HW1 2160   8.770   8.355   4.116
33421SOL    HW2 2161   8.750   8.280   4.246
33422SOL     OW 2162  10.465   0.545   6.405
33422SOL    HW1 2163  10.507   0.602   6.469
33422SOL    HW2 2164  10.529   0.474   6.391
33423SOL     OW 2165   4.778   0.171   7.644
33423SOL    HW1 2166   4.824   0.161   7.728
33423SOL    HW2 2167   4.776   0.265   7.629
33424SOL     OW 2168  14.726  11.435  12.599
33424SOL    HW1 2169  14.780  11.388  12.663
33424SOL    HW2 2170  14.745  11.391  12.516
33425SOL     OW 2171   1.425   3.711  10.931
33425SOL    HW1 2172   1.513   3.695  10.964
33425SOL    HW2 2173   1.434   3.712  10.835
33426SOL     OW 2174   8.100   3.000   2.190
33426SOL    HW1 2175   8.051   3.001   2.108
33426SOL    HW2 2176   8.175   2.942   2.173
33427SOL     OW 2177  13.037  12.485   5.426
33427SOL    HW1 2178  12.978  12.547   5.469
33427SOL    HW2 2179  12.978  12.420   5.388
33428SOL     OW 2180  12.189   6.326   6.842
33428SOL    HW1 2181  12.115   6.273   6.873
33428SOL    HW2 2182  12.248   6.330   6.916
33429SOL     OW 2183   5.056   9.741  12.721
33429SOL    HW1 2184   5.115   9.800  12.674
33429SOL    HW2 2185   5.016   9.687  12.652
33430SOL     OW 2186  12.153  11.482   4.588
33430SOL    HW1 2187  12.137  11.530   4.670
33430SOL    HW2 2188  12.221  11.532   4.544
33431SOL     OW 2189   9.763   1.982  10.041
33431SOL    HW1 2190   9.722   1.949   9.961
33431SOL    HW2 2191   9.762   2.078  10.030
33432SOL     OW 2192  12.476  14.450   9.931
33432SOL    HW1 2193  12.407  14.490   9.984
33432SOL    HW2 2194  12.510  14.522   9.877
33433SOL     OW 2195  11.430   5.957   3.505
33433SOL    HW1 2196  11.360   5.892   3.497
33433SOL    HW2 2197  11.386   6.041   3.491
33434SOL     OW 2198  11.899   1.625   4.188
33434SOL    HW1 2199  11.862   1.544   4.221
33434SOL    HW2 2200  11.889   1.687   4.261
33435SOL     OW 2201   6.994   7.350   1.356
33435SOL    HW1 2202   7.059   7.329   1.289
33435SOL    HW2 2203   6.985   7.270   1.407
33436SOL     OW 2204   3.862   9.987  10.358
33436SOL    HW1 2205   3.809   9.927  10.304
33436SOL    HW2 2206   3.948   9.987  10.317
33437SOL     OW 2207  11.425   3.978   6.125
33437SOL    HW1 2208  11.514   3.944   6.113
33437SOL    HW2 2209  11.371   3.925   6.067
33438SOL     OW 2210   1.484  10.543   3.424
33438SOL    HW1 2211   1.402  10.516   3.382
33438SOL    HW2 2212   1.490  10.637   3.406
33439SOL     OW 2213   4.670   1.227   3.703
33439SOL    HW1 2214   4.639   1.258   3.788
33439SOL    HW2 2215   4.762   1.205   3.718
33440SOL     OW 2216  10.164   1.374   6.364
33440SOL    HW1 2217  10.171   1.443   6.429
33440SOL    HW2 2218  10.111   1.306   6.405
33441SOL     OW 2219   6.487  12.420  12.494
33441SOL    HW1 2220   6.524  12.335  12.518
33441SOL    HW2 2221   6.544  12.484  12.537
33442SOL     OW 2222   9.214   8.491   1.301
33442SOL    HW1 2223   9.172   8.536   1.375
33442SOL    HW2 2224   9.146   8.435   1.265
33443SOL     OW 2225  13.208   5.113   4.628
33443SOL    HW1 2226  13.226   5.073   4.544
33443SOL    HW2 2227  13.287   5.164   4.647
33444SOL     OW 2228  13.904   9.775  10.058
33444SOL    HW1 2229  13.989   9.756  10.018
33444SOL    HW2 2230  13.846   9.792   9.984
33445SOL     OW 2231   9.032   3.237  11.359
33445SOL    HW1 2232   9.095   3.284  11.305
33445SOL    HW2 2233   9.023   3.290  11.438
33446SOL     OW 2234   4.521   7.464  10.562
33446SOL    HW1 2235   4.510   7.413  10.482
33446SOL    HW2 2236   4.451   7.434  10.620
33447SOL     OW 2237  11.699   3.983  12.555
33447SOL    HW1 2238  11.686   3.896  12.517
33447SOL    HW2 2239  11.686   3.970  12.649
33448SOL     OW 2240   4.144   6.076  14.772
33448SOL    HW1 2241   4.228   6.102  14.733
33448SOL    HW2 2242   4.163   6.067  14.865
33449SOL     OW 2243   6.260  14.662   6.664
33449SOL    HW1 2244   6.251  14.655   6.759
33449SOL    HW2 2245   6.175  14.695   6.634
33450SOL     OW 2246   1.341   3.466   1.759
33450SOL    HW1 2247   1.299   3.438   1.841
33450SOL    HW2 2248   1.341   3.562   1.764
33451SOL     OW 2249  13.786  11.334   7.247
33451SOL    HW1 2250  13.709  11.390   7.234
33451SOL    HW2 2251  13.768  11.257   7.193
33452SOL     OW 2252  10.245   2.501  10.535
33452SOL    HW1 2253  10.181   2.572  10.537
33452SOL    HW2 2254  10.296   2.517  10.456
33453SOL     OW 2255   2.548  13.770   7.175
33453SOL    HW1 2256   2.555  13.835   7.105
33453SOL    HW2 2257   2.515  13.819   7.251
33454SOL     OW 2258   9.234  10.911   6.458
33454SOL    HW1 2259   9.218  10.851   6.531
33454SOL    HW2 2260   9.163  10.976   6.465
33455SOL     OW 2261   2.718   2.722   2.826
33455SOL    HW1 2262   2.672   2.639   2.837
33455SOL    HW2 2263   2.785   2.704   2.760
33456SOL     OW 2264   2.431  11.559   1.431
33456SOL    HW1 2265   2.394  11.473   1.413
33456SOL    HW2 2266   2.521  11.554   1.397
33457SOL     OW 2267   4.759   4.388   3.692
33457SOL    HW1 2268   4.689   4.350   3.639
33457SOL    HW2 2269   4.812   4.438   3.630
33458SOL     OW 2270  11.069   4.043  13.155
33458SOL    HW1 2271  11.092   4.046  13.062
33458SOL    HW2 2272  11.129   4.105  13.196
33459SOL     OW 2273  13.668   6.649   1.353
33459SOL    HW1 2274  13.608   6.722   1.363
33459SOL    HW2 2275  13.708   6.638   1.439
33460SOL     OW 2276  13.701   8.098  12.452
33460SOL    HW1 2277  13.626   8.157  12.448
33460SOL    HW2 2278  13.691   8.041  12.375
33461SOL     OW 2279   4.031   5.917  12.543
33461SOL    HW1 2280   4.083   5.838  12.530
33461SOL    HW2 2281   3.941   5.886  12.552
33462SOL     OW 2282  13.702   8.259   6.487
33462SOL    HW1 2283  13.719   8.349   6.460
33462SOL    HW2 2284  13.743   8.205   6.419
33463SOL     OW 2285   4.696   3.933   9.898
33463SOL    HW1 2286   4.759   3.869   9.864
33463SOL    HW2 2287   4.747   3.984   9.962
33464SOL     OW 2288  10.286   5.200   5.680
33464SOL    HW1 2289  10.359   5.184   5.740
33464SOL    HW2 2290  10.208   5.181   5.732
33465SOL     OW 2291   5.989   8.371  14.722
33465SOL    HW1 2292   5.996   8.454  14.768
33465SOL    HW2 2293   5.996   8.305  14.791
33466SOL     OW 2294   4.850   4.899   2.295
33466SOL    HW1 2295   4.911   4.936   2.231
33466SOL    HW2 2296   4.907   4.873   2.368
33467SOL     OW 2297   7.782   3.010   8.229
33467SOL    HW1 2298   7.687   3.013   8.217
33467SOL    HW2 2299   7.814   2.965   8.151
33468SOL     OW 2300   2.274   7.533  13.568
33468SOL    HW1 2301   2.320   7.558  13.487
33468SOL    HW2 2302   2.221   7.610  13.590
33469SOL     OW 2303   5.834   3.668   1.303
33469SOL    HW1 2304   5.839   3.580   1.266
33469SOL    HW2 2305   5.800   3.722   1.232
33470SOL     OW 2306   4.814   9.343   1.750
33470SOL    HW1 2307   4.793   9.259   1.709
33470SOL    HW2 2308   4.820   9.405   1.677
33471SOL     OW 2309  10.340   8.900  11.425
33471SOL    HW1 2310  10.295   8.984  11.415
33471SOL    HW2 2311  10.390   8.909  11.506
33472SOL     OW 2312   1.365  13.862  10.130
33472SOL    HW1 2313   1.399  13.950  10.118
33472SOL    HW2 2314   1.439  13.812  10.164
33473SOL     OW 2315   2.279   5.512   1.523
33473SOL    HW1 2316   2.339   5.475   1.588
33473SOL    HW2 2317   2.226   5.574   1.573
33474SOL     OW 2318   9.150   3.008   7.605
33474SOL    HW1 2319   9.212   3.077   7.579
33474SOL    HW2 2320   9.206   2.936   7.635
33475SOL     OW 2321   6.239  14.113   3.380
33475SOL    HW1 2322   6.202  14.053   3.315
33475SOL    HW2 2323   6.219  14.072   3.464
33476SOL     OW 2324   1.105   4.251   9.728
33476SOL    HW1 2325   1.157   4.175   9.753
33476SOL    HW2 2326   1.152   4.325   9.766
33477SOL     OW 2327   8.878  12.971   7.523
33477SOL    HW1 2328   8.948  12.923   7.568
33477SOL    HW2 2329   8.813  12.904   7.503
33478SOL     OW 2330   8.533   1.872  12.808
33478SOL    HW1 2331   8.474   1.831  12.745
33478SOL    HW2 2332   8.612   1.819  12.806
33479SOL     OW 2333  10.375   4.739   0.277
33479SOL    HW1 2334  10.417   4.654   0.271
33479SOL    HW2 2335  10.435   4.792   0.329
33480SOL     OW 2336   6.222  10.298   8.091
33480SOL    HW1 2337   6.273  10.282   8.171
33480SOL    HW2 2338   6.147  10.348   8.121
33481SOL     OW 2339   1.369  10.987   3.990
33481SOL    HW1 2340   1.390  10.900   4.023
33481SOL    HW2 2341   1.403  11.047   4.056
33482SOL     OW 2342   5.907  13.253   6.501
33482SOL    HW1 2343   5.812  13.240   6.500
33482SOL    HW2 2344   5.941  13.180   6.449
33483SOL     OW 2345   4.931  13.685   2.801
33483SOL    HW1 2346   4.982  13.658   2.877
33483SOL    HW2 2347   4.971  13.768   2.774
33484SOL     OW 2348  14.857   5.267  13.893
33484SOL    HW1 2349   0.031   5.250  13.817
33484SOL    HW2 2350   0.004   5.204  13.958
33485SOL     OW 2351   6.389  14.084   5.881
33485SOL    HW1 2352   6.420  14.101   5.970
33485SOL    HW2 2353   6.331  14.008   5.890
33486SOL     OW 2354   0.423   4.767   5.501
33486SOL    HW1 2355   0.418   4.824   5.578
33486SOL    HW2 2356   0.364   4.809   5.437
33487SOL     OW 2357   9.436  11.318   7.726
33487SOL    HW1 2358   9.432  11.223   7.711
33487SOL    HW2 2359   9.506  11.329   7.790
33488SOL     OW 2360   5.708   2.785  12.576
33488SOL    HW1 2361   5.752   2.716  12.625
33488SOL    HW2 2362   5.655   2.738  12.511
33489SOL     OW 2363   6.354   3.449  10.033
33489SOL    HW1 2364   6.286   3.385  10.056
33489SOL    HW2 2365   6.320   3.532  10.066
33490SOL     OW 2366   9.004   3.096   8.535
33490SOL    HW1 2367   9.020   3.010   8.496
33490SOL    HW2 2368   9.087   3.142   8.525
33491SOL     OW 2369   9.684   4.723   5.065
33491SOL    HW1 2370   9.761   4.757   5.111
33491SOL    HW2 2371   9.671   4.783   4.992
33492SOL     OW 2372   4.852   7.985  12.852
33492SOL    HW1 2373   4.908   7.918  12.890
33492SOL    HW2 2374   4.800   7.939  12.787
33493SOL     OW 2375  14.743  14.148   8.386
33493SOL    HW1 2376  14.649  14.162   8.375
33493SOL    HW2 2377  14.769  14.097   8.309
33494SOL     OW 2378   1.785  14.147   6.794
33494SOL    HW1 2379   1.769  14.241   6.798
33494SOL    HW2 2380   1.860  14.133   6.852
33495SOL     OW 2381   8.573   3.910   1.827
33495SOL    HW1 2382   8.602   3.913   1.918
33495SOL    HW2 2383   8.654   3.919   1.776
33496SOL     OW 2384   8.814   0.334   2.037
33496SOL    HW1 2385   8.899   0.318   2.077
33496SOL    HW2 2386   8.762   0.375   2.107
33497SOL     OW 2387   3.887   9.288  10.196
33497SOL    HW1 2388   3.830   9.336  10.137
33497SOL    HW2 2389   3.966   9.271  10.145
33498SOL     OW 2390   2.956   2.760  12.724
33498SOL    HW1 2391   2.915   2.786  12.807
33498SOL    HW2 2392   3.049   2.763  12.743
33499SOL     OW 2393   1.994   1.063  11.570
33499SOL    HW1 2394   1.953   1.015  11.498
33499SOL    HW2 2395   2.005   1.152  11.537
33500SOL     OW 2396   9.288  13.741   4.764
33500SOL    HW1 2397   9.363  13.742   4.823
33500SOL    HW2 2398   9.326  13.734   4.677
33501SOL     OW 2399  10.687  10.419   5.712
33501SOL    HW1 2400  10.594  10.441   5.703
33501SOL    HW2 2401  10.726  10.444   5.628
33502SOL     OW 2402   5.728  13.827   8.786
33502SOL    HW1 2403   5.719  13.733   8.802
33502SOL    HW2 2404   5.750  13.865   8.871
33503SOL     OW 2405   4.563   5.959   2.323
33503SOL    HW1 2406   4.650   5.931   2.292
33503SOL    HW2 2407   4.529   6.012   2.251
33504SOL     OW 2408   6.514  12.034  14.641
33504SOL    HW1 2409   6.426  12.033  14.603
33504SOL    HW2 2410   6.500  12.012  14.734
33505SOL     OW 2411   1.189   4.349   4.683
33505SOL    HW1 2412   1.187   4.314   4.594
33505SOL    HW2 2413   1.098   4.347   4.712
33506SOL     OW 2414   8.279   5.885   1.158
33506SOL    HW1 2415   8.243   5.876   1.246
33506SOL    HW2 2416   8.237   5.816   1.107
33507SOL     OW 2417  10.617  11.472  11.680
33507SOL    HW1 2418  10.561  11.395  11.692
33507SOL    HW2 2419  10.665  11.454  11.599
33508SOL     OW 2420   6.218  14.543   9.188
33508SOL    HW1 2421   6.243  14.584   9.271
33508SOL    HW2 2422   6.275  14.584   9.123
33509SOL     OW 2423   1.586  11.749  14.739
33509SOL    HW1 2424   1.531  11.763  14.816
33509SOL    HW2 2425   1.675  11.747  14.774
33510SOL     OW 2426   8.641  11.250  10.318
33510SOL    HW1 2427   8.561  11.246  10.267
33510SOL    HW2 2428   8.613  11.281  10.405
33511SOL     OW 2429  14.078   2.462  12.501
33511SOL    HW1 2430  14.099   2.403  12.428
33511SOL    HW2 2431  14.084   2.549  12.463
33512SOL     OW 2432   9.941   7.926  11.193
33512SOL    HW1 2433  10.016   7.918  11.134
33512SOL    HW2 2434   9.928   8.021  11.202
33513SOL     OW 2435   0.657  11.575  13.625
33513SOL    HW1 2436   0.605  11.639  13.576
33513SOL    HW2 2437   0.592  11.523  13.672
33514SOL     OW 2438   2.192  11.210  11.375
33514SOL    HW1 2439   2.162  11.152  11.446
33514SOL    HW2 2440   2.175  11.161  11.295
33515SOL     OW 2441  11.270  14.783  14.176
33515SOL    HW1 2442  11.234  14.832  14.102
33515SOL    HW2 2443  11.195  14.737  14.213
33516SOL     OW 2444   4.921  13.848   3.180
33516SOL    HW1 2445   4.831  13.857   3.149
33516SOL    HW2 2446   4.974  13.857   3.101
33517SOL     OW 2447   1.128  12.853   0.967
33517SOL    HW1 2448   1.130  12.945   0.996
33517SOL    HW2 2449   1.050  12.817   1.009
33518SOL     OW 2450  12.114  10.502   2.764
33518SOL    HW1 2451  12.096  10.456   2.846
33518SOL    HW2 2452  12.130  10.593   2.791
33519SOL     OW 2453   7.784   6.584   3.780
33519SOL    HW1 2454   7.727   6.660   3.774
33519SOL    HW2 2455   7.850   6.609   3.844
33520SOL     OW 2456   7.508  13.745   2.782
33520SOL    HW1 2457   7.527  13.751   2.876
33520SOL    HW2 2458   7.507  13.652   2.764
33521SOL     OW 2459   6.951   0.213   9.254
33521SOL    HW1 2460   6.981   0.197   9.165
33521SOL    HW2 2461   6.970   0.131   9.301
33522SOL     OW 2462   1.430  13.416  13.919
33522SOL    HW1 2463   1.369  13.378  13.855
33522SOL    HW2 2464   1.470  13.490  13.873
33523SOL     OW 2465   2.617   6.705   3.386
33523SOL    HW1 2466   2.544   6.659   3.345
33523SOL    HW2 2467   2.586   6.723   3.475
33524SOL     OW 2468  11.181  13.664   7.965
33524SOL    HW1 2469  11.197  13.596   7.900
33524SOL    HW2 2470  11.245  13.733   7.944
33525SOL     OW 2471   0.455   7.408   7.030
33525SOL    HW1 2472   0.399   7.335   7.056
33525SOL    HW2 2473   0.534   7.366   6.995
33526SOL     OW 2474  10.676   8.713  11.383
33526SOL    HW1 2475  10.596   8.680  11.341
33526SOL    HW2 2476  10.747   8.675  11.332
33527SOL     OW 2477  13.748   6.685  14.121
33527SOL    HW1 2478  13.719   6.771  14.151
33527SOL    HW2 2479  13.683   6.624  14.156
33528SOL     OW 2480   5.277   9.263  11.957
33528SOL    HW1 2481   5.249   9.206  12.029
33528SOL    HW2 2482   5.345   9.319  11.995
33529SOL     OW 2483   4.536   0.834  10.554
33529SOL    HW1 2484   4.509   0.803  10.641
33529SOL    HW2 2485   4.553   0.927  10.566
33530SOL     OW 2486   5.237   8.861  11.637
33530SOL    HW1 2487   5.207   8.774  11.665
33530SOL    HW2 2488   5.157   8.908  11.614
33531SOL     OW 2489   9.710  10.181   1.553
33531SOL    HW1 2490   9.642  10.228   1.506
33531SOL    HW2 2491   9.677  10.091   1.561
33532SOL     OW 2492   3.462   7.217  14.274
33532SOL    HW1 2493   3.444   7.123  14.261
33532SOL    HW2 2494   3.436   7.234  14.365
33533SOL     OW 2495  11.014   9.708  10.241
33533SOL    HW1 2496  11.101   9.693  10.203
33533SOL    HW2 2497  11.027   9.698  10.336
33534SOL     OW 2498   8.139   5.574  11.860
33534SOL    HW1 2499   8.139   5.575  11.764
33534SOL    HW2 2500   8.140   5.666  11.885
33535SOL     OW 2501   5.013   6.066  14.255
33535SOL    HW1 2502   4.993   6.127  14.326
33535SOL    HW2 2503   5.101   6.034  14.275
33536SOL     OW 2504   8.995   3.028   2.727
33536SOL    HW1 2505   9.052   3.077   2.668
33536SOL    HW2 2506   9.030   2.939   2.726
33537SOL     OW 2507   5.056   5.613   0.269
33537SOL    HW1 2508   5.004   5.682   0.309
33537SOL    HW2 2509   5.144   5.650   0.262
33538SOL     OW 2510   2.509  12.015   7.223
33538SOL    HW1 2511   2.460  12.023   7.141
33538SOL    HW2 2512   2.577  12.082   7.216
33539SOL     OW 2513   1.667  12.944  11.383
33539SOL    HW1 2514   1.680  12.870  11.323
33539SOL    HW2 2515   1.578  12.934  11.415
33540SOL     OW 2516  14.814   7.790  11.380
33540SOL    HW1 2517  14.814   7.770  11.474
33540SOL    HW2 2518  14.730   7.834  11.365
33541SOL     OW 2519   1.901   8.681   4.011
33541SOL    HW1 2520   1.811   8.699   4.039
33541SOL    HW2 2521   1.921   8.596   4.049
33542SOL     OW 2522  10.336   8.076   4.716
33542SOL    HW1 2523  10.266   8.015   4.692
33542SOL    HW2 2524  10.313   8.158   4.673
33543SOL     OW 2525  10.049   7.869   8.948
33543SOL    HW1 2526  10.039   7.906   8.860
33543SOL    HW2 2527   9.977   7.908   8.998
33544SOL     OW 2528   2.814  10.622   0.646
33544SOL    HW1 2529   2.888  10.581   0.691
33544SOL    HW2 2530   2.846  10.640   0.558
33545SOL     OW 2531   3.665   9.277   6.193
33545SOL    HW1 2532   3.748   9.240   6.223
33545SOL    HW2 2533   3.625   9.314   6.272
33546SOL     OW 2534   0.507   1.904   9.517
33546SOL    HW1 2535   0.482   1.990   9.483
33546SOL    HW2 2536   0.519   1.918   9.611
33547SOL     OW 2537  11.436   9.938   0.965
33547SOL    HW1 2538  11.503   9.913   0.901
33547SOL    HW2 2539  11.444  10.034   0.972
33548SOL     OW 2540   7.471  14.828   8.327
33548SOL    HW1 2541   7.518  14.791   8.253
33548SOL    HW2 2542   7.412  14.758   8.356
33549SOL     OW 2543   6.593   8.269   2.696
33549SOL    HW1 2544   6.679   8.227   2.699
33549SOL    HW2 2545   6.530   8.197   2.694
33550SOL     OW 2546  12.960   3.681  10.743
33550SOL    HW1 2547  13.000   3.715  10.663
33550SOL    HW2 2548  13.032   3.672  10.805
33551SOL     OW 2549   3.451   7.037  13.777
33551SOL    HW1 2550   3.377   7.006  13.724
33551SOL    HW2 2551   3.527   6.995  13.740
33552SOL     OW 2552  12.455  13.663   8.323
33552SOL    HW1 2553  12.372  13.635   8.363
33552SOL    HW2 2554  12.466  13.753   8.352
33553SOL     OW 2555  10.379   5.679  10.543
33553SOL    HW1 2556  10.378   5.716  10.631
33553SOL    HW2 2557  10.423   5.594  10.553
33554SOL     OW 2558   3.089   0.724  13.577
33554SOL    HW1 2559   2.993   0.727  13.570
33554SOL    HW2 2560   3.106   0.664  13.650
33555SOL     OW 2561  10.269   2.225   9.935
33555SOL    HW1 2562  10.320   2.145   9.924
33555SOL    HW2 2563  10.189   2.210   9.884
33556SOL     OW 2564   3.250  11.821   2.829
33556SOL    HW1 2565   3.262  11.836   2.923
33556SOL    HW2 2566   3.163  11.857   2.811
33557SOL     OW 2567  14.638   2.668   5.275
33557SOL    HW1 2568  14.649   2.760   5.247
33557SOL    HW2 2569  14.677   2.665   5.362
33558SOL     OW 2570   7.957   6.309  11.222
33558SOL    HW1 2571   8.038   6.264  11.248
33558SOL    HW2 2572   7.899   6.239  11.194
33559SOL     OW 2573   8.258   6.912   1.391
33559SOL    HW1 2574   8.173   6.873   1.412
33559SOL    HW2 2575   8.237   7.002   1.363
33560SOL     OW 2576   4.854  13.662   9.113
33560SOL    HW1 2577   4.773  13.714   9.107
33560SOL    HW2 2578   4.922  13.718   9.076
33561SOL     OW 2579  10.068   1.526   4.912
33561SOL    HW1 2580   9.976   1.499   4.914
33561SOL    HW2 2581  10.065   1.620   4.927
33562SOL     OW 2582  12.913   4.573   3.950
33562SOL    HW1 2583  13.003   4.564   3.981
33562SOL    HW2 2584  12.900   4.496   3.895
33563SOL     OW 2585  12.897   7.900   1.497
33563SOL    HW1 2586  12.849   7.830   1.454
33563SOL    HW2 2587  12.865   7.980   1.456
33564SOL     OW 2588   9.485  10.801   3.401
33564SOL    HW1 2589   9.413  10.808   3.337
33564SOL    HW2 2590   9.563  10.788   3.347
33565SOL     OW 2591   4.923   4.008  11.915
33565SOL    HW1 2592   4.864   3.954  11.863
33565SOL    HW2 2593   5.010   3.969  11.900
33566SOL     OW 2594   2.237   5.278   4.012
33566SOL    HW1 2595   2.151   5.301   4.048
33566SOL    HW2 2596   2.238   5.182   4.011
33567SOL     OW 2597   9.600   4.702   5.357
33567SOL    HW1 2598   9.672   4.706   5.420
33567SOL    HW2 2599   9.641   4.723   5.273
33568SOL     OW 2600   9.558   6.660   1.829
33568SOL    HW1 2601   9.476   6.697   1.797
33568SOL    HW2 2602   9.626   6.718   1.795
33569SOL     OW 2603   6.897   1.080   3.278
33569SOL    HW1 2604   6.824   1.061   3.218
33569SOL    HW2 2605   6.868   1.045   3.363
33570SOL     OW 2606   1.231   9.698   1.975
33570SOL    HW1 2607   1.282   9.624   2.007
33570SOL    HW2 2608   1.280   9.730   1.899
33571SOL     OW 2609  12.762   6.098   5.422
33571SOL    HW1 2610  12.703   6.146   5.481
33571SOL    HW2 2611  12.760   6.008   5.454
33572SOL     OW 2612   9.079  13.081   5.915
33572SOL    HW1 2613   9.013  13.108   5.979
33572SOL    HW2 2614   9.029  13.032   5.849
33573SOL     OW 2615   1.519  13.084   1.765
33573SOL    HW1 2616   1.525  13.020   1.695
33573SOL    HW2 2617   1.501  13.167   1.721
33574SOL     OW 2618   6.137   5.137   0.494
33574SOL    HW1 2619   6.103   5.052   0.465
33574SOL    HW2 2620   6.090   5.201   0.441
33575SOL     OW 2621   8.662   3.247   1.312
33575SOL    HW1 2622   8.745   3.200   1.325
33575SOL    HW2 2623   8.677   3.333   1.351
33576SOL     OW 2624   3.183   5.118  11.251
33576SOL    HW1 2625   3.259   5.064  11.233
33576SOL    HW2 2626   3.180   5.181  11.179
33577SOL     OW 2627   1.686   8.227  10.886
33577SOL    HW1 2628   1.766   8.235  10.835
33577SOL    HW2 2629   1.716   8.221  10.977
33578SOL     OW 2630   5.855  11.012   5.053
33578SOL    HW1 2631   5.859  11.007   4.957
33578SOL    HW2 2632   5.929  11.067   5.077
33579SOL     OW 2633   7.546  12.263   0.434
33579SOL    HW1 2634   7.597  12.188   0.403
33579SOL    HW2 2635   7.547  12.256   0.530
33580SOL     OW 2636   3.734   6.469   9.914
33580SOL    HW1 2637   3.818   6.428   9.895
33580SOL    HW2 2638   3.755   6.538   9.977
33581SOL     OW 2639   2.172  12.602   6.071
33581SOL    HW1 2640   2.108  12.542   6.031
33581SOL    HW2 2641   2.254  12.584   6.026
33582SOL     OW 2642   3.702  12.762   6.675
33582SOL    HW1 2643   3.686  12.846   6.632
33582SOL    HW2 2644   3.640  12.760   6.748
33583SOL     OW 2645   2.981   2.295  12.376
33583SOL    HW1 2646   3.060   2.341  12.348
33583SOL    HW2 2647   3.013   2.231  12.440
33584SOL     OW 2648   9.588   6.787   1.506
33584SOL    HW1 2649   9.667   6.801   1.559
33584SOL    HW2 2650   9.612   6.717   1.445
33585SOL     OW 2651   9.349   8.652   4.528
33585SOL    HW1 2652   9.417   8.719   4.535
33585SOL    HW2 2653   9.384   8.578   4.577
33586SOL     OW 2654   8.826   1.254   7.314
33586SOL    HW1 2655   8.757   1.237   7.378
33586SOL    HW2 2656   8.875   1.328   7.351
33587SOL     OW 2657  13.778  10.777   9.026
33587SOL    HW1 2658  13.715  10.826   9.077
33587SOL    HW2 2659  13.734  10.694   9.005
33588SOL     OW 2660   4.988   5.582  13.068
33588SOL    HW1 2661   4.925   5.654  13.077
33588SOL    HW2 2662   5.033   5.579  13.153
33589SOL     OW 2663   2.213   8.300  14.286
33589SOL    HW1 2664   2.170   8.330  14.366
33589SOL    HW2 2665   2.216   8.377  14.229
33590SOL     OW 2666  13.110  14.712   2.286
33590SOL    HW1 2667  13.045  14.702   2.356
33590SOL    HW2 2668  13.125  14.806   2.281
33591SOL     OW 2669  10.424  12.505   5.146
33591SOL    HW1 2670  10.451  12.430   5.093
33591SOL    HW2 2671  10.339  12.480   5.182
33592SOL     OW 2672  11.929   8.940   7.549
33592SOL    HW1 2673  11.926   8.850   7.582
33592SOL    HW2 2674  12.015   8.946   7.505
33593SOL     OW 2675  10.599   2.508   1.517
33593SOL    HW1 2676  10.646   2.471   1.592
33593SOL    HW2 2677  10.613   2.445   1.446
33594SOL     OW 2678   3.054   9.598   0.687
33594SOL    HW1 2679   3.018   9.649   0.614
33594SOL    HW2 2680   3.133   9.558   0.652
33595SOL     OW 2681   5.970   7.625   2.339
33595SOL    HW1 2682   5.948   7.652   2.428
33595SOL    HW2 2683   6.065   7.615   2.339
33596SOL     OW 2684  14.745  14.075   6.770
33596SOL    HW1 2685  14.730  14.085   6.676
33596SOL    HW2 2686  14.658  14.056   6.806
33597SOL     OW 2687  13.118   5.937   4.512
33597SOL    HW1 2688  13.133   6.022   4.554
33597SOL    HW2 2689  13.079   5.959   4.428
33598SOL     OW 2690  10.214  10.654  14.150
33598SOL    HW1 2691  10.169  10.721  14.099
33598SOL    HW2 2692  10.159  10.641  14.227
33599SOL     OW 2693   8.033   6.180  11.651
33599SOL    HW1 2694   8.095   6.144  11.715
33599SOL    HW2 2695   8.050   6.130  11.571
33600SOL     OW 2696   4.708  10.386   4.053
33600SOL    HW1 2697   4.631  10.406   3.999
33600SOL    HW2 2698   4.673  10.345   4.131
33601SOL     OW 2699   9.625   9.946   1.492
33601SOL    HW1 2700   9.686   9.957   1.419
33601SOL    HW2 2701   9.596   9.856   1.486
33602SOL     OW 2702  12.033  13.676   8.594
33602SOL    HW1 2703  11.978  13.689   8.671
33602SOL    HW2 2704  11.974  13.639   8.529
33603SOL     OW 2705  10.613   2.783  12.964
33603SOL    HW1 2706  10.641   2.704  13.011
33603SOL    HW2 2707  10.681   2.847  12.982
33604SOL     OW 2708  11.140   3.537  10.490
33604SOL    HW1 2709  11.094   3.501  10.565
33604SOL    HW2 2710  11.158   3.628  10.514
33605SOL     OW 2711  12.933  13.470   4.918
33605SOL    HW1 2712  12.965  13.472   4.827
33605SOL    HW2 2713  12.856  13.414   4.915
33606SOL     OW 2714   2.098   8.443  11.840
33606SOL    HW1 2715   2.134   8.512  11.784
33606SOL    HW2 2716   2.120   8.362  11.794
33607SOL     OW 2717  13.224   9.928  14.540
33607SOL    HW1 2718  13.202   9.841  14.508
33607SOL    HW2 2719  13.248   9.977  14.461
33608SOL     OW 2720   9.143   0.695   9.096
33608SOL    HW1 2721   9.137   0.676   9.003
33608SOL    HW2 2722   9.064   0.746   9.116
33609SOL     OW 2723   9.940   5.673  10.098
33609SOL    HW1 2724   9.884   5.747  10.120
33609SOL    HW2 2725  10.026   5.712  10.081
33610SOL     OW 2726   8.999  11.500   5.652
33610SOL    HW1 2727   9.034  11.512   5.564
33610SOL    HW2 2728   9.071  11.524   5.710
33611SOL     OW 2729   9.370   5.046   8.168
33611SOL    HW1 2730   9.329   4.978   8.115
33611SOL    HW2 2731   9.337   5.031   8.257
33612SOL     OW 2732   0.761   5.302   3.916
33612SOL    HW1 2733   0.681   5.293   3.865
33612SOL    HW2 2734   0.815   5.363   3.866
33613SOL     OW 2735   3.650   3.532   7.932
33613SOL    HW1 2736   3.577   3.594   7.935
33613SOL    HW2 2737   3.721   3.576   7.980
33614SOL     OW 2738  13.973  12.421  10.646
33614SOL    HW1 2739  13.880  12.403  10.631
33614SOL    HW2 2740  14.013  12.334  10.650
33615SOL     OW 2741   1.147  12.180   7.138
33615SOL    HW1 2742   1.181  12.252   7.192
33615SOL    HW2 2743   1.064  12.156   7.180
33616SOL     OW 2744  12.667   8.063   5.536
33616SOL    HW1 2745  12.664   8.063   5.440
33616SOL    HW2 2746  12.760   8.052   5.557
33617SOL     OW 2747   2.297   3.599   3.582
33617SOL    HW1 2748   2.290   3.546   3.662
33617SOL    HW2 2749   2.366   3.662   3.601
33618SOL     OW 2750   8.207  10.428   1.255
33618SOL    HW1 2751   8.151  10.484   1.308
33618SOL    HW2 2752   8.246  10.487   1.191
33619SOL     OW 2753   1.245  11.588  10.311
33619SOL    HW1 2754   1.338  11.580  10.290
33619SOL    HW2 2755   1.211  11.499  10.304
33620SOL     OW 2756   3.665   6.184  11.154
33620SOL    HW1 2757   3.720   6.252  11.193
33620SOL    HW2 2758   3.608   6.156  11.225
33621SOL     OW 2759  10.367  10.952   3.951
33621SOL    HW1 2760  10.297  10.980   3.893
33621SOL    HW2 2761  10.418  11.032   3.967
33622SOL     OW 2762   7.519   5.580  12.956
33622SOL    HW1 2763   7.486   5.533  12.880
33622SOL    HW2 2764   7.475   5.665  12.953
33623SOL     OW 2765   5.305   4.196  13.980
33623SOL    HW1 2766   5.261   4.240  13.907
33623SOL    HW2 2767   5.248   4.121  14.000
33624SOL     OW 2768   2.448   2.938   6.299
33624SOL    HW1 2769   2.525   2.888   6.328
33624SOL    HW2 2770   2.484   3.021   6.267
33625SOL     OW 2771   6.835  10.434   5.562
33625SOL    HW1 2772   6.864  10.389   5.483
33625SOL    HW2 2773   6.792  10.366   5.614
33626SOL     OW 2774   6.267   0.932   0.339
33626SOL    HW1 2775   6.187   0.879   0.342
33626SOL    HW2 2776   6.336   0.869   0.318
33627SOL     OW 2777  12.352   1.326   9.956
33627SOL    HW1 2778  12.428   1.352  10.008
33627SOL    HW2 2779  12.290   1.398   9.966
33628SOL     OW 2780  11.910   9.168   9.356
33628SOL    HW1 2781  11.913   9.246   9.411
33628SOL    HW2 2782  11.821   9.134   9.365
33629SOL     OW 2783   1.336  12.252  11.748
33629SOL    HW1 2784   1.429  12.229  11.738
33629SOL    HW2 2785   1.329  12.281  11.838
33630SOL     OW 2786   6.885  12.478   6.475
33630SOL    HW1 2787   6.874  12.449   6.565
33630SOL    HW2 2788   6.954  12.422   6.440
33631SOL     OW 2789   4.296   2.713   4.531
33631SOL    HW1 2790   4.250   2.791   4.501
33631SOL    HW2 2791   4.381   2.716   4.488
33632SOL     OW 2792   1.142   7.565   2.967
33632SOL    HW1 2793   1.102   7.639   3.014
33632SOL    HW2 2794   1.236   7.579   2.977
33633SOL     OW 2795   2.547   0.341  11.533
33633SOL    HW1 2796   2.597   0.367  11.610
33633SOL    HW2 2797   2.567   0.248  11.522
33634SOL     OW 2798  11.857  11.664   7.394
33634SOL    HW1 2799  11.824  11.693   7.479
33634SOL    HW2 2800  11.870  11.570   7.403
33635SOL     OW 2801  12.644  10.175   2.092
33635SOL    HW1 2802  12.616  10.105   2.151
33635SOL    HW2 2803  12.572  10.238   2.093
33636SOL     OW 2804   8.075  11.485   6.768
33636SOL    HW1 2805   8.025  11.567   6.760
33636SOL    HW2 2806   8.021  11.429   6.824
33637SOL     OW 2807   2.135  13.312  12.144
33637SOL    HW1 2808   2.172  13.236  12.099
33637SOL    HW2 2809   2.207  13.375  12.147
33638SOL     OW 2810  14.640   0.251   9.899
33638SOL    HW1 2811  14.726   0.215   9.921
33638SOL    HW2 2812  14.659   0.324   9.841
33639SOL     OW 2813  14.881   8.285   7.581
33639SOL    HW1 2814  14.818   8.302   7.511
33639SOL    HW2 2815   0.084   8.307   7.543
33640SOL     OW 2816   5.456   7.811   8.112
33640SOL    HW1 2817   5.446   7.892   8.163
33640SOL    HW2 2818   5.387   7.816   8.046
33641SOL     OW 2819   6.551   5.238  10.947
33641SOL    HW1 2820   6.457   5.243  10.965
33641SOL    HW2 2821   6.592   5.282  11.021
33642SOL     OW 2822  13.460  13.318   5.449
33642SOL    HW1 2823  13.532  13.329   5.511
33642SOL    HW2 2824  13.492  13.253   5.386
33643SOL     OW 2825   8.485  10.403   8.295
33643SOL    HW1 2826   8.564  10.430   8.247
33643SOL    HW2 2827   8.487  10.456   8.375
33644SOL     OW 2828   9.997   5.913  11.647
33644SOL    HW1 2829  10.000   5.985  11.584
33644SOL    HW2 2830   9.910   5.875  11.636
33645SOL     OW 2831   3.990   5.530   0.866
33645SOL    HW1 2832   3.950   5.528   0.779
33645SOL    HW2 2833   4.080   5.560   0.850
33646SOL     OW 2834   9.643   2.746   3.599
33646SOL    HW1 2835   9.635   2.842   3.603
33646SOL    HW2 2836   9.664   2.720   3.689
33647SOL     OW 2837  10.351  10.808   4.486
33647SOL    HW1 2838  10.264  10.831   4.518
33647SOL    HW2 2839  10.356  10.849   4.400
33648SOL     OW 2840  11.748   2.388   6.066
33648SOL    HW1 2841  11.739   2.471   6.019
33648SOL    HW2 2842  11.735   2.412   6.158
33649SOL     OW 2843   4.930   7.753   5.867
33649SOL    HW1 2844   4.958   7.712   5.948
33649SOL    HW2 2845   5.003   7.739   5.806
33650SOL     OW 2846  11.426  10.026   7.930
33650SOL    HW1 2847  11.373  10.066   7.861
33650SOL    HW2 2848  11.402   9.933   7.928
33651SOL     OW 2849   8.187  11.250  13.169
33651SOL    HW1 2850   8.231  11.194  13.234
33651SOL    HW2 2851   8.137  11.190  13.115
33652SOL     OW 2852  11.764  13.157   0.085
33652SOL    HW1 2853  11.789  13.065   0.094
33652SOL    HW2 2854  11.682  13.165   0.134
33653SOL     OW 2855  11.943  10.945   2.371
33653SOL    HW1 2856  12.014  10.998   2.335
33653SOL    HW2 2857  11.979  10.856   2.375
33654SOL     OW 2858   7.989   6.327  12.537
33654SOL    HW1 2859   8.061   6.276  12.499
33654SOL    HW2 2860   7.972   6.396  12.472
33655SOL     OW 2861   1.622  11.538  13.674
33655SOL    HW1 2862   1.667  11.492  13.604
33655SOL    HW2 2863   1.632  11.631  13.652
33656SOL     OW 2864  10.386  14.056   4.500
33656SOL    HW1 2865  10.335  14.079   4.422
33656SOL    HW2 2866  10.472  14.096   4.485
33657SOL     OW 2867   5.315   6.052   9.375
33657SOL    HW1 2868   5.293   6.082   9.463
33657SOL    HW2 2869   5.336   6.133   9.328
33658SOL     OW 2870  12.806   1.247  12.711
33658SOL    HW1 2871  12.786   1.321  12.768
33658SOL    HW2 2872  12.767   1.171  12.755
33659SOL     OW 2873   9.704   8.636   6.621
33659SOL    HW1 2874   9.774   8.684   6.577
33659SOL    HW2 2875   9.746   8.557   6.655
33660SOL     OW 2876   3.818   0.601   0.460
33660SOL    HW1 2877   3.837   0.507   0.462
33660SOL    HW2 2878   3.776   0.618   0.545
33661SOL     OW 2879  13.649   4.188   6.242
33661SOL    HW1 2880  13.682   4.253   6.180
33661SOL    HW2 2881  13.719   4.180   6.307
33662SOL     OW 2882   5.500   0.995   8.352
33662SOL    HW1 2883   5.590   1.026   8.343
33662SOL    HW2 2884   5.476   0.962   8.265
33663SOL     OW 2885   9.449   9.349   0.127
33663SOL    HW1 2886   9.454   9.400   0.208
33663SOL    HW2 2887   9.369   9.298   0.134
33664SOL     OW 2888  12.231   8.759   1.254
33664SOL    HW1 2889  12.258   8.771   1.345
33664SOL    HW2 2890  12.248   8.667   1.236
33665SOL     OW 2891   6.889   9.263  10.847
33665SOL    HW1 2892   6.826   9.205  10.890
33665SOL    HW2 2893   6.931   9.310  10.919
33666SOL     OW 2894  11.511   3.331  13.414
33666SOL    HW1 2895  11.462   3.288  13.344
33666SOL    HW2 2896  11.602   3.327  13.386
33667SOL     OW 2897  14.867  14.468   6.330
33667SOL    HW1 2898   0.022  14.528   6.266
33667SOL    HW2 2899   0.061  14.429   6.373
33668SOL     OW 2900   6.292   0.675   0.564
33668SOL    HW1 2901   6.311   0.605   0.501
33668SOL    HW2 2902   6.377   0.715   0.581
33669SOL     OW 2903  14.823  13.283  14.696
33669SOL    HW1 2904  14.753  13.252  14.753
33669SOL    HW2 2905  14.780  13.302  14.613
33670SOL     OW 2906   6.499  10.477  12.662
33670SOL    HW1 2907   6.512  10.565  12.696
33670SOL    HW2 2908   6.520  10.420  12.737
33671SOL     OW 2909   1.907  12.643   8.368
33671SOL    HW1 2910   1.829  12.686   8.334
33671SOL    HW2 2911   1.900  12.652   8.463
33672SOL     OW 2912  11.383  13.865   7.918
33672SOL    HW1 2913  11.474  13.892   7.907
33672SOL    HW2 2914  11.337  13.905   7.845
33673SOL     OW 2915   5.824   9.789   2.499
33673SOL    HW1 2916   5.842   9.743   2.416
33673SOL    HW2 2917   5.729   9.801   2.499
33674SOL     OW 2918  12.562  14.124   2.743
33674SOL    HW1 2919  12.658  14.121   2.737
33674SOL    HW2 2920  12.537  14.033   2.758
33675SOL     OW 2921   4.307   1.269   5.585
33675SOL    HW1 2922   4.320   1.200   5.650
33675SOL    HW2 2923   4.350   1.346   5.623
33676SOL     OW 2924   7.438  12.111   3.373
33676SOL    HW1 2925   7.420  12.155   3.456
33676SOL    HW2 2926   7.468  12.023   3.398
33677SOL     OW 2927   7.014  11.341  14.588
33677SOL    HW1 2928   7.107  11.362  14.594
33677SOL    HW2 2929   6.996  11.340  14.494
33678SOL     OW 2930   3.836  10.262  12.559
33678SOL    HW1 2931   3.842  10.330  12.626
33678SOL    HW2 2932   3.867  10.304  12.479
33679SOL     OW 2933   3.708   2.637   1.537
33679SOL    HW1 2934   3.616   2.634   1.563
33679SOL    HW2 2935   3.742   2.716   1.579
33680SOL     OW 2936   9.928   2.545  13.784
33680SOL    HW1 2937   9.964   2.485  13.848
33680SOL    HW2 2938   9.879   2.610  13.835
33681SOL     OW 2939   1.473  10.654  14.269
33681SOL    HW1 2940   1.513  10.688  14.189
33681SOL    HW2 2941   1.385  10.627  14.243
33682SOL     OW 2942  10.693   0.947  11.719
33682SOL    HW1 2943  10.625   1.010  11.743
33682SOL    HW2 2944  10.712   0.901  11.801
33683SOL     OW 2945   6.269   8.633   5.066
33683SOL    HW1 2946   6.329   8.558   5.071
33683SOL    HW2 2947   6.213   8.624   5.143
33684SOL     OW 2948  12.584   6.983   6.381
33684SOL    HW1 2949  12.500   7.022   6.359
33684SOL    HW2 2950  12.628   6.972   6.296
33685SOL     OW 2951   3.182  14.648   4.278
33685SOL    HW1 2952   3.157  14.608   4.361
33685SOL    HW2 2953   3.098  14.668   4.234
33686SOL     OW 2954   4.600   6.477   9.572
33686SOL    HW1 2955   4.540   6.423   9.623
33686SOL    HW2 2956   4.559   6.483   9.485
33687SOL     OW 2957   3.008   0.976  14.685
33687SOL    HW1 2958   3.012   1.048  14.747
33687SOL    HW2 2959   2.917   0.946  14.689
33688SOL     OW 2960   3.050  11.262  12.983
33688SOL    HW1 2961   3.086  11.201  12.918
33688SOL    HW2 2962   3.064  11.219  13.067
33689SOL     OW 2963  12.576  10.095   2.989
33689SOL    HW1 2964  12.651  10.039   2.971
33689SOL    HW2 2965  12.506  10.035   3.015
33690SOL     OW 2966   0.797   9.657   0.240
33690SOL    HW1 2967   0.740   9.709   0.298
33690SOL    HW2 2968   0.858   9.721   0.203
33691SOL     OW 2969   6.760  11.804   4.745
33691SOL    HW1 2970   6.735  11.767   4.660
33691SOL    HW2 2971   6.803  11.733   4.791
33692SOL     OW 2972   2.674  13.255   5.563
33692SOL    HW1 2973   2.597  13.276   5.616
33692SOL    HW2 2974   2.746  13.254   5.625
33693SOL     OW 2975   9.269   4.137   4.380
33693SOL    HW1 2976   9.240   4.197   4.449
33693SOL    HW2 2977   9.347   4.179   4.343
33694SOL     OW 2978   6.432   0.363  11.971
33694SOL    HW1 2979   6.457   0.306  11.898
33694SOL    HW2 2980   6.513   0.374  12.021
33695SOL     OW 2981  10.987   4.521   1.622
33695SOL    HW1 2982  10.958   4.519   1.531
33695SOL    HW2 2983  10.945   4.445   1.663
33696SOL     OW 2984   9.811   2.411   2.551
33696SOL    HW1 2985   9.848   2.473   2.489
33696SOL    HW2 2986   9.784   2.465   2.626
33697SOL     OW 2987   5.587   3.598  11.635
33697SOL    HW1 2988   5.667   3.650  11.630
33697SOL    HW2 2989   5.543   3.614  11.551
33698SOL     OW 2990   3.791   5.448  11.563
33698SOL    HW1 2991   3.715   5.506  11.559
33698SOL    HW2 2992   3.768   5.384  11.632
33699SOL     OW 2993   6.728   6.382   7.719
33699SOL    HW1 2994   6.821   6.394   7.738
33699SOL    HW2 2995   6.687   6.379   7.806
33700SOL     OW 2996   8.952  13.366   5.745
33700SOL    HW1 2997   8.888  13.403   5.683
33700SOL    HW2 2998   8.942  13.272   5.736
33701SOL     OW 2999  13.863   7.904  12.195
33701SOL    HW1 3000  13.955   7.875  12.191
33701SOL    HW2 3001  13.868   7.998  12.210
33702SOL     OW 3002  11.507   4.589   8.231
33702SOL    HW1 3003  11.536   4.506   8.193
33702SOL    HW2 3004  11.535   4.586   8.322
33703SOL     OW 3005   0.916  12.235  10.946
33703SOL    HW1 3006   0.918  12.270  10.857
33703SOL    HW2 3007   0.919  12.313  11.002
33704SOL     OW 3008   6.869   3.206   0.240
33704SOL    HW1 3009   6.901   3.291   0.271
33704SOL    HW2 3010   6.830   3.224   0.154
33705SOL     OW 3011   2.559   9.776   1.131
33705SOL    HW1 3012   2.560   9.865   1.166
33705SOL    HW2 3013   2.492   9.731   1.183
33706SOL     OW 3014  11.175  12.261   7.759
33706SOL    HW1 3015  11.110  12.284   7.693
33706SOL    HW2 3016  11.244  12.326   7.749
33707SOL     OW 3017   8.279   4.712   4.994
33707SOL    HW1 3018   8.313   4.738   4.908
33707SOL    HW2 3019   8.251   4.793   5.035
33708SOL     OW 3020   3.555  13.294   8.746
33708SOL    HW1 3021   3.549  13.216   8.801
33708SOL    HW2 3022   3.502  13.273   8.669
33709SOL     OW 3023   2.592   6.242   3.277
33709SOL    HW1 3024   2.598   6.185   3.354
33709SOL    HW2 3025   2.515   6.212   3.230
33710SOL     OW 3026   3.053   8.433   0.376
33710SOL    HW1 3027   3.138   8.412   0.336
33710SOL    HW2 3028   3.059   8.399   0.465
33711SOL     OW 3029  13.465   6.681   7.493
33711SOL    HW1 3030  13.398   6.635   7.544
33711SOL    HW2 3031  13.538   6.620   7.490
33712SOL     OW 3032   8.253   6.402  10.803
33712SOL    HW1 3033   8.299   6.329  10.760
33712SOL    HW2 3034   8.288   6.480  10.762
33713SOL     OW 3035  11.608   6.630   8.402
33713SOL    HW1 3036  11.667   6.563   8.367
33713SOL    HW2 3037  11.566   6.588   8.477
33714SOL     OW 3038   5.501  12.404   7.558
33714SOL    HW1 3039   5.421  12.356   7.579
33714SOL    HW2 3040   5.471  12.491   7.532
33715SOL     OW 3041   5.780   9.343   6.995
33715SOL    HW1 3042   5.867   9.381   6.988
33715SOL    HW2 3043   5.735   9.370   6.915
33716SOL     OW 3044   6.355   7.586   5.504
33716SOL    HW1 3045   6.357   7.512   5.443
33716SOL    HW2 3046   6.322   7.548   5.586
33717SOL     OW 3047   0.684   7.386   1.380
33717SOL    HW1 3048   0.647   7.415   1.464
33717SOL    HW2 3049   0.759   7.331   1.404
33718SOL     OW 3050   7.458   8.916   5.445
33718SOL    HW1 3051   7.540   8.918   5.396
33718SOL    HW2 3052   7.394   8.880   5.384
33719SOL     OW 3053  14.701   8.932   3.240
33719SOL    HW1 3054  14.660   8.986   3.307
33719SOL    HW2 3055  14.637   8.863   3.221
33720SOL     OW 3056   5.016  13.766  11.092
33720SOL    HW1 3057   5.022  13.725  11.178
33720SOL    HW2 3058   4.982  13.698  11.034
33721SOL     OW 3059   8.058   3.015   6.753
33721SOL    HW1 3060   7.966   2.989   6.754
33721SOL    HW2 3061   8.099   2.952   6.694
33722SOL     OW 3062   7.196   4.255   7.618
33722SOL    HW1 3063   7.144   4.320   7.571
33722SOL    HW2 3064   7.268   4.234   7.558
33723SOL     OW 3065   0.694  13.565  10.148
33723SOL    HW1 3066   0.644  13.644  10.131
33723SOL    HW2 3067   0.632  13.505  10.190
33724SOL     OW 3068  14.706  11.282  10.594
33724SOL    HW1 3069  14.711  11.330  10.677
33724SOL    HW2 3070  14.776  11.318  10.540
33725SOL     OW 3071   0.373   3.254   4.645
33725SOL    HW1 3072   0.408   3.329   4.693
33725SOL    HW2 3073   0.450   3.207   4.614
33726SOL     OW 3074  11.678   0.383   9.084
33726SOL    HW1 3075  11.737   0.445   9.040
33726SOL    HW2 3076  11.592   0.426   9.082
33727SOL     OW 3077   9.149   4.103  10.080
33727SOL    HW1 3078   9.241   4.105  10.053
33727SOL    HW2 3079   9.152   4.116  10.175
33728SOL     OW 3080  10.431   0.542   7.273
33728SOL    HW1 3081  10.466   0.590   7.198
33728SOL    HW2 3082  10.336   0.552   7.265
33729SOL     OW 3083   6.545   3.012   8.918
33729SOL    HW1 3084   6.613   3.059   8.868
33729SOL    HW2 3085   6.486   2.979   8.851
33730SOL     OW 3086   7.616   1.780   4.187
33730SOL    HW1 3087   7.703   1.799   4.222
33730SOL    HW2 3088   7.563   1.857   4.211
33731SOL     OW 3089   7.826   6.038  11.472
33731SOL    HW1 3090   7.920   6.020  11.476
33731SOL    HW2 3091   7.796   5.993  11.393
33732SOL     OW 3092  10.496   8.598   0.859
33732SOL    HW1 3093  10.436   8.641   0.798
33732SOL    HW2 3094  10.448   8.522   0.890
33733SOL     OW 3095   8.620  10.964  13.303
33733SOL    HW1 3096   8.710  10.947  13.275
33733SOL    HW2 3097   8.582  10.877  13.316
33734SOL     OW 3098   0.292  11.028   8.592
33734SOL    HW1 3099   0.261  10.962   8.530
33734SOL    HW2 3100   0.216  11.085   8.607
33735SOL     OW 3101  14.798  12.944   4.515
33735SOL    HW1 3102  14.868  12.967   4.453
33735SOL    HW2 3103  14.773  13.027   4.555
33736SOL     OW 3104   2.444  11.642   4.526
33736SOL    HW1 3105   2.451  11.576   4.457
33736SOL    HW2 3106   2.499  11.715   4.495
33737SOL     OW 3107   6.109   4.096   2.149
33737SOL    HW1 3108   6.068   4.026   2.098
33737SOL    HW2 3109   6.107   4.172   2.091
33738SOL     OW 3110   2.531   7.525   3.882
33738SOL    HW1 3111   2.473   7.591   3.919
33738SOL    HW2 3112   2.474   7.469   3.829
33739SOL     OW 3113   0.082  11.333  12.353
33739SOL    HW1 3114   0.124  11.418  12.340
33739SOL    HW2 3115   0.009  11.333  12.292
33740SOL     OW 3116   0.366   4.742   9.602
33740SOL    HW1 3117   0.287   4.719   9.553
33740SOL    HW2 3118   0.372   4.676   9.671
33741SOL     OW 3119   5.042  12.520  10.877
33741SOL    HW1 3120   5.032  12.478  10.792
33741SOL    HW2 3121   5.135  12.512  10.897
33742SOL     OW 3122  13.508  10.927  13.675
33742SOL    HW1 3123  13.526  11.018  13.698
33742SOL    HW2 3124  13.570  10.876  13.726
33743SOL     OW 3125   8.998   0.362   5.890
33743SOL    HW1 3126   8.963   0.450   5.877
33743SOL    HW2 3127   8.987   0.345   5.983
33744SOL     OW 3128  13.115  13.005  10.029
33744SOL    HW1 3129  13.041  12.945  10.024
33744SOL    HW2 3130  13.135  13.026   9.937
33745SOL     OW 3131   5.129   9.672  12.977
33745SOL    HW1 3132   5.115   9.577  12.973
33745SOL    HW2 3133   5.105   9.704  12.890
33746SOL     OW 3134  11.977  12.070   0.902
33746SOL    HW1 3135  11.939  11.982   0.894
33746SOL    HW2 3136  11.925  12.124   0.842
33747SOL     OW 3137   8.128   7.645   7.325
33747SOL    HW1 3138   8.070   7.714   7.358
33747SOL    HW2 3139   8.209   7.691   7.304
33748SOL     OW 3140  14.519   5.643   3.803
33748SOL    HW1 3141  14.471   5.634   3.885
33748SOL    HW2 3142  14.573   5.565   3.798
33749SOL     OW 3143   6.135   5.952   5.214
33749SOL    HW1 3144   6.136   5.986   5.303
33749SOL    HW2 3145   6.086   5.870   5.220
33750SOL     OW 3146   8.146   9.038   9.919
33750SOL    HW1 3147   8.174   8.995  10.000
33750SOL    HW2 3148   8.183   9.126   9.925
33751SOL     OW 3149   2.017  10.377   7.827
33751SOL    HW1 3150   1.954  10.305   7.828
33751SOL    HW2 3151   1.967  10.452   7.859
33752SOL     OW 3152   6.092   0.974  13.625
33752SOL    HW1 3153   6.086   0.907  13.694
33752SOL    HW2 3154   6.133   1.049  13.669
33753SOL     OW 3155  11.393  12.350   3.149
33753SOL    HW1 3156  11.441  12.269   3.168
33753SOL    HW2 3157  11.432  12.414   3.208
33754SOL     OW 3158   5.373   2.412   3.453
33754SOL    HW1 3159   5.417   2.380   3.532
33754SOL    HW2 3160   5.337   2.333   3.412
33755SOL     OW 3161   4.341   0.574  10.630
33755SOL    HW1 3162   4.265   0.626  10.603
33755SOL    HW2 3163   4.395   0.635  10.680
33756SOL     OW 3164   9.428  10.909   8.840
33756SOL    HW1 3165   9.347  10.953   8.814
33756SOL    HW2 3166   9.496  10.975   8.832
33757SOL     OW 3167   5.194   5.485   6.811
33757SOL    HW1 3168   5.110   5.451   6.842
33757SOL    HW2 3169   5.176   5.519   6.723
33758SOL     OW 3170   9.053  11.022   2.127
33758SOL    HW1 3171   9.029  11.109   2.095
33758SOL    HW2 3172   9.108  11.039   2.204
33759SOL     OW 3173  10.903  12.798   8.626
33759SOL    HW1 3174  10.996  12.818   8.620
33759SOL    HW2 3175  10.892  12.718   8.574
33760SOL     OW 3176   5.224   5.674   6.995
33760SOL    HW1 3177   5.244   5.745   6.935
33760SOL    HW2 3178   5.238   5.594   6.944
33761SOL     OW 3179  12.583  11.387  10.954
33761SOL    HW1 3180  12.509  11.378  10.894
33761SOL    HW2 3181  12.645  11.443  10.907
33762SOL     OW 3182   7.356   3.176   7.440
33762SOL    HW1 3183   7.305   3.098   7.420
33762SOL    HW2 3184   7.351   3.184   7.535
33763SOL     OW 3185   5.958  12.141   7.145
33763SOL    HW1 3186   6.024  12.195   7.187
33763SOL    HW2 3187   5.940  12.186   7.062
33764SOL     OW 3188  13.454   4.117   5.958
33764SOL    HW1 3189  13.453   4.162   5.874
33764SOL    HW2 3190  13.542   4.081   5.966
33765SOL     OW 3191  10.874  10.401  10.316
33765SOL    HW1 3192  10.913  10.478  10.358
33765SOL    HW2 3193  10.780  10.417  10.319
33766SOL     OW 3194   7.631   0.341   3.013
33766SOL    HW1 3195   7.551   0.337   3.066
33766SOL    HW2 3196   7.608   0.395   2.938
33767SOL     OW 3197   6.204  12.150  12.290
33767SOL    HW1 3198   6.168  12.069  12.327
33767SOL    HW2 3199   6.293  12.126  12.264
33768SOL     OW 3200   5.228  11.923   9.456
33768SOL    HW1 3201   5.315  11.963   9.460
33768SOL    HW2 3202   5.216  11.902   9.364
33769SOL     OW 3203  11.760   0.431  14.077
33769SOL    HW1 3204  11.772   0.410  14.169
33769SOL    HW2 3205  11.730   0.349  14.037
33770SOL     OW 3206   8.434  13.739   4.115
33770SOL    HW1 3207   8.513  13.709   4.161
33770SOL    HW2 3208   8.417  13.670   4.051
33771SOL     OW 3209   2.201   0.137   3.104
33771SOL    HW1 3210   2.238   0.177   3.025
33771SOL    HW2 3211   2.110   0.119   3.080
33772SOL     OW 3212   6.033  14.871   2.019
33772SOL    HW1 3213   6.123  14.838   2.015
33772SOL    HW2 3214   5.979  14.792   2.023
33773SOL     OW 3215   8.393   0.903  11.171
33773SOL    HW1 3216   8.324   0.908  11.106
33773SOL    HW2 3217   8.454   0.838  11.137
33774SOL     OW 3218  10.642  14.042   1.047
33774SOL    HW1 3219  10.660  14.088   1.129
33774SOL    HW2 3220  10.554  14.006   1.057
33775SOL     OW 3221   3.843  11.667   6.306
33775SOL    HW1 3222   3.888  11.646   6.224
33775SOL    HW2 3223   3.863  11.593   6.364
33776SOL     OW 3224  10.922   0.388   9.459
33776SOL    HW1 3225  10.842   0.406   9.409
33776SOL    HW2 3226  10.954   0.305   9.424
33777SOL     OW 3227   5.995   3.859   4.194
33777SOL    HW1 3228   6.028   3.823   4.112
33777SOL    HW2 3229   6.063   3.837   4.258
33778SOL     OW 3230   5.427   3.411  13.080
33778SOL    HW1 3231   5.491   3.380  13.144
33778SOL    HW2 3232   5.433   3.348  13.008
33779SOL     OW 3233   2.241  11.607   9.026
33779SOL    HW1 3234   2.213  11.677   8.967
33779SOL    HW2 3235   2.199  11.528   8.992
33780SOL     OW 3236   7.698   7.183  14.453
33780SOL    HW1 3237   7.621   7.128  14.435
33780SOL    HW2 3238   7.743   7.187  14.369
33781SOL     OW 3239   5.987   1.965   3.060
33781SOL    HW1 3240   5.977   2.059   3.075
33781SOL    HW2 3241   5.915   1.925   3.108
33782SOL     OW 3242   3.531   0.873  13.868
33782SOL    HW1 3243   3.591   0.860  13.942
33782SOL    HW2 3244   3.482   0.791  13.862
33783SOL     OW 3245   8.374   0.864  10.157
33783SOL    HW1 3246   8.407   0.823  10.076
33783SOL    HW2 3247   8.429   0.941  10.168
33784SOL     OW 3248   8.492  11.284   8.765
33784SOL    HW1 3249   8.505  11.265   8.858
33784SOL    HW2 3250   8.518  11.204   8.720
33785SOL     OW 3251   0.289   7.011  13.819
33785SOL    HW1 3252   0.219   6.961  13.861
33785SOL    HW2 3253   0.368   6.989  13.869
33786SOL     OW 3254   2.342  10.767  14.852
33786SOL    HW1 3255   2.409  10.721  14.800
33786SOL    HW2 3256   2.366  10.859  14.845
33787SOL     OW 3257   9.297   4.162  13.627
33787SOL    HW1 3258   9.236   4.222  13.585
33787SOL    HW2 3259   9.359   4.218  13.673
33788SOL     OW 3260   8.909  13.906  10.136
33788SOL    HW1 3261   8.917  13.833  10.198
33788SOL    HW2 3262   8.944  13.872  10.054
33789SOL     OW 3263   3.136   2.816   4.608
33789SOL    HW1 3264   3.211   2.876   4.609
33789SOL    HW2 3265   3.165   2.742   4.554
33790SOL     OW 3266   0.828   1.597   1.797
33790SOL    HW1 3267   0.867   1.510   1.796
33790SOL    HW2 3268   0.901   1.656   1.813
33791SOL     OW 3269   8.563  13.483  14.374
33791SOL    HW1 3270   8.607  13.530  14.444
33791SOL    HW2 3271   8.574  13.391  14.397
33792SOL     OW 3272  12.604   7.465   9.332
33792SOL    HW1 3273  12.538   7.503   9.389
33792SOL    HW2 3274  12.669   7.535   9.320
33793SOL     OW 3275   9.364  13.068   9.755
33793SOL    HW1 3276   9.436  13.004   9.750
33793SOL    HW2 3277   9.330  13.072   9.665
33794SOL     OW 3278   0.003   6.149   0.306
33794SOL    HW1 3279  14.840   6.065   0.311
33794SOL    HW2 3280  14.851   6.198   0.381
33795SOL     OW 3281   8.989   9.683  14.746
33795SOL    HW1 3282   9.011   9.739  14.671
33795SOL    HW2 3283   8.938   9.741  14.804
33796SOL     OW 3284   4.231   9.821   5.200
33796SOL    HW1 3285   4.326   9.827   5.188
33796SOL    HW2 3286   4.220   9.763   5.275
33797SOL     OW 3287   9.886  12.233   0.751
33797SOL    HW1 3288   9.912  12.284   0.674
33797SOL    HW2 3289   9.829  12.293   0.801
33798SOL     OW 3290  10.807  11.585  11.923
33798SOL    HW1 3291  10.886  11.538  11.897
33798SOL    HW2 3292  10.737  11.544  11.872
33799SOL     OW 3293   8.250   3.337   7.120
33799SOL    HW1 3294   8.196   3.405   7.161
33799SOL    HW2 3295   8.204   3.317   7.038
33800SOL     OW 3296   1.853  13.661   4.476
33800SOL    HW1 3297   1.787  13.605   4.436
33800SOL    HW2 3298   1.916  13.599   4.514
33801SOL     OW 3299  14.248  10.531   0.476
33801SOL    HW1 3300  14.322  10.473   0.497
33801SOL    HW2 3301  14.286  10.618   0.476
33802SOL     OW 3302   7.449  10.407  12.086
33802SOL    HW1 3303   7.483  10.488  12.124
33802SOL    HW2 3304   7.409  10.435  12.004
33803SOL     OW 3305   3.756   8.470   9.528
33803SOL    HW1 3306   3.756   8.517   9.612
33803SOL    HW2 3307   3.670   8.489   9.490
33804SOL     OW 3308   1.665  10.048  11.186
33804SOL    HW1 3309   1.645  10.102  11.110
33804SOL    HW2 3310   1.752  10.012  11.168
33805SOL     OW 3311   9.137   6.773   7.071
33805SOL    HW1 3312   9.098   6.694   7.033
33805SOL    HW2 3313   9.223   6.780   7.029
33806SOL     OW 3314   9.698   8.059   0.288
33806SOL    HW1 3315   9.669   8.148   0.312
33806SOL    HW2 3316   9.668   8.004   0.361
33807SOL     OW 3317   6.279   7.547  14.712
33807SOL    HW1 3318   6.235   7.518  14.792
33807SOL    HW2 3319   6.305   7.637  14.730
33808SOL     OW 3320  11.213  11.544  11.658
33808SOL    HW1 3321  11.129  11.498  11.652
33808SOL    HW2 3322  11.245  11.547  11.568
33809SOL     OW 3323   0.719   0.470   7.537
33809SOL    HW1 3324   0.697   0.408   7.468
33809SOL    HW2 3325   0.711   0.420   7.618
33810SOL     OW 3326   7.606  11.764  14.504
33810SOL    HW1 3327   7.518  11.749  14.472
33810SOL    HW2 3328   7.607  11.857  14.527
33811SOL     OW 3329   7.487  10.839   9.257
33811SOL    HW1 3330   7.418  10.898   9.226
33811SOL    HW2 3331   7.490  10.768   9.193
33812SOL     OW 3332   4.147   4.316  12.317
33812SOL    HW1 3333   4.168   4.226  12.342
33812SOL    HW2 3334   4.231   4.353  12.291
33813SOL     OW 3335   8.169  10.728  11.974
33813SOL    HW1 3336   8.096  10.724  12.036
33813SOL    HW2 3337   8.178  10.639  11.942
33814SOL     OW 3338   4.313  12.360   5.044
33814SOL    HW1 3339   4.302  12.455   5.051
33814SOL    HW2 3340   4.402  12.349   5.009
33815SOL     OW 3341  13.582   6.823   8.858
33815SOL    HW1 3342  13.529   6.812   8.937
33815SOL    HW2 3343  13.559   6.748   8.803
33816SOL     OW 3344   6.847   7.656  12.791
33816SOL    HW1 3345   6.783   7.598  12.749
33816SOL    HW2 3346   6.834   7.741  12.750
33817SOL     OW 3347   7.966   6.541   9.894
33817SOL    HW1 3348   7.900   6.473   9.878
33817SOL    HW2 3349   7.936   6.616   9.843
33818SOL     OW 3350  13.627   4.584  12.603
33818SOL    HW1 3351  13.701   4.542  12.646
33818SOL    HW2 3352  13.550   4.535  12.634
33819SOL     OW 3353  10.806  11.988   3.607
33819SOL    HW1 3354  10.754  11.908   3.606
33819SOL    HW2 3355  10.795  12.025   3.519
33820SOL     OW 3356   8.417  14.134   0.551
33820SOL    HW1 3357   8.326  14.154   0.531
33820SOL    HW2 3358   8.417  14.108   0.643
33821SOL     OW 3359   7.602   2.961   1.081
33821SOL    HW1 3360   7.665   3.002   1.140
33821SOL    HW2 3361   7.614   2.867   1.094
33822SOL     OW 3362   9.208   3.242  12.363
33822SOL    HW1 3363   9.130   3.247  12.308
33822SOL    HW2 3364   9.203   3.320  12.419
33823SOL     OW 3365  12.146   8.702  10.452
33823SOL    HW1 3366  12.172   8.619  10.411
33823SOL    HW2 3367  12.100   8.750  10.383
33824SOL     OW 3368   0.407   5.078   3.094
33824SOL    HW1 3369   0.480   5.136   3.073
33824SOL    HW2 3370   0.448   5.001   3.135
33825SOL     OW 3371   9.624   4.558   9.213
33825SOL    HW1 3372   9.626   4.620   9.286
33825SOL    HW2 3373   9.715   4.554   9.183
33826SOL     OW 3374   6.415  13.799  14.871
33826SOL    HW1 3375   6.468  13.803  14.792
33826SOL    HW2 3376   6.328  13.775  14.840
33827SOL     OW 3377   5.020   8.650   8.548
33827SOL    HW1 3378   5.028   8.712   8.476
33827SOL    HW2 3379   5.051   8.697   8.625
33828SOL     OW 3380   8.572  10.845   6.689
33828SOL    HW1 3381   8.652  10.820   6.641
33828SOL    HW2 3382   8.529  10.908   6.632
33829SOL     OW 3383   4.527   0.051  14.523
33829SOL    HW1 3384   4.583  14.863  14.492
33829SOL    HW2 3385   4.508   0.104  14.445
33830SOL     OW 3386  13.916   6.992   7.601
33830SOL    HW1 3387  13.988   7.050   7.629
33830SOL    HW2 3388  13.837   7.044   7.616
33831SOL     OW 3389  10.645   0.061  10.441
33831SOL    HW1 3390  10.722   0.090  10.491
33831SOL    HW2 3391  10.593   0.141  10.431
33832SOL     OW 3392   1.330   1.281  12.622
33832SOL    HW1 3393   1.411   1.232  12.636
33832SOL    HW2 3394   1.342   1.321  12.536
33833SOL     OW 3395   0.428  14.175   3.927
33833SOL    HW1 3396   0.369  14.204   3.858
33833SOL    HW2 3397   0.428  14.248   3.990
33834SOL     OW 3398   0.875  13.904   3.228
33834SOL    HW1 3399   0.846  13.980   3.278
33834SOL    HW2 3400   0.798  13.848   3.224
33835SOL     OW 3401   3.865  14.861   3.840
33835SOL    HW1 3402   3.940  14.806   3.822
33835SOL    HW2 3403   3.897   0.043   3.903
33836SOL     OW 3404  11.852   3.602  10.657
33836SOL    HW1 3405  11.824   3.553  10.580
33836SOL    HW2 3406  11.916   3.665  10.623
33837SOL     OW 3407   1.838   7.456   3.226
33837SOL    HW1 3408   1.749   7.441   3.258
33837SOL    HW2 3409   1.838   7.547   3.198
33838SOL     OW 3410   1.918   6.710   3.484
33838SOL    HW1 3411   2.003   6.725   3.442
33838SOL    HW2 3412   1.914   6.775   3.554
33839SOL     OW 3413   5.457  13.962   8.953
33839SOL    HW1 3414   5.510  14.025   9.002
33839SOL    HW2 3415   5.487  13.970   8.863
33840SOL     OW 3416   1.621   3.937   5.584
33840SOL    HW1 3417   1.538   3.912   5.623
33840SOL    HW2 3418   1.634   4.028   5.609
33841SOL     OW 3419   1.780  14.414  13.322
33841SOL    HW1 3420   1.723  14.366  13.262
33841SOL    HW2 3421   1.793  14.499  13.280
33842SOL     OW 3422   4.725   5.518  12.403
33842SOL    HW1 3423   4.635   5.545  12.419
33842SOL    HW2 3424   4.729   5.501  12.309
33843SOL     OW 3425   5.966   5.252   0.280
33843SOL    HW1 3426   5.914   5.219   0.353
33843SOL    HW2 3427   5.960   5.184   0.213
33844SOL     OW 3428  11.424   1.820  14.485
33844SOL    HW1 3429  11.376   1.804  14.404
33844SOL    HW2 3430  11.433   1.734  14.526
33845SOL     OW 3431  13.092   9.065   2.753
33845SOL    HW1 3432  13.008   9.104   2.776
33845SOL    HW2 3433  13.070   8.980   2.715
33846SOL     OW 3434   2.424   1.337   1.851
33846SOL    HW1 3435   2.514   1.363   1.834
33846SOL    HW2 3436   2.371   1.405   1.811
33847SOL     OW 3437  10.864   0.197   2.054
33847SOL    HW1 3438  10.784   0.205   2.106
33847SOL    HW2 3439  10.913   0.278   2.073
33848SOL     OW 3440   6.022   8.848  14.055
33848SOL    HW1 3441   6.075   8.787  14.004
33848SOL    HW2 3442   5.977   8.794  14.119
33849SOL     OW 3443   9.771   8.484   4.828
33849SOL    HW1 3444   9.804   8.394   4.824
33849SOL    HW2 3445   9.743   8.496   4.919
33850SOL     OW 3446   3.518   5.962   8.443
33850SOL    HW1 3447   3.491   6.040   8.395
33850SOL    HW2 3448   3.440   5.935   8.491
33851SOL     OW 3449   4.486   7.522   4.970
33851SOL    HW1 3450   4.446   7.495   4.888
33851SOL    HW2 3451   4.474   7.617   4.973
33852SOL     OW 3452  12.958   9.443   3.306
33852SOL    HW1 3453  13.048   9.421   3.330
33852SOL    HW2 3454  12.904   9.401   3.374
33853SOL     OW 3455  14.674  11.009   3.830
33853SOL    HW1 3456  14.641  10.920   3.815
33853SOL    HW2 3457  14.700  11.009   3.922
33854SOL     OW 3458  10.972  14.399   3.154
33854SOL    HW1 3459  10.880  14.388   3.132
33854SOL    HW2 3460  10.980  14.490   3.182
33855SOL     OW 3461   7.071  10.457  11.478
33855SOL    HW1 3462   7.079  10.534  11.422
33855SOL    HW2 3463   7.120  10.480  11.557
33856SOL     OW 3464   3.905   5.873   1.659
33856SOL    HW1 3465   4.000   5.861   1.659
33856SOL    HW2 3466   3.874   5.820   1.585
33857SOL     OW 3467   3.787   0.332   0.455
33857SOL    HW1 3468   3.866   0.291   0.419
33857SOL    HW2 3469   3.727   0.338   0.380
33858SOL     OW 3470   9.825  11.818   3.771
33858SOL    HW1 3471   9.881  11.743   3.751
33858SOL    HW2 3472   9.756  11.782   3.827
33859SOL     OW 3473   3.927  11.448   3.661
33859SOL    HW1 3474   3.946  11.365   3.616
33859SOL    HW2 3475   3.857  11.425   3.722
33860SOL     OW 3476   6.921  10.686   8.125
33860SOL    HW1 3477   7.004  10.664   8.083
33860SOL    HW2 3478   6.884  10.602   8.152
33861SOL     OW 3479   7.640  11.313  10.496
33861SOL    HW1 3480   7.657  11.252  10.425
33861SOL    HW2 3481   7.594  11.386  10.454
33862SOL     OW 3482  13.925   9.095  14.760
33862SOL    HW1 3483  13.913   9.187  14.784
33862SOL    HW2 3484  13.996   9.065  14.816
33863SOL     OW 3485  10.441  12.645  11.199
33863SOL    HW1 3486  10.378  12.577  11.178
33863SOL    HW2 3487  10.518  12.597  11.230
33864SOL     OW 3488  13.469  12.796   7.505
33864SOL    HW1 3489  13.479  12.890   7.520
33864SOL    HW2 3490  13.378  12.777   7.531
33865SOL     OW 3491   2.350  13.035   6.387
33865SOL    HW1 3492   2.345  13.089   6.309
33865SOL    HW2 3493   2.405  13.086   6.447
33866SOL     OW 3494   6.630   3.899   7.074
33866SOL    HW1 3495   6.634   3.807   7.101
33866SOL    HW2 3496   6.603   3.945   7.153
33867SOL     OW 3497   2.888   6.245   1.473
33867SOL    HW1 3498   2.805   6.213   1.508
33867SOL    HW2 3499   2.864   6.288   1.390
33868SOL     OW 3500   6.175   0.534  12.509
33868SOL    HW1 3501   6.153   0.451  12.552
33868SOL    HW2 3502   6.222   0.509  12.430
33869SOL     OW 3503   6.205   7.412  13.574
33869SOL    HW1 3504   6.261   7.439  13.647
33869SOL    HW2 3505   6.253   7.441  13.496
33870SOL     OW 3506  14.443  11.994   6.616
33870SOL    HW1 3507  14.516  11.959   6.668
33870SOL    HW2 3508  14.365  11.965   6.662
33871SOL     OW 3509   4.501  10.805  11.359
33871SOL    HW1 3510   4.419  10.847  11.385
33871SOL    HW2 3511   4.569  10.866  11.388
33872SOL     OW 3512  13.227  13.496   5.269
33872SOL    HW1 3513  13.203  13.409   5.237
33872SOL    HW2 3514  13.157  13.553   5.238
33873SOL     OW 3515   7.226   5.260   3.650
33873SOL    HW1 3516   7.148   5.220   3.689
33873SOL    HW2 3517   7.257   5.195   3.587
33874SOL     OW 3518   9.217   1.745   2.908
33874SOL    HW1 3519   9.149   1.787   2.960
33874SOL    HW2 3520   9.286   1.811   2.900
33875SOL     OW 3521   6.112   5.425   8.928
33875SOL    HW1 3522   6.057   5.391   8.999
33875SOL    HW2 3523   6.080   5.514   8.913
33876SOL     OW 3524   6.914   0.376  12.014
33876SOL    HW1 3525   6.944   0.353  11.926
33876SOL    HW2 3526   6.875   0.463  12.004
33877SOL     OW 3527   3.813   0.730  12.482
33877SOL    HW1 3528   3.721   0.710  12.499
33877SOL    HW2 3529   3.825   0.818  12.519
33878SOL     OW 3530  13.852  14.539   7.888
33878SOL    HW1 3531  13.913  14.595   7.936
33878SOL    HW2 3532  13.799  14.498   7.956
33879SOL     OW 3533   8.618  11.062   3.851
33879SOL    HW1 3534   8.688  11.029   3.794
33879SOL    HW2 3535   8.606  10.993   3.916
33880SOL     OW 3536  12.896  14.460  13.884
33880SOL    HW1 3537  12.890  14.469  13.789
33880SOL    HW2 3538  12.805  14.453  13.913
33881SOL     OW 3539   3.221  12.627   5.154
33881SOL    HW1 3540   3.210  12.551   5.098
33881SOL    HW2 3541   3.132  12.657   5.173
33882SOL     OW 3542   3.637   3.235  11.553
33882SOL    HW1 3543   3.602   3.183  11.626
33882SOL    HW2 3544   3.712   3.185  11.522
33883SOL     OW 3545   1.151   2.640   2.122
33883SOL    HW1 3546   1.221   2.603   2.068
33883SOL    HW2 3547   1.193   2.658   2.206
33884SOL     OW 3548   6.670   7.009   0.263
33884SOL    HW1 3549   6.676   7.105   0.264
33884SOL    HW2 3550   6.628   6.988   0.180
33885SOL     OW 3551   7.462  13.002   2.888
33885SOL    HW1 3552   7.376  13.025   2.853
33885SOL    HW2 3553   7.460  13.032   2.978
33886SOL     OW 3554   3.103  12.078  14.120
33886SOL    HW1 3555   3.048  12.145  14.161
33886SOL    HW2 3556   3.042  12.028  14.066
33887SOL     OW 3557   5.934  11.471   4.045
33887SOL    HW1 3558   5.882  11.513   4.114
33887SOL    HW2 3559   5.894  11.500   3.964
33888SOL     OW 3560   2.317   9.027   7.808
33888SOL    HW1 3561   2.228   8.998   7.829
33888SOL    HW2 3562   2.304   9.107   7.757
33889SOL     OW 3563  10.002   6.099   6.645
33889SOL    HW1 3564  10.083   6.108   6.595
33889SOL    HW2 3565   9.988   6.185   6.684
33890SOL     OW 3566   0.141   2.964  12.955
33890SOL    HW1 3567   0.216   2.914  12.985
33890SOL    HW2 3568   0.072   2.944  13.018
33891SOL     OW 3569  11.386   4.307   8.954
33891SOL    HW1 3570  11.358   4.255   9.029
33891SOL    HW2 3571  11.480   4.289   8.947
33892SOL     OW 3572   0.499   0.836  10.098
33892SOL    HW1 3573   0.563   0.783  10.146
33892SOL    HW2 3574   0.478   0.907  10.158
33893SOL     OW 3575   8.235  13.803   5.538
33893SOL    HW1 3576   8.165  13.767   5.593
33893SOL    HW2 3577   8.258  13.732   5.478
33894SOL     OW 3578   8.305   8.279   7.516
33894SOL    HW1 3579   8.324   8.306   7.426
33894SOL    HW2 3580   8.277   8.360   7.560
33895SOL     OW 3581  12.361   0.618   2.586
33895SOL    HW1 3582  12.376   0.595   2.495
33895SOL    HW2 3583  12.267   0.635   2.592
33896SOL     OW 3584   5.809   1.897   9.339
33896SOL    HW1 3585   5.891   1.934   9.305
33896SOL    HW2 3586   5.788   1.826   9.277
33897SOL     OW 3587   0.290   1.810   6.545
33897SOL    HW1 3588   0.306   1.802   6.451
33897SOL    HW2 3589   0.229   1.739   6.565
33898SOL     OW 3590  14.832   4.309  11.769
33898SOL    HW1 3591  14.868   4.245  11.708
33898SOL    HW2 3592  14.747   4.274  11.794
33899SOL     OW 3593   6.607   1.421   3.773
33899SOL    HW1 3594   6.533   1.480   3.759
33899SOL    HW2 3595   6.603   1.360   3.700
33900SOL     OW 3596  10.507  11.839   8.611
33900SOL    HW1 3597  10.581  11.784   8.584
33900SOL    HW2 3598  10.523  11.922   8.567
33901SOL     OW 3599   0.798   4.545   7.385
33901SOL    HW1 3600   0.785   4.487   7.460
33901SOL    HW2 3601   0.854   4.615   7.418
33902SOL     OW 3602   2.554  10.666   5.464
33902SOL    HW1 3603   2.510  10.586   5.434
33902SOL    HW2 3604   2.614  10.689   5.392
33903SOL     OW 3605  10.974  14.150   7.389
33903SOL    HW1 3606  11.043  14.141   7.324
33903SOL    HW2 3607  10.985  14.238   7.424
33904SOL     OW 3608   1.778  10.753  12.169
33904SOL    HW1 3609   1.835  10.781  12.098
33904SOL    HW2 3610   1.811  10.667  12.193
33905SOL     OW 3611  13.809  10.169   6.638
33905SOL    HW1 3612  13.719  10.164   6.606
33905SOL    HW2 3613  13.852  10.092   6.602
33906SOL     OW 3614  14.402   0.350   2.809
33906SOL    HW1 3615  14.469   0.378   2.872
33906SOL    HW2 3616  14.336   0.305   2.863
33907SOL     OW 3617   1.424  13.265  14.655
33907SOL    HW1 3618   1.476  13.303  14.726
33907SOL    HW2 3619   1.481  13.197  14.618
33908SOL     OW 3620  11.036   5.432  14.522
33908SOL    HW1 3621  11.001   5.351  14.559
33908SOL    HW2 3622  10.997   5.502  14.574
33909SOL     OW 3623   0.520   6.155   6.741
33909SOL    HW1 3624   0.435   6.192   6.718
33909SOL    HW2 3625   0.583   6.222   6.714
33910SOL     OW 3626  10.309   5.299  13.853
33910SOL    HW1 3627  10.401   5.302  13.882
33910SOL    HW2 3628  10.280   5.390  13.856
33911SOL     OW 3629  13.204   6.798  12.877
33911SOL    HW1 3630  13.273   6.864  12.891
33911SOL    HW2 3631  13.134   6.846  12.833
33912SOL     OW 3632   1.425   5.953   0.642
33912SOL    HW1 3633   1.355   5.905   0.687
33912SOL    HW2 3634   1.379   6.009   0.579
33913SOL     OW 3635  14.836  13.811   9.557
33913SOL    HW1 3636   0.043  13.797   9.525
33913SOL    HW2 3637  14.780  13.792   9.482
33914SOL     OW 3638  11.310   1.093   4.991
33914SOL    HW1 3639  11.326   0.999   4.979
33914SOL    HW2 3640  11.216   1.103   4.984
33915SOL     OW 3641   2.438   7.219   2.614
33915SOL    HW1 3642   2.374   7.266   2.668
33915SOL    HW2 3643   2.495   7.287   2.579
33916SOL     OW 3644   6.032   2.719   2.500
33916SOL    HW1 3645   6.099   2.654   2.519
33916SOL    HW2 3646   6.031   2.777   2.576
33917SOL     OW 3647  10.496  13.665   4.146
33917SOL    HW1 3648  10.576  13.671   4.093
33917SOL    HW2 3649  10.504  13.735   4.210
33918SOL     OW 3650   3.549   2.044   4.731
33918SOL    HW1 3651   3.565   2.032   4.637
33918SOL    HW2 3652   3.461   2.007   4.745
33919SOL     OW 3653   6.497   1.431   9.338
33919SOL    HW1 3654   6.428   1.393   9.284
33919SOL    HW2 3655   6.578   1.389   9.307
33920SOL     OW 3656  14.842  11.311  11.908
33920SOL    HW1 3657  14.796  11.329  11.827
33920SOL    HW2 3658  14.791  11.241  11.949
33921SOL     OW 3659  13.930   5.006   2.887
33921SOL    HW1 3660  13.878   4.926   2.902
33921SOL    HW2 3661  14.019   4.980   2.908
33922SOL     OW 3662   2.838  13.064   9.344
33922SOL    HW1 3663   2.912  13.010   9.319
33922SOL    HW2 3664   2.775  13.054   9.273
33923SOL     OW 3665   7.129   4.611  13.823
33923SOL    HW1 3666   7.214   4.596  13.866
33923SOL    HW2 3667   7.074   4.650  13.891
33924SOL     OW 3668  11.828   9.183   4.388
33924SOL    HW1 3669  11.879   9.107   4.358
33924SOL    HW2 3670  11.877   9.215   4.464
33925SOL     OW 3671   8.076   1.526  10.634
33925SOL    HW1 3672   8.105   1.453  10.688
33925SOL    HW2 3673   8.142   1.595  10.649
33926SOL     OW 3674   4.686  13.812   0.957
33926SOL    HW1 3675   4.608  13.846   1.002
33926SOL    HW2 3676   4.687  13.719   0.981
33927SOL     OW 3677   3.428   9.255   7.734
33927SOL    HW1 3678   3.417   9.162   7.753
33927SOL    HW2 3679   3.438   9.259   7.639
33928SOL     OW 3680   5.692   9.320   0.151
33928SOL    HW1 3681   5.751   9.257   0.192
33928SOL    HW2 3682   5.654   9.273   0.077
33929SOL     OW 3683  12.248   8.554  14.611
33929SOL    HW1 3684  12.231   8.631  14.556
33929SOL    HW2 3685  12.258   8.482  14.549
33930SOL     OW 3686   1.015  11.934   2.349
33930SOL    HW1 3687   0.936  11.918   2.402
33930SOL    HW2 3688   0.981  11.971   2.268
33931SOL     OW 3689   8.185   5.851   1.650
33931SOL    HW1 3690   8.200   5.817   1.738
33931SOL    HW2 3691   8.122   5.923   1.663
33932SOL     OW 3692   4.428  14.720   2.688
33932SOL    HW1 3693   4.479  14.765   2.755
33932SOL    HW2 3694   4.361  14.783   2.663
33933SOL     OW 3695  13.633   4.071  14.396
33933SOL    HW1 3696  13.615   4.041  14.485
33933SOL    HW2 3697  13.565   4.031  14.343
33934SOL     OW 3698   6.272  14.013   7.032
33934SOL    HW1 3699   6.291  14.005   6.939
33934SOL    HW2 3700   6.356  13.994   7.075
33935SOL     OW 3701   0.321   3.311   5.346
33935SOL    HW1 3702   0.259   3.335   5.415
33935SOL    HW2 3703   0.402   3.356   5.369
33936SOL     OW 3704   6.731   6.171  12.849
33936SOL    HW1 3705   6.638   6.188  12.861
33936SOL    HW2 3706   6.766   6.250  12.808
33937SOL     OW 3707  14.393  14.815   6.313
33937SOL    HW1 3708  14.475  14.805   6.361
33937SOL    HW2 3709  14.418  14.812   6.221
33938SOL     OW 3710   9.243   1.251   1.831
33938SOL    HW1 3711   9.308   1.217   1.893
33938SOL    HW2 3712   9.198   1.173   1.799
33939SOL     OW 3713   6.177   5.469  13.578
33939SOL    HW1 3714   6.186   5.561  13.555
33939SOL    HW2 3715   6.083   5.453  13.579
33940SOL     OW 3716  10.652   5.902  13.563
33940SOL    HW1 3717  10.622   5.906  13.654
33940SOL    HW2 3718  10.615   5.980  13.522
33941SOL     OW 3719  11.150   2.248   7.364
33941SOL    HW1 3720  11.092   2.312   7.322
33941SOL    HW2 3721  11.195   2.298   7.432
33942SOL     OW 3722  12.018   6.273   9.471
33942SOL    HW1 3723  12.026   6.368   9.470
33942SOL    HW2 3724  12.108   6.241   9.462
33943SOL     OW 3725   8.396   7.767   6.784
33943SOL    HW1 3726   8.489   7.751   6.766
33943SOL    HW2 3727   8.383   7.859   6.759
33944SOL     OW 3728   8.841   7.283  14.525
33944SOL    HW1 3729   8.808   7.372  14.538
33944SOL    HW2 3730   8.765   7.227  14.544
33945SOL     OW 3731   4.775  12.598   9.896
33945SOL    HW1 3732   4.824  12.561   9.823
33945SOL    HW2 3733   4.838  12.606   9.967
33946SOL     OW 3734  12.653   7.610   4.474
33946SOL    HW1 3735  12.677   7.658   4.395
33946SOL    HW2 3736  12.676   7.669   4.546
33947SOL     OW 3737   0.822   6.621   6.598
33947SOL    HW1 3738   0.809   6.663   6.683
33947SOL    HW2 3739   0.755   6.659   6.541
33948SOL     OW 3740   5.701   9.122  14.360
33948SOL    HW1 3741   5.750   9.113  14.279
33948SOL    HW2 3742   5.634   9.188  14.340
33949SOL     OW 3743   7.953   7.611   9.772
33949SOL    HW1 3744   7.965   7.676   9.703
33949SOL    HW2 3745   7.989   7.652   9.851
33950SOL     OW 3746   8.335  13.177  11.482
33950SOL    HW1 3747   8.249  13.179  11.439
33950SOL    HW2 3748   8.344  13.264  11.522
33951SOL     OW 3749   8.347   3.510   6.557
33951SOL    HW1 3750   8.389   3.592   6.582
33951SOL    HW2 3751   8.372   3.496   6.466
33952SOL     OW 3752   2.989  14.271   0.446
33952SOL    HW1 3753   2.909  14.285   0.396
33952SOL    HW2 3754   3.048  14.342   0.417
33953SOL     OW 3755   4.121   5.230   6.171
33953SOL    HW1 3756   4.124   5.156   6.111
33953SOL    HW2 3757   4.034   5.268   6.158
33954SOL     OW 3758   4.849   1.037  13.490
33954SOL    HW1 3759   4.767   1.072  13.524
33954SOL    HW2 3760   4.889   1.111  13.445
33955SOL     OW 3761   5.717   3.356  12.866
33955SOL    HW1 3762   5.707   3.263  12.887
33955SOL    HW2 3763   5.642   3.376  12.810
33956SOL     OW 3764   5.004   2.291   4.970
33956SOL    HW1 3765   5.042   2.357   4.913
33956SOL    HW2 3766   4.909   2.302   4.961
33957SOL     OW 3767   3.985  10.373   8.377
33957SOL    HW1 3768   3.924  10.404   8.444
33957SOL    HW2 3769   3.958  10.420   8.298
33958SOL     OW 3770   9.323   7.445   9.564
33958SOL    HW1 3771   9.310   7.373   9.503
33958SOL    HW2 3772   9.254   7.508   9.543
33959SOL     OW 3773   1.242   2.819   6.282
33959SOL    HW1 3774   1.336   2.828   6.300
33959SOL    HW2 3775   1.204   2.792   6.365
33960SOL     OW 3776   1.406   4.221   3.827
33960SOL    HW1 3777   1.434   4.235   3.917
33960SOL    HW2 3778   1.476   4.169   3.788
33961SOL     OW 3779   3.607   4.002  11.593
33961SOL    HW1 3780   3.700   3.992  11.574
33961SOL    HW2 3781   3.574   3.912  11.601
33962SOL     OW 3782   8.484  10.643   3.371
33962SOL    HW1 3783   8.457  10.703   3.301
33962SOL    HW2 3784   8.574  10.669   3.391
33963SOL     OW 3785  10.862   7.262   0.847
33963SOL    HW1 3786  10.955   7.246   0.835
33963SOL    HW2 3787  10.849   7.263   0.942
33964SOL     OW 3788  10.734   0.003   6.160
33964SOL    HW1 3789  10.777  14.857   6.080
33964SOL    HW2 3790  10.716   0.096   6.146
33965SOL     OW 3791   0.738  10.117   2.917
33965SOL    HW1 3792   0.758  10.058   2.845
33965SOL    HW2 3793   0.715  10.060   2.990
33966SOL     OW 3794   2.161   8.904   1.888
33966SOL    HW1 3795   2.250   8.871   1.878
33966SOL    HW2 3796   2.168   8.998   1.869
33967SOL     OW 3797   7.779   1.715   0.001
33967SOL    HW1 3798   7.732   1.757   0.074
33967SOL    HW2 3799   7.741   1.754  14.805
33968SOL     OW 3800  13.899  12.209   9.853
33968SOL    HW1 3801  13.808  12.181   9.840
33968SOL    HW2 3802  13.906  12.225   9.947
33969SOL     OW 3803   5.601  10.101   8.877
33969SOL    HW1 3804   5.661  10.067   8.810
33969SOL    HW2 3805   5.652  10.166   8.924
33970SOL     OW 3806  14.003  14.422   0.219
33970SOL    HW1 3807  14.043  14.507   0.204
33970SOL    HW2 3808  14.074  14.359   0.209
33971SOL     OW 3809   1.659   2.660   2.959
33971SOL    HW1 3810   1.641   2.703   2.876
33971SOL    HW2 3811   1.575   2.624   2.986
33972SOL     OW 3812   9.317   7.567   7.580
33972SOL    HW1 3813   9.280   7.610   7.657
33972SOL    HW2 3814   9.350   7.640   7.526
33973SOL     OW 3815   8.890   1.025   4.651
33973SOL    HW1 3816   8.859   0.940   4.619
33973SOL    HW2 3817   8.923   1.069   4.574
33974SOL     OW 3818  12.809   1.082  14.391
33974SOL    HW1 3819  12.850   0.997  14.379
33974SOL    HW2 3820  12.881   1.145  14.383
33975SOL     OW 3821   6.857  14.233  14.485
33975SOL    HW1 3822   6.934  14.287  14.469
33975SOL    HW2 3823   6.868  14.157  14.427
33976SOL     OW 3824   8.080   4.818  11.922
33976SOL    HW1 3825   8.141   4.883  11.888
33976SOL    HW2 3826   8.077   4.835  12.017
33977SOL     OW 3827   8.143   1.249  10.997
33977SOL    HW1 3828   8.149   1.331  11.045
33977SOL    HW2 3829   8.230   1.210  11.005
33978SOL     OW 3830   6.059   7.464  11.076
33978SOL    HW1 3831   6.104   7.437  11.156
33978SOL    HW2 3832   6.016   7.384  11.045
33979SOL     OW 3833  12.855  12.837   8.167
33979SOL    HW1 3834  12.941  12.826   8.207
33979SOL    HW2 3835  12.854  12.928   8.136
33980SOL     OW 3836  10.927   8.664  12.363
33980SOL    HW1 3837  10.980   8.739  12.390
33980SOL    HW2 3838  10.844   8.675  12.409
33981SOL     OW 3839  10.792   4.908   1.719
33981SOL    HW1 3840  10.885   4.889   1.707
33981SOL    HW2 3841  10.756   4.828   1.758
33982SOL     OW 3842   4.921  11.056   9.659
33982SOL    HW1 3843   4.894  10.964   9.658
33982SOL    HW2 3844   4.929  11.078   9.752
33983SOL     OW 3845   6.271   1.329  10.152
33983SOL    HW1 3846   6.218   1.357  10.227
33983SOL    HW2 3847   6.340   1.395  10.145
33984SOL     OW 3848   9.977  12.191   6.139
33984SOL    HW1 3849   9.966  12.130   6.066
33984SOL    HW2 3850   9.972  12.277   6.099
33985SOL     OW 3851  10.993   2.729  13.058
33985SOL    HW1 3852  11.075   2.683  13.076
33985SOL    HW2 3853  10.969   2.703  12.969
33986SOL     OW 3854  10.560   4.561   4.129
33986SOL    HW1 3855  10.555   4.572   4.224
33986SOL    HW2 3856  10.556   4.466   4.115
33987SOL     OW 3857   3.193   2.697  10.677
33987SOL    HW1 3858   3.221   2.701  10.769
33987SOL    HW2 3859   3.264   2.650  10.633
33988SOL     OW 3860  12.522  10.423   9.270
33988SOL    HW1 3861  12.524  10.517   9.251
33988SOL    HW2 3862  12.430  10.398   9.262
33989SOL     OW 3863   2.867   3.138  11.998
33989SOL    HW1 3864   2.952   3.164  12.035
33989SOL    HW2 3865   2.813   3.116  12.073
33990SOL     OW 3866   9.294  11.912   2.097
33990SOL    HW1 3867   9.280  12.001   2.066
33990SOL    HW2 3868   9.339  11.868   2.025
33991SOL     OW 3869   3.272   7.719   2.305
33991SOL    HW1 3870   3.314   7.783   2.362
33991SOL    HW2 3871   3.337   7.648   2.297
33992SOL     OW 3872  10.186   7.631   9.233
33992SOL    HW1 3873  10.219   7.698   9.293
33992SOL    HW2 3874  10.259   7.572   9.218
33993SOL     OW 3875   0.518  10.513   7.762
33993SOL    HW1 3876   0.557  10.597   7.735
33993SOL    HW2 3877   0.424  10.531   7.766
33994SOL     OW 3878   2.843  14.041  13.790
33994SOL    HW1 3879   2.787  13.968  13.762
33994SOL    HW2 3880   2.800  14.075  13.869
33995SOL     OW 3881   2.761   9.312  10.581
33995SOL    HW1 3882   2.711   9.383  10.620
33995SOL    HW2 3883   2.802   9.350  10.504
33996SOL     OW 3884   9.506   4.768   4.697
33996SOL    HW1 3885   9.536   4.831   4.633
33996SOL    HW2 3886   9.445   4.712   4.649
33997SOL     OW 3887   1.234   7.169  12.699
33997SOL    HW1 3888   1.301   7.234  12.677
33997SOL    HW2 3889   1.151   7.211  12.676
33998SOL     OW 3890   3.560   2.449   7.317
33998SOL    HW1 3891   3.504   2.382   7.356
33998SOL    HW2 3892   3.536   2.450   7.225
33999SOL     OW 3893   9.258  14.628   6.039
33999SOL    HW1 3894   9.175  14.603   5.999
33999SOL    HW2 3895   9.274  14.717   6.008
34000SOL     OW 3896   5.745   8.051   0.331
34000SOL    HW1 3897   5.746   7.956   0.334
34000SOL    HW2 3898   5.697   8.073   0.250
34001SOL     OW 3899   2.848   9.579   7.307
34001SOL    HW1 3900   2.900   9.499   7.313
34001SOL    HW2 3901   2.778   9.557   7.245
34002SOL     OW 3902   3.680   1.777   0.816
34002SOL    HW1 3903   3.727   1.846   0.863
34002SOL    HW2 3904   3.750   1.724   0.776
34003SOL     OW 3905  13.487   3.283  14.023
34003SOL    HW1 3906  13.450   3.322  13.943
34003SOL    HW2 3907  13.485   3.354  14.087
34004SOL     OW 3908   6.539   0.336   5.006
34004SOL    HW1 3909   6.601   0.324   5.078
34004SOL    HW2 3910   6.502   0.423   5.021
34005SOL     OW 3911   3.803   2.487   0.189
34005SOL    HW1 3912   3.841   2.516   0.107
34005SOL    HW2 3913   3.736   2.423   0.164
34006SOL     OW 3914   7.740   1.594  12.044
34006SOL    HW1 3915   7.675   1.541  11.996
34006SOL    HW2 3916   7.824   1.557  12.018
34007SOL     OW 3917   7.308  10.974   2.235
34007SOL    HW1 3918   7.311  11.070   2.239
34007SOL    HW2 3919   7.396  10.946   2.259
34008SOL     OW 3920   7.046   8.149  13.056
34008SOL    HW1 3921   7.134   8.135  13.020
34008SOL    HW2 3922   7.006   8.061  13.054
34009SOL     OW 3923  13.991   1.894  10.300
34009SOL    HW1 3924  14.001   1.935  10.386
34009SOL    HW2 3925  13.979   1.801  10.319
34010SOL     OW 3926   9.538   1.592   5.468
34010SOL    HW1 3927   9.582   1.508   5.457
34010SOL    HW2 3928   9.568   1.624   5.553
34011SOL     OW 3929   4.407  14.671  13.879
34011SOL    HW1 3930   4.383  14.745  13.934
34011SOL    HW2 3931   4.454  14.709  13.805
34012SOL     OW 3932  13.658  10.575  12.258
34012SOL    HW1 3933  13.659  10.485  12.292
34012SOL    HW2 3934  13.742  10.611  12.286
34013SOL     OW 3935  12.429   9.888   8.632
34013SOL    HW1 3936  12.405   9.963   8.579
34013SOL    HW2 3937  12.492   9.840   8.579
34014SOL     OW 3938   0.938   1.827   0.381
34014SOL    HW1 3939   0.976   1.869   0.459
34014SOL    HW2 3940   1.005   1.836   0.314
34015SOL     OW 3941   8.973  11.009   5.050
34015SOL    HW1 3942   9.020  11.022   4.967
34015SOL    HW2 3943   8.882  10.997   5.024
34016SOL     OW 3944   8.007   7.500   7.109
34016SOL    HW1 3945   7.932   7.509   7.167
34016SOL    HW2 3946   8.083   7.497   7.167
34017SOL     OW 3947  11.958   6.072   8.793
34017SOL    HW1 3948  11.966   6.144   8.730
34017SOL    HW2 3949  12.043   6.029   8.791
34018SOL     OW 3950  10.908   5.859  11.157
34018SOL    HW1 3951  10.923   5.772  11.121
34018SOL    HW2 3952  10.936   5.852  11.249
34019SOL     OW 3953   8.501  13.580  10.146
34019SOL    HW1 3954   8.547  13.511  10.194
34019SOL    HW2 3955   8.425  13.537  10.108
34020SOL     OW 3956   6.048   7.437   9.226
34020SOL    HW1 3957   6.109   7.382   9.275
34020SOL    HW2 3958   6.090   7.450   9.141
34021SOL     OW 3959   1.015   9.300   7.895
34021SOL    HW1 3960   0.940   9.349   7.930
34021SOL    HW2 3961   1.055   9.360   7.832
34022SOL     OW 3962  12.762  13.696   4.657
34022SOL    HW1 3963  12.750  13.774   4.603
34022SOL    HW2 3964  12.771  13.728   4.746
34023SOL     OW 3965  12.696   2.936   1.061
34023SOL    HW1 3966  12.757   2.867   1.087
34023SOL    HW2 3967  12.664   2.909   0.975
34024SOL     OW 3968   9.534   1.974   7.291
34024SOL    HW1 3969   9.560   2.059   7.255
34024SOL    HW2 3970   9.439   1.974   7.289
34025SOL     OW 3971   7.091   3.480  10.694
34025SOL    HW1 3972   7.066   3.540  10.624
34025SOL    HW2 3973   7.174   3.441  10.665
34026SOL     OW 3974   5.933  11.476   0.899
34026SOL    HW1 3975   5.949  11.541   0.968
34026SOL    HW2 3976   6.019  11.437   0.883
34027SOL     OW 3977   9.724   9.689   0.019
34027SOL    HW1 3978   9.644   9.639   0.000
34027SOL    HW2 3979   9.714   9.715   0.111
34028SOL     OW 3980  12.807  14.851   8.753
34028SOL    HW1 3981  12.828   0.047   8.804
34028SOL    HW2 3982  12.828  14.876   8.663
34029SOL     OW 3983  12.730  12.709   4.046
34029SOL    HW1 3984  12.777  12.731   3.966
34029SOL    HW2 3985  12.798  12.676   4.105
34030SOL     OW 3986  10.632   7.210   5.462
34030SOL    HW1 3987  10.722   7.185   5.440
34030SOL    HW2 3988  10.642   7.292   5.511
34031SOL     OW 3989   6.987   1.171   5.294
34031SOL    HW1 3990   6.940   1.248   5.325
34031SOL    HW2 3991   7.020   1.196   5.209
34032SOL     OW 3992   2.789   9.044   9.720
34032SOL    HW1 3993   2.780   8.982   9.647
34032SOL    HW2 3994   2.761   8.995   9.797
34033SOL     OW 3995   9.036   4.880   4.303
34033SOL    HW1 3996   8.981   4.804   4.283
34033SOL    HW2 3997   9.085   4.897   4.223
34034SOL     OW 3998  10.245  11.085   1.449
34034SOL    HW1 3999  10.286  11.022   1.508
34034SOL    HW2 4000  10.313  11.108   1.386
34035SOL     OW 4001   3.839   6.413   7.776
34035SOL    HW1 4002   3.784   6.337   7.795
34035SOL    HW2 4003   3.810   6.479   7.840
34036SOL     OW 4004   0.961   5.034  12.128
34036SOL    HW1 4005   0.969   5.046  12.223
34036SOL    HW2 4006   1.011   5.107  12.091
34037SOL     OW 4007   5.157   4.130  11.023
34037SOL    HW1 4008   5.111   4.069  10.965
34037SOL    HW2 4009   5.096   4.145  11.095
34038SOL     OW 4010  13.769  12.701  12.396
34038SOL    HW1 4011  13.746  12.782  12.442
34038SOL    HW2 4012  13.861  12.712  12.373
34039SOL     OW 4013  10.374   9.194   4.207
34039SOL    HW1 4014  10.326   9.154   4.280
34039SOL    HW2 4015  10.455   9.227   4.247
34040SOL     OW 4016   1.061   8.939  11.442
34040SOL    HW1 4017   0.997   8.872  11.466
34040SOL    HW2 4018   1.101   8.965  11.525
34041SOL     OW 4019  12.702  14.313  10.201
34041SOL    HW1 4020  12.707  14.387  10.262
34041SOL    HW2 4021  12.613  14.315  10.167
34042SOL     OW 4022   3.820   0.085  13.088
34042SOL    HW1 4023   3.908   0.121  13.093
34042SOL    HW2 4024   3.770   0.131  13.155
34043SOL     OW 4025   2.805   7.622   9.737
34043SOL    HW1 4026   2.875   7.616   9.801
34043SOL    HW2 4027   2.839   7.579   9.659
34044SOL     OW 4028   9.026   1.830  11.558
34044SOL    HW1 4029   8.992   1.750  11.598
34044SOL    HW2 4030   9.059   1.802  11.473
34045SOL     OW 4031   9.416   7.866   5.941
34045SOL    HW1 4032   9.408   7.835   6.031
34045SOL    HW2 4033   9.401   7.960   5.946
34046SOL     OW 4034  11.007   4.906   6.258
34046SOL    HW1 4035  10.918   4.936   6.271
34046SOL    HW2 4036  10.999   4.811   6.249
34047SOL     OW 4037  12.996  12.690  12.973
34047SOL    HW1 4038  12.987  12.718  13.064
34047SOL    HW2 4039  13.015  12.770  12.924
34048SOL     OW 4040   9.981   2.166  13.014
34048SOL    HW1 4041   9.989   2.258  13.038
34048SOL    HW2 4042  10.030   2.119  13.081
34049SOL     OW 4043   9.840   5.484   9.919
34049SOL    HW1 4044   9.890   5.546   9.973
34049SOL    HW2 4045   9.890   5.478   9.837
34050SOL     OW 4046   9.057   1.219  12.130
34050SOL    HW1 4047   9.043   1.139  12.179
34050SOL    HW2 4048   8.987   1.220  12.064
34051SOL     OW 4049   5.066   5.234  13.935
34051SOL    HW1 4050   5.157   5.217  13.959
34051SOL    HW2 4051   5.045   5.167  13.870
34052SOL     OW 4052   9.478  13.127   7.491
34052SOL    HW1 4053   9.469  13.205   7.436
34052SOL    HW2 4054   9.519  13.159   7.571
34053SOL     OW 4055  14.229   5.886   1.855
34053SOL    HW1 4056  14.253   5.830   1.929
34053SOL    HW2 4057  14.153   5.936   1.886
34054SOL     OW 4058   2.920   4.948   6.440
34054SOL    HW1 4059   2.992   4.948   6.377
34054SOL    HW2 4060   2.874   5.030   6.424
34055SOL     OW 4061  11.059   9.080   7.621
34055SOL    HW1 4062  11.125   9.060   7.555
34055SOL    HW2 4063  10.984   9.025   7.599
34056SOL     OW 4064  13.085   5.438  13.321
34056SOL    HW1 4065  12.999   5.408  13.295
34056SOL    HW2 4066  13.098   5.519  13.272
34057SOL     OW 4067   2.732   6.480  11.781
34057SOL    HW1 4068   2.731   6.396  11.733
34057SOL    HW2 4069   2.819   6.516  11.765
34058SOL     OW 4070  10.016   4.171  12.964
34058SOL    HW1 4071   9.980   4.082  12.962
34058SOL    HW2 4072  10.109   4.158  12.986
34059SOL     OW 4073   6.613  12.045  11.023
34059SOL    HW1 4074   6.528  12.078  10.993
34059SOL    HW2 4075   6.592  11.965  11.071
34060SOL     OW 4076   2.704   1.145  10.067
34060SOL    HW1 4077   2.775   1.157  10.130
34060SOL    HW2 4078   2.629   1.116  10.119
34061SOL     OW 4079   0.479   8.205  14.285
34061SOL    HW1 4080   0.509   8.268  14.219
34061SOL    HW2 4081   0.557   8.154  14.307
34062SOL     OW 4082   5.727   0.866   0.590
34062SOL    HW1 4083   5.678   0.948   0.591
34062SOL    HW2 4084   5.772   0.864   0.675
34063SOL     OW 4085   2.811  12.894   8.164
34063SOL    HW1 4086   2.762  12.972   8.139
34063SOL    HW2 4087   2.752  12.821   8.147
34064SOL     OW 4088   9.501   6.454   8.632
34064SOL    HW1 4089   9.496   6.526   8.695
34064SOL    HW2 4090   9.595   6.436   8.623
34065SOL     OW 4091   3.460  11.024   8.769
34065SOL    HW1 4092   3.477  11.069   8.686
34065SOL    HW2 4093   3.388  10.963   8.749
34066SOL     OW 4094  12.241   1.678   3.890
34066SOL    HW1 4095  12.159   1.696   3.937
34066SOL    HW2 4096  12.301   1.746   3.920
34067SOL     OW 4097   4.668   8.565  11.553
34067SOL    HW1 4098   4.634   8.554  11.464
34067SOL    HW2 4099   4.590   8.579  11.607
34068SOL     OW 4100   6.906   4.316  14.273
34068SOL    HW1 4101   6.967   4.367  14.326
34068SOL    HW2 4102   6.882   4.374  14.201
34069SOL     OW 4103  12.723   7.934   7.866
34069SOL    HW1 4104  12.647   7.876   7.857
34069SOL    HW2 4105  12.751   7.923   7.957
34070SOL     OW 4106  13.988   2.585   8.178
34070SOL    HW1 4107  14.047   2.656   8.204
34070SOL    HW2 4108  14.036   2.535   8.113
34071SOL     OW 4109   3.940   4.416  12.830
34071SOL    HW1 4110   3.958   4.509  12.816
34071SOL    HW2 4111   4.015   4.371  12.792
34072SOL     OW 4112   3.501  13.804  13.116
34072SOL    HW1 4113   3.533  13.804  13.026
34072SOL    HW2 4114   3.434  13.735  13.118
34073SOL     OW 4115   2.591   8.957   0.684
34073SOL    HW1 4116   2.586   8.918   0.597
34073SOL    HW2 4117   2.526   8.908   0.735
34074SOL     OW 4118  11.023   8.628   4.724
34074SOL    HW1 4119  11.097   8.614   4.665
34074SOL    HW2 4120  11.005   8.542   4.762
34075SOL     OW 4121  12.273  12.212  12.301
34075SOL    HW1 4122  12.313  12.236  12.218
34075SOL    HW2 4123  12.253  12.119  12.293
34076SOL     OW 4124   3.386   4.768   8.534
34076SOL    HW1 4125   3.319   4.810   8.480
34076SOL    HW2 4126   3.396   4.825   8.609
34077SOL     OW 4127   5.080  11.509   9.306
34077SOL    HW1 4128   5.022  11.533   9.378
34077SOL    HW2 4129   5.022  11.465   9.243
34078SOL     OW 4130   3.679   4.073  10.725
34078SOL    HW1 4131   3.697   4.032  10.810
34078SOL    HW2 4132   3.762   4.114  10.700
34079SOL     OW 4133   8.535   7.436  13.622
34079SOL    HW1 4134   8.488   7.519  13.627
34079SOL    HW2 4135   8.495   7.383  13.691
34080SOL     OW 4136   4.872   8.408   7.411
34080SOL    HW1 4137   4.787   8.445   7.435
34080SOL    HW2 4138   4.931   8.483   7.407
34081SOL     OW 4139   7.085   5.777  13.000
34081SOL    HW1 4140   7.056   5.850  13.056
34081SOL    HW2 4141   7.013   5.765  12.938
34082SOL     OW 4142   9.743  12.054   9.999
34082SOL    HW1 4143   9.809  11.984   9.999
34082SOL    HW2 4144   9.783  12.124  10.051
34083SOL     OW 4145   9.802  13.575  10.442
34083SOL    HW1 4146   9.792  13.657  10.490
34083SOL    HW2 4147   9.851  13.518  10.501
34084SOL     OW 4148   8.833  14.245   1.804
34084SOL    HW1 4149   8.843  14.340   1.815
34084SOL    HW2 4150   8.833  14.232   1.709
34085SOL     OW 4151   6.269  11.086   7.439
34085SOL    HW1 4152   6.357  11.066   7.407
34085SOL    HW2 4153   6.253  11.176   7.412
34086SOL     OW 4154   7.975   8.419  13.964
34086SOL    HW1 4155   8.058   8.436  14.009
34086SOL    HW2 4156   7.980   8.327  13.937
34087SOL     OW 4157   3.539   4.110   5.327
34087SOL    HW1 4158   3.600   4.065   5.385
34087SOL    HW2 4159   3.467   4.137   5.383
34088SOL     OW 4160   3.823   7.483   5.413
34088SOL    HW1 4161   3.917   7.503   5.414
34088SOL    HW2 4162   3.816   7.396   5.452
34089SOL     OW 4163  12.063  13.215  10.237
34089SOL    HW1 4164  12.084  13.248  10.149
34089SOL    HW2 4165  12.118  13.267  10.295
34090SOL     OW 4166   8.655   1.358   3.064
34090SOL    HW1 4167   8.565   1.326   3.064
34090SOL    HW2 4168   8.654   1.434   3.005
34091SOL     OW 4169   8.283  13.930   9.694
34091SOL    HW1 4170   8.271  13.870   9.620
34091SOL    HW2 4171   8.366  13.974   9.675
34092SOL     OW 4172   0.787  14.421  12.049
34092SOL    HW1 4173   0.880  14.435  12.068
34092SOL    HW2 4174   0.741  14.459  12.124
34093SOL     OW 4175   8.092   7.404   5.332
34093SOL    HW1 4176   8.008   7.390   5.375
34093SOL    HW2 4177   8.072   7.395   5.238
34094SOL     OW 4178  12.874   4.156   9.676
34094SOL    HW1 4179  12.900   4.224   9.738
34094SOL    HW2 4180  12.934   4.165   9.603
34095SOL     OW 4181   1.756   7.601  12.327
34095SOL    HW1 4182   1.781   7.692  12.345
34095SOL    HW2 4183   1.814   7.575  12.255
34096SOL     OW 4184   8.468   7.058   0.007
34096SOL    HW1 4185   8.519   7.050   0.087
34096SOL    HW2 4186   8.460   7.152  14.874
34097SOL     OW 4187  10.203   0.290   7.775
34097SOL    HW1 4188  10.294   0.270   7.753
34097SOL    HW2 4189  10.173   0.346   7.703
34098SOL     OW 4190   0.092   5.743   4.819
34098SOL    HW1 4191   0.161   5.715   4.880
34098SOL    HW2 4192   0.056   5.823   4.859
34099SOL     OW 4193   6.924  13.240   2.718
34099SOL    HW1 4194   6.917  13.324   2.762
34099SOL    HW2 4195   6.867  13.181   2.768
34100SOL     OW 4196  14.443   7.172   2.277
34100SOL    HW1 4197  14.423   7.108   2.346
34100SOL    HW2 4198  14.462   7.119   2.200
34101SOL     OW 4199  10.889   9.687   2.736
34101SOL    HW1 4200  10.965   9.745   2.734
34101SOL    HW2 4201  10.850   9.695   2.649
34102SOL     OW 4202   5.108   2.331  13.974
34102SOL    HW1 4203   5.162   2.322  13.895
34102SOL    HW2 4204   5.171   2.345  14.045
34103SOL     OW 4205  13.317  12.725  12.137
34103SOL    HW1 4206  13.232  12.744  12.175
34103SOL    HW2 4207  13.354  12.656  12.192
34104SOL     OW 4208   9.424  10.016   9.107
34104SOL    HW1 4209   9.491   9.948   9.111
34104SOL    HW2 4210   9.401  10.032   9.198
34105SOL     OW 4211   1.033  10.345   0.292
34105SOL    HW1 4212   1.097  10.361   0.223
34105SOL    HW2 4213   1.083  10.299   0.360
34106SOL     OW 4214   8.593  13.298   7.324
34106SOL    HW1 4215   8.605  13.365   7.257
34106SOL    HW2 4216   8.503  13.310   7.355
34107SOL     OW 4217  12.791   4.592  10.607
34107SOL    HW1 4218  12.794   4.671  10.660
34107SOL    HW2 4219  12.843   4.613  10.530
34108SOL     OW 4220   4.000   8.633   8.027
34108SOL    HW1 4221   4.007   8.621   8.122
34108SOL    HW2 4222   3.937   8.703   8.017
34109SOL     OW 4223  10.944  10.355   9.409
34109SOL    HW1 4224  10.973  10.291   9.344
34109SOL    HW2 4225  10.919  10.303   9.485
34110SOL     OW 4226   6.947   6.253  14.543
34110SOL    HW1 4227   6.913   6.212  14.622
34110SOL    HW2 4228   7.002   6.186  14.503
34111SOL     OW 4229  14.163   7.389   1.488
34111SOL    HW1 4230  14.241   7.440   1.509
34111SOL    HW2 4231  14.129   7.427   1.408
34112SOL     OW 4232   6.624   3.351  11.353
34112SOL    HW1 4233   6.612   3.446  11.347
34112SOL    HW2 4234   6.543   3.314  11.318
34113SOL     OW 4235   9.544   1.006   0.055
34113SOL    HW1 4236   9.602   0.957   0.113
34113SOL    HW2 4237   9.469   0.948   0.042
34114SOL     OW 4238   1.462   7.471  11.319
34114SOL    HW1 4239   1.445   7.481  11.225
34114SOL    HW2 4240   1.530   7.536  11.338
34115SOL     OW 4241   9.125  13.574  10.043
34115SOL    HW1 4242   9.088  13.486  10.041
34115SOL    HW2 4243   9.166  13.585   9.957
34116SOL     OW 4244   3.832  10.988  12.753
34116SOL    HW1 4245   3.903  10.997  12.816
34116SOL    HW2 4246   3.854  11.049  12.683
34117SOL     OW 4247   6.608  14.271   3.238
34117SOL    HW1 4248   6.570  14.229   3.315
34117SOL    HW2 4249   6.636  14.357   3.268
34118SOL     OW 4250   1.740  11.746  14.504
34118SOL    HW1 4251   1.692  11.772  14.583
34118SOL    HW2 4252   1.681  11.768  14.432
34119SOL     OW 4253   5.813  12.714  12.960
34119SOL    HW1 4254   5.840  12.646  12.899
34119SOL    HW2 4255   5.764  12.776  12.907
34120SOL     OW 4256   3.116   2.097   6.986
34120SOL    HW1 4257   3.148   2.150   6.913
34120SOL    HW2 4258   3.067   2.158   7.041
34121SOL     OW 4259   9.350  10.854   5.449
34121SOL    HW1 4260   9.262  10.848   5.410
34121SOL    HW2 4261   9.342  10.922   5.515
34122SOL     OW 4262   7.256  10.788   8.336
34122SOL    HW1 4263   7.234  10.805   8.244
34122SOL    HW2 4264   7.186  10.829   8.386
34123SOL     OW 4265   6.040   1.613   4.642
34123SOL    HW1 4266   6.035   1.687   4.702
34123SOL    HW2 4267   6.133   1.601   4.626
34124SOL     OW 4268   0.761  13.485   2.564
34124SOL    HW1 4269   0.767  13.397   2.600
34124SOL    HW2 4270   0.833  13.533   2.606
34125SOL     OW 4271   1.327   9.707   5.590
34125SOL    HW1 4272   1.245   9.758   5.590
34125SOL    HW2 4273   1.377   9.742   5.517
34126SOL     OW 4274   5.278   9.776  12.233
34126SOL    HW1 4275   5.306   9.710  12.171
34126SOL    HW2 4276   5.239   9.845  12.179
34127SOL     OW 4277   2.690  13.749   0.721
34127SOL    HW1 4278   2.759  13.685   0.737
34127SOL    HW2 4279   2.661  13.731   0.632
34128SOL     OW 4280  10.177  14.316   2.353
34128SOL    HW1 4281  10.091  14.294   2.317
34128SOL    HW2 4282  10.166  14.405   2.387
34129SOL     OW 4283   5.134   7.791   3.473
34129SOL    HW1 4284   5.168   7.701   3.475
34129SOL    HW2 4285   5.122   7.809   3.379
34130SOL     OW 4286  12.494   6.769   0.054
34130SOL    HW1 4287  12.413   6.750   0.101
34130SOL    HW2 4288  12.492   6.864   0.040
34131SOL     OW 4289  10.686   4.307  12.997
34131SOL    HW1 4290  10.611   4.266  12.954
34131SOL    HW2 4291  10.726   4.236  13.048
34132SOL     OW 4292  13.949  11.701  11.650
34132SOL    HW1 4293  13.910  11.756  11.718
34132SOL    HW2 4294  13.874  11.657  11.609
34133SOL     OW 4295   6.740  12.749   8.136
34133SOL    HW1 4296   6.679  12.685   8.100
34133SOL    HW2 4297   6.699  12.778   8.218
34134SOL     OW 4298   3.173   9.668   8.869
34134SOL    HW1 4299   3.151   9.732   8.801
34134SOL    HW2 4300   3.149   9.583   8.831
34135SOL     OW 4301   5.299  11.341   9.012
34135SOL    HW1 4302   5.223  11.309   8.963
34135SOL    HW2 4303   5.360  11.372   8.945
34136SOL     OW 4304   2.671   3.637  14.324
34136SOL    HW1 4305   2.653   3.553  14.281
34136SOL    HW2 4306   2.674   3.615  14.418
34137SOL     OW 4307   1.245  12.364  11.213
34137SOL    HW1 4308   1.234  12.344  11.306
34137SOL    HW2 4309   1.311  12.303  11.183
34138SOL     OW 4310   4.543   9.232   3.441
34138SOL    HW1 4311   4.561   9.323   3.416
34138SOL    HW2 4312   4.467   9.207   3.388
34139SOL     OW 4313  10.550   5.984   7.279
34139SOL    HW1 4314  10.531   5.898   7.318
34139SOL    HW2 4315  10.466   6.013   7.244
34140SOL     OW 4316  14.320   5.676   7.560
34140SOL    HW1 4317  14.311   5.650   7.651
34140SOL    HW2 4318  14.413   5.695   7.550
34141SOL     OW 4319   8.601   7.825   5.104
34141SOL    HW1 4320   8.678   7.768   5.108
34141SOL    HW2 4321   8.554   7.807   5.185
34142SOL     OW 4322  10.017   4.422  12.873
34142SOL    HW1 4323   9.991   4.335  12.904
34142SOL    HW2 4324   9.986   4.481  12.941
34143SOL     OW 4325   7.938   4.357   8.510
34143SOL    HW1 4326   8.003   4.424   8.531
34143SOL    HW2 4327   7.857   4.405   8.497
34144SOL     OW 4328   6.537   7.729  12.866
34144SOL    HW1 4329   6.448   7.716  12.900
34144SOL    HW2 4330   6.553   7.653  12.811
34145SOL     OW 4331   9.808   8.091   5.410
34145SOL    HW1 4332   9.856   8.034   5.471
34145SOL    HW2 4333   9.763   8.031   5.351
34146SOL     OW 4334   5.010   9.374   9.708
34146SOL    HW1 4335   5.105   9.380   9.702
34146SOL    HW2 4336   4.992   9.280   9.712
34147SOL     OW 4337   8.564  13.230  14.034
34147SOL    HW1 4338   8.493  13.242  14.098
34147SOL    HW2 4339   8.642  13.216  14.087
34148SOL     OW 4340   3.453   2.583  14.093
34148SOL    HW1 4341   3.435   2.533  14.014
34148SOL    HW2 4342   3.520   2.533  14.139
34149SOL     OW 4343   1.838   5.505   7.419
34149SOL    HW1 4344   1.918   5.475   7.464
34149SOL    HW2 4345   1.772   5.510   7.488
34150SOL     OW 4346   0.541  13.736   2.728
34150SOL    HW1 4347   0.616  13.729   2.788
34150SOL    HW2 4348   0.572  13.795   2.659
34151SOL     OW 4349  10.765   7.101  13.391
34151SOL    HW1 4350  10.753   7.027  13.331
34151SOL    HW2 4351  10.836   7.073  13.449
34152SOL     OW 4352   4.117  11.713  11.723
34152SOL    HW1 4353   4.094  11.628  11.686
34152SOL    HW2 4354   4.211  11.706  11.742
34153SOL     OW 4355   0.074   2.055   4.666
34153SOL    HW1 4356   0.169   2.059   4.676
34153SOL    HW2 4357   0.060   2.010   4.583
34154SOL     OW 4358   4.380  10.719   2.125
34154SOL    HW1 4359   4.288  10.707   2.103
34154SOL    HW2 4360   4.414  10.777   2.056
34155SOL     OW 4361  14.605   8.270  10.789
34155SOL    HW1 4362  14.541   8.216  10.835
34155SOL    HW2 4363  14.671   8.208  10.758
34156SOL     OW 4364   2.744   2.577   5.070
34156SOL    HW1 4365   2.767   2.587   5.162
34156SOL    HW2 4366   2.656   2.539   5.071
34157SOL     OW 4367  11.090   7.349  10.229
34157SOL    HW1 4368  11.150   7.382  10.295
34157SOL    HW2 4369  11.060   7.264  10.263
34158SOL     OW 4370   9.036   6.419   4.513
34158SOL    HW1 4371   8.967   6.423   4.579
34158SOL    HW2 4372   8.993   6.385   4.434
34159SOL     OW 4373   4.133   2.816  13.300
34159SOL    HW1 4374   4.195   2.889  13.305
34159SOL    HW2 4375   4.048   2.857  13.283
34160SOL     OW 4376   0.322   2.279  14.067
34160SOL    HW1 4377   0.276   2.335  14.005
34160SOL    HW2 4378   0.254   2.224  14.106
34161SOL     OW 4379   1.690   4.346  14.232
34161SOL    HW1 4380   1.719   4.411  14.297
34161SOL    HW2 4381   1.613   4.306  14.271
34162SOL     OW 4382   2.221   3.615   8.511
34162SOL    HW1 4383   2.177   3.641   8.430
34162SOL    HW2 4384   2.305   3.578   8.482
34163SOL     OW 4385  13.130  14.645  11.942
34163SOL    HW1 4386  13.224  14.627  11.947
34163SOL    HW2 4387  13.102  14.654  12.033
34164SOL     OW 4388  14.649   9.545  12.872
34164SOL    HW1 4389  14.597   9.472  12.907
34164SOL    HW2 4390  14.740   9.522  12.893
34165SOL     OW 4391  14.365   3.863   1.949
34165SOL    HW1 4392  14.346   3.948   1.987
34165SOL    HW2 4393  14.434   3.880   1.885
34166SOL     OW 4394  10.311   9.836  14.687
34166SOL    HW1 4395  10.240   9.820  14.749
34166SOL    HW2 4396  10.352   9.751  14.674
34167SOL     OW 4397  10.504   8.996   5.922
34167SOL    HW1 4398  10.452   9.066   5.881
34167SOL    HW2 4399  10.497   9.012   6.016
34168SOL     OW 4400  13.611   5.703   6.284
34168SOL    HW1 4401  13.538   5.705   6.222
34168SOL    HW2 4402  13.579   5.749   6.361
34169SOL     OW 4403   5.296   9.008   2.144
34169SOL    HW1 4404   5.263   9.046   2.062
34169SOL    HW2 4405   5.217   8.994   2.197
34170SOL     OW 4406   8.161   0.114  13.436
34170SOL    HW1 4407   8.234   0.156  13.481
34170SOL    HW2 4408   8.145   0.169  13.359
34171SOL     OW 4409  10.646  13.872   0.304
34171SOL    HW1 4410  10.573  13.887   0.243
34171SOL    HW2 4411  10.721  13.852   0.248
34172SOL     OW 4412   2.696   9.499   1.304
34172SOL    HW1 4413   2.677   9.590   1.279
34172SOL    HW2 4414   2.788   9.501   1.333
34173SOL     OW 4415   0.084  14.170   2.949
34173SOL    HW1 4416  14.882  14.124   2.944
34173SOL    HW2 4417   0.100  14.179   3.043
34174SOL     OW 4418   6.331   9.031  13.964
34174SOL    HW1 4419   6.252   9.084  13.956
34174SOL    HW2 4420   6.356   9.037  14.056
34175SOL     OW 4421   5.775   1.545   7.186
34175SOL    HW1 4422   5.862   1.513   7.167
34175SOL    HW2 4423   5.720   1.511   7.115
34176SOL     OW 4424   9.708  14.231  13.315
34176SOL    HW1 4425   9.619  14.201  13.333
34176SOL    HW2 4426   9.725  14.204  13.224
34177SOL     OW 4427   6.780  14.265   7.994
34177SOL    HW1 4428   6.836  14.246   7.919
34177SOL    HW2 4429   6.829  14.330   8.044
34178SOL     OW 4430   9.281   2.219   1.395
34178SOL    HW1 4431   9.195   2.204   1.434
34178SOL    HW2 4432   9.266   2.207   1.301
34179SOL     OW 4433  12.126   5.208   9.463
34179SOL    HW1 4434  12.042   5.167   9.483
34179SOL    HW2 4435  12.121   5.230   9.370
34180SOL     OW 4436   5.362   6.296   8.129
34180SOL    HW1 4437   5.388   6.231   8.193
34180SOL    HW2 4438   5.341   6.374   8.180
34181SOL     OW 4439   4.189  14.244  13.877
34181SOL    HW1 4440   4.163  14.168  13.824
34181SOL    HW2 4441   4.120  14.253  13.942
34182SOL     OW 4442   9.099  13.876   2.272
34182SOL    HW1 4443   9.118  13.857   2.180
34182SOL    HW2 4444   9.138  13.962   2.288
34183SOL     OW 4445   7.097   6.406   1.679
34183SOL    HW1 4446   7.017   6.448   1.647
34183SOL    HW2 4447   7.151   6.393   1.601
34184SOL     OW 4448  14.783  10.709  12.719
34184SOL    HW1 4449  14.702  10.686  12.766
34184SOL    HW2 4450  14.777  10.803  12.704
34185SOL     OW 4451   3.313   0.623   7.088
34185SOL    HW1 4452   3.379   0.691   7.075
34185SOL    HW2 4453   3.353   0.563   7.152
34186SOL     OW 4454   7.908   3.069   9.947
34186SOL    HW1 4455   7.833   3.118   9.981
34186SOL    HW2 4456   7.874   2.981   9.932
34187SOL     OW 4457  12.322  13.360   2.527
34187SOL    HW1 4458  12.366  13.278   2.502
34187SOL    HW2 4459  12.266  13.336   2.600
34188SOL     OW 4460   9.678   6.323   9.571
34188SOL    HW1 4461   9.709   6.341   9.483
34188SOL    HW2 4462   9.744   6.264   9.608
34189SOL     OW 4463   9.515  10.942  12.897
34189SOL    HW1 4464   9.500  10.848  12.911
34189SOL    HW2 4465   9.544  10.949  12.806
34190SOL     OW 4466   9.095   2.272   3.845
34190SOL    HW1 4467   9.009   2.271   3.804
34190SOL    HW2 4468   9.142   2.343   3.800
34191SOL     OW 4469  10.806   3.226   8.582
34191SOL    HW1 4470  10.754   3.245   8.504
34191SOL    HW2 4471  10.842   3.311   8.608
34192SOL     OW 4472   3.269   0.189  10.878
34192SOL    HW1 4473   3.318   0.225  10.803
34192SOL    HW2 4474   3.178   0.191  10.850
34193SOL     OW 4475  12.007  13.706  12.843
34193SOL    HW1 4476  12.010  13.699  12.939
34193SOL    HW2 4477  11.946  13.638  12.815
34194SOL     OW 4478   7.486   3.609   0.528
34194SOL    HW1 4479   7.577   3.631   0.548
34194SOL    HW2 4480   7.470   3.646   0.441
34195SOL     OW 4481  12.934  10.998  13.208
34195SOL    HW1 4482  13.008  11.050  13.239
34195SOL    HW2 4483  12.959  10.907  13.226
34196SOL     OW 4484   0.654   5.758   1.483
34196SOL    HW1 4485   0.670   5.852   1.477
34196SOL    HW2 4486   0.629   5.732   1.394
34197SOL     OW 4487  11.931  11.553   6.290
34197SOL    HW1 4488  11.935  11.498   6.211
34197SOL    HW2 4489  11.991  11.510   6.351
34198SOL     OW 4490   0.544   0.987   0.476
34198SOL    HW1 4491   0.610   0.918   0.468
34198SOL    HW2 4492   0.506   0.995   0.389
34199SOL     OW 4493   8.619  12.507   7.556
34199SOL    HW1 4494   8.639  12.426   7.603
34199SOL    HW2 4495   8.630  12.485   7.464
34200SOL     OW 4496   6.694  13.166  13.131
34200SOL    HW1 4497   6.637  13.228  13.087
34200SOL    HW2 4498   6.783  13.199  13.114
34201SOL     OW 4499   5.953   2.695   7.426
34201SOL    HW1 4500   5.909   2.778   7.408
34201SOL    HW2 4501   5.946   2.645   7.344
34202SOL     OW 4502   6.288   4.360   0.424
34202SOL    HW1 4503   6.359   4.367   0.488
34202SOL    HW2 4504   6.245   4.446   0.426
34203SOL     OW 4505  11.979   7.698   2.083
34203SOL    HW1 4506  11.885   7.700   2.100
34203SOL    HW2 4507  12.004   7.606   2.092
34204SOL     OW 4508   3.772  12.984  10.869
34204SOL    HW1 4509   3.781  12.967  10.963
34204SOL    HW2 4510   3.763  13.079  10.863
34205SOL     OW 4511   2.647   2.539   9.186
34205SOL    HW1 4512   2.703   2.609   9.152
34205SOL    HW2 4513   2.620   2.570   9.273
34206SOL     OW 4514   6.729   9.955   2.534
34206SOL    HW1 4515   6.648   9.995   2.566
34206SOL    HW2 4516   6.708   9.861   2.527
34207SOL     OW 4517   5.223   1.595   1.240
34207SOL    HW1 4518   5.264   1.651   1.305
34207SOL    HW2 4519   5.141   1.639   1.218
34208SOL     OW 4520   5.949  10.719  13.089
34208SOL    HW1 4521   6.031  10.703  13.042
34208SOL    HW2 4522   5.901  10.781  13.035
34209SOL     OW 4523   9.931   9.332   1.225
34209SOL    HW1 4524   9.850   9.312   1.272
34209SOL    HW2 4525   9.905   9.341   1.134
34210SOL     OW 4526   2.820   3.878   8.987
34210SOL    HW1 4527   2.763   3.805   9.009
34210SOL    HW2 4528   2.845   3.862   8.896
34211SOL     OW 4529   7.635   6.551   8.033
34211SOL    HW1 4530   7.726   6.578   8.038
34211SOL    HW2 4531   7.603   6.590   7.952
34212SOL     OW 4532   3.675   5.944   3.912
34212SOL    HW1 4533   3.732   5.934   3.836
34212SOL    HW2 4534   3.661   6.038   3.919
34213SOL     OW 4535  11.045   2.773  11.901
34213SOL    HW1 4536  11.065   2.792  11.809
34213SOL    HW2 4537  11.110   2.707  11.926
34214SOL     OW 4538   6.542   1.110   8.206
34214SOL    HW1 4539   6.515   1.201   8.202
34214SOL    HW2 4540   6.604   1.100   8.133
34215SOL     OW 4541  13.449  10.015  11.910
34215SOL    HW1 4542  13.442  10.101  11.950
34215SOL    HW2 4543  13.409  10.025  11.824
34216SOL     OW 4544   3.603  13.979  10.865
34216SOL    HW1 4545   3.688  14.022  10.867
34216SOL    HW2 4546   3.560  14.016  10.788
34217SOL     OW 4547  12.146  13.980   9.400
34217SOL    HW1 4548  12.182  13.949   9.317
34217SOL    HW2 4549  12.126  13.899   9.448
34218SOL     OW 4550   4.293  12.811   6.405
34218SOL    HW1 4551   4.251  12.737   6.362
34218SOL    HW2 4552   4.220  12.865   6.437
34219SOL     OW 4553  10.558   8.901   9.050
34219SOL    HW1 4554  10.511   8.828   9.010
34219SOL    HW2 4555  10.628   8.921   8.988
34220SOL     OW 4556  13.101   6.412  14.860
34220SOL    HW1 4557  13.107   6.411   0.073
34220SOL    HW2 4558  13.057   6.495  14.840
34221SOL     OW 4559   5.828   3.879   3.687
34221SOL    HW1 4560   5.869   3.948   3.634
34221SOL    HW2 4561   5.902   3.828   3.720
34222SOL     OW 4562  11.383   5.975   1.343
34222SOL    HW1 4563  11.407   5.905   1.282
34222SOL    HW2 4564  11.418   6.055   1.303
34223SOL     OW 4565   5.025  14.010   6.368
34223SOL    HW1 4566   4.946  14.027   6.418
34223SOL    HW2 4567   4.997  14.016   6.276
34224SOL     OW 4568   1.024   0.708   5.327
34224SOL    HW1 4569   1.101   0.708   5.270
34224SOL    HW2 4570   1.037   0.784   5.384
34225SOL     OW 4571  11.848   5.413  13.901
34225SOL    HW1 4572  11.922   5.354  13.884
34225SOL    HW2 4573  11.887   5.501  13.900
34226SOL     OW 4574   3.835   8.945   9.101
34226SOL    HW1 4575   3.896   8.970   9.170
34226SOL    HW2 4576   3.890   8.908   9.032
34227SOL     OW 4577   7.142  13.221  11.222
34227SOL    HW1 4578   7.156  13.136  11.262
34227SOL    HW2 4579   7.173  13.284  11.287
34228SOL     OW 4580   8.068  12.427  11.967
34228SOL    HW1 4581   8.046  12.336  11.945
34228SOL    HW2 4582   8.061  12.431  12.062
34229SOL     OW 4583   2.684   2.798   2.042
34229SOL    HW1 4584   2.707   2.737   2.112
34229SOL    HW2 4585   2.768   2.823   2.003
34230SOL     OW 4586   6.515  14.115   6.128
34230SOL    HW1 4587   6.460  14.077   6.197
34230SOL    HW2 4588   6.590  14.152   6.174
34231SOL     OW 4589  10.891  11.250  11.143
34231SOL    HW1 4590  10.806  11.212  11.122
34231SOL    HW2 4591  10.954  11.182  11.120
34232SOL     OW 4592   3.291   9.092   9.826
34232SOL    HW1 4593   3.318   9.042   9.748
34232SOL    HW2 4594   3.201   9.117   9.808
34233SOL     OW 4595  10.914   8.856   0.077
34233SOL    HW1 4596  10.840   8.915   0.091
34233SOL    HW2 4597  10.989   8.902   0.115
34234SOL     OW 4598   3.885  11.178   3.543
34234SOL    HW1 4599   3.854  11.106   3.598
34234SOL    HW2 4600   3.967  11.145   3.505
34235SOL     OW 4601  13.735   3.228   5.427
34235SOL    HW1 4602  13.651   3.185   5.411
34235SOL    HW2 4603  13.765   3.193   5.511
34236SOL     OW 4604   1.991   8.854  10.997
34236SOL    HW1 4605   2.002   8.873  10.904
34236SOL    HW2 4606   1.903   8.885  11.018
34237SOL     OW 4607   2.531  12.763  12.325
34237SOL    HW1 4608   2.553  12.750  12.417
34237SOL    HW2 4609   2.450  12.715  12.312
34238SOL     OW 4610   3.259   9.957  13.914
34238SOL    HW1 4611   3.288   9.919  13.997
34238SOL    HW2 4612   3.172   9.991  13.933
34239SOL     OW 4613   5.125  10.260   4.779
34239SOL    HW1 4614   5.058  10.250   4.847
34239SOL    HW2 4615   5.207  10.238   4.823
34240SOL     OW 4616   0.601   0.716  10.351
34240SOL    HW1 4617   0.557   0.636  10.323
34240SOL    HW2 4618   0.582   0.723  10.444
34241SOL     OW 4619   0.538   4.277   9.990
34241SOL    HW1 4620   0.556   4.291  10.083
34241SOL    HW2 4621   0.617   4.234   9.956
34242SOL     OW 4622  11.656   4.995   8.393
34242SOL    HW1 4623  11.630   4.909   8.427
34242SOL    HW2 4624  11.608   5.004   8.310
34243SOL     OW 4625   4.937   5.659   1.311
34243SOL    HW1 4626   4.987   5.664   1.230
34243SOL    HW2 4627   4.999   5.687   1.379
34244SOL     OW 4628   9.990   7.262   2.366
34244SOL    HW1 4629   9.968   7.189   2.308
34244SOL    HW2 4630   9.910   7.278   2.416
34245SOL     OW 4631   8.635   5.113  14.670
34245SOL    HW1 4632   8.706   5.159  14.627
34245SOL    HW2 4633   8.677   5.064  14.741
34246SOL     OW 4634   5.407   3.403   8.989
34246SOL    HW1 4635   5.453   3.319   8.994
34246SOL    HW2 4636   5.453   3.460   9.050
34247SOL     OW 4637  10.677   2.117  14.421
34247SOL    HW1 4638  10.737   2.053  14.382
34247SOL    HW2 4639  10.734   2.188  14.449
34248SOL     OW 4640  14.527   7.262  13.385
34248SOL    HW1 4641  14.539   7.198  13.456
34248SOL    HW2 4642  14.552   7.346  13.425
34249SOL     OW 4643   6.717   7.659  12.343
34249SOL    HW1 4644   6.683   7.656  12.253
34249SOL    HW2 4645   6.649   7.616  12.395
34250SOL     OW 4646   6.594   4.801   1.257
34250SOL    HW1 4647   6.652   4.752   1.199
34250SOL    HW2 4648   6.638   4.886   1.269
34251SOL     OW 4649  11.832  11.604   2.262
34251SOL    HW1 4650  11.831  11.632   2.354
34251SOL    HW2 4651  11.901  11.538   2.258
34252SOL     OW 4652   4.234   0.072   4.267
34252SOL    HW1 4653   4.259   0.141   4.206
34252SOL    HW2 4654   4.316   0.028   4.289
34253SOL     OW 4655   3.645   4.385   0.244
34253SOL    HW1 4656   3.598   4.366   0.325
34253SOL    HW2 4657   3.724   4.332   0.250
34254SOL     OW 4658  14.576   7.901   8.659
34254SOL    HW1 4659  14.505   7.942   8.608
34254SOL    HW2 4660  14.537   7.821   8.693
34255SOL     OW 4661   6.859   9.253   0.066
34255SOL    HW1 4662   6.952   9.247   0.046
34255SOL    HW2 4663   6.815   9.213  14.873
34256SOL     OW 4664  10.697   0.585   8.451
34256SOL    HW1 4665  10.691   0.546   8.538
34256SOL    HW2 4666  10.618   0.638   8.442
34257SOL     OW 4667   4.895  12.020  12.428
34257SOL    HW1 4668   4.838  11.954  12.390
34257SOL    HW2 4669   4.970  11.971  12.462
34258SOL     OW 4670   7.101  13.117   4.961
34258SOL    HW1 4671   7.157  13.041   4.977
34258SOL    HW2 4672   7.145  13.166   4.892
34259SOL     OW 4673   1.848   9.069   0.483
34259SOL    HW1 4674   1.818   8.992   0.434
34259SOL    HW2 4675   1.810   9.143   0.436
34260SOL     OW 4676   9.281  10.487   6.631
34260SOL    HW1 4677   9.356  10.508   6.685
34260SOL    HW2 4678   9.245  10.407   6.670
34261SOL     OW 4679   4.832  10.773   1.551
34261SOL    HW1 4680   4.817  10.867   1.546
34261SOL    HW2 4681   4.894  10.754   1.480
34262SOL     OW 4682   7.393   9.680   3.329
34262SOL    HW1 4683   7.302   9.659   3.307
34262SOL    HW2 4684   7.443   9.655   3.251
34263SOL     OW 4685  14.151  13.607   9.120
34263SOL    HW1 4686  14.148  13.638   9.211
34263SOL    HW2 4687  14.162  13.687   9.068
34264SOL     OW 4688   3.641   7.134  12.678
34264SOL    HW1 4689   3.712   7.196  12.692
34264SOL    HW2 4690   3.646   7.112  12.585
34265SOL     OW 4691   1.340  13.187  10.340
34265SOL    HW1 4692   1.427  13.183  10.380
34265SOL    HW2 4693   1.291  13.249  10.394
34266SOL     OW 4694   3.574   1.394   8.163
34266SOL    HW1 4695   3.549   1.312   8.206
34266SOL    HW2 4696   3.549   1.383   8.072
34267SOL     OW 4697   0.433   5.387   4.148
34267SOL    HW1 4698   0.528   5.383   4.153
34267SOL    HW2 4699   0.403   5.318   4.208
34268SOL     OW 4700   5.218  14.127   7.629
34268SOL    HW1 4701   5.269  14.199   7.592
34268SOL    HW2 4702   5.245  14.050   7.579
34269SOL     OW 4703   8.819   2.829   7.005
34269SOL    HW1 4704   8.856   2.782   6.929
34269SOL    HW2 4705   8.817   2.764   7.075
34270SOL     OW 4706   7.149   0.962  10.616
34270SOL    HW1 4707   7.225   1.007  10.579
34270SOL    HW2 4708   7.186   0.906  10.685
34271SOL     OW 4709  13.786   0.649  10.204
34271SOL    HW1 4710  13.788   0.572  10.146
34271SOL    HW2 4711  13.825   0.618  10.286
34272SOL     OW 4712   0.538   4.782   6.679
34272SOL    HW1 4713   0.471   4.833   6.633
34272SOL    HW2 4714   0.621   4.818   6.647
34273SOL     OW 4715   6.053   8.802   7.415
34273SOL    HW1 4716   6.013   8.889   7.405
34273SOL    HW2 4717   6.127   8.816   7.473
34274SOL     OW 4718   4.895   7.218   7.547
34274SOL    HW1 4719   4.926   7.197   7.459
34274SOL    HW2 4720   4.957   7.285   7.578
34275SOL     OW 4721  14.490   6.870   1.448
34275SOL    HW1 4722  14.512   6.962   1.462
34275SOL    HW2 4723  14.564   6.835   1.399
34276SOL     OW 4724   7.193   1.411  12.877
34276SOL    HW1 4725   7.191   1.379  12.967
34276SOL    HW2 4726   7.267   1.471  12.874
34277SOL     OW 4727  13.536   4.284   3.293
34277SOL    HW1 4728  13.481   4.344   3.243
34277SOL    HW2 4729  13.474   4.237   3.349
34278SOL     OW 4730   6.087  13.681   8.226
34278SOL    HW1 4731   6.001  13.717   8.246
34278SOL    HW2 4732   6.148  13.738   8.271
34279SOL     OW 4733   4.967  11.819  13.642
34279SOL    HW1 4734   4.979  11.724  13.651
34279SOL    HW2 4735   4.980  11.835  13.548
34280SOL     OW 4736   7.787   3.275   5.690
34280SOL    HW1 4737   7.808   3.362   5.723
34280SOL    HW2 4738   7.705   3.251   5.734
34281SOL     OW 4739   7.176   2.394   6.152
34281SOL    HW1 4740   7.146   2.358   6.236
34281SOL    HW2 4741   7.256   2.346   6.133
34282SOL     OW 4742  12.433   6.134   7.714
34282SOL    HW1 4743  12.388   6.061   7.671
34282SOL    HW2 4744  12.525   6.107   7.717
34283SOL     OW 4745   9.909  13.485   1.814
34283SOL    HW1 4746   9.846  13.432   1.863
34283SOL    HW2 4747   9.867  13.501   1.730
34284SOL     OW 4748   9.318   0.588  12.048
34284SOL    HW1 4749   9.375   0.647  11.997
34284SOL    HW2 4750   9.378   0.543  12.108
34285SOL     OW 4751   3.977  11.139  10.408
34285SOL    HW1 4752   3.929  11.196  10.347
34285SOL    HW2 4753   3.919  11.131  10.484
34286SOL     OW 4754   6.920   0.936  13.940
34286SOL    HW1 4755   6.929   1.001  13.871
34286SOL    HW2 4756   7.003   0.888  13.939
34287SOL     OW 4757  14.478   6.690  11.600
34287SOL    HW1 4758  14.537   6.708  11.674
34287SOL    HW2 4759  14.507   6.750  11.532
34288SOL     OW 4760   2.413   8.095   6.204
34288SOL    HW1 4761   2.478   8.130   6.264
34288SOL    HW2 4762   2.329   8.126   6.238
34289SOL     OW 4763   2.789  12.630   0.949
34289SOL    HW1 4764   2.865  12.610   1.004
34289SOL    HW2 4765   2.821  12.623   0.859
34290SOL     OW 4766   5.491  10.981  10.412
34290SOL    HW1 4767   5.456  11.062  10.450
34290SOL    HW2 4768   5.527  11.009  10.328
34291SOL     OW 4769  11.638   0.380   2.478
34291SOL    HW1 4770  11.672   0.292   2.493
34291SOL    HW2 4771  11.716   0.434   2.466
34292SOL     OW 4772   6.045  10.958   9.877
34292SOL    HW1 4773   5.976  10.987   9.818
34292SOL    HW2 4774   6.118  11.018   9.861
34293SOL     OW 4775  14.256   7.852  11.077
34293SOL    HW1 4776  14.284   7.789  11.143
34293SOL    HW2 4777  14.299   7.824  10.996
34294SOL     OW 4778  13.861  13.228   9.022
34294SOL    HW1 4779  13.778  13.199   8.983
34294SOL    HW2 4780  13.920  13.236   8.947
34295SOL     OW 4781   5.258   2.705   5.216
34295SOL    HW1 4782   5.192   2.774   5.217
34295SOL    HW2 4783   5.341   2.751   5.207
34296SOL     OW 4784  13.990   4.324   2.809
34296SOL    HW1 4785  13.901   4.334   2.842
34296SOL    HW2 4786  14.028   4.412   2.812
34297SOL     OW 4787   2.445   4.562  11.785
34297SOL    HW1 4788   2.350   4.551  11.778
34297SOL    HW2 4789   2.459   4.597  11.873
34298SOL     OW 4790   8.823  12.683  10.271
34298SOL    HW1 4791   8.796  12.591  10.260
34298SOL    HW2 4792   8.785  12.728  10.196
34299SOL     OW 4793  10.887   3.483  11.379
34299SOL    HW1 4794  10.946   3.543  11.333
34299SOL    HW2 4795  10.800   3.507  11.348
34300SOL     OW 4796  14.120  14.881   2.899
34300SOL    HW1 4797  14.071  14.803   2.927
34300SOL    HW2 4798  14.188  14.848   2.841
34301SOL     OW 4799   9.230  13.128  12.200
34301SOL    HW1 4800   9.159  13.095  12.146
34301SOL    HW2 4801   9.261  13.206  12.154
34302SOL     OW 4802   9.215   4.256   8.218
34302SOL    HW1 4803   9.300   4.245   8.175
34302SOL    HW2 4804   9.237   4.285   8.307
34303SOL     OW 4805   1.021   9.881   6.310
34303SOL    HW1 4806   1.053   9.954   6.256
34303SOL    HW2 4807   1.062   9.895   6.395
34304SOL     OW 4808   1.358  10.030   4.391
34304SOL    HW1 4809   1.384  10.003   4.303
34304SOL    HW2 4810   1.267  10.057   4.382
34305SOL     OW 4811   8.609  13.981  13.583
34305SOL    HW1 4812   8.518  14.011  13.591
34305SOL    HW2 4813   8.636  13.961  13.672
34306SOL     OW 4814   6.724   7.502   7.041
34306SOL    HW1 4815   6.667   7.449   6.986
34306SOL    HW2 4816   6.747   7.577   6.987
34307SOL     OW 4817   6.572   5.976   4.045
34307SOL    HW1 4818   6.632   5.927   3.987
34307SOL    HW2 4819   6.588   5.939   4.132
34308SOL     OW 4820   9.573   6.233   3.546
34308SOL    HW1 4821   9.582   6.165   3.480
34308SOL    HW2 4822   9.480   6.234   3.567
34309SOL     OW 4823   0.664   0.911  13.675
34309SOL    HW1 4824   0.744   0.863  13.697
34309SOL    HW2 4825   0.594   0.846  13.678
34310SOL     OW 4826   4.822   8.545   6.063
34310SOL    HW1 4827   4.796   8.596   6.139
34310SOL    HW2 4828   4.917   8.558   6.056
34311SOL     OW 4829   1.420  13.868   7.024
34311SOL    HW1 4830   1.369  13.949   7.023
34311SOL    HW2 4831   1.511  13.898   7.035
34312SOL     OW 4832   9.850   3.183   3.029
34312SOL    HW1 4833   9.837   3.205   2.936
34312SOL    HW2 4834   9.833   3.090   3.034
34313SOL     OW 4835   9.039  14.879   3.310
34313SOL    HW1 4836   9.006   0.057   3.243
34313SOL    HW2 4837   9.063   0.054   3.384
34314SOL     OW 4838   7.128   0.494   6.935
34314SOL    HW1 4839   7.185   0.570   6.927
34314SOL    HW2 4840   7.057   0.511   6.873
34315SOL     OW 4841   8.032   8.091   8.722
34315SOL    HW1 4842   8.063   8.031   8.655
34315SOL    HW2 4843   7.937   8.091   8.713
34316SOL     OW 4844   4.907   1.782  10.635
34316SOL    HW1 4845   4.893   1.869  10.673
34316SOL    HW2 4846   4.855   1.724  10.690
34317SOL     OW 4847   8.243   0.764  12.174
34317SOL    HW1 4848   8.325   0.732  12.211
34317SOL    HW2 4849   8.179   0.755  12.245
34318SOL     OW 4850  13.488   9.019   2.007
34318SOL    HW1 4851  13.418   8.975   2.054
34318SOL    HW2 4852  13.562   8.959   2.011
34319SOL     OW 4853   3.778  12.203   6.020
34319SOL    HW1 4854   3.815  12.199   5.931
34319SOL    HW2 4855   3.700  12.148   6.016
34320SOL     OW 4856   3.438  11.433   2.199
34320SOL    HW1 4857   3.501  11.400   2.135
34320SOL    HW2 4858   3.492  11.482   2.262
34321SOL     OW 4859   2.718   8.385   2.842
34321SOL    HW1 4860   2.764   8.302   2.835
34321SOL    HW2 4861   2.684   8.402   2.754
34322SOL     OW 4862   6.256  14.401   4.501
34322SOL    HW1 4863   6.211  14.399   4.585
34322SOL    HW2 4864   6.313  14.478   4.506
34323SOL     OW 4865  11.739  11.284  13.495
34323SOL    HW1 4866  11.660  11.241  13.462
34323SOL    HW2 4867  11.768  11.341  13.424
34324SOL     OW 4868   9.196  13.630  14.403
34324SOL    HW1 4869   9.262  13.588  14.457
34324SOL    HW2 4870   9.202  13.723  14.427
34325SOL     OW 4871  11.135   9.810  12.975
34325SOL    HW1 4872  11.151   9.843  13.063
34325SOL    HW2 4873  11.071   9.740  12.986
34326SOL     OW 4874   6.103   1.734  14.566
34326SOL    HW1 4875   6.193   1.747  14.596
34326SOL    HW2 4876   6.089   1.640  14.574
34327SOL     OW 4877   5.000   7.588  10.423
34327SOL    HW1 4878   5.048   7.511  10.454
34327SOL    HW2 4879   4.913   7.554  10.399
34328SOL     OW 4880  12.850   0.828  12.099
34328SOL    HW1 4881  12.861   0.919  12.128
34328SOL    HW2 4882  12.850   0.834  12.003
34329SOL     OW 4883  10.714   8.587   6.484
34329SOL    HW1 4884  10.649   8.608   6.552
34329SOL    HW2 4885  10.676   8.513   6.437
34330SOL     OW 4886  11.504   9.767  11.899
34330SOL    HW1 4887  11.581   9.734  11.946
34330SOL    HW2 4888  11.480   9.695  11.840
34331SOL     OW 4889  10.312   5.317   2.435
34331SOL    HW1 4890  10.246   5.335   2.502
34331SOL    HW2 4891  10.306   5.391   2.374
34332SOL     OW 4892   4.356  12.556   0.916
34332SOL    HW1 4893   4.263  12.571   0.936
34332SOL    HW2 4894   4.396  12.643   0.927
34333SOL     OW 4895   3.678   1.022  11.930
34333SOL    HW1 4896   3.649   0.945  11.882
34333SOL    HW2 4897   3.650   1.006  12.021
34334SOL     OW 4898  13.277   3.679  12.395
34334SOL    HW1 4899  13.233   3.602  12.360
34334SOL    HW2 4900  13.370   3.663  12.377
34335SOL     OW 4901   7.066   3.757   5.437
34335SOL    HW1 4902   7.152   3.792   5.415
34335SOL    HW2 4903   7.078   3.662   5.437
34336SOL     OW 4904   1.840   0.514   0.992
34336SOL    HW1 4905   1.796   0.456   1.055
34336SOL    HW2 4906   1.769   0.544   0.934
34337SOL     OW 4907   9.566  13.948   1.780
34337SOL    HW1 4908   9.528  13.881   1.723
34337SOL    HW2 4909   9.509  14.023   1.770
34338SOL     OW 4910   7.765   6.672   7.529
34338SOL    HW1 4911   7.830   6.603   7.517
34338SOL    HW2 4912   7.818   6.750   7.550
34339SOL     OW 4913  10.912  14.611   2.464
34339SOL    HW1 4914  10.945  14.585   2.550
34339SOL    HW2 4915  10.984  14.661   2.425
34340SOL     OW 4916   8.821   9.910   0.165
34340SOL    HW1 4917   8.781   9.994   0.144
34340SOL    HW2 4918   8.758   9.845   0.135
34341SOL     OW 4919   6.664   8.548   1.860
34341SOL    HW1 4920   6.616   8.588   1.788
34341SOL    HW2 4921   6.617   8.574   1.939
34342SOL     OW 4922  12.193   3.699   2.128
34342SOL    HW1 4923  12.121   3.722   2.069
34342SOL    HW2 4924  12.272   3.723   2.080
34343SOL     OW 4925   5.536   1.415   6.511
34343SOL    HW1 4926   5.623   1.404   6.550
34343SOL    HW2 4927   5.534   1.506   6.481
34344SOL     OW 4928  12.409   6.424   0.209
34344SOL    HW1 4929  12.435   6.333   0.195
34344SOL    HW2 4930  12.313   6.423   0.205
34345SOL     OW 4931  11.428   6.377   1.061
34345SOL    HW1 4932  11.374   6.419   1.129
34345SOL    HW2 4933  11.427   6.439   0.988
34346SOL     OW 4934  12.954   0.566   3.976
34346SOL    HW1 4935  12.968   0.608   3.892
34346SOL    HW2 4936  13.037   0.576   4.022
34347SOL     OW 4937   3.472   8.341   8.143
34347SOL    HW1 4938   3.521   8.327   8.062
34347SOL    HW2 4939   3.419   8.262   8.153
34348SOL     OW 4940   3.908   1.483   4.931
34348SOL    HW1 4941   3.920   1.470   5.025
34348SOL    HW2 4942   3.816   1.507   4.922
34349SOL     OW 4943   5.930  11.327   9.732
34349SOL    HW1 4944   5.960  11.282   9.653
34349SOL    HW2 4945   6.009  11.338   9.785
34350SOL     OW 4946  10.591   1.464   1.962
34350SOL    HW1 4947  10.543   1.546   1.974
34350SOL    HW2 4948  10.624   1.443   2.049
34351SOL     OW 4949  13.980   8.076  13.491
34351SOL    HW1 4950  13.924   8.154  13.489
34351SOL    HW2 4951  14.007   8.064  13.400
34352SOL     OW 4952   8.324  10.922   2.346
34352SOL    HW1 4953   8.343  10.853   2.410
34352SOL    HW2 4954   8.245  10.893   2.301
34353SOL     OW 4955   1.302   6.497   8.952
34353SOL    HW1 4956   1.339   6.410   8.964
34353SOL    HW2 4957   1.336   6.527   8.867
34354SOL     OW 4958  14.241   2.286   9.068
34354SOL    HW1 4959  14.317   2.326   9.110
34354SOL    HW2 4960  14.231   2.202   9.113
34355SOL     OW 4961   6.017   7.463   5.936
34355SOL    HW1 4962   6.053   7.440   5.851
34355SOL    HW2 4963   6.063   7.406   5.998
34356SOL     OW 4964   7.298   2.629  11.417
34356SOL    HW1 4965   7.344   2.661  11.496
34356SOL    HW2 4966   7.368   2.619  11.352
34357SOL     OW 4967   6.902   5.721  12.578
34357SOL    HW1 4968   6.931   5.810  12.598
34357SOL    HW2 4969   6.865   5.727  12.490
34358SOL     OW 4970   8.564  11.227  13.379
34358SOL    HW1 4971   8.524  11.258  13.298
34358SOL    HW2 4972   8.578  11.134  13.365
34359SOL     OW 4973   8.332   2.029  14.693
34359SOL    HW1 4974   8.287   1.962  14.745
34359SOL    HW2 4975   8.417   2.040  14.736
34360SOL     OW 4976  10.796   3.998   4.471
34360SOL    HW1 4977  10.876   4.006   4.523
34360SOL    HW2 4978  10.824   3.954   4.391
34361SOL     OW 4979  11.870   6.571   0.007
34361SOL    HW1 4980  11.831   6.559  14.803
34361SOL    HW2 4981  11.958   6.534  14.882
34362SOL     OW 4982   3.225   2.841  10.017
34362SOL    HW1 4983   3.205   2.927   9.980
34362SOL    HW2 4984   3.196   2.779   9.950
34363SOL     OW 4985   6.004   6.264  11.007
34363SOL    HW1 4986   5.931   6.262  10.946
34363SOL    HW2 4987   5.965   6.293  11.090
34364SOL     OW 4988   6.222  11.188   8.192
34364SOL    HW1 4989   6.275  11.109   8.179
34364SOL    HW2 4990   6.266  11.255   8.141
34365SOL     OW 4991  13.681   6.269  11.590
34365SOL    HW1 4992  13.693   6.324  11.513
34365SOL    HW2 4993  13.698   6.329  11.664
34366SOL     OW 4994   9.627  11.102   9.355
34366SOL    HW1 4995   9.720  11.087   9.337
34366SOL    HW2 4996   9.622  11.196   9.373
34367SOL     OW 4997   5.806   1.693  14.773
34367SOL    HW1 4998   5.808   1.772  14.720
34367SOL    HW2 4999   5.723   1.651  14.749
34368SOL     OW 5000   8.013   7.099   2.179
34368SOL    HW1 5001   8.071   7.171   2.205
34368SOL    HW2 5002   7.931   7.142   2.153
34369SOL     OW 5003  12.692  14.149   1.812
34369SOL    HW1 5004  12.668  14.186   1.727
34369SOL    HW2 5005  12.702  14.056   1.795
34370SOL     OW 5006   1.741   7.193  13.301
34370SOL    HW1 5007   1.650   7.214  13.278
34370SOL    HW2 5008   1.748   7.218  13.393
34371SOL     OW 5009  14.501  13.608   0.932
34371SOL    HW1 5010  14.543  13.645   0.854
34371SOL    HW2 5011  14.428  13.667   0.950
34372SOL     OW 5012  14.490   2.820  10.888
34372SOL    HW1 5013  14.521   2.904  10.924
34372SOL    HW2 5014  14.445   2.778  10.961
34373SOL     OW 5015   9.919   5.685  10.791
34373SOL    HW1 5016   9.944   5.724  10.707
34373SOL    HW2 5017   9.850   5.623  10.769
34374SOL     OW 5018   6.610  10.792  10.582
34374SOL    HW1 5019   6.614  10.811  10.488
34374SOL    HW2 5020   6.522  10.757  10.596
34375SOL     OW 5021  10.176   7.662  12.400
34375SOL    HW1 5022  10.090   7.620  12.386
34375SOL    HW2 5023  10.156   7.741  12.450
34376SOL     OW 5024  13.519   8.746  13.487
34376SOL    HW1 5025  13.590   8.800  13.521
34376SOL    HW2 5026  13.514   8.672  13.547
34377SOL     OW 5027  14.145   4.964   4.859
34377SOL    HW1 5028  14.126   5.039   4.916
34377SOL    HW2 5029  14.215   4.995   4.802
34378SOL     OW 5030  12.733  10.453  12.657
34378SOL    HW1 5031  12.687  10.471  12.739
34378SOL    HW2 5032  12.825  10.474  12.675
34379SOL     OW 5033   4.155  12.063  14.088
34379SOL    HW1 5034   4.081  12.004  14.083
34379SOL    HW2 5035   4.136  12.119  14.164
34380SOL     OW 5036  13.228   4.570   5.025
34380SOL    HW1 5037  13.164   4.538   5.089
34380SOL    HW2 5038  13.297   4.609   5.078
34381SOL     OW 5039   3.312   4.145   1.486
34381SOL    HW1 5040   3.398   4.103   1.475
34381SOL    HW2 5041   3.333   4.233   1.518
34382SOL     OW 5042   0.474   4.546  14.178
34382SOL    HW1 5043   0.532   4.613  14.213
34382SOL    HW2 5044   0.529   4.468  14.170
34383SOL     OW 5045   1.928   6.931   0.131
34383SOL    HW1 5046   1.956   6.964   0.046
34383SOL    HW2 5047   1.949   7.001   0.192
34384SOL     OW 5048   3.577   0.285   9.041
34384SOL    HW1 5049   3.670   0.272   9.057
34384SOL    HW2 5050   3.556   0.226   8.969
34385SOL     OW 5051   6.451  11.305  12.964
34385SOL    HW1 5052   6.517  11.235  12.969
34385SOL    HW2 5053   6.438  11.319  12.870
34386SOL     OW 5054   2.734   3.061   7.042
34386SOL    HW1 5055   2.679   3.069   6.964
34386SOL    HW2 5056   2.716   2.973   7.076
34387SOL     OW 5057   1.615  12.620   0.770
34387SOL    HW1 5058   1.624  12.534   0.730
34387SOL    HW2 5059   1.702  12.641   0.802
34388SOL     OW 5060   0.858  14.531   5.117
34388SOL    HW1 5061   0.886  14.621   5.104
34388SOL    HW2 5062   0.836  14.499   5.029
34389SOL     OW 5063   6.537   6.018   4.528
34389SOL    HW1 5064   6.632   6.019   4.519
34389SOL    HW2 5065   6.523   6.022   4.623
34390SOL     OW 5066  11.727   4.972  12.562
34390SOL    HW1 5067  11.818   4.999  12.550
34390SOL    HW2 5068  11.709   4.915  12.487
34391SOL     OW 5069   1.515   2.771   3.279
34391SOL    HW1 5070   1.511   2.862   3.247
34391SOL    HW2 5071   1.454   2.724   3.222
34392SOL     OW 5072   4.562   0.246   8.307
34392SOL    HW1 5073   4.570   0.207   8.394
34392SOL    HW2 5074   4.510   0.325   8.321
34393SOL     OW 5075   0.632  12.548   0.884
34393SOL    HW1 5076   0.724  12.574   0.894
34393SOL    HW2 5077   0.626  12.463   0.928
34394SOL     OW 5078   7.731  14.257   4.133
34394SOL    HW1 5079   7.686  14.173   4.124
34394SOL    HW2 5080   7.762  14.258   4.224
34395SOL     OW 5081   2.332   0.822   4.950
34395SOL    HW1 5082   2.314   0.868   5.032
34395SOL    HW2 5083   2.351   0.892   4.888
34396SOL     OW 5084   2.120   5.585   2.168
34396SOL    HW1 5085   2.146   5.503   2.211
34396SOL    HW2 5086   2.051   5.620   2.224
34397SOL     OW 5087   0.932  12.389  11.449
34397SOL    HW1 5088   1.019  12.379  11.487
34397SOL    HW2 5089   0.945  12.372  11.355
34398SOL     OW 5090  12.578   3.526   8.961
34398SOL    HW1 5091  12.559   3.437   8.991
34398SOL    HW2 5092  12.667   3.522   8.928
34399SOL     OW 5093  13.247   8.924   4.886
34399SOL    HW1 5094  13.215   8.834   4.897
34399SOL    HW2 5095  13.168   8.976   4.871
34400SOL     OW 5096   9.747   9.858  11.529
34400SOL    HW1 5097   9.784   9.925  11.473
34400SOL    HW2 5098   9.702   9.798  11.469
34401SOL     OW 5099  13.742   9.550   8.708
34401SOL    HW1 5100  13.725   9.574   8.799
34401SOL    HW2 5101  13.676   9.598   8.657
34402SOL     OW 5102   0.294   5.249   6.924
34402SOL    HW1 5103   0.269   5.191   6.852
34402SOL    HW2 5104   0.255   5.334   6.900
34403SOL     OW 5105  12.689   1.682  11.875
34403SOL    HW1 5106  12.785   1.684  11.867
34403SOL    HW2 5107  12.671   1.598  11.917
34404SOL     OW 5108   6.516   0.999  11.624
34404SOL    HW1 5109   6.453   1.042  11.681
34404SOL    HW2 5110   6.476   1.003  11.537
34405SOL     OW 5111   6.675   8.603  14.194
34405SOL    HW1 5112   6.732   8.592  14.270
34405SOL    HW2 5113   6.725   8.656  14.133
34406SOL     OW 5114  11.121   9.399  11.687
34406SOL    HW1 5115  11.033   9.364  11.677
34406SOL    HW2 5116  11.108   9.484  11.730
34407SOL     OW 5117   2.402  12.036  10.710
34407SOL    HW1 5118   2.489  12.022  10.749
34407SOL    HW2 5119   2.416  12.102  10.643
34408SOL     OW 5120  12.990   6.309  13.483
34408SOL    HW1 5121  12.994   6.320  13.388
34408SOL    HW2 5122  12.920   6.245  13.497
34409SOL     OW 5123  13.120   3.322   6.331
34409SOL    HW1 5124  13.096   3.415   6.329
34409SOL    HW2 5125  13.164   3.307   6.248
34410SOL     OW 5126   5.271   5.784   0.246
34410SOL    HW1 5127   5.315   5.866   0.269
34410SOL    HW2 5128   5.216   5.807   0.171
34411SOL     OW 5129   7.689   5.359   6.164
34411SOL    HW1 5130   7.694   5.329   6.254
34411SOL    HW2 5131   7.760   5.313   6.119
34412SOL     OW 5132  11.990   2.995  14.849
34412SOL    HW1 5133  11.941   3.007  14.768
34412SOL    HW2 5134  12.073   3.040  14.833
34413SOL     OW 5135   9.316  13.866  10.120
34413SOL    HW1 5136   9.252  13.810  10.164
34413SOL    HW2 5137   9.397  13.854  10.170
34414SOL     OW 5138  11.866  11.467   4.148
34414SOL    HW1 5139  11.853  11.412   4.225
34414SOL    HW2 5140  11.851  11.556   4.179
34415SOL     OW 5141  10.283   3.132   0.934
34415SOL    HW1 5142  10.316   3.064   0.875
34415SOL    HW2 5143  10.337   3.123   1.013
34416SOL     OW 5144   6.924   6.282   0.220
34416SOL    HW1 5145   6.944   6.372   0.195
34416SOL    HW2 5146   6.893   6.289   0.310
34417SOL     OW 5147   1.184  14.479  11.788
34417SOL    HW1 5148   1.118  14.536  11.828
34417SOL    HW2 5149   1.209  14.524  11.707
34418SOL     OW 5150   4.204  11.328   0.671
34418SOL    HW1 5151   4.287  11.293   0.702
34418SOL    HW2 5152   4.187  11.284   0.588
34419SOL     OW 5153   5.189   3.372   7.266
34419SOL    HW1 5154   5.107   3.333   7.237
34419SOL    HW2 5155   5.255   3.305   7.248
34420SOL     OW 5156  11.360  11.078   1.691
34420SOL    HW1 5157  11.453  11.063   1.707
34420SOL    HW2 5158  11.315  11.014   1.746
34421SOL     OW 5159   1.766   6.134  12.762
34421SOL    HW1 5160   1.727   6.076  12.828
34421SOL    HW2 5161   1.749   6.222  12.794
34422SOL     OW 5162   8.701  10.453  13.936
34422SOL    HW1 5163   8.661  10.370  13.911
34422SOL    HW2 5164   8.627  10.514  13.944
34423SOL     OW 5165  13.530  13.659   2.653
34423SOL    HW1 5166  13.595  13.708   2.704
34423SOL    HW2 5167  13.448  13.706   2.666
34424SOL     OW 5168  14.313   3.207  12.516
34424SOL    HW1 5169  14.289   3.271  12.582
34424SOL    HW2 5170  14.236   3.200  12.460
34425SOL     OW 5171   3.978   3.178   1.333
34425SOL    HW1 5172   4.064   3.148   1.301
34425SOL    HW2 5173   3.941   3.101   1.376
34426SOL     OW 5174   7.538   7.478  12.479
34426SOL    HW1 5175   7.607   7.489  12.413
34426SOL    HW2 5176   7.536   7.383  12.495
34427SOL     OW 5177  11.554  14.433  11.555
34427SOL    HW1 5178  11.608  14.499  11.511
34427SOL    HW2 5179  11.495  14.483  11.611
34428SOL     OW 5180  13.480  14.737   4.743
34428SOL    HW1 5181  13.499  14.771   4.830
34428SOL    HW2 5182  13.523  14.652   4.740
34429SOL     OW 5183  13.233   2.790   4.483
34429SOL    HW1 5184  13.328   2.780   4.493
34429SOL    HW2 5185  13.197   2.765   4.567
34430SOL     OW 5186  11.367   7.282   5.918
34430SOL    HW1 5187  11.331   7.245   5.837
34430SOL    HW2 5188  11.293   7.328   5.958
34431SOL     OW 5189  13.304   6.162   4.580
34431SOL    HW1 5190  13.325   6.221   4.653
34431SOL    HW2 5191  13.312   6.074   4.617
34432SOL     OW 5192   0.173  11.706   0.733
34432SOL    HW1 5193   0.146  11.767   0.665
34432SOL    HW2 5194   0.103  11.710   0.799
34433SOL     OW 5195   7.252   9.842   0.884
34433SOL    HW1 5196   7.171   9.890   0.900
34433SOL    HW2 5197   7.307   9.904   0.835
34434SOL     OW 5198   0.147   9.947  10.775
34434SOL    HW1 5199   0.177   9.929  10.864
34434SOL    HW2 5200   0.150  10.042  10.767
34435SOL     OW 5201   3.798   6.692   5.385
34435SOL    HW1 5202   3.825   6.615   5.336
34435SOL    HW2 5203   3.871   6.753   5.376
34436SOL     OW 5204   7.453   3.549   0.186
34436SOL    HW1 5205   7.544   3.564   0.214
34436SOL    HW2 5206   7.430   3.463   0.221
34437SOL     OW 5207  10.684   4.204   8.158
34437SOL    HW1 5208  10.607   4.229   8.106
34437SOL    HW2 5209  10.758   4.222   8.101
34438SOL     OW 5210  10.958   7.909  13.264
34438SOL    HW1 5211  10.907   7.931  13.187
34438SOL    HW2 5212  11.011   7.833  13.237
34439SOL     OW 5213   7.296   7.074   3.205
34439SOL    HW1 5214   7.224   7.011   3.197
34439SOL    HW2 5215   7.272   7.129   3.279
34440SOL     OW 5216   8.896  13.152   6.536
34440SOL    HW1 5217   8.960  13.171   6.468
34440SOL    HW2 5218   8.927  13.199   6.613
34441SOL     OW 5219   6.349  14.614   7.993
34441SOL    HW1 5220   6.413  14.591   8.060
34441SOL    HW2 5221   6.377  14.565   7.916
34442SOL     OW 5222   8.538   6.477  10.178
34442SOL    HW1 5223   8.499   6.556  10.140
34442SOL    HW2 5224   8.623   6.469  10.136
34443SOL     OW 5225   7.786   5.403   0.759
34443SOL    HW1 5226   7.769   5.312   0.738
34443SOL    HW2 5227   7.779   5.449   0.676
34444SOL     OW 5228  11.324   8.598   2.819
34444SOL    HW1 5229  11.362   8.517   2.852
34444SOL    HW2 5230  11.377   8.667   2.858
34445SOL     OW 5231   9.274  11.057  12.770
34445SOL    HW1 5232   9.268  11.151  12.787
34445SOL    HW2 5233   9.339  11.025  12.833
34446SOL     OW 5234   1.098   7.676  11.103
34446SOL    HW1 5235   1.027   7.613  11.096
34446SOL    HW2 5236   1.153   7.643  11.175
34447SOL     OW 5237   4.425  10.972  11.105
34447SOL    HW1 5238   4.330  10.981  11.095
34447SOL    HW2 5239   4.437  10.917  11.182
34448SOL     OW 5240  11.833   2.549   4.467
34448SOL    HW1 5241  11.764   2.522   4.528
34448SOL    HW2 5242  11.915   2.522   4.509
34449SOL     OW 5243   8.629   0.009  10.849
34449SOL    HW1 5244   8.551  14.837  10.858
34449SOL    HW2 5245   8.597   0.099  10.856
34450SOL     OW 5246   6.368   0.941  14.681
34450SOL    HW1 5247   6.349   1.009  14.745
34450SOL    HW2 5248   6.305   0.956  14.610
34451SOL     OW 5249  13.207   6.978  11.927
34451SOL    HW1 5250  13.243   6.978  12.015
34451SOL    HW2 5251  13.209   6.886  11.900
34452SOL     OW 5252   1.718  11.479  12.805
34452SOL    HW1 5253   1.749  11.569  12.811
34452SOL    HW2 5254   1.769  11.440  12.734
34453SOL     OW 5255   4.351  14.276   5.941
34453SOL    HW1 5256   4.339  14.327   6.021
34453SOL    HW2 5257   4.323  14.187   5.964
34454SOL     OW 5258   6.814  11.686   3.196
34454SOL    HW1 5259   6.799  11.616   3.259
34454SOL    HW2 5260   6.874  11.648   3.132
34455SOL     OW 5261   6.893   4.125   9.181
34455SOL    HW1 5262   6.982   4.160   9.188
34455SOL    HW2 5263   6.856   4.135   9.269
34456SOL     OW 5264  10.251   5.416   5.909
34456SOL    HW1 5265  10.206   5.332   5.909
34456SOL    HW2 5266  10.279   5.428   5.818
34457SOL     OW 5267   4.785   7.734   9.045
34457SOL    HW1 5268   4.777   7.652   8.996
34457SOL    HW2 5269   4.829   7.794   8.985
34458SOL     OW 5270  11.567   1.827   2.098
34458SOL    HW1 5271  11.603   1.902   2.146
34458SOL    HW2 5272  11.609   1.831   2.012
34459SOL     OW 5273  13.147   0.017   4.618
34459SOL    HW1 5274  13.097   0.004   4.538
34459SOL    HW2 5275  13.210  14.827   4.619
34460SOL     OW 5276   9.366   6.171   0.064
34460SOL    HW1 5277   9.381   6.135   0.152
34460SOL    HW2 5278   9.295   6.233   0.076
34461SOL     OW 5279  13.974  14.844  12.961
34461SOL    HW1 5280  14.009   0.014  12.889
34461SOL    HW2 5281  14.048  14.835  13.021
34462SOL     OW 5282   0.642   9.352   5.460
34462SOL    HW1 5283   0.626   9.263   5.491
34462SOL    HW2 5284   0.719   9.381   5.508
34463SOL     OW 5285   7.209  13.228   8.474
34463SOL    HW1 5286   7.236  13.241   8.383
34463SOL    HW2 5287   7.200  13.133   8.482
34464SOL     OW 5288   3.066  14.430  13.502
34464SOL    HW1 5289   3.010  14.500  13.534
34464SOL    HW2 5290   3.149  14.442  13.549
34465SOL     OW 5291   5.354  14.283   4.190
34465SOL    HW1 5292   5.345  14.193   4.221
34465SOL    HW2 5293   5.397  14.329   4.262
34466SOL     OW 5294   2.226  10.090  10.450
34466SOL    HW1 5295   2.144  10.086  10.401
34466SOL    HW2 5296   2.208  10.153  10.520
34467SOL     OW 5297  14.722   4.391  13.877
34467SOL    HW1 5298  14.704   4.379  13.783
34467SOL    HW2 5299  14.707   4.484  13.892
34468SOL     OW 5300   6.181   5.902   3.132
34468SOL    HW1 5301   6.258   5.844   3.133
34468SOL    HW2 5302   6.118   5.856   3.077
34469SOL     OW 5303   6.837  10.863  12.352
34469SOL    HW1 5304   6.869  10.777  12.380
34469SOL    HW2 5305   6.770  10.885  12.417
34470SOL     OW 5306   0.705   3.837   9.307
34470SOL    HW1 5307   0.672   3.834   9.217
34470SOL    HW2 5308   0.771   3.767   9.310
34471SOL     OW 5309   4.346   5.725   4.636
34471SOL    HW1 5310   4.277   5.728   4.570
34471SOL    HW2 5311   4.330   5.644   4.685
34472SOL     OW 5312   3.178   1.150  10.945
34472SOL    HW1 5313   3.222   1.098  11.011
34472SOL    HW2 5314   3.178   1.239  10.980
34473SOL     OW 5315  14.488   9.067   0.045
34473SOL    HW1 5316  14.445   9.127   0.106
34473SOL    HW2 5317  14.538   9.124  14.868
34474SOL     OW 5318   1.510   5.607  13.509
34474SOL    HW1 5319   1.451   5.635  13.439
34474SOL    HW2 5320   1.575   5.676  13.515
34475SOL     OW 5321   5.668   9.828   7.837
34475SOL    HW1 5322   5.750   9.877   7.839
34475SOL    HW2 5323   5.634   9.842   7.749
34476SOL     OW 5324  14.467   2.738  13.472
34476SOL    HW1 5325  14.441   2.741  13.564
34476SOL    HW2 5326  14.443   2.650  13.443
34477SOL     OW 5327   3.518   4.938   6.174
34477SOL    HW1 5328   3.464   4.861   6.191
34477SOL    HW2 5329   3.605   4.913   6.205
34478SOL     OW 5330   2.129   8.074   0.386
34478SOL    HW1 5331   2.176   7.995   0.360
34478SOL    HW2 5332   2.172   8.101   0.467
34479SOL     OW 5333   1.403  14.634   1.232
34479SOL    HW1 5334   1.494  14.611   1.215
34479SOL    HW2 5335   1.402  14.730   1.230
34480SOL     OW 5336  13.454  14.248   1.380
34480SOL    HW1 5337  13.519  14.312   1.351
34480SOL    HW2 5338  13.383  14.301   1.416
34481SOL     OW 5339   8.367  12.333  14.573
34481SOL    HW1 5340   8.437  12.383  14.530
34481SOL    HW2 5341   8.288  12.357  14.526
34482SOL     OW 5342   2.656   3.209  13.055
34482SOL    HW1 5343   2.619   3.254  13.131
34482SOL    HW2 5344   2.744   3.183  13.083
34483SOL     OW 5345   0.671   1.743   2.756
34483SOL    HW1 5346   0.662   1.648   2.747
34483SOL    HW2 5347   0.605   1.768   2.820
34484SOL     OW 5348   0.281   6.362   8.954
34484SOL    HW1 5349   0.199   6.377   8.907
34484SOL    HW2 5350   0.334   6.311   8.893
34485SOL     OW 5351   6.579  13.963  14.319
34485SOL    HW1 5352   6.586  13.880  14.366
34485SOL    HW2 5353   6.668  13.997  14.317
34486SOL     OW 5354  10.711  14.437   3.366
34486SOL    HW1 5355  10.672  14.394   3.290
34486SOL    HW2 5356  10.650  14.420   3.437
34487SOL     OW 5357   9.767   4.154   4.014
34487SOL    HW1 5358   9.691   4.160   3.955
34487SOL    HW2 5359   9.809   4.072   3.990
34488SOL     OW 5360   3.715  11.656   7.330
34488SOL    HW1 5361   3.638  11.600   7.337
34488SOL    HW2 5362   3.713  11.709   7.410
34489SOL     OW 5363   4.067   7.377  10.160
34489SOL    HW1 5364   4.010   7.387  10.084
34489SOL    HW2 5365   4.015   7.325  10.222
34490SOL     OW 5366  14.196   2.109  14.775
34490SOL    HW1 5367  14.104   2.132  14.760
34490SOL    HW2 5368  14.241   2.137  14.695
34491SOL     OW 5369   9.417  10.687  13.018
34491SOL    HW1 5370   9.389  10.595  13.007
34491SOL    HW2 5371   9.475  10.686  13.093
34492SOL     OW 5372   1.199  13.810  10.511
34492SOL    HW1 5373   1.279  13.773  10.549
34492SOL    HW2 5374   1.143  13.734  10.496
34493SOL     OW 5375   1.510  12.700  11.244
34493SOL    HW1 5376   1.602  12.676  11.229
34493SOL    HW2 5377   1.485  12.748  11.166
34494SOL     OW 5378  10.998   4.767   8.623
34494SOL    HW1 5379  11.063   4.703   8.593
34494SOL    HW2 5380  10.917   4.715   8.632
34495SOL     OW 5381   9.685   8.295  13.035
34495SOL    HW1 5382   9.749   8.318  13.102
34495SOL    HW2 5383   9.681   8.200  13.036
34496SOL     OW 5384   9.684   7.413   8.923
34496SOL    HW1 5385   9.712   7.322   8.929
34496SOL    HW2 5386   9.698   7.436   8.831
34497SOL     OW 5387   7.727   7.729   6.319
34497SOL    HW1 5388   7.746   7.670   6.247
34497SOL    HW2 5389   7.759   7.814   6.290
34498SOL     OW 5390   2.402   9.054   9.076
34498SOL    HW1 5391   2.467   9.051   9.146
34498SOL    HW2 5392   2.380   8.962   9.060
34499SOL     OW 5393   3.578  14.051   7.698
34499SOL    HW1 5394   3.493  14.022   7.664
34499SOL    HW2 5395   3.604  13.983   7.760
34500SOL     OW 5396   5.772   3.498   1.107
34500SOL    HW1 5397   5.677   3.502   1.103
34500SOL    HW2 5398   5.791   3.406   1.126
34501SOL     OW 5399   4.070   6.581  14.452
34501SOL    HW1 5400   4.076   6.535  14.368
34501SOL    HW2 5401   4.092   6.672  14.432
34502SOL     OW 5402   0.597   1.895  11.401
34502SOL    HW1 5403   0.562   1.871  11.487
34502SOL    HW2 5404   0.571   1.986  11.389
34503SOL     OW 5405   6.871   7.215   2.199
34503SOL    HW1 5406   6.801   7.187   2.140
34503SOL    HW2 5407   6.844   7.181   2.285
34504SOL     OW 5408   5.049   3.917   0.583
34504SOL    HW1 5409   5.116   3.920   0.514
34504SOL    HW2 5410   5.063   3.833   0.626
34505SOL     OW 5411   3.642   9.322  12.355
34505SOL    HW1 5412   3.587   9.255  12.395
34505SOL    HW2 5413   3.610   9.405  12.391
34506SOL     OW 5414   6.690  14.691  13.294
34506SOL    HW1 5415   6.741  14.670  13.372
34506SOL    HW2 5416   6.703  14.617  13.236
34507SOL     OW 5417   7.796  10.594   4.228
34507SOL    HW1 5418   7.788  10.528   4.159
34507SOL    HW2 5419   7.753  10.672   4.192
34508SOL     OW 5420   4.491   6.692   2.348
34508SOL    HW1 5421   4.496   6.767   2.289
34508SOL    HW2 5422   4.468   6.618   2.292
34509SOL     OW 5423   6.935   8.897  11.057
34509SOL    HW1 5424   6.944   8.850  11.140
34509SOL    HW2 5425   6.996   8.971  11.064
34510SOL     OW 5426  13.517  11.467   7.199
34510SOL    HW1 5427  13.482  11.460   7.110
34510SOL    HW2 5428  13.444  11.441   7.256
34511SOL     OW 5429   6.872   6.333   3.971
34511SOL    HW1 5430   6.843   6.341   4.062
34511SOL    HW2 5431   6.956   6.377   3.968
34512SOL     OW 5432  10.155   1.298   7.308
34512SOL    HW1 5433  10.089   1.318   7.375
34512SOL    HW2 5434  10.225   1.255   7.356
34513SOL     OW 5435   9.975   4.847  13.170
34513SOL    HW1 5436   9.951   4.816  13.082
34513SOL    HW2 5437  10.069   4.864  13.164
34514SOL     OW 5438  12.646   2.150   4.748
34514SOL    HW1 5439  12.675   2.068   4.708
34514SOL    HW2 5440  12.689   2.152   4.833
34515SOL     OW 5441  10.874   3.277  10.023
34515SOL    HW1 5442  10.830   3.210  10.075
34515SOL    HW2 5443  10.811   3.348  10.014
34516SOL     OW 5444  10.858   5.992  12.819
34516SOL    HW1 5445  10.903   6.031  12.894
34516SOL    HW2 5446  10.766   6.013  12.832
34517SOL     OW 5447  13.497  10.674   3.539
34517SOL    HW1 5448  13.538  10.742   3.593
34517SOL    HW2 5449  13.410  10.708   3.519
34518SOL     OW 5450   5.182   2.865  14.201
34518SOL    HW1 5451   5.171   2.923  14.126
34518SOL    HW2 5452   5.270   2.883  14.233
34519SOL     OW 5453   4.311   2.724   0.941
34519SOL    HW1 5454   4.241   2.788   0.949
34519SOL    HW2 5455   4.281   2.650   0.994
34520SOL     OW 5456  12.093  13.711   2.175
34520SOL    HW1 5457  12.117  13.776   2.241
34520SOL    HW2 5458  12.023  13.753   2.125
34521SOL     OW 5459   8.925   0.713   0.939
34521SOL    HW1 5460   8.965   0.627   0.924
34521SOL    HW2 5461   9.000   0.770   0.960
34522SOL     OW 5462   6.864   8.910  14.744
34522SOL    HW1 5463   6.849   8.911  14.649
34522SOL    HW2 5464   6.801   8.972  14.779
34523SOL     OW 5465   5.851   0.285   5.102
34523SOL    HW1 5466   5.834   0.367   5.148
34523SOL    HW2 5467   5.940   0.295   5.068
34524SOL     OW 5468  11.313  10.639   7.307
34524SOL    HW1 5469  11.375  10.678   7.245
34524SOL    HW2 5470  11.238  10.698   7.306
34525SOL     OW 5471  14.157   8.975  14.869
34525SOL    HW1 5472  14.198   8.963  14.784
34525SOL    HW2 5473  14.227   8.961   0.050
34526SOL     OW 5474   9.946   2.574   2.143
34526SOL    HW1 5475   9.894   2.649   2.116
34526SOL    HW2 5476  10.037   2.601   2.128
34527SOL     OW 5477   3.773   6.401   8.246
34527SOL    HW1 5478   3.865   6.377   8.255
34527SOL    HW2 5479   3.726   6.317   8.251
34528SOL     OW 5480   4.910   4.341  13.710
34528SOL    HW1 5481   4.947   4.429  13.719
34528SOL    HW2 5482   4.922   4.300  13.795
34529SOL     OW 5483   2.384  11.015   8.926
34529SOL    HW1 5484   2.294  11.044   8.912
34529SOL    HW2 5485   2.383  10.972   9.012
34530SOL     OW 5486   7.517   2.310   9.774
34530SOL    HW1 5487   7.481   2.222   9.785
34530SOL    HW2 5488   7.454   2.356   9.719
34531SOL     OW 5489  12.372  12.715  11.799
34531SOL    HW1 5490  12.383  12.634  11.749
34531SOL    HW2 5491  12.323  12.772  11.741
34532SOL     OW 5492   0.790   9.992  11.694
34532SOL    HW1 5493   0.760   9.981  11.603
34532SOL    HW2 5494   0.719  10.038  11.737
34533SOL     OW 5495   6.854   7.510  10.555
34533SOL    HW1 5496   6.853   7.534  10.648
34533SOL    HW2 5497   6.868   7.593  10.509
34534SOL     OW 5498  13.636   7.254  12.909
34534SOL    HW1 5499  13.626   7.346  12.933
34534SOL    HW2 5500  13.562   7.236  12.851
34535SOL     OW 5501   9.831   1.744   4.309
34535SOL    HW1 5502   9.758   1.706   4.261
34535SOL    HW2 5503   9.810   1.837   4.317
34536SOL     OW 5504  13.394  14.540   9.682
34536SOL    HW1 5505  13.299  14.542   9.690
34536SOL    HW2 5506  13.413  14.595   9.607
34537SOL     OW 5507   8.629   4.493   3.467
34537SOL    HW1 5508   8.571   4.546   3.412
34537SOL    HW2 5509   8.706   4.478   3.412
34538SOL     OW 5510   2.073   7.116   3.891
34538SOL    HW1 5511   2.086   7.187   3.828
34538SOL    HW2 5512   1.989   7.137   3.932
34539SOL     OW 5513  11.914   3.462   3.563
34539SOL    HW1 5514  11.825   3.428   3.570
34539SOL    HW2 5515  11.925   3.483   3.470
34540SOL     OW 5516   2.924   4.034   6.619
34540SOL    HW1 5517   2.836   4.057   6.649
34540SOL    HW2 5518   2.946   4.104   6.557
34541SOL     OW 5519   4.388  14.759  13.038
34541SOL    HW1 5520   4.438  14.691  12.992
34541SOL    HW2 5521   4.454  14.814  13.079
34542SOL     OW 5522   9.248   7.616  12.641
34542SOL    HW1 5523   9.254   7.708  12.667
34542SOL    HW2 5524   9.337   7.591  12.617
34543SOL     OW 5525   9.016   5.131   9.217
34543SOL    HW1 5526   8.936   5.091   9.183
34543SOL    HW2 5527   8.986   5.204   9.271
34544SOL     OW 5528   7.485   5.115  12.372
34544SOL    HW1 5529   7.392   5.138  12.380
34544SOL    HW2 5530   7.520   5.128  12.460
34545SOL     OW 5531   8.852   0.031  11.035
34545SOL    HW1 5532   8.918   0.096  11.013
34545SOL    HW2 5533   8.789   0.034  10.963
34546SOL     OW 5534   1.706   6.493  13.471
34546SOL    HW1 5535   1.689   6.493  13.565
34546SOL    HW2 5536   1.625   6.526  13.432
34547SOL     OW 5537   6.529  11.286   0.479
34547SOL    HW1 5538   6.535  11.338   0.559
34547SOL    HW2 5539   6.504  11.349   0.412
34548SOL     OW 5540   4.992   5.594   4.167
34548SOL    HW1 5541   5.035   5.662   4.218
34548SOL    HW2 5542   4.911   5.634   4.136
34549SOL     OW 5543  11.512  14.299  12.957
34549SOL    HW1 5544  11.491  14.219  13.004
34549SOL    HW2 5545  11.439  14.312  12.896
34550SOL     OW 5546   5.747   8.351  12.745
34550SOL    HW1 5547   5.737   8.257  12.728
34550SOL    HW2 5548   5.658   8.382  12.759
34551SOL     OW 5549   1.049   6.704   8.680
34551SOL    HW1 5550   0.972   6.694   8.624
34551SOL    HW2 5551   1.043   6.794   8.712
34552SOL     OW 5552   7.270   7.629   5.451
34552SOL    HW1 5553   7.276   7.714   5.408
34552SOL    HW2 5554   7.323   7.638   5.531
34553SOL     OW 5555  11.314  11.383   2.368
34553SOL    HW1 5556  11.390  11.415   2.318
34553SOL    HW2 5557  11.351  11.315   2.425
34554SOL     OW 5558   2.414  11.859   6.936
34554SOL    HW1 5559   2.404  11.808   7.016
34554SOL    HW2 5560   2.509  11.867   6.925
34555SOL     OW 5561   6.254   0.880  10.642
34555SOL    HW1 5562   6.207   0.809  10.687
34555SOL    HW2 5563   6.199   0.901  10.567
34556SOL     OW 5564  12.145   8.230   0.225
34556SOL    HW1 5565  12.209   8.210   0.292
34556SOL    HW2 5566  12.143   8.153   0.168
34557SOL     OW 5567   1.510   6.162  14.787
34557SOL    HW1 5568   1.569   6.099  14.828
34557SOL    HW2 5569   1.444   6.180  14.854
34558SOL     OW 5570   7.549   9.608   9.061
34558SOL    HW1 5571   7.502   9.600   9.144
34558SOL    HW2 5572   7.574   9.701   9.056
34559SOL     OW 5573  13.662   0.640   0.599
34559SOL    HW1 5574  13.711   0.697   0.658
34559SOL    HW2 5575  13.729   0.591   0.551
34560SOL     OW 5576   5.689  11.709   3.029
34560SOL    HW1 5577   5.740  11.644   3.077
34560SOL    HW2 5578   5.622  11.658   2.983
34561SOL     OW 5579  13.130   7.141   5.352
34561SOL    HW1 5580  13.148   7.101   5.267
34561SOL    HW2 5581  13.121   7.234   5.333
34562SOL     OW 5582   4.127  13.701  11.471
34562SOL    HW1 5583   4.152  13.787  11.506
34562SOL    HW2 5584   4.097  13.652  11.547
34563SOL     OW 5585  11.598  14.559   9.872
34563SOL    HW1 5586  11.518  14.598   9.908
34563SOL    HW2 5587  11.668  14.592   9.928
34564SOL     OW 5588  10.584   3.634   8.198
34564SOL    HW1 5589  10.610   3.559   8.252
34564SOL    HW2 5590  10.491   3.620   8.182
34565SOL     OW 5591   1.010   0.473  14.234
34565SOL    HW1 5592   1.022   0.556  14.187
34565SOL    HW2 5593   1.098   0.448  14.260
34566SOL     OW 5594  14.094  10.170   1.295
34566SOL    HW1 5595  14.138  10.114   1.358
34566SOL    HW2 5596  14.114  10.131   1.210
34567SOL     OW 5597  10.626   9.106   0.519
34567SOL    HW1 5598  10.680   9.184   0.505
34567SOL    HW2 5599  10.680   9.034   0.486
34568SOL     OW 5600   6.051   7.375   9.594
34568SOL    HW1 5601   6.035   7.302   9.654
34568SOL    HW2 5602   6.008   7.349   9.513
34569SOL     OW 5603  13.266  10.747   7.920
34569SOL    HW1 5604  13.319  10.748   8.000
34569SOL    HW2 5605  13.282  10.833   7.880
34570SOL     OW 5606  14.087   3.102   1.829
34570SOL    HW1 5607  14.160   3.042   1.846
34570SOL    HW2 5608  14.128   3.182   1.796
34571SOL     OW 5609   1.598   4.617  14.020
34571SOL    HW1 5610   1.680   4.634  14.066
34571SOL    HW2 5611   1.624   4.581  13.936
34572SOL     OW 5612  13.281  13.980  13.046
34572SOL    HW1 5613  13.327  14.064  13.046
34572SOL    HW2 5614  13.211  13.991  13.111
34573SOL     OW 5615  14.664   3.261  14.209
34573SOL    HW1 5616  14.727   3.332  14.224
34573SOL    HW2 5617  14.578   3.303  14.220
34574SOL     OW 5618   1.811   0.716   4.272
34574SOL    HW1 5619   1.900   0.681   4.278
34574SOL    HW2 5620   1.775   0.705   4.361
34575SOL     OW 5621  10.052   3.192  12.278
34575SOL    HW1 5622  10.070   3.272  12.229
34575SOL    HW2 5623  10.086   3.122  12.223
34576SOL     OW 5624   3.946  12.973   3.735
34576SOL    HW1 5625   3.968  13.039   3.669
34576SOL    HW2 5626   3.962  13.017   3.819
34577SOL     OW 5627   2.214   6.249   8.535
34577SOL    HW1 5628   2.304   6.277   8.548
34577SOL    HW2 5629   2.165   6.293   8.605
34578SOL     OW 5630   1.907  10.886   7.406
34578SOL    HW1 5631   1.939  10.927   7.325
34578SOL    HW2 5632   1.895  10.794   7.383
34579SOL     OW 5633   1.043   0.685  12.450
34579SOL    HW1 5634   0.980   0.640  12.394
34579SOL    HW2 5635   1.014   0.664  12.539
34580SOL     OW 5636   2.079   1.103   3.413
34580SOL    HW1 5637   2.009   1.054   3.371
34580SOL    HW2 5638   2.113   1.044   3.481
34581SOL     OW 5639   3.511  14.330   5.344
34581SOL    HW1 5640   3.575  14.402   5.347
34581SOL    HW2 5641   3.464  14.337   5.427
34582SOL     OW 5642  12.933   6.814  14.132
34582SOL    HW1 5643  12.973   6.900  14.123
34582SOL    HW2 5644  12.995   6.764  14.186
34583SOL     OW 5645   1.616   9.014   1.941
34583SOL    HW1 5646   1.669   8.971   1.874
34583SOL    HW2 5647   1.643   9.106   1.938
34584SOL     OW 5648   6.724  11.619   1.659
34584SOL    HW1 5649   6.801  11.630   1.603
34584SOL    HW2 5650   6.744  11.543   1.713
34585SOL     OW 5651  12.703  11.575   7.939
34585SOL    HW1 5652  12.770  11.553   7.873
34585SOL    HW2 5653  12.622  11.537   7.904
34586SOL     OW 5654   6.667  13.312  14.551
34586SOL    HW1 5655   6.630  13.231  14.587
34586SOL    HW2 5656   6.696  13.361  14.628
34587SOL     OW 5657   4.807   9.164   1.009
34587SOL    HW1 5658   4.733   9.120   1.050
34587SOL    HW2 5659   4.850   9.212   1.080
34588SOL     OW 5660  10.487   0.552  14.437
34588SOL    HW1 5661  10.466   0.563  14.530
34588SOL    HW2 5662  10.403   0.533  14.396
34589SOL     OW 5663   6.825   7.393  13.561
34589SOL    HW1 5664   6.731   7.392  13.580
34589SOL    HW2 5665   6.834   7.454  13.487
34590SOL     OW 5666  12.601   2.672  11.007
34590SOL    HW1 5667  12.682   2.628  10.980
34590SOL    HW2 5668  12.584   2.637  11.095
34591SOL     OW 5669   6.982   5.272   4.966
34591SOL    HW1 5670   6.993   5.249   4.873
34591SOL    HW2 5671   7.051   5.337   4.983
34592SOL     OW 5672  10.430   6.879   4.930
34592SOL    HW1 5673  10.434   6.791   4.891
34592SOL    HW2 5674  10.384   6.932   4.864
34593SOL     OW 5675   3.278   4.576   0.922
34593SOL    HW1 5676   3.236   4.655   0.955
34593SOL    HW2 5677   3.221   4.505   0.951
34594SOL     OW 5678  12.524  12.164  13.560
34594SOL    HW1 5679  12.571  12.209  13.630
34594SOL    HW2 5680  12.441  12.139  13.599
34595SOL     OW 5681  13.355   5.569  12.571
34595SOL    HW1 5682  13.341   5.615  12.654
34595SOL    HW2 5683  13.280   5.509  12.564
34596SOL     OW 5684  12.573   6.360  14.676
34596SOL    HW1 5685  12.604   6.346  14.587
34596SOL    HW2 5686  12.566   6.455  14.684
34597SOL     OW 5687   1.262   0.124   8.245
34597SOL    HW1 5688   1.328   0.077   8.195
34597SOL    HW2 5689   1.295   0.124   8.335
34598SOL     OW 5690  12.839   0.915  10.707
34598SOL    HW1 5691  12.890   0.853  10.759
34598SOL    HW2 5692  12.775   0.951  10.768
34599SOL     OW 5693   6.252  12.565   5.248
34599SOL    HW1 5694   6.339  12.601   5.264
34599SOL    HW2 5695   6.204  12.635   5.204
34600SOL     OW 5696  11.760   8.387   0.520
34600SOL    HW1 5697  11.677   8.345   0.499
34600SOL    HW2 5698  11.826   8.327   0.486
34601SOL     OW 5699  12.029   1.384  13.683
34601SOL    HW1 5700  12.083   1.432  13.746
34601SOL    HW2 5701  12.086   1.314  13.651
34602SOL     OW 5702   3.978  13.302  10.288
34602SOL    HW1 5703   3.948  13.303  10.197
34602SOL    HW2 5704   4.041  13.230  10.291
34603SOL     OW 5705   3.439  14.739   0.373
34603SOL    HW1 5706   3.377  14.799   0.330
34603SOL    HW2 5707   3.517  14.793   0.389
34604SOL     OW 5708  14.117   9.241   9.678
34604SOL    HW1 5709  14.169   9.207   9.750
34604SOL    HW2 5710  14.125   9.175   9.609
34605SOL     OW 5711   0.178   3.248   7.174
34605SOL    HW1 5712   0.126   3.190   7.229
34605SOL    HW2 5713   0.220   3.189   7.111
34606SOL     OW 5714  14.743  11.330   9.188
34606SOL    HW1 5715  14.708  11.395   9.127
34606SOL    HW2 5716  14.837  11.331   9.173
34607SOL     OW 5717  14.585   8.393   2.021
34607SOL    HW1 5718  14.532   8.391   2.101
34607SOL    HW2 5719  14.525   8.426   1.954
34608SOL     OW 5720   2.164  14.871   5.255
34608SOL    HW1 5721   2.077   0.029   5.268
34608SOL    HW2 5722   2.218   0.027   5.324
34609SOL     OW 5723  13.250   0.791   8.232
34609SOL    HW1 5724  13.303   0.855   8.185
34609SOL    HW2 5725  13.287   0.787   8.319
34610SOL     OW 5726  10.924  13.026   1.335
34610SOL    HW1 5727  10.834  13.049   1.355
34610SOL    HW2 5728  10.974  13.057   1.411
34611SOL     OW 5729  13.407   0.468  13.905
34611SOL    HW1 5730  13.456   0.389  13.928
34611SOL    HW2 5731  13.443   0.495  13.821
34612SOL     OW 5732   8.878   1.560   1.982
34612SOL    HW1 5733   8.786   1.572   1.960
34612SOL    HW2 5734   8.902   1.478   1.939
34613SOL     OW 5735   9.843  14.598   3.113
34613SOL    HW1 5736   9.830  14.576   3.021
34613SOL    HW2 5737   9.824  14.692   3.118
34614SOL     OW 5738   1.566  11.419   2.290
34614SOL    HW1 5739   1.482  11.433   2.246
34614SOL    HW2 5740   1.583  11.325   2.280
34615SOL     OW 5741   8.584  14.723   0.407
34615SOL    HW1 5742   8.496  14.760   0.410
34615SOL    HW2 5743   8.616  14.742   0.319
34616SOL     OW 5744   0.379  12.363  12.432
34616SOL    HW1 5745   0.363  12.387  12.341
34616SOL    HW2 5746   0.348  12.272  12.439
34617SOL     OW 5747   3.149   8.453   3.236
34617SOL    HW1 5748   3.077   8.422   3.180
34617SOL    HW2 5749   3.105   8.497   3.309
34618SOL     OW 5750   8.865   6.681   3.479
34618SOL    HW1 5751   8.875   6.712   3.389
34618SOL    HW2 5752   8.782   6.718   3.508
34619SOL     OW 5753  14.420   3.273   6.519
34619SOL    HW1 5754  14.383   3.359   6.504
34619SOL    HW2 5755  14.514   3.288   6.525
34620SOL     OW 5756   1.834   9.045   5.991
34620SOL    HW1 5757   1.751   9.091   5.979
34620SOL    HW2 5758   1.889   9.108   6.038
34621SOL     OW 5759  13.263   9.170  10.707
34621SOL    HW1 5760  13.235   9.188  10.617
34621SOL    HW2 5761  13.345   9.217  10.716
34622SOL     OW 5762  12.596   9.327   1.980
34622SOL    HW1 5763  12.525   9.284   2.027
34622SOL    HW2 5764  12.656   9.256   1.957
34623SOL     OW 5765   6.893  12.552  13.388
34623SOL    HW1 5766   6.884  12.647  13.394
34623SOL    HW2 5767   6.894  12.534  13.294
34624SOL     OW 5768   3.931  14.482   3.067
34624SOL    HW1 5769   3.977  14.431   3.002
34624SOL    HW2 5770   4.000  14.529   3.114
34625SOL     OW 5771   9.564   5.783   0.665
34625SOL    HW1 5772   9.659   5.788   0.677
34625SOL    HW2 5773   9.553   5.764   0.572
34626SOL     OW 5774  14.663   5.285   2.772
34626SOL    HW1 5775  14.677   5.336   2.852
34626SOL    HW2 5776  14.569   5.292   2.755
34627SOL     OW 5777   0.998  11.194   7.898
34627SOL    HW1 5778   0.934  11.247   7.851
34627SOL    HW2 5779   1.014  11.119   7.840
34628SOL     OW 5780  11.235   6.563   4.385
34628SOL    HW1 5781  11.273   6.619   4.452
34628SOL    HW2 5782  11.142   6.583   4.386
34629SOL     OW 5783   5.868  14.610  10.430
34629SOL    HW1 5784   5.921  14.536  10.457
34629SOL    HW2 5785   5.913  14.647  10.354
34630SOL     OW 5786   7.132   2.929   6.479
34630SOL    HW1 5787   7.220   2.967   6.475
34630SOL    HW2 5788   7.148   2.834   6.478
34631SOL     OW 5789   9.710  11.070  14.390
34631SOL    HW1 5790   9.697  11.052  14.297
34631SOL    HW2 5791   9.643  11.018  14.434
34632SOL     OW 5792   1.014  12.265   4.062
34632SOL    HW1 5793   1.015  12.209   4.140
34632SOL    HW2 5794   1.073  12.337   4.084
34633SOL     OW 5795   0.897   0.728   2.110
34633SOL    HW1 5796   0.818   0.697   2.155
34633SOL    HW2 5797   0.965   0.666   2.134
34634SOL     OW 5798   6.804  14.151   9.347
34634SOL    HW1 5799   6.732  14.214   9.346
34634SOL    HW2 5800   6.766  14.071   9.383
34635SOL     OW 5801  12.132   9.736   7.687
34635SOL    HW1 5802  12.117   9.718   7.780
34635SOL    HW2 5803  12.098   9.825   7.673
34636SOL     OW 5804   2.351   3.201   8.232
34636SOL    HW1 5805   2.319   3.290   8.216
34636SOL    HW2 5806   2.272   3.147   8.238
34637SOL     OW 5807  14.624  11.773  12.264
34637SOL    HW1 5808  14.690  11.803  12.328
34637SOL    HW2 5809  14.673  11.714  12.206
34638SOL     OW 5810   7.089  14.547   6.051
34638SOL    HW1 5811   7.061  14.626   6.004
34638SOL    HW2 5812   7.101  14.576   6.141
34639SOL     OW 5813   9.066   1.792   9.675
34639SOL    HW1 5814   9.000   1.806   9.606
34639SOL    HW2 5815   9.016   1.799   9.756
34640SOL     OW 5816  12.026   0.869   4.527
34640SOL    HW1 5817  12.006   0.894   4.618
34640SOL    HW2 5818  12.108   0.915   4.508
34641SOL     OW 5819   0.523  10.847   1.695
34641SOL    HW1 5820   0.486  10.933   1.716
34641SOL    HW2 5821   0.531  10.846   1.600
34642SOL     OW 5822   8.829   7.323   4.982
34642SOL    HW1 5823   8.801   7.381   4.911
34642SOL    HW2 5824   8.751   7.314   5.037
34643SOL     OW 5825   2.805   2.537   2.022
34643SOL    HW1 5826   2.825   2.608   1.960
34643SOL    HW2 5827   2.866   2.467   1.998
34644SOL     OW 5828   8.579   2.303   8.884
34644SOL    HW1 5829   8.501   2.323   8.936
34644SOL    HW2 5830   8.596   2.211   8.901
34645SOL     OW 5831   9.300   9.268  10.233
34645SOL    HW1 5832   9.204   9.263  10.237
34645SOL    HW2 5833   9.323   9.343  10.288
34646SOL     OW 5834   1.930  10.240  11.598
34646SOL    HW1 5835   1.949  10.147  11.605
34646SOL    HW2 5836   1.863  10.247  11.530
34647SOL     OW 5837  13.085   2.764  14.803
34647SOL    HW1 5838  13.179   2.781  14.810
34647SOL    HW2 5839  13.051   2.777   0.009
34648SOL     OW 5840   9.707  12.046   5.974
34648SOL    HW1 5841   9.766  11.971   5.981
34648SOL    HW2 5842   9.746  12.099   5.904
34649SOL     OW 5843   4.618   0.455   7.385
34649SOL    HW1 5844   4.571   0.374   7.404
34649SOL    HW2 5845   4.680   0.431   7.316
34650SOL     OW 5846   9.713   8.802   5.528
34650SOL    HW1 5847   9.795   8.839   5.497
34650SOL    HW2 5848   9.656   8.878   5.540
34651SOL     OW 5849  13.146   4.651   2.829
34651SOL    HW1 5850  13.125   4.625   2.739
34651SOL    HW2 5851  13.065   4.635   2.878
34652SOL     OW 5852  11.139   2.750   3.477
34652SOL    HW1 5853  11.097   2.785   3.398
34652SOL    HW2 5854  11.190   2.675   3.445
34653SOL     OW 5855  11.209   5.233   4.469
34653SOL    HW1 5856  11.158   5.219   4.389
34653SOL    HW2 5857  11.227   5.145   4.502
34654SOL     OW 5858   5.629   7.255   7.300
34654SOL    HW1 5859   5.600   7.313   7.370
34654SOL    HW2 5860   5.696   7.199   7.340
34655SOL     OW 5861  10.515   7.618   3.450
34655SOL    HW1 5862  10.524   7.648   3.540
34655SOL    HW2 5863  10.457   7.542   3.455
34656SOL     OW 5864  12.686   9.424   1.281
34656SOL    HW1 5865  12.638   9.398   1.202
34656SOL    HW2 5866  12.778   9.421   1.255
34657SOL     OW 5867   9.802   7.030   0.041
34657SOL    HW1 5868   9.839   7.056   0.125
34657SOL    HW2 5869   9.805   7.109  14.870
34658SOL     OW 5870   8.807   2.404   6.542
34658SOL    HW1 5871   8.781   2.471   6.479
34658SOL    HW2 5872   8.898   2.426   6.564
34659SOL     OW 5873   6.225   1.570   8.339
34659SOL    HW1 5874   6.226   1.645   8.281
34659SOL    HW2 5875   6.206   1.607   8.426
34660SOL     OW 5876   3.670   0.021   1.363
34660SOL    HW1 5877   3.718  14.850   1.426
34660SOL    HW2 5878   3.737   0.078   1.323
34661SOL     OW 5879   1.762   5.972  11.912
34661SOL    HW1 5880   1.814   5.954  11.833
34661SOL    HW2 5881   1.791   6.058  11.941
34662SOL     OW 5882   2.259   6.365   6.524
34662SOL    HW1 5883   2.226   6.282   6.492
34662SOL    HW2 5884   2.245   6.426   6.452
34663SOL     OW 5885  11.917  11.298   9.387
34663SOL    HW1 5886  11.878  11.386   9.384
34663SOL    HW2 5887  11.844  11.239   9.367
34664SOL     OW 5888   5.770  11.777   9.761
34664SOL    HW1 5889   5.681  11.753   9.784
34664SOL    HW2 5890   5.791  11.852   9.817
34665SOL     OW 5891   2.607   4.546   8.083
34665SOL    HW1 5892   2.529   4.541   8.139
34665SOL    HW2 5893   2.629   4.455   8.064
34666SOL     OW 5894  10.197   3.375   9.054
34666SOL    HW1 5895  10.101   3.376   9.052
34666SOL    HW2 5896  10.218   3.358   9.146
34667SOL     OW 5897  10.504   5.441  10.589
34667SOL    HW1 5898  10.593   5.405  10.589
34667SOL    HW2 5899  10.463   5.403  10.511
34668SOL     OW 5900   6.098   2.375   9.888
34668SOL    HW1 5901   6.028   2.317   9.920
34668SOL    HW2 5902   6.175   2.348   9.938
34669SOL     OW 5903   8.898   4.799   7.273
34669SOL    HW1 5904   8.942   4.807   7.188
34669SOL    HW2 5905   8.949   4.856   7.331
34670SOL     OW 5906   4.593   2.463   4.115
34670SOL    HW1 5907   4.688   2.456   4.105
34670SOL    HW2 5908   4.558   2.396   4.055
34671SOL     OW 5909   6.064   0.686   8.642
34671SOL    HW1 5910   6.066   0.779   8.667
34671SOL    HW2 5911   6.122   0.644   8.705
34672SOL     OW 5912   3.252  12.705  10.409
34672SOL    HW1 5913   3.208  12.670  10.331
34672SOL    HW2 5914   3.183  12.753  10.455
34673SOL     OW 5915  14.371  11.381  10.777
34673SOL    HW1 5916  14.339  11.460  10.734
34673SOL    HW2 5917  14.338  11.387  10.867
34674SOL     OW 5918  11.650   4.864   0.387
34674SOL    HW1 5919  11.644   4.950   0.346
34674SOL    HW2 5920  11.725   4.871   0.447
34675SOL     OW 5921   5.412  12.478   3.430
34675SOL    HW1 5922   5.427  12.532   3.353
34675SOL    HW2 5923   5.367  12.400   3.397
34676SOL     OW 5924   9.119   7.192   8.676
34676SOL    HW1 5925   9.153   7.280   8.663
34676SOL    HW2 5926   9.196   7.136   8.674
34677SOL     OW 5927   5.227  12.188  12.294
34677SOL    HW1 5928   5.223  12.120  12.226
34677SOL    HW2 5929   5.264  12.144  12.370
34678SOL     OW 5930   6.344   5.664   2.455
34678SOL    HW1 5931   6.425   5.624   2.486
34678SOL    HW2 5932   6.350   5.755   2.484
34679SOL     OW 5933  11.430   7.804   6.611
34679SOL    HW1 5934  11.344   7.803   6.652
34679SOL    HW2 5935  11.437   7.719   6.566
34680SOL     OW 5936  13.959   4.755   1.527
34680SOL    HW1 5937  13.879   4.721   1.567
34680SOL    HW2 5938  13.991   4.683   1.473
34681SOL     OW 5939  13.868   0.768  12.458
34681SOL    HW1 5940  13.871   0.863  12.446
34681SOL    HW2 5941  13.938   0.735  12.402
34682SOL     OW 5942   5.518  12.640  11.378
34682SOL    HW1 5943   5.524  12.727  11.416
34682SOL    HW2 5944   5.603  12.600  11.395
34683SOL     OW 5945  13.926   5.335   9.302
34683SOL    HW1 5946  13.903   5.428   9.303
34683SOL    HW2 5947  13.873   5.298   9.232
34684SOL     OW 5948  10.580  10.468  12.496
34684SOL    HW1 5949  10.670  10.486  12.523
34684SOL    HW2 5950  10.579  10.374  12.475
34685SOL     OW 5951  12.098  12.283  10.382
34685SOL    HW1 5952  12.095  12.351  10.315
34685SOL    HW2 5953  12.035  12.312  10.448
34686SOL     OW 5954   1.270   3.718  12.074
34686SOL    HW1 5955   1.271   3.695  11.981
34686SOL    HW2 5956   1.357   3.693  12.106
34687SOL     OW 5957   4.474   5.773   8.295
34687SOL    HW1 5958   4.427   5.700   8.254
34687SOL    HW2 5959   4.462   5.759   8.389
34688SOL     OW 5960   6.382   7.649   3.812
34688SOL    HW1 5961   6.433   7.630   3.733
34688SOL    HW2 5962   6.317   7.714   3.783
34689SOL     OW 5963  10.047  13.157   9.990
34689SOL    HW1 5964  10.003  13.101  10.053
34689SOL    HW2 5965  10.115  13.202  10.040
34690SOL     OW 5966  12.679   1.721  12.724
34690SOL    HW1 5967  12.718   1.803  12.696
34690SOL    HW2 5968  12.745   1.655  12.703
34691SOL     OW 5969   2.363  10.903   6.709
34691SOL    HW1 5970   2.398  10.860   6.631
34691SOL    HW2 5971   2.269  10.907   6.694
34692SOL     OW 5972  14.181   9.768   4.445
34692SOL    HW1 5973  14.258   9.823   4.443
34692SOL    HW2 5974  14.209   9.689   4.491
34693SOL     OW 5975  11.571   4.202   5.182
34693SOL    HW1 5976  11.489   4.236   5.145
34693SOL    HW2 5977  11.596   4.267   5.248
34694SOL     OW 5978   7.780   7.698   3.630
34694SOL    HW1 5979   7.791   7.742   3.546
34694SOL    HW2 5980   7.841   7.742   3.688
34695SOL     OW 5981   7.134   4.306   4.550
34695SOL    HW1 5982   7.075   4.293   4.625
34695SOL    HW2 5983   7.085   4.273   4.475
34696SOL     OW 5984   6.267  12.846  11.137
34696SOL    HW1 5985   6.257  12.866  11.044
34696SOL    HW2 5986   6.287  12.752  11.140
34697SOL     OW 5987   2.360   2.937   6.551
34697SOL    HW1 5988   2.383   2.931   6.459
34697SOL    HW2 5989   2.281   2.991   6.553
34698SOL     OW 5990   9.687   1.497   3.348
34698SOL    HW1 5991   9.626   1.546   3.403
34698SOL    HW2 5992   9.731   1.564   3.295
34699SOL     OW 5993   3.934  10.386   2.347
34699SOL    HW1 5994   4.007  10.435   2.385
34699SOL    HW2 5995   3.929  10.418   2.256
34700SOL     OW 5996   3.778   6.600   9.125
34700SOL    HW1 5997   3.832   6.522   9.135
34700SOL    HW2 5998   3.795   6.630   9.036
34701SOL     OW 5999   5.236   1.051  10.355
34701SOL    HW1 6000   5.250   1.005  10.272
34701SOL    HW2 6001   5.211   0.982  10.417
34702SOL     OW 6002   3.517  10.541   8.106
34702SOL    HW1 6003   3.468  10.541   8.188
34702SOL    HW2 6004   3.541  10.633   8.093
34703SOL     OW 6005   6.719  12.555   7.815
34703SOL    HW1 6006   6.671  12.605   7.881
34703SOL    HW2 6007   6.811  12.570   7.835
34704SOL     OW 6008  14.078   1.286   3.674
34704SOL    HW1 6009  14.147   1.258   3.614
34704SOL    HW2 6010  14.095   1.379   3.689
34705SOL     OW 6011   1.407  12.898   1.558
34705SOL    HW1 6012   1.372  12.876   1.472
34705SOL    HW2 6013   1.338  12.875   1.620
34706SOL     OW 6014   8.494   2.707   7.787
34706SOL    HW1 6015   8.557   2.666   7.846
34706SOL    HW2 6016   8.453   2.776   7.839
34707SOL     OW 6017   5.859   5.555   7.492
34707SOL    HW1 6018   5.829   5.645   7.505
34707SOL    HW2 6019   5.941   5.549   7.540
34708SOL     OW 6020  14.342  12.686   9.811
34708SOL    HW1 6021  14.330  12.663   9.719
34708SOL    HW2 6022  14.434  12.665   9.829
34709SOL     OW 6023   7.574   2.037  12.802
34709SOL    HW1 6024   7.544   2.024  12.892
34709SOL    HW2 6025   7.562   1.951  12.760
34710SOL     OW 6026   6.471  12.553   7.437
34710SOL    HW1 6027   6.524  12.474   7.446
34710SOL    HW2 6028   6.402  12.544   7.503
34711SOL     OW 6029   9.410  14.178   2.526
34711SOL    HW1 6030   9.373  14.184   2.615
34711SOL    HW2 6031   9.491  14.129   2.538
34712SOL     OW 6032   4.331  13.868   3.340
34712SOL    HW1 6033   4.249  13.918   3.344
34712SOL    HW2 6034   4.305  13.781   3.310
34713SOL     OW 6035  14.205   7.182   5.098
34713SOL    HW1 6036  14.225   7.157   5.008
34713SOL    HW2 6037  14.145   7.114   5.129
34714SOL     OW 6038   9.760  13.949   9.563
34714SOL    HW1 6039   9.666  13.930   9.562
34714SOL    HW2 6040   9.767  14.034   9.608
34715SOL     OW 6041   7.502   1.529   1.837
34715SOL    HW1 6042   7.483   1.551   1.746
34715SOL    HW2 6043   7.579   1.472   1.832
34716SOL     OW 6044   8.332   9.098   9.219
34716SOL    HW1 6045   8.362   9.035   9.284
34716SOL    HW2 6046   8.284   9.045   9.155
34717SOL     OW 6047   0.331  13.209  10.666
34717SOL    HW1 6048   0.271  13.134  10.664
34717SOL    HW2 6049   0.362  13.213  10.756
34718SOL     OW 6050  13.487  14.604   6.588
34718SOL    HW1 6051  13.434  14.668   6.636
34718SOL    HW2 6052  13.439  14.590   6.506
34719SOL     OW 6053   8.295   2.058   7.204
34719SOL    HW1 6054   8.318   2.136   7.254
34719SOL    HW2 6055   8.374   2.038   7.153
34720SOL     OW 6056  14.118   2.604   5.499
34720SOL    HW1 6057  14.143   2.641   5.414
34720SOL    HW2 6058  14.064   2.529   5.477
34721SOL     OW 6059   3.380   8.289   4.331
34721SOL    HW1 6060   3.313   8.248   4.277
34721SOL    HW2 6061   3.356   8.265   4.421
34722SOL     OW 6062  12.149   5.620   5.818
34722SOL    HW1 6063  12.113   5.665   5.742
34722SOL    HW2 6064  12.072   5.578   5.859
34723SOL     OW 6065   8.812  10.447  10.205
34723SOL    HW1 6066   8.826  10.356  10.179
34723SOL    HW2 6067   8.792  10.443  10.298
34724SOL     OW 6068  12.926   6.689   6.890
34724SOL    HW1 6069  13.004   6.743   6.901
34724SOL    HW2 6070  12.868   6.715   6.962
34725SOL     OW 6071  10.320  13.651  14.351
34725SOL    HW1 6072  10.242  13.661  14.405
34725SOL    HW2 6073  10.315  13.561  14.319
34726SOL     OW 6074   0.651   6.113   8.390
34726SOL    HW1 6075   0.574   6.066   8.421
34726SOL    HW2 6076   0.617   6.177   8.327
34727SOL     OW 6077   8.548   3.953   4.369
34727SOL    HW1 6078   8.598   4.030   4.342
34727SOL    HW2 6079   8.562   3.889   4.299
34728SOL     OW 6080  12.461   3.272  12.392
34728SOL    HW1 6081  12.523   3.281  12.320
34728SOL    HW2 6082  12.491   3.195  12.440
34729SOL     OW 6083   0.598   2.933  13.428
34729SOL    HW1 6084   0.512   2.931  13.471
34729SOL    HW2 6085   0.607   2.846  13.390
34730SOL     OW 6086   1.611   2.569   5.846
34730SOL    HW1 6087   1.670   2.569   5.770
34730SOL    HW2 6088   1.538   2.513   5.820
34731SOL     OW 6089   6.401   1.285   5.350
34731SOL    HW1 6090   6.421   1.368   5.308
34731SOL    HW2 6091   6.334   1.306   5.415
34732SOL     OW 6092   3.660   0.484   4.494
34732SOL    HW1 6093   3.596   0.480   4.564
34732SOL    HW2 6094   3.640   0.410   4.438
34733SOL     OW 6095   1.428  14.020   1.006
34733SOL    HW1 6096   1.350  13.964   1.008
34733SOL    HW2 6097   1.501  13.959   0.993
34734SOL     OW 6098   7.772   3.997  13.968
34734SOL    HW1 6099   7.727   3.962  13.891
34734SOL    HW2 6100   7.716   3.970  14.041
34735SOL     OW 6101   5.977   2.287   4.621
34735SOL    HW1 6102   5.920   2.213   4.601
34735SOL    HW2 6103   6.038   2.254   4.687
34736SOL     OW 6104  14.399   2.908  14.539
34736SOL    HW1 6105  14.379   2.949  14.623
34736SOL    HW2 6106  14.313   2.893  14.498
34737SOL     OW 6107  10.524  14.020   3.055
34737SOL    HW1 6108  10.555  13.937   3.092
34737SOL    HW2 6109  10.431  14.004   3.037
34738SOL     OW 6110   0.211   4.032   4.784
34738SOL    HW1 6111   0.146   4.054   4.851
34738SOL    HW2 6112   0.159   3.996   4.712
34739SOL     OW 6113  11.139   6.224  12.665
34739SOL    HW1 6114  11.075   6.221  12.737
34739SOL    HW2 6115  11.190   6.304  12.682
34740SOL     OW 6116   5.890   9.526   5.881
34740SOL    HW1 6117   5.849   9.601   5.924
34740SOL    HW2 6118   5.924   9.473   5.954
34741SOL     OW 6119   7.245  10.840   5.397
34741SOL    HW1 6120   7.218  10.757   5.359
34741SOL    HW2 6121   7.204  10.906   5.341
34742SOL     OW 6122   7.347   9.096  10.827
34742SOL    HW1 6123   7.404   9.097  10.750
34742SOL    HW2 6124   7.261   9.121  10.794
34743SOL     OW 6125   3.962   3.335   5.639
34743SOL    HW1 6126   4.048   3.299   5.620
34743SOL    HW2 6127   3.969   3.367   5.729
34744SOL     OW 6128   1.947   8.646   7.634
34744SOL    HW1 6129   1.988   8.665   7.719
34744SOL    HW2 6130   1.964   8.724   7.581
34745SOL     OW 6131   1.236   2.842   9.421
34745SOL    HW1 6132   1.304   2.823   9.486
34745SOL    HW2 6133   1.232   2.937   9.417
34746SOL     OW 6134  10.459   7.167   6.986
34746SOL    HW1 6135  10.382   7.196   6.938
34746SOL    HW2 6136  10.532   7.212   6.943
34747SOL     OW 6137  10.846   2.689  14.838
34747SOL    HW1 6138  10.896   2.696   0.038
34747SOL    HW2 6139  10.821   2.596  14.834
34748SOL     OW 6140   6.613   4.766   5.290
34748SOL    HW1 6141   6.560   4.721   5.356
34748SOL    HW2 6142   6.697   4.782   5.334
34749SOL     OW 6143  13.360  11.882   6.465
34749SOL    HW1 6144  13.299  11.819   6.503
34749SOL    HW2 6145  13.371  11.948   6.533
34750SOL     OW 6146   6.102   0.895   6.435
34750SOL    HW1 6147   6.149   0.895   6.518
34750SOL    HW2 6148   6.038   0.966   6.443
34751SOL     OW 6149   6.846   5.397   9.195
34751SOL    HW1 6150   6.764   5.445   9.207
34751SOL    HW2 6151   6.877   5.423   9.109
34752SOL     OW 6152  13.324  10.008   0.782
34752SOL    HW1 6153  13.283   9.926   0.754
34752SOL    HW2 6154  13.355   9.990   0.871
34753SOL     OW 6155   2.383  11.122   1.245
34753SOL    HW1 6156   2.350  11.034   1.228
34753SOL    HW2 6157   2.476  11.118   1.224
34754SOL     OW 6158   3.374   1.225   1.775
34754SOL    HW1 6159   3.332   1.147   1.736
34754SOL    HW2 6160   3.463   1.196   1.795
34755SOL     OW 6161   3.372   2.014   5.428
34755SOL    HW1 6162   3.417   1.971   5.500
34755SOL    HW2 6163   3.435   2.078   5.395
34756SOL     OW 6164   7.382   9.574   9.301
34756SOL    HW1 6165   7.293   9.609   9.299
34756SOL    HW2 6166   7.371   9.479   9.308
34757SOL     OW 6167  11.942   0.963  14.112
34757SOL    HW1 6168  11.932   1.049  14.070
34757SOL    HW2 6169  11.958   0.903  14.040
34758SOL     OW 6170   9.933  10.958  10.752
34758SOL    HW1 6171   9.862  11.010  10.714
34758SOL    HW2 6172   9.899  10.869  10.752
34759SOL     OW 6173   3.838  12.213   0.007
34759SOL    HW1 6174   3.813  12.162   0.084
34759SOL    HW2 6175   3.934  12.210   0.006
34760SOL     OW 6176   0.668   6.421   4.052
34760SOL    HW1 6177   0.589   6.452   4.096
34760SOL    HW2 6178   0.637   6.361   3.985
34761SOL     OW 6179   3.208  14.245   8.857
34761SOL    HW1 6180   3.274  14.268   8.923
34761SOL    HW2 6181   3.258  14.216   8.781
34762SOL     OW 6182  14.616  10.914  11.816
34762SOL    HW1 6183  14.574  10.875  11.892
34762SOL    HW2 6184  14.695  10.861  11.802
34763SOL     OW 6185   3.314   4.897  12.060
34763SOL    HW1 6186   3.246   4.846  12.104
34763SOL    HW2 6187   3.379   4.832  12.034
34764SOL     OW 6188   0.172   6.574   6.456
34764SOL    HW1 6189   0.103   6.515   6.425
34764SOL    HW2 6190   0.246   6.556   6.397
34765SOL     OW 6191   6.402   8.380  12.730
34765SOL    HW1 6192   6.382   8.470  12.756
34765SOL    HW2 6193   6.480   8.357  12.779
34766SOL     OW 6194   4.597   0.842  11.052
34766SOL    HW1 6195   4.502   0.833  11.053
34766SOL    HW2 6196   4.629   0.764  11.098
34767SOL     OW 6197   6.733   0.646  12.214
34767SOL    HW1 6198   6.715   0.736  12.187
34767SOL    HW2 6199   6.710   0.644  12.306
34768SOL     OW 6200  13.687   6.929   6.507
34768SOL    HW1 6201  13.745   6.921   6.431
34768SOL    HW2 6202  13.675   7.024   6.518
34769SOL     OW 6203   4.176   8.226   5.609
34769SOL    HW1 6204   4.151   8.301   5.663
34769SOL    HW2 6205   4.156   8.254   5.519
34770SOL     OW 6206   2.125   5.927   1.016
34770SOL    HW1 6207   2.056   5.956   1.076
34770SOL    HW2 6208   2.207   5.949   1.061
34771SOL     OW 6209   8.073  12.611   1.117
34771SOL    HW1 6210   8.126  12.682   1.154
34771SOL    HW2 6211   8.124  12.532   1.132
34772SOL     OW 6212   5.277  14.845   6.426
34772SOL    HW1 6213   5.199   0.018   6.429
34772SOL    HW2 6214   5.349   0.025   6.415
34773SOL     OW 6215  13.210  11.222  12.265
34773SOL    HW1 6216  13.266  11.289  12.305
34773SOL    HW2 6217  13.268  11.175  12.205
34774SOL     OW 6218   9.586  14.039  10.379
34774SOL    HW1 6219   9.568  14.089  10.459
34774SOL    HW2 6220   9.656  14.087  10.335
34775SOL     OW 6221  13.757   4.046   3.716
34775SOL    HW1 6222  13.824   4.113   3.718
34775SOL    HW2 6223  13.755   4.015   3.625
34776SOL     OW 6224   3.227  11.782  13.078
34776SOL    HW1 6225   3.264  11.716  13.019
34776SOL    HW2 6226   3.134  11.760  13.083
34777SOL     OW 6227   0.527   6.520   2.266
34777SOL    HW1 6228   0.451   6.577   2.278
34777SOL    HW2 6229   0.594   6.576   2.228
34778SOL     OW 6230   1.022   7.054   3.676
34778SOL    HW1 6231   1.050   7.110   3.749
34778SOL    HW2 6232   1.000   6.971   3.717
34779SOL     OW 6233   0.142  13.762   2.490
34779SOL    HW1 6234   0.093  13.700   2.436
34779SOL    HW2 6235   0.197  13.810   2.428
34780SOL     OW 6236  12.084  12.813  13.963
34780SOL    HW1 6237  12.126  12.748  13.908
34780SOL    HW2 6238  12.066  12.887  13.905
34781SOL     OW 6239   0.896  12.398   5.782
34781SOL    HW1 6240   0.803  12.397   5.757
34781SOL    HW2 6241   0.920  12.306   5.789
34782SOL     OW 6242  14.440   0.302   7.412
34782SOL    HW1 6243  14.410   0.347   7.491
34782SOL    HW2 6244  14.535   0.294   7.424
34783SOL     OW 6245   3.915   1.589  10.058
34783SOL    HW1 6246   3.943   1.523   9.994
34783SOL    HW2 6247   3.996   1.634  10.082
34784SOL     OW 6248   3.198  13.706   3.892
34784SOL    HW1 6249   3.146  13.643   3.943
34784SOL    HW2 6250   3.263  13.652   3.846
34785SOL     OW 6251  13.207   3.042   4.093
34785SOL    HW1 6252  13.170   2.973   4.149
34785SOL    HW2 6253  13.193   3.010   4.004
34786SOL     OW 6254  14.003   9.441  12.499
34786SOL    HW1 6255  13.946   9.488  12.559
34786SOL    HW2 6256  14.054   9.383  12.556
34787SOL     OW 6257   9.949   3.398  11.565
34787SOL    HW1 6258   9.918   3.377  11.477
34787SOL    HW2 6259  10.042   3.417  11.555
34788SOL     OW 6260  13.227   6.983   7.261
34788SOL    HW1 6261  13.166   7.055   7.244
34788SOL    HW2 6262  13.290   6.987   7.189
34789SOL     OW 6263  14.448   2.677   5.064
34789SOL    HW1 6264  14.481   2.686   5.154
34789SOL    HW2 6265  14.406   2.761   5.045
34790SOL     OW 6266  10.369  11.670  13.095
34790SOL    HW1 6267  10.436  11.651  13.029
34790SOL    HW2 6268  10.399  11.625  13.173
34791SOL     OW 6269  10.860  13.057   0.638
34791SOL    HW1 6270  10.792  13.106   0.684
34791SOL    HW2 6271  10.918  13.026   0.708
34792SOL     OW 6272   4.836  13.765  10.421
34792SOL    HW1 6273   4.827  13.712  10.341
34792SOL    HW2 6274   4.927  13.795  10.419
34793SOL     OW 6275   5.113   1.015   2.116
34793SOL    HW1 6276   5.064   0.940   2.084
34793SOL    HW2 6277   5.137   0.992   2.206
34794SOL     OW 6278   9.697   6.899   4.047
34794SOL    HW1 6279   9.751   6.933   4.119
34794SOL    HW2 6280   9.625   6.853   4.090
34795SOL     OW 6281  10.050   1.715   5.903
34795SOL    HW1 6282   9.963   1.730   5.865
34795SOL    HW2 6283  10.063   1.788   5.963
34796SOL     OW 6284  13.064  12.398   6.169
34796SOL    HW1 6285  13.125  12.325   6.185
34796SOL    HW2 6286  13.084  12.461   6.238
34797SOL     OW 6287   1.832   4.976   1.648
34797SOL    HW1 6288   1.760   4.936   1.696
34797SOL    HW2 6289   1.894   4.905   1.634
34798SOL     OW 6290  11.326   2.321   4.124
34798SOL    HW1 6291  11.258   2.260   4.095
34798SOL    HW2 6292  11.355   2.364   4.043
34799SOL     OW 6293  10.113  10.026   0.189
34799SOL    HW1 6294  10.147   9.942   0.156
34799SOL    HW2 6295  10.020  10.009   0.205
34800SOL     OW 6296  11.937  10.637   4.064
34800SOL    HW1 6297  11.848  10.602   4.058
34800SOL    HW2 6298  11.937  10.692   4.142
34801SOL     OW 6299  13.412   6.606   1.026
34801SOL    HW1 6300  13.354   6.682   1.041
34801SOL    HW2 6301  13.430   6.609   0.932
34802SOL     OW 6302   5.228  13.225   8.539
34802SOL    HW1 6303   5.221  13.319   8.523
34802SOL    HW2 6304   5.215  13.184   8.453
34803SOL     OW 6305   3.137   6.234   4.133
34803SOL    HW1 6306   3.154   6.317   4.088
34803SOL    HW2 6307   3.205   6.229   4.200
34804SOL     OW 6308  10.670  11.913   6.736
34804SOL    HW1 6309  10.696  11.879   6.822
34804SOL    HW2 6310  10.583  11.875   6.722
34805SOL     OW 6311   3.865   4.747   7.180
34805SOL    HW1 6312   3.844   4.655   7.164
34805SOL    HW2 6313   3.845   4.791   7.097
34806SOL     OW 6314   7.498   8.303   2.804
34806SOL    HW1 6315   7.433   8.317   2.735
34806SOL    HW2 6316   7.468   8.224   2.849
34807SOL     OW 6317  13.483   7.441   5.833
34807SOL    HW1 6318  13.514   7.353   5.814
34807SOL    HW2 6319  13.483   7.486   5.748
34808SOL     OW 6320   6.005   8.029   6.530
34808SOL    HW1 6321   5.980   8.121   6.537
34808SOL    HW2 6322   6.100   8.029   6.540
34809SOL     OW 6323  14.485  14.566   7.324
34809SOL    HW1 6324  14.507  14.653   7.291
34809SOL    HW2 6325  14.391  14.571   7.344
34810SOL     OW 6326   5.030   4.238   0.987
34810SOL    HW1 6327   4.986   4.186   0.920
34810SOL    HW2 6328   5.026   4.328   0.954
34811SOL     OW 6329  10.574   2.569  12.038
34811SOL    HW1 6330  10.530   2.549  11.955
34811SOL    HW2 6331  10.661   2.530  12.029
34812SOL     OW 6332   8.636  13.679   8.120
34812SOL    HW1 6333   8.716  13.730   8.111
34812SOL    HW2 6334   8.642  13.640   8.207
34813SOL     OW 6335   3.887   4.996   8.538
34813SOL    HW1 6336   3.830   5.069   8.514
34813SOL    HW2 6337   3.974   5.022   8.508
34814SOL     OW 6338   7.447  13.181   6.251
34814SOL    HW1 6339   7.399  13.204   6.172
34814SOL    HW2 6340   7.513  13.117   6.223
34815SOL     OW 6341   9.849   0.364   8.870
34815SOL    HW1 6342   9.874   0.276   8.842
34815SOL    HW2 6343   9.780   0.351   8.934
34816SOL     OW 6344  14.384  11.089   6.366
34816SOL    HW1 6345  14.300  11.121   6.401
34816SOL    HW2 6346  14.449  11.152   6.398
34817SOL     OW 6347  14.647   0.199   8.745
34817SOL    HW1 6348  14.684   0.111   8.759
34817SOL    HW2 6349  14.572   0.185   8.688
34818SOL     OW 6350   4.978  13.394   8.666
34818SOL    HW1 6351   4.955  13.416   8.576
34818SOL    HW2 6352   4.894  13.375   8.708
34819SOL     OW 6353   1.312  10.643   0.395
34819SOL    HW1 6354   1.273  10.627   0.481
34819SOL    HW2 6355   1.343  10.558   0.367
34820SOL     OW 6356   6.200  10.367   0.556
34820SOL    HW1 6357   6.181  10.279   0.588
34820SOL    HW2 6358   6.125  10.388   0.500
34821SOL     OW 6359  10.266   7.963  12.229
34821SOL    HW1 6360  10.192   7.937  12.284
34821SOL    HW2 6361  10.341   7.966  12.289
34822SOL     OW 6362   0.729   9.551   4.504
34822SOL    HW1 6363   0.655   9.567   4.446
34822SOL    HW2 6364   0.802   9.530   4.445
34823SOL     OW 6365   7.489   0.455  12.658
34823SOL    HW1 6366   7.520   0.390  12.594
34823SOL    HW2 6367   7.481   0.536  12.607
34824SOL     OW 6368  12.359  10.523  11.094
34824SOL    HW1 6369  12.412  10.506  11.016
34824SOL    HW2 6370  12.271  10.536  11.061
34825SOL     OW 6371   7.856   9.463   8.118
34825SOL    HW1 6372   7.941   9.504   8.135
34825SOL    HW2 6373   7.869   9.413   8.038
34826SOL     OW 6374   8.290  10.652   2.473
34826SOL    HW1 6375   8.253  10.647   2.561
34826SOL    HW2 6376   8.370  10.600   2.477
34827SOL     OW 6377   7.014  11.396   0.563
34827SOL    HW1 6378   6.946  11.330   0.552
34827SOL    HW2 6379   7.091  11.360   0.519
34828SOL     OW 6380   0.812  14.235   9.615
34828SOL    HW1 6381   0.903  14.208   9.632
34828SOL    HW2 6382   0.760  14.185   9.678
34829SOL     OW 6383   0.795   5.695   9.461
34829SOL    HW1 6384   0.768   5.759   9.527
34829SOL    HW2 6385   0.877   5.660   9.495
34830SOL     OW 6386   4.190   1.973   7.425
34830SOL    HW1 6387   4.259   1.907   7.426
34830SOL    HW2 6388   4.179   1.995   7.333
34831SOL     OW 6389   8.004   6.473  10.851
34831SOL    HW1 6390   7.991   6.504  10.940
34831SOL    HW2 6391   8.094   6.439  10.850
34832SOL     OW 6392   4.133   2.407  14.856
34832SOL    HW1 6393   4.161   2.438   0.061
34832SOL    HW2 6394   4.153   2.314  14.856
34833SOL     OW 6395  10.230  13.909   8.523
34833SOL    HW1 6396  10.174  13.945   8.455
34833SOL    HW2 6397  10.209  13.815   8.524
34834SOL     OW 6398   8.650  12.440   7.287
34834SOL    HW1 6399   8.703  12.476   7.215
34834SOL    HW2 6400   8.654  12.345   7.274
34835SOL     OW 6401   6.695   3.653   9.681
34835SOL    HW1 6402   6.779   3.625   9.644
34835SOL    HW2 6403   6.680   3.740   9.644
34836SOL     OW 6404  11.012   1.210  12.094
34836SOL    HW1 6405  11.078   1.204  12.025
34836SOL    HW2 6406  10.975   1.122  12.100
34837SOL     OW 6407   1.289   7.624   9.380
34837SOL    HW1 6408   1.347   7.688   9.338
34837SOL    HW2 6409   1.276   7.557   9.313
34838SOL     OW 6410   9.066   9.516  11.545
34838SOL    HW1 6411   8.981   9.559  11.529
34838SOL    HW2 6412   9.097   9.556  11.626
34839SOL     OW 6413  14.735   0.131   3.324
34839SOL    HW1 6414  14.787   0.184   3.265
34839SOL    HW2 6415  14.796   0.065   3.358
34840SOL     OW 6416   8.984  12.451   3.326
34840SOL    HW1 6417   8.956  12.390   3.258
34840SOL    HW2 6418   8.931  12.529   3.310
34841SOL     OW 6419   2.788   1.398  10.721
34841SOL    HW1 6420   2.755   1.464  10.660
34841SOL    HW2 6421   2.854   1.350  10.672
34842SOL     OW 6422   0.836   1.005  12.184
34842SOL    HW1 6423   0.859   0.950  12.109
34842SOL    HW2 6424   0.905   0.988  12.248
34843SOL     OW 6425   4.657   0.604   6.147
34843SOL    HW1 6426   4.738   0.647   6.173
34843SOL    HW2 6427   4.591   0.640   6.207
34844SOL     OW 6428   9.644  12.178  14.601
34844SOL    HW1 6429   9.638  12.186  14.506
34844SOL    HW2 6430   9.654  12.084  14.617
34845SOL     OW 6431   0.583  10.628   7.101
34845SOL    HW1 6432   0.574  10.538   7.133
34845SOL    HW2 6433   0.675  10.649   7.118
34846SOL     OW 6434   9.662   8.389  11.530
34846SOL    HW1 6435   9.615   8.463  11.493
34846SOL    HW2 6436   9.680   8.332  11.455
34847SOL     OW 6437   6.110  14.186  12.633
34847SOL    HW1 6438   6.194  14.141  12.625
34847SOL    HW2 6439   6.083  14.200  12.542
34848SOL     OW 6440   5.854   6.973   4.071
34848SOL    HW1 6441   5.790   6.975   4.142
34848SOL    HW2 6442   5.938   6.993   4.113
34849SOL     OW 6443   8.542   8.112   8.003
34849SOL    HW1 6444   8.581   8.199   8.011
34849SOL    HW2 6445   8.525   8.102   7.910
34850SOL     OW 6446  11.223  13.655   6.088
34850SOL    HW1 6447  11.281  13.621   6.156
34850SOL    HW2 6448  11.178  13.578   6.054
34851SOL     OW 6449   2.192   8.548   6.003
34851SOL    HW1 6450   2.182   8.548   6.099
34851SOL    HW2 6451   2.194   8.455   5.979
34852SOL     OW 6452   5.034  14.722   8.923
34852SOL    HW1 6453   5.017  14.734   9.017
34852SOL    HW2 6454   4.953  14.751   8.880
34853SOL     OW 6455  14.035   6.066   9.535
34853SOL    HW1 6456  14.004   6.156   9.529
34853SOL    HW2 6457  13.957   6.015   9.557
34854SOL     OW 6458   8.645   6.622  12.833
34854SOL    HW1 6459   8.655   6.621  12.928
34854SOL    HW2 6460   8.555   6.591  12.819
34855SOL     OW 6461   8.381  12.764   9.796
34855SOL    HW1 6462   8.330  12.784   9.717
34855SOL    HW2 6463   8.467  12.802   9.780
34856SOL     OW 6464   0.126   6.794  11.998
34856SOL    HW1 6465   0.192   6.786  12.067
34856SOL    HW2 6466   0.168   6.758  11.920
34857SOL     OW 6467   1.933   1.842   2.676
34857SOL    HW1 6468   1.971   1.892   2.604
34857SOL    HW2 6469   1.839   1.841   2.657
34858SOL     OW 6470   1.838   9.978   7.438
34858SOL    HW1 6471   1.925   9.973   7.398
34858SOL    HW2 6472   1.777   9.971   7.364
34859SOL     OW 6473   0.796   9.289   7.156
34859SOL    HW1 6474   0.828   9.358   7.213
34859SOL    HW2 6475   0.793   9.211   7.212
34860SOL     OW 6476   3.815   1.214   7.734
34860SOL    HW1 6477   3.779   1.127   7.714
34860SOL    HW2 6478   3.797   1.227   7.827
34861SOL     OW 6479  11.964   8.730  12.447
34861SOL    HW1 6480  11.927   8.805  12.494
34861SOL    HW2 6481  11.892   8.700  12.391
34862SOL     OW 6482  12.196   5.461  12.845
34862SOL    HW1 6483  12.231   5.548  12.823
34862SOL    HW2 6484  12.140   5.438  12.771
34863SOL     OW 6485   8.197   6.359   1.202
34863SOL    HW1 6486   8.147   6.305   1.262
34863SOL    HW2 6487   8.217   6.301   1.128
34864SOL     OW 6488   0.531  13.099   6.044
34864SOL    HW1 6489   0.594  13.169   6.026
34864SOL    HW2 6490   0.554  13.068   6.131
34865SOL     OW 6491  14.188  13.351   9.960
34865SOL    HW1 6492  14.173  13.414   9.889
34865SOL    HW2 6493  14.116  13.287   9.950
34866SOL     OW 6494   5.975   7.838   2.525
34866SOL    HW1 6495   5.932   7.910   2.480
34866SOL    HW2 6496   6.000   7.874   2.610
34867SOL     OW 6497   2.504  11.804  13.935
34867SOL    HW1 6498   2.560  11.880  13.925
34867SOL    HW2 6499   2.452  11.822  14.014
34868SOL     OW 6500  12.658   8.511  14.405
34868SOL    HW1 6501  12.644   8.584  14.464
34868SOL    HW2 6502  12.613   8.437  14.447
34869SOL     OW 6503   0.824  11.588   8.585
34869SOL    HW1 6504   0.823  11.605   8.490
34869SOL    HW2 6505   0.844  11.495   8.593
34870SOL     OW 6506   3.222  13.280   1.249
34870SOL    HW1 6507   3.167  13.338   1.301
34870SOL    HW2 6508   3.249  13.211   1.310
34871SOL     OW 6509   2.059   8.962  10.736
34871SOL    HW1 6510   2.136   9.003  10.696
34871SOL    HW2 6511   1.997   9.034  10.747
34872SOL     OW 6512   3.994  13.303   2.126
34872SOL    HW1 6513   3.978  13.380   2.072
34872SOL    HW2 6514   3.910  13.284   2.167
34873SOL     OW 6515   9.674  10.506   4.718
34873SOL    HW1 6516   9.722  10.424   4.732
34873SOL    HW2 6517   9.684  10.523   4.624
34874SOL     OW 6518   1.410   9.432   0.634
34874SOL    HW1 6519   1.401   9.403   0.724
34874SOL    HW2 6520   1.331   9.403   0.590
34875SOL     OW 6521   4.518   5.675   8.564
34875SOL    HW1 6522   4.599   5.647   8.606
34875SOL    HW2 6523   4.469   5.719   8.633
34876SOL     OW 6524   5.503  11.111   3.844
34876SOL    HW1 6525   5.581  11.056   3.846
34876SOL    HW2 6526   5.443  11.070   3.906
34877SOL     OW 6527   7.329   4.103   0.401
34877SOL    HW1 6528   7.237   4.126   0.392
34877SOL    HW2 6529   7.335   4.012   0.372
34878SOL     OW 6530  14.878   9.552  12.594
34878SOL    HW1 6531   0.066   9.615  12.606
34878SOL    HW2 6532  14.834   9.548  12.679
34879SOL     OW 6533   7.606  11.872   6.454
34879SOL    HW1 6534   7.601  11.940   6.386
34879SOL    HW2 6535   7.687  11.890   6.501
34880SOL     OW 6536  10.070  10.509   9.518
34880SOL    HW1 6537  10.000  10.513   9.584
34880SOL    HW2 6538  10.049  10.432   9.465
34881SOL     OW 6539   2.094   4.656  14.112
34881SOL    HW1 6540   2.040   4.577  14.111
34881SOL    HW2 6541   2.131   4.660  14.024
34882SOL     OW 6542  10.357  14.377   9.894
34882SOL    HW1 6543  10.310  14.455   9.866
34882SOL    HW2 6544  10.299  14.304   9.870
34883SOL     OW 6545  11.671   2.991   2.675
34883SOL    HW1 6546  11.751   3.004   2.624
34883SOL    HW2 6547  11.601   2.989   2.610
34884SOL     OW 6548   0.413   9.204  13.949
34884SOL    HW1 6549   0.425   9.177  13.858
34884SOL    HW2 6550   0.364   9.287  13.944
34885SOL     OW 6551   7.468   9.154  13.844
34885SOL    HW1 6552   7.405   9.155  13.916
34885SOL    HW2 6553   7.461   9.065  13.807
34886SOL     OW 6554   9.919   8.808  13.135
34886SOL    HW1 6555  10.005   8.767  13.151
34886SOL    HW2 6556   9.866   8.738  13.098
34887SOL     OW 6557  14.287  12.142  10.144
34887SOL    HW1 6558  14.230  12.073  10.177
34887SOL    HW2 6559  14.285  12.210  10.212
34888SOL     OW 6560   9.222   2.053  10.521
34888SOL    HW1 6561   9.208   2.117  10.591
34888SOL    HW2 6562   9.272   2.101  10.455
34889SOL     OW 6563   9.943  12.784   1.291
34889SOL    HW1 6564   9.983  12.871   1.293
34889SOL    HW2 6565   9.860  12.796   1.245
34890SOL     OW 6566  11.235   1.832   9.493
34890SOL    HW1 6567  11.281   1.809   9.574
34890SOL    HW2 6568  11.160   1.772   9.490
34891SOL     OW 6569  14.308  14.860  10.317
34891SOL    HW1 6570  14.276   0.048  10.260
34891SOL    HW2 6571  14.284  14.780  10.271
34892SOL     OW 6572  13.384   0.020   1.719
34892SOL    HW1 6573  13.376   0.115   1.719
34892SOL    HW2 6574  13.379  14.878   1.811
34893SOL     OW 6575   7.403  11.186   5.875
34893SOL    HW1 6576   7.482  11.191   5.821
34893SOL    HW2 6577   7.340  11.242   5.830
34894SOL     OW 6578   3.998  11.386   8.129
34894SOL    HW1 6579   3.988  11.436   8.048
34894SOL    HW2 6580   4.008  11.295   8.100
34895SOL     OW 6581  13.774   6.558   4.022
34895SOL    HW1 6582  13.695   6.571   4.075
34895SOL    HW2 6583  13.842   6.536   4.085
34896SOL     OW 6584  10.972   5.180   1.713
34896SOL    HW1 6585  11.040   5.162   1.777
34896SOL    HW2 6586  10.967   5.100   1.660
34897SOL     OW 6587  10.692   5.766   9.301
34897SOL    HW1 6588  10.783   5.785   9.325
34897SOL    HW2 6589  10.662   5.843   9.254
34898SOL     OW 6590  12.908   6.863   2.110
34898SOL    HW1 6591  12.985   6.810   2.088
34898SOL    HW2 6592  12.869   6.818   2.185
34899SOL     OW 6593   9.763   1.451   0.058
34899SOL    HW1 6594   9.716   1.528   0.090
34899SOL    HW2 6595   9.695   1.397   0.018
34900SOL     OW 6596   1.586   4.007   1.814
34900SOL    HW1 6597   1.521   4.061   1.770
34900SOL    HW2 6598   1.669   4.029   1.771
34901SOL     OW 6599   1.221  13.067  12.582
34901SOL    HW1 6600   1.242  13.139  12.641
34901SOL    HW2 6601   1.203  12.993  12.641
34902SOL     OW 6602  12.956   4.864   5.548
34902SOL    HW1 6603  13.045   4.877   5.516
34902SOL    HW2 6604  12.917   4.951   5.548
34903SOL     OW 6605   5.509  13.245   5.473
34903SOL    HW1 6606   5.596  13.226   5.507
34903SOL    HW2 6607   5.466  13.295   5.543
34904SOL     OW 6608   2.393   4.431   8.251
34904SOL    HW1 6609   2.308   4.407   8.286
34904SOL    HW2 6610   2.449   4.441   8.327
34905SOL     OW 6611  13.111   3.261  14.842
34905SOL    HW1 6612  13.082   3.261   0.051
34905SOL    HW2 6613  13.062   3.190  14.801
34906SOL     OW 6614   9.141   1.107  10.554
34906SOL    HW1 6615   9.103   1.060  10.628
34906SOL    HW2 6616   9.228   1.132  10.584
34907SOL     OW 6617   8.697  11.861  14.189
34907SOL    HW1 6618   8.719  11.926  14.255
34907SOL    HW2 6619   8.775  11.805  14.184
34908SOL     OW 6620   6.313   0.422   2.008
34908SOL    HW1 6621   6.276   0.336   2.030
34908SOL    HW2 6622   6.408   0.406   2.003
34909SOL     OW 6623   0.360   0.646  14.171
34909SOL    HW1 6624   0.327   0.564  14.134
34909SOL    HW2 6625   0.285   0.685  14.216
34910SOL     OW 6626   9.900   8.542  12.413
34910SOL    HW1 6627   9.904   8.457  12.456
34910SOL    HW2 6628   9.816   8.579  12.442
34911SOL     OW 6629   3.777   6.433  12.427
34911SOL    HW1 6630   3.718   6.368  12.388
34911SOL    HW2 6631   3.788   6.404  12.518
34912SOL     OW 6632   6.138   0.906   1.441
34912SOL    HW1 6633   6.219   0.886   1.489
34912SOL    HW2 6634   6.105   0.986   1.481
34913SOL     OW 6635   5.267   2.957   9.489
34913SOL    HW1 6636   5.284   3.045   9.523
34913SOL    HW2 6637   5.332   2.944   9.420
34914SOL     OW 6638   9.470   2.570   3.488
34914SOL    HW1 6639   9.549   2.516   3.493
34914SOL    HW2 6640   9.495   2.653   3.527
34915SOL     OW 6641   3.676   1.798   2.207
34915SOL    HW1 6642   3.654   1.753   2.125
34915SOL    HW2 6643   3.756   1.846   2.188
34916SOL     OW 6644  12.312   2.064   3.829
34916SOL    HW1 6645  12.367   2.003   3.780
34916SOL    HW2 6646  12.353   2.069   3.916
34917SOL     OW 6647  10.677  10.094   6.960
34917SOL    HW1 6648  10.606  10.155   6.980
34917SOL    HW2 6649  10.633  10.011   6.941
34918SOL     OW 6650   1.911   5.309  11.454
34918SOL    HW1 6651   1.844   5.252  11.417
34918SOL    HW2 6652   1.988   5.296  11.398
34919SOL     OW 6653  11.756  13.078  14.636
34919SOL    HW1 6654  11.791  13.054  14.550
34919SOL    HW2 6655  11.833  13.097  14.689
34920SOL     OW 6656   1.130  11.224   8.775
34920SOL    HW1 6657   1.117  11.154   8.839
34920SOL    HW2 6658   1.086  11.192   8.696
34921SOL     OW 6659   4.407  14.612  14.442
34921SOL    HW1 6660   4.426  14.563  14.523
34921SOL    HW2 6661   4.487  14.605  14.391
34922SOL     OW 6662  11.217  14.733  10.966
34922SOL    HW1 6663  11.264  14.662  10.924
34922SOL    HW2 6664  11.180  14.694  11.045
34923SOL     OW 6665  11.989   2.599   8.306
34923SOL    HW1 6666  11.982   2.519   8.357
34923SOL    HW2 6667  12.083   2.619   8.306
34924SOL     OW 6668   4.262   6.735   3.931
34924SOL    HW1 6669   4.327   6.771   3.990
34924SOL    HW2 6670   4.226   6.811   3.885
34925SOL     OW 6671   9.180   4.263   1.651
34925SOL    HW1 6672   9.152   4.323   1.582
34925SOL    HW2 6673   9.241   4.314   1.704
34926SOL     OW 6674   8.433   2.451  11.685
34926SOL    HW1 6675   8.446   2.451  11.780
34926SOL    HW2 6676   8.416   2.359  11.664
34927SOL     OW 6677   9.767   1.465   7.199
34927SOL    HW1 6678   9.685   1.512   7.183
34927SOL    HW2 6679   9.754   1.420   7.283
34928SOL     OW 6680   6.223   2.505  12.242
34928SOL    HW1 6681   6.255   2.505  12.332
34928SOL    HW2 6682   6.302   2.498  12.188
34929SOL     OW 6683   9.709  14.593  14.197
34929SOL    HW1 6684   9.744  14.555  14.278
34929SOL    HW2 6685   9.717  14.687  14.209
34930SOL     OW 6686   5.810   2.485   7.870
34930SOL    HW1 6687   5.754   2.555   7.836
34930SOL    HW2 6688   5.765   2.454   7.948
34931SOL     OW 6689   6.825   6.306   4.833
34931SOL    HW1 6690   6.738   6.341   4.815
34931SOL    HW2 6691   6.879   6.384   4.849
34932SOL     OW 6692  14.050   6.573   1.099
34932SOL    HW1 6693  14.004   6.496   1.131
34932SOL    HW2 6694  14.141   6.545   1.091
34933SOL     OW 6695  11.112  14.423   4.755
34933SOL    HW1 6696  11.206  14.427   4.737
34933SOL    HW2 6697  11.086  14.335   4.730
34934SOL     OW 6698   9.894   7.922   0.667
34934SOL    HW1 6699   9.947   8.001   0.657
34934SOL    HW2 6700   9.941   7.869   0.731
34935SOL     OW 6701  12.121  11.948  14.703
34935SOL    HW1 6702  12.194  12.009  14.707
34935SOL    HW2 6703  12.118  11.908  14.790
34936SOL     OW 6704   2.552   7.585  11.231
34936SOL    HW1 6705   2.523   7.512  11.177
34936SOL    HW2 6706   2.487   7.654  11.215
34937SOL     OW 6707   3.362  11.457   2.669
34937SOL    HW1 6708   3.435  11.519   2.677
34937SOL    HW2 6709   3.284  11.512   2.660
34938SOL     OW 6710   5.878   3.425   7.991
34938SOL    HW1 6711   5.966   3.389   7.982
34938SOL    HW2 6712   5.889   3.519   7.983
34939SOL     OW 6713   0.105  11.715  11.216
34939SOL    HW1 6714   0.117  11.779  11.287
34939SOL    HW2 6715   0.163  11.745  11.147
34940SOL     OW 6716   9.890  12.001   6.686
34940SOL    HW1 6717   9.810  11.988   6.735
34940SOL    HW2 6718   9.925  11.913   6.673
34941SOL     OW 6719   3.421   8.437  10.699
34941SOL    HW1 6720   3.331   8.457  10.723
34941SOL    HW2 6721   3.422   8.443  10.603
34942SOL     OW 6722  12.023   3.223   8.063
34942SOL    HW1 6723  11.957   3.248   7.998
34942SOL    HW2 6724  12.010   3.129   8.074
34943SOL     OW 6725  10.224   5.865   5.494
34943SOL    HW1 6726  10.260   5.846   5.407
34943SOL    HW2 6727  10.223   5.960   5.500
34944SOL     OW 6728   6.914  11.643   5.850
34944SOL    HW1 6729   6.965  11.693   5.914
34944SOL    HW2 6730   6.969  11.569   5.827
34945SOL     OW 6731   8.457  13.460   8.574
34945SOL    HW1 6732   8.440  13.387   8.634
34945SOL    HW2 6733   8.376  13.468   8.523
34946SOL     OW 6734  10.376   2.868   9.800
34946SOL    HW1 6735  10.369   2.777   9.829
34946SOL    HW2 6736  10.399   2.863   9.707
34947SOL     OW 6737   0.709   1.021   6.501
34947SOL    HW1 6738   0.685   1.038   6.592
34947SOL    HW2 6739   0.779   1.083   6.482
34948SOL     OW 6740  14.817   8.247  11.754
34948SOL    HW1 6741  14.827   8.203  11.670
34948SOL    HW2 6742   0.019   8.233  11.798
34949SOL     OW 6743   5.794  13.936  10.453
34949SOL    HW1 6744   5.792  13.844  10.481
34949SOL    HW2 6745   5.701  13.962  10.452
34950SOL     OW 6746   3.398   0.656   0.591
34950SOL    HW1 6747   3.323   0.711   0.612
34950SOL    HW2 6748   3.419   0.678   0.500
34951SOL     OW 6749   6.084  13.719   3.400
34951SOL    HW1 6750   6.029  13.780   3.350
34951SOL    HW2 6751   6.038  13.635   3.393
34952SOL     OW 6752  10.020   1.523   7.150
34952SOL    HW1 6753   9.927   1.504   7.162
34952SOL    HW2 6754  10.065   1.449   7.190
34953SOL     OW 6755   6.869   5.426   4.337
34953SOL    HW1 6756   6.877   5.474   4.419
34953SOL    HW2 6757   6.909   5.483   4.271
34954SOL     OW 6758   6.568   7.087  13.396
34954SOL    HW1 6759   6.490   7.034  13.413
34954SOL    HW2 6760   6.636   7.049  13.452
34955SOL     OW 6761   2.375  11.205   0.806
34955SOL    HW1 6762   2.321  11.283   0.792
34955SOL    HW2 6763   2.424  11.195   0.724
34956SOL     OW 6764  10.581   9.265   4.380
34956SOL    HW1 6765  10.577   9.305   4.467
34956SOL    HW2 6766  10.621   9.179   4.396
34957SOL     OW 6767   6.742  14.157   8.463
34957SOL    HW1 6768   6.694  14.150   8.546
34957SOL    HW2 6769   6.820  14.104   8.476
34958SOL     OW 6770  13.782  12.924   4.530
34958SOL    HW1 6771  13.736  12.935   4.613
34958SOL    HW2 6772  13.861  12.978   4.539
34959SOL     OW 6773   3.021   2.648  11.860
34959SOL    HW1 6774   3.045   2.729  11.906
34959SOL    HW2 6775   2.964   2.677  11.789
34960SOL     OW 6776   2.491   7.277   6.102
34960SOL    HW1 6777   2.583   7.283   6.079
34960SOL    HW2 6778   2.467   7.366   6.128
34961SOL     OW 6779  11.216  10.177   8.222
34961SOL    HW1 6780  11.187  10.092   8.188
34961SOL    HW2 6781  11.279  10.209   8.157
34962SOL     OW 6782   2.346   3.934   7.884
34962SOL    HW1 6783   2.293   4.013   7.889
34962SOL    HW2 6784   2.307   3.874   7.949
34963SOL     OW 6785   5.317   5.766   2.596
34963SOL    HW1 6786   5.358   5.762   2.682
34963SOL    HW2 6787   5.387   5.796   2.537
34964SOL     OW 6788   5.924   7.091   7.005
34964SOL    HW1 6789   5.886   7.177   6.987
34964SOL    HW2 6790   5.880   7.032   6.943
34965SOL     OW 6791  14.106   9.496   6.403
34965SOL    HW1 6792  14.183   9.474   6.455
34965SOL    HW2 6793  14.036   9.443   6.441
34966SOL     OW 6794   3.637   1.136   2.830
34966SOL    HW1 6795   3.567   1.149   2.766
34966SOL    HW2 6796   3.712   1.183   2.793
34967SOL     OW 6797  10.444  13.770   1.355
34967SOL    HW1 6798  10.411  13.716   1.426
34967SOL    HW2 6799  10.516  13.719   1.318
34968SOL     OW 6800   6.445  14.404   9.662
34968SOL    HW1 6801   6.491  14.406   9.746
34968SOL    HW2 6802   6.374  14.341   9.676
34969SOL     OW 6803   3.155  12.632   6.191
34969SOL    HW1 6804   3.149  12.555   6.248
34969SOL    HW2 6805   3.140  12.706   6.249
34970SOL     OW 6806   7.265  12.859  14.698
34970SOL    HW1 6807   7.355  12.844  14.669
34970SOL    HW2 6808   7.252  12.796  14.770
34971SOL     OW 6809   6.752   0.171  10.584
34971SOL    HW1 6810   6.721   0.106  10.647
34971SOL    HW2 6811   6.832   0.205  10.624
34972SOL     OW 6812  13.420  14.269  14.479
34972SOL    HW1 6813  13.341  14.320  14.464
34972SOL    HW2 6814  13.418  14.248  14.572
34973SOL     OW 6815   9.567   7.606   1.020
34973SOL    HW1 6816   9.548   7.556   0.941
34973SOL    HW2 6817   9.663   7.606   1.025
34974SOL     OW 6818   7.966   7.984   4.343
34974SOL    HW1 6819   7.968   8.069   4.298
34974SOL    HW2 6820   8.042   7.937   4.307
34975SOL     OW 6821   3.418   8.477   1.394
34975SOL    HW1 6822   3.426   8.439   1.481
34975SOL    HW2 6823   3.483   8.547   1.392
34976SOL     OW 6824  12.158  10.663   8.427
34976SOL    HW1 6825  12.183  10.619   8.509
34976SOL    HW2 6826  12.241  10.682   8.384
34977SOL     OW 6827  11.378  12.249   3.470
34977SOL    HW1 6828  11.361  12.234   3.563
34977SOL    HW2 6829  11.298  12.288   3.436
34978SOL     OW 6830   4.083   3.266  14.134
34978SOL    HW1 6831   4.150   3.321  14.175
34978SOL    HW2 6832   4.011   3.264  14.197
34979SOL     OW 6833   4.397   9.885   0.732
34979SOL    HW1 6834   4.447   9.946   0.677
34979SOL    HW2 6835   4.423   9.799   0.700
34980SOL     OW 6836   4.348   5.532   6.419
34980SOL    HW1 6837   4.302   5.603   6.374
34980SOL    HW2 6838   4.420   5.509   6.360
34981SOL     OW 6839   5.148   9.130  12.188
34981SOL    HW1 6840   5.062   9.160  12.216
34981SOL    HW2 6841   5.209   9.188  12.233
34982SOL     OW 6842  10.269  14.299   6.512
34982SOL    HW1 6843  10.361  14.328   6.518
34982SOL    HW2 6844  10.237  14.339   6.432
34983SOL     OW 6845   7.763   1.861  11.808
34983SOL    HW1 6846   7.671   1.852  11.785
34983SOL    HW2 6847   7.762   1.888  11.900
34984SOL     OW 6848   9.447  13.761   6.528
34984SOL    HW1 6849   9.440  13.848   6.488
34984SOL    HW2 6850   9.384  13.708   6.481
34985SOL     OW 6851   8.252   5.359   4.608
34985SOL    HW1 6852   8.270   5.447   4.576
34985SOL    HW2 6853   8.166   5.365   4.650
34986SOL     OW 6854   9.091  13.932   6.191
34986SOL    HW1 6855   9.031  13.974   6.128
34986SOL    HW2 6856   9.174  13.976   6.177
34987SOL     OW 6857  11.622   9.564   0.655
34987SOL    HW1 6858  11.598   9.634   0.716
34987SOL    HW2 6859  11.628   9.486   0.711
34988SOL     OW 6860   7.753  13.301   4.373
34988SOL    HW1 6861   7.791  13.215   4.387
34988SOL    HW2 6862   7.697  13.291   4.296
34989SOL     OW 6863   5.664  14.135   2.987
34989SOL    HW1 6864   5.649  14.228   3.003
34989SOL    HW2 6865   5.756  14.122   3.007
34990SOL     OW 6866   9.550  10.912  11.986
34990SOL    HW1 6867   9.528  10.937  12.075
34990SOL    HW2 6868   9.511  10.981  11.931
34991SOL     OW 6869  10.745   5.146   1.462
34991SOL    HW1 6870  10.740   5.067   1.408
34991SOL    HW2 6871  10.685   5.130   1.535
34992SOL     OW 6872   9.439   9.677   6.447
34992SOL    HW1 6873   9.406   9.677   6.357
34992SOL    HW2 6874   9.532   9.700   6.439
34993SOL     OW 6875   8.259   1.033  14.334
34993SOL    HW1 6876   8.234   0.947  14.301
34993SOL    HW2 6877   8.262   1.089  14.256
34994SOL     OW 6878   2.443   3.373  12.471
34994SOL    HW1 6879   2.452   3.442  12.405
34994SOL    HW2 6880   2.504   3.398  12.540
34995SOL     OW 6881   0.602   3.458  12.029
34995SOL    HW1 6882   0.553   3.377  12.021
34995SOL    HW2 6883   0.543   3.518  12.074
34996SOL     OW 6884   8.879  10.946   9.995
34996SOL    HW1 6885   8.954  10.894  10.024
34996SOL    HW2 6886   8.871  11.015  10.061
34997SOL     OW 6887  13.921   4.014   8.328
34997SOL    HW1 6888  13.919   3.957   8.251
34997SOL    HW2 6889  14.014   4.022   8.349
34998SOL     OW 6890  13.162   2.796  12.648
34998SOL    HW1 6891  13.187   2.847  12.571
34998SOL    HW2 6892  13.072   2.822  12.667
34999SOL     OW 6893  13.802   3.027  10.246
34999SOL    HW1 6894  13.763   3.106  10.284
34999SOL    HW2 6895  13.741   2.957  10.268
35000SOL     OW 6896   6.268   2.256  13.237
35000SOL    HW1 6897   6.353   2.285  13.206
35000SOL    HW2 6898   6.216   2.243  13.158
35001SOL     OW 6899  13.048   2.286   7.001
35001SOL    HW1 6900  13.031   2.368   6.954
35001SOL    HW2 6901  13.007   2.219   6.947
35002SOL     OW 6902   6.843   6.316   1.379
35002SOL    HW1 6903   6.851   6.221   1.366
35002SOL    HW2 6904   6.918   6.353   1.332
35003SOL     OW 6905  12.256  12.320   6.780
35003SOL    HW1 6906  12.287  12.249   6.836
35003SOL    HW2 6907  12.316  12.321   6.706
35004SOL     OW 6908  13.558  10.903   9.131
35004SOL    HW1 6909  13.509  10.841   9.184
35004SOL    HW2 6910  13.504  10.982   9.130
35005SOL     OW 6911  10.181  12.498   8.299
35005SOL    HW1 6912  10.140  12.413   8.317
35005SOL    HW2 6913  10.228  12.519   8.379
35006SOL     OW 6914   1.497  10.627   5.686
35006SOL    HW1 6915   1.520  10.575   5.609
35006SOL    HW2 6916   1.545  10.587   5.758
35007SOL     OW 6917   2.555  12.146   6.667
35007SOL    HW1 6918   2.541  12.131   6.760
35007SOL    HW2 6919   2.622  12.083   6.642
35008SOL     OW 6920   1.393   5.449   9.679
35008SOL    HW1 6921   1.372   5.481   9.591
35008SOL    HW2 6922   1.310   5.455   9.727
35009SOL     OW 6923   6.266   3.068   8.881
35009SOL    HW1 6924   6.298   3.016   8.808
35009SOL    HW2 6925   6.229   3.004   8.942
35010SOL     OW 6926   5.106   6.537   9.628
35010SOL    HW1 6927   5.124   6.541   9.723
35010SOL    HW2 6928   5.011   6.537   9.621
35011SOL     OW 6929   5.412   0.805  14.647
35011SOL    HW1 6930   5.374   0.799  14.734
35011SOL    HW2 6931   5.390   0.721  14.605
35012SOL     OW 6932  12.818  14.661   0.550
35012SOL    HW1 6933  12.773  14.576   0.544
35012SOL    HW2 6934  12.892  14.644   0.608
35013SOL     OW 6935   4.378   3.758  12.521
35013SOL    HW1 6936   4.425   3.699  12.462
35013SOL    HW2 6937   4.347   3.702  12.592
35014SOL     OW 6938  14.238   0.876   2.160
35014SOL    HW1 6939  14.177   0.927   2.107
35014SOL    HW2 6940  14.323   0.919   2.148
35015SOL     OW 6941  11.863  11.660   1.314
35015SOL    HW1 6942  11.769  11.669   1.332
35015SOL    HW2 6943  11.902  11.640   1.399
35016SOL     OW 6944   3.206  13.709   4.644
35016SOL    HW1 6945   3.274  13.680   4.583
35016SOL    HW2 6946   3.158  13.777   4.596
35017SOL     OW 6947   4.363   6.550  13.916
35017SOL    HW1 6948   4.457   6.539  13.898
35017SOL    HW2 6949   4.320   6.497  13.849
35018SOL     OW 6950  13.244   4.367  14.611
35018SOL    HW1 6951  13.227   4.273  14.604
35018SOL    HW2 6952  13.286   4.390  14.528
35019SOL     OW 6953   1.914   0.046   2.972
35019SOL    HW1 6954   1.870  14.875   2.905
35019SOL    HW2 6955   1.891   0.136   2.948
35020SOL     OW 6956   4.702  10.759  14.478
35020SOL    HW1 6957   4.721  10.748  14.571
35020SOL    HW2 6958   4.757  10.693  14.435
35021SOL     OW 6959  14.547   8.958   4.749
35021SOL    HW1 6960  14.470   9.015   4.747
35021SOL    HW2 6961  14.617   9.014   4.782
35022SOL     OW 6962   3.392  12.902   2.600
35022SOL    HW1 6963   3.465  12.951   2.638
35022SOL    HW2 6964   3.388  12.932   2.510
35023SOL     OW 6965   7.403  13.949   0.364
35023SOL    HW1 6966   7.333  14.011   0.345
35023SOL    HW2 6967   7.358  13.872   0.401
35024SOL     OW 6968  12.722   5.536   1.601
35024SOL    HW1 6969  12.731   5.615   1.548
35024SOL    HW2 6970  12.668   5.477   1.548
35025SOL     OW 6971  13.394   4.582  13.191
35025SOL    HW1 6972  13.416   4.662  13.241
35025SOL    HW2 6973  13.399   4.512  13.256
35026SOL     OW 6974   7.531  10.586  11.726
35026SOL    HW1 6975   7.436  10.571  11.726
35026SOL    HW2 6976   7.564  10.528  11.657
35027SOL     OW 6977   5.506   2.955  11.261
35027SOL    HW1 6978   5.564   3.007  11.205
35027SOL    HW2 6979   5.433   3.014  11.281
35028SOL     OW 6980  10.323   9.794  12.452
35028SOL    HW1 6981  10.404   9.844  12.439
35028SOL    HW2 6982  10.299   9.811  12.543
35029SOL     OW 6983  10.663   3.189   6.246
35029SOL    HW1 6984  10.694   3.244   6.173
35029SOL    HW2 6985  10.590   3.240   6.283
35030SOL     OW 6986   6.750   7.118  11.855
35030SOL    HW1 6987   6.803   7.052  11.901
35030SOL    HW2 6988   6.810   7.158  11.793
35031SOL     OW 6989   4.414   9.920   6.504
35031SOL    HW1 6990   4.385   9.940   6.415
35031SOL    HW2 6991   4.417   9.824   6.506
35032SOL     OW 6992   8.293   1.954   9.591
35032SOL    HW1 6993   8.221   1.945   9.653
35032SOL    HW2 6994   8.369   1.978   9.644
35033SOL     OW 6995   4.445   3.123   9.133
35033SOL    HW1 6996   4.488   3.168   9.060
35033SOL    HW2 6997   4.471   3.171   9.211
35034SOL     OW 6998   1.128   7.996   1.356
35034SOL    HW1 6999   1.089   7.936   1.420
35034SOL    HW2 7000   1.183   8.055   1.409
35035SOL     OW 7001  11.931   2.426  12.516
35035SOL    HW1 7002  11.938   2.491  12.447
35035SOL    HW2 7003  12.019   2.387  12.522
35036SOL     OW 7004  12.611  12.360   2.996
35036SOL    HW1 7005  12.695  12.405   2.989
35036SOL    HW2 7006  12.593  12.359   3.090
35037SOL     OW 7007  13.733   1.735   3.488
35037SOL    HW1 7008  13.769   1.686   3.561
35037SOL    HW2 7009  13.723   1.669   3.418
35038SOL     OW 7010  14.655   4.124   3.047
35038SOL    HW1 7011  14.609   4.110   2.965
35038SOL    HW2 7012  14.681   4.216   3.045
35039SOL     OW 7013   5.244  11.630   7.407
35039SOL    HW1 7014   5.279  11.701   7.460
35039SOL    HW2 7015   5.178  11.589   7.463
35040SOL     OW 7016   6.036   2.055  10.868
35040SOL    HW1 7017   6.082   2.031  10.788
35040SOL    HW2 7018   6.054   1.983  10.929
35041SOL     OW 7019   4.399  12.164   1.160
35041SOL    HW1 7020   4.312  12.128   1.142
35041SOL    HW2 7021   4.457  12.118   1.099
35042SOL     OW 7022   5.488   5.212   7.921
35042SOL    HW1 7023   5.435   5.233   7.998
35042SOL    HW2 7024   5.469   5.282   7.859
35043SOL     OW 7025   7.407  10.574  10.002
35043SOL    HW1 7026   7.469  10.504   9.983
35043SOL    HW2 7027   7.460  10.646  10.036
35044SOL     OW 7028  12.471   7.608   1.906
35044SOL    HW1 7029  12.480   7.568   1.992
35044SOL    HW2 7030  12.551   7.584   1.859
35045SOL     OW 7031   2.287   9.550   3.664
35045SOL    HW1 7032   2.297   9.549   3.569
35045SOL    HW2 7033   2.203   9.508   3.680
35046SOL     OW 7034   5.600   5.789   0.333
35046SOL    HW1 7035   5.661   5.799   0.261
35046SOL    HW2 7036   5.530   5.852   0.315
35047SOL     OW 7037   6.388   9.002   3.304
35047SOL    HW1 7038   6.435   9.076   3.343
35047SOL    HW2 7039   6.325   8.976   3.370
35048SOL     OW 7040   9.568   9.473   6.821
35048SOL    HW1 7041   9.533   9.445   6.737
35048SOL    HW2 7042   9.650   9.517   6.799
35049SOL     OW 7043   4.885  11.148  11.784
35049SOL    HW1 7044   4.915  11.209  11.851
35049SOL    HW2 7045   4.959  11.139  11.724
35050SOL     OW 7046   3.594   9.554   2.580
35050SOL    HW1 7047   3.603   9.517   2.492
35050SOL    HW2 7048   3.640   9.638   2.575
35051SOL     OW 7049  11.969   1.921   7.834
35051SOL    HW1 7050  11.938   1.890   7.919
35051SOL    HW2 7051  12.034   1.988   7.854
35052SOL     OW 7052  12.725  10.749   8.990
35052SOL    HW1 7053  12.704  10.692   9.064
35052SOL    HW2 7054  12.813  10.722   8.964
35053SOL     OW 7055   8.971   8.143  13.397
35053SOL    HW1 7056   8.902   8.125  13.333
35053SOL    HW2 7057   8.947   8.091  13.473
35054SOL     OW 7058  14.733   3.765  14.387
35054SOL    HW1 7059  14.813   3.816  14.375
35054SOL    HW2 7060  14.663   3.822  14.356
35055SOL     OW 7061  10.318  13.703   9.385
35055SOL    HW1 7062  10.341  13.632   9.325
35055SOL    HW2 7063  10.285  13.773   9.329
35056SOL     OW 7064  14.782   6.669  14.338
35056SOL    HW1 7065  14.719   6.703  14.274
35056SOL    HW2 7066  14.729   6.640  14.411
35057SOL     OW 7067  10.620   0.234  12.671
35057SOL    HW1 7068  10.635   0.194  12.586
35057SOL    HW2 7069  10.661   0.175  12.734
35058SOL     OW 7070   6.168   5.718   6.556
35058SOL    HW1 7071   6.201   5.738   6.468
35058SOL    HW2 7072   6.125   5.633   6.548
35059SOL     OW 7073  14.742   6.151   1.140
35059SOL    HW1 7074  14.748   6.207   1.063
35059SOL    HW2 7075  14.712   6.209   1.211
35060SOL     OW 7076  13.904  11.074   0.971
35060SOL    HW1 7077  13.897  11.099   0.878
35060SOL    HW2 7078  13.846  10.999   0.980
35061SOL     OW 7079  13.566  10.786   0.164
35061SOL    HW1 7080  13.488  10.753   0.208
35061SOL    HW2 7081  13.635  10.724   0.189
35062SOL     OW 7082  11.308   2.255   1.654
35062SOL    HW1 7083  11.229   2.306   1.674
35062SOL    HW2 7084  11.338   2.222   1.739
35063SOL     OW 7085  12.722   4.859  10.654
35063SOL    HW1 7086  12.678   4.894  10.732
35063SOL    HW2 7087  12.654   4.808  10.609
35064SOL     OW 7088   9.849  10.759  13.229
35064SOL    HW1 7089   9.904  10.796  13.299
35064SOL    HW2 7090   9.911  10.732  13.162
35065SOL     OW 7091   1.506  11.204   3.807
35065SOL    HW1 7092   1.429  11.257   3.824
35065SOL    HW2 7093   1.489  11.161   3.723
35066SOL     OW 7094   4.304   3.169   3.959
35066SOL    HW1 7095   4.243   3.130   4.020
35066SOL    HW2 7096   4.386   3.178   4.009
35067SOL     OW 7097   7.167   5.390  11.994
35067SOL    HW1 7098   7.209   5.305  12.006
35067SOL    HW2 7099   7.209   5.426  11.915
35068SOL     OW 7100   6.405  10.595  11.413
35068SOL    HW1 7101   6.362  10.576  11.329
35068SOL    HW2 7102   6.458  10.673  11.395
35069SOL     OW 7103  14.534  14.633   0.767
35069SOL    HW1 7104  14.623  14.609   0.740
35069SOL    HW2 7105  14.544  14.719   0.807
35070SOL     OW 7106   3.551   0.870  13.378
35070SOL    HW1 7107   3.588   0.958  13.388
35070SOL    HW2 7108   3.569   0.847  13.286
35071SOL     OW 7109  11.694  14.878   5.139
35071SOL    HW1 7110  11.682  14.866   5.233
35071SOL    HW2 7111  11.784   0.029   5.129
35072SOL     OW 7112  13.978  13.282  11.089
35072SOL    HW1 7113  13.997  13.203  11.139
35072SOL    HW2 7114  13.895  13.314  11.125
35073SOL     OW 7115  10.719   2.323   8.105
35073SOL    HW1 7116  10.665   2.293   8.032
35073SOL    HW2 7117  10.799   2.355   8.063
35074SOL     OW 7118   6.240  13.120   3.837
35074SOL    HW1 7119   6.188  13.145   3.760
35074SOL    HW2 7120   6.178  13.074   3.894
35075SOL     OW 7121  10.484   1.972   2.262
35075SOL    HW1 7122  10.401   1.991   2.219
35075SOL    HW2 7123  10.544   2.038   2.228
35076SOL     OW 7124  11.665   2.496  13.910
35076SOL    HW1 7125  11.688   2.403  13.910
35076SOL    HW2 7126  11.619   2.509  13.993
35077SOL     OW 7127   7.183   0.548  13.746
35077SOL    HW1 7128   7.238   0.556  13.668
35077SOL    HW2 7129   7.150   0.637  13.761
35078SOL     OW 7130  10.032   6.701  10.677
35078SOL    HW1 7131  10.057   6.706  10.585
35078SOL    HW2 7132   9.954   6.646  10.678
35079SOL     OW 7133   9.937  13.778   1.811
35079SOL    HW1 7134   9.965  13.797   1.721
35079SOL    HW2 7135   9.953  13.685   1.822
35080SOL     OW 7136   3.080  11.747  11.987
35080SOL    HW1 7137   3.023  11.747  12.064
35080SOL    HW2 7138   3.047  11.677  11.932
35081SOL     OW 7139   6.073  13.465   2.311
35081SOL    HW1 7140   6.066  13.388   2.368
35081SOL    HW2 7141   6.165  13.465   2.283
35082SOL     OW 7142   8.917  12.192  10.121
35082SOL    HW1 7143   8.956  12.137  10.053
35082SOL    HW2 7144   8.923  12.138  10.201
35083SOL     OW 7145  10.815  10.131   0.683
35083SOL    HW1 7146  10.842  10.082   0.760
35083SOL    HW2 7147  10.742  10.081   0.647
35084SOL     OW 7148   9.722  11.127  12.396
35084SOL    HW1 7149   9.758  11.079  12.470
35084SOL    HW2 7150   9.630  11.142  12.419
35085SOL     OW 7151   6.233   8.022   7.268
35085SOL    HW1 7152   6.307   8.081   7.273
35085SOL    HW2 7153   6.263   7.940   7.308
35086SOL     OW 7154  12.235  14.582  11.384
35086SOL    HW1 7155  12.220  14.526  11.460
35086SOL    HW2 7156  12.243  14.670  11.420
35087SOL     OW 7157   5.802   1.186   3.302
35087SOL    HW1 7158   5.785   1.093   3.316
35087SOL    HW2 7159   5.867   1.189   3.232
35088SOL     OW 7160   7.736  14.527   8.051
35088SOL    HW1 7161   7.789  14.536   7.972
35088SOL    HW2 7162   7.793  14.559   8.122
35089SOL     OW 7163   5.919   4.608   1.123
35089SOL    HW1 7164   5.898   4.608   1.216
35089SOL    HW2 7165   5.910   4.517   1.096
35090SOL     OW 7166  14.192   7.128  10.559
35090SOL    HW1 7167  14.197   7.221  10.536
35090SOL    HW2 7168  14.278   7.093  10.540
35091SOL     OW 7169   3.285  11.199   4.867
35091SOL    HW1 7170   3.367  11.209   4.915
35091SOL    HW2 7171   3.218  11.191   4.934
35092SOL     OW 7172   8.150   6.149   0.520
35092SOL    HW1 7173   8.138   6.207   0.445
35092SOL    HW2 7174   8.196   6.073   0.484
35093SOL     OW 7175  12.514  14.233  14.047
35093SOL    HW1 7176  12.533  14.187  14.129
35093SOL    HW2 7177  12.433  14.193  14.016
35094SOL     OW 7178   5.737   4.518  11.808
35094SOL    HW1 7179   5.810   4.465  11.839
35094SOL    HW2 7180   5.665   4.497  11.867
35095SOL     OW 7181   5.107   9.677  14.028
35095SOL    HW1 7182   5.137   9.619  14.097
35095SOL    HW2 7183   5.082   9.757  14.074
35096SOL     OW 7184   2.228   1.742   1.663
35096SOL    HW1 7185   2.302   1.788   1.702
35096SOL    HW2 7186   2.191   1.805   1.602
35097SOL     OW 7187   9.727   0.779   1.958
35097SOL    HW1 7188   9.822   0.771   1.968
35097SOL    HW2 7189   9.694   0.690   1.962
35098SOL     OW 7190  13.982   3.030   5.441
35098SOL    HW1 7191  13.935   3.089   5.500
35098SOL    HW2 7192  14.072   3.065   5.440
35099SOL     OW 7193  10.702   1.501   5.970
35099SOL    HW1 7194  10.689   1.406   5.973
35099SOL    HW2 7195  10.617   1.536   5.944
35100SOL     OW 7196   2.121  10.592   5.950
35100SOL    HW1 7197   2.090  10.509   5.913
35100SOL    HW2 7198   2.065  10.658   5.910
35101SOL     OW 7199   6.935   4.928  14.852
35101SOL    HW1 7200   6.901   4.868  14.787
35101SOL    HW2 7201   7.030   4.927  14.839
35102SOL     OW 7202   5.638   1.918   8.252
35102SOL    HW1 7203   5.732   1.924   8.268
35102SOL    HW2 7204   5.610   2.009   8.238
35103SOL     OW 7205  13.550  12.799   6.046
35103SOL    HW1 7206  13.484  12.737   6.077
35103SOL    HW2 7207  13.543  12.796   5.951
35104SOL     OW 7208   8.165   5.719   2.619
35104SOL    HW1 7209   8.132   5.673   2.696
35104SOL    HW2 7210   8.252   5.751   2.645
35105SOL     OW 7211   2.110   8.065  14.594
35105SOL    HW1 7212   2.086   8.149  14.634
35105SOL    HW2 7213   2.034   8.008  14.610
35106SOL     OW 7214  10.091  12.265   9.111
35106SOL    HW1 7215  10.102  12.208   9.034
35106SOL    HW2 7216  10.180  12.280   9.142
35107SOL     OW 7217  13.661  10.730  10.828
35107SOL    HW1 7218  13.716  10.718  10.906
35107SOL    HW2 7219  13.596  10.661  10.834
35108SOL     OW 7220   1.557   2.308   6.913
35108SOL    HW1 7221   1.613   2.302   6.835
35108SOL    HW2 7222   1.610   2.269   6.982
35109SOL     OW 7223   2.199   4.187   1.283
35109SOL    HW1 7224   2.232   4.237   1.209
35109SOL    HW2 7225   2.272   4.186   1.346
35110SOL     OW 7226   8.520  11.380   4.283
35110SOL    HW1 7227   8.498  11.287   4.290
35110SOL    HW2 7228   8.583  11.395   4.353
35111SOL     OW 7229   0.250   0.370   2.362
35111SOL    HW1 7230   0.223   0.453   2.402
35111SOL    HW2 7231   0.200   0.366   2.280
35112SOL     OW 7232   3.015   2.571  11.402
35112SOL    HW1 7233   2.950   2.502  11.397
35112SOL    HW2 7234   3.071   2.547  11.476
35113SOL     OW 7235   8.672  13.021   6.662
35113SOL    HW1 7236   8.595  13.079   6.663
35113SOL    HW2 7237   8.727  13.057   6.592
35114SOL     OW 7238   9.540   4.841   9.367
35114SOL    HW1 7239   9.460   4.842   9.420
35114SOL    HW2 7240   9.611   4.852   9.430
35115SOL     OW 7241   0.499   7.052   1.706
35115SOL    HW1 7242   0.481   7.127   1.763
35115SOL    HW2 7243   0.574   7.078   1.653
35116SOL     OW 7244  11.974   2.747   1.014
35116SOL    HW1 7245  12.043   2.754   0.948
35116SOL    HW2 7246  11.928   2.831   1.009
35117SOL     OW 7247   1.869   0.554   1.319
35117SOL    HW1 7248   1.950   0.559   1.268
35117SOL    HW2 7249   1.803   0.595   1.262
35118SOL     OW 7250   0.165  11.293   4.507
35118SOL    HW1 7251   0.238  11.335   4.553
35118SOL    HW2 7252   0.094  11.356   4.511
35119SOL     OW 7253   8.783  14.360   0.226
35119SOL    HW1 7254   8.870  14.325   0.208
35119SOL    HW2 7255   8.726  14.283   0.227
35120SOL     OW 7256   0.425   1.943   7.708
35120SOL    HW1 7257   0.516   1.965   7.730
35120SOL    HW2 7258   0.398   2.013   7.648
35121SOL     OW 7259  14.221   6.081   1.645
35121SOL    HW1 7260  14.251   6.042   1.727
35121SOL    HW2 7261  14.155   6.145   1.671
35122SOL     OW 7262   7.826  11.424  13.504
35122SOL    HW1 7263   7.850  11.485  13.573
35122SOL    HW2 7264   7.856  11.466  13.423
35123SOL     OW 7265   7.161  11.825  11.810
35123SOL    HW1 7266   7.091  11.766  11.837
35123SOL    HW2 7267   7.118  11.891  11.757
35124SOL     OW 7268  12.609   9.994   6.038
35124SOL    HW1 7269  12.604  10.078   5.993
35124SOL    HW2 7270  12.555   9.935   5.984
35125SOL     OW 7271  13.287   5.740   3.897
35125SOL    HW1 7272  13.206   5.742   3.845
35125SOL    HW2 7273  13.264   5.787   3.977
35126SOL     OW 7274   3.375   7.029   3.149
35126SOL    HW1 7275   3.313   7.055   3.081
35126SOL    HW2 7276   3.423   6.956   3.111
35127SOL     OW 7277  13.700  10.549   4.000
35127SOL    HW1 7278  13.789  10.574   3.978
35127SOL    HW2 7279  13.709  10.463   4.042
35128SOL     OW 7280   2.931  12.626   9.045
35128SOL    HW1 7281   2.946  12.720   9.049
35128SOL    HW2 7282   2.862  12.610   9.109
35129SOL     OW 7283  10.654  10.798   7.835
35129SOL    HW1 7284  10.587  10.742   7.796
35129SOL    HW2 7285  10.714  10.737   7.878
35130SOL     OW 7286  14.637   0.622   8.075
35130SOL    HW1 7287  14.596   0.700   8.036
35130SOL    HW2 7288  14.564   0.562   8.090
35131SOL     OW 7289   4.200   0.518  10.156
35131SOL    HW1 7290   4.218   0.607  10.125
35131SOL    HW2 7291   4.282   0.471  10.143
35132SOL     OW 7292   2.894  11.126   5.746
35132SOL    HW1 7293   2.967  11.187   5.753
35132SOL    HW2 7294   2.896  11.076   5.828
35133SOL     OW 7295  13.855   5.811   7.144
35133SOL    HW1 7296  13.833   5.773   7.229
35133SOL    HW2 7297  13.930   5.761   7.113
35134SOL     OW 7298   4.301   3.964   3.432
35134SOL    HW1 7299   4.311   3.901   3.503
35134SOL    HW2 7300   4.220   3.940   3.389
35135SOL     OW 7301  12.980   8.042   2.662
35135SOL    HW1 7302  12.895   8.040   2.619
35135SOL    HW2 7303  12.960   8.037   2.755
35136SOL     OW 7304   4.552  11.833   1.261
35136SOL    HW1 7305   4.541  11.883   1.342
35136SOL    HW2 7306   4.635  11.865   1.225
35137SOL     OW 7307   3.437   4.150   0.368
35137SOL    HW1 7308   3.378   4.089   0.413
35137SOL    HW2 7309   3.497   4.093   0.319
35138SOL     OW 7310   6.287   2.124  12.829
35138SOL    HW1 7311   6.359   2.066  12.853
35138SOL    HW2 7312   6.218   2.064  12.799
35139SOL     OW 7313   5.347   7.343   3.209
35139SOL    HW1 7314   5.433   7.368   3.243
35139SOL    HW2 7315   5.309   7.425   3.177
35140SOL     OW 7316   0.994  13.755  11.534
35140SOL    HW1 7317   1.068  13.772  11.476
35140SOL    HW2 7318   0.917  13.773  11.481
35141SOL     OW 7319   7.016  13.510  13.259
35141SOL    HW1 7320   7.104  13.534  13.286
35141SOL    HW2 7321   7.028  13.427  13.212
35142SOL     OW 7322   9.425  12.325  11.512
35142SOL    HW1 7323   9.487  12.316  11.440
35142SOL    HW2 7324   9.426  12.239  11.555
35143SOL     OW 7325   1.131   8.535   9.427
35143SOL    HW1 7326   1.122   8.614   9.374
35143SOL    HW2 7327   1.049   8.529   9.476
35144SOL     OW 7328  14.794   2.283   3.903
35144SOL    HW1 7329  14.759   2.325   3.825
35144SOL    HW2 7330  14.806   2.354   3.966
35145SOL     OW 7331  10.327   9.197   4.762
35145SOL    HW1 7332  10.360   9.115   4.725
35145SOL    HW2 7333  10.262   9.171   4.826
35146SOL     OW 7334   5.882   8.991   6.563
35146SOL    HW1 7335   5.917   8.971   6.649
35146SOL    HW2 7336   5.955   9.029   6.515
35147SOL     OW 7337  10.827  11.132  11.667
35147SOL    HW1 7338  10.826  11.065  11.734
35147SOL    HW2 7339  10.810  11.085  11.585
35148SOL     OW 7340   4.208   9.354   0.580
35148SOL    HW1 7341   4.267   9.379   0.509
35148SOL    HW2 7342   4.143   9.297   0.539
35149SOL     OW 7343  14.378  12.812   8.658
35149SOL    HW1 7344  14.362  12.722   8.686
35149SOL    HW2 7345  14.381  12.862   8.739
35150SOL     OW 7346   2.552   6.065   5.374
35150SOL    HW1 7347   2.617   6.102   5.434
35150SOL    HW2 7348   2.500   6.140   5.345
35151SOL     OW 7349  12.881   0.083   4.663
35151SOL    HW1 7350  12.864   0.022   4.592
35151SOL    HW2 7351  12.975   0.078   4.678
35152SOL     OW 7352   1.804  12.960   2.692
35152SOL    HW1 7353   1.885  12.912   2.674
35152SOL    HW2 7354   1.764  12.911   2.764
35153SOL     OW 7355   3.815  12.110   7.193
35153SOL    HW1 7356   3.793  12.021   7.164
35153SOL    HW2 7357   3.731  12.147   7.222
35154SOL     OW 7358   4.947   0.335   8.048
35154SOL    HW1 7359   4.938   0.278   7.972
35154SOL    HW2 7360   5.042   0.344   8.061
35155SOL     OW 7361   4.483   6.701   0.345
35155SOL    HW1 7362   4.457   6.716   0.254
35155SOL    HW2 7363   4.530   6.618   0.344
35156SOL     OW 7364  11.955   3.716   2.317
35156SOL    HW1 7365  12.038   3.703   2.271
35156SOL    HW2 7366  11.930   3.806   2.298
35157SOL     OW 7367   7.621   2.582   9.394
35157SOL    HW1 7368   7.546   2.637   9.370
35157SOL    HW2 7369   7.586   2.493   9.397
35158SOL     OW 7370   3.880  12.199   2.720
35158SOL    HW1 7371   3.811  12.265   2.717
35158SOL    HW2 7372   3.848  12.127   2.666
35159SOL     OW 7373   6.722   6.988  14.430
35159SOL    HW1 7374   6.761   7.074  14.410
35159SOL    HW2 7375   6.633   6.993  14.395
35160SOL     OW 7376   4.887   3.477   6.047
35160SOL    HW1 7377   4.809   3.435   6.012
35160SOL    HW2 7378   4.854   3.553   6.095
35161SOL     OW 7379   4.120  12.727  14.278
35161SOL    HW1 7380   4.102  12.821  14.284
35161SOL    HW2 7381   4.058  12.694  14.213
35162SOL     OW 7382  13.193   1.767   2.246
35162SOL    HW1 7383  13.190   1.754   2.151
35162SOL    HW2 7384  13.128   1.836   2.262
35163SOL     OW 7385   3.346   3.989  12.508
35163SOL    HW1 7386   3.318   4.077  12.534
35163SOL    HW2 7387   3.287   3.966  12.436
35164SOL     OW 7388  13.217   0.555  13.631
35164SOL    HW1 7389  13.182   0.644  13.628
35164SOL    HW2 7390  13.312   0.566  13.637
35165SOL     OW 7391   1.931   3.064   5.552
35165SOL    HW1 7392   1.925   3.000   5.481
35165SOL    HW2 7393   2.025   3.084   5.558
35166SOL     OW 7394  10.329  13.704   5.386
35166SOL    HW1 7395  10.394  13.640   5.358
35166SOL    HW2 7396  10.349  13.783   5.336
35167SOL     OW 7397  14.704   0.771   4.225
35167SOL    HW1 7398  14.662   0.685   4.231
35167SOL    HW2 7399  14.787   0.760   4.273
35168SOL     OW 7400   9.787   2.893  12.848
35168SOL    HW1 7401   9.726   2.914  12.778
35168SOL    HW2 7402   9.826   2.809  12.820
35169SOL     OW 7403  11.023   9.978   5.984
35169SOL    HW1 7404  11.004   9.922   5.909
35169SOL    HW2 7405  11.097   9.935   6.028
35170SOL     OW 7406   4.288  11.874   8.369
35170SOL    HW1 7407   4.245  11.910   8.447
35170SOL    HW2 7408   4.374  11.846   8.400
35171SOL     OW 7409  12.250   3.685   6.794
35171SOL    HW1 7410  12.313   3.703   6.725
35171SOL    HW2 7411  12.165   3.695   6.752
35172SOL     OW 7412  11.177   0.832   9.467
35172SOL    HW1 7413  11.105   0.790   9.514
35172SOL    HW2 7414  11.256   0.788   9.500
35173SOL     OW 7415   2.007   6.316  12.067
35173SOL    HW1 7416   2.077   6.298  12.129
35173SOL    HW2 7417   2.046   6.300  11.981
35174SOL     OW 7418   5.015  12.040   6.061
35174SOL    HW1 7419   5.030  12.077   6.148
35174SOL    HW2 7420   5.102  12.040   6.020
35175SOL     OW 7421  12.643   1.753   3.366
35175SOL    HW1 7422  12.632   1.848   3.360
35175SOL    HW2 7423  12.647   1.723   3.276
35176SOL     OW 7424   7.686   3.510  12.330
35176SOL    HW1 7425   7.636   3.580  12.372
35176SOL    HW2 7426   7.776   3.542  12.327
35177SOL     OW 7427   0.883  13.179  10.340
35177SOL    HW1 7428   0.830  13.100  10.332
35177SOL    HW2 7429   0.929  13.185  10.256
35178SOL     OW 7430  14.653   7.840   1.030
35178SOL    HW1 7431  14.561   7.846   1.005
35178SOL    HW2 7432  14.654   7.853   1.125
35179SOL     OW 7433   6.951   2.671   0.853
35179SOL    HW1 7434   7.038   2.646   0.825
35179SOL    HW2 7435   6.916   2.593   0.896
35180SOL     OW 7436   0.224   3.348   0.686
35180SOL    HW1 7437   0.146   3.298   0.709
35180SOL    HW2 7438   0.193   3.417   0.628
35181SOL     OW 7439  10.179   3.371   4.645
35181SOL    HW1 7440  10.266   3.377   4.604
35181SOL    HW2 7441  10.182   3.434   4.717
35182SOL     OW 7442   1.829  12.837  13.702
35182SOL    HW1 7443   1.839  12.913  13.760
35182SOL    HW2 7444   1.917  12.799  13.697
35183SOL     OW 7445  14.315   8.962  13.153
35183SOL    HW1 7446  14.250   8.911  13.201
35183SOL    HW2 7447  14.377   8.897  13.120
35184SOL     OW 7448   6.221   1.695   1.186
35184SOL    HW1 7449   6.277   1.712   1.261
35184SOL    HW2 7450   6.221   1.600   1.177
35185SOL     OW 7451   6.106   0.676  10.255
35185SOL    HW1 7452   6.028   0.723  10.225
35185SOL    HW2 7453   6.167   0.682  10.181
35186SOL     OW 7454   1.159   4.340   6.662
35186SOL    HW1 7455   1.237   4.324   6.610
35186SOL    HW2 7456   1.192   4.367   6.748
35187SOL     OW 7457   6.458   0.241  11.343
35187SOL    HW1 7458   6.515   0.258  11.418
35187SOL    HW2 7459   6.513   0.195  11.280
35188SOL     OW 7460   8.096   8.021   1.049
35188SOL    HW1 7461   8.039   7.959   1.002
35188SOL    HW2 7462   8.037   8.064   1.111
35189SOL     OW 7463   8.514  14.072   2.528
35189SOL    HW1 7464   8.551  13.993   2.490
35189SOL    HW2 7465   8.487  14.125   2.453
35190SOL     OW 7466  11.598   3.472   7.975
35190SOL    HW1 7467  11.631   3.501   8.060
35190SOL    HW2 7468  11.568   3.552   7.932
35191SOL     OW 7469  14.426  14.261  14.365
35191SOL    HW1 7470  14.334  14.280  14.350
35191SOL    HW2 7471  14.472  14.300  14.291
35192SOL     OW 7472  12.422  14.703   9.402
35192SOL    HW1 7473  12.347  14.670   9.355
35192SOL    HW2 7474  12.441  14.637   9.469
35193SOL     OW 7475   0.932   6.709   4.727
35193SOL    HW1 7476   0.845   6.742   4.703
35193SOL    HW2 7477   0.945   6.633   4.670
35194SOL     OW 7478   3.946  10.593  10.816
35194SOL    HW1 7479   4.011  10.532  10.850
35194SOL    HW2 7480   3.979  10.680  10.840
35195SOL     OW 7481   5.630   8.194  10.605
35195SOL    HW1 7482   5.650   8.102  10.588
35195SOL    HW2 7483   5.634   8.236  10.519
35196SOL     OW 7484   6.082   1.920  12.777
35196SOL    HW1 7485   6.006   1.969  12.747
35196SOL    HW2 7486   6.045   1.840  12.815
35197SOL     OW 7487   4.801   2.581  14.800
35197SOL    HW1 7488   4.818   2.519  14.872
35197SOL    HW2 7489   4.721   2.626  14.827
35198SOL     OW 7490   3.293   7.410  12.662
35198SOL    HW1 7491   3.371   7.447  12.622
35198SOL    HW2 7492   3.316   7.400  12.754
35199SOL     OW 7493  10.360  11.009  10.545
35199SOL    HW1 7494  10.318  10.952  10.609
35199SOL    HW2 7495  10.452  10.982  10.545
35200SOL     OW 7496   8.627  10.083   8.705
35200SOL    HW1 7497   8.678  10.049   8.631
35200SOL    HW2 7498   8.552  10.024   8.712
35201SOL     OW 7499   1.827  10.619   7.344
35201SOL    HW1 7500   1.878  10.579   7.415
35201SOL    HW2 7501   1.737  10.615   7.374
35202SOL     OW 7502   2.738   3.927   5.790
35202SOL    HW1 7503   2.650   3.915   5.826
35202SOL    HW2 7504   2.741   3.870   5.713
35203SOL     OW 7505   8.292   7.431   1.890
35203SOL    HW1 7506   8.319   7.405   1.803
35203SOL    HW2 7507   8.370   7.468   1.930
35204SOL     OW 7508   2.539   5.729  13.162
35204SOL    HW1 7509   2.503   5.737  13.073
35204SOL    HW2 7510   2.466   5.753  13.219
35205SOL     OW 7511   7.037   2.220  11.943
35205SOL    HW1 7512   7.061   2.304  11.980
35205SOL    HW2 7513   6.955   2.197  11.985
35206SOL     OW 7514   4.584   7.590   8.189
35206SOL    HW1 7515   4.584   7.628   8.278
35206SOL    HW2 7516   4.672   7.555   8.178
35207SOL     OW 7517   0.101   9.426   0.955
35207SOL    HW1 7518   0.099   9.430   1.051
35207SOL    HW2 7519   0.171   9.487   0.930
35208SOL     OW 7520   7.984   6.407  11.796
35208SOL    HW1 7521   7.912   6.366  11.845
35208SOL    HW2 7522   8.015   6.338  11.738
35209SOL     OW 7523  13.960   8.279  10.173
35209SOL    HW1 7524  13.934   8.199  10.218
35209SOL    HW2 7525  14.023   8.321  10.233
35210SOL     OW 7526   6.174   0.503   4.776
35210SOL    HW1 7527   6.099   0.557   4.749
35210SOL    HW2 7528   6.251   0.552   4.747
35211SOL     OW 7529   7.573  13.364   9.865
35211SOL    HW1 7530   7.635  13.437   9.863
35211SOL    HW2 7531   7.597  13.316   9.945
35212SOL     OW 7532  10.181  14.588   6.073
35212SOL    HW1 7533  10.265  14.620   6.105
35212SOL    HW2 7534  10.164  14.639   5.994
35213SOL     OW 7535   0.525   9.718   9.601
35213SOL    HW1 7536   0.449   9.741   9.549
35213SOL    HW2 7537   0.492   9.708   9.690
35214SOL     OW 7538   7.099   9.755  10.254
35214SOL    HW1 7539   7.062   9.840  10.279
35214SOL    HW2 7540   7.128   9.716  10.336
35215SOL     OW 7541   7.465   4.182  11.167
35215SOL    HW1 7542   7.448   4.096  11.128
35215SOL    HW2 7543   7.555   4.202  11.143
35216SOL     OW 7544  12.607  12.720   3.183
35216SOL    HW1 7545  12.602  12.647   3.245
35216SOL    HW2 7546  12.523  12.719   3.138
35217SOL     OW 7547   3.376   0.299  10.223
35217SOL    HW1 7548   3.423   0.216  10.221
35217SOL    HW2 7549   3.396   0.340  10.139
35218SOL     OW 7550   3.307  12.209  11.182
35218SOL    HW1 7551   3.276  12.264  11.110
35218SOL    HW2 7552   3.310  12.267  11.257
35219SOL     OW 7553   9.749  10.652   5.089
35219SOL    HW1 7554   9.797  10.660   5.006
35219SOL    HW2 7555   9.660  10.629   5.063
35220SOL     OW 7556   6.415  11.654   1.561
35220SOL    HW1 7557   6.470  11.709   1.617
35220SOL    HW2 7558   6.326  11.685   1.578
35221SOL     OW 7559   8.287   7.691   7.042
35221SOL    HW1 7560   8.311   7.730   6.958
35221SOL    HW2 7561   8.223   7.752   7.078
35222SOL     OW 7562   7.948  13.733  10.013
35222SOL    HW1 7563   7.982  13.658  10.063
35222SOL    HW2 7564   8.021  13.760   9.957
35223SOL     OW 7565   6.154  12.054  13.190
35223SOL    HW1 7566   6.120  12.126  13.137
35223SOL    HW2 7567   6.201  11.998  13.128
35224SOL     OW 7568  10.951   8.453   6.345
35224SOL    HW1 7569  10.858   8.465   6.365
35224SOL    HW2 7570  10.989   8.419   6.427
35225SOL     OW 7571   9.175   8.526   0.886
35225SOL    HW1 7572   9.138   8.459   0.943
35225SOL    HW2 7573   9.145   8.609   0.923
35226SOL     OW 7574   5.479   4.523  14.534
35226SOL    HW1 7575   5.451   4.575  14.459
35226SOL    HW2 7576   5.531   4.584  14.587
35227SOL     OW 7577   1.966   8.680   2.772
35227SOL    HW1 7578   1.955   8.586   2.760
35227SOL    HW2 7579   1.876   8.713   2.781
35228SOL     OW 7580   0.439   0.720   2.576
35228SOL    HW1 7581   0.528   0.756   2.573
35228SOL    HW2 7582   0.449   0.636   2.620
35229SOL     OW 7583  13.559  12.354   0.087
35229SOL    HW1 7584  13.578  12.433   0.037
35229SOL    HW2 7585  13.509  12.299   0.027
35230SOL     OW 7586   2.024  10.095  13.269
35230SOL    HW1 7587   2.095  10.159  13.259
35230SOL    HW2 7588   2.063  10.012  13.243
35231SOL     OW 7589   1.907   9.028   9.843
35231SOL    HW1 7590   1.887   9.075   9.762
35231SOL    HW2 7591   1.856   8.947   9.836
35232SOL     OW 7592   1.978  12.489   7.468
35232SOL    HW1 7593   2.036  12.492   7.544
35232SOL    HW2 7594   2.035  12.512   7.394
35233SOL     OW 7595   4.385   9.321   1.284
35233SOL    HW1 7596   4.335   9.240   1.295
35233SOL    HW2 7597   4.320   9.386   1.256
35234SOL     OW 7598   4.073  11.405   7.406
35234SOL    HW1 7599   4.156  11.392   7.360
35234SOL    HW2 7600   4.006  11.398   7.338
35235SOL     OW 7601   7.608  13.764   7.520
35235SOL    HW1 7602   7.580  13.687   7.570
35235SOL    HW2 7603   7.528  13.796   7.478
35236SOL     OW 7604  10.202  13.879   9.227
35236SOL    HW1 7605  10.113  13.907   9.205
35236SOL    HW2 7606  10.240  13.852   9.143
35237SOL     OW 7607   4.306   4.738  10.055
35237SOL    HW1 7608   4.232   4.748  10.115
35237SOL    HW2 7609   4.381   4.719  10.111
35238SOL     OW 7610  10.272   3.793   9.997
35238SOL    HW1 7611  10.181   3.762   9.998
35238SOL    HW2 7612  10.270   3.873  10.049
35239SOL     OW 7613   9.394  10.333   6.901
35239SOL    HW1 7614   9.398  10.296   6.989
35239SOL    HW2 7615   9.321  10.287   6.860
35240SOL     OW 7616   8.294   8.361   8.493
35240SOL    HW1 7617   8.208   8.386   8.527
35240SOL    HW2 7618   8.283   8.360   8.398
35241SOL     OW 7619  11.252   5.950   6.925
35241SOL    HW1 7620  11.175   5.943   6.982
35241SOL    HW2 7621  11.217   5.948   6.836
35242SOL     OW 7622  13.094   1.040   8.693
35242SOL    HW1 7623  13.100   0.945   8.691
35242SOL    HW2 7624  13.061   1.064   8.607
35243SOL     OW 7625   5.190   2.743   1.782
35243SOL    HW1 7626   5.162   2.674   1.843
35243SOL    HW2 7627   5.271   2.777   1.819
35244SOL     OW 7628   0.382   2.758   9.604
35244SOL    HW1 7629   0.319   2.770   9.534
35244SOL    HW2 7630   0.336   2.785   9.684
35245SOL     OW 7631  14.239  10.707   6.725
35245SOL    HW1 7632  14.286  10.759   6.789
35245SOL    HW2 7633  14.281  10.621   6.728
35246SOL     OW 7634  12.062  10.288   3.720
35246SOL    HW1 7635  12.016  10.302   3.803
35246SOL    HW2 7636  12.048  10.369   3.671
35247SOL     OW 7637   1.606   1.853  10.279
35247SOL    HW1 7638   1.657   1.798  10.219
35247SOL    HW2 7639   1.520   1.858  10.239
35248SOL     OW 7640   5.247   7.855   7.944
35248SOL    HW1 7641   5.230   7.901   7.862
35248SOL    HW2 7642   5.161   7.826   7.974
35249SOL     OW 7643   7.507  14.305   3.380
35249SOL    HW1 7644   7.597  14.331   3.396
35249SOL    HW2 7645   7.461  14.325   3.462
35250SOL     OW 7646   9.202   0.211   5.809
35250SOL    HW1 7647   9.260   0.267   5.757
35250SOL    HW2 7648   9.129   0.267   5.834
35251SOL     OW 7649   0.542  12.429  11.296
35251SOL    HW1 7650   0.531  12.460  11.386
35251SOL    HW2 7651   0.601  12.492  11.256
35252SOL     OW 7652   4.989   0.245   5.436
35252SOL    HW1 7653   4.934   0.304   5.487
35252SOL    HW2 7654   5.023   0.300   5.365
35253SOL     OW 7655  14.051   7.091   6.534
35253SOL    HW1 7656  14.016   7.142   6.460
35253SOL    HW2 7657  14.028   7.143   6.611
35254SOL     OW 7658  14.673   0.071  10.903
35254SOL    HW1 7659  14.625   0.148  10.933
35254SOL    HW2 7660  14.766   0.095  10.912
35255SOL     OW 7661   5.751  12.723   2.257
35255SOL    HW1 7662   5.798  12.642   2.234
35255SOL    HW2 7663   5.820  12.787   2.274
35256SOL     OW 7664   3.206  12.817   8.473
35256SOL    HW1 7665   3.202  12.845   8.382
35256SOL    HW2 7666   3.256  12.886   8.518
35257SOL     OW 7667   2.292   4.633   5.800
35257SOL    HW1 7668   2.257   4.619   5.888
35257SOL    HW2 7669   2.215   4.654   5.747
35258SOL     OW 7670   6.348   8.956  12.981
35258SOL    HW1 7671   6.375   8.933  12.893
35258SOL    HW2 7672   6.320   8.874  13.020
35259SOL     OW 7673  13.601   6.701   4.205
35259SOL    HW1 7674  13.521   6.748   4.230
35259SOL    HW2 7675  13.657   6.706   4.283
35260SOL     OW 7676  10.896   0.596   5.509
35260SOL    HW1 7677  10.835   0.554   5.448
35260SOL    HW2 7678  10.851   0.592   5.593
35261SOL     OW 7679   2.381   6.116   9.010
35261SOL    HW1 7680   2.384   6.126   9.105
35261SOL    HW2 7681   2.307   6.171   8.982
35262SOL     OW 7682   1.465  14.337   6.784
35262SOL    HW1 7683   1.385  14.304   6.825
35262SOL    HW2 7684   1.492  14.268   6.724
35263SOL     OW 7685   3.989   3.841  13.855
35263SOL    HW1 7686   3.988   3.806  13.944
35263SOL    HW2 7687   4.064   3.902  13.854
35264SOL     OW 7688  13.827  11.919   1.650
35264SOL    HW1 7689  13.793  11.936   1.738
35264SOL    HW2 7690  13.749  11.918   1.595
35265SOL     OW 7691   8.288  14.555   8.104
35265SOL    HW1 7692   8.250  14.520   8.023
35265SOL    HW2 7693   8.351  14.621   8.074
35266SOL     OW 7694  10.236  12.982   1.966
35266SOL    HW1 7695  10.145  13.002   1.986
35266SOL    HW2 7696  10.282  13.065   1.982
35267SOL     OW 7697   6.433   7.387   5.311
35267SOL    HW1 7698   6.438   7.339   5.394
35267SOL    HW2 7699   6.504   7.349   5.258
35268SOL     OW 7700  14.328  14.535   6.361
35268SOL    HW1 7701  14.359  14.615   6.320
35268SOL    HW2 7702  14.369  14.465   6.311
35269SOL     OW 7703   5.615  12.462  11.749
35269SOL    HW1 7704   5.528  12.495  11.772
35269SOL    HW2 7705   5.639  12.405  11.821
35270SOL     OW 7706  10.851   8.123   8.219
35270SOL    HW1 7707  10.833   8.198   8.161
35270SOL    HW2 7708  10.766   8.102   8.257
35271SOL     OW 7709   1.069   6.515   1.256
35271SOL    HW1 7710   1.038   6.459   1.327
35271SOL    HW2 7711   1.105   6.453   1.192
35272SOL     OW 7712   3.572  12.072  14.427
35272SOL    HW1 7713   3.637  12.130  14.387
35272SOL    HW2 7714   3.567  11.997  14.366
35273SOL     OW 7715   9.642   2.777   9.361
35273SOL    HW1 7716   9.592   2.732   9.293
35273SOL    HW2 7717   9.592   2.763   9.441
35274SOL     OW 7718   4.148   3.644   5.298
35274SOL    HW1 7719   4.226   3.592   5.280
35274SOL    HW2 7720   4.090   3.584   5.344
35275SOL     OW 7721   7.144   7.948  14.084
35275SOL    HW1 7722   7.240   7.943  14.085
35275SOL    HW2 7723   7.119   7.895  14.009
35276SOL     OW 7724   4.962   5.816   2.527
35276SOL    HW1 7725   4.869   5.822   2.548
35276SOL    HW2 7726   5.006   5.842   2.608
35277SOL     OW 7727  10.557   7.730  10.886
35277SOL    HW1 7728  10.546   7.801  10.950
35277SOL    HW2 7729  10.487   7.669  10.906
35278SOL     OW 7730  11.678   2.194  13.940
35278SOL    HW1 7731  11.630   2.186  14.023
35278SOL    HW2 7732  11.660   2.112  13.894
35279SOL     OW 7733   8.679   8.973   8.963
35279SOL    HW1 7734   8.708   8.960   9.053
35279SOL    HW2 7735   8.725   8.906   8.913
35280SOL     OW 7736  10.195   3.583   4.816
35280SOL    HW1 7737  10.143   3.620   4.888
35280SOL    HW2 7738  10.286   3.597   4.842
35281SOL     OW 7739   6.800  12.444  14.596
35281SOL    HW1 7740   6.850  12.473  14.672
35281SOL    HW2 7741   6.788  12.350  14.609
35282SOL     OW 7742   5.923   5.887  13.044
35282SOL    HW1 7743   5.874   5.912  12.966
35282SOL    HW2 7744   5.912   5.960  13.104
35283SOL     OW 7745   1.697  14.546  10.784
35283SOL    HW1 7746   1.717  14.457  10.812
35283SOL    HW2 7747   1.632  14.577  10.848
35284SOL     OW 7748  13.899   4.266   8.859
35284SOL    HW1 7749  13.814   4.306   8.844
35284SOL    HW2 7750  13.882   4.196   8.922
35285SOL     OW 7751  12.911   1.499   5.894
35285SOL    HW1 7752  12.935   1.410   5.869
35285SOL    HW2 7753  12.949   1.554   5.826
35286SOL     OW 7754  12.282  13.117   9.339
35286SOL    HW1 7755  12.360  13.140   9.289
35286SOL    HW2 7756  12.210  13.158   9.291
35287SOL     OW 7757   0.229   5.629  12.787
35287SOL    HW1 7758   0.185   5.571  12.725
35287SOL    HW2 7759   0.300   5.670  12.737
35288SOL     OW 7760  10.122   5.625   1.653
35288SOL    HW1 7761  10.117   5.685   1.578
35288SOL    HW2 7762  10.173   5.551   1.621
35289SOL     OW 7763   4.266  14.581   9.358
35289SOL    HW1 7764   4.212  14.650   9.319
35289SOL    HW2 7765   4.353  14.594   9.319
35290SOL     OW 7766   2.989   7.771   0.416
35290SOL    HW1 7767   3.009   7.706   0.349
35290SOL    HW2 7768   2.973   7.720   0.495
35291SOL     OW 7769   2.119  10.108   2.329
35291SOL    HW1 7770   2.098  10.100   2.422
35291SOL    HW2 7771   2.081  10.029   2.289
35292SOL     OW 7772   1.236  12.901  10.447
35292SOL    HW1 7773   1.297  12.846  10.494
35292SOL    HW2 7774   1.291  12.959  10.394
35293SOL     OW 7775   5.328   1.642   9.449
35293SOL    HW1 7776   5.302   1.734   9.460
35293SOL    HW2 7777   5.327   1.629   9.354
35294SOL     OW 7778   4.941   1.493   1.569
35294SOL    HW1 7779   5.029   1.501   1.533
35294SOL    HW2 7780   4.953   1.456   1.656
35295SOL     OW 7781   7.853  12.115  14.374
35295SOL    HW1 7782   7.770  12.087  14.336
35295SOL    HW2 7783   7.859  12.208  14.353
35296SOL     OW 7784  13.229   6.055   8.406
35296SOL    HW1 7785  13.209   5.968   8.441
35296SOL    HW2 7786  13.324   6.064   8.415
35297SOL     OW 7787   5.514   2.877   3.808
35297SOL    HW1 7788   5.597   2.857   3.764
35297SOL    HW2 7789   5.503   2.971   3.796
35298SOL     OW 7790   0.377  13.983   2.665
35298SOL    HW1 7791   0.415  13.906   2.622
35298SOL    HW2 7792   0.368  13.957   2.756
35299SOL     OW 7793   7.681  13.663   9.130
35299SOL    HW1 7794   7.737  13.660   9.207
35299SOL    HW2 7795   7.701  13.583   9.082
35300SOL     OW 7796  11.194   4.478   4.300
35300SOL    HW1 7797  11.145   4.407   4.343
35300SOL    HW2 7798  11.270   4.492   4.357
35301SOL     OW 7799   4.319   6.043   9.351
35301SOL    HW1 7800   4.307   5.954   9.317
35301SOL    HW2 7801   4.393   6.035   9.412
35302SOL     OW 7802   2.070  11.999   2.193
35302SOL    HW1 7803   2.005  12.037   2.134
35302SOL    HW2 7804   2.114  11.932   2.141
35303SOL     OW 7805   4.478  10.654  13.383
35303SOL    HW1 7806   4.415  10.588  13.354
35303SOL    HW2 7807   4.456  10.669  13.475
35304SOL     OW 7808   9.451  12.049   5.932
35304SOL    HW1 7809   9.418  12.021   6.017
35304SOL    HW2 7810   9.544  12.066   5.946
35305SOL     OW 7811  14.378   6.939   4.958
35305SOL    HW1 7812  14.412   7.020   4.921
35305SOL    HW2 7813  14.332   6.897   4.885
35306SOL     OW 7814  10.280  10.617   7.225
35306SOL    HW1 7815  10.214  10.641   7.290
35306SOL    HW2 7816  10.363  10.642   7.266
35307SOL     OW 7817  11.355   5.620   0.018
35307SOL    HW1 7818  11.285   5.558   0.037
35307SOL    HW2 7819  11.332   5.659  14.816
35308SOL     OW 7820   3.987   8.949   2.044
35308SOL    HW1 7821   4.061   9.008   2.057
35308SOL    HW2 7822   3.914   9.006   2.018
35309SOL     OW 7823   7.345   7.862  10.366
35309SOL    HW1 7824   7.352   7.788  10.425
35309SOL    HW2 7825   7.363   7.939  10.421
35310SOL     OW 7826   4.728   9.785   8.259
35310SOL    HW1 7827   4.767   9.872   8.269
35310SOL    HW2 7828   4.669   9.794   8.184
35311SOL     OW 7829  12.837  14.580  10.078
35311SOL    HW1 7830  12.849  14.486  10.083
35311SOL    HW2 7831  12.872  14.604   9.991
35312SOL     OW 7832   9.092   5.011  10.068
35312SOL    HW1 7833   9.046   5.067  10.130
35312SOL    HW2 7834   9.089   5.059   9.985
35313SOL     OW 7835   4.726   5.624  10.009
35313SOL    HW1 7836   4.674   5.554  10.048
35313SOL    HW2 7837   4.809   5.622  10.057
35314SOL     OW 7838  11.993  12.087  12.834
35314SOL    HW1 7839  12.027  12.026  12.899
35314SOL    HW2 7840  11.900  12.095  12.855
35315SOL     OW 7841  12.655   7.712  11.145
35315SOL    HW1 7842  12.751   7.710  11.145
35315SOL    HW2 7843  12.631   7.703  11.237
35316SOL     OW 7844  12.287  12.749   1.197
35316SOL    HW1 7845  12.346  12.701   1.139
35316SOL    HW2 7846  12.200  12.730   1.164
35317SOL     OW 7847  14.753   6.754  10.981
35317SOL    HW1 7848  14.664   6.743  10.948
35317SOL    HW2 7849  14.759   6.847  11.003
35318SOL     OW 7850   9.900   5.937   3.029
35318SOL    HW1 7851   9.808   5.961   3.038
35318SOL    HW2 7852   9.947   6.020   3.036
35319SOL     OW 7853   9.636  13.344   5.346
35319SOL    HW1 7854   9.728  13.345   5.371
35319SOL    HW2 7855   9.595  13.283   5.407
35320SOL     OW 7856   9.006  10.533  13.505
35320SOL    HW1 7857   8.968  10.531  13.417
35320SOL    HW2 7858   8.970  10.456  13.549
35321SOL     OW 7859  14.658   1.941   0.184
35321SOL    HW1 7860  14.639   2.022   0.230
35321SOL    HW2 7861  14.629   1.872   0.244
35322SOL     OW 7862   2.632   7.600  13.278
35322SOL    HW1 7863   2.666   7.515  13.305
35322SOL    HW2 7864   2.697   7.663  13.308
35323SOL     OW 7865   7.302   8.286   3.989
35323SOL    HW1 7866   7.283   8.375   4.018
35323SOL    HW2 7867   7.352   8.298   3.908
35324SOL     OW 7868  10.013   8.003   3.683
35324SOL    HW1 7869  10.013   8.015   3.588
35324SOL    HW2 7870  10.099   7.965   3.702
35325SOL     OW 7871   7.458  11.065  14.475
35325SOL    HW1 7872   7.479  11.152  14.440
35325SOL    HW2 7873   7.542  11.028  14.501
35326SOL     OW 7874  14.274   0.691   8.959
35326SOL    HW1 7875  14.242   0.680   8.869
35326SOL    HW2 7876  14.365   0.719   8.948
35327SOL     OW 7877   4.775   2.910   5.695
35327SOL    HW1 7878   4.789   2.962   5.615
35327SOL    HW2 7879   4.797   2.970   5.766
35328SOL     OW 7880   4.222  12.774  11.260
35328SOL    HW1 7881   4.201  12.861  11.293
35328SOL    HW2 7882   4.219  12.718  11.338
35329SOL     OW 7883  11.875  12.645   0.469
35329SOL    HW1 7884  11.898  12.632   0.377
35329SOL    HW2 7885  11.866  12.740   0.477
35330SOL     OW 7886  11.301  12.146   7.384
35330SOL    HW1 7887  11.263  12.069   7.426
35330SOL    HW2 7888  11.333  12.114   7.300
35331SOL     OW 7889  11.479  12.657  14.285
35331SOL    HW1 7890  11.562  12.644  14.239
35331SOL    HW2 7891  11.457  12.749  14.270
35332SOL     OW 7892   1.417   3.837   7.611
35332SOL    HW1 7893   1.501   3.791   7.609
35332SOL    HW2 7894   1.435   3.916   7.662
35333SOL     OW 7895   2.312  11.081  12.414
35333SOL    HW1 7896   2.366  11.002  12.420
35333SOL    HW2 7897   2.227  11.054  12.449
35334SOL     OW 7898   8.091   7.041  12.669
35334SOL    HW1 7899   8.166   7.096  12.648
35334SOL    HW2 7900   8.037   7.095  12.727
35335SOL     OW 7901   4.025   1.769   8.390
35335SOL    HW1 7902   3.935   1.740   8.405
35335SOL    HW2 7903   4.021   1.818   8.307
35336SOL     OW 7904   7.376  11.493   5.236
35336SOL    HW1 7905   7.451  11.452   5.192
35336SOL    HW2 7906   7.388  11.587   5.223
35337SOL     OW 7907   6.076   9.807  12.376
35337SOL    HW1 7908   6.103   9.894  12.346
35337SOL    HW2 7909   5.981   9.813  12.384
35338SOL     OW 7910   4.665  13.588   2.437
35338SOL    HW1 7911   4.670  13.524   2.366
35338SOL    HW2 7912   4.669  13.535   2.517
35339SOL     OW 7913   1.674   1.769  12.148
35339SOL    HW1 7914   1.704   1.709  12.216
35339SOL    HW2 7915   1.689   1.722  12.066
35340SOL     OW 7916   0.519  12.806   1.741
35340SOL    HW1 7917   0.429  12.788   1.766
35340SOL    HW2 7918   0.572  12.767   1.811
35341SOL     OW 7919   0.846   6.736   0.979
35341SOL    HW1 7920   0.877   6.790   1.052
35341SOL    HW2 7921   0.908   6.752   0.909
35342SOL     OW 7922  14.403  11.496   2.503
35342SOL    HW1 7923  14.400  11.402   2.523
35342SOL    HW2 7924  14.322  11.512   2.453
35343SOL     OW 7925   8.991   0.466   0.537
35343SOL    HW1 7926   8.932   0.532   0.502
35343SOL    HW2 7927   8.948   0.383   0.518
35344SOL     OW 7928   6.182   8.615   2.471
35344SOL    HW1 7929   6.199   8.705   2.497
35344SOL    HW2 7930   6.100   8.592   2.515
35345SOL     OW 7931  14.076   4.363  10.133
35345SOL    HW1 7932  14.032   4.360  10.048
35345SOL    HW2 7933  14.168   4.344  10.113
35346SOL     OW 7934  12.059   9.470   1.568
35346SOL    HW1 7935  12.065   9.547   1.625
35346SOL    HW2 7936  11.991   9.416   1.607
35347SOL     OW 7937   7.095  14.878   4.576
35347SOL    HW1 7938   7.127  14.829   4.652
35347SOL    HW2 7939   7.012  14.836   4.552
35348SOL     OW 7940  14.490   5.631   1.517
35348SOL    HW1 7941  14.578   5.657   1.492
35348SOL    HW2 7942  14.443   5.623   1.434
35349SOL     OW 7943   9.310   4.702   8.677
35349SOL    HW1 7944   9.240   4.749   8.721
35349SOL    HW2 7945   9.335   4.633   8.738
35350SOL     OW 7946   6.370   4.128   6.869
35350SOL    HW1 7947   6.419   4.066   6.815
35350SOL    HW2 7948   6.409   4.213   6.848
35351SOL     OW 7949   9.043   2.666   6.848
35351SOL    HW1 7950   9.125   2.667   6.799
35351SOL    HW2 7951   9.008   2.577   6.834
35352SOL     OW 7952  11.353  13.991   6.675
35352SOL    HW1 7953  11.427  13.963   6.622
35352SOL    HW2 7954  11.385  13.986   6.765
35353SOL     OW 7955   5.378   8.501   0.006
35353SOL    HW1 7956   5.368   8.472  14.797
35353SOL    HW2 7957   5.297   8.549   0.024
35354SOL     OW 7958   2.790   6.700   8.188
35354SOL    HW1 7959   2.775   6.709   8.094
35354SOL    HW2 7960   2.811   6.607   8.201
35355SOL     OW 7961  11.198  12.019  12.886
35355SOL    HW1 7962  11.231  12.104  12.858
35355SOL    HW2 7963  11.183  11.971  12.804
35356SOL     OW 7964  13.889   7.082   8.243
35356SOL    HW1 7965  13.886   7.083   8.148
35356SOL    HW2 7966  13.832   7.010   8.269
35357SOL     OW 7967   1.730  14.146   7.935
35357SOL    HW1 7968   1.768  14.134   8.021
35357SOL    HW2 7969   1.770  14.078   7.881
35358SOL     OW 7970   6.900   5.931  13.394
35358SOL    HW1 7971   6.841   5.943  13.468
35358SOL    HW2 7972   6.878   5.844  13.359
35359SOL     OW 7973  10.547   4.158   0.011
35359SOL    HW1 7974  10.492   4.215   0.065
35359SOL    HW2 7975  10.537   4.071   0.050
35360SOL     OW 7976   6.816  13.529  14.447
35360SOL    HW1 7977   6.863  13.555  14.527
35360SOL    HW2 7978   6.785  13.440  14.466
35361SOL     OW 7979  13.523   5.407   3.549
35361SOL    HW1 7980  13.469   5.482   3.522
35361SOL    HW2 7981  13.478   5.373   3.626
35362SOL     OW 7982  14.213   5.476   1.227
35362SOL    HW1 7983  14.159   5.538   1.177
35362SOL    HW2 7984  14.150   5.414   1.264
35363SOL     OW 7985   2.742   5.532   9.543
35363SOL    HW1 7986   2.813   5.579   9.499
35363SOL    HW2 7987   2.783   5.497   9.622
35364SOL     OW 7988   9.644   8.906  10.307
35364SOL    HW1 7989   9.732   8.891  10.272
35364SOL    HW2 7990   9.648   8.871  10.396
35365SOL     OW 7991  10.853  10.075   4.391
35365SOL    HW1 7992  10.764  10.111   4.388
35365SOL    HW2 7993  10.840   9.981   4.400
35366SOL     OW 7994   3.835   8.734   4.954
35366SOL    HW1 7995   3.900   8.742   4.884
35366SOL    HW2 7996   3.885   8.709   5.031
35367SOL     OW 7997   3.801   3.899   4.711
35367SOL    HW1 7998   3.707   3.881   4.698
35367SOL    HW2 7999   3.811   3.901   4.807
35368SOL     OW 8000   2.870  14.055   5.993
35368SOL    HW1 8001   2.887  13.967   5.958
35368SOL    HW2 8002   2.903  14.051   6.083
35369SOL     OW 8003  10.573  14.862  12.921
35369SOL    HW1 8004  10.623  14.832  12.997
35369SOL    HW2 8005  10.517   0.049  12.956
35370SOL     OW 8006  10.341  11.543  14.501
35370SOL    HW1 8007  10.287  11.504  14.432
35370SOL    HW2 8008  10.362  11.470  14.559
35371SOL     OW 8009   5.828   4.507  10.916
35371SOL    HW1 8010   5.911   4.517  10.869
35371SOL    HW2 8011   5.781   4.589  10.900
35372SOL     OW 8012   2.147   1.803   1.046
35372SOL    HW1 8013   2.102   1.721   1.066
35372SOL    HW2 8014   2.100   1.869   1.097
35373SOL     OW 8015  11.050   6.661   9.990
35373SOL    HW1 8016  11.143   6.664  10.011
35373SOL    HW2 8017  11.026   6.751   9.970
35374SOL     OW 8018   8.600   9.642   2.838
35374SOL    HW1 8019   8.663   9.710   2.858
35374SOL    HW2 8020   8.521   9.667   2.886
35375SOL     OW 8021   2.680   8.994   1.526
35375SOL    HW1 8022   2.744   8.963   1.461
35375SOL    HW2 8023   2.617   8.923   1.534
35376SOL     OW 8024   9.738   4.693  14.046
35376SOL    HW1 8025   9.652   4.722  14.078
35376SOL    HW2 8026   9.752   4.744  13.966
35377SOL     OW 8027   5.589   0.903   6.041
35377SOL    HW1 8028   5.657   0.969   6.023
35377SOL    HW2 8029   5.638   0.822   6.055
35378SOL     OW 8030   2.630  11.190   3.826
35378SOL    HW1 8031   2.689  11.228   3.891
35378SOL    HW2 8032   2.554  11.248   3.826
35379SOL     OW 8033   5.327   8.796   1.967
35379SOL    HW1 8034   5.306   8.847   2.045
35379SOL    HW2 8035   5.311   8.855   1.894
35380SOL     OW 8036  13.423  12.627  14.584
35380SOL    HW1 8037  13.417  12.663  14.673
35380SOL    HW2 8038  13.344  12.575  14.573
35381SOL     OW 8039   6.838   4.817   4.193
35381SOL    HW1 8040   6.780   4.877   4.240
35381SOL    HW2 8041   6.899   4.785   4.259
35382SOL     OW 8042   7.865   8.182   2.156
35382SOL    HW1 8043   7.847   8.233   2.077
35382SOL    HW2 8044   7.941   8.128   2.133
35383SOL     OW 8045  10.935   1.024   8.208
35383SOL    HW1 8046  10.994   0.949   8.216
35383SOL    HW2 8047  10.971   1.090   8.268
35384SOL     OW 8048   2.766  11.520   5.922
35384SOL    HW1 8049   2.776  11.567   6.004
35384SOL    HW2 8050   2.679  11.479   5.929
35385SOL     OW 8051  11.929   6.131   5.119
35385SOL    HW1 8052  11.969   6.154   5.203
35385SOL    HW2 8053  11.998   6.084   5.072
35386SOL     OW 8054   2.577   8.651   2.613
35386SOL    HW1 8055   2.655   8.630   2.563
35386SOL    HW2 8056   2.508   8.661   2.547
35387SOL     OW 8057  13.224   1.028   5.756
35387SOL    HW1 8058  13.183   1.034   5.669
35387SOL    HW2 8059  13.288   0.957   5.747
35388SOL     OW 8060   6.681   0.115  12.293
35388SOL    HW1 8061   6.672   0.204  12.259
35388SOL    HW2 8062   6.738   0.071  12.230
35389SOL     OW 8063  10.729   0.710  14.174
35389SOL    HW1 8064  10.638   0.730  14.195
35389SOL    HW2 8065  10.747   0.627  14.218
35390SOL     OW 8066   3.132  13.527   6.476
35390SOL    HW1 8067   3.147  13.463   6.406
35390SOL    HW2 8068   3.038  13.524   6.491
35391SOL     OW 8069  11.497   7.242   7.997
35391SOL    HW1 8070  11.440   7.306   7.954
35391SOL    HW2 8071  11.556   7.295   8.050
35392SOL     OW 8072   0.639   2.716   8.544
35392SOL    HW1 8073   0.551   2.697   8.576
35392SOL    HW2 8074   0.628   2.730   8.450
35393SOL     OW 8075   9.004   8.511  10.051
35393SOL    HW1 8076   8.916   8.526  10.017
35393SOL    HW2 8077   9.057   8.582  10.015
35394SOL     OW 8078  10.169  13.081   8.848
35394SOL    HW1 8079  10.100  13.141   8.877
35394SOL    HW2 8080  10.168  13.088   8.753
35395SOL     OW 8081   1.506   5.036   7.732
35395SOL    HW1 8082   1.420   5.057   7.698
35395SOL    HW2 8083   1.548   5.121   7.748
35396SOL     OW 8084  12.747  10.060   1.444
35396SOL    HW1 8085  12.763   9.966   1.458
35396SOL    HW2 8086  12.833  10.094   1.418
35397SOL     OW 8087   0.735   8.748   2.020
35397SOL    HW1 8088   0.698   8.829   2.055
35397SOL    HW2 8089   0.750   8.693   2.097
35398SOL     OW 8090   4.468   1.864   6.351
35398SOL    HW1 8091   4.414   1.789   6.327
35398SOL    HW2 8092   4.507   1.840   6.435
35399SOL     OW 8093  14.574   8.133  13.191
35399SOL    HW1 8094  14.623   8.206  13.153
35399SOL    HW2 8095  14.555   8.160  13.281
35400SOL     OW 8096   5.903   7.617   3.620
35400SOL    HW1 8097   5.839   7.572   3.674
35400SOL    HW2 8098   5.871   7.608   3.531
35401SOL     OW 8099  13.943   8.109   8.144
35401SOL    HW1 8100  13.921   8.037   8.203
35401SOL    HW2 8101  14.011   8.074   8.088
35402SOL     OW 8102   6.474   9.796  10.799
35402SOL    HW1 8103   6.569   9.797  10.810
35402SOL    HW2 8104   6.460   9.823  10.708
35403SOL     OW 8105   2.950  11.640   1.280
35403SOL    HW1 8106   2.993  11.653   1.365
35403SOL    HW2 8107   2.948  11.728   1.241
35404SOL     OW 8108   0.172   6.396  11.261
35404SOL    HW1 8109   0.189   6.312  11.218
35404SOL    HW2 8110   0.224   6.460  11.213
35405SOL     OW 8111  11.003   1.243   7.446
35405SOL    HW1 8112  10.962   1.163   7.478
35405SOL    HW2 8113  10.930   1.298   7.417
35406SOL     OW 8114   4.552  11.340   4.782
35406SOL    HW1 8115   4.643  11.335   4.755
35406SOL    HW2 8116   4.555  11.344   4.878
35407SOL     OW 8117  14.025  11.577  12.829
35407SOL    HW1 8118  14.106  11.618  12.799
35407SOL    HW2 8119  14.024  11.490  12.790
35408SOL     OW 8120   7.008   3.982   1.569
35408SOL    HW1 8121   6.951   3.924   1.519
35408SOL    HW2 8122   7.061   3.922   1.622
35409SOL     OW 8123  12.638   8.301   6.990
35409SOL    HW1 8124  12.706   8.344   7.041
35409SOL    HW2 8125  12.556   8.336   7.025
35410SOL     OW 8126  14.407  14.045   1.213
35410SOL    HW1 8127  14.473  14.107   1.182
35410SOL    HW2 8128  14.446  14.006   1.291
35411SOL     OW 8129   3.608  14.532   3.760
35411SOL    HW1 8130   3.570  14.598   3.819
35411SOL    HW2 8131   3.573  14.449   3.792
35412SOL     OW 8132   6.607   7.207  12.208
35412SOL    HW1 8133   6.583   7.288  12.163
35412SOL    HW2 8134   6.621   7.233  12.299
35413SOL     OW 8135   1.152   2.245  13.341
35413SOL    HW1 8136   1.122   2.286  13.423
35413SOL    HW2 8137   1.202   2.169  13.369
35414SOL     OW 8138   5.716   1.568   5.389
35414SOL    HW1 8139   5.699   1.587   5.482
35414SOL    HW2 8140   5.795   1.514   5.390
35415SOL     OW 8141   0.700  13.317   8.472
35415SOL    HW1 8142   0.699  13.340   8.565
35415SOL    HW2 8143   0.733  13.227   8.470
35416SOL     OW 8144  12.143   9.300   0.257
35416SOL    HW1 8145  12.181   9.235   0.316
35416SOL    HW2 8146  12.203   9.374   0.259
35417SOL     OW 8147  12.840   7.349  13.567
35417SOL    HW1 8148  12.767   7.379  13.621
35417SOL    HW2 8149  12.845   7.412  13.495
35418SOL     OW 8150   3.195   0.267   9.789
35418SOL    HW1 8151   3.261   0.209   9.827
35418SOL    HW2 8152   3.135   0.209   9.743
35419SOL     OW 8153   6.297   9.776  13.215
35419SOL    HW1 8154   6.318   9.865  13.243
35419SOL    HW2 8155   6.328   9.720  13.286
35420SOL     OW 8156   0.610   9.529  13.104
35420SOL    HW1 8157   0.635   9.441  13.077
35420SOL    HW2 8158   0.645   9.586  13.036
35421SOL     OW 8159   6.821   4.664   1.695
35421SOL    HW1 8160   6.805   4.753   1.665
35421SOL    HW2 8161   6.850   4.617   1.617
35422SOL     OW 8162  11.140   7.690   0.985
35422SOL    HW1 8163  11.231   7.673   1.010
35422SOL    HW2 8164  11.147   7.738   0.903
35423SOL     OW 8165   4.000   2.536   2.090
35423SOL    HW1 8166   3.909   2.515   2.111
35423SOL    HW2 8167   4.016   2.620   2.133
35424SOL     OW 8168   3.603   3.821   6.353
35424SOL    HW1 8169   3.621   3.822   6.448
35424SOL    HW2 8170   3.683   3.856   6.314
35425SOL     OW 8171   2.494   0.591   4.909
35425SOL    HW1 8172   2.551   0.647   4.961
35425SOL    HW2 8173   2.406   0.627   4.923
35426SOL     OW 8174   7.935   6.372   4.423
35426SOL    HW1 8175   7.923   6.458   4.385
35426SOL    HW2 8176   7.908   6.311   4.354
35427SOL     OW 8177   5.933  10.357  13.965
35427SOL    HW1 8178   5.969  10.406  13.892
35427SOL    HW2 8179   5.855  10.407  13.991
35428SOL     OW 8180   3.397   1.490   1.645
35428SOL    HW1 8181   3.304   1.494   1.622
35428SOL    HW2 8182   3.400   1.433   1.723
35429SOL     OW 8183   2.295   7.742  11.589
35429SOL    HW1 8184   2.388   7.759  11.598
35429SOL    HW2 8185   2.263   7.812  11.531
35430SOL     OW 8186   6.725   8.656   8.510
35430SOL    HW1 8187   6.643   8.679   8.554
35430SOL    HW2 8188   6.784   8.630   8.580
35431SOL     OW 8189   9.582   0.334  14.251
35431SOL    HW1 8190   9.612   0.303  14.166
35431SOL    HW2 8191   9.637   0.410  14.270
35432SOL     OW 8192   8.071   7.482   6.422
35432SOL    HW1 8193   8.108   7.466   6.335
35432SOL    HW2 8194   7.981   7.509   6.405
35433SOL     OW 8195   8.064   9.398   7.641
35433SOL    HW1 8196   8.081   9.424   7.550
35433SOL    HW2 8197   7.989   9.452   7.667
35434SOL     OW 8198   1.586  12.334   0.728
35434SOL    HW1 8199   1.584  12.328   0.823
35434SOL    HW2 8200   1.497  12.358   0.703
35435SOL     OW 8201   4.386  11.853   4.061
35435SOL    HW1 8202   4.420  11.915   4.126
35435SOL    HW2 8203   4.373  11.772   4.110
35436SOL     OW 8204  14.370   5.563   6.329
35436SOL    HW1 8205  14.353   5.497   6.262
35436SOL    HW2 8206  14.373   5.514   6.411
35437SOL     OW 8207  13.167  12.880   8.279
35437SOL    HW1 8208  13.151  12.933   8.201
35437SOL    HW2 8209  13.253  12.909   8.310
35438SOL     OW 8210   8.129  11.980   9.000
35438SOL    HW1 8211   8.035  11.966   9.011
35438SOL    HW2 8212   8.169  11.899   9.030
35439SOL     OW 8213   7.362   0.782   9.792
35439SOL    HW1 8214   7.279   0.830   9.791
35439SOL    HW2 8215   7.348   0.712   9.855
35440SOL     OW 8216   2.706   2.369   8.798
35440SOL    HW1 8217   2.775   2.431   8.825
35440SOL    HW2 8218   2.753   2.287   8.783
35441SOL     OW 8219   6.155   8.774   1.135
35441SOL    HW1 8220   6.221   8.728   1.084
35441SOL    HW2 8221   6.204   8.838   1.186
35442SOL     OW 8222   5.320  14.581   1.002
35442SOL    HW1 8223   5.327  14.532   1.084
35442SOL    HW2 8224   5.353  14.520   0.935
35443SOL     OW 8225   4.448   1.265  10.330
35443SOL    HW1 8226   4.423   1.357  10.337
35443SOL    HW2 8227   4.531   1.266  10.283
35444SOL     OW 8228   0.554  14.471   3.385
35444SOL    HW1 8229   0.558  14.564   3.364
35444SOL    HW2 8230   0.472  14.461   3.432
35445SOL     OW 8231   9.600   1.645  10.478
35445SOL    HW1 8232   9.527   1.686  10.431
35445SOL    HW2 8233   9.585   1.551  10.467
35446SOL     OW 8234  14.675   1.895   5.994
35446SOL    HW1 8235  14.757   1.916   6.038
35446SOL    HW2 8236  14.662   1.801   6.011
35447SOL     OW 8237   9.702   0.954   8.627
35447SOL    HW1 8238   9.730   1.010   8.699
35447SOL    HW2 8239   9.621   0.912   8.658
35448SOL     OW 8240   4.463   8.266   0.089
35448SOL    HW1 8241   4.513   8.336   0.046
35448SOL    HW2 8242   4.444   8.300   0.176
35449SOL     OW 8243  12.056  14.482   3.116
35449SOL    HW1 8244  12.007  14.496   3.035
35449SOL    HW2 8245  12.053  14.567   3.160
35450SOL     OW 8246   2.971   1.487   4.197
35450SOL    HW1 8247   2.987   1.415   4.259
35450SOL    HW2 8248   3.056   1.527   4.184
35451SOL     OW 8249  10.936   8.870   0.622
35451SOL    HW1 8250  10.999   8.846   0.554
35451SOL    HW2 8251  10.856   8.824   0.597
35452SOL     OW 8252  14.609  10.992  10.472
35452SOL    HW1 8253  14.550  11.051  10.427
35452SOL    HW2 8254  14.640  11.042  10.548
35453SOL     OW 8255   1.236  13.398   5.174
35453SOL    HW1 8256   1.148  13.378   5.143
35453SOL    HW2 8257   1.293  13.376   5.100
35454SOL     OW 8258   0.908  10.433   9.832
35454SOL    HW1 8259   0.990  10.425   9.783
35454SOL    HW2 8260   0.915  10.368   9.902
35455SOL     OW 8261  12.523   1.729   7.645
35455SOL    HW1 8262  12.541   1.719   7.552
35455SOL    HW2 8263  12.431   1.705   7.655
35456SOL     OW 8264   6.392   3.127   7.455
35456SOL    HW1 8265   6.356   3.143   7.542
35456SOL    HW2 8266   6.465   3.188   7.448
35457SOL     OW 8267   9.435  14.616   6.946
35457SOL    HW1 8268   9.500  14.625   6.877
35457SOL    HW2 8269   9.486  14.607   7.027
35458SOL     OW 8270   7.411   2.368  10.889
35458SOL    HW1 8271   7.390   2.299  10.827
35458SOL    HW2 8272   7.372   2.447  10.850
35459SOL     OW 8273   8.120   9.494   2.395
35459SOL    HW1 8274   8.111   9.466   2.486
35459SOL    HW2 8275   8.182   9.567   2.398
35460SOL     OW 8276   2.682   4.189  11.948
35460SOL    HW1 8277   2.665   4.273  11.906
35460SOL    HW2 8278   2.601   4.171  11.997
35461SOL     OW 8279  11.266   9.052   6.405
35461SOL    HW1 8280  11.285   9.125   6.464
35461SOL    HW2 8281  11.350   9.035   6.362
35462SOL     OW 8282   7.279  11.838   1.853
35462SOL    HW1 8283   7.267  11.771   1.786
35462SOL    HW2 8284   7.214  11.906   1.830
35463SOL     OW 8285  12.999   7.170   6.189
35463SOL    HW1 8286  13.075   7.120   6.158
35463SOL    HW2 8287  13.031   7.221   6.263
35464SOL     OW 8288  12.015   5.093   4.422
35464SOL    HW1 8289  11.931   5.096   4.377
35464SOL    HW2 8290  12.070   5.037   4.368
35465SOL     OW 8291   5.104   0.735   2.906
35465SOL    HW1 8292   5.046   0.805   2.938
35465SOL    HW2 8293   5.046   0.679   2.854
35466SOL     OW 8294   2.058  10.041   9.266
35466SOL    HW1 8295   2.126  10.003   9.323
35466SOL    HW2 8296   1.989   9.975   9.264
35467SOL     OW 8297   5.366  13.691   9.036
35467SOL    HW1 8298   5.415  13.773   9.023
35467SOL    HW2 8299   5.336  13.695   9.126
35468SOL     OW 8300   8.648  13.085  14.298
35468SOL    HW1 8301   8.600  13.039  14.229
35468SOL    HW2 8302   8.579  13.119  14.356
35469SOL     OW 8303   3.550   0.326   5.546
35469SOL    HW1 8304   3.550   0.272   5.626
35469SOL    HW2 8305   3.637   0.315   5.510
35470SOL     OW 8306   6.216   4.976  11.930
35470SOL    HW1 8307   6.212   4.992  12.024
35470SOL    HW2 8308   6.210   5.063  11.890
35471SOL     OW 8309   8.371   1.306  14.818
35471SOL    HW1 8310   8.327   1.275  14.739
35471SOL    HW2 8311   8.358   1.401  14.817
35472SOL     OW 8312   3.602   6.570  13.339
35472SOL    HW1 8313   3.530   6.626  13.367
35472SOL    HW2 8314   3.670   6.631  13.311
35473SOL     OW 8315  14.237   8.966   5.944
35473SOL    HW1 8316  14.249   9.053   5.982
35473SOL    HW2 8317  14.198   8.914   6.015
35474SOL     OW 8318  14.256   8.229   3.025
35474SOL    HW1 8319  14.347   8.259   3.022
35474SOL    HW2 8320  14.253   8.167   3.098
35475SOL     OW 8321  10.637  12.302   0.211
35475SOL    HW1 8322  10.607  12.328   0.124
35475SOL    HW2 8323  10.619  12.377   0.267
35476SOL     OW 8324  12.826   6.427   0.273
35476SOL    HW1 8325  12.768   6.369   0.323
35476SOL    HW2 8326  12.781   6.439   0.189
35477SOL     OW 8327   6.720   4.942   7.955
35477SOL    HW1 8328   6.765   4.859   7.968
35477SOL    HW2 8329   6.629   4.924   7.979
35478SOL     OW 8330  10.744  12.954   7.689
35478SOL    HW1 8331  10.786  12.914   7.765
35478SOL    HW2 8332  10.651  12.954   7.710
35479SOL     OW 8333  13.497  13.822  10.842
35479SOL    HW1 8334  13.420  13.776  10.875
35479SOL    HW2 8335  13.465  13.908  10.816
35480SOL     OW 8336   7.619   9.028  11.553
35480SOL    HW1 8337   7.525   9.030  11.538
35480SOL    HW2 8338   7.644   9.119  11.568
35481SOL     OW 8339   3.773  14.834   0.576
35481SOL    HW1 8340   3.749   0.009   0.649
35481SOL    HW2 8341   3.725  14.753   0.593
35482SOL     OW 8342  10.116   5.261  14.135
35482SOL    HW1 8343  10.068   5.221  14.208
35482SOL    HW2 8344  10.184   5.313  14.178
35483SOL     OW 8345   7.254   1.513   2.172
35483SOL    HW1 8346   7.167   1.475   2.159
35483SOL    HW2 8347   7.311   1.461   2.116
35484SOL     OW 8348  10.891   4.391   7.453
35484SOL    HW1 8349  10.828   4.341   7.400
35484SOL    HW2 8350  10.854   4.479   7.459
35485SOL     OW 8351  10.579   2.550   8.922
35485SOL    HW1 8352  10.632   2.503   8.858
35485SOL    HW2 8353  10.489   2.533   8.895
35486SOL     OW 8354   0.915   6.380  10.030
35486SOL    HW1 8355   0.891   6.338  10.113
35486SOL    HW2 8356   0.925   6.472  10.051
35487SOL     OW 8357  13.687   3.861  10.192
35487SOL    HW1 8358  13.731   3.827  10.270
35487SOL    HW2 8359  13.755   3.865  10.126
35488SOL     OW 8360   8.988  11.888   1.945
35488SOL    HW1 8361   9.061  11.860   1.890
35488SOL    HW2 8362   8.939  11.808   1.965
35489SOL     OW 8363   1.697  14.670   0.627
35489SOL    HW1 8364   1.711  14.600   0.563
35489SOL    HW2 8365   1.737  14.748   0.587
35490SOL     OW 8366   2.049   9.447   3.649
35490SOL    HW1 8367   2.019   9.527   3.608
35490SOL    HW2 8368   1.975   9.387   3.642
35491SOL     OW 8369   7.310  13.221  10.584
35491SOL    HW1 8370   7.373  13.225  10.656
35491SOL    HW2 8371   7.343  13.153  10.526
35492SOL     OW 8372   9.152   6.640  10.220
35492SOL    HW1 8373   9.061   6.618  10.199
35492SOL    HW2 8374   9.170   6.718  10.167
35493SOL     OW 8375   2.220   1.073   8.857
35493SOL    HW1 8376   2.278   1.144   8.886
35493SOL    HW2 8377   2.133   1.103   8.882
35494SOL     OW 8378  11.931   8.582   5.869
35494SOL    HW1 8379  11.859   8.520   5.854
35494SOL    HW2 8380  11.993   8.565   5.798
35495SOL     OW 8381  14.445   8.226   9.801
35495SOL    HW1 8382  14.357   8.263   9.788
35495SOL    HW2 8383  14.489   8.289   9.859
35496SOL     OW 8384   9.640   2.703   4.973
35496SOL    HW1 8385   9.598   2.723   4.890
35496SOL    HW2 8386   9.706   2.771   4.984
35497SOL     OW 8387   7.545   9.183  14.470
35497SOL    HW1 8388   7.574   9.103  14.514
35497SOL    HW2 8389   7.450   9.183  14.480
35498SOL     OW 8390   1.476  14.576   6.300
35498SOL    HW1 8391   1.444  14.666   6.299
35498SOL    HW2 8392   1.488  14.556   6.393
35499SOL     OW 8393   3.499   5.714   4.148
35499SOL    HW1 8394   3.461   5.641   4.101
35499SOL    HW2 8395   3.593   5.706   4.135
35500SOL     OW 8396   3.246   6.866  13.680
35500SOL    HW1 8397   3.178   6.860  13.747
35500SOL    HW2 8398   3.198   6.860  13.597
35501SOL     OW 8399  12.075   2.052  13.939
35501SOL    HW1 8400  12.144   2.118  13.933
35501SOL    HW2 8401  12.055   2.029  13.848
35502SOL     OW 8402   8.366   3.412   1.476
35502SOL    HW1 8403   8.290   3.471   1.481
35502SOL    HW2 8404   8.331   3.326   1.501
35503SOL     OW 8405  14.042   5.884   2.804
35503SOL    HW1 8406  14.015   5.929   2.884
35503SOL    HW2 8407  14.103   5.944   2.761
35504SOL     OW 8408   0.264   4.106   9.394
35504SOL    HW1 8409   0.296   4.180   9.445
35504SOL    HW2 8410   0.319   4.105   9.316
35505SOL     OW 8411   5.619   3.317  13.254
35505SOL    HW1 8412   5.688   3.357  13.308
35505SOL    HW2 8413   5.570   3.262  13.315
35506SOL     OW 8414   5.211   9.516   6.089
35506SOL    HW1 8415   5.265   9.592   6.066
35506SOL    HW2 8416   5.220   9.456   6.015
35507SOL     OW 8417   5.596  10.387  13.322
35507SOL    HW1 8418   5.504  10.361  13.324
35507SOL    HW2 8419   5.625  10.365  13.234
35508SOL     OW 8420   8.860  13.956   8.339
35508SOL    HW1 8421   8.877  14.044   8.306
35508SOL    HW2 8422   8.894  13.897   8.271
35509SOL     OW 8423   8.919   4.908  14.390
35509SOL    HW1 8424   8.840   4.899  14.443
35509SOL    HW2 8425   8.886   4.923  14.301
35510SOL     OW 8426  10.244  12.694   2.923
35510SOL    HW1 8427  10.198  12.699   3.007
35510SOL    HW2 8428  10.194  12.752   2.865
35511SOL     OW 8429   3.958  10.941   7.636
35511SOL    HW1 8430   3.977  10.872   7.700
35511SOL    HW2 8431   3.863  10.946   7.633
35512SOL     OW 8432   3.932   0.382   3.693
35512SOL    HW1 8433   3.837   0.376   3.702
35512SOL    HW2 8434   3.945   0.414   3.603
35513SOL     OW 8435   3.173   9.422   7.181
35513SOL    HW1 8436   3.243   9.358   7.189
35513SOL    HW2 8437   3.164   9.459   7.269
35514SOL     OW 8438   4.801  14.019   6.524
35514SOL    HW1 8439   4.720  14.045   6.479
35514SOL    HW2 8440   4.779  13.936   6.567
35515SOL     OW 8441   8.731  14.711  11.194
35515SOL    HW1 8442   8.774  14.780  11.142
35515SOL    HW2 8443   8.752  14.733  11.285
35516SOL     OW 8444   6.084   3.986  11.905
35516SOL    HW1 8445   6.081   4.078  11.879
35516SOL    HW2 8446   6.131   3.986  11.988
35517SOL     OW 8447   8.434   1.116  12.710
35517SOL    HW1 8448   8.500   1.077  12.653
35517SOL    HW2 8449   8.431   1.208  12.684
35518SOL     OW 8450   3.221  14.574   1.206
35518SOL    HW1 8451   3.246  14.552   1.296
35518SOL    HW2 8452   3.185  14.492   1.171
35519SOL     OW 8453  11.592   9.501  13.387
35519SOL    HW1 8454  11.686   9.512  13.405
35519SOL    HW2 8455  11.589   9.444  13.311
35520SOL     OW 8456  10.071   8.195   5.103
35520SOL    HW1 8457  10.079   8.115   5.156
35520SOL    HW2 8458  10.042   8.262   5.165
35521SOL     OW 8459   6.958   6.537   3.155
35521SOL    HW1 8460   6.978   6.592   3.079
35521SOL    HW2 8461   6.867   6.557   3.175
35522SOL     OW 8462  12.754   1.109   3.077
35522SOL    HW1 8463  12.847   1.126   3.093
35522SOL    HW2 8464  12.738   1.143   2.989
35523SOL     OW 8465   7.342  13.450   5.349
35523SOL    HW1 8466   7.354  13.412   5.262
35523SOL    HW2 8467   7.279  13.521   5.336
35524SOL     OW 8468  11.136  11.685  10.566
35524SOL    HW1 8469  11.218  11.720  10.533
35524SOL    HW2 8470  11.070  11.749  10.542
35525SOL     OW 8471  11.171   9.844  13.237
35525SOL    HW1 8472  11.226   9.818  13.311
35525SOL    HW2 8473  11.128   9.925  13.266
35526SOL     OW 8474   6.177   5.095   9.709
35526SOL    HW1 8475   6.251   5.122   9.763
35526SOL    HW2 8476   6.194   5.132   9.623
35527SOL     OW 8477   9.263   0.353  13.843
35527SOL    HW1 8478   9.193   0.379  13.783
35527SOL    HW2 8479   9.217   0.325  13.922
35528SOL     OW 8480   2.002  11.897   7.743
35528SOL    HW1 8481   1.971  11.935   7.825
35528SOL    HW2 8482   1.923  11.889   7.689
35529SOL     OW 8483  14.223  10.673   8.308
35529SOL    HW1 8484  14.275  10.621   8.248
35529SOL    HW2 8485  14.189  10.745   8.255
35530SOL     OW 8486   7.773  14.120  13.460
35530SOL    HW1 8487   7.700  14.088  13.513
35530SOL    HW2 8488   7.799  14.045  13.405
35531SOL     OW 8489   4.545   1.747   8.817
35531SOL    HW1 8490   4.635   1.753   8.784
35531SOL    HW2 8491   4.551   1.782   8.907
35532SOL     OW 8492  10.770   8.459   6.045
35532SOL    HW1 8493  10.752   8.451   6.139
35532SOL    HW2 8494  10.780   8.368   6.015
35533SOL     OW 8495   6.949   7.905   7.739
35533SOL    HW1 8496   6.960   7.816   7.704
35533SOL    HW2 8497   6.890   7.948   7.676
35534SOL     OW 8498   1.878  13.185   0.258
35534SOL    HW1 8499   1.865  13.213   0.167
35534SOL    HW2 8500   1.971  13.200   0.274
35535SOL     OW 8501   4.605   4.870   5.766
35535SOL    HW1 8502   4.537   4.917   5.815
35535SOL    HW2 8503   4.681   4.927   5.772
35536SOL     OW 8504  13.999   5.295   1.240
35536SOL    HW1 8505  14.030   5.268   1.154
35536SOL    HW2 8506  13.904   5.308   1.229
35537SOL     OW 8507   4.679   3.336   6.443
35537SOL    HW1 8508   4.657   3.426   6.469
35537SOL    HW2 8509   4.741   3.307   6.510
35538SOL     OW 8510   6.527  14.527  11.516
35538SOL    HW1 8511   6.451  14.584  11.518
35538SOL    HW2 8512   6.555  14.528  11.425
35539SOL     OW 8513   5.717   8.167   2.591
35539SOL    HW1 8514   5.668   8.157   2.673
35539SOL    HW2 8515   5.769   8.246   2.604
35540SOL     OW 8516  13.328  14.614   7.744
35540SOL    HW1 8517  13.377  14.621   7.826
35540SOL    HW2 8518  13.236  14.617   7.770
35541SOL     OW 8519   7.321  14.202  10.373
35541SOL    HW1 8520   7.382  14.263  10.332
35541SOL    HW2 8521   7.234  14.230  10.342
35542SOL     OW 8522   8.853   2.255   7.376
35542SOL    HW1 8523   8.932   2.208   7.402
35542SOL    HW2 8524   8.811   2.197   7.312
35543SOL     OW 8525  11.241   2.544  14.844
35543SOL    HW1 8526  11.276   2.623  14.801
35543SOL    HW2 8527  11.148   2.563  14.858
35544SOL     OW 8528   4.532   7.754  13.491
35544SOL    HW1 8529   4.480   7.820  13.444
35544SOL    HW2 8530   4.601   7.804  13.534
35545SOL     OW 8531   8.861   6.237   9.395
35545SOL    HW1 8532   8.868   6.288   9.314
35545SOL    HW2 8533   8.922   6.279   9.455
35546SOL     OW 8534  14.591   4.900  13.683
35546SOL    HW1 8535  14.659   4.964  13.664
35546SOL    HW2 8536  14.509   4.946  13.665
35547SOL     OW 8537  10.414   5.721   7.290
35547SOL    HW1 8538  10.373   5.634   7.289
35547SOL    HW2 8539  10.344   5.781   7.264
35548SOL     OW 8540   5.938   2.384   9.327
35548SOL    HW1 8541   5.982   2.336   9.398
35548SOL    HW2 8542   5.846   2.359   9.336
35549SOL     OW 8543   5.739   2.366  11.069
35549SOL    HW1 8544   5.740   2.277  11.104
35549SOL    HW2 8545   5.772   2.421  11.140
35550SOL     OW 8546   7.470  10.647   2.392
35550SOL    HW1 8547   7.452  10.630   2.485
35550SOL    HW2 8548   7.384  10.641   2.350
35551SOL     OW 8549   6.722   6.542   6.240
35551SOL    HW1 8550   6.669   6.610   6.199
35551SOL    HW2 8551   6.783   6.515   6.171
35552SOL     OW 8552  11.844   3.865  14.096
35552SOL    HW1 8553  11.777   3.858  14.028
35552SOL    HW2 8554  11.866   3.774  14.117
35553SOL     OW 8555  14.399  10.125  13.544
35553SOL    HW1 8556  14.304  10.120  13.531
35553SOL    HW2 8557  14.413  10.210  13.585
35554SOL     OW 8558   5.026   8.554   0.868
35554SOL    HW1 8559   5.117   8.526   0.875
35554SOL    HW2 8560   4.986   8.528   0.951
35555SOL     OW 8561   1.378  11.002  10.562
35555SOL    HW1 8562   1.333  10.926  10.600
35555SOL    HW2 8563   1.438  11.031  10.630
35556SOL     OW 8564  10.154   9.482   9.325
35556SOL    HW1 8565  10.152   9.411   9.388
35556SOL    HW2 8566  10.209   9.449   9.254
35557SOL     OW 8567   5.060   1.106   4.645
35557SOL    HW1 8568   5.019   1.045   4.707
35557SOL    HW2 8569   5.051   1.063   4.560
35558SOL     OW 8570  12.347   0.970  10.241
35558SOL    HW1 8571  12.277   1.025  10.277
35558SOL    HW2 8572  12.315   0.944  10.155
35559SOL     OW 8573   8.443  12.411   2.915
35559SOL    HW1 8574   8.532  12.377   2.910
35559SOL    HW2 8575   8.404  12.366   2.990
35560SOL     OW 8576   3.363   5.475   7.464
35560SOL    HW1 8577   3.353   5.550   7.406
35560SOL    HW2 8578   3.453   5.445   7.449
35561SOL     OW 8579  14.807  14.595  14.097
35561SOL    HW1 8580  14.760  14.563  14.174
35561SOL    HW2 8581   0.016  14.567  14.111
35562SOL     OW 8582   3.068  13.800   7.262
35562SOL    HW1 8583   2.996  13.823   7.320
35562SOL    HW2 8584   3.055  13.854   7.184
35563SOL     OW 8585   0.917   1.300   5.764
35563SOL    HW1 8586   0.881   1.217   5.796
35563SOL    HW2 8587   0.846   1.339   5.713
35564SOL     OW 8588   7.792   0.716   0.605
35564SOL    HW1 8589   7.844   0.795   0.615
35564SOL    HW2 8590   7.720   0.726   0.666
35565SOL     OW 8591  10.750   3.808   5.130
35565SOL    HW1 8592  10.752   3.814   5.225
35565SOL    HW2 8593  10.824   3.751   5.107
35566SOL     OW 8594  11.336   4.075   8.691
35566SOL    HW1 8595  11.407   4.137   8.671
35566SOL    HW2 8596  11.381   3.995   8.718
35567SOL     OW 8597   3.504   9.280   6.691
35567SOL    HW1 8598   3.559   9.234   6.754
35567SOL    HW2 8599   3.417   9.242   6.702
35568SOL     OW 8600  13.772   6.045   2.578
35568SOL    HW1 8601  13.681   6.038   2.607
35568SOL    HW2 8602  13.782   5.975   2.514
35569SOL     OW 8603   2.437   1.770  11.453
35569SOL    HW1 8604   2.459   1.773  11.546
35569SOL    HW2 8605   2.440   1.677  11.431
35570SOL     OW 8606   6.256   8.013  13.718
35570SOL    HW1 8607   6.255   8.052  13.805
35570SOL    HW2 8608   6.167   8.025  13.685
35571SOL     OW 8609   8.702   4.687   4.999
35571SOL    HW1 8610   8.702   4.693   5.094
35571SOL    HW2 8611   8.701   4.778   4.969
35572SOL     OW 8612   2.008   0.322   4.179
35572SOL    HW1 8613   1.918   0.343   4.205
35572SOL    HW2 8614   2.001   0.235   4.140
35573SOL     OW 8615   9.926   7.470  14.642
35573SOL    HW1 8616   9.921   7.455  14.547
35573SOL    HW2 8617  10.018   7.488  14.658
35574SOL     OW 8618   9.048  10.088   0.121
35574SOL    HW1 8619   9.027  10.148   0.049
35574SOL    HW2 8620   8.972  10.031   0.127
35575SOL     OW 8621  13.862   4.207   7.663
35575SOL    HW1 8622  13.942   4.217   7.613
35575SOL    HW2 8623  13.891   4.171   7.747
35576SOL     OW 8624  12.353   8.920   3.867
35576SOL    HW1 8625  12.370   8.831   3.838
35576SOL    HW2 8626  12.270   8.944   3.826
35577SOL     OW 8627   3.505  10.089  10.537
35577SOL    HW1 8628   3.461  10.169  10.567
35577SOL    HW2 8629   3.445  10.018  10.562
35578SOL     OW 8630   9.368   2.956   8.199
35578SOL    HW1 8631   9.278   2.986   8.213
35578SOL    HW2 8632   9.363   2.904   8.119
35579SOL     OW 8633   5.865  10.116   1.402
35579SOL    HW1 8634   5.944  10.080   1.361
35579SOL    HW2 8635   5.799  10.113   1.332
35580SOL     OW 8636   8.238   2.321  14.123
35580SOL    HW1 8637   8.148   2.292  14.103
35580SOL    HW2 8638   8.268   2.260  14.190
35581SOL     OW 8639  10.428   0.003   3.146
35581SOL    HW1 8640  10.416  14.838   3.229
35581SOL    HW2 8641  10.357   0.068   3.145
35582SOL     OW 8642  14.471  12.321   4.857
35582SOL    HW1 8643  14.521  12.246   4.888
35582SOL    HW2 8644  14.507  12.339   4.770
35583SOL     OW 8645   0.752   8.215   3.094
35583SOL    HW1 8646   0.840   8.254   3.095
35583SOL    HW2 8647   0.741   8.177   3.182
35584SOL     OW 8648   0.217   6.345   2.953
35584SOL    HW1 8649   0.237   6.370   2.863
35584SOL    HW2 8650   0.207   6.428   2.999
35585SOL     OW 8651   4.929   0.366   2.748
35585SOL    HW1 8652   4.947   0.370   2.842
35585SOL    HW2 8653   4.937   0.457   2.719
35586SOL     OW 8654   3.548   7.740  13.172
35586SOL    HW1 8655   3.623   7.720  13.116
35586SOL    HW2 8656   3.566   7.827  13.206
35587SOL     OW 8657  10.839   7.759   5.742
35587SOL    HW1 8658  10.853   7.667   5.721
35587SOL    HW2 8659  10.871   7.769   5.831
35588SOL     OW 8660   5.849  11.142   4.791
35588SOL    HW1 8661   5.935  11.109   4.763
35588SOL    HW2 8662   5.786  11.086   4.747
35589SOL     OW 8663   9.263   6.500  13.946
35589SOL    HW1 8664   9.220   6.462  14.024
35589SOL    HW2 8665   9.348   6.456  13.942
35590SOL     OW 8666   6.659  14.419   8.465
35590SOL    HW1 8667   6.714  14.342   8.454
35590SOL    HW2 8668   6.720  14.493   8.459
35591SOL     OW 8669   1.116  11.423   9.207
35591SOL    HW1 8670   1.191  11.409   9.264
35591SOL    HW2 8671   1.040  11.415   9.264
35592SOL     OW 8672   5.788  11.310   3.766
35592SOL    HW1 8673   5.730  11.328   3.840
35592SOL    HW2 8674   5.846  11.386   3.762
35593SOL     OW 8675   4.239   8.711  10.836
35593SOL    HW1 8676   4.161   8.692  10.784
35593SOL    HW2 8677   4.208   8.710  10.926
35594SOL     OW 8678   7.766   8.295   2.869
35594SOL    HW1 8679   7.831   8.298   2.798
35594SOL    HW2 8680   7.682   8.286   2.824
35595SOL     OW 8681   1.800  14.880   6.502
35595SOL    HW1 8682   1.850   0.076   6.526
35595SOL    HW2 8683   1.730  14.875   6.567
35596SOL     OW 8684  14.816   3.522   5.158
35596SOL    HW1 8685  14.845   3.574   5.233
35596SOL    HW2 8686  14.814   3.585   5.085
35597SOL     OW 8687  12.433   3.407   0.620
35597SOL    HW1 8688  12.366   3.349   0.585
35597SOL    HW2 8689  12.505   3.349   0.645
35598SOL     OW 8690   4.983  11.937   1.796
35598SOL    HW1 8691   4.944  11.882   1.729
35598SOL    HW2 8692   5.077  11.927   1.784
35599SOL     OW 8693   9.933   3.860   5.730
35599SOL    HW1 8694  10.006   3.908   5.692
35599SOL    HW2 8695   9.973   3.786   5.776
35600SOL     OW 8696   3.705   3.249  10.811
35600SOL    HW1 8697   3.771   3.311  10.842
35600SOL    HW2 8698   3.685   3.195  10.888
35601SOL     OW 8699  11.205  10.805   6.454
35601SOL    HW1 8700  11.202  10.839   6.543
35601SOL    HW2 8701  11.114  10.782   6.434
35602SOL     OW 8702   1.708   3.134   7.861
35602SOL    HW1 8703   1.697   3.118   7.954
35602SOL    HW2 8704   1.621   3.160   7.830
35603SOL     OW 8705   2.900  11.840   4.705
35603SOL    HW1 8706   2.925  11.880   4.622
35603SOL    HW2 8707   2.871  11.752   4.683
35604SOL     OW 8708   2.501   8.970   7.296
35604SOL    HW1 8709   2.430   8.957   7.358
35604SOL    HW2 8710   2.465   9.032   7.231
35605SOL     OW 8711  12.912  10.077   2.697
35605SOL    HW1 8712  12.922  10.131   2.619
35605SOL    HW2 8713  12.966  10.119   2.764
35606SOL     OW 8714   0.530   4.101   4.994
35606SOL    HW1 8715   0.470   4.176   4.996
35606SOL    HW2 8716   0.472   4.025   5.001
35607SOL     OW 8717   3.813   3.600  12.442
35607SOL    HW1 8718   3.728   3.583  12.402
35607SOL    HW2 8719   3.867   3.634  12.370
35608SOL     OW 8720   9.328  12.625  11.778
35608SOL    HW1 8721   9.270  12.589  11.712
35608SOL    HW2 8722   9.416  12.613  11.742
35609SOL     OW 8723   9.963   1.450   1.334
35609SOL    HW1 8724  10.001   1.429   1.419
35609SOL    HW2 8725   9.868   1.438   1.347
35610SOL     OW 8726   9.102  12.680   3.773
35610SOL    HW1 8727   9.188  12.665   3.812
35610SOL    HW2 8728   9.062  12.594   3.769
35611SOL     OW 8729  14.193   4.608   4.514
35611SOL    HW1 8730  14.102   4.616   4.544
35611SOL    HW2 8731  14.194   4.526   4.464
35612SOL     OW 8732   2.387  11.245   6.608
35612SOL    HW1 8733   2.438  11.319   6.575
35612SOL    HW2 8734   2.359  11.199   6.529
35613SOL     OW 8735   1.110  11.569   1.441
35613SOL    HW1 8736   1.041  11.609   1.388
35613SOL    HW2 8737   1.095  11.602   1.529
35614SOL     OW 8738   1.327   2.947  12.136
35614SOL    HW1 8739   1.245   2.911  12.101
35614SOL    HW2 8740   1.347   2.892  12.212
35615SOL     OW 8741  13.769   0.425   2.146
35615SOL    HW1 8742  13.746   0.417   2.054
35615SOL    HW2 8743  13.855   0.384   2.154
35616SOL     OW 8744   3.868  11.582  10.574
35616SOL    HW1 8745   3.877  11.621  10.487
35616SOL    HW2 8746   3.919  11.640  10.631
35617SOL     OW 8747  13.244   0.299   3.710
35617SOL    HW1 8748  13.189   0.305   3.788
35617SOL    HW2 8749  13.318   0.244   3.737
35618SOL     OW 8750   9.087   7.974  13.000
35618SOL    HW1 8751   9.071   7.889  13.042
35618SOL    HW2 8752   9.175   7.999  13.029
35619SOL     OW 8753  10.448   0.214   2.079
35619SOL    HW1 8754  10.445   0.190   1.986
35619SOL    HW2 8755  10.356   0.215   2.105
35620SOL     OW 8756   4.380   1.600   6.265
35620SOL    HW1 8757   4.440   1.644   6.206
35620SOL    HW2 8758   4.428   1.522   6.294
35621SOL     OW 8759   3.606   7.534   9.659
35621SOL    HW1 8760   3.656   7.460   9.625
35621SOL    HW2 8761   3.671   7.601   9.678
35622SOL     OW 8762  14.564   2.129   9.753
35622SOL    HW1 8763  14.651   2.127   9.715
35622SOL    HW2 8764  14.506   2.098   9.683
35623SOL     OW 8765   6.091   4.065  13.919
35623SOL    HW1 8766   6.045   3.985  13.945
35623SOL    HW2 8767   6.180   4.035  13.900
35624SOL     OW 8768   7.162   3.574   8.580
35624SOL    HW1 8769   7.211   3.516   8.638
35624SOL    HW2 8770   7.223   3.592   8.508
35625SOL     OW 8771  12.970   3.127  13.444
35625SOL    HW1 8772  12.888   3.167  13.415
35625SOL    HW2 8773  13.017   3.198  13.488
35626SOL     OW 8774   6.319   1.377   4.420
35626SOL    HW1 8775   6.409   1.348   4.408
35626SOL    HW2 8776   6.324   1.440   4.492
35627SOL     OW 8777   4.604   0.329   6.587
35627SOL    HW1 8778   4.677   0.276   6.619
35627SOL    HW2 8779   4.527   0.293   6.632
35628SOL     OW 8780   8.238   1.062  14.761
35628SOL    HW1 8781   8.215   1.142  14.809
35628SOL    HW2 8782   8.194   1.072  14.677
35629SOL     OW 8783  14.112  11.497   7.132
35629SOL    HW1 8784  14.143  11.535   7.050
35629SOL    HW2 8785  14.077  11.572   7.181
35630SOL     OW 8786   0.773  13.613   1.449
35630SOL    HW1 8787   0.714  13.642   1.519
35630SOL    HW2 8788   0.814  13.533   1.483
35631SOL     OW 8789   1.427  10.888   2.720
35631SOL    HW1 8790   1.428  10.975   2.760
35631SOL    HW2 8791   1.475  10.832   2.781
35632SOL     OW 8792   5.213   6.242  12.698
35632SOL    HW1 8793   5.289   6.189  12.724
35632SOL    HW2 8794   5.223   6.324  12.747
35633SOL     OW 8795   6.700  14.412  13.114
35633SOL    HW1 8796   6.666  14.323  13.125
35633SOL    HW2 8797   6.650  14.448  13.041
35634SOL     OW 8798  11.528  10.524   6.639
35634SOL    HW1 8799  11.436  10.529   6.613
35634SOL    HW2 8800  11.571  10.480   6.566
35635SOL     OW 8801   5.483   0.584   9.306
35635SOL    HW1 8802   5.433   0.521   9.357
35635SOL    HW2 8803   5.567   0.590   9.351
35636SOL     OW 8804   0.291  13.222   7.756
35636SOL    HW1 8805   0.288  13.296   7.696
35636SOL    HW2 8806   0.202  13.185   7.754
35637SOL     OW 8807   7.861   6.893   5.570
35637SOL    HW1 8808   7.920   6.915   5.498
35637SOL    HW2 8809   7.895   6.810   5.605
35638SOL     OW 8810  11.898  11.902  11.210
35638SOL    HW1 8811  11.946  11.948  11.142
35638SOL    HW2 8812  11.956  11.830  11.236
35639SOL     OW 8813   7.565   0.766   0.737
35639SOL    HW1 8814   7.492   0.705   0.725
35639SOL    HW2 8815   7.536   0.847   0.696
35640SOL     OW 8816   3.330  10.539   6.605
35640SOL    HW1 8817   3.241  10.568   6.586
35640SOL    HW2 8818   3.321  10.487   6.685
35641SOL     OW 8819   2.395   5.371   6.433
35641SOL    HW1 8820   2.409   5.383   6.339
35641SOL    HW2 8821   2.301   5.360   6.442
35642SOL     OW 8822   7.483   4.167   5.312
35642SOL    HW1 8823   7.395   4.129   5.312
35642SOL    HW2 8824   7.495   4.200   5.223
35643SOL     OW 8825   1.674  12.235   9.565
35643SOL    HW1 8826   1.742  12.168   9.557
35643SOL    HW2 8827   1.593  12.191   9.539
35644SOL     OW 8828   3.202   0.096   4.382
35644SOL    HW1 8829   3.176   0.150   4.307
35644SOL    HW2 8830   3.127   0.038   4.397
35645SOL     OW 8831   8.821   1.544  13.842
35645SOL    HW1 8832   8.765   1.534  13.765
35645SOL    HW2 8833   8.803   1.466  13.894
35646SOL     OW 8834  10.790   4.425   9.007
35646SOL    HW1 8835  10.706   4.381   8.990
35646SOL    HW2 8836  10.773   4.517   8.987
35647SOL     OW 8837   9.561  12.906  14.125
35647SOL    HW1 8838   9.597  12.912  14.213
35647SOL    HW2 8839   9.503  12.982  14.118
35648SOL     OW 8840   6.146   2.610  10.799
35648SOL    HW1 8841   6.061   2.613  10.755
35648SOL    HW2 8842   6.163   2.517  10.812
35649SOL     OW 8843  11.241   5.808  10.463
35649SOL    HW1 8844  11.315   5.764  10.504
35649SOL    HW2 8845  11.261   5.806  10.369
35650SOL     OW 8846   5.941  12.858   9.208
35650SOL    HW1 8847   5.884  12.828   9.137
35650SOL    HW2 8848   5.969  12.777   9.251
35651SOL     OW 8849   2.407   6.824   6.247
35651SOL    HW1 8850   2.488   6.775   6.234
35651SOL    HW2 8851   2.429   6.890   6.313
35652SOL     OW 8852   0.961  12.902   4.230
35652SOL    HW1 8853   1.049  12.937   4.244
35652SOL    HW2 8854   0.908  12.941   4.299
35653SOL     OW 8855  11.877   5.678   2.361
35653SOL    HW1 8856  11.920   5.606   2.315
35653SOL    HW2 8857  11.928   5.689   2.441
35654SOL     OW 8858   8.088  12.960   4.248
35654SOL    HW1 8859   8.115  12.920   4.330
35654SOL    HW2 8860   8.135  13.043   4.245
35655SOL     OW 8861   4.725  14.871   0.464
35655SOL    HW1 8862   4.787   0.056   0.438
35655SOL    HW2 8863   4.779  14.804   0.508
35656SOL     OW 8864   3.669   7.816   3.872
35656SOL    HW1 8865   3.737   7.833   3.807
35656SOL    HW2 8866   3.677   7.888   3.934
35657SOL     OW 8867  12.895  14.764   6.649
35657SOL    HW1 8868  12.982  14.801   6.664
35657SOL    HW2 8869  12.838  14.840   6.636
35658SOL     OW 8870   5.549   7.734   6.377
35658SOL    HW1 8871   5.598   7.694   6.449
35658SOL    HW2 8872   5.611   7.737   6.305
35659SOL     OW 8873   5.547   1.777  13.077
35659SOL    HW1 8874   5.462   1.813  13.054
35659SOL    HW2 8875   5.600   1.853  13.102
35660SOL     OW 8876  10.858   6.878   4.152
35660SOL    HW1 8877  10.918   6.813   4.117
35660SOL    HW2 8878  10.880   6.883   4.245
35661SOL     OW 8879   6.919  13.363   9.945
35661SOL    HW1 8880   6.944  13.450   9.978
35661SOL    HW2 8881   6.847  13.335  10.001
35662SOL     OW 8882  14.664   5.779  10.941
35662SOL    HW1 8883  14.590   5.776  11.002
35662SOL    HW2 8884  14.691   5.871  10.941
35663SOL     OW 8885   5.394   0.358   3.099
35663SOL    HW1 8886   5.327   0.424   3.085
35663SOL    HW2 8887   5.350   0.275   3.079
35664SOL     OW 8888  11.643   2.928  12.302
35664SOL    HW1 8889  11.622   2.861  12.366
35664SOL    HW2 8890  11.727   2.901  12.266
35665SOL     OW 8891   8.113  14.534   6.126
35665SOL    HW1 8892   8.033  14.486   6.149
35665SOL    HW2 8893   8.102  14.556   6.033
35666SOL     OW 8894  10.836  10.570  12.614
35666SOL    HW1 8895  10.798  10.529  12.692
35666SOL    HW2 8896  10.902  10.508  12.584
35667SOL     OW 8897   4.926   1.438   5.995
35667SOL    HW1 8898   4.996   1.502   5.982
35667SOL    HW2 8899   4.972   1.354   6.002
35668SOL     OW 8900  12.401   5.891   1.055
35668SOL    HW1 8901  12.376   5.927   1.140
35668SOL    HW2 8902  12.393   5.964   0.994
35669SOL     OW 8903  11.890   0.553   2.116
35669SOL    HW1 8904  11.812   0.564   2.062
35669SOL    HW2 8905  11.948   0.625   2.090
35670SOL     OW 8906   5.053   9.136  13.698
35670SOL    HW1 8907   5.119   9.195  13.733
35670SOL    HW2 8908   5.038   9.167  13.609
35671SOL     OW 8909   1.047  10.848   3.816
35671SOL    HW1 8910   0.974  10.845   3.753
35671SOL    HW2 8911   1.013  10.803   3.893
35672SOL     OW 8912  12.659   7.149   8.165
35672SOL    HW1 8913  12.657   7.232   8.213
35672SOL    HW2 8914  12.583   7.153   8.106
35673SOL     OW 8915   0.336   6.668   9.825
35673SOL    HW1 8916   0.319   6.577   9.798
35673SOL    HW2 8917   0.427   6.668   9.854
35674SOL     OW 8918   4.343   5.174  14.390
35674SOL    HW1 8919   4.343   5.078  14.389
35674SOL    HW2 8920   4.311   5.196  14.478
35675SOL     OW 8921   1.761   1.346   1.051
35675SOL    HW1 8922   1.823   1.274   1.051
35675SOL    HW2 8923   1.762   1.379   0.961
35676SOL     OW 8924  11.135   2.948  11.383
35676SOL    HW1 8925  11.104   2.918  11.298
35676SOL    HW2 8926  11.087   3.029  11.399
35677SOL     OW 8927  14.086   2.156   4.125
35677SOL    HW1 8928  14.161   2.102   4.102
35677SOL    HW2 8929  14.104   2.186   4.215
35678SOL     OW 8930   3.879   2.188  11.546
35678SOL    HW1 8931   3.841   2.231  11.470
35678SOL    HW2 8932   3.808   2.134  11.581
35679SOL     OW 8933   7.311   7.659  10.119
35679SOL    HW1 8934   7.349   7.572  10.134
35679SOL    HW2 8935   7.309   7.698  10.207
35680SOL     OW 8936   6.171   1.107   7.176
35680SOL    HW1 8937   6.092   1.126   7.125
35680SOL    HW2 8938   6.205   1.026   7.139
35681SOL     OW 8939   7.637  13.474   0.947
35681SOL    HW1 8940   7.721  13.435   0.925
35681SOL    HW2 8941   7.573  13.407   0.925
35682SOL     OW 8942   5.339   4.419   7.554
35682SOL    HW1 8943   5.379   4.350   7.501
35682SOL    HW2 8944   5.384   4.414   7.638
35683SOL     OW 8945  12.929   7.458   3.466
35683SOL    HW1 8946  13.012   7.502   3.483
35683SOL    HW2 8947  12.909   7.413   3.548
35684SOL     OW 8948   5.192   8.294   7.325
35684SOL    HW1 8949   5.152   8.277   7.410
35684SOL    HW2 8950   5.185   8.388   7.313
35685SOL     OW 8951  13.222  13.555  14.332
35685SOL    HW1 8952  13.151  13.550  14.396
35685SOL    HW2 8953  13.300  13.532  14.382
35686SOL     OW 8954   3.603   1.396   4.040
35686SOL    HW1 8955   3.697   1.384   4.057
35686SOL    HW2 8956   3.575   1.461   4.105
35687SOL     OW 8957   9.139  12.080   1.297
35687SOL    HW1 8958   9.140  11.999   1.246
35687SOL    HW2 8959   9.133  12.052   1.388
35688SOL     OW 8960   6.296   5.491   4.122
35688SOL    HW1 8961   6.374   5.437   4.109
35688SOL    HW2 8962   6.253   5.454   4.199
35689SOL     OW 8963   0.137   3.815   2.282
35689SOL    HW1 8964   0.115   3.869   2.206
35689SOL    HW2 8965   0.107   3.867   2.358
35690SOL     OW 8966   5.719   5.403   0.078
35690SOL    HW1 8967   5.777   5.479   0.088
35690SOL    HW2 8968   5.706   5.371   0.167
35691SOL     OW 8969   1.286   8.876   4.099
35691SOL    HW1 8970   1.283   8.953   4.042
35691SOL    HW2 8971   1.195   8.851   4.109
35692SOL     OW 8972   5.248   0.879  10.149
35692SOL    HW1 8973   5.327   0.842  10.108
35692SOL    HW2 8974   5.205   0.804  10.190
35693SOL     OW 8975   3.845   7.289   0.080
35693SOL    HW1 8976   3.766   7.264   0.032
35693SOL    HW2 8977   3.839   7.384   0.089
35694SOL     OW 8978   3.661  10.088  13.319
35694SOL    HW1 8979   3.720  10.014  13.333
35694SOL    HW2 8980   3.603  10.088  13.394
35695SOL     OW 8981   2.054   6.700   0.084
35695SOL    HW1 8982   2.027   6.778   0.132
35695SOL    HW2 8983   1.994   6.695   0.010
35696SOL     OW 8984  10.283   9.408  10.412
35696SOL    HW1 8985  10.349   9.405  10.342
35696SOL    HW2 8986  10.206   9.365  10.374
35697SOL     OW 8987   4.844   3.831   5.337
35697SOL    HW1 8988   4.818   3.775   5.409
35697SOL    HW2 8989   4.871   3.771   5.267
35698SOL     OW 8990   8.126   1.334   2.038
35698SOL    HW1 8991   8.201   1.394   2.045
35698SOL    HW2 8992   8.156   1.254   2.082
35699SOL     OW 8993   9.237   8.719   2.098
35699SOL    HW1 8994   9.170   8.662   2.135
35699SOL    HW2 8995   9.287   8.749   2.174
35700SOL     OW 8996  12.198  11.102  13.338
35700SOL    HW1 8997  12.107  11.100  13.369
35700SOL    HW2 8998  12.242  11.164  13.396
35701SOL     OW 8999   9.525   1.803  10.706
35701SOL    HW1 9000   9.599   1.820  10.764
35701SOL    HW2 9001   9.563   1.753  10.633
35702SOL     OW 9002   1.107   3.751   5.002
35702SOL    HW1 9003   1.062   3.739   5.086
35702SOL    HW2 9004   1.200   3.747   5.024
35703SOL     OW 9005   9.211   8.614   3.418
35703SOL    HW1 9006   9.125   8.655   3.411
35703SOL    HW2 9007   9.194   8.520   3.413
35704SOL     OW 9008   5.304   5.676   5.225
35704SOL    HW1 9009   5.308   5.585   5.254
35704SOL    HW2 9010   5.305   5.669   5.129
35705SOL     OW 9011  13.995  11.973   9.510
35705SOL    HW1 9012  13.915  11.994   9.461
35705SOL    HW2 9013  14.030  12.058   9.537
35706SOL     OW 9014   3.822   4.376   1.892
35706SOL    HW1 9015   3.886   4.426   1.942
35706SOL    HW2 9016   3.742   4.378   1.945
35707SOL     OW 9017   0.136   6.203  14.353
35707SOL    HW1 9018   0.119   6.242  14.439
35707SOL    HW2 9019   0.139   6.278  14.293
35708SOL     OW 9020  10.128  11.893   3.496
35708SOL    HW1 9021  10.033  11.898   3.499
35708SOL    HW2 9022  10.146  11.803   3.468
35709SOL     OW 9023   0.080   1.217   5.944
35709SOL    HW1 9024   0.039   1.210   5.857
35709SOL    HW2 9025   0.169   1.184   5.931
35710SOL     OW 9026   6.519  14.287   2.799
35710SOL    HW1 9027   6.494  14.306   2.709
35710SOL    HW2 9028   6.462  14.215   2.826
35711SOL     OW 9029  14.752  12.067  14.352
35711SOL    HW1 9030  14.696  12.145  14.351
35711SOL    HW2 9031  14.704  12.003  14.299
35712SOL     OW 9032   6.813   6.655  12.067
35712SOL    HW1 9033   6.901   6.638  12.033
35712SOL    HW2 9034   6.827   6.708  12.145
35713SOL     OW 9035  11.426   2.693  13.356
35713SOL    HW1 9036  11.490   2.749  13.401
35713SOL    HW2 9037  11.352   2.750  13.338
35714SOL     OW 9038   0.979   9.252  14.714
35714SOL    HW1 9039   0.907   9.277  14.656
35714SOL    HW2 9040   0.935   9.210  14.788
35715SOL     OW 9041  12.837   4.121   4.571
35715SOL    HW1 9042  12.932   4.135   4.566
35715SOL    HW2 9043  12.799   4.209   4.568
35716SOL     OW 9044   1.662   2.021   2.062
35716SOL    HW1 9045   1.726   1.953   2.044
35716SOL    HW2 9046   1.694   2.065   2.140
35717SOL     OW 9047   4.396   5.090   8.987
35717SOL    HW1 9048   4.382   4.996   9.002
35717SOL    HW2 9049   4.398   5.128   9.075
35718SOL     OW 9050   4.622   0.522   5.483
35718SOL    HW1 9051   4.678   0.545   5.410
35718SOL    HW2 9052   4.632   0.427   5.492
35719SOL     OW 9053   1.551  13.518  12.034
35719SOL    HW1 9054   1.516  13.431  12.014
35719SOL    HW2 9055   1.567  13.557  11.948
35720SOL     OW 9056   0.284   3.383  13.306
35720SOL    HW1 9057   0.278   3.310  13.244
35720SOL    HW2 9058   0.300   3.459  13.250
35721SOL     OW 9059   8.609  10.786   5.010
35721SOL    HW1 9060   8.540  10.741   5.060
35721SOL    HW2 9061   8.657  10.716   4.966
35722SOL     OW 9062  13.932   2.537  12.740
35722SOL    HW1 9063  13.970   2.510  12.656
35722SOL    HW2 9064  14.008   2.553  12.796
35723SOL     OW 9065   5.257  13.983   0.829
35723SOL    HW1 9066   5.288  14.019   0.912
35723SOL    HW2 9067   5.208  14.054   0.789
35724SOL     OW 9068   2.171   9.022   7.155
35724SOL    HW1 9069   2.262   9.051   7.158
35724SOL    HW2 9070   2.138   9.054   7.071
35725SOL     OW 9071   7.083   0.177  12.949
35725SOL    HW1 9072   7.133   0.143  13.023
35725SOL    HW2 9073   7.142   0.240  12.908
35726SOL     OW 9074   6.576  13.713   5.532
35726SOL    HW1 9075   6.618  13.778   5.477
35726SOL    HW2 9076   6.647  13.679   5.587
35727SOL     OW 9077   6.066   2.489   4.436
35727SOL    HW1 9078   6.148   2.459   4.397
35727SOL    HW2 9079   6.042   2.420   4.498
35728SOL     OW 9080   5.435   7.468  11.708
35728SOL    HW1 9081   5.345   7.439  11.700
35728SOL    HW2 9082   5.430   7.563  11.706
35729SOL     OW 9083  14.471   4.292   8.490
35729SOL    HW1 9084  14.491   4.345   8.567
35729SOL    HW2 9085  14.381   4.314   8.468
35730SOL     OW 9086  14.788   1.100   5.267
35730SOL    HW1 9087  14.750   1.013   5.255
35730SOL    HW2 9088  14.713   1.157   5.284
35731SOL     OW 9089  11.600   6.881   0.973
35731SOL    HW1 9090  11.575   6.822   1.045
35731SOL    HW2 9091  11.548   6.851   0.899
35732SOL     OW 9092  11.436  10.635  10.684
35732SOL    HW1 9093  11.493  10.707  10.658
35732SOL    HW2 9094  11.366  10.636  10.619
35733SOL     OW 9095   7.524   3.252   6.190
35733SOL    HW1 9096   7.555   3.254   6.099
35733SOL    HW2 9097   7.592   3.204   6.237
35734SOL     OW 9098   0.281   0.930   3.084
35734SOL    HW1 9099   0.321   1.004   3.039
35734SOL    HW2 9100   0.270   0.863   3.016
35735SOL     OW 9101   2.695   6.378  12.482
35735SOL    HW1 9102   2.749   6.437  12.429
35735SOL    HW2 9103   2.607   6.416  12.478
35736SOL     OW 9104   4.146   3.829   8.871
35736SOL    HW1 9105   4.153   3.766   8.800
35736SOL    HW2 9106   4.116   3.910   8.830
35737SOL     OW 9107   4.191  11.303  14.426
35737SOL    HW1 9108   4.240  11.343  14.354
35737SOL    HW2 9109   4.259  11.275  14.488
35738SOL     OW 9110  10.541  11.600  12.896
35738SOL    HW1 9111  10.458  11.575  12.854
35738SOL    HW2 9112  10.583  11.658  12.833
35739SOL     OW 9113  13.147   3.568  11.726
35739SOL    HW1 9114  13.223   3.613  11.689
35739SOL    HW2 9115  13.087   3.639  11.750
35740SOL     OW 9116   6.333   4.256   9.923
35740SOL    HW1 9117   6.256   4.200   9.918
35740SOL    HW2 9118   6.381   4.225  10.000
35741SOL     OW 9119   7.070  11.936   4.401
35741SOL    HW1 9120   7.138  11.947   4.335
35741SOL    HW2 9121   7.096  11.995   4.472
35742SOL     OW 9122   3.289   5.645   8.896
35742SOL    HW1 9123   3.200   5.615   8.882
35742SOL    HW2 9124   3.341   5.598   8.832
35743SOL     OW 9125  13.801   0.288   8.874
35743SOL    HW1 9126  13.775   0.223   8.939
35743SOL    HW2 9127  13.871   0.339   8.916
35744SOL     OW 9128   9.916   5.237   8.492
35744SOL    HW1 9129   9.872   5.279   8.419
35744SOL    HW2 9130   9.983   5.181   8.452
35745SOL     OW 9131   6.164   3.177  10.863
35745SOL    HW1 9132   6.141   3.200  10.773
35745SOL    HW2 9133   6.231   3.109  10.854
35746SOL     OW 9134  12.261   1.424   3.032
35746SOL    HW1 9135  12.176   1.448   3.069
35746SOL    HW2 9136  12.325   1.460   3.092
35747SOL     OW 9137  12.882   6.023  13.789
35747SOL    HW1 9138  12.909   5.978  13.708
35747SOL    HW2 9139  12.823   6.093  13.759
35748SOL     OW 9140   5.345   6.610   4.546
35748SOL    HW1 9141   5.294   6.592   4.467
35748SOL    HW2 9142   5.435   6.590   4.522
35749SOL     OW 9143   0.611   1.854   9.781
35749SOL    HW1 9144   0.684   1.803   9.816
35749SOL    HW2 9145   0.566   1.888   9.858
35750SOL     OW 9146   8.100   7.346   9.306
35750SOL    HW1 9147   8.052   7.295   9.372
35750SOL    HW2 9148   8.181   7.297   9.291
35751SOL     OW 9149  10.919   3.740   3.175
35751SOL    HW1 9150  10.953   3.683   3.105
35751SOL    HW2 9151  10.952   3.701   3.256
35752SOL     OW 9152   2.507   1.301   4.806
35752SOL    HW1 9153   2.464   1.326   4.724
35752SOL    HW2 9154   2.493   1.206   4.813
35753SOL     OW 9155   4.807   1.771  12.689
35753SOL    HW1 9156   4.723   1.726  12.683
35753SOL    HW2 9157   4.824   1.801  12.600
35754SOL     OW 9158   0.327   5.313   8.491
35754SOL    HW1 9159   0.335   5.347   8.402
35754SOL    HW2 9160   0.272   5.235   8.482
35755SOL     OW 9161   1.357  10.845  13.329
35755SOL    HW1 9162   1.309  10.762  13.335
35755SOL    HW2 9163   1.342  10.875  13.239
35756SOL     OW 9164   0.620   9.271  14.108
35756SOL    HW1 9165   0.549   9.255  14.047
35756SOL    HW2 9166   0.698   9.240  14.063
35757SOL     OW 9167   0.972  14.824   2.782
35757SOL    HW1 9168   0.983  14.799   2.873
35757SOL    HW2 9169   0.934   0.029   2.785
35758SOL     OW 9170   8.721   3.747  10.278
35758SOL    HW1 9171   8.764   3.661  10.267
35758SOL    HW2 9172   8.698   3.750  10.371
35759SOL     OW 9173   7.015  10.276  11.131
35759SOL    HW1 9174   7.049  10.366  11.134
35759SOL    HW2 9175   7.094  10.221  11.128
35760SOL     OW 9176   4.266  14.286   6.495
35760SOL    HW1 9177   4.211  14.325   6.563
35760SOL    HW2 9178   4.261  14.192   6.511
35761SOL     OW 9179   7.531   8.169   4.808
35761SOL    HW1 9180   7.607   8.225   4.795
35761SOL    HW2 9181   7.551   8.119   4.887
35762SOL     OW 9182   7.395   1.226  14.081
35762SOL    HW1 9183   7.365   1.186  14.000
35762SOL    HW2 9184   7.444   1.303  14.052
35763SOL     OW 9185   6.256   3.954   6.285
35763SOL    HW1 9186   6.217   3.881   6.236
35763SOL    HW2 9187   6.196   3.968   6.358
35764SOL     OW 9188   3.268   5.095   8.158
35764SOL    HW1 9189   3.182   5.137   8.157
35764SOL    HW2 9190   3.279   5.059   8.070
35765SOL     OW 9191   4.373  13.199   2.449
35765SOL    HW1 9192   4.287  13.241   2.456
35765SOL    HW2 9193   4.386  13.187   2.355
35766SOL     OW 9194   4.501   8.835   1.217
35766SOL    HW1 9195   4.581   8.794   1.185
35766SOL    HW2 9196   4.449   8.763   1.252
35767SOL     OW 9197  13.808  13.592   1.619
35767SOL    HW1 9198  13.809  13.686   1.603
35767SOL    HW2 9199  13.871  13.556   1.556
35768SOL     OW 9200  13.294   2.593   8.845
35768SOL    HW1 9201  13.199   2.589   8.832
35768SOL    HW2 9202  13.317   2.509   8.884
35769SOL     OW 9203   4.892  12.981   6.529
35769SOL    HW1 9204   4.921  12.997   6.618
35769SOL    HW2 9205   4.960  12.925   6.491
35770SOL     OW 9206   9.037   4.736   5.566
35770SOL    HW1 9207   9.062   4.726   5.658
35770SOL    HW2 9208   9.120   4.736   5.519
35771SOL     OW 9209  14.460   8.880   6.605
35771SOL    HW1 9210  14.448   8.944   6.675
35771SOL    HW2 9211  14.382   8.824   6.610
35772SOL     OW 9212   7.521   6.844   4.325
35772SOL    HW1 9213   7.584   6.876   4.260
35772SOL    HW2 9214   7.515   6.750   4.307
35773SOL     OW 9215   9.087   1.653   4.671
35773SOL    HW1 9216   9.164   1.608   4.637
35773SOL    HW2 9217   9.027   1.659   4.597
35774SOL     OW 9218  11.312   0.111  13.658
35774SOL    HW1 9219  11.268   0.172  13.599
35774SOL    HW2 9220  11.354   0.047  13.600
35775SOL     OW 9221  13.240  10.793   2.918
35775SOL    HW1 9222  13.230  10.887   2.934
35775SOL    HW2 9223  13.150  10.761   2.909
35776SOL     OW 9224   4.667   3.786  12.991
35776SOL    HW1 9225   4.696   3.824  12.908
35776SOL    HW2 9226   4.711   3.839  13.058
35777SOL     OW 9227   9.443  14.718   2.932
35777SOL    HW1 9228   9.455  14.623   2.931
35777SOL    HW2 9229   9.429  14.739   3.024
35778SOL     OW 9230  11.792  12.518  11.456
35778SOL    HW1 9231  11.820  12.571  11.381
35778SOL    HW2 9232  11.819  12.429  11.435
35779SOL     OW 9233  11.758   9.069   8.816
35779SOL    HW1 9234  11.674   9.066   8.771
35779SOL    HW2 9235  11.762   9.158   8.852
35780SOL     OW 9236   6.971  13.667  13.837
35780SOL    HW1 9237   6.883  13.702  13.848
35780SOL    HW2 9238   7.029  13.737  13.868
35781SOL     OW 9239  10.178   4.189   7.302
35781SOL    HW1 9240  10.118   4.166   7.230
35781SOL    HW2 9241  10.123   4.237   7.364
35782SOL     OW 9242  12.338   5.472   6.639
35782SOL    HW1 9243  12.372   5.493   6.726
35782SOL    HW2 9244  12.395   5.402   6.607
35783SOL     OW 9245  14.333  10.857   1.986
35783SOL    HW1 9246  14.349  10.767   2.015
35783SOL    HW2 9247  14.329  10.908   2.067
35784SOL     OW 9248   0.594   1.098   9.885
35784SOL    HW1 9249   0.534   1.140   9.822
35784SOL    HW2 9250   0.674   1.083   9.835
35785SOL     OW 9251  11.466   3.831   9.395
35785SOL    HW1 9252  11.539   3.778   9.429
35785SOL    HW2 9253  11.438   3.884   9.469
35786SOL     OW 9254  13.521  14.003  13.843
35786SOL    HW1 9255  13.562  14.012  13.929
35786SOL    HW2 9256  13.506  14.093  13.814
35787SOL     OW 9257   1.155  13.839   1.073
35787SOL    HW1 9258   1.074  13.890   1.070
35787SOL    HW2 9259   1.138  13.763   1.018
35788SOL     OW 9260   0.399   5.988   6.373
35788SOL    HW1 9261   0.376   5.897   6.393
35788SOL    HW2 9262   0.317   6.029   6.347
35789SOL     OW 9263  12.350   6.890   1.659
35789SOL    HW1 9264  12.317   6.908   1.571
35789SOL    HW2 9265  12.388   6.802   1.652
35790SOL     OW 9266   1.664  12.943   3.761
35790SOL    HW1 9267   1.702  13.030   3.772
35790SOL    HW2 9268   1.604  12.953   3.687
35791SOL     OW 9269   6.786  10.842   7.924
35791SOL    HW1 9270   6.823  10.796   7.999
35791SOL    HW2 9271   6.759  10.773   7.863
35792SOL     OW 9272  12.588   5.890   5.589
35792SOL    HW1 9273  12.514   5.949   5.580
35792SOL    HW2 9274  12.616   5.900   5.680
35793SOL     OW 9275   7.978  14.088   0.334
35793SOL    HW1 9276   8.048  14.131   0.382
35793SOL    HW2 9277   7.947  14.018   0.392
35794SOL     OW 9278   3.967   1.268  13.425
35794SOL    HW1 9279   3.961   1.329  13.350
35794SOL    HW2 9280   4.032   1.203  13.398
35795SOL     OW 9281   1.888  12.953   8.734
35795SOL    HW1 9282   1.943  12.899   8.791
35795SOL    HW2 9283   1.819  12.986   8.792
35796SOL     OW 9284   6.853   4.208   1.614
35796SOL    HW1 9285   6.915   4.277   1.591
35796SOL    HW2 9286   6.893   4.127   1.581
35797SOL     OW 9287   8.088  14.190  12.530
35797SOL    HW1 9288   8.166  14.230  12.568
35797SOL    HW2 9289   8.047  14.260  12.479
35798SOL     OW 9290   9.117   0.979   3.860
35798SOL    HW1 9291   9.027   0.950   3.849
35798SOL    HW2 9292   9.112   1.053   3.920
35799SOL     OW 9293   5.442   2.484   3.961
35799SOL    HW1 9294   5.495   2.468   3.883
35799SOL    HW2 9295   5.351   2.480   3.929
35800SOL     OW 9296   8.679   4.217  10.900
35800SOL    HW1 9297   8.663   4.128  10.931
35800SOL    HW2 9298   8.610   4.232  10.835
35801SOL     OW 9299   0.113  11.357   2.234
35801SOL    HW1 9300   0.059  11.422   2.279
35801SOL    HW2 9301   0.063  11.276   2.241
35802SOL     OW 9302   0.254   7.250   2.283
35802SOL    HW1 9303   0.325   7.293   2.235
35802SOL    HW2 9304   0.201   7.208   2.216
35803SOL     OW 9305   8.784   2.123   9.885
35803SOL    HW1 9306   8.701   2.132   9.839
35803SOL    HW2 9307   8.787   2.199   9.944
35804SOL     OW 9308   1.502   6.364   7.290
35804SOL    HW1 9309   1.511   6.426   7.218
35804SOL    HW2 9310   1.411   6.335   7.285
35805SOL     OW 9311   9.293   2.812  12.361
35805SOL    HW1 9312   9.210   2.771  12.338
35805SOL    HW2 9313   9.276   2.856  12.444
35806SOL     OW 9314   6.589   4.913  14.849
35806SOL    HW1 9315   6.648   4.982  14.822
35806SOL    HW2 9316   6.511   4.959  14.880
35807SOL     OW 9317   3.130   5.276   3.533
35807SOL    HW1 9318   3.220   5.275   3.567
35807SOL    HW2 9319   3.118   5.365   3.501
35808SOL     OW 9320  14.832   6.664   8.381
35808SOL    HW1 9321  14.760   6.678   8.319
35808SOL    HW2 9322  14.796   6.691   8.466
35809SOL     OW 9323   0.846  13.610   7.832
35809SOL    HW1 9324   0.768  13.595   7.886
35809SOL    HW2 9325   0.901  13.533   7.847
35810SOL     OW 9326   9.494   0.203   7.210
35810SOL    HW1 9327   9.500   0.297   7.228
35810SOL    HW2 9328   9.414   0.175   7.255
35811SOL     OW 9329   5.109   9.669  11.718
35811SOL    HW1 9330   5.074   9.757  11.725
35811SOL    HW2 9331   5.092   9.643  11.627
35812SOL     OW 9332   5.984   5.658   1.168
35812SOL    HW1 9333   6.054   5.722   1.173
35812SOL    HW2 9334   5.999   5.612   1.085
35813SOL     OW 9335   7.573  12.104   6.271
35813SOL    HW1 9336   7.661  12.140   6.284
35813SOL    HW2 9337   7.522  12.178   6.238
35814SOL     OW 9338   8.891   1.520   9.606
35814SOL    HW1 9339   8.959   1.537   9.671
35814SOL    HW2 9340   8.910   1.432   9.574
35815SOL     OW 9341   8.050   2.983  11.449
35815SOL    HW1 9342   8.115   2.930  11.497
35815SOL    HW2 9343   8.003   2.919  11.395
35816SOL     OW 9344   4.414   4.835   7.499
35816SOL    HW1 9345   4.394   4.770   7.432
35816SOL    HW2 9346   4.441   4.913   7.450
35817SOL     OW 9347   3.379  12.318  12.523
35817SOL    HW1 9348   3.366  12.225  12.505
35817SOL    HW2 9349   3.474  12.330  12.525
35818SOL     OW 9350   2.806  10.106  14.643
35818SOL    HW1 9351   2.759  10.024  14.627
35818SOL    HW2 9352   2.766  10.142  14.722
35819SOL     OW 9353   9.414  10.643   2.669
35819SOL    HW1 9354   9.502  10.679   2.680
35819SOL    HW2 9355   9.388  10.673   2.582
35820SOL     OW 9356   1.074  11.966  10.737
35820SOL    HW1 9357   1.159  11.922  10.731
35820SOL    HW2 9358   1.033  11.951  10.652
35821SOL     OW 9359  14.626  12.795  11.680
35821SOL    HW1 9360  14.546  12.763  11.640
35821SOL    HW2 9361  14.696  12.762  11.623
35822SOL     OW 9362   9.282  11.717  11.878
35822SOL    HW1 9363   9.250  11.633  11.911
35822SOL    HW2 9364   9.362  11.696  11.830
35823SOL     OW 9365  11.112   7.399  11.542
35823SOL    HW1 9366  11.101   7.305  11.554
35823SOL    HW2 9367  11.052   7.438  11.606
35824SOL     OW 9368  13.179  13.616   1.097
35824SOL    HW1 9369  13.218  13.653   1.176
35824SOL    HW2 9370  13.249  13.618   1.032
35825SOL     OW 9371   6.611  10.903   1.865
35825SOL    HW1 9372   6.561  10.984   1.859
35825SOL    HW2 9373   6.553  10.836   1.829
35826SOL     OW 9374  12.830   2.429   4.006
35826SOL    HW1 9375  12.751   2.422   3.952
35826SOL    HW2 9376  12.817   2.367   4.077
35827SOL     OW 9377   0.354   6.910   3.867
35827SOL    HW1 9378   0.396   6.995   3.881
35827SOL    HW2 9379   0.385   6.882   3.781
35828SOL     OW 9380  10.845   7.082   6.697
35828SOL    HW1 9381  10.939   7.073   6.712
35828SOL    HW2 9382  10.813   6.993   6.685
35829SOL     OW 9383  13.568   8.206   7.237
35829SOL    HW1 9384  13.601   8.289   7.273
35829SOL    HW2 9385  13.647   8.155   7.219
35830SOL     OW 9386   2.491   8.867   6.547
35830SOL    HW1 9387   2.454   8.924   6.616
35830SOL    HW2 9388   2.417   8.812   6.521
35831SOL     OW 9389  12.487   7.577  10.943
35831SOL    HW1 9390  12.517   7.625  11.020
35831SOL    HW2 9391  12.398   7.549  10.965
35832SOL     OW 9392   2.966  11.190   9.455
35832SOL    HW1 9393   2.888  11.224   9.411
35832SOL    HW2 9394   2.995  11.117   9.400
35833SOL     OW 9395   6.239  10.978   6.157
35833SOL    HW1 9396   6.330  10.988   6.130
35833SOL    HW2 9397   6.202  10.916   6.094
35834SOL     OW 9398   1.700   6.301   2.532
35834SOL    HW1 9399   1.654   6.366   2.586
35834SOL    HW2 9400   1.686   6.331   2.442
35835SOL     OW 9401   4.910   9.887  12.465
35835SOL    HW1 9402   4.817   9.868  12.476
35835SOL    HW2 9403   4.953   9.803  12.476
35836SOL     OW 9404  13.498  14.501  14.723
35836SOL    HW1 9405  13.567  14.534  14.667
35836SOL    HW2 9406  13.419  14.547  14.694
35837SOL     OW 9407   0.977   7.055  10.994
35837SOL    HW1 9408   0.980   7.116  10.920
35837SOL    HW2 9409   1.014   7.105  11.067
35838SOL     OW 9410   7.151   5.677  12.121
35838SOL    HW1 9411   7.157   5.588  12.087
35838SOL    HW2 9412   7.188   5.732  12.051
35839SOL     OW 9413  13.131   3.526   0.210
35839SOL    HW1 9414  13.130   3.617   0.178
35839SOL    HW2 9415  13.143   3.535   0.305
35840SOL     OW 9416   5.382   0.422   3.363
35840SOL    HW1 9417   5.385   0.414   3.267
35840SOL    HW2 9418   5.289   0.419   3.384
35841SOL     OW 9419   1.527   3.850   7.099
35841SOL    HW1 9420   1.598   3.830   7.038
35841SOL    HW2 9421   1.569   3.902   7.168
35842SOL     OW 9422   2.020   6.927  10.975
35842SOL    HW1 9423   1.954   6.996  10.987
35842SOL    HW2 9424   1.970   6.846  10.978
35843SOL     OW 9425   2.135   3.145   4.893
35843SOL    HW1 9426   2.100   3.218   4.842
35843SOL    HW2 9427   2.176   3.088   4.829
35844SOL     OW 9428  12.646   5.191   0.099
35844SOL    HW1 9429  12.584   5.200   0.026
35844SOL    HW2 9430  12.650   5.279   0.138
35845SOL     OW 9431   5.634   5.391   5.445
35845SOL    HW1 9432   5.631   5.302   5.412
35845SOL    HW2 9433   5.718   5.426   5.414
35846SOL     OW 9434   3.913  10.068  11.035
35846SOL    HW1 9435   3.904  10.013  10.957
35846SOL    HW2 9436   3.944  10.008  11.103
35847SOL     OW 9437   7.078   2.803  13.556
35847SOL    HW1 9438   7.172   2.815  13.543
35847SOL    HW2 9439   7.058   2.856  13.633
35848SOL     OW 9440   8.505   7.011   8.903
35848SOL    HW1 9441   8.563   7.022   8.978
35848SOL    HW2 9442   8.563   7.018   8.827
35849SOL     OW 9443   3.264  10.673  10.039
35849SOL    HW1 9444   3.177  10.713  10.038
35849SOL    HW2 9445   3.247  10.579  10.043
35850SOL     OW 9446   2.246  12.601   8.954
35850SOL    HW1 9447   2.236  12.506   8.956
35850SOL    HW2 9448   2.314  12.617   8.888
35851SOL     OW 9449   7.385   1.425  14.587
35851SOL    HW1 9450   7.399   1.341  14.544
35851SOL    HW2 9451   7.294   1.422  14.615
35852SOL     OW 9452   1.423   7.314   9.680
35852SOL    HW1 9453   1.518   7.309   9.676
35852SOL    HW2 9454   1.403   7.407   9.684
35853SOL     OW 9455   7.490  10.913   5.343
35853SOL    HW1 9456   7.397  10.914   5.366
35853SOL    HW2 9457   7.511  11.004   5.325
35854SOL     OW 9458   5.025  10.018   3.552
35854SOL    HW1 9459   5.065  10.096   3.516
35854SOL    HW2 9460   5.043  10.023   3.646
35855SOL     OW 9461   1.417   7.867   4.274
35855SOL    HW1 9462   1.452   7.838   4.189
35855SOL    HW2 9463   1.323   7.853   4.268
35856SOL     OW 9464  13.890  11.699   0.213
35856SOL    HW1 9465  13.844  11.776   0.246
35856SOL    HW2 9466  13.821  11.636   0.195
35857SOL     OW 9467   9.190   8.389  10.215
35857SOL    HW1 9468   9.239   8.430  10.144
35857SOL    HW2 9469   9.099   8.392  10.187
35858SOL     OW 9470   2.165  13.408   7.216
35858SOL    HW1 9471   2.087  13.462   7.209
35858SOL    HW2 9472   2.196  13.422   7.306
35859SOL     OW 9473   5.621   8.420   9.213
35859SOL    HW1 9474   5.662   8.388   9.132
35859SOL    HW2 9475   5.671   8.378   9.283
35860SOL     OW 9476  10.590   4.212   6.717
35860SOL    HW1 9477  10.682   4.189   6.728
35860SOL    HW2 9478  10.590   4.281   6.651
35861SOL     OW 9479   4.903   6.986   3.662
35861SOL    HW1 9480   4.945   7.044   3.726
35861SOL    HW2 9481   4.846   6.930   3.715
35862SOL     OW 9482   4.683  10.155  11.528
35862SOL    HW1 9483   4.735  10.228  11.562
35862SOL    HW2 9484   4.693  10.160  11.433
35863SOL     OW 9485   0.376   6.169  13.997
35863SOL    HW1 9486   0.422   6.085  14.005
35863SOL    HW2 9487   0.363   6.180  13.903
35864SOL     OW 9488  14.830   0.196  11.141
35864SOL    HW1 9489  14.817   0.289  11.159
35864SOL    HW2 9490   0.032   0.192  11.095
35865SOL     OW 9491   7.813   3.989   0.497
35865SOL    HW1 9492   7.866   4.052   0.546
35865SOL    HW2 9493   7.724   4.024   0.501
35866SOL     OW 9494  11.132   8.323  14.575
35866SOL    HW1 9495  11.215   8.308  14.529
35866SOL    HW2 9496  11.066   8.321  14.506
35867SOL     OW 9497   0.535  11.794   9.134
35867SOL    HW1 9498   0.528  11.700   9.150
35867SOL    HW2 9499   0.549  11.801   9.040
35868SOL     OW 9500   9.015   6.035   9.451
35868SOL    HW1 9501   8.950   6.102   9.432
35868SOL    HW2 9502   9.046   6.056   9.539
35869SOL     OW 9503   2.745   6.113   2.930
35869SOL    HW1 9504   2.751   6.131   3.024
35869SOL    HW2 9505   2.833   6.130   2.896
35870SOL     OW 9506   0.186   4.703  10.686
35870SOL    HW1 9507   0.269   4.717  10.732
35870SOL    HW2 9508   0.159   4.615  10.712
35871SOL     OW 9509  11.298   2.132  11.688
35871SOL    HW1 9510  11.246   2.053  11.673
35871SOL    HW2 9511  11.315   2.166  11.601
35872SOL     OW 9512  10.516  10.950   5.009
35872SOL    HW1 9513  10.455  10.941   4.936
35872SOL    HW2 9514  10.462  10.981   5.082
35873SOL     OW 9515   4.126   7.093  14.219
35873SOL    HW1 9516   4.119   7.188  14.216
35873SOL    HW2 9517   4.056   7.062  14.162
35874SOL     OW 9518   2.824  13.918   8.953
35874SOL    HW1 9519   2.911  13.898   8.986
35874SOL    HW2 9520   2.839  13.982   8.883
35875SOL     OW 9521  11.363  13.537   3.007
35875SOL    HW1 9522  11.446  13.493   2.986
35875SOL    HW2 9523  11.382  13.630   2.996
35876SOL     OW 9524   9.490  12.114   9.378
35876SOL    HW1 9525   9.502  12.040   9.438
35876SOL    HW2 9526   9.426  12.170   9.421
35877SOL     OW 9527  14.140   1.541   0.924
35877SOL    HW1 9528  14.191   1.512   0.999
35877SOL    HW2 9529  14.049   1.531   0.951
35878SOL     OW 9530   4.992   1.839   5.314
35878SOL    HW1 9531   5.042   1.920   5.322
35878SOL    HW2 9532   4.918   1.862   5.259
35879SOL     OW 9533  14.579   3.512   3.657
35879SOL    HW1 9534  14.519   3.464   3.714
35879SOL    HW2 9535  14.650   3.450   3.641
35880SOL     OW 9536   7.708   4.243  14.144
35880SOL    HW1 9537   7.652   4.196  14.081
35880SOL    HW2 9538   7.715   4.331  14.109
35881SOL     OW 9539   6.227   3.932   3.034
35881SOL    HW1 9540   6.164   3.863   3.012
35881SOL    HW2 9541   6.312   3.895   3.011
35882SOL     OW 9542   4.166   6.515   1.289
35882SOL    HW1 9543   4.143   6.566   1.211
35882SOL    HW2 9544   4.144   6.425   1.266
35883SOL     OW 9545   8.267  10.291  11.125
35883SOL    HW1 9546   8.320  10.213  11.137
35883SOL    HW2 9547   8.225  10.279  11.040
35884SOL     OW 9548  10.606  13.448  14.673
35884SOL    HW1 9549  10.587  13.509  14.601
35884SOL    HW2 9550  10.548  13.476  14.744
35885SOL     OW 9551   9.640   4.782   0.126
35885SOL    HW1 9552   9.652   4.856   0.066
35885SOL    HW2 9553   9.566   4.734   0.089
35886SOL     OW 9554   5.414  12.372  11.177
35886SOL    HW1 9555   5.474  12.298  11.167
35886SOL    HW2 9556   5.423  12.397  11.269
35887SOL     OW 9557  13.926   2.698   7.813
35887SOL    HW1 9558  13.914   2.668   7.903
35887SOL    HW2 9559  13.850   2.662   7.765
35888SOL     OW 9560   9.709   6.999   5.417
35888SOL    HW1 9561   9.745   6.916   5.385
35888SOL    HW2 9562   9.682   7.045   5.337
35889SOL     OW 9563  13.936   8.883   3.751
35889SOL    HW1 9564  13.979   8.968   3.744
35889SOL    HW2 9565  13.872   8.894   3.822
35890SOL     OW 9566   4.280   2.253   5.411
35890SOL    HW1 9567   4.251   2.338   5.380
35890SOL    HW2 9568   4.200   2.211   5.444
35891SOL     OW 9569   8.658  13.253   1.412
35891SOL    HW1 9570   8.573  13.269   1.454
35891SOL    HW2 9571   8.722  13.285   1.475
35892SOL     OW 9572   8.583  14.603   1.790
35892SOL    HW1 9573   8.498  14.614   1.831
35892SOL    HW2 9574   8.574  14.524   1.736
35893SOL     OW 9575   5.382   7.574   0.667
35893SOL    HW1 9576   5.342   7.599   0.750
35893SOL    HW2 9577   5.467   7.537   0.691
35894SOL     OW 9578  12.251  13.480  14.106
35894SOL    HW1 9579  12.158  13.464  14.122
35894SOL    HW2 9580  12.296  13.440  14.180
35895SOL     OW 9581   2.889   9.097  13.290
35895SOL    HW1 9582   2.813   9.146  13.323
35895SOL    HW2 9583   2.956   9.109  13.357
35896SOL     OW 9584   0.699   4.867   8.735
35896SOL    HW1 9585   0.718   4.832   8.648
35896SOL    HW2 9586   0.681   4.959   8.721
35897SOL     OW 9587  14.056  12.674   2.709
35897SOL    HW1 9588  14.034  12.629   2.790
35897SOL    HW2 9589  14.079  12.763   2.736
35898SOL     OW 9590   4.146   9.229  13.280
35898SOL    HW1 9591   4.163   9.295  13.347
35898SOL    HW2 9592   4.230   9.184  13.269
35899SOL     OW 9593   1.516   1.150   2.003
35899SOL    HW1 9594   1.577   1.161   2.076
35899SOL    HW2 9595   1.560   1.090   1.944
35900SOL     OW 9596  11.725   2.501  14.571
35900SOL    HW1 9597  11.816   2.530  14.575
35900SOL    HW2 9598  11.688   2.526  14.655
35901SOL     OW 9599  10.751   1.743   1.582
35901SOL    HW1 9600  10.773   1.740   1.489
35901SOL    HW2 9601  10.754   1.652   1.610
35902SOL     OW 9602   4.978   4.506   0.598
35902SOL    HW1 9603   4.942   4.436   0.653
35902SOL    HW2 9604   4.938   4.586   0.631
35903SOL     OW 9605   1.649   7.907  10.776
35903SOL    HW1 9606   1.601   7.986  10.752
35903SOL    HW2 9607   1.714   7.936  10.840
35904SOL     OW 9608   4.471   5.123  11.474
35904SOL    HW1 9609   4.383   5.099  11.503
35904SOL    HW2 9610   4.526   5.115  11.552
35905SOL     OW 9611  10.680   8.057   0.858
35905SOL    HW1 9612  10.732   8.080   0.936
35905SOL    HW2 9613  10.652   8.141   0.823
35906SOL     OW 9614  10.035   4.126  10.324
35906SOL    HW1 9615  10.058   4.162  10.239
35906SOL    HW2 9616   9.970   4.187  10.360
35907SOL     OW 9617   9.296   1.730   0.328
35907SOL    HW1 9618   9.223   1.694   0.278
35907SOL    HW2 9619   9.326   1.658   0.383
35908SOL     OW 9620  12.992   2.967  10.449
35908SOL    HW1 9621  12.909   3.004  10.418
35908SOL    HW2 9622  12.979   2.952  10.542
35909SOL     OW 9623   8.923   7.855   1.465
35909SOL    HW1 9624   8.980   7.810   1.403
35909SOL    HW2 9625   8.973   7.856   1.547
35910SOL     OW 9626  10.481   9.628  12.673
35910SOL    HW1 9627  10.417   9.569  12.634
35910SOL    HW2 9628  10.529   9.663  12.599
35911SOL     OW 9629  12.458   4.254   0.448
35911SOL    HW1 9630  12.481   4.346   0.433
35911SOL    HW2 9631  12.439   4.249   0.542
35912SOL     OW 9632  13.837   6.880  12.289
35912SOL    HW1 9633  13.849   6.812  12.355
35912SOL    HW2 9634  13.907   6.864  12.225
35913SOL     OW 9635  10.854  14.220   4.778
35913SOL    HW1 9636  10.932  14.204   4.726
35913SOL    HW2 9637  10.830  14.134   4.813
35914SOL     OW 9638  12.154  11.866  11.554
35914SOL    HW1 9639  12.085  11.806  11.525
35914SOL    HW2 9640  12.203  11.816  11.619
35915SOL     OW 9641   1.832   9.968   8.583
35915SOL    HW1 9642   1.838  10.061   8.605
35915SOL    HW2 9643   1.753   9.961   8.530
35916SOL     OW 9644   1.562  10.819   0.926
35916SOL    HW1 9645   1.628  10.826   0.856
35916SOL    HW2 9646   1.479  10.832   0.881
35917SOL     OW 9647   9.658   7.545  10.462
35917SOL    HW1 9648   9.621   7.633  10.470
35917SOL    HW2 9649   9.602   7.502  10.397
35918SOL     OW 9650  12.373  12.643   5.973
35918SOL    HW1 9651  12.340  12.713   6.028
35918SOL    HW2 9652  12.448  12.681   5.927
35919SOL     OW 9653  14.785   1.405  11.756
35919SOL    HW1 9654  14.799   1.376  11.666
35919SOL    HW2 9655  14.775   1.325  11.806
35920SOL     OW 9656   2.564   9.263   8.980
35920SOL    HW1 9657   2.516   9.181   8.993
35920SOL    HW2 9658   2.548   9.286   8.889
35921SOL     OW 9659  12.952   1.034   4.616
35921SOL    HW1 9660  12.888   1.032   4.687
35921SOL    HW2 9661  13.015   0.965   4.639
35922SOL     OW 9662   4.215   6.515  13.152
35922SOL    HW1 9663   4.309   6.498  13.150
35922SOL    HW2 9664   4.204   6.591  13.095
35923SOL     OW 9665  12.944   5.594   0.777
35923SOL    HW1 9666  12.887   5.662   0.815
35923SOL    HW2 9667  12.982   5.550   0.853
35924SOL     OW 9668  11.202   2.489   8.859
35924SOL    HW1 9669  11.115   2.484   8.819
35924SOL    HW2 9670  11.187   2.460   8.950
35925SOL     OW 9671   6.006   2.694   0.199
35925SOL    HW1 9672   5.926   2.696   0.251
35925SOL    HW2 9673   5.983   2.643   0.122
35926SOL     OW 9674   9.415  11.034   5.053
35926SOL    HW1 9675   9.454  11.119   5.035
35926SOL    HW2 9676   9.431  10.982   4.974
35927SOL     OW 9677   6.831  14.589  13.506
35927SOL    HW1 9678   6.841  14.609  13.599
35927SOL    HW2 9679   6.894  14.519  13.489
35928SOL     OW 9680  10.521   3.222  11.515
35928SOL    HW1 9681  10.524   3.297  11.575
35928SOL    HW2 9682  10.479   3.153  11.566
35929SOL     OW 9683   6.111   4.540   1.826
35929SOL    HW1 9684   6.189   4.588   1.798
35929SOL    HW2 9685   6.073   4.596   1.894
35930SOL     OW 9686   7.787   8.802   4.683
35930SOL    HW1 9687   7.752   8.885   4.652
35930SOL    HW2 9688   7.780   8.806   4.778
35931SOL     OW 9689   9.473   8.633   5.930
35931SOL    HW1 9690   9.552   8.664   5.885
35931SOL    HW2 9691   9.489   8.540   5.944
35932SOL     OW 9692   7.156  11.685  12.813
35932SOL    HW1 9693   7.126  11.594  12.812
35932SOL    HW2 9694   7.214  11.690  12.888
35933SOL     OW 9695  12.604   0.857  13.467
35933SOL    HW1 9696  12.608   0.763  13.451
35933SOL    HW2 9697  12.550   0.866  13.545
35934SOL     OW 9698  13.710   0.211   2.492
35934SOL    HW1 9699  13.804   0.196   2.489
35934SOL    HW2 9700  13.673   0.142   2.436
35935SOL     OW 9701   8.655   5.511   6.910
35935SOL    HW1 9702   8.580   5.490   6.966
35935SOL    HW2 9703   8.643   5.455   6.833
35936SOL     OW 9704  13.482   6.262   6.255
35936SOL    HW1 9705  13.480   6.265   6.350
35936SOL    HW2 9706  13.572   6.287   6.231
35937SOL     OW 9707  10.093  13.156   1.039
35937SOL    HW1 9708  10.060  13.241   1.010
35937SOL    HW2 9709  10.124  13.114   0.959
35938SOL     OW 9710   5.729   2.739   1.644
35938SOL    HW1 9711   5.661   2.694   1.695
35938SOL    HW2 9712   5.685   2.761   1.561
35939SOL     OW 9713   5.208   1.022   3.079
35939SOL    HW1 9714   5.208   1.114   3.105
35939SOL    HW2 9715   5.200   1.024   2.983
35940SOL     OW 9716   2.886  14.307  13.324
35940SOL    HW1 9717   2.853  14.283  13.410
35940SOL    HW2 9718   2.933  14.390  13.337
35941SOL     OW 9719  12.694   7.290   1.753
35941SOL    HW1 9720  12.721   7.200   1.768
35941SOL    HW2 9721  12.750   7.321   1.682
35942SOL     OW 9722   3.106   2.842   2.370
35942SOL    HW1 9723   3.012   2.854   2.365
35942SOL    HW2 9724   3.119   2.784   2.445
35943SOL     OW 9725   2.083  12.272  14.232
35943SOL    HW1 9726   2.085  12.342  14.297
35943SOL    HW2 9727   2.169  12.276  14.191
35944SOL     OW 9728   0.097  13.057   6.623
35944SOL    HW1 9729   0.178  13.092   6.587
35944SOL    HW2 9730   0.085  13.103   6.706
35945SOL     OW 9731   2.185  12.650  12.236
35945SOL    HW1 9732   2.223  12.562  12.242
35945SOL    HW2 9733   2.174  12.678  12.327
35946SOL     OW 9734   9.155   4.841   7.703
35946SOL    HW1 9735   9.077   4.812   7.749
35946SOL    HW2 9736   9.123   4.874   7.619
35947SOL     OW 9737  12.726   0.347  14.500
35947SOL    HW1 9738  12.687   0.271  14.457
35947SOL    HW2 9739  12.693   0.343  14.590
35948SOL     OW 9740   1.314   3.049   3.376
35948SOL    HW1 9741   1.260   2.985   3.330
35948SOL    HW2 9742   1.291   3.133   3.336
35949SOL     OW 9743   9.665  11.052  14.130
35949SOL    HW1 9744   9.736  11.079  14.072
35949SOL    HW2 9745   9.607  11.000  14.075
35950SOL     OW 9746   0.699   2.163   6.521
35950SOL    HW1 9747   0.662   2.113   6.448
35950SOL    HW2 9748   0.636   2.234   6.535
35951SOL     OW 9749  13.323   6.472   8.192
35951SOL    HW1 9750  13.252   6.412   8.169
35951SOL    HW2 9751  13.395   6.414   8.218
35952SOL     OW 9752   5.428   3.744   4.587
35952SOL    HW1 9753   5.520   3.742   4.562
35952SOL    HW2 9754   5.408   3.837   4.597
35953SOL     OW 9755   0.399   5.953   0.516
35953SOL    HW1 9756   0.406   6.046   0.493
35953SOL    HW2 9757   0.352   5.913   0.443
35954SOL     OW 9758   3.316  13.838   3.160
35954SOL    HW1 9759   3.221  13.836   3.149
35954SOL    HW2 9760   3.343  13.919   3.116
35955SOL     OW 9761  12.008  14.628  11.783
35955SOL    HW1 9762  11.913  14.624  11.779
35955SOL    HW2 9763  12.031  14.586  11.865
35956SOL     OW 9764  11.634   5.689  12.185
35956SOL    HW1 9765  11.544   5.682  12.153
35956SOL    HW2 9766  11.625   5.716  12.276
35957SOL     OW 9767   2.385   0.342  13.984
35957SOL    HW1 9768   2.351   0.255  14.005
35957SOL    HW2 9769   2.407   0.338  13.891
35958SOL     OW 9770   1.421   9.368  13.063
35958SOL    HW1 9771   1.335   9.325  13.071
35958SOL    HW2 9772   1.440   9.367  12.969
35959SOL     OW 9773   0.437   6.653  13.523
35959SOL    HW1 9774   0.411   6.562  13.504
35959SOL    HW2 9775   0.368   6.686  13.581
35960SOL     OW 9776   3.435   2.874   6.329
35960SOL    HW1 9777   3.355   2.927   6.333
35960SOL    HW2 9778   3.432   2.819   6.407
35961SOL     OW 9779   6.974   3.188  10.999
35961SOL    HW1 9780   7.025   3.268  11.012
35961SOL    HW2 9781   6.891   3.204  11.044
35962SOL     OW 9782   2.830   6.504  13.124
35962SOL    HW1 9783   2.832   6.599  13.128
35962SOL    HW2 9784   2.867   6.475  13.208
35963SOL     OW 9785  12.749  10.240  14.574
35963SOL    HW1 9786  12.784  10.328  14.582
35963SOL    HW2 9787  12.659  10.252  14.542
35964SOL     OW 9788  11.240   7.303   8.686
35964SOL    HW1 9789  11.313   7.324   8.744
35964SOL    HW2 9790  11.165   7.350   8.724
35965SOL     OW 9791   4.617  14.662   7.012
35965SOL    HW1 9792   4.597  14.752   6.988
35965SOL    HW2 9793   4.649  14.621   6.932
35966SOL     OW 9794   1.121   5.270  13.910
35966SOL    HW1 9795   1.082   5.184  13.896
35966SOL    HW2 9796   1.047   5.331  13.911
35967SOL     OW 9797   3.832  12.258  10.337
35967SOL    HW1 9798   3.769  12.193  10.307
35967SOL    HW2 9799   3.916  12.228  10.303
35968SOL     OW 9800   8.367  12.464   7.172
35968SOL    HW1 9801   8.451  12.452   7.217
35968SOL    HW2 9802   8.389  12.502   7.088
35969SOL     OW 9803  11.981   6.261   4.312
35969SOL    HW1 9804  11.942   6.246   4.226
35969SOL    HW2 9805  12.018   6.349   4.307
35970SOL     OW 9806   0.522   1.464   8.800
35970SOL    HW1 9807   0.547   1.409   8.875
35970SOL    HW2 9808   0.605   1.499   8.768
35971SOL     OW 9809   6.097   5.776  11.481
35971SOL    HW1 9810   6.062   5.689  11.464
35971SOL    HW2 9811   6.122   5.809  11.395
35972SOL     OW 9812   7.577   0.683   0.000
35972SOL    HW1 9813   7.668   0.687  14.854
35972SOL    HW2 9814   7.536   0.760  14.844
35973SOL     OW 9815   9.815  14.248  10.074
35973SOL    HW1 9816   9.878  14.245  10.146
35973SOL    HW2 9817   9.812  14.158  10.042
35974SOL     OW 9818   0.239  13.665  12.736
35974SOL    HW1 9819   0.322  13.698  12.770
35974SOL    HW2 9820   0.240  13.686  12.643
35975SOL     OW 9821   4.882   2.211  12.846
35975SOL    HW1 9822   4.919   2.213  12.935
35975SOL    HW2 9823   4.910   2.293  12.806
35976SOL     OW 9824  13.312  14.694   8.400
35976SOL    HW1 9825  13.231  14.727   8.438
35976SOL    HW2 9826  13.359  14.654   8.473
35977SOL     OW 9827   1.894  10.424   6.248
35977SOL    HW1 9828   1.850  10.371   6.314
35977SOL    HW2 9829   1.882  10.374   6.167
35978SOL     OW 9830   3.385  11.034   0.963
35978SOL    HW1 9831   3.369  11.128   0.966
35978SOL    HW2 9832   3.477  11.026   0.939
35979SOL     OW 9833   4.787  10.869   7.777
35979SOL    HW1 9834   4.743  10.789   7.807
35979SOL    HW2 9835   4.873  10.839   7.747
35980SOL     OW 9836  10.653   0.700  12.529
35980SOL    HW1 9837  10.598   0.643  12.582
35980SOL    HW2 9838  10.684   0.767  12.591
35981SOL     OW 9839   7.631  13.640   2.082
35981SOL    HW1 9840   7.675  13.724   2.076
35981SOL    HW2 9841   7.700  13.577   2.100
35982SOL     OW 9842  10.063   1.728  12.232
35982SOL    HW1 9843  10.114   1.795  12.276
35982SOL    HW2 9844   9.978   1.729  12.277
35983SOL     OW 9845  10.985   5.824   8.780
35983SOL    HW1 9846  11.066   5.774   8.767
35983SOL    HW2 9847  11.004   5.911   8.745
35984SOL     OW 9848  10.648  12.882   1.396
35984SOL    HW1 9849  10.705  12.823   1.345
35984SOL    HW2 9850  10.608  12.826   1.462
35985SOL     OW 9851  12.829   7.819  11.521
35985SOL    HW1 9852  12.902   7.877  11.499
35985SOL    HW2 9853  12.871   7.740  11.556
35986SOL     OW 9854   6.256  13.391  11.129
35986SOL    HW1 9855   6.197  13.346  11.068
35986SOL    HW2 9856   6.247  13.342  11.211
35987SOL     OW 9857   6.325   7.663  10.047
35987SOL    HW1 9858   6.347   7.571  10.033
35987SOL    HW2 9859   6.311   7.698   9.959
35988SOL     OW 9860   3.002   4.847  13.691
35988SOL    HW1 9861   3.062   4.922  13.687
35988SOL    HW2 9862   3.021   4.796  13.613
35989SOL     OW 9863   9.890  13.311   7.593
35989SOL    HW1 9864   9.961  13.247   7.595
35989SOL    HW2 9865   9.822  13.269   7.539
35990SOL     OW 9866   1.879  10.570   4.655
35990SOL    HW1 9867   1.796  10.616   4.667
35990SOL    HW2 9868   1.917  10.567   4.743
35991SOL     OW 9869  12.973  12.925  13.765
35991SOL    HW1 9870  13.015  13.010  13.773
35991SOL    HW2 9871  13.033  12.873  13.711
35992SOL     OW 9872   2.634   7.638   0.222
35992SOL    HW1 9873   2.681   7.719   0.242
35992SOL    HW2 9874   2.697   7.569   0.243
35993SOL     OW 9875   3.060  10.281  13.553
35993SOL    HW1 9876   2.966  10.296  13.563
35993SOL    HW2 9877   3.101  10.365  13.572
35994SOL     OW 9878   9.517   6.486  10.616
35994SOL    HW1 9879   9.501   6.565  10.564
35994SOL    HW2 9880   9.430   6.460  10.648
35995SOL     OW 9881   4.455   0.693   0.860
35995SOL    HW1 9882   4.539   0.652   0.883
35995SOL    HW2 9883   4.443   0.670   0.768
35996SOL     OW 9884   9.278  13.160   1.163
35996SOL    HW1 9885   9.250  13.095   1.099
35996SOL    HW2 9886   9.343  13.114   1.216
35997SOL     OW 9887   5.291   4.209   7.072
35997SOL    HW1 9888   5.212   4.247   7.034
35997SOL    HW2 9889   5.280   4.223   7.167
35998SOL     OW 9890  10.569   4.261   8.970
35998SOL    HW1 9891  10.569   4.184   8.912
35998SOL    HW2 9892  10.486   4.304   8.952
35999SOL     OW 9893   1.955  14.782   0.429
35999SOL    HW1 9894   2.016  14.843   0.470
35999SOL    HW2 9895   1.992  14.696   0.446
36000SOL     OW 9896  13.275  11.812   7.181
36000SOL    HW1 9897  13.254  11.750   7.250
36000SOL    HW2 9898  13.221  11.889   7.200
36001SOL     OW 9899   6.038   4.724   6.248
36001SOL    HW1 9900   5.954   4.705   6.205
36001SOL    HW2 9901   6.034   4.675   6.331
36002SOL     OW 9902  13.058   5.928   0.889
36002SOL    HW1 9903  13.041   5.990   0.819
36002SOL    HW2 9904  12.971   5.907   0.925
36003SOL     OW 9905   7.988   7.938  13.714
36003SOL    HW1 9906   8.017   7.847  13.714
36003SOL    HW2 9907   8.033   7.978  13.639
36004SOL     OW 9908   4.214   0.527  13.712
36004SOL    HW1 9909   4.136   0.541  13.658
36004SOL    HW2 9910   4.265   0.608  13.701
36005SOL     OW 9911  12.759  14.251   5.898
36005SOL    HW1 9912  12.838  14.305   5.890
36005SOL    HW2 9913  12.781  14.188   5.967
36006SOL     OW 9914  10.663  11.327   9.377
36006SOL    HW1 9915  10.574  11.295   9.394
36006SOL    HW2 9916  10.676  11.397   9.440
36007SOL     OW 9917   6.825   8.556   0.020
36007SOL    HW1 9918   6.856   8.465   0.024
36007SOL    HW2 9919   6.780   8.563  14.818
36008SOL     OW 9920   2.991  10.793   1.230
36008SOL    HW1 9921   3.068  10.848   1.243
36008SOL    HW2 9922   3.001  10.759   1.141
36009SOL     OW 9923  12.052  11.649  12.673
36009SOL    HW1 9924  12.133  11.666  12.720
36009SOL    HW2 9925  12.079  11.595  12.599
36010SOL     OW 9926   6.549  11.905   5.791
36010SOL    HW1 9927   6.560  11.993   5.827
36010SOL    HW2 9928   6.509  11.919   5.705
36011SOL     OW 9929  14.203  11.688  11.540
36011SOL    HW1 9930  14.145  11.643  11.479
36011SOL    HW2 9931  14.144  11.724  11.606
36012SOL     OW 9932   1.532   1.183  12.381
36012SOL    HW1 9933   1.453   1.134  12.400
36012SOL    HW2 9934   1.602   1.133  12.423
36013SOL     OW 9935  13.536  11.950   2.913
36013SOL    HW1 9936  13.443  11.924   2.912
36013SOL    HW2 9937  13.540  12.020   2.977
36014SOL     OW 9938  13.116   5.181   2.868
36014SOL    HW1 9939  13.149   5.100   2.831
36014SOL    HW2 9940  13.177   5.248   2.837
36015SOL     OW 9941   2.220  11.617   7.980
36015SOL    HW1 9942   2.261  11.697   8.013
36015SOL    HW2 9943   2.236  11.620   7.885
36016SOL     OW 9944   3.919   9.739  12.094
36016SOL    HW1 9945   3.946   9.790  12.171
36016SOL    HW2 9946   3.825   9.755  12.087
36017SOL     OW 9947   4.661   1.521  10.057
36017SOL    HW1 9948   4.707   1.604  10.049
36017SOL    HW2 9949   4.568   1.543  10.051
36018SOL     OW 9950  12.827   8.450  10.866
36018SOL    HW1 9951  12.902   8.450  10.926
36018SOL    HW2 9952  12.776   8.373  10.891
36019SOL     OW 9953   0.570   4.396   4.333
36019SOL    HW1 9954   0.579   4.486   4.302
36019SOL    HW2 9955   0.481   4.391   4.368
36020SOL     OW 9956   7.988   7.195   9.982
36020SOL    HW1 9957   8.001   7.100   9.971
36020SOL    HW2 9958   8.003   7.231   9.894
36021SOL     OW 9959  13.536   8.823   1.192
36021SOL    HW1 9960  13.617   8.850   1.148
36021SOL    HW2 9961  13.534   8.875   1.272
36022SOL     OW 9962   7.600  14.837   2.527
36022SOL    HW1 9963   7.654  14.804   2.598
36022SOL    HW2 9964   7.624  14.782   2.452
36023SOL     OW 9965   5.377   8.228   3.235
36023SOL    HW1 9966   5.404   8.256   3.323
36023SOL    HW2 9967   5.404   8.299   3.177
36024SOL     OW 9968   5.411   8.112   0.511
36024SOL    HW1 9969   5.448   8.028   0.538
36024SOL    HW2 9970   5.368   8.094   0.427
36025SOL     OW 9971   0.771  10.976   5.511
36025SOL    HW1 9972   0.841  11.040   5.506
36025SOL    HW2 9973   0.749  10.972   5.604
36026SOL     OW 9974   2.381  14.071  10.410
36026SOL    HW1 9975   2.443  14.136  10.444
36026SOL    HW2 9976   2.303  14.122  10.387
36027SOL     OW 9977  11.049   8.085   3.093
36027SOL    HW1 9978  10.998   8.085   3.012
36027SOL    HW2 9979  11.025   8.167   3.137
36028SOL     OW 9980  12.484   5.192  13.220
36028SOL    HW1 9981  12.450   5.108  13.248
36028SOL    HW2 9982  12.407   5.241  13.191
36029SOL     OW 9983  12.022   9.401   9.162
36029SOL    HW1 9984  11.929   9.416   9.181
36029SOL    HW2 9985  12.024   9.316   9.118
36030SOL     OW 9986   6.329  10.527   1.557
36030SOL    HW1 9987   6.409  10.532   1.504
36030SOL    HW2 9988   6.268  10.586   1.513
36031SOL     OW 9989  10.075  11.260   3.835
36031SOL    HW1 9990  10.016  11.191   3.865
36031SOL    HW2 9991  10.067  11.260   3.740
36032SOL     OW 9992   3.932   3.301  13.818
36032SOL    HW1 9993   3.837   3.307  13.830
36032SOL    HW2 9994   3.955   3.216  13.855
36033SOL     OW 9995  10.215  13.268   2.478
36033SOL    HW1 9996  10.292  13.272   2.533
36033SOL    HW2 9997  10.150  13.220   2.530
36034SOL     OW 9998   2.494   2.875   2.673
36034SOL    HW1 9999   2.475   2.936   2.744
36034SOL    HW210000   2.564   2.820   2.706
36035SOL     OW10001   9.638   0.935   2.239
36035SOL    HW110002   9.722   0.890   2.242
36035SOL    HW210003   9.588   0.887   2.173
36036SOL     OW10004   5.402   8.320   5.350
36036SOL    HW110005   5.453   8.241   5.365
36036SOL    HW210006   5.327   8.290   5.297
36037SOL     OW10007  12.994   6.166  12.481
36037SOL    HW110008  13.010   6.236  12.418
36037SOL    HW210009  13.071   6.167  12.539
36038SOL     OW10010   9.967  11.041   6.317
36038SOL    HW110011   9.987  10.968   6.258
36038SOL    HW210012   9.945  11.113   6.258
36039SOL     OW10013  14.858   1.723   2.183
36039SOL    HW110014  14.783   1.679   2.223
36039SOL    HW210015   0.025   1.654   2.139
36040SOL     OW10016   9.173  11.789   4.458
36040SOL    HW110017   9.266  11.764   4.455
36040SOL    HW210018   9.162  11.846   4.383
36041SOL     OW10019   6.784   5.004  13.790
36041SOL    HW110020   6.865   5.055  13.788
36041SOL    HW210021   6.743   5.020  13.705
36042SOL     OW10022   1.566   9.630  12.452
36042SOL    HW110023   1.547   9.561  12.388
36042SOL    HW210024   1.506   9.701  12.428
36043SOL     OW10025   0.281   2.663  14.527
36043SOL    HW110026   0.233   2.675  14.610
36043SOL    HW210027   0.280   2.569  14.512
36044SOL     OW10028  13.855   9.951   0.525
36044SOL    HW110029  13.816  10.038   0.522
36044SOL    HW210030  13.934   9.962   0.578
36045SOL     OW10031   3.727   3.716   2.707
36045SOL    HW110032   3.641   3.753   2.688
36045SOL    HW210033   3.709   3.647   2.772
36046SOL     OW10034   7.733  11.763   1.698
36046SOL    HW110035   7.787  11.734   1.772
36046SOL    HW210036   7.647  11.724   1.715
36047SOL     OW10037   0.514  10.645   5.565
36047SOL    HW110038   0.601  10.682   5.548
36047SOL    HW210039   0.485  10.610   5.480
36048SOL     OW10040   8.463   6.248   2.124
36048SOL    HW110041   8.483   6.155   2.116
36048SOL    HW210042   8.457   6.280   2.034
36049SOL     OW10043   7.723   8.149   9.873
36049SOL    HW110044   7.678   8.065   9.864
36049SOL    HW210045   7.653   8.214   9.881
36050SOL     OW10046   5.051   8.321   2.642
36050SOL    HW110047   5.085   8.290   2.558
36050SOL    HW210048   4.968   8.364   2.619
36051SOL     OW10049   0.725   8.586   1.539
36051SOL    HW110050   0.790   8.521   1.510
36051SOL    HW210051   0.684   8.546   1.615
36052SOL     OW10052   8.386   1.577  10.403
36052SOL    HW110053   8.341   1.518  10.342
36052SOL    HW210054   8.416   1.650  10.348
36053SOL     OW10055  10.590   6.039   4.076
36053SOL    HW110056  10.538   5.981   4.130
36053SOL    HW210057  10.650   6.083   4.137
36054SOL     OW10058   5.919   2.312   0.358
36054SOL    HW110059   5.837   2.268   0.334
36054SOL    HW210060   5.966   2.322   0.276
36055SOL     OW10061   0.550   5.946   2.165
36055SOL    HW110062   0.631   5.910   2.201
36055SOL    HW210063   0.562   5.942   2.070
36056SOL     OW10064   2.565  14.289  12.738
36056SOL    HW110065   2.626  14.218  12.718
36056SOL    HW210066   2.527  14.264  12.823
36057SOL     OW10067  10.525  11.915   5.740
36057SOL    HW110068  10.454  11.940   5.798
36057SOL    HW210069  10.520  11.976   5.667
36058SOL     OW10070  10.354  14.468   8.211
36058SOL    HW110071  10.346  14.471   8.116
36058SOL    HW210072  10.419  14.535   8.232
36059SOL     OW10073   9.005  14.156   8.250
36059SOL    HW110074   9.012  14.232   8.307
36059SOL    HW210075   9.016  14.191   8.161
36060SOL     OW10076   6.968  13.338   7.192
36060SOL    HW110077   7.063  13.352   7.187
36060SOL    HW210078   6.958  13.256   7.240
36061SOL     OW10079  11.157  10.764   4.483
36061SOL    HW110080  11.128  10.673   4.488
36061SOL    HW210081  11.248  10.759   4.456
36062SOL     OW10082  10.784   2.319   3.180
36062SOL    HW110083  10.731   2.257   3.130
36062SOL    HW210084  10.872   2.282   3.181
36063SOL     OW10085   0.146  13.119  14.689
36063SOL    HW110086   0.079  13.186  14.676
36063SOL    HW210087   0.097  13.040  14.710
36064SOL     OW10088  10.874  10.535   2.607
36064SOL    HW110089  10.805  10.572   2.552
36064SOL    HW210090  10.905  10.608   2.660
36065SOL     OW10091  11.693   5.703   2.961
36065SOL    HW110092  11.643   5.781   2.980
36065SOL    HW210093  11.785   5.729   2.974
36066SOL     OW10094   3.024   6.809   8.705
36066SOL    HW110095   2.982   6.724   8.693
36066SOL    HW210096   3.112   6.797   8.670
36067SOL     OW10097   1.980  12.416   1.526
36067SOL    HW110098   2.075  12.416   1.528
36067SOL    HW210099   1.958  12.379   1.440
36068SOL     OW10100   3.278   3.422   7.007
36068SOL    HW110101   3.286   3.345   6.951
36068SOL    HW210102   3.192   3.457   6.987
36069SOL     OW10103  10.779  10.808   8.164
36069SOL    HW110104  10.787  10.749   8.090
36069SOL    HW210105  10.759  10.751   8.239
36070SOL     OW10106   0.481  14.053   9.175
36070SOL    HW110107   0.391  14.024   9.158
36070SOL    HW210108   0.528  14.034   9.094
36071SOL     OW10109   7.881  12.274  11.123
36071SOL    HW110110   7.873  12.370  11.123
36071SOL    HW210111   7.935  12.255  11.046
36072SOL     OW10112  14.287  10.697  11.622
36072SOL    HW110113  14.213  10.745  11.657
36072SOL    HW210114  14.328  10.656  11.698
36073SOL     OW10115   6.975  10.110  10.754
36073SOL    HW110116   6.907  10.067  10.806
36073SOL    HW210117   7.007  10.181  10.810
36074SOL     OW10118   1.816  14.161   0.611
36074SOL    HW110119   1.722  14.168   0.598
36074SOL    HW210120   1.833  14.066   0.616
36075SOL     OW10121   9.895   1.021   0.881
36075SOL    HW110122   9.918   0.997   0.791
36075SOL    HW210123   9.958   1.089   0.904
36076SOL     OW10124   6.212   7.242   4.962
36076SOL    HW110125   6.299   7.223   4.926
36076SOL    HW210126   6.156   7.175   4.923
36077SOL     OW10127   5.769   2.969  11.927
36077SOL    HW110128   5.844   2.984  11.870
36077SOL    HW210129   5.703   3.031  11.898
36078SOL     OW10130  14.242   0.758  11.749
36078SOL    HW110131  14.225   0.664  11.745
36078SOL    HW210132  14.191   0.795  11.677
36079SOL     OW10133   0.619   5.554  10.410
36079SOL    HW110134   0.646   5.639  10.374
36079SOL    HW210135   0.585   5.505  10.336
36080SOL     OW10136   8.436   8.730  11.166
36080SOL    HW110137   8.426   8.637  11.184
36080SOL    HW210138   8.487   8.764  11.239
36081SOL     OW10139  13.462   1.886  12.689
36081SOL    HW110140  13.523   1.839  12.632
36081SOL    HW210141  13.468   1.977  12.661
36082SOL     OW10142   2.071  14.549   8.146
36082SOL    HW110143   2.016  14.621   8.118
36082SOL    HW210144   2.010  14.476   8.159
36083SOL     OW10145   3.342   0.866   8.308
36083SOL    HW110146   3.338   0.822   8.223
36083SOL    HW210147   3.361   0.796   8.370
36084SOL     OW10148  10.915   9.422  11.917
36084SOL    HW110149  10.935   9.343  11.967
36084SOL    HW210150  10.887   9.390  11.831
36085SOL     OW10151   8.106   1.065   5.508
36085SOL    HW110152   8.138   1.087   5.420
36085SOL    HW210153   8.074   0.976   5.499
36086SOL     OW10154  12.595   6.298   7.052
36086SOL    HW110155  12.636   6.364   6.997
36086SOL    HW210156  12.640   6.217   7.031
36087SOL     OW10157  14.741  14.702  13.589
36087SOL    HW110158  14.659  14.741  13.559
36087SOL    HW210159  14.747  14.727  13.681
36088SOL     OW10160   3.039   2.673   5.661
36088SOL    HW110161   3.129   2.673   5.629
36088SOL    HW210162   2.996   2.745   5.615
36089SOL     OW10163   3.165  11.747   6.529
36089SOL    HW110164   3.169  11.786   6.617
36089SOL    HW210165   3.075  11.716   6.522
36090SOL     OW10166   4.017   4.583   2.570
36090SOL    HW110167   3.941   4.640   2.579
36090SOL    HW210168   4.006   4.519   2.640
36091SOL     OW10169   3.668   0.844  10.180
36091SOL    HW110170   3.725   0.891  10.241
36091SOL    HW210171   3.677   0.891  10.097
36092SOL     OW10172   5.004   7.950   0.209
36092SOL    HW110173   4.968   8.031   0.171
36092SOL    HW210174   4.944   7.881   0.180
36093SOL     OW10175   6.029   4.448   7.270
36093SOL    HW110176   6.006   4.375   7.327
36093SOL    HW210177   6.027   4.525   7.327
36094SOL     OW10178   2.505   7.659   3.077
36094SOL    HW110179   2.594   7.636   3.051
36094SOL    HW210180   2.501   7.754   3.068
36095SOL     OW10181  14.423  13.349   7.560
36095SOL    HW110182  14.451  13.276   7.615
36095SOL    HW210183  14.487  13.353   7.490
36096SOL     OW10184  12.594  12.762   5.875
36096SOL    HW110185  12.650  12.738   5.949
36096SOL    HW210186  12.647  12.821   5.822
36097SOL     OW10187   5.229   6.734   1.521
36097SOL    HW110188   5.143   6.775   1.525
36097SOL    HW210189   5.213   6.647   1.486
36098SOL     OW10190  10.011   2.520  14.375
36098SOL    HW110191   9.946   2.454  14.401
36098SOL    HW210192   9.961   2.602  14.373
36099SOL     OW10193   1.960   5.401   6.902
36099SOL    HW110194   1.925   5.485   6.874
36099SOL    HW210195   1.968   5.409   6.998
36100SOL     OW10196  11.210  11.519  11.392
36100SOL    HW110197  11.207  11.615  11.398
36100SOL    HW210198  11.119  11.493  11.379
36101SOL     OW10199  14.372   3.265   6.993
36101SOL    HW110200  14.286   3.247   6.955
36101SOL    HW210201  14.387   3.358   6.975
36102SOL     OW10202  13.434   1.406  14.629
36102SOL    HW110203  13.463   1.470  14.564
36102SOL    HW210204  13.472   1.323  14.599
36103SOL     OW10205   6.783   8.891  11.834
36103SOL    HW110206   6.766   8.808  11.789
36103SOL    HW210207   6.873   8.884  11.865
36104SOL     OW10208   4.107   8.947  14.261
36104SOL    HW110209   4.202   8.940  14.271
36104SOL    HW210210   4.093   8.949  14.166
36105SOL     OW10211  10.346  11.313  14.682
36105SOL    HW110212  10.304  11.276  14.760
36105SOL    HW210213  10.313  11.259  14.610
36106SOL     OW10214   5.636   0.954  11.999
36106SOL    HW110215   5.625   0.864  11.966
36106SOL    HW210216   5.589   1.009  11.936
36107SOL     OW10217   5.009   0.314   8.622
36107SOL    HW110218   5.091   0.319   8.669
36107SOL    HW210219   5.034   0.310   8.529
36108SOL     OW10220  11.415  10.249  10.868
36108SOL    HW110221  11.383  10.166  10.904
36108SOL    HW210222  11.347  10.275  10.806
36109SOL     OW10223   0.928   8.387   6.999
36109SOL    HW110224   0.899   8.407   6.910
36109SOL    HW210225   0.857   8.334   7.036
36110SOL     OW10226   8.951  11.988  10.316
36110SOL    HW110227   8.890  11.946  10.377
36110SOL    HW210228   9.033  11.941  10.329
36111SOL     OW10229   3.380   3.831   0.495
36111SOL    HW110230   3.341   3.745   0.479
36111SOL    HW210231   3.425   3.853   0.413
36112SOL     OW10232  13.052   2.215   2.632
36112SOL    HW110233  12.996   2.257   2.697
36112SOL    HW210234  13.128   2.185   2.682
36113SOL     OW10235   6.039   9.049   8.582
36113SOL    HW110236   6.071   9.100   8.656
36113SOL    HW210237   5.946   9.035   8.600
36114SOL     OW10238  12.877   8.796  11.020
36114SOL    HW110239  12.782   8.809  11.010
36114SOL    HW210240  12.916   8.857  10.957
36115SOL     OW10241  11.160  10.019  10.362
36115SOL    HW110242  11.229   9.975  10.312
36115SOL    HW210243  11.079   9.976  10.337
36116SOL     OW10244   5.028   8.909   9.260
36116SOL    HW110245   5.107   8.870   9.298
36116SOL    HW210246   4.956   8.869   9.309
36117SOL     OW10247   8.814   1.238  14.499
36117SOL    HW110248   8.835   1.147  14.517
36117SOL    HW210249   8.719   1.243  14.504
36118SOL     OW10250  13.210   2.867   7.639
36118SOL    HW110251  13.170   2.844   7.723
36118SOL    HW210252  13.270   2.939   7.660
36119SOL     OW10253   3.656   4.200   1.491
36119SOL    HW110254   3.736   4.183   1.541
36119SOL    HW210255   3.647   4.295   1.490
36120SOL     OW10256   6.092   4.591   9.997
36120SOL    HW110257   6.159   4.544  10.046
36120SOL    HW210258   6.009   4.551  10.024
36121SOL     OW10259  14.717  13.946   5.745
36121SOL    HW110260  14.679  13.998   5.816
36121SOL    HW210261  14.643  13.920   5.692
36122SOL     OW10262   7.105   0.273   0.561
36122SOL    HW110263   7.062   0.306   0.639
36122SOL    HW210264   7.194   0.253   0.589
36123SOL     OW10265   2.386   7.690   4.778
36123SOL    HW110266   2.445   7.627   4.819
36123SOL    HW210267   2.393   7.768   4.833
36124SOL     OW10268  12.829   4.029   3.982
36124SOL    HW110269  12.795   4.099   3.926
36124SOL    HW210270  12.760   3.962   3.982
36125SOL     OW10271  13.201  12.632   0.689
36125SOL    HW110272  13.111  12.642   0.718
36125SOL    HW210273  13.243  12.716   0.711
36126SOL     OW10274  14.177   6.844   0.971
36126SOL    HW110275  14.116   6.785   1.015
36126SOL    HW210276  14.233   6.877   1.040
36127SOL     OW10277   9.548   1.594   8.114
36127SOL    HW110278   9.595   1.523   8.158
36127SOL    HW210279   9.530   1.560   8.026
36128SOL     OW10280   4.259   9.850   3.167
36128SOL    HW110281   4.185   9.801   3.202
36128SOL    HW210282   4.332   9.788   3.172
36129SOL     OW10283  14.854  10.906   6.909
36129SOL    HW110284  14.838  10.997   6.882
36129SOL    HW210285  14.795  10.892   6.983
36130SOL     OW10286   8.003   9.554   3.669
36130SOL    HW110287   7.928   9.611   3.649
36130SOL    HW210288   7.972   9.466   3.647
36131SOL     OW10289   3.194  11.840   5.383
36131SOL    HW110290   3.155  11.758   5.413
36131SOL    HW210291   3.221  11.885   5.463
36132SOL     OW10292   8.316  14.534   5.294
36132SOL    HW110293   8.285  14.624   5.304
36132SOL    HW210294   8.255  14.482   5.347
36133SOL     OW10295   8.768   5.894  13.214
36133SOL    HW110296   8.823   5.968  13.237
36133SOL    HW210297   8.816   5.817  13.244
36134SOL     OW10298   5.184   9.072   6.805
36134SOL    HW110299   5.195   9.151   6.753
36134SOL    HW210300   5.143   9.009   6.746
36135SOL     OW10301  14.696   3.124   1.614
36135SOL    HW110302  14.766   3.070   1.650
36135SOL    HW210303  14.699   3.108   1.520
36136SOL     OW10304   3.847   9.410   4.041
36136SOL    HW110305   3.911   9.472   4.007
36136SOL    HW210306   3.772   9.464   4.066
36137SOL     OW10307   1.355   9.254   7.892
36137SOL    HW110308   1.289   9.220   7.952
36137SOL    HW210309   1.372   9.183   7.831
36138SOL     OW10310  10.050  13.864  11.833
36138SOL    HW110311  10.005  13.864  11.917
36138SOL    HW210312   9.990  13.907  11.772
36139SOL     OW10313   8.120   1.989   1.724
36139SOL    HW110314   8.029   1.989   1.753
36139SOL    HW210315   8.118   1.951   1.637
36140SOL     OW10316   3.227   1.435   5.252
36140SOL    HW110317   3.227   1.390   5.337
36140SOL    HW210318   3.319   1.457   5.237
36141SOL     OW10319   5.284  11.431   1.134
36141SOL    HW110320   5.201  11.387   1.118
36141SOL    HW210321   5.272  11.518   1.095
36142SOL     OW10322   3.096   7.285   4.957
36142SOL    HW110323   3.066   7.300   4.867
36142SOL    HW210324   3.020   7.248   5.002
36143SOL     OW10325   4.400  13.041   2.670
36143SOL    HW110326   4.319  13.069   2.712
36143SOL    HW210327   4.401  13.087   2.586
36144SOL     OW10328   6.010   7.800   7.672
36144SOL    HW110329   6.035   7.848   7.751
36144SOL    HW210330   5.915   7.794   7.677
36145SOL     OW10331   8.137   9.145  13.763
36145SOL    HW110332   8.140   9.176  13.854
36145SOL    HW210333   8.049   9.168  13.734
36146SOL     OW10334   3.234  10.888   8.730
36146SOL    HW110335   3.160  10.947   8.718
36146SOL    HW210336   3.209  10.808   8.685
36147SOL     OW10337   6.144   7.682   8.366
36147SOL    HW110338   6.190   7.760   8.335
36147SOL    HW210339   6.213   7.616   8.376
36148SOL     OW10340  13.632  13.589   9.479
36148SOL    HW110341  13.650  13.530   9.405
36148SOL    HW210342  13.715  13.595   9.525
36149SOL     OW10343   2.380  10.213   8.508
36149SOL    HW110344   2.467  10.197   8.471
36149SOL    HW210345   2.336  10.128   8.503
36150SOL     OW10346   3.676   9.657   3.867
36150SOL    HW110347   3.744   9.693   3.809
36150SOL    HW210348   3.607   9.629   3.807
36151SOL     OW10349   0.061   9.172   9.655
36151SOL    HW110350   0.052   9.076   9.656
36151SOL    HW210351   0.110   9.190   9.575
36152SOL     OW10352  12.573   9.318   3.435
36152SOL    HW110353  12.496   9.374   3.442
36152SOL    HW210354  12.538   9.228   3.432
36153SOL     OW10355   4.944   7.908   7.372
36153SOL    HW110356   5.037   7.921   7.393
36153SOL    HW210357   4.929   7.962   7.295
36154SOL     OW10358   1.137  10.468   7.613
36154SOL    HW110359   1.166  10.377   7.603
36154SOL    HW210360   1.187  10.500   7.688
36155SOL     OW10361  13.994   3.301  13.640
36155SOL    HW110362  13.948   3.376  13.603
36155SOL    HW210363  14.050   3.338  13.709
36156SOL     OW10364   7.779   7.190  14.164
36156SOL    HW110365   7.779   7.094  14.165
36156SOL    HW210366   7.719   7.213  14.093
36157SOL     OW10367   7.846  10.629  10.644
36157SOL    HW110368   7.809  10.635  10.732
36157SOL    HW210369   7.771  10.638  10.585
36158SOL     OW10370  14.158  13.850   9.010
36158SOL    HW110371  14.083  13.906   9.028
36158SOL    HW210372  14.173  13.860   8.916
36159SOL     OW10373   5.403   6.288   1.196
36159SOL    HW110374   5.448   6.364   1.159
36159SOL    HW210375   5.321   6.282   1.146
36160SOL     OW10376  10.235   6.795   3.561
36160SOL    HW110377  10.249   6.701   3.552
36160SOL    HW210378  10.311   6.826   3.609
36161SOL     OW10379  13.730   7.999   1.100
36161SOL    HW110380  13.794   8.022   1.168
36161SOL    HW210381  13.778   8.012   1.018
36162SOL     OW10382  13.053   7.048   3.087
36162SOL    HW110383  13.086   7.059   3.177
36162SOL    HW210384  13.132   7.052   3.033
36163SOL     OW10385   7.165   0.819  13.854
36163SOL    HW110386   7.234   0.874  13.892
36163SOL    HW210387   7.155   0.852  13.764
36164SOL     OW10388   6.383   2.979   6.370
36164SOL    HW110389   6.436   3.058   6.382
36164SOL    HW210390   6.305   2.994   6.424
36165SOL     OW10391   5.788   7.277   2.030
36165SOL    HW110392   5.789   7.360   2.079
36165SOL    HW210393   5.775   7.210   2.098
36166SOL     OW10394  12.807   8.328   7.191
36166SOL    HW110395  12.737   8.277   7.232
36166SOL    HW210396  12.875   8.333   7.258
36167SOL     OW10397   0.189   0.469  11.767
36167SOL    HW110398   0.203   0.500  11.857
36167SOL    HW210399   0.260   0.510  11.717
36168SOL     OW10400  10.810   6.797  13.721
36168SOL    HW110401  10.813   6.814  13.627
36168SOL    HW210402  10.805   6.701  13.728
36169SOL     OW10403   3.593   5.191   5.150
36169SOL    HW110404   3.530   5.141   5.098
36169SOL    HW210405   3.555   5.194   5.238
36170SOL     OW10406   1.918   6.214  13.019
36170SOL    HW110407   1.835   6.172  12.994
36170SOL    HW210408   1.982   6.177  12.959
36171SOL     OW10409   5.800  11.965   8.677
36171SOL    HW110410   5.890  11.943   8.654
36171SOL    HW210411   5.785  12.051   8.639
36172SOL     OW10412   5.835   8.006   2.992
36172SOL    HW110413   5.879   8.087   3.017
36172SOL    HW210414   5.880   7.978   2.912
36173SOL     OW10415  12.948  14.227  10.904
36173SOL    HW110416  13.014  14.236  10.835
36173SOL    HW210417  12.886  14.299  10.887
36174SOL     OW10418   3.883   6.600   9.688
36174SOL    HW110419   3.944   6.631   9.621
36174SOL    HW210420   3.901   6.655   9.764
36175SOL     OW10421   1.306  11.965   1.506
36175SOL    HW110422   1.217  11.937   1.529
36175SOL    HW210423   1.356  11.884   1.503
36176SOL     OW10424   9.908   6.698   9.732
36176SOL    HW110425   9.911   6.751   9.652
36176SOL    HW210426   9.828   6.646   9.723
36177SOL     OW10427   6.969  12.604   4.123
36177SOL    HW110428   6.957  12.571   4.212
36177SOL    HW210429   6.985  12.526   4.070
36178SOL     OW10430   8.702   5.550   6.459
36178SOL    HW110431   8.656   5.625   6.422
36178SOL    HW210432   8.782   5.587   6.496
36179SOL     OW10433   6.749  11.832   1.299
36179SOL    HW110434   6.776  11.911   1.252
36179SOL    HW210435   6.711  11.864   1.380
36180SOL     OW10436   4.897   3.593   9.441
36180SOL    HW110437   4.940   3.623   9.521
36180SOL    HW210438   4.918   3.660   9.376
36181SOL     OW10439   3.764   2.077  12.242
36181SOL    HW110440   3.767   2.158  12.191
36181SOL    HW210441   3.740   2.009  12.179
36182SOL     OW10442   6.532   4.331   3.546
36182SOL    HW110443   6.520   4.426   3.541
36182SOL    HW210444   6.520   4.311   3.639
36183SOL     OW10445   3.641   4.880   2.806
36183SOL    HW110446   3.601   4.833   2.880
36183SOL    HW210447   3.731   4.895   2.834
36184SOL     OW10448   0.930   5.218   5.862
36184SOL    HW110449   0.926   5.123   5.856
36184SOL    HW210450   0.989   5.244   5.791
36185SOL     OW10451   8.071   1.688   3.014
36185SOL    HW110452   8.082   1.760   3.077
36185SOL    HW210453   7.976   1.680   3.004
36186SOL     OW10454   5.294   4.861   2.366
36186SOL    HW110455   5.335   4.947   2.364
36186SOL    HW210456   5.361   4.801   2.332
36187SOL     OW10457   2.542   3.560   0.068
36187SOL    HW110458   2.593   3.499   0.121
36187SOL    HW210459   2.529   3.515  14.867
36188SOL     OW10460   7.457   6.771   1.910
36188SOL    HW110461   7.391   6.793   1.844
36188SOL    HW210462   7.439   6.832   1.982
36189SOL     OW10463   5.763   6.765   2.415
36189SOL    HW110464   5.821   6.739   2.486
36189SOL    HW210465   5.767   6.861   2.414
36190SOL     OW10466  14.027  14.275   1.069
36190SOL    HW110467  13.935  14.273   1.093
36190SOL    HW210468  14.073  14.246   1.148
36191SOL     OW10469   5.251  12.290   9.985
36191SOL    HW110470   5.299  12.216   9.950
36191SOL    HW210471   5.307  12.366   9.967
36192SOL     OW10472   0.770   6.598   2.420
36192SOL    HW110473   0.749   6.559   2.335
36192SOL    HW210474   0.789   6.523   2.477
36193SOL     OW10475  10.330  14.025   9.830
36193SOL    HW110476  10.396  14.073   9.879
36193SOL    HW210477  10.352  13.933   9.844
36194SOL     OW10478   3.042   3.417   2.852
36194SOL    HW110479   3.066   3.509   2.853
36194SOL    HW210480   3.122   3.370   2.875
36195SOL     OW10481   3.919   8.099   8.435
36195SOL    HW110482   4.003   8.087   8.391
36195SOL    HW210483   3.917   8.191   8.459
36196SOL     OW10484   3.758   4.553   7.717
36196SOL    HW110485   3.671   4.520   7.695
36196SOL    HW210486   3.741   4.633   7.767
36197SOL     OW10487  11.210  11.467   3.680
36197SOL    HW110488  11.217  11.559   3.706
36197SOL    HW210489  11.205  11.419   3.763
36198SOL     OW10490  12.044   8.625   8.500
36198SOL    HW110491  11.949   8.618   8.498
36198SOL    HW210492  12.061   8.716   8.526
36199SOL     OW10493   0.230  12.280  14.616
36199SOL    HW110494   0.223  12.322  14.702
36199SOL    HW210495   0.175  12.203  14.622
36200SOL     OW10496  13.580   3.830  13.884
36200SOL    HW110497  13.492   3.796  13.865
36200SOL    HW210498  13.565   3.920  13.911
36201SOL     OW10499   7.090   8.411   9.350
36201SOL    HW110500   7.092   8.362   9.268
36201SOL    HW210501   7.145   8.487   9.334
36202SOL     OW10502  13.925   4.775   2.514
36202SOL    HW110503  14.015   4.804   2.530
36202SOL    HW210504  13.916   4.777   2.419
36203SOL     OW10505   2.011   6.769  10.379
36203SOL    HW110506   1.927   6.734  10.407
36203SOL    HW210507   2.045   6.815  10.456
36204SOL     OW10508   4.663  13.818  14.450
36204SOL    HW110509   4.608  13.870  14.392
36204SOL    HW210510   4.615  13.814  14.532
36205SOL     OW10511  13.842   5.173   5.651
36205SOL    HW110512  13.907   5.162   5.582
36205SOL    HW210513  13.886   5.224   5.718
36206SOL     OW10514   7.269   1.013   0.644
36206SOL    HW110515   7.225   0.984   0.723
36206SOL    HW210516   7.271   1.109   0.651
36207SOL     OW10517  13.040   4.540  10.819
36207SOL    HW110518  12.961   4.588  10.845
36207SOL    HW210519  13.007   4.456  10.787
36208SOL     OW10520  14.775   9.689   8.339
36208SOL    HW110521  14.745   9.642   8.261
36208SOL    HW210522  14.763   9.781   8.317
36209SOL     OW10523  12.662   7.977   5.252
36209SOL    HW110524  12.642   7.885   5.265
36209SOL    HW210525  12.602   8.006   5.183
36210SOL     OW10526   0.158   6.008   5.781
36210SOL    HW110527   0.242   6.054   5.775
36210SOL    HW210528   0.110   6.053   5.851
36211SOL     OW10529  10.862   4.446   3.425
36211SOL    HW110530  10.944   4.420   3.468
36211SOL    HW210531  10.836   4.368   3.377
36212SOL     OW10532   3.789   6.363   2.580
36212SOL    HW110533   3.824   6.342   2.666
36212SOL    HW210534   3.853   6.328   2.518
36213SOL     OW10535  10.728  10.307  12.761
36213SOL    HW110536  10.764  10.230  12.719
36213SOL    HW210537  10.792  10.330  12.828
36214SOL     OW10538   4.271   6.679  11.790
36214SOL    HW110539   4.261   6.588  11.763
36214SOL    HW210540   4.313   6.675  11.876
36215SOL     OW10541   4.057   7.393   9.509
36215SOL    HW110542   4.120   7.409   9.439
36215SOL    HW210543   4.105   7.343   9.575
36216SOL     OW10544   6.234   6.612   0.708
36216SOL    HW110545   6.269   6.563   0.634
36216SOL    HW210546   6.139   6.601   0.701
36217SOL     OW10547  11.213   3.116  12.028
36217SOL    HW110548  11.121   3.093  12.044
36217SOL    HW210549  11.262   3.060  12.088
36218SOL     OW10550  11.195   5.128   1.859
36218SOL    HW110551  11.183   5.034   1.850
36218SOL    HW210552  11.254   5.138   1.934
36219SOL     OW10553   1.161   3.416  11.945
36219SOL    HW110554   1.151   3.322  11.937
36219SOL    HW210555   1.077   3.452  11.919
36220SOL     OW10556   7.179   1.509   4.302
36220SOL    HW110557   7.233   1.544   4.373
36220SOL    HW210558   7.242   1.475   4.238
36221SOL     OW10559   4.609   3.843   3.660
36221SOL    HW110560   4.517   3.817   3.661
36221SOL    HW210561   4.654   3.777   3.713
36222SOL     OW10562   5.175   3.094  12.006
36222SOL    HW110563   5.170   3.120  11.914
36222SOL    HW210564   5.149   3.002  12.006
36223SOL     OW10565   0.892   9.587  10.395
36223SOL    HW110566   0.886   9.504  10.347
36223SOL    HW210567   0.803   9.622  10.395
36224SOL     OW10568   8.192  13.728   7.608
36224SOL    HW110569   8.173  13.818   7.583
36224SOL    HW210570   8.147  13.674   7.543
36225SOL     OW10571   5.566   5.507  13.203
36225SOL    HW110572   5.587   5.413  13.200
36225SOL    HW210573   5.644   5.549  13.238
36226SOL     OW10574   2.720   7.681  13.032
36226SOL    HW110575   2.642   7.717  12.990
36226SOL    HW210576   2.688   7.641  13.113
36227SOL     OW10577   1.534  10.146   3.735
36227SOL    HW110578   1.607  10.207   3.724
36227SOL    HW210579   1.576  10.060   3.741
36228SOL     OW10580   9.036   4.285   6.427
36228SOL    HW110581   8.961   4.344   6.435
36228SOL    HW210582   8.999   4.197   6.442
36229SOL     OW10583   6.327  13.207   5.604
36229SOL    HW110584   6.277  13.276   5.561
36229SOL    HW210585   6.340  13.238   5.694
36230SOL     OW10586  11.175  13.616  13.150
36230SOL    HW110587  11.214  13.700  13.124
36230SOL    HW210588  11.098  13.640  13.202
36231SOL     OW10589   9.314  13.527   6.421
36231SOL    HW110590   9.368  13.448   6.424
36231SOL    HW210591   9.293  13.538   6.328
36232SOL     OW10592  11.260  11.498   7.647
36232SOL    HW110593  11.334  11.449   7.611
36232SOL    HW210594  11.281  11.508   7.740
36233SOL     OW10595   8.860   6.494  10.405
36233SOL    HW110596   8.886   6.573  10.358
36233SOL    HW210597   8.936   6.436  10.400
36234SOL     OW10598   1.643  12.800  14.729
36234SOL    HW110599   1.731  12.782  14.763
36234SOL    HW210600   1.653  12.882  14.681
36235SOL     OW10601  11.307  14.544   8.473
36235SOL    HW110602  11.380  14.522   8.416
36235SOL    HW210603  11.332  14.626   8.515
36236SOL     OW10604  14.553   7.301  12.859
36236SOL    HW110605  14.619   7.237  12.832
36236SOL    HW210606  14.561   7.305  12.955
36237SOL     OW10607  13.325  10.424   4.486
36237SOL    HW110608  13.238  10.450   4.518
36237SOL    HW210609  13.386  10.466   4.546
36238SOL     OW10610   3.238  11.407  13.335
36238SOL    HW110611   3.197  11.493  13.343
36238SOL    HW210612   3.314  11.411  13.394
36239SOL     OW10613  11.950   9.202  12.895
36239SOL    HW110614  11.865   9.194  12.938
36239SOL    HW210615  12.000   9.126  12.924
36240SOL     OW10616   7.848   9.701   7.227
36240SOL    HW110617   7.890   9.622   7.193
36240SOL    HW210618   7.803   9.739   7.151
36241SOL     OW10619   1.236   6.729  10.889
36241SOL    HW110620   1.302   6.740  10.957
36241SOL    HW210621   1.237   6.812  10.840
36242SOL     OW10622   3.656   5.421  11.219
36242SOL    HW110623   3.669   5.469  11.300
36242SOL    HW210624   3.583   5.466  11.176
36243SOL     OW10625   9.882  12.517  13.544
36243SOL    HW110626   9.800  12.566  13.534
36243SOL    HW210627   9.933  12.539  13.467
36244SOL     OW10628   5.209   0.116  10.704
36244SOL    HW110629   5.238   0.080  10.788
36244SOL    HW210630   5.118   0.089  10.696
36245SOL     OW10631   6.864   8.206   3.780
36245SOL    HW110632   6.837   8.124   3.822
36245SOL    HW210633   6.960   8.202   3.780
36246SOL     OW10634   7.780   2.484   3.482
36246SOL    HW110635   7.768   2.495   3.576
36246SOL    HW210636   7.874   2.497   3.468
36247SOL     OW10637  10.187   9.273   9.538
36247SOL    HW110638  10.282   9.286   9.542
36247SOL    HW210639  10.174   9.216   9.462
36248SOL     OW10640   3.796   8.019   9.787
36248SOL    HW110641   3.816   7.948   9.727
36248SOL    HW210642   3.856   8.089   9.763
36249SOL     OW10643   0.904   6.101   8.191
36249SOL    HW110644   0.874   6.070   8.277
36249SOL    HW210645   0.994   6.069   8.184
36250SOL     OW10646   5.971   6.099   9.749
36250SOL    HW110647   6.041   6.067   9.805
36250SOL    HW210648   5.894   6.047   9.773
36251SOL     OW10649   0.396   5.491   1.882
36251SOL    HW110650   0.304   5.475   1.863
36251SOL    HW210651   0.404   5.472   1.976
36252SOL     OW10652  13.583   4.785   9.550
36252SOL    HW110653  13.601   4.879   9.561
36252SOL    HW210654  13.654   4.754   9.494
36253SOL     OW10655  10.458  10.824   8.825
36253SOL    HW110656  10.511  10.822   8.905
36253SOL    HW210657  10.429  10.915   8.817
36254SOL     OW10658   8.758   2.023   4.204
36254SOL    HW110659   8.710   1.949   4.166
36254SOL    HW210660   8.848   1.990   4.215
36255SOL     OW10661  10.326  12.331  14.744
36255SOL    HW110662  10.353  12.244  14.776
36255SOL    HW210663  10.239  12.344  14.781
36256SOL     OW10664   1.542  13.305   7.177
36256SOL    HW110665   1.468  13.278   7.231
36256SOL    HW210666   1.618  13.294   7.233
36257SOL     OW10667   8.040   3.534   2.138
36257SOL    HW110668   8.106   3.467   2.157
36257SOL    HW210669   8.021   3.523   2.045
36258SOL     OW10670  14.804   5.757  12.630
36258SOL    HW110671  14.734   5.795  12.684
36258SOL    HW210672   0.002   5.774  12.679
36259SOL     OW10673  13.544   8.065   9.148
36259SOL    HW110674  13.615   8.028   9.200
36259SOL    HW210675  13.498   8.125   9.207
36260SOL     OW10676   7.820  14.010   5.713
36260SOL    HW110677   7.778  13.927   5.737
36260SOL    HW210678   7.901  14.012   5.764
36261SOL     OW10679   9.724  12.384   0.913
36261SOL    HW110680   9.674  12.311   0.950
36261SOL    HW210681   9.690  12.462   0.957
36262SOL     OW10682   1.246   9.578   3.089
36262SOL    HW110683   1.155   9.548   3.092
36262SOL    HW210684   1.261   9.601   2.997
36263SOL     OW10685   9.008   9.563   0.835
36263SOL    HW110686   9.069   9.632   0.811
36263SOL    HW210687   8.922   9.596   0.808
36264SOL     OW10688  12.157   3.361   3.892
36264SOL    HW110689  12.211   3.322   3.823
36264SOL    HW210690  12.210   3.352   3.971
36265SOL     OW10691   2.652   9.306   1.738
36265SOL    HW110692   2.714   9.237   1.764
36265SOL    HW210693   2.707   9.382   1.720
36266SOL     OW10694   4.299  14.154   9.062
36266SOL    HW110695   4.222  14.180   9.011
36266SOL    HW210696   4.262  14.124   9.146
36267SOL     OW10697  14.399   5.556  10.896
36267SOL    HW110698  14.403   5.495  10.970
36267SOL    HW210699  14.489   5.558  10.862
36268SOL     OW10700   5.247   4.915   7.015
36268SOL    HW110701   5.184   4.963   7.069
36268SOL    HW210702   5.330   4.959   7.031
36269SOL     OW10703   8.426  13.652   0.590
36269SOL    HW110704   8.389  13.572   0.626
36269SOL    HW210705   8.450  13.704   0.666
36270SOL     OW10706   2.787  14.544   0.016
36270SOL    HW110707   2.824  14.594   0.089
36270SOL    HW210708   2.846  14.560  14.825
36271SOL     OW10709  14.284  14.527   8.816
36271SOL    HW110710  14.196  14.540   8.850
36271SOL    HW210711  14.341  14.567   8.882
36272SOL     OW10712   1.612   9.803   6.299
36272SOL    HW110713   1.536   9.801   6.241
36272SOL    HW210714   1.628   9.711   6.321
36273SOL     OW10715  14.590   8.747   2.018
36273SOL    HW110716  14.672   8.698   2.009
36273SOL    HW210717  14.613   8.821   2.075
36274SOL     OW10718   5.962  10.371  14.374
36274SOL    HW110719   5.868  10.377  14.357
36274SOL    HW210720   6.002  10.433  14.313
36275SOL     OW10721   2.062   8.525  14.438
36275SOL    HW110722   2.122   8.538  14.512
36275SOL    HW210723   2.083   8.597  14.378
36276SOL     OW10724   9.666  11.443   3.662
36276SOL    HW110725   9.735  11.489   3.614
36276SOL    HW210726   9.678  11.351   3.638
36277SOL     OW10727  12.080   5.377  10.824
36277SOL    HW110728  12.121   5.380  10.738
36277SOL    HW210729  12.143   5.419  10.883
36278SOL     OW10730  10.640   6.004  10.185
36278SOL    HW110731  10.684   6.078  10.142
36278SOL    HW210732  10.711   5.942  10.203
36279SOL     OW10733  11.145   8.911   5.751
36279SOL    HW110734  11.063   8.879   5.715
36279SOL    HW210735  11.143   9.005   5.736
36280SOL     OW10736  14.551  13.785   4.131
36280SOL    HW110737  14.593  13.857   4.178
36280SOL    HW210738  14.598  13.781   4.048
36281SOL     OW10739  12.570   6.433   2.192
36281SOL    HW110740  12.573   6.404   2.283
36281SOL    HW210741  12.618   6.365   2.143
36282SOL     OW10742   4.399   7.426  13.602
36282SOL    HW110743   4.432   7.359  13.542
36282SOL    HW210744   4.428   7.509  13.565
36283SOL     OW10745   4.382  11.630  11.717
36283SOL    HW110746   4.360  11.582  11.637
36283SOL    HW210747   4.441  11.572  11.764
36284SOL     OW10748  11.401   0.834   5.475
36284SOL    HW110749  11.430   0.753   5.519
36284SOL    HW210750  11.316   0.811   5.437
36285SOL     OW10751  13.464   4.039   0.230
36285SOL    HW110752  13.379   4.082   0.221
36285SOL    HW210753  13.444   3.946   0.218
36286SOL     OW10754   2.364   1.203  13.384
36286SOL    HW110755   2.422   1.162  13.320
36286SOL    HW210756   2.417   1.208  13.464
36287SOL     OW10757   8.320   3.871  12.687
36287SOL    HW110758   8.370   3.816  12.626
36287SOL    HW210759   8.231   3.835  12.685
36288SOL     OW10760  11.771   5.233   3.901
36288SOL    HW110761  11.698   5.294   3.916
36288SOL    HW210762  11.749   5.191   3.818
36289SOL     OW10763   9.770  14.803   7.500
36289SOL    HW110764   9.820  14.727   7.528
36289SOL    HW210765   9.811  14.877   7.544
36290SOL     OW10766   6.563  13.692  12.742
36290SOL    HW110767   6.511  13.618  12.710
36290SOL    HW210768   6.654  13.666  12.728
36291SOL     OW10769   3.769   3.710   7.737
36291SOL    HW110770   3.757   3.644   7.805
36291SOL    HW210771   3.683   3.717   7.696
36292SOL     OW10772   5.084  11.416   3.381
36292SOL    HW110773   4.998  11.375   3.392
36292SOL    HW210774   5.122  11.370   3.306
36293SOL     OW10775   8.411   4.109   3.297
36293SOL    HW110776   8.463   4.042   3.252
36293SOL    HW210777   8.468   4.141   3.367
36294SOL     OW10778  14.455   4.150  11.542
36294SOL    HW110779  14.410   4.066  11.545
36294SOL    HW210780  14.401   4.205  11.485
36295SOL     OW10781  11.126   1.443   2.482
36295SOL    HW110782  11.179   1.475   2.409
36295SOL    HW210783  11.079   1.368   2.447
36296SOL     OW10784  12.870   1.447   4.462
36296SOL    HW110785  12.934   1.379   4.441
36296SOL    HW210786  12.816   1.410   4.531
36297SOL     OW10787   6.099  12.986  11.375
36297SOL    HW110788   6.126  12.943  11.294
36297SOL    HW210789   6.025  12.934  11.406
36298SOL     OW10790  10.402   5.504   6.311
36298SOL    HW110791  10.443   5.590   6.323
36298SOL    HW210792  10.469   5.450   6.271
36299SOL     OW10793   5.726   9.791   2.816
36299SOL    HW110794   5.782   9.852   2.768
36299SOL    HW210795   5.735   9.817   2.908
36300SOL     OW10796  12.634   2.217   4.442
36300SOL    HW110797  12.636   2.132   4.486
36300SOL    HW210798  12.597   2.277   4.508
36301SOL     OW10799   9.215   2.934  11.399
36301SOL    HW110800   9.242   2.935  11.491
36301SOL    HW210801   9.196   2.842  11.380
36302SOL     OW10802   1.557   2.912   4.033
36302SOL    HW110803   1.555   3.003   4.003
36302SOL    HW210804   1.582   2.918   4.126
36303SOL     OW10805   4.797   0.732   8.884
36303SOL    HW110806   4.759   0.644   8.875
36303SOL    HW210807   4.725   0.787   8.914
36304SOL     OW10808   9.888   4.717   9.359
36304SOL    HW110809   9.846   4.793   9.318
36304SOL    HW210810   9.911   4.660   9.286
36305SOL     OW10811   2.967  12.628   4.780
36305SOL    HW110812   2.895  12.612   4.719
36305SOL    HW210813   2.927  12.679   4.851
36306SOL     OW10814   5.373   5.755  12.006
36306SOL    HW110815   5.377   5.804  12.088
36306SOL    HW210816   5.376   5.663  12.033
36307SOL     OW10817  12.816   7.450   4.122
36307SOL    HW110818  12.780   7.472   4.208
36307SOL    HW210819  12.840   7.357   4.129
36308SOL     OW10820  13.280   3.118   3.756
36308SOL    HW110821  13.374   3.099   3.765
36308SOL    HW210822  13.273   3.211   3.779
36309SOL     OW10823   9.861   4.381   1.773
36309SOL    HW110824   9.843   4.473   1.791
36309SOL    HW210825   9.930   4.383   1.706
36310SOL     OW10826  12.648   6.857   3.446
36310SOL    HW110827  12.589   6.822   3.380
36310SOL    HW210828  12.591   6.900   3.509
36311SOL     OW10829   1.697   7.837   5.556
36311SOL    HW110830   1.687   7.795   5.470
36311SOL    HW210831   1.623   7.898   5.561
36312SOL     OW10832   5.451   6.515  12.221
36312SOL    HW110833   5.540   6.480  12.219
36312SOL    HW210834   5.430   6.535  12.130
36313SOL     OW10835  13.898   1.961   8.116
36313SOL    HW110836  13.890   1.965   8.021
36313SOL    HW210837  13.965   1.895   8.132
36314SOL     OW10838   4.423   5.888  10.444
36314SOL    HW110839   4.395   5.896  10.353
36314SOL    HW210840   4.421   5.794  10.462
36315SOL     OW10841  12.695   9.572  11.700
36315SOL    HW110842  12.604   9.571  11.669
36315SOL    HW210843  12.725   9.661  11.682
36316SOL     OW10844   1.971   8.636  13.957
36316SOL    HW110845   1.922   8.625  13.875
36316SOL    HW210846   1.947   8.559  14.009
36317SOL     OW10847   1.011  13.509  11.317
36317SOL    HW110848   1.106  13.506  11.310
36317SOL    HW210849   0.988  13.434  11.371
36318SOL     OW10850   1.850   1.912  14.244
36318SOL    HW110851   1.929   1.966  14.249
36318SOL    HW210852   1.780   1.974  14.221
36319SOL     OW10853  10.981   7.295   5.285
36319SOL    HW110854  10.942   7.264   5.367
36319SOL    HW210855  11.062   7.244   5.278
36320SOL     OW10856   8.317   8.754  14.585
36320SOL    HW110857   8.310   8.708  14.500
36320SOL    HW210858   8.409   8.776  14.593
36321SOL     OW10859   0.962   0.358   6.452
36321SOL    HW110860   0.872   0.338   6.480
36321SOL    HW210861   0.982   0.441   6.495
36322SOL     OW10862   4.356   0.926   1.928
36322SOL    HW110863   4.378   0.931   1.835
36322SOL    HW210864   4.320   1.012   1.949
36323SOL     OW10865  12.527   3.461  10.620
36323SOL    HW110866  12.611   3.505  10.630
36323SOL    HW210867  12.474   3.521  10.567
36324SOL     OW10868  12.472  11.414  11.759
36324SOL    HW110869  12.460  11.367  11.841
36324SOL    HW210870  12.406  11.484  11.761
36325SOL     OW10871   0.819  14.197   0.746
36325SOL    HW110872   0.763  14.120   0.751
36325SOL    HW210873   0.784  14.256   0.812
36326SOL     OW10874   9.264   0.207  12.121
36326SOL    HW110875   9.176   0.192  12.087
36326SOL    HW210876   9.322   0.182  12.049
36327SOL     OW10877   1.105  10.835  12.170
36327SOL    HW110878   1.102  10.741  12.189
36327SOL    HW210879   1.198  10.858  12.176
36328SOL     OW10880   2.995  14.045   6.271
36328SOL    HW110881   3.041  14.114   6.319
36328SOL    HW210882   3.021  13.964   6.315
36329SOL     OW10883   3.228   8.042   6.795
36329SOL    HW110884   3.280   8.033   6.875
36329SOL    HW210885   3.150   7.989   6.810
36330SOL     OW10886   9.254   1.200   0.828
36330SOL    HW110887   9.289   1.272   0.882
36330SOL    HW210888   9.225   1.243   0.748
36331SOL     OW10889  12.574  13.827   6.606
36331SOL    HW110890  12.560  13.736   6.631
36331SOL    HW210891  12.643  13.858   6.664
36332SOL     OW10892   6.813   1.994   0.509
36332SOL    HW110893   6.883   1.984   0.573
36332SOL    HW210894   6.733   1.971   0.557
36333SOL     OW10895   8.262   8.812  12.044
36333SOL    HW110896   8.203   8.884  12.069
36333SOL    HW210897   8.206   8.734  12.048
36334SOL     OW10898   1.089  11.095   1.369
36334SOL    HW110899   1.150  11.147   1.317
36334SOL    HW210900   1.057  11.155   1.436
36335SOL     OW10901   2.898   2.712   3.967
36335SOL    HW110902   2.927   2.802   3.986
36335SOL    HW210903   2.836   2.692   4.036
36336SOL     OW10904   5.944   7.047   1.319
36336SOL    HW110905   5.926   7.018   1.408
36336SOL    HW210906   5.864   7.093   1.292
36337SOL     OW10907   7.324   0.647   0.310
36337SOL    HW110908   7.293   0.710   0.374
36337SOL    HW210909   7.415   0.630   0.334
36338SOL     OW10910   8.304  10.834   3.198
36338SOL    HW110911   8.359  10.895   3.247
36338SOL    HW210912   8.215  10.858   3.222
36339SOL     OW10913   7.175   0.101  12.357
36339SOL    HW110914   7.232   0.072  12.286
36339SOL    HW210915   7.118   0.026  12.374
36340SOL     OW10916   0.951   1.283  12.149
36340SOL    HW110917   0.882   1.220  12.170
36340SOL    HW210918   1.003   1.240  12.082
36341SOL     OW10919   2.559   3.789   3.476
36341SOL    HW110920   2.561   3.859   3.541
36341SOL    HW210921   2.494   3.817   3.411
36342SOL     OW10922   3.784  11.395   4.396
36342SOL    HW110923   3.718  11.419   4.461
36342SOL    HW210924   3.867  11.403   4.443
36343SOL     OW10925   8.133  10.228   7.512
36343SOL    HW110926   8.201  10.264   7.455
36343SOL    HW210927   8.170  10.145   7.544
36344SOL     OW10928   6.488   5.819   5.294
36344SOL    HW110929   6.412   5.765   5.315
36344SOL    HW210930   6.466   5.860   5.211
36345SOL     OW10931  13.549   6.046   0.773
36345SOL    HW110932  13.468   6.086   0.740
36345SOL    HW210933  13.579   6.104   0.842
36346SOL     OW10934   1.217   6.825   4.952
36346SOL    HW110935   1.247   6.815   4.862
36346SOL    HW210936   1.264   6.758   5.002
36347SOL     OW10937  10.458  11.961   1.188
36347SOL    HW110938  10.403  11.885   1.170
36347SOL    HW210939  10.452  12.013   1.108
36348SOL     OW10940   1.597  10.726   9.182
36348SOL    HW110941   1.676  10.702   9.132
36348SOL    HW210942   1.624  10.719   9.273
36349SOL     OW10943   9.812   6.402   0.392
36349SOL    HW110944   9.865   6.468   0.348
36349SOL    HW210945   9.838   6.407   0.484
36350SOL     OW10946   5.214   3.729  13.553
36350SOL    HW110947   5.129   3.686  13.567
36350SOL    HW210948   5.243   3.695  13.468
36351SOL     OW10949   9.617   0.765   7.814
36351SOL    HW110950   9.531   0.778   7.854
36351SOL    HW210951   9.679   0.794   7.881
36352SOL     OW10952  11.302   3.711  12.599
36352SOL    HW110953  11.218   3.753  12.583
36352SOL    HW210954  11.360   3.744  12.530
36353SOL     OW10955  12.633   8.412   2.787
36353SOL    HW110956  12.566   8.399   2.854
36353SOL    HW210957  12.643   8.507   2.781
36354SOL     OW10958   6.533   6.329   4.801
36354SOL    HW110959   6.535   6.417   4.839
36354SOL    HW210960   6.522   6.271   4.877
36355SOL     OW10961  11.166  14.693   8.186
36355SOL    HW110962  11.124  14.762   8.238
36355SOL    HW210963  11.126  14.612   8.218
36356SOL     OW10964  14.055  14.140  10.305
36356SOL    HW110965  14.134  14.183  10.274
36356SOL    HW210966  14.013  14.107  10.226
36357SOL     OW10967   2.234   2.180  13.419
36357SOL    HW110968   2.326   2.156  13.426
36357SOL    HW210969   2.234   2.275  13.405
36358SOL     OW10970   3.826  10.287   4.317
36358SOL    HW110971   3.895  10.237   4.273
36358SOL    HW210972   3.789  10.225   4.380
36359SOL     OW10973  12.260   5.342  10.382
36359SOL    HW110974  12.269   5.371  10.291
36359SOL    HW210975  12.332   5.280  10.394
36360SOL     OW10976   9.502   8.422   0.925
36360SOL    HW110977   9.479   8.407   1.017
36360SOL    HW210978   9.436   8.373   0.876
36361SOL     OW10979  12.303   3.769  10.223
36361SOL    HW110980  12.230   3.829  10.208
36361SOL    HW210981  12.372   3.801  10.165
36362SOL     OW10982  13.309   3.422  13.860
36362SOL    HW110983  13.239   3.458  13.805
36362SOL    HW210984  13.313   3.481  13.935
36363SOL     OW10985  11.742  10.054   6.414
36363SOL    HW110986  11.811  10.013   6.466
36363SOL    HW210987  11.670   9.992   6.416
36364SOL     OW10988   8.929   4.471   1.778
36364SOL    HW110989   8.894   4.543   1.726
36364SOL    HW210990   9.005   4.508   1.823
36365SOL     OW10991  13.823  11.172   8.553
36365SOL    HW110992  13.885  11.103   8.531
36365SOL    HW210993  13.831  11.183   8.648
36366SOL     OW10994   8.886   0.132   1.691
36366SOL    HW110995   8.944   0.056   1.691
36366SOL    HW210996   8.838   0.126   1.774
36367SOL     OW10997   2.943   2.033  12.151
36367SOL    HW110998   2.873   2.009  12.090
36367SOL    HW210999   2.897   2.067  12.228
36368SOL     OW11000  12.925   2.925   3.886
36368SOL    HW111001  12.855   2.893   3.830
36368SOL    HW211002  13.004   2.921   3.831
36369SOL     OW11003   4.494   7.635   7.263
36369SOL    HW111004   4.509   7.600   7.175
36369SOL    HW211005   4.433   7.708   7.249
36370SOL     OW11006   7.137   6.042   5.703
36370SOL    HW111007   7.053   6.076   5.734
36370SOL    HW211008   7.129   5.947   5.712
36371SOL     OW11009  12.871  13.180   4.178
36371SOL    HW111010  12.919  13.167   4.096
36371SOL    HW211011  12.867  13.275   4.189
36372SOL     OW11012  10.467   6.769   5.954
36372SOL    HW111013  10.463   6.858   5.920
36372SOL    HW211014  10.551   6.764   6.000
36373SOL     OW11015   2.977   1.935   6.431
36373SOL    HW111016   3.013   1.846   6.426
36373SOL    HW211017   2.950   1.944   6.522
36374SOL     OW11018   7.719  14.597   8.412
36374SOL    HW111019   7.782  14.626   8.346
36374SOL    HW211020   7.760  14.519   8.451
36375SOL     OW11021  14.845   7.021  11.920
36375SOL    HW111022   0.024   7.082  11.879
36375SOL    HW211023   0.018   6.949  11.951
36376SOL     OW11024   2.750  14.700   8.500
36376SOL    HW111025   2.658  14.726   8.509
36376SOL    HW211026   2.776  14.673   8.588
36377SOL     OW11027   5.259  11.656   8.945
36377SOL    HW111028   5.319  11.587   8.917
36377SOL    HW211029   5.172  11.617   8.936
36378SOL     OW11030   6.888   2.832   7.507
36378SOL    HW111031   6.862   2.757   7.560
36378SOL    HW211032   6.930   2.892   7.568
36379SOL     OW11033   0.183  11.877  11.899
36379SOL    HW111034   0.137  11.951  11.861
36379SOL    HW211035   0.276  11.898  11.887
36380SOL     OW11036   6.431   4.442   6.120
36380SOL    HW111037   6.523   4.458   6.100
36380SOL    HW211038   6.421   4.347   6.115
36381SOL     OW11039  11.900   3.764   4.559
36381SOL    HW111040  11.836   3.706   4.518
36381SOL    HW211041  11.952   3.797   4.486
36382SOL     OW11042  12.022   6.643   2.320
36382SOL    HW111043  12.017   6.655   2.226
36382SOL    HW211044  12.116   6.641   2.339
36383SOL     OW11045   5.766   4.249  14.638
36383SOL    HW111046   5.690   4.299  14.610
36383SOL    HW211047   5.837   4.280  14.583
36384SOL     OW11048   2.158   0.116   6.456
36384SOL    HW111049   2.196   0.028   6.460
36384SOL    HW211050   2.194   0.154   6.375
36385SOL     OW11051   3.069   4.405   0.898
36385SOL    HW111052   3.094   4.326   0.850
36385SOL    HW211053   2.989   4.379   0.946
36386SOL     OW11054   2.156   6.556   9.922
36386SOL    HW111055   2.105   6.475   9.917
36386SOL    HW211056   2.149   6.583  10.013
36387SOL     OW11057   2.207   8.307  13.892
36387SOL    HW111058   2.192   8.219  13.858
36387SOL    HW211059   2.302   8.320  13.885
36388SOL     OW11060   0.326   7.909  13.478
36388SOL    HW111061   0.375   7.941  13.403
36388SOL    HW211062   0.311   7.987  13.532
36389SOL     OW11063  13.782   1.836  13.468
36389SOL    HW111064  13.744   1.825  13.381
36389SOL    HW211065  13.867   1.877  13.453
36390SOL     OW11066   6.596   9.498   5.363
36390SOL    HW111067   6.653   9.525   5.290
36390SOL    HW211068   6.517   9.550   5.352
36391SOL     OW11069   6.127   4.332   8.229
36391SOL    HW111070   6.219   4.351   8.245
36391SOL    HW211071   6.084   4.418   8.228
36392SOL     OW11072  13.812  10.140   7.400
36392SOL    HW111073  13.881  10.116   7.338
36392SOL    HW211074  13.772  10.056   7.425
36393SOL     OW11075   1.785   9.333   8.105
36393SOL    HW111076   1.863   9.308   8.055
36393SOL    HW211077   1.762   9.255   8.155
36394SOL     OW11078   6.407   2.872   7.352
36394SOL    HW111079   6.422   2.817   7.430
36394SOL    HW211080   6.411   2.962   7.385
36395SOL     OW11081   2.614   8.135   6.423
36395SOL    HW111082   2.575   8.167   6.505
36395SOL    HW211083   2.641   8.214   6.377
36396SOL     OW11084  11.571  11.357   0.477
36396SOL    HW111085  11.552  11.324   0.390
36396SOL    HW211086  11.514  11.307   0.535
36397SOL     OW11087   9.559  11.239  12.086
36397SOL    HW111088   9.507  11.194  12.019
36397SOL    HW211089   9.501  11.308  12.118
36398SOL     OW11090  12.062   0.185  14.287
36398SOL    HW111091  12.030   0.262  14.334
36398SOL    HW211092  12.029   0.196  14.197
36399SOL     OW11093  11.071  13.933   9.517
36399SOL    HW111094  11.062  13.970   9.430
36399SOL    HW211095  11.165  13.917   9.528
36400SOL     OW11096  12.455   2.517   9.172
36400SOL    HW111097  12.512   2.459   9.120
36400SOL    HW211098  12.411   2.458   9.234
36401SOL     OW11099   9.648  11.389   8.872
36401SOL    HW111100   9.670  11.394   8.965
36401SOL    HW211101   9.572  11.447   8.862
36402SOL     OW11102   1.460   1.342   6.286
36402SOL    HW111103   1.453   1.385   6.201
36402SOL    HW211104   1.451   1.249   6.268
36403SOL     OW11105  12.776  10.329   6.216
36403SOL    HW111106  12.759  10.319   6.122
36403SOL    HW211107  12.774  10.423   6.230
36404SOL     OW11108   8.079   2.575  13.950
36404SOL    HW111109   8.075   2.627  14.030
36404SOL    HW211110   7.988   2.568  13.921
36405SOL     OW11111  12.594  11.007   3.627
36405SOL    HW111112  12.517  10.991   3.682
36405SOL    HW211113  12.572  11.084   3.575
36406SOL     OW11114  11.904   8.514   3.313
36406SOL    HW111115  11.856   8.477   3.387
36406SOL    HW211116  11.906   8.608   3.331
36407SOL     OW11117  11.631   1.761  14.167
36407SOL    HW111118  11.647   1.678  14.212
36407SOL    HW211119  11.559   1.742  14.107
36408SOL     OW11120  13.656  14.880   9.667
36408SOL    HW111121  13.597  14.852   9.737
36408SOL    HW211122  13.619  14.841   9.587
36409SOL     OW11123  12.994   1.688   8.064
36409SOL    HW111124  12.936   1.762   8.083
36409SOL    HW211125  12.970   1.661   7.975
36410SOL     OW11126   2.932   1.843  10.441
36410SOL    HW111127   3.010   1.894  10.462
36410SOL    HW211128   2.862   1.909  10.433
36411SOL     OW11129   5.298   4.933   5.813
36411SOL    HW111130   5.299   4.992   5.737
36411SOL    HW211131   5.391   4.923   5.836
36412SOL     OW11132  13.230   8.475   6.125
36412SOL    HW111133  13.219   8.383   6.099
36412SOL    HW211134  13.178   8.524   6.061
36413SOL     OW11135  10.118   2.739   0.418
36413SOL    HW111136  10.121   2.791   0.338
36413SOL    HW211137  10.029   2.751   0.451
36414SOL     OW11138  11.412   2.559   5.552
36414SOL    HW111139  11.379   2.501   5.484
36414SOL    HW211140  11.451   2.501   5.617
36415SOL     OW11141  10.528   0.203   3.552
36415SOL    HW111142  10.487   0.250   3.624
36415SOL    HW211143  10.556   0.272   3.491
36416SOL     OW11144   6.160   2.045   2.383
36416SOL    HW111145   6.134   2.097   2.458
36416SOL    HW211146   6.190   2.108   2.318
36417SOL     OW11147   7.686   3.713   6.315
36417SOL    HW111148   7.753   3.650   6.341
36417SOL    HW211149   7.734   3.788   6.280
36418SOL     OW11150   9.837  14.565   5.249
36418SOL    HW111151   9.897  14.517   5.307
36418SOL    HW211152   9.750  14.541   5.280
36419SOL     OW11153  14.878   1.738   4.112
36419SOL    HW111154   0.001   1.780   4.027
36419SOL    HW211155  14.851   1.807   4.172
36420SOL     OW11156   4.642  11.004  11.477
36420SOL    HW111157   4.699  11.081  11.476
36420SOL    HW211158   4.675  10.950  11.548
36421SOL     OW11159  10.290   1.495  14.046
36421SOL    HW111160  10.264   1.573  13.997
36421SOL    HW211161  10.347   1.528  14.116
36422SOL     OW11162   6.910   4.257   8.665
36422SOL    HW111163   6.895   4.314   8.740
36422SOL    HW211164   6.835   4.197   8.664
36423SOL     OW11165   8.523   5.277   0.841
36423SOL    HW111166   8.550   5.222   0.767
36423SOL    HW211167   8.601   5.282   0.897
36424SOL     OW11168  11.465  14.772   1.288
36424SOL    HW111169  11.536  14.708   1.292
36424SOL    HW211170  11.406  14.738   1.221
36425SOL     OW11171   1.459   4.165  13.565
36425SOL    HW111172   1.486   4.076  13.587
36425SOL    HW211173   1.464   4.168  13.469
36426SOL     OW11174   4.463  10.245  12.200
36426SOL    HW111175   4.513  10.325  12.182
36426SOL    HW211176   4.455  10.244  12.296
36427SOL     OW11177  11.868   8.424  14.147
36427SOL    HW111178  11.860   8.360  14.076
36427SOL    HW211179  11.820   8.500  14.117
36428SOL     OW11180   3.628   9.897  11.461
36428SOL    HW111181   3.596   9.981  11.429
36428SOL    HW211182   3.577   9.832  11.411
36429SOL     OW11183   6.837   1.420  14.271
36429SOL    HW111184   6.823   1.336  14.227
36429SOL    HW211185   6.864   1.397  14.360
36430SOL     OW11186   4.473  12.245   5.811
36430SOL    HW111187   4.476  12.157   5.775
36430SOL    HW211188   4.560  12.258   5.850
36431SOL     OW11189   7.549  10.431   1.745
36431SOL    HW111190   7.639  10.414   1.773
36431SOL    HW211191   7.534  10.523   1.767
36432SOL     OW11192   9.153  12.983   9.145
36432SOL    HW111193   9.204  13.064   9.154
36432SOL    HW211194   9.204  12.917   9.191
36433SOL     OW11195   5.615   6.108   0.839
36433SOL    HW111196   5.660   6.192   0.828
36433SOL    HW211197   5.611   6.096   0.934
36434SOL     OW11198   5.204  10.334   6.103
36434SOL    HW111199   5.192  10.239   6.110
36434SOL    HW211200   5.233  10.347   6.012
36435SOL     OW11201  12.177  12.471   6.068
36435SOL    HW111202  12.143  12.536   6.129
36435SOL    HW211203  12.250  12.515   6.024
36436SOL     OW11204   1.771   4.633  11.210
36436SOL    HW111205   1.795   4.544  11.235
36436SOL    HW211206   1.724   4.667  11.286
36437SOL     OW11207   0.456   9.368  12.027
36437SOL    HW111208   0.434   9.456  12.057
36437SOL    HW211209   0.432   9.369  11.934
36438SOL     OW11210  11.793   0.860   9.042
36438SOL    HW111211  11.790   0.861   9.137
36438SOL    HW211212  11.746   0.938   9.015
36439SOL     OW11213   9.631  10.262   9.200
36439SOL    HW111214   9.642  10.202   9.273
36439SOL    HW211215   9.662  10.213   9.123
36440SOL     OW11216   2.086   0.909  11.808
36440SOL    HW111217   2.089   0.935  11.716
36440SOL    HW211218   2.047   0.983  11.853
36441SOL     OW11219   5.877   3.730   3.279
36441SOL    HW111220   5.812   3.689   3.336
36441SOL    HW211221   5.954   3.742   3.335
36442SOL     OW11222   5.803   5.324   2.063
36442SOL    HW111223   5.843   5.323   2.150
36442SOL    HW211224   5.842   5.250   2.018
36443SOL     OW11225  11.669  14.296   1.194
36443SOL    HW111226  11.719  14.224   1.232
36443SOL    HW211227  11.582  14.260   1.180
36444SOL     OW11228   9.560  10.404   8.717
36444SOL    HW111229   9.601  10.397   8.630
36444SOL    HW211230   9.468  10.418   8.698
36445SOL     OW11231   2.296   4.569   9.962
36445SOL    HW111232   2.211   4.525   9.952
36445SOL    HW211233   2.285   4.624  10.039
36446SOL     OW11234   8.026   0.177  14.657
36446SOL    HW111235   7.983   0.245  14.605
36446SOL    HW211236   8.074   0.125  14.593
36447SOL     OW11237  13.137  12.474   6.441
36447SOL    HW111238  13.227  12.449   6.461
36447SOL    HW211239  13.085  12.423   6.503
36448SOL     OW11240   1.247   8.384  12.425
36448SOL    HW111241   1.165   8.338  12.407
36448SOL    HW211242   1.240   8.411  12.516
36449SOL     OW11243   5.116   3.802  11.835
36449SOL    HW111244   5.089   3.779  11.746
36449SOL    HW211245   5.189   3.863  11.823
36450SOL     OW11246   4.708  13.972   5.133
36450SOL    HW111247   4.705  13.877   5.140
36450SOL    HW211248   4.713  14.003   5.223
36451SOL     OW11249   4.635   5.285   0.991
36451SOL    HW111250   4.590   5.226   0.931
36451SOL    HW211251   4.569   5.349   1.016
36452SOL     OW11252   5.739   6.375   0.821
36452SOL    HW111253   5.700   6.429   0.751
36452SOL    HW211254   5.809   6.429   0.856
36453SOL     OW11255   0.179   6.652  14.463
36453SOL    HW111256   0.243   6.707  14.418
36453SOL    HW211257   0.104   6.649  14.404
36454SOL     OW11258  13.199   2.052   1.407
36454SOL    HW111259  13.203   2.034   1.313
36454SOL    HW211260  13.155   2.137   1.413
36455SOL     OW11261   0.000  13.039   8.512
36455SOL    HW111262   0.045  12.956   8.529
36455SOL    HW211263  14.831  13.023   8.433
36456SOL     OW11264   5.428  12.449  13.378
36456SOL    HW111265   5.480  12.453  13.298
36456SOL    HW211266   5.342  12.482  13.353
36457SOL     OW11267   2.432   8.217   1.363
36457SOL    HW111268   2.418   8.289   1.302
36457SOL    HW211269   2.513   8.240   1.409
36458SOL     OW11270   5.858   9.033   5.293
36458SOL    HW111271   5.950   9.023   5.271
36458SOL    HW211272   5.851   9.119   5.334
36459SOL     OW11273  14.087   3.987   8.849
36459SOL    HW111274  14.084   4.005   8.943
36459SOL    HW211275  14.125   4.066   8.811
36460SOL     OW11276   2.298   8.947   7.487
36460SOL    HW111277   2.352   8.915   7.559
36460SOL    HW211278   2.211   8.911   7.504
36461SOL     OW11279  13.482  13.968   0.548
36461SOL    HW111280  13.527  13.895   0.590
36461SOL    HW211281  13.440  13.930   0.472
36462SOL     OW11282   8.571   3.598   1.574
36462SOL    HW111283   8.652   3.561   1.539
36462SOL    HW211284   8.503   3.536   1.547
36463SOL     OW11285  11.657   6.535   1.523
36463SOL    HW111286  11.638   6.443   1.536
36463SOL    HW211287  11.752   6.539   1.510
36464SOL     OW11288  12.586   1.500   2.282
36464SOL    HW111289  12.613   1.558   2.354
36464SOL    HW211290  12.667   1.479   2.237
36465SOL     OW11291   5.166   4.534  12.813
36465SOL    HW111292   5.117   4.452  12.810
36465SOL    HW211293   5.175   4.553  12.907
36466SOL     OW11294  13.094   6.400   9.777
36466SOL    HW111295  13.044   6.405   9.859
36466SOL    HW211296  13.185   6.398   9.804
36467SOL     OW11297   3.009   5.547   6.116
36467SOL    HW111298   3.066   5.474   6.139
36467SOL    HW211299   2.947   5.553   6.189
36468SOL     OW11300  13.139   4.337  11.679
36468SOL    HW111301  13.200   4.263  11.678
36468SOL    HW211302  13.161   4.385  11.759
36469SOL     OW11303   8.195   9.394   1.875
36469SOL    HW111304   8.140   9.446   1.816
36469SOL    HW211305   8.281   9.436   1.870
36470SOL     OW11306  14.662  13.407   5.915
36470SOL    HW111307  14.575  13.443   5.896
36470SOL    HW211308  14.720  13.454   5.855
36471SOL     OW11309   7.918   5.460   0.160
36471SOL    HW111310   7.932   5.439   0.252
36471SOL    HW211311   7.854   5.531   0.161
36472SOL     OW11312  14.416   9.455  11.672
36472SOL    HW111313  14.508   9.446  11.648
36472SOL    HW211314  14.413   9.432  11.765
36473SOL     OW11315   2.439   3.156   6.026
36473SOL    HW111316   2.522   3.137   6.070
36473SOL    HW211317   2.429   3.251   6.033
36474SOL     OW11318  11.294  10.945   4.124
36474SOL    HW111319  11.322  10.865   4.081
36474SOL    HW211320  11.358  11.011   4.098
36475SOL     OW11321   0.672   0.468   1.585
36475SOL    HW111322   0.579   0.472   1.606
36475SOL    HW211323   0.716   0.511   1.658
36476SOL     OW11324   3.863  14.331  14.336
36476SOL    HW111325   3.864  14.249  14.385
36476SOL    HW211326   3.948  14.371  14.353
36477SOL     OW11327   0.578   9.419   9.560
36477SOL    HW111328   0.503   9.380   9.605
36477SOL    HW211329   0.546   9.503   9.527
36478SOL     OW11330  11.916   3.028  14.594
36478SOL    HW111331  11.992   3.085  14.587
36478SOL    HW211332  11.850   3.069  14.538
36479SOL     OW11333   3.875   0.945  12.602
36479SOL    HW111334   3.821   0.998  12.660
36479SOL    HW211335   3.965   0.959  12.632
36480SOL     OW11336   7.133  14.263   6.382
36480SOL    HW111337   7.205  14.206   6.409
36480SOL    HW211338   7.156  14.349   6.418
36481SOL     OW11339   3.910  10.729  14.604
36481SOL    HW111340   3.893  10.639  14.576
36481SOL    HW211341   3.826  10.774  14.593
36482SOL     OW11342  12.957  11.736  10.828
36482SOL    HW111343  13.031  11.690  10.788
36482SOL    HW211344  12.995  11.779  10.905
36483SOL     OW11345  11.411   5.090   7.900
36483SOL    HW111346  11.323   5.124   7.884
36483SOL    HW211347  11.419   5.015   7.842
36484SOL     OW11348   4.156   4.981  11.956
36484SOL    HW111349   4.121   5.012  12.039
36484SOL    HW211350   4.161   5.060  11.901
36485SOL     OW11351   8.760  11.388   8.027
36485SOL    HW111352   8.726  11.448   8.094
36485SOL    HW211353   8.714  11.413   7.947
36486SOL     OW11354   0.441   8.908  14.406
36486SOL    HW111355   0.443   9.001  14.386
36486SOL    HW211356   0.353   8.893  14.441
36487SOL     OW11357  10.512   6.056   1.004
36487SOL    HW111358  10.582   6.119   0.989
36487SOL    HW211359  10.449   6.073   0.934
36488SOL     OW11360   8.494   8.637  12.889
36488SOL    HW111361   8.581   8.651  12.852
36488SOL    HW211362   8.466   8.723  12.919
36489SOL     OW11363   2.994   1.344   1.911
36489SOL    HW111364   2.951   1.399   1.976
36489SOL    HW211365   3.011   1.262   1.956
36490SOL     OW11366   3.972  14.040   0.226
36490SOL    HW111367   3.921  14.097   0.284
36490SOL    HW211368   4.029  13.990   0.285
36491SOL     OW11369  10.760  12.888  14.041
36491SOL    HW111370  10.823  12.953  14.010
36491SOL    HW211371  10.690  12.889  13.975
36492SOL     OW11372  10.444   9.364  10.195
36492SOL    HW111373  10.514   9.327  10.249
36492SOL    HW211374  10.399   9.288  10.158
36493SOL     OW11375   1.966   2.206   5.227
36493SOL    HW111376   1.876   2.214   5.259
36493SOL    HW211377   2.010   2.284   5.261
36494SOL     OW11378   8.411  12.369   8.453
36494SOL    HW111379   8.422  12.432   8.524
36494SOL    HW211380   8.487  12.383   8.397
36495SOL     OW11381   9.038   2.292   2.557
36495SOL    HW111382   9.079   2.287   2.471
36495SOL    HW211383   8.945   2.305   2.539
36496SOL     OW11384   7.032   1.724   0.053
36496SOL    HW111385   6.952   1.776   0.065
36496SOL    HW211386   7.003   1.642   0.014
36497SOL     OW11387   0.154   2.681  14.772
36497SOL    HW111388   0.064   2.685  14.807
36497SOL    HW211389   0.191   2.767  14.794
36498SOL     OW11390  10.118   3.243  11.055
36498SOL    HW111391  10.116   3.174  11.122
36498SOL    HW211392  10.209   3.270  11.051
36499SOL     OW11393  14.026  10.960   6.343
36499SOL    HW111394  13.958  10.989   6.404
36499SOL    HW211395  14.097  10.929   6.400
36500SOL     OW11396   6.603   4.478   5.835
36500SOL    HW111397   6.538   4.437   5.893
36500SOL    HW211398   6.655   4.405   5.802
36501SOL     OW11399   9.570   6.547  13.453
36501SOL    HW111400   9.549   6.524  13.362
36501SOL    HW211401   9.486   6.538  13.499
36502SOL     OW11402   2.494  12.889   8.829
36502SOL    HW111403   2.505  12.796   8.847
36502SOL    HW211404   2.421  12.915   8.886
36503SOL     OW11405  12.094  11.449  13.451
36503SOL    HW111406  12.114  11.541  13.469
36503SOL    HW211407  12.038  11.452  13.373
36504SOL     OW11408   0.705   3.398   3.864
36504SOL    HW111409   0.775   3.461   3.879
36504SOL    HW211410   0.751   3.315   3.850
36505SOL     OW11411   1.448  12.127  10.214
36505SOL    HW111412   1.431  12.210  10.258
36505SOL    HW211413   1.460  12.151  10.122
36506SOL     OW11414   2.113   9.691  11.656
36506SOL    HW111415   2.065   9.701  11.573
36506SOL    HW211416   2.197   9.653  11.631
36507SOL     OW11417   1.458   0.312   2.823
36507SOL    HW111418   1.390   0.277   2.766
36507SOL    HW211419   1.540   0.280   2.786
36508SOL     OW11420   5.664   0.321   8.918
36508SOL    HW111421   5.588   0.365   8.956
36508SOL    HW211422   5.718   0.392   8.884
36509SOL     OW11423   9.022   4.283   9.444
36509SOL    HW111424   9.012   4.378   9.451
36509SOL    HW211425   8.935   4.248   9.462
36510SOL     OW11426   5.331   4.036   5.877
36510SOL    HW111427   5.334   4.124   5.839
36510SOL    HW211428   5.402   3.988   5.834
36511SOL     OW11429   8.135   1.103   3.897
36511SOL    HW111430   8.092   1.043   3.958
36511SOL    HW211431   8.120   1.190   3.934
36512SOL     OW11432  10.160   1.207  14.442
36512SOL    HW111433  10.135   1.229  14.532
36512SOL    HW211434  10.146   1.113  14.436
36513SOL     OW11435   9.148   0.244  10.803
36513SOL    HW111436   9.162   0.150  10.815
36513SOL    HW211437   9.069   0.263  10.854
36514SOL     OW11438   4.781   6.134  11.953
36514SOL    HW111439   4.730   6.166  12.028
36514SOL    HW211440   4.854   6.195  11.946
36515SOL     OW11441  10.687   7.018   6.390
36515SOL    HW111442  10.648   7.059   6.313
36515SOL    HW211443  10.637   7.053   6.464
36516SOL     OW11444  12.690   7.204  10.627
36516SOL    HW111445  12.647   7.280  10.666
36516SOL    HW211446  12.749   7.240  10.562
36517SOL     OW11447  13.575   8.428  13.284
36517SOL    HW111448  13.497   8.479  13.262
36517SOL    HW211449  13.542   8.340  13.299
36518SOL     OW11450  10.490   8.376   1.759
36518SOL    HW111451  10.413   8.353   1.812
36518SOL    HW211452  10.460   8.447   1.702
36519SOL     OW11453   7.497   3.668   8.199
36519SOL    HW111454   7.528   3.673   8.109
36519SOL    HW211455   7.506   3.575   8.222
36520SOL     OW11456  13.691   5.374  14.024
36520SOL    HW111457  13.627   5.303  14.032
36520SOL    HW211458  13.687   5.420  14.108
36521SOL     OW11459   1.472   8.702   8.180
36521SOL    HW111460   1.384   8.741   8.182
36521SOL    HW211461   1.509   8.732   8.096
36522SOL     OW11462  10.670   7.415   3.646
36522SOL    HW111463  10.678   7.332   3.693
36522SOL    HW211464  10.580   7.442   3.660
36523SOL     OW11465   7.993   2.447   5.556
36523SOL    HW111466   8.036   2.370   5.520
36523SOL    HW211467   8.065   2.506   5.580
36524SOL     OW11468  11.902  11.560   9.751
36524SOL    HW111469  11.857  11.608   9.820
36524SOL    HW211470  11.833  11.514   9.704
36525SOL     OW11471   9.093   3.936   4.574
36525SOL    HW111472   9.061   3.895   4.654
36525SOL    HW211473   9.180   3.968   4.597
36526SOL     OW11474   4.932  14.544  13.796
36526SOL    HW111475   4.974  14.460  13.810
36526SOL    HW211476   4.954  14.596  13.873
36527SOL     OW11477   1.239  11.117  12.649
36527SOL    HW111478   1.221  11.130  12.556
36527SOL    HW211479   1.233  11.022  12.661
36528SOL     OW11480   2.576   2.845  11.726
36528SOL    HW111481   2.585   2.752  11.748
36528SOL    HW211482   2.492   2.870  11.764
36529SOL     OW11483   0.970  13.051   6.331
36529SOL    HW111484   1.011  12.965   6.343
36529SOL    HW211485   1.016  13.108   6.391
36530SOL     OW11486  12.323  13.381   8.357
36530SOL    HW111487  12.306  13.464   8.402
36530SOL    HW211488  12.416  13.364   8.370
36531SOL     OW11489   5.020  14.460   9.044
36531SOL    HW111490   4.927  14.462   9.021
36531SOL    HW211491   5.056  14.539   9.003
36532SOL     OW11492  13.738  14.865   6.547
36532SOL    HW111493  13.708  14.836   6.461
36532SOL    HW211494  13.761   0.075   6.534
36533SOL     OW11495  12.518   3.633   3.269
36533SOL    HW111496  12.558   3.550   3.296
36533SOL    HW211497  12.500   3.679   3.351
36534SOL     OW11498   5.656   1.456   2.151
36534SOL    HW111499   5.621   1.373   2.119
36534SOL    HW211500   5.581   1.516   2.149
36535SOL     OW11501   6.470   7.134   9.305
36535SOL    HW111502   6.527   7.088   9.366
36535SOL    HW211503   6.431   7.066   9.251
36536SOL     OW11504   6.062   5.277   8.703
36536SOL    HW111505   6.097   5.343   8.763
36536SOL    HW211506   5.967   5.283   8.714
36537SOL     OW11507  11.108   7.433   2.394
36537SOL    HW111508  11.028   7.418   2.344
36537SOL    HW211509  11.122   7.527   2.389
36538SOL     OW11510   1.289   1.036  14.483
36538SOL    HW111511   1.200   1.025  14.449
36538SOL    HW211512   1.290   0.986  14.565
36539SOL     OW11513   8.247  12.763   6.134
36539SOL    HW111514   8.159  12.725   6.132
36539SOL    HW211515   8.272  12.762   6.227
36540SOL     OW11516   9.310   9.544   1.510
36540SOL    HW111517   9.255   9.605   1.460
36540SOL    HW211518   9.337   9.595   1.587
36541SOL     OW11519  12.599  10.085  10.184
36541SOL    HW111520  12.564  10.006  10.142
36541SOL    HW211521  12.694  10.077  10.175
36542SOL     OW11522   0.771   3.986   4.912
36542SOL    HW111523   0.691   4.025   4.949
36542SOL    HW211524   0.842   4.036   4.952
36543SOL     OW11525   4.702   6.347   9.081
36543SOL    HW111526   4.778   6.346   9.138
36543SOL    HW211527   4.633   6.304   9.132
36544SOL     OW11528  14.534   4.881   8.479
36544SOL    HW111529  14.456   4.906   8.528
36544SOL    HW211530  14.528   4.930   8.398
36545SOL     OW11531   0.228  12.840  11.387
36545SOL    HW111532   0.148  12.882  11.421
36545SOL    HW211533   0.272  12.808  11.465
36546SOL     OW11534  10.946   6.991   2.773
36546SOL    HW111535  10.856   6.968   2.748
36546SOL    HW211536  10.938   7.019   2.865
36547SOL     OW11537  10.280  14.513   4.308
36547SOL    HW111538  10.232  14.595   4.296
36547SOL    HW211539  10.239  14.473   4.385
36548SOL     OW11540   7.712   6.038   0.827
36548SOL    HW111541   7.624   6.002   0.837
36548SOL    HW211542   7.750   6.035   0.914
36549SOL     OW11543  12.347   2.967   5.050
36549SOL    HW111544  12.426   2.983   4.999
36549SOL    HW211545  12.293   3.045   5.035
36550SOL     OW11546   2.406  11.277   9.739
36550SOL    HW111547   2.401  11.300   9.646
36550SOL    HW211548   2.405  11.181   9.740
36551SOL     OW11549  11.337   4.093   6.509
36551SOL    HW111550  11.364   4.009   6.472
36551SOL    HW211551  11.416   4.147   6.507
36552SOL     OW11552   7.133  12.140  13.735
36552SOL    HW111553   7.049  12.186  13.741
36552SOL    HW211554   7.126  12.088  13.655
36553SOL     OW11555  14.171   8.801   4.463
36553SOL    HW111556  14.240   8.826   4.401
36553SOL    HW211557  14.138   8.884   4.497
36554SOL     OW11558  13.169   3.776   8.853
36554SOL    HW111559  13.114   3.852   8.837
36554SOL    HW211560  13.128   3.705   8.804
36555SOL     OW11561   0.052   9.757   6.748
36555SOL    HW111562  14.881   9.771   6.670
36555SOL    HW211563   0.062   9.845   6.785
36556SOL     OW11564   2.104   5.124  12.826
36556SOL    HW111565   2.047   5.051  12.801
36556SOL    HW211566   2.176   5.120  12.764
36557SOL     OW11567   1.455   5.476   2.903
36557SOL    HW111568   1.485   5.512   2.986
36557SOL    HW211569   1.371   5.434   2.924
36558SOL     OW11570   3.581   4.150   7.936
36558SOL    HW111571   3.513   4.110   7.881
36558SOL    HW211572   3.656   4.160   7.877
36559SOL     OW11573   7.681  14.619   5.879
36559SOL    HW111574   7.708  14.694   5.931
36559SOL    HW211575   7.750  14.609   5.813
36560SOL     OW11576   6.621   3.611   7.129
36560SOL    HW111577   6.692   3.598   7.066
36560SOL    HW211578   6.591   3.523   7.150
36561SOL     OW11579  12.281  10.628   3.993
36561SOL    HW111580  12.240  10.550   4.029
36561SOL    HW211581  12.305  10.604   3.903
36562SOL     OW11582   6.008   9.438  12.611
36562SOL    HW111583   6.053   9.504  12.557
36562SOL    HW211584   5.950   9.489  12.667
36563SOL     OW11585   7.690   2.212   2.951
36563SOL    HW111586   7.702   2.297   2.993
36563SOL    HW211587   7.770   2.163   2.972
36564SOL     OW11588   4.311   8.547  13.497
36564SOL    HW111589   4.331   8.618  13.435
36564SOL    HW211590   4.280   8.476  13.442
36565SOL     OW11591   7.583   5.300   4.873
36565SOL    HW111592   7.627   5.216   4.860
36565SOL    HW211593   7.499   5.289   4.827
36566SOL     OW11594   5.712  12.261  12.620
36566SOL    HW111595   5.671  12.322  12.559
36566SOL    HW211596   5.791  12.230  12.574
36567SOL     OW11597  12.776   9.102   1.941
36567SOL    HW111598  12.825   9.152   1.875
36567SOL    HW211599  12.719   9.044   1.890
36568SOL     OW11600   7.018   5.281   8.749
36568SOL    HW111601   6.999   5.218   8.679
36568SOL    HW211602   6.958   5.258   8.819
36569SOL     OW11603   9.573   5.387   8.542
36569SOL    HW111604   9.646   5.450   8.544
36569SOL    HW211605   9.509   5.426   8.483
36570SOL     OW11606  12.924  10.132  10.169
36570SOL    HW111607  12.911  10.223  10.197
36570SOL    HW211608  12.893  10.129  10.079
36571SOL     OW11609  12.654   7.429   1.210
36571SOL    HW111610  12.629   7.507   1.161
36571SOL    HW211611  12.630   7.448   1.300
36572SOL     OW11612  10.209   4.050   1.549
36572SOL    HW111613  10.280   4.078   1.493
36572SOL    HW211614  10.251   4.020   1.630
36573SOL     OW11615   4.187  13.458   2.637
36573SOL    HW111616   4.104  13.412   2.651
36573SOL    HW211617   4.162  13.549   2.624
36574SOL     OW11618  10.972  12.094   0.472
36574SOL    HW111619  10.925  12.045   0.405
36574SOL    HW211620  11.035  12.032   0.508
36575SOL     OW11621   7.544   5.562   7.260
36575SOL    HW111622   7.529   5.621   7.334
36575SOL    HW211623   7.567   5.620   7.188
36576SOL     OW11624   4.628   2.677   0.277
36576SOL    HW111625   4.541   2.673   0.317
36576SOL    HW211626   4.643   2.588   0.243
36577SOL     OW11627  13.085   1.279   4.598
36577SOL    HW111628  13.050   1.191   4.611
36577SOL    HW211629  13.129   1.299   4.680
36578SOL     OW11630  14.152   2.792   7.345
36578SOL    HW111631  14.234   2.743   7.338
36578SOL    HW211632  14.094   2.734   7.395
36579SOL     OW11633   0.765   4.163   4.655
36579SOL    HW111634   0.741   4.214   4.732
36579SOL    HW211635   0.688   4.108   4.638
36580SOL     OW11636   9.525  11.524   0.222
36580SOL    HW111637   9.506  11.583   0.150
36580SOL    HW211638   9.581  11.574   0.281
36581SOL     OW11639   0.765  10.739   9.211
36581SOL    HW111640   0.741  10.673   9.146
36581SOL    HW211641   0.860  10.728   9.223
36582SOL     OW11642   3.850   0.981  10.336
36582SOL    HW111643   3.832   1.016  10.423
36582SOL    HW211644   3.919   1.038  10.300
36583SOL     OW11645   2.289  10.145  12.223
36583SOL    HW111646   2.281  10.086  12.298
36583SOL    HW211647   2.362  10.203  12.245
36584SOL     OW11648  12.072  13.372   4.531
36584SOL    HW111649  12.151  13.408   4.489
36584SOL    HW211650  12.001  13.430   4.504
36585SOL     OW11651   7.948   4.885  13.067
36585SOL    HW111652   7.983   4.973  13.056
36585SOL    HW211653   7.987   4.854  13.149
36586SOL     OW11654  10.522   3.432   6.511
36586SOL    HW111655  10.494   3.499   6.573
36586SOL    HW211656  10.617   3.438   6.509
36587SOL     OW11657   1.631  13.886   0.415
36587SOL    HW111658   1.597  13.806   0.456
36587SOL    HW211659   1.715  13.901   0.457
36588SOL     OW11660  13.002   7.491   5.708
36588SOL    HW111661  12.986   7.528   5.622
36588SOL    HW211662  13.037   7.564   5.759
36589SOL     OW11663   1.052   4.559   1.125
36589SOL    HW111664   1.041   4.649   1.154
36589SOL    HW211665   1.071   4.510   1.205
36590SOL     OW11666   5.350  12.457   1.583
36590SOL    HW111667   5.388  12.389   1.638
36590SOL    HW211668   5.316  12.521   1.645
36591SOL     OW11669   7.157  10.239  10.404
36591SOL    HW111670   7.165  10.273  10.315
36591SOL    HW211671   7.083  10.287  10.442
36592SOL     OW11672   9.793   6.758   3.845
36592SOL    HW111673   9.826   6.690   3.904
36592SOL    HW211674   9.756   6.824   3.904
36593SOL     OW11675   2.828  11.037   4.810
36593SOL    HW111676   2.917  11.033   4.774
36593SOL    HW211677   2.841  11.046   4.905
36594SOL     OW11678   0.866  14.099   1.483
36594SOL    HW111679   0.943  14.150   1.460
36594SOL    HW211680   0.843  14.128   1.571
36595SOL     OW11681  13.014   7.905   6.093
36595SOL    HW111682  12.996   7.812   6.108
36595SOL    HW211683  13.102   7.919   6.128
36596SOL     OW11684   1.873   5.719   0.918
36596SOL    HW111685   1.851   5.645   0.862
36596SOL    HW211686   1.816   5.790   0.888
36597SOL     OW11687  12.150   4.192   5.097
36597SOL    HW111688  12.072   4.248   5.099
36597SOL    HW211689  12.223   4.252   5.111
36598SOL     OW11690   2.581   2.444   2.576
36598SOL    HW111691   2.576   2.467   2.669
36598SOL    HW211692   2.498   2.473   2.540
36599SOL     OW11693   2.366   2.278  14.826
36599SOL    HW111694   2.364   2.370  14.851
36599SOL    HW211695   2.284   2.265  14.778
36600SOL     OW11696   0.032   9.329  11.119
36600SOL    HW111697  14.826   9.365  11.113
36600SOL    HW211698   0.074   9.357  11.037
36601SOL     OW11699  13.329   6.213   5.251
36601SOL    HW111700  13.234   6.222   5.255
36601SOL    HW211701  13.362   6.300   5.273
36602SOL     OW11702  14.024   8.614   6.076
36602SOL    HW111703  13.988   8.624   5.988
36602SOL    HW211704  14.055   8.702   6.099
36603SOL     OW11705   4.203  10.053   0.352
36603SOL    HW111706   4.243  10.047   0.439
36603SOL    HW211707   4.109  10.059   0.369
36604SOL     OW11708   5.710   8.677   3.931
36604SOL    HW111709   5.755   8.697   3.849
36604SOL    HW211710   5.752   8.597   3.963
36605SOL     OW11711   5.513   8.276   7.947
36605SOL    HW111712   5.606   8.252   7.943
36605SOL    HW211713   5.485   8.277   7.855
36606SOL     OW11714   8.096  13.769   8.975
36606SOL    HW111715   8.108  13.699   9.039
36606SOL    HW211716   8.003  13.790   8.979
36607SOL     OW11717  14.731   3.744   3.071
36607SOL    HW111718  14.659   3.737   3.009
36607SOL    HW211719  14.692   3.785   3.149
36608SOL     OW11720   9.229   6.681   0.894
36608SOL    HW111721   9.244   6.604   0.839
36608SOL    HW211722   9.302   6.681   0.956
36609SOL     OW11723  14.823   8.543   8.319
36609SOL    HW111724   0.009   8.607   8.295
36609SOL    HW211725  14.857   8.459   8.289
36610SOL     OW11726  13.384   5.977   6.000
36610SOL    HW111727  13.397   6.069   5.973
36610SOL    HW211728  13.472   5.939   5.996
36611SOL     OW11729   9.402  10.335  13.739
36611SOL    HW111730   9.420  10.324  13.832
36611SOL    HW211731   9.338  10.405  13.734
36612SOL     OW11732   3.278   7.176   4.471
36612SOL    HW111733   3.243   7.095   4.507
36612SOL    HW211734   3.202   7.221   4.434
36613SOL     OW11735   7.108  14.007  14.096
36613SOL    HW111736   7.150  13.936  14.048
36613SOL    HW211737   7.015  13.982  14.098
36614SOL     OW11738  12.466   2.201   7.297
36614SOL    HW111739  12.544   2.256   7.289
36614SOL    HW211740  12.416   2.239   7.369
36615SOL     OW11741   7.086   0.811   2.327
36615SOL    HW111742   7.042   0.826   2.411
36615SOL    HW211743   7.097   0.716   2.322
36616SOL     OW11744   9.284   5.979   9.573
36616SOL    HW111745   9.374   6.010   9.584
36616SOL    HW211746   9.293   5.892   9.534
36617SOL     OW11747   9.551   9.919   5.320
36617SOL    HW111748   9.459   9.941   5.305
36617SOL    HW211749   9.554   9.895   5.413
36618SOL     OW11750   8.590  14.388  14.818
36618SOL    HW111751   8.607  14.362   0.026
36618SOL    HW211752   8.531  14.463  14.826
36619SOL     OW11753   9.772   3.776  12.425
36619SOL    HW111754   9.687   3.816  12.406
36619SOL    HW211755   9.816   3.771  12.340
36620SOL     OW11756   1.826  10.841   7.984
36620SOL    HW111757   1.794  10.825   8.073
36620SOL    HW211758   1.822  10.936   7.974
36621SOL     OW11759   3.589  14.367   4.610
36621SOL    HW111760   3.627  14.302   4.551
36621SOL    HW211761   3.522  14.411   4.557
36622SOL     OW11762   0.118   4.633  13.818
36622SOL    HW111763   0.133   4.715  13.771
36622SOL    HW211764   0.204   4.607  13.851
36623SOL     OW11765  14.268   3.495   6.712
36623SOL    HW111766  14.355   3.480   6.673
36623SOL    HW211767  14.285   3.508   6.805
36624SOL     OW11768   7.385   1.917   5.757
36624SOL    HW111769   7.365   1.861   5.833
36624SOL    HW211770   7.300   1.946   5.726
36625SOL     OW11771   4.320  10.787   4.463
36625SOL    HW111772   4.367  10.737   4.530
36625SOL    HW211773   4.377  10.860   4.442
36626SOL     OW11774   2.605   3.331   0.248
36626SOL    HW111775   2.578   3.375   0.329
36626SOL    HW211776   2.558   3.247   0.250
36627SOL     OW11777  13.590  13.229  10.159
36627SOL    HW111778  13.538  13.239  10.239
36627SOL    HW211779  13.545  13.285  10.095
36628SOL     OW11780   9.593   5.061   6.970
36628SOL    HW111781   9.610   5.062   7.064
36628SOL    HW211782   9.659   5.120   6.933
36629SOL     OW11783  12.276  10.413   5.231
36629SOL    HW111784  12.213  10.355   5.275
36629SOL    HW211785  12.242  10.501   5.248
36630SOL     OW11786  10.865  11.025  10.490
36630SOL    HW111787  10.958  11.027  10.468
36630SOL    HW211788  10.828  10.960  10.430
36631SOL     OW11789   7.799   9.940   0.601
36631SOL    HW111790   7.825   9.975   0.686
36631SOL    HW211791   7.872   9.884   0.575
36632SOL     OW11792   2.962  11.636   8.109
36632SOL    HW111793   2.887  11.615   8.054
36632SOL    HW211794   2.925  11.684   8.183
36633SOL     OW11795   9.192   0.661  12.381
36633SOL    HW111796   9.265   0.606  12.352
36633SOL    HW211797   9.146   0.684  12.300
36634SOL     OW11798   2.351  13.387   4.891
36634SOL    HW111799   2.304  13.405   4.810
36634SOL    HW211800   2.438  13.359   4.863
36635SOL     OW11801   3.546  12.300  11.796
36635SOL    HW111802   3.479  12.352  11.839
36635SOL    HW211803   3.603  12.271  11.867
36636SOL     OW11804   4.610  12.408  13.754
36636SOL    HW111805   4.530  12.459  13.743
36636SOL    HW211806   4.663  12.430  13.678
36637SOL     OW11807   7.102   0.714  14.200
36637SOL    HW111808   7.148   0.718  14.116
36637SOL    HW211809   7.136   0.790  14.249
36638SOL     OW11810  10.757   0.951  14.839
36638SOL    HW111811  10.780   0.977  14.750
36638SOL    HW211812  10.773   1.030   0.009
36639SOL     OW11813   7.392   3.926   7.235
36639SOL    HW111814   7.444   3.951   7.311
36639SOL    HW211815   7.401   4.000   7.175
36640SOL     OW11816   0.387   2.387   7.306
36640SOL    HW111817   0.300   2.388   7.346
36640SOL    HW211818   0.395   2.472   7.264
36641SOL     OW11819  14.466   1.488  10.103
36641SOL    HW111820  14.402   1.486  10.174
36641SOL    HW211821  14.550   1.471  10.146
36642SOL     OW11822  11.838   4.425   0.134
36642SOL    HW111823  11.792   4.503   0.166
36642SOL    HW211824  11.930   4.450   0.132
36643SOL     OW11825  14.178  12.719  13.731
36643SOL    HW111826  14.205  12.772  13.656
36643SOL    HW211827  14.221  12.635  13.718
36644SOL     OW11828   9.719   6.442  11.442
36644SOL    HW111829   9.651   6.378  11.463
36644SOL    HW211830   9.694   6.477  11.356
36645SOL     OW11831   2.807   6.567  11.435
36645SOL    HW111832   2.899   6.593  11.439
36645SOL    HW211833   2.764   6.640  11.390
36646SOL     OW11834   8.570   6.935   3.068
36646SOL    HW111835   8.584   6.968   2.979
36646SOL    HW211836   8.527   7.007   3.114
36647SOL     OW11837   2.871   3.577  12.113
36647SOL    HW111838   2.816   3.516  12.163
36647SOL    HW211839   2.950   3.586  12.167
36648SOL     OW11840  10.854  12.407   6.496
36648SOL    HW111841  10.761  12.413   6.518
36648SOL    HW211842  10.856  12.360   6.413
36649SOL     OW11843   9.961   7.886   1.302
36649SOL    HW111844   9.916   7.844   1.229
36649SOL    HW211845   9.964   7.819   1.370
36650SOL     OW11846   3.578   2.431  14.276
36650SOL    HW111847   3.618   2.345  14.274
36650SOL    HW211848   3.514   2.426  14.348
36651SOL     OW11849   5.411  14.080   6.275
36651SOL    HW111850   5.362  14.034   6.343
36651SOL    HW211851   5.404  14.172   6.299
36652SOL     OW11852   8.666   1.601  13.406
36652SOL    HW111853   8.740   1.658  13.382
36652SOL    HW211854   8.687   1.517  13.366
36653SOL     OW11855  10.405  11.838   6.995
36653SOL    HW111856  10.452  11.921   6.996
36653SOL    HW211857  10.320  11.858   7.034
36654SOL     OW11858   6.156  14.873   8.327
36654SOL    HW111859   6.194  14.854   8.413
36654SOL    HW211860   6.157   0.086   8.322
36655SOL     OW11861  12.363   6.828   3.347
36655SOL    HW111862  12.345   6.885   3.422
36655SOL    HW211863  12.279   6.819   3.303
36656SOL     OW11864   8.724  10.464  10.462
36656SOL    HW111865   8.723  10.409  10.540
36656SOL    HW211866   8.642  10.513  10.466
36657SOL     OW11867   0.424   4.955  10.693
36657SOL    HW111868   0.447   4.869  10.728
36657SOL    HW211869   0.502   4.983  10.645
36658SOL     OW11870   4.231   0.120  13.701
36658SOL    HW111871   4.276   0.036  13.689
36658SOL    HW211872   4.207   0.147  13.612
36659SOL     OW11873  13.073   7.509  14.410
36659SOL    HW111874  13.032   7.499  14.324
36659SOL    HW211875  13.020   7.455  14.469
36660SOL     OW11876   7.662  11.372  13.775
36660SOL    HW111877   7.594  11.361  13.709
36660SOL    HW211878   7.686  11.465  13.769
36661SOL     OW11879   1.210   4.024   2.643
36661SOL    HW111880   1.155   3.946   2.657
36661SOL    HW211881   1.285   4.011   2.701
36662SOL     OW11882   0.646   9.041  10.197
36662SOL    HW111883   0.643   9.105  10.125
36662SOL    HW211884   0.671   9.093  10.274
36663SOL     OW11885  10.571   3.419   2.000
36663SOL    HW111886  10.645   3.359   1.992
36663SOL    HW211887  10.505   3.383   1.942
36664SOL     OW11888   0.980   5.392   9.473
36664SOL    HW111889   0.928   5.388   9.393
36664SOL    HW211890   1.051   5.453   9.452
36665SOL     OW11891   8.123   7.349   3.023
36665SOL    HW111892   8.092   7.262   3.045
36665SOL    HW211893   8.209   7.335   2.983
36666SOL     OW11894   4.632   0.536  11.813
36666SOL    HW111895   4.571   0.463  11.799
36666SOL    HW211896   4.630   0.551  11.908
36667SOL     OW11897  14.580  10.626   8.255
36667SOL    HW111898  14.508  10.663   8.204
36667SOL    HW211899  14.625  10.568   8.194
36668SOL     OW11900   4.890   4.678  11.941
36668SOL    HW111901   4.812   4.723  11.971
36668SOL    HW211902   4.960   4.709  11.998
36669SOL     OW11903   1.517   0.165   1.353
36669SOL    HW111904   1.560   0.183   1.437
36669SOL    HW211905   1.481   0.249   1.326
36670SOL     OW11906   3.529   8.385  14.666
36670SOL    HW111907   3.589   8.401  14.594
36670SOL    HW211908   3.500   8.472  14.693
36671SOL     OW11909  13.674  10.810   7.240
36671SOL    HW111910  13.706  10.881   7.183
36671SOL    HW211911  13.629  10.751   7.180
36672SOL     OW11912   0.558   1.573  10.830
36672SOL    HW111913   0.610   1.495  10.850
36672SOL    HW211914   0.623   1.640  10.808
36673SOL     OW11915   1.395  12.714  14.747
36673SOL    HW111916   1.480  12.741  14.713
36673SOL    HW211917   1.374  12.778  14.815
36674SOL     OW11918  14.498   4.238   2.323
36674SOL    HW111919  14.435   4.300   2.360
36674SOL    HW211920  14.548   4.206   2.398
36675SOL     OW11921  13.826   3.150  11.973
36675SOL    HW111922  13.830   3.194  12.058
36675SOL    HW211923  13.745   3.100  11.976
36676SOL     OW11924  14.099   6.046  14.081
36676SOL    HW111925  14.068   5.967  14.126
36676SOL    HW211926  14.139   6.014  14.001
36677SOL     OW11927   7.676   7.167  12.940
36677SOL    HW111928   7.736   7.239  12.959
36677SOL    HW211929   7.629   7.152  13.022
36678SOL     OW11930   7.916   4.437   2.365
36678SOL    HW111931   7.846   4.476   2.416
36678SOL    HW211932   7.984   4.416   2.429
36679SOL     OW11933  10.087  11.459   8.871
36679SOL    HW111934  10.019  11.462   8.938
36679SOL    HW211935  10.169  11.448   8.919
36680SOL     OW11936   8.557   1.461   7.578
36680SOL    HW111937   8.467   1.442   7.605
36680SOL    HW211938   8.583   1.534   7.634
36681SOL     OW11939  11.053   6.256   4.281
36681SOL    HW111940  11.113   6.277   4.210
36681SOL    HW211941  11.110   6.235   4.355
36682SOL     OW11942   4.002   1.893  13.939
36682SOL    HW111943   3.993   1.802  13.909
36682SOL    HW211944   4.096   1.909  13.939
36683SOL     OW11945  10.196   8.257   5.523
36683SOL    HW111946  10.135   8.186   5.544
36683SOL    HW211947  10.179   8.276   5.431
36684SOL     OW11948   9.877   4.126   1.833
36684SOL    HW111949   9.857   4.219   1.844
36684SOL    HW211950   9.972   4.123   1.821
36685SOL     OW11951   9.975  14.722  13.907
36685SOL    HW111952  10.021  14.693  13.985
36685SOL    HW211953  10.043  14.756  13.850
36686SOL     OW11954   8.687  12.333   0.490
36686SOL    HW111955   8.721  12.399   0.430
36686SOL    HW211956   8.765  12.287   0.521
36687SOL     OW11957  12.684  12.909   7.233
36687SOL    HW111958  12.716  12.907   7.143
36687SOL    HW211959  12.712  12.994   7.267
36688SOL     OW11960   5.484  13.525   1.526
36688SOL    HW111961   5.511  13.434   1.541
36688SOL    HW211962   5.562  13.567   1.491
36689SOL     OW11963   0.992  10.173   6.986
36689SOL    HW111964   0.920  10.137   6.933
36689SOL    HW211965   1.003  10.110   7.057
36690SOL     OW11966   7.008   4.201   3.864
36690SOL    HW111967   7.060   4.237   3.937
36690SOL    HW211968   6.964   4.125   3.902
36691SOL     OW11969   1.829   7.983   3.543
36691SOL    HW111970   1.843   8.065   3.496
36691SOL    HW211971   1.743   7.993   3.583
36692SOL     OW11972   4.424  13.480   1.521
36692SOL    HW111973   4.512  13.444   1.518
36692SOL    HW211974   4.366  13.403   1.525
36693SOL     OW11975   9.065   8.249   1.302
36693SOL    HW111976   9.134   8.183   1.307
36693SOL    HW211977   8.986   8.203   1.330
36694SOL     OW11978  14.444   0.712   2.505
36694SOL    HW111979  14.399   0.662   2.573
36694SOL    HW211980  14.375   0.761   2.461
36695SOL     OW11981  13.977  13.381  12.123
36695SOL    HW111982  13.932  13.458  12.157
36695SOL    HW211983  13.971  13.317  12.194
36696SOL     OW11984  11.542  11.398   3.132
36696SOL    HW111985  11.552  11.485   3.094
36696SOL    HW211986  11.447  11.388   3.143
36697SOL     OW11987   7.937   1.204   0.380
36697SOL    HW111988   7.993   1.213   0.457
36697SOL    HW211989   7.984   1.250   0.310
36698SOL     OW11990   7.295   1.294  12.124
36698SOL    HW111991   7.216   1.242  12.131
36698SOL    HW211992   7.327   1.277  12.035
36699SOL     OW11993  10.697   1.275   2.129
36699SOL    HW111994  10.702   1.266   2.224
36699SOL    HW211995  10.615   1.232   2.105
36700SOL     OW11996   9.638   2.281   1.847
36700SOL    HW111997   9.720   2.320   1.876
36700SOL    HW211998   9.591   2.259   1.927
36701SOL     OW11999   2.860  10.821  10.963
36701SOL    HW112000   2.860  10.833  11.057
36701SOL    HW212001   2.791  10.757  10.946
36702SOL     OW12002   5.543  12.090  13.241
36702SOL    HW112003   5.607  12.061  13.307
36702SOL    HW212004   5.490  12.013  13.224
36703SOL     OW12005   7.755  11.280  11.427
36703SOL    HW112006   7.759  11.288  11.332
36703SOL    HW212007   7.663  11.262  11.446
36704SOL     OW12008  12.705   9.192   4.687
36704SOL    HW112009  12.629   9.134   4.674
36704SOL    HW212010  12.728   9.221   4.598
36705SOL     OW12011   0.961   5.783   4.457
36705SOL    HW112012   1.015   5.862   4.449
36705SOL    HW212013   0.874   5.816   4.479
36706SOL     OW12014  11.906   7.869   1.377
36706SOL    HW112015  11.894   7.846   1.469
36706SOL    HW212016  11.992   7.834   1.354
36707SOL     OW12017   6.860  14.835   2.695
36707SOL    HW112018   6.801   0.029   2.698
36707SOL    HW212019   6.836  14.783   2.772
36708SOL     OW12020   9.065   9.953  14.074
36708SOL    HW112021   9.134   9.958  14.139
36708SOL    HW212022   9.017   9.873  14.094
36709SOL     OW12023   3.187  13.833  10.096
36709SOL    HW112024   3.203  13.789  10.179
36709SOL    HW212025   3.096  13.810  10.074
36710SOL     OW12026   5.973   4.067   7.390
36710SOL    HW112027   5.911   4.062   7.317
36710SOL    HW212028   5.991   3.975   7.411
36711SOL     OW12029  13.611  13.515   6.283
36711SOL    HW112030  13.538  13.554   6.234
36711SOL    HW212031  13.592  13.421   6.283
36712SOL     OW12032   8.606   6.666   1.771
36712SOL    HW112033   8.521   6.695   1.736
36712SOL    HW212034   8.670   6.710   1.715
36713SOL     OW12035   9.292   8.133   6.181
36713SOL    HW112036   9.276   8.072   6.253
36713SOL    HW212037   9.369   8.183   6.209
36714SOL     OW12038   4.022   9.110   1.101
36714SOL    HW112039   3.977   9.032   1.069
36714SOL    HW212040   3.977   9.184   1.059
36715SOL     OW12041   7.686   5.050   8.746
36715SOL    HW112042   7.631   5.080   8.818
36715SOL    HW212043   7.776   5.058   8.779
36716SOL     OW12044   3.664   9.101   6.900
36716SOL    HW112045   3.738   9.109   6.960
36716SOL    HW212046   3.678   9.016   6.857
36717SOL     OW12047   6.386   9.154   9.562
36717SOL    HW112048   6.293   9.151   9.583
36717SOL    HW212049   6.390   9.199   9.477
36718SOL     OW12050   3.483  12.011   9.664
36718SOL    HW112051   3.501  11.948   9.595
36718SOL    HW212052   3.421  11.966   9.722
36719SOL     OW12053   5.319  10.584   1.541
36719SOL    HW112054   5.320  10.489   1.533
36719SOL    HW212055   5.264  10.601   1.618
36720SOL     OW12056   9.571   0.382   4.090
36720SOL    HW112057   9.632   0.340   4.030
36720SOL    HW212058   9.617   0.460   4.121
36721SOL     OW12059   3.586   0.306   3.386
36721SOL    HW112060   3.625   0.243   3.326
36721SOL    HW212061   3.508   0.337   3.341
36722SOL     OW12062   7.656  12.989   6.857
36722SOL    HW112063   7.665  13.062   6.918
36722SOL    HW212064   7.581  12.940   6.890
36723SOL     OW12065  14.070   7.315   7.556
36723SOL    HW112066  14.149   7.369   7.545
36723SOL    HW212067  14.097   7.246   7.616
36724SOL     OW12068   7.434   0.720  12.585
36724SOL    HW112069   7.441   0.773  12.505
36724SOL    HW212070   7.512   0.743  12.636
36725SOL     OW12071   5.791   1.111   8.854
36725SOL    HW112072   5.752   1.032   8.889
36725SOL    HW212073   5.815   1.163   8.931
36726SOL     OW12074   1.514   7.788   7.597
36726SOL    HW112075   1.479   7.738   7.523
36726SOL    HW212076   1.554   7.865   7.557
36727SOL     OW12077   6.678  13.709  11.539
36727SOL    HW112078   6.713  13.710  11.450
36727SOL    HW212079   6.642  13.796  11.552
36728SOL     OW12080   6.004   4.817   4.015
36728SOL    HW112081   6.053   4.736   4.032
36728SOL    HW212082   5.912   4.790   4.019
36729SOL     OW12083   8.371   2.372   9.051
36729SOL    HW112084   8.286   2.353   9.091
36729SOL    HW212085   8.412   2.434   9.111
36730SOL     OW12086  10.733   2.909   6.282
36730SOL    HW112087  10.712   2.910   6.375
36730SOL    HW212088  10.710   2.998   6.251
36731SOL     OW12089   7.755  12.836   2.299
36731SOL    HW112090   7.808  12.832   2.219
36731SOL    HW212091   7.745  12.929   2.316
36732SOL     OW12092  10.789  13.830   2.831
36732SOL    HW112093  10.736  13.796   2.904
36732SOL    HW212094  10.752  13.788   2.753
36733SOL     OW12095  11.539  13.873   1.988
36733SOL    HW112096  11.550  13.929   2.064
36733SOL    HW212097  11.586  13.792   2.011
36734SOL     OW12098   2.198   2.556  10.036
36734SOL    HW112099   2.217   2.557  10.130
36734SOL    HW212100   2.241   2.634  10.001
36735SOL     OW12101   8.286   3.538  10.255
36735SOL    HW112102   8.361   3.578  10.211
36735SOL    HW212103   8.323   3.501  10.336
36736SOL     OW12104   7.266   0.202   4.014
36736SOL    HW112105   7.179   0.194   4.053
36736SOL    HW212106   7.261   0.151   3.933
36737SOL     OW12107   7.242   8.202   5.431
36737SOL    HW112108   7.188   8.204   5.353
36737SOL    HW212109   7.286   8.288   5.432
36738SOL     OW12110   1.953   0.929   1.377
36738SOL    HW112111   1.904   0.873   1.317
36738SOL    HW212112   2.027   0.960   1.326
36739SOL     OW12113  11.817   0.799  14.618
36739SOL    HW112114  11.884   0.737  14.590
36739SOL    HW212115  11.789   0.767  14.703
36740SOL     OW12116   8.788   7.393  13.582
36740SOL    HW112117   8.830   7.331  13.642
36740SOL    HW212118   8.699   7.403  13.617
36741SOL     OW12119   0.515   2.347   2.389
36741SOL    HW112120   0.515   2.344   2.485
36741SOL    HW212121   0.484   2.260   2.362
36742SOL     OW12122   8.376   8.434   3.731
36742SOL    HW112123   8.382   8.441   3.826
36742SOL    HW212124   8.453   8.383   3.706
36743SOL     OW12125  14.258   6.340  12.880
36743SOL    HW112126  14.347   6.343  12.915
36743SOL    HW212127  14.203   6.317  12.955
36744SOL     OW12128   7.395  13.318   4.023
36744SOL    HW112129   7.430  13.407   4.034
36744SOL    HW212130   7.470  13.261   4.037
36745SOL     OW12131   6.687  14.487   6.589
36745SOL    HW112132   6.722  14.492   6.678
36745SOL    HW212133   6.593  14.498   6.599
36746SOL     OW12134   9.171   8.682   9.935
36746SOL    HW112135   9.211   8.695   9.849
36746SOL    HW212136   9.171   8.769   9.975
36747SOL     OW12137   8.277   7.254   4.771
36747SOL    HW112138   8.366   7.219   4.773
36747SOL    HW212139   8.221   7.178   4.751
36748SOL     OW12140   3.231   8.639  10.145
36748SOL    HW112141   3.246   8.719  10.196
36748SOL    HW212142   3.274   8.655  10.061
36749SOL     OW12143  10.788   3.806   7.262
36749SOL    HW112144  10.862   3.787   7.320
36749SOL    HW212145  10.711   3.802   7.318
36750SOL     OW12146  12.784  12.646  12.041
36750SOL    HW112147  12.843  12.571  12.029
36750SOL    HW212148  12.816  12.711  11.979
36751SOL     OW12149   8.647   1.088  12.499
36751SOL    HW112150   8.661   0.995  12.516
36751SOL    HW212151   8.719   1.133  12.543
36752SOL     OW12152   9.148   4.248   2.420
36752SOL    HW112153   9.070   4.202   2.388
36752SOL    HW212154   9.148   4.331   2.373
36753SOL     OW12155   9.089  13.142   0.329
36753SOL    HW112156   9.065  13.218   0.276
36753SOL    HW212157   9.017  13.133   0.392
36754SOL     OW12158   5.661   1.803  12.584
36754SOL    HW112159   5.688   1.793  12.493
36754SOL    HW212160   5.704   1.730  12.629
36755SOL     OW12161   7.535   4.444  12.491
36755SOL    HW112162   7.498   4.368  12.537
36755SOL    HW212163   7.628   4.424  12.483
36756SOL     OW12164  14.386   4.993   1.463
36756SOL    HW112165  14.432   5.072   1.492
36756SOL    HW212166  14.309   4.987   1.520
36757SOL     OW12167  11.728   6.032   6.730
36757SOL    HW112168  11.686   6.081   6.659
36757SOL    HW212169  11.799   5.984   6.687
36758SOL     OW12170   9.549   8.963   7.931
36758SOL    HW112171   9.543   8.903   7.856
36758SOL    HW212172   9.531   9.049   7.894
36759SOL     OW12173  14.008  14.025   8.678
36759SOL    HW112174  13.965  14.064   8.755
36759SOL    HW212175  14.088  13.986   8.713
36760SOL     OW12176   9.448   4.299   2.079
36760SOL    HW112177   9.366   4.249   2.077
36760SOL    HW212178   9.466   4.319   1.987
36761SOL     OW12179   4.648   4.846   7.226
36761SOL    HW112180   4.609   4.902   7.158
36761SOL    HW212181   4.732   4.888   7.246
36762SOL     OW12182  13.083   1.576   9.448
36762SOL    HW112183  13.042   1.604   9.366
36762SOL    HW212184  13.135   1.651   9.476
36763SOL     OW12185   4.707  13.305   2.998
36763SOL    HW112186   4.801  13.317   3.011
36763SOL    HW212187   4.700  13.263   2.912
36764SOL     OW12188  13.475   7.961   4.828
36764SOL    HW112189  13.449   8.053   4.815
36764SOL    HW212190  13.568   7.965   4.848
36765SOL     OW12191  12.117   2.021   6.620
36765SOL    HW112192  12.091   2.042   6.710
36765SOL    HW212193  12.037   1.992   6.577
36766SOL     OW12194  12.144   5.072  14.760
36766SOL    HW112195  12.050   5.063  14.745
36766SOL    HW212196  12.184   5.045  14.677
36767SOL     OW12197   5.214   1.862   0.041
36767SOL    HW112198   5.131   1.909   0.032
36767SOL    HW212199   5.220   1.807  14.845
36768SOL     OW12200  14.052  12.611  11.233
36768SOL    HW112201  13.990  12.612  11.306
36768SOL    HW212202  14.115  12.681  11.254
36769SOL     OW12203   4.647   2.059  12.563
36769SOL    HW112204   4.554   2.057  12.540
36769SOL    HW212205   4.649   2.086  12.654
36770SOL     OW12206   7.590  12.044  12.998
36770SOL    HW112207   7.618  11.997  12.919
36770SOL    HW212208   7.532  11.983  13.042
36771SOL     OW12209  12.429   8.483  13.606
36771SOL    HW112210  12.405   8.502  13.515
36771SOL    HW212211  12.422   8.388  13.614
36772SOL     OW12212   4.465   1.832   2.910
36772SOL    HW112213   4.559   1.839   2.924
36772SOL    HW212214   4.449   1.878   2.828
36773SOL     OW12215   6.640   4.756  10.641
36773SOL    HW112216   6.697   4.710  10.579
36773SOL    HW212217   6.696   4.824  10.680
36774SOL     OW12218   1.857  11.019  14.398
36774SOL    HW112219   1.783  10.966  14.369
36774SOL    HW212220   1.843  11.105  14.360
36775SOL     OW12221   6.030  13.596   0.781
36775SOL    HW112222   5.950  13.606   0.833
36775SOL    HW212223   6.100  13.630   0.838
36776SOL     OW12224   8.865  13.146   5.590
36776SOL    HW112225   8.911  13.062   5.583
36776SOL    HW212226   8.863  13.180   5.501
36777SOL     OW12227   6.064  10.937   5.364
36777SOL    HW112228   6.000  10.875   5.331
36777SOL    HW212229   6.138  10.883   5.391
36778SOL     OW12230  13.949   3.058   2.433
36778SOL    HW112231  14.021   2.995   2.425
36778SOL    HW212232  13.936   3.090   2.344
36779SOL     OW12233   2.913  10.278  11.773
36779SOL    HW112234   2.888  10.279  11.681
36779SOL    HW212235   2.840  10.319  11.818
36780SOL     OW12236   2.484   8.138   0.938
36780SOL    HW112237   2.390   8.156   0.940
36780SOL    HW212238   2.525   8.225   0.942
36781SOL     OW12239   2.266   9.191   7.370
36781SOL    HW112240   2.270   9.114   7.427
36781SOL    HW212241   2.198   9.170   7.306
36782SOL     OW12242   5.577   0.517  14.514
36782SOL    HW112243   5.510   0.572  14.474
36782SOL    HW212244   5.536   0.431  14.522
36783SOL     OW12245   3.026   7.883   6.809
36783SOL    HW112246   2.941   7.902   6.848
36783SOL    HW212247   3.062   7.813   6.863
36784SOL     OW12248   8.417   9.217  13.616
36784SOL    HW112249   8.416   9.245  13.525
36784SOL    HW212250   8.382   9.292  13.664
36785SOL     OW12251   6.251   7.154   9.631
36785SOL    HW112252   6.195   7.207   9.575
36785SOL    HW212253   6.301   7.099   9.571
36786SOL     OW12254   2.708   2.026   0.130
36786SOL    HW112255   2.725   2.017   0.224
36786SOL    HW212256   2.629   2.079   0.125
36787SOL     OW12257   9.654   8.763  11.980
36787SOL    HW112258   9.601   8.811  12.044
36787SOL    HW212259   9.715   8.828  11.945
36788SOL     OW12260   3.899   9.324   3.305
36788SOL    HW112261   3.990   9.340   3.280
36788SOL    HW212262   3.905   9.280   3.390
36789SOL     OW12263   2.732   6.749  12.892
36789SOL    HW112264   2.805   6.687  12.897
36789SOL    HW212265   2.656   6.696  12.918
36790SOL     OW12266  13.716  14.189   4.813
36790SOL    HW112267  13.735  14.101   4.781
36790SOL    HW212268  13.661  14.176   4.890
36791SOL     OW12269  13.413   5.346  11.391
36791SOL    HW112270  13.459   5.277  11.440
36791SOL    HW212271  13.455   5.427  11.420
36792SOL     OW12272   8.678   8.573   0.108
36792SOL    HW112273   8.598   8.604   0.065
36792SOL    HW212274   8.749   8.619   0.063
36793SOL     OW12275   7.599  13.577   8.663
36793SOL    HW112276   7.579  13.501   8.717
36793SOL    HW212277   7.693  13.591   8.675
36794SOL     OW12278  10.988   4.729  10.338
36794SOL    HW112279  10.958   4.689  10.420
36794SOL    HW212280  11.042   4.662  10.297
36795SOL     OW12281   4.581   8.164  10.266
36795SOL    HW112282   4.526   8.242  10.258
36795SOL    HW212283   4.641   8.184  10.338
36796SOL     OW12284  13.681   2.275   7.656
36796SOL    HW112285  13.605   2.220   7.636
36796SOL    HW212286  13.677   2.289   7.750
36797SOL     OW12287   0.127   0.795  13.256
36797SOL    HW112288   0.108   0.759  13.169
36797SOL    HW212289   0.125   0.719  13.314
36798SOL     OW12290   8.264   1.669   8.037
36798SOL    HW112291   8.183   1.718   8.052
36798SOL    HW212292   8.288   1.688   7.947
36799SOL     OW12293  13.546   7.238   6.321
36799SOL    HW112294  13.581   7.210   6.405
36799SOL    HW212295  13.598   7.314   6.296
36800SOL     OW12296   2.522   2.751   4.771
36800SOL    HW112297   2.461   2.681   4.795
36800SOL    HW212298   2.603   2.730   4.819
36801SOL     OW12299   8.600   0.215   0.351
36801SOL    HW112300   8.613   0.168   0.268
36801SOL    HW212301   8.540   0.286   0.329
36802SOL     OW12302   0.309  12.341   9.289
36802SOL    HW112303   0.257  12.407   9.244
36802SOL    HW212304   0.385  12.388   9.322
36803SOL     OW12305   8.929   2.357  11.504
36803SOL    HW112306   8.851   2.407  11.482
36803SOL    HW212307   9.001   2.419  11.492
36804SOL     OW12308   2.465  10.864   6.977
36804SOL    HW112309   2.392  10.872   6.916
36804SOL    HW212310   2.523  10.936   6.955
36805SOL     OW12311   6.885   1.848   4.907
36805SOL    HW112312   6.974   1.847   4.872
36805SOL    HW212313   6.887   1.785   4.979
36806SOL     OW12314   9.777   6.468   8.864
36806SOL    HW112315   9.708   6.410   8.898
36806SOL    HW212316   9.806   6.426   8.783
36807SOL     OW12317   2.629   4.573  11.155
36807SOL    HW112318   2.614   4.577  11.061
36807SOL    HW212319   2.647   4.663  11.181
36808SOL     OW12320   8.222   6.482   9.907
36808SOL    HW112321   8.235   6.448   9.819
36808SOL    HW212322   8.132   6.515   9.906
36809SOL     OW12323   6.134  14.427  12.721
36809SOL    HW112324   6.106  14.339  12.698
36809SOL    HW212325   6.153  14.469  12.638
36810SOL     OW12326   6.938   7.576  11.139
36810SOL    HW112327   6.942   7.514  11.066
36810SOL    HW212328   6.852   7.561  11.179
36811SOL     OW12329  10.059   4.152  11.156
36811SOL    HW112330  10.046   4.219  11.089
36811SOL    HW212331  10.119   4.191  11.219
36812SOL     OW12332  14.313   3.258  14.615
36812SOL    HW112333  14.370   3.204  14.669
36812SOL    HW212334  14.360   3.267  14.532
36813SOL     OW12335   8.443   9.498   3.663
36813SOL    HW112336   8.487   9.498   3.748
36813SOL    HW212337   8.469   9.415   3.622
36814SOL     OW12338  12.665   0.616  12.231
36814SOL    HW112339  12.716   0.536  12.219
36814SOL    HW212340  12.695   0.675  12.162
36815SOL     OW12341   2.506   3.452   6.009
36815SOL    HW112342   2.442   3.523   6.006
36815SOL    HW212343   2.548   3.461   6.095
36816SOL     OW12344   8.815  12.576  12.416
36816SOL    HW112345   8.797  12.564  12.322
36816SOL    HW212346   8.867  12.656  12.420
36817SOL     OW12347  14.672   7.381  11.281
36817SOL    HW112348  14.745   7.443  11.284
36817SOL    HW212349  14.617   7.406  11.356
36818SOL     OW12350  11.300   8.406   3.277
36818SOL    HW112351  11.388   8.433   3.251
36818SOL    HW212352  11.294   8.314   3.251
36819SOL     OW12353  12.379   0.489   9.441
36819SOL    HW112354  12.444   0.538   9.391
36819SOL    HW212355  12.305   0.549   9.450
36820SOL     OW12356  11.492   3.359   3.069
36820SOL    HW112357  11.498   3.304   2.991
36820SOL    HW212358  11.424   3.318   3.122
36821SOL     OW12359   5.423   6.009   1.783
36821SOL    HW112360   5.470   6.092   1.780
36821SOL    HW212361   5.484   5.947   1.823
36822SOL     OW12362   3.934  11.983  10.501
36822SOL    HW112363   3.945  12.061  10.447
36822SOL    HW212364   3.863  12.006  10.561
36823SOL     OW12365   7.404  12.920   3.591
36823SOL    HW112366   7.322  12.916   3.641
36823SOL    HW212367   7.380  12.963   3.509
36824SOL     OW12368   6.419   3.921  11.425
36824SOL    HW112369   6.407   3.866  11.503
36824SOL    HW212370   6.356   3.887  11.362
36825SOL     OW12371   9.000   3.159  14.765
36825SOL    HW112372   8.911   3.169  14.732
36825SOL    HW212373   9.020   3.066  14.753
36826SOL     OW12374  10.742   6.344   5.665
36826SOL    HW112375  10.714   6.254   5.683
36826SOL    HW212376  10.677   6.399   5.708
36827SOL     OW12377   0.717   9.419   7.702
36827SOL    HW112378   0.641   9.374   7.665
36827SOL    HW212379   0.686   9.455   7.785
36828SOL     OW12380   8.160   8.978  13.092
36828SOL    HW112381   8.113   8.945  13.169
36828SOL    HW212382   8.175   8.900  13.038
36829SOL     OW12383  12.530  10.507   9.694
36829SOL    HW112384  12.458  10.543   9.642
36829SOL    HW212385  12.582  10.457   9.631
36830SOL     OW12386  11.775  13.296   6.781
36830SOL    HW112387  11.806  13.386   6.792
36830SOL    HW212388  11.750  13.290   6.689
36831SOL     OW12389   7.641  13.584   4.862
36831SOL    HW112390   7.549  13.577   4.838
36831SOL    HW212391   7.674  13.494   4.861
36832SOL     OW12392   6.495  11.709   7.477
36832SOL    HW112393   6.529  11.775   7.417
36832SOL    HW212394   6.444  11.759   7.541
36833SOL     OW12395   2.048   4.714   1.747
36833SOL    HW112396   2.027   4.678   1.833
36833SOL    HW212397   2.044   4.639   1.688
36834SOL     OW12398   2.887   6.468   5.266
36834SOL    HW112399   2.868   6.376   5.248
36834SOL    HW212400   2.864   6.514   5.185
36835SOL     OW12401  12.861   9.083   1.194
36835SOL    HW112402  12.795   9.032   1.147
36835SOL    HW212403  12.865   9.166   1.147
36836SOL     OW12404   1.380  14.659   0.339
36836SOL    HW112405   1.458  14.710   0.360
36836SOL    HW212406   1.327  14.718   0.284
36837SOL     OW12407   3.257   7.365   4.652
36837SOL    HW112408   3.176   7.321   4.678
36837SOL    HW212409   3.288   7.316   4.576
36838SOL     OW12410   9.687   3.425  12.110
36838SOL    HW112411   9.608   3.460  12.151
36838SOL    HW212412   9.680   3.451  12.018
36839SOL     OW12413  11.684   1.503   0.498
36839SOL    HW112414  11.718   1.415   0.514
36839SOL    HW212415  11.638   1.496   0.414
36840SOL     OW12416   1.616   3.128  10.366
36840SOL    HW112417   1.693   3.124  10.422
36840SOL    HW212418   1.650   3.160  10.282
36841SOL     OW12419   4.772   5.252   9.890
36841SOL    HW112420   4.722   5.218   9.964
36841SOL    HW212421   4.791   5.174   9.837
36842SOL     OW12422   3.579   7.365   0.541
36842SOL    HW112423   3.590   7.270   0.530
36842SOL    HW212424   3.631   7.403   0.470
36843SOL     OW12425   6.340   7.851   7.794
36843SOL    HW112426   6.265   7.911   7.795
36843SOL    HW212427   6.368   7.847   7.885
36844SOL     OW12428  11.216   0.904  12.186
36844SOL    HW112429  11.293   0.939  12.140
36844SOL    HW212430  11.148   0.899  12.119
36845SOL     OW12431   7.897  12.040   9.818
36845SOL    HW112432   7.858  12.092   9.747
36845SOL    HW212433   7.914  12.103   9.888
36846SOL     OW12434   7.839   9.551   7.732
36846SOL    HW112435   7.788   9.579   7.656
36846SOL    HW212436   7.854   9.631   7.782
36847SOL     OW12437   6.580  13.451   9.837
36847SOL    HW112438   6.551  13.528   9.787
36847SOL    HW212439   6.538  13.461   9.922
36848SOL     OW12440   0.182   9.412  13.162
36848SOL    HW112441   0.141   9.398  13.247
36848SOL    HW212442   0.170   9.505  13.144
36849SOL     OW12443  13.205  11.689  10.727
36849SOL    HW112444  13.229  11.769  10.679
36849SOL    HW212445  13.282  11.668  10.779
36850SOL     OW12446   9.902   6.251   5.235
36850SOL    HW112447   9.840   6.266   5.163
36850SOL    HW212448   9.854   6.194   5.295
36851SOL     OW12449   8.062  14.022   7.000
36851SOL    HW112450   8.104  13.937   6.985
36851SOL    HW212451   8.133  14.079   7.028
36852SOL     OW12452   1.439  14.122   9.985
36852SOL    HW112453   1.509  14.076   9.938
36852SOL    HW212454   1.479  14.205  10.012
36853SOL     OW12455   8.681  13.765  13.417
36853SOL    HW112456   8.653  13.693  13.474
36853SOL    HW212457   8.649  13.844  13.461
36854SOL     OW12458   9.491  12.858   7.438
36854SOL    HW112459   9.396  12.852   7.449
36854SOL    HW212460   9.510  12.952   7.440
36855SOL     OW12461   0.190   9.529   6.888
36855SOL    HW112462   0.165   9.610   6.843
36855SOL    HW212463   0.265   9.496   6.839
36856SOL     OW12464   0.817  13.774   8.493
36856SOL    HW112465   0.831  13.731   8.577
36856SOL    HW212466   0.725  13.802   8.496
36857SOL     OW12467   7.998   9.218   6.246
36857SOL    HW112468   7.978   9.155   6.315
36857SOL    HW212469   7.970   9.175   6.165
36858SOL     OW12470   4.559   1.805   0.610
36858SOL    HW112471   4.467   1.821   0.589
36858SOL    HW212472   4.607   1.868   0.556
36859SOL     OW12473  11.199   6.681  12.382
36859SOL    HW112474  11.230   6.598  12.346
36859SOL    HW212475  11.275   6.739  12.379
36860SOL     OW12476   7.665   4.294  14.626
36860SOL    HW112477   7.731   4.355  14.657
36860SOL    HW212478   7.677   4.292  14.531
36861SOL     OW12479   8.723   4.567  12.747
36861SOL    HW112480   8.650   4.536  12.801
36861SOL    HW212481   8.783   4.609  12.809
36862SOL     OW12482   4.099   1.443   3.897
36862SOL    HW112483   4.113   1.357   3.857
36862SOL    HW212484   4.033   1.484   3.841
36863SOL     OW12485  13.793  14.707  14.812
36863SOL    HW112486  13.717  14.685  14.758
36863SOL    HW212487  13.855  14.636  14.795
36864SOL     OW12488   1.331   5.414  10.258
36864SOL    HW112489   1.278   5.412  10.338
36864SOL    HW212490   1.284   5.357  10.198
36865SOL     OW12491   3.155   8.962   0.682
36865SOL    HW112492   3.207   9.037   0.654
36865SOL    HW212493   3.064   8.988   0.666
36866SOL     OW12494   8.900   5.585   2.053
36866SOL    HW112495   8.977   5.611   2.103
36866SOL    HW212496   8.901   5.490   2.055
36867SOL     OW12497  10.036   2.896   6.667
36867SOL    HW112498  10.090   2.943   6.730
36867SOL    HW212499  10.072   2.807   6.666
36868SOL     OW12500  13.962   6.305  14.785
36868SOL    HW112501  13.883   6.273  14.742
36868SOL    HW212502  14.001   6.227  14.825
36869SOL     OW12503  12.450   3.889   7.781
36869SOL    HW112504  12.394   3.815   7.758
36869SOL    HW212505  12.443   3.896   7.877
36870SOL     OW12506  13.193  12.198   9.502
36870SOL    HW112507  13.201  12.225   9.594
36870SOL    HW212508  13.274  12.230   9.461
36871SOL     OW12509   3.094   7.944   8.068
36871SOL    HW112510   3.026   7.879   8.086
36871SOL    HW212511   3.147   7.905   7.998
36872SOL     OW12512  13.251   5.531   4.153
36872SOL    HW112513  13.222   5.559   4.066
36872SOL    HW212514  13.279   5.440   4.142
36873SOL     OW12515   1.128   4.551   3.521
36873SOL    HW112516   1.116   4.513   3.434
36873SOL    HW212517   1.203   4.505   3.558
36874SOL     OW12518  12.247   6.593   1.630
36874SOL    HW112519  12.217   6.582   1.539
36874SOL    HW212520  12.342   6.597   1.623
36875SOL     OW12521   1.914  12.900   0.174
36875SOL    HW112522   1.954  12.922   0.258
36875SOL    HW212523   1.840  12.960   0.166
36876SOL     OW12524   3.700  10.803  11.121
36876SOL    HW112525   3.745  10.719  11.127
36876SOL    HW212526   3.637  10.792  11.050
36877SOL     OW12527   8.380  12.574   5.006
36877SOL    HW112528   8.390  12.482   4.982
36877SOL    HW212529   8.287  12.582   5.030
36878SOL     OW12530   2.127   2.158  11.430
36878SOL    HW112531   2.076   2.186  11.355
36878SOL    HW212532   2.135   2.063  11.420
36879SOL     OW12533   5.846  10.564   9.758
36879SOL    HW112534   5.796  10.534   9.682
36879SOL    HW212535   5.879  10.650   9.732
36880SOL     OW12536   6.366   8.471   1.987
36880SOL    HW112537   6.459   8.488   2.003
36880SOL    HW212538   6.355   8.484   1.893
36881SOL     OW12539   6.382  13.404   8.628
36881SOL    HW112540   6.391  13.474   8.563
36881SOL    HW212541   6.470  13.368   8.637
36882SOL     OW12542   0.604  10.718   2.082
36882SOL    HW112543   0.656  10.644   2.113
36882SOL    HW212544   0.668  10.788   2.067
36883SOL     OW12545   5.852   1.036   8.431
36883SOL    HW112546   5.841   1.080   8.347
36883SOL    HW212547   5.925   0.976   8.418
36884SOL     OW12548  13.230   5.392   2.749
36884SOL    HW112549  13.283   5.457   2.703
36884SOL    HW212550  13.255   5.309   2.709
36885SOL     OW12551  12.213   7.003  12.954
36885SOL    HW112552  12.257   7.080  12.990
36885SOL    HW212553  12.267   6.929  12.981
36886SOL     OW12554  14.175  11.628  11.865
36886SOL    HW112555  14.133  11.665  11.943
36886SOL    HW212556  14.251  11.684  11.850
36887SOL     OW12557   8.274  11.991  11.548
36887SOL    HW112558   8.259  11.919  11.487
36887SOL    HW212559   8.201  11.987  11.609
36888SOL     OW12560   1.994   6.377  14.731
36888SOL    HW112561   1.934   6.388  14.804
36888SOL    HW212562   2.046   6.301  14.753
36889SOL     OW12563  12.968   3.972  11.345
36889SOL    HW112564  12.971   4.048  11.288
36889SOL    HW212565  13.007   3.902  11.293
36890SOL     OW12566   0.382   1.385   4.701
36890SOL    HW112567   0.477   1.386   4.687
36890SOL    HW212568   0.345   1.355   4.618
36891SOL     OW12569   1.344   1.229   8.267
36891SOL    HW112570   1.369   1.318   8.291
36891SOL    HW212571   1.360   1.177   8.346
36892SOL     OW12572  13.572   8.643   1.908
36892SOL    HW112573  13.534   8.706   1.847
36892SOL    HW212574  13.603   8.571   1.853
36893SOL     OW12575  11.771   0.589  12.198
36893SOL    HW112576  11.783   0.494  12.204
36893SOL    HW212577  11.682   0.603  12.230
36894SOL     OW12578   4.732  11.959   2.731
36894SOL    HW112579   4.784  12.012   2.791
36894SOL    HW212580   4.751  11.869   2.757
36895SOL     OW12581   4.432   8.971   8.450
36895SOL    HW112582   4.421   9.046   8.392
36895SOL    HW212583   4.390   8.997   8.532
36896SOL     OW12584  12.876   9.495  12.191
36896SOL    HW112585  12.923   9.558  12.136
36896SOL    HW212586  12.819   9.448  12.130
36897SOL     OW12587   3.647   8.548   1.529
36897SOL    HW112588   3.726   8.497   1.548
36897SOL    HW212589   3.679   8.624   1.481
36898SOL     OW12590   3.997   3.921   3.347
36898SOL    HW112591   3.927   3.960   3.294
36898SOL    HW212592   3.952   3.885   3.424
36899SOL     OW12593   6.632   6.490  10.335
36899SOL    HW112594   6.687   6.412  10.346
36899SOL    HW212595   6.626   6.503  10.241
36900SOL     OW12596  12.959   6.772   6.214
36900SOL    HW112597  12.912   6.722   6.147
36900SOL    HW212598  12.904   6.848   6.231
36901SOL     OW12599   8.955   3.524   1.937
36901SOL    HW112600   8.931   3.616   1.949
36901SOL    HW212601   9.042   3.517   1.976
36902SOL     OW12602   9.016   5.443   7.868
36902SOL    HW112603   9.007   5.487   7.783
36902SOL    HW212604   9.107   5.458   7.893
36903SOL     OW12605  11.353   8.255   2.381
36903SOL    HW112606  11.294   8.298   2.319
36903SOL    HW212607  11.338   8.161   2.366
36904SOL     OW12608  11.143   3.490   6.227
36904SOL    HW112609  11.206   3.487   6.299
36904SOL    HW212610  11.110   3.400   6.221
36905SOL     OW12611   0.409  10.073  12.081
36905SOL    HW112612   0.395  10.167  12.086
36905SOL    HW212613   0.392  10.041  12.170
36906SOL     OW12614  14.272   9.466   0.934
36906SOL    HW112615  14.202   9.445   0.996
36906SOL    HW212616  14.343   9.407   0.958
36907SOL     OW12617   0.801   4.070  14.818
36907SOL    HW112618   0.894   4.048  14.817
36907SOL    HW212619   0.799   4.164  14.839
36908SOL     OW12620   8.750  10.353   0.277
36908SOL    HW112621   8.801  10.370   0.355
36908SOL    HW212622   8.764  10.430   0.221
36909SOL     OW12623   6.928  13.944   3.325
36909SOL    HW112624   6.980  13.981   3.396
36909SOL    HW212625   6.847  13.917   3.367
36910SOL     OW12626   3.025   7.476   1.741
36910SOL    HW112627   3.055   7.546   1.684
36910SOL    HW212628   3.098   7.414   1.744
36911SOL     OW12629   2.805   2.138   4.247
36911SOL    HW112630   2.731   2.198   4.255
36911SOL    HW212631   2.867   2.183   4.189
36912SOL     OW12632   1.306  12.649   3.825
36912SOL    HW112633   1.355  12.594   3.763
36912SOL    HW212634   1.372  12.709   3.860
36913SOL     OW12635   1.519  12.250  12.861
36913SOL    HW112636   1.548  12.250  12.952
36913SOL    HW212637   1.546  12.335  12.827
36914SOL     OW12638   9.256   7.838   9.387
36914SOL    HW112639   9.314   7.770   9.420
36914SOL    HW212640   9.296   7.867   9.305
36915SOL     OW12641  12.138  11.665   9.324
36915SOL    HW112642  12.180  11.603   9.384
36915SOL    HW212643  12.047  11.634   9.319
36916SOL     OW12644   0.404   5.309   9.120
36916SOL    HW112645   0.361   5.304   9.206
36916SOL    HW212646   0.455   5.228   9.113
36917SOL     OW12647  13.469   8.326   4.652
36917SOL    HW112648  13.388   8.378   4.654
36917SOL    HW212649  13.477   8.298   4.562
36918SOL     OW12650  13.341   7.817  13.348
36918SOL    HW112651  13.426   7.848  13.380
36918SOL    HW212652  13.353   7.723  13.333
36919SOL     OW12653   8.482   1.518   1.080
36919SOL    HW112654   8.423   1.445   1.098
36919SOL    HW212655   8.425   1.595   1.076
36920SOL     OW12656   5.110   3.057  13.915
36920SOL    HW112657   5.033   3.062  13.858
36920SOL    HW212658   5.183   3.087  13.860
36921SOL     OW12659   8.758   5.893   9.476
36921SOL    HW112660   8.853   5.894   9.460
36921SOL    HW212661   8.749   5.857   9.564
36922SOL     OW12662   1.821   4.002   8.989
36922SOL    HW112663   1.835   3.912   8.959
36922SOL    HW212664   1.860   4.005   9.076
36923SOL     OW12665  13.670  11.368   0.383
36923SOL    HW112666  13.674  11.281   0.343
36923SOL    HW212667  13.668  11.351   0.477
36924SOL     OW12668  10.909   8.041  12.362
36924SOL    HW112669  10.930   8.051  12.269
36924SOL    HW212670  10.838   8.103  12.377
36925SOL     OW12671  11.857   2.807   5.445
36925SOL    HW112672  11.917   2.804   5.520
36925SOL    HW212673  11.788   2.745   5.468
36926SOL     OW12674   9.903   1.866  13.256
36926SOL    HW112675   9.968   1.796  13.251
36926SOL    HW212676   9.849   1.854  13.178
36927SOL     OW12677   6.096  10.055  12.304
36927SOL    HW112678   6.159  10.115  12.262
36927SOL    HW212679   6.020  10.057  12.246
36928SOL     OW12680   7.298   8.480  10.853
36928SOL    HW112681   7.293   8.549  10.786
36928SOL    HW212682   7.207   8.468  10.881
36929SOL     OW12683  11.953   9.667  14.225
36929SOL    HW112684  12.041   9.638  14.248
36929SOL    HW212685  11.895   9.610  14.275
36930SOL     OW12686  12.432   8.211  13.556
36930SOL    HW112687  12.474   8.200  13.470
36930SOL    HW212688  12.477   8.148  13.612
36931SOL     OW12689  10.710  10.079   1.772
36931SOL    HW112690  10.719  10.107   1.681
36931SOL    HW212691  10.789  10.028   1.789
36932SOL     OW12692   8.843   0.067   5.203
36932SOL    HW112693   8.877   0.125   5.135
36932SOL    HW212694   8.773   0.017   5.160
36933SOL     OW12695   4.731   7.091   8.587
36933SOL    HW112696   4.655   7.085   8.528
36933SOL    HW212697   4.796   7.032   8.549
36934SOL     OW12698   1.986   7.385  13.611
36934SOL    HW112699   2.052   7.430  13.558
36934SOL    HW212700   1.904   7.397  13.562
36935SOL     OW12701   7.798   3.127  12.338
36935SOL    HW112702   7.709   3.101  12.315
36935SOL    HW212703   7.787   3.190  12.409
36936SOL     OW12704  13.265   2.542  12.683
36936SOL    HW112705  13.353   2.536  12.720
36936SOL    HW212706  13.249   2.636  12.675
36937SOL     OW12707  10.623   3.322   7.046
36937SOL    HW112708  10.678   3.400   7.034
36937SOL    HW212709  10.662   3.256   6.989
36938SOL     OW12710   9.340   0.876   0.603
36938SOL    HW112711   9.371   0.867   0.693
36938SOL    HW212712   9.322   0.786   0.574
36939SOL     OW12713   9.487   6.003   2.746
36939SOL    HW112714   9.574   6.036   2.725
36939SOL    HW212715   9.470   6.034   2.835
36940SOL     OW12716   4.019   7.290   3.891
36940SOL    HW112717   3.936   7.324   3.857
36940SOL    HW212718   4.078   7.365   3.890
36941SOL     OW12719  14.612   6.993   7.469
36941SOL    HW112720  14.579   7.053   7.535
36941SOL    HW212721  14.543   6.928   7.458
36942SOL     OW12722   1.201   1.380  11.455
36942SOL    HW112723   1.271   1.315  11.451
36942SOL    HW212724   1.145   1.350  11.526
36943SOL     OW12725  12.759   0.914   2.020
36943SOL    HW112726  12.831   0.972   1.996
36943SOL    HW212727  12.774   0.894   2.113
36944SOL     OW12728   6.010   3.399  11.273
36944SOL    HW112729   6.055   3.402  11.357
36944SOL    HW212730   6.053   3.329  11.225
36945SOL     OW12731   5.971   6.802   0.504
36945SOL    HW112732   5.920   6.880   0.482
36945SOL    HW212733   6.062   6.832   0.501
36946SOL     OW12734   2.529   9.652   8.165
36946SOL    HW112735   2.441   9.667   8.130
36946SOL    HW212736   2.515   9.637   8.258
36947SOL     OW12737   1.789  12.867   6.684
36947SOL    HW112738   1.803  12.956   6.652
36947SOL    HW212739   1.873  12.823   6.667
36948SOL     OW12740   0.627   4.740  13.987
36948SOL    HW112741   0.582   4.660  14.014
36948SOL    HW212742   0.718   4.714  13.976
36949SOL     OW12743  13.393  12.060   7.725
36949SOL    HW112744  13.403  12.151   7.695
36949SOL    HW212745  13.395  12.008   7.645
36950SOL     OW12746   1.425  12.011  10.798
36950SOL    HW112747   1.370  11.941  10.762
36950SOL    HW212748   1.424  12.079  10.731
36951SOL     OW12749   7.321   0.655   5.965
36951SOL    HW112750   7.326   0.703   5.883
36951SOL    HW212751   7.282   0.571   5.942
36952SOL     OW12752  10.646   4.832  11.263
36952SOL    HW112753  10.584   4.890  11.307
36952SOL    HW212754  10.661   4.873  11.177
36953SOL     OW12755   3.610   6.887  14.098
36953SOL    HW112756   3.533   6.917  14.148
36953SOL    HW212757   3.647   6.817  14.151
36954SOL     OW12758   2.950   1.778  11.169
36954SOL    HW112759   2.864   1.737  11.175
36954SOL    HW212760   2.975   1.767  11.077
36955SOL     OW12761  12.738   2.018  13.244
36955SOL    HW112762  12.731   1.937  13.193
36955SOL    HW212763  12.761   1.990  13.332
36956SOL     OW12764   1.268   5.897   9.866
36956SOL    HW112765   1.243   5.989   9.859
36956SOL    HW212766   1.228   5.868   9.948
36957SOL     OW12767  11.315   1.962  14.835
36957SOL    HW112768  11.274   1.878  14.819
36957SOL    HW212769  11.242   2.022  14.851
36958SOL     OW12770  12.117  11.387   6.074
36958SOL    HW112771  12.121  11.336   6.154
36958SOL    HW212772  12.117  11.323   6.003
36959SOL     OW12773   5.654   3.666  13.013
36959SOL    HW112774   5.629   3.673  12.921
36959SOL    HW212775   5.580   3.623  13.056
36960SOL     OW12776   3.275   9.686   4.768
36960SOL    HW112777   3.227   9.637   4.834
36960SOL    HW212778   3.319   9.619   4.715
36961SOL     OW12779   7.233  14.504   4.993
36961SOL    HW112780   7.213  14.582   5.045
36961SOL    HW212781   7.155  14.449   5.000
36962SOL     OW12782   7.933   9.303   0.752
36962SOL    HW112783   7.955   9.315   0.660
36962SOL    HW212784   7.891   9.217   0.755
36963SOL     OW12785   7.007   7.465   2.714
36963SOL    HW112786   6.946   7.390   2.718
36963SOL    HW212787   7.081   7.438   2.769
36964SOL     OW12788  12.168  10.795  14.627
36964SOL    HW112789  12.143  10.862  14.564
36964SOL    HW212790  12.238  10.834  14.678
36965SOL     OW12791  11.717   4.897   6.101
36965SOL    HW112792  11.652   4.847   6.152
36965SOL    HW212793  11.772   4.938   6.168
36966SOL     OW12794  10.866  13.970   3.174
36966SOL    HW112795  10.870  13.879   3.147
36966SOL    HW212796  10.877  14.020   3.093
36967SOL     OW12797  14.072  13.111   9.826
36967SOL    HW112798  13.985  13.083   9.798
36967SOL    HW212799  14.102  13.042   9.885
36968SOL     OW12800  10.815   8.659   7.364
36968SOL    HW112801  10.851   8.570   7.367
36968SOL    HW212802  10.731   8.649   7.319
36969SOL     OW12803  12.820   5.113   2.616
36969SOL    HW112804  12.892   5.174   2.600
36969SOL    HW212805  12.741   5.162   2.592
36970SOL     OW12806  10.750   5.823   3.332
36970SOL    HW112807  10.736   5.834   3.426
36970SOL    HW212808  10.684   5.760   3.305
36971SOL     OW12809   0.628   7.285   5.941
36971SOL    HW112810   0.710   7.243   5.915
36971SOL    HW212811   0.614   7.355   5.876
36972SOL     OW12812   3.328   3.466   2.252
36972SOL    HW112813   3.407   3.520   2.260
36972SOL    HW212814   3.256   3.527   2.267
36973SOL     OW12815   7.860   8.307   3.521
36973SOL    HW112816   7.937   8.297   3.576
36973SOL    HW212817   7.874   8.248   3.447
36974SOL     OW12818  13.440   1.621   8.645
36974SOL    HW112819  13.359   1.641   8.597
36974SOL    HW212820  13.436   1.677   8.723
36975SOL     OW12821   6.785   5.271   8.904
36975SOL    HW112822   6.692   5.248   8.914
36975SOL    HW212823   6.829   5.228   8.977
36976SOL     OW12824  10.249   4.638   1.415
36976SOL    HW112825  10.254   4.701   1.487
36976SOL    HW212826  10.282   4.685   1.339
36977SOL     OW12827   6.262  11.069   0.437
36977SOL    HW112828   6.253  10.977   0.463
36977SOL    HW212829   6.337  11.069   0.378
36978SOL     OW12830   9.986   9.202  10.764
36978SOL    HW112831   9.979   9.142  10.691
36978SOL    HW212832  10.011   9.286  10.725
36979SOL     OW12833  12.856  12.554   6.534
36979SOL    HW112834  12.804  12.631   6.558
36979SOL    HW212835  12.923  12.587   6.474
36980SOL     OW12836   6.593   7.147   1.387
36980SOL    HW112837   6.620   7.210   1.320
36980SOL    HW212838   6.582   7.200   1.466
36981SOL     OW12839   6.512  14.038   0.408
36981SOL    HW112840   6.534  14.046   0.315
36981SOL    HW212841   6.466  14.119   0.429
36982SOL     OW12842   6.667  13.819  11.285
36982SOL    HW112843   6.606  13.867  11.342
36982SOL    HW212844   6.613  13.783  11.216
36983SOL     OW12845   2.257   6.019  10.668
36983SOL    HW112846   2.226   5.955  10.733
36983SOL    HW212847   2.178   6.067  10.642
36984SOL     OW12848  14.101   8.201   9.163
36984SOL    HW112849  14.083   8.150   9.242
36984SOL    HW212850  14.022   8.191   9.110
36985SOL     OW12851   4.021   3.834   2.193
36985SOL    HW112852   3.941   3.849   2.243
36985SOL    HW212853   4.065   3.919   2.190
36986SOL     OW12854   4.244  13.964   7.914
36986SOL    HW112855   4.193  13.885   7.931
36986SOL    HW212856   4.317  13.935   7.860
36987SOL     OW12857   6.781   7.215   4.868
36987SOL    HW112858   6.845   7.280   4.839
36987SOL    HW212859   6.822   7.131   4.849
36988SOL     OW12860   3.240  13.731   2.115
36988SOL    HW112861   3.200  13.815   2.136
36988SOL    HW212862   3.180  13.666   2.151
36989SOL     OW12863   3.997   2.663   3.955
36989SOL    HW112864   3.916   2.695   3.916
36989SOL    HW212865   4.045   2.742   3.978
36990SOL     OW12866  13.032   0.163  13.287
36990SOL    HW112867  13.060   0.217  13.213
36990SOL    HW212868  13.111   0.151  13.339
36991SOL     OW12869   6.509   1.279   3.148
36991SOL    HW112870   6.593   1.313   3.118
36991SOL    HW212871   6.529   1.193   3.183
36992SOL     OW12872   4.303  10.448  14.472
36992SOL    HW112873   4.371  10.381  14.470
36992SOL    HW212874   4.346  10.527  14.441
36993SOL     OW12875   9.022   3.583   1.639
36993SOL    HW112876   9.110   3.561   1.667
36993SOL    HW212877   8.970   3.583   1.719
36994SOL     OW12878   4.196   1.136   4.856
36994SOL    HW112879   4.210   1.076   4.783
36994SOL    HW212880   4.280   1.140   4.901
36995SOL     OW12881   9.621   9.872   8.353
36995SOL    HW112882   9.572   9.928   8.293
36995SOL    HW212883   9.650   9.799   8.298
36996SOL     OW12884  13.672   5.648  14.719
36996SOL    HW112885  13.755   5.619  14.755
36996SOL    HW212886  13.607   5.591  14.760
36997SOL     OW12887   1.635  12.547   4.012
36997SOL    HW112888   1.602  12.460   4.032
36997SOL    HW212889   1.703  12.564   4.077
36998SOL     OW12890  10.832   6.003   2.356
36998SOL    HW112891  10.804   6.043   2.439
36998SOL    HW212892  10.918   6.039   2.339
36999SOL     OW12893   8.948  10.151   1.303
36999SOL    HW112894   8.904  10.235   1.315
36999SOL    HW212895   8.963  10.119   1.392
37000SOL     OW12896  12.458   7.294   1.933
37000SOL    HW112897  12.531   7.311   1.874
37000SOL    HW212898  12.483   7.338   2.014
37001SOL     OW12899   6.407  14.244  11.486
37001SOL    HW112900   6.361  14.312  11.436
37001SOL    HW212901   6.457  14.293  11.551
37002SOL     OW12902   6.712   6.559   1.218
37002SOL    HW112903   6.672   6.478   1.187
37002SOL    HW212904   6.801   6.533   1.244
37003SOL     OW12905   2.645   3.219  10.409
37003SOL    HW112906   2.701   3.173  10.346
37003SOL    HW212907   2.700   3.230  10.486
37004SOL     OW12908   6.410   4.017   8.932
37004SOL    HW112909   6.356   4.074   8.987
37004SOL    HW212910   6.356   3.997   8.856
37005SOL     OW12911  10.344  13.035  12.354
37005SOL    HW112912  10.292  12.975  12.299
37005SOL    HW212913  10.434  13.018  12.328
37006SOL     OW12914   3.196  14.719   9.426
37006SOL    HW112915   3.231  14.770   9.499
37006SOL    HW212916   3.168  14.784   9.362
37007SOL     OW12917   6.633  11.817  12.421
37007SOL    HW112918   6.690  11.890  12.446
37007SOL    HW212919   6.578  11.852  12.351
37008SOL     OW12920   3.038   9.640   0.244
37008SOL    HW112921   2.989   9.560   0.266
37008SOL    HW212922   3.127   9.608   0.224
37009SOL     OW12923   8.919  13.292   4.937
37009SOL    HW112924   8.847  13.354   4.920
37009SOL    HW212925   8.971  13.294   4.856
37010SOL     OW12926   4.258   7.020  13.858
37010SOL    HW112927   4.170   7.031  13.821
37010SOL    HW212928   4.291   7.109  13.868
37011SOL     OW12929   4.334   1.119   8.694
37011SOL    HW112930   4.291   1.191   8.649
37011SOL    HW212931   4.265   1.055   8.709
37012SOL     OW12932   9.933  12.052  13.450
37012SOL    HW112933   9.984  12.123  13.491
37012SOL    HW212934   9.855  12.096  13.415
37013SOL     OW12935   4.412  10.502   4.563
37013SOL    HW112936   4.439  10.496   4.654
37013SOL    HW212937   4.317  10.513   4.566
37014SOL     OW12938   3.605   0.511  14.224
37014SOL    HW112939   3.572   0.479  14.141
37014SOL    HW212940   3.653   0.437  14.261
37015SOL     OW12941   7.460   5.872   1.983
37015SOL    HW112942   7.452   5.928   1.906
37015SOL    HW212943   7.382   5.817   1.982
37016SOL     OW12944   9.035   9.645   2.238
37016SOL    HW112945   9.100   9.689   2.293
37016SOL    HW212946   8.965   9.620   2.299
37017SOL     OW12947  14.503   8.232   6.440
37017SOL    HW112948  14.468   8.193   6.520
37017SOL    HW212949  14.582   8.277   6.468
37018SOL     OW12950   3.748   7.861  13.997
37018SOL    HW112951   3.805   7.919  14.048
37018SOL    HW212952   3.690   7.822  14.061
37019SOL     OW12953   8.074  10.705   7.752
37019SOL    HW112954   8.167  10.687   7.762
37019SOL    HW212955   8.045  10.727   7.841
37020SOL     OW12956   6.028  12.596  10.796
37020SOL    HW112957   6.053  12.542  10.721
37020SOL    HW212958   5.941  12.629  10.774
37021SOL     OW12959   3.877   4.374   4.036
37021SOL    HW112960   3.831   4.440   3.983
37021SOL    HW212961   3.817   4.355   4.108
37022SOL     OW12962  11.367   5.273   2.699
37022SOL    HW112963  11.382   5.179   2.689
37022SOL    HW212964  11.339   5.283   2.790
37023SOL     OW12965   9.357   8.217   9.766
37023SOL    HW112966   9.346   8.312   9.771
37023SOL    HW212967   9.434   8.199   9.820
37024SOL     OW12968  13.910   7.959   9.814
37024SOL    HW112969  13.816   7.957   9.832
37024SOL    HW212970  13.929   8.051   9.796
37025SOL     OW12971   5.941  11.672  14.532
37025SOL    HW112972   5.983  11.619  14.599
37025SOL    HW212973   5.899  11.743  14.580
37026SOL     OW12974   8.349  13.332  12.170
37026SOL    HW112975   8.390  13.359  12.088
37026SOL    HW212976   8.375  13.399  12.233
37027SOL     OW12977  10.135   9.754   3.793
37027SOL    HW112978  10.063   9.789   3.847
37027SOL    HW212979  10.137   9.811   3.716
37028SOL     OW12980  12.052   9.967  11.379
37028SOL    HW112981  12.049   9.872  11.392
37028SOL    HW212982  12.055  10.002  11.468
37029SOL     OW12983   7.897   5.080   1.972
37029SOL    HW112984   7.876   5.030   1.893
37029SOL    HW212985   7.814   5.085   2.020
37030SOL     OW12986   6.144  11.394   3.828
37030SOL    HW112987   6.070  11.361   3.879
37030SOL    HW212988   6.173  11.472   3.876
37031SOL     OW12989  11.467  10.711  13.566
37031SOL    HW112990  11.380  10.678  13.542
37031SOL    HW212991  11.457  10.741  13.656
37032SOL     OW12992  14.792   3.528   3.947
37032SOL    HW112993  14.697   3.516   3.954
37032SOL    HW212994  14.804   3.623   3.939
37033SOL     OW12995   3.394  14.521   2.597
37033SOL    HW112996   3.359  14.569   2.522
37033SOL    HW212997   3.321  14.517   2.658
37034SOL     OW12998   5.556  10.545  14.253
37034SOL    HW112999   5.489  10.479  14.273
37034SOL    HW213000   5.555  10.603  14.329
37035SOL     OW13001   9.728   8.347   2.588
37035SOL    HW113002   9.735   8.442   2.592
37035SOL    HW213003   9.648   8.326   2.637
37036SOL     OW13004  10.095  10.801   6.972
37036SOL    HW113005  10.042  10.845   6.906
37036SOL    HW213006  10.036  10.735   7.009
37037SOL     OW13007   1.814   1.629  14.795
37037SOL    HW113008   1.876   1.698  14.819
37037SOL    HW213009   1.728   1.667  14.811
37038SOL     OW13010  12.150  14.699   1.356
37038SOL    HW113011  12.230  14.678   1.309
37038SOL    HW213012  12.080  14.686   1.292
37039SOL     OW13013  13.654  10.404   5.840
37039SOL    HW113014  13.706  10.326   5.820
37039SOL    HW213015  13.610  10.425   5.758
37040SOL     OW13016   9.812   1.316   6.963
37040SOL    HW113017   9.776   1.383   7.021
37040SOL    HW213018   9.860   1.257   7.022
37041SOL     OW13019   4.417  13.588  13.936
37041SOL    HW113020   4.424  13.658  13.871
37041SOL    HW213021   4.384  13.631  14.014
37042SOL     OW13022   9.381   2.085  11.772
37042SOL    HW113023   9.387   2.015  11.837
37042SOL    HW213024   9.297   2.070  11.729
37043SOL     OW13025   2.861   8.067  13.405
37043SOL    HW113026   2.857   8.162  13.408
37043SOL    HW213027   2.925   8.047  13.337
37044SOL     OW13028   7.107   5.203   0.054
37044SOL    HW113029   7.069   5.237   0.135
37044SOL    HW213030   7.128   5.112   0.074
37045SOL     OW13031   3.524  10.643  10.350
37045SOL    HW113032   3.442  10.606  10.384
37045SOL    HW213033   3.537  10.723  10.401
37046SOL     OW13034   0.112  11.284   3.378
37046SOL    HW113035   0.048  11.310   3.444
37046SOL    HW213036   0.059  11.253   3.304
37047SOL     OW13037   9.225   1.990  12.808
37047SOL    HW113038   9.172   1.935  12.750
37047SOL    HW213039   9.259   2.059  12.751
37048SOL     OW13040  14.349  13.718  13.748
37048SOL    HW113041  14.400  13.787  13.791
37048SOL    HW213042  14.268  13.713  13.799
37049SOL     OW13043  11.453  14.594   8.130
37049SOL    HW113044  11.412  14.549   8.056
37049SOL    HW213045  11.383  14.648   8.167
37050SOL     OW13046  13.627  14.056  14.640
37050SOL    HW113047  13.596  13.992  14.704
37050SOL    HW213048  13.564  14.127  14.644
37051SOL     OW13049   9.130   3.568  14.626
37051SOL    HW113050   9.122   3.662  14.614
37051SOL    HW213051   9.148   3.534  14.539
37052SOL     OW13052   6.458  14.819   2.972
37052SOL    HW113053   6.414  14.843   2.891
37052SOL    HW213054   6.544  14.862   2.968
37053SOL     OW13055  12.719   6.497   5.515
37053SOL    HW113056  12.806   6.490   5.475
37053SOL    HW213057  12.706   6.414   5.560
37054SOL     OW13058  12.291   0.813  10.007
37054SOL    HW113059  12.238   0.879   9.963
37054SOL    HW213060  12.372   0.809   9.956
37055SOL     OW13061   6.348   0.682   4.641
37055SOL    HW113062   6.332   0.765   4.595
37055SOL    HW213063   6.314   0.616   4.581
37056SOL     OW13064  12.504   3.140   4.367
37056SOL    HW113065  12.525   3.108   4.455
37056SOL    HW213066  12.500   3.235   4.377
37057SOL     OW13067  14.715   0.762   8.840
37057SOL    HW113068  14.738   0.703   8.768
37057SOL    HW213069  14.776   0.835   8.832
37058SOL     OW13070   6.534   6.526  11.523
37058SOL    HW113071   6.610   6.468  11.514
37058SOL    HW213072   6.478   6.482  11.588
37059SOL     OW13073   0.531  13.998   6.461
37059SOL    HW113074   0.438  14.012   6.477
37059SOL    HW213075   0.543  13.903   6.471
37060SOL     OW13076   1.496   3.175   1.097
37060SOL    HW113077   1.527   3.085   1.091
37060SOL    HW213078   1.462   3.183   1.186
37061SOL     OW13079   2.687   8.665   9.667
37061SOL    HW113080   2.657   8.702   9.750
37061SOL    HW213081   2.779   8.645   9.681
37062SOL     OW13082  10.437   3.703   9.592
37062SOL    HW113083  10.425   3.755   9.672
37062SOL    HW213084  10.386   3.624   9.607
37063SOL     OW13085   4.660  10.192   8.215
37063SOL    HW113086   4.727  10.259   8.197
37063SOL    HW213087   4.710  10.114   8.238
37064SOL     OW13088  12.510  11.356  14.315
37064SOL    HW113089  12.545  11.431  14.362
37064SOL    HW213090  12.444  11.392  14.256
37065SOL     OW13091   5.106   4.799   3.639
37065SOL    HW113092   5.023   4.824   3.598
37065SOL    HW213093   5.153   4.751   3.570
37066SOL     OW13094   7.621   3.212   3.433
37066SOL    HW113095   7.656   3.281   3.489
37066SOL    HW213096   7.684   3.205   3.362
37067SOL     OW13097   6.342   7.111   0.225
37067SOL    HW113098   6.423   7.161   0.215
37067SOL    HW213099   6.291   7.132   0.147
37068SOL     OW13100  10.884  14.409   0.015
37068SOL    HW113101  10.974  14.431  14.874
37068SOL    HW213102  10.877  14.315  14.882
37069SOL     OW13103   9.975  11.518   9.600
37069SOL    HW113104   9.900  11.520   9.540
37069SOL    HW213105   9.966  11.434   9.646
37070SOL     OW13106   8.456  12.156  13.823
37070SOL    HW113107   8.490  12.245  13.818
37070SOL    HW213108   8.516  12.112  13.884
37071SOL     OW13109   9.999  10.179   2.114
37071SOL    HW113110   9.978  10.180   2.021
37071SOL    HW213111  10.047  10.261   2.128
37072SOL     OW13112  11.804   6.205   9.608
37072SOL    HW113113  11.807   6.268   9.680
37072SOL    HW213114  11.886   6.219   9.561
37073SOL     OW13115   9.486   3.546   5.303
37073SOL    HW113116   9.492   3.641   5.316
37073SOL    HW213117   9.553   3.510   5.360
37074SOL     OW13118   1.546   2.028   7.922
37074SOL    HW113119   1.466   1.988   7.957
37074SOL    HW213120   1.569   2.094   7.987
37075SOL     OW13121   4.692   8.378  11.014
37075SOL    HW113122   4.682   8.448  11.078
37075SOL    HW213123   4.736   8.418  10.940
37076SOL     OW13124   8.737   3.505  14.291
37076SOL    HW113125   8.772   3.569  14.353
37076SOL    HW213126   8.667   3.461  14.339
37077SOL     OW13127  12.429   9.184   9.324
37077SOL    HW113128  12.391   9.102   9.295
37077SOL    HW213129  12.483   9.212   9.249
37078SOL     OW13130   7.535   1.477   3.233
37078SOL    HW113131   7.573   1.472   3.321
37078SOL    HW213132   7.491   1.562   3.231
37079SOL     OW13133   7.003   8.074   6.413
37079SOL    HW113134   7.089   8.082   6.455
37079SOL    HW213135   6.985   8.162   6.378
37080SOL     OW13136  11.840   0.844  13.371
37080SOL    HW113137  11.839   0.831  13.466
37080SOL    HW213138  11.760   0.893  13.352
37081SOL     OW13139  11.783   1.563  12.511
37081SOL    HW113140  11.865   1.516  12.500
37081SOL    HW213141  11.728   1.533  12.438
37082SOL     OW13142   7.285   0.164   7.712
37082SOL    HW113143   7.265   0.072   7.695
37082SOL    HW213144   7.312   0.166   7.804
37083SOL     OW13145   0.385  14.594  14.798
37083SOL    HW113146   0.300  14.602  14.757
37083SOL    HW213147   0.395  14.675  14.849
37084SOL     OW13148   6.200   7.092  13.667
37084SOL    HW113149   6.169   7.004  13.685
37084SOL    HW213150   6.120   7.142  13.650
37085SOL     OW13151  11.381  13.673   6.704
37085SOL    HW113152  11.468  13.642   6.679
37085SOL    HW213153  11.323  13.600   6.684
37086SOL     OW13154   5.589   2.470   3.732
37086SOL    HW113155   5.555   2.381   3.724
37086SOL    HW213156   5.642   2.483   3.654
37087SOL     OW13157   9.137  13.347   3.781
37087SOL    HW113158   9.071  13.352   3.851
37087SOL    HW213159   9.087  13.324   3.703
37088SOL     OW13160   6.280  10.859   0.041
37088SOL    HW113161   6.319  10.780   0.004
37088SOL    HW213162   6.342  10.886   0.110
37089SOL     OW13163   2.979  12.805   9.753
37089SOL    HW113164   2.886  12.816   9.773
37089SOL    HW213165   2.982  12.732   9.691
37090SOL     OW13166   7.312   0.443  14.144
37090SOL    HW113167   7.291   0.453  14.236
37090SOL    HW213168   7.362   0.361  14.139
37091SOL     OW13169   2.988  14.568   5.865
37091SOL    HW113170   2.917  14.600   5.810
37091SOL    HW213171   2.960  14.481   5.893
37092SOL     OW13172   0.007   7.556  12.498
37092SOL    HW113173  14.832   7.497  12.447
37092SOL    HW213174   0.010   7.636  12.447
37093SOL     OW13175   0.718  11.551  10.720
37093SOL    HW113176   0.705  11.582  10.809
37093SOL    HW213177   0.809  11.523  10.717
37094SOL     OW13178   5.370   6.472  10.484
37094SOL    HW113179   5.280   6.502  10.497
37094SOL    HW213180   5.392   6.425  10.565
37095SOL     OW13181  14.487   1.007   0.707
37095SOL    HW113182  14.560   1.009   0.769
37095SOL    HW213183  14.464   0.914   0.701
37096SOL     OW13184  14.582  11.570   5.971
37096SOL    HW113185  14.516  11.508   5.941
37096SOL    HW213186  14.652  11.515   6.006
37097SOL     OW13187   2.529   4.660  12.785
37097SOL    HW113188   2.510   4.753  12.773
37097SOL    HW213189   2.444   4.618  12.797
37098SOL     OW13190   3.692  13.373  12.951
37098SOL    HW113191   3.680  13.304  13.015
37098SOL    HW213192   3.605  13.384  12.911
37099SOL     OW13193   2.595   0.372   9.215
37099SOL    HW113194   2.521   0.419   9.177
37099SOL    HW213195   2.590   0.284   9.178
37100SOL     OW13196   1.432   4.245   2.576
37100SOL    HW113197   1.442   4.271   2.668
37100SOL    HW213198   1.498   4.177   2.563
37101SOL     OW13199  10.616   5.942   8.851
37101SOL    HW113200  10.579   5.855   8.870
37101SOL    HW213201  10.540   6.000   8.845
37102SOL     OW13202   3.128  13.398  14.227
37102SOL    HW113203   3.106  13.431  14.140
37102SOL    HW213204   3.045  13.371  14.265
37103SOL     OW13205   1.966   9.168   4.226
37103SOL    HW113206   2.022   9.229   4.178
37103SOL    HW213207   1.890   9.220   4.250
37104SOL     OW13208  12.365  11.062   5.300
37104SOL    HW113209  12.439  11.059   5.240
37104SOL    HW213210  12.371  11.148   5.342
37105SOL     OW13211  10.665   4.017  11.346
37105SOL    HW113212  10.703   4.105  11.342
37105SOL    HW213213  10.669   3.993  11.438
37106SOL     OW13214   9.614   7.162  14.557
37106SOL    HW113215   9.541   7.101  14.566
37106SOL    HW213216   9.663   7.130  14.482
37107SOL     OW13217   2.834  13.208   5.807
37107SOL    HW113218   2.901  13.268   5.775
37107SOL    HW213219   2.824  13.231   5.900
37108SOL     OW13220   7.086  12.112   0.116
37108SOL    HW113221   7.177  12.095   0.141
37108SOL    HW213222   7.085  12.204   0.090
37109SOL     OW13223   1.752   5.630  14.054
37109SOL    HW113224   1.698   5.612  14.131
37109SOL    HW213225   1.822   5.565  14.058
37110SOL     OW13226   8.809   6.457   4.737
37110SOL    HW113227   8.753   6.532   4.754
37110SOL    HW213228   8.887   6.473   4.791
37111SOL     OW13229   8.200   0.042   3.776
37111SOL    HW113230   8.143   0.087   3.837
37111SOL    HW213231   8.141   0.009   3.708
37112SOL     OW13232  12.902   6.606   1.514
37112SOL    HW113233  12.929   6.655   1.436
37112SOL    HW213234  12.862   6.672   1.571
37113SOL     OW13235  12.825  13.200   9.052
37113SOL    HW113236  12.777  13.266   9.002
37113SOL    HW213237  12.777  13.118   9.037
37114SOL     OW13238   3.966   5.389   2.020
37114SOL    HW113239   3.969   5.342   1.938
37114SOL    HW213240   3.990   5.479   1.997
37115SOL     OW13241  12.097  12.639   2.007
37115SOL    HW113242  12.181  12.603   2.035
37115SOL    HW213243  12.100  12.634   1.911
37116SOL     OW13244  12.890   2.982   5.768
37116SOL    HW113245  12.796   2.985   5.750
37116SOL    HW213246  12.900   2.910   5.830
37117SOL     OW13247  10.020  13.835   3.487
37117SOL    HW113248   9.956  13.789   3.433
37117SOL    HW213249   9.968  13.892   3.543
37118SOL     OW13250   4.597   3.193  12.742
37118SOL    HW113251   4.613   3.276  12.787
37118SOL    HW213252   4.532   3.149  12.797
37119SOL     OW13253  10.051  10.578  14.396
37119SOL    HW113254   9.996  10.637  14.447
37119SOL    HW213255  10.136  10.579  14.440
37120SOL     OW13256   4.018   4.445   8.991
37120SOL    HW113257   3.969   4.496   9.055
37120SOL    HW213258   3.952   4.408   8.934
37121SOL     OW13259   0.848   0.181   9.357
37121SOL    HW113260   0.939   0.186   9.327
37121SOL    HW213261   0.852   0.210   9.448
37122SOL     OW13262  13.254   8.601  14.287
37122SOL    HW113263  13.249   8.533  14.353
37122SOL    HW213264  13.166   8.603  14.248
37123SOL     OW13265   2.894  13.260  12.616
37123SOL    HW113266   2.884  13.349  12.582
37123SOL    HW213267   2.838  13.206  12.560
37124SOL     OW13268   9.185   3.624  12.696
37124SOL    HW113269   9.207   3.553  12.636
37124SOL    HW213270   9.250   3.618  12.765
37125SOL     OW13271  12.044   1.368   5.785
37125SOL    HW113272  12.037   1.387   5.692
37125SOL    HW213273  11.961   1.397   5.822
37126SOL     OW13274  11.115   9.853   0.151
37126SOL    HW113275  11.023   9.826   0.156
37126SOL    HW213276  11.164   9.771   0.141
37127SOL     OW13277  10.051   7.222   0.476
37127SOL    HW113278  10.057   7.314   0.451
37127SOL    HW213279   9.977   7.217   0.536
37128SOL     OW13280   5.355   4.638   2.727
37128SOL    HW113281   5.427   4.575   2.723
37128SOL    HW213282   5.278   4.588   2.701
37129SOL     OW13283   8.772   8.414   0.292
37129SOL    HW113284   8.732   8.469   0.224
37129SOL    HW213285   8.749   8.457   0.374
37130SOL     OW13286   6.930   9.525  11.727
37130SOL    HW113287   6.969   9.612  11.736
37130SOL    HW213288   6.955   9.479  11.807
37131SOL     OW13289   6.579   6.868   9.402
37131SOL    HW113290   6.648   6.923   9.365
37131SOL    HW213291   6.546   6.817   9.328
37132SOL     OW13292   9.444   7.438  10.083
37132SOL    HW113293   9.429   7.439   9.988
37132SOL    HW213294   9.521   7.382  10.094
37133SOL     OW13295  10.596  12.550   0.330
37133SOL    HW113296  10.612  12.568   0.423
37133SOL    HW213297  10.678  12.574   0.286
37134SOL     OW13298   6.897  10.307  10.011
37134SOL    HW113299   6.975  10.316   9.956
37134SOL    HW213300   6.883  10.394  10.047
37135SOL     OW13301   5.846   7.890   9.932
37135SOL    HW113302   5.806   7.895   9.845
37135SOL    HW213303   5.817   7.805   9.966
37136SOL     OW13304   2.172   1.758  13.615
37136SOL    HW113305   2.241   1.730  13.554
37136SOL    HW213306   2.104   1.794  13.559
37137SOL     OW13307   5.545   7.261   6.551
37137SOL    HW113308   5.639   7.243   6.544
37137SOL    HW213309   5.503   7.195   6.497
37138SOL     OW13310  14.408  11.816  13.933
37138SOL    HW113311  14.349  11.838  13.861
37138SOL    HW213312  14.351  11.797  14.007
37139SOL     OW13313  11.793   4.206   2.777
37139SOL    HW113314  11.734   4.278   2.799
37139SOL    HW213315  11.777   4.191   2.683
37140SOL     OW13316   2.496  14.311  11.923
37140SOL    HW113317   2.581  14.351  11.937
37140SOL    HW213318   2.433  14.382  11.933
37141SOL     OW13319  12.933   0.169   7.279
37141SOL    HW113320  12.982   0.245   7.247
37141SOL    HW213321  12.863   0.158   7.215
37142SOL     OW13322  14.037   4.771   6.770
37142SOL    HW113323  14.008   4.849   6.818
37142SOL    HW213324  13.959   4.739   6.726
37143SOL     OW13325   1.083  10.172   7.808
37143SOL    HW113326   1.159  10.183   7.751
37143SOL    HW213327   1.076  10.077   7.820
37144SOL     OW13328  11.681   2.417   9.456
37144SOL    HW113329  11.638   2.405   9.540
37144SOL    HW213330  11.708   2.509   9.456
37145SOL     OW13331  14.681  14.818   2.363
37145SOL    HW113332  14.737   0.011   2.381
37145SOL    HW213333  14.722  14.774   2.289
37146SOL     OW13334   8.728   8.486   6.030
37146SOL    HW113335   8.809   8.528   6.004
37146SOL    HW213336   8.660   8.529   5.978
37147SOL     OW13337   1.255   7.878   5.800
37147SOL    HW113338   1.307   7.951   5.834
37147SOL    HW213339   1.166   7.897   5.827
37148SOL     OW13340  12.989   7.006   2.733
37148SOL    HW113341  13.085   7.007   2.732
37148SOL    HW213342  12.964   7.089   2.774
37149SOL     OW13343   0.494   9.702  10.494
37149SOL    HW113344   0.561   9.667  10.553
37149SOL    HW213345   0.544   9.747  10.426
37150SOL     OW13346   1.571  10.840  11.499
37150SOL    HW113347   1.561  10.923  11.545
37150SOL    HW213348   1.545  10.774  11.563
37151SOL     OW13349   8.231   6.224  13.853
37151SOL    HW113350   8.194   6.294  13.907
37151SOL    HW213351   8.161   6.200  13.793
37152SOL     OW13352   9.818   4.225   7.993
37152SOL    HW113353   9.849   4.164   7.926
37152SOL    HW213354   9.853   4.310   7.966
37153SOL     OW13355   3.277  12.542   3.776
37153SOL    HW113356   3.260  12.479   3.707
37153SOL    HW213357   3.354  12.508   3.822
37154SOL     OW13358   9.768  12.339   8.919
37154SOL    HW113359   9.804  12.422   8.949
37154SOL    HW213360   9.676  12.342   8.943
37155SOL     OW13361  10.481   6.535   1.666
37155SOL    HW113362  10.424   6.595   1.714
37155SOL    HW213363  10.481   6.455   1.718
37156SOL     OW13364  13.525   8.746   0.229
37156SOL    HW113365  13.476   8.737   0.311
37156SOL    HW213366  13.602   8.797   0.254
37157SOL     OW13367  11.578  13.759   7.657
37157SOL    HW113368  11.636  13.804   7.718
37157SOL    HW213369  11.630  13.686   7.623
37158SOL     OW13370   3.346   9.669   6.436
37158SOL    HW113371   3.256   9.684   6.409
37158SOL    HW213372   3.385   9.621   6.363
37159SOL     OW13373   0.444  14.455  10.361
37159SOL    HW113374   0.492  14.381  10.399
37159SOL    HW213375   0.406  14.500  10.436
37160SOL     OW13376   7.935   0.493   6.509
37160SOL    HW113377   7.905   0.578   6.542
37160SOL    HW213378   7.868   0.467   6.446
37161SOL     OW13379   0.506   8.422   4.166
37161SOL    HW113380   0.428   8.397   4.217
37161SOL    HW213381   0.552   8.340   4.151
37162SOL     OW13382   7.237   1.607  12.464
37162SOL    HW113383   7.255   1.514  12.479
37162SOL    HW213384   7.183   1.608  12.385
37163SOL     OW13385  13.805   0.452   5.773
37163SOL    HW113386  13.839   0.366   5.798
37163SOL    HW213387  13.862   0.481   5.702
37164SOL     OW13388  10.573   6.329   4.023
37164SOL    HW113389  10.630   6.315   4.099
37164SOL    HW213390  10.569   6.244   3.979
37165SOL     OW13391  11.431   4.117  12.390
37165SOL    HW113392  11.413   4.156  12.476
37165SOL    HW213393  11.475   4.186  12.341
37166SOL     OW13394   5.575   2.162  11.965
37166SOL    HW113395   5.634   2.215  11.911
37166SOL    HW213396   5.632   2.122  12.031
37167SOL     OW13397   9.795   6.173   2.477
37167SOL    HW113398   9.725   6.226   2.517
37167SOL    HW213399   9.832   6.124   2.550
37168SOL     OW13400   0.649   0.718   6.756
37168SOL    HW113401   0.633   0.797   6.808
37168SOL    HW213402   0.610   0.736   6.671
37169SOL     OW13403   2.637   2.099   6.214
37169SOL    HW113404   2.608   2.141   6.294
37169SOL    HW213405   2.587   2.017   6.210
37170SOL     OW13406   3.488   1.588  12.256
37170SOL    HW113407   3.427   1.634  12.199
37170SOL    HW213408   3.575   1.611  12.221
37171SOL     OW13409   5.159  12.506  11.242
37171SOL    HW113410   5.199  12.425  11.210
37171SOL    HW213411   5.149  12.492  11.336
37172SOL     OW13412   4.761  11.077   4.970
37172SOL    HW113413   4.806  11.092   4.887
37172SOL    HW213414   4.727  11.163   4.995
37173SOL     OW13415   9.495   1.998   4.531
37173SOL    HW113416   9.517   2.079   4.578
37173SOL    HW213417   9.446   2.028   4.454
37174SOL     OW13418   4.932   0.833   6.815
37174SOL    HW113419   4.859   0.891   6.794
37174SOL    HW213420   4.995   0.847   6.744
37175SOL     OW13421   3.473   9.195  13.076
37175SOL    HW113422   3.552   9.194  13.131
37175SOL    HW213423   3.418   9.125  13.112
37176SOL     OW13424  12.255   9.532  10.500
37176SOL    HW113425  12.174   9.541  10.549
37176SOL    HW213426  12.252   9.443  10.464
37177SOL     OW13427   1.826   8.786  14.240
37177SOL    HW113428   1.772   8.841  14.297
37177SOL    HW213429   1.786   8.700  14.245
37178SOL     OW13430   0.235   5.058   9.079
37178SOL    HW113431   0.203   5.116   9.010
37178SOL    HW213432   0.330   5.060   9.071
37179SOL     OW13433   4.372   3.125   6.106
37179SOL    HW113434   4.300   3.181   6.077
37179SOL    HW213435   4.415   3.176   6.174
37180SOL     OW13436   1.001   1.862  13.416
37180SOL    HW113437   1.031   1.882  13.504
37180SOL    HW213438   0.977   1.769  13.419
37181SOL     OW13439  13.229   7.093   6.058
37181SOL    HW113440  13.195   7.123   5.974
37181SOL    HW213441  13.323   7.110   6.054
37182SOL     OW13442   4.023   1.627  13.885
37182SOL    HW113443   4.100   1.571  13.892
37182SOL    HW213444   3.951   1.567  13.866
37183SOL     OW13445   4.128   5.379   6.427
37183SOL    HW113446   4.113   5.341   6.340
37183SOL    HW213447   4.210   5.426   6.418
37184SOL     OW13448  10.472   2.671   8.586
37184SOL    HW113449  10.483   2.763   8.610
37184SOL    HW213450  10.511   2.622   8.658
37185SOL     OW13451   0.075   7.965   4.881
37185SOL    HW113452   0.053   7.874   4.903
37185SOL    HW213453  14.874   8.002   4.849
37186SOL     OW13454  13.363  12.641  13.890
37186SOL    HW113455  13.393  12.722  13.848
37186SOL    HW213456  13.268  12.644  13.883
37187SOL     OW13457  12.895   5.597   7.151
37187SOL    HW113458  12.960   5.583   7.082
37187SOL    HW213459  12.947   5.613   7.230
37188SOL     OW13460   8.193   6.609   7.089
37188SOL    HW113461   8.208   6.523   7.052
37188SOL    HW213462   8.171   6.664   7.014
37189SOL     OW13463   8.013   7.075   5.152
37189SOL    HW113464   7.956   7.015   5.201
37189SOL    HW213465   7.957   7.109   5.082
37190SOL     OW13466   6.484   3.045  13.727
37190SOL    HW113467   6.391   3.045  13.751
37190SOL    HW213468   6.524   3.109  13.787
37191SOL     OW13469  10.180   3.059   9.024
37191SOL    HW113470  10.137   3.144   9.034
37191SOL    HW213471  10.168   3.037   8.932
37192SOL     OW13472   8.868   2.605   2.721
37192SOL    HW113473   8.887   2.673   2.786
37192SOL    HW213474   8.921   2.530   2.749
37193SOL     OW13475   6.901   9.723   6.280
37193SOL    HW113476   6.884   9.694   6.370
37193SOL    HW213477   6.964   9.794   6.290
37194SOL     OW13478  14.408  10.955   8.259
37194SOL    HW113479  14.317  10.926   8.258
37194SOL    HW213480  14.404  11.045   8.293
37195SOL     OW13481   2.867  14.699   0.565
37195SOL    HW113482   2.885  14.612   0.600
37195SOL    HW213483   2.853  14.684   0.471
37196SOL     OW13484   4.673  13.033   9.197
37196SOL    HW113485   4.695  12.989   9.279
37196SOL    HW213486   4.578  13.044   9.201
37197SOL     OW13487   6.443   6.284   6.124
37197SOL    HW113488   6.399   6.273   6.209
37197SOL    HW213489   6.529   6.245   6.137
37198SOL     OW13490   9.025   0.808   7.368
37198SOL    HW113491   8.959   0.748   7.401
37198SOL    HW213492   8.995   0.832   7.280
37199SOL     OW13493   6.522   2.902  13.306
37199SOL    HW113494   6.451   2.942  13.356
37199SOL    HW213495   6.509   2.807  13.317
37200SOL     OW13496   9.025   4.703  14.519
37200SOL    HW113497   8.994   4.789  14.491
37200SOL    HW213498   9.120   4.711  14.523
37201SOL     OW13499   6.187   0.900  12.498
37201SOL    HW113500   6.144   0.930  12.418
37201SOL    HW213501   6.277   0.933  12.490
37202SOL     OW13502   6.722  12.706   9.732
37202SOL    HW113503   6.788  12.649   9.693
37202SOL    HW213504   6.656  12.718   9.663
37203SOL     OW13505   3.396   5.218   5.391
37203SOL    HW113506   3.354   5.277   5.328
37203SOL    HW213507   3.337   5.143   5.398
37204SOL     OW13508   9.380   0.681   7.129
37204SOL    HW113509   9.396   0.774   7.112
37204SOL    HW213510   9.433   0.635   7.064
37205SOL     OW13511   8.969   0.408  12.318
37205SOL    HW113512   8.976   0.313  12.325
37205SOL    HW213513   9.013   0.429  12.235
37206SOL     OW13514  11.419   2.673   4.265
37206SOL    HW113515  11.467   2.707   4.340
37206SOL    HW213516  11.327   2.674   4.292
37207SOL     OW13517   7.009   6.150   8.447
37207SOL    HW113518   7.017   6.105   8.362
37207SOL    HW213519   6.976   6.083   8.507
37208SOL     OW13520   4.548   0.547   3.754
37208SOL    HW113521   4.576   0.470   3.803
37208SOL    HW213522   4.454   0.552   3.769
37209SOL     OW13523  10.437   6.414   1.394
37209SOL    HW113524  10.441   6.485   1.458
37209SOL    HW213525  10.346   6.417   1.362
37210SOL     OW13526   7.054   2.738  12.024
37210SOL    HW113527   7.052   2.651  12.064
37210SOL    HW213528   6.962   2.763  12.017
37211SOL     OW13529   0.873   8.781   1.812
37211SOL    HW113530   0.855   8.746   1.899
37211SOL    HW213531   0.837   8.715   1.752
37212SOL     OW13532   1.275   0.231  10.128
37212SOL    HW113533   1.304   0.148  10.090
37212SOL    HW213534   1.230   0.276  10.056
37213SOL     OW13535   3.079   8.255   0.947
37213SOL    HW113536   2.991   8.285   0.969
37213SOL    HW213537   3.137   8.325   0.976
37214SOL     OW13538   9.579   4.933   3.400
37214SOL    HW113539   9.655   4.986   3.375
37214SOL    HW213540   9.593   4.849   3.355
37215SOL     OW13541   0.974   6.502   3.914
37215SOL    HW113542   0.881   6.526   3.923
37215SOL    HW213543   0.974   6.430   3.851
37216SOL     OW13544  12.259   9.325   2.605
37216SOL    HW113545  12.310   9.301   2.682
37216SOL    HW213546  12.234   9.416   2.621
37217SOL     OW13547  12.305   4.796   0.610
37217SOL    HW113548  12.261   4.712   0.604
37217SOL    HW213549  12.336   4.815   0.522
37218SOL     OW13550   2.797   3.707   0.455
37218SOL    HW113551   2.713   3.745   0.480
37218SOL    HW213552   2.799   3.712   0.360
37219SOL     OW13553  14.746  13.257  11.706
37219SOL    HW113554  14.734  13.171  11.747
37219SOL    HW213555  14.669  13.307  11.731
37220SOL     OW13556  12.508   4.237  11.837
37220SOL    HW113557  12.475   4.247  11.747
37220SOL    HW213558  12.545   4.322  11.859
37221SOL     OW13559   0.638  13.315   7.583
37221SOL    HW113560   0.599  13.353   7.662
37221SOL    HW213561   0.701  13.380   7.554
37222SOL     OW13562   6.016  10.486  10.533
37222SOL    HW113563   6.062  10.428  10.593
37222SOL    HW213564   5.992  10.431  10.459
37223SOL     OW13565  14.715  12.641   0.890
37223SOL    HW113566  14.759  12.703   0.832
37223SOL    HW213567  14.714  12.559   0.841
37224SOL     OW13568   1.918   9.505   5.142
37224SOL    HW113569   1.873   9.553   5.073
37224SOL    HW213570   2.010   9.507   5.116
37225SOL     OW13571   9.693  13.317   6.947
37225SOL    HW113572   9.757  13.375   6.905
37225SOL    HW213573   9.608  13.346   6.913
37226SOL     OW13574   6.969  10.594   5.167
37226SOL    HW113575   6.973  10.641   5.084
37226SOL    HW213576   7.047  10.622   5.214
37227SOL     OW13577  14.400  11.581  13.436
37227SOL    HW113578  14.331  11.645  13.422
37227SOL    HW213579  14.366  11.522  13.502
37228SOL     OW13580   7.387   5.011  10.815
37228SOL    HW113581   7.386   5.076  10.745
37228SOL    HW213582   7.466   5.030  10.865
37229SOL     OW13583   2.886   5.814   6.235
37229SOL    HW113584   2.935   5.886   6.274
37229SOL    HW213585   2.940   5.785   6.162
37230SOL     OW13586   3.047   6.317   7.799
37230SOL    HW113587   3.125   6.310   7.744
37230SOL    HW213588   3.048   6.238   7.852
37231SOL     OW13589  10.735   3.314  11.740
37231SOL    HW113590  10.653   3.319  11.789
37231SOL    HW213591  10.800   3.286  11.805
37232SOL     OW13592   1.003   1.695  11.755
37232SOL    HW113593   1.091   1.669  11.728
37232SOL    HW213594   0.954   1.613  11.758
37233SOL     OW13595  11.867   2.486   2.325
37233SOL    HW113596  11.927   2.464   2.397
37233SOL    HW213597  11.924   2.508   2.252
37234SOL     OW13598  12.165   6.785   6.802
37234SOL    HW113599  12.171   6.735   6.883
37234SOL    HW213600  12.255   6.793   6.771
37235SOL     OW13601  11.990   1.297   2.598
37235SOL    HW113602  12.023   1.243   2.670
37235SOL    HW213603  11.895   1.281   2.598
37236SOL     OW13604  12.830  14.177  11.217
37236SOL    HW113605  12.873  14.093  11.207
37236SOL    HW213606  12.750  14.170  11.165
37237SOL     OW13607   6.544  14.004   0.108
37237SOL    HW113608   6.474  13.940   0.095
37237SOL    HW213609   6.546  14.055   0.028
37238SOL     OW13610  10.788  13.293   4.084
37238SOL    HW113611  10.753  13.305   4.173
37238SOL    HW213612  10.883  13.297   4.095
37239SOL     OW13613   6.781   2.805  13.580
37239SOL    HW113614   6.870   2.785  13.609
37239SOL    HW213615   6.728   2.734  13.616
37240SOL     OW13616   4.058  10.690   4.108
37240SOL    HW113617   4.104  10.751   4.051
37240SOL    HW213618   3.972  10.679   4.067
37241SOL     OW13619   5.923  10.007   8.921
37241SOL    HW113620   5.922  10.066   8.997
37241SOL    HW213621   5.868   9.933   8.948
37242SOL     OW13622  12.331   2.189  12.008
37242SOL    HW113623  12.317   2.234  12.092
37242SOL    HW213624  12.295   2.102  12.022
37243SOL     OW13625  10.137  12.869   7.470
37243SOL    HW113626  10.103  12.955   7.494
37243SOL    HW213627  10.059  12.816   7.453
37244SOL     OW13628   1.864   6.733   8.097
37244SOL    HW113629   1.923   6.691   8.160
37244SOL    HW213630   1.782   6.685   8.106
37245SOL     OW13631  11.552   0.909  11.806
37245SOL    HW113632  11.644   0.935  11.797
37245SOL    HW213633  11.515   0.974  11.866
37246SOL     OW13634   4.969  13.326   5.697
37246SOL    HW113635   4.900  13.294   5.640
37246SOL    HW213636   5.048  13.322   5.643
37247SOL     OW13637   4.216  10.341   6.417
37247SOL    HW113638   4.193  10.284   6.490
37247SOL    HW213639   4.226  10.427   6.457
37248SOL     OW13640  13.528   0.651   6.539
37248SOL    HW113641  13.567   0.615   6.618
37248SOL    HW213642  13.535   0.746   6.549
37249SOL     OW13643   2.502  13.547   3.587
37249SOL    HW113644   2.485  13.578   3.498
37249SOL    HW213645   2.546  13.463   3.576
37250SOL     OW13646  10.426   4.953   5.385
37250SOL    HW113647  10.448   4.897   5.310
37250SOL    HW213648  10.473   5.035   5.369
37251SOL     OW13649  11.440   1.105   2.593
37251SOL    HW113650  11.409   1.031   2.645
37251SOL    HW213651  11.425   1.181   2.648
37252SOL     OW13652  12.260   3.025  10.264
37252SOL    HW113653  12.194   3.066  10.209
37252SOL    HW213654  12.339   3.077  10.249
37253SOL     OW13655   6.285   2.678   4.771
37253SOL    HW113656   6.297   2.740   4.844
37253SOL    HW213657   6.191   2.680   4.755
37254SOL     OW13658  14.448   4.102  10.348
37254SOL    HW113659  14.474   4.013  10.374
37254SOL    HW213660  14.494   4.159  10.410
37255SOL     OW13661   3.173  10.460   8.549
37255SOL    HW113662   3.252  10.496   8.590
37255SOL    HW213663   3.200  10.373   8.518
37256SOL     OW13664   7.675  10.185   1.107
37256SOL    HW113665   7.706  10.131   1.034
37256SOL    HW213666   7.721  10.268   1.095
37257SOL     OW13667   4.181   3.878   4.567
37257SOL    HW113668   4.159   3.792   4.605
37257SOL    HW213669   4.237   3.919   4.632
37258SOL     OW13670   1.862  14.507   0.097
37258SOL    HW113671   1.861  14.590   0.144
37258SOL    HW213672   1.890  14.530   0.008
37259SOL     OW13673   4.347  12.495   2.783
37259SOL    HW113674   4.291  12.429   2.742
37259SOL    HW213675   4.297  12.576   2.777
37260SOL     OW13676   2.522  13.390  11.558
37260SOL    HW113677   2.559  13.314  11.512
37260SOL    HW213678   2.597  13.430  11.602
37261SOL     OW13679   6.915   6.040   1.365
37261SOL    HW113680   6.831   6.003   1.337
37261SOL    HW213681   6.976   6.012   1.298
37262SOL     OW13682   0.882   4.504  10.860
37262SOL    HW113683   0.928   4.425  10.890
37262SOL    HW213684   0.816   4.520  10.928
37263SOL     OW13685  10.885   9.835  13.953
37263SOL    HW113686  10.808   9.802  13.907
37263SOL    HW213687  10.958   9.821  13.892
37264SOL     OW13688   9.039   7.088  14.597
37264SOL    HW113689   8.983   7.162  14.571
37264SOL    HW213690   9.108   7.128  14.650
37265SOL     OW13691   1.683  11.387   0.713
37265SOL    HW113692   1.742  11.452   0.750
37265SOL    HW213693   1.733  11.345   0.643
37266SOL     OW13694   7.240   6.447  11.742
37266SOL    HW113695   7.264   6.532  11.704
37266SOL    HW213696   7.267   6.454  11.834
37267SOL     OW13697   6.400  12.218   0.600
37267SOL    HW113698   6.344  12.171   0.662
37267SOL    HW213699   6.431  12.295   0.649
37268SOL     OW13700   2.238   8.500   6.284
37268SOL    HW113701   2.226   8.406   6.302
37268SOL    HW213702   2.331   8.515   6.299
37269SOL     OW13703   2.629  11.203   2.044
37269SOL    HW113704   2.676  11.250   1.975
37269SOL    HW213705   2.695  11.185   2.111
37270SOL     OW13706  12.712   7.379  14.570
37270SOL    HW113707  12.626   7.419  14.556
37270SOL    HW213708  12.755   7.437  14.632
37271SOL     OW13709   8.341   0.601   5.336
37271SOL    HW113710   8.315   0.612   5.428
37271SOL    HW213711   8.370   0.510   5.330
37272SOL     OW13712  14.588   6.609   6.307
37272SOL    HW113713  14.564   6.659   6.385
37272SOL    HW213714  14.549   6.658   6.235
37273SOL     OW13715  12.222   8.151   1.367
37273SOL    HW113716  12.197   8.110   1.284
37273SOL    HW213717  12.163   8.113   1.432
37274SOL     OW13718   8.303  14.262  11.549
37274SOL    HW113719   8.360  14.188  11.526
37274SOL    HW213720   8.361  14.338  11.544
37275SOL     OW13721  11.140   3.360  10.256
37275SOL    HW113722  11.155   3.424  10.187
37275SOL    HW213723  11.150   3.409  10.337
37276SOL     OW13724  14.658  12.088   3.745
37276SOL    HW113725  14.612  12.081   3.829
37276SOL    HW213726  14.592  12.064   3.680
37277SOL     OW13727   8.707  11.488   9.149
37277SOL    HW113728   8.670  11.431   9.216
37277SOL    HW213729   8.635  11.501   9.087
37278SOL     OW13730  12.424   3.094   9.595
37278SOL    HW113731  12.335   3.076   9.567
37278SOL    HW213732  12.416   3.116   9.688
37279SOL     OW13733  12.261  12.322   8.334
37279SOL    HW113734  12.236  12.256   8.399
37279SOL    HW213735  12.326  12.376   8.379
37280SOL     OW13736  12.021   5.414  14.790
37280SOL    HW113737  11.988   5.324  14.779
37280SOL    HW213738  11.986   5.461  14.715
37281SOL     OW13739  10.826   0.553  13.937
37281SOL    HW113740  10.798   0.463  13.956
37281SOL    HW213741  10.744   0.603  13.932
37282SOL     OW13742   6.837   0.873  12.039
37282SOL    HW113743   6.866   0.790  12.001
37282SOL    HW213744   6.780   0.911  11.973
37283SOL     OW13745   8.083  13.364   8.236
37283SOL    HW113746   8.067  13.440   8.180
37283SOL    HW213747   8.110  13.295   8.175
37284SOL     OW13748   3.351   5.701   6.144
37284SOL    HW113749   3.275   5.731   6.194
37284SOL    HW213750   3.371   5.774   6.085
37285SOL     OW13751   7.729   9.855  13.807
37285SOL    HW113752   7.773   9.848  13.892
37285SOL    HW213753   7.790   9.815  13.745
37286SOL     OW13754   7.328  12.156   4.773
37286SOL    HW113755   7.354  12.247   4.764
37286SOL    HW213756   7.321  12.141   4.867
37287SOL     OW13757   5.961   1.014   4.065
37287SOL    HW113758   6.017   0.984   3.993
37287SOL    HW213759   5.960   1.109   4.057
37288SOL     OW13760   3.165  10.267   5.884
37288SOL    HW113761   3.223  10.209   5.933
37288SOL    HW213762   3.097  10.291   5.947
37289SOL     OW13763   6.203   3.211   0.296
37289SOL    HW113764   6.217   3.306   0.299
37289SOL    HW213765   6.119   3.198   0.340
37290SOL     OW13766   2.807   4.338  13.646
37290SOL    HW113767   2.833   4.356  13.556
37290SOL    HW213768   2.729   4.283  13.638
37291SOL     OW13769   1.996  13.174   5.387
37291SOL    HW113770   2.053  13.099   5.402
37291SOL    HW213771   2.020  13.236   5.455
37292SOL     OW13772  13.838  12.151   2.312
37292SOL    HW113773  13.908  12.217   2.318
37292SOL    HW213774  13.884  12.068   2.304
37293SOL     OW13775   0.420   4.571   2.335
37293SOL    HW113776   0.410   4.657   2.376
37293SOL    HW213777   0.412   4.587   2.241
37294SOL     OW13778   3.184   2.144   2.443
37294SOL    HW113779   3.275   2.148   2.470
37294SOL    HW213780   3.182   2.186   2.357
37295SOL     OW13781   2.049   9.549   7.630
37295SOL    HW113782   1.994   9.594   7.566
37295SOL    HW213783   2.008   9.463   7.640
37296SOL     OW13784   0.015   1.974   0.360
37296SOL    HW113785   0.055   1.976   0.273
37296SOL    HW213786  14.806   1.952   0.344
37297SOL     OW13787   0.113   2.596   7.304
37297SOL    HW113788   0.190   2.643   7.335
37297SOL    HW213789   0.119   2.509   7.344
37298SOL     OW13790   9.190  11.175  11.419
37298SOL    HW113791   9.166  11.244  11.481
37298SOL    HW213792   9.110  11.125  11.406
37299SOL     OW13793  11.294   1.690   8.180
37299SOL    HW113794  11.237   1.631   8.129
37299SOL    HW213795  11.325   1.754   8.116
37300SOL     OW13796   8.527   4.360   1.487
37300SOL    HW113797   8.446   4.408   1.508
37300SOL    HW213798   8.522   4.345   1.393
37301SOL     OW13799   8.704   0.748  12.863
37301SOL    HW113800   8.778   0.786  12.817
37301SOL    HW213801   8.653   0.704  12.795
37302SOL     OW13802   0.050   2.408   1.427
37302SOL    HW113803   0.123   2.400   1.365
37302SOL    HW213804  14.856   2.423   1.372
37303SOL     OW13805  10.849   6.482   7.161
37303SOL    HW113806  10.762   6.500   7.126
37303SOL    HW213807  10.834   6.419   7.232
37304SOL     OW13808   7.726   9.873  13.470
37304SOL    HW113809   7.721   9.784  13.506
37304SOL    HW213810   7.644   9.914  13.495
37305SOL     OW13811  11.661  11.622  11.221
37305SOL    HW113812  11.720  11.622  11.146
37305SOL    HW213813  11.597  11.554  11.201
37306SOL     OW13814   1.917   5.650   4.173
37306SOL    HW113815   1.870   5.719   4.127
37306SOL    HW213816   1.851   5.583   4.190
37307SOL     OW13817   3.103   4.153  12.107
37307SOL    HW113818   3.162   4.115  12.042
37307SOL    HW213819   3.017   4.118  12.084
37308SOL     OW13820   5.256   4.342  10.261
37308SOL    HW113821   5.289   4.396  10.189
37308SOL    HW213822   5.321   4.353  10.330
37309SOL     OW13823   1.130   9.091  10.554
37309SOL    HW113824   1.086   9.048  10.481
37309SOL    HW213825   1.086   9.176  10.562
37310SOL     OW13826  13.990   3.969   9.960
37310SOL    HW113827  13.952   4.053   9.985
37310SOL    HW213828  14.001   3.974   9.865
37311SOL     OW13829   1.096   1.454   5.575
37311SOL    HW113830   1.039   1.414   5.640
37311SOL    HW213831   1.056   1.432   5.491
37312SOL     OW13832  11.557   0.037  13.836
37312SOL    HW113833  11.468   0.020  13.865
37312SOL    HW213834  11.603  14.836  13.847
37313SOL     OW13835   6.665   3.976   1.366
37313SOL    HW113836   6.629   3.950   1.451
37313SOL    HW213837   6.626   3.914   1.304
37314SOL     OW13838   5.133   5.947   1.065
37314SOL    HW113839   5.044   5.922   1.041
37314SOL    HW213840   5.157   6.012   0.999
37315SOL     OW13841   8.367   5.236  10.082
37315SOL    HW113842   8.364   5.142  10.066
37315SOL    HW213843   8.347   5.276   9.997
37316SOL     OW13844   6.531   7.058   4.015
37316SOL    HW113845   6.487   7.076   4.099
37316SOL    HW213846   6.498   6.972   3.990
37317SOL     OW13847   4.245   2.309   9.815
37317SOL    HW113848   4.272   2.389   9.769
37317SOL    HW213849   4.283   2.238   9.762
37318SOL     OW13850   6.163   0.505  11.605
37318SOL    HW113851   6.107   0.577  11.635
37318SOL    HW213852   6.217   0.544  11.536
37319SOL     OW13853   5.114   6.958   8.848
37319SOL    HW113854   5.096   6.915   8.764
37319SOL    HW213855   5.162   7.038   8.823
37320SOL     OW13856   3.083  11.587   2.676
37320SOL    HW113857   2.988  11.601   2.679
37320SOL    HW213858   3.120  11.674   2.662
37321SOL     OW13859   7.395   9.692  13.329
37321SOL    HW113860   7.426   9.664  13.415
37321SOL    HW213861   7.329   9.627  13.305
37322SOL     OW13862   9.669  13.824   8.020
37322SOL    HW113863   9.609  13.791   8.087
37322SOL    HW213864   9.617  13.828   7.940
37323SOL     OW13865   9.771  13.076  14.702
37323SOL    HW113866   9.852  13.126  14.703
37323SOL    HW213867   9.709  13.130  14.653
37324SOL     OW13868   3.208   7.501  11.876
37324SOL    HW113869   3.261   7.437  11.829
37324SOL    HW213870   3.155   7.449  11.936
37325SOL     OW13871  14.346   6.598  14.167
37325SOL    HW113872  14.282   6.526  14.165
37325SOL    HW213873  14.367   6.614  14.076
37326SOL     OW13874   0.275   7.463   2.644
37326SOL    HW113875   0.367   7.475   2.621
37326SOL    HW213876   0.242   7.551   2.659
37327SOL     OW13877   2.362  13.025   5.188
37327SOL    HW113878   2.299  13.089   5.153
37327SOL    HW213879   2.444  13.074   5.195
37328SOL     OW13880  12.926   5.593  12.678
37328SOL    HW113881  12.921   5.517  12.620
37328SOL    HW213882  12.977   5.657  12.629
37329SOL     OW13883   4.573   4.636   7.638
37329SOL    HW113884   4.644   4.600   7.584
37329SOL    HW213885   4.531   4.701   7.582
37330SOL     OW13886  14.263   5.534   4.451
37330SOL    HW113887  14.241   5.442   4.467
37330SOL    HW213888  14.317   5.559   4.526
37331SOL     OW13889   7.892   3.703   2.313
37331SOL    HW113890   7.939   3.652   2.246
37331SOL    HW213891   7.934   3.678   2.395
37332SOL     OW13892   8.573  12.072  13.152
37332SOL    HW113893   8.647  12.117  13.193
37332SOL    HW213894   8.524  12.034  13.225
37333SOL     OW13895  11.733   8.200   4.833
37333SOL    HW113896  11.769   8.282   4.798
37333SOL    HW213897  11.639   8.207   4.818
37334SOL     OW13898   6.108   8.978   8.057
37334SOL    HW113899   6.028   9.030   8.047
37334SOL    HW213900   6.136   8.996   8.147
37335SOL     OW13901   8.332   6.411  13.074
37335SOL    HW113902   8.253   6.464  13.083
37335SOL    HW213903   8.390   6.443  13.143
37336SOL     OW13904   0.359  13.483  13.647
37336SOL    HW113905   0.405  13.444  13.573
37336SOL    HW213906   0.428  13.521  13.701
37337SOL     OW13907   5.515   3.767  11.181
37337SOL    HW113908   5.430   3.757  11.224
37337SOL    HW213909   5.520   3.859  11.157
37338SOL     OW13910   9.364  14.720  10.242
37338SOL    HW113911   9.446  14.693  10.201
37338SOL    HW213912   9.305  14.646  10.231
37339SOL     OW13913   7.508   3.479   3.924
37339SOL    HW113914   7.573   3.448   3.862
37339SOL    HW213915   7.424   3.458   3.884
37340SOL     OW13916  10.993  13.264   6.846
37340SOL    HW113917  11.022  13.350   6.816
37340SOL    HW213918  11.071  13.209   6.841
37341SOL     OW13919   5.147  13.936   0.356
37341SOL    HW113920   5.221  13.983   0.394
37341SOL    HW213921   5.137  13.972   0.268
37342SOL     OW13922   1.005   3.700   2.949
37342SOL    HW113923   0.913   3.713   2.973
37342SOL    HW213924   1.049   3.779   2.980
37343SOL     OW13925   4.055  11.094   8.074
37343SOL    HW113926   4.041  11.065   8.164
37343SOL    HW213927   4.144  11.129   8.075
37344SOL     OW13928   8.188  11.390   9.815
37344SOL    HW113929   8.213  11.302   9.785
37344SOL    HW213930   8.106  11.377   9.862
37345SOL     OW13931   1.103   3.937  13.742
37345SOL    HW113932   1.137   4.026  13.738
37345SOL    HW213933   1.090   3.920  13.835
37346SOL     OW13934  14.772   7.742   7.123
37346SOL    HW113935  14.747   7.711   7.209
37346SOL    HW213936  14.795   7.663   7.074
37347SOL     OW13937   2.463  13.531   5.764
37347SOL    HW113938   2.424  13.483   5.691
37347SOL    HW213939   2.465  13.468   5.836
37348SOL     OW13940   9.538   4.353   2.901
37348SOL    HW113941   9.522   4.380   2.992
37348SOL    HW213942   9.457   4.374   2.855
37349SOL     OW13943   4.501   4.713  12.616
37349SOL    HW113944   4.578   4.686  12.566
37349SOL    HW213945   4.448   4.634  12.624
37350SOL     OW13946  11.214  13.230  12.244
37350SOL    HW113947  11.306  13.227  12.271
37350SOL    HW213948  11.215  13.215  12.150
37351SOL     OW13949   5.875   1.772   0.512
37351SOL    HW113950   5.800   1.753   0.456
37351SOL    HW213951   5.851   1.737   0.598
37352SOL     OW13952   6.365  12.142  11.632
37352SOL    HW113953   6.439  12.180  11.678
37352SOL    HW213954   6.313  12.099  11.700
37353SOL     OW13955   6.890   1.603  14.524
37353SOL    HW113956   6.951   1.558  14.466
37353SOL    HW213957   6.822   1.538  14.542
37354SOL     OW13958   0.697  10.050   8.158
37354SOL    HW113959   0.697  10.127   8.101
37354SOL    HW213960   0.704  10.086   8.247
37355SOL     OW13961   3.902   8.920   5.726
37355SOL    HW113962   3.845   8.982   5.679
37355SOL    HW213963   3.857   8.905   5.809
37356SOL     OW13964   0.885   0.859  10.625
37356SOL    HW113965   0.922   0.820  10.546
37356SOL    HW213966   0.854   0.945  10.596
37357SOL     OW13967  13.170   6.762   6.945
37357SOL    HW113968  13.232   6.697   6.980
37357SOL    HW213969  13.216   6.845   6.953
37358SOL     OW13970   3.015  14.022  14.376
37358SOL    HW113971   2.981  14.109  14.397
37358SOL    HW213972   3.110  14.033  14.374
37359SOL     OW13973   8.906  11.568   1.968
37359SOL    HW113974   8.838  11.608   2.021
37359SOL    HW213975   8.872  11.570   1.879
37360SOL     OW13976   0.212   7.759   2.702
37360SOL    HW113977   0.285   7.751   2.763
37360SOL    HW213978   0.228   7.842   2.657
37361SOL     OW13979   0.982   1.702   3.720
37361SOL    HW113980   0.941   1.660   3.795
37361SOL    HW213981   1.072   1.668   3.720
37362SOL     OW13982   7.715   6.013  14.727
37362SOL    HW113983   7.671   6.090  14.692
37362SOL    HW213984   7.647   5.964  14.773
37363SOL     OW13985   0.083   1.403   0.516
37363SOL    HW113986   0.168   1.444   0.531
37363SOL    HW213987   0.095   1.312   0.540
37364SOL     OW13988   9.771  12.765  11.107
37364SOL    HW113989   9.865  12.768  11.123
37364SOL    HW213990   9.731  12.779  11.193
37365SOL     OW13991   7.011   5.933   7.107
37365SOL    HW113992   7.017   5.842   7.136
37365SOL    HW213993   7.005   5.984   7.188
37366SOL     OW13994   6.541   6.065  14.864
37366SOL    HW113995   6.575   6.004   0.048
37366SOL    HW213996   6.577   6.033  14.782
37367SOL     OW13997   8.397  13.674  10.536
37367SOL    HW113998   8.416  13.733  10.609
37367SOL    HW213999   8.474  13.678  10.480
37368SOL     OW14000   9.317   1.698   0.991
37368SOL    HW114001   9.377   1.638   1.035
37368SOL    HW214002   9.372   1.770   0.961
37369SOL     OW14003   9.172   1.142   8.409
37369SOL    HW114004   9.185   1.115   8.500
37369SOL    HW214005   9.077   1.139   8.396
37370SOL     OW14006  10.127   8.022   8.189
37370SOL    HW114007  10.070   8.075   8.133
37370SOL    HW214008  10.067   7.979   8.250
37371SOL     OW14009   6.611   8.985   3.906
37371SOL    HW114010   6.630   9.001   3.998
37371SOL    HW214011   6.696   8.985   3.863
37372SOL     OW14012   0.212   8.568   3.067
37372SOL    HW114013   0.282   8.529   3.118
37372SOL    HW214014   0.134   8.560   3.122
37373SOL     OW14015   5.622   4.546   3.945
37373SOL    HW114016   5.535   4.519   3.915
37373SOL    HW214017   5.679   4.471   3.927
37374SOL     OW14018   5.639  13.417   8.567
37374SOL    HW114019   5.629  13.387   8.477
37374SOL    HW214020   5.565  13.476   8.581
37375SOL     OW14021  11.162   0.631  11.817
37375SOL    HW114022  11.101   0.566  11.783
37375SOL    HW214023  11.180   0.602  11.907
37376SOL     OW14024   0.298  11.321   5.981
37376SOL    HW114025   0.211  11.344   5.949
37376SOL    HW214026   0.284  11.291   6.071
37377SOL     OW14027  14.521   2.846   1.372
37377SOL    HW114028  14.548   2.760   1.339
37377SOL    HW214029  14.429   2.835   1.395
37378SOL     OW14030   1.692   1.430  14.536
37378SOL    HW114031   1.600   1.404  14.526
37378SOL    HW214032   1.688   1.522  14.563
37379SOL     OW14033   3.678   6.340   2.080
37379SOL    HW114034   3.641   6.288   2.009
37379SOL    HW214035   3.722   6.276   2.135
37380SOL     OW14036   0.135   0.735   5.268
37380SOL    HW114037   0.141   0.705   5.177
37380SOL    HW214038   0.104   0.658   5.316
37381SOL     OW14039   1.885  12.117   5.245
37381SOL    HW114040   1.936  12.037   5.242
37381SOL    HW214041   1.950  12.187   5.257
37382SOL     OW14042  10.093   1.372  12.597
37382SOL    HW114043  10.009   1.368  12.644
37382SOL    HW214044  10.097   1.461  12.562
37383SOL     OW14045  13.809   5.093   0.642
37383SOL    HW114046  13.900   5.066   0.653
37383SOL    HW214047  13.783   5.125   0.729
37384SOL     OW14048  14.322   0.616   8.678
37384SOL    HW114049  14.352   0.565   8.603
37384SOL    HW214050  14.263   0.557   8.725
37385SOL     OW14051  12.683  11.152   7.229
37385SOL    HW114052  12.761  11.101   7.249
37385SOL    HW214053  12.715  11.240   7.209
37386SOL     OW14054   8.761   6.209   4.669
37386SOL    HW114055   8.826   6.185   4.735
37386SOL    HW214056   8.748   6.303   4.682
37387SOL     OW14057   7.600   5.441   0.288
37387SOL    HW114058   7.540   5.460   0.361
37387SOL    HW214059   7.645   5.524   0.272
37388SOL     OW14060   7.554  14.708  12.055
37388SOL    HW114061   7.523  14.629  12.100
37388SOL    HW214062   7.477  14.764  12.048
37389SOL     OW14063  11.207   3.769   6.616
37389SOL    HW114064  11.296   3.774   6.581
37389SOL    HW214065  11.215   3.718   6.697
37390SOL     OW14066   2.996  11.623  14.801
37390SOL    HW114067   3.030  11.537  14.824
37390SOL    HW214068   3.040  11.645  14.718
37391SOL     OW14069   8.943   6.253   9.686
37391SOL    HW114070   8.879   6.207   9.740
37391SOL    HW214071   8.964   6.332   9.736
37392SOL     OW14072   7.410   4.511   6.386
37392SOL    HW114073   7.364   4.434   6.354
37392SOL    HW214074   7.385   4.518   6.478
37393SOL     OW14075  10.906   1.932   6.672
37393SOL    HW114076  10.975   1.984   6.632
37393SOL    HW214077  10.921   1.942   6.767
37394SOL     OW14078   7.684   2.471   6.795
37394SOL    HW114079   7.771   2.455   6.831
37394SOL    HW214080   7.701   2.506   6.707
37395SOL     OW14081   1.969  14.613   7.574
37395SOL    HW114082   1.977  14.537   7.516
37395SOL    HW214083   2.009  14.585   7.656
37396SOL     OW14084   3.577   2.869  11.075
37396SOL    HW114085   3.643   2.866  11.005
37396SOL    HW214086   3.583   2.782  11.115
37397SOL     OW14087   1.773  14.353   9.382
37397SOL    HW114088   1.830  14.395   9.446
37397SOL    HW214089   1.684  14.372   9.412
37398SOL     OW14090  10.752   4.345  13.829
37398SOL    HW114091  10.693   4.273  13.805
37398SOL    HW214092  10.832   4.328  13.780
37399SOL     OW14093   6.170  10.750   3.768
37399SOL    HW114094   6.159  10.713   3.680
37399SOL    HW214095   6.118  10.693   3.825
37400SOL     OW14096   2.502  13.035   0.733
37400SOL    HW114097   2.418  13.059   0.695
37400SOL    HW214098   2.566  13.085   0.683
37401SOL     OW14099  13.668  13.759   0.612
37401SOL    HW114100  13.739  13.797   0.663
37401SOL    HW214101  13.707  13.739   0.527
37402SOL     OW14102  14.299   2.174   4.628
37402SOL    HW114103  14.323   2.246   4.687
37402SOL    HW214104  14.278   2.101   4.686
37403SOL     OW14105   8.564   4.404  11.470
37403SOL    HW114106   8.631   4.357  11.421
37403SOL    HW214107   8.606   4.486  11.496
37404SOL     OW14108   6.967   3.058  11.454
37404SOL    HW114109   6.995   3.143  11.421
37404SOL    HW214110   7.033   2.996  11.424
37405SOL     OW14111  10.902   2.826   8.286
37405SOL    HW114112  10.966   2.808   8.217
37405SOL    HW214113  10.924   2.765   8.356
37406SOL     OW14114   9.077   1.060   2.727
37406SOL    HW114115   9.138   1.113   2.778
37406SOL    HW214116   9.084   1.095   2.638
37407SOL     OW14117   5.761  11.485  11.437
37407SOL    HW114118   5.722  11.398  11.426
37407SOL    HW214119   5.841  11.483  11.384
37408SOL     OW14120  13.803   0.371  10.115
37408SOL    HW114121  13.731   0.365  10.177
37408SOL    HW214122  13.767   0.339  10.032
37409SOL     OW14123  13.299   9.830  10.922
37409SOL    HW114124  13.258   9.793  11.000
37409SOL    HW214125  13.228   9.832  10.857
37410SOL     OW14126   5.560   3.049   3.271
37410SOL    HW114127   5.500   3.088   3.207
37410SOL    HW214128   5.531   2.959   3.279
37411SOL     OW14129  11.859   2.284   0.304
37411SOL    HW114130  11.867   2.331   0.221
37411SOL    HW214131  11.766   2.262   0.311
37412SOL     OW14132  14.309   6.280   3.761
37412SOL    HW114133  14.333   6.349   3.823
37412SOL    HW214134  14.383   6.275   3.701
37413SOL     OW14135   8.684   7.771   4.332
37413SOL    HW114136   8.772   7.801   4.353
37413SOL    HW214137   8.693   7.677   4.316
37414SOL     OW14138   7.086   2.364   3.161
37414SOL    HW114139   7.102   2.284   3.111
37414SOL    HW214140   6.995   2.386   3.142
37415SOL     OW14141   5.279   2.607   6.468
37415SOL    HW114142   5.229   2.650   6.538
37415SOL    HW214143   5.260   2.658   6.390
37416SOL     OW14144   9.879  14.768  13.318
37416SOL    HW114145   9.922  14.709  13.380
37416SOL    HW214146   9.819  14.712  13.270
37417SOL     OW14147  12.401   7.927   4.510
37417SOL    HW114148  12.351   7.976   4.576
37417SOL    HW214149  12.343   7.856   4.484
37418SOL     OW14150   3.410   9.870  11.718
37418SOL    HW114151   3.438   9.909  11.800
37418SOL    HW214152   3.418   9.940  11.653
37419SOL     OW14153   5.004  10.679   0.726
37419SOL    HW114154   5.041  10.726   0.801
37419SOL    HW214155   5.072  10.684   0.659
37420SOL     OW14156   0.805  13.472  14.201
37420SOL    HW114157   0.819  13.386  14.241
37420SOL    HW214158   0.754  13.520  14.265
37421SOL     OW14159   0.313  12.578   8.580
37421SOL    HW114160   0.290  12.656   8.529
37421SOL    HW214161   0.320  12.610   8.670
37422SOL     OW14162  11.309   0.533  13.542
37422SOL    HW114163  11.288   0.528  13.449
37422SOL    HW214164  11.227   0.559  13.584
37423SOL     OW14165   0.766   0.170  11.399
37423SOL    HW114166   0.832   0.119  11.351
37423SOL    HW214167   0.798   0.260  11.394
37424SOL     OW14168   0.003   3.698  12.365
37424SOL    HW114169  14.863   3.708  12.457
37424SOL    HW214170  14.815   3.744  12.318
37425SOL     OW14171  12.795   0.836  13.152
37425SOL    HW114172  12.829   0.830  13.063
37425SOL    HW214173  12.738   0.913  13.151
37426SOL     OW14174   7.763  12.623   2.970
37426SOL    HW114175   7.791  12.656   3.056
37426SOL    HW214176   7.702  12.552   2.990
37427SOL     OW14177   3.923   0.892   7.564
37427SOL    HW114178   3.952   0.970   7.517
37427SOL    HW214179   3.885   0.835   7.497
37428SOL     OW14180  11.986  12.250   9.673
37428SOL    HW114181  11.905  12.296   9.694
37428SOL    HW214182  12.028  12.303   9.606
37429SOL     OW14183  12.870  12.174  10.111
37429SOL    HW114184  12.900  12.199  10.199
37429SOL    HW214185  12.778  12.199  10.109
37430SOL     OW14186   2.179   9.956   8.235
37430SOL    HW114187   2.274   9.943   8.243
37430SOL    HW214188   2.153   9.997   8.318
37431SOL     OW14189   3.752   9.846   1.419
37431SOL    HW114190   3.712   9.934   1.420
37431SOL    HW214191   3.735   9.813   1.331
37432SOL     OW14192  11.656   5.363   4.723
37432SOL    HW114193  11.711   5.292   4.755
37432SOL    HW214194  11.646   5.421   4.798
37433SOL     OW14195   4.492   4.827  10.839
37433SOL    HW114196   4.437   4.898  10.804
37433SOL    HW214197   4.437   4.785  10.905
37434SOL     OW14198   2.926   0.956   3.414
37434SOL    HW114199   2.842   1.002   3.415
37434SOL    HW214200   2.905   0.868   3.447
37435SOL     OW14201   6.733  10.599   1.184
37435SOL    HW114202   6.654  10.654   1.184
37435SOL    HW214203   6.782  10.628   1.261
37436SOL     OW14204   9.527   7.351   1.456
37436SOL    HW114205   9.524   7.433   1.406
37436SOL    HW214206   9.451   7.301   1.426
37437SOL     OW14207  11.709   9.844   5.505
37437SOL    HW114208  11.758   9.793   5.570
37437SOL    HW214209  11.617   9.831   5.528
37438SOL     OW14210   4.905   7.801  13.103
37438SOL    HW114211   4.988   7.793  13.150
37438SOL    HW214212   4.898   7.720  13.052
37439SOL     OW14213   4.542   3.155   4.173
37439SOL    HW114214   4.563   3.249   4.170
37439SOL    HW214215   4.613   3.116   4.224
37440SOL     OW14216   3.425   0.326  13.235
37440SOL    HW114217   3.388   0.311  13.147
37440SOL    HW214218   3.448   0.239  13.266
37441SOL     OW14219  14.844   4.297   6.586
37441SOL    HW114220   0.000   4.216   6.621
37441SOL    HW214221   0.036   4.357   6.577
37442SOL     OW14222   9.244   9.979   3.706
37442SOL    HW114223   9.257  10.069   3.677
37442SOL    HW214224   9.313   9.929   3.662
37443SOL     OW14225   4.245   1.483   6.605
37443SOL    HW114226   4.272   1.563   6.559
37443SOL    HW214227   4.302   1.478   6.681
37444SOL     OW14228   4.890   5.278   0.906
37444SOL    HW114229   4.945   5.321   0.972
37444SOL    HW214230   4.801   5.298   0.931
37445SOL     OW14231   3.101  11.572   5.607
37445SOL    HW114232   3.126  11.601   5.695
37445SOL    HW214233   3.011  11.540   5.617
37446SOL     OW14234   8.254   1.763  10.609
37446SOL    HW114235   8.285   1.697  10.547
37446SOL    HW214236   8.175   1.799  10.570
37447SOL     OW14237   4.477   1.871   5.580
37447SOL    HW114238   4.449   1.803   5.640
37447SOL    HW214239   4.573   1.870   5.585
37448SOL     OW14240   9.905  10.857   3.261
37448SOL    HW114241   9.886  10.871   3.169
37448SOL    HW214242   9.958  10.778   3.262
37449SOL     OW14243  14.823  13.601  11.829
37449SOL    HW114244  14.758  13.598  11.900
37449SOL    HW214245   0.025  13.595  11.874
37450SOL     OW14246   9.995   7.270  10.333
37450SOL    HW114247   9.937   7.342  10.310
37450SOL    HW214248  10.082   7.299  10.305
37451SOL     OW14249   8.041   2.075  10.079
37451SOL    HW114250   8.086   2.146  10.031
37451SOL    HW214251   8.019   2.114  10.163
37452SOL     OW14252  11.845   5.531   1.031
37452SOL    HW114253  11.848   5.505   1.122
37452SOL    HW214254  11.936   5.529   1.001
37453SOL     OW14255  11.598   4.329   8.184
37453SOL    HW114256  11.565   4.299   8.268
37453SOL    HW214257  11.573   4.259   8.123
37454SOL     OW14258   5.511   0.896   4.119
37454SOL    HW114259   5.525   0.807   4.150
37454SOL    HW214260   5.598   0.927   4.094
37455SOL     OW14261   1.131   7.762   2.108
37455SOL    HW114262   1.113   7.747   2.201
37455SOL    HW214263   1.127   7.857   2.098
37456SOL     OW14264   0.036  13.985  12.065
37456SOL    HW114265   0.125  13.991  12.031
37456SOL    HW214266  14.880  14.072  12.052
37457SOL     OW14267  10.363   3.382  11.076
37457SOL    HW114268  10.414   3.452  11.036
37457SOL    HW214269  10.426   3.312  11.091
37458SOL     OW14270   0.274  10.972  14.478
37458SOL    HW114271   0.293  10.880  14.459
37458SOL    HW214272   0.352  11.004  14.523
37459SOL     OW14273   3.800   9.445  10.430
37459SOL    HW114274   3.830   9.391  10.357
37459SOL    HW214275   3.705   9.431  10.433
37460SOL     OW14276   6.383   7.297   8.203
37460SOL    HW114277   6.412   7.253   8.123
37460SOL    HW214278   6.381   7.390   8.180
37461SOL     OW14279  11.647   2.146   0.605
37461SOL    HW114280  11.552   2.135   0.618
37461SOL    HW214281  11.661   2.240   0.612
37462SOL     OW14282   1.350  13.790   3.869
37462SOL    HW114283   1.356  13.809   3.962
37462SOL    HW214284   1.388  13.703   3.859
37463SOL     OW14285   5.856   0.429   7.186
37463SOL    HW114286   5.919   0.359   7.203
37463SOL    HW214287   5.904   0.491   7.131
37464SOL     OW14288   8.643   8.420  13.683
37464SOL    HW114289   8.554   8.401  13.654
37464SOL    HW214290   8.645   8.393  13.775
37465SOL     OW14291   4.559   8.555   4.690
37465SOL    HW114292   4.529   8.624   4.749
37465SOL    HW214293   4.637   8.519   4.732
37466SOL     OW14294   4.861   3.764  12.486
37466SOL    HW114295   4.806   3.714  12.426
37466SOL    HW214296   4.938   3.788  12.434
37467SOL     OW14297  10.734  14.110   1.344
37467SOL    HW114298  10.684  14.191   1.342
37467SOL    HW214299  10.826  14.138   1.344
37468SOL     OW14300   1.651  10.589  11.902
37468SOL    HW114301   1.605  10.673  11.911
37468SOL    HW214302   1.694  10.577  11.986
37469SOL     OW14303  12.935   2.890  11.815
37469SOL    HW114304  12.896   2.867  11.731
37469SOL    HW214305  12.910   2.818  11.873
37470SOL     OW14306   9.981   4.420  14.508
37470SOL    HW114307   9.938   4.338  14.482
37470SOL    HW214308  10.041   4.440  14.436
37471SOL     OW14309  10.537  10.510  14.608
37471SOL    HW114310  10.587  10.566  14.667
37471SOL    HW214311  10.585  10.514  14.525
37472SOL     OW14312   5.247   9.276   6.645
37472SOL    HW114313   5.342   9.280   6.651
37472SOL    HW214314   5.228   9.281   6.551
37473SOL     OW14315   6.662   3.560  10.481
37473SOL    HW114316   6.666   3.480  10.430
37473SOL    HW214317   6.577   3.557  10.525
37474SOL     OW14318   3.852   3.206  10.065
37474SOL    HW114319   3.801   3.272  10.111
37474SOL    HW214320   3.934   3.200  10.114
37475SOL     OW14321   0.562   8.378   0.398
37475SOL    HW114322   0.656   8.362   0.402
37475SOL    HW214323   0.549   8.459   0.448
37476SOL     OW14324   1.016   3.825   3.272
37476SOL    HW114325   0.970   3.909   3.272
37476SOL    HW214326   0.979   3.777   3.345
37477SOL     OW14327   1.429  11.141   4.666
37477SOL    HW114328   1.434  11.109   4.576
37477SOL    HW214329   1.396  11.067   4.717
37478SOL     OW14330  12.579   1.962  14.113
37478SOL    HW114331  12.586   1.881  14.061
37478SOL    HW214332  12.526   1.937  14.189
37479SOL     OW14333   4.002  12.941   8.372
37479SOL    HW114334   4.017  12.850   8.345
37479SOL    HW214335   4.013  12.940   8.467
37480SOL     OW14336  12.878  13.946  12.821
37480SOL    HW114337  12.827  14.026  12.837
37480SOL    HW214338  12.848  13.885  12.888
37481SOL     OW14339   3.796   0.266   2.086
37481SOL    HW114340   3.876   0.253   2.137
37481SOL    HW214341   3.786   0.361   2.081
37482SOL     OW14342   1.871  11.895   1.750
37482SOL    HW114343   1.906  11.829   1.690
37482SOL    HW214344   1.848  11.969   1.694
37483SOL     OW14345   5.010  10.020   5.495
37483SOL    HW114346   4.993  10.052   5.407
37483SOL    HW214347   5.096   9.977   5.489
37484SOL     OW14348   4.960  11.992  12.935
37484SOL    HW114349   5.021  11.957  12.871
37484SOL    HW214350   4.895  11.923  12.947
37485SOL     OW14351  13.540  11.538   6.406
37485SOL    HW114352  13.552  11.609   6.343
37485SOL    HW214353  13.511  11.464   6.352
37486SOL     OW14354  13.850  11.201   0.737
37486SOL    HW114355  13.919  11.238   0.682
37486SOL    HW214356  13.769  11.221   0.691
37487SOL     OW14357  13.325   9.517   8.694
37487SOL    HW114358  13.292   9.603   8.670
37487SOL    HW214359  13.337   9.520   8.789
37488SOL     OW14360   7.888  14.784   2.575
37488SOL    HW114361   7.913  14.692   2.591
37488SOL    HW214362   7.945  14.834   2.634
37489SOL     OW14363   1.944   7.375   8.084
37489SOL    HW114364   2.020   7.317   8.093
37489SOL    HW214365   1.941   7.395   7.990
37490SOL     OW14366   5.173  14.662  11.886
37490SOL    HW114367   5.099  14.627  11.835
37490SOL    HW214368   5.136  14.739  11.931
37491SOL     OW14369  11.961   7.703   2.728
37491SOL    HW114370  11.877   7.747   2.715
37491SOL    HW214371  11.952   7.656   2.811
37492SOL     OW14372  13.326   6.658  11.879
37492SOL    HW114373  13.338   6.723  11.948
37492SOL    HW214374  13.256   6.693  11.825
37493SOL     OW14375   7.145   7.597   8.131
37493SOL    HW114376   7.126   7.538   8.204
37493SOL    HW214377   7.080   7.666   8.139
37494SOL     OW14378   6.786   8.084   7.073
37494SOL    HW114379   6.770   8.138   7.150
37494SOL    HW214380   6.833   8.143   7.012
37495SOL     OW14381   2.875   8.299  11.315
37495SOL    HW114382   2.911   8.288  11.227
37495SOL    HW214383   2.951   8.299  11.372
37496SOL     OW14384   1.444  10.730   1.350
37496SOL    HW114385   1.374  10.665   1.349
37496SOL    HW214386   1.474  10.736   1.259
37497SOL     OW14387   5.621   9.944   7.569
37497SOL    HW114388   5.544  10.000   7.574
37497SOL    HW214389   5.648   9.948   7.478
37498SOL     OW14390   4.729  13.122   9.987
37498SOL    HW114391   4.660  13.188   9.977
37498SOL    HW214392   4.693  13.042   9.949
37499SOL     OW14393   6.724  13.403   3.194
37499SOL    HW114394   6.741  13.406   3.288
37499SOL    HW214395   6.746  13.491   3.163
37500SOL     OW14396   7.494   8.126   7.957
37500SOL    HW114397   7.536   8.108   7.873
37500SOL    HW214398   7.407   8.160   7.934
37501SOL     OW14399   8.316  11.868  14.476
37501SOL    HW114400   8.343  11.896  14.388
37501SOL    HW214401   8.398  11.849  14.521
37502SOL     OW14402  13.602   7.516  13.006
37502SOL    HW114403  13.693   7.545  13.014
37502SOL    HW214404  13.551   7.590  13.041
37503SOL     OW14405   3.024   3.532   0.390
37503SOL    HW114406   2.930   3.544   0.377
37503SOL    HW214407   3.031   3.476   0.467
37504SOL     OW14408  10.197  13.991  10.623
37504SOL    HW114409  10.227  13.994  10.714
37504SOL    HW214410  10.270  14.025  10.572
37505SOL     OW14411  10.654   6.473  10.208
37505SOL    HW114412  10.630   6.416  10.280
37505SOL    HW214413  10.594   6.449  10.137
37506SOL     OW14414   3.950   8.171   8.091
37506SOL    HW114415   3.895   8.094   8.080
37506SOL    HW214416   3.912   8.217   8.165
37507SOL     OW14417   2.601  10.504   6.404
37507SOL    HW114418   2.556  10.470   6.326
37507SOL    HW214419   2.531  10.519   6.467
37508SOL     OW14420  14.674  13.756   7.524
37508SOL    HW114421  14.666  13.683   7.586
37508SOL    HW214422  14.709  13.716   7.444
37509SOL     OW14423   7.787   2.727  12.038
37509SOL    HW114424   7.873   2.761  12.064
37509SOL    HW214425   7.754   2.683  12.117
37510SOL     OW14426   3.623   6.006   4.694
37510SOL    HW114427   3.680   6.071   4.735
37510SOL    HW214428   3.546   6.055   4.666
37511SOL     OW14429  12.585   5.560   4.856
37511SOL    HW114430  12.611   5.525   4.942
37511SOL    HW214431  12.632   5.506   4.793
37512SOL     OW14432  14.803   6.169   5.936
37512SOL    HW114433  14.837   6.245   5.982
37512SOL    HW214434  14.763   6.115   6.004
37513SOL     OW14435   8.450   6.098   7.970
37513SOL    HW114436   8.538   6.091   8.005
37513SOL    HW214437   8.462   6.097   7.875
37514SOL     OW14438  12.232  10.948   6.006
37514SOL    HW114439  12.198  11.037   6.007
37514SOL    HW214440  12.154  10.892   6.008
37515SOL     OW14441   0.957   8.804   0.346
37515SOL    HW114442   1.016   8.864   0.392
37515SOL    HW214443   0.881   8.797   0.403
37516SOL     OW14444  11.998   5.079   6.878
37516SOL    HW114445  11.939   5.119   6.942
37516SOL    HW214446  12.042   5.153   6.837
37517SOL     OW14447   0.753   7.205   3.213
37517SOL    HW114448   0.764   7.258   3.292
37517SOL    HW214449   0.660   7.186   3.209
37518SOL     OW14450   4.608   4.577   5.093
37518SOL    HW114451   4.522   4.573   5.050
37518SOL    HW214452   4.653   4.498   5.063
37519SOL     OW14453  14.574  11.478   8.775
37519SOL    HW114454  14.540  11.426   8.848
37519SOL    HW214455  14.613  11.555   8.816
37520SOL     OW14456   5.489  14.877   0.655
37520SOL    HW114457   5.442  14.800   0.625
37520SOL    HW214458   5.484  14.873   0.751
37521SOL     OW14459   7.701  14.355  11.112
37521SOL    HW114460   7.736  14.368  11.023
37521SOL    HW214461   7.681  14.262  11.117
37522SOL     OW14462   3.637   3.432   8.361
37522SOL    HW114463   3.687   3.470   8.433
37522SOL    HW214464   3.698   3.434   8.287
37523SOL     OW14465   6.208   9.432   5.606
37523SOL    HW114466   6.168   9.514   5.577
37523SOL    HW214467   6.243   9.393   5.526
37524SOL     OW14468   7.168   3.795   1.716
37524SOL    HW114469   7.258   3.826   1.702
37524SOL    HW214470   7.171   3.702   1.695
37525SOL     OW14471   7.689   2.054  10.317
37525SOL    HW114472   7.698   2.010  10.232
37525SOL    HW214473   7.716   1.989  10.381
37526SOL     OW14474  13.441  11.127  12.476
37526SOL    HW114475  13.474  11.193  12.414
37526SOL    HW214476  13.480  11.152  12.560
37527SOL     OW14477   8.408   2.236   0.452
37527SOL    HW114478   8.359   2.203   0.377
37527SOL    HW214479   8.499   2.241   0.422
37528SOL     OW14480   1.587   1.478   8.430
37528SOL    HW114481   1.518   1.507   8.371
37528SOL    HW214482   1.543   1.420   8.492
37529SOL     OW14483   0.030   6.103   0.690
37529SOL    HW114484   0.070   6.019   0.667
37529SOL    HW214485  14.823   6.098   0.655
37530SOL     OW14486   7.308   1.233  14.335
37530SOL    HW114487   7.401   1.209  14.333
37530SOL    HW214488   7.288   1.259  14.245
37531SOL     OW14489   9.463   4.186   3.451
37531SOL    HW114490   9.511   4.127   3.393
37531SOL    HW214491   9.495   4.164   3.539
37532SOL     OW14492   8.228   3.223   8.498
37532SOL    HW114493   8.310   3.174   8.502
37532SOL    HW214494   8.202   3.233   8.589
37533SOL     OW14495  13.843   9.482  13.894
37533SOL    HW114496  13.804   9.395  13.883
37533SOL    HW214497  13.868   9.509  13.806
37534SOL     OW14498  12.813  14.406   6.250
37534SOL    HW114499  12.903  14.383   6.273
37534SOL    HW214500  12.760  14.356   6.312
37535SOL     OW14501  12.841   5.744   2.409
37535SOL    HW114502  12.816   5.702   2.491
37535SOL    HW214503  12.791   5.826   2.408
37536SOL     OW14504   9.762   5.695   3.157
37536SOL    HW114505   9.700   5.720   3.089
37536SOL    HW214506   9.826   5.767   3.158
37537SOL     OW14507   5.160  10.284  11.418
37537SOL    HW114508   5.201  10.296  11.504
37537SOL    HW214509   5.142  10.373  11.388
37538SOL     OW14510  12.528  10.627   3.386
37538SOL    HW114511  12.620  10.645   3.406
37538SOL    HW214512  12.482  10.707   3.410
37539SOL     OW14513   8.498  12.442   0.684
37539SOL    HW114514   8.559  12.408   0.619
37539SOL    HW214515   8.412  12.415   0.653
37540SOL     OW14516   8.122  10.351   7.177
37540SOL    HW114517   8.080  10.345   7.091
37540SOL    HW214518   8.110  10.265   7.216
37541SOL     OW14519   0.357   7.158  13.452
37541SOL    HW114520   0.400   7.242  13.435
37541SOL    HW214521   0.425   7.103  13.491
37542SOL     OW14522   8.836   1.726  14.389
37542SOL    HW114523   8.864   1.802  14.338
37542SOL    HW214524   8.912   1.668  14.389
37543SOL     OW14525   2.976   4.012  12.586
37543SOL    HW114526   3.031   3.975  12.655
37543SOL    HW214527   3.028   4.084  12.550
37544SOL     OW14528  12.153   2.790   9.748
37544SOL    HW114529  12.093   2.720   9.721
37544SOL    HW214530  12.213   2.799   9.674
37545SOL     OW14531   3.801  14.112  13.394
37545SOL    HW114532   3.723  14.141  13.346
37545SOL    HW214533   3.854  14.067  13.328
37546SOL     OW14534  14.642   6.021   4.170
37546SOL    HW114535  14.581   6.072   4.117
37546SOL    HW214536  14.586   5.964   4.223
37547SOL     OW14537   6.793   0.121  11.562
37547SOL    HW114538   6.780   0.036  11.522
37547SOL    HW214539   6.765   0.184  11.496
37548SOL     OW14540  12.386   9.247   2.368
37548SOL    HW114541  12.330   9.284   2.436
37548SOL    HW214542  12.375   9.306   2.293
37549SOL     OW14543   5.683   3.809   4.542
37549SOL    HW114544   5.697   3.802   4.447
37549SOL    HW214545   5.740   3.742   4.580
37550SOL     OW14546   1.311   0.002  10.524
37550SOL    HW114547   1.244  14.856  10.587
37550SOL    HW214548   1.264   0.056  10.461
37551SOL     OW14549   0.872   4.949   8.540
37551SOL    HW114550   0.912   4.960   8.626
37551SOL    HW214551   0.933   4.893   8.492
37552SOL     OW14552  10.327  11.113   1.799
37552SOL    HW114553  10.374  11.066   1.729
37552SOL    HW214554  10.392  11.173   1.835
37553SOL     OW14555   3.419   3.573   4.263
37553SOL    HW114556   3.367   3.507   4.218
37553SOL    HW214557   3.441   3.533   4.347
37554SOL     OW14558   9.103   5.944   0.239
37554SOL    HW114559   9.090   6.027   0.194
37554SOL    HW214560   9.167   5.898   0.185
37555SOL     OW14561   9.750   4.991   9.505
37555SOL    HW114562   9.788   4.991   9.417
37555SOL    HW214563   9.810   5.043   9.558
37556SOL     OW14564  11.862   7.855  10.977
37556SOL    HW114565  11.930   7.814  10.923
37556SOL    HW214566  11.910   7.898  11.047
37557SOL     OW14567   5.913   7.679   8.590
37557SOL    HW114568   5.967   7.695   8.513
37557SOL    HW214569   5.966   7.621   8.645
37558SOL     OW14570  10.726   8.563  10.580
37558SOL    HW114571  10.797   8.625  10.590
37558SOL    HW214572  10.730   8.508  10.658
37559SOL     OW14573   4.978   3.626   1.914
37559SOL    HW114574   4.984   3.544   1.865
37559SOL    HW214575   5.008   3.605   2.002
37560SOL     OW14576   3.775  14.340   8.119
37560SOL    HW114577   3.829  14.270   8.082
37560SOL    HW214578   3.746  14.306   8.204
37561SOL     OW14579   2.810  10.452   3.526
37561SOL    HW114580   2.884  10.481   3.472
37561SOL    HW214581   2.840  10.371   3.567
37562SOL     OW14582   8.958   5.296  13.545
37562SOL    HW114583   8.986   5.241  13.619
37562SOL    HW214584   8.863   5.288  13.545
37563SOL     OW14585   4.389   5.874   6.120
37563SOL    HW114586   4.340   5.925   6.056
37563SOL    HW214587   4.330   5.803   6.145
37564SOL     OW14588   1.248   1.181   5.897
37564SOL    HW114589   1.166   1.186   5.848
37564SOL    HW214590   1.222   1.158   5.986
37565SOL     OW14591   0.719  10.389  11.668
37565SOL    HW114592   0.804  10.384  11.711
37565SOL    HW214593   0.670  10.314  11.703
37566SOL     OW14594   7.307   5.701  10.387
37566SOL    HW114595   7.274   5.677  10.300
37566SOL    HW214596   7.351   5.785  10.372
37567SOL     OW14597   3.221   0.996   3.468
37567SOL    HW114598   3.144   1.046   3.444
37567SOL    HW214599   3.188   0.931   3.531
37568SOL     OW14600   9.276  14.413   6.199
37568SOL    HW114601   9.281  14.481   6.131
37568SOL    HW214602   9.291  14.460   6.281
37569SOL     OW14603   9.911   2.287   8.573
37569SOL    HW114604   9.874   2.273   8.660
37569SOL    HW214605   9.878   2.372   8.546
37570SOL     OW14606   2.647   2.064   3.905
37570SOL    HW114607   2.727   2.030   3.946
37570SOL    HW214608   2.669   2.071   3.812
37571SOL     OW14609   6.542   6.852   5.026
37571SOL    HW114610   6.458   6.816   4.997
37571SOL    HW214611   6.589   6.869   4.944
37572SOL     OW14612  10.201  12.899   2.338
37572SOL    HW114613  10.205  12.874   2.431
37572SOL    HW214614  10.293  12.908   2.313
37573SOL     OW14615   3.332   2.803   3.082
37573SOL    HW114616   3.239   2.827   3.084
37573SOL    HW214617   3.339   2.727   3.140
37574SOL     OW14618   8.856  13.753   4.682
37574SOL    HW114619   8.768  13.780   4.706
37574SOL    HW214620   8.909  13.772   4.760
37575SOL     OW14621  11.889   1.912   9.243
37575SOL    HW114622  11.805   1.957   9.245
37575SOL    HW214623  11.939   1.959   9.175
37576SOL     OW14624   1.482  10.203  13.228
37576SOL    HW114625   1.483  10.132  13.292
37576SOL    HW214626   1.443  10.164  13.150
37577SOL     OW14627  12.522  14.730  11.237
37577SOL    HW114628  12.433  14.763  11.250
37577SOL    HW214629  12.576  14.809  11.231
37578SOL     OW14630  11.318   2.943   6.011
37578SOL    HW114631  11.406   2.969   6.038
37578SOL    HW214632  11.281   3.021   5.970
37579SOL     OW14633  10.150   7.515  10.399
37579SOL    HW114634  10.079   7.554  10.451
37579SOL    HW214635  10.151   7.566  10.318
37580SOL     OW14636   1.381  10.424   1.773
37580SOL    HW114637   1.305  10.412   1.829
37580SOL    HW214638   1.430  10.496   1.814
37581SOL     OW14639   1.916   4.541   9.132
37581SOL    HW114640   1.877   4.489   9.202
37581SOL    HW214641   1.989   4.586   9.173
37582SOL     OW14642  12.274  13.522   1.410
37582SOL    HW114643  12.213  13.449   1.397
37582SOL    HW214644  12.359  13.480   1.425
37583SOL     OW14645   5.592   6.021   2.729
37583SOL    HW114646   5.676   6.064   2.742
37583SOL    HW214647   5.552   6.020   2.816
37584SOL     OW14648   0.738  13.736  13.881
37584SOL    HW114649   0.714  13.829  13.891
37584SOL    HW214650   0.834  13.736  13.880
37585SOL     OW14651  11.605   6.433  14.686
37585SOL    HW114652  11.530   6.403  14.736
37585SOL    HW214653  11.576   6.428  14.595
37586SOL     OW14654   9.680  13.892   5.984
37586SOL    HW114655   9.585  13.886   5.972
37586SOL    HW214656   9.704  13.973   5.941
37587SOL     OW14657   5.529   0.694   3.342
37587SOL    HW114658   5.479   0.615   3.362
37587SOL    HW214659   5.467   0.751   3.297
37588SOL     OW14660  12.939  12.864   9.132
37588SOL    HW114661  12.969  12.934   9.190
37588SOL    HW214662  12.852  12.841   9.164
37589SOL     OW14663   4.227   7.767   1.643
37589SOL    HW114664   4.298   7.731   1.696
37589SOL    HW214665   4.149   7.754   1.695
37590SOL     OW14666   6.227   4.281   7.197
37590SOL    HW114667   6.286   4.355   7.210
37590SOL    HW214668   6.142   4.312   7.228
37591SOL     OW14669   3.479  12.331  13.196
37591SOL    HW114670   3.543  12.285  13.141
37591SOL    HW214671   3.525  12.410  13.225
37592SOL     OW14672  12.388   6.412   9.345
37592SOL    HW114673  12.405   6.450   9.258
37592SOL    HW214674  12.473   6.415   9.389
37593SOL     OW14675   9.637   4.558   7.638
37593SOL    HW114676   9.696   4.610   7.585
37593SOL    HW214677   9.621   4.479   7.587
37594SOL     OW14678  12.750   2.587  13.331
37594SOL    HW114679  12.840   2.613  13.316
37594SOL    HW214680  12.715   2.568  13.244
37595SOL     OW14681   4.916   1.247   5.500
37595SOL    HW114682   4.834   1.198   5.504
37595SOL    HW214683   4.935   1.253   5.406
37596SOL     OW14684   6.029   7.026   8.627
37596SOL    HW114685   5.939   7.056   8.616
37596SOL    HW214686   6.078   7.070   8.558
37597SOL     OW14687  12.869  13.114   3.286
37597SOL    HW114688  12.940  13.103   3.223
37597SOL    HW214689  12.857  13.027   3.323
37598SOL     OW14690   9.041   4.129  12.507
37598SOL    HW114691   9.015   4.202  12.451
37598SOL    HW214692   9.077   4.170  12.586
37599SOL     OW14693   3.697   6.938   6.812
37599SOL    HW114694   3.790   6.915   6.808
37599SOL    HW214695   3.676   6.972   6.725
37600SOL     OW14696   6.095   6.921   9.688
37600SOL    HW114697   6.170   6.977   9.710
37600SOL    HW214698   6.116   6.886   9.602
37601SOL     OW14699  11.572  14.463   2.985
37601SOL    HW114700  11.609  14.546   3.015
37601SOL    HW214701  11.540  14.421   3.065
37602SOL     OW14702  12.885   7.239   1.223
37602SOL    HW114703  12.814   7.284   1.267
37602SOL    HW214704  12.916   7.301   1.157
37603SOL     OW14705   7.254  10.125  10.925
37603SOL    HW114706   7.342  10.088  10.934
37603SOL    HW214707   7.196  10.049  10.924
37604SOL     OW14708  13.599   6.426   5.942
37604SOL    HW114709  13.694   6.412   5.936
37604SOL    HW214710  13.584   6.444   6.034
37605SOL     OW14711  12.671   9.140   4.036
37605SOL    HW114712  12.603   9.162   4.100
37605SOL    HW214713  12.743   9.201   4.056
37606SOL     OW14714   6.796   5.022   5.623
37606SOL    HW114715   6.886   5.000   5.600
37606SOL    HW214716   6.773   5.093   5.562
37607SOL     OW14717   4.723  11.329  13.528
37607SOL    HW114718   4.727  11.274  13.606
37607SOL    HW214719   4.635  11.367  13.530
37608SOL     OW14720   4.330   4.214   5.854
37608SOL    HW114721   4.285   4.162   5.787
37608SOL    HW214722   4.422   4.208   5.831
37609SOL     OW14723   4.628   6.092   3.449
37609SOL    HW114724   4.577   6.120   3.373
37609SOL    HW214725   4.571   6.031   3.495
37610SOL     OW14726   8.330  11.719  12.543
37610SOL    HW114727   8.409  11.715  12.488
37610SOL    HW214728   8.331  11.637  12.592
37611SOL     OW14729   0.867   3.406   2.700
37611SOL    HW114730   0.826   3.320   2.689
37611SOL    HW214731   0.899   3.407   2.790
37612SOL     OW14732  10.386   8.736   3.300
37612SOL    HW114733  10.299   8.726   3.263
37612SOL    HW214734  10.446   8.713   3.229
37613SOL     OW14735   9.488   3.048   9.687
37613SOL    HW114736   9.565   3.104   9.696
37613SOL    HW214737   9.468   3.048   9.594
37614SOL     OW14738  10.214   0.100   5.829
37614SOL    HW114739  10.181   0.172   5.883
37614SOL    HW214740  10.285   0.062   5.881
37615SOL     OW14741  13.249   7.309   8.336
37615SOL    HW114742  13.260   7.225   8.379
37615SOL    HW214743  13.232   7.288   8.244
37616SOL     OW14744  11.537   5.894   2.173
37616SOL    HW114745  11.537   5.968   2.234
37616SOL    HW214746  11.486   5.925   2.098
37617SOL     OW14747   4.650   7.911  12.050
37617SOL    HW114748   4.671   7.986  11.995
37617SOL    HW214749   4.636   7.949  12.137
37618SOL     OW14750   9.707  12.427  13.890
37618SOL    HW114751   9.720  12.384  13.806
37618SOL    HW214752   9.725  12.520  13.872
37619SOL     OW14753   0.145  13.453   1.789
37619SOL    HW114754   0.153  13.432   1.882
37619SOL    HW214755   0.226  13.500   1.768
37620SOL     OW14756   7.409  13.024   9.856
37620SOL    HW114757   7.373  13.099   9.904
37620SOL    HW214758   7.415  13.055   9.766
37621SOL     OW14759  10.745  14.488  11.093
37621SOL    HW114760  10.650  14.492  11.078
37621SOL    HW214761  10.779  14.567  11.052
37622SOL     OW14762   6.624   3.808   3.089
37622SOL    HW114763   6.702   3.807   3.033
37622SOL    HW214764   6.550   3.808   3.028
37623SOL     OW14765   3.689   0.198   0.713
37623SOL    HW114766   3.698   0.240   0.628
37623SOL    HW214767   3.635   0.258   0.764
37624SOL     OW14768  12.142   1.947  12.729
37624SOL    HW114769  12.150   2.036  12.764
37624SOL    HW214770  12.049   1.927  12.737
37625SOL     OW14771  11.886   1.716  11.190
37625SOL    HW114772  11.918   1.626  11.192
37625SOL    HW214773  11.946   1.762  11.132
37626SOL     OW14774  10.601   1.052   7.576
37626SOL    HW114775  10.619   1.146   7.578
37626SOL    HW214776  10.574   1.031   7.665
37627SOL     OW14777  11.927   4.417   8.936
37627SOL    HW114778  11.935   4.512   8.928
37627SOL    HW214779  12.009   4.389   8.975
37628SOL     OW14780  12.969   3.786   0.794
37628SOL    HW114781  12.885   3.740   0.789
37628SOL    HW214782  12.968   3.827   0.881
37629SOL     OW14783   3.746   7.666  11.448
37629SOL    HW114784   3.749   7.571  11.446
37629SOL    HW214785   3.687   7.690  11.376
37630SOL     OW14786  12.431  11.760   5.693
37630SOL    HW114787  12.518  11.754   5.732
37630SOL    HW214788  12.377  11.700   5.745
37631SOL     OW14789  10.500   2.103  13.611
37631SOL    HW114790  10.483   2.146  13.527
37631SOL    HW214791  10.442   2.148  13.673
37632SOL     OW14792   5.228   2.997  10.120
37632SOL    HW114793   5.177   2.923  10.085
37632SOL    HW214794   5.315   2.961  10.135
37633SOL     OW14795  13.385  13.937  14.140
37633SOL    HW114796  13.477  13.954  14.120
37633SOL    HW214797  13.339  14.016  14.114
37634SOL     OW14798   1.572   8.902  11.531
37634SOL    HW114799   1.557   8.821  11.482
37634SOL    HW214800   1.575   8.873  11.623
37635SOL     OW14801  14.879  10.032   9.779
37635SOL    HW114802   0.060  10.064   9.843
37635SOL    HW214803   0.050  10.013   9.701
37636SOL     OW14804   7.553  10.713   7.333
37636SOL    HW114805   7.484  10.650   7.355
37636SOL    HW214806   7.633  10.673   7.365
37637SOL     OW14807   3.596   1.915   0.342
37637SOL    HW114808   3.625   1.995   0.386
37637SOL    HW214809   3.602   1.847   0.409
37638SOL     OW14810   3.264   8.516   1.886
37638SOL    HW114811   3.184   8.522   1.833
37638SOL    HW214812   3.334   8.542   1.826
37639SOL     OW14813   9.751   9.588   6.652
37639SOL    HW114814   9.748   9.539   6.570
37639SOL    HW214815   9.719   9.675   6.630
37640SOL     OW14816   2.266   0.485   2.522
37640SOL    HW114817   2.184   0.491   2.473
37640SOL    HW214818   2.333   0.514   2.461
37641SOL     OW14819   2.249   6.680   7.711
37641SOL    HW114820   2.222   6.744   7.646
37641SOL    HW214821   2.237   6.595   7.669
37642SOL     OW14822  14.325   0.180  11.162
37642SOL    HW114823  14.246   0.126  11.162
37642SOL    HW214824  14.293   0.270  11.164
37643SOL     OW14825   4.034  12.763  13.183
37643SOL    HW114826   4.063  12.773  13.274
37643SOL    HW214827   4.036  12.852  13.147
37644SOL     OW14828  12.477   7.030   2.012
37644SOL    HW114829  12.455   7.037   2.105
37644SOL    HW214830  12.450   7.114   1.974
37645SOL     OW14831  12.721  14.836   1.751
37645SOL    HW114832  12.678  14.755   1.725
37645SOL    HW214833  12.712   0.012   1.675
37646SOL     OW14834   3.410  14.474  12.219
37646SOL    HW114835   3.478  14.522  12.172
37646SOL    HW214836   3.337  14.470  12.157
37647SOL     OW14837  11.753   5.908  10.334
37647SOL    HW114838  11.834   5.887  10.288
37647SOL    HW214839  11.779   5.968  10.404
37648SOL     OW14840  13.885  14.046   5.202
37648SOL    HW114841  13.933  14.121   5.168
37648SOL    HW214842  13.948  13.974   5.197
37649SOL     OW14843  11.798   8.731  10.802
37649SOL    HW114844  11.893   8.725  10.811
37649SOL    HW214845  11.775   8.658  10.745
37650SOL     OW14846   1.423   0.226   7.027
37650SOL    HW114847   1.365   0.301   7.021
37650SOL    HW214848   1.511   0.263   7.031
37651SOL     OW14849   5.439   8.150  13.518
37651SOL    HW114850   5.477   8.187  13.597
37651SOL    HW214851   5.503   8.086  13.488
37652SOL     OW14852   3.327  10.485  12.574
37652SOL    HW114853   3.309  10.515  12.485
37652SOL    HW214854   3.419  10.460  12.573
37653SOL     OW14855  13.725   2.659   9.675
37653SOL    HW114856  13.659   2.632   9.611
37653SOL    HW214857  13.804   2.611   9.649
37654SOL     OW14858  10.113   3.192  14.100
37654SOL    HW114859  10.051   3.254  14.139
37654SOL    HW214860  10.196   3.211  14.142
37655SOL     OW14861  13.023   2.945   2.027
37655SOL    HW114862  12.943   2.959   1.976
37655SOL    HW214863  13.061   3.032   2.037
37656SOL     OW14864   0.289  12.898  12.658
37656SOL    HW114865   0.318  12.830  12.597
37656SOL    HW214866   0.243  12.961  12.604
37657SOL     OW14867   8.190   0.663   6.780
37657SOL    HW114868   8.285   0.674   6.781
37657SOL    HW214869   8.157   0.742   6.737
37658SOL     OW14870  11.562   0.916  10.970
37658SOL    HW114871  11.471   0.921  10.942
37658SOL    HW214872  11.557   0.912  11.066
37659SOL     OW14873  13.515   0.274   9.665
37659SOL    HW114874  13.548   0.351   9.618
37659SOL    HW214875  13.561   0.200   9.625
37660SOL     OW14876  11.549   9.020   2.875
37660SOL    HW114877  11.475   9.079   2.884
37660SOL    HW214878  11.565   9.014   2.781
37661SOL     OW14879   2.229   3.639  10.830
37661SOL    HW114880   2.248   3.728  10.862
37661SOL    HW214881   2.221   3.587  10.910
37662SOL     OW14882   3.047   8.974   3.737
37662SOL    HW114883   3.122   8.980   3.796
37662SOL    HW214884   3.038   8.881   3.719
37663SOL     OW14885   3.322   1.175   3.033
37663SOL    HW114886   3.401   1.193   3.083
37663SOL    HW214887   3.311   1.080   3.039
37664SOL     OW14888  12.586   4.895   1.644
37664SOL    HW114889  12.644   4.907   1.569
37664SOL    HW214890  12.612   4.964   1.705
37665SOL     OW14891   4.369  10.250  12.919
37665SOL    HW114892   4.347  10.261  12.826
37665SOL    HW214893   4.350  10.335  12.958
37666SOL     OW14894   9.876   2.637   0.147
37666SOL    HW114895   9.907   2.546   0.138
37666SOL    HW214896   9.956   2.689   0.145
37667SOL     OW14897   9.629  13.406   2.210
37667SOL    HW114898   9.615  13.358   2.291
37667SOL    HW214899   9.548  13.395   2.161
37668SOL     OW14900   9.303   0.413  10.940
37668SOL    HW114901   9.259   0.339  10.901
37668SOL    HW214902   9.235   0.458  10.991
37669SOL     OW14903  14.101   7.780   1.706
37669SOL    HW114904  14.038   7.710   1.695
37669SOL    HW214905  14.159   7.772   1.630
37670SOL     OW14906  13.771   5.057   3.841
37670SOL    HW114907  13.708   5.065   3.769
37670SOL    HW214908  13.847   5.107   3.812
37671SOL     OW14909   8.152   9.349   2.171
37671SOL    HW114910   8.101   9.417   2.215
37671SOL    HW214911   8.144   9.370   2.078
37672SOL     OW14912   4.984  14.395   7.943
37672SOL    HW114913   5.047  14.325   7.925
37672SOL    HW214914   4.954  14.424   7.857
37673SOL     OW14915   1.117   0.098   6.517
37673SOL    HW114916   1.063   0.177   6.527
37673SOL    HW214917   1.058   0.034   6.479
37674SOL     OW14918  14.062  11.363   8.762
37674SOL    HW114919  14.137  11.362   8.821
37674SOL    HW214920  14.009  11.438   8.790
37675SOL     OW14921   9.802  14.098  12.312
37675SOL    HW114922   9.853  14.178  12.298
37675SOL    HW214923   9.724  14.110  12.258
37676SOL     OW14924  14.542   7.657   7.678
37676SOL    HW114925  14.624   7.678   7.721
37676SOL    HW214926  14.558   7.574   7.634
37677SOL     OW14927   6.330  12.479  11.575
37677SOL    HW114928   6.424  12.469  11.557
37677SOL    HW214929   6.289  12.480  11.488
37678SOL     OW14930   1.499  14.191   2.781
37678SOL    HW114931   1.514  14.275   2.739
37678SOL    HW214932   1.420  14.157   2.739
37679SOL     OW14933  12.997   5.977   9.892
37679SOL    HW114934  12.996   5.950   9.800
37679SOL    HW214935  12.931   5.921   9.934
37680SOL     OW14936   3.691   3.997   4.249
37680SOL    HW114937   3.716   3.975   4.158
37680SOL    HW214938   3.772   3.987   4.298
37681SOL     OW14939   6.760   3.260  13.915
37681SOL    HW114940   6.804   3.271  13.830
37681SOL    HW214941   6.686   3.319  13.911
37682SOL     OW14942   0.244   6.444  12.171
37682SOL    HW114943   0.299   6.493  12.233
37682SOL    HW214944   0.163   6.426  12.220
37683SOL     OW14945  11.475   1.601   1.327
37683SOL    HW114946  11.506   1.669   1.266
37683SOL    HW214947  11.546   1.537   1.329
37684SOL     OW14948   5.945   4.602   5.138
37684SOL    HW114949   6.016   4.539   5.148
37684SOL    HW214950   5.866   4.549   5.134
37685SOL     OW14951   4.363   2.115   5.763
37685SOL    HW114952   4.270   2.106   5.742
37685SOL    HW214953   4.405   2.041   5.718
37686SOL     OW14954   5.987  12.541  11.829
37686SOL    HW114955   6.076  12.559  11.859
37686SOL    HW214956   5.936  12.530  11.909
37687SOL     OW14957  13.207   9.391  12.157
37687SOL    HW114958  13.196   9.481  12.186
37687SOL    HW214959  13.287   9.362  12.201
37688SOL     OW14960   3.452   7.800  14.614
37688SOL    HW114961   3.405   7.779  14.533
37688SOL    HW214962   3.385   7.830  14.675
37689SOL     OW14963   8.788  12.387   2.315
37689SOL    HW114964   8.784  12.382   2.410
37689SOL    HW214965   8.824  12.474   2.297
37690SOL     OW14966   2.506   1.301   8.239
37690SOL    HW114967   2.550   1.386   8.237
37690SOL    HW214968   2.573   1.240   8.270
37691SOL     OW14969  12.891  14.105  11.928
37691SOL    HW114970  12.904  14.115  12.022
37691SOL    HW214971  12.928  14.185  11.890
37692SOL     OW14972   4.290   0.951  10.937
37692SOL    HW114973   4.242   0.983  10.861
37692SOL    HW214974   4.232   0.970  11.011
37693SOL     OW14975   2.045   5.612   1.911
37693SOL    HW114976   2.055   5.596   2.005
37693SOL    HW214977   1.958   5.650   1.902
37694SOL     OW14978   9.963  14.112  12.006
37694SOL    HW114979   9.943  14.026  12.042
37694SOL    HW214980   9.880  14.143  11.970
37695SOL     OW14981   3.015   3.703   8.783
37695SOL    HW114982   2.972   3.777   8.741
37695SOL    HW214983   3.094   3.740   8.823
37696SOL     OW14984   0.236  12.483   0.934
37696SOL    HW114985   0.265  12.538   1.007
37696SOL    HW214986   0.202  12.404   0.975
37697SOL     OW14987   2.152   7.841  10.862
37697SOL    HW114988   2.092   7.823  10.934
37697SOL    HW214989   2.230   7.877  10.905
37698SOL     OW14990   9.422   7.503  10.861
37698SOL    HW114991   9.366   7.511  10.784
37698SOL    HW214992   9.510   7.489  10.826
37699SOL     OW14993   0.392  11.842   6.193
37699SOL    HW114994   0.349  11.870   6.274
37699SOL    HW214995   0.349  11.760   6.169
37700SOL     OW14996   4.061  11.024  10.089
37700SOL    HW114997   4.046  11.110  10.125
37700SOL    HW214998   3.974  10.986  10.077
37701SOL     OW14999   0.286   3.944   7.626
37701SOL    HW115000   0.205   3.917   7.584
37701SOL    HW215001   0.271   3.928   7.720
37702SOL     OW15002   6.302   8.578   7.634
37702SOL    HW115003   6.241   8.616   7.696
37702SOL    HW215004   6.249   8.519   7.581
37703SOL     OW15005   6.728   9.354  11.799
37703SOL    HW115006   6.786   9.291  11.841
37703SOL    HW215007   6.786   9.409  11.747
37704SOL     OW15008  12.027   1.250   8.015
37704SOL    HW115009  12.085   1.214   7.948
37704SOL    HW215010  11.983   1.174   8.053
37705SOL     OW15011   4.198  13.589   5.573
37705SOL    HW115012   4.113  13.608   5.533
37705SOL    HW215013   4.243  13.673   5.574
37706SOL     OW15014   0.204   1.081   7.761
37706SOL    HW115015   0.112   1.069   7.784
37706SOL    HW215016   0.206   1.164   7.713
37707SOL     OW15017  14.732   8.220   5.480
37707SOL    HW115018  14.667   8.178   5.535
37707SOL    HW215019  14.704   8.312   5.475
37708SOL     OW15020  11.454   6.600  11.986
37708SOL    HW115021  11.421   6.510  11.977
37708SOL    HW215022  11.376   6.655  11.975
37709SOL     OW15023  12.640  14.546   9.191
37709SOL    HW115024  12.709  14.483   9.169
37709SOL    HW215025  12.607  14.515   9.275
37710SOL     OW15026   9.443   3.675   2.519
37710SOL    HW115027   9.513   3.674   2.453
37710SOL    HW215028   9.488   3.656   2.602
37711SOL     OW15029   3.873   8.781  10.133
37711SOL    HW115030   3.962   8.772  10.098
37711SOL    HW215031   3.839   8.859  10.090
37712SOL     OW15032  11.663   6.875   8.558
37712SOL    HW115033  11.666   6.782   8.538
37712SOL    HW215034  11.753   6.898   8.582
37713SOL     OW15035   8.966  12.860  13.234
37713SOL    HW115036   8.919  12.822  13.160
37713SOL    HW215037   8.905  12.923  13.272
37714SOL     OW15038  13.447  10.670   2.801
37714SOL    HW115039  13.377  10.727   2.832
37714SOL    HW215040  13.413  10.631   2.720
37715SOL     OW15041  14.638   4.766   4.198
37715SOL    HW115042  14.633   4.686   4.146
37715SOL    HW215043  14.553   4.809   4.183
37716SOL     OW15044   4.131   5.869   1.144
37716SOL    HW115045   4.067   5.808   1.107
37716SOL    HW215046   4.090   5.955   1.136
37717SOL     OW15047  11.384   4.033  13.025
37717SOL    HW115048  11.466   4.047  13.073
37717SOL    HW215049  11.360   3.942  13.044
37718SOL     OW15050   6.617   4.512  10.811
37718SOL    HW115051   6.553   4.550  10.751
37718SOL    HW215052   6.574   4.434  10.846
37719SOL     OW15053   0.586  10.101   6.677
37719SOL    HW115054   0.621  10.079   6.590
37719SOL    HW215055   0.544  10.186   6.664
37720SOL     OW15056   2.818   4.451   4.686
37720SOL    HW115057   2.772   4.471   4.768
37720SOL    HW215058   2.902   4.495   4.696
37721SOL     OW15059   2.048  13.895  12.843
37721SOL    HW115060   1.971  13.840  12.858
37721SOL    HW215061   2.014  13.972  12.796
37722SOL     OW15062   5.131  10.860   7.074
37722SOL    HW115063   5.101  10.772   7.051
37722SOL    HW215064   5.212  10.846   7.123
37723SOL     OW15065   5.123  14.286   1.265
37723SOL    HW115066   5.043  14.253   1.306
37723SOL    HW215067   5.136  14.230   1.188
37724SOL     OW15068  13.026   1.175  10.245
37724SOL    HW115069  12.972   1.104  10.210
37724SOL    HW215070  13.078   1.205  10.170
37725SOL     OW15071   8.037   1.817   6.619
37725SOL    HW115072   7.970   1.864   6.669
37725SOL    HW215073   8.006   1.819   6.528
37726SOL     OW15074   5.357   3.895   0.882
37726SOL    HW115075   5.416   3.964   0.853
37726SOL    HW215076   5.329   3.923   0.970
37727SOL     OW15077  11.294   6.382   1.978
37727SOL    HW115078  11.363   6.317   1.966
37727SOL    HW215079  11.315   6.422   2.063
37728SOL     OW15080   1.615  13.199   0.969
37728SOL    HW115081   1.567  13.119   0.945
37728SOL    HW215082   1.701  13.189   0.928
37729SOL     OW15083   4.339  14.721   6.532
37729SOL    HW115084   4.253  14.688   6.504
37729SOL    HW215085   4.385  14.643   6.563
37730SOL     OW15086   0.776   2.380   1.916
37730SOL    HW115087   0.763   2.300   1.864
37730SOL    HW215088   0.724   2.366   1.995
37731SOL     OW15089   5.837   1.280   9.081
37731SOL    HW115090   5.923   1.249   9.109
37731SOL    HW215091   5.776   1.241   9.143
37732SOL     OW15092  10.227   2.554   1.076
37732SOL    HW115093  10.165   2.484   1.099
37732SOL    HW215094  10.185   2.599   1.003
37733SOL     OW15095   0.258   9.155   8.538
37733SOL    HW115096   0.234   9.065   8.557
37733SOL    HW215097   0.212   9.176   8.457
37734SOL     OW15098   5.678   1.397  10.746
37734SOL    HW115099   5.769   1.425  10.761
37734SOL    HW215100   5.642   1.385  10.834
37735SOL     OW15101  14.538  12.342  14.747
37735SOL    HW115102  14.592  12.272  14.784
37735SOL    HW215103  14.593  12.382  14.679
37736SOL     OW15104  13.200  12.578  14.216
37736SOL    HW115105  13.295  12.571  14.214
37736SOL    HW215106  13.173  12.563  14.125
37737SOL     OW15107   5.949  14.330   2.766
37737SOL    HW115108   5.907  14.353   2.848
37737SOL    HW215109   6.042  14.346   2.780
37738SOL     OW15110   7.554  12.299   6.006
37738SOL    HW115111   7.488  12.337   5.949
37738SOL    HW215112   7.538  12.338   6.091
37739SOL     OW15113  13.243   7.192  13.919
37739SOL    HW115114  13.300   7.265  13.944
37739SOL    HW215115  13.193   7.225  13.844
37740SOL     OW15116  13.334  11.993  12.289
37740SOL    HW115117  13.414  12.001  12.341
37740SOL    HW215118  13.362  11.950  12.208
37741SOL     OW15119  14.583   2.653   8.805
37741SOL    HW115120  14.669   2.611   8.800
37741SOL    HW215121  14.592   2.720   8.872
37742SOL     OW15122   0.694   1.748  14.161
37742SOL    HW115123   0.771   1.735  14.106
37742SOL    HW215124   0.665   1.837  14.142
37743SOL     OW15125  12.936  13.143   0.828
37743SOL    HW115126  12.965  13.144   0.919
37743SOL    HW215127  12.984  13.214   0.787
37744SOL     OW15128  12.960   8.813   8.694
37744SOL    HW115129  12.893   8.773   8.749
37744SOL    HW215130  12.940   8.783   8.605
37745SOL     OW15131  11.290   4.467   8.109
37745SOL    HW115132  11.326   4.534   8.168
37745SOL    HW215133  11.224   4.513   8.058
37746SOL     OW15134   9.073  13.919   1.514
37746SOL    HW115135   9.076  13.955   1.603
37746SOL    HW215136   9.067  13.996   1.458
37747SOL     OW15137   3.027   6.726   6.584
37747SOL    HW115138   2.982   6.659   6.635
37747SOL    HW215139   3.058   6.680   6.506
37748SOL     OW15140   7.838  14.125  12.549
37748SOL    HW115141   7.933  14.135  12.541
37748SOL    HW215142   7.823  14.032  12.535
37749SOL     OW15143  12.654   6.080  10.581
37749SOL    HW115144  12.616   6.014  10.640
37749SOL    HW215145  12.630   6.051  10.493
37750SOL     OW15146   9.344   5.702   9.802
37750SOL    HW115147   9.348   5.688   9.707
37750SOL    HW215148   9.290   5.629   9.834
37751SOL     OW15149  14.302   2.946  14.785
37751SOL    HW115150  14.345   2.868  14.819
37751SOL    HW215151  14.353   3.019  14.819
37752SOL     OW15152  11.041   6.352   6.302
37752SOL    HW115153  10.995   6.271   6.280
37752SOL    HW215154  11.033   6.359   6.397
37753SOL     OW15155   1.092   9.293   7.448
37753SOL    HW115156   1.151   9.220   7.460
37753SOL    HW215157   1.111   9.352   7.521
37754SOL     OW15158  12.902   0.329  10.693
37754SOL    HW115159  12.822   0.381  10.694
37754SOL    HW215160  12.971   0.394  10.676
37755SOL     OW15161  12.769   8.603   0.519
37755SOL    HW115162  12.747   8.537   0.452
37755SOL    HW215163  12.852   8.639   0.490
37756SOL     OW15164   3.845  11.127  13.172
37756SOL    HW115165   3.829  11.192  13.241
37756SOL    HW215166   3.763  11.122  13.123
37757SOL     OW15167   0.285   4.936  11.628
37757SOL    HW115168   0.337   5.010  11.660
37757SOL    HW215169   0.226   4.976  11.564
37758SOL     OW15170  12.377  13.066  10.078
37758SOL    HW115171  12.399  13.019   9.997
37758SOL    HW215172  12.282  13.060  10.084
37759SOL     OW15173  12.529   0.745  11.657
37759SOL    HW115174  12.617   0.777  11.678
37759SOL    HW215175  12.522   0.662  11.705
37760SOL     OW15176   2.322   5.734   2.726
37760SOL    HW115177   2.258   5.684   2.777
37760SOL    HW215178   2.341   5.811   2.780
37761SOL     OW15179   0.904  14.575  13.856
37761SOL    HW115180   0.897  14.593  13.950
37761SOL    HW215181   0.949  14.651  13.821
37762SOL     OW15182   7.393   8.981   9.348
37762SOL    HW115183   7.319   8.964   9.289
37762SOL    HW215184   7.469   8.986   9.290
37763SOL     OW15185   4.620   8.774   8.477
37763SOL    HW115186   4.542   8.829   8.481
37763SOL    HW215187   4.587   8.687   8.456
37764SOL     OW15188   1.185  11.585   7.026
37764SOL    HW115189   1.238  11.510   6.999
37764SOL    HW215190   1.206  11.598   7.118
37765SOL     OW15191   3.144   9.799   5.295
37765SOL    HW115192   3.235   9.796   5.325
37765SOL    HW215193   3.114   9.709   5.303
37766SOL     OW15194  11.989   6.380   7.401
37766SOL    HW115195  11.921   6.438   7.368
37766SOL    HW215196  11.943   6.321   7.460
37767SOL     OW15197   9.642  14.265   2.869
37767SOL    HW115198   9.594  14.323   2.929
37767SOL    HW215199   9.576  14.201   2.841
37768SOL     OW15200   1.282   1.583   2.125
37768SOL    HW115201   1.285   1.495   2.161
37768SOL    HW215202   1.372   1.602   2.100
37769SOL     OW15203   7.581   4.833   4.114
37769SOL    HW115204   7.602   4.925   4.103
37769SOL    HW215205   7.544   4.827   4.202
37770SOL     OW15206  11.206  13.182   2.697
37770SOL    HW115207  11.145  13.255   2.685
37770SOL    HW215208  11.157  13.105   2.669
37771SOL     OW15209   8.308   5.574  14.220
37771SOL    HW115210   8.319   5.622  14.301
37771SOL    HW215211   8.252   5.500  14.244
37772SOL     OW15212   0.208   0.682   1.654
37772SOL    HW115213   0.206   0.650   1.744
37772SOL    HW215214   0.208   0.777   1.662
37773SOL     OW15215   3.858   6.524   4.488
37773SOL    HW115216   3.892   6.580   4.419
37773SOL    HW215217   3.934   6.502   4.541
37774SOL     OW15218  10.869   9.218   2.056
37774SOL    HW115219  10.870   9.200   2.150
37774SOL    HW215220  10.874   9.314   2.050
37775SOL     OW15221  13.380  14.104   9.909
37775SOL    HW115222  13.419  14.080   9.993
37775SOL    HW215223  13.292  14.135   9.930
37776SOL     OW15224  14.096   5.088  14.782
37776SOL    HW115225  14.037   5.142  14.730
37776SOL    HW215226  14.058   5.088  14.870
37777SOL     OW15227   6.489  11.143  14.461
37777SOL    HW115228   6.508  11.173  14.372
37777SOL    HW215229   6.496  11.222  14.515
37778SOL     OW15230  14.445   4.360   9.611
37778SOL    HW115231  14.380   4.337   9.544
37778SOL    HW215232  14.397   4.359   9.693
37779SOL     OW15233   7.052   9.976  13.684
37779SOL    HW115234   7.134  10.000  13.641
37779SOL    HW215235   7.072   9.982  13.777
37780SOL     OW15236   2.954   2.695   7.703
37780SOL    HW115237   3.031   2.648   7.670
37780SOL    HW215238   2.955   2.778   7.654
37781SOL     OW15239   8.118  14.131   9.751
37781SOL    HW115240   8.196  14.078   9.741
37781SOL    HW215241   8.081  14.136   9.663
37782SOL     OW15242   8.100  12.218  11.727
37782SOL    HW115243   8.178  12.230  11.672
37782SOL    HW215244   8.128  12.157  11.794
37783SOL     OW15245   8.853  12.786   3.753
37783SOL    HW115246   8.931  12.732   3.766
37783SOL    HW215247   8.779  12.727   3.766
37784SOL     OW15248  10.821   9.838   4.674
37784SOL    HW115249  10.877   9.841   4.752
37784SOL    HW215250  10.840   9.753   4.634
37785SOL     OW15251  14.662  11.401   8.528
37785SOL    HW115252  14.636  11.424   8.617
37785SOL    HW215253  14.607  11.456   8.472
37786SOL     OW15254   1.532  11.374  14.861
37786SOL    HW115255   1.617  11.360  14.818
37786SOL    HW215256   1.545  11.454   0.031
37787SOL     OW15257   3.272   9.884   0.862
37787SOL    HW115258   3.245   9.831   0.937
37787SOL    HW215259   3.351   9.929   0.891
37788SOL     OW15260  11.305  13.987   3.948
37788SOL    HW115261  11.284  13.904   3.989
37788SOL    HW215262  11.287  13.973   3.855
37789SOL     OW15263   3.043   5.290   2.327
37789SOL    HW115264   3.000   5.213   2.364
37789SOL    HW215265   2.975   5.333   2.275
37790SOL     OW15266   9.050  14.804   0.686
37790SOL    HW115267   9.070  14.881   0.741
37790SOL    HW215268   9.136  14.770   0.661
37791SOL     OW15269  13.010   7.282  14.864
37791SOL    HW115270  13.102   7.258  14.877
37791SOL    HW215271  12.991   7.258  14.774
37792SOL     OW15272   7.014   7.721   8.982
37792SOL    HW115273   6.981   7.760   9.063
37792SOL    HW215274   7.093   7.674   9.008
37793SOL     OW15275  14.761   3.523  11.875
37793SOL    HW115276  14.690   3.584  11.893
37793SOL    HW215277  14.778   3.480  11.959
37794SOL     OW15278   7.738   0.315   4.203
37794SOL    HW115279   7.795   0.300   4.278
37794SOL    HW215280   7.665   0.254   4.216
37795SOL     OW15281   0.386   3.069   5.882
37795SOL    HW115282   0.434   3.130   5.826
37795SOL    HW215283   0.448   2.998   5.900
37796SOL     OW15284  12.086   5.009  10.307
37796SOL    HW115285  12.006   4.961  10.286
37796SOL    HW215286  12.063   5.060  10.384
37797SOL     OW15287   0.784  13.234   9.364
37797SOL    HW115288   0.702  13.255   9.320
37797SOL    HW215289   0.801  13.308   9.421
37798SOL     OW15290   6.872   7.102   8.478
37798SOL    HW115291   6.818   7.167   8.524
37798SOL    HW215292   6.863   7.022   8.531
37799SOL     OW15293  14.220  11.562   7.909
37799SOL    HW115294  14.168  11.526   7.837
37799SOL    HW215295  14.185  11.650   7.923
37800SOL     OW15296   3.733  14.421  14.579
37800SOL    HW115297   3.793  14.395  14.508
37800SOL    HW215298   3.744  14.353  14.645
37801SOL     OW15299  13.734  13.006   6.152
37801SOL    HW115300  13.662  12.947   6.130
37801SOL    HW215301  13.788  13.009   6.074
37802SOL     OW15302   6.986   0.825   2.036
37802SOL    HW115303   7.066   0.814   2.088
37802SOL    HW215304   6.999   0.769   1.959
37803SOL     OW15305   4.020   9.872  12.354
37803SOL    HW115306   3.932   9.886  12.389
37803SOL    HW215307   4.065   9.822  12.421
37804SOL     OW15308   0.290   7.824   1.674
37804SOL    HW115309   0.229   7.817   1.747
37804SOL    HW215310   0.286   7.738   1.631
37805SOL     OW15311  12.138  10.411   2.010
37805SOL    HW115312  12.156  10.345   1.944
37805SOL    HW215313  12.190  10.384   2.086
37806SOL     OW15314   2.815   8.820   2.505
37806SOL    HW115315   2.874   8.807   2.579
37806SOL    HW215316   2.872   8.821   2.428
37807SOL     OW15317  12.322   3.147   0.028
37807SOL    HW115318  12.311   3.205   0.103
37807SOL    HW215319  12.409   3.108   0.040
37808SOL     OW15320   7.295   0.743   9.433
37808SOL    HW115321   7.353   0.677   9.471
37808SOL    HW215322   7.355   0.808   9.395
37809SOL     OW15323   6.148   4.177   2.856
37809SOL    HW115324   6.063   4.218   2.866
37809SOL    HW215325   6.144   4.099   2.913
37810SOL     OW15326   0.225   0.667   2.365
37810SOL    HW115327   0.286   0.681   2.292
37810SOL    HW215328   0.229   0.748   2.415
37811SOL     OW15329   2.397   7.282  10.048
37811SOL    HW115330   2.373   7.345   9.980
37811SOL    HW215331   2.458   7.330  10.105
37812SOL     OW15332   0.996  11.420   5.412
37812SOL    HW115333   0.945  11.479   5.466
37812SOL    HW215334   1.076  11.468   5.391
37813SOL     OW15335   4.302  14.560   3.315
37813SOL    HW115336   4.357  14.484   3.335
37813SOL    HW215337   4.301  14.566   3.220
37814SOL     OW15338   3.862   4.370   5.499
37814SOL    HW115339   3.767   4.355   5.495
37814SOL    HW215340   3.881   4.378   5.592
37815SOL     OW15341  11.325   4.572   1.673
37815SOL    HW115342  11.266   4.580   1.598
37815SOL    HW215343  11.269   4.542   1.745
37816SOL     OW15344   7.574   9.167   1.195
37816SOL    HW115345   7.574   9.233   1.264
37816SOL    HW215346   7.667   9.152   1.176
37817SOL     OW15347  14.407   6.274  14.643
37817SOL    HW115348  14.387   6.312  14.728
37817SOL    HW215349  14.359   6.191  14.643
37818SOL     OW15350   6.301  12.247   5.152
37818SOL    HW115351   6.392  12.263   5.177
37818SOL    HW215352   6.274  12.328   5.108
37819SOL     OW15353   8.337  10.924   5.169
37819SOL    HW115354   8.432  10.914   5.178
37819SOL    HW215355   8.316  10.999   5.225
37820SOL     OW15356   0.304   0.364   0.009
37820SOL    HW115357   0.381   0.341   0.060
37820SOL    HW215358   0.324   0.449  14.852
37821SOL     OW15359   4.301   9.432   6.366
37821SOL    HW115360   4.209   9.424   6.343
37821SOL    HW215361   4.347   9.430   6.282
37822SOL     OW15362   8.091  14.155   9.450
37822SOL    HW115363   8.027  14.086   9.437
37822SOL    HW215364   8.111  14.187   9.362
37823SOL     OW15365   8.750  12.132   4.293
37823SOL    HW115366   8.696  12.070   4.244
37823SOL    HW215367   8.707  12.216   4.281
37824SOL     OW15368   1.691   9.653  11.271
37824SOL    HW115369   1.725   9.691  11.190
37824SOL    HW215370   1.744   9.574  11.283
37825SOL     OW15371  14.147   8.016   7.433
37825SOL    HW115372  14.195   7.934   7.418
37825SOL    HW215373  14.061   7.987   7.464
37826SOL     OW15374  11.685   6.113   8.558
37826SOL    HW115375  11.620   6.159   8.506
37826SOL    HW215376  11.713   6.177   8.624
37827SOL     OW15377   9.450   9.292   7.600
37827SOL    HW115378   9.468   9.231   7.528
37827SOL    HW215379   9.374   9.254   7.645
37828SOL     OW15380   1.361   4.085  11.762
37828SOL    HW115381   1.404   4.009  11.723
37828SOL    HW215382   1.268   4.073  11.743
37829SOL     OW15383   2.933   9.959   4.122
37829SOL    HW115384   2.915   9.948   4.215
37829SOL    HW215385   2.899   9.880   4.081
37830SOL     OW15386  14.105  11.405  12.501
37830SOL    HW115387  14.090  11.342  12.572
37830SOL    HW215388  14.030  11.464  12.507
37831SOL     OW15389   4.349  14.648  11.400
37831SOL    HW115390   4.281  14.648  11.467
37831SOL    HW215391   4.345  14.560  11.362
37832SOL     OW15392  10.907   5.770  13.614
37832SOL    HW115393  10.936   5.719  13.539
37832SOL    HW215394  10.813   5.782  13.601
37833SOL     OW15395   5.429  12.140   7.747
37833SOL    HW115396   5.518  12.105   7.743
37833SOL    HW215397   5.435  12.215   7.806
37834SOL     OW15398  12.518   3.987   0.772
37834SOL    HW115399  12.504   4.075   0.738
37834SOL    HW215400  12.436   3.942   0.755
37835SOL     OW15401   7.334  12.037   2.517
37835SOL    HW115402   7.376  12.015   2.600
37835SOL    HW215403   7.259  11.977   2.512
37836SOL     OW15404   4.150  11.201  13.778
37836SOL    HW115405   4.176  11.136  13.713
37836SOL    HW215406   4.132  11.280  13.727
37837SOL     OW15407   2.415   4.484   1.514
37837SOL    HW115408   2.387   4.508   1.426
37837SOL    HW215409   2.481   4.417   1.502
37838SOL     OW15410   4.305   1.605   2.898
37838SOL    HW115411   4.368   1.677   2.903
37838SOL    HW215412   4.254   1.622   2.819
37839SOL     OW15413   5.298  11.796   3.727
37839SOL    HW115414   5.209  11.759   3.720
37839SOL    HW215415   5.347  11.752   3.658
37840SOL     OW15416   0.605   2.994   2.066
37840SOL    HW115417   0.602   2.907   2.106
37840SOL    HW215418   0.696   3.023   2.079
37841SOL     OW15419   3.191   8.811   7.401
37841SOL    HW115420   3.217   8.786   7.312
37841SOL    HW215421   3.105   8.851   7.390
37842SOL     OW15422  13.748   4.147   9.812
37842SOL    HW115423  13.768   4.172   9.902
37842SOL    HW215424  13.791   4.214   9.758
37843SOL     OW15425  10.924   7.247   7.102
37843SOL    HW115426  10.889   7.165   7.136
37843SOL    HW215427  10.940   7.301   7.180
37844SOL     OW15428   3.472  10.720   2.473
37844SOL    HW115429   3.440  10.681   2.554
37844SOL    HW215430   3.563  10.691   2.467
37845SOL     OW15431   9.251   1.097   0.518
37845SOL    HW115432   9.284   1.015   0.555
37845SOL    HW215433   9.275   1.093   0.426
37846SOL     OW15434   3.502  13.710   6.232
37846SOL    HW115435   3.445  13.784   6.251
37846SOL    HW215436   3.446  13.648   6.185
37847SOL     OW15437   5.499   7.745   5.557
37847SOL    HW115438   5.515   7.694   5.637
37847SOL    HW215439   5.517   7.836   5.582
37848SOL     OW15440   4.432  11.469  10.158
37848SOL    HW115441   4.421  11.429  10.244
37848SOL    HW215442   4.434  11.396  10.097
37849SOL     OW15443   5.101   0.224   4.993
37849SOL    HW115444   5.150   0.267   5.063
37849SOL    HW215445   5.152   0.146   4.972
37850SOL     OW15446   7.293  12.851   3.070
37850SOL    HW115447   7.330  12.847   2.982
37850SOL    HW215448   7.210  12.898   3.059
37851SOL     OW15449  13.242  10.691   7.150
37851SOL    HW115450  13.306  10.637   7.196
37851SOL    HW215451  13.294  10.761   7.110
37852SOL     OW15452   5.809   6.099   2.450
37852SOL    HW115453   5.743   6.135   2.391
37852SOL    HW215454   5.791   6.139   2.535
37853SOL     OW15455   6.630  10.523   4.220
37853SOL    HW115456   6.549  10.473   4.219
37853SOL    HW215457   6.619  10.588   4.150
37854SOL     OW15458   4.726   6.060   7.718
37854SOL    HW115459   4.745   6.037   7.627
37854SOL    HW215460   4.801   6.112   7.746
37855SOL     OW15461   0.406  14.360   1.202
37855SOL    HW115462   0.467  14.296   1.239
37855SOL    HW215463   0.323  14.312   1.194
37856SOL     OW15464   4.820  11.742   2.868
37856SOL    HW115465   4.811  11.806   2.939
37856SOL    HW215466   4.905  11.701   2.883
37857SOL     OW15467   3.529   7.035   3.558
37857SOL    HW115468   3.616   7.067   3.581
37857SOL    HW215469   3.540   6.992   3.474
37858SOL     OW15470   1.995   2.138   3.733
37858SOL    HW115471   2.005   2.059   3.788
37858SOL    HW215472   1.963   2.205   3.793
37859SOL     OW15473   0.949   6.060  13.585
37859SOL    HW115474   1.007   5.987  13.608
37859SOL    HW215475   0.900   6.028  13.509
37860SOL     OW15476   8.109   2.599  10.506
37860SOL    HW115477   8.106   2.507  10.532
37860SOL    HW215478   8.018   2.629  10.512
37861SOL     OW15479   4.017   0.549  13.524
37861SOL    HW115480   4.050   0.533  13.436
37861SOL    HW215481   3.962   0.627  13.516
37862SOL     OW15482  10.882   5.180  12.350
37862SOL    HW115483  10.799   5.156  12.389
37862SOL    HW215484  10.872   5.159  12.257
37863SOL     OW15485  13.221  12.728   9.187
37863SOL    HW115486  13.297  12.786   9.197
37863SOL    HW215487  13.155  12.783   9.146
37864SOL     OW15488  11.671   6.088   8.211
37864SOL    HW115489  11.590   6.100   8.261
37864SOL    HW215490  11.700   6.177   8.192
37865SOL     OW15491  10.135  14.295  14.862
37865SOL    HW115492  10.060  14.289   0.038
37865SOL    HW215493  10.112  14.363  14.799
37866SOL     OW15494  11.999   6.118  12.866
37866SOL    HW115495  12.048   6.092  12.788
37866SOL    HW215496  11.953   6.038  12.892
37867SOL     OW15497  10.386  10.287   5.974
37867SOL    HW115498  10.409  10.321   5.888
37867SOL    HW215499  10.423  10.199   5.976
37868SOL     OW15500   3.979   8.747  10.694
37868SOL    HW115501   4.011   8.774  10.608
37868SOL    HW215502   3.891   8.713  10.677
37869SOL     OW15503  11.211  12.469   0.799
37869SOL    HW115504  11.269  12.410   0.751
37869SOL    HW215505  11.170  12.523   0.731
37870SOL     OW15506   3.427   9.258  10.001
37870SOL    HW115507   3.367   9.193   9.963
37870SOL    HW215508   3.498   9.206  10.038
37871SOL     OW15509   0.147   7.484   6.572
37871SOL    HW115510   0.228   7.439   6.551
37871SOL    HW215511   0.122   7.527   6.490
37872SOL     OW15512   9.490   6.963  10.377
37872SOL    HW115513   9.423   7.007  10.325
37872SOL    HW215514   9.572   6.990  10.337
37873SOL     OW15515  14.270   1.807   3.654
37873SOL    HW115516  14.355   1.846   3.632
37873SOL    HW215517  14.230   1.869   3.715
37874SOL     OW15518   4.592   9.517   9.978
37874SOL    HW115519   4.589   9.449  10.045
37874SOL    HW215520   4.630   9.593  10.022
37875SOL     OW15521   3.667  13.020  13.652
37875SOL    HW115522   3.624  13.104  13.633
37875SOL    HW215523   3.705  12.993  13.569
37876SOL     OW15524   3.473   2.947   8.863
37876SOL    HW115525   3.499   2.991   8.944
37876SOL    HW215526   3.542   2.970   8.801
37877SOL     OW15527   8.075  12.467   3.058
37877SOL    HW115528   8.001  12.418   3.093
37877SOL    HW215529   8.049  12.559   3.067
37878SOL     OW15530   0.708   8.794   0.492
37878SOL    HW115531   0.677   8.724   0.550
37878SOL    HW215532   0.722   8.869   0.551
37879SOL     OW15533  11.820   2.783  14.610
37879SOL    HW115534  11.815   2.744  14.523
37879SOL    HW215535  11.853   2.872  14.595
37880SOL     OW15536   6.226   3.172   5.517
37880SOL    HW115537   6.314   3.141   5.493
37880SOL    HW215538   6.182   3.185   5.434
37881SOL     OW15539   2.378  10.618   0.978
37881SOL    HW115540   2.297  10.572   1.002
37881SOL    HW215541   2.444  10.550   0.974
37882SOL     OW15542   2.590   1.211   7.509
37882SOL    HW115543   2.524   1.174   7.450
37882SOL    HW215544   2.645   1.265   7.452
37883SOL     OW15545   2.857   8.589  12.328
37883SOL    HW115546   2.801   8.611  12.402
37883SOL    HW215547   2.909   8.514  12.358
37884SOL     OW15548  11.858   3.501   5.570
37884SOL    HW115549  11.814   3.586   5.576
37884SOL    HW215550  11.949   3.523   5.553
37885SOL     OW15551   3.364   4.680   6.173
37885SOL    HW115552   3.343   4.588   6.185
37885SOL    HW215553   3.294   4.714   6.118
37886SOL     OW15554  14.174  10.638   6.091
37886SOL    HW115555  14.116  10.637   6.015
37886SOL    HW215556  14.230  10.714   6.078
37887SOL     OW15557   3.310   6.735  12.158
37887SOL    HW115558   3.242   6.753  12.223
37887SOL    HW215559   3.282   6.654  12.115
37888SOL     OW15560  12.181   5.305  11.306
37888SOL    HW115561  12.235   5.380  11.330
37888SOL    HW215562  12.122   5.294  11.380
37889SOL     OW15563  14.532   4.896   7.745
37889SOL    HW115564  14.464   4.879   7.680
37889SOL    HW215565  14.562   4.985   7.728
37890SOL     OW15566   5.975   6.521  12.565
37890SOL    HW115567   5.989   6.436  12.524
37890SOL    HW215568   6.042   6.527  12.632
37891SOL     OW15569  11.081   6.771   3.861
37891SOL    HW115570  11.097   6.736   3.949
37891SOL    HW215571  10.993   6.742   3.839
37892SOL     OW15572   9.068  11.995   8.495
37892SOL    HW115573   9.080  11.960   8.406
37892SOL    HW215574   9.069  12.090   8.484
37893SOL     OW15575  12.813  10.606  10.911
37893SOL    HW115576  12.752  10.547  10.955
37893SOL    HW215577  12.844  10.664  10.981
37894SOL     OW15578   7.499  11.233  11.971
37894SOL    HW115579   7.506  11.147  11.929
37894SOL    HW215580   7.527  11.295  11.903
37895SOL     OW15581  10.964   1.435   7.654
37895SOL    HW115582  10.896   1.405   7.594
37895SOL    HW215583  11.044   1.434   7.602
37896SOL     OW15584  10.520   1.390   3.455
37896SOL    HW115585  10.434   1.431   3.458
37896SOL    HW215586  10.560   1.412   3.540
37897SOL     OW15587   3.485  14.518   2.029
37897SOL    HW115588   3.535  14.551   2.102
37897SOL    HW215589   3.535  14.442   1.997
37898SOL     OW15590   0.695   5.540  13.791
37898SOL    HW115591   0.661   5.489  13.864
37898SOL    HW215592   0.619   5.559  13.737
37899SOL     OW15593   0.635   5.681  14.315
37899SOL    HW115594   0.677   5.676  14.400
37899SOL    HW215595   0.542   5.689  14.335
37900SOL     OW15596  11.314  10.357   1.560
37900SOL    HW115597  11.403  10.326   1.547
37900SOL    HW215598  11.275  10.294   1.620
37901SOL     OW15599   2.263  12.388   0.885
37901SOL    HW115600   2.284  12.356   0.973
37901SOL    HW215601   2.308  12.472   0.878
37902SOL     OW15602   6.128   0.240  13.694
37902SOL    HW115603   6.216   0.279  13.701
37902SOL    HW215604   6.091   0.278  13.615
37903SOL     OW15605   5.721   2.434   3.015
37903SOL    HW115606   5.626   2.445   3.015
37903SOL    HW215607   5.749   2.471   2.931
37904SOL     OW15608   7.505   1.381   6.820
37904SOL    HW115609   7.595   1.371   6.789
37904SOL    HW215610   7.484   1.474   6.804
37905SOL     OW15611  11.662   3.955   0.169
37905SOL    HW115612  11.683   4.036   0.124
37905SOL    HW215613  11.735   3.896   0.148
37906SOL     OW15614  13.105  10.089   6.166
37906SOL    HW115615  13.098  10.050   6.079
37906SOL    HW215616  13.058  10.027   6.223
37907SOL     OW15617  14.292   7.891   6.408
37907SOL    HW115618  14.224   7.843   6.455
37907SOL    HW215619  14.245   7.962   6.363
37908SOL     OW15620   0.593   0.937   9.575
37908SOL    HW115621   0.500   0.932   9.553
37908SOL    HW215622   0.608   1.030   9.592
37909SOL     OW15623  12.950  11.526   4.353
37909SOL    HW115624  12.859  11.547   4.331
37909SOL    HW215625  12.984  11.483   4.274
37910SOL     OW15626  11.450  10.146  13.973
37910SOL    HW115627  11.538  10.137  13.937
37910SOL    HW215628  11.410  10.216  13.921
37911SOL     OW15629   6.475   3.233  11.166
37911SOL    HW115630   6.403   3.272  11.116
37911SOL    HW215631   6.439   3.149  11.198
37912SOL     OW15632   6.454   1.370  14.055
37912SOL    HW115633   6.449   1.360  14.150
37912SOL    HW215634   6.377   1.422  14.032
37913SOL     OW15635   3.717   4.135   7.556
37913SOL    HW115636   3.705   4.143   7.651
37913SOL    HW215637   3.737   4.225   7.527
37914SOL     OW15638   5.375   5.089   0.403
37914SOL    HW115639   5.418   5.157   0.351
37914SOL    HW215640   5.353   5.133   0.485
37915SOL     OW15641  14.322  12.222   7.168
37915SOL    HW115642  14.258  12.154   7.144
37915SOL    HW215643  14.407  12.178   7.158
37916SOL     OW15644   6.359   9.775   8.246
37916SOL    HW115645   6.398   9.834   8.310
37916SOL    HW215646   6.414   9.697   8.248
37917SOL     OW15647   5.902   5.807   9.954
37917SOL    HW115648   5.997   5.803   9.964
37917SOL    HW215649   5.886   5.790   9.862
37918SOL     OW15650   4.703  13.925  13.944
37918SOL    HW115651   4.704  13.910  14.038
37918SOL    HW215652   4.616  13.960  13.926
37919SOL     OW15653   8.338   0.171  14.158
37919SOL    HW115654   8.387   0.243  14.199
37919SOL    HW215655   8.402   0.100  14.150
37920SOL     OW15656   4.747  14.183   0.347
37920SOL    HW115657   4.672  14.151   0.396
37920SOL    HW215658   4.725  14.275   0.327
37921SOL     OW15659   6.759   2.810  11.442
37921SOL    HW115660   6.796   2.850  11.521
37921SOL    HW215661   6.818   2.739  11.420
37922SOL     OW15662  10.610  11.922  11.874
37922SOL    HW115663  10.602  11.827  11.865
37922SOL    HW215664  10.587  11.939  11.965
37923SOL     OW15665   4.812  14.716   7.627
37923SOL    HW115666   4.819  14.705   7.532
37923SOL    HW215667   4.725  14.753   7.640
37924SOL     OW15668  14.590   9.808   3.011
37924SOL    HW115669  14.583   9.712   3.011
37924SOL    HW215670  14.514   9.838   2.962
37925SOL     OW15671   6.384   1.746  14.613
37925SOL    HW115672   6.455   1.730  14.551
37925SOL    HW215673   6.427   1.777  14.692
37926SOL     OW15674   2.872  11.151   2.706
37926SOL    HW115675   2.869  11.059   2.679
37926SOL    HW215676   2.965  11.169   2.719
37927SOL     OW15677  12.328   3.207  11.962
37927SOL    HW115678  12.284   3.187  11.880
37927SOL    HW215679  12.407   3.152  11.961
37928SOL     OW15680  11.890  13.729   8.804
37928SOL    HW115681  11.881  13.687   8.890
37928SOL    HW215682  11.877  13.822   8.821
37929SOL     OW15683   2.751   2.610   6.098
37929SOL    HW115684   2.785   2.577   6.015
37929SOL    HW215685   2.741   2.704   6.084
37930SOL     OW15686   7.100   0.461   2.103
37930SOL    HW115687   7.025   0.498   2.056
37930SOL    HW215688   7.066   0.381   2.142
37931SOL     OW15689   2.650   1.650   5.335
37931SOL    HW115690   2.590   1.667   5.262
37931SOL    HW215691   2.723   1.711   5.320
37932SOL     OW15692  11.475   5.180   7.275
37932SOL    HW115693  11.540   5.133   7.326
37932SOL    HW215694  11.522   5.254   7.238
37933SOL     OW15695   0.981   0.905   9.420
37933SOL    HW115696   1.022   0.983   9.457
37933SOL    HW215697   0.951   0.932   9.333
37934SOL     OW15698   0.520  12.033   1.198
37934SOL    HW115699   0.590  12.095   1.215
37934SOL    HW215700   0.509  11.985   1.281
37935SOL     OW15701   2.711   8.402   6.267
37935SOL    HW115702   2.724   8.475   6.206
37935SOL    HW215703   2.790   8.349   6.256
37936SOL     OW15704   4.615   7.564   6.131
37936SOL    HW115705   4.584   7.569   6.041
37936SOL    HW215706   4.701   7.523   6.124
37937SOL     OW15707   2.491   0.598   7.568
37937SOL    HW115708   2.503   0.580   7.661
37937SOL    HW215709   2.508   0.514   7.525
37938SOL     OW15710  13.786   0.213   8.070
37938SOL    HW115711  13.858   0.163   8.030
37938SOL    HW215712  13.721   0.221   8.001
37939SOL     OW15713   9.973  11.127  13.156
37939SOL    HW115714   9.883  11.096  13.144
37939SOL    HW215715   9.988  11.185  13.081
37940SOL     OW15716   3.644   0.929   0.214
37940SOL    HW115717   3.708   0.861   0.195
37940SOL    HW215718   3.603   0.902   0.296
37941SOL     OW15719  13.510  14.095  12.116
37941SOL    HW115720  13.442  14.108  12.050
37941SOL    HW215721  13.586  14.143  12.081
37942SOL     OW15722   3.059   5.197  10.383
37942SOL    HW115723   3.021   5.125  10.333
37942SOL    HW215724   3.125   5.235  10.325
37943SOL     OW15725   9.661   0.616  12.528
37943SOL    HW115726   9.713   0.661  12.594
37943SOL    HW215727   9.605   0.684  12.491
37944SOL     OW15728   8.130   8.792  14.834
37944SOL    HW115729   8.192   8.777  14.763
37944SOL    HW215730   8.046   8.760  14.799
37945SOL     OW15731   2.779   8.392   4.556
37945SOL    HW115732   2.796   8.385   4.462
37945SOL    HW215733   2.700   8.446   4.562
37946SOL     OW15734   0.322   0.168  13.963
37946SOL    HW115735   0.313   0.073  13.950
37946SOL    HW215736   0.404   0.178  14.011
37947SOL     OW15737  14.235   4.514  10.819
37947SOL    HW115738  14.187   4.432  10.835
37947SOL    HW215739  14.198   4.548  10.738
37948SOL     OW15740   4.616  11.010  10.364
37948SOL    HW115741   4.666  11.059  10.298
37948SOL    HW215742   4.563  10.949  10.312
37949SOL     OW15743   0.244   3.278   3.669
37949SOL    HW115744   0.260   3.292   3.762
37949SOL    HW215745   0.163   3.226   3.666
37950SOL     OW15746   7.108  13.956   5.303
37950SOL    HW115747   7.157  14.030   5.337
37950SOL    HW215748   7.093  13.977   5.211
37951SOL     OW15749   2.236   3.539   1.218
37951SOL    HW115750   2.265   3.448   1.210
37951SOL    HW215751   2.314   3.585   1.250
37952SOL     OW15752   4.245   0.731   3.517
37952SOL    HW115753   4.325   0.755   3.470
37952SOL    HW215754   4.193   0.811   3.517
37953SOL     OW15755  12.407   5.355   3.544
37953SOL    HW115756  12.454   5.429   3.505
37953SOL    HW215757  12.468   5.282   3.538
37954SOL     OW15758   3.231   3.224  13.020
37954SOL    HW115759   3.251   3.193  12.932
37954SOL    HW215760   3.247   3.318  13.017
37955SOL     OW15761  12.633  10.511   0.551
37955SOL    HW115762  12.680  10.535   0.471
37955SOL    HW215763  12.655  10.580   0.614
37956SOL     OW15764   1.781   2.930   0.953
37956SOL    HW115765   1.783   2.982   0.873
37956SOL    HW215766   1.696   2.950   0.992
37957SOL     OW15767   0.095   3.669   6.183
37957SOL    HW115768   0.027   3.730   6.209
37957SOL    HW215769   0.051   3.584   6.178
37958SOL     OW15770  10.625   7.918   4.561
37958SOL    HW115771  10.649   7.993   4.506
37958SOL    HW215772  10.674   7.930   4.642
37959SOL     OW15773   3.852   8.169   6.511
37959SOL    HW115774   3.920   8.236   6.501
37959SOL    HW215775   3.842   8.131   6.424
37960SOL     OW15776   4.248   0.321   8.552
37960SOL    HW115777   4.162   0.352   8.578
37960SOL    HW215778   4.282   0.275   8.628
37961SOL     OW15779  13.119  10.436   4.686
37961SOL    HW115780  13.040  10.388   4.708
37961SOL    HW215781  13.187  10.399   4.743
37962SOL     OW15782   6.716   4.119   3.528
37962SOL    HW115783   6.727   4.131   3.434
37962SOL    HW215784   6.652   4.186   3.553
37963SOL     OW15785   6.959   6.148   1.662
37963SOL    HW115786   7.017   6.224   1.670
37963SOL    HW215787   6.962   6.125   1.569
37964SOL     OW15788  11.309   9.821  12.478
37964SOL    HW115789  11.382   9.835  12.418
37964SOL    HW215790  11.338   9.749  12.534
37965SOL     OW15791   2.542   8.965  12.110
37965SOL    HW115792   2.569   8.944  12.020
37965SOL    HW215793   2.501   9.051  12.103
37966SOL     OW15794   8.593  11.129   0.504
37966SOL    HW115795   8.531  11.192   0.467
37966SOL    HW215796   8.662  11.122   0.438
37967SOL     OW15797   5.974   9.402   6.093
37967SOL    HW115798   6.044   9.380   6.154
37967SOL    HW215799   5.910   9.331   6.104
37968SOL     OW15800  12.227   0.132  13.424
37968SOL    HW115801  12.308   0.146  13.376
37968SOL    HW215802  12.190   0.219  13.437
37969SOL     OW15803   0.139   0.390  12.928
37969SOL    HW115804   0.109   0.343  12.850
37969SOL    HW215805   0.129   0.327  12.999
37970SOL     OW15806  13.003  10.928   0.715
37970SOL    HW115807  13.024  10.872   0.791
37970SOL    HW215808  12.915  10.961   0.733
37971SOL     OW15809   2.692   1.691  14.580
37971SOL    HW115810   2.639   1.611  14.583
37971SOL    HW215811   2.679   1.732  14.666
37972SOL     OW15812   9.680   6.403   0.074
37972SOL    HW115813   9.710   6.330   0.129
37972SOL    HW215814   9.641   6.465   0.136
37973SOL     OW15815   5.348   4.328   7.926
37973SOL    HW115816   5.362   4.422   7.940
37973SOL    HW215817   5.421   4.301   7.871
37974SOL     OW15818   3.079  10.642   7.575
37974SOL    HW115819   3.144  10.625   7.643
37974SOL    HW215820   2.995  10.633   7.620
37975SOL     OW15821  13.476   8.608   4.679
37975SOL    HW115822  13.525   8.677   4.725
37975SOL    HW215823  13.473   8.536   4.742
37976SOL     OW15824  11.727  11.350   9.659
37976SOL    HW115825  11.681  11.307   9.586
37976SOL    HW215826  11.683  11.318   9.737
37977SOL     OW15827   9.211   6.658   1.720
37977SOL    HW115828   9.201   6.600   1.795
37977SOL    HW215829   9.220   6.599   1.645
37978SOL     OW15830   9.799   3.808   8.107
37978SOL    HW115831   9.785   3.738   8.043
37978SOL    HW215832   9.894   3.817   8.112
37979SOL     OW15833  13.198   2.711  10.692
37979SOL    HW115834  13.259   2.693  10.763
37979SOL    HW215835  13.154   2.628  10.675
37980SOL     OW15836   1.354  14.856  10.097
37980SOL    HW115837   1.377  14.826  10.185
37980SOL    HW215838   1.261  14.837  10.089
37981SOL     OW15839   3.898   9.658  11.816
37981SOL    HW115840   3.822   9.637  11.763
37981SOL    HW215841   3.872   9.735  11.867
37982SOL     OW15842  10.363   1.934   6.315
37982SOL    HW115843  10.271   1.948   6.337
37982SOL    HW215844  10.389   2.012   6.267
37983SOL     OW15845  12.184   1.544   9.989
37983SOL    HW115846  12.197   1.612  10.055
37983SOL    HW215847  12.105   1.572   9.941
37984SOL     OW15848   1.120   6.823   9.347
37984SOL    HW115849   1.071   6.741   9.351
37984SOL    HW215850   1.110   6.861   9.434
37985SOL     OW15851   8.851   3.861   9.010
37985SOL    HW115852   8.883   3.898   8.928
37985SOL    HW215853   8.864   3.767   9.000
37986SOL     OW15854   4.311  11.697   7.505
37986SOL    HW115855   4.289  11.774   7.451
37986SOL    HW215856   4.367  11.644   7.449
37987SOL     OW15857   3.048  11.668   1.555
37987SOL    HW115858   3.113  11.728   1.592
37987SOL    HW215859   3.086  11.581   1.566
37988SOL     OW15860   3.970   4.316  11.664
37988SOL    HW115861   3.917   4.273  11.731
37988SOL    HW215862   4.054   4.272  11.667
37989SOL     OW15863   0.747   7.521   3.166
37989SOL    HW115864   0.787   7.489   3.246
37989SOL    HW215865   0.799   7.598   3.142
37990SOL     OW15866   7.490  12.581   1.202
37990SOL    HW115867   7.540  12.611   1.126
37990SOL    HW215868   7.416  12.534   1.165
37991SOL     OW15869   9.960  12.500   8.999
37991SOL    HW115870  10.037  12.556   8.986
37991SOL    HW215871   9.995  12.412   9.006
37992SOL     OW15872   1.966  10.205   2.608
37992SOL    HW115873   1.944  10.284   2.558
37992SOL    HW215874   1.922  10.218   2.692
37993SOL     OW15875  12.518  11.418   8.740
37993SOL    HW115876  12.510  11.482   8.810
37993SOL    HW215877  12.428  11.389   8.725
37994SOL     OW15878   9.424   2.111  10.934
37994SOL    HW115879   9.478   2.033  10.952
37994SOL    HW215880   9.435   2.126  10.840
37995SOL     OW15881  14.110   0.623  13.063
37995SOL    HW115882  14.088   0.714  13.047
37995SOL    HW215883  14.197   0.625  13.103
37996SOL     OW15884   3.000   2.883   5.276
37996SOL    HW115885   2.932   2.918   5.219
37996SOL    HW215886   3.024   2.799   5.236
37997SOL     OW15887  10.957   5.398   7.624
37997SOL    HW115888  10.892   5.445   7.677
37997SOL    HW215889  10.944   5.306   7.645
37998SOL     OW15890  10.563  10.904   9.351
37998SOL    HW115891  10.490  10.855   9.389
37998SOL    HW215892  10.527  10.991   9.335
37999SOL     OW15893   3.456  10.385  13.676
37999SOL    HW115894   3.515  10.420  13.743
37999SOL    HW215895   3.385  10.449  13.671
38000SOL     OW15896   1.081   6.427  10.406
38000SOL    HW115897   1.166   6.391  10.384
38000SOL    HW215898   1.095   6.471  10.490
38001SOL     OW15899   5.999   3.370   0.728
38001SOL    HW115900   6.015   3.443   0.787
38001SOL    HW215901   5.944   3.310   0.779
38002SOL     OW15902   7.978  14.552   7.871
38002SOL    HW115903   8.026  14.622   7.916
38002SOL    HW215904   7.983  14.575   7.779
38003SOL     OW15905   8.184   4.494   3.057
38003SOL    HW115906   8.195   4.585   3.032
38003SOL    HW215907   8.124   4.496   3.132
38004SOL     OW15908   3.715   5.231  11.008
38004SOL    HW115909   3.629   5.225  10.966
38004SOL    HW215910   3.698   5.270  11.093
38005SOL     OW15911   3.364   6.279   3.164
38005SOL    HW115912   3.370   6.269   3.259
38005SOL    HW215913   3.447   6.318   3.138
38006SOL     OW15914  10.910  14.741  13.492
38006SOL    HW115915  10.819  14.742  13.462
38006SOL    HW215916  10.904  14.718  13.585
38007SOL     OW15917   9.806  11.992   0.014
38007SOL    HW115918   9.864  12.011  14.822
38007SOL    HW215919   9.726  12.040  14.876
38008SOL     OW15920   1.694  14.856   6.070
38008SOL    HW115921   1.625  14.828   6.010
38008SOL    HW215922   1.698  14.786   6.135
38009SOL     OW15923  12.674  13.146   2.187
38009SOL    HW115924  12.584  13.143   2.155
38009SOL    HW215925  12.694  13.240   2.193
38010SOL     OW15926   3.054   7.960   9.385
38010SOL    HW115927   3.118   7.928   9.321
38010SOL    HW215928   3.107   7.994   9.457
38011SOL     OW15929   6.740   2.256  13.524
38011SOL    HW115930   6.826   2.219  13.502
38011SOL    HW215931   6.703   2.280  13.439
38012SOL     OW15932   0.575   4.662   5.892
38012SOL    HW115933   0.493   4.694   5.855
38012SOL    HW215934   0.626   4.633   5.816
38013SOL     OW15935  13.288  10.211   8.089
38013SOL    HW115936  13.358  10.252   8.139
38013SOL    HW215937  13.208  10.255   8.118
38014SOL     OW15938   0.279   2.300   1.294
38014SOL    HW115939   0.349   2.365   1.290
38014SOL    HW215940   0.321   2.220   1.326
38015SOL     OW15941  10.051   0.569   3.711
38015SOL    HW115942  10.108   0.545   3.784
38015SOL    HW215943  10.048   0.665   3.713
38016SOL     OW15944   3.919   9.109  13.426
38016SOL    HW115945   3.986   9.154  13.375
38016SOL    HW215946   3.888   9.174  13.489
38017SOL     OW15947   3.042   9.352   1.141
38017SOL    HW115948   3.013   9.404   1.067
38017SOL    HW215949   2.972   9.288   1.156
38018SOL     OW15950  10.779  14.848   8.930
38018SOL    HW115951  10.779  14.756   8.903
38018SOL    HW215952  10.797   0.014   8.850
38019SOL     OW15953  12.305  10.026   1.295
38019SOL    HW115954  12.328  10.033   1.388
38019SOL    HW215955  12.390  10.026   1.250
38020SOL     OW15956   2.003   8.023   5.344
38020SOL    HW115957   1.992   8.111   5.308
38020SOL    HW215958   1.980   8.032   5.437
38021SOL     OW15959  14.812  13.847  12.389
38021SOL    HW115960  14.769  13.856  12.474
38021SOL    HW215961  14.868  13.924  12.382
38022SOL     OW15962  10.394  13.709  13.977
38022SOL    HW115963  10.424  13.618  13.970
38022SOL    HW215964  10.437  13.742  14.056
38023SOL     OW15965   2.886  10.616   9.180
38023SOL    HW115966   2.802  10.576   9.201
38023SOL    HW215967   2.912  10.575   9.097
38024SOL     OW15968   4.363   3.846  10.036
38024SOL    HW115969   4.313   3.817  10.112
38024SOL    HW215970   4.331   3.935  10.020
38025SOL     OW15971   4.035  10.248   5.135
38025SOL    HW115972   3.979  10.255   5.058
38025SOL    HW215973   3.994  10.305   5.200
38026SOL     OW15974   3.486   7.377   6.362
38026SOL    HW115975   3.461   7.285   6.352
38026SOL    HW215976   3.582   7.376   6.365
38027SOL     OW15977  10.362   6.750   5.428
38027SOL    HW115978  10.409   6.827   5.460
38027SOL    HW215979  10.334   6.774   5.339
38028SOL     OW15980   5.528  12.231   1.974
38028SOL    HW115981   5.510  12.154   2.027
38028SOL    HW215982   5.623  12.235   1.968
38029SOL     OW15983   8.604   4.678   9.857
38029SOL    HW115984   8.669   4.703   9.792
38029SOL    HW215985   8.530   4.643   9.806
38030SOL     OW15986   7.287   9.766   2.636
38030SOL    HW115987   7.352   9.805   2.579
38030SOL    HW215988   7.240   9.841   2.674
38031SOL     OW15989  13.624   7.441   9.368
38031SOL    HW115990  13.570   7.387   9.309
38031SOL    HW215991  13.560   7.491   9.420
38032SOL     OW15992   0.040   3.912   1.997
38032SOL    HW115993   0.034   3.994   1.949
38032SOL    HW215994  14.834   3.876   1.995
38033SOL     OW15995   3.779  13.389   6.870
38033SOL    HW115996   3.859  13.344   6.841
38033SOL    HW215997   3.806  13.480   6.882
38034SOL     OW15998  11.653   6.849   2.061
38034SOL    HW115999  11.714   6.814   1.996
38034SOL    HW216000  11.641   6.941   2.037
38035SOL     OW16001   0.188  11.772  12.522
38035SOL    HW116002   0.139  11.719  12.585
38035SOL    HW216003   0.266  11.799  12.569
38036SOL     OW16004  11.069  10.900  11.239
38036SOL    HW116005  11.149  10.902  11.186
38036SOL    HW216006  11.054  10.991  11.263
38037SOL     OW16007   5.718   0.584   2.287
38037SOL    HW116008   5.789   0.538   2.243
38037SOL    HW216009   5.710   0.666   2.239
38038SOL     OW16010  10.200  11.629   3.916
38038SOL    HW116011  10.219  11.678   3.996
38038SOL    HW216012  10.222  11.539   3.937
38039SOL     OW16013   9.265   9.496   2.486
38039SOL    HW116014   9.352   9.473   2.519
38039SOL    HW216015   9.213   9.513   2.565
38040SOL     OW16016   1.166   4.505  13.490
38040SOL    HW116017   1.208   4.444  13.429
38040SOL    HW216018   1.151   4.584  13.439
38041SOL     OW16019   0.123  10.755   7.989
38041SOL    HW116020   0.063  10.824   7.961
38041SOL    HW216021   0.166  10.790   8.067
38042SOL     OW16022   0.409   1.098   3.702
38042SOL    HW116023   0.446   1.181   3.674
38042SOL    HW216024   0.326   1.121   3.745
38043SOL     OW16025  12.764  13.339  11.149
38043SOL    HW116026  12.775  13.413  11.089
38043SOL    HW216027  12.670  13.325  11.154
38044SOL     OW16028   5.489   4.054   5.228
38044SOL    HW116029   5.577   4.058   5.266
38044SOL    HW216030   5.430   4.053   5.304
38045SOL     OW16031  12.573   0.258   2.154
38045SOL    HW116032  12.536   0.213   2.078
38045SOL    HW216033  12.601   0.344   2.121
38046SOL     OW16034   2.055  12.000  12.360
38046SOL    HW116035   2.014  11.933  12.305
38046SOL    HW216036   2.149  11.993  12.341
38047SOL     OW16037   7.885   2.902   6.297
38047SOL    HW116038   7.978   2.884   6.286
38047SOL    HW216039   7.841   2.821   6.271
38048SOL     OW16040   3.796  11.087   6.699
38048SOL    HW116041   3.742  11.010   6.680
38048SOL    HW216042   3.737  11.162   6.685
38049SOL     OW16043  12.264   3.420   5.106
38049SOL    HW116044  12.195   3.476   5.143
38049SOL    HW216045  12.324   3.482   5.064
38050SOL     OW16046   0.255   7.229   3.712
38050SOL    HW116047   0.301   7.214   3.794
38050SOL    HW216048   0.166   7.195   3.727
38051SOL     OW16049   5.895  13.977   0.278
38051SOL    HW116050   5.852  14.031   0.212
38051SOL    HW216051   5.958  14.035   0.321
38052SOL     OW16052   9.433   1.141  13.751
38052SOL    HW116053   9.472   1.061  13.787
38052SOL    HW216054   9.342   1.116  13.733
38053SOL     OW16055   9.939   7.295  14.434
38053SOL    HW116056  10.025   7.254  14.427
38053SOL    HW216057   9.877   7.225  14.413
38054SOL     OW16058   1.393   5.200   1.664
38054SOL    HW116059   1.433   5.259   1.728
38054SOL    HW216060   1.464   5.182   1.602
38055SOL     OW16061  12.902   2.506   1.292
38055SOL    HW116062  12.901   2.444   1.220
38055SOL    HW216063  12.980   2.483   1.342
38056SOL     OW16064   9.950   2.417  13.136
38056SOL    HW116065   9.921   2.497  13.091
38056SOL    HW216066   9.896   2.413  13.215
38057SOL     OW16067   1.639  10.625   6.772
38057SOL    HW116068   1.678  10.605   6.858
38057SOL    HW216069   1.566  10.684   6.793
38058SOL     OW16070   3.627   5.390   6.885
38058SOL    HW116071   3.670   5.457   6.831
38058SOL    HW216072   3.635   5.422   6.974
38059SOL     OW16073   3.194   9.431   7.475
38059SOL    HW116074   3.124   9.367   7.489
38059SOL    HW216075   3.170   9.506   7.529
38060SOL     OW16076   6.766   7.541   1.975
38060SOL    HW116077   6.677   7.548   2.008
38060SOL    HW216078   6.776   7.449   1.950
38061SOL     OW16079   0.476   9.552  11.516
38061SOL    HW116080   0.433   9.481  11.470
38061SOL    HW216081   0.541   9.509  11.572
38062SOL     OW16082   7.570  12.565  11.616
38062SOL    HW116083   7.583  12.623  11.690
38062SOL    HW216084   7.658  12.552  11.579
38063SOL     OW16085   1.296   2.402   3.196
38063SOL    HW116086   1.293   2.310   3.170
38063SOL    HW216087   1.316   2.399   3.290
38064SOL     OW16088   9.323   0.259  14.392
38064SOL    HW116089   9.343   0.204  14.467
38064SOL    HW216090   9.403   0.308  14.376
38065SOL     OW16091   9.574   2.754  11.093
38065SOL    HW116092   9.481   2.772  11.101
38065SOL    HW216093   9.580   2.687  11.026
38066SOL     OW16094  14.655   4.434   9.045
38066SOL    HW116095  14.727   4.438   9.107
38066SOL    HW216096  14.625   4.524   9.035
38067SOL     OW16097   2.390   3.332  10.138
38067SOL    HW116098   2.450   3.344  10.064
38067SOL    HW216099   2.408   3.406  10.196
38068SOL     OW16100   2.082   5.996   7.081
38068SOL    HW116101   2.017   5.967   7.017
38068SOL    HW216102   2.032   6.037   7.150
38069SOL     OW16103   4.332   4.641   1.086
38069SOL    HW116104   4.239   4.619   1.080
38069SOL    HW216105   4.369   4.608   1.005
38070SOL     OW16106   7.356   4.203   4.093
38070SOL    HW116107   7.340   4.111   4.114
38070SOL    HW216108   7.391   4.241   4.174
38071SOL     OW16109  14.244  12.058   0.774
38071SOL    HW116110  14.161  12.027   0.810
38071SOL    HW216111  14.276  12.122   0.838
38072SOL     OW16112  11.974  13.305  14.822
38072SOL    HW116113  11.897  13.290  14.877
38072SOL    HW216114  12.007  13.391  14.850
38073SOL     OW16115   6.577   2.137   0.056
38073SOL    HW116116   6.598   2.208   0.116
38073SOL    HW216117   6.620   2.161  14.856
38074SOL     OW16118   5.635   0.802  13.270
38074SOL    HW116119   5.688   0.746  13.213
38074SOL    HW216120   5.699   0.852  13.320
38075SOL     OW16121   6.276   9.819   6.215
38075SOL    HW116122   6.291   9.732   6.178
38075SOL    HW216123   6.284   9.806   6.309
38076SOL     OW16124   4.525   8.926  10.172
38076SOL    HW116125   4.547   8.991  10.238
38076SOL    HW216126   4.489   8.977  10.099
38077SOL     OW16127  10.287  11.192  12.470
38077SOL    HW116128  10.336  11.110  12.465
38077SOL    HW216129  10.196  11.164  12.482
38078SOL     OW16130   1.414   9.117  10.431
38078SOL    HW116131   1.462   9.041  10.396
38078SOL    HW216132   1.324   9.085  10.441
38079SOL     OW16133   7.121   8.500   7.982
38079SOL    HW116134   7.098   8.559   7.910
38079SOL    HW216135   7.041   8.493   8.034
38080SOL     OW16136   9.845   9.075   2.277
38080SOL    HW116137   9.796   9.132   2.217
38080SOL    HW216138   9.902   9.024   2.220
38081SOL     OW16139  10.275   8.772   4.823
38081SOL    HW116140  10.312   8.688   4.850
38081SOL    HW216141  10.188   8.774   4.861
38082SOL     OW16142   7.957   7.274   3.912
38082SOL    HW116143   7.903   7.267   3.833
38082SOL    HW216144   7.898   7.254   3.984
38083SOL     OW16145   8.836   4.852   3.519
38083SOL    HW116146   8.899   4.784   3.493
38083SOL    HW216147   8.815   4.898   3.438
38084SOL     OW16148   8.256  14.000  10.941
38084SOL    HW116149   8.176  14.001  10.889
38084SOL    HW216150   8.324  13.970  10.880
38085SOL     OW16151  14.228  13.663   1.440
38085SOL    HW116152  14.251  13.625   1.524
38085SOL    HW216153  14.287  13.621   1.377
38086SOL     OW16154   0.340   0.396   6.913
38086SOL    HW116155   0.299   0.403   6.999
38086SOL    HW216156   0.270   0.366   6.855
38087SOL     OW16157   0.493   0.194   0.949
38087SOL    HW116158   0.465   0.226   1.035
38087SOL    HW216159   0.458   0.105   0.944
38088SOL     OW16160   5.893   1.128   8.187
38088SOL    HW116161   5.857   1.180   8.114
38088SOL    HW216162   5.974   1.173   8.211
38089SOL     OW16163   1.899   9.119  12.188
38089SOL    HW116164   1.970   9.149  12.246
38089SOL    HW216165   1.943   9.063  12.124
38090SOL     OW16166   0.656  10.729   6.861
38090SOL    HW116167   0.623  10.809   6.819
38090SOL    HW216168   0.605  10.722   6.942
38091SOL     OW16169   4.549   8.987  11.959
38091SOL    HW116170   4.480   9.027  11.906
38091SOL    HW216171   4.576   9.056  12.019
38092SOL     OW16172  10.338   4.267   9.694
38092SOL    HW116173  10.381   4.276   9.779
38092SOL    HW216174  10.269   4.203   9.708
38093SOL     OW16175  12.861  14.734   4.523
38093SOL    HW116176  12.930  14.744   4.458
38093SOL    HW216177  12.857  14.640   4.540
38094SOL     OW16178  13.647   7.772  12.338
38094SOL    HW116179  13.577   7.835  12.322
38094SOL    HW216180  13.718   7.799  12.279
38095SOL     OW16181   2.157  14.618  14.878
38095SOL    HW116182   2.075  14.616  14.830
38095SOL    HW216183   2.220  14.657  14.817
38096SOL     OW16184  12.148  11.039   0.377
38096SOL    HW116185  12.141  11.104   0.307
38096SOL    HW216186  12.068  11.052   0.429
38097SOL     OW16187  11.665   0.601  11.166
38097SOL    HW116188  11.699   0.579  11.079
38097SOL    HW216189  11.590   0.544  11.177
38098SOL     OW16190  10.277   7.464   9.792
38098SOL    HW116191  10.185   7.492   9.788
38098SOL    HW216192  10.327   7.544   9.775
38099SOL     OW16193   3.165   4.955   3.486
38099SOL    HW116194   3.208   4.991   3.563
38099SOL    HW216195   3.222   4.977   3.413
38100SOL     OW16196   8.670  12.880   8.494
38100SOL    HW116197   8.639  12.957   8.448
38100SOL    HW216198   8.613  12.873   8.571
38101SOL     OW16199   5.584   4.316   6.692
38101SOL    HW116200   5.523   4.389   6.704
38101SOL    HW216201   5.582   4.298   6.598
38102SOL     OW16202  13.311  11.069   8.951
38102SOL    HW116203  13.267  10.985   8.964
38102SOL    HW216204  13.369  11.054   8.876
38103SOL     OW16205   6.620   4.452   8.636
38103SOL    HW116206   6.651   4.375   8.683
38103SOL    HW216207   6.619   4.425   8.544
38104SOL     OW16208   9.431   0.700  13.082
38104SOL    HW116209   9.366   0.698  13.011
38104SOL    HW216210   9.382   0.678  13.160
38105SOL     OW16211   5.425   5.865  12.643
38105SOL    HW116212   5.343   5.821  12.667
38105SOL    HW216213   5.402   5.914  12.564
38106SOL     OW16214   1.382   6.490   3.400
38106SOL    HW116215   1.323   6.507   3.474
38106SOL    HW216216   1.333   6.430   3.344
38107SOL     OW16217  11.818   2.731  14.348
38107SOL    HW116218  11.857   2.648  14.321
38107SOL    HW216219  11.752   2.749  14.281
38108SOL     OW16220  13.201   8.361   1.674
38108SOL    HW116221  13.109   8.336   1.684
38108SOL    HW216222  13.244   8.325   1.751
38109SOL     OW16223   7.722  13.383  11.692
38109SOL    HW116224   7.770  13.451  11.738
38109SOL    HW216225   7.694  13.424  11.610
38110SOL     OW16226   2.990   3.444   5.187
38110SOL    HW116227   2.988   3.440   5.283
38110SOL    HW216228   2.932   3.373   5.159
38111SOL     OW16229   5.577   8.691  12.099
38111SOL    HW116230   5.589   8.708  12.006
38111SOL    HW216231   5.545   8.774  12.134
38112SOL     OW16232   8.471   2.612  11.456
38112SOL    HW116233   8.466   2.561  11.536
38112SOL    HW216234   8.416   2.565  11.393
38113SOL     OW16235   4.801   7.970   6.829
38113SOL    HW116236   4.789   8.033   6.757
38113SOL    HW216237   4.840   8.022   6.899
38114SOL     OW16238   5.570  10.437   4.049
38114SOL    HW116239   5.642  10.378   4.030
38114SOL    HW216240   5.577  10.506   3.984
38115SOL     OW16241   3.258   0.934  11.732
38115SOL    HW116242   3.296   0.901  11.814
38115SOL    HW216243   3.331   0.937  11.671
38116SOL     OW16244   8.434  13.069  12.845
38116SOL    HW116245   8.487  13.146  12.823
38116SOL    HW216246   8.479  13.029  12.919
38117SOL     OW16247   8.444  12.961  10.849
38117SOL    HW116248   8.519  12.926  10.800
38117SOL    HW216249   8.474  12.964  10.940
38118SOL     OW16250  13.272  13.647  10.905
38118SOL    HW116251  13.212  13.648  10.830
38118SOL    HW216252  13.215  13.659  10.981
38119SOL     OW16253   6.465   0.209  13.917
38119SOL    HW116254   6.376   0.217  13.950
38119SOL    HW216255   6.516   0.272  13.968
38120SOL     OW16256  11.284  10.368   0.299
38120SOL    HW116257  11.379  10.379   0.303
38120SOL    HW216258  11.263  10.314   0.375
38121SOL     OW16259   1.918  10.435   2.477
38121SOL    HW116260   1.864  10.494   2.425
38121SOL    HW216261   1.959  10.491   2.543
38122SOL     OW16262  12.347   8.137   3.036
38122SOL    HW116263  12.322   8.084   2.960
38122SOL    HW216264  12.404   8.080   3.088
38123SOL     OW16265  10.524  14.199   6.409
38123SOL    HW116266  10.575  14.122   6.386
38123SOL    HW216267  10.469  14.170   6.482
38124SOL     OW16268   4.674   8.158  11.896
38124SOL    HW116269   4.590   8.160  11.850
38124SOL    HW216270   4.736   8.197  11.834
38125SOL     OW16271   1.906   0.701  14.772
38125SOL    HW116272   1.920   0.622  14.721
38125SOL    HW216273   1.812   0.699  14.794
38126SOL     OW16274   4.299  10.012  11.323
38126SOL    HW116275   4.235   9.943  11.343
38126SOL    HW216276   4.287  10.076  11.393
38127SOL     OW16277   2.744   8.821   3.180
38127SOL    HW116278   2.730   8.739   3.133
38127SOL    HW216279   2.667   8.873   3.161
38128SOL     OW16280   6.920   6.273   9.102
38128SOL    HW116281   7.007   6.295   9.068
38128SOL    HW216282   6.924   6.178   9.116
38129SOL     OW16283   3.164   0.034   1.267
38129SOL    HW116284   3.170   0.110   1.325
38129SOL    HW216285   3.108  14.855   1.314
38130SOL     OW16286  10.355   2.735   2.671
38130SOL    HW116287  10.414   2.660   2.682
38130SOL    HW216288  10.318   2.749   2.758
38131SOL     OW16289  14.760   7.522   0.469
38131SOL    HW116290  14.820   7.448   0.464
38131SOL    HW216291  14.715   7.523   0.385
38132SOL     OW16292   3.858   2.805   3.223
38132SOL    HW116293   3.851   2.897   3.247
38132SOL    HW216294   3.772   2.769   3.243
38133SOL     OW16295  12.075  11.920   5.610
38133SOL    HW116296  12.056  11.968   5.529
38133SOL    HW216297  11.994  11.875   5.632
38134SOL     OW16298  12.448   9.779  14.543
38134SOL    HW116299  12.453   9.686  14.520
38134SOL    HW216300  12.470   9.825  14.463
38135SOL     OW16301  11.264   9.170  10.822
38135SOL    HW116302  11.242   9.250  10.869
38135SOL    HW216303  11.221   9.179  10.737
38136SOL     OW16304   6.432   3.042   2.155
38136SOL    HW116305   6.370   3.005   2.217
38136SOL    HW216306   6.381   3.107   2.106
38137SOL     OW16307  13.324   3.523   5.401
38137SOL    HW116308  13.298   3.459   5.467
38137SOL    HW216309  13.409   3.493   5.370
38138SOL     OW16310  11.243   5.704   8.817
38138SOL    HW116311  11.245   5.641   8.890
38138SOL    HW216312  11.331   5.741   8.815
38139SOL     OW16313   8.096   4.711  11.032
38139SOL    HW116314   8.179   4.681  10.996
38139SOL    HW216315   8.099   4.684  11.124
38140SOL     OW16316  11.773  13.372  12.301
38140SOL    HW116317  11.679  13.358  12.296
38140SOL    HW216318  11.812  13.295  12.260
38141SOL     OW16319   8.906   4.385   3.632
38141SOL    HW116320   8.941   4.396   3.721
38141SOL    HW216321   8.967   4.323   3.591
38142SOL     OW16322  11.179  12.228   6.428
38142SOL    HW116323  11.161  12.308   6.380
38142SOL    HW216324  11.115  12.229   6.500
38143SOL     OW16325   5.086   1.677   0.440
38143SOL    HW116326   5.098   1.651   0.348
38143SOL    HW216327   4.991   1.682   0.450
38144SOL     OW16328  12.319  13.246   7.411
38144SOL    HW116329  12.404  13.285   7.388
38144SOL    HW216330  12.329  13.218   7.502
38145SOL     OW16331  13.354  14.337   0.685
38145SOL    HW116332  13.427  14.325   0.625
38145SOL    HW216333  13.339  14.432   0.687
38146SOL     OW16334   0.279   1.417   9.078
38146SOL    HW116335   0.297   1.497   9.029
38146SOL    HW216336   0.267   1.447   9.169
38147SOL     OW16337  12.693   8.430   0.966
38147SOL    HW116338  12.698   8.482   1.046
38147SOL    HW216339  12.739   8.481   0.900
38148SOL     OW16340  12.138   5.230   6.364
38148SOL    HW116341  12.116   5.323   6.361
38148SOL    HW216342  12.234   5.228   6.354
38149SOL     OW16343  11.045   0.574   0.013
38149SOL    HW116344  10.977   0.628   0.054
38149SOL    HW216345  11.113   0.636  14.869
38150SOL     OW16346  10.002   7.806   9.603
38150SOL    HW116347  10.095   7.812   9.625
38150SOL    HW216348   9.970   7.896   9.611
38151SOL     OW16349  10.998   0.511   2.592
38151SOL    HW116350  10.996   0.419   2.618
38151SOL    HW216351  11.086   0.540   2.617
38152SOL     OW16352   0.680  13.176  11.364
38152SOL    HW116353   0.614  13.241  11.340
38152SOL    HW216354   0.648  13.139  11.446
38153SOL     OW16355   1.103  14.203  12.406
38153SOL    HW116356   1.177  14.143  12.398
38153SOL    HW216357   1.111  14.240  12.493
38154SOL     OW16358   1.298  14.220  11.791
38154SOL    HW116359   1.373  14.221  11.850
38154SOL    HW216360   1.284  14.312  11.768
38155SOL     OW16361   0.404   2.290   5.067
38155SOL    HW116362   0.449   2.308   4.984
38155SOL    HW216363   0.379   2.376   5.100
38156SOL     OW16364  10.601   3.684   3.838
38156SOL    HW116365  10.619   3.610   3.780
38156SOL    HW216366  10.522   3.725   3.802
38157SOL     OW16367   7.838   5.896  12.523
38157SOL    HW116368   7.779   5.881  12.449
38157SOL    HW216369   7.812   5.981  12.557
38158SOL     OW16370  14.330   7.926   4.253
38158SOL    HW116371  14.241   7.891   4.258
38158SOL    HW216372  14.385   7.849   4.242
38159SOL     OW16373   4.572   2.957   6.537
38159SOL    HW116374   4.580   2.936   6.444
38159SOL    HW216375   4.478   2.951   6.555
38160SOL     OW16376  11.399  12.184   5.358
38160SOL    HW116377  11.339  12.113   5.379
38160SOL    HW216378  11.470  12.143   5.308
38161SOL     OW16379   3.800   7.926  14.875
38161SOL    HW116380   3.813   8.004   0.048
38161SOL    HW216381   3.874   7.869   0.015
38162SOL     OW16382   0.921   4.448   9.903
38162SOL    HW116383   0.887   4.363   9.934
38162SOL    HW216384   0.959   4.428   9.818
38163SOL     OW16385  12.699  13.651  10.078
38163SOL    HW116386  12.617  13.627  10.121
38163SOL    HW216387  12.763  13.588  10.112
38164SOL     OW16388   8.307   5.274   2.050
38164SOL    HW116389   8.224   5.289   2.096
38164SOL    HW216390   8.302   5.182   2.022
38165SOL     OW16391   2.598  14.245  10.434
38165SOL    HW116392   2.539  14.309  10.473
38165SOL    HW216393   2.667  14.298  10.394
38166SOL     OW16394  11.206  14.032   3.430
38166SOL    HW116395  11.145  14.089   3.383
38166SOL    HW216396  11.177  13.943   3.409
38167SOL     OW16397  12.631  13.295  13.179
38167SOL    HW116398  12.541  13.312  13.152
38167SOL    HW216399  12.684  13.312  13.101
38168SOL     OW16400  12.576   0.367   8.449
38168SOL    HW116401  12.658   0.318   8.443
38168SOL    HW216402  12.599   0.448   8.493
38169SOL     OW16403   9.193  13.719   1.019
38169SOL    HW116404   9.113  13.771   1.027
38169SOL    HW216405   9.173  13.636   1.061
38170SOL     OW16406   1.151  10.102  13.496
38170SOL    HW116407   1.121  10.124  13.408
38170SOL    HW216408   1.204  10.178  13.522
38171SOL     OW16409   1.601   6.931   1.124
38171SOL    HW116410   1.662   6.914   1.197
38171SOL    HW216411   1.622   7.021   1.097
38172SOL     OW16412  11.640   1.197   3.152
38172SOL    HW116413  11.653   1.290   3.166
38172SOL    HW216414  11.615   1.163   3.238
38173SOL     OW16415   1.289  10.154   3.331
38173SOL    HW116416   1.212  10.101   3.309
38173SOL    HW216417   1.340  10.099   3.390
38174SOL     OW16418   0.733   8.509  11.580
38174SOL    HW116419   0.715   8.438  11.518
38174SOL    HW216420   0.750   8.465  11.663
38175SOL     OW16421   5.833  13.613   4.886
38175SOL    HW116422   5.924  13.632   4.907
38175SOL    HW216423   5.784  13.636   4.965
38176SOL     OW16424  11.758   5.273  13.611
38176SOL    HW116425  11.748   5.180  13.629
38176SOL    HW216426  11.852   5.290  13.618
38177SOL     OW16427   2.228   0.318   8.102
38177SOL    HW116428   2.270   0.233   8.088
38177SOL    HW216429   2.212   0.352   8.014
38178SOL     OW16430   0.249   6.836   4.672
38178SOL    HW116431   0.188   6.910   4.668
38178SOL    HW216432   0.235   6.798   4.759
38179SOL     OW16433  10.361  11.431   0.408
38179SOL    HW116434  10.371  11.469   0.496
38179SOL    HW216435  10.287  11.371   0.416
38180SOL     OW16436   9.804   3.973  13.886
38180SOL    HW116437   9.747   3.902  13.858
38180SOL    HW216438   9.767   4.051  13.845
38181SOL     OW16439   8.321  12.627  10.039
38181SOL    HW116440   8.339  12.685   9.965
38181SOL    HW216441   8.407  12.601  10.071
38182SOL     OW16442   7.810  11.498   6.688
38182SOL    HW116443   7.820  11.442   6.765
38182SOL    HW216444   7.775  11.580   6.722
38183SOL     OW16445   2.658  13.121   8.108
38183SOL    HW116446   2.574  13.106   8.150
38183SOL    HW216447   2.659  13.063   8.032
38184SOL     OW16448   1.795   9.026  13.907
38184SOL    HW116449   1.872   8.986  13.947
38184SOL    HW216450   1.722   8.970  13.933
38185SOL     OW16451  14.827  10.196  11.518
38185SOL    HW116452  14.837  10.102  11.536
38185SOL    HW216453  14.765  10.226  11.584
38186SOL     OW16454   5.809   9.364   0.562
38186SOL    HW116455   5.797   9.451   0.524
38186SOL    HW216456   5.731   9.315   0.537
38187SOL     OW16457  11.265   7.158   2.767
38187SOL    HW116458  11.298   7.131   2.853
38187SOL    HW216459  11.180   7.199   2.787
38188SOL     OW16460   9.480  11.808   1.577
38188SOL    HW116461   9.441  11.893   1.596
38188SOL    HW216462   9.542  11.793   1.648
38189SOL     OW16463  12.821   4.698  10.900
38189SOL    HW116464  12.864   4.783  10.914
38189SOL    HW216465  12.728   4.719  10.895
38190SOL     OW16466  13.591   4.467   7.372
38190SOL    HW116467  13.529   4.523   7.419
38190SOL    HW216468  13.598   4.388   7.425
38191SOL     OW16469   2.309   6.264   7.151
38191SOL    HW116470   2.338   6.193   7.094
38191SOL    HW216471   2.245   6.312   7.099
38192SOL     OW16472  10.820   0.233   5.257
38192SOL    HW116473  10.892   0.194   5.208
38192SOL    HW216474  10.758   0.260   5.190
38193SOL     OW16475   4.956   1.418  14.443
38193SOL    HW116476   4.896   1.475  14.395
38193SOL    HW216477   4.920   1.415  14.532
38194SOL     OW16478   8.999   5.414  11.472
38194SOL    HW116479   8.968   5.326  11.497
38194SOL    HW216480   8.979   5.421  11.379
38195SOL     OW16481   1.422   0.231  14.038
38195SOL    HW116482   1.379   0.310  14.004
38195SOL    HW216483   1.393   0.161  13.980
38196SOL     OW16484  14.568  13.008   9.648
38196SOL    HW116485  14.499  12.988   9.711
38196SOL    HW216486  14.530  12.987   9.563
38197SOL     OW16487  12.840   2.361  10.227
38197SOL    HW116488  12.851   2.366  10.322
38197SOL    HW216489  12.803   2.274  10.211
38198SOL     OW16490   4.798  13.846   0.715
38198SOL    HW116491   4.729  13.818   0.776
38198SOL    HW216492   4.879  13.816   0.755
38199SOL     OW16493   4.482   3.952   5.109
38199SOL    HW116494   4.430   3.934   5.187
38199SOL    HW216495   4.471   4.046   5.094
38200SOL     OW16496  11.064  10.336   4.880
38200SOL    HW116497  11.064  10.255   4.829
38200SOL    HW216498  11.093  10.309   4.967
38201SOL     OW16499  12.902   5.636   9.259
38201SOL    HW116500  12.961   5.570   9.296
38201SOL    HW216501  12.826   5.587   9.230
38202SOL     OW16502   0.448   9.867  14.638
38202SOL    HW116503   0.540   9.846  14.623
38202SOL    HW216504   0.401   9.788  14.614
38203SOL     OW16505   4.288  10.776   0.873
38203SOL    HW116506   4.201  10.813   0.861
38203SOL    HW216507   4.342  10.821   0.808
38204SOL     OW16508  12.336   5.704  13.519
38204SOL    HW116509  12.316   5.651  13.442
38204SOL    HW216510  12.301   5.790  13.498
38205SOL     OW16511   5.207  11.233  11.509
38205SOL    HW116512   5.226  11.195  11.423
38205SOL    HW216513   5.160  11.163  11.555
38206SOL     OW16514   9.996  12.218  10.878
38206SOL    HW116515  10.052  12.201  10.953
38206SOL    HW216516   9.926  12.274  10.911
38207SOL     OW16517   5.561   4.986  12.016
38207SOL    HW116518   5.588   5.022  11.932
38207SOL    HW216519   5.637   4.935  12.045
38208SOL     OW16520  11.981   0.417  11.832
38208SOL    HW116521  12.046   0.383  11.771
38208SOL    HW216522  11.915   0.348  11.838
38209SOL     OW16523   4.467   7.349   2.575
38209SOL    HW116524   4.473   7.350   2.670
38209SOL    HW216525   4.379   7.380   2.555
38210SOL     OW16526  13.490   3.006   5.013
38210SOL    HW116527  13.494   3.092   5.054
38210SOL    HW216528  13.404   2.971   5.037
38211SOL     OW16529   3.989   9.224   5.838
38211SOL    HW116530   3.901   9.206   5.872
38211SOL    HW216531   4.023   9.138   5.814
38212SOL     OW16532   7.165   6.235   0.884
38212SOL    HW116533   7.096   6.302   0.880
38212SOL    HW216534   7.224   6.267   0.953
38213SOL     OW16535   4.674  14.029  12.328
38213SOL    HW116536   4.740  14.098  12.332
38213SOL    HW216537   4.701  13.966  12.395
38214SOL     OW16538   7.439   4.675   3.343
38214SOL    HW116539   7.505   4.708   3.282
38214SOL    HW216540   7.384   4.617   3.290
38215SOL     OW16541  12.667   7.798  13.187
38215SOL    HW116542  12.575   7.787  13.161
38215SOL    HW216543  12.672   7.755  13.272
38216SOL     OW16544  12.969  14.262  12.454
38216SOL    HW116545  12.889  14.307  12.481
38216SOL    HW216546  12.976  14.280  12.360
38217SOL     OW16547  12.980  10.419  10.769
38217SOL    HW116548  12.907  10.458  10.817
38217SOL    HW216549  12.950  10.331  10.746
38218SOL     OW16550   4.328   5.308   3.214
38218SOL    HW116551   4.281   5.388   3.236
38218SOL    HW216552   4.340   5.264   3.298
38219SOL     OW16553  14.151  13.558   6.529
38219SOL    HW116554  14.243  13.539   6.545
38219SOL    HW216555  14.135  13.640   6.578
38220SOL     OW16556   2.818   4.603  12.941
38220SOL    HW116557   2.899   4.552  12.945
38220SOL    HW216558   2.763   4.553  12.880
38221SOL     OW16559   1.953   6.981   7.368
38221SOL    HW116560   1.895   6.906   7.355
38221SOL    HW216561   1.973   7.012   7.280
38222SOL     OW16562  11.898   2.132  10.972
38222SOL    HW116563  11.973   2.148  11.030
38222SOL    HW216564  11.843   2.071  11.022
38223SOL     OW16565  14.425   1.249   1.927
38223SOL    HW116566  14.475   1.316   1.974
38223SOL    HW216567  14.450   1.261   1.835
38224SOL     OW16568   2.345   8.213   0.571
38224SOL    HW116569   2.419   8.192   0.514
38224SOL    HW216570   2.319   8.129   0.608
38225SOL     OW16571   1.882  13.734   8.595
38225SOL    HW116572   1.891  13.814   8.646
38225SOL    HW216573   1.971  13.712   8.568
38226SOL     OW16574   9.766  10.717   7.492
38226SOL    HW116575   9.818  10.787   7.533
38226SOL    HW216576   9.782  10.729   7.398
38227SOL     OW16577   1.395   2.182  12.291
38227SOL    HW116578   1.449   2.183  12.212
38227SOL    HW216579   1.314   2.226  12.266
38228SOL     OW16580   8.381   7.696   9.977
38228SOL    HW116581   8.311   7.738  10.027
38228SOL    HW216582   8.423   7.768   9.928
38229SOL     OW16583  12.748   3.463  10.976
38229SOL    HW116584  12.713   3.521  10.908
38229SOL    HW216585  12.770   3.382  10.929
38230SOL     OW16586   8.734   9.958  14.147
38230SOL    HW116587   8.643   9.977  14.168
38230SOL    HW216588   8.742   9.977  14.053
38231SOL     OW16589   5.378  11.962   2.864
38231SOL    HW116590   5.446  12.030   2.869
38231SOL    HW216591   5.301  12.008   2.830
38232SOL     OW16592  10.939   3.250  11.892
38232SOL    HW116593  10.920   3.176  11.950
38232SOL    HW216594  11.015   3.221  11.841
38233SOL     OW16595   8.337   4.810   0.666
38233SOL    HW116596   8.392   4.830   0.590
38233SOL    HW216597   8.313   4.895   0.702
38234SOL     OW16598   9.943   8.238   1.115
38234SOL    HW116599   9.948   8.297   1.190
38234SOL    HW216600   9.899   8.290   1.047
38235SOL     OW16601   2.085   8.131   9.850
38235SOL    HW116602   2.064   8.050   9.897
38235SOL    HW216603   2.045   8.121   9.764
38236SOL     OW16604   5.381   5.646  13.356
38236SOL    HW116605   5.290   5.645  13.326
38236SOL    HW216606   5.430   5.599  13.288
38237SOL     OW16607   5.558   0.225   1.354
38237SOL    HW116608   5.581   0.267   1.437
38237SOL    HW216609   5.554   0.132   1.374
38238SOL     OW16610  12.197   8.121   8.495
38238SOL    HW116611  12.120   8.068   8.515
38238SOL    HW216612  12.169   8.176   8.422
38239SOL     OW16613   0.522  11.388   9.383
38239SOL    HW116614   0.542  11.412   9.293
38239SOL    HW216615   0.577  11.445   9.437
38240SOL     OW16616   3.409   2.670   7.666
38240SOL    HW116617   3.482   2.677   7.727
38240SOL    HW216618   3.418   2.747   7.609
38241SOL     OW16619  11.530   0.539   6.871
38241SOL    HW116620  11.613   0.527   6.824
38241SOL    HW216621  11.494   0.620   6.836
38242SOL     OW16622   4.049  10.234  14.531
38242SOL    HW116623   4.032  10.169  14.463
38242SOL    HW216624   4.083  10.310  14.484
38243SOL     OW16625   8.725   2.889   7.380
38243SOL    HW116626   8.661   2.824   7.411
38243SOL    HW216627   8.677   2.940   7.315
38244SOL     OW16628  10.174  14.047   6.406
38244SOL    HW116629  10.231  13.970   6.416
38244SOL    HW216630  10.185  14.096   6.488
38245SOL     OW16631  13.219   7.446   2.871
38245SOL    HW116632  13.186   7.473   2.786
38245SOL    HW216633  13.145   7.403   2.914
38246SOL     OW16634  11.904   4.675   0.375
38246SOL    HW116635  11.834   4.646   0.434
38246SOL    HW216636  11.858   4.710   0.299
38247SOL     OW16637  13.296   6.237   6.940
38247SOL    HW116638  13.236   6.162   6.931
38247SOL    HW216639  13.381   6.202   6.913
38248SOL     OW16640   7.651   1.840   0.231
38248SOL    HW116641   7.692   1.875   0.310
38248SOL    HW216642   7.558   1.857   0.244
38249SOL     OW16643   9.461   9.047   6.584
38249SOL    HW116644   9.462   8.952   6.568
38249SOL    HW216645   9.377   9.063   6.626
38250SOL     OW16646   9.174   5.297   6.389
38250SOL    HW116647   9.194   5.389   6.375
38250SOL    HW216648   9.225   5.251   6.323
38251SOL     OW16649   0.142  11.217  14.745
38251SOL    HW116650   0.143  11.235  14.651
38251SOL    HW216651   0.119  11.301  14.786
38252SOL     OW16652  13.989  10.934   8.825
38252SOL    HW116653  13.912  10.883   8.850
38252SOL    HW216654  13.959  11.025   8.826
38253SOL     OW16655   8.216   9.570   2.703
38253SOL    HW116656   8.293   9.623   2.683
38253SOL    HW216657   8.147   9.633   2.720
38254SOL     OW16658   0.986  12.789  14.456
38254SOL    HW116659   0.981  12.734  14.534
38254SOL    HW216660   1.077  12.816  14.451
38255SOL     OW16661   5.756   8.013  14.036
38255SOL    HW116662   5.694   7.963  13.982
38255SOL    HW216663   5.828   8.032  13.976
38256SOL     OW16664   3.582  12.748   5.050
38256SOL    HW116665   3.542  12.792   5.125
38256SOL    HW216666   3.604  12.660   5.083
38257SOL     OW16667  13.511   3.580  12.146
38257SOL    HW116668  13.528   3.486  12.134
38257SOL    HW216669  13.461   3.605  12.069
38258SOL     OW16670   2.694   8.601   1.254
38258SOL    HW116671   2.749   8.525   1.273
38258SOL    HW216672   2.756   8.670   1.228
38259SOL     OW16673  11.364   3.873   7.503
38259SOL    HW116674  11.343   3.944   7.563
38259SOL    HW216675  11.454   3.889   7.477
38260SOL     OW16676   7.254  12.797   9.922
38260SOL    HW116677   7.281  12.888   9.917
38260SOL    HW216678   7.244  12.769   9.831
38261SOL     OW16679   6.658   0.264   4.109
38261SOL    HW116680   6.732   0.315   4.142
38261SOL    HW216681   6.626   0.217   4.186
38262SOL     OW16682  10.306   0.726  12.434
38262SOL    HW116683  10.219   0.723  12.473
38262SOL    HW216684  10.353   0.652  12.473
38263SOL     OW16685   8.414   0.440   3.112
38263SOL    HW116686   8.329   0.448   3.155
38263SOL    HW216687   8.468   0.506   3.155
38264SOL     OW16688   8.024  14.347   4.556
38264SOL    HW116689   8.006  14.429   4.510
38264SOL    HW216690   8.112  14.322   4.528
38265SOL     OW16691   3.006   1.568  11.326
38265SOL    HW116692   2.999   1.642  11.267
38265SOL    HW216693   2.922   1.567  11.373
38266SOL     OW16694   5.929  12.585   0.743
38266SOL    HW116695   5.868  12.659   0.741
38266SOL    HW216696   5.884  12.520   0.797
38267SOL     OW16697  12.872   0.064   8.153
38267SOL    HW116698  12.786   0.105   8.136
38267SOL    HW216699  12.872  14.867   8.099
38268SOL     OW16700   3.081  12.793  14.550
38268SOL    HW116701   3.059  12.884  14.529
38268SOL    HW216702   3.151  12.770  14.489
38269SOL     OW16703  12.770   0.323   3.858
38269SOL    HW116704  12.765   0.411   3.821
38269SOL    HW216705  12.826   0.332   3.935
38270SOL     OW16706   4.834   4.870   3.063
38270SOL    HW116707   4.827   4.908   3.151
38270SOL    HW216708   4.754   4.899   3.019
38271SOL     OW16709  13.766  13.581  14.096
38271SOL    HW116710  13.767  13.599  14.190
38271SOL    HW216711  13.778  13.487  14.089
38272SOL     OW16712   2.860   6.537  13.855
38272SOL    HW116713   2.923   6.466  13.873
38272SOL    HW216714   2.805   6.503  13.785
38273SOL     OW16715   5.641  13.886   1.516
38273SOL    HW116716   5.689  13.892   1.599
38273SOL    HW216717   5.588  13.965   1.513
38274SOL     OW16718  13.332  11.588   9.848
38274SOL    HW116719  13.259  11.559   9.793
38274SOL    HW216720  13.311  11.556   9.936
38275SOL     OW16721   5.331  11.574  12.179
38275SOL    HW116722   5.412  11.534  12.149
38275SOL    HW216723   5.344  11.589  12.273
38276SOL     OW16724   1.190   9.780  12.892
38276SOL    HW116725   1.129   9.706  12.888
38276SOL    HW216726   1.191   9.805  12.984
38277SOL     OW16727  14.552   3.569  10.804
38277SOL    HW116728  14.593   3.507  10.865
38277SOL    HW216729  14.514   3.636  10.861
38278SOL     OW16730   9.479  12.129   4.008
38278SOL    HW116731   9.485  12.081   3.925
38278SOL    HW216732   9.546  12.089   4.063
38279SOL     OW16733  13.692   7.012   1.607
38279SOL    HW116734  13.716   7.050   1.691
38279SOL    HW216735  13.682   6.918   1.625
38280SOL     OW16736   3.135  12.163   7.440
38280SOL    HW116737   3.132  12.248   7.396
38280SOL    HW216738   3.200  12.113   7.391
38281SOL     OW16739  13.058  13.871   2.486
38281SOL    HW116740  13.043  13.778   2.468
38281SOL    HW216741  13.132  13.895   2.430
38282SOL     OW16742   8.513   8.148   4.585
38282SOL    HW116743   8.448   8.173   4.650
38282SOL    HW216744   8.546   8.064   4.615
38283SOL     OW16745   3.602   2.703   5.720
38283SOL    HW116746   3.607   2.648   5.642
38283SOL    HW216747   3.532   2.663   5.773
38284SOL     OW16748   9.128   3.380   9.874
38284SOL    HW116749   9.041   3.404   9.841
38284SOL    HW216750   9.189   3.411   9.807
38285SOL     OW16751  11.378  13.135  11.526
38285SOL    HW116752  11.297  13.132  11.476
38285SOL    HW216753  11.371  13.214  11.580
38286SOL     OW16754  14.220  11.156  14.235
38286SOL    HW116755  14.213  11.251  14.250
38286SOL    HW216756  14.253  11.121  14.318
38287SOL     OW16757  13.017  12.647  11.078
38287SOL    HW116758  12.951  12.701  11.034
38287SOL    HW216759  12.987  12.642  11.169
38288SOL     OW16760  13.773  12.999  10.526
38288SOL    HW116761  13.861  13.020  10.495
38288SOL    HW216762  13.720  12.994  10.446
38289SOL     OW16763  10.923   1.739   7.743
38289SOL    HW116764  10.833   1.739   7.776
38289SOL    HW216765  10.928   1.661   7.688
38290SOL     OW16766  10.905  11.500  12.186
38290SOL    HW116767  10.832  11.517  12.126
38290SOL    HW216768  10.969  11.568  12.165
38291SOL     OW16769   7.333  14.181   0.705
38291SOL    HW116770   7.329  14.095   0.747
38291SOL    HW216771   7.252  14.187   0.655
38292SOL     OW16772   0.185  11.972   6.678
38292SOL    HW116773   0.225  12.059   6.689
38292SOL    HW216774   0.091  11.988   6.683
38293SOL     OW16775  10.491   7.501   2.011
38293SOL    HW116776  10.404   7.539   1.999
38293SOL    HW216777  10.540   7.531   1.934
38294SOL     OW16778  10.720  14.461   4.721
38294SOL    HW116779  10.664  14.440   4.646
38294SOL    HW216780  10.774  14.383   4.734
38295SOL     OW16781  12.734   7.695   9.321
38295SOL    HW116782  12.822   7.668   9.294
38295SOL    HW216783  12.724   7.783   9.285
38296SOL     OW16784   9.060  11.292  13.540
38296SOL    HW116785   8.979  11.340  13.522
38296SOL    HW216786   9.081  11.248  13.458
38297SOL     OW16787  10.871   7.449   3.887
38297SOL    HW116788  10.797   7.436   3.827
38297SOL    HW216789  10.869   7.372   3.944
38298SOL     OW16790  11.173   6.365   9.596
38298SOL    HW116791  11.204   6.326   9.678
38298SOL    HW216792  11.107   6.305   9.564
38299SOL     OW16793   9.417   6.453  11.130
38299SOL    HW116794   9.348   6.517  11.110
38299SOL    HW216795   9.498   6.495  11.102
38300SOL     OW16796  11.762   0.364  13.267
38300SOL    HW116797  11.798   0.393  13.183
38300SOL    HW216798  11.811   0.284  13.288
38301SOL     OW16799   4.133  10.098   9.399
38301SOL    HW116800   4.048  10.130   9.432
38301SOL    HW216801   4.133  10.005   9.421
38302SOL     OW16802   1.525  10.430  12.156
38302SOL    HW116803   1.576  10.353  12.129
38302SOL    HW216804   1.464  10.445  12.083
38303SOL     OW16805  14.072   2.544   1.485
38303SOL    HW116806  13.981   2.554   1.455
38303SOL    HW216807  14.071   2.581   1.573
38304SOL     OW16808   9.846  14.258  13.576
38304SOL    HW116809   9.830  14.177  13.624
38304SOL    HW216810   9.792  14.249  13.497
38305SOL     OW16811   8.982   8.525  13.992
38305SOL    HW116812   8.905   8.469  13.981
38305SOL    HW216813   9.026   8.523  13.907
38306SOL     OW16814   3.623  12.573   8.512
38306SOL    HW116815   3.551  12.530   8.558
38306SOL    HW216816   3.582  12.612   8.434
38307SOL     OW16817   8.813   4.969  14.816
38307SOL    HW116818   8.907   4.954  14.817
38307SOL    HW216819   8.781   4.911  14.746
38308SOL     OW16820  14.184  10.697  12.910
38308SOL    HW116821  14.269  10.720  12.948
38308SOL    HW216822  14.124  10.765  12.941
38309SOL     OW16823  14.835  12.156   2.027
38309SOL    HW116824   0.038  12.125   1.996
38309SOL    HW216825  14.777  12.080   2.019
38310SOL     OW16826   3.411  14.165  12.965
38310SOL    HW116827   3.430  14.131  12.878
38310SOL    HW216828   3.488  14.141  13.017
38311SOL     OW16829   8.203  12.003   6.464
38311SOL    HW116830   8.135  11.964   6.519
38311SOL    HW216831   8.243  11.928   6.419
38312SOL     OW16832   7.039  10.482   4.871
38312SOL    HW116833   7.012  10.530   4.793
38312SOL    HW216834   7.119  10.436   4.845
38313SOL     OW16835  14.411  12.821   7.892
38313SOL    HW116836  14.369  12.784   7.970
38313SOL    HW216837  14.349  12.887   7.860
38314SOL     OW16838   3.286  10.245  10.629
38314SOL    HW116839   3.327  10.315  10.680
38314SOL    HW216840   3.226  10.202  10.690
38315SOL     OW16841   5.432   5.856   6.612
38315SOL    HW116842   5.348   5.875   6.654
38315SOL    HW216843   5.437   5.760   6.610
38316SOL     OW16844   9.529  13.988  14.689
38316SOL    HW116845   9.501  14.003  14.599
38316SOL    HW216846   9.624  14.004  14.688
38317SOL     OW16847   8.208  13.658  12.076
38317SOL    HW116848   8.151  13.720  12.123
38317SOL    HW216849   8.272  13.714  12.032
38318SOL     OW16850   8.512   1.048   5.374
38318SOL    HW116851   8.477   0.983   5.313
38318SOL    HW216852   8.447   1.118   5.375
38319SOL     OW16853  13.118   7.384   8.742
38319SOL    HW116854  13.111   7.440   8.665
38319SOL    HW216855  13.083   7.438   8.814
38320SOL     OW16856  10.433  10.150   9.929
38320SOL    HW116857  10.340  10.151   9.950
38320SOL    HW216858  10.463  10.063   9.957
38321SOL     OW16859   9.155   1.187   4.038
38321SOL    HW116860   9.193   1.253   4.096
38321SOL    HW216861   9.073   1.226   4.008
38322SOL     OW16862   1.466   6.277   6.843
38322SOL    HW116863   1.530   6.347   6.857
38322SOL    HW216864   1.395   6.320   6.794
38323SOL     OW16865   1.161   2.071   4.203
38323SOL    HW116866   1.203   2.153   4.176
38323SOL    HW216867   1.233   2.012   4.223
38324SOL     OW16868  11.089   0.895  13.445
38324SOL    HW116869  11.034   0.863  13.374
38324SOL    HW216870  11.048   0.978  13.472
38325SOL     OW16871   6.706   6.924  10.099
38325SOL    HW116872   6.687   6.858  10.033
38325SOL    HW216873   6.676   6.886  10.181
38326SOL     OW16874  10.021   5.976   2.506
38326SOL    HW116875   9.971   5.894   2.507
38326SOL    HW216876   9.963   6.038   2.461
38327SOL     OW16877   4.444  12.097  11.433
38327SOL    HW116878   4.530  12.137  11.446
38327SOL    HW216879   4.437  12.085  11.338
38328SOL     OW16880   3.266  12.278   4.487
38328SOL    HW116881   3.271  12.354   4.544
38328SOL    HW216882   3.188  12.231   4.516
38329SOL     OW16883   4.170   4.304   2.494
38329SOL    HW116884   4.176   4.347   2.579
38329SOL    HW216885   4.252   4.256   2.484
38330SOL     OW16886   6.179   2.907  14.584
38330SOL    HW116887   6.184   2.989  14.633
38330SOL    HW216888   6.110   2.922  14.519
38331SOL     OW16889   5.332   8.501  10.752
38331SOL    HW116890   5.327   8.530  10.843
38331SOL    HW216891   5.355   8.409  10.757
38332SOL     OW16892  12.632   4.209   9.873
38332SOL    HW116893  12.610   4.252   9.790
38332SOL    HW216894  12.726   4.224   9.885
38333SOL     OW16895   5.069  13.525   7.471
38333SOL    HW116896   5.006  13.510   7.400
38333SOL    HW216897   5.143  13.567   7.428
38334SOL     OW16898  11.112  10.175   6.507
38334SOL    HW116899  11.125  10.209   6.595
38334SOL    HW216900  11.104  10.253   6.451
38335SOL     OW16901   7.662  10.246   0.773
38335SOL    HW116902   7.685  10.238   0.680
38335SOL    HW216903   7.717  10.180   0.817
38336SOL     OW16904  14.474   0.579  13.359
38336SOL    HW116905  14.437   0.587  13.270
38336SOL    HW216906  14.409   0.529  13.407
38337SOL     OW16907  11.302   2.649   1.540
38337SOL    HW116908  11.287   2.643   1.635
38337SOL    HW216909  11.351   2.730   1.530
38338SOL     OW16910  11.856  12.794  13.066
38338SOL    HW116911  11.831  12.754  13.149
38338SOL    HW216912  11.941  12.834  13.084
38339SOL     OW16913   7.325   4.678   6.944
38339SOL    HW116914   7.323   4.770   6.918
38339SOL    HW216915   7.234   4.658   6.969
38340SOL     OW16916  12.372   4.872   4.100
38340SOL    HW116917  12.361   4.954   4.053
38340SOL    HW216918  12.365   4.805   4.032
38341SOL     OW16919   3.725  13.216  14.138
38341SOL    HW116920   3.668  13.234  14.063
38341SOL    HW216921   3.688  13.138  14.179
38342SOL     OW16922  11.644   1.966   9.410
38342SOL    HW116923  11.564   1.930   9.447
38342SOL    HW216924  11.712   1.903   9.433
38343SOL     OW16925   4.854   5.979   6.692
38343SOL    HW116926   4.767   5.995   6.654
38343SOL    HW216927   4.892   6.067   6.702
38344SOL     OW16928  11.273   4.680   1.425
38344SOL    HW116929  11.367   4.696   1.437
38344SOL    HW216930  11.240   4.759   1.383
38345SOL     OW16931   5.139   6.225   0.345
38345SOL    HW116932   5.145   6.190   0.434
38345SOL    HW216933   5.060   6.183   0.309
38346SOL     OW16934   8.400   0.751  14.835
38346SOL    HW116935   8.343   0.803   0.009
38346SOL    HW216936   8.347   0.732  14.757
38347SOL     OW16937  14.478  13.125  10.237
38347SOL    HW116938  14.527  13.187  10.184
38347SOL    HW216939  14.537  13.102  10.309
38348SOL     OW16940   8.666   5.619   6.144
38348SOL    HW116941   8.717   5.674   6.204
38348SOL    HW216942   8.575   5.635   6.169
38349SOL     OW16943   4.000   4.888   5.352
38349SOL    HW116944   4.076   4.938   5.322
38349SOL    HW216945   4.036   4.829   5.419
38350SOL     OW16946   5.915  13.478  14.022
38350SOL    HW116947   5.839  13.473  13.963
38350SOL    HW216948   5.877  13.499  14.108
38351SOL     OW16949  13.935   8.902  12.689
38351SOL    HW116950  13.863   8.964  12.699
38351SOL    HW216951  13.902   8.820  12.725
38352SOL     OW16952   1.894   5.868   8.460
38352SOL    HW116953   1.906   5.810   8.535
38352SOL    HW216954   1.857   5.812   8.392
38353SOL     OW16955  11.447  12.249   7.571
38353SOL    HW116956  11.380  12.196   7.528
38353SOL    HW216957  11.510  12.269   7.502
38354SOL     OW16958  13.362  12.278   8.566
38354SOL    HW116959  13.445  12.255   8.606
38354SOL    HW216960  13.337  12.360   8.608
38355SOL     OW16961   4.809   4.325   0.271
38355SOL    HW116962   4.790   4.243   0.316
38355SOL    HW216963   4.868   4.372   0.331
38356SOL     OW16964   2.994   6.141  13.614
38356SOL    HW116965   3.055   6.092  13.559
38356SOL    HW216966   2.963   6.077  13.678
38357SOL     OW16967   9.778  11.188   7.734
38357SOL    HW116968   9.719  11.225   7.799
38357SOL    HW216969   9.777  11.251   7.662
38358SOL     OW16970   2.144   1.114  10.942
38358SOL    HW116971   2.223   1.068  10.913
38358SOL    HW216972   2.177   1.192  10.985
38359SOL     OW16973  12.594   0.255  11.972
38359SOL    HW116974  12.518   0.310  11.989
38359SOL    HW216975  12.667   0.302  12.013
38360SOL     OW16976   7.875   9.476   2.931
38360SOL    HW116977   7.909   9.565   2.919
38360SOL    HW216978   7.813   9.484   3.004
38361SOL     OW16979   8.468   4.778   4.264
38361SOL    HW116980   8.553   4.782   4.220
38361SOL    HW216981   8.480   4.714   4.335
38362SOL     OW16982  12.018   9.643   4.190
38362SOL    HW116983  12.051   9.562   4.152
38362SOL    HW216984  11.962   9.680   4.122
38363SOL     OW16985   4.274  12.869  13.368
38363SOL    HW116986   4.207  12.819  13.414
38363SOL    HW216987   4.228  12.944  13.331
38364SOL     OW16988   8.861   9.894   0.844
38364SOL    HW116989   8.934   9.922   0.788
38364SOL    HW216990   8.841   9.805   0.814
38365SOL     OW16991   0.584  14.507  13.670
38365SOL    HW116992   0.649  14.437  13.664
38365SOL    HW216993   0.603  14.563  13.595
38366SOL     OW16994   8.132   6.842  12.897
38366SOL    HW116995   8.046   6.885  12.892
38366SOL    HW216996   8.187   6.893  12.837
38367SOL     OW16997   6.262   3.431  10.895
38367SOL    HW116998   6.216   3.493  10.952
38367SOL    HW216999   6.241   3.345  10.931
38368SOL     OW17000   4.986   2.120   9.296
38368SOL    HW117001   5.066   2.071   9.276
38368SOL    HW217002   4.915   2.058   9.281
38369SOL     OW17003  11.773   1.885   1.274
38369SOL    HW117004  11.769   1.974   1.309
38369SOL    HW217005  11.807   1.832   1.346
38370SOL     OW17006   2.592   9.469   2.747
38370SOL    HW117007   2.628   9.381   2.734
38370SOL    HW217008   2.659   9.528   2.713
38371SOL     OW17009   0.941   8.976  14.309
38371SOL    HW117010   0.883   8.968  14.233
38371SOL    HW217011   1.029   8.969  14.272
38372SOL     OW17012   7.542   2.612   2.097
38372SOL    HW117013   7.519   2.535   2.149
38372SOL    HW217014   7.478   2.679   2.123
38373SOL     OW17015  12.824   7.667  13.942
38373SOL    HW117016  12.732   7.680  13.963
38373SOL    HW217017  12.845   7.737  13.880
38374SOL     OW17018   2.877  11.658  12.151
38374SOL    HW117019   2.786  11.635  12.131
38374SOL    HW217020   2.929  11.587  12.112
38375SOL     OW17021   1.786  13.982  11.025
38375SOL    HW117022   1.835  14.064  11.038
38375SOL    HW217023   1.713  13.988  11.086
38376SOL     OW17024   9.075   0.343   2.070
38376SOL    HW117025   9.063   0.420   2.126
38376SOL    HW217026   9.149   0.367   2.013
38377SOL     OW17027  10.948   9.673  11.418
38377SOL    HW117028  10.910   9.684  11.505
38377SOL    HW217029  10.892   9.726  11.361
38378SOL     OW17030   3.519   3.273   7.992
38378SOL    HW117031   3.500   3.367   8.001
38378SOL    HW217032   3.442   3.237   7.947
38379SOL     OW17033   6.282   3.940   1.572
38379SOL    HW117034   6.258   3.886   1.647
38379SOL    HW217035   6.227   3.908   1.500
38380SOL     OW17036   7.645   7.108   7.454
38380SOL    HW117037   7.552   7.095   7.435
38380SOL    HW217038   7.660   7.058   7.534
38381SOL     OW17039  14.627  14.712   1.380
38381SOL    HW117040  14.547  14.662   1.397
38381SOL    HW217041  14.598  14.801   1.364
38382SOL     OW17042   0.353   8.212   0.437
38382SOL    HW117043   0.409   8.280   0.401
38382SOL    HW217044   0.304   8.255   0.507
38383SOL     OW17045   1.539   3.291   4.797
38383SOL    HW117046   1.511   3.381   4.778
38383SOL    HW217047   1.464   3.250   4.840
38384SOL     OW17048   2.551   7.043   7.107
38384SOL    HW117049   2.517   7.067   7.021
38384SOL    HW217050   2.617   7.110   7.126
38385SOL     OW17051  12.295   3.981   4.425
38385SOL    HW117052  12.386   4.009   4.434
38385SOL    HW217053  12.300   3.892   4.389
38386SOL     OW17054   8.557  11.603   0.132
38386SOL    HW117055   8.603  11.605   0.216
38386SOL    HW217056   8.613  11.549   0.076
38387SOL     OW17057   7.942   9.012  13.539
38387SOL    HW117058   7.974   9.033  13.451
38387SOL    HW217059   7.919   9.096  13.578
38388SOL     OW17060   6.833   1.226  11.473
38388SOL    HW117061   6.898   1.162  11.501
38388SOL    HW217062   6.866   1.310  11.505
38389SOL     OW17063   4.212   5.414   3.814
38389SOL    HW117064   4.302   5.428   3.786
38389SOL    HW217065   4.205   5.320   3.827
38390SOL     OW17066   5.209   3.226   8.904
38390SOL    HW117067   5.285   3.283   8.897
38390SOL    HW217068   5.226   3.172   8.981
38391SOL     OW17069   7.068  13.824  11.838
38391SOL    HW117070   7.034  13.804  11.925
38391SOL    HW217071   7.158  13.852  11.853
38392SOL     OW17072   5.339   3.658  14.402
38392SOL    HW117073   5.407   3.724  14.416
38392SOL    HW217074   5.269   3.705  14.355
38393SOL     OW17075   8.472   6.694   0.927
38393SOL    HW117076   8.460   6.703   1.022
38393SOL    HW217077   8.565   6.714   0.913
38394SOL     OW17078  13.005  13.219  10.209
38394SOL    HW117079  13.043  13.224  10.297
38394SOL    HW217080  13.031  13.133  10.176
38395SOL     OW17081   8.099  12.453   0.641
38395SOL    HW117082   8.017  12.440   0.689
38395SOL    HW217083   8.127  12.541   0.665
38396SOL     OW17084   6.453   1.005   8.888
38396SOL    HW117085   6.455   1.098   8.912
38396SOL    HW217086   6.534   0.969   8.925
38397SOL     OW17087   2.037   7.290  12.851
38397SOL    HW117088   2.041   7.304  12.945
38397SOL    HW217089   2.100   7.353  12.815
38398SOL     OW17090   0.457  13.129   1.849
38398SOL    HW117091   0.528  13.116   1.787
38398SOL    HW217092   0.388  13.172   1.798
38399SOL     OW17093   4.920   0.216  12.931
38399SOL    HW117094   4.951   0.239  12.843
38399SOL    HW217095   4.970   0.273  12.989
38400SOL     OW17096  11.922   0.093  10.082
38400SOL    HW117097  11.848   0.096  10.143
38400SOL    HW217098  11.921   0.179  10.040
38401SOL     OW17099   4.977  10.298  12.936
38401SOL    HW117100   4.993  10.248  12.856
38401SOL    HW217101   4.979  10.390  12.908
38402SOL     OW17102   3.549  11.152   1.237
38402SOL    HW117103   3.541  11.069   1.285
38402SOL    HW217104   3.498  11.139   1.157
38403SOL     OW17105   9.816   4.863  14.275
38403SOL    HW117106   9.790   4.932  14.215
38403SOL    HW217107   9.831   4.787  14.218
38404SOL     OW17108   0.091   9.278   3.077
38404SOL    HW117109   0.047   9.294   2.993
38404SOL    HW217110   0.163   9.341   3.078
38405SOL     OW17111   2.351   9.702  10.120
38405SOL    HW117112   2.329   9.654  10.199
38405SOL    HW217113   2.410   9.772  10.149
38406SOL     OW17114   5.959   9.034  13.840
38406SOL    HW117115   5.993   8.988  13.763
38406SOL    HW217116   5.988   8.980  13.914
38407SOL     OW17117   6.315   5.227   9.015
38407SOL    HW117118   6.243   5.165   9.029
38407SOL    HW217119   6.272   5.308   8.987
38408SOL     OW17120   5.839   7.270   9.429
38408SOL    HW117121   5.841   7.232   9.342
38408SOL    HW217122   5.785   7.210   9.481
38409SOL     OW17123   5.196   1.299   6.212
38409SOL    HW117124   5.179   1.393   6.218
38409SOL    HW217125   5.222   1.274   6.301
38410SOL     OW17126   0.043   0.430   7.795
38410SOL    HW117127   0.018   0.482   7.872
38410SOL    HW217128   0.013   0.482   7.720
38411SOL     OW17129   6.067   6.459   7.352
38411SOL    HW117130   6.158   6.433   7.340
38411SOL    HW217131   6.033   6.472   7.263
38412SOL     OW17132  12.299   5.438  11.035
38412SOL    HW117133  12.352   5.359  11.024
38412SOL    HW217134  12.252   5.424  11.117
38413SOL     OW17135   6.538   8.531   7.961
38413SOL    HW117136   6.539   8.545   7.866
38413SOL    HW217137   6.615   8.577   7.993
38414SOL     OW17138  12.647   8.747   4.139
38414SOL    HW117139  12.558   8.781   4.152
38414SOL    HW217140  12.641   8.654   4.161
38415SOL     OW17141   2.043   8.912   6.547
38415SOL    HW117142   1.971   8.866   6.589
38415SOL    HW217143   2.057   8.866   6.465
38416SOL     OW17144   6.113   5.540   3.213
38416SOL    HW117145   6.102   5.611   3.276
38416SOL    HW217146   6.075   5.463   3.255
38417SOL     OW17147   8.593   9.294   4.650
38417SOL    HW117148   8.535   9.230   4.609
38417SOL    HW217149   8.537   9.340   4.712
38418SOL     OW17150  11.534   2.887  14.612
38418SOL    HW117151  11.549   2.945  14.686
38418SOL    HW217152  11.611   2.829  14.610
38419SOL     OW17153   7.602   9.943   1.606
38419SOL    HW117154   7.679   9.891   1.583
38419SOL    HW217155   7.565   9.898   1.682
38420SOL     OW17156   3.326  10.579   5.885
38420SOL    HW117157   3.351  10.596   5.794
38420SOL    HW217158   3.407  10.586   5.934
38421SOL     OW17159   7.788   8.443   8.818
38421SOL    HW117160   7.843   8.520   8.832
38421SOL    HW217161   7.758   8.451   8.728
38422SOL     OW17162   1.727   7.188   8.017
38422SOL    HW117163   1.816   7.215   8.040
38422SOL    HW217164   1.718   7.101   8.057
38423SOL     OW17165  12.175   0.971   7.093
38423SOL    HW117166  12.163   0.911   7.166
38423SOL    HW217167  12.089   0.976   7.051
38424SOL     OW17168   5.243   6.636   8.208
38424SOL    HW117169   5.201   6.704   8.261
38424SOL    HW217170   5.314   6.604   8.263
38425SOL     OW17171  10.760   3.484   1.292
38425SOL    HW117172  10.674   3.447   1.315
38425SOL    HW217173  10.758   3.490   1.196
38426SOL     OW17174  11.928   8.229   5.969
38426SOL    HW117175  11.872   8.253   6.043
38426SOL    HW217176  11.886   8.267   5.892
38427SOL     OW17177  14.301   4.267   6.447
38427SOL    HW117178  14.313   4.226   6.362
38427SOL    HW217179  14.387   4.260   6.489
38428SOL     OW17180   4.245  14.546   4.279
38428SOL    HW117181   4.153  14.563   4.258
38428SOL    HW217182   4.289  14.544   4.194
38429SOL     OW17183   4.416  11.418   5.675
38429SOL    HW117184   4.429  11.508   5.704
38429SOL    HW217185   4.453  11.364   5.745
38430SOL     OW17186  13.470   8.861   4.361
38430SOL    HW117187  13.452   8.951   4.333
38430SOL    HW217188  13.459   8.808   4.282
38431SOL     OW17189   7.554   5.063   4.395
38431SOL    HW117190   7.583   5.092   4.308
38431SOL    HW217191   7.504   5.137   4.429
38432SOL     OW17192  14.267  14.557  12.122
38432SOL    HW117193  14.325  14.486  12.094
38432SOL    HW217194  14.252  14.608  12.043
38433SOL     OW17195   9.043   1.079  14.260
38433SOL    HW117196   8.967   1.098  14.206
38433SOL    HW217197   9.007   1.043  14.341
38434SOL     OW17198   2.108   4.241   2.782
38434SOL    HW117199   2.041   4.198   2.835
38434SOL    HW217200   2.131   4.176   2.715
38435SOL     OW17201  13.357   5.898   3.016
38435SOL    HW117202  13.424   5.929   2.955
38435SOL    HW217203  13.355   5.963   3.086
38436SOL     OW17204   5.902  13.481   9.264
38436SOL    HW117205   5.942  13.493   9.178
38436SOL    HW217206   5.835  13.414   9.250
38437SOL     OW17207   5.442  14.475   5.999
38437SOL    HW117208   5.379  14.431   6.056
38437SOL    HW217209   5.521  14.483   6.052
38438SOL     OW17210   2.316   2.780  10.557
38438SOL    HW117211   2.380   2.715  10.528
38438SOL    HW217212   2.266   2.800  10.478
38439SOL     OW17213   8.122   9.553  11.697
38439SOL    HW117214   8.141   9.464  11.666
38439SOL    HW217215   8.099   9.602  11.619
38440SOL     OW17216   8.489   3.619   8.119
38440SOL    HW117217   8.399   3.642   8.096
38440SOL    HW217218   8.507   3.669   8.198
38441SOL     OW17219  10.618   5.493   5.168
38441SOL    HW117220  10.706   5.498   5.131
38441SOL    HW217221  10.560   5.509   5.093
38442SOL     OW17222   8.162   4.506   0.945
38442SOL    HW117223   8.128   4.420   0.968
38442SOL    HW217224   8.139   4.562   1.019
38443SOL     OW17225   7.797  12.156  12.669
38443SOL    HW117226   7.734  12.085  12.654
38443SOL    HW217227   7.857  12.151  12.595
38444SOL     OW17228  10.010   6.015  10.970
38444SOL    HW117229   9.931   6.064  10.989
38444SOL    HW217230   9.991   5.969  10.888
38445SOL     OW17231   5.982   7.424   5.129
38445SOL    HW117232   5.994   7.329   5.117
38445SOL    HW217233   6.034   7.445   5.206
38446SOL     OW17234   8.463   9.210  14.744
38446SOL    HW117235   8.368   9.215  14.755
38446SOL    HW217236   8.476   9.200  14.650
38447SOL     OW17237   8.685  11.323  12.570
38447SOL    HW117238   8.710  11.230  12.579
38447SOL    HW217239   8.764  11.365  12.537
38448SOL     OW17240   7.424   9.165   6.388
38448SOL    HW117241   7.454   9.173   6.478
38448SOL    HW217242   7.464   9.084   6.356
38449SOL     OW17243   8.484   0.404  12.026
38449SOL    HW117244   8.449   0.327  11.980
38449SOL    HW217245   8.417   0.425  12.091
38450SOL     OW17246   4.267  10.072  12.618
38450SOL    HW117247   4.272  10.002  12.684
38450SOL    HW217248   4.213  10.139  12.659
38451SOL     OW17249   1.349   6.885  13.506
38451SOL    HW117250   1.297   6.807  13.522
38451SOL    HW217251   1.294   6.941  13.451
38452SOL     OW17252   3.172  12.290   2.602
38452SOL    HW117253   3.251  12.239   2.586
38452SOL    HW217254   3.127  12.244   2.672
38453SOL     OW17255   6.482   0.872   8.282
38453SOL    HW117256   6.483   0.953   8.232
38453SOL    HW217257   6.568   0.833   8.267
38454SOL     OW17258   2.342   8.440  10.371
38454SOL    HW117259   2.340   8.490  10.453
38454SOL    HW217260   2.255   8.450  10.334
38455SOL     OW17261   2.358   4.920   4.431
38455SOL    HW117262   2.426   4.888   4.489
38455SOL    HW217263   2.315   4.990   4.481
38456SOL     OW17264   4.939   0.183  13.578
38456SOL    HW117265   4.984   0.234  13.511
38456SOL    HW217266   4.969   0.219  13.661
38457SOL     OW17267   7.263   6.951   1.332
38457SOL    HW117268   7.343   6.908   1.363
38457SOL    HW217269   7.275   7.043   1.357
38458SOL     OW17270  10.472   9.028   3.493
38458SOL    HW117271  10.495   8.977   3.571
38458SOL    HW217272  10.390   8.991   3.462
38459SOL     OW17273   2.048  14.204   2.392
38459SOL    HW117274   2.047  14.255   2.473
38459SOL    HW217275   2.050  14.113   2.421
38460SOL     OW17276   5.269   3.834   6.430
38460SOL    HW117277   5.336   3.765   6.434
38460SOL    HW217278   5.316   3.912   6.400
38461SOL     OW17279   5.787   9.404   1.473
38461SOL    HW117280   5.847   9.470   1.437
38461SOL    HW217281   5.790   9.418   1.568
38462SOL     OW17282  12.180   2.253   6.395
38462SOL    HW117283  12.188   2.227   6.487
38462SOL    HW217284  12.126   2.184   6.355
38463SOL     OW17285   1.398   0.268  12.524
38463SOL    HW117286   1.317   0.281  12.476
38463SOL    HW217287   1.381   0.193  12.582
38464SOL     OW17288   4.927  10.085  12.702
38464SOL    HW117289   5.017  10.115  12.717
38464SOL    HW217290   4.931  10.042  12.617
38465SOL     OW17291   3.269  11.023   3.647
38465SOL    HW117292   3.352  11.065   3.666
38465SOL    HW217293   3.282  10.982   3.562
38466SOL     OW17294  10.370   4.825   6.481
38466SOL    HW117295  10.319   4.768   6.539
38466SOL    HW217296  10.413   4.766   6.420
38467SOL     OW17297   8.073   6.277   8.079
38467SOL    HW117298   8.066   6.344   8.011
38467SOL    HW217299   8.158   6.294   8.121
38468SOL     OW17300  14.533   4.776   3.789
38468SOL    HW117301  14.558   4.773   3.696
38468SOL    HW217302  14.541   4.869   3.813
38469SOL     OW17303  13.993   9.625   6.172
38469SOL    HW117304  14.034   9.556   6.225
38469SOL    HW217305  13.962   9.689   6.236
38470SOL     OW17306   8.172   6.891  10.714
38470SOL    HW117307   8.176   6.923  10.804
38470SOL    HW217308   8.220   6.807  10.717
38471SOL     OW17309   3.439  11.237  13.745
38471SOL    HW117310   3.424  11.328  13.721
38471SOL    HW217311   3.534  11.226  13.741
38472SOL     OW17312   8.925   0.469   8.513
38472SOL    HW117313   9.008   0.477   8.558
38472SOL    HW217314   8.911   0.556   8.474
38473SOL     OW17315   7.083  10.419  13.758
38473SOL    HW117316   7.129  10.393  13.837
38473SOL    HW217317   6.990  10.417  13.782
38474SOL     OW17318   5.897   3.283   3.651
38474SOL    HW117319   5.807   3.314   3.650
38474SOL    HW217320   5.912   3.258   3.743
38475SOL     OW17321  14.034   2.975  10.414
38475SOL    HW117322  13.980   2.977  10.335
38475SOL    HW217323  14.001   3.046  10.468
38476SOL     OW17324   1.756   4.302  13.928
38476SOL    HW117325   1.700   4.372  13.895
38476SOL    HW217326   1.695   4.231  13.950
38477SOL     OW17327  10.902  11.469   1.089
38477SOL    HW117328  10.915  11.402   1.156
38477SOL    HW217329  10.807  11.471   1.075
38478SOL     OW17330  13.299   8.645   7.642
38478SOL    HW117331  13.239   8.708   7.683
38478SOL    HW217332  13.322   8.585   7.712
38479SOL     OW17333  13.727  12.508  10.406
38479SOL    HW117334  13.729  12.506  10.501
38479SOL    HW217335  13.633  12.505  10.384
38480SOL     OW17336  10.038   9.909   9.447
38480SOL    HW117337  10.033   9.989   9.393
38480SOL    HW217338  10.045   9.838   9.383
38481SOL     OW17339   7.984   4.447  10.792
38481SOL    HW117340   8.033   4.494  10.860
38481SOL    HW217341   7.923   4.513  10.758
38482SOL     OW17342   7.230   8.374  14.277
38482SOL    HW117343   7.251   8.381  14.371
38482SOL    HW217344   7.178   8.294  14.271
38483SOL     OW17345  13.810   0.539  10.778
38483SOL    HW117346  13.891   0.585  10.801
38483SOL    HW217347  13.745   0.574  10.839
38484SOL     OW17348  13.383   8.993   2.925
38484SOL    HW117349  13.328   8.915   2.919
38484SOL    HW217350  13.465   8.968   2.882
38485SOL     OW17351  11.840   1.108  12.538
38485SOL    HW117352  11.928   1.086  12.569
38485SOL    HW217353  11.854   1.179  12.475
38486SOL     OW17354   0.239  13.222   3.507
38486SOL    HW117355   0.266  13.314   3.519
38486SOL    HW217356   0.144  13.225   3.508
38487SOL     OW17357   2.964  11.112   0.165
38487SOL    HW117358   2.988  11.038   0.109
38487SOL    HW217359   2.872  11.098   0.186
38488SOL     OW17360   0.267   0.724   4.639
38488SOL    HW117361   0.230   0.808   4.612
38488SOL    HW217362   0.323   0.698   4.566
38489SOL     OW17363   3.151   1.739  12.498
38489SOL    HW117364   3.106   1.699  12.572
38489SOL    HW217365   3.163   1.668  12.435
38490SOL     OW17366   0.072   0.373   9.155
38490SOL    HW117367   0.106   0.419   9.079
38490SOL    HW217368   0.117   0.288   9.154
38491SOL     OW17369   6.456   6.606   5.987
38491SOL    HW117370   6.409   6.648   5.914
38491SOL    HW217371   6.404   6.529   6.008
38492SOL     OW17372   4.316  11.619   4.209
38492SOL    HW117373   4.300  11.524   4.208
38492SOL    HW217374   4.269  11.651   4.286
38493SOL     OW17375   2.051  14.413  13.998
38493SOL    HW117376   2.059  14.332  13.947
38493SOL    HW217377   1.980  14.461  13.954
38494SOL     OW17378  13.500   7.075   6.085
38494SOL    HW117379  13.527   7.123   6.163
38494SOL    HW217380  13.547   7.117   6.013
38495SOL     OW17381  13.663  12.205  13.854
38495SOL    HW117382  13.602  12.143  13.892
38495SOL    HW217383  13.692  12.259  13.928
38496SOL     OW17384  14.280   5.965   5.239
38496SOL    HW117385  14.264   6.055   5.212
38496SOL    HW217386  14.195   5.922   5.233
38497SOL     OW17387   9.208   8.220   8.836
38497SOL    HW117388   9.222   8.218   8.742
38497SOL    HW217389   9.237   8.134   8.867
38498SOL     OW17390   9.264   9.478   4.972
38498SOL    HW117391   9.281   9.385   4.987
38498SOL    HW217392   9.246   9.484   4.878
38499SOL     OW17393   0.100   9.247  10.197
38499SOL    HW117394   0.088   9.207  10.110
38499SOL    HW217395   0.186   9.289  10.192
38500SOL     OW17396   9.364  14.526   6.425
38500SOL    HW117397   9.295  14.499   6.486
38500SOL    HW217398   9.428  14.456   6.430
38501SOL     OW17399   5.256   4.272   1.140
38501SOL    HW117400   5.269   4.366   1.149
38501SOL    HW217401   5.170   4.263   1.099
38502SOL     OW17402  13.438   4.460  12.764
38502SOL    HW117403  13.374   4.478  12.833
38502SOL    HW217404  13.396   4.395  12.707
38503SOL     OW17405  10.344   3.714  13.751
38503SOL    HW117406  10.341   3.642  13.688
38503SOL    HW217407  10.319   3.674  13.835
38504SOL     OW17408   3.211   6.522  12.379
38504SOL    HW117409   3.140   6.565  12.425
38504SOL    HW217410   3.194   6.540  12.286
38505SOL     OW17411   5.872  14.769   5.333
38505SOL    HW117412   5.949  14.713   5.324
38505SOL    HW217413   5.813  14.719   5.389
38506SOL     OW17414   2.698   9.444   5.077
38506SOL    HW117415   2.720   9.498   5.152
38506SOL    HW217416   2.638   9.497   5.025
38507SOL     OW17417   1.928   1.534   2.042
38507SOL    HW117418   1.948   1.586   2.119
38507SOL    HW217419   1.998   1.468   2.039
38508SOL     OW17420   6.113   0.968  10.114
38508SOL    HW117421   6.184   1.013  10.068
38508SOL    HW217422   6.081   1.033  10.178
38509SOL     OW17423  13.196   1.177   5.162
38509SOL    HW117424  13.110   1.220   5.166
38509SOL    HW217425  13.259   1.249   5.162
38510SOL     OW17426   4.213  11.432   2.718
38510SOL    HW117427   4.120  11.415   2.734
38510SOL    HW217428   4.240  11.487   2.792
38511SOL     OW17429   3.082   9.199  13.124
38511SOL    HW117430   3.055   9.265  13.061
38511SOL    HW217431   3.001   9.172  13.167
38512SOL     OW17432  13.726   9.233  13.880
38512SOL    HW117433  13.640   9.230  13.837
38512SOL    HW217434  13.773   9.159  13.842
38513SOL     OW17435   0.284   5.315   4.603
38513SOL    HW117436   0.265   5.258   4.677
38513SOL    HW217437   0.202   5.319   4.553
38514SOL     OW17438   5.361   2.762  12.023
38514SOL    HW117439   5.299   2.825  11.986
38514SOL    HW217440   5.327   2.743  12.110
38515SOL     OW17441  10.170  12.580  10.045
38515SOL    HW117442  10.162  12.588   9.950
38515SOL    HW217443  10.191  12.669  10.074
38516SOL     OW17444  14.143  14.742   7.616
38516SOL    HW117445  14.185  14.703   7.540
38516SOL    HW217446  14.166  14.835   7.613
38517SOL     OW17447  12.255  12.404   9.760
38517SOL    HW117448  12.325  12.357   9.804
38517SOL    HW217449  12.176  12.384   9.811
38518SOL     OW17450   3.799   5.959   1.169
38518SOL    HW117451   3.842   5.883   1.129
38518SOL    HW217452   3.852   6.034   1.143
38519SOL     OW17453  12.997  13.478  13.454
38519SOL    HW117454  13.053  13.493  13.531
38519SOL    HW217455  12.910  13.461  13.492
38520SOL     OW17456   7.057  13.703  14.260
38520SOL    HW117457   7.033  13.625  14.311
38520SOL    HW217458   7.150  13.716  14.277
38521SOL     OW17459  12.001   5.833  14.622
38521SOL    HW117460  11.987   5.925  14.602
38521SOL    HW217461  12.095   5.819  14.610
38522SOL     OW17462   9.141   6.714   1.182
38522SOL    HW117463   9.084   6.664   1.240
38522SOL    HW217464   9.164   6.652   1.112
38523SOL     OW17465  10.247  12.698   7.121
38523SOL    HW117466  10.296  12.665   7.046
38523SOL    HW217467  10.172  12.744   7.083
38524SOL     OW17468   7.442   0.922  13.674
38524SOL    HW117469   7.528   0.963  13.665
38524SOL    HW217470   7.387   0.969  13.611
38525SOL     OW17471   3.491   8.987   4.950
38525SOL    HW117472   3.550   8.997   5.025
38525SOL    HW217473   3.527   9.045   4.883
38526SOL     OW17474  10.688   1.878   2.425
38526SOL    HW117475  10.606   1.875   2.375
38526SOL    HW217476  10.661   1.885   2.516
38527SOL     OW17477   6.536   1.978  14.404
38527SOL    HW117478   6.620   1.933  14.398
38527SOL    HW217479   6.471   1.908  14.408
38528SOL     OW17480   9.906   8.822   6.553
38528SOL    HW117481   9.961   8.745   6.541
38528SOL    HW217482   9.946   8.870   6.625
38529SOL     OW17483   5.977  13.782   2.796
38529SOL    HW117484   6.053  13.737   2.832
38529SOL    HW217485   5.966  13.860   2.850
38530SOL     OW17486   2.519   8.844   1.334
38530SOL    HW117487   2.441   8.807   1.293
38530SOL    HW217488   2.540   8.783   1.405
38531SOL     OW17489   2.556   4.326   1.080
38531SOL    HW117490   2.539   4.235   1.104
38531SOL    HW217491   2.509   4.338   0.998
38532SOL     OW17492   7.081  10.329   6.469
38532SOL    HW117493   7.119  10.293   6.388
38532SOL    HW217494   7.153  10.377   6.510
38533SOL     OW17495   0.900   3.617  11.091
38533SOL    HW117496   0.994   3.629  11.107
38533SOL    HW217497   0.895   3.543  11.030
38534SOL     OW17498  14.146  14.419  12.617
38534SOL    HW117499  14.182  14.410  12.529
38534SOL    HW217500  14.055  14.446  12.604
38535SOL     OW17501   9.618   1.851   4.840
38535SOL    HW117502   9.562   1.778   4.869
38535SOL    HW217503   9.557   1.924   4.830
38536SOL     OW17504   6.045   7.407   3.420
38536SOL    HW117505   5.971   7.467   3.407
38536SOL    HW217506   6.102   7.453   3.481
38537SOL     OW17507  10.278   7.798   2.563
38537SOL    HW117508  10.315   7.849   2.491
38537SOL    HW217509  10.191   7.835   2.578
38538SOL     OW17510  11.159  14.487  12.335
38538SOL    HW117511  11.190  14.550  12.270
38538SOL    HW217512  11.213  14.503  12.412
38539SOL     OW17513  14.446  10.642  13.375
38539SOL    HW117514  14.400  10.634  13.291
38539SOL    HW217515  14.381  10.678  13.435
38540SOL     OW17516   0.683   4.714   4.975
38540SOL    HW117517   0.653   4.692   4.887
38540SOL    HW217518   0.659   4.639   5.028
38541SOL     OW17519   0.680   0.090   8.922
38541SOL    HW117520   0.602   0.047   8.887
38541SOL    HW217521   0.737   0.018   8.948
38542SOL     OW17522   0.921   0.508   6.992
38542SOL    HW117523   0.974   0.472   6.920
38542SOL    HW217524   0.863   0.572   6.949
38543SOL     OW17525   8.636  14.056   4.794
38543SOL    HW117526   8.633  14.042   4.889
38543SOL    HW217527   8.544  14.051   4.767
38544SOL     OW17528   0.466  11.295   7.467
38544SOL    HW117529   0.540  11.252   7.510
38544SOL    HW217530   0.415  11.333   7.539
38545SOL     OW17531   1.583  13.461   2.829
38545SOL    HW117532   1.678  13.469   2.837
38545SOL    HW217533   1.569  13.400   2.757
38546SOL     OW17534   1.809  10.249   8.578
38546SOL    HW117535   1.718  10.222   8.564
38546SOL    HW217536   1.815  10.266   8.672
38547SOL     OW17537  11.547   6.860   1.376
38547SOL    HW117538  11.514   6.810   1.452
38547SOL    HW217539  11.563   6.793   1.309
38548SOL     OW17540  10.764   1.932   5.429
38548SOL    HW117541  10.775   1.960   5.338
38548SOL    HW217542  10.763   1.837   5.426
38549SOL     OW17543   1.982  14.110   1.900
38549SOL    HW117544   1.947  14.123   1.988
38549SOL    HW217545   2.032  14.189   1.881
38550SOL     OW17546  10.489   6.227   2.136
38550SOL    HW117547  10.447   6.211   2.220
38550SOL    HW217548  10.552   6.156   2.127
38551SOL     OW17549   3.432   6.792   7.143
38551SOL    HW117550   3.526   6.774   7.146
38551SOL    HW217551   3.426   6.888   7.150
38552SOL     OW17552  13.024  14.337   2.556
38552SOL    HW117553  12.973  14.266   2.595
38552SOL    HW217554  12.959  14.389   2.508
38553SOL     OW17555  12.587  13.150  11.730
38553SOL    HW117556  12.533  13.212  11.779
38553SOL    HW217557  12.665  13.200  11.706
38554SOL     OW17558  10.802  14.736  11.977
38554SOL    HW117559  10.821  14.768  11.888
38554SOL    HW217560  10.866  14.666  11.990
38555SOL     OW17561  11.346   8.075  11.726
38555SOL    HW117562  11.365   8.155  11.676
38555SOL    HW217563  11.258   8.089  11.761
38556SOL     OW17564   9.713   4.732   6.129
38556SOL    HW117565   9.807   4.748   6.134
38556SOL    HW217566   9.704   4.650   6.080
38557SOL     OW17567   6.540   0.437   5.971
38557SOL    HW117568   6.546   0.355   6.019
38557SOL    HW217569   6.545   0.411   5.879
38558SOL     OW17570   7.660   3.000   4.114
38558SOL    HW117571   7.712   2.982   4.035
38558SOL    HW217572   7.638   3.093   4.108
38559SOL     OW17573   9.634   2.327   1.109
38559SOL    HW117574   9.674   2.277   1.038
38559SOL    HW217575   9.702   2.330   1.177
38560SOL     OW17576  12.275   3.238   9.893
38560SOL    HW117577  12.229   3.322   9.878
38560SOL    HW217578  12.204   3.174   9.901
38561SOL     OW17579  11.115  11.478   4.825
38561SOL    HW117580  11.074  11.394   4.847
38561SOL    HW217581  11.090  11.493   4.734
38562SOL     OW17582  12.310   9.217   8.109
38562SOL    HW117583  12.256   9.295   8.094
38562SOL    HW217584  12.303   9.168   8.028
38563SOL     OW17585   1.005  12.930   7.623
38563SOL    HW117586   1.020  12.845   7.663
38563SOL    HW217587   0.912  12.945   7.632
38564SOL     OW17588  10.123   0.671  13.944
38564SOL    HW117589  10.140   0.730  14.017
38564SOL    HW217590  10.196   0.686  13.883
38565SOL     OW17591  10.852   1.840   0.627
38565SOL    HW117592  10.899   1.759   0.608
38565SOL    HW217593  10.760   1.817   0.620
38566SOL     OW17594   9.080   3.055   9.170
38566SOL    HW117595   9.148   3.094   9.116
38566SOL    HW217596   9.114   2.968   9.192
38567SOL     OW17597   9.715   9.924  10.757
38567SOL    HW117598   9.683   9.869  10.829
38567SOL    HW217599   9.678   9.882  10.679
38568SOL     OW17600  13.940   9.276  10.787
38568SOL    HW117601  13.918   9.192  10.748
38568SOL    HW217602  13.989   9.254  10.866
38569SOL     OW17603   9.651   9.012   8.865
38569SOL    HW117604   9.636   9.036   8.957
38569SOL    HW217605   9.743   9.031   8.850
38570SOL     OW17606  12.816   3.669   4.224
38570SOL    HW117607  12.887   3.685   4.161
38570SOL    HW217608  12.854   3.610   4.288
38571SOL     OW17609   3.220  10.967   1.262
38571SOL    HW117610   3.260  11.011   1.337
38571SOL    HW217611   3.218  11.033   1.194
38572SOL     OW17612   2.850   9.869   6.522
38572SOL    HW117613   2.777   9.857   6.583
38572SOL    HW217614   2.903   9.938   6.562
38573SOL     OW17615  10.152  14.561  13.036
38573SOL    HW117616  10.068  14.581  12.995
38573SOL    HW217617  10.131  14.493  13.101
38574SOL     OW17618   4.178   4.418  14.148
38574SOL    HW117619   4.263   4.446  14.182
38574SOL    HW217620   4.187   4.323  14.138
38575SOL     OW17621   5.388  12.370   7.883
38575SOL    HW117622   5.332  12.447   7.874
38575SOL    HW217623   5.390  12.353   7.977
38576SOL     OW17624   9.807   2.291  11.083
38576SOL    HW117625   9.768   2.233  11.147
38576SOL    HW217626   9.733   2.343  11.050
38577SOL     OW17627  10.347   2.078   5.465
38577SOL    HW117628  10.321   2.111   5.551
38577SOL    HW217629  10.389   1.994   5.483
38578SOL     OW17630  12.393   3.932   1.414
38578SOL    HW117631  12.478   3.891   1.397
38578SOL    HW217632  12.343   3.866   1.462
38579SOL     OW17633   0.329   0.698   0.652
38579SOL    HW117634   0.289   0.734   0.731
38579SOL    HW217635   0.269   0.721   0.581
38580SOL     OW17636   2.737   2.403   6.930
38580SOL    HW117637   2.721   2.481   6.877
38580SOL    HW217638   2.658   2.392   6.982
38581SOL     OW17639   3.880   6.515  13.409
38581SOL    HW117640   3.839   6.440  13.366
38581SOL    HW217641   3.807   6.561  13.451
38582SOL     OW17642   2.059  12.099   1.477
38582SOL    HW117643   2.025  12.016   1.444
38582SOL    HW217644   2.020  12.165   1.419
38583SOL     OW17645  13.181  10.923   8.474
38583SOL    HW117646  13.126  10.924   8.396
38583SOL    HW217647  13.217  11.011   8.480
38584SOL     OW17648   5.000   8.875   3.990
38584SOL    HW117649   5.075   8.928   3.966
38584SOL    HW217650   5.037   8.799   4.035
38585SOL     OW17651   3.801   0.630   3.908
38585SOL    HW117652   3.822   0.576   3.984
38585SOL    HW217653   3.880   0.682   3.893
38586SOL     OW17654  10.366   5.529   9.991
38586SOL    HW117655  10.331   5.527  10.080
38586SOL    HW217656  10.460   5.519  10.002
38587SOL     OW17657   9.421   8.919   1.291
38587SOL    HW117658   9.413   8.824   1.281
38587SOL    HW217659   9.511   8.932   1.322
38588SOL     OW17660   3.910  10.002  14.854
38588SOL    HW117661   3.991  10.053  14.848
38588SOL    HW217662   3.849  10.047  14.795
38589SOL     OW17663   4.916   0.823  10.656
38589SOL    HW117664   4.889   0.784  10.739
38589SOL    HW217665   5.011   0.825  10.660
38590SOL     OW17666   1.691   4.465   6.473
38590SOL    HW117667   1.599   4.477   6.447
38590SOL    HW217668   1.732   4.425   6.396
38591SOL     OW17669   3.431   2.843  11.337
38591SOL    HW117670   3.379   2.904  11.389
38591SOL    HW217671   3.477   2.898  11.274
38592SOL     OW17672   4.885   3.875  10.550
38592SOL    HW117673   4.851   3.856  10.462
38592SOL    HW217674   4.887   3.971  10.554
38593SOL     OW17675  10.838  13.384   5.251
38593SOL    HW117676  10.857  13.299   5.210
38593SOL    HW217677  10.903  13.392   5.320
38594SOL     OW17678   3.949   1.179   2.097
38594SOL    HW117679   3.893   1.113   2.138
38594SOL    HW217680   3.940   1.163   2.003
38595SOL     OW17681   8.550  14.585  10.707
38595SOL    HW117682   8.480  14.598  10.771
38595SOL    HW217683   8.516  14.519  10.647
38596SOL     OW17684   6.394  10.059   7.820
38596SOL    HW117685   6.469  10.001   7.834
38596SOL    HW217686   6.318  10.002   7.832
38597SOL     OW17687   1.457   6.611   6.611
38597SOL    HW117688   1.392   6.550   6.644
38597SOL    HW217689   1.468   6.675   6.681
38598SOL     OW17690   8.572   5.254  12.419
38598SOL    HW117691   8.592   5.346  12.401
38598SOL    HW217692   8.480   5.254  12.442
38599SOL     OW17693   8.946   3.023  12.450
38599SOL    HW117694   8.960   2.950  12.390
38599SOL    HW217695   8.860   3.058  12.425
38600SOL     OW17696  11.166   3.087   8.761
38600SOL    HW117697  11.182   3.019   8.827
38600SOL    HW217698  11.253   3.117   8.736
38601SOL     OW17699  14.600   2.538  11.203
38601SOL    HW117700  14.692   2.560  11.188
38601SOL    HW217701  14.603   2.456  11.251
38602SOL     OW17702   4.039   2.749  10.410
38602SOL    HW117703   3.969   2.814  10.402
38602SOL    HW217704   4.004   2.670  10.368
38603SOL     OW17705   8.945   0.569  14.416
38603SOL    HW117706   8.992   0.486  14.408
38603SOL    HW217707   9.010   0.635  14.393
38604SOL     OW17708   1.817  14.435   1.267
38604SOL    HW117709   1.793  14.526   1.251
38604SOL    HW217710   1.890  14.439   1.329
38605SOL     OW17711   9.889  11.349   8.174
38605SOL    HW117712   9.945  11.379   8.245
38605SOL    HW217713   9.811  11.404   8.179
38606SOL     OW17714  11.424   6.690   1.553
38606SOL    HW117715  11.399   6.693   1.646
38606SOL    HW217716  11.499   6.630   1.551
38607SOL     OW17717   8.208   5.280  11.506
38607SOL    HW117718   8.169   5.258  11.591
38607SOL    HW217719   8.140   5.328  11.460
38608SOL     OW17720   0.375   7.932  14.058
38608SOL    HW117721   0.431   7.888  14.122
38608SOL    HW217722   0.286   7.920  14.092
38609SOL     OW17723  13.063   2.836   2.259
38609SOL    HW117724  13.025   2.865   2.176
38609SOL    HW217725  12.997   2.859   2.324
38610SOL     OW17726   7.428   5.238   4.544
38610SOL    HW117727   7.388   5.230   4.630
38610SOL    HW217728   7.354   5.240   4.483
38611SOL     OW17729   3.894   9.569   7.828
38611SOL    HW117730   3.848   9.567   7.912
38611SOL    HW217731   3.912   9.662   7.813
38612SOL     OW17732  10.113   4.872  12.581
38612SOL    HW117733  10.140   4.818  12.656
38612SOL    HW217734  10.152   4.958  12.598
38613SOL     OW17735   6.253   7.458   6.284
38613SOL    HW117736   6.310   7.473   6.359
38613SOL    HW217737   6.311   7.470   6.208
38614SOL     OW17738   4.878   4.205  11.474
38614SOL    HW117739   4.793   4.172  11.445
38614SOL    HW217740   4.858   4.263  11.548
38615SOL     OW17741  10.225   4.911  13.154
38615SOL    HW117742  10.249   4.917  13.246
38615SOL    HW217743  10.284   4.844  13.119
38616SOL     OW17744  14.715   3.215  10.164
38616SOL    HW117745  14.629   3.187  10.132
38616SOL    HW217746  14.696   3.279  10.232
38617SOL     OW17747   9.274   6.045  11.398
38617SOL    HW117748   9.270   6.008  11.309
38617SOL    HW217749   9.184   6.074  11.415
38618SOL     OW17750   6.372  12.043  13.842
38618SOL    HW117751   6.365  12.012  13.752
38618SOL    HW217752   6.305  11.994  13.890
38619SOL     OW17753   9.167  14.516   4.813
38619SOL    HW117754   9.210  14.594   4.846
38619SOL    HW217755   9.229  14.478   4.751
38620SOL     OW17756   0.348   4.444   4.516
38620SOL    HW117757   0.335   4.536   4.493
38620SOL    HW217758   0.274   4.398   4.476
38621SOL     OW17759   5.541  13.574  13.410
38621SOL    HW117760   5.583  13.572  13.496
38621SOL    HW217761   5.567  13.492  13.368
38622SOL     OW17762  12.460  10.844  13.360
38622SOL    HW117763  12.485  10.936  13.363
38622SOL    HW217764  12.472  10.812  13.450
38623SOL     OW17765  12.860   4.351   6.133
38623SOL    HW117766  12.933   4.347   6.195
38623SOL    HW217767  12.824   4.262   6.133
38624SOL     OW17768   6.157   9.984  10.355
38624SOL    HW117769   6.201   9.996  10.271
38624SOL    HW217770   6.072  10.027  10.344
38625SOL     OW17771  14.371   5.513  14.347
38625SOL    HW117772  14.392   5.421  14.330
38625SOL    HW217773  14.455   5.553  14.372
38626SOL     OW17774   9.792  11.559  14.019
38626SOL    HW117775   9.878  11.572  13.980
38626SOL    HW217776   9.780  11.633  14.078
38627SOL     OW17777  11.457   7.390  12.949
38627SOL    HW117778  11.422   7.352  12.869
38627SOL    HW217779  11.552   7.393  12.935
38628SOL     OW17780   6.627   4.372   4.716
38628SOL    HW117781   6.601   4.395   4.805
38628SOL    HW217782   6.569   4.300   4.692
38629SOL     OW17783  12.913   6.244   9.605
38629SOL    HW117784  12.996   6.277   9.638
38629SOL    HW217785  12.905   6.280   9.517
38630SOL     OW17786   6.769   7.339   9.632
38630SOL    HW117787   6.715   7.276   9.679
38630SOL    HW217788   6.734   7.339   9.543
38631SOL     OW17789   5.000   0.679  13.442
38631SOL    HW117790   5.044   0.762  13.422
38631SOL    HW217791   4.981   0.684  13.536
38632SOL     OW17792  11.596   7.584   5.738
38632SOL    HW117793  11.664   7.646   5.710
38632SOL    HW217794  11.640   7.499   5.738
38633SOL     OW17795   9.701   2.824  11.354
38633SOL    HW117796   9.656   2.900  11.392
38633SOL    HW217797   9.668   2.818  11.265
38634SOL     OW17798   4.089   8.554   5.132
38634SOL    HW117799   4.113   8.554   5.225
38634SOL    HW217800   4.043   8.471   5.120
38635SOL     OW17801   2.069  10.656   4.456
38635SOL    HW117802   2.020  10.737   4.452
38635SOL    HW217803   2.006  10.590   4.485
38636SOL     OW17804   8.067   4.884  14.161
38636SOL    HW117805   8.049   4.914  14.072
38636SOL    HW217806   8.154   4.918  14.181
38637SOL     OW17807   2.819   6.309   6.537
38637SOL    HW117808   2.727   6.281   6.530
38637SOL    HW217809   2.821   6.364   6.615
38638SOL     OW17810  14.291  10.379  11.628
38638SOL    HW117811  14.326  10.452  11.579
38638SOL    HW217812  14.361  10.313  11.627
38639SOL     OW17813  13.917   1.028   3.484
38639SOL    HW117814  13.968   0.957   3.444
38639SOL    HW217815  13.827   0.996   3.483
38640SOL     OW17816   9.221   3.221   7.243
38640SOL    HW117817   9.283   3.149   7.252
38640SOL    HW217818   9.149   3.198   7.302
38641SOL     OW17819  12.212   9.275   3.664
38641SOL    HW117820  12.224   9.273   3.569
38641SOL    HW217821  12.294   9.310   3.699
38642SOL     OW17822  11.965   7.256   2.321
38642SOL    HW117823  12.056   7.228   2.326
38642SOL    HW217824  11.923   7.216   2.397
38643SOL     OW17825  13.451   5.924  13.638
38643SOL    HW117826  13.406   5.891  13.559
38643SOL    HW217827  13.533   5.961  13.604
38644SOL     OW17828   1.712   1.380   4.926
38644SOL    HW117829   1.719   1.474   4.907
38644SOL    HW217830   1.618   1.363   4.929
38645SOL     OW17831   6.311   3.135   4.931
38645SOL    HW117832   6.227   3.093   4.912
38645SOL    HW217833   6.289   3.212   4.983
38646SOL     OW17834  14.750   0.714   4.991
38646SOL    HW117835  14.670   0.690   4.944
38646SOL    HW217836  14.771   0.802   4.960
38647SOL     OW17837  12.469  13.994  13.813
38647SOL    HW117838  12.404  14.064  13.813
38647SOL    HW217839  12.460  13.952  13.898
38648SOL     OW17840  14.833  13.291   8.592
38648SOL    HW117841  14.832  13.196   8.579
38648SOL    HW217842   0.031  13.320   8.549
38649SOL     OW17843   9.417   6.366   6.022
38649SOL    HW117844   9.408   6.339   6.114
38649SOL    HW217845   9.509   6.350   6.001
38650SOL     OW17846   6.011   0.830   2.068
38650SOL    HW117847   6.078   0.765   2.089
38650SOL    HW217848   6.034   0.860   1.980
38651SOL     OW17849   4.836   2.720   8.989
38651SOL    HW117850   4.878   2.744   9.072
38651SOL    HW217851   4.905   2.734   8.924
38652SOL     OW17852   7.370   5.775   2.661
38652SOL    HW117853   7.328   5.808   2.740
38652SOL    HW217854   7.298   5.760   2.600
38653SOL     OW17855  12.496   5.643   3.457
38653SOL    HW117856  12.409   5.682   3.449
38653SOL    HW217857  12.556   5.714   3.436
38654SOL     OW17858   2.386   4.842  13.027
38654SOL    HW117859   2.337   4.925  13.030
38654SOL    HW217860   2.460   4.860  12.969
38655SOL     OW17861   6.976   9.911   2.674
38655SOL    HW117862   6.901   9.938   2.622
38655SOL    HW217863   6.992   9.985   2.733
38656SOL     OW17864   6.982   8.816   7.532
38656SOL    HW117865   6.919   8.869   7.581
38656SOL    HW217866   7.002   8.867   7.454
38657SOL     OW17867   5.528   6.952  14.841
38657SOL    HW117868   5.520   7.021   0.024
38657SOL    HW217869   5.507   6.872   0.007
38658SOL     OW17870   2.859  10.531  12.804
38658SOL    HW117871   2.937  10.477  12.818
38658SOL    HW217872   2.860  10.594  12.876
38659SOL     OW17873   4.069   7.045   1.288
38659SOL    HW117874   4.068   6.961   1.243
38659SOL    HW217875   4.041   7.109   1.222
38660SOL     OW17876   0.485  11.313  10.346
38660SOL    HW117877   0.550  11.246  10.328
38660SOL    HW217878   0.477  11.315  10.441
38661SOL     OW17879   3.248   5.824  12.879
38661SOL    HW117880   3.168   5.875  12.891
38661SOL    HW217881   3.232   5.742  12.926
38662SOL     OW17882   0.691   2.869   6.774
38662SOL    HW117883   0.630   2.837   6.840
38662SOL    HW217884   0.660   2.958   6.756
38663SOL     OW17885  10.116   0.105   1.614
38663SOL    HW117886  10.142   0.193   1.638
38663SOL    HW217887  10.153   0.049   1.682
38664SOL     OW17888  10.354  12.271   5.726
38664SOL    HW117889  10.385  12.198   5.673
38664SOL    HW217890  10.434  12.313   5.758
38665SOL     OW17891   5.911   3.491   6.200
38665SOL    HW117892   5.930   3.481   6.107
38665SOL    HW217893   5.831   3.440   6.214
38666SOL     OW17894   7.846   7.467  10.120
38666SOL    HW117895   7.843   7.388  10.175
38666SOL    HW217896   7.869   7.435  10.033
38667SOL     OW17897   1.256   8.550   5.021
38667SOL    HW117898   1.230   8.460   5.038
38667SOL    HW217899   1.343   8.544   4.983
38668SOL     OW17900   0.126   8.408   0.541
38668SOL    HW117901   0.053   8.470   0.541
38668SOL    HW217902   0.192   8.449   0.486
38669SOL     OW17903   4.984   2.761  12.918
38669SOL    HW117904   5.041   2.772  12.842
38669SOL    HW217905   4.964   2.667  12.920
38670SOL     OW17906   4.159   0.204  11.101
38670SOL    HW117907   4.220   0.266  11.062
38670SOL    HW217908   4.175   0.211  11.195
38671SOL     OW17909   0.037   7.712  14.394
38671SOL    HW117910   0.114   7.710  14.337
38671SOL    HW217911  14.858   7.650  14.353
38672SOL     OW17912  12.897  12.230  11.909
38672SOL    HW117913  12.928  12.293  11.844
38672SOL    HW217914  12.974  12.212  11.963
38673SOL     OW17915   8.965  11.746  14.149
38673SOL    HW117916   8.941  11.695  14.071
38673SOL    HW217917   9.043  11.794  14.122
38674SOL     OW17918  12.996  14.138   3.190
38674SOL    HW117919  13.001  14.045   3.211
38674SOL    HW217920  12.902  14.158   3.189
38675SOL     OW17921   3.780  12.232   1.220
38675SOL    HW117922   3.743  12.145   1.213
38675SOL    HW217923   3.808  12.253   1.130
38676SOL     OW17924  11.163   0.614   8.081
38676SOL    HW117925  11.190   0.522   8.093
38676SOL    HW217926  11.157   0.624   7.986
38677SOL     OW17927   9.601   7.970   5.290
38677SOL    HW117928   9.562   7.886   5.268
38677SOL    HW217929   9.554   8.033   5.236
38678SOL     OW17930   4.657   2.195   5.677
38678SOL    HW117931   4.738   2.153   5.650
38678SOL    HW217932   4.601   2.190   5.599
38679SOL     OW17933   0.105  10.856   4.784
38679SOL    HW117934   0.090  10.766   4.753
38679SOL    HW217935   0.183  10.850   4.838
38680SOL     OW17936  12.198   0.235   3.376
38680SOL    HW117937  12.198   0.190   3.291
38680SOL    HW217938  12.177   0.167   3.440
38681SOL     OW17939  12.760   9.685   4.145
38681SOL    HW117940  12.683   9.732   4.113
38681SOL    HW217941  12.815   9.675   4.067
38682SOL     OW17942   6.395   3.580   4.479
38682SOL    HW117943   6.446   3.550   4.554
38682SOL    HW217944   6.382   3.501   4.426
38683SOL     OW17945  14.618   4.543   2.802
38683SOL    HW117946  14.626   4.481   2.875
38683SOL    HW217947  14.648   4.626   2.838
38684SOL     OW17948   1.182  11.714  13.407
38684SOL    HW117949   1.109  11.703  13.347
38684SOL    HW217950   1.228  11.630  13.405
38685SOL     OW17951   8.493   4.741   9.416
38685SOL    HW117952   8.515   4.663   9.465
38685SOL    HW217953   8.560   4.745   9.347
38686SOL     OW17954   8.770   4.119   6.503
38686SOL    HW117955   8.808   4.116   6.591
38686SOL    HW217956   8.782   4.030   6.469
38687SOL     OW17957   3.435   1.830   0.906
38687SOL    HW117958   3.444   1.766   0.977
38687SOL    HW217959   3.512   1.815   0.851
38688SOL     OW17960  14.857   0.358   8.714
38688SOL    HW117961  14.794   0.289   8.697
38688SOL    HW217962   0.037   0.320   8.776
38689SOL     OW17963   5.968  13.005  13.976
38689SOL    HW117964   6.021  12.927  13.959
38689SOL    HW217965   6.027  13.079  13.962
38690SOL     OW17966  14.331   2.771  12.585
38690SOL    HW117967  14.415   2.815  12.576
38690SOL    HW217968  14.353   2.681  12.607
38691SOL     OW17969  11.318   5.826   0.626
38691SOL    HW117970  11.404   5.802   0.591
38691SOL    HW217971  11.259   5.759   0.592
38692SOL     OW17972  10.822  14.424   5.591
38692SOL    HW117973  10.881  14.353   5.566
38692SOL    HW217974  10.780  14.393   5.671
38693SOL     OW17975   3.360   5.478   2.704
38693SOL    HW117976   3.320   5.480   2.617
38693SOL    HW217977   3.357   5.569   2.734
38694SOL     OW17978   0.751  14.051   2.756
38694SOL    HW117979   0.675  14.060   2.813
38694SOL    HW217980   0.780  13.961   2.767
38695SOL     OW17981   3.005   3.480   6.992
38695SOL    HW117982   2.980   3.572   6.997
38695SOL    HW217983   3.016   3.453   7.084
38696SOL     OW17984   2.047   4.971  12.131
38696SOL    HW117985   1.980   4.952  12.065
38696SOL    HW217986   2.089   5.051  12.100
38697SOL     OW17987   3.170  12.636   7.630
38697SOL    HW117988   3.130  12.684   7.557
38697SOL    HW217989   3.229  12.574   7.588
38698SOL     OW17990   9.230  14.859  14.479
38698SOL    HW117991   9.168  14.803  14.526
38698SOL    HW217992   9.252  14.810  14.400
38699SOL     OW17993   4.401  11.383   1.670
38699SOL    HW117994   4.409  11.291   1.643
38699SOL    HW217995   4.318  11.386   1.718
38700SOL     OW17996   4.329   7.715   5.473
38700SOL    HW117997   4.375   7.711   5.557
38700SOL    HW217998   4.320   7.809   5.455
38701SOL     OW17999   1.924  13.063  12.813
38701SOL    HW118000   2.003  13.038  12.861
38701SOL    HW218001   1.876  13.120  12.874
38702SOL     OW18002   0.751   6.591   1.273
38702SOL    HW118003   0.702   6.519   1.310
38702SOL    HW218004   0.833   6.551   1.242
38703SOL     OW18005   9.514  11.617  11.772
38703SOL    HW118006   9.600  11.656  11.788
38703SOL    HW218007   9.504  11.619  11.676
38704SOL     OW18008   6.022  10.964  10.946
38704SOL    HW118009   6.005  10.946  10.854
38704SOL    HW218010   5.938  10.997  10.979
38705SOL     OW18011  10.738   0.268   7.782
38705SOL    HW118012  10.794   0.342   7.804
38705SOL    HW218013  10.780   0.192   7.822
38706SOL     OW18014  13.338   4.659   3.616
38706SOL    HW118015  13.352   4.612   3.698
38706SOL    HW218016  13.243   4.670   3.610
38707SOL     OW18017   7.251  13.601   9.862
38707SOL    HW118018   7.237  13.570   9.773
38707SOL    HW218019   7.327  13.660   9.855
38708SOL     OW18020  10.541   9.924  12.074
38708SOL    HW118021  10.536   9.920  11.979
38708SOL    HW218022  10.455   9.897  12.104
38709SOL     OW18023  12.372   7.536   5.802
38709SOL    HW118024  12.289   7.528   5.848
38709SOL    HW218025  12.391   7.447   5.770
38710SOL     OW18026  12.446   8.514   8.810
38710SOL    HW118027  12.445   8.419   8.825
38710SOL    HW218028  12.399   8.550   8.885
38711SOL     OW18029   9.450   3.984  10.593
38711SOL    HW118030   9.520   3.919  10.594
38711SOL    HW218031   9.468   4.037  10.515
38712SOL     OW18032   7.627  11.038  11.266
38712SOL    HW118033   7.718  11.043  11.235
38712SOL    HW218034   7.613  10.945  11.285
38713SOL     OW18035   3.878   0.984   9.984
38713SOL    HW118036   3.868   1.031   9.901
38713SOL    HW218037   3.965   1.010  10.016
38714SOL     OW18038   6.414  13.137   3.545
38714SOL    HW118039   6.357  13.202   3.504
38714SOL    HW218040   6.446  13.180   3.624
38715SOL     OW18041  13.607   0.338   0.868
38715SOL    HW118042  13.664   0.414   0.876
38715SOL    HW218043  13.558   0.336   0.950
38716SOL     OW18044   3.402  13.866   3.561
38716SOL    HW118045   3.307  13.876   3.567
38716SOL    HW218046   3.416  13.772   3.572
38717SOL     OW18047   2.406   4.003  10.738
38717SOL    HW118048   2.387   4.097  10.736
38717SOL    HW218049   2.356   3.970  10.813
38718SOL     OW18050   5.568   6.193   9.141
38718SOL    HW118051   5.548   6.269   9.085
38718SOL    HW218052   5.628   6.227   9.207
38719SOL     OW18053   5.259  13.717   4.354
38719SOL    HW118054   5.327  13.650   4.353
38719SOL    HW218055   5.182  13.673   4.391
38720SOL     OW18056  12.871   2.584  10.053
38720SOL    HW118057  12.896   2.525  10.124
38720SOL    HW218058  12.808   2.644  10.093
38721SOL     OW18059   3.792   8.698   8.448
38721SOL    HW118060   3.763   8.676   8.537
38721SOL    HW218061   3.718   8.673   8.392
38722SOL     OW18062   7.364  11.859  14.517
38722SOL    HW118063   7.410  11.899  14.591
38722SOL    HW218064   7.327  11.934  14.469
38723SOL     OW18065  11.531   5.441  14.036
38723SOL    HW118066  11.467   5.370  14.036
38723SOL    HW218067  11.615   5.398  14.020
38724SOL     OW18068  13.810   0.854   1.099
38724SOL    HW118069  13.726   0.835   1.142
38724SOL    HW218070  13.810   0.950   1.090
38725SOL     OW18071  13.174   8.797   2.791
38725SOL    HW118072  13.123   8.775   2.869
38725SOL    HW218073  13.187   8.713   2.747
38726SOL     OW18074   7.870   8.292   9.524
38726SOL    HW118075   7.781   8.278   9.491
38726SOL    HW218076   7.922   8.222   9.485
38727SOL     OW18077  14.292   4.976   6.357
38727SOL    HW118078  14.252   4.974   6.271
38727SOL    HW218079  14.314   4.884   6.376
38728SOL     OW18080   0.188   4.981  12.468
38728SOL    HW118081   0.204   5.067  12.508
38728SOL    HW218082   0.138   5.001  12.389
38729SOL     OW18083   3.741  11.754  14.515
38729SOL    HW118084   3.824  11.729  14.474
38729SOL    HW218085   3.755  11.845  14.542
38730SOL     OW18086   9.262  14.110   8.179
38730SOL    HW118087   9.168  14.131   8.178
38730SOL    HW218088   9.268  14.027   8.227
38731SOL     OW18089   6.607   0.860   6.727
38731SOL    HW118090   6.700   0.871   6.750
38731SOL    HW218091   6.596   0.914   6.648
38732SOL     OW18092   1.567   8.018   3.115
38732SOL    HW118093   1.518   8.040   3.194
38732SOL    HW218094   1.633   8.087   3.108
38733SOL     OW18095  12.787  14.239   7.529
38733SOL    HW118096  12.716  14.300   7.514
38733SOL    HW218097  12.773  14.207   7.618
38734SOL     OW18098   8.603  11.157   2.547
38734SOL    HW118099   8.567  11.071   2.569
38734SOL    HW218100   8.544  11.219   2.590
38735SOL     OW18101   4.807  12.830  12.433
38735SOL    HW118102   4.893  12.853  12.467
38735SOL    HW218103   4.825  12.784  12.351
38736SOL     OW18104   3.438   7.024  12.816
38736SOL    HW118105   3.362   7.050  12.763
38736SOL    HW218106   3.511   7.074  12.780
38737SOL     OW18107   7.438  14.540   5.932
38737SOL    HW118108   7.447  14.450   5.900
38737SOL    HW218109   7.523  14.580   5.915
38738SOL     OW18110  12.304   4.919  11.857
38738SOL    HW118111  12.281   5.008  11.832
38738SOL    HW218112  12.261   4.907  11.943
38739SOL     OW18113  11.926   0.285  10.348
38739SOL    HW118114  11.907   0.350  10.281
38739SOL    HW218115  11.909   0.330  10.431
38740SOL     OW18116   2.971   8.392   7.063
38740SOL    HW118117   2.987   8.456   7.132
38740SOL    HW218118   2.877   8.396   7.047
38741SOL     OW18119  12.624   1.378  10.345
38741SOL    HW118120  12.531   1.381  10.368
38741SOL    HW218121  12.670   1.370  10.429
38742SOL     OW18122   6.436   8.148   6.070
38742SOL    HW118123   6.486   8.218   6.030
38742SOL    HW218124   6.495   8.073   6.069
38743SOL     OW18125  13.368   9.931  14.784
38743SOL    HW118126  13.419  10.011  14.791
38743SOL    HW218127  13.339   9.927  14.693
38744SOL     OW18128  10.463   7.486   3.162
38744SOL    HW118129  10.427   7.537   3.235
38744SOL    HW218130  10.545   7.450   3.196
38745SOL     OW18131  10.005   2.071   5.394
38745SOL    HW118132   9.983   2.145   5.450
38745SOL    HW218133   9.935   2.008   5.409
38746SOL     OW18134   7.093   2.292   2.072
38746SOL    HW118135   7.175   2.257   2.038
38746SOL    HW218136   7.113   2.382   2.095
38747SOL     OW18137  13.895   4.114   7.939
38747SOL    HW118138  13.882   4.028   7.979
38747SOL    HW218139  13.977   4.146   7.977
38748SOL     OW18140   3.107   9.840  13.162
38748SOL    HW118141   3.173   9.783  13.122
38748SOL    HW218142   3.096   9.804  13.250
38749SOL     OW18143   6.768   0.855   4.288
38749SOL    HW118144   6.708   0.927   4.305
38749SOL    HW218145   6.715   0.776   4.298
38750SOL     OW18146   6.085  14.303  13.771
38750SOL    HW118147   6.047  14.385  13.738
38750SOL    HW218148   6.041  14.289  13.855
38751SOL     OW18149  13.241   5.666   6.161
38751SOL    HW118150  13.260   5.580   6.197
38751SOL    HW218151  13.315   5.684   6.103
38752SOL     OW18152   0.848   2.602   8.094
38752SOL    HW118153   0.851   2.694   8.120
38752SOL    HW218154   0.759   2.574   8.117
38753SOL     OW18155   6.522  11.830  10.088
38753SOL    HW118156   6.518  11.918  10.124
38753SOL    HW218157   6.431  11.805  10.074
38754SOL     OW18158  12.626   7.577   0.515
38754SOL    HW118159  12.640   7.664   0.552
38754SOL    HW218160  12.707   7.529   0.534
38755SOL     OW18161   3.837   6.391  11.964
38755SOL    HW118162   3.742   6.402  11.952
38755SOL    HW218163   3.862   6.460  12.025
38756SOL     OW18164   4.492  14.034   8.939
38756SOL    HW118165   4.409  14.067   8.974
38756SOL    HW218166   4.483  14.044   8.844
38757SOL     OW18167   2.911   0.119   6.394
38757SOL    HW118168   2.823   0.155   6.386
38757SOL    HW218169   2.929   0.082   6.308
38758SOL     OW18170   2.805  12.432   2.066
38758SOL    HW118171   2.783  12.345   2.098
38758SOL    HW218172   2.843  12.417   1.979
38759SOL     OW18173   7.412  10.199   8.680
38759SOL    HW118174   7.447  10.195   8.591
38759SOL    HW218175   7.334  10.253   8.672
38760SOL     OW18176   6.508   0.110   0.703
38760SOL    HW118177   6.485   0.088   0.793
38760SOL    HW218178   6.599   0.140   0.708
38761SOL     OW18179   1.358  10.915   6.201
38761SOL    HW118180   1.386  10.832   6.161
38761SOL    HW218181   1.269  10.928   6.171
38762SOL     OW18182   3.497   8.920  10.035
38762SOL    HW118183   3.495   8.844   9.977
38762SOL    HW218184   3.587   8.950  10.032
38763SOL     OW18185   4.049  10.009   7.563
38763SOL    HW118186   4.046  10.104   7.558
38763SOL    HW218187   4.140   9.987   7.546
38764SOL     OW18188   5.770   6.319  11.472
38764SOL    HW118189   5.791   6.227  11.452
38764SOL    HW218190   5.843   6.348  11.527
38765SOL     OW18191   1.609  13.985  12.877
38765SOL    HW118192   1.538  13.926  12.901
38765SOL    HW218193   1.568  14.051  12.822
38766SOL     OW18194   9.598  14.530   5.337
38766SOL    HW118195   9.537  14.570   5.275
38766SOL    HW218196   9.542  14.499   5.409
38767SOL     OW18197   6.875   8.594  12.855
38767SOL    HW118198   6.970   8.593  12.852
38767SOL    HW218199   6.848   8.519  12.802
38768SOL     OW18200   7.825   5.481   8.716
38768SOL    HW118201   7.821   5.470   8.621
38768SOL    HW218202   7.840   5.574   8.729
38769SOL     OW18203  10.433  10.779   8.300
38769SOL    HW118204  10.484  10.857   8.324
38769SOL    HW218205  10.499  10.719   8.264
38770SOL     OW18206  11.071   9.018  11.354
38770SOL    HW118207  10.978   9.037  11.362
38770SOL    HW218208  11.077   8.961  11.277
38771SOL     OW18209   7.802   5.130   4.566
38771SOL    HW118210   7.715   5.109   4.530
38771SOL    HW218211   7.826   5.213   4.525
38772SOL     OW18212   9.004   6.212   5.099
38772SOL    HW118213   9.059   6.278   5.141
38772SOL    HW218214   8.915   6.233   5.128
38773SOL     OW18215   1.702   5.179  13.751
38773SOL    HW118216   1.607   5.178  13.760
38773SOL    HW218217   1.728   5.267  13.779
38774SOL     OW18218   8.251   1.358   3.352
38774SOL    HW118219   8.272   1.440   3.307
38774SOL    HW218220   8.335   1.312   3.357
38775SOL     OW18221   5.766  13.340   5.109
38775SOL    HW118222   5.782  13.270   5.173
38775SOL    HW218223   5.699  13.304   5.051
38776SOL     OW18224   4.882   2.721   2.668
38776SOL    HW118225   4.878   2.636   2.710
38776SOL    HW218226   4.971   2.726   2.632
38777SOL     OW18227  13.550  12.853  11.237
38777SOL    HW118228  13.635  12.896  11.241
38777SOL    HW218229  13.533  12.842  11.144
38778SOL     OW18230   4.601   6.476   5.740
38778SOL    HW118231   4.686   6.448   5.706
38778SOL    HW218232   4.540   6.464   5.667
38779SOL     OW18233   1.797  10.162   4.889
38779SOL    HW118234   1.703  10.166   4.906
38779SOL    HW218235   1.806  10.183   4.796
38780SOL     OW18236   1.643   5.721   5.913
38780SOL    HW118237   1.698   5.647   5.886
38780SOL    HW218238   1.659   5.730   6.007
38781SOL     OW18239   0.204   7.435  10.030
38781SOL    HW118240   0.226   7.380   9.954
38781SOL    HW218241   0.276   7.421  10.091
38782SOL     OW18242   0.535   5.956  13.636
38782SOL    HW118243   0.625   5.963  13.603
38782SOL    HW218244   0.542   5.896  13.710
38783SOL     OW18245  13.525   7.036   5.589
38783SOL    HW118246  13.430   7.045   5.601
38783SOL    HW218247  13.543   6.944   5.611
38784SOL     OW18248   5.195   1.944   9.334
38784SOL    HW118249   5.232   1.956   9.421
38784SOL    HW218250   5.272   1.937   9.276
38785SOL     OW18251   0.056  11.144   0.276
38785SOL    HW118252   0.099  11.228   0.261
38785SOL    HW218253   0.121  11.091   0.322
38786SOL     OW18254   8.282   0.807   3.061
38786SOL    HW118255   8.229   0.848   3.128
38786SOL    HW218256   8.335   0.742   3.108
38787SOL     OW18257   1.486   0.007   1.822
38787SOL    HW118258   1.438  14.855   1.747
38787SOL    HW218259   1.467  14.826   1.892
38788SOL     OW18260   7.445  11.530  14.227
38788SOL    HW118261   7.537  11.508  14.244
38788SOL    HW218262   7.395  11.474  14.286
38789SOL     OW18263  14.526  10.600  10.579
38789SOL    HW118264  14.446  10.549  10.586
38789SOL    HW218265  14.596  10.537  10.591
38790SOL     OW18266   1.202   1.874   6.527
38790SOL    HW118267   1.118   1.909   6.556
38790SOL    HW218268   1.181   1.824   6.448
38791SOL     OW18269   7.376   7.676  11.812
38791SOL    HW118270   7.435   7.661  11.738
38791SOL    HW218271   7.433   7.669  11.889
38792SOL     OW18272   0.664  14.609   4.412
38792SOL    HW118273   0.713  14.683   4.377
38792SOL    HW218274   0.649  14.552   4.337
38793SOL     OW18275  11.584  14.420   2.195
38793SOL    HW118276  11.650  14.418   2.125
38793SOL    HW218277  11.564  14.513   2.206
38794SOL     OW18278  12.721   1.908  14.880
38794SOL    HW118279  12.719   1.815  14.860
38794SOL    HW218280  12.628   1.933   0.005
38795SOL     OW18281  10.780   0.256   9.759
38795SOL    HW118282  10.704   0.301   9.723
38795SOL    HW218283  10.773   0.166   9.726
38796SOL     OW18284   0.903   4.061   3.329
38796SOL    HW118285   0.961   4.137   3.335
38796SOL    HW218286   0.815   4.097   3.332
38797SOL     OW18287   3.912   3.965   5.490
38797SOL    HW118288   3.962   3.951   5.571
38797SOL    HW218289   3.823   3.936   5.511
38798SOL     OW18290   7.612   0.048  13.427
38798SOL    HW118291   7.613   0.113  13.357
38798SOL    HW218292   7.682   0.075  13.487
38799SOL     OW18293   0.803   2.238  14.445
38799SOL    HW118294   0.751   2.287  14.382
38799SOL    HW218295   0.748   2.234  14.524
38800SOL     OW18296   9.319   9.972   5.202
38800SOL    HW118297   9.306   9.989   5.109
38800SOL    HW218298   9.242   9.921   5.228
38801SOL     OW18299  13.875  11.456  11.829
38801SOL    HW118300  13.912  11.392  11.769
38801SOL    HW218301  13.934  11.531  11.823
38802SOL     OW18302  12.228  11.240  11.380
38802SOL    HW118303  12.233  11.186  11.459
38802SOL    HW218304  12.304  11.298  11.386
38803SOL     OW18305   9.896   5.926   9.506
38803SOL    HW118306   9.979   5.880   9.517
38803SOL    HW218307   9.889   5.943   9.412
38804SOL     OW18308   0.975  13.262   0.829
38804SOL    HW118309   0.901  13.207   0.856
38804SOL    HW218310   0.953  13.349   0.862
38805SOL     OW18311   9.778   5.276  13.072
38805SOL    HW118312   9.764   5.203  13.012
38805SOL    HW218313   9.808   5.235  13.153
38806SOL     OW18314   1.027  12.288   6.163
38806SOL    HW118315   0.955  12.350   6.149
38806SOL    HW218316   1.089  12.308   6.093
38807SOL     OW18317  12.207  11.487   4.038
38807SOL    HW118318  12.143  11.427   4.000
38807SOL    HW218319  12.157  11.566   4.059
38808SOL     OW18320   3.288  13.160   0.306
38808SOL    HW118321   3.276  13.198   0.393
38808SOL    HW218322   3.336  13.078   0.321
38809SOL     OW18323   8.080   7.058  11.725
38809SOL    HW118324   8.066   7.038  11.632
38809SOL    HW218325   8.076   6.973  11.768
38810SOL     OW18326  11.164   0.104   7.306
38810SOL    HW118327  11.201   0.051   7.235
38810SOL    HW218328  11.125   0.179   7.262
38811SOL     OW18329  13.521  13.092   7.529
38811SOL    HW118330  13.542  13.170   7.478
38811SOL    HW218331  13.603  13.069   7.574
38812SOL     OW18332  11.767   7.995   0.260
38812SOL    HW118333  11.813   7.923   0.304
38812SOL    HW218334  11.675   7.976   0.274
38813SOL     OW18335  14.798   2.591   3.525
38813SOL    HW118336  14.737   2.665   3.528
38813SOL    HW218337  14.779   2.541   3.604
38814SOL     OW18338  10.363   8.969   1.427
38814SOL    HW118339  10.356   8.994   1.335
38814SOL    HW218340  10.450   8.929   1.435
38815SOL     OW18341   7.226  12.033   0.466
38815SOL    HW118342   7.198  11.969   0.401
38815SOL    HW218343   7.151  12.043   0.524
38816SOL     OW18344   1.680  10.336  13.515
38816SOL    HW118345   1.703  10.243  13.512
38816SOL    HW218346   1.762  10.382  13.497
38817SOL     OW18347   1.820  12.427   3.574
38817SOL    HW118348   1.784  12.502   3.621
38817SOL    HW218349   1.856  12.370   3.642
38818SOL     OW18350   8.098   4.159  11.033
38818SOL    HW118351   8.119   4.193  11.120
38818SOL    HW218352   8.003   4.163  11.029
38819SOL     OW18353  12.391   2.299   6.691
38819SOL    HW118354  12.336   2.378   6.692
38819SOL    HW218355  12.358   2.246   6.763
38820SOL     OW18356   0.766  12.138  12.539
38820SOL    HW118357   0.725  12.154  12.624
38820SOL    HW218358   0.857  12.165  12.550
38821SOL     OW18359   6.751   0.819  10.887
38821SOL    HW118360   6.670   0.845  10.844
38821SOL    HW218361   6.725   0.799  10.977
38822SOL     OW18362   1.373   5.944   5.190
38822SOL    HW118363   1.339   6.019   5.142
38822SOL    HW218364   1.308   5.928   5.259
38823SOL     OW18365   9.771   0.367  10.368
38823SOL    HW118366   9.741   0.284  10.330
38823SOL    HW218367   9.858   0.380  10.332
38824SOL     OW18368   8.559   6.034  11.924
38824SOL    HW118369   8.576   5.969  11.993
38824SOL    HW218370   8.472   6.013  11.891
38825SOL     OW18371   0.864  14.782   9.701
38825SOL    HW118372   0.768  14.783   9.699
38825SOL    HW218373   0.887  14.692   9.724
38826SOL     OW18374  11.931   1.711   8.384
38826SOL    HW118375  11.948   1.635   8.439
38826SOL    HW218376  11.985   1.697   8.306
38827SOL     OW18377   6.442   7.228   7.893
38827SOL    HW118378   6.380   7.158   7.909
38827SOL    HW218379   6.400   7.282   7.826
38828SOL     OW18380   5.501  10.332   2.045
38828SOL    HW118381   5.460  10.405   2.092
38828SOL    HW218382   5.572  10.304   2.104
38829SOL     OW18383   9.081  11.490   8.679
38829SOL    HW118384   9.040  11.563   8.633
38829SOL    HW218385   9.115  11.529   8.760
38830SOL     OW18386   5.940  13.432  11.299
38830SOL    HW118387   6.006  13.370  11.268
38830SOL    HW218388   5.857  13.391  11.278
38831SOL     OW18389   8.405   8.387  10.632
38831SOL    HW118390   8.433   8.348  10.549
38831SOL    HW218391   8.310   8.392  10.625
38832SOL     OW18392  11.578   5.140   0.580
38832SOL    HW118393  11.636   5.157   0.655
38832SOL    HW218394  11.555   5.048   0.588
38833SOL     OW18395   9.574  14.515   9.236
38833SOL    HW118396   9.519  14.543   9.309
38833SOL    HW218397   9.521  14.532   9.158
38834SOL     OW18398   3.780   4.586   6.236
38834SOL    HW118399   3.723   4.546   6.301
38834SOL    HW218400   3.816   4.663   6.279
38835SOL     OW18401   4.028   0.474  11.684
38835SOL    HW118402   4.077   0.550  11.653
38835SOL    HW218403   4.086   0.400  11.671
38836SOL     OW18404   7.030   7.978  10.709
38836SOL    HW118405   7.077   8.056  10.679
38836SOL    HW218406   7.061   7.966  10.799
38837SOL     OW18407  14.793   5.878   0.318
38837SOL    HW118408  14.744   5.833   0.249
38837SOL    HW218409  14.806   5.812   0.386
38838SOL     OW18410  13.523   9.211   5.268
38838SOL    HW118411  13.463   9.281   5.241
38838SOL    HW218412  13.553   9.172   5.186
38839SOL     OW18413   0.396   0.310   5.862
38839SOL    HW118414   0.373   0.278   5.775
38839SOL    HW218415   0.441   0.393   5.845
38840SOL     OW18416   9.693   9.831  11.789
38840SOL    HW118417   9.722   9.844  11.699
38840SOL    HW218418   9.681   9.737  11.797
38841SOL     OW18419   0.775   0.708  12.030
38841SOL    HW118420   0.849   0.760  11.999
38841SOL    HW218421   0.700   0.767  12.023
38842SOL     OW18422   3.928   9.734   5.101
38842SOL    HW118423   4.021   9.750   5.118
38842SOL    HW218424   3.888   9.727   5.188
38843SOL     OW18425  14.866  11.025   1.788
38843SOL    HW118426   0.006  10.946   1.738
38843SOL    HW218427  14.779  11.048   1.757
38844SOL     OW18428  14.442  14.304  14.642
38844SOL    HW118429  14.429  14.220  14.686
38844SOL    HW218430  14.449  14.282  14.549
38845SOL     OW18431  11.039  12.268   4.327
38845SOL    HW118432  11.011  12.193   4.275
38845SOL    HW218433  10.991  12.342   4.290
38846SOL     OW18434   7.769  14.648   6.571
38846SOL    HW118435   7.810  14.577   6.522
38846SOL    HW218436   7.829  14.665   6.644
38847SOL     OW18437   4.074  11.904   2.076
38847SOL    HW118438   4.045  11.813   2.089
38847SOL    HW218439   4.094  11.909   1.982
38848SOL     OW18440   3.684   5.144  11.325
38848SOL    HW118441   3.760   5.143  11.267
38848SOL    HW218442   3.641   5.228  11.307
38849SOL     OW18443   8.071   7.881  14.053
38849SOL    HW118444   8.051   7.938  13.978
38849SOL    HW218445   8.042   7.794  14.025
38850SOL     OW18446   0.602  13.308  13.894
38850SOL    HW118447   0.574  13.378  13.835
38850SOL    HW218448   0.697  13.319  13.900
38851SOL     OW18449  12.254   3.424   6.907
38851SOL    HW118450  12.237   3.439   7.000
38851SOL    HW218451  12.220   3.502   6.864
38852SOL     OW18452   1.089   0.501   2.429
38852SOL    HW118453   1.017   0.441   2.449
38852SOL    HW218454   1.116   0.478   2.340
38853SOL     OW18455  12.655   4.738   6.670
38853SOL    HW118456  12.632   4.830   6.655
38853SOL    HW218457  12.580   4.689   6.637
38854SOL     OW18458  11.930   4.781   2.375
38854SOL    HW118459  11.862   4.843   2.347
38854SOL    HW218460  11.899   4.747   2.458
38855SOL     OW18461   8.358   4.029  12.232
38855SOL    HW118462   8.392   4.093  12.170
38855SOL    HW218463   8.264   4.048  12.237
38856SOL     OW18464  12.855  10.308  12.446
38856SOL    HW118465  12.788  10.260  12.397
38856SOL    HW218466  12.810  10.339  12.524
38857SOL     OW18467   1.140   9.012   9.129
38857SOL    HW118468   1.130   8.924   9.166
38857SOL    HW218469   1.052   9.037   9.102
38858SOL     OW18470   8.086   3.106   8.982
38858SOL    HW118471   8.086   3.171   9.053
38858SOL    HW218472   7.993   3.086   8.969
38859SOL     OW18473  10.085   3.487   6.885
38859SOL    HW118474  10.141   3.564   6.883
38859SOL    HW218475  10.047   3.487   6.973
38860SOL     OW18476   3.431   0.421   8.655
38860SOL    HW118477   3.425   0.371   8.574
38860SOL    HW218478   3.448   0.355   8.722
38861SOL     OW18479   8.245   2.369   5.059
38861SOL    HW118480   8.197   2.439   5.103
38861SOL    HW218481   8.337   2.390   5.074
38862SOL     OW18482   2.181   4.060  12.216
38862SOL    HW118483   2.188   3.984  12.274
38862SOL    HW218484   2.090   4.060  12.186
38863SOL     OW18485   7.011  13.405   9.133
38863SOL    HW118486   6.956  13.479   9.158
38863SOL    HW218487   7.043  13.428   9.046
38864SOL     OW18488   1.492   6.667   5.491
38864SOL    HW118489   1.579   6.629   5.504
38864SOL    HW218490   1.503   6.726   5.416
38865SOL     OW18491   3.395   6.578   9.563
38865SOL    HW118492   3.468   6.580   9.501
38865SOL    HW218493   3.342   6.655   9.540
38866SOL     OW18494   9.633   3.848   2.354
38866SOL    HW118495   9.572   3.890   2.293
38866SOL    HW218496   9.687   3.921   2.387
38867SOL     OW18497   4.974   8.184   7.673
38867SOL    HW118498   4.908   8.138   7.621
38867SOL    HW218499   5.034   8.116   7.702
38868SOL     OW18500  11.258   8.422   0.308
38868SOL    HW118501  11.171   8.460   0.293
38868SOL    HW218502  11.272   8.365   0.232
38869SOL     OW18503  12.269  10.431   2.276
38869SOL    HW118504  12.198  10.494   2.288
38869SOL    HW218505  12.256  10.366   2.345
38870SOL     OW18506   9.849  11.140   2.408
38870SOL    HW118507   9.898  11.203   2.355
38870SOL    HW218508   9.885  11.149   2.496
38871SOL     OW18509  14.664  10.682   4.981
38871SOL    HW118510  14.740  10.670   5.037
38871SOL    HW218511  14.685  10.758   4.928
38872SOL     OW18512  13.048   8.613   5.944
38872SOL    HW118513  13.058   8.563   5.863
38872SOL    HW218514  12.958   8.645   5.941
38873SOL     OW18515   5.708  12.635   9.534
38873SOL    HW118516   5.750  12.678   9.608
38873SOL    HW218517   5.629  12.687   9.518
38874SOL     OW18518   9.588   8.983   8.318
38874SOL    HW118519   9.533   8.905   8.326
38874SOL    HW218520   9.663   8.967   8.375
38875SOL     OW18521   6.210  11.578   7.473
38875SOL    HW118522   6.126  11.623   7.473
38875SOL    HW218523   6.273  11.645   7.502
38876SOL     OW18524   5.818  10.842   5.294
38876SOL    HW118525   5.830  10.881   5.207
38876SOL    HW218526   5.756  10.771   5.280
38877SOL     OW18527   0.427   9.375   0.304
38877SOL    HW118528   0.350   9.328   0.272
38877SOL    HW218529   0.484   9.384   0.227
38878SOL     OW18530   3.743  11.441   8.647
38878SOL    HW118531   3.740  11.419   8.553
38878SOL    HW218532   3.654  11.469   8.668
38879SOL     OW18533  12.950   8.726   2.957
38879SOL    HW118534  12.964   8.633   2.974
38879SOL    HW218535  12.867   8.730   2.909
38880SOL     OW18536   7.386   5.585  10.722
38880SOL    HW118537   7.452   5.582  10.653
38880SOL    HW218538   7.415   5.520  10.786
38881SOL     OW18539   0.520   9.966   6.052
38881SOL    HW118540   0.537   9.921   5.970
38881SOL    HW218541   0.449   9.916   6.092
38882SOL     OW18542   5.956   8.240  10.881
38882SOL    HW118543   5.882   8.290  10.847
38882SOL    HW218544   6.032   8.297  10.866
38883SOL     OW18545  11.590   2.686  13.749
38883SOL    HW118546  11.649   2.663  13.677
38883SOL    HW218547  11.603   2.617  13.813
38884SOL     OW18548   8.144   6.094   3.923
38884SOL    HW118549   8.186   6.179   3.938
38884SOL    HW218550   8.105   6.102   3.836
38885SOL     OW18551   1.898   5.349   6.257
38885SOL    HW118552   1.918   5.443   6.257
38885SOL    HW218553   1.981   5.306   6.238
38886SOL     OW18554   7.706  10.562  10.274
38886SOL    HW118555   7.718  10.635  10.334
38886SOL    HW218556   7.638  10.508  10.314
38887SOL     OW18557   7.335   7.566   8.749
38887SOL    HW118558   7.305   7.528   8.666
38887SOL    HW218559   7.372   7.651   8.725
38888SOL     OW18560  14.222   2.158   1.636
38888SOL    HW118561  14.135   2.196   1.639
38888SOL    HW218562  14.281   2.232   1.647
38889SOL     OW18563   4.713   3.881   2.669
38889SOL    HW118564   4.712   3.855   2.577
38889SOL    HW218565   4.723   3.976   2.667
38890SOL     OW18566  10.079   0.929   5.265
38890SOL    HW118567  10.170   0.920   5.237
38890SOL    HW218568  10.063   1.024   5.266
38891SOL     OW18569   7.722   2.152   1.212
38891SOL    HW118570   7.783   2.109   1.271
38891SOL    HW218571   7.747   2.244   1.213
38892SOL     OW18572  14.386  11.397   0.355
38892SOL    HW118573  14.366  11.402   0.448
38892SOL    HW218574  14.345  11.475   0.317
38893SOL     OW18575   2.046   9.718   9.128
38893SOL    HW118576   2.035   9.654   9.058
38893SOL    HW218577   1.961   9.759   9.137
38894SOL     OW18578  12.059   2.932   8.142
38894SOL    HW118579  11.994   2.927   8.213
38894SOL    HW218580  12.025   2.872   8.075
38895SOL     OW18581   8.855   4.187   5.731
38895SOL    HW118582   8.835   4.104   5.776
38895SOL    HW218583   8.774   4.237   5.737
38896SOL     OW18584   6.229   4.401   6.340
38896SOL    HW118585   6.290   4.327   6.344
38896SOL    HW218586   6.285   4.478   6.341
38897SOL     OW18587   7.513  12.880  11.224
38897SOL    HW118588   7.499  12.928  11.306
38897SOL    HW218589   7.429  12.886  11.178
38898SOL     OW18590  14.501   5.351   4.114
38898SOL    HW118591  14.585   5.375   4.153
38898SOL    HW218592  14.449   5.431   4.117
38899SOL     OW18593   1.500  10.962   9.059
38899SOL    HW118594   1.404  10.952   9.056
38899SOL    HW218595   1.531  10.878   9.093
38900SOL     OW18596   3.121   8.725   5.720
38900SOL    HW118597   3.047   8.780   5.745
38900SOL    HW218598   3.090   8.635   5.732
38901SOL     OW18599   7.169  10.475   0.780
38901SOL    HW118600   7.114  10.397   0.783
38901SOL    HW218601   7.182  10.492   0.687
38902SOL     OW18602   8.251   4.235  10.828
38902SOL    HW118603   8.193   4.193  10.891
38902SOL    HW218604   8.244   4.328  10.848
38903SOL     OW18605   4.670   8.352  14.655
38903SOL    HW118606   4.587   8.309  14.634
38903SOL    HW218607   4.711   8.368  14.570
38904SOL     OW18608   0.403   6.697   1.024
38904SOL    HW118609   0.446   6.723   1.105
38904SOL    HW218610   0.432   6.762   0.960
38905SOL     OW18611  14.655   0.449   4.258
38905SOL    HW118612  14.595   0.510   4.300
38905SOL    HW218613  14.684   0.391   4.328
38906SOL     OW18614  12.286   2.173   6.163
38906SOL    HW118615  12.292   2.188   6.258
38906SOL    HW218616  12.197   2.200   6.140
38907SOL     OW18617   0.640   6.736   0.418
38907SOL    HW118618   0.623   6.766   0.329
38907SOL    HW218619   0.735   6.742   0.427
38908SOL     OW18620   7.705  12.801   1.311
38908SOL    HW118621   7.774  12.738   1.329
38908SOL    HW218622   7.742  12.886   1.335
38909SOL     OW18623   0.128  13.061   5.315
38909SOL    HW118624   0.058  13.022   5.368
38909SOL    HW218625   0.198  12.996   5.315
38910SOL     OW18626   5.112   7.119  14.810
38910SOL    HW118627   5.170   7.052  14.775
38910SOL    HW218628   5.161   7.157   0.002
38911SOL     OW18629   2.923   4.346  12.279
38911SOL    HW118630   2.843   4.294  12.282
38911SOL    HW218631   2.990   4.286  12.248
38912SOL     OW18632   9.986   4.415  11.784
38912SOL    HW118633   9.978   4.503  11.820
38912SOL    HW218634  10.080   4.397  11.785
38913SOL     OW18635  13.800  13.070  14.463
38913SOL    HW118636  13.824  12.985  14.500
38913SOL    HW218637  13.778  13.124  14.539
38914SOL     OW18638   3.468   8.126  14.737
38914SOL    HW118639   3.547   8.077  14.713
38914SOL    HW218640   3.481   8.212  14.697
38915SOL     OW18641  11.460   8.310  14.641
38915SOL    HW118642  11.519   8.382  14.665
38915SOL    HW218643  11.519   8.235  14.628
38916SOL     OW18644  11.109  12.627   1.721
38916SOL    HW118645  11.065  12.674   1.792
38916SOL    HW218646  11.053  12.641   1.645
38917SOL     OW18647   8.171  13.101  10.268
38917SOL    HW118648   8.091  13.153  10.267
38917SOL    HW218649   8.149  13.022  10.219
38918SOL     OW18650   4.211  13.148   6.926
38918SOL    HW118651   4.230  13.191   7.009
38918SOL    HW218652   4.240  13.058   6.939
38919SOL     OW18653   4.774   8.129  13.324
38919SOL    HW118654   4.818   8.214  13.325
38919SOL    HW218655   4.845   8.065  13.331
38920SOL     OW18656  13.501   1.593  14.432
38920SOL    HW118657  13.430   1.654  14.454
38920SOL    HW218658  13.510   1.600  14.337
38921SOL     OW18659   7.286   6.466   1.016
38921SOL    HW118660   7.289   6.561   1.022
38921SOL    HW218661   7.337   6.445   0.938
38922SOL     OW18662   2.786   4.675   6.469
38922SOL    HW118663   2.814   4.765   6.453
38922SOL    HW218664   2.692   4.682   6.488
38923SOL     OW18665  11.916   5.067   7.402
38923SOL    HW118666  11.950   4.978   7.402
38923SOL    HW218667  11.831   5.061   7.358
38924SOL     OW18668   6.843   1.145  12.383
38924SOL    HW118669   6.853   1.056  12.416
38924SOL    HW218670   6.913   1.195  12.425
38925SOL     OW18671  10.185   6.078  11.212
38925SOL    HW118672  10.143   6.046  11.132
38925SOL    HW218673  10.277   6.091  11.187
38926SOL     OW18674   6.493   2.164   3.018
38926SOL    HW118675   6.410   2.125   2.990
38926SOL    HW218676   6.554   2.091   3.018
38927SOL     OW18677   3.998  13.783   4.099
38927SOL    HW118678   4.021  13.857   4.042
38927SOL    HW218679   3.947  13.725   4.043
38928SOL     OW18680   0.881   9.287   1.940
38928SOL    HW118681   0.851   9.198   1.919
38928SOL    HW218682   0.810   9.344   1.912
38929SOL     OW18683   7.218   2.541  10.390
38929SOL    HW118684   7.225   2.586  10.306
38929SOL    HW218685   7.308   2.537  10.423
38930SOL     OW18686  13.070  13.783   2.960
38930SOL    HW118687  12.994  13.811   3.011
38930SOL    HW218688  13.034  13.729   2.890
38931SOL     OW18689   4.355  13.989   0.720
38931SOL    HW118690   4.347  14.029   0.807
38931SOL    HW218691   4.378  13.898   0.738
38932SOL     OW18692   2.032   5.392   0.379
38932SOL    HW118693   2.098   5.372   0.445
38932SOL    HW218694   2.063   5.347   0.300
38933SOL     OW18695   7.135   9.468   9.521
38933SOL    HW118696   7.200   9.400   9.511
38933SOL    HW218697   7.185   9.547   9.539
38934SOL     OW18698  10.540   8.106   9.697
38934SOL    HW118699  10.602   8.168   9.659
38934SOL    HW218700  10.541   8.031   9.638
38935SOL     OW18701   5.043  11.755   3.619
38935SOL    HW118702   5.074  11.735   3.530
38935SOL    HW218703   5.014  11.846   3.614
38936SOL     OW18704   4.822  14.841   1.539
38936SOL    HW118705   4.886  14.792   1.590
38936SOL    HW218706   4.784  14.776   1.480
38937SOL     OW18707  10.967   1.890  12.244
38937SOL    HW118708  11.014   1.809  12.263
38937SOL    HW218709  11.030   1.960  12.267
38938SOL     OW18710  13.378  11.400   2.046
38938SOL    HW118711  13.387  11.449   2.128
38938SOL    HW218712  13.376  11.467   1.978
38939SOL     OW18713   5.999  12.986   1.260
38939SOL    HW118714   6.087  13.000   1.223
38939SOL    HW218715   5.940  13.026   1.197
38940SOL     OW18716   9.087   6.981   1.198
38940SOL    HW118717   9.169   6.997   1.245
38940SOL    HW218718   9.071   6.887   1.209
38941SOL     OW18719   8.140  11.370   3.430
38941SOL    HW118720   8.222  11.399   3.470
38941SOL    HW218721   8.106  11.304   3.491
38942SOL     OW18722   0.508  10.085   9.269
38942SOL    HW118723   0.534  10.176   9.284
38942SOL    HW218724   0.452  10.063   9.342
38943SOL     OW18725   4.584   9.237   7.464
38943SOL    HW118726   4.611   9.300   7.397
38943SOL    HW218727   4.514   9.187   7.423
38944SOL     OW18728   9.240   4.167   7.091
38944SOL    HW118729   9.274   4.232   7.030
38944SOL    HW218730   9.220   4.217   7.170
38945SOL     OW18731  12.729  14.056   7.727
38945SOL    HW118732  12.640  14.022   7.719
38945SOL    HW218733  12.786  13.982   7.706
38946SOL     OW18734   2.138  11.930   4.808
38946SOL    HW118735   2.061  11.951   4.756
38946SOL    HW218736   2.210  11.930   4.745
38947SOL     OW18737   5.642   4.801   5.133
38947SOL    HW118738   5.601   4.776   5.216
38947SOL    HW218739   5.693   4.724   5.108
38948SOL     OW18740  13.660   1.136   9.567
38948SOL    HW118741  13.733   1.101   9.517
38948SOL    HW218742  13.583   1.117   9.514
38949SOL     OW18743   6.170  14.084   1.782
38949SOL    HW118744   6.158  14.086   1.687
38949SOL    HW218745   6.243  14.143   1.798
38950SOL     OW18746   4.207  11.206  13.455
38950SOL    HW118747   4.143  11.267  13.491
38950SOL    HW218748   4.168  11.120  13.470
38951SOL     OW18749  14.634   0.797  11.840
38951SOL    HW118750  14.551   0.840  11.858
38951SOL    HW218751  14.632   0.717  11.893
38952SOL     OW18752   0.748   4.799  14.727
38952SOL    HW118753   0.778   4.762  14.810
38952SOL    HW218754   0.811   4.767  14.662
38953SOL     OW18755  11.854  12.324   1.294
38953SOL    HW118756  11.801  12.394   1.331
38953SOL    HW218757  11.799  12.246   1.301
38954SOL     OW18758   8.660  12.119   0.889
38954SOL    HW118759   8.581  12.096   0.840
38954SOL    HW218760   8.723  12.051   0.866
38955SOL     OW18761  11.297  10.331   6.208
38955SOL    HW118762  11.335  10.418   6.194
38955SOL    HW218763  11.232  10.345   6.278
38956SOL     OW18764   1.642   0.349  11.685
38956SOL    HW118765   1.675   0.422  11.634
38956SOL    HW218766   1.696   0.350  11.765
38957SOL     OW18767   1.612  10.794   8.489
38957SOL    HW118768   1.573  10.862   8.543
38957SOL    HW218769   1.621  10.719   8.548
38958SOL     OW18770  14.648   2.747   6.136
38958SOL    HW118771  14.695   2.689   6.196
38958SOL    HW218772  14.555   2.730   6.154
38959SOL     OW18773   6.148   7.914  14.698
38959SOL    HW118774   6.217   7.981  14.693
38959SOL    HW218775   6.091   7.944  14.769
38960SOL     OW18776   7.574  12.604  12.460
38960SOL    HW118777   7.536  12.644  12.538
38960SOL    HW218778   7.630  12.535  12.494
38961SOL     OW18779   2.002  14.222   3.117
38961SOL    HW118780   2.043  14.259   3.195
38961SOL    HW218781   1.970  14.297   3.067
38962SOL     OW18782  14.725   8.142   8.997
38962SOL    HW118783  14.686   8.212   8.945
38962SOL    HW218784  14.675   8.142   9.078
38963SOL     OW18785   7.169   6.306  12.733
38963SOL    HW118786   7.110   6.268  12.798
38963SOL    HW218787   7.229   6.235  12.711
38964SOL     OW18788   7.501  11.754   0.859
38964SOL    HW118789   7.573  11.775   0.918
38964SOL    HW218790   7.537  11.691   0.797
38965SOL     OW18791   6.653   3.043   8.342
38965SOL    HW118792   6.668   3.123   8.392
38965SOL    HW218793   6.559   3.028   8.350
38966SOL     OW18794  11.228   6.856   6.896
38966SOL    HW118795  11.218   6.766   6.866
38966SOL    HW218796  11.307   6.887   6.852
38967SOL     OW18797   2.622  11.119  14.280
38967SOL    HW118798   2.584  11.036  14.310
38967SOL    HW218799   2.716  11.111  14.300
38968SOL     OW18800  14.787   2.633  14.867
38968SOL    HW118801  14.729   2.615   0.059
38968SOL    HW218802  14.728   2.658  14.796
38969SOL     OW18803  13.580   1.735   7.848
38969SOL    HW118804  13.589   1.824   7.816
38969SOL    HW218805  13.506   1.738   7.908
38970SOL     OW18806  14.550  13.633   9.741
38970SOL    HW118807  14.624  13.668   9.792
38970SOL    HW218808  14.500  13.711   9.715
38971SOL     OW18809   2.470   7.109   3.305
38971SOL    HW118810   2.417   7.030   3.310
38971SOL    HW218811   2.561   7.078   3.311
38972SOL     OW18812   9.003   1.297  13.699
38972SOL    HW118813   8.956   1.315  13.618
38972SOL    HW218814   9.056   1.375  13.714
38973SOL     OW18815   0.845  13.670   6.010
38973SOL    HW118816   0.913  13.710   5.957
38973SOL    HW218817   0.869  13.577   6.015
38974SOL     OW18818  10.541   4.946  14.391
38974SOL    HW118819  10.545   5.041  14.395
38974SOL    HW218820  10.464   4.927  14.339
38975SOL     OW18821   8.052   4.785  13.345
38975SOL    HW118822   8.036   4.799  13.438
38975SOL    HW218823   8.090   4.867  13.314
38976SOL     OW18824   9.110   4.993   6.704
38976SOL    HW118825   9.099   5.030   6.792
38976SOL    HW218826   9.025   5.004   6.662
38977SOL     OW18827  12.370  13.813   4.040
38977SOL    HW118828  12.312  13.888   4.025
38977SOL    HW218829  12.431  13.843   4.107
38978SOL     OW18830   2.668   0.748   5.043
38978SOL    HW118831   2.639   0.810   5.109
38978SOL    HW218832   2.682   0.801   4.964
38979SOL     OW18833   7.930  11.182   1.530
38979SOL    HW118834   7.848  11.134   1.535
38979SOL    HW218835   7.950  11.186   1.437
38980SOL     OW18836  12.836   0.129  10.512
38980SOL    HW118837  12.869   0.161  10.429
38980SOL    HW218838  12.858   0.198  10.575
38981SOL     OW18839  11.029   2.189   1.200
38981SOL    HW118840  11.106   2.245   1.195
38981SOL    HW218841  11.021   2.151   1.112
38982SOL     OW18842   3.404   9.638   2.856
38982SOL    HW118843   3.463   9.566   2.876
38982SOL    HW218844   3.419   9.702   2.925
38983SOL     OW18845  10.845   1.785  14.274
38983SOL    HW118846  10.800   1.727  14.213
38983SOL    HW218847  10.901   1.727  14.325
38984SOL     OW18848   9.500  12.545   1.633
38984SOL    HW118849   9.557  12.481   1.591
38984SOL    HW218850   9.414  12.528   1.595
38985SOL     OW18851   8.806   7.839  11.633
38985SOL    HW118852   8.878   7.864  11.576
38985SOL    HW218853   8.749   7.785  11.578
38986SOL     OW18854  13.208   9.841   2.035
38986SOL    HW118855  13.302   9.854   2.025
38986SOL    HW218856  13.169   9.889   1.962
38987SOL     OW18857   9.174   4.138   5.759
38987SOL    HW118858   9.098   4.177   5.715
38987SOL    HW218859   9.144   4.050   5.783
38988SOL     OW18860  13.786  14.634   1.559
38988SOL    HW118861  13.846  14.689   1.608
38988SOL    HW218862  13.801  14.658   1.467
38989SOL     OW18863   8.484   5.192   6.255
38989SOL    HW118864   8.408   5.173   6.311
38989SOL    HW218865   8.520   5.106   6.234
38990SOL     OW18866   4.704   5.752   8.871
38990SOL    HW118867   4.736   5.681   8.927
38990SOL    HW218868   4.726   5.724   8.782
38991SOL     OW18869  12.492   2.798   3.186
38991SOL    HW118870  12.461   2.723   3.238
38991SOL    HW218871  12.415   2.853   3.174
38992SOL     OW18872   5.451   9.924  12.893
38992SOL    HW118873   5.459   9.886  12.806
38992SOL    HW218874   5.447   9.848  12.952
38993SOL     OW18875  11.831   3.723   0.454
38993SOL    HW118876  11.750   3.719   0.403
38993SOL    HW218877  11.822   3.653   0.519
38994SOL     OW18878  13.626  12.653   1.611
38994SOL    HW118879  13.708  12.634   1.656
38994SOL    HW218880  13.652  12.680   1.523
38995SOL     OW18881   9.002   1.844  14.861
38995SOL    HW118882   8.942   1.842  14.787
38995SOL    HW218883   8.952   1.806   0.051
38996SOL     OW18884  10.281   2.104   5.724
38996SOL    HW118885  10.327   2.060   5.796
38996SOL    HW218886  10.192   2.070   5.728
38997SOL     OW18887  14.571   3.920   5.167
38997SOL    HW118888  14.486   3.924   5.122
38997SOL    HW218889  14.611   3.839   5.135
38998SOL     OW18890   4.542  12.627   6.399
38998SOL    HW118891   4.453  12.651   6.372
38998SOL    HW218892   4.551  12.535   6.371
38999SOL     OW18893   1.790   3.578  12.863
38999SOL    HW118894   1.713   3.530  12.894
38999SOL    HW218895   1.754   3.658  12.825
39000SOL     OW18896   1.368   6.333   0.653
39000SOL    HW118897   1.409   6.403   0.603
39000SOL    HW218898   1.344   6.373   0.736
39001SOL     OW18899   0.311   8.121   4.897
39001SOL    HW118900   0.377   8.052   4.902
39001SOL    HW218901   0.228   8.076   4.914
39002SOL     OW18902  11.308   2.593   6.838
39002SOL    HW118903  11.271   2.682   6.844
39002SOL    HW218904  11.233   2.535   6.846
39003SOL     OW18905   4.208   7.390   9.257
39003SOL    HW118906   4.160   7.360   9.180
39003SOL    HW218907   4.243   7.475   9.232
39004SOL     OW18908  12.005   8.796   3.650
39004SOL    HW118909  12.042   8.884   3.657
39004SOL    HW218910  11.917   8.809   3.616
39005SOL     OW18911  12.246  12.498   7.016
39005SOL    HW118912  12.253  12.446   6.937
39005SOL    HW218913  12.261  12.436   7.087
39006SOL     OW18914   1.842   6.521   7.249
39006SOL    HW118915   1.891   6.603   7.242
39006SOL    HW218916   1.858   6.491   7.339
39007SOL     OW18917   1.555   8.864  13.254
39007SOL    HW118918   1.541   8.800  13.324
39007SOL    HW218919   1.529   8.819  13.174
39008SOL     OW18920   0.007   8.285   8.248
39008SOL    HW118921   0.094   8.263   8.215
39008SOL    HW218922  14.836   8.207   8.230
39009SOL     OW18923   1.366   4.787   6.348
39009SOL    HW118924   1.316   4.846   6.404
39009SOL    HW218925   1.357   4.701   6.389
39010SOL     OW18926   2.873  13.557   0.833
39010SOL    HW118927   2.870  13.516   0.919
39010SOL    HW218928   2.943  13.622   0.839
39011SOL     OW18929   4.731   6.076  14.352
39011SOL    HW118930   4.668   6.039  14.290
39011SOL    HW218931   4.816   6.056  14.315
39012SOL     OW18932   7.397   3.131   5.361
39012SOL    HW118933   7.352   3.064   5.413
39012SOL    HW218934   7.447   3.181   5.425
39013SOL     OW18935  11.898  14.143   5.337
39013SOL    HW118936  11.826  14.082   5.325
39013SOL    HW218937  11.873  14.220   5.284
39014SOL     OW18938   9.098  13.695  10.315
39014SOL    HW118939   9.119  13.636  10.387
39014SOL    HW218940   9.108  13.641  10.236
39015SOL     OW18941   9.736   3.787   6.470
39015SOL    HW118942   9.660   3.764   6.524
39015SOL    HW218943   9.811   3.778   6.530
39016SOL     OW18944   3.338   7.759   0.518
39016SOL    HW118945   3.317   7.681   0.570
39016SOL    HW218946   3.278   7.826   0.551
39017SOL     OW18947  10.932   4.994   1.025
39017SOL    HW118948  11.017   4.975   0.984
39017SOL    HW218949  10.868   4.979   0.955
39018SOL     OW18950  11.573   6.888  14.841
39018SOL    HW118951  11.491   6.839  14.840
39018SOL    HW218952  11.546   6.979  14.847
39019SOL     OW18953   7.513   6.786   4.881
39019SOL    HW118954   7.509   6.741   4.796
39019SOL    HW218955   7.530   6.877   4.858
39020SOL     OW18956  10.912  11.972  11.129
39020SOL    HW118957  10.941  11.957  11.219
39020SOL    HW218958  10.991  11.967  11.076
39021SOL     OW18959   0.459  10.153   3.863
39021SOL    HW118960   0.440  10.068   3.903
39021SOL    HW218961   0.511  10.132   3.785
39022SOL     OW18962   5.565   9.735  11.080
39022SOL    HW118963   5.507   9.707  11.151
39022SOL    HW218964   5.536   9.685  11.004
39023SOL     OW18965   2.170   4.011   2.622
39023SOL    HW118966   2.131   3.953   2.686
39023SOL    HW218967   2.112   4.006   2.546
39024SOL     OW18968   4.859   8.469   4.011
39024SOL    HW118969   4.782   8.417   3.987
39024SOL    HW218970   4.829   8.523   4.084
39025SOL     OW18971   2.701  14.360   3.384
39025SOL    HW118972   2.746  14.322   3.308
39025SOL    HW218973   2.633  14.416   3.347
39026SOL     OW18974   1.498  12.643   4.381
39026SOL    HW118975   1.462  12.699   4.313
39026SOL    HW218976   1.566  12.696   4.423
39027SOL     OW18977   1.228   6.238   3.486
39027SOL    HW118978   1.262   6.237   3.576
39027SOL    HW218979   1.209   6.146   3.467
39028SOL     OW18980   3.450   1.286  14.393
39028SOL    HW118981   3.484   1.268  14.305
39028SOL    HW218982   3.474   1.208  14.444
39029SOL     OW18983   3.628   2.575   5.491
39029SOL    HW118984   3.618   2.492   5.444
39029SOL    HW218985   3.698   2.620   5.443
39030SOL     OW18986   2.226  11.648  12.580
39030SOL    HW118987   2.243  11.616  12.491
39030SOL    HW218988   2.137  11.621  12.599
39031SOL     OW18989  13.788   3.655  14.303
39031SOL    HW118990  13.874   3.618  14.319
39031SOL    HW218991  13.799   3.707  14.224
39032SOL     OW18992   3.529   9.011  12.840
39032SOL    HW118993   3.527   9.049  12.928
39032SOL    HW218994   3.533   8.916  12.855
39033SOL     OW18995  11.812   3.567  14.646
39033SOL    HW118996  11.763   3.523  14.715
39033SOL    HW218997  11.796   3.660  14.661
39034SOL     OW18998   3.543   2.289  12.350
39034SOL    HW118999   3.627   2.242  12.343
39034SOL    HW219000   3.555   2.350  12.423
39035SOL     OW19001  11.570  12.111   1.978
39035SOL    HW119002  11.519  12.034   2.004
39035SOL    HW219003  11.632  12.078   1.913
39036SOL     OW19004  10.064   1.280   9.324
39036SOL    HW119005  10.036   1.263   9.414
39036SOL    HW219006  10.105   1.367   9.328
39037SOL     OW19007   0.946   7.272   0.649
39037SOL    HW119008   0.862   7.318   0.653
39037SOL    HW219009   0.958   7.237   0.737
39038SOL     OW19010   7.597  12.211  10.164
39038SOL    HW119011   7.595  12.158  10.083
39038SOL    HW219012   7.506  12.230  10.182
39039SOL     OW19013   2.392   1.087   5.798
39039SOL    HW119014   2.403   1.149   5.726
39039SOL    HW219015   2.479   1.081   5.837
39040SOL     OW19016   4.807   8.616   2.909
39040SOL    HW119017   4.713   8.606   2.923
39040SOL    HW219018   4.821   8.587   2.819
39041SOL     OW19019   5.662  10.296  14.549
39041SOL    HW119020   5.635  10.215  14.592
39041SOL    HW219021   5.697  10.351  14.619
39042SOL     OW19022   7.633  14.861   5.622
39042SOL    HW119023   7.699  14.793   5.635
39042SOL    HW219024   7.605  14.850   5.531
39043SOL     OW19025   3.094   6.054   4.513
39043SOL    HW119026   3.091   5.970   4.467
39043SOL    HW219027   3.009   6.061   4.557
39044SOL     OW19028   9.568   5.738   0.405
39044SOL    HW119029   9.502   5.682   0.364
39044SOL    HW219030   9.633   5.753   0.336
39045SOL     OW19031  14.082  10.564   6.334
39045SOL    HW119032  13.987  10.566   6.324
39045SOL    HW219033  14.115  10.597   6.250
39046SOL     OW19034   3.203  10.338   4.291
39046SOL    HW119035   3.118  10.296   4.302
39046SOL    HW219036   3.191  10.427   4.324
39047SOL     OW19037  11.063   1.213   9.804
39047SOL    HW119038  11.115   1.175   9.733
39047SOL    HW219039  10.986   1.156   9.811
39048SOL     OW19040   3.847   0.816   3.490
39048SOL    HW119041   3.821   0.908   3.494
39048SOL    HW219042   3.942   0.817   3.501
39049SOL     OW19043  11.919   4.094   3.849
39049SOL    HW119044  12.009   4.113   3.823
39049SOL    HW219045  11.886   4.178   3.883
39050SOL     OW19046   2.825   4.418   6.004
39050SOL    HW119047   2.897   4.428   5.942
39050SOL    HW219048   2.801   4.326   5.998
39051SOL     OW19049   0.005   9.392  12.965
39051SOL    HW119050  14.820   9.333  12.998
39051SOL    HW219051   0.078   9.383  13.026
39052SOL     OW19052   3.037   5.017   4.618
39052SOL    HW119053   2.975   5.051   4.553
39052SOL    HW219054   3.052   4.926   4.591
39053SOL     OW19055   1.376   1.570   8.285
39053SOL    HW119056   1.323   1.592   8.362
39053SOL    HW219057   1.317   1.581   8.211
39054SOL     OW19058  13.812  10.216   3.647
39054SOL    HW119059  13.720  10.193   3.657
39054SOL    HW219060  13.835  10.186   3.560
39055SOL     OW19061   3.024   7.510   2.895
39055SOL    HW119062   3.115   7.538   2.905
39055SOL    HW219063   3.015   7.435   2.954
39056SOL     OW19064  13.805   9.925   4.943
39056SOL    HW119065  13.869   9.855   4.946
39056SOL    HW219066  13.843   9.991   4.885
39057SOL     OW19067   7.044   4.511   7.820
39057SOL    HW119068   6.987   4.440   7.850
39057SOL    HW219069   6.988   4.566   7.766
39058SOL     OW19070   6.870  13.265   1.366
39058SOL    HW119071   6.800  13.226   1.419
39058SOL    HW219072   6.951  13.231   1.402
39059SOL     OW19073   9.924  10.550   3.734
39059SOL    HW119074   9.935  10.519   3.824
39059SOL    HW219075   9.832  10.533   3.714
39060SOL     OW19076   0.596   9.750   1.920
39060SOL    HW119077   0.552   9.677   1.964
39060SOL    HW219078   0.666   9.709   1.869
39061SOL     OW19079   8.533  13.900   5.952
39061SOL    HW119080   8.475  13.883   6.027
39061SOL    HW219081   8.611  13.939   5.991
39062SOL     OW19082  11.465   4.728  13.170
39062SOL    HW119083  11.549   4.770  13.153
39062SOL    HW219084  11.478   4.681  13.252
39063SOL     OW19085  12.827  10.660  13.797
39063SOL    HW119086  12.773  10.582  13.804
39063SOL    HW219087  12.898  10.646  13.860
39064SOL     OW19088   6.589   8.944   6.781
39064SOL    HW119089   6.626   8.878   6.840
39064SOL    HW219090   6.545   8.893   6.713
39065SOL     OW19091   5.738  14.246   1.264
39065SOL    HW119092   5.752  14.170   1.321
39065SOL    HW219093   5.692  14.309   1.319
39066SOL     OW19094  12.537   4.602  13.836
39066SOL    HW119095  12.449   4.615  13.802
39066SOL    HW219096  12.575   4.534  13.779
39067SOL     OW19097   1.268   9.301   6.817
39067SOL    HW119098   1.289   9.264   6.730
39067SOL    HW219099   1.212   9.376   6.798
39068SOL     OW19100   4.766   6.071   4.046
39068SOL    HW119101   4.678   6.098   4.072
39068SOL    HW219102   4.824   6.124   4.100
39069SOL     OW19103   7.517   8.458  12.370
39069SOL    HW119104   7.461   8.381  12.355
39069SOL    HW219105   7.465   8.532  12.339
39070SOL     OW19106   2.672  11.981   5.657
39070SOL    HW119107   2.667  12.064   5.611
39070SOL    HW219108   2.612  11.923   5.609
39071SOL     OW19109   0.970  10.772  10.912
39071SOL    HW119110   0.916  10.801  10.838
39071SOL    HW219111   0.976  10.848  10.969
39072SOL     OW19112   2.329   5.770  12.870
39072SOL    HW119113   2.306   5.688  12.827
39072SOL    HW219114   2.420   5.786  12.844
39073SOL     OW19115   1.820   0.189   1.346
39073SOL    HW119116   1.737   0.199   1.300
39073SOL    HW219117   1.805   0.230   1.431
39074SOL     OW19118   3.534  10.237   9.629
39074SOL    HW119119   3.571  10.312   9.582
39074SOL    HW219120   3.608  10.177   9.641
39075SOL     OW19121  12.890   9.593   3.638
39075SOL    HW119122  12.906   9.666   3.698
39075SOL    HW219123  12.963   9.594   3.577
39076SOL     OW19124   2.939   0.014  10.884
39076SOL    HW119125   2.984  14.831  10.939
39076SOL    HW219126   2.895  14.844  10.817
39077SOL     OW19127   4.913  12.202  11.335
39077SOL    HW119128   4.891  12.111  11.315
39077SOL    HW219129   4.907  12.247  11.251
39078SOL     OW19130  14.008   4.377   9.286
39078SOL    HW119131  14.037   4.445   9.347
39078SOL    HW219132  13.917   4.400   9.267
39079SOL     OW19133  12.222   3.884  11.705
39079SOL    HW119134  12.132   3.916  11.708
39079SOL    HW219135  12.217   3.800  11.660
39080SOL     OW19136   5.908   2.979  12.587
39080SOL    HW119137   5.891   3.057  12.534
39080SOL    HW219138   5.835   2.920  12.567
39081SOL     OW19139   2.044  13.984   1.116
39081SOL    HW119140   1.977  14.046   1.145
39081SOL    HW219141   1.995  13.903   1.099
39082SOL     OW19142  12.518   3.007  14.622
39082SOL    HW119143  12.439   3.024  14.571
39082SOL    HW219144  12.508   2.916  14.652
39083SOL     OW19145   5.130   2.775  12.687
39083SOL    HW119146   5.144   2.686  12.655
39083SOL    HW219147   5.218   2.813  12.693
39084SOL     OW19148  11.091   2.469   9.118
39084SOL    HW119149  11.160   2.438   9.176
39084SOL    HW219150  11.010   2.450   9.166
39085SOL     OW19151   7.997   2.886   8.692
39085SOL    HW119152   8.015   2.949   8.623
39085SOL    HW219153   7.902   2.885   8.700
39086SOL     OW19154   5.904   5.330  12.799
39086SOL    HW119155   5.928   5.239  12.786
39086SOL    HW219156   5.983   5.371  12.835
39087SOL     OW19157   0.074  13.916   0.725
39087SOL    HW119158  14.875  13.965   0.740
39087SOL    HW219159   0.044  13.828   0.702
39088SOL     OW19160   0.771  10.197   3.415
39088SOL    HW119161   0.777  10.161   3.327
39088SOL    HW219162   0.796  10.289   3.406
39089SOL     OW19163   7.169   1.521  12.219
39089SOL    HW119164   7.173   1.426  12.232
39089SOL    HW219165   7.249   1.542  12.171
39090SOL     OW19166   5.985   7.825   1.036
39090SOL    HW119167   6.058   7.861   0.986
39090SOL    HW219168   5.938   7.768   0.974
39091SOL     OW19169   1.591   3.201  13.194
39091SOL    HW119170   1.513   3.160  13.231
39091SOL    HW219171   1.647   3.128  13.168
39092SOL     OW19172   0.943   2.982  12.293
39092SOL    HW119173   0.916   2.948  12.207
39092SOL    HW219174   0.883   3.054  12.310
39093SOL     OW19175   9.488   7.507   8.456
39093SOL    HW119176   9.519   7.597   8.470
39093SOL    HW219177   9.501   7.491   8.363
39094SOL     OW19178  10.670  10.726  11.735
39094SOL    HW119179  10.737  10.751  11.671
39094SOL    HW219180  10.614  10.664  11.689
39095SOL     OW19181  10.816   8.193   5.980
39095SOL    HW119182  10.895   8.193   6.033
39095SOL    HW219183  10.771   8.112   6.005
39096SOL     OW19184   4.803   6.593   6.398
39096SOL    HW119185   4.714   6.629   6.404
39096SOL    HW219186   4.859   6.669   6.388
39097SOL     OW19187   1.530   5.980   3.610
39097SOL    HW119188   1.603   5.987   3.548
39097SOL    HW219189   1.552   6.042   3.680
39098SOL     OW19190  13.053   1.421   7.634
39098SOL    HW119191  13.140   1.446   7.603
39098SOL    HW219192  13.070   1.357   7.704
39099SOL     OW19193   9.979  13.982  14.172
39099SOL    HW119194   9.952  13.958  14.083
39099SOL    HW219195  10.071  13.956  14.177
39100SOL     OW19196  11.089   1.819   3.243
39100SOL    HW119197  11.007   1.791   3.285
39100SOL    HW219198  11.062   1.846   3.155
39101SOL     OW19199   5.683   5.445   3.363
39101SOL    HW119200   5.712   5.384   3.295
39101SOL    HW219201   5.591   5.423   3.377
39102SOL     OW19202   0.070  12.263   7.628
39102SOL    HW119203   0.151  12.224   7.595
39102SOL    HW219204   0.046  12.328   7.561
39103SOL     OW19205   0.477  10.645  12.247
39103SOL    HW119206   0.554  10.589  12.242
39103SOL    HW219207   0.486  10.692  12.331
39104SOL     OW19208   4.880   2.992  14.827
39104SOL    HW119209   4.948   3.058  14.816
39104SOL    HW219210   4.893   2.959   0.034
39105SOL     OW19211   9.166   6.434   1.875
39105SOL    HW119212   9.118   6.429   1.957
39105SOL    HW219213   9.226   6.359   1.876
39106SOL     OW19214   7.600   1.224   4.396
39106SOL    HW119215   7.677   1.198   4.346
39106SOL    HW219216   7.526   1.201   4.340
39107SOL     OW19217   3.584   6.338   1.259
39107SOL    HW119218   3.607   6.407   1.197
39107SOL    HW219219   3.500   6.366   1.296
39108SOL     OW19220  12.551   5.880   8.055
39108SOL    HW119221  12.589   5.892   8.142
39108SOL    HW219222  12.461   5.913   8.064
39109SOL     OW19223   6.558   8.955  11.627
39109SOL    HW119224   6.618   8.993  11.691
39109SOL    HW219225   6.553   8.863  11.649
39110SOL     OW19226   1.434  12.690   2.318
39110SOL    HW119227   1.458  12.628   2.249
39110SOL    HW219228   1.515  12.702   2.368
39111SOL     OW19229   4.817   3.632   0.798
39111SOL    HW119230   4.756   3.694   0.758
39111SOL    HW219231   4.899   3.679   0.805
39112SOL     OW19232   6.203   6.499   4.799
39112SOL    HW119233   6.185   6.447   4.877
39112SOL    HW219234   6.118   6.537   4.776
39113SOL     OW19235   5.591  13.251   3.555
39113SOL    HW119236   5.556  13.188   3.618
39113SOL    HW219237   5.521  13.260   3.490
39114SOL     OW19238   7.967   8.946   5.522
39114SOL    HW119239   7.921   8.912   5.599
39114SOL    HW219240   8.027   9.012   5.556
39115SOL     OW19241   1.153  11.630   7.528
39115SOL    HW119242   1.216  11.677   7.582
39115SOL    HW219243   1.204  11.599   7.453
39116SOL     OW19244   5.571   3.427  13.593
39116SOL    HW119245   5.538   3.380  13.669
39116SOL    HW219246   5.499   3.422  13.529
39117SOL     OW19247   9.876  13.269  12.172
39117SOL    HW119248   9.804  13.206  12.165
39117SOL    HW219249   9.842  13.337  12.231
39118SOL     OW19250   9.260  12.181   9.928
39118SOL    HW119251   9.340  12.142   9.891
39118SOL    HW219252   9.199  12.108   9.937
39119SOL     OW19253   2.890  14.018  14.639
39119SOL    HW119254   2.909  13.978  14.555
39119SOL    HW219255   2.927  13.957  14.704
39120SOL     OW19256   8.075   2.513   3.107
39120SOL    HW119257   7.982   2.499   3.123
39120SOL    HW219258   8.093   2.464   3.027
39121SOL     OW19259  11.205   3.563  11.974
39121SOL    HW119260  11.211   3.522  12.061
39121SOL    HW219261  11.149   3.639  11.988
39122SOL     OW19262   7.269   6.548   5.444
39122SOL    HW119263   7.325   6.480   5.482
39122SOL    HW219264   7.303   6.630   5.480
39123SOL     OW19265  12.103   2.239   0.155
39123SOL    HW119266  12.106   2.159   0.206
39123SOL    HW219267  12.194   2.257   0.132
39124SOL     OW19268   1.650   5.324   6.571
39124SOL    HW119269   1.567   5.328   6.524
39124SOL    HW219270   1.696   5.248   6.535
39125SOL     OW19271  14.072  13.966   3.572
39125SOL    HW119272  14.089  13.879   3.609
39125SOL    HW219273  13.979  13.982   3.591
39126SOL     OW19274   6.519  11.081   0.269
39126SOL    HW119275   6.534  11.123   0.353
39126SOL    HW219276   6.571  11.000   0.273
39127SOL     OW19277   7.304   8.269   2.382
39127SOL    HW119278   7.293   8.364   2.383
39127SOL    HW219279   7.387   8.254   2.429
39128SOL     OW19280  14.146   1.281   9.903
39128SOL    HW119281  14.055   1.252   9.904
39128SOL    HW219282  14.192   1.215   9.851
39129SOL     OW19283  12.532  12.156   5.453
39129SOL    HW119284  12.527  12.194   5.365
39129SOL    HW219285  12.441  12.153   5.483
39130SOL     OW19286   4.142   0.580   6.565
39130SOL    HW119287   4.135   0.676   6.564
39130SOL    HW219288   4.148   0.558   6.658
39131SOL     OW19289  12.723   2.585   9.809
39131SOL    HW119290  12.649   2.600   9.868
39131SOL    HW219291  12.800   2.581   9.867
39132SOL     OW19292  14.616  10.202  14.501
39132SOL    HW119293  14.540  10.253  14.529
39132SOL    HW219294  14.683  10.222  14.566
39133SOL     OW19295   8.042   8.417   8.248
39133SOL    HW119296   8.117   8.367   8.214
39133SOL    HW219297   8.059   8.507   8.220
39134SOL     OW19298   0.512  12.869   0.952
39134SOL    HW119299   0.535  12.853   0.861
39134SOL    HW219300   0.577  12.820   1.002
39135SOL     OW19301  11.439  12.616   1.877
39135SOL    HW119302  11.431  12.610   1.782
39135SOL    HW219303  11.493  12.541   1.901
39136SOL     OW19304   7.981   7.803  12.222
39136SOL    HW119305   7.976   7.898  12.224
39136SOL    HW219306   7.994   7.777  12.313
39137SOL     OW19307  10.473   5.813   4.897
39137SOL    HW119308  10.459   5.881   4.830
39137SOL    HW219309  10.527   5.748   4.853
39138SOL     OW19310   9.240  10.278   9.296
39138SOL    HW119311   9.276  10.195   9.326
39138SOL    HW219312   9.174  10.254   9.231
39139SOL     OW19313  14.080   7.406  11.123
39139SOL    HW119314  14.158   7.442  11.081
39139SOL    HW219315  14.073   7.454  11.206
39140SOL     OW19316  10.782   5.903   2.731
39140SOL    HW119317  10.821   5.989   2.714
39140SOL    HW219318  10.838   5.841   2.684
39141SOL     OW19319   8.536  10.008   2.742
39141SOL    HW119320   8.591  10.087   2.747
39141SOL    HW219321   8.483  10.011   2.821
39142SOL     OW19322  11.511   7.579   1.330
39142SOL    HW119323  11.486   7.515   1.263
39142SOL    HW219324  11.563   7.644   1.283
39143SOL     OW19325   8.985  13.314   6.310
39143SOL    HW119326   8.892  13.329   6.326
39143SOL    HW219327   9.023  13.402   6.310
39144SOL     OW19328  12.067   1.847   7.225
39144SOL    HW119329  11.997   1.784   7.241
39144SOL    HW219330  12.134   1.796   7.178
39145SOL     OW19331   5.979   3.327   1.267
39145SOL    HW119332   5.924   3.249   1.278
39145SOL    HW219333   6.016   3.342   1.354
39146SOL     OW19334   4.234   5.731  14.450
39146SOL    HW119335   4.238   5.639  14.424
39146SOL    HW219336   4.141   5.749  14.458
39147SOL     OW19337   1.747   3.581   4.657
39147SOL    HW119338   1.748   3.488   4.638
39147SOL    HW219339   1.839   3.602   4.676
39148SOL     OW19340  11.675   4.362  11.031
39148SOL    HW119341  11.631   4.447  11.022
39148SOL    HW219342  11.763   4.376  10.996
39149SOL     OW19343  10.730  12.920   3.230
39149SOL    HW119344  10.823  12.901   3.219
39149SOL    HW219345  10.696  12.847   3.282
39150SOL     OW19346   4.843   6.743  11.933
39150SOL    HW119347   4.929   6.727  11.971
39150SOL    HW219348   4.847   6.704  11.846
39151SOL     OW19349   0.977  10.062  12.748
39151SOL    HW119350   0.997   9.988  12.692
39151SOL    HW219351   0.914  10.114  12.698
39152SOL     OW19352  10.608  11.251  10.350
39152SOL    HW119353  10.682  11.241  10.411
39152SOL    HW219354  10.645  11.296  10.274
39153SOL     OW19355   3.514   1.153  14.070
39153SOL    HW119356   3.543   1.228  14.123
39153SOL    HW219357   3.532   1.179  13.980
39154SOL     OW19358   1.213  13.151   4.636
39154SOL    HW119359   1.255  13.223   4.589
39154SOL    HW219360   1.265  13.074   4.614
39155SOL     OW19361   4.889   1.589  14.682
39155SOL    HW119362   4.813   1.540  14.652
39155SOL    HW219363   4.858   1.636  14.760
39156SOL     OW19364  13.984   9.972  13.597
39156SOL    HW119365  13.994   9.985  13.503
39156SOL    HW219366  14.066  10.002  13.635
39157SOL     OW19367   4.101   1.759   3.556
39157SOL    HW119368   4.062   1.779   3.471
39157SOL    HW219369   4.194   1.782   3.546
39158SOL     OW19370   7.859   7.894  12.739
39158SOL    HW119371   7.796   7.965  12.750
39158SOL    HW219372   7.809   7.823  12.698
39159SOL     OW19373   8.095  10.501   5.046
39159SOL    HW119374   8.107  10.437   4.977
39159SOL    HW219375   8.115  10.585   5.005
39160SOL     OW19376  10.754   9.961   1.269
39160SOL    HW119377  10.692   9.900   1.229
39160SOL    HW219378  10.825   9.905   1.301
39161SOL     OW19379   7.347   8.645  12.272
39161SOL    HW119380   7.400   8.724  12.269
39161SOL    HW219381   7.258   8.674  12.248
39162SOL     OW19382   4.944   7.703   5.138
39162SOL    HW119383   5.037   7.697   5.161
39162SOL    HW219384   4.901   7.727   5.219
39163SOL     OW19385  11.176   8.927   4.445
39163SOL    HW119386  11.179   9.021   4.427
39163SOL    HW219387  11.239   8.915   4.516
39164SOL     OW19388   4.584   8.406  13.870
39164SOL    HW119389   4.533   8.359  13.937
39164SOL    HW219390   4.673   8.409  13.905
39165SOL     OW19391  11.849  13.720   5.739
39165SOL    HW119392  11.873  13.788   5.676
39165SOL    HW219393  11.858  13.762   5.825
39166SOL     OW19394   1.410   7.470   0.106
39166SOL    HW119395   1.345   7.401   0.090
39166SOL    HW219396   1.489   7.423   0.131
39167SOL     OW19397   3.917   0.506   2.513
39167SOL    HW119398   3.878   0.493   2.426
39167SOL    HW219399   3.899   0.598   2.534
39168SOL     OW19400   2.146  11.676  14.126
39168SOL    HW119401   2.092  11.704  14.200
39168SOL    HW219402   2.235  11.672  14.161
39169SOL     OW19403  12.616   1.106   8.678
39169SOL    HW119404  12.708   1.129   8.690
39169SOL    HW219405  12.568   1.166   8.735
39170SOL     OW19406  12.238  12.720  10.700
39170SOL    HW119407  12.223  12.673  10.618
39170SOL    HW219408  12.228  12.653  10.768
39171SOL     OW19409  11.722   8.552   0.995
39171SOL    HW119410  11.728   8.582   0.905
39171SOL    HW219411  11.689   8.463   0.989
39172SOL     OW19412   1.467   8.414  11.232
39172SOL    HW119413   1.372   8.416  11.218
39172SOL    HW219414   1.490   8.321  11.223
39173SOL     OW19415   3.968   5.725  10.984
39173SOL    HW119416   3.892   5.754  11.034
39173SOL    HW219417   3.981   5.793  10.918
39174SOL     OW19418   4.078   4.252  13.809
39174SOL    HW119419   4.111   4.340  13.792
39174SOL    HW219420   4.110   4.200  13.735
39175SOL     OW19421  13.149  14.856  10.219
39175SOL    HW119422  13.175   0.063  10.193
39175SOL    HW219423  13.223  14.824  10.270
39176SOL     OW19424  11.170   7.031  12.405
39176SOL    HW119425  11.092   6.987  12.437
39176SOL    HW219426  11.193   6.983  12.325
39177SOL     OW19427   7.281   5.168   1.901
39177SOL    HW119428   7.348   5.197   1.963
39177SOL    HW219429   7.198   5.178   1.948
39178SOL     OW19430  14.501  14.604  13.391
39178SOL    HW119431  14.496  14.694  13.422
39178SOL    HW219432  14.587  14.573  13.420
39179SOL     OW19433   4.694  14.315   3.130
39179SOL    HW119434   4.650  14.396   3.107
39179SOL    HW219435   4.783  14.326   3.096
39180SOL     OW19436   3.008   6.637   1.876
39180SOL    HW119437   3.035   6.634   1.968
39180SOL    HW219438   3.039   6.553   1.840
39181SOL     OW19439   1.750   5.906   3.164
39181SOL    HW119440   1.788   5.819   3.151
39181SOL    HW219441   1.689   5.917   3.091
39182SOL     OW19442  10.942   9.059  14.455
39182SOL    HW119443  10.875   9.096  14.399
39182SOL    HW219444  10.931   8.964  14.447
39183SOL     OW19445   5.017   4.043   3.093
39183SOL    HW119446   5.005   4.037   2.998
39183SOL    HW219447   5.028   4.137   3.110
39184SOL     OW19448   2.491   8.612   7.575
39184SOL    HW119449   2.464   8.638   7.487
39184SOL    HW219450   2.470   8.687   7.630
39185SOL     OW19451   1.918   7.861   5.158
39185SOL    HW119452   1.951   7.922   5.224
39185SOL    HW219453   1.908   7.778   5.204
39186SOL     OW19454  12.235   7.341   2.685
39186SOL    HW119455  12.220   7.432   2.659
39186SOL    HW219456  12.149   7.301   2.682
39187SOL     OW19457  13.215   9.594   4.005
39187SOL    HW119458  13.242   9.565   3.918
39187SOL    HW219459  13.207   9.513   4.056
39188SOL     OW19460   8.879  12.460   8.330
39188SOL    HW119461   8.845  12.500   8.250
39188SOL    HW219462   8.874  12.529   8.396
39189SOL     OW19463  11.486   3.253   5.797
39189SOL    HW119464  11.449   3.313   5.732
39189SOL    HW219465  11.456   3.288   5.881
39190SOL     OW19466  10.486  12.686   7.853
39190SOL    HW119467  10.516  12.771   7.885
39190SOL    HW219468  10.420  12.707   7.787
39191SOL     OW19469   7.645  12.001   9.387
39191SOL    HW119470   7.705  11.982   9.459
39191SOL    HW219471   7.632  12.096   9.391
39192SOL     OW19472   2.987   7.480   7.579
39192SOL    HW119473   2.910   7.532   7.601
39192SOL    HW219474   2.999   7.494   7.485
39193SOL     OW19475   8.018   1.198  11.931
39193SOL    HW119476   7.982   1.176  12.017
39193SOL    HW219477   8.088   1.134  11.917
39194SOL     OW19478   4.796   4.833  13.904
39194SOL    HW119479   4.854   4.781  13.960
39194SOL    HW219480   4.730   4.770  13.873
39195SOL     OW19481  10.228  12.613   9.016
39195SOL    HW119482  10.190  12.701   9.022
39195SOL    HW219483  10.269  12.611   8.930
39196SOL     OW19484   2.985   4.513   2.794
39196SOL    HW119485   2.997   4.560   2.711
39196SOL    HW219486   2.948   4.428   2.768
39197SOL     OW19487   6.779   7.006   7.237
39197SOL    HW119488   6.873   7.013   7.250
39197SOL    HW219489   6.742   7.015   7.325
39198SOL     OW19490  13.574  10.465  14.512
39198SOL    HW119491  13.632  10.476  14.587
39198SOL    HW219492  13.514  10.395  14.538
39199SOL     OW19493   0.444   2.383   9.519
39199SOL    HW119494   0.397   2.305   9.488
39199SOL    HW219495   0.475   2.426   9.440
39200SOL     OW19496   0.762  10.955   7.066
39200SOL    HW119497   0.714  11.027   7.107
39200SOL    HW219498   0.719  10.943   6.981
39201SOL     OW19499   9.843   9.738  13.606
39201SOL    HW119500   9.788   9.698  13.674
39201SOL    HW219501   9.880   9.664  13.558
39202SOL     OW19502   2.635  11.166  10.345
39202SOL    HW119503   2.651  11.146  10.437
39202SOL    HW219504   2.548  11.207  10.344
39203SOL     OW19505   9.136   0.826   0.147
39203SOL    HW119506   9.075   0.787   0.084
39203SOL    HW219507   9.095   0.908   0.173
39204SOL     OW19508   5.597  11.520  14.160
39204SOL    HW119509   5.673  11.535  14.216
39204SOL    HW219510   5.592  11.597  14.104
39205SOL     OW19511  10.139  10.969  13.919
39205SOL    HW119512  10.099  10.953  14.005
39205SOL    HW219513  10.144  11.065  13.913
39206SOL     OW19514  14.151   9.148   9.337
39206SOL    HW119515  14.216   9.211   9.369
39206SOL    HW219516  14.130   9.180   9.249
39207SOL     OW19517   5.129   6.898   1.854
39207SOL    HW119518   5.094   6.810   1.842
39207SOL    HW219519   5.224   6.885   1.856
39208SOL     OW19520   2.229   6.898   4.273
39208SOL    HW119521   2.134   6.891   4.278
39208SOL    HW219522   2.248   6.909   4.180
39209SOL     OW19523  12.887   8.909   0.791
39209SOL    HW119524  12.879   8.987   0.735
39209SOL    HW219525  12.944   8.936   0.862
39210SOL     OW19526   3.434   6.674   3.909
39210SOL    HW119527   3.457   6.724   3.831
39210SOL    HW219528   3.341   6.693   3.923
39211SOL     OW19529   5.748   4.300  12.998
39211SOL    HW119530   5.722   4.293  12.906
39211SOL    HW219531   5.841   4.277  12.999
39212SOL     OW19532   7.249  13.044   9.153
39212SOL    HW119533   7.178  13.022   9.092
39212SOL    HW219534   7.243  13.139   9.162
39213SOL     OW19535   3.173   7.690   1.168
39213SOL    HW119536   3.161   7.782   1.191
39213SOL    HW219537   3.109   7.674   1.098
39214SOL     OW19538  11.165   6.504   3.360
39214SOL    HW119539  11.071   6.494   3.345
39214SOL    HW219540  11.172   6.543   3.447
39215SOL     OW19541   3.244   1.228  11.263
39215SOL    HW119542   3.156   1.263  11.247
39215SOL    HW219543   3.260   1.244  11.356
39216SOL     OW19544   9.878   8.899  13.467
39216SOL    HW119545   9.939   8.897  13.394
39216SOL    HW219546   9.806   8.954  13.437
39217SOL     OW19547  14.648   5.985   6.045
39217SOL    HW119548  14.591   5.993   6.121
39217SOL    HW219549  14.697   5.903   6.060
39218SOL     OW19550  11.269   6.581  14.008
39218SOL    HW119551  11.188   6.623  13.977
39218SOL    HW219552  11.271   6.497  13.962
39219SOL     OW19553  13.369   0.312  13.290
39219SOL    HW119554  13.421   0.266  13.224
39219SOL    HW219555  13.413   0.397  13.299
39220SOL     OW19556   5.798   2.517   4.634
39220SOL    HW119557   5.823   2.518   4.726
39220SOL    HW219558   5.838   2.438   4.598
39221SOL     OW19559   8.705  13.683   9.982
39221SOL    HW119560   8.709  13.604   9.928
39221SOL    HW219561   8.627  13.670  10.037
39222SOL     OW19562   4.824   9.438   4.021
39222SOL    HW119563   4.800   9.395   3.939
39222SOL    HW219564   4.894   9.385   4.058
39223SOL     OW19565  12.801  11.833   4.191
39223SOL    HW119566  12.772  11.879   4.112
39223SOL    HW219567  12.897  11.841   4.188
39224SOL     OW19568   7.069   7.074   9.560
39224SOL    HW119569   7.158   7.075   9.595
39224SOL    HW219570   7.057   7.162   9.523
39225SOL     OW19571  13.655   2.637  14.218
39225SOL    HW119572  13.591   2.665  14.283
39225SOL    HW219573  13.659   2.710  14.156
39226SOL     OW19574   2.277   7.952   8.360
39226SOL    HW119575   2.365   7.928   8.389
39226SOL    HW219576   2.291   8.002   8.279
39227SOL     OW19577   1.779  13.230  12.588
39227SOL    HW119578   1.796  13.153  12.642
39227SOL    HW219579   1.728  13.197  12.514
39228SOL     OW19580   6.372  12.255   6.748
39228SOL    HW119581   6.436  12.307   6.700
39228SOL    HW219582   6.307  12.230   6.682
39229SOL     OW19583   8.805  14.852   6.624
39229SOL    HW119584   8.845   0.054   6.645
39229SOL    HW219585   8.766  14.823   6.706
39230SOL     OW19586   0.266  14.274   8.201
39230SOL    HW119587   0.281  14.368   8.215
39230SOL    HW219588   0.334  14.247   8.139
39231SOL     OW19589  13.789  13.329  10.594
39231SOL    HW119590  13.854  13.347  10.662
39231SOL    HW219591  13.838  13.332  10.512
39232SOL     OW19592   8.606   5.673   0.309
39232SOL    HW119593   8.654   5.731   0.370
39232SOL    HW219594   8.563   5.733   0.248
39233SOL     OW19595  14.558  13.546   3.205
39233SOL    HW119596  14.643  13.506   3.221
39233SOL    HW219597  14.519  13.493   3.135
39234SOL     OW19598  14.203   6.804   9.961
39234SOL    HW119599  14.242   6.792  10.048
39234SOL    HW219600  14.248   6.881   9.926
39235SOL     OW19601  13.842   2.372   6.522
39235SOL    HW119602  13.790   2.435   6.471
39235SOL    HW219603  13.819   2.390   6.613
39236SOL     OW19604   3.517  11.747   6.964
39236SOL    HW119605   3.522  11.798   6.883
39236SOL    HW219606   3.607  11.742   6.995
39237SOL     OW19607   9.981   8.922   3.493
39237SOL    HW119608  10.024   8.983   3.433
39237SOL    HW219609  10.037   8.922   3.571
39238SOL     OW19610  14.664   8.499   9.303
39238SOL    HW119611  14.617   8.481   9.221
39238SOL    HW219612  14.645   8.591   9.321
39239SOL     OW19613  13.783   6.978   0.155
39239SOL    HW119614  13.697   6.965   0.194
39239SOL    HW219615  13.807   7.068   0.179
39240SOL     OW19616   5.029   7.920  14.622
39240SOL    HW119617   5.096   7.974  14.665
39240SOL    HW219618   5.053   7.830  14.643
39241SOL     OW19619  14.113   7.415  10.606
39241SOL    HW119620  14.064   7.439  10.527
39241SOL    HW219621  14.045   7.388  10.668
39242SOL     OW19622   7.954  13.779   9.645
39242SOL    HW119623   8.043  13.796   9.676
39242SOL    HW219624   7.951  13.685   9.631
39243SOL     OW19625  12.317   0.387   6.895
39243SOL    HW119626  12.358   0.406   6.811
39243SOL    HW219627  12.227   0.362   6.873
39244SOL     OW19628   9.773  12.580   7.641
39244SOL    HW119629   9.688  12.612   7.673
39244SOL    HW219630   9.771  12.486   7.657
39245SOL     OW19631   4.620   0.375   4.658
39245SOL    HW119632   4.662   0.415   4.582
39245SOL    HW219633   4.563   0.307   4.621
39246SOL     OW19634  13.463  12.568  14.150
39246SOL    HW119635  13.497  12.656  14.164
39246SOL    HW219636  13.428  12.570  14.060
39247SOL     OW19637   1.223  10.471  12.702
39247SOL    HW119638   1.296  10.532  12.714
39247SOL    HW219639   1.253  10.390  12.744
39248SOL     OW19640  14.776   3.931   4.346
39248SOL    HW119641  14.747   4.020   4.367
39248SOL    HW219642  14.725   3.907   4.268
39249SOL     OW19643   9.574   9.925  14.369
39249SOL    HW119644   9.552   9.970  14.451
39249SOL    HW219645   9.667   9.904  14.376
39250SOL     OW19646   1.640   4.865   1.774
39250SOL    HW119647   1.551   4.834   1.756
39250SOL    HW219648   1.649   4.859   1.869
39251SOL     OW19649  11.403   7.192  13.263
39251SOL    HW119650  11.411   7.218  13.355
39251SOL    HW219651  11.430   7.270  13.214
39252SOL     OW19652  13.448   8.097   2.738
39252SOL    HW119653  13.468   8.099   2.832
39252SOL    HW219654  13.526   8.134   2.696
39253SOL     OW19655   2.662  14.519   3.008
39253SOL    HW119656   2.662  14.440   3.063
39253SOL    HW219657   2.747  14.560   3.026
39254SOL     OW19658  13.693  10.672  10.132
39254SOL    HW119659  13.739  10.742  10.179
39254SOL    HW219660  13.703  10.595  10.188
39255SOL     OW19661   2.243   8.073   7.146
39255SOL    HW119662   2.312   8.134   7.120
39255SOL    HW219663   2.286   7.987   7.145
39256SOL     OW19664   7.551   8.711  10.983
39256SOL    HW119665   7.600   8.755  10.914
39256SOL    HW219666   7.463   8.749  10.978
39257SOL     OW19667   0.715   0.939  13.106
39257SOL    HW119668   0.641   0.889  13.074
39257SOL    HW219669   0.779   0.935  13.035
39258SOL     OW19670   7.167  10.994   3.527
39258SOL    HW119671   7.169  10.899   3.537
39258SOL    HW219672   7.086  11.011   3.478
39259SOL     OW19673   3.882   2.248   7.563
39259SOL    HW119674   3.946   2.289   7.622
39259SOL    HW219675   3.840   2.322   7.519
39260SOL     OW19676   0.913  11.706   1.316
39260SOL    HW119677   0.927  11.800   1.302
39260SOL    HW219678   0.933  11.666   1.232
39261SOL     OW19679   4.155   9.059   5.618
39261SOL    HW119680   4.060   9.042   5.618
39261SOL    HW219681   4.187   9.008   5.543
39262SOL     OW19682   4.680   7.015   5.242
39262SOL    HW119683   4.608   7.001   5.181
39262SOL    HW219684   4.705   7.107   5.231
39263SOL     OW19685  13.835  13.244   7.362
39263SOL    HW119686  13.840  13.185   7.437
39263SOL    HW219687  13.833  13.186   7.286
39264SOL     OW19688   8.551  12.013   6.769
39264SOL    HW119689   8.458  12.031   6.780
39264SOL    HW219690   8.588  12.096   6.738
39265SOL     OW19691   9.354  12.869  11.508
39265SOL    HW119692   9.323  12.785  11.542
39265SOL    HW219693   9.279  12.928  11.515
39266SOL     OW19694   0.779   9.576   2.137
39266SOL    HW119695   0.785   9.542   2.226
39266SOL    HW219696   0.830   9.657   2.139
39267SOL     OW19697  11.717   0.618   2.692
39267SOL    HW119698  11.679   0.683   2.633
39267SOL    HW219699  11.647   0.554   2.706
39268SOL     OW19700   5.938   3.435   9.842
39268SOL    HW119701   6.023   3.480   9.840
39268SOL    HW219702   5.910   3.442   9.934
39269SOL     OW19703   8.014   5.540   6.195
39269SOL    HW119704   8.001   5.446   6.209
39269SOL    HW219705   8.066   5.544   6.114
39270SOL     OW19706  13.972   4.268   6.164
39270SOL    HW119707  13.942   4.233   6.248
39270SOL    HW219708  13.997   4.358   6.184
39271SOL     OW19709  13.044  12.142   0.713
39271SOL    HW119710  13.132  12.169   0.738
39271SOL    HW219711  13.018  12.205   0.646
39272SOL     OW19712  14.537   9.534   6.702
39272SOL    HW119713  14.595   9.586   6.757
39272SOL    HW219714  14.454   9.582   6.700
39273SOL     OW19715   1.792   7.293   5.415
39273SOL    HW119716   1.871   7.280   5.363
39273SOL    HW219717   1.732   7.224   5.385
39274SOL     OW19718  14.297  14.519  10.603
39274SOL    HW119719  14.242  14.572  10.546
39274SOL    HW219720  14.363  14.482  10.545
39275SOL     OW19721   1.892  13.672  12.972
39275SOL    HW119722   1.822  13.710  13.026
39275SOL    HW219723   1.972  13.697  13.017
39276SOL     OW19724  12.145   6.760   9.216
39276SOL    HW119725  12.125   6.854   9.217
39276SOL    HW219726  12.189   6.744   9.300
39277SOL     OW19727   1.149   7.926  13.078
39277SOL    HW119728   1.067   7.888  13.046
39277SOL    HW219729   1.124   8.011  13.113
39278SOL     OW19730   8.883  12.766   9.676
39278SOL    HW119731   8.949  12.725   9.621
39278SOL    HW219732   8.802  12.759   9.625
39279SOL     OW19733   0.314   8.905  11.444
39279SOL    HW119734   0.375   8.974  11.419
39279SOL    HW219735   0.366   8.846  11.499
39280SOL     OW19736  13.133   9.021   8.075
39280SOL    HW119737  13.090   8.964   8.139
39280SOL    HW219738  13.071   9.026   8.002
39281SOL     OW19739   5.122   5.832   7.850
39281SOL    HW119740   5.075   5.833   7.767
39281SOL    HW219741   5.215   5.829   7.825
39282SOL     OW19742   4.702  13.374   1.811
39282SOL    HW119743   4.705  13.381   1.906
39282SOL    HW219744   4.676  13.461   1.780
39283SOL     OW19745   6.188   7.319  10.629
39283SOL    HW119746   6.128   7.259  10.673
39283SOL    HW219747   6.273   7.274  10.630
39284SOL     OW19748   0.499   5.808  10.663
39284SOL    HW119749   0.430   5.744  10.641
39284SOL    HW219750   0.456   5.869  10.723
39285SOL     OW19751   8.581  11.925  12.908
39285SOL    HW119752   8.668  11.949  12.876
39285SOL    HW219753   8.563  11.988  12.978
39286SOL     OW19754   5.290  12.334   7.035
39286SOL    HW119755   5.197  12.328   7.014
39286SOL    HW219756   5.328  12.385   6.964
39287SOL     OW19757   4.695   3.971  11.743
39287SOL    HW119758   4.676   4.061  11.716
39287SOL    HW219759   4.711   3.924  11.662
39288SOL     OW19760  14.091   0.175  10.800
39288SOL    HW119761  14.020   0.119  10.830
39288SOL    HW219762  14.164   0.115  10.785
39289SOL     OW19763  10.724   3.283   0.252
39289SOL    HW119764  10.794   3.286   0.317
39289SOL    HW219765  10.757   3.337   0.180
39290SOL     OW19766  14.150   4.885  13.528
39290SOL    HW119767  14.171   4.911  13.618
39290SOL    HW219768  14.228   4.907  13.477
39291SOL     OW19769   1.845  13.833   2.868
39291SOL    HW119770   1.812  13.829   2.958
39291SOL    HW219771   1.940  13.828   2.877
39292SOL     OW19772   3.307  13.413  10.168
39292SOL    HW119773   3.309  13.321  10.193
39292SOL    HW219774   3.368  13.419  10.095
39293SOL     OW19775   1.917   5.289  13.380
39293SOL    HW119776   1.959   5.366  13.420
39293SOL    HW219777   1.912   5.226  13.452
39294SOL     OW19778  13.408   6.894   0.783
39294SOL    HW119779  13.448   6.946   0.853
39294SOL    HW219780  13.334   6.947   0.754
39295SOL     OW19781   1.710   9.645   9.188
39295SOL    HW119782   1.749   9.579   9.129
39295SOL    HW219783   1.632   9.675   9.141
39296SOL     OW19784  11.114   3.537  10.042
39296SOL    HW119785  11.041   3.491  10.002
39296SOL    HW219786  11.074   3.608  10.092
39297SOL     OW19787  11.011  12.240   5.532
39297SOL    HW119788  11.051  12.172   5.586
39297SOL    HW219789  10.925  12.206   5.510
39298SOL     OW19790  10.857   0.752   0.118
39298SOL    HW119791  10.835   0.810   0.045
39298SOL    HW219792  10.917   0.803   0.172
39299SOL     OW19793  13.288   5.940  11.747
39299SOL    HW119794  13.383   5.949  11.740
39299SOL    HW219795  13.253   5.990  11.673
39300SOL     OW19796  11.682  10.803  10.812
39300SOL    HW119797  11.715  10.832  10.726
39300SOL    HW219798  11.738  10.849  10.875
39301SOL     OW19799   6.150  11.116   1.630
39301SOL    HW119800   6.098  11.093   1.707
39301SOL    HW219801   6.232  11.070   1.642
39302SOL     OW19802   5.294  10.733   3.890
39302SOL    HW119803   5.267  10.786   3.815
39302SOL    HW219804   5.294  10.643   3.858
39303SOL     OW19805   4.382  13.511   8.883
39303SOL    HW119806   4.377  13.516   8.978
39303SOL    HW219807   4.341  13.591   8.852
39304SOL     OW19808   4.459  10.925   4.147
39304SOL    HW119809   4.499  11.000   4.103
39304SOL    HW219810   4.450  10.953   4.238
39305SOL     OW19811   0.072   9.675   6.405
39305SOL    HW119812   0.001   9.730   6.437
39305SOL    HW219813   0.047   9.654   6.314
39306SOL     OW19814   8.638   1.176   7.527
39306SOL    HW119815   8.562   1.123   7.550
39306SOL    HW219816   8.624   1.258   7.574
39307SOL     OW19817  14.450   8.418  13.134
39307SOL    HW119818  14.370   8.435  13.084
39307SOL    HW219819  14.493   8.503  13.140
39308SOL     OW19820   1.797  14.878   3.562
39308SOL    HW119821   1.787  14.854   3.654
39308SOL    HW219822   1.776  14.798   3.514
39309SOL     OW19823   9.566   8.008   2.204
39309SOL    HW119824   9.657   8.032   2.189
39309SOL    HW219825   9.516   8.068   2.148
39310SOL     OW19826   6.918   8.520  13.589
39310SOL    HW119827   7.008   8.496  13.567
39310SOL    HW219828   6.897   8.466  13.665
39311SOL     OW19829   8.684   3.609   5.749
39311SOL    HW119830   8.691   3.566   5.834
39311SOL    HW219831   8.746   3.562   5.693
39312SOL     OW19832  11.470   6.276  14.861
39312SOL    HW119833  11.534   6.211   0.008
39312SOL    HW219834  11.456   6.332   0.056
39313SOL     OW19835   9.584   3.146  11.089
39313SOL    HW119836   9.505   3.126  11.139
39313SOL    HW219837   9.586   3.242  11.084
39314SOL     OW19838   2.594   9.550  10.281
39314SOL    HW119839   2.537   9.507  10.217
39314SOL    HW219840   2.682   9.522  10.257
39315SOL     OW19841   2.317  10.399  13.056
39315SOL    HW119842   2.298  10.354  13.138
39315SOL    HW219843   2.411  10.388  13.043
39316SOL     OW19844   6.685   5.406  14.080
39316SOL    HW119845   6.613   5.465  14.102
39316SOL    HW219846   6.731   5.392  14.162
39317SOL     OW19847  14.656   5.182   6.606
39317SOL    HW119848  14.564   5.182   6.577
39317SOL    HW219849  14.691   5.101   6.570
39318SOL     OW19850   5.543   1.135   6.965
39318SOL    HW119851   5.483   1.162   6.896
39318SOL    HW219852   5.499   1.061   7.007
39319SOL     OW19853   2.649  13.616   4.971
39319SOL    HW119854   2.733  13.662   4.977
39319SOL    HW219855   2.667  13.529   5.006
39320SOL     OW19856   5.554  11.132  10.169
39320SOL    HW119857   5.639  11.107  10.133
39320SOL    HW219858   5.568  11.217  10.209
39321SOL     OW19859   0.478   8.882   8.470
39321SOL    HW119860   0.568   8.917   8.468
39321SOL    HW219861   0.488   8.788   8.454
39322SOL     OW19862   7.218   5.947   2.444
39322SOL    HW119863   7.174   5.958   2.528
39322SOL    HW219864   7.150   5.963   2.379
39323SOL     OW19865  12.476   5.867  11.621
39323SOL    HW119866  12.472   5.962  11.610
39323SOL    HW219867  12.446   5.852  11.711
39324SOL     OW19868   2.917  13.793   5.922
39324SOL    HW119869   3.007  13.768   5.902
39324SOL    HW219870   2.864  13.722   5.885
39325SOL     OW19871   8.193  14.821   9.319
39325SOL    HW119872   8.252  14.808   9.245
39325SOL    HW219873   8.108  14.839   9.279
39326SOL     OW19874   8.584   7.299   1.222
39326SOL    HW119875   8.625   7.253   1.149
39326SOL    HW219876   8.657   7.343   1.267
39327SOL     OW19877   6.565   3.467   3.065
39327SOL    HW119878   6.650   3.497   3.096
39327SOL    HW219879   6.582   3.439   2.975
39328SOL     OW19880   1.171  12.855  13.692
39328SOL    HW119881   1.162  12.826  13.783
39328SOL    HW219882   1.106  12.803  13.644
39329SOL     OW19883  13.359  14.498   2.494
39329SOL    HW119884  13.299  14.512   2.567
39329SOL    HW219885  13.435  14.551   2.514
39330SOL     OW19886   4.402  11.203   3.834
39330SOL    HW119887   4.409  11.116   3.794
39330SOL    HW219888   4.463  11.199   3.908
39331SOL     OW19889  13.034   4.200   6.744
39331SOL    HW119890  13.029   4.296   6.738
39331SOL    HW219891  12.959   4.176   6.800
39332SOL     OW19892   3.838  14.475   6.967
39332SOL    HW119893   3.784  14.519   6.901
39332SOL    HW219894   3.786  14.477   7.047
39333SOL     OW19895   7.222   0.944   2.899
39333SOL    HW119896   7.282   0.925   2.828
39333SOL    HW219897   7.279   0.969   2.972
39334SOL     OW19898   0.132   4.759  11.329
39334SOL    HW119899   0.185   4.680  11.321
39334SOL    HW219900   0.044   4.732  11.304
39335SOL     OW19901   0.750   3.121  10.790
39335SOL    HW119902   0.819   3.124  10.857
39335SOL    HW219903   0.673   3.156  10.834
39336SOL     OW19904   7.687   0.582   9.207
39336SOL    HW119905   7.680   0.499   9.161
39336SOL    HW219906   7.646   0.646   9.148
39337SOL     OW19907   6.382   7.490  13.388
39337SOL    HW119908   6.404   7.431  13.316
39337SOL    HW219909   6.419   7.574  13.363
39338SOL     OW19910   1.850  14.800   1.414
39338SOL    HW119911   1.799  14.799   1.495
39338SOL    HW219912   1.849   0.010   1.386
39339SOL     OW19913  13.040  14.237   5.036
39339SOL    HW119914  13.077  14.258   5.122
39339SOL    HW219915  13.116  14.220   4.980
39340SOL     OW19916   3.239   3.708  10.204
39340SOL    HW119917   3.246   3.735  10.296
39340SOL    HW219918   3.270   3.784  10.155
39341SOL     OW19919   5.897  11.251   1.155
39341SOL    HW119920   5.931  11.215   1.073
39341SOL    HW219921   5.820  11.301   1.130
39342SOL     OW19922   3.828  11.681   4.621
39342SOL    HW119923   3.867  11.761   4.657
39342SOL    HW219924   3.844  11.615   4.689
39343SOL     OW19925   5.270   0.566   8.335
39343SOL    HW119926   5.347   0.563   8.278
39343SOL    HW219927   5.290   0.634   8.398
39344SOL     OW19928   0.203  14.385  14.557
39344SOL    HW119929   0.151  14.335  14.494
39344SOL    HW219930   0.254  14.446  14.503
39345SOL     OW19931  13.414  11.389   0.305
39345SOL    HW119932  13.510  11.384   0.302
39345SOL    HW219933  13.387  11.310   0.351
39346SOL     OW19934   5.610   3.578   6.036
39346SOL    HW119935   5.644   3.658   6.077
39346SOL    HW219936   5.516   3.592   6.032
39347SOL     OW19937   2.559   2.361  12.108
39347SOL    HW119938   2.529   2.435  12.161
39347SOL    HW219939   2.652   2.351  12.131
39348SOL     OW19940  14.562   0.155   3.114
39348SOL    HW119941  14.487   0.191   3.161
39348SOL    HW219942  14.631   0.148   3.180
39349SOL     OW19943   0.807   3.273  13.175
39349SOL    HW119944   0.801   3.184  13.209
39349SOL    HW219945   0.766   3.327  13.243
39350SOL     OW19946  14.407  11.785   1.481
39350SOL    HW119947  14.350  11.856   1.451
39350SOL    HW219948  14.377  11.768   1.571
39351SOL     OW19949   1.583  13.723  10.472
39351SOL    HW119950   1.628  13.803  10.498
39351SOL    HW219951   1.525  13.703  10.545
39352SOL     OW19952  11.737  10.335  14.687
39352SOL    HW119953  11.830  10.350  14.704
39352SOL    HW219954  11.735  10.255  14.634
39353SOL     OW19955   0.707  13.245  10.706
39353SOL    HW119956   0.623  13.284  10.681
39353SOL    HW219957   0.733  13.293  10.785
39354SOL     OW19958   4.567  12.952   0.588
39354SOL    HW119959   4.495  12.946   0.652
39354SOL    HW219960   4.577  12.862   0.555
39355SOL     OW19961  11.858   9.924  13.194
39355SOL    HW119962  11.892   9.929  13.105
39355SOL    HW219963  11.824   9.834  13.201
39356SOL     OW19964   5.656   0.204  10.781
39356SOL    HW119965   5.724   0.219  10.716
39356SOL    HW219966   5.620   0.292  10.799
39357SOL     OW19967  14.175   5.648   2.777
39357SOL    HW119968  14.106   5.714   2.769
39357SOL    HW219969  14.233   5.682   2.845
39358SOL     OW19970   4.829   3.807   3.096
39358SOL    HW119971   4.900   3.870   3.087
39358SOL    HW219972   4.760   3.854   3.143
39359SOL     OW19973  14.268  11.317  11.042
39359SOL    HW119974  14.178  11.285  11.039
39359SOL    HW219975  14.322  11.239  11.058
39360SOL     OW19976  13.389   9.324  12.846
39360SOL    HW119977  13.461   9.333  12.909
39360SOL    HW219978  13.339   9.405  12.855
39361SOL     OW19979  11.994   0.213   0.712
39361SOL    HW119980  11.914   0.196   0.662
39361SOL    HW219981  12.003   0.309   0.712
39362SOL     OW19982   1.254  14.856   0.169
39362SOL    HW119983   1.289   0.063   0.164
39362SOL    HW219984   1.280  14.815   0.087
39363SOL     OW19985  14.449   2.593   2.027
39363SOL    HW119986  14.501   2.635   1.959
39363SOL    HW219987  14.471   2.500   2.021
39364SOL     OW19988   8.351  14.101  11.847
39364SOL    HW119989   8.272  14.108  11.793
39364SOL    HW219990   8.423  14.099  11.785
39365SOL     OW19991   1.331  11.328   5.694
39365SOL    HW119992   1.378  11.300   5.773
39365SOL    HW219993   1.240  11.338   5.722
39366SOL     OW19994   8.841  10.831   0.284
39366SOL    HW119995   8.846  10.762   0.350
39366SOL    HW219996   8.868  10.910   0.330
39367SOL     OW19997   0.061   1.450   7.373
39367SOL    HW119998   0.112   1.527   7.350
39367SOL    HW219999  14.873   1.447   7.308
39368SOL     OW20000  11.087   1.372   9.533
39368SOL    HW120001  11.092   1.394   9.440
39368SOL    HW220002  11.024   1.300   9.537
39369SOL     OW20003   4.884  13.524   7.271
39369SOL    HW120004   4.862  13.482   7.188
39369SOL    HW220005   4.842  13.610   7.265
39370SOL     OW20006   8.280   4.389   6.404
39370SOL    HW120007   8.322   4.475   6.404
39370SOL    HW220008   8.302   4.352   6.318
39371SOL     OW20009  11.564  10.889   6.578
39371SOL    HW120010  11.551  10.866   6.486
39371SOL    HW220011  11.618  10.818   6.613
39372SOL     OW20012   7.566  12.255   0.702
39372SOL    HW120013   7.541  12.167   0.729
39372SOL    HW220014   7.523  12.313   0.765
39373SOL     OW20015   6.745   9.558   9.892
39373SOL    HW120016   6.817   9.506   9.856
39373SOL    HW220017   6.751   9.544   9.986
39374SOL     OW20018  10.895  10.795   3.222
39374SOL    HW120019  10.904  10.800   3.317
39374SOL    HW220020  10.959  10.729   3.195
39375SOL     OW20021   3.596   1.336   6.566
39375SOL    HW120022   3.648   1.256   6.554
39375SOL    HW220023   3.534   1.335   6.493
39376SOL     OW20024   5.898  13.839   0.603
39376SOL    HW120025   5.833  13.771   0.622
39376SOL    HW220026   5.848  13.909   0.561
39377SOL     OW20027   8.510  11.326  12.281
39377SOL    HW120028   8.496  11.241  12.322
39377SOL    HW220029   8.436  11.336  12.221
39378SOL     OW20030   1.822  13.351   0.690
39378SOL    HW120031   1.909  13.386   0.667
39378SOL    HW220032   1.771  13.360   0.609
39379SOL     OW20033   1.806  10.885  11.367
39379SOL    HW120034   1.717  10.866  11.396
39379SOL    HW220035   1.811  10.850  11.278
39380SOL     OW20036  11.758  11.251  11.346
39380SOL    HW120037  11.707  11.298  11.280
39380SOL    HW220038  11.763  11.310  11.421
39381SOL     OW20039   0.518  12.088   0.860
39381SOL    HW120040   0.569  12.145   0.802
39381SOL    HW220041   0.571  12.009   0.868
39382SOL     OW20042  12.525   8.611   9.341
39382SOL    HW120043  12.578   8.687   9.319
39382SOL    HW220044  12.527   8.556   9.263
39383SOL     OW20045   2.367  14.641   9.200
39383SOL    HW120046   2.335  14.719   9.154
39383SOL    HW220047   2.388  14.672   9.288
39384SOL     OW20048   5.374  10.199   3.945
39384SOL    HW120049   5.437  10.268   3.965
39384SOL    HW220050   5.378  10.189   3.850
39385SOL     OW20051   0.894   5.743   0.536
39385SOL    HW120052   0.937   5.702   0.461
39385SOL    HW220053   0.801   5.739   0.514
39386SOL     OW20054   6.919  12.625   0.829
39386SOL    HW120055   6.994  12.676   0.858
39386SOL    HW220056   6.898  12.659   0.742
39387SOL     OW20057  10.602   4.779   1.077
39387SOL    HW120058  10.540   4.706   1.068
39387SOL    HW220059  10.587   4.833   0.999
39388SOL     OW20060   6.748  11.249  10.529
39388SOL    HW120061   6.671  11.250  10.472
39388SOL    HW220062   6.730  11.178  10.592
39389SOL     OW20063  12.306   6.718   5.417
39389SOL    HW120064  12.357   6.649   5.375
39389SOL    HW220065  12.295   6.688   5.508
39390SOL     OW20066   5.764   4.090   5.522
39390SOL    HW120067   5.743   4.098   5.429
39390SOL    HW220068   5.802   4.002   5.530
39391SOL     OW20069   5.085  10.700   4.503
39391SOL    HW120070   5.154  10.701   4.437
39391SOL    HW220071   5.007  10.670   4.456
39392SOL     OW20072   3.122   5.454   8.353
39392SOL    HW120073   3.122   5.539   8.309
39392SOL    HW220074   3.118   5.390   8.281
39393SOL     OW20075   4.257  13.612  14.455
39393SOL    HW120076   4.189  13.618  14.522
39393SOL    HW220077   4.266  13.519  14.439
39394SOL     OW20078  14.369   6.187   6.395
39394SOL    HW120079  14.291   6.236   6.369
39394SOL    HW220080  14.363   6.182   6.490
39395SOL     OW20081  14.866  13.973  10.323
39395SOL    HW120082  14.787  13.917  10.321
39395SOL    HW220083  14.843  14.048  10.269
39396SOL     OW20084   2.428   5.762   3.798
39396SOL    HW120085   2.406   5.698   3.865
39396SOL    HW220086   2.450   5.709   3.721
39397SOL     OW20087  14.587  11.208   1.900
39397SOL    HW120088  14.549  11.145   1.840
39397SOL    HW220089  14.512  11.244   1.948
39398SOL     OW20090   3.083   0.568   8.277
39398SOL    HW120091   3.064   0.566   8.184
39398SOL    HW220092   3.154   0.504   8.289
39399SOL     OW20093   7.543  14.306   5.550
39399SOL    HW120094   7.467  14.362   5.567
39399SOL    HW220095   7.575  14.282   5.637
39400SOL     OW20096   3.340   0.874   4.480
39400SOL    HW120097   3.278   0.906   4.546
39400SOL    HW220098   3.284   0.833   4.414
39401SOL     OW20099  13.664   9.794   7.225
39401SOL    HW120100  13.622   9.823   7.305
39401SOL    HW220101  13.701   9.709   7.247
39402SOL     OW20102   9.325   6.828   0.467
39402SOL    HW120103   9.365   6.806   0.383
39402SOL    HW220104   9.265   6.899   0.447
39403SOL     OW20105   1.073   4.582   8.430
39403SOL    HW120106   1.075   4.584   8.526
39403SOL    HW220107   1.159   4.615   8.404
39404SOL     OW20108   4.568  12.274   9.488
39404SOL    HW120109   4.541  12.255   9.399
39404SOL    HW220110   4.487  12.280   9.538
39405SOL     OW20111   8.279   4.897   1.212
39405SOL    HW120112   8.290   4.939   1.127
39405SOL    HW220113   8.264   4.968   1.274
39406SOL     OW20114   7.585   0.337   1.003
39406SOL    HW120115   7.639   0.342   0.924
39406SOL    HW220116   7.627   0.269   1.056
39407SOL     OW20117   0.437   6.534   2.736
39407SOL    HW120118   0.477   6.447   2.732
39407SOL    HW220119   0.499   6.591   2.691
39408SOL     OW20120   2.404  12.522   4.292
39408SOL    HW120121   2.315  12.485   4.288
39408SOL    HW220122   2.460  12.452   4.260
39409SOL     OW20123   2.036  12.210   4.537
39409SOL    HW120124   2.094  12.236   4.609
39409SOL    HW220125   1.994  12.291   4.509
39410SOL     OW20126  13.340  13.400   0.749
39410SOL    HW120127  13.366  13.457   0.821
39410SOL    HW220128  13.419  13.391   0.696
39411SOL     OW20129   2.463   8.762   0.474
39411SOL    HW120130   2.495   8.690   0.420
39411SOL    HW220131   2.388   8.797   0.425
39412SOL     OW20132   2.954   6.142  11.157
39412SOL    HW120133   2.898   6.189  11.218
39412SOL    HW220134   2.959   6.199  11.080
39413SOL     OW20135   9.058   3.773  12.188
39413SOL    HW120136   9.038   3.848  12.244
39413SOL    HW220137   9.152   3.779  12.171
39414SOL     OW20138  10.594   1.788  10.982
39414SOL    HW120139  10.539   1.710  10.974
39414SOL    HW220140  10.584   1.815  11.073
39415SOL     OW20141   3.513   3.457  11.944
39415SOL    HW120142   3.552   3.377  11.978
39415SOL    HW220143   3.565   3.528  11.983
39416SOL     OW20144   2.626   6.489   3.841
39416SOL    HW120145   2.649   6.565   3.786
39416SOL    HW220146   2.612   6.418   3.778
39417SOL     OW20147   4.684   4.990   6.808
39417SOL    HW120148   4.761   4.954   6.851
39417SOL    HW220149   4.719   5.041   6.735
39418SOL     OW20150  14.178   5.721   4.247
39418SOL    HW120151  14.082   5.714   4.252
39418SOL    HW220152  14.209   5.664   4.317
39419SOL     OW20153   5.509   4.859   0.427
39419SOL    HW120154   5.591   4.890   0.389
39419SOL    HW220155   5.447   4.930   0.410
39420SOL     OW20156   5.406  13.065   8.703
39420SOL    HW120157   5.339  13.121   8.665
39420SOL    HW220158   5.485  13.119   8.701
39421SOL     OW20159   2.199   5.498  14.306
39421SOL    HW120160   2.107   5.521  14.290
39421SOL    HW220161   2.218   5.535  14.392
39422SOL     OW20162  14.682   0.755  14.736
39422SOL    HW120163  14.646   0.676  14.697
39422SOL    HW220164  14.619   0.780  14.803
39423SOL     OW20165   9.143   3.906   7.116
39423SOL    HW120166   9.169   3.998   7.118
39423SOL    HW220167   9.147   3.877   7.207
39424SOL     OW20168   7.593   5.953   8.194
39424SOL    HW120169   7.531   5.941   8.122
39424SOL    HW220170   7.677   5.969   8.152
39425SOL     OW20171   7.158  13.518  12.624
39425SOL    HW120172   7.238  13.466  12.629
39425SOL    HW220173   7.187  13.608  12.635
39426SOL     OW20174   7.827  14.828   2.053
39426SOL    HW120175   7.783   0.020   2.095
39426SOL    HW220176   7.781  14.817   1.970
39427SOL     OW20177  13.081   7.234  12.624
39427SOL    HW120178  13.003   7.201  12.579
39427SOL    HW220179  13.055   7.241  12.716
39428SOL     OW20180  14.276  10.149   9.221
39428SOL    HW120181  14.353  10.098   9.197
39428SOL    HW220182  14.232  10.168   9.137
39429SOL     OW20183   1.206  12.815  12.761
39429SOL    HW120184   1.299  12.820  12.738
39429SOL    HW220185   1.174  12.738  12.715
39430SOL     OW20186   8.507  13.194   7.014
39430SOL    HW120187   8.587  13.142   7.007
39430SOL    HW220188   8.535  13.277   7.051
39431SOL     OW20189  12.843  14.358  12.214
39431SOL    HW120190  12.858  14.391  12.126
39431SOL    HW220191  12.849  14.436  12.270
39432SOL     OW20192   1.631  10.158   4.623
39432SOL    HW120193   1.594  10.220   4.561
39432SOL    HW220194   1.563  10.147   4.690
39433SOL     OW20195   2.554   6.958   0.610
39433SOL    HW120196   2.625   6.920   0.558
39433SOL    HW220197   2.480   6.899   0.597
39434SOL     OW20198   8.549   6.461   7.602
39434SOL    HW120199   8.583   6.477   7.690
39434SOL    HW220200   8.540   6.549   7.564
39435SOL     OW20201  10.426   3.681   3.232
39435SOL    HW120202  10.484   3.609   3.207
39435SOL    HW220203  10.464   3.758   3.190
39436SOL     OW20204  10.139   7.515   8.580
39436SOL    HW120205  10.097   7.575   8.641
39436SOL    HW220206  10.215   7.481   8.627
39437SOL     OW20207   4.765   5.783   7.822
39437SOL    HW120208   4.755   5.777   7.917
39437SOL    HW220209   4.781   5.876   7.806
39438SOL     OW20210   5.875   0.069   5.644
39438SOL    HW120211   5.834   0.083   5.559
39438SOL    HW220212   5.812   0.015   5.692
39439SOL     OW20213  13.992   9.274   6.515
39439SOL    HW120214  13.897   9.286   6.511
39439SOL    HW220215  14.011   9.264   6.609
39440SOL     OW20216  12.867  11.285   0.808
39440SOL    HW120217  12.775  11.290   0.835
39440SOL    HW220218  12.869  11.329   0.723
39441SOL     OW20219   0.108   9.545   8.054
39441SOL    HW120220   0.013   9.550   8.065
39441SOL    HW220221   0.133   9.634   8.026
39442SOL     OW20222   4.957  13.085   6.756
39442SOL    HW120223   5.007  13.146   6.703
39442SOL    HW220224   5.014  13.066   6.831
39443SOL     OW20225   6.866   6.299  10.717
39443SOL    HW120226   6.836   6.388  10.737
39443SOL    HW220227   6.961   6.308  10.708
39444SOL     OW20228   0.063   4.055  11.631
39444SOL    HW120229   0.033   4.018  11.715
39444SOL    HW220230  14.871   4.042  11.572
39445SOL     OW20231   8.606  10.909  12.414
39445SOL    HW120232   8.652  10.930  12.333
39445SOL    HW220233   8.611  10.990  12.466
39446SOL     OW20234   7.908  14.462  13.693
39446SOL    HW120235   7.861  14.504  13.621
39446SOL    HW220236   7.883  14.511  13.771
39447SOL     OW20237   8.143   5.343   1.623
39447SOL    HW120238   8.104   5.275   1.678
39447SOL    HW220239   8.182   5.405   1.685
39448SOL     OW20240   7.974  12.317  10.859
39448SOL    HW120241   8.027  12.356  10.789
39448SOL    HW220242   7.891  12.294  10.816
39449SOL     OW20243  12.889  11.056  11.411
39449SOL    HW120244  12.984  11.062  11.423
39449SOL    HW220245  12.855  11.032  11.498
39450SOL     OW20246   1.254   2.330   0.386
39450SOL    HW120247   1.245   2.253   0.442
39450SOL    HW220248   1.322   2.382   0.429
39451SOL     OW20249   4.368   6.526   5.937
39451SOL    HW120250   4.437   6.499   5.877
39451SOL    HW220251   4.294   6.547   5.880
39452SOL     OW20252  10.772   5.289  14.155
39452SOL    HW120253  10.820   5.237  14.219
39452SOL    HW220254  10.765   5.233  14.078
39453SOL     OW20255  11.685  10.610   8.253
39453SOL    HW120256  11.655  10.542   8.314
39453SOL    HW220257  11.753  10.656   8.301
39454SOL     OW20258   9.148  14.523  12.042
39454SOL    HW120259   9.224  14.494  12.091
39454SOL    HW220260   9.162  14.489  11.953
39455SOL     OW20261   5.106   1.857   0.896
39455SOL    HW120262   5.184   1.840   0.949
39455SOL    HW220263   5.128   1.935   0.845
39456SOL     OW20264   6.909  11.405  12.626
39456SOL    HW120265   6.869  11.468  12.566
39456SOL    HW220266   6.836  11.353  12.658
39457SOL     OW20267   2.675   1.261   9.375
39457SOL    HW120268   2.643   1.340   9.420
39457SOL    HW220269   2.733   1.220   9.439
39458SOL     OW20270   6.281  13.731   5.468
39458SOL    HW120271   6.367  13.735   5.510
39458SOL    HW220272   6.246  13.646   5.494
39459SOL     OW20273   2.609   1.792   1.186
39459SOL    HW120274   2.551   1.853   1.140
39459SOL    HW220275   2.555   1.714   1.200
39460SOL     OW20276   1.422   6.890  13.932
39460SOL    HW120277   1.330   6.901  13.910
39460SOL    HW220278   1.432   6.797  13.951
39461SOL     OW20279   6.786   7.927   9.574
39461SOL    HW120280   6.780   8.020   9.597
39461SOL    HW220281   6.738   7.882   9.644
39462SOL     OW20282  10.065  12.703   2.167
39462SOL    HW120283  10.088  12.783   2.215
39462SOL    HW220284  10.060  12.732   2.076
39463SOL     OW20285   2.213   6.715   5.380
39463SOL    HW120286   2.153   6.763   5.436
39463SOL    HW220287   2.161   6.639   5.350
39464SOL     OW20288  13.353   7.969  10.758
39464SOL    HW120289  13.438   8.011  10.761
39464SOL    HW220290  13.370   7.882  10.723
39465SOL     OW20291  10.104  11.667   6.058
39465SOL    HW120292  10.100  11.590   6.115
39465SOL    HW220293  10.180  11.651   6.002
39466SOL     OW20294  14.790   5.390   6.293
39466SOL    HW120295  14.714   5.433   6.253
39466SOL    HW220296  14.828   5.340   6.221
39467SOL     OW20297  11.288   9.982  11.886
39467SOL    HW120298  11.322  10.036  11.815
39467SOL    HW220299  11.363   9.928  11.912
39468SOL     OW20300   5.948  12.446   5.219
39468SOL    HW120301   5.918  12.414   5.304
39468SOL    HW220302   6.040  12.420   5.214
39469SOL     OW20303   4.998   3.891   1.933
39469SOL    HW120304   5.084   3.896   1.975
39469SOL    HW220305   4.983   3.797   1.919
39470SOL     OW20306  10.182  13.560   2.049
39470SOL    HW120307  10.158  13.498   1.979
39470SOL    HW220308  10.264  13.525   2.083
39471SOL     OW20309  12.969  12.257   1.583
39471SOL    HW120310  13.017  12.227   1.506
39471SOL    HW220311  13.022  12.230   1.658
39472SOL     OW20312   9.169   2.543  12.568
39472SOL    HW120313   9.251   2.590  12.587
39472SOL    HW220314   9.105   2.612  12.552
39473SOL     OW20315   9.249   8.240  13.873
39473SOL    HW120316   9.186   8.237  13.945
39473SOL    HW220317   9.197   8.224  13.795
39474SOL     OW20318   2.409   4.546   3.308
39474SOL    HW120319   2.490   4.572   3.353
39474SOL    HW220320   2.413   4.591   3.223
39475SOL     OW20321  11.687  14.865   5.426
39475SOL    HW120322  11.777   0.008   5.449
39475SOL    HW220323  11.640   0.066   5.419
39476SOL     OW20324   7.643  14.717  13.703
39476SOL    HW120325   7.555  14.735  13.668
39476SOL    HW220326   7.694  14.690  13.626
39477SOL     OW20327  11.891   7.710   5.804
39477SOL    HW120328  11.860   7.759   5.729
39477SOL    HW220329  11.856   7.757   5.880
39478SOL     OW20330   0.198   9.081   7.603
39478SOL    HW120331   0.194   8.990   7.635
39478SOL    HW220332   0.142   9.081   7.525
39479SOL     OW20333   3.617  12.306  12.183
39479SOL    HW120334   3.669  12.277  12.108
39479SOL    HW220335   3.648  12.252  12.256
39480SOL     OW20336   2.693   0.466  13.750
39480SOL    HW120337   2.725   0.410  13.821
39480SOL    HW220338   2.623   0.517  13.790
39481SOL     OW20339   9.282   3.298   6.437
39481SOL    HW120340   9.218   3.352   6.483
39481SOL    HW220341   9.300   3.346   6.356
39482SOL     OW20342   9.209  13.364  13.341
39482SOL    HW120343   9.231  13.313  13.419
39482SOL    HW220344   9.216  13.455  13.369
39483SOL     OW20345  13.300   2.089   3.857
39483SOL    HW120346  13.255   2.159   3.904
39483SOL    HW220347  13.393   2.109   3.867
39484SOL     OW20348   2.094  10.133   6.320
39484SOL    HW120349   2.106  10.049   6.277
39484SOL    HW220350   2.127  10.197   6.258
39485SOL     OW20351   0.573   9.896  13.960
39485SOL    HW120352   0.484   9.916  13.990
39485SOL    HW220353   0.577   9.801  13.955
39486SOL     OW20354   0.650  12.154   0.312
39486SOL    HW120355   0.711  12.157   0.238
39486SOL    HW220356   0.564  12.168   0.272
39487SOL     OW20357  13.428   9.573  12.268
39487SOL    HW120358  13.448   9.584  12.361
39487SOL    HW220359  13.357   9.635  12.251
39488SOL     OW20360  12.989   6.077   3.102
39488SOL    HW120361  12.946   6.012   3.046
39488SOL    HW220362  12.919   6.107   3.161
39489SOL     OW20363  12.970  14.861   7.870
39489SOL    HW120364  12.877  14.877   7.880
39489SOL    HW220365  13.013   0.054   7.912
39490SOL     OW20366  11.933   1.992   7.565
39490SOL    HW120367  11.930   1.965   7.657
39490SOL    HW220368  11.862   1.943   7.523
39491SOL     OW20369   5.076  11.585   7.648
39491SOL    HW120370   5.027  11.558   7.725
39491SOL    HW220371   5.140  11.648   7.681
39492SOL     OW20372   3.017  13.318   4.389
39492SOL    HW120373   3.005  13.272   4.473
39492SOL    HW220374   3.009  13.249   4.323
39493SOL     OW20375   5.463  12.786   1.730
39493SOL    HW120376   5.498  12.785   1.818
39493SOL    HW220377   5.538  12.805   1.674
39494SOL     OW20378  10.988   3.820   9.825
39494SOL    HW120379  11.029   3.733   9.826
39494SOL    HW220380  10.906   3.808   9.872
39495SOL     OW20381   7.045   8.374   5.024
39495SOL    HW120382   7.122   8.396   5.077
39495SOL    HW220383   7.022   8.456   4.981
39496SOL     OW20384   6.742   9.423  11.487
39496SOL    HW120385   6.709   9.486  11.423
39496SOL    HW220386   6.681   9.350  11.481
39497SOL     OW20387   9.770  13.698  10.019
39497SOL    HW120388   9.806  13.719   9.933
39497SOL    HW220389   9.842  13.716  10.080
39498SOL     OW20390   4.520  10.398   8.427
39498SOL    HW120391   4.436  10.426   8.463
39498SOL    HW220392   4.579  10.397   8.503
39499SOL     OW20393  12.474   0.255   6.235
39499SOL    HW120394  12.543   0.207   6.189
39499SOL    HW220395  12.501   0.347   6.231
39500SOL     OW20396   1.397   4.688  11.798
39500SOL    HW120397   1.416   4.598  11.770
39500SOL    HW220398   1.347   4.678  11.879
39501SOL     OW20399   0.537  11.567  13.077
39501SOL    HW120400   0.493  11.639  13.032
39501SOL    HW220401   0.582  11.608  13.151
39502SOL     OW20402  14.046  10.460  11.019
39502SOL    HW120403  14.016  10.390  11.077
39502SOL    HW220404  13.979  10.466  10.952
39503SOL     OW20405  11.878   3.064   5.958
39503SOL    HW120406  11.951   3.009   5.929
39503SOL    HW220407  11.801   3.007   5.950
39504SOL     OW20408  14.378  10.615   8.728
39504SOL    HW120409  14.421  10.559   8.792
39504SOL    HW220410  14.449  10.655   8.678
39505SOL     OW20411   3.757   5.798   4.563
39505SOL    HW120412   3.748   5.805   4.468
39505SOL    HW220413   3.722   5.881   4.596
39506SOL     OW20414  11.564   7.342   6.569
39506SOL    HW120415  11.616   7.395   6.628
39506SOL    HW220416  11.591   7.252   6.588
39507SOL     OW20417   6.179   6.821  11.692
39507SOL    HW120418   6.208   6.876  11.765
39507SOL    HW220419   6.260   6.801  11.644
39508SOL     OW20420  11.563  11.953   3.323
39508SOL    HW120421  11.585  12.017   3.390
39508SOL    HW220422  11.615  11.875   3.345
39509SOL     OW20423  12.740   3.373  10.281
39509SOL    HW120424  12.757   3.440  10.348
39509SOL    HW220425  12.665   3.406  10.233
39510SOL     OW20426  12.996   3.706   5.596
39510SOL    HW120427  12.921   3.758   5.567
39510SOL    HW220428  12.968   3.615   5.583
39511SOL     OW20429  11.374  11.715  12.317
39511SOL    HW120430  11.339  11.776  12.382
39511SOL    HW220431  11.356  11.628  12.354
39512SOL     OW20432   1.467  10.049   7.072
39512SOL    HW120433   1.516  10.090   7.143
39512SOL    HW220434   1.415   9.981   7.115
39513SOL     OW20435  11.843  14.475  11.183
39513SOL    HW120436  11.846  14.380  11.176
39513SOL    HW220437  11.934  14.503  11.174
39514SOL     OW20438   7.502   2.483   0.136
39514SOL    HW120439   7.476   2.408   0.083
39514SOL    HW220440   7.477   2.459   0.225
39515SOL     OW20441  13.054   1.781   4.509
39515SOL    HW120442  13.107   1.833   4.449
39515SOL    HW220443  13.102   1.780   4.591
39516SOL     OW20444  11.704  11.401  14.150
39516SOL    HW120445  11.624  11.386  14.099
39516SOL    HW220446  11.762  11.449  14.090
39517SOL     OW20447  11.649   1.077  13.423
39517SOL    HW120448  11.664   1.121  13.506
39517SOL    HW220449  11.699   1.129  13.359
39518SOL     OW20450  11.812   2.990   0.989
39518SOL    HW120451  11.718   2.972   0.996
39518SOL    HW220452  11.822   3.042   0.910
39519SOL     OW20453  12.925   5.591   0.278
39519SOL    HW120454  12.869   5.669   0.275
39519SOL    HW220455  12.985   5.608   0.351
39520SOL     OW20456   9.950   9.730   7.678
39520SOL    HW120457  10.045   9.742   7.670
39520SOL    HW220458   9.912   9.805   7.633
39521SOL     OW20459   7.499   1.522  12.733
39521SOL    HW120460   7.579   1.489  12.773
39521SOL    HW220461   7.462   1.447  12.687
39522SOL     OW20462   2.037  12.511   9.766
39522SOL    HW120463   2.125  12.511   9.728
39522SOL    HW220464   1.991  12.580   9.718
39523SOL     OW20465  10.812   4.283   6.414
39523SOL    HW120466  10.816   4.188   6.421
39523SOL    HW220467  10.726   4.306   6.449
39524SOL     OW20468   6.233   1.486   1.445
39524SOL    HW120469   6.298   1.516   1.509
39524SOL    HW220470   6.153   1.535   1.467
39525SOL     OW20471   9.778   7.612   5.460
39525SOL    HW120472   9.695   7.583   5.498
39525SOL    HW220473   9.818   7.532   5.426
39526SOL     OW20474   5.834   7.653   5.957
39526SOL    HW120475   5.809   7.642   5.865
39526SOL    HW220476   5.909   7.595   5.969
39527SOL     OW20477   7.734  14.712   4.271
39527SOL    HW120478   7.802  14.700   4.205
39527SOL    HW220479   7.690  14.793   4.246
39528SOL     OW20480   5.711   2.650  13.483
39528SOL    HW120481   5.628   2.605  13.466
39528SOL    HW220482   5.729   2.697  13.402
39529SOL     OW20483   5.935   5.483  13.892
39529SOL    HW120484   5.917   5.476  13.799
39529SOL    HW220485   5.871   5.546  13.925
39530SOL     OW20486   0.054   1.485   2.416
39530SOL    HW120487   0.021   1.575   2.409
39530SOL    HW220488  14.860   1.434   2.445
39531SOL     OW20489  12.217   4.727   7.858
39531SOL    HW120490  12.159   4.717   7.783
39531SOL    HW220491  12.296   4.678   7.835
39532SOL     OW20492   7.449   9.796   6.912
39532SOL    HW120493   7.515   9.809   6.844
39532SOL    HW220494   7.410   9.883   6.925
39533SOL     OW20495  14.516  11.580   8.383
39533SOL    HW120496  14.516  11.673   8.362
39533SOL    HW220497  14.519  11.536   8.297
39534SOL     OW20498   7.299  11.013   9.136
39534SOL    HW120499   7.237  10.963   9.084
39534SOL    HW220500   7.272  11.104   9.124
39535SOL     OW20501  11.187   4.644  10.986
39535SOL    HW120502  11.202   4.738  10.990
39535SOL    HW220503  11.242   4.614  10.914
39536SOL     OW20504   5.604  14.106   0.776
39536SOL    HW120505   5.652  14.052   0.713
39536SOL    HW220506   5.654  14.099   0.857
39537SOL     OW20507  13.567  10.292   8.879
39537SOL    HW120508  13.639  10.236   8.909
39537SOL    HW220509  13.504  10.289   8.951
39538SOL     OW20510  11.505   1.189   1.719
39538SOL    HW120511  11.438   1.249   1.751
39538SOL    HW220512  11.588   1.233   1.738
39539SOL     OW20513   6.012  14.668   8.947
39539SOL    HW120514   6.003  14.752   8.901
39539SOL    HW220515   6.007  14.692   9.040
39540SOL     OW20516  10.950  12.802  11.854
39540SOL    HW120517  10.899  12.733  11.811
39540SOL    HW220518  11.037  12.796  11.813
39541SOL     OW20519   0.570   6.053   9.383
39541SOL    HW120520   0.589   6.146   9.369
39541SOL    HW220521   0.512   6.029   9.311
39542SOL     OW20522  13.561   7.469   0.989
39542SOL    HW120523  13.638   7.513   1.026
39542SOL    HW220524  13.597   7.405   0.928
39543SOL     OW20525   2.018   5.288   9.196
39543SOL    HW120526   2.055   5.356   9.139
39543SOL    HW220527   2.086   5.273   9.262
39544SOL     OW20528   5.025  12.295   0.522
39544SOL    HW120529   5.034  12.280   0.616
39544SOL    HW220530   5.032  12.389   0.511
39545SOL     OW20531   8.955  10.905   9.716
39545SOL    HW120532   8.911  10.948   9.789
39545SOL    HW220533   8.991  10.977   9.664
39546SOL     OW20534   0.093  13.442  13.350
39546SOL    HW120535   0.185  13.441  13.322
39546SOL    HW220536   0.056  13.363  13.311
39547SOL     OW20537   7.142   3.885   4.415
39547SOL    HW120538   7.178   3.845   4.335
39547SOL    HW220539   7.216   3.933   4.452
39548SOL     OW20540  11.018   7.659  13.863
39548SOL    HW120541  11.010   7.584  13.804
39548SOL    HW220542  10.927   7.683  13.883
39549SOL     OW20543  14.773   6.620   6.853
39549SOL    HW120544  14.696   6.576   6.816
39549SOL    HW220545  14.826   6.643   6.777
39550SOL     OW20546   9.109   5.384   5.745
39550SOL    HW120547   9.181   5.322   5.735
39550SOL    HW220548   9.129   5.455   5.684
39551SOL     OW20549   8.852  10.684   1.554
39551SOL    HW120550   8.870  10.664   1.462
39551SOL    HW220551   8.804  10.608   1.586
39552SOL     OW20552   1.212  11.348   7.933
39552SOL    HW120553   1.124  11.321   7.959
39552SOL    HW220554   1.227  11.303   7.850
39553SOL     OW20555   2.045  14.249   8.658
39553SOL    HW120556   2.118  14.300   8.693
39553SOL    HW220557   1.988  14.234   8.733
39554SOL     OW20558   7.467   4.226  12.630
39554SOL    HW120559   7.498   4.168  12.560
39554SOL    HW220560   7.376   4.202  12.644
39555SOL     OW20561   5.368  12.314  14.861
39555SOL    HW120562   5.362  12.408  14.876
39555SOL    HW220563   5.316  12.298  14.783
39556SOL     OW20564  13.546   1.231   7.951
39556SOL    HW120565  13.486   1.257   8.021
39556SOL    HW220566  13.488   1.196   7.883
39557SOL     OW20567   1.466   0.909   8.090
39557SOL    HW120568   1.559   0.897   8.073
39557SOL    HW220569   1.436   0.963   8.017
39558SOL     OW20570   4.140   4.198  10.796
39558SOL    HW120571   4.177   4.137  10.731
39558SOL    HW220572   4.046   4.187  10.788
39559SOL     OW20573  10.045  10.251   9.745
39559SOL    HW120574   9.958  10.221   9.769
39559SOL    HW220575  10.042  10.347   9.755
39560SOL     OW20576   1.001   1.568   4.478
39560SOL    HW120577   1.040   1.655   4.490
39560SOL    HW220578   0.960   1.548   4.563
39561SOL     OW20579   1.207  12.343  11.509
39561SOL    HW120580   1.234  12.383  11.592
39561SOL    HW220581   1.251  12.257  11.509
39562SOL     OW20582   3.235   4.156  10.333
39562SOL    HW120583   3.169   4.122  10.394
39562SOL    HW220584   3.183   4.191  10.260
39563SOL     OW20585   6.530   5.400   8.650
39563SOL    HW120586   6.512   5.392   8.557
39563SOL    HW220587   6.618   5.439   8.654
39564SOL     OW20588  11.205   8.660  10.861
39564SOL    HW120589  11.267   8.733  10.861
39564SOL    HW220590  11.204   8.629  10.770
39565SOL     OW20591   1.497  10.229  10.103
39565SOL    HW120592   1.560  10.172  10.058
39565SOL    HW220593   1.539  10.250  10.186
39566SOL     OW20594   6.671  10.282  10.540
39566SOL    HW120595   6.609  10.235  10.484
39566SOL    HW220596   6.634  10.276  10.628
39567SOL     OW20597   8.239   5.228   4.355
39567SOL    HW120598   8.295   5.153   4.337
39567SOL    HW220599   8.258   5.251   4.446
39568SOL     OW20600   4.844   7.624   7.934
39568SOL    HW120601   4.802   7.662   7.856
39568SOL    HW220602   4.906   7.691   7.962
39569SOL     OW20603   6.740  14.569   0.783
39569SOL    HW120604   6.765  14.554   0.691
39569SOL    HW220605   6.645  14.564   0.782
39570SOL     OW20606   7.159   4.982   2.415
39570SOL    HW120607   7.210   4.981   2.334
39570SOL    HW220608   7.117   5.067   2.417
39571SOL     OW20609   7.301   9.154   5.912
39571SOL    HW120610   7.311   9.231   5.856
39571SOL    HW220611   7.302   9.189   6.001
39572SOL     OW20612   0.049   2.903   0.857
39572SOL    HW120613   0.132   2.940   0.888
39572SOL    HW220614   0.011   2.863   0.934
39573SOL     OW20615  13.764   5.194   0.398
39573SOL    HW120616  13.686   5.142   0.380
39573SOL    HW220617  13.797   5.159   0.481
39574SOL     OW20618   0.711  13.174  11.085
39574SOL    HW120619   0.632  13.185  11.139
39574SOL    HW220620   0.719  13.256  11.037
39575SOL     OW20621  13.378  10.567  13.978
39575SOL    HW120622  13.344  10.558  14.067
39575SOL    HW220623  13.300  10.564  13.922
39576SOL     OW20624   3.218   0.260   7.980
39576SOL    HW120625   3.204   0.189   8.043
39576SOL    HW220626   3.304   0.296   8.003
39577SOL     OW20627   0.328   3.164  13.161
39577SOL    HW120628   0.414   3.198  13.134
39577SOL    HW220629   0.329   3.073  13.134
39578SOL     OW20630  11.373   5.449  11.720
39578SOL    HW120631  11.419   5.523  11.760
39578SOL    HW220632  11.386   5.377  11.780
39579SOL     OW20633  14.774   5.688   4.364
39579SOL    HW120634  14.795   5.653   4.278
39579SOL    HW220635  14.686   5.725   4.355
39580SOL     OW20636   0.877   0.009   7.382
39580SOL    HW120637   0.801   0.016   7.439
39580SOL    HW220638   0.930  14.821   7.421
39581SOL     OW20639   4.031   0.069  14.418
39581SOL    HW120640   3.950   0.115  14.438
39581SOL    HW220641   4.087   0.084  14.494
39582SOL     OW20642  10.596  13.401   5.408
39582SOL    HW120643  10.640  13.423   5.326
39582SOL    HW220644  10.503  13.414   5.390
39583SOL     OW20645   5.920   9.114  10.547
39583SOL    HW120646   5.867   9.194  10.549
39583SOL    HW220647   5.998   9.138  10.496
39584SOL     OW20648   7.801  14.325  14.023
39584SOL    HW120649   7.889  14.351  13.998
39584SOL    HW220650   7.744  14.386  13.976
39585SOL     OW20651  13.129  10.559   1.986
39585SOL    HW120652  13.099  10.485   1.934
39585SOL    HW220653  13.106  10.536   2.076
39586SOL     OW20654   5.087   8.943   7.331
39586SOL    HW120655   5.087   8.944   7.426
39586SOL    HW220656   5.063   9.032   7.306
39587SOL     OW20657   3.988   5.330  11.931
39587SOL    HW120658   3.927   5.314  12.003
39587SOL    HW220659   3.988   5.425  11.921
39588SOL     OW20660  11.832  10.760   6.315
39588SOL    HW120661  11.810  10.745   6.407
39588SOL    HW220662  11.846  10.672   6.279
39589SOL     OW20663   2.471   3.854  10.282
39589SOL    HW120664   2.476   3.835  10.189
39589SOL    HW220665   2.562   3.871  10.307
39590SOL     OW20666   7.510   9.497   8.658
39590SOL    HW120667   7.457   9.423   8.628
39590SOL    HW220668   7.547   9.468   8.742
39591SOL     OW20669  12.579  12.981   2.821
39591SOL    HW120670  12.610  12.967   2.910
39591SOL    HW220671  12.573  13.076   2.813
39592SOL     OW20672   4.027   7.405   6.140
39592SOL    HW120673   4.082   7.476   6.108
39592SOL    HW220674   4.010   7.350   6.064
39593SOL     OW20675   4.905  11.635   7.217
39593SOL    HW120676   4.924  11.543   7.235
39593SOL    HW220677   4.977  11.665   7.162
39594SOL     OW20678   9.261   6.409  13.250
39594SOL    HW120679   9.331   6.456  13.205
39594SOL    HW220680   9.284   6.415  13.343
39595SOL     OW20681   2.604   3.204   4.471
39595SOL    HW120682   2.583   3.290   4.436
39595SOL    HW220683   2.583   3.144   4.399
39596SOL     OW20684   8.482   3.823   4.912
39596SOL    HW120685   8.446   3.860   4.992
39596SOL    HW220686   8.568   3.790   4.937
39597SOL     OW20687   2.615   0.901   7.814
39597SOL    HW120688   2.637   0.925   7.904
39597SOL    HW220689   2.562   0.822   7.823
39598SOL     OW20690   5.476  13.775   9.540
39598SOL    HW120691   5.559  13.733   9.559
39598SOL    HW220692   5.429  13.775   9.624
39599SOL     OW20693   6.738  14.572   1.513
39599SOL    HW120694   6.756  14.637   1.445
39599SOL    HW220695   6.642  14.570   1.519
39600SOL     OW20696   5.257   6.497   1.392
39600SOL    HW120697   5.209   6.422   1.359
39600SOL    HW220698   5.327   6.460   1.445
39601SOL     OW20699   2.150  12.534  11.875
39601SOL    HW120700   2.091  12.574  11.939
39601SOL    HW220701   2.232  12.521  11.922
39602SOL     OW20702  12.818  11.255   6.333
39602SOL    HW120703  12.887  11.318   6.313
39602SOL    HW220704  12.853  11.171   6.302
39603SOL     OW20705   1.439   7.085   9.437
39603SOL    HW120706   1.424   7.113   9.527
39603SOL    HW220707   1.486   7.158   9.397
39604SOL     OW20708   3.819   0.789   6.587
39604SOL    HW120709   3.829   0.742   6.669
39604SOL    HW220710   3.905   0.826   6.569
39605SOL     OW20711  12.677   2.076   9.498
39605SOL    HW120712  12.749   2.124   9.539
39605SOL    HW220713  12.676   1.991   9.541
39606SOL     OW20714   9.214   3.024  13.372
39606SOL    HW120715   9.250   3.096  13.424
39606SOL    HW220716   9.290   2.982  13.333
39607SOL     OW20717   0.895   2.473  11.197
39607SOL    HW120718   0.966   2.515  11.147
39607SOL    HW220719   0.941   2.415  11.258
39608SOL     OW20720  11.268   7.911  11.333
39608SOL    HW120721  11.265   7.870  11.246
39608SOL    HW220722  11.193   7.970  11.334
39609SOL     OW20723  10.789   2.566   7.398
39609SOL    HW120724  10.831   2.481   7.400
39609SOL    HW220725  10.701   2.549   7.364
39610SOL     OW20726   1.552   8.938  12.675
39610SOL    HW120727   1.631   8.974  12.634
39610SOL    HW220728   1.537   8.996  12.750
39611SOL     OW20729  10.156  12.978   5.299
39611SOL    HW120730  10.245  13.002   5.322
39611SOL    HW220731  10.135  13.033   5.223
39612SOL     OW20732   5.144   7.350   6.168
39612SOL    HW120733   5.056   7.341   6.130
39612SOL    HW220734   5.164   7.264   6.205
39613SOL     OW20735   8.108  11.782   3.306
39613SOL    HW120736   8.073  11.719   3.369
39613SOL    HW220737   8.110  11.865   3.354
39614SOL     OW20738  12.245   6.384   5.098
39614SOL    HW120739  12.295   6.443   5.041
39614SOL    HW220740  12.311   6.324   5.133
39615SOL     OW20741  10.583   3.245  11.213
39615SOL    HW120742  10.526   3.172  11.187
39615SOL    HW220743  10.589   3.237  11.308
39616SOL     OW20744   4.108  11.217   5.455
39616SOL    HW120745   4.202  11.232   5.468
39616SOL    HW220746   4.074  11.302   5.427
39617SOL     OW20747   0.494  11.188  13.371
39617SOL    HW120748   0.469  11.112  13.317
39617SOL    HW220749   0.414  11.240  13.378
39618SOL     OW20750   1.655  10.256  12.495
39618SOL    HW120751   1.717  10.320  12.459
39618SOL    HW220752   1.572  10.277  12.452
39619SOL     OW20753   5.035  10.413   9.582
39619SOL    HW120754   5.006  10.338   9.635
39619SOL    HW220755   5.061  10.374   9.498
39620SOL     OW20756   9.769  13.194   0.986
39620SOL    HW120757   9.843  13.250   0.961
39620SOL    HW220758   9.717  13.248   1.045
39621SOL     OW20759   8.888   8.401   7.560
39621SOL    HW120760   8.933   8.328   7.517
39621SOL    HW220761   8.950   8.474   7.555
39622SOL     OW20762   5.114  13.972  13.446
39622SOL    HW120763   5.111  13.902  13.512
39622SOL    HW220764   5.025  14.008  13.445
39623SOL     OW20765  12.387   9.910  10.116
39623SOL    HW120766  12.351   9.990  10.077
39623SOL    HW220767  12.363   9.915  10.208
39624SOL     OW20768  14.260  12.613   2.011
39624SOL    HW120769  14.186  12.564   2.048
39624SOL    HW220770  14.317  12.545   1.974
39625SOL     OW20771   6.883   0.477   4.498
39625SOL    HW120772   6.965   0.428   4.507
39625SOL    HW220773   6.814   0.411   4.500
39626SOL     OW20774  11.279   4.214   9.180
39626SOL    HW120775  11.280   4.227   9.274
39626SOL    HW220776  11.186   4.209   9.157
39627SOL     OW20777  10.514   8.668  11.849
39627SOL    HW120778  10.463   8.665  11.930
39627SOL    HW220779  10.572   8.591  11.855
39628SOL     OW20780  11.428  13.791   5.033
39628SOL    HW120781  11.470  13.832   5.108
39628SOL    HW220782  11.383  13.714   5.069
39629SOL     OW20783   5.030  12.298   6.954
39629SOL    HW120784   5.020  12.204   6.944
39629SOL    HW220785   5.025  12.333   6.865
39630SOL     OW20786   7.787   3.383   9.234
39630SOL    HW120787   7.736   3.422   9.305
39630SOL    HW220788   7.735   3.399   9.155
39631SOL     OW20789   3.162  14.467   7.777
39631SOL    HW120790   3.145  14.419   7.858
39631SOL    HW220791   3.251  14.501   7.787
39632SOL     OW20792  11.017   5.751  13.872
39632SOL    HW120793  10.950   5.776  13.936
39632SOL    HW220794  10.968   5.741  13.790
39633SOL     OW20795   1.277   6.442   6.742
39633SOL    HW120796   1.212   6.430   6.673
39633SOL    HW220797   1.227   6.471   6.818
39634SOL     OW20798   1.473  12.693   9.863
39634SOL    HW120799   1.471  12.685   9.768
39634SOL    HW220800   1.402  12.754   9.883
39635SOL     OW20801   2.872  13.026  14.025
39635SOL    HW120802   2.789  13.069  14.002
39635SOL    HW220803   2.875  12.948  13.970
39636SOL     OW20804   6.414   4.657   6.842
39636SOL    HW120805   6.330   4.633   6.803
39636SOL    HW220806   6.436   4.741   6.802
39637SOL     OW20807   9.623   3.698  11.001
39637SOL    HW120808   9.698   3.696  10.943
39637SOL    HW220809   9.639   3.772  11.060
39638SOL     OW20810   9.257  10.588   7.220
39638SOL    HW120811   9.288  10.522   7.159
39638SOL    HW220812   9.239  10.540   7.301
39639SOL     OW20813  11.769   5.067   2.812
39639SOL    HW120814  11.675   5.078   2.798
39639SOL    HW220815  11.794   5.137   2.872
39640SOL     OW20816  13.899   7.299  11.459
39640SOL    HW120817  13.835   7.348  11.511
39640SOL    HW220818  13.983   7.319  11.499
39641SOL     OW20819  14.336   3.407   4.730
39641SOL    HW120820  14.320   3.499   4.711
39641SOL    HW220821  14.328   3.363   4.645
39642SOL     OW20822  14.759  12.422  14.552
39642SOL    HW120823  14.816  12.409  14.476
39642SOL    HW220824  14.697  12.489  14.523
39643SOL     OW20825  10.956   0.457  12.207
39643SOL    HW120826  10.975   0.365  12.189
39643SOL    HW220827  10.999   0.474  12.291
39644SOL     OW20828   2.951   9.319  11.521
39644SOL    HW120829   2.925   9.370  11.598
39644SOL    HW220830   3.000   9.245  11.558
39645SOL     OW20831  11.540   2.806   8.194
39645SOL    HW120832  11.564   2.869   8.127
39645SOL    HW220833  11.463   2.762   8.159
39646SOL     OW20834   4.164  12.210   1.537
39646SOL    HW120835   4.244  12.171   1.502
39646SOL    HW220836   4.095  12.181   1.476
39647SOL     OW20837   1.982   6.556   8.925
39647SOL    HW120838   2.050   6.578   8.989
39647SOL    HW220839   1.917   6.625   8.935
39648SOL     OW20840   0.484  11.992   7.374
39648SOL    HW120841   0.569  11.950   7.392
39648SOL    HW220842   0.444  11.937   7.307
39649SOL     OW20843   9.716   0.134   2.827
39649SOL    HW120844   9.749   0.174   2.747
39649SOL    HW220845   9.634   0.093   2.802
39650SOL     OW20846   6.373  10.749  13.600
39650SOL    HW120847   6.468  10.759  13.603
39650SOL    HW220848   6.339  10.837  13.581
39651SOL     OW20849  13.062  12.021  10.006
39651SOL    HW120850  13.127  12.089  10.019
39651SOL    HW220851  12.985  12.050  10.055
39652SOL     OW20852   6.150  10.418  11.579
39652SOL    HW120853   6.232  10.381  11.547
39652SOL    HW220854   6.083  10.354  11.555
39653SOL     OW20855  10.477   3.107   2.437
39653SOL    HW120856  10.544   3.048   2.470
39653SOL    HW220857  10.475   3.180   2.500
39654SOL     OW20858   4.875   1.712   4.004
39654SOL    HW120859   4.851   1.620   4.011
39654SOL    HW220860   4.801   1.754   3.961
39655SOL     OW20861  13.122   7.676   6.492
39655SOL    HW120862  13.030   7.656   6.475
39655SOL    HW220863  13.168   7.649   6.413
39656SOL     OW20864  10.249   0.491   0.992
39656SOL    HW120865  10.227   0.531   1.076
39656SOL    HW220866  10.174   0.512   0.935
39657SOL     OW20867  12.025  13.764   0.945
39657SOL    HW120868  12.024  13.737   0.853
39657SOL    HW220869  12.087  13.704   0.987
39658SOL     OW20870   1.843   9.585  12.781
39658SOL    HW120871   1.880   9.564  12.866
39658SOL    HW220872   1.774   9.649  12.799
39659SOL     OW20873   3.553   8.224   3.138
39659SOL    HW120874   3.551   8.283   3.214
39659SOL    HW220875   3.471   8.241   3.092
39660SOL     OW20876   1.886   3.889  10.231
39660SOL    HW120877   1.954   3.844  10.283
39660SOL    HW220878   1.934   3.955  10.182
39661SOL     OW20879   6.919   0.832   3.674
39661SOL    HW120880   6.989   0.840   3.739
39661SOL    HW220881   6.851   0.781   3.719
39662SOL     OW20882   6.803   0.162   6.271
39662SOL    HW120883   6.710   0.143   6.266
39662SOL    HW220884   6.808   0.258   6.273
39663SOL     OW20885  13.576   1.137   5.725
39663SOL    HW120886  13.565   1.073   5.654
39663SOL    HW220887  13.586   1.220   5.680
39664SOL     OW20888   8.106  12.659   3.916
39664SOL    HW120889   8.164  12.591   3.884
39664SOL    HW220890   8.114  12.655   4.011
39665SOL     OW20891   8.348   7.739  12.538
39665SOL    HW120892   8.293   7.806  12.579
39665SOL    HW220893   8.429   7.786  12.516
39666SOL     OW20894   8.964   0.235   6.640
39666SOL    HW120895   8.907   0.312   6.635
39666SOL    HW220896   9.045   0.268   6.678
39667SOL     OW20897   5.286   7.512  10.823
39667SOL    HW120898   5.372   7.507  10.864
39667SOL    HW220899   5.241   7.582  10.870
39668SOL     OW20900   4.783   6.913   8.387
39668SOL    HW120901   4.776   6.845   8.321
39668SOL    HW220902   4.868   6.954   8.372
39669SOL     OW20903   0.608  13.890   3.683
39669SOL    HW120904   0.667  13.963   3.704
39669SOL    HW220905   0.584  13.904   3.591
39670SOL     OW20906  14.535  12.049   7.180
39670SOL    HW120907  14.627  12.023   7.173
39670SOL    HW220908  14.487  11.967   7.185
39671SOL     OW20909  11.276   3.509   5.458
39671SOL    HW120910  11.369   3.487   5.455
39671SOL    HW220911  11.259   3.552   5.374
39672SOL     OW20912   5.692  12.467   9.233
39672SOL    HW120913   5.652  12.546   9.269
39672SOL    HW220914   5.633  12.397   9.258
39673SOL     OW20915  13.764  14.760   1.884
39673SOL    HW120916  13.849  14.777   1.925
39673SOL    HW220917  13.752  14.665   1.891
39674SOL     OW20918  12.525   6.121   8.972
39674SOL    HW120919  12.485   6.054   9.027
39674SOL    HW220920  12.498   6.098   8.883
39675SOL     OW20921  13.236  14.109   0.610
39675SOL    HW120922  13.302  14.041   0.598
39675SOL    HW220923  13.285  14.188   0.630
39676SOL     OW20924   9.175   3.395   2.633
39676SOL    HW120925   9.171   3.491   2.627
39676SOL    HW220926   9.264   3.373   2.604
39677SOL     OW20927  13.054  11.576   0.767
39677SOL    HW120928  13.136  11.622   0.747
39677SOL    HW220929  13.013  11.629   0.835
39678SOL     OW20930  10.048   5.371   0.378
39678SOL    HW120931   9.972   5.333   0.335
39678SOL    HW220932  10.012   5.435   0.439
39679SOL     OW20933   3.426   1.506   7.482
39679SOL    HW120934   3.471   1.588   7.499
39679SOL    HW220935   3.472   1.469   7.406
39680SOL     OW20936   2.482   2.626   5.227
39680SOL    HW120937   2.409   2.687   5.232
39680SOL    HW220938   2.548   2.660   5.288
39681SOL     OW20939   9.456   6.637   5.880
39681SOL    HW120940   9.389   6.606   5.941
39681SOL    HW220941   9.448   6.579   5.804
39682SOL     OW20942   1.263   8.384   1.415
39682SOL    HW120943   1.252   8.326   1.490
39682SOL    HW220944   1.314   8.457   1.448
39683SOL     OW20945  10.007  13.006   8.231
39683SOL    HW120946   9.970  12.926   8.194
39683SOL    HW220947   9.983  13.075   8.168
39684SOL     OW20948   8.482   3.726   6.680
39684SOL    HW120949   8.482   3.796   6.745
39684SOL    HW220950   8.500   3.646   6.730
39685SOL     OW20951  11.410  12.483  13.627
39685SOL    HW120952  11.443  12.479  13.538
39685SOL    HW220953  11.488  12.494  13.682
39686SOL     OW20954   3.381   6.908  10.634
39686SOL    HW120955   3.290   6.937  10.645
39686SOL    HW220956   3.407   6.943  10.548
39687SOL     OW20957   1.880   8.594   7.270
39687SOL    HW120958   1.941   8.532   7.311
39687SOL    HW220959   1.931   8.674   7.259
39688SOL     OW20960   2.922   9.626   1.431
39688SOL    HW120961   2.853   9.692   1.440
39688SOL    HW220962   3.000   9.676   1.405
39689SOL     OW20963  10.594   4.886   9.610
39689SOL    HW120964  10.547   4.883   9.527
39689SOL    HW220965  10.668   4.944   9.592
39690SOL     OW20966   3.669  13.485   9.406
39690SOL    HW120967   3.676  13.473   9.501
39690SOL    HW220968   3.603  13.554   9.396
39691SOL     OW20969  10.314   3.279   1.292
39691SOL    HW120970  10.251   3.240   1.231
39691SOL    HW220971  10.266   3.288   1.374
39692SOL     OW20972   5.171   7.422  10.584
39692SOL    HW120973   5.082   7.411  10.616
39692SOL    HW220974   5.225   7.424  10.663
39693SOL     OW20975   5.521  13.939   9.293
39693SOL    HW120976   5.503  14.031   9.310
39693SOL    HW220977   5.435  13.897   9.298
39694SOL     OW20978   2.285   5.209  13.673
39694SOL    HW120979   2.303   5.196  13.766
39694SOL    HW220980   2.343   5.281  13.647
39695SOL     OW20981  14.134  14.850  11.182
39695SOL    HW120982  14.042  14.823  11.186
39695SOL    HW220983  14.182  14.780  11.225
39696SOL     OW20984   6.051  12.369  13.161
39696SOL    HW120985   6.076  12.451  13.120
39696SOL    HW220986   6.041  12.308  13.088
39697SOL     OW20987  14.811   2.212  10.066
39697SOL    HW120988  14.851   2.272  10.130
39697SOL    HW220989  14.868   2.136  10.066
39698SOL     OW20990  11.029  14.183   2.704
39698SOL    HW120991  11.108  14.210   2.656
39698SOL    HW220992  10.981  14.264   2.719
39699SOL     OW20993  13.476   8.178  13.345
39699SOL    HW120994  13.542   8.114  13.320
39699SOL    HW220995  13.412   8.175  13.275
39700SOL     OW20996  13.127   7.666  12.110
39700SOL    HW120997  13.177   7.585  12.110
39700SOL    HW220998  13.057   7.651  12.047
39701SOL     OW20999  11.574  11.151   1.483
39701SOL    HW121000  11.610  11.139   1.571
39701SOL    HW221001  11.596  11.069   1.437
39702SOL     OW21002   8.294  13.835  14.825
39702SOL    HW121003   8.218  13.778  14.842
39702SOL    HW221004   8.320  13.867   0.029
39703SOL     OW21005  11.796   1.408   2.869
39703SOL    HW121006  11.831   1.332   2.915
39703SOL    HW221007  11.740   1.371   2.801
39704SOL     OW21008   1.283  10.672   2.610
39704SOL    HW121009   1.350  10.739   2.622
39704SOL    HW221010   1.201  10.717   2.630
39705SOL     OW21011  10.878  12.952  12.885
39705SOL    HW121012  10.885  12.933  12.791
39705SOL    HW221013  10.893  13.046  12.892
39706SOL     OW21014   1.327  14.808   6.558
39706SOL    HW121015   1.292  14.742   6.618
39706SOL    HW221016   1.251  14.857   6.530
39707SOL     OW21017   0.230   2.192  11.713
39707SOL    HW121018   0.243   2.255  11.642
39707SOL    HW221019   0.153   2.142  11.687
39708SOL     OW21020  12.626  12.177  10.417
39708SOL    HW121021  12.535  12.164  10.442
39708SOL    HW221022  12.670  12.200  10.499
39709SOL     OW21023   5.005   6.386   7.490
39709SOL    HW121024   4.911   6.376   7.501
39709SOL    HW221025   5.022   6.479   7.505
39710SOL     OW21026  13.310  13.782   3.106
39710SOL    HW121027  13.368  13.853   3.079
39710SOL    HW221028  13.240  13.783   3.040
39711SOL     OW21029   2.315   5.987  12.529
39711SOL    HW121030   2.249   6.028  12.473
39711SOL    HW221031   2.365   5.931  12.470
39712SOL     OW21032  13.090   3.806   3.798
39712SOL    HW121033  13.179   3.809   3.765
39712SOL    HW221034  13.088   3.868   3.870
39713SOL     OW21035   5.422   5.358   3.424
39713SOL    HW121036   5.355   5.426   3.424
39713SOL    HW221037   5.390   5.292   3.485
39714SOL     OW21038  14.523   4.997  11.589
39714SOL    HW121039  14.604   5.006  11.639
39714SOL    HW221040  14.536   5.054  11.513
39715SOL     OW21041   7.795   4.417  11.191
39715SOL    HW121042   7.784   4.324  11.209
39715SOL    HW221043   7.854   4.449  11.259
39716SOL     OW21044   8.390   1.145   5.116
39716SOL    HW121045   8.349   1.231   5.115
39716SOL    HW221046   8.478   1.160   5.148
39717SOL     OW21047  11.293   4.271  13.052
39717SOL    HW121048  11.284   4.285  13.146
39717SOL    HW221049  11.322   4.180  13.044
39718SOL     OW21050   8.011   9.762   2.847
39718SOL    HW121051   7.923   9.792   2.870
39718SOL    HW221052   8.059   9.765   2.929
39719SOL     OW21053  13.756   7.939  12.832
39719SOL    HW121054  13.780   7.862  12.782
39719SOL    HW221055  13.738   8.007  12.767
39720SOL     OW21056   5.109  10.165  11.174
39720SOL    HW121057   5.102  10.140  11.266
39720SOL    HW221058   5.125  10.260  11.177
39721SOL     OW21059  11.331  13.271  10.445
39721SOL    HW121060  11.338  13.316  10.361
39721SOL    HW221061  11.404  13.306  10.496
39722SOL     OW21062  12.989  14.871   5.332
39722SOL    HW121063  12.920  14.817   5.369
39722SOL    HW221064  12.958   0.011   5.244
39723SOL     OW21065  14.209   6.479  12.444
39723SOL    HW121066  14.176   6.477  12.533
39723SOL    HW221067  14.270   6.406  12.438
39724SOL     OW21068   4.063   6.385  14.193
39724SOL    HW121069   4.074   6.477  14.168
39724SOL    HW221070   4.130   6.339  14.142
39725SOL     OW21071  14.584   4.196   7.797
39725SOL    HW121072  14.593   4.140   7.720
39725SOL    HW221073  14.560   4.137   7.868
39726SOL     OW21074   7.832  11.560   4.188
39726SOL    HW121075   7.779  11.520   4.119
39726SOL    HW221076   7.912  11.507   4.190
39727SOL     OW21077  14.431  14.432   3.157
39727SOL    HW121078  14.489  14.479   3.217
39727SOL    HW221079  14.360  14.494   3.139
39728SOL     OW21080   0.601   7.283   3.548
39728SOL    HW121081   0.528   7.236   3.508
39728SOL    HW221082   0.672   7.220   3.549
39729SOL     OW21083   5.289   1.827   5.511
39729SOL    HW121084   5.195   1.814   5.506
39729SOL    HW221085   5.326   1.739   5.510
39730SOL     OW21086   0.132   3.220   5.967
39730SOL    HW121087   0.056   3.168   5.940
39730SOL    HW221088   0.206   3.160   5.957
39731SOL     OW21089   5.870  12.152  11.889
39731SOL    HW121090   5.862  12.126  11.797
39731SOL    HW221091   5.813  12.228  11.898
39732SOL     OW21092   5.992   3.062  13.038
39732SOL    HW121093   6.058   3.060  12.969
39732SOL    HW221094   6.008   2.984  13.090
39733SOL     OW21095  13.396   9.607   6.129
39733SOL    HW121096  13.486   9.640   6.127
39733SOL    HW221097  13.399   9.532   6.188
39734SOL     OW21098   0.130   5.176   8.151
39734SOL    HW121099   0.166   5.107   8.207
39734SOL    HW221100   0.069   5.130   8.094
39735SOL     OW21101   9.343   1.516  14.829
39735SOL    HW121102   9.382   1.444  14.878
39735SOL    HW221103   9.249   1.498  14.829
39736SOL     OW21104   1.367   5.199  11.823
39736SOL    HW121105   1.359   5.106  11.843
39736SOL    HW221106   1.322   5.209  11.739
39737SOL     OW21107   2.544   4.840  10.017
39737SOL    HW121108   2.449   4.850  10.024
39737SOL    HW221109   2.556   4.759   9.968
39738SOL     OW21110   8.400  11.837   7.263
39738SOL    HW121111   8.328  11.899   7.260
39738SOL    HW221112   8.429  11.829   7.172
39739SOL     OW21113  13.121  12.300   1.333
39739SOL    HW121114  13.157  12.383   1.366
39739SOL    HW221115  13.187  12.235   1.357
39740SOL     OW21116  11.063   8.732  12.650
39740SOL    HW121117  11.043   8.684  12.730
39740SOL    HW221118  11.025   8.819  12.665
39741SOL     OW21119   1.196   1.393   3.337
39741SOL    HW121120   1.278   1.406   3.289
39741SOL    HW221121   1.138   1.462   3.304
39742SOL     OW21122   7.341   3.814   3.354
39742SOL    HW121123   7.421   3.866   3.359
39742SOL    HW221124   7.270   3.878   3.363
39743SOL     OW21125  14.255   5.931   9.419
39743SOL    HW121126  14.182   5.983   9.453
39743SOL    HW221127  14.244   5.845   9.458
39744SOL     OW21128  11.335   1.181  13.221
39744SOL    HW121129  11.389   1.107  13.251
39744SOL    HW221130  11.267   1.141  13.166
39745SOL     OW21131   1.158   5.659   6.306
39745SOL    HW121132   1.221   5.694   6.368
39745SOL    HW221133   1.199   5.671   6.221
39746SOL     OW21134  14.806   2.495   4.065
39746SOL    HW121135  14.809   2.590   4.065
39746SOL    HW221136  14.868   2.469   4.133
39747SOL     OW21137  14.562  13.686   0.641
39747SOL    HW121138  14.535  13.692   0.549
39747SOL    HW221139  14.533  13.769   0.679
39748SOL     OW21140   1.578   2.992   3.135
39748SOL    HW121141   1.542   3.063   3.081
39748SOL    HW221142   1.647   3.033   3.187
39749SOL     OW21143   5.600   8.770   4.454
39749SOL    HW121144   5.639   8.714   4.387
39749SOL    HW221145   5.586   8.711   4.528
39750SOL     OW21146  10.123  13.843  14.705
39750SOL    HW121147  10.181  13.918  14.716
39750SOL    HW221148  10.086  13.828  14.792
39751SOL     OW21149  11.209   3.542   0.166
39751SOL    HW121150  11.210   3.637   0.152
39751SOL    HW221151  11.246   3.506   0.086
39752SOL     OW21152   7.508  12.329  13.503
39752SOL    HW121153   7.426  12.311  13.548
39752SOL    HW221154   7.567  12.360  13.572
39753SOL     OW21155   0.307   3.614   4.921
39753SOL    HW121156   0.307   3.531   4.969
39753SOL    HW221157   0.371   3.600   4.851
39754SOL     OW21158  14.685   0.583  12.285
39754SOL    HW121159  14.602   0.543  12.312
39754SOL    HW221160  14.751   0.517  12.308
39755SOL     OW21161   1.920   8.847   8.101
39755SOL    HW121162   1.898   8.940   8.110
39755SOL    HW221163   1.853   8.812   8.043
39756SOL     OW21164   7.717   2.259   8.112
39756SOL    HW121165   7.727   2.168   8.140
39756SOL    HW221166   7.657   2.255   8.038
39757SOL     OW21167   9.023   2.798   6.467
39757SOL    HW121168   9.085   2.753   6.525
39757SOL    HW221169   9.073   2.873   6.433
39758SOL     OW21170   3.867  10.028  12.718
39758SOL    HW121171   3.961  10.033  12.737
39758SOL    HW221172   3.843  10.117  12.691
39759SOL     OW21173   0.483   4.710  10.771
39759SOL    HW121174   0.497   4.717  10.866
39759SOL    HW221175   0.550   4.649  10.741
39760SOL     OW21176   6.521   3.697   4.262
39760SOL    HW121177   6.605   3.696   4.308
39760SOL    HW221178   6.457   3.672   4.329
39761SOL     OW21179   6.309   4.667   1.719
39761SOL    HW121180   6.269   4.665   1.632
39761SOL    HW221181   6.391   4.618   1.708
39762SOL     OW21182   5.930   7.082   0.341
39762SOL    HW121183   5.999   7.100   0.405
39762SOL    HW221184   5.974   7.084   0.256
39763SOL     OW21185   8.327  14.158  10.468
39763SOL    HW121186   8.334  14.254  10.472
39763SOL    HW221187   8.416  14.129  10.448
39764SOL     OW21188  13.989   5.571  11.573
39764SOL    HW121189  13.959   5.651  11.529
39764SOL    HW221190  13.967   5.584  11.665
39765SOL     OW21191   5.303   8.554   0.899
39765SOL    HW121192   5.373   8.519   0.844
39765SOL    HW221193   5.338   8.635   0.935
39766SOL     OW21194   7.495   4.221   2.741
39766SOL    HW121195   7.481   4.276   2.663
39766SOL    HW221196   7.590   4.219   2.752
39767SOL     OW21197  11.480   3.619   3.633
39767SOL    HW121198  11.546   3.658   3.575
39767SOL    HW221199  11.497   3.658   3.718
39768SOL     OW21200  13.503   6.822   6.150
39768SOL    HW121201  13.500   6.916   6.132
39768SOL    HW221202  13.411   6.796   6.155
39769SOL     OW21203   5.152   8.358  14.250
39769SOL    HW121204   5.069   8.333  14.210
39769SOL    HW221205   5.178   8.283  14.303
39770SOL     OW21206   3.156   0.049   9.253
39770SOL    HW121207   3.122   0.072   9.340
39770SOL    HW221208   3.242   0.091   9.249
39771SOL     OW21209   3.515   0.923  14.518
39771SOL    HW121210   3.484   0.838  14.552
39771SOL    HW221211   3.507   0.915  14.423
39772SOL     OW21212  13.949   5.258   2.284
39772SOL    HW121213  14.004   5.254   2.363
39772SOL    HW221214  13.979   5.337   2.238
39773SOL     OW21215  11.831   3.427   6.356
39773SOL    HW121216  11.873   3.467   6.432
39773SOL    HW221217  11.903   3.393   6.303
39774SOL     OW21218   4.472  14.452   4.784
39774SOL    HW121219   4.425  14.530   4.814
39774SOL    HW221220   4.516  14.481   4.703
39775SOL     OW21221   9.860   2.217   8.205
39775SOL    HW121222   9.906   2.262   8.277
39775SOL    HW221223   9.895   2.128   8.208
39776SOL     OW21224   8.200   6.227   6.744
39776SOL    HW121225   8.254   6.162   6.788
39776SOL    HW221226   8.195   6.196   6.653
39777SOL     OW21227   7.042   3.568   7.331
39777SOL    HW121228   7.001   3.589   7.247
39777SOL    HW221229   7.136   3.571   7.313
39778SOL     OW21230  11.866  14.845   7.965
39778SOL    HW121231  11.911   0.007   8.037
39778SOL    HW221232  11.798  14.793   8.007
39779SOL     OW21233  12.458  10.124  10.418
39779SOL    HW121234  12.394  10.056  10.436
39779SOL    HW221235  12.511  10.089  10.346
39780SOL     OW21236   3.899   0.538   2.228
39780SOL    HW121237   3.953   0.460   2.238
39780SOL    HW221238   3.875   0.540   2.135
39781SOL     OW21239   3.412  10.321   2.987
39781SOL    HW121240   3.362  10.364   2.918
39781SOL    HW221241   3.449  10.393   3.037
39782SOL     OW21242   0.711  11.453  11.429
39782SOL    HW121243   0.678  11.520  11.369
39782SOL    HW221244   0.788  11.493  11.469
39783SOL     OW21245   2.001   5.327  12.514
39783SOL    HW121246   2.009   5.383  12.592
39783SOL    HW221247   1.923   5.273  12.531
39784SOL     OW21248   6.083  14.346   1.974
39784SOL    HW121249   6.098  14.354   2.068
39784SOL    HW221250   6.166  14.312   1.939
39785SOL     OW21251   3.120   6.935   5.290
39785SOL    HW121252   3.116   7.028   5.314
39785SOL    HW221253   3.211   6.910   5.306
39786SOL     OW21254   1.738   8.264   6.615
39786SOL    HW121255   1.648   8.266   6.584
39786SOL    HW221256   1.735   8.310   6.699
39787SOL     OW21257   4.280   8.584   3.591
39787SOL    HW121258   4.255   8.580   3.499
39787SOL    HW221259   4.369   8.619   3.590
39788SOL     OW21260   2.135   3.454   4.429
39788SOL    HW121261   2.154   3.400   4.505
39788SOL    HW221262   2.221   3.475   4.392
39789SOL     OW21263   9.289  13.834   8.018
39789SOL    HW121264   9.332  13.828   7.933
39789SOL    HW221265   9.223  13.764   8.016
39790SOL     OW21266   8.417   5.137   6.526
39790SOL    HW121267   8.351   5.070   6.508
39790SOL    HW221268   8.500   5.090   6.521
39791SOL     OW21269   8.039   2.081  12.956
39791SOL    HW121270   8.000   2.108  12.872
39791SOL    HW221271   8.133   2.095  12.943
39792SOL     OW21272  13.641   7.877  13.392
39792SOL    HW121273  13.708   7.809  13.390
39792SOL    HW221274  13.684   7.955  13.357
39793SOL     OW21275  13.959   6.599  10.878
39793SOL    HW121276  14.052   6.620  10.882
39793SOL    HW221277  13.916   6.680  10.908
39794SOL     OW21278   9.898   3.161   2.704
39794SOL    HW121279   9.917   3.069   2.723
39794SOL    HW221280   9.981   3.196   2.671
39795SOL     OW21281   1.554   5.324   4.321
39795SOL    HW121282   1.541   5.320   4.415
39795SOL    HW221283   1.478   5.280   4.284
39796SOL     OW21284   5.129   3.310  10.516
39796SOL    HW121285   5.047   3.352  10.542
39796SOL    HW221286   5.102   3.230  10.470
39797SOL     OW21287   7.278   7.737   6.135
39797SOL    HW121288   7.348   7.802   6.143
39797SOL    HW221289   7.197   7.787   6.146
39798SOL     OW21290   2.737   1.832   3.169
39798SOL    HW121291   2.689   1.762   3.214
39798SOL    HW221292   2.688   1.846   3.088
39799SOL     OW21293  11.522  10.616   8.625
39799SOL    HW121294  11.464  10.635   8.551
39799SOL    HW221295  11.557  10.528   8.607
39800SOL     OW21296   7.002  13.971   5.034
39800SOL    HW121297   6.921  13.941   4.991
39800SOL    HW221298   7.034  14.041   4.978
39801SOL     OW21299   8.348  12.594   2.607
39801SOL    HW121300   8.289  12.537   2.657
39801SOL    HW221301   8.334  12.681   2.643
39802SOL     OW21302   3.344   1.314   3.669
39802SOL    HW121303   3.407   1.370   3.624
39802SOL    HW221304   3.306   1.371   3.736
39803SOL     OW21305   0.053   8.259  12.307
39803SOL    HW121306   0.061   8.228  12.398
39803SOL    HW221307   0.139   8.296  12.287
39804SOL     OW21308   7.238  10.776   0.510
39804SOL    HW121309   7.208  10.687   0.489
39804SOL    HW221310   7.229  10.782   0.605
39805SOL     OW21311   3.750   3.238  14.880
39805SOL    HW121312   3.659   3.234   0.027
39805SOL    HW221313   3.756   3.320  14.829
39806SOL     OW21314  12.980   0.191   8.915
39806SOL    HW121315  13.045   0.123   8.934
39806SOL    HW221316  12.933   0.203   8.997
39807SOL     OW21317  14.553   8.071   5.632
39807SOL    HW121318  14.496   8.109   5.700
39807SOL    HW221319  14.538   7.976   5.639
39808SOL     OW21320  11.227   1.637   4.633
39808SOL    HW121321  11.173   1.712   4.609
39808SOL    HW221322  11.258   1.657   4.721
39809SOL     OW21323  10.683   7.625   6.840
39809SOL    HW121324  10.699   7.567   6.915
39809SOL    HW221325  10.759   7.683   6.839
39810SOL     OW21326   0.003   7.725   2.234
39810SOL    HW121327  14.839   7.660   2.287
39810SOL    HW221328  14.833   7.732   2.153
39811SOL     OW21329   6.855   6.236  13.826
39811SOL    HW121330   6.889   6.324  13.841
39811SOL    HW221331   6.806   6.244  13.744
39812SOL     OW21332   0.601   6.111   5.457
39812SOL    HW121333   0.688   6.073   5.441
39812SOL    HW221334   0.597   6.125   5.551
39813SOL     OW21335   3.482   0.093  14.825
39813SOL    HW121336   3.433   0.175  14.831
39813SOL    HW221337   3.416   0.024  14.827
39814SOL     OW21338   5.507   5.802  13.949
39814SOL    HW121339   5.539   5.887  13.917
39814SOL    HW221340   5.491   5.817  14.042
39815SOL     OW21341   5.806   2.520  14.188
39815SOL    HW121342   5.830   2.549  14.276
39815SOL    HW221343   5.888   2.490  14.149
39816SOL     OW21344  10.719  11.346   2.563
39816SOL    HW121345  10.700  11.437   2.538
39816SOL    HW221346  10.814  11.338   2.555
39817SOL     OW21347  14.598   8.978   9.211
39817SOL    HW121348  14.507   8.959   9.187
39817SOL    HW221349  14.633   9.025   9.135
39818SOL     OW21350   7.828  13.175  13.164
39818SOL    HW121351   7.898  13.131  13.213
39818SOL    HW221352   7.859  13.175  13.074
39819SOL     OW21353   8.057  10.929   3.538
39819SOL    HW121354   8.146  10.959   3.551
39819SOL    HW221355   8.048  10.922   3.443
39820SOL     OW21356   4.393  13.103  13.055
39820SOL    HW121357   4.445  13.049  12.995
39820SOL    HW221358   4.316  13.050  13.074
39821SOL     OW21359  10.008   1.382  14.281
39821SOL    HW121360  10.044   1.318  14.342
39821SOL    HW221361   9.913   1.377  14.294
39822SOL     OW21362  12.576  14.257   1.598
39822SOL    HW121363  12.564  14.256   1.503
39822SOL    HW221364  12.487  14.255   1.634
39823SOL     OW21365   6.855   3.668   8.920
39823SOL    HW121366   6.911   3.686   8.845
39823SOL    HW221367   6.868   3.743   8.978
39824SOL     OW21368   4.757   5.805  13.061
39824SOL    HW121369   4.710   5.871  13.111
39824SOL    HW221370   4.827   5.853  13.017
39825SOL     OW21371  12.965   4.380   8.133
39825SOL    HW121372  12.942   4.300   8.179
39825SOL    HW221373  12.909   4.447   8.171
39826SOL     OW21374   3.655  14.446   6.741
39826SOL    HW121375   3.631  14.533   6.709
39826SOL    HW221376   3.578  14.392   6.723
39827SOL     OW21377   3.112  13.805   0.359
39827SOL    HW121378   3.073  13.849   0.435
39827SOL    HW221379   3.109  13.871   0.290
39828SOL     OW21380  12.782   5.178   8.376
39828SOL    HW121381  12.713   5.229   8.333
39828SOL    HW221382  12.829   5.136   8.303
39829SOL     OW21383   0.019  11.329   8.414
39829SOL    HW121384  14.814  11.354   8.445
39829SOL    HW221385   0.046  11.257   8.470
39830SOL     OW21386  12.254   4.015   3.888
39830SOL    HW121387  12.247   3.929   3.847
39830SOL    HW221388  12.213   4.004   3.974
39831SOL     OW21389  13.831   5.927  12.799
39831SOL    HW121390  13.783   5.969  12.871
39831SOL    HW221391  13.764   5.876  12.753
39832SOL     OW21392  14.451  10.181   9.884
39832SOL    HW121393  14.410  10.111   9.834
39832SOL    HW221394  14.530  10.203   9.834
39833SOL     OW21395  11.902   9.964   8.423
39833SOL    HW121396  11.831   9.979   8.486
39833SOL    HW221397  11.978   9.942   8.477
39834SOL     OW21398   9.310   9.936  13.193
39834SOL    HW121399   9.231   9.980  13.163
39834SOL    HW221400   9.381   9.980  13.148
39835SOL     OW21401   6.312   6.021   7.995
39835SOL    HW121402   6.326   6.108   8.032
39835SOL    HW221403   6.217   6.008   7.999
39836SOL     OW21404   8.152   7.022  13.488
39836SOL    HW121405   8.137   7.101  13.436
39836SOL    HW221406   8.079   6.964  13.466
39837SOL     OW21407  11.653   3.401  10.979
39837SOL    HW121408  11.577   3.347  10.960
39837SOL    HW221409  11.625   3.459  11.050
39838SOL     OW21410   0.356   4.649  14.709
39838SOL    HW121411   0.329   4.659  14.800
39838SOL    HW221412   0.274   4.656  14.659
39839SOL     OW21413   3.350  10.792   5.433
39839SOL    HW121414   3.372  10.772   5.342
39839SOL    HW221415   3.310  10.712   5.466
39840SOL     OW21416  12.899  10.822   1.887
39840SOL    HW121417  12.826  10.843   1.944
39840SOL    HW221418  12.948  10.754   1.934
39841SOL     OW21419   6.418   4.615  12.591
39841SOL    HW121420   6.458   4.529  12.578
39841SOL    HW221421   6.334   4.609  12.547
39842SOL     OW21422   9.567   4.450  14.394
39842SOL    HW121423   9.577   4.439  14.300
39842SOL    HW221424   9.600   4.369  14.432
39843SOL     OW21425   6.051   9.079  10.934
39843SOL    HW121426   5.975   9.038  10.893
39843SOL    HW221427   6.062   9.161  10.887
39844SOL     OW21428   2.398   9.480  14.437
39844SOL    HW121429   2.317   9.525  14.416
39844SOL    HW221430   2.371   9.397  14.475
39845SOL     OW21431  14.453   3.234   4.963
39845SOL    HW121432  14.435   3.297   4.893
39845SOL    HW221433  14.515   3.280   5.020
39846SOL     OW21434   3.642   1.999   3.651
39846SOL    HW121435   3.585   2.052   3.707
39846SOL    HW221436   3.582   1.948   3.597
39847SOL     OW21437   4.354   8.909  12.655
39847SOL    HW121438   4.447   8.926  12.670
39847SOL    HW221439   4.353   8.841  12.587
39848SOL     OW21440  12.457   4.645  13.058
39848SOL    HW121441  12.465   4.601  12.973
39848SOL    HW221442  12.479   4.736  13.040
39849SOL     OW21443  14.861   1.676   0.918
39849SOL    HW121444  14.863   1.600   0.861
39849SOL    HW221445  14.775   1.716   0.901
39850SOL     OW21446   7.115  13.723  10.496
39850SOL    HW121447   7.108  13.696  10.404
39850SOL    HW221448   7.135  13.817  10.492
39851SOL     OW21449  11.912  10.926   4.978
39851SOL    HW121450  11.927  10.831   4.979
39851SOL    HW221451  11.863  10.942   4.898
39852SOL     OW21452  13.305  13.005   7.263
39852SOL    HW121453  13.255  12.947   7.206
39852SOL    HW221454  13.246  13.076   7.285
39853SOL     OW21455  12.898  13.995   5.123
39853SOL    HW121456  12.906  13.928   5.055
39853SOL    HW221457  12.970  14.055   5.105
39854SOL     OW21458   8.251   5.502   9.358
39854SOL    HW121459   8.246   5.427   9.300
39854SOL    HW221460   8.271   5.576   9.301
39855SOL     OW21461   1.132   9.133   2.604
39855SOL    HW121462   1.047   9.097   2.628
39855SOL    HW221463   1.117   9.227   2.598
39856SOL     OW21464   0.079   0.794   4.358
39856SOL    HW121465   0.150   0.815   4.297
39856SOL    HW221466   0.076   0.869   4.418
39857SOL     OW21467   1.585   5.365   5.102
39857SOL    HW121468   1.505   5.400   5.063
39857SOL    HW221469   1.567   5.365   5.196
39858SOL     OW21470   2.058  14.880   9.577
39858SOL    HW121471   2.151  14.875   9.598
39858SOL    HW221472   2.016   0.018   9.661
39859SOL     OW21473   5.627   2.420   2.320
39859SOL    HW121474   5.615   2.354   2.253
39859SOL    HW221475   5.710   2.463   2.298
39860SOL     OW21476  13.015   4.798   8.092
39860SOL    HW121477  13.002   4.842   8.008
39860SOL    HW221478  13.039   4.708   8.068
39861SOL     OW21479   5.311   7.231   9.686
39861SOL    HW121480   5.388   7.286   9.673
39861SOL    HW221481   5.331   7.179   9.765
39862SOL     OW21482  14.264  10.875   5.639
39862SOL    HW121483  14.231  10.963   5.621
39862SOL    HW221484  14.245  10.860   5.731
39863SOL     OW21485  12.801   4.031  12.896
39863SOL    HW121486  12.845   4.089  12.959
39863SOL    HW221487  12.853   3.951  12.897
39864SOL     OW21488   7.644   2.261   0.471
39864SOL    HW121489   7.675   2.170   0.468
39864SOL    HW221490   7.724   2.313   0.486
39865SOL     OW21491   7.271   7.227  10.578
39865SOL    HW121492   7.330   7.162  10.616
39865SOL    HW221493   7.294   7.230  10.485
39866SOL     OW21494   9.379   0.571   9.068
39866SOL    HW121495   9.453   0.623   9.100
39866SOL    HW221496   9.305   0.632   9.069
39867SOL     OW21497  14.099  11.864  11.314
39867SOL    HW121498  14.051  11.782  11.326
39867SOL    HW221499  14.151  11.850  11.235
39868SOL     OW21500  12.693   4.544   2.338
39868SOL    HW121501  12.784   4.520   2.323
39868SOL    HW221502  12.644   4.499   2.269
39869SOL     OW21503   9.390   9.655   2.914
39869SOL    HW121504   9.355   9.573   2.949
39869SOL    HW221505   9.313   9.712   2.905
39870SOL     OW21506   8.277   9.867   8.200
39870SOL    HW121507   8.203   9.894   8.255
39870SOL    HW221508   8.341   9.937   8.212
39871SOL     OW21509  13.743   3.107   6.284
39871SOL    HW121510  13.654   3.136   6.266
39871SOL    HW221511  13.738   3.012   6.286
39872SOL     OW21512   7.453   5.126   9.559
39872SOL    HW121513   7.452   5.087   9.647
39872SOL    HW221514   7.361   5.145   9.541
39873SOL     OW21515   6.965   6.799   1.595
39873SOL    HW121516   6.932   6.793   1.506
39873SOL    HW221517   7.051   6.757   1.592
39874SOL     OW21518   4.953   3.536   8.265
39874SOL    HW121519   4.989   3.624   8.257
39874SOL    HW221520   4.945   3.505   8.175
39875SOL     OW21521  10.360  13.789   5.672
39875SOL    HW121522  10.452  13.795   5.698
39875SOL    HW221523  10.362  13.779   5.577
39876SOL     OW21524   5.483   2.323  13.937
39876SOL    HW121525   5.491   2.231  13.913
39876SOL    HW221526   5.542   2.334  14.011
39877SOL     OW21527   0.125   9.272   6.383
39877SOL    HW121528   0.189   9.295   6.451
39877SOL    HW221529   0.044   9.254   6.432
39878SOL     OW21530   9.575   1.390  14.719
39878SOL    HW121531   9.521   1.313  14.705
39878SOL    HW221532   9.515   1.455  14.755
39879SOL     OW21533  13.369   9.919   1.035
39879SOL    HW121534  13.309   9.844   1.036
39879SOL    HW221535  13.392   9.932   1.127
39880SOL     OW21536   7.747   3.764   3.740
39880SOL    HW121537   7.751   3.768   3.836
39880SOL    HW221538   7.815   3.700   3.717
39881SOL     OW21539  14.288   7.456   4.904
39881SOL    HW121540  14.197   7.474   4.929
39881SOL    HW221541  14.339   7.522   4.952
39882SOL     OW21542  11.994  14.871  13.953
39882SOL    HW121543  12.080   0.028  13.938
39882SOL    HW221544  11.942   0.016  13.878
39883SOL     OW21545  13.360   2.597  13.013
39883SOL    HW121546  13.292   2.647  12.968
39883SOL    HW221547  13.386   2.653  13.086
39884SOL     OW21548   4.081   9.591   5.800
39884SOL    HW121549   4.104   9.642   5.723
39884SOL    HW221550   4.001   9.544   5.774
39885SOL     OW21551   6.017   9.526   4.758
39885SOL    HW121552   6.036   9.436   4.731
39885SOL    HW221553   6.088   9.577   4.720
39886SOL     OW21554  10.856  12.019   5.168
39886SOL    HW121555  10.761  12.033   5.164
39886SOL    HW221556  10.868  11.958   5.240
39887SOL     OW21557  12.236  11.248   1.399
39887SOL    HW121558  12.251  11.305   1.324
39887SOL    HW221559  12.186  11.302   1.460
39888SOL     OW21560  13.700   3.211  11.113
39888SOL    HW121561  13.719   3.205  11.019
39888SOL    HW221562  13.739   3.132  11.151
39889SOL     OW21563   7.427  12.552   0.026
39889SOL    HW121564   7.347  12.602   0.009
39889SOL    HW221565   7.466  12.539  14.822
39890SOL     OW21566   3.769  14.219   8.380
39890SOL    HW121567   3.802  14.256   8.462
39890SOL    HW221568   3.761  14.125   8.398
39891SOL     OW21569   3.757   2.425  13.626
39891SOL    HW121570   3.680   2.483  13.619
39891SOL    HW221571   3.739   2.355  13.563
39892SOL     OW21572   6.137  10.737   1.331
39892SOL    HW121573   6.047  10.735   1.299
39892SOL    HW221574   6.189  10.701   1.260
39893SOL     OW21575   2.912   1.011  11.004
39893SOL    HW121576   2.989   0.995  10.950
39893SOL    HW221577   2.931   1.092  11.051
39894SOL     OW21578   0.839   0.887   5.612
39894SOL    HW121579   0.925   0.861   5.646
39894SOL    HW221580   0.804   0.947   5.677
39895SOL     OW21581   2.372   7.638   8.028
39895SOL    HW121582   2.380   7.685   8.110
39895SOL    HW221583   2.443   7.574   8.029
39896SOL     OW21584   7.050   8.140   7.936
39896SOL    HW121585   7.130   8.168   7.890
39896SOL    HW221586   7.020   8.063   7.888
39897SOL     OW21587   3.642   0.764  11.863
39897SOL    HW121588   3.621   0.673  11.882
39897SOL    HW221589   3.736   0.765  11.848
39898SOL     OW21590  13.073   5.496   0.099
39898SOL    HW121591  13.018   5.520   0.172
39898SOL    HW221592  13.159   5.532   0.121
39899SOL     OW21593   9.930   9.091   5.922
39899SOL    HW121594   9.946   9.128   6.008
39899SOL    HW221595   9.933   8.996   5.936
39900SOL     OW21596   1.705   6.188  14.332
39900SOL    HW121597   1.779   6.188  14.392
39900SOL    HW221598   1.730   6.127  14.263
39901SOL     OW21599  14.608  12.329   6.441
39901SOL    HW121600  14.660  12.311   6.519
39901SOL    HW221601  14.518  12.335   6.472
39902SOL     OW21602   3.042   8.337   9.391
39902SOL    HW121603   3.066   8.308   9.479
39902SOL    HW221604   2.952   8.369   9.399
39903SOL     OW21605  10.347   6.923   4.384
39903SOL    HW121606  10.442   6.931   4.388
39903SOL    HW221607  10.314   7.011   4.405
39904SOL     OW21608   1.190   7.230   2.604
39904SOL    HW121609   1.258   7.198   2.665
39904SOL    HW221610   1.122   7.162   2.607
39905SOL     OW21611   0.578   5.122  11.204
39905SOL    HW121612   0.506   5.128  11.141
39905SOL    HW221613   0.544   5.162  11.284
39906SOL     OW21614   8.325   7.689   8.255
39906SOL    HW121615   8.382   7.730   8.190
39906SOL    HW221616   8.296   7.761   8.310
39907SOL     OW21617  11.743  13.534  10.476
39907SOL    HW121618  11.792  13.546  10.394
39907SOL    HW221619  11.806  13.491  10.535
39908SOL     OW21620  11.708   0.884   7.160
39908SOL    HW121621  11.750   0.924   7.235
39908SOL    HW221622  11.618   0.917   7.161
39909SOL     OW21623  12.967  14.832   3.746
39909SOL    HW121624  13.041  14.791   3.701
39909SOL    HW221625  13.000  14.850   3.834
39910SOL     OW21626   0.924   2.337  13.118
39910SOL    HW121627   0.963   2.372  13.037
39910SOL    HW221628   0.991   2.277  13.152
39911SOL     OW21629   2.983   0.774  12.689
39911SOL    HW121630   3.072   0.744  12.704
39911SOL    HW221631   2.986   0.868  12.700
39912SOL     OW21632   2.571   3.619   5.168
39912SOL    HW121633   2.621   3.693   5.135
39912SOL    HW221634   2.566   3.558   5.094
39913SOL     OW21635  11.703   2.535   7.491
39913SOL    HW121636  11.715   2.548   7.396
39913SOL    HW221637  11.617   2.494   7.498
39914SOL     OW21638   1.937   7.882   2.204
39914SOL    HW121639   1.992   7.947   2.159
39914SOL    HW221640   1.888   7.933   2.269
39915SOL     OW21641   1.665   4.764   5.477
39915SOL    HW121642   1.580   4.774   5.434
39915SOL    HW221643   1.693   4.854   5.496
39916SOL     OW21644   4.446  14.486   6.606
39916SOL    HW121645   4.472  14.454   6.692
39916SOL    HW221646   4.371  14.432   6.582
39917SOL     OW21647   2.389  12.838  11.118
39917SOL    HW121648   2.296  12.814  11.110
39917SOL    HW221649   2.405  12.843  11.212
39918SOL     OW21650   8.000   8.207   0.507
39918SOL    HW121651   7.937   8.187   0.438
39918SOL    HW221652   8.025   8.298   0.491
39919SOL     OW21653   5.937   4.286   6.609
39919SOL    HW121654   6.031   4.282   6.595
39919SOL    HW221655   5.917   4.379   6.616
39920SOL     OW21656   8.219  14.093  14.495
39920SOL    HW121657   8.213  14.085  14.400
39920SOL    HW221658   8.289  14.033  14.520
39921SOL     OW21659  10.491  13.383  10.061
39921SOL    HW121660  10.520  13.322  10.129
39921SOL    HW221661  10.396  13.377  10.062
39922SOL     OW21662   7.106   0.575   9.572
39922SOL    HW121663   7.170   0.541   9.509
39922SOL    HW221664   7.084   0.662   9.539
39923SOL     OW21665  11.618  10.820   7.523
39923SOL    HW121666  11.643  10.742   7.573
39923SOL    HW221667  11.667  10.813   7.441
39924SOL     OW21668   2.530  14.661   7.902
39924SOL    HW121669   2.455  14.658   7.962
39924SOL    HW221670   2.599  14.704   7.952
39925SOL     OW21671   0.673   5.359   4.396
39925SOL    HW121672   0.683   5.414   4.318
39925SOL    HW221673   0.631   5.416   4.460
39926SOL     OW21674  10.846   2.932   1.440
39926SOL    HW121675  10.799   2.894   1.366
39926SOL    HW221676  10.801   2.898   1.517
39927SOL     OW21677  13.276   7.974   0.382
39927SOL    HW121678  13.355   7.919   0.383
39927SOL    HW221679  13.265   8.001   0.473
39928SOL     OW21680   0.948   3.999   9.866
39928SOL    HW121681   1.035   3.964   9.884
39928SOL    HW221682   0.888   3.938   9.909
39929SOL     OW21683   2.403   0.887  13.555
39929SOL    HW121684   2.346   0.941  13.610
39929SOL    HW221685   2.377   0.909  13.466
39930SOL     OW21686   2.992  14.625   4.081
39930SOL    HW121687   2.920  14.570   4.049
39930SOL    HW221688   3.068  14.568   4.080
39931SOL     OW21689   9.235   5.321  13.033
39931SOL    HW121690   9.177   5.312  13.109
39931SOL    HW221691   9.304   5.380  13.064
39932SOL     OW21692  13.345   9.124   1.353
39932SOL    HW121693  13.417   9.093   1.409
39932SOL    HW221694  13.388   9.153   1.273
39933SOL     OW21695   3.649  11.091  14.104
39933SOL    HW121696   3.695  11.023  14.153
39933SOL    HW221697   3.610  11.044  14.030
39934SOL     OW21698   5.184   1.804   7.619
39934SOL    HW121699   5.166   1.728   7.563
39934SOL    HW221700   5.234   1.863   7.562
39935SOL     OW21701   2.882   7.804   2.499
39935SOL    HW121702   2.862   7.711   2.508
39935SOL    HW221703   2.940   7.808   2.423
39936SOL     OW21704  10.557   1.934   8.344
39936SOL    HW121705  10.468   1.900   8.354
39936SOL    HW221706  10.577   1.925   8.251
39937SOL     OW21707  13.483   5.936   7.385
39937SOL    HW121708  13.511   5.975   7.303
39937SOL    HW221709  13.544   5.968   7.451
39938SOL     OW21710   7.424   9.182  13.368
39938SOL    HW121711   7.463   9.143  13.445
39938SOL    HW221712   7.330   9.175  13.382
39939SOL     OW21713  10.090   1.946   9.373
39939SOL    HW121714  10.002   1.971   9.344
39939SOL    HW221715  10.097   1.854   9.349
39940SOL     OW21716  11.326   0.736   8.564
39940SOL    HW121717  11.231   0.721   8.559
39940SOL    HW221718  11.352   0.753   8.473
39941SOL     OW21719   5.013  14.513  12.989
39941SOL    HW121720   4.931  14.479  13.024
39941SOL    HW221721   5.076  14.503  13.061
39942SOL     OW21722  11.575  11.683  11.910
39942SOL    HW121723  11.567  11.668  12.004
39942SOL    HW221724  11.652  11.740  11.901
39943SOL     OW21725  12.985   2.894  10.737
39943SOL    HW121726  13.060   2.842  10.708
39943SOL    HW221727  12.925   2.830  10.776
39944SOL     OW21728   5.889   1.342   7.424
39944SOL    HW121729   5.888   1.329   7.329
39944SOL    HW221730   5.935   1.265   7.458
39945SOL     OW21731   4.713   3.719   4.524
39945SOL    HW121732   4.657   3.643   4.538
39945SOL    HW221733   4.750   3.739   4.610
39946SOL     OW21734   8.617  13.217   8.511
39946SOL    HW121735   8.570  13.298   8.492
39946SOL    HW221736   8.706  13.233   8.480
39947SOL     OW21737   7.721   8.899  10.832
39947SOL    HW121738   7.724   8.980  10.780
39947SOL    HW221739   7.710   8.929  10.923
39948SOL     OW21740  10.667   0.328   1.325
39948SOL    HW121741  10.573   0.318   1.337
39948SOL    HW221742  10.678   0.419   1.297
39949SOL     OW21743   4.687  13.849   0.438
39949SOL    HW121744   4.765  13.886   0.395
39949SOL    HW221745   4.704  13.859   0.532
39950SOL     OW21746  12.532  12.222   7.760
39950SOL    HW121747  12.574  12.144   7.796
39950SOL    HW221748  12.449  12.229   7.807
39951SOL     OW21749   7.583   2.304   4.864
39951SOL    HW121750   7.640   2.355   4.922
39951SOL    HW221751   7.537   2.369   4.812
39952SOL     OW21752   9.365   0.402   5.022
39952SOL    HW121753   9.460   0.413   5.026
39952SOL    HW221754   9.333   0.480   4.976
39953SOL     OW21755  10.951  12.336  13.423
39953SOL    HW121756  10.945  12.334  13.518
39953SOL    HW221757  10.973  12.246  13.398
39954SOL     OW21758  14.045   3.219  11.867
39954SOL    HW121759  14.110   3.186  11.929
39954SOL    HW221760  13.961   3.210  11.913
39955SOL     OW21761  10.126  10.174   4.748
39955SOL    HW121762  10.070  10.097   4.738
39955SOL    HW221763  10.207  10.140   4.785
39956SOL     OW21764   4.394   2.439  12.055
39956SOL    HW121765   4.367   2.414  11.967
39956SOL    HW221766   4.367   2.530  12.064
39957SOL     OW21767  12.419  13.100   2.416
39957SOL    HW121768  12.430  13.095   2.321
39957SOL    HW221769  12.441  13.012   2.446
39958SOL     OW21770   8.825  12.214   5.607
39958SOL    HW121771   8.738  12.238   5.576
39958SOL    HW221772   8.847  12.281   5.672
39959SOL     OW21773  10.971   2.154   7.619
39959SOL    HW121774  10.943   2.083   7.562
39959SOL    HW221775  11.016   2.110   7.691
39960SOL     OW21776  10.659   0.514   8.172
39960SOL    HW121777  10.583   0.456   8.159
39960SOL    HW221778  10.623   0.592   8.214
39961SOL     OW21779  10.042   7.980   2.992
39961SOL    HW121780   9.984   7.922   3.042
39961SOL    HW221781  10.100   7.921   2.945
39962SOL     OW21782   6.267   2.006   5.422
39962SOL    HW121783   6.339   2.052   5.378
39962SOL    HW221784   6.284   2.020   5.515
39963SOL     OW21785   6.018  12.098  10.955
39963SOL    HW121786   6.049  12.120  10.867
39963SOL    HW221787   6.049  12.009  10.970
39964SOL     OW21788   6.450  11.620   4.621
39964SOL    HW121789   6.365  11.612   4.664
39964SOL    HW221790   6.469  11.714   4.622
39965SOL     OW21791   5.185   9.873   9.750
39965SOL    HW121792   5.133   9.798   9.778
39965SOL    HW221793   5.268   9.863   9.797
39966SOL     OW21794  13.475   7.633   7.580
39966SOL    HW121795  13.408   7.696   7.551
39966SOL    HW221796  13.532   7.623   7.504
39967SOL     OW21797   4.879   8.871   2.639
39967SOL    HW121798   4.817   8.914   2.580
39967SOL    HW221799   4.938   8.941   2.666
39968SOL     OW21800  14.104   8.982  10.893
39968SOL    HW121801  14.195   8.998  10.871
39968SOL    HW221802  14.080   9.055  10.952
39969SOL     OW21803  11.957   7.215  11.030
39969SOL    HW121804  11.996   7.302  11.032
39969SOL    HW221805  12.013   7.162  11.088
39970SOL     OW21806   5.866  14.144  10.583
39970SOL    HW121807   5.794  14.171  10.639
39970SOL    HW221808   5.846  14.053  10.561
39971SOL     OW21809  11.714  13.308   8.254
39971SOL    HW121810  11.802  13.280   8.232
39971SOL    HW221811  11.719  13.404   8.257
39972SOL     OW21812  10.488  13.581   7.657
39972SOL    HW121813  10.451  13.616   7.738
39972SOL    HW221814  10.417  13.531   7.618
39973SOL     OW21815   0.851   4.292   4.419
39973SOL    HW121816   0.816   4.237   4.489
39973SOL    HW221817   0.774   4.331   4.378
39974SOL     OW21818  10.589  12.338   5.865
39974SOL    HW121819  10.680  12.338   5.896
39974SOL    HW221820  10.537  12.324   5.944
39975SOL     OW21821   0.545  12.501   1.578
39975SOL    HW121822   0.602  12.528   1.506
39975SOL    HW221823   0.517  12.583   1.620
39976SOL     OW21824   8.194   3.382   6.284
39976SOL    HW121825   8.131   3.312   6.301
39976SOL    HW221826   8.278   3.345   6.312
39977SOL     OW21827  14.744  11.477   7.602
39977SOL    HW121828  14.713  11.387   7.589
39977SOL    HW221829  14.665  11.530   7.599
39978SOL     OW21830  10.875   4.167   2.710
39978SOL    HW121831  10.858   4.139   2.620
39978SOL    HW221832  10.955   4.120   2.735
39979SOL     OW21833   3.540   9.452  10.381
39979SOL    HW121834   3.510   9.464  10.472
39979SOL    HW221835   3.478   9.389  10.344
39980SOL     OW21836   6.076   0.534  14.762
39980SOL    HW121837   6.112   0.602  14.819
39980SOL    HW221838   5.985   0.560  14.746
39981SOL     OW21839  11.521   1.080   0.278
39981SOL    HW121840  11.593   1.125   0.233
39981SOL    HW221841  11.529   1.110   0.369
39982SOL     OW21842   3.339   1.657   7.727
39982SOL    HW121843   3.357   1.680   7.818
39982SOL    HW221844   3.425   1.636   7.690
39983SOL     OW21845   6.656  14.009  10.667
39983SOL    HW121846   6.748  14.031  10.651
39983SOL    HW221847   6.643  13.926  10.621
39984SOL     OW21848  11.599   5.636   5.374
39984SOL    HW121849  11.635   5.558   5.416
39984SOL    HW221850  11.675   5.693   5.360
39985SOL     OW21851   1.384  12.047  13.034
39985SOL    HW121852   1.476  12.052  13.009
39985SOL    HW221853   1.383  11.997  13.116
39986SOL     OW21854   1.857   7.923  10.452
39986SOL    HW121855   1.895   7.839  10.426
39986SOL    HW221856   1.907   7.949  10.530
39987SOL     OW21857  10.030  12.911   1.713
39987SOL    HW121858   9.976  12.841   1.676
39987SOL    HW221859  10.028  12.896   1.807
39988SOL     OW21860   6.512   7.196   2.542
39988SOL    HW121861   6.561   7.181   2.623
39988SOL    HW221862   6.421   7.206   2.571
39989SOL     OW21863   9.661   2.263  14.736
39989SOL    HW121864   9.694   2.204  14.803
39989SOL    HW221865   9.730   2.328  14.725
39990SOL     OW21866  12.171  14.651  14.825
39990SOL    HW121867  12.264  14.664  14.843
39990SOL    HW221868  12.162  14.669  14.732
39991SOL     OW21869  10.972  14.121  10.012
39991SOL    HW121870  10.944  14.080  10.093
39991SOL    HW221871  10.892  14.158   9.974
39992SOL     OW21872   2.098  12.235   6.454
39992SOL    HW121873   2.130  12.146   6.440
39992SOL    HW221874   2.147  12.266   6.531
39993SOL     OW21875   7.780   0.921  10.877
39993SOL    HW121876   7.727   0.940  10.799
39993SOL    HW221877   7.747   0.981  10.944
39994SOL     OW21878   1.417   0.201  14.587
39994SOL    HW121879   1.399   0.289  14.620
39994SOL    HW221880   1.497   0.174  14.634
39995SOL     OW21881   1.963   3.370   2.920
39995SOL    HW121882   1.879   3.337   2.951
39995SOL    HW221883   2.016   3.380   2.999
39996SOL     OW21884   1.856  13.754   1.274
39996SOL    HW121885   1.774  13.802   1.273
39996SOL    HW221886   1.844  13.687   1.341
39997SOL     OW21887   4.028   9.073   9.305
39997SOL    HW121888   4.100   9.098   9.247
39997SOL    HW221889   4.050   9.114   9.389
39998SOL     OW21890  11.353   2.292   7.865
39998SOL    HW121891  11.363   2.252   7.952
39998SOL    HW221892  11.407   2.371   7.868
39999SOL     OW21893   4.394   3.270  13.425
39999SOL    HW121894   4.340   3.250  13.501
39999SOL    HW221895   4.479   3.231  13.445
40000SOL     OW21896   1.448   8.602   9.201
40000SOL    HW121897   1.531   8.608   9.248
40000SOL    HW221898   1.429   8.508   9.199
40001SOL     OW21899   3.438  14.845  13.064
40001SOL    HW121900   3.429  14.759  13.105
40001SOL    HW221901   3.517  14.838  13.011
40002SOL     OW21902   0.568  13.998   7.403
40002SOL    HW121903   0.535  13.917   7.363
40002SOL    HW221904   0.539  14.067   7.343
40003SOL     OW21905   3.851   0.031  13.382
40003SOL    HW121906   3.815  14.825  13.368
40003SOL    HW221907   3.934   0.031  13.336
40004SOL     OW21908  11.889  10.398  14.332
40004SOL    HW121909  11.966  10.361  14.376
40004SOL    HW221910  11.906  10.492  14.330
40005SOL     OW21911  12.304   2.717   5.099
40005SOL    HW121912  12.292   2.690   5.008
40005SOL    HW221913  12.333   2.808   5.093
40006SOL     OW21914  12.472   0.628   1.557
40006SOL    HW121915  12.403   0.582   1.508
40006SOL    HW221916  12.518   0.679   1.491
40007SOL     OW21917   0.699  12.375  12.762
40007SOL    HW121918   0.731  12.360  12.851
40007SOL    HW221919   0.605  12.389  12.772
40008SOL     OW21920   2.160   4.390   8.392
40008SOL    HW121921   2.166   4.416   8.484
40008SOL    HW221922   2.073   4.351   8.384
40009SOL     OW21923   7.319   3.707   4.243
40009SOL    HW121924   7.343   3.691   4.334
40009SOL    HW221925   7.253   3.640   4.224
40010SOL     OW21926   8.031   2.591   3.457
40010SOL    HW121927   8.072   2.662   3.407
40010SOL    HW221928   8.100   2.559   3.514
40011SOL     OW21929   3.256   2.738  12.431
40011SOL    HW121930   3.179   2.790  12.452
40011SOL    HW221931   3.304   2.731  12.514
40012SOL     OW21932   5.869   9.495   3.570
40012SOL    HW121933   5.918   9.559   3.622
40012SOL    HW221934   5.883   9.522   3.479
40013SOL     OW21935   4.409   0.141   0.251
40013SOL    HW121936   4.366   0.128   0.166
40013SOL    HW221937   4.337   0.143   0.314
40014SOL     OW21938  14.713   9.667  11.685
40014SOL    HW121939  14.692   9.582  11.647
40014SOL    HW221940  14.681   9.662  11.775
40015SOL     OW21941   2.636   3.879   3.032
40015SOL    HW121942   2.638   3.949   3.098
40015SOL    HW221943   2.634   3.798   3.083
40016SOL     OW21944  13.898  13.383   9.566
40016SOL    HW121945  13.993  13.386   9.575
40016SOL    HW221946  13.882  13.314   9.502
40017SOL     OW21947  13.461   4.014  12.979
40017SOL    HW121948  13.405   4.044  12.907
40017SOL    HW221949  13.546   4.055  12.962
40018SOL     OW21950   9.478   3.121  13.247
40018SOL    HW121951   9.460   3.206  13.288
40018SOL    HW221952   9.573   3.119  13.236
40019SOL     OW21953   6.000  10.483   8.968
40019SOL    HW121954   6.040  10.570   8.972
40019SOL    HW221955   5.913  10.498   8.932
40020SOL     OW21956   2.234  13.909  10.747
40020SOL    HW121957   2.185  13.944  10.672
40020SOL    HW221958   2.225  13.976  10.814
40021SOL     OW21959  12.480   0.546   1.826
40021SOL    HW121960  12.460   0.567   1.735
40021SOL    HW221961  12.436   0.615   1.876
40022SOL     OW21962   8.227   7.107  13.021
40022SOL    HW121963   8.296   7.053  12.982
40022SOL    HW221964   8.272   7.164  13.083
40023SOL     OW21965  13.286   9.505   1.216
40023SOL    HW121966  13.284   9.417   1.178
40023SOL    HW221967  13.196   9.537   1.208
40024SOL     OW21968   8.006   0.908   0.362
40024SOL    HW121969   8.034   0.874   0.447
40024SOL    HW221970   7.971   0.995   0.381
40025SOL     OW21971  10.792   3.359   5.995
40025SOL    HW121972  10.755   3.325   5.913
40025SOL    HW221973  10.830   3.444   5.971
40026SOL     OW21974   2.328   2.850  11.835
40026SOL    HW121975   2.342   2.840  11.929
40026SOL    HW221976   2.285   2.768  11.809
40027SOL     OW21977   1.259  12.444  12.619
40027SOL    HW121978   1.273  12.355  12.652
40027SOL    HW221979   1.164  12.455  12.621
40028SOL     OW21980   6.001  10.363   6.078
40028SOL    HW121981   6.020  10.424   6.150
40028SOL    HW221982   5.981  10.281   6.122
40029SOL     OW21983   9.469  13.838   7.808
40029SOL    HW121984   9.452  13.746   7.787
40029SOL    HW221985   9.455  13.884   7.725
40030SOL     OW21986  13.440  10.571   5.247
40030SOL    HW121987  13.512  10.622   5.283
40030SOL    HW221988  13.436  10.596   5.155
40031SOL     OW21989   0.311  13.781   1.682
40031SOL    HW121990   0.383  13.844   1.688
40031SOL    HW221991   0.353  13.700   1.654
40032SOL     OW21992   0.196   1.027   5.259
40032SOL    HW121993   0.198   0.933   5.247
40032SOL    HW221994   0.103   1.049   5.265
40033SOL     OW21995  10.067   8.221   5.965
40033SOL    HW121996  10.153   8.182   5.954
40033SOL    HW221997  10.083   8.303   6.012
40034SOL     OW21998   2.115   1.826  10.902
40034SOL    HW121999   2.155   1.875  10.830
40034SOL    HW222000   2.121   1.734  10.874
40035SOL     OW22001   0.004   4.049   6.885
40035SOL    HW122002   0.024   4.035   6.792
40035SOL    HW222003   0.014   4.144   6.897
40036SOL     OW22004   4.796  14.777  12.258
40036SOL    HW122005   4.802  14.686  12.227
40036SOL    HW222006   4.793  14.830  12.178
40037SOL     OW22007  10.861   6.064  13.800
40037SOL    HW122008  10.796   5.994  13.803
40037SOL    HW222009  10.859   6.102  13.888
40038SOL     OW22010   4.474   1.219   2.739
40038SOL    HW122011   4.495   1.260   2.655
40038SOL    HW222012   4.502   1.281   2.805
40039SOL     OW22013   2.000  14.037  11.860
40039SOL    HW122014   2.016  14.022  11.953
40039SOL    HW222015   1.945  13.964  11.833
40040SOL     OW22016   8.225   3.465   3.842
40040SOL    HW122017   8.260   3.529   3.779
40040SOL    HW222018   8.287   3.466   3.914
40041SOL     OW22019   3.061  13.886   3.122
40041SOL    HW122020   3.038  13.961   3.067
40041SOL    HW222021   3.039  13.809   3.069
40042SOL     OW22022   1.595  13.204   8.528
40042SOL    HW122023   1.623  13.161   8.447
40042SOL    HW222024   1.674  13.205   8.583
40043SOL     OW22025  10.990  13.845   9.781
40043SOL    HW122026  10.979  13.900   9.704
40043SOL    HW222027  11.067  13.881   9.826
40044SOL     OW22028   5.361  13.712  14.245
40044SOL    HW122029   5.436  13.765  14.217
40044SOL    HW222030   5.339  13.747  14.332
40045SOL     OW22031   6.461  14.850  13.316
40045SOL    HW122032   6.501   0.046  13.278
40045SOL    HW222033   6.534  14.788  13.328
40046SOL     OW22034   6.521  10.048   2.153
40046SOL    HW122035   6.476   9.976   2.197
40046SOL    HW222036   6.611  10.017   2.143
40047SOL     OW22037  11.510   7.295   1.786
40047SOL    HW122038  11.499   7.339   1.702
40047SOL    HW222039  11.468   7.353   1.849
40048SOL     OW22040  14.226   6.170  11.530
40048SOL    HW122041  14.209   6.145  11.621
40048SOL    HW222042  14.145   6.145  11.484
40049SOL     OW22043   5.274   9.017   3.916
40049SOL    HW122044   5.238   8.954   3.854
40049SOL    HW222045   5.364   9.031   3.885
40050SOL     OW22046   1.757   8.722  12.648
40050SOL    HW122047   1.699   8.768  12.709
40050SOL    HW222048   1.840   8.713  12.695
40051SOL     OW22049   8.424  13.453  11.537
40051SOL    HW122050   8.396  13.518  11.602
40051SOL    HW222051   8.503  13.415  11.574
40052SOL     OW22052   4.781   7.681   0.358
40052SOL    HW122053   4.703   7.735   0.367
40052SOL    HW222054   4.805   7.686   0.266
40053SOL     OW22055   3.275   5.965  11.931
40053SOL    HW122056   3.297   5.952  12.023
40053SOL    HW222057   3.234   6.051  11.928
40054SOL     OW22058   4.144  14.541   7.780
40054SOL    HW122059   4.157  14.529   7.874
40054SOL    HW222060   4.102  14.627   7.772
40055SOL     OW22061  13.807  12.616  14.506
40055SOL    HW122062  13.812  12.688  14.568
40055SOL    HW222063  13.721  12.577  14.522
40056SOL     OW22064  11.909   2.396  10.464
40056SOL    HW122065  11.894   2.389  10.559
40056SOL    HW222066  11.954   2.480  10.453
40057SOL     OW22067   0.140  12.065   4.007
40057SOL    HW122068   0.205  12.120   3.962
40057SOL    HW222069   0.093  12.125   4.064
40058SOL     OW22070   3.314  10.847  11.852
40058SOL    HW122071   3.281  10.930  11.819
40058SOL    HW222072   3.408  10.860  11.861
40059SOL     OW22073   3.735  14.320   5.072
40059SOL    HW122074   3.741  14.289   4.981
40059SOL    HW222075   3.755  14.414   5.066
40060SOL     OW22076  11.222   0.832   8.932
40060SOL    HW122077  11.291   0.774   8.899
40060SOL    HW222078  11.168   0.850   8.855
40061SOL     OW22079   1.705   3.390   6.685
40061SOL    HW122080   1.624   3.440   6.694
40061SOL    HW222081   1.772   3.455   6.666
40062SOL     OW22082   7.324   5.479  11.795
40062SOL    HW122083   7.324   5.570  11.764
40062SOL    HW222084   7.393   5.437  11.746
40063SOL     OW22085   4.753  12.870   3.777
40063SOL    HW122086   4.666  12.860   3.817
40063SOL    HW222087   4.808  12.809   3.826
40064SOL     OW22088   2.315   1.086   1.033
40064SOL    HW122089   2.349   1.123   0.952
40064SOL    HW222090   2.388   1.091   1.094
40065SOL     OW22091  13.798   8.562   7.256
40065SOL    HW122092  13.849   8.512   7.192
40065SOL    HW222093  13.855   8.636   7.278
40066SOL     OW22094   7.086   3.744  14.353
40066SOL    HW122095   7.078   3.701  14.438
40066SOL    HW222096   6.998   3.741  14.316
40067SOL     OW22097  12.079   0.876   1.297
40067SOL    HW122098  12.154   0.917   1.340
40067SOL    HW222099  12.113   0.791   1.267
40068SOL     OW22100   7.575   4.603  14.383
40068SOL    HW122101   7.583   4.651  14.301
40068SOL    HW222102   7.623   4.656  14.447
40069SOL     OW22103   5.580   9.642   6.425
40069SOL    HW122104   5.501   9.613   6.471
40069SOL    HW222105   5.563   9.733   6.402
40070SOL     OW22106   6.574   7.980  14.132
40070SOL    HW122107   6.589   7.994  14.038
40070SOL    HW222108   6.513   8.050  14.157
40071SOL     OW22109   7.975  13.717  14.289
40071SOL    HW122110   8.002  13.666  14.213
40071SOL    HW222111   7.962  13.652  14.358
40072SOL     OW22112  11.320   6.982  11.506
40072SOL    HW122113  11.325   7.007  11.414
40072SOL    HW222114  11.228   6.962  11.520
40073SOL     OW22115  10.787   1.340  11.818
40073SOL    HW122116  10.837   1.275  11.769
40073SOL    HW222117  10.850   1.375  11.881
40074SOL     OW22118   7.446  12.455  13.786
40074SOL    HW122119   7.496  12.389  13.834
40074SOL    HW222120   7.388  12.404  13.729
40075SOL     OW22121   6.531  12.916  13.958
40075SOL    HW122122   6.617  12.889  13.991
40075SOL    HW222123   6.514  13.000  14.000
40076SOL     OW22124   9.087  10.277   2.605
40076SOL    HW122125   9.099  10.308   2.515
40076SOL    HW222126   9.119  10.349   2.660
40077SOL     OW22127   8.172   0.521   7.985
40077SOL    HW122128   8.208   0.456   8.045
40077SOL    HW222129   8.085   0.488   7.963
40078SOL     OW22130   5.279   3.658   1.748
40078SOL    HW122131   5.356   3.676   1.802
40078SOL    HW222132   5.225   3.737   1.757
40079SOL     OW22133  12.821  10.121   5.138
40079SOL    HW122134  12.877  10.083   5.070
40079SOL    HW222135  12.870  10.196   5.171
40080SOL     OW22136   1.552   9.732   8.961
40080SOL    HW122137   1.467   9.755   8.922
40080SOL    HW222138   1.606   9.810   8.948
40081SOL     OW22139   9.562  10.685   9.716
40081SOL    HW122140   9.487  10.720   9.668
40081SOL    HW222141   9.637  10.734   9.683
40082SOL     OW22142  14.293   4.622   1.108
40082SOL    HW122143  14.256   4.642   1.194
40082SOL    HW222144  14.261   4.692   1.051
40083SOL     OW22145   3.271   6.067  12.518
40083SOL    HW122146   3.183   6.105  12.524
40083SOL    HW222147   3.322   6.115  12.584
40084SOL     OW22148   9.499   4.889  14.064
40084SOL    HW122149   9.541   4.969  14.095
40084SOL    HW222150   9.443   4.862  14.136
40085SOL     OW22151  10.871   7.019  12.902
40085SOL    HW122152  10.847   6.939  12.856
40085SOL    HW222153  10.788   7.064  12.918
40086SOL     OW22154   5.383  11.852   6.884
40086SOL    HW122155   5.460  11.884   6.836
40086SOL    HW222156   5.313  11.852   6.820
40087SOL     OW22157   7.825   4.614   0.802
40087SOL    HW122158   7.791   4.570   0.724
40087SOL    HW222159   7.747   4.652   0.844
40088SOL     OW22160   2.984   7.055   3.556
40088SOL    HW122161   3.056   7.049   3.494
40088SOL    HW222162   3.007   7.131   3.611
40089SOL     OW22163   7.802  10.260  10.075
40089SOL    HW122164   7.812  10.168  10.052
40089SOL    HW222165   7.882  10.282  10.122
40090SOL     OW22166  10.811   0.248  10.215
40090SOL    HW122167  10.716   0.259  10.219
40090SOL    HW222168  10.825   0.193  10.138
40091SOL     OW22169   4.392  13.836   2.201
40091SOL    HW122170   4.345  13.920   2.205
40091SOL    HW222171   4.464  13.852   2.140
40092SOL     OW22172   8.126   2.310   9.139
40092SOL    HW122173   8.069   2.387   9.133
40092SOL    HW222174   8.092   2.251   9.072
40093SOL     OW22175  14.536   1.671   9.421
40093SOL    HW122176  14.556   1.641   9.332
40093SOL    HW222177  14.447   1.706   9.414
40094SOL     OW22178  13.975  10.583   6.664
40094SOL    HW122179  13.937  10.650   6.607
40094SOL    HW222180  14.063  10.616   6.684
40095SOL     OW22181   2.351   4.470   4.560
40095SOL    HW122182   2.281   4.534   4.572
40095SOL    HW222183   2.346   4.445   4.468
40096SOL     OW22184  13.867   9.246   1.129
40096SOL    HW122185  13.880   9.190   1.053
40096SOL    HW222186  13.937   9.221   1.190
40097SOL     OW22187   3.347   9.252   4.768
40097SOL    HW122188   3.431   9.230   4.807
40097SOL    HW222189   3.368   9.320   4.703
40098SOL     OW22190  12.483   8.704   6.726
40098SOL    HW122191  12.444   8.763   6.791
40098SOL    HW222192  12.441   8.729   6.643
40099SOL     OW22193   3.870   5.049   3.149
40099SOL    HW122194   3.875   5.033   3.055
40099SOL    HW222195   3.862   5.144   3.158
40100SOL     OW22196   7.562   9.325   9.752
40100SOL    HW122197   7.602   9.320   9.665
40100SOL    HW222198   7.468   9.329   9.735
40101SOL     OW22199   9.642  13.020   6.375
40101SOL    HW122200   9.645  13.108   6.338
40101SOL    HW222201   9.657  12.962   6.299
40102SOL     OW22202  10.719   8.282   9.581
40102SOL    HW122203  10.785   8.263   9.515
40102SOL    HW222204  10.706   8.377   9.577
40103SOL     OW22205   4.037   0.774   1.054
40103SOL    HW122206   3.974   0.814   1.114
40103SOL    HW222207   4.075   0.701   1.103
40104SOL     OW22208   9.743  10.045   7.197
40104SOL    HW122209   9.714  10.022   7.109
40104SOL    HW222210   9.760   9.961   7.240
40105SOL     OW22211  11.640   6.775   6.684
40105SOL    HW122212  11.711   6.839   6.687
40105SOL    HW222213  11.620   6.756   6.776
40106SOL     OW22214  13.672   0.945   2.103
40106SOL    HW122215  13.601   0.886   2.126
40106SOL    HW222216  13.664   0.957   2.008
40107SOL     OW22217   8.918  13.969  11.476
40107SOL    HW122218   8.993  13.913  11.498
40107SOL    HW222219   8.851  13.944  11.540
40108SOL     OW22220   9.652  11.864   4.998
40108SOL    HW122221   9.628  11.777   4.969
40108SOL    HW222222   9.651  11.859   5.094
40109SOL     OW22223   0.458   2.371   5.739
40109SOL    HW122224   0.397   2.345   5.670
40109SOL    HW222225   0.543   2.376   5.694
40110SOL     OW22226  10.991   5.619   8.151
40110SOL    HW122227  10.942   5.701   8.147
40110SOL    HW222228  11.011   5.608   8.244
40111SOL     OW22229   4.116   0.026   5.976
40111SOL    HW122230   4.174   0.031   5.900
40111SOL    HW222231   4.076   0.113   5.981
40112SOL     OW22232  12.910   6.432   8.576
40112SOL    HW122233  12.955   6.443   8.659
40112SOL    HW222234  12.968   6.472   8.511
40113SOL     OW22235   5.879   2.488   0.597
40113SOL    HW122236   5.896   2.568   0.547
40113SOL    HW222237   5.895   2.417   0.535
40114SOL     OW22238   4.480   4.272   4.825
40114SOL    HW122239   4.443   4.288   4.912
40114SOL    HW222240   4.404   4.244   4.773
40115SOL     OW22241   5.303   6.345  14.469
40115SOL    HW122242   5.360   6.271  14.490
40115SOL    HW222243   5.230   6.338  14.530
40116SOL     OW22244  14.449   5.248  11.955
40116SOL    HW122245  14.380   5.296  11.910
40116SOL    HW222246  14.529   5.294  11.933
40117SOL     OW22247  11.885   9.004  13.463
40117SOL    HW122248  11.874   9.085  13.413
40117SOL    HW222249  11.873   8.934  13.399
40118SOL     OW22250   9.748  13.627   4.707
40118SOL    HW122251   9.747  13.705   4.651
40118SOL    HW222252   9.841  13.615   4.729
40119SOL     OW22253   4.420   9.266   4.992
40119SOL    HW122254   4.374   9.198   5.041
40119SOL    HW222255   4.378   9.348   5.020
40120SOL     OW22256  13.852   0.838   5.303
40120SOL    HW122257  13.870   0.802   5.390
40120SOL    HW222258  13.935   0.832   5.256
40121SOL     OW22259   0.695   4.173   7.148
40121SOL    HW122260   0.756   4.236   7.109
40121SOL    HW222261   0.608   4.208   7.127
40122SOL     OW22262   6.697   7.670   8.443
40122SOL    HW122263   6.664   7.603   8.503
40122SOL    HW222264   6.778   7.701   8.485
40123SOL     OW22265   9.490   7.137  13.072
40123SOL    HW122266   9.411   7.094  13.038
40123SOL    HW222267   9.552   7.132  12.999
40124SOL     OW22268  11.125   9.902   9.639
40124SOL    HW122269  11.167   9.818   9.659
40124SOL    HW222270  11.198   9.963   9.628
40125SOL     OW22271   3.232   9.420   7.829
40125SOL    HW122272   3.305   9.420   7.891
40125SOL    HW222273   3.271   9.390   7.747
40126SOL     OW22274  10.315  12.828  14.214
40126SOL    HW122275  10.292  12.873  14.295
40126SOL    HW222276  10.410  12.833  14.210
40127SOL     OW22277   1.896   4.884  10.731
40127SOL    HW122278   1.914   4.882  10.825
40127SOL    HW222279   1.937   4.805  10.696
40128SOL     OW22280   4.417   2.379   9.105
40128SOL    HW122281   4.501   2.418   9.080
40128SOL    HW222282   4.382   2.341   9.025
40129SOL     OW22283  13.398   3.724  13.410
40129SOL    HW122284  13.311   3.756  13.435
40129SOL    HW222285  13.404   3.742  13.316
40130SOL     OW22286  13.124  13.150   9.112
40130SOL    HW122287  13.059  13.164   9.044
40130SOL    HW222288  13.074  13.125   9.189
40131SOL     OW22289  11.092   0.908   4.272
40131SOL    HW122290  11.002   0.937   4.280
40131SOL    HW222291  11.093   0.853   4.193
40132SOL     OW22292  10.797   2.039   0.452
40132SOL    HW122293  10.823   1.967   0.509
40132SOL    HW222294  10.815   2.006   0.364
40133SOL     OW22295  10.612  11.048  14.833
40133SOL    HW122296  10.610  11.104  14.755
40133SOL    HW222297  10.566  10.969  14.807
40134SOL     OW22298   0.328   8.466   7.220
40134SOL    HW122299   0.331   8.373   7.196
40134SOL    HW222300   0.401   8.505   7.171
40135SOL     OW22301   3.760   4.961   0.763
40135SOL    HW122302   3.669   4.986   0.778
40135SOL    HW222303   3.802   5.041   0.731
40136SOL     OW22304  10.721   0.437   5.386
40136SOL    HW122305  10.666   0.411   5.460
40136SOL    HW222306  10.766   0.357   5.359
40137SOL     OW22307   7.469   2.212   7.503
40137SOL    HW122308   7.494   2.229   7.412
40137SOL    HW222309   7.447   2.298   7.539
40138SOL     OW22310  14.039   9.126   3.742
40138SOL    HW122311  13.997   9.204   3.777
40138SOL    HW222312  14.128   9.129   3.777
40139SOL     OW22313  10.811   6.669   2.544
40139SOL    HW122314  10.848   6.744   2.499
40139SOL    HW222315  10.858   6.665   2.627
40140SOL     OW22316   9.771   3.695   8.507
40140SOL    HW122317   9.859   3.707   8.471
40140SOL    HW222318   9.777   3.728   8.597
40141SOL     OW22319  11.156   9.524   1.509
40141SOL    HW122320  11.220   9.466   1.468
40141SOL    HW222321  11.199   9.555   1.589
40142SOL     OW22322   2.248   9.134   8.065
40142SOL    HW122323   2.255   9.225   8.093
40142SOL    HW222324   2.338   9.107   8.049
40143SOL     OW22325  12.248   4.520   8.047
40143SOL    HW122326  12.226   4.456   7.980
40143SOL    HW222327  12.255   4.603   8.000
40144SOL     OW22328  12.805  10.049  12.299
40144SOL    HW122329  12.766   9.963  12.314
40144SOL    HW222330  12.899  10.034  12.310
40145SOL     OW22331  10.635   3.954  11.057
40145SOL    HW122332  10.622   3.985  11.147
40145SOL    HW222333  10.684   3.873  11.067
40146SOL     OW22334   4.473   7.750   6.263
40146SOL    HW122335   4.537   7.685   6.234
40146SOL    HW222336   4.495   7.828   6.213
40147SOL     OW22337   3.885   4.132  10.928
40147SOL    HW122338   3.819   4.084  10.978
40147SOL    HW222339   3.957   4.069  10.918
40148SOL     OW22340   7.138  13.826   7.310
40148SOL    HW122341   7.099  13.744   7.341
40148SOL    HW222342   7.224  13.830   7.351
40149SOL     OW22343   6.069   6.350   9.367
40149SOL    HW122344   6.082   6.295   9.290
40149SOL    HW222345   6.001   6.413   9.341
40150SOL     OW22346   4.547  11.376   3.646
40150SOL    HW122347   4.462  11.339   3.672
40150SOL    HW222348   4.605  11.300   3.638
40151SOL     OW22349   7.874   9.195   3.165
40151SOL    HW122350   7.936   9.231   3.227
40151SOL    HW222351   7.852   9.109   3.199
40152SOL     OW22352   7.273   6.681  14.000
40152SOL    HW122353   7.330   6.696  14.075
40152SOL    HW222354   7.316   6.726  13.928
40153SOL     OW22355   1.830  10.049   3.894
40153SOL    HW122356   1.846  10.066   3.987
40153SOL    HW222357   1.909  10.003   3.864
40154SOL     OW22358   4.434   2.886   4.149
40154SOL    HW122359   4.458   2.830   4.222
40154SOL    HW222360   4.486   2.966   4.162
40155SOL     OW22361   2.573   0.858  12.506
40155SOL    HW122362   2.647   0.802  12.483
40155SOL    HW222363   2.604   0.908  12.582
40156SOL     OW22364  10.517   7.830   0.023
40156SOL    HW122365  10.570   7.761  14.866
40156SOL    HW222366  10.501   7.891  14.833
40157SOL     OW22367  11.143   6.064   5.096
40157SOL    HW122368  11.108   6.013   5.169
40157SOL    HW222369  11.236   6.074   5.117
40158SOL     OW22370   7.401  13.603   2.235
40158SOL    HW122371   7.491  13.603   2.202
40158SOL    HW222372   7.408  13.643   2.321
40159SOL     OW22373   7.420  13.187   8.624
40159SOL    HW122374   7.471  13.216   8.548
40159SOL    HW222375   7.331  13.219   8.606
40160SOL     OW22376   9.629   8.390   0.136
40160SOL    HW122377   9.632   8.481   0.165
40160SOL    HW222378   9.636   8.339   0.217
40161SOL     OW22379  10.535  13.465  13.979
40161SOL    HW122380  10.529  13.379  13.937
40161SOL    HW222381  10.558  13.446  14.069
40162SOL     OW22382   6.936  11.065   7.797
40162SOL    HW122383   6.884  11.012   7.858
40162SOL    HW222384   6.962  11.004   7.728
40163SOL     OW22385   1.392  10.833   8.365
40163SOL    HW122386   1.418  10.922   8.342
40163SOL    HW222387   1.474  10.786   8.378
40164SOL     OW22388   9.930   2.518   4.712
40164SOL    HW122389   9.952   2.426   4.723
40164SOL    HW222390   9.987   2.564   4.773
40165SOL     OW22391   0.013  14.156   8.150
40165SOL    HW122392   0.098  14.193   8.173
40165SOL    HW222393   0.016  14.146   8.055
40166SOL     OW22394   4.201   2.951   7.462
40166SOL    HW122395   4.235   2.932   7.375
40166SOL    HW222396   4.192   3.047   7.464
40167SOL     OW22397   3.896  12.737  10.402
40167SOL    HW122398   3.879  12.650  10.440
40167SOL    HW222399   3.920  12.791  10.477
40168SOL     OW22400   7.941  14.483  12.016
40168SOL    HW122401   7.995  14.547  11.970
40168SOL    HW222402   7.962  14.400  11.975
40169SOL     OW22403   9.846   5.190  11.431
40169SOL    HW122404   9.761   5.224  11.462
40169SOL    HW222405   9.824   5.113  11.379
40170SOL     OW22406   2.558   6.659   8.475
40170SOL    HW122407   2.560   6.742   8.522
40170SOL    HW222408   2.548   6.592   8.543
40171SOL     OW22409   9.966  10.004  13.567
40171SOL    HW122410   9.929   9.919  13.593
40171SOL    HW222411   9.897  10.044  13.513
40172SOL     OW22412   3.987   6.910   4.606
40172SOL    HW122413   4.021   6.943   4.689
40172SOL    HW222414   3.950   6.824   4.627
40173SOL     OW22415  11.053   3.925   7.420
40173SOL    HW122416  11.097   3.910   7.504
40173SOL    HW222417  11.114   3.981   7.371
40174SOL     OW22418   8.854   9.385   8.487
40174SOL    HW122419   8.885   9.308   8.535
40174SOL    HW222420   8.865   9.362   8.395
40175SOL     OW22421   4.632  12.493  13.280
40175SOL    HW122422   4.592  12.575  13.251
40175SOL    HW222423   4.560  12.430  13.284
40176SOL     OW22424  14.224   6.665  11.693
40176SOL    HW122425  14.314   6.678  11.664
40176SOL    HW222426  14.225   6.583  11.742
40177SOL     OW22427   7.219   6.171   6.049
40177SOL    HW122428   7.276   6.238   6.086
40177SOL    HW222429   7.142   6.170   6.105
40178SOL     OW22430  11.394   8.338   5.379
40178SOL    HW122431  11.372   8.368   5.291
40178SOL    HW222432  11.462   8.272   5.366
40179SOL     OW22433  10.620   5.471  11.350
40179SOL    HW122434  10.540   5.439  11.392
40179SOL    HW222435  10.591   5.504  11.265
40180SOL     OW22436   2.063   0.389   2.027
40180SOL    HW122437   2.027   0.397   1.938
40180SOL    HW222438   2.048   0.475   2.067
40181SOL     OW22439   4.657   3.657   8.056
40181SOL    HW122440   4.748   3.639   8.033
40181SOL    HW222441   4.643   3.748   8.028
40182SOL     OW22442   0.803   5.082   7.985
40182SOL    HW122443   0.878   5.071   7.926
40182SOL    HW222444   0.804   5.003   8.039
40183SOL     OW22445   4.358  14.316  10.706
40183SOL    HW122446   4.324  14.402  10.683
40183SOL    HW222447   4.436  14.305  10.651
40184SOL     OW22448  12.282   4.658   3.074
40184SOL    HW122449  12.270   4.610   3.156
40184SOL    HW222450  12.232   4.609   3.009
40185SOL     OW22451  10.003  11.806  14.470
40185SOL    HW122452   9.985  11.733  14.411
40185SOL    HW222453  10.035  11.876  14.414
40186SOL     OW22454   3.485  13.662   7.089
40186SOL    HW122455   3.395  13.633   7.104
40186SOL    HW222456   3.497  13.655   6.995
40187SOL     OW22457  14.587  13.120   5.951
40187SOL    HW122458  14.604  13.076   5.867
40187SOL    HW222459  14.567  13.210   5.927
40188SOL     OW22460  13.954  14.260   1.683
40188SOL    HW122461  14.004  14.276   1.763
40188SOL    HW222462  14.005  14.195   1.635
40189SOL     OW22463   3.686   2.067   1.968
40189SOL    HW122464   3.749   2.026   2.027
40189SOL    HW222465   3.653   1.995   1.914
40190SOL     OW22466   8.882   1.396   7.723
40190SOL    HW122467   8.918   1.481   7.747
40190SOL    HW222468   8.819   1.376   7.792
40191SOL     OW22469   9.556   3.008  14.595
40191SOL    HW122470   9.601   3.082  14.635
40191SOL    HW222471   9.501   2.973  14.665
40192SOL     OW22472   3.475   2.790   2.856
40192SOL    HW122473   3.421   2.820   2.929
40192SOL    HW222474   3.477   2.695   2.864
40193SOL     OW22475   9.284   5.475   2.745
40193SOL    HW122476   9.189   5.484   2.735
40193SOL    HW222477   9.296   5.383   2.771
40194SOL     OW22478  11.185   9.425  10.943
40194SOL    HW122479  11.149   9.392  11.025
40194SOL    HW222480  11.210   9.515  10.962
40195SOL     OW22481   0.515   2.782   0.669
40195SOL    HW122482   0.580   2.843   0.634
40195SOL    HW222483   0.463   2.757   0.592
40196SOL     OW22484   7.076  12.245  12.842
40196SOL    HW122485   7.098  12.289  12.925
40196SOL    HW222486   7.130  12.167  12.842
40197SOL     OW22487   2.292  12.345  11.230
40197SOL    HW122488   2.276  12.323  11.138
40197SOL    HW222489   2.378  12.386  11.231
40198SOL     OW22490  11.100   2.881   4.851
40198SOL    HW122491  11.188   2.909   4.826
40198SOL    HW222492  11.048   2.962   4.851
40199SOL     OW22493   1.477   2.294   8.643
40199SOL    HW122494   1.401   2.250   8.682
40199SOL    HW222495   1.473   2.272   8.550
40200SOL     OW22496  11.251   6.127  14.844
40200SOL    HW122497  11.283   6.065   0.027
40200SOL    HW222498  11.329   6.175  14.816
40201SOL     OW22499   7.404   5.007  13.265
40201SOL    HW122500   7.431   5.027  13.175
40201SOL    HW222501   7.308   5.007  13.261
40202SOL     OW22502   1.732  11.063   1.316
40202SOL    HW122503   1.665  11.066   1.384
40202SOL    HW222504   1.705  10.991   1.258
40203SOL     OW22505   6.558   3.553  14.033
40203SOL    HW122506   6.557   3.632  13.978
40203SOL    HW222507   6.487   3.566  14.095
40204SOL     OW22508   1.431   4.216  14.085
40204SOL    HW122509   1.461   4.149  14.147
40204SOL    HW222510   1.387   4.166  14.016
40205SOL     OW22511   1.921   9.941  11.281
40205SOL    HW122512   1.971   9.930  11.362
40205SOL    HW222513   1.987   9.940  11.212
40206SOL     OW22514   9.812   9.798   4.176
40206SOL    HW122515   9.795   9.738   4.104
40206SOL    HW222516   9.788   9.884   4.143
40207SOL     OW22517   3.877  12.530   1.068
40207SOL    HW122518   3.863  12.437   1.052
40207SOL    HW222519   3.862  12.541   1.162
40208SOL     OW22520  14.399   2.710  14.789
40208SOL    HW122521  14.374   2.621  14.814
40208SOL    HW222522  14.388   2.712  14.694
40209SOL     OW22523   1.235   4.320   0.291
40209SOL    HW122524   1.244   4.236   0.335
40209SOL    HW222525   1.265   4.304   0.202
40210SOL     OW22526  14.353  10.246   0.132
40210SOL    HW122527  14.398  10.179   0.080
40210SOL    HW222528  14.359  10.326   0.080
40211SOL     OW22529   2.568   8.678   8.400
40211SOL    HW122530   2.499   8.642   8.455
40211SOL    HW222531   2.642   8.619   8.413
40212SOL     OW22532   1.047   9.982   2.427
40212SOL    HW122533   1.087  10.019   2.349
40212SOL    HW222534   1.078  10.038   2.498
40213SOL     OW22535   8.896   9.957  11.663
40213SOL    HW122536   8.991   9.945  11.669
40213SOL    HW222537   8.869   9.898  11.593
40214SOL     OW22538   6.456   2.753   4.546
40214SOL    HW122539   6.397   2.693   4.592
40214SOL    HW222540   6.498   2.803   4.617
40215SOL     OW22541   6.145  11.314   2.722
40215SOL    HW122542   6.216  11.368   2.755
40215SOL    HW222543   6.131  11.345   2.633
40216SOL     OW22544  10.303   5.759   6.982
40216SOL    HW122545  10.370   5.757   7.051
40216SOL    HW222546  10.314   5.844   6.940
40217SOL     OW22547   9.572   7.993  10.130
40217SOL    HW122548   9.482   8.008  10.102
40217SOL    HW222549   9.621   7.985  10.048
40218SOL     OW22550   9.534   4.718   1.949
40218SOL    HW122551   9.526   4.787   1.884
40218SOL    HW222552   9.481   4.748   2.023
40219SOL     OW22553  12.528   5.146   8.972
40219SOL    HW122554  12.536   5.108   9.059
40219SOL    HW222555  12.479   5.080   8.922
40220SOL     OW22556   3.816   4.241  11.892
40220SOL    HW122557   3.733   4.247  11.938
40220SOL    HW222558   3.882   4.262  11.958
40221SOL     OW22559   6.192  14.398   9.910
40221SOL    HW122560   6.132  14.352   9.850
40221SOL    HW222561   6.270  14.342   9.913
40222SOL     OW22562  12.921   8.354   2.562
40222SOL    HW122563  12.990   8.380   2.501
40222SOL    HW222564  12.932   8.413   2.637
40223SOL     OW22565   3.913   2.229   4.698
40223SOL    HW122566   3.884   2.210   4.788
40223SOL    HW222567   3.872   2.160   4.645
40224SOL     OW22568   1.069   1.481  10.202
40224SOL    HW122569   1.150   1.438  10.231
40224SOL    HW222570   1.087   1.507  10.112
40225SOL     OW22571  14.475   9.950   2.106
40225SOL    HW122572  14.452   9.999   2.027
40225SOL    HW222573  14.525  10.012   2.159
40226SOL     OW22574   3.875   6.347   3.601
40226SOL    HW122575   3.844   6.406   3.669
40226SOL    HW222576   3.832   6.377   3.521
40227SOL     OW22577   8.658   7.128   6.915
40227SOL    HW122578   8.624   7.210   6.949
40227SOL    HW222579   8.749   7.148   6.891
40228SOL     OW22580  10.736   7.533  10.957
40228SOL    HW122581  10.816   7.514  10.908
40228SOL    HW222582  10.696   7.605  10.910
40229SOL     OW22583  11.696  12.401   3.610
40229SOL    HW122584  11.605  12.430   3.603
40229SOL    HW222585  11.712  12.396   3.704
40230SOL     OW22586  13.120   8.970  12.751
40230SOL    HW122587  13.086   9.041  12.697
40230SOL    HW222588  13.160   9.014  12.826
40231SOL     OW22589   4.551  14.535   5.086
40231SOL    HW122590   4.529  14.444   5.103
40231SOL    HW222591   4.497  14.560   5.011
40232SOL     OW22592   3.469   7.315  13.869
40232SOL    HW122593   3.549   7.313  13.816
40232SOL    HW222594   3.449   7.223  13.887
40233SOL     OW22595   9.756  13.968   2.019
40233SOL    HW122596   9.673  13.948   1.975
40233SOL    HW222597   9.820  13.912   1.975
40234SOL     OW22598  11.066   2.252  14.139
40234SOL    HW122599  11.120   2.222  14.066
40234SOL    HW222600  11.077   2.347  14.140
40235SOL     OW22601  11.103  10.466  10.871
40235SOL    HW122602  11.150  10.406  10.814
40235SOL    HW222603  11.095  10.419  10.954
40236SOL     OW22604   7.757  13.135  11.821
40236SOL    HW122605   7.731  13.200  11.756
40236SOL    HW222606   7.849  13.155  11.840
40237SOL     OW22607   5.812   2.828  10.768
40237SOL    HW122608   5.722   2.815  10.797
40237SOL    HW222609   5.857   2.864  10.845
40238SOL     OW22610   9.219  12.487  10.640
40238SOL    HW122611   9.129  12.520  10.643
40238SOL    HW222612   9.210  12.392  10.644
40239SOL     OW22613   4.843   4.341   0.746
40239SOL    HW122614   4.843   4.245   0.752
40239SOL    HW222615   4.753   4.363   0.723
40240SOL     OW22616  10.221   4.318   6.802
40240SOL    HW122617  10.132   4.284   6.805
40240SOL    HW222618  10.246   4.311   6.710
40241SOL     OW22619   2.204  12.336   7.994
40241SOL    HW122620   2.179  12.271   8.059
40241SOL    HW222621   2.126  12.347   7.940
40242SOL     OW22622  12.979  13.215  14.204
40242SOL    HW122623  13.066  13.253  14.190
40242SOL    HW222624  12.927  13.250  14.132
40243SOL     OW22625  11.615   0.342   2.170
40243SOL    HW122626  11.627   0.403   2.097
40243SOL    HW222627  11.611   0.397   2.248
40244SOL     OW22628   5.056  12.073   6.570
40244SOL    HW122629   5.136  12.124   6.585
40244SOL    HW222630   4.994  12.106   6.635
40245SOL     OW22631   9.504   9.682   5.122
40245SOL    HW122632   9.420   9.641   5.145
40245SOL    HW222633   9.506   9.762   5.175
40246SOL     OW22634  12.641  12.045   5.687
40246SOL    HW122635  12.579  12.069   5.618
40246SOL    HW222636  12.710  11.996   5.642
40247SOL     OW22637   0.467  11.163   1.032
40247SOL    HW122638   0.420  11.241   1.004
40247SOL    HW222639   0.558  11.180   1.009
40248SOL     OW22640   4.330   9.131  11.845
40248SOL    HW122641   4.302   9.095  11.760
40248SOL    HW222642   4.362   9.219  11.824
40249SOL     OW22643   2.877   6.993   0.851
40249SOL    HW122644   2.872   6.907   0.810
40249SOL    HW222645   2.931   6.979   0.929
40250SOL     OW22646   7.651   5.199   5.801
40250SOL    HW122647   7.717   5.155   5.746
40250SOL    HW222648   7.618   5.270   5.747
40251SOL     OW22649  13.077  10.691   4.952
40251SOL    HW122650  13.028  10.611   4.932
40251SOL    HW222651  13.019  10.741   5.009
40252SOL     OW22652   6.835  12.569   5.087
40252SOL    HW122653   6.824  12.484   5.128
40252SOL    HW222654   6.818  12.553   4.994
40253SOL     OW22655   3.223   1.858   9.783
40253SOL    HW122656   3.256   1.769   9.797
40253SOL    HW222657   3.235   1.873   9.689
40254SOL     OW22658  14.667   3.246  12.434
40254SOL    HW122659  14.689   3.206  12.519
40254SOL    HW222660  14.742   3.303  12.415
40255SOL     OW22661   6.149   6.598  14.337
40255SOL    HW122662   6.160   6.546  14.258
40255SOL    HW222663   6.078   6.555  14.385
40256SOL     OW22664   3.740   2.996  10.664
40256SOL    HW122665   3.675   2.930  10.685
40256SOL    HW222666   3.727   3.065  10.730
40257SOL     OW22667  14.587  11.929   0.778
40257SOL    HW122668  14.519  11.862   0.772
40257SOL    HW222669  14.574  11.969   0.865
40258SOL     OW22670  10.737   8.102   6.283
40258SOL    HW122671  10.790   8.036   6.238
40258SOL    HW222672  10.654   8.058   6.302
40259SOL     OW22673  10.129  10.415   1.943
40259SOL    HW122674  10.090  10.332   1.915
40259SOL    HW222675  10.158  10.456   1.861
40260SOL     OW22676   2.014   5.099   0.309
40260SOL    HW122677   1.955   5.114   0.383
40260SOL    HW222678   1.996   5.171   0.249
40261SOL     OW22679   8.492   1.437   9.848
40261SOL    HW122680   8.542   1.516   9.827
40261SOL    HW222681   8.552   1.383   9.899
40262SOL     OW22682  14.877   1.987   2.092
40262SOL    HW122683  14.784   1.997   2.071
40262SOL    HW222684   0.001   1.901   2.133
40263SOL     OW22685   0.219  13.179   0.360
40263SOL    HW122686   0.133  13.212   0.335
40263SOL    HW222687   0.229  13.203   0.452
40264SOL     OW22688   8.934   1.547   0.573
40264SOL    HW122689   8.983   1.470   0.603
40264SOL    HW222690   8.858   1.512   0.526
40265SOL     OW22691   0.395   1.527   3.430
40265SOL    HW122692   0.452   1.575   3.371
40265SOL    HW222693   0.360   1.593   3.490
40266SOL     OW22694   8.889  14.745   1.964
40266SOL    HW122695   8.826  14.751   2.036
40266SOL    HW222696   8.931  14.832   1.962
40267SOL     OW22697   3.196   6.569   3.313
40267SOL    HW122698   3.136   6.643   3.322
40267SOL    HW222699   3.279   6.608   3.285
40268SOL     OW22700   3.154   9.562  14.167
40268SOL    HW122701   3.137   9.654  14.150
40268SOL    HW222702   3.185   9.527  14.084
40269SOL     OW22703  13.290   9.778   8.579
40269SOL    HW122704  13.304   9.864   8.620
40269SOL    HW222705  13.232   9.796   8.505
40270SOL     OW22706  14.841  12.729  13.233
40270SOL    HW122707  14.773  12.727  13.300
40270SOL    HW222708   0.033  12.684  13.272
40271SOL     OW22709   4.788   6.113  11.215
40271SOL    HW122710   4.769   6.182  11.152
40271SOL    HW222711   4.824   6.041  11.162
40272SOL     OW22712   1.093   6.709   2.253
40272SOL    HW122713   1.069   6.799   2.228
40272SOL    HW222714   1.187   6.714   2.271
40273SOL     OW22715  11.700   8.181   7.756
40273SOL    HW122716  11.698   8.274   7.777
40273SOL    HW222717  11.616   8.147   7.785
40274SOL     OW22718   4.593  12.225   2.266
40274SOL    HW122719   4.623  12.203   2.354
40274SOL    HW222720   4.623  12.315   2.252
40275SOL     OW22721   3.024  13.049  10.765
40275SOL    HW122722   2.932  13.038  10.788
40275SOL    HW222723   3.068  13.062  10.849
40276SOL     OW22724   2.278   8.787   4.704
40276SOL    HW122725   2.195   8.819   4.741
40276SOL    HW222726   2.342   8.798   4.774
40277SOL     OW22727  13.731   1.545   2.704
40277SOL    HW122728  13.776   1.465   2.677
40277SOL    HW222729  13.708   1.589   2.623
40278SOL     OW22730   9.337   0.588  13.986
40278SOL    HW122731   9.314   0.517  13.927
40278SOL    HW222732   9.433   0.586  13.992
40279SOL     OW22733   2.272   4.830  14.514
40279SOL    HW122734   2.292   4.819  14.606
40279SOL    HW222735   2.347   4.877  14.478
40280SOL     OW22736  14.488   6.272   0.992
40280SOL    HW122737  14.451   6.184   1.003
40280SOL    HW222738  14.512   6.276   0.900
40281SOL     OW22739   4.382   3.085  10.361
40281SOL    HW122740   4.348   3.081  10.450
40281SOL    HW222741   4.321   3.032  10.309
40282SOL     OW22742   9.526   5.040   9.827
40282SOL    HW122743   9.543   5.123   9.782
40282SOL    HW222744   9.601   4.985   9.806
40283SOL     OW22745   8.910  12.905  13.915
40283SOL    HW122746   8.954  12.989  13.917
40283SOL    HW222747   8.830  12.920  13.865
40284SOL     OW22748   1.995   8.300   4.684
40284SOL    HW122749   1.948   8.237   4.628
40284SOL    HW222750   1.926   8.345   4.732
40285SOL     OW22751  12.435   8.322  11.371
40285SOL    HW122752  12.494   8.386  11.411
40285SOL    HW222753  12.491   8.271  11.313
40286SOL     OW22754  13.834  12.330   6.710
40286SOL    HW122755  13.835  12.326   6.614
40286SOL    HW222756  13.914  12.285   6.737
40287SOL     OW22757   1.748   3.374   8.207
40287SOL    HW122758   1.722   3.380   8.115
40287SOL    HW222759   1.678   3.324   8.249
40288SOL     OW22760   2.423  12.613   5.890
40288SOL    HW122761   2.467  12.529   5.880
40288SOL    HW222762   2.494  12.675   5.904
40289SOL     OW22763   6.361  10.524   8.479
40289SOL    HW122764   6.392  10.506   8.568
40289SOL    HW222765   6.274  10.483   8.475
40290SOL     OW22766   9.877   6.251  13.633
40290SOL    HW122767   9.903   6.343  13.635
40290SOL    HW222768   9.828   6.241  13.552
40291SOL     OW22769   1.100  13.996   0.040
40291SOL    HW122770   1.150  13.931  14.873
40291SOL    HW222771   1.142  14.080   0.020
40292SOL     OW22772   3.830   2.323  14.596
40292SOL    HW122773   3.803   2.381  14.667
40292SOL    HW222774   3.823   2.377  14.517
40293SOL     OW22775   8.759   6.112   4.415
40293SOL    HW122776   8.712   6.030   4.428
40293SOL    HW222777   8.765   6.151   4.502
40294SOL     OW22778   5.950  10.102  13.182
40294SOL    HW122779   5.906  10.107  13.267
40294SOL    HW222780   6.042  10.121  13.201
40295SOL     OW22781   1.262   1.210  13.901
40295SOL    HW122782   1.217   1.129  13.924
40295SOL    HW222783   1.247   1.268  13.976
40296SOL     OW22784   8.182  13.159   5.570
40296SOL    HW122785   8.240  13.156   5.646
40296SOL    HW222786   8.241  13.160   5.495
40297SOL     OW22787   0.170  14.682   5.429
40297SOL    HW122788   0.188  14.733   5.508
40297SOL    HW222789   0.151  14.594   5.460
40298SOL     OW22790   7.778   0.628   4.518
40298SOL    HW122791   7.710   0.677   4.564
40298SOL    HW222792   7.744   0.617   4.429
40299SOL     OW22793  10.673   1.208  13.524
40299SOL    HW122794  10.639   1.249  13.604
40299SOL    HW222795  10.597   1.169  13.482
40300SOL     OW22796   1.924   6.002   3.989
40300SOL    HW122797   1.995   5.938   3.982
40300SOL    HW222798   1.939   6.063   3.916
40301SOL     OW22799  10.847   6.993  13.883
40301SOL    HW122800  10.830   6.918  13.826
40301SOL    HW222801  10.930   6.972  13.926
40302SOL     OW22802  12.151  14.239   2.415
40302SOL    HW122803  12.133  14.153   2.452
40302SOL    HW222804  12.152  14.298   2.490
40303SOL     OW22805   9.374   5.302   2.335
40303SOL    HW122806   9.370   5.231   2.399
40303SOL    HW222807   9.438   5.364   2.371
40304SOL     OW22808  10.002  10.739  13.023
40304SOL    HW122809  10.020  10.780  12.938
40304SOL    HW222810  10.087  10.742  13.068
40305SOL     OW22811   3.620   4.422   8.953
40305SOL    HW122812   3.597   4.488   8.888
40305SOL    HW222813   3.583   4.455   9.035
40306SOL     OW22814   2.494  10.042   5.487
40306SOL    HW122815   2.547  10.109   5.529
40306SOL    HW222816   2.510   9.962   5.537
40307SOL     OW22817  14.195  13.706   3.219
40307SOL    HW122818  14.255  13.652   3.167
40307SOL    HW222819  14.231  13.795   3.213
40308SOL     OW22820   6.217  14.007   8.964
40308SOL    HW122821   6.223  13.948   9.040
40308SOL    HW222822   6.276  14.079   8.986
40309SOL     OW22823   9.902   1.197   0.216
40309SOL    HW122824   9.892   1.103   0.199
40309SOL    HW222825   9.968   1.225   0.152
40310SOL     OW22826   4.119   6.257   1.346
40310SOL    HW122827   4.057   6.196   1.307
40310SOL    HW222828   4.205   6.220   1.327
40311SOL     OW22829  11.095   6.366   1.125
40311SOL    HW122830  11.159   6.429   1.158
40311SOL    HW222831  11.111   6.287   1.177
40312SOL     OW22832   0.141   2.685  13.221
40312SOL    HW122833   0.220   2.676  13.274
40312SOL    HW222834   0.164   2.643  13.138
40313SOL     OW22835  11.525   1.508   0.282
40313SOL    HW122836  11.554   1.586   0.233
40313SOL    HW222837  11.481   1.454   0.216
40314SOL     OW22838  13.264  14.248   7.060
40314SOL    HW122839  13.184  14.245   7.114
40314SOL    HW222840  13.302  14.333   7.078
40315SOL     OW22841   1.463   3.997   0.706
40315SOL    HW122842   1.549   4.034   0.688
40315SOL    HW222843   1.479   3.927   0.770
40316SOL     OW22844   3.518  11.984   5.544
40316SOL    HW122845   3.563  12.050   5.596
40316SOL    HW222846   3.429  11.983   5.577
40317SOL     OW22847   4.160   5.929   7.969
40317SOL    HW122848   4.210   5.932   8.051
40317SOL    HW222849   4.220   5.891   7.905
40318SOL     OW22850  11.915   0.257   6.598
40318SOL    HW122851  11.947   0.344   6.573
40318SOL    HW222852  11.822   0.270   6.615
40319SOL     OW22853   2.059   0.744   9.048
40319SOL    HW122854   2.058   0.835   9.078
40319SOL    HW222855   1.966   0.721   9.039
40320SOL     OW22856   0.908   9.881  12.964
40320SOL    HW122857   0.970   9.809  12.974
40320SOL    HW222858   0.953   9.943  12.907
40321SOL     OW22859   2.393   2.210   7.632
40321SOL    HW122860   2.395   2.208   7.537
40321SOL    HW222861   2.305   2.243   7.653
40322SOL     OW22862   1.007   5.983   2.361
40322SOL    HW122863   0.996   6.077   2.346
40322SOL    HW222864   1.096   5.975   2.397
40323SOL     OW22865  13.992   1.991  13.457
40323SOL    HW122866  14.065   1.955  13.507
40323SOL    HW222867  14.031   2.056  13.399
40324SOL     OW22868   1.606   0.086  14.744
40324SOL    HW122869   1.680   0.037  14.709
40324SOL    HW222870   1.572   0.031  14.814
40325SOL     OW22871   0.611   5.745   2.896
40325SOL    HW122872   0.657   5.716   2.816
40325SOL    HW222873   0.677   5.794   2.945
40326SOL     OW22874   7.327   2.774   4.819
40326SOL    HW122875   7.322   2.832   4.743
40326SOL    HW222876   7.242   2.730   4.822
40327SOL     OW22877   5.794   3.532   0.154
40327SOL    HW122878   5.730   3.512   0.223
40327SOL    HW222879   5.763   3.483   0.078
40328SOL     OW22880  12.916   5.068   3.809
40328SOL    HW122881  12.917   5.061   3.714
40328SOL    HW222882  12.823   5.074   3.832
40329SOL     OW22883   9.186  10.454  14.019
40329SOL    HW122884   9.188  10.490  13.930
40329SOL    HW222885   9.093  10.444  14.038
40330SOL     OW22886   9.256  11.999   1.572
40330SOL    HW122887   9.236  12.092   1.583
40330SOL    HW222888   9.203  11.955   1.638
40331SOL     OW22889   7.089  14.168  11.318
40331SOL    HW122890   7.101  14.204  11.406
40331SOL    HW222891   6.994  14.163  11.307
40332SOL     OW22892  12.300   5.530   6.211
40332SOL    HW122893  12.233   5.521   6.279
40332SOL    HW222894  12.324   5.440   6.189
40333SOL     OW22895  12.187  12.877   9.260
40333SOL    HW122896  12.215  12.947   9.319
40333SOL    HW222897  12.111  12.838   9.304
40334SOL     OW22898   1.118   6.049  12.977
40334SOL    HW122899   1.076   6.048  13.063
40334SOL    HW222900   1.196   5.995  12.987
40335SOL     OW22901   6.014  11.736  13.036
40335SOL    HW122902   5.974  11.808  13.083
40335SOL    HW222903   6.027  11.769  12.947
40336SOL     OW22904   9.470   4.862   7.359
40336SOL    HW122905   9.413   4.859   7.436
40336SOL    HW222906   9.491   4.770   7.342
40337SOL     OW22907   3.972   1.789  11.661
40337SOL    HW122908   3.957   1.783  11.567
40337SOL    HW222909   4.058   1.828  11.670
40338SOL     OW22910   1.726   3.311   4.623
40338SOL    HW122911   1.659   3.305   4.691
40338SOL    HW222912   1.737   3.221   4.592
40339SOL     OW22913   4.806   3.883  11.475
40339SOL    HW122914   4.810   3.796  11.436
40339SOL    HW222915   4.868   3.935  11.423
40340SOL     OW22916   2.572   7.323  11.562
40340SOL    HW122917   2.625   7.248  11.588
40340SOL    HW222918   2.633   7.396  11.560
40341SOL     OW22919  11.508   1.427   5.713
40341SOL    HW122920  11.456   1.350   5.689
40341SOL    HW222921  11.445   1.486   5.756
40342SOL     OW22922  10.061   5.636   4.255
40342SOL    HW122923  10.124   5.673   4.193
40342SOL    HW222924   9.975   5.655   4.216
40343SOL     OW22925  10.608   9.677   9.449
40343SOL    HW122926  10.579   9.710   9.364
40343SOL    HW222927  10.593   9.582   9.445
40344SOL     OW22928   5.763   6.006   5.604
40344SOL    HW122929   5.817   5.962   5.539
40344SOL    HW222930   5.795   5.974   5.689
40345SOL     OW22931   7.328   1.508   3.644
40345SOL    HW122932   7.298   1.598   3.629
40345SOL    HW222933   7.385   1.489   3.570
40346SOL     OW22934   5.469   0.567  12.576
40346SOL    HW122935   5.554   0.597  12.607
40346SOL    HW222936   5.423   0.647  12.550
40347SOL     OW22937   4.152   5.410   9.442
40347SOL    HW122938   4.181   5.407   9.351
40347SOL    HW222939   4.216   5.465   9.487
40348SOL     OW22940   5.475   5.441   7.746
40348SOL    HW122941   5.436   5.497   7.813
40348SOL    HW222942   5.438   5.473   7.663
40349SOL     OW22943   4.671  13.158   2.764
40349SOL    HW122944   4.679  13.246   2.726
40349SOL    HW222945   4.592  13.122   2.724
40350SOL     OW22946  10.304   6.061  10.583
40350SOL    HW122947  10.378   6.008  10.614
40350SOL    HW222948  10.275   6.110  10.660
40351SOL     OW22949  14.717   7.303   0.088
40351SOL    HW122950  14.702   7.383   0.139
40351SOL    HW222951  14.701   7.329  14.879
40352SOL     OW22952   7.544  14.051   5.039
40352SOL    HW122953   7.529  13.980   4.976
40352SOL    HW222954   7.525  14.131   4.989
40353SOL     OW22955   9.548   2.710   1.892
40353SOL    HW122956   9.622   2.705   1.831
40353SOL    HW222957   9.490   2.776   1.853
40354SOL     OW22958  11.677  10.395   1.934
40354SOL    HW122959  11.587  10.396   1.901
40354SOL    HW222960  11.667  10.394   2.029
40355SOL     OW22961   6.087   3.741  13.507
40355SOL    HW122962   6.102   3.728  13.413
40355SOL    HW222963   6.167   3.709  13.549
40356SOL     OW22964   8.400   9.948   3.797
40356SOL    HW122965   8.423  10.029   3.753
40356SOL    HW222966   8.324   9.970   3.850
40357SOL     OW22967  10.975  12.734  11.126
40357SOL    HW122968  11.068  12.736  11.104
40357SOL    HW222969  10.940  12.662  11.074
40358SOL     OW22970  12.048   9.764   9.488
40358SOL    HW122971  12.117   9.757   9.553
40358SOL    HW222972  12.035   9.675   9.457
40359SOL     OW22973   8.299   8.431  14.325
40359SOL    HW122974   8.222   8.446  14.380
40359SOL    HW222975   8.327   8.342  14.347
40360SOL     OW22976  11.607   5.564   4.910
40360SOL    HW122977  11.575   5.529   4.993
40360SOL    HW222978  11.551   5.640   4.893
40361SOL     OW22979   5.079   3.586   3.648
40361SOL    HW122980   5.157   3.598   3.592
40361SOL    HW222981   5.033   3.669   3.644
40362SOL     OW22982   2.880   9.486  10.146
40362SOL    HW122983   2.846   9.558  10.093
40362SOL    HW222984   2.880   9.410  10.087
40363SOL     OW22985   3.973   6.873   2.148
40363SOL    HW122986   3.916   6.949   2.140
40363SOL    HW222987   3.931   6.805   2.095
40364SOL     OW22988   4.658   1.975   4.578
40364SOL    HW122989   4.754   1.979   4.586
40364SOL    HW222990   4.636   2.054   4.528
40365SOL     OW22991   3.278   3.602   0.403
40365SOL    HW122992   3.185   3.593   0.382
40365SOL    HW222993   3.297   3.529   0.461
40366SOL     OW22994   0.673   9.769  10.306
40366SOL    HW122995   0.646   9.690  10.261
40366SOL    HW222996   0.712   9.824  10.238
40367SOL     OW22997  11.018   6.916   1.791
40367SOL    HW122998  11.066   6.991   1.826
40367SOL    HW222999  11.011   6.855   1.865
40368SOL     OW23000   7.785   2.756   4.082
40368SOL    HW123001   7.728   2.824   4.119
40368SOL    HW223002   7.873   2.793   4.089
40369SOL     OW23003   2.699   5.124   6.366
40369SOL    HW123004   2.639   5.061   6.325
40369SOL    HW223005   2.717   5.188   6.298
40370SOL     OW23006   3.323   1.650  14.635
40370SOL    HW123007   3.314   1.627  14.727
40370SOL    HW223008   3.395   1.713  14.633
40371SOL     OW23009  11.003   6.701   0.961
40371SOL    HW123010  11.014   6.620   0.911
40371SOL    HW223011  10.908   6.710   0.971
40372SOL     OW23012   2.858   4.373  13.375
40372SOL    HW123013   2.876   4.444  13.313
40372SOL    HW223014   2.782   4.327  13.338
40373SOL     OW23015   8.921   7.232  10.948
40373SOL    HW123016   8.837   7.216  10.992
40373SOL    HW223017   8.948   7.145  10.917
40374SOL     OW23018   2.623   1.184   7.771
40374SOL    HW123019   2.629   1.191   7.676
40374SOL    HW223020   2.615   1.090   7.788
40375SOL     OW23021  12.557   8.326   1.583
40375SOL    HW123022  12.563   8.294   1.673
40375SOL    HW223023  12.580   8.418   1.589
40376SOL     OW23024   5.005   8.582   3.795
40376SOL    HW123025   4.940   8.549   3.857
40376SOL    HW223026   5.071   8.624   3.849
40377SOL     OW23027   6.816   9.321   2.792
40377SOL    HW123028   6.842   9.281   2.874
40377SOL    HW223029   6.761   9.395   2.817
40378SOL     OW23030  12.595   4.210  14.146
40378SOL    HW123031  12.689   4.229  14.148
40378SOL    HW223032  12.589   4.115  14.157
40379SOL     OW23033   0.187   7.490  10.973
40379SOL    HW123034   0.136   7.479  11.054
40379SOL    HW223035   0.225   7.404  10.958
40380SOL     OW23036   7.458  13.853   9.251
40380SOL    HW123037   7.412  13.904   9.184
40380SOL    HW223038   7.534  13.816   9.207
40381SOL     OW23039  10.873  12.668  11.363
40381SOL    HW123040  10.911  12.704  11.283
40381SOL    HW223041  10.947  12.658  11.423
40382SOL     OW23042   0.629  12.464  12.491
40382SOL    HW123043   0.650  12.415  12.571
40382SOL    HW223044   0.541  12.435  12.468
40383SOL     OW23045   3.452   6.165   7.185
40383SOL    HW123046   3.512   6.123   7.123
40383SOL    HW223047   3.394   6.218   7.130
40384SOL     OW23048   6.983   3.853   0.996
40384SOL    HW123049   6.900   3.895   0.976
40384SOL    HW223050   6.965   3.759   0.986
40385SOL     OW23051   1.410  14.759   5.623
40385SOL    HW123052   1.448  14.822   5.562
40385SOL    HW223053   1.316  14.766   5.609
40386SOL     OW23054   6.203   8.323   1.494
40386SOL    HW123055   6.277   8.302   1.551
40386SOL    HW223056   6.145   8.376   1.549
40387SOL     OW23057  13.709  14.148   7.476
40387SOL    HW123058  13.613  14.144   7.480
40387SOL    HW223059  13.728  14.162   7.383
40388SOL     OW23060   9.809   6.717   0.808
40388SOL    HW123061   9.770   6.652   0.866
40388SOL    HW223062   9.800   6.800   0.855
40389SOL     OW23063   1.152   7.642   7.643
40389SOL    HW123064   1.226   7.615   7.698
40389SOL    HW223065   1.118   7.560   7.608
40390SOL     OW23066   8.404  11.270  13.843
40390SOL    HW123067   8.457  11.286  13.765
40390SOL    HW223068   8.468  11.262  13.914
40391SOL     OW23069  10.999   7.127  12.693
40391SOL    HW123070  10.953   7.087  12.767
40391SOL    HW223071  11.000   7.059  12.626
40392SOL     OW23072   9.568   8.646   3.462
40392SOL    HW123073   9.500   8.670   3.525
40392SOL    HW223074   9.575   8.551   3.468
40393SOL     OW23075   9.257   8.789   3.749
40393SOL    HW123076   9.162   8.776   3.752
40393SOL    HW223077   9.273   8.860   3.812
40394SOL     OW23078   9.988   3.775  14.464
40394SOL    HW123079   9.900   3.753  14.431
40394SOL    HW223080   9.972   3.807  14.553
40395SOL     OW23081  12.101   0.678  14.592
40395SOL    HW123082  12.095   0.746  14.525
40395SOL    HW223083  12.195   0.661  14.600
40396SOL     OW23084  11.193  13.631   0.562
40396SOL    HW123085  11.267  13.641   0.501
40396SOL    HW223086  11.188  13.537   0.579
40397SOL     OW23087   7.951   8.704   4.085
40397SOL    HW123088   7.986   8.749   4.008
40397SOL    HW223089   8.005   8.626   4.094
40398SOL     OW23090   7.775   6.410   0.108
40398SOL    HW123091   7.779   6.505   0.106
40398SOL    HW223092   7.681   6.390   0.117
40399SOL     OW23093   1.360   8.189   7.451
40399SOL    HW123094   1.369   8.098   7.422
40399SOL    HW223095   1.431   8.235   7.407
40400SOL     OW23096   7.438   9.011   0.186
40400SOL    HW123097   7.421   9.043   0.098
40400SOL    HW223098   7.381   9.064   0.242
40401SOL     OW23099   9.083   0.842  10.182
40401SOL    HW123100   9.022   0.805  10.246
40401SOL    HW223101   9.072   0.936  10.190
40402SOL     OW23102   3.361   5.868  11.062
40402SOL    HW123103   3.391   5.829  10.980
40402SOL    HW223104   3.371   5.962  11.049
40403SOL     OW23105  11.476   1.023  12.390
40403SOL    HW123106  11.556   1.070  12.411
40403SOL    HW223107  11.491   0.934  12.424
40404SOL     OW23108   4.012  12.367   4.603
40404SOL    HW123109   4.073  12.349   4.675
40404SOL    HW223110   3.960  12.441   4.634
40405SOL     OW23111   1.319   1.375  10.251
40405SOL    HW123112   1.362   1.365  10.336
40405SOL    HW223113   1.351   1.301  10.199
40406SOL     OW23114   9.066   6.878  12.247
40406SOL    HW123115   9.018   6.943  12.195
40406SOL    HW223116   9.153   6.917  12.260
40407SOL     OW23117   4.517  10.486   3.874
40407SOL    HW123118   4.563  10.456   3.797
40407SOL    HW223119   4.424  10.483   3.849
40408SOL     OW23120  12.241   9.302   4.366
40408SOL    HW123121  12.240   9.393   4.397
40408SOL    HW223122  12.204   9.252   4.439
40409SOL     OW23123   9.721   6.117   5.399
40409SOL    HW123124   9.657   6.078   5.459
40409SOL    HW223125   9.679   6.198   5.370
40410SOL     OW23126   9.759   2.497   9.058
40410SOL    HW123127   9.701   2.462   9.127
40410SOL    HW223128   9.702   2.552   9.005
40411SOL     OW23129   4.216   7.945  10.678
40411SOL    HW123130   4.153   7.959  10.607
40411SOL    HW223131   4.211   8.025  10.730
40412SOL     OW23132   1.358   0.019   1.184
40412SOL    HW123133   1.384   0.062   1.103
40412SOL    HW223134   1.412   0.062   1.251
40413SOL     OW23135   9.978  13.339   4.108
40413SOL    HW123136  10.026  13.413   4.145
40413SOL    HW223137   9.909  13.380   4.056
40414SOL     OW23138   1.534   6.752  12.323
40414SOL    HW123139   1.561   6.660  12.322
40414SOL    HW223140   1.508   6.767  12.414
40415SOL     OW23141   5.062  10.644   7.340
40415SOL    HW123142   5.130  10.710   7.330
40415SOL    HW223143   5.076  10.583   7.267
40416SOL     OW23144  12.586   3.534  10.113
40416SOL    HW123145  12.582   3.500  10.023
40416SOL    HW223146  12.496   3.531  10.144
40417SOL     OW23147  11.827   8.874  10.454
40417SOL    HW123148  11.746   8.826  10.470
40417SOL    HW223149  11.816   8.957  10.501
40418SOL     OW23150   2.783   1.039   4.930
40418SOL    HW123151   2.858   1.024   4.989
40418SOL    HW223152   2.790   1.132   4.906
40419SOL     OW23153   9.223   3.564   9.399
40419SOL    HW123154   9.189   3.608   9.476
40419SOL    HW223155   9.318   3.570   9.408
40420SOL     OW23156   2.490   8.311  13.399
40420SOL    HW123157   2.556   8.275  13.340
40420SOL    HW223158   2.426   8.241  13.409
40421SOL     OW23159   2.151   3.428   5.136
40421SOL    HW123160   2.186   3.443   5.048
40421SOL    HW223161   2.226   3.436   5.194
40422SOL     OW23162   5.809   3.940   7.156
40422SOL    HW123163   5.862   3.862   7.136
40422SOL    HW223164   5.719   3.913   7.136
40423SOL     OW23165   5.654  13.367   6.759
40423SOL    HW123166   5.663  13.462   6.767
40423SOL    HW223167   5.742  13.336   6.738
40424SOL     OW23168   3.652  13.171   4.592
40424SOL    HW123169   3.599  13.101   4.631
40424SOL    HW223170   3.674  13.227   4.667
40425SOL     OW23171  12.016  11.372   9.024
40425SOL    HW123172  12.106  11.341   9.025
40425SOL    HW223173  12.023  11.467   9.033
40426SOL     OW23174  14.161  10.608   4.875
40426SOL    HW123175  14.141  10.687   4.924
40426SOL    HW223176  14.153  10.634   4.783
40427SOL     OW23177  13.441   0.498   3.291
40427SOL    HW123178  13.460   0.582   3.250
40427SOL    HW223179  13.361   0.468   3.247
40428SOL     OW23180   7.319   1.928   1.696
40428SOL    HW123181   7.386   1.899   1.759
40428SOL    HW223182   7.368   1.979   1.631
40429SOL     OW23183   6.262  14.374   1.302
40429SOL    HW123184   6.225  14.439   1.362
40429SOL    HW223185   6.189  14.350   1.245
40430SOL     OW23186   1.979   1.843   6.043
40430SOL    HW123187   1.921   1.915   6.019
40430SOL    HW223188   1.959   1.826   6.135
40431SOL     OW23189  13.239   6.360  10.819
40431SOL    HW123190  13.253   6.449  10.786
40431SOL    HW223191  13.166   6.326  10.767
40432SOL     OW23192   0.154   2.384  12.641
40432SOL    HW123193   0.242   2.365  12.675
40432SOL    HW223194   0.168   2.458  12.581
40433SOL     OW23195  11.605   4.587  14.779
40433SOL    HW123196  11.632   4.608  14.690
40433SOL    HW223197  11.510   4.577  14.773
40434SOL     OW23198  14.738  12.019   9.332
40434SOL    HW123199  14.688  11.940   9.351
40434SOL    HW223200  14.733  12.070   9.413
40435SOL     OW23201   3.342  11.523   5.152
40435SOL    HW123202   3.373  11.443   5.110
40435SOL    HW223203   3.364  11.512   5.244
40436SOL     OW23204  13.728  13.095  11.813
40436SOL    HW123205  13.781  13.167  11.847
40436SOL    HW223206  13.660  13.137  11.761
40437SOL     OW23207   3.939  10.047   0.410
40437SOL    HW123208   3.899  10.131   0.429
40437SOL    HW223209   3.876  10.002   0.354
40438SOL     OW23210   7.742   1.039   8.670
40438SOL    HW123211   7.785   0.955   8.657
40438SOL    HW223212   7.771   1.093   8.597
40439SOL     OW23213   6.404  11.486   2.406
40439SOL    HW123214   6.446  11.536   2.476
40439SOL    HW223215   6.475  11.434   2.368
40440SOL     OW23216   0.619   6.448   9.247
40440SOL    HW123217   0.698   6.396   9.237
40440SOL    HW223218   0.640   6.532   9.207
40441SOL     OW23219  14.060   1.337   7.346
40441SOL    HW123220  14.070   1.390   7.267
40441SOL    HW223221  14.107   1.256   7.326
40442SOL     OW23222  10.173   3.307   1.526
40442SOL    HW123223  10.099   3.298   1.587
40442SOL    HW223224  10.175   3.401   1.505
40443SOL     OW23225   6.621   9.498  12.335
40443SOL    HW123226   6.536   9.537  12.313
40443SOL    HW223227   6.660   9.477  12.250
40444SOL     OW23228   5.787   9.168  12.987
40444SOL    HW123229   5.825   9.176  13.074
40444SOL    HW223230   5.793   9.075  12.966
40445SOL     OW23231   1.642   4.229  10.146
40445SOL    HW123232   1.586   4.155  10.121
40445SOL    HW223233   1.594   4.273  10.216
40446SOL     OW23234   6.147   7.531   6.635
40446SOL    HW123235   6.079   7.501   6.695
40446SOL    HW223236   6.204   7.585   6.690
40447SOL     OW23237   6.022  13.029   7.143
40447SOL    HW123238   5.968  12.952   7.126
40447SOL    HW223239   6.088  13.027   7.074
40448SOL     OW23240   0.319   7.548  12.268
40448SOL    HW123241   0.350   7.626  12.314
40448SOL    HW223242   0.367   7.549  12.185
40449SOL     OW23243   3.286  10.468  10.368
40449SOL    HW123244   3.293  10.481  10.273
40449SOL    HW223245   3.191  10.466  10.385
40450SOL     OW23246   7.341  14.269   7.444
40450SOL    HW123247   7.424  14.301   7.480
40450SOL    HW223248   7.353  14.271   7.349
40451SOL     OW23249  12.893  11.801  13.891
40451SOL    HW123250  12.942  11.856  13.831
40451SOL    HW223251  12.807  11.792  13.850
40452SOL     OW23252   0.840   0.477   3.846
40452SOL    HW123253   0.772   0.424   3.887
40452SOL    HW223254   0.800   0.564   3.837
40453SOL     OW23255   6.223   8.023   1.785
40453SOL    HW123256   6.142   7.973   1.774
40453SOL    HW223257   6.204   8.085   1.856
40454SOL     OW23258   0.515   4.784  11.611
40454SOL    HW123259   0.547   4.743  11.530
40454SOL    HW223260   0.437   4.833  11.584
40455SOL     OW23261   8.666  11.857  13.452
40455SOL    HW123262   8.749  11.904  13.443
40455SOL    HW223263   8.605  11.923  13.485
40456SOL     OW23264   8.054   4.259   0.976
40456SOL    HW123265   8.101   4.204   1.038
40456SOL    HW223266   8.097   4.242   0.892
40457SOL     OW23267  11.142   2.151   6.719
40457SOL    HW123268  11.090   2.197   6.654
40457SOL    HW223269  11.233   2.175   6.700
40458SOL     OW23270  12.280   7.303  11.679
40458SOL    HW123271  12.191   7.310  11.644
40458SOL    HW223272  12.287   7.213  11.710
40459SOL     OW23273  11.184   1.452   9.904
40459SOL    HW123274  11.159   1.364   9.875
40459SOL    HW223275  11.222   1.439   9.990
40460SOL     OW23276  13.743   1.474  14.168
40460SOL    HW123277  13.753   1.496  14.261
40460SOL    HW223278  13.655   1.503  14.146
40461SOL     OW23279   2.617   2.490   1.217
40461SOL    HW123280   2.577   2.516   1.300
40461SOL    HW223281   2.575   2.545   1.151
40462SOL     OW23282   6.396   6.847  10.467
40462SOL    HW123283   6.310   6.844  10.427
40462SOL    HW223284   6.379   6.871  10.558
40463SOL     OW23285   7.064  10.359   2.000
40463SOL    HW123286   7.029  10.270   1.987
40463SOL    HW223287   7.011  10.395   2.071
40464SOL     OW23288   8.695  11.113   4.536
40464SOL    HW123289   8.783  11.112   4.572
40464SOL    HW223290   8.696  11.180   4.468
40465SOL     OW23291   0.565  13.071   5.657
40465SOL    HW123292   0.532  13.160   5.663
40465SOL    HW223293   0.637  13.067   5.721
40466SOL     OW23294   1.609   0.363   8.370
40466SOL    HW123295   1.681   0.392   8.426
40466SOL    HW223296   1.586   0.276   8.402
40467SOL     OW23297  13.688   0.500   7.618
40467SOL    HW123298  13.687   0.537   7.529
40467SOL    HW223299  13.596   0.500   7.645
40468SOL     OW23300  11.785   8.858  14.438
40468SOL    HW123301  11.700   8.815  14.445
40468SOL    HW223302  11.784   8.901  14.353
40469SOL     OW23303  13.777   7.619   8.673
40469SOL    HW123304  13.827   7.593   8.595
40469SOL    HW223305  13.686   7.624   8.643
40470SOL     OW23306  14.588  13.441  13.822
40470SOL    HW123307  14.589  13.516  13.881
40470SOL    HW223308  14.679  13.411  13.819
40471SOL     OW23309   1.482   6.499   4.888
40471SOL    HW123310   1.527   6.424   4.927
40471SOL    HW223311   1.414   6.522   4.951
40472SOL     OW23312   8.711  12.333  13.555
40472SOL    HW123313   8.704  12.414  13.605
40472SOL    HW223314   8.737  12.267  13.619
40473SOL     OW23315   1.834   4.014  13.131
40473SOL    HW123316   1.838   3.919  13.120
40473SOL    HW223317   1.786   4.045  13.054
40474SOL     OW23318   4.631   4.260   6.279
40474SOL    HW123319   4.703   4.319   6.302
40474SOL    HW223320   4.673   4.181   6.247
40475SOL     OW23321   1.959   6.852   7.726
40475SOL    HW123322   2.044   6.846   7.682
40475SOL    HW223323   1.977   6.899   7.807
40476SOL     OW23324   9.275   7.030  12.266
40476SOL    HW123325   9.356   6.985  12.291
40476SOL    HW223326   9.278   7.113  12.313
40477SOL     OW23327  14.848   0.119   8.472
40477SOL    HW123328   0.016   0.103   8.552
40477SOL    HW223329   0.032   0.119   8.402
40478SOL     OW23330   1.726  11.315   4.388
40478SOL    HW123331   1.792  11.343   4.452
40478SOL    HW223332   1.660  11.384   4.388
40479SOL     OW23333  13.559   6.884   7.333
40479SOL    HW123334  13.567   6.977   7.356
40479SOL    HW223335  13.490   6.851   7.391
40480SOL     OW23336   3.432   7.872  11.031
40480SOL    HW123337   3.365   7.844  10.968
40480SOL    HW223338   3.514   7.844  10.991
40481SOL     OW23339   1.281  14.119   2.156
40481SOL    HW123340   1.232  14.195   2.188
40481SOL    HW223341   1.330  14.089   2.232
40482SOL     OW23342  14.818  12.630   2.361
40482SOL    HW123343  14.729  12.597   2.374
40482SOL    HW223344  14.855  12.631   2.449
40483SOL     OW23345   6.826   7.641  10.811
40483SOL    HW123346   6.836   7.705  10.881
40483SOL    HW223347   6.754   7.676  10.758
40484SOL     OW23348   1.841   5.094  12.567
40484SOL    HW123349   1.761   5.091  12.515
40484SOL    HW223350   1.827   5.030  12.637
40485SOL     OW23351   6.465   5.467   1.904
40485SOL    HW123352   6.400   5.511   1.849
40485SOL    HW223353   6.541   5.456   1.848
40486SOL     OW23354  14.610   2.746   1.861
40486SOL    HW123355  14.585   2.796   1.783
40486SOL    HW223356  14.668   2.805   1.910
40487SOL     OW23357   1.138   5.686  12.236
40487SOL    HW123358   1.107   5.775  12.252
40487SOL    HW223359   1.215   5.697  12.181
40488SOL     OW23360   8.899  13.229   3.988
40488SOL    HW123361   8.811  13.194   3.971
40488SOL    HW223362   8.957  13.154   3.976
40489SOL     OW23363   1.626   4.755   5.988
40489SOL    HW123364   1.605   4.785   6.077
40489SOL    HW223365   1.649   4.663   5.998
40490SOL     OW23366   5.310   7.056  11.510
40490SOL    HW123367   5.286   7.048  11.418
40490SOL    HW223368   5.228   7.075  11.555
40491SOL     OW23369   0.740   9.964   9.397
40491SOL    HW123370   0.779   9.884   9.362
40491SOL    HW223371   0.668   9.983   9.337
40492SOL     OW23372   1.714   8.083   2.256
40492SOL    HW123373   1.672   8.002   2.225
40492SOL    HW223374   1.647   8.150   2.242
40493SOL     OW23375   5.289   9.449  11.444
40493SOL    HW123376   5.275   9.411  11.531
40493SOL    HW223377   5.241   9.532  11.445
40494SOL     OW23378   8.083   9.067   4.435
40494SOL    HW123379   8.154   9.037   4.379
40494SOL    HW223380   8.075   9.160   4.416
40495SOL     OW23381  12.780   3.768   6.565
40495SOL    HW123382  12.771   3.748   6.658
40495SOL    HW223383  12.729   3.700   6.521
40496SOL     OW23384  10.084   4.353  13.992
40496SOL    HW123385  10.128   4.287  14.045
40496SOL    HW223386  10.127   4.349  13.907
40497SOL     OW23387  13.058   9.285  13.871
40497SOL    HW123388  13.006   9.340  13.812
40497SOL    HW223389  13.011   9.289  13.954
40498SOL     OW23390   5.561   2.418   1.164
40498SOL    HW123391   5.581   2.490   1.103
40498SOL    HW223392   5.624   2.350   1.141
40499SOL     OW23393   1.667   8.776   4.803
40499SOL    HW123394   1.715   8.851   4.839
40499SOL    HW223395   1.702   8.766   4.714
40500SOL     OW23396   7.804   5.856   1.567
40500SOL    HW123397   7.853   5.880   1.488
40500SOL    HW223398   7.856   5.787   1.608
40501SOL     OW23399   9.262   0.673  13.312
40501SOL    HW123400   9.237   0.760  13.340
40501SOL    HW223401   9.273   0.623  13.393
40502SOL     OW23402   4.563   8.533   9.797
40502SOL    HW123403   4.560   8.439   9.779
40502SOL    HW223404   4.532   8.574   9.716
40503SOL     OW23405   6.825  13.702  12.483
40503SOL    HW123406   6.832  13.707  12.578
40503SOL    HW223407   6.869  13.619  12.460
40504SOL     OW23408   7.808   9.455   6.015
40504SOL    HW123409   7.744   9.525   6.020
40504SOL    HW223410   7.763   9.386   5.966
40505SOL     OW23411   9.517   3.187   4.768
40505SOL    HW123412   9.541   3.139   4.688
40505SOL    HW223413   9.478   3.121   4.825
40506SOL     OW23414  12.798  13.132   6.049
40506SOL    HW123415  12.881  13.141   6.097
40506SOL    HW223416  12.822  13.144   5.957
40507SOL     OW23417   1.223  11.505  10.580
40507SOL    HW123418   1.240  11.538  10.492
40507SOL    HW223419   1.308  11.505  10.623
40508SOL     OW23420  13.277   4.406  11.323
40508SOL    HW123421  13.313   4.494  11.309
40508SOL    HW223422  13.244   4.380  11.237
40509SOL     OW23423   3.904  12.010   1.604
40509SOL    HW123424   3.931  11.993   1.694
40509SOL    HW223425   3.906  11.925   1.561
40510SOL     OW23426  14.795  14.001   1.952
40510SOL    HW123427  14.703  14.007   1.930
40510SOL    HW223428  14.841  14.009   1.868
40511SOL     OW23429   6.104   8.452   9.159
40511SOL    HW123430   6.190   8.489   9.140
40511SOL    HW223431   6.081   8.488   9.244
40512SOL     OW23432  12.859   1.310   2.401
40512SOL    HW123433  12.827   1.352   2.321
40512SOL    HW223434  12.952   1.297   2.386
40513SOL     OW23435   0.038  13.772  13.348
40513SOL    HW123436  14.829  13.783  13.319
40513SOL    HW223437   0.070  13.697  13.298
40514SOL     OW23438  13.856   9.428   0.714
40514SOL    HW123439  13.770   9.392   0.734
40514SOL    HW223440  13.917   9.356   0.727
40515SOL     OW23441   0.341   9.550   6.088
40515SOL    HW123442   0.410   9.485   6.091
40515SOL    HW223443   0.261   9.502   6.110
40516SOL     OW23444  14.070   8.517   1.524
40516SOL    HW123445  13.981   8.552   1.520
40516SOL    HW223446  14.085   8.501   1.617
40517SOL     OW23447   9.823  10.208  11.962
40517SOL    HW123448   9.735  10.196  11.997
40517SOL    HW223449   9.840  10.302  11.971
40518SOL     OW23450  11.263   2.952   1.830
40518SOL    HW123451  11.202   2.922   1.763
40518SOL    HW223452  11.212   3.014   1.883
40519SOL     OW23453  10.882   1.830   9.473
40519SOL    HW123454  10.800   1.864   9.436
40519SOL    HW223455  10.914   1.769   9.408
40520SOL     OW23456   6.376  12.915   7.915
40520SOL    HW123457   6.391  12.893   7.823
40520SOL    HW223458   6.412  13.002   7.925
40521SOL     OW23459   5.561   2.113   2.977
40521SOL    HW123460   5.509   2.055   2.921
40521SOL    HW223461   5.611   2.166   2.915
40522SOL     OW23462   1.603   0.302  12.674
40522SOL    HW123463   1.524   0.306  12.620
40522SOL    HW223464   1.570   0.294  12.764
40523SOL     OW23465   1.484   5.064  10.365
40523SOL    HW123466   1.420   5.110  10.419
40523SOL    HW223467   1.569   5.089  10.402
40524SOL     OW23468   8.696   9.322  13.387
40524SOL    HW123469   8.756   9.345  13.458
40524SOL    HW223470   8.749   9.267  13.329
40525SOL     OW23471   2.964   9.660   6.669
40525SOL    HW123472   2.939   9.734   6.613
40525SOL    HW223473   3.040   9.691   6.717
40526SOL     OW23474   2.125   4.799   0.099
40526SOL    HW123475   2.045   4.823   0.052
40526SOL    HW223476   2.153   4.880   0.141
40527SOL     OW23477   3.211  10.769   8.184
40527SOL    HW123478   3.180  10.804   8.100
40527SOL    HW223479   3.131  10.763   8.237
40528SOL     OW23480  10.864  14.495   7.117
40528SOL    HW123481  10.869  14.548   7.197
40528SOL    HW223482  10.771  14.485   7.100
40529SOL     OW23483  14.774  14.463   5.825
40529SOL    HW123484  14.805  14.506   5.905
40529SOL    HW223485  14.763  14.534   5.763
40530SOL     OW23486   5.630   9.041   0.422
40530SOL    HW123487   5.570   9.056   0.349
40530SOL    HW223488   5.594   9.093   0.493
40531SOL     OW23489  13.677   3.661  12.700
40531SOL    HW123490  13.723   3.580  12.720
40531SOL    HW223491  13.630   3.642  12.619
40532SOL     OW23492   2.331   2.622   3.536
40532SOL    HW123493   2.306   2.617   3.443
40532SOL    HW223494   2.405   2.682   3.538
40533SOL     OW23495   0.566   9.779  11.605
40533SOL    HW123496   0.486   9.823  11.632
40533SOL    HW223497   0.537   9.715  11.540
40534SOL     OW23498  12.365  14.228  13.743
40534SOL    HW123499  12.332  14.219  13.654
40534SOL    HW223500  12.460  14.230  13.733
40535SOL     OW23501   1.054  10.440   3.118
40535SOL    HW123502   0.967  10.405   3.139
40535SOL    HW223503   1.106  10.362   3.098
40536SOL     OW23504   5.382   8.961   0.584
40536SOL    HW123505   5.406   9.034   0.527
40536SOL    HW223506   5.288   8.974   0.599
40537SOL     OW23507   0.859   3.400  12.084
40537SOL    HW123508   0.925   3.467  12.069
40537SOL    HW223509   0.776   3.442  12.061
40538SOL     OW23510  14.802   9.790   4.983
40538SOL    HW123511  14.792   9.712   5.038
40538SOL    HW223512  14.722   9.793   4.931
40539SOL     OW23513   9.948   8.259  14.158
40539SOL    HW123514   9.886   8.194  14.191
40539SOL    HW223515  10.003   8.210  14.097
40540SOL     OW23516   3.729   9.093   1.949
40540SOL    HW123517   3.668   9.029   1.984
40540SOL    HW223518   3.756   9.057   1.865
40541SOL     OW23519  11.217   1.071  10.342
40541SOL    HW123520  11.223   1.100  10.251
40541SOL    HW223521  11.304   1.033  10.360
40542SOL     OW23522   7.943   0.380   1.009
40542SOL    HW123523   7.963   0.430   0.930
40542SOL    HW223524   7.862   0.335   0.989
40543SOL     OW23525   0.308  12.243   7.034
40543SOL    HW123526   0.230  12.217   6.985
40543SOL    HW223527   0.274  12.273   7.119
40544SOL     OW23528  11.117  11.323   0.047
40544SOL    HW123529  11.048  11.383   0.021
40544SOL    HW223530  11.077  11.236   0.041
40545SOL     OW23531   8.916   8.878  14.544
40545SOL    HW123532   8.961   8.950  14.499
40545SOL    HW223533   8.940   8.800  14.494
40546SOL     OW23534  12.492   1.505   3.153
40546SOL    HW123535  12.535   1.568   3.096
40546SOL    HW223536  12.562   1.450   3.187
40547SOL     OW23537   5.078  10.793   5.215
40547SOL    HW123538   5.099  10.739   5.139
40547SOL    HW223539   4.990  10.827   5.197
40548SOL     OW23540   9.999   0.642   4.122
40548SOL    HW123541  10.027   0.731   4.145
40548SOL    HW223542  10.064   0.612   4.059
40549SOL     OW23543   3.753  14.677  14.566
40549SOL    HW123544   3.735  14.706  14.476
40549SOL    HW223545   3.731  14.584  14.566
40550SOL     OW23546   1.649   1.941   7.528
40550SOL    HW123547   1.717   1.928   7.594
40550SOL    HW223548   1.577   1.982   7.575
40551SOL     OW23549   9.229   4.122  14.182
40551SOL    HW123550   9.148   4.090  14.223
40551SOL    HW223551   9.202   4.147  14.094
40552SOL     OW23552   1.105  12.604   4.757
40552SOL    HW123553   1.157  12.615   4.837
40552SOL    HW223554   1.108  12.510   4.740
40553SOL     OW23555   3.286  14.869  11.679
40553SOL    HW123556   3.312   0.019  11.592
40553SOL    HW223557   3.238   0.061  11.717
40554SOL     OW23558   5.448   2.435   7.648
40554SOL    HW123559   5.479   2.369   7.710
40554SOL    HW223560   5.527   2.471   7.609
40555SOL     OW23561  10.177   3.525  11.826
40555SOL    HW123562  10.176   3.474  11.745
40555SOL    HW223563  10.095   3.574  11.825
40556SOL     OW23564  13.595   9.271  11.610
40556SOL    HW123565  13.672   9.247  11.559
40556SOL    HW223566  13.616   9.358  11.644
40557SOL     OW23567   6.575   0.449   1.966
40557SOL    HW123568   6.640   0.379   1.960
40557SOL    HW223569   6.547   0.464   1.876
40558SOL     OW23570  10.966   6.629   2.794
40558SOL    HW123571  10.949   6.679   2.874
40558SOL    HW223572  11.058   6.646   2.774
40559SOL     OW23573   2.829  10.158   3.983
40559SOL    HW123574   2.837  10.078   4.036
40559SOL    HW223575   2.883  10.223   4.029
40560SOL     OW23576   0.602  10.148  10.262
40560SOL    HW123577   0.691  10.113  10.264
40560SOL    HW223578   0.572  10.144  10.353
40561SOL     OW23579   5.448  10.250   8.513
40561SOL    HW123580   5.526  10.196   8.527
40561SOL    HW223581   5.381  10.188   8.484
40562SOL     OW23582   0.788   9.763   3.338
40562SOL    HW123583   0.824   9.804   3.417
40562SOL    HW223584   0.770   9.673   3.365
40563SOL     OW23585  14.746  10.876   9.721
40563SOL    HW123586  14.789  10.946   9.673
40563SOL    HW223587  14.712  10.917   9.800
40564SOL     OW23588   4.239   3.780   0.861
40564SOL    HW123589   4.289   3.853   0.898
40564SOL    HW223590   4.155   3.782   0.908
40565SOL     OW23591   7.234  10.598   5.258
40565SOL    HW123592   7.234  10.511   5.297
40565SOL    HW223593   7.326  10.625   5.260
40566SOL     OW23594   7.575   6.982   0.180
40566SOL    HW123595   7.591   7.026   0.097
40566SOL    HW223596   7.493   7.019   0.212
40567SOL     OW23597   1.530   3.825   2.359
40567SOL    HW123598   1.546   3.736   2.389
40567SOL    HW223599   1.558   3.826   2.268
40568SOL     OW23600   5.982  14.739  13.488
40568SOL    HW123601   6.053  14.788  13.448
40568SOL    HW223602   5.907  14.754  13.430
40569SOL     OW23603   3.092   5.682  13.235
40569SOL    HW123604   3.007   5.725  13.222
40569SOL    HW223605   3.077   5.621  13.307
40570SOL     OW23606   3.277  10.115   7.910
40570SOL    HW123607   3.335  10.051   7.869
40570SOL    HW223608   3.193  10.070   7.919
40571SOL     OW23609  13.161  13.525   8.797
40571SOL    HW123610  13.123  13.453   8.745
40571SOL    HW223611  13.223  13.481   8.856
40572SOL     OW23612  12.974   9.224   2.239
40572SOL    HW123613  13.033   9.238   2.165
40572SOL    HW223614  13.017   9.266   2.313
40573SOL     OW23615   4.436   0.577  11.013
40573SOL    HW123616   4.459   0.496  11.060
40573SOL    HW223617   4.475   0.566  10.926
40574SOL     OW23618   5.327   4.665  13.784
40574SOL    HW123619   5.385   4.726  13.830
40574SOL    HW223620   5.377   4.584  13.779
40575SOL     OW23621   7.698  12.665  12.922
40575SOL    HW123622   7.748  12.608  12.980
40575SOL    HW223623   7.623  12.694  12.975
40576SOL     OW23624   4.376   9.353   0.362
40576SOL    HW123625   4.382   9.383   0.271
40576SOL    HW223626   4.463   9.318   0.382
40577SOL     OW23627  13.947   3.718   8.558
40577SOL    HW123628  13.903   3.760   8.632
40577SOL    HW223629  14.037   3.706   8.589
40578SOL     OW23630   8.097   9.299   0.120
40578SOL    HW123631   8.181   9.264   0.150
40578SOL    HW223632   8.051   9.222   0.087
40579SOL     OW23633   8.530   0.519   0.030
40579SOL    HW123634   8.507   0.444  14.858
40579SOL    HW223635   8.478   0.591  14.877
40580SOL     OW23636  12.941   2.135   4.533
40580SOL    HW123637  12.888   2.077   4.478
40580SOL    HW223638  13.031   2.112   4.513
40581SOL     OW23639   7.921  12.366   7.855
40581SOL    HW123640   7.835  12.387   7.890
40581SOL    HW223641   7.958  12.450   7.828
40582SOL     OW23642  14.049  14.378  13.444
40582SOL    HW123643  14.142  14.397  13.457
40582SOL    HW223644  14.048  14.289  13.411
40583SOL     OW23645   3.860   2.240  14.074
40583SOL    HW123646   3.787   2.265  14.016
40583SOL    HW223647   3.912   2.179  14.021
40584SOL     OW23648  10.526  10.270   7.343
40584SOL    HW123649  10.586  10.219   7.289
40584SOL    HW223650  10.512  10.351   7.294
40585SOL     OW23651   8.578   5.730   5.911
40585SOL    HW123652   8.609   5.678   5.985
40585SOL    HW223653   8.510   5.787   5.948
40586SOL     OW23654   9.684  12.544  12.645
40586SOL    HW123655   9.756  12.597  12.611
40586SOL    HW223656   9.717  12.454  12.645
40587SOL     OW23657   3.488   3.019   9.406
40587SOL    HW123658   3.575   2.981   9.421
40587SOL    HW223659   3.470   3.070   9.484
40588SOL     OW23660   4.967  10.599  14.403
40588SOL    HW123661   4.988  10.578  14.312
40588SOL    HW223662   5.043  10.648  14.435
40589SOL     OW23663   6.562  14.724   1.887
40589SOL    HW123664   6.646  14.679   1.882
40589SOL    HW223665   6.574  14.791   1.954
40590SOL     OW23666   4.660   5.485  12.135
40590SOL    HW123667   4.733   5.495  12.074
40590SOL    HW223668   4.598   5.553  12.109
40591SOL     OW23669   3.411   3.481  10.063
40591SOL    HW123670   3.355   3.535  10.119
40591SOL    HW223671   3.483   3.539  10.038
40592SOL     OW23672   5.059   1.817   6.646
40592SOL    HW123673   5.078   1.853   6.559
40592SOL    HW223674   4.968   1.789   6.641
40593SOL     OW23675  12.865   6.647   5.979
40593SOL    HW123676  12.808   6.663   5.903
40593SOL    HW223677  12.935   6.590   5.945
40594SOL     OW23678  11.115  14.186   1.076
40594SOL    HW123679  11.112  14.102   1.031
40594SOL    HW223680  11.198  14.226   1.049
40595SOL     OW23681   5.802   0.179   5.877
40595SOL    HW123682   5.862   0.183   5.951
40595SOL    HW223683   5.856   0.148   5.804
40596SOL     OW23684   9.666   2.666   8.054
40596SOL    HW123685   9.608   2.639   8.125
40596SOL    HW223686   9.614   2.654   7.975
40597SOL     OW23687  10.151   7.117   6.022
40597SOL    HW123688  10.198   7.201   6.016
40597SOL    HW223689  10.219   7.051   6.006
40598SOL     OW23690   7.595  13.952  11.979
40598SOL    HW123691   7.525  13.940  12.043
40598SOL    HW223692   7.624  13.864  11.958
40599SOL     OW23693   9.285   2.720   1.671
40599SOL    HW123694   9.315   2.720   1.580
40599SOL    HW223695   9.204   2.769   1.670
40600SOL     OW23696  12.643   6.955   6.650
40600SOL    HW123697  12.627   6.971   6.557
40600SOL    HW223698  12.690   6.871   6.652
40601SOL     OW23699  11.310   2.692   9.028
40601SOL    HW123700  11.232   2.637   9.040
40601SOL    HW223701  11.377   2.632   8.994
40602SOL     OW23702  12.850   3.909   4.768
40602SOL    HW123703  12.787   3.926   4.837
40602SOL    HW223704  12.833   3.977   4.703
40603SOL     OW23705   7.903  12.653   3.211
40603SOL    HW123706   7.856  12.607   3.281
40603SOL    HW223707   7.942  12.729   3.254
40604SOL     OW23708   4.799  11.710  11.745
40604SOL    HW123709   4.761  11.699  11.658
40604SOL    HW223710   4.739  11.664  11.803
40605SOL     OW23711  14.332  10.861  11.423
40605SOL    HW123712  14.386  10.814  11.360
40605SOL    HW223713  14.304  10.794  11.485
40606SOL     OW23714   4.702   4.989  14.658
40606SOL    HW123715   4.706   5.071  14.609
40606SOL    HW223716   4.726   5.013  14.747
40607SOL     OW23717   0.678   1.159  10.934
40607SOL    HW123718   0.690   1.188  11.024
40607SOL    HW223719   0.744   1.206  10.883
40608SOL     OW23720  14.339   8.423   0.273
40608SOL    HW123721  14.423   8.383   0.296
40608SOL    HW223722  14.337   8.421   0.177
40609SOL     OW23723  14.680  10.806   0.133
40609SOL    HW123724  14.600  10.797   0.082
40609SOL    HW223725  14.715  10.717   0.140
40610SOL     OW23726   4.332   8.383  11.237
40610SOL    HW123727   4.263   8.342  11.290
40610SOL    HW223728   4.368   8.311  11.185
40611SOL     OW23729   0.675   9.043   0.229
40611SOL    HW123730   0.597   9.080   0.270
40611SOL    HW223731   0.667   8.949   0.242
40612SOL     OW23732   4.986  14.862  10.747
40612SOL    HW123733   4.892  14.841  10.749
40612SOL    HW223734   5.025  14.793  10.694
40613SOL     OW23735  11.795   8.667   1.229
40613SOL    HW123736  11.768   8.602   1.295
40613SOL    HW223737  11.768   8.629   1.146
40614SOL     OW23738   2.254   6.300  14.862
40614SOL    HW123739   2.228   6.391  14.877
40614SOL    HW223740   2.336   6.289   0.028
40615SOL     OW23741   5.948   8.790   0.217
40615SOL    HW123742   5.859   8.804   0.186
40615SOL    HW223743   5.945   8.808   0.311
40616SOL     OW23744  10.598   1.685  11.802
40616SOL    HW123745  10.620   1.677  11.895
40616SOL    HW223746  10.503   1.687  11.799
40617SOL     OW23747   3.194   7.376   6.036
40617SOL    HW123748   3.114   7.417   6.069
40617SOL    HW223749   3.263   7.439   6.056
40618SOL     OW23750   2.343   9.554   7.496
40618SOL    HW123751   2.325   9.606   7.575
40618SOL    HW223752   2.305   9.605   7.425
40619SOL     OW23753   6.929  13.475   2.853
40619SOL    HW123754   6.871  13.552   2.858
40619SOL    HW223755   7.009  13.508   2.813
40620SOL     OW23756   5.988   5.983  13.752
40620SOL    HW123757   5.995   5.980  13.657
40620SOL    HW223758   6.076   5.966  13.784
40621SOL     OW23759   8.782  14.784  11.448
40621SOL    HW123760   8.835  14.863  11.453
40621SOL    HW223761   8.710  14.799  11.509
40622SOL     OW23762   3.672  14.685   2.618
40622SOL    HW123763   3.718  14.687   2.534
40622SOL    HW223764   3.600  14.623   2.605
40623SOL     OW23765   3.040  10.434  12.437
40623SOL    HW123766   3.057  10.525  12.460
40623SOL    HW223767   3.099  10.415  12.364
40624SOL     OW23768   0.232   7.813   3.423
40624SOL    HW123769   0.168   7.743   3.434
40624SOL    HW223770   0.269   7.799   3.336
40625SOL     OW23771   6.740   1.255   1.626
40625SOL    HW123772   6.689   1.322   1.670
40625SOL    HW223773   6.808   1.230   1.689
40626SOL     OW23774   8.791   2.581   8.655
40626SOL    HW123775   8.801   2.667   8.614
40626SOL    HW223776   8.705   2.584   8.698
40627SOL     OW23777  11.083  12.778  12.960
40627SOL    HW123778  11.032  12.698  12.948
40627SOL    HW223779  11.017  12.847  12.970
40628SOL     OW23780   6.878   5.584  10.696
40628SOL    HW123781   6.800   5.632  10.668
40628SOL    HW223782   6.951   5.636  10.663
40629SOL     OW23783  10.683  12.940   2.712
40629SOL    HW123784  10.764  12.902   2.678
40629SOL    HW223785  10.669  12.896   2.795
40630SOL     OW23786   4.746  11.009  13.847
40630SOL    HW123787   4.725  11.102  13.840
40630SOL    HW223788   4.813  11.004  13.915
40631SOL     OW23789   8.409   3.183   6.805
40631SOL    HW123790   8.392   3.089   6.816
40631SOL    HW223791   8.441   3.211   6.891
40632SOL     OW23792   2.648   8.916  13.304
40632SOL    HW123793   2.575   8.917  13.241
40632SOL    HW223794   2.607   8.934  13.388
40633SOL     OW23795   0.193   2.567   9.979
40633SOL    HW123796   0.275   2.526   9.953
40633SOL    HW223797   0.163   2.515  10.054
40634SOL     OW23798   3.960  13.308   2.647
40634SOL    HW123799   3.992  13.230   2.603
40634SOL    HW223800   3.946  13.281   2.738
40635SOL     OW23801   0.333  12.637   5.292
40635SOL    HW123802   0.239  12.623   5.283
40635SOL    HW223803   0.350  12.717   5.242
40636SOL     OW23804   9.001   4.151   7.294
40636SOL    HW123805   8.950   4.205   7.233
40636SOL    HW223806   8.941   4.132   7.366
40637SOL     OW23807  11.680   4.311   8.935
40637SOL    HW123808  11.646   4.397   8.960
40637SOL    HW223809  11.774   4.325   8.924
40638SOL     OW23810   2.971   8.773  11.866
40638SOL    HW123811   2.959   8.752  11.959
40638SOL    HW223812   3.052   8.824  11.863
40639SOL     OW23813  11.777   9.542   5.936
40639SOL    HW123814  11.747   9.455   5.963
40639SOL    HW223815  11.732   9.602   5.996
40640SOL     OW23816   3.346   5.874   5.653
40640SOL    HW123817   3.281   5.827   5.705
40640SOL    HW223818   3.308   5.879   5.566
40641SOL     OW23819   5.609   4.033   3.398
40641SOL    HW123820   5.544   4.102   3.410
40641SOL    HW223821   5.571   3.957   3.440
40642SOL     OW23822   6.318  10.089   1.025
40642SOL    HW123823   6.280  10.035   0.956
40642SOL    HW223824   6.248  10.150   1.048
40643SOL     OW23825   3.891   3.229   3.443
40643SOL    HW123826   3.925   3.159   3.500
40643SOL    HW223827   3.838   3.284   3.502
40644SOL     OW23828   6.389   3.782   9.665
40644SOL    HW123829   6.361   3.780   9.757
40644SOL    HW223830   6.380   3.874   9.640
40645SOL     OW23831   1.228   5.419  12.255
40645SOL    HW123832   1.217   5.387  12.345
40645SOL    HW223833   1.179   5.500  12.252
40646SOL     OW23834   6.866   1.892   1.693
40646SOL    HW123835   6.880   1.916   1.785
40646SOL    HW223836   6.811   1.963   1.659
40647SOL     OW23837   0.228  11.118   9.300
40647SOL    HW123838   0.151  11.074   9.336
40647SOL    HW223839   0.299  11.054   9.309
40648SOL     OW23840   7.853   3.055   5.442
40648SOL    HW123841   7.841   3.138   5.490
40648SOL    HW223842   7.841   2.987   5.509
40649SOL     OW23843   9.781   3.782   5.341
40649SOL    HW123844   9.856   3.725   5.326
40649SOL    HW223845   9.738   3.789   5.256
40650SOL     OW23846   1.381  13.030  11.444
40650SOL    HW123847   1.314  12.997  11.504
40650SOL    HW223848   1.358  12.993  11.359
40651SOL     OW23849   7.817   2.407   1.248
40651SOL    HW123850   7.752   2.462   1.292
40651SOL    HW223851   7.883   2.468   1.216
40652SOL     OW23852   8.941   9.178  14.325
40652SOL    HW123853   8.914   9.245  14.388
40652SOL    HW223854   9.014   9.133  14.368
40653SOL     OW23855   2.544  10.533   1.802
40653SOL    HW123856   2.509  10.599   1.862
40653SOL    HW223857   2.569  10.460   1.858
40654SOL     OW23858   5.692  12.258   5.352
40654SOL    HW123859   5.617  12.304   5.313
40654SOL    HW223860   5.654  12.209   5.425
40655SOL     OW23861   4.511   0.007  13.255
40655SOL    HW123862   4.547   0.082  13.208
40655SOL    HW223863   4.573  14.874  13.326
40656SOL     OW23864  14.038   0.440  11.293
40656SOL    HW123865  14.066   0.422  11.382
40656SOL    HW223866  14.114   0.480  11.251
40657SOL     OW23867   8.023  12.380   1.675
40657SOL    HW123868   7.978  12.344   1.598
40657SOL    HW223869   8.096  12.430   1.640
40658SOL     OW23870  11.012  14.766   9.115
40658SOL    HW123871  10.943  14.802   9.058
40658SOL    HW223872  11.078  14.835   9.119
40659SOL     OW23873  14.187  10.005  12.669
40659SOL    HW123874  14.272   9.979  12.635
40659SOL    HW223875  14.157   9.930  12.720
40660SOL     OW23876   6.084   9.707   5.466
40660SOL    HW123877   6.116   9.788   5.426
40660SOL    HW223878   5.996   9.729   5.497
40661SOL     OW23879   3.168   9.141  11.658
40661SOL    HW123880   3.199   9.066  11.708
40661SOL    HW223881   3.191   9.217  11.712
40662SOL     OW23882   4.582   2.095  10.941
40662SOL    HW123883   4.506   2.062  10.988
40662SOL    HW223884   4.567   2.067  10.850
40663SOL     OW23885   5.932   4.840   5.316
40663SOL    HW123886   5.930   4.787   5.395
40663SOL    HW223887   5.951   4.779   5.245
40664SOL     OW23888  11.971   0.751  12.559
40664SOL    HW123889  11.922   0.775  12.480
40664SOL    HW223890  11.928   0.800  12.629
40665SOL     OW23891   7.944  10.810  14.619
40665SOL    HW123892   7.918  10.871  14.688
40665SOL    HW223893   7.879  10.740  14.624
40666SOL     OW23894  13.689   5.902  12.301
40666SOL    HW123895  13.647   5.838  12.360
40666SOL    HW223896  13.716   5.850  12.225
40667SOL     OW23897   5.379   9.143   4.748
40667SOL    HW123898   5.386   9.135   4.843
40667SOL    HW223899   5.400   9.055   4.715
40668SOL     OW23900   0.637   3.532   3.587
40668SOL    HW123901   0.622   3.482   3.668
40668SOL    HW223902   0.558   3.586   3.578
40669SOL     OW23903   7.080   6.399   8.785
40669SOL    HW123904   7.007   6.340   8.802
40669SOL    HW223905   7.074   6.466   8.853
40670SOL     OW23906   4.118  11.992  11.873
40670SOL    HW123907   4.040  11.980  11.926
40670SOL    HW223908   4.089  11.979  11.783
40671SOL     OW23909  12.684  14.219  13.095
40671SOL    HW123910  12.715  14.268  13.171
40671SOL    HW223911  12.672  14.285  13.027
40672SOL     OW23912  12.280   3.043  14.438
40672SOL    HW123913  12.286   3.106  14.366
40672SOL    HW223914  12.226   2.972  14.404
40673SOL     OW23915   3.013   6.374  14.104
40673SOL    HW123916   3.067   6.399  14.029
40673SOL    HW223917   3.076   6.355  14.174
40674SOL     OW23918   2.395  12.143   7.459
40674SOL    HW123919   2.380  12.075   7.524
40674SOL    HW223920   2.449  12.102   7.392
40675SOL     OW23921   1.846  12.293   0.677
40675SOL    HW123922   1.850  12.219   0.616
40675SOL    HW223923   1.753  12.312   0.685
40676SOL     OW23924  12.878   9.740   1.094
40676SOL    HW123925  12.822   9.687   1.036
40676SOL    HW223926  12.845   9.829   1.085
40677SOL     OW23927   5.084  11.591   5.330
40677SOL    HW123928   5.067  11.515   5.274
40677SOL    HW223929   5.178  11.606   5.321
40678SOL     OW23930   1.061  10.402  10.602
40678SOL    HW123931   1.114  10.468  10.557
40678SOL    HW223932   0.971  10.423  10.579
40679SOL     OW23933  10.874   9.437   4.894
40679SOL    HW123934  10.809   9.375   4.924
40679SOL    HW223935  10.930   9.387   4.834
40680SOL     OW23936   5.771  11.592   4.914
40680SOL    HW123937   5.702  11.658   4.904
40680SOL    HW223938   5.813  11.614   4.998
40681SOL     OW23939   8.154   8.200   6.020
40681SOL    HW123940   8.133   8.288   6.052
40681SOL    HW223941   8.239   8.179   6.060
40682SOL     OW23942   8.868   2.152   6.667
40682SOL    HW123943   8.936   2.106   6.618
40682SOL    HW223944   8.844   2.226   6.611
40683SOL     OW23945   9.609   0.416  12.923
40683SOL    HW123946   9.667   0.361  12.975
40683SOL    HW223947   9.623   0.505  12.956
40684SOL     OW23948   9.304  11.626   2.373
40684SOL    HW123949   9.295  11.553   2.434
40684SOL    HW223950   9.350  11.589   2.298
40685SOL     OW23951  10.004   7.516   0.159
40685SOL    HW123952   9.922   7.553   0.125
40685SOL    HW223953   9.990   7.510   0.253
40686SOL     OW23954   0.507   5.858   4.362
40686SOL    HW123955   0.446   5.897   4.424
40686SOL    HW223956   0.452   5.807   4.302
40687SOL     OW23957  11.663   7.372   5.948
40687SOL    HW123958  11.687   7.324   6.027
40687SOL    HW223959  11.575   7.341   5.927
40688SOL     OW23960   2.762   0.895   8.721
40688SOL    HW123961   2.745   0.989   8.726
40688SOL    HW223962   2.679   0.854   8.743
40689SOL     OW23963  14.822  11.123   3.606
40689SOL    HW123964  14.759  11.079   3.663
40689SOL    HW223965  14.824  11.069   3.526
40690SOL     OW23966   6.235   2.382   7.808
40690SOL    HW123967   6.157   2.363   7.756
40690SOL    HW223968   6.226   2.474   7.831
40691SOL     OW23969  13.763  13.861   7.803
40691SOL    HW123970  13.725  13.944   7.772
40691SOL    HW223971  13.706  13.794   7.765
40692SOL     OW23972   2.520  13.098   6.589
40692SOL    HW123973   2.585  13.164   6.611
40692SOL    HW223974   2.551  13.019   6.634
40693SOL     OW23975   1.907  10.114   0.327
40693SOL    HW123976   1.890  10.109   0.421
40693SOL    HW223977   1.962  10.191   0.317
40694SOL     OW23978  12.720  14.705   5.574
40694SOL    HW123979  12.780  14.757   5.628
40694SOL    HW223980  12.658  14.768   5.540
40695SOL     OW23981  12.293   1.953   0.444
40695SOL    HW123982  12.234   1.879   0.456
40695SOL    HW223983  12.259   2.022   0.501
40696SOL     OW23984   9.630   1.438   4.685
40696SOL    HW123985   9.700   1.503   4.691
40696SOL    HW223986   9.640   1.400   4.598
40697SOL     OW23987   5.846  10.717   7.754
40697SOL    HW123988   5.846  10.809   7.729
40697SOL    HW223989   5.899  10.713   7.834
40698SOL     OW23990   0.044   3.549   8.896
40698SOL    HW123991   0.011   3.589   8.815
40698SOL    HW223992   0.108   3.612   8.929
40699SOL     OW23993   3.183   7.246   5.344
40699SOL    HW123994   3.113   7.283   5.398
40699SOL    HW223995   3.199   7.313   5.277
40700SOL     OW23996   5.994   1.870   7.089
40700SOL    HW123997   6.008   1.938   7.155
40700SOL    HW223998   5.981   1.790   7.140
40701SOL     OW23999  13.804   8.528  12.643
40701SOL    HW124000  13.873   8.553  12.704
40701SOL    HW224001  13.723   8.543  12.692
40702SOL     OW24002   2.087   8.802  12.031
40702SOL    HW124003   2.149   8.780  12.100
40702SOL    HW224004   2.096   8.896  12.019
40703SOL     OW24005  12.217  14.849   4.682
40703SOL    HW124006  12.231  14.782   4.616
40703SOL    HW224007  12.184  14.801   4.758
40704SOL     OW24008   2.310   2.896  14.787
40704SOL    HW124009   2.302   2.981  14.744
40704SOL    HW224010   2.394   2.899  14.832
40705SOL     OW24011   7.683   6.536  11.663
40705SOL    HW124012   7.749   6.516  11.597
40705SOL    HW224013   7.647   6.451  11.689
40706SOL     OW24014  11.149  11.139   6.486
40706SOL    HW124015  11.218  11.205   6.479
40706SOL    HW224016  11.137  11.127   6.581
40707SOL     OW24017   1.355  11.792   7.643
40707SOL    HW124018   1.415  11.819   7.573
40707SOL    HW224019   1.364  11.860   7.709
40708SOL     OW24020   4.126   1.710   5.011
40708SOL    HW124021   4.091   1.714   5.100
40708SOL    HW224022   4.220   1.701   5.022
40709SOL     OW24023   1.304  10.153   2.435
40709SOL    HW124024   1.276  10.098   2.508
40709SOL    HW224025   1.377  10.205   2.470
40710SOL     OW24026  11.270   2.257  14.347
40710SOL    HW124027  11.231   2.286  14.264
40710SOL    HW224028  11.270   2.335  14.402
40711SOL     OW24029   1.774   0.346  14.831
40711SOL    HW124030   1.693   0.303  14.805
40711SOL    HW224031   1.754   0.389   0.031
40712SOL     OW24032  13.198   2.187   9.211
40712SOL    HW124033  13.107   2.216   9.213
40712SOL    HW224034  13.250   2.267   9.210
40713SOL     OW24035  14.512   3.068  13.718
40713SOL    HW124036  14.544   3.156  13.737
40713SOL    HW224037  14.432   3.059  13.770
40714SOL     OW24038   8.133  12.584  13.540
40714SOL    HW124039   8.058  12.593  13.481
40714SOL    HW224040   8.170  12.498  13.519
40715SOL     OW24041   5.003   8.851   6.017
40715SOL    HW124042   5.029   8.845   6.108
40715SOL    HW224043   4.908   8.860   6.019
40716SOL     OW24044  11.594   5.903  11.834
40716SOL    HW124045  11.622   5.949  11.755
40716SOL    HW224046  11.675   5.870  11.873
40717SOL     OW24047   9.925  11.520   0.186
40717SOL    HW124048   9.962  11.598   0.145
40717SOL    HW224049   9.999  11.477   0.228
40718SOL     OW24050  12.434  12.388   8.968
40718SOL    HW124051  12.493  12.449   8.923
40718SOL    HW224052  12.417  12.320   8.903
40719SOL     OW24053   2.710   9.795   1.460
40719SOL    HW124054   2.616   9.809   1.466
40719SOL    HW224055   2.748   9.877   1.493
40720SOL     OW24056   8.156   4.421   2.125
40720SOL    HW124057   8.086   4.438   2.188
40720SOL    HW224058   8.138   4.481   2.052
40721SOL     OW24059   6.770   8.984   4.549
40721SOL    HW124060   6.804   9.050   4.489
40721SOL    HW224061   6.808   8.902   4.518
40722SOL     OW24062  14.545   6.215   3.022
40722SOL    HW124063  14.456   6.216   3.057
40722SOL    HW224064  14.596   6.266   3.085
40723SOL     OW24065   2.331   9.899   1.738
40723SOL    HW124066   2.345   9.973   1.680
40723SOL    HW224067   2.408   9.897   1.794
40724SOL     OW24068   0.036   5.888   7.326
40724SOL    HW124069   0.014   5.894   7.419
40724SOL    HW224070   0.126   5.919   7.320
40725SOL     OW24071   0.976  12.325   3.084
40725SOL    HW124072   0.992  12.285   3.170
40725SOL    HW224073   0.922  12.402   3.103
40726SOL     OW24074   6.743  13.308  10.140
40726SOL    HW124075   6.677  13.376  10.130
40726SOL    HW224076   6.780  13.322  10.227
40727SOL     OW24077  13.905   7.195   7.225
40727SOL    HW124078  13.827   7.213   7.278
40727SOL    HW224079  13.928   7.105   7.247
40728SOL     OW24080  14.856   9.287  14.037
40728SOL    HW124081   0.002   9.320  14.123
40728SOL    HW224082   0.029   9.210  14.022
40729SOL     OW24083  13.023   0.039   9.937
40729SOL    HW124084  12.971  14.841   9.942
40729SOL    HW224085  13.105   0.012   9.896
40730SOL     OW24086   2.746   4.895  12.956
40730SOL    HW124087   2.826   4.894  13.008
40730SOL    HW224088   2.713   4.805  12.963
40731SOL     OW24089   0.652  14.007  10.688
40731SOL    HW124090   0.622  14.091  10.653
40731SOL    HW224091   0.572  13.954  10.696
40732SOL     OW24092   5.190   4.927  10.507
40732SOL    HW124093   5.161   4.924  10.598
40732SOL    HW224094   5.119   4.972  10.461
40733SOL     OW24095  13.164   7.116  12.262
40733SOL    HW124096  13.216   7.171  12.203
40733SOL    HW224097  13.188   7.146  12.350
40734SOL     OW24098  13.784   6.178   9.398
40734SOL    HW124099  13.715   6.244   9.406
40734SOL    HW224100  13.754   6.105   9.454
40735SOL     OW24101  13.460   6.348  10.386
40735SOL    HW124102  13.440   6.315  10.473
40735SOL    HW224103  13.543   6.394  10.395
40736SOL     OW24104   6.483   3.852   4.067
40736SOL    HW124105   6.487   3.776   4.009
40736SOL    HW224106   6.499   3.816   4.155
40737SOL     OW24107   3.955   5.790   9.157
40737SOL    HW124108   3.955   5.729   9.231
40737SOL    HW224109   3.939   5.735   9.081
40738SOL     OW24110   2.705   4.639   1.855
40738SOL    HW124111   2.697   4.603   1.944
40738SOL    HW224112   2.695   4.563   1.798
40739SOL     OW24113  11.226   6.617   6.768
40739SOL    HW124114  11.300   6.635   6.710
40739SOL    HW224115  11.256   6.544   6.823
40740SOL     OW24116   0.708   0.213   6.610
40740SOL    HW124117   0.681   0.291   6.563
40740SOL    HW224118   0.753   0.245   6.688
40741SOL     OW24119   4.343   7.044   9.778
40741SOL    HW124120   4.394   7.066   9.700
40741SOL    HW224121   4.347   7.123   9.833
40742SOL     OW24122  10.487   5.523   3.438
40742SOL    HW124123  10.571   5.547   3.476
40742SOL    HW224124  10.436   5.489   3.512
40743SOL     OW24125   3.797   9.953   9.900
40743SOL    HW124126   3.868  10.015   9.883
40743SOL    HW224127   3.831   9.896   9.969
40744SOL     OW24128   3.212   5.395   5.802
40744SOL    HW124129   3.251   5.313   5.772
40744SOL    HW224130   3.271   5.426   5.870
40745SOL     OW24131  12.769   0.846   8.754
40745SOL    HW124132  12.776   0.934   8.791
40745SOL    HW224133  12.761   0.789   8.830
40746SOL     OW24134   1.106  14.388   4.949
40746SOL    HW124135   1.063  14.412   5.031
40746SOL    HW224136   1.140  14.300   4.965
40747SOL     OW24137   9.950   3.416  12.863
40747SOL    HW124138   9.967   3.414  12.768
40747SOL    HW224139   9.855   3.418  12.870
40748SOL     OW24140  12.954   7.125  11.077
40748SOL    HW124141  13.009   7.199  11.052
40748SOL    HW224142  12.968   7.116  11.172
40749SOL     OW24143   1.501   9.383  10.404
40749SOL    HW124144   1.462   9.296  10.405
40749SOL    HW224145   1.431   9.441  10.432
40750SOL     OW24146   7.318   5.923  12.274
40750SOL    HW124147   7.370   5.849  12.305
40750SOL    HW224148   7.287   5.895  12.187
40751SOL     OW24149  14.607   9.810   0.588
40751SOL    HW124150  14.651   9.773   0.511
40751SOL    HW224151  14.548   9.876   0.553
40752SOL     OW24152  10.560   5.706  10.104
40752SOL    HW124153  10.551   5.615  10.132
40752SOL    HW224154  10.508   5.756  10.166
40753SOL     OW24155   8.281   3.793   8.479
40753SOL    HW124156   8.275   3.871   8.535
40753SOL    HW224157   8.197   3.790   8.433
40754SOL     OW24158  13.987   1.852  14.745
40754SOL    HW124159  14.026   1.888  14.825
40754SOL    HW224160  13.895   1.874  14.751
40755SOL     OW24161   2.544  10.158  13.352
40755SOL    HW124162   2.506  10.245  13.348
40755SOL    HW224163   2.574  10.140  13.263
40756SOL     OW24164   3.377   4.437   4.865
40756SOL    HW124165   3.384   4.420   4.959
40756SOL    HW224166   3.371   4.350   4.826
40757SOL     OW24167   6.713   0.572   0.590
40757SOL    HW124168   6.654   0.567   0.515
40757SOL    HW224169   6.745   0.662   0.588
40758SOL     OW24170   8.044  11.764   6.765
40758SOL    HW124171   8.075  11.771   6.675
40758SOL    HW224172   8.107  11.705   6.807
40759SOL     OW24173  12.685  10.377   4.334
40759SOL    HW124174  12.780  10.367   4.334
40759SOL    HW224175  12.670  10.466   4.366
40760SOL     OW24176   3.174   4.105  11.424
40760SOL    HW124177   3.099   4.046  11.410
40760SOL    HW224178   3.156   4.148  11.508
40761SOL     OW24179  12.399   0.948  14.123
40761SOL    HW124180  12.489   0.932  14.095
40761SOL    HW224181  12.351   0.870  14.094
40762SOL     OW24182   5.634   8.937  13.992
40762SOL    HW124183   5.689   8.997  14.043
40762SOL    HW224184   5.696   8.872  13.957
40763SOL     OW24185   0.555   0.418  12.186
40763SOL    HW124186   0.475   0.440  12.138
40763SOL    HW224187   0.575   0.496  12.236
40764SOL     OW24188   2.542   3.872   0.486
40764SOL    HW124189   2.486   3.923   0.427
40764SOL    HW224190   2.612   3.932   0.510
40765SOL     OW24191   1.527   0.172   2.369
40765SOL    HW124192   1.598   0.147   2.428
40765SOL    HW224193   1.565   0.240   2.313
40766SOL     OW24194  13.280   5.198   4.933
40766SOL    HW124195  13.323   5.220   5.016
40766SOL    HW224196  13.261   5.105   4.939
40767SOL     OW24197   7.200   2.047   1.344
40767SOL    HW124198   7.153   2.071   1.424
40767SOL    HW224199   7.271   2.110   1.338
40768SOL     OW24200  13.183  13.283   3.192
40768SOL    HW124201  13.145  13.365   3.161
40768SOL    HW224202  13.219  13.305   3.278
40769SOL     OW24203   6.469   7.604   7.784
40769SOL    HW124204   6.460   7.692   7.748
40769SOL    HW224205   6.432   7.546   7.717
40770SOL     OW24206   9.321   6.607   6.525
40770SOL    HW124207   9.312   6.701   6.537
40770SOL    HW224208   9.351   6.574   6.610
40771SOL     OW24209  10.065   4.017   2.713
40771SOL    HW124210  10.087   3.978   2.629
40771SOL    HW224211  10.029   3.945   2.765
40772SOL     OW24212   7.213  10.341   0.093
40772SOL    HW124213   7.211  10.392   0.174
40772SOL    HW224214   7.212  10.250   0.123
40773SOL     OW24215   7.285   8.075  12.941
40773SOL    HW124216   7.373   8.051  12.970
40773SOL    HW224217   7.287   8.061  12.846
40774SOL     OW24218  10.939   2.421   4.061
40774SOL    HW124219  10.925   2.327   4.070
40774SOL    HW224220  10.863   2.461   4.102
40775SOL     OW24221   1.026  14.422   4.045
40775SOL    HW124222   0.993  14.482   3.978
40775SOL    HW224223   1.040  14.340   3.997
40776SOL     OW24224  14.376  13.288  12.136
40776SOL    HW124225  14.356  13.229  12.063
40776SOL    HW224226  14.439  13.239  12.189
40777SOL     OW24227   7.402   9.945   9.458
40777SOL    HW124228   7.405  10.038   9.433
40777SOL    HW224229   7.333   9.908   9.403
40778SOL     OW24230  12.148   8.231   7.849
40778SOL    HW124231  12.107   8.315   7.829
40778SOL    HW224232  12.240   8.251   7.863
40779SOL     OW24233   6.232   9.616   5.891
40779SOL    HW124234   6.184   9.533   5.885
40779SOL    HW224235   6.311   9.594   5.940
40780SOL     OW24236   5.477   0.737   0.991
40780SOL    HW124237   5.462   0.692   1.074
40780SOL    HW224238   5.565   0.774   0.999
40781SOL     OW24239  12.295  10.024   1.791
40781SOL    HW124240  12.220  10.066   1.833
40781SOL    HW224241  12.274  10.026   1.697
40782SOL     OW24242   8.734   6.085   6.293
40782SOL    HW124243   8.812   6.090   6.238
40782SOL    HW224244   8.767   6.100   6.382
40783SOL     OW24245  14.406  12.450   5.630
40783SOL    HW124246  14.347  12.393   5.581
40783SOL    HW224247  14.454  12.390   5.687
40784SOL     OW24248   6.905   3.427   2.193
40784SOL    HW124249   6.934   3.390   2.277
40784SOL    HW224250   6.834   3.368   2.165
40785SOL     OW24251   8.891   3.314   2.617
40785SOL    HW124252   8.902   3.229   2.574
40785SOL    HW224253   8.975   3.358   2.605
40786SOL     OW24254  14.510   5.504   6.852
40786SOL    HW124255  14.600   5.518   6.883
40786SOL    HW224256  14.459   5.572   6.896
40787SOL     OW24257   1.078  10.597   5.406
40787SOL    HW124258   1.007  10.608   5.342
40787SOL    HW224259   1.116  10.511   5.385
40788SOL     OW24260   6.400  11.734  13.278
40788SOL    HW124261   6.319  11.699  13.241
40788SOL    HW224262   6.416  11.815  13.228
40789SOL     OW24263   3.688   6.534  14.740
40789SOL    HW124264   3.694   6.537  14.645
40789SOL    HW224265   3.779   6.535  14.770
40790SOL     OW24266   6.971   5.007  10.967
40790SOL    HW124267   6.979   5.102  10.974
40790SOL    HW224268   6.877   4.991  10.971
40791SOL     OW24269   2.633  11.501   4.085
40791SOL    HW124270   2.617  11.408   4.069
40791SOL    HW224271   2.548  11.543   4.068
40792SOL     OW24272   5.793   6.372  10.135
40792SOL    HW124273   5.715   6.423  10.158
40792SOL    HW224274   5.866   6.424  10.168
40793SOL     OW24275  10.409  14.564   9.432
40793SOL    HW124276  10.400  14.634   9.367
40793SOL    HW224277  10.410  14.483   9.380
40794SOL     OW24278   5.003   8.188   6.522
40794SOL    HW124279   5.075   8.209   6.462
40794SOL    HW224280   5.044   8.138   6.593
40795SOL     OW24281   4.036  11.858   9.741
40795SOL    HW124282   4.128  11.836   9.726
40795SOL    HW224283   4.008  11.800   9.812
40796SOL     OW24284   4.322   9.787  14.576
40796SOL    HW124285   4.379   9.862  14.562
40796SOL    HW224286   4.381   9.712  14.576
40797SOL     OW24287  10.474   9.715   6.169
40797SOL    HW124288  10.563   9.682   6.154
40797SOL    HW224289  10.450   9.679   6.255
40798SOL     OW24290  11.061   4.227   3.179
40798SOL    HW124291  10.996   4.161   3.153
40798SOL    HW224292  11.088   4.200   3.267
40799SOL     OW24293   8.935   0.629   4.109
40799SOL    HW124294   8.980   0.676   4.179
40799SOL    HW224295   8.842   0.643   4.127
40800SOL     OW24296   6.707   8.391   6.603
40800SOL    HW124297   6.764   8.325   6.563
40800SOL    HW224298   6.767   8.449   6.650
40801SOL     OW24299  10.172   9.805   0.660
40801SOL    HW124300  10.191   9.856   0.581
40801SOL    HW224301  10.095   9.848   0.698
40802SOL     OW24302   0.722  10.133   9.626
40802SOL    HW124303   0.720  10.097   9.537
40802SOL    HW224304   0.788  10.082   9.672
40803SOL     OW24305   2.619   5.484  12.717
40803SOL    HW124306   2.624   5.391  12.737
40803SOL    HW224307   2.610   5.526  12.803
40804SOL     OW24308   8.651  11.801   9.877
40804SOL    HW124309   8.662  11.710   9.905
40804SOL    HW224310   8.557  11.810   9.862
40805SOL     OW24311  12.085  10.238   5.367
40805SOL    HW124312  12.082  10.241   5.462
40805SOL    HW224313  12.024  10.168   5.343
40806SOL     OW24314  10.861   5.264   1.231
40806SOL    HW124315  10.852   5.225   1.318
40806SOL    HW224316  10.948   5.236   1.201
40807SOL     OW24317   4.269   2.052   7.690
40807SOL    HW124318   4.222   2.019   7.614
40807SOL    HW224319   4.202   2.062   7.757
40808SOL     OW24320   9.825  10.735  14.474
40808SOL    HW124321   9.779  10.795  14.532
40808SOL    HW224322   9.760  10.708  14.410
40809SOL     OW24323   4.094   5.653   7.599
40809SOL    HW124324   4.184   5.622   7.609
40809SOL    HW224325   4.041   5.589   7.647
40810SOL     OW24326   4.381   6.686   1.403
40810SOL    HW124327   4.292   6.653   1.414
40810SOL    HW224328   4.376   6.777   1.434
40811SOL     OW24329  13.921   7.067   5.801
40811SOL    HW124330  13.974   7.121   5.743
40811SOL    HW224331  13.978   6.994   5.826
40812SOL     OW24332   4.872  12.799   0.503
40812SOL    HW124333   4.921  12.784   0.422
40812SOL    HW224334   4.937  12.832   0.565
40813SOL     OW24335   9.412   8.830   2.567
40813SOL    HW124336   9.399   8.924   2.551
40813SOL    HW224337   9.458   8.826   2.651
40814SOL     OW24338   5.445   3.180   5.964
40814SOL    HW124339   5.454   3.194   6.059
40814SOL    HW224340   5.434   3.085   5.955
40815SOL     OW24341   4.443   6.463  10.322
40815SOL    HW124342   4.473   6.373  10.336
40815SOL    HW224343   4.363   6.470  10.373
40816SOL     OW24344  13.239  10.780   3.496
40816SOL    HW124345  13.236  10.776   3.400
40816SOL    HW224346  13.170  10.720   3.524
40817SOL     OW24347  11.730  10.964   7.841
40817SOL    HW124348  11.694  11.012   7.767
40817SOL    HW224349  11.726  11.027   7.914
40818SOL     OW24350   6.264   2.699   2.810
40818SOL    HW124351   6.353   2.695   2.775
40818SOL    HW224352   6.275   2.687   2.905
40819SOL     OW24353  10.406   3.406   4.507
40819SOL    HW124354  10.459   3.485   4.494
40819SOL    HW224355  10.467   3.342   4.543
40820SOL     OW24356   5.032   8.977   7.581
40820SOL    HW124357   5.088   9.042   7.625
40820SOL    HW224358   4.961   8.961   7.642
40821SOL     OW24359   4.108   9.764   1.690
40821SOL    HW124360   4.132   9.844   1.643
40821SOL    HW224361   4.013   9.766   1.694
40822SOL     OW24362   6.311   7.512   4.035
40822SOL    HW124363   6.325   7.561   3.954
40822SOL    HW224364   6.364   7.433   4.025
40823SOL     OW24365   0.882   4.861   9.392
40823SOL    HW124366   0.844   4.915   9.323
40823SOL    HW224367   0.827   4.782   9.392
40824SOL     OW24368  11.770   1.488   1.948
40824SOL    HW124369  11.714   1.499   1.871
40824SOL    HW224370  11.830   1.418   1.925
40825SOL     OW24371   8.105   0.457   4.585
40825SOL    HW124372   8.197   0.438   4.601
40825SOL    HW224373   8.095   0.549   4.608
40826SOL     OW24374   9.681   6.562   6.710
40826SOL    HW124375   9.722   6.533   6.791
40826SOL    HW224376   9.744   6.541   6.642
40827SOL     OW24377   0.714   4.697   3.393
40827SOL    HW124378   0.783   4.762   3.384
40827SOL    HW224379   0.713   4.675   3.486
40828SOL     OW24380  12.567   7.015  12.202
40828SOL    HW124381  12.571   6.921  12.220
40828SOL    HW224382  12.517   7.051  12.276
40829SOL     OW24383   3.003   5.928   3.079
40829SOL    HW124384   2.936   5.877   3.034
40829SOL    HW224385   3.041   5.983   3.010
40830SOL     OW24386   2.380   2.124  12.468
40830SOL    HW124387   2.298   2.154  12.507
40830SOL    HW224388   2.433   2.096  12.542
40831SOL     OW24389   9.070   2.798  12.905
40831SOL    HW124390   9.039   2.844  12.984
40831SOL    HW224391   9.010   2.725  12.895
40832SOL     OW24392  11.706   8.716   5.829
40832SOL    HW124393  11.640   8.692   5.894
40832SOL    HW224394  11.780   8.658   5.846
40833SOL     OW24395   3.991   0.833   0.379
40833SOL    HW124396   4.067   0.794   0.423
40833SOL    HW224397   3.922   0.767   0.387
40834SOL     OW24398   1.854  10.991  10.435
40834SOL    HW124399   1.775  10.942  10.411
40834SOL    HW224400   1.843  11.011  10.528
40835SOL     OW24401  12.188   6.826   0.527
40835SOL    HW124402  12.150   6.786   0.605
40835SOL    HW224403  12.264   6.874   0.559
40836SOL     OW24404   8.599   0.836   8.607
40836SOL    HW124405   8.639   0.789   8.533
40836SOL    HW224406   8.545   0.770   8.650
40837SOL     OW24407  11.522   4.424   7.410
40837SOL    HW124408  11.440   4.381   7.433
40837SOL    HW224409  11.564   4.365   7.348
40838SOL     OW24410   1.425   6.853   0.500
40838SOL    HW124411   1.353   6.903   0.461
40838SOL    HW224412   1.478   6.826   0.425
40839SOL     OW24413   7.458  10.385   1.272
40839SOL    HW124414   7.486  10.415   1.358
40839SOL    HW224415   7.363  10.402   1.270
40840SOL     OW24416   9.715  12.661   4.639
40840SOL    HW124417   9.763  12.722   4.584
40840SOL    HW224418   9.728  12.576   4.598
40841SOL     OW24419  14.810   2.651  10.428
40841SOL    HW124420  14.750   2.679  10.497
40841SOL    HW224421   0.013   2.687  10.453
40842SOL     OW24422   6.029   6.265   2.468
40842SOL    HW124423   6.053   6.255   2.375
40842SOL    HW224424   5.949   6.215   2.477
40843SOL     OW24425   7.205   7.834   9.918
40843SOL    HW124426   7.244   7.781   9.988
40843SOL    HW224427   7.143   7.775   9.875
40844SOL     OW24428   1.566   2.555   9.740
40844SOL    HW124429   1.544   2.469   9.704
40844SOL    HW224430   1.502   2.570   9.809
40845SOL     OW24431  11.598   8.994   4.549
40845SOL    HW124432  11.626   9.070   4.498
40845SOL    HW224433  11.592   8.923   4.486
40846SOL     OW24434  13.039   0.786  10.848
40846SOL    HW124435  13.040   0.766  10.942
40846SOL    HW224436  13.130   0.804  10.827
40847SOL     OW24437   4.109  11.605   0.290
40847SOL    HW124438   4.110  11.524   0.238
40847SOL    HW224439   4.152  11.670   0.235
40848SOL     OW24440   0.081   7.360   8.715
40848SOL    HW124441   0.121   7.446   8.713
40848SOL    HW224442   0.017   7.364   8.786
40849SOL     OW24443   8.278   8.305   9.118
40849SOL    HW124444   8.325   8.378   9.078
40849SOL    HW224445   8.202   8.346   9.160
40850SOL     OW24446   2.758   7.891   9.333
40850SOL    HW124447   2.708   7.965   9.299
40850SOL    HW224448   2.848   7.922   9.335
40851SOL     OW24449  11.809   9.612   4.371
40851SOL    HW124450  11.776   9.701   4.369
40851SOL    HW224451  11.862   9.603   4.292
40852SOL     OW24452   0.105  13.033   4.344
40852SOL    HW124453   0.180  13.071   4.300
40852SOL    HW224454   0.054  12.991   4.274
40853SOL     OW24455   0.305   3.297  10.089
40853SOL    HW124456   0.277   3.305  10.180
40853SOL    HW224457   0.268   3.214  10.060
40854SOL     OW24458  10.695   5.064  12.517
40854SOL    HW124459  10.659   4.983  12.483
40854SOL    HW224460  10.760   5.037  12.583
40855SOL     OW24461   3.949  13.887  12.044
40855SOL    HW124462   3.944  13.897  11.949
40855SOL    HW224463   4.010  13.956  12.072
40856SOL     OW24464  12.402   9.381   6.788
40856SOL    HW124465  12.447   9.343   6.713
40856SOL    HW224466  12.454   9.459   6.810
40857SOL     OW24467   9.206  10.313  11.120
40857SOL    HW124468   9.151  10.372  11.069
40857SOL    HW224469   9.219  10.237  11.064
40858SOL     OW24470   3.172  12.694   9.394
40858SOL    HW124471   3.233  12.768   9.406
40858SOL    HW224472   3.092  12.734   9.361
40859SOL     OW24473   9.904  13.159   8.519
40859SOL    HW124474   9.863  13.189   8.438
40859SOL    HW224475   9.977  13.104   8.490
40860SOL     OW24476  13.589  11.742   2.516
40860SOL    HW124477  13.571  11.834   2.535
40860SOL    HW224478  13.504  11.707   2.488
40861SOL     OW24479   7.918   2.705  11.372
40861SOL    HW124480   7.842   2.756  11.346
40861SOL    HW224481   7.897   2.672  11.460
40862SOL     OW24482   5.654   9.593   8.531
40862SOL    HW124483   5.740   9.574   8.495
40862SOL    HW224484   5.672   9.634   8.615
40863SOL     OW24485   6.159   6.754   2.977
40863SOL    HW124486   6.214   6.723   2.905
40863SOL    HW224487   6.179   6.847   2.985
40864SOL     OW24488  12.799  11.144   2.862
40864SOL    HW124489  12.796  11.092   2.942
40864SOL    HW224490  12.827  11.081   2.795
40865SOL     OW24491  11.716   4.089   2.497
40865SOL    HW124492  11.772   4.019   2.530
40865SOL    HW224493  11.751   4.109   2.410
40866SOL     OW24494  10.357  10.887   2.412
40866SOL    HW124495  10.426  10.941   2.450
40866SOL    HW224496  10.382  10.876   2.320
40867SOL     OW24497   7.265   3.298   1.271
40867SOL    HW124498   7.347   3.250   1.287
40867SOL    HW224499   7.282   3.386   1.305
40868SOL     OW24500   7.955  11.222   8.547
40868SOL    HW124501   8.030  11.265   8.505
40868SOL    HW224502   7.951  11.261   8.634
40869SOL     OW24503   9.064   8.083   3.611
40869SOL    HW124504   9.080   8.129   3.694
40869SOL    HW224505   8.971   8.097   3.594
40870SOL     OW24506   5.107   7.971   6.293
40870SOL    HW124507   5.195   7.941   6.315
40870SOL    HW224508   5.095   8.052   6.343
40871SOL     OW24509  10.853   4.680   3.233
40871SOL    HW124510  10.899   4.612   3.184
40871SOL    HW224511  10.836   4.641   3.319
40872SOL     OW24512   2.075   8.795  14.864
40872SOL    HW124513   2.031   8.716  14.834
40872SOL    HW224514   2.094   8.844  14.784
40873SOL     OW24515   8.070  12.862   9.534
40873SOL    HW124516   8.027  12.915   9.601
40873SOL    HW224517   8.045  12.772   9.555
40874SOL     OW24518   8.406   2.960   3.494
40874SOL    HW124519   8.481   2.962   3.433
40874SOL    HW224520   8.386   3.052   3.509
40875SOL     OW24521  12.521   2.364   5.099
40875SOL    HW124522  12.441   2.327   5.062
40875SOL    HW224523  12.538   2.443   5.047
40876SOL     OW24524  13.052   1.996  11.866
40876SOL    HW124525  13.101   1.971  11.945
40876SOL    HW224526  12.965   2.021  11.897
40877SOL     OW24527  10.918   1.202  10.195
40877SOL    HW124528  10.955   1.270  10.251
40877SOL    HW224529  10.930   1.235  10.106
40878SOL     OW24530   6.899   9.745  13.697
40878SOL    HW124531   6.969   9.808  13.682
40878SOL    HW224532   6.858   9.775  13.779
40879SOL     OW24533   0.536  13.069   9.644
40879SOL    HW124534   0.457  13.116   9.618
40879SOL    HW224535   0.567  13.029   9.563
40880SOL     OW24536   7.853   9.139   1.450
40880SOL    HW124537   7.869   9.168   1.360
40880SOL    HW224538   7.939   9.120   1.485
40881SOL     OW24539   2.327   4.250  10.707
40881SOL    HW124540   2.377   4.314  10.656
40881SOL    HW224541   2.237   4.260  10.677
40882SOL     OW24542   6.626   4.140   9.772
40882SOL    HW124543   6.695   4.087   9.732
40882SOL    HW224544   6.648   4.140   9.866
40883SOL     OW24545   4.818  11.719   0.842
40883SOL    HW124546   4.845  11.647   0.899
40883SOL    HW224547   4.728  11.737   0.868
40884SOL     OW24548   5.484  10.810   0.545
40884SOL    HW124549   5.469  10.716   0.543
40884SOL    HW224550   5.408  10.845   0.593
40885SOL     OW24551   1.199   5.611   7.618
40885SOL    HW124552   1.190   5.619   7.523
40885SOL    HW224553   1.120   5.564   7.645
40886SOL     OW24554   0.520  14.751   8.807
40886SOL    HW124555   0.501  14.764   8.714
40886SOL    HW224556   0.469  14.674   8.832
40887SOL     OW24557  12.439   0.792   9.775
40887SOL    HW124558  12.462   0.701   9.753
40887SOL    HW224559  12.391   0.824   9.699
40888SOL     OW24560   1.315   7.566   4.049
40888SOL    HW124561   1.279   7.587   3.962
40888SOL    HW224562   1.389   7.625   4.060
40889SOL     OW24563  14.740  11.034   0.948
40889SOL    HW124564  14.672  11.064   0.888
40889SOL    HW224565  14.806  10.992   0.892
40890SOL     OW24566   1.458   3.119  11.952
40890SOL    HW124567   1.433   3.093  11.863
40890SOL    HW224568   1.414   3.056  12.009
40891SOL     OW24569  12.988  12.091   4.737
40891SOL    HW124570  12.913  12.136   4.776
40891SOL    HW224571  13.056  12.095   4.804
40892SOL     OW24572   3.785   0.294  11.669
40892SOL    HW124573   3.862   0.238  11.666
40892SOL    HW224574   3.793   0.350  11.592
40893SOL     OW24575  13.584  12.628   3.479
40893SOL    HW124576  13.623  12.693   3.537
40893SOL    HW224577  13.537  12.568   3.537
40894SOL     OW24578   0.015   3.140  10.394
40894SOL    HW124579   0.006   3.147  10.299
40894SOL    HW224580  14.811   3.110  10.423
40895SOL     OW24581  14.744   1.666   8.197
40895SOL    HW124582  14.834   1.644   8.222
40895SOL    HW224583  14.690   1.615   8.258
40896SOL     OW24584   9.263  12.857   3.481
40896SOL    HW124585   9.278  12.769   3.445
40896SOL    HW224586   9.190  12.891   3.429
40897SOL     OW24587  11.197   7.821   2.795
40897SOL    HW124588  11.118   7.793   2.749
40897SOL    HW224589  11.197   7.770   2.876
40898SOL     OW24590   2.790   3.251   5.119
40898SOL    HW124591   2.710   3.300   5.101
40898SOL    HW224592   2.769   3.161   5.096
40899SOL     OW24593   1.262   0.351  11.321
40899SOL    HW124594   1.250   0.352  11.416
40899SOL    HW224595   1.248   0.260  11.296
40900SOL     OW24596   4.987   2.469   9.100
40900SOL    HW124597   4.957   2.539   9.159
40900SOL    HW224598   4.920   2.465   9.032
40901SOL     OW24599   2.270   7.370   0.611
40901SOL    HW124600   2.338   7.409   0.665
40901SOL    HW224601   2.230   7.303   0.666
40902SOL     OW24602   6.648  10.326   8.255
40902SOL    HW124603   6.585  10.287   8.316
40902SOL    HW224604   6.606  10.320   8.169
40903SOL     OW24605   9.766   5.048   1.258
40903SOL    HW124606   9.817   5.114   1.304
40903SOL    HW224607   9.813   4.966   1.272
40904SOL     OW24608   8.538   6.135  14.413
40904SOL    HW124609   8.513   6.137  14.321
40904SOL    HW224610   8.496   6.055  14.447
40905SOL     OW24611  11.070   3.757   4.303
40905SOL    HW124612  10.996   3.809   4.274
40905SOL    HW224613  11.071   3.682   4.244
40906SOL     OW24614   4.074   5.333   9.139
40906SOL    HW124615   4.112   5.355   9.054
40906SOL    HW224616   4.054   5.239   9.132
40907SOL     OW24617   5.228   5.260   5.705
40907SOL    HW124618   5.317   5.296   5.699
40907SOL    HW224619   5.226   5.193   5.636
40908SOL     OW24620   1.870   2.235   3.274
40908SOL    HW124621   1.873   2.331   3.267
40908SOL    HW224622   1.873   2.218   3.368
40909SOL     OW24623  12.082   8.406   5.563
40909SOL    HW124624  12.072   8.320   5.603
40909SOL    HW224625  12.174   8.428   5.575
40910SOL     OW24626   4.240   5.064   7.791
40910SOL    HW124627   4.223   5.047   7.883
40910SOL    HW224628   4.334   5.079   7.786
40911SOL     OW24629  14.015  13.215   0.770
40911SOL    HW124630  14.109  13.227   0.779
40911SOL    HW224631  14.001  13.122   0.792
40912SOL     OW24632   3.448   5.986   4.090
40912SOL    HW124633   3.475   6.002   3.999
40912SOL    HW224634   3.460   5.892   4.103
40913SOL     OW24635   6.237  12.065  14.599
40913SOL    HW124636   6.242  12.158  14.621
40913SOL    HW224637   6.217  12.021  14.682
40914SOL     OW24638   1.457  10.796   6.880
40914SOL    HW124639   1.459  10.862   6.949
40914SOL    HW224640   1.399  10.832   6.813
40915SOL     OW24641   3.702   4.906  14.794
40915SOL    HW124642   3.643   4.959  14.847
40915SOL    HW224643   3.645   4.866  14.728
40916SOL     OW24644  10.514  12.743   9.070
40916SOL    HW124645  10.547  12.666   9.116
40916SOL    HW224646  10.508  12.715   8.979
40917SOL     OW24647   5.791   4.642   5.760
40917SOL    HW124648   5.755   4.613   5.844
40917SOL    HW224649   5.831   4.727   5.779
40918SOL     OW24650  11.587   0.814   4.377
40918SOL    HW124651  11.679   0.811   4.351
40918SOL    HW224652  11.547   0.742   4.328
40919SOL     OW24653  12.859   9.176   9.082
40919SOL    HW124654  12.853   9.202   8.990
40919SOL    HW224655  12.898   9.252   9.125
40920SOL     OW24656   4.007  11.892   5.663
40920SOL    HW124657   3.954  11.972   5.663
40920SOL    HW224658   3.965  11.836   5.597
40921SOL     OW24659  13.085  11.092   3.822
40921SOL    HW124660  13.159  11.032   3.834
40921SOL    HW224661  13.017  11.038   3.782
40922SOL     OW24662  10.714  14.441   8.110
40922SOL    HW124663  10.639  14.383   8.101
40922SOL    HW224664  10.703  14.481   8.197
40923SOL     OW24665   1.417   4.282   9.735
40923SOL    HW124666   1.443   4.224   9.806
40923SOL    HW224667   1.444   4.236   9.655
40924SOL     OW24668   3.393   0.199   5.241
40924SOL    HW124669   3.462   0.266   5.242
40924SOL    HW224670   3.358   0.204   5.152
40925SOL     OW24671   3.203   5.504  10.829
40925SOL    HW124672   3.132   5.440  10.823
40925SOL    HW224673   3.227   5.523  10.738
40926SOL     OW24674   4.090   8.366   0.970
40926SOL    HW124675   4.096   8.273   0.948
40926SOL    HW224676   4.019   8.399   0.916
40927SOL     OW24677   7.324   7.519   2.522
40927SOL    HW124678   7.310   7.555   2.435
40927SOL    HW224679   7.281   7.581   2.581
40928SOL     OW24680   8.639   6.308  10.430
40928SOL    HW124681   8.706   6.375  10.418
40928SOL    HW224682   8.556   6.356  10.426
40929SOL     OW24683   6.153  12.323  14.265
40929SOL    HW124684   6.163  12.322  14.170
40929SOL    HW224685   6.242  12.306  14.298
40930SOL     OW24686   6.515  13.112   3.844
40930SOL    HW124687   6.420  13.101   3.843
40930SOL    HW224688   6.529  13.205   3.827
40931SOL     OW24689  11.074   0.901   6.456
40931SOL    HW124690  10.983   0.878   6.434
40931SOL    HW224691  11.078   0.891   6.551
40932SOL     OW24692  11.301   1.629   1.038
40932SOL    HW124693  11.347   1.606   0.957
40932SOL    HW224694  11.361   1.687   1.084
40933SOL     OW24695  11.624   7.441   4.282
40933SOL    HW124696  11.696   7.488   4.240
40933SOL    HW224697  11.546   7.473   4.238
40934SOL     OW24698   1.237   9.526   4.903
40934SOL    HW124699   1.244   9.604   4.958
40934SOL    HW224700   1.261   9.454   4.961
40935SOL     OW24701   5.422  10.238  10.827
40935SOL    HW124702   5.353  10.218  10.763
40935SOL    HW224703   5.503  10.210  10.785
40936SOL     OW24704   4.426   7.088   1.067
40936SOL    HW124705   4.454   7.154   1.131
40936SOL    HW224706   4.403   7.139   0.989
40937SOL     OW24707   3.102   6.120   9.262
40937SOL    HW124708   3.186   6.074   9.249
40937SOL    HW224709   3.126   6.203   9.303
40938SOL     OW24710   2.018  13.611   9.134
40938SOL    HW124711   1.968  13.564   9.202
40938SOL    HW224712   1.951  13.656   9.082
40939SOL     OW24713  13.935   2.525  10.077
40939SOL    HW124714  13.897   2.489  10.158
40939SOL    HW224715  13.951   2.448  10.023
40940SOL     OW24716  14.604   2.346   2.247
40940SOL    HW124717  14.668   2.416   2.235
40940SOL    HW224718  14.649   2.282   2.302
40941SOL     OW24719   8.806   5.796   1.503
40941SOL    HW124720   8.832   5.724   1.445
40941SOL    HW224721   8.804   5.873   1.446
40942SOL     OW24722  14.529   0.695   1.424
40942SOL    HW124723  14.460   0.632   1.405
40942SOL    HW224724  14.488   0.759   1.483
40943SOL     OW24725  11.861  11.053  13.735
40943SOL    HW124726  11.901  11.139  13.744
40943SOL    HW224727  11.924  10.993  13.775
40944SOL     OW24728   6.774   7.752   5.065
40944SOL    HW124729   6.806   7.717   4.982
40944SOL    HW224730   6.830   7.712   5.131
40945SOL     OW24731   3.233   4.627   3.610
40945SOL    HW124732   3.221   4.714   3.571
40945SOL    HW224733   3.328   4.620   3.624
40946SOL     OW24734   9.303  12.754   4.802
40946SOL    HW124735   9.216  12.760   4.843
40946SOL    HW224736   9.284  12.729   4.712
40947SOL     OW24737   3.216   4.912   7.258
40947SOL    HW124738   3.236   4.949   7.172
40947SOL    HW224739   3.121   4.909   7.261
40948SOL     OW24740   0.801  10.437   0.161
40948SOL    HW124741   0.876  10.419   0.218
40948SOL    HW224742   0.728  10.451   0.222
40949SOL     OW24743  10.353   4.090  14.700
40949SOL    HW124744  10.412   4.143  14.754
40949SOL    HW224745  10.304   4.037  14.762
40950SOL     OW24746   9.210   1.195  12.990
40950SOL    HW124747   9.270   1.242  12.932
40950SOL    HW224748   9.174   1.125  12.935
40951SOL     OW24749   7.662   8.565   4.078
40951SOL    HW124750   7.597   8.559   4.007
40951SOL    HW224751   7.726   8.497   4.057
40952SOL     OW24752   8.311   2.889   9.841
40952SOL    HW124753   8.361   2.902   9.922
40952SOL    HW224754   8.348   2.952   9.780
40953SOL     OW24755   1.900   9.263  12.487
40953SOL    HW124756   1.884   9.355  12.469
40953SOL    HW224757   1.969   9.263  12.553
40954SOL     OW24758   3.606  12.428   4.445
40954SOL    HW124759   3.602  12.370   4.369
40954SOL    HW224760   3.613  12.369   4.520
40955SOL     OW24761   3.214   8.018   4.058
40955SOL    HW124762   3.219   8.111   4.037
40955SOL    HW224763   3.291   8.002   4.114
40956SOL     OW24764  10.285   3.393  10.640
40956SOL    HW124765  10.228   3.330  10.685
40956SOL    HW224766  10.372   3.353  10.645
40957SOL     OW24767   9.636   1.408   8.308
40957SOL    HW124768   9.600   1.479   8.361
40957SOL    HW224769   9.569   1.341   8.310
40958SOL     OW24770   2.288   5.767   6.888
40958SOL    HW124771   2.269   5.693   6.830
40958SOL    HW224772   2.358   5.734   6.945
40959SOL     OW24773   7.413   2.219   5.080
40959SOL    HW124774   7.499   2.248   5.112
40959SOL    HW224775   7.398   2.136   5.124
40960SOL     OW24776   0.216  11.607   1.637
40960SOL    HW124777   0.225  11.621   1.543
40960SOL    HW224778   0.177  11.520   1.646
40961SOL     OW24779   9.633   0.464  10.129
40961SOL    HW124780   9.695   0.482  10.200
40961SOL    HW224781   9.547   0.474  10.169
40962SOL     OW24782   3.102   1.855  12.039
40962SOL    HW124783   3.046   1.913  12.090
40962SOL    HW224784   3.118   1.902  11.957
40963SOL     OW24785   6.155   6.064   6.286
40963SOL    HW124786   6.162   5.969   6.280
40963SOL    HW224787   6.194   6.086   6.371
40964SOL     OW24788  11.975  10.518   8.802
40964SOL    HW124789  12.038  10.585   8.778
40964SOL    HW224790  11.907  10.524   8.734
40965SOL     OW24791  10.271   6.241   2.753
40965SOL    HW124792  10.342   6.184   2.725
40965SOL    HW224793  10.273   6.315   2.692
40966SOL     OW24794   4.948  12.778   8.031
40966SOL    HW124795   4.968  12.734   8.113
40966SOL    HW224796   4.987  12.865   8.040
40967SOL     OW24797  14.818   0.803   4.691
40967SOL    HW124798  14.741   0.834   4.739
40967SOL    HW224799  14.815   0.708   4.697
40968SOL     OW24800  14.532   9.177   5.781
40968SOL    HW124801  14.597   9.185   5.712
40968SOL    HW224802  14.500   9.087   5.773
40969SOL     OW24803  11.854  12.196   0.680
40969SOL    HW124804  11.803  12.225   0.604
40969SOL    HW224805  11.893  12.276   0.715
40970SOL     OW24806  14.390  10.012   6.739
40970SOL    HW124807  14.401  10.022   6.644
40970SOL    HW224808  14.319  10.072   6.761
40971SOL     OW24809   8.997  11.649  14.709
40971SOL    HW124810   9.080  11.689  14.735
40971SOL    HW224811   8.993  11.663  14.614
40972SOL     OW24812  14.233   4.775   1.333
40972SOL    HW124813  14.171   4.838   1.294
40972SOL    HW224814  14.292   4.830   1.385
40973SOL     OW24815   1.985   7.160   7.545
40973SOL    HW124816   2.024   7.132   7.628
40973SOL    HW224817   1.976   7.080   7.495
40974SOL     OW24818   7.510   6.751   3.933
40974SOL    HW124819   7.417   6.758   3.954
40974SOL    HW224820   7.545   6.693   4.001
40975SOL     OW24821  10.987  12.524   1.238
40975SOL    HW124822  10.918  12.459   1.254
40975SOL    HW224823  11.016  12.550   1.326
40976SOL     OW24824   9.033  13.298   4.318
40976SOL    HW124825   8.973  13.231   4.286
40976SOL    HW224826   9.084  13.324   4.241
40977SOL     OW24827   3.139   9.865   3.897
40977SOL    HW124828   3.069   9.801   3.890
40977SOL    HW224829   3.133   9.917   3.816
40978SOL     OW24830  11.119   5.824   2.119
40978SOL    HW124831  11.101   5.917   2.104
40978SOL    HW224832  11.124   5.816   2.214
40979SOL     OW24833   5.395   4.114   4.080
40979SOL    HW124834   5.457   4.053   4.120
40979SOL    HW224835   5.341   4.058   4.023
40980SOL     OW24836   1.634   6.397   3.512
40980SOL    HW124837   1.539   6.404   3.508
40980SOL    HW224838   1.651   6.344   3.590
40981SOL     OW24839   9.387   1.902   5.029
40981SOL    HW124840   9.378   1.810   5.057
40981SOL    HW224841   9.314   1.916   4.969
40982SOL     OW24842  14.405   0.704   1.949
40982SOL    HW124843  14.409   0.754   1.867
40982SOL    HW224844  14.480   0.737   2.000
40983SOL     OW24845   5.899  13.468  13.208
40983SOL    HW124846   5.888  13.421  13.291
40983SOL    HW224847   5.891  13.560  13.232
40984SOL     OW24848  14.810   8.651  13.197
40984SOL    HW124849  14.756   8.716  13.241
40984SOL    HW224850   0.018   8.675  13.219
40985SOL     OW24851   7.059   9.520   2.130
40985SOL    HW124852   7.075   9.489   2.041
40985SOL    HW224853   7.146   9.528   2.169
40986SOL     OW24854   9.030  13.040   1.433
40986SOL    HW124855   8.983  13.063   1.513
40986SOL    HW224856   8.968  13.059   1.363
40987SOL     OW24857  14.207   2.581   8.403
40987SOL    HW124858  14.197   2.495   8.364
40987SOL    HW224859  14.294   2.578   8.444
40988SOL     OW24860   9.773  11.806  13.563
40988SOL    HW124861   9.764  11.881  13.505
40988SOL    HW224862   9.700  11.749  13.540
40989SOL     OW24863   9.764   9.594   2.721
40989SOL    HW124864   9.715   9.659   2.773
40989SOL    HW224865   9.777   9.636   2.636
40990SOL     OW24866  13.733   8.683   6.982
40990SOL    HW124867  13.724   8.641   7.068
40990SOL    HW224868  13.717   8.776   6.999
40991SOL     OW24869  11.121   4.353  14.058
40991SOL    HW124870  11.075   4.269  14.064
40991SOL    HW224871  11.055   4.414  14.026
40992SOL     OW24872  13.540  13.606   1.688
40992SOL    HW124873  13.475  13.553   1.643
40992SOL    HW224874  13.624  13.569   1.661
40993SOL     OW24875   2.844  11.762   9.059
40993SOL    HW124876   2.895  11.790   8.983
40993SOL    HW224877   2.836  11.667   9.048
40994SOL     OW24878   2.782   2.978   9.475
40994SOL    HW124879   2.720   2.945   9.539
40994SOL    HW224880   2.729   3.029   9.414
40995SOL     OW24881   4.749   0.063   0.787
40995SOL    HW124882   4.758  14.850   0.795
40995SOL    HW224883   4.703   0.076   0.704
40996SOL     OW24884   8.252  14.578   4.151
40996SOL    HW124885   8.300  14.501   4.180
40996SOL    HW224886   8.319  14.639   4.121
40997SOL     OW24887  12.769   1.490  13.114
40997SOL    HW124888  12.739   1.455  13.198
40997SOL    HW224889  12.775   1.413  13.057
40998SOL     OW24890   8.572   3.562  12.148
40998SOL    HW124891   8.567   3.657  12.138
40998SOL    HW224892   8.608   3.549  12.236
40999SOL     OW24893  14.798  13.765  12.053
40999SOL    HW124894  14.846  13.848  12.056
40999SOL    HW224895  14.844  13.708  12.114
41000SOL     OW24896   7.085  12.736   8.946
41000SOL    HW124897   7.015  12.791   8.982
41000SOL    HW224898   7.042  12.688   8.875
41001SOL     OW24899  12.819   8.856   1.586
41001SOL    HW124900  12.906   8.820   1.603
41001SOL    HW224901  12.833   8.950   1.575
41002SOL     OW24902   3.709  12.172   9.727
41002SOL    HW124903   3.645  12.121   9.677
41002SOL    HW224904   3.678  12.263   9.718
41003SOL     OW24905  10.054   8.955   2.162
41003SOL    HW124906  10.008   9.007   2.096
41003SOL    HW224907  10.136   9.001   2.177
41004SOL     OW24908  12.174   9.968  12.546
41004SOL    HW124909  12.106   9.902  12.534
41004SOL    HW224910  12.244   9.942  12.486
41005SOL     OW24911  10.787   0.332   8.680
41005SOL    HW124912  10.844   0.384   8.738
41005SOL    HW224913  10.705   0.324   8.728
41006SOL     OW24914  12.094   7.314   7.484
41006SOL    HW124915  12.138   7.266   7.554
41006SOL    HW224916  12.062   7.394   7.526
41007SOL     OW24917   0.539   0.872   8.715
41007SOL    HW124918   0.511   0.784   8.740
41007SOL    HW224919   0.562   0.864   8.622
41008SOL     OW24920   6.983   2.277   3.940
41008SOL    HW124921   6.954   2.349   3.883
41008SOL    HW224922   7.012   2.320   4.020
41009SOL     OW24923   6.809  13.859   8.848
41009SOL    HW124924   6.858  13.817   8.778
41009SOL    HW224925   6.767  13.934   8.807
41010SOL     OW24926  13.942   8.564   2.593
41010SOL    HW124927  13.994   8.582   2.514
41010SOL    HW224928  13.933   8.649   2.636
41011SOL     OW24929  10.872   1.228   5.561
41011SOL    HW124930  10.844   1.259   5.648
41011SOL    HW224931  10.966   1.248   5.558
41012SOL     OW24932  12.740   4.981   3.297
41012SOL    HW124933  12.763   4.891   3.273
41012SOL    HW224934  12.795   5.035   3.241
41013SOL     OW24935   2.984  14.114  11.046
41013SOL    HW124936   2.909  14.079  11.094
41013SOL    HW224937   3.047  14.042  11.044
41014SOL     OW24938   2.468  14.281   6.204
41014SOL    HW124939   2.526  14.306   6.275
41014SOL    HW224940   2.509  14.204   6.164
41015SOL     OW24941   1.463   7.943   3.528
41015SOL    HW124942   1.447   7.957   3.621
41015SOL    HW224943   1.516   7.864   3.524
41016SOL     OW24944   1.596   1.086   8.467
41016SOL    HW124945   1.554   1.006   8.436
41016SOL    HW224946   1.628   1.129   8.388
41017SOL     OW24947   8.089   4.892  13.604
41017SOL    HW124948   8.123   4.980  13.591
41017SOL    HW224949   7.995   4.900  13.587
41018SOL     OW24950  12.347   5.275   4.420
41018SOL    HW124951  12.357   5.366   4.391
41018SOL    HW224952  12.433   5.251   4.454
41019SOL     OW24953  10.113   5.107  13.766
41019SOL    HW124954  10.138   5.047  13.836
41019SOL    HW224955  10.158   5.189  13.786
41020SOL     OW24956   5.485   2.842   4.310
41020SOL    HW124957   5.487   2.810   4.220
41020SOL    HW224958   5.570   2.816   4.347
41021SOL     OW24959   7.530  13.652   4.229
41021SOL    HW124960   7.607  13.702   4.255
41021SOL    HW224961   7.504  13.605   4.309
41022SOL     OW24962   1.311   1.017   2.581
41022SOL    HW124963   1.331   1.013   2.488
41022SOL    HW224964   1.358   1.094   2.613
41023SOL     OW24965  13.850  13.326  13.178
41023SOL    HW124966  13.760  13.332  13.148
41023SOL    HW224967  13.901  13.308  13.099
41024SOL     OW24968  12.362  12.074   5.783
41024SOL    HW124969  12.294  12.020   5.823
41024SOL    HW224970  12.425  12.011   5.749
41025SOL     OW24971   4.592   3.064   4.905
41025SOL    HW124972   4.561   2.994   4.847
41025SOL    HW224973   4.514   3.118   4.921
41026SOL     OW24974   2.040   7.157  14.201
41026SOL    HW124975   1.966   7.115  14.157
41026SOL    HW224976   2.033   7.250  14.177
41027SOL     OW24977  13.198  13.250   3.481
41027SOL    HW124978  13.192  13.156   3.466
41027SOL    HW224979  13.267  13.259   3.547
41028SOL     OW24980   2.452  14.647  12.595
41028SOL    HW124981   2.405  14.565  12.613
41028SOL    HW224982   2.544  14.626  12.613
41029SOL     OW24983   6.731   8.064   6.249
41029SOL    HW124984   6.802   8.073   6.312
41029SOL    HW224985   6.733   7.971   6.224
41030SOL     OW24986  10.179   9.352  13.644
41030SOL    HW124987  10.174   9.443  13.616
41030SOL    HW224988  10.265   9.344  13.685
41031SOL     OW24989   7.267  13.784   5.613
41031SOL    HW124990   7.316  13.706   5.639
41031SOL    HW224991   7.226  13.759   5.530
41032SOL     OW24992   2.782   4.648   8.455
41032SOL    HW124993   2.844   4.667   8.526
41032SOL    HW224994   2.725   4.725   8.451
41033SOL     OW24995  13.632   3.938   7.549
41033SOL    HW124996  13.712   3.919   7.597
41033SOL    HW224997  13.635   3.880   7.473
41034SOL     OW24998   1.011   5.443   6.298
41034SOL    HW124999   1.079   5.509   6.285
41034SOL    HW225000   0.958   5.447   6.219
41035SOL     OW25001   5.436  13.598   8.490
41035SOL    HW125002   5.343  13.578   8.489
41035SOL    HW225003   5.442  13.689   8.463
41036SOL     OW25004  10.607   4.513   9.573
41036SOL    HW125005  10.609   4.549   9.662
41036SOL    HW225006  10.520   4.534   9.540
41037SOL     OW25007   2.631  10.818  10.028
41037SOL    HW125008   2.691  10.859  10.090
41037SOL    HW225009   2.661  10.846   9.942
41038SOL     OW25010   6.839   8.855   2.008
41038SOL    HW125011   6.912   8.843   2.070
41038SOL    HW225012   6.774   8.905   2.057
41039SOL     OW25013   8.073   4.708   0.762
41039SOL    HW125014   8.150   4.681   0.812
41039SOL    HW225015   8.005   4.645   0.786
41040SOL     OW25016   9.933  11.848   1.351
41040SOL    HW125017   9.955  11.818   1.263
41040SOL    HW225018   9.940  11.769   1.405
41041SOL     OW25019  13.309   1.107   7.162
41041SOL    HW125020  13.218   1.137   7.152
41041SOL    HW225021  13.309   1.059   7.245
41042SOL     OW25022   3.976   9.003   4.377
41042SOL    HW125023   3.988   8.917   4.336
41042SOL    HW225024   4.049   9.055   4.343
41043SOL     OW25025   4.110   3.675   2.014
41043SOL    HW125026   4.097   3.716   2.100
41043SOL    HW225027   4.204   3.683   1.998
41044SOL     OW25028   0.284  14.025   3.377
41044SOL    HW125029   0.364  14.077   3.367
41044SOL    HW225030   0.311  13.948   3.428
41045SOL     OW25031   1.450   5.498   9.366
41045SOL    HW125032   1.355   5.485   9.373
41045SOL    HW225033   1.482   5.416   9.328
41046SOL     OW25034  10.067  13.823   7.794
41046SOL    HW125035  10.023  13.746   7.759
41046SOL    HW225036   9.999  13.890   7.798
41047SOL     OW25037   6.388   5.861   7.360
41047SOL    HW125038   6.310   5.888   7.409
41047SOL    HW225039   6.460   5.873   7.421
41048SOL     OW25040   3.098   4.429   1.724
41048SOL    HW125041   3.007   4.406   1.739
41048SOL    HW225042   3.116   4.499   1.786
41049SOL     OW25043  11.873  13.744  11.750
41049SOL    HW125044  11.882  13.681  11.821
41049SOL    HW225045  11.783  13.732  11.719
41050SOL     OW25046   9.509   5.711  10.581
41050SOL    HW125047   9.466   5.781  10.630
41050SOL    HW225048   9.438   5.667  10.534
41051SOL     OW25049  14.613   8.825  10.219
41051SOL    HW125050  14.577   8.805  10.133
41051SOL    HW225051  14.557   8.896  10.252
41052SOL     OW25052   1.772   9.348   9.142
41052SOL    HW125053   1.705   9.282   9.130
41052SOL    HW225054   1.833   9.335   9.069
41053SOL     OW25055  14.253   6.423  11.431
41053SOL    HW125056  14.343   6.453  11.443
41053SOL    HW225057  14.246   6.343  11.484
41054SOL     OW25058  13.157   3.969  10.775
41054SOL    HW125059  13.157   3.974  10.679
41054SOL    HW225060  13.166   3.876  10.794
41055SOL     OW25061   4.050   5.668   1.971
41055SOL    HW125062   4.025   5.760   1.969
41055SOL    HW225063   4.132   5.664   1.921
41056SOL     OW25064   2.957   1.152   9.230
41056SOL    HW125065   3.019   1.222   9.246
41056SOL    HW225066   2.891   1.190   9.171
41057SOL     OW25067   0.389   9.105  10.773
41057SOL    HW125068   0.301   9.073  10.758
41057SOL    HW225069   0.401   9.175  10.709
41058SOL     OW25070  12.345   4.280  14.639
41058SOL    HW125071  12.329   4.374  14.641
41058SOL    HW225072  12.263   4.242  14.608
41059SOL     OW25073   6.526  12.184   5.885
41059SOL    HW125074   6.527  12.152   5.975
41059SOL    HW225075   6.433  12.182   5.859
41060SOL     OW25076  14.270   2.717   1.207
41060SOL    HW125077  14.286   2.631   1.245
41060SOL    HW225078  14.260   2.701   1.113
41061SOL     OW25079   9.363  12.247   4.328
41061SOL    HW125080   9.294  12.280   4.385
41061SOL    HW225081   9.316  12.210   4.253
41062SOL     OW25082   6.083  13.125   3.618
41062SOL    HW125083   6.149  13.107   3.552
41062SOL    HW225084   6.043  13.040   3.637
41063SOL     OW25085  11.144  12.910   9.920
41063SOL    HW125086  11.170  12.965   9.846
41063SOL    HW225087  11.050  12.897   9.907
41064SOL     OW25088   6.704   8.884   3.521
41064SOL    HW125089   6.747   8.897   3.605
41064SOL    HW225090   6.771   8.907   3.456
41065SOL     OW25091   1.957   1.162  12.248
41065SOL    HW125092   1.983   1.180  12.157
41065SOL    HW225093   2.012   1.088  12.274
41066SOL     OW25094  11.002   6.164  14.830
41066SOL    HW125095  11.095   6.141  14.825
41066SOL    HW225096  10.961   6.111  14.762
41067SOL     OW25097   4.328   0.474  14.092
41067SOL    HW125098   4.260   0.446  14.154
41067SOL    HW225099   4.362   0.393  14.056
41068SOL     OW25100  10.033   2.950   1.209
41068SOL    HW125101  10.081   2.920   1.287
41068SOL    HW225102  10.006   3.039   1.231
41069SOL     OW25103   6.010  11.850  13.483
41069SOL    HW125104   6.081  11.913  13.493
41069SOL    HW225105   5.951  11.870  13.555
41070SOL     OW25106  10.594   4.339  10.657
41070SOL    HW125107  10.617   4.373  10.744
41070SOL    HW225108  10.503   4.311  10.666
41071SOL     OW25109  10.292   6.917  10.596
41071SOL    HW125110  10.206   6.887  10.625
41071SOL    HW225111  10.301   7.004  10.635
41072SOL     OW25112   5.535   2.042  14.490
41072SOL    HW125113   5.596   2.020  14.420
41072SOL    HW225114   5.578   2.012  14.570
41073SOL     OW25115  11.273   9.609  10.153
41073SOL    HW125116  11.288   9.537  10.092
41073SOL    HW225117  11.323   9.585  10.231
41074SOL     OW25118  13.300   5.285  11.135
41074SOL    HW125119  13.369   5.241  11.086
41074SOL    HW225120  13.333   5.288  11.225
41075SOL     OW25121   5.693   5.171  14.481
41075SOL    HW125122   5.599   5.172  14.499
41075SOL    HW225123   5.728   5.244  14.532
41076SOL     OW25124   9.365  12.635   8.657
41076SOL    HW125125   9.459  12.617   8.656
41076SOL    HW225126   9.356  12.719   8.611
41077SOL     OW25127  14.650  10.992   8.162
41077SOL    HW125128  14.566  10.972   8.204
41077SOL    HW225129  14.655  11.088   8.163
41078SOL     OW25130   8.584  11.781  11.623
41078SOL    HW125131   8.510  11.768  11.564
41078SOL    HW225132   8.544  11.799  11.708
41079SOL     OW25133   3.937   8.676  13.359
41079SOL    HW125134   3.871   8.624  13.404
41079SOL    HW225135   4.020   8.648  13.398
41080SOL     OW25136   4.783   1.622   9.674
41080SOL    HW125137   4.812   1.665   9.755
41080SOL    HW225138   4.816   1.678   9.604
41081SOL     OW25139   3.028   2.820   0.460
41081SOL    HW125140   3.044   2.727   0.442
41081SOL    HW225141   3.100   2.846   0.517
41082SOL     OW25142   7.463   8.801  10.537
41082SOL    HW125143   7.400   8.758  10.595
41082SOL    HW225144   7.446   8.894  10.548
41083SOL     OW25145  11.044  11.235   7.356
41083SOL    HW125146  11.022  11.185   7.277
41083SOL    HW225147  11.066  11.322   7.324
41084SOL     OW25148  10.965   5.192  14.591
41084SOL    HW125149  10.871   5.182  14.580
41084SOL    HW225150  10.985   5.143  14.670
41085SOL     OW25151  14.339   9.970  12.248
41085SOL    HW125152  14.290  10.033  12.196
41085SOL    HW225153  14.384   9.915  12.184
41086SOL     OW25154   0.857  12.480   8.569
41086SOL    HW125155   0.817  12.422   8.504
41086SOL    HW225156   0.936  12.433   8.597
41087SOL     OW25157   6.527  13.522  10.805
41087SOL    HW125158   6.612  13.563  10.820
41087SOL    HW225159   6.491  13.507  10.893
41088SOL     OW25160  11.977   3.259   9.518
41088SOL    HW125161  11.976   3.230   9.609
41088SOL    HW225162  11.927   3.341   9.518
41089SOL     OW25163   1.469  13.553   3.876
41089SOL    HW125164   1.392  13.511   3.837
41089SOL    HW225165   1.520  13.480   3.912
41090SOL     OW25166   9.558  13.423  10.343
41090SOL    HW125167   9.468  13.412  10.313
41090SOL    HW225168   9.550  13.458  10.431
41091SOL     OW25169   7.454  14.325   9.298
41091SOL    HW125170   7.530  14.309   9.354
41091SOL    HW225171   7.460  14.418   9.275
41092SOL     OW25172  11.446  11.878   1.583
41092SOL    HW125173  11.353  11.899   1.576
41092SOL    HW225174  11.491  11.954   1.546
41093SOL     OW25175  14.663   0.247   6.821
41093SOL    HW125176  14.711   0.316   6.775
41093SOL    HW225177  14.637   0.287   6.904
41094SOL     OW25178   6.806   9.288  10.324
41094SOL    HW125179   6.846   9.350  10.385
41094SOL    HW225180   6.870   9.217  10.316
41095SOL     OW25181  14.379   2.432   8.857
41095SOL    HW125182  14.450   2.446   8.918
41095SOL    HW225183  14.322   2.368   8.900
41096SOL     OW25184   5.819  10.798   2.182
41096SOL    HW125185   5.820  10.869   2.117
41096SOL    HW225186   5.878  10.828   2.251
41097SOL     OW25187   4.284   8.312   4.210
41097SOL    HW125188   4.352   8.364   4.166
41097SOL    HW225189   4.204   8.362   4.198
41098SOL     OW25190  12.841  10.329   0.122
41098SOL    HW125191  12.855  10.378   0.041
41098SOL    HW225192  12.747  10.331   0.136
41099SOL     OW25193  10.513   1.220   1.883
41099SOL    HW125194  10.477   1.194   1.968
41099SOL    HW225195  10.558   1.303   1.899
41100SOL     OW25196   2.445  13.619   6.456
41100SOL    HW125197   2.396  13.609   6.538
41100SOL    HW225198   2.408  13.698   6.416
41101SOL     OW25199   5.496  13.847   1.287
41101SOL    HW125200   5.488  13.775   1.350
41101SOL    HW225201   5.567  13.901   1.322
41102SOL     OW25202   1.383  12.077  12.444
41102SOL    HW125203   1.301  12.044  12.482
41102SOL    HW225204   1.396  12.025  12.365
41103SOL     OW25205   7.676   4.215   5.820
41103SOL    HW125206   7.693   4.266   5.741
41103SOL    HW225207   7.723   4.133   5.806
41104SOL     OW25208  10.936  11.227  13.774
41104SOL    HW125209  11.027  11.224  13.743
41104SOL    HW225210  10.891  11.160  13.723
41105SOL     OW25211  11.294  10.529   5.215
41105SOL    HW125212  11.209  10.508   5.176
41105SOL    HW225213  11.282  10.519   5.309
41106SOL     OW25214  12.931  10.603   8.867
41106SOL    HW125215  12.999  10.567   8.923
41106SOL    HW225216  12.870  10.531   8.853
41107SOL     OW25217   3.700  13.850  10.619
41107SOL    HW125218   3.647  13.842  10.699
41107SOL    HW225219   3.751  13.770  10.615
41108SOL     OW25220   8.359   4.575   6.975
41108SOL    HW125221   8.351   4.512   6.903
41108SOL    HW225222   8.271   4.581   7.012
41109SOL     OW25223  14.043   5.349  11.953
41109SOL    HW125224  14.111   5.303  11.904
41109SOL    HW225225  14.067   5.335  12.045
41110SOL     OW25226   9.096   1.244   8.859
41110SOL    HW125227   9.172   1.232   8.801
41110SOL    HW225228   9.123   1.205   8.942
41111SOL     OW25229   2.824   7.485  11.830
41111SOL    HW125230   2.828   7.549  11.758
41111SOL    HW225231   2.734   7.492  11.863
41112SOL     OW25232   4.171   6.827  14.316
41112SOL    HW125233   4.184   6.899  14.254
41112SOL    HW225234   4.255   6.820  14.362
41113SOL     OW25235   6.924  13.448  12.474
41113SOL    HW125236   6.994  13.471  12.534
41113SOL    HW225237   6.968  13.403  12.402
41114SOL     OW25238   1.449   0.801  14.692
41114SOL    HW125239   1.436   0.707  14.706
41114SOL    HW225240   1.364   0.833  14.664
41115SOL     OW25241   7.090   5.713   1.061
41115SOL    HW125242   7.068   5.806   1.049
41115SOL    HW225243   7.172   5.701   1.013
41116SOL     OW25244   5.684   6.931   1.972
41116SOL    HW125245   5.746   6.876   2.020
41116SOL    HW225246   5.662   7.002   2.033
41117SOL     OW25247   1.034  13.023   9.707
41117SOL    HW125248   0.940  13.011   9.697
41117SOL    HW225249   1.057  13.086   9.638
41118SOL     OW25250   4.545   0.909  12.031
41118SOL    HW125251   4.590   0.827  12.053
41118SOL    HW225252   4.598   0.947  11.961
41119SOL     OW25253   3.361  14.241   8.157
41119SOL    HW125254   3.410  14.314   8.195
41119SOL    HW225255   3.423  14.168   8.158
41120SOL     OW25256   8.119   5.092   3.045
41120SOL    HW125257   8.055   5.022   3.037
41120SOL    HW225258   8.085   5.149   3.113
41121SOL     OW25259   0.422   3.566   0.659
41121SOL    HW125260   0.411   3.660   0.646
41121SOL    HW225261   0.390   3.526   0.577
41122SOL     OW25262   9.622  13.404   8.713
41122SOL    HW125263   9.668  13.371   8.790
41122SOL    HW225264   9.658  13.492   8.699
41123SOL     OW25265   9.528  10.737   5.928
41123SOL    HW125266   9.454  10.677   5.939
41123SOL    HW225267   9.606  10.682   5.942
41124SOL     OW25268  10.770  10.166   2.376
41124SOL    HW125269  10.805  10.157   2.287
41124SOL    HW225270  10.705  10.236   2.370
41125SOL     OW25271  11.988   4.626   7.048
41125SOL    HW125272  11.964   4.678   6.972
41125SOL    HW225273  12.076   4.654   7.070
41126SOL     OW25274   0.097  11.275   6.554
41126SOL    HW125275   0.065  11.185   6.542
41126SOL    HW225276   0.101  11.286   6.649
41127SOL     OW25277   9.959  13.159   1.533
41127SOL    HW125278   9.960  13.101   1.609
41127SOL    HW225279   9.999  13.108   1.463
41128SOL     OW25280   0.533  13.300   1.024
41128SOL    HW125281   0.583  13.242   1.082
41128SOL    HW225282   0.568  13.282   0.937
41129SOL     OW25283  14.069  12.215  14.824
41129SOL    HW125284  14.078  12.219   0.037
41129SOL    HW225285  14.063  12.122  14.803
41130SOL     OW25286   7.161  12.064  14.431
41130SOL    HW125287   7.111  12.119  14.491
41130SOL    HW225288   7.114  11.980  14.431
41131SOL     OW25289   5.639   3.105   0.772
41131SOL    HW125290   5.544   3.101   0.782
41131SOL    HW225291   5.657   3.198   0.755
41132SOL     OW25292   3.902  14.237   1.839
41132SOL    HW125293   3.940  14.205   1.921
41132SOL    HW225294   3.978  14.262   1.786
41133SOL     OW25295   8.594  10.421   7.602
41133SOL    HW125296   8.653  10.399   7.673
41133SOL    HW225297   8.515  10.370   7.619
41134SOL     OW25298   9.259  13.929  14.155
41134SOL    HW125299   9.234  13.917  14.247
41134SOL    HW225300   9.180  13.909  14.106
41135SOL     OW25301   8.490   8.528   9.858
41135SOL    HW125302   8.562   8.590   9.846
41135SOL    HW225303   8.532   8.445   9.880
41136SOL     OW25304   5.185   4.828   4.288
41136SOL    HW125305   5.211   4.914   4.319
41136SOL    HW225306   5.095   4.817   4.318
41137SOL     OW25307   4.030  14.229   6.288
41137SOL    HW125308   4.001  14.294   6.224
41137SOL    HW225309   3.988  14.256   6.370
41138SOL     OW25310  12.705  12.086   3.036
41138SOL    HW125311  12.711  12.176   3.003
41138SOL    HW225312  12.684  12.034   2.959
41139SOL     OW25313   5.373   2.273  14.801
41139SOL    HW125314   5.378   2.201  14.863
41139SOL    HW225315   5.281   2.297  14.799
41140SOL     OW25316   2.567  10.050   4.513
41140SOL    HW125317   2.487  10.078   4.559
41140SOL    HW225318   2.633  10.043   4.582
41141SOL     OW25319   9.280  12.077   6.770
41141SOL    HW125320   9.210  12.028   6.725
41141SOL    HW225321   9.249  12.083   6.861
41142SOL     OW25322   5.378   6.814  11.632
41142SOL    HW125323   5.343   6.892  11.587
41142SOL    HW225324   5.414   6.848  11.714
41143SOL     OW25325   4.298  10.143   3.200
41143SOL    HW125326   4.284  10.058   3.158
41143SOL    HW225327   4.391  10.161   3.188
41144SOL     OW25328  14.666   2.012  11.516
41144SOL    HW125329  14.689   1.985  11.605
41144SOL    HW225330  14.586   1.963  11.496
41145SOL     OW25331  11.098  14.696   9.869
41145SOL    HW125332  11.024  14.683   9.929
41145SOL    HW225333  11.152  14.763   9.911
41146SOL     OW25334   7.615  14.851   6.148
41146SOL    HW125335   7.523  14.826   6.143
41146SOL    HW225336   7.634   0.008   6.063
41147SOL     OW25337   5.615   0.908  11.539
41147SOL    HW125338   5.595   0.957  11.458
41147SOL    HW225339   5.687   0.957  11.578
41148SOL     OW25340   1.002   0.891   6.850
41148SOL    HW125341   1.040   0.841   6.922
41148SOL    HW225342   0.972   0.972   6.890
41149SOL     OW25343   1.484   2.021   1.327
41149SOL    HW125344   1.512   1.930   1.331
41149SOL    HW225345   1.483   2.050   1.419
41150SOL     OW25346   8.175  13.131  13.462
41150SOL    HW125347   8.193  13.164  13.551
41150SOL    HW225348   8.243  13.066  13.447
41151SOL     OW25349   0.903   4.112   6.868
41151SOL    HW125350   0.903   4.206   6.883
41151SOL    HW225351   0.919   4.073   6.954
41152SOL     OW25352   5.476   3.645   6.469
41152SOL    HW125353   5.497   3.552   6.471
41152SOL    HW225354   5.559   3.688   6.450
41153SOL     OW25355   9.206   5.691   1.290
41153SOL    HW125356   9.255   5.636   1.229
41153SOL    HW225357   9.260   5.694   1.369
41154SOL     OW25358   9.342   7.213   0.085
41154SOL    HW125359   9.406   7.142   0.086
41154SOL    HW225360   9.329   7.234   0.178
41155SOL     OW25361   8.246   9.882  12.341
41155SOL    HW125362   8.179   9.896  12.408
41155SOL    HW225363   8.249   9.787  12.329
41156SOL     OW25364  14.161   0.986   5.319
41156SOL    HW125365  14.087   0.984   5.258
41156SOL    HW225366  14.231   0.941   5.272
41157SOL     OW25367   9.445  13.739   2.391
41157SOL    HW125368   9.528  13.691   2.392
41157SOL    HW225369   9.393  13.696   2.322
41158SOL     OW25370  11.159   4.938   0.902
41158SOL    HW125371  11.211   4.860   0.921
41158SOL    HW225372  11.220   5.010   0.911
41159SOL     OW25373   7.888   3.400   8.096
41159SOL    HW125374   7.867   3.307   8.102
41159SOL    HW225375   7.983   3.404   8.093
41160SOL     OW25376  12.778   5.031  11.075
41160SOL    HW125377  12.804   5.118  11.105
41160SOL    HW225378  12.838   5.012  11.003
41161SOL     OW25379   0.990   9.599  12.779
41161SOL    HW125380   0.990   9.514  12.824
41161SOL    HW225381   1.009   9.577  12.688
41162SOL     OW25382  12.945   5.193   4.703
41162SOL    HW125383  13.036   5.164   4.703
41162SOL    HW225384  12.927   5.215   4.611
41163SOL     OW25385   4.232   4.012   5.682
41163SOL    HW125386   4.270   4.021   5.594
41163SOL    HW225387   4.254   3.923   5.709
41164SOL     OW25388   7.834  12.100   9.552
41164SOL    HW125389   7.918  12.083   9.509
41164SOL    HW225390   7.811  12.189   9.527
41165SOL     OW25391   5.736   1.831   6.412
41165SOL    HW125392   5.673   1.766   6.381
41165SOL    HW225393   5.712   1.845   6.504
41166SOL     OW25394   4.265   0.572   6.278
41166SOL    HW125395   4.207   0.529   6.341
41166SOL    HW225396   4.215   0.572   6.196
41167SOL     OW25397   8.442  13.045   1.564
41167SOL    HW125398   8.404  12.988   1.498
41167SOL    HW225399   8.440  13.133   1.524
41168SOL     OW25400  13.089   9.650   8.063
41168SOL    HW125401  13.111   9.736   8.026
41168SOL    HW225402  13.145   9.642   8.140
41169SOL     OW25403   9.062   8.866  13.735
41169SOL    HW125404   8.997   8.837  13.799
41169SOL    HW225405   9.145   8.862  13.782
41170SOL     OW25406   8.556  10.417   9.193
41170SOL    HW125407   8.533  10.444   9.282
41170SOL    HW225408   8.551  10.497   9.141
41171SOL     OW25409   9.902   1.755   7.033
41171SOL    HW125410   9.860   1.762   7.118
41171SOL    HW225411   9.961   1.680   7.041
41172SOL     OW25412   3.484   7.884   2.793
41172SOL    HW125413   3.396   7.921   2.803
41172SOL    HW225414   3.540   7.943   2.844
41173SOL     OW25415  11.228   7.717   6.093
41173SOL    HW125416  11.157   7.715   6.028
41173SOL    HW225417  11.281   7.792   6.068
41174SOL     OW25418  10.480  11.699  10.593
41174SOL    HW125419  10.453  11.654  10.513
41174SOL    HW225420  10.510  11.628  10.651
41175SOL     OW25421   0.649  11.118   7.614
41175SOL    HW125422   0.662  11.095   7.706
41175SOL    HW225423   0.604  11.043   7.576
41176SOL     OW25424  13.322   9.022   5.406
41176SOL    HW125425  13.364   9.025   5.492
41176SOL    HW225426  13.393   9.038   5.344
41177SOL     OW25427  10.905   9.450   2.869
41177SOL    HW125428  10.906   9.409   2.782
41177SOL    HW225429  10.887   9.543   2.851
41178SOL     OW25430   6.592  12.099   8.487
41178SOL    HW125431   6.606  12.193   8.483
41178SOL    HW225432   6.582  12.080   8.581
41179SOL     OW25433   9.278   4.830   8.033
41179SOL    HW125434   9.241   4.745   8.011
41179SOL    HW225435   9.373   4.817   8.028
41180SOL     OW25436  14.432   5.948   7.738
41180SOL    HW125437  14.348   5.990   7.758
41180SOL    HW225438  14.444   5.883   7.808
41181SOL     OW25439   0.194   9.534   3.149
41181SOL    HW125440   0.194   9.630   3.144
41181SOL    HW225441   0.155   9.515   3.234
41182SOL     OW25442   4.294   2.472  14.316
41182SOL    HW125443   4.209   2.512  14.334
41182SOL    HW225444   4.347   2.543  14.280
41183SOL     OW25445   8.163   5.512   2.409
41183SOL    HW125446   8.174   5.542   2.319
41183SOL    HW225447   8.138   5.590   2.457
41184SOL     OW25448   7.550   1.380  13.215
41184SOL    HW125449   7.581   1.470  13.212
41184SOL    HW225450   7.460   1.385  13.182
41185SOL     OW25451   6.373  12.005  12.690
41185SOL    HW125452   6.363  12.026  12.783
41185SOL    HW225453   6.283  12.006  12.656
41186SOL     OW25454  12.391  12.862  12.099
41186SOL    HW125455  12.450  12.866  12.023
41186SOL    HW225456  12.309  12.899  12.068
41187SOL     OW25457  12.667  11.150  12.346
41187SOL    HW125458  12.732  11.081  12.336
41187SOL    HW225459  12.678  11.182  12.435
41188SOL     OW25460   9.761   4.027   4.355
41188SOL    HW125461   9.833   4.080   4.320
41188SOL    HW225462   9.782   3.937   4.329
41189SOL     OW25463   6.292  10.543   7.693
41189SOL    HW125464   6.239  10.590   7.629
41189SOL    HW225465   6.381  10.543   7.656
41190SOL     OW25466   4.859   8.801   1.069
41190SOL    HW125467   4.801   8.727   1.083
41190SOL    HW225468   4.889   8.825   1.157
41191SOL     OW25469  11.303   2.716   8.033
41191SOL    HW125470  11.230   2.660   8.004
41191SOL    HW225471  11.261   2.784   8.085
41192SOL     OW25472   0.140   1.310   3.540
41192SOL    HW125473   0.122   1.330   3.448
41192SOL    HW225474   0.229   1.343   3.554
41193SOL     OW25475   0.034  11.446  14.870
41193SOL    HW125476   0.003  11.520   0.040
41193SOL    HW225477  14.866  11.371   0.021
41194SOL     OW25478   8.255   3.639   6.204
41194SOL    HW125479   8.349   3.652   6.195
41194SOL    HW225480   8.246   3.551   6.240
41195SOL     OW25481   8.065  12.169  12.113
41195SOL    HW125482   8.069  12.083  12.071
41195SOL    HW225483   8.009  12.156  12.189
41196SOL     OW25484   2.600   6.340  10.017
41196SOL    HW125485   2.531   6.404   9.999
41196SOL    HW225486   2.659   6.385  10.077
41197SOL     OW25487   6.743   3.636  13.511
41197SOL    HW125488   6.742   3.609  13.420
41197SOL    HW225489   6.651   3.656  13.531
41198SOL     OW25490   9.191   5.496  14.163
41198SOL    HW125491   9.165   5.414  14.205
41198SOL    HW225492   9.272   5.475  14.117
41199SOL     OW25493   2.918   0.055   8.586
41199SOL    HW125494   2.862   0.039   8.510
41199SOL    HW225495   2.875   0.007   8.657
41200SOL     OW25496   7.172   1.904   4.746
41200SOL    HW125497   7.191   1.816   4.778
41200SOL    HW225498   7.254   1.933   4.705
41201SOL     OW25499   2.059  11.199   7.228
41201SOL    HW125500   2.099  11.201   7.141
41201SOL    HW225501   2.032  11.108   7.240
41202SOL     OW25502  11.601  12.726   6.083
41202SOL    HW125503  11.608  12.700   5.992
41202SOL    HW225504  11.654  12.805   6.090
41203SOL     OW25505   7.051   6.907   5.287
41203SOL    HW125506   7.090   6.969   5.225
41203SOL    HW225507   7.030   6.961   5.364
41204SOL     OW25508   7.302   0.706   6.982
41204SOL    HW125509   7.374   0.730   6.924
41204SOL    HW225510   7.284   0.786   7.032
41205SOL     OW25511  11.166   9.134   6.878
41205SOL    HW125512  11.134   9.053   6.838
41205SOL    HW225513  11.087   9.182   6.903
41206SOL     OW25514  14.487   0.466   5.724
41206SOL    HW125515  14.532   0.494   5.644
41206SOL    HW225516  14.398   0.499   5.714
41207SOL     OW25517   6.781  13.830   6.458
41207SOL    HW125518   6.772  13.836   6.363
41207SOL    HW225519   6.874  13.841   6.475
41208SOL     OW25520  13.358   5.930   4.784
41208SOL    HW125521  13.334   5.838   4.797
41208SOL    HW225522  13.437   5.942   4.835
41209SOL     OW25523  12.125   2.093   4.134
41209SOL    HW125524  12.053   2.058   4.186
41209SOL    HW225525  12.088   2.104   4.046
41210SOL     OW25526   1.702  12.097   1.606
41210SOL    HW125527   1.709  12.171   1.546
41210SOL    HW225528   1.619  12.111   1.651
41211SOL     OW25529  12.533  12.271  11.817
41211SOL    HW125530  12.564  12.351  11.859
41211SOL    HW225531  12.438  12.274  11.829
41212SOL     OW25532   6.474   8.025   2.815
41212SOL    HW125533   6.447   8.025   2.722
41212SOL    HW225534   6.500   7.934   2.832
41213SOL     OW25535  14.644   2.052  14.575
41213SOL    HW125536  14.648   2.021  14.665
41213SOL    HW225537  14.617   2.143  14.582
41214SOL     OW25538   5.928   8.735  10.093
41214SOL    HW125539   5.937   8.660  10.035
41214SOL    HW225540   6.014   8.745  10.134
41215SOL     OW25541   7.788   7.183   8.658
41215SOL    HW125542   7.845   7.254   8.628
41215SOL    HW225543   7.705   7.227   8.677
41216SOL     OW25544  13.309   0.620   3.828
41216SOL    HW125545  13.389   0.630   3.776
41216SOL    HW225546  13.245   0.678   3.786
41217SOL     OW25547  12.524   5.912  13.174
41217SOL    HW125548  12.476   5.956  13.244
41217SOL    HW225549  12.484   5.944  13.094
41218SOL     OW25550  10.801  13.845   1.306
41218SOL    HW125551  10.756  13.928   1.324
41218SOL    HW225552  10.820  13.808   1.392
41219SOL     OW25553   5.034  11.395   0.302
41219SOL    HW125554   4.996  11.477   0.336
41219SOL    HW225555   5.122  11.419   0.275
41220SOL     OW25556   6.258   1.410   9.197
41220SOL    HW125557   6.210   1.454   9.268
41220SOL    HW225558   6.206   1.333   9.177
41221SOL     OW25559   2.845   3.602   4.764
41221SOL    HW125560   2.886   3.552   4.835
41221SOL    HW225561   2.860   3.549   4.686
41222SOL     OW25562   4.301   4.040  10.644
41222SOL    HW125563   4.338   4.030  10.557
41222SOL    HW225564   4.372   4.016  10.704
41223SOL     OW25565   0.637   3.539   6.594
41223SOL    HW125566   0.628   3.491   6.676
41223SOL    HW225567   0.620   3.474   6.526
41224SOL     OW25568   3.303  11.954   9.059
41224SOL    HW125569   3.367  11.952   9.130
41224SOL    HW225570   3.220  11.935   9.102
41225SOL     OW25571   7.255   8.092   9.571
41225SOL    HW125572   7.315   8.036   9.619
41225SOL    HW225573   7.191   8.032   9.533
41226SOL     OW25574   0.414   0.062   0.171
41226SOL    HW125575   0.440   0.146   0.209
41226SOL    HW225576   0.486   0.038   0.114
41227SOL     OW25577  13.408   5.194   2.617
41227SOL    HW125578  13.401   5.158   2.529
41227SOL    HW225579  13.485   5.251   2.614
41228SOL     OW25580   8.854   9.512   1.901
41228SOL    HW125581   8.770   9.556   1.912
41228SOL    HW225582   8.836   9.437   1.844
41229SOL     OW25583  11.166  13.872   9.045
41229SOL    HW125584  11.235  13.851   9.109
41229SOL    HW225585  11.092  13.901   9.098
41230SOL     OW25586  10.991   3.870  12.104
41230SOL    HW125587  10.978   3.821  12.024
41230SOL    HW225588  10.906   3.910  12.122
41231SOL     OW25589   8.105   3.720  11.031
41231SOL    HW125590   8.050   3.780  10.980
41231SOL    HW225591   8.050   3.643  11.045
41232SOL     OW25592   7.642  10.565   1.082
41232SOL    HW125593   7.593  10.529   1.008
41232SOL    HW225594   7.575  10.584   1.148
41233SOL     OW25595   6.547   4.385   4.984
41233SOL    HW125596   6.579   4.321   5.049
41233SOL    HW225597   6.583   4.469   5.013
41234SOL     OW25598   5.437   0.158   6.371
41234SOL    HW125599   5.527   0.148   6.339
41234SOL    HW225600   5.397   0.218   6.309
41235SOL     OW25601  10.525  14.290  13.529
41235SOL    HW125602  10.532  14.205  13.574
41235SOL    HW225603  10.462  14.339  13.581
41236SOL     OW25604   3.552   0.093   4.870
41236SOL    HW125605   3.643   0.062   4.872
41236SOL    HW225606   3.500   0.012   4.872
41237SOL     OW25607  11.965   0.342  14.586
41237SOL    HW125608  11.941   0.381  14.670
41237SOL    HW225609  12.059   0.360  14.577
41238SOL     OW25610   9.798  10.215   2.545
41238SOL    HW125611   9.794  10.136   2.599
41238SOL    HW225612   9.739  10.197   2.472
41239SOL     OW25613   5.196   6.016  11.910
41239SOL    HW125614   5.184   5.928  11.945
41239SOL    HW225615   5.278   6.047  11.950
41240SOL     OW25616  13.863   1.677   1.023
41240SOL    HW125617  13.884   1.770   1.008
41240SOL    HW225618  13.831   1.646   0.938
41241SOL     OW25619  10.700  12.218  10.718
41241SOL    HW125620  10.752  12.245  10.794
41241SOL    HW225621  10.740  12.136  10.690
41242SOL     OW25622   3.952   9.287   6.635
41242SOL    HW125623   3.899   9.363   6.611
41242SOL    HW225624   3.900   9.212   6.606
41243SOL     OW25625   2.926   1.157   6.804
41243SOL    HW125626   2.934   1.178   6.711
41243SOL    HW225627   2.837   1.184   6.828
41244SOL     OW25628  10.886  10.861   3.471
41244SOL    HW125629  10.805  10.907   3.451
41244SOL    HW225630  10.884  10.847   3.566
41245SOL     OW25631   2.988   9.829   4.723
41245SOL    HW125632   3.003   9.772   4.799
41245SOL    HW225633   2.964   9.768   4.653
41246SOL     OW25634   8.790  12.199   1.926
41246SOL    HW125635   8.707  12.246   1.938
41246SOL    HW225636   8.781  12.120   1.979
41247SOL     OW25637   8.199   1.084   9.237
41247SOL    HW125638   8.115   1.064   9.278
41247SOL    HW225639   8.254   1.116   9.309
41248SOL     OW25640   9.258   9.481   3.689
41248SOL    HW125641   9.175   9.450   3.726
41248SOL    HW225642   9.233   9.517   3.604
41249SOL     OW25643  10.793   2.710   0.426
41249SOL    HW125644  10.810   2.754   0.342
41249SOL    HW225645  10.830   2.769   0.492
41250SOL     OW25646   4.750   1.577  10.775
41250SOL    HW125647   4.681   1.641  10.789
41250SOL    HW225648   4.733   1.509  10.840
41251SOL     OW25649  11.309   7.349   1.205
41251SOL    HW125650  11.239   7.413   1.193
41251SOL    HW225651  11.267   7.277   1.253
41252SOL     OW25652   9.143  12.148   5.158
41252SOL    HW125653   9.177  12.209   5.222
41252SOL    HW225654   9.181  12.176   5.075
41253SOL     OW25655  10.851  10.142  13.715
41253SOL    HW125656  10.799  10.151  13.795
41253SOL    HW225657  10.922  10.205  13.725
41254SOL     OW25658   8.906   2.276  11.764
41254SOL    HW125659   8.904   2.287  11.669
41254SOL    HW225660   8.943   2.358  11.797
41255SOL     OW25661   5.677   6.285   7.700
41255SOL    HW125662   5.751   6.256   7.647
41255SOL    HW225663   5.651   6.368   7.660
41256SOL     OW25664  12.294   2.721   6.553
41256SOL    HW125665  12.370   2.737   6.497
41256SOL    HW225666  12.286   2.802   6.605
41257SOL     OW25667  11.327   1.215  12.282
41257SOL    HW125668  11.366   1.284  12.336
41257SOL    HW225669  11.355   1.134  12.324
41258SOL     OW25670   4.782   4.470  10.381
41258SOL    HW125671   4.731   4.510  10.451
41258SOL    HW225672   4.863   4.521  10.379
41259SOL     OW25673  11.444   4.533   8.775
41259SOL    HW125674  11.393   4.469   8.824
41259SOL    HW225675  11.496   4.579   8.841
41260SOL     OW25676   5.276  14.774   0.106
41260SOL    HW125677   5.362  14.813   0.120
41260SOL    HW225678   5.264  14.776   0.011
41261SOL     OW25679   9.156   5.630   5.237
41261SOL    HW125680   9.071   5.654   5.201
41261SOL    HW225681   9.136   5.591   5.322
41262SOL     OW25682  12.554   9.106   3.810
41262SOL    HW125683  12.482   9.051   3.840
41262SOL    HW225684  12.603   9.126   3.889
41263SOL     OW25685   0.699   2.305   9.908
41263SOL    HW125686   0.772   2.361   9.880
41263SOL    HW225687   0.731   2.262   9.987
41264SOL     OW25688  10.289   5.557  10.258
41264SOL    HW125689  10.310   5.650  10.266
41264SOL    HW225690  10.197   5.550  10.282
41265SOL     OW25691  10.405   3.393  10.071
41265SOL    HW125692  10.421   3.334   9.998
41265SOL    HW225693  10.385   3.336  10.145
41266SOL     OW25694   1.331  10.432  13.847
41266SOL    HW125695   1.244  10.397  13.862
41266SOL    HW225696   1.317  10.507  13.790
41267SOL     OW25697  11.903   8.011  13.611
41267SOL    HW125698  11.860   8.044  13.532
41267SOL    HW225699  11.834   8.008  13.677
41268SOL     OW25700  14.165  12.025   2.353
41268SOL    HW125701  14.134  12.101   2.402
41268SOL    HW225702  14.130  11.950   2.401
41269SOL     OW25703  10.205  12.590  10.689
41269SOL    HW125704  10.197  12.558  10.599
41269SOL    HW225705  10.117  12.617  10.713
41270SOL     OW25706   9.070   6.286   4.852
41270SOL    HW125707   9.038   6.263   4.939
41270SOL    HW225708   9.159   6.318   4.867
41271SOL     OW25709   3.625   3.478   2.868
41271SOL    HW125710   3.552   3.417   2.882
41271SOL    HW225711   3.615   3.543   2.938
41272SOL     OW25712   1.682   8.190  12.194
41272SOL    HW125713   1.707   8.245  12.268
41272SOL    HW225714   1.587   8.200  12.187
41273SOL     OW25715  12.293   5.390  12.537
41273SOL    HW125716  12.317   5.465  12.592
41273SOL    HW225717  12.368   5.381  12.477
41274SOL     OW25718  12.787   5.175   9.585
41274SOL    HW125719  12.878   5.202   9.569
41274SOL    HW225720  12.736   5.221   9.519
41275SOL     OW25721   7.709  10.383  14.830
41275SOL    HW125722   7.624  10.343  14.811
41275SOL    HW225723   7.748  10.328   0.015
41276SOL     OW25724   5.804   9.348  10.543
41276SOL    HW125725   5.713   9.327  10.566
41276SOL    HW225726   5.819   9.434  10.581
41277SOL     OW25727   5.100   1.640   2.383
41277SOL    HW125728   5.188   1.602   2.379
41277SOL    HW225729   5.083   1.650   2.477
41278SOL     OW25730   9.661   6.844  12.733
41278SOL    HW125731   9.738   6.883  12.692
41278SOL    HW225732   9.693   6.764  12.774
41279SOL     OW25733   3.750  10.540  11.110
41279SOL    HW125734   3.770  10.494  11.192
41279SOL    HW225735   3.754  10.473  11.043
41280SOL     OW25736   6.192   4.222  10.259
41280SOL    HW125737   6.274   4.198  10.302
41280SOL    HW225738   6.126   4.218  10.329
41281SOL     OW25739   6.754  14.821  10.063
41281SOL    HW125740   6.797   0.016  10.025
41281SOL    HW225741   6.762  14.753   9.996
41282SOL     OW25742  11.523  14.877  11.199
41282SOL    HW125743  11.555  14.795  11.161
41282SOL    HW225744  11.458   0.027  11.136
41283SOL     OW25745   9.876   1.183  11.981
41283SOL    HW125746   9.903   1.233  12.057
41283SOL    HW225747   9.782   1.198  11.974
41284SOL     OW25748   2.325   4.402   1.768
41284SOL    HW125749   2.318   4.485   1.815
41284SOL    HW225750   2.340   4.428   1.677
41285SOL     OW25751  11.883   9.417  13.036
41285SOL    HW125752  11.925   9.349  12.983
41285SOL    HW225753  11.803   9.438  12.989
41286SOL     OW25754  12.603   8.872  14.474
41286SOL    HW125755  12.554   8.806  14.523
41286SOL    HW225756  12.537   8.913  14.417
41287SOL     OW25757  11.265  10.766   0.265
41287SOL    HW125758  11.351  10.792   0.299
41287SOL    HW225759  11.266  10.793   0.173
41288SOL     OW25760   9.502   4.643   2.974
41288SOL    HW125761   9.550   4.614   2.896
41288SOL    HW225762   9.560   4.707   3.015
41289SOL     OW25763  10.893   7.260   5.998
41289SOL    HW125764  10.821   7.320   6.018
41289SOL    HW225765  10.855   7.173   6.007
41290SOL     OW25766  12.372   7.620   2.976
41290SOL    HW125767  12.405   7.659   3.057
41290SOL    HW225768  12.311   7.552   3.005
41291SOL     OW25769   1.996  11.719  14.391
41291SOL    HW125770   1.940  11.745  14.465
41291SOL    HW225771   1.972  11.781  14.321
41292SOL     OW25772  11.540   1.789   1.160
41292SOL    HW125773  11.486   1.863   1.190
41292SOL    HW225774  11.630   1.816   1.179
41293SOL     OW25775   4.443  12.316   4.143
41293SOL    HW125776   4.393  12.395   4.163
41293SOL    HW225777   4.524  12.325   4.193
41294SOL     OW25778   7.817  10.782  13.248
41294SOL    HW125779   7.757  10.718  13.287
41294SOL    HW225780   7.818  10.761  13.155
41295SOL     OW25781   6.353  10.262   5.770
41295SOL    HW125782   6.397  10.333   5.817
41295SOL    HW225783   6.288  10.229   5.832
41296SOL     OW25784   9.807   1.818  14.832
41296SOL    HW125785   9.900   1.795  14.831
41296SOL    HW225786   9.789   1.847  14.742
41297SOL     OW25787  12.612   1.607   7.097
41297SOL    HW125788  12.592   1.533   7.155
41297SOL    HW225789  12.550   1.675   7.123
41298SOL     OW25790   0.804   4.363   3.188
41298SOL    HW125791   0.835   4.343   3.099
41298SOL    HW225792   0.708   4.364   3.180
41299SOL     OW25793  14.712   9.607  10.813
41299SOL    HW125794  14.680   9.544  10.878
41299SOL    HW225795  14.725   9.688  10.863
41300SOL     OW25796   2.079  11.701   7.498
41300SOL    HW125797   1.990  11.716   7.531
41300SOL    HW225798   2.084  11.606   7.485
41301SOL     OW25799  12.015  10.012  13.763
41301SOL    HW125800  11.969  10.090  13.734
41301SOL    HW225801  12.058  10.037  13.844
41302SOL     OW25802   5.098  10.198   9.897
41302SOL    HW125803   5.158  10.188   9.823
41302SOL    HW225804   5.140  10.264   9.953
41303SOL     OW25805   9.493  10.244   4.927
41303SOL    HW125806   9.524  10.260   5.016
41303SOL    HW225807   9.412  10.294   4.920
41304SOL     OW25808  13.482   2.967  12.307
41304SOL    HW125809  13.543   2.911  12.258
41304SOL    HW225810  13.483   3.050  12.260
41305SOL     OW25811   5.160   8.626   4.494
41305SOL    HW125812   5.245   8.609   4.454
41305SOL    HW225813   5.127   8.704   4.449
41306SOL     OW25814  12.413   2.654  14.132
41306SOL    HW125815  12.457   2.739  14.142
41306SOL    HW225816  12.399   2.646  14.038
41307SOL     OW25817   0.065  13.926   4.832
41307SOL    HW125818   0.043  13.870   4.757
41307SOL    HW225819   0.053  14.015   4.800
41308SOL     OW25820   7.391  11.618   7.884
41308SOL    HW125821   7.320  11.598   7.823
41308SOL    HW225822   7.442  11.537   7.890
41309SOL     OW25823  11.764  12.160  13.623
41309SOL    HW125824  11.733  12.074  13.594
41309SOL    HW225825  11.854  12.165  13.591
41310SOL     OW25826   2.647   0.182  10.574
41310SOL    HW125827   2.702   0.221  10.641
41310SOL    HW225828   2.558   0.188  10.609
41311SOL     OW25829   0.710   5.493   3.635
41311SOL    HW125830   0.650   5.561   3.666
41311SOL    HW225831   0.661   5.412   3.643
41312SOL     OW25832   3.176   2.128   5.647
41312SOL    HW125833   3.221   2.167   5.721
41312SOL    HW225834   3.246   2.096   5.590
41313SOL     OW25835  11.091  10.195   9.216
41313SOL    HW125836  11.179  10.172   9.186
41313SOL    HW225837  11.032  10.150   9.156
41314SOL     OW25838   9.361   6.739  13.167
41314SOL    HW125839   9.457   6.741  13.172
41314SOL    HW225840   9.342   6.726  13.074
41315SOL     OW25841   9.592   6.999   2.370
41315SOL    HW125842   9.665   7.020   2.313
41315SOL    HW225843   9.602   6.905   2.388
41316SOL     OW25844   1.133   4.176   7.591
41316SOL    HW125845   1.081   4.097   7.575
41316SOL    HW225846   1.122   4.228   7.512
41317SOL     OW25847   0.563   9.793   0.949
41317SOL    HW125848   0.570   9.700   0.967
41317SOL    HW225849   0.575   9.801   0.854
41318SOL     OW25850   3.927  13.539  14.008
41318SOL    HW125851   3.959  13.464  14.059
41318SOL    HW225852   3.967  13.527  13.921
41319SOL     OW25853   9.951  10.779   8.793
41319SOL    HW125854   9.867  10.757   8.753
41319SOL    HW225855  10.015  10.764   8.723
41320SOL     OW25856   7.212   6.566   0.503
41320SOL    HW125857   7.214   6.635   0.569
41320SOL    HW225858   7.304   6.550   0.482
41321SOL     OW25859   1.152   7.551   4.268
41321SOL    HW125860   1.218   7.551   4.198
41321SOL    HW225861   1.160   7.637   4.308
41322SOL     OW25862   4.738  11.892  10.239
41322SOL    HW125863   4.741  11.896  10.143
41322SOL    HW225864   4.691  11.812  10.258
41323SOL     OW25865   0.605   0.349   5.250
41323SOL    HW125866   0.672   0.330   5.316
41323SOL    HW225867   0.576   0.437   5.270
41324SOL     OW25868  10.943   8.087   5.195
41324SOL    HW125869  10.988   8.134   5.125
41324SOL    HW225870  11.001   8.095   5.271
41325SOL     OW25871   8.211   4.610   5.951
41325SOL    HW125872   8.197   4.517   5.935
41325SOL    HW225873   8.233   4.647   5.865
41326SOL     OW25874   1.466   9.964   2.041
41326SOL    HW125875   1.518   9.885   2.056
41326SOL    HW225876   1.530  10.031   2.016
41327SOL     OW25877   1.598  12.122  14.278
41327SOL    HW125878   1.604  12.122  14.183
41327SOL    HW225879   1.663  12.186  14.306
41328SOL     OW25880   1.252  11.915   3.205
41328SOL    HW125881   1.262  11.827   3.169
41328SOL    HW225882   1.199  11.961   3.140
41329SOL     OW25883  11.928   6.836  10.044
41329SOL    HW125884  11.850   6.799  10.003
41329SOL    HW225885  11.972   6.883   9.973
41330SOL     OW25886   7.486   4.477   5.092
41330SOL    HW125887   7.548   4.405   5.081
41330SOL    HW225888   7.537   4.556   5.070
41331SOL     OW25889   5.756   8.622   5.201
41331SOL    HW125890   5.754   8.552   5.136
41331SOL    HW225891   5.678   8.607   5.255
41332SOL     OW25892   4.933   1.300   0.464
41332SOL    HW125893   4.883   1.335   0.391
41332SOL    HW225894   4.970   1.218   0.431
41333SOL     OW25895   4.683   3.871   0.379
41333SOL    HW125896   4.627   3.821   0.319
41333SOL    HW225897   4.622   3.919   0.435
41334SOL     OW25898   8.064  13.587  13.418
41334SOL    HW125899   7.988  13.562  13.471
41334SOL    HW225900   8.039  13.561  13.329
41335SOL     OW25901  14.308  13.085  12.580
41335SOL    HW125902  14.281  13.166  12.537
41335SOL    HW225903  14.252  13.017  12.542
41336SOL     OW25904   3.736  12.749   4.827
41336SOL    HW125905   3.686  12.800   4.764
41336SOL    HW225906   3.680  12.746   4.905
41337SOL     OW25907  10.172   5.453   7.713
41337SOL    HW125908  10.089   5.406   7.707
41337SOL    HW225909  10.157   5.521   7.778
41338SOL     OW25910   1.935   5.623   1.533
41338SOL    HW125911   2.002   5.647   1.597
41338SOL    HW225912   1.855   5.663   1.566
41339SOL     OW25913   0.981   3.599  10.333
41339SOL    HW125914   1.066   3.630  10.301
41339SOL    HW225915   0.983   3.615  10.427
41340SOL     OW25916   0.110   8.058   7.051
41340SOL    HW125917   0.176   7.991   7.036
41340SOL    HW225918   0.149   8.116   7.116
41341SOL     OW25919   8.051  11.972  14.541
41341SOL    HW125920   8.121  11.935  14.488
41341SOL    HW225921   7.990  12.010  14.477
41342SOL     OW25922  11.588   2.002  13.747
41342SOL    HW125923  11.514   1.957  13.788
41342SOL    HW225924  11.595   1.961  13.660
41343SOL     OW25925  11.486   5.112   3.679
41343SOL    HW125926  11.397   5.089   3.703
41343SOL    HW225927  11.488   5.207   3.680
41344SOL     OW25928   1.190   7.273   6.494
41344SOL    HW125929   1.214   7.259   6.586
41344SOL    HW225930   1.271   7.302   6.453
41345SOL     OW25931   4.247   2.630   2.929
41345SOL    HW125932   4.196   2.691   2.983
41345SOL    HW225933   4.338   2.659   2.939
41346SOL     OW25934  12.300   7.440   3.199
41346SOL    HW125935  12.234   7.377   3.230
41346SOL    HW225936  12.381   7.412   3.241
41347SOL     OW25937   5.745   0.629   8.352
41347SOL    HW125938   5.803   0.678   8.293
41347SOL    HW225939   5.711   0.694   8.413
41348SOL     OW25940   4.461   7.312  10.313
41348SOL    HW125941   4.516   7.236  10.293
41348SOL    HW225942   4.469   7.369  10.236
41349SOL     OW25943   3.225   2.739   7.106
41349SOL    HW125944   3.187   2.817   7.066
41349SOL    HW225945   3.189   2.737   7.194
41350SOL     OW25946   1.616   1.168   0.558
41350SOL    HW125947   1.678   1.151   0.486
41350SOL    HW225948   1.622   1.262   0.572
41351SOL     OW25949   2.790  11.771   0.973
41351SOL    HW125950   2.714  11.814   1.012
41351SOL    HW225951   2.777  11.678   0.991
41352SOL     OW25952   0.569  13.475   4.877
41352SOL    HW125953   0.564  13.387   4.840
41352SOL    HW225954   0.485  13.515   4.854
41353SOL     OW25955  11.005   6.980   0.964
41353SOL    HW125956  11.037   6.996   1.052
41353SOL    HW225957  10.986   6.887   0.961
41354SOL     OW25958  13.475  10.472   1.967
41354SOL    HW125959  13.407  10.521   2.013
41354SOL    HW225960  13.496  10.526   1.891
41355SOL     OW25961  14.187   6.137  13.340
41355SOL    HW125962  14.208   6.045  13.358
41355SOL    HW225963  14.269   6.174  13.306
41356SOL     OW25964   3.440   5.933   6.014
41356SOL    HW125965   3.369   5.993   5.989
41356SOL    HW225966   3.477   5.904   5.931
41357SOL     OW25967   7.630   5.281   6.435
41357SOL    HW125968   7.717   5.270   6.475
41357SOL    HW225969   7.574   5.311   6.506
41358SOL     OW25970  14.219   8.354   8.463
41358SOL    HW125971  14.236   8.277   8.408
41358SOL    HW225972  14.133   8.337   8.502
41359SOL     OW25973  13.102   9.297  11.142
41359SOL    HW125974  13.014   9.269  11.118
41359SOL    HW225975  13.159   9.248  11.082
41360SOL     OW25976   3.901  10.848   4.523
41360SOL    HW125977   3.969  10.873   4.461
41360SOL    HW225978   3.898  10.753   4.519
41361SOL     OW25979  10.956  11.951   9.844
41361SOL    HW125980  10.862  11.946   9.829
41361SOL    HW225981  10.984  11.861   9.855
41362SOL     OW25982  13.840   1.131  13.298
41362SOL    HW125983  13.814   1.207  13.246
41362SOL    HW225984  13.759   1.105  13.344
41363SOL     OW25985   7.926  11.893   0.285
41363SOL    HW125986   7.936  11.797   0.282
41363SOL    HW225987   8.013  11.925   0.307
41364SOL     OW25988  12.056  10.979   7.203
41364SOL    HW125989  12.123  11.027   7.251
41364SOL    HW225990  12.055  10.892   7.244
41365SOL     OW25991  14.321  11.483   8.133
41365SOL    HW125992  14.271  11.523   8.063
41365SOL    HW225993  14.413  11.495   8.108
41366SOL     OW25994  13.230   4.474  12.996
41366SOL    HW125995  13.301   4.512  13.047
41366SOL    HW225996  13.155   4.474  13.056
41367SOL     OW25997   0.203   4.655   2.785
41367SOL    HW125998   0.255   4.735   2.790
41367SOL    HW225999   0.266   4.586   2.765
41368SOL     OW26000   7.825  14.192   4.385
41368SOL    HW126001   7.899  14.236   4.428
41368SOL    HW226002   7.804  14.119   4.443
41369SOL     OW26003   1.615   7.349   5.752
41369SOL    HW126004   1.636   7.257   5.761
41369SOL    HW226005   1.693   7.395   5.781
41370SOL     OW26006   6.236   2.213   1.816
41370SOL    HW126007   6.252   2.293   1.767
41370SOL    HW226008   6.287   2.146   1.769
41371SOL     OW26009   5.912   3.460   9.565
41371SOL    HW126010   5.989   3.408   9.541
41371SOL    HW226011   5.916   3.467   9.660
41372SOL     OW26012  13.400   8.751  13.192
41372SOL    HW126013  13.311   8.719  13.180
41372SOL    HW226014  13.413   8.749  13.287
41373SOL     OW26015  12.498   9.039  13.746
41373SOL    HW126016  12.456   8.993  13.820
41373SOL    HW226017  12.455   9.003  13.669
41374SOL     OW26018   1.048   2.606   6.661
41374SOL    HW126019   1.014   2.679   6.609
41374SOL    HW226020   0.986   2.596   6.733
41375SOL     OW26021   8.640  12.772   2.972
41375SOL    HW126022   8.691  12.843   3.012
41375SOL    HW226023   8.676  12.693   3.011
41376SOL     OW26024   5.276  12.181  13.167
41376SOL    HW126025   5.364  12.207  13.192
41376SOL    HW226026   5.235  12.262  13.136
41377SOL     OW26027   8.436  14.562  13.246
41377SOL    HW126028   8.398  14.640  13.286
41377SOL    HW226029   8.441  14.583  13.153
41378SOL     OW26030  13.336  11.303   3.600
41378SOL    HW126031  13.430  11.314   3.584
41378SOL    HW226032  13.321  11.209   3.591
41379SOL     OW26033   6.129   3.655  10.728
41379SOL    HW126034   6.162   3.733  10.684
41379SOL    HW226035   6.202   3.592  10.724
41380SOL     OW26036   6.452   9.682   4.996
41380SOL    HW126037   6.491   9.603   4.958
41380SOL    HW226038   6.426   9.735   4.921
41381SOL     OW26039   3.999   5.326  14.650
41381SOL    HW126040   3.995   5.240  14.693
41381SOL    HW226041   4.090   5.336  14.624
41382SOL     OW26042  13.894  10.384   6.147
41382SOL    HW126043  13.928  10.390   6.058
41382SOL    HW226044  13.938  10.309   6.185
41383SOL     OW26045  14.025  13.815  12.979
41383SOL    HW126046  14.040  13.764  13.059
41383SOL    HW226047  13.930  13.825  12.975
41384SOL     OW26048   8.011  10.638   9.443
41384SOL    HW126049   7.937  10.689   9.476
41384SOL    HW226050   8.081  10.703   9.433
41385SOL     OW26051  13.470   2.353  13.356
41385SOL    HW126052  13.425   2.341  13.273
41385SOL    HW226053  13.506   2.266  13.376
41386SOL     OW26054  11.154  12.720  14.214
41386SOL    HW126055  11.236  12.687  14.179
41386SOL    HW226056  11.106  12.752  14.138
41387SOL     OW26057  13.912   1.026   0.483
41387SOL    HW126058  13.912   0.939   0.444
41387SOL    HW226059  13.841   1.024   0.547
41388SOL     OW26060   2.982  10.263   4.660
41388SOL    HW126061   3.055  10.324   4.647
41388SOL    HW226062   3.010  10.206   4.731
41389SOL     OW26063   1.284   3.716   7.796
41389SOL    HW126064   1.210   3.774   7.815
41389SOL    HW226065   1.328   3.756   7.721
41390SOL     OW26066  11.016   4.352   9.579
41390SOL    HW126067  10.948   4.389   9.523
41390SOL    HW226068  11.043   4.425   9.635
41391SOL     OW26069  11.013  11.836   8.505
41391SOL    HW126070  10.930  11.853   8.462
41391SOL    HW226071  10.989  11.794   8.588
41392SOL     OW26072  14.221  12.837   2.253
41392SOL    HW126073  14.188  12.771   2.191
41392SOL    HW226074  14.313  12.848   2.230
41393SOL     OW26075  11.289   5.841  11.450
41393SOL    HW126076  11.355   5.782  11.412
41393SOL    HW226077  11.210   5.787  11.457
41394SOL     OW26078   8.383  12.596   1.900
41394SOL    HW126079   8.289  12.602   1.883
41394SOL    HW226080   8.418  12.681   1.871
41395SOL     OW26081   8.409   4.958  10.025
41395SOL    HW126082   8.324   4.961   9.981
41395SOL    HW226083   8.407   4.877  10.076
41396SOL     OW26084   9.550   3.527   4.415
41396SOL    HW126085   9.484   3.457   4.414
41396SOL    HW226086   9.502   3.605   4.444
41397SOL     OW26087   1.849  14.399  12.957
41397SOL    HW126088   1.827  14.307  12.973
41397SOL    HW226089   1.764  14.441  12.940
41398SOL     OW26090   6.605   2.569   3.368
41398SOL    HW126091   6.559   2.518   3.434
41398SOL    HW226092   6.571   2.658   3.378
41399SOL     OW26093   8.667   9.660   9.439
41399SOL    HW126094   8.573   9.674   9.447
41399SOL    HW226095   8.707   9.726   9.495
41400SOL     OW26096   0.307  11.715  12.944
41400SOL    HW126097   0.370  11.695  12.874
41400SOL    HW226098   0.320  11.808  12.962
41401SOL     OW26099  14.271   5.609  11.260
41401SOL    HW126100  14.315   5.536  11.217
41401SOL    HW226101  14.193   5.625  11.206
41402SOL     OW26102  13.934   5.609   3.758
41402SOL    HW126103  14.012   5.588   3.809
41402SOL    HW226104  13.926   5.704   3.765
41403SOL     OW26105  12.612   1.972   7.191
41403SOL    HW126106  12.546   2.030   7.229
41403SOL    HW226107  12.692   1.993   7.238
41404SOL     OW26108   6.836  14.343   4.546
41404SOL    HW126109   6.928  14.329   4.564
41404SOL    HW226110   6.794  14.342   4.632
41405SOL     OW26111   8.170  14.036   3.844
41405SOL    HW126112   8.170  13.941   3.838
41405SOL    HW226113   8.092  14.063   3.795
41406SOL     OW26114  11.426  12.929  14.244
41406SOL    HW126115  11.462  12.950  14.330
41406SOL    HW226116  11.425  13.012  14.197
41407SOL     OW26117   1.588   6.709   2.461
41407SOL    HW126118   1.673   6.673   2.432
41407SOL    HW226119   1.612   6.783   2.517
41408SOL     OW26120   4.415   1.507   9.131
41408SOL    HW126121   4.335   1.495   9.182
41408SOL    HW226122   4.403   1.452   9.053
41409SOL     OW26123  11.355   6.763   2.084
41409SOL    HW126124  11.426   6.827   2.087
41409SOL    HW226125  11.277   6.813   2.109
41410SOL     OW26126   7.618  13.299   9.598
41410SOL    HW126127   7.530  13.295   9.560
41410SOL    HW226128   7.604  13.301   9.692
41411SOL     OW26129  10.016   4.992  13.528
41411SOL    HW126130  10.067   5.031  13.599
41411SOL    HW226131   9.966   4.922  13.570
41412SOL     OW26132   9.507   7.947   5.597
41412SOL    HW126133   9.491   8.027   5.646
41412SOL    HW226134   9.524   7.977   5.507
41413SOL     OW26135   8.168   0.772   8.084
41413SOL    HW126136   8.184   0.688   8.040
41413SOL    HW226137   8.073   0.775   8.096
41414SOL     OW26138   3.493   7.968  10.089
41414SOL    HW126139   3.401   7.943  10.100
41414SOL    HW226140   3.512   8.022  10.166
41415SOL     OW26141  10.162   2.597   5.608
41415SOL    HW126142  10.249   2.577   5.573
41415SOL    HW226143  10.156   2.693   5.602
41416SOL     OW26144   1.555   2.107  11.487
41416SOL    HW126145   1.498   2.106  11.411
41416SOL    HW226146   1.580   2.015  11.499
41417SOL     OW26147   2.690  11.535   1.323
41417SOL    HW126148   2.691  11.445   1.291
41417SOL    HW226149   2.776  11.570   1.298
41418SOL     OW26150   4.894   1.185   3.219
41418SOL    HW126151   4.877   1.143   3.134
41418SOL    HW226152   4.809   1.222   3.244
41419SOL     OW26153  10.269   9.640  10.853
41419SOL    HW126154  10.304   9.596  10.776
41419SOL    HW226155  10.224   9.717  10.818
41420SOL     OW26156   3.130   8.171  10.861
41420SOL    HW126157   3.167   8.110  10.797
41420SOL    HW226158   3.199   8.185  10.925
41421SOL     OW26159  10.494   4.394   2.189
41421SOL    HW126160  10.472   4.428   2.102
41421SOL    HW226161  10.465   4.463   2.250
41422SOL     OW26162   0.887  13.976  12.468
41422SOL    HW126163   0.842  14.017  12.394
41422SOL    HW226164   0.868  13.882  12.459
41423SOL     OW26165   0.474   1.032  10.281
41423SOL    HW126166   0.460   0.967  10.350
41423SOL    HW226167   0.568   1.052  10.285
41424SOL     OW26168   7.750   3.071   9.235
41424SOL    HW126169   7.748   3.083   9.140
41424SOL    HW226170   7.779   3.155   9.269
41425SOL     OW26171   9.128  13.166  14.417
41425SOL    HW126172   9.171  13.195  14.337
41425SOL    HW226173   9.167  13.081  14.436
41426SOL     OW26174   1.183   0.626   1.718
41426SOL    HW126175   1.104   0.657   1.762
41426SOL    HW226176   1.224   0.705   1.684
41427SOL     OW26177   5.574   8.037   8.570
41427SOL    HW126178   5.534   8.012   8.487
41427SOL    HW226179   5.641   8.101   8.547
41428SOL     OW26180  10.312   7.341   8.657
41428SOL    HW126181  10.329   7.252   8.628
41428SOL    HW226182  10.323   7.338   8.752
41429SOL     OW26183   1.197   5.121   1.861
41429SOL    HW126184   1.279   5.116   1.812
41429SOL    HW226185   1.219   5.167   1.942
41430SOL     OW26186  11.941  11.075  14.485
41430SOL    HW126187  11.872  11.101  14.423
41430SOL    HW226188  11.993  11.010  14.437
41431SOL     OW26189   6.991  11.377  14.077
41431SOL    HW126190   6.915  11.319  14.079
41431SOL    HW226191   6.958  11.461  14.109
41432SOL     OW26192   6.489  10.747   4.344
41432SOL    HW126193   6.550  10.676   4.364
41432SOL    HW226194   6.532  10.826   4.375
41433SOL     OW26195  13.337   1.839  13.205
41433SOL    HW126196  13.390   1.760  13.207
41433SOL    HW226197  13.373   1.890  13.132
41434SOL     OW26198   0.372   8.497   9.772
41434SOL    HW126199   0.428   8.533   9.841
41434SOL    HW226200   0.356   8.406   9.799
41435SOL     OW26201   1.986  10.350  11.284
41435SOL    HW126202   2.035  10.358  11.202
41435SOL    HW226203   1.974  10.255  11.295
41436SOL     OW26204  12.516   5.173  10.421
41436SOL    HW126205  12.543   5.251  10.471
41436SOL    HW226206  12.598   5.127  10.403
41437SOL     OW26207   8.742   1.581   2.894
41437SOL    HW126208   8.682   1.603   2.823
41437SOL    HW226209   8.820   1.547   2.850
41438SOL     OW26210   7.138  13.960  10.818
41438SOL    HW126211   7.229  13.948  10.791
41438SOL    HW226212   7.134  13.922  10.906
41439SOL     OW26213   1.933   5.772   2.761
41439SOL    HW126214   1.955   5.850   2.711
41439SOL    HW226215   1.853   5.739   2.720
41440SOL     OW26216  14.118   7.862   3.668
41440SOL    HW126217  14.134   7.792   3.604
41440SOL    HW226218  14.205   7.897   3.686
41441SOL     OW26219   7.825   5.241   3.236
41441SOL    HW126220   7.788   5.323   3.267
41441SOL    HW226221   7.757   5.203   3.181
41442SOL     OW26222   5.751   7.977   3.832
41442SOL    HW126223   5.804   8.026   3.894
41442SOL    HW226224   5.801   7.981   3.750
41443SOL     OW26225  12.690  11.003   1.734
41443SOL    HW126226  12.698  11.098   1.745
41443SOL    HW226227  12.611  10.992   1.681
41444SOL     OW26228   9.292  10.966  13.652
41444SOL    HW126229   9.387  10.956  13.658
41444SOL    HW226230   9.257  10.911  13.723
41445SOL     OW26231  12.858  14.376   9.136
41445SOL    HW126232  12.922  14.340   9.198
41445SOL    HW226233  12.804  14.300   9.112
41446SOL     OW26234   3.449   6.319   3.644
41446SOL    HW126235   3.424   6.315   3.736
41446SOL    HW226236   3.403   6.246   3.603
41447SOL     OW26237   7.535   9.787   7.406
41447SOL    HW126238   7.626   9.758   7.414
41447SOL    HW226239   7.542   9.877   7.373
41448SOL     OW26240   7.805   8.591  11.410
41448SOL    HW126241   7.897   8.573  11.432
41448SOL    HW226242   7.755   8.552  11.480
41449SOL     OW26243   1.377  13.507   2.521
41449SOL    HW126244   1.393  13.417   2.548
41449SOL    HW226245   1.374  13.503   2.425
41450SOL     OW26246  13.373   5.030   8.268
41450SOL    HW126247  13.446   5.014   8.207
41450SOL    HW226248  13.410   5.012   8.354
41451SOL     OW26249   7.995   7.040  13.183
41451SOL    HW126250   7.998   6.958  13.232
41451SOL    HW226251   8.076   7.040  13.131
41452SOL     OW26252   8.220   6.365   3.653
41452SOL    HW126253   8.227   6.456   3.624
41452SOL    HW226254   8.230   6.313   3.573
41453SOL     OW26255   9.410   1.889  11.211
41453SOL    HW126256   9.482   1.886  11.149
41453SOL    HW226257   9.379   1.980  11.208
41454SOL     OW26258   0.265   3.457   3.011
41454SOL    HW126259   0.177   3.475   3.045
41454SOL    HW226260   0.252   3.445   2.917
41455SOL     OW26261   2.693  10.587  10.959
41455SOL    HW126262   2.612  10.537  10.958
41455SOL    HW226263   2.711  10.607  10.867
41456SOL     OW26264   0.304   4.720   5.814
41456SOL    HW126265   0.261   4.775   5.747
41456SOL    HW226266   0.233   4.667   5.850
41457SOL     OW26267   2.982   5.399   6.861
41457SOL    HW126268   2.906   5.441   6.820
41457SOL    HW226269   2.945   5.329   6.914
41458SOL     OW26270  13.315   5.464   6.530
41458SOL    HW126271  13.375   5.445   6.602
41458SOL    HW226272  13.229   5.470   6.572
41459SOL     OW26273   4.214   5.385   2.956
41459SOL    HW126274   4.230   5.362   3.048
41459SOL    HW226275   4.298   5.367   2.912
41460SOL     OW26276  13.070   3.027   9.349
41460SOL    HW126277  13.074   2.943   9.303
41460SOL    HW226278  13.154   3.068   9.329
41461SOL     OW26279   4.576   5.650   3.939
41461SOL    HW126280   4.484   5.671   3.955
41461SOL    HW226281   4.579   5.622   3.848
41462SOL     OW26282  13.560  11.727   2.138
41462SOL    HW126283  13.601  11.640   2.143
41462SOL    HW226284  13.604  11.778   2.205
41463SOL     OW26285  11.492   2.982  11.183
41463SOL    HW126286  11.446   2.927  11.246
41463SOL    HW226287  11.458   3.070  11.198
41464SOL     OW26288  11.003   0.474   3.112
41464SOL    HW126289  11.086   0.442   3.149
41464SOL    HW226290  10.950   0.395   3.101
41465SOL     OW26291   7.309   4.465  11.988
41465SOL    HW126292   7.289   4.375  11.964
41465SOL    HW226293   7.331   4.508  11.906
41466SOL     OW26294   6.882   2.661   9.761
41466SOL    HW126295   6.794   2.631   9.738
41466SOL    HW226296   6.878   2.678   9.855
41467SOL     OW26297   9.200  10.236   0.875
41467SOL    HW126298   9.288  10.216   0.846
41467SOL    HW226299   9.179  10.169   0.940
41468SOL     OW26300   8.594  11.459   2.840
41468SOL    HW126301   8.520  11.517   2.859
41468SOL    HW226302   8.575  11.378   2.887
41469SOL     OW26303   2.201   0.343   0.144
41469SOL    HW126304   2.261   0.331   0.218
41469SOL    HW226305   2.118   0.365   0.185
41470SOL     OW26306  13.980   3.245   4.194
41470SOL    HW126307  14.050   3.200   4.242
41470SOL    HW226308  13.919   3.175   4.170
41471SOL     OW26309  14.787   1.149  13.222
41471SOL    HW126310  14.778   1.095  13.144
41471SOL    HW226311  14.713   1.210  13.218
41472SOL     OW26312   5.771   1.754   3.675
41472SOL    HW126313   5.857   1.713   3.665
41472SOL    HW226314   5.742   1.727   3.762
41473SOL     OW26315   3.215   1.043   8.571
41473SOL    HW126316   3.128   1.043   8.611
41473SOL    HW226317   3.205   0.992   8.491
41474SOL     OW26318   4.490   8.822   6.463
41474SOL    HW126319   4.463   8.801   6.553
41474SOL    HW226320   4.473   8.916   6.454
41475SOL     OW26321   2.865   3.062   5.844
41475SOL    HW126322   2.851   3.152   5.871
41475SOL    HW226323   2.955   3.061   5.810
41476SOL     OW26324   9.328   3.859  14.579
41476SOL    HW126325   9.335   3.911  14.498
41476SOL    HW226326   9.341   3.923  14.649
41477SOL     OW26327   2.000   2.917   1.115
41477SOL    HW126328   2.067   2.964   1.065
41477SOL    HW226329   1.922   2.923   1.061
41478SOL     OW26330   8.423   3.148   9.940
41478SOL    HW126331   8.332   3.169   9.960
41478SOL    HW226332   8.472   3.225   9.969
41479SOL     OW26333   2.423  12.326   5.699
41479SOL    HW126334   2.328  12.322   5.687
41479SOL    HW226335   2.443  12.253   5.757
41480SOL     OW26336   2.180   3.765   5.052
41480SOL    HW126337   2.263   3.744   5.009
41480SOL    HW226338   2.120   3.697   5.022
41481SOL     OW26339   5.935  10.090   1.870
41481SOL    HW126340   5.942  10.039   1.950
41481SOL    HW226341   5.972  10.175   1.892
41482SOL     OW26342  10.149   9.108   9.281
41482SOL    HW126343  10.079   9.113   9.217
41482SOL    HW226344  10.220   9.063   9.235
41483SOL     OW26345  14.642  11.899   2.010
41483SOL    HW126346  14.626  11.830   1.946
41483SOL    HW226347  14.640  11.854   2.094
41484SOL     OW26348   9.781  10.297   2.180
41484SOL    HW126349   9.865  10.254   2.189
41484SOL    HW226350   9.776  10.358   2.254
41485SOL     OW26351  11.163   1.138  12.788
41485SOL    HW126352  11.207   1.210  12.833
41485SOL    HW226353  11.081   1.175  12.757
41486SOL     OW26354   4.593  12.526   8.863
41486SOL    HW126355   4.550  12.612   8.857
41486SOL    HW226356   4.522  12.465   8.883
41487SOL     OW26357   9.383  12.853   6.912
41487SOL    HW126358   9.458  12.882   6.965
41487SOL    HW226359   9.316  12.919   6.927
41488SOL     OW26360   8.032   5.481   4.109
41488SOL    HW126361   7.946   5.516   4.132
41488SOL    HW226362   8.023   5.386   4.120
41489SOL     OW26363   5.157   5.292   6.377
41489SOL    HW126364   5.069   5.289   6.339
41489SOL    HW226365   5.199   5.368   6.336
41490SOL     OW26366   2.564  14.465  14.803
41490SOL    HW126367   2.507  14.427  14.870
41490SOL    HW226368   2.630  14.514  14.851
41491SOL     OW26369   7.256   6.709   4.973
41491SOL    HW126370   7.282   6.654   5.047
41491SOL    HW226371   7.332   6.762   4.954
41492SOL     OW26372  13.629   2.080  14.687
41492SOL    HW126373  13.631   2.118  14.599
41492SOL    HW226374  13.630   1.986  14.672
41493SOL     OW26375  11.742   5.669  14.704
41493SOL    HW126376  11.818   5.698  14.654
41493SOL    HW226377  11.690   5.619  14.641
41494SOL     OW26378  13.507   7.193   3.915
41494SOL    HW126379  13.459   7.126   3.964
41494SOL    HW226380  13.457   7.273   3.931
41495SOL     OW26381  10.856  12.927   7.414
41495SOL    HW126382  10.839  12.914   7.507
41495SOL    HW226383  10.907  13.008   7.409
41496SOL     OW26384   4.326   8.547  11.953
41496SOL    HW126385   4.347   8.620  12.011
41496SOL    HW226386   4.384   8.477  11.980
41497SOL     OW26387   2.083  12.613   3.802
41497SOL    HW126388   2.037  12.686   3.761
41497SOL    HW226389   2.146  12.654   3.862
41498SOL     OW26390  12.288  13.576   8.529
41498SOL    HW126391  12.302  13.579   8.623
41498SOL    HW226392  12.204  13.621   8.516
41499SOL     OW26393   8.520   8.018   2.870
41499SOL    HW126394   8.519   7.986   2.780
41499SOL    HW226395   8.546   8.110   2.864
41500SOL     OW26396   4.256  13.576   0.935
41500SOL    HW126397   4.225  13.661   0.967
41500SOL    HW226398   4.351  13.585   0.932
41501SOL     OW26399   6.818   6.127  11.990
41501SOL    HW126400   6.779   6.051  11.948
41501SOL    HW226401   6.744   6.182  12.014
41502SOL     OW26402  14.796   3.558  10.628
41502SOL    HW126403  14.810   3.561  10.722
41502SOL    HW226404  14.734   3.487  10.614
41503SOL     OW26405  11.867   3.579  12.955
41503SOL    HW126406  11.939   3.619  13.004
41503SOL    HW226407  11.862   3.630  12.874
41504SOL     OW26408  10.142   0.010   6.826
41504SOL    HW126409  10.222  14.860   6.866
41504SOL    HW226410  10.072  14.846   6.871
41505SOL     OW26411   0.629   7.035   0.136
41505SOL    HW126412   0.626   7.054   0.043
41505SOL    HW226413   0.703   7.087   0.169
41506SOL     OW26414   0.359  10.110   1.452
41506SOL    HW126415   0.318  10.110   1.539
41506SOL    HW226416   0.327  10.191   1.411
41507SOL     OW26417   6.663   6.700   4.238
41507SOL    HW126418   6.625   6.630   4.185
41507SOL    HW226419   6.743   6.724   4.191
41508SOL     OW26420  13.859   9.924  11.209
41508SOL    HW126421  13.923   9.993  11.224
41508SOL    HW226422  13.838   9.930  11.116
41509SOL     OW26423   5.189   8.330  10.169
41509SOL    HW126424   5.117   8.293  10.117
41509SOL    HW226425   5.170   8.424  10.172
41510SOL     OW26426  11.734  11.271  12.830
41510SOL    HW126427  11.764  11.360  12.845
41510SOL    HW226428  11.708  11.270  12.738
41511SOL     OW26429   7.931   7.253   8.005
41511SOL    HW126430   7.898   7.236   8.093
41511SOL    HW226431   7.942   7.166   7.967
41512SOL     OW26432   6.940   7.079   6.265
41512SOL    HW126433   7.028   7.081   6.228
41512SOL    HW226434   6.906   6.993   6.242
41513SOL     OW26435   8.102  13.188   8.015
41513SOL    HW126436   8.179  13.195   7.959
41513SOL    HW226437   8.077  13.096   8.010
41514SOL     OW26438   2.326   4.370   5.258
41514SOL    HW126439   2.404   4.317   5.242
41514SOL    HW226440   2.358   4.443   5.311
41515SOL     OW26441  11.090   3.115  12.638
41515SOL    HW126442  11.087   3.195  12.585
41515SOL    HW226443  11.139   3.052  12.585
41516SOL     OW26444  11.256   7.918   2.070
41516SOL    HW126445  11.192   7.970   2.022
41516SOL    HW226446  11.218   7.829   2.070
41517SOL     OW26447  12.069   1.224  10.890
41517SOL    HW126448  12.075   1.133  10.860
41517SOL    HW226449  12.143   1.268  10.848
41518SOL     OW26450  10.315  11.076   9.570
41518SOL    HW126451  10.328  11.040   9.658
41518SOL    HW226452  10.311  10.999   9.513
41519SOL     OW26453   3.654   2.909   5.939
41519SOL    HW126454   3.572   2.864   5.959
41519SOL    HW226455   3.640   2.945   5.851
41520SOL     OW26456  11.985   5.019  11.676
41520SOL    HW126457  11.943   4.991  11.595
41520SOL    HW226458  12.069   4.974  11.678
41521SOL     OW26459   5.067   7.728  14.825
41521SOL    HW126460   5.110   7.801  14.868
41521SOL    HW226461   5.105   7.650  14.865
41522SOL     OW26462  13.716   4.823   4.743
41522SOL    HW126463  13.695   4.750   4.685
41522SOL    HW226464  13.808   4.843   4.724
41523SOL     OW26465   1.298  10.936   6.678
41523SOL    HW126466   1.230  10.978   6.625
41523SOL    HW226467   1.338  10.872   6.620
41524SOL     OW26468   1.341  12.165  13.406
41524SOL    HW126469   1.246  12.166  13.407
41524SOL    HW226470   1.363  12.090  13.351
41525SOL     OW26471   7.123  12.404  13.996
41525SOL    HW126472   7.162  12.381  13.911
41525SOL    HW226473   7.085  12.322  14.027
41526SOL     OW26474   2.572   1.364   7.107
41526SOL    HW126475   2.519   1.383   7.185
41526SOL    HW226476   2.633   1.296   7.136
41527SOL     OW26477   7.783   6.293   4.663
41527SOL    HW126478   7.815   6.334   4.582
41527SOL    HW226479   7.829   6.209   4.667
41528SOL     OW26480  14.045  13.832   2.369
41528SOL    HW126481  13.950  13.838   2.362
41528SOL    HW226482  14.061  13.754   2.423
41529SOL     OW26483   1.201  14.238   5.199
41529SOL    HW126484   1.220  14.199   5.113
41529SOL    HW226485   1.235  14.327   5.193
41530SOL     OW26486   4.704  14.494   0.353
41530SOL    HW126487   4.767  14.530   0.292
41530SOL    HW226488   4.756  14.466   0.429
41531SOL     OW26489   0.199   4.692  14.152
41531SOL    HW126490   0.214   4.777  14.111
41531SOL    HW226491   0.282   4.671  14.195
41532SOL     OW26492   7.616   8.714  13.469
41532SOL    HW126493   7.688   8.657  13.493
41532SOL    HW226494   7.537   8.666  13.494
41533SOL     OW26495  13.366   3.707   9.317
41533SOL    HW126496  13.462   3.706   9.314
41533SOL    HW226497  13.344   3.646   9.387
41534SOL     OW26498   0.740  11.746   7.022
41534SOL    HW126499   0.747  11.823   7.078
41534SOL    HW226500   0.814  11.753   6.962
41535SOL     OW26501   4.076   1.415   6.886
41535SOL    HW126502   4.158   1.402   6.839
41535SOL    HW226503   4.099   1.408   6.978
41536SOL     OW26504  12.571  12.768  12.489
41536SOL    HW126505  12.660  12.790  12.516
41536SOL    HW226506  12.576  12.754  12.395
41537SOL     OW26507   1.465  10.750   3.695
41537SOL    HW126508   1.515  10.737   3.775
41537SOL    HW226509   1.379  10.713   3.715
41538SOL     OW26510   0.069  10.608  13.144
41538SOL    HW126511   0.089  10.593  13.051
41538SOL    HW226512   0.136  10.669  13.173
41539SOL     OW26513   2.202  11.632  11.189
41539SOL    HW126514   2.169  11.717  11.160
41539SOL    HW226515   2.291  11.628  11.155
41540SOL     OW26516   5.084   8.351   4.528
41540SOL    HW126517   5.165   8.331   4.574
41540SOL    HW226518   5.081   8.447   4.525
41541SOL     OW26519   4.982   9.462   2.005
41541SOL    HW126520   5.073   9.467   2.035
41541SOL    HW226521   4.958   9.552   1.985
41542SOL     OW26522   5.270   7.727   0.466
41542SOL    HW126523   5.188   7.708   0.511
41542SOL    HW226524   5.335   7.675   0.512
41543SOL     OW26525   3.790   6.373   0.595
41543SOL    HW126526   3.722   6.407   0.537
41543SOL    HW226527   3.741   6.327   0.664
41544SOL     OW26528   8.796   6.029   0.973
41544SOL    HW126529   8.819   6.017   0.881
41544SOL    HW226530   8.705   6.061   0.972
41545SOL     OW26531   9.938   0.344   4.607
41545SOL    HW126532   9.857   0.323   4.654
41545SOL    HW226533   9.956   0.267   4.553
41546SOL     OW26534   8.224   2.285   8.354
41546SOL    HW126535   8.201   2.247   8.438
41546SOL    HW226536   8.301   2.340   8.372
41547SOL     OW26537   8.805   8.012   2.473
41547SOL    HW126538   8.845   8.096   2.496
41547SOL    HW226539   8.716   8.017   2.508
41548SOL     OW26540   0.045   4.669  12.514
41548SOL    HW126541   0.000   4.651  12.596
41548SOL    HW226542   0.076   4.759  12.521
41549SOL     OW26543   6.207  13.144   0.976
41549SOL    HW126544   6.112  13.155   0.980
41549SOL    HW226545   6.231  13.114   1.063
41550SOL     OW26546  10.046  11.095   9.532
41550SOL    HW126547  10.141  11.108   9.523
41550SOL    HW226548  10.033  11.079   9.626
41551SOL     OW26549  13.613   1.987  12.271
41551SOL    HW126550  13.623   1.968  12.364
41551SOL    HW226551  13.522   2.018  12.262
41552SOL     OW26552   2.421   0.257   3.625
41552SOL    HW126553   2.464   0.253   3.540
41552SOL    HW226554   2.464   0.189   3.677
41553SOL     OW26555   3.276   2.532   5.443
41553SOL    HW126556   3.309   2.582   5.518
41553SOL    HW226557   3.352   2.524   5.385
41554SOL     OW26558   2.550  13.625   8.298
41554SOL    HW126559   2.483  13.589   8.357
41554SOL    HW226560   2.501  13.652   8.220
41555SOL     OW26561   7.678   4.504  10.477
41555SOL    HW126562   7.633   4.543  10.552
41555SOL    HW226563   7.616   4.515  10.404
41556SOL     OW26564   8.491   9.467   2.050
41556SOL    HW126565   8.542   9.390   2.025
41556SOL    HW226566   8.487   9.462   2.146
41557SOL     OW26567   5.144   9.330   4.974
41557SOL    HW126568   5.223   9.343   5.025
41557SOL    HW226569   5.115   9.241   4.995
41558SOL     OW26570  10.691   7.381   8.695
41558SOL    HW126571  10.667   7.439   8.766
41558SOL    HW226572  10.687   7.435   8.616
41559SOL     OW26573   0.594   3.215   0.070
41559SOL    HW126574   0.639   3.277   0.127
41559SOL    HW226575   0.597   3.132   0.117
41560SOL     OW26576  10.749   8.905  10.236
41560SOL    HW126577  10.696   8.964  10.183
41560SOL    HW226578  10.838   8.914  10.201
41561SOL     OW26579   9.702   6.436   4.799
41561SOL    HW126580   9.664   6.429   4.711
41561SOL    HW226581   9.708   6.530   4.815
41562SOL     OW26582   7.339   5.129   2.768
41562SOL    HW126583   7.420   5.099   2.809
41562SOL    HW226584   7.359   5.132   2.674
41563SOL     OW26585   6.499  11.926   4.784
41563SOL    HW126586   6.568  11.915   4.718
41563SOL    HW226587   6.429  11.972   4.738
41564SOL     OW26588   3.812   0.398  10.453
41564SOL    HW126589   3.782   0.445  10.375
41564SOL    HW226590   3.906   0.411  10.454
41565SOL     OW26591  12.462   9.366   8.278
41565SOL    HW126592  12.533   9.347   8.218
41565SOL    HW226593  12.395   9.301   8.257
41566SOL     OW26594   8.642   7.108   2.870
41566SOL    HW126595   8.661   7.160   2.792
41566SOL    HW226596   8.663   7.167   2.943
41567SOL     OW26597   0.574   2.354   3.310
41567SOL    HW126598   0.532   2.349   3.224
41567SOL    HW226599   0.553   2.442   3.342
41568SOL     OW26600  10.811   3.259   5.584
41568SOL    HW126601  10.783   3.332   5.529
41568SOL    HW226602  10.907   3.264   5.581
41569SOL     OW26603   5.151   4.258   5.244
41569SOL    HW126604   5.176   4.222   5.158
41569SOL    HW226605   5.070   4.306   5.226
41570SOL     OW26606  11.181   6.521   3.767
41570SOL    HW126607  11.139   6.607   3.774
41570SOL    HW226608  11.114   6.465   3.728
41571SOL     OW26609   4.428  10.058   9.253
41571SOL    HW126610   4.381  10.141   9.259
41571SOL    HW226611   4.359   9.991   9.252
41572SOL     OW26612   8.412   1.007   5.883
41572SOL    HW126613   8.385   0.926   5.840
41572SOL    HW226614   8.507   1.006   5.877
41573SOL     OW26615  14.704   7.678   6.641
41573SOL    HW126616  14.738   7.768   6.649
41573SOL    HW226617  14.661   7.677   6.555
41574SOL     OW26618   8.634   7.089  12.925
41574SOL    HW126619   8.602   7.179  12.920
41574SOL    HW226620   8.668   7.070  12.838
41575SOL     OW26621   8.067   1.602   5.686
41575SOL    HW126622   8.036   1.521   5.645
41575SOL    HW226623   8.136   1.634   5.627
41576SOL     OW26624   6.301   5.628   0.065
41576SOL    HW126625   6.387   5.588   0.045
41576SOL    HW226626   6.258   5.565   0.122
41577SOL     OW26627   5.857   7.082  14.331
41577SOL    HW126628   5.851   7.172  14.363
41577SOL    HW226629   5.951   7.065  14.327
41578SOL     OW26630   0.180   5.465   1.248
41578SOL    HW126631   0.124   5.406   1.298
41578SOL    HW226632   0.227   5.515   1.314
41579SOL     OW26633   5.568   7.440   3.341
41579SOL    HW126634   5.586   7.514   3.399
41579SOL    HW226635   5.620   7.368   3.377
41580SOL     OW26636   8.074   5.217   9.020
41580SOL    HW126637   8.148   5.277   9.022
41580SOL    HW226638   7.997   5.272   9.006
41581SOL     OW26639  11.482  13.229   6.774
41581SOL    HW126640  11.491  13.272   6.859
41581SOL    HW226641  11.564  13.251   6.728
41582SOL     OW26642   6.398  13.147  11.798
41582SOL    HW126643   6.323  13.183  11.845
41582SOL    HW226644   6.438  13.085  11.859
41583SOL     OW26645  11.599   8.396  11.752
41583SOL    HW126646  11.583   8.433  11.839
41583SOL    HW226647  11.672   8.335  11.765
41584SOL     OW26648  10.801   1.599  11.021
41584SOL    HW126649  10.831   1.672  11.076
41584SOL    HW226650  10.729   1.637  10.970
41585SOL     OW26651   5.834   1.676   0.169
41585SOL    HW126652   5.821   1.683   0.074
41585SOL    HW226653   5.782   1.601   0.195
41586SOL     OW26654  13.926   6.547  14.376
41586SOL    HW126655  13.946   6.571  14.286
41586SOL    HW226656  13.934   6.629  14.426
41587SOL     OW26657   6.560   2.745  10.044
41587SOL    HW126658   6.473   2.740  10.084
41587SOL    HW226659   6.601   2.661  10.064
41588SOL     OW26660  11.758  13.823  11.195
41588SOL    HW126661  11.846  13.786  11.204
41588SOL    HW226662  11.751  13.887  11.265
41589SOL     OW26663   8.804  14.458   5.777
41589SOL    HW126664   8.760  14.384   5.820
41589SOL    HW226665   8.877  14.478   5.834
41590SOL     OW26666   8.522   2.734   0.027
41590SOL    HW126667   8.437   2.713  14.871
41590SOL    HW226668   8.545   2.819  14.871
41591SOL     OW26669   1.422  12.356  12.398
41591SOL    HW126670   1.412  12.261  12.405
41591SOL    HW226671   1.355  12.391  12.458
41592SOL     OW26672   5.919   7.930  14.528
41592SOL    HW126673   5.932   7.853  14.473
41592SOL    HW226674   5.992   7.929  14.590
41593SOL     OW26675   7.770   4.838   7.691
41593SOL    HW126676   7.793   4.763   7.747
41593SOL    HW226677   7.792   4.809   7.603
41594SOL     OW26678   4.982   2.537   7.595
41594SOL    HW126679   5.078   2.544   7.599
41594SOL    HW226680   4.955   2.609   7.538
41595SOL     OW26681   8.958   2.532   8.889
41595SOL    HW126682   8.933   2.544   8.797
41595SOL    HW226683   8.925   2.611   8.933
41596SOL     OW26684  14.276  13.706   1.981
41596SOL    HW126685  14.206  13.770   1.994
41596SOL    HW226686  14.237  13.623   2.008
41597SOL     OW26687   8.478   4.515   7.244
41597SOL    HW126688   8.401   4.537   7.297
41597SOL    HW226689   8.467   4.566   7.164
41598SOL     OW26690   5.499   0.507   1.503
41598SOL    HW126691   5.407   0.515   1.526
41598SOL    HW226692   5.545   0.552   1.574
41599SOL     OW26693  12.581  11.378  13.539
41599SOL    HW126694  12.615  11.318  13.605
41599SOL    HW226695  12.652  11.387  13.475
41600SOL     OW26696   1.779  12.562   2.378
41600SOL    HW126697   1.698  12.530   2.419
41600SOL    HW226698   1.847  12.546   2.443
41601SOL     OW26699   3.024  10.730   4.911
41601SOL    HW126700   3.027  10.722   5.007
41601SOL    HW226701   3.101  10.783   4.890
41602SOL     OW26702   5.530   3.885   4.123
41602SOL    HW126703   5.597   3.838   4.173
41602SOL    HW226704   5.575   3.912   4.043
41603SOL     OW26705  13.761  11.267   4.560
41603SOL    HW126706  13.689  11.239   4.615
41603SOL    HW226707  13.831  11.204   4.578
41604SOL     OW26708   6.617   7.541  12.684
41604SOL    HW126709   6.540   7.543  12.627
41604SOL    HW226710   6.613   7.457  12.729
41605SOL     OW26711  11.979   7.547   3.744
41605SOL    HW126712  11.884   7.560   3.742
41605SOL    HW226713  12.010   7.583   3.661
41606SOL     OW26714   5.875   5.964   0.771
41606SOL    HW126715   5.782   5.978   0.789
41606SOL    HW226716   5.916   5.961   0.857
41607SOL     OW26717   0.917   0.079  11.177
41607SOL    HW126718   0.863   0.004  11.152
41607SOL    HW226719   0.925   0.131  11.097
41608SOL     OW26720   9.809   5.006   3.068
41608SOL    HW126721   9.803   5.012   3.163
41608SOL    HW226722   9.825   5.096   3.039
41609SOL     OW26723   0.509  10.279  11.210
41609SOL    HW126724   0.509  10.184  11.223
41609SOL    HW226725   0.515  10.315  11.299
41610SOL     OW26726  13.575   6.538   6.216
41610SOL    HW126727  13.508   6.523   6.283
41610SOL    HW226728  13.566   6.630   6.193
41611SOL     OW26729   4.816  11.073   3.875
41611SOL    HW126730   4.811  10.993   3.926
41611SOL    HW226731   4.909  11.095   3.874
41612SOL     OW26732   0.754   9.923   4.053
41612SOL    HW126733   0.684   9.920   4.118
41612SOL    HW226734   0.818   9.859   4.084
41613SOL     OW26735  12.051   0.649   3.943
41613SOL    HW126736  12.054   0.744   3.954
41613SOL    HW226737  12.047   0.636   3.848
41614SOL     OW26738   8.195  10.419  11.348
41614SOL    HW126739   8.255  10.492  11.332
41614SOL    HW226740   8.202  10.365  11.269
41615SOL     OW26741   7.154   0.218   4.466
41615SOL    HW126742   7.134   0.134   4.508
41615SOL    HW226743   7.079   0.234   4.408
41616SOL     OW26744  10.887   0.966  11.523
41616SOL    HW126745  10.820   0.969  11.590
41616SOL    HW226746  10.892   1.056  11.490
41617SOL     OW26747   3.509  12.567   9.047
41617SOL    HW126748   3.509  12.651   9.001
41617SOL    HW226749   3.593  12.528   9.026
41618SOL     OW26750   7.564   5.415   9.133
41618SOL    HW126751   7.578   5.504   9.101
41618SOL    HW226752   7.583   5.359   9.058
41619SOL     OW26753   2.461   0.467  14.586
41619SOL    HW126754   2.416   0.517  14.519
41619SOL    HW226755   2.424   0.379  14.580
41620SOL     OW26756   9.963   5.491   9.676
41620SOL    HW126757  10.050   5.453   9.691
41620SOL    HW226758   9.954   5.495   9.581
41621SOL     OW26759   1.742  10.623   5.223
41621SOL    HW126760   1.759  10.539   5.265
41621SOL    HW226761   1.712  10.600   5.135
41622SOL     OW26762   4.021  12.886  11.638
41622SOL    HW126763   4.025  12.840  11.554
41622SOL    HW226764   3.950  12.949  11.628
41623SOL     OW26765   1.790   4.304   4.466
41623SOL    HW126766   1.789   4.209   4.458
41623SOL    HW226767   1.701   4.331   4.442
41624SOL     OW26768   4.093  14.054  11.076
41624SOL    HW126769   4.132  14.128  11.030
41624SOL    HW226770   4.020  14.026  11.020
41625SOL     OW26771   2.871  12.380   5.314
41625SOL    HW126772   2.953  12.330   5.305
41625SOL    HW226773   2.821  12.358   5.235
41626SOL     OW26774  10.121   5.538  12.611
41626SOL    HW126775  10.169   5.473  12.560
41626SOL    HW226776  10.034   5.541  12.571
41627SOL     OW26777   8.744   3.667   7.993
41627SOL    HW126778   8.740   3.739   8.056
41627SOL    HW226779   8.654   3.637   7.986
41628SOL     OW26780   2.731  14.754   1.616
41628SOL    HW126781   2.816  14.778   1.578
41628SOL    HW226782   2.734  14.790   1.705
41629SOL     OW26783   2.052  12.453   4.058
41629SOL    HW126784   2.042  12.361   4.034
41629SOL    HW226785   2.044  12.501   3.976
41630SOL     OW26786   2.110   0.905  14.787
41630SOL    HW126787   2.052   0.834  14.816
41630SOL    HW226788   2.099   0.906  14.691
41631SOL     OW26789   2.541  10.293   0.529
41631SOL    HW126790   2.626  10.281   0.486
41631SOL    HW226791   2.491  10.215   0.503
41632SOL     OW26792  14.257  12.278  13.537
41632SOL    HW126793  14.166  12.258  13.517
41632SOL    HW226794  14.284  12.211  13.599
41633SOL     OW26795   5.943   0.065   4.697
41633SOL    HW126796   5.891  14.871   4.672
41633SOL    HW226797   5.881   0.138   4.697
41634SOL     OW26798   2.691   8.023  12.972
41634SOL    HW126799   2.710   8.071  12.892
41634SOL    HW226800   2.774   7.985  12.999
41635SOL     OW26801   2.120   2.414   8.003
41635SOL    HW126802   2.208   2.447   7.986
41635SOL    HW226803   2.108   2.424   8.097
41636SOL     OW26804   7.095   6.222   5.224
41636SOL    HW126805   7.075   6.283   5.295
41636SOL    HW226806   7.022   6.230   5.163
41637SOL     OW26807   4.159   6.272   4.557
41637SOL    HW126808   4.147   6.183   4.523
41637SOL    HW226809   4.214   6.260   4.634
41638SOL     OW26810  11.545  11.630   7.327
41638SOL    HW126811  11.566  11.556   7.383
41638SOL    HW226812  11.579  11.706   7.375
41639SOL     OW26813  11.383   9.584   7.213
41639SOL    HW126814  11.303   9.552   7.171
41639SOL    HW226815  11.376   9.553   7.303
41640SOL     OW26816   4.384   7.884  10.093
41640SOL    HW126817   4.435   7.965  10.094
41640SOL    HW226818   4.391   7.852  10.003
41641SOL     OW26819   3.767   6.190   6.639
41641SOL    HW126820   3.727   6.179   6.553
41641SOL    HW226821   3.839   6.252   6.625
41642SOL     OW26822   2.737  10.668   5.251
41642SOL    HW126823   2.775  10.581   5.241
41642SOL    HW226824   2.737  10.704   5.162
41643SOL     OW26825   2.338  13.030  10.878
41643SOL    HW126826   2.353  13.124  10.870
41643SOL    HW226827   2.376  13.007  10.963
41644SOL     OW26828  10.219   8.557   2.672
41644SOL    HW126829  10.180   8.633   2.629
41644SOL    HW226830  10.219   8.579   2.765
41645SOL     OW26831   7.521   4.539   2.780
41645SOL    HW126832   7.469   4.461   2.762
41645SOL    HW226833   7.456   4.609   2.788
41646SOL     OW26834   0.107   5.863   1.854
41646SOL    HW126835   0.021   5.887   1.820
41646SOL    HW226836   0.090   5.841   1.946
41647SOL     OW26837   7.290  11.270   4.647
41647SOL    HW126838   7.235  11.192   4.647
41647SOL    HW226839   7.230  11.341   4.622
41648SOL     OW26840   6.959   2.569  10.366
41648SOL    HW126841   6.924   2.482  10.346
41648SOL    HW226842   7.054   2.559  10.362
41649SOL     OW26843  12.600  11.565   4.622
41649SOL    HW126844  12.654  11.502   4.573
41649SOL    HW226845  12.523  11.578   4.567
41650SOL     OW26846   2.380   7.835   6.606
41650SOL    HW126847   2.330   7.891   6.665
41650SOL    HW226848   2.458   7.810   6.657
41651SOL     OW26849   6.458   1.461  11.154
41651SOL    HW126850   6.535   1.514  11.176
41651SOL    HW226851   6.422   1.435  11.239
41652SOL     OW26852   4.778   8.302   8.043
41652SOL    HW126853   4.693   8.341   8.064
41652SOL    HW226854   4.757   8.217   8.003
41653SOL     OW26855   4.001   3.525  10.003
41653SOL    HW126856   3.968   3.595  10.059
41653SOL    HW226857   4.096   3.541   9.998
41654SOL     OW26858   1.711  12.226   4.279
41654SOL    HW126859   1.703  12.165   4.206
41654SOL    HW226860   1.643  12.292   4.263
41655SOL     OW26861   9.047  14.494   0.386
41655SOL    HW126862   8.966  14.482   0.435
41655SOL    HW226863   9.076  14.582   0.410
41656SOL     OW26864  12.404   9.663   2.103
41656SOL    HW126865  12.485   9.656   2.154
41656SOL    HW226866  12.424   9.728   2.036
41657SOL     OW26867  10.104   0.742   0.823
41657SOL    HW126868  10.151   0.824   0.809
41657SOL    HW226869  10.064   0.752   0.910
41658SOL     OW26870  14.737   6.307  14.384
41658SOL    HW126871  14.676   6.346  14.322
41658SOL    HW226872  14.760   6.378  14.444
41659SOL     OW26873  11.046   0.525   7.543
41659SOL    HW126874  11.053   0.593   7.611
41659SOL    HW226875  11.136   0.509   7.516
41660SOL     OW26876   2.511  10.554   7.331
41660SOL    HW126877   2.489  10.640   7.367
41660SOL    HW226878   2.585  10.524   7.383
41661SOL     OW26879   2.637   1.213   5.105
41661SOL    HW126880   2.590   1.240   5.026
41661SOL    HW226881   2.662   1.296   5.146
41662SOL     OW26882  14.796   6.575  12.019
41662SOL    HW126883  14.809   6.537  11.933
41662SOL    HW226884  14.866   6.639  12.028
41663SOL     OW26885   4.313   1.180  12.853
41663SOL    HW126886   4.289   1.260  12.806
41663SOL    HW226887   4.388   1.145  12.805
41664SOL     OW26888   1.006   8.966  11.063
41664SOL    HW126889   0.982   9.028  11.131
41664SOL    HW226890   0.925   8.950  11.015
41665SOL     OW26891  12.493   4.754  10.526
41665SOL    HW126892  12.460   4.743  10.615
41665SOL    HW226893  12.421   4.795  10.479
41666SOL     OW26894  13.694   9.922   8.433
41666SOL    HW126895  13.686   9.878   8.349
41666SOL    HW226896  13.662   9.859   8.497
41667SOL     OW26897  10.917   6.413   4.517
41667SOL    HW126898  10.974   6.387   4.445
41667SOL    HW226899  10.940   6.505   4.533
41668SOL     OW26900  13.400   7.883   2.592
41668SOL    HW126901  13.416   7.957   2.650
41668SOL    HW226902  13.417   7.917   2.504
41669SOL     OW26903   1.379   5.740  11.899
41669SOL    HW126904   1.321   5.817  11.894
41669SOL    HW226905   1.322   5.666  11.880
41670SOL     OW26906  10.826   5.599  10.646
41670SOL    HW126907  10.910   5.617  10.689
41670SOL    HW226908  10.840   5.518  10.598
41671SOL     OW26909   5.523   1.629   6.115
41671SOL    HW126910   5.543   1.584   6.033
41671SOL    HW226911   5.486   1.713   6.089
41672SOL     OW26912  13.091   3.874   4.899
41672SOL    HW126913  13.092   3.965   4.929
41672SOL    HW226914  13.013   3.869   4.843
41673SOL     OW26915   8.143   9.114   1.823
41673SOL    HW126916   8.190   9.074   1.896
41673SOL    HW226917   8.154   9.208   1.836
41674SOL     OW26918   1.873  13.035  14.394
41674SOL    HW126919   1.843  13.110  14.343
41674SOL    HW226920   1.926  13.073  14.464
41675SOL     OW26921   1.099  14.482  12.342
41675SOL    HW126922   1.192  14.503  12.338
41675SOL    HW226923   1.097  14.388  12.359
41676SOL     OW26924  11.361   3.427  11.800
41676SOL    HW126925  11.453   3.439  11.824
41676SOL    HW226926  11.313   3.483  11.861
41677SOL     OW26927   2.765  13.133  13.507
41677SOL    HW126928   2.816  13.070  13.457
41677SOL    HW226929   2.690  13.083  13.539
41678SOL     OW26930   2.966  12.940   4.539
41678SOL    HW126931   2.919  12.936   4.622
41678SOL    HW226932   2.938  12.861   4.492
41679SOL     OW26933  13.449  14.423   3.245
41679SOL    HW126934  13.502  14.431   3.165
41679SOL    HW226935  13.503  14.461   3.314
41680SOL     OW26936   8.547   6.284   2.415
41680SOL    HW126937   8.566   6.378   2.423
41680SOL    HW226938   8.497   6.277   2.334
41681SOL     OW26939  10.317  12.683  12.438
41681SOL    HW126940  10.307  12.778  12.439
41681SOL    HW226941  10.229  12.650  12.417
41682SOL     OW26942  13.847   8.715  11.502
41682SOL    HW126943  13.798   8.798  11.508
41682SOL    HW226944  13.933   8.740  11.469
41683SOL     OW26945   6.001   3.752   3.030
41683SOL    HW126946   5.961   3.730   3.114
41683SOL    HW226947   5.987   3.674   2.975
41684SOL     OW26948   5.917   5.310   9.114
41684SOL    HW126949   5.927   5.215   9.120
41684SOL    HW226950   5.914   5.340   9.205
41685SOL     OW26951   2.439  14.779   3.977
41685SOL    HW126952   2.435  14.691   4.014
41685SOL    HW226953   2.529  14.807   3.989
41686SOL     OW26954   8.117   9.611   9.215
41686SOL    HW126955   8.024   9.602   9.237
41686SOL    HW226956   8.149   9.676   9.278
41687SOL     OW26957  10.896   1.614  11.413
41687SOL    HW126958  10.991   1.605  11.422
41687SOL    HW226959  10.862   1.600  11.501
41688SOL     OW26960   6.868   6.295   9.370
41688SOL    HW126961   6.823   6.373   9.403
41688SOL    HW226962   6.886   6.314   9.278
41689SOL     OW26963   9.498  10.817  10.450
41689SOL    HW126964   9.420  10.772  10.482
41689SOL    HW226965   9.566  10.799  10.515
41690SOL     OW26966  12.698   3.583   8.621
41690SOL    HW126967  12.716   3.510   8.562
41690SOL    HW226968  12.611   3.613   8.597
41691SOL     OW26969   2.188   6.438   0.873
41691SOL    HW126970   2.218   6.465   0.960
41691SOL    HW226971   2.195   6.518   0.820
41692SOL     OW26972   8.010   0.972  10.226
41692SOL    HW126973   7.981   0.881  10.217
41692SOL    HW226974   8.104   0.970  10.208
41693SOL     OW26975  11.625   2.760  14.147
41693SOL    HW126976  11.540   2.802  14.137
41693SOL    HW226977  11.683   2.806  14.086
41694SOL     OW26978   1.898   5.300   4.669
41694SOL    HW126979   1.989   5.274   4.678
41694SOL    HW226980   1.892   5.339   4.581
41695SOL     OW26981  12.637   6.340   0.058
41695SOL    HW126982  12.585   6.418   0.080
41695SOL    HW226983  12.623   6.329  14.846
41696SOL     OW26984  12.166  10.366  10.727
41696SOL    HW126985  12.102  10.295  10.720
41696SOL    HW226986  12.246  10.330  10.688
41697SOL     OW26987   3.461  14.020   4.226
41697SOL    HW126988   3.547  14.042   4.191
41697SOL    HW226989   3.428  13.952   4.168
41698SOL     OW26990   9.554   1.518   8.562
41698SOL    HW126991   9.622   1.517   8.630
41698SOL    HW226992   9.517   1.606   8.568
41699SOL     OW26993   4.577   7.921  10.993
41699SOL    HW126994   4.597   7.988  10.928
41699SOL    HW226995   4.581   7.838  10.946
41700SOL     OW26996  13.403   9.230  14.239
41700SOL    HW126997  13.463   9.299  14.267
41700SOL    HW226998  13.455   9.174  14.182
41701SOL     OW26999  14.525   9.666   1.505
41701SOL    HW127000  14.508   9.754   1.472
41701SOL    HW227001  14.453   9.648   1.565
41702SOL     OW27002  12.101   0.023  12.763
41702SOL    HW127003  12.099   0.107  12.808
41702SOL    HW227004  12.132  14.843  12.829
41703SOL     OW27005   2.987   4.600   0.697
41703SOL    HW127006   3.067   4.650   0.679
41703SOL    HW227007   3.013   4.540   0.767
41704SOL     OW27008   3.691   1.680   5.629
41704SOL    HW127009   3.654   1.630   5.557
41704SOL    HW227010   3.772   1.634   5.651
41705SOL     OW27011   0.438   7.563   1.104
41705SOL    HW127012   0.381   7.604   1.039
41705SOL    HW227013   0.421   7.613   1.185
41706SOL     OW27014  12.943  13.413   0.023
41706SOL    HW127015  12.971  13.390   0.112
41706SOL    HW227016  12.898  13.496   0.033
41707SOL     OW27017  11.770  13.765   4.466
41707SOL    HW127018  11.780  13.842   4.522
41707SOL    HW227019  11.724  13.798   4.389
41708SOL     OW27020  11.276   0.014   1.794
41708SOL    HW127021  11.274   0.087   1.732
41708SOL    HW227022  11.306  14.821   1.743
41709SOL     OW27023  11.480   1.371   3.696
41709SOL    HW127024  11.501   1.358   3.789
41709SOL    HW227025  11.405   1.431   3.697
41710SOL     OW27026  11.783   5.624   7.965
41710SOL    HW127027  11.723   5.637   7.892
41710SOL    HW227028  11.763   5.695   8.026
41711SOL     OW27029   3.910  12.565   8.546
41711SOL    HW127030   3.825  12.542   8.508
41711SOL    HW227031   3.895  12.649   8.590
41712SOL     OW27032   2.630  13.730   4.693
41712SOL    HW127033   2.560  13.783   4.731
41712SOL    HW227034   2.672  13.687   4.767
41713SOL     OW27035   0.257  12.774  10.966
41713SOL    HW127036   0.228  12.764  10.875
41713SOL    HW227037   0.351  12.754  10.963
41714SOL     OW27038   2.885  13.737   4.953
41714SOL    HW127039   2.930  13.819   4.973
41714SOL    HW227040   2.920  13.673   5.015
41715SOL     OW27041  13.946   6.669   6.691
41715SOL    HW127042  13.883   6.738   6.712
41715SOL    HW227043  14.011   6.711   6.635
41716SOL     OW27044   3.537   0.375   1.263
41716SOL    HW127045   3.578   0.381   1.177
41716SOL    HW227046   3.457   0.326   1.249
41717SOL     OW27047  11.750  12.933  10.699
41717SOL    HW127048  11.839  12.923  10.665
41717SOL    HW227049  11.717  13.013  10.658
41718SOL     OW27050   5.019  11.892   9.610
41718SOL    HW127051   4.962  11.966   9.587
41718SOL    HW227052   5.101  11.910   9.565
41719SOL     OW27053   0.398   0.163  12.180
41719SOL    HW127054   0.346   0.171  12.260
41719SOL    HW227055   0.347   0.211  12.114
41720SOL     OW27056   4.243  11.734   6.792
41720SOL    HW127057   4.271  11.825   6.780
41720SOL    HW227058   4.148  11.738   6.803
41721SOL     OW27059   1.599   2.447   1.704
41721SOL    HW127060   1.525   2.428   1.646
41721SOL    HW227061   1.631   2.532   1.675
41722SOL     OW27062   7.505   5.473  12.405
41722SOL    HW127063   7.537   5.422  12.330
41722SOL    HW227064   7.424   5.430  12.430
41723SOL     OW27065  10.099   7.647   5.780
41723SOL    HW127066  10.150   7.718   5.818
41723SOL    HW227067  10.066   7.598   5.856
41724SOL     OW27068   1.813   4.250   7.288
41724SOL    HW127069   1.781   4.239   7.378
41724SOL    HW227070   1.905   4.223   7.292
41725SOL     OW27071  12.385  11.969  11.338
41725SOL    HW127072  12.349  11.880  11.328
41725SOL    HW227073  12.450  11.961  11.407
41726SOL     OW27074   4.735   5.893  12.513
41726SOL    HW127075   4.705   5.957  12.578
41726SOL    HW227076   4.655   5.848  12.485
41727SOL     OW27077   9.225  11.869   9.655
41727SOL    HW127078   9.296  11.911   9.704
41727SOL    HW227079   9.230  11.907   9.567
41728SOL     OW27080   2.000   9.492   0.866
41728SOL    HW127081   2.069   9.459   0.808
41728SOL    HW227082   2.044   9.506   0.950
41729SOL     OW27083  14.692  13.672   1.342
41729SOL    HW127084  14.697  13.765   1.365
41729SOL    HW227085  14.686  13.671   1.247
41730SOL     OW27086  13.157   3.173  13.820
41730SOL    HW127087  13.172   3.158  13.913
41730SOL    HW227088  13.214   3.246  13.798
41731SOL     OW27089  12.327  14.038   8.578
41731SOL    HW127090  12.392  13.980   8.537
41731SOL    HW227091  12.263  14.053   8.509
41732SOL     OW27092  12.366   9.853   4.805
41732SOL    HW127093  12.406   9.938   4.785
41732SOL    HW227094  12.438   9.790   4.795
41733SOL     OW27095   7.544  10.885  12.281
41733SOL    HW127096   7.472  10.944  12.259
41733SOL    HW227097   7.622  10.941  12.282
41734SOL     OW27098  13.766  11.123   7.033
41734SOL    HW127099  13.797  11.032   7.038
41734SOL    HW227100  13.675  11.116   7.004
41735SOL     OW27101  12.885   5.288   3.284
41735SOL    HW127102  12.950   5.252   3.343
41735SOL    HW227103  12.884   5.227   3.210
41736SOL     OW27104  11.383  13.979  13.866
41736SOL    HW127105  11.362  14.040  13.795
41736SOL    HW227106  11.421  14.034  13.935
41737SOL     OW27107   9.648  10.670   6.301
41737SOL    HW127108   9.577  10.727   6.273
41737SOL    HW227109   9.606  10.587   6.321
41738SOL     OW27110   4.909   7.177   5.533
41738SOL    HW127111   4.868   7.207   5.453
41738SOL    HW227112   4.879   7.086   5.542
41739SOL     OW27113  10.553   7.576   8.972
41739SOL    HW127114  10.636   7.542   9.004
41739SOL    HW227115  10.562   7.671   8.977
41740SOL     OW27116   8.158  13.499  10.330
41740SOL    HW127117   8.240  13.504  10.379
41740SOL    HW227118   8.110  13.427  10.371
41741SOL     OW27119   2.535   2.952   7.418
41741SOL    HW127120   2.450   2.996   7.425
41741SOL    HW227121   2.516   2.860   7.437
41742SOL     OW27122  14.068   3.096  13.201
41742SOL    HW127123  13.976   3.118  13.215
41742SOL    HW227124  14.104   3.171  13.154
41743SOL     OW27125  11.014   8.679   2.807
41743SOL    HW127126  10.997   8.686   2.901
41743SOL    HW227127  11.068   8.600   2.798
41744SOL     OW27128   4.200   9.499   2.585
41744SOL    HW127129   4.132   9.565   2.572
41744SOL    HW227130   4.278   9.550   2.606
41745SOL     OW27131   9.956   4.014   0.484
41745SOL    HW127132   9.934   3.921   0.485
41745SOL    HW227133  10.013   4.026   0.560
41746SOL     OW27134   4.612   1.094   4.875
41746SOL    HW127135   4.682   1.124   4.816
41746SOL    HW227136   4.647   1.016   4.916
41747SOL     OW27137  14.773   4.635  10.691
41747SOL    HW127138  14.724   4.553  10.689
41747SOL    HW227139  14.855   4.613  10.735
41748SOL     OW27140   8.899   8.610  10.825
41748SOL    HW127141   8.820   8.609  10.771
41748SOL    HW227142   8.873   8.570  10.907
41749SOL     OW27143   7.676  10.072   7.940
41749SOL    HW127144   7.728  10.111   7.870
41749SOL    HW227145   7.733  10.005   7.977
41750SOL     OW27146   0.797  13.794   6.269
41750SOL    HW127147   0.760  13.746   6.343
41750SOL    HW227148   0.825  13.725   6.208
41751SOL     OW27149   2.227  14.301   6.812
41751SOL    HW127150   2.183  14.382   6.784
41751SOL    HW227151   2.299  14.290   6.750
41752SOL     OW27152   7.678   3.393  10.756
41752SOL    HW127153   7.609   3.367  10.695
41752SOL    HW227154   7.748   3.427  10.700
41753SOL     OW27155   3.734   4.523   8.534
41753SOL    HW127156   3.728   4.612   8.501
41753SOL    HW227157   3.826   4.511   8.556
41754SOL     OW27158   9.532   1.944  10.188
41754SOL    HW127159   9.475   2.002  10.138
41754SOL    HW227160   9.618   1.952  10.146
41755SOL     OW27161  10.615  14.809   0.176
41755SOL    HW127162  10.604  14.797   0.082
41755SOL    HW227163  10.707  14.786   0.192
41756SOL     OW27164   9.378   3.969   2.543
41756SOL    HW127165   9.398   3.882   2.508
41756SOL    HW227166   9.454   4.022   2.521
41757SOL     OW27167   0.814   3.339   7.836
41757SOL    HW127168   0.903   3.368   7.854
41757SOL    HW227169   0.782   3.306   7.921
41758SOL     OW27170   6.863  10.855  11.868
41758SOL    HW127171   6.852  10.916  11.941
41758SOL    HW227172   6.864  10.910  11.790
41759SOL     OW27173  12.590  12.597   1.965
41759SOL    HW127174  12.524  12.639   2.019
41759SOL    HW227175  12.547  12.586   1.880
41760SOL     OW27176  13.309  11.350   7.767
41760SOL    HW127177  13.292  11.444   7.755
41760SOL    HW227178  13.344  11.343   7.855
41761SOL     OW27179  12.352   5.273  13.519
41761SOL    HW127180  12.293   5.259  13.446
41761SOL    HW227181  12.303   5.244  13.596
41762SOL     OW27182  14.417  10.797   6.358
41762SOL    HW127183  14.331  10.789   6.399
41762SOL    HW227184  14.428  10.890   6.343
41763SOL     OW27185   1.312   1.902   9.418
41763SOL    HW127186   1.391   1.869   9.374
41763SOL    HW227187   1.309   1.855   9.501
41764SOL     OW27188  10.092  14.854   1.048
41764SOL    HW127189  10.137   0.035   0.991
41764SOL    HW227190  10.109  14.769   1.007
41765SOL     OW27191   7.640   5.372   5.427
41765SOL    HW127192   7.606   5.283   5.429
41765SOL    HW227193   7.608   5.412   5.508
41766SOL     OW27194  14.496   0.707   0.971
41766SOL    HW127195  14.525   0.725   1.061
41766SOL    HW227196  14.402   0.725   0.972
41767SOL     OW27197   5.189  11.240   4.686
41767SOL    HW127198   5.266  11.214   4.634
41767SOL    HW227199   5.225  11.262   4.772
41768SOL     OW27200   3.798   5.614   9.900
41768SOL    HW127201   3.811   5.561   9.821
41768SOL    HW227202   3.716   5.661   9.885
41769SOL     OW27203   7.494   6.865  10.453
41769SOL    HW127204   7.526   6.776  10.467
41769SOL    HW227205   7.408   6.867  10.496
41770SOL     OW27206  10.961   0.633   2.076
41770SOL    HW127207  10.940   0.656   2.166
41770SOL    HW227208  11.000   0.546   2.081
41771SOL     OW27209  13.861   5.584   5.861
41771SOL    HW127210  13.833   5.636   5.937
41771SOL    HW227211  13.817   5.500   5.873
41772SOL     OW27212  10.263  12.796   2.608
41772SOL    HW127213  10.313  12.875   2.632
41772SOL    HW227214  10.178  12.808   2.650
41773SOL     OW27215   6.245  11.825   0.578
41773SOL    HW127216   6.202  11.900   0.537
41773SOL    HW227217   6.250  11.759   0.508
41774SOL     OW27218   6.834   4.720   9.008
41774SOL    HW127219   6.891   4.792   8.981
41774SOL    HW227220   6.751   4.738   8.963
41775SOL     OW27221   0.088   8.606   7.895
41775SOL    HW127222   0.047   8.524   7.924
41775SOL    HW227223   0.130   8.584   7.812
41776SOL     OW27224   9.610  14.143   8.755
41776SOL    HW127225   9.627  14.062   8.706
41776SOL    HW227226   9.613  14.212   8.688
41777SOL     OW27227   5.659  14.307  14.578
41777SOL    HW127228   5.583  14.351  14.617
41777SOL    HW227229   5.735  14.352  14.615
41778SOL     OW27230   8.231   6.136   9.322
41778SOL    HW127231   8.142   6.171   9.335
41778SOL    HW227232   8.217   6.048   9.288
41779SOL     OW27233  11.111  14.537  12.014
41779SOL    HW127234  11.030  14.525  11.963
41779SOL    HW227235  11.173  14.476  11.974
41780SOL     OW27236  13.634   9.296  13.488
41780SOL    HW127237  13.724   9.329  13.492
41780SOL    HW227238  13.583   9.359  13.538
41781SOL     OW27239   5.064   0.059   6.993
41781SOL    HW127240   5.135  14.877   6.994
41781SOL    HW227241   5.102   0.138   6.955
41782SOL     OW27242   5.461   5.191   6.816
41782SOL    HW127243   5.548   5.151   6.816
41782SOL    HW227244   5.435   5.193   6.724
41783SOL     OW27245  10.818   7.696  14.580
41783SOL    HW127246  10.777   7.682  14.495
41783SOL    HW227247  10.750   7.672  14.643
41784SOL     OW27248  12.488   5.242  14.729
41784SOL    HW127249  12.403   5.262  14.691
41784SOL    HW227250  12.525   5.327  14.753
41785SOL     OW27251   8.802  11.913  11.517
41785SOL    HW127252   8.791  11.943  11.426
41785SOL    HW227253   8.713  11.893  11.546
41786SOL     OW27254  11.600  13.884   9.104
41786SOL    HW127255  11.637  13.807   9.060
41786SOL    HW227256  11.663  13.954   9.088
41787SOL     OW27257  13.072   6.611   8.334
41787SOL    HW127258  13.102   6.583   8.248
41787SOL    HW227259  13.147   6.597   8.391
41788SOL     OW27260   9.599  13.217   3.446
41788SOL    HW127261   9.536  13.287   3.462
41788SOL    HW227262   9.545  13.138   3.441
41789SOL     OW27263   2.577   5.203   7.345
41789SOL    HW127264   2.528   5.125   7.371
41789SOL    HW227265   2.565   5.209   7.250
41790SOL     OW27266   0.649  14.096   9.772
41790SOL    HW127267   0.624  14.074   9.862
41790SOL    HW227268   0.618  14.022   9.720
41791SOL     OW27269   1.167   5.792  10.078
41791SOL    HW127270   1.251   5.760  10.110
41791SOL    HW227271   1.112   5.714  10.072
41792SOL     OW27272   7.615  14.370  13.429
41792SOL    HW127273   7.652  14.302  13.484
41792SOL    HW227274   7.672  14.446  13.442
41793SOL     OW27275   0.411   0.255   8.356
41793SOL    HW127276   0.473   0.185   8.338
41793SOL    HW227277   0.435   0.325   8.295
41794SOL     OW27278   6.460   0.982  12.495
41794SOL    HW127279   6.511   1.063  12.487
41794SOL    HW227280   6.523   0.918  12.529
41795SOL     OW27281   7.657  14.774  10.172
41795SOL    HW127282   7.672  14.679  10.174
41795SOL    HW227283   7.744  14.812  10.168
41796SOL     OW27284   2.532   2.363   3.057
41796SOL    HW127285   2.509   2.358   3.150
41796SOL    HW227286   2.498   2.281   3.020
41797SOL     OW27287   0.965  13.181   6.962
41797SOL    HW127288   0.957  13.258   6.905
41797SOL    HW227289   1.059  13.169   6.974
41798SOL     OW27290   2.307   0.310  13.228
41798SOL    HW127291   2.244   0.365  13.183
41798SOL    HW227292   2.360   0.271  13.158
41799SOL     OW27293   2.748   7.759  11.297
41799SOL    HW127294   2.753   7.824  11.227
41799SOL    HW227295   2.683   7.695  11.267
41800SOL     OW27296   5.408  13.954   2.503
41800SOL    HW127297   5.448  14.018   2.561
41800SOL    HW227298   5.452  13.871   2.523
41801SOL     OW27299   9.497   5.834   0.969
41801SOL    HW127300   9.422   5.798   0.922
41801SOL    HW227301   9.567   5.770   0.955
41802SOL     OW27302   3.904   7.111   9.780
41802SOL    HW127303   3.977   7.108   9.719
41802SOL    HW227304   3.841   7.049   9.745
41803SOL     OW27305  13.819   9.552   9.357
41803SOL    HW127306  13.888   9.502   9.401
41803SOL    HW227307  13.746   9.491   9.348
41804SOL     OW27308  12.229   0.435   3.790
41804SOL    HW127309  12.316   0.414   3.755
41804SOL    HW227310  12.206   0.518   3.747
41805SOL     OW27311   1.621   4.838   1.269
41805SOL    HW127312   1.623   4.744   1.253
41805SOL    HW227313   1.597   4.876   1.184
41806SOL     OW27314  11.665   9.195   6.534
41806SOL    HW127315  11.737   9.191   6.472
41806SOL    HW227316  11.686   9.128   6.599
41807SOL     OW27317   9.802   0.588   9.509
41807SOL    HW127318   9.764   0.520   9.564
41807SOL    HW227319   9.772   0.670   9.549
41808SOL     OW27320   8.659  13.454   1.855
41808SOL    HW127321   8.586  13.505   1.821
41808SOL    HW227322   8.619  13.391   1.915
41809SOL     OW27323   7.030   1.456   4.970
41809SOL    HW127324   7.083   1.490   4.898
41809SOL    HW227325   6.987   1.533   5.007
41810SOL     OW27326   8.980   6.574  14.468
41810SOL    HW127327   8.981   6.666  14.495
41810SOL    HW227328   8.950   6.527  14.546
41811SOL     OW27329  11.976   3.915   8.062
41811SOL    HW127330  11.961   3.998   8.106
41811SOL    HW227331  11.931   3.925   7.977
41812SOL     OW27332   6.970   7.082  10.307
41812SOL    HW127333   6.915   7.154  10.276
41812SOL    HW227334   7.059   7.118  10.307
41813SOL     OW27335   9.678   5.793  11.354
41813SOL    HW127336   9.618   5.785  11.280
41813SOL    HW227337   9.659   5.879  11.391
41814SOL     OW27338   5.298  11.069   1.820
41814SOL    HW127339   5.388  11.083   1.851
41814SOL    HW227340   5.306  10.997   1.757
41815SOL     OW27341   2.901   4.127   4.112
41815SOL    HW127342   2.996   4.129   4.118
41815SOL    HW227343   2.874   4.217   4.130
41816SOL     OW27344   2.668  11.211   3.031
41816SOL    HW127345   2.607  11.147   2.995
41816SOL    HW227346   2.731  11.226   2.961
41817SOL     OW27347   8.448   6.671   6.642
41817SOL    HW127348   8.542   6.666   6.624
41817SOL    HW227349   8.410   6.708   6.562
41818SOL     OW27350   2.984  11.863   8.853
41818SOL    HW127351   3.051  11.912   8.900
41818SOL    HW227352   2.964  11.917   8.777
41819SOL     OW27353   8.140  12.201   1.853
41819SOL    HW127354   8.117  12.274   1.796
41819SOL    HW227355   8.085  12.211   1.930
41820SOL     OW27356   6.139  13.146   0.273
41820SOL    HW127357   6.046  13.127   0.265
41820SOL    HW227358   6.178  13.106   0.196
41821SOL     OW27359   0.763   5.697   4.736
41821SOL    HW127360   0.680   5.685   4.783
41821SOL    HW227361   0.742   5.757   4.664
41822SOL     OW27362  12.018   1.219   1.526
41822SOL    HW127363  12.087   1.276   1.492
41822SOL    HW227364  11.961   1.278   1.576
41823SOL     OW27365   4.298   5.028   3.180
41823SOL    HW127366   4.362   5.048   3.112
41823SOL    HW227367   4.272   5.113   3.214
41824SOL     OW27368   7.746   6.982  11.560
41824SOL    HW127369   7.726   6.981  11.466
41824SOL    HW227370   7.664   7.011  11.601
41825SOL     OW27371  12.461  14.565   3.411
41825SOL    HW127372  12.411  14.483   3.418
41825SOL    HW227373  12.548  14.542   3.444
41826SOL     OW27374  14.443   3.822  10.367
41826SOL    HW127375  14.531   3.802  10.399
41826SOL    HW227376  14.437   3.778  10.282
41827SOL     OW27377   3.752   1.258   5.045
41827SOL    HW127378   3.801   1.313   5.106
41827SOL    HW227379   3.819   1.227   4.983
41828SOL     OW27380  13.794   2.262   6.029
41828SOL    HW127381  13.763   2.174   6.054
41828SOL    HW227382  13.879   2.270   6.073
41829SOL     OW27383   8.656   7.961   0.751
41829SOL    HW127384   8.636   8.049   0.783
41829SOL    HW227385   8.623   7.902   0.819
41830SOL     OW27386  10.014   3.568   9.651
41830SOL    HW127387  10.084   3.584   9.714
41830SOL    HW227388   9.943   3.529   9.702
41831SOL     OW27389   5.042   4.303   3.146
41831SOL    HW127390   5.008   4.344   3.225
41831SOL    HW227391   5.109   4.363   3.114
41832SOL     OW27392   1.647   9.519   6.024
41832SOL    HW127393   1.677   9.601   6.063
41832SOL    HW227394   1.659   9.532   5.930
41833SOL     OW27395  14.103  13.677  13.232
41833SOL    HW127396  14.165  13.729  13.284
41833SOL    HW227397  14.106  13.590  13.271
41834SOL     OW27398   6.569  11.842   1.735
41834SOL    HW127399   6.506  11.805   1.797
41834SOL    HW227400   6.644  11.781   1.738
41835SOL     OW27401   0.774   8.604  11.974
41835SOL    HW127402   0.820   8.563  12.047
41835SOL    HW227403   0.752   8.531  11.916
41836SOL     OW27404   6.017  13.142   9.671
41836SOL    HW127405   6.051  13.064   9.627
41836SOL    HW227406   6.061  13.215   9.628
41837SOL     OW27407   5.330   3.287  13.478
41837SOL    HW127408   5.334   3.239  13.561
41837SOL    HW227409   5.257   3.247  13.430
41838SOL     OW27410   7.936  14.477   8.519
41838SOL    HW127411   8.008  14.537   8.500
41838SOL    HW227412   7.970  14.391   8.496
41839SOL     OW27413   7.241   5.826   2.920
41839SOL    HW127414   7.147   5.838   2.907
41839SOL    HW227415   7.253   5.826   3.015
41840SOL     OW27416  14.087  10.897   1.861
41840SOL    HW127417  14.161  10.838   1.847
41840SOL    HW227418  14.117  10.957   1.930
41841SOL     OW27419  14.697   2.089   1.383
41841SOL    HW127420  14.684   1.994   1.387
41841SOL    HW227421  14.778   2.100   1.333
41842SOL     OW27422  14.800  11.203   5.718
41842SOL    HW127423  14.730  11.149   5.756
41842SOL    HW227424  14.869  11.140   5.696
41843SOL     OW27425   3.809   2.940   9.721
41843SOL    HW127426   3.761   2.930   9.639
41843SOL    HW227427   3.742   2.951   9.788
41844SOL     OW27428   1.029   2.491   0.351
41844SOL    HW127429   1.044   2.426   0.418
41844SOL    HW227430   1.019   2.441   0.270
41845SOL     OW27431   4.768   4.992  12.722
41845SOL    HW127432   4.797   4.909  12.759
41845SOL    HW227433   4.785   4.984  12.628
41846SOL     OW27434   3.506  13.047  14.205
41846SOL    HW127435   3.457  13.117  14.161
41846SOL    HW227436   3.445  13.014  14.272
41847SOL     OW27437   3.597   5.655   5.330
41847SOL    HW127438   3.646   5.599   5.270
41847SOL    HW227439   3.580   5.600   5.406
41848SOL     OW27440  11.262   2.045   3.518
41848SOL    HW127441  11.252   2.102   3.595
41848SOL    HW227442  11.258   2.105   3.443
41849SOL     OW27443  11.560   2.112   4.840
41849SOL    HW127444  11.627   2.081   4.780
41849SOL    HW227445  11.601   2.185   4.886
41850SOL     OW27446  14.726   2.965   4.829
41850SOL    HW127447  14.808   2.948   4.784
41850SOL    HW227448  14.750   3.020   4.904
41851SOL     OW27449  12.737   1.456   3.275
41851SOL    HW127450  12.831   1.473   3.275
41851SOL    HW227451  12.718   1.425   3.363
41852SOL     OW27452  14.182  10.194   8.103
41852SOL    HW127453  14.174  10.211   8.009
41852SOL    HW227454  14.114  10.248   8.144
41853SOL     OW27455   0.383   7.658   5.009
41853SOL    HW127456   0.350   7.614   4.931
41853SOL    HW227457   0.305   7.685   5.057
41854SOL     OW27458   5.261  14.343   2.547
41854SOL    HW127459   5.187  14.385   2.592
41854SOL    HW227460   5.221  14.301   2.471
41855SOL     OW27461   0.388   3.990  12.613
41855SOL    HW127462   0.462   3.935  12.637
41855SOL    HW227463   0.400   4.071  12.663
41856SOL     OW27464  11.115  11.301   5.209
41856SOL    HW127465  11.022  11.290   5.230
41856SOL    HW227466  11.137  11.388   5.241
41857SOL     OW27467  10.955   2.919  13.901
41857SOL    HW127468  10.997   2.893  13.819
41857SOL    HW227469  10.861   2.914  13.882
41858SOL     OW27470   9.693   5.490  11.651
41858SOL    HW127471   9.674   5.400  11.624
41858SOL    HW227472   9.611   5.538  11.636
41859SOL     OW27473   1.882   4.560   4.408
41859SOL    HW127474   1.977   4.557   4.402
41859SOL    HW227475   1.853   4.470   4.395
41860SOL     OW27476  11.049   5.585   2.783
41860SOL    HW127477  11.039   5.527   2.707
41860SOL    HW227478  11.077   5.527   2.854
41861SOL     OW27479   3.449   4.055  11.031
41861SOL    HW127480   3.414   4.083  10.947
41861SOL    HW227481   3.400   4.105  11.096
41862SOL     OW27482   2.426   7.326  12.599
41862SOL    HW127483   2.477   7.362  12.527
41862SOL    HW227484   2.491   7.290  12.659
41863SOL     OW27485  14.138  12.945   6.576
41863SOL    HW127486  14.099  12.923   6.491
41863SOL    HW227487  14.230  12.965   6.555
41864SOL     OW27488   5.030  10.886  12.215
41864SOL    HW127489   4.998  10.801  12.183
41864SOL    HW227490   4.961  10.948  12.191
41865SOL     OW27491   0.036  12.583   4.866
41865SOL    HW127492   0.065  12.519   4.931
41865SOL    HW227493   0.117  12.618   4.829
41866SOL     OW27494   3.738  10.990   9.318
41866SOL    HW127495   3.771  10.904   9.341
41866SOL    HW227496   3.672  11.009   9.385
41867SOL     OW27497  11.863   0.186  13.493
41867SOL    HW127498  11.864   0.098  13.454
41867SOL    HW227499  11.780   0.190  13.541
41868SOL     OW27500  12.820  13.338   8.724
41868SOL    HW127501  12.788  13.400   8.790
41868SOL    HW227502  12.758  13.266   8.727
41869SOL     OW27503   0.829  10.847  10.691
41869SOL    HW127504   0.735  10.841  10.707
41869SOL    HW227505   0.840  10.815  10.602
41870SOL     OW27506   7.271   3.209  13.051
41870SOL    HW127507   7.286   3.284  12.993
41870SOL    HW227508   7.317   3.232  13.132
41871SOL     OW27509   3.369  10.616   8.908
41871SOL    HW127510   3.430  10.690   8.906
41871SOL    HW227511   3.292  10.649   8.953
41872SOL     OW27512   2.594   1.997  14.505
41872SOL    HW127513   2.611   1.911  14.543
41872SOL    HW227514   2.563   1.979  14.416
41873SOL     OW27515   5.191   0.507   6.330
41873SOL    HW127516   5.186   0.417   6.298
41873SOL    HW227517   5.133   0.509   6.406
41874SOL     OW27518   9.515   5.103  12.676
41874SOL    HW127519   9.476   5.064  12.598
41874SOL    HW227520   9.440   5.137  12.726
41875SOL     OW27521   7.025   7.994  12.744
41875SOL    HW127522   7.095   8.043  12.787
41875SOL    HW227523   7.069   7.916  12.710
41876SOL     OW27524  12.789  13.138  12.516
41876SOL    HW127525  12.883  13.122  12.512
41876SOL    HW227526  12.771  13.151  12.609
41877SOL     OW27527   4.781   9.205  10.482
41877SOL    HW127528   4.780   9.259  10.561
41877SOL    HW227529   4.805   9.266  10.412
41878SOL     OW27530   4.518   7.042   3.941
41878SOL    HW127531   4.468   7.110   3.895
41878SOL    HW227532   4.461   7.016   4.014
41879SOL     OW27533  13.680  13.068  14.214
41879SOL    HW127534  13.699  13.062  14.308
41879SOL    HW227535  13.639  12.984  14.193
41880SOL     OW27536   8.048   8.824   3.847
41880SOL    HW127537   7.971   8.868   3.810
41880SOL    HW227538   8.096   8.792   3.771
41881SOL     OW27539   7.897  12.735  14.423
41881SOL    HW127540   7.945  12.749  14.341
41881SOL    HW227541   7.813  12.700  14.395
41882SOL     OW27542   2.797   4.910  14.033
41882SOL    HW127543   2.827   4.846  13.969
41882SOL    HW227544   2.720   4.950  13.993
41883SOL     OW27545   1.890   3.158   0.824
41883SOL    HW127546   1.957   3.109   0.871
41883SOL    HW227547   1.939   3.224   0.774
41884SOL     OW27548  13.220   9.721   9.229
41884SOL    HW127549  13.261   9.666   9.294
41884SOL    HW227550  13.135   9.680   9.213
41885SOL     OW27551   2.161   8.568   5.041
41885SOL    HW127552   2.215   8.498   5.004
41885SOL    HW227553   2.075   8.528   5.052
41886SOL     OW27554  13.371   0.521   2.708
41886SOL    HW127555  13.338   0.437   2.675
41886SOL    HW227556  13.303   0.552   2.768
41887SOL     OW27557   4.760   4.186   8.479
41887SOL    HW127558   4.742   4.093   8.497
41887SOL    HW227559   4.785   4.188   8.387
41888SOL     OW27560   7.190   8.275   1.482
41888SOL    HW127561   7.206   8.195   1.531
41888SOL    HW227562   7.190   8.344   1.548
41889SOL     OW27563  12.761  14.634  12.813
41889SOL    HW127564  12.748  14.546  12.848
41889SOL    HW227565  12.776  14.688  12.891
41890SOL     OW27566   6.219  10.904   8.069
41890SOL    HW127567   6.239  10.836   8.004
41890SOL    HW227568   6.173  10.972   8.019
41891SOL     OW27569   0.887   8.601  10.634
41891SOL    HW127570   0.951   8.571  10.699
41891SOL    HW227571   0.891   8.535  10.565
41892SOL     OW27572   5.505   5.573  12.875
41892SOL    HW127573   5.508   5.485  12.913
41892SOL    HW227574   5.426   5.573  12.821
41893SOL     OW27575   7.015   9.037   5.275
41893SOL    HW127576   7.027   8.958   5.223
41893SOL    HW227577   6.938   9.019   5.328
41894SOL     OW27578   8.318  13.790   4.889
41894SOL    HW127579   8.323  13.850   4.815
41894SOL    HW227580   8.349  13.842   4.964
41895SOL     OW27581   9.343  14.797   3.387
41895SOL    HW127582   9.398  14.731   3.429
41895SOL    HW227583   9.262  14.797   3.437
41896SOL     OW27584   0.023   2.032   4.159
41896SOL    HW127585   0.045   1.992   4.243
41896SOL    HW227586  14.833   2.091   4.178
41897SOL     OW27587   2.767   4.394   2.649
41897SOL    HW127588   2.747   4.481   2.684
41897SOL    HW227589   2.711   4.386   2.572
41898SOL     OW27590  13.527  11.716  12.493
41898SOL    HW127591  13.547  11.805  12.465
41898SOL    HW227592  13.558  11.711  12.583
41899SOL     OW27593   9.447  10.712  10.869
41899SOL    HW127594   9.428  10.643  10.932
41899SOL    HW227595   9.374  10.773  10.877
41900SOL     OW27596   1.813  11.273   4.060
41900SOL    HW127597   1.784  11.187   4.029
41900SOL    HW227598   1.837  11.259   4.152
41901SOL     OW27599   8.143   8.325  12.222
41901SOL    HW127600   8.193   8.253  12.183
41901SOL    HW227601   8.172   8.327  12.313
41902SOL     OW27602   5.053   0.917   4.424
41902SOL    HW127603   5.145   0.939   4.409
41902SOL    HW227604   5.054   0.827   4.455
41903SOL     OW27605   3.712   4.439   5.010
41903SOL    HW127606   3.726   4.511   4.949
41903SOL    HW227607   3.740   4.474   5.095
41904SOL     OW27608   4.716   1.444   0.601
41904SOL    HW127609   4.643   1.383   0.612
41904SOL    HW227610   4.787   1.391   0.566
41905SOL     OW27611   9.012   6.490   2.877
41905SOL    HW127612   9.099   6.481   2.917
41905SOL    HW227613   9.029   6.484   2.783
41906SOL     OW27614  10.822   9.330  12.650
41906SOL    HW127615  10.885   9.397  12.623
41906SOL    HW227616  10.754   9.333  12.582
41907SOL     OW27617   3.754  10.694   7.439
41907SOL    HW127618   3.667  10.705   7.402
41907SOL    HW227619   3.809  10.756   7.392
41908SOL     OW27620  11.491  10.144  13.148
41908SOL    HW127621  11.444  10.227  13.146
41908SOL    HW227622  11.532  10.142  13.235
41909SOL     OW27623  13.546   1.210   4.726
41909SOL    HW127624  13.605   1.255   4.665
41909SOL    HW227625  13.577   1.120   4.728
41910SOL     OW27626   6.143  10.622  12.920
41910SOL    HW127627   6.060  10.583  12.892
41910SOL    HW227628   6.187  10.553  12.969
41911SOL     OW27629   9.211   1.005   1.753
41911SOL    HW127630   9.250   0.980   1.669
41911SOL    HW227631   9.117   0.990   1.741
41912SOL     OW27632  13.028   8.561   4.726
41912SOL    HW127633  13.006   8.470   4.748
41912SOL    HW227634  13.079   8.592   4.801
41913SOL     OW27635   2.368   5.453  12.487
41913SOL    HW127636   2.406   5.541  12.485
41913SOL    HW227637   2.350   5.437  12.580
41914SOL     OW27638  12.531  10.917   5.474
41914SOL    HW127639  12.519  10.823   5.474
41914SOL    HW227640  12.479  10.948   5.399
41915SOL     OW27641   5.240   0.545   1.577
41915SOL    HW127642   5.178   0.601   1.531
41915SOL    HW227643   5.265   0.595   1.655
41916SOL     OW27644   0.520   0.083   5.635
41916SOL    HW127645   0.547   0.086   5.544
41916SOL    HW227646   0.449   0.018   5.637
41917SOL     OW27647  11.174  11.814   2.316
41917SOL    HW127648  11.212  11.781   2.235
41917SOL    HW227649  11.231  11.887   2.341
41918SOL     OW27650  12.894   4.277   9.928
41918SOL    HW127651  12.966   4.266   9.991
41918SOL    HW227652  12.876   4.371   9.929
41919SOL     OW27653  12.126   7.257  12.004
41919SOL    HW127654  12.086   7.176  12.036
41919SOL    HW227655  12.217   7.251  12.032
41920SOL     OW27656  13.363   8.339   6.324
41920SOL    HW127657  13.425   8.287   6.274
41920SOL    HW227658  13.329   8.403   6.262
41921SOL     OW27659   3.261   7.289   1.802
41921SOL    HW127660   3.244   7.219   1.866
41921SOL    HW227661   3.339   7.260   1.755
41922SOL     OW27662   0.310   3.494   4.268
41922SOL    HW127663   0.243   3.485   4.335
41922SOL    HW227664   0.386   3.447   4.303
41923SOL     OW27665   0.040   8.759  11.355
41923SOL    HW127666   0.126   8.781  11.392
41923SOL    HW227667  14.863   8.760  11.430
41924SOL     OW27668   2.603   3.280   5.525
41924SOL    HW127669   2.538   3.266   5.456
41924SOL    HW227670   2.551   3.302   5.602
41925SOL     OW27671  13.796  12.389  11.118
41925SOL    HW127672  13.788  12.294  11.131
41925SOL    HW227673  13.747  12.428  11.190
41926SOL     OW27674   6.727  10.446   5.874
41926SOL    HW127675   6.751  10.535   5.849
41926SOL    HW227676   6.755  10.438   5.966
41927SOL     OW27677   3.395  14.066   3.039
41927SOL    HW127678   3.327  14.052   2.972
41927SOL    HW227679   3.474  14.086   2.989
41928SOL     OW27680   2.554   1.339  10.859
41928SOL    HW127681   2.532   1.419  10.907
41928SOL    HW227682   2.635   1.361  10.812
41929SOL     OW27683   9.033   3.444   6.005
41929SOL    HW127684   8.971   3.461   5.934
41929SOL    HW227685   9.112   3.413   5.962
41930SOL     OW27686  14.249  10.313   8.725
41930SOL    HW127687  14.284  10.273   8.645
41930SOL    HW227688  14.242  10.406   8.704
41931SOL     OW27689  13.135   4.010   6.576
41931SOL    HW127690  13.102   4.070   6.643
41931SOL    HW227691  13.215   4.052   6.544
41932SOL     OW27692   1.486  12.614   3.160
41932SOL    HW127693   1.569  12.659   3.148
41932SOL    HW227694   1.443  12.618   3.075
41933SOL     OW27695   9.219   5.783  11.515
41933SOL    HW127696   9.261   5.869  11.506
41933SOL    HW227697   9.266   5.727  11.453
41934SOL     OW27698   3.274  11.860  11.429
41934SOL    HW127699   3.250  11.772  11.400
41934SOL    HW227700   3.361  11.875  11.392
41935SOL     OW27701  14.462   3.493   6.143
41935SOL    HW127702  14.452   3.572   6.089
41935SOL    HW227703  14.508   3.431   6.086
41936SOL     OW27704   2.991   7.884   1.220
41936SOL    HW127705   2.908   7.906   1.178
41936SOL    HW227706   2.995   7.941   1.297
41937SOL     OW27707   2.247   0.210   9.935
41937SOL    HW127708   2.326   0.262   9.946
41937SOL    HW227709   2.277   0.129   9.893
41938SOL     OW27710  10.936   6.803  13.461
41938SOL    HW127711  11.004   6.871  13.462
41938SOL    HW227712  10.977   6.729  13.416
41939SOL     OW27713  11.969  14.809  11.162
41939SOL    HW127714  11.962  14.870  11.089
41939SOL    HW227715  12.007  14.730  11.123
41940SOL     OW27716  11.840   4.269  10.454
41940SOL    HW127717  11.779   4.325  10.502
41940SOL    HW227718  11.886   4.220  10.522
41941SOL     OW27719  10.625   2.943   8.594
41941SOL    HW127720  10.688   3.015   8.602
41941SOL    HW227721  10.622   2.924   8.500
41942SOL     OW27722   1.845   6.079  10.052
41942SOL    HW127723   1.752   6.083  10.030
41942SOL    HW227724   1.870   5.988  10.034
41943SOL     OW27725  10.985   7.638  13.160
41943SOL    HW127726  11.046   7.590  13.104
41943SOL    HW227727  10.899   7.624  13.120
41944SOL     OW27728   7.065   7.024  13.715
41944SOL    HW127729   7.057   7.119  13.709
41944SOL    HW227730   7.156   7.006  13.690
41945SOL     OW27731   1.162   5.533   0.441
41945SOL    HW127732   1.094   5.531   0.374
41945SOL    HW227733   1.115   5.518   0.523
41946SOL     OW27734   4.093  13.161   7.852
41946SOL    HW127735   4.131  13.241   7.889
41946SOL    HW227736   4.099  13.096   7.922
41947SOL     OW27737   4.893   0.398  14.664
41947SOL    HW127738   4.811   0.417  14.618
41947SOL    HW227739   4.960   0.441  14.612
41948SOL     OW27740   1.370   7.388  14.522
41948SOL    HW127741   1.395   7.412  14.611
41948SOL    HW227742   1.451   7.359  14.481
41949SOL     OW27743   7.364   4.477   3.764
41949SOL    HW127744   7.387   4.407   3.702
41949SOL    HW227745   7.403   4.450   3.846
41950SOL     OW27746  12.281   7.648   8.690
41950SOL    HW127747  12.330   7.723   8.724
41950SOL    HW227748  12.194   7.656   8.729
41951SOL     OW27749   7.415  10.631  13.228
41951SOL    HW127750   7.497  10.594  13.196
41951SOL    HW227751   7.371  10.663  13.149
41952SOL     OW27752   7.310   7.381   2.019
41952SOL    HW127753   7.314   7.428   1.936
41952SOL    HW227754   7.223   7.402   2.054
41953SOL     OW27755   5.979   9.756   8.084
41953SOL    HW127756   6.029   9.676   8.101
41953SOL    HW227757   6.002   9.781   7.995
41954SOL     OW27758  13.017   6.853   9.171
41954SOL    HW127759  13.002   6.879   9.262
41954SOL    HW227760  13.083   6.784   9.176
41955SOL     OW27761   1.875  13.000  14.033
41955SOL    HW127762   1.812  13.070  14.045
41955SOL    HW227763   1.822  12.921  14.024
41956SOL     OW27764   3.037   9.561   5.290
41956SOL    HW127765   3.015   9.481   5.336
41956SOL    HW227766   2.960   9.580   5.236
41957SOL     OW27767   4.627   5.089   1.977
41957SOL    HW127768   4.706   5.063   1.929
41957SOL    HW227769   4.653   5.087   2.069
41958SOL     OW27770  11.474   6.405   5.107
41958SOL    HW127771  11.429   6.363   5.180
41958SOL    HW227772  11.547   6.346   5.086
41959SOL     OW27773   7.670  14.052  10.405
41959SOL    HW127774   7.757  14.016  10.423
41959SOL    HW227775   7.610  13.980  10.423
41960SOL     OW27776   1.254  14.782  11.980
41960SOL    HW127777   1.158  14.782  11.987
41960SOL    HW227778   1.271  14.754  11.890
41961SOL     OW27779  12.052   6.677   1.798
41961SOL    HW127780  12.098   6.632   1.727
41961SOL    HW227781  12.102   6.757   1.812
41962SOL     OW27782   2.435   0.049   0.886
41962SOL    HW127783   2.374   0.121   0.907
41962SOL    HW227784   2.503   0.091   0.834
41963SOL     OW27785  13.698  11.442  10.797
41963SOL    HW127786  13.762  11.442  10.726
41963SOL    HW227787  13.629  11.384  10.767
41964SOL     OW27788  12.898   7.472   6.568
41964SOL    HW127789  12.881   7.445   6.659
41964SOL    HW227790  12.812   7.495   6.534
41965SOL     OW27791   1.915   2.196  12.813
41965SOL    HW127792   1.985   2.210  12.750
41965SOL    HW227793   1.898   2.102  12.810
41966SOL     OW27794  10.041  14.291  11.225
41966SOL    HW127795  10.091  14.231  11.280
41966SOL    HW227796  10.105  14.323  11.161
41967SOL     OW27797   0.843  11.128   6.509
41967SOL    HW127798   0.822  11.069   6.437
41967SOL    HW227799   0.892  11.199   6.468
41968SOL     OW27800   2.642   7.853   5.735
41968SOL    HW127801   2.694   7.773   5.732
41968SOL    HW227802   2.580   7.839   5.807
41969SOL     OW27803   3.308  10.619  10.629
41969SOL    HW127804   3.231  10.632  10.684
41969SOL    HW227805   3.287  10.543  10.575
41970SOL     OW27806   8.582  12.387   1.886
41970SOL    HW127807   8.526  12.459   1.854
41970SOL    HW227808   8.529  12.308   1.872
41971SOL     OW27809  13.735  12.259   6.942
41971SOL    HW127810  13.787  12.317   6.998
41971SOL    HW227811  13.758  12.284   6.853
41972SOL     OW27812  11.518   5.574  10.086
41972SOL    HW127813  11.453   5.640  10.111
41972SOL    HW227814  11.562   5.612  10.010
41973SOL     OW27815  12.338   4.217   2.681
41973SOL    HW127816  12.346   4.308   2.708
41973SOL    HW227817  12.369   4.216   2.591
41974SOL     OW27818   0.161   6.293   9.481
41974SOL    HW127819   0.178   6.203   9.451
41974SOL    HW227820   0.067   6.303   9.471
41975SOL     OW27821  11.832  12.653   5.032
41975SOL    HW127822  11.859  12.703   5.109
41975SOL    HW227823  11.737  12.656   5.034
41976SOL     OW27824   3.293   9.854  14.871
41976SOL    HW127825   3.198   9.840  14.869
41976SOL    HW227826   3.329   9.776  14.830
41977SOL     OW27827   5.216   4.778  11.926
41977SOL    HW127828   5.219   4.847  11.992
41977SOL    HW227829   5.307   4.768  11.898
41978SOL     OW27830  13.180   2.335  14.851
41978SOL    HW127831  13.241   2.406  14.873
41978SOL    HW227832  13.190   2.323  14.756
41979SOL     OW27833  13.548   1.112  10.960
41979SOL    HW127834  13.609   1.103  10.886
41979SOL    HW227835  13.550   1.026  11.003
41980SOL     OW27836  13.738   0.346   3.231
41980SOL    HW127837  13.762   0.434   3.201
41980SOL    HW227838  13.680   0.313   3.162
41981SOL     OW27839  10.850  12.244   6.245
41981SOL    HW127840  10.799  12.163   6.243
41981SOL    HW227841  10.904  12.240   6.165
41982SOL     OW27842  13.750  13.751   1.028
41982SOL    HW127843  13.714  13.679   0.975
41982SOL    HW227844  13.839  13.762   0.995
41983SOL     OW27845  11.568   9.750   3.821
41983SOL    HW127846  11.475   9.773   3.817
41983SOL    HW227847  11.573   9.679   3.884
41984SOL     OW27848  11.813   4.637   7.254
41984SOL    HW127849  11.863   4.627   7.173
41984SOL    HW227850  11.731   4.679   7.227
41985SOL     OW27851  11.195  13.908  10.358
41985SOL    HW127852  11.254  13.840  10.390
41985SOL    HW227853  11.183  13.968  10.432
41986SOL     OW27854  12.246  10.133   2.811
41986SOL    HW127855  12.159  10.163   2.841
41986SOL    HW227856  12.304  10.206   2.832
41987SOL     OW27857  10.112   8.411   5.717
41987SOL    HW127858  10.075   8.346   5.776
41987SOL    HW227859  10.131   8.363   5.637
41988SOL     OW27860   6.998  12.813   0.001
41988SOL    HW127861   6.960  12.878   0.060
41988SOL    HW227862   7.010  12.860  14.800
41989SOL     OW27863   2.220   2.460   6.911
41989SOL    HW127864   2.217   2.491   6.821
41989SOL    HW227865   2.226   2.365   6.904
41990SOL     OW27866   0.533   1.836  13.163
41990SOL    HW127867   0.478   1.832  13.085
41990SOL    HW227868   0.577   1.921  13.158
41991SOL     OW27869   4.927   6.207   4.234
41991SOL    HW127870   5.002   6.255   4.199
41991SOL    HW227871   4.922   6.235   4.326
41992SOL     OW27872  10.070  12.771   8.414
41992SOL    HW127873  10.049  12.860   8.387
41992SOL    HW227874  10.088  12.725   8.332
41993SOL     OW27875  12.772   7.589   1.466
41993SOL    HW127876  12.833   7.518   1.446
41993SOL    HW227877  12.803   7.623   1.550
41994SOL     OW27878   5.287  12.626   9.258
41994SOL    HW127879   5.339  12.663   9.186
41994SOL    HW227880   5.203  12.606   9.218
41995SOL     OW27881   4.214   7.732  12.579
41995SOL    HW127882   4.240   7.803  12.638
41995SOL    HW227883   4.277   7.738  12.507
41996SOL     OW27884  10.795   8.400  13.155
41996SOL    HW127885  10.794   8.391  13.251
41996SOL    HW227886  10.845   8.479  13.139
41997SOL     OW27887   2.483   4.460   7.557
41997SOL    HW127888   2.576   4.469   7.579
41997SOL    HW227889   2.437   4.474   7.639
41998SOL     OW27890  12.852  11.887   9.529
41998SOL    HW127891  12.861  11.982   9.532
41998SOL    HW227892  12.895  11.856   9.609
41999SOL     OW27893   6.282   7.023   8.758
41999SOL    HW127894   6.345   6.969   8.806
41999SOL    HW227895   6.200   6.973   8.763
42000SOL     OW27896  10.306   4.099   7.858
42000SOL    HW127897  10.278   4.094   7.767
42000SOL    HW227898  10.322   4.008   7.883
42001SOL     OW27899   0.221  12.808  10.047
42001SOL    HW127900   0.283  12.847  10.109
42001SOL    HW227901   0.275  12.761   9.984
42002SOL     OW27902   2.250   9.226   5.909
42002SOL    HW127903   2.310   9.280   5.961
42002SOL    HW227904   2.257   9.139   5.949
42003SOL     OW27905   1.914   0.844   7.993
42003SOL    HW127906   1.875   0.915   7.942
42003SOL    HW227907   1.844   0.812   8.049
42004SOL     OW27908   1.585  10.233  14.383
42004SOL    HW127909   1.641  10.231  14.306
42004SOL    HW227910   1.589  10.144  14.418
42005SOL     OW27911   2.041   7.195   4.420
42005SOL    HW127912   2.004   7.126   4.364
42005SOL    HW227913   1.972   7.214   4.484
42006SOL     OW27914   2.102  13.115  13.199
42006SOL    HW127915   2.019  13.107  13.246
42006SOL    HW227916   2.130  13.206  13.215
42007SOL     OW27917  12.224  11.204   8.861
42007SOL    HW127918  12.286  11.234   8.926
42007SOL    HW227919  12.204  11.114   8.886
42008SOL     OW27920   6.741   7.910   9.308
42008SOL    HW127921   6.833   7.884   9.311
42008SOL    HW227922   6.718   7.925   9.400
42009SOL     OW27923  12.641   6.127  14.261
42009SOL    HW127924  12.610   6.081  14.339
42009SOL    HW227925  12.570   6.117  14.198
42010SOL     OW27926  11.423  11.188  13.009
42010SOL    HW127927  11.484  11.191  12.936
42010SOL    HW227928  11.478  11.177  13.086
42011SOL     OW27929  13.976   2.864  10.695
42011SOL    HW127930  13.981   2.854  10.600
42011SOL    HW227931  14.027   2.790  10.729
42012SOL     OW27932   4.952   3.248   7.222
42012SOL    HW127933   4.908   3.294   7.151
42012SOL    HW227934   4.888   3.245   7.292
42013SOL     OW27935   1.088  14.216   9.639
42013SOL    HW127936   1.174  14.209   9.681
42013SOL    HW227937   1.107  14.216   9.546
42014SOL     OW27938   3.254   2.538   4.910
42014SOL    HW127939   3.291   2.596   4.844
42014SOL    HW227940   3.195   2.480   4.860
42015SOL     OW27941   5.307  10.649  13.787
42015SOL    HW127942   5.353  10.728  13.759
42015SOL    HW227943   5.372  10.579  13.777
42016SOL     OW27944   1.077  12.340   6.662
42016SOL    HW127945   1.168  12.361   6.680
42016SOL    HW227946   1.078  12.247   6.639
42017SOL     OW27947   1.617   9.731   9.867
42017SOL    HW127948   1.600   9.677   9.790
42017SOL    HW227949   1.712   9.738   9.870
42018SOL     OW27950  11.593   2.764   8.769
42018SOL    HW127951  11.634   2.839   8.727
42018SOL    HW227952  11.563   2.798   8.854
42019SOL     OW27953   7.524   4.666  12.093
42019SOL    HW127954   7.448   4.609  12.106
42019SOL    HW227955   7.505   4.744  12.145
42020SOL     OW27956  11.509  14.399   6.848
42020SOL    HW127957  11.528  14.408   6.755
42020SOL    HW227958  11.589  14.428   6.892
42021SOL     OW27959  12.606   7.087   2.724
42021SOL    HW127960  12.571   7.004   2.756
42021SOL    HW227961  12.613   7.142   2.802
42022SOL     OW27962   2.919   7.244   2.401
42022SOL    HW127963   2.922   7.243   2.305
42022SOL    HW227964   3.009   7.227   2.428
42023SOL     OW27965  10.842  10.565   6.125
42023SOL    HW127966  10.818  10.472   6.127
42023SOL    HW227967  10.833  10.594   6.216
42024SOL     OW27968   1.934  11.115  10.925
42024SOL    HW127969   1.859  11.142  10.979
42024SOL    HW227970   1.976  11.197  10.899
42025SOL     OW27971  14.145   9.975   9.850
42025SOL    HW127972  14.086   9.901   9.838
42025SOL    HW227973  14.221   9.955   9.795
42026SOL     OW27974   5.303   3.069   6.351
42026SOL    HW127975   5.325   3.136   6.286
42026SOL    HW227976   5.284   2.991   6.300
42027SOL     OW27977   6.792   8.208   1.648
42027SOL    HW127978   6.832   8.292   1.626
42027SOL    HW227979   6.706   8.211   1.605
42028SOL     OW27980   2.018  12.023   1.182
42028SOL    HW127981   2.019  11.968   1.260
42028SOL    HW227982   1.939  11.996   1.135
42029SOL     OW27983   5.656   7.638   2.705
42029SOL    HW127984   5.591   7.570   2.686
42029SOL    HW227985   5.655   7.694   2.627
42030SOL     OW27986   9.199  10.905   1.266
42030SOL    HW127987   9.117  10.920   1.314
42030SOL    HW227988   9.250  10.985   1.281
42031SOL     OW27989   1.158   5.234  12.058
42031SOL    HW127990   1.230   5.235  11.995
42031SOL    HW227991   1.186   5.294  12.128
42032SOL     OW27992   3.572  11.800  10.045
42032SOL    HW127993   3.554  11.889  10.015
42032SOL    HW227994   3.500  11.780  10.104
42033SOL     OW27995   4.549   1.123   8.249
42033SOL    HW127996   4.601   1.083   8.318
42033SOL    HW227997   4.482   1.057   8.228
42034SOL     OW27998   9.494   9.095   6.302
42034SOL    HW127999   9.501   9.009   6.261
42034SOL    HW228000   9.487   9.076   6.395
42035SOL     OW28001  14.566   8.445   9.056
42035SOL    HW128002  14.472   8.427   9.057
42035SOL    HW228003  14.585   8.465   8.964
42036SOL     OW28004   6.171   4.505   7.728
42036SOL    HW128005   6.119   4.456   7.792
42036SOL    HW228006   6.112   4.520   7.654
42037SOL     OW28007  10.141  12.104   5.735
42037SOL    HW128008  10.193  12.184   5.740
42037SOL    HW228009  10.053  12.131   5.763
42038SOL     OW28010   1.189   0.745   5.619
42038SOL    HW128011   1.138   0.752   5.699
42038SOL    HW228012   1.219   0.834   5.601
42039SOL     OW28013   6.947   4.601   4.382
42039SOL    HW128014   7.032   4.572   4.347
42039SOL    HW228015   6.884   4.545   4.337
42040SOL     OW28016   8.139   3.553   4.217
42040SOL    HW128017   8.116   3.579   4.307
42040SOL    HW228018   8.062   3.578   4.165
42041SOL     OW28019  11.655   1.616   6.688
42041SOL    HW128020  11.748   1.619   6.711
42041SOL    HW228021  11.652   1.650   6.598
42042SOL     OW28022   0.187  13.906  14.181
42042SOL    HW128023   0.164  13.831  14.125
42042SOL    HW228024   0.223  13.971  14.120
42043SOL     OW28025  13.626   7.455  11.250
42043SOL    HW128026  13.670   7.391  11.194
42043SOL    HW228027  13.645   7.540  11.209
42044SOL     OW28028  11.938   7.347  12.635
42044SOL    HW128029  11.963   7.260  12.667
42044SOL    HW228030  11.863   7.330  12.578
42045SOL     OW28031   2.073  11.987  14.523
42045SOL    HW128032   2.072  11.959  14.615
42045SOL    HW228033   1.993  11.950  14.486
42046SOL     OW28034   4.925   2.295  11.072
42046SOL    HW128035   5.004   2.336  11.037
42046SOL    HW228036   4.854   2.350  11.041
42047SOL     OW28037   4.967   7.825  13.442
42047SOL    HW128038   4.947   7.750  13.387
42047SOL    HW228039   5.003   7.788  13.522
42048SOL     OW28040   0.258   7.230   2.771
42048SOL    HW128041   0.276   7.275   2.854
42048SOL    HW228042   0.272   7.298   2.705
42049SOL     OW28043   5.805   7.817  10.343
42049SOL    HW128044   5.816   7.726  10.316
42049SOL    HW228045   5.850   7.868  10.274
42050SOL     OW28046   3.268  13.295   7.062
42050SOL    HW128047   3.350  13.317   7.017
42050SOL    HW228048   3.246  13.374   7.112
42051SOL     OW28049   7.890  14.435   5.582
42051SOL    HW128050   7.965  14.389   5.543
42051SOL    HW228051   7.850  14.371   5.640
42052SOL     OW28052  13.255   7.185   4.242
42052SOL    HW128053  13.253   7.184   4.337
42052SOL    HW228054  13.336   7.139   4.220
42053SOL     OW28055   1.963   8.907   3.186
42053SOL    HW128056   1.954   8.961   3.108
42053SOL    HW228057   2.019   8.958   3.244
42054SOL     OW28058   9.357   6.367   2.695
42054SOL    HW128059   9.271   6.338   2.664
42054SOL    HW228060   9.385   6.433   2.632
42055SOL     OW28061  13.254   1.465   5.343
42055SOL    HW128062  13.339   1.420   5.341
42055SOL    HW228063  13.245   1.502   5.255
42056SOL     OW28064   9.813   8.920  11.834
42056SOL    HW128065   9.831   9.014  11.831
42056SOL    HW228066   9.892   8.879  11.798
42057SOL     OW28067   6.118   0.055   3.139
42057SOL    HW128068   6.126   0.141   3.098
42057SOL    HW228069   6.203   0.040   3.180
42058SOL     OW28070  10.009   2.065  11.015
42058SOL    HW128071  10.032   2.060  10.922
42058SOL    HW228072   9.969   2.152  11.025
42059SOL     OW28073   5.943  10.629  11.993
42059SOL    HW128074   5.951  10.714  12.036
42059SOL    HW228075   5.967  10.645  11.902
42060SOL     OW28076   8.879   0.428   8.867
42060SOL    HW128077   8.912   0.517   8.885
42060SOL    HW228078   8.784   0.437   8.870
42061SOL     OW28079   8.797   1.691   3.163
42061SOL    HW128080   8.735   1.652   3.224
42061SOL    HW228081   8.762   1.671   3.076
42062SOL     OW28082   3.965   7.911   5.179
42062SOL    HW128083   3.880   7.873   5.154
42062SOL    HW228084   3.970   7.993   5.129
42063SOL     OW28085   8.773  12.506   0.265
42063SOL    HW128086   8.839  12.455   0.218
42063SOL    HW228087   8.721  12.547   0.196
42064SOL     OW28088   6.785   5.604   1.783
42064SOL    HW128089   6.862   5.555   1.753
42064SOL    HW228090   6.819   5.663   1.850
42065SOL     OW28091   6.401   9.395  14.418
42065SOL    HW128092   6.482   9.442  14.437
42065SOL    HW228093   6.376   9.357  14.503
42066SOL     OW28094   5.439  12.952   8.952
42066SOL    HW128095   5.364  12.958   9.011
42066SOL    HW228096   5.409  12.990   8.870
42067SOL     OW28097   3.261   6.244   7.637
42067SOL    HW128098   3.349   6.254   7.672
42067SOL    HW228099   3.245   6.324   7.587
42068SOL     OW28100   1.647  11.635  14.118
42068SOL    HW128101   1.553  11.624  14.138
42068SOL    HW228102   1.691  11.607  14.198
42069SOL     OW28103   9.354   9.136  14.030
42069SOL    HW128104   9.267   9.160  14.062
42069SOL    HW228105   9.347   9.141  13.934
42070SOL     OW28106   1.371   3.253   5.060
42070SOL    HW128107   1.341   3.332   5.104
42070SOL    HW228108   1.297   3.192   5.068
42071SOL     OW28109  10.273   5.791   8.602
42071SOL    HW128110  10.302   5.867   8.550
42071SOL    HW228111  10.273   5.823   8.692
42072SOL     OW28112   3.781  13.040   2.650
42072SOL    HW128113   3.770  12.951   2.684
42072SOL    HW228114   3.822  13.088   2.722
42073SOL     OW28115   0.733   6.975   8.842
42073SOL    HW128116   0.790   7.040   8.883
42073SOL    HW228117   0.784   6.943   8.767
42074SOL     OW28118   8.597  13.825   7.885
42074SOL    HW128119   8.639  13.776   7.956
42074SOL    HW228120   8.563  13.758   7.826
42075SOL     OW28121   3.023  10.390   4.075
42075SOL    HW128122   2.971  10.367   4.152
42075SOL    HW228123   3.097  10.329   4.077
42076SOL     OW28124  10.594   9.960  10.517
42076SOL    HW128125  10.512  10.007  10.533
42076SOL    HW228126  10.622   9.991  10.431
42077SOL     OW28127   3.076  13.695   8.346
42077SOL    HW128128   3.083  13.653   8.431
42077SOL    HW228129   2.981  13.703   8.332
42078SOL     OW28130   6.993   9.381   2.337
42078SOL    HW128131   6.918   9.329   2.307
42078SOL    HW228132   7.002   9.449   2.270
42079SOL     OW28133   1.130   1.530   5.253
42079SOL    HW128134   1.069   1.466   5.290
42079SOL    HW228135   1.165   1.577   5.329
42080SOL     OW28136  14.635   7.711  12.881
42080SOL    HW128137  14.705   7.666  12.833
42080SOL    HW228138  14.646   7.803  12.860
42081SOL     OW28139   9.333   2.047  13.982
42081SOL    HW128140   9.314   1.998  14.062
42081SOL    HW228141   9.259   2.029  13.924
42082SOL     OW28142   2.524  10.537   9.475
42082SOL    HW128143   2.539  10.443   9.486
42082SOL    HW228144   2.605  10.571   9.437
42083SOL     OW28145   1.002  10.403  12.548
42083SOL    HW128146   0.978  10.310  12.550
42083SOL    HW228147   1.078  10.410  12.605
42084SOL     OW28148  12.634   1.445   9.130
42084SOL    HW128149  12.569   1.445   9.200
42084SOL    HW228150  12.599   1.506   9.065
42085SOL     OW28151   4.498   3.780  11.541
42085SOL    HW128152   4.430   3.715  11.556
42085SOL    HW228153   4.577   3.730  11.523
42086SOL     OW28154   4.213   8.027   5.103
42086SOL    HW128155   4.164   7.987   5.175
42086SOL    HW228156   4.211   7.961   5.034
42087SOL     OW28157   9.337   6.827   5.551
42087SOL    HW128158   9.291   6.807   5.470
42087SOL    HW228159   9.271   6.871   5.605
42088SOL     OW28160   1.116   1.238  13.190
42088SOL    HW128161   1.048   1.205  13.249
42088SOL    HW228162   1.097   1.195  13.106
42089SOL     OW28163   5.223   7.952   4.795
42089SOL    HW128164   5.274   7.875   4.769
42089SOL    HW228165   5.230   7.953   4.891
42090SOL     OW28166  11.983   3.886   5.503
42090SOL    HW128167  12.005   3.928   5.420
42090SOL    HW228168  12.013   3.796   5.494
42091SOL     OW28169   0.353   9.793   1.105
42091SOL    HW128170   0.368   9.807   1.198
42091SOL    HW228171   0.436   9.817   1.064
42092SOL     OW28172  11.217   0.097   9.051
42092SOL    HW128173  11.230   0.182   9.010
42092SOL    HW228174  11.305   0.070   9.078
42093SOL     OW28175   4.105  10.549   2.450
42093SOL    HW128176   4.142  10.629   2.411
42093SOL    HW228177   4.045  10.582   2.518
42094SOL     OW28178  13.073  12.934  12.596
42094SOL    HW128179  13.067  13.010  12.537
42094SOL    HW228180  13.157  12.945  12.640
42095SOL     OW28181   8.428  13.291   1.206
42095SOL    HW128182   8.430  13.312   1.299
42095SOL    HW228183   8.336  13.288   1.183
42096SOL     OW28184  14.213   9.200   6.113
42096SOL    HW128185  14.305   9.195   6.138
42096SOL    HW228186  14.165   9.176   6.192
42097SOL     OW28187   1.357  11.397   6.958
42097SOL    HW128188   1.444  11.398   6.998
42097SOL    HW228189   1.352  11.312   6.915
42098SOL     OW28190  10.528   3.016   4.919
42098SOL    HW128191  10.517   3.015   5.014
42098SOL    HW228192  10.583   3.091   4.901
42099SOL     OW28193   1.672  14.834   4.556
42099SOL    HW128194   1.675   0.036   4.603
42099SOL    HW228195   1.733  14.778   4.603
42100SOL     OW28196   9.429   4.483   5.000
42100SOL    HW128197   9.466   4.556   5.049
42100SOL    HW228198   9.505   4.439   4.962
42101SOL     OW28199   7.638   5.839   3.308
42101SOL    HW128200   7.594   5.883   3.235
42101SOL    HW228201   7.731   5.849   3.289
42102SOL     OW28202  14.508   3.678   7.730
42102SOL    HW128203  14.426   3.660   7.776
42102SOL    HW228204  14.489   3.662   7.638
42103SOL     OW28205   5.490   1.486   1.437
42103SOL    HW128206   5.395   1.487   1.449
42103SOL    HW228207   5.503   1.489   1.342
42104SOL     OW28208   2.561  13.875  14.207
42104SOL    HW128209   2.624  13.873  14.136
42104SOL    HW228210   2.570  13.962  14.245
42105SOL     OW28211   2.599   4.289  11.543
42105SOL    HW128212   2.538   4.351  11.502
42105SOL    HW228213   2.670   4.279  11.480
42106SOL     OW28214   6.532   4.904  11.696
42106SOL    HW128215   6.564   4.979  11.745
42106SOL    HW228216   6.451   4.879  11.740
42107SOL     OW28217   9.296   1.397   3.640
42107SOL    HW128218   9.251   1.329   3.590
42107SOL    HW228219   9.235   1.471   3.641
42108SOL     OW28220  10.235   5.434   4.824
42108SOL    HW128221  10.205   5.344   4.814
42108SOL    HW228222  10.156   5.488   4.816
42109SOL     OW28223  11.024  13.661   5.630
42109SOL    HW128224  10.938  13.676   5.590
42109SOL    HW228225  11.009  13.587   5.690
42110SOL     OW28226  10.692   2.582   3.183
42110SOL    HW128227  10.657   2.595   3.271
42110SOL    HW228228  10.730   2.495   3.184
42111SOL     OW28229  13.477   2.289   2.892
42111SOL    HW128230  13.426   2.362   2.929
42111SOL    HW228231  13.435   2.270   2.809
42112SOL     OW28232  10.579  13.360  14.241
42112SOL    HW128233  10.586  13.265  14.243
42112SOL    HW228234  10.635  13.391  14.312
42113SOL     OW28235  12.827   7.897  10.777
42113SOL    HW128236  12.770   7.820  10.769
42113SOL    HW228237  12.767   7.970  10.793
42114SOL     OW28238   2.736   8.610   5.273
42114SOL    HW128239   2.730   8.640   5.364
42114SOL    HW228240   2.830   8.608   5.255
42115SOL     OW28241  12.504   5.859   7.066
42115SOL    HW128242  12.556   5.808   7.128
42115SOL    HW228243  12.420   5.871   7.110
42116SOL     OW28244   7.714  10.613   0.394
42116SOL    HW128245   7.674  10.552   0.331
42116SOL    HW228246   7.752  10.556   0.461
42117SOL     OW28247   1.404   7.361  12.622
42117SOL    HW128248   1.444   7.445  12.645
42117SOL    HW228249   1.391   7.367  12.527
42118SOL     OW28250   8.881   3.301   0.454
42118SOL    HW128251   8.825   3.303   0.532
42118SOL    HW228252   8.942   3.374   0.467
42119SOL     OW28253  14.354   8.018   4.697
42119SOL    HW128254  14.271   8.049   4.734
42119SOL    HW228255  14.390   7.961   4.765
42120SOL     OW28256   8.898   1.079   0.752
42120SOL    HW128257   8.861   0.999   0.788
42120SOL    HW228258   8.841   1.101   0.679
42121SOL     OW28259  12.739   0.405  14.135
42121SOL    HW128260  12.806   0.397  14.067
42121SOL    HW228261  12.724   0.315  14.165
42122SOL     OW28262   7.976  14.865   2.293
42122SOL    HW128263   7.948  14.825   2.210
42122SOL    HW228264   7.924  14.821   2.360
42123SOL     OW28265  10.858   5.821  14.075
42123SOL    HW128266  10.862   5.751  14.141
42123SOL    HW228267  10.765   5.827  14.053
42124SOL     OW28268   8.669   7.702  14.801
42124SOL    HW128269   8.641   7.736  14.715
42124SOL    HW228270   8.600   7.731  14.861
42125SOL     OW28271   9.088  13.481   5.954
42125SOL    HW128272   9.037  13.437   5.886
42125SOL    HW228273   9.022  13.519   6.012
42126SOL     OW28274   0.817   4.274  12.175
42126SOL    HW128275   0.832   4.181  12.186
42126SOL    HW228276   0.722   4.282  12.165
42127SOL     OW28277   2.686   1.881   6.561
42127SOL    HW128278   2.708   1.964   6.519
42127SOL    HW228279   2.591   1.876   6.555
42128SOL     OW28280   2.562   2.227   7.884
42128SOL    HW128281   2.534   2.164   7.819
42128SOL    HW228282   2.620   2.287   7.837
42129SOL     OW28283   9.408  10.239   7.150
42129SOL    HW128284   9.503  10.239   7.162
42129SOL    HW228285   9.379  10.155   7.186
42130SOL     OW28286   6.273   9.880   5.857
42130SOL    HW128287   6.368   9.884   5.844
42130SOL    HW228288   6.254   9.786   5.861
42131SOL     OW28289   2.278   4.349  11.307
42131SOL    HW128290   2.257   4.408  11.234
42131SOL    HW228291   2.366   4.374  11.333
42132SOL     OW28292   1.321   3.904   8.521
42132SOL    HW128293   1.390   3.967   8.544
42132SOL    HW228294   1.296   3.927   8.432
42133SOL     OW28295   6.469   1.920   6.201
42133SOL    HW128296   6.503   2.004   6.171
42133SOL    HW228297   6.390   1.942   6.249
42134SOL     OW28298   0.595   3.069   0.895
42134SOL    HW128299   0.685   3.098   0.908
42134SOL    HW228300   0.554   3.140   0.844
42135SOL     OW28301   8.331   2.068  12.289
42135SOL    HW128302   8.398   2.092  12.353
42135SOL    HW228303   8.253   2.051  12.342
42136SOL     OW28304   2.179   9.810   7.141
42136SOL    HW128305   2.274   9.820   7.136
42136SOL    HW228306   2.149   9.816   7.051
42137SOL     OW28307   9.321   8.617   0.658
42137SOL    HW128308   9.283   8.587   0.741
42137SOL    HW228309   9.414   8.592   0.664
42138SOL     OW28310   1.895  12.669   1.199
42138SOL    HW128311   1.841  12.741   1.168
42138SOL    HW228312   1.864  12.593   1.150
42139SOL     OW28313   5.797   3.589   9.265
42139SOL    HW128314   5.858   3.535   9.316
42139SOL    HW228315   5.734   3.621   9.328
42140SOL     OW28316  12.623   9.673   2.248
42140SOL    HW128317  12.711   9.692   2.216
42140SOL    HW228318  12.636   9.644   2.339
42141SOL     OW28319   5.496  14.010   0.099
42141SOL    HW128320   5.472  13.923   0.068
42141SOL    HW228321   5.559  14.043   0.034
42142SOL     OW28322   2.356  13.351   6.545
42142SOL    HW128323   2.448  13.371   6.527
42142SOL    HW228324   2.352  13.256   6.550
42143SOL     OW28325  13.846   5.717   8.066
42143SOL    HW128326  13.875   5.653   8.131
42143SOL    HW228327  13.755   5.695   8.049
42144SOL     OW28328  11.164   8.526  13.416
42144SOL    HW128329  11.120   8.609  13.432
42144SOL    HW228330  11.189   8.529  13.324
42145SOL     OW28331  11.680   3.057   0.212
42145SOL    HW128332  11.769   3.092   0.210
42145SOL    HW228333  11.685   2.974   0.164
42146SOL     OW28334   6.257  12.396   8.940
42146SOL    HW128335   6.166  12.401   8.908
42146SOL    HW228336   6.250  12.411   9.034
42147SOL     OW28337  12.327  11.343   6.784
42147SOL    HW128338  12.395  11.276   6.794
42147SOL    HW228339  12.269  11.309   6.717
42148SOL     OW28340   8.722  12.322   4.001
42148SOL    HW128341   8.698  12.329   4.094
42148SOL    HW228342   8.665  12.384   3.957
42149SOL     OW28343   4.750   7.789  12.682
42149SOL    HW128344   4.840   7.769  12.655
42149SOL    HW228345   4.697   7.772  12.604
42150SOL     OW28346   4.650   8.625  12.128
42150SOL    HW128347   4.620   8.544  12.168
42150SOL    HW228348   4.578   8.687  12.142
42151SOL     OW28349   0.449  11.620  11.159
42151SOL    HW128350   0.441  11.526  11.169
42151SOL    HW228351   0.524  11.644  11.214
42152SOL     OW28352   5.216   5.083  12.401
42152SOL    HW128353   5.227   5.017  12.470
42152SOL    HW228354   5.236   5.037  12.320
42153SOL     OW28355  12.929   3.603   3.899
42153SOL    HW128356  12.978   3.521   3.887
42153SOL    HW228357  12.995   3.671   3.889
42154SOL     OW28358   6.371   5.873  13.683
42154SOL    HW128359   6.309   5.878  13.756
42154SOL    HW228360   6.434   5.806  13.709
42155SOL     OW28361  14.183   0.899  14.677
42155SOL    HW128362  14.213   0.808  14.671
42155SOL    HW228363  14.146   0.918  14.591
42156SOL     OW28364   5.362   9.065   3.171
42156SOL    HW128365   5.310   9.033   3.098
42156SOL    HW228366   5.389   8.986   3.218
42157SOL     OW28367  12.514   4.652   5.666
42157SOL    HW128368  12.511   4.562   5.631
42157SOL    HW228369  12.449   4.652   5.736
42158SOL     OW28370   7.493  11.971  11.361
42158SOL    HW128371   7.577  11.976  11.407
42158SOL    HW228372   7.494  12.044  11.300
42159SOL     OW28373   0.391   2.108   4.742
42159SOL    HW128374   0.433   2.041   4.795
42159SOL    HW228375   0.431   2.190   4.771
42160SOL     OW28376   9.572   0.420   0.486
42160SOL    HW128377   9.651   0.468   0.460
42160SOL    HW228378   9.589   0.395   0.577
42161SOL     OW28379   0.102   9.822  12.688
42161SOL    HW128380   0.058   9.860  12.613
42161SOL    HW228381   0.153   9.894  12.725
42162SOL     OW28382   2.984  11.021   5.994
42162SOL    HW128383   3.022  11.109   5.991
42162SOL    HW228384   3.055  10.964   5.962
42163SOL     OW28385   5.317   4.125   0.623
42163SOL    HW128386   5.323   4.041   0.577
42163SOL    HW228387   5.228   4.127   0.659
42164SOL     OW28388   8.442   3.553   7.707
42164SOL    HW128389   8.384   3.501   7.650
42164SOL    HW228390   8.524   3.503   7.709
42165SOL     OW28391   5.475  13.112  13.323
42165SOL    HW128392   5.398  13.082  13.275
42165SOL    HW228393   5.520  13.032  13.348
42166SOL     OW28394  12.835  14.875   5.075
42166SOL    HW128395  12.745   0.026   5.082
42166SOL    HW228396  12.832  14.814   5.001
42167SOL     OW28397   7.747   1.978   4.773
42167SOL    HW128398   7.670   2.034   4.779
42167SOL    HW228399   7.820   2.038   4.763
42168SOL     OW28400  13.977   3.639   4.749
42168SOL    HW128401  13.956   3.547   4.733
42168SOL    HW228402  14.067   3.649   4.717
42169SOL     OW28403   5.800  13.362   3.687
42169SOL    HW128404   5.720  13.321   3.655
42169SOL    HW228405   5.803  13.447   3.645
42170SOL     OW28406   5.369   1.799  13.980
42170SOL    HW128407   5.458   1.777  14.008
42170SOL    HW228408   5.328   1.838  14.057
42171SOL     OW28409   3.757  12.883   9.289
42171SOL    HW128410   3.750  12.790   9.309
42171SOL    HW228411   3.714  12.927   9.362
42172SOL     OW28412   9.263  12.212   0.576
42172SOL    HW128413   9.288  12.149   0.644
42172SOL    HW228414   9.282  12.297   0.615
42173SOL     OW28415   3.141   4.882   3.084
42173SOL    HW128416   3.141   4.955   3.022
42173SOL    HW228417   3.091   4.813   3.040
42174SOL     OW28418   7.222   4.090   5.343
42174SOL    HW128419   7.154   4.136   5.392
42174SOL    HW228420   7.174   4.033   5.283
42175SOL     OW28421   9.890  14.306   7.287
42175SOL    HW128422   9.832  14.315   7.363
42175SOL    HW228423   9.975  14.284   7.325
42176SOL     OW28424   6.475   6.787   7.261
42176SOL    HW128425   6.437   6.786   7.349
42176SOL    HW228426   6.552   6.730   7.268
42177SOL     OW28427   2.125   3.934   4.327
42177SOL    HW128428   2.196   3.993   4.351
42177SOL    HW228429   2.047   3.990   4.324
42178SOL     OW28430   0.035   0.467  12.365
42178SOL    HW128431   0.045   0.409  12.441
42178SOL    HW228432   0.110   0.525  12.369
42179SOL     OW28433  11.698   1.618   3.901
42179SOL    HW128434  11.762   1.633   3.831
42179SOL    HW228435  11.737   1.661   3.977
42180SOL     OW28436   0.944   5.994   3.592
42180SOL    HW128437   1.032   5.966   3.565
42180SOL    HW228438   0.935   5.960   3.681
42181SOL     OW28439  11.154  12.870  11.628
42181SOL    HW128440  11.152  12.923  11.548
42181SOL    HW228441  11.229  12.904  11.677
42182SOL     OW28442   0.793   1.468   0.905
42182SOL    HW128443   0.796   1.489   0.998
42182SOL    HW228444   0.709   1.423   0.893
42183SOL     OW28445   4.506   1.888  14.303
42183SOL    HW128446   4.596   1.869  14.329
42183SOL    HW228447   4.508   1.979  14.274
42184SOL     OW28448   4.551   8.883   7.953
42184SOL    HW128449   4.537   8.828   7.876
42184SOL    HW228450   4.490   8.956   7.941
42185SOL     OW28451   6.918  14.801  14.462
42185SOL    HW128452   6.898  14.791  14.369
42185SOL    HW228453   7.013  14.811  14.465
42186SOL     OW28454   9.643   0.100   3.279
42186SOL    HW128455   9.574   0.052   3.326
42186SOL    HW228456   9.608   0.188   3.268
42187SOL     OW28457   9.489  12.682   2.641
42187SOL    HW128458   9.447  12.614   2.695
42187SOL    HW228459   9.449  12.672   2.555
42188SOL     OW28460   5.405  10.653   1.840
42188SOL    HW128461   5.395  10.693   1.927
42188SOL    HW228462   5.426  10.727   1.782
42189SOL     OW28463  10.650   0.298   0.113
42189SOL    HW128464  10.708   0.256   0.049
42189SOL    HW228465  10.706   0.360   0.159
42190SOL     OW28466   7.216   8.213   8.155
42190SOL    HW128467   7.155   8.190   8.085
42190SOL    HW228468   7.295   8.241   8.110
42191SOL     OW28469   1.303   1.727  14.704
42191SOL    HW128470   1.239   1.747  14.772
42191SOL    HW228471   1.257   1.744  14.622
42192SOL     OW28472   4.236  11.354   7.813
42192SOL    HW128473   4.263  11.291   7.879
42192SOL    HW228474   4.205  11.301   7.740
42193SOL     OW28475   0.381   1.080  12.708
42193SOL    HW128476   0.471   1.060  12.735
42193SOL    HW228477   0.386   1.170  12.675
42194SOL     OW28478   8.522   2.118   9.224
42194SOL    HW128479   8.451   2.155   9.276
42194SOL    HW228480   8.588   2.187   9.220
42195SOL     OW28481   9.756   1.963   3.846
42195SOL    HW128482   9.763   1.872   3.875
42195SOL    HW228483   9.839   1.979   3.801
42196SOL     OW28484  11.896   4.099  12.409
42196SOL    HW128485  11.967   4.043  12.442
42196SOL    HW228486  11.824   4.084  12.470
42197SOL     OW28487  10.618   0.879   5.554
42197SOL    HW128488  10.598   0.791   5.586
42197SOL    HW228489  10.671   0.865   5.475
42198SOL     OW28490   7.531   6.410   7.746
42198SOL    HW128491   7.481   6.381   7.670
42198SOL    HW228492   7.536   6.333   7.802
42199SOL     OW28493  14.191  12.129   7.865
42199SOL    HW128494  14.226  12.184   7.795
42199SOL    HW228495  14.228  12.165   7.945
42200SOL     OW28496  13.961  12.488  13.881
42200SOL    HW128497  14.024  12.559  13.889
42200SOL    HW228498  13.944  12.482  13.787
42201SOL     OW28499   5.415   3.681   7.688
42201SOL    HW128500   5.396   3.729   7.608
42201SOL    HW228501   5.415   3.748   7.757
42202SOL     OW28502  13.926   4.659   8.722
42202SOL    HW128503  13.863   4.683   8.790
42202SOL    HW228504  13.934   4.738   8.667
42203SOL     OW28505  10.144   4.816   9.860
42203SOL    HW128506  10.157   4.761   9.937
42203SOL    HW228507  10.179   4.765   9.788
42204SOL     OW28508  11.837   5.455   8.804
42204SOL    HW128509  11.839   5.550   8.810
42204SOL    HW228510  11.913   5.425   8.854
42205SOL     OW28511  13.814   6.680  10.410
42205SOL    HW128512  13.881   6.731  10.455
42205SOL    HW228513  13.834   6.691  10.317
42206SOL     OW28514   6.302   8.284   0.590
42206SOL    HW128515   6.239   8.303   0.520
42206SOL    HW228516   6.281   8.195   0.617
42207SOL     OW28517  13.372   3.065   4.694
42207SOL    HW128518  13.371   3.116   4.613
42207SOL    HW228519  13.405   3.125   4.760
42208SOL     OW28520  10.794   4.519   7.168
42208SOL    HW128521  10.874   4.531   7.220
42208SOL    HW228522  10.728   4.573   7.212
42209SOL     OW28523   7.687   6.959   7.703
42209SOL    HW128524   7.607   7.010   7.716
42209SOL    HW228525   7.677   6.883   7.760
42210SOL     OW28526  14.020  14.556   1.752
42210SOL    HW128527  13.981  14.484   1.703
42210SOL    HW228528  14.013  14.530   1.844
42211SOL     OW28529   9.886   8.899   0.766
42211SOL    HW128530   9.845   8.919   0.851
42211SOL    HW228531   9.813   8.871   0.710
42212SOL     OW28532   5.792   0.718  13.769
42212SOL    HW128533   5.861   0.663  13.807
42212SOL    HW228534   5.767   0.778  13.840
42213SOL     OW28535   1.568   7.790   5.294
42213SOL    HW128536   1.583   7.772   5.201
42213SOL    HW228537   1.494   7.735   5.318
42214SOL     OW28538   9.620   4.620  12.506
42214SOL    HW128539   9.688   4.571  12.553
42214SOL    HW228540   9.647   4.712  12.515
42215SOL     OW28541   8.985  12.356   6.357
42215SOL    HW128542   9.063  12.410   6.346
42215SOL    HW228543   8.945  12.354   6.271
42216SOL     OW28544   6.567  13.950  11.579
42216SOL    HW128545   6.567  14.018  11.645
42216SOL    HW228546   6.475  13.924  11.571
42217SOL     OW28547  12.002   5.972  12.339
42217SOL    HW128548  11.985   6.015  12.255
42217SOL    HW228549  12.095   5.987  12.356
42218SOL     OW28550  13.138  11.230   1.769
42218SOL    HW128551  13.082  11.153   1.763
42218SOL    HW228552  13.128  11.275   1.685
42219SOL     OW28553   3.588   8.697   8.049
42219SOL    HW128554   3.568   8.624   7.990
42219SOL    HW228555   3.557   8.667   8.134
42220SOL     OW28556  10.821  11.524   9.904
42220SOL    HW128557  10.895  11.532   9.965
42220SOL    HW228558  10.761  11.594   9.929
42221SOL     OW28559  14.414  13.075  11.386
42221SOL    HW128560  14.382  13.133  11.456
42221SOL    HW228561  14.374  12.990  11.406
42222SOL     OW28562   3.862   0.259   9.948
42222SOL    HW128563   3.814   0.275   9.866
42222SOL    HW228564   3.817   0.184   9.988
42223SOL     OW28565  14.553   9.323   1.136
42223SOL    HW128566  14.508   9.404   1.157
42223SOL    HW228567  14.614   9.346   1.066
42224SOL     OW28568   1.944   6.705   6.562
42224SOL    HW128569   1.875   6.644   6.536
42224SOL    HW228570   2.023   6.673   6.517
42225SOL     OW28571   5.488   8.133  13.187
42225SOL    HW128572   5.539   8.158  13.264
42225SOL    HW228573   5.491   8.038  13.186
42226SOL     OW28574  10.515   8.410  13.887
42226SOL    HW128575  10.459   8.370  13.954
42226SOL    HW228576  10.536   8.337  13.827
42227SOL     OW28577   1.954   2.084   6.784
42227SOL    HW128578   1.939   2.021   6.713
42227SOL    HW228579   1.886   2.150   6.773
42228SOL     OW28580   7.734   6.950  13.813
42228SOL    HW128581   7.667   6.885  13.833
42228SOL    HW228582   7.689   7.034  13.825
42229SOL     OW28583  14.473   3.522   8.137
42229SOL    HW128584  14.460   3.616   8.123
42229SOL    HW228585  14.390   3.491   8.172
42230SOL     OW28586   8.932   4.248   0.278
42230SOL    HW128587   8.973   4.300   0.347
42230SOL    HW228588   8.845   4.228   0.311
42231SOL     OW28589   2.735   8.630  13.808
42231SOL    HW128590   2.825   8.603  13.792
42231SOL    HW228591   2.681   8.557  13.777
42232SOL     OW28592   9.934   6.487  13.303
42232SOL    HW128593   9.971   6.576  13.307
42232SOL    HW228594   9.913   6.474  13.210
42233SOL     OW28595  10.005  10.031  12.292
42233SOL    HW128596   9.981  10.117  12.258
42233SOL    HW228597  10.099  10.037  12.307
42234SOL     OW28598   6.685   3.897   7.549
42234SOL    HW128599   6.674   3.967   7.614
42234SOL    HW228600   6.779   3.877   7.551
42235SOL     OW28601   9.688   6.265   6.034
42235SOL    HW128602   9.696   6.174   6.061
42235SOL    HW228603   9.737   6.314   6.100
42236SOL     OW28604   4.078   5.058   9.114
42236SOL    HW128605   3.991   5.022   9.131
42236SOL    HW228606   4.138   4.984   9.129
42237SOL     OW28607  14.013   7.024  14.849
42237SOL    HW128608  13.943   7.009   0.030
42237SOL    HW228609  14.058   6.940  14.843
42238SOL     OW28610  13.261   6.786   0.522
42238SOL    HW128611  13.274   6.694   0.501
42238SOL    HW228612  13.181   6.810   0.475
42239SOL     OW28613   8.365  11.421  11.570
42239SOL    HW128614   8.447  11.470  11.573
42239SOL    HW228615   8.314  11.454  11.644
42240SOL     OW28616   0.621   5.766   5.463
42240SOL    HW128617   0.586   5.801   5.545
42240SOL    HW228618   0.713   5.749   5.481
42241SOL     OW28619  13.657   0.106   4.313
42241SOL    HW128620  13.731   0.116   4.254
42241SOL    HW228621  13.656   0.013   4.335
42242SOL     OW28622   9.688   8.181   7.363
42242SOL    HW128623   9.704   8.254   7.423
42242SOL    HW228624   9.710   8.217   7.276
42243SOL     OW28625   4.031   3.448   4.357
42243SOL    HW128626   3.983   3.523   4.393
42243SOL    HW228627   3.971   3.409   4.294
42244SOL     OW28628   1.198  11.223   4.170
42244SOL    HW128629   1.187  11.316   4.151
42244SOL    HW228630   1.287  11.203   4.139
42245SOL     OW28631   2.237   6.552   4.803
42245SOL    HW128632   2.250   6.642   4.831
42245SOL    HW228633   2.318   6.530   4.756
42246SOL     OW28634   0.174   6.625   1.923
42246SOL    HW128635   0.157   6.616   2.017
42246SOL    HW228636   0.090   6.610   1.881
42247SOL     OW28637  12.281   3.851   0.605
42247SOL    HW128638  12.231   3.914   0.658
42247SOL    HW228639  12.218   3.819   0.540
42248SOL     OW28640   7.978   6.675   3.951
42248SOL    HW128641   8.058   6.644   3.992
42248SOL    HW228642   7.987   6.770   3.949
42249SOL     OW28643   0.747   9.917  11.124
42249SOL    HW128644   0.706   9.890  11.207
42249SOL    HW228645   0.683   9.976  11.084
42250SOL     OW28646   7.881  11.750   4.526
42250SOL    HW128647   7.810  11.736   4.464
42250SOL    HW228648   7.863  11.837   4.564
42251SOL     OW28649   3.830   7.823  10.046
42251SOL    HW128650   3.841   7.756   9.978
42251SOL    HW228651   3.758   7.877  10.015
42252SOL     OW28652  11.177   7.846  10.642
42252SOL    HW128653  11.164   7.822  10.734
42252SOL    HW228654  11.213   7.935  10.645
42253SOL     OW28655   2.096   3.035   9.198
42253SOL    HW128656   2.097   2.946   9.234
42253SOL    HW228657   2.132   3.089   9.268
42254SOL     OW28658   7.817   8.093   7.187
42254SOL    HW128659   7.754   8.082   7.259
42254SOL    HW228660   7.829   8.004   7.154
42255SOL     OW28661  13.161   0.036   8.196
42255SOL    HW128662  13.197   0.053   8.109
42255SOL    HW228663  13.075   0.078   8.194
42256SOL     OW28664   2.404   7.190  13.957
42256SOL    HW128665   2.385   7.241  13.878
42256SOL    HW228666   2.456   7.249  14.011
42257SOL     OW28667   3.853   7.067   7.708
42257SOL    HW128668   3.922   7.011   7.741
42257SOL    HW228669   3.797   7.010   7.656
42258SOL     OW28670  11.285  14.322   7.017
42258SOL    HW128671  11.214  14.372   6.976
42258SOL    HW228672  11.362  14.345   6.966
42259SOL     OW28673   9.567  12.399   8.653
42259SOL    HW128674   9.631  12.336   8.623
42259SOL    HW228675   9.524  12.356   8.727
42260SOL     OW28676   6.205  14.345   2.837
42260SOL    HW128677   6.222  14.369   2.928
42260SOL    HW228678   6.241  14.257   2.828
42261SOL     OW28679   4.703  10.277   6.811
42261SOL    HW128680   4.791  10.257   6.842
42261SOL    HW228681   4.647  10.211   6.851
42262SOL     OW28682   5.085  14.094   8.279
42262SOL    HW128683   5.113  14.186   8.273
42262SOL    HW228684   5.019  14.094   8.348
42263SOL     OW28685   5.928   8.333   0.627
42263SOL    HW128686   5.981   8.397   0.674
42263SOL    HW228687   5.857   8.385   0.589
42264SOL     OW28688   3.232   9.870   9.330
42264SOL    HW128689   3.264   9.795   9.280
42264SOL    HW228690   3.153   9.838   9.374
42265SOL     OW28691  12.410  11.079  14.284
42265SOL    HW128692  12.368  11.054  14.366
42265SOL    HW228693  12.460  11.159  14.305
42266SOL     OW28694  12.885  10.058  13.500
42266SOL    HW128695  12.792  10.078  13.507
42266SOL    HW228696  12.902  10.055  13.406
42267SOL     OW28697  13.162   1.824   3.475
42267SOL    HW128698  13.200   1.880   3.542
42267SOL    HW228699  13.237   1.780   3.435
42268SOL     OW28700   6.090   2.348   6.197
42268SOL    HW128701   6.070   2.410   6.126
42268SOL    HW228702   6.023   2.364   6.263
42269SOL     OW28703   4.121   7.019   8.411
42269SOL    HW128704   4.198   7.037   8.464
42269SOL    HW228705   4.136   7.066   8.329
42270SOL     OW28706   9.826  13.775   0.217
42270SOL    HW128707   9.744  13.797   0.171
42270SOL    HW228708   9.838  13.845   0.280
42271SOL     OW28709   6.773   8.041  10.447
42271SOL    HW128710   6.717   8.056  10.371
42271SOL    HW228711   6.861   8.061  10.417
42272SOL     OW28712  13.855   7.239   5.204
42272SOL    HW128713  13.860   7.148   5.233
42272SOL    HW228714  13.865   7.234   5.109
42273SOL     OW28715   7.231   4.026  12.917
42273SOL    HW128716   7.199   4.084  12.848
42273SOL    HW228717   7.158   4.017  12.978
42274SOL     OW28718   5.752   3.000   9.033
42274SOL    HW128719   5.846   3.009   9.050
42274SOL    HW228720   5.726   2.922   9.081
42275SOL     OW28721   5.916   5.159   3.479
42275SOL    HW128722   5.968   5.233   3.447
42275SOL    HW228723   5.925   5.165   3.575
42276SOL     OW28724   1.667   0.813   2.802
42276SOL    HW128725   1.757   0.837   2.824
42276SOL    HW228726   1.674   0.724   2.767
42277SOL     OW28727   8.345  12.322  12.555
42277SOL    HW128728   8.330  12.283  12.641
42277SOL    HW228729   8.409  12.264  12.513
42278SOL     OW28730   7.849   9.694  12.791
42278SOL    HW128731   7.773   9.665  12.842
42278SOL    HW228732   7.912   9.722  12.857
42279SOL     OW28733  11.299  13.829  12.993
42279SOL    HW128734  11.367  13.885  13.032
42279SOL    HW228735  11.341  13.793  12.915
42280SOL     OW28736   5.303   3.749   9.802
42280SOL    HW128737   5.379   3.807   9.797
42280SOL    HW228738   5.308   3.711   9.890
42281SOL     OW28739   2.975  14.061  12.268
42281SOL    HW128740   2.961  14.066  12.363
42281SOL    HW228741   2.961  14.151  12.237
42282SOL     OW28742   8.361  14.709   4.684
42282SOL    HW128743   8.272  14.676   4.675
42282SOL    HW228744   8.398  14.661   4.758
42283SOL     OW28745   7.663   9.703   6.005
42283SOL    HW128746   7.593   9.753   5.964
42283SOL    HW228747   7.735   9.764   6.015
42284SOL     OW28748   8.220   1.383   0.868
42284SOL    HW128749   8.137   1.405   0.826
42284SOL    HW228750   8.284   1.442   0.828
42285SOL     OW28751   2.813  12.842   7.266
42285SOL    HW128752   2.884  12.832   7.202
42285SOL    HW228753   2.828  12.772   7.329
42286SOL     OW28754   8.944   1.526   6.001
42286SOL    HW128755   9.039   1.518   6.002
42286SOL    HW228756   8.914   1.454   5.944
42287SOL     OW28757  10.018  14.651   2.444
42287SOL    HW128758   9.947  14.594   2.413
42287SOL    HW228759   9.977  14.707   2.509
42288SOL     OW28760   5.854  14.243  10.227
42288SOL    HW128761   5.930  14.184  10.232
42288SOL    HW228762   5.821  14.247  10.316
42289SOL     OW28763  11.635  13.588   6.587
42289SOL    HW128764  11.698  13.656   6.566
42289SOL    HW228765  11.612  13.549   6.502
42290SOL     OW28766  12.830  10.375  11.626
42290SOL    HW128767  12.844  10.375  11.721
42290SOL    HW228768  12.735  10.371  11.615
42291SOL     OW28769   3.908   5.916   2.274
42291SOL    HW128770   3.891   5.828   2.242
42291SOL    HW228771   4.002   5.919   2.289
42292SOL     OW28772  11.067  13.753   7.513
42292SOL    HW128773  10.977  13.724   7.528
42292SOL    HW228774  11.108  13.681   7.466
42293SOL     OW28775  11.945   6.732   7.764
42293SOL    HW128776  11.873   6.695   7.714
42293SOL    HW228777  11.914   6.732   7.855
42294SOL     OW28778   8.388   9.458   9.427
42294SOL    HW128779   8.368   9.396   9.357
42294SOL    HW228780   8.393   9.543   9.384
42295SOL     OW28781   3.156  13.844  11.019
42295SOL    HW128782   3.251  13.853  11.030
42295SOL    HW228783   3.146  13.772  10.956
42296SOL     OW28784   8.809  13.234   9.894
42296SOL    HW128785   8.826  13.147   9.858
42296SOL    HW228786   8.751  13.276   9.830
42297SOL     OW28787   9.126   4.135   7.629
42297SOL    HW128788   9.145   4.229   7.621
42297SOL    HW228789   9.033   4.131   7.649
42298SOL     OW28790  13.900   1.278   1.644
42298SOL    HW128791  13.834   1.346   1.632
42298SOL    HW228792  13.883   1.216   1.573
42299SOL     OW28793  10.759  14.566  14.304
42299SOL    HW128794  10.729  14.583  14.215
42299SOL    HW228795  10.762  14.471  14.311
42300SOL     OW28796   1.459   6.216   7.537
42300SOL    HW128797   1.451   6.260   7.453
42300SOL    HW228798   1.492   6.283   7.597
42301SOL     OW28799   0.108  11.036   1.160
42301SOL    HW128800   0.184  11.085   1.193
42301SOL    HW228801   0.141  10.947   1.147
42302SOL     OW28802  13.774  10.532   1.761
42302SOL    HW128803  13.733  10.614   1.790
42302SOL    HW228804  13.753  10.527   1.668
42303SOL     OW28805  13.515   1.852   8.902
42303SOL    HW128806  13.425   1.837   8.874
42303SOL    HW228807  13.551   1.913   8.838
42304SOL     OW28808   6.642   3.462  10.044
42304SOL    HW128809   6.551   3.447  10.018
42304SOL    HW228810   6.694   3.415   9.978
42305SOL     OW28811  10.266   6.535  11.550
42305SOL    HW128812  10.178   6.529  11.587
42305SOL    HW228813  10.320   6.566  11.623
42306SOL     OW28814  13.872  12.579   3.866
42306SOL    HW128815  13.833  12.514   3.925
42306SOL    HW228816  13.924  12.635   3.923
42307SOL     OW28817   9.322   0.052   8.434
42307SOL    HW128818   9.276  14.851   8.439
42307SOL    HW228819   9.257   0.113   8.398
42308SOL     OW28820  12.602   2.853   0.392
42308SOL    HW128821  12.519   2.811   0.370
42308SOL    HW228822  12.621   2.825   0.481
42309SOL     OW28823  10.295  13.284  14.496
42309SOL    HW128824  10.244  13.347  14.548
42309SOL    HW228825  10.317  13.332  14.416
42310SOL     OW28826   8.303   3.840   1.918
42310SOL    HW128827   8.301   3.822   2.012
42310SOL    HW228828   8.376   3.900   1.906
42311SOL     OW28829   2.153   2.443   6.383
42311SOL    HW128830   2.201   2.403   6.311
42311SOL    HW228831   2.086   2.496   6.341
42312SOL     OW28832   5.195  13.507   5.095
42312SOL    HW128833   5.230  13.531   5.010
42312SOL    HW228834   5.266  13.458   5.137
42313SOL     OW28835   1.596   2.688   9.341
42313SOL    HW128836   1.662   2.753   9.314
42313SOL    HW228837   1.605   2.683   9.436
42314SOL     OW28838   9.849  11.408  10.748
42314SOL    HW128839   9.816  11.417  10.837
42314SOL    HW228840   9.802  11.332  10.713
42315SOL     OW28841   3.122   2.392  14.593
42315SOL    HW128842   3.087   2.376  14.681
42315SOL    HW228843   3.047   2.381  14.535
42316SOL     OW28844   7.710   3.271  12.991
42316SOL    HW128845   7.644   3.201  12.993
42316SOL    HW228846   7.688   3.323  12.915
42317SOL     OW28847   6.123   4.048   9.535
42317SOL    HW128848   6.115   4.100   9.455
42317SOL    HW228849   6.169   3.969   9.507
42318SOL     OW28850  10.801  10.856  10.309
42318SOL    HW128851  10.800  10.874  10.215
42318SOL    HW228852  10.837  10.767  10.315
42319SOL     OW28853  12.902   3.115  13.735
42319SOL    HW128854  12.990   3.125  13.772
42319SOL    HW228855  12.916   3.089  13.644
42320SOL     OW28856   1.936  11.464  13.080
42320SOL    HW128857   1.962  11.424  13.163
42320SOL    HW228858   1.865  11.409  13.047
42321SOL     OW28859  10.621   4.887  10.365
42321SOL    HW128860  10.677   4.857  10.436
42321SOL    HW228861  10.533   4.859  10.390
42322SOL     OW28862   6.261  11.402   9.256
42322SOL    HW128863   6.185  11.392   9.199
42322SOL    HW228864   6.229  11.454   9.330
42323SOL     OW28865   8.976   4.033   2.853
42323SOL    HW128866   9.045   4.043   2.787
42323SOL    HW228867   8.930   4.117   2.852
42324SOL     OW28868   3.479   2.027  14.072
42324SOL    HW128869   3.406   2.025  14.133
42324SOL    HW228870   3.553   1.990  14.120
42325SOL     OW28871   3.661   1.059   7.135
42325SOL    HW128872   3.574   1.092   7.114
42325SOL    HW228873   3.666   1.066   7.230
42326SOL     OW28874   1.490  13.822   5.603
42326SOL    HW128875   1.455  13.840   5.691
42326SOL    HW228876   1.434  13.752   5.569
42327SOL     OW28877   7.354   6.541   5.172
42327SOL    HW128878   7.397   6.456   5.187
42327SOL    HW228879   7.319   6.564   5.258
42328SOL     OW28880   4.591   4.252   5.768
42328SOL    HW128881   4.656   4.184   5.750
42328SOL    HW228882   4.640   4.323   5.808
42329SOL     OW28883  10.986   0.098  13.356
42329SOL    HW128884  10.943   0.156  13.419
42329SOL    HW228885  10.975   0.011  13.394
42330SOL     OW28886   8.717   9.198  10.291
42330SOL    HW128887   8.649   9.182  10.226
42330SOL    HW228888   8.716   9.119  10.346
42331SOL     OW28889   8.810   7.820   8.361
42331SOL    HW128890   8.723   7.824   8.400
42331SOL    HW228891   8.817   7.900   8.308
42332SOL     OW28892  10.912   4.866  13.182
42332SOL    HW128893  10.847   4.808  13.222
42332SOL    HW228894  10.994   4.817  13.185
42333SOL     OW28895   8.823  10.420   7.369
42333SOL    HW128896   8.851  10.328   7.375
42333SOL    HW228897   8.738  10.422   7.413
42334SOL     OW28898   3.481  10.087   7.654
42334SOL    HW128899   3.416  10.156   7.665
42334SOL    HW228900   3.563  10.133   7.638
42335SOL     OW28901  12.389   4.262  10.749
42335SOL    HW128902  12.356   4.178  10.781
42335SOL    HW228903  12.311   4.308  10.716
42336SOL     OW28904   0.539   8.018  11.333
42336SOL    HW128905   0.459   8.048  11.289
42336SOL    HW228906   0.604   8.013  11.263
42337SOL     OW28907   5.468  14.346  11.989
42337SOL    HW128908   5.529  14.408  12.027
42337SOL    HW228909   5.382  14.386  12.003
42338SOL     OW28910   9.524   0.687  11.533
42338SOL    HW128911   9.552   0.731  11.453
42338SOL    HW228912   9.592   0.707  11.597
42339SOL     OW28913  11.129  10.843   7.272
42339SOL    HW128914  11.142  10.877   7.360
42339SOL    HW228915  11.121  10.922   7.217
42340SOL     OW28916   5.146   7.255  12.415
42340SOL    HW128917   5.212   7.203  12.369
42340SOL    HW228918   5.072   7.259  12.355
42341SOL     OW28919   0.189   8.739  13.679
42341SOL    HW128920   0.172   8.653  13.717
42341SOL    HW228921   0.134   8.799  13.730
42342SOL     OW28922  12.475   4.721   8.946
42342SOL    HW128923  12.537   4.667   8.897
42342SOL    HW228924  12.447   4.788   8.883
42343SOL     OW28925   2.103  10.363   8.897
42343SOL    HW128926   2.176  10.314   8.860
42343SOL    HW228927   2.141  10.446   8.926
42344SOL     OW28928  11.211   7.439  11.860
42344SOL    HW128929  11.174   7.463  11.775
42344SOL    HW228930  11.304   7.462  11.853
42345SOL     OW28931  13.961  14.436   9.291
42345SOL    HW128932  14.015  14.366   9.255
42345SOL    HW228933  13.983  14.439   9.384
42346SOL     OW28934   2.526  10.560   0.668
42346SOL    HW128935   2.621  10.568   0.683
42346SOL    HW228936   2.516  10.477   0.623
42347SOL     OW28937   4.891  12.521  13.235
42347SOL    HW128938   4.797  12.529  13.250
42347SOL    HW228939   4.930  12.591  13.288
42348SOL     OW28940  14.225  12.881  13.455
42348SOL    HW128941  14.280  12.864  13.379
42348SOL    HW228942  14.136  12.890  13.420
42349SOL     OW28943   0.313   3.846   2.703
42349SOL    HW128944   0.250   3.801   2.647
42349SOL    HW228945   0.339   3.924   2.653
42350SOL     OW28946  12.330  13.606   5.179
42350SOL    HW128947  12.372  13.677   5.228
42350SOL    HW228948  12.250  13.646   5.145
42351SOL     OW28949   3.704  12.425   6.759
42351SOL    HW128950   3.701  12.411   6.854
42351SOL    HW228951   3.761  12.502   6.749
42352SOL     OW28952   7.118   6.625  13.131
42352SOL    HW128953   7.153   6.706  13.094
42352SOL    HW228954   7.025   6.625  13.106
42353SOL     OW28955   6.521   6.296   5.694
42353SOL    HW128956   6.451   6.330   5.638
42353SOL    HW228957   6.483   6.217   5.733
42354SOL     OW28958   6.068   7.028   9.360
42354SOL    HW128959   6.015   7.058   9.433
42354SOL    HW228960   6.092   6.938   9.382
42355SOL     OW28961  14.128  13.301   4.400
42355SOL    HW128962  14.168  13.237   4.341
42355SOL    HW228963  14.103  13.250   4.478
42356SOL     OW28964   4.345   5.511   8.443
42356SOL    HW128965   4.399   5.570   8.495
42356SOL    HW228966   4.320   5.441   8.503
42357SOL     OW28967  12.861   7.393   3.734
42357SOL    HW128968  12.830   7.304   3.756
42357SOL    HW228969  12.801   7.451   3.782
42358SOL     OW28970   8.831  14.776  10.332
42358SOL    HW128971   8.870  14.747  10.414
42358SOL    HW228972   8.838  14.700  10.274
42359SOL     OW28973  14.175  10.748   3.202
42359SOL    HW128974  14.159  10.793   3.285
42359SOL    HW228975  14.094  10.761   3.152
42360SOL     OW28976   8.604  12.719   7.881
42360SOL    HW128977   8.670  12.672   7.932
42360SOL    HW228978   8.583  12.660   7.808
42361SOL     OW28979  14.285  11.880   1.990
42361SOL    HW128980  14.306  11.833   1.909
42361SOL    HW228981  14.264  11.968   1.961
42362SOL     OW28982   2.268  10.302   3.481
42362SOL    HW128983   2.216  10.358   3.423
42362SOL    HW228984   2.347  10.283   3.430
42363SOL     OW28985  10.640   8.639  13.795
42363SOL    HW128986  10.725   8.605  13.766
42363SOL    HW228987  10.597   8.564  13.835
42364SOL     OW28988  11.825  11.215   4.330
42364SOL    HW128989  11.884  11.143   4.354
42364SOL    HW228990  11.846  11.285   4.391
42365SOL     OW28991  11.013   5.082   5.012
42365SOL    HW128992  11.028   5.139   4.937
42365SOL    HW228993  10.966   5.137   5.075
42366SOL     OW28994  10.764   5.665  10.365
42366SOL    HW128995  10.749   5.641  10.456
42366SOL    HW228996  10.814   5.593  10.328
42367SOL     OW28997  13.459   4.778  13.390
42367SOL    HW128998  13.432   4.868  13.405
42367SOL    HW228999  13.389   4.725  13.429
42368SOL     OW29000  12.942   1.614  10.481
42368SOL    HW129001  12.880   1.624  10.408
42368SOL    HW229002  12.988   1.533  10.463
42369SOL     OW29003   5.908   8.474   8.941
42369SOL    HW129004   5.918   8.559   8.898
42369SOL    HW229005   5.953   8.485   9.025
42370SOL     OW29006   5.323   9.631   2.960
42370SOL    HW129007   5.292   9.721   2.972
42370SOL    HW229008   5.401   9.625   3.015
42371SOL     OW29009   5.546   6.476   6.036
42371SOL    HW129010   5.501   6.481   5.952
42371SOL    HW229011   5.553   6.383   6.055
42372SOL     OW29012   9.159   6.882  10.084
42372SOL    HW129013   9.204   6.949  10.033
42372SOL    HW229014   9.145   6.923  10.170
42373SOL     OW29015  14.080  13.909   9.941
42373SOL    HW129016  14.021  13.962   9.994
42373SOL    HW229017  14.118  13.970   9.878
42374SOL     OW29018   8.392   1.746   5.146
42374SOL    HW129019   8.365   1.837   5.132
42374SOL    HW229020   8.311   1.696   5.140
42375SOL     OW29021   9.030   1.528   7.082
42375SOL    HW129022   8.977   1.516   7.004
42375SOL    HW229023   8.967   1.547   7.151
42376SOL     OW29024   2.163   6.754  12.452
42376SOL    HW129025   2.207   6.694  12.513
42376SOL    HW229026   2.086   6.784  12.499
42377SOL     OW29027   2.698  12.665   3.068
42377SOL    HW129028   2.713  12.673   2.974
42377SOL    HW229029   2.642  12.587   3.077
42378SOL     OW29030  10.643   1.538  14.543
42378SOL    HW129031  10.708   1.570  14.480
42378SOL    HW229032  10.584   1.483  14.491
42379SOL     OW29033   6.434   3.450  12.821
42379SOL    HW129034   6.493   3.391  12.773
42379SOL    HW229035   6.489   3.526  12.842
42380SOL     OW29036  12.690   4.632   3.018
42380SOL    HW129037  12.627   4.696   3.051
42380SOL    HW229038  12.643   4.584   2.949
42381SOL     OW29039   0.470  12.756   7.874
42381SOL    HW129040   0.400  12.787   7.931
42381SOL    HW229041   0.487  12.666   7.902
42382SOL     OW29042  11.170   0.807   0.847
42382SOL    HW129043  11.158   0.713   0.859
42382SOL    HW229044  11.185   0.841   0.936
42383SOL     OW29045  13.435   8.630   6.300
42383SOL    HW129046  13.361   8.612   6.243
42383SOL    HW229047  13.419   8.718   6.334
42384SOL     OW29048   9.314  14.292   0.636
42384SOL    HW129049   9.253  14.335   0.576
42384SOL    HW229050   9.259  14.258   0.706
42385SOL     OW29051  11.127   9.433   8.809
42385SOL    HW129052  11.161   9.426   8.898
42385SOL    HW229053  11.046   9.485   8.819
42386SOL     OW29054   7.043  11.729   0.697
42386SOL    HW129055   7.087  11.733   0.782
42386SOL    HW229056   7.043  11.636   0.674
42387SOL     OW29057   5.077   0.320   4.358
42387SOL    HW129058   5.049   0.289   4.444
42387SOL    HW229059   5.141   0.255   4.329
42388SOL     OW29060   4.918  13.470  13.158
42388SOL    HW129061   4.967  13.532  13.214
42388SOL    HW229062   4.834  13.460  13.203
42389SOL     OW29063   1.431   5.551   4.122
42389SOL    HW129064   1.471   5.538   4.036
42389SOL    HW229065   1.343   5.514   4.113
42390SOL     OW29066   2.581   2.665   6.374
42390SOL    HW129067   2.499   2.657   6.325
42390SOL    HW229068   2.640   2.710   6.314
42391SOL     OW29069  14.666   3.825   6.096
42391SOL    HW129070  14.700   3.800   6.181
42391SOL    HW229071  14.736   3.876   6.055
42392SOL     OW29072   0.601   3.408  10.417
42392SOL    HW129073   0.551   3.488  10.404
42392SOL    HW229074   0.669   3.411  10.350
42393SOL     OW29075   1.772   6.304   5.638
42393SOL    HW129076   1.702   6.368   5.642
42393SOL    HW229077   1.811   6.304   5.726
42394SOL     OW29078  10.212  13.250  11.929
42394SOL    HW129079  10.228  13.282  11.840
42394SOL    HW229080  10.126  13.208  11.925
42395SOL     OW29081   5.660   9.163  11.765
42395SOL    HW129082   5.623   9.205  11.843
42395SOL    HW229083   5.730   9.222  11.737
42396SOL     OW29084   9.071   5.908   2.011
42396SOL    HW129085   9.056   5.993   1.970
42396SOL    HW229086   9.078   5.847   1.938
42397SOL     OW29087   0.383  13.739   5.818
42397SOL    HW129088   0.309  13.786   5.857
42397SOL    HW229089   0.368  13.648   5.843
42398SOL     OW29090   6.050   9.552   5.207
42398SOL    HW129091   6.055   9.586   5.297
42398SOL    HW229092   6.077   9.626   5.152
42399SOL     OW29093   6.806  11.694   0.378
42399SOL    HW129094   6.805  11.602   0.355
42399SOL    HW229095   6.768  11.698   0.466
42400SOL     OW29096   0.319  13.491   8.459
42400SOL    HW129097   0.356  13.550   8.524
42400SOL    HW229098   0.329  13.404   8.496
42401SOL     OW29099   4.564  11.031  13.386
42401SOL    HW129100   4.510  11.102  13.351
42401SOL    HW229101   4.584  11.058  13.475
42402SOL     OW29102   3.560   4.783  11.239
42402SOL    HW129103   3.623   4.790  11.311
42402SOL    HW229104   3.557   4.689  11.220
42403SOL     OW29105   0.066   8.841   2.211
42403SOL    HW129106  14.875   8.784   2.235
42403SOL    HW229107   0.027   8.929   2.206
42404SOL     OW29108   9.652  11.722   6.881
42404SOL    HW129109   9.655  11.677   6.796
42404SOL    HW229110   9.743  11.721   6.911
42405SOL     OW29111   2.266   5.633   8.842
42405SOL    HW129112   2.312   5.712   8.872
42405SOL    HW229113   2.266   5.640   8.747
42406SOL     OW29114  10.629   2.377   7.158
42406SOL    HW129115  10.609   2.312   7.091
42406SOL    HW229116  10.562   2.445   7.147
42407SOL     OW29117   0.412   1.855   9.112
42407SOL    HW129118   0.368   1.857   9.027
42407SOL    HW229119   0.419   1.947   9.138
42408SOL     OW29120  11.939   4.929   2.108
42408SOL    HW129121  12.031   4.904   2.110
42408SOL    HW229122  11.893   4.849   2.083
42409SOL     OW29123  10.433   1.642  12.372
42409SOL    HW129124  10.520   1.659  12.407
42409SOL    HW229125  10.378   1.711  12.408
42410SOL     OW29126   6.928  12.862   1.571
42410SOL    HW129127   6.953  12.954   1.558
42410SOL    HW229128   6.832  12.861   1.561
42411SOL     OW29129  12.416   7.294   5.713
42411SOL    HW129130  12.470   7.282   5.635
42411SOL    HW229131  12.329   7.266   5.687
42412SOL     OW29132   1.738   1.035   6.944
42412SOL    HW129133   1.718   1.060   6.854
42412SOL    HW229134   1.765   1.117   6.987
42413SOL     OW29135   2.540   3.375   3.427
42413SOL    HW129136   2.592   3.440   3.473
42413SOL    HW229137   2.454   3.415   3.418
42414SOL     OW29138   2.783   9.627  11.191
42414SOL    HW129139   2.867   9.586  11.210
42414SOL    HW229140   2.718   9.559  11.211
42415SOL     OW29141   6.911   5.930   1.001
42415SOL    HW129142   6.860   5.870   1.055
42415SOL    HW229143   6.889   6.017   1.034
42416SOL     OW29144   6.791   7.668   7.308
42416SOL    HW129145   6.869   7.649   7.360
42416SOL    HW229146   6.771   7.585   7.265
42417SOL     OW29147   6.545   5.523  11.062
42417SOL    HW129148   6.632   5.564  11.065
42417SOL    HW229149   6.544   5.464  11.137
42418SOL     OW29150   9.213   1.216  10.942
42418SOL    HW129151   9.282   1.263  10.988
42418SOL    HW229152   9.230   1.124  10.962
42419SOL     OW29153   9.609   2.322   9.272
42419SOL    HW129154   9.582   2.359   9.356
42419SOL    HW229155   9.532   2.332   9.216
42420SOL     OW29156   7.672   0.715  11.023
42420SOL    HW129157   7.607   0.746  11.086
42420SOL    HW229158   7.699   0.793  10.975
42421SOL     OW29159  10.553   4.767   3.472
42421SOL    HW129160  10.545   4.802   3.561
42421SOL    HW229161  10.587   4.678   3.484
42422SOL     OW29162  13.159  11.798  10.099
42422SOL    HW129163  13.242  11.828  10.136
42422SOL    HW229164  13.119  11.876  10.062
42423SOL     OW29165   4.720  11.485   2.802
42423SOL    HW129166   4.745  11.559   2.858
42423SOL    HW229167   4.803  11.441   2.782
42424SOL     OW29168   2.762   1.412   7.429
42424SOL    HW129169   2.797   1.359   7.501
42424SOL    HW229170   2.812   1.493   7.432
42425SOL     OW29171  10.790   5.963   6.643
42425SOL    HW129172  10.697   5.957   6.665
42425SOL    HW229173  10.813   6.054   6.664
42426SOL     OW29174  13.895   0.524   6.846
42426SOL    HW129175  13.974   0.481   6.879
42426SOL    HW229176  13.927   0.598   6.795
42427SOL     OW29177   1.725  11.207   5.813
42427SOL    HW129178   1.680  11.122   5.814
42427SOL    HW229179   1.813  11.187   5.784
42428SOL     OW29180   2.284   8.609   1.698
42428SOL    HW129181   2.321   8.592   1.785
42428SOL    HW229182   2.191   8.593   1.707
42429SOL     OW29183   6.753   5.567   5.388
42429SOL    HW129184   6.842   5.554   5.355
42429SOL    HW229185   6.699   5.508   5.336
42430SOL     OW29186  13.667  10.870  13.927
42430SOL    HW129187  13.687  10.801  13.864
42430SOL    HW229188  13.716  10.845  14.006
42431SOL     OW29189  10.790   4.168   3.389
42431SOL    HW129190  10.734   4.144   3.315
42431SOL    HW229191  10.754   4.117   3.462
42432SOL     OW29192   6.022   3.498   4.642
42432SOL    HW129193   6.025   3.519   4.548
42432SOL    HW229194   6.106   3.456   4.660
42433SOL     OW29195   2.686  14.746   6.865
42433SOL    HW129196   2.748  14.731   6.936
42433SOL    HW229197   2.601  14.721   6.900
42434SOL     OW29198   3.671   1.919  14.264
42434SOL    HW129199   3.764   1.902  14.245
42434SOL    HW229200   3.649   1.858  14.333
42435SOL     OW29201   3.348   3.101  11.029
42435SOL    HW129202   3.321   3.147  10.950
42435SOL    HW229203   3.276   3.115  11.091
42436SOL     OW29204  14.404   0.206  13.928
42436SOL    HW129205  14.339   0.138  13.911
42436SOL    HW229206  14.405   0.215  14.023
42437SOL     OW29207  13.118  11.124  14.287
42437SOL    HW129208  13.061  11.054  14.255
42437SOL    HW229209  13.102  11.128  14.381
42438SOL     OW29210  11.545  14.014  10.693
42438SOL    HW129211  11.608  13.952  10.657
42438SOL    HW229212  11.592  14.057  10.765
42439SOL     OW29213   0.369   2.447   8.069
42439SOL    HW129214   0.387   2.426   8.160
42439SOL    HW229215   0.277   2.423   8.056
42440SOL     OW29216   6.130   5.544   3.895
42440SOL    HW129217   6.103   5.635   3.904
42440SOL    HW229218   6.183   5.527   3.973
42441SOL     OW29219  13.776   8.877   4.248
42441SOL    HW129220  13.731   8.825   4.314
42441SOL    HW229221  13.742   8.966   4.261
42442SOL     OW29222  12.359   0.881   3.911
42442SOL    HW129223  12.428   0.915   3.855
42442SOL    HW229224  12.296   0.953   3.919
42443SOL     OW29225   3.885   1.130   1.849
42443SOL    HW129226   3.792   1.127   1.826
42443SOL    HW229227   3.924   1.060   1.796
42444SOL     OW29228   2.078   9.789  10.449
42444SOL    HW129229   2.020   9.727  10.493
42444SOL    HW229230   2.061   9.873  10.493
42445SOL     OW29231   9.819   6.779  10.405
42445SOL    HW129232   9.799   6.752  10.495
42445SOL    HW229233   9.862   6.864  10.415
42446SOL     OW29234   7.442  11.938  10.331
42446SOL    HW129235   7.384  11.926  10.255
42446SOL    HW229236   7.529  11.919  10.297
42447SOL     OW29237   9.120   5.700   8.646
42447SOL    HW129238   9.120   5.727   8.738
42447SOL    HW229239   9.107   5.781   8.597
42448SOL     OW29240   8.359   1.370  12.020
42448SOL    HW129241   8.398   1.455  12.037
42448SOL    HW229242   8.323   1.343  12.104
42449SOL     OW29243   5.284   0.150   3.328
42449SOL    HW129244   5.301   0.224   3.386
42449SOL    HW229245   5.256   0.080   3.387
42450SOL     OW29246   9.362   1.485  10.716
42450SOL    HW129247   9.315   1.514  10.637
42450SOL    HW229248   9.455   1.493  10.693
42451SOL     OW29249   5.220  14.570   8.616
42451SOL    HW129250   5.234  14.585   8.709
42451SOL    HW229251   5.176  14.486   8.611
42452SOL     OW29252   2.169   6.319  11.415
42452SOL    HW129253   2.198   6.368  11.492
42452SOL    HW229254   2.225   6.351  11.344
42453SOL     OW29255   2.967   5.733   1.102
42453SOL    HW129256   2.878   5.703   1.080
42453SOL    HW229257   2.953   5.811   1.155
42454SOL     OW29258   7.012   9.870  13.392
42454SOL    HW129259   6.993   9.914  13.474
42454SOL    HW229260   6.970   9.784  13.400
42455SOL     OW29261  11.181   9.998  14.294
42455SOL    HW129262  11.098   9.960  14.265
42455SOL    HW229263  11.202   9.950  14.375
42456SOL     OW29264   3.848   9.291   4.304
42456SOL    HW129265   3.937   9.271   4.332
42456SOL    HW229266   3.852   9.293   4.209
42457SOL     OW29267   1.485   9.699   3.635
42457SOL    HW129268   1.544   9.768   3.665
42457SOL    HW229269   1.525   9.666   3.554
42458SOL     OW29270   8.144   0.756   0.189
42458SOL    HW129271   8.096   0.796   0.261
42458SOL    HW229272   8.118   0.664   0.191
42459SOL     OW29273   2.886  14.183   6.733
42459SOL    HW129274   2.864  14.276   6.723
42459SOL    HW229275   2.803  14.142   6.759
42460SOL     OW29276   2.936  13.139   3.297
42460SOL    HW129277   2.874  13.069   3.316
42460SOL    HW229278   2.998  13.138   3.370
42461SOL     OW29279   0.556   5.483   3.104
42461SOL    HW129280   0.638   5.498   3.150
42461SOL    HW229281   0.563   5.394   3.071
42462SOL     OW29282   4.693   0.966   1.107
42462SOL    HW129283   4.661   0.983   1.018
42462SOL    HW229284   4.677   1.047   1.154
42463SOL     OW29285  12.841  11.218  11.203
42463SOL    HW129286  12.849  11.173  11.287
42463SOL    HW229287  12.752  11.252  11.202
42464SOL     OW29288   9.517   2.007   1.981
42464SOL    HW129289   9.457   2.081   1.976
42464SOL    HW229290   9.567   2.010   1.900
42465SOL     OW29291   4.776   6.016   5.416
42465SOL    HW129292   4.871   6.023   5.425
42465SOL    HW229293   4.762   5.930   5.376
42466SOL     OW29294   9.145   9.225   1.535
42466SOL    HW129295   9.083   9.259   1.470
42466SOL    HW229296   9.149   9.131   1.518
42467SOL     OW29297   8.029   6.668  14.632
42467SOL    HW129298   8.120   6.696  14.631
42467SOL    HW229299   8.031   6.582  14.590
42468SOL     OW29300   2.090   2.095   3.482
42468SOL    HW129301   2.116   2.183   3.454
42468SOL    HW229302   2.039   2.109   3.562
42469SOL     OW29303  11.705  10.008   7.133
42469SOL    HW129304  11.641   9.958   7.183
42469SOL    HW229305  11.654  10.076   7.090
42470SOL     OW29306   5.547  14.834  10.106
42470SOL    HW129307   5.497   0.024  10.144
42470SOL    HW229308   5.522  14.757  10.158
42471SOL     OW29309  12.204   8.170   0.900
42471SOL    HW129310  12.269   8.209   0.959
42471SOL    HW229311  12.211   8.075   0.916
42472SOL     OW29312   8.376   9.735   9.394
42472SOL    HW129313   8.427   9.809   9.361
42472SOL    HW229314   8.303   9.775   9.441
42473SOL     OW29315  11.354   1.128   6.245
42473SOL    HW129316  11.286   1.147   6.311
42473SOL    HW229317  11.309   1.141   6.161
42474SOL     OW29318   8.341   7.014  13.749
42474SOL    HW129319   8.246   7.007  13.740
42474SOL    HW229320   8.376   6.966  13.673
42475SOL     OW29321   7.495  14.268   8.285
42475SOL    HW129322   7.589  14.254   8.294
42475SOL    HW229323   7.465  14.195   8.231
42476SOL     OW29324   6.593   7.810   3.262
42476SOL    HW129325   6.521   7.868   3.237
42476SOL    HW229326   6.650   7.809   3.185
42477SOL     OW29327  11.824   5.110   1.238
42477SOL    HW129328  11.905   5.138   1.281
42477SOL    HW229329  11.754   5.145   1.293
42478SOL     OW29330   5.312   5.996   8.035
42478SOL    HW129331   5.227   5.959   8.013
42478SOL    HW229332   5.347   6.028   7.952
42479SOL     OW29333   9.941   2.047  10.228
42479SOL    HW129334   9.881   2.015  10.161
42479SOL    HW229335   9.955   2.139  10.206
42480SOL     OW29336  10.396   5.147   0.412
42480SOL    HW129337  10.307   5.114   0.412
42480SOL    HW229338  10.450   5.074   0.381
42481SOL     OW29339   1.314  10.514  14.629
42481SOL    HW129340   1.308  10.448  14.560
42481SOL    HW229341   1.228  10.555  14.630
42482SOL     OW29342  13.258   9.158   5.891
42482SOL    HW129343  13.254   9.244   5.932
42482SOL    HW229344  13.166   9.136   5.873
42483SOL     OW29345   0.525   5.044   9.114
42483SOL    HW129346   0.552   4.964   9.159
42483SOL    HW229347   0.593   5.058   9.048
42484SOL     OW29348  10.279   5.157  13.318
42484SOL    HW129349  10.320   5.078  13.355
42484SOL    HW229350  10.302   5.154  13.225
42485SOL     OW29351  11.292   6.128   2.877
42485SOL    HW129352  11.223   6.176   2.921
42485SOL    HW229353  11.283   6.038   2.909
42486SOL     OW29354  13.858  14.085  12.300
42486SOL    HW129355  13.888  14.116  12.215
42486SOL    HW229356  13.802  14.009  12.281
42487SOL     OW29357  11.759  10.061   8.631
42487SOL    HW129358  11.771  10.150   8.666
42487SOL    HW229359  11.665  10.044   8.640
42488SOL     OW29360   8.146  12.901   1.122
42488SOL    HW129361   8.072  12.887   1.063
42488SOL    HW229362   8.175  12.990   1.103
42489SOL     OW29363   0.419  13.077   3.403
42489SOL    HW129364   0.444  13.012   3.469
42489SOL    HW229365   0.358  13.135   3.448
42490SOL     OW29366   3.186   8.956  12.201
42490SOL    HW129367   3.141   9.040  12.202
42490SOL    HW229368   3.270   8.972  12.244
42491SOL     OW29369   4.885   1.295  14.153
42491SOL    HW129370   4.973   1.310  14.118
42491SOL    HW229371   4.872   1.201  14.143
42492SOL     OW29372   3.826  11.816   0.753
42492SOL    HW129373   3.905  11.762   0.750
42492SOL    HW229374   3.775  11.780   0.826
42493SOL     OW29375  13.205   5.100   7.550
42493SOL    HW129376  13.187   5.064   7.637
42493SOL    HW229377  13.179   5.192   7.555
42494SOL     OW29378   7.178   2.343   8.479
42494SOL    HW129379   7.142   2.267   8.433
42494SOL    HW229380   7.117   2.414   8.459
42495SOL     OW29381   8.595   0.050  12.947
42495SOL    HW129382   8.598   0.006  12.863
42495SOL    HW229383   8.621  14.866  13.011
42496SOL     OW29384  12.103   5.513   0.901
42496SOL    HW129385  12.119   5.424   0.870
42496SOL    HW229386  12.053   5.554   0.830
42497SOL     OW29387  12.139  10.985   0.059
42497SOL    HW129388  12.155  10.891   0.067
42497SOL    HW229389  12.051  10.997   0.093
42498SOL     OW29390  13.354   3.857   1.846
42498SOL    HW129391  13.260   3.844   1.835
42498SOL    HW229392  13.384   3.775   1.885
42499SOL     OW29393   0.455   8.376  12.101
42499SOL    HW129394   0.438   8.300  12.045
42499SOL    HW229395   0.535   8.352  12.149
42500SOL     OW29396  11.237   0.103  12.800
42500SOL    HW129397  11.225   0.165  12.871
42500SOL    HW229398  11.315   0.053  12.824
42501SOL     OW29399   2.933   0.794   5.670
42501SOL    HW129400   2.948   0.795   5.764
42501SOL    HW229401   2.999   0.855   5.634
42502SOL     OW29402   3.627   9.762   1.194
42502SOL    HW129403   3.594   9.675   1.216
42502SOL    HW229404   3.645   9.759   1.100
42503SOL     OW29405  13.474   9.954   1.906
42503SOL    HW129406  13.515  10.038   1.884
42503SOL    HW229407  13.452   9.915   1.822
42504SOL     OW29408   0.013   2.278   8.541
42504SOL    HW129409   0.100   2.317   8.535
42504SOL    HW229410  14.837   2.344   8.503
42505SOL     OW29411   7.055   5.723   5.056
42505SOL    HW129412   6.989   5.792   5.053
42505SOL    HW229413   7.114   5.743   4.983
42506SOL     OW29414  11.148  12.075   4.465
42506SOL    HW129415  11.067  12.077   4.515
42506SOL    HW229416  11.152  12.160   4.422
42507SOL     OW29417   6.690   8.573   7.182
42507SOL    HW129418   6.689   8.531   7.096
42507SOL    HW229419   6.783   8.577   7.206
42508SOL     OW29420   1.061  14.860   8.520
42508SOL    HW129421   1.144  14.852   8.567
42508SOL    HW229422   1.059  14.783   8.462
42509SOL     OW29423   6.158   7.416   2.617
42509SOL    HW129424   6.245   7.454   2.621
42509SOL    HW229425   6.168   7.328   2.654
42510SOL     OW29426   1.753   0.394   6.750
42510SOL    HW129427   1.808   0.472   6.749
42510SOL    HW229428   1.771   0.351   6.667
42511SOL     OW29429  14.184  13.559   4.085
42511SOL    HW129430  14.128  13.482   4.078
42511SOL    HW229431  14.188  13.594   3.996
42512SOL     OW29432   8.692   9.814   0.451
42512SOL    HW129433   8.731   9.882   0.397
42512SOL    HW229434   8.668   9.859   0.532
42513SOL     OW29435   3.491   6.684  10.794
42513SOL    HW129436   3.543   6.639  10.727
42513SOL    HW229437   3.453   6.759  10.749
42514SOL     OW29438  10.685   1.026   8.588
42514SOL    HW129439  10.640   0.942   8.590
42514SOL    HW229440  10.632   1.080   8.529
42515SOL     OW29441   8.955  14.386   1.549
42515SOL    HW129442   8.943  14.417   1.639
42515SOL    HW229443   8.893  14.314   1.540
42516SOL     OW29444   1.278   9.110   4.645
42516SOL    HW129445   1.341   9.103   4.573
42516SOL    HW229446   1.321   9.066   4.718
42517SOL     OW29447  12.674   6.225  11.545
42517SOL    HW129448  12.690   6.319  11.557
42517SOL    HW229449  12.668   6.214  11.450
42518SOL     OW29450  11.152  10.302   6.794
42518SOL    HW129451  11.090  10.239   6.831
42518SOL    HW229452  11.222  10.307   6.859
42519SOL     OW29453  14.773  14.589   2.534
42519SOL    HW129454  14.748  14.667   2.484
42519SOL    HW229455  14.860  14.609   2.568
42520SOL     OW29456   8.026  12.374   8.688
42520SOL    HW129457   8.056  12.284   8.702
42520SOL    HW229458   8.067  12.401   8.606
42521SOL     OW29459   6.001  12.727  10.043
42521SOL    HW129460   5.995  12.820  10.021
42521SOL    HW229461   6.080  12.720  10.097
42522SOL     OW29462   6.637   7.412   6.756
42522SOL    HW129463   6.676   7.325   6.757
42522SOL    HW229464   6.690   7.461   6.693
42523SOL     OW29465  13.177   1.794   6.179
42523SOL    HW129466  13.121   1.762   6.249
42523SOL    HW229467  13.131   1.772   6.098
42524SOL     OW29468   4.360   1.790  10.977
42524SOL    HW129469   4.425   1.802  11.046
42524SOL    HW229470   4.320   1.706  10.996
42525SOL     OW29471  12.091  14.355   8.717
42525SOL    HW129472  12.028  14.310   8.774
42525SOL    HW229473  12.039  14.421   8.671
42526SOL     OW29474   8.425   8.786   8.683
42526SOL    HW129475   8.442   8.713   8.623
42526SOL    HW229476   8.458   8.863   8.636
42527SOL     OW29477   0.743  14.729  13.004
42527SOL    HW129478   0.819  14.782  12.980
42527SOL    HW229479   0.769  14.639  12.985
42528SOL     OW29480   4.818  11.351  12.386
42528SOL    HW129481   4.883  11.323  12.450
42528SOL    HW229482   4.746  11.386  12.439
42529SOL     OW29483   7.006  11.638   6.567
42529SOL    HW129484   7.084  11.683   6.599
42529SOL    HW229485   7.039  11.556   6.530
42530SOL     OW29486  10.217   7.388  13.650
42530SOL    HW129487  10.309   7.413  13.645
42530SOL    HW229488  10.215   7.297  13.622
42531SOL     OW29489  14.755   8.621  10.316
42531SOL    HW129490  14.674   8.668  10.299
42531SOL    HW229491  14.727   8.529  10.325
42532SOL     OW29492  14.849   1.543   1.151
42532SOL    HW129493  14.852   1.455   1.113
42532SOL    HW229494  14.843   1.601   1.075
42533SOL     OW29495   5.461  14.223  11.002
42533SOL    HW129496   5.406  14.146  11.020
42533SOL    HW229497   5.529  14.221  11.068
42534SOL     OW29498   4.672  10.887  14.824
42534SOL    HW129499   4.664  10.975  14.859
42534SOL    HW229500   4.586  10.847  14.839
42535SOL     OW29501  10.389   3.089   2.170
42535SOL    HW129502  10.392   3.089   2.266
42535SOL    HW229503  10.439   3.166   2.145
42536SOL     OW29504  11.627  14.190   0.026
42536SOL    HW129505  11.594  14.155  14.825
42536SOL    HW229506  11.698  14.131   0.050
42537SOL     OW29507  11.142   8.970   3.166
42537SOL    HW129508  11.188   9.008   3.091
42537SOL    HW229509  11.140   9.041   3.231
42538SOL     OW29510   4.286   7.299   1.631
42538SOL    HW129511   4.323   7.243   1.699
42538SOL    HW229512   4.205   7.332   1.669
42539SOL     OW29513   7.727   3.129   7.930
42539SOL    HW129514   7.756   3.038   7.933
42539SOL    HW229515   7.804   3.178   7.902
42540SOL     OW29516  14.122   1.712   1.509
42540SOL    HW129517  14.190   1.773   1.536
42540SOL    HW229518  14.065   1.763   1.452
42541SOL     OW29519   2.069   9.903   5.225
42541SOL    HW129520   2.162   9.879   5.218
42541SOL    HW229521   2.049   9.943   5.140
42542SOL     OW29522   2.112  11.374   0.485
42542SOL    HW129523   2.117  11.283   0.454
42542SOL    HW229524   2.107  11.426   0.405
42543SOL     OW29525   0.922   0.660   4.117
42543SOL    HW129526   0.880   0.655   4.031
42543SOL    HW229527   1.002   0.608   4.106
42544SOL     OW29528  12.262   7.484   5.468
42544SOL    HW129529  12.345   7.483   5.419
42544SOL    HW229530  12.270   7.559   5.526
42545SOL     OW29531  13.896  11.854   7.201
42545SOL    HW129532  13.855  11.893   7.125
42545SOL    HW229533  13.835  11.869   7.273
42546SOL     OW29534   5.792   5.484  11.272
42546SOL    HW129535   5.714   5.437  11.244
42546SOL    HW229536   5.864   5.439  11.229
42547SOL     OW29537   9.617   4.571   0.780
42547SOL    HW129538   9.581   4.558   0.692
42547SOL    HW229539   9.562   4.516   0.836
42548SOL     OW29540  11.241   4.426   1.346
42548SOL    HW129541  11.315   4.388   1.393
42548SOL    HW229542  11.237   4.517   1.376
42549SOL     OW29543   2.745   3.573  10.071
42549SOL    HW129544   2.736   3.553  10.164
42549SOL    HW229545   2.838   3.595  10.060
42550SOL     OW29546  14.157   2.656  14.588
42550SOL    HW129547  14.114   2.663  14.674
42550SOL    HW229548  14.158   2.746  14.555
42551SOL     OW29549  11.337   3.189   3.526
42551SOL    HW129550  11.331   3.273   3.480
42551SOL    HW229551  11.309   3.209   3.615
42552SOL     OW29552   1.905   9.518   3.383
42552SOL    HW129553   1.930   9.607   3.357
42552SOL    HW229554   1.949   9.461   3.319
42553SOL     OW29555   4.012  12.719   0.431
42553SOL    HW129556   3.957  12.645   0.455
42553SOL    HW229557   4.072  12.730   0.505
42554SOL     OW29558   9.493   7.264   7.864
42554SOL    HW129559   9.545   7.196   7.907
42554SOL    HW229560   9.402   7.239   7.881
42555SOL     OW29561  11.679  14.589   3.203
42555SOL    HW129562  11.730  14.513   3.229
42555SOL    HW229563  11.632  14.615   3.282
42556SOL     OW29564   1.257   0.723   8.148
42556SOL    HW129565   1.285   0.631   8.152
42556SOL    HW229566   1.335   0.770   8.119
42557SOL     OW29567   6.314   8.650   8.846
42557SOL    HW129568   6.226   8.627   8.818
42557SOL    HW229569   6.368   8.642   8.767
42558SOL     OW29570   6.204   0.088   4.391
42558SOL    HW129571   6.221   0.064   4.483
42558SOL    HW229572   6.256   0.025   4.341
42559SOL     OW29573   5.897   8.494  11.051
42559SOL    HW129574   5.924   8.463  10.965
42559SOL    HW229575   5.821   8.549  11.035
42560SOL     OW29576   4.837   9.393  12.850
42560SOL    HW129577   4.792   9.321  12.896
42560SOL    HW229578   4.834   9.367  12.758
42561SOL     OW29579   1.976   5.101   3.380
42561SOL    HW129580   1.917   5.118   3.307
42561SOL    HW229581   1.960   5.010   3.404
42562SOL     OW29582  10.262  14.739   0.548
42562SOL    HW129583  10.328  14.784   0.494
42562SOL    HW229584  10.247  14.656   0.502
42563SOL     OW29585  10.210   8.309   8.468
42563SOL    HW129586  10.244   8.398   8.461
42563SOL    HW229587  10.125   8.312   8.425
42564SOL     OW29588   9.394   9.474   1.908
42564SOL    HW129589   9.444   9.420   1.847
42564SOL    HW229590   9.423   9.446   1.994
42565SOL     OW29591   0.355  12.001   2.220
42565SOL    HW129592   0.361  11.941   2.294
42565SOL    HW229593   0.283  12.060   2.243
42566SOL     OW29594  12.308   1.715   4.426
42566SOL    HW129595  12.308   1.708   4.331
42566SOL    HW229596  12.360   1.640   4.455
42567SOL     OW29597  11.614   4.431   2.801
42567SOL    HW129598  11.545   4.408   2.739
42567SOL    HW229599  11.656   4.508   2.763
42568SOL     OW29600   1.946  10.805   5.855
42568SOL    HW129601   1.980  10.892   5.832
42568SOL    HW229602   1.907  10.817   5.942
42569SOL     OW29603   5.975   8.086   7.114
42569SOL    HW129604   6.059   8.087   7.159
42569SOL    HW229605   5.930   8.165   7.144
42570SOL     OW29606   8.331   0.047   1.368
42570SOL    HW129607   8.422   0.029   1.344
42570SOL    HW229608   8.283   0.041   1.286
42571SOL     OW29609   8.481   7.526   1.079
42571SOL    HW129610   8.502   7.596   1.141
42571SOL    HW229611   8.536   7.453   1.106
42572SOL     OW29612  14.180  13.986   5.558
42572SOL    HW129613  14.191  13.923   5.487
42572SOL    HW229614  14.113  13.947   5.615
42573SOL     OW29615   5.203   3.378   5.036
42573SOL    HW129616   5.212   3.417   5.123
42573SOL    HW229617   5.110   3.387   5.015
42574SOL     OW29618   7.792  12.949  10.353
42574SOL    HW129619   7.847  12.880  10.316
42574SOL    HW229620   7.703  12.915  10.348
42575SOL     OW29621  14.800   7.717  10.938
42575SOL    HW129622  14.820   7.725  10.845
42575SOL    HW229623  14.859   7.778  10.981
42576SOL     OW29624  10.925   1.202  10.907
42576SOL    HW129625  10.847   1.197  10.851
42576SOL    HW229626  10.941   1.295  10.919
42577SOL     OW29627  14.717   4.603   3.181
42577SOL    HW129628  14.714   4.656   3.261
42577SOL    HW229629  14.686   4.661   3.112
42578SOL     OW29630  10.059  12.901  11.315
42578SOL    HW129631  10.084  12.852  11.237
42578SOL    HW229632  10.022  12.982  11.281
42579SOL     OW29633   4.954   2.087   1.024
42579SOL    HW129634   5.014   2.067   1.096
42579SOL    HW229635   4.986   2.034   0.951
42580SOL     OW29636   4.683  13.328   2.368
42580SOL    HW129637   4.606  13.275   2.346
42580SOL    HW229638   4.737  13.272   2.422
42581SOL     OW29639   0.701  13.394   1.738
42581SOL    HW129640   0.638  13.338   1.693
42581SOL    HW229641   0.665  13.482   1.731
42582SOL     OW29642   5.980   1.312   5.846
42582SOL    HW129643   6.009   1.233   5.892
42582SOL    HW229644   6.044   1.379   5.870
42583SOL     OW29645  10.615  12.785  10.779
42583SOL    HW129646  10.541  12.726  10.792
42583SOL    HW229647  10.590  12.865  10.825
42584SOL     OW29648   0.430   1.161   4.100
42584SOL    HW129649   0.398   1.237   4.150
42584SOL    HW229650   0.505   1.195   4.050
42585SOL     OW29651  14.193  10.795   4.087
42585SOL    HW129652  14.211  10.705   4.116
42585SOL    HW229653  14.278  10.828   4.057
42586SOL     OW29654  11.760   6.387   0.287
42586SOL    HW129655  11.701   6.342   0.347
42586SOL    HW229656  11.706   6.455   0.246
42587SOL     OW29657  12.133   6.268   0.674
42587SOL    HW129658  12.076   6.272   0.598
42587SOL    HW229659  12.167   6.357   0.683
42588SOL     OW29660   2.514  11.162  11.149
42588SOL    HW129661   2.501  11.163  11.054
42588SOL    HW229662   2.467  11.084  11.179
42589SOL     OW29663  13.860  12.082   5.217
42589SOL    HW129664  13.920  12.008   5.217
42589SOL    HW229665  13.814  12.075   5.133
42590SOL     OW29666   0.555   5.282   5.396
42590SOL    HW129667   0.499   5.358   5.382
42590SOL    HW229668   0.633   5.317   5.439
42591SOL     OW29669  10.333   1.496   9.901
42591SOL    HW129670  10.424   1.471   9.886
42591SOL    HW229671  10.301   1.524   9.815
42592SOL     OW29672  10.234   7.141   0.129
42592SOL    HW129673  10.312   7.094   0.158
42592SOL    HW229674  10.258   7.233   0.132
42593SOL     OW29675  12.618   4.143  13.511
42593SOL    HW129676  12.699   4.110  13.473
42593SOL    HW229677  12.549   4.091  13.469
42594SOL     OW29678   8.892   3.178  12.804
42594SOL    HW129679   8.843   3.230  12.868
42594SOL    HW229680   8.852   3.091  12.807
42595SOL     OW29681   4.871   2.011  10.789
42595SOL    HW129682   4.863   1.996  10.884
42595SOL    HW229683   4.935   2.082  10.782
42596SOL     OW29684  12.393   6.144  13.312
42596SOL    HW129685  12.341   6.071  13.345
42596SOL    HW229686  12.329   6.215  13.300
42597SOL     OW29687   1.315   6.784   8.991
42597SOL    HW129688   1.393   6.789   9.046
42597SOL    HW229689   1.296   6.690   8.984
42598SOL     OW29690   5.378   3.318   6.682
42598SOL    HW129691   5.446   3.339   6.619
42598SOL    HW229692   5.411   3.352   6.765
42599SOL     OW29693  12.478   8.388   7.803
42599SOL    HW129694  12.458   8.353   7.890
42599SOL    HW229695  12.527   8.468   7.820
42600SOL     OW29696   4.580  13.214  10.629
42600SOL    HW129697   4.589  13.183  10.539
42600SOL    HW229698   4.644  13.164  10.678
42601SOL     OW29699   5.713  10.710   5.726
42601SOL    HW129700   5.793  10.749   5.761
42601SOL    HW229701   5.677  10.777   5.668
42602SOL     OW29702   1.685   1.417   4.391
42602SOL    HW129703   1.644   1.390   4.308
42602SOL    HW229704   1.612   1.447   4.445
42603SOL     OW29705   4.752  13.976   2.882
42603SOL    HW129706   4.714  13.888   2.888
42603SOL    HW229707   4.785  13.993   2.971
42604SOL     OW29708   6.856   9.898  12.913
42604SOL    HW129709   6.780   9.881  12.969
42604SOL    HW229710   6.910   9.819  12.921
42605SOL     OW29711  12.269   1.419  10.837
42605SOL    HW129712  12.317   1.442  10.917
42605SOL    HW229713  12.249   1.503  10.796
42606SOL     OW29714   6.630  10.722  14.667
42606SOL    HW129715   6.718  10.696  14.694
42606SOL    HW229716   6.576  10.705  14.743
42607SOL     OW29717   9.686   6.186   1.556
42607SOL    HW129718   9.670   6.108   1.609
42607SOL    HW229719   9.613   6.245   1.577
42608SOL     OW29720   3.424  14.612   1.761
42608SOL    HW129721   3.494  14.674   1.778
42608SOL    HW229722   3.432  14.546   1.830
42609SOL     OW29723   0.294   4.211  11.035
42609SOL    HW129724   0.253   4.229  10.951
42609SOL    HW229725   0.268   4.121  11.056
42610SOL     OW29726   9.750   3.952  14.193
42610SOL    HW129727   9.745   4.031  14.246
42610SOL    HW229728   9.764   3.982  14.104
42611SOL     OW29729   1.286  11.310   9.418
42611SOL    HW129730   1.285  11.317   9.513
42611SOL    HW229731   1.233  11.233   9.399
42612SOL     OW29732   1.545   4.796   8.389
42612SOL    HW129733   1.596   4.773   8.466
42612SOL    HW229734   1.608   4.832   8.327
42613SOL     OW29735  10.285   4.536   8.688
42613SOL    HW129736  10.321   4.522   8.600
42613SOL    HW229737  10.191   4.550   8.674
42614SOL     OW29738  14.089   1.931   4.523
42614SOL    HW129739  14.130   1.845   4.519
42614SOL    HW229740  14.160   1.992   4.502
42615SOL     OW29741   0.118  14.758  10.954
42615SOL    HW129742   0.133  14.850  10.975
42615SOL    HW229743   0.199  14.730  10.911
42616SOL     OW29744  11.520  11.368   5.538
42616SOL    HW129745  11.532  11.431   5.609
42616SOL    HW229746  11.522  11.420   5.458
42617SOL     OW29747   8.406   8.728   2.703
42617SOL    HW129748   8.477   8.776   2.745
42617SOL    HW229749   8.336   8.792   2.692
42618SOL     OW29750   9.406  12.928  11.107
42618SOL    HW129751   9.320  12.887  11.118
42618SOL    HW229752   9.446  12.923  11.194
42619SOL     OW29753   3.092   4.243  13.374
42619SOL    HW129754   3.141   4.296  13.311
42619SOL    HW229755   3.009   4.290  13.385
42620SOL     OW29756   4.104   3.506   9.274
42620SOL    HW129757   4.118   3.532   9.365
42620SOL    HW229758   4.153   3.570   9.223
42621SOL     OW29759  11.484   4.387   4.869
42621SOL    HW129760  11.393   4.402   4.841
42621SOL    HW229761  11.535   4.452   4.819
42622SOL     OW29762  14.605   6.229   8.418
42622SOL    HW129763  14.595   6.183   8.502
42622SOL    HW229764  14.518   6.267   8.401
42623SOL     OW29765   4.173   7.195   3.338
42623SOL    HW129766   4.143   7.276   3.379
42623SOL    HW229767   4.128   7.126   3.387
42624SOL     OW29768  14.536   9.951  11.640
42624SOL    HW129769  14.579   9.905  11.568
42624SOL    HW229770  14.590   9.933  11.717
42625SOL     OW29771  10.533   1.540   6.305
42625SOL    HW129772  10.551   1.633   6.291
42625SOL    HW229773  10.512   1.533   6.398
42626SOL     OW29774   6.103   0.976  14.621
42626SOL    HW129775   6.085   0.998  14.712
42626SOL    HW229776   6.061   0.890  14.608
42627SOL     OW29777   3.532   0.257   3.090
42627SOL    HW129778   3.503   0.324   3.029
42627SOL    HW229779   3.526   0.175   3.041
42628SOL     OW29780   0.363   8.301   8.959
42628SOL    HW129781   0.395   8.377   9.008
42628SOL    HW229782   0.318   8.338   8.883
42629SOL     OW29783   0.579   8.766   6.851
42629SOL    HW129784   0.492   8.802   6.868
42629SOL    HW229785   0.594   8.704   6.922
42630SOL     OW29786   2.252   6.066   0.812
42630SOL    HW129787   2.219   5.999   0.872
42630SOL    HW229788   2.176   6.117   0.788
42631SOL     OW29789   7.867  12.271   5.667
42631SOL    HW129790   7.831  12.237   5.749
42631SOL    HW229791   7.961  12.271   5.680
42632SOL     OW29792   5.974   3.382   5.346
42632SOL    HW129793   5.953   3.455   5.289
42632SOL    HW229794   6.001   3.312   5.287
42633SOL     OW29795   7.346  13.832  13.207
42633SOL    HW129796   7.368  13.860  13.118
42633SOL    HW229797   7.315  13.742  13.197
42634SOL     OW29798   6.349   8.892   2.520
42634SOL    HW129799   6.408   8.880   2.593
42634SOL    HW229800   6.309   8.978   2.535
42635SOL     OW29801   0.846   4.265   1.793
42635SOL    HW129802   0.805   4.274   1.879
42635SOL    HW229803   0.939   4.251   1.812
42636SOL     OW29804   1.987   4.385   5.814
42636SOL    HW129805   2.070   4.399   5.859
42636SOL    HW229806   1.928   4.450   5.851
42637SOL     OW29807   0.635   5.309   6.260
42637SOL    HW129808   0.562   5.260   6.298
42637SOL    HW229809   0.594   5.385   6.218
42638SOL     OW29810  13.794   6.969  13.585
42638SOL    HW129811  13.821   6.941  13.672
42638SOL    HW229812  13.716   6.917  13.566
42639SOL     OW29813  11.353  14.244  11.603
42639SOL    HW129814  11.266  14.278  11.583
42639SOL    HW229815  11.412  14.318  11.588
42640SOL     OW29816   0.937   2.107   7.573
42640SOL    HW129817   0.881   2.114   7.495
42640SOL    HW229818   1.013   2.057   7.544
42641SOL     OW29819   9.048   4.430   8.039
42641SOL    HW129820   9.059   4.486   8.116
42641SOL    HW229821   9.083   4.345   8.065
42642SOL     OW29822  12.032   3.182   4.292
42642SOL    HW129823  12.057   3.266   4.330
42642SOL    HW229824  12.109   3.127   4.303
42643SOL     OW29825   9.757   6.490  14.719
42643SOL    HW129826   9.732   6.440  14.797
42643SOL    HW229827   9.682   6.480  14.660
42644SOL     OW29828   0.984   2.876  10.052
42644SOL    HW129829   1.062   2.931  10.062
42644SOL    HW229830   0.911   2.938  10.045
42645SOL     OW29831   3.170   9.696   4.105
42645SOL    HW129832   3.084   9.692   4.145
42645SOL    HW229833   3.163   9.765   4.039
42646SOL     OW29834   2.237  13.764   9.275
42646SOL    HW129835   2.161  13.776   9.333
42646SOL    HW229836   2.204  13.708   9.205
42647SOL     OW29837   8.075   0.995   7.574
42647SOL    HW129838   8.088   1.036   7.659
42647SOL    HW229839   8.009   1.049   7.531
42648SOL     OW29840  13.425   8.151  14.590
42648SOL    HW129841  13.394   8.128  14.678
42648SOL    HW229842  13.385   8.084  14.533
42649SOL     OW29843   7.537   4.573   9.843
42649SOL    HW129844   7.594   4.503   9.813
42649SOL    HW229845   7.573   4.652   9.802
42650SOL     OW29846   4.592   4.560   9.834
42650SOL    HW129847   4.664   4.614   9.801
42650SOL    HW229848   4.601   4.565   9.929
42651SOL     OW29849   7.726  13.589   1.702
42651SOL    HW129850   7.705  13.502   1.735
42651SOL    HW229851   7.647  13.641   1.718
42652SOL     OW29852  13.870   7.357  12.579
42652SOL    HW129853  13.868   7.331  12.487
42652SOL    HW229854  13.867   7.274  12.627
42653SOL     OW29855  14.324   5.444  13.747
42653SOL    HW129856  14.376   5.516  13.710
42653SOL    HW229857  14.386   5.396  13.803
42654SOL     OW29858  11.702   7.335   2.161
42654SOL    HW129859  11.739   7.313   2.246
42654SOL    HW229860  11.613   7.365   2.180
42655SOL     OW29861   9.032   1.838   3.082
42655SOL    HW129862   8.994   1.778   3.147
42655SOL    HW229863   8.960   1.896   3.058
42656SOL     OW29864   2.490   8.565   3.786
42656SOL    HW129865   2.421   8.620   3.749
42656SOL    HW229866   2.570   8.615   3.774
42657SOL     OW29867  10.741   0.434  11.852
42657SOL    HW129868  10.744   0.430  11.947
42657SOL    HW229869  10.759   0.345  11.823
42658SOL     OW29870   2.164   2.725   7.699
42658SOL    HW129871   2.255   2.693   7.703
42658SOL    HW229872   2.138   2.733   7.791
42659SOL     OW29873  11.640   3.239  14.106
42659SOL    HW129874  11.569   3.184  14.072
42659SOL    HW229875  11.715   3.219  14.051
42660SOL     OW29876   2.334  13.370   7.996
42660SOL    HW129877   2.398  13.392   7.929
42660SOL    HW229878   2.337  13.443   8.058
42661SOL     OW29879   2.702   5.788   7.713
42661SOL    HW129880   2.790   5.824   7.709
42661SOL    HW229881   2.709   5.702   7.672
42662SOL     OW29882   6.986   8.709   3.709
42662SOL    HW129883   7.001   8.695   3.615
42662SOL    HW229884   6.920   8.778   3.713
42663SOL     OW29885   4.196   7.560  11.880
42663SOL    HW129886   4.187   7.651  11.908
42663SOL    HW229887   4.252   7.565  11.802
42664SOL     OW29888   3.502   8.697   4.245
42664SOL    HW129889   3.444   8.687   4.168
42664SOL    HW229890   3.445   8.677   4.320
42665SOL     OW29891   4.398   9.711   4.643
42665SOL    HW129892   4.449   9.760   4.578
42665SOL    HW229893   4.425   9.620   4.631
42666SOL     OW29894   3.086   7.586   7.330
42666SOL    HW129895   3.088   7.682   7.336
42666SOL    HW229896   3.148   7.566   7.259
42667SOL     OW29897   0.836   9.198   9.524
42667SOL    HW129898   0.931   9.209   9.527
42667SOL    HW229899   0.803   9.287   9.511
42668SOL     OW29900  10.614   8.991   9.308
42668SOL    HW129901  10.584   8.968   9.220
42668SOL    HW229902  10.709   8.980   9.304
42669SOL     OW29903  11.262   3.075   6.304
42669SOL    HW129904  11.285   3.104   6.216
42669SOL    HW229905  11.323   3.003   6.322
42670SOL     OW29906   3.217   9.547   5.075
42670SOL    HW129907   3.312   9.535   5.064
42670SOL    HW229908   3.207   9.568   5.168
42671SOL     OW29909   5.096   5.357  13.464
42671SOL    HW129910   5.133   5.305  13.535
42671SOL    HW229911   5.006   5.326  13.456
42672SOL     OW29912  11.428   9.317  11.098
42672SOL    HW129913  11.341   9.327  11.138
42672SOL    HW229914  11.470   9.402  11.112
42673SOL     OW29915   2.788  12.115   0.122
42673SOL    HW129916   2.760  12.025   0.140
42673SOL    HW229917   2.709  12.160   0.093
42674SOL     OW29918  13.357   9.386   1.827
42674SOL    HW129919  13.432   9.435   1.793
42674SOL    HW229920  13.298   9.454   1.861
42675SOL     OW29921   1.846  12.040   5.807
42675SOL    HW129922   1.865  12.093   5.729
42675SOL    HW229923   1.930  12.029   5.850
42676SOL     OW29924  13.513   4.758   8.217
42676SOL    HW129925  13.565   4.678   8.218
42676SOL    HW229926  13.425   4.730   8.243
42677SOL     OW29927   2.263   7.067  14.668
42677SOL    HW129928   2.243   7.052  14.576
42677SOL    HW229929   2.332   7.134  14.667
42678SOL     OW29930  11.760   5.267   8.186
42678SOL    HW129931  11.739   5.308   8.270
42678SOL    HW229932  11.688   5.206   8.171
42679SOL     OW29933   2.646   9.771  10.907
42679SOL    HW129934   2.609   9.684  10.894
42679SOL    HW229935   2.672   9.799  10.819
42680SOL     OW29936   7.209   2.918   7.467
42680SOL    HW129937   7.212   2.911   7.372
42680SOL    HW229938   7.195   2.828   7.498
42681SOL     OW29939   7.305   1.584  10.003
42681SOL    HW129940   7.326   1.529   9.927
42681SOL    HW229941   7.307   1.523  10.078
42682SOL     OW29942  12.688   9.965  10.810
42682SOL    HW129943  12.645   9.921  10.883
42682SOL    HW229944  12.689   9.900  10.740
42683SOL     OW29945  10.349   3.922  10.634
42683SOL    HW129946  10.344   3.830  10.660
42683SOL    HW229947  10.388   3.967  10.709
42684SOL     OW29948   5.558   4.963   8.471
42684SOL    HW129949   5.478   5.006   8.500
42684SOL    HW229950   5.569   4.889   8.530
42685SOL     OW29951   8.893   8.614  14.335
42685SOL    HW129952   8.904   8.527  14.374
42685SOL    HW229953   8.815   8.607  14.281
42686SOL     OW29954   2.049   5.387  14.789
42686SOL    HW129955   2.010   5.310  14.749
42686SOL    HW229956   1.975   5.433  14.829
42687SOL     OW29957   4.883  10.614   3.803
42687SOL    HW129958   4.870  10.548   3.870
42687SOL    HW229959   4.955  10.582   3.750
42688SOL     OW29960  10.501   4.849   0.758
42688SOL    HW129961  10.446   4.908   0.706
42688SOL    HW229962  10.490   4.763   0.718
42689SOL     OW29963   2.093   1.822  12.603
42689SOL    HW129964   2.014   1.869  12.629
42689SOL    HW229965   2.162   1.859  12.658
42690SOL     OW29966   4.659   3.256   8.773
42690SOL    HW129967   4.703   3.198   8.711
42690SOL    HW229968   4.728   3.283   8.834
42691SOL     OW29969  13.280   5.821   0.698
42691SOL    HW129970  13.260   5.912   0.675
42691SOL    HW229971  13.207   5.771   0.664
42692SOL     OW29972   4.413  14.149  11.333
42692SOL    HW129973   4.445  14.138  11.244
42692SOL    HW229974   4.330  14.101  11.335
42693SOL     OW29975   3.929  14.547   5.068
42693SOL    HW129976   3.985  14.568   4.993
42693SOL    HW229977   3.989  14.542   5.143
42694SOL     OW29978   0.299   6.823  12.581
42694SOL    HW129979   0.356   6.755  12.617
42694SOL    HW229980   0.213   6.782  12.578
42695SOL     OW29981   6.338  10.802  12.879
42695SOL    HW129982   6.293  10.872  12.928
42695SOL    HW229983   6.268  10.745  12.849
42696SOL     OW29984   1.490  10.991   5.491
42696SOL    HW129985   1.517  11.077   5.458
42696SOL    HW229986   1.550  10.929   5.450
42697SOL     OW29987  10.406   8.981  14.461
42697SOL    HW129988  10.465   8.970  14.387
42697SOL    HW229989  10.341   9.045  14.431
42698SOL     OW29990  10.974  13.860  14.585
42698SOL    HW129991  11.042  13.793  14.598
42698SOL    HW229992  11.019  13.930  14.538
42699SOL     OW29993   2.191  14.055  11.003
42699SOL    HW129994   2.117  14.089  11.054
42699SOL    HW229995   2.220  14.129  10.950
42700SOL     OW29996   9.419   3.509  13.860
42700SOL    HW129997   9.402   3.540  13.772
42700SOL    HW229998   9.370   3.427  13.867
42701SOL     OW29999   8.021   8.058   8.350
42701SOL    HW130000   8.058   8.048   8.262
42701SOL    HW230001   8.091   8.027   8.408
42702SOL     OW30002  10.999  12.265  13.695
42702SOL    HW130003  11.028  12.182  13.732
42702SOL    HW230004  10.912  12.279  13.732
42703SOL     OW30005  12.064   3.761  11.295
42703SOL    HW130006  12.071   3.835  11.354
42703SOL    HW230007  12.149   3.759  11.250
42704SOL     OW30008  14.879   7.463   7.583
42704SOL    HW130009   0.040   7.496   7.662
42704SOL    HW230010   0.056   7.488   7.511
42705SOL     OW30011  14.870   5.050   8.517
42705SOL    HW130012  14.813   4.997   8.572
42705SOL    HW230013  14.860   5.013   8.430
42706SOL     OW30014   5.008   6.605  10.867
42706SOL    HW130015   5.058   6.525  10.885
42706SOL    HW230016   5.048   6.672  10.922
42707SOL     OW30017   4.918   1.234   8.735
42707SOL    HW130018   4.911   1.293   8.660
42707SOL    HW230019   4.881   1.152   8.703
42708SOL     OW30020   2.009   3.818   9.498
42708SOL    HW130021   2.081   3.825   9.560
42708SOL    HW230022   1.994   3.908   9.469
42709SOL     OW30023   5.876   5.877   3.272
42709SOL    HW130024   5.825   5.931   3.333
42709SOL    HW230025   5.811   5.819   3.231
42710SOL     OW30026   0.745  13.713   5.023
42710SOL    HW130027   0.732  13.772   5.097
42710SOL    HW230028   0.728  13.768   4.946
42711SOL     OW30029  13.211  14.034   0.048
42711SOL    HW130030  13.129  14.003   0.010
42711SOL    HW230031  13.190  14.051   0.140
42712SOL     OW30032  11.692   5.141   5.003
42712SOL    HW130033  11.728   5.147   4.914
42712SOL    HW230034  11.720   5.054   5.034
42713SOL     OW30035   4.002  13.910  12.946
42713SOL    HW130036   3.938  13.962  12.897
42713SOL    HW230037   4.009  13.828  12.896
42714SOL     OW30038  10.591   0.576   6.009
42714SOL    HW130039  10.497   0.587   6.003
42714SOL    HW230040  10.620   0.643   6.072
42715SOL     OW30041  10.325   0.857   7.552
42715SOL    HW130042  10.338   0.817   7.638
42715SOL    HW230043  10.260   0.925   7.567
42716SOL     OW30044   0.091  10.985   0.762
42716SOL    HW130045   0.174  10.970   0.808
42716SOL    HW230046   0.090  10.920   0.692
42717SOL     OW30047   2.522  14.208  13.003
42717SOL    HW130048   2.564  14.261  13.071
42717SOL    HW230049   2.589  14.143  12.978
42718SOL     OW30050  14.730   6.145  11.278
42718SOL    HW130051  14.797   6.140  11.346
42718SOL    HW230052  14.660   6.087  11.309
42719SOL     OW30053   2.294  13.612  10.274
42719SOL    HW130054   2.327  13.634  10.187
42719SOL    HW230055   2.348  13.537  10.301
42720SOL     OW30056   6.742  10.645  14.262
42720SOL    HW130057   6.711  10.733  14.285
42720SOL    HW230058   6.766  10.605  14.345
42721SOL     OW30059   4.532   1.651  12.637
42721SOL    HW130060   4.503   1.743  12.642
42721SOL    HW230061   4.463   1.608  12.586
42722SOL     OW30062   7.247  14.049  14.392
42722SOL    HW130063   7.212  14.053  14.303
42722SOL    HW230064   7.293  13.966  14.397
42723SOL     OW30065   7.193   5.695  10.144
42723SOL    HW130066   7.159   5.606  10.130
42723SOL    HW230067   7.245   5.713  10.065
42724SOL     OW30068  12.628   1.316   1.353
42724SOL    HW130069  12.593   1.320   1.264
42724SOL    HW230070  12.671   1.401   1.366
42725SOL     OW30071  14.639   3.984   0.230
42725SOL    HW130072  14.696   3.952   0.160
42725SOL    HW230073  14.551   3.958   0.203
42726SOL     OW30074   6.523   7.162  10.849
42726SOL    HW130075   6.471   7.161  10.769
42726SOL    HW230076   6.612   7.182  10.819
42727SOL     OW30077   3.288  14.698   6.428
42727SOL    HW130078   3.264  14.790   6.417
42727SOL    HW230079   3.208  14.656   6.461
42728SOL     OW30080  10.046  12.902   6.165
42728SOL    HW130081  10.127  12.952   6.156
42728SOL    HW230082   9.979  12.958   6.125
42729SOL     OW30083  12.739   7.217   7.368
42729SOL    HW130084  12.696   7.186   7.289
42729SOL    HW230085  12.733   7.312   7.363
42730SOL     OW30086   1.995   7.653  13.397
42730SOL    HW130087   1.939   7.669  13.472
42730SOL    HW230088   2.020   7.740  13.366
42731SOL     OW30089   9.429  14.584   1.064
42731SOL    HW130090   9.404  14.670   1.032
42731SOL    HW230091   9.451  14.534   0.985
42732SOL     OW30092   7.936   9.562  13.242
42732SOL    HW130093   7.953   9.656  13.251
42732SOL    HW230094   8.009   9.530  13.189
42733SOL     OW30095  13.334  11.144   8.427
42733SOL    HW130096  13.313  11.225   8.474
42733SOL    HW230097  13.361  11.173   8.340
42734SOL     OW30098   6.151   3.315   8.410
42734SOL    HW130099   6.144   3.253   8.483
42734SOL    HW230100   6.087   3.283   8.346
42735SOL     OW30101   0.319   9.147  11.657
42735SOL    HW130102   0.333   9.240  11.671
42735SOL    HW230103   0.229   9.140  11.628
42736SOL     OW30104  10.350  10.038   4.819
42736SOL    HW130105  10.441  10.028   4.789
42736SOL    HW230106  10.344   9.983   4.897
42737SOL     OW30107   8.446  13.740   1.298
42737SOL    HW130108   8.360  13.759   1.260
42737SOL    HW230109   8.490  13.687   1.231
42738SOL     OW30110   0.601   4.771  10.999
42738SOL    HW130111   0.643   4.812  11.075
42738SOL    HW230112   0.641   4.685  10.992
42739SOL     OW30113   0.298   2.039   6.193
42739SOL    HW130114   0.382   2.067   6.156
42739SOL    HW230115   0.301   2.067   6.284
42740SOL     OW30116   2.141   9.766   1.046
42740SOL    HW130117   2.106   9.685   1.083
42740SOL    HW230118   2.065   9.807   1.003
42741SOL     OW30119   1.067   5.680   1.032
42741SOL    HW130120   1.101   5.621   0.965
42741SOL    HW230121   0.973   5.663   1.032
42742SOL     OW30122   8.785   6.398  10.859
42742SOL    HW130123   8.865   6.426  10.905
42742SOL    HW230124   8.783   6.304  10.871
42743SOL     OW30125   3.603   6.482   0.399
42743SOL    HW130126   3.565   6.570   0.402
42743SOL    HW230127   3.593   6.454   0.309
42744SOL     OW30128   9.801   5.728  13.997
42744SOL    HW130129   9.876   5.778  13.966
42744SOL    HW230130   9.779   5.766  14.082
42745SOL     OW30131   0.366   2.106  11.014
42745SOL    HW130132   0.450   2.082  10.976
42745SOL    HW230133   0.322   2.158  10.946
42746SOL     OW30134   1.798   5.697   5.533
42746SOL    HW130135   1.848   5.770   5.497
42746SOL    HW230136   1.808   5.706   5.628
42747SOL     OW30137   4.091   4.959   1.938
42747SOL    HW130138   4.081   4.930   2.029
42747SOL    HW230139   4.042   4.895   1.887
42748SOL     OW30140   0.646  12.342   1.089
42748SOL    HW130141   0.701  12.272   1.053
42748SOL    HW230142   0.700  12.384   1.156
42749SOL     OW30143  12.804   7.394   4.541
42749SOL    HW130144  12.881   7.400   4.485
42749SOL    HW230145  12.744   7.461   4.508
42750SOL     OW30146  14.145   2.630   6.542
42750SOL    HW130147  14.065   2.669   6.505
42750SOL    HW230148  14.136   2.536   6.522
42751SOL     OW30149   8.743   8.066  12.362
42751SOL    HW130150   8.816   8.022  12.406
42751SOL    HW230151   8.670   8.060  12.424
42752SOL     OW30152   1.692   8.387   2.312
42752SOL    HW130153   1.698   8.470   2.361
42752SOL    HW230154   1.781   8.351   2.317
42753SOL     OW30155   0.028   3.122  13.287
42753SOL    HW130156   0.023   3.049  13.225
42753SOL    HW230157   0.030   3.200  13.233
42754SOL     OW30158   5.403  10.943  10.681
42754SOL    HW130159   5.324  10.905  10.644
42754SOL    HW230160   5.452  10.977  10.606
42755SOL     OW30161  11.513  10.232   7.389
42755SOL    HW130162  11.592  10.185   7.413
42755SOL    HW230163  11.445  10.164   7.385
42756SOL     OW30164   0.776   9.640   0.728
42756SOL    HW130165   0.822   9.723   0.722
42756SOL    HW230166   0.752   9.620   0.637
42757SOL     OW30167  12.678   9.623   0.945
42757SOL    HW130168  12.626   9.544   0.928
42757SOL    HW230169  12.622   9.678   1.000
42758SOL     OW30170  14.355   1.829   8.529
42758SOL    HW130171  14.382   1.761   8.467
42758SOL    HW230172  14.436   1.857   8.570
42759SOL     OW30173  12.004   4.727   2.639
42759SOL    HW130174  12.054   4.807   2.654
42759SOL    HW230175  11.928   4.735   2.696
42760SOL     OW30176   4.409   0.652   7.463
42760SOL    HW130177   4.471   0.671   7.534
42760SOL    HW230178   4.455   0.587   7.408
42761SOL     OW30179   2.314   4.090   4.437
42761SOL    HW130180   2.321   4.185   4.425
42761SOL    HW230181   2.360   4.072   4.519
42762SOL     OW30182   1.400   6.962  12.476
42762SOL    HW130183   1.325   7.021  12.488
42762SOL    HW230184   1.470   7.019  12.446
42763SOL     OW30185   7.836   0.473   9.990
42763SOL    HW130186   7.811   0.463  10.082
42763SOL    HW230187   7.801   0.559   9.965
42764SOL     OW30188   7.928   8.049  12.188
42764SOL    HW130189   7.945   8.141  12.172
42764SOL    HW230190   7.836   8.045  12.216
42765SOL     OW30191   4.374   5.022  12.253
42765SOL    HW130192   4.385   5.051  12.162
42765SOL    HW230193   4.452   5.055  12.297
42766SOL     OW30194  11.793   8.820   6.278
42766SOL    HW130195  11.848   8.870   6.217
42766SOL    HW230196  11.848   8.809   6.355
42767SOL     OW30197   0.088   8.679   6.735
42767SOL    HW130198   0.009   8.696   6.685
42767SOL    HW230199   0.139   8.619   6.681
42768SOL     OW30200   2.575   5.030  11.597
42768SOL    HW130201   2.668   5.056  11.600
42768SOL    HW230202   2.575   4.938  11.622
42769SOL     OW30203  12.690   4.609  14.794
42769SOL    HW130204  12.645   4.689  14.822
42769SOL    HW230205  12.732   4.633  14.712
42770SOL     OW30206   8.800   2.972   6.417
42770SOL    HW130207   8.885   2.928   6.404
42770SOL    HW230208   8.805   3.007   6.506
42771SOL     OW30209   7.683  13.610   3.762
42771SOL    HW130210   7.620  13.662   3.711
42771SOL    HW230211   7.663  13.519   3.739
42772SOL     OW30212  10.402  12.146   8.287
42772SOL    HW130213  10.309  12.162   8.306
42772SOL    HW230214  10.446  12.161   8.370
42773SOL     OW30215   5.179   6.197  14.832
42773SOL    HW130216   5.142   6.141   0.018
42773SOL    HW230217   5.133   6.280  14.842
42774SOL     OW30218   9.132  10.006  13.464
42774SOL    HW130219   9.221  10.023  13.436
42774SOL    HW230220   9.077  10.056  13.403
42775SOL     OW30221   4.032  12.624   0.182
42775SOL    HW130222   4.002  12.648   0.269
42775SOL    HW230223   4.128  12.624   0.189
42776SOL     OW30224   8.135  14.693  11.445
42776SOL    HW130225   8.198  14.724  11.380
42776SOL    HW230226   8.100  14.773  11.485
42777SOL     OW30227  12.273   6.055   9.082
42777SOL    HW130228  12.268   6.148   9.061
42777SOL    HW230229  12.196   6.040   9.138
42778SOL     OW30230  13.704  10.187   8.397
42778SOL    HW130231  13.699  10.092   8.405
42778SOL    HW230232  13.797  10.206   8.389
42779SOL     OW30233   0.041   4.724   3.386
42779SOL    HW130234   0.053   4.662   3.315
42779SOL    HW230235   0.086   4.804   3.356
42780SOL     OW30236  10.524   6.969   4.052
42780SOL    HW130237  10.604   7.022   4.052
42780SOL    HW230238  10.539   6.903   4.119
42781SOL     OW30239   1.860   6.715   6.241
42781SOL    HW130240   1.913   6.741   6.165
42781SOL    HW230241   1.833   6.625   6.222
42782SOL     OW30242   8.127   2.223  14.644
42782SOL    HW130243   8.098   2.171  14.569
42782SOL    HW230244   8.206   2.178  14.675
42783SOL     OW30245   4.075   1.366   4.768
42783SOL    HW130246   4.106   1.293   4.822
42783SOL    HW230247   4.018   1.417   4.827
42784SOL     OW30248   6.689   7.323   7.913
42784SOL    HW130249   6.726   7.284   7.992
42784SOL    HW230250   6.595   7.308   7.920
42785SOL     OW30251   3.792   5.235   8.844
42785SOL    HW130252   3.883   5.249   8.816
42785SOL    HW230253   3.770   5.148   8.810
42786SOL     OW30254   9.474   9.777  12.351
42786SOL    HW130255   9.570   9.780  12.352
42786SOL    HW230256   9.448   9.795  12.441
42787SOL     OW30257  11.176   1.171   1.798
42787SOL    HW130258  11.190   1.231   1.726
42787SOL    HW230259  11.184   1.084   1.759
42788SOL     OW30260   4.976   4.728   7.170
42788SOL    HW130261   5.065   4.717   7.137
42788SOL    HW230262   4.986   4.784   7.247
42789SOL     OW30263   3.321  12.949   1.867
42789SOL    HW130264   3.282  12.871   1.827
42789SOL    HW230265   3.371  12.916   1.941
42790SOL     OW30266  11.842  13.191   2.827
42790SOL    HW130267  11.780  13.140   2.775
42790SOL    HW230268  11.878  13.256   2.765
42791SOL     OW30269   4.505   8.778  10.880
42791SOL    HW130270   4.415   8.750  10.865
42791SOL    HW230271   4.497   8.868  10.912
42792SOL     OW30272   0.526  10.187  10.532
42792SOL    HW130273   0.466  10.124  10.574
42792SOL    HW230274   0.515  10.267  10.583
42793SOL     OW30275  11.658  12.424   9.258
42793SOL    HW130276  11.645  12.449   9.350
42793SOL    HW230277  11.678  12.331   9.261
42794SOL     OW30278   1.401  12.497   3.609
42794SOL    HW130279   1.352  12.493   3.527
42794SOL    HW230280   1.480  12.445   3.592
42795SOL     OW30281  14.467  13.945   9.447
42795SOL    HW130282  14.447  14.037   9.429
42795SOL    HW230283  14.444  13.932   9.539
42796SOL     OW30284   1.271  11.172   7.179
42796SOL    HW130285   1.212  11.117   7.230
42796SOL    HW230286   1.221  11.195   7.100
42797SOL     OW30287   4.406   0.819   1.153
42797SOL    HW130288   4.493   0.848   1.123
42797SOL    HW230289   4.420   0.728   1.181
42798SOL     OW30290   1.007   9.051  10.300
42798SOL    HW130291   0.999   9.054  10.204
42798SOL    HW230292   0.958   9.128  10.330
42799SOL     OW30293   0.815  11.382   4.275
42799SOL    HW130294   0.802  11.387   4.370
42799SOL    HW230295   0.736  11.338   4.242
42800SOL     OW30296  13.171  11.593   3.975
42800SOL    HW130297  13.088  11.616   3.934
42800SOL    HW230298  13.194  11.508   3.937
42801SOL     OW30299   9.798   1.287   3.137
42801SOL    HW130300   9.716   1.287   3.188
42801SOL    HW230301   9.863   1.325   3.195
42802SOL     OW30302   2.152   8.175  11.785
42802SOL    HW130303   2.157   8.124  11.866
42802SOL    HW230304   2.203   8.124  11.722
42803SOL     OW30305   1.318   6.236  12.992
42803SOL    HW130306   1.304   6.288  12.913
42803SOL    HW230307   1.243   6.176  12.994
42804SOL     OW30308  14.854   4.255   6.313
42804SOL    HW130309  14.877   4.285   6.401
42804SOL    HW230310  14.784   4.191   6.327
42805SOL     OW30311   0.823  14.493   7.563
42805SOL    HW130312   0.858  14.450   7.641
42805SOL    HW230313   0.855  14.583   7.569
42806SOL     OW30314   3.548   3.597   2.225
42806SOL    HW130315   3.564   3.590   2.131
42806SOL    HW230316   3.634   3.586   2.265
42807SOL     OW30317   8.384   0.950   0.673
42807SOL    HW130318   8.448   0.984   0.736
42807SOL    HW230319   8.409   0.989   0.590
42808SOL     OW30320  11.002   3.539   9.226
42808SOL    HW130321  11.059   3.536   9.303
42808SOL    HW230322  10.926   3.590   9.254
42809SOL     OW30323   4.186   5.014   0.649
42809SOL    HW130324   4.167   4.962   0.727
42809SOL    HW230325   4.137   4.971   0.579
42810SOL     OW30326  14.153   9.388   2.358
42810SOL    HW130327  14.158   9.479   2.329
42810SOL    HW230328  14.084   9.350   2.304
42811SOL     OW30329   1.502   1.764   9.250
42811SOL    HW130330   1.514   1.813   9.168
42811SOL    HW230331   1.460   1.683   9.223
42812SOL     OW30332   8.526  13.267  13.315
42812SOL    HW130333   8.607  13.269  13.264
42812SOL    HW230334   8.456  13.280  13.250
42813SOL     OW30335   7.373   0.263  13.346
42813SOL    HW130336   7.309   0.192  13.359
42813SOL    HW230337   7.320   0.342  13.339
42814SOL     OW30338   3.263   2.294   5.869
42814SOL    HW130339   3.186   2.291   5.926
42814SOL    HW230340   3.320   2.225   5.902
42815SOL     OW30341   5.147   9.622  10.525
42815SOL    HW130342   5.241   9.628  10.508
42815SOL    HW230343   5.140   9.591  10.615
42816SOL     OW30344   2.437   4.148  10.260
42816SOL    HW130345   2.493   4.190  10.325
42816SOL    HW230346   2.449   4.054  10.274
42817SOL     OW30347  13.289   0.955   4.466
42817SOL    HW130348  13.282   0.916   4.379
42817SOL    HW230349  13.347   1.031   4.454
42818SOL     OW30350  12.732   7.201   3.847
42818SOL    HW130351  12.723   7.107   3.831
42818SOL    HW230352  12.690   7.215   3.931
42819SOL     OW30353  13.449   6.627   8.436
42819SOL    HW130354  13.437   6.559   8.369
42819SOL    HW230355  13.406   6.592   8.514
42820SOL     OW30356  10.244   6.474   5.496
42820SOL    HW130357  10.201   6.533   5.557
42820SOL    HW230358  10.177   6.452   5.431
42821SOL     OW30359   6.989   8.900   2.819
42821SOL    HW130360   6.922   8.902   2.887
42821SOL    HW230361   7.044   8.976   2.837
42822SOL     OW30362  13.662  12.038   2.652
42822SOL    HW130363  13.725  12.109   2.643
42822SOL    HW230364  13.634  12.042   2.744
42823SOL     OW30365   1.182   4.968  13.611
42823SOL    HW130366   1.090   4.971  13.588
42823SOL    HW230367   1.216   5.055  13.587
42824SOL     OW30368  10.359  10.557   0.943
42824SOL    HW130369  10.421  10.491   0.975
42824SOL    HW230370  10.283  10.549   1.001
42825SOL     OW30371   6.810  14.213   1.085
42825SOL    HW130372   6.846  14.181   1.003
42825SOL    HW230373   6.863  14.290   1.107
42826SOL     OW30374  13.785   8.940   5.287
42826SOL    HW130375  13.873   8.928   5.323
42826SOL    HW230376  13.727   8.904   5.354
42827SOL     OW30377   2.445   2.401   8.234
42827SOL    HW130378   2.499   2.350   8.295
42827SOL    HW230379   2.435   2.486   8.277
42828SOL     OW30380  10.611   6.171   7.462
42828SOL    HW130381  10.615   6.124   7.546
42828SOL    HW230382  10.602   6.102   7.397
42829SOL     OW30383   7.866   9.053  10.128
42829SOL    HW130384   7.820   9.057  10.045
42829SOL    HW230385   7.927   9.126  10.125
42830SOL     OW30386   4.207  14.380  14.816
42830SOL    HW130387   4.210  14.467  14.855
42830SOL    HW230388   4.286  14.375  14.762
42831SOL     OW30389   5.695  11.993   0.211
42831SOL    HW130390   5.746  12.065   0.247
42831SOL    HW230391   5.666  12.024   0.125
42832SOL     OW30392   0.167   1.862   3.375
42832SOL    HW130393   0.211   1.947   3.366
42832SOL    HW230394   0.078   1.879   3.344
42833SOL     OW30395   0.732   3.898   1.912
42833SOL    HW130396   0.668   3.957   1.871
42833SOL    HW230397   0.733   3.925   2.004
42834SOL     OW30398   4.857   8.480  10.815
42834SOL    HW130399   4.933   8.466  10.758
42834SOL    HW230400   4.796   8.530  10.761
42835SOL     OW30401   5.356   3.529   4.396
42835SOL    HW130402   5.337   3.573   4.313
42835SOL    HW230403   5.388   3.599   4.453
42836SOL     OW30404  13.242  12.240  10.048
42836SOL    HW130405  13.278  12.187  10.119
42836SOL    HW230406  13.178  12.297  10.091
42837SOL     OW30407   2.444  14.171   5.547
42837SOL    HW130408   2.473  14.081   5.536
42837SOL    HW230409   2.517  14.224   5.513
42838SOL     OW30410   3.452   7.666  11.357
42838SOL    HW130411   3.365   7.694  11.328
42838SOL    HW230412   3.487   7.616  11.283
42839SOL     OW30413   7.873   0.133   8.619
42839SOL    HW130414   7.958   0.165   8.649
42839SOL    HW230415   7.809   0.189   8.664
42840SOL     OW30416   3.009   7.624  11.436
42840SOL    HW130417   3.061   7.544  11.443
42840SOL    HW230418   3.043   7.681  11.506
42841SOL     OW30419   8.894  12.475   3.782
42841SOL    HW130420   8.964  12.434   3.730
42841SOL    HW230421   8.825  12.408   3.786
42842SOL     OW30422   3.113  13.878   5.741
42842SOL    HW130423   3.172  13.879   5.665
42842SOL    HW230424   3.049  13.946   5.723
42843SOL     OW30425   9.974   9.548  13.026
42843SOL    HW130426   9.954   9.460  13.059
42843SOL    HW230427   9.953   9.544  12.933
42844SOL     OW30428   2.417   8.713   5.913
42844SOL    HW130429   2.364   8.661   5.974
42844SOL    HW230430   2.380   8.694   5.827
42845SOL     OW30431   8.370   1.429   8.628
42845SOL    HW130432   8.352   1.394   8.715
42845SOL    HW230433   8.406   1.355   8.579
42846SOL     OW30434   7.827  12.989   0.195
42846SOL    HW130435   7.781  12.909   0.174
42846SOL    HW230436   7.919  12.963   0.204
42847SOL     OW30437   1.738   7.444   1.998
42847SOL    HW130438   1.646   7.460   2.018
42847SOL    HW230439   1.752   7.352   2.022
42848SOL     OW30440   9.562   4.390   1.219
42848SOL    HW130441   9.519   4.351   1.295
42848SOL    HW230442   9.566   4.484   1.238
42849SOL     OW30443  11.848   5.904   0.579
42849SOL    HW130444  11.881   5.975   0.524
42849SOL    HW230445  11.829   5.945   0.663
42850SOL     OW30446  14.484  10.925   2.756
42850SOL    HW130447  14.531  10.887   2.682
42850SOL    HW230448  14.499  11.019   2.749
42851SOL     OW30449   9.227   7.685  12.240
42851SOL    HW130450   9.152   7.723  12.194
42851SOL    HW230451   9.228   7.593  12.213
42852SOL     OW30452  12.324  14.111   4.809
42852SOL    HW130453  12.272  14.078   4.882
42852SOL    HW230454  12.378  14.180   4.847
42853SOL     OW30455   9.995  11.315   6.776
42853SOL    HW130456  10.078  11.282   6.810
42853SOL    HW230457   9.978  11.262   6.699
42854SOL     OW30458   1.424   1.637   2.496
42854SOL    HW130459   1.496   1.694   2.524
42854SOL    HW230460   1.460   1.588   2.422
42855SOL     OW30461   2.784  14.188   1.985
42855SOL    HW130462   2.737  14.104   1.982
42855SOL    HW230463   2.855  14.178   1.922
42856SOL     OW30464   0.544   9.032   7.181
42856SOL    HW130465   0.471   9.068   7.131
42856SOL    HW230466   0.504   8.983   7.253
42857SOL     OW30467   9.994   8.034   1.872
42857SOL    HW130468  10.050   8.004   1.801
42857SOL    HW230469   9.967   8.122   1.847
42858SOL     OW30470   7.417   9.824   1.460
42858SOL    HW130471   7.421   9.893   1.393
42858SOL    HW230472   7.480   9.852   1.527
42859SOL     OW30473   2.740   7.052   2.933
42859SOL    HW130474   2.739   6.991   3.007
42859SOL    HW230475   2.822   7.034   2.888
42860SOL     OW30476   5.637   5.201  14.787
42860SOL    HW130477   5.650   5.242  14.873
42860SOL    HW230478   5.687   5.257  14.727
42861SOL     OW30479   1.114  14.517  13.020
42861SOL    HW130480   1.077  14.431  13.037
42861SOL    HW230481   1.038  14.574  13.010
42862SOL     OW30482   3.681   2.075   5.806
42862SOL    HW130483   3.728   2.096   5.887
42862SOL    HW230484   3.588   2.079   5.830
42863SOL     OW30485   8.689  13.116  10.311
42863SOL    HW130486   8.722  13.062  10.383
42863SOL    HW230487   8.708  13.064  10.232
42864SOL     OW30488   7.196   1.627   3.092
42864SOL    HW130489   7.188   1.554   3.031
42864SOL    HW230490   7.202   1.705   3.036
42865SOL     OW30491   9.812   1.605   9.499
42865SOL    HW130492   9.838   1.613   9.591
42865SOL    HW230493   9.723   1.640   9.497
42866SOL     OW30494  12.348   2.110   5.320
42866SOL    HW130495  12.440   2.083   5.326
42866SOL    HW230496  12.352   2.206   5.314
42867SOL     OW30497   0.986   3.242   6.274
42867SOL    HW130498   1.056   3.186   6.241
42867SOL    HW230499   0.988   3.232   6.369
42868SOL     OW30500   6.473   5.743   7.132
42868SOL    HW130501   6.452   5.791   7.212
42868SOL    HW230502   6.547   5.789   7.094
42869SOL     OW30503   5.932  13.419  14.800
42869SOL    HW130504   5.871  13.466  14.743
42869SOL    HW230505   6.012  13.411  14.748
42870SOL     OW30506  13.069   4.545  14.308
42870SOL    HW130507  13.158   4.518  14.285
42870SOL    HW230508  13.050   4.498  14.390
42871SOL     OW30509  10.738   3.132   3.682
42871SOL    HW130510  10.704   3.156   3.595
42871SOL    HW230511  10.819   3.182   3.690
42872SOL     OW30512  12.154   2.807  10.159
42872SOL    HW130513  12.207   2.733  10.129
42872SOL    HW230514  12.215   2.864  10.206
42873SOL     OW30515   3.054  13.319   0.905
42873SOL    HW130516   3.136  13.282   0.937
42873SOL    HW230517   2.990  13.298   0.973
42874SOL     OW30518   0.725  13.897   8.157
42874SOL    HW130519   0.685  13.812   8.173
42874SOL    HW230520   0.724  13.906   8.062
42875SOL     OW30521   7.817  12.248   6.689
42875SOL    HW130522   7.884  12.314   6.706
42875SOL    HW230523   7.759  12.253   6.765
42876SOL     OW30524   2.346  12.865   9.061
42876SOL    HW130525   2.396  12.938   9.096
42876SOL    HW230526   2.292  12.836   9.135
42877SOL     OW30527  11.624  12.675   2.553
42877SOL    HW130528  11.579  12.595   2.581
42877SOL    HW230529  11.603  12.739   2.621
42878SOL     OW30530   1.203   7.279   4.643
42878SOL    HW130531   1.191   7.272   4.548
42878SOL    HW230532   1.289   7.320   4.653
42879SOL     OW30533   5.608   6.743  12.076
42879SOL    HW130534   5.557   6.681  12.024
42879SOL    HW230535   5.543   6.785  12.132
42880SOL     OW30536  12.104   2.929  10.525
42880SOL    HW130537  12.044   2.985  10.477
42880SOL    HW230538  12.089   2.950  10.617
42881SOL     OW30539   3.243   2.109  10.874
42881SOL    HW130540   3.185   2.143  10.805
42881SOL    HW230541   3.188   2.048  10.923
42882SOL     OW30542   0.307   7.412   5.900
42882SOL    HW130543   0.332   7.370   5.982
42882SOL    HW230544   0.297   7.341   5.838
42883SOL     OW30545   9.599  11.927   8.744
42883SOL    HW130546   9.578  11.862   8.677
42883SOL    HW230547   9.685  11.900   8.776
42884SOL     OW30548   6.396   6.952  12.295
42884SOL    HW130549   6.316   6.956  12.243
42884SOL    HW230550   6.467   6.961  12.232
42885SOL     OW30551   3.223   9.285   2.568
42885SOL    HW130552   3.293   9.338   2.530
42885SOL    HW230553   3.148   9.344   2.571
42886SOL     OW30554  13.172   2.598  11.577
42886SOL    HW130555  13.179   2.558  11.490
42886SOL    HW230556  13.107   2.668  11.566
42887SOL     OW30557  11.796   9.595   0.193
42887SOL    HW130558  11.726   9.601   0.258
42887SOL    HW230559  11.872   9.566   0.244
42888SOL     OW30560   6.706  10.113  13.158
42888SOL    HW130561   6.685  10.039  13.100
42888SOL    HW230562   6.801  10.122  13.151
42889SOL     OW30563   6.178   1.797   8.545
42889SOL    HW130564   6.197   1.745   8.624
42889SOL    HW230565   6.083   1.791   8.535
42890SOL     OW30566   7.435   6.310   2.076
42890SOL    HW130567   7.379   6.297   2.000
42890SOL    HW230568   7.419   6.233   2.131
42891SOL     OW30569   5.565  11.208   9.088
42891SOL    HW130570   5.506  11.166   9.025
42891SOL    HW230571   5.512  11.276   9.129
42892SOL     OW30572   2.204  11.110   1.863
42892SOL    HW130573   2.212  11.201   1.892
42892SOL    HW230574   2.280  11.096   1.806
42893SOL     OW30575   8.783   4.618   4.502
42893SOL    HW130576   8.829   4.555   4.558
42893SOL    HW230577   8.775   4.573   4.417
42894SOL     OW30578   8.359   3.758   0.255
42894SOL    HW130579   8.316   3.699   0.194
42894SOL    HW230580   8.445   3.719   0.269
42895SOL     OW30581   8.986   2.788   1.705
42895SOL    HW130582   9.001   2.774   1.611
42895SOL    HW230583   9.007   2.704   1.745
42896SOL     OW30584  10.425  11.769  14.172
42896SOL    HW130585  10.334  11.756  14.146
42896SOL    HW230586  10.462  11.681  14.176
42897SOL     OW30587  11.013   9.610   6.700
42897SOL    HW130588  10.945   9.546   6.680
42897SOL    HW230589  11.082   9.592   6.636
42898SOL     OW30590   9.226   8.573  13.780
42898SOL    HW130591   9.198   8.511  13.713
42898SOL    HW230592   9.286   8.632  13.736
42899SOL     OW30593   1.493   5.388   1.038
42899SOL    HW130594   1.466   5.382   0.947
42899SOL    HW230595   1.510   5.481   1.052
42900SOL     OW30596   5.364  10.987   4.435
42900SOL    HW130597   5.344  10.899   4.403
42900SOL    HW230598   5.322  11.046   4.373
42901SOL     OW30599  11.114   7.168   0.754
42901SOL    HW130600  11.095   7.126   0.838
42901SOL    HW230601  11.160   7.249   0.779
42902SOL     OW30602   2.815  13.134   6.871
42902SOL    HW130603   2.823  13.039   6.875
42902SOL    HW230604   2.788  13.160   6.959
42903SOL     OW30605   6.639  10.976   3.806
42903SOL    HW130606   6.668  10.888   3.783
42903SOL    HW230607   6.605  11.013   3.724
42904SOL     OW30608  13.874  10.282   1.856
42904SOL    HW130609  13.841  10.311   1.941
42904SOL    HW230610  13.868  10.360   1.801
42905SOL     OW30611   9.249   0.600   4.210
42905SOL    HW130612   9.192   0.524   4.203
42905SOL    HW230613   9.305   0.596   4.133
42906SOL     OW30614   2.351   7.294  13.720
42906SOL    HW130615   2.317   7.380  13.699
42906SOL    HW230616   2.290   7.233  13.678
42907SOL     OW30617  14.414   6.401   8.356
42907SOL    HW130618  14.497   6.448   8.361
42907SOL    HW230619  14.351   6.467   8.328
42908SOL     OW30620  12.066   3.312   2.717
42908SOL    HW130621  12.058   3.355   2.632
42908SOL    HW230622  12.146   3.260   2.710
42909SOL     OW30623   9.676  12.880   5.724
42909SOL    HW130624   9.681  12.974   5.744
42909SOL    HW230625   9.765  12.848   5.735
42910SOL     OW30626   9.456   9.824   8.574
42910SOL    HW130627   9.475   9.893   8.637
42910SOL    HW230628   9.522   9.836   8.505
42911SOL     OW30629  13.458   3.953  13.560
42911SOL    HW130630  13.452   3.881  13.497
42911SOL    HW230631  13.380   3.944  13.614
42912SOL     OW30632   4.480   3.341   8.957
42912SOL    HW130633   4.527   3.317   8.877
42912SOL    HW230634   4.400   3.382   8.926
42913SOL     OW30635   6.344  11.172   5.243
42913SOL    HW130636   6.342  11.091   5.293
42913SOL    HW230637   6.349  11.144   5.152
42914SOL     OW30638  13.254   3.983  13.749
42914SOL    HW130639  13.175   4.013  13.705
42914SOL    HW230640  13.277   4.054  13.809
42915SOL     OW30641  10.226   5.096  10.405
42915SOL    HW130642  10.192   5.178  10.441
42915SOL    HW230643  10.271   5.122  10.324
42916SOL     OW30644  10.236   2.452  14.871
42916SOL    HW130645  10.242   2.385  14.803
42916SOL    HW230646  10.291   2.419   0.060
42917SOL     OW30647  10.268   1.468   1.753
42917SOL    HW130648  10.206   1.443   1.821
42917SOL    HW230649  10.354   1.454   1.792
42918SOL     OW30650   4.528   6.156  14.582
42918SOL    HW130651   4.568   6.068  14.583
42918SOL    HW230652   4.603   6.216  14.585
42919SOL     OW30653   5.413  10.051  13.248
42919SOL    HW130654   5.401  10.112  13.320
42919SOL    HW230655   5.337  10.064  13.192
42920SOL     OW30656   5.217  10.300   0.902
42920SOL    HW130657   5.219  10.390   0.933
42920SOL    HW230658   5.300  10.262   0.931
42921SOL     OW30659  11.097   0.061   0.410
42921SOL    HW130660  11.101  14.866   0.354
42921SOL    HW230661  11.132   0.032   0.494
42922SOL     OW30662   1.509  14.141   8.238
42922SOL    HW130663   1.421  14.150   8.273
42922SOL    HW230664   1.517  14.049   8.216
42923SOL     OW30665   1.841   3.316   7.086
42923SOL    HW130666   1.820   3.256   7.015
42923SOL    HW230667   1.795   3.281   7.162
42924SOL     OW30668   6.344   2.962   9.646
42924SOL    HW130669   6.332   3.027   9.714
42924SOL    HW230670   6.395   2.892   9.688
42925SOL     OW30671   9.471   9.641  11.535
42925SOL    HW130672   9.545   9.622  11.478
42925SOL    HW230673   9.422   9.559  11.539
42926SOL     OW30674   2.517   8.046   6.855
42926SOL    HW130675   2.487   8.091   6.934
42926SOL    HW230676   2.468   7.964   6.854
42927SOL     OW30677   7.149  14.657   8.081
42927SOL    HW130678   7.188  14.738   8.049
42927SOL    HW230679   7.179  14.650   8.172
42928SOL     OW30680   2.687  13.025   9.116
42928SOL    HW130681   2.602  13.064   9.137
42928SOL    HW230682   2.693  13.032   9.021
42929SOL     OW30683   0.570   9.546   4.733
42929SOL    HW130684   0.490   9.557   4.681
42929SOL    HW230685   0.638   9.524   4.668
42930SOL     OW30686   9.031   9.498   9.377
42930SOL    HW130687   8.948   9.468   9.413
42930SOL    HW230688   9.018   9.496   9.282
42931SOL     OW30689  12.432  12.226   0.580
42931SOL    HW130690  12.338  12.226   0.601
42931SOL    HW230691  12.462  12.139   0.604
42932SOL     OW30692   0.166   3.495   2.148
42932SOL    HW130693   0.124   3.555   2.086
42932SOL    HW230694   0.256   3.487   2.115
42933SOL     OW30695   2.962   2.907   5.535
42933SOL    HW130696   2.877   2.944   5.560
42933SOL    HW230697   2.960   2.905   5.440
42934SOL     OW30698   5.339   1.109   3.889
42934SOL    HW130699   5.290   1.028   3.876
42934SOL    HW230700   5.279   1.166   3.937
42935SOL     OW30701  11.568   0.907   6.112
42935SOL    HW130702  11.532   0.990   6.144
42935SOL    HW230703  11.498   0.870   6.058
42936SOL     OW30704   5.194   2.889  13.626
42936SOL    HW130705   5.194   2.855  13.536
42936SOL    HW230706   5.264   2.954  13.628
42937SOL     OW30707  11.177   8.960  10.422
42937SOL    HW130708  11.089   8.997  10.426
42937SOL    HW230709  11.188   8.936  10.330
42938SOL     OW30710   1.542  11.978   4.371
42938SOL    HW130711   1.579  12.017   4.292
42938SOL    HW230712   1.504  12.052   4.419
42939SOL     OW30713   0.522   3.158  10.909
42939SOL    HW130714   0.529   3.236  10.963
42939SOL    HW230715   0.481   3.093  10.966
42940SOL     OW30716   5.768  13.799   7.474
42940SOL    HW130717   5.829  13.854   7.523
42940SOL    HW230718   5.823  13.748   7.415
42941SOL     OW30719   9.683  11.019   1.277
42941SOL    HW130720   9.655  11.103   1.312
42941SOL    HW230721   9.648  11.018   1.188
42942SOL     OW30722  11.603   3.483   1.114
42942SOL    HW130723  11.556   3.558   1.077
42942SOL    HW230724  11.675   3.467   1.053
42943SOL     OW30725  13.943   9.298   5.981
42943SOL    HW130726  13.976   9.366   5.923
42943SOL    HW230727  14.016   9.278   6.040
42944SOL     OW30728  10.895   9.382   5.299
42944SOL    HW130729  10.982   9.421   5.305
42944SOL    HW230730  10.835   9.457   5.301
42945SOL     OW30731  14.135   9.516   0.573
42945SOL    HW130732  14.109   9.520   0.481
42945SOL    HW230733  14.054   9.498   0.620
42946SOL     OW30734  10.614  13.430   6.134
42946SOL    HW130735  10.609  13.438   6.039
42946SOL    HW230736  10.535  13.381   6.157
42947SOL     OW30737   8.730  11.060   8.438
42947SOL    HW130738   8.739  11.133   8.378
42947SOL    HW230739   8.789  11.080   8.510
42948SOL     OW30740   7.547   2.781   6.826
42948SOL    HW130741   7.469   2.830   6.855
42948SOL    HW230742   7.523   2.689   6.839
42949SOL     OW30743   4.282  12.892   6.980
42949SOL    HW130744   4.322  12.806   6.975
42949SOL    HW230745   4.225  12.888   7.057
42950SOL     OW30746   0.743   3.309   1.330
42950SOL    HW130747   0.786   3.307   1.416
42950SOL    HW230748   0.798   3.366   1.277
42951SOL     OW30749   3.011   8.389  12.515
42951SOL    HW130750   3.099   8.421  12.539
42951SOL    HW230751   3.024   8.297  12.494
42952SOL     OW30752   7.088   6.596  12.711
42952SOL    HW130753   7.127   6.518  12.750
42952SOL    HW230754   7.163   6.652  12.688
42953SOL     OW30755   2.586   4.618   8.966
42953SOL    HW130756   2.572   4.525   8.984
42953SOL    HW230757   2.568   4.661   9.050
42954SOL     OW30758   0.352   8.566   4.518
42954SOL    HW130759   0.421   8.536   4.578
42954SOL    HW230760   0.343   8.659   4.538
42955SOL     OW30761   3.829   9.351   7.068
42955SOL    HW130762   3.842   9.262   7.100
42955SOL    HW230763   3.901   9.365   7.007
42956SOL     OW30764   7.130  12.113   9.228
42956SOL    HW130765   7.162  12.202   9.243
42956SOL    HW230766   7.060  12.101   9.292
42957SOL     OW30767  11.494  10.008   8.667
42957SOL    HW130768  11.440   9.955   8.609
42957SOL    HW230769  11.431  10.059   8.718
42958SOL     OW30770   4.171  12.916  10.782
42958SOL    HW130771   4.130  12.884  10.863
42958SOL    HW230772   4.264  12.901  10.794
42959SOL     OW30773   0.687   0.579   0.693
42959SOL    HW130774   0.739   0.608   0.767
42959SOL    HW230775   0.619   0.523   0.732
42960SOL     OW30776   4.030   7.158  10.819
42960SOL    HW130777   3.980   7.119  10.891
42960SOL    HW230778   3.965   7.174  10.751
42961SOL     OW30779   0.279   4.701   4.035
42961SOL    HW130780   0.247   4.696   4.125
42961SOL    HW230781   0.252   4.618   3.995
42962SOL     OW30782  11.173  10.082  11.207
42962SOL    HW130783  11.262  10.104  11.234
42962SOL    HW230784  11.184  10.023  11.132
42963SOL     OW30785  14.852   5.897   8.733
42963SOL    HW130786  14.800   5.935   8.804
42963SOL    HW230787  14.789   5.848   8.681
42964SOL     OW30788  12.594  11.416  13.957
42964SOL    HW130789  12.654  11.369  13.898
42964SOL    HW230790  12.619  11.508  13.946
42965SOL     OW30791  14.131   7.058   2.252
42965SOL    HW130792  14.129   7.116   2.328
42965SOL    HW230793  14.125   6.970   2.289
42966SOL     OW30794  13.945   1.867   6.997
42966SOL    HW130795  13.907   1.781   6.979
42966SOL    HW230796  13.869   1.924   7.013
42967SOL     OW30797   6.825   8.903   2.566
42967SOL    HW130798   6.860   8.950   2.491
42967SOL    HW230799   6.898   8.897   2.627
42968SOL     OW30800   0.382  11.507  12.052
42968SOL    HW130801   0.296  11.500  12.009
42968SOL    HW230802   0.362  11.545  12.138
42969SOL     OW30803  14.813   6.456   3.031
42969SOL    HW130804   0.015   6.498   3.044
42969SOL    HW230805  14.824   6.404   2.951
42970SOL     OW30806   5.079  12.409   8.836
42970SOL    HW130807   5.082  12.392   8.930
42970SOL    HW230808   4.993  12.448   8.822
42971SOL     OW30809   6.064  14.465   5.986
42971SOL    HW130810   5.970  14.472   5.973
42971SOL    HW230811   6.102  14.485   5.901
42972SOL     OW30812   1.232   6.284   4.577
42972SOL    HW130813   1.199   6.342   4.508
42972SOL    HW230814   1.324   6.311   4.587
42973SOL     OW30815  12.354   1.466   4.027
42973SOL    HW130816  12.274   1.467   4.080
42973SOL    HW230817  12.341   1.535   3.963
42974SOL     OW30818   1.133  13.772  12.558
42974SOL    HW130819   1.051  13.724  12.547
42974SOL    HW230820   1.195  13.725  12.502
42975SOL     OW30821   0.834   1.147  10.529
42975SOL    HW130822   0.809   1.084  10.461
42975SOL    HW230823   0.754   1.193  10.550
42976SOL     OW30824  11.849   9.620   7.302
42976SOL    HW130825  11.775   9.653   7.354
42976SOL    HW230826  11.824   9.531   7.278
42977SOL     OW30827   1.719   7.385  12.514
42977SOL    HW130828   1.746   7.450  12.449
42977SOL    HW230829   1.753   7.417  12.597
42978SOL     OW30830  12.865  13.938   0.835
42978SOL    HW130831  12.920  13.935   0.757
42978SOL    HW230832  12.900  14.010   0.887
42979SOL     OW30833   4.647   0.452   0.110
42979SOL    HW130834   4.595   0.529   0.134
42979SOL    HW230835   4.601   0.414   0.035
42980SOL     OW30836   0.293  14.857   9.498
42980SOL    HW130837   0.376   0.023   9.505
42980SOL    HW230838   0.277  14.851   9.404
42981SOL     OW30839   7.586   0.713  11.288
42981SOL    HW130840   7.552   0.745  11.372
42981SOL    HW230841   7.570   0.619  11.290
42982SOL     OW30842   7.118   1.482   3.817
42982SOL    HW130843   7.091   1.393   3.839
42982SOL    HW230844   7.170   1.472   3.737
42983SOL     OW30845  14.487  12.263   5.814
42983SOL    HW130846  14.583  12.264   5.819
42983SOL    HW230847  14.459  12.220   5.895
42984SOL     OW30848   1.640   6.960   4.689
42984SOL    HW130849   1.732   6.935   4.675
42984SOL    HW230850   1.632   6.969   4.784
42985SOL     OW30851   2.443   9.814  12.408
42985SOL    HW130852   2.364   9.865  12.390
42985SOL    HW230853   2.442   9.745  12.342
42986SOL     OW30854   5.994   3.013  14.373
42986SOL    HW130855   6.008   3.084  14.310
42986SOL    HW230856   5.903   3.022  14.401
42987SOL     OW30857  10.256  10.904  14.764
42987SOL    HW130858  10.277  10.871  14.851
42987SOL    HW230859  10.173  10.861  14.742
42988SOL     OW30860  13.261   0.982   7.378
42988SOL    HW130861  13.286   0.889   7.386
42988SOL    HW230862  13.165   0.981   7.378
42989SOL     OW30863   3.925   9.515  11.339
42989SOL    HW130864   3.956   9.442  11.286
42989SOL    HW230865   3.990   9.584  11.325
42990SOL     OW30866  13.689  12.353  10.676
42990SOL    HW130867  13.688  12.263  10.708
42990SOL    HW230868  13.679  12.406  10.755
42991SOL     OW30869   6.634   8.916  10.670
42991SOL    HW130870   6.635   9.012  10.662
42991SOL    HW230871   6.610   8.900  10.761
42992SOL     OW30872   5.999  13.771   6.834
42992SOL    HW130873   6.072  13.709   6.832
42992SOL    HW230874   5.949  13.752   6.754
42993SOL     OW30875  10.611  11.310   5.296
42993SOL    HW130876  10.522  11.293   5.328
42993SOL    HW230877  10.639  11.390   5.340
42994SOL     OW30878   8.221  13.596  13.035
42994SOL    HW130879   8.256  13.683  13.051
42994SOL    HW230880   8.245  13.577  12.944
42995SOL     OW30881   6.799  12.876   7.014
42995SOL    HW130882   6.830  12.787   6.995
42995SOL    HW230883   6.750  12.867   7.096
42996SOL     OW30884   6.374  12.198   4.499
42996SOL    HW130885   6.460  12.240   4.504
42996SOL    HW230886   6.340  12.204   4.588
42997SOL     OW30887  13.731   0.349  14.500
42997SOL    HW130888  13.718   0.315  14.588
42997SOL    HW230889  13.687   0.434  14.499
42998SOL     OW30890   8.696  12.772   7.443
42998SOL    HW130891   8.655  12.695   7.483
42998SOL    HW230892   8.678  12.763   7.349
42999SOL     OW30893   6.721   9.873  11.152
42999SOL    HW130894   6.736   9.900  11.242
42999SOL    HW230895   6.630   9.899  11.134
43000SOL     OW30896   5.921  13.397  12.869
43000SOL    HW130897   5.994  13.360  12.918
43000SOL    HW230898   5.912  13.343  12.791
43001SOL     OW30899   5.905   1.883   6.230
43001SOL    HW130900   5.926   1.814   6.167
43001SOL    HW230901   5.837   1.845   6.285
43002SOL     OW30902   7.216   0.196  14.698
43002SOL    HW130903   7.260   0.277  14.724
43002SOL    HW230904   7.203   0.206  14.603
43003SOL     OW30905   1.845   1.387   0.768
43003SOL    HW130906   1.899   1.351   0.698
43003SOL    HW230907   1.760   1.404   0.728
43004SOL     OW30908   1.555   1.526   2.289
43004SOL    HW130909   1.618   1.455   2.296
43004SOL    HW230910   1.600   1.594   2.238
43005SOL     OW30911   7.508   5.824   1.603
43005SOL    HW130912   7.492   5.776   1.522
43005SOL    HW230913   7.596   5.860   1.592
43006SOL     OW30914   8.274   2.165   7.648
43006SOL    HW130915   8.304   2.140   7.735
43006SOL    HW230916   8.184   2.194   7.661
43007SOL     OW30917  12.355  10.028   3.782
43007SOL    HW130918  12.261  10.044   3.778
43007SOL    HW230919  12.365   9.963   3.851
43008SOL     OW30920  11.428   9.827   5.568
43008SOL    HW130921  11.364   9.809   5.637
43008SOL    HW230922  11.431   9.922   5.563
43009SOL     OW30923   4.078  14.103   8.853
43009SOL    HW130924   4.114  14.068   8.771
43009SOL    HW230925   4.050  14.026   8.902
43010SOL     OW30926  10.418   6.715  13.962
43010SOL    HW130927  10.388   6.805  13.966
43010SOL    HW230928  10.345   6.663  13.994
43011SOL     OW30929   8.584  11.800   2.356
43011SOL    HW130930   8.619  11.885   2.382
43011SOL    HW230931   8.544  11.765   2.436
43012SOL     OW30932  10.163  11.980   4.022
43012SOL    HW130933  10.190  12.071   4.016
43012SOL    HW230934  10.159  11.950   3.932
43013SOL     OW30935   0.643   3.682  10.998
43013SOL    HW130936   0.737   3.665  11.009
43013SOL    HW230937   0.638   3.748  10.929
43014SOL     OW30938   5.516   2.474   6.602
43014SOL    HW130939   5.504   2.383   6.575
43014SOL    HW230940   5.479   2.526   6.530
43015SOL     OW30941   3.123  14.747   0.694
43015SOL    HW130942   3.050  14.743   0.632
43015SOL    HW230943   3.123  14.661   0.736
43016SOL     OW30944   0.015   8.281   2.719
43016SOL    HW130945  14.870   8.285   2.628
43016SOL    HW230946  14.878   8.367   2.755
43017SOL     OW30947   7.187   0.662   6.189
43017SOL    HW130948   7.254   0.665   6.120
43017SOL    HW230949   7.152   0.573   6.184
43018SOL     OW30950  14.486   3.580   5.822
43018SOL    HW130951  14.532   3.500   5.846
43018SOL    HW230952  14.513   3.597   5.732
43019SOL     OW30953   2.325   9.183   3.837
43019SOL    HW130954   2.398   9.244   3.830
43019SOL    HW230955   2.296   9.169   3.747
43020SOL     OW30956   9.991   0.692  10.631
43020SOL    HW130957   9.946   0.772  10.660
43020SOL    HW230958   9.954   0.673  10.545
43021SOL     OW30959  11.742   0.229   4.758
43021SOL    HW130960  11.690   0.248   4.680
43021SOL    HW230961  11.678   0.196   4.821
43022SOL     OW30962   8.377   3.235   5.942
43022SOL    HW130963   8.425   3.262   5.864
43022SOL    HW230964   8.294   3.282   5.936
43023SOL     OW30965   0.236   2.233   3.699
43023SOL    HW130966   0.164   2.209   3.641
43023SOL    HW230967   0.212   2.196   3.784
43024SOL     OW30968  12.854   9.751   7.115
43024SOL    HW130969  12.887   9.770   7.027
43024SOL    HW230970  12.875   9.659   7.130
43025SOL     OW30971   5.795  14.821  13.332
43025SOL    HW130972   5.756   0.020  13.299
43025SOL    HW230973   5.758  14.752  13.277
43026SOL     OW30974   5.053   5.029   4.093
43026SOL    HW130975   5.124   4.987   4.141
43026SOL    HW230976   5.090   5.113   4.065
43027SOL     OW30977  12.827  10.458   6.791
43027SOL    HW130978  12.910  10.459   6.743
43027SOL    HW230979  12.841  10.395   6.862
43028SOL     OW30980   8.461  14.208   3.408
43028SOL    HW130981   8.372  14.239   3.426
43028SOL    HW230982   8.517  14.264   3.460
43029SOL     OW30983  14.806  13.392   8.280
43029SOL    HW130984  14.785  13.342   8.201
43029SOL    HW230985  14.743  13.361   8.345
43030SOL     OW30986  12.017   9.719  12.174
43030SOL    HW130987  11.969   9.798  12.149
43030SOL    HW230988  11.990   9.653  12.110
43031SOL     OW30989   8.152  14.513  13.033
43031SOL    HW130990   8.237  14.554  13.023
43031SOL    HW230991   8.096  14.557  12.969
43032SOL     OW30992   7.775   2.753   7.891
43032SOL    HW130993   7.788   2.732   7.798
43032SOL    HW230994   7.859   2.732   7.932
43033SOL     OW30995  13.403   4.701   2.933
43033SOL    HW130996  13.331   4.685   2.871
43033SOL    HW230997  13.398   4.628   2.995
43034SOL     OW30998   8.094   4.736   9.113
43034SOL    HW130999   8.130   4.708   9.198
43034SOL    HW231000   7.999   4.727   9.123
43035SOL     OW31001   7.726   5.739   8.340
43035SOL    HW131002   7.812   5.739   8.297
43035SOL    HW231003   7.687   5.823   8.316
43036SOL     OW31004   6.188   3.258  11.842
43036SOL    HW131005   6.167   3.341  11.883
43036SOL    HW231006   6.127   3.195  11.880
43037SOL     OW31007  13.416   9.029  13.068
43037SOL    HW131008  13.440   8.938  13.087
43037SOL    HW231009  13.435   9.076  13.149
43038SOL     OW31010   5.462   5.397   0.670
43038SOL    HW131011   5.410   5.317   0.683
43038SOL    HW231012   5.416   5.444   0.601
43039SOL     OW31013  14.860   2.968   2.642
43039SOL    HW131014  14.828   3.050   2.680
43039SOL    HW231015   0.033   2.930   2.711
43040SOL     OW31016  13.154   3.515   7.841
43040SOL    HW131017  13.169   3.462   7.763
43040SOL    HW231018  13.176   3.604   7.813
43041SOL     OW31019  13.881  14.630  13.426
43041SOL    HW131020  13.834  14.583  13.358
43041SOL    HW231021  13.951  14.570  13.453
43042SOL     OW31022   4.689  10.390   4.990
43042SOL    HW131023   4.625  10.320   5.002
43042SOL    HW231024   4.772  10.345   4.979
43043SOL     OW31025   9.178   5.020   4.718
43043SOL    HW131026   9.146   5.089   4.660
43043SOL    HW231027   9.126   4.943   4.694
43044SOL     OW31028   1.752   2.763   8.147
43044SOL    HW131029   1.658   2.747   8.133
43044SOL    HW231030   1.794   2.728   8.069
43045SOL     OW31031   9.931   8.062  11.867
43045SOL    HW131032   9.880   8.109  11.933
43045SOL    HW231033   9.927   7.971  11.895
43046SOL     OW31034   3.368   2.287  13.065
43046SOL    HW131035   3.322   2.267  13.147
43046SOL    HW231036   3.372   2.383  13.062
43047SOL     OW31037  12.196   1.892   1.472
43047SOL    HW131038  12.199   1.866   1.380
43047SOL    HW231039  12.116   1.944   1.480
43048SOL     OW31040  14.434  10.771   6.053
43048SOL    HW131041  14.435  10.769   6.148
43048SOL    HW231042  14.493  10.700   6.027
43049SOL     OW31043   1.715  12.187   4.569
43049SOL    HW131044   1.693  12.280   4.559
43049SOL    HW231045   1.740  12.158   4.482
43050SOL     OW31046   7.169  12.578   6.796
43050SOL    HW131047   7.192  12.630   6.718
43050SOL    HW231048   7.215  12.621   6.868
43051SOL     OW31049   0.302  11.343   2.442
43051SOL    HW131050   0.316  11.290   2.519
43051SOL    HW231051   0.234  11.297   2.393
43052SOL     OW31052   2.505  11.430   6.461
43052SOL    HW131053   2.464  11.428   6.375
43052SOL    HW231054   2.499  11.521   6.489
43053SOL     OW31055  12.684   8.105   6.791
43053SOL    HW131056  12.743   8.144   6.725
43053SOL    HW231057  12.663   8.178   6.849
43054SOL     OW31058  14.421   4.024   3.515
43054SOL    HW131059  14.405   4.119   3.514
43054SOL    HW231060  14.339   3.987   3.548
43055SOL     OW31061   2.902   8.674  14.790
43055SOL    HW131062   2.894   8.698  14.698
43055SOL    HW231063   2.854   8.743  14.836
43056SOL     OW31064   8.377   3.108  13.101
43056SOL    HW131065   8.351   3.093  13.010
43056SOL    HW231066   8.321   3.181  13.129
43057SOL     OW31067   7.688   0.274  12.538
43057SOL    HW131068   7.729   0.198  12.498
43057SOL    HW231069   7.721   0.349  12.489
43058SOL     OW31070  13.933  12.589   9.069
43058SOL    HW131071  13.840  12.613   9.076
43058SOL    HW231072  13.979  12.673   9.075
43059SOL     OW31073  14.276  11.295   9.717
43059SOL    HW131074  14.335  11.346   9.772
43059SOL    HW231075  14.197  11.349   9.710
43060SOL     OW31076   4.928   8.590   1.934
43060SOL    HW131077   4.952   8.502   1.905
43060SOL    HW231078   4.882   8.577   2.017
43061SOL     OW31079   2.427   4.780   7.158
43061SOL    HW131080   2.391   4.867   7.141
43061SOL    HW231081   2.492   4.767   7.089
43062SOL     OW31082   0.466   7.241  12.107
43062SOL    HW131083   0.488   7.262  12.198
43062SOL    HW231084   0.389   7.185  12.113
43063SOL     OW31085  14.211   2.150   6.750
43063SOL    HW131086  14.292   2.199   6.763
43063SOL    HW231087  14.142   2.210   6.780
43064SOL     OW31088   2.892   2.454   6.500
43064SOL    HW131089   2.979   2.439   6.536
43064SOL    HW231090   2.908   2.503   6.419
43065SOL     OW31091  12.973   5.393   8.487
43065SOL    HW131092  13.018   5.332   8.545
43065SOL    HW231093  12.902   5.341   8.449
43066SOL     OW31094   3.514  14.359  12.438
43066SOL    HW131095   3.515  14.398  12.350
43066SOL    HW231096   3.532  14.266  12.423
43067SOL     OW31097  11.150  10.789   3.708
43067SOL    HW131098  11.173  10.844   3.633
43067SOL    HW231099  11.057  10.807   3.723
43068SOL     OW31100  11.781   3.144   9.674
43068SOL    HW131101  11.792   3.050   9.691
43068SOL    HW231102  11.689   3.153   9.649
43069SOL     OW31103   1.323   9.049   3.862
43069SOL    HW131104   1.268   9.128   3.867
43069SOL    HW231105   1.412   9.083   3.853
43070SOL     OW31106   5.540   6.197   6.010
43070SOL    HW131107   5.560   6.215   5.918
43070SOL    HW231108   5.556   6.103   6.020
43071SOL     OW31109   4.991   9.827   5.895
43071SOL    HW131110   5.024   9.911   5.864
43071SOL    HW231111   4.900   9.844   5.919
43072SOL     OW31112   2.354   0.196   7.485
43072SOL    HW131113   2.433   0.251   7.481
43072SOL    HW231114   2.301   0.225   7.411
43073SOL     OW31115   5.715   7.662   0.064
43073SOL    HW131116   5.687   7.572   0.050
43073SOL    HW231117   5.700   7.678   0.157
43074SOL     OW31118   2.867  11.314   2.487
43074SOL    HW131119   2.859  11.270   2.572
43074SOL    HW231120   2.783  11.356   2.473
43075SOL     OW31121  12.231   1.976  13.507
43075SOL    HW131122  12.309   2.030  13.495
43075SOL    HW231123  12.227   1.922  13.427
43076SOL     OW31124   0.827   2.781   6.088
43076SOL    HW131125   0.767   2.713   6.059
43076SOL    HW231126   0.770   2.856   6.108
43077SOL     OW31127   5.750   1.556  12.735
43077SOL    HW131128   5.673   1.556  12.792
43077SOL    HW231129   5.750   1.469  12.694
43078SOL     OW31130   9.176  13.510  11.895
43078SOL    HW131131   9.234  13.576  11.932
43078SOL    HW231132   9.211  13.494  11.807
43079SOL     OW31133   4.461   6.903   2.116
43079SOL    HW131134   4.431   6.854   2.039
43079SOL    HW231135   4.385   6.952   2.145
43080SOL     OW31136  14.148   1.065   3.098
43080SOL    HW131137  14.191   1.029   3.020
43080SOL    HW231138  14.073   1.113   3.064
43081SOL     OW31139   7.619   6.858   3.705
43081SOL    HW131140   7.551   6.898   3.650
43081SOL    HW231141   7.574   6.836   3.787
43082SOL     OW31142   5.039  10.311   1.360
43082SOL    HW131143   5.079  10.319   1.446
43082SOL    HW231144   5.079  10.232   1.322
43083SOL     OW31145  13.819  12.807   0.745
43083SOL    HW131146  13.753  12.863   0.788
43083SOL    HW231147  13.901  12.854   0.757
43084SOL     OW31148  14.791   0.906   6.009
43084SOL    HW131149  14.771   0.992   6.047
43084SOL    HW231150  14.812   0.926   5.918
43085SOL     OW31151  10.412   5.748   0.425
43085SOL    HW131152  10.453   5.760   0.511
43085SOL    HW231153  10.394   5.654   0.421
43086SOL     OW31154   0.003  11.879   2.597
43086SOL    HW131155   0.035  11.839   2.516
43086SOL    HW231156   0.060  11.955   2.611
43087SOL     OW31157   5.585   8.877   5.597
43087SOL    HW131158   5.654   8.863   5.532
43087SOL    HW231159   5.631   8.910   5.674
43088SOL     OW31160   7.759   7.576  13.242
43088SOL    HW131161   7.739   7.611  13.155
43088SOL    HW231162   7.852   7.595  13.254
43089SOL     OW31163  10.112  10.948   5.855
43089SOL    HW131164  10.142  10.929   5.765
43089SOL    HW231165  10.164  10.889   5.910
43090SOL     OW31166  12.556   9.748   0.709
43090SOL    HW131167  12.618   9.703   0.767
43090SOL    HW231168  12.582   9.840   0.713
43091SOL     OW31169   5.741  11.343  10.023
43091SOL    HW131170   5.698  11.370  10.104
43091SOL    HW231171   5.700  11.396   9.955
43092SOL     OW31172  12.305  10.311   1.102
43092SOL    HW131173  12.329  10.228   1.145
43092SOL    HW231174  12.263  10.284   1.020
43093SOL     OW31175  12.301   9.806  11.669
43093SOL    HW131176  12.291   9.775  11.579
43093SOL    HW231177  12.251   9.744  11.721
43094SOL     OW31178   0.529   9.650   3.872
43094SOL    HW131179   0.583   9.601   3.935
43094SOL    HW231180   0.440   9.616   3.885
43095SOL     OW31181   9.327   8.848  13.861
43095SOL    HW131182   9.422   8.853  13.857
43095SOL    HW231183   9.305   8.873  13.951
43096SOL     OW31184   4.452   7.218   5.305
43096SOL    HW131185   4.488   7.253   5.387
43096SOL    HW231186   4.428   7.296   5.255
43097SOL     OW31187  13.071   9.831  10.730
43097SOL    HW131188  13.086   9.920  10.762
43097SOL    HW231189  13.047   9.842  10.638
43098SOL     OW31190   2.630   7.379  12.351
43098SOL    HW131191   2.642   7.386  12.256
43098SOL    HW231192   2.694   7.439  12.388
43099SOL     OW31193  11.302   5.379  12.958
43099SOL    HW131194  11.288   5.311  12.892
43099SOL    HW231195  11.357   5.336  13.024
43100SOL     OW31196  14.230   5.978   4.131
43100SOL    HW131197  14.160   6.014   4.077
43100SOL    HW231198  14.198   5.890   4.154
43101SOL     OW31199   4.231   8.947  12.036
43101SOL    HW131200   4.144   8.963  12.001
43101SOL    HW231201   4.285   9.016  11.998
43102SOL     OW31202   6.918  12.430  11.927
43102SOL    HW131203   6.941  12.353  11.876
43102SOL    HW231204   6.836  12.407  11.970
43103SOL     OW31205   3.250   4.628   7.346
43103SOL    HW131206   3.264   4.720   7.322
43103SOL    HW231207   3.161   4.609   7.316
43104SOL     OW31208   8.286   7.173  10.359
43104SOL    HW131209   8.236   7.171  10.441
43104SOL    HW231210   8.239   7.235  10.304
43105SOL     OW31211  14.863   8.944  12.242
43105SOL    HW131212  14.868   9.013  12.308
43105SOL    HW231213   0.032   8.872  12.278
43106SOL     OW31214  13.993   6.152   2.288
43106SOL    HW131215  13.983   6.236   2.243
43106SOL    HW231216  13.905   6.129   2.315
43107SOL     OW31217  11.878   6.298   6.303
43107SOL    HW131218  11.916   6.378   6.267
43107SOL    HW231219  11.804   6.279   6.246
43108SOL     OW31220   1.320   8.178  11.182
43108SOL    HW131221   1.379   8.119  11.134
43108SOL    HW231222   1.233   8.157  11.149
43109SOL     OW31223   4.233   5.277  11.957
43109SOL    HW131224   4.267   5.361  11.925
43109SOL    HW231225   4.138   5.286  11.952
43110SOL     OW31226   7.629   5.814   6.328
43110SOL    HW131227   7.681   5.753   6.275
43110SOL    HW231228   7.582   5.758   6.390
43111SOL     OW31229   1.067   7.949  14.649
43111SOL    HW131230   1.070   7.998  14.730
43111SOL    HW231231   1.121   7.872  14.666
43112SOL     OW31232   7.660   9.468  11.198
43112SOL    HW131233   7.708   9.397  11.157
43112SOL    HW231234   7.727   9.515  11.249
43113SOL     OW31235   8.843   8.198  10.830
43113SOL    HW131236   8.897   8.250  10.770
43113SOL    HW231237   8.902   8.174  10.901
43114SOL     OW31238  14.099  13.169   3.173
43114SOL    HW131239  14.129  13.155   3.084
43114SOL    HW231240  14.018  13.220   3.163
43115SOL     OW31241  13.767  12.723  10.628
43115SOL    HW131242  13.849  12.698  10.670
43115SOL    HW231243  13.772  12.819  10.622
43116SOL     OW31244   9.300  11.353  11.732
43116SOL    HW131245   9.344  11.422  11.781
43116SOL    HW231246   9.346  11.349  11.648
43117SOL     OW31247   0.887   3.303  11.041
43117SOL    HW131248   0.846   3.311  11.127
43117SOL    HW231249   0.909   3.211  11.034
43118SOL     OW31250   7.153  14.459   7.124
43118SOL    HW131251   7.205  14.493   7.051
43118SOL    HW231252   7.088  14.527   7.141
43119SOL     OW31253   7.961   4.136   3.348
43119SOL    HW131254   8.049   4.159   3.318
43119SOL    HW231255   7.903   4.197   3.302
43120SOL     OW31256   8.136   7.728   4.529
43120SOL    HW131257   8.218   7.767   4.562
43120SOL    HW231258   8.132   7.643   4.571
43121SOL     OW31259   5.497   0.087   1.753
43121SOL    HW131260   5.540   0.151   1.697
43121SOL    HW231261   5.532   0.003   1.725
43122SOL     OW31262   6.119   8.284   8.208
43122SOL    HW131263   6.199   8.290   8.260
43122SOL    HW231264   6.130   8.351   8.140
43123SOL     OW31265   8.138   7.082   6.891
43123SOL    HW131266   8.046   7.105   6.904
43123SOL    HW231267   8.179   7.094   6.977
43124SOL     OW31268  11.000  12.952   4.196
43124SOL    HW131269  11.039  13.028   4.152
43124SOL    HW231270  11.004  12.883   4.130
43125SOL     OW31271  10.295  14.423  12.127
43125SOL    HW131272  10.382  14.457  12.101
43125SOL    HW231273  10.239  14.501  12.127
43126SOL     OW31274   2.949  12.946   3.012
43126SOL    HW131275   2.898  12.926   3.090
43126SOL    HW231276   2.935  12.871   2.954
43127SOL     OW31277   4.796   4.942   8.104
43127SOL    HW131278   4.733   4.871   8.116
43127SOL    HW231279   4.802   4.954   8.010
43128SOL     OW31280   3.516   8.462   6.469
43128SOL    HW131281   3.547   8.425   6.552
43128SOL    HW231282   3.428   8.494   6.489
43129SOL     OW31283   5.874   0.671   4.952
43129SOL    HW131284   5.823   0.619   5.014
43129SOL    HW231285   5.900   0.749   5.000
43130SOL     OW31286  13.353  13.772   7.904
43130SOL    HW131287  13.445  13.751   7.889
43130SOL    HW231288  13.323  13.809   7.821
43131SOL     OW31289  14.251   3.043   2.654
43131SOL    HW131290  14.319   3.104   2.624
43131SOL    HW231291  14.228   2.993   2.575
43132SOL     OW31292  11.434   8.875   1.970
43132SOL    HW131293  11.428   8.930   1.892
43132SOL    HW231294  11.343   8.865   2.000
43133SOL     OW31295   5.699  12.441   5.061
43133SOL    HW131296   5.780  12.429   5.110
43133SOL    HW231297   5.635  12.468   5.127
43134SOL     OW31298   7.293  12.397  13.310
43134SOL    HW131299   7.373  12.366  13.351
43134SOL    HW231300   7.257  12.461  13.372
43135SOL     OW31301  10.755   3.987   6.483
43135SOL    HW131302  10.849   3.969   6.485
43135SOL    HW231303  10.714   3.904   6.507
43136SOL     OW31304   5.875   6.065  10.042
43136SOL    HW131305   5.898   5.976  10.015
43136SOL    HW231306   5.781   6.063  10.057
43137SOL     OW31307   6.263   8.404  14.848
43137SOL    HW131308   6.236   8.491  14.877
43137SOL    HW231309   6.306   8.366   0.043
43138SOL     OW31310  13.390  11.105   1.083
43138SOL    HW131311  13.412  11.136   1.171
43138SOL    HW231312  13.298  11.080   1.089
43139SOL     OW31313   8.798   7.580   3.053
43139SOL    HW131314   8.756   7.662   3.082
43139SOL    HW231315   8.891   7.593   3.072
43140SOL     OW31316  12.555  11.992   9.504
43140SOL    HW131317  12.630  11.933   9.499
43140SOL    HW231318  12.593  12.078   9.521
43141SOL     OW31319  11.258   4.915   0.335
43141SOL    HW131320  11.305   4.983   0.286
43141SOL    HW231321  11.224   4.856   0.267
43142SOL     OW31322  14.271   2.211  14.007
43142SOL    HW131323  14.342   2.272  13.987
43142SOL    HW231324  14.316   2.130  14.031
43143SOL     OW31325   8.680   5.357  14.003
43143SOL    HW131326   8.640   5.421  14.063
43143SOL    HW231327   8.750   5.405  13.959
43144SOL     OW31328   7.063   4.152  10.479
43144SOL    HW131329   7.069   4.184  10.389
43144SOL    HW231330   7.150   4.167  10.516
43145SOL     OW31331   6.423  10.075  13.737
43145SOL    HW131332   6.504  10.125  13.752
43145SOL    HW231333   6.450  10.005  13.678
43146SOL     OW31334   3.233   8.682  10.659
43146SOL    HW131335   3.196   8.595  10.676
43146SOL    HW231336   3.232   8.690  10.564
43147SOL     OW31337   3.377   0.716   1.678
43147SOL    HW131338   3.382   0.696   1.584
43147SOL    HW231339   3.283   0.711   1.698
43148SOL     OW31340   0.890  11.268   5.742
43148SOL    HW131341   0.814  11.267   5.684
43148SOL    HW231342   0.908  11.361   5.756
43149SOL     OW31343   9.456   8.757   5.120
43149SOL    HW131344   9.434   8.833   5.066
43149SOL    HW231345   9.513   8.792   5.188
43150SOL     OW31346  14.798   0.211  14.672
43150SOL    HW131347  14.802   0.186  14.765
43150SOL    HW231348  14.717   0.171  14.640
43151SOL     OW31349   4.502  11.953  14.477
43151SOL    HW131350   4.435  12.010  14.439
43151SOL    HW231351   4.459  11.915  14.553
43152SOL     OW31352   0.007   7.055   9.447
43152SOL    HW131353   0.088   7.041   9.497
43152SOL    HW231354   0.019   7.140   9.405
43153SOL     OW31355  12.058   6.420   8.927
43153SOL    HW131356  11.966   6.393   8.920
43153SOL    HW231357  12.084   6.391   9.015
43154SOL     OW31358   2.700   7.277   3.150
43154SOL    HW131359   2.702   7.310   3.060
43154SOL    HW231360   2.785   7.235   3.163
43155SOL     OW31361   1.881  11.989   4.735
43155SOL    HW131362   1.829  11.931   4.679
43155SOL    HW231363   1.877  12.074   4.692
43156SOL     OW31364   8.083  12.921   0.132
43156SOL    HW131365   8.064  12.831   0.106
43156SOL    HW231366   8.177  12.921   0.153
43157SOL     OW31367   4.500   1.823   3.871
43157SOL    HW131368   4.537   1.809   3.783
43157SOL    HW231369   4.464   1.738   3.896
43158SOL     OW31370  12.836   6.821   8.967
43158SOL    HW131371  12.871   6.844   8.881
43158SOL    HW231372  12.908   6.839   9.027
43159SOL     OW31373   9.857   3.568   3.748
43159SOL    HW131374   9.861   3.479   3.714
43159SOL    HW231375   9.917   3.618   3.694
43160SOL     OW31376   0.038   7.663   1.250
43160SOL    HW131377  14.857   7.672   1.321
43160SOL    HW231378   0.029   7.572   1.221
43161SOL     OW31379  12.484   0.350  11.614
43161SOL    HW131380  12.411   0.300  11.578
43161SOL    HW231381  12.534   0.286  11.665
43162SOL     OW31382   4.244   6.237   0.416
43162SOL    HW131383   4.165   6.284   0.389
43162SOL    HW231384   4.222   6.145   0.403
43163SOL     OW31385   3.380   5.612   1.636
43163SOL    HW131386   3.380   5.630   1.542
43163SOL    HW231387   3.469   5.582   1.655
43164SOL     OW31388  14.504   5.254   2.015
43164SOL    HW131389  14.542   5.327   2.064
43164SOL    HW231390  14.577   5.194   1.999
43165SOL     OW31391   4.629   1.865   8.026
43165SOL    HW131392   4.680   1.936   7.987
43165SOL    HW231393   4.539   1.896   8.022
43166SOL     OW31394   5.952  10.773   1.721
43166SOL    HW131395   5.903  10.789   1.640
43166SOL    HW231396   5.926  10.684   1.747
43167SOL     OW31397  13.883  10.295  10.534
43167SOL    HW131398  13.953  10.242  10.496
43167SOL    HW231399  13.901  10.384  10.504
43168SOL     OW31400   5.050   4.711   3.901
43168SOL    HW131401   5.080   4.699   3.811
43168SOL    HW231402   5.113   4.771   3.941
43169SOL     OW31403   8.081   2.047  14.421
43169SOL    HW131404   8.056   1.982  14.487
43169SOL    HW231405   8.003   2.102  14.411
43170SOL     OW31406   7.669   5.724   0.959
43170SOL    HW131407   7.746   5.736   0.903
43170SOL    HW231408   7.682   5.785   1.032
43171SOL     OW31409   3.123  13.349   2.663
43171SOL    HW131410   3.038  13.381   2.695
43171SOL    HW231411   3.136  13.266   2.709
43172SOL     OW31412  12.174   3.498  12.792
43172SOL    HW131413  12.187   3.592  12.806
43172SOL    HW231414  12.217   3.481  12.708
43173SOL     OW31415  12.979   4.593  13.499
43173SOL    HW131416  13.070   4.567  13.515
43173SOL    HW231417  12.951   4.635  13.580
43174SOL     OW31418   5.890   8.248   3.833
43174SOL    HW131419   5.824   8.308   3.868
43174SOL    HW231420   5.958   8.306   3.797
43175SOL     OW31421  11.383   7.722   8.311
43175SOL    HW131422  11.448   7.733   8.241
43175SOL    HW231423  11.388   7.802   8.362
43176SOL     OW31424  14.089  14.279  13.036
43176SOL    HW131425  14.093  14.254  12.944
43176SOL    HW231426  14.038  14.360  13.037
43177SOL     OW31427   5.336  12.641   2.238
43177SOL    HW131428   5.340  12.629   2.333
43177SOL    HW231429   5.249  12.608   2.213
43178SOL     OW31430   1.464  10.413   4.514
43178SOL    HW131431   1.437  10.341   4.571
43178SOL    HW231432   1.383  10.440   4.470
43179SOL     OW31433   4.682  10.024   5.420
43179SOL    HW131434   4.655   9.942   5.380
43179SOL    HW231435   4.698  10.002   5.512
43180SOL     OW31436   7.947   9.455   9.735
43180SOL    HW131437   8.019   9.496   9.688
43180SOL    HW231438   7.972   9.362   9.740
43181SOL     OW31439   9.067   3.988   1.648
43181SOL    HW131440   9.099   4.078   1.655
43181SOL    HW231441   9.098   3.944   1.727
43182SOL     OW31442   0.958  10.935  14.190
43182SOL    HW131443   0.934  11.000  14.124
43182SOL    HW231444   0.901  10.860  14.171
43183SOL     OW31445   9.430  11.858   8.305
43183SOL    HW131446   9.367  11.785   8.303
43183SOL    HW231447   9.377  11.935   8.323
43184SOL     OW31448  12.298  13.327  11.609
43184SOL    HW131449  12.245  13.314  11.687
43184SOL    HW231450  12.267  13.261  11.547
43185SOL     OW31451   0.016  10.632   3.253
43185SOL    HW131452  14.805  10.647   3.233
43185SOL    HW231453   0.062  10.704   3.210
43186SOL     OW31454   5.917   6.521   2.209
43186SOL    HW131455   5.999   6.564   2.231
43186SOL    HW231456   5.849   6.581   2.240
43187SOL     OW31457   5.213   7.670   5.193
43187SOL    HW131458   5.260   7.599   5.149
43187SOL    HW231459   5.267   7.690   5.270
43188SOL     OW31460   9.892   2.686   9.431
43188SOL    HW131461   9.802   2.707   9.405
43188SOL    HW231462   9.885   2.603   9.477
43189SOL     OW31463   2.499   7.023   9.945
43189SOL    HW131464   2.420   6.995   9.992
43189SOL    HW231465   2.503   7.118   9.960
43190SOL     OW31466  13.767   3.737   0.793
43190SOL    HW131467  13.759   3.832   0.800
43190SOL    HW231468  13.725   3.703   0.872
43191SOL     OW31469  10.256   5.933   1.561
43191SOL    HW131470  10.171   5.916   1.521
43191SOL    HW231471  10.250   6.022   1.594
43192SOL     OW31472   1.775  11.740   4.983
43192SOL    HW131473   1.813  11.739   5.071
43192SOL    HW231474   1.838  11.789   4.930
43193SOL     OW31475  10.166   9.329   4.367
43193SOL    HW131476  10.247   9.297   4.328
43193SOL    HW231477  10.142   9.262   4.431
43194SOL     OW31478   4.884   3.628   8.740
43194SOL    HW131479   4.827   3.698   8.771
43194SOL    HW231480   4.847   3.602   8.656
43195SOL     OW31481   5.795   3.268   5.502
43195SOL    HW131482   5.731   3.248   5.434
43195SOL    HW231483   5.867   3.311   5.456
43196SOL     OW31484  11.175   6.032  11.818
43196SOL    HW131485  11.220   6.019  11.901
43196SOL    HW231486  11.137   5.946  11.797
43197SOL     OW31487  11.579   7.535   4.571
43197SOL    HW131488  11.559   7.500   4.484
43197SOL    HW231489  11.618   7.621   4.554
43198SOL     OW31490   9.217  14.099  11.411
43198SOL    HW131491   9.125  14.082  11.391
43198SOL    HW231492   9.221  14.194  11.425
43199SOL     OW31493  12.873   9.750   2.229
43199SOL    HW131494  12.954   9.745   2.280
43199SOL    HW231495  12.889   9.821   2.166
43200SOL     OW31496  11.385   3.318  13.879
43200SOL    HW131497  11.292   3.308  13.895
43200SOL    HW231498  11.423   3.234  13.904
43201SOL     OW31499  14.059   0.475   0.782
43201SOL    HW131500  14.133   0.440   0.832
43201SOL    HW231501  13.990   0.488   0.848
43202SOL     OW31502   7.763   5.419   1.830
43202SOL    HW131503   7.673   5.442   1.806
43202SOL    HW231504   7.773   5.328   1.803
43203SOL     OW31505  14.209  13.174   1.903
43203SOL    HW131506  14.184  13.124   1.981
43203SOL    HW231507  14.261  13.247   1.936
43204SOL     OW31508  11.854  14.024   2.313
43204SOL    HW131509  11.850  13.930   2.300
43204SOL    HW231510  11.886  14.059   2.230
43205SOL     OW31511   1.087  10.130   6.233
43205SOL    HW131512   1.042  10.131   6.317
43205SOL    HW231513   1.074  10.219   6.198
43206SOL     OW31514   8.742   6.691  11.318
43206SOL    HW131515   8.660   6.678  11.271
43206SOL    HW231516   8.717   6.733  11.400
43207SOL     OW31517   5.896   7.142   9.726
43207SOL    HW131518   5.830   7.179   9.785
43207SOL    HW231519   5.908   7.052   9.757
43208SOL     OW31520  10.340   9.599   6.687
43208SOL    HW131521  10.408   9.667   6.694
43208SOL    HW231522  10.258   9.648   6.686
43209SOL     OW31523   3.345  13.086  11.069
43209SOL    HW131524   3.359  13.086  10.974
43209SOL    HW231525   3.303  13.002  11.087
43210SOL     OW31526  12.492  14.156   5.095
43210SOL    HW131527  12.439  14.080   5.072
43210SOL    HW231528  12.459  14.227   5.040
43211SOL     OW31529   6.961   2.381   7.670
43211SOL    HW131530   7.013   2.404   7.747
43211SOL    HW231531   7.017   2.320   7.621
43212SOL     OW31532   6.322   3.427   9.135
43212SOL    HW131533   6.287   3.504   9.091
43212SOL    HW231534   6.377   3.383   9.069
43213SOL     OW31535   8.932   6.844   8.453
43213SOL    HW131536   8.893   6.797   8.527
43213SOL    HW231537   9.002   6.788   8.422
43214SOL     OW31538   9.237  12.085   5.739
43214SOL    HW131539   9.314  12.070   5.794
43214SOL    HW231540   9.167  12.104   5.801
43215SOL     OW31541   8.145   8.738  10.425
43215SOL    HW131542   8.078   8.690  10.474
43215SOL    HW231543   8.215   8.674  10.412
43216SOL     OW31544   1.672  11.793  12.017
43216SOL    HW131545   1.758  11.834  12.021
43216SOL    HW231546   1.637  11.818  11.931
43217SOL     OW31547   1.155   0.768  14.300
43217SOL    HW131548   1.130   0.818  14.221
43217SOL    HW231549   1.095   0.799  14.367
43218SOL     OW31550   3.625   0.153   8.490
43218SOL    HW131551   3.634   0.062   8.463
43218SOL    HW231552   3.652   0.154   8.582
43219SOL     OW31553   2.124   3.802  12.029
43219SOL    HW131554   2.118   3.863  11.955
43219SOL    HW231555   2.033   3.791  12.058
43220SOL     OW31556  11.867  10.536   9.466
43220SOL    HW131557  11.887  10.443   9.476
43220SOL    HW231558  11.928  10.567   9.399
43221SOL     OW31559  14.613  13.756   2.115
43221SOL    HW131560  14.527  13.791   2.093
43221SOL    HW231561  14.649  13.817   2.179
43222SOL     OW31562  11.902   3.188  10.796
43222SOL    HW131563  11.946   3.213  10.715
43222SOL    HW231564  11.895   3.269  10.846
43223SOL     OW31565   6.239   9.264   4.492
43223SOL    HW131566   6.327   9.287   4.522
43223SOL    HW231567   6.198   9.222   4.568
43224SOL     OW31568   3.731   5.859   6.094
43224SOL    HW131569   3.668   5.878   6.025
43224SOL    HW231570   3.816   5.876   6.054
43225SOL     OW31571  11.919   4.073  11.122
43225SOL    HW131572  11.987   4.101  11.183
43225SOL    HW231573  11.842   4.056  11.178
43226SOL     OW31574   6.786   8.039   1.006
43226SOL    HW131575   6.746   7.989   0.935
43226SOL    HW231576   6.881   8.027   0.993
43227SOL     OW31577   1.827   2.043   9.387
43227SOL    HW131578   1.759   1.978   9.408
43227SOL    HW231579   1.787   2.097   9.319
43228SOL     OW31580  12.868   2.336   2.783
43228SOL    HW131581  12.881   2.429   2.762
43228SOL    HW231582  12.776   2.319   2.763
43229SOL     OW31583   2.908   5.584  11.527
43229SOL    HW131584   2.900   5.496  11.491
43229SOL    HW231585   2.920   5.570  11.621
43230SOL     OW31586   6.454   9.610  10.141
43230SOL    HW131587   6.517   9.607  10.213
43230SOL    HW231588   6.438   9.704  10.127
43231SOL     OW31589   5.667   3.515   2.327
43231SOL    HW131590   5.615   3.435   2.341
43231SOL    HW231591   5.693   3.511   2.235
43232SOL     OW31592   4.854   8.332  12.432
43232SOL    HW131593   4.932   8.342  12.377
43232SOL    HW231594   4.873   8.256  12.487
43233SOL     OW31595   6.293  14.832  12.952
43233SOL    HW131596   6.236  14.845  13.028
43233SOL    HW231597   6.370   0.004  12.970
43234SOL     OW31598   9.466  11.152   3.552
43234SOL    HW131599   9.559  11.138   3.568
43234SOL    HW231600   9.423  11.088   3.609
43235SOL     OW31601  13.024  12.239   1.082
43235SOL    HW131602  13.014  12.262   1.174
43235SOL    HW231603  13.060  12.317   1.041
43236SOL     OW31604  11.727   3.986   4.403
43236SOL    HW131605  11.746   3.933   4.326
43236SOL    HW231606  11.813   4.015   4.435
43237SOL     OW31607   0.301  12.842   8.066
43237SOL    HW131608   0.254  12.780   8.123
43237SOL    HW231609   0.367  12.882   8.123
43238SOL     OW31610  10.463   9.342   0.033
43238SOL    HW131611  10.434   9.300   0.113
43238SOL    HW231612  10.520   9.413   0.062
43239SOL     OW31613   7.212  14.747   6.934
43239SOL    HW131614   7.191  14.799   7.011
43239SOL    HW231615   7.137  14.760   6.875
43240SOL     OW31616   2.496  11.430   8.100
43240SOL    HW131617   2.536  11.343   8.089
43240SOL    HW231618   2.548  11.487   8.043
43241SOL     OW31619   1.346  11.694  14.617
43241SOL    HW131620   1.316  11.634  14.685
43241SOL    HW231621   1.437  11.713  14.641
43242SOL     OW31622   0.552  11.008   0.208
43242SOL    HW131623   0.557  10.927   0.157
43242SOL    HW231624   0.468  11.003   0.253
43243SOL     OW31625   1.657   9.230   2.696
43243SOL    HW131626   1.677   9.319   2.725
43243SOL    HW231627   1.563   9.221   2.710
43244SOL     OW31628  11.371   5.096   8.799
43244SOL    HW131629  11.320   5.169   8.766
43244SOL    HW231630  11.450   5.096   8.745
43245SOL     OW31631  12.962   1.594   8.880
43245SOL    HW131632  13.051   1.604   8.914
43245SOL    HW231633  12.920   1.532   8.940
43246SOL     OW31634   1.892   5.216   0.809
43246SOL    HW131635   1.946   5.137   0.815
43246SOL    HW231636   1.944   5.284   0.852
43247SOL     OW31637  10.757   8.031  12.627
43247SOL    HW131638  10.849   8.009  12.612
43247SOL    HW231639  10.742   8.014  12.720
43248SOL     OW31640  12.961   6.580   7.129
43248SOL    HW131641  12.960   6.567   7.034
43248SOL    HW231642  13.033   6.525   7.160
43249SOL     OW31643   7.459   9.524   6.473
43249SOL    HW131644   7.545   9.554   6.503
43249SOL    HW231645   7.477   9.446   6.420
43250SOL     OW31646  14.514   4.877   2.545
43250SOL    HW131647  14.608   4.882   2.529
43250SOL    HW231648  14.498   4.936   2.618
43251SOL     OW31649   3.945  11.432   5.360
43251SOL    HW131650   3.887  11.410   5.287
43251SOL    HW231651   3.886  11.441   5.435
43252SOL     OW31652   7.400   2.336   0.342
43252SOL    HW131653   7.481   2.313   0.388
43252SOL    HW231654   7.339   2.265   0.362
43253SOL     OW31655   4.814   3.149   8.089
43253SOL    HW131656   4.817   3.104   8.005
43253SOL    HW231657   4.747   3.217   8.078
43254SOL     OW31658   2.321   1.101  13.968
43254SOL    HW131659   2.357   1.186  13.992
43254SOL    HW231660   2.396   1.049  13.940
43255SOL     OW31661  13.806   0.230   6.448
43255SOL    HW131662  13.888   0.239   6.497
43255SOL    HW231663  13.831   0.247   6.357
43256SOL     OW31664   4.881  14.451   7.432
43256SOL    HW131665   4.899  14.368   7.387
43256SOL    HW231666   4.826  14.500   7.371
43257SOL     OW31667  11.257  11.504  13.425
43257SOL    HW131668  11.268  11.584  13.374
43257SOL    HW231669  11.212  11.443  13.366
43258SOL     OW31670   3.178   0.156   0.195
43258SOL    HW131671   3.215   0.149   0.283
43258SOL    HW231672   3.163   0.250   0.183
43259SOL     OW31673   7.050   4.621   4.641
43259SOL    HW131674   7.033   4.563   4.716
43259SOL    HW231675   6.992   4.590   4.573
43260SOL     OW31676  13.200  14.004   4.582
43260SOL    HW131677  13.133  13.937   4.593
43260SOL    HW231678  13.272  13.977   4.639
43261SOL     OW31679   8.697   5.643   3.173
43261SOL    HW131680   8.765   5.708   3.190
43261SOL    HW231681   8.688   5.596   3.256
43262SOL     OW31682  10.141   1.144   9.089
43262SOL    HW131683  10.227   1.165   9.127
43262SOL    HW231684  10.079   1.174   9.155
43263SOL     OW31685   6.001   8.789   5.548
43263SOL    HW131686   5.911   8.783   5.517
43263SOL    HW231687   5.996   8.846   5.625
43264SOL     OW31688   5.153  14.783   4.377
43264SOL    HW131689   5.205  14.730   4.317
43264SOL    HW231690   5.069  14.738   4.383
43265SOL     OW31691   6.186   2.146   7.940
43265SOL    HW131692   6.210   2.232   7.904
43265SOL    HW231693   6.259   2.123   7.998
43266SOL     OW31694   9.297  13.371   8.274
43266SOL    HW131695   9.389  13.397   8.279
43266SOL    HW231696   9.270  13.397   8.186
43267SOL     OW31697   5.590  13.983  14.116
43267SOL    HW131698   5.606  14.043  14.189
43267SOL    HW231699   5.530  14.031  14.059
43268SOL     OW31700   5.784  12.131   6.618
43268SOL    HW131701   5.860  12.072   6.626
43268SOL    HW231702   5.786  12.159   6.526
43269SOL     OW31703   3.254   8.024   9.542
43269SOL    HW131704   3.227   8.011   9.632
43269SOL    HW231705   3.345   8.052   9.547
43270SOL     OW31706   3.869   6.057  13.745
43270SOL    HW131707   3.958   6.083  13.720
43270SOL    HW231708   3.818   6.138  13.739
43271SOL     OW31709   3.649  13.886   3.276
43271SOL    HW131710   3.648  13.944   3.352
43271SOL    HW231711   3.628  13.800   3.312
43272SOL     OW31712   5.250  13.839   3.366
43272SOL    HW131713   5.235  13.748   3.391
43272SOL    HW231714   5.258  13.837   3.271
43273SOL     OW31715   3.837   0.456  12.991
43273SOL    HW131716   3.764   0.443  12.930
43273SOL    HW231717   3.806   0.421  13.074
43274SOL     OW31718   0.266   3.709   8.050
43274SOL    HW131719   0.327   3.659   7.997
43274SOL    HW231720   0.267   3.665   8.135
43275SOL     OW31721  13.108   1.100   6.241
43275SOL    HW131722  13.194   1.075   6.274
43275SOL    HW231723  13.125   1.137   6.155
43276SOL     OW31724  11.123   1.825   2.911
43276SOL    HW131725  11.048   1.784   2.953
43276SOL    HW231726  11.199   1.791   2.959
43277SOL     OW31727   4.791   6.192   8.600
43277SOL    HW131728   4.832   6.228   8.521
43277SOL    HW231729   4.773   6.100   8.578
43278SOL     OW31730  10.990  14.461   1.729
43278SOL    HW131731  10.955  14.372   1.730
43278SOL    HW231732  10.950  14.503   1.805
43279SOL     OW31733  12.369  10.124  13.625
43279SOL    HW131734  12.339  10.040  13.662
43279SOL    HW231735  12.309  10.140  13.552
43280SOL     OW31736   0.497  14.132   7.142
43280SOL    HW131737   0.501  14.037   7.139
43280SOL    HW231738   0.537  14.161   7.060
43281SOL     OW31739   6.667   3.358  10.847
43281SOL    HW131740   6.761   3.347  10.857
43281SOL    HW231741   6.642   3.296  10.778
43282SOL     OW31742   5.986   9.581  11.760
43282SOL    HW131743   5.976   9.522  11.686
43282SOL    HW231744   6.074   9.618  11.749
43283SOL     OW31745   4.283  13.297  10.357
43283SOL    HW131746   4.263  13.220  10.410
43283SOL    HW231747   4.211  13.357  10.374
43284SOL     OW31748   6.898  11.360   0.859
43284SOL    HW131749   6.955  11.381   0.785
43284SOL    HW231750   6.915  11.268   0.877
43285SOL     OW31751   0.571  11.121   1.479
43285SOL    HW131752   0.535  11.142   1.565
43285SOL    HW231753   0.644  11.182   1.468
43286SOL     OW31754   6.619   5.280  11.640
43286SOL    HW131755   6.661   5.361  11.611
43286SOL    HW231756   6.692   5.224  11.667
43287SOL     OW31757   7.071   7.364   7.074
43287SOL    HW131758   7.127   7.441   7.082
43287SOL    HW231759   7.023   7.377   6.993
43288SOL     OW31760  13.373   8.534   8.370
43288SOL    HW131761  13.339   8.622   8.385
43288SOL    HW231762  13.468   8.544   8.376
43289SOL     OW31763   8.116   7.715   3.448
43289SOL    HW131764   8.113   7.807   3.474
43289SOL    HW231765   8.041   7.704   3.389
43290SOL     OW31766   9.997  11.224  10.451
43290SOL    HW131767   9.947  11.227  10.369
43290SOL    HW231768  10.044  11.141  10.448
43291SOL     OW31769  11.305  11.069   8.783
43291SOL    HW131770  11.377  11.123   8.751
43291SOL    HW231771  11.263  11.123   8.851
43292SOL     OW31772   3.232   4.264  12.873
43292SOL    HW131773   3.166   4.198  12.893
43292SOL    HW231774   3.310   4.235  12.921
43293SOL     OW31775   3.449  13.970   3.825
43293SOL    HW131776   3.436  13.915   3.748
43293SOL    HW231777   3.530  13.938   3.864
43294SOL     OW31778  13.596  13.657   5.699
43294SOL    HW131779  13.532  13.717   5.660
43294SOL    HW231780  13.651  13.713   5.753
43295SOL     OW31781  12.601   2.861  14.147
43295SOL    HW131782  12.618   2.955  14.140
43295SOL    HW231783  12.684   2.825  14.178
43296SOL     OW31784   0.770   2.431  12.013
43296SOL    HW131785   0.801   2.521  12.007
43296SOL    HW231786   0.745   2.408  11.923
43297SOL     OW31787   9.450   4.933   1.799
43297SOL    HW131788   9.367   4.926   1.751
43297SOL    HW231789   9.437   5.007   1.858
43298SOL     OW31790  10.975  12.903   9.567
43298SOL    HW131791  10.982  12.896   9.662
43298SOL    HW231792  10.960  12.996   9.550
43299SOL     OW31793   9.761   1.823   1.088
43299SOL    HW131794   9.708   1.899   1.113
43299SOL    HW231795   9.815   1.805   1.165
43300SOL     OW31796   7.737  11.682  13.741
43300SOL    HW131797   7.830  11.670  13.761
43300SOL    HW231798   7.711  11.760  13.790
43301SOL     OW31799  11.970   4.041   4.962
43301SOL    HW131800  12.031   4.088   5.020
43301SOL    HW231801  11.903   4.007   5.021
43302SOL     OW31802  13.606   7.052  10.107
43302SOL    HW131803  13.596   7.136  10.062
43302SOL    HW231804  13.516   7.024  10.125
43303SOL     OW31805  12.156  12.454   4.268
43303SOL    HW131806  12.210  12.497   4.335
43303SOL    HW231807  12.201  12.370   4.253
43304SOL     OW31808   8.028   5.706   6.759
43304SOL    HW131809   8.111   5.720   6.713
43304SOL    HW231810   8.010   5.613   6.749
43305SOL     OW31811  10.293  12.064   6.768
43305SOL    HW131812  10.292  12.012   6.688
43305SOL    HW231813  10.243  12.012   6.831
43306SOL     OW31814  14.082   7.190   7.032
43306SOL    HW131815  13.999   7.208   7.077
43306SOL    HW231816  14.115   7.110   7.073
43307SOL     OW31817  12.887   5.195  12.413
43307SOL    HW131818  12.928   5.140  12.479
43307SOL    HW231819  12.839   5.134  12.357
43308SOL     OW31820   2.925   9.553  10.944
43308SOL    HW131821   2.877   9.629  10.979
43308SOL    HW231822   2.973   9.519  11.019
43309SOL     OW31823   3.619   3.759   3.591
43309SOL    HW131824   3.600   3.680   3.642
43309SOL    HW231825   3.552   3.822   3.617
43310SOL     OW31826  12.513  10.708  14.334
43310SOL    HW131827  12.580  10.776  14.334
43310SOL    HW231828  12.433  10.753  14.306
43311SOL     OW31829  12.906   6.194  14.179
43311SOL    HW131830  12.817   6.167  14.203
43311SOL    HW231831  12.963   6.150  14.242
43312SOL     OW31832   8.235   4.144   2.584
43312SOL    HW131833   8.273   4.160   2.670
43312SOL    HW231834   8.162   4.206   2.578
43313SOL     OW31835  11.304   0.107   8.494
43313SOL    HW131836  11.253   0.171   8.444
43313SOL    HW231837  11.252   0.092   8.573
43314SOL     OW31838   1.458   4.077  12.020
43314SOL    HW131839   1.385   4.051  12.077
43314SOL    HW231840   1.416   4.098  11.936
43315SOL     OW31841   5.910   9.626  14.690
43315SOL    HW131842   5.925   9.542  14.647
43315SOL    HW231843   5.947   9.615  14.778
43316SOL     OW31844   5.971   6.559   5.550
43316SOL    HW131845   5.903   6.587   5.489
43316SOL    HW231846   6.052   6.598   5.517
43317SOL     OW31847   9.062   6.008   4.308
43317SOL    HW131848   9.094   6.090   4.269
43317SOL    HW231849   8.967   6.011   4.297
43318SOL     OW31850  12.730  12.622   3.678
43318SOL    HW131851  12.797  12.652   3.739
43318SOL    HW231852  12.698  12.540   3.716
43319SOL     OW31853   6.243  12.106   0.776
43319SOL    HW131854   6.149  12.087   0.765
43319SOL    HW231855   6.246  12.169   0.848
43320SOL     OW31856  13.615  10.969  10.034
43320SOL    HW131857  13.662  10.957  10.117
43320SOL    HW231858  13.562  11.047  10.048
43321SOL     OW31859   8.938  11.695   6.469
43321SOL    HW131860   8.989  11.613   6.467
43321SOL    HW231861   8.925  11.717   6.377
43322SOL     OW31862  10.783   8.776  11.057
43322SOL    HW131863  10.811   8.850  11.111
43322SOL    HW231864  10.844   8.706  11.077
43323SOL     OW31865   8.968   0.917   9.381
43323SOL    HW131866   9.063   0.911   9.377
43323SOL    HW231867   8.949   0.932   9.473
43324SOL     OW31868   0.332   4.820   0.541
43324SOL    HW131869   0.290   4.885   0.485
43324SOL    HW231870   0.274   4.744   0.536
43325SOL     OW31871   0.481   3.726   7.761
43325SOL    HW131872   0.484   3.810   7.807
43325SOL    HW231873   0.463   3.662   7.830
43326SOL     OW31874  13.153   0.663   1.055
43326SOL    HW131875  13.229   0.616   1.020
43326SOL    HW231876  13.161   0.654   1.150
43327SOL     OW31877   8.879   2.973   5.580
43327SOL    HW131878   8.832   2.904   5.534
43327SOL    HW231879   8.971   2.952   5.570
43328SOL     OW31880   4.130  12.099   3.542
43328SOL    HW131881   4.154  12.128   3.630
43328SOL    HW231882   4.157  12.008   3.538
43329SOL     OW31883   4.955  10.523  10.871
43329SOL    HW131884   4.977  10.496  10.782
43329SOL    HW231885   4.863  10.502  10.881
43330SOL     OW31886   5.809  12.225   1.332
43330SOL    HW131887   5.758  12.295   1.291
43330SOL    HW231888   5.888  12.269   1.365
43331SOL     OW31889  12.873   9.336   6.730
43331SOL    HW131890  12.819   9.260   6.750
43331SOL    HW231891  12.947   9.300   6.681
43332SOL     OW31892  10.745  11.049   9.492
43332SOL    HW131893  10.716  10.988   9.424
43332SOL    HW231894  10.718  11.135   9.460
43333SOL     OW31895   0.347   1.769   3.150
43333SOL    HW131896   0.296   1.775   3.069
43333SOL    HW231897   0.287   1.798   3.219
43334SOL     OW31898  11.133   1.341   5.575
43334SOL    HW131899  11.178   1.374   5.497
43334SOL    HW231900  11.155   1.248   5.577
43335SOL     OW31901   5.912   1.987   8.817
43335SOL    HW131902   5.855   1.984   8.740
43335SOL    HW231903   5.993   1.945   8.789
43336SOL     OW31904   8.748   0.858   0.805
43336SOL    HW131905   8.799   0.802   0.863
43336SOL    HW231906   8.675   0.803   0.776
43337SOL     OW31907   9.370  10.135   3.226
43337SOL    HW131908   9.331  10.050   3.246
43337SOL    HW231909   9.362  10.186   3.306
43338SOL     OW31910  13.083  13.358   0.974
43338SOL    HW131911  13.096  13.353   0.880
43338SOL    HW231912  13.043  13.444   0.989
43339SOL     OW31913  11.014   1.868   9.707
43339SOL    HW131914  10.964   1.882   9.626
43339SOL    HW231915  10.970   1.793   9.749
43340SOL     OW31916   9.994   1.341  12.221
43340SOL    HW131917   9.972   1.425  12.182
43340SOL    HW231918  10.090   1.340  12.223
43341SOL     OW31919  14.315   8.362   9.173
43341SOL    HW131920  14.227   8.328   9.188
43341SOL    HW231921  14.302   8.454   9.149
43342SOL     OW31922  14.766  10.751  10.496
43342SOL    HW131923  14.737  10.839  10.470
43342SOL    HW231924  14.686  10.699  10.500
43343SOL     OW31925   8.502  12.635  14.596
43343SOL    HW131926   8.466  12.553  14.629
43343SOL    HW231927   8.557  12.609  14.522
43344SOL     OW31928   2.906  14.774  14.114
43344SOL    HW131929   2.983  14.751  14.165
43344SOL    HW231930   2.910  14.716  14.037
43345SOL     OW31931   2.110  12.785   7.222
43345SOL    HW131932   2.032  12.785   7.168
43345SOL    HW231933   2.157  12.864   7.198
43346SOL     OW31934   7.557  12.958   1.090
43346SOL    HW131935   7.624  12.981   1.154
43346SOL    HW231936   7.530  13.041   1.052
43347SOL     OW31937   6.683  10.086   1.301
43347SOL    HW131938   6.696  10.001   1.343
43347SOL    HW231939   6.620  10.069   1.232
43348SOL     OW31940   0.525   7.874  11.579
43348SOL    HW131941   0.491   7.797  11.535
43348SOL    HW231942   0.510   7.946  11.518
43349SOL     OW31943   4.960  12.988   4.671
43349SOL    HW131944   4.882  12.950   4.629
43349SOL    HW231945   4.986  13.059   4.613
43350SOL     OW31946   3.581   0.004   5.643
43350SOL    HW131947   3.602   0.086   5.687
43350SOL    HW231948   3.550  14.828   5.713
43351SOL     OW31949  11.621   2.181  10.417
43351SOL    HW131950  11.616   2.191  10.322
43351SOL    HW231951  11.599   2.268  10.451
43352SOL     OW31952  13.851   6.863   4.010
43352SOL    HW131953  13.824   6.789   4.065
43352SOL    HW231954  13.926   6.829   3.960
43353SOL     OW31955   2.130   0.309   8.355
43353SOL    HW131956   2.179   0.318   8.273
43353SOL    HW231957   2.106   0.399   8.378
43354SOL     OW31958  11.229   0.837  12.449
43354SOL    HW131959  11.221   0.857  12.356
43354SOL    HW231960  11.322   0.817  12.462
43355SOL     OW31961   6.906   8.794  13.615
43355SOL    HW131962   6.893   8.704  13.584
43355SOL    HW231963   6.958   8.836  13.546
43356SOL     OW31964   4.231   1.003   3.740
43356SOL    HW131965   4.320   1.008   3.775
43356SOL    HW231966   4.243   1.007   3.645
43357SOL     OW31967   6.204  12.033  10.250
43357SOL    HW131968   6.201  11.982  10.331
43357SOL    HW231969   6.295  12.064  10.246
43358SOL     OW31970   7.472  13.343  13.546
43358SOL    HW131971   7.507  13.431  13.554
43358SOL    HW231972   7.523  13.291  13.609
43359SOL     OW31973  11.344   9.151  13.548
43359SOL    HW131974  11.298   9.070  13.527
43359SOL    HW231975  11.421   9.123  13.598
43360SOL     OW31976   2.405   2.604   6.184
43360SOL    HW131977   2.317   2.638   6.166
43360SOL    HW231978   2.462   2.652   6.124
43361SOL     OW31979  13.169  13.322  11.741
43361SOL    HW131980  13.150  13.310  11.647
43361SOL    HW231981  13.102  13.383  11.770
43362SOL     OW31982   4.531   9.794   3.022
43362SOL    HW131983   4.611   9.837   2.991
43362SOL    HW231984   4.555   9.701   3.026
43363SOL     OW31985   7.507   3.351   4.937
43363SOL    HW131986   7.533   3.278   4.994
43363SOL    HW231987   7.582   3.411   4.941
43364SOL     OW31988   0.274  10.125  13.055
43364SOL    HW131989   0.221  10.068  13.111
43364SOL    HW231990   0.300  10.197  13.114
43365SOL     OW31991   1.697   3.112   0.083
43365SOL    HW131992   1.785   3.150   0.088
43365SOL    HW231993   1.659   3.150   0.004
43366SOL     OW31994   0.877  10.097   3.845
43366SOL    HW131995   0.804  10.041   3.818
43366SOL    HW231996   0.843  10.145   3.921
43367SOL     OW31997   8.194   9.571   0.723
43367SOL    HW131998   8.231   9.490   0.687
43367SOL    HW231999   8.174   9.550   0.814
43368SOL     OW32000  14.607   3.706  12.034
43368SOL    HW132001  14.622   3.714  12.129
43368SOL    HW232002  14.579   3.794  12.008
43369SOL     OW32003   1.518   3.746   3.322
43369SOL    HW132004   1.594   3.701   3.358
43369SOL    HW232005   1.471   3.779   3.398
43370SOL     OW32006   5.963  11.698   0.181
43370SOL    HW132007   6.054  11.727   0.173
43370SOL    HW232008   5.969  11.606   0.204
43371SOL     OW32009  10.468   0.023  10.202
43371SOL    HW132010  10.418  14.824  10.208
43371SOL    HW232011  10.531   0.018  10.274
43372SOL     OW32012   2.004   0.640  11.244
43372SOL    HW132013   1.933   0.662  11.184
43372SOL    HW232014   2.061   0.717  11.243
43373SOL     OW32015   7.746   5.148   0.766
43373SOL    HW132016   7.765   5.111   0.853
43373SOL    HW232017   7.791   5.089   0.705
43374SOL     OW32018   6.317   5.103   2.560
43374SOL    HW132019   6.343   5.158   2.486
43374SOL    HW232020   6.231   5.137   2.586
43375SOL     OW32021   0.378   1.746  11.289
43375SOL    HW132022   0.458   1.798  11.301
43375SOL    HW232023   0.381   1.717  11.198
43376SOL     OW32024   8.616   5.348   9.376
43376SOL    HW132025   8.634   5.403   9.452
43376SOL    HW232026   8.563   5.276   9.410
43377SOL     OW32027  11.139   3.673   7.651
43377SOL    HW132028  11.215   3.731   7.662
43377SOL    HW232029  11.069   3.732   7.624
43378SOL     OW32030  12.510   8.642   1.629
43378SOL    HW132031  12.486   8.623   1.720
43378SOL    HW232032  12.435   8.690   1.594
43379SOL     OW32033   8.716   9.624   5.125
43379SOL    HW132034   8.752   9.666   5.203
43379SOL    HW232035   8.631   9.589   5.153
43380SOL     OW32036  12.047   8.838  11.582
43380SOL    HW132037  12.056   8.744  11.567
43380SOL    HW232038  12.136   8.873  11.574
43381SOL     OW32039  14.297  11.962  11.542
43381SOL    HW132040  14.344  12.026  11.488
43381SOL    HW232041  14.263  11.898  11.479
43382SOL     OW32042  11.766   8.385   7.496
43382SOL    HW132043  11.832   8.452   7.479
43382SOL    HW232044  11.698   8.430   7.547
43383SOL     OW32045   3.539   6.204   8.207
43383SOL    HW132046   3.509   6.276   8.152
43383SOL    HW232047   3.475   6.200   8.278
43384SOL     OW32048   5.382   8.594  10.475
43384SOL    HW132049   5.301   8.611  10.429
43384SOL    HW232050   5.356   8.584  10.567
43385SOL     OW32051  12.397  14.210  10.067
43385SOL    HW132052  12.401  14.288  10.012
43385SOL    HW232053  12.305  14.183  10.063
43386SOL     OW32054   6.875  12.494   2.876
43386SOL    HW132055   6.825  12.573   2.856
43386SOL    HW232056   6.951  12.525   2.925
43387SOL     OW32057  12.893   8.863   9.159
43387SOL    HW132058  12.806   8.888   9.189
43387SOL    HW232059  12.936   8.945   9.137
43388SOL     OW32060  10.223   6.494  12.303
43388SOL    HW132061  10.268   6.551  12.240
43388SOL    HW232062  10.245   6.405  12.276
43389SOL     OW32063   8.635  13.615  13.905
43389SOL    HW132064   8.713  13.561  13.921
43389SOL    HW232065   8.600  13.631  13.993
43390SOL     OW32066   5.372   7.061   5.325
43390SOL    HW132067   5.419   7.139   5.354
43390SOL    HW232068   5.297   7.055   5.385
43391SOL     OW32069  14.682   2.105   7.669
43391SOL    HW132070  14.638   2.177   7.624
43391SOL    HW232071  14.637   2.099   7.754
43392SOL     OW32072   2.286   0.457   2.773
43392SOL    HW132073   2.193   0.451   2.793
43392SOL    HW232074   2.290   0.474   2.679
43393SOL     OW32075   9.835   8.617   3.885
43393SOL    HW132076   9.819   8.531   3.846
43393SOL    HW232077   9.920   8.644   3.851
43394SOL     OW32078   1.377  12.980  13.313
43394SOL    HW132079   1.399  12.968  13.405
43394SOL    HW232080   1.282  12.982  13.311
43395SOL     OW32081  11.040  10.990   4.192
43395SOL    HW132082  11.053  11.073   4.237
43395SOL    HW232083  11.127  10.968   4.157
43396SOL     OW32084   9.811   9.688   1.410
43396SOL    HW132085   9.889   9.640   1.382
43396SOL    HW232086   9.813   9.681   1.506
43397SOL     OW32087   4.982  14.480   5.641
43397SOL    HW132088   4.986  14.573   5.664
43397SOL    HW232089   4.959  14.479   5.548
43398SOL     OW32090   8.088   0.390  10.313
43398SOL    HW132091   8.001   0.353  10.295
43398SOL    HW232092   8.084   0.478  10.277
43399SOL     OW32093   2.743   8.926   4.069
43399SOL    HW132094   2.714   8.858   4.130
43399SOL    HW232095   2.667   8.943   4.014
43400SOL     OW32096  10.980   7.556   7.566
43400SOL    HW132097  10.899   7.584   7.524
43400SOL    HW232098  11.037   7.633   7.565
43401SOL     OW32099   0.189  10.953  14.217
43401SOL    HW132100   0.099  10.924  14.200
43401SOL    HW232101   0.197  10.955  14.312
43402SOL     OW32102   5.618   6.929  14.318
43402SOL    HW132103   5.706   6.965  14.315
43402SOL    HW232104   5.569   6.980  14.253
43403SOL     OW32105   7.678   2.128   9.474
43403SOL    HW132106   7.653   2.101   9.563
43403SOL    HW232107   7.654   2.054   9.419
43404SOL     OW32108   1.082   8.435   1.939
43404SOL    HW132109   1.097   8.457   2.031
43404SOL    HW232110   1.158   8.384   1.913
43405SOL     OW32111  12.961   7.663  13.652
43405SOL    HW132112  12.963   7.674  13.557
43405SOL    HW232113  12.867   7.661  13.674
43406SOL     OW32114   2.863   8.261   9.188
43406SOL    HW132115   2.851   8.352   9.163
43406SOL    HW232116   2.941   8.261   9.244
43407SOL     OW32117   1.624   5.555   7.595
43407SOL    HW132118   1.658   5.576   7.682
43407SOL    HW232119   1.581   5.635   7.566
43408SOL     OW32120   0.016   2.784   6.449
43408SOL    HW132121   0.052   2.787   6.360
43408SOL    HW232122  14.844   2.863   6.456
43409SOL     OW32123   7.670   8.378   3.334
43409SOL    HW132124   7.721   8.361   3.412
43409SOL    HW232125   7.733   8.374   3.262
43410SOL     OW32126  11.957   2.099   3.139
43410SOL    HW132127  11.869   2.098   3.101
43410SOL    HW232128  12.011   2.141   3.072
43411SOL     OW32129   0.453  10.642   7.374
43411SOL    HW132130   0.498  10.566   7.339
43411SOL    HW232131   0.394  10.669   7.304
43412SOL     OW32132   3.040   8.746   8.808
43412SOL    HW132133   2.952   8.784   8.815
43412SOL    HW232134   3.093   8.797   8.869
43413SOL     OW32135  12.658   1.777   5.455
43413SOL    HW132136  12.706   1.706   5.412
43413SOL    HW232137  12.619   1.737   5.533
43414SOL     OW32138   0.567   9.148  14.754
43414SOL    HW132139   0.573   9.192  14.670
43414SOL    HW232140   0.649   9.169  14.799
43415SOL     OW32141   1.625  10.540   2.889
43415SOL    HW132142   1.694  10.519   2.952
43415SOL    HW232143   1.609  10.634   2.902
43416SOL     OW32144   8.004   1.297  11.416
43416SOL    HW132145   8.063   1.228  11.387
43416SOL    HW232146   7.977   1.270  11.504
43417SOL     OW32147  13.679  12.166   8.055
43417SOL    HW132148  13.610  12.192   8.117
43417SOL    HW232149  13.735  12.243   8.049
43418SOL     OW32150  11.389   4.348   3.499
43418SOL    HW132151  11.365   4.263   3.536
43418SOL    HW232152  11.313   4.404   3.518
43419SOL     OW32153   8.154   4.533   7.682
43419SOL    HW132154   8.061   4.539   7.704
43419SOL    HW232155   8.196   4.498   7.761
43420SOL     OW32156  11.998  13.704  10.061
43420SOL    HW132157  12.082  13.745  10.038
43420SOL    HW232158  11.944  13.777  10.090
43421SOL     OW32159   1.627  13.630   3.457
43421SOL    HW132160   1.654  13.717   3.427
43421SOL    HW232161   1.548  13.611   3.406
43422SOL     OW32162  12.709   4.979   4.373
43422SOL    HW132163  12.729   5.005   4.283
43422SOL    HW232164  12.628   4.929   4.367
43423SOL     OW32165   8.553  12.141   1.624
43423SOL    HW132166   8.484  12.143   1.691
43423SOL    HW232167   8.516  12.087   1.554
43424SOL     OW32168   4.674   2.091   7.466
43424SOL    HW132169   4.590   2.107   7.508
43424SOL    HW232170   4.736   2.144   7.517
43425SOL     OW32171   6.336   9.787   2.580
43425SOL    HW132172   6.342   9.795   2.675
43425SOL    HW232173   6.243   9.792   2.561
43426SOL     OW32174  14.494   2.615   4.693
43426SOL    HW132175  14.561   2.616   4.761
43426SOL    HW232176  14.416   2.582   4.737
43427SOL     OW32177   5.617   5.027   4.273
43427SOL    HW132178   5.624   5.018   4.368
43427SOL    HW232179   5.671   5.103   4.252
43428SOL     OW32180   6.861   2.694  12.288
43428SOL    HW132181   6.828   2.783  12.278
43428SOL    HW232182   6.790   2.647  12.330
43429SOL     OW32183   9.371   6.850   7.205
43429SOL    HW132184   9.324   6.787   7.260
43429SOL    HW232185   9.313   6.925   7.200
43430SOL     OW32186   3.612  13.942  13.899
43430SOL    HW132187   3.670  14.018  13.906
43430SOL    HW232188   3.541  13.972  13.843
43431SOL     OW32189   6.997   0.388   0.348
43431SOL    HW132190   6.940   0.318   0.316
43431SOL    HW232191   7.027   0.357   0.434
43432SOL     OW32192   3.091   2.531   8.464
43432SOL    HW132193   3.007   2.559   8.428
43432SOL    HW232194   3.077   2.440   8.489
43433SOL     OW32195   7.494   7.088  14.752
43433SOL    HW132196   7.434   7.132  14.811
43433SOL    HW232197   7.481   7.131  14.667
43434SOL     OW32198  13.843   6.759  11.201
43434SOL    HW132199  13.812   6.763  11.291
43434SOL    HW232200  13.911   6.691  11.202
43435SOL     OW32201   6.670   9.999   9.326
43435SOL    HW132202   6.690   9.982   9.234
43435SOL    HW232203   6.601  10.065   9.324
43436SOL     OW32204   4.307   5.694   4.040
43436SOL    HW132205   4.255   5.618   4.065
43436SOL    HW232206   4.243   5.764   4.025
43437SOL     OW32207   1.882   8.842  13.136
43437SOL    HW132208   1.978   8.839  13.136
43437SOL    HW232209   1.861   8.904  13.206
43438SOL     OW32210  10.938   5.222   4.800
43438SOL    HW132211  10.957   5.225   4.706
43438SOL    HW232212  10.849   5.258   4.808
43439SOL     OW32213  13.690  14.642  14.564
43439SOL    HW132214  13.630  14.656  14.491
43439SOL    HW232215  13.777  14.653  14.526
43440SOL     OW32216   8.939   1.906  10.680
43440SOL    HW132217   8.991   1.887  10.603
43440SOL    HW232218   8.908   1.996  10.667
43441SOL     OW32219   9.748   5.791   9.697
43441SOL    HW132220   9.766   5.852   9.768
43441SOL    HW232221   9.812   5.813   9.630
43442SOL     OW32222  13.998   8.610   4.616
43442SOL    HW132223  14.076   8.649   4.578
43442SOL    HW232224  13.939   8.684   4.631
43443SOL     OW32225  13.413   7.264   2.181
43443SOL    HW132226  13.423   7.337   2.120
43443SOL    HW232227  13.472   7.284   2.253
43444SOL     OW32228  12.483   2.316  11.204
43444SOL    HW132229  12.402   2.364  11.216
43444SOL    HW232230  12.484   2.251  11.275
43445SOL     OW32231   0.212  11.328  10.347
43445SOL    HW132232   0.206  11.244  10.392
43445SOL    HW232233   0.302  11.331  10.315
43446SOL     OW32234   1.887   9.676   7.445
43446SOL    HW132235   1.804   9.632   7.429
43446SOL    HW232236   1.868   9.769   7.434
43447SOL     OW32237   3.336   4.831   2.785
43447SOL    HW132238   3.422   4.866   2.806
43447SOL    HW232239   3.341   4.738   2.808
43448SOL     OW32240   0.867   7.865  13.351
43448SOL    HW132241   0.816   7.875  13.431
43448SOL    HW232242   0.817   7.912  13.284
43449SOL     OW32243  14.691   9.973   6.781
43449SOL    HW132244  14.601  10.004   6.792
43449SOL    HW232245  14.730   9.980   6.869
43450SOL     OW32246  11.603  11.655   5.985
43450SOL    HW132247  11.600  11.587   6.053
43450SOL    HW232248  11.577  11.735   6.031
43451SOL     OW32249   9.549   3.054   7.130
43451SOL    HW132250   9.615   3.072   7.063
43451SOL    HW232251   9.537   3.138   7.175
43452SOL     OW32252  12.133   0.745  10.534
43452SOL    HW132253  12.074   0.805  10.580
43452SOL    HW232254  12.117   0.762  10.442
43453SOL     OW32255   0.383   0.098  12.761
43453SOL    HW132256   0.453   0.163  12.763
43453SOL    HW232257   0.415   0.029  12.703
43454SOL     OW32258   5.554   6.953   7.436
43454SOL    HW132259   5.624   6.896   7.469
43454SOL    HW232260   5.574   6.963   7.343
43455SOL     OW32261  12.298   1.435  13.221
43455SOL    HW132262  12.235   1.507  13.215
43455SOL    HW232263  12.251   1.366  13.267
43456SOL     OW32264  11.417  13.784   4.562
43456SOL    HW132265  11.420  13.689   4.571
43456SOL    HW232266  11.477  13.816   4.629
43457SOL     OW32267  14.364  13.439  10.669
43457SOL    HW132268  14.280  13.422  10.628
43457SOL    HW232269  14.343  13.461  10.760
43458SOL     OW32270   3.876  13.990   4.753
43458SOL    HW132271   3.879  13.977   4.659
43458SOL    HW232272   3.926  13.916   4.790
43459SOL     OW32273  12.708   1.607   2.513
43459SOL    HW132274  12.799   1.615   2.543
43459SOL    HW232275  12.682   1.519   2.537
43460SOL     OW32276   2.799   2.751   7.947
43460SOL    HW132277   2.847   2.695   8.009
43460SOL    HW232278   2.839   2.732   7.862
43461SOL     OW32279   8.013   5.683  10.436
43461SOL    HW132280   7.982   5.769  10.462
43461SOL    HW232281   7.970   5.666  10.353
43462SOL     OW32282   3.966   3.153   5.938
43462SOL    HW132283   3.981   3.240   5.902
43462SOL    HW232284   3.872   3.150   5.957
43463SOL     OW32285   4.628   5.062   8.597
43463SOL    HW132286   4.550   5.024   8.556
43463SOL    HW232287   4.646   5.004   8.671
43464SOL     OW32288  10.031  13.172  14.686
43464SOL    HW132289  10.020  13.177  14.591
43464SOL    HW232290  10.072  13.255  14.711
43465SOL     OW32291   9.956   0.746   5.398
43465SOL    HW132292  10.010   0.671   5.374
43465SOL    HW232293   9.992   0.819   5.346
43466SOL     OW32294   6.984   8.385  14.055
43466SOL    HW132295   7.051   8.441  14.094
43466SOL    HW232296   6.921   8.370  14.126
43467SOL     OW32297  10.542   9.974  12.729
43467SOL    HW132298  10.581  10.061  12.725
43467SOL    HW232299  10.581   9.933  12.806
43468SOL     OW32300   3.644   6.558   7.497
43468SOL    HW132301   3.632   6.481   7.442
43468SOL    HW232302   3.639   6.524   7.587
43469SOL     OW32303   9.910   5.180  10.556
43469SOL    HW132304   9.993   5.228  10.559
43469SOL    HW232305   9.856   5.230  10.495
43470SOL     OW32306   0.800   3.446   7.471
43470SOL    HW132307   0.750   3.525   7.490
43470SOL    HW232308   0.744   3.374   7.499
43471SOL     OW32309  14.164  14.202   6.591
43471SOL    HW132310  14.258  14.186   6.583
43471SOL    HW232311  14.127  14.163   6.512
43472SOL     OW32312  14.625   8.831   0.048
43472SOL    HW132313  14.671   8.831  14.847
43472SOL    HW232314  14.579   8.915   0.050
43473SOL     OW32315   1.634   6.342  10.289
43473SOL    HW132316   1.577   6.308  10.358
43473SOL    HW232317   1.711   6.375  10.335
43474SOL     OW32318  10.326   1.989   3.706
43474SOL    HW132319  10.331   2.072   3.658
43474SOL    HW232320  10.414   1.977   3.742
43475SOL     OW32321   9.964   8.398  11.795
43475SOL    HW132322   9.996   8.442  11.873
43475SOL    HW232323   9.926   8.316  11.827
43476SOL     OW32324  13.186  10.868   0.484
43476SOL    HW132325  13.164  10.940   0.425
43476SOL    HW232326  13.112  10.864   0.545
43477SOL     OW32327   3.681   6.057  11.957
43477SOL    HW132328   3.600   6.024  11.917
43477SOL    HW232329   3.651   6.123  12.018
43478SOL     OW32330   3.256   7.439   9.544
43478SOL    HW132331   3.294   7.440   9.457
43478SOL    HW232332   3.299   7.366   9.588
43479SOL     OW32333  12.226  10.683   9.183
43479SOL    HW132334  12.232  10.720   9.095
43479SOL    HW232335  12.309  10.708   9.225
43480SOL     OW32336  13.358   7.408   3.990
43480SOL    HW132337  13.333   7.499   4.006
43480SOL    HW232338  13.385   7.375   4.076
43481SOL     OW32339   3.195  11.677   7.295
43481SOL    HW132340   3.134  11.739   7.334
43481SOL    HW232341   3.214  11.614   7.365
43482SOL     OW32342   0.796   6.387   2.611
43482SOL    HW132343   0.865   6.424   2.666
43482SOL    HW232344   0.735   6.346   2.673
43483SOL     OW32345   0.636   5.886   9.583
43483SOL    HW132346   0.659   5.942   9.510
43483SOL    HW232347   0.546   5.912   9.606
43484SOL     OW32348   0.432   3.129   6.263
43484SOL    HW132349   0.442   3.166   6.351
43484SOL    HW232350   0.385   3.197   6.214
43485SOL     OW32351  14.650   9.048  12.082
43485SOL    HW132352  14.685   9.127  12.124
43485SOL    HW232353  14.708   8.978  12.110
43486SOL     OW32354   7.399   2.929   0.842
43486SOL    HW132355   7.467   2.964   0.900
43486SOL    HW232356   7.442   2.856   0.796
43487SOL     OW32357   2.562  13.827   8.960
43487SOL    HW132358   2.653  13.851   8.945
43487SOL    HW232359   2.548  13.839   9.054
43488SOL     OW32360  10.649  13.026   4.908
43488SOL    HW132361  10.565  12.987   4.882
43488SOL    HW232362  10.659  13.000   5.000
43489SOL     OW32363   0.295   0.303   6.622
43489SOL    HW132364   0.216   0.251   6.615
43489SOL    HW232365   0.352   0.253   6.681
43490SOL     OW32366  10.661   0.877   0.751
43490SOL    HW132367  10.749   0.909   0.767
43490SOL    HW232368  10.621   0.871   0.838
43491SOL     OW32369   7.011  14.336   2.126
43491SOL    HW132370   7.091  14.304   2.083
43491SOL    HW232371   7.037  14.420   2.164
43492SOL     OW32372   1.412   8.516   8.435
43492SOL    HW132373   1.375   8.557   8.513
43492SOL    HW232374   1.505   8.539   8.438
43493SOL     OW32375   1.646  13.639  11.789
43493SOL    HW132376   1.715  13.669  11.848
43493SOL    HW232377   1.692  13.611  11.710
43494SOL     OW32378  12.560   6.455   4.110
43494SOL    HW132379  12.597   6.424   4.028
43494SOL    HW232380  12.466   6.462   4.094
43495SOL     OW32381  10.360   7.352  14.165
43495SOL    HW132382  10.265   7.351  14.176
43495SOL    HW232383  10.373   7.378  14.074
43496SOL     OW32384   0.298  12.761   3.979
43496SOL    HW132385   0.378  12.720   3.947
43496SOL    HW232386   0.303  12.753   4.075
43497SOL     OW32387   4.008   4.467   3.673
43497SOL    HW132388   3.987   4.539   3.733
43497SOL    HW232389   3.942   4.400   3.692
43498SOL     OW32390   8.038   5.244   5.313
43498SOL    HW132391   7.999   5.331   5.317
43498SOL    HW232392   8.022   5.214   5.223
43499SOL     OW32393   0.719   9.588  11.310
43499SOL    HW132394   0.673   9.505  11.322
43499SOL    HW232395   0.767   9.601  11.391
43500SOL     OW32396  13.538  14.768  12.209
43500SOL    HW132397  13.476  14.720  12.263
43500SOL    HW232398  13.611  14.707  12.196
43501SOL     OW32399  14.306  12.312   6.465
43501SOL    HW132400  14.287  12.223   6.436
43501SOL    HW232401  14.277  12.313   6.557
43502SOL     OW32402   1.311   1.922  14.370
43502SOL    HW132403   1.228   1.875  14.369
43502SOL    HW232404   1.287   2.013  14.354
43503SOL     OW32405   3.904   6.500   1.558
43503SOL    HW132406   3.999   6.509   1.545
43503SOL    HW232407   3.880   6.424   1.506
43504SOL     OW32408   6.567   4.658   4.141
43504SOL    HW132409   6.623   4.657   4.063
43504SOL    HW232410   6.563   4.750   4.166
43505SOL     OW32411   5.862   6.718  12.411
43505SOL    HW132412   5.814   6.678  12.339
43505SOL    HW232413   5.897   6.644  12.460
43506SOL     OW32414  12.266   3.485   1.376
43506SOL    HW132415  12.278   3.565   1.427
43506SOL    HW232416  12.220   3.513   1.297
43507SOL     OW32417   5.786   9.291   3.864
43507SOL    HW132418   5.829   9.375   3.882
43507SOL    HW232419   5.721   9.282   3.934
43508SOL     OW32420   2.283   5.135   1.516
43508SOL    HW132421   2.303   5.041   1.514
43508SOL    HW232422   2.271   5.155   1.609
43509SOL     OW32423   8.929  13.731   7.727
43509SOL    HW132424   8.993  13.665   7.755
43509SOL    HW232425   8.892  13.696   7.646
43510SOL     OW32426  11.404  10.696   6.819
43510SOL    HW132427  11.451  10.643   6.755
43510SOL    HW232428  11.467  10.710   6.890
43511SOL     OW32429   9.316  12.426   0.814
43511SOL    HW132430   9.241  12.375   0.844
43511SOL    HW232431   9.286  12.517   0.819
43512SOL     OW32432  14.539  14.045   5.350
43512SOL    HW132433  14.459  13.997   5.370
43512SOL    HW232434  14.576  14.000   5.274
43513SOL     OW32435   3.063  11.055   6.783
43513SOL    HW132436   3.047  11.061   6.688
43513SOL    HW232437   3.157  11.042   6.791
43514SOL     OW32438  11.042  11.913   1.637
43514SOL    HW132439  11.109  11.902   1.704
43514SOL    HW232440  11.091  11.934   1.558
43515SOL     OW32441   5.550  11.850   6.409
43515SOL    HW132442   5.496  11.905   6.351
43515SOL    HW232443   5.565  11.770   6.359
43516SOL     OW32444  13.715   2.315   2.772
43516SOL    HW132445  13.778   2.280   2.835
43516SOL    HW232446  13.636   2.330   2.824
43517SOL     OW32447   4.899  12.731   3.327
43517SOL    HW132448   4.912  12.792   3.399
43517SOL    HW232449   4.826  12.676   3.355
43518SOL     OW32450   6.043   7.450   0.873
43518SOL    HW132451   6.031   7.355   0.867
43518SOL    HW232452   6.039   7.469   0.967
43519SOL     OW32453  10.361   8.138   1.365
43519SOL    HW132454  10.374   8.230   1.339
43519SOL    HW232455  10.434   8.092   1.325
43520SOL     OW32456  11.878  14.829   4.718
43520SOL    HW132457  11.829   0.022   4.750
43520SOL    HW232458  11.926  14.862   4.642
43521SOL     OW32459  12.121   1.565   3.659
43521SOL    HW132460  12.175   1.486   3.660
43521SOL    HW232461  12.151   1.616   3.734
43522SOL     OW32462  13.940  10.296   8.183
43522SOL    HW132463  13.946  10.258   8.271
43522SOL    HW232464  13.919  10.388   8.199
43523SOL     OW32465  10.129   8.870  14.023
43523SOL    HW132466  10.051   8.905  14.067
43523SOL    HW232467  10.142   8.928  13.948
43524SOL     OW32468   5.856  14.258   6.486
43524SOL    HW132469   5.894  14.209   6.413
43524SOL    HW232470   5.925  14.258   6.553
43525SOL     OW32471  12.135   6.755   4.910
43525SOL    HW132472  12.127   6.801   4.993
43525SOL    HW232473  12.048   6.763   4.869
43526SOL     OW32474   6.170   1.543   8.737
43526SOL    HW132475   6.250   1.502   8.769
43526SOL    HW232476   6.108   1.535   8.809
43527SOL     OW32477   6.867  13.668   9.352
43527SOL    HW132478   6.785  13.717   9.350
43527SOL    HW232479   6.924  13.713   9.289
43528SOL     OW32480   9.402  11.486  13.318
43528SOL    HW132481   9.431  11.434  13.243
43528SOL    HW232482   9.439  11.573  13.303
43529SOL     OW32483   1.747   1.154   2.576
43529SOL    HW132484   1.666   1.130   2.622
43529SOL    HW232485   1.722   1.228   2.521
43530SOL     OW32486   4.474   9.758   1.866
43530SOL    HW132487   4.496   9.790   1.779
43530SOL    HW232488   4.397   9.703   1.853
43531SOL     OW32489   1.535   1.939  14.500
43531SOL    HW132490   1.555   1.846  14.512
43531SOL    HW232491   1.456   1.940  14.446
43532SOL     OW32492   0.167   2.780  11.105
43532SOL    HW132493   0.074   2.773  11.082
43532SOL    HW232494   0.213   2.758  11.023
43533SOL     OW32495   5.320   6.205  13.816
43533SOL    HW132496   5.342   6.293  13.847
43533SOL    HW232497   5.261   6.170  13.883
43534SOL     OW32498   8.550   9.927   6.475
43534SOL    HW132499   8.610   9.853   6.473
43534SOL    HW232500   8.486   9.908   6.406
43535SOL     OW32501   1.188  12.112   6.329
43535SOL    HW132502   1.118  12.166   6.292
43535SOL    HW232503   1.266  12.137   6.281
43536SOL     OW32504   4.447   2.826   3.371
43536SOL    HW132505   4.425   2.899   3.429
43536SOL    HW232506   4.487   2.867   3.295
43537SOL     OW32507  11.833   1.969  10.770
43537SOL    HW132508  11.851   2.038  10.834
43537SOL    HW232509  11.917   1.926  10.756
43538SOL     OW32510  13.003  13.056  14.423
43538SOL    HW132511  13.030  12.971  14.389
43538SOL    HW232512  12.994  13.111  14.346
43539SOL     OW32513  13.519   6.574   2.331
43539SOL    HW132514  13.426   6.564   2.353
43539SOL    HW232515  13.560   6.600   2.413
43540SOL     OW32516   0.179   5.665  11.562
43540SOL    HW132517   0.116   5.650  11.493
43540SOL    HW232518   0.127   5.668  11.642
43541SOL     OW32519   7.605  11.108   0.072
43541SOL    HW132520   7.586  11.039   0.008
43541SOL    HW232521   7.602  11.063   0.156
43542SOL     OW32522   5.684   3.257   5.088
43542SOL    HW132523   5.669   3.197   5.161
43542SOL    HW232524   5.659   3.343   5.123
43543SOL     OW32525   4.517  12.579   1.315
43543SOL    HW132526   4.523  12.531   1.232
43543SOL    HW232527   4.601  12.564   1.358
43544SOL     OW32528  10.347   2.578   6.064
43544SOL    HW132529  10.290   2.651   6.090
43544SOL    HW232530  10.430   2.619   6.041
43545SOL     OW32531  14.566   3.597   1.802
43545SOL    HW132532  14.599   3.687   1.804
43545SOL    HW232533  14.591   3.561   1.887
43546SOL     OW32534   3.905   1.198   0.026
43546SOL    HW132535   3.972   1.227  14.847
43546SOL    HW232536   3.954   1.162   0.100
43547SOL     OW32537   7.980   3.236   3.431
43547SOL    HW132538   7.936   3.196   3.356
43547SOL    HW232539   8.029   3.309   3.393
43548SOL     OW32540  11.940   2.247  12.133
43548SOL    HW132541  11.986   2.331  12.138
43548SOL    HW232542  11.857   2.268  12.090
43549SOL     OW32543   0.690   4.908  13.022
43549SOL    HW132544   0.670   4.817  13.001
43549SOL    HW232545   0.741   4.903  13.103
43550SOL     OW32546  11.060   8.173   8.756
43550SOL    HW132547  11.036   8.164   8.848
43550SOL    HW232548  11.110   8.255   8.753
43551SOL     OW32549  13.129  13.485   3.698
43551SOL    HW132550  13.078  13.417   3.654
43551SOL    HW232551  13.210  13.492   3.647
43552SOL     OW32552   6.305   8.634   1.457
43552SOL    HW132553   6.284   8.570   1.388
43552SOL    HW232554   6.373   8.689   1.418
43553SOL     OW32555   9.868  13.983   7.845
43553SOL    HW132556   9.783  14.014   7.878
43553SOL    HW232557   9.846  13.907   7.791
43554SOL     OW32558  14.381   6.888  13.380
43554SOL    HW132559  14.453   6.826  13.374
43554SOL    HW232560  14.309   6.846  13.334
43555SOL     OW32561   3.382   5.600  13.483
43555SOL    HW132562   3.466   5.646  13.481
43555SOL    HW232563   3.338   5.632  13.561
43556SOL     OW32564   5.470   7.575   0.998
43556SOL    HW132565   5.564   7.563   1.012
43556SOL    HW232566   5.436   7.486   0.983
43557SOL     OW32567   2.151  11.686   9.852
43557SOL    HW132568   2.224  11.714   9.798
43557SOL    HW232569   2.143  11.754   9.918
43558SOL     OW32570   0.594   6.019  12.823
43558SOL    HW132571   0.665   5.973  12.778
43558SOL    HW232572   0.589   6.104  12.779
43559SOL     OW32573   8.786   1.694   7.140
43559SOL    HW132574   8.705   1.697   7.090
43559SOL    HW232575   8.762   1.652   7.223
43560SOL     OW32576  11.058  12.360  14.492
43560SOL    HW132577  11.005  12.430  14.530
43560SOL    HW232578  11.148  12.384  14.513
43561SOL     OW32579  11.643  12.478   3.259
43561SOL    HW132580  11.724  12.470   3.309
43561SOL    HW232581  11.653  12.417   3.187
43562SOL     OW32582  11.101   3.773   4.581
43562SOL    HW132583  11.108   3.692   4.631
43562SOL    HW232584  11.147   3.755   4.499
43563SOL     OW32585  13.436   1.670   9.899
43563SOL    HW132586  13.514   1.705   9.856
43563SOL    HW232587  13.461   1.663   9.991
43564SOL     OW32588   8.148   7.956   0.200
43564SOL    HW132589   8.072   7.994   0.156
43564SOL    HW232590   8.223   8.002   0.163
43565SOL     OW32591   6.723  12.801  14.499
43565SOL    HW132592   6.659  12.783  14.568
43565SOL    HW232593   6.688  12.878  14.453
43566SOL     OW32594  11.736   9.684   6.223
43566SOL    HW132595  11.682   9.605   6.230
43566SOL    HW232596  11.694   9.747   6.281
43567SOL     OW32597  11.735   7.089  11.424
43567SOL    HW132598  11.829   7.077  11.408
43567SOL    HW232599  11.698   7.001  11.414
43568SOL     OW32600   3.502   9.896   2.810
43568SOL    HW132601   3.575   9.889   2.871
43568SOL    HW232602   3.494   9.809   2.771
43569SOL     OW32603   5.458  12.183  10.386
43569SOL    HW132604   5.488  12.235  10.461
43569SOL    HW232605   5.363  12.197  10.384
43570SOL     OW32606  11.730   8.422   5.838
43570SOL    HW132607  11.666   8.377   5.782
43570SOL    HW232608  11.701   8.403   5.927
43571SOL     OW32609   0.636  10.189  14.705
43571SOL    HW132610   0.690  10.131  14.651
43571SOL    HW232611   0.610  10.260  14.646
43572SOL     OW32612  12.869  11.036   8.303
43572SOL    HW132613  12.917  11.105   8.348
43572SOL    HW232614  12.926  11.009   8.232
43573SOL     OW32615   7.369  14.331  14.721
43573SOL    HW132616   7.350  14.380  14.801
43573SOL    HW232617   7.423  14.390  14.669
43574SOL     OW32618   7.516   1.925   7.649
43574SOL    HW132619   7.485   1.835   7.655
43574SOL    HW232620   7.592   1.921   7.590
43575SOL     OW32621   4.401   9.080   6.071
43575SOL    HW132622   4.392   9.175   6.072
43575SOL    HW232623   4.452   9.060   6.150
43576SOL     OW32624   3.652   9.645  11.706
43576SOL    HW132625   3.600   9.597  11.771
43576SOL    HW232626   3.613   9.732  11.704
43577SOL     OW32627  14.220   0.755   7.961
43577SOL    HW132628  14.315   0.754   7.970
43577SOL    HW232629  14.190   0.690   8.024
43578SOL     OW32630   9.129  14.113  13.307
43578SOL    HW132631   9.061  14.073  13.254
43578SOL    HW232632   9.119  14.072  13.393
43579SOL     OW32633   0.975  14.735  10.582
43579SOL    HW132634   1.007  14.695  10.501
43579SOL    HW232635   1.038  14.707  10.648
43580SOL     OW32636   8.330   2.974   0.966
43580SOL    HW132637   8.319   2.976   1.061
43580SOL    HW232638   8.355   3.064   0.943
43581SOL     OW32639  13.867   3.998  12.239
43581SOL    HW132640  13.879   3.922  12.297
43581SOL    HW232641  13.929   4.063  12.271
43582SOL     OW32642   5.263  13.079   4.576
43582SOL    HW132643   5.278  13.083   4.482
43582SOL    HW232644   5.218  13.161   4.596
43583SOL     OW32645  10.790   5.704  11.458
43583SOL    HW132646  10.766   5.638  11.392
43583SOL    HW232647  10.725   5.774  11.446
43584SOL     OW32648  13.954   5.296  14.654
43584SOL    HW132649  13.982   5.337  14.572
43584SOL    HW232650  13.859   5.288  14.645
43585SOL     OW32651   5.779   2.043   3.385
43585SOL    HW132652   5.689   2.025   3.412
43585SOL    HW232653   5.806   1.966   3.335
43586SOL     OW32654   3.922  13.987   1.732
43586SOL    HW132655   3.894  14.059   1.788
43586SOL    HW232656   3.840  13.952   1.696
43587SOL     OW32657  13.615  10.996   4.445
43587SOL    HW132658  13.611  11.047   4.526
43587SOL    HW232659  13.705  11.004   4.416
43588SOL     OW32660  12.235   1.580   0.915
43588SOL    HW132661  12.321   1.568   0.874
43588SOL    HW232662  12.254   1.589   1.009
43589SOL     OW32663  12.712   8.145  10.840
43589SOL    HW132664  12.670   8.172  10.758
43589SOL    HW232665  12.639   8.126  10.899
43590SOL     OW32666   4.072   0.147   7.176
43590SOL    HW132667   4.073   0.136   7.271
43590SOL    HW232668   4.024   0.071   7.144
43591SOL     OW32669   4.574  11.581   5.404
43591SOL    HW132670   4.501  11.635   5.434
43591SOL    HW232671   4.540  11.536   5.327
43592SOL     OW32672   6.923  13.873   5.474
43592SOL    HW132673   6.837  13.881   5.434
43592SOL    HW232674   6.984  13.902   5.407
43593SOL     OW32675  14.819   5.679  13.197
43593SOL    HW132676  14.789   5.643  13.113
43593SOL    HW232677  14.749   5.657  13.258
43594SOL     OW32678   8.413   1.541  13.877
43594SOL    HW132679   8.454   1.572  13.796
43594SOL    HW232680   8.483   1.493  13.922
43595SOL     OW32681   4.830   5.297  13.450
43595SOL    HW132682   4.830   5.350  13.530
43595SOL    HW232683   4.794   5.213  13.476
43596SOL     OW32684  11.555   1.743  10.647
43596SOL    HW132685  11.600   1.818  10.608
43596SOL    HW232686  11.608   1.721  10.723
43597SOL     OW32687  11.544  13.055   8.500
43597SOL    HW132688  11.492  13.134   8.519
43597SOL    HW232689  11.564  13.063   8.407
43598SOL     OW32690  13.323  11.416   8.028
43598SOL    HW132691  13.371  11.486   7.985
43598SOL    HW232692  13.259  11.461   8.083
43599SOL     OW32693   5.500  14.694   7.892
43599SOL    HW132694   5.538  14.765   7.841
43599SOL    HW232695   5.547  14.696   7.975
43600SOL     OW32696   0.134   1.063   9.802
43600SOL    HW132697   0.194   1.013   9.856
43600SOL    HW232698   0.102   1.133   9.860
43601SOL     OW32699   2.926   7.471  14.394
43601SOL    HW132700   2.955   7.542  14.337
43601SOL    HW232701   2.936   7.392  14.341
43602SOL     OW32702   2.295  14.629  13.278
43602SOL    HW132703   2.285  14.549  13.225
43602SOL    HW232704   2.232  14.691  13.241
43603SOL     OW32705  10.840   0.619   7.416
43603SOL    HW132706  10.918   0.580   7.456
43603SOL    HW232707  10.767   0.586   7.468
43604SOL     OW32708  13.554   4.043   6.747
43604SOL    HW132709  13.600   3.959   6.734
43604SOL    HW232710  13.486   4.043   6.681
43605SOL     OW32711   4.043   9.748   4.425
43605SOL    HW132712   4.125   9.794   4.408
43605SOL    HW232713   4.045   9.729   4.519
43606SOL     OW32714   2.356   2.179   3.772
43606SOL    HW132715   2.262   2.168   3.755
43606SOL    HW232716   2.389   2.089   3.778
43607SOL     OW32717  14.820   4.399  10.133
43607SOL    HW132718  14.725   4.411  10.141
43607SOL    HW232719  14.850   4.477  10.086
43608SOL     OW32720  10.354   9.447   2.793
43608SOL    HW132721  10.360   9.434   2.888
43608SOL    HW232722  10.432   9.403   2.758
43609SOL     OW32723   8.935  12.209   6.585
43609SOL    HW132724   8.970  12.121   6.600
43609SOL    HW232725   8.982  12.240   6.507
43610SOL     OW32726  10.242   1.672   5.703
43610SOL    HW132727  10.169   1.668   5.765
43610SOL    HW232728  10.215   1.738   5.639
43611SOL     OW32729   2.767   6.635   4.703
43611SOL    HW132730   2.829   6.685   4.754
43611SOL    HW232731   2.777   6.545   4.734
43612SOL     OW32732   1.733   7.397  13.509
43612SOL    HW132733   1.696   7.350  13.583
43612SOL    HW232734   1.659   7.416  13.452
43613SOL     OW32735   0.443  12.171  14.437
43613SOL    HW132736   0.531  12.202  14.456
43613SOL    HW232737   0.387  12.215  14.500
43614SOL     OW32738   2.447   1.200  11.935
43614SOL    HW132739   2.430   1.107  11.950
43614SOL    HW232740   2.373   1.245  11.975
43615SOL     OW32741   5.419   2.566   5.705
43615SOL    HW132742   5.337   2.605   5.735
43615SOL    HW232743   5.421   2.479   5.745
43616SOL     OW32744   2.493  13.934   5.749
43616SOL    HW132745   2.421  13.906   5.691
43616SOL    HW232746   2.571  13.931   5.693
43617SOL     OW32747   0.765   9.106  10.486
43617SOL    HW132748   0.796   9.140  10.570
43617SOL    HW232749   0.763   9.011  10.498
43618SOL     OW32750   2.448   6.129  11.150
43618SOL    HW132751   2.525   6.079  11.176
43618SOL    HW232752   2.389   6.064  11.111
43619SOL     OW32753   1.060  12.062   0.362
43619SOL    HW132754   1.002  12.093   0.293
43619SOL    HW232755   1.114  11.994   0.321
43620SOL     OW32756   6.515  11.131   7.348
43620SOL    HW132757   6.493  11.123   7.255
43620SOL    HW232758   6.503  11.224   7.367
43621SOL     OW32759   1.853   3.354   6.131
43621SOL    HW132760   1.915   3.359   6.059
43621SOL    HW232761   1.768   3.375   6.091
43622SOL     OW32762   7.376   8.391  14.811
43622SOL    HW132763   7.362   8.304  14.849
43622SOL    HW232764   7.373   8.451   0.003
43623SOL     OW32765   8.456   8.528   6.514
43623SOL    HW132766   8.377   8.564   6.555
43623SOL    HW232767   8.491   8.599   6.461
43624SOL     OW32768   2.457   1.661   6.977
43624SOL    HW132769   2.441   1.590   7.040
43624SOL    HW232770   2.511   1.724   7.025
43625SOL     OW32771   8.443   1.950   8.702
43625SOL    HW132772   8.460   1.856   8.702
43625SOL    HW232773   8.445   1.974   8.795
43626SOL     OW32774  12.366   5.721   1.380
43626SOL    HW132775  12.366   5.713   1.475
43626SOL    HW232776  12.405   5.639   1.349
43627SOL     OW32777  14.583   6.072  13.059
43627SOL    HW132778  14.578   6.167  13.061
43627SOL    HW232779  14.572   6.044  13.150
43628SOL     OW32780   9.684  12.646   8.706
43628SOL    HW132781   9.749  12.662   8.638
43628SOL    HW232782   9.662  12.553   8.696
43629SOL     OW32783   1.596   1.872  13.865
43629SOL    HW132784   1.601   1.915  13.950
43629SOL    HW232785   1.603   1.779  13.885
43630SOL     OW32786  10.737  12.762  14.267
43630SOL    HW132787  10.752  12.806  14.184
43630SOL    HW232788  10.691  12.681  14.243
43631SOL     OW32789   0.468   4.309   9.573
43631SOL    HW132790   0.396   4.325   9.634
43631SOL    HW232791   0.500   4.222   9.596
43632SOL     OW32792  12.767   3.895   5.818
43632SOL    HW132793  12.720   3.816   5.792
43632SOL    HW232794  12.733   3.964   5.762
43633SOL     OW32795  11.797  10.005  10.141
43633SOL    HW132796  11.815  10.009  10.047
43633SOL    HW232797  11.873  10.046  10.182
43634SOL     OW32798  14.208   8.186   4.019
43634SOL    HW132799  14.280   8.248   4.004
43634SOL    HW232800  14.200   8.138   3.937
43635SOL     OW32801   1.131   3.440   7.582
43635SOL    HW132802   1.157   3.506   7.517
43635SOL    HW232803   1.040   3.421   7.561
43636SOL     OW32804   6.642  12.368   8.563
43636SOL    HW132805   6.659  12.425   8.488
43636SOL    HW232806   6.565  12.404   8.605
43637SOL     OW32807  10.897   1.158   9.557
43637SOL    HW132808  10.888   1.063   9.548
43637SOL    HW232809  10.855   1.178   9.640
43638SOL     OW32810   9.803   4.054   6.700
43638SOL    HW132811   9.734   4.042   6.765
43638SOL    HW232812   9.866   3.984   6.717
43639SOL     OW32813   1.271   6.969   9.934
43639SOL    HW132814   1.284   7.052   9.888
43639SOL    HW232815   1.275   6.993  10.027
43640SOL     OW32816   7.668  12.062   6.948
43640SOL    HW132817   7.662  12.005   7.024
43640SOL    HW232818   7.750  12.038   6.906
43641SOL     OW32819  13.146   8.667   4.952
43641SOL    HW132820  13.114   8.585   4.989
43641SOL    HW232821  13.146   8.729   5.026
43642SOL     OW32822   7.921   7.688   3.257
43642SOL    HW132823   7.901   7.647   3.173
43642SOL    HW232824   7.835   7.704   3.297
43643SOL     OW32825   6.436   6.373   1.462
43643SOL    HW132826   6.360   6.396   1.409
43643SOL    HW232827   6.504   6.350   1.399
43644SOL     OW32828   2.220   9.143   9.716
43644SOL    HW132829   2.198   9.223   9.668
43644SOL    HW232830   2.172   9.150   9.798
43645SOL     OW32831   7.114  13.699  13.585
43645SOL    HW132832   7.153  13.614  13.565
43645SOL    HW232833   7.059  13.683  13.662
43646SOL     OW32834  14.576  13.865  12.871
43646SOL    HW132835  14.554  13.885  12.962
43646SOL    HW232836  14.651  13.807  12.876
43647SOL     OW32837   2.373  11.149  10.628
43647SOL    HW132838   2.467  11.131  10.634
43647SOL    HW232839   2.356  11.206  10.704
43648SOL     OW32840   3.945   4.706   3.868
43648SOL    HW132841   3.996   4.707   3.949
43648SOL    HW232842   3.961   4.793   3.830
43649SOL     OW32843   8.951  13.714   1.728
43649SOL    HW132844   8.925  13.740   1.639
43649SOL    HW232845   9.029  13.660   1.715
43650SOL     OW32846  13.520   8.025  11.895
43650SOL    HW132847  13.514   8.090  11.825
43650SOL    HW232848  13.432   7.988  11.902
43651SOL     OW32849   7.956   7.933   3.161
43651SOL    HW132850   7.969   7.847   3.202
43651SOL    HW232851   8.034   7.945   3.106
43652SOL     OW32852   4.347  12.031   1.726
43652SOL    HW132853   4.417  11.966   1.731
43652SOL    HW232854   4.387  12.112   1.757
43653SOL     OW32855  12.402   9.336   5.531
43653SOL    HW132856  12.480   9.288   5.506
43653SOL    HW232857  12.418   9.362   5.622
43654SOL     OW32858   3.399   0.233   0.826
43654SOL    HW132859   3.446   0.311   0.854
43654SOL    HW232860   3.452   0.160   0.859
43655SOL     OW32861   1.295  13.471   4.701
43655SOL    HW132862   1.264  13.429   4.782
43655SOL    HW232863   1.237  13.545   4.688
43656SOL     OW32864   4.731  10.610  11.104
43656SOL    HW132865   4.670  10.679  11.079
43656SOL    HW232866   4.719  10.542  11.038
43657SOL     OW32867   3.077   4.102   8.850
43657SOL    HW132868   3.116   4.046   8.783
43657SOL    HW232869   3.052   4.182   8.803
43658SOL     OW32870   3.151   7.298  10.753
43658SOL    HW132871   3.207   7.368  10.720
43658SOL    HW232872   3.212   7.232  10.787
43659SOL     OW32873   1.035  13.523   1.720
43659SOL    HW132874   0.986  13.491   1.645
43659SOL    HW232875   0.990  13.484   1.796
43660SOL     OW32876   4.487   9.589  14.525
43660SOL    HW132877   4.576   9.588  14.490
43660SOL    HW232878   4.467   9.497  14.545
43661SOL     OW32879   8.375   7.925  14.707
43661SOL    HW132880   8.327   8.006  14.688
43661SOL    HW232881   8.460   7.955  14.740
43662SOL     OW32882   3.273   6.534   3.592
43662SOL    HW132883   3.344   6.477   3.621
43662SOL    HW232884   3.260   6.513   3.500
43663SOL     OW32885   3.152   6.098   3.290
43663SOL    HW132886   3.133   6.192   3.285
43663SOL    HW232887   3.087   6.057   3.233
43664SOL     OW32888   0.096   5.716   7.052
43664SOL    HW132889   0.014   5.765   7.056
43664SOL    HW232890   0.112   5.688   7.142
43665SOL     OW32891   1.477   7.621   8.673
43665SOL    HW132892   1.528   7.544   8.647
43665SOL    HW232893   1.541   7.692   8.677
43666SOL     OW32894   1.519   6.030  11.218
43666SOL    HW132895   1.598   6.061  11.173
43666SOL    HW232896   1.502   6.096  11.285
43667SOL     OW32897   2.500   3.187   3.703
43667SOL    HW132898   2.494   3.279   3.728
43667SOL    HW232899   2.594   3.167   3.705
43668SOL     OW32900  14.245   0.385   7.233
43668SOL    HW132901  14.203   0.361   7.315
43668SOL    HW232902  14.336   0.358   7.244
43669SOL     OW32903   1.728  12.976   7.649
43669SOL    HW132904   1.646  12.948   7.690
43669SOL    HW232905   1.780  13.012   7.722
43670SOL     OW32906   5.363  11.909   7.539
43670SOL    HW132907   5.374  11.975   7.607
43670SOL    HW232908   5.375  11.957   7.457
43671SOL     OW32909   2.766  10.189  10.818
43671SOL    HW132910   2.671  10.188  10.830
43671SOL    HW232911   2.802  10.166  10.903
43672SOL     OW32912   4.321   9.964   6.233
43672SOL    HW132913   4.357  10.053   6.229
43672SOL    HW232914   4.227   9.976   6.217
43673SOL     OW32915   5.591   5.867  11.119
43673SOL    HW132916   5.532   5.824  11.181
43673SOL    HW232917   5.542   5.868  11.037
43674SOL     OW32918   2.787  14.264  13.603
43674SOL    HW132919   2.813  14.336  13.661
43674SOL    HW232920   2.800  14.185  13.655
43675SOL     OW32921   2.749   0.704  12.378
43675SOL    HW132922   2.837   0.673  12.398
43675SOL    HW232923   2.756   0.739  12.289
43676SOL     OW32924  11.527   9.885  14.614
43676SOL    HW132925  11.559   9.923  14.696
43676SOL    HW232926  11.502   9.960  14.561
43677SOL     OW32927   6.666  13.099   0.792
43677SOL    HW132928   6.650  13.006   0.809
43677SOL    HW232929   6.580  13.140   0.797
43678SOL     OW32930   9.027   4.285   0.535
43678SOL    HW132931   9.088   4.213   0.518
43678SOL    HW232932   8.976   4.256   0.611
43679SOL     OW32933  11.563  10.942   5.068
43679SOL    HW132934  11.535  10.851   5.078
43679SOL    HW232935  11.657  10.937   5.053
43680SOL     OW32936  14.143  10.876   7.507
43680SOL    HW132937  14.108  10.921   7.584
43680SOL    HW232938  14.071  10.822   7.476
43681SOL     OW32939   4.579  10.032   0.327
43681SOL    HW132940   4.527  10.060   0.252
43681SOL    HW232941   4.608   9.944   0.304
43682SOL     OW32942   9.402  14.779   0.191
43682SOL    HW132943   9.416  14.690   0.224
43682SOL    HW232944   9.489  14.807   0.162
43683SOL     OW32945   4.608   1.906   3.384
43683SOL    HW132946   4.563   1.855   3.316
43683SOL    HW232947   4.557   1.987   3.391
43684SOL     OW32948  12.093  14.216   0.190
43684SOL    HW132949  12.030  14.276   0.231
43684SOL    HW232950  12.114  14.153   0.259
43685SOL     OW32951   5.652  12.081   2.947
43685SOL    HW132952   5.724  12.018   2.961
43685SOL    HW232953   5.693  12.167   2.957
43686SOL     OW32954   3.205  10.274  13.840
43686SOL    HW132955   3.115  10.243  13.842
43686SOL    HW232956   3.254  10.209  13.890
43687SOL     OW32957  12.596  14.172  11.079
43687SOL    HW132958  12.540  14.240  11.041
43687SOL    HW232959  12.542  14.130  11.146
43688SOL     OW32960  14.002   3.093   6.185
43688SOL    HW132961  13.917   3.101   6.229
43688SOL    HW232962  14.041   3.014   6.223
43689SOL     OW32963   5.740   3.065  12.870
43689SOL    HW132964   5.776   3.081  12.783
43689SOL    HW232965   5.814   3.076  12.929
43690SOL     OW32966   0.839  13.602  11.147
43690SOL    HW132967   0.755  13.596  11.194
43690SOL    HW232968   0.904  13.576  11.212
43691SOL     OW32969   5.506   8.423   6.347
43691SOL    HW132970   5.555   8.420   6.429
43691SOL    HW232971   5.512   8.514   6.319
43692SOL     OW32972  14.275  10.385  13.427
43692SOL    HW132973  14.217  10.447  13.381
43692SOL    HW232974  14.344  10.366  13.363
43693SOL     OW32975  13.606   6.363   7.234
43693SOL    HW132976  13.611   6.392   7.325
43693SOL    HW232977  13.574   6.273   7.239
43694SOL     OW32978   0.055  12.456  14.025
43694SOL    HW132979   0.100  12.380  13.989
43694SOL    HW232980   0.115  12.492  14.091
43695SOL     OW32981  12.890  12.146   6.083
43695SOL    HW132982  12.910  12.066   6.132
43695SOL    HW232983  12.913  12.125   5.992
43696SOL     OW32984   0.073   0.157   7.702
43696SOL    HW132985   0.051   0.243   7.737
43696SOL    HW232986  14.875   0.105   7.714
43697SOL     OW32987   4.681   4.501   9.323
43697SOL    HW132988   4.628   4.421   9.325
43697SOL    HW232989   4.766   4.475   9.358
43698SOL     OW32990  13.720   2.237   3.620
43698SOL    HW132991  13.682   2.256   3.535
43698SOL    HW232992  13.781   2.165   3.603
43699SOL     OW32993  11.838   0.843   4.300
43699SOL    HW132994  11.865   0.761   4.258
43699SOL    HW232995  11.899   0.853   4.373
43700SOL     OW32996  12.582   2.439   8.494
43700SOL    HW132997  12.532   2.369   8.452
43700SOL    HW232998  12.519   2.511   8.503
43701SOL     OW32999   0.944   3.324   9.708
43701SOL    HW133000   0.878   3.293   9.647
43701SOL    HW233001   0.966   3.412   9.677
43702SOL     OW33002   2.793   2.460   4.721
43702SOL    HW133003   2.884   2.466   4.691
43702SOL    HW233004   2.780   2.540   4.773
43703SOL     OW33005  13.170   5.801   2.824
43703SOL    HW133006  13.194   5.715   2.791
43703SOL    HW233007  13.208   5.805   2.912
43704SOL     OW33008   2.601   1.937  14.231
43704SOL    HW133009   2.575   1.845  14.236
43704SOL    HW233010   2.696   1.936  14.237
43705SOL     OW33011   2.306   4.144  12.820
43705SOL    HW133012   2.384   4.166  12.770
43705SOL    HW233013   2.238   4.202  12.785
43706SOL     OW33014  13.904   4.830   0.791
43706SOL    HW133015  13.957   4.781   0.853
43706SOL    HW233016  13.835   4.769   0.763
43707SOL     OW33017   3.399   5.834  14.429
43707SOL    HW133018   3.470   5.780  14.464
43707SOL    HW233019   3.415   5.835  14.335
43708SOL     OW33020  12.656   2.331   9.058
43708SOL    HW133021  12.586   2.329   8.993
43708SOL    HW233022  12.651   2.246   9.102
43709SOL     OW33023   1.628   9.527   2.419
43709SOL    HW133024   1.536   9.506   2.405
43709SOL    HW233025   1.628   9.619   2.446
43710SOL     OW33026   8.716  11.838   8.451
43710SOL    HW133027   8.730  11.858   8.358
43710SOL    HW233028   8.655  11.765   8.451
43711SOL     OW33029   2.351   3.568   4.283
43711SOL    HW133030   2.325   3.649   4.238
43711SOL    HW233031   2.398   3.518   4.216
43712SOL     OW33032  10.531   3.652   2.631
43712SOL    HW133033  10.481   3.651   2.712
43712SOL    HW233034  10.502   3.731   2.585
43713SOL     OW33035   8.475   5.438   2.206
43713SOL    HW133036   8.553   5.431   2.151
43713SOL    HW233037   8.416   5.371   2.172
43714SOL     OW33038   9.684  13.752  10.823
43714SOL    HW133039   9.731  13.836  10.819
43714SOL    HW233040   9.591  13.777  10.820
43715SOL     OW33041  12.827  12.135  14.451
43715SOL    HW133042  12.860  12.057  14.494
43715SOL    HW233043  12.826  12.112  14.358
43716SOL     OW33044  12.399   2.020   9.298
43716SOL    HW133045  12.484   1.977   9.289
43716SOL    HW233046  12.351   1.998   9.218
43717SOL     OW33047   0.197   6.212   3.205
43717SOL    HW133048   0.180   6.266   3.128
43717SOL    HW233049   0.206   6.124   3.170
43718SOL     OW33050   5.826  11.729   0.704
43718SOL    HW133051   5.767  11.802   0.723
43718SOL    HW233052   5.894  11.766   0.648
43719SOL     OW33053   1.875   3.146   5.796
43719SOL    HW133054   1.780   3.150   5.810
43719SOL    HW233055   1.885   3.136   5.701
43720SOL     OW33056   5.652   7.967  11.248
43720SOL    HW133057   5.636   8.031  11.317
43720SOL    HW233058   5.595   7.894  11.270
43721SOL     OW33059   1.029   5.538  13.391
43721SOL    HW133060   1.085   5.480  13.443
43721SOL    HW233061   1.034   5.504  13.302
43722SOL     OW33062   5.503   4.636  13.023
43722SOL    HW133063   5.540   4.561  13.071
43722SOL    HW233064   5.563   4.708  13.043
43723SOL     OW33065   5.725   4.110   9.494
43723SOL    HW133066   5.753   4.026   9.459
43723SOL    HW233067   5.795   4.171   9.471
43724SOL     OW33068   3.641  14.358  10.227
43724SOL    HW133069   3.560  14.407  10.223
43724SOL    HW233070   3.626  14.291  10.294
43725SOL     OW33071   6.545   1.237   3.585
43725SOL    HW133072   6.481   1.167   3.592
43725SOL    HW233073   6.516   1.289   3.511
43726SOL     OW33074   7.522   3.016   7.700
43726SOL    HW133075   7.580   3.057   7.764
43726SOL    HW233076   7.437   3.059   7.713
43727SOL     OW33077   1.784  13.802  13.204
43727SOL    HW133078   1.697  13.765  13.192
43727SOL    HW233079   1.768  13.894  13.226
43728SOL     OW33080   8.153  12.391   2.365
43728SOL    HW133081   8.224  12.433   2.412
43728SOL    HW233082   8.193  12.316   2.322
43729SOL     OW33083   1.488  13.927   6.242
43729SOL    HW133084   1.484  13.938   6.337
43729SOL    HW233085   1.433  13.996   6.207
43730SOL     OW33086   0.056  13.171   7.567
43730SOL    HW133087   0.118  13.234   7.530
43730SOL    HW233088   0.024  13.122   7.492
43731SOL     OW33089   2.564   6.278   6.619
43731SOL    HW133090   2.550   6.184   6.625
43731SOL    HW233091   2.519   6.305   6.539
43732SOL     OW33092  13.591   4.869   1.546
43732SOL    HW133093  13.641   4.879   1.627
43732SOL    HW233094  13.639   4.801   1.498
43733SOL     OW33095   2.821   0.775   9.292
43733SOL    HW133096   2.836   0.683   9.312
43733SOL    HW233097   2.876   0.793   9.216
43734SOL     OW33098  11.923  14.018  11.778
43734SOL    HW133099  11.902  14.034  11.869
43734SOL    HW233100  11.908  13.924  11.766
43735SOL     OW33101   6.870   4.804   6.557
43735SOL    HW133102   6.924   4.873   6.518
43735SOL    HW233103   6.789   4.849   6.582
43736SOL     OW33104   6.581   1.348   4.029
43736SOL    HW133105   6.577   1.379   3.938
43736SOL    HW233106   6.644   1.407   4.071
43737SOL     OW33107   4.629   3.962  14.406
43737SOL    HW133108   4.648   4.008  14.324
43737SOL    HW233109   4.699   3.897  14.413
43738SOL     OW33110   2.861  11.518   8.997
43738SOL    HW133111   2.903  11.477   8.922
43738SOL    HW233112   2.822  11.445   9.046
43739SOL     OW33113  14.634  11.759  12.953
43739SOL    HW133114  14.547  11.794  12.940
43739SOL    HW233115  14.687  11.798  12.883
43740SOL     OW33116   6.123  12.684  13.642
43740SOL    HW133117   6.118  12.623  13.569
43740SOL    HW233118   6.089  12.767  13.607
43741SOL     OW33119   8.775   2.920   9.441
43741SOL    HW133120   8.740   2.958   9.361
43741SOL    HW233121   8.703   2.924   9.504
43742SOL     OW33122   9.617  13.143   5.131
43742SOL    HW133123   9.625  13.209   5.199
43742SOL    HW233124   9.539  13.093   5.154
43743SOL     OW33125   4.282   6.233   7.010
43743SOL    HW133126   4.336   6.224   6.931
43743SOL    HW233127   4.315   6.165   7.069
43744SOL     OW33128   7.646   5.690  10.504
43744SOL    HW133129   7.676   5.648  10.423
43744SOL    HW233130   7.585   5.758  10.475
43745SOL     OW33131   4.487   9.747   6.830
43745SOL    HW133132   4.406   9.785   6.797
43745SOL    HW233133   4.535   9.722   6.751
43746SOL     OW33134  12.508  12.863   6.897
43746SOL    HW133135  12.582  12.913   6.932
43746SOL    HW233136  12.488  12.799   6.965
43747SOL     OW33137  11.622  13.477   2.647
43747SOL    HW133138  11.663  13.494   2.562
43747SOL    HW233139  11.530  13.460   2.627
43748SOL     OW33140  13.846  13.886   7.495
43748SOL    HW133141  13.781  13.951   7.521
43748SOL    HW233142  13.917  13.936   7.457
43749SOL     OW33143  10.487   0.824   8.580
43749SOL    HW133144  10.453   0.852   8.665
43749SOL    HW233145  10.411   0.787   8.535
43750SOL     OW33146   4.518   7.558  14.828
43750SOL    HW133147   4.482   7.531  14.744
43750SOL    HW233148   4.472   7.640  14.849
43751SOL     OW33149   8.243  11.798   4.193
43751SOL    HW133150   8.231  11.773   4.284
43751SOL    HW233151   8.158  11.778   4.152
43752SOL     OW33152   8.930   2.299  12.105
43752SOL    HW133153   8.912   2.369  12.043
43752SOL    HW233154   8.993   2.336  12.167
43753SOL     OW33155   5.621   2.071   0.569
43753SOL    HW133156   5.578   2.001   0.519
43753SOL    HW233157   5.668   2.025   0.639
43754SOL     OW33158   8.923  14.336  10.618
43754SOL    HW133159   8.838  14.303  10.589
43754SOL    HW233160   8.971  14.259  10.646
43755SOL     OW33161   9.509  14.349  12.970
43755SOL    HW133162   9.526  14.390  12.886
43755SOL    HW233163   9.474  14.419  13.025
43756SOL     OW33164   6.036   5.932   4.671
43756SOL    HW133165   6.064   5.842   4.653
43756SOL    HW233166   6.112   5.973   4.711
43757SOL     OW33167   5.288   6.460   0.550
43757SOL    HW133168   5.258   6.509   0.627
43757SOL    HW233169   5.268   6.516   0.476
43758SOL     OW33170  13.883   1.037  12.379
43758SOL    HW133171  13.820   1.098  12.341
43758SOL    HW233172  13.954   1.031  12.315
43759SOL     OW33173   3.310  14.366   5.156
43759SOL    HW133174   3.265  14.363   5.240
43759SOL    HW233175   3.320  14.275   5.130
43760SOL     OW33176   1.946   5.035   1.166
43760SOL    HW133177   2.004   5.103   1.201
43760SOL    HW233178   1.858   5.069   1.182
43761SOL     OW33179   7.771   5.369   9.329
43761SOL    HW133180   7.679   5.395   9.328
43761SOL    HW233181   7.818   5.447   9.301
43762SOL     OW33182  14.244  14.189   4.774
43762SOL    HW133183  14.212  14.100   4.789
43762SOL    HW233184  14.334  14.188   4.806
43763SOL     OW33185   0.024   3.951   5.016
43763SOL    HW133186  14.835   3.888   5.002
43763SOL    HW233187   0.081   3.908   5.081
43764SOL     OW33188  13.916  10.456  13.277
43764SOL    HW133189  13.858  10.528  13.250
43764SOL    HW233190  13.931  10.471  13.370
43765SOL     OW33191  13.439   1.187  11.948
43765SOL    HW133192  13.360   1.136  11.968
43765SOL    HW233193  13.406   1.268  11.910
43766SOL     OW33194   5.200   0.420  14.364
43766SOL    HW133195   5.250   0.387  14.438
43766SOL    HW233196   5.196   0.347  14.302
43767SOL     OW33197  14.015  13.405   7.584
43767SOL    HW133198  13.974  13.397   7.498
43767SOL    HW233199  13.942  13.424   7.643
43768SOL     OW33200  10.471   1.925  13.170
43768SOL    HW133201  10.508   2.004  13.209
43768SOL    HW233202  10.453   1.949  13.079
43769SOL     OW33203   2.874  14.329   4.832
43769SOL    HW133204   2.805  14.367   4.778
43769SOL    HW233205   2.917  14.266   4.773
43770SOL     OW33206  14.318   4.562  12.363
43770SOL    HW133207  14.312   4.657  12.374
43770SOL    HW233208  14.399   4.538  12.408
43771SOL     OW33209  11.568  14.278  13.543
43771SOL    HW133210  11.589  14.322  13.461
43771SOL    HW233211  11.531  14.194  13.516
43772SOL     OW33212   8.943   9.397   4.565
43772SOL    HW133213   9.017   9.417   4.509
43772SOL    HW233214   8.979   9.340   4.633
43773SOL     OW33215   4.974   3.817   3.644
43773SOL    HW133216   4.942   3.889   3.698
43773SOL    HW233217   4.940   3.837   3.556
43774SOL     OW33218  13.893  13.256   0.502
43774SOL    HW133219  13.943  13.248   0.583
43774SOL    HW233220  13.885  13.166   0.470
43775SOL     OW33221  13.678   5.306  14.660
43775SOL    HW133222  13.585   5.307  14.638
43775SOL    HW233223  13.681   5.271  14.749
43776SOL     OW33224  14.146  10.155  13.421
43776SOL    HW133225  14.188  10.239  13.440
43776SOL    HW233226  14.071  10.178  13.366
43777SOL     OW33227  10.825  12.562  13.330
43777SOL    HW133228  10.870  12.630  13.381
43777SOL    HW233229  10.878  12.483  13.346
43778SOL     OW33230   0.948   1.989   9.844
43778SOL    HW133231   0.925   2.059   9.906
43778SOL    HW233232   0.960   2.034   9.760
43779SOL     OW33233   1.356  11.619  11.777
43779SOL    HW133234   1.391  11.631  11.689
43779SOL    HW233235   1.273  11.666  11.776
43780SOL     OW33236   4.831   1.114   9.078
43780SOL    HW133237   4.785   1.102   8.995
43780SOL    HW233238   4.921   1.137   9.052
43781SOL     OW33239  14.427   1.719  11.144
43781SOL    HW133240  14.521   1.718  11.161
43781SOL    HW233241  14.400   1.810  11.160
43782SOL     OW33242  10.993  10.468   8.481
43782SOL    HW133243  11.038  10.398   8.529
43782SOL    HW233244  11.029  10.549   8.517
43783SOL     OW33245   1.189   4.467   3.221
43783SOL    HW133246   1.281   4.457   3.243
43783SOL    HW233247   1.145   4.398   3.270
43784SOL     OW33248   9.148  13.531   1.928
43784SOL    HW133249   9.160  13.577   1.845
43784SOL    HW233250   9.236  13.526   1.965
43785SOL     OW33251   0.310  12.205   7.467
43785SOL    HW133252   0.375  12.143   7.435
43785SOL    HW233253   0.253  12.221   7.391
43786SOL     OW33254   6.260  10.130  11.575
43786SOL    HW133255   6.307  10.055  11.613
43786SOL    HW233256   6.328  10.196  11.562
43787SOL     OW33257  12.119   8.971   2.579
43787SOL    HW133258  12.199   9.022   2.593
43787SOL    HW233259  12.136   8.922   2.498
43788SOL     OW33260   1.142   2.834   3.712
43788SOL    HW133261   1.197   2.847   3.634
43788SOL    HW233262   1.053   2.845   3.681
43789SOL     OW33263  13.787   4.397  12.733
43789SOL    HW133264  13.838   4.476  12.748
43789SOL    HW233265  13.823   4.360  12.652
43790SOL     OW33266   6.145  14.867   1.232
43790SOL    HW133267   6.228  14.829   1.260
43790SOL    HW233268   6.095  14.793   1.198
43791SOL     OW33269  14.744   8.126   6.005
43791SOL    HW133270  14.731   8.063   5.934
43791SOL    HW233271  14.699   8.206   5.975
43792SOL     OW33272   2.092  10.133  12.912
43792SOL    HW133273   2.004  10.156  12.882
43792SOL    HW233274   2.090  10.037  12.920
43793SOL     OW33275   1.321  13.847  12.710
43793SOL    HW133276   1.251  13.814  12.654
43793SOL    HW233277   1.275  13.877  12.789
43794SOL     OW33278   2.806  13.404  10.727
43794SOL    HW133279   2.752  13.398  10.648
43794SOL    HW233280   2.894  13.379  10.697
43795SOL     OW33281   8.941  11.062  11.992
43795SOL    HW133282   8.988  11.068  12.075
43795SOL    HW233283   8.970  10.980  11.954
43796SOL     OW33284   6.853  14.626   7.251
43796SOL    HW133285   6.776  14.680   7.269
43796SOL    HW233286   6.924  14.670   7.297
43797SOL     OW33287  11.056   7.518   4.285
43797SOL    HW133288  10.984   7.559   4.237
43797SOL    HW233289  11.043   7.424   4.270
43798SOL     OW33290  11.960  10.875   2.012
43798SOL    HW133291  11.925  10.850   1.927
43798SOL    HW233292  11.986  10.792   2.053
43799SOL     OW33293   4.137   9.762   2.243
43799SOL    HW133294   4.179   9.771   2.157
43799SOL    HW233295   4.206   9.727   2.299
43800SOL     OW33296   2.218  10.655   3.618
43800SOL    HW133297   2.195  10.643   3.710
43800SOL    HW233298   2.134  10.657   3.572
43801SOL     OW33299   2.043   3.713  14.775
43801SOL    HW133300   2.101   3.716  14.851
43801SOL    HW233301   2.037   3.620  14.753
43802SOL     OW33302   4.937   4.231  13.950
43802SOL    HW133303   4.989   4.160  13.988
43802SOL    HW233304   4.913   4.286  14.024
43803SOL     OW33305  14.393  14.568   3.862
43803SOL    HW133306  14.343  14.597   3.786
43803SOL    HW233307  14.482  14.599   3.846
43804SOL     OW33308   2.535   0.175  12.242
43804SOL    HW133309   2.590   0.128  12.305
43804SOL    HW233310   2.458   0.200  12.292
43805SOL     OW33311   7.149   1.000  13.391
43805SOL    HW133312   7.125   1.087  13.421
43805SOL    HW233313   7.068   0.964  13.354
43806SOL     OW33314   8.364   2.203   5.328
43806SOL    HW133315   8.340   2.236   5.414
43806SOL    HW233316   8.433   2.139   5.345
43807SOL     OW33317   4.987   6.088  10.711
43807SOL    HW133318   5.041   6.114  10.786
43807SOL    HW233319   4.897   6.101  10.741
43808SOL     OW33320   8.604  12.611  12.153
43808SOL    HW133321   8.697  12.635  12.157
43808SOL    HW233322   8.569  12.663  12.081
43809SOL     OW33323   7.281   8.492   4.151
43809SOL    HW133324   7.238   8.497   4.237
43809SOL    HW233325   7.324   8.576   4.141
43810SOL     OW33326   6.521   0.993  12.974
43810SOL    HW133327   6.445   1.026  12.926
43810SOL    HW233328   6.514   1.032  13.061
43811SOL     OW33329   0.182   7.797   5.151
43811SOL    HW133330   0.172   7.879   5.102
43811SOL    HW233331   0.140   7.815   5.235
43812SOL     OW33332   4.503   2.971   2.149
43812SOL    HW133333   4.420   2.946   2.189
43812SOL    HW233334   4.559   2.998   2.222
43813SOL     OW33335   7.819  11.010   7.217
43813SOL    HW133336   7.910  10.987   7.238
43813SOL    HW233337   7.784  10.934   7.171
43814SOL     OW33338   5.444   2.932  12.334
43814SOL    HW133339   5.425   2.936  12.428
43814SOL    HW233340   5.394   2.857  12.303
43815SOL     OW33341   0.323  13.270   6.035
43815SOL    HW133342   0.258  13.208   5.999
43815SOL    HW233343   0.405  13.220   6.034
43816SOL     OW33344  12.297   6.351  10.072
43816SOL    HW133345  12.338   6.388  10.151
43816SOL    HW233346  12.209   6.387  10.072
43817SOL     OW33347  10.330  14.651  13.224
43817SOL    HW133348  10.288  14.615  13.146
43817SOL    HW233349  10.409  14.599  13.235
43818SOL     OW33350  13.803   3.005  11.280
43818SOL    HW133351  13.773   3.047  11.360
43818SOL    HW233352  13.896   3.028  11.275
43819SOL     OW33353   9.446   9.053   0.760
43819SOL    HW133354   9.510   8.989   0.729
43819SOL    HW233355   9.411   9.092   0.680
43820SOL     OW33356   0.769  14.139   3.469
43820SOL    HW133357   0.757  14.163   3.560
43820SOL    HW233358   0.838  14.198   3.437
43821SOL     OW33359   7.626   3.675   2.389
43821SOL    HW133360   7.609   3.726   2.310
43821SOL    HW233361   7.721   3.670   2.395
43822SOL     OW33362   4.980  12.801   7.661
43822SOL    HW133363   5.054  12.739   7.662
43822SOL    HW233364   4.940  12.789   7.575
43823SOL     OW33365  13.231   3.788  12.122
43823SOL    HW133366  13.271   3.778  12.208
43823SOL    HW233367  13.137   3.785  12.139
43824SOL     OW33368  11.202  10.752  10.432
43824SOL    HW133369  11.295  10.767  10.413
43824SOL    HW233370  11.170  10.837  10.462
43825SOL     OW33371   4.343  13.408   6.816
43825SOL    HW133372   4.416  13.360   6.777
43825SOL    HW233373   4.304  13.346   6.877
43826SOL     OW33374   4.474  12.604  11.856
43826SOL    HW133375   4.523  12.616  11.937
43826SOL    HW233376   4.526  12.542  11.805
43827SOL     OW33377   2.083   1.351   7.098
43827SOL    HW133378   2.071   1.409   7.023
43827SOL    HW233379   2.017   1.283   7.086
43828SOL     OW33380  13.019  12.751   7.460
43828SOL    HW133381  12.982  12.836   7.485
43828SOL    HW233382  13.077  12.727   7.532
43829SOL     OW33383   7.653   6.422   5.632
43829SOL    HW133384   7.734   6.393   5.674
43829SOL    HW233385   7.626   6.499   5.681
43830SOL     OW33386   1.082  13.027   0.376
43830SOL    HW133387   1.026  12.950   0.376
43830SOL    HW233388   1.031  13.094   0.330
43831SOL     OW33389  14.298   3.597  13.645
43831SOL    HW133390  14.259   3.679  13.615
43831SOL    HW233391  14.344   3.563  13.568
43832SOL     OW33392   2.262   0.890   2.731
43832SOL    HW133393   2.345   0.847   2.709
43832SOL    HW233394   2.227   0.838   2.804
43833SOL     OW33395   4.232  13.411   4.474
43833SOL    HW133396   4.184  13.472   4.417
43833SOL    HW233397   4.206  13.324   4.443
43834SOL     OW33398   7.686   5.020   2.174
43834SOL    HW133399   7.618   5.084   2.152
43834SOL    HW233400   7.664   4.991   2.262
43835SOL     OW33401   2.310  11.744  13.763
43835SOL    HW133402   2.386  11.740  13.821
43835SOL    HW233403   2.247  11.683  13.802
43836SOL     OW33404   0.170   8.160  11.960
43836SOL    HW133405   0.256   8.127  11.936
43836SOL    HW233406   0.146   8.111  12.038
43837SOL     OW33407  12.030   0.191   2.315
43837SOL    HW133408  11.963   0.160   2.254
43837SOL    HW233409  12.071   0.264   2.270
43838SOL     OW33410   1.828   1.520   1.631
43838SOL    HW133411   1.909   1.469   1.625
43838SOL    HW233412   1.793   1.499   1.718
43839SOL     OW33413   2.561   3.004  12.015
43839SOL    HW133414   2.627   3.016  12.083
43839SOL    HW233415   2.558   2.910  12.001
43840SOL     OW33416   0.808   1.716  13.102
43840SOL    HW133417   0.892   1.740  13.065
43840SOL    HW233418   0.774   1.796  13.142
43841SOL     OW33419  11.379   8.691   4.397
43841SOL    HW133420  11.339   8.691   4.310
43841SOL    HW233421  11.459   8.741   4.386
43842SOL     OW33422   5.605  14.306   6.558
43842SOL    HW133423   5.687  14.298   6.511
43842SOL    HW233424   5.581  14.216   6.580
43843SOL     OW33425  10.578   2.783  14.804
43843SOL    HW133426  10.672   2.766  14.798
43843SOL    HW233427  10.549   2.734  14.880
43844SOL     OW33428   0.482   2.055  10.351
43844SOL    HW133429   0.460   2.071  10.443
43844SOL    HW233430   0.438   1.973  10.330
43845SOL     OW33431   3.695   7.971   8.693
43845SOL    HW133432   3.696   8.045   8.754
43845SOL    HW233433   3.778   7.927   8.707
43846SOL     OW33434  12.889   2.337   8.910
43846SOL    HW133435  12.811   2.340   8.966
43846SOL    HW233436  12.853   2.332   8.821
43847SOL     OW33437  12.271  14.316  12.743
43847SOL    HW133438  12.281  14.269  12.825
43847SOL    HW233439  12.247  14.249  12.679
43848SOL     OW33440   1.948   0.514   0.716
43848SOL    HW133441   1.937   0.474   0.802
43848SOL    HW233442   1.950   0.441   0.655
43849SOL     OW33443  11.454   6.932  13.771
43849SOL    HW133444  11.359   6.942  13.778
43849SOL    HW233445  11.477   6.873  13.843
43850SOL     OW33446   2.743  14.877  13.817
43850SOL    HW133447   2.776   0.019  13.904
43850SOL    HW233448   2.819  14.839  13.773
43851SOL     OW33449  14.175   7.924   6.092
43851SOL    HW133450  14.122   7.934   6.013
43851SOL    HW233451  14.235   7.999   6.091
43852SOL     OW33452   4.044  11.199  10.730
43852SOL    HW133453   3.955  11.231  10.745
43852SOL    HW233454   4.095  11.278  10.712
43853SOL     OW33455  12.907  13.250   6.864
43853SOL    HW133456  12.858  13.185   6.914
43853SOL    HW233457  12.943  13.309   6.930
43854SOL     OW33458   8.738   7.726   6.031
43854SOL    HW133459   8.670   7.712   5.965
43854SOL    HW233460   8.709   7.803   6.079
43855SOL     OW33461   0.056   1.786   2.499
43855SOL    HW133462  14.871   1.830   2.447
43855SOL    HW233463   0.071   1.845   2.573
43856SOL     OW33464  12.724   1.114  14.105
43856SOL    HW133465  12.744   1.054  14.177
43856SOL    HW233466  12.771   1.194  14.127
43857SOL     OW33467  11.489  14.015   3.022
43857SOL    HW133468  11.505  14.084   3.086
43857SOL    HW233469  11.439  14.058   2.952
43858SOL     OW33470  11.409   5.635   1.632
43858SOL    HW133471  11.418   5.730   1.623
43858SOL    HW233472  11.315   5.619   1.629
43859SOL     OW33473   2.078   4.690  11.528
43859SOL    HW133474   1.998   4.646  11.499
43859SOL    HW233475   2.136   4.685  11.452
43860SOL     OW33476   8.122   6.463   4.858
43860SOL    HW133477   8.168   6.458   4.774
43860SOL    HW233478   8.126   6.556   4.882
43861SOL     OW33479   2.616   5.492   5.257
43861SOL    HW133480   2.662   5.412   5.283
43861SOL    HW233481   2.670   5.563   5.292
43862SOL     OW33482  10.367  12.679   6.136
43862SOL    HW133483  10.362  12.707   6.228
43862SOL    HW233484  10.457  12.697   6.110
43863SOL     OW33485  10.772   9.108   4.054
43863SOL    HW133486  10.697   9.074   4.004
43863SOL    HW233487  10.785   9.043   4.123
43864SOL     OW33488   7.285   8.218   7.810
43864SOL    HW133489   7.307   8.137   7.764
43864SOL    HW233490   7.233   8.268   7.747
43865SOL     OW33491   1.735   6.599   4.319
43865SOL    HW133492   1.685   6.599   4.238
43865SOL    HW233493   1.674   6.565   4.385
43866SOL     OW33494   9.202   0.655   6.617
43866SOL    HW133495   9.210   0.564   6.647
43866SOL    HW233496   9.282   0.672   6.568
43867SOL     OW33497  13.506   3.216  12.206
43867SOL    HW133498  13.518   3.286  12.271
43867SOL    HW233499  13.569   3.237  12.137
43868SOL     OW33500   8.074   6.666  12.645
43868SOL    HW133501   8.079   6.727  12.719
43868SOL    HW233502   8.165   6.656  12.617
43869SOL     OW33503   1.880  14.515  14.467
43869SOL    HW133504   1.911  14.443  14.411
43869SOL    HW233505   1.834  14.574  14.407
43870SOL     OW33506  14.499   6.547   1.057
43870SOL    HW133507  14.407   6.550   1.029
43870SOL    HW233508  14.516   6.454   1.074
43871SOL     OW33509  14.143  12.628  10.676
43871SOL    HW133510  14.100  12.546  10.652
43871SOL    HW233511  14.237  12.607  10.674
43872SOL     OW33512  12.010  11.974   1.704
43872SOL    HW133513  12.106  11.973   1.704
43872SOL    HW233514  11.986  12.010   1.618
43873SOL     OW33515   4.887   8.234  11.724
43873SOL    HW133516   4.887   8.201  11.634
43873SOL    HW233517   4.971   8.208  11.760
43874SOL     OW33518  14.633   3.178   4.064
43874SOL    HW133519  14.582   3.139   4.135
43874SOL    HW233520  14.575   3.176   3.988
43875SOL     OW33521   2.198   3.100  10.317
43875SOL    HW133522   2.132   3.049  10.364
43875SOL    HW233523   2.247   3.035  10.267
43876SOL     OW33524   9.212   2.209   1.099
43876SOL    HW133525   9.215   2.280   1.034
43876SOL    HW233526   9.255   2.135   1.057
43877SOL     OW33527   5.179   8.132   3.048
43877SOL    HW133528   5.249   8.145   3.112
43877SOL    HW233529   5.099   8.125   3.100
43878SOL     OW33530   1.044  10.209   1.168
43878SOL    HW133531   0.972  10.181   1.224
43878SOL    HW233532   1.123  10.173   1.210
43879SOL     OW33533   0.592   5.952  10.443
43879SOL    HW133534   0.545   5.905  10.512
43879SOL    HW233535   0.603   5.887  10.374
43880SOL     OW33536   2.971   3.704  11.206
43880SOL    HW133537   3.014   3.750  11.135
43880SOL    HW233538   3.030   3.631  11.228
43881SOL     OW33539   9.636   8.987   5.229
43881SOL    HW133540   9.579   9.051   5.186
43881SOL    HW233541   9.661   9.028   5.312
43882SOL     OW33542   6.940   1.453   1.543
43882SOL    HW133543   6.873   1.386   1.557
43882SOL    HW233544   6.995   1.418   1.473
43883SOL     OW33545  11.989   7.101   2.969
43883SOL    HW133546  12.012   7.033   2.905
43883SOL    HW233547  12.023   7.068   3.052
43884SOL     OW33548   8.533   7.611   9.216
43884SOL    HW133549   8.589   7.535   9.203
43884SOL    HW233550   8.566   7.677   9.155
43885SOL     OW33551   5.830  13.050  14.626
43885SOL    HW133552   5.921  13.058  14.597
43885SOL    HW233553   5.794  12.980  14.573
43886SOL     OW33554   8.021   8.101   4.604
43886SOL    HW133555   8.084   8.164   4.569
43886SOL    HW233556   7.989   8.054   4.527
43887SOL     OW33557  12.352  14.706   5.392
43887SOL    HW133558  12.319  14.631   5.342
43887SOL    HW233559  12.291  14.716   5.465
43888SOL     OW33560  10.732  10.670   6.383
43888SOL    HW133561  10.806  10.663   6.442
43888SOL    HW233562  10.656  10.650   6.438
43889SOL     OW33563  13.474   1.215   0.737
43889SOL    HW133564  13.483   1.183   0.827
43889SOL    HW233565  13.542   1.169   0.688
43890SOL     OW33566   7.408   4.497  13.584
43890SOL    HW133567   7.442   4.587  13.577
43890SOL    HW233568   7.336   4.494  13.521
43891SOL     OW33569   8.830   4.458   0.068
43891SOL    HW133570   8.854   4.432  14.861
43891SOL    HW233571   8.857   4.384   0.123
43892SOL     OW33572   0.294   5.813   3.409
43892SOL    HW133573   0.370   5.870   3.414
43892SOL    HW233574   0.320   5.734   3.455
43893SOL     OW33575   9.188   6.219   5.941
43893SOL    HW133576   9.263   6.277   5.928
43893SOL    HW233577   9.149   6.249   6.024
43894SOL     OW33578  14.597   8.143   7.649
43894SOL    HW133579  14.656   8.217   7.645
43894SOL    HW233580  14.578   8.131   7.742
43895SOL     OW33581   5.854   5.017   8.575
43895SOL    HW133582   5.819   5.023   8.663
43895SOL    HW233583   5.778   5.031   8.518
43896SOL     OW33584   4.662  11.489  12.572
43896SOL    HW133585   4.645  11.567  12.521
43896SOL    HW233586   4.723  11.517  12.640
43897SOL     OW33587   5.688   8.293   2.975
43897SOL    HW133588   5.646   8.373   3.005
43897SOL    HW233589   5.622   8.249   2.922
43898SOL     OW33590  11.681   2.823   0.062
43898SOL    HW133591  11.631   2.742   0.066
43898SOL    HW233592  11.762   2.800   0.017
43899SOL     OW33593  11.112   7.401  14.515
43899SOL    HW133594  11.202   7.432  14.504
43899SOL    HW233595  11.071   7.416  14.430
43900SOL     OW33596  12.078   2.658   4.232
43900SOL    HW133597  12.115   2.570   4.221
43900SOL    HW233598  11.984   2.643   4.241
43901SOL     OW33599   8.547   2.302   7.228
43901SOL    HW133600   8.620   2.246   7.199
43901SOL    HW233601   8.502   2.249   7.293
43902SOL     OW33602   5.467  10.535   7.506
43902SOL    HW133603   5.554  10.498   7.492
43902SOL    HW233604   5.479  10.630   7.497
43903SOL     OW33605  11.151   2.956   7.440
43903SOL    HW133606  11.237   2.951   7.480
43903SOL    HW233607  11.125   2.864   7.429
43904SOL     OW33608   0.387   6.021   9.159
43904SOL    HW133609   0.365   6.114   9.164
43904SOL    HW233610   0.377   5.998   9.067
43905SOL     OW33611   5.440   8.435  12.034
43905SOL    HW133612   5.516   8.492  12.043
43905SOL    HW233613   5.365   8.495  12.039
43906SOL     OW33614   8.206   2.651   2.018
43906SOL    HW133615   8.299   2.661   1.995
43906SOL    HW233616   8.207   2.642   2.114
43907SOL     OW33617  13.195  11.569  14.066
43907SOL    HW133618  13.199  11.602  13.976
43907SOL    HW233619  13.193  11.474  14.057
43908SOL     OW33620   3.153  12.708   4.604
43908SOL    HW133621   3.229  12.703   4.661
43908SOL    HW233622   3.078  12.694   4.662
43909SOL     OW33623   5.869  10.265  12.518
43909SOL    HW133624   5.787  10.282  12.471
43909SOL    HW233625   5.930  10.235  12.451
43910SOL     OW33626   2.452   1.550   1.222
43910SOL    HW133627   2.405   1.613   1.276
43910SOL    HW233628   2.385   1.489   1.191
43911SOL     OW33629   7.269   1.290  13.189
43911SOL    HW133630   7.180   1.271  13.218
43911SOL    HW233631   7.291   1.218  13.130
43912SOL     OW33632  14.830   0.848   3.403
43912SOL    HW133633   0.032   0.807   3.418
43912SOL    HW233634  14.817   0.906   3.478
43913SOL     OW33635  10.948   1.500   4.665
43913SOL    HW133636  10.963   1.407   4.681
43913SOL    HW233637  11.028   1.531   4.625
43914SOL     OW33638  12.271  11.339   1.035
43914SOL    HW133639  12.351  11.372   1.075
43914SOL    HW233640  12.248  11.404   0.969
43915SOL     OW33641   3.834   6.126   7.795
43915SOL    HW133642   3.766   6.121   7.861
43915SOL    HW233643   3.870   6.037   7.789
43916SOL     OW33644   7.971  11.143   7.593
43916SOL    HW133645   7.878  11.128   7.612
43916SOL    HW233646   8.010  11.165   7.677
43917SOL     OW33647  13.030   1.358   3.170
43917SOL    HW133648  13.074   1.285   3.125
43917SOL    HW233649  13.002   1.416   3.100
43918SOL     OW33650   4.925   2.683   0.336
43918SOL    HW133651   4.904   2.652   0.424
43918SOL    HW233652   4.845   2.728   0.307
43919SOL     OW33653   5.881  11.030  10.712
43919SOL    HW133654   5.922  11.113  10.688
43919SOL    HW233655   5.866  10.985  10.629
43920SOL     OW33656   1.088   6.084   2.817
43920SOL    HW133657   1.120   5.994   2.809
43920SOL    HW233658   1.094   6.120   2.729
43921SOL     OW33659   0.982  11.159  10.127
43921SOL    HW133660   0.972  11.064  10.134
43921SOL    HW233661   0.992  11.175  10.033
43922SOL     OW33662   9.767  13.591   1.305
43922SOL    HW133663   9.840  13.581   1.243
43922SOL    HW233664   9.702  13.642   1.257
43923SOL     OW33665   3.764   1.636   6.924
43923SOL    HW133666   3.823   1.630   6.849
43923SOL    HW233667   3.819   1.667   6.995
43924SOL     OW33668  10.995   8.371  11.463
43924SOL    HW133669  11.000   8.448  11.520
43924SOL    HW233670  10.974   8.299  11.522
43925SOL     OW33671  12.924   1.930  13.996
43925SOL    HW133672  12.885   1.860  14.047
43925SOL    HW233673  12.859   1.952  13.929
43926SOL     OW33674   1.519  13.571   7.172
43926SOL    HW133675   1.455  13.583   7.101
43926SOL    HW233676   1.548  13.480   7.162
43927SOL     OW33677  11.246  13.752   6.980
43927SOL    HW133678  11.182  13.759   7.050
43927SOL    HW233679  11.208  13.689   6.919
43928SOL     OW33680   4.446   4.532  13.953
43928SOL    HW133681   4.458   4.442  13.922
43928SOL    HW233682   4.488   4.534  14.039
43929SOL     OW33683   5.054  12.125  11.963
43929SOL    HW133684   5.070  12.208  12.008
43929SOL    HW233685   4.960  12.111  11.972
43930SOL     OW33686  10.808   4.135   1.488
43930SOL    HW133687  10.832   4.045   1.509
43930SOL    HW233688  10.782   4.173   1.571
43931SOL     OW33689   8.444   7.735   9.454
43931SOL    HW133690   8.515   7.758   9.514
43931SOL    HW233691   8.489   7.703   9.376
43932SOL     OW33692   5.465   9.043   8.182
43932SOL    HW133693   5.393   8.992   8.217
43932SOL    HW233694   5.450   9.132   8.214
43933SOL     OW33695   5.008  11.945   3.954
43933SOL    HW133696   5.042  11.876   4.011
43933SOL    HW233697   4.928  11.909   3.916
43934SOL     OW33698  13.816  14.055   5.661
43934SOL    HW133699  13.872  14.105   5.601
43934SOL    HW233700  13.848  13.965   5.655
43935SOL     OW33701   9.688  13.313   4.642
43935SOL    HW133702   9.594  13.321   4.657
43935SOL    HW233703   9.724  13.398   4.668
43936SOL     OW33704  12.090  13.576   3.397
43936SOL    HW133705  12.184  13.588   3.404
43936SOL    HW233706  12.077  13.482   3.404
43937SOL     OW33707   3.283   7.707  10.404
43937SOL    HW133708   3.217   7.640  10.390
43937SOL    HW233709   3.238   7.776  10.452
43938SOL     OW33710  10.460   3.849   6.004
43938SOL    HW133711  10.399   3.838   6.077
43938SOL    HW233712  10.539   3.885   6.044
43939SOL     OW33713   9.977   6.346   5.645
43939SOL    HW133714   9.909   6.381   5.588
43939SOL    HW233715   9.928   6.296   5.711
43940SOL     OW33716   0.381   8.426   3.816
43940SOL    HW133717   0.373   8.500   3.875
43940SOL    HW233718   0.305   8.372   3.834
43941SOL     OW33719   6.457   9.126  10.440
43941SOL    HW133720   6.546   9.153  10.466
43941SOL    HW233721   6.434   9.055  10.500
43942SOL     OW33722  14.844   5.306  12.837
43942SOL    HW133723  14.871   5.341  12.923
43942SOL    HW233724  14.774   5.245  12.857
43943SOL     OW33725   1.856  13.888  10.341
43943SOL    HW133726   1.889  13.942  10.269
43943SOL    HW233727   1.771  13.857  10.311
43944SOL     OW33728   1.963   6.121   3.060
43944SOL    HW133729   1.974   6.026   3.070
43944SOL    HW233730   1.936   6.151   3.147
43945SOL     OW33731  10.703  11.306   9.798
43945SOL    HW133732  10.743  11.379   9.844
43945SOL    HW233733  10.668  11.344   9.717
43946SOL     OW33734  10.867   1.178   4.484
43946SOL    HW133735  10.889   1.118   4.413
43946SOL    HW233736  10.944   1.176   4.541
43947SOL     OW33737   4.288  10.579   5.135
43947SOL    HW133738   4.279  10.496   5.087
43947SOL    HW233739   4.381  10.601   5.128
43948SOL     OW33740  11.835   1.187   0.517
43948SOL    HW133741  11.859   1.186   0.610
43948SOL    HW233742  11.740   1.172   0.518
43949SOL     OW33743   8.918   1.818   9.432
43949SOL    HW133744   8.861   1.741   9.422
43949SOL    HW233745   8.858   1.892   9.436
43950SOL     OW33746   5.538   3.207   3.530
43950SOL    HW133747   5.451   3.183   3.561
43950SOL    HW233748   5.551   3.153   3.452
43951SOL     OW33749   0.017  10.140   6.665
43951SOL    HW133750  14.854  10.067   6.708
43951SOL    HW233751  14.878  10.216   6.720
43952SOL     OW33752   8.225   2.680   5.904
43952SOL    HW133753   8.252   2.738   5.833
43952SOL    HW233754   8.306   2.637   5.932
43953SOL     OW33755   2.082   1.883  11.652
43953SOL    HW133756   2.109   1.887  11.560
43953SOL    HW233757   2.159   1.914  11.700
43954SOL     OW33758   7.850   9.846  10.346
43954SOL    HW133759   7.939   9.843  10.383
43954SOL    HW233760   7.793   9.831  10.421
43955SOL     OW33761   4.591   5.822   0.333
43955SOL    HW133762   4.655   5.832   0.403
43955SOL    HW233763   4.506   5.830   0.377
43956SOL     OW33764   9.690  10.704   2.719
43956SOL    HW133765   9.714  10.615   2.692
43956SOL    HW233766   9.742  10.761   2.661
43957SOL     OW33767   8.667  12.055   7.694
43957SOL    HW133768   8.645  12.051   7.601
43957SOL    HW233769   8.701  12.144   7.707
43958SOL     OW33770   1.885   6.248   9.563
43958SOL    HW133771   1.828   6.240   9.639
43958SOL    HW233772   1.968   6.208   9.591
43959SOL     OW33773   0.315   9.459   5.202
43959SOL    HW133774   0.389   9.520   5.210
43959SOL    HW233775   0.259   9.496   5.134
43960SOL     OW33776   5.588  14.463  14.312
43960SOL    HW133777   5.561  14.472  14.403
43960SOL    HW233778   5.509  14.438  14.265
43961SOL     OW33779  13.700  12.398  14.056
43961SOL    HW133780  13.618  12.448  14.055
43961SOL    HW233781  13.764  12.456  14.015
43962SOL     OW33782   9.032   6.089  12.225
43962SOL    HW133783   9.066   6.010  12.182
43962SOL    HW233784   8.943   6.099  12.190
43963SOL     OW33785   7.090   0.852   4.564
43963SOL    HW133786   6.994   0.853   4.569
43963SOL    HW233787   7.115   0.944   4.573
43964SOL     OW33788   6.958   0.766   6.284
43964SOL    HW133789   6.907   0.749   6.204
43964SOL    HW233790   7.048   0.745   6.259
43965SOL     OW33791  10.589  14.372  10.318
43965SOL    HW133792  10.508  14.325  10.337
43965SOL    HW233793  10.571  14.420  10.237
43966SOL     OW33794   6.250   6.024  13.027
43966SOL    HW133795   6.258   6.096  12.965
43966SOL    HW233796   6.164   5.986  13.009
43967SOL     OW33797   5.039   3.303   7.588
43967SOL    HW133798   5.020   3.239   7.656
43967SOL    HW233799   5.084   3.374   7.633
43968SOL     OW33800   6.280  11.511  10.219
43968SOL    HW133801   6.257  11.422  10.246
43968SOL    HW233802   6.216  11.534  10.152
43969SOL     OW33803   8.426  10.412   3.525
43969SOL    HW133804   8.334  10.390   3.541
43969SOL    HW233805   8.424  10.477   3.455
43970SOL     OW33806   4.730   4.653  14.234
43970SOL    HW133807   4.822   4.650  14.211
43970SOL    HW233808   4.727   4.707  14.313
43971SOL     OW33809   5.737  13.774  13.054
43971SOL    HW133810   5.745  13.678  13.048
43971SOL    HW233811   5.676  13.788  13.126
43972SOL     OW33812   4.865  12.034   7.841
43972SOL    HW133813   4.911  12.101   7.790
43972SOL    HW233814   4.932  11.970   7.864
43973SOL     OW33815   5.780   6.384   8.000
43973SOL    HW133816   5.715   6.316   7.982
43973SOL    HW233817   5.758   6.415   8.088
43974SOL     OW33818   7.457  14.393   7.981
43974SOL    HW133819   7.466  14.309   8.026
43974SOL    HW233820   7.519  14.451   8.026
43975SOL     OW33821   9.244  12.702   9.609
43975SOL    HW133822   9.278  12.724   9.696
43975SOL    HW233823   9.323  12.695   9.554
43976SOL     OW33824   5.740   2.628   4.081
43976SOL    HW133825   5.772   2.643   4.170
43976SOL    HW233826   5.647   2.650   4.085
43977SOL     OW33827   7.346   2.704  13.769
43977SOL    HW133828   7.278   2.658  13.818
43977SOL    HW233829   7.394   2.754  13.835
43978SOL     OW33830   4.862   4.380   7.424
43978SOL    HW133831   4.834   4.437   7.496
43978SOL    HW233832   4.823   4.420   7.346
43979SOL     OW33833   0.056   8.424   4.058
43979SOL    HW133834  14.860   8.481   4.057
43979SOL    HW233835   0.082   8.421   4.150
43980SOL     OW33836   8.331   1.199   8.781
43980SOL    HW133837   8.267   1.152   8.728
43980SOL    HW233838   8.365   1.133   8.841
43981SOL     OW33839  12.509   9.380   0.913
43981SOL    HW133840  12.519   9.325   0.990
43981SOL    HW233841  12.414   9.388   0.900
43982SOL     OW33842   0.777  13.479  13.172
43982SOL    HW133843   0.759  13.389  13.200
43982SOL    HW233844   0.846  13.509  13.230
43983SOL     OW33845  13.231   7.002  11.168
43983SOL    HW133846  13.218   7.083  11.119
43983SOL    HW233847  13.280   7.029  11.246
43984SOL     OW33848  12.756   0.165  10.937
43984SOL    HW133849  12.672   0.167  10.890
43984SOL    HW233850  12.819   0.136  10.871
43985SOL     OW33851   0.264   9.336   1.173
43985SOL    HW133852   0.192   9.278   1.198
43985SOL    HW233853   0.250   9.416   1.223
43986SOL     OW33854   8.476   6.648  11.237
43986SOL    HW133855   8.405   6.687  11.185
43986SOL    HW233856   8.470   6.555  11.218
43987SOL     OW33857   3.127   4.487   9.588
43987SOL    HW133858   3.044   4.532   9.576
43987SOL    HW233859   3.129   4.420   9.520
43988SOL     OW33860   8.016   4.105  13.992
43988SOL    HW133861   8.017   4.201  13.996
43988SOL    HW233862   7.926   4.083  13.966
43989SOL     OW33863   2.155   5.871   5.701
43989SOL    HW133864   2.141   5.966   5.697
43989SOL    HW233865   2.196   5.850   5.617
43990SOL     OW33866   4.876  11.191   0.218
43990SOL    HW133867   4.791  11.194   0.261
43990SOL    HW233868   4.929  11.255   0.266
43991SOL     OW33869  10.112   5.727  13.646
43991SOL    HW133870  10.073   5.681  13.571
43991SOL    HW233871  10.036   5.756  13.698
43992SOL     OW33872   7.351   3.613  10.838
43992SOL    HW133873   7.393   3.582  10.758
43992SOL    HW233874   7.260   3.628  10.812
43993SOL     OW33875  12.937  11.978   3.496
43993SOL    HW133876  12.957  11.886   3.516
43993SOL    HW233877  12.894  12.010   3.576
43994SOL     OW33878  10.212   3.883   5.908
43994SOL    HW133879  10.205   3.972   5.942
43994SOL    HW233880  10.305   3.862   5.917
43995SOL     OW33881  12.957   7.054  13.380
43995SOL    HW133882  12.876   7.081  13.422
43995SOL    HW233883  12.951   6.959  13.375
43996SOL     OW33884  11.715  14.254   2.601
43996SOL    HW133885  11.738  14.347   2.608
43996SOL    HW233886  11.682  14.244   2.511
43997SOL     OW33887  12.803   4.197  13.813
43997SOL    HW133888  12.777   4.121  13.865
43997SOL    HW233889  12.721   4.227  13.771
43998SOL     OW33890   2.840  11.429  10.573
43998SOL    HW133891   2.864  11.457  10.661
43998SOL    HW233892   2.886  11.346  10.561
43999SOL     OW33893   9.719  12.466   1.496
43999SOL    HW133894   9.716  12.379   1.536
43999SOL    HW233895   9.703  12.450   1.403
44000SOL     OW33896  14.702  14.174   9.037
44000SOL    HW133897  14.699  14.232   9.113
44000SOL    HW233898  14.627  14.200   8.983
44001SOL     OW33899   8.009  11.833  11.302
44001SOL    HW133900   7.956  11.781  11.242
44001SOL    HW233901   8.062  11.889  11.245
44002SOL     OW33902   7.098  10.909   8.945
44002SOL    HW133903   7.042  10.832   8.943
44002SOL    HW233904   7.039  10.982   8.926
44003SOL     OW33905   2.787  13.432   1.856
44003SOL    HW133906   2.706  13.395   1.892
44003SOL    HW233907   2.780  13.526   1.874
44004SOL     OW33908   3.899   8.310  13.900
44004SOL    HW133909   3.909   8.223  13.939
44004SOL    HW233910   3.867   8.294  13.812
44005SOL     OW33911   1.435   5.198  10.056
44005SOL    HW133912   1.443   5.139   9.981
44005SOL    HW233913   1.347   5.235  10.048
44006SOL     OW33914  11.932  12.606   0.193
44006SOL    HW133915  11.982  12.556   0.258
44006SOL    HW233916  11.999  12.642   0.134
44007SOL     OW33917   3.715   0.488   6.206
44007SOL    HW133918   3.771   0.411   6.217
44007SOL    HW233919   3.681   0.506   6.293
44008SOL     OW33920   2.275  13.286   6.207
44008SOL    HW133921   2.202  13.345   6.226
44008SOL    HW233922   2.347  13.344   6.183
44009SOL     OW33923  10.294  11.388   3.982
44009SOL    HW133924  10.238  11.330   3.929
44009SOL    HW233925  10.379  11.343   3.984
44010SOL     OW33926  12.427   3.801   0.008
44010SOL    HW133927  12.449   3.892   0.025
44010SOL    HW233928  12.341   3.789   0.049
44011SOL     OW33929   5.917  12.380   7.463
44011SOL    HW133930   5.930  12.475   7.469
44011SOL    HW233931   5.992  12.349   7.412
44012SOL     OW33932   6.820   3.692   3.855
44012SOL    HW133933   6.791   3.779   3.829
44012SOL    HW233934   6.779   3.633   3.790
44013SOL     OW33935  10.504   1.395  11.899
44013SOL    HW133936  10.462   1.477  11.873
44013SOL    HW233937  10.594   1.404  11.869
44014SOL     OW33938  13.047   3.252   1.066
44014SOL    HW133939  13.018   3.210   0.984
44014SOL    HW233940  13.108   3.190   1.105
44015SOL     OW33941  12.830   8.284   4.493
44015SOL    HW133942  12.868   8.267   4.406
44015SOL    HW233943  12.739   8.257   4.486
44016SOL     OW33944   2.204   2.493  13.709
44016SOL    HW133945   2.261   2.562  13.742
44016SOL    HW233946   2.219   2.419  13.768
44017SOL     OW33947  10.563   9.994   0.207
44017SOL    HW133948  10.545  10.043   0.127
44017SOL    HW233949  10.560  10.060   0.277
44018SOL     OW33950  13.656  12.925   7.980
44018SOL    HW133951  13.676  13.011   7.943
44018SOL    HW233952  13.667  12.937   8.075
44019SOL     OW33953   1.252   3.680  10.266
44019SOL    HW133954   1.265   3.588  10.242
44019SOL    HW233955   1.340   3.712  10.289
44020SOL     OW33956   5.245   6.132   2.571
44020SOL    HW133957   5.290   6.144   2.655
44020SOL    HW233958   5.313   6.145   2.505
44021SOL     OW33959   6.865  10.170   7.070
44021SOL    HW133960   6.799  10.168   7.001
44021SOL    HW233961   6.900  10.081   7.072
44022SOL     OW33962  14.759   2.111  10.470
44022SOL    HW133963  14.711   2.174  10.416
44022SOL    HW233964  14.694   2.044  10.492
44023SOL     OW33965  13.199   0.061  11.510
44023SOL    HW133966  13.125   0.065  11.449
44023SOL    HW233967  13.260  14.882  11.469
44024SOL     OW33968  11.136  11.265   8.297
44024SOL    HW133969  11.142  11.277   8.392
44024SOL    HW233970  11.058  11.315   8.272
44025SOL     OW33971   5.319  14.863   6.975
44025SOL    HW133972   5.393   0.038   6.953
44025SOL    HW233973   5.345  14.822   7.057
44026SOL     OW33974  10.849   7.606   2.045
44026SOL    HW133975  10.847   7.589   1.950
44026SOL    HW233976  10.797   7.686   2.055
44027SOL     OW33977   3.297   5.159   5.693
44027SOL    HW133978   3.318   5.095   5.762
44027SOL    HW233979   3.349   5.129   5.618
44028SOL     OW33980   4.193   5.269   5.769
44028SOL    HW133981   4.181   5.200   5.703
44028SOL    HW233982   4.106   5.284   5.805
44029SOL     OW33983  12.748   2.956   1.946
44029SOL    HW133984  12.733   2.931   1.855
44029SOL    HW233985  12.696   3.036   1.957
44030SOL     OW33986   2.573   7.447  13.612
44030SOL    HW133987   2.557   7.540  13.597
44030SOL    HW233988   2.539   7.431  13.701
44031SOL     OW33989   1.266  10.807  14.766
44031SOL    HW133990   1.342  10.762  14.731
44031SOL    HW233991   1.277  10.802  14.861
44032SOL     OW33992   6.788   3.318  12.761
44032SOL    HW133993   6.815   3.232  12.729
44032SOL    HW233994   6.718   3.299  12.824
44033SOL     OW33995  14.581  11.770   8.884
44033SOL    HW133996  14.602  11.850   8.933
44033SOL    HW233997  14.582  11.798   8.793
44034SOL     OW33998   0.829   2.422   3.200
44034SOL    HW133999   0.754   2.373   3.233
44034SOL    HW234000   0.809   2.435   3.107
44035SOL     OW34001   7.937   3.157   1.713
44035SOL    HW134002   7.919   3.237   1.663
44035SOL    HW234003   7.868   3.096   1.687
44036SOL     OW34004   5.006  14.487  11.738
44036SOL    HW134005   5.083  14.462  11.687
44036SOL    HW234006   4.936  14.498  11.673
44037SOL     OW34007  14.568  13.840   3.072
44037SOL    HW134008  14.486  13.850   3.025
44037SOL    HW234009  14.584  13.746   3.075
44038SOL     OW34010   5.864  11.506  10.792
44038SOL    HW134011   5.897  11.510  10.702
44038SOL    HW234012   5.826  11.419  10.800
44039SOL     OW34013  12.482   1.732  14.614
44039SOL    HW134014  12.533   1.686  14.681
44039SOL    HW234015  12.398   1.750  14.656
44040SOL     OW34016  12.520   3.065   9.337
44040SOL    HW134017  12.474   3.073   9.420
44040SOL    HW234018  12.612   3.072   9.359
44041SOL     OW34019   5.886  14.310   9.482
44041SOL    HW134020   5.913  14.399   9.505
44041SOL    HW234021   5.817  14.289   9.546
44042SOL     OW34022  10.296   8.225  10.572
44042SOL    HW134023  10.281   8.139  10.532
44042SOL    HW234024  10.345   8.274  10.506
44043SOL     OW34025   5.054  13.288   2.147
44043SOL    HW134026   5.069  13.268   2.240
44043SOL    HW234027   4.982  13.231   2.122
44044SOL     OW34028  11.097   6.356   5.329
44044SOL    HW134029  11.050   6.273   5.343
44044SOL    HW234030  11.043   6.421   5.373
44045SOL     OW34031   2.294  10.164   7.284
44045SOL    HW134032   2.386  10.186   7.265
44045SOL    HW234033   2.247  10.245   7.266
44046SOL     OW34034   6.116   4.839   3.099
44046SOL    HW134035   6.120   4.796   3.014
44046SOL    HW234036   6.075   4.774   3.157
44047SOL     OW34037  10.251   0.844   3.507
44047SOL    HW134038  10.166   0.853   3.550
44047SOL    HW234039  10.301   0.920   3.537
44048SOL     OW34040   7.498   4.529   0.407
44048SOL    HW134041   7.514   4.514   0.314
44048SOL    HW234042   7.490   4.624   0.416
44049SOL     OW34043   1.138  11.691   4.167
44049SOL    HW134044   1.177  11.691   4.254
44049SOL    HW234045   1.178  11.766   4.123
44050SOL     OW34046   2.472   5.404   2.889
44050SOL    HW134047   2.399   5.462   2.868
44050SOL    HW234048   2.493   5.362   2.805
44051SOL     OW34049   1.503   2.617   2.373
44051SOL    HW134050   1.539   2.684   2.314
44051SOL    HW234051   1.577   2.593   2.428
44052SOL     OW34052   4.041   5.293   4.708
44052SOL    HW134053   3.963   5.270   4.758
44052SOL    HW234054   4.028   5.250   4.623
44053SOL     OW34055  11.028   3.873   3.927
44053SOL    HW134056  11.048   3.859   3.834
44053SOL    HW234057  11.111   3.899   3.967
44054SOL     OW34058   5.020   6.146   1.593
44054SOL    HW134059   5.020   6.184   1.681
44054SOL    HW234060   5.100   6.095   1.588
44055SOL     OW34061   9.915  14.372   6.046
44055SOL    HW134062   9.848  14.375   5.978
44055SOL    HW234063   9.997  14.360   5.998
44056SOL     OW34064  14.660   1.626   5.974
44056SOL    HW134065  14.606   1.616   5.896
44056SOL    HW234066  14.726   1.557   5.965
44057SOL     OW34067  11.784   8.948   9.063
44057SOL    HW134068  11.750   8.862   9.084
44057SOL    HW234069  11.749   8.967   8.976
44058SOL     OW34070  14.547  13.331  12.576
44058SOL    HW134071  14.636  13.366  12.569
44058SOL    HW234072  14.545  13.258  12.514
44059SOL     OW34073   1.800   2.676   2.445
44059SOL    HW134074   1.764   2.747   2.498
44059SOL    HW234075   1.888   2.706   2.421
44060SOL     OW34076   9.594  13.881   8.953
44060SOL    HW134077   9.518  13.939   8.954
44060SOL    HW234078   9.626  13.881   9.043
44061SOL     OW34079  12.521   5.632  10.959
44061SOL    HW134080  12.451   5.577  10.994
44061SOL    HW234081  12.520   5.710  11.016
44062SOL     OW34082  14.223   5.006  12.974
44062SOL    HW134083  14.293   4.944  12.956
44062SOL    HW234084  14.244   5.082  12.919
44063SOL     OW34085   7.850  11.546   3.221
44063SOL    HW134086   7.830  11.516   3.310
44063SOL    HW234087   7.769  11.590   3.193
44064SOL     OW34088  13.537  12.792   5.233
44064SOL    HW134089  13.488  12.754   5.161
44064SOL    HW234090  13.475  12.849   5.278
44065SOL     OW34091  13.540   6.969   0.271
44065SOL    HW134092  13.450   6.950   0.246
44065SOL    HW234093  13.538   7.059   0.304
44066SOL     OW34094   5.370   6.314   5.621
44066SOL    HW134095   5.434   6.296   5.689
44066SOL    HW234096   5.416   6.297   5.539
44067SOL     OW34097   3.150  13.383  13.053
44067SOL    HW134098   3.172  13.352  13.140
44067SOL    HW234099   3.150  13.304  12.999
44068SOL     OW34100  13.944   5.554   2.535
44068SOL    HW134101  13.913   5.607   2.609
44068SOL    HW234102  13.945   5.614   2.461
44069SOL     OW34103   4.684   9.054   0.239
44069SOL    HW134104   4.640   8.973   0.212
44069SOL    HW234105   4.776   9.038   0.219
44070SOL     OW34106   3.875   8.918  11.494
44070SOL    HW134107   3.957   8.913  11.543
44070SOL    HW234108   3.855   9.011  11.490
44071SOL     OW34109  12.869  14.381   0.892
44071SOL    HW134110  12.917  14.299   0.905
44071SOL    HW234111  12.784  14.354   0.857
44072SOL     OW34112  13.160  12.684   3.174
44072SOL    HW134113  13.075  12.726   3.186
44072SOL    HW234114  13.140  12.600   3.133
44073SOL     OW34115   7.431  13.031   0.339
44073SOL    HW134116   7.491  12.973   0.292
44073SOL    HW234117   7.483  13.067   0.411
44074SOL     OW34118   9.155   9.484   4.412
44074SOL    HW134119   9.128   9.573   4.434
44074SOL    HW234120   9.218   9.495   4.341
44075SOL     OW34121   3.114   4.936  14.038
44075SOL    HW134122   3.057   4.999  13.993
44075SOL    HW234123   3.176   4.907  13.971
44076SOL     OW34124   0.031   8.880  14.176
44076SOL    HW134125   0.078   8.797  14.175
44076SOL    HW234126  14.821   8.856  14.187
44077SOL     OW34127   9.184   2.171   6.875
44077SOL    HW134128   9.161   2.084   6.842
44077SOL    HW234129   9.278   2.167   6.892
44078SOL     OW34130  12.835  11.977   5.516
44078SOL    HW134131  12.806  11.987   5.426
44078SOL    HW234132  12.927  12.005   5.515
44079SOL     OW34133   5.085   1.574   9.069
44079SOL    HW134134   5.045   1.572   9.157
44079SOL    HW234135   5.012   1.556   9.010
44080SOL     OW34136   0.883  10.474   3.502
44080SOL    HW134137   0.897  10.506   3.413
44080SOL    HW234138   0.970  10.448   3.532
44081SOL     OW34139  11.062  12.938   2.802
44081SOL    HW134140  10.982  12.896   2.772
44081SOL    HW234141  11.132  12.894   2.752
44082SOL     OW34142   6.894  11.845   0.989
44082SOL    HW134143   6.977  11.822   1.030
44082SOL    HW234144   6.833  11.778   1.020
44083SOL     OW34145   7.641   3.142  14.451
44083SOL    HW134146   7.626   3.197  14.374
44083SOL    HW234147   7.579   3.174  14.516
44084SOL     OW34148   7.730   5.187   2.503
44084SOL    HW134149   7.657   5.128   2.480
44084SOL    HW234150   7.687   5.268   2.530
44085SOL     OW34151  12.797   9.451   9.283
44085SOL    HW134152  12.705   9.457   9.257
44085SOL    HW234153  12.795   9.440   9.378
44086SOL     OW34154   8.347   6.797   5.495
44086SOL    HW134155   8.323   6.722   5.441
44086SOL    HW234156   8.415   6.842   5.446
44087SOL     OW34157   9.198   9.827  11.006
44087SOL    HW134158   9.117   9.804  11.051
44087SOL    HW234159   9.250   9.871  11.072
44088SOL     OW34160   3.084   9.575   7.982
44088SOL    HW134161   3.143   9.509   7.945
44088SOL    HW234162   3.017   9.587   7.915
44089SOL     OW34163   7.986   8.167  12.462
44089SOL    HW134164   7.911   8.185  12.405
44089SOL    HW234165   7.991   8.071  12.466
44090SOL     OW34166  10.068   3.520   9.298
44090SOL    HW134167  10.093   3.437   9.338
44090SOL    HW234168  10.147   3.573   9.301
44091SOL     OW34169   2.079   7.688   2.522
44091SOL    HW134170   2.133   7.750   2.473
44091SOL    HW234171   2.075   7.610   2.467
44092SOL     OW34172   1.642   3.940   4.243
44092SOL    HW134173   1.666   3.849   4.258
44092SOL    HW234174   1.664   3.957   4.151
44093SOL     OW34175  14.252   4.038   0.563
44093SOL    HW134176  14.302   3.999   0.491
44093SOL    HW234177  14.315   4.092   0.611
44094SOL     OW34178   0.116  12.925   3.477
44094SOL    HW134179   0.201  12.968   3.465
44094SOL    HW234180   0.081  12.917   3.388
44095SOL     OW34181  14.481  11.771   3.517
44095SOL    HW134182  14.430  11.750   3.595
44095SOL    HW234183  14.569  11.739   3.536
44096SOL     OW34184   5.894   9.566  10.072
44096SOL    HW134185   5.845   9.506  10.016
44096SOL    HW234186   5.905   9.519  10.154
44097SOL     OW34187  13.798   1.921  12.052
44097SOL    HW134188  13.743   1.946  12.126
44097SOL    HW234189  13.812   1.827  12.063
44098SOL     OW34190   5.915  11.774  13.914
44098SOL    HW134191   5.965  11.693  13.909
44098SOL    HW234192   5.841  11.753  13.971
44099SOL     OW34193   7.059   6.889   2.097
44099SOL    HW134194   7.093   6.977   2.079
44099SOL    HW234195   7.050   6.849   2.011
44100SOL     OW34196  14.452  10.806   0.985
44100SOL    HW134197  14.426  10.873   1.048
44100SOL    HW234198  14.412  10.832   0.903
44101SOL     OW34199   8.968   9.769   1.985
44101SOL    HW134200   9.006   9.760   2.073
44101SOL    HW234201   8.904   9.699   1.979
44102SOL     OW34202   8.203  13.156   0.681
44102SOL    HW134203   8.172  13.104   0.607
44102SOL    HW234204   8.295  13.174   0.661
44103SOL     OW34205  13.853   0.891   3.113
44103SOL    HW134206  13.905   0.824   3.157
44103SOL    HW234207  13.895   0.974   3.136
44104SOL     OW34208  10.449  11.606  12.341
44104SOL    HW134209  10.445  11.511  12.328
44104SOL    HW234210  10.515  11.636  12.277
44105SOL     OW34211   1.510   0.323  14.858
44105SOL    HW134212   1.516   0.231  14.831
44105SOL    HW234213   1.456   0.321   0.055
44106SOL     OW34214  14.851  14.590  12.677
44106SOL    HW134215  14.825  14.553  12.761
44106SOL    HW234216  14.825  14.681  12.682
44107SOL     OW34217  14.176   0.157   8.765
44107SOL    HW134218  14.240   0.139   8.697
44107SOL    HW234219  14.225   0.203   8.833
44108SOL     OW34220   1.006  14.219   6.053
44108SOL    HW134221   1.072  14.285   6.076
44108SOL    HW234222   0.998  14.227   5.958
44109SOL     OW34223   5.716  12.759   3.254
44109SOL    HW134224   5.649  12.697   3.225
44109SOL    HW234225   5.798  12.709   3.251
44110SOL     OW34226   1.783   6.446  11.763
44110SOL    HW134227   1.738   6.527  11.786
44110SOL    HW234228   1.876   6.466  11.773
44111SOL     OW34229   2.931   5.889   4.281
44111SOL    HW134230   2.957   5.803   4.313
44111SOL    HW234231   2.971   5.896   4.195
44112SOL     OW34232  14.362  12.810   9.121
44112SOL    HW134233  14.412  12.734   9.091
44112SOL    HW234234  14.370  12.874   9.050
44113SOL     OW34235   2.082   0.687   0.537
44113SOL    HW134236   2.135   0.752   0.581
44113SOL    HW234237   2.028   0.648   0.606
44114SOL     OW34238  10.133  12.249   3.910
44114SOL    HW134239  10.107  12.337   3.883
44114SOL    HW234240  10.064  12.192   3.876
44115SOL     OW34241  12.071   2.853   1.708
44115SOL    HW134242  12.127   2.929   1.723
44115SOL    HW234243  12.131   2.778   1.711
44116SOL     OW34244   6.271   8.648  11.268
44116SOL    HW134245   6.214   8.577  11.238
44116SOL    HW234246   6.262   8.647  11.363
44117SOL     OW34247  10.604  11.922   7.894
44117SOL    HW134248  10.685  11.877   7.871
44117SOL    HW234249  10.546  11.853   7.926
44118SOL     OW34250  10.080   8.588   3.104
44118SOL    HW134251  10.077   8.655   3.173
44118SOL    HW234252   9.990   8.558   3.095
44119SOL     OW34253  10.358  11.936   7.307
44119SOL    HW134254  10.275  11.937   7.355
44119SOL    HW234255  10.400  12.020   7.329
44120SOL     OW34256   5.575  11.300   4.862
44120SOL    HW134257   5.546  11.285   4.772
44120SOL    HW234258   5.560  11.216   4.906
44121SOL     OW34259   6.736   3.775  12.250
44121SOL    HW134260   6.667   3.735  12.303
44121SOL    HW234261   6.706   3.865  12.236
44122SOL     OW34262   3.817   1.693  11.890
44122SOL    HW134263   3.771   1.768  11.928
44122SOL    HW234264   3.879   1.732  11.829
44123SOL     OW34265   3.090   8.118   1.944
44123SOL    HW134266   3.181   8.090   1.939
44123SOL    HW234267   3.080   8.155   2.032
44124SOL     OW34268   2.631  13.017  12.547
44124SOL    HW134269   2.584  13.025  12.464
44124SOL    HW234270   2.711  12.969  12.524
44125SOL     OW34271   9.482   6.855  11.634
44125SOL    HW134272   9.399   6.901  11.646
44125SOL    HW234273   9.458   6.770  11.598
44126SOL     OW34274  13.542  14.606  13.638
44126SOL    HW134275  13.611  14.550  13.675
44126SOL    HW234276  13.540  14.682  13.695
44127SOL     OW34277   5.684  14.696   8.292
44127SOL    HW134278   5.776  14.716   8.312
44127SOL    HW234279   5.669  14.610   8.331
44128SOL     OW34280   8.714   0.549   2.438
44128SOL    HW134281   8.787   0.588   2.390
44128SOL    HW234282   8.638   0.600   2.411
44129SOL     OW34283   4.719   2.723   4.831
44129SOL    HW134284   4.653   2.769   4.779
44129SOL    HW234285   4.797   2.721   4.775
44130SOL     OW34286   2.329   2.195   7.355
44130SOL    HW134287   2.277   2.257   7.303
44130SOL    HW234288   2.369   2.137   7.290
44131SOL     OW34289  11.288   9.831   3.829
44131SOL    HW134290  11.245   9.824   3.743
44131SOL    HW234291  11.243   9.768   3.884
44132SOL     OW34292   5.602   5.713  14.225
44132SOL    HW134293   5.656   5.640  14.255
44132SOL    HW234294   5.512   5.679  14.229
44133SOL     OW34295  11.699  10.880   9.762
44133SOL    HW134296  11.756  10.827   9.707
44133SOL    HW234297  11.758  10.925   9.822
44134SOL     OW34298  12.741   2.787   7.653
44134SOL    HW134299  12.689   2.843   7.596
44134SOL    HW234300  12.800   2.846   7.698
44135SOL     OW34301  10.437   1.103  13.662
44135SOL    HW134302  10.366   1.158  13.629
44135SOL    HW234303  10.433   1.113  13.757
44136SOL     OW34304   7.628   6.690   5.746
44136SOL    HW134305   7.633   6.779   5.712
44136SOL    HW234306   7.718   6.669   5.772
44137SOL     OW34307   4.830   7.171   4.316
44137SOL    HW134308   4.836   7.264   4.338
44137SOL    HW234309   4.838   7.168   4.221
44138SOL     OW34310   0.445   8.848   4.497
44138SOL    HW134311   0.454   8.936   4.459
44138SOL    HW234312   0.468   8.859   4.589
44139SOL     OW34313  13.009   9.952  10.379
44139SOL    HW134314  12.936   9.981  10.435
44139SOL    HW234315  12.988   9.988  10.293
44140SOL     OW34316   2.580   6.907  14.533
44140SOL    HW134317   2.659   6.874  14.575
44140SOL    HW234318   2.589   7.002  14.536
44141SOL     OW34319  13.809   0.013   3.803
44141SOL    HW134320  13.713   0.010   3.798
44141SOL    HW234321  13.837  14.811   3.767
44142SOL     OW34322   3.221  13.423   9.250
44142SOL    HW134323   3.253  13.436   9.339
44142SOL    HW234324   3.136  13.380   9.261
44143SOL     OW34325   0.197   9.630   0.609
44143SOL    HW134326   0.284   9.618   0.572
44143SOL    HW234327   0.212   9.651   0.701
44144SOL     OW34328   9.783   5.754  12.587
44144SOL    HW134329   9.824   5.824  12.637
44144SOL    HW234330   9.841   5.741  12.512
44145SOL     OW34331   6.513   7.260   5.828
44145SOL    HW134332   6.587   7.319   5.840
44145SOL    HW234333   6.437   7.312   5.853
44146SOL     OW34334   1.372   5.222   7.968
44146SOL    HW134335   1.370   5.312   8.000
44146SOL    HW234336   1.446   5.182   8.014
44147SOL     OW34337   7.967   5.926  10.518
44147SOL    HW134338   7.915   5.999  10.484
44147SOL    HW234339   8.043   5.968  10.558
44148SOL     OW34340   8.524  10.090   1.196
44148SOL    HW134341   8.468  10.141   1.137
44148SOL    HW234342   8.599  10.064   1.142
44149SOL     OW34343  11.890   8.571  12.687
44149SOL    HW134344  11.973   8.579  12.641
44149SOL    HW234345  11.828   8.619  12.632
44150SOL     OW34346   3.721   8.033   4.019
44150SOL    HW134347   3.711   8.110   3.963
44150SOL    HW234348   3.752   8.067   4.102
44151SOL     OW34349  12.458  13.978   0.040
44151SOL    HW134350  12.389  14.012  14.866
44151SOL    HW234351  12.412  13.941   0.115
44152SOL     OW34352   0.939   6.331  11.510
44152SOL    HW134353   1.004   6.261  11.501
44152SOL    HW234354   0.991   6.410  11.528
44153SOL     OW34355   1.470   8.501   6.971
44153SOL    HW134356   1.393   8.504   6.913
44153SOL    HW234357   1.544   8.488   6.911
44154SOL     OW34358   5.400   7.166  13.359
44154SOL    HW134359   5.330   7.141  13.419
44154SOL    HW234360   5.479   7.168  13.414
44155SOL     OW34361   6.518   6.536  14.817
44155SOL    HW134362   6.469   6.456  14.835
44155SOL    HW234363   6.598   6.506  14.773
44156SOL     OW34364   4.802  13.611  10.968
44156SOL    HW134365   4.775  13.640  11.055
44156SOL    HW234366   4.737  13.648  10.909
44157SOL     OW34367   3.775   9.484  10.049
44157SOL    HW134368   3.707   9.549  10.031
44157SOL    HW234369   3.856   9.535  10.050
44158SOL     OW34370   5.816   8.757  10.379
44158SOL    HW134371   5.838   8.712  10.460
44158SOL    HW234372   5.897   8.800  10.351
44159SOL     OW34373  14.089   4.790  13.814
44159SOL    HW134374  14.021   4.850  13.844
44159SOL    HW234375  14.049   4.703  13.820
44160SOL     OW34376  12.731   7.227  10.296
44160SOL    HW134377  12.818   7.198  10.325
44160SOL    HW234378  12.715   7.308  10.346
44161SOL     OW34379   3.866  14.386   7.821
44161SOL    HW134380   3.865  14.477   7.849
44161SOL    HW234381   3.951  14.353   7.848
44162SOL     OW34382   4.261   5.630   8.987
44162SOL    HW134383   4.259   5.555   8.928
44162SOL    HW234384   4.169   5.658   8.994
44163SOL     OW34385  14.854   5.095   9.527
44163SOL    HW134386  14.843   5.190   9.539
44163SOL    HW234387  14.771   5.067   9.488
44164SOL     OW34388   0.226   4.999   8.311
44164SOL    HW134389   0.298   4.937   8.299
44164SOL    HW234390   0.226   5.017   8.405
44165SOL     OW34391   9.240   7.185   7.940
44165SOL    HW134392   9.223   7.137   8.021
44165SOL    HW234393   9.178   7.257   7.941
44166SOL     OW34394   2.610  10.998   4.411
44166SOL    HW134395   2.608  11.001   4.315
44166SOL    HW234396   2.520  10.978   4.436
44167SOL     OW34397   8.941   8.181   5.820
44167SOL    HW134398   9.006   8.251   5.815
44167SOL    HW234399   8.935   8.160   5.913
44168SOL     OW34400   5.521  11.387   2.622
44168SOL    HW134401   5.534  11.304   2.575
44168SOL    HW234402   5.449  11.429   2.576
44169SOL     OW34403   0.090   4.335  12.534
44169SOL    HW134404   0.096   4.412  12.478
44169SOL    HW234405  14.878   4.314  12.535
44170SOL     OW34406  12.372   1.579   5.776
44170SOL    HW134407  12.308   1.532   5.724
44170SOL    HW234408  12.347   1.671   5.767
44171SOL     OW34409   4.824   9.373   3.213
44171SOL    HW134410   4.860   9.307   3.273
44171SOL    HW234411   4.753   9.414   3.262
44172SOL     OW34412   5.259  12.218   6.683
44172SOL    HW134413   5.314  12.245   6.610
44172SOL    HW234414   5.320  12.199   6.754
44173SOL     OW34415  10.084  10.717   3.566
44173SOL    HW134416  10.155  10.687   3.622
44173SOL    HW234417  10.008  10.666   3.594
44174SOL     OW34418   8.000   9.031   0.043
44174SOL    HW134419   7.905   9.035   0.044
44174SOL    HW234420   8.023   9.011  14.834
44175SOL     OW34421  14.504   1.386  11.190
44175SOL    HW134422  14.427   1.373  11.134
44175SOL    HW234423  14.468   1.393  11.279
44176SOL     OW34424  14.053   6.424  13.921
44176SOL    HW134425  14.078   6.461  14.006
44176SOL    HW234426  14.036   6.499  13.866
44177SOL     OW34427  10.315   5.493   0.429
44177SOL    HW134428  10.240   5.452   0.387
44177SOL    HW234429  10.301   5.480   0.523
44178SOL     OW34430  13.182  13.499   0.447
44178SOL    HW134431  13.190  13.412   0.408
44178SOL    HW234432  13.271  13.521   0.475
44179SOL     OW34433   4.391   2.113   3.411
44179SOL    HW134434   4.420   2.174   3.479
44179SOL    HW234435   4.365   2.169   3.338
44180SOL     OW34436   7.770   7.369   6.878
44180SOL    HW134437   7.825   7.447   6.886
44180SOL    HW234438   7.813   7.304   6.934
44181SOL     OW34439   5.108   2.866   8.956
44181SOL    HW134440   5.133   2.922   8.883
44181SOL    HW234441   5.190   2.845   9.000
44182SOL     OW34442  11.814   8.152   5.434
44182SOL    HW134443  11.884   8.164   5.370
44182SOL    HW234444  11.859   8.141   5.517
44183SOL     OW34445   1.783   0.116   4.088
44183SOL    HW134446   1.836   0.079   4.158
44183SOL    HW234447   1.759   0.203   4.120
44184SOL     OW34448   9.890  10.856   8.361
44184SOL    HW134449   9.872  10.810   8.280
44184SOL    HW234450   9.804  10.885   8.392
44185SOL     OW34451   6.589   9.210  11.422
44185SOL    HW134452   6.582   9.238  11.330
44185SOL    HW234453   6.581   9.114  11.418
44186SOL     OW34454   3.384  14.486  10.832
44186SOL    HW134455   3.434  14.562  10.801
44186SOL    HW234456   3.393  14.489  10.927
44187SOL     OW34457   4.994   9.953  12.926
44187SOL    HW134458   5.064  10.019  12.924
44187SOL    HW234459   4.957   9.956  12.837
44188SOL     OW34460   8.400   8.584   4.481
44188SOL    HW134461   8.338   8.649   4.514
44188SOL    HW234462   8.486   8.627   4.488
44189SOL     OW34463   9.223  13.122   3.973
44189SOL    HW134464   9.260  13.079   4.051
44189SOL    HW234465   9.234  13.058   3.903
44190SOL     OW34466   8.885   4.560   3.374
44190SOL    HW134467   8.962   4.614   3.390
44190SOL    HW234468   8.876   4.507   3.454
44191SOL     OW34469   3.485  14.069   8.398
44191SOL    HW134470   3.520  13.989   8.439
44191SOL    HW234471   3.489  14.051   8.304
44192SOL     OW34472   7.564   1.797   5.035
44192SOL    HW134473   7.578   1.737   4.962
44192SOL    HW234474   7.602   1.753   5.111
44193SOL     OW34475   3.760   4.756   8.881
44193SOL    HW134476   3.713   4.680   8.847
44193SOL    HW234477   3.789   4.729   8.969
44194SOL     OW34478   2.679   3.701   9.355
44194SOL    HW134479   2.588   3.687   9.383
44194SOL    HW234480   2.729   3.638   9.406
44195SOL     OW34481  10.551   0.054   8.602
44195SOL    HW134482  10.550   0.130   8.544
44195SOL    HW234483  10.638   0.017   8.592
44196SOL     OW34484   9.620   6.309   4.108
44196SOL    HW134485   9.533   6.297   4.146
44196SOL    HW234486   9.603   6.330   4.016
44197SOL     OW34487   5.821   7.361  14.404
44197SOL    HW134488   5.813   7.394  14.493
44197SOL    HW234489   5.879   7.424  14.361
44198SOL     OW34490  14.478  10.056   4.611
44198SOL    HW134491  14.404  10.106   4.645
44198SOL    HW234492  14.495  10.095   4.525
44199SOL     OW34493  13.169   0.219   5.367
44199SOL    HW134494  13.124   0.303   5.371
44199SOL    HW234495  13.103   0.155   5.394
44200SOL     OW34496  11.581   8.174   4.464
44200SOL    HW134497  11.562   8.080   4.456
44200SOL    HW234498  11.549   8.197   4.551
44201SOL     OW34499  13.425   3.484   3.437
44201SOL    HW134500  13.491   3.542   3.401
44201SOL    HW234501  13.400   3.524   3.520
44202SOL     OW34502  11.000   3.347   0.355
44202SOL    HW134503  11.018   3.404   0.280
44202SOL    HW234504  11.086   3.334   0.396
44203SOL     OW34505   7.229   9.122   7.619
44203SOL    HW134506   7.210   9.201   7.669
44203SOL    HW234507   7.218   9.051   7.682
44204SOL     OW34508   1.687  13.792   1.987
44204SOL    HW134509   1.692  13.858   2.056
44204SOL    HW234510   1.778  13.776   1.963
44205SOL     OW34511   7.711   7.941   2.982
44205SOL    HW134512   7.746   8.029   2.968
44205SOL    HW234513   7.690   7.937   3.075
44206SOL     OW34514   6.882   7.007   4.690
44206SOL    HW134515   6.898   7.002   4.596
44206SOL    HW234516   6.942   6.943   4.728
44207SOL     OW34517   8.769   6.262  12.615
44207SOL    HW134518   8.844   6.211  12.585
44207SOL    HW234519   8.767   6.248  12.709
44208SOL     OW34520  13.536   8.957   2.410
44208SOL    HW134521  13.447   8.951   2.374
44208SOL    HW234522  13.593   8.938   2.336
44209SOL     OW34523  10.397   0.596   8.323
44209SOL    HW134524  10.324   0.648   8.355
44209SOL    HW234525  10.365   0.506   8.326
44210SOL     OW34526   3.117   4.937  13.041
44210SOL    HW134527   3.136   4.847  13.016
44210SOL    HW234528   3.042   4.930  13.100
44211SOL     OW34529   4.078   2.505   9.280
44211SOL    HW134530   4.038   2.479   9.197
44211SOL    HW234531   4.158   2.453   9.286
44212SOL     OW34532   1.561   5.992   9.742
44212SOL    HW134533   1.473   5.965   9.714
44212SOL    HW234534   1.620   5.930   9.698
44213SOL     OW34535   3.733   2.414  10.067
44213SOL    HW134536   3.762   2.392   9.978
44213SOL    HW234537   3.652   2.462  10.054
44214SOL     OW34538   1.839  13.776  12.051
44214SOL    HW134539   1.878  13.699  12.093
44214SOL    HW234540   1.913  13.835  12.035
44215SOL     OW34541  11.836   0.141   2.125
44215SOL    HW134542  11.766   0.203   2.147
44215SOL    HW234543  11.844   0.148   2.030
44216SOL     OW34544   5.107  13.598   4.036
44216SOL    HW134545   5.130  13.550   3.956
44216SOL    HW234546   5.158  13.557   4.105
44217SOL     OW34547   0.116   2.512  10.911
44217SOL    HW134548   0.092   2.422  10.933
44217SOL    HW234549   0.212   2.511  10.904
44218SOL     OW34550   7.220   5.979   4.310
44218SOL    HW134551   7.234   6.047   4.245
44218SOL    HW234552   7.140   5.934   4.281
44219SOL     OW34553   4.972   2.090   4.080
44219SOL    HW134554   5.022   2.117   4.157
44219SOL    HW234555   4.887   2.063   4.115
44220SOL     OW34556   8.800   1.875  14.637
44220SOL    HW134557   8.874   1.935  14.621
44220SOL    HW234558   8.779   1.839  14.551
44221SOL     OW34559   8.134  12.811   5.405
44221SOL    HW134560   8.075  12.738   5.389
44221SOL    HW234561   8.171  12.793   5.492
44222SOL     OW34562   6.281  10.182   9.480
44222SOL    HW134563   6.329  10.164   9.561
44222SOL    HW234564   6.208  10.119   9.481
44223SOL     OW34565  12.211   8.003   2.200
44223SOL    HW134566  12.227   8.068   2.131
44223SOL    HW234567  12.213   7.919   2.154
44224SOL     OW34568   7.284   9.703  13.964
44224SOL    HW134569   7.280   9.789  14.006
44224SOL    HW234570   7.374   9.696  13.932
44225SOL     OW34571   1.833   7.038  14.071
44225SOL    HW134572   1.811   6.985  13.994
44225SOL    HW234573   1.814   6.980  14.145
44226SOL     OW34574   2.842   0.353   2.462
44226SOL    HW134575   2.861   0.319   2.549
44226SOL    HW234576   2.838   0.448   2.474
44227SOL     OW34577  14.099  11.255   4.738
44227SOL    HW134578  14.155  11.246   4.816
44227SOL    HW234579  14.083  11.349   4.730
44228SOL     OW34580  11.129   0.110   2.461
44228SOL    HW134581  11.204   0.129   2.517
44228SOL    HW234582  11.118   0.189   2.408
44229SOL     OW34583   3.334  13.775   8.693
44229SOL    HW134584   3.295  13.745   8.611
44229SOL    HW234585   3.271  13.838   8.729
44230SOL     OW34586   7.678  14.259   5.314
44230SOL    HW134587   7.628  14.239   5.393
44230SOL    HW234588   7.655  14.189   5.253
44231SOL     OW34589  10.884   8.936   9.321
44231SOL    HW134590  10.927   8.851   9.328
44231SOL    HW234591  10.953   8.999   9.343
44232SOL     OW34592   4.688   4.261   7.988
44232SOL    HW134593   4.740   4.251   7.908
44232SOL    HW234594   4.598   4.273   7.958
44233SOL     OW34595   2.355   1.791   9.487
44233SOL    HW134596   2.442   1.825   9.462
44233SOL    HW234597   2.327   1.741   9.411
44234SOL     OW34598   9.304  13.107   8.344
44234SOL    HW134599   9.221  13.114   8.391
44234SOL    HW234600   9.333  13.198   8.333
44235SOL     OW34601   1.136  13.754   1.823
44235SOL    HW134602   1.106  13.670   1.788
44235SOL    HW234603   1.161  13.804   1.746
44236SOL     OW34604   6.406  11.706   5.937
44236SOL    HW134605   6.422  11.725   6.030
44236SOL    HW234606   6.441  11.783   5.891
44237SOL     OW34607  11.204   0.245  13.025
44237SOL    HW134608  11.173   0.331  13.054
44237SOL    HW234609  11.230   0.201  13.106
44238SOL     OW34610   5.309   8.952   2.567
44238SOL    HW134611   5.329   9.008   2.642
44238SOL    HW234612   5.372   8.880   2.573
44239SOL     OW34613  13.089   2.588  11.855
44239SOL    HW134614  13.096   2.588  11.759
44239SOL    HW234615  13.119   2.501  11.881
44240SOL     OW34616  14.129   9.276  13.879
44240SOL    HW134617  14.076   9.350  13.848
44240SOL    HW234618  14.097   9.201  13.828
44241SOL     OW34619   3.798   8.513  10.580
44241SOL    HW134620   3.753   8.598  10.582
44241SOL    HW234621   3.830   8.505  10.490
44242SOL     OW34622  13.457   0.950   5.333
44242SOL    HW134623  13.459   1.040   5.299
44242SOL    HW234624  13.518   0.902   5.277
44243SOL     OW34625   6.323  14.630  14.490
44243SOL    HW134626   6.327  14.724  14.508
44243SOL    HW234627   6.355  14.621  14.401
44244SOL     OW34628  10.091   6.174  13.122
44244SOL    HW134629  10.158   6.112  13.094
44244SOL    HW234630  10.041   6.193  13.043
44245SOL     OW34631  12.052   3.933   3.045
44245SOL    HW134632  12.022   3.850   3.083
44245SOL    HW234633  12.142   3.916   3.018
44246SOL     OW34634  12.824   1.457   2.160
44246SOL    HW134635  12.787   1.532   2.114
44246SOL    HW234636  12.839   1.391   2.092
44247SOL     OW34637   0.584   0.725   0.490
44247SOL    HW134638   0.495   0.741   0.524
44247SOL    HW234639   0.626   0.672   0.558
44248SOL     OW34640   4.757   9.835   1.864
44248SOL    HW134641   4.682   9.778   1.881
44248SOL    HW234642   4.824   9.807   1.926
44249SOL     OW34643   8.081   1.981  11.032
44249SOL    HW134644   7.998   2.009  10.995
44249SOL    HW234645   8.147   2.033  10.985
44250SOL     OW34646   0.212   8.339  13.399
44250SOL    HW134647   0.119   8.351  13.417
44250SOL    HW234648   0.220   8.348  13.304
44251SOL     OW34649  14.159   2.968   3.424
44251SOL    HW134650  14.082   2.934   3.470
44251SOL    HW234651  14.157   2.926   3.338
44252SOL     OW34652  14.245  11.130   0.899
44252SOL    HW134653  14.199  11.069   0.957
44252SOL    HW234654  14.220  11.103   0.811
44253SOL     OW34655   4.837  12.290   9.463
44253SOL    HW134656   4.851  12.200   9.431
44253SOL    HW234657   4.742  12.300   9.465
44254SOL     OW34658   5.350  14.587  12.852
44254SOL    HW134659   5.354  14.501  12.810
44254SOL    HW234660   5.381  14.572  12.941
44255SOL     OW34661   4.100   5.849   6.471
44255SOL    HW134662   4.007   5.845   6.495
44255SOL    HW234663   4.116   5.942   6.453
44256SOL     OW34664   0.884   2.529   3.527
44256SOL    HW134665   0.885   2.434   3.528
44256SOL    HW234666   0.903   2.553   3.437
44257SOL     OW34667   1.844   5.161   8.302
44257SOL    HW134668   1.902   5.094   8.266
44257SOL    HW234669   1.832   5.136   8.393
44258SOL     OW34670  10.316  10.009   5.240
44258SOL    HW134671  10.267   9.946   5.292
44258SOL    HW234672  10.264  10.090   5.245
44259SOL     OW34673  10.409   0.629  14.700
44259SOL    HW134674  10.412   0.725  14.694
44259SOL    HW234675  10.473   0.607  14.768
44260SOL     OW34676  13.244   6.482  11.221
44260SOL    HW134677  13.268   6.392  11.198
44260SOL    HW234678  13.328   6.527  11.234
44261SOL     OW34679  11.245  14.321  14.594
44261SOL    HW134680  11.256  14.296  14.502
44261SOL    HW234681  11.201  14.247  14.635
44262SOL     OW34682   8.771  10.868   8.703
44262SOL    HW134683   8.822  10.817   8.766
44262SOL    HW234684   8.823  10.947   8.688
44263SOL     OW34685  12.669  13.223   9.727
44263SOL    HW134686  12.689  13.171   9.804
44263SOL    HW234687  12.683  13.313   9.754
44264SOL     OW34688  12.719  12.309  11.547
44264SOL    HW134689  12.739  12.231  11.598
44264SOL    HW234690  12.722  12.381  11.610
44265SOL     OW34691  10.869  12.837  10.553
44265SOL    HW134692  10.786  12.849  10.599
44265SOL    HW234693  10.928  12.798  10.618
44266SOL     OW34694   8.536   1.594   6.994
44266SOL    HW134695   8.497   1.574   6.909
44266SOL    HW234696   8.573   1.511   7.025
44267SOL     OW34697   2.725  11.033  13.365
44267SOL    HW134698   2.798  11.053  13.305
44267SOL    HW234699   2.738  11.094  13.438
44268SOL     OW34700  12.010   2.501   7.595
44268SOL    HW134701  11.941   2.470   7.537
44268SOL    HW234702  12.000   2.449   7.675
44269SOL     OW34703   7.217   8.789   6.624
44269SOL    HW134704   7.208   8.881   6.602
44269SOL    HW234705   7.286   8.787   6.691
44270SOL     OW34706   7.582   8.820  14.744
44270SOL    HW134707   7.487   8.814  14.739
44270SOL    HW234708   7.608   8.871  14.667
44271SOL     OW34709  12.214   0.984   5.268
44271SOL    HW134710  12.161   0.920   5.316
44271SOL    HW234711  12.152   1.054   5.247
44272SOL     OW34712   5.049  14.472   6.413
44272SOL    HW134713   5.058  14.563   6.443
44272SOL    HW234714   5.029  14.422   6.492
44273SOL     OW34715   5.249  14.289   8.446
44273SOL    HW134716   5.325  14.233   8.435
44273SOL    HW234717   5.236  14.328   8.359
44274SOL     OW34718  12.564  14.071   9.283
44274SOL    HW134719  12.564  14.045   9.376
44274SOL    HW234720  12.499  14.141   9.278
44275SOL     OW34721   9.296  13.472   4.938
44275SOL    HW134722   9.354  13.483   5.013
44275SOL    HW234723   9.344  13.512   4.865
44276SOL     OW34724   9.286  13.624   4.495
44276SOL    HW134725   9.193  13.630   4.516
44276SOL    HW234726   9.292  13.656   4.405
44277SOL     OW34727  13.464   2.148   7.567
44277SOL    HW134728  13.423   2.214   7.511
44277SOL    HW234729  13.399   2.078   7.572
44278SOL     OW34730   0.422  11.217   9.024
44278SOL    HW134731   0.478  11.201   9.100
44278SOL    HW234732   0.339  11.246   9.060
44279SOL     OW34733   2.800  11.784   8.572
44279SOL    HW134734   2.727  11.761   8.629
44279SOL    HW234735   2.826  11.872   8.600
44280SOL     OW34736   8.411  14.604   6.374
44280SOL    HW134737   8.484  14.645   6.330
44280SOL    HW234738   8.343  14.671   6.377
44281SOL     OW34739   5.642   6.893   6.205
44281SOL    HW134740   5.608   6.817   6.252
44281SOL    HW234741   5.578   6.963   6.222
44282SOL     OW34742  11.231  12.986   3.719
44282SOL    HW134743  11.224  12.970   3.624
44282SOL    HW234744  11.226  13.081   3.728
44283SOL     OW34745   5.603  13.317   0.373
44283SOL    HW134746   5.612  13.350   0.284
44283SOL    HW234747   5.692  13.291   0.398
44284SOL     OW34748   4.641   8.904   1.557
44284SOL    HW134749   4.546   8.901   1.571
44284SOL    HW234750   4.661   8.997   1.550
44285SOL     OW34751   5.180   9.176  12.588
44285SOL    HW134752   5.175   9.109  12.656
44285SOL    HW234753   5.097   9.169  12.541
44286SOL     OW34754   5.380   3.899   7.895
44286SOL    HW134755   5.311   3.930   7.837
44286SOL    HW234756   5.459   3.942   7.862
44287SOL     OW34757   7.288   7.590   5.897
44287SOL    HW134758   7.296   7.653   5.969
44287SOL    HW234759   7.325   7.509   5.932
44288SOL     OW34760   6.201   5.196  10.677
44288SOL    HW134761   6.208   5.204  10.582
44288SOL    HW234762   6.112   5.162  10.691
44289SOL     OW34763   7.090   5.188  11.604
44289SOL    HW134764   7.118   5.226  11.520
44289SOL    HW234765   7.171   5.171  11.650
44290SOL     OW34766   1.366  11.600   7.297
44290SOL    HW134767   1.315  11.519   7.288
44290SOL    HW234768   1.455  11.571   7.316
44291SOL     OW34769   1.221   3.401  10.558
44291SOL    HW134770   1.251   3.481  10.601
44291SOL    HW234771   1.242   3.414  10.465
44292SOL     OW34772   8.413  12.518   1.360
44292SOL    HW134773   8.446  12.593   1.408
44292SOL    HW234774   8.462  12.518   1.278
44293SOL     OW34775   3.126   9.804   3.517
44293SOL    HW134776   3.221   9.808   3.532
44293SOL    HW234777   3.102   9.715   3.542
44294SOL     OW34778  14.409   2.518  10.446
44294SOL    HW134779  14.359   2.593  10.415
44294SOL    HW234780  14.415   2.530  10.541
44295SOL     OW34781   4.686  13.281   5.857
44295SOL    HW134782   4.659  13.329   5.935
44295SOL    HW234783   4.711  13.348   5.794
44296SOL     OW34784   8.790  10.002   5.595
44296SOL    HW134785   8.709   9.984   5.547
44296SOL    HW234786   8.812   9.919   5.636
44297SOL     OW34787   2.430   2.034   8.540
44297SOL    HW134788   2.356   1.994   8.494
44297SOL    HW234789   2.481   1.959   8.571
44298SOL     OW34790   8.833   5.629   8.749
44298SOL    HW134791   8.909   5.674   8.786
44298SOL    HW234792   8.793   5.586   8.825
44299SOL     OW34793   2.590  11.913  11.336
44299SOL    HW134794   2.614  11.889  11.246
44299SOL    HW234795   2.543  11.996  11.327
44300SOL     OW34796   2.802   3.052   7.354
44300SOL    HW134797   2.720   3.014   7.386
44300SOL    HW234798   2.811   3.018   7.265
44301SOL     OW34799  11.227   9.364   8.523
44301SOL    HW134800  11.268   9.409   8.449
44301SOL    HW234801  11.208   9.433   8.586
44302SOL     OW34802   3.282  13.524  13.623
44302SOL    HW134803   3.216  13.455  13.629
44302SOL    HW234804   3.327  13.521  13.708
44303SOL     OW34805   9.847  11.860   3.506
44303SOL    HW134806   9.816  11.779   3.465
44303SOL    HW234807   9.816  11.854   3.597
44304SOL     OW34808  11.642   2.665   0.344
44304SOL    HW134809  11.582   2.654   0.270
44304SOL    HW234810  11.721   2.616   0.318
44305SOL     OW34811   1.081   6.242   8.434
44305SOL    HW134812   1.093   6.307   8.365
44305SOL    HW234813   1.039   6.290   8.505
44306SOL     OW34814   1.996   0.543  13.597
44306SOL    HW134815   1.947   0.625  13.604
44306SOL    HW234816   2.079   0.567  13.555
44307SOL     OW34817   9.414   0.614   1.406
44307SOL    HW134818   9.439   0.678   1.473
44307SOL    HW234819   9.376   0.541   1.454
44308SOL     OW34820   7.300   3.551   7.291
44308SOL    HW134821   7.346   3.470   7.315
44308SOL    HW234822   7.343   3.580   7.211
44309SOL     OW34823   0.089   7.465   5.551
44309SOL    HW134824   0.095   7.532   5.484
44309SOL    HW234825   0.165   7.408   5.536
44310SOL     OW34826   5.422  11.710   3.502
44310SOL    HW134827   5.383  11.630   3.468
44310SOL    HW234828   5.463  11.751   3.425
44311SOL     OW34829   0.649   4.412  14.004
44311SOL    HW134830   0.683   4.445  13.921
44311SOL    HW234831   0.703   4.336  14.024
44312SOL     OW34832   8.259   0.447   8.266
44312SOL    HW134833   8.210   0.367   8.285
44312SOL    HW234834   8.279   0.483   8.352
44313SOL     OW34835  14.430   2.230   6.469
44313SOL    HW134836  14.483   2.199   6.396
44313SOL    HW234837  14.343   2.193   6.454
44314SOL     OW34838   1.287  13.475   3.669
44314SOL    HW134839   1.263  13.565   3.648
44314SOL    HW234840   1.204  13.431   3.685
44315SOL     OW34841  11.243   3.756  14.107
44315SOL    HW134842  11.222   3.791  14.020
44315SOL    HW234843  11.269   3.665  14.090
44316SOL     OW34844   3.445   4.061   2.374
44316SOL    HW134845   3.424   3.970   2.391
44316SOL    HW234846   3.422   4.075   2.282
44317SOL     OW34847   6.121   6.212  14.788
44317SOL    HW134848   6.096   6.120  14.800
44317SOL    HW234849   6.037   6.258  14.782
44318SOL     OW34850  11.711  10.294  12.885
44318SOL    HW134851  11.673  10.271  12.969
44318SOL    HW234852  11.801  10.260  12.890
44319SOL     OW34853   7.470  11.226   5.350
44319SOL    HW134854   7.520  11.242   5.430
44319SOL    HW234855   7.379  11.226   5.378
44320SOL     OW34856   1.189   7.236   8.977
44320SOL    HW134857   1.113   7.260   8.924
44320SOL    HW234858   1.168   7.149   9.012
44321SOL     OW34859   5.149   4.569   8.284
44321SOL    HW134860   5.186   4.653   8.257
44321SOL    HW234861   5.108   4.533   8.205
44322SOL     OW34862   2.178   5.383   8.345
44322SOL    HW134863   2.127   5.374   8.265
44322SOL    HW234864   2.267   5.360   8.320
44323SOL     OW34865  14.163   7.400   2.291
44323SOL    HW134866  14.125   7.315   2.314
44323SOL    HW234867  14.241   7.408   2.345
44324SOL     OW34868   5.315   3.634   8.483
44324SOL    HW134869   5.245   3.670   8.537
44324SOL    HW234870   5.381   3.703   8.480
44325SOL     OW34871  14.345   2.481  12.636
44325SOL    HW134872  14.379   2.425  12.706
44325SOL    HW234873  14.252   2.490  12.656
44326SOL     OW34874   7.614   1.075   6.963
44326SOL    HW134875   7.679   1.077   7.034
44326SOL    HW234876   7.592   1.167   6.949
44327SOL     OW34877  10.951   4.248  10.615
44327SOL    HW134878  10.952   4.286  10.703
44327SOL    HW234879  11.038   4.266  10.580
44328SOL     OW34880   2.456   9.111   1.619
44328SOL    HW134881   2.474   9.022   1.588
44328SOL    HW234882   2.543   9.149   1.634
44329SOL     OW34883   1.710   7.588  11.129
44329SOL    HW134884   1.713   7.503  11.084
44329SOL    HW234885   1.661   7.645  11.070
44330SOL     OW34886   4.710  12.623   3.078
44330SOL    HW134887   4.688  12.716   3.087
44330SOL    HW234888   4.626  12.578   3.082
44331SOL     OW34889  12.009  13.041   8.623
44331SOL    HW134890  12.012  13.137   8.614
44331SOL    HW234891  12.031  13.025   8.714
44332SOL     OW34892  10.476   9.561  14.609
44332SOL    HW134893  10.469   9.498  14.537
44332SOL    HW234894  10.525   9.514  14.677
44333SOL     OW34895   3.881  12.990   0.892
44333SOL    HW134896   3.832  13.068   0.919
44333SOL    HW234897   3.922  13.015   0.809
44334SOL     OW34898   6.766  13.451   5.832
44334SOL    HW134899   6.740  13.406   5.912
44334SOL    HW234900   6.779  13.381   5.768
44335SOL     OW34901  13.837   8.428  14.826
44335SOL    HW134902  13.848   8.406  14.734
44335SOL    HW234903  13.909   8.487  14.846
44336SOL     OW34904   3.177   4.998   6.338
44336SOL    HW134905   3.188   5.067   6.404
44336SOL    HW234906   3.232   4.926   6.371
44337SOL     OW34907  10.494   3.414  11.823
44337SOL    HW134908  10.475   3.347  11.888
44337SOL    HW234909  10.464   3.496  11.862
44338SOL     OW34910   5.913   9.914  11.655
44338SOL    HW134911   6.004   9.888  11.670
44338SOL    HW234912   5.915  10.010  11.656
44339SOL     OW34913   1.091   0.885   4.798
44339SOL    HW134914   1.088   0.961   4.739
44339SOL    HW234915   1.041   0.817   4.753
44340SOL     OW34916   4.042   8.402  11.001
44340SOL    HW134917   3.989   8.392  10.922
44340SOL    HW234918   4.072   8.313  11.021
44341SOL     OW34919   8.785   1.145  11.333
44341SOL    HW134920   8.811   1.116  11.246
44341SOL    HW234921   8.690   1.141  11.333
44342SOL     OW34922  10.563  12.519   2.330
44342SOL    HW134923  10.632  12.474   2.379
44342SOL    HW234924  10.485  12.510   2.386
44343SOL     OW34925   3.294   9.592  10.571
44343SOL    HW134926   3.359   9.565  10.635
44343SOL    HW234927   3.212   9.553  10.603
44344SOL     OW34928   0.454  10.528   5.084
44344SOL    HW134929   0.467  10.573   5.001
44344SOL    HW234930   0.485  10.439   5.068
44345SOL     OW34931   3.811   1.057   3.806
44345SOL    HW134932   3.788   1.031   3.717
44345SOL    HW234933   3.874   1.128   3.795
44346SOL     OW34934   4.772  10.166   0.438
44346SOL    HW134935   4.688  10.140   0.402
44346SOL    HW234936   4.772  10.129   0.527
44347SOL     OW34937  12.968  10.074   8.250
44347SOL    HW134938  12.986  10.168   8.240
44347SOL    HW234939  12.946  10.045   8.161
44348SOL     OW34940   5.910   1.403  11.161
44348SOL    HW134941   5.850   1.474  11.184
44348SOL    HW234942   5.914   1.406  11.065
44349SOL     OW34943  13.745   3.253   9.828
44349SOL    HW134944  13.750   3.163   9.798
44349SOL    HW234945  13.653   3.265   9.852
44350SOL     OW34946  13.844   7.850   5.707
44350SOL    HW134947  13.881   7.767   5.678
44350SOL    HW234948  13.813   7.891   5.626
44351SOL     OW34949   5.535  10.109   9.551
44351SOL    HW134950   5.550  10.015   9.541
44351SOL    HW234951   5.619  10.145   9.578
44352SOL     OW34952  11.541   9.306   4.371
44352SOL    HW134953  11.518   9.396   4.349
44352SOL    HW234954  11.637   9.306   4.374
44353SOL     OW34955  10.584  13.369   5.696
44353SOL    HW134956  10.639  13.296   5.726
44353SOL    HW234957  10.588  13.365   5.601
44354SOL     OW34958   9.241   7.753  10.138
44354SOL    HW134959   9.245   7.678  10.197
44354SOL    HW234960   9.180   7.726  10.069
44355SOL     OW34961   6.145   2.066   1.189
44355SOL    HW134962   6.070   2.119   1.217
44355SOL    HW234963   6.222   2.120   1.208
44356SOL     OW34964  13.845   9.026   8.861
44356SOL    HW134965  13.928   9.035   8.909
44356SOL    HW234966  13.797   9.107   8.880
44357SOL     OW34967  12.230   6.693   8.392
44357SOL    HW134968  12.291   6.622   8.413
44357SOL    HW234969  12.272   6.772   8.427
44358SOL     OW34970  14.224  13.892  14.579
44358SOL    HW134971  14.149  13.903  14.521
44358SOL    HW234972  14.280  13.829  14.534
44359SOL     OW34973   5.634   2.695  12.174
44359SOL    HW134974   5.550   2.725  12.138
44359SOL    HW234975   5.615   2.676  12.266
44360SOL     OW34976   1.079   2.855  14.182
44360SOL    HW134977   1.041   2.862  14.269
44360SOL    HW234978   1.104   2.762  14.175
44361SOL     OW34979  12.686   4.770  12.094
44361SOL    HW134980  12.633   4.718  12.154
44361SOL    HW234981  12.777   4.745  12.113
44362SOL     OW34982  11.340   1.796   6.856
44362SOL    HW134983  11.337   1.840   6.770
44362SOL    HW234984  11.362   1.705   6.836
44363SOL     OW34985   3.540   2.383  11.455
44363SOL    HW134986   3.523   2.412  11.545
44363SOL    HW234987   3.467   2.420  11.404
44364SOL     OW34988   8.311   5.059   0.723
44364SOL    HW134989   8.322   5.081   0.815
44364SOL    HW234990   8.398   5.069   0.685
44365SOL     OW34991   8.988   9.272   6.181
44365SOL    HW134992   9.080   9.247   6.187
44365SOL    HW234993   8.986   9.361   6.217
44366SOL     OW34994  10.862  11.696   7.470
44366SOL    HW134995  10.842  11.682   7.562
44366SOL    HW234996  10.952  11.729   7.469
44367SOL     OW34997   6.633   5.572  12.974
44367SOL    HW134998   6.557   5.615  12.934
44367SOL    HW234999   6.709   5.610  12.930
44368SOL     OW35000  12.718   6.012   1.016
44368SOL    HW135001  12.638   6.041   0.971
44368SOL    HW235002  12.730   6.075   1.087
44369SOL     OW35003   3.720  11.668   8.841
44369SOL    HW135004   3.706  11.705   8.754
44369SOL    HW235005   3.635  11.675   8.884
44370SOL     OW35006   5.754  14.572   9.697
44370SOL    HW135007   5.724  14.569   9.788
44370SOL    HW235008   5.836  14.621   9.700
44371SOL     OW35009   0.283  12.178   9.906
44371SOL    HW135010   0.333  12.180   9.987
44371SOL    HW235011   0.322  12.246   9.851
44372SOL     OW35012  10.441   4.190   9.440
44372SOL    HW135013  10.389   4.122   9.397
44372SOL    HW235014  10.416   4.186   9.532
44373SOL     OW35015  12.300  13.708   6.933
44373SOL    HW135016  12.254  13.657   6.866
44373SOL    HW235017  12.281  13.799   6.911
44374SOL     OW35018   4.691   0.459   3.499
44374SOL    HW135019   4.661   0.480   3.588
44374SOL    HW235020   4.692   0.544   3.455
44375SOL     OW35021   5.803   2.770   6.539
44375SOL    HW135022   5.816   2.783   6.445
44375SOL    HW235023   5.884   2.800   6.579
44376SOL     OW35024   1.863  14.012   8.700
44376SOL    HW135025   1.801  14.060   8.645
44376SOL    HW235026   1.855  14.053   8.786
44377SOL     OW35027   5.368   2.136   5.637
44377SOL    HW135028   5.405   2.108   5.553
44377SOL    HW235029   5.342   2.055   5.681
44378SOL     OW35030   0.681  14.845   1.117
44378SOL    HW135031   0.738   0.039   1.126
44378SOL    HW235032   0.740  14.772   1.098
44379SOL     OW35033   9.033  10.315  14.789
44379SOL    HW135034   9.014  10.341  14.699
44379SOL    HW235035   9.050  10.398  14.835
44380SOL     OW35036  10.423  11.434   6.507
44380SOL    HW135037  10.331  11.444   6.481
44380SOL    HW235038  10.421  11.433   6.602
44381SOL     OW35039   9.616   2.114  12.647
44381SOL    HW135040   9.634   2.038  12.702
44381SOL    HW235041   9.691   2.172  12.660
44382SOL     OW35042  14.543   1.246  13.640
44382SOL    HW135043  14.631   1.274  13.614
44382SOL    HW235044  14.547   1.242  13.735
44383SOL     OW35045   1.029   8.401  11.424
44383SOL    HW135046   1.021   8.307  11.410
44383SOL    HW235047   0.945   8.438  11.394
44384SOL     OW35048   1.208   9.302  12.413
44384SOL    HW135049   1.190   9.283  12.322
44384SOL    HW235050   1.303   9.292  12.422
44385SOL     OW35051   3.183   8.920   8.408
44385SOL    HW135052   3.233   8.854   8.360
44385SOL    HW235053   3.093   8.909   8.377
44386SOL     OW35054   1.185   1.627   7.205
44386SOL    HW135055   1.099   1.644   7.167
44386SOL    HW235056   1.167   1.576   7.284
44387SOL     OW35057  12.611   7.637  11.440
44387SOL    HW135058  12.692   7.679  11.470
44387SOL    HW235059  12.619   7.546  11.469
44388SOL     OW35060   0.967  14.776   5.287
44388SOL    HW135061   0.922  14.729   5.358
44388SOL    HW235062   1.060  14.770   5.310
44389SOL     OW35063  14.456  11.701   9.216
44389SOL    HW135064  14.523  11.649   9.172
44389SOL    HW235065  14.398  11.636   9.257
44390SOL     OW35066  14.878   1.333   7.879
44390SOL    HW135067  14.803   1.369   7.928
44390SOL    HW235068  14.866   1.238   7.884
44391SOL     OW35069  14.629  12.704   4.156
44391SOL    HW135070  14.706  12.649   4.168
44391SOL    HW235071  14.658  12.792   4.176
44392SOL     OW35072   7.895   1.807   4.287
44392SOL    HW135073   7.932   1.719   4.291
44392SOL    HW235074   7.858   1.821   4.374
44393SOL     OW35075   7.865   5.110  10.811
44393SOL    HW135076   7.835   5.200  10.823
44393SOL    HW235077   7.817   5.077  10.736
44394SOL     OW35078  13.749   8.011   4.860
44394SOL    HW135079  13.839   8.009   4.827
44394SOL    HW235080  13.712   8.091   4.823
44395SOL     OW35081   6.583  12.558   8.884
44395SOL    HW135082   6.630  12.476   8.901
44395SOL    HW235083   6.510  12.532   8.829
44396SOL     OW35084   6.752   6.325   5.562
44396SOL    HW135085   6.670   6.294   5.601
44396SOL    HW235086   6.778   6.400   5.615
44397SOL     OW35087  11.733  12.878   4.311
44397SOL    HW135088  11.683  12.803   4.344
44397SOL    HW235089  11.671  12.950   4.308
44398SOL     OW35090   5.280   2.702   3.823
44398SOL    HW135091   5.364   2.747   3.819
44398SOL    HW235092   5.214   2.771   3.816
44399SOL     OW35093   0.555   9.582  14.583
44399SOL    HW135094   0.650   9.590  14.573
44399SOL    HW235095   0.543   9.552  14.673
44400SOL     OW35096   0.534   1.334   4.386
44400SOL    HW135097   0.457   1.298   4.431
44400SOL    HW235098   0.591   1.364   4.457
44401SOL     OW35099   8.181   2.766   0.625
44401SOL    HW135100   8.188   2.829   0.697
44401SOL    HW235101   8.156   2.820   0.550
44402SOL     OW35102  13.212   2.960   5.075
44402SOL    HW135103  13.140   3.022   5.085
44402SOL    HW235104  13.180   2.897   5.011
44403SOL     OW35105   3.994   3.935  10.675
44403SOL    HW135106   3.952   4.009  10.632
44403SOL    HW235107   3.992   3.865  10.610
44404SOL     OW35108  12.610  14.725  12.059
44404SOL    HW135109  12.568  14.785  11.998
44404SOL    HW235110  12.683  14.775  12.096
44405SOL     OW35111  11.164   0.278   0.883
44405SOL    HW135112  11.135   0.191   0.852
44405SOL    HW235113  11.254   0.286   0.852
44406SOL     OW35114   0.085  12.722   4.473
44406SOL    HW135115   0.143  12.705   4.547
44406SOL    HW235116   0.027  12.792   4.503
44407SOL     OW35117   3.094   3.929   6.293
44407SOL    HW135118   3.080   4.020   6.269
44407SOL    HW235119   3.012   3.901   6.334
44408SOL     OW35120  11.496   1.805  12.518
44408SOL    HW135121  11.562   1.872  12.536
44408SOL    HW235122  11.534   1.752  12.448
44409SOL     OW35123  11.613  11.742   9.713
44409SOL    HW135124  11.519  11.727   9.712
44409SOL    HW235125  11.638  11.728   9.805
44410SOL     OW35126  10.967   4.646   4.180
44410SOL    HW135127  10.916   4.572   4.146
44410SOL    HW235128  11.045   4.606   4.219
44411SOL     OW35129   1.169   2.441  14.208
44411SOL    HW135130   1.107   2.509  14.233
44411SOL    HW235131   1.251   2.487  14.192
44412SOL     OW35132   5.023   7.112  13.242
44412SOL    HW135133   5.001   7.118  13.335
44412SOL    HW235134   5.071   7.030  13.234
44413SOL     OW35135   6.894   8.237   6.875
44413SOL    HW135136   6.887   8.331   6.860
44413SOL    HW235137   6.989   8.220   6.877
44414SOL     OW35138  12.972   2.657   1.634
44414SOL    HW135139  12.897   2.671   1.577
44414SOL    HW235140  13.047   2.653   1.575
44415SOL     OW35141   5.813   6.537   6.793
44415SOL    HW135142   5.767   6.467   6.840
44415SOL    HW235143   5.902   6.503   6.781
44416SOL     OW35144  14.274  12.166   1.968
44416SOL    HW135145  14.262  12.255   1.935
44416SOL    HW235146  14.369  12.155   1.970
44417SOL     OW35147  14.371   2.929   8.858
44417SOL    HW135148  14.335   2.845   8.832
44417SOL    HW235149  14.438   2.908   8.923
44418SOL     OW35150  12.567   2.696   4.013
44418SOL    HW135151  12.626   2.739   4.074
44418SOL    HW235152  12.591   2.603   4.017
44419SOL     OW35153  14.306   8.026   9.553
44419SOL    HW135154  14.329   7.936   9.575
44419SOL    HW235155  14.311   8.073   9.637
44420SOL     OW35156   0.081  12.191  14.225
44420SOL    HW135157  14.868  12.182  14.216
44420SOL    HW235158   0.105  12.131  14.296
44421SOL     OW35159   5.524   2.134   4.357
44421SOL    HW135160   5.448   2.143   4.299
44421SOL    HW235161   5.584   2.204   4.328
44422SOL     OW35162   9.930  12.700  12.557
44422SOL    HW135163   9.977  12.691  12.640
44422SOL    HW235164   9.993  12.672  12.491
44423SOL     OW35165  13.614   6.492   9.224
44423SOL    HW135166  13.663   6.572   9.247
44423SOL    HW235167  13.682   6.427   9.208
44424SOL     OW35168  10.935  13.683  13.233
44424SOL    HW135169  10.891  13.615  13.285
44424SOL    HW235170  10.865  13.723  13.181
44425SOL     OW35171   1.349  11.295   3.486
44425SOL    HW135172   1.271  11.239   3.486
44425SOL    HW235173   1.405  11.257   3.418
44426SOL     OW35174   8.634  10.335  13.590
44426SOL    HW135175   8.589  10.272  13.535
44426SOL    HW235176   8.624  10.300  13.679
44427SOL     OW35177   4.505   9.247   4.721
44427SOL    HW135178   4.453   9.260   4.800
44427SOL    HW235179   4.512   9.152   4.713
44428SOL     OW35180   0.468   8.873  10.463
44428SOL    HW135181   0.563   8.876  10.452
44428SOL    HW235182   0.438   8.962  10.440
44429SOL     OW35183  12.728   8.775   2.823
44429SOL    HW135184  12.699   8.777   2.732
44429SOL    HW235185  12.772   8.859   2.836
44430SOL     OW35186   2.184  10.943   3.907
44430SOL    HW135187   2.271  10.971   3.880
44430SOL    HW235188   2.127  11.017   3.884
44431SOL     OW35189   3.192  13.036   6.837
44431SOL    HW135190   3.141  13.106   6.796
44431SOL    HW235191   3.254  13.008   6.770
44432SOL     OW35192   3.869   7.279  12.771
44432SOL    HW135193   3.879   7.313  12.682
44432SOL    HW235194   3.953   7.238  12.790
44433SOL     OW35195   6.211  13.861   5.773
44433SOL    HW135196   6.129  13.838   5.816
44433SOL    HW235197   6.191  13.859   5.680
44434SOL     OW35198   9.541   6.385  13.210
44434SOL    HW135199   9.578   6.465  13.172
44434SOL    HW235200   9.616   6.338  13.245
44435SOL     OW35201   2.734   9.761  13.318
44435SOL    HW135202   2.787   9.695  13.364
44435SOL    HW235203   2.735   9.837  13.376
44436SOL     OW35204   9.466   6.453   7.083
44436SOL    HW135205   9.411   6.443   7.161
44436SOL    HW235206   9.439   6.382   7.025
44437SOL     OW35207  13.753   2.730   4.875
44437SOL    HW135208  13.792   2.731   4.787
44437SOL    HW235209  13.661   2.707   4.860
44438SOL     OW35210  10.654  11.772   3.543
44438SOL    HW135211  10.567  11.758   3.582
44438SOL    HW235212  10.647  11.732   3.456
44439SOL     OW35213   1.899   7.321   3.462
44439SOL    HW135214   1.906   7.377   3.384
44439SOL    HW235215   1.815   7.276   3.451
44440SOL     OW35216   5.134  14.165   7.336
44440SOL    HW135217   5.165  14.154   7.246
44440SOL    HW235218   5.189  14.234   7.372
44441SOL     OW35219   3.757  14.025  14.681
44441SOL    HW135220   3.673  14.045  14.723
44441SOL    HW235221   3.789  13.947  14.726
44442SOL     OW35222   3.565   7.459   3.059
44442SOL    HW135223   3.549   7.412   3.141
44442SOL    HW235224   3.630   7.406   3.013
44443SOL     OW35225   2.430  11.154  12.195
44443SOL    HW135226   2.388  11.237  12.170
44443SOL    HW235227   2.383  11.127  12.274
44444SOL     OW35228   8.172  12.916   7.350
44444SOL    HW135229   8.184  12.911   7.445
44444SOL    HW235230   8.248  12.870   7.314
44445SOL     OW35231   4.495  14.763   4.291
44445SOL    HW135232   4.461  14.687   4.337
44445SOL    HW235233   4.534  14.727   4.211
44446SOL     OW35234  14.201   4.871   3.457
44446SOL    HW135235  14.288   4.832   3.466
44446SOL    HW235236  14.213   4.963   3.482
44447SOL     OW35237   4.328  12.885   2.216
44447SOL    HW135238   4.240  12.876   2.180
44447SOL    HW235239   4.342  12.980   2.219
44448SOL     OW35240   1.934   6.342   8.231
44448SOL    HW135241   1.917   6.401   8.304
44448SOL    HW235242   2.008   6.289   8.260
44449SOL     OW35243   2.250  12.369  10.608
44449SOL    HW135244   2.178  12.405  10.659
44449SOL    HW235245   2.217  12.367  10.518
44450SOL     OW35246   7.798  12.842  13.576
44450SOL    HW135247   7.733  12.799  13.520
44450SOL    HW235248   7.773  12.816  13.665
44451SOL     OW35249   1.510   4.975   5.749
44451SOL    HW135250   1.453   4.897   5.748
44451SOL    HW235251   1.505   5.006   5.840
44452SOL     OW35252  13.609   1.444   8.798
44452SOL    HW135253  13.569   1.529   8.777
44452SOL    HW235254  13.543   1.399   8.850
44453SOL     OW35255   9.004   7.438   1.931
44453SOL    HW135256   8.913   7.430   1.904
44453SOL    HW235257   9.054   7.434   1.849
44454SOL     OW35258   3.278   5.917  10.110
44454SOL    HW135259   3.336   5.960  10.173
44454SOL    HW235260   3.194   5.960  10.122
44455SOL     OW35261   2.274  12.652  14.690
44455SOL    HW135262   2.310  12.631  14.604
44455SOL    HW235263   2.279  12.569  14.739
44456SOL     OW35264   2.985  10.766   6.760
44456SOL    HW135265   2.891  10.748   6.751
44456SOL    HW235266   2.992  10.861   6.755
44457SOL     OW35267  12.309   1.271   5.085
44457SOL    HW135268  12.368   1.212   5.132
44457SOL    HW235269  12.221   1.246   5.114
44458SOL     OW35270  13.272  12.105   4.837
44458SOL    HW135271  13.329  12.061   4.774
44458SOL    HW235272  13.264  12.043   4.910
44459SOL     OW35273   0.874   9.916  12.209
44459SOL    HW135274   0.812   9.937  12.279
44459SOL    HW235275   0.936   9.855  12.250
44460SOL     OW35276   2.422  12.545   7.971
44460SOL    HW135277   2.361  12.498   8.028
44460SOL    HW235278   2.411  12.637   7.995
44461SOL     OW35279  13.711   6.589   8.544
44461SOL    HW135280  13.687   6.583   8.636
44461SOL    HW235281  13.629   6.602   8.498
44462SOL     OW35282   2.428   8.811   2.103
44462SOL    HW135283   2.499   8.787   2.162
44462SOL    HW235284   2.358   8.843   2.160
44463SOL     OW35285   6.130  11.934   3.166
44463SOL    HW135286   6.112  11.955   3.075
44463SOL    HW235287   6.086  12.002   3.216
44464SOL     OW35288   7.850  13.023  10.624
44464SOL    HW135289   7.860  13.117  10.605
44464SOL    HW235290   7.842  12.982  10.537
44465SOL     OW35291   4.411   2.003   0.981
44465SOL    HW135292   4.504   1.981   0.989
44465SOL    HW235293   4.398   2.024   0.889
44466SOL     OW35294   2.153   5.711   3.685
44466SOL    HW135295   2.241   5.739   3.662
44466SOL    HW235296   2.095   5.766   3.633
44467SOL     OW35297  11.852   7.795  12.590
44467SOL    HW135298  11.945   7.772  12.596
44467SOL    HW235299  11.812   7.719  12.548
44468SOL     OW35300  12.611   1.687   5.707
44468SOL    HW135301  12.532   1.647   5.744
44468SOL    HW235302  12.673   1.690   5.781
44469SOL     OW35303   8.745   0.307   0.628
44469SOL    HW135304   8.653   0.281   0.637
44469SOL    HW235305   8.774   0.262   0.549
44470SOL     OW35306   0.065   7.920   7.503
44470SOL    HW135307  14.854   7.939   7.493
44470SOL    HW235308   0.091   7.880   7.420
44471SOL     OW35309   3.311   5.855  13.193
44471SOL    HW135310   3.253   5.781  13.214
44471SOL    HW235311   3.393   5.834  13.237
44472SOL     OW35312  14.116   5.273   6.602
44472SOL    HW135313  14.176   5.246   6.672
44472SOL    HW235314  14.048   5.324   6.645
44473SOL     OW35315   6.217   2.398   8.666
44473SOL    HW135316   6.304   2.424   8.635
44473SOL    HW235317   6.162   2.475   8.650
44474SOL     OW35318  12.557  14.031   5.462
44474SOL    HW135319  12.589  14.099   5.404
44474SOL    HW235320  12.521  14.078   5.537
44475SOL     OW35321   4.336  11.807   6.483
44475SOL    HW135322   4.313  11.892   6.447
44475SOL    HW235323   4.252  11.761   6.492
44476SOL     OW35324   8.726   6.805   2.241
44476SOL    HW135325   8.664   6.877   2.256
44476SOL    HW235326   8.723   6.791   2.146
44477SOL     OW35327   1.032   0.272   2.650
44477SOL    HW135328   1.098   0.332   2.684
44477SOL    HW235329   1.061   0.186   2.678
44478SOL     OW35330  11.774   3.573   4.423
44478SOL    HW135331  11.739   3.493   4.463
44478SOL    HW235332  11.696   3.618   4.389
44479SOL     OW35333  13.654   9.255   6.988
44479SOL    HW135334  13.670   9.316   6.916
44479SOL    HW235335  13.699   9.175   6.962
44480SOL     OW35336   0.517   3.668  10.362
44480SOL    HW135337   0.465   3.726  10.417
44480SOL    HW235338   0.605   3.703  10.367
44481SOL     OW35339  13.570   0.884  13.119
44481SOL    HW135340  13.606   0.941  13.051
44481SOL    HW235341  13.512   0.825  13.071
44482SOL     OW35342   3.434  14.106  12.126
44482SOL    HW135343   3.375  14.175  12.097
44482SOL    HW235344   3.515  14.151  12.150
44483SOL     OW35345   1.442   0.796   7.464
44483SOL    HW135346   1.372   0.788   7.529
44483SOL    HW235347   1.402   0.844   7.391
44484SOL     OW35348   6.374   8.736   2.299
44484SOL    HW135349   6.297   8.681   2.308
44484SOL    HW235350   6.376   8.788   2.379
44485SOL     OW35351  12.946   3.919  11.828
44485SOL    HW135352  12.948   4.012  11.806
44485SOL    HW235353  13.023   3.882  11.783
44486SOL     OW35354  14.416   5.970   5.844
44486SOL    HW135355  14.329   5.953   5.881
44486SOL    HW235356  14.474   5.976   5.920
44487SOL     OW35357   1.309  12.787   7.575
44487SOL    HW135358   1.221  12.760   7.599
44487SOL    HW235359   1.354  12.705   7.552
44488SOL     OW35360  13.877  12.548   0.680
44488SOL    HW135361  13.849  12.639   0.675
44488SOL    HW235362  13.797  12.499   0.700
44489SOL     OW35363   0.583   0.624   0.192
44489SOL    HW135364   0.576   0.671   0.274
44489SOL    HW235365   0.583   0.531   0.217
44490SOL     OW35366   5.326   5.782   4.224
44490SOL    HW135367   5.350   5.858   4.278
44490SOL    HW235368   5.246   5.749   4.265
44491SOL     OW35369   1.580   0.628  14.515
44491SOL    HW135370   1.509   0.604  14.456
44491SOL    HW235371   1.657   0.635  14.459
44492SOL     OW35372  12.881  10.779   1.573
44492SOL    HW135373  12.819  10.804   1.505
44492SOL    HW235374  12.834  10.795   1.655
44493SOL     OW35375  11.091   3.096   7.212
44493SOL    HW135376  11.127   3.048   7.287
44493SOL    HW235377  11.121   3.186   7.223
44494SOL     OW35378   1.657  12.137  14.016
44494SOL    HW135379   1.648  12.061  13.958
44494SOL    HW235380   1.672  12.211  13.957
44495SOL     OW35381   7.274   5.145   5.527
44495SOL    HW135382   7.363   5.111   5.535
44495SOL    HW235383   7.264   5.204   5.602
44496SOL     OW35384  14.505  14.797   2.583
44496SOL    HW135385  14.535   0.004   2.602
44496SOL    HW235386  14.550  14.774   2.502
44497SOL     OW35387  10.670  11.846   7.236
44497SOL    HW135388  10.577  11.865   7.248
44497SOL    HW235389  10.690  11.779   7.301
44498SOL     OW35390  12.184  14.111   2.813
44498SOL    HW135391  12.188  14.183   2.750
44498SOL    HW235392  12.135  14.042   2.768
44499SOL     OW35393  10.729  12.110   4.490
44499SOL    HW135394  10.802  12.127   4.549
44499SOL    HW235395  10.700  12.021   4.511
44500SOL     OW35396  10.103   2.875  12.710
44500SOL    HW135397  10.082   2.951  12.656
44500SOL    HW235398  10.154   2.818  12.652
44501SOL     OW35399   2.746  11.939   9.976
44501SOL    HW135400   2.795  11.865  10.012
44501SOL    HW235401   2.701  11.978  10.051
44502SOL     OW35402   1.909   3.939   3.539
44502SOL    HW135403   1.993   3.966   3.502
44502SOL    HW235404   1.915   3.844   3.548
44503SOL     OW35405  12.054  13.127   2.594
44503SOL    HW135406  11.987  13.073   2.551
44503SOL    HW235407  12.006  13.202   2.630
44504SOL     OW35408  11.601   8.674   1.845
44504SOL    HW135409  11.532   8.730   1.880
44504SOL    HW235410  11.555   8.593   1.820
44505SOL     OW35411  14.554   0.379   1.976
44505SOL    HW135412  14.581   0.288   1.990
44505SOL    HW235413  14.634   0.430   1.990
44506SOL     OW35414   4.733  10.830   3.653
44506SOL    HW135415   4.788  10.768   3.701
44506SOL    HW235416   4.795  10.888   3.609
44507SOL     OW35417   0.876   4.031   1.517
44507SOL    HW135418   0.790   4.072   1.525
44507SOL    HW235419   0.876   3.991   1.430
44508SOL     OW35420   7.505  13.147   4.315
44508SOL    HW135421   7.590  13.152   4.270
44508SOL    HW235422   7.466  13.065   4.283
44509SOL     OW35423   2.999  13.227  12.334
44509SOL    HW135424   3.021  13.224  12.427
44509SOL    HW235425   3.010  13.137  12.304
44510SOL     OW35426   8.903   4.864  10.806
44510SOL    HW135427   8.964   4.924  10.848
44510SOL    HW235428   8.830   4.919  10.778
44511SOL     OW35429  14.319  12.505  12.795
44511SOL    HW135430  14.345  12.457  12.716
44511SOL    HW235431  14.253  12.568  12.764
44512SOL     OW35432  10.379   8.557   7.334
44512SOL    HW135433  10.301   8.611   7.344
44512SOL    HW235434  10.406   8.537   7.423
44513SOL     OW35435   0.905   6.640   9.370
44513SOL    HW135436   0.884   6.599   9.286
44513SOL    HW235437   0.884   6.732   9.358
44514SOL     OW35438   4.793   9.104   4.407
44514SOL    HW135439   4.727   9.083   4.342
44514SOL    HW235440   4.871   9.127   4.356
44515SOL     OW35441  12.022  10.458   0.651
44515SOL    HW135442  11.973  10.463   0.733
44515SOL    HW235443  11.962  10.492   0.584
44516SOL     OW35444  13.138  13.787   6.137
44516SOL    HW135445  13.099  13.731   6.071
44516SOL    HW235446  13.118  13.744   6.220
44517SOL     OW35447  10.581  10.879   9.054
44517SOL    HW135448  10.527  10.844   9.124
44517SOL    HW235449  10.572  10.974   9.061
44518SOL     OW35450   9.980   4.325   7.451
44518SOL    HW135451   9.927   4.345   7.374
44518SOL    HW235452  10.024   4.408   7.472
44519SOL     OW35453   1.470   2.233   2.834
44519SOL    HW135454   1.421   2.297   2.887
44519SOL    HW235455   1.544   2.209   2.889
44520SOL     OW35456   4.621   4.231  11.634
44520SOL    HW135457   4.532   4.209  11.659
44520SOL    HW235458   4.631   4.324  11.657
44521SOL     OW35459   0.638   6.030   2.432
44521SOL    HW135460   0.723   6.073   2.429
44521SOL    HW235461   0.587   6.073   2.364
44522SOL     OW35462   0.541   9.180   3.099
44522SOL    HW135463   0.511   9.270   3.115
44522SOL    HW235464   0.610   9.166   3.164
44523SOL     OW35465   8.960  14.654  11.844
44523SOL    HW135466   8.928  14.683  11.930
44523SOL    HW235467   8.881  14.626  11.797
44524SOL     OW35468   5.774   2.231   8.350
44524SOL    HW135469   5.846   2.200   8.295
44524SOL    HW235470   5.695   2.204   8.303
44525SOL     OW35471   0.049  12.896   2.373
44525SOL    HW135472  14.877  12.818   2.365
44525SOL    HW235473   0.136  12.868   2.346
44526SOL     OW35474   6.902  11.008   8.539
44526SOL    HW135475   6.943  10.946   8.479
44526SOL    HW235476   6.841  11.057   8.484
44527SOL     OW35477  11.523  13.315  10.912
44527SOL    HW135478  11.436  13.276  10.900
44527SOL    HW235479  11.507  13.408  10.922
44528SOL     OW35480  14.343   5.552  12.438
44528SOL    HW135481  14.427   5.596  12.444
44528SOL    HW235482  14.283   5.605  12.490
44529SOL     OW35483  14.070   4.917   0.551
44529SOL    HW135484  14.072   4.877   0.638
44529SOL    HW235485  13.999   4.871   0.505
44530SOL     OW35486   6.874  11.099  11.315
44530SOL    HW135487   6.955  11.150  11.325
44530SOL    HW235488   6.829  11.140  11.241
44531SOL     OW35489   8.068   2.573   7.162
44531SOL    HW135490   8.063   2.624   7.081
44531SOL    HW235491   8.138   2.510   7.147
44532SOL     OW35492  10.406   3.369  13.299
44532SOL    HW135493  10.360   3.290  13.327
44532SOL    HW235494  10.484   3.336  13.254
44533SOL     OW35495   8.514   2.436  10.924
44533SOL    HW135496   8.528   2.346  10.950
44533SOL    HW235497   8.515   2.486  11.006
44534SOL     OW35498  11.083   2.924   2.800
44534SOL    HW135499  11.158   2.881   2.842
44534SOL    HW235500  11.114   2.944   2.712
44535SOL     OW35501   0.578   6.668  10.946
44535SOL    HW135502   0.501   6.701  10.901
44535SOL    HW235503   0.632   6.745  10.962
44536SOL     OW35504  11.872  11.564   7.906
44536SOL    HW135505  11.944  11.522   7.952
44536SOL    HW235506  11.913  11.626   7.847
44537SOL     OW35507   2.292   9.976  13.982
44537SOL    HW135508   2.341   9.959  14.063
44537SOL    HW235509   2.340   9.929  13.914
44538SOL     OW35510  11.228   5.386  12.063
44538SOL    HW135511  11.140   5.376  12.099
44538SOL    HW235512  11.281   5.416  12.137
44539SOL     OW35513   1.570   4.606   7.225
44539SOL    HW135514   1.582   4.697   7.254
44539SOL    HW235515   1.655   4.565   7.241
44540SOL     OW35516  11.849   2.259   9.835
44540SOL    HW135517  11.916   2.285   9.772
44540SOL    HW235518  11.875   2.300   9.917
44541SOL     OW35519  11.382   0.591   1.213
44541SOL    HW135520  11.467   0.549   1.226
44541SOL    HW235521  11.331   0.527   1.164
44542SOL     OW35522   7.382   2.055   6.856
44542SOL    HW135523   7.426   2.022   6.935
44542SOL    HW235524   7.289   2.047   6.876
44543SOL     OW35525   9.381  11.567   5.492
44543SOL    HW135526   9.328  11.609   5.425
44543SOL    HW235527   9.462  11.618   5.495
44544SOL     OW35528  11.941  10.812   8.075
44544SOL    HW135529  11.957  10.859   7.993
44544SOL    HW235530  11.977  10.725   8.059
44545SOL     OW35531   4.813   7.793   3.152
44545SOL    HW135532   4.845   7.866   3.100
44545SOL    HW235533   4.731   7.825   3.190
44546SOL     OW35534   9.724   3.769  11.453
44546SOL    HW135535   9.695   3.804  11.537
44546SOL    HW235536   9.699   3.676  11.456
44547SOL     OW35537   3.577   9.746   7.158
44547SOL    HW135538   3.666   9.711   7.164
44547SOL    HW235539   3.547   9.718   7.072
44548SOL     OW35540   8.036   2.768   6.963
44548SOL    HW135541   7.963   2.785   6.904
44548SOL    HW235542   8.043   2.847   7.016
44549SOL     OW35543   9.107   7.910   4.201
44549SOL    HW135544   9.128   7.925   4.109
44549SOL    HW235545   9.192   7.914   4.246
44550SOL     OW35546   1.302  14.770   0.856
44550SOL    HW135547   1.368  14.702   0.873
44550SOL    HW235548   1.261  14.743   0.774
44551SOL     OW35549   8.260   7.670   9.220
44551SOL    HW135550   8.256   7.760   9.188
44551SOL    HW235551   8.352   7.657   9.243
44552SOL     OW35552   5.855  10.793   4.795
44552SOL    HW135553   5.814  10.739   4.862
44552SOL    HW235554   5.873  10.733   4.723
44553SOL     OW35555  14.374   4.286   3.309
44553SOL    HW135556  14.353   4.293   3.402
44553SOL    HW235557  14.288   4.282   3.266
44554SOL     OW35558   8.110   5.016   0.959
44554SOL    HW135559   8.149   5.103   0.959
44554SOL    HW235560   8.120   4.985   0.869
44555SOL     OW35561   2.598   2.280  12.780
44555SOL    HW135562   2.506   2.297  12.762
44555SOL    HW235563   2.642   2.363  12.763
44556SOL     OW35564   3.411  11.765  12.304
44556SOL    HW135565   3.393  11.843  12.252
44556SOL    HW235566   3.386  11.790  12.393
44557SOL     OW35567   5.556   9.516  12.267
44557SOL    HW135568   5.618   9.477  12.329
44557SOL    HW235569   5.541   9.448  12.202
44558SOL     OW35570   7.651   4.770   9.654
44558SOL    HW135571   7.681   4.732   9.572
44558SOL    HW235572   7.698   4.854   9.659
44559SOL     OW35573  11.569   2.097   4.055
44559SOL    HW135574  11.577   2.028   4.120
44559SOL    HW235575  11.487   2.141   4.077
44560SOL     OW35576  13.948   3.545  14.078
44560SOL    HW135577  13.895   3.609  14.029
44560SOL    HW235578  13.927   3.461  14.038
44561SOL     OW35579   8.103   4.816   3.304
44561SOL    HW135580   8.012   4.819   3.334
44561SOL    HW235581   8.145   4.892   3.346
44562SOL     OW35582  11.843  11.142   8.779
44562SOL    HW135583  11.872  11.102   8.860
44562SOL    HW235584  11.753  11.111   8.768
44563SOL     OW35585   6.609  12.509   0.310
44563SOL    HW135586   6.640  12.558   0.386
44563SOL    HW235587   6.677  12.522   0.244
44564SOL     OW35588   0.088   8.910  11.841
44564SOL    HW135589   0.160   8.946  11.893
44564SOL    HW235590   0.103   8.815  11.841
44565SOL     OW35591   3.038   4.470  13.705
44565SOL    HW135592   2.950   4.451  13.672
44565SOL    HW235593   3.052   4.404  13.773
44566SOL     OW35594   7.687   0.572   9.689
44566SOL    HW135595   7.669   0.615   9.773
44566SOL    HW235596   7.772   0.607   9.662
44567SOL     OW35597   8.783   0.107   4.524
44567SOL    HW135598   8.720   0.115   4.452
44567SOL    HW235599   8.766   0.020   4.561
44568SOL     OW35600   6.048  12.850   6.010
44568SOL    HW135601   5.992  12.914   5.965
44568SOL    HW235602   6.035  12.769   5.962
44569SOL     OW35603   7.954  14.852  10.147
44569SOL    HW135604   7.993   0.053  10.119
44569SOL    HW235605   7.929  14.808  10.066
44570SOL     OW35606  10.263   9.650  11.580
44570SOL    HW135607  10.189   9.703  11.610
44570SOL    HW235608  10.262   9.658  11.485
44571SOL     OW35609   2.825   5.218   7.434
44571SOL    HW135610   2.820   5.220   7.530
44571SOL    HW235611   2.735   5.230   7.405
44572SOL     OW35612   9.633   0.536  13.961
44572SOL    HW135613   9.641   0.441  13.969
44572SOL    HW235614   9.716   0.570  13.997
44573SOL     OW35615   6.123   9.678   6.903
44573SOL    HW135616   6.034   9.674   6.869
44573SOL    HW235617   6.146   9.771   6.900
44574SOL     OW35618   0.301   1.455   6.293
44574SOL    HW135619   0.361   1.475   6.365
44574SOL    HW235620   0.272   1.365   6.310
44575SOL     OW35621   8.054  12.999   1.773
44575SOL    HW135622   8.111  12.995   1.849
44575SOL    HW235623   7.978  12.946   1.797
44576SOL     OW35624   0.205   7.464   3.546
44576SOL    HW135625   0.246   7.520   3.612
44576SOL    HW235626   0.203   7.377   3.587
44577SOL     OW35627   4.554   0.163  14.148
44577SOL    HW135628   4.627   0.117  14.190
44577SOL    HW235629   4.536   0.237  14.206
44578SOL     OW35630  10.095   1.087  14.028
44578SOL    HW135631  10.095   1.059  13.937
44578SOL    HW235632  10.019   1.145  14.036
44579SOL     OW35633   3.556  14.377  13.324
44579SOL    HW135634   3.489  14.310  13.340
44579SOL    HW235635   3.617  14.367  13.397
44580SOL     OW35636   1.584  11.887   1.728
44580SOL    HW135637   1.612  11.801   1.699
44580SOL    HW235638   1.662  11.927   1.767
44581SOL     OW35639   4.858   8.670   8.160
44581SOL    HW135640   4.868   8.765   8.168
44581SOL    HW235641   4.770   8.652   8.192
44582SOL     OW35642  14.404   8.351   3.941
44582SOL    HW135643  14.382   8.442   3.920
44582SOL    HW235644  14.453   8.320   3.865
44583SOL     OW35645   9.003   2.567  14.619
44583SOL    HW135646   8.923   2.584  14.668
44583SOL    HW235647   9.023   2.476  14.637
44584SOL     OW35648   1.984   3.259   5.272
44584SOL    HW135649   2.019   3.330   5.218
44584SOL    HW235650   1.894   3.247   5.241
44585SOL     OW35651   9.347   0.771   5.100
44585SOL    HW135652   9.369   0.862   5.077
44585SOL    HW235653   9.293   0.779   5.178
44586SOL     OW35654  12.580   0.793   2.616
44586SOL    HW135655  12.541   0.859   2.557
44586SOL    HW235656  12.516   0.722   2.618
44587SOL     OW35657   7.323   6.296  10.062
44587SOL    HW135658   7.377   6.368  10.097
44587SOL    HW235659   7.311   6.318   9.970
44588SOL     OW35660   9.874   4.855   4.720
44588SOL    HW135661   9.962   4.830   4.692
44588SOL    HW235662   9.887   4.909   4.798
44589SOL     OW35663   8.247  13.673   7.205
44589SOL    HW135664   8.225  13.585   7.176
44589SOL    HW235665   8.163  13.716   7.220
44590SOL     OW35666   7.523   5.596   2.459
44590SOL    HW135667   7.480   5.663   2.511
44590SOL    HW235668   7.546   5.639   2.377
44591SOL     OW35669   4.738   8.765   8.746
44591SOL    HW135670   4.729   8.776   8.651
44591SOL    HW235671   4.826   8.728   8.757
44592SOL     OW35672  12.391  10.934  12.934
44592SOL    HW135673  12.394  10.840  12.952
44592SOL    HW235674  12.351  10.971  13.013
44593SOL     OW35675  11.905  11.047   0.516
44593SOL    HW135676  11.890  11.082   0.604
44593SOL    HW235677  11.819  11.047   0.475
44594SOL     OW35678  12.636   5.135   5.267
44594SOL    HW135679  12.597   5.128   5.181
44594SOL    HW235680  12.564   5.158   5.325
44595SOL     OW35681  11.701   9.027   9.529
44595SOL    HW135682  11.679   9.039   9.436
44595SOL    HW235683  11.651   9.095   9.574
44596SOL     OW35684  12.052   3.736  13.137
44596SOL    HW135685  12.028   3.811  13.192
44596SOL    HW235686  12.137   3.759  13.100
44597SOL     OW35687   2.313   5.614  14.801
44597SOL    HW135688   2.303   5.573   0.004
44597SOL    HW235689   2.267   5.698  14.808
44598SOL     OW35690  12.828  13.005   2.991
44598SOL    HW135691  12.805  13.083   3.042
44598SOL    HW235692  12.924  13.005   2.991
44599SOL     OW35693  13.374   9.602   5.793
44599SOL    HW135694  13.315   9.672   5.766
44599SOL    HW235695  13.406   9.630   5.879
44600SOL     OW35696   6.063   8.063   8.982
44600SOL    HW135697   5.986   8.008   8.971
44600SOL    HW235698   6.058   8.125   8.909
44601SOL     OW35699  14.132   9.487   7.590
44601SOL    HW135700  14.079   9.447   7.658
44601SOL    HW235701  14.219   9.495   7.629
44602SOL     OW35702  13.527   3.434   8.917
44602SOL    HW135703  13.543   3.510   8.973
44602SOL    HW235704  13.571   3.362   8.962
44603SOL     OW35705  12.122  10.672  12.394
44603SOL    HW135706  12.198  10.618  12.375
44603SOL    HW235707  12.059  10.650  12.326
44604SOL     OW35708  14.799   8.262   7.315
44604SOL    HW135709  14.748   8.341   7.331
44604SOL    HW235710  14.760   8.225   7.236
44605SOL     OW35711  13.205  13.471  14.619
44605SOL    HW135712  13.124  13.421  14.624
44605SOL    HW235713  13.192  13.543  14.680
44606SOL     OW35714  14.876   9.230   2.604
44606SOL    HW135715   0.045   9.298   2.560
44606SOL    HW235716   0.060   9.168   2.636
44607SOL     OW35717   0.187   6.063   9.358
44607SOL    HW135718   0.144   5.979   9.342
44607SOL    HW235719   0.250   6.072   9.285
44608SOL     OW35720   0.190   0.708   7.685
44608SOL    HW135721   0.103   0.737   7.714
44608SOL    HW235722   0.243   0.787   7.681
44609SOL     OW35723   0.197   0.568   4.108
44609SOL    HW135724   0.148   0.549   4.188
44609SOL    HW235725   0.251   0.644   4.130
44610SOL     OW35726   2.105   8.710  11.744
44610SOL    HW135727   2.090   8.740  11.834
44610SOL    HW235728   2.018   8.710  11.704
44611SOL     OW35729  12.956   6.221  14.563
44611SOL    HW135730  12.937   6.185  14.649
44611SOL    HW235731  12.870   6.248  14.529
44612SOL     OW35732  11.619  10.592   0.654
44612SOL    HW135733  11.598  10.547   0.736
44612SOL    HW235734  11.657  10.523   0.599
44613SOL     OW35735  13.987   1.347   8.244
44613SOL    HW135736  14.034   1.356   8.162
44613SOL    HW235737  13.901   1.315   8.219
44614SOL     OW35738   3.611   3.144  11.040
44614SOL    HW135739   3.653   3.080  11.098
44614SOL    HW235740   3.518   3.118  11.039
44615SOL     OW35741   8.091   3.682   9.809
44615SOL    HW135742   7.997   3.674   9.797
44615SOL    HW235743   8.127   3.685   9.721
44616SOL     OW35744   0.812   5.340  11.324
44616SOL    HW135745   0.764   5.300  11.397
44616SOL    HW235746   0.899   5.358  11.361
44617SOL     OW35747  14.541   0.822  13.000
44617SOL    HW135748  14.614   0.785  12.951
44617SOL    HW235749  14.581   0.856  13.080
44618SOL     OW35750   5.359   5.019  13.232
44618SOL    HW135751   5.390   5.031  13.143
44618SOL    HW235752   5.265   5.036  13.228
44619SOL     OW35753   5.566  12.333   2.633
44619SOL    HW135754   5.487  12.343   2.685
44619SOL    HW235755   5.580  12.238   2.628
44620SOL     OW35756   0.124   3.998   2.471
44620SOL    HW135757   0.136   4.078   2.421
44620SOL    HW235758   0.111   4.028   2.561
44621SOL     OW35759   9.522  13.859   5.688
44621SOL    HW135760   9.471  13.842   5.767
44621SOL    HW235761   9.570  13.939   5.708
44622SOL     OW35762   2.246   5.023   0.230
44622SOL    HW135763   2.159   5.044   0.266
44622SOL    HW235764   2.303   5.018   0.307
44623SOL     OW35765   9.144   4.048   2.645
44623SOL    HW135766   9.117   4.104   2.572
44623SOL    HW235767   9.222   4.004   2.613
44624SOL     OW35768   5.908  11.512  12.208
44624SOL    HW135769   5.920  11.566  12.286
44624SOL    HW235770   5.907  11.422  12.241
44625SOL     OW35771   1.143   5.216   9.151
44625SOL    HW135772   1.216   5.156   9.135
44625SOL    HW235773   1.181   5.303   9.141
44626SOL     OW35774   1.237   3.703   0.052
44626SOL    HW135775   1.230   3.731   0.144
44626SOL    HW235776   1.309   3.641   0.051
44627SOL     OW35777   9.215   0.508  14.300
44627SOL    HW135778   9.255   0.437  14.350
44627SOL    HW235779   9.211   0.476  14.210
44628SOL     OW35780   3.526   5.332   8.079
44628SOL    HW135781   3.478   5.294   8.006
44628SOL    HW235782   3.466   5.326   8.153
44629SOL     OW35783  12.515  13.974   1.062
44629SOL    HW135784  12.429  13.999   1.098
44629SOL    HW235785  12.560  14.057   1.048
44630SOL     OW35786   5.119   9.101   6.235
44630SOL    HW135787   5.190   9.107   6.172
44630SOL    HW235788   5.129   9.015   6.275
44631SOL     OW35789   7.715   0.101   1.126
44631SOL    HW135790   7.698   0.024   1.073
44631SOL    HW235791   7.804   0.088   1.159
44632SOL     OW35792   1.147   3.420   7.108
44632SOL    HW135793   1.172   3.349   7.167
44632SOL    HW235794   1.086   3.473   7.158
44633SOL     OW35795   5.977  11.450   0.302
44633SOL    HW135796   5.885  11.468   0.324
44633SOL    HW235797   5.996  11.366   0.345
44634SOL     OW35798   3.243   1.440   2.937
44634SOL    HW135799   3.278   1.511   2.991
44634SOL    HW235800   3.247   1.363   2.993
44635SOL     OW35801  10.225  12.235   7.852
44635SOL    HW135802  10.241  12.304   7.787
44635SOL    HW235803  10.310  12.221   7.893
44636SOL     OW35804  12.666   9.736   3.537
44636SOL    HW135805  12.733   9.736   3.469
44636SOL    HW235806  12.668   9.648   3.574
44637SOL     OW35807   0.191  14.757  13.306
44637SOL    HW135808   0.227  14.816  13.239
44637SOL    HW235809   0.100  14.785  13.315
44638SOL     OW35810   6.681  14.809  10.736
44638SOL    HW135811   6.623  14.749  10.783
44638SOL    HW235812   6.690  14.771  10.649
44639SOL     OW35813  12.515  12.316   1.157
44639SOL    HW135814  12.550  12.235   1.120
44639SOL    HW235815  12.583  12.346   1.217
44640SOL     OW35816  11.537  11.195   1.129
44640SOL    HW135817  11.470  11.251   1.169
44640SOL    HW235818  11.598  11.176   1.199
44641SOL     OW35819   5.140   2.801   3.258
44641SOL    HW135820   5.087   2.748   3.318
44641SOL    HW235821   5.172   2.738   3.193
44642SOL     OW35822  11.642   8.145  11.496
44642SOL    HW135823  11.710   8.211  11.511
44642SOL    HW235824  11.674   8.094  11.421
44643SOL     OW35825   8.283   0.359  10.530
44643SOL    HW135826   8.245   0.419  10.594
44643SOL    HW235827   8.265   0.400  10.445
44644SOL     OW35828   3.337   8.402   7.682
44644SOL    HW135829   3.246   8.424   7.663
44644SOL    HW235830   3.332   8.322   7.733
44645SOL     OW35831   8.661   5.465   3.694
44645SOL    HW135832   8.633   5.443   3.783
44645SOL    HW235833   8.595   5.526   3.662
44646SOL     OW35834   2.242   5.621   6.641
44646SOL    HW135835   2.227   5.698   6.586
44646SOL    HW235836   2.205   5.548   6.592
44647SOL     OW35837  10.793   3.273  13.737
44647SOL    HW135838  10.746   3.327  13.674
44647SOL    HW235839  10.835   3.336  13.795
44648SOL     OW35840  12.403   1.457   0.700
44648SOL    HW135841  12.423   1.508   0.622
44648SOL    HW235842  12.486   1.415   0.723
44649SOL     OW35843   8.509   3.261   7.035
44649SOL    HW135844   8.431   3.296   7.079
44649SOL    HW235845   8.560   3.339   7.012
44650SOL     OW35846  12.391   6.086   4.148
44650SOL    HW135847  12.485   6.091   4.164
44650SOL    HW235848  12.381   6.012   4.088
44651SOL     OW35849  10.356   6.085   9.773
44651SOL    HW135850  10.374   6.048   9.859
44651SOL    HW235851  10.410   6.164   9.769
44652SOL     OW35852  13.505  12.003  12.760
44652SOL    HW135853  13.416  11.980  12.785
44652SOL    HW235854  13.515  12.095  12.787
44653SOL     OW35855   5.315   5.834   3.952
44653SOL    HW135856   5.341   5.782   4.028
44653SOL    HW235857   5.257   5.901   3.988
44654SOL     OW35858   3.009   0.331   1.144
44654SOL    HW135859   3.039   0.284   1.066
44654SOL    HW235860   2.996   0.421   1.115
44655SOL     OW35861   0.747  12.302   2.651
44655SOL    HW135862   0.841  12.289   2.643
44655SOL    HW235863   0.737  12.367   2.720
44656SOL     OW35864  13.360   7.126  11.383
44656SOL    HW135865  13.389   7.120  11.475
44656SOL    HW235866  13.342   7.219  11.369
44657SOL     OW35867   6.545   7.277   0.193
44657SOL    HW135868   6.632   7.289   0.231
44657SOL    HW235869   6.533   7.352   0.135
44658SOL     OW35870   8.289  11.111   6.978
44658SOL    HW135871   8.262  11.028   7.016
44658SOL    HW235872   8.385  11.109   6.981
44659SOL     OW35873   5.819  12.464  13.448
44659SOL    HW135874   5.895  12.519  13.430
44659SOL    HW235875   5.757  12.523  13.492
44660SOL     OW35876  13.847  10.354   4.437
44660SOL    HW135877  13.774  10.416   4.433
44660SOL    HW235878  13.881  10.351   4.348
44661SOL     OW35879  13.724   0.907   4.597
44661SOL    HW135880  13.757   0.997   4.587
44661SOL    HW235881  13.723   0.893   4.692
44662SOL     OW35882   3.868   0.153  10.530
44662SOL    HW135883   3.830   0.224  10.477
44662SOL    HW235884   3.962   0.169  10.527
44663SOL     OW35885   2.918  11.838  14.015
44663SOL    HW135886   3.010  11.822  13.992
44663SOL    HW235887   2.871  11.826  13.933
44664SOL     OW35888   9.232   6.268   4.589
44664SOL    HW135889   9.192   6.224   4.663
44664SOL    HW235890   9.160   6.316   4.548
44665SOL     OW35891   3.640   9.829   0.446
44665SOL    HW135892   3.597   9.884   0.511
44665SOL    HW235893   3.669   9.891   0.378
44666SOL     OW35894   0.520   6.472  14.295
44666SOL    HW135895   0.462   6.465  14.219
44666SOL    HW235896   0.565   6.388  14.299
44667SOL     OW35897   1.259   9.194   5.664
44667SOL    HW135898   1.191   9.209   5.730
44667SOL    HW235899   1.308   9.276   5.661
44668SOL     OW35900  11.962   0.182   1.108
44668SOL    HW135901  11.918   0.142   1.183
44668SOL    HW235902  12.018   0.250   1.147
44669SOL     OW35903   0.192  14.163   1.143
44669SOL    HW135904   0.151  14.124   1.220
44669SOL    HW235905   0.238  14.091   1.100
44670SOL     OW35906   8.295   8.187  11.895
44670SOL    HW135907   8.358   8.255  11.871
44670SOL    HW235908   8.211   8.222  11.866
44671SOL     OW35909  14.249  11.885  13.735
44671SOL    HW135910  14.165  11.930  13.739
44671SOL    HW235911  14.292  11.920  13.658
44672SOL     OW35912   8.971   7.741  11.394
44672SOL    HW135913   8.929   7.655  11.388
44672SOL    HW235914   9.054   7.723  11.439
44673SOL     OW35915   4.769   0.977   2.219
44673SOL    HW135916   4.814   0.965   2.135
44673SOL    HW235917   4.705   0.905   2.222
44674SOL     OW35918   2.880  11.025  12.624
44674SOL    HW135919   2.869  10.947  12.570
44674SOL    HW235920   2.876  11.098  12.563
44675SOL     OW35921   2.039  13.219   6.652
44675SOL    HW135922   1.948  13.234   6.678
44675SOL    HW235923   2.051  13.125   6.661
44676SOL     OW35924   2.554  13.947  12.297
44676SOL    HW135925   2.496  13.982  12.229
44676SOL    HW235926   2.625  13.905  12.249
44677SOL     OW35927   2.226   2.161   8.247
44677SOL    HW135928   2.180   2.137   8.327
44677SOL    HW235929   2.263   2.247   8.266
44678SOL     OW35930   5.801   3.617   4.746
44678SOL    HW135931   5.883   3.572   4.727
44678SOL    HW235932   5.733   3.554   4.719
44679SOL     OW35933   2.739   1.949  11.634
44679SOL    HW135934   2.807   1.929  11.569
44679SOL    HW235935   2.777   1.921  11.717
44680SOL     OW35936  13.047   3.501  12.349
44680SOL    HW135937  12.970   3.515  12.404
44680SOL    HW235938  13.086   3.420  12.382
44681SOL     OW35939   6.038   5.696   1.866
44681SOL    HW135940   6.064   5.739   1.947
44681SOL    HW235941   5.963   5.746   1.835
44682SOL     OW35942  13.449  10.769  10.191
44682SOL    HW135943  13.466  10.843  10.134
44682SOL    HW235944  13.512  10.702  10.164
44683SOL     OW35945   1.307   0.273  10.437
44683SOL    HW135946   1.217   0.291  10.465
44683SOL    HW235947   1.299   0.252  10.344
44684SOL     OW35948  12.727   4.161  14.503
44684SOL    HW135949  12.633   4.153  14.483
44684SOL    HW235950  12.732   4.231  14.567
44685SOL     OW35951  14.449   2.687   6.955
44685SOL    HW135952  14.431   2.708   6.863
44685SOL    HW235953  14.363   2.685   6.996
44686SOL     OW35954   7.531  11.768  11.129
44686SOL    HW135955   7.584  11.838  11.167
44686SOL    HW235956   7.450  11.812  11.101
44687SOL     OW35957  11.580   5.035   1.778
44687SOL    HW135958  11.537   5.110   1.818
44687SOL    HW235959  11.668   5.035   1.814
44688SOL     OW35960  13.125   1.573   3.735
44688SOL    HW135961  13.173   1.656   3.733
44688SOL    HW235962  13.103   1.556   3.643
44689SOL     OW35963  11.200   9.801   6.162
44689SOL    HW135964  11.236   9.878   6.207
44689SOL    HW235965  11.268   9.775   6.100
44690SOL     OW35966   1.576   2.669  10.962
44690SOL    HW135967   1.638   2.742  10.966
44690SOL    HW235968   1.580   2.640  10.871
44691SOL     OW35969   1.692  12.961   5.351
44691SOL    HW135970   1.602  12.981   5.325
44691SOL    HW235971   1.713  13.027   5.417
44692SOL     OW35972   0.901   5.486  14.676
44692SOL    HW135973   0.966   5.423  14.645
44692SOL    HW235974   0.867   5.448  14.757
44693SOL     OW35975   2.526   4.856   4.238
44693SOL    HW135976   2.583   4.928   4.209
44693SOL    HW235977   2.448   4.900   4.271
44694SOL     OW35978  13.185   5.481  11.419
44694SOL    HW135979  13.268   5.432  11.424
44694SOL    HW235980  13.212   5.572  11.404
44695SOL     OW35981   1.283   8.153  14.459
44695SOL    HW135982   1.323   8.195  14.535
44695SOL    HW235983   1.211   8.212  14.434
44696SOL     OW35984   0.604   6.711  14.005
44696SOL    HW135985   0.689   6.750  14.024
44696SOL    HW235986   0.612   6.620  14.036
44697SOL     OW35987   6.078  14.264  11.433
44697SOL    HW135988   6.072  14.169  11.447
44697SOL    HW235989   6.073  14.301  11.521
44698SOL     OW35990  14.406   6.283   7.940
44698SOL    HW135991  14.434   6.224   7.870
44698SOL    HW235992  14.334   6.333   7.901
44699SOL     OW35993   7.027   8.445   4.625
44699SOL    HW135994   6.952   8.492   4.663
44699SOL    HW235995   6.994   8.357   4.609
44700SOL     OW35996  12.653   0.600  11.924
44700SOL    HW135997  12.683   0.681  11.884
44700SOL    HW235998  12.704   0.531  11.881
44701SOL     OW35999   5.367  11.636   5.281
44701SOL    HW136000   5.380  11.714   5.227
44701SOL    HW236001   5.389  11.563   5.222
44702SOL     OW36002   8.910   9.332  10.833
44702SOL    HW136003   8.950   9.256  10.877
44702SOL    HW236004   8.976   9.360  10.769
44703SOL     OW36005   2.587   2.052   2.387
44703SOL    HW136006   2.611   2.134   2.345
44703SOL    HW236007   2.574   2.074   2.479
44704SOL     OW36008   1.136   0.121  14.727
44704SOL    HW136009   1.088   0.040  14.709
44704SOL    HW236010   1.206   0.122  14.662
44705SOL     OW36011  14.644   9.420  13.580
44705SOL    HW136012  14.638   9.324  13.577
44705SOL    HW236013  14.669   9.440  13.670
44706SOL     OW36014   7.535   0.711   8.504
44706SOL    HW136015   7.456   0.657   8.501
44706SOL    HW236016   7.573   0.694   8.590
44707SOL     OW36017   2.716   2.390  11.609
44707SOL    HW136018   2.655   2.372  11.680
44707SOL    HW236019   2.665   2.438  11.544
44708SOL     OW36020  11.436  11.996  11.999
44708SOL    HW136021  11.395  12.082  11.993
44708SOL    HW236022  11.401  11.948  11.923
44709SOL     OW36023   4.034   6.826  14.670
44709SOL    HW136024   4.114   6.776  14.649
44709SOL    HW236025   4.032   6.827  14.765
44710SOL     OW36026   4.996  14.209  11.625
44710SOL    HW136027   4.973  14.203  11.532
44710SOL    HW236028   5.049  14.288  11.632
44711SOL     OW36029  14.418  10.637   7.513
44711SOL    HW136030  14.437  10.689   7.591
44711SOL    HW236031  14.463  10.554   7.528
44712SOL     OW36032   1.537  11.638  12.453
44712SOL    HW136033   1.584  11.721  12.466
44712SOL    HW236034   1.446  11.664  12.437
44713SOL     OW36035   0.756  10.808   1.086
44713SOL    HW136036   0.839  10.782   1.045
44713SOL    HW236037   0.781  10.840   1.172
44714SOL     OW36038  10.692   2.038   4.030
44714SOL    HW136039  10.663   1.995   4.111
44714SOL    HW236040  10.707   1.966   3.969
44715SOL     OW36041   8.060  12.987   2.555
44715SOL    HW136042   8.050  13.082   2.558
44715SOL    HW236043   8.131  12.968   2.617
44716SOL     OW36044   5.509  11.916   4.473
44716SOL    HW136045   5.586  11.869   4.505
44716SOL    HW236046   5.491  11.982   4.540
44717SOL     OW36047  12.579   9.577   3.102
44717SOL    HW136048  12.644   9.606   3.038
44717SOL    HW236049  12.500   9.560   3.050
44718SOL     OW36050   1.199   0.444   8.409
44718SOL    HW136051   1.196   0.446   8.314
44718SOL    HW236052   1.107   0.445   8.436
44719SOL     OW36053  10.159   6.773  10.383
44719SOL    HW136054  10.118   6.705  10.329
44719SOL    HW236055  10.234   6.802  10.332
44720SOL     OW36056  12.761   1.810  14.393
44720SOL    HW136057  12.675   1.845  14.368
44720SOL    HW236058  12.744   1.761  14.473
44721SOL     OW36059   7.052   7.221   7.909
44721SOL    HW136060   7.042   7.281   7.983
44721SOL    HW236061   7.138   7.181   7.922
44722SOL     OW36062  14.847  10.749   7.307
44722SOL    HW136063  14.767  10.708   7.275
44722SOL    HW236064  14.847  10.837   7.269
44723SOL     OW36065   0.413   4.550   0.828
44723SOL    HW136066   0.327   4.570   0.791
44723SOL    HW236067   0.428   4.619   0.893
44724SOL     OW36068   5.151  12.932   6.292
44724SOL    HW136069   5.156  12.857   6.233
44724SOL    HW236070   5.168  12.895   6.379
44725SOL     OW36071   3.991   5.029   8.137
44725SOL    HW136072   4.025   4.969   8.203
44725SOL    HW236073   4.021   5.116   8.165
44726SOL     OW36074   9.670  14.848  11.383
44726SOL    HW136075   9.713   0.040  11.340
44726SOL    HW236076   9.582  14.879  11.404
44727SOL     OW36077   0.092   1.785   9.697
44727SOL    HW136078   0.136   1.713   9.652
44727SOL    HW236079   0.005   1.789   9.656
44728SOL     OW36080  12.427   6.567  11.600
44728SOL    HW136081  12.488   6.604  11.535
44728SOL    HW236082  12.340   6.580  11.562
44729SOL     OW36083  13.258   7.551   4.321
44729SOL    HW136084  13.344   7.522   4.293
44729SOL    HW236085  13.230   7.613   4.253
44730SOL     OW36086   2.001  12.629   7.742
44730SOL    HW136087   2.066  12.660   7.679
44730SOL    HW236088   1.918  12.634   7.694
44731SOL     OW36089   9.603   3.687   9.842
44731SOL    HW136090   9.618   3.678   9.748
44731SOL    HW236091   9.565   3.774   9.852
44732SOL     OW36092   3.840   3.702   4.297
44732SOL    HW136093   3.857   3.782   4.347
44732SOL    HW236094   3.774   3.655   4.348
44733SOL     OW36095   9.574   5.381   0.377
44733SOL    HW136096   9.493   5.432   0.366
44733SOL    HW236097   9.643   5.446   0.380
44734SOL     OW36098   7.072   7.780   2.416
44734SOL    HW136099   7.115   7.865   2.401
44734SOL    HW236100   7.053   7.747   2.328
44735SOL     OW36101   5.396  14.642   9.136
44735SOL    HW136102   5.391  14.567   9.195
44735SOL    HW236103   5.490  14.659   9.127
44736SOL     OW36104  10.678   2.149  11.335
44736SOL    HW136105  10.725   2.135  11.252
44736SOL    HW236106  10.747   2.171  11.397
44737SOL     OW36107  13.016   9.417  12.425
44737SOL    HW136108  12.964   9.413  12.344
44737SOL    HW236109  12.981   9.347  12.479
44738SOL     OW36110   3.378   3.784   1.989
44738SOL    HW136111   3.356   3.849   1.922
44738SOL    HW236112   3.298   3.775   2.042
44739SOL     OW36113   9.472   4.653   6.387
44739SOL    HW136114   9.505   4.700   6.311
44739SOL    HW236115   9.452   4.566   6.355
44740SOL     OW36116  14.468   1.919   4.332
44740SOL    HW136117  14.499   1.986   4.393
44740SOL    HW236118  14.544   1.862   4.319
44741SOL     OW36119   5.029  11.041  11.385
44741SOL    HW136120   5.015  10.982  11.459
44741SOL    HW236121   5.114  11.014  11.349
44742SOL     OW36122   9.388  14.603   9.062
44742SOL    HW136123   9.343  14.549   9.127
44742SOL    HW236124   9.322  14.667   9.035
44743SOL     OW36125   8.634   4.815   3.874
44743SOL    HW136126   8.730   4.822   3.875
44743SOL    HW236127   8.614   4.786   3.785
44744SOL     OW36128   3.217  10.845   3.375
44744SOL    HW136129   3.240  10.804   3.292
44744SOL    HW236130   3.169  10.778   3.424
44745SOL     OW36131   5.634   7.410   4.373
44745SOL    HW136132   5.621   7.457   4.455
44745SOL    HW236133   5.644   7.480   4.308
44746SOL     OW36134   0.623   6.557   7.829
44746SOL    HW136135   0.718   6.573   7.826
44746SOL    HW236136   0.585   6.645   7.830
44747SOL     OW36137   4.134   7.706   0.465
44747SOL    HW136138   4.065   7.644   0.489
44747SOL    HW236139   4.203   7.693   0.530
44748SOL     OW36140  10.627   6.266   9.745
44748SOL    HW136141  10.634   6.194   9.682
44748SOL    HW236142  10.706   6.318   9.731
44749SOL     OW36143   5.052  10.453   2.438
44749SOL    HW136144   5.137  10.494   2.425
44749SOL    HW236145   5.043  10.444   2.533
44750SOL     OW36146  14.721   4.221  12.456
44750SOL    HW136147  14.665   4.143  12.458
44750SOL    HW236148  14.776   4.209  12.378
44751SOL     OW36149   3.808   4.791   5.586
44751SOL    HW136150   3.849   4.877   5.591
44751SOL    HW236151   3.855   4.746   5.516
44752SOL     OW36152   1.066  10.649  11.543
44752SOL    HW136153   1.153  10.618  11.571
44752SOL    HW236154   1.013  10.645  11.623
44753SOL     OW36155   2.006   6.590   5.620
44753SOL    HW136156   2.064   6.665   5.605
44753SOL    HW236157   2.047   6.543   5.692
44754SOL     OW36158   4.476   0.994   7.030
44754SOL    HW136159   4.510   1.048   7.101
44754SOL    HW236160   4.472   0.906   7.066
44755SOL     OW36161  11.160   0.848  13.864
44755SOL    HW136162  11.248   0.878  13.887
44755SOL    HW236163  11.126   0.916  13.805
44756SOL     OW36164   9.551  13.446   0.265
44756SOL    HW136165   9.535  13.496   0.345
44756SOL    HW236166   9.643  13.420   0.271
44757SOL     OW36167  14.117   2.264  11.683
44757SOL    HW136168  14.022   2.255  11.674
44757SOL    HW236169  14.130   2.286  11.775
44758SOL     OW36170   0.344   1.679   0.208
44758SOL    HW136171   0.363   1.687   0.301
44758SOL    HW236172   0.341   1.585   0.191
44759SOL     OW36173   3.246   1.999   0.809
44759SOL    HW136174   3.297   1.928   0.847
44759SOL    HW236175   3.308   2.047   0.754
44760SOL     OW36176   7.255   3.087   8.594
44760SOL    HW136177   7.223   3.125   8.676
44760SOL    HW236178   7.350   3.079   8.608
44761SOL     OW36179  12.683  11.824   4.426
44761SOL    HW136180  12.738  11.815   4.348
44761SOL    HW236181  12.645  11.737   4.438
44762SOL     OW36182   1.814  11.127   5.328
44762SOL    HW136183   1.905  11.110   5.351
44762SOL    HW236184   1.786  11.195   5.389
44763SOL     OW36185   7.965   1.397   7.960
44763SOL    HW136186   7.915   1.335   8.013
44763SOL    HW236187   8.055   1.364   7.964
44764SOL     OW36188  14.516  12.355  13.924
44764SOL    HW136189  14.481  12.271  13.894
44764SOL    HW236190  14.442  12.396  13.969
44765SOL     OW36191   9.302   0.723   1.822
44765SOL    HW136192   9.227   0.750   1.770
44765SOL    HW236193   9.368   0.698   1.758
44766SOL     OW36194  12.861  14.635   1.889
44766SOL    HW136195  12.890  14.581   1.816
44766SOL    HW236196  12.817  14.709   1.849
44767SOL     OW36197   6.832   6.113  10.976
44767SOL    HW136198   6.834   6.189  11.034
44767SOL    HW236199   6.792   6.145  10.895
44768SOL     OW36200   1.791   9.467   2.867
44768SOL    HW136201   1.861   9.408   2.896
44768SOL    HW236202   1.837   9.536   2.819
44769SOL     OW36203  14.685   2.944   5.183
44769SOL    HW136204  14.599   2.944   5.141
44769SOL    HW236205  14.733   3.013   5.138
44770SOL     OW36206  13.970   3.557   4.292
44770SOL    HW136207  13.915   3.601   4.357
44770SOL    HW236208  13.969   3.617   4.217
44771SOL     OW36209   5.115  13.322  14.724
44771SOL    HW136210   5.108  13.395  14.786
44771SOL    HW236211   5.060  13.349  14.650
44772SOL     OW36212   7.211   3.974   9.445
44772SOL    HW136213   7.206   4.001   9.353
44772SOL    HW236214   7.135   3.918   9.459
44773SOL     OW36215   9.223  10.972   8.488
44773SOL    HW136216   9.304  11.023   8.482
44773SOL    HW236217   9.244  10.888   8.449
44774SOL     OW36218  13.515   8.865   7.872
44774SOL    HW136219  13.442   8.928   7.875
44774SOL    HW236220  13.582   8.904   7.928
44775SOL     OW36221   5.587  10.966   0.324
44775SOL    HW136222   5.529  10.927   0.389
44775SOL    HW236223   5.530  11.020   0.270
44776SOL     OW36224  10.984   1.643  13.627
44776SOL    HW136225  10.912   1.604  13.577
44776SOL    HW236226  10.999   1.728  13.586
44777SOL     OW36227  11.320  13.170   4.304
44777SOL    HW136228  11.255  13.124   4.357
44777SOL    HW236229  11.330  13.255   4.347
44778SOL     OW36230  10.094  14.406  11.573
44778SOL    HW136231  10.024  14.422  11.510
44778SOL    HW236232  10.123  14.317  11.555
44779SOL     OW36233   2.879   3.027   4.111
44779SOL    HW136234   2.809   2.962   4.109
44779SOL    HW236235   2.940   2.994   4.177
44780SOL     OW36236   2.757   8.020   4.386
44780SOL    HW136237   2.836   7.972   4.409
44780SOL    HW236238   2.736   7.991   4.297
44781SOL     OW36239   6.711   1.127  12.785
44781SOL    HW136240   6.731   1.063  12.716
44781SOL    HW236241   6.645   1.083  12.839
44782SOL     OW36242   3.931   3.261   3.896
44782SOL    HW136243   3.982   3.319   3.953
44782SOL    HW236244   3.930   3.306   3.812
44783SOL     OW36245   4.431   0.289   0.667
44783SOL    HW136246   4.446   0.326   0.579
44783SOL    HW236247   4.503   0.324   0.720
44784SOL     OW36248  11.964  14.259   1.457
44784SOL    HW136249  11.937  14.342   1.495
44784SOL    HW236250  11.883  14.212   1.441
44785SOL     OW36251  13.051   2.067   0.972
44785SOL    HW136252  12.990   2.027   1.034
44785SOL    HW236253  13.048   2.010   0.895
44786SOL     OW36254   1.472  11.085   1.127
44786SOL    HW136255   1.495  11.132   1.047
44786SOL    HW236256   1.519  11.002   1.120
44787SOL     OW36257   3.178   3.831  11.969
44787SOL    HW136258   3.269   3.833  11.941
44787SOL    HW236259   3.178   3.774  12.046
44788SOL     OW36260  10.336   3.809   3.638
44788SOL    HW136261  10.393   3.871   3.594
44788SOL    HW236262  10.357   3.724   3.598
44789SOL     OW36263  13.285  12.588  13.466
44789SOL    HW136264  13.305  12.521  13.401
44789SOL    HW236265  13.371  12.617  13.498
44790SOL     OW36266  10.439   9.846   4.347
44790SOL    HW136267  10.413   9.896   4.270
44790SOL    HW236268  10.368   9.860   4.410
44791SOL     OW36269   4.868   6.855   6.399
44791SOL    HW136270   4.823   6.876   6.481
44791SOL    HW236271   4.952   6.901   6.406
44792SOL     OW36272   8.119   9.029  12.099
44792SOL    HW136273   8.045   8.986  12.055
44792SOL    HW236274   8.079   9.083  12.167
44793SOL     OW36275  11.835  11.045  10.885
44793SOL    HW136276  11.906  11.108  10.873
44793SOL    HW236277  11.801  11.030  10.796
44794SOL     OW36278  13.606   2.781  10.242
44794SOL    HW136279  13.536   2.767  10.306
44794SOL    HW236280  13.571   2.745  10.160
44795SOL     OW36281   2.015   4.583   4.178
44795SOL    HW136282   1.994   4.495   4.147
44795SOL    HW236283   2.110   4.583   4.189
44796SOL     OW36284  11.371  12.635  12.224
44796SOL    HW136285  11.357  12.540  12.230
44796SOL    HW236286  11.366  12.665  12.315
44797SOL     OW36287   2.908   4.897   8.988
44797SOL    HW136288   2.908   4.829   9.055
44797SOL    HW236289   2.832   4.877   8.933
44798SOL     OW36290   3.885  11.284  10.984
44798SOL    HW136291   3.959  11.342  11.005
44798SOL    HW236292   3.918  11.196  11.001
44799SOL     OW36293  11.326   0.148   3.479
44799SOL    HW136294  11.400   0.209   3.487
44799SOL    HW236295  11.367   0.064   3.461
44800SOL     OW36296   1.338   4.807   9.930
44800SOL    HW136297   1.362   4.732   9.984
44800SOL    HW236298   1.256   4.781   9.888
44801SOL     OW36299   9.067   9.981  11.976
44801SOL    HW136300   9.098   9.911  12.032
44801SOL    HW236301   9.147  10.028  11.950
44802SOL     OW36302  14.652   6.871   6.936
44802SOL    HW136303  14.692   6.785   6.925
44802SOL    HW236304  14.665   6.915   6.852
44803SOL     OW36305   0.300   1.691   7.024
44803SOL    HW136306   0.214   1.664   7.056
44803SOL    HW236307   0.357   1.616   7.041
44804SOL     OW36308   6.589   8.619   2.784
44804SOL    HW136309   6.573   8.600   2.877
44804SOL    HW236310   6.598   8.715   2.782
44805SOL     OW36311   3.732   1.700   3.492
44805SOL    HW136312   3.651   1.654   3.470
44805SOL    HW236313   3.718   1.730   3.582
44806SOL     OW36314   6.776   5.193   7.877
44806SOL    HW136315   6.852   5.213   7.821
44806SOL    HW236316   6.782   5.099   7.892
44807SOL     OW36317   1.369   1.743  11.101
44807SOL    HW136318   1.432   1.699  11.043
44807SOL    HW236319   1.352   1.827  11.058
44808SOL     OW36320  13.588   5.583   1.602
44808SOL    HW136321  13.551   5.518   1.662
44808SOL    HW236322  13.682   5.582   1.622
44809SOL     OW36323   4.732   2.925   0.246
44809SOL    HW136324   4.685   2.848   0.277
44809SOL    HW236325   4.664   2.986   0.220
44810SOL     OW36326  10.477  11.757  12.658
44810SOL    HW136327  10.550  11.722  12.605
44810SOL    HW236328  10.487  11.852  12.652
44811SOL     OW36329   6.286   9.495  11.294
44811SOL    HW136330   6.215   9.450  11.248
44811SOL    HW236331   6.270   9.477  11.387
44812SOL     OW36332  11.688   0.620  14.457
44812SOL    HW136333  11.625   0.650  14.523
44812SOL    HW236334  11.729   0.700  14.425
44813SOL     OW36335   9.577   2.095   3.450
44813SOL    HW136336   9.558   2.149   3.527
44813SOL    HW236337   9.620   2.017   3.485
44814SOL     OW36338   1.393   8.969  14.363
44814SOL    HW136339   1.384   9.035  14.432
44814SOL    HW236340   1.430   9.017  14.289
44815SOL     OW36341   8.778  10.226  11.589
44815SOL    HW136342   8.807  10.146  11.634
44815SOL    HW236343   8.812  10.297  11.643
44816SOL     OW36344  13.733   7.345   8.001
44816SOL    HW136345  13.823   7.379   8.009
44816SOL    HW236346  13.696   7.395   7.928
44817SOL     OW36347  14.440  13.985   0.515
44817SOL    HW136348  14.394  14.069   0.510
44817SOL    HW236349  14.372  13.921   0.538
44818SOL     OW36350   2.073   5.416  10.905
44818SOL    HW136351   2.031   5.417  10.991
44818SOL    HW236352   2.161   5.448  10.921
44819SOL     OW36353   8.775   0.212  11.945
44819SOL    HW136354   8.781   0.292  11.894
44819SOL    HW236355   8.864   0.175  11.943
44820SOL     OW36356  13.756   1.515   1.674
44820SOL    HW136357  13.759   1.603   1.711
44820SOL    HW236358  13.666   1.485   1.690
44821SOL     OW36359   4.595   9.383  12.366
44821SOL    HW136360   4.598   9.473  12.398
44821SOL    HW236361   4.519   9.381  12.307
44822SOL     OW36362  11.208   9.181   3.315
44822SOL    HW136363  11.302   9.200   3.309
44822SOL    HW236364  11.168   9.264   3.341
44823SOL     OW36365   7.326   0.286  10.020
44823SOL    HW136366   7.324   0.357  10.084
44823SOL    HW236367   7.410   0.295   9.976
44824SOL     OW36368   6.679   9.639   7.368
44824SOL    HW136369   6.751   9.696   7.339
44824SOL    HW236370   6.703   9.553   7.335
44825SOL     OW36371   0.610   9.280   4.572
44825SOL    HW136372   0.589   9.297   4.664
44825SOL    HW236373   0.667   9.352   4.546
44826SOL     OW36374   1.606  12.927   7.289
44826SOL    HW136375   1.646  12.858   7.236
44826SOL    HW236376   1.673  12.949   7.354
44827SOL     OW36377   1.801  12.762  10.119
44827SOL    HW136378   1.710  12.779  10.142
44827SOL    HW236379   1.808  12.790  10.027
44828SOL     OW36380   5.079   7.361  13.121
44828SOL    HW136381   5.112   7.272  13.129
44828SOL    HW236382   5.030   7.376  13.202
44829SOL     OW36383   9.513  10.093   8.703
44829SOL    HW136384   9.484  10.157   8.768
44829SOL    HW236385   9.607  10.087   8.715
44830SOL     OW36386   4.739   2.591   6.211
44830SOL    HW136387   4.684   2.586   6.133
44830SOL    HW236388   4.744   2.500   6.242
44831SOL     OW36389   8.263   6.955   6.676
44831SOL    HW136390   8.221   7.008   6.744
44831SOL    HW236391   8.349   6.934   6.713
44832SOL     OW36392   2.734   5.376   5.916
44832SOL    HW136393   2.828   5.355   5.916
44832SOL    HW236394   2.710   5.380   5.824
44833SOL     OW36395   8.788   0.421  14.880
44833SOL    HW136396   8.705   0.442   0.042
44833SOL    HW236397   8.785   0.472  14.799
44834SOL     OW36398  12.449   1.330   5.387
44834SOL    HW136399  12.361   1.361   5.411
44834SOL    HW236400  12.484   1.399   5.331
44835SOL     OW36401   2.833   7.791  10.679
44835SOL    HW136402   2.739   7.787  10.696
44835SOL    HW236403   2.851   7.884  10.666
44836SOL     OW36404   3.213   2.719  12.721
44836SOL    HW136405   3.264   2.760  12.791
44836SOL    HW236406   3.177   2.640  12.761
44837SOL     OW36407   0.661   9.307  11.318
44837SOL    HW136408   0.700   9.260  11.392
44837SOL    HW236409   0.608   9.242  11.273
44838SOL     OW36410   4.657   2.906   7.696
44838SOL    HW136411   4.655   2.951   7.612
44838SOL    HW236412   4.606   2.963   7.755
44839SOL     OW36413   1.681   5.687  14.578
44839SOL    HW136414   1.772   5.662  14.593
44839SOL    HW236415   1.652   5.724  14.661
44840SOL     OW36416   9.502   7.207   5.221
44840SOL    HW136417   9.484   7.134   5.162
44840SOL    HW236418   9.435   7.200   5.289
44841SOL     OW36419   9.979   9.374   5.644
44841SOL    HW136420   9.993   9.406   5.733
44841SOL    HW236421   9.917   9.437   5.606
44842SOL     OW36422  12.435   7.135   3.256
44842SOL    HW136423  12.369   7.118   3.324
44842SOL    HW236424  12.473   7.220   3.281
44843SOL     OW36425   8.586   6.691   0.492
44843SOL    HW136426   8.543   6.731   0.567
44843SOL    HW236427   8.672   6.732   0.489
44844SOL     OW36428  14.232   7.863  14.876
44844SOL    HW136429  14.326   7.855  14.861
44844SOL    HW236430  14.194   7.797  14.817
44845SOL     OW36431   8.938  13.480   7.957
44845SOL    HW136432   8.935  13.506   8.049
44845SOL    HW236433   8.846  13.477   7.930
44846SOL     OW36434   0.144  13.523   5.633
44846SOL    HW136435   0.196  13.517   5.713
44846SOL    HW236436   0.059  13.487   5.657
44847SOL     OW36437   7.649  14.468   6.322
44847SOL    HW136438   7.626  14.447   6.412
44847SOL    HW236439   7.565  14.487   6.280
44848SOL     OW36440   5.874   3.540   4.090
44848SOL    HW136441   5.845   3.571   4.004
44848SOL    HW236442   5.942   3.476   4.070
44849SOL     OW36443  13.801   5.257   6.919
44849SOL    HW136444  13.805   5.172   6.874
44849SOL    HW236445  13.834   5.320   6.854
44850SOL     OW36446   4.696   0.183  11.429
44850SOL    HW136447   4.661   0.266  11.462
44850SOL    HW236448   4.727   0.205  11.341
44851SOL     OW36449   9.301   3.627   4.898
44851SOL    HW136450   9.358   3.554   4.921
44851SOL    HW236451   9.361   3.696   4.867
44852SOL     OW36452   3.695  12.312  14.326
44852SOL    HW136453   3.625  12.370  14.355
44852SOL    HW236454   3.775  12.361  14.343
44853SOL     OW36455   7.252  10.389   8.960
44853SOL    HW136456   7.228  10.342   9.040
44853SOL    HW236457   7.344  10.411   8.971
44854SOL     OW36458   7.618   3.238  11.634
44854SOL    HW136459   7.619   3.215  11.727
44854SOL    HW236460   7.664   3.166  11.591
44855SOL     OW36461   9.881   1.984  12.732
44855SOL    HW136462   9.953   1.993  12.794
44855SOL    HW236463   9.870   1.889  12.721
44856SOL     OW36464   7.478  12.541   9.861
44856SOL    HW136465   7.405  12.545   9.924
44856SOL    HW236466   7.478  12.450   9.831
44857SOL     OW36467   8.687   4.107  12.602
44857SOL    HW136468   8.708   4.043  12.670
44857SOL    HW236469   8.738   4.184  12.625
44858SOL     OW36470  11.628   5.460   7.498
44858SOL    HW136471  11.697   5.512   7.457
44858SOL    HW236472  11.675   5.395   7.550
44859SOL     OW36473   7.823   8.700   3.707
44859SOL    HW136474   7.893   8.718   3.645
44859SOL    HW236475   7.856   8.626   3.759
44860SOL     OW36476   1.400   9.116  14.612
44860SOL    HW136477   1.417   9.039  14.666
44860SOL    HW236478   1.460   9.183  14.646
44861SOL     OW36479   5.576  12.034   8.342
44861SOL    HW136480   5.544  12.069   8.425
44861SOL    HW236481   5.565  11.939   8.350
44862SOL     OW36482   9.582   8.859   0.646
44862SOL    HW136483   9.588   8.767   0.670
44862SOL    HW236484   9.501   8.865   0.594
44863SOL     OW36485   9.961   5.386   7.362
44863SOL    HW136486   9.877   5.343   7.347
44863SOL    HW236487   9.941   5.479   7.364
44864SOL     OW36488   2.073   0.703   4.145
44864SOL    HW136489   2.032   0.725   4.061
44864SOL    HW236490   2.129   0.779   4.164
44865SOL     OW36491   4.375   6.172   1.300
44865SOL    HW136492   4.361   6.078   1.311
44865SOL    HW236493   4.467   6.185   1.322
44866SOL     OW36494  12.389   8.464   6.926
44866SOL    HW136495  12.315   8.407   6.906
44866SOL    HW236496  12.405   8.513   6.846
44867SOL     OW36497   0.060  10.226   0.919
44867SOL    HW136498   0.119  10.266   0.855
44867SOL    HW236499  14.855  10.233   0.878
44868SOL     OW36500  13.029   4.206  13.029
44868SOL    HW136501  13.051   4.130  13.083
44868SOL    HW236502  13.110   4.225  12.981
44869SOL     OW36503   3.845  10.709   8.937
44869SOL    HW136504   3.870  10.796   8.969
44869SOL    HW236505   3.918  10.680   8.884
44870SOL     OW36506   1.030   5.795   5.292
44870SOL    HW136507   1.115   5.766   5.259
44870SOL    HW236508   1.037   5.890   5.299
44871SOL     OW36509  11.461  13.982  11.696
44871SOL    HW136510  11.410  14.062  11.685
44871SOL    HW236511  11.406  13.925  11.750
44872SOL     OW36512  13.501   9.207   4.908
44872SOL    HW136513  13.503   9.111   4.908
44872SOL    HW236514  13.593   9.233   4.903
44873SOL     OW36515  10.077  12.579  12.358
44873SOL    HW136516  10.023  12.507  12.389
44873SOL    HW236517  10.105  12.552  12.270
44874SOL     OW36518   6.143   1.663   6.478
44874SOL    HW136519   6.194   1.658   6.397
44874SOL    HW236520   6.100   1.749   6.474
44875SOL     OW36521   1.506   3.743  10.366
44875SOL    HW136522   1.504   3.838  10.380
44875SOL    HW236523   1.597   3.718  10.383
44876SOL     OW36524  10.797   2.043   7.033
44876SOL    HW136525  10.865   2.110   7.032
44876SOL    HW236526  10.843   1.960   7.019
44877SOL     OW36527  12.226   2.287  13.929
44877SOL    HW136528  12.182   2.366  13.962
44877SOL    HW236529  12.301   2.275  13.987
44878SOL     OW36530   9.950   1.246   8.841
44878SOL    HW136531   9.879   1.187   8.866
44878SOL    HW236532  10.026   1.212   8.888
44879SOL     OW36533  10.780  12.318   1.252
44879SOL    HW136534  10.742  12.298   1.166
44879SOL    HW236535  10.793  12.232   1.293
44880SOL     OW36536  10.718   2.216   4.320
44880SOL    HW136537  10.770   2.185   4.246
44880SOL    HW236538  10.779   2.218   4.393
44881SOL     OW36539   8.723   0.128   0.965
44881SOL    HW136540   8.648   0.135   0.906
44881SOL    HW236541   8.758   0.040   0.949
44882SOL     OW36542  14.407   4.304  12.308
44882SOL    HW136543  14.400   4.343  12.221
44882SOL    HW236544  14.345   4.353  12.362
44883SOL     OW36545   0.503   0.498   2.389
44883SOL    HW136546   0.505   0.588   2.358
44883SOL    HW236547   0.417   0.466   2.364
44884SOL     OW36548   1.844  11.877   3.795
44884SOL    HW136549   1.838  11.798   3.848
44884SOL    HW236550   1.753  11.899   3.774
44885SOL     OW36551  11.390  13.501   4.611
44885SOL    HW136552  11.435  13.528   4.691
44885SOL    HW236553  11.333  13.429   4.638
44886SOL     OW36554   5.267  10.716  10.236
44886SOL    HW136555   5.193  10.731  10.177
44886SOL    HW236556   5.336  10.775  10.204
44887SOL     OW36557   0.194   1.460   8.038
44887SOL    HW136558   0.197   1.522   7.965
44887SOL    HW236559   0.130   1.394   8.012
44888SOL     OW36560   0.785   0.300   9.980
44888SOL    HW136561   0.823   0.334   9.899
44888SOL    HW236562   0.691   0.307   9.967
44889SOL     OW36563   1.628   9.446   7.254
44889SOL    HW136564   1.541   9.428   7.218
44889SOL    HW236565   1.666   9.510   7.193
44890SOL     OW36566   4.347   3.195  13.752
44890SOL    HW136567   4.430   3.234  13.780
44890SOL    HW236568   4.327   3.130  13.819
44891SOL     OW36569  10.286   4.036  10.126
44891SOL    HW136570  10.312   4.124  10.097
44891SOL    HW236571  10.296   4.039  10.221
44892SOL     OW36572   4.806   3.371   6.783
44892SOL    HW136573   4.838   3.331   6.702
44892SOL    HW236574   4.868   3.441   6.801
44893SOL     OW36575   6.165  13.949   1.016
44893SOL    HW136576   6.085  13.993   0.988
44893SOL    HW236577   6.217  13.941   0.936
44894SOL     OW36578   5.356  14.120   5.248
44894SOL    HW136579   5.289  14.186   5.265
44894SOL    HW236580   5.324  14.074   5.170
44895SOL     OW36581   4.425   1.132   6.253
44895SOL    HW136582   4.408   1.083   6.334
44895SOL    HW236583   4.347   1.118   6.199
44896SOL     OW36584  13.200   8.904  11.247
44896SOL    HW136585  13.252   8.970  11.201
44896SOL    HW236586  13.265   8.843  11.282
44897SOL     OW36587   2.015   6.907   3.654
44897SOL    HW136588   1.943   6.966   3.674
44897SOL    HW236589   2.082   6.962   3.614
44898SOL     OW36590   2.218  12.363  11.646
44898SOL    HW136591   2.157  12.291  11.658
44898SOL    HW236592   2.195  12.427  11.713
44899SOL     OW36593  14.543   0.674  11.005
44899SOL    HW136594  14.456   0.636  11.001
44899SOL    HW236595  14.597   0.618  10.950
44900SOL     OW36596   7.168  13.969   4.516
44900SOL    HW136597   7.236  14.000   4.576
44900SOL    HW236598   7.217  13.936   4.440
44901SOL     OW36599   8.485   1.306   6.777
44901SOL    HW136600   8.482   1.305   6.872
44901SOL    HW236601   8.403   1.348   6.751
44902SOL     OW36602   3.361   7.994   5.916
44902SOL    HW136603   3.370   7.903   5.890
44902SOL    HW236604   3.448   8.020   5.945
44903SOL     OW36605   6.096   1.930   0.529
44903SOL    HW136606   6.084   1.991   0.601
44903SOL    HW236607   6.018   1.874   0.532
44904SOL     OW36608   7.815   5.092   0.262
44904SOL    HW136609   7.895   5.105   0.314
44904SOL    HW236610   7.744   5.117   0.321
44905SOL     OW36611   5.688  10.924   8.807
44905SOL    HW136612   5.736  10.953   8.884
44905SOL    HW236613   5.596  10.932   8.832
44906SOL     OW36614  14.592   5.712   0.224
44906SOL    HW136615  14.550   5.735   0.141
44906SOL    HW236616  14.550   5.630   0.250
44907SOL     OW36617  12.437  13.327   1.941
44907SOL    HW136618  12.358  13.301   1.989
44907SOL    HW236619  12.457  13.415   1.973
44908SOL     OW36620  14.388   3.833   9.923
44908SOL    HW136621  14.323   3.898   9.897
44908SOL    HW236622  14.453   3.835   9.852
44909SOL     OW36623  13.508  10.226  10.762
44909SOL    HW136624  13.562  10.183  10.695
44909SOL    HW236625  13.539  10.316  10.764
44910SOL     OW36626  13.513   4.892   2.033
44910SOL    HW136627  13.554   4.966   1.989
44910SOL    HW236628  13.577   4.821   2.027
44911SOL     OW36629   0.323  13.710   8.645
44911SOL    HW136630   0.293  13.779   8.586
44911SOL    HW236631   0.245  13.685   8.695
44912SOL     OW36632   8.900   3.915   8.548
44912SOL    HW136633   8.978   3.946   8.501
44912SOL    HW236634   8.866   3.843   8.493
44913SOL     OW36635  13.692  11.830  11.629
44913SOL    HW136636  13.733  11.843  11.714
44913SOL    HW236637  13.605  11.867  11.638
44914SOL     OW36638  14.419   2.831   5.875
44914SOL    HW136639  14.461   2.884   5.807
44914SOL    HW236640  14.373   2.763   5.827
44915SOL     OW36641  11.163   2.175   4.668
44915SOL    HW136642  11.144   2.162   4.575
44915SOL    HW236643  11.090   2.226   4.701
44916SOL     OW36644  11.962   8.374   3.606
44916SOL    HW136645  12.010   8.433   3.664
44916SOL    HW236646  12.008   8.290   3.613
44917SOL     OW36647   2.503   3.107  12.528
44917SOL    HW136648   2.453   3.104  12.610
44917SOL    HW236649   2.489   3.195  12.494
44918SOL     OW36650   8.305   3.194   3.550
44918SOL    HW136651   8.224   3.208   3.599
44918SOL    HW236652   8.352   3.277   3.558
44919SOL     OW36653   3.474   9.582   3.711
44919SOL    HW136654   3.466   9.672   3.680
44919SOL    HW236655   3.473   9.528   3.632
44920SOL     OW36656   0.578   6.453   0.517
44920SOL    HW136657   0.596   6.509   0.592
44920SOL    HW236658   0.524   6.508   0.459
44921SOL     OW36659  10.799   7.648  13.404
44921SOL    HW136660  10.828   7.566  13.366
44921SOL    HW236661  10.828   7.715  13.342
44922SOL     OW36662  14.411   7.197   4.872
44922SOL    HW136663  14.392   7.290   4.883
44922SOL    HW236664  14.457   7.192   4.788
44923SOL     OW36665   5.928  13.604   7.351
44923SOL    HW136666   5.896  13.517   7.326
44923SOL    HW236667   5.982  13.632   7.277
44924SOL     OW36668   7.541   5.374  12.750
44924SOL    HW136669   7.479   5.303  12.767
44924SOL    HW236670   7.604   5.336  12.689
44925SOL     OW36671   8.925  11.906   1.044
44925SOL    HW136672   9.013  11.903   1.082
44925SOL    HW236673   8.902  11.999   1.047
44926SOL     OW36674   8.211  13.746   8.303
44926SOL    HW136675   8.257  13.793   8.373
44926SOL    HW236676   8.129  13.718   8.343
44927SOL     OW36677  12.083   9.193   5.636
44927SOL    HW136678  12.033   9.115   5.615
44927SOL    HW236679  12.153   9.194   5.571
44928SOL     OW36680   2.659  13.033   1.867
44928SOL    HW136681   2.727  13.041   1.801
44928SOL    HW236682   2.591  13.095   1.839
44929SOL     OW36683   1.704   1.112  12.160
44929SOL    HW136684   1.787   1.118  12.207
44929SOL    HW236685   1.640   1.150  12.221
44930SOL     OW36686   0.235   4.682  13.206
44930SOL    HW136687   0.275   4.697  13.120
44930SOL    HW236688   0.157   4.737  13.206
44931SOL     OW36689   1.101  12.299   1.475
44931SOL    HW136690   1.162  12.366   1.506
44931SOL    HW236691   1.154  12.243   1.418
44932SOL     OW36692   0.605  13.515   7.752
44932SOL    HW136693   0.538  13.560   7.803
44932SOL    HW236694   0.674  13.580   7.739
44933SOL     OW36695   8.379  11.097  12.374
44933SOL    HW136696   8.375  11.005  12.347
44933SOL    HW236697   8.314  11.104  12.444
44934SOL     OW36698  11.267  14.034  13.320
44934SOL    HW136699  11.267  14.009  13.227
44934SOL    HW236700  11.192  13.988  13.356
44935SOL     OW36701   2.239  12.564   1.736
44935SOL    HW136702   2.316  12.525   1.776
44935SOL    HW236703   2.192  12.490   1.696
44936SOL     OW36704   9.858   1.620  10.885
44936SOL    HW136705   9.815   1.635  10.969
44936SOL    HW236706   9.891   1.531  10.889
44937SOL     OW36707  13.080   9.945  13.010
44937SOL    HW136708  13.097   9.874  12.949
44937SOL    HW236709  13.092  10.025  12.959
44938SOL     OW36710   1.840   5.472   1.142
44938SOL    HW136711   1.837   5.469   1.237
44938SOL    HW236712   1.921   5.519   1.122
44939SOL     OW36713   0.818   6.401   8.885
44939SOL    HW136714   0.785   6.316   8.913
44939SOL    HW236715   0.741   6.449   8.855
44940SOL     OW36716  14.097  12.286   5.975
44940SOL    HW136717  14.177  12.234   5.966
44940SOL    HW236718  14.034  12.242   5.918
44941SOL     OW36719   7.046   8.781   1.289
44941SOL    HW136720   7.129   8.802   1.332
44941SOL    HW236721   6.980   8.831   1.337
44942SOL     OW36722   0.655  10.652  13.509
44942SOL    HW136723   0.702  10.594  13.449
44942SOL    HW236724   0.619  10.593  13.575
44943SOL     OW36725   7.143   6.415  13.335
44943SOL    HW136726   7.164   6.342  13.275
44943SOL    HW236727   7.111   6.484  13.278
44944SOL     OW36728  14.713  10.438   5.278
44944SOL    HW136729  14.633  10.441   5.331
44944SOL    HW236730  14.750  10.351   5.297
44945SOL     OW36731   2.915  14.476   1.302
44945SOL    HW136732   2.997  14.434   1.326
44945SOL    HW236733   2.939  14.536   1.231
44946SOL     OW36734   0.795   3.156  11.943
44946SOL    HW136735   0.814   3.229  12.001
44946SOL    HW236736   0.713   3.180  11.900
44947SOL     OW36737   6.530   1.037   3.249
44947SOL    HW136738   6.488   0.962   3.208
44947SOL    HW236739   6.499   1.035   3.340
44948SOL     OW36740  11.402   9.263   7.630
44948SOL    HW136741  11.497   9.255   7.640
44948SOL    HW236742  11.367   9.187   7.677
44949SOL     OW36743   7.962  10.433   7.567
44949SOL    HW136744   8.016  10.356   7.547
44949SOL    HW236745   8.006  10.475   7.640
44950SOL     OW36746   0.896   5.225   7.133
44950SOL    HW136747   0.841   5.211   7.210
44950SOL    HW236748   0.857   5.299   7.088
44951SOL     OW36749   2.745   3.740  11.957
44951SOL    HW136750   2.797   3.688  12.018
44951SOL    HW236751   2.680   3.783  12.012
44952SOL     OW36752  10.127   5.582   6.409
44952SOL    HW136753  10.212   5.541   6.390
44952SOL    HW236754  10.150   5.665   6.451
44953SOL     OW36755   2.358  14.005   2.023
44953SOL    HW136756   2.302  14.070   1.981
44953SOL    HW236757   2.327  14.002   2.113
44954SOL     OW36758   1.143   8.759   5.438
44954SOL    HW136759   1.162   8.853   5.438
44954SOL    HW236760   1.110   8.741   5.349
44955SOL     OW36761  14.753   6.574  12.415
44955SOL    HW136762  14.765   6.669  12.424
44955SOL    HW236763  14.669   6.565  12.370
44956SOL     OW36764   5.829   7.583   3.343
44956SOL    HW136765   5.808   7.524   3.271
44956SOL    HW236766   5.867   7.660   3.300
44957SOL     OW36767   7.984   3.988   1.759
44957SOL    HW136768   8.010   3.903   1.724
44957SOL    HW236769   8.060   4.045   1.743
44958SOL     OW36770   6.081   4.453   3.487
44958SOL    HW136771   6.161   4.413   3.453
44958SOL    HW236772   6.101   4.546   3.492
44959SOL     OW36773  14.095   7.350   8.685
44959SOL    HW136774  14.136   7.304   8.758
44959SOL    HW236775  14.019   7.297   8.663
44960SOL     OW36776  14.523  10.672  12.078
44960SOL    HW136777  14.485  10.760  12.073
44960SOL    HW236778  14.553  10.664  12.168
44961SOL     OW36779   4.023  12.650   3.469
44961SOL    HW136780   4.069  12.734   3.475
44961SOL    HW236781   4.068  12.603   3.399
44962SOL     OW36782   2.080  13.766   3.781
44962SOL    HW136783   2.173  13.787   3.793
44962SOL    HW236784   2.034  13.827   3.838
44963SOL     OW36785   4.850   6.311  11.714
44963SOL    HW136786   4.818   6.222  11.702
44963SOL    HW236787   4.934   6.300  11.759
44964SOL     OW36788  11.260  13.402   0.098
44964SOL    HW136789  11.286  13.388   0.007
44964SOL    HW236790  11.220  13.489   0.099
44965SOL     OW36791   7.585  13.682   0.755
44965SOL    HW136792   7.639  13.638   0.821
44965SOL    HW236793   7.500  13.638   0.761
44966SOL     OW36794   5.675   7.173   9.893
44966SOL    HW136795   5.587   7.188   9.860
44966SOL    HW236796   5.667   7.182   9.988
44967SOL     OW36797   4.844  11.742   5.413
44967SOL    HW136798   4.926  11.693   5.403
44967SOL    HW236799   4.775  11.675   5.405
44968SOL     OW36800   9.919   3.487   8.909
44968SOL    HW136801   9.974   3.552   8.865
44968SOL    HW236802   9.866   3.449   8.838
44969SOL     OW36803  14.322   0.013  10.775
44969SOL    HW136804  14.372  14.821  10.809
44969SOL    HW236805  14.299  14.870  10.686
44970SOL     OW36806  12.501   1.370   0.030
44970SOL    HW136807  12.510   1.276   0.044
44970SOL    HW236808  12.407   1.385   0.026
44971SOL     OW36809   3.667   8.806   4.062
44971SOL    HW136810   3.688   8.777   4.151
44971SOL    HW236811   3.623   8.731   4.022
44972SOL     OW36812   2.669  11.234   1.214
44972SOL    HW136813   2.740  11.178   1.247
44972SOL    HW236814   2.656  11.205   1.124
44973SOL     OW36815   3.675   3.125   2.303
44973SOL    HW136816   3.721   3.199   2.264
44973SOL    HW236817   3.616   3.164   2.367
44974SOL     OW36818  14.706   8.087  14.208
44974SOL    HW136819  14.661   8.005  14.187
44974SOL    HW236820  14.710   8.088  14.304
44975SOL     OW36821   9.485   1.016   3.694
44975SOL    HW136822   9.563   0.970   3.665
44975SOL    HW236823   9.429   0.947   3.729
44976SOL     OW36824   2.874  11.525   4.647
44976SOL    HW136825   2.908  11.437   4.664
44976SOL    HW236826   2.827  11.548   4.727
44977SOL     OW36827   6.074  13.439   6.293
44977SOL    HW136828   6.137  13.367   6.292
44977SOL    HW236829   6.050  13.449   6.385
44978SOL     OW36830   2.770   1.944   0.375
44978SOL    HW136831   2.839   1.889   0.412
44978SOL    HW236832   2.739   1.997   0.448
44979SOL     OW36833  12.229   5.927   1.721
44979SOL    HW136834  12.239   5.835   1.695
44979SOL    HW236835  12.250   5.928   1.814
44980SOL     OW36836   7.396  13.902  10.716
44980SOL    HW136837   7.445  13.869  10.792
44980SOL    HW236838   7.452  13.971  10.680
44981SOL     OW36839   1.218  14.210  13.324
44981SOL    HW136840   1.281  14.154  13.279
44981SOL    HW236841   1.250  14.213  13.415
44982SOL     OW36842  10.596   4.867   2.368
44982SOL    HW136843  10.550   4.873   2.451
44982SOL    HW236844  10.636   4.953   2.356
44983SOL     OW36845  11.904   1.437   5.064
44983SOL    HW136846  11.858   1.428   4.981
44983SOL    HW236847  11.988   1.476   5.041
44984SOL     OW36848   3.913  10.082   5.576
44984SOL    HW136849   3.900  10.176   5.566
44984SOL    HW236850   3.965  10.057   5.500
44985SOL     OW36851  11.149   6.178  13.226
44985SOL    HW136852  11.208   6.253  13.228
44985SOL    HW236853  11.087   6.199  13.156
44986SOL     OW36854   0.456  10.808  12.442
44986SOL    HW136855   0.364  10.832  12.444
44986SOL    HW236856   0.500  10.877  12.492
44987SOL     OW36857   8.245   2.795  11.540
44987SOL    HW136858   8.260   2.712  11.497
44987SOL    HW236859   8.300   2.792  11.618
44988SOL     OW36860   7.976   7.951   5.927
44988SOL    HW136861   8.038   8.004   5.977
44988SOL    HW236862   8.030   7.889   5.878
44989SOL     OW36863  14.671   8.094   2.322
44989SOL    HW136864  14.682   8.188   2.316
44989SOL    HW236865  14.671   8.063   2.231
44990SOL     OW36866   1.322  14.195   7.971
44990SOL    HW136867   1.248  14.237   8.016
44990SOL    HW236868   1.359  14.136   8.037
44991SOL     OW36869   9.991  14.315  12.218
44991SOL    HW136870   9.960  14.266  12.142
44991SOL    HW236871  10.085  14.324  12.204
44992SOL     OW36872  12.246  13.658  14.442
44992SOL    HW136873  12.256  13.688  14.533
44992SOL    HW236874  12.267  13.735  14.389
44993SOL     OW36875  12.214   7.415   1.807
44993SOL    HW136876  12.290   7.404   1.864
44993SOL    HW236877  12.140   7.383   1.859
44994SOL     OW36878   3.213   0.793   7.482
44994SOL    HW136879   3.208   0.830   7.394
44994SOL    HW236880   3.122   0.773   7.504
44995SOL     OW36881   1.595   5.705  14.323
44995SOL    HW136882   1.549   5.785  14.348
44995SOL    HW236883   1.617   5.663  14.407
44996SOL     OW36884   3.386   9.595   6.169
44996SOL    HW136885   3.304   9.592   6.120
44996SOL    HW236886   3.442   9.532   6.124
44997SOL     OW36887   4.910  13.583   9.779
44997SOL    HW136888   4.817  13.602   9.782
44997SOL    HW236889   4.917  13.507   9.720
44998SOL     OW36890   0.955   1.433   2.483
44998SOL    HW136891   0.968   1.339   2.472
44998SOL    HW236892   0.929   1.464   2.396
44999SOL     OW36893  10.337  11.197  14.142
44999SOL    HW136894  10.415  11.236  14.103
44999SOL    HW236895  10.304  11.136  14.076
45000SOL     OW36896   2.415  14.826   8.881
45000SOL    HW136897   2.330  14.804   8.919
45000SOL    HW236898   2.430   0.035   8.908
45001SOL     OW36899   9.963  13.782   5.728
45001SOL    HW136900   9.944  13.875   5.718
45001SOL    HW236901   9.899  13.738   5.671
45002SOL     OW36902   2.868  10.092  10.568
45002SOL    HW136903   2.848  10.113  10.660
45002SOL    HW236904   2.820  10.158  10.518
45003SOL     OW36905   9.770  14.794  14.781
45003SOL    HW136906   9.735  14.843  14.855
45003SOL    HW236907   9.862  14.822  14.776
45004SOL     OW36908  13.282  12.981  10.788
45004SOL    HW136909  13.358  12.954  10.737
45004SOL    HW236910  13.209  12.977  10.727
45005SOL     OW36911   4.076   5.622   2.895
45005SOL    HW136912   4.139   5.550   2.901
45005SOL    HW236913   3.997   5.588   2.937
45006SOL     OW36914   9.141   0.563   0.288
45006SOL    HW136915   9.111   0.510   0.214
45006SOL    HW236916   9.128   0.654   0.259
45007SOL     OW36917  14.345  10.304  12.896
45007SOL    HW136918  14.260  10.298  12.852
45007SOL    HW236919  14.404  10.338  12.828
45008SOL     OW36920   7.596  13.241   5.171
45008SOL    HW136921   7.502  13.247   5.188
45008SOL    HW236922   7.625  13.167   5.225
45009SOL     OW36923   5.311   1.409   8.165
45009SOL    HW136924   5.339   1.489   8.121
45009SOL    HW236925   5.354   1.412   8.250
45010SOL     OW36926   7.122   2.680   8.154
45010SOL    HW136927   7.130   2.585   8.144
45010SOL    HW236928   7.211   2.711   8.169
45011SOL     OW36929  12.074   7.372   4.853
45011SOL    HW136930  12.017   7.393   4.778
45011SOL    HW236931  12.017   7.381   4.929
45012SOL     OW36932   2.362   8.750   4.465
45012SOL    HW136933   2.354   8.749   4.561
45012SOL    HW236934   2.279   8.787   4.435
45013SOL     OW36935   2.021   4.827   4.318
45013SOL    HW136936   1.998   4.750   4.266
45013SOL    HW236937   1.948   4.887   4.305
45014SOL     OW36938   1.804   4.831  14.478
45014SOL    HW136939   1.799   4.861  14.387
45014SOL    HW236940   1.716   4.844  14.512
45015SOL     OW36941   6.351   3.037  14.351
45015SOL    HW136942   6.423   3.003  14.403
45015SOL    HW236943   6.274   3.028  14.408
45016SOL     OW36944   3.973   3.023   7.116
45016SOL    HW136945   3.954   3.107   7.158
45016SOL    HW236946   3.887   2.986   7.098
45017SOL     OW36947  12.058  10.518   1.248
45017SOL    HW136948  12.023  10.555   1.167
45017SOL    HW236949  12.130  10.576   1.272
45018SOL     OW36950  12.994   7.323   4.350
45018SOL    HW136951  12.972   7.249   4.294
45018SOL    HW236952  13.081   7.350   4.321
45019SOL     OW36953  12.793   8.615  10.132
45019SOL    HW136954  12.884   8.587  10.134
45019SOL    HW236955  12.777   8.654  10.218
45020SOL     OW36956  13.022  10.210   2.904
45020SOL    HW136957  13.022  10.191   2.997
45020SOL    HW236958  13.104  10.175   2.871
45021SOL     OW36959   3.345  11.689   3.513
45021SOL    HW136960   3.422  11.637   3.537
45021SOL    HW236961   3.280  11.624   3.488
45022SOL     OW36962   3.540  14.452  13.936
45022SOL    HW136963   3.469  14.395  13.906
45022SOL    HW236964   3.563  14.418  14.022
45023SOL     OW36965   2.932   0.645   3.831
45023SOL    HW136966   2.901   0.554   3.828
45023SOL    HW236967   2.871   0.693   3.775
45024SOL     OW36968   6.503   5.767   3.347
45024SOL    HW136969   6.429   5.809   3.391
45024SOL    HW236970   6.482   5.674   3.347
45025SOL     OW36971   2.397   4.573   2.153
45025SOL    HW136972   2.364   4.622   2.078
45025SOL    HW236973   2.361   4.618   2.229
45026SOL     OW36974   1.128   3.697  10.821
45026SOL    HW136975   1.109   3.788  10.844
45026SOL    HW236976   1.127   3.651  10.905
45027SOL     OW36977   1.636  10.023   5.165
45027SOL    HW136978   1.606  10.069   5.087
45027SOL    HW236979   1.645   9.932   5.137
45028SOL     OW36980  10.014   8.454   8.141
45028SOL    HW136981  10.104   8.427   8.125
45028SOL    HW236982   9.989   8.501   8.061
45029SOL     OW36983   3.421   3.588  11.384
45029SOL    HW136984   3.367   3.665  11.364
45029SOL    HW236985   3.364   3.531  11.434
45030SOL     OW36986   8.102  14.170  11.355
45030SOL    HW136987   8.185  14.210  11.384
45030SOL    HW236988   8.035  14.231  11.385
45031SOL     OW36989   9.381  14.778   6.543
45031SOL    HW136990   9.290  14.808   6.533
45031SOL    HW236991   9.392  14.712   6.475
45032SOL     OW36992  10.356   8.627   3.824
45032SOL    HW136993  10.379   8.587   3.740
45032SOL    HW236994  10.433   8.613   3.879
45033SOL     OW36995   1.068   2.704   9.270
45033SOL    HW136996   1.057   2.764   9.196
45033SOL    HW236997   1.137   2.745   9.324
45034SOL     OW36998   9.879   3.463   2.348
45034SOL    HW136999   9.880   3.530   2.417
45034SOL    HW237000   9.960   3.415   2.360
45035SOL     OW37001   4.676   2.840   0.855
45035SOL    HW137002   4.687   2.753   0.818
45035SOL    HW237003   4.586   2.864   0.832
45036SOL     OW37004   1.327   7.693   6.086
45036SOL    HW137005   1.304   7.786   6.088
45036SOL    HW237006   1.242   7.648   6.091
45037SOL     OW37007   4.183   0.355  10.733
45037SOL    HW137008   4.232   0.434  10.711
45037SOL    HW237009   4.249   0.291  10.758
45038SOL     OW37010  14.302   9.544   3.622
45038SOL    HW137011  14.362   9.476   3.654
45038SOL    HW237012  14.342   9.627   3.650
45039SOL     OW37013   1.551   1.589  13.581
45039SOL    HW137014   1.611   1.540  13.637
45039SOL    HW237015   1.499   1.521  13.536
45040SOL     OW37016   2.151   7.503   0.403
45040SOL    HW137017   2.198   7.445   0.463
45040SOL    HW237018   2.120   7.575   0.458
45041SOL     OW37019   5.933   2.490   1.737
45041SOL    HW137020   5.961   2.514   1.648
45041SOL    HW237021   5.877   2.562   1.765
45042SOL     OW37022  14.302   2.515  13.551
45042SOL    HW137023  14.324   2.499  13.643
45042SOL    HW237024  14.218   2.560  13.553
45043SOL     OW37025   2.241   7.523   2.152
45043SOL    HW137026   2.147   7.541   2.156
45043SOL    HW237027   2.276   7.592   2.097
45044SOL     OW37028   5.737   6.697   7.611
45044SOL    HW137029   5.783   6.758   7.668
45044SOL    HW237030   5.656   6.677   7.658
45045SOL     OW37031   2.877   2.032   4.482
45045SOL    HW137032   2.840   2.088   4.414
45045SOL    HW237033   2.840   1.945   4.463
45046SOL     OW37034  11.760   5.469   9.816
45046SOL    HW137035  11.717   5.552   9.795
45046SOL    HW237036  11.795   5.483   9.903
45047SOL     OW37037   3.931   3.639  14.092
45047SOL    HW137038   3.901   3.729  14.109
45047SOL    HW237039   3.851   3.588  14.084
45048SOL     OW37040   4.677  11.934   0.527
45048SOL    HW137041   4.732  11.865   0.490
45048SOL    HW237042   4.739  11.992   0.571
45049SOL     OW37043   0.848   7.810   0.184
45049SOL    HW137044   0.898   7.734   0.214
45049SOL    HW237045   0.903   7.885   0.206
45050SOL     OW37046   7.112  13.299   7.793
45050SOL    HW137047   7.040  13.244   7.822
45050SOL    HW237048   7.070  13.368   7.741
45051SOL     OW37049  12.687   0.429   1.974
45051SOL    HW137050  12.617   0.458   1.915
45051SOL    HW237051  12.725   0.352   1.932
45052SOL     OW37052   0.284   2.576   2.608
45052SOL    HW137053   0.337   2.627   2.547
45052SOL    HW237054   0.194   2.601   2.589
45053SOL     OW37055   0.234   3.797   9.463
45053SOL    HW137056   0.236   3.892   9.459
45053SOL    HW237057   0.324   3.772   9.484
45054SOL     OW37058   7.960   5.371   0.522
45054SOL    HW137059   7.987   5.281   0.538
45054SOL    HW237060   8.039   5.423   0.538
45055SOL     OW37061  14.879  12.138   2.439
45055SOL    HW137062  14.818  12.100   2.376
45055SOL    HW237063   0.041  12.208   2.391
45056SOL     OW37064   3.030   0.276  13.485
45056SOL    HW137065   3.047   0.336  13.412
45056SOL    HW237066   2.935   0.282  13.498
45057SOL     OW37067   4.752   9.705  12.001
45057SOL    HW137068   4.754   9.797  11.973
45057SOL    HW237069   4.666   9.694  12.041
45058SOL     OW37070   4.176   6.981   6.916
45058SOL    HW137071   4.210   7.046   6.854
45058SOL    HW237072   4.107   6.936   6.867
45059SOL     OW37073   6.310  10.191   8.601
45059SOL    HW137074   6.260  10.262   8.642
45059SOL    HW237075   6.246  10.122   8.586
45060SOL     OW37076   3.267   4.497   7.914
45060SOL    HW137077   3.220   4.414   7.912
45060SOL    HW237078   3.305   4.501   8.002
45061SOL     OW37079  11.198   4.496  13.453
45061SOL    HW137080  11.229   4.474  13.541
45061SOL    HW237081  11.112   4.536  13.467
45062SOL     OW37082   7.843  14.346   0.384
45062SOL    HW137083   7.920  14.373   0.334
45062SOL    HW237084   7.787  14.301   0.320
45063SOL     OW37085   4.576   3.446   7.154
45063SOL    HW137086   4.487   3.478   7.137
45063SOL    HW237087   4.573   3.353   7.131
45064SOL     OW37088  11.360   8.810  13.877
45064SOL    HW137089  11.337   8.798  13.969
45064SOL    HW237090  11.362   8.721  13.841
45065SOL     OW37091  14.417   1.883  12.653
45065SOL    HW137092  14.391   1.828  12.579
45065SOL    HW237093  14.388   1.971  12.629
45066SOL     OW37094   3.264   4.772   6.471
45066SOL    HW137095   3.333   4.710   6.493
45066SOL    HW237096   3.186   4.717   6.461
45067SOL     OW37097   5.195   2.321   9.215
45067SOL    HW137098   5.188   2.327   9.310
45067SOL    HW237099   5.109   2.349   9.183
45068SOL     OW37100   4.621   6.779   8.195
45068SOL    HW137101   4.585   6.761   8.108
45068SOL    HW237102   4.562   6.844   8.233
45069SOL     OW37103   7.902   6.683   8.053
45069SOL    HW137104   7.956   6.754   8.089
45069SOL    HW237105   7.829   6.728   8.010
45070SOL     OW37106   1.351  10.084  13.010
45070SOL    HW137107   1.386  10.070  12.922
45070SOL    HW237108   1.349   9.996  13.048
45071SOL     OW37109  13.754   1.380   6.540
45071SOL    HW137110  13.679   1.328   6.568
45071SOL    HW237111  13.770   1.352   6.450
45072SOL     OW37112   8.026   7.609   2.953
45072SOL    HW137113   8.042   7.526   2.998
45072SOL    HW237114   8.090   7.610   2.881
45073SOL     OW37115   4.270   2.572   0.718
45073SOL    HW137116   4.266   2.630   0.793
45073SOL    HW237117   4.179   2.549   0.699
45074SOL     OW37118  14.270  11.995  10.572
45074SOL    HW137119  14.333  12.067  10.578
45074SOL    HW237120  14.324  11.916  10.569
45075SOL     OW37121   7.713   9.778  10.575
45075SOL    HW137122   7.663   9.857  10.552
45075SOL    HW237123   7.661   9.735  10.642
45076SOL     OW37124   0.679  12.133  10.102
45076SOL    HW137125   0.686  12.050  10.148
45076SOL    HW237126   0.612  12.181  10.149
45077SOL     OW37127  11.571   0.332   3.453
45077SOL    HW137128  11.570   0.411   3.398
45077SOL    HW237129  11.618   0.267   3.401
45078SOL     OW37130  14.401   0.693  12.029
45078SOL    HW137131  14.384   0.705  12.122
45078SOL    HW237132  14.359   0.610  12.007
45079SOL     OW37133  13.366  14.876   0.555
45079SOL    HW137134  13.443   0.043   0.583
45079SOL    HW237135  13.308   0.060   0.516
45080SOL     OW37136   6.918   8.623   8.730
45080SOL    HW137137   6.977   8.555   8.699
45080SOL    HW237138   6.870   8.582   8.803
45081SOL     OW37139  10.942  13.967   3.598
45081SOL    HW137140  11.036  13.951   3.592
45081SOL    HW237141  10.921  13.956   3.691
45082SOL     OW37142   0.160   6.493   8.384
45082SOL    HW137143   0.093   6.556   8.411
45082SOL    HW237144   0.129   6.459   8.300
45083SOL     OW37145   8.221   9.901   7.361
45083SOL    HW137146   8.220   9.859   7.447
45083SOL    HW237147   8.229   9.829   7.299
45084SOL     OW37148  13.879   7.342   6.092
45084SOL    HW137149  13.908   7.429   6.064
45084SOL    HW237150  13.795   7.357   6.134
45085SOL     OW37151   9.250   5.434  11.596
45085SOL    HW137152   9.309   5.396  11.531
45085SOL    HW237153   9.167   5.445  11.549
45086SOL     OW37154   2.162   2.663   0.672
45086SOL    HW137155   2.118   2.659   0.587
45086SOL    HW237156   2.255   2.655   0.650
45087SOL     OW37157   7.063  10.951   0.374
45087SOL    HW137158   7.154  10.924   0.374
45087SOL    HW237159   7.038  10.953   0.466
45088SOL     OW37160   1.188  12.064   1.828
45088SOL    HW137161   1.156  12.094   1.743
45088SOL    HW237162   1.203  11.970   1.817
45089SOL     OW37163   8.931   5.671  11.483
45089SOL    HW137164   8.960   5.580  11.486
45089SOL    HW237165   9.012   5.722  11.486
45090SOL     OW37166   3.096  10.224   8.950
45090SOL    HW137167   3.119  10.189   9.036
45090SOL    HW237168   3.165  10.194   8.892
45091SOL     OW37169   5.741   8.279   6.786
45091SOL    HW137170   5.783   8.363   6.767
45091SOL    HW237171   5.812   8.222   6.814
45092SOL     OW37172   2.139   8.851  11.423
45092SOL    HW137173   2.055   8.890  11.446
45092SOL    HW237174   2.204   8.909  11.462
45093SOL     OW37175   9.333  11.058   5.633
45093SOL    HW137176   9.296  11.064   5.721
45093SOL    HW237177   9.334  11.148   5.601
45094SOL     OW37178  10.520  12.539  12.765
45094SOL    HW137179  10.604  12.504  12.736
45094SOL    HW237180  10.517  12.627  12.729
45095SOL     OW37181   6.004  14.144   8.852
45095SOL    HW137182   6.083  14.095   8.873
45095SOL    HW237183   5.956  14.149   8.935
45096SOL     OW37184   5.089   8.957   0.632
45096SOL    HW137185   5.045   8.894   0.575
45096SOL    HW237186   5.063   8.932   0.720
45097SOL     OW37187   3.012  10.007   9.748
45097SOL    HW137188   2.992   9.954   9.825
45097SOL    HW237189   3.065   9.950   9.693
45098SOL     OW37190  13.558   1.960   8.316
45098SOL    HW137191  13.547   1.983   8.224
45098SOL    HW237192  13.536   1.867   8.320
45099SOL     OW37193   7.151  14.132  12.385
45099SOL    HW137194   7.138  14.076  12.309
45099SOL    HW237195   7.227  14.094  12.430
45100SOL     OW37196  14.393   1.786   6.074
45100SOL    HW137197  14.453   1.844   6.028
45100SOL    HW237198  14.438   1.766   6.157
45101SOL     OW37199   0.127  10.186  12.458
45101SOL    HW137200   0.179  10.110  12.430
45101SOL    HW237201   0.036  10.159  12.445
45102SOL     OW37202  13.563   7.362   1.566
45102SOL    HW137203  13.570   7.371   1.661
45102SOL    HW237204  13.498   7.428   1.541
45103SOL     OW37205  13.645   0.338   4.480
45103SOL    HW137206  13.572   0.321   4.541
45103SOL    HW237207  13.635   0.271   4.412
45104SOL     OW37208   1.278  11.640  12.427
45104SOL    HW137209   1.246  11.721  12.469
45104SOL    HW237210   1.203  11.581  12.431
45105SOL     OW37211   1.231   6.317   5.409
45105SOL    HW137212   1.307   6.294   5.356
45105SOL    HW237213   1.267   6.329   5.497
45106SOL     OW37214  12.502   9.328   7.807
45106SOL    HW137215  12.570   9.300   7.867
45106SOL    HW237216  12.470   9.411   7.842
45107SOL     OW37217   8.117  12.473  11.280
45107SOL    HW137218   8.045  12.473  11.217
45107SOL    HW237219   8.074  12.482  11.365
45108SOL     OW37220   7.568   4.840   6.213
45108SOL    HW137221   7.504   4.848   6.284
45108SOL    HW237222   7.555   4.920   6.162
45109SOL     OW37223  12.588   6.103   7.413
45109SOL    HW137224  12.588   6.028   7.472
45109SOL    HW237225  12.675   6.101   7.372
45110SOL     OW37226   4.207   4.190  14.549
45110SOL    HW137227   4.185   4.279  14.577
45110SOL    HW237228   4.302   4.192  14.536
45111SOL     OW37229  12.909  10.659  12.975
45111SOL    HW137230  13.000  10.635  12.994
45111SOL    HW237231  12.866  10.662  13.060
45112SOL     OW37232   7.466   6.497  13.719
45112SOL    HW137233   7.392   6.455  13.762
45112SOL    HW237234   7.431   6.525  13.634
45113SOL     OW37235  14.215   2.827   9.365
45113SOL    HW137236  14.190   2.793   9.279
45113SOL    HW237237  14.310   2.816   9.369
45114SOL     OW37238   6.125   2.280   8.365
45114SOL    HW137239   6.081   2.358   8.331
45114SOL    HW237240   6.144   2.301   8.457
45115SOL     OW37241   6.919   5.321  12.501
45115SOL    HW137242   6.936   5.403  12.548
45115SOL    HW237243   6.827   5.302  12.519
45116SOL     OW37244  13.002   9.086   3.859
45116SOL    HW137245  13.026   9.000   3.894
45116SOL    HW237246  12.932   9.067   3.796
45117SOL     OW37247   5.038  11.025   2.296
45117SOL    HW137248   4.974  11.064   2.237
45117SOL    HW237249   5.071  10.949   2.249
45118SOL     OW37250  12.955   7.162   0.466
45118SOL    HW137251  12.888   7.135   0.528
45118SOL    HW237252  13.007   7.083   0.452
45119SOL     OW37253  11.455   3.702   6.753
45119SOL    HW137254  11.449   3.606   6.759
45119SOL    HW237255  11.489   3.729   6.839
45120SOL     OW37256   8.756   1.908  11.784
45120SOL    HW137257   8.801   1.855  11.850
45120SOL    HW237258   8.791   1.996  11.795
45121SOL     OW37259   2.002   2.331  13.175
45121SOL    HW137260   2.034   2.363  13.259
45121SOL    HW237261   1.927   2.387  13.155
45122SOL     OW37262  14.569   9.983   1.585
45122SOL    HW137263  14.627   9.955   1.656
45122SOL    HW237264  14.592  10.075   1.570
45123SOL     OW37265   3.166   9.437   6.888
45123SOL    HW137266   3.139   9.408   6.975
45123SOL    HW237267   3.247   9.486   6.903
45124SOL     OW37268   9.264   2.104   8.150
45124SOL    HW137269   9.173   2.101   8.182
45124SOL    HW237270   9.311   2.042   8.205
45125SOL     OW37271   1.469   8.942  12.976
45125SOL    HW137272   1.465   9.033  12.949
45125SOL    HW237273   1.561   8.917  12.967
45126SOL     OW37274   8.343  11.195  12.013
45126SOL    HW137275   8.265  11.184  12.068
45126SOL    HW237276   8.314  11.167  11.926
45127SOL     OW37277   2.012   9.999  14.056
45127SOL    HW137278   2.095   9.963  14.024
45127SOL    HW237279   2.006   9.968  14.146
45128SOL     OW37280   2.119   3.122  13.173
45128SOL    HW137281   2.186   3.089  13.115
45128SOL    HW237282   2.036   3.104  13.128
45129SOL     OW37283   7.502  12.502  14.666
45129SOL    HW137284   7.424  12.521  14.613
45129SOL    HW237285   7.549  12.435  14.617
45130SOL     OW37286   8.396  12.334   5.676
45130SOL    HW137287   8.450  12.353   5.752
45130SOL    HW237288   8.442  12.375   5.603
45131SOL     OW37289  10.850  13.934   5.542
45131SOL    HW137290  10.809  13.979   5.468
45131SOL    HW237291  10.881  14.005   5.599
45132SOL     OW37292   3.970   9.846   9.203
45132SOL    HW137293   3.973   9.838   9.298
45132SOL    HW237294   3.885   9.810   9.179
45133SOL     OW37295   2.451   9.888  10.448
45133SOL    HW137296   2.434   9.906  10.356
45133SOL    HW237297   2.383   9.936  10.495
45134SOL     OW37298  12.886   5.676   6.645
45134SOL    HW137299  12.927   5.606   6.595
45134SOL    HW237300  12.793   5.654   6.645
45135SOL     OW37301   4.096  12.709   2.123
45135SOL    HW137302   4.064  12.623   2.151
45135SOL    HW237303   4.110  12.700   2.029
45136SOL     OW37304   2.626   1.022  12.716
45136SOL    HW137305   2.622   1.108  12.760
45136SOL    HW237306   2.644   0.960  12.787
45137SOL     OW37307   2.065  13.423   8.724
45137SOL    HW137308   2.102  13.389   8.806
45137SOL    HW237309   2.089  13.358   8.658
45138SOL     OW37310   7.701   2.881  11.370
45138SOL    HW137311   7.690   2.928  11.453
45138SOL    HW237312   7.723   2.949  11.306
45139SOL     OW37313  14.148   6.961  13.557
45139SOL    HW137314  14.182   6.916  13.480
45139SOL    HW237315  14.094   7.032  13.521
45140SOL     OW37316   9.583   2.985  12.704
45140SOL    HW137317   9.544   2.988  12.792
45140SOL    HW237318   9.565   3.071  12.667
45141SOL     OW37319  14.161   1.085   6.913
45141SOL    HW137320  14.116   1.158   6.870
45141SOL    HW237321  14.228   1.058   6.850
45142SOL     OW37322   3.364   7.567  12.298
45142SOL    HW137323   3.441   7.551  12.244
45142SOL    HW237324   3.390   7.639  12.356
45143SOL     OW37325   2.500   3.445  14.706
45143SOL    HW137326   2.565   3.492  14.654
45143SOL    HW237327   2.417   3.459  14.659
45144SOL     OW37328   0.876   0.529  12.255
45144SOL    HW137329   0.848   0.572  12.174
45144SOL    HW237330   0.958   0.485  12.231
45145SOL     OW37331   8.867   4.061   3.121
45145SOL    HW137332   8.917   4.039   3.042
45145SOL    HW237333   8.934   4.075   3.188
45146SOL     OW37334   8.642  13.032  10.581
45146SOL    HW137335   8.690  12.953  10.556
45146SOL    HW237336   8.550  13.010  10.569
45147SOL     OW37337  13.910   8.213   0.325
45147SOL    HW137338  13.903   8.297   0.281
45147SOL    HW237339  14.003   8.202   0.344
45148SOL     OW37340  13.566   9.043   9.363
45148SOL    HW137341  13.484   9.000   9.390
45148SOL    HW237342  13.621   9.039   9.441
45149SOL     OW37343   6.746   7.100   9.109
45149SOL    HW137344   6.660   7.095   9.067
45149SOL    HW237345   6.808   7.073   9.041
45150SOL     OW37346   4.566   9.044   2.066
45150SOL    HW137347   4.578   8.978   1.998
45150SOL    HW237348   4.516   9.000   2.134
45151SOL     OW37349   4.299  12.603   5.119
45151SOL    HW137350   4.318  12.664   5.190
45151SOL    HW237351   4.211  12.625   5.090
45152SOL     OW37352  10.888   6.450   1.361
45152SOL    HW137353  10.823   6.485   1.422
45152SOL    HW237354  10.941   6.526   1.336
45153SOL     OW37355   7.410  11.364  10.294
45153SOL    HW137356   7.371  11.334  10.377
45153SOL    HW237357   7.380  11.299  10.230
45154SOL     OW37358   2.683   7.285   3.628
45154SOL    HW137359   2.631   7.325   3.558
45154SOL    HW237360   2.621   7.272   3.699
45155SOL     OW37361   9.861  12.436  11.743
45155SOL    HW137362   9.776  12.399  11.767
45155SOL    HW237363   9.903  12.455  11.827
45156SOL     OW37364   9.814   4.430   5.778
45156SOL    HW137365   9.760   4.363   5.734
45156SOL    HW237366   9.896   4.384   5.799
45157SOL     OW37367   8.315  14.643   9.779
45157SOL    HW137368   8.265  14.664   9.700
45157SOL    HW237369   8.389  14.704   9.778
45158SOL     OW37370  10.581   8.613   3.970
45158SOL    HW137371  10.641   8.641   3.901
45158SOL    HW237372  10.623   8.644   4.051
45159SOL     OW37373   5.518   3.447   0.960
45159SOL    HW137374   5.442   3.476   0.909
45159SOL    HW237375   5.584   3.515   0.946
45160SOL     OW37376   7.333   1.182   7.025
45160SOL    HW137377   7.345   1.153   6.935
45160SOL    HW237378   7.367   1.110   7.078
45161SOL     OW37379   2.781  11.383   6.500
45161SOL    HW137380   2.712  11.381   6.434
45161SOL    HW237381   2.738  11.413   6.580
45162SOL     OW37382   2.696   8.978  12.336
45162SOL    HW137383   2.652   8.956  12.254
45162SOL    HW237384   2.674   8.906  12.395
45163SOL     OW37385  13.987   6.314  11.671
45163SOL    HW137386  13.942   6.235  11.641
45163SOL    HW237387  13.924   6.359  11.726
45164SOL     OW37388   7.776  14.345  10.849
45164SOL    HW137389   7.712  14.415  10.862
45164SOL    HW237390   7.849  14.387  10.804
45165SOL     OW37391  12.866  13.976   6.328
45165SOL    HW137392  12.953  14.008   6.305
45165SOL    HW237393  12.882  13.914   6.399
45166SOL     OW37394  14.190   6.177  14.313
45166SOL    HW137395  14.134   6.148  14.241
45166SOL    HW237396  14.159   6.128  14.389
45167SOL     OW37397  13.744   7.385   9.079
45167SOL    HW137398  13.804   7.425   9.142
45167SOL    HW237399  13.719   7.301   9.119
45168SOL     OW37400   1.804  11.289   3.707
45168SOL    HW137401   1.759  11.247   3.634
45168SOL    HW237402   1.744  11.358   3.736
45169SOL     OW37403  13.780   0.322   5.303
45169SOL    HW137404  13.715   0.264   5.342
45169SOL    HW237405  13.863   0.277   5.314
45170SOL     OW37406  14.173   6.368   4.952
45170SOL    HW137407  14.101   6.427   4.930
45170SOL    HW237408  14.252   6.419   4.934
45171SOL     OW37409   0.399   5.593  14.048
45171SOL    HW137410   0.446   5.673  14.025
45171SOL    HW237411   0.425   5.576  14.139
45172SOL     OW37412   4.342   3.863   0.260
45172SOL    HW137413   4.278   3.795   0.240
45172SOL    HW237414   4.425   3.816   0.267
45173SOL     OW37415   1.817   4.647   6.640
45173SOL    HW137416   1.838   4.673   6.551
45173SOL    HW237417   1.805   4.552   6.636
45174SOL     OW37418  10.829   2.490   2.541
45174SOL    HW137419  10.816   2.405   2.582
45174SOL    HW237420  10.865   2.545   2.611
45175SOL     OW37421   6.538   4.343   7.174
45175SOL    HW137422   6.500   4.304   7.095
45175SOL    HW237423   6.545   4.270   7.235
45176SOL     OW37424   3.126   5.582   9.701
45176SOL    HW137425   3.196   5.536   9.654
45176SOL    HW237426   3.045   5.541   9.669
45177SOL     OW37427   1.157   5.215  10.551
45177SOL    HW137428   1.250   5.195  10.564
45177SOL    HW237429   1.154   5.311  10.545
45178SOL     OW37430  13.725  13.656  14.647
45178SOL    HW137431  13.737  13.726  14.711
45178SOL    HW237432  13.768  13.580  14.687
45179SOL     OW37433   9.661   0.079   1.518
45179SOL    HW137434   9.741   0.060   1.567
45179SOL    HW237435   9.683   0.058   1.427
45180SOL     OW37436   0.805   2.145  10.454
45180SOL    HW137437   0.773   2.235  10.443
45180SOL    HW237438   0.780   2.101  10.373
45181SOL     OW37439  13.942  10.372   9.129
45181SOL    HW137440  13.980  10.338   9.210
45181SOL    HW237441  13.971  10.311   9.061
45182SOL     OW37442  10.237   7.607  11.425
45182SOL    HW137443  10.293   7.626  11.349
45182SOL    HW237444  10.217   7.514  11.417
45183SOL     OW37445   2.118  13.862  14.087
45183SOL    HW137446   2.023  13.867  14.096
45183SOL    HW237447   2.137  13.769  14.082
45184SOL     OW37448  12.752   3.671   7.665
45184SOL    HW137449  12.829   3.662   7.610
45184SOL    HW237450  12.684   3.704   7.606
45185SOL     OW37451  12.061   5.635   3.830
45185SOL    HW137452  12.149   5.596   3.828
45185SOL    HW237453  12.028   5.613   3.918
45186SOL     OW37454   5.755  10.465   4.658
45186SOL    HW137455   5.835  10.435   4.702
45186SOL    HW237456   5.689  10.400   4.683
45187SOL     OW37457   6.676   8.908   1.240
45187SOL    HW137458   6.744   8.952   1.190
45187SOL    HW237459   6.721   8.873   1.317
45188SOL     OW37460   8.552  10.760   2.204
45188SOL    HW137461   8.643  10.777   2.180
45188SOL    HW237462   8.509  10.846   2.198
45189SOL     OW37463   1.738   4.245   7.543
45189SOL    HW137464   1.777   4.168   7.584
45189SOL    HW237465   1.644   4.230   7.547
45190SOL     OW37466   9.387   5.942   3.532
45190SOL    HW137467   9.461   5.914   3.587
45190SOL    HW237468   9.330   5.990   3.591
45191SOL     OW37469   8.971   1.276   9.508
45191SOL    HW137470   8.899   1.214   9.509
45191SOL    HW237471   9.008   1.268   9.420
45192SOL     OW37472   3.608  11.557   3.550
45192SOL    HW137473   3.664  11.608   3.491
45192SOL    HW237474   3.584  11.480   3.498
45193SOL     OW37475   6.479   0.368   8.851
45193SOL    HW137476   6.479   0.300   8.918
45193SOL    HW237477   6.540   0.434   8.884
45194SOL     OW37478   8.507  13.088  12.164
45194SOL    HW137479   8.451  13.164  12.182
45194SOL    HW237480   8.478  13.057  12.078
45195SOL     OW37481  14.494   6.744  12.604
45195SOL    HW137482  14.464   6.687  12.533
45195SOL    HW237483  14.418   6.797  12.626
45196SOL     OW37484   6.259  13.000   9.081
45196SOL    HW137485   6.245  13.091   9.054
45196SOL    HW237486   6.228  12.949   9.007
45197SOL     OW37487   0.649   3.800   4.432
45197SOL    HW137488   0.690   3.852   4.501
45197SOL    HW237489   0.556   3.823   4.436
45198SOL     OW37490   7.763   6.114   5.340
45198SOL    HW137491   7.721   6.195   5.313
45198SOL    HW237492   7.844   6.110   5.288
45199SOL     OW37493  10.270  11.506  11.364
45199SOL    HW137494  10.260  11.580  11.305
45199SOL    HW237495  10.343  11.456  11.329
45200SOL     OW37496   2.875   1.553   2.926
45200SOL    HW137497   2.880   1.588   3.015
45200SOL    HW237498   2.840   1.465   2.936
45201SOL     OW37499   6.881   9.293   5.574
45201SOL    HW137500   6.877   9.221   5.510
45201SOL    HW237501   6.790   9.320   5.585
45202SOL     OW37502  10.325   3.350   0.788
45202SOL    HW137503  10.302   3.348   0.695
45202SOL    HW237504  10.270   3.282   0.827
45203SOL     OW37505   1.155   0.644  10.696
45203SOL    HW137506   1.124   0.559  10.729
45203SOL    HW237507   1.077   0.700  10.699
45204SOL     OW37508   7.982   8.506   7.483
45204SOL    HW137509   8.068   8.519   7.524
45204SOL    HW237510   8.000   8.506   7.389
45205SOL     OW37511   0.034   0.282  13.580
45205SOL    HW137512   0.076   0.202  13.613
45205SOL    HW237513  14.843   0.251  13.527
45206SOL     OW37514  13.828   7.999   4.039
45206SOL    HW137515  13.850   8.006   3.947
45206SOL    HW237516  13.732   8.005   4.041
45207SOL     OW37517   0.566   5.552   6.022
45207SOL    HW137518   0.485   5.603   6.027
45207SOL    HW237519   0.633   5.610   6.057
45208SOL     OW37520   7.558   6.270   4.062
45208SOL    HW137521   7.603   6.251   3.980
45208SOL    HW237522   7.492   6.335   4.040
45209SOL     OW37523  11.984  13.001   6.276
45209SOL    HW137524  11.958  13.085   6.315
45209SOL    HW237525  12.080  13.002   6.279
45210SOL     OW37526   7.849   3.621   1.050
45210SOL    HW137527   7.814   3.704   1.018
45210SOL    HW237528   7.772   3.569   1.072
45211SOL     OW37529   1.993   3.005   5.088
45211SOL    HW137530   2.072   3.050   5.058
45211SOL    HW237531   1.925   3.072   5.084
45212SOL     OW37532   1.729   9.664   0.031
45212SOL    HW137533   1.770   9.700   0.109
45212SOL    HW237534   1.681   9.738  14.874
45213SOL     OW37535  10.470  10.754   3.766
45213SOL    HW137536  10.403  10.801   3.816
45213SOL    HW237537  10.463  10.664   3.797
45214SOL     OW37538  14.810  14.506   0.345
45214SOL    HW137539   0.021  14.513   0.363
45214SOL    HW237540  14.769  14.570   0.403
45215SOL     OW37541   4.270   9.419  10.151
45215SOL    HW137542   4.214   9.490  10.182
45215SOL    HW237543   4.353   9.431  10.198
45216SOL     OW37544   4.240   7.030   5.326
45216SOL    HW137545   4.328   7.063   5.310
45216SOL    HW237546   4.183   7.107   5.316
45217SOL     OW37547   1.265   2.437   9.673
45217SOL    HW137548   1.184   2.417   9.719
45217SOL    HW237549   1.314   2.491   9.734
45218SOL     OW37550   3.616  11.469   6.819
45218SOL    HW137551   3.602  11.393   6.763
45218SOL    HW237552   3.608  11.544   6.760
45219SOL     OW37553   9.569   6.817   6.653
45219SOL    HW137554   9.610   6.731   6.666
45219SOL    HW237555   9.521   6.808   6.571
45220SOL     OW37556   3.309  13.303  14.837
45220SOL    HW137557   3.346  13.267   0.035
45220SOL    HW237558   3.329  13.237  14.770
45221SOL     OW37559   6.097   5.203   8.017
45221SOL    HW137560   6.103   5.235   8.107
45221SOL    HW237561   6.003   5.204   7.998
45222SOL     OW37562   3.976  14.296  14.702
45222SOL    HW137563   4.050  14.334  14.750
45222SOL    HW237564   4.014  14.220  14.657
45223SOL     OW37565  11.473   4.120   3.306
45223SOL    HW137566  11.510   4.139   3.220
45223SOL    HW237567  11.378   4.120   3.292
45224SOL     OW37568  10.568  11.329   9.058
45224SOL    HW137569  10.616  11.410   9.077
45224SOL    HW237570  10.625  11.281   8.998
45225SOL     OW37571   4.608   1.133   8.743
45225SOL    HW137572   4.614   1.223   8.774
45225SOL    HW237573   4.514   1.117   8.732
45226SOL     OW37574  12.589   6.252   0.723
45226SOL    HW137575  12.569   6.341   0.697
45226SOL    HW237576  12.523   6.230   0.789
45227SOL     OW37577   4.763  12.856   2.119
45227SOL    HW137578   4.821  12.794   2.075
45227SOL    HW237579   4.678  12.842   2.079
45228SOL     OW37580  11.419   9.665   8.601
45228SOL    HW137581  11.452   9.596   8.658
45228SOL    HW237582  11.324   9.663   8.613
45229SOL     OW37583   9.379   8.919  14.187
45229SOL    HW137584   9.380   8.992  14.125
45229SOL    HW237585   9.288   8.891  14.189
45230SOL     OW37586   0.407   0.129   1.966
45230SOL    HW137587   0.356   0.210   1.973
45230SOL    HW237588   0.448   0.133   1.880
45231SOL     OW37589  14.368   6.577  11.170
45231SOL    HW137590  14.329   6.659  11.200
45231SOL    HW237591  14.422   6.548  11.244
45232SOL     OW37592  10.377  13.376   1.796
45232SOL    HW137593  10.424  13.356   1.877
45232SOL    HW237594  10.285  13.374   1.821
45233SOL     OW37595  10.828   2.118  11.106
45233SOL    HW137596  10.916   2.143  11.133
45233SOL    HW237597  10.834   2.105  11.012
45234SOL     OW37598   6.767   8.172   0.289
45234SOL    HW137599   6.841   8.202   0.343
45234SOL    HW237600   6.715   8.251   0.275
45235SOL     OW37601   1.580   4.813  10.818
45235SOL    HW137602   1.604   4.902  10.793
45235SOL    HW237603   1.497   4.823  10.865
45236SOL     OW37604   6.562   5.245   2.687
45236SOL    HW137605   6.491   5.186   2.660
45236SOL    HW237606   6.560   5.315   2.622
45237SOL     OW37607  14.743  10.487  13.299
45237SOL    HW137608  14.811  10.553  13.281
45237SOL    HW237609  14.687  10.490  13.222
45238SOL     OW37610   0.282   9.191   5.155
45238SOL    HW137611   0.303   9.281   5.180
45238SOL    HW237612   0.306   9.138   5.232
45239SOL     OW37613   8.575  12.968   4.923
45239SOL    HW137614   8.669  12.966   4.904
45239SOL    HW237615   8.539  12.896   4.870
45240SOL     OW37616   6.411   9.377  13.231
45240SOL    HW137617   6.466   9.347  13.159
45240SOL    HW237618   6.322   9.373  13.197
45241SOL     OW37619   0.858  10.849  11.973
45241SOL    HW137620   0.932  10.843  12.034
45241SOL    HW237621   0.799  10.778  12.000
45242SOL     OW37622  11.982   2.362   8.437
45242SOL    HW137623  11.890   2.343   8.417
45242SOL    HW237624  11.993   2.336   8.528
45243SOL     OW37625   5.754  11.356   4.594
45243SOL    HW137626   5.774  11.292   4.526
45243SOL    HW237627   5.703  11.424   4.549
45244SOL     OW37628  12.647  13.147  13.405
45244SOL    HW137629  12.659  13.191  13.320
45244SOL    HW237630  12.567  13.096  13.394
45245SOL     OW37631   6.034   2.951   1.615
45245SOL    HW137632   6.072   2.866   1.595
45245SOL    HW237633   6.006   2.944   1.706
45246SOL     OW37634  13.138   6.111   3.384
45246SOL    HW137635  13.148   6.079   3.294
45246SOL    HW237636  13.156   6.035   3.439
45247SOL     OW37637   9.934  14.645  12.902
45247SOL    HW137638   9.914  14.568  12.849
45247SOL    HW237639   9.957  14.713  12.839
45248SOL     OW37640   4.633   2.833   8.810
45248SOL    HW137641   4.699   2.815   8.877
45248SOL    HW237642   4.551   2.837   8.860
45249SOL     OW37643   1.282   4.784   8.165
45249SOL    HW137644   1.250   4.857   8.112
45249SOL    HW237645   1.237   4.794   8.249
45250SOL     OW37646   6.525   0.694   5.387
45250SOL    HW137647   6.451   0.650   5.345
45250SOL    HW237648   6.602   0.658   5.344
45251SOL     OW37649   1.982   8.349   9.322
45251SOL    HW137650   2.051   8.309   9.269
45251SOL    HW237651   2.026   8.373   9.403
45252SOL     OW37652   9.209   3.354   3.088
45252SOL    HW137653   9.178   3.381   3.174
45252SOL    HW237654   9.201   3.258   3.088
45253SOL     OW37655  10.296   2.544   8.391
45253SOL    HW137656  10.327   2.572   8.477
45253SOL    HW237657  10.376   2.539   8.338
45254SOL     OW37658   3.289   6.572  11.226
45254SOL    HW137659   3.284   6.601  11.135
45254SOL    HW237660   3.317   6.481  11.221
45255SOL     OW37661  10.276   9.317   0.975
45255SOL    HW137662  10.252   9.345   1.063
45255SOL    HW237663  10.200   9.338   0.921
45256SOL     OW37664  11.581   5.284  10.878
45256SOL    HW137665  11.643   5.331  10.821
45256SOL    HW237666  11.574   5.197  10.839
45257SOL     OW37667  11.852   0.051  12.637
45257SOL    HW137668  11.913   0.102  12.690
45257SOL    HW237669  11.856  14.845  12.675
45258SOL     OW37670   6.292  12.575  11.827
45258SOL    HW137671   6.303  12.552  11.735
45258SOL    HW237672   6.327  12.501  11.876
45259SOL     OW37673   6.094   2.845   6.931
45259SOL    HW137674   6.170   2.840   6.990
45259SOL    HW237675   6.070   2.754   6.915
45260SOL     OW37676   3.225  12.011  14.692
45260SOL    HW137677   3.302  11.954  14.698
45260SOL    HW237678   3.222  12.057  14.775
45261SOL     OW37679   0.884  10.384  14.555
45261SOL    HW137680   0.883  10.322  14.628
45261SOL    HW237681   0.797  10.424  14.555
45262SOL     OW37682   9.786  14.666   0.794
45262SOL    HW137683   9.790  14.666   0.890
45262SOL    HW237684   9.877  14.657   0.766
45263SOL     OW37685  11.619   8.379   4.312
45263SOL    HW137686  11.646   8.446   4.376
45263SOL    HW237687  11.606   8.300   4.365
45264SOL     OW37688   4.912  11.457   0.908
45264SOL    HW137689   4.973  11.454   0.834
45264SOL    HW237690   4.948  11.395   0.971
45265SOL     OW37691   5.502   8.764   0.010
45265SOL    HW137692   5.502   8.747   0.104
45265SOL    HW237693   5.501   8.677  14.852
45266SOL     OW37694   1.984  13.211  14.590
45266SOL    HW137695   2.072  13.179  14.612
45266SOL    HW237696   1.938  13.213  14.674
45267SOL     OW37697  12.761   9.635   4.987
45267SOL    HW137698  12.734   9.602   4.902
45267SOL    HW237699  12.681   9.669   5.027
45268SOL     OW37700   7.524   2.688  10.642
45268SOL    HW137701   7.448   2.636  10.666
45268SOL    HW237702   7.489   2.775  10.621
45269SOL     OW37703   8.227  14.131  12.116
45269SOL    HW137704   8.277  14.122  12.035
45269SOL    HW237705   8.205  14.224  12.120
45270SOL     OW37706  13.233   3.072   5.508
45270SOL    HW137707  13.224   3.113   5.594
45270SOL    HW237708  13.148   3.032   5.492
45271SOL     OW37709   7.678   0.584   7.988
45271SOL    HW137710   7.668   0.489   7.979
45271SOL    HW237711   7.685   0.598   8.082
45272SOL     OW37712   7.056   4.249   1.381
45272SOL    HW137713   7.014   4.302   1.313
45272SOL    HW237714   7.000   4.172   1.389
45273SOL     OW37715   3.362   5.804   5.335
45273SOL    HW137716   3.377   5.890   5.294
45273SOL    HW237717   3.446   5.758   5.325
45274SOL     OW37718   0.475   9.572   5.395
45274SOL    HW137719   0.520   9.491   5.420
45274SOL    HW237720   0.546   9.631   5.369
45275SOL     OW37721   1.996  13.603  12.491
45275SOL    HW137722   1.951  13.564  12.417
45275SOL    HW237723   2.007  13.531  12.554
45276SOL     OW37724   6.506   7.356   8.996
45276SOL    HW137725   6.456   7.382   8.918
45276SOL    HW237726   6.469   7.409   9.067
45277SOL     OW37727   3.881   1.437   1.381
45277SOL    HW137728   3.811   1.434   1.317
45277SOL    HW237729   3.904   1.530   1.387
45278SOL     OW37730   7.625  11.386   5.946
45278SOL    HW137731   7.630  11.371   6.041
45278SOL    HW237732   7.690  11.326   5.910
45279SOL     OW37733   2.675   9.590   3.316
45279SOL    HW137734   2.649   9.666   3.264
45279SOL    HW237735   2.662   9.516   3.257
45280SOL     OW37736   3.770   3.940   9.868
45280SOL    HW137737   3.731   3.904   9.788
45280SOL    HW237738   3.796   4.029   9.844
45281SOL     OW37739   0.575   2.220   2.086
45281SOL    HW137740   0.584   2.125   2.086
45281SOL    HW237741   0.597   2.246   2.175
45282SOL     OW37742  10.075  10.776   0.197
45282SOL    HW137743  10.165  10.795   0.172
45282SOL    HW237744  10.025  10.853   0.170
45283SOL     OW37745  10.880  11.891   0.316
45283SOL    HW137746  10.852  11.925   0.231
45283SOL    HW237747  10.912  11.803   0.297
45284SOL     OW37748   7.947   3.329  14.713
45284SOL    HW137749   8.042   3.332  14.699
45284SOL    HW237750   7.920   3.246  14.673
45285SOL     OW37751   0.729   9.077   5.088
45285SOL    HW137752   0.746   9.055   4.996
45285SOL    HW237753   0.724   9.172   5.090
45286SOL     OW37754  12.222   1.738  14.660
45286SOL    HW137755  12.163   1.813  14.668
45286SOL    HW237756  12.199   1.682  14.735
45287SOL     OW37757  12.601   1.960   2.029
45287SOL    HW137758  12.612   2.031   1.966
45287SOL    HW237759  12.534   1.904   1.990
45288SOL     OW37760   4.338   5.793   2.384
45288SOL    HW137761   4.339   5.734   2.308
45288SOL    HW237762   4.412   5.851   2.369
45289SOL     OW37763   5.949   3.286   5.918
45289SOL    HW137764   5.857   3.279   5.892
45289SOL    HW237765   5.990   3.337   5.848
45290SOL     OW37766  14.290   2.576   7.946
45290SOL    HW137767  14.229   2.625   7.891
45290SOL    HW237768  14.241   2.498   7.973
45291SOL     OW37769   8.802   1.704   6.373
45291SOL    HW137770   8.809   1.614   6.339
45291SOL    HW237771   8.719   1.704   6.421
45292SOL     OW37772  10.243   0.354  14.593
45292SOL    HW137773  10.239   0.259  14.579
45292SOL    HW237774  10.333   0.370  14.623
45293SOL     OW37775  10.685  13.404   2.389
45293SOL    HW137776  10.751  13.409   2.320
45293SOL    HW237777  10.698  13.484   2.440
45294SOL     OW37778  10.522   4.874  11.680
45294SOL    HW137779  10.590   4.807  11.672
45294SOL    HW237780  10.471   4.866  11.599
45295SOL     OW37781   4.327   2.707  11.794
45295SOL    HW137782   4.415   2.743  11.806
45295SOL    HW237783   4.337   2.644  11.723
45296SOL     OW37784   1.345  11.613  14.209
45296SOL    HW137785   1.256  11.581  14.219
45296SOL    HW237786   1.397  11.559  14.269
45297SOL     OW37787   7.413  10.658   8.599
45297SOL    HW137788   7.401  10.727   8.535
45297SOL    HW237789   7.327  10.645   8.639
45298SOL     OW37790   0.320   3.346  13.856
45298SOL    HW137791   0.308   3.386  13.770
45298SOL    HW237792   0.315   3.420  13.917
45299SOL     OW37793  12.876  13.600  10.610
45299SOL    HW137794  12.847  13.553  10.688
45299SOL    HW237795  12.798  13.645  10.578
45300SOL     OW37796  13.496  11.942  14.453
45300SOL    HW137797  13.417  11.966  14.405
45300SOL    HW237798  13.558  11.916  14.386
45301SOL     OW37799   2.556   9.677   4.557
45301SOL    HW137800   2.611   9.604   4.529
45301SOL    HW237801   2.545   9.664   4.651
45302SOL     OW37802   5.766   1.416   0.676
45302SOL    HW137803   5.671   1.428   0.680
45302SOL    HW237804   5.784   1.343   0.735
45303SOL     OW37805   7.382   1.048   2.080
45303SOL    HW137806   7.471   1.035   2.115
45303SOL    HW237807   7.368   0.972   2.024
45304SOL     OW37808   4.564   4.152   7.660
45304SOL    HW137809   4.481   4.187   7.692
45304SOL    HW237810   4.571   4.186   7.571
45305SOL     OW37811   6.802   0.455   1.716
45305SOL    HW137812   6.813   0.361   1.729
45305SOL    HW237813   6.747   0.462   1.638
45306SOL     OW37814  14.816   2.531   2.281
45306SOL    HW137815  14.813   2.533   2.186
45306SOL    HW237816   0.021   2.497   2.302
45307SOL     OW37817  10.519   4.574   6.737
45307SOL    HW137818  10.565   4.539   6.814
45307SOL    HW237819  10.433   4.600   6.771
45308SOL     OW37820  13.617   6.843  11.702
45308SOL    HW137821  13.646   6.850  11.793
45308SOL    HW237822  13.533   6.888  11.699
45309SOL     OW37823  12.516   4.158   7.938
45309SOL    HW137824  12.559   4.072   7.936
45309SOL    HW237825  12.446   4.147   8.002
45310SOL     OW37826   9.860   8.456   9.092
45310SOL    HW137827   9.860   8.476   9.185
45310SOL    HW237828   9.799   8.519   9.054
45311SOL     OW37829   8.905   4.637   4.249
45311SOL    HW137830   8.823   4.661   4.205
45311SOL    HW237831   8.924   4.549   4.218
45312SOL     OW37832  11.729   2.816   6.827
45312SOL    HW137833  11.640   2.842   6.851
45312SOL    HW237834  11.782   2.894   6.846
45313SOL     OW37835   0.066   3.349  14.262
45313SOL    HW137836   0.043   3.437  14.231
45313SOL    HW237837   0.089   3.301  14.182
45314SOL     OW37838  12.885   1.394   8.656
45314SOL    HW137839  12.838   1.314   8.676
45314SOL    HW237840  12.977   1.369   8.656
45315SOL     OW37841   8.420   4.001   3.986
45315SOL    HW137842   8.438   4.037   3.900
45315SOL    HW237843   8.486   4.039   4.043
45316SOL     OW37844  11.607  13.866   1.648
45316SOL    HW137845  11.581  13.958   1.658
45316SOL    HW237846  11.541  13.817   1.697
45317SOL     OW37847  12.164  14.426   4.905
45317SOL    HW137848  12.125  14.352   4.858
45317SOL    HW237849  12.253  14.397   4.924
45318SOL     OW37850   0.097   9.286  12.325
45318SOL    HW137851   0.075   9.365  12.375
45318SOL    HW237852   0.030   9.222  12.350
45319SOL     OW37853   4.872   6.218   2.683
45319SOL    HW137854   4.779   6.203   2.667
45319SOL    HW237855   4.902   6.138   2.725
45320SOL     OW37856   9.012  13.824  12.797
45320SOL    HW137857   9.055  13.813  12.713
45320SOL    HW237858   8.980  13.914  12.796
45321SOL     OW37859   2.555   1.568   3.022
45321SOL    HW137860   2.470   1.527   3.005
45321SOL    HW237861   2.579   1.610   2.940
45322SOL     OW37862   0.377   7.015   5.249
45322SOL    HW137863   0.342   6.995   5.336
45322SOL    HW237864   0.319   6.967   5.188
45323SOL     OW37865  12.461   9.059   3.391
45323SOL    HW137866  12.370   9.030   3.393
45323SOL    HW237867  12.508   8.995   3.446
45324SOL     OW37868  11.756   3.848  14.687
45324SOL    HW137869  11.703   3.884  14.616
45324SOL    HW237870  11.776   3.923  14.743
45325SOL     OW37871  13.981   0.465   9.001
45325SOL    HW137872  14.033   0.489   9.077
45325SOL    HW237873  13.923   0.539   8.986
45326SOL     OW37874  14.126  11.380  10.389
45326SOL    HW137875  14.148  11.394  10.297
45326SOL    HW237876  14.197  11.325  10.422
45327SOL     OW37877  10.727   4.392   7.889
45327SOL    HW137878  10.777   4.388   7.971
45327SOL    HW237879  10.785   4.354   7.823
45328SOL     OW37880   1.300  13.357   5.435
45328SOL    HW137881   1.282  13.367   5.342
45328SOL    HW237882   1.382  13.308   5.438
45329SOL     OW37883   7.294   8.279   4.922
45329SOL    HW137884   7.214   8.250   4.878
45329SOL    HW237885   7.363   8.267   4.856
45330SOL     OW37886   2.321  11.247   3.197
45330SOL    HW137887   2.369  11.216   3.119
45330SOL    HW237888   2.232  11.262   3.165
45331SOL     OW37889   2.578  12.311   3.346
45331SOL    HW137890   2.628  12.239   3.384
45331SOL    HW237891   2.638  12.352   3.283
45332SOL     OW37892   8.569  12.873   5.682
45332SOL    HW137893   8.591  12.928   5.757
45332SOL    HW237894   8.641  12.886   5.621
45333SOL     OW37895   6.373  12.503   0.514
45333SOL    HW137896   6.427  12.439   0.560
45333SOL    HW237897   6.418  12.518   0.431
45334SOL     OW37898   2.856   6.428   7.252
45334SOL    HW137899   2.793   6.383   7.307
45334SOL    HW237900   2.938   6.426   7.302
45335SOL     OW37901   2.267  11.629   7.726
45335SOL    HW137902   2.334  11.580   7.680
45335SOL    HW237903   2.190  11.626   7.668
45336SOL     OW37904  12.019   6.816  11.600
45336SOL    HW137905  12.088   6.756  11.571
45336SOL    HW237906  11.939   6.779  11.563
45337SOL     OW37907   9.938   7.178  11.508
45337SOL    HW137908   9.851   7.181  11.549
45337SOL    HW237909   9.970   7.090  11.527
45338SOL     OW37910   7.017   6.896   8.016
45338SOL    HW137911   6.958   6.842   8.069
45338SOL    HW237912   7.042   6.968   8.073
45339SOL     OW37913  11.629  13.073   4.571
45339SOL    HW137914  11.653  13.157   4.533
45339SOL    HW237915  11.711  13.037   4.604
45340SOL     OW37916   0.198   4.797   6.928
45340SOL    HW137917   0.167   4.853   6.858
45340SOL    HW237918   0.285   4.831   6.950
45341SOL     OW37919   1.538   0.042   5.456
45341SOL    HW137920   1.577   0.129   5.447
45341SOL    HW237921   1.593  14.868   5.401
45342SOL     OW37922   6.835   4.590   5.927
45342SOL    HW137923   6.863   4.506   5.963
45342SOL    HW237924   6.750   4.571   5.886
45343SOL     OW37925   2.300   9.864  12.990
45343SOL    HW137926   2.223   9.864  12.932
45343SOL    HW237927   2.282   9.934  13.053
45344SOL     OW37928   4.927  11.032  14.044
45344SOL    HW137929   5.016  11.053  14.070
45344SOL    HW237930   4.875  11.045  14.123
45345SOL     OW37931  11.477   5.248   1.925
45345SOL    HW137932  11.396   5.285   1.891
45345SOL    HW237933  11.538   5.321   1.928
45346SOL     OW37934  11.692   8.364   6.112
45346SOL    HW137935  11.722   8.441   6.160
45346SOL    HW237936  11.679   8.297   6.179
45347SOL     OW37937  12.172  13.304   3.896
45347SOL    HW137938  12.253  13.254   3.893
45347SOL    HW237939  12.103  13.238   3.892
45348SOL     OW37940   4.293  13.123   9.406
45348SOL    HW137941   4.313  13.093   9.317
45348SOL    HW237942   4.236  13.055   9.441
45349SOL     OW37943  10.513   5.422  13.684
45349SOL    HW137944  10.494   5.503  13.732
45349SOL    HW237945  10.479   5.439  13.596
45350SOL     OW37946  10.646   6.970  14.067
45350SOL    HW137947  10.676   6.897  14.121
45350SOL    HW237948  10.709   6.974  13.995
45351SOL     OW37949   2.364   8.480   0.219
45351SOL    HW137950   2.390   8.397   0.179
45351SOL    HW237951   2.435   8.540   0.197
45352SOL     OW37952  11.453   7.561   6.475
45352SOL    HW137953  11.500   7.491   6.521
45352SOL    HW237954  11.361   7.544   6.494
45353SOL     OW37955   0.888  12.163   8.945
45353SOL    HW137956   0.860  12.076   8.915
45353SOL    HW237957   0.976  12.148   8.981
45354SOL     OW37958  10.102   4.776   0.854
45354SOL    HW137959  10.122   4.700   0.907
45354SOL    HW237960  10.180   4.831   0.860
45355SOL     OW37961   0.068   0.082   2.451
45355SOL    HW137962   0.053   0.175   2.434
45355SOL    HW237963   0.135   0.056   2.388
45356SOL     OW37964   9.046   9.851   8.545
45356SOL    HW137965   9.008   9.891   8.624
45356SOL    HW237966   9.050   9.758   8.566
45357SOL     OW37967  12.299   1.679  11.603
45357SOL    HW137968  12.211   1.658  11.571
45357SOL    HW237969  12.340   1.593  11.615
45358SOL     OW37970   4.283   8.842   0.201
45358SOL    HW137971   4.330   8.924   0.212
45358SOL    HW237972   4.324   8.801   0.124
45359SOL     OW37973  13.029  14.129   8.067
45359SOL    HW137974  13.064  14.039   8.066
45359SOL    HW237975  12.944  14.122   8.024
45360SOL     OW37976   5.592   6.277   3.111
45360SOL    HW137977   5.638   6.201   3.077
45360SOL    HW237978   5.559   6.322   3.033
45361SOL     OW37979  10.851  12.598   0.253
45361SOL    HW137980  10.913  12.528   0.235
45361SOL    HW237981  10.897  12.655   0.314
45362SOL     OW37982  13.549   8.957   5.078
45362SOL    HW137983  13.465   8.929   5.113
45362SOL    HW237984  13.613   8.906   5.127
45363SOL     OW37985   8.107  11.614   7.732
45363SOL    HW137986   8.141  11.688   7.782
45363SOL    HW237987   8.045  11.653   7.670
45364SOL     OW37988   1.550   1.676  14.531
45364SOL    HW137989   1.493   1.658  14.606
45364SOL    HW237990   1.518   1.617  14.462
45365SOL     OW37991   4.267   6.295  13.996
45365SOL    HW137992   4.326   6.219  13.997
45365SOL    HW237993   4.256   6.315  13.903
45366SOL     OW37994   3.078  10.235   2.978
45366SOL    HW137995   3.065  10.236   3.072
45366SOL    HW237996   3.121  10.151   2.961
45367SOL     OW37997   9.953  12.070   3.777
45367SOL    HW137998   9.903  11.992   3.802
45367SOL    HW237999  10.044  12.040   3.775
45368SOL     OW38000   6.144  12.453   2.278
45368SOL    HW138001   6.149  12.523   2.343
45368SOL    HW238002   6.087  12.387   2.318
45369SOL     OW38003   4.441   2.178   1.647
45369SOL    HW138004   4.401   2.097   1.615
45369SOL    HW238005   4.454   2.231   1.569
45370SOL     OW38006  12.463   2.274  14.056
45370SOL    HW138007  12.443   2.328  14.132
45370SOL    HW238008  12.530   2.214  14.086
45371SOL     OW38009   5.954   8.831   2.497
45371SOL    HW138010   5.866   8.856   2.467
45371SOL    HW238011   5.946   8.738   2.519
45372SOL     OW38012   9.047   8.802   1.759
45372SOL    HW138013   9.070   8.848   1.840
45372SOL    HW238014   8.975   8.853   1.723
45373SOL     OW38015   5.357   1.530   4.342
45373SOL    HW138016   5.356   1.537   4.247
45373SOL    HW238017   5.411   1.604   4.371
45374SOL     OW38018   2.719   3.118   1.960
45374SOL    HW138019   2.789   3.086   1.904
45374SOL    HW238020   2.762   3.139   2.043
45375SOL     OW38021   0.327   9.361  11.370
45375SOL    HW138022   0.268   9.375  11.297
45375SOL    HW238023   0.365   9.275  11.354
45376SOL     OW38024   5.272   3.094   1.956
45376SOL    HW138025   5.189   3.111   1.910
45376SOL    HW238026   5.332   3.160   1.921
45377SOL     OW38027   2.793   0.614  11.264
45377SOL    HW138028   2.876   0.566  11.268
45377SOL    HW238029   2.787   0.643  11.173
45378SOL     OW38030   4.316   0.051   7.495
45378SOL    HW138031   4.278  14.855   7.457
45378SOL    HW238032   4.247   0.117   7.488
45379SOL     OW38033  12.148  10.999  13.939
45379SOL    HW138034  12.131  11.076  13.885
45379SOL    HW238035  12.243  10.990  13.940
45380SOL     OW38036   0.663   8.955   2.964
45380SOL    HW138037   0.620   8.888   2.911
45380SOL    HW238038   0.592   8.995   3.014
45381SOL     OW38039   2.382  13.449  12.011
45381SOL    HW138040   2.466  13.481  11.979
45381SOL    HW238041   2.352  13.388  11.944
45382SOL     OW38042  10.918  10.635  14.106
45382SOL    HW138043  10.958  10.602  14.026
45382SOL    HW238044  10.892  10.724  14.085
45383SOL     OW38045   9.008  10.524   6.438
45383SOL    HW138046   8.961  10.564   6.365
45383SOL    HW238047   8.979  10.433   6.439
45384SOL     OW38048  12.335  10.960   0.744
45384SOL    HW138049  12.287  11.039   0.718
45384SOL    HW238050  12.418  10.967   0.696
45385SOL     OW38051   5.032  13.381  13.548
45385SOL    HW138052   4.978  13.388  13.469
45385SOL    HW238053   4.973  13.344  13.614
45386SOL     OW38054  13.442   9.030   1.738
45386SOL    HW138055  13.460   9.039   1.832
45386SOL    HW238056  13.433   8.935   1.725
45387SOL     OW38057   4.528   2.293   3.650
45387SOL    HW138058   4.496   2.350   3.720
45387SOL    HW238059   4.622   2.312   3.645
45388SOL     OW38060  12.581  13.949   6.344
45388SOL    HW138061  12.668  13.975   6.313
45388SOL    HW238062  12.596  13.914   6.432
45389SOL     OW38063  12.131   1.484   6.459
45389SOL    HW138064  12.187   1.487   6.537
45389SOL    HW238065  12.121   1.391   6.441
45390SOL     OW38066   3.918  10.196   6.015
45390SOL    HW138067   3.943  10.284   6.043
45390SOL    HW238068   3.829  10.185   6.048
45391SOL     OW38069  13.504   5.750   8.740
45391SOL    HW138070  13.472   5.697   8.667
45391SOL    HW238071  13.426   5.768   8.792
45392SOL     OW38072   0.722  11.840   5.852
45392SOL    HW138073   0.677  11.822   5.935
45392SOL    HW238074   0.800  11.891   5.878
45393SOL     OW38075   4.660  14.745   1.839
45393SOL    HW138076   4.742  14.746   1.789
45393SOL    HW238077   4.635  14.838   1.846
45394SOL     OW38078   1.877   7.359   6.577
45394SOL    HW138079   1.956   7.312   6.603
45394SOL    HW238080   1.895   7.390   6.488
45395SOL     OW38081   8.268  13.200   7.221
45395SOL    HW138082   8.266  13.168   7.311
45395SOL    HW238083   8.322  13.136   7.174
45396SOL     OW38084   9.647   5.092   1.634
45396SOL    HW138085   9.571   5.050   1.675
45396SOL    HW238086   9.619   5.110   1.544
45397SOL     OW38087   9.249   9.963   1.619
45397SOL    HW138088   9.168  10.013   1.628
45397SOL    HW238089   9.309  10.002   1.683
45398SOL     OW38090   2.573   0.610  10.167
45398SOL    HW138091   2.520   0.682  10.202
45398SOL    HW238092   2.510   0.547  10.135
45399SOL     OW38093  12.590   1.938   3.140
45399SOL    HW138094  12.526   1.962   3.207
45399SOL    HW238095  12.590   2.011   3.078
45400SOL     OW38096   3.521   4.414   7.704
45400SOL    HW138097   3.491   4.408   7.794
45400SOL    HW238098   3.446   4.452   7.657
45401SOL     OW38099   4.063  10.970   8.315
45401SOL    HW138100   4.107  10.998   8.395
45401SOL    HW238101   4.070  10.874   8.316
45402SOL     OW38102  14.068   5.517   1.779
45402SOL    HW138103  14.113   5.551   1.857
45402SOL    HW238104  14.089   5.423   1.779
45403SOL     OW38105  13.533  14.297   4.064
45403SOL    HW138106  13.521  14.265   3.974
45403SOL    HW238107  13.470  14.246   4.116
45404SOL     OW38108   8.367   3.519   6.869
45404SOL    HW138109   8.453   3.491   6.901
45404SOL    HW238110   8.345   3.596   6.921
45405SOL     OW38111   2.196  13.826   0.681
45405SOL    HW138112   2.230  13.759   0.741
45405SOL    HW238113   2.264  13.893   0.679
45406SOL     OW38114   3.791   6.219  12.232
45406SOL    HW138115   3.848   6.286  12.194
45406SOL    HW238116   3.851   6.163  12.283
45407SOL     OW38117   4.923   1.000   4.919
45407SOL    HW138118   4.883   1.075   4.963
45407SOL    HW238119   5.010   0.992   4.958
45408SOL     OW38120   5.497   4.658   4.157
45408SOL    HW138121   5.560   4.624   4.094
45408SOL    HW238122   5.425   4.691   4.103
45409SOL     OW38123   1.983  11.833   5.449
45409SOL    HW138124   1.980  11.924   5.479
45409SOL    HW238125   2.068  11.824   5.405
45410SOL     OW38126  12.242   7.716  13.757
45410SOL    HW138127  12.198   7.717  13.672
45410SOL    HW238128  12.295   7.636  13.755
45411SOL     OW38129   6.706   2.094  12.887
45411SOL    HW138130   6.801   2.080  12.883
45411SOL    HW238131   6.695   2.159  12.956
45412SOL     OW38132   7.690   7.730  12.566
45412SOL    HW138133   7.645   7.809  12.535
45412SOL    HW238134   7.627   7.659  12.551
45413SOL     OW38135   4.624   0.146   8.563
45413SOL    HW138136   4.695   0.093   8.528
45413SOL    HW238137   4.667   0.223   8.600
45414SOL     OW38138   4.451   9.723  11.501
45414SOL    HW138139   4.391   9.660  11.462
45414SOL    HW238140   4.467   9.787  11.432
45415SOL     OW38141   8.163  11.572   8.912
45415SOL    HW138142   8.105  11.539   8.980
45415SOL    HW238143   8.183  11.496   8.858
45416SOL     OW38144   3.521   0.668   3.936
45416SOL    HW138145   3.511   0.654   4.031
45416SOL    HW238146   3.615   0.662   3.921
45417SOL     OW38147  11.936   8.896   8.547
45417SOL    HW138148  11.922   8.921   8.456
45417SOL    HW238149  11.848   8.887   8.584
45418SOL     OW38150   2.825   3.576   7.336
45418SOL    HW138151   2.782   3.525   7.268
45418SOL    HW238152   2.802   3.530   7.418
45419SOL     OW38153  12.488  13.923   4.245
45419SOL    HW138154  12.425  13.885   4.307
45419SOL    HW238155  12.544  13.978   4.299
45420SOL     OW38156  12.795   7.333  14.229
45420SOL    HW138157  12.865   7.390  14.197
45420SOL    HW238158  12.714   7.373  14.196
45421SOL     OW38159  10.780   6.208   6.759
45421SOL    HW138160  10.818   6.289   6.791
45421SOL    HW238161  10.749   6.163   6.838
45422SOL     OW38162  13.084   6.773   3.983
45422SOL    HW138163  13.092   6.867   3.968
45422SOL    HW238164  13.150   6.734   3.926
45423SOL     OW38165   2.888   3.315  14.510
45423SOL    HW138166   2.972   3.285  14.476
45423SOL    HW238167   2.826   3.299  14.439
45424SOL     OW38168   2.231   0.197   9.158
45424SOL    HW138169   2.170   0.271   9.153
45424SOL    HW238170   2.310   0.228   9.114
45425SOL     OW38171   2.324   2.535  11.857
45425SOL    HW138172   2.297   2.506  11.769
45425SOL    HW238173   2.258   2.497  11.915
45426SOL     OW38174   0.748   4.503  13.761
45426SOL    HW138175   0.799   4.576  13.795
45426SOL    HW238176   0.777   4.493  13.670
45427SOL     OW38177  13.787  14.218   0.067
45427SOL    HW138178  13.801  14.277   0.141
45427SOL    HW238179  13.700  14.181   0.082
45428SOL     OW38180   4.624   6.802  11.740
45428SOL    HW138181   4.680   6.814  11.817
45428SOL    HW238182   4.619   6.707  11.729
45429SOL     OW38183   9.629   9.580   1.662
45429SOL    HW138184   9.719   9.590   1.693
45429SOL    HW238185   9.587   9.524   1.728
45430SOL     OW38186  13.128   4.813   3.896
45430SOL    HW138187  13.115   4.739   3.838
45430SOL    HW238188  13.130   4.890   3.838
45431SOL     OW38189  12.497   5.494   1.774
45431SOL    HW138190  12.553   5.490   1.852
45431SOL    HW238191  12.558   5.514   1.702
45432SOL     OW38192  10.418   0.336   1.627
45432SOL    HW138193  10.401   0.299   1.540
45432SOL    HW238194  10.377   0.422   1.625
45433SOL     OW38195   7.778   9.507   6.314
45433SOL    HW138196   7.771   9.536   6.405
45433SOL    HW238197   7.703   9.449   6.301
45434SOL     OW38198   5.417  14.792   2.703
45434SOL    HW138199   5.330  14.755   2.716
45434SOL    HW238200   5.401  14.876   2.660
45435SOL     OW38201   5.965   4.218  12.279
45435SOL    HW138202   5.957   4.254  12.368
45435SOL    HW238203   6.018   4.139  12.290
45436SOL     OW38204   6.478  13.468   6.051
45436SOL    HW138205   6.417  13.537   6.075
45436SOL    HW238206   6.565  13.507   6.064
45437SOL     OW38207   2.375   1.454   5.225
45437SOL    HW138208   2.420   1.390   5.280
45437SOL    HW238209   2.353   1.406   5.145
45438SOL     OW38210   2.652   3.835  14.692
45438SOL    HW138211   2.744   3.855  14.710
45438SOL    HW238212   2.633   3.759  14.747
45439SOL     OW38213  13.807  12.920  11.572
45439SOL    HW138214  13.866  12.972  11.517
45439SOL    HW238215  13.720  12.958  11.557
45440SOL     OW38216   7.918   8.186   7.511
45440SOL    HW138217   7.996   8.138   7.539
45440SOL    HW238218   7.943   8.278   7.517
45441SOL     OW38219   6.470  14.741   1.632
45441SOL    HW138220   6.413  14.817   1.641
45441SOL    HW238221   6.498  14.722   1.722
45442SOL     OW38222  10.540   8.948  13.313
45442SOL    HW138223  10.565   9.009  13.243
45442SOL    HW238224  10.516   9.004  13.386
45443SOL     OW38225  13.937   2.247   7.636
45443SOL    HW138226  13.844   2.267   7.639
45443SOL    HW238227  13.941   2.152   7.623
45444SOL     OW38228   3.817   8.677   0.500
45444SOL    HW138229   3.876   8.603   0.514
45444SOL    HW238230   3.858   8.750   0.546
45445SOL     OW38231   7.111   2.338   1.292
45445SOL    HW138232   7.039   2.394   1.263
45445SOL    HW238233   7.070   2.254   1.313
45446SOL     OW38234   3.424   1.174   2.664
45446SOL    HW138235   3.490   1.196   2.599
45446SOL    HW238236   3.345   1.221   2.635
45447SOL     OW38237   0.089   9.264   0.510
45447SOL    HW138238   0.140   9.214   0.448
45447SOL    HW238239   0.100   9.218   0.593
45448SOL     OW38240  11.254  10.544  13.921
45448SOL    HW138241  11.171  10.531  13.877
45448SOL    HW238242  11.302  10.462  13.907
45449SOL     OW38243  11.972   9.547   8.891
45449SOL    HW138244  11.987   9.575   8.801
45449SOL    HW238245  12.057   9.560   8.934
45450SOL     OW38246   2.292   2.874   0.304
45450SOL    HW138247   2.252   2.932   0.239
45450SOL    HW238248   2.293   2.925   0.385
45451SOL     OW38249   6.576  10.112   0.995
45451SOL    HW138250   6.587  10.057   0.917
45451SOL    HW238251   6.485  10.098   1.022
45452SOL     OW38252   1.066   1.417   4.273
45452SOL    HW138253   1.026   1.476   4.336
45452SOL    HW238254   1.000   1.348   4.259
45453SOL     OW38255   6.581   3.630  12.964
45453SOL    HW138256   6.563   3.713  13.007
45453SOL    HW238257   6.598   3.569  13.035
45454SOL     OW38258   0.196   0.966  13.823
45454SOL    HW138259   0.224   0.994  13.910
45454SOL    HW238260   0.135   0.894  13.840
45455SOL     OW38261   3.891   5.311   3.198
45455SOL    HW138262   3.883   5.406   3.184
45455SOL    HW238263   3.962   5.302   3.262
45456SOL     OW38264   8.690   2.236   4.865
45456SOL    HW138265   8.768   2.215   4.814
45456SOL    HW238266   8.617   2.215   4.806
45457SOL     OW38267  10.392   8.991  13.816
45457SOL    HW138268  10.396   8.907  13.771
45457SOL    HW238269  10.477   8.999  13.860
45458SOL     OW38270  12.296  11.153  11.917
45458SOL    HW138271  12.359  11.081  11.924
45458SOL    HW238272  12.214  11.116  11.948
45459SOL     OW38273   9.128   6.083   3.638
45459SOL    HW138274   9.113   6.033   3.719
45459SOL    HW238275   9.075   6.162   3.649
45460SOL     OW38276   3.386  12.997   7.233
45460SOL    HW138277   3.346  12.961   7.312
45460SOL    HW238278   3.313  13.014   7.174
45461SOL     OW38279  10.270   3.159   9.670
45461SOL    HW138280  10.193   3.165   9.726
45461SOL    HW238281  10.256   3.079   9.619
45462SOL     OW38282   9.459  11.090  10.482
45462SOL    HW138283   9.535  11.145  10.464
45462SOL    HW238284   9.497  11.003  10.500
45463SOL     OW38285  14.748  13.019   2.217
45463SOL    HW138286  14.821  12.979   2.265
45463SOL    HW238287  14.696  12.944   2.187
45464SOL     OW38288   1.133   9.938   0.967
45464SOL    HW138289   1.163  10.029   0.967
45464SOL    HW238290   1.037   9.945   0.972
45465SOL     OW38291   5.794   2.622  14.459
45465SOL    HW138292   5.752   2.681  14.521
45465SOL    HW238293   5.872   2.591  14.504
45466SOL     OW38294  10.596   1.952   3.749
45466SOL    HW138295  10.609   1.878   3.691
45466SOL    HW238296  10.671   2.010   3.733
45467SOL     OW38297   9.114   0.682   1.601
45467SOL    HW138298   9.122   0.597   1.558
45467SOL    HW238299   9.022   0.686   1.629
45468SOL     OW38300   6.716  10.603  11.169
45468SOL    HW138301   6.765  10.541  11.222
45468SOL    HW238302   6.771  10.681  11.167
45469SOL     OW38303   1.372   2.983   2.853
45469SOL    HW138304   1.338   3.023   2.773
45469SOL    HW238305   1.449   2.935   2.824
45470SOL     OW38306   1.042   9.756  12.361
45470SOL    HW138307   1.134   9.777  12.374
45470SOL    HW238308   1.043   9.670  12.318
45471SOL     OW38309   8.428   5.643   0.496
45471SOL    HW138310   8.485   5.627   0.420
45471SOL    HW238311   8.488   5.673   0.565
45472SOL     OW38312   5.842  14.649   7.951
45472SOL    HW138313   5.783  14.719   7.979
45472SOL    HW238314   5.908  14.692   7.897
45473SOL     OW38315  12.222   7.459  13.630
45473SOL    HW138316  12.264   7.428  13.710
45473SOL    HW238317  12.172   7.384  13.598
45474SOL     OW38318   7.795   9.742   8.287
45474SOL    HW138319   7.881   9.700   8.293
45474SOL    HW238320   7.734   9.677   8.323
45475SOL     OW38321   1.550  11.874   7.476
45475SOL    HW138322   1.557  11.891   7.382
45475SOL    HW238323   1.635  11.901   7.511
45476SOL     OW38324   1.368   5.162  13.520
45476SOL    HW138325   1.391   5.183  13.611
45476SOL    HW238326   1.432   5.211  13.468
45477SOL     OW38327   9.675  13.063   0.775
45477SOL    HW138328   9.696  13.109   0.856
45477SOL    HW238329   9.737  12.989   0.773
45478SOL     OW38330   7.375   8.218  13.187
45478SOL    HW138331   7.355   8.224  13.094
45478SOL    HW238332   7.410   8.304  13.210
45479SOL     OW38333   0.671   4.233   2.015
45479SOL    HW138334   0.607   4.187   1.961
45479SOL    HW238335   0.641   4.221   2.105
45480SOL     OW38336   3.435   2.834  12.937
45480SOL    HW138337   3.492   2.883  12.877
45480SOL    HW238338   3.491   2.813  13.011
45481SOL     OW38339  12.640   2.512   2.409
45481SOL    HW138340  12.674   2.424   2.391
45481SOL    HW238341  12.546   2.505   2.393
45482SOL     OW38342   1.005   2.986   2.902
45482SOL    HW138343   0.918   3.025   2.913
45482SOL    HW238344   1.062   3.061   2.882
45483SOL     OW38345   7.385  14.803   3.491
45483SOL    HW138346   7.327  14.838   3.424
45483SOL    HW238347   7.337  14.730   3.530
45484SOL     OW38348  13.802   6.005   6.189
45484SOL    HW138349  13.795   6.096   6.159
45484SOL    HW238350  13.869   6.007   6.258
45485SOL     OW38351  10.135  10.187   0.614
45485SOL    HW138352  10.196  10.209   0.684
45485SOL    HW238353  10.187  10.133   0.554
45486SOL     OW38354   9.717   1.206   1.339
45486SOL    HW138355   9.628   1.227   1.309
45486SOL    HW238356   9.703   1.154   1.419
45487SOL     OW38357  14.003   4.660   3.746
45487SOL    HW138358  13.919   4.698   3.772
45487SOL    HW238359  14.016   4.688   3.656
45488SOL     OW38360   6.939  12.480   5.402
45488SOL    HW138361   6.944  12.429   5.321
45488SOL    HW238362   6.878  12.431   5.457
45489SOL     OW38363   8.319  14.340   2.608
45489SOL    HW138364   8.411  14.354   2.628
45489SOL    HW238365   8.273  14.403   2.664
45490SOL     OW38366   8.037   7.200   3.435
45490SOL    HW138367   8.008   7.247   3.513
45490SOL    HW238368   7.965   7.141   3.414
45491SOL     OW38369  13.323   7.269   1.166
45491SOL    HW138370  13.406   7.223   1.171
45491SOL    HW238371  13.343   7.360   1.188
45492SOL     OW38372  14.860  13.685   7.809
45492SOL    HW138373  14.879  13.655   7.898
45492SOL    HW238374  14.787  13.630   7.780
45493SOL     OW38375   0.453  14.142   8.010
45493SOL    HW138376   0.485  14.186   7.931
45493SOL    HW238377   0.410  14.063   7.978
45494SOL     OW38378   9.899   3.731  12.193
45494SOL    HW138379   9.838   3.754  12.123
45494SOL    HW238380   9.909   3.636  12.187
45495SOL     OW38381  14.684   6.270   0.481
45495SOL    HW138382  14.702   6.363   0.474
45495SOL    HW238383  14.652   6.244   0.395
45496SOL     OW38384   4.176   1.978  14.633
45496SOL    HW138385   4.130   2.049  14.589
45496SOL    HW238386   4.116   1.903  14.625
45497SOL     OW38387   1.009  12.898  10.252
45497SOL    HW138388   1.057  12.925  10.174
45497SOL    HW238389   1.053  12.943  10.324
45498SOL     OW38390   1.022  13.758   0.825
45498SOL    HW138391   1.089  13.805   0.775
45498SOL    HW238392   0.965  13.828   0.857
45499SOL     OW38393   1.177   4.645   4.315
45499SOL    HW138394   1.186   4.550   4.328
45499SOL    HW238395   1.147   4.678   4.400
45500SOL     OW38396  12.475   3.410   4.373
45500SOL    HW138397  12.484   3.461   4.454
45500SOL    HW238398  12.505   3.469   4.304
45501SOL     OW38399  10.045  12.606   7.877
45501SOL    HW138400  10.044  12.586   7.783
45501SOL    HW238401  10.110  12.546   7.913
45502SOL     OW38402   5.280   0.432   5.630
45502SOL    HW138403   5.188   0.457   5.619
45502SOL    HW238404   5.310   0.481   5.706
45503SOL     OW38405  10.877   7.852   7.332
45503SOL    HW138406  10.904   7.790   7.265
45503SOL    HW238407  10.787   7.875   7.308
45504SOL     OW38408   9.734   2.621   7.259
45504SOL    HW138409   9.652   2.590   7.220
45504SOL    HW238410   9.774   2.676   7.192
45505SOL     OW38411  11.315   7.078   6.109
45505SOL    HW138412  11.253   7.102   6.177
45505SOL    HW238413  11.342   7.162   6.070
45506SOL     OW38414  14.628   5.243  14.118
45506SOL    HW138415  14.647   5.329  14.157
45506SOL    HW238416  14.692   5.235  14.047
45507SOL     OW38417  11.792   8.448  13.682
45507SOL    HW138418  11.820   8.495  13.604
45507SOL    HW238419  11.873   8.413  13.719
45508SOL     OW38420   5.224  13.429   1.314
45508SOL    HW138421   5.260  13.490   1.379
45508SOL    HW238422   5.299  13.400   1.264
45509SOL     OW38423   6.990  14.389  13.715
45509SOL    HW138424   7.035  14.321  13.665
45509SOL    HW238425   7.013  14.371  13.806
45510SOL     OW38426   4.545  10.297   0.812
45510SOL    HW138427   4.490  10.362   0.857
45510SOL    HW238428   4.507  10.212   0.837
45511SOL     OW38429  13.963   5.317  13.882
45511SOL    HW138430  13.869   5.305  13.896
45511SOL    HW238431  13.996   5.229  13.866
45512SOL     OW38432   4.936   7.406   5.695
45512SOL    HW138433   4.982   7.472   5.644
45512SOL    HW238434   4.919   7.335   5.633
45513SOL     OW38435  11.141   6.474   4.804
45513SOL    HW138436  11.089   6.407   4.848
45513SOL    HW238437  11.082   6.549   4.798
45514SOL     OW38438   5.852   8.591   7.007
45514SOL    HW138439   5.789   8.583   7.079
45514SOL    HW238440   5.936   8.573   7.047
45515SOL     OW38441  12.807  10.427   7.149
45515SOL    HW138442  12.759  10.417   7.231
45515SOL    HW238443  12.851  10.511   7.156
45516SOL     OW38444   5.798   8.061  10.137
45516SOL    HW138445   5.882   8.093  10.172
45516SOL    HW238446   5.823   7.990  10.077
45517SOL     OW38447   8.361  10.706   5.457
45517SOL    HW138448   8.455  10.700   5.438
45517SOL    HW238449   8.346  10.639   5.524
45518SOL     OW38450   8.950   4.698   6.605
45518SOL    HW138451   8.935   4.773   6.662
45518SOL    HW238452   8.966   4.625   6.665
45519SOL     OW38453   8.812   3.527  10.009
45519SOL    HW138454   8.836   3.513   9.917
45519SOL    HW238455   8.893   3.556  10.050
45520SOL     OW38456   9.334  12.344   9.544
45520SOL    HW138457   9.338  12.379   9.455
45520SOL    HW238458   9.342  12.420   9.600
45521SOL     OW38459   9.079   8.882   4.618
45521SOL    HW138460   8.996   8.926   4.632
45521SOL    HW238461   9.124   8.889   4.702
45522SOL     OW38462   0.221  14.699   1.475
45522SOL    HW138463   0.180  14.773   1.431
45522SOL    HW238464   0.272  14.656   1.407
45523SOL     OW38465   6.247   9.914   5.376
45523SOL    HW138466   6.230   9.929   5.469
45523SOL    HW238467   6.315   9.847   5.374
45524SOL     OW38468  13.368  13.231  13.286
45524SOL    HW138469  13.317  13.295  13.236
45524SOL    HW238470  13.398  13.280  13.363
45525SOL     OW38471  13.067   2.719  13.778
45525SOL    HW138472  13.055   2.627  13.755
45525SOL    HW238473  13.003   2.766  13.722
45526SOL     OW38474   4.741   4.935   9.278
45526SOL    HW138475   4.663   4.990   9.283
45526SOL    HW238476   4.722   4.872   9.209
45527SOL     OW38477   2.330  13.159  11.753
45527SOL    HW138478   2.286  13.135  11.834
45527SOL    HW238479   2.302  13.092  11.690
45528SOL     OW38480   8.084  12.196  10.456
45528SOL    HW138481   8.102  12.287  10.435
45528SOL    HW238482   8.108  12.148  10.377
45529SOL     OW38483  12.078  12.978  13.424
45529SOL    HW138484  12.063  12.957  13.331
45529SOL    HW238485  12.135  13.055  13.422
45530SOL     OW38486   8.906  13.508   8.247
45530SOL    HW138487   8.967  13.581   8.236
45530SOL    HW238488   8.831  13.546   8.293
45531SOL     OW38489  10.513   8.942  12.347
45531SOL    HW138490  10.456   8.866  12.356
45531SOL    HW238491  10.469   9.011  12.397
45532SOL     OW38492   4.903   1.049  12.595
45532SOL    HW138493   4.983   1.002  12.573
45532SOL    HW238494   4.836   1.009  12.540
45533SOL     OW38495   4.366   5.031  11.714
45533SOL    HW138496   4.348   5.022  11.808
45533SOL    HW238497   4.288   5.073  11.679
45534SOL     OW38498   4.011   2.055   5.965
45534SOL    HW138499   4.048   1.975   6.002
45534SOL    HW238500   3.924   2.062   6.004
45535SOL     OW38501  11.241   9.327  14.370
45535SOL    HW138502  11.316   9.386  14.369
45535SOL    HW238503  11.168   9.381  14.338
45536SOL     OW38504   7.601   7.044   8.312
45536SOL    HW138505   7.537   7.099   8.357
45536SOL    HW238506   7.584   6.956   8.346
45537SOL     OW38507  10.363  14.141   2.552
45537SOL    HW138508  10.421  14.101   2.618
45537SOL    HW238509  10.386  14.234   2.553
45538SOL     OW38510   7.343   5.997   1.748
45538SOL    HW138511   7.258   5.953   1.746
45538SOL    HW238512   7.397   5.950   1.684
45539SOL     OW38513   4.329   4.689  14.864
45539SOL    HW138514   4.391   4.631  14.820
45539SOL    HW238515   4.257   4.698  14.802
45540SOL     OW38516   7.772   6.654   4.152
45540SOL    HW138517   7.807   6.740   4.174
45540SOL    HW238518   7.823   6.625   4.077
45541SOL     OW38519  12.362  11.908  14.141
45541SOL    HW138520  12.293  11.846  14.119
45541SOL    HW238521  12.319  11.993  14.142
45542SOL     OW38522   6.803   2.563   7.997
45542SOL    HW138523   6.874   2.511   8.034
45542SOL    HW238524   6.728   2.504   7.996
45543SOL     OW38525   9.771   4.860   8.969
45543SOL    HW138526   9.681   4.828   8.974
45543SOL    HW238527   9.824   4.781   8.963
45544SOL     OW38528  11.967  10.815   4.312
45544SOL    HW138529  11.953  10.901   4.351
45544SOL    HW238530  11.899  10.760   4.352
45545SOL     OW38531   4.853   7.489   2.540
45545SOL    HW138532   4.924   7.427   2.525
45545SOL    HW238533   4.802   7.450   2.612
45546SOL     OW38534   0.106   6.740   5.955
45546SOL    HW138535   0.031   6.711   6.006
45546SOL    HW238536   0.073   6.746   5.865
45547SOL     OW38537   6.267   9.888  10.977
45547SOL    HW138538   6.304   9.831  11.045
45547SOL    HW238539   6.325   9.877  10.902
45548SOL     OW38540   4.024   4.508  11.313
45548SOL    HW138541   3.944   4.539  11.357
45548SOL    HW238542   3.992   4.461  11.236
45549SOL     OW38543   0.373  10.531   1.261
45549SOL    HW138544   0.431  10.591   1.215
45549SOL    HW238545   0.397  10.444   1.228
45550SOL     OW38546   0.211   7.708  10.322
45550SOL    HW138547   0.214   7.710  10.226
45550SOL    HW238548   0.146   7.774  10.346
45551SOL     OW38549  11.232   8.723   1.110
45551SOL    HW138550  11.319   8.683   1.114
45551SOL    HW238551  11.207   8.717   1.017
45552SOL     OW38552   5.606  13.499  13.663
45552SOL    HW138553   5.512  13.481  13.663
45552SOL    HW238554   5.636  13.468  13.748
45553SOL     OW38555  14.603   0.960   7.710
45553SOL    HW138556  14.529   1.014   7.683
45553SOL    HW238557  14.680   1.008   7.679
45554SOL     OW38558   1.242  14.144   2.688
45554SOL    HW138559   1.174  14.173   2.749
45554SOL    HW238560   1.232  14.049   2.684
45555SOL     OW38561   3.748  11.605   9.307
45555SOL    HW138562   3.655  11.620   9.294
45555SOL    HW238563   3.771  11.542   9.239
45556SOL     OW38564   5.955   6.461   7.811
45556SOL    HW138565   5.876   6.438   7.860
45556SOL    HW238566   5.960   6.396   7.741
45557SOL     OW38567   1.302   9.899  13.774
45557SOL    HW138568   1.312   9.993  13.757
45557SOL    HW238569   1.239   9.870  13.708
45558SOL     OW38570   2.776   8.984   2.071
45558SOL    HW138571   2.708   8.950   2.130
45558SOL    HW238572   2.728   9.015   1.995
45559SOL     OW38573  12.357   2.188   0.887
45559SOL    HW138574  12.420   2.218   0.821
45559SOL    HW238575  12.280   2.243   0.874
45560SOL     OW38576  14.530   0.888   7.350
45560SOL    HW138577  14.495   0.938   7.423
45560SOL    HW238578  14.457   0.833   7.321
45561SOL     OW38579   7.120  12.322   0.748
45561SOL    HW138580   7.132  12.350   0.657
45561SOL    HW238581   7.137  12.228   0.747
45562SOL     OW38582   4.710  14.759  14.430
45562SOL    HW138583   4.692  14.687  14.490
45562SOL    HW238584   4.708  14.719  14.343
45563SOL     OW38585   5.949   6.348   8.325
45563SOL    HW138586   5.944   6.258   8.293
45563SOL    HW238587   5.994   6.341   8.410
45564SOL     OW38588   9.088  12.290  10.381
45564SOL    HW138589   9.058  12.199  10.386
45564SOL    HW238590   9.183  12.285  10.391
45565SOL     OW38591   9.165   1.362  13.296
45565SOL    HW138592   9.153   1.431  13.360
45565SOL    HW238593   9.247   1.383  13.252
45566SOL     OW38594  14.566   5.150  11.370
45566SOL    HW138595  14.636   5.215  11.360
45566SOL    HW238596  14.533   5.137  11.281
45567SOL     OW38597  10.117   2.292   3.357
45567SOL    HW138598  10.147   2.332   3.275
45567SOL    HW238599  10.107   2.366   3.417
45568SOL     OW38600   7.649   3.138  10.941
45568SOL    HW138601   7.691   3.083  10.874
45568SOL    HW238602   7.631   3.221  10.896
45569SOL     OW38603   7.006   9.017   0.752
45569SOL    HW138604   6.960   8.942   0.713
45569SOL    HW238605   6.961   9.094   0.718
45570SOL     OW38606   8.846   6.078   8.541
45570SOL    HW138607   8.842   6.018   8.467
45570SOL    HW238608   8.803   6.031   8.612
45571SOL     OW38609  11.828   9.241  12.603
45571SOL    HW138610  11.894   9.234  12.672
45571SOL    HW238611  11.868   9.297  12.536
45572SOL     OW38612   6.784  13.189   6.011
45572SOL    HW138613   6.861  13.138   5.985
45572SOL    HW238614   6.800  13.210   6.103
45573SOL     OW38615   5.401   2.489  11.941
45573SOL    HW138616   5.347   2.499  11.863
45573SOL    HW238617   5.423   2.578  11.967
45574SOL     OW38618   2.054   3.974  12.878
45574SOL    HW138619   2.130   4.026  12.852
45574SOL    HW238620   2.058   3.897  12.821
45575SOL     OW38621   3.454   1.872   3.518
45575SOL    HW138622   3.434   1.934   3.447
45575SOL    HW238623   3.369   1.836   3.543
45576SOL     OW38624  14.233   6.602   8.295
45576SOL    HW138625  14.167   6.670   8.308
45576SOL    HW238626  14.249   6.601   8.201
45577SOL     OW38627   4.863   4.178   1.540
45577SOL    HW138628   4.875   4.270   1.516
45577SOL    HW238629   4.944   4.155   1.586
45578SOL     OW38630  13.826   8.365  11.140
45578SOL    HW138631  13.789   8.290  11.094
45578SOL    HW238632  13.752   8.403  11.187
45579SOL     OW38633  12.817  14.037   7.270
45579SOL    HW138634  12.802  14.116   7.321
45579SOL    HW238635  12.831  14.069   7.180
45580SOL     OW38636   0.930  14.649   6.900
45580SOL    HW138637   0.860  14.705   6.867
45580SOL    HW238638   0.942  14.677   6.991
45581SOL     OW38639   1.880   8.139   7.587
45581SOL    HW138640   1.911   8.168   7.501
45581SOL    HW238641   1.915   8.050   7.597
45582SOL     OW38642   2.272  11.363   2.903
45582SOL    HW138643   2.362  11.397   2.901
45582SOL    HW238644   2.233  11.403   2.981
45583SOL     OW38645  11.582   8.778  10.479
45583SOL    HW138646  11.507   8.736  10.521
45583SOL    HW238647  11.549   8.806  10.393
45584SOL     OW38648   1.836   8.421   3.763
45584SOL    HW138649   1.826   8.494   3.701
45584SOL    HW238650   1.884   8.459   3.837
45585SOL     OW38651  13.804   3.342   7.586
45585SOL    HW138652  13.800   3.406   7.515
45585SOL    HW238653  13.865   3.275   7.555
45586SOL     OW38654  13.963  11.545   3.062
45586SOL    HW138655  13.938  11.487   3.134
45586SOL    HW238656  14.032  11.600   3.098
45587SOL     OW38657   6.869   9.656   0.289
45587SOL    HW138658   6.917   9.640   0.208
45587SOL    HW238659   6.818   9.736   0.272
45588SOL     OW38660   3.677   5.476   2.231
45588SOL    HW138661   3.700   5.391   2.268
45588SOL    HW238662   3.626   5.519   2.300
45589SOL     OW38663   3.124   1.994   8.389
45589SOL    HW138664   3.060   1.997   8.317
45589SOL    HW238665   3.185   1.925   8.364
45590SOL     OW38666  12.845   2.008   3.990
45590SOL    HW138667  12.844   2.059   4.071
45590SOL    HW238668  12.890   1.927   4.014
45591SOL     OW38669   4.173   2.641  12.141
45591SOL    HW138670   4.135   2.556  12.119
45591SOL    HW238671   4.153   2.653  12.234
45592SOL     OW38672   9.813   4.636   5.548
45592SOL    HW138673   9.790   4.611   5.637
45592SOL    HW238674   9.866   4.715   5.557
45593SOL     OW38675   7.570  11.509  11.035
45593SOL    HW138676   7.586  11.601  11.053
45593SOL    HW238677   7.555  11.505  10.940
45594SOL     OW38678   8.657  10.489   1.507
45594SOL    HW138679   8.572  10.505   1.466
45594SOL    HW238680   8.636  10.464   1.596
45595SOL     OW38681   9.937   0.794  14.274
45595SOL    HW138682  10.029   0.797  14.248
45595SOL    HW238683   9.901   0.720  14.226
45596SOL     OW38684   8.245  12.025  12.949
45596SOL    HW138685   8.158  11.992  12.974
45596SOL    HW238686   8.279  11.958  12.890
45597SOL     OW38687  12.881   9.659   0.536
45597SOL    HW138688  12.812   9.628   0.477
45597SOL    HW238689  12.935   9.716   0.482
45598SOL     OW38690   1.289   2.133   0.805
45598SOL    HW138691   1.301   2.133   0.900
45598SOL    HW238692   1.354   2.070   0.772
45599SOL     OW38693  13.780   0.252   6.831
45599SOL    HW138694  13.843   0.212   6.891
45599SOL    HW238695  13.831   0.318   6.784
45600SOL     OW38696   0.768   3.307   8.877
45600SOL    HW138697   0.756   3.221   8.917
45600SOL    HW238698   0.756   3.293   8.783
45601SOL     OW38699  14.396   9.714  10.408
45601SOL    HW138700  14.443   9.715  10.492
45601SOL    HW238701  14.306   9.735  10.432
45602SOL     OW38702  14.093   5.455  13.501
45602SOL    HW138703  14.118   5.486  13.588
45602SOL    HW238704  14.173   5.419  13.464
45603SOL     OW38705  13.111   8.941   0.962
45603SOL    HW138706  13.179   8.990   0.916
45603SOL    HW238707  13.143   8.851   0.966
45604SOL     OW38708   4.078  10.386   0.994
45604SOL    HW138709   4.083  10.387   0.898
45604SOL    HW238710   4.080  10.293   1.016
45605SOL     OW38711   2.467   5.381  13.640
45605SOL    HW138712   2.491   5.474  13.639
45605SOL    HW238713   2.538   5.338  13.686
45606SOL     OW38714   7.227  14.614   2.946
45606SOL    HW138715   7.153  14.561   2.918
45606SOL    HW238716   7.301  14.554   2.945
45607SOL     OW38717   9.533   8.879   6.163
45607SOL    HW138718   9.517   8.787   6.179
45607SOL    HW238719   9.627   8.884   6.141
45608SOL     OW38720   6.034   1.098   6.917
45608SOL    HW138721   6.116   1.144   6.898
45608SOL    HW238722   5.970   1.139   6.859
45609SOL     OW38723   5.732   1.899  14.325
45609SOL    HW138724   5.766   1.821  14.280
45609SOL    HW238725   5.783   1.904  14.406
45610SOL     OW38726   2.329   8.933  11.764
45610SOL    HW138727   2.398   8.870  11.742
45610SOL    HW238728   2.252   8.879  11.782
45611SOL     OW38729   0.459  14.115   1.316
45611SOL    HW138730   0.419  14.036   1.352
45611SOL    HW238731   0.461  14.176   1.390
45612SOL     OW38732   5.107   7.387   7.604
45612SOL    HW138733   5.127   7.480   7.602
45612SOL    HW238734   5.193   7.344   7.604
45613SOL     OW38735   7.901   5.648   1.717
45613SOL    HW138736   7.864   5.566   1.749
45613SOL    HW238737   7.969   5.671   1.781
45614SOL     OW38738   3.511  11.081   7.101
45614SOL    HW138739   3.434  11.134   7.082
45614SOL    HW238740   3.533  11.039   7.017
45615SOL     OW38741   5.609   5.310   9.344
45615SOL    HW138742   5.551   5.269   9.279
45615SOL    HW238743   5.557   5.379   9.383
45616SOL     OW38744   4.734   1.013   0.067
45616SOL    HW138745   4.737   1.105   0.040
45616SOL    HW238746   4.710   0.965  14.869
45617SOL     OW38747   7.875   1.470   9.341
45617SOL    HW138748   7.921   1.553   9.353
45617SOL    HW238749   7.809   1.489   9.274
45618SOL     OW38750  13.799   4.657   6.703
45618SOL    HW138751  13.756   4.652   6.788
45618SOL    HW238752  13.740   4.609   6.644
45619SOL     OW38753  13.314  11.593  14.319
45619SOL    HW138754  13.292  11.563  14.231
45619SOL    HW238755  13.378  11.663  14.305
45620SOL     OW38756   4.248   6.477   3.821
45620SOL    HW138757   4.245   6.570   3.845
45620SOL    HW238758   4.284   6.477   3.732
45621SOL     OW38759   8.771  11.485  13.748
45621SOL    HW138760   8.795  11.497  13.656
45621SOL    HW238761   8.702  11.418  13.746
45622SOL     OW38762   1.335   9.734   6.723
45622SOL    HW138763   1.312   9.770   6.809
45622SOL    HW238764   1.393   9.799   6.684
45623SOL     OW38765   8.230  14.384   6.416
45623SOL    HW138766   8.255  14.439   6.342
45623SOL    HW238767   8.256  14.295   6.389
45624SOL     OW38768  10.673   6.201   3.115
45624SOL    HW138769  10.702   6.286   3.082
45624SOL    HW238770  10.581   6.196   3.089
45625SOL     OW38771   7.113   2.644  12.387
45625SOL    HW138772   7.028   2.677  12.359
45625SOL    HW238773   7.124   2.680  12.476
45626SOL     OW38774   8.686  13.931  10.716
45626SOL    HW138775   8.743  13.921  10.793
45626SOL    HW238776   8.729  13.881  10.647
45627SOL     OW38777   0.913   1.728   9.997
45627SOL    HW138778   0.831   1.681   9.982
45627SOL    HW238779   0.914   1.796   9.931
45628SOL     OW38780  10.980  13.405   2.173
45628SOL    HW138781  11.023  13.490   2.180
45628SOL    HW238782  10.974  13.390   2.078
45629SOL     OW38783   0.233  12.764   9.420
45629SOL    HW138784   0.287  12.725   9.488
45629SOL    HW238785   0.145  12.733   9.439
45630SOL     OW38786   0.581   1.373   9.051
45630SOL    HW138787   0.546   1.460   9.070
45630SOL    HW238788   0.508   1.313   9.069
45631SOL     OW38789   0.283   0.613   8.695
45631SOL    HW138790   0.295   0.705   8.669
45631SOL    HW238791   0.250   0.570   8.616
45632SOL     OW38792   6.862   3.514   2.884
45632SOL    HW138793   6.854   3.513   2.789
45632SOL    HW238794   6.875   3.607   2.906
45633SOL     OW38795  13.972   9.636   9.688
45633SOL    HW138796  13.984   9.563   9.627
45633SOL    HW238797  13.945   9.709   9.632
45634SOL     OW38798   8.818  11.185   1.387
45634SOL    HW138799   8.770  11.170   1.469
45634SOL    HW238800   8.779  11.265   1.352
45635SOL     OW38801   1.910   0.115   8.934
45635SOL    HW138802   1.899   0.028   8.974
45635SOL    HW238803   1.867   0.175   8.996
45636SOL     OW38804   5.170   1.344   3.579
45636SOL    HW138805   5.082   1.309   3.570
45636SOL    HW238806   5.169   1.392   3.661
45637SOL     OW38807   3.363   9.456   4.603
45637SOL    HW138808   3.311   9.455   4.523
45637SOL    HW238809   3.452   9.477   4.574
45638SOL     OW38810   2.202   2.534   6.653
45638SOL    HW138811   2.160   2.615   6.626
45638SOL    HW238812   2.214   2.484   6.572
45639SOL     OW38813   9.954   7.443   3.525
45639SOL    HW138814   9.961   7.351   3.500
45639SOL    HW238815   9.866   7.451   3.563
45640SOL     OW38816   9.865   1.465  12.808
45640SOL    HW138817   9.902   1.438  12.892
45640SOL    HW238818   9.809   1.392  12.781
45641SOL     OW38819  13.236   7.924   1.588
45641SOL    HW138820  13.332   7.920   1.587
45641SOL    HW238821  13.214   7.981   1.514
45642SOL     OW38822  14.045   5.512   2.202
45642SOL    HW138823  14.030   5.597   2.242
45642SOL    HW238824  14.122   5.525   2.146
45643SOL     OW38825   8.134  13.422   1.906
45643SOL    HW138826   8.084  13.503   1.914
45643SOL    HW238827   8.188  13.419   1.985
45644SOL     OW38828  10.208   6.905   2.509
45644SOL    HW138829  10.135   6.948   2.554
45644SOL    HW238830  10.212   6.948   2.423
45645SOL     OW38831   2.366   0.666   6.604
45645SOL    HW138832   2.409   0.743   6.565
45645SOL    HW238833   2.413   0.592   6.566
45646SOL     OW38834   2.444   7.728   1.523
45646SOL    HW138835   2.437   7.640   1.559
45646SOL    HW238836   2.435   7.716   1.428
45647SOL     OW38837   3.962   6.727   6.037
45647SOL    HW138838   4.048   6.721   6.080
45647SOL    HW238839   3.976   6.686   5.951
45648SOL     OW38840  11.193   4.301   1.910
45648SOL    HW138841  11.202   4.281   1.817
45648SOL    HW238842  11.121   4.245   1.940
45649SOL     OW38843  14.708  11.962   4.153
45649SOL    HW138844  14.667  12.020   4.089
45649SOL    HW238845  14.752  11.895   4.100
45650SOL     OW38846   4.367   5.764   0.467
45650SOL    HW138847   4.342   5.713   0.390
45650SOL    HW238848   4.370   5.701   0.538
45651SOL     OW38849   6.766   2.211   8.117
45651SOL    HW138850   6.757   2.120   8.091
45651SOL    HW238851   6.753   2.261   8.036
45652SOL     OW38852   6.621   0.854   9.464
45652SOL    HW138853   6.691   0.871   9.528
45652SOL    HW238854   6.663   0.867   9.379
45653SOL     OW38855   1.297   7.431   5.172
45653SOL    HW138856   1.386   7.465   5.159
45653SOL    HW238857   1.256   7.438   5.086
45654SOL     OW38858   9.578   6.216   9.216
45654SOL    HW138859   9.505   6.219   9.154
45654SOL    HW238860   9.564   6.135   9.265
45655SOL     OW38861   8.406   0.676   1.460
45655SOL    HW138862   8.490   0.631   1.450
45655SOL    HW238863   8.369   0.640   1.540
45656SOL     OW38864   5.627   4.290  11.929
45656SOL    HW138865   5.644   4.206  11.970
45656SOL    HW238866   5.631   4.273  11.835
45657SOL     OW38867  12.734   1.642  10.652
45657SOL    HW138868  12.821   1.651  10.612
45657SOL    HW238869  12.673   1.647  10.578
45658SOL     OW38870   8.277  12.809  13.054
45658SOL    HW138871   8.212  12.741  13.072
45658SOL    HW238872   8.303  12.795  12.964
45659SOL     OW38873   9.416   3.519   4.131
45659SOL    HW138874   9.468   3.591   4.097
45659SOL    HW238875   9.478   3.465   4.181
45660SOL     OW38876   4.568   3.220   8.280
45660SOL    HW138877   4.548   3.304   8.237
45660SOL    HW238878   4.664   3.218   8.283
45661SOL     OW38879  11.116  13.374  13.954
45661SOL    HW138880  11.167  13.453  13.967
45661SOL    HW238881  11.027  13.397  13.982
45662SOL     OW38882  10.465   0.488  13.683
45662SOL    HW138883  10.520   0.548  13.634
45662SOL    HW238884  10.505   0.402  13.670
45663SOL     OW38885  12.756   2.601   2.719
45663SOL    HW138886  12.704   2.634   2.793
45663SOL    HW238887  12.735   2.660   2.647
45664SOL     OW38888   0.512  11.423   6.477
45664SOL    HW138889   0.577  11.427   6.548
45664SOL    HW238890   0.562  11.392   6.401
45665SOL     OW38891   3.400  12.308   9.393
45665SOL    HW138892   3.491  12.328   9.411
45665SOL    HW238893   3.391  12.321   9.298
45666SOL     OW38894   7.082   9.556  14.443
45666SOL    HW138895   7.175   9.547  14.421
45666SOL    HW238896   7.037   9.527  14.364
45667SOL     OW38897   3.388  12.039   6.332
45667SOL    HW138898   3.374  12.022   6.239
45667SOL    HW238899   3.410  12.132   6.336
45668SOL     OW38900   5.203  10.929   0.224
45668SOL    HW138901   5.217  10.843   0.184
45668SOL    HW238902   5.119  10.958   0.189
45669SOL     OW38903  10.959   6.367  14.136
45669SOL    HW138904  10.990   6.453  14.108
45669SOL    HW238905  11.038   6.315  14.144
45670SOL     OW38906  12.805   8.967   7.603
45670SOL    HW138907  12.722   8.964   7.651
45670SOL    HW238908  12.812   8.882   7.560
45671SOL     OW38909   6.531   9.953  14.030
45671SOL    HW138910   6.531  10.026  14.092
45671SOL    HW238911   6.442   9.951  13.996
45672SOL     OW38912  13.949   4.658  12.552
45672SOL    HW138913  13.950   4.723  12.622
45672SOL    HW238914  13.880   4.688  12.492
45673SOL     OW38915   5.677  12.110   7.278
45673SOL    HW138916   5.656  12.202   7.293
45673SOL    HW238917   5.737  12.111   7.204
45674SOL     OW38918  14.600   2.444   6.956
45674SOL    HW138919  14.525   2.499   6.978
45674SOL    HW238920  14.676   2.499   6.974
45675SOL     OW38921   4.856   1.031  10.112
45675SOL    HW138922   4.919   1.074  10.170
45675SOL    HW238923   4.858   1.084  10.032
45676SOL     OW38924   9.933   0.199  12.245
45676SOL    HW138925   9.881   0.167  12.319
45676SOL    HW238926   9.885   0.275  12.213
45677SOL     OW38927   5.286   1.154   8.046
45677SOL    HW138928   5.274   1.231   8.101
45677SOL    HW238929   5.369   1.115   8.076
45678SOL     OW38930   3.231   4.677  12.473
45678SOL    HW138931   3.147   4.635  12.488
45678SOL    HW238932   3.232   4.751  12.534
45679SOL     OW38933   0.326   3.814   1.586
45679SOL    HW138934   0.318   3.731   1.633
45679SOL    HW238935   0.391   3.797   1.518
45680SOL     OW38936   6.200   1.101   2.043
45680SOL    HW138937   6.213   1.049   2.122
45680SOL    HW238938   6.283   1.095   1.997
45681SOL     OW38939   4.606   8.765  12.423
45681SOL    HW138940   4.672   8.723  12.369
45681SOL    HW238941   4.579   8.842  12.374
45682SOL     OW38942  11.109   7.178   0.477
45682SOL    HW138943  11.084   7.086   0.465
45682SOL    HW238944  11.087   7.197   0.568
45683SOL     OW38945   1.375   7.951   7.253
45683SOL    HW138946   1.434   7.881   7.225
45683SOL    HW238947   1.298   7.905   7.285
45684SOL     OW38948  12.286  14.009   0.542
45684SOL    HW138949  12.300  14.016   0.636
45684SOL    HW238950  12.236  14.087   0.519
45685SOL     OW38951  10.904   2.924   0.572
45685SOL    HW138952  10.852   3.003   0.586
45685SOL    HW238953  10.942   2.905   0.658
45686SOL     OW38954   9.558  10.725  13.785
45686SOL    HW138955   9.513  10.749  13.865
45686SOL    HW238956   9.561  10.805  13.733
45687SOL     OW38957   6.535   3.934   6.414
45687SOL    HW138958   6.582   3.959   6.334
45687SOL    HW238959   6.465   3.877   6.384
45688SOL     OW38960  10.408   9.635   2.530
45688SOL    HW138961  10.437   9.669   2.445
45688SOL    HW238962  10.481   9.579   2.559
45689SOL     OW38963   7.785   7.437   1.658
45689SOL    HW138964   7.743   7.499   1.600
45689SOL    HW238965   7.742   7.449   1.743
45690SOL     OW38966   0.381  12.087  13.439
45690SOL    HW138967   0.372  12.049  13.351
45690SOL    HW238968   0.298  12.066  13.483
45691SOL     OW38969   7.169  12.396   0.458
45691SOL    HW138970   7.214  12.322   0.418
45691SOL    HW238971   7.079  12.389   0.426
45692SOL     OW38972   9.473  12.878  12.965
45692SOL    HW138973   9.388  12.917  12.983
45692SOL    HW238974   9.452  12.791  12.931
45693SOL     OW38975   2.177   3.881   8.625
45693SOL    HW138976   2.182   3.858   8.533
45693SOL    HW238977   2.178   3.798   8.672
45694SOL     OW38978   4.335   5.587  13.032
45694SOL    HW138979   4.290   5.658  13.079
45694SOL    HW238980   4.318   5.509  13.085
45695SOL     OW38981   7.969   3.717   5.364
45695SOL    HW138982   7.977   3.645   5.427
45695SOL    HW238983   8.018   3.686   5.288
45696SOL     OW38984   1.256   7.873   8.718
45696SOL    HW138985   1.194   7.827   8.662
45696SOL    HW238986   1.295   7.804   8.772
45697SOL     OW38987   8.546  12.853   0.631
45697SOL    HW138988   8.511  12.795   0.565
45697SOL    HW238989   8.519  12.815   0.714
45698SOL     OW38990   7.491   1.806   8.521
45698SOL    HW138991   7.410   1.834   8.479
45698SOL    HW238992   7.515   1.879   8.577
45699SOL     OW38993   1.652  13.062  10.946
45699SOL    HW138994   1.596  13.136  10.971
45699SOL    HW238995   1.723  13.065  11.011
45700SOL     OW38996   3.141   4.051  13.017
45700SOL    HW138997   3.056   4.025  13.054
45700SOL    HW238998   3.205   4.018  13.080
45701SOL     OW38999   9.916  14.852  12.683
45701SOL    HW139000   9.876   0.000  12.765
45701SOL    HW239001   9.876   0.024  12.615
45702SOL     OW39002  13.338   8.021   7.471
45702SOL    HW139003  13.333   7.997   7.379
45702SOL    HW239004  13.249   8.045   7.495
45703SOL     OW39005   5.061  13.298  12.251
45703SOL    HW139006   4.991  13.254  12.300
45703SOL    HW239007   5.072  13.244  12.173
45704SOL     OW39008   8.498  13.985   6.924
45704SOL    HW139009   8.479  14.026   6.840
45704SOL    HW239010   8.591  13.964   6.920
45705SOL     OW39011   1.486  11.877  11.815
45705SOL    HW139012   1.543  11.849  11.743
45705SOL    HW239013   1.417  11.810  11.818
45706SOL     OW39014  14.102   8.845   8.282
45706SOL    HW139015  14.124   8.833   8.375
45706SOL    HW239016  14.186   8.852   8.238
45707SOL     OW39017   2.803   9.212  12.401
45707SOL    HW139018   2.749   9.165  12.338
45707SOL    HW239019   2.780   9.174  12.486
45708SOL     OW39020   4.897  14.336  13.405
45708SOL    HW139021   4.990  14.322  13.389
45708SOL    HW239022   4.860  14.248  13.415
45709SOL     OW39023   5.979  10.687   8.509
45709SOL    HW139024   5.943  10.737   8.435
45709SOL    HW239025   5.938  10.726   8.586
45710SOL     OW39026   5.344  14.302   7.458
45710SOL    HW139027   5.406  14.369   7.486
45710SOL    HW239028   5.383  14.264   7.379
45711SOL     OW39029   6.434   6.311   2.684
45711SOL    HW139030   6.474   6.340   2.766
45711SOL    HW239031   6.344   6.289   2.708
45712SOL     OW39032   1.480   6.308  14.367
45712SOL    HW139033   1.486   6.329  14.460
45712SOL    HW239034   1.564   6.268  14.345
45713SOL     OW39035   1.376   9.249   6.553
45713SOL    HW139036   1.377   9.157   6.579
45713SOL    HW239037   1.348   9.247   6.461
45714SOL     OW39038   7.303   7.879   9.066
45714SOL    HW139039   7.300   7.784   9.061
45714SOL    HW239040   7.211   7.906   9.068
45715SOL     OW39041  11.973   9.116   6.655
45715SOL    HW139042  11.941   9.123   6.565
45715SOL    HW239043  11.894   9.118   6.709
45716SOL     OW39044  13.099   5.434  10.999
45716SOL    HW139045  13.157   5.358  10.993
45716SOL    HW239046  13.158   5.509  10.992
45717SOL     OW39047   8.693  13.810   0.083
45717SOL    HW139048   8.666  13.842  14.879
45717SOL    HW239049   8.756  13.741   0.064
45718SOL     OW39050   1.499   0.401   9.939
45718SOL    HW139051   1.496   0.338  10.012
45718SOL    HW239052   1.409   0.404   9.907
45719SOL     OW39053   0.008  13.793   5.339
45719SOL    HW139054   0.091  13.780   5.384
45719SOL    HW239055   0.032  13.834   5.256
45720SOL     OW39056   5.738   4.909  13.482
45720SOL    HW139057   5.734   4.926  13.576
45720SOL    HW239058   5.662   4.854  13.465
45721SOL     OW39059  12.991   5.893   0.148
45721SOL    HW139060  12.904   5.931   0.164
45721SOL    HW239061  13.024   5.872   0.235
45722SOL     OW39062   4.355  12.776   7.970
45722SOL    HW139063   4.316  12.764   7.884
45722SOL    HW239064   4.409  12.855   7.961
45723SOL     OW39065   8.149   6.959  10.985
45723SOL    HW139066   8.119   6.998  11.068
45723SOL    HW239067   8.236   6.996  10.971
45724SOL     OW39068   6.365  11.374   8.583
45724SOL    HW139069   6.339  11.338   8.498
45724SOL    HW239070   6.458  11.394   8.573
45725SOL     OW39071   0.040   8.770   5.475
45725SOL    HW139072   0.108   8.702   5.471
45725SOL    HW239073  14.882   8.759   5.561
45726SOL     OW39074   2.779   2.099   5.122
45726SOL    HW139075   2.814   2.033   5.062
45726SOL    HW239076   2.756   2.172   5.066
45727SOL     OW39077  10.485   3.793   4.172
45727SOL    HW139078  10.394   3.764   4.165
45727SOL    HW239079  10.497   3.852   4.097
45728SOL     OW39080   6.756   8.313  11.363
45728SOL    HW139081   6.848   8.287  11.357
45728SOL    HW239082   6.750   8.394  11.312
45729SOL     OW39083   4.478   0.771   4.009
45729SOL    HW139084   4.414   0.700   4.011
45729SOL    HW239085   4.547   0.739   3.951
45730SOL     OW39086   7.488   6.055   8.987
45730SOL    HW139087   7.445   6.125   8.938
45730SOL    HW239088   7.515   5.992   8.920
45731SOL     OW39089  13.930   8.843  13.347
45731SOL    HW139090  13.859   8.907  13.353
45731SOL    HW239091  13.886   8.759  13.334
45732SOL     OW39092  14.407   4.437   6.115
45732SOL    HW139093  14.371   4.519   6.149
45732SOL    HW239094  14.474   4.464   6.053
45733SOL     OW39095   0.285   4.083  10.302
45733SOL    HW139096   0.244   4.152  10.354
45733SOL    HW239097   0.219   4.059  10.237
45734SOL     OW39098   1.318  12.419   1.596
45734SOL    HW139099   1.392  12.465   1.558
45734SOL    HW239100   1.352  12.332   1.618
45735SOL     OW39101   4.266   3.234   3.691
45735SOL    HW139102   4.189   3.180   3.674
45735SOL    HW239103   4.298   3.204   3.777
45736SOL     OW39104   8.110   0.276  12.814
45736SOL    HW139105   8.062   0.317  12.742
45736SOL    HW239106   8.164   0.347  12.850
45737SOL     OW39107   8.553   1.621   5.577
45737SOL    HW139108   8.621   1.555   5.587
45737SOL    HW239109   8.517   1.631   5.666
45738SOL     OW39110  14.811   2.253   6.834
45738SOL    HW139111  14.819   2.162   6.806
45738SOL    HW239112  14.802   2.249   6.929
45739SOL     OW39113   9.431  11.181   2.437
45739SOL    HW139114   9.512  11.137   2.463
45739SOL    HW239115   9.458  11.242   2.369
45740SOL     OW39116   8.141  13.429   7.187
45740SOL    HW139117   8.098  13.445   7.271
45740SOL    HW239118   8.188  13.347   7.199
45741SOL     OW39119   4.307   2.931   6.621
45741SOL    HW139120   4.234   2.944   6.682
45741SOL    HW239121   4.270   2.953   6.535
45742SOL     OW39122   4.131  10.847  12.351
45742SOL    HW139123   4.099  10.805  12.431
45742SOL    HW239124   4.076  10.926  12.343
45743SOL     OW39125   1.202  11.816  10.472
45743SOL    HW139126   1.185  11.731  10.432
45743SOL    HW239127   1.119  11.863  10.464
45744SOL     OW39128   6.083  12.164   1.575
45744SOL    HW139129   6.152  12.198   1.631
45744SOL    HW239130   6.093  12.212   1.493
45745SOL     OW39131  13.454   2.297  11.720
45745SOL    HW139132  13.476   2.241  11.795
45745SOL    HW239133  13.537   2.307  11.672
45746SOL     OW39134   2.812  11.159   2.237
45746SOL    HW139135   2.871  11.100   2.285
45746SOL    HW239136   2.839  11.247   2.263
45747SOL     OW39137   9.053   5.862   3.209
45747SOL    HW139138   9.007   5.874   3.292
45747SOL    HW239139   9.029   5.938   3.156
45748SOL     OW39140  13.821  10.824   5.215
45748SOL    HW139141  13.811  10.916   5.239
45748SOL    HW239142  13.763  10.777   5.275
45749SOL     OW39143   3.882   0.457   4.135
45749SOL    HW139144   3.787   0.462   4.147
45749SOL    HW239145   3.913   0.414   4.215
45750SOL     OW39146   3.514   8.917   8.323
45750SOL    HW139147   3.551   8.891   8.239
45750SOL    HW239148   3.422   8.888   8.318
45751SOL     OW39149   1.415  11.355   0.648
45751SOL    HW139150   1.372  11.272   0.667
45751SOL    HW239151   1.503  11.345   0.684
45752SOL     OW39152   1.941  10.451  13.359
45752SOL    HW139153   2.016  10.444  13.301
45752SOL    HW239154   1.871  10.486  13.303
45753SOL     OW39155  12.627   7.478  13.092
45753SOL    HW139156  12.554   7.538  13.107
45753SOL    HW239157  12.677   7.517  13.020
45754SOL     OW39158   6.945   9.914   7.074
45754SOL    HW139159   6.971   9.841   7.130
45754SOL    HW239160   6.906   9.873   6.997
45755SOL     OW39161   7.349   8.359   8.736
45755SOL    HW139162   7.359   8.270   8.703
45755SOL    HW239163   7.358   8.350   8.831
45756SOL     OW39164  12.194   6.642  11.479
45756SOL    HW139165  12.230   6.685  11.401
45756SOL    HW239166  12.140   6.571  11.445
45757SOL     OW39167  10.685   9.358   4.137
45757SOL    HW139168  10.742   9.294   4.095
45757SOL    HW239169  10.648   9.310   4.212
45758SOL     OW39170   2.849  12.459   5.002
45758SOL    HW139171   2.885  12.535   5.047
45758SOL    HW239172   2.918  12.392   5.010
45759SOL     OW39173  13.332  10.229   0.249
45759SOL    HW139174  13.292  10.219   0.335
45759SOL    HW239175  13.411  10.281   0.265
45760SOL     OW39176   5.968   0.509   4.367
45760SOL    HW139177   5.875   0.530   4.376
45760SOL    HW239178   5.981   0.434   4.424
45761SOL     OW39179   6.840  13.473   3.445
45761SOL    HW139180   6.823  13.419   3.523
45761SOL    HW239181   6.821  13.562   3.473
45762SOL     OW39182   7.298   5.779   7.696
45762SOL    HW139183   7.322   5.704   7.751
45762SOL    HW239184   7.207   5.763   7.673
45763SOL     OW39185  12.681  12.208   4.492
45763SOL    HW139186  12.705  12.152   4.566
45763SOL    HW239187  12.604  12.256   4.522
45764SOL     OW39188   6.949  12.339  13.739
45764SOL    HW139189   6.932  12.315  13.648
45764SOL    HW239190   6.923  12.431  13.745
45765SOL     OW39191  11.717   3.578   6.025
45765SOL    HW139192  11.766   3.498   6.047
45765SOL    HW239193  11.776   3.626   5.967
45766SOL     OW39194   0.046   8.480   5.307
45766SOL    HW139195  14.860   8.494   5.373
45766SOL    HW239196   0.126   8.514   5.348
45767SOL     OW39197   6.009  10.315   9.741
45767SOL    HW139198   6.099  10.344   9.725
45767SOL    HW239199   5.962  10.396   9.763
45768SOL     OW39200   6.986  12.366  10.621
45768SOL    HW139201   6.998  12.433  10.554
45768SOL    HW239202   6.992  12.414  10.704
45769SOL     OW39203   6.149  13.371   3.916
45769SOL    HW139204   6.214  13.434   3.946
45769SOL    HW239205   6.201  13.297   3.884
45770SOL     OW39206   8.700   0.171  14.692
45770SOL    HW139207   8.769   0.215  14.743
45770SOL    HW239208   8.620   0.219  14.715
45771SOL     OW39209  14.754  11.689   3.535
45771SOL    HW139210  14.789  11.695   3.446
45771SOL    HW239211  14.746  11.595   3.550
45772SOL     OW39212   2.588   9.039  11.453
45772SOL    HW139213   2.645   9.086  11.392
45772SOL    HW239214   2.634   8.958  11.473
45773SOL     OW39215   0.063  14.242   8.925
45773SOL    HW139216  14.868  14.187   8.943
45773SOL    HW239217   0.034  14.331   8.946
45774SOL     OW39218  14.636   2.080   5.047
45774SOL    HW139219  14.612   2.158   5.096
45774SOL    HW239220  14.553   2.032   5.036
45775SOL     OW39221   5.621   9.511   3.746
45775SOL    HW139222   5.692   9.447   3.745
45775SOL    HW239223   5.559   9.479   3.680
45776SOL     OW39224  14.356  13.953   3.228
45776SOL    HW139225  14.347  13.960   3.323
45776SOL    HW239226  14.419  14.022   3.205
45777SOL     OW39227   9.302  11.789  13.866
45777SOL    HW139228   9.248  11.728  13.815
45777SOL    HW239229   9.389  11.750  13.865
45778SOL     OW39230   7.021   4.199  11.904
45778SOL    HW139231   7.114   4.212  11.920
45778SOL    HW239232   7.017   4.128  11.840
45779SOL     OW39233  14.003  11.050  10.365
45779SOL    HW139234  14.059  10.973  10.369
45779SOL    HW239235  14.039  11.110  10.431
45780SOL     OW39236   3.420   0.645  13.481
45780SOL    HW139237   3.475   0.723  13.485
45780SOL    HW239238   3.335   0.677  13.451
45781SOL     OW39239  13.853   2.077   3.811
45781SOL    HW139240  13.814   2.164   3.813
45781SOL    HW239241  13.853   2.052   3.719
45782SOL     OW39242   2.660   3.960  11.342
45782SOL    HW139243   2.597   4.030  11.358
45782SOL    HW239244   2.638   3.893  11.407
45783SOL     OW39245  13.016   9.603  14.303
45783SOL    HW139246  13.041   9.680  14.250
45783SOL    HW239247  13.073   9.533  14.271
45784SOL     OW39248   9.122  10.210  11.632
45784SOL    HW139249   9.138  10.250  11.546
45784SOL    HW239250   9.195  10.240  11.686
45785SOL     OW39251   2.230   1.212   3.137
45785SOL    HW139252   2.205   1.177   3.223
45785SOL    HW239253   2.194   1.150   3.074
45786SOL     OW39254   9.446   4.526   8.475
45786SOL    HW139255   9.475   4.613   8.504
45786SOL    HW239256   9.501   4.506   8.399
45787SOL     OW39257   0.573   7.095  12.670
45787SOL    HW139258   0.646   7.033  12.672
45787SOL    HW239259   0.601   7.167  12.726
45788SOL     OW39260  14.597   8.839   1.706
45788SOL    HW139261  14.502   8.833   1.713
45788SOL    HW239262  14.625   8.867   1.793
45789SOL     OW39263   1.973   2.783   4.424
45789SOL    HW139264   2.061   2.761   4.453
45789SOL    HW239265   1.923   2.795   4.505
45790SOL     OW39266  10.519  12.998   3.526
45790SOL    HW139267  10.569  12.924   3.562
45790SOL    HW239268  10.430  12.985   3.558
45791SOL     OW39269  13.996  10.414   4.215
45791SOL    HW139270  14.015  10.349   4.148
45791SOL    HW239271  14.060  10.397   4.284
45792SOL     OW39272  12.675   0.323   0.482
45792SOL    HW139273  12.770   0.333   0.480
45792SOL    HW239274  12.657   0.285   0.568
45793SOL     OW39275   6.557  12.917  12.588
45793SOL    HW139276   6.628  12.864  12.624
45793SOL    HW239277   6.591  12.949  12.504
45794SOL     OW39278   8.221   3.586   8.644
45794SOL    HW139279   8.238   3.665   8.592
45794SOL    HW239280   8.175   3.528   8.584
45795SOL     OW39281  11.876   9.246  10.367
45795SOL    HW139282  11.901   9.317  10.426
45795SOL    HW239283  11.827   9.185  10.423
45796SOL     OW39284   6.379  14.619   2.728
45796SOL    HW139285   6.416  14.580   2.808
45796SOL    HW239286   6.449  14.609   2.663
45797SOL     OW39287  13.629   5.500   9.918
45797SOL    HW139288  13.710   5.538   9.885
45797SOL    HW239289  13.560   5.540   9.865
45798SOL     OW39290   7.170  12.717   6.210
45798SOL    HW139291   7.108  12.704   6.282
45798SOL    HW239292   7.235  12.778   6.246
45799SOL     OW39293  10.938  10.144   3.061
45799SOL    HW139294  10.854  10.143   3.105
45799SOL    HW239295  10.918  10.165   2.970
45800SOL     OW39296   8.485  12.437  13.828
45800SOL    HW139297   8.561  12.488  13.802
45800SOL    HW239298   8.456  12.476  13.910
45801SOL     OW39299  12.881  11.508  14.584
45801SOL    HW139300  12.961  11.559  14.572
45801SOL    HW239301  12.863  11.515  14.678
45802SOL     OW39302  11.477   7.909   6.940
45802SOL    HW139303  11.439   7.957   6.867
45802SOL    HW239304  11.541   7.851   6.901
45803SOL     OW39305   0.363   6.822   3.597
45803SOL    HW139306   0.452   6.855   3.584
45803SOL    HW239307   0.320   6.837   3.513
45804SOL     OW39308   4.165   6.760   9.697
45804SOL    HW139309   4.091   6.711   9.734
45804SOL    HW239310   4.144   6.852   9.716
45805SOL     OW39311  12.266   6.934  10.428
45805SOL    HW139312  12.231   6.847  10.444
45805SOL    HW239313  12.212   6.969  10.357
45806SOL     OW39314   4.182  14.355  11.678
45806SOL    HW139315   4.177  14.260  11.679
45806SOL    HW239316   4.092  14.384  11.690
45807SOL     OW39317   0.135  13.673   1.157
45807SOL    HW139318   0.115  13.605   1.221
45807SOL    HW239319   0.054  13.723   1.149
45808SOL     OW39320  14.091   4.863   4.059
45808SOL    HW139321  14.119   4.954   4.068
45808SOL    HW239322  14.140   4.830   3.984
45809SOL     OW39323  11.491  14.854  13.496
45809SOL    HW139324  11.543   0.047  13.524
45809SOL    HW239325  11.550  14.780  13.503
45810SOL     OW39326  10.541   9.366  13.953
45810SOL    HW139327  10.609   9.300  13.965
45810SOL    HW239328  10.462   9.326  13.991
45811SOL     OW39329   8.544  10.416  12.700
45811SOL    HW139330   8.511  10.447  12.784
45811SOL    HW239331   8.595  10.338  12.721
45812SOL     OW39332  12.559  11.708   9.814
45812SOL    HW139333  12.547  11.674   9.725
45812SOL    HW239334  12.580  11.800   9.801
45813SOL     OW39335  13.576   1.186   9.900
45813SOL    HW139336  13.617   1.235   9.829
45813SOL    HW239337  13.548   1.103   9.860
45814SOL     OW39338   1.434   5.223  13.783
45814SOL    HW139339   1.404   5.308  13.750
45814SOL    HW239340   1.411   5.224  13.876
45815SOL     OW39341  13.246   6.536  14.574
45815SOL    HW139342  13.262   6.619  14.619
45815SOL    HW239343  13.199   6.483  14.638
45816SOL     OW39344   3.465  10.813   9.902
45816SOL    HW139345   3.392  10.769   9.947
45816SOL    HW239346   3.503  10.745   9.846
45817SOL     OW39347   2.797   7.411   0.290
45817SOL    HW139348   2.830   7.395   0.379
45817SOL    HW239349   2.746   7.333   0.269
45818SOL     OW39350  12.973   5.387  12.034
45818SOL    HW139351  13.053   5.407  11.984
45818SOL    HW239352  12.925   5.470  12.037
45819SOL     OW39353   5.803  12.604   6.294
45819SOL    HW139354   5.864  12.662   6.341
45819SOL    HW239355   5.859  12.537   6.255
45820SOL     OW39356   4.469   1.746  13.001
45820SOL    HW139357   4.432   1.719  13.085
45820SOL    HW239358   4.536   1.811  13.024
45821SOL     OW39359   9.335   1.408   4.984
45821SOL    HW139360   9.249   1.423   4.945
45821SOL    HW239361   9.317   1.394   5.077
45822SOL     OW39362  10.107   2.468   3.567
45822SOL    HW139363  10.018   2.503   3.576
45822SOL    HW239364  10.137   2.457   3.657
45823SOL     OW39365  12.822   6.747   4.032
45823SOL    HW139366  12.917   6.740   4.026
45823SOL    HW239367  12.790   6.664   3.996
45824SOL     OW39368   1.778   2.129   5.423
45824SOL    HW139369   1.808   2.176   5.501
45824SOL    HW239370   1.690   2.098   5.446
45825SOL     OW39371   5.945  14.246  14.025
45825SOL    HW139372   5.924  14.156  14.049
45825SOL    HW239373   5.985  14.284  14.104
45826SOL     OW39374  14.408  14.458   9.804
45826SOL    HW139375  14.416  14.374   9.757
45826SOL    HW239376  14.465  14.518   9.756
45827SOL     OW39377  12.587   1.129   2.701
45827SOL    HW139378  12.496   1.114   2.729
45827SOL    HW239379  12.638   1.062   2.746
45828SOL     OW39380   5.750  10.170   2.473
45828SOL    HW139381   5.766  10.144   2.383
45828SOL    HW239382   5.666  10.130   2.495
45829SOL     OW39383   5.763   2.468   1.392
45829SOL    HW139384   5.679   2.485   1.351
45829SOL    HW239385   5.741   2.443   1.482
45830SOL     OW39386   3.860   3.673   8.719
45830SOL    HW139387   3.812   3.705   8.796
45830SOL    HW239388   3.948   3.654   8.751
45831SOL     OW39389   0.119   5.525   1.887
45831SOL    HW139390   0.049   5.479   1.934
45831SOL    HW239391   0.122   5.612   1.927
45832SOL     OW39392   3.868   6.737  10.923
45832SOL    HW139393   3.826   6.741  11.009
45832SOL    HW239394   3.813   6.793  10.868
45833SOL     OW39395  11.562   6.709   4.770
45833SOL    HW139396  11.605   6.745   4.847
45833SOL    HW239397  11.470   6.700   4.796
45834SOL     OW39398   8.927  11.731   7.637
45834SOL    HW139399   8.900  11.753   7.548
45834SOL    HW239400   8.860  11.771   7.693
45835SOL     OW39401  14.725   0.515  12.641
45835SOL    HW139402  14.797   0.452  12.635
45835SOL    HW239403  14.720   0.538  12.733
45836SOL     OW39404   9.794   8.094   8.760
45836SOL    HW139405   9.709   8.134   8.741
45836SOL    HW239406   9.799   8.092   8.856
45837SOL     OW39407   3.745   4.665  13.415
45837SOL    HW139408   3.663   4.646  13.460
45837SOL    HW239409   3.792   4.582  13.414
45838SOL     OW39410  12.733   9.502   4.748
45838SOL    HW139411  12.670   9.548   4.692
45838SOL    HW239412  12.685   9.426   4.780
45839SOL     OW39413  12.165   2.627   3.485
45839SOL    HW139414  12.185   2.607   3.577
45839SOL    HW239415  12.093   2.568   3.464
45840SOL     OW39416   7.077   7.911   6.178
45840SOL    HW139417   7.038   7.949   6.257
45840SOL    HW239418   7.056   7.974   6.109
45841SOL     OW39419   3.964   7.085   1.535
45841SOL    HW139420   3.992   7.018   1.597
45841SOL    HW239421   3.998   7.055   1.450
45842SOL     OW39422   6.967   5.107   1.293
45842SOL    HW139423   7.042   5.058   1.327
45842SOL    HW239424   7.002   5.159   1.221
45843SOL     OW39425  12.623   6.718   6.434
45843SOL    HW139426  12.635   6.807   6.402
45843SOL    HW239427  12.681   6.711   6.510
45844SOL     OW39428   7.267   9.115   5.271
45844SOL    HW139429   7.302   9.040   5.224
45844SOL    HW239430   7.175   9.094   5.285
45845SOL     OW39431   9.765   0.623   9.252
45845SOL    HW139432   9.785   0.620   9.346
45845SOL    HW239433   9.850   0.620   9.209
45846SOL     OW39434   5.265  10.188   3.016
45846SOL    HW139435   5.325  10.128   3.061
45846SOL    HW239436   5.282  10.274   3.054
45847SOL     OW39437   9.224   7.689   8.279
45847SOL    HW139438   9.277   7.640   8.216
45847SOL    HW239439   9.178   7.622   8.329
45848SOL     OW39440   1.628   3.139   5.417
45848SOL    HW139441   1.718   3.107   5.417
45848SOL    HW239442   1.575   3.060   5.429
45849SOL     OW39443   7.804   3.977   5.188
45849SOL    HW139444   7.722   3.967   5.140
45849SOL    HW239445   7.852   4.044   5.138
45850SOL     OW39446  11.190   1.576   2.708
45850SOL    HW139447  11.269   1.618   2.675
45850SOL    HW239448  11.162   1.518   2.637
45851SOL     OW39449   5.667  11.769   0.397
45851SOL    HW139450   5.756  11.766   0.432
45851SOL    HW239451   5.666  11.847   0.340
45852SOL     OW39452   4.008   0.934   8.024
45852SOL    HW139453   3.973   1.023   8.015
45852SOL    HW239454   3.984   0.890   7.942
45853SOL     OW39455   0.061   9.680   2.614
45853SOL    HW139456   0.070   9.697   2.708
45853SOL    HW239457   0.000   9.747   2.583
45854SOL     OW39458   9.053   9.226  12.310
45854SOL    HW139459   9.108   9.178  12.371
45854SOL    HW239460   9.115   9.269  12.251
45855SOL     OW39461   2.650   3.828  12.522
45855SOL    HW139462   2.582   3.891  12.496
45855SOL    HW239463   2.685   3.863  12.603
45856SOL     OW39464  12.683   2.942  12.849
45856SOL    HW139465  12.745   2.898  12.907
45856SOL    HW239466  12.725   3.025  12.828
45857SOL     OW39467  12.818   2.121   3.489
45857SOL    HW139468  12.843   2.093   3.577
45857SOL    HW239469  12.856   2.208   3.479
45858SOL     OW39470   0.607   2.853   9.434
45858SOL    HW139471   0.541   2.815   9.491
45858SOL    HW239472   0.570   2.848   9.347
45859SOL     OW39473   8.834   1.528   3.491
45859SOL    HW139474   8.861   1.436   3.494
45859SOL    HW239475   8.747   1.527   3.452
45860SOL     OW39476   8.030   9.809  13.021
45860SOL    HW139477   8.000   9.796  13.111
45860SOL    HW239478   8.111   9.859  13.030
45861SOL     OW39479   9.602   1.219   0.186
45861SOL    HW139480   9.692   1.237   0.213
45861SOL    HW239481   9.608   1.138   0.136
45862SOL     OW39482   0.913  13.280  11.425
45862SOL    HW139483   0.822  13.250  11.417
45862SOL    HW239484   0.959  13.236  11.354
45863SOL     OW39485  10.610   6.729  13.392
45863SOL    HW139486  10.576   6.774  13.315
45863SOL    HW239487  10.700   6.759  13.400
45864SOL     OW39488  11.277   9.020   2.347
45864SOL    HW139489  11.315   9.014   2.435
45864SOL    HW239490  11.218   8.945   2.342
45865SOL     OW39491  12.449  13.483   7.770
45865SOL    HW139492  12.451  13.519   7.681
45865SOL    HW239493  12.536  13.447   7.784
45866SOL     OW39494   1.311   9.344   3.956
45866SOL    HW139495   1.394   9.348   3.907
45866SOL    HW239496   1.248   9.386   3.899
45867SOL     OW39497  12.407   6.947   7.518
45867SOL    HW139498  12.503   6.948   7.519
45867SOL    HW239499  12.382   6.940   7.610
45868SOL     OW39500   9.671   9.815   8.070
45868SOL    HW139501   9.690   9.854   7.984
45868SOL    HW239502   9.752   9.769   8.093
45869SOL     OW39503   0.676  12.673   6.956
45869SOL    HW139504   0.717  12.643   6.874
45869SOL    HW239505   0.746  12.666   7.021
45870SOL     OW39506   1.440   5.057   1.032
45870SOL    HW139507   1.522   5.009   1.017
45870SOL    HW239508   1.466   5.133   1.083
45871SOL     OW39509   4.398   1.524   0.631
45871SOL    HW139510   4.344   1.563   0.562
45871SOL    HW239511   4.431   1.599   0.680
45872SOL     OW39512   8.360   1.324   3.055
45872SOL    HW139513   8.334   1.272   3.131
45872SOL    HW239514   8.285   1.317   2.995
45873SOL     OW39515   6.049   5.471   6.470
45873SOL    HW139516   6.106   5.428   6.534
45873SOL    HW239517   5.993   5.401   6.437
45874SOL     OW39518   7.178   4.357  14.413
45874SOL    HW139519   7.211   4.438  14.373
45874SOL    HW239520   7.245   4.332  14.476
45875SOL     OW39521  11.443   2.347  10.007
45875SOL    HW139522  11.356   2.383   9.989
45875SOL    HW239523  11.504   2.417   9.983
45876SOL     OW39524  14.075  14.406   4.174
45876SOL    HW139525  14.019  14.357   4.114
45876SOL    HW239526  14.020  14.478   4.205
45877SOL     OW39527   6.275  10.662  13.847
45877SOL    HW139528   6.295  10.687  13.756
45877SOL    HW239529   6.277  10.566  13.846
45878SOL     OW39530   7.995   1.487   0.719
45878SOL    HW139531   8.030   1.474   0.630
45878SOL    HW239532   7.912   1.441   0.718
45879SOL     OW39533   3.034  10.649   0.023
45879SOL    HW139534   3.020  10.565   0.066
45879SOL    HW239535   2.960  10.657  14.844
45880SOL     OW39536   1.984   8.695   8.588
45880SOL    HW139537   1.932   8.727   8.514
45880SOL    HW239538   2.041   8.628   8.550
45881SOL     OW39539   1.059   8.120   6.729
45881SOL    HW139540   1.103   8.192   6.773
45881SOL    HW239541   1.071   8.137   6.635
45882SOL     OW39542   1.659   5.210   8.056
45882SOL    HW139543   1.661   5.115   8.043
45882SOL    HW239544   1.727   5.225   8.122
45883SOL     OW39545  10.394   9.335   6.452
45883SOL    HW139546  10.372   9.323   6.544
45883SOL    HW239547  10.343   9.411   6.425
45884SOL     OW39548  14.813   2.539   2.005
45884SOL    HW139549  14.741   2.490   1.965
45884SOL    HW239550  14.836   2.605   1.940
45885SOL     OW39551  10.414   1.546  13.736
45885SOL    HW139552  10.429   1.495  13.657
45885SOL    HW239553  10.416   1.637  13.706
45886SOL     OW39554   5.354   6.276   7.433
45886SOL    HW139555   5.306   6.300   7.512
45886SOL    HW239556   5.360   6.180   7.436
45887SOL     OW39557  13.683   7.854   9.349
45887SOL    HW139558  13.619   7.899   9.404
45887SOL    HW239559  13.759   7.842   9.405
45888SOL     OW39560  13.165   1.807   4.756
45888SOL    HW139561  13.238   1.834   4.813
45888SOL    HW239562  13.090   1.858   4.788
45889SOL     OW39563   1.240   3.744   5.566
45889SOL    HW139564   1.181   3.816   5.544
45889SOL    HW239565   1.239   3.687   5.488
45890SOL     OW39566   1.887   6.537   0.822
45890SOL    HW139567   1.884   6.629   0.847
45890SOL    HW239568   1.945   6.496   0.887
45891SOL     OW39569   0.537   8.725   2.889
45891SOL    HW139570   0.508   8.695   2.803
45891SOL    HW239571   0.533   8.647   2.945
45892SOL     OW39572   8.678   5.311  11.012
45892SOL    HW139573   8.696   5.320  11.106
45892SOL    HW239574   8.593   5.353  11.000
45893SOL     OW39575  10.306   1.275   3.063
45893SOL    HW139576  10.245   1.291   2.991
45893SOL    HW239577  10.390   1.311   3.032
45894SOL     OW39578   7.753   8.854   7.182
45894SOL    HW139579   7.742   8.760   7.164
45894SOL    HW239580   7.782   8.891   7.099
45895SOL     OW39581   2.276  11.046   2.514
45895SOL    HW139582   2.341  10.977   2.525
45895SOL    HW239583   2.265  11.084   2.601
45896SOL     OW39584   9.962  14.297   7.034
45896SOL    HW139585   9.950  14.202   7.029
45896SOL    HW239586   9.929  14.320   7.121
45897SOL     OW39587   8.759   8.060  11.867
45897SOL    HW139588   8.815   8.122  11.820
45897SOL    HW239589   8.757   7.983  11.811
45898SOL     OW39590  12.534   8.705   5.641
45898SOL    HW139591  12.522   8.610   5.636
45898SOL    HW239592  12.581   8.719   5.723
45899SOL     OW39593   0.730   5.471   4.149
45899SOL    HW139594   0.733   5.430   4.062
45899SOL    HW239595   0.731   5.565   4.131
45900SOL     OW39596   4.891  14.855   5.897
45900SOL    HW139597   4.824  14.789   5.881
45900SOL    HW239598   4.931  14.870   5.812
45901SOL     OW39599   2.755   8.487   8.387
45901SOL    HW139600   2.743   8.420   8.321
45901SOL    HW239601   2.826   8.542   8.353
45902SOL     OW39602   1.933   2.456   8.880
45902SOL    HW139603   1.850   2.433   8.837
45902SOL    HW239604   1.983   2.374   8.879
45903SOL     OW39605   7.652  10.032  11.272
45903SOL    HW139606   7.729   9.993  11.232
45903SOL    HW239607   7.668  10.127  11.268
45904SOL     OW39608  10.216  11.734   2.880
45904SOL    HW139609  10.255  11.647   2.887
45904SOL    HW239610  10.284  11.788   2.840
45905SOL     OW39611  11.072   1.470  12.179
45905SOL    HW139612  11.090   1.377  12.167
45905SOL    HW239613  11.000   1.489  12.119
45906SOL     OW39614   4.911   3.901   7.549
45906SOL    HW139615   4.963   3.961   7.496
45906SOL    HW239616   4.823   3.908   7.515
45907SOL     OW39617  14.876  10.430   6.755
45907SOL    HW139618  14.822  10.508   6.762
45907SOL    HW239619   0.084  10.461   6.765
45908SOL     OW39620   5.022   5.678   6.366
45908SOL    HW139621   4.959   5.670   6.295
45908SOL    HW239622   5.039   5.772   6.372
45909SOL     OW39623  13.971  11.992  13.880
45909SOL    HW139624  13.914  11.919  13.906
45909SOL    HW239625  13.990  12.038  13.961
45910SOL     OW39626   7.603   1.654   3.737
45910SOL    HW139627   7.591   1.600   3.815
45910SOL    HW239628   7.556   1.735   3.756
45911SOL     OW39629   3.707   9.046  13.916
45911SOL    HW139630   3.656   9.108  13.969
45911SOL    HW239631   3.782   9.098  13.886
45912SOL     OW39632  14.350   9.911   5.064
45912SOL    HW139633  14.341   9.880   5.154
45912SOL    HW239634  14.270   9.960   5.046
45913SOL     OW39635  14.451  10.448   7.036
45913SOL    HW139636  14.410  10.429   7.120
45913SOL    HW239637  14.432  10.371   6.982
45914SOL     OW39638  10.334   9.049  10.535
45914SOL    HW139639  10.326   9.020  10.444
45914SOL    HW239640  10.428   9.062  10.548
45915SOL     OW39641   9.787   6.470   2.566
45915SOL    HW139642   9.765   6.560   2.539
45915SOL    HW239643   9.756   6.416   2.494
45916SOL     OW39644   0.686  10.073   4.553
45916SOL    HW139645   0.752  10.103   4.616
45916SOL    HW239646   0.722   9.993   4.517
45917SOL     OW39647   5.859  14.711  11.945
45917SOL    HW139648   5.898  14.730  12.031
45917SOL    HW239649   5.879  14.789  11.893
45918SOL     OW39650  10.956  12.372   4.708
45918SOL    HW139651  10.876  12.386   4.658
45918SOL    HW239652  10.928  12.373   4.799
45919SOL     OW39653   3.386   3.089   5.076
45919SOL    HW139654   3.348   3.018   5.024
45919SOL    HW239655   3.319   3.108   5.142
45920SOL     OW39656   6.588  12.302   9.640
45920SOL    HW139657   6.639  12.312   9.720
45920SOL    HW239658   6.613  12.377   9.586
45921SOL     OW39659   4.571   2.432  11.364
45921SOL    HW139660   4.592   2.471  11.279
45921SOL    HW239661   4.476   2.423  11.363
45922SOL     OW39662   6.836  14.845  12.981
45922SOL    HW139663   6.895   0.037  12.963
45922SOL    HW239664   6.892  14.768  12.976
45923SOL     OW39665  14.330  10.176   7.444
45923SOL    HW139666  14.400  10.135   7.393
45923SOL    HW239667  14.342  10.143   7.533
45924SOL     OW39668   0.856   2.225   4.675
45924SOL    HW139669   0.899   2.185   4.750
45924SOL    HW239670   0.924   2.276   4.631
45925SOL     OW39671  11.428  11.375  10.536
45925SOL    HW139672  11.435  11.368  10.631
45925SOL    HW239673  11.334  11.381  10.518
45926SOL     OW39674  13.141   2.997   4.824
45926SOL    HW139675  13.221   3.014   4.774
45926SOL    HW239676  13.129   3.076   4.876
45927SOL     OW39677  12.960   7.944   2.336
45927SOL    HW139678  12.901   7.967   2.408
45927SOL    HW239679  12.961   7.849   2.336
45928SOL     OW39680  13.489   4.378  10.437
45928SOL    HW139681  13.492   4.426  10.520
45928SOL    HW239682  13.437   4.300  10.457
45929SOL     OW39683   0.823   1.861   7.939
45929SOL    HW139684   0.770   1.785   7.963
45929SOL    HW239685   0.911   1.841   7.972
45930SOL     OW39686   3.358  11.171  12.205
45930SOL    HW139687   3.304  11.094  12.190
45930SOL    HW239688   3.309  11.222  12.269
45931SOL     OW39689   4.643   6.785  14.498
45931SOL    HW139690   4.676   6.760  14.412
45931SOL    HW239691   4.633   6.880  14.494
45932SOL     OW39692   9.795   1.646   9.059
45932SOL    HW139693   9.859   1.717   9.053
45932SOL    HW239694   9.710   1.689   9.056
45933SOL     OW39695   7.203   3.391   0.104
45933SOL    HW139696   7.277   3.436   0.144
45933SOL    HW239697   7.137   3.459   0.092
45934SOL     OW39698   9.356   6.324   1.081
45934SOL    HW139699   9.294   6.370   1.137
45934SOL    HW239700   9.307   6.251   1.045
45935SOL     OW39701   0.687  14.524   0.764
45935SOL    HW139702   0.715  14.606   0.804
45935SOL    HW239703   0.611  14.497   0.816
45936SOL     OW39704  14.340  10.754  13.791
45936SOL    HW139705  14.416  10.756  13.848
45936SOL    HW239706  14.265  10.768  13.849
45937SOL     OW39707   4.435  10.728  14.455
45937SOL    HW139708   4.401  10.798  14.400
45937SOL    HW239709   4.529  10.747  14.463
45938SOL     OW39710   2.467   2.043   5.770
45938SOL    HW139711   2.424   1.968   5.813
45938SOL    HW239712   2.479   2.107   5.840
45939SOL     OW39713   6.238   3.874   1.858
45939SOL    HW139714   6.318   3.925   1.871
45939SOL    HW239715   6.242   3.807   1.926
45940SOL     OW39716   2.408   2.461   0.625
45940SOL    HW139717   2.439   2.405   0.553
45940SOL    HW239718   2.480   2.459   0.689
45941SOL     OW39719   0.415  12.803  13.969
45941SOL    HW139720   0.450  12.718  13.995
45941SOL    HW239721   0.490  12.862  13.975
45942SOL     OW39722  12.015  14.868   6.643
45942SOL    HW139723  11.972  14.860   6.728
45942SOL    HW239724  11.963   0.050   6.595
45943SOL     OW39725   9.458   9.821  10.204
45943SOL    HW139726   9.405   9.775  10.269
45943SOL    HW239727   9.400   9.832  10.129
45944SOL     OW39728  12.908   0.090   0.560
45944SOL    HW139729  12.836   0.064   0.617
45944SOL    HW239730  12.891   0.044   0.477
45945SOL     OW39731   8.510   5.058  13.112
45945SOL    HW139732   8.561   5.089  13.037
45945SOL    HW239733   8.567   5.075  13.187
45946SOL     OW39734   7.562  14.013  10.167
45946SOL    HW139735   7.655  13.992  10.156
45946SOL    HW239736   7.557  14.059  10.251
45947SOL     OW39737   0.765   9.147   3.869
45947SOL    HW139738   0.698   9.080   3.880
45947SOL    HW239739   0.755   9.205   3.944
45948SOL     OW39740  10.632  13.459   4.305
45948SOL    HW139741  10.578  13.382   4.325
45948SOL    HW239742  10.571  13.523   4.268
45949SOL     OW39743  11.737   8.158   8.967
45949SOL    HW139744  11.762   8.077   9.011
45949SOL    HW239745  11.663   8.191   9.018
45950SOL     OW39746  10.920   0.322   6.186
45950SOL    HW139747  10.827   0.307   6.201
45950SOL    HW239748  10.930   0.322   6.091
45951SOL     OW39749  13.147   0.910  12.978
45951SOL    HW139750  13.149   0.815  12.967
45951SOL    HW239751  13.225   0.929  13.031
45952SOL     OW39752   5.590   3.374  10.874
45952SOL    HW139753   5.587   3.465  10.844
45952SOL    HW239754   5.683   3.355  10.884
45953SOL     OW39755   4.757   9.999   5.924
45953SOL    HW139756   4.814  10.041   5.989
45953SOL    HW239757   4.785  10.036   5.840
45954SOL     OW39758   2.051   8.581   5.747
45954SOL    HW139759   2.118   8.534   5.797
45954SOL    HW239760   1.978   8.518   5.740
45955SOL     OW39761  13.619   5.632  13.625
45955SOL    HW139762  13.698   5.593  13.589
45955SOL    HW239763  13.553   5.620  13.557
45956SOL     OW39764  12.008  14.226   4.831
45956SOL    HW139765  11.927  14.248   4.785
45956SOL    HW239766  12.000  14.133   4.849
45957SOL     OW39767   0.372  13.085   0.817
45957SOL    HW139768   0.445  13.124   0.769
45957SOL    HW239769   0.411  13.018   0.872
45958SOL     OW39770   2.029   7.642   1.731
45958SOL    HW139771   2.098   7.701   1.700
45958SOL    HW239772   2.076   7.564   1.760
45959SOL     OW39773  10.238   7.792   1.445
45959SOL    HW139774  10.257   7.879   1.411
45959SOL    HW239775  10.213   7.807   1.536
45960SOL     OW39776   5.049   6.576   4.994
45960SOL    HW139777   5.084   6.489   5.012
45960SOL    HW239778   4.957   6.561   4.973
45961SOL     OW39779   2.126   2.083  11.026
45961SOL    HW139780   2.116   2.155  10.964
45961SOL    HW239781   2.098   2.005  10.976
45962SOL     OW39782   9.014  12.013   6.208
45962SOL    HW139783   8.935  12.053   6.245
45962SOL    HW239784   8.994  11.919   6.206
45963SOL     OW39785   0.191  12.621  13.316
45963SOL    HW139786   0.274  12.656  13.284
45963SOL    HW239787   0.201  12.526  13.313
45964SOL     OW39788   4.875   6.362  13.922
45964SOL    HW139789   4.913   6.349  13.835
45964SOL    HW239790   4.823   6.283  13.938
45965SOL     OW39791  13.322  10.241   8.389
45965SOL    HW139792  13.256  10.240   8.458
45965SOL    HW239793  13.355  10.331   8.390
45966SOL     OW39794   2.207   3.342   5.730
45966SOL    HW139795   2.155   3.383   5.798
45966SOL    HW239796   2.148   3.337   5.655
45967SOL     OW39797   7.016   3.206   8.167
45967SOL    HW139798   6.993   3.298   8.151
45967SOL    HW239799   6.932   3.163   8.182
45968SOL     OW39800   9.711   0.892  12.671
45968SOL    HW139801   9.750   0.901  12.584
45968SOL    HW239802   9.785   0.869  12.728
45969SOL     OW39803   1.180   8.790   5.141
45969SOL    HW139804   1.208   8.706   5.103
45969SOL    HW239805   1.246   8.810   5.206
45970SOL     OW39806  12.317   2.076   1.845
45970SOL    HW139807  12.338   2.119   1.762
45970SOL    HW239808  12.316   1.982   1.824
45971SOL     OW39809   6.057   4.925  10.416
45971SOL    HW139810   5.981   4.905  10.362
45971SOL    HW239811   6.116   4.851  10.403
45972SOL     OW39812   0.472  14.828  14.131
45972SOL    HW139813   0.434  14.775  14.061
45972SOL    HW239814   0.505   0.024  14.088
45973SOL     OW39815   6.569   5.723   4.244
45973SOL    HW139816   6.632   5.653   4.228
45973SOL    HW239817   6.607   5.773   4.317
45974SOL     OW39818   3.336  11.268   2.476
45974SOL    HW139819   3.337  11.344   2.533
45974SOL    HW239820   3.321  11.194   2.535
45975SOL     OW39821   0.149   7.829   7.252
45975SOL    HW139822   0.070   7.791   7.215
45975SOL    HW239823   0.199   7.753   7.285
45976SOL     OW39824  10.831  13.636   2.447
45976SOL    HW139825  10.864  13.657   2.360
45976SOL    HW239826  10.910  13.615   2.498
45977SOL     OW39827   6.543  10.584  10.262
45977SOL    HW139828   6.483  10.546  10.326
45977SOL    HW239829   6.486  10.611  10.189
45978SOL     OW39830   6.348  10.230   8.311
45978SOL    HW139831   6.403  10.153   8.328
45978SOL    HW239832   6.354  10.282   8.391
45979SOL     OW39833  13.650   9.089   0.468
45979SOL    HW139834  13.637   8.996   0.487
45979SOL    HW239835  13.745   9.101   0.471
45980SOL     OW39836  11.565   6.329  13.720
45980SOL    HW139837  11.612   6.390  13.778
45980SOL    HW239838  11.577   6.244  13.761
45981SOL     OW39839   8.115   3.820  13.540
45981SOL    HW139840   8.165   3.901  13.552
45981SOL    HW239841   8.168   3.767  13.481
45982SOL     OW39842   3.139  10.902   1.633
45982SOL    HW139843   3.124  10.921   1.725
45982SOL    HW239844   3.091  10.821   1.617
45983SOL     OW39845   0.758   3.138   9.207
45983SOL    HW139846   0.664   3.154   9.201
45983SOL    HW239847   0.771   3.106   9.297
45984SOL     OW39848  10.142  13.411   6.433
45984SOL    HW139849  10.146  13.484   6.372
45984SOL    HW239850  10.232  13.378   6.438
45985SOL     OW39851  10.265  13.702   9.016
45985SOL    HW139852  10.303  13.636   9.074
45985SOL    HW239853  10.228  13.652   8.943
45986SOL     OW39854   8.871  10.811  12.210
45986SOL    HW139855   8.910  10.724  12.206
45986SOL    HW239856   8.783  10.799  12.174
45987SOL     OW39857  10.573   7.593   5.999
45987SOL    HW139858  10.572   7.498   6.016
45987SOL    HW239859  10.666   7.615   5.994
45988SOL     OW39860   9.304   5.273  14.827
45988SOL    HW139861   9.313   5.364  14.852
45988SOL    HW239862   9.348   5.266  14.742
45989SOL     OW39863  14.652   7.287   0.354
45989SOL    HW139864  14.742   7.295   0.387
45989SOL    HW239865  14.662   7.253   0.265
45990SOL     OW39866   4.957   3.353  10.022
45990SOL    HW139867   5.032   3.300   9.992
45990SOL    HW239868   4.996   3.423  10.073
45991SOL     OW39869   1.875   6.105   9.033
45991SOL    HW139870   1.849   6.082   9.122
45991SOL    HW239871   1.842   6.034   8.978
45992SOL     OW39872   1.404  12.991   7.124
45992SOL    HW139873   1.466  12.955   7.187
45992SOL    HW239874   1.445  12.977   7.039
45993SOL     OW39875   5.614   3.600   3.387
45993SOL    HW139876   5.660   3.609   3.470
45993SOL    HW239877   5.550   3.671   3.387
45994SOL     OW39878  13.673   7.489  13.378
45994SOL    HW139879  13.693   7.517  13.468
45994SOL    HW239880  13.748   7.518  13.327
45995SOL     OW39881   4.972   8.790  13.313
45995SOL    HW139882   4.952   8.754  13.400
45995SOL    HW239883   4.945   8.722  13.252
45996SOL     OW39884   7.522   6.051   9.420
45996SOL    HW139885   7.513   6.124   9.481
45996SOL    HW239886   7.585   5.992   9.462
45997SOL     OW39887  14.787   6.411   7.394
45997SOL    HW139888  14.804   6.329   7.348
45997SOL    HW239889  14.804   6.391   7.486
45998SOL     OW39890   5.262   0.998   0.434
45998SOL    HW139891   5.357   0.983   0.432
45998SOL    HW239892   5.237   0.979   0.524
45999SOL     OW39893   1.019  10.933   2.204
45999SOL    HW139894   1.046  10.843   2.182
45999SOL    HW239895   0.946  10.950   2.145
46000SOL     OW39896   2.931   3.349  13.086
46000SOL    HW139897   3.026   3.342  13.074
46000SOL    HW239898   2.921   3.378  13.177
46001SOL     OW39899   2.818  14.071   7.749
46001SOL    HW139900   2.873  14.017   7.806
46001SOL    HW239901   2.792  14.145   7.803
46002SOL     OW39902   9.181  10.122   8.707
46002SOL    HW139903   9.231  10.097   8.784
46002SOL    HW239904   9.166  10.216   8.716
46003SOL     OW39905   1.599  11.853  14.302
46003SOL    HW139906   1.507  11.835  14.283
46003SOL    HW239907   1.606  11.948  14.299
46004SOL     OW39908   3.262   1.835   1.332
46004SOL    HW139909   3.234   1.746   1.353
46004SOL    HW239910   3.354   1.838   1.356
46005SOL     OW39911   2.810  14.116   1.700
46005SOL    HW139912   2.795  14.204   1.666
46005SOL    HW239913   2.755  14.059   1.646
46006SOL     OW39914  12.322   8.206   0.488
46006SOL    HW139915  12.394   8.258   0.452
46006SOL    HW239916  12.348   8.115   0.473
46007SOL     OW39917  14.092  11.433   9.548
46007SOL    HW139918  14.186  11.415   9.546
46007SOL    HW239919  14.086  11.522   9.582
46008SOL     OW39920   1.923   8.318  10.777
46008SOL    HW139921   1.940   8.408  10.749
46008SOL    HW239922   2.007   8.286  10.810
46009SOL     OW39923  11.868   7.048   5.922
46009SOL    HW139924  11.881   7.109   5.995
46009SOL    HW239925  11.862   6.962   5.963
46010SOL     OW39926  13.714   1.762  12.782
46010SOL    HW139927  13.752   1.810  12.855
46010SOL    HW239928  13.649   1.704  12.822
46011SOL     OW39929  13.077  12.617   0.412
46011SOL    HW139930  13.117  12.609   0.498
46011SOL    HW239931  13.028  12.535   0.401
46012SOL     OW39932  12.063   9.887  14.542
46012SOL    HW139933  11.982   9.938  14.551
46012SOL    HW239934  12.046   9.807  14.591
46013SOL     OW39935  14.286   0.843  13.707
46013SOL    HW139936  14.318   0.930  13.729
46013SOL    HW239937  14.293   0.838  13.611
46014SOL     OW39938   4.767   7.473   9.415
46014SOL    HW139939   4.789   7.565   9.403
46014SOL    HW239940   4.717   7.450   9.336
46015SOL     OW39941   7.740   7.443   6.603
46015SOL    HW139942   7.720   7.435   6.696
46015SOL    HW239943   7.792   7.524   6.596
46016SOL     OW39944   1.761   4.370   0.348
46016SOL    HW139945   1.844   4.416   0.360
46016SOL    HW239946   1.747   4.369   0.254
46017SOL     OW39947   2.209   8.986  12.777
46017SOL    HW139948   2.162   8.905  12.757
46017SOL    HW239949   2.302   8.963  12.767
46018SOL     OW39950  13.815  13.290  14.105
46018SOL    HW139951  13.886  13.299  14.169
46018SOL    HW239952  13.766  13.213  14.135
46019SOL     OW39953   8.329   3.976   8.188
46019SOL    HW139954   8.380   3.907   8.232
46019SOL    HW239955   8.242   3.937   8.176
46020SOL     OW39956   2.595  10.113  12.691
46020SOL    HW139957   2.632  10.058  12.623
46020SOL    HW239958   2.584  10.055  12.766
46021SOL     OW39959  14.025   7.072   4.167
46021SOL    HW139960  13.941   7.117   4.153
46021SOL    HW239961  14.035   7.015   4.091
46022SOL     OW39962   0.134   2.665  12.758
46022SOL    HW139963   0.066   2.731  12.749
46022SOL    HW239964   0.086   2.582  12.764
46023SOL     OW39965   3.610   8.104  10.648
46023SOL    HW139966   3.669   8.068  10.582
46023SOL    HW239967   3.621   8.199  10.640
46024SOL     OW39968   5.931   6.964  10.587
46024SOL    HW139969   5.846   6.968  10.542
46024SOL    HW239970   5.987   6.914  10.528
46025SOL     OW39971   7.023   3.330  12.531
46025SOL    HW139972   7.002   3.254  12.585
46025SOL    HW239973   6.957   3.396  12.555
46026SOL     OW39974   5.055   7.670   2.157
46026SOL    HW139975   5.022   7.642   2.072
46026SOL    HW239976   5.077   7.589   2.203
46027SOL     OW39977   1.573  10.518  11.508
46027SOL    HW139978   1.656  10.565  11.496
46027SOL    HW239979   1.588  10.462  11.584
46028SOL     OW39980   1.387   0.036   5.168
46028SOL    HW139981   1.386   0.097   5.093
46028SOL    HW239982   1.346   0.085   5.239
46029SOL     OW39983   9.658   6.913   4.597
46029SOL    HW139984   9.645   7.007   4.588
46029SOL    HW239985   9.612   6.875   4.522
46030SOL     OW39986   9.899   0.668   7.526
46030SOL    HW139987   9.913   0.756   7.561
46030SOL    HW239988   9.817   0.675   7.477
46031SOL     OW39989   5.872   6.294   0.080
46031SOL    HW139990   5.963   6.297   0.111
46031SOL    HW239991   5.837   6.380   0.101
46032SOL     OW39992   2.898  11.622   3.312
46032SOL    HW139993   2.976  11.589   3.356
46032SOL    HW239994   2.831  11.555   3.329
46033SOL     OW39995   7.357   4.256   6.795
46033SOL    HW139996   7.388   4.263   6.705
46033SOL    HW239997   7.263   4.244   6.787
46034SOL     OW39998   6.796  11.447   0.270
46034SOL    HW139999   6.733  11.423   0.203
46034SOL    HW240000   6.799  11.371   0.328
46035SOL     OW40001   6.608   1.938   6.991
46035SOL    HW140002   6.601   1.961   6.898
46035SOL    HW240003   6.689   1.888   6.998
46036SOL     OW40004  13.146   2.982   6.800
46036SOL    HW140005  13.160   2.905   6.855
46036SOL    HW240006  13.232   3.021   6.791
46037SOL     OW40007   7.974   7.222   6.549
46037SOL    HW140008   7.894   7.275   6.549
46037SOL    HW240009   7.972   7.175   6.632
46038SOL     OW40010  11.037   8.625   9.664
46038SOL    HW140011  11.124   8.663   9.663
46038SOL    HW240012  11.002   8.644   9.577
46039SOL     OW40013   9.738   6.985  12.116
46039SOL    HW140014   9.738   6.996  12.212
46039SOL    HW240015   9.700   6.898  12.102
46040SOL     OW40016   7.997   8.346   8.601
46040SOL    HW140017   7.951   8.331   8.518
46040SOL    HW240018   8.003   8.260   8.641
46041SOL     OW40019   9.609   2.226   8.574
46041SOL    HW140020   9.700   2.198   8.558
46041SOL    HW240021   9.556   2.151   8.546
46042SOL     OW40022   5.953   3.688  11.410
46042SOL    HW140023   5.904   3.684  11.328
46042SOL    HW240024   5.961   3.596  11.438
46043SOL     OW40025  13.141  12.434   9.162
46043SOL    HW140026  13.201  12.362   9.144
46043SOL    HW240027  13.195  12.513   9.157
46044SOL     OW40028   4.078   6.694  12.572
46044SOL    HW140029   4.147   6.747  12.532
46044SOL    HW240030   4.029   6.754  12.628
46045SOL     OW40031   2.726   4.789   8.799
46045SOL    HW140032   2.664   4.738   8.850
46045SOL    HW240033   2.793   4.726   8.772
46046SOL     OW40034   7.889   1.558  10.374
46046SOL    HW140035   7.913   1.548  10.466
46046SOL    HW240036   7.945   1.495  10.328
46047SOL     OW40037  12.005   2.270   6.092
46047SOL    HW140038  11.915   2.304   6.091
46047SOL    HW240039  11.997   2.182   6.128
46048SOL     OW40040  12.181   3.192   1.879
46048SOL    HW140041  12.193   3.286   1.891
46048SOL    HW240042  12.253   3.166   1.821
46049SOL     OW40043  11.102   5.342  11.756
46049SOL    HW140044  11.030   5.395  11.791
46049SOL    HW240045  11.180   5.397  11.767
46050SOL     OW40046   1.326   8.057   4.986
46050SOL    HW140047   1.234   8.085   4.983
46050SOL    HW240048   1.352   8.068   5.077
46051SOL     OW40049   1.727   4.704   2.992
46051SOL    HW140050   1.669   4.775   2.965
46051SOL    HW240051   1.755   4.728   3.080
46052SOL     OW40052   0.068  10.346   5.846
46052SOL    HW140053   0.118  10.321   5.924
46052SOL    HW240054   0.082  10.273   5.785
46053SOL     OW40055  12.962   6.839   4.734
46053SOL    HW140056  12.905   6.814   4.661
46053SOL    HW240057  12.903   6.845   4.809
46054SOL     OW40058   6.515   0.592  10.827
46054SOL    HW140059   6.441   0.536  10.853
46054SOL    HW240060   6.577   0.532  10.787
46055SOL     OW40061   6.426  12.120   7.296
46055SOL    HW140062   6.442  12.210   7.269
46055SOL    HW240063   6.457  12.067   7.222
46056SOL     OW40064  13.029   1.893   5.317
46056SOL    HW140065  13.066   1.866   5.233
46056SOL    HW240066  13.070   1.834   5.381
46057SOL     OW40067   0.003   7.348   1.629
46057SOL    HW140068  14.833   7.358   1.550
46057SOL    HW240069  14.845   7.408   1.692
46058SOL     OW40070   5.266   5.431  13.803
46058SOL    HW140071   5.308   5.516  13.795
46058SOL    HW240072   5.199   5.443  13.871
46059SOL     OW40073   6.238   6.458   1.227
46059SOL    HW140074   6.152   6.474   1.265
46059SOL    HW240075   6.260   6.540   1.182
46060SOL     OW40076   8.185   3.393  12.652
46060SOL    HW140077   8.094   3.368  12.663
46060SOL    HW240078   8.232   3.310  12.640
46061SOL     OW40079   5.663   3.473   4.476
46061SOL    HW140080   5.570   3.450   4.483
46061SOL    HW240081   5.686   3.454   4.385
46062SOL     OW40082   7.003  13.899   0.649
46062SOL    HW140083   7.057  13.974   0.621
46062SOL    HW240084   6.914  13.922   0.622
46063SOL     OW40085  12.581  10.625   7.313
46063SOL    HW140086  12.591  10.530   7.309
46063SOL    HW240087  12.556  10.651   7.224
46064SOL     OW40088  14.652  10.799   3.578
46064SOL    HW140089  14.710  10.762   3.644
46064SOL    HW240090  14.711  10.836   3.512
46065SOL     OW40091   6.473  11.087  13.233
46065SOL    HW140092   6.515  11.103  13.149
46065SOL    HW240093   6.539  11.111  13.298
46066SOL     OW40094   4.586  13.542   4.336
46066SOL    HW140095   4.523  13.543   4.264
46066SOL    HW240096   4.532  13.549   4.415
46067SOL     OW40097   9.239  10.275   3.043
46067SOL    HW140098   9.155  10.232   3.057
46067SOL    HW240099   9.301  10.222   3.092
46068SOL     OW40100  10.438   3.588   4.905
46068SOL    HW140101  10.423   3.661   4.966
46068SOL    HW240102  10.533   3.589   4.890
46069SOL     OW40103   0.155   2.853   4.005
46069SOL    HW140104   0.083   2.830   4.064
46069SOL    HW240105   0.137   2.803   3.925
46070SOL     OW40106   5.012   8.474  12.894
46070SOL    HW140107   5.040   8.418  12.966
46070SOL    HW240108   4.957   8.417  12.840
46071SOL     OW40109  13.761   4.123   5.504
46071SOL    HW140110  13.806   4.109   5.588
46071SOL    HW240111  13.800   4.203   5.469
46072SOL     OW40112  13.136   8.192   8.149
46072SOL    HW140113  13.128   8.124   8.216
46072SOL    HW240114  13.188   8.152   8.080
46073SOL     OW40115   1.717   6.126   6.129
46073SOL    HW140116   1.660   6.171   6.192
46073SOL    HW240117   1.658   6.099   6.059
46074SOL     OW40118   1.169   7.009  13.324
46074SOL    HW140119   1.176   7.103  13.305
46074SOL    HW240120   1.111   7.005  13.400
46075SOL     OW40121   5.158  12.452  13.171
46075SOL    HW140122   5.073  12.428  13.207
46075SOL    HW240123   5.171  12.542  13.199
46076SOL     OW40124   2.169   3.847  13.627
46076SOL    HW140125   2.110   3.889  13.690
46076SOL    HW240126   2.112   3.825  13.553
46077SOL     OW40127   2.158   8.717   8.808
46077SOL    HW140128   2.080   8.701   8.755
46077SOL    HW240129   2.205   8.787   8.762
46078SOL     OW40130   9.336   0.441   2.647
46078SOL    HW140131   9.288   0.402   2.575
46078SOL    HW240132   9.348   0.370   2.710
46079SOL     OW40133   8.864   2.440  12.624
46079SOL    HW140134   8.823   2.407  12.704
46079SOL    HW240135   8.952   2.402  12.624
46080SOL     OW40136  12.226   7.058   4.363
46080SOL    HW140137  12.213   7.029   4.453
46080SOL    HW240138  12.268   7.144   4.371
46081SOL     OW40139  12.780   4.570   8.296
46081SOL    HW140140  12.828   4.605   8.371
46081SOL    HW240141  12.710   4.518   8.334
46082SOL     OW40142   9.953   3.043   1.826
46082SOL    HW140143  10.005   3.114   1.865
46082SOL    HW240144   9.865   3.056   1.860
46083SOL     OW40145   9.664   9.223   7.910
46083SOL    HW140146   9.587   9.272   7.940
46083SOL    HW240147   9.676   9.249   7.819
46084SOL     OW40148   9.361  11.573   4.771
46084SOL    HW140149   9.448  11.552   4.737
46084SOL    HW240150   9.377  11.604   4.861
46085SOL     OW40151   6.996   2.042  12.831
46085SOL    HW140152   6.993   1.962  12.778
46085SOL    HW240153   7.054   2.100  12.783
46086SOL     OW40154  13.431   2.569   2.115
46086SOL    HW140155  13.400   2.654   2.145
46086SOL    HW240156  13.360   2.535   2.060
46087SOL     OW40157   3.323  13.844   9.637
46087SOL    HW140158   3.330  13.936   9.665
46087SOL    HW240159   3.229  13.829   9.629
46088SOL     OW40160   4.369   9.819   3.530
46088SOL    HW140161   4.378   9.914   3.541
46088SOL    HW240162   4.424   9.799   3.454
46089SOL     OW40163  12.848   4.415   4.385
46089SOL    HW140164  12.830   4.327   4.351
46089SOL    HW240165  12.787   4.471   4.337
46090SOL     OW40166   6.215  11.005  12.271
46090SOL    HW140167   6.262  10.970  12.195
46090SOL    HW240168   6.281  11.055  12.319
46091SOL     OW40169   6.895   9.679   3.049
46091SOL    HW140170   6.814   9.728   3.064
46091SOL    HW240171   6.906   9.678   2.954
46092SOL     OW40172   9.450   0.252   2.186
46092SOL    HW140173   9.431   0.198   2.263
46092SOL    HW240174   9.411   0.205   2.113
46093SOL     OW40175  11.328   9.868   4.369
46093SOL    HW140176  11.390   9.893   4.438
46093SOL    HW240177  11.287   9.788   4.401
46094SOL     OW40178   9.820   0.405   7.783
46094SOL    HW140179   9.749   0.469   7.774
46094SOL    HW240180   9.790   0.346   7.853
46095SOL     OW40181   3.779   1.303   5.486
46095SOL    HW140182   3.829   1.385   5.479
46095SOL    HW240183   3.842   1.235   5.463
46096SOL     OW40184   0.484   4.048   7.472
46096SOL    HW140185   0.424   4.027   7.545
46096SOL    HW240186   0.512   3.963   7.439
46097SOL     OW40187  10.631   6.838   1.458
46097SOL    HW140188  10.657   6.746   1.449
46097SOL    HW240189  10.652   6.859   1.549
46098SOL     OW40190   2.571   1.059  11.335
46098SOL    HW140191   2.556   1.009  11.415
46098SOL    HW240192   2.636   1.125  11.360
46099SOL     OW40193   0.277   1.406  11.171
46099SOL    HW140194   0.189   1.377  11.148
46099SOL    HW240195   0.274   1.501  11.165
46100SOL     OW40196   5.152  13.121   5.422
46100SOL    HW140197   5.078  13.176   5.396
46100SOL    HW240198   5.148  13.046   5.362
46101SOL     OW40199   0.915   4.820   0.785
46101SOL    HW140200   0.903   4.848   0.876
46101SOL    HW240201   0.965   4.891   0.745
46102SOL     OW40202  14.220   4.539   3.396
46102SOL    HW140203  14.154   4.550   3.465
46102SOL    HW240204  14.173   4.498   3.324
46103SOL     OW40205  12.602  13.522   4.181
46103SOL    HW140206  12.580  13.548   4.270
46103SOL    HW240207  12.523  13.481   4.147
46104SOL     OW40208   7.734  11.495  12.343
46104SOL    HW140209   7.717  11.586  12.367
46104SOL    HW240210   7.819  11.475  12.382
46105SOL     OW40211  13.553  12.414   9.204
46105SOL    HW140212  13.646  12.433   9.209
46105SOL    HW240213  13.521  12.467   9.131
46106SOL     OW40214   7.232   0.037  13.159
46106SOL    HW140215   7.143   0.004  13.174
46106SOL    HW240216   7.289  14.846  13.184
46107SOL     OW40217   6.918   7.034   4.406
46107SOL    HW140218   6.829   7.050   4.374
46107SOL    HW240219   6.971   7.104   4.368
46108SOL     OW40220  11.486   9.232   6.847
46108SOL    HW140221  11.553   9.299   6.863
46108SOL    HW240222  11.408   9.267   6.890
46109SOL     OW40223  11.153   1.173   6.410
46109SOL    HW140224  11.125   1.083   6.429
46109SOL    HW240225  11.074   1.215   6.376
46110SOL     OW40226   9.817   7.945   1.547
46110SOL    HW140227   9.795   8.006   1.617
46110SOL    HW240228   9.891   7.985   1.502
46111SOL     OW40229   8.535  13.628  14.153
46111SOL    HW140230   8.545  13.592  14.241
46111SOL    HW240231   8.451  13.674  14.156
46112SOL     OW40232   4.836   5.921  10.332
46112SOL    HW140233   4.894   5.848  10.351
46112SOL    HW240234   4.749   5.888  10.352
46113SOL     OW40235  12.536  10.015   3.367
46113SOL    HW140236  12.475   9.944   3.390
46113SOL    HW240237  12.479  10.087   3.340
46114SOL     OW40238   2.634   9.906  14.714
46114SOL    HW140239   2.596   9.821  14.737
46114SOL    HW240240   2.638   9.954  14.797
46115SOL     OW40241   9.044   1.186   0.990
46115SOL    HW140242   9.114   1.217   0.933
46115SOL    HW240243   8.975   1.155   0.931
46116SOL     OW40244   5.701   3.152  10.122
46116SOL    HW140245   5.788   3.153  10.161
46116SOL    HW240246   5.652   3.217  10.171
46117SOL     OW40247   4.727   1.793  11.937
46117SOL    HW140248   4.658   1.762  11.996
46117SOL    HW240249   4.808   1.757  11.974
46118SOL     OW40250   5.907   1.417   9.852
46118SOL    HW140251   5.857   1.499   9.847
46118SOL    HW240252   5.843   1.349   9.831
46119SOL     OW40253   3.848   2.398  10.989
46119SOL    HW140254   3.784   2.327  10.997
46119SOL    HW240255   3.909   2.367  10.921
46120SOL     OW40256   9.342   4.158  13.009
46120SOL    HW140257   9.356   4.114  13.093
46120SOL    HW240258   9.416   4.218  13.000
46121SOL     OW40259   8.159  14.313   6.922
46121SOL    HW140260   8.203  14.285   6.841
46121SOL    HW240261   8.066  14.297   6.906
46122SOL     OW40262   2.878   4.931   6.773
46122SOL    HW140263   2.957   4.897   6.731
46122SOL    HW240264   2.811   4.925   6.706
46123SOL     OW40265  14.204   8.249   3.688
46123SOL    HW140266  14.294   8.226   3.665
46123SOL    HW240267  14.180   8.319   3.628
46124SOL     OW40268   3.931  10.308  12.315
46124SOL    HW140269   3.929  10.336  12.223
46124SOL    HW240270   4.008  10.251  12.320
46125SOL     OW40271   4.261   8.733   7.511
46125SOL    HW140272   4.339   8.725   7.565
46125SOL    HW240273   4.245   8.828   7.505
46126SOL     OW40274   3.640   1.105  13.061
46126SOL    HW140275   3.584   1.117  13.138
46126SOL    HW240276   3.637   1.190  13.016
46127SOL     OW40277   0.957   9.121   4.624
46127SOL    HW140278   0.918   9.209   4.627
46127SOL    HW240279   1.048   9.134   4.651
46128SOL     OW40280   2.528  10.403   1.014
46128SOL    HW140281   2.613  10.428   1.049
46128SOL    HW240282   2.548  10.352   0.935
46129SOL     OW40283   0.973   3.330  10.594
46129SOL    HW140284   1.067   3.350  10.586
46129SOL    HW240285   0.966   3.238  10.570
46130SOL     OW40286   0.199  12.006   7.807
46130SOL    HW140287   0.144  12.048   7.740
46130SOL    HW240288   0.144  11.936   7.842
46131SOL     OW40289   1.287   2.050  10.597
46131SOL    HW140290   1.247   2.053  10.511
46131SOL    HW240291   1.370   2.098  10.587
46132SOL     OW40292   1.709   7.093   3.431
46132SOL    HW140293   1.665   7.008   3.438
46132SOL    HW240294   1.752   7.105   3.516
46133SOL     OW40295  14.171   7.014   3.951
46133SOL    HW140296  14.191   7.107   3.940
46133SOL    HW240297  14.256   6.972   3.958
46134SOL     OW40298   7.376  10.831   6.659
46134SOL    HW140299   7.461  10.787   6.669
46134SOL    HW240300   7.314  10.761   6.641
46135SOL     OW40301   7.651  11.754  10.020
46135SOL    HW140302   7.628  11.812  10.092
46135SOL    HW240303   7.567  11.725   9.984
46136SOL     OW40304   0.038   4.233   3.925
46136SOL    HW140305   0.128   4.202   3.916
46136SOL    HW240306  14.866   4.164   3.887
46137SOL     OW40307   8.453   6.826   0.688
46137SOL    HW140308   8.460   6.781   0.773
46137SOL    HW240309   8.392   6.898   0.704
46138SOL     OW40310   3.765   5.204   2.113
46138SOL    HW140311   3.723   5.202   2.198
46138SOL    HW240312   3.845   5.255   2.126
46139SOL     OW40313  11.205   9.924   8.488
46139SOL    HW140314  11.141   9.978   8.441
46139SOL    HW240315  11.153   9.854   8.528
46140SOL     OW40316  10.886  12.756   1.857
46140SOL    HW140317  10.839  12.680   1.891
46140SOL    HW240318  10.860  12.828   1.914
46141SOL     OW40319  13.558   2.599   0.246
46141SOL    HW140320  13.582   2.642   0.328
46141SOL    HW240321  13.608   2.518   0.247
46142SOL     OW40322   3.472   9.726   6.893
46142SOL    HW140323   3.503   9.800   6.840
46142SOL    HW240324   3.474   9.652   6.833
46143SOL     OW40325   7.880  14.625  14.196
46143SOL    HW140326   7.842  14.542  14.226
46143SOL    HW240327   7.955  14.639  14.253
46144SOL     OW40328   2.497   0.816   1.610
46144SOL    HW140329   2.551   0.879   1.562
46144SOL    HW240330   2.547   0.734   1.605
46145SOL     OW40331  12.593  11.336  11.294
46145SOL    HW140332  12.505  11.355  11.326
46145SOL    HW240333  12.650  11.354  11.368
46146SOL     OW40334   4.102   2.156  13.487
46146SOL    HW140335   4.041   2.102  13.436
46146SOL    HW240336   4.153   2.093  13.538
46147SOL     OW40337  10.580   4.860   0.427
46147SOL    HW140338  10.654   4.899   0.473
46147SOL    HW240339  10.580   4.769   0.456
46148SOL     OW40340   2.647   1.570  13.398
46148SOL    HW140341   2.695   1.652  13.404
46148SOL    HW240342   2.682   1.517  13.470
46149SOL     OW40343   4.254  13.892   1.891
46149SOL    HW140344   4.336  13.934   1.866
46149SOL    HW240345   4.262  13.803   1.857
46150SOL     OW40346  14.385  13.662   3.394
46150SOL    HW140347  14.453  13.634   3.332
46150SOL    HW240348  14.303  13.647   3.346
46151SOL     OW40349  11.557  10.157   0.164
46151SOL    HW140350  11.550  10.247   0.132
46151SOL    HW240351  11.466  10.127   0.170
46152SOL     OW40352   8.785   3.514  14.696
46152SOL    HW140353   8.834   3.553  14.623
46152SOL    HW240354   8.695   3.546  14.683
46153SOL     OW40355  14.429   8.326   5.409
46153SOL    HW140356  14.439   8.400   5.350
46153SOL    HW240357  14.334   8.311   5.413
46154SOL     OW40358   6.285   3.465  13.715
46154SOL    HW140359   6.312   3.557  13.718
46154SOL    HW240360   6.274   3.445  13.622
46155SOL     OW40361  10.736   4.748  13.393
46155SOL    HW140362  10.678   4.687  13.440
46155SOL    HW240363  10.769   4.806  13.462
46156SOL     OW40364   9.347   4.301   4.691
46156SOL    HW140365   9.442   4.300   4.694
46156SOL    HW240366   9.322   4.388   4.722
46157SOL     OW40367   5.633   0.121  14.236
46157SOL    HW140368   5.707   0.063  14.248
46157SOL    HW240369   5.579   0.078  14.170
46158SOL     OW40370  13.030  10.445  13.116
46158SOL    HW140371  13.022  10.350  13.108
46158SOL    HW240372  12.951  10.473  13.162
46159SOL     OW40373   2.072   6.000   8.070
46159SOL    HW140374   2.030   5.919   8.099
46159SOL    HW240375   2.096   6.045   8.151
46160SOL     OW40376   7.887   4.600   6.666
46160SOL    HW140377   7.966   4.640   6.630
46160SOL    HW240378   7.860   4.535   6.600
46161SOL     OW40379   6.343   1.478   8.953
46161SOL    HW140380   6.323   1.510   9.041
46161SOL    HW240381   6.401   1.403   8.967
46162SOL     OW40382  13.831  14.656   4.688
46162SOL    HW140383  13.861  14.678   4.776
46162SOL    HW240384  13.755  14.599   4.702
46163SOL     OW40385  10.419   5.366   4.554
46163SOL    HW140386  10.386   5.418   4.627
46163SOL    HW240387  10.388   5.412   4.476
46164SOL     OW40388  12.077  12.953  13.154
46164SOL    HW140389  12.156  12.900  13.139
46164SOL    HW240390  12.086  13.027  13.093
46165SOL     OW40391   8.292  12.270   6.623
46165SOL    HW140392   8.313  12.229   6.707
46165SOL    HW240393   8.273  12.196   6.565
46166SOL     OW40394  10.322  12.372   7.385
46166SOL    HW140395  10.404  12.336   7.351
46166SOL    HW240396  10.253  12.329   7.335
46167SOL     OW40397   9.920   5.229   9.220
46167SOL    HW140398   9.941   5.241   9.128
46167SOL    HW240399   9.989   5.276   9.267
46168SOL     OW40400   7.462   8.663   1.170
46168SOL    HW140401   7.547   8.643   1.132
46168SOL    HW240402   7.433   8.580   1.208
46169SOL     OW40403   2.868  10.319   1.872
46169SOL    HW140404   2.916  10.400   1.855
46169SOL    HW240405   2.815  10.339   1.949
46170SOL     OW40406   8.921  12.663   8.817
46170SOL    HW140407   8.948  12.739   8.867
46170SOL    HW240408   8.961  12.589   8.862
46171SOL     OW40409  14.473   6.775   6.108
46171SOL    HW140410  14.432   6.861   6.124
46171SOL    HW240411  14.453   6.756   6.017
46172SOL     OW40412   9.779  13.605   4.225
46172SOL    HW140413   9.688  13.600   4.253
46172SOL    HW240414   9.823  13.535   4.273
46173SOL     OW40415   1.851   9.398   6.726
46173SOL    HW140416   1.887   9.314   6.699
46173SOL    HW240417   1.827   9.386   6.818
46174SOL     OW40418  11.783   1.063  11.350
46174SOL    HW140419  11.791   1.139  11.406
46174SOL    HW240420  11.764   0.990  11.410
46175SOL     OW40421   1.777   9.556  12.128
46175SOL    HW140422   1.811   9.478  12.084
46175SOL    HW240423   1.848   9.620  12.123
46176SOL     OW40424   7.747  14.120   4.829
46176SOL    HW140425   7.797  14.201   4.840
46176SOL    HW240426   7.715  14.100   4.916
46177SOL     OW40427   3.518   5.515   4.418
46177SOL    HW140428   3.513   5.577   4.490
46177SOL    HW240429   3.433   5.522   4.373
46178SOL     OW40430  11.361   3.152   0.174
46178SOL    HW140431  11.406   3.146   0.258
46178SOL    HW240432  11.336   3.062   0.153
46179SOL     OW40433   5.657   7.622   7.358
46179SOL    HW140434   5.667   7.617   7.263
46179SOL    HW240435   5.708   7.549   7.392
46180SOL     OW40436  10.333   8.436  12.533
46180SOL    HW140437  10.367   8.398  12.614
46180SOL    HW240438  10.266   8.498  12.562
46181SOL     OW40439  11.383   1.432  12.492
46181SOL    HW140440  11.449   1.477  12.439
46181SOL    HW240441  11.312   1.496  12.501
46182SOL     OW40442   1.350   0.077  12.726
46182SOL    HW140443   1.275   0.134  12.744
46182SOL    HW240444   1.390   0.063  12.812
46183SOL     OW40445   9.022  12.644   4.372
46183SOL    HW140446   9.053  12.587   4.301
46183SOL    HW240447   9.010  12.729   4.331
46184SOL     OW40448   8.643   3.772  12.721
46184SOL    HW140449   8.682   3.689  12.693
46184SOL    HW240450   8.605   3.753  12.806
46185SOL     OW40451  13.837   5.887   9.223
46185SOL    HW140452  13.842   5.911   9.315
46185SOL    HW240453  13.915   5.927   9.184
46186SOL     OW40454  13.574   9.804   0.529
46186SOL    HW140455  13.552   9.894   0.505
46186SOL    HW240456  13.670   9.805   0.540
46187SOL     OW40457   6.209   5.894  13.888
46187SOL    HW140458   6.196   5.805  13.920
46187SOL    HW240459   6.231   5.945  13.967
46188SOL     OW40460   5.903  11.677   3.437
46188SOL    HW140461   5.906  11.606   3.374
46188SOL    HW240462   5.966  11.653   3.505
46189SOL     OW40463   0.556  11.834   4.615
46189SOL    HW140464   0.473  11.790   4.633
46189SOL    HW240465   0.588  11.792   4.535
46190SOL     OW40466   4.251   7.871   3.359
46190SOL    HW140467   4.284   7.782   3.360
46190SOL    HW240468   4.242   7.893   3.266
46191SOL     OW40469   0.297   8.847  12.874
46191SOL    HW140470   0.254   8.823  12.792
46191SOL    HW240471   0.378   8.891  12.847
46192SOL     OW40472  13.772   7.491  10.494
46192SOL    HW140473  13.800   7.423  10.557
46192SOL    HW240474  13.682   7.511  10.520
46193SOL     OW40475   6.925   2.344   1.839
46193SOL    HW140476   6.972   2.421   1.808
46193SOL    HW240477   6.974   2.315   1.916
46194SOL     OW40478   2.193   4.611   0.697
46194SOL    HW140479   2.221   4.667   0.625
46194SOL    HW240480   2.104   4.639   0.716
46195SOL     OW40481   2.205  12.914   6.839
46195SOL    HW140482   2.301  12.911   6.848
46195SOL    HW240483   2.190  12.910   6.745
46196SOL     OW40484   6.806  10.960  10.942
46196SOL    HW140485   6.808  10.873  10.903
46196SOL    HW240486   6.759  11.014  10.879
46197SOL     OW40487   2.694  11.961   7.613
46197SOL    HW140488   2.622  11.913   7.652
46197SOL    HW240489   2.772  11.910   7.633
46198SOL     OW40490  11.116   6.443   7.234
46198SOL    HW140491  11.023   6.461   7.218
46198SOL    HW240492  11.134   6.362   7.186
46199SOL     OW40493   7.597   5.575   8.529
46199SOL    HW140494   7.635   5.488   8.516
46199SOL    HW240495   7.644   5.631   8.467
46200SOL     OW40496  13.179  13.547  12.493
46200SOL    HW140497  13.175  13.504  12.578
46200SOL    HW240498  13.122  13.624  12.503
46201SOL     OW40499   3.319   0.188   4.982
46201SOL    HW140500   3.296   0.096   4.994
46201SOL    HW240501   3.402   0.185   4.933
46202SOL     OW40502  14.037  12.580   7.379
46202SOL    HW140503  13.965  12.573   7.441
46202SOL    HW240504  14.001  12.548   7.296
46203SOL     OW40505  10.040   0.846   3.672
46203SOL    HW140506   9.959   0.856   3.622
46203SOL    HW240507  10.050   0.930   3.718
46204SOL     OW40508   1.537   7.365   2.704
46204SOL    HW140509   1.481   7.288   2.697
46204SOL    HW240510   1.579   7.356   2.790
46205SOL     OW40511   3.820   4.165   7.819
46205SOL    HW140512   3.872   4.244   7.832
46205SOL    HW240513   3.884   4.094   7.823
46206SOL     OW40514  11.180  10.325   4.541
46206SOL    HW140515  11.142  10.248   4.498
46206SOL    HW240516  11.134  10.399   4.501
46207SOL     OW40517   6.647   2.435   8.706
46207SOL    HW140518   6.577   2.491   8.672
46207SOL    HW240519   6.714   2.436   8.638
46208SOL     OW40520  13.495   5.300   5.916
46208SOL    HW140521  13.422   5.241   5.938
46208SOL    HW240522  13.553   5.247   5.861
46209SOL     OW40523  14.728  10.618   9.800
46209SOL    HW140524  14.769  10.557   9.739
46209SOL    HW240525  14.731  10.702   9.755
46210SOL     OW40526   5.355   7.089   9.917
46210SOL    HW140527   5.376   6.996   9.907
46210SOL    HW240528   5.265   7.090   9.950
46211SOL     OW40529  10.395   9.228   3.731
46211SOL    HW140530  10.354   9.251   3.648
46211SOL    HW240531  10.446   9.306   3.755
46212SOL     OW40532   7.257   2.147   4.367
46212SOL    HW140533   7.207   2.223   4.396
46212SOL    HW240534   7.291   2.108   4.447
46213SOL     OW40535   7.245  13.144  13.679
46213SOL    HW140536   7.205  13.230  13.695
46213SOL    HW240537   7.274  13.114  13.765
46214SOL     OW40538   2.972   0.585   6.338
46214SOL    HW140539   2.981   0.506   6.391
46214SOL    HW240540   3.062   0.607   6.312
46215SOL     OW40541   5.137   6.537   9.909
46215SOL    HW140542   5.078   6.548   9.984
46215SOL    HW240543   5.201   6.473   9.939
46216SOL     OW40544   1.141   5.654   4.095
46216SOL    HW140545   1.102   5.619   4.176
46216SOL    HW240546   1.160   5.577   4.042
46217SOL     OW40547   6.884   8.485  10.620
46217SOL    HW140548   6.802   8.455  10.581
46217SOL    HW240549   6.878   8.581  10.619
46218SOL     OW40550  14.511  13.073  14.638
46218SOL    HW140551  14.601  13.101  14.655
46218SOL    HW240552  14.482  13.033  14.720
46219SOL     OW40553  13.132  11.325   5.683
46219SOL    HW140554  13.131  11.420   5.692
46219SOL    HW240555  13.155  11.311   5.591
46220SOL     OW40556  11.493  10.082   9.023
46220SOL    HW140557  11.426  10.146   9.000
46220SOL    HW240558  11.445  10.004   9.049
46221SOL     OW40559  13.053  13.532  10.050
46221SOL    HW140560  13.003  13.468  10.100
46221SOL    HW240561  13.133  13.486  10.025
46222SOL     OW40562   2.218   8.172   1.549
46222SOL    HW140563   2.209   8.223   1.629
46222SOL    HW240564   2.292   8.211   1.503
46223SOL     OW40565   3.395  10.038   2.398
46223SOL    HW140566   3.425   9.953   2.366
46223SOL    HW240567   3.475  10.083   2.425
46224SOL     OW40568  12.405   3.399   7.955
46224SOL    HW140569  12.434   3.345   7.881
46224SOL    HW240570  12.486   3.431   7.994
46225SOL     OW40571  11.783  10.900  11.932
46225SOL    HW140572  11.753  10.810  11.944
46225SOL    HW240573  11.702  10.951  11.924
46226SOL     OW40574  12.501   2.139  13.596
46226SOL    HW140575  12.518   2.061  13.650
46226SOL    HW240576  12.425   2.180  13.636
46227SOL     OW40577   0.258   7.272   7.831
46227SOL    HW140578   0.297   7.253   7.916
46227SOL    HW240579   0.329   7.260   7.768
46228SOL     OW40580   5.643  12.352   6.784
46228SOL    HW140581   5.688  12.279   6.827
46228SOL    HW240582   5.704  12.382   6.718
46229SOL     OW40583  12.528   3.055  12.548
46229SOL    HW140584  12.533   2.999  12.471
46229SOL    HW240585  12.545   2.996  12.621
46230SOL     OW40586   9.161   0.514   1.192
46230SOL    HW140587   9.218   0.560   1.253
46230SOL    HW240588   9.218   0.493   1.118
46231SOL     OW40589  13.052   8.039   7.516
46231SOL    HW140590  13.067   7.945   7.522
46231SOL    HW240591  12.961   8.051   7.544
46232SOL     OW40592   3.416  13.958  10.032
46232SOL    HW140593   3.459  13.884   9.989
46232SOL    HW240594   3.330  13.924  10.057
46233SOL     OW40595  14.849   0.394   6.656
46233SOL    HW140596  14.846   0.487   6.635
46233SOL    HW240597   0.018   0.354   6.586
46234SOL     OW40598   8.163   3.755  10.600
46234SOL    HW140599   8.198   3.838  10.634
46234SOL    HW240600   8.098   3.728  10.666
46235SOL     OW40601   5.269   2.717  12.282
46235SOL    HW140602   5.272   2.626  12.313
46235SOL    HW240603   5.180   2.746  12.302
46236SOL     OW40604   2.516   5.653   2.530
46236SOL    HW140605   2.533   5.740   2.494
46236SOL    HW240606   2.459   5.669   2.605
46237SOL     OW40607   8.499   5.392   0.292
46237SOL    HW140608   8.476   5.343   0.213
46237SOL    HW240609   8.569   5.450   0.265
46238SOL     OW40610   1.346  14.139   1.889
46238SOL    HW140611   1.391  14.056   1.905
46238SOL    HW240612   1.283  14.146   1.961
46239SOL     OW40613   0.232   4.888   5.317
46239SOL    HW140614   0.277   4.957   5.365
46239SOL    HW240615   0.140   4.913   5.318
46240SOL     OW40616  14.162   4.179   5.375
46240SOL    HW140617  14.069   4.187   5.355
46240SOL    HW240618  14.194   4.111   5.315
46241SOL     OW40619  12.440   0.077  11.501
46241SOL    HW140620  12.442  14.869  11.535
46241SOL    HW240621  12.402   0.069  11.414
46242SOL     OW40622   0.195   1.741  10.111
46242SOL    HW140623   0.255   1.718  10.040
46242SOL    HW240624   0.111   1.756  10.068
46243SOL     OW40625   9.786   2.907  12.454
46243SOL    HW140626   9.718   2.939  12.513
46243SOL    HW240627   9.860   2.967  12.468
46244SOL     OW40628   7.316   0.942   5.213
46244SOL    HW140629   7.385   1.009   5.222
46244SOL    HW240630   7.331   0.904   5.126
46245SOL     OW40631   0.921   2.684   5.191
46245SOL    HW140632   0.952   2.761   5.238
46245SOL    HW240633   0.993   2.662   5.131
46246SOL     OW40634   4.726   5.185  14.259
46246SOL    HW140635   4.740   5.103  14.211
46246SOL    HW240636   4.632   5.201  14.254
46247SOL     OW40637   3.668   3.283   0.598
46247SOL    HW140638   3.710   3.310   0.679
46247SOL    HW240639   3.724   3.213   0.564
46248SOL     OW40640   7.497   0.621   7.521
46248SOL    HW140641   7.458   0.614   7.435
46248SOL    HW240642   7.472   0.541   7.567
46249SOL     OW40643   5.977  12.169   6.043
46249SOL    HW140644   5.936  12.137   6.123
46249SOL    HW240645   5.917  12.144   5.973
46250SOL     OW40646   4.623  12.623  12.452
46250SOL    HW140647   4.697  12.684  12.448
46250SOL    HW240648   4.658  12.540  12.419
46251SOL     OW40649  14.060  14.829  11.920
46251SOL    HW140650  14.106  14.745  11.922
46251SOL    HW240651  14.090  14.871  11.839
46252SOL     OW40652   0.694   7.545   0.119
46252SOL    HW140653   0.678   7.535   0.213
46252SOL    HW240654   0.772   7.600   0.113
46253SOL     OW40655   8.814  10.645   0.496
46253SOL    HW140656   8.827  10.550   0.488
46253SOL    HW240657   8.719  10.655   0.505
46254SOL     OW40658   7.815   3.798   8.196
46254SOL    HW140659   7.757   3.740   8.147
46254SOL    HW240660   7.767   3.817   8.277
46255SOL     OW40661  12.886  14.075   6.067
46255SOL    HW140662  12.952  14.094   6.134
46255SOL    HW240663  12.835  14.003   6.104
46256SOL     OW40664   1.603   9.974  14.532
46256SOL    HW140665   1.546   9.987  14.608
46256SOL    HW240666   1.579   9.888  14.499
46257SOL     OW40667   8.001  14.050  13.616
46257SOL    HW140668   7.927  14.087  13.567
46257SOL    HW240669   7.970  13.964  13.644
46258SOL     OW40670   3.564   2.075  12.531
46258SOL    HW140671   3.514   2.054  12.452
46258SOL    HW240672   3.501   2.063  12.602
46259SOL     OW40673   7.314  13.466   7.908
46259SOL    HW140674   7.379  13.400   7.932
46259SOL    HW240675   7.241  13.417   7.871
46260SOL     OW40676  14.078  11.432  10.099
46260SOL    HW140677  13.988  11.426  10.131
46260SOL    HW240678  14.069  11.461  10.008
46261SOL     OW40679   6.087   3.767   1.009
46261SOL    HW140680   6.178   3.794   0.995
46261SOL    HW240681   6.038   3.812   0.941
46262SOL     OW40682   4.087   1.783   6.052
46262SOL    HW140683   4.010   1.759   6.103
46262SOL    HW240684   4.152   1.809   6.118
46263SOL     OW40685   4.285  10.022   1.750
46263SOL    HW140686   4.281  10.107   1.705
46263SOL    HW240687   4.265   9.958   1.682
46264SOL     OW40688   9.978   3.965   8.646
46264SOL    HW140689  10.037   3.930   8.579
46264SOL    HW240690   9.902   3.996   8.597
46265SOL     OW40691   0.421  13.258  13.198
46265SOL    HW140692   0.499  13.234  13.147
46265SOL    HW240693   0.380  13.174  13.219
46266SOL     OW40694   3.997   4.371  12.529
46266SOL    HW140695   4.067   4.333  12.582
46266SOL    HW240696   4.035   4.382  12.442
46267SOL     OW40697  10.281   0.692   9.137
46267SOL    HW140698  10.321   0.660   9.057
46267SOL    HW240699  10.201   0.640   9.147
46268SOL     OW40700  14.151   1.345   6.790
46268SOL    HW140701  14.207   1.332   6.713
46268SOL    HW240702  14.081   1.403   6.759
46269SOL     OW40703  13.190   0.086  10.560
46269SOL    HW140704  13.184  14.873  10.562
46269SOL    HW240705  13.258   0.107  10.624
46270SOL     OW40706  11.120  14.853   7.948
46270SOL    HW140707  11.026  14.839   7.959
46270SOL    HW240708  11.160  14.775   7.987
46271SOL     OW40709   8.258  13.613   3.506
46271SOL    HW140710   8.281  13.688   3.450
46271SOL    HW240711   8.163  13.603   3.496
46272SOL     OW40712   8.857   9.708   3.090
46272SOL    HW140713   8.826   9.752   3.011
46272SOL    HW240714   8.795   9.636   3.103
46273SOL     OW40715  14.531   1.200  13.905
46273SOL    HW140716  14.520   1.292  13.930
46273SOL    HW240717  14.462   1.154  13.952
46274SOL     OW40718   3.960  10.295   1.870
46274SOL    HW140719   4.044  10.255   1.896
46274SOL    HW240720   3.985  10.362   1.807
46275SOL     OW40721  11.056   4.116   3.436
46275SOL    HW140722  11.073   4.127   3.530
46275SOL    HW240723  10.968   4.151   3.423
46276SOL     OW40724  12.506   4.819   3.087
46276SOL    HW140725  12.434   4.758   3.071
46276SOL    HW240726  12.497   4.843   3.179
46277SOL     OW40727   5.239  11.765   6.238
46277SOL    HW140728   5.252  11.703   6.166
46277SOL    HW240729   5.227  11.709   6.315
46278SOL     OW40730  14.180   0.157   6.851
46278SOL    HW140731  14.257   0.102   6.836
46278SOL    HW240732  14.146   0.175   6.764
46279SOL     OW40733   2.157  12.146  12.001
46279SOL    HW140734   2.170  12.053  11.982
46279SOL    HW240735   2.217  12.165  12.073
46280SOL     OW40736  11.470   4.954  12.069
46280SOL    HW140737  11.515   5.035  12.090
46280SOL    HW240738  11.390   4.956  12.122
46281SOL     OW40739   7.468  10.067   3.232
46281SOL    HW140740   7.524  10.069   3.154
46281SOL    HW240741   7.515  10.118   3.297
46282SOL     OW40742   0.664   1.470   6.244
46282SOL    HW140743   0.651   1.548   6.299
46282SOL    HW240744   0.638   1.498   6.156
46283SOL     OW40745   1.605   2.027  13.480
46283SOL    HW140746   1.660   2.068  13.547
46283SOL    HW240747   1.646   1.941  13.466
46284SOL     OW40748  13.015   4.769   5.789
46284SOL    HW140749  13.098   4.726   5.767
46284SOL    HW240750  12.979   4.797   5.705
46285SOL     OW40751   4.822   6.946   2.809
46285SOL    HW140752   4.844   6.973   2.720
46285SOL    HW240753   4.842   6.853   2.811
46286SOL     OW40754  13.322  11.278  11.725
46286SOL    HW140755  13.407  11.248  11.760
46286SOL    HW240756  13.263  11.205  11.744
46287SOL     OW40757   1.370  12.240   2.025
46287SOL    HW140758   1.324  12.164   1.991
46287SOL    HW240759   1.460  12.229   1.995
46288SOL     OW40760  12.911   7.671   2.288
46288SOL    HW140761  12.871   7.635   2.208
46288SOL    HW240762  12.889   7.608   2.356
46289SOL     OW40763   0.968   8.921   2.278
46289SOL    HW140764   0.932   9.008   2.297
46289SOL    HW240765   0.968   8.876   2.362
46290SOL     OW40766   3.737  12.085   4.314
46290SOL    HW140767   3.669  12.147   4.289
46290SOL    HW240768   3.720  12.008   4.260
46291SOL     OW40769   6.558  11.926   0.652
46291SOL    HW140770   6.564  11.983   0.576
46291SOL    HW240771   6.642  11.881   0.656
46292SOL     OW40772  11.225   8.457   0.666
46292SOL    HW140773  11.283   8.519   0.621
46292SOL    HW240774  11.186   8.508   0.737
46293SOL     OW40775   2.311   0.048   9.714
46293SOL    HW140776   2.394   0.012   9.682
46293SOL    HW240777   2.312   0.140   9.688
46294SOL     OW40778   4.788   7.414   8.127
46294SOL    HW140779   4.837   7.474   8.070
46294SOL    HW240780   4.772   7.337   8.072
46295SOL     OW40781   4.311  12.609   8.186
46295SOL    HW140782   4.297  12.676   8.253
46295SOL    HW240783   4.333  12.658   8.107
46296SOL     OW40784   2.700  12.406   2.446
46296SOL    HW140785   2.747  12.361   2.516
46296SOL    HW240786   2.608  12.397   2.469
46297SOL     OW40787  10.800  13.845   0.085
46297SOL    HW140788  10.883  13.889   0.062
46297SOL    HW240789  10.788  13.779   0.017
46298SOL     OW40790   8.479  11.111   4.235
46298SOL    HW140791   8.536  11.053   4.184
46298SOL    HW240792   8.411  11.053   4.269
46299SOL     OW40793   6.818  12.142  12.208
46299SOL    HW140794   6.802  12.098  12.291
46299SOL    HW240795   6.897  12.194  12.223
46300SOL     OW40796  10.124  14.634  14.824
46300SOL    HW140797  10.153  14.714  14.867
46300SOL    HW240798  10.184  14.566  14.856
46301SOL     OW40799   7.585   9.489   3.614
46301SOL    HW140800   7.503   9.469   3.568
46301SOL    HW240801   7.626   9.403   3.628
46302SOL     OW40802  13.967   5.526  14.243
46302SOL    HW140803  13.892   5.557  14.193
46302SOL    HW240804  14.021   5.480  14.178
46303SOL     OW40805  14.454   3.209   2.545
46303SOL    HW140806  14.527   3.151   2.524
46303SOL    HW240807  14.490   3.271   2.609
46304SOL     OW40808   7.083   8.466  11.512
46304SOL    HW140809   7.016   8.422  11.565
46304SOL    HW240810   7.082   8.418  11.429
46305SOL     OW40811   3.930   9.218   3.798
46305SOL    HW140812   3.924   9.291   3.859
46305SOL    HW240813   3.958   9.144   3.852
46306SOL     OW40814   2.982  14.174  11.873
46306SOL    HW140815   2.931  14.207  11.799
46306SOL    HW240816   2.916  14.155  11.940
46307SOL     OW40817   2.068  12.074   5.575
46307SOL    HW140818   2.150  12.097   5.530
46307SOL    HW240819   2.096  12.049   5.663
46308SOL     OW40820   5.084  10.446   3.574
46308SOL    HW140821   5.126  10.473   3.655
46308SOL    HW240822   4.994  10.423   3.600
46309SOL     OW40823  14.195   1.226   1.384
46309SOL    HW140824  14.204   1.164   1.312
46309SOL    HW240825  14.103   1.221   1.410
46310SOL     OW40826   9.543   1.577   7.262
46310SOL    HW140827   9.548   1.647   7.326
46310SOL    HW240828   9.484   1.512   7.301
46311SOL     OW40829   0.240   2.517  12.085
46311SOL    HW140830   0.319   2.472  12.117
46311SOL    HW240831   0.245   2.510  11.990
46312SOL     OW40832  11.574  10.612  11.049
46312SOL    HW140833  11.615  10.680  11.102
46312SOL    HW240834  11.592  10.638  10.958
46313SOL     OW40835   6.328   3.196  11.626
46313SOL    HW140836   6.288   3.201  11.713
46313SOL    HW240837   6.397   3.130  11.635
46314SOL     OW40838   4.693   0.530   4.453
46314SOL    HW140839   4.658   0.609   4.495
46314SOL    HW240840   4.651   0.529   4.366
46315SOL     OW40841   8.255   1.480  11.399
46315SOL    HW140842   8.208   1.419  11.456
46315SOL    HW240843   8.212   1.564  11.412
46316SOL     OW40844   9.508  10.747   7.403
46316SOL    HW140845   9.442  10.695   7.449
46316SOL    HW240846   9.590  10.729   7.449
46317SOL     OW40847  13.415  11.219   8.181
46317SOL    HW140848  13.367  11.287   8.133
46317SOL    HW240849  13.498  11.261   8.206
46318SOL     OW40850  14.480   0.673   6.441
46318SOL    HW140851  14.411   0.723   6.398
46318SOL    HW240852  14.521   0.624   6.370
46319SOL     OW40853   2.350   8.505  14.604
46319SOL    HW140854   2.382   8.517  14.694
46319SOL    HW240855   2.423   8.533  14.549
46320SOL     OW40856   8.153   3.109  13.314
46320SOL    HW140857   8.193   3.176  13.259
46320SOL    HW240858   8.081   3.074  13.261
46321SOL     OW40859  14.371  10.807   0.442
46321SOL    HW140860  14.343  10.815   0.533
46321SOL    HW240861  14.461  10.773   0.446
46322SOL     OW40862   9.080   1.334   6.465
46322SOL    HW140863   9.153   1.279   6.495
46322SOL    HW240864   9.011   1.272   6.444
46323SOL     OW40865   4.964   2.898   4.526
46323SOL    HW140866   4.955   2.926   4.616
46323SOL    HW240867   4.919   2.813   4.523
46324SOL     OW40868  14.190   6.674   8.024
46324SOL    HW140869  14.106   6.716   8.039
46324SOL    HW240870  14.249   6.745   8.001
46325SOL     OW40871   1.823  12.337   6.355
46325SOL    HW140872   1.893  12.304   6.411
46325SOL    HW240873   1.788  12.413   6.401
46326SOL     OW40874   5.952   8.763   0.922
46326SOL    HW140875   5.988   8.804   1.001
46326SOL    HW240876   5.925   8.836   0.867
46327SOL     OW40877   6.401   6.257  12.240
46327SOL    HW140878   6.354   6.176  12.260
46327SOL    HW240879   6.342   6.306  12.184
46328SOL     OW40880  11.904   3.772  10.019
46328SOL    HW140881  11.961   3.757   9.944
46328SOL    HW240882  11.959   3.819  10.082
46329SOL     OW40883  10.407  13.519   7.063
46329SOL    HW140884  10.440  13.608   7.049
46329SOL    HW240885  10.480  13.474   7.106
46330SOL     OW40886   1.840  10.478  11.081
46330SOL    HW140887   1.747  10.497  11.095
46330SOL    HW240888   1.870  10.440  11.163
46331SOL     OW40889   6.842   5.984   6.034
46331SOL    HW140890   6.896   5.917   5.991
46331SOL    HW240891   6.896   6.015   6.106
46332SOL     OW40892   2.778  10.058  12.498
46332SOL    HW140893   2.862  10.094  12.526
46332SOL    HW240894   2.772  10.081  12.405
46333SOL     OW40895   9.609   8.633   0.240
46333SOL    HW140896   9.630   8.724   0.261
46333SOL    HW240897   9.531   8.614   0.291
46334SOL     OW40898  12.691  14.682  11.468
46334SOL    HW140899  12.664  14.638  11.388
46334SOL    HW240900  12.620  14.665  11.530
46335SOL     OW40901   0.805   6.410   0.321
46335SOL    HW140902   0.756   6.387   0.401
46335SOL    HW240903   0.744   6.391   0.250
46336SOL     OW40904  13.669  14.372   2.340
46336SOL    HW140905  13.648  14.381   2.433
46336SOL    HW240906  13.588  14.340   2.300
46337SOL     OW40907   6.406  12.925   5.255
46337SOL    HW140908   6.370  12.902   5.170
46337SOL    HW240909   6.491  12.965   5.236
46338SOL     OW40910  14.512   4.686   9.817
46338SOL    HW140911  14.549   4.600   9.839
46338SOL    HW240912  14.462   4.710   9.895
46339SOL     OW40913   4.950   0.049   2.448
46339SOL    HW140914   4.885   0.069   2.380
46339SOL    HW240915   4.899   0.014   2.521
46340SOL     OW40916  11.275   3.890  11.676
46340SOL    HW140917  11.220   3.819  11.644
46340SOL    HW240918  11.321   3.853  11.751
46341SOL     OW40919   7.662   4.217  12.907
46341SOL    HW140920   7.577   4.235  12.867
46341SOL    HW240921   7.664   4.270  12.986
46342SOL     OW40922  10.153   0.378  12.871
46342SOL    HW140923  10.213   0.360  12.799
46342SOL    HW240924  10.210   0.392  12.947
46343SOL     OW40925  11.570   7.954   7.224
46343SOL    HW140926  11.534   7.935   7.137
46343SOL    HW240927  11.664   7.943   7.214
46344SOL     OW40928  11.432   6.775   5.650
46344SOL    HW140929  11.381   6.792   5.729
46344SOL    HW240930  11.398   6.837   5.586
46345SOL     OW40931   4.014   7.179  11.378
46345SOL    HW140932   3.988   7.213  11.464
46345SOL    HW240933   4.024   7.257  11.323
46346SOL     OW40934  14.783   3.259   7.371
46346SOL    HW140935  14.717   3.253   7.301
46346SOL    HW240936  14.804   3.352   7.375
46347SOL     OW40937   2.712  13.087   7.107
46347SOL    HW140938   2.746  13.036   7.181
46347SOL    HW240939   2.681  13.021   7.045
46348SOL     OW40940  11.609  11.586  12.174
46348SOL    HW140941  11.690  11.625  12.207
46348SOL    HW240942  11.542  11.615  12.236
46349SOL     OW40943   9.838   3.412   8.656
46349SOL    HW140944   9.901   3.382   8.590
46349SOL    HW240945   9.761   3.436   8.605
46350SOL     OW40946   0.227  12.061   8.095
46350SOL    HW140947   0.191  12.144   8.125
46350SOL    HW240948   0.222  12.065   8.000
46351SOL     OW40949  12.238   5.945   6.393
46351SOL    HW140950  12.282   5.966   6.311
46351SOL    HW240951  12.257   5.852   6.407
46352SOL     OW40952   5.425   8.760  13.973
46352SOL    HW140953   5.492   8.804  14.025
46352SOL    HW240954   5.386   8.696  14.032
46353SOL     OW40955   5.274  10.383   5.838
46353SOL    HW140956   5.367  10.398   5.821
46353SOL    HW240957   5.235  10.373   5.751
46354SOL     OW40958   8.093   3.722   6.552
46354SOL    HW140959   8.035   3.795   6.574
46354SOL    HW240960   8.152   3.758   6.485
46355SOL     OW40961   0.611  11.552   0.892
46355SOL    HW140962   0.518  11.567   0.910
46355SOL    HW240963   0.613  11.514   0.804
46356SOL     OW40964   2.295  13.645   5.497
46356SOL    HW140965   2.222  13.614   5.443
46356SOL    HW240966   2.345  13.567   5.516
46357SOL     OW40967  14.599   7.539   4.046
46357SOL    HW140968  14.574   7.584   3.965
46357SOL    HW240969  14.684   7.499   4.026
46358SOL     OW40970   0.479   3.766   9.496
46358SOL    HW140971   0.509   3.744   9.584
46358SOL    HW240972   0.560   3.776   9.445
46359SOL     OW40973   9.045  12.777   7.257
46359SOL    HW140974   9.025  12.870   7.251
46359SOL    HW240975   9.103  12.769   7.333
46360SOL     OW40976  13.851  10.106   5.175
46360SOL    HW140977  13.799  10.083   5.098
46360SOL    HW240978  13.920  10.039   5.177
46361SOL     OW40979   6.591  11.186   9.006
46361SOL    HW140980   6.602  11.281   8.994
46361SOL    HW240981   6.598  11.150   8.918
46362SOL     OW40982   3.655   1.444  11.193
46362SOL    HW140983   3.728   1.382  11.196
46362SOL    HW240984   3.587   1.403  11.246
46363SOL     OW40985  14.124   5.244  14.386
46363SOL    HW140986  14.047   5.239  14.330
46363SOL    HW240987  14.173   5.164  14.368
46364SOL     OW40988   7.233  11.638   2.150
46364SOL    HW140989   7.183  11.668   2.074
46364SOL    HW240990   7.306  11.699   2.156
46365SOL     OW40991  14.744   9.881   0.164
46365SOL    HW140992  14.687   9.948   0.127
46365SOL    HW240993  14.746   9.812   0.098
46366SOL     OW40994   8.461   8.163  11.176
46366SOL    HW140995   8.515   8.149  11.098
46366SOL    HW240996   8.488   8.094  11.237
46367SOL     OW40997   3.315  11.252   6.994
46367SOL    HW140998   3.238  11.256   7.051
46367SOL    HW240999   3.363  11.333   7.013
46368SOL     OW41000   3.980   7.876   8.145
46368SOL    HW141001   3.902   7.821   8.141
46368SOL    HW241002   4.014   7.863   8.233
46369SOL     OW41003   1.400   8.021  12.949
46369SOL    HW141004   1.348   7.966  13.007
46369SOL    HW241005   1.383   7.986  12.861
46370SOL     OW41006  11.984  11.333   1.292
46370SOL    HW141007  11.906  11.359   1.340
46370SOL    HW241008  11.963  11.349   1.200
46371SOL     OW41009   6.749  10.905   9.787
46371SOL    HW141010   6.692  10.828   9.790
46371SOL    HW241011   6.837  10.870   9.788
46372SOL     OW41012   8.473   6.189  10.091
46372SOL    HW141013   8.384   6.155  10.079
46372SOL    HW241014   8.462   6.283  10.101
46373SOL     OW41015   8.685  14.353   8.590
46373SOL    HW141016   8.701  14.261   8.614
46373SOL    HW241017   8.752  14.372   8.525
46374SOL     OW41018   5.941   5.163  10.029
46374SOL    HW141019   5.889   5.243  10.040
46374SOL    HW241020   5.877   5.092  10.037
46375SOL     OW41021   7.376   9.878  11.908
46375SOL    HW141022   7.339   9.790  11.917
46375SOL    HW241023   7.461   9.873  11.952
46376SOL     OW41024   3.230   3.556   0.793
46376SOL    HW141025   3.317   3.593   0.806
46376SOL    HW241026   3.176   3.631   0.766
46377SOL     OW41027   0.963   7.571   0.221
46377SOL    HW141028   0.974   7.496   0.280
46377SOL    HW241029   0.998   7.540   0.137
46378SOL     OW41030  12.671   0.609  10.414
46378SOL    HW141031  12.689   0.703  10.426
46378SOL    HW241032  12.728   0.584  10.341
46379SOL     OW41033  11.232   9.645  12.102
46379SOL    HW141034  11.196   9.698  12.032
46379SOL    HW241035  11.162   9.584  12.125
46380SOL     OW41036  12.859   6.606   0.729
46380SOL    HW141037  12.793   6.608   0.660
46380SOL    HW241038  12.843   6.685   0.780
46381SOL     OW41039   3.080   8.492   7.531
46381SOL    HW141040   3.069   8.401   7.560
46381SOL    HW241041   3.075   8.544   7.611
46382SOL     OW41042  13.411   1.869   0.843
46382SOL    HW141043  13.380   1.792   0.891
46382SOL    HW241044  13.476   1.835   0.782
46383SOL     OW41045   5.335  12.280   5.730
46383SOL    HW141046   5.403  12.252   5.790
46383SOL    HW241047   5.360  12.369   5.705
46384SOL     OW41048   3.969   1.620   6.744
46384SOL    HW141049   3.949   1.571   6.664
46384SOL    HW241050   4.012   1.556   6.801
46385SOL     OW41051   5.973   9.505  13.948
46385SOL    HW141052   5.940   9.494  14.037
46385SOL    HW241053   5.898   9.537  13.898
46386SOL     OW41054   8.080  11.698   7.243
46386SOL    HW141055   8.165  11.665   7.212
46386SOL    HW241056   8.094  11.792   7.255
46387SOL     OW41057  14.453  11.888   5.387
46387SOL    HW141058  14.468  11.793   5.388
46387SOL    HW241059  14.450  11.912   5.480
46388SOL     OW41060  14.294   5.564   7.807
46388SOL    HW141061  14.226   5.591   7.868
46388SOL    HW241062  14.376   5.582   7.854
46389SOL     OW41063  13.106  14.703  10.544
46389SOL    HW141064  13.145  14.624  10.506
46389SOL    HW241065  13.024  14.714  10.496
46390SOL     OW41066   1.924  12.820   2.481
46390SOL    HW141067   1.935  12.821   2.386
46390SOL    HW241068   1.932  12.727   2.505
46391SOL     OW41069   0.444  14.434  14.031
46391SOL    HW141070   0.466  14.422  14.124
46391SOL    HW241071   0.472  14.524  14.012
46392SOL     OW41072   1.556   5.435  14.698
46392SOL    HW141073   1.584   5.448  14.607
46392SOL    HW241074   1.571   5.342  14.714
46393SOL     OW41075   6.930   1.955   7.611
46393SOL    HW141076   6.974   2.040   7.621
46393SOL    HW241077   6.932   1.939   7.516
46394SOL     OW41078  14.132   6.381  10.723
46394SOL    HW141079  14.102   6.361  10.812
46394SOL    HW241080  14.053   6.411  10.677
46395SOL     OW41081   4.794  11.313   6.827
46395SOL    HW141082   4.738  11.235   6.831
46395SOL    HW241083   4.740  11.379   6.785
46396SOL     OW41084   2.772  10.313   0.388
46396SOL    HW141085   2.826  10.380   0.345
46396SOL    HW241086   2.829  10.235   0.391
46397SOL     OW41087   1.154   3.438  12.275
46397SOL    HW141088   1.181   3.439  12.183
46397SOL    HW241089   1.127   3.347  12.291
46398SOL     OW41090   2.766   2.187  13.682
46398SOL    HW141091   2.730   2.105  13.650
46398SOL    HW241092   2.858   2.184  13.657
46399SOL     OW41093   7.600   7.378   7.137
46399SOL    HW141094   7.686   7.357   7.172
46399SOL    HW241095   7.613   7.387   7.043
46400SOL     OW41096   8.624  11.518  11.624
46400SOL    HW141097   8.695  11.492  11.684
46400SOL    HW241098   8.623  11.613  11.629
46401SOL     OW41099  13.120   3.587   8.656
46401SOL    HW141100  13.080   3.504   8.630
46401SOL    HW241101  13.214   3.568   8.659
46402SOL     OW41102  12.314   7.855   0.630
46402SOL    HW141103  12.240   7.914   0.643
46402SOL    HW241104  12.284   7.771   0.665
46403SOL     OW41105  10.244   0.864   4.876
46403SOL    HW141106  10.333   0.891   4.853
46403SOL    HW241107  10.202   0.944   4.906
46404SOL     OW41108   7.986   0.119   0.813
46404SOL    HW141109   7.945   0.203   0.794
46404SOL    HW241110   7.914   0.056   0.810
46405SOL     OW41111  12.508   7.397   3.356
46405SOL    HW141112  12.545   7.347   3.429
46405SOL    HW241113  12.515   7.488   3.383
46406SOL     OW41114   6.749   3.241   3.158
46406SOL    HW141115   6.695   3.269   3.084
46406SOL    HW241116   6.790   3.321   3.190
46407SOL     OW41117   8.773   6.459   6.490
46407SOL    HW141118   8.761   6.408   6.570
46407SOL    HW241119   8.736   6.405   6.421
46408SOL     OW41120   2.995   0.317  14.677
46408SOL    HW141121   3.056   0.381  14.640
46408SOL    HW241122   2.915   0.329  14.625
46409SOL     OW41123   3.209   0.430   6.875
46409SOL    HW141124   3.159   0.497   6.827
46409SOL    HW241125   3.267   0.480   6.932
46410SOL     OW41126   9.677  13.246  10.509
46410SOL    HW141127   9.608  13.239  10.576
46410SOL    HW241128   9.633  13.285  10.434
46411SOL     OW41129   0.705   2.463   3.886
46411SOL    HW141130   0.643   2.510   3.942
46411SOL    HW241131   0.739   2.530   3.827
46412SOL     OW41132   5.381   5.748   5.873
46412SOL    HW141133   5.318   5.677   5.861
46412SOL    HW241134   5.328   5.827   5.881
46413SOL     OW41135  14.378  13.591   2.266
46413SOL    HW141136  14.388  13.680   2.300
46413SOL    HW241137  14.290  13.590   2.227
46414SOL     OW41138  13.794   7.694   8.929
46414SOL    HW141139  13.767   7.639   8.855
46414SOL    HW241140  13.727   7.681   8.995
46415SOL     OW41141   3.424  11.285  14.754
46415SOL    HW141142   3.409  11.366  14.706
46415SOL    HW241143   3.432  11.312  14.846
46416SOL     OW41144   5.968  11.478  12.921
46416SOL    HW141145   6.040  11.423  12.953
46416SOL    HW241146   5.972  11.557  12.975
46417SOL     OW41147   1.072  14.079   7.759
46417SOL    HW141148   1.062  14.064   7.853
46417SOL    HW241149   1.166  14.069   7.743
46418SOL     OW41150   5.249   3.383  14.416
46418SOL    HW141151   5.300   3.463  14.420
46418SOL    HW241152   5.189   3.395  14.342
46419SOL     OW41153   7.330  10.591   6.314
46419SOL    HW141154   7.276  10.534   6.259
46419SOL    HW241155   7.361  10.534   6.384
46420SOL     OW41156  11.493   2.272   4.341
46420SOL    HW141157  11.471   2.282   4.433
46420SOL    HW241158  11.409   2.276   4.295
46421SOL     OW41159   0.427   7.504   7.472
46421SOL    HW141160   0.499   7.519   7.411
46421SOL    HW241161   0.464   7.449   7.540
46422SOL     OW41162   3.462   2.195  12.815
46422SOL    HW141163   3.549   2.157  12.828
46422SOL    HW241164   3.441   2.236  12.899
46423SOL     OW41165   1.796   0.166   2.449
46423SOL    HW141166   1.853   0.120   2.388
46423SOL    HW241167   1.852   0.233   2.488
46424SOL     OW41168   0.014   0.544   5.623
46424SOL    HW141169  14.836   0.590   5.565
46424SOL    HW241170   0.068   0.613   5.661
46425SOL     OW41171  11.260   5.896   3.821
46425SOL    HW141172  11.210   5.974   3.845
46425SOL    HW241173  11.195   5.837   3.784
46426SOL     OW41174   8.124   2.504  11.391
46426SOL    HW141175   8.066   2.579  11.381
46426SOL    HW241176   8.066   2.431  11.412
46427SOL     OW41177  13.647   5.716   1.315
46427SOL    HW141178  13.590   5.660   1.368
46427SOL    HW241179  13.735   5.702   1.350
46428SOL     OW41180  13.865  14.602   1.089
46428SOL    HW141181  13.873  14.659   1.165
46428SOL    HW241182  13.869  14.513   1.126
46429SOL     OW41183   2.884  12.161   6.977
46429SOL    HW141184   2.908  12.130   6.890
46429SOL    HW241185   2.900  12.087   7.034
46430SOL     OW41186   3.854   9.146   2.765
46430SOL    HW141187   3.888   9.075   2.711
46430SOL    HW241188   3.870   9.225   2.714
46431SOL     OW41189   8.483  11.070   1.429
46431SOL    HW141190   8.553  11.030   1.481
46431SOL    HW241191   8.503  11.042   1.339
46432SOL     OW41192  10.393  14.593  10.490
46432SOL    HW141193  10.366  14.503  10.472
46432SOL    HW241194  10.360  14.643  10.415
46433SOL     OW41195  10.251   8.780  12.244
46433SOL    HW141196  10.165   8.773  12.287
46433SOL    HW241197  10.313   8.748  12.310
46434SOL     OW41198  13.149   9.905   0.175
46434SOL    HW141199  13.172   9.916   0.082
46434SOL    HW241200  13.084   9.972   0.192
46435SOL     OW41201   1.880   2.999   2.923
46435SOL    HW141202   1.861   2.949   2.843
46435SOL    HW241203   1.890   2.933   2.991
46436SOL     OW41204   2.478  12.154   6.919
46436SOL    HW141205   2.432  12.070   6.919
46436SOL    HW241206   2.409  12.220   6.924
46437SOL     OW41207   5.764  13.654  12.674
46437SOL    HW141208   5.706  13.711  12.624
46437SOL    HW241209   5.713  13.574  12.687
46438SOL     OW41210   4.333  13.832   4.327
46438SOL    HW141211   4.420  13.872   4.329
46438SOL    HW241212   4.282  13.887   4.267
46439SOL     OW41213   2.513   4.219   7.743
46439SOL    HW141214   2.553   4.301   7.770
46439SOL    HW241215   2.530   4.213   7.649
46440SOL     OW41216   8.439   2.060   3.806
46440SOL    HW141217   8.524   2.076   3.847
46440SOL    HW241218   8.383   2.131   3.838
46441SOL     OW41219   7.824   7.826   7.152
46441SOL    HW141220   7.899   7.810   7.094
46441SOL    HW241221   7.801   7.739   7.185
46442SOL     OW41222   3.279   6.533   9.099
46442SOL    HW141223   3.227   6.504   9.024
46442SOL    HW241224   3.353   6.473   9.102
46443SOL     OW41225   1.070   8.118   4.707
46443SOL    HW141226   1.146   8.121   4.648
46443SOL    HW241227   1.052   8.025   4.718
46444SOL     OW41228  13.217   3.069   1.204
46444SOL    HW141229  13.294   3.122   1.223
46444SOL    HW241230  13.215   3.002   1.273
46445SOL     OW41231   9.163   8.562   6.050
46445SOL    HW141232   9.257   8.576   6.038
46445SOL    HW241233   9.122   8.644   6.023
46446SOL     OW41234   7.728   9.036   9.851
46446SOL    HW141235   7.660   9.102   9.839
46446SOL    HW241236   7.810   9.082   9.835
46447SOL     OW41237  14.240   6.262   5.787
46447SOL    HW141238  14.230   6.167   5.789
46447SOL    HW241239  14.259   6.287   5.877
46448SOL     OW41240  12.241   3.735   0.939
46448SOL    HW141241  12.307   3.676   0.903
46448SOL    HW241242  12.284   3.820   0.943
46449SOL     OW41243   1.051   6.715   7.098
46449SOL    HW141244   0.997   6.667   7.162
46449SOL    HW241245   1.091   6.786   7.149
46450SOL     OW41246   7.887   2.201   3.638
46450SOL    HW141247   7.964   2.182   3.692
46450SOL    HW241248   7.922   2.251   3.564
46451SOL     OW41249  14.602   3.597   1.509
46451SOL    HW141250  14.645   3.673   1.470
46451SOL    HW241251  14.603   3.615   1.603
46452SOL     OW41252   8.685   3.599   5.268
46452SOL    HW141253   8.685   3.692   5.248
46452SOL    HW241254   8.737   3.559   5.198
46453SOL     OW41255  11.591   0.897   4.681
46453SOL    HW141256  11.528   0.966   4.665
46453SOL    HW241257  11.601   0.853   4.596
46454SOL     OW41258  11.460   9.829  12.255
46454SOL    HW141259  11.469   9.904  12.196
46454SOL    HW241260  11.440   9.755  12.198
46455SOL     OW41261   6.038   7.685   8.098
46455SOL    HW141262   6.118   7.708   8.051
46455SOL    HW241263   6.068   7.631   8.171
46456SOL     OW41264   1.533  14.685   2.567
46456SOL    HW141265   1.528  14.679   2.472
46456SOL    HW241266   1.627  14.693   2.586
46457SOL     OW41267   9.006   3.384  12.160
46457SOL    HW141268   8.999   3.437  12.240
46457SOL    HW241269   9.086   3.415  12.118
46458SOL     OW41270   9.559  11.751   6.176
46458SOL    HW141271   9.491  11.729   6.112
46458SOL    HW241272   9.636  11.702   6.147
46459SOL     OW41273   2.988   1.458  13.796
46459SOL    HW141274   3.041   1.458  13.716
46459SOL    HW241275   3.026   1.526  13.850
46460SOL     OW41276   1.617   2.447   5.378
46460SOL    HW141277   1.567   2.376   5.336
46460SOL    HW241278   1.697   2.453   5.326
46461SOL     OW41279   8.539   6.184   7.119
46461SOL    HW141280   8.545   6.107   7.175
46461SOL    HW241281   8.506   6.253   7.176
46462SOL     OW41282  10.040   4.328   9.818
46462SOL    HW141283  10.067   4.292   9.733
46462SOL    HW241284  10.029   4.422   9.801
46463SOL     OW41285  14.648   5.545  10.166
46463SOL    HW141286  14.561   5.510  10.148
46463SOL    HW241287  14.633   5.621  10.221
46464SOL     OW41288   1.513   9.556   1.740
46464SOL    HW141289   1.523   9.531   1.832
46464SOL    HW241290   1.464   9.638   1.743
46465SOL     OW41291   0.867   2.256   9.326
46465SOL    HW141292   0.828   2.210   9.401
46465SOL    HW241293   0.897   2.340   9.362
46466SOL     OW41294   9.067   3.862   0.043
46466SOL    HW141295   9.101   3.939   0.087
46466SOL    HW241296   9.045   3.892  14.837
46467SOL     OW41297  12.611   1.110   7.339
46467SOL    HW141298  12.660   1.171   7.393
46467SOL    HW241299  12.676   1.071   7.281
46468SOL     OW41300   3.745  13.761  12.636
46468SOL    HW141301   3.837  13.739  12.623
46468SOL    HW241302   3.746  13.847  12.678
46469SOL     OW41303  10.302   5.518   2.227
46469SOL    HW141304  10.324   5.468   2.148
46469SOL    HW241305  10.367   5.588   2.229
46470SOL     OW41306   0.143  12.889   0.429
46470SOL    HW141307   0.221  12.840   0.456
46470SOL    HW241308   0.164  12.980   0.447
46471SOL     OW41309   8.303   5.626  10.555
46471SOL    HW141310   8.294   5.550  10.613
46471SOL    HW241311   8.216   5.664  10.552
46472SOL     OW41312  12.918  13.195  10.807
46472SOL    HW141313  13.007  13.230  10.798
46472SOL    HW241314  12.921  13.141  10.886
46473SOL     OW41315   3.428   9.548   6.699
46473SOL    HW141316   3.364   9.565   6.629
46473SOL    HW241317   3.463   9.461   6.679
46474SOL     OW41318  12.536  11.904  12.918
46474SOL    HW141319  12.603  11.846  12.882
46474SOL    HW241320  12.474  11.917  12.846
46475SOL     OW41321  10.449   5.896   1.792
46475SOL    HW141322  10.396   5.909   1.714
46475SOL    HW241323  10.538   5.914   1.764
46476SOL     OW41324   0.858  14.277   7.778
46476SOL    HW141325   0.840  14.291   7.871
46476SOL    HW241326   0.918  14.202   7.777
46477SOL     OW41327   1.361  10.122   8.412
46477SOL    HW141328   1.306  10.189   8.454
46477SOL    HW241329   1.299  10.070   8.361
46478SOL     OW41330  13.677   7.646   6.012
46478SOL    HW141331  13.606   7.599   5.968
46478SOL    HW241332  13.639   7.730   6.037
46479SOL     OW41333  13.041   6.784   5.364
46479SOL    HW141334  13.011   6.749   5.280
46479SOL    HW241335  13.134   6.803   5.350
46480SOL     OW41336   6.873   6.873  11.262
46480SOL    HW141337   6.814   6.928  11.314
46480SOL    HW241338   6.902   6.929  11.190
46481SOL     OW41339   1.335  14.471   5.164
46481SOL    HW141340   1.399  14.451   5.232
46481SOL    HW241341   1.379  14.533   5.106
46482SOL     OW41342   5.856   7.994   7.465
46482SOL    HW141343   5.846   7.908   7.505
46482SOL    HW241344   5.797   7.992   7.390
46483SOL     OW41345   6.136   9.296   1.460
46483SOL    HW141346   6.227   9.269   1.449
46483SOL    HW241347   6.142   9.388   1.487
46484SOL     OW41348   2.985   8.939   7.284
46484SOL    HW141349   2.901   8.973   7.317
46484SOL    HW241350   2.981   8.955   7.190
46485SOL     OW41351  12.762   0.143  13.340
46485SOL    HW141352  12.856   0.134  13.328
46485SOL    HW241353  12.748   0.235  13.363
46486SOL     OW41354   1.980   8.965   0.715
46486SOL    HW141355   1.952   8.874   0.719
46486SOL    HW241356   1.914   9.008   0.660
46487SOL     OW41357   4.867   2.416   5.987
46487SOL    HW141358   4.864   2.334   6.037
46487SOL    HW241359   4.782   2.420   5.944
46488SOL     OW41360   0.529   0.547   3.439
46488SOL    HW141361   0.568   0.589   3.362
46488SOL    HW241362   0.553   0.454   3.430
46489SOL     OW41363  11.909  12.550   2.401
46489SOL    HW141364  11.847  12.511   2.462
46489SOL    HW241365  11.922  12.639   2.433
46490SOL     OW41366   8.497  14.177   3.145
46490SOL    HW141367   8.566  14.110   3.145
46490SOL    HW241368   8.492  14.208   3.235
46491SOL     OW41369  11.238  10.686   7.605
46491SOL    HW141370  11.185  10.606   7.604
46491SOL    HW241371  11.318  10.661   7.651
46492SOL     OW41372  13.296   0.161   9.799
46492SOL    HW141373  13.295   0.067   9.781
46492SOL    HW241374  13.348   0.199   9.728
46493SOL     OW41375   4.952   7.069   1.526
46493SOL    HW141376   4.903   6.993   1.556
46493SOL    HW241377   4.993   7.041   1.445
46494SOL     OW41378   9.100   0.161   9.599
46494SOL    HW141379   9.126   0.201   9.682
46494SOL    HW241380   9.019   0.207   9.575
46495SOL     OW41381   8.897  12.662  14.803
46495SOL    HW141382   8.912  12.757  14.810
46495SOL    HW241383   8.864  12.649  14.715
46496SOL     OW41384   4.138  11.812  14.789
46496SOL    HW141385   4.152  11.727  14.747
46496SOL    HW241386   4.203  11.870  14.748
46497SOL     OW41387   6.837   2.578  14.196
46497SOL    HW141388   6.761   2.531  14.228
46497SOL    HW241389   6.811   2.612  14.111
46498SOL     OW41390   3.553   1.560  14.344
46498SOL    HW141391   3.587   1.483  14.389
46498SOL    HW241392   3.632   1.605  14.312
46499SOL     OW41393   3.404   9.833   3.566
46499SOL    HW141394   3.443   9.826   3.479
46499SOL    HW241395   3.396   9.927   3.582
46500SOL     OW41396   3.748   5.492   5.089
46500SOL    HW141397   3.715   5.413   5.132
46500SOL    HW241398   3.683   5.511   5.022
46501SOL     OW41399  14.690   1.000   1.107
46501SOL    HW141400  14.681   0.985   1.013
46501SOL    HW241401  14.778   1.037   1.118
46502SOL     OW41402  14.073   4.344   2.298
46502SOL    HW141403  14.101   4.404   2.367
46502SOL    HW241404  13.980   4.363   2.286
46503SOL     OW41405   8.372  11.649   5.011
46503SOL    HW141406   8.414  11.594   5.077
46503SOL    HW241407   8.307  11.699   5.060
46504SOL     OW41408  11.664   5.944  14.392
46504SOL    HW141409  11.600   5.872  14.386
46504SOL    HW241410  11.619   6.019  14.353
46505SOL     OW41411   3.582   9.091   0.478
46505SOL    HW141412   3.656   9.042   0.442
46505SOL    HW241413   3.561   9.048   0.561
46506SOL     OW41414  13.849   4.897  14.802
46506SOL    HW141415  13.871   4.874  14.711
46506SOL    HW241416  13.932   4.889  14.849
46507SOL     OW41417   0.442   2.612   4.229
46507SOL    HW141418   0.501   2.668   4.178
46507SOL    HW241419   0.376   2.672   4.264
46508SOL     OW41420  11.214  11.914   3.493
46508SOL    HW141421  11.137  11.966   3.516
46508SOL    HW241422  11.182  11.824   3.495
46509SOL     OW41423  11.003   9.349   0.636
46509SOL    HW141424  10.918   9.353   0.592
46509SOL    HW241425  10.992   9.406   0.713
46510SOL     OW41426   9.845   0.812   6.263
46510SOL    HW141427   9.761   0.852   6.287
46510SOL    HW241428   9.874   0.862   6.187
46511SOL     OW41429   5.670   9.074  13.281
46511SOL    HW141430   5.689   9.009  13.348
46511SOL    HW241431   5.663   9.023  13.200
46512SOL     OW41432   3.145   8.412  10.313
46512SOL    HW141433   3.058   8.411  10.274
46512SOL    HW241434   3.182   8.497  10.287
46513SOL     OW41435   9.004  11.226   2.367
46513SOL    HW141436   9.012  11.281   2.289
46513SOL    HW241437   8.918  11.248   2.402
46514SOL     OW41438   0.786   0.218   4.209
46514SOL    HW141439   0.692   0.203   4.218
46514SOL    HW241440   0.799   0.241   4.117
46515SOL     OW41441   4.465   6.419   8.591
46515SOL    HW141442   4.499   6.441   8.504
46515SOL    HW241443   4.530   6.455   8.652
46516SOL     OW41444  14.617   5.873   9.145
46516SOL    HW141445  14.635   5.917   9.228
46516SOL    HW241446  14.522   5.875   9.137
46517SOL     OW41447   9.142   0.294   8.618
46517SOL    HW141448   9.191   0.309   8.537
46517SOL    HW241449   9.210   0.289   8.686
46518SOL     OW41450  12.542   3.304   1.582
46518SOL    HW141451  12.553   3.253   1.501
46518SOL    HW241452  12.450   3.329   1.583
46519SOL     OW41453   5.225   4.758   3.195
46519SOL    HW141454   5.283   4.807   3.254
46519SOL    HW241455   5.282   4.727   3.126
46520SOL     OW41456  10.351   3.046  11.688
46520SOL    HW141457  10.407   2.976  11.722
46520SOL    HW241458  10.275   3.000  11.651
46521SOL     OW41459   0.215   9.611  12.027
46521SOL    HW141460   0.296   9.648  12.063
46521SOL    HW241461   0.243   9.532  11.982
46522SOL     OW41462   0.530   3.727   4.173
46522SOL    HW141463   0.465   3.668   4.211
46522SOL    HW241464   0.583   3.756   4.247
46523SOL     OW41465  10.837   8.827   6.505
46523SOL    HW141466  10.793   8.747   6.475
46523SOL    HW241467  10.829   8.823   6.601
46524SOL     OW41468   7.750   2.151   2.416
46524SOL    HW141469   7.809   2.190   2.481
46524SOL    HW241470   7.744   2.059   2.441
46525SOL     OW41471   0.785  10.315   8.192
46525SOL    HW141472   0.858  10.362   8.152
46525SOL    HW241473   0.712  10.377   8.187
46526SOL     OW41474   8.866   5.948   0.680
46526SOL    HW141475   8.881   6.043   0.673
46526SOL    HW241476   8.950   5.909   0.656
46527SOL     OW41477  12.147  11.890   8.013
46527SOL    HW141478  12.117  11.803   8.040
46527SOL    HW241479  12.133  11.945   8.089
46528SOL     OW41480   9.988  12.630   6.659
46528SOL    HW141481  10.002  12.547   6.613
46528SOL    HW241482   9.895  12.650   6.645
46529SOL     OW41483   6.828  14.663   1.945
46529SOL    HW141484   6.883  14.715   2.003
46529SOL    HW241485   6.874  14.663   1.861
46530SOL     OW41486  12.191   3.482   0.418
46530SOL    HW141487  12.273   3.505   0.374
46530SOL    HW241488  12.203   3.391   0.444
46531SOL     OW41489   7.956   7.686   0.329
46531SOL    HW141490   8.012   7.617   0.294
46531SOL    HW241491   8.014   7.740   0.381
46532SOL     OW41492  12.892   7.528   4.832
46532SOL    HW141493  12.825   7.543   4.765
46532SOL    HW241494  12.867   7.445   4.872
46533SOL     OW41495   1.492   7.941   2.869
46533SOL    HW141496   1.551   7.982   2.933
46533SOL    HW241497   1.408   7.987   2.881
46534SOL     OW41498  13.422  10.939  13.086
46534SOL    HW141499  13.456  11.019  13.046
46534SOL    HW241500  13.442  10.948  13.180
46535SOL     OW41501  14.441   2.928   5.419
46535SOL    HW141502  14.385   2.973   5.482
46535SOL    HW241503  14.521   2.907   5.468
46536SOL     OW41504   0.572   0.795  11.233
46536SOL    HW141505   0.480   0.817  11.245
46536SOL    HW241506   0.604   0.857  11.168
46537SOL     OW41507   2.168   5.783   5.250
46537SOL    HW141508   2.224   5.720   5.296
46537SOL    HW241509   2.206   5.790   5.162
46538SOL     OW41510   0.923  10.977   3.443
46538SOL    HW141511   0.845  10.993   3.495
46538SOL    HW241512   0.923  10.882   3.427
46539SOL     OW41513  13.620   5.519   7.799
46539SOL    HW141514  13.711   5.528   7.771
46539SOL    HW241515  13.596   5.429   7.775
46540SOL     OW41516  11.645   3.010  11.637
46540SOL    HW141517  11.708   3.037  11.570
46540SOL    HW241518  11.565   3.057  11.615
46541SOL     OW41519   5.900   6.758   7.829
46541SOL    HW141520   5.885   6.829   7.892
46541SOL    HW241521   5.962   6.699   7.872
46542SOL     OW41522  11.482   1.549   9.628
46542SOL    HW141523  11.514   1.631   9.667
46542SOL    HW241524  11.387   1.557   9.631
46543SOL     OW41525   9.690  11.076  11.446
46543SOL    HW141526   9.751  11.124  11.390
46543SOL    HW241527   9.605  11.087  11.403
46544SOL     OW41528   2.402   9.006  10.016
46544SOL    HW141529   2.413   9.027  10.109
46544SOL    HW241530   2.341   8.933  10.016
46545SOL     OW41531  14.075   7.234   5.622
46545SOL    HW141532  14.049   7.299   5.557
46545SOL    HW241533  14.159   7.266   5.655
46546SOL     OW41534  14.372   1.454   0.220
46546SOL    HW141535  14.378   1.549   0.221
46546SOL    HW241536  14.368   1.431   0.127
46547SOL     OW41537   1.785   2.139   9.111
46547SOL    HW141538   1.719   2.179   9.055
46547SOL    HW241539   1.790   2.049   9.081
46548SOL     OW41540  12.445   0.464  12.266
46548SOL    HW141541  12.515   0.529  12.265
46548SOL    HW241542  12.427   0.446  12.174
46549SOL     OW41543  13.902  13.850  14.141
46549SOL    HW141544  13.876  13.766  14.105
46549SOL    HW241545  13.969  13.882  14.080
46550SOL     OW41546   4.386   4.037  14.872
46550SOL    HW141547   4.388   3.973   0.061
46550SOL    HW241548   4.478   4.059  14.857
46551SOL     OW41549   7.150   9.656  12.263
46551SOL    HW141550   7.204   9.713  12.319
46551SOL    HW241551   7.214   9.610  12.209
46552SOL     OW41552   1.559   8.455  11.966
46552SOL    HW141553   1.548   8.379  11.908
46552SOL    HW241554   1.648   8.484  11.951
46553SOL     OW41555  11.730   1.229  11.574
46553SOL    HW141556  11.735   1.193  11.662
46553SOL    HW241557  11.740   1.323  11.585
46554SOL     OW41558   6.479   4.572   1.328
46554SOL    HW141559   6.528   4.652   1.309
46554SOL    HW241560   6.388   4.600   1.331
46555SOL     OW41561  10.887  14.595   9.284
46555SOL    HW141562  10.937  14.639   9.214
46555SOL    HW241563  10.800  14.585   9.247
46556SOL     OW41564   2.433   9.702   6.808
46556SOL    HW141565   2.342   9.731   6.809
46556SOL    HW241566   2.457   9.700   6.716
46557SOL     OW41567  13.637  12.023   5.423
46557SOL    HW141568  13.714  12.050   5.373
46557SOL    HW241569  13.562  12.058   5.375
46558SOL     OW41570  10.195  11.230   0.022
46558SOL    HW141571  10.120  11.226  14.844
46558SOL    HW241572  10.177  11.164   0.088
46559SOL     OW41573   6.141   3.073   3.826
46559SOL    HW141574   6.224   3.092   3.870
46559SOL    HW241575   6.166   3.029   3.745
46560SOL     OW41576   4.473   2.625  13.904
46560SOL    HW141577   4.555   2.671  13.889
46560SOL    HW241578   4.431   2.672  13.976
46561SOL     OW41579  12.149   9.435   0.613
46561SOL    HW141580  12.184   9.358   0.568
46561SOL    HW241581  12.057   9.439   0.586
46562SOL     OW41582  12.029  10.695   3.797
46562SOL    HW141583  12.097  10.752   3.834
46562SOL    HW241584  11.984  10.659   3.873
46563SOL     OW41585   7.033   3.171  10.026
46563SOL    HW141586   7.107   3.110  10.033
46563SOL    HW241587   7.068   3.246   9.978
46564SOL     OW41588   1.454   5.691  10.602
46564SOL    HW141589   1.462   5.731  10.515
46564SOL    HW241590   1.377   5.732  10.641
46565SOL     OW41591  11.663   5.970   1.834
46565SOL    HW141592  11.751   5.933   1.826
46565SOL    HW241593  11.604   5.899   1.811
46566SOL     OW41594   3.920   4.431   5.772
46566SOL    HW141595   3.924   4.465   5.861
46566SOL    HW241596   4.002   4.457   5.731
46567SOL     OW41597  14.310  13.815   1.091
46567SOL    HW141598  14.318  13.728   1.129
46567SOL    HW241599  14.335  13.874   1.162
46568SOL     OW41600   2.082  10.715  14.437
46568SOL    HW141601   2.081  10.723  14.533
46568SOL    HW241602   1.992  10.692  14.414
46569SOL     OW41603   9.810  11.622   3.401
46569SOL    HW141604   9.836  11.532   3.419
46569SOL    HW241605   9.802  11.626   3.306
46570SOL     OW41606   0.799   8.504   0.914
46570SOL    HW141607   0.812   8.446   0.839
46570SOL    HW241608   0.832   8.455   0.989
46571SOL     OW41609   3.680  12.790   1.820
46571SOL    HW141610   3.634  12.717   1.779
46571SOL    HW241611   3.766  12.792   1.777
46572SOL     OW41612  11.095   7.979   5.402
46572SOL    HW141613  11.145   7.908   5.444
46572SOL    HW241614  11.004   7.950   5.406
46573SOL     OW41615   3.216   4.092   1.747
46573SOL    HW141616   3.292   4.034   1.744
46573SOL    HW241617   3.209   4.125   1.657
46574SOL     OW41618  11.172  14.549  14.451
46574SOL    HW141619  11.084  14.515  14.468
46574SOL    HW241620  11.226  14.511  14.521
46575SOL     OW41621  14.804   7.442   3.630
46575SOL    HW141622  14.870   7.450   3.561
46575SOL    HW241623  14.831   7.505   3.696
46576SOL     OW41624   1.504  14.815   5.863
46576SOL    HW141625   1.464  14.795   5.778
46576SOL    HW241626   1.489   0.027   5.875
46577SOL     OW41627  14.027   1.433  10.814
46577SOL    HW141628  14.113   1.415  10.775
46577SOL    HW241629  14.005   1.520  10.782
46578SOL     OW41630   6.411  12.152   1.486
46578SOL    HW141631   6.348  12.203   1.538
46578SOL    HW241632   6.362  12.073   1.461
46579SOL     OW41633   8.406   7.286  13.804
46579SOL    HW141634   8.431   7.291  13.897
46579SOL    HW241635   8.404   7.192  13.785
46580SOL     OW41636   9.282   6.764   8.602
46580SOL    HW141637   9.301   6.754   8.509
46580SOL    HW241638   9.242   6.681   8.628
46581SOL     OW41639  13.785   2.013   1.751
46581SOL    HW141640  13.796   2.031   1.844
46581SOL    HW241641  13.707   2.063   1.726
46582SOL     OW41642   3.260   7.082   2.016
46582SOL    HW141643   3.340   7.072   1.964
46582SOL    HW241644   3.216   6.997   2.008
46583SOL     OW41645   2.920   8.853   1.858
46583SOL    HW141646   3.011   8.851   1.889
46583SOL    HW241647   2.870   8.881   1.934
46584SOL     OW41648   8.116   6.571   9.472
46584SOL    HW141649   8.200   6.538   9.505
46584SOL    HW241650   8.117   6.664   9.493
46585SOL     OW41651   6.190  11.285  10.307
46585SOL    HW141652   6.102  11.249  10.302
46585SOL    HW241653   6.247  11.209  10.313
46586SOL     OW41654   6.555   5.654   1.381
46586SOL    HW141655   6.600   5.692   1.457
46586SOL    HW241656   6.511   5.577   1.415
46587SOL     OW41657   3.140  14.753  13.027
46587SOL    HW141658   3.225  14.791  13.049
46587SOL    HW241659   3.091  14.756  13.109
46588SOL     OW41660   6.472   0.304   7.465
46588SOL    HW141661   6.383   0.320   7.499
46588SOL    HW241662   6.529   0.354   7.524
46589SOL     OW41663  12.233   0.887   8.590
46589SOL    HW141664  12.249   0.876   8.684
46589SOL    HW241665  12.319   0.907   8.553
46590SOL     OW41666   6.753   6.891   8.645
46590SOL    HW141667   6.665   6.854   8.652
46590SOL    HW241668   6.810   6.824   8.682
46591SOL     OW41669   7.613   8.805   6.596
46591SOL    HW141670   7.633   8.851   6.515
46591SOL    HW241671   7.677   8.838   6.659
46592SOL     OW41672  12.235   9.435   0.876
46592SOL    HW141673  12.150   9.460   0.913
46592SOL    HW241674  12.213   9.391   0.794
46593SOL     OW41675   8.962  14.327  13.342
46593SOL    HW141676   8.878  14.286  13.365
46593SOL    HW241677   9.006  14.261  13.288
46594SOL     OW41678   3.664  11.293   4.791
46594SOL    HW141679   3.654  11.204   4.758
46594SOL    HW241680   3.630  11.348   4.720
46595SOL     OW41681  10.887  10.571  10.661
46595SOL    HW141682  10.822  10.637  10.684
46595SOL    HW241683  10.908  10.527  10.744
46596SOL     OW41684  11.097  12.050  12.307
46596SOL    HW141685  11.091  12.105  12.386
46596SOL    HW241686  11.187  12.061  12.277
46597SOL     OW41687   5.397   2.675   8.540
46597SOL    HW141688   5.347   2.629   8.472
46597SOL    HW241689   5.334   2.735   8.580
46598SOL     OW41690   2.307  12.065   2.004
46598SOL    HW141691   2.269  11.978   1.999
46598SOL    HW241692   2.399  12.050   2.026
46599SOL     OW41693  12.238   0.982   9.267
46599SOL    HW141694  12.240   1.035   9.188
46599SOL    HW241695  12.303   0.914   9.252
46600SOL     OW41696  14.738  13.929   1.351
46600SOL    HW141697  14.828  13.959   1.349
46600SOL    HW241698  14.688  14.001   1.389
46601SOL     OW41699   0.963   0.175  13.690
46601SOL    HW141700   0.988   0.146  13.602
46601SOL    HW241701   0.984   0.269  13.691
46602SOL     OW41702   9.214   7.169   9.522
46602SOL    HW141703   9.291   7.134   9.476
46602SOL    HW241704   9.198   7.106   9.592
46603SOL     OW41705  11.920  12.793  11.659
46603SOL    HW141706  11.968  12.869  11.692
46603SOL    HW241707  11.842  12.829  11.619
46604SOL     OW41708  10.776  14.181   5.091
46604SOL    HW141709  10.701  14.233   5.060
46604SOL    HW241710  10.832  14.173   5.014
46605SOL     OW41711   7.136  10.297   8.578
46605SOL    HW141712   7.127  10.357   8.504
46605SOL    HW241713   7.140  10.210   8.537
46606SOL     OW41714   3.079   1.136  10.694
46606SOL    HW141715   3.089   1.225  10.659
46606SOL    HW241716   3.131   1.135  10.774
46607SOL     OW41717  12.296   0.146   2.865
46607SOL    HW141718  12.379   0.125   2.907
46607SOL    HW241719  12.275   0.233   2.896
46608SOL     OW41720  10.049  12.214   2.242
46608SOL    HW141721  10.004  12.157   2.304
46608SOL    HW241722   9.979  12.250   2.187
46609SOL     OW41723   4.191   9.290   3.159
46609SOL    HW141724   4.209   9.253   3.245
46609SOL    HW241725   4.213   9.220   3.098
46610SOL     OW41726  14.241  12.519  11.649
46610SOL    HW141727  14.214  12.460  11.578
46610SOL    HW241728  14.270  12.460  11.719
46611SOL     OW41729  13.067   6.625   4.951
46611SOL    HW141730  13.007   6.656   5.018
46611SOL    HW241731  13.011   6.597   4.879
46612SOL     OW41732  10.776   6.858  11.649
46612SOL    HW141733  10.811   6.930  11.701
46612SOL    HW241734  10.841   6.788  11.659
46613SOL     OW41735  10.146  11.214   9.199
46613SOL    HW141736  10.060  11.233   9.162
46613SOL    HW241737  10.128  11.181   9.287
46614SOL     OW41738  14.557   6.746   8.657
46614SOL    HW141739  14.468   6.717   8.678
46614SOL    HW241740  14.606   6.665   8.643
46615SOL     OW41741   0.623  11.438   1.165
46615SOL    HW141742   0.646  11.486   1.085
46615SOL    HW241743   0.679  11.360   1.163
46616SOL     OW41744   3.707  10.046   4.427
46616SOL    HW141745   3.709   9.953   4.404
46616SOL    HW241746   3.621  10.076   4.397
46617SOL     OW41747   0.936  14.158   5.186
46617SOL    HW141748   0.936  14.106   5.105
46617SOL    HW241749   1.028  14.179   5.201
46618SOL     OW41750   2.843   8.582   6.045
46618SOL    HW141751   2.795   8.581   5.963
46618SOL    HW241752   2.935   8.582   6.020
46619SOL     OW41753   7.081  14.045   1.438
46619SOL    HW141754   7.146  14.086   1.382
46619SOL    HW241755   6.999  14.052   1.389
46620SOL     OW41756   5.196   5.493  11.851
46620SOL    HW141757   5.147   5.570  11.879
46620SOL    HW241758   5.166   5.423  11.910
46621SOL     OW41759   4.160   8.352   9.095
46621SOL    HW141760   4.085   8.406   9.070
46621SOL    HW241761   4.147   8.269   9.048
46622SOL     OW41762  11.166  14.732   6.858
46622SOL    HW141763  11.189  14.699   6.771
46622SOL    HW241764  11.159  14.653   6.912
46623SOL     OW41765   2.753  14.606   0.885
46623SOL    HW141766   2.772  14.615   0.791
46623SOL    HW241767   2.835  14.578   0.924
46624SOL     OW41768  14.479  12.640  13.472
46624SOL    HW141769  14.465  12.553  13.434
46624SOL    HW241770  14.573  12.645  13.487
46625SOL     OW41771   4.126   6.311  12.227
46625SOL    HW141772   4.088   6.388  12.269
46625SOL    HW241773   4.152   6.255  12.301
46626SOL     OW41774   1.880   1.969   7.201
46626SOL    HW141775   1.918   1.963   7.113
46626SOL    HW241776   1.854   1.880   7.222
46627SOL     OW41777   1.390   8.290   9.529
46627SOL    HW141778   1.310   8.337   9.551
46627SOL    HW241779   1.388   8.213   9.586
46628SOL     OW41780   8.548  14.556   4.874
46628SOL    HW141781   8.594  14.527   4.796
46628SOL    HW241782   8.528  14.476   4.922
46629SOL     OW41783  11.424   9.999   1.760
46629SOL    HW141784  11.415   9.943   1.683
46629SOL    HW241785  11.345  10.053   1.760
46630SOL     OW41786   2.236   2.391  12.358
46630SOL    HW141787   2.321   2.369  12.395
46630SOL    HW241788   2.186   2.427  12.430
46631SOL     OW41789  13.457   1.802   0.349
46631SOL    HW141790  13.519   1.728   0.345
46631SOL    HW241791  13.505   1.871   0.395
46632SOL     OW41792   4.011   4.186   8.409
46632SOL    HW141793   4.039   4.239   8.334
46632SOL    HW241794   4.009   4.096   8.376
46633SOL     OW41795  10.961   6.380   9.923
46633SOL    HW141796  11.039   6.327   9.908
46633SOL    HW241797  10.994   6.468   9.939
46634SOL     OW41798   9.665   6.391  10.000
46634SOL    HW141799   9.760   6.387  10.014
46634SOL    HW241800   9.634   6.303  10.023
46635SOL     OW41801   5.587   5.775   8.590
46635SOL    HW141802   5.527   5.791   8.517
46635SOL    HW241803   5.532   5.786   8.668
46636SOL     OW41804  12.784  10.886   9.354
46636SOL    HW141805  12.842  10.907   9.427
46636SOL    HW241806  12.729  10.964   9.344
46637SOL     OW41807   4.513   3.787   0.686
46637SOL    HW141808   4.440   3.736   0.721
46637SOL    HW241809   4.472   3.858   0.636
46638SOL     OW41810   5.422   1.654  12.324
46638SOL    HW141811   5.366   1.727  12.298
46638SOL    HW241812   5.420   1.593  12.250
46639SOL     OW41813   8.834  11.384  12.079
46639SOL    HW141814   8.748  11.349  12.055
46639SOL    HW241815   8.816  11.473  12.110
46640SOL     OW41816   7.190  12.180   8.021
46640SOL    HW141817   7.110  12.141   8.056
46640SOL    HW241818   7.251  12.106   8.014
46641SOL     OW41819   7.900   9.883   9.208
46641SOL    HW141820   7.873   9.803   9.164
46641SOL    HW241821   7.825   9.907   9.262
46642SOL     OW41822   0.299   5.536   3.261
46642SOL    HW141823   0.385   5.503   3.233
46642SOL    HW241824   0.280   5.608   3.200
46643SOL     OW41825   5.289   5.845   5.596
46643SOL    HW141826   5.272   5.880   5.684
46643SOL    HW241827   5.371   5.887   5.569
46644SOL     OW41828   1.993  14.112   4.832
46644SOL    HW141829   2.028  14.097   4.744
46644SOL    HW241830   2.069  14.137   4.884
46645SOL     OW41831   9.478   4.607   6.649
46645SOL    HW141832   9.482   4.685   6.705
46645SOL    HW241833   9.472   4.642   6.560
46646SOL     OW41834   9.606  11.296   7.921
46646SOL    HW141835   9.592  11.374   7.975
46646SOL    HW241836   9.566  11.225   7.971
46647SOL     OW41837  11.990   0.909   1.684
46647SOL    HW141838  12.084   0.892   1.676
46647SOL    HW241839  11.980   1.002   1.666
46648SOL     OW41840   7.110   5.388  12.984
46648SOL    HW141841   7.186   5.397  13.043
46648SOL    HW241842   7.068   5.306  13.012
46649SOL     OW41843   8.981  14.398   8.404
46649SOL    HW141844   9.053  14.387   8.467
46649SOL    HW241845   8.948  14.486   8.421
46650SOL     OW41846   4.661   4.593   7.354
46650SOL    HW141847   4.696   4.672   7.314
46650SOL    HW241848   4.600   4.558   7.290
46651SOL     OW41849   4.536   1.706  14.793
46651SOL    HW141850   4.491   1.772  14.846
46651SOL    HW241851   4.601   1.756  14.743
46652SOL     OW41852  11.399   5.782  12.686
46652SOL    HW141853  11.371   5.696  12.655
46652SOL    HW241854  11.335   5.843  12.650
46653SOL     OW41855  13.837   8.153  14.077
46653SOL    HW141856  13.767   8.217  14.061
46653SOL    HW241857  13.790   8.072  14.099
46654SOL     OW41858   8.012   1.214   8.998
46654SOL    HW141859   8.079   1.154   9.031
46654SOL    HW241860   7.991   1.270   9.072
46655SOL     OW41861  12.644  13.250   5.764
46655SOL    HW141862  12.559  13.210   5.743
46655SOL    HW241863  12.631  13.292   5.849
46656SOL     OW41864   2.813   4.857  10.762
46656SOL    HW141865   2.907   4.839  10.769
46656SOL    HW241866   2.774   4.806  10.832
46657SOL     OW41867   3.789  14.297   4.355
46657SOL    HW141868   3.867  14.272   4.306
46657SOL    HW241869   3.746  14.362   4.301
46658SOL     OW41870   3.755  10.678   1.952
46658SOL    HW141871   3.802  10.755   1.982
46658SOL    HW241872   3.696  10.656   2.024
46659SOL     OW41873   7.439   3.351  12.351
46659SOL    HW141874   7.495   3.424  12.325
46659SOL    HW241875   7.385   3.386  12.422
46660SOL     OW41876   3.950   2.027   8.651
46660SOL    HW141877   3.870   1.993   8.691
46660SOL    HW241878   3.925   2.044   8.559
46661SOL     OW41879  13.264   3.965   9.389
46661SOL    HW141880  13.337   3.906   9.373
46661SOL    HW241881  13.290   4.048   9.348
46662SOL     OW41882  13.308  11.601  11.386
46662SOL    HW141883  13.382  11.661  11.382
46662SOL    HW241884  13.348  11.515  11.403
46663SOL     OW41885   8.888  13.777   9.260
46663SOL    HW141886   8.852  13.860   9.291
46663SOL    HW241887   8.924  13.736   9.339
46664SOL     OW41888   2.503   7.133   1.229
46664SOL    HW141889   2.548   7.076   1.167
46664SOL    HW241890   2.565   7.204   1.246
46665SOL     OW41891  13.397   2.509   6.968
46665SOL    HW141892  13.352   2.477   7.046
46665SOL    HW241893  13.456   2.577   7.000
46666SOL     OW41894  14.811  14.865   7.108
46666SOL    HW141895  14.759  14.788   7.084
46666SOL    HW241896  14.867  14.835   7.179
46667SOL     OW41897  13.732  12.020   5.692
46667SOL    HW141898  13.673  12.093   5.714
46667SOL    HW241899  13.695  11.984   5.612
46668SOL     OW41900  14.846  14.486   9.534
46668SOL    HW141901   0.009  14.548   9.476
46668SOL    HW241902   0.032  14.452   9.592
46669SOL     OW41903  10.918   3.730   0.105
46669SOL    HW141904  10.907   3.781   0.025
46669SOL    HW241905  10.877   3.784   0.173
46670SOL     OW41906   6.168   5.745   9.991
46670SOL    HW141907   6.175   5.714   9.901
46670SOL    HW241908   6.171   5.665  10.045
46671SOL     OW41909  10.697   2.400   1.767
46671SOL    HW141910  10.740   2.466   1.822
46671SOL    HW241911  10.610   2.390   1.805
46672SOL     OW41912   5.898   5.546   6.759
46672SOL    HW141913   5.841   5.576   6.829
46672SOL    HW241914   5.840   5.534   6.684
46673SOL     OW41915   2.722   6.719  11.934
46673SOL    HW141916   2.712   6.658  11.861
46673SOL    HW241917   2.672   6.797  11.908
46674SOL     OW41918  13.780   1.159   5.167
46674SOL    HW141919  13.776   1.165   5.263
46674SOL    HW241920  13.873   1.149   5.148
46675SOL     OW41921  14.358   1.006  10.363
46675SOL    HW141922  14.373   1.101  10.364
46675SOL    HW241923  14.440   0.969  10.397
46676SOL     OW41924   5.440  14.342   7.953
46676SOL    HW141925   5.450  14.397   8.031
46676SOL    HW241926   5.350  14.359   7.923
46677SOL     OW41927   6.576  10.092   9.093
46677SOL    HW141928   6.489  10.062   9.122
46677SOL    HW241929   6.574  10.083   8.998
46678SOL     OW41930   0.335   0.484   7.363
46678SOL    HW141931   0.366   0.412   7.418
46678SOL    HW241932   0.408   0.501   7.303
46679SOL     OW41933   2.606   9.760   9.342
46679SOL    HW141934   2.698   9.733   9.341
46679SOL    HW241935   2.586   9.782   9.251
46680SOL     OW41936  11.107  12.636  10.164
46680SOL    HW141937  11.143  12.725  10.159
46680SOL    HW241938  11.020  12.647  10.202
46681SOL     OW41939   4.413   2.488   5.073
46681SOL    HW141940   4.445   2.400   5.094
46681SOL    HW241941   4.455   2.545   5.138
46682SOL     OW41942   9.794   1.066   4.360
46682SOL    HW141943   9.751   0.986   4.327
46682SOL    HW241944   9.831   1.040   4.444
46683SOL     OW41945   3.012  11.845  12.296
46683SOL    HW141946   2.972  11.931  12.285
46683SOL    HW241947   2.952  11.785  12.251
46684SOL     OW41948   3.962   2.482  11.786
46684SOL    HW141949   3.925   2.435  11.711
46684SOL    HW241950   4.006   2.558  11.749
46685SOL     OW41951  11.685  11.410  12.584
46685SOL    HW141952  11.707  11.499  12.613
46685SOL    HW241953  11.733  11.399  12.502
46686SOL     OW41954   4.670   6.729   4.483
46686SOL    HW141955   4.676   6.799   4.418
46686SOL    HW241956   4.598   6.674   4.451
46687SOL     OW41957   5.300   8.632   8.751
46687SOL    HW141958   5.254   8.709   8.716
46687SOL    HW241959   5.386   8.666   8.775
46688SOL     OW41960  10.444   1.303   6.324
46688SOL    HW141961  10.492   1.385   6.313
46688SOL    HW241962  10.360   1.318   6.281
46689SOL     OW41963  11.673   2.307   2.212
46689SOL    HW141964  11.605   2.373   2.200
46689SOL    HW241965  11.755   2.356   2.213
46690SOL     OW41966  13.633  10.632   1.145
46690SOL    HW141967  13.667  10.690   1.077
46690SOL    HW241968  13.698  10.562   1.152
46691SOL     OW41969   8.582  13.657   5.834
46691SOL    HW141970   8.565  13.745   5.868
46691SOL    HW241971   8.624  13.611   5.907
46692SOL     OW41972   9.069   8.190   6.410
46692SOL    HW141973   9.098   8.257   6.348
46692SOL    HW241974   9.117   8.210   6.490
46693SOL     OW41975  10.265   1.569   9.652
46693SOL    HW141976  10.251   1.538   9.563
46693SOL    HW241977  10.177   1.585   9.686
46694SOL     OW41978   7.711   3.962   5.644
46694SOL    HW141979   7.641   3.956   5.579
46694SOL    HW241980   7.790   3.978   5.592
46695SOL     OW41981  12.882   9.771   8.447
46695SOL    HW141982  12.963   9.742   8.488
46695SOL    HW241983  12.891   9.866   8.439
46696SOL     OW41984   1.060   3.950   5.519
46696SOL    HW141985   1.070   3.957   5.424
46696SOL    HW241986   0.972   3.984   5.536
46697SOL     OW41987   6.104  14.545   1.490
46697SOL    HW141988   6.165  14.521   1.560
46697SOL    HW241989   6.025  14.496   1.510
46698SOL     OW41990   8.986  10.540   1.994
46698SOL    HW141991   8.986  10.609   2.060
46698SOL    HW241992   8.895  10.511   1.989
46699SOL     OW41993   9.000  12.245  13.223
46699SOL    HW141994   8.922  12.189  13.227
46699SOL    HW241995   9.053  12.208  13.152
46700SOL     OW41996   5.137  12.485  12.710
46700SOL    HW141997   5.127  12.574  12.745
46700SOL    HW241998   5.060  12.438  12.743
46701SOL     OW41999   8.079   6.442   5.159
46701SOL    HW142000   8.024   6.519   5.171
46701SOL    HW242001   8.113   6.451   5.069
46702SOL     OW42002  11.144  10.354   1.951
46702SOL    HW142003  11.138  10.327   2.042
46702SOL    HW242004  11.111  10.444   1.949
46703SOL     OW42005   5.758  12.511  14.451
46703SOL    HW142006   5.697  12.458  14.504
46703SOL    HW242007   5.775  12.457  14.374
46704SOL     OW42008  14.772   3.420  12.765
46704SOL    HW142009  14.851   3.367  12.764
46704SOL    HW242010  14.803   3.510  12.755
46705SOL     OW42011  10.604   2.916  13.335
46705SOL    HW142012  10.685   2.867  13.321
46705SOL    HW242013  10.609   2.988  13.272
46706SOL     OW42014   4.687   5.121   7.532
46706SOL    HW142015   4.701   5.142   7.440
46706SOL    HW242016   4.772   5.138   7.573
46707SOL     OW42017   8.041   8.787   0.676
46707SOL    HW142018   8.027   8.793   0.770
46707SOL    HW242019   8.084   8.869   0.653
46708SOL     OW42020  13.888   7.994   1.320
46708SOL    HW142021  13.958   7.979   1.384
46708SOL    HW242022  13.823   8.046   1.367
46709SOL     OW42023   1.699   4.958   2.255
46709SOL    HW142024   1.735   4.958   2.343
46709SOL    HW242025   1.763   5.005   2.202
46710SOL     OW42026   4.465   6.419   0.351
46710SOL    HW142027   4.386   6.405   0.403
46710SOL    HW242028   4.535   6.379   0.403
46711SOL     OW42029  14.632   6.105   4.996
46711SOL    HW142030  14.617   6.180   5.053
46711SOL    HW242031  14.631   6.141   4.908
46712SOL     OW42032   0.628  14.699   5.419
46712SOL    HW142033   0.722  14.688   5.437
46712SOL    HW242034   0.610  14.790   5.442
46713SOL     OW42035   5.130  11.298   5.349
46713SOL    HW142036   5.097  11.238   5.282
46713SOL    HW242037   5.065  11.294   5.419
46714SOL     OW42038   7.540  13.285   8.393
46714SOL    HW142039   7.600  13.355   8.419
46714SOL    HW242040   7.590  13.233   8.330
46715SOL     OW42041  13.384   6.416  12.567
46715SOL    HW142042  13.352   6.502  12.594
46715SOL    HW242043  13.435   6.385  12.642
46716SOL     OW42044   6.971   3.138   0.714
46716SOL    HW142045   7.023   3.155   0.793
46716SOL    HW242046   6.932   3.052   0.730
46717SOL     OW42047   3.782  11.954  11.704
46717SOL    HW142048   3.831  11.921  11.628
46717SOL    HW242049   3.722  12.019  11.667
46718SOL     OW42050   2.114   3.723  12.985
46718SOL    HW142051   2.153   3.709  12.899
46718SOL    HW242052   2.021   3.738  12.968
46719SOL     OW42053   1.118  11.056   9.692
46719SOL    HW142054   1.204  11.097   9.703
46719SOL    HW242055   1.056  11.126   9.713
46720SOL     OW42056  10.968  14.101   2.010
46720SOL    HW142057  11.050  14.139   2.043
46720SOL    HW242058  10.923  14.071   2.089
46721SOL     OW42059   4.163  10.790   4.984
46721SOL    HW142060   4.191  10.733   5.055
46721SOL    HW242061   4.238  10.795   4.925
46722SOL     OW42062   0.878   2.849  11.204
46722SOL    HW142063   0.874   2.828  11.297
46722SOL    HW242064   0.791   2.881  11.182
46723SOL     OW42065  12.640   0.864   1.776
46723SOL    HW142066  12.673   0.836   1.862
46723SOL    HW242067  12.610   0.783   1.735
46724SOL     OW42068  14.766   0.706  12.842
46724SOL    HW142069  14.831   0.731  12.776
46724SOL    HW242070  14.817   0.693  12.922
46725SOL     OW42071   8.928  11.069   6.136
46725SOL    HW142072   8.948  11.055   6.044
46725SOL    HW242073   8.968  10.996   6.182
46726SOL     OW42074  14.209  12.433   4.987
46726SOL    HW142075  14.305  12.430   4.989
46726SOL    HW242076  14.188  12.470   4.901
46727SOL     OW42077   4.801   8.038   1.043
46727SOL    HW142078   4.822   8.111   0.984
46727SOL    HW242079   4.873   7.977   1.033
46728SOL     OW42080   6.010  10.171   6.937
46728SOL    HW142081   5.964  10.130   6.864
46728SOL    HW242082   5.955  10.152   7.013
46729SOL     OW42083   1.041   3.286   2.007
46729SOL    HW142084   0.958   3.266   2.051
46729SOL    HW242085   1.018   3.344   1.935
46730SOL     OW42086  12.575   7.271   8.423
46730SOL    HW142087  12.670   7.269   8.422
46730SOL    HW242088  12.554   7.353   8.468
46731SOL     OW42089   8.289   1.156  14.104
46731SOL    HW142090   8.320   1.160  14.013
46731SOL    HW242091   8.284   1.248  14.131
46732SOL     OW42092   4.465  13.558   7.080
46732SOL    HW142093   4.390  13.550   7.140
46732SOL    HW242094   4.486  13.468   7.056
46733SOL     OW42095  12.341  10.534   7.599
46733SOL    HW142096  12.255  10.508   7.567
46733SOL    HW242097  12.367  10.607   7.542
46734SOL     OW42098  12.361  10.088  13.095
46734SOL    HW142099  12.355  10.090  13.000
46734SOL    HW242100  12.444  10.045  13.113
46735SOL     OW42101   6.115   1.318   8.267
46735SOL    HW142102   6.191   1.286   8.315
46735SOL    HW242103   6.128   1.413   8.263
46736SOL     OW42104   8.765  11.908  12.514
46736SOL    HW142105   8.842  11.940  12.467
46736SOL    HW242106   8.736  11.983  12.566
46737SOL     OW42107   1.158   0.278  12.404
46737SOL    HW142108   1.147   0.323  12.321
46737SOL    HW242109   1.072   0.240  12.422
46738SOL     OW42110  11.028  11.299   9.813
46738SOL    HW142111  11.055  11.217   9.773
46738SOL    HW242112  10.933  11.299   9.807
46739SOL     OW42113   9.105  12.983   3.196
46739SOL    HW142114   9.112  12.902   3.146
46739SOL    HW242115   9.138  13.051   3.137
46740SOL     OW42116   7.997   3.121  10.612
46740SOL    HW142117   8.055   3.045  10.612
46740SOL    HW242118   7.926   3.097  10.671
46741SOL     OW42119   8.457   0.164  12.739
46741SOL    HW142120   8.370   0.125  12.742
46741SOL    HW242121   8.501   0.131  12.818
46742SOL     OW42122   3.747   6.262  14.666
46742SOL    HW142123   3.740   6.357  14.671
46742SOL    HW242124   3.657   6.231  14.669
46743SOL     OW42125   9.503  12.027   5.579
46743SOL    HW142126   9.526  11.985   5.496
46743SOL    HW242127   9.442  12.096   5.555
46744SOL     OW42128  10.739  13.486   5.020
46744SOL    HW142129  10.701  13.415   4.968
46744SOL    HW242130  10.759  13.445   5.104
46745SOL     OW42131   6.463   9.431   9.921
46745SOL    HW142132   6.445   9.506   9.977
46745SOL    HW242133   6.519   9.374   9.973
46746SOL     OW42134  13.725   6.774  11.452
46746SOL    HW142135  13.683   6.784  11.537
46746SOL    HW242136  13.766   6.858  11.435
46747SOL     OW42137   7.286   2.583  10.754
46747SOL    HW142138   7.220   2.557  10.690
46747SOL    HW242139   7.252   2.663  10.793
46748SOL     OW42140   9.949   1.444  13.097
46748SOL    HW142141   9.892   1.367  13.104
46748SOL    HW242142  10.028   1.420  13.145
46749SOL     OW42143   8.122  11.692   2.777
46749SOL    HW142144   8.068  11.677   2.855
46749SOL    HW242145   8.154  11.781   2.786
46750SOL     OW42146  12.989   6.621   1.818
46750SOL    HW142147  13.069   6.603   1.768
46750SOL    HW242148  13.020   6.655   1.902
46751SOL     OW42149   7.256   2.568   4.247
46751SOL    HW142150   7.226   2.483   4.280
46751SOL    HW242151   7.182   2.602   4.197
46752SOL     OW42152   9.850   6.373   9.371
46752SOL    HW142153   9.823   6.356   9.280
46752SOL    HW242154   9.937   6.333   9.377
46753SOL     OW42155   1.448   5.137   3.926
46753SOL    HW142156   1.391   5.074   3.882
46753SOL    HW242157   1.391   5.181   3.989
46754SOL     OW42158  10.368   4.299  10.067
46754SOL    HW142159  10.442   4.327  10.120
46754SOL    HW242160  10.354   4.370  10.006
46755SOL     OW42161  10.274   6.176  10.819
46755SOL    HW142162  10.184   6.177  10.851
46755SOL    HW242163  10.327   6.190  10.898
46756SOL     OW42164  10.135  12.179  10.515
46756SOL    HW142165  10.196  12.123  10.468
46756SOL    HW242166  10.148  12.157  10.608
46757SOL     OW42167   1.013   7.662   0.639
46757SOL    HW142168   1.005   7.743   0.588
46757SOL    HW242169   0.923   7.632   0.650
46758SOL     OW42170   5.139   9.961  10.116
46758SOL    HW142171   5.156   9.990  10.026
46758SOL    HW242172   5.226   9.944  10.152
46759SOL     OW42173   6.309   0.710   4.208
46759SOL    HW142174   6.309   0.675   4.297
46759SOL    HW242175   6.353   0.795   4.216
46760SOL     OW42176   9.056   5.857   9.248
46760SOL    HW142177   9.045   5.920   9.318
46760SOL    HW242178   9.102   5.784   9.288
46761SOL     OW42179   2.042   5.797  14.059
46761SOL    HW142180   2.116   5.794  14.120
46761SOL    HW242181   1.980   5.858  14.100
46762SOL     OW42182   1.552   1.730   9.902
46762SOL    HW142183   1.481   1.688   9.952
46762SOL    HW242184   1.624   1.738   9.965
46763SOL     OW42185   5.525   5.723   9.197
46763SOL    HW142186   5.485   5.793   9.145
46763SOL    HW242187   5.508   5.643   9.147
46764SOL     OW42188   8.816  14.257   3.248
46764SOL    HW142189   8.911  14.248   3.255
46764SOL    HW242190   8.786  14.259   3.339
46765SOL     OW42191   0.862  13.927   4.441
46765SOL    HW142192   0.896  13.936   4.353
46765SOL    HW242193   0.806  14.003   4.454
46766SOL     OW42194   3.128   5.965  13.463
46766SOL    HW142195   3.157   5.878  13.435
46766SOL    HW242196   3.105   6.010  13.381
46767SOL     OW42197  10.550   6.107  13.224
46767SOL    HW142198  10.486   6.058  13.172
46767SOL    HW242199  10.625   6.118  13.167
46768SOL     OW42200   6.618   8.444  13.942
46768SOL    HW142201   6.568   8.363  13.952
46768SOL    HW242202   6.623   8.480  14.031
46769SOL     OW42203  13.740   8.269   9.309
46769SOL    HW142204  13.691   8.224   9.378
46769SOL    HW242205  13.790   8.336   9.355
46770SOL     OW42206  10.295   0.538   5.763
46770SOL    HW142207  10.264   0.549   5.673
46770SOL    HW242208  10.260   0.613   5.811
46771SOL     OW42209  10.035  13.245   6.671
46771SOL    HW142210   9.994  13.326   6.640
46771SOL    HW242211  10.008  13.178   6.608
46772SOL     OW42212   8.686  13.859  11.608
46772SOL    HW142213   8.617  13.866  11.542
46772SOL    HW242214   8.699  13.765  11.620
46773SOL     OW42215   7.168   0.617  11.964
46773SOL    HW142216   7.094   0.640  11.908
46773SOL    HW242217   7.130   0.607  12.051
46774SOL     OW42218   7.306   7.486  13.700
46774SOL    HW142219   7.227   7.430  13.702
46774SOL    HW242220   7.371   7.434  13.653
46775SOL     OW42221   7.341   6.192   7.831
46775SOL    HW142222   7.332   6.121   7.895
46775SOL    HW242223   7.368   6.148   7.751
46776SOL     OW42224   4.094  11.408  12.198
46776SOL    HW142225   4.080  11.336  12.137
46776SOL    HW242226   4.009  11.452  12.202
46777SOL     OW42227   1.062   9.706   1.685
46777SOL    HW142228   0.992   9.709   1.620
46777SOL    HW242229   1.067   9.613   1.710
46778SOL     OW42230   6.553   9.052  14.519
46778SOL    HW142231   6.617   9.120  14.540
46778SOL    HW242232   6.487   9.060  14.589
46779SOL     OW42233   9.305   8.917   4.290
46779SOL    HW142234   9.228   8.880   4.333
46779SOL    HW242235   9.328   8.993   4.344
46780SOL     OW42236   7.238  11.752   6.695
46780SOL    HW142237   7.241  11.672   6.748
46780SOL    HW242238   7.259  11.822   6.757
46781SOL     OW42239  13.874   3.393  13.102
46781SOL    HW142240  13.937   3.387  13.030
46781SOL    HW242241  13.792   3.362  13.064
46782SOL     OW42242   5.363   6.429   9.552
46782SOL    HW142243   5.279   6.462   9.583
46782SOL    HW242244   5.411   6.507   9.525
46783SOL     OW42245   6.121   0.007  13.162
46783SOL    HW142246   6.165  14.879  13.247
46783SOL    HW242247   6.076  14.806  13.149
46784SOL     OW42248   5.620   9.533   7.788
46784SOL    HW142249   5.681   9.598   7.823
46784SOL    HW242250   5.536   9.556   7.828
46785SOL     OW42251  13.553  13.211  10.681
46785SOL    HW142252  13.521  13.291  10.722
46785SOL    HW242253  13.635  13.237  10.638
46786SOL     OW42254  12.289  11.181   9.586
46786SOL    HW142255  12.343  11.228   9.649
46786SOL    HW242256  12.202  11.177   9.626
46787SOL     OW42257   8.545  11.057   7.023
46787SOL    HW142258   8.562  11.102   7.106
46787SOL    HW242259   8.615  10.991   7.018
46788SOL     OW42260   7.545   1.701   9.314
46788SOL    HW142261   7.474   1.691   9.251
46788SOL    HW242262   7.551   1.616   9.357
46789SOL     OW42263   3.563  10.673  12.840
46789SOL    HW142264   3.621  10.596  12.833
46789SOL    HW242265   3.535  10.689  12.750
46790SOL     OW42266  14.665   0.525   0.851
46790SOL    HW142267  14.722   0.557   0.921
46790SOL    HW242268  14.580   0.565   0.869
46791SOL     OW42269  10.105   8.785   2.619
46791SOL    HW142270  10.024   8.836   2.623
46791SOL    HW242271  10.175   8.851   2.615
46792SOL     OW42272   1.409   9.437   9.004
46792SOL    HW142273   1.407   9.382   8.926
46792SOL    HW242274   1.422   9.525   8.971
46793SOL     OW42275  14.371   6.113   8.135
46793SOL    HW142276  14.288   6.119   8.182
46793SOL    HW242277  14.374   6.192   8.081
46794SOL     OW42278  12.514   6.486   5.306
46794SOL    HW142279  12.521   6.455   5.397
46794SOL    HW242280  12.505   6.406   5.254
46795SOL     OW42281   6.788   4.578   7.721
46795SOL    HW142282   6.763   4.668   7.742
46795SOL    HW242283   6.767   4.528   7.800
46796SOL     OW42284   3.301   1.485   2.405
46796SOL    HW142285   3.247   1.455   2.478
46796SOL    HW242286   3.384   1.438   2.416
46797SOL     OW42287  11.682  14.682  13.841
46797SOL    HW142288  11.648  14.607  13.793
46797SOL    HW242289  11.741  14.726  13.780
46798SOL     OW42290   3.303   6.385   9.724
46798SOL    HW142291   3.340   6.299   9.705
46798SOL    HW242292   3.339   6.443   9.657
46799SOL     OW42293  14.689   0.841   5.237
46799SOL    HW142294  14.718   0.792   5.315
46799SOL    HW242295  14.726   0.793   5.163
46800SOL     OW42296   9.615   7.155  10.831
46800SOL    HW142297   9.670   7.151  10.753
46800SOL    HW242298   9.674   7.136  10.903
46801SOL     OW42299   2.569   7.429  10.254
46801SOL    HW142300   2.588   7.498  10.316
46801SOL    HW242301   2.638   7.436  10.188
46802SOL     OW42302  12.983   2.641   5.695
46802SOL    HW142303  13.064   2.595   5.674
46802SOL    HW242304  13.004   2.693   5.773
46803SOL     OW42305   0.416   2.752   6.419
46803SOL    HW142306   0.508   2.769   6.402
46803SOL    HW242307   0.396   2.804   6.497
46804SOL     OW42308   9.579   9.998  13.364
46804SOL    HW142309   9.548   9.924  13.312
46804SOL    HW242310   9.670  10.011  13.334
46805SOL     OW42311   6.768  13.371   4.723
46805SOL    HW142312   6.832  13.318   4.772
46805SOL    HW242313   6.755  13.322   4.641
46806SOL     OW42314   9.134   6.912   9.637
46806SOL    HW142315   9.209   6.878   9.686
46806SOL    HW242316   9.059   6.899   9.696
46807SOL     OW42317  10.556  14.475  13.275
46807SOL    HW142318  10.535  14.414  13.204
46807SOL    HW242319  10.542  14.424  13.354
46808SOL     OW42320  12.481   2.278  14.711
46808SOL    HW142321  12.546   2.323  14.764
46808SOL    HW242322  12.528   2.207  14.669
46809SOL     OW42323   5.058  13.663  13.925
46809SOL    HW142324   5.013  13.579  13.929
46809SOL    HW242325   5.076  13.685  14.017
46810SOL     OW42326   3.560   4.178   4.786
46810SOL    HW142327   3.556   4.181   4.881
46810SOL    HW242328   3.583   4.087   4.766
46811SOL     OW42329  13.406   7.539   2.044
46811SOL    HW142330  13.454   7.603   2.098
46811SOL    HW242331  13.316   7.543   2.077
46812SOL     OW42332   9.305  13.292  11.186
46812SOL    HW142333   9.289  13.379  11.151
46812SOL    HW242334   9.395  13.272  11.161
46813SOL     OW42335   9.463   4.947  11.090
46813SOL    HW142336   9.530   4.943  11.022
46813SOL    HW242337   9.461   5.038  11.117
46814SOL     OW42338  13.695   2.592   1.563
46814SOL    HW142339  13.753   2.553   1.628
46814SOL    HW242340  13.684   2.683   1.592
46815SOL     OW42341   0.836  11.699   9.621
46815SOL    HW142342   0.829  11.785   9.662
46815SOL    HW242343   0.929  11.689   9.602
46816SOL     OW42344   4.023   2.474  11.237
46816SOL    HW142345   4.067   2.442  11.158
46816SOL    HW242346   3.930   2.473  11.216
46817SOL     OW42347   2.594   7.929   8.226
46817SOL    HW142348   2.575   7.872   8.301
46817SOL    HW242349   2.608   8.015   8.264
46818SOL     OW42350   5.039  14.703   6.532
46818SOL    HW142351   4.999  14.785   6.504
46818SOL    HW242352   5.097  14.728   6.604
46819SOL     OW42353   1.135   3.130   2.389
46819SOL    HW142354   1.199   3.083   2.443
46819SOL    HW242355   1.102   3.199   2.446
46820SOL     OW42356   2.286  14.384   1.453
46820SOL    HW142357   2.370  14.392   1.497
46820SOL    HW242358   2.306  14.405   1.361
46821SOL     OW42359   9.439   8.104  11.653
46821SOL    HW142360   9.396   8.130  11.734
46821SOL    HW242361   9.530   8.131  11.665
46822SOL     OW42362  14.155   7.772   0.757
46822SOL    HW142363  14.151   7.836   0.685
46822SOL    HW242364  14.083   7.712   0.739
46823SOL     OW42365   9.673   9.128   5.786
46823SOL    HW142366   9.768   9.119   5.797
46823SOL    HW242367   9.657   9.222   5.793
46824SOL     OW42368   7.320   1.784   5.982
46824SOL    HW142369   7.326   1.854   6.048
46824SOL    HW242370   7.351   1.706   6.027
46825SOL     OW42371  14.000   0.249  14.536
46825SOL    HW142372  13.908   0.259  14.514
46825SOL    HW242373  14.015   0.154  14.533
46826SOL     OW42374  14.431   8.437  14.224
46826SOL    HW142375  14.398   8.370  14.284
46826SOL    HW242376  14.489   8.491  14.278
46827SOL     OW42377  14.538   9.630   1.029
46827SOL    HW142378  14.577   9.703   1.077
46827SOL    HW242379  14.452   9.619   1.069
46828SOL     OW42380   1.325  13.050   7.494
46828SOL    HW142381   1.405  13.077   7.539
46828SOL    HW242382   1.307  12.962   7.527
46829SOL     OW42383  10.138   1.100   4.951
46829SOL    HW142384  10.167   1.184   4.988
46829SOL    HW242385  10.043   1.108   4.944
46830SOL     OW42386  11.989   9.117   9.107
46830SOL    HW142387  11.917   9.056   9.096
46830SOL    HW242388  11.990   9.136   9.201
46831SOL     OW42389   8.446   1.865   2.261
46831SOL    HW142390   8.476   1.954   2.240
46831SOL    HW242391   8.384   1.877   2.333
46832SOL     OW42392   9.562   2.781  11.943
46832SOL    HW142393   9.592   2.784  12.034
46832SOL    HW242394   9.531   2.691  11.930
46833SOL     OW42395   1.230  12.710   8.397
46833SOL    HW142396   1.312  12.754   8.420
46833SOL    HW242397   1.169  12.734   8.466
46834SOL     OW42398   7.905   2.818   0.129
46834SOL    HW142399   7.921   2.912   0.116
46834SOL    HW242400   7.991   2.781   0.146
46835SOL     OW42401   1.618   9.981   8.411
46835SOL    HW142402   1.555  10.053   8.411
46835SOL    HW242403   1.563   9.902   8.401
46836SOL     OW42404  10.224   6.134   6.466
46836SOL    HW142405  10.304   6.187   6.466
46836SOL    HW242406  10.169   6.174   6.399
46837SOL     OW42407   1.980   3.053  13.424
46837SOL    HW142408   2.033   3.083  13.350
46837SOL    HW242409   1.945   3.133  13.463
46838SOL     OW42410  14.195   3.085  10.692
46838SOL    HW142411  14.134   3.156  10.672
46838SOL    HW242412  14.161   3.009  10.644
46839SOL     OW42413  14.301   0.477   2.014
46839SOL    HW142414  14.321   0.567   1.988
46839SOL    HW242415  14.383   0.430   2.002
46840SOL     OW42416   4.472  12.188   3.901
46840SOL    HW142417   4.551  12.143   3.932
46840SOL    HW242418   4.434  12.227   3.980
46841SOL     OW42419   5.674   2.070  13.079
46841SOL    HW142420   5.616   2.049  13.006
46841SOL    HW242421   5.715   2.153  13.054
46842SOL     OW42422   3.848   2.791  12.596
46842SOL    HW142423   3.886   2.764  12.681
46842SOL    HW242424   3.831   2.884  12.606
46843SOL     OW42425   7.918   0.577  10.919
46843SOL    HW142426   7.835   0.615  10.947
46843SOL    HW242427   7.893   0.503  10.863
46844SOL     OW42428  10.724   7.243   6.888
46844SOL    HW142429  10.771   7.180   6.834
46844SOL    HW242430  10.789   7.271   6.953
46845SOL     OW42431  11.898   0.669  11.665
46845SOL    HW142432  11.812   0.628  11.671
46845SOL    HW242433  11.947   0.635  11.739
46846SOL     OW42434   1.731   1.517   6.378
46846SOL    HW142435   1.727   1.493   6.286
46846SOL    HW242436   1.665   1.586   6.388
46847SOL     OW42437   6.864   1.099   9.725
46847SOL    HW142438   6.774   1.120   9.751
46847SOL    HW242439   6.858   1.011   9.689
46848SOL     OW42440   0.768   4.048   0.866
46848SOL    HW142441   0.731   4.134   0.847
46848SOL    HW242442   0.854   4.067   0.905
46849SOL     OW42443   3.860  13.501   1.521
46849SOL    HW142444   3.938  13.451   1.498
46849SOL    HW242445   3.894  13.587   1.546
46850SOL     OW42446   3.119   3.669   5.640
46850SOL    HW142447   3.087   3.680   5.729
46850SOL    HW242448   3.202   3.717   5.638
46851SOL     OW42449  11.194   1.580   9.640
46851SOL    HW142450  11.156   1.498   9.610
46851SOL    HW242451  11.207   1.567   9.734
46852SOL     OW42452  13.821   9.567   1.638
46852SOL    HW142453  13.886   9.569   1.708
46852SOL    HW242454  13.873   9.549   1.559
46853SOL     OW42455  13.003  14.618  14.535
46853SOL    HW142456  12.965  14.661  14.612
46853SOL    HW242457  12.956  14.656  14.461
46854SOL     OW42458  11.430  14.442   9.626
46854SOL    HW142459  11.366  14.371   9.627
46854SOL    HW242460  11.432  14.474   9.716
46855SOL     OW42461  11.911   8.387   3.088
46855SOL    HW142462  12.001   8.384   3.058
46855SOL    HW242463  11.915   8.428   3.174
46856SOL     OW42464   8.019  14.851   4.874
46856SOL    HW142465   8.019   0.004   4.963
46856SOL    HW242466   7.941   0.007   4.832
46857SOL     OW42467   7.640   8.561   2.761
46857SOL    HW142468   7.614   8.469   2.758
46857SOL    HW242469   7.562   8.608   2.732
46858SOL     OW42470   5.241   8.005  13.166
46858SOL    HW142471   5.243   7.953  13.086
46858SOL    HW242472   5.308   8.072  13.153
46859SOL     OW42473   5.448  11.353   7.981
46859SOL    HW142474   5.464  11.375   8.073
46859SOL    HW242475   5.391  11.276   7.984
46860SOL     OW42476   9.203   6.764   9.340
46860SOL    HW142477   9.146   6.797   9.410
46860SOL    HW242478   9.151   6.772   9.261
46861SOL     OW42479   0.873   8.028  12.505
46861SOL    HW142480   0.844   7.959  12.564
46861SOL    HW242481   0.846   7.998  12.418
46862SOL     OW42482   6.668  11.515   5.943
46862SOL    HW142483   6.598  11.552   5.888
46862SOL    HW242484   6.729  11.476   5.880
46863SOL     OW42485   1.569  14.187  12.656
46863SOL    HW142486   1.648  14.211  12.609
46863SOL    HW242487   1.515  14.142  12.592
46864SOL     OW42488  12.299  14.206   8.785
46864SOL    HW142489  12.237  14.275   8.760
46864SOL    HW242490  12.317  14.160   8.703
46865SOL     OW42491   5.285   7.293   4.901
46865SOL    HW142492   5.255   7.286   4.810
46865SOL    HW242493   5.244   7.219   4.945
46866SOL     OW42494   0.068   6.736   6.655
46866SOL    HW142495   0.147   6.768   6.698
46866SOL    HW242496   0.099   6.680   6.585
46867SOL     OW42497  11.295   0.471   7.434
46867SOL    HW142498  11.275   0.489   7.342
46867SOL    HW242499  11.373   0.523   7.452
46868SOL     OW42500   6.540   7.718   4.466
46868SOL    HW142501   6.447   7.728   4.484
46868SOL    HW242502   6.544   7.673   4.382
46869SOL     OW42503   6.064  14.575   5.305
46869SOL    HW142504   6.016  14.508   5.354
46869SOL    HW242505   6.072  14.538   5.217
46870SOL     OW42506   7.335  11.289  13.849
46870SOL    HW142507   7.303  11.376  13.870
46870SOL    HW242508   7.393  11.302  13.774
46871SOL     OW42509  14.723   7.828   4.297
46871SOL    HW142510  14.753   7.831   4.206
46871SOL    HW242511  14.634   7.794   4.292
46872SOL     OW42512   5.587  13.447  12.699
46872SOL    HW142513   5.512  13.420  12.646
46872SOL    HW242514   5.615  13.366  12.743
46873SOL     OW42515  11.914   3.504  10.891
46873SOL    HW142516  11.898   3.557  10.813
46873SOL    HW242517  11.829   3.466  10.911
46874SOL     OW42518   5.209   5.388   9.731
46874SOL    HW142519   5.201   5.480   9.705
46874SOL    HW242520   5.170   5.385   9.819
46875SOL     OW42521   1.313   3.899   9.001
46875SOL    HW142522   1.393   3.951   9.013
46875SOL    HW242523   1.254   3.929   9.070
46876SOL     OW42524   9.588  13.076   4.354
46876SOL    HW142525   9.648  13.078   4.280
46876SOL    HW242526   9.643  13.055   4.430
46877SOL     OW42527   8.875   1.701   4.440
46877SOL    HW142528   8.845   1.647   4.367
46877SOL    HW242529   8.914   1.778   4.399
46878SOL     OW42530   0.574  14.636   9.197
46878SOL    HW142531   0.634  14.564   9.176
46878SOL    HW242532   0.629  14.698   9.245
46879SOL     OW42533  14.807   1.164   4.120
46879SOL    HW142534  14.790   1.139   4.030
46879SOL    HW242535  14.763   1.249   4.130
46880SOL     OW42536   2.782   5.896   9.718
46880SOL    HW142537   2.834   5.956   9.664
46880SOL    HW242538   2.829   5.892   9.801
46881SOL     OW42539   9.178   1.924   4.863
46881SOL    HW142540   9.114   1.913   4.934
46881SOL    HW242541   9.164   1.847   4.808
46882SOL     OW42542   6.088   7.936  12.156
46882SOL    HW142543   6.056   7.946  12.246
46882SOL    HW242544   6.012   7.955  12.102
46883SOL     OW42545   9.323  12.385   3.637
46883SOL    HW142546   9.381  12.382   3.561
46883SOL    HW242547   9.381  12.378   3.712
46884SOL     OW42548   0.209   7.118   7.347
46884SOL    HW142549   0.252   7.142   7.430
46884SOL    HW242550   0.136   7.062   7.373
46885SOL     OW42551  10.733   5.154   5.515
46885SOL    HW142552  10.745   5.247   5.534
46885SOL    HW242553  10.783   5.139   5.435
46886SOL     OW42554   3.149  14.369   8.251
46886SOL    HW142555   3.201  14.445   8.226
46886SOL    HW242556   3.205  14.294   8.233
46887SOL     OW42557   3.142   3.599   2.383
46887SOL    HW142558   3.123   3.689   2.410
46887SOL    HW242559   3.083   3.545   2.435
46888SOL     OW42560  11.717  13.265   0.674
46888SOL    HW142561  11.766  13.272   0.592
46888SOL    HW242562  11.783  13.268   0.743
46889SOL     OW42563   6.355   1.197   0.322
46889SOL    HW142564   6.321   1.108   0.331
46889SOL    HW242565   6.279   1.254   0.335
46890SOL     OW42566  11.436   4.954  14.147
46890SOL    HW142567  11.419   5.047  14.131
46890SOL    HW242568  11.528   4.942  14.126
46891SOL     OW42569  10.307  11.057   7.013
46891SOL    HW142570  10.354  11.097   7.085
46891SOL    HW242571  10.295  10.966   7.040
46892SOL     OW42572  11.257   4.193   7.990
46892SOL    HW142573  11.286   4.142   8.066
46892SOL    HW242574  11.290   4.281   8.007
46893SOL     OW42575   3.726   3.612   1.277
46893SOL    HW142576   3.705   3.686   1.335
46893SOL    HW242577   3.746   3.540   1.337
46894SOL     OW42578  10.781  11.876  10.689
46894SOL    HW142579  10.850  11.912  10.634
46894SOL    HW242580  10.709  11.857  10.629
46895SOL     OW42581  13.563   9.703   8.500
46895SOL    HW142582  13.480   9.713   8.547
46895SOL    HW242583  13.541   9.648   8.425
46896SOL     OW42584  14.569   5.705  12.444
46896SOL    HW142585  14.588   5.768  12.374
46896SOL    HW242586  14.653   5.690  12.487
46897SOL     OW42587   6.926   7.491  11.425
46897SOL    HW142588   7.003   7.493  11.368
46897SOL    HW242589   6.905   7.583  11.441
46898SOL     OW42590   8.677   5.007   7.218
46898SOL    HW142591   8.588   4.994   7.185
46898SOL    HW242592   8.718   4.921   7.207
46899SOL     OW42593   9.383  14.697   2.118
46899SOL    HW142594   9.297  14.703   2.159
46899SOL    HW242595   9.442  14.676   2.191
46900SOL     OW42596   1.829   3.543  12.124
46900SOL    HW142597   1.837   3.451  12.148
46900SOL    HW242598   1.892   3.555  12.053
46901SOL     OW42599  10.469  10.689  12.362
46901SOL    HW142600  10.500  10.620  12.420
46901SOL    HW242601  10.486  10.656  12.274
46902SOL     OW42602  12.963   3.936   6.140
46902SOL    HW142603  13.056   3.961   6.138
46902SOL    HW242604  12.936   3.952   6.230
46903SOL     OW42605  10.977  14.378  13.267
46903SOL    HW142606  10.925  14.414  13.195
46903SOL    HW242607  10.913  14.364  13.338
46904SOL     OW42608   5.610   1.515   9.361
46904SOL    HW142609   5.544   1.547   9.424
46904SOL    HW242610   5.565   1.447   9.311
46905SOL     OW42611  14.162   4.638  11.124
46905SOL    HW142612  14.214   4.557  11.126
46905SOL    HW242613  14.226   4.707  11.109
46906SOL     OW42614  12.818   4.987   1.321
46906SOL    HW142615  12.727   4.968   1.300
46906SOL    HW242616  12.868   4.923   1.271
46907SOL     OW42617   8.103   9.938   6.968
46907SOL    HW142618   8.197   9.925   6.956
46907SOL    HW242619   8.064   9.853   6.948
46908SOL     OW42620   4.510  10.810  10.176
46908SOL    HW142621   4.542  10.852  10.096
46908SOL    HW242622   4.418  10.838  10.182
46909SOL     OW42623  14.881   5.827   5.453
46909SOL    HW142624  14.852   5.899   5.398
46909SOL    HW242625  14.815   5.822   5.523
46910SOL     OW42626   5.150   2.102   0.822
46910SOL    HW142627   5.212   2.094   0.749
46910SOL    HW242628   5.172   2.187   0.861
46911SOL     OW42629   3.342   0.937   7.224
46911SOL    HW142630   3.292   0.877   7.169
46911SOL    HW242631   3.278   1.002   7.253
46912SOL     OW42632  14.499   1.000   2.372
46912SOL    HW142633  14.590   1.025   2.389
46912SOL    HW242634  14.491   1.003   2.276
46913SOL     OW42635   1.252   9.449   8.496
46913SOL    HW142636   1.191   9.423   8.565
46913SOL    HW242637   1.214   9.528   8.458
46914SOL     OW42638  12.662   1.461  13.851
46914SOL    HW142639  12.725   1.494  13.787
46914SOL    HW242640  12.614   1.393  13.805
46915SOL     OW42641   4.904   8.004   2.934
46915SOL    HW142642   4.962   8.008   2.859
46915SOL    HW242643   4.894   8.096   2.962
46916SOL     OW42644   8.022   1.334   8.753
46916SOL    HW142645   8.043   1.280   8.829
46916SOL    HW242646   8.006   1.272   8.683
46917SOL     OW42647  13.729  11.555   9.535
46917SOL    HW142648  13.727  11.648   9.557
46917SOL    HW242649  13.648  11.520   9.571
46918SOL     OW42650   2.235  13.412   4.171
46918SOL    HW142651   2.314  13.400   4.118
46918SOL    HW242652   2.164  13.413   4.108
46919SOL     OW42653   3.885   4.714  14.535
46919SOL    HW142654   3.807   4.662  14.515
46919SOL    HW242655   3.930   4.724  14.452
46920SOL     OW42656   8.861  12.756  14.136
46920SOL    HW142657   8.889  12.811  14.063
46920SOL    HW242658   8.896  12.800  14.214
46921SOL     OW42659   8.832  14.512   6.928
46921SOL    HW142660   8.886  14.444   6.968
46921SOL    HW242661   8.829  14.489   6.835
46922SOL     OW42662   1.386   7.904   1.536
46922SOL    HW142663   1.445   7.869   1.603
46922SOL    HW242664   1.322   7.834   1.521
46923SOL     OW42665  13.917   3.528  11.584
46923SOL    HW142666  13.840   3.474  11.568
46923SOL    HW242667  13.898   3.611  11.540
46924SOL     OW42668   3.303   6.985   4.133
46924SOL    HW142669   3.279   7.074   4.109
46924SOL    HW242670   3.396   6.978   4.110
46925SOL     OW42671  12.154  14.239   9.862
46925SOL    HW142672  12.136  14.146   9.876
46925SOL    HW242673  12.216  14.241   9.789
46926SOL     OW42674   0.818  12.622   7.193
46926SOL    HW142675   0.893  12.570   7.221
46926SOL    HW242676   0.844  12.713   7.208
46927SOL     OW42677  12.665   2.893   6.999
46927SOL    HW142678  12.714   2.855   7.072
46927SOL    HW242679  12.731   2.909   6.931
46928SOL     OW42680   1.932   5.028   8.632
46928SOL    HW142681   2.013   5.068   8.601
46928SOL    HW242682   1.947   4.934   8.622
46929SOL     OW42683   1.171   0.511   1.222
46929SOL    HW142684   1.077   0.504   1.207
46929SOL    HW242685   1.195   0.596   1.185
46930SOL     OW42686   6.606   0.320  14.336
46930SOL    HW142687   6.679   0.329  14.398
46930SOL    HW242688   6.563   0.405  14.336
46931SOL     OW42689   6.266   2.707   8.845
46931SOL    HW142690   6.331   2.732   8.912
46931SOL    HW242691   6.183   2.738   8.880
46932SOL     OW42692   8.079   8.467   5.256
46932SOL    HW142693   8.081   8.479   5.161
46932SOL    HW242694   7.986   8.465   5.279
46933SOL     OW42695   8.193  11.158   9.689
46933SOL    HW142696   8.181  11.188   9.599
46933SOL    HW242697   8.278  11.113   9.688
46934SOL     OW42698   1.028   1.408  11.816
46934SOL    HW142699   0.949   1.393  11.764
46934SOL    HW242700   1.050   1.322  11.851
46935SOL     OW42701   7.988   6.879   7.579
46935SOL    HW142702   8.015   6.911   7.492
46935SOL    HW242703   7.953   6.957   7.622
46936SOL     OW42704   0.031   7.043   5.153
46936SOL    HW142705   0.100   7.035   5.087
46936SOL    HW242706  14.877   7.131   5.138
46937SOL     OW42707  12.060  13.620   2.669
46937SOL    HW142708  11.985  13.666   2.631
46937SOL    HW242709  12.134  13.642   2.612
46938SOL     OW42710   4.191   4.824   7.645
46938SOL    HW142711   4.200   4.907   7.691
46938SOL    HW242712   4.274   4.813   7.597
46939SOL     OW42713   2.946  11.247  11.051
46939SOL    HW142714   2.882  11.225  11.119
46939SOL    HW242715   2.912  11.204  10.972
46940SOL     OW42716   9.539   4.535   7.036
46940SOL    HW142717   9.541   4.630   7.020
46940SOL    HW242718   9.492   4.526   7.119
46941SOL     OW42719   0.013   6.181   8.404
46941SOL    HW142720  14.846   6.252   8.444
46941SOL    HW242721   0.070   6.223   8.340
46942SOL     OW42722   7.037   5.608   1.302
46942SOL    HW142723   7.036   5.634   1.210
46942SOL    HW242724   7.109   5.545   1.310
46943SOL     OW42725   9.408   0.938   0.864
46943SOL    HW142726   9.474   0.931   0.932
46943SOL    HW242727   9.376   1.028   0.871
46944SOL     OW42728   7.198   8.884   7.794
46944SOL    HW142729   7.274   8.842   7.835
46944SOL    HW242730   7.125   8.827   7.816
46945SOL     OW42731   3.784   9.786   0.971
46945SOL    HW142732   3.799   9.721   0.902
46945SOL    HW242733   3.777   9.869   0.924
46946SOL     OW42734   9.245   0.924  13.451
46946SOL    HW142735   9.245   0.999  13.392
46946SOL    HW242736   9.238   0.962  13.539
46947SOL     OW42737  13.384  12.358  10.906
46947SOL    HW142738  13.413  12.267  10.898
46947SOL    HW242739  13.465  12.409  10.906
46948SOL     OW42740   8.500   0.184   0.621
46948SOL    HW142741   8.533   0.194   0.531
46948SOL    HW242742   8.412   0.220   0.618
46949SOL     OW42743  10.754  10.265   4.628
46949SOL    HW142744  10.772  10.289   4.537
46949SOL    HW242745  10.668  10.302   4.646
46950SOL     OW42746   0.845   8.781  11.798
46950SOL    HW142747   0.811   8.731  11.873
46950SOL    HW242748   0.939   8.767  11.801
46951SOL     OW42749   8.993   1.272  11.664
46951SOL    HW142750   8.938   1.324  11.606
46951SOL    HW242751   9.050   1.336  11.707
46952SOL     OW42752   4.794   4.687   6.660
46952SOL    HW142753   4.884   4.657   6.664
46952SOL    HW242754   4.793   4.752   6.590
46953SOL     OW42755  12.911   3.233  11.405
46953SOL    HW142756  12.963   3.213  11.482
46953SOL    HW242757  12.905   3.329  11.404
46954SOL     OW42758   9.940   9.565   8.284
46954SOL    HW142759   9.951   9.594   8.375
46954SOL    HW242760   9.949   9.470   8.287
46955SOL     OW42761  13.481   8.095   0.220
46955SOL    HW142762  13.541   8.132   0.285
46955SOL    HW242763  13.398   8.088   0.266
46956SOL     OW42764   3.384  11.072   9.969
46956SOL    HW142765   3.304  11.105   9.929
46956SOL    HW242766   3.382  10.978   9.953
46957SOL     OW42767   6.714  10.370   8.902
46957SOL    HW142768   6.804  10.381   8.933
46957SOL    HW242769   6.667  10.445   8.939
46958SOL     OW42770   6.781   0.939   3.036
46958SOL    HW142771   6.698   0.894   3.020
46958SOL    HW242772   6.848   0.874   3.014
46959SOL     OW42773  11.133   1.060   2.945
46959SOL    HW142774  11.197   1.128   2.965
46959SOL    HW242775  11.093   1.039   3.029
46960SOL     OW42776   9.045   3.711  14.021
46960SOL    HW142777   9.003   3.631  14.051
46960SOL    HW242778   9.013   3.722  13.931
46961SOL     OW42779   7.876   0.953   0.046
46961SOL    HW142780   7.797   0.987   0.089
46961SOL    HW242781   7.941   0.948   0.116
46962SOL     OW42782  10.701   7.584  12.829
46962SOL    HW142783  10.775   7.555  12.883
46962SOL    HW242784  10.624   7.547  12.871
46963SOL     OW42785   1.887  13.369  11.329
46963SOL    HW142786   1.820  13.429  11.297
46963SOL    HW242787   1.842  13.316  11.395
46964SOL     OW42788   6.795   2.568   2.376
46964SOL    HW142789   6.767   2.477   2.366
46964SOL    HW242790   6.822   2.574   2.468
46965SOL     OW42791   1.328   3.160   6.510
46965SOL    HW142792   1.278   3.129   6.585
46965SOL    HW242793   1.419   3.164   6.542
46966SOL     OW42794   6.029   6.506  13.304
46966SOL    HW142795   6.054   6.459  13.225
46966SOL    HW242796   5.933   6.504  13.304
46967SOL     OW42797   1.432   2.102  13.750
46967SOL    HW142798   1.374   2.050  13.694
46967SOL    HW242799   1.517   2.057  13.744
46968SOL     OW42800  10.653   0.588   1.184
46968SOL    HW142801  10.711   0.660   1.206
46968SOL    HW242802  10.570   0.610   1.227
46969SOL     OW42803   6.579   0.997   6.132
46969SOL    HW142804   6.555   0.936   6.200
46969SOL    HW242805   6.606   1.077   6.179
46970SOL     OW42806  11.602   8.392   8.431
46970SOL    HW142807  11.583   8.360   8.343
46970SOL    HW242808  11.537   8.350   8.487
46971SOL     OW42809   8.567   5.568  10.585
46971SOL    HW142810   8.476   5.594  10.570
46971SOL    HW242811   8.608   5.645  10.624
46972SOL     OW42812  12.898   5.937   8.856
46972SOL    HW142813  12.860   5.910   8.940
46972SOL    HW242814  12.935   6.023   8.874
46973SOL     OW42815  12.663   7.880   2.859
46973SOL    HW142816  12.689   7.867   2.950
46973SOL    HW242817  12.700   7.965   2.835
46974SOL     OW42818   1.334  11.186  11.014
46974SOL    HW142819   1.286  11.266  10.991
46974SOL    HW242820   1.292  11.155  11.094
46975SOL     OW42821   5.357  14.124  13.966
46975SOL    HW142822   5.290  14.071  13.923
46975SOL    HW242823   5.419  14.146  13.897
46976SOL     OW42824   9.126   2.640   4.216
46976SOL    HW142825   9.058   2.685   4.265
46976SOL    HW242826   9.085   2.617   4.132
46977SOL     OW42827   1.508   2.717   1.203
46977SOL    HW142828   1.457   2.724   1.283
46977SOL    HW242829   1.587   2.670   1.229
46978SOL     OW42830  11.319  14.822   7.659
46978SOL    HW142831  11.268  14.871   7.595
46978SOL    HW242832  11.291  14.857   7.744
46979SOL     OW42833  10.982   2.279   9.391
46979SOL    HW142834  10.911   2.321   9.342
46979SOL    HW242835  11.002   2.200   9.341
46980SOL     OW42836   3.373  14.090   4.497
46980SOL    HW142837   3.449  14.096   4.556
46980SOL    HW242838   3.406  14.042   4.421
46981SOL     OW42839  10.553   5.658   9.493
46981SOL    HW142840  10.599   5.693   9.417
46981SOL    HW242841  10.581   5.712   9.566
46982SOL     OW42842   6.523  14.322   5.483
46982SOL    HW142843   6.461  14.265   5.528
46982SOL    HW242844   6.596  14.264   5.459
46983SOL     OW42845   4.021  11.655   8.204
46983SOL    HW142846   4.036  11.561   8.197
46983SOL    HW242847   4.108  11.693   8.219
46984SOL     OW42848   7.430   1.603   4.327
46984SOL    HW142849   7.478   1.588   4.408
46984SOL    HW242850   7.488   1.658   4.274
46985SOL     OW42851  13.686   1.010   8.591
46985SOL    HW142852  13.727   0.939   8.640
46985SOL    HW242853  13.746   1.027   8.518
46986SOL     OW42854   3.084  11.051   2.452
46986SOL    HW142855   3.167  11.013   2.425
46986SOL    HW242856   3.091  11.059   2.547
46987SOL     OW42857   2.111   8.522   2.057
46987SOL    HW142858   2.086   8.597   2.111
46987SOL    HW242859   2.029   8.486   2.025
46988SOL     OW42860   0.625  14.251  14.517
46988SOL    HW142861   0.627  14.172  14.571
46988SOL    HW242862   0.614  14.322  14.579
46989SOL     OW42863   0.157   9.959   0.222
46989SOL    HW142864   0.077   9.920   0.186
46989SOL    HW242865   0.228   9.920   0.171
46990SOL     OW42866   4.069  13.140   3.928
46990SOL    HW142867   4.017  13.165   4.004
46990SOL    HW242868   4.157  13.128   3.963
46991SOL     OW42869   4.963   3.575  12.090
46991SOL    HW142870   4.937   3.573  11.998
46991SOL    HW242871   5.026   3.504  12.099
46992SOL     OW42872   6.980   0.783   3.409
46992SOL    HW142873   6.960   0.798   3.502
46992SOL    HW242874   7.039   0.854   3.385
46993SOL     OW42875   7.994   4.238   7.935
46993SOL    HW142876   8.063   4.237   8.002
46993SOL    HW242877   7.920   4.196   7.978
46994SOL     OW42878   1.630  14.142   4.239
46994SOL    HW142879   1.668  14.078   4.179
46994SOL    HW242880   1.652  14.227   4.202
46995SOL     OW42881  12.954   7.071   7.430
46995SOL    HW142882  12.928   7.010   7.498
46995SOL    HW242883  12.886   7.138   7.430
46996SOL     OW42884   9.201   9.469   1.065
46996SOL    HW142885   9.145   9.399   1.099
46996SOL    HW242886   9.172   9.481   0.974
46997SOL     OW42887  14.025   7.615  11.324
46997SOL    HW142888  14.102   7.653  11.367
46997SOL    HW242889  13.955   7.626  11.388
46998SOL     OW42890   7.643   9.546   2.664
46998SOL    HW142891   7.707   9.577   2.601
46998SOL    HW242892   7.659   9.598   2.743
46999SOL     OW42893   5.596  10.820  12.672
46999SOL    HW142894   5.620  10.786  12.758
46999SOL    HW242895   5.662  10.784  12.613
47000SOL     OW42896   0.605   4.053   8.581
47000SOL    HW142897   0.608   3.963   8.612
47000SOL    HW242898   0.540   4.095   8.636
47001SOL     OW42899   7.122   1.433  14.406
47001SOL    HW142900   7.201   1.383  14.386
47001SOL    HW242901   7.061   1.368  14.443
47002SOL     OW42902   1.118   7.262   5.518
47002SOL    HW142903   1.044   7.315   5.548
47002SOL    HW242904   1.078   7.184   5.479
47003SOL     OW42905   8.150   6.649   8.763
47003SOL    HW142906   8.228   6.680   8.809
47003SOL    HW242907   8.167   6.669   8.670
47004SOL     OW42908  14.282   8.611   8.285
47004SOL    HW142909  14.319   8.563   8.211
47004SOL    HW242910  14.270   8.544   8.353
47005SOL     OW42911  14.120   0.829   8.657
47005SOL    HW142912  14.132   0.914   8.698
47005SOL    HW242913  14.196   0.778   8.686
47006SOL     OW42914  10.546   3.519   8.605
47006SOL    HW142915  10.627   3.515   8.553
47006SOL    HW242916  10.477   3.528   8.540
47007SOL     OW42917   2.642  12.909   7.541
47007SOL    HW142918   2.670  12.844   7.606
47007SOL    HW242919   2.671  12.874   7.457
47008SOL     OW42920   1.123   9.663   1.319
47008SOL    HW142921   1.218   9.667   1.314
47008SOL    HW242922   1.104   9.658   1.413
47009SOL     OW42923  12.715  13.336   2.935
47009SOL    HW142924  12.665  13.278   2.992
47009SOL    HW242925  12.684  13.424   2.956
47010SOL     OW42926   8.923   0.963   1.648
47010SOL    HW142927   8.880   0.984   1.731
47010SOL    HW242928   8.912   0.869   1.638
47011SOL     OW42929  10.310   2.514   4.068
47011SOL    HW142930  10.295   2.603   4.101
47011SOL    HW242931  10.347   2.467   4.142
47012SOL     OW42932   9.871   2.341  13.389
47012SOL    HW142933   9.835   2.402  13.453
47012SOL    HW242934   9.926   2.282  13.441
47013SOL     OW42935  10.532  13.042   4.289
47013SOL    HW142936  10.504  13.095   4.215
47013SOL    HW242937  10.628  13.043   4.284
47014SOL     OW42938   7.255   8.834   5.231
47014SOL    HW142939   7.207   8.849   5.150
47014SOL    HW242940   7.311   8.759   5.211
47015SOL     OW42941   3.630   4.899   1.197
47015SOL    HW142942   3.693   4.917   1.268
47015SOL    HW242943   3.544   4.917   1.236
47016SOL     OW42944   1.635   4.039   1.094
47016SOL    HW142945   1.603   4.123   1.062
47016SOL    HW242946   1.728   4.054   1.113
47017SOL     OW42947   2.295   3.627  12.577
47017SOL    HW142948   2.358   3.576  12.526
47017SOL    HW242949   2.330   3.628  12.666
47018SOL     OW42950  11.022   5.315   3.231
47018SOL    HW142951  11.102   5.296   3.280
47018SOL    HW242952  10.951   5.297   3.292
47019SOL     OW42953  13.426  11.879   5.525
47019SOL    HW142954  13.368  11.885   5.449
47019SOL    HW242955  13.506  11.924   5.498
47020SOL     OW42956   8.267   6.041   5.539
47020SOL    HW142957   8.254   5.990   5.459
47020SOL    HW242958   8.362   6.051   5.546
47021SOL     OW42959   7.979   4.513   4.233
47021SOL    HW142960   7.953   4.487   4.145
47021SOL    HW242961   8.030   4.438   4.265
47022SOL     OW42962  13.605   0.283  12.573
47022SOL    HW142963  13.683   0.339  12.574
47022SOL    HW242964  13.537   0.338  12.534
47023SOL     OW42965   1.310   4.253   5.072
47023SOL    HW142966   1.255   4.189   5.027
47023SOL    HW242967   1.378   4.276   5.009
47024SOL     OW42968  10.456   5.639   7.618
47024SOL    HW142969  10.369   5.600   7.613
47024SOL    HW242970  10.440   5.728   7.650
47025SOL     OW42971  10.939  14.288   9.095
47025SOL    HW142972  11.001  14.326   9.033
47025SOL    HW242973  10.854  14.325   9.069
47026SOL     OW42974   7.943   7.804  14.484
47026SOL    HW142975   7.847   7.805  14.481
47026SOL    HW242976   7.968   7.750  14.409
47027SOL     OW42977   3.145  13.927   4.483
47027SOL    HW142978   3.217  13.987   4.502
47027SOL    HW242979   3.071  13.984   4.462
47028SOL     OW42980   6.805  12.188   1.836
47028SOL    HW142981   6.846  12.272   1.857
47028SOL    HW242982   6.823  12.174   1.743
47029SOL     OW42983  11.718  13.927   4.247
47029SOL    HW142984  11.806  13.962   4.261
47029SOL    HW242985  11.700  13.944   4.154
47030SOL     OW42986   1.441  13.698  11.082
47030SOL    HW142987   1.380  13.674  11.152
47030SOL    HW242988   1.524  13.658  11.109
47031SOL     OW42989   4.244  12.848   3.416
47031SOL    HW142990   4.211  12.893   3.339
47031SOL    HW242991   4.338  12.867   3.417
47032SOL     OW42992   8.276  10.226   6.739
47032SOL    HW142993   8.255  10.177   6.659
47032SOL    HW242994   8.289  10.315   6.709
47033SOL     OW42995   3.409   4.903   1.788
47033SOL    HW142996   3.444   4.978   1.740
47033SOL    HW242997   3.485   4.846   1.801
47034SOL     OW42998  11.954   9.804  11.752
47034SOL    HW142999  11.966   9.710  11.737
47034SOL    HW243000  11.942   9.812  11.847
47035SOL     OW43001   4.374   6.513   9.365
47035SOL    HW143002   4.287   6.528   9.327
47035SOL    HW243003   4.412   6.443   9.311
47036SOL     OW43004  11.501  12.134  14.666
47036SOL    HW143005  11.542  12.200  14.610
47036SOL    HW243006  11.489  12.059  14.608
47037SOL     OW43007   3.500   3.770   0.054
47037SOL    HW143008   3.432   3.838   0.048
47037SOL    HW243009   3.452   3.688   0.041
47038SOL     OW43010   6.504   1.948  12.789
47038SOL    HW143011   6.564   1.991  12.850
47038SOL    HW243012   6.560   1.916  12.718
47039SOL     OW43013  10.460  12.961   7.709
47039SOL    HW143014  10.400  13.032   7.688
47039SOL    HW243015  10.429  12.887   7.656
47040SOL     OW43016  13.299   0.437  11.716
47040SOL    HW143017  13.226   0.479  11.670
47040SOL    HW243018  13.256   0.375  11.775
47041SOL     OW43019   1.890  12.593   5.781
47041SOL    HW143020   1.829  12.543   5.727
47041SOL    HW243021   1.950  12.634   5.718
47042SOL     OW43022   5.537   8.659   8.880
47042SOL    HW143023   5.509   8.579   8.924
47042SOL    HW243024   5.615   8.687   8.929
47043SOL     OW43025   3.919  14.623  10.731
47043SOL    HW143026   3.900  14.668  10.649
47043SOL    HW243027   3.967  14.687  10.783
47044SOL     OW43028   1.112  14.214   7.042
47044SOL    HW143029   1.041  14.165   7.083
47044SOL    HW243030   1.094  14.305   7.064
47045SOL     OW43031   4.173  12.300   4.814
47045SOL    HW143032   4.112  12.232   4.840
47045SOL    HW243033   4.227  12.314   4.892
47046SOL     OW43034   9.160   5.502   4.594
47046SOL    HW143035   9.086   5.562   4.605
47046SOL    HW243036   9.201   5.497   4.680
47047SOL     OW43037  11.001   6.333  13.018
47047SOL    HW143038  11.075   6.380  12.980
47047SOL    HW243039  10.940   6.402  13.044
47048SOL     OW43040   3.343   8.694   8.482
47048SOL    HW143041   3.248   8.703   8.493
47048SOL    HW243042   3.357   8.602   8.462
47049SOL     OW43043   0.957   6.872   6.420
47049SOL    HW143044   0.880   6.929   6.418
47049SOL    HW243045   1.025   6.921   6.374
47050SOL     OW43046   9.794   1.185  13.062
47050SOL    HW143047   9.846   1.173  12.982
47050SOL    HW243048   9.846   1.144  13.131
47051SOL     OW43049   6.877   5.026  11.678
47051SOL    HW143050   6.940   5.096  11.660
47051SOL    HW243051   6.809   5.037  11.612
47052SOL     OW43052   5.188   9.279   2.243
47052SOL    HW143053   5.100   9.252   2.272
47052SOL    HW243054   5.238   9.286   2.324
47053SOL     OW43055  13.833   9.629   2.489
47053SOL    HW143056  13.916   9.646   2.534
47053SOL    HW243057  13.839   9.678   2.407
47054SOL     OW43058   6.396   7.361   7.660
47054SOL    HW143059   6.485   7.360   7.626
47054SOL    HW243060   6.341   7.345   7.582
47055SOL     OW43061   1.140   1.284   5.113
47055SOL    HW143062   1.133   1.370   5.154
47055SOL    HW243063   1.062   1.278   5.057
47056SOL     OW43064   5.286  11.241  13.586
47056SOL    HW143065   5.345  11.170  13.562
47056SOL    HW243066   5.268  11.286  13.503
47057SOL     OW43067   6.630   9.769   5.217
47057SOL    HW143068   6.549   9.754   5.266
47057SOL    HW243069   6.637   9.695   5.157
47058SOL     OW43070   7.795   0.716   3.844
47058SOL    HW143071   7.845   0.680   3.916
47058SOL    HW243072   7.712   0.744   3.883
47059SOL     OW43073   8.060  11.184   3.228
47059SOL    HW143074   8.083  11.241   3.302
47059SOL    HW243075   8.127  11.116   3.229
47060SOL     OW43076   8.134  12.097   6.046
47060SOL    HW143077   8.221  12.056   6.038
47060SOL    HW243078   8.078  12.044   5.988
47061SOL     OW43079  11.843   1.420   4.808
47061SOL    HW143080  11.837   1.325   4.797
47061SOL    HW243081  11.929   1.442   4.771
47062SOL     OW43082  11.850   6.100   3.517
47062SOL    HW143083  11.939   6.073   3.494
47062SOL    HW243084  11.828   6.047   3.594
47063SOL     OW43085   2.586   8.774  11.625
47063SOL    HW143086   2.659   8.815  11.671
47063SOL    HW243087   2.623   8.696  11.584
47064SOL     OW43088  14.410   3.377   7.643
47064SOL    HW143089  14.490   3.324   7.635
47064SOL    HW243090  14.387   3.370   7.736
47065SOL     OW43091  12.496   4.750   4.626
47065SOL    HW143092  12.511   4.812   4.697
47065SOL    HW243093  12.513   4.800   4.546
47066SOL     OW43094   3.517   4.860   5.345
47066SOL    HW143095   3.599   4.906   5.327
47066SOL    HW243096   3.482   4.903   5.423
47067SOL     OW43097   4.351  11.164  12.040
47067SOL    HW143098   4.367  11.196  11.951
47067SOL    HW243099   4.256  11.155  12.045
47068SOL     OW43100   3.990  11.551   8.661
47068SOL    HW143101   3.986  11.629   8.605
47068SOL    HW243102   3.902  11.512   8.655
47069SOL     OW43103   5.786   7.399   9.014
47069SOL    HW143104   5.812   7.470   9.074
47069SOL    HW243105   5.707   7.363   9.054
47070SOL     OW43106  10.966   4.028   7.931
47070SOL    HW143107  10.876   3.997   7.920
47070SOL    HW243108  10.985   4.011   8.024
47071SOL     OW43109   0.830   6.784   5.979
47071SOL    HW143110   0.774   6.862   5.982
47071SOL    HW243111   0.825   6.748   6.068
47072SOL     OW43112   4.917   4.965   6.987
47072SOL    HW143113   4.986   5.025   7.014
47072SOL    HW243114   4.939   4.882   7.029
47073SOL     OW43115   8.214   8.633   6.609
47073SOL    HW143116   8.206   8.556   6.665
47073SOL    HW243117   8.124   8.656   6.587
47074SOL     OW43118   4.968  13.222  10.392
47074SOL    HW143119   4.915  13.295  10.361
47074SOL    HW243120   4.993  13.175  10.313
47075SOL     OW43121  10.565  14.683  14.807
47075SOL    HW143122  10.608  14.635  14.736
47075SOL    HW243123  10.538  14.615  14.869
47076SOL     OW43124   3.074   7.776   8.477
47076SOL    HW143125   3.095   7.683   8.469
47076SOL    HW243126   3.039   7.785   8.565
47077SOL     OW43127   9.380   2.202   7.469
47077SOL    HW143128   9.436   2.267   7.512
47077SOL    HW243129   9.385   2.125   7.526
47078SOL     OW43130   3.749   1.787   7.408
47078SOL    HW143131   3.781   1.739   7.331
47078SOL    HW243132   3.791   1.873   7.401
47079SOL     OW43133   1.012   3.204  10.198
47079SOL    HW143134   1.083   3.144  10.220
47079SOL    HW243135   0.970   3.223  10.283
47080SOL     OW43136   7.594   2.762   8.115
47080SOL    HW143137   7.637   2.686   8.154
47080SOL    HW243138   7.640   2.776   8.032
47081SOL     OW43139   0.513  13.881   7.128
47081SOL    HW143140   0.435  13.828   7.108
47081SOL    HW243141   0.586  13.820   7.117
47082SOL     OW43142   4.308   2.856   0.563
47082SOL    HW143143   4.223   2.857   0.607
47082SOL    HW243144   4.289   2.879   0.472
47083SOL     OW43145  12.637  10.897   1.989
47083SOL    HW143146  12.662  10.910   1.898
47083SOL    HW243147  12.558  10.951   2.001
47084SOL     OW43148  12.758  11.386   1.175
47084SOL    HW143149  12.717  11.332   1.243
47084SOL    HW243150  12.685  11.419   1.123
47085SOL     OW43151   8.884   3.956   9.393
47085SOL    HW143152   8.877   3.863   9.370
47085SOL    HW243153   8.920   3.957   9.481
47086SOL     OW43154  12.341   2.990   9.080
47086SOL    HW143155  12.384   3.020   9.160
47086SOL    HW243156  12.323   2.898   9.095
47087SOL     OW43157   9.645   9.431  10.405
47087SOL    HW143158   9.696   9.350  10.414
47087SOL    HW243159   9.680   9.489  10.473
47088SOL     OW43160   2.862   7.584  10.225
47088SOL    HW143161   2.808   7.651  10.265
47088SOL    HW243162   2.944   7.586  10.273
47089SOL     OW43163   4.347   9.493   8.304
47089SOL    HW143164   4.269   9.525   8.258
47089SOL    HW243165   4.379   9.570   8.351
47090SOL     OW43166   4.698   9.202  10.796
47090SOL    HW143167   4.708   9.176  10.888
47090SOL    HW243168   4.648   9.283  10.799
47091SOL     OW43169  13.186  10.069  13.421
47091SOL    HW143170  13.247  10.141  13.434
47091SOL    HW243171  13.123  10.077  13.494
47092SOL     OW43172  10.006  14.291   0.229
47092SOL    HW143173   9.936  14.356   0.226
47092SOL    HW243174  10.053  14.308   0.310
47093SOL     OW43175   8.417   5.207   8.396
47093SOL    HW143176   8.374   5.158   8.326
47093SOL    HW243177   8.417   5.146   8.470
47094SOL     OW43178   5.083   5.896  13.682
47094SOL    HW143179   5.075   5.936  13.769
47094SOL    HW243180   5.171   5.919  13.653
47095SOL     OW43181   8.176  12.718  10.416
47095SOL    HW143182   8.261  12.726  10.373
47095SOL    HW243183   8.152  12.626  10.404
47096SOL     OW43184   6.219   1.270   6.853
47096SOL    HW143185   6.313   1.263   6.838
47096SOL    HW243186   6.193   1.350   6.805
47097SOL     OW43187   5.774   1.118   5.011
47097SOL    HW143188   5.780   1.079   4.924
47097SOL    HW243189   5.805   1.050   5.070
47098SOL     OW43190   2.363  14.809   4.839
47098SOL    HW143191   2.413  14.733   4.811
47098SOL    HW243192   2.397  14.881   4.787
47099SOL     OW43193   7.960   4.672   8.779
47099SOL    HW143194   7.927   4.755   8.814
47099SOL    HW243195   7.961   4.612   8.854
47100SOL     OW43196   5.575   0.885  12.839
47100SOL    HW143197   5.609   0.803  12.802
47100SOL    HW243198   5.554   0.863  12.930
47101SOL     OW43199   9.086   7.325  12.011
47101SOL    HW143200   9.103   7.231  12.003
47101SOL    HW243201   9.007   7.340  11.960
47102SOL     OW43202   2.173   9.329  13.160
47102SOL    HW143203   2.105   9.265  13.139
47102SOL    HW243204   2.236   9.281  13.215
47103SOL     OW43205   5.635   5.069   0.828
47103SOL    HW143206   5.569   5.029   0.771
47103SOL    HW243207   5.614   5.036   0.915
47104SOL     OW43208  11.584  13.735   3.546
47104SOL    HW143209  11.677  13.721   3.532
47104SOL    HW243210  11.554  13.785   3.470
47105SOL     OW43211  12.120   3.968   4.664
47105SOL    HW143212  12.100   3.918   4.585
47105SOL    HW243213  12.081   3.918   4.735
47106SOL     OW43214   9.006   7.139   8.412
47106SOL    HW143215   9.007   7.045   8.393
47106SOL    HW243216   9.057   7.148   8.492
47107SOL     OW43217   2.779   5.629   5.538
47107SOL    HW143218   2.768   5.665   5.450
47107SOL    HW243219   2.872   5.608   5.544
47108SOL     OW43220  12.478   8.225  13.032
47108SOL    HW143221  12.571   8.239  13.015
47108SOL    HW243222  12.439   8.312  13.025
47109SOL     OW43223   6.203   7.965   8.324
47109SOL    HW143224   6.158   7.981   8.407
47109SOL    HW243225   6.264   8.038   8.316
47110SOL     OW43226  14.038   3.029   5.010
47110SOL    HW143227  14.047   3.085   4.933
47110SOL    HW243228  13.946   3.000   5.007
47111SOL     OW43229   3.917   2.584   2.780
47111SOL    HW143230   3.977   2.646   2.738
47111SOL    HW243231   3.897   2.520   2.711
47112SOL     OW43232   5.396  13.573   8.186
47112SOL    HW143233   5.334  13.630   8.232
47112SOL    HW243234   5.340  13.517   8.132
47113SOL     OW43235   4.938   3.080   2.391
47113SOL    HW143236   4.920   3.052   2.301
47113SOL    HW243237   5.019   3.036   2.415
47114SOL     OW43238  11.425  10.973   4.362
47114SOL    HW143239  11.359  10.987   4.294
47114SOL    HW243240  11.485  10.910   4.324
47115SOL     OW43241   7.775   1.963  11.305
47115SOL    HW143242   7.766   2.058  11.306
47115SOL    HW243243   7.708   1.932  11.366
47116SOL     OW43244  13.477   8.658   3.649
47116SOL    HW143245  13.421   8.715   3.703
47116SOL    HW243246  13.562   8.662   3.691
47117SOL     OW43247   4.182  10.851   7.440
47117SOL    HW143248   4.274  10.843   7.468
47117SOL    HW243249   4.139  10.896   7.512
47118SOL     OW43250  10.312   0.463   6.631
47118SOL    HW143251  10.287   0.381   6.589
47118SOL    HW243252  10.350   0.515   6.560
47119SOL     OW43253  11.825   6.355   8.666
47119SOL    HW143254  11.869   6.402   8.595
47119SOL    HW243255  11.791   6.424   8.723
47120SOL     OW43256   7.930   6.892  13.626
47120SOL    HW143257   7.865   6.925  13.688
47120SOL    HW243258   7.954   6.806  13.659
47121SOL     OW43259   2.966   6.224   2.870
47121SOL    HW143260   3.002   6.307   2.900
47121SOL    HW243261   3.042   6.165   2.866
47122SOL     OW43262   5.794  11.581   1.478
47122SOL    HW143263   5.818  11.496   1.514
47122SOL    HW243264   5.707  11.599   1.513
47123SOL     OW43265   6.648  14.195  11.107
47123SOL    HW143266   6.696  14.170  11.186
47123SOL    HW243267   6.716  14.202  11.039
47124SOL     OW43268  14.878  12.751  11.055
47124SOL    HW143269  14.856  12.782  11.143
47124SOL    HW243270   0.089  12.774  11.045
47125SOL     OW43271   1.063   0.383  12.172
47125SOL    HW143272   1.060   0.312  12.108
47125SOL    HW243273   1.112   0.453  12.128
47126SOL     OW43274   5.038   0.921   1.607
47126SOL    HW143275   5.021   0.903   1.514
47126SOL    HW243276   4.986   0.855   1.654
47127SOL     OW43277   9.316   0.571   6.166
47127SOL    HW143278   9.295   0.493   6.217
47127SOL    HW243279   9.411   0.566   6.151
47128SOL     OW43280   5.112   3.836   4.001
47128SOL    HW143281   5.026   3.800   4.022
47128SOL    HW243282   5.096   3.894   3.926
47129SOL     OW43283   1.639   9.168  12.196
47129SOL    HW143284   1.731   9.144  12.187
47129SOL    HW243285   1.601   9.101  12.252
47130SOL     OW43286   1.906   8.113  14.077
47130SOL    HW143287   1.820   8.115  14.034
47130SOL    HW243288   1.967   8.089  14.007
47131SOL     OW43289  14.487   7.229  12.121
47131SOL    HW143290  14.574   7.234  12.080
47131SOL    HW243291  14.505   7.202  12.211
47132SOL     OW43292  12.548   0.257   0.723
47132SOL    HW143293  12.517   0.339   0.762
47132SOL    HW243294  12.622   0.231   0.778
47133SOL     OW43295   4.821   7.720  11.964
47133SOL    HW143296   4.854   7.760  11.883
47133SOL    HW243297   4.771   7.789  12.007
47134SOL     OW43298   9.185   9.732   9.360
47134SOL    HW143299   9.269   9.709   9.399
47134SOL    HW243300   9.125   9.664   9.388
47135SOL     OW43301   9.944   2.830   8.414
47135SOL    HW143302   9.954   2.924   8.398
47135SOL    HW243303  10.015   2.790   8.364
47136SOL     OW43304   8.530   8.246   9.784
47136SOL    HW143305   8.572   8.172   9.828
47136SOL    HW243306   8.437   8.238   9.807
47137SOL     OW43307   5.683   8.027  13.439
47137SOL    HW143308   5.769   8.069  13.432
47137SOL    HW243309   5.674   7.976  13.359
47138SOL     OW43310   0.293   2.237   6.983
47138SOL    HW143311   0.282   2.195   6.898
47138SOL    HW243312   0.216   2.292   6.993
47139SOL     OW43313  10.861   6.805   6.411
47139SOL    HW143314  10.789   6.868   6.404
47139SOL    HW243315  10.939   6.855   6.384
47140SOL     OW43316   9.076   5.176   4.281
47140SOL    HW143317   8.990   5.139   4.302
47140SOL    HW243318   9.063   5.222   4.198
47141SOL     OW43319   2.046  13.501  12.822
47141SOL    HW143320   2.079  13.445  12.893
47141SOL    HW243321   1.998  13.570  12.866
47142SOL     OW43322  10.163  12.035   8.123
47142SOL    HW143323  10.123  12.054   8.038
47142SOL    HW243324  10.205  11.950   8.111
47143SOL     OW43325   4.571   6.570   1.544
47143SOL    HW143326   4.494   6.609   1.502
47143SOL    HW243327   4.538   6.491   1.586
47144SOL     OW43328   9.462   0.999  10.696
47144SOL    HW143329   9.435   0.965  10.610
47144SOL    HW243330   9.449   1.094  10.689
47145SOL     OW43331  14.765   7.773   0.123
47145SOL    HW143332  14.745   7.819   0.042
47145SOL    HW243333  14.842   7.720   0.102
47146SOL     OW43334  11.997  14.310   2.211
47146SOL    HW143335  12.040  14.283   2.292
47146SOL    HW243336  11.970  14.228   2.170
47147SOL     OW43337   6.437   4.050   2.409
47147SOL    HW143338   6.375   4.064   2.481
47147SOL    HW243339   6.477   3.965   2.429
47148SOL     OW43340   5.013  13.311   0.525
47148SOL    HW143341   5.095  13.326   0.572
47148SOL    HW243342   4.963  13.391   0.537
47149SOL     OW43343  13.294   4.401   6.912
47149SOL    HW143344  13.216   4.402   6.856
47149SOL    HW243345  13.274   4.462   6.983
47150SOL     OW43346   2.062   8.725   9.873
47150SOL    HW143347   2.041   8.636   9.847
47150SOL    HW243348   2.135   8.715   9.935
47151SOL     OW43349   6.492   3.545   7.477
47151SOL    HW143350   6.420   3.516   7.422
47151SOL    HW243351   6.534   3.464   7.506
47152SOL     OW43352  10.457  12.380   6.108
47152SOL    HW143353  10.404  12.458   6.088
47152SOL    HW243354  10.502  12.402   6.190
47153SOL     OW43355   1.802   7.326  14.783
47153SOL    HW143356   1.883   7.287  14.816
47153SOL    HW243357   1.762   7.258  14.729
47154SOL     OW43358   1.959   8.157  12.830
47154SOL    HW143359   1.966   8.063  12.817
47154SOL    HW243360   1.881   8.182  12.780
47155SOL     OW43361  13.431   9.080   5.682
47155SOL    HW143362  13.493   9.143   5.719
47155SOL    HW243363  13.354   9.085   5.739
47156SOL     OW43364  14.760  10.354   7.081
47156SOL    HW143365  14.682  10.384   7.034
47156SOL    HW243366  14.801  10.435   7.113
47157SOL     OW43367  14.063  14.602  10.466
47157SOL    HW143368  14.023  14.515  10.473
47157SOL    HW243369  14.034  14.649  10.545
47158SOL     OW43370  13.833   7.305  11.143
47158SOL    HW143371  13.915   7.341  11.109
47158SOL    HW243372  13.840   7.313  11.238
47159SOL     OW43373   7.988   7.295   2.712
47159SOL    HW143374   8.035   7.215   2.734
47159SOL    HW243375   7.907   7.291   2.763
47160SOL     OW43376  11.460  13.473   3.539
47160SOL    HW143377  11.477  13.566   3.548
47160SOL    HW243378  11.504  13.447   3.458
47161SOL     OW43379   0.581  12.767   1.451
47161SOL    HW143380   0.508  12.801   1.503
47161SOL    HW243381   0.540  12.710   1.386
47162SOL     OW43382   8.628  13.825   5.343
47162SOL    HW143383   8.551  13.776   5.372
47162SOL    HW243384   8.693  13.758   5.321
47163SOL     OW43385   5.240   8.940  13.644
47163SOL    HW143386   5.298   8.954  13.719
47163SOL    HW243387   5.158   8.983  13.668
47164SOL     OW43388   9.474   2.111   6.057
47164SOL    HW143389   9.477   2.156   5.973
47164SOL    HW243390   9.544   2.152   6.109
47165SOL     OW43391  13.609   1.474   7.773
47165SOL    HW143392  13.596   1.414   7.847
47165SOL    HW243393  13.564   1.554   7.798
47166SOL     OW43394   8.560   2.296   3.018
47166SOL    HW143395   8.521   2.347   2.947
47166SOL    HW243396   8.638   2.256   2.979
47167SOL     OW43397   5.815  10.946  11.634
47167SOL    HW143398   5.827  10.974  11.544
47167SOL    HW243399   5.770  11.019  11.677
47168SOL     OW43400  10.076  10.702   4.098
47168SOL    HW143401   9.987  10.739   4.098
47168SOL    HW243402  10.064  10.613   4.132
47169SOL     OW43403   1.319   9.816   2.437
47169SOL    HW143404   1.315   9.724   2.411
47169SOL    HW243405   1.232   9.850   2.420
47170SOL     OW43406   9.160   0.310   3.312
47170SOL    HW143407   9.070   0.283   3.299
47170SOL    HW243408   9.190   0.262   3.389
47171SOL     OW43409  12.806   2.659   3.293
47171SOL    HW143410  12.724   2.664   3.243
47171SOL    HW243411  12.874   2.679   3.229
47172SOL     OW43412   1.485  14.086   5.431
47172SOL    HW143413   1.508  14.040   5.350
47172SOL    HW243414   1.437  14.021   5.482
47173SOL     OW43415   8.842   9.884  13.485
47173SOL    HW143416   8.821   9.938  13.561
47173SOL    HW243417   8.938   9.879  13.485
47174SOL     OW43418   4.993   8.459   8.084
47174SOL    HW143419   4.927   8.393   8.065
47174SOL    HW243420   4.944   8.534   8.117
47175SOL     OW43421   1.465  13.992   6.499
47175SOL    HW143422   1.551  13.972   6.535
47175SOL    HW243423   1.413  14.018   6.575
47176SOL     OW43424  13.631  10.512   3.368
47176SOL    HW143425  13.590  10.584   3.415
47176SOL    HW243426  13.584  10.434   3.397
47177SOL     OW43427  14.285  14.759   2.724
47177SOL    HW143428  14.275  14.664   2.714
47177SOL    HW243429  14.367  14.779   2.679
47178SOL     OW43430   4.871   7.104   9.751
47178SOL    HW143431   4.928   7.037   9.788
47178SOL    HW243432   4.917   7.186   9.766
47179SOL     OW43433   4.404   4.823  13.683
47179SOL    HW143434   4.335   4.810  13.748
47179SOL    HW243435   4.436   4.912  13.700
47180SOL     OW43436   5.665   7.376   6.282
47180SOL    HW143437   5.630   7.454   6.239
47180SOL    HW243438   5.687   7.405   6.371
47181SOL     OW43439  10.544  10.155   0.594
47181SOL    HW143440  10.498  10.238   0.609
47181SOL    HW243441  10.574  10.160   0.503
47182SOL     OW43442  14.851   1.215   5.707
47182SOL    HW143443   0.040   1.207   5.644
47182SOL    HW243444  14.779   1.164   5.669
47183SOL     OW43445   8.082  12.120   4.531
47183SOL    HW143446   7.993  12.095   4.506
47183SOL    HW243447   8.137  12.055   4.488
47184SOL     OW43448  12.120   4.352   8.269
47184SOL    HW143449  12.061   4.360   8.195
47184SOL    HW243450  12.163   4.267   8.257
47185SOL     OW43451   1.109  12.374  10.212
47185SOL    HW143452   1.097  12.283  10.238
47185SOL    HW243453   1.196  12.397  10.243
47186SOL     OW43454   0.530  11.673  14.792
47186SOL    HW143455   0.575  11.699  14.872
47186SOL    HW243456   0.467  11.607  14.820
47187SOL     OW43457   1.238  14.139   4.943
47187SOL    HW143458   1.316  14.084   4.938
47187SOL    HW243459   1.188  14.117   4.865
47188SOL     OW43460  14.298   2.328  14.296
47188SOL    HW143461  14.239   2.283  14.234
47188SOL    HW243462  14.263   2.416  14.303
47189SOL     OW43463   6.984   5.045   7.055
47189SOL    HW143464   7.015   5.136   7.051
47189SOL    HW243465   6.913   5.041   6.990
47190SOL     OW43466  11.666  14.143   9.042
47190SOL    HW143467  11.581  14.142   9.087
47190SOL    HW243468  11.730  14.156   9.111
47191SOL     OW43469  11.723  13.965   6.725
47191SOL    HW143470  11.682  14.044   6.759
47191SOL    HW243471  11.662  13.932   6.659
47192SOL     OW43472   5.331   8.354  14.658
47192SOL    HW143473   5.403   8.336  14.597
47192SOL    HW243474   5.260   8.386  14.603
47193SOL     OW43475  10.953   9.576  12.983
47193SOL    HW143476  11.025   9.530  12.941
47193SOL    HW243477  10.897   9.605  12.912
47194SOL     OW43478  12.659   4.695   1.169
47194SOL    HW143479  12.603   4.690   1.247
47194SOL    HW243480  12.712   4.774   1.183
47195SOL     OW43481  10.554   2.377   6.222
47195SOL    HW143482  10.552   2.465   6.259
47195SOL    HW243483  10.597   2.387   6.137
47196SOL     OW43484   8.760   4.573   1.587
47196SOL    HW143485   8.683   4.517   1.583
47196SOL    HW243486   8.725   4.663   1.584
47197SOL     OW43487  13.250   8.901   0.581
47197SOL    HW143488  13.156   8.889   0.570
47197SOL    HW243489  13.270   8.982   0.534
47198SOL     OW43490   6.900   9.860   7.643
47198SOL    HW143491   6.927   9.907   7.722
47198SOL    HW243492   6.962   9.889   7.576
47199SOL     OW43493   9.734   6.130   4.982
47199SOL    HW143494   9.657   6.165   4.937
47199SOL    HW243495   9.715   6.036   4.993
47200SOL     OW43496  14.462  11.276  12.186
47200SOL    HW143497  14.522  11.285  12.111
47200SOL    HW243498  14.386  11.329  12.162
47201SOL     OW43499   6.577   6.722  14.095
47201SOL    HW143500   6.523   6.688  14.023
47201SOL    HW243501   6.613   6.644  14.137
47202SOL     OW43502  12.554  11.897   6.324
47202SOL    HW143503  12.559  11.890   6.419
47202SOL    HW243504  12.460  11.889   6.304
47203SOL     OW43505   2.456   4.121   7.462
47203SOL    HW143506   2.465   4.043   7.517
47203SOL    HW243507   2.362   4.133   7.453
47204SOL     OW43508  11.255  10.813   1.843
47204SOL    HW143509  11.270  10.760   1.922
47204SOL    HW243510  11.302  10.767   1.774
47205SOL     OW43511   3.353   9.452  13.101
47205SOL    HW143512   3.295   9.386  13.063
47205SOL    HW243513   3.435   9.406  13.118
47206SOL     OW43514   8.729  11.103  12.207
47206SOL    HW143515   8.736  11.032  12.143
47206SOL    HW243516   8.793  11.168  12.178
47207SOL     OW43517   3.430  10.082  11.378
47207SOL    HW143518   3.449  10.103  11.286
47207SOL    HW243519   3.393   9.994  11.375
47208SOL     OW43520   8.094  10.953   6.074
47208SOL    HW143521   8.007  10.958   6.112
47208SOL    HW243522   8.151  10.929   6.147
47209SOL     OW43523  10.562   9.074   3.874
47209SOL    HW143524  10.503   9.004   3.901
47209SOL    HW243525  10.505   9.139   3.833
47210SOL     OW43526  11.963  10.613   1.014
47210SOL    HW143527  11.936  10.700   0.985
47210SOL    HW243528  11.914  10.553   0.958
47211SOL     OW43529   6.604   5.435   3.820
47211SOL    HW143530   6.677   5.393   3.865
47211SOL    HW243531   6.573   5.501   3.882
47212SOL     OW43532   5.061   4.701   7.790
47212SOL    HW143533   5.153   4.729   7.782
47212SOL    HW243534   5.065   4.606   7.787
47213SOL     OW43535   5.054   3.594  12.747
47213SOL    HW143536   5.149   3.590  12.759
47213SOL    HW243537   5.019   3.612  12.834
47214SOL     OW43538  10.053   1.457  10.294
47214SOL    HW143539  10.099   1.495  10.219
47214SOL    HW243540  10.015   1.532  10.339
47215SOL     OW43541   1.109  11.320   1.037
47215SOL    HW143542   1.175  11.355   1.097
47215SOL    HW243543   1.128  11.227   1.032
47216SOL     OW43544  12.762  11.247  14.319
47216SOL    HW143545  12.811  11.246  14.402
47216SOL    HW243546  12.673  11.271  14.345
47217SOL     OW43547   4.640  14.118   3.424
47217SOL    HW143548   4.587  14.068   3.362
47217SOL    HW243549   4.730  14.104   3.395
47218SOL     OW43550  10.017   3.627  13.257
47218SOL    HW143551   9.945   3.690  13.260
47218SOL    HW243552  10.036   3.617  13.164
47219SOL     OW43553  11.285  13.194  14.155
47219SOL    HW143554  11.350  13.193  14.085
47219SOL    HW243555  11.223  13.262  14.129
47220SOL     OW43556  14.087   9.316   3.014
47220SOL    HW143557  14.078   9.226   2.983
47220SOL    HW243558  14.129   9.363   2.942
47221SOL     OW43559  12.741  13.538   8.473
47221SOL    HW143560  12.653  13.513   8.504
47221SOL    HW243561  12.790  13.456   8.474
47222SOL     OW43562  10.397   8.402  10.323
47222SOL    HW143563  10.493   8.401  10.317
47222SOL    HW243564  10.376   8.490  10.354
47223SOL     OW43565   9.673   5.822   6.633
47223SOL    HW143566   9.744   5.818   6.570
47223SOL    HW243567   9.716   5.820   6.719
47224SOL     OW43568   7.143   8.438   1.727
47224SOL    HW143569   7.175   8.521   1.764
47224SOL    HW243570   7.048   8.448   1.726
47225SOL     OW43571   5.630  13.752  11.419
47225SOL    HW143572   5.674  13.709  11.492
47225SOL    HW243573   5.651  13.844  11.429
47226SOL     OW43574  11.153   4.730   8.181
47226SOL    HW143575  11.089   4.716   8.250
47226SOL    HW243576  11.102   4.752   8.104
47227SOL     OW43577   2.238   3.400   7.814
47227SOL    HW143578   2.246   3.423   7.722
47227SOL    HW243579   2.303   3.332   7.829
47228SOL     OW43580   5.751  10.396   2.665
47228SOL    HW143581   5.728  10.337   2.594
47228SOL    HW243582   5.761  10.481   2.623
47229SOL     OW43583   8.365   1.866  14.141
47229SOL    HW143584   8.308   1.809  14.088
47229SOL    HW243585   8.447   1.817  14.149
47230SOL     OW43586  11.978  13.173   0.777
47230SOL    HW143587  12.000  13.137   0.691
47230SOL    HW243588  12.046  13.238   0.794
47231SOL     OW43589  14.527   0.429   9.423
47231SOL    HW143590  14.614   0.413   9.461
47231SOL    HW243591  14.467   0.418   9.497
47232SOL     OW43592   9.044   3.966   1.359
47232SOL    HW143593   9.044   3.978   1.454
47232SOL    HW243594   8.977   4.027   1.328
47233SOL     OW43595  12.122  12.419   2.507
47233SOL    HW143596  12.064  12.475   2.455
47233SOL    HW243597  12.114  12.333   2.467
47234SOL     OW43598   2.407   4.612  10.224
47234SOL    HW143599   2.482   4.559  10.251
47234SOL    HW243600   2.420   4.697  10.266
47235SOL     OW43601  13.171   6.228  13.246
47235SOL    HW143602  13.080   6.246  13.221
47235SOL    HW243603  13.199   6.305  13.294
47236SOL     OW43604  13.705  14.261  13.063
47236SOL    HW143605  13.674  14.218  13.143
47236SOL    HW243606  13.756  14.194  13.018
47237SOL     OW43607   4.889  10.552  10.062
47237SOL    HW143608   4.838  10.476  10.091
47237SOL    HW243609   4.966  10.514  10.019
47238SOL     OW43610   1.270   1.645   8.023
47238SOL    HW143611   1.218   1.580   7.975
47238SOL    HW243612   1.298   1.708   7.956
47239SOL     OW43613   4.673  13.471   9.143
47239SOL    HW143614   4.709  13.424   9.068
47239SOL    HW243615   4.744  13.527   9.173
47240SOL     OW43616  10.722  13.405  11.446
47240SOL    HW143617  10.713  13.319  11.487
47240SOL    HW243618  10.786  13.451  11.500
47241SOL     OW43619   1.055   0.776   6.053
47241SOL    HW143620   1.049   0.744   6.143
47241SOL    HW243621   1.019   0.865   6.057
47242SOL     OW43622   7.126   7.629   8.532
47242SOL    HW143623   7.052   7.688   8.518
47242SOL    HW243624   7.086   7.546   8.558
47243SOL     OW43625   7.803   2.766  10.892
47243SOL    HW143626   7.788   2.693  10.952
47243SOL    HW243627   7.892   2.752  10.858
47244SOL     OW43628   7.553   1.230  10.415
47244SOL    HW143629   7.504   1.261  10.340
47244SOL    HW243630   7.574   1.308  10.465
47245SOL     OW43631   7.722   0.370   7.661
47245SOL    HW143632   7.633   0.370   7.627
47245SOL    HW243633   7.777   0.346   7.586
47246SOL     OW43634   1.228  13.462  10.231
47246SOL    HW143635   1.320  13.489  10.236
47246SOL    HW243636   1.220  13.393  10.297
47247SOL     OW43637   6.850   0.281   1.183
47247SOL    HW143638   6.934   0.286   1.229
47247SOL    HW243639   6.793   0.233   1.242
47248SOL     OW43640   6.142  13.607   2.905
47248SOL    HW143641   6.090  13.609   2.986
47248SOL    HW243642   6.187  13.523   2.908
47249SOL     OW43643   2.721  10.583   8.405
47249SOL    HW143644   2.798  10.528   8.387
47249SOL    HW243645   2.712  10.580   8.501
47250SOL     OW43646   4.100   4.762  10.240
47250SOL    HW143647   4.105   4.775  10.335
47250SOL    HW243648   4.046   4.835  10.210
47251SOL     OW43649   3.930   9.509   2.733
47251SOL    HW143650   3.972   9.590   2.702
47251SOL    HW243651   3.966   9.495   2.821
47252SOL     OW43652   1.347   8.624   1.039
47252SOL    HW143653   1.360   8.707   1.084
47252SOL    HW243654   1.271   8.585   1.081
47253SOL     OW43655  13.588  11.853   7.706
47253SOL    HW143656  13.537  11.932   7.722
47253SOL    HW243657  13.649  11.849   7.779
47254SOL     OW43658  10.381  13.504   0.671
47254SOL    HW143659  10.442  13.462   0.732
47254SOL    HW243660  10.427  13.584   0.643
47255SOL     OW43661  11.715   8.951  14.181
47255SOL    HW143662  11.792   8.984  14.134
47255SOL    HW243663  11.641   8.972  14.124
47256SOL     OW43664   7.555   8.003   5.218
47256SOL    HW143665   7.630   8.061   5.201
47256SOL    HW243666   7.557   7.940   5.147
47257SOL     OW43667   1.527   9.218  12.458
47257SOL    HW143668   1.573   9.135  12.476
47257SOL    HW243669   1.535   9.230  12.364
47258SOL     OW43670   4.648   2.811  14.006
47258SOL    HW143671   4.668   2.737  14.064
47258SOL    HW243672   4.588   2.866  14.056
47259SOL     OW43673   8.962   9.516   9.117
47259SOL    HW143674   8.900   9.444   9.107
47259SOL    HW243675   8.931   9.583   9.056
47260SOL     OW43676  13.675  13.768   3.657
47260SOL    HW143677  13.751  13.822   3.639
47260SOL    HW243678  13.637  13.750   3.571
47261SOL     OW43679   4.068  10.861  14.783
47261SOL    HW143680   4.050  10.953  14.760
47261SOL    HW243681   4.021  10.810  14.717
47262SOL     OW43682   0.506  13.375   5.343
47262SOL    HW143683   0.512  13.434   5.268
47262SOL    HW243684   0.596  13.356   5.366
47263SOL     OW43685   6.892   9.464  10.517
47263SOL    HW143686   6.938   9.547  10.533
47263SOL    HW243687   6.826   9.460  10.587
47264SOL     OW43688   4.308  11.881   1.176
47264SOL    HW143689   4.399  11.856   1.189
47264SOL    HW243690   4.267  11.868   1.262
47265SOL     OW43691  14.317   8.282   2.144
47265SOL    HW143692  14.368   8.243   2.216
47265SOL    HW243693  14.226   8.260   2.165
47266SOL     OW43694  11.298   6.334   1.493
47266SOL    HW143695  11.244   6.356   1.569
47266SOL    HW243696  11.244   6.275   1.441
47267SOL     OW43697   4.864   9.576   9.648
47267SOL    HW143698   4.845   9.633   9.722
47267SOL    HW243699   4.927   9.512   9.682
47268SOL     OW43700   7.127   2.115   2.983
47268SOL    HW143701   7.121   2.095   2.890
47268SOL    HW243702   7.048   2.076   3.021
47269SOL     OW43703  11.576  11.997   8.716
47269SOL    HW143704  11.551  11.918   8.765
47269SOL    HW243705  11.512  12.002   8.645
47270SOL     OW43706   6.271   1.732   7.657
47270SOL    HW143707   6.183   1.708   7.687
47270SOL    HW243708   6.304   1.793   7.723
47271SOL     OW43709  11.064   0.455  13.121
47271SOL    HW143710  11.022   0.491  13.043
47271SOL    HW243711  10.993   0.445  13.185
47272SOL     OW43712   6.199  12.568   8.502
47272SOL    HW143713   6.287  12.533   8.511
47272SOL    HW243714   6.150  12.498   8.459
47273SOL     OW43715   7.723   5.607   1.260
47273SOL    HW143716   7.735   5.533   1.200
47273SOL    HW243717   7.764   5.578   1.342
47274SOL     OW43718   1.884   8.457   5.015
47274SOL    HW143719   1.808   8.400   5.003
47274SOL    HW243720   1.847   8.544   5.028
47275SOL     OW43721  13.617   2.225   5.810
47275SOL    HW143722  13.673   2.238   5.887
47275SOL    HW243723  13.614   2.310   5.767
47276SOL     OW43724  12.162   1.768   8.180
47276SOL    HW143725  12.222   1.771   8.254
47276SOL    HW243726  12.214   1.730   8.109
47277SOL     OW43727   3.467   8.348   6.215
47277SOL    HW143728   3.478   8.407   6.290
47277SOL    HW243729   3.556   8.322   6.192
47278SOL     OW43730   7.365   6.901   1.653
47278SOL    HW143731   7.435   6.926   1.592
47278SOL    HW243732   7.368   6.969   1.721
47279SOL     OW43733   1.378   9.528   1.410
47279SOL    HW143734   1.349   9.529   1.501
47279SOL    HW243735   1.457   9.475   1.411
47280SOL     OW43736  11.901  14.187  14.426
47280SOL    HW143737  11.963  14.169  14.496
47280SOL    HW243738  11.904  14.282  14.415
47281SOL     OW43739  12.666   5.701   7.235
47281SOL    HW143740  12.660   5.683   7.329
47281SOL    HW243741  12.756   5.677   7.212
47282SOL     OW43742   1.293   0.707   2.514
47282SOL    HW143743   1.237   0.784   2.517
47282SOL    HW243744   1.239   0.639   2.473
47283SOL     OW43745   2.063   8.572   6.596
47283SOL    HW143746   1.987   8.629   6.610
47283SOL    HW243747   2.027   8.483   6.597
47284SOL     OW43748   7.906   8.392   5.910
47284SOL    HW143749   7.947   8.326   5.854
47284SOL    HW243750   7.843   8.343   5.962
47285SOL     OW43751   1.284   9.624   9.702
47285SOL    HW143752   1.310   9.533   9.691
47285SOL    HW243753   1.263   9.632   9.795
47286SOL     OW43754  14.225   0.304   6.310
47286SOL    HW143755  14.284   0.237   6.345
47286SOL    HW243756  14.179   0.260   6.239
47287SOL     OW43757   6.557  13.709  13.697
47287SOL    HW143758   6.484  13.770  13.708
47287SOL    HW243759   6.605  13.713  13.780
47288SOL     OW43760   0.882   2.488   2.724
47288SOL    HW143761   0.928   2.557   2.772
47288SOL    HW243762   0.818   2.534   2.670
47289SOL     OW43763  13.417  10.508   9.228
47289SOL    HW143764  13.425  10.596   9.264
47289SOL    HW243765  13.508  10.480   9.214
47290SOL     OW43766  11.922  12.206   8.045
47290SOL    HW143767  11.984  12.185   7.975
47290SOL    HW243768  11.874  12.282   8.012
47291SOL     OW43769   4.972   6.397  12.569
47291SOL    HW143770   4.908   6.342  12.522
47291SOL    HW243771   5.043   6.336  12.591
47292SOL     OW43772   4.911   9.683   6.486
47292SOL    HW143773   4.849   9.666   6.415
47292SOL    HW243774   4.881   9.765   6.525
47293SOL     OW43775  10.283   2.250   0.577
47293SOL    HW143776  10.361   2.282   0.531
47293SOL    HW243777  10.229   2.328   0.590
47294SOL     OW43778   7.395   9.004  10.121
47294SOL    HW143779   7.401   9.085  10.171
47294SOL    HW243780   7.384   9.032  10.030
47295SOL     OW43781   3.804   1.522  10.779
47295SOL    HW143782   3.851   1.589  10.830
47295SOL    HW243783   3.824   1.543  10.688
47296SOL     OW43784   9.423   3.395   2.562
47296SOL    HW143785   9.510   3.356   2.559
47296SOL    HW243786   9.436   3.487   2.541
47297SOL     OW43787  11.324  11.520  11.068
47297SOL    HW143788  11.305  11.507  10.975
47297SOL    HW243789  11.304  11.435  11.108
47298SOL     OW43790  14.457   9.345  10.435
47298SOL    HW143791  14.505   9.277  10.481
47298SOL    HW243792  14.515   9.372  10.363
47299SOL     OW43793   4.749  14.490   8.981
47299SOL    HW143794   4.698  14.569   8.964
47299SOL    HW243795   4.744  14.440   8.899
47300SOL     OW43796   3.877  12.224  13.273
47300SOL    HW143797   3.854  12.144  13.226
47300SOL    HW243798   3.794  12.259  13.304
47301SOL     OW43799   1.457   2.768  13.470
47301SOL    HW143800   1.417   2.734  13.390
47301SOL    HW243801   1.536   2.812  13.440
47302SOL     OW43802   8.456   2.455   2.827
47302SOL    HW143803   8.369   2.426   2.802
47302SOL    HW243804   8.447   2.550   2.841
47303SOL     OW43805   0.442   8.456  11.473
47303SOL    HW143806   0.511   8.403  11.512
47303SOL    HW243807   0.369   8.452  11.535
47304SOL     OW43808   8.763  13.498   6.392
47304SOL    HW143809   8.843  13.551   6.395
47304SOL    HW243810   8.736  13.490   6.484
47305SOL     OW43811   4.607   0.714  11.353
47305SOL    HW143812   4.689   0.734  11.308
47305SOL    HW243813   4.626   0.727  11.446
47306SOL     OW43814   1.542  12.608   8.419
47306SOL    HW143815   1.491  12.582   8.342
47306SOL    HW243816   1.501  12.689   8.449
47307SOL     OW43817  14.758  11.711  14.344
47307SOL    HW143818  14.686  11.757  14.301
47307SOL    HW243819  14.758  11.745  14.433
47308SOL     OW43820   1.442   1.391   4.955
47308SOL    HW143821   1.413   1.477   4.985
47308SOL    HW243822   1.418   1.331   5.025
47309SOL     OW43823   9.805  12.011  11.019
47309SOL    HW143824   9.874  12.064  11.059
47309SOL    HW243825   9.802  12.041  10.928
47310SOL     OW43826   7.503  13.308  11.137
47310SOL    HW143827   7.582  13.268  11.101
47310SOL    HW243828   7.485  13.258  11.217
47311SOL     OW43829   2.234   2.803   2.126
47311SOL    HW143830   2.310   2.860   2.121
47311SOL    HW243831   2.270   2.714   2.128
47312SOL     OW43832  11.778   4.283  13.529
47312SOL    HW143833  11.798   4.202  13.483
47312SOL    HW243834  11.753   4.255  13.617
47313SOL     OW43835   3.339  14.468   5.886
47313SOL    HW143836   3.294  14.393   5.847
47313SOL    HW243837   3.318  14.463   5.979
47314SOL     OW43838   9.416   7.645   9.165
47314SOL    HW143839   9.390   7.730   9.129
47314SOL    HW243840   9.448   7.665   9.253
47315SOL     OW43841  14.768   9.322   0.140
47315SOL    HW143842  14.706   9.394   0.128
47315SOL    HW243843  14.814   9.315   0.057
47316SOL     OW43844   6.072  10.738   3.063
47316SOL    HW143845   6.126  10.709   3.136
47316SOL    HW243846   6.004  10.792   3.103
47317SOL     OW43847   9.417   5.542   6.226
47317SOL    HW143848   9.336   5.576   6.264
47317SOL    HW243849   9.402   5.448   6.218
47318SOL     OW43850   4.994   1.123   1.817
47318SOL    HW143851   5.027   1.072   1.743
47318SOL    HW243852   4.945   1.061   1.869
47319SOL     OW43853  12.257  11.456   9.494
47319SOL    HW143854  12.243  11.362   9.500
47319SOL    HW243855  12.204  11.493   9.565
47320SOL     OW43856   7.921   1.572  10.071
47320SOL    HW143857   7.924   1.518  10.150
47320SOL    HW243858   8.013   1.589  10.051
47321SOL     OW43859   4.255   0.409   3.367
47321SOL    HW143860   4.330   0.372   3.414
47321SOL    HW243861   4.181   0.396   3.426
47322SOL     OW43862   7.741  14.398   8.985
47322SOL    HW143863   7.789  14.422   8.905
47322SOL    HW243864   7.705  14.481   9.017
47323SOL     OW43865   0.200   1.225   5.574
47323SOL    HW143866   0.196   1.274   5.492
47323SOL    HW243867   0.265   1.157   5.559
47324SOL     OW43868  10.612   9.566  10.808
47324SOL    HW143869  10.645   9.641  10.758
47324SOL    HW243870  10.528   9.545  10.766
47325SOL     OW43871  13.771  12.764   7.788
47325SOL    HW143872  13.853  12.734   7.827
47325SOL    HW243873  13.732  12.821   7.855
47326SOL     OW43874  13.784   8.209   7.438
47326SOL    HW143875  13.721   8.258   7.492
47326SOL    HW243876  13.757   8.118   7.447
47327SOL     OW43877  12.125   7.988   7.968
47327SOL    HW143878  12.108   7.923   7.900
47327SOL    HW243879  12.125   8.072   7.922
47328SOL     OW43880   7.977  11.820   4.127
47328SOL    HW143881   7.925  11.750   4.167
47328SOL    HW243882   7.931  11.841   4.046
47329SOL     OW43883   8.074   8.528  11.249
47329SOL    HW143884   8.100   8.437  11.262
47329SOL    HW243885   8.093   8.546  11.157
47330SOL     OW43886  13.272   9.733   4.438
47330SOL    HW143887  13.270   9.640   4.461
47330SOL    HW243888  13.293   9.778   4.520
47331SOL     OW43889   4.381   8.778   3.036
47331SOL    HW143890   4.323   8.763   3.111
47331SOL    HW243891   4.465   8.801   3.074
47332SOL     OW43892  11.735   3.633   7.785
47332SOL    HW143893  11.778   3.697   7.729
47332SOL    HW243894  11.655   3.677   7.815
47333SOL     OW43895   4.374   6.494   2.113
47333SOL    HW143896   4.280   6.482   2.131
47333SOL    HW243897   4.418   6.432   2.171
47334SOL     OW43898  10.494   7.976  12.430
47334SOL    HW143899  10.491   8.033  12.507
47334SOL    HW243900  10.483   7.888  12.465
47335SOL     OW43901   8.294  14.824   5.056
47335SOL    HW143902   8.249  14.740   5.058
47335SOL    HW243903   8.284  14.856   4.967
47336SOL     OW43904   9.375   0.603   9.587
47336SOL    HW143905   9.329   0.547   9.649
47336SOL    HW243906   9.350   0.570   9.501
47337SOL     OW43907   9.459   9.319   3.674
47337SOL    HW143908   9.389   9.384   3.683
47337SOL    HW243909   9.494   9.309   3.762
47338SOL     OW43910   5.966   3.445   0.474
47338SOL    HW143911   5.897   3.389   0.438
47338SOL    HW243912   5.970   3.422   0.566
47339SOL     OW43913   2.257   4.699   3.121
47339SOL    HW143914   2.203   4.621   3.130
47339SOL    HW243915   2.194   4.771   3.108
47340SOL     OW43916  11.536   5.500   2.928
47340SOL    HW143917  11.603   5.432   2.936
47340SOL    HW243918  11.581   5.581   2.955
47341SOL     OW43919   0.394   9.806   9.167
47341SOL    HW143920   0.428   9.851   9.090
47341SOL    HW243921   0.328   9.746   9.133
47342SOL     OW43922  10.904   5.147   0.144
47342SOL    HW143923  10.900   5.078   0.211
47342SOL    HW243924  10.963   5.113   0.077
47343SOL     OW43925   6.109   4.495  10.849
47343SOL    HW143926   6.184   4.459  10.801
47343SOL    HW243927   6.126   4.475  10.940
47344SOL     OW43928   4.388  11.164  12.509
47344SOL    HW143929   4.351  11.250  12.489
47344SOL    HW243930   4.394  11.163  12.605
47345SOL     OW43931  14.540  12.569   7.283
47345SOL    HW143932  14.565  12.505   7.216
47345SOL    HW243933  14.623  12.598   7.320
47346SOL     OW43934   0.185   1.095   2.034
47346SOL    HW143935   0.113   1.090   1.971
47346SOL    HW243936   0.212   1.187   2.033
47347SOL     OW43937   1.954   1.452   3.948
47347SOL    HW143938   2.033   1.495   3.981
47347SOL    HW243939   1.955   1.471   3.854
47348SOL     OW43940   9.290   1.523   4.566
47348SOL    HW143941   9.324   1.434   4.560
47348SOL    HW243942   9.367   1.579   4.558
47349SOL     OW43943   8.171   8.736   7.342
47349SOL    HW143944   8.090   8.783   7.359
47349SOL    HW243945   8.239   8.803   7.343
47350SOL     OW43946   3.575  11.128  13.372
47350SOL    HW143947   3.624  11.209  13.385
47350SOL    HW243948   3.557  11.126  13.278
47351SOL     OW43949   8.070  10.200  10.927
47351SOL    HW143950   8.050  10.201  10.833
47351SOL    HW243951   7.988  10.227  10.969
47352SOL     OW43952   2.010   2.731   9.642
47352SOL    HW143953   1.989   2.638   9.633
47352SOL    HW243954   1.977   2.755   9.729
47353SOL     OW43955   6.557   1.553  13.652
47353SOL    HW143956   6.592   1.502  13.725
47353SOL    HW243957   6.608   1.523  13.576
47354SOL     OW43958   9.423  12.647   0.099
47354SOL    HW143959   9.431  12.651   0.004
47354SOL    HW243960   9.408  12.737   0.126
47355SOL     OW43961  12.277   7.839  12.961
47355SOL    HW143962  12.213   7.768  12.966
47355SOL    HW243963  12.234   7.906  12.907
47356SOL     OW43964   9.316   0.963   6.391
47356SOL    HW143965   9.291   1.055   6.391
47356SOL    HW243966   9.348   0.946   6.480
47357SOL     OW43967   4.766   3.310   4.706
47357SOL    HW143968   4.855   3.347   4.711
47357SOL    HW243969   4.712   3.383   4.676
47358SOL     OW43970  13.566  11.253   3.839
47358SOL    HW143971  13.580  11.347   3.851
47358SOL    HW243972  13.584  11.239   3.746
47359SOL     OW43973   9.507  11.910  12.592
47359SOL    HW143974   9.545  11.988  12.632
47359SOL    HW243975   9.543  11.837  12.643
47360SOL     OW43976  13.523   8.204   6.150
47360SOL    HW143977  13.610   8.220   6.112
47360SOL    HW243978  13.481   8.144   6.088
47361SOL     OW43979   6.141   1.689   9.393
47361SOL    HW143980   6.231   1.683   9.423
47361SOL    HW243981   6.147   1.696   9.298
47362SOL     OW43982   0.314   1.413   0.139
47362SOL    HW143983   0.344   1.348   0.076
47362SOL    HW243984   0.224   1.388   0.160
47363SOL     OW43985   8.274   5.270   2.453
47363SOL    HW143986   8.224   5.351   2.451
47363SOL    HW243987   8.365   5.297   2.453
47364SOL     OW43988   9.168   7.295   7.682
47364SOL    HW143989   9.118   7.374   7.659
47364SOL    HW243990   9.107   7.223   7.665
47365SOL     OW43991   4.312  13.350  13.094
47365SOL    HW143992   4.340  13.259  13.104
47365SOL    HW243993   4.376  13.401  13.143
47366SOL     OW43994   6.680   4.317   2.017
47366SOL    HW143995   6.664   4.312   2.112
47366SOL    HW243996   6.747   4.385   2.008
47367SOL     OW43997   6.665   5.219  10.688
47367SOL    HW143998   6.631   5.232  10.776
47367SOL    HW243999   6.590   5.231  10.631
47368SOL     OW44000   2.291   4.555   8.044
47368SOL    HW144001   2.296   4.639   8.089
47368SOL    HW244002   2.329   4.492   8.106
47369SOL     OW44003  10.379   0.612  11.430
47369SOL    HW144004  10.455   0.668  11.446
47369SOL    HW244005  10.316   0.669  11.387
47370SOL     OW44006  12.846   9.102  11.457
47370SOL    HW144007  12.867   9.038  11.389
47370SOL    HW244008  12.908   9.173  11.443
47371SOL     OW44009   0.806   3.744   7.127
47371SOL    HW144010   0.836   3.702   7.046
47371SOL    HW244011   0.710   3.735   7.123
47372SOL     OW44012  10.999  14.022   0.034
47372SOL    HW144013  11.060  13.948   0.036
47372SOL    HW244014  11.019  14.067  14.833
47373SOL     OW44015   9.137   1.778   1.365
47373SOL    HW144016   9.220   1.814   1.337
47373SOL    HW244017   9.140   1.686   1.339
47374SOL     OW44018   7.338   0.027  12.599
47374SOL    HW144019   7.323   0.122  12.599
47374SOL    HW244020   7.344   0.005  12.506
47375SOL     OW44021   5.660   2.590   8.988
47375SOL    HW144022   5.667   2.647   8.912
47375SOL    HW244023   5.724   2.520   8.973
47376SOL     OW44024   0.951  11.814  10.238
47376SOL    HW144025   0.939  11.731  10.284
47376SOL    HW244026   0.973  11.789  10.148
47377SOL     OW44027  12.060   9.893   6.352
47377SOL    HW144028  12.081   9.892   6.445
47377SOL    HW244029  12.074   9.984   6.325
47378SOL     OW44030   2.995  13.648   5.663
47378SOL    HW144031   2.937  13.620   5.734
47378SOL    HW244032   3.063  13.700   5.706
47379SOL     OW44033   6.379   3.049   5.802
47379SOL    HW144034   6.296   3.025   5.761
47379SOL    HW244035   6.354   3.079   5.890
47380SOL     OW44036   4.740  12.840  10.905
47380SOL    HW144037   4.820  12.876  10.867
47380SOL    HW244038   4.762  12.828  10.998
47381SOL     OW44039   5.703   9.167   8.436
47381SOL    HW144040   5.628   9.119   8.402
47381SOL    HW244041   5.736   9.217   8.362
47382SOL     OW44042   5.708   4.287   7.292
47382SOL    HW144043   5.729   4.267   7.201
47382SOL    HW244044   5.679   4.203   7.329
47383SOL     OW44045   2.367   6.449   3.481
47383SOL    HW144046   2.447   6.413   3.520
47383SOL    HW244047   2.393   6.478   3.394
47384SOL     OW44048   7.099   5.650   7.103
47384SOL    HW144049   7.110   5.616   7.192
47384SOL    HW244050   7.188   5.656   7.069
47385SOL     OW44051   8.310  14.127   7.079
47385SOL    HW144052   8.362  14.149   7.156
47385SOL    HW244053   8.372  14.085   7.019
47386SOL     OW44054  10.161   9.603   4.081
47386SOL    HW144055  10.171   9.699   4.077
47386SOL    HW244056  10.069   9.590   4.102
47387SOL     OW44057   3.988   9.462   4.483
47387SOL    HW144058   3.958   9.551   4.468
47387SOL    HW244059   4.065   9.453   4.427
47388SOL     OW44060  13.916  14.552  12.962
47388SOL    HW144061  13.842  14.585  12.911
47388SOL    HW244062  13.993  14.584  12.915
47389SOL     OW44063  10.621   4.956   4.499
47389SOL    HW144064  10.708   4.919   4.490
47389SOL    HW244065  10.635   5.050   4.502
47390SOL     OW44066   4.219  12.265   6.322
47390SOL    HW144067   4.164  12.285   6.398
47390SOL    HW244068   4.166  12.292   6.247
47391SOL     OW44069   9.798   5.317   8.280
47391SOL    HW144070   9.713   5.289   8.246
47391SOL    HW244071   9.858   5.308   8.206
47392SOL     OW44072  10.996   7.673   2.692
47392SOL    HW144073  10.947   7.709   2.618
47392SOL    HW244074  10.928   7.637   2.750
47393SOL     OW44075  13.113   9.907   4.687
47393SOL    HW144076  13.193   9.854   4.693
47393SOL    HW244077  13.043   9.843   4.673
47394SOL     OW44078   4.582   7.591  12.010
47394SOL    HW144079   4.669   7.608  12.045
47394SOL    HW244080   4.553   7.676  11.977
47395SOL     OW44081   5.873   8.655  13.383
47395SOL    HW144082   5.814   8.708  13.437
47395SOL    HW244083   5.960   8.671  13.419
47396SOL     OW44084  13.653   7.665   4.785
47396SOL    HW144085  13.728   7.648   4.843
47396SOL    HW244086  13.576   7.653   4.841
47397SOL     OW44087   7.985  12.576   5.319
47397SOL    HW144088   8.014  12.562   5.229
47397SOL    HW244089   7.959  12.489   5.350
47398SOL     OW44090   7.701   6.184   2.043
47398SOL    HW144091   7.718   6.091   2.031
47398SOL    HW244092   7.605   6.191   2.048
47399SOL     OW44093   5.013  13.541   6.160
47399SOL    HW144094   5.024  13.634   6.142
47399SOL    HW244095   5.035  13.531   6.252
47400SOL     OW44096   3.276   7.047  13.404
47400SOL    HW144097   3.223   7.073  13.479
47400SOL    HW244098   3.306   7.130  13.366
47401SOL     OW44099   0.776   5.062   4.673
47401SOL    HW144100   0.715   5.000   4.632
47401SOL    HW244101   0.721   5.114   4.731
47402SOL     OW44102   1.777  11.592  12.320
47402SOL    HW144103   1.685  11.601  12.344
47402SOL    HW244104   1.776  11.573  12.226
47403SOL     OW44105   1.237   8.800   3.818
47403SOL    HW144106   1.183   8.822   3.743
47403SOL    HW244107   1.287   8.880   3.836
47404SOL     OW44108   8.992   2.121  11.226
47404SOL    HW144109   9.070   2.109  11.171
47404SOL    HW244110   8.965   2.211  11.210
47405SOL     OW44111   3.215   7.592   8.753
47405SOL    HW144112   3.123   7.583   8.776
47405SOL    HW244113   3.250   7.653   8.818
47406SOL     OW44114  10.896   5.528  14.108
47406SOL    HW144115  10.848   5.447  14.126
47406SOL    HW244116  10.940   5.512  14.025
47407SOL     OW44117  13.722  14.790  14.198
47407SOL    HW144118  13.685  14.868  14.240
47407SOL    HW244119  13.659  14.721  14.219
47408SOL     OW44120   0.288   6.560   5.125
47408SOL    HW144121   0.296   6.468   5.100
47408SOL    HW244122   0.294   6.559   5.221
47409SOL     OW44123   6.402   8.227  14.428
47409SOL    HW144124   6.347   8.306  14.423
47409SOL    HW244125   6.340   8.155  14.418
47410SOL     OW44126  13.578   3.422   6.464
47410SOL    HW144127  13.529   3.487   6.414
47410SOL    HW244128  13.668   3.455   6.465
47411SOL     OW44129  10.879   7.671  11.152
47411SOL    HW144130  10.911   7.592  11.196
47411SOL    HW244131  10.808   7.639  11.095
47412SOL     OW44132   9.517  13.371   7.379
47412SOL    HW144133   9.584  13.405   7.320
47412SOL    HW244134   9.500  13.442   7.440
47413SOL     OW44135   1.298  12.287   8.660
47413SOL    HW144136   1.203  12.276   8.649
47413SOL    HW244137   1.327  12.205   8.699
47414SOL     OW44138   9.752   5.635  13.124
47414SOL    HW144139   9.735   5.646  13.218
47414SOL    HW244140   9.688   5.570  13.095
47415SOL     OW44141  11.628   1.854   7.181
47415SOL    HW144142  11.657   1.763   7.178
47415SOL    HW244143  11.540   1.852   7.143
47416SOL     OW44144   1.111   3.823  11.374
47416SOL    HW144145   1.154   3.905  11.400
47416SOL    HW244146   1.123   3.765  11.450
47417SOL     OW44147  10.083   1.374  11.038
47417SOL    HW144148  10.119   1.288  11.017
47417SOL    HW244149  10.102   1.428  10.961
47418SOL     OW44150   4.631   9.249  13.447
47418SOL    HW144151   4.581   9.328  13.468
47418SOL    HW244152   4.719   9.280  13.430
47419SOL     OW44153   6.546  10.572   1.934
47419SOL    HW144154   6.480  10.568   1.864
47419SOL    HW244155   6.495  10.566   2.015
47420SOL     OW44156   9.228   6.501  14.741
47420SOL    HW144157   9.319   6.512  14.714
47420SOL    HW244158   9.185   6.460  14.666
47421SOL     OW44159   3.663   3.983  12.971
47421SOL    HW144160   3.687   4.057  12.915
47421SOL    HW244161   3.726   3.986  13.044
47422SOL     OW44162   3.392   5.764  13.806
47422SOL    HW144163   3.434   5.706  13.870
47422SOL    HW244164   3.455   5.835  13.794
47423SOL     OW44165   3.009  10.060   0.449
47423SOL    HW144166   3.029  10.112   0.527
47423SOL    HW244167   3.021   9.969   0.477
47424SOL     OW44168   8.589   5.693   1.025
47424SOL    HW144169   8.542   5.766   0.986
47424SOL    HW244170   8.528   5.619   1.020
47425SOL     OW44171   1.364   2.030   0.322
47425SOL    HW144172   1.430   1.968   0.291
47425SOL    HW244173   1.381   2.038   0.416
47426SOL     OW44174   3.226  10.035   7.088
47426SOL    HW144175   3.308  10.017   7.134
47426SOL    HW244176   3.249  10.031   6.995
47427SOL     OW44177   9.653  10.711   9.974
47427SOL    HW144178   9.606  10.701   9.891
47427SOL    HW244179   9.594  10.673  10.039
47428SOL     OW44180  13.152   5.522   9.658
47428SOL    HW144181  13.156   5.597   9.717
47428SOL    HW244182  13.211   5.544   9.585
47429SOL     OW44183   1.258  13.636  13.690
47429SOL    HW144184   1.320  13.709  13.689
47429SOL    HW244185   1.299  13.569  13.635
47430SOL     OW44186   7.240  11.151  12.809
47430SOL    HW144187   7.305  11.217  12.834
47430SOL    HW244188   7.216  11.109  12.892
47431SOL     OW44189   7.283   5.991   8.272
47431SOL    HW144190   7.356   6.047   8.296
47431SOL    HW244191   7.305   5.959   8.184
47432SOL     OW44192   9.338   5.523   5.481
47432SOL    HW144193   9.418   5.565   5.449
47432SOL    HW244194   9.368   5.464   5.551
47433SOL     OW44195  13.199   0.209  10.065
47433SOL    HW144196  13.108   0.184  10.051
47433SOL    HW244197  13.246   0.174   9.989
47434SOL     OW44198  13.484  13.608  13.654
47434SOL    HW144199  13.530  13.621  13.737
47434SOL    HW244200  13.553  13.581  13.592
47435SOL     OW44201   8.321   2.096  13.185
47435SOL    HW144202   8.303   2.043  13.107
47435SOL    HW244203   8.363   2.175  13.151
47436SOL     OW44204   5.581   3.751  10.499
47436SOL    HW144205   5.526   3.714  10.568
47436SOL    HW244206   5.668   3.715  10.516
47437SOL     OW44207   7.759   8.927  14.501
47437SOL    HW144208   7.752   8.842  14.459
47437SOL    HW244209   7.742   8.990  14.430
47438SOL     OW44210  10.287   5.387  11.139
47438SOL    HW144211  10.257   5.447  11.207
47438SOL    HW244212  10.323   5.445  11.071
47439SOL     OW44213   7.624   6.769   1.391
47439SOL    HW144214   7.703   6.714   1.391
47439SOL    HW244215   7.601   6.777   1.299
47440SOL     OW44216  13.520   0.024  12.786
47440SOL    HW144217  13.583   0.093  12.809
47440SOL    HW244218  13.553  14.870  12.704
47441SOL     OW44219  14.697   4.461   0.427
47441SOL    HW144220  14.625   4.398   0.424
47441SOL    HW244221  14.744   4.440   0.507
47442SOL     OW44222   6.569  14.373   4.424
47442SOL    HW144223   6.530  14.460   4.435
47442SOL    HW244224   6.651  14.377   4.473
47443SOL     OW44225  14.591   0.683   5.841
47443SOL    HW144226  14.628   0.663   5.927
47443SOL    HW244227  14.559   0.599   5.809
47444SOL     OW44228   9.451  11.090  11.045
47444SOL    HW144229   9.406  11.039  10.977
47444SOL    HW244230   9.485  11.166  10.998
47445SOL     OW44231  12.327   5.681  14.876
47445SOL    HW144232  12.259   5.690  14.810
47445SOL    HW244233  12.383   5.758  14.863
47446SOL     OW44234   6.047   2.568  14.057
47446SOL    HW144235   6.053   2.640  14.120
47446SOL    HW244236   6.138   2.552  14.030
47447SOL     OW44237   7.733   4.217   0.258
47447SOL    HW144238   7.666   4.221   0.326
47447SOL    HW244239   7.686   4.231   0.176
47448SOL     OW44240   2.386   5.930   6.289
47448SOL    HW144241   2.342   5.861   6.239
47448SOL    HW244242   2.479   5.917   6.272
47449SOL     OW44243   4.534   0.999   2.947
47449SOL    HW144244   4.452   1.047   2.957
47449SOL    HW244245   4.566   1.024   2.860
47450SOL     OW44246   9.462   5.016   4.844
47450SOL    HW144247   9.369   5.031   4.823
47450SOL    HW244248   9.491   4.950   4.783
47451SOL     OW44249   9.548   8.221   4.880
47451SOL    HW144250   9.500   8.302   4.899
47451SOL    HW244251   9.541   8.212   4.785
47452SOL     OW44252  11.877   8.635  13.125
47452SOL    HW144253  11.789   8.628  13.162
47452SOL    HW244254  11.880   8.568  13.057
47453SOL     OW44255   9.640  10.415   1.400
47453SOL    HW144256   9.679  10.414   1.313
47453SOL    HW244257   9.672  10.497   1.439
47454SOL     OW44258  10.785   4.900   1.249
47454SOL    HW144259  10.856   4.936   1.195
47454SOL    HW244260  10.723   4.864   1.185
47455SOL     OW44261   2.585   2.853   9.025
47455SOL    HW144262   2.490   2.854   9.038
47455SOL    HW244263   2.618   2.918   9.087
47456SOL     OW44264   2.731   3.787   7.956
47456SOL    HW144265   2.789   3.776   8.031
47456SOL    HW244266   2.741   3.878   7.930
47457SOL     OW44267  10.408  10.017   4.065
47457SOL    HW144268  10.316   9.990   4.065
47457SOL    HW244269  10.455   9.944   4.026
47458SOL     OW44270  12.677   9.557   8.706
47458SOL    HW144271  12.606   9.568   8.643
47458SOL    HW244272  12.682   9.641   8.752
47459SOL     OW44273   4.901   8.375  13.349
47459SOL    HW144274   4.927   8.380  13.441
47459SOL    HW244275   4.859   8.460  13.332
47460SOL     OW44276  14.461   0.003   9.210
47460SOL    HW144277  14.506   0.056   9.276
47460SOL    HW244278  14.530  14.832   9.170
47461SOL     OW44279  11.359   6.208   9.221
47461SOL    HW144280  11.424   6.138   9.230
47461SOL    HW244281  11.396   6.281   9.271
47462SOL     OW44282   4.319   7.107  14.750
47462SOL    HW144283   4.414   7.115  14.756
47462SOL    HW244284   4.287   7.128  14.837
47463SOL     OW44285   0.352   7.190   8.805
47463SOL    HW144286   0.412   7.236   8.863
47463SOL    HW244287   0.304   7.260   8.760
47464SOL     OW44288  12.295  14.430   5.899
47464SOL    HW144289  12.370  14.386   5.940
47464SOL    HW244290  12.225  14.423   5.964
47465SOL     OW44291   0.729   2.210   2.537
47465SOL    HW144292   0.720   2.168   2.452
47465SOL    HW244293   0.768   2.295   2.518
47466SOL     OW44294   1.542   6.234   1.317
47466SOL    HW144295   1.590   6.209   1.395
47466SOL    HW244296   1.497   6.154   1.290
47467SOL     OW44297  13.198  14.453   7.359
47467SOL    HW144298  13.251  14.469   7.281
47467SOL    HW244299  13.151  14.372   7.340
47468SOL     OW44300   3.360   0.791  11.964
47468SOL    HW144301   3.365   0.773  12.057
47468SOL    HW244302   3.451   0.801  11.936
47469SOL     OW44303  11.038  10.332   2.503
47469SOL    HW144304  11.003  10.246   2.527
47469SOL    HW244305  10.975  10.394   2.540
47470SOL     OW44306   2.810   0.320   6.960
47470SOL    HW144307   2.883   0.258   6.960
47470SOL    HW244308   2.835   0.386   7.024
47471SOL     OW44309   6.881  13.261  14.230
47471SOL    HW144310   6.815  13.320  14.193
47471SOL    HW244311   6.939  13.318  14.280
47472SOL     OW44312   4.926  11.564  12.692
47472SOL    HW144313   4.882  11.536  12.773
47472SOL    HW244314   4.995  11.499  12.679
47473SOL     OW44315   2.028   2.505   4.646
47473SOL    HW144316   1.971   2.503   4.723
47473SOL    HW244317   2.094   2.439   4.663
47474SOL     OW44318   0.607   0.475  11.543
47474SOL    HW144319   0.628   0.385  11.567
47474SOL    HW244320   0.686   0.525  11.563
47475SOL     OW44321   8.684  12.688  10.554
47475SOL    HW144322   8.731  12.715  10.476
47475SOL    HW244323   8.709  12.596  10.566
47476SOL     OW44324   2.813  10.418   2.210
47476SOL    HW144325   2.848  10.421   2.299
47476SOL    HW244326   2.775  10.330   2.202
47477SOL     OW44327  14.247   6.422   4.674
47477SOL    HW144328  14.259   6.462   4.588
47477SOL    HW244329  14.169   6.367   4.664
47478SOL     OW44330   3.300   5.348  14.026
47478SOL    HW144331   3.341   5.268  13.995
47478SOL    HW244332   3.234   5.318  14.089
47479SOL     OW44333   9.072  10.291   8.256
47479SOL    HW144334   9.088  10.257   8.343
47479SOL    HW244335   8.977  10.305   8.253
47480SOL     OW44336  14.754   2.587  11.739
47480SOL    HW144337  14.663   2.576  11.766
47480SOL    HW244338  14.764   2.529  11.664
47481SOL     OW44339   2.699   0.066  12.441
47481SOL    HW144340   2.783   0.111  12.448
47481SOL    HW244341   2.680   0.037  12.530
47482SOL     OW44342  14.381   3.608  11.378
47482SOL    HW144343  14.466   3.566  11.362
47482SOL    HW244344  14.356   3.644  11.293
47483SOL     OW44345   0.205  12.399  14.866
47483SOL    HW144346   0.128  12.417   0.038
47483SOL    HW244347   0.280  12.426   0.038
47484SOL     OW44348   8.313   1.641   3.264
47484SOL    HW144349   8.274   1.718   3.306
47484SOL    HW244350   8.335   1.671   3.176
47485SOL     OW44351   5.880  10.338   7.390
47485SOL    HW144352   5.886  10.309   7.481
47485SOL    HW244353   5.832  10.421   7.394
47486SOL     OW44354   0.514  13.593   0.461
47486SOL    HW144355   0.442  13.621   0.404
47486SOL    HW244356   0.544  13.674   0.503
47487SOL     OW44357   0.822   3.675  14.760
47487SOL    HW144358   0.797   3.731  14.834
47487SOL    HW244359   0.764   3.703  14.688
47488SOL     OW44360   5.267  13.937   6.498
47488SOL    HW144361   5.191  13.959   6.443
47488SOL    HW244362   5.275  13.842   6.492
47489SOL     OW44363  12.804  12.743   2.045
47489SOL    HW144364  12.815  12.702   2.131
47489SOL    HW244365  12.743  12.684   2.000
47490SOL     OW44366  14.260   3.648  14.126
47490SOL    HW144367  14.229   3.719  14.182
47490SOL    HW244368  14.181   3.600  14.102
47491SOL     OW44369   8.464   6.870  12.916
47491SOL    HW144370   8.430   6.876  12.827
47491SOL    HW244371   8.546   6.921  12.914
47492SOL     OW44372   1.629   3.341   6.383
47492SOL    HW144373   1.561   3.358   6.448
47492SOL    HW244374   1.703   3.394   6.410
47493SOL     OW44375   3.773   3.153  11.817
47493SOL    HW144376   3.854   3.112  11.787
47493SOL    HW244377   3.706   3.086  11.801
47494SOL     OW44378   3.158   5.875   7.062
47494SOL    HW144379   3.085   5.818   7.037
47494SOL    HW244380   3.125   5.926   7.135
47495SOL     OW44381   3.321   1.680   4.731
47495SOL    HW144382   3.364   1.653   4.812
47495SOL    HW244383   3.343   1.773   4.723
47496SOL     OW44384   7.345   9.126  14.083
47496SOL    HW144385   7.418   9.151  14.139
47496SOL    HW244386   7.268   9.129  14.140
47497SOL     OW44387   5.128  14.284  10.950
47497SOL    HW144388   5.085  14.209  10.908
47497SOL    HW244389   5.138  14.257  11.042
47498SOL     OW44390   2.505  10.157  10.888
47498SOL    HW144391   2.491  10.137  10.981
47498SOL    HW244392   2.465  10.083  10.842
47499SOL     OW44393   5.169  12.944  10.252
47499SOL    HW144394   5.080  12.977  10.237
47499SOL    HW244395   5.161  12.886  10.327
47500SOL     OW44396   7.414   1.165   5.861
47500SOL    HW144397   7.381   1.107   5.929
47500SOL    HW244398   7.421   1.110   5.783
47501SOL     OW44399   1.217   2.599   4.773
47501SOL    HW144400   1.156   2.564   4.709
47501SOL    HW244401   1.301   2.560   4.750
47502SOL     OW44402   1.685   7.524   6.064
47502SOL    HW144403   1.654   7.561   5.982
47502SOL    HW244404   1.779   7.536   6.062
47503SOL     OW44405   4.317  11.162   6.172
47503SOL    HW144406   4.331  11.134   6.262
47503SOL    HW244407   4.367  11.100   6.119
47504SOL     OW44408   2.689   8.136   0.116
47504SOL    HW144409   2.701   8.122   0.210
47504SOL    HW244410   2.762   8.192   0.091
47505SOL     OW44411  14.201   7.475   3.286
47505SOL    HW144412  14.133   7.419   3.325
47505SOL    HW244413  14.226   7.429   3.205
47506SOL     OW44414   0.099   0.668  14.306
47506SOL    HW144415   0.056   0.726  14.243
47506SOL    HW244416   0.034   0.655  14.375
47507SOL     OW44417   1.521   4.444   5.422
47507SOL    HW144418   1.439   4.479   5.386
47507SOL    HW244419   1.494   4.396   5.501
47508SOL     OW44420  13.301  11.686   2.114
47508SOL    HW144421  13.389  11.723   2.115
47508SOL    HW244422  13.249  11.747   2.062
47509SOL     OW44423   9.853   4.304  14.196
47509SOL    HW144424   9.917   4.328  14.128
47509SOL    HW244425   9.774   4.353  14.172
47510SOL     OW44426   8.295   2.443   2.491
47510SOL    HW144427   8.329   2.354   2.477
47510SOL    HW244428   8.350   2.498   2.435
47511SOL     OW44429   7.621   3.868   4.633
47511SOL    HW144430   7.595   3.952   4.596
47511SOL    HW244431   7.626   3.809   4.557
47512SOL     OW44432   7.623   4.866  11.821
47512SOL    HW144433   7.586   4.818  11.747
47512SOL    HW244434   7.680   4.803  11.865
47513SOL     OW44435  11.643   0.775  12.770
47513SOL    HW144436  11.573   0.798  12.831
47513SOL    HW244437  11.634   0.838  12.698
47514SOL     OW44438  14.044  10.345   7.177
47514SOL    HW144439  14.074  10.360   7.087
47514SOL    HW244440  14.045  10.431   7.218
47515SOL     OW44441   5.816  12.834   0.747
47515SOL    HW144442   5.732  12.877   0.761
47515SOL    HW244443   5.876  12.906   0.727
47516SOL     OW44444   8.459   5.337   8.725
47516SOL    HW144445   8.423   5.250   8.711
47516SOL    HW244446   8.553   5.323   8.733
47517SOL     OW44447   1.603   6.763  11.895
47517SOL    HW144448   1.629   6.741  11.806
47517SOL    HW244449   1.507   6.762  11.893
47518SOL     OW44450   7.405   3.340   0.355
47518SOL    HW144451   7.492   3.303   0.338
47518SOL    HW244452   7.394   3.333   0.450
47519SOL     OW44453   8.296   2.681  14.766
47519SOL    HW144454   8.219   2.738  14.774
47519SOL    HW244455   8.333   2.702  14.681
47520SOL     OW44456   7.247   3.712   8.341
47520SOL    HW144457   7.327   3.689   8.293
47520SOL    HW244458   7.190   3.750   8.274
47521SOL     OW44459   0.194   3.769   5.853
47521SOL    HW144460   0.107   3.810   5.858
47521SOL    HW244461   0.214   3.746   5.944
47522SOL     OW44462   8.750   7.638   7.689
47522SOL    HW144463   8.819   7.588   7.645
47522SOL    HW244464   8.797   7.690   7.754
47523SOL     OW44465  10.261   7.110   1.522
47523SOL    HW144466  10.170   7.106   1.491
47523SOL    HW244467  10.313   7.096   1.443
47524SOL     OW44468   4.706   8.919   2.881
47524SOL    HW144469   4.763   8.955   2.949
47524SOL    HW244470   4.766   8.871   2.823
47525SOL     OW44471  11.813  12.031  12.456
47525SOL    HW144472  11.892  11.981  12.436
47525SOL    HW244473  11.845  12.109  12.501
47526SOL     OW44474   6.720   7.568  13.381
47526SOL    HW144475   6.709   7.652  13.424
47526SOL    HW244476   6.785   7.585  13.313
47527SOL     OW44477   1.372   6.965   8.293
47527SOL    HW144478   1.297   6.909   8.271
47527SOL    HW244479   1.445   6.905   8.303
47528SOL     OW44480  13.368   0.190   4.039
47528SOL    HW144481  13.324   0.273   4.022
47528SOL    HW244482  13.457   0.203   4.008
47529SOL     OW44483   2.280   4.212   0.985
47529SOL    HW144484   2.250   4.122   0.977
47529SOL    HW244485   2.206   4.264   0.952
47530SOL     OW44486   6.080   6.781   4.488
47530SOL    HW144487   5.996   6.802   4.448
47530SOL    HW244488   6.135   6.752   4.415
47531SOL     OW44489  12.131  12.025  11.885
47531SOL    HW144490  12.150  11.944  11.838
47531SOL    HW244491  12.170  12.094  11.830
47532SOL     OW44492  11.444   5.944  13.962
47532SOL    HW144493  11.470   5.854  13.983
47532SOL    HW244494  11.370   5.934  13.903
47533SOL     OW44495   4.518   6.604   6.860
47533SOL    HW144496   4.607   6.640   6.854
47533SOL    HW244497   4.505   6.586   6.953
47534SOL     OW44498   7.925  14.689   8.249
47534SOL    HW144499   7.908  14.781   8.269
47534SOL    HW244500   8.012  14.672   8.285
47535SOL     OW44501   2.941   3.301   5.566
47535SOL    HW144502   2.873   3.361   5.594
47535SOL    HW244503   2.942   3.233   5.634
47536SOL     OW44504   6.625  14.848  14.559
47536SOL    HW144505   6.603  14.755  14.566
47536SOL    HW244506   6.713  14.849  14.520
47537SOL     OW44507   1.124   0.594  13.457
47537SOL    HW144508   1.059   0.573  13.524
47537SOL    HW244509   1.074   0.600  13.375
47538SOL     OW44510   6.206   7.723   5.857
47538SOL    HW144511   6.113   7.737   5.839
47538SOL    HW244512   6.247   7.807   5.835
47539SOL     OW44513   4.069  10.899   2.737
47539SOL    HW144514   4.027  10.964   2.794
47539SOL    HW244515   4.155  10.936   2.718
47540SOL     OW44516   7.136   7.077  14.664
47540SOL    HW144517   7.172   7.158  14.628
47540SOL    HW244518   7.155   7.010  14.598
47541SOL     OW44519  10.232  14.139  13.556
47541SOL    HW144520  10.270  14.122  13.470
47541SOL    HW244521  10.306  14.137  13.616
47542SOL     OW44522   0.890   9.533   1.207
47542SOL    HW144523   0.840   9.512   1.286
47542SOL    HW244524   0.975   9.563   1.239
47543SOL     OW44525   2.768  14.470   4.229
47543SOL    HW144526   2.850  14.453   4.275
47543SOL    HW244527   2.738  14.384   4.201
47544SOL     OW44528   9.768   2.383   2.134
47544SOL    HW144529   9.832   2.454   2.130
47544SOL    HW244530   9.821   2.305   2.153
47545SOL     OW44531   2.022   3.971   6.771
47545SOL    HW144532   1.968   3.993   6.847
47545SOL    HW244533   2.071   3.894   6.797
47546SOL     OW44534   4.141   7.321  12.194
47546SOL    HW144535   4.208   7.386  12.171
47546SOL    HW244536   4.093   7.308  12.112
47547SOL     OW44537   3.923  12.415   8.824
47547SOL    HW144538   3.870  12.383   8.751
47547SOL    HW244539   3.989  12.471   8.784
47548SOL     OW44540   5.563  14.131  14.369
47548SOL    HW144541   5.587  14.077  14.443
47548SOL    HW244542   5.591  14.219  14.393
47549SOL     OW44543  14.828  11.704   4.630
47549SOL    HW144544  14.805  11.752   4.551
47549SOL    HW244545  14.782  11.749   4.701
47550SOL     OW44546  14.084  10.255   4.031
47550SOL    HW144547  14.153  10.193   4.008
47550SOL    HW244548  14.005  10.221   3.988
47551SOL     OW44549   2.109  14.712   5.900
47551SOL    HW144550   2.128  14.623   5.872
47551SOL    HW244551   2.184  14.763   5.871
47552SOL     OW44552  13.413   5.259  14.602
47552SOL    HW144553  13.354   5.314  14.551
47552SOL    HW244554  13.363   5.238  14.681
47553SOL     OW44555   7.165   5.681   2.244
47553SOL    HW144556   7.194   5.688   2.153
47553SOL    HW244557   7.238   5.714   2.296
47554SOL     OW44558   5.436  14.394   9.249
47554SOL    HW144559   5.415  14.303   9.270
47554SOL    HW244560   5.520  14.410   9.293
47555SOL     OW44561  10.168   7.449   2.371
47555SOL    HW144562  10.109   7.525   2.371
47555SOL    HW244563  10.110   7.373   2.373
47556SOL     OW44564   3.960   1.492   2.154
47556SOL    HW144565   3.952   1.416   2.096
47556SOL    HW244566   3.959   1.456   2.242
47557SOL     OW44567   6.009   3.679   2.372
47557SOL    HW144568   5.979   3.744   2.435
47557SOL    HW244569   5.997   3.595   2.416
47558SOL     OW44570  11.164   1.507   4.010
47558SOL    HW144571  11.132   1.496   4.099
47558SOL    HW244572  11.255   1.535   4.020
47559SOL     OW44573   8.577  12.555   2.105
47559SOL    HW144574   8.492  12.596   2.087
47559SOL    HW244575   8.580  12.480   2.046
47560SOL     OW44576  11.912   8.151   1.240
47560SOL    HW144577  11.912   8.055   1.245
47560SOL    HW244578  11.931   8.170   1.149
47561SOL     OW44579   0.312   7.900   3.827
47561SOL    HW144580   0.355   7.982   3.804
47561SOL    HW244581   0.223   7.926   3.852
47562SOL     OW44582  13.173  10.898  11.595
47562SOL    HW144583  13.235  10.931  11.529
47562SOL    HW244584  13.175  10.803  11.585
47563SOL     OW44585  14.241   3.473  11.173
47563SOL    HW144586  14.301   3.399  11.165
47563SOL    HW244587  14.224   3.480  11.267
47564SOL     OW44588   7.733  12.029  12.384
47564SOL    HW144589   7.804  12.079  12.425
47564SOL    HW244590   7.775  11.983  12.311
47565SOL     OW44591  13.961   9.903   7.265
47565SOL    HW144592  13.917   9.923   7.183
47565SOL    HW244593  13.929   9.816   7.289
47566SOL     OW44594  14.654  14.206   9.739
47566SOL    HW144595  14.623  14.263   9.668
47566SOL    HW244596  14.723  14.153   9.699
47567SOL     OW44597   8.107  14.347   5.430
47567SOL    HW144598   8.101  14.251   5.430
47567SOL    HW244599   8.079  14.372   5.342
47568SOL     OW44600   5.597  12.585   5.903
47568SOL    HW144601   5.502  12.586   5.911
47568SOL    HW244602   5.623  12.677   5.904
47569SOL     OW44603   0.982  11.205   6.754
47569SOL    HW144604   0.921  11.243   6.691
47569SOL    HW244605   0.980  11.111   6.736
47570SOL     OW44606  11.589  14.108   7.660
47570SOL    HW144607  11.602  14.031   7.714
47570SOL    HW244608  11.600  14.182   7.720
47571SOL     OW44609   4.366  10.154   6.054
47571SOL    HW144610   4.346  10.190   5.968
47571SOL    HW244611   4.460  10.168   6.065
47572SOL     OW44612   9.897  11.205  11.322
47572SOL    HW144613   9.979  11.206  11.273
47572SOL    HW244614   9.920  11.238  11.409
47573SOL     OW44615  12.690  14.137   5.267
47573SOL    HW144616  12.623  14.144   5.199
47573SOL    HW244617  12.760  14.086   5.226
47574SOL     OW44618  10.962   1.903   2.317
47574SOL    HW144619  11.000   1.989   2.337
47574SOL    HW244620  10.868   1.914   2.331
47575SOL     OW44621   9.220   8.088   9.566
47575SOL    HW144622   9.223   7.997   9.595
47575SOL    HW244623   9.264   8.137   9.635
47576SOL     OW44624  11.546   3.736  11.295
47576SOL    HW144625  11.524   3.796  11.366
47576SOL    HW244626  11.638   3.714  11.311
47577SOL     OW44627   9.747  12.417   7.936
47577SOL    HW144628   9.835  12.386   7.912
47577SOL    HW244629   9.726  12.368   8.016
47578SOL     OW44630  10.967  13.592  10.855
47578SOL    HW144631  10.920  13.551  10.782
47578SOL    HW244632  11.059  13.589  10.828
47579SOL     OW44633   2.474   0.884   6.851
47579SOL    HW144634   2.535   0.920   6.786
47579SOL    HW244635   2.387   0.904   6.816
47580SOL     OW44636   0.176  14.229   1.805
47580SOL    HW144637   0.120  14.178   1.747
47580SOL    HW244638   0.173  14.318   1.769
47581SOL     OW44639   0.375   3.817  11.674
47581SOL    HW144640   0.314   3.785  11.741
47581SOL    HW244641   0.440   3.747  11.666
47582SOL     OW44642   0.095   9.623   0.114
47582SOL    HW144643   0.104   9.597   0.205
47582SOL    HW244644   0.140   9.555   0.065
47583SOL     OW44645   9.538   2.852   3.282
47583SOL    HW144646   9.588   2.912   3.338
47583SOL    HW244647   9.588   2.770   3.285
47584SOL     OW44648  11.408   0.826   0.696
47584SOL    HW144649  11.321   0.831   0.736
47584SOL    HW244650  11.391   0.799   0.606
47585SOL     OW44651   9.546   8.037   9.636
47585SOL    HW144652   9.552   8.062   9.544
47585SOL    HW244653   9.495   8.107   9.677
47586SOL     OW44654   4.053   5.359   7.104
47586SOL    HW144655   3.979   5.383   7.048
47586SOL    HW244656   4.109   5.305   7.048
47587SOL     OW44657  11.782   6.746   1.821
47587SOL    HW144658  11.758   6.794   1.742
47587SOL    HW244659  11.877   6.739   1.817
47588SOL     OW44660   9.672  11.903  13.811
47588SOL    HW144661   9.654  11.969  13.744
47588SOL    HW244662   9.716  11.832  13.764
47589SOL     OW44663   6.144   6.688   8.427
47589SOL    HW144664   6.222   6.697   8.481
47589SOL    HW244665   6.071   6.706   8.486
47590SOL     OW44666  12.666   8.118   8.772
47590SOL    HW144667  12.589   8.156   8.729
47590SOL    HW244668  12.637   8.099   8.861
47591SOL     OW44669   6.541   1.843   1.005
47591SOL    HW144670   6.605   1.826   1.074
47591SOL    HW244671   6.521   1.757   0.969
47592SOL     OW44672   7.225   5.144   7.263
47592SOL    HW144673   7.264   5.221   7.303
47592SOL    HW244674   7.261   5.070   7.313
47593SOL     OW44675   0.357   7.215   0.829
47593SOL    HW144676   0.399   7.245   0.910
47593SOL    HW244677   0.392   7.127   0.815
47594SOL     OW44678   7.709  11.533  14.304
47594SOL    HW144679   7.783  11.574  14.258
47594SOL    HW244680   7.681  11.599  14.367
47595SOL     OW44681  10.642   4.989   3.129
47595SOL    HW144682  10.732   4.957   3.122
47595SOL    HW244683  10.641   5.071   3.080
47596SOL     OW44684  12.698   6.325  14.441
47596SOL    HW144685  12.714   6.395  14.378
47596SOL    HW244686  12.688   6.247  14.386
47597SOL     OW44687   4.825   2.039  11.074
47597SOL    HW144688   4.860   2.128  11.083
47597SOL    HW244689   4.740   2.051  11.032
47598SOL     OW44690  13.212   5.430   4.794
47598SOL    HW144691  13.262   5.353   4.823
47598SOL    HW244692  13.150   5.446   4.865
47599SOL     OW44693   7.783   0.801   3.227
47599SOL    HW144694   7.821   0.857   3.294
47599SOL    HW244695   7.854   0.742   3.202
47600SOL     OW44696  13.310   7.576  10.974
47600SOL    HW144697  13.219   7.589  10.948
47600SOL    HW244698  13.333   7.657  11.021
47601SOL     OW44699   6.000   5.343   4.824
47601SOL    HW144700   6.085   5.373   4.854
47601SOL    HW244701   5.959   5.304   4.901
47602SOL     OW44702  10.208  10.561  13.398
47602SOL    HW144703  10.123  10.549  13.356
47602SOL    HW244704  10.265  10.497  13.356
47603SOL     OW44705   1.830  14.669   5.790
47603SOL    HW144706   1.795  14.757   5.801
47603SOL    HW244707   1.909  14.681   5.737
47604SOL     OW44708   9.114   4.499   3.077
47604SOL    HW144709   9.020   4.511   3.066
47604SOL    HW244710   9.152   4.586   3.064
47605SOL     OW44711   7.839   2.104   2.033
47605SOL    HW144712   7.856   2.026   2.088
47605SOL    HW244713   7.854   2.074   1.944
47606SOL     OW44714  10.119   8.694  10.591
47606SOL    HW144715  10.107   8.775  10.640
47606SOL    HW244716  10.034   8.678  10.549
47607SOL     OW44717   1.640   1.124   4.608
47607SOL    HW144718   1.571   1.183   4.639
47607SOL    HW244719   1.593   1.047   4.576
47608SOL     OW44720  10.552   5.218   2.324
47608SOL    HW144721  10.607   5.294   2.304
47608SOL    HW244722  10.465   5.256   2.341
47609SOL     OW44723  14.295   3.435   9.001
47609SOL    HW144724  14.211   3.481   9.006
47609SOL    HW244725  14.272   3.343   9.014
47610SOL     OW44726   9.064  11.273   1.300
47610SOL    HW144727   8.990  11.232   1.345
47610SOL    HW244728   9.022  11.329   1.234
47611SOL     OW44729  13.924  10.735   0.883
47611SOL    HW144730  13.844  10.779   0.911
47611SOL    HW244731  13.971  10.718   0.965
47612SOL     OW44732  10.175   3.952   7.029
47612SOL    HW144733  10.154   4.001   6.949
47612SOL    HW244734  10.097   3.962   7.084
47613SOL     OW44735   3.857   3.697   9.164
47613SOL    HW144736   3.941   3.651   9.166
47613SOL    HW244737   3.863   3.761   9.235
47614SOL     OW44738   1.637   6.496  14.158
47614SOL    HW144739   1.600   6.424  14.210
47614SOL    HW244740   1.718   6.519  14.203
47615SOL     OW44741   1.745   1.535   7.177
47615SOL    HW144742   1.649   1.532   7.167
47615SOL    HW244743   1.772   1.608   7.120
47616SOL     OW44744   3.904   0.864   1.734
47616SOL    HW144745   3.819   0.860   1.689
47616SOL    HW244746   3.961   0.909   1.672
47617SOL     OW44747   7.904  10.456   4.670
47617SOL    HW144748   7.966  10.517   4.630
47617SOL    HW244749   7.880  10.497   4.752
47618SOL     OW44750   0.725   1.513   0.550
47618SOL    HW144751   0.655   1.520   0.614
47618SOL    HW244752   0.801   1.552   0.593
47619SOL     OW44753   4.136  14.065  14.640
47619SOL    HW144754   4.105  13.986  14.597
47619SOL    HW244755   4.231  14.059  14.637
47620SOL     OW44756   0.168   1.964   2.702
47620SOL    HW144757   0.250   1.977   2.654
47620SOL    HW244758   0.173   2.026   2.775
47621SOL     OW44759   8.987   9.891   9.217
47621SOL    HW144760   9.032   9.976   9.210
47621SOL    HW244761   9.057   9.828   9.235
47622SOL     OW44762  13.991   1.341  11.155
47622SOL    HW144763  13.901   1.313  11.172
47622SOL    HW244764  13.982   1.417  11.097
47623SOL     OW44765  12.743   4.267   0.665
47623SOL    HW144766  12.708   4.308   0.744
47623SOL    HW244767  12.742   4.336   0.599
47624SOL     OW44768   7.428  14.728  11.634
47624SOL    HW144769   7.389  14.667  11.571
47624SOL    HW244770   7.510  14.685  11.661
47625SOL     OW44771   9.329   1.350  12.105
47625SOL    HW144772   9.249   1.326  12.152
47625SOL    HW244773   9.357   1.268  12.063
47626SOL     OW44774   0.599   8.448   5.951
47626SOL    HW144775   0.586   8.494   6.033
47626SOL    HW244776   0.541   8.372   5.956
47627SOL     OW44777   6.152  12.646   2.668
47627SOL    HW144778   6.226  12.695   2.632
47627SOL    HW244779   6.079  12.708   2.665
47628SOL     OW44780   2.597   1.592  10.601
47628SOL    HW144781   2.585   1.644  10.521
47628SOL    HW244782   2.509   1.579  10.635
47629SOL     OW44783   2.297  13.691   9.962
47629SOL    HW144784   2.211  13.726   9.937
47629SOL    HW244785   2.360  13.749   9.920
47630SOL     OW44786  12.854   7.789   8.536
47630SOL    HW144787  12.942   7.754   8.549
47630SOL    HW244788  12.859   7.880   8.566
47631SOL     OW44789   7.879   6.068   2.366
47631SOL    HW144790   7.835   5.984   2.372
47631SOL    HW244791   7.968   6.052   2.398
47632SOL     OW44792   6.943   1.533  13.089
47632SOL    HW144793   6.955   1.618  13.045
47632SOL    HW244794   6.912   1.474  13.019
47633SOL     OW44795   2.815  13.159   5.342
47633SOL    HW144796   2.889  13.220   5.348
47633SOL    HW244797   2.763  13.178   5.419
47634SOL     OW44798  12.028  12.205  13.601
47634SOL    HW144799  12.025  12.278  13.663
47634SOL    HW244800  12.115  12.210  13.562
47635SOL     OW44801   5.630   3.066   4.291
47635SOL    HW144802   5.632   3.085   4.385
47635SOL    HW244803   5.565   2.996   4.281
47636SOL     OW44804   6.421   1.687   4.884
47636SOL    HW144805   6.455   1.777   4.893
47636SOL    HW244806   6.479   1.635   4.940
47637SOL     OW44807   1.281   5.822   2.279
47637SOL    HW144808   1.282   5.907   2.235
47637SOL    HW244809   1.194   5.786   2.260
47638SOL     OW44810   4.966   7.365   1.246
47638SOL    HW144811   4.949   7.355   1.152
47638SOL    HW244812   5.061   7.353   1.254
47639SOL     OW44813   1.274  12.499  14.509
47639SOL    HW144814   1.265  12.413  14.549
47639SOL    HW244815   1.260  12.560  14.582
47640SOL     OW44816   7.992  13.651  12.649
47640SOL    HW144817   7.947  13.662  12.565
47640SOL    HW244818   8.081  13.683  12.633
47641SOL     OW44819   1.187  11.846   4.908
47641SOL    HW144820   1.120  11.865   4.973
47641SOL    HW244821   1.234  11.928   4.896
47642SOL     OW44822  13.972   1.763   4.804
47642SOL    HW144823  13.885   1.779   4.768
47642SOL    HW244824  14.002   1.683   4.760
47643SOL     OW44825   0.978   0.817  11.658
47643SOL    HW144826   0.996   0.844  11.568
47643SOL    HW244827   1.060   0.775  11.687
47644SOL     OW44828   8.386  13.812  11.930
47644SOL    HW144829   8.400  13.905  11.912
47644SOL    HW244830   8.473  13.773  11.920
47645SOL     OW44831  12.954   8.072  13.153
47645SOL    HW144832  12.922   7.993  13.110
47645SOL    HW244833  13.045   8.081  13.125
47646SOL     OW44834   7.563  12.026   9.940
47646SOL    HW144835   7.484  12.003   9.891
47646SOL    HW244836   7.629  11.964   9.910
47647SOL     OW44837   2.070  10.454  13.627
47647SOL    HW144838   2.148  10.508  13.619
47647SOL    HW244839   2.027  10.459  13.542
47648SOL     OW44840  11.577   5.549  14.510
47648SOL    HW144841  11.482   5.538  14.500
47648SOL    HW244842  11.598   5.624  14.455
47649SOL     OW44843   8.946   3.212   2.013
47649SOL    HW144844   8.924   3.301   2.042
47649SOL    HW244845   9.029   3.193   2.056
47650SOL     OW44846   0.788   3.212  12.304
47650SOL    HW144847   0.777   3.279  12.371
47650SOL    HW244848   0.824   3.259  12.229
47651SOL     OW44849   8.667   6.721  13.429
47651SOL    HW144850   8.722   6.742  13.504
47651SOL    HW244851   8.711   6.647  13.387
47652SOL     OW44852   2.739   5.114   9.862
47652SOL    HW144853   2.659   5.102   9.913
47652SOL    HW244854   2.794   5.039   9.885
47653SOL     OW44855  10.059   0.363   8.618
47653SOL    HW144856   9.965   0.371   8.632
47653SOL    HW244857  10.092   0.320   8.697
47654SOL     OW44858  11.871   0.349   2.763
47654SOL    HW144859  11.833   0.436   2.759
47654SOL    HW244860  11.842   0.313   2.847
47655SOL     OW44861   3.604   1.291   8.917
47655SOL    HW144862   3.619   1.210   8.869
47655SOL    HW244863   3.670   1.291   8.987
47656SOL     OW44864   4.542  10.555  13.076
47656SOL    HW144865   4.601  10.480  13.067
47656SOL    HW244866   4.598  10.631  13.063
47657SOL     OW44867   7.611   0.817  12.029
47657SOL    HW144868   7.648   0.750  12.087
47657SOL    HW244869   7.685   0.870  12.002
47658SOL     OW44870  13.858   3.873   8.039
47658SOL    HW144871  13.900   3.788   8.029
47658SOL    HW244872  13.767   3.853   8.059
47659SOL     OW44873  12.189   6.795   8.937
47659SOL    HW144874  12.174   6.771   9.028
47659SOL    HW244875  12.206   6.889   8.939
47660SOL     OW44876   6.964  11.010  14.352
47660SOL    HW144877   6.885  10.989  14.301
47660SOL    HW244878   6.931  11.028  14.440
47661SOL     OW44879   5.437  13.384   5.216
47661SOL    HW144880   5.517  13.438   5.215
47661SOL    HW244881   5.438  13.342   5.302
47662SOL     OW44882   3.940   2.372   7.275
47662SOL    HW144883   4.025   2.356   7.315
47662SOL    HW244884   3.879   2.369   7.349
47663SOL     OW44885  12.423   9.741   5.355
47663SOL    HW144886  12.384   9.797   5.288
47663SOL    HW244887  12.487   9.688   5.307
47664SOL     OW44888   1.951   8.236   2.249
47664SOL    HW144889   1.912   8.186   2.320
47664SOL    HW244890   1.995   8.170   2.194
47665SOL     OW44891  12.617  14.616  10.228
47665SOL    HW144892  12.564  14.686  10.189
47665SOL    HW244893  12.679  14.592  10.158
47666SOL     OW44894   8.772   2.969   8.870
47666SOL    HW144895   8.743   2.950   8.781
47666SOL    HW244896   8.693   2.999   8.915
47667SOL     OW44897   6.254   1.745   0.427
47667SOL    HW144898   6.201   1.816   0.463
47667SOL    HW244899   6.340   1.757   0.467
47668SOL     OW44900  10.007   0.282   3.218
47668SOL    HW144901   9.994   0.312   3.308
47668SOL    HW244902  10.078   0.337   3.184
47669SOL     OW44903   3.001  11.547   0.729
47669SOL    HW144904   3.042  11.628   0.760
47669SOL    HW244905   3.066  11.507   0.671
47670SOL     OW44906  11.936  10.138   4.798
47670SOL    HW144907  12.007  10.085   4.762
47670SOL    HW244908  11.891  10.173   4.721
47671SOL     OW44909   2.795   8.686   5.523
47671SOL    HW144910   2.867   8.738   5.489
47671SOL    HW244911   2.838   8.623   5.582
47672SOL     OW44912   0.334   5.540   9.746
47672SOL    HW144913   0.371   5.625   9.770
47672SOL    HW244914   0.344   5.536   9.651
47673SOL     OW44915  10.534  10.565   7.697
47673SOL    HW144916  10.593  10.499   7.659
47673SOL    HW244917  10.484  10.518   7.763
47674SOL     OW44918   7.018   9.184   8.327
47674SOL    HW144919   7.089   9.238   8.292
47674SOL    HW244920   7.061   9.124   8.388
47675SOL     OW44921   5.571   9.123   3.395
47675SOL    HW144922   5.577   9.196   3.456
47675SOL    HW244923   5.514   9.156   3.325
47676SOL     OW44924   2.584   5.681   9.261
47676SOL    HW144925   2.510   5.725   9.302
47676SOL    HW244926   2.659   5.736   9.281
47677SOL     OW44927  12.533  11.369  14.623
47677SOL    HW144928  12.474  11.339  14.554
47677SOL    HW244929  12.568  11.452  14.590
47678SOL     OW44930  14.396   0.396  10.082
47678SOL    HW144931  14.459   0.349  10.028
47678SOL    HW244932  14.314   0.392  10.034
47679SOL     OW44933   0.357  10.537   2.649
47679SOL    HW144934   0.423  10.469   2.635
47679SOL    HW244935   0.407  10.618   2.655
47680SOL     OW44936   0.045   9.345   4.467
47680SOL    HW144937   0.129   9.363   4.509
47680SOL    HW244938   0.030   9.419   4.409
47681SOL     OW44939   6.256  12.341  14.612
47681SOL    HW144940   6.342  12.379  14.629
47681SOL    HW244941   6.233  12.373  14.525
47682SOL     OW44942   3.138  14.471   0.357
47682SOL    HW144943   3.114  14.557   0.320
47682SOL    HW244944   3.207  14.491   0.420
47683SOL     OW44945  12.130   3.251   3.429
47683SOL    HW144946  12.195   3.294   3.373
47683SOL    HW244947  12.147   3.286   3.516
47684SOL     OW44948   2.446  10.201  10.335
47684SOL    HW144949   2.359  10.186  10.372
47684SOL    HW244950   2.453  10.138  10.263
47685SOL     OW44951   8.296  11.787  11.212
47685SOL    HW144952   8.351  11.787  11.133
47685SOL    HW244953   8.223  11.729  11.189
47686SOL     OW44954   8.985   0.926   2.274
47686SOL    HW144955   8.938   0.844   2.258
47686SOL    HW244956   8.916   0.988   2.300
47687SOL     OW44957  13.426   3.182  11.660
47687SOL    HW144958  13.411   3.123  11.734
47687SOL    HW244959  13.481   3.131  11.600
47688SOL     OW44960   3.188   2.466   0.681
47688SOL    HW144961   3.174   2.379   0.645
47688SOL    HW244962   3.238   2.452   0.762
47689SOL     OW44963   2.577  10.781   4.805
47689SOL    HW144964   2.508  10.718   4.824
47689SOL    HW244965   2.535  10.848   4.751
47690SOL     OW44966   9.644   5.661   9.917
47690SOL    HW144967   9.686   5.707   9.844
47690SOL    HW244968   9.698   5.583   9.930
47691SOL     OW44969   1.196   3.846   9.765
47691SOL    HW144970   1.189   3.770   9.823
47691SOL    HW244971   1.273   3.828   9.711
47692SOL     OW44972   4.909  13.925  14.361
47692SOL    HW144973   4.829  13.872  14.364
47692SOL    HW244974   4.939  13.918  14.271
47693SOL     OW44975   0.163   4.868  13.689
47693SOL    HW144976   0.186   4.887  13.598
47693SOL    HW244977   0.180   4.950  13.735
47694SOL     OW44978   1.580   2.865   5.514
47694SOL    HW144979   1.569   2.783   5.465
47694SOL    HW244980   1.663   2.854   5.560
47695SOL     OW44981  13.690  12.585  12.939
47695SOL    HW144982  13.688  12.600  13.034
47695SOL    HW244983  13.768  12.530  12.925
47696SOL     OW44984   8.213   5.386  14.393
47696SOL    HW144985   8.285   5.325  14.383
47696SOL    HW244986   8.176   5.366  14.479
47697SOL     OW44987   0.944   8.486   2.353
47697SOL    HW144988   0.904   8.435   2.423
47697SOL    HW244989   1.024   8.523   2.391
47698SOL     OW44990  14.482   9.355   9.162
47698SOL    HW144991  14.558   9.349   9.219
47698SOL    HW244992  14.482   9.446   9.130
47699SOL     OW44993  12.894  12.166   9.220
47699SOL    HW144994  12.913  12.097   9.157
47699SOL    HW244995  12.885  12.246   9.167
47700SOL     OW44996  14.380  10.111   3.721
47700SOL    HW144997  14.466  10.077   3.697
47700SOL    HW244998  14.397  10.200   3.753
47701SOL     OW44999   5.339   6.801  10.489
47701SOL    HW145000   5.266   6.744  10.512
47701SOL    HW245001   5.417   6.748  10.503
47702SOL     OW45002   3.201   8.042  13.530
47702SOL    HW145003   3.128   8.040  13.592
47702SOL    HW245004   3.248   8.123  13.550
47703SOL     OW45005   7.061   6.681  10.985
47703SOL    HW145006   7.039   6.772  10.966
47703SOL    HW245007   6.978   6.640  11.008
47704SOL     OW45008  13.307  10.960  12.704
47704SOL    HW145009  13.325  11.010  12.624
47704SOL    HW245010  13.380  10.900  12.712
47705SOL     OW45011   1.690   5.692   2.154
47705SOL    HW145012   1.612   5.684   2.209
47705SOL    HW245013   1.710   5.602   2.127
47706SOL     OW45014   1.103  10.714   7.284
47706SOL    HW145015   1.134  10.739   7.371
47706SOL    HW245016   1.180  10.720   7.228
47707SOL     OW45017   8.036   8.843  10.856
47707SOL    HW145018   7.997   8.898  10.924
47707SOL    HW245019   7.961   8.808  10.807
47708SOL     OW45020   6.948   6.387  11.778
47708SOL    HW145021   7.032   6.379  11.732
47708SOL    HW245022   6.961   6.339  11.860
47709SOL     OW45023   1.285  14.563   5.740
47709SOL    HW145024   1.351  14.628   5.718
47709SOL    HW245025   1.302  14.542   5.832
47710SOL     OW45026   8.253   1.906  11.669
47710SOL    HW145027   8.178   1.891  11.726
47710SOL    HW245028   8.329   1.881  11.721
47711SOL     OW45029   8.194   6.209   1.791
47711SOL    HW145030   8.144   6.131   1.768
47711SOL    HW245031   8.176   6.223   1.884
47712SOL     OW45032   5.231   3.241   8.479
47712SOL    HW145033   5.150   3.279   8.511
47712SOL    HW245034   5.247   3.166   8.536
47713SOL     OW45035  11.619  13.574   9.944
47713SOL    HW145036  11.527  13.594   9.958
47713SOL    HW245037  11.664  13.658   9.956
47714SOL     OW45038   7.382   2.855   1.730
47714SOL    HW145039   7.355   2.946   1.717
47714SOL    HW245040   7.333   2.806   1.663
47715SOL     OW45041   9.729   6.502   0.965
47715SOL    HW145042   9.771   6.467   1.044
47715SOL    HW245043   9.661   6.439   0.943
47716SOL     OW45044  12.126   9.539   6.577
47716SOL    HW145045  12.049   9.542   6.520
47716SOL    HW245046  12.186   9.480   6.532
47717SOL     OW45047   7.738   0.405  14.802
47717SOL    HW145048   7.789   0.480  14.773
47717SOL    HW245049   7.665   0.401  14.740
47718SOL     OW45050  10.778   9.576   4.644
47718SOL    HW145051  10.793   9.583   4.738
47718SOL    HW245052  10.694   9.531   4.636
47719SOL     OW45053  14.238   2.300   8.327
47719SOL    HW145054  14.235   2.207   8.303
47719SOL    HW245055  14.209   2.302   8.418
47720SOL     OW45056  11.446   8.401   6.888
47720SOL    HW145057  11.515   8.466   6.878
47720SOL    HW245058  11.369   8.451   6.915
47721SOL     OW45059   5.749   0.100   9.832
47721SOL    HW145060   5.788   0.056   9.908
47721SOL    HW245061   5.823   0.137   9.785
47722SOL     OW45062  10.561   2.345   8.710
47722SOL    HW145063  10.469   2.352   8.736
47722SOL    HW245064  10.572   2.253   8.684
47723SOL     OW45065   1.052  10.694   9.232
47723SOL    HW145066   1.119  10.675   9.298
47723SOL    HW245067   1.083  10.651   9.152
47724SOL     OW45068  14.870   8.966   5.275
47724SOL    HW145069  14.875   8.922   5.190
47724SOL    HW245070  14.865   8.895   5.339
47725SOL     OW45071   7.414  14.450   2.899
47725SOL    HW145072   7.442  14.420   2.985
47725SOL    HW245073   7.456  14.391   2.837
47726SOL     OW45074  13.921  10.946  11.197
47726SOL    HW145075  13.995  10.976  11.250
47726SOL    HW245076  13.961  10.897  11.126
47727SOL     OW45077   9.417   8.622  12.516
47727SOL    HW145078   9.433   8.550  12.456
47727SOL    HW245079   9.393   8.696  12.460
47728SOL     OW45080   9.754  12.492   5.924
47728SOL    HW145081   9.849  12.504   5.913
47728SOL    HW245082   9.719  12.497   5.836
47729SOL     OW45083   9.041   3.785   2.683
47729SOL    HW145084   9.120   3.754   2.728
47729SOL    HW245085   9.050   3.880   2.681
47730SOL     OW45086   0.821  10.771   3.638
47730SOL    HW145087   0.734  10.790   3.603
47730SOL    HW245088   0.829  10.676   3.632
47731SOL     OW45089   4.847   2.857   8.171
47731SOL    HW145090   4.814   2.810   8.095
47731SOL    HW245091   4.820   2.947   8.157
47732SOL     OW45092   8.071  10.300  13.920
47732SOL    HW145093   8.023  10.227  13.882
47732SOL    HW245094   8.009  10.373  13.918
47733SOL     OW45095   2.607   9.095   6.857
47733SOL    HW145096   2.569   9.138   6.781
47733SOL    HW245097   2.653   9.165   6.904
47734SOL     OW45098  14.285   6.697   8.729
47734SOL    HW145099  14.191   6.677   8.730
47734SOL    HW245100  14.290   6.787   8.697
47735SOL     OW45101   7.735   7.906   4.522
47735SOL    HW145102   7.809   7.932   4.468
47735SOL    HW245103   7.675   7.980   4.518
47736SOL     OW45104   7.629  14.021   0.520
47736SOL    HW145105   7.539  14.021   0.486
47736SOL    HW245106   7.667  14.102   0.485
47737SOL     OW45107   3.909   4.740   1.787
47737SOL    HW145108   3.915   4.712   1.878
47737SOL    HW245109   3.837   4.689   1.751
47738SOL     OW45110   7.595   5.086  14.487
47738SOL    HW145111   7.546   5.126  14.416
47738SOL    HW245112   7.635   5.159  14.533
47739SOL     OW45113   3.028   0.155   9.458
47739SOL    HW145114   2.986   0.241   9.453
47739SOL    HW245115   2.987   0.113   9.534
47740SOL     OW45116   1.982   8.089   3.020
47740SOL    HW145117   1.987   8.036   2.941
47740SOL    HW245118   2.019   8.173   2.995
47741SOL     OW45119   6.735  13.146   2.251
47741SOL    HW145120   6.730  13.155   2.346
47741SOL    HW245121   6.811  13.090   2.237
47742SOL     OW45122   4.239  14.674   4.533
47742SOL    HW145123   4.287  14.613   4.589
47742SOL    HW245124   4.226  14.627   4.451
47743SOL     OW45125   6.833  12.540   9.953
47743SOL    HW145126   6.788  12.607   9.901
47743SOL    HW245127   6.800  12.457   9.920
47744SOL     OW45128   3.916   8.626   5.765
47744SOL    HW145129   3.841   8.661   5.716
47744SOL    HW245130   3.982   8.695   5.758
47745SOL     OW45131   7.987  13.677   8.399
47745SOL    HW145132   7.918  13.729   8.357
47745SOL    HW245133   7.940  13.618   8.458
47746SOL     OW45134  14.537   9.489   0.704
47746SOL    HW145135  14.452   9.504   0.662
47746SOL    HW245136  14.572   9.412   0.659
47747SOL     OW45137  14.849   0.509   5.303
47747SOL    HW145138  14.770   0.485   5.255
47747SOL    HW245139   0.030   0.440   5.282
47748SOL     OW45140   5.131   7.508  13.616
47748SOL    HW145141   5.174   7.568  13.678
47748SOL    HW245142   5.200   7.487  13.553
47749SOL     OW45143   1.101   2.748   5.640
47749SOL    HW145144   1.014   2.784   5.625
47749SOL    HW245145   1.139   2.803   5.709
47750SOL     OW45146   4.486   9.699  12.104
47750SOL    HW145147   4.433   9.765  12.147
47750SOL    HW245148   4.424   9.646  12.054
47751SOL     OW45149   1.246   3.984   8.259
47751SOL    HW145150   1.167   3.936   8.236
47751SOL    HW245151   1.216   4.055   8.315
47752SOL     OW45152  10.824   2.569   0.779
47752SOL    HW145153  10.858   2.619   0.852
47752SOL    HW245154  10.897   2.513   0.752
47753SOL     OW45155  10.359   1.189   7.460
47753SOL    HW145156  10.417   1.118   7.434
47753SOL    HW245157  10.412   1.243   7.520
47754SOL     OW45158   0.042   1.305  11.078
47754SOL    HW145159   0.001   1.290  10.993
47754SOL    HW245160  14.851   1.315  11.139
47755SOL     OW45161  13.043   8.268   1.057
47755SOL    HW145162  12.959   8.267   1.102
47755SOL    HW245163  13.107   8.283   1.126
47756SOL     OW45164   9.891   1.192  11.187
47756SOL    HW145165   9.914   1.282  11.164
47756SOL    HW245166   9.960   1.139  11.147
47757SOL     OW45167   6.803   9.787   9.452
47757SOL    HW145168   6.757   9.867   9.426
47757SOL    HW245169   6.887   9.817   9.487
47758SOL     OW45170   7.553  11.402   7.878
47758SOL    HW145171   7.552  11.322   7.824
47758SOL    HW245172   7.646  11.417   7.896
47759SOL     OW45173   1.385   7.854   1.987
47759SOL    HW145174   1.298   7.888   1.963
47759SOL    HW245175   1.366   7.773   2.035
47760SOL     OW45176  11.949  11.088  13.446
47760SOL    HW145177  11.918  11.170  13.482
47760SOL    HW245178  11.938  11.025  13.517
47761SOL     OW45179   0.798   7.845   7.277
47761SOL    HW145180   0.782   7.817   7.367
47761SOL    HW245181   0.867   7.911   7.284
47762SOL     OW45182  11.905  12.119  13.979
47762SOL    HW145183  11.859  12.036  13.969
47762SOL    HW245184  11.978  12.114  13.916
47763SOL     OW45185   2.980   4.881   5.711
47763SOL    HW145186   3.040   4.823   5.665
47763SOL    HW245187   2.912   4.823   5.746
47764SOL     OW45188   1.816   0.824   7.679
47764SOL    HW145189   1.791   0.916   7.687
47764SOL    HW245190   1.747   0.785   7.624
47765SOL     OW45191   7.584  13.009   2.483
47765SOL    HW145192   7.540  12.952   2.420
47765SOL    HW245193   7.528  13.086   2.489
47766SOL     OW45194   8.296   1.768   6.624
47766SOL    HW145195   8.277   1.780   6.532
47766SOL    HW245196   8.216   1.793   6.670
47767SOL     OW45197  11.276  12.977  11.850
47767SOL    HW145198  11.279  12.912  11.920
47767SOL    HW245199  11.368  13.002  11.837
47768SOL     OW45200   4.238   9.855   4.002
47768SOL    HW145201   4.215   9.941   4.038
47768SOL    HW245202   4.310   9.825   4.057
47769SOL     OW45203  14.611   3.631   9.088
47769SOL    HW145204  14.692   3.637   9.036
47769SOL    HW245205  14.622   3.698   9.156
47770SOL     OW45206   6.376  13.236  13.747
47770SOL    HW145207   6.295  13.221  13.698
47770SOL    HW245208   6.422  13.304  13.698
47771SOL     OW45209   4.166  10.411   6.869
47771SOL    HW145210   4.095  10.382   6.926
47771SOL    HW245211   4.199  10.491   6.909
47772SOL     OW45212   8.556  10.444   7.993
47772SOL    HW145213   8.633  10.448   7.936
47772SOL    HW245214   8.564  10.519   8.051
47773SOL     OW45215  10.646   7.936  13.297
47773SOL    HW145216  10.730   7.983  13.304
47773SOL    HW245217  10.659   7.876  13.224
47774SOL     OW45218  11.210   6.655  10.631
47774SOL    HW145219  11.139   6.634  10.570
47774SOL    HW245220  11.219   6.750  10.626
47775SOL     OW45221  14.561   7.382   5.284
47775SOL    HW145222  14.522   7.297   5.264
47775SOL    HW245223  14.636   7.362   5.341
47776SOL     OW45224   7.076   4.695  10.535
47776SOL    HW145225   7.076   4.641  10.615
47776SOL    HW245226   6.985   4.695  10.506
47777SOL     OW45227   7.045   9.078  14.847
47777SOL    HW145228   6.986   9.025  14.793
47777SOL    HW245229   7.047   9.033   0.049
47778SOL     OW45230   0.991   8.328   3.050
47778SOL    HW145231   1.077   8.336   3.090
47778SOL    HW245232   1.006   8.338   2.956
47779SOL     OW45233   7.827   7.564   0.772
47779SOL    HW145234   7.736   7.547   0.799
47779SOL    HW245235   7.840   7.657   0.793
47780SOL     OW45236   5.204   2.045   4.952
47780SOL    HW145237   5.272   2.023   4.888
47780SOL    HW245238   5.183   2.137   4.935
47781SOL     OW45239   4.487   6.397  14.189
47781SOL    HW145240   4.419   6.406  14.122
47781SOL    HW245241   4.531   6.482  14.190
47782SOL     OW45242   4.312   8.532   5.354
47782SOL    HW145243   4.374   8.575   5.413
47782SOL    HW245244   4.236   8.591   5.353
47783SOL     OW45245  13.584  11.357   5.344
47783SOL    HW145246  13.646  11.358   5.417
47783SOL    HW245247  13.554  11.266   5.340
47784SOL     OW45248   0.590   7.702  10.168
47784SOL    HW145249   0.558   7.779  10.120
47784SOL    HW245250   0.632   7.648  10.101
47785SOL     OW45251   1.816   3.756   1.860
47785SOL    HW145252   1.825   3.766   1.765
47785SOL    HW245253   1.781   3.668   1.871
47786SOL     OW45254  13.521   2.990   3.805
47786SOL    HW145255  13.538   2.968   3.896
47786SOL    HW245256  13.486   2.910   3.766
47787SOL     OW45257  12.586  13.837   2.291
47787SOL    HW145258  12.648  13.830   2.218
47787SOL    HW245259  12.564  13.747   2.313
47788SOL     OW45260  11.621  14.296   8.348
47788SOL    HW145261  11.630  14.387   8.375
47788SOL    HW245262  11.620  14.246   8.429
47789SOL     OW45263   5.533   6.951   4.683
47789SOL    HW145264   5.582   6.978   4.605
47789SOL    HW245265   5.552   7.019   4.748
47790SOL     OW45266   2.870   7.319   5.771
47790SOL    HW145267   2.960   7.349   5.785
47790SOL    HW245268   2.864   7.306   5.676
47791SOL     OW45269  10.509   9.521  13.509
47791SOL    HW145270  10.567   9.581  13.462
47791SOL    HW245271  10.567   9.456  13.548
47792SOL     OW45272   9.964   8.463  14.332
47792SOL    HW145273   9.967   8.556  14.306
47792SOL    HW245274   9.964   8.416  14.249
47793SOL     OW45275   4.265   3.679  13.787
47793SOL    HW145276   4.200   3.708  13.851
47793SOL    HW245277   4.232   3.594  13.756
47794SOL     OW45278  12.903   4.058   3.263
47794SOL    HW145279  12.827   4.000   3.263
47794SOL    HW245280  12.953   4.030   3.186
47795SOL     OW45281  13.527   3.086   0.268
47795SOL    HW145282  13.458   3.021   0.281
47795SOL    HW245283  13.507   3.125   0.183
47796SOL     OW45284  11.752   6.617  12.916
47796SOL    HW145285  11.672   6.661  12.944
47796SOL    HW245286  11.757   6.539  12.971
47797SOL     OW45287  14.827  13.337   2.446
47797SOL    HW145288  14.761  13.281   2.406
47797SOL    HW245289  14.783  13.421   2.458
47798SOL     OW45290  12.294   6.542  12.805
47798SOL    HW145291  12.376   6.512  12.843
47798SOL    HW245292  12.305   6.531  12.711
47799SOL     OW45293   8.623   6.435   7.860
47799SOL    HW145294   8.572   6.381   7.921
47799SOL    HW245295   8.674   6.372   7.810
47800SOL     OW45296   4.558   6.933  11.191
47800SOL    HW145297   4.474   6.909  11.151
47800SOL    HW245298   4.572   7.024  11.164
47801SOL     OW45299   4.291   1.397  13.283
47801SOL    HW145300   4.327   1.483  13.258
47801SOL    HW245301   4.203   1.417  13.314
47802SOL     OW45302  13.626   8.886   1.457
47802SOL    HW145303  13.701   8.833   1.429
47802SOL    HW245304  13.651   8.976   1.435
47803SOL     OW45305   9.445   6.609   8.872
47803SOL    HW145306   9.361   6.617   8.917
47803SOL    HW245307   9.507   6.582   8.940
47804SOL     OW45308  10.369  12.042   2.852
47804SOL    HW145309  10.300  12.073   2.911
47804SOL    HW245310  10.449  12.046   2.904
47805SOL     OW45311  10.531   0.463  13.962
47805SOL    HW145312  10.585   0.384  13.964
47805SOL    HW245313  10.474   0.451  13.887
47806SOL     OW45314  13.525   4.834   6.833
47806SOL    HW145315  13.445   4.791   6.864
47806SOL    HW245316  13.541   4.903   6.897
47807SOL     OW45317   0.918   9.593   7.638
47807SOL    HW145318   0.997   9.542   7.649
47807SOL    HW245319   0.847   9.529   7.643
47808SOL     OW45320  13.834   4.328  12.150
47808SOL    HW145321  13.893   4.387  12.102
47808SOL    HW245322  13.889   4.291  12.219
47809SOL     OW45323   7.042   5.499   1.727
47809SOL    HW145324   7.032   5.459   1.814
47809SOL    HW245325   7.137   5.512   1.718
47810SOL     OW45326   7.181   8.682   9.358
47810SOL    HW145327   7.232   8.703   9.436
47810SOL    HW245328   7.105   8.740   9.362
47811SOL     OW45329   8.213   4.613   2.386
47811SOL    HW145330   8.150   4.639   2.453
47811SOL    HW245331   8.207   4.681   2.319
47812SOL     OW45332  11.788  14.777   8.654
47812SOL    HW145333  11.752  14.743   8.736
47812SOL    HW245334  11.821  14.864   8.676
47813SOL     OW45335   4.140   4.280   1.912
47813SOL    HW145336   4.188   4.324   1.842
47813SOL    HW245337   4.173   4.320   1.992
47814SOL     OW45338  12.661   4.100  12.554
47814SOL    HW145339  12.680   4.077  12.464
47814SOL    HW245340  12.745   4.093  12.599
47815SOL     OW45341   3.068   3.239   2.309
47815SOL    HW145342   3.093   3.278   2.225
47815SOL    HW245343   3.134   3.171   2.324
47816SOL     OW45344   3.507   7.821   0.310
47816SOL    HW145345   3.570   7.750   0.325
47816SOL    HW245346   3.445   7.815   0.382
47817SOL     OW45347  10.234   1.492   9.405
47817SOL    HW145348  10.166   1.558   9.392
47817SOL    HW245349  10.297   1.508   9.335
47818SOL     OW45350   2.585  14.015   9.203
47818SOL    HW145351   2.637  14.084   9.161
47818SOL    HW245352   2.526  14.061   9.262
47819SOL     OW45353   3.598  14.290   9.502
47819SOL    HW145354   3.632  14.317   9.417
47819SOL    HW245355   3.618  14.363   9.560
47820SOL     OW45356   0.639   9.497   9.854
47820SOL    HW145357   0.644   9.424   9.791
47820SOL    HW245358   0.671   9.573   9.805
47821SOL     OW45359   5.722   8.239  12.378
47821SOL    HW145360   5.814   8.265  12.385
47821SOL    HW245361   5.673   8.321  12.384
47822SOL     OW45362  13.981   6.860   7.944
47822SOL    HW145363  13.929   6.799   7.997
47822SOL    HW245364  13.971   6.944   7.988
47823SOL     OW45365  10.618   8.080  12.862
47823SOL    HW145366  10.572   8.120  12.936
47823SOL    HW245367  10.596   8.135  12.787
47824SOL     OW45368   3.445  11.613   6.095
47824SOL    HW145369   3.368  11.628   6.150
47824SOL    HW245370   3.435  11.523   6.065
47825SOL     OW45371   7.037  14.682  13.824
47825SOL    HW145372   7.000  14.766  13.799
47825SOL    HW245373   6.965  14.620  13.814
47826SOL     OW45374   1.122   4.777   4.704
47826SOL    HW145375   1.184   4.812   4.640
47826SOL    HW245376   1.086   4.854   4.747
47827SOL     OW45377   1.189   0.201   0.501
47827SOL    HW145378   1.231   0.185   0.585
47827SOL    HW245379   1.253   0.254   0.452
47828SOL     OW45380   5.957   3.840  10.057
47828SOL    HW145381   5.916   3.816   9.974
47828SOL    HW245382   6.018   3.910  10.034
47829SOL     OW45383  13.988  11.693  12.515
47829SOL    HW145384  14.036  11.691  12.599
47829SOL    HW245385  13.968  11.785  12.501
47830SOL     OW45386  11.788   3.570   1.862
47830SOL    HW145387  11.764   3.575   1.954
47830SOL    HW245388  11.757   3.484   1.834
47831SOL     OW45389  13.799   9.725   6.366
47831SOL    HW145390  13.771   9.676   6.289
47831SOL    HW245391  13.764   9.676   6.440
47832SOL     OW45392   3.297   6.136   3.519
47832SOL    HW145393   3.242   6.133   3.440
47832SOL    HW245394   3.244   6.093   3.586
47833SOL     OW45395   3.727   9.099   7.383
47833SOL    HW145396   3.675   9.155   7.441
47833SOL    HW245397   3.669   9.025   7.364
47834SOL     OW45398   3.742   9.099  12.706
47834SOL    HW145399   3.799   9.069  12.777
47834SOL    HW245400   3.654   9.084  12.739
47835SOL     OW45401   3.746   7.502   5.883
47835SOL    HW145402   3.715   7.552   5.807
47835SOL    HW245403   3.809   7.440   5.847
47836SOL     OW45404  10.545   6.003  11.641
47836SOL    HW145405  10.627   5.963  11.669
47836SOL    HW245406  10.568   6.055  11.564
47837SOL     OW45407   4.479  10.953   3.674
47837SOL    HW145408   4.503  11.024   3.615
47837SOL    HW245409   4.562  10.921   3.709
47838SOL     OW45410  10.232  12.830   7.976
47838SOL    HW145411  10.233  12.924   7.995
47838SOL    HW245412  10.158  12.819   7.916
47839SOL     OW45413   1.060   5.758   3.324
47839SOL    HW145414   0.970   5.779   3.299
47839SOL    HW245415   1.085   5.828   3.384
47840SOL     OW45416  13.882   9.123   8.580
47840SOL    HW145417  13.798   9.125   8.626
47840SOL    HW245418  13.878   9.198   8.520
47841SOL     OW45419   5.482  10.577   4.261
47841SOL    HW145420   5.568  10.578   4.302
47841SOL    HW245421   5.495  10.528   4.180
47842SOL     OW45422   5.480   8.681   2.586
47842SOL    HW145423   5.483   8.587   2.571
47842SOL    HW245424   5.497   8.691   2.680
47843SOL     OW45425  11.519   0.013   6.899
47843SOL    HW145426  11.437   0.047   6.934
47843SOL    HW245427  11.522  14.804   6.927
47844SOL     OW45428   2.786  14.465   1.673
47844SOL    HW145429   2.853  14.471   1.742
47844SOL    HW245430   2.836  14.465   1.591
47845SOL     OW45431   9.654   5.003   8.477
47845SOL    HW145432   9.672   5.096   8.486
47845SOL    HW245433   9.682   4.981   8.389
47846SOL     OW45434   8.390  10.039  12.625
47846SOL    HW145435   8.462  10.003  12.677
47846SOL    HW245436   8.420  10.031  12.535
47847SOL     OW45437   5.894   5.125   9.759
47847SOL    HW145438   5.987   5.120   9.736
47847SOL    HW245439   5.894   5.130   9.855
47848SOL     OW45440  13.199  12.812  13.202
47848SOL    HW145441  13.210  12.873  13.274
47848SOL    HW245442  13.135  12.748  13.234
47849SOL     OW45443  11.357   5.156   4.965
47849SOL    HW145444  11.424   5.102   4.925
47849SOL    HW245445  11.336   5.221   4.898
47850SOL     OW45446   8.085   7.042  14.251
47850SOL    HW145447   8.127   6.963  14.284
47850SOL    HW245448   7.993   7.017  14.241
47851SOL     OW45449   6.497   6.153  12.544
47851SOL    HW145450   6.444   6.091  12.594
47851SOL    HW245451   6.470   6.140  12.453
47852SOL     OW45452   5.226   5.175   8.826
47852SOL    HW145453   5.274   5.239   8.878
47852SOL    HW245454   5.176   5.125   8.890
47853SOL     OW45455  14.447   3.697   3.543
47853SOL    HW145456  14.422   3.748   3.621
47853SOL    HW245457  14.507   3.630   3.577
47854SOL     OW45458  11.113   9.461   3.370
47854SOL    HW145459  11.091   9.524   3.301
47854SOL    HW245460  11.038   9.402   3.374
47855SOL     OW45461   6.786  13.275  10.922
47855SOL    HW145462   6.778  13.243  10.832
47855SOL    HW245463   6.767  13.199  10.977
47856SOL     OW45464   5.136  13.835  14.694
47856SOL    HW145465   5.041  13.824  14.695
47856SOL    HW245466   5.149  13.929  14.681
47857SOL     OW45467   1.358   4.036  14.758
47857SOL    HW145468   1.412   4.003  14.829
47857SOL    HW245469   1.311   4.111  14.795
47858SOL     OW45470   3.715   2.755   2.682
47858SOL    HW145471   3.755   2.675   2.715
47858SOL    HW245472   3.655   2.782   2.752
47859SOL     OW45473   3.455  12.691   9.339
47859SOL    HW145474   3.363  12.676   9.318
47859SOL    HW245475   3.502  12.660   9.261
47860SOL     OW45476   5.419   1.381   7.847
47860SOL    HW145477   5.371   1.461   7.866
47860SOL    HW245478   5.350   1.314   7.840
47861SOL     OW45479  10.424   4.253  13.939
47861SOL    HW145480  10.490   4.306  13.984
47861SOL    HW245481  10.369   4.219  14.010
47862SOL     OW45482   9.918   9.968   9.096
47862SOL    HW145483   9.826   9.955   9.121
47862SOL    HW245484   9.941  10.053   9.134
47863SOL     OW45485   5.265   0.364   9.413
47863SOL    HW145486   5.304   0.392   9.496
47863SOL    HW245487   5.171   0.366   9.429
47864SOL     OW45488  11.124   2.417   4.268
47864SOL    HW145489  11.053   2.410   4.204
47864SOL    HW245490  11.203   2.425   4.215
47865SOL     OW45491  10.199  11.931   0.900
47865SOL    HW145492  10.115  11.973   0.921
47865SOL    HW245493  10.212  11.949   0.807
47866SOL     OW45494  13.826   6.784  13.293
47866SOL    HW145495  13.734   6.757  13.285
47866SOL    HW245496  13.825   6.877  13.267
47867SOL     OW45497   3.581   2.022   9.521
47867SOL    HW145498   3.665   2.011   9.477
47867SOL    HW245499   3.603   2.059   9.606
47868SOL     OW45500  13.672   1.136  10.141
47868SOL    HW145501  13.650   1.156  10.050
47868SOL    HW245502  13.642   1.212  10.191
47869SOL     OW45503   1.074  12.897   2.510
47869SOL    HW145504   1.053  12.813   2.469
47869SOL    HW245505   0.997  12.951   2.494
47870SOL     OW45506   7.564   5.006   7.695
47870SOL    HW145507   7.484   4.979   7.649
47870SOL    HW245508   7.630   4.942   7.667
47871SOL     OW45509   3.832  13.455   0.621
47871SOL    HW145510   3.873  13.483   0.703
47871SOL    HW245511   3.753  13.408   0.649
47872SOL     OW45512  11.554  10.176   4.841
47872SOL    HW145513  11.513  10.226   4.771
47872SOL    HW245514  11.563  10.088   4.806
47873SOL     OW45515   2.144  10.388  11.063
47873SOL    HW145516   2.162  10.319  10.999
47873SOL    HW245517   2.215  10.451  11.051
47874SOL     OW45518   2.697   0.518   5.593
47874SOL    HW145519   2.665   0.488   5.678
47874SOL    HW245520   2.674   0.448   5.533
47875SOL     OW45521   4.196   5.443   0.400
47875SOL    HW145522   4.183   5.469   0.491
47875SOL    HW245523   4.219   5.350   0.405
47876SOL     OW45524  13.973  14.460   8.426
47876SOL    HW145525  14.042  14.519   8.394
47876SOL    HW245526  13.987  14.379   8.377
47877SOL     OW45527  12.122  10.789   6.386
47877SOL    HW145528  12.037  10.814   6.421
47877SOL    HW245529  12.182  10.797   6.461
47878SOL     OW45530   8.908  14.177   3.687
47878SOL    HW145531   8.945  14.111   3.745
47878SOL    HW245532   8.954  14.164   3.603
47879SOL     OW45533   7.817  12.488   3.887
47879SOL    HW145534   7.909  12.508   3.867
47879SOL    HW245535   7.818  12.396   3.913
47880SOL     OW45536  10.483  13.269   7.339
47880SOL    HW145537  10.510  13.256   7.248
47880SOL    HW245538  10.477  13.364   7.348
47881SOL     OW45539   2.248  14.286   0.832
47881SOL    HW145540   2.255  14.205   0.882
47881SOL    HW245541   2.159  14.316   0.847
47882SOL     OW45542  14.869  11.000   7.176
47882SOL    HW145543  14.878  11.044   7.261
47882SOL    HW245544   0.025  11.062   7.114
47883SOL     OW45545   2.464  10.345   7.127
47883SOL    HW145546   2.386  10.383   7.087
47883SOL    HW245547   2.502  10.415   7.179
47884SOL     OW45548   5.765  10.223   5.437
47884SOL    HW145549   5.822  10.153   5.469
47884SOL    HW245550   5.740  10.271   5.516
47885SOL     OW45551   2.751   0.708   4.494
47885SOL    HW145552   2.698   0.737   4.568
47885SOL    HW245553   2.840   0.704   4.528
47886SOL     OW45554   1.713  11.514  11.685
47886SOL    HW145555   1.628  11.505  11.641
47886SOL    HW245556   1.720  11.436  11.739
47887SOL     OW45557   4.509  11.804   4.655
47887SOL    HW145558   4.490  11.725   4.706
47887SOL    HW245559   4.549  11.771   4.574
47888SOL     OW45560   2.787   1.686   6.041
47888SOL    HW145561   2.750   1.751   5.981
47888SOL    HW245562   2.717   1.669   6.104
47889SOL     OW45563   6.980   6.991   6.569
47889SOL    HW145564   6.949   7.081   6.582
47889SOL    HW245565   6.940   6.965   6.485
47890SOL     OW45566   0.834  10.797   0.105
47890SOL    HW145567   0.819  10.764   0.193
47890SOL    HW245568   0.752  10.841   0.081
47891SOL     OW45569  14.499   5.734   9.575
47891SOL    HW145570  14.514   5.792   9.650
47891SOL    HW245571  14.556   5.768   9.507
47892SOL     OW45572   2.089   8.138  11.380
47892SOL    HW145573   2.138   8.102  11.454
47892SOL    HW245574   2.117   8.085  11.305
47893SOL     OW45575   9.105   5.280  14.567
47893SOL    HW145576   9.195   5.302  14.540
47893SOL    HW245577   9.086   5.343  14.637
47894SOL     OW45578   8.823   4.171  10.411
47894SOL    HW145579   8.833   4.209  10.323
47894SOL    HW245580   8.765   4.096  10.398
47895SOL     OW45581   5.150   3.599  12.468
47895SOL    HW145582   5.101   3.620  12.548
47895SOL    HW245583   5.165   3.684  12.426
47896SOL     OW45584   1.778  11.825   2.481
47896SOL    HW145585   1.750  11.754   2.422
47896SOL    HW245586   1.731  11.808   2.562
47897SOL     OW45587   2.612   2.761   8.373
47897SOL    HW145588   2.519   2.758   8.351
47897SOL    HW245589   2.625   2.847   8.413
47898SOL     OW45590  14.290   3.452   3.712
47898SOL    HW145591  14.287   3.521   3.645
47898SOL    HW245592  14.274   3.371   3.664
47899SOL     OW45593   9.721   5.041  11.205
47899SOL    HW145594   9.678   4.997  11.132
47899SOL    HW245595   9.756   4.970  11.259
47900SOL     OW45596  10.462   3.767   7.402
47900SOL    HW145597  10.476   3.795   7.492
47900SOL    HW245598  10.407   3.835   7.364
47901SOL     OW45599   9.800  10.427   7.578
47901SOL    HW145600   9.821  10.517   7.552
47901SOL    HW245601   9.707  10.418   7.559
47902SOL     OW45602   6.736  13.890   0.911
47902SOL    HW145603   6.831  13.880   0.907
47902SOL    HW245604   6.702  13.801   0.896
47903SOL     OW45605   9.348   4.369   0.270
47903SOL    HW145606   9.428   4.399   0.227
47903SOL    HW245607   9.351   4.409   0.357
47904SOL     OW45608   4.991   3.606  13.007
47904SOL    HW145609   4.997   3.637  13.098
47904SOL    HW245610   5.050   3.531  13.003
47905SOL     OW45611  12.332   6.407   7.372
47905SOL    HW145612  12.291   6.342   7.429
47905SOL    HW245613  12.307   6.379   7.283
47906SOL     OW45614  12.905   4.702   0.425
47906SOL    HW145615  12.908   4.680   0.332
47906SOL    HW245616  12.995   4.694   0.455
47907SOL     OW45617  11.268   3.314   8.957
47907SOL    HW145618  11.172   3.305   8.959
47907SOL    HW245619  11.299   3.225   8.939
47908SOL     OW45620   1.253  11.197   7.711
47908SOL    HW145621   1.206  11.115   7.702
47908SOL    HW245622   1.337  11.172   7.750
47909SOL     OW45623   5.628   3.085   4.573
47909SOL    HW145624   5.704   3.073   4.629
47909SOL    HW245625   5.557   3.108   4.633
47910SOL     OW45626   1.309  11.413   4.681
47910SOL    HW145627   1.380  11.477   4.670
47910SOL    HW245628   1.345  11.332   4.646
47911SOL     OW45629   7.842  11.622  11.154
47911SOL    HW145630   7.889  11.607  11.072
47911SOL    HW245631   7.834  11.535  11.194
47912SOL     OW45632   6.763  10.336   1.413
47912SOL    HW145633   6.812  10.370   1.339
47912SOL    HW245634   6.741  10.246   1.389
47913SOL     OW45635   5.301  12.810   8.100
47913SOL    HW145636   5.356  12.882   8.071
47913SOL    HW245637   5.298  12.819   8.195
47914SOL     OW45638   9.307   7.066   4.948
47914SOL    HW145639   9.223   7.067   4.994
47914SOL    HW245640   9.284   7.082   4.856
47915SOL     OW45641   1.626   6.974   2.248
47915SOL    HW145642   1.632   6.980   2.344
47915SOL    HW245643   1.559   7.038   2.225
47916SOL     OW45644   2.912   3.848  13.998
47916SOL    HW145645   2.877   3.904  14.067
47916SOL    HW245646   3.001   3.882  13.983
47917SOL     OW45647   8.183   3.618  12.409
47917SOL    HW145648   8.151   3.654  12.492
47917SOL    HW245649   8.241   3.546  12.435
47918SOL     OW45650   0.420  14.787   1.041
47918SOL    HW145651   0.497  14.826   1.082
47918SOL    HW245652   0.453  14.709   0.996
47919SOL     OW45653   5.140   0.472   9.993
47919SOL    HW145654   5.123   0.558   9.953
47919SOL    HW245655   5.131   0.410   9.920
47920SOL     OW45656   6.648   7.638   2.376
47920SOL    HW145657   6.650   7.729   2.406
47920SOL    HW245658   6.729   7.600   2.410
47921SOL     OW45659   6.568   9.428   7.818
47921SOL    HW145660   6.570   9.384   7.902
47921SOL    HW245661   6.597   9.518   7.837
47922SOL     OW45662   4.561  13.167  13.285
47922SOL    HW145663   4.545  13.151  13.192
47922SOL    HW245664   4.478  13.145  13.327
47923SOL     OW45665   8.698   1.574  11.800
47923SOL    HW145666   8.632   1.562  11.731
47923SOL    HW245667   8.774   1.609  11.754
47924SOL     OW45668   2.371   8.855  14.746
47924SOL    HW145669   2.426   8.778  14.733
47924SOL    HW245670   2.343   8.880  14.658
47925SOL     OW45671  11.580  12.962   5.305
47925SOL    HW145672  11.521  12.950   5.231
47925SOL    HW245673  11.540  12.914   5.376
47926SOL     OW45674   2.337   5.159  12.292
47926SOL    HW145675   2.420   5.204  12.310
47926SOL    HW245676   2.323   5.170  12.198
47927SOL     OW45677  13.554  13.989   5.618
47927SOL    HW145678  13.521  13.976   5.707
47927SOL    HW245679  13.646  14.013   5.630
47928SOL     OW45680   9.941  12.293   0.466
47928SOL    HW145681   9.937  12.347   0.386
47928SOL    HW245682   9.927  12.204   0.436
47929SOL     OW45683   4.651   5.986  10.551
47929SOL    HW145684   4.713   5.922  10.586
47929SOL    HW245685   4.575   5.934  10.525
47930SOL     OW45686  12.186   3.104   5.459
47930SOL    HW145687  12.235   3.022   5.460
47930SOL    HW245688  12.104   3.082   5.414
47931SOL     OW45689   1.244  10.662   3.819
47931SOL    HW145690   1.168  10.720   3.820
47931SOL    HW245691   1.223  10.596   3.752
47932SOL     OW45692  13.390   5.275  12.875
47932SOL    HW145693  13.388   5.349  12.936
47932SOL    HW245694  13.298   5.260  12.853
47933SOL     OW45695   3.623  13.564  11.436
47933SOL    HW145696   3.620  13.587  11.344
47933SOL    HW245697   3.540  13.597  11.472
47934SOL     OW45698  12.600  11.344   5.097
47934SOL    HW145699  12.581  11.334   5.003
47934SOL    HW245700  12.514  11.349   5.138
47935SOL     OW45701   3.126  14.059   9.208
47935SOL    HW145702   3.131  14.051   9.113
47935SOL    HW245703   3.192  14.125   9.230
47936SOL     OW45704  12.085   8.044  13.826
47936SOL    HW145705  12.158   8.091  13.786
47936SOL    HW245706  12.042   8.000  13.752
47937SOL     OW45707   1.588   8.418   8.158
47937SOL    HW145708   1.526   8.476   8.203
47937SOL    HW245709   1.582   8.445   8.066
47938SOL     OW45710   6.317   5.656  11.151
47938SOL    HW145711   6.410   5.636  11.150
47938SOL    HW245712   6.278   5.592  11.091
47939SOL     OW45713  12.950   3.370   5.273
47939SOL    HW145714  13.006   3.373   5.351
47939SOL    HW245715  12.918   3.460   5.263
47940SOL     OW45716  14.470   3.770   8.006
47940SOL    HW145717  14.409   3.718   7.954
47940SOL    HW245718  14.526   3.812   7.941
47941SOL     OW45719   1.711   5.346  12.770
47941SOL    HW145720   1.729   5.252  12.771
47941SOL    HW245721   1.700   5.368  12.678
47942SOL     OW45722  14.808  13.896   3.300
47942SOL    HW145723  14.747  13.921   3.369
47942SOL    HW245724  14.758  13.838   3.243
47943SOL     OW45725   9.554   3.761  14.311
47943SOL    HW145726   9.594   3.845  14.288
47943SOL    HW245727   9.507   3.735  14.232
47944SOL     OW45728   8.491   9.027   8.565
47944SOL    HW145729   8.530   9.060   8.485
47944SOL    HW245730   8.537   9.072   8.636
47945SOL     OW45731  14.425   8.137   4.445
47945SOL    HW145732  14.383   8.071   4.390
47945SOL    HW245733  14.401   8.114   4.534
47946SOL     OW45734   9.099   9.186   1.201
47946SOL    HW145735   9.066   9.250   1.264
47946SOL    HW245736   9.069   9.101   1.236
47947SOL     OW45737   8.675  13.706  10.390
47947SOL    HW145738   8.720  13.654  10.323
47947SOL    HW245739   8.691  13.659  10.472
47948SOL     OW45740   3.379   4.441  12.482
47948SOL    HW145741   3.354   4.533  12.480
47948SOL    HW245742   3.442   4.435  12.554
47949SOL     OW45743   6.787  10.412  10.851
47949SOL    HW145744   6.843  10.412  10.773
47949SOL    HW245745   6.773  10.504  10.871
47950SOL     OW45746   2.999  10.811   9.813
47950SOL    HW145747   3.033  10.851   9.734
47950SOL    HW245748   2.945  10.738   9.782
47951SOL     OW45749   6.690   1.875   1.980
47951SOL    HW145750   6.664   1.843   2.066
47951SOL    HW245751   6.769   1.928   1.996
47952SOL     OW45752   7.525  11.521   5.714
47952SOL    HW145753   7.504  11.614   5.707
47952SOL    HW245754   7.567  11.512   5.800
47953SOL     OW45755   6.495  14.245  14.725
47953SOL    HW145756   6.486  14.328  14.773
47953SOL    HW245757   6.408  14.205  14.730
47954SOL     OW45758   4.393   4.037  12.621
47954SOL    HW145759   4.385   3.943  12.605
47954SOL    HW245760   4.458   4.044  12.690
47955SOL     OW45761   5.745  11.849   5.882
47955SOL    HW145762   5.758  11.858   5.976
47955SOL    HW245763   5.662  11.893   5.864
47956SOL     OW45764  11.545   5.035  12.974
47956SOL    HW145765  11.457   5.043  12.939
47956SOL    HW245766  11.568   4.943  12.961
47957SOL     OW45767   4.309   6.346   2.843
47957SOL    HW145768   4.377   6.331   2.908
47957SOL    HW245769   4.257   6.265   2.843
47958SOL     OW45770  10.094   7.531   2.803
47958SOL    HW145771  10.121   7.518   2.894
47958SOL    HW245772  10.163   7.489   2.752
47959SOL     OW45773  14.539  12.269  14.331
47959SOL    HW145774  14.495  12.227  14.256
47959SOL    HW245775  14.525  12.362  14.318
47960SOL     OW45776  10.361   4.363   1.641
47960SOL    HW145777  10.351   4.288   1.582
47960SOL    HW245778  10.382   4.324   1.726
47961SOL     OW45779  12.438  14.410   6.740
47961SOL    HW145780  12.376  14.392   6.811
47961SOL    HW245781  12.472  14.498   6.760
47962SOL     OW45782   6.911  10.671   8.881
47962SOL    HW145783   6.873  10.746   8.834
47962SOL    HW245784   6.949  10.617   8.812
47963SOL     OW45785  14.161   7.912   9.053
47963SOL    HW145786  14.101   7.898   8.980
47963SOL    HW245787  14.213   7.988   9.026
47964SOL     OW45788  11.693   8.594   2.407
47964SOL    HW145789  11.605   8.630   2.400
47964SOL    HW245790  11.733   8.612   2.322
47965SOL     OW45791   7.094   7.430   3.500
47965SOL    HW145792   7.001   7.449   3.508
47965SOL    HW245793   7.131   7.453   3.585
47966SOL     OW45794   6.979   0.531   3.992
47966SOL    HW145795   7.051   0.536   4.054
47966SOL    HW245796   6.981   0.614   3.946
47967SOL     OW45797   5.064  13.048   7.012
47967SOL    HW145798   5.058  12.953   7.024
47967SOL    HW245799   5.157  13.068   7.022
47968SOL     OW45800   1.285   7.790   9.772
47968SOL    HW145801   1.294   7.768   9.864
47968SOL    HW245802   1.263   7.883   9.771
47969SOL     OW45803  14.109   4.980   1.542
47969SOL    HW145804  14.069   4.893   1.531
47969SOL    HW245805  14.036   5.041   1.534
47970SOL     OW45806   6.719   0.878   5.227
47970SOL    HW145807   6.687   0.788   5.216
47970SOL    HW245808   6.793   0.870   5.288
47971SOL     OW45809  11.151   6.953   1.180
47971SOL    HW145810  11.206   6.881   1.211
47971SOL    HW245811  11.162   7.022   1.246
47972SOL     OW45812  12.882   2.859   3.492
47972SOL    HW145813  12.864   2.771   3.458
47972SOL    HW245814  12.853   2.919   3.423
47973SOL     OW45815   3.931   8.229  12.912
47973SOL    HW145816   3.881   8.300  12.953
47973SOL    HW245817   4.012   8.225  12.963
47974SOL     OW45818  11.406   9.767  11.125
47974SOL    HW145819  11.465   9.699  11.092
47974SOL    HW245820  11.462   9.821  11.181
47975SOL     OW45821  14.481   7.326  12.380
47975SOL    HW145822  14.416   7.268  12.420
47975SOL    HW245823  14.429   7.381  12.321
47976SOL     OW45824  10.455   9.155  13.522
47976SOL    HW145825  10.408   9.106  13.589
47976SOL    HW245826  10.502   9.223  13.570
47977SOL     OW45827   0.629   6.228  13.244
47977SOL    HW145828   0.699   6.216  13.180
47977SOL    HW245829   0.630   6.322  13.264
47978SOL     OW45830   7.690   6.743  13.485
47978SOL    HW145831   7.744   6.813  13.522
47978SOL    HW245832   7.603   6.758  13.523
47979SOL     OW45833  10.771   9.414   6.532
47979SOL    HW145834  10.715   9.425   6.609
47979SOL    HW245835  10.732   9.340   6.485
47980SOL     OW45836  10.446   2.239   2.461
47980SOL    HW145837  10.462   2.155   2.417
47980SOL    HW245838  10.447   2.217   2.554
47981SOL     OW45839  10.821  12.750   5.529
47981SOL    HW145840  10.889  12.696   5.568
47981SOL    HW245841  10.811  12.715   5.440
47982SOL     OW45842   8.816   1.658  10.606
47982SOL    HW145843   8.751   1.596  10.639
47982SOL    HW245844   8.827   1.721  10.677
47983SOL     OW45845   4.916   8.559  12.596
47983SOL    HW145846   4.961   8.640  12.574
47983SOL    HW245847   4.880   8.528  12.512
47984SOL     OW45848  12.039  12.823  10.968
47984SOL    HW145849  12.112  12.787  11.018
47984SOL    HW245850  11.989  12.746  10.940
47985SOL     OW45851  11.010  11.443   1.506
47985SOL    HW145852  10.948  11.516   1.517
47985SOL    HW245853  11.095  11.481   1.526
47986SOL     OW45854   5.623   1.469   4.250
47986SOL    HW145855   5.528   1.477   4.262
47986SOL    HW245856   5.634   1.390   4.197
47987SOL     OW45857   6.028  11.230  11.200
47987SOL    HW145858   5.955  11.188  11.155
47987SOL    HW245859   6.039  11.179  11.280
47988SOL     OW45860   9.541   0.357  11.085
47988SOL    HW145861   9.466   0.363  11.026
47988SOL    HW245862   9.617   0.345  11.027
47989SOL     OW45863   1.048   7.417  13.472
47989SOL    HW145864   1.059   7.429  13.566
47989SOL    HW245865   0.958   7.445  13.455
47990SOL     OW45866   8.502   7.044  10.114
47990SOL    HW145867   8.564   7.056  10.186
47990SOL    HW245868   8.449   7.124  10.115
47991SOL     OW45869   3.423   5.734  11.314
47991SOL    HW145870   3.416   5.796  11.387
47991SOL    HW245871   3.394   5.783  11.238
47992SOL     OW45872   2.214   7.796   9.687
47992SOL    HW145873   2.244   7.885   9.669
47992SOL    HW245874   2.255   7.743   9.618
47993SOL     OW45875   7.935   7.166  12.376
47993SOL    HW145876   7.908   7.207  12.459
47993SOL    HW245877   8.009   7.111  12.401
47994SOL     OW45878  13.349   2.440  10.664
47994SOL    HW145879  13.258   2.453  10.691
47994SOL    HW245880  13.380   2.367  10.717
47995SOL     OW45881   9.600   5.133   0.311
47995SOL    HW145882   9.585   5.221   0.344
47995SOL    HW245883   9.595   5.077   0.389
47996SOL     OW45884  13.084   0.176   3.430
47996SOL    HW145885  13.072   0.260   3.386
47996SOL    HW245886  13.041   0.187   3.515
47997SOL     OW45887   6.093  13.255  13.879
47997SOL    HW145888   6.181  13.293  13.881
47997SOL    HW245889   6.045  13.300  13.947
47998SOL     OW45890   3.672   8.334   8.468
47998SOL    HW145891   3.637   8.248   8.444
47998SOL    HW245892   3.740   8.352   8.404
47999SOL     OW45893   7.369   8.055  13.575
47999SOL    HW145894   7.458   8.054  13.612
47999SOL    HW245895   7.321   7.989  13.624
48000SOL     OW45896   5.899  14.499  14.645
48000SOL    HW145897   5.992  14.522  14.646
48000SOL    HW245898   5.867  14.523  14.732
48001SOL     OW45899   4.121  11.424  12.622
48001SOL    HW145900   4.037  11.445  12.581
48001SOL    HW245901   4.185  11.433  12.552
48002SOL     OW45902   3.489  11.502   8.702
48002SOL    HW145903   3.475  11.558   8.778
48002SOL    HW245904   3.453  11.417   8.726
48003SOL     OW45905   4.436  12.448   3.421
48003SOL    HW145906   4.522  12.475   3.454
48003SOL    HW245907   4.454  12.380   3.356
48004SOL     OW45908   4.115  12.208   8.417
48004SOL    HW145909   4.146  12.157   8.342
48004SOL    HW245910   4.029  12.170   8.437
48005SOL     OW45911   2.262  12.375   7.517
48005SOL    HW145912   2.319  12.300   7.500
48005SOL    HW245913   2.321  12.450   7.516
48006SOL     OW45914   5.403   2.256  10.829
48006SOL    HW145915   5.361   2.310  10.896
48006SOL    HW245916   5.432   2.178  10.875
48007SOL     OW45917   7.435   0.207  14.153
48007SOL    HW145918   7.421   0.131  14.210
48007SOL    HW245919   7.529   0.206  14.135
48008SOL     OW45920   5.678  11.215  10.726
48008SOL    HW145921   5.639  11.223  10.813
48008SOL    HW245922   5.732  11.136  10.730
48009SOL     OW45923   2.825   9.608  13.591
48009SOL    HW145924   2.740   9.650  13.609
48009SOL    HW245925   2.884   9.644  13.657
48010SOL     OW45926   0.390  12.959  14.775
48010SOL    HW145927   0.324  13.009  14.728
48010SOL    HW245928   0.415  13.015  14.849
48011SOL     OW45929   8.751   9.668   0.755
48011SOL    HW145930   8.757   9.634   0.666
48011SOL    HW245931   8.662   9.703   0.762
48012SOL     OW45932   5.963   2.946   2.654
48012SOL    HW145933   5.968   3.041   2.653
48012SOL    HW245934   5.877   2.926   2.616
48013SOL     OW45935   3.073   1.863   5.642
48013SOL    HW145936   3.103   1.950   5.670
48013SOL    HW245937   3.076   1.867   5.546
48014SOL     OW45938   4.686   1.912  14.696
48014SOL    HW145939   4.773   1.944  14.674
48014SOL    HW245940   4.630   1.944  14.625
48015SOL     OW45941   5.783  10.923  12.946
48015SOL    HW145942   5.801  10.970  13.027
48015SOL    HW245943   5.690  10.898  12.953
48016SOL     OW45944  10.117   7.939   2.381
48016SOL    HW145945  10.082   7.970   2.297
48016SOL    HW245946  10.080   8.000   2.446
48017SOL     OW45947  13.961   7.247   4.380
48017SOL    HW145948  13.980   7.163   4.338
48017SOL    HW245949  14.034   7.304   4.355
48018SOL     OW45950  10.373  12.943   9.914
48018SOL    HW145951  10.467  12.926   9.928
48018SOL    HW245952  10.346  12.995   9.989
48019SOL     OW45953   1.291  10.059   9.551
48019SOL    HW145954   1.338   9.976   9.552
48019SOL    HW245955   1.199  10.034   9.562
48020SOL     OW45956  14.692  13.550   2.573
48020SOL    HW145957  14.728  13.635   2.598
48020SOL    HW245958  14.737  13.487   2.630
48021SOL     OW45959   6.140   2.282   6.497
48021SOL    HW145960   6.234   2.294   6.512
48021SOL    HW245961   6.117   2.205   6.549
48022SOL     OW45962   4.353  12.772   3.888
48022SOL    HW145963   4.287  12.794   3.954
48022SOL    HW245964   4.311  12.792   3.805
48023SOL     OW45965   6.574  13.401   0.208
48023SOL    HW145966   6.567  13.492   0.178
48023SOL    HW245967   6.567  13.407   0.303
48024SOL     OW45968  10.139  12.037   9.893
48024SOL    HW145969  10.206  12.001   9.834
48024SOL    HW245970  10.183  12.107   9.940
48025SOL     OW45971   5.526   0.987   7.644
48025SOL    HW145972   5.609   1.028   7.667
48025SOL    HW245973   5.547   0.927   7.573
48026SOL     OW45974  12.140   5.536   6.454
48026SOL    HW145975  12.090   5.596   6.509
48026SOL    HW245976  12.215   5.511   6.508
48027SOL     OW45977   5.792  10.099   5.970
48027SOL    HW145978   5.874  10.145   5.986
48027SOL    HW245979   5.773  10.055   6.053
48028SOL     OW45980   0.402  10.284   1.165
48028SOL    HW145981   0.491  10.278   1.131
48028SOL    HW245982   0.355  10.212   1.122
48029SOL     OW45983  14.562   4.403  13.655
48029SOL    HW145984  14.570   4.314  13.620
48029SOL    HW245985  14.514   4.451  13.587
48030SOL     OW45986   2.614   3.428   2.186
48030SOL    HW145987   2.663   3.350   2.161
48030SOL    HW245988   2.644   3.448   2.275
48031SOL     OW45989   4.967  13.708  12.538
48031SOL    HW145990   4.977  13.718  12.443
48031SOL    HW245991   4.952  13.615  12.551
48032SOL     OW45992   2.426   1.818  13.276
48032SOL    HW145993   2.335   1.848  13.278
48032SOL    HW245994   2.432   1.753  13.346
48033SOL     OW45995   6.500   9.580   5.974
48033SOL    HW145996   6.555   9.588   5.896
48033SOL    HW245997   6.552   9.617   6.045
48034SOL     OW45998  12.151  11.289  12.951
48034SOL    HW145999  12.149  11.207  13.001
48034SOL    HW246000  12.139  11.261  12.860
48035SOL     OW46001  13.710   6.739  12.907
48035SOL    HW146002  13.702   6.718  12.814
48035SOL    HW246003  13.803   6.728  12.926
48036SOL     OW46004   3.359   1.076   9.773
48036SOL    HW146005   3.400   1.139   9.714
48036SOL    HW246006   3.431   1.045   9.828
48037SOL     OW46007   5.716   5.737   7.294
48037SOL    HW146008   5.675   5.782   7.368
48037SOL    HW246009   5.799   5.783   7.282
48038SOL     OW46010  12.236  13.928  14.351
48038SOL    HW146011  12.223  14.016  14.315
48038SOL    HW246012  12.192  13.930  14.436
48039SOL     OW46013   5.464  10.142   6.911
48039SOL    HW146014   5.509  10.059   6.896
48039SOL    HW246015   5.533  10.208   6.901
48040SOL     OW46016  10.023  13.377  11.471
48040SOL    HW146017  10.001  13.284  11.480
48040SOL    HW246018  10.012  13.395  11.378
48041SOL     OW46019  12.785  10.967   2.222
48041SOL    HW146020  12.733  10.981   2.143
48041SOL    HW246021  12.876  10.977   2.192
48042SOL     OW46022  10.361   3.685   2.291
48042SOL    HW146023  10.440   3.656   2.246
48042SOL    HW246024  10.391   3.750   2.355
48043SOL     OW46025   7.473   1.563   2.536
48043SOL    HW146026   7.483   1.646   2.582
48043SOL    HW246027   7.561   1.524   2.539
48044SOL     OW46028   4.152   0.083   4.517
48044SOL    HW146029   4.153   0.074   4.421
48044SOL    HW246030   4.195   0.004   4.549
48045SOL     OW46031   2.988  14.335   9.328
48045SOL    HW146032   3.011  14.275   9.399
48045SOL    HW246033   2.897  14.360   9.346
48046SOL     OW46034   8.079  10.811  14.151
48046SOL    HW146035   8.100  10.833  14.242
48046SOL    HW246036   8.153  10.758  14.122
48047SOL     OW46037  10.339  13.377   4.908
48047SOL    HW146038  10.279  13.449   4.921
48047SOL    HW246039  10.317  13.342   4.822
48048SOL     OW46040   4.099   6.616   7.575
48048SOL    HW146041   4.070   6.595   7.487
48048SOL    HW246042   4.058   6.550   7.631
48049SOL     OW46043   3.431  12.376   3.927
48049SOL    HW146044   3.436  12.443   3.995
48049SOL    HW246045   3.523  12.350   3.913
48050SOL     OW46046   6.954   8.364   5.619
48050SOL    HW146047   6.871   8.318   5.627
48050SOL    HW246048   7.020   8.299   5.644
48051SOL     OW46049  10.468   8.033   3.429
48051SOL    HW146050  10.533   7.965   3.409
48051SOL    HW246051  10.436   8.062   3.344
48052SOL     OW46052  12.434  14.129   6.212
48052SOL    HW146053  12.347  14.113   6.249
48052SOL    HW246054  12.494  14.089   6.275
48053SOL     OW46055  11.022  13.158  10.337
48053SOL    HW146056  10.974  13.238  10.320
48053SOL    HW246057  11.114  13.182  10.326
48054SOL     OW46058   1.599   2.976   1.450
48054SOL    HW146059   1.539   3.016   1.386
48054SOL    HW246060   1.686   3.004   1.421
48055SOL     OW46061   5.284  13.295  11.935
48055SOL    HW146062   5.224  13.337  11.873
48055SOL    HW246063   5.234  13.222  11.972
48056SOL     OW46064   9.631  10.269   8.001
48056SOL    HW146065   9.700  10.217   7.963
48056SOL    HW246066   9.571  10.205   8.040
48057SOL     OW46067   0.038  11.463  14.323
48057SOL    HW146068  14.856  11.534  14.315
48057SOL    HW246069   0.056  11.458  14.417
48058SOL     OW46070  11.420   4.645   2.929
48058SOL    HW146071  11.381   4.564   2.962
48058SOL    HW246072  11.432   4.699   3.007
48059SOL     OW46073  13.515   8.526   2.783
48059SOL    HW146074  13.609   8.513   2.771
48059SOL    HW246075  13.507   8.562   2.872
48060SOL     OW46076  14.090  12.589   3.104
48060SOL    HW146077  14.122  12.675   3.078
48060SOL    HW246078  14.151  12.560   3.172
48061SOL     OW46079   4.327   1.586   3.921
48061SOL    HW146080   4.326   1.639   4.000
48061SOL    HW246081   4.250   1.530   3.929
48062SOL     OW46082   1.306   1.987   8.423
48062SOL    HW146083   1.275   1.941   8.501
48062SOL    HW246084   1.288   2.079   8.441
48063SOL     OW46085   8.318   8.382  12.498
48063SOL    HW146086   8.310   8.456  12.437
48063SOL    HW246087   8.400   8.399  12.545
48064SOL     OW46088  10.634  13.307  13.341
48064SOL    HW146089  10.584  13.252  13.280
48064SOL    HW246090  10.726  13.292  13.317
48065SOL     OW46091   4.123   1.623   6.324
48065SOL    HW146092   4.206   1.601   6.280
48065SOL    HW246093   4.060   1.561   6.288
48066SOL     OW46094   9.288  13.383   1.551
48066SOL    HW146095   9.382  13.390   1.565
48066SOL    HW246096   9.264  13.297   1.588
48067SOL     OW46097   7.034   0.818   4.226
48067SOL    HW146098   7.083   0.791   4.304
48067SOL    HW246099   6.950   0.850   4.260
48068SOL     OW46100   3.126  14.633   1.834
48068SOL    HW146101   3.124  14.558   1.775
48068SOL    HW246102   3.195  14.690   1.800
48069SOL     OW46103   1.771   6.437   4.542
48069SOL    HW146104   1.798   6.425   4.451
48069SOL    HW246105   1.825   6.508   4.574
48070SOL     OW46106   0.026  14.741   2.218
48070SOL    HW146107   0.081  14.724   2.142
48070SOL    HW246108   0.076  14.707   2.292
48071SOL     OW46109   7.060   6.803  13.345
48071SOL    HW146110   7.075   6.751  13.266
48071SOL    HW246111   7.124   6.873  13.341
48072SOL     OW46112   0.849  11.944   4.023
48072SOL    HW146113   0.805  11.996   3.955
48072SOL    HW246114   0.826  11.988   4.104
48073SOL     OW46115   4.565  11.630   3.498
48073SOL    HW146116   4.569  11.534   3.501
48073SOL    HW246117   4.526  11.655   3.581
48074SOL     OW46118   7.897   4.089  14.308
48074SOL    HW146119   7.871   4.006  14.266
48074SOL    HW246120   7.827   4.150  14.286
48075SOL     OW46121   4.245   2.989   0.317
48075SOL    HW146122   4.298   3.061   0.351
48075SOL    HW246123   4.245   3.001   0.222
48076SOL     OW46124   6.002   6.977   8.189
48076SOL    HW146125   5.964   7.005   8.106
48076SOL    HW246126   6.066   6.910   8.166
48077SOL     OW46127  13.633   0.778   7.364
48077SOL    HW146128  13.609   0.819   7.447
48077SOL    HW246129  13.728   0.768   7.370
48078SOL     OW46130   3.402   1.548   9.343
48078SOL    HW146131   3.435   1.610   9.407
48078SOL    HW246132   3.475   1.533   9.283
48079SOL     OW46133   6.469   9.050   8.949
48079SOL    HW146134   6.497   9.142   8.950
48079SOL    HW246135   6.537   9.005   8.999
48080SOL     OW46136   7.175   4.255   3.402
48080SOL    HW146137   7.101   4.292   3.450
48080SOL    HW246138   7.137   4.188   3.346
48081SOL     OW46139  13.130  14.617   5.269
48081SOL    HW146140  13.125  14.696   5.323
48081SOL    HW246141  13.119  14.648   5.179
48082SOL     OW46142   6.822   2.463   9.172
48082SOL    HW146143   6.729   2.448   9.156
48082SOL    HW246144   6.865   2.384   9.139
48083SOL     OW46145   3.493   9.879   6.622
48083SOL    HW146146   3.524   9.917   6.539
48083SOL    HW246147   3.466   9.791   6.598
48084SOL     OW46148   8.932   3.226  13.822
48084SOL    HW146149   8.956   3.302  13.769
48084SOL    HW246150   9.010   3.170  13.819
48085SOL     OW46151  13.351  13.316   4.986
48085SOL    HW146152  13.399  13.384   4.939
48085SOL    HW246153  13.302  13.270   4.917
48086SOL     OW46154   5.572  10.646  12.899
48086SOL    HW146155   5.529  10.705  12.961
48086SOL    HW246156   5.503  10.588  12.869
48087SOL     OW46157  12.648  13.279   6.703
48087SOL    HW146158  12.667  13.209   6.641
48087SOL    HW246159  12.728  13.290   6.753
48088SOL     OW46160  11.692  11.197   8.037
48088SOL    HW146161  11.767  11.239   7.994
48088SOL    HW246162  11.706  11.212   8.130
48089SOL     OW46163   1.261   0.764  11.190
48089SOL    HW146164   1.270   0.842  11.134
48089SOL    HW246165   1.189   0.714  11.152
48090SOL     OW46166   9.576  13.063   6.893
48090SOL    HW146167   9.639  13.134   6.903
48090SOL    HW246168   9.618  13.003   6.831
48091SOL     OW46169   6.681   8.514  12.397
48091SOL    HW146170   6.774   8.500  12.416
48091SOL    HW246171   6.672   8.494  12.304
48092SOL     OW46172  13.719   0.920   8.057
48092SOL    HW146173  13.748   0.886   8.142
48092SOL    HW246174  13.628   0.947   8.072
48093SOL     OW46175  10.377  14.698   9.114
48093SOL    HW146176  10.339  14.785   9.097
48093SOL    HW246177  10.323  14.638   9.062
48094SOL     OW46178  11.212  14.740   1.168
48094SOL    HW146179  11.130  14.698   1.195
48094SOL    HW246180  11.239  14.790   1.245
48095SOL     OW46181  13.505   6.225   9.681
48095SOL    HW146182  13.587   6.269   9.703
48095SOL    HW246183  13.437   6.285   9.710
48096SOL     OW46184  11.045   7.594  14.720
48096SOL    HW146185  10.981   7.623  14.655
48096SOL    HW246186  11.086   7.517  14.680
48097SOL     OW46187  10.370  10.944   0.373
48097SOL    HW146188  10.296  10.999   0.400
48097SOL    HW246189  10.447  10.990   0.405
48098SOL     OW46190  13.526  10.650  11.610
48098SOL    HW146191  13.598  10.588  11.600
48098SOL    HW246192  13.555  10.727  11.560
48099SOL     OW46193   7.134  10.324   1.281
48099SOL    HW146194   7.058  10.298   1.229
48099SOL    HW246195   7.100  10.390   1.342
48100SOL     OW46196  14.144  11.836   5.803
48100SOL    HW146197  14.148  11.897   5.729
48100SOL    HW246198  14.146  11.749   5.761
48101SOL     OW46199   0.773   6.288  13.014
48101SOL    HW146200   0.808   6.371  12.981
48101SOL    HW246201   0.841   6.224  12.996
48102SOL     OW46202   5.969   5.762   0.587
48102SOL    HW146203   6.031   5.815   0.536
48102SOL    HW246204   5.951   5.816   0.665
48103SOL     OW46205   0.332  14.593  13.725
48103SOL    HW146206   0.261  14.529  13.727
48103SOL    HW246207   0.412  14.541  13.721
48104SOL     OW46208   9.514  13.661   7.040
48104SOL    HW146209   9.430  13.619   7.058
48104SOL    HW246210   9.548  13.615   6.964
48105SOL     OW46211   6.887   4.539   1.454
48105SOL    HW146212   6.825   4.484   1.405
48105SOL    HW246213   6.950   4.568   1.388
48106SOL     OW46214  13.868   6.112  10.463
48106SOL    HW146215  13.811   6.067  10.525
48106SOL    HW246216  13.949   6.062  10.465
48107SOL     OW46217   1.422  10.272  11.737
48107SOL    HW146218   1.443  10.184  11.707
48107SOL    HW246219   1.508  10.313  11.750
48108SOL     OW46220   8.683   1.951   9.382
48108SOL    HW146221   8.624   1.965   9.308
48108SOL    HW246222   8.627   1.917   9.452
48109SOL     OW46223   0.257   8.556   2.015
48109SOL    HW146224   0.329   8.551   2.077
48109SOL    HW246225   0.275   8.488   1.950
48110SOL     OW46226   7.296   5.220   8.920
48110SOL    HW146227   7.257   5.303   8.947
48110SOL    HW246228   7.331   5.238   8.833
48111SOL     OW46229   9.611   1.325   5.427
48111SOL    HW146230   9.539   1.270   5.395
48111SOL    HW246231   9.666   1.266   5.478
48112SOL     OW46232   8.164   4.186   8.342
48112SOL    HW146233   8.096   4.163   8.405
48112SOL    HW246234   8.162   4.115   8.278
48113SOL     OW46235   9.560   8.120   4.612
48113SOL    HW146236   9.655   8.108   4.605
48113SOL    HW246237   9.533   8.150   4.525
48114SOL     OW46238   9.125  13.668   8.245
48114SOL    HW146239   9.131  13.607   8.318
48114SOL    HW246240   9.205  13.720   8.251
48115SOL     OW46241   6.435  12.495   8.271
48115SOL    HW146242   6.484  12.424   8.229
48115SOL    HW246243   6.344  12.481   8.242
48116SOL     OW46244   2.650  11.789  12.631
48116SOL    HW146245   2.671  11.799  12.724
48116SOL    HW246246   2.592  11.713  12.627
48117SOL     OW46247   0.113   7.714   3.094
48117SOL    HW146248   0.128   7.678   3.181
48117SOL    HW246249   0.182   7.675   3.040
48118SOL     OW46250   4.862   8.400   1.072
48118SOL    HW146251   4.912   8.398   1.153
48118SOL    HW246252   4.770   8.396   1.100
48119SOL     OW46253   4.531  12.276   4.443
48119SOL    HW146254   4.576  12.360   4.438
48119SOL    HW246255   4.440  12.299   4.460
48120SOL     OW46256   1.231   0.378   1.750
48120SOL    HW146257   1.212   0.471   1.762
48120SOL    HW246258   1.237   0.367   1.655
48121SOL     OW46259  13.917  12.780   4.957
48121SOL    HW146260  13.962  12.827   5.027
48121SOL    HW246261  13.961  12.809   4.877
48122SOL     OW46262   1.221   8.338   8.664
48122SOL    HW146263   1.288   8.347   8.732
48122SOL    HW246264   1.271   8.317   8.585
48123SOL     OW46265   0.746  10.041   6.892
48123SOL    HW146266   0.695  10.084   6.824
48123SOL    HW246267   0.684  10.026   6.963
48124SOL     OW46268  13.698   6.693   8.036
48124SOL    HW146269  13.617   6.650   8.008
48124SOL    HW246270  13.670   6.777   8.071
48125SOL     OW46271  14.835  11.378  13.384
48125SOL    HW146272  14.866  11.289  13.368
48125SOL    HW246273  14.760  11.367  13.443
48126SOL     OW46274   8.741   6.284   5.411
48126SOL    HW146275   8.737   6.282   5.315
48126SOL    HW246276   8.828   6.251   5.433
48127SOL     OW46277  10.942   4.714   2.014
48127SOL    HW146278  10.869   4.771   2.036
48127SOL    HW246279  10.952   4.723   1.919
48128SOL     OW46280  11.153   3.925   9.447
48128SOL    HW146281  11.222   3.962   9.503
48128SOL    HW246282  11.085   3.991   9.446
48129SOL     OW46283  12.236  14.134  14.856
48129SOL    HW146284  12.198  14.166   0.056
48129SOL    HW246285  12.176  14.164  14.788
48130SOL     OW46286   7.733   6.605   0.765
48130SOL    HW146287   7.702   6.518   0.792
48130SOL    HW246288   7.778   6.639   0.843
48131SOL     OW46289   7.184  11.361   3.829
48131SOL    HW146290   7.112  11.399   3.879
48131SOL    HW246291   7.148  11.278   3.796
48132SOL     OW46292   3.916   7.256   6.466
48132SOL    HW146293   3.856   7.331   6.465
48132SOL    HW246294   3.999   7.292   6.436
48133SOL     OW46295   8.361  12.255   7.580
48133SOL    HW146296   8.439  12.215   7.541
48133SOL    HW246297   8.347  12.205   7.661
48134SOL     OW46298   8.005   5.455  14.714
48134SOL    HW146299   8.003   5.451  14.810
48134SOL    HW246300   8.029   5.367  14.687
48135SOL     OW46301   3.990   1.789   0.074
48135SOL    HW146302   3.961   1.865   0.024
48135SOL    HW246303   3.960   1.713   0.024
48136SOL     OW46304  12.193   9.240  11.828
48136SOL    HW146305  12.139   9.170  11.790
48136SOL    HW246306  12.176   9.316  11.773
48137SOL     OW46307   8.391   6.532   5.897
48137SOL    HW146308   8.469   6.537   5.841
48137SOL    HW246309   8.406   6.455   5.952
48138SOL     OW46310   4.475   3.513   8.205
48138SOL    HW146311   4.393   3.561   8.207
48138SOL    HW246312   4.540   3.576   8.175
48139SOL     OW46313  10.058  11.502  10.408
48139SOL    HW146314  10.065  11.409  10.432
48139SOL    HW246315   9.999  11.539  10.474
48140SOL     OW46316   5.745   6.494   8.267
48140SOL    HW146317   5.822   6.444   8.294
48140SOL    HW246318   5.778   6.582   8.251
48141SOL     OW46319   8.656  13.966  12.995
48141SOL    HW146320   8.731  14.008  12.952
48141SOL    HW246321   8.625  13.901  12.932
48142SOL     OW46322   9.896  13.627   0.756
48142SOL    HW146323   9.830  13.580   0.705
48142SOL    HW246324   9.847  13.666   0.828
48143SOL     OW46325  14.613   2.388   1.907
48143SOL    HW146326  14.674   2.339   1.853
48143SOL    HW246327  14.549   2.323   1.937
48144SOL     OW46328   7.319   4.350   4.853
48144SOL    HW146329   7.377   4.380   4.923
48144SOL    HW246330   7.262   4.285   4.895
48145SOL     OW46331   2.915  14.445   0.653
48145SOL    HW146332   2.946  14.389   0.582
48145SOL    HW246333   2.939  14.399   0.733
48146SOL     OW46334  12.016   9.897  13.523
48146SOL    HW146335  12.007   9.911  13.617
48146SOL    HW246336  12.029   9.984  13.487
48147SOL     OW46337   0.299  13.949   2.935
48147SOL    HW146338   0.220  13.991   2.970
48147SOL    HW246339   0.279  13.856   2.939
48148SOL     OW46340   8.456   7.831   2.217
48148SOL    HW146341   8.538   7.861   2.176
48148SOL    HW246342   8.400   7.909   2.218
48149SOL     OW46343  14.598   5.849   1.966
48149SOL    HW146344  14.611   5.944   1.971
48149SOL    HW246345  14.585   5.830   1.873
48150SOL     OW46346  13.614  11.909   8.001
48150SOL    HW146347  13.708  11.906   8.017
48150SOL    HW246348  13.593  12.003   7.997
48151SOL     OW46349  10.656  13.692  10.530
48151SOL    HW146350  10.700  13.776  10.546
48151SOL    HW246351  10.571  13.701  10.575
48152SOL     OW46352  13.022   7.978  13.667
48152SOL    HW146353  12.999   8.043  13.600
48152SOL    HW246354  13.054   7.903  13.616
48153SOL     OW46355  14.706   6.237  10.687
48153SOL    HW146356  14.656   6.208  10.763
48153SOL    HW246357  14.776   6.172  10.678
48154SOL     OW46358   8.364  12.412  11.685
48154SOL    HW146359   8.397  12.429  11.597
48154SOL    HW246360   8.433  12.442  11.744
48155SOL     OW46361   4.484   0.979   3.857
48155SOL    HW146362   4.515   1.054   3.909
48155SOL    HW246363   4.479   0.907   3.920
48156SOL     OW46364  12.830   0.415   6.277
48156SOL    HW146365  12.876   0.499   6.279
48156SOL    HW246366  12.747   0.433   6.320
48157SOL     OW46367   9.157   4.710   9.356
48157SOL    HW146368   9.197   4.758   9.284
48157SOL    HW246369   9.066   4.699   9.330
48158SOL     OW46370   2.122   8.100   1.259
48158SOL    HW146371   2.193   8.161   1.275
48158SOL    HW246372   2.067   8.144   1.194
48159SOL     OW46373   6.458   8.985  11.238
48159SOL    HW146374   6.392   8.967  11.171
48159SOL    HW246375   6.481   9.077  11.225
48160SOL     OW46376  13.298   4.612   5.429
48160SOL    HW146377  13.268   4.701   5.444
48160SOL    HW246378  13.227   4.557   5.462
48161SOL     OW46379   5.309   3.096   2.292
48161SOL    HW146380   5.287   3.055   2.208
48161SOL    HW246381   5.310   3.024   2.355
48162SOL     OW46382   9.964   5.773   5.530
48162SOL    HW146383  10.056   5.799   5.525
48162SOL    HW246384   9.916   5.854   5.512
48163SOL     OW46385   3.945  13.595   7.187
48163SOL    HW146386   3.922  13.511   7.228
48163SOL    HW246387   3.999  13.639   7.252
48164SOL     OW46388   3.802  13.120   7.545
48164SOL    HW146389   3.726  13.114   7.603
48164SOL    HW246390   3.867  13.062   7.585
48165SOL     OW46391  14.647  10.549   2.176
48165SOL    HW146392  14.575  10.569   2.117
48165SOL    HW246393  14.696  10.631   2.182
48166SOL     OW46394   5.494  14.816   2.104
48166SOL    HW146395   5.545  14.809   2.184
48166SOL    HW246396   5.403  14.818   2.133
48167SOL     OW46397   7.608  11.336   6.223
48167SOL    HW146398   7.563  11.277   6.283
48167SOL    HW246399   7.670  11.384   6.278
48168SOL     OW46400   7.413  14.797   1.515
48168SOL    HW146401   7.351  14.749   1.570
48168SOL    HW246402   7.464  14.728   1.472
48169SOL     OW46403   7.827  12.356  13.912
48169SOL    HW146404   7.806  12.410  13.988
48169SOL    HW246405   7.867  12.417  13.850
48170SOL     OW46406   5.526  13.993  10.399
48170SOL    HW146407   5.528  13.924  10.332
48170SOL    HW246408   5.458  13.965  10.459
48171SOL     OW46409   8.138   9.009   4.685
48171SOL    HW146410   8.101   9.083   4.733
48171SOL    HW246411   8.102   9.017   4.596
48172SOL     OW46412   1.000   5.743   8.025
48172SOL    HW146413   0.952   5.663   8.005
48172SOL    HW246414   1.043   5.724   8.108
48173SOL     OW46415   6.006   2.559   6.883
48173SOL    HW146416   6.005   2.466   6.861
48173SOL    HW246417   5.930   2.595   6.837
48174SOL     OW46418  12.266   5.537   8.265
48174SOL    HW146419  12.177   5.571   8.260
48174SOL    HW246420  12.288   5.540   8.358
48175SOL     OW46421   5.521   4.439   2.665
48175SOL    HW146422   5.606   4.472   2.636
48175SOL    HW246423   5.540   4.397   2.749
48176SOL     OW46424   9.234  13.749   3.242
48176SOL    HW146425   9.150  13.703   3.249
48176SOL    HW246426   9.281  13.701   3.174
48177SOL     OW46427   8.606   4.080   7.608
48177SOL    HW146428   8.626   3.996   7.651
48177SOL    HW246429   8.515   4.070   7.579
48178SOL     OW46430   9.643   3.545   8.147
48178SOL    HW146431   9.574   3.612   8.150
48178SOL    HW246432   9.646   3.517   8.056
48179SOL     OW46433  12.459  13.371   3.776
48179SOL    HW146434  12.446  13.444   3.837
48179SOL    HW246435  12.553  13.356   3.776
48180SOL     OW46436  13.354   2.597  14.686
48180SOL    HW146437  13.262   2.582  14.663
48180SOL    HW246438  13.351   2.657  14.760
48181SOL     OW46439   9.065   9.434   2.065
48181SOL    HW146440   9.069   9.505   2.128
48181SOL    HW246441   8.993   9.458   2.006
48182SOL     OW46442  14.245   7.691   3.484
48182SOL    HW146443  14.334   7.725   3.474
48182SOL    HW246444  14.235   7.630   3.410
48183SOL     OW46445  10.155   2.056  14.854
48183SOL    HW146446  10.189   1.966  14.852
48183SOL    HW246447  10.064   2.047  14.827
48184SOL     OW46448  13.148   7.001   4.508
48184SOL    HW146449  13.194   7.085   4.501
48184SOL    HW246450  13.070   7.021   4.559
48185SOL     OW46451  10.733  10.863  13.990
48185SOL    HW146452  10.723  10.887  13.898
48185SOL    HW246453  10.793  10.928  14.027
48186SOL     OW46454   1.168  10.987   5.171
48186SOL    HW146455   1.084  11.028   5.154
48186SOL    HW246456   1.195  11.022   5.256
48187SOL     OW46457   5.926   9.817  10.130
48187SOL    HW146458   5.972   9.815  10.214
48187SOL    HW246459   5.923   9.725  10.103
48188SOL     OW46460  11.318   4.726  13.937
48188SOL    HW146461  11.332   4.636  13.907
48188SOL    HW246462  11.405   4.765  13.937
48189SOL     OW46463  14.695   8.799   1.192
48189SOL    HW146464  14.718   8.885   1.157
48189SOL    HW246465  14.627   8.819   1.257
48190SOL     OW46466   4.981   9.037   3.604
48190SOL    HW146467   4.892   9.013   3.629
48190SOL    HW246468   5.007   9.104   3.668
48191SOL     OW46469   5.766   2.152  12.216
48191SOL    HW146470   5.718   2.225  12.254
48191SOL    HW246471   5.854   2.159  12.252
48192SOL     OW46472  13.281   4.066   7.176
48192SOL    HW146473  13.308   4.092   7.088
48192SOL    HW246474  13.198   4.019   7.163
48193SOL     OW46475  11.805  12.448   6.717
48193SOL    HW146476  11.741  12.470   6.785
48193SOL    HW246477  11.767  12.373   6.671
48194SOL     OW46478  10.142   6.338   3.345
48194SOL    HW146479  10.184   6.252   3.342
48194SOL    HW246480  10.057   6.322   3.385
48195SOL     OW46481   0.422  11.123   8.340
48195SOL    HW146482   0.473  11.161   8.411
48195SOL    HW246483   0.339  11.173   8.341
48196SOL     OW46484   3.750  10.666   2.845
48196SOL    HW146485   3.669  10.695   2.887
48196SOL    HW246486   3.738  10.572   2.834
48197SOL     OW46487   6.772  12.983  11.509
48197SOL    HW146488   6.763  12.945  11.422
48197SOL    HW246489   6.719  13.063  11.506
48198SOL     OW46490   3.543   3.936  14.619
48198SOL    HW146491   3.473   3.991  14.652
48198SOL    HW246492   3.623   3.979  14.649
48199SOL     OW46493  13.471   3.947   9.141
48199SOL    HW146494  13.479   4.008   9.068
48199SOL    HW246495  13.544   3.969   9.200
48200SOL     OW46496  14.450  14.707   2.203
48200SOL    HW146497  14.516  14.654   2.160
48200SOL    HW246498  14.496  14.745   2.278
48201SOL     OW46499   7.437  12.927   5.914
48201SOL    HW146500   7.350  12.928   5.956
48201SOL    HW246501   7.493  12.880   5.975
48202SOL     OW46502   1.558   5.093   3.265
48202SOL    HW146503   1.609   5.173   3.278
48202SOL    HW246504   1.516   5.078   3.350
48203SOL     OW46505   7.996   6.949   3.981
48203SOL    HW146506   7.927   6.987   3.927
48203SOL    HW246507   7.996   7.002   4.060
48204SOL     OW46508   6.554   8.185   4.171
48204SOL    HW146509   6.638   8.225   4.150
48204SOL    HW246510   6.491   8.257   4.166
48205SOL     OW46511   5.564  13.090  12.139
48205SOL    HW146512   5.526  13.021  12.085
48205SOL    HW246513   5.641  13.050  12.179
48206SOL     OW46514   2.243   0.803  11.244
48206SOL    HW146515   2.325   0.821  11.197
48206SOL    HW246516   2.270   0.772  11.330
48207SOL     OW46517   3.236   4.051  14.207
48207SOL    HW146518   3.228   4.143  14.181
48207SOL    HW246519   3.322   4.045  14.247
48208SOL     OW46520   5.740   5.349  13.061
48208SOL    HW146521   5.781   5.380  12.980
48208SOL    HW246522   5.648   5.337  13.038
48209SOL     OW46523   5.398   6.701  13.179
48209SOL    HW146524   5.399   6.789  13.141
48209SOL    HW246525   5.328   6.655  13.132
48210SOL     OW46526  13.061   8.360  12.267
48210SOL    HW146527  13.128   8.321  12.211
48210SOL    HW246528  13.105   8.375  12.350
48211SOL     OW46529  11.084   7.785  12.094
48211SOL    HW146530  11.175   7.815  12.082
48211SOL    HW246531  11.053   7.765  12.006
48212SOL     OW46532   4.863   3.012  14.226
48212SOL    HW146533   4.930   2.947  14.204
48212SOL    HW246534   4.913   3.094  14.236
48213SOL     OW46535   1.563   6.055   2.230
48213SOL    HW146536   1.528   6.038   2.317
48213SOL    HW246537   1.594   6.145   2.234
48214SOL     OW46538   6.146   5.895  11.956
48214SOL    HW146539   6.174   5.803  11.952
48214SOL    HW246540   6.098   5.901  12.039
48215SOL     OW46541   2.849  12.989   2.599
48215SOL    HW146542   2.919  12.973   2.662
48215SOL    HW246543   2.895  13.006   2.516
48216SOL     OW46544  12.249  13.733   9.943
48216SOL    HW146545  12.303  13.689   9.878
48216SOL    HW246546  12.295  13.718  10.026
48217SOL     OW46547   0.495   8.428   3.581
48217SOL    HW146548   0.427   8.375   3.538
48217SOL    HW246549   0.467   8.430   3.673
48218SOL     OW46550   6.792   0.761   4.563
48218SOL    HW146551   6.723   0.767   4.498
48218SOL    HW246552   6.840   0.681   4.541
48219SOL     OW46553   2.075   6.530   2.388
48219SOL    HW146554   2.120   6.585   2.453
48219SOL    HW246555   2.051   6.451   2.436
48220SOL     OW46556   6.762   3.498   9.294
48220SOL    HW146557   6.681   3.452   9.313
48220SOL    HW246558   6.824   3.467   9.360
48221SOL     OW46559   0.567   6.786  11.985
48221SOL    HW146560   0.621   6.707  11.995
48221SOL    HW246561   0.592   6.821  11.899
48222SOL     OW46562   7.063   0.546  12.225
48222SOL    HW146563   7.084   0.578  12.312
48222SOL    HW246564   6.985   0.491  12.238
48223SOL     OW46565  10.438   1.227  13.934
48223SOL    HW146566  10.385   1.184  14.001
48223SOL    HW246567  10.399   1.313  13.923
48224SOL     OW46568   0.764   3.901   3.510
48224SOL    HW146569   0.713   3.974   3.476
48224SOL    HW246570   0.753   3.906   3.605
48225SOL     OW46571   7.796   2.832   6.752
48225SOL    HW146572   7.708   2.798   6.769
48225SOL    HW246573   7.826   2.784   6.675
48226SOL     OW46574   9.741  14.395   5.836
48226SOL    HW146575   9.768  14.402   5.744
48226SOL    HW246576   9.646  14.405   5.834
48227SOL     OW46577  11.614  11.635   0.602
48227SOL    HW146578  11.681  11.667   0.542
48227SOL    HW246579  11.575  11.561   0.556
48228SOL     OW46580   5.390   5.805   7.729
48228SOL    HW146581   5.400   5.900   7.726
48228SOL    HW246582   5.457   5.776   7.791
48229SOL     OW46583   8.887  10.868  10.780
48229SOL    HW146584   8.964  10.835  10.734
48229SOL    HW246585   8.822  10.798  10.769
48230SOL     OW46586   8.832  14.433  10.918
48230SOL    HW146587   8.824  14.342  10.890
48230SOL    HW246588   8.762  14.479  10.872
48231SOL     OW46589   9.081   2.115   7.476
48231SOL    HW146590   9.069   2.024   7.449
48231SOL    HW246591   9.165   2.115   7.522
48232SOL     OW46592  13.640   3.029   8.812
48232SOL    HW146593  13.572   3.057   8.874
48232SOL    HW246594  13.633   3.090   8.739
48233SOL     OW46595   2.521   3.922   1.709
48233SOL    HW146596   2.513   3.878   1.793
48233SOL    HW246597   2.433   3.958   1.693
48234SOL     OW46598  11.679  10.119   7.825
48234SOL    HW146599  11.624  10.062   7.771
48234SOL    HW246600  11.658  10.093   7.915
48235SOL     OW46601  14.700   3.712   8.446
48235SOL    HW146602  14.676   3.749   8.531
48235SOL    HW246603  14.657   3.627   8.444
48236SOL     OW46604  14.369   7.299   6.683
48236SOL    HW146605  14.442   7.360   6.692
48236SOL    HW246606  14.403   7.216   6.717
48237SOL     OW46607   0.457  14.223   1.814
48237SOL    HW146608   0.451  14.304   1.865
48237SOL    HW246609   0.367  14.190   1.810
48238SOL     OW46610   6.532   7.007  12.044
48238SOL    HW146611   6.602   6.963  11.997
48238SOL    HW246612   6.576   7.069  12.101
48239SOL     OW46613  12.609  12.253   7.041
48239SOL    HW146614  12.636  12.331   7.090
48239SOL    HW246615  12.638  12.179   7.094
48240SOL     OW46616   8.903   6.968   7.370
48240SOL    HW146617   8.899   6.921   7.454
48240SOL    HW246618   8.836   7.035   7.377
48241SOL     OW46619   1.157   3.655  12.985
48241SOL    HW146620   1.156   3.567  13.021
48241SOL    HW246621   1.070   3.690  13.006
48242SOL     OW46622   5.699   5.690   0.593
48242SOL    HW146623   5.793   5.708   0.583
48242SOL    HW246624   5.665   5.692   0.504
48243SOL     OW46625   5.665   6.233  13.453
48243SOL    HW146626   5.667   6.138  13.442
48243SOL    HW246627   5.712   6.248  13.535
48244SOL     OW46628   2.714   7.956   4.126
48244SOL    HW146629   2.655   7.999   4.064
48244SOL    HW246630   2.801   7.965   4.086
48245SOL     OW46631   8.939   2.489  14.313
48245SOL    HW146632   9.000   2.433  14.362
48245SOL    HW246633   8.970   2.578  14.327
48246SOL     OW46634  12.193  14.048   7.933
48246SOL    HW146635  12.256  14.102   7.981
48246SOL    HW246636  12.213  14.064   7.841
48247SOL     OW46637   7.344  13.031  12.668
48247SOL    HW146638   7.332  12.936  12.663
48247SOL    HW246639   7.305  13.064  12.587
48248SOL     OW46640  12.924  13.570   8.940
48248SOL    HW146641  13.010  13.551   8.901
48248SOL    HW246642  12.901  13.656   8.905
48249SOL     OW46643  11.940   9.847   3.328
48249SOL    HW146644  11.994   9.824   3.403
48249SOL    HW246645  11.890   9.768   3.309
48250SOL     OW46646   9.393   2.180   0.515
48250SOL    HW146647   9.351   2.100   0.484
48250SOL    HW246648   9.478   2.181   0.472
48251SOL     OW46649   7.860  11.680   8.891
48251SOL    HW146650   7.853  11.614   8.822
48251SOL    HW246651   7.898  11.633   8.966
48252SOL     OW46652   9.103  14.718   1.366
48252SOL    HW146653   9.021  14.724   1.318
48252SOL    HW246654   9.076  14.694   1.455
48253SOL     OW46655  14.126  11.937   5.329
48253SOL    HW146656  14.106  11.928   5.236
48253SOL    HW246657  14.217  11.968   5.330
48254SOL     OW46658   5.228  14.657   9.405
48254SOL    HW146659   5.198  14.650   9.314
48254SOL    HW246660   5.182  14.587   9.451
48255SOL     OW46661  13.508  10.774   0.891
48255SOL    HW146662  13.422  10.748   0.925
48255SOL    HW246663  13.494  10.782   0.796
48256SOL     OW46664   3.273   5.760   0.114
48256SOL    HW146665   3.227   5.676   0.113
48256SOL    HW246666   3.217   5.818   0.166
48257SOL     OW46667   1.166   4.628   8.723
48257SOL    HW146668   1.223   4.588   8.789
48257SOL    HW246669   1.078   4.598   8.746
48258SOL     OW46670   2.007  11.711   1.130
48258SOL    HW146671   2.033  11.791   1.177
48258SOL    HW246672   1.975  11.652   1.198
48259SOL     OW46673   4.692   5.899  13.370
48259SOL    HW146674   4.646   5.817  13.384
48259SOL    HW246675   4.631   5.954  13.322
48260SOL     OW46676  13.066   6.869   7.794
48260SOL    HW146677  13.068   6.964   7.810
48260SOL    HW246678  12.995   6.858   7.730
48261SOL     OW46679  10.445   8.628  12.372
48261SOL    HW146680  10.528   8.646  12.416
48261SOL    HW246681  10.397   8.573  12.433
48262SOL     OW46682   2.069  11.774   0.095
48262SOL    HW146683   2.043  11.742   0.181
48262SOL    HW246684   2.132  11.844   0.113
48263SOL     OW46685   3.717  13.741   2.413
48263SOL    HW146686   3.757  13.707   2.493
48263SOL    HW246687   3.740  13.677   2.345
48264SOL     OW46688   4.694   3.026   8.581
48264SOL    HW146689   4.621   3.010   8.520
48264SOL    HW246690   4.663   2.989   8.664
48265SOL     OW46691   8.554   5.617   2.392
48265SOL    HW146692   8.516   5.696   2.353
48265SOL    HW246693   8.503   5.545   2.354
48266SOL     OW46694   9.820   9.621   8.915
48266SOL    HW146695   9.750   9.584   8.861
48266SOL    HW246696   9.869   9.545   8.946
48267SOL     OW46697   1.566   0.315   5.288
48267SOL    HW146698   1.603   0.390   5.241
48267SOL    HW246699   1.472   0.331   5.288
48268SOL     OW46700   9.647   9.094   3.043
48268SOL    HW146701   9.721   9.121   3.097
48268SOL    HW246702   9.585   9.054   3.105
48269SOL     OW46703   7.723   3.446  13.203
48269SOL    HW146704   7.785   3.425  13.272
48269SOL    HW246705   7.730   3.373  13.141
48270SOL     OW46706   0.833  13.432  10.379
48270SOL    HW146707   0.833  13.337  10.378
48270SOL    HW246708   0.805  13.457  10.291
48271SOL     OW46709  12.604   3.889  10.890
48271SOL    HW146710  12.604   3.978  10.923
48271SOL    HW246711  12.643   3.837  10.961
48272SOL     OW46712   2.581   3.159   0.697
48272SOL    HW146713   2.539   3.092   0.643
48272SOL    HW246714   2.669   3.167   0.661
48273SOL     OW46715   6.150  12.264   1.345
48273SOL    HW146716   6.193  12.216   1.274
48273SOL    HW246717   6.125  12.347   1.305
48274SOL     OW46718  13.884   2.035   5.720
48274SOL    HW146719  13.853   2.082   5.797
48274SOL    HW246720  13.882   1.943   5.745
48275SOL     OW46721   8.016   0.149   5.930
48275SOL    HW146722   8.071   0.146   5.852
48275SOL    HW246723   8.072   0.116   6.000
48276SOL     OW46724  13.821  13.549   8.531
48276SOL    HW146725  13.906  13.515   8.502
48276SOL    HW246726  13.842  13.636   8.566
48277SOL     OW46727  13.203   1.516   4.430
48277SOL    HW146728  13.180   1.426   4.453
48277SOL    HW246729  13.120   1.564   4.438
48278SOL     OW46730   6.649   1.209   6.267
48278SOL    HW146731   6.696   1.290   6.285
48278SOL    HW246732   6.667   1.154   6.343
48279SOL     OW46733   0.271   7.001  11.867
48279SOL    HW146734   0.300   6.911  11.857
48279SOL    HW246735   0.284   7.020  11.960
48280SOL     OW46736   0.139  13.770  10.227
48280SOL    HW146737   0.059  13.734  10.187
48280SOL    HW246738   0.113  13.856  10.259
48281SOL     OW46739   4.082  11.548  10.321
48281SOL    HW146740   4.153  11.574  10.380
48281SOL    HW246741   4.029  11.627  10.312
48282SOL     OW46742   5.951   4.932  12.515
48282SOL    HW146743   5.923   5.017  12.482
48282SOL    HW246744   6.026   4.909  12.461
48283SOL     OW46745   3.627   1.211  12.226
48283SOL    HW146746   3.651   1.265  12.151
48283SOL    HW246747   3.691   1.141  12.227
48284SOL     OW46748  14.358   9.026   3.616
48284SOL    HW146749  14.379   9.024   3.710
48284SOL    HW246750  14.289   8.960   3.606
48285SOL     OW46751   1.216   8.654  11.500
48285SOL    HW146752   1.127   8.631  11.528
48285SOL    HW246753   1.204   8.716  11.429
48286SOL     OW46754   3.573   1.392  10.912
48286SOL    HW146755   3.598   1.419  11.000
48286SOL    HW246756   3.645   1.424  10.856
48287SOL     OW46757   0.895  14.608  11.311
48287SOL    HW146758   0.875  14.537  11.251
48287SOL    HW246759   0.827  14.674  11.294
48288SOL     OW46760   9.728   2.269   2.905
48288SOL    HW146761   9.803   2.315   2.943
48288SOL    HW246762   9.722   2.187   2.955
48289SOL     OW46763   5.501   9.679   9.009
48289SOL    HW146764   5.424   9.736   9.016
48289SOL    HW246765   5.466   9.590   9.016
48290SOL     OW46766   3.206   1.301   0.554
48290SOL    HW146767   3.122   1.300   0.599
48290SOL    HW246768   3.239   1.390   0.567
48291SOL     OW46769   7.064   8.720   6.228
48291SOL    HW146770   7.158   8.701   6.230
48291SOL    HW246771   7.028   8.671   6.302
48292SOL     OW46772   4.507   1.626   6.563
48292SOL    HW146773   4.488   1.596   6.652
48292SOL    HW246774   4.498   1.547   6.509
48293SOL     OW46775  11.719   6.589   3.322
48293SOL    HW146776  11.637   6.541   3.321
48293SOL    HW246777  11.741   6.601   3.230
48294SOL     OW46778   1.261  10.673   2.328
48294SOL    HW146779   1.279  10.666   2.421
48294SOL    HW246780   1.322  10.739   2.296
48295SOL     OW46781   7.994  14.081   2.213
48295SOL    HW146782   8.054  14.094   2.285
48295SOL    HW246783   8.041  14.113   2.136
48296SOL     OW46784  10.851   5.681   2.583
48296SOL    HW146785  10.924   5.632   2.546
48296SOL    HW246786  10.826   5.632   2.661
48297SOL     OW46787   5.760  11.494   9.337
48297SOL    HW146788   5.727  11.405   9.349
48297SOL    HW246789   5.843  11.483   9.291
48298SOL     OW46790   1.623  13.823   9.934
48298SOL    HW146791   1.575  13.772   9.999
48298SOL    HW246792   1.646  13.761   9.866
48299SOL     OW46793  13.955   2.062  13.998
48299SOL    HW146794  13.988   2.061  14.087
48299SOL    HW246795  14.024   2.105  13.947
48300SOL     OW46796   8.366  13.325  13.107
48300SOL    HW146797   8.277  13.297  13.130
48300SOL    HW246798   8.354  13.385  13.034
48301SOL     OW46799   2.460   2.675   8.630
48301SOL    HW146800   2.406   2.653   8.706
48301SOL    HW246801   2.476   2.769   8.639
48302SOL     OW46802  14.636   4.167   1.236
48302SOL    HW146803  14.725   4.190   1.209
48302SOL    HW246804  14.583   4.243   1.210
48303SOL     OW46805   0.296  11.958  14.055
48303SOL    HW146806   0.332  11.932  14.140
48303SOL    HW246807   0.373  11.988  14.005
48304SOL     OW46808   4.703  11.214   9.905
48304SOL    HW146809   4.797  11.197   9.897
48304SOL    HW246810   4.696  11.299   9.948
48305SOL     OW46811   9.428  10.463   7.831
48305SOL    HW146812   9.466  10.491   7.914
48305SOL    HW246813   9.403  10.372   7.845
48306SOL     OW46814   3.652   5.295   5.814
48306SOL    HW146815   3.606   5.268   5.893
48306SOL    HW246816   3.633   5.388   5.805
48307SOL     OW46817   7.105   8.264   8.398
48307SOL    HW146818   7.154   8.276   8.317
48307SOL    HW246819   7.032   8.327   8.391
48308SOL     OW46820   0.328  12.859   5.142
48308SOL    HW146821   0.356  12.949   5.128
48308SOL    HW246822   0.278  12.837   5.064
48309SOL     OW46823   2.401   9.197   4.931
48309SOL    HW146824   2.426   9.142   4.857
48309SOL    HW246825   2.373   9.135   4.999
48310SOL     OW46826  13.794   9.063  13.318
48310SOL    HW146827  13.805   9.157  13.333
48310SOL    HW246828  13.761   9.056  13.228
48311SOL     OW46829  14.676   6.497   8.621
48311SOL    HW146830  14.639   6.441   8.554
48311SOL    HW246831  14.734   6.440   8.672
48312SOL     OW46832   9.587   3.276   0.125
48312SOL    HW146833   9.492   3.284   0.129
48312SOL    HW246834   9.604   3.221   0.048
48313SOL     OW46835   8.009   6.790  13.302
48313SOL    HW146836   7.943   6.738  13.348
48313SOL    HW246837   8.039   6.734  13.231
48314SOL     OW46838  11.455   8.362   1.337
48314SOL    HW146839  11.384   8.426   1.346
48314SOL    HW246840  11.508   8.396   1.265
48315SOL     OW46841   1.421  10.370  10.646
48315SOL    HW146842   1.391  10.297  10.701
48315SOL    HW246843   1.343  10.422  10.631
48316SOL     OW46844   8.276  14.856  12.898
48316SOL    HW146845   8.198  14.882  12.946
48316SOL    HW246846   8.248  14.849  12.807
48317SOL     OW46847   7.658   6.107   1.532
48317SOL    HW146848   7.669   6.151   1.616
48317SOL    HW246849   7.703   6.023   1.543
48318SOL     OW46850  13.367   4.977   1.622
48318SOL    HW146851  13.404   5.058   1.657
48318SOL    HW246852  13.443   4.923   1.602
48319SOL     OW46853  10.851  14.702  10.008
48319SOL    HW146854  10.856  14.779  10.065
48319SOL    HW246855  10.767  14.710   9.963
48320SOL     OW46856  10.743  10.112   1.495
48320SOL    HW146857  10.669  10.170   1.479
48320SOL    HW246858  10.758  10.068   1.411
48321SOL     OW46859   3.063   2.887  11.973
48321SOL    HW146860   3.101   2.896  12.060
48321SOL    HW246861   3.006   2.964  11.964
48322SOL     OW46862   9.422  12.494   6.025
48322SOL    HW146863   9.418  12.577   5.978
48322SOL    HW246864   9.508  12.493   6.066
48323SOL     OW46865   2.875   4.100  11.732
48323SOL    HW146866   2.831   4.146  11.803
48323SOL    HW246867   2.808   4.043  11.695
48324SOL     OW46868  12.585   3.134   2.271
48324SOL    HW146869  12.669   3.088   2.275
48324SOL    HW246870  12.531   3.093   2.338
48325SOL     OW46871   4.480   5.944  11.162
48325SOL    HW146872   4.477   6.013  11.228
48325SOL    HW246873   4.571   5.915  11.162
48326SOL     OW46874   0.165   2.773   7.976
48326SOL    HW146875   0.236   2.820   8.019
48326SOL    HW246876   0.096   2.766   8.043
48327SOL     OW46877  10.425  10.565  11.898
48327SOL    HW146878  10.442  10.479  11.861
48327SOL    HW246879  10.512  10.600  11.917
48328SOL     OW46880  13.721   0.619   3.158
48328SOL    HW146881  13.720   0.714   3.152
48328SOL    HW246882  13.671   0.589   3.082
48329SOL     OW46883   0.209   1.751   2.882
48329SOL    HW146884   0.262   1.680   2.844
48329SOL    HW246885   0.215   1.822   2.819
48330SOL     OW46886   1.387   3.632   8.309
48330SOL    HW146887   1.302   3.645   8.349
48330SOL    HW246888   1.379   3.672   8.222
48331SOL     OW46889  13.833   9.410  11.663
48331SOL    HW146890  13.859   9.369  11.746
48331SOL    HW246891  13.880   9.493  11.661
48332SOL     OW46892   9.529   4.286  11.866
48332SOL    HW146893   9.467   4.301  11.939
48332SOL    HW246894   9.562   4.373  11.846
48333SOL     OW46895   0.163   7.920  11.714
48333SOL    HW146896   0.129   7.995  11.665
48333SOL    HW246897   0.205   7.958  11.791
48334SOL     OW46898  13.008   4.079  13.680
48334SOL    HW146899  12.985   4.114  13.594
48334SOL    HW246900  12.957   4.132  13.742
48335SOL     OW46901  14.851   0.700   9.785
48335SOL    HW146902  14.786   0.712   9.716
48335SOL    HW246903  14.843   0.778   9.840
48336SOL     OW46904  11.910   9.654   2.163
48336SOL    HW146905  11.952   9.711   2.227
48336SOL    HW246906  11.881   9.577   2.213
48337SOL     OW46907  11.814   0.315  12.090
48337SOL    HW146908  11.900   0.356  12.099
48337SOL    HW246909  11.833   0.230  12.049
48338SOL     OW46910   1.346   9.585   3.323
48338SOL    HW146911   1.325   9.590   3.230
48338SOL    HW246912   1.262   9.568   3.365
48339SOL     OW46913   5.711   7.944  14.326
48339SOL    HW146914   5.755   7.964  14.243
48339SOL    HW246915   5.763   7.872  14.362
48340SOL     OW46916   5.491   5.982   8.765
48340SOL    HW146917   5.506   6.069   8.726
48340SOL    HW246918   5.409   5.952   8.726
48341SOL     OW46919  12.735   2.875   9.197
48341SOL    HW146920  12.681   2.902   9.124
48341SOL    HW246921  12.780   2.955   9.225
48342SOL     OW46922  11.610  14.229   3.438
48342SOL    HW146923  11.558  14.277   3.502
48342SOL    HW246924  11.694  14.275   3.435
48343SOL     OW46925  13.067   2.532   2.662
48343SOL    HW146926  13.148   2.503   2.620
48343SOL    HW246927  13.001   2.526   2.593
48344SOL     OW46928   4.226   8.239   0.513
48344SOL    HW146929   4.246   8.327   0.545
48344SOL    HW246930   4.292   8.222   0.445
48345SOL     OW46931  10.646   8.524   0.136
48345SOL    HW146932  10.706   8.581   0.087
48345SOL    HW246933  10.694   8.442   0.144
48346SOL     OW46934   5.055  13.658   8.387
48346SOL    HW146935   5.055  13.710   8.306
48346SOL    HW246936   5.011  13.714   8.451
48347SOL     OW46937   7.492  11.913   8.908
48347SOL    HW146938   7.551  11.845   8.941
48347SOL    HW246939   7.407  11.869   8.901
48348SOL     OW46940  10.638   9.276   2.916
48348SOL    HW146941  10.609   9.348   2.972
48348SOL    HW246942  10.734   9.280   2.920
48349SOL     OW46943   9.198   6.584   5.099
48349SOL    HW146944   9.169   6.544   5.181
48349SOL    HW246945   9.293   6.582   5.103
48350SOL     OW46946   9.768   6.110  13.846
48350SOL    HW146947   9.807   6.158  13.773
48350SOL    HW246948   9.828   6.124  13.919
48351SOL     OW46949  12.649  12.680   1.327
48351SOL    HW146950  12.730  12.648   1.367
48351SOL    HW246951  12.656  12.654   1.235
48352SOL     OW46952   0.928   2.299  14.069
48352SOL    HW146953   0.981   2.357  14.124
48352SOL    HW246954   0.909   2.351  13.991
48353SOL     OW46955   3.164   3.216  13.855
48353SOL    HW146956   3.159   3.126  13.824
48353SOL    HW246957   3.110   3.218  13.933
48354SOL     OW46958   7.187   5.326   9.608
48354SOL    HW146959   7.203   5.355   9.698
48354SOL    HW246960   7.165   5.233   9.616
48355SOL     OW46961   1.857   8.524  11.981
48355SOL    HW146962   1.892   8.590  12.040
48355SOL    HW246963   1.930   8.502  11.922
48356SOL     OW46964   8.711   6.878   4.718
48356SOL    HW146965   8.785   6.939   4.722
48356SOL    HW246966   8.650   6.919   4.656
48357SOL     OW46967   6.551  11.755  11.070
48357SOL    HW146968   6.473  11.699  11.064
48357SOL    HW246969   6.611  11.720  11.005
48358SOL     OW46970   2.199   7.087  14.407
48358SOL    HW146971   2.212   7.182  14.413
48358SOL    HW246972   2.145   7.075  14.329
48359SOL     OW46973   9.134  14.335   8.610
48359SOL    HW146974   9.121  14.383   8.692
48359SOL    HW246975   9.169  14.250   8.637
48360SOL     OW46976  13.498   6.126   2.241
48360SOL    HW146977  13.428   6.098   2.181
48360SOL    HW246978  13.459   6.121   2.328
48361SOL     OW46979  14.047   8.071  11.500
48361SOL    HW146980  14.110   8.064  11.428
48361SOL    HW246981  14.076   8.005  11.564
48362SOL     OW46982   1.370   6.650   9.293
48362SOL    HW146983   1.402   6.697   9.370
48362SOL    HW246984   1.290   6.696   9.268
48363SOL     OW46985   1.964   4.061   1.048
48363SOL    HW146986   2.046   4.012   1.035
48363SOL    HW246987   1.987   4.151   1.026
48364SOL     OW46988   3.467   0.019   6.751
48364SOL    HW146989   3.446   0.036   6.842
48364SOL    HW246990   3.417   0.084   6.702
48365SOL     OW46991   5.413  11.836   3.999
48365SOL    HW146992   5.377  11.812   3.914
48365SOL    HW246993   5.504  11.807   3.996
48366SOL     OW46994   8.025   6.855   8.204
48366SOL    HW146995   8.084   6.789   8.240
48366SOL    HW246996   8.053   6.937   8.243
48367SOL     OW46997  13.968   4.633  11.309
48367SOL    HW146998  14.044   4.630  11.251
48367SOL    HW246999  13.941   4.725  11.309
48368SOL     OW47000   1.248  14.181   8.840
48368SOL    HW147001   1.191  14.107   8.820
48368SOL    HW247002   1.335  14.143   8.848
48369SOL     OW47003  14.197   3.404  10.735
48369SOL    HW147004  14.154   3.430  10.654
48369SOL    HW247005  14.139   3.435  10.805
48370SOL     OW47006   9.936   7.025  10.443
48370SOL    HW147007   9.950   7.104  10.392
48370SOL    HW247008  10.020   7.007  10.484
48371SOL     OW47009   5.610   1.167  13.363
48371SOL    HW147010   5.688   1.122  13.331
48371SOL    HW247011   5.628   1.183  13.456
48372SOL     OW47012   7.411   0.784  10.700
48372SOL    HW147013   7.403   0.781  10.605
48372SOL    HW247014   7.498   0.822  10.715
48373SOL     OW47015  11.529  13.230  14.778
48373SOL    HW147016  11.581  13.175  14.719
48373SOL    HW247017  11.525  13.180  14.860
48374SOL     OW47018   5.457   7.948   1.090
48374SOL    HW147019   5.514   7.971   1.017
48374SOL    HW247020   5.414   8.031   1.114
48375SOL     OW47021  10.249  12.285   0.827
48375SOL    HW147022  10.191  12.321   0.760
48375SOL    HW247023  10.325  12.343   0.828
48376SOL     OW47024   0.945   8.259  10.104
48376SOL    HW147025   1.006   8.333  10.101
48376SOL    HW247026   0.875   8.289  10.162
48377SOL     OW47027  10.016   2.288   0.416
48377SOL    HW147028   9.936   2.236   0.424
48377SOL    HW247029  10.020   2.311   0.323
48378SOL     OW47030   0.698   5.293  11.916
48378SOL    HW147031   0.612   5.332  11.932
48378SOL    HW247032   0.696   5.210  11.964
48379SOL     OW47033  11.251   3.097  10.266
48379SOL    HW147034  11.235   3.189  10.287
48379SOL    HW247035  11.227   3.088  10.174
48380SOL     OW47036   6.186   5.618  13.910
48380SOL    HW147037   6.105   5.567  13.914
48380SOL    HW247038   6.240   5.574  13.844
48381SOL     OW47039  12.343   8.252  11.998
48381SOL    HW147040  12.375   8.188  11.935
48381SOL    HW247041  12.399   8.329  11.985
48382SOL     OW47042   4.056   8.378   7.646
48382SOL    HW147043   4.077   8.374   7.739
48382SOL    HW247044   4.117   8.316   7.605
48383SOL     OW47045  10.206   1.879   4.664
48383SOL    HW147046  10.187   1.954   4.607
48383SOL    HW247047  10.138   1.815   4.643
48384SOL     OW47048  13.015   6.677   1.056
48384SOL    HW147049  13.097   6.699   1.012
48384SOL    HW247050  12.973   6.614   0.998
48385SOL     OW47051   6.251   3.736  12.242
48385SOL    HW147052   6.198   3.656  12.251
48385SOL    HW247053   6.318   3.728  12.310
48386SOL     OW47054   1.017   9.831  10.354
48386SOL    HW147055   0.969   9.759  10.395
48386SOL    HW247056   0.989   9.909  10.402
48387SOL     OW47057  11.400  14.263   5.992
48387SOL    HW147058  11.312  14.238   6.020
48387SOL    HW247059  11.423  14.336   6.049
48388SOL     OW47060   3.669  11.760  14.115
48388SOL    HW147061   3.627  11.781  14.199
48388SOL    HW247062   3.744  11.819  14.110
48389SOL     OW47063   2.230   3.465   4.889
48389SOL    HW147064   2.279   3.541   4.857
48389SOL    HW247065   2.261   3.392   4.836
48390SOL     OW47066   8.683  14.344   8.316
48390SOL    HW147067   8.776  14.345   8.292
48390SOL    HW247068   8.654  14.434   8.304
48391SOL     OW47069  11.379   8.924  11.098
48391SOL    HW147070  11.374   8.925  11.003
48391SOL    HW247071  11.288   8.915  11.127
48392SOL     OW47072   1.526  12.214   3.432
48392SOL    HW147073   1.541  12.197   3.525
48392SOL    HW247074   1.593  12.278   3.407
48393SOL     OW47075   2.436   3.131   0.279
48393SOL    HW147076   2.371   3.117   0.210
48393SOL    HW247077   2.416   3.065   0.345
48394SOL     OW47078   7.736  10.221   0.502
48394SOL    HW147079   7.654  10.226   0.453
48394SOL    HW247080   7.770  10.133   0.485
48395SOL     OW47081   0.482   1.605   8.384
48395SOL    HW147082   0.469   1.516   8.416
48395SOL    HW247083   0.412   1.617   8.319
48396SOL     OW47084  13.277   9.130   0.411
48396SOL    HW147085  13.255   9.223   0.419
48396SOL    HW247086  13.353   9.128   0.353
48397SOL     OW47087   2.524   5.010   9.054
48397SOL    HW147088   2.494   5.014   8.963
48397SOL    HW247089   2.460   5.063   9.102
48398SOL     OW47090  13.167   9.430   9.000
48398SOL    HW147091  13.167   9.342   9.038
48398SOL    HW247092  13.084   9.469   9.030
48399SOL     OW47093   5.340  14.608  13.933
48399SOL    HW147094   5.310  14.573  13.849
48399SOL    HW247095   5.303  14.548  13.998
48400SOL     OW47096   5.583  13.088   5.998
48400SOL    HW147097   5.536  13.172   5.999
48400SOL    HW247098   5.627  13.087   5.913
48401SOL     OW47099  13.160  12.426   5.098
48401SOL    HW147100  13.217  12.429   5.022
48401SOL    HW247101  13.217  12.403   5.171
48402SOL     OW47102  10.450   2.686   7.385
48402SOL    HW147103  10.377   2.641   7.426
48402SOL    HW247104  10.432   2.779   7.398
48403SOL     OW47105   4.614   5.501   4.571
48403SOL    HW147106   4.604   5.448   4.651
48403SOL    HW247107   4.686   5.459   4.523
48404SOL     OW47108   6.013   1.819  11.849
48404SOL    HW147109   6.026   1.913  11.836
48404SOL    HW247110   6.057   1.800  11.932
48405SOL     OW47111   4.753   0.732  12.011
48405SOL    HW147112   4.827   0.708  12.066
48405SOL    HW247113   4.791   0.785  11.942
48406SOL     OW47114   7.562   5.071  11.573
48406SOL    HW147115   7.524   5.009  11.511
48406SOL    HW247116   7.656   5.053  11.570
48407SOL     OW47117   2.765  10.030   1.548
48407SOL    HW147118   2.778  10.044   1.642
48407SOL    HW247119   2.735  10.114   1.515
48408SOL     OW47120   9.139  10.226  13.147
48408SOL    HW147121   9.084  10.188  13.078
48408SOL    HW247122   9.089  10.214  13.228
48409SOL     OW47123  14.830   6.800   5.270
48409SOL    HW147124  14.853   6.874   5.214
48409SOL    HW247125  14.748   6.826   5.312
48410SOL     OW47126   8.043   9.333   9.328
48410SOL    HW147127   8.104   9.384   9.275
48410SOL    HW247128   8.086   9.325   9.413
48411SOL     OW47129   4.861   1.843   7.532
48411SOL    HW147130   4.770   1.829   7.506
48411SOL    HW247131   4.861   1.834   7.627
48412SOL     OW47132   2.245  10.062  11.425
48412SOL    HW147133   2.208  10.075  11.337
48412SOL    HW247134   2.296  10.141  11.442
48413SOL     OW47135   5.116   5.458  14.323
48413SOL    HW147136   5.095   5.432  14.412
48413SOL    HW247137   5.107   5.377  14.272
48414SOL     OW47138   4.478   5.681   6.905
48414SOL    HW147139   4.427   5.608   6.940
48414SOL    HW247140   4.566   5.669   6.943
48415SOL     OW47141   2.423   0.640  12.048
48415SOL    HW147142   2.495   0.691  12.011
48415SOL    HW247143   2.459   0.601  12.127
48416SOL     OW47144  12.978   7.063  14.400
48416SOL    HW147145  12.964   7.121  14.325
48416SOL    HW247146  13.047   7.003  14.370
48417SOL     OW47147  13.527  14.824   6.050
48417SOL    HW147148  13.576  14.860   5.976
48417SOL    HW247149  13.436  14.821   6.019
48418SOL     OW47150   8.153  12.464  10.655
48418SOL    HW147151   8.150  12.419  10.571
48418SOL    HW247152   8.235  12.514  10.653
48419SOL     OW47153   5.993   7.798   3.983
48419SOL    HW147154   6.070   7.840   3.944
48419SOL    HW247155   5.929   7.868   3.992
48420SOL     OW47156   2.073  12.211   9.224
48420SOL    HW147157   2.119  12.277   9.275
48420SOL    HW247158   2.031  12.155   9.289
48421SOL     OW47159  12.753  14.295   0.243
48421SOL    HW147160  12.687  14.363   0.233
48421SOL    HW247161  12.725  14.225   0.184
48422SOL     OW47162  13.943   6.700   8.654
48422SOL    HW147163  13.905   6.681   8.740
48422SOL    HW247164  13.905   6.633   8.597
48423SOL     OW47165  11.234  13.009   1.406
48423SOL    HW147166  11.215  13.074   1.338
48423SOL    HW247167  11.303  12.954   1.368
48424SOL     OW47168  12.603  11.492   5.340
48424SOL    HW147169  12.552  11.445   5.406
48424SOL    HW247170  12.609  11.432   5.266
48425SOL     OW47171   7.069   6.482   7.000
48425SOL    HW147172   7.163   6.464   7.000
48425SOL    HW247173   7.030   6.404   6.962
48426SOL     OW47174   6.881   2.489   1.250
48426SOL    HW147175   6.810   2.511   1.189
48426SOL    HW247176   6.912   2.574   1.283
48427SOL     OW47177   9.164  13.852   5.524
48427SOL    HW147178   9.163  13.791   5.450
48427SOL    HW247179   9.153  13.797   5.601
48428SOL     OW47180  13.598   6.158   8.560
48428SOL    HW147181  13.583   6.068   8.530
48428SOL    HW247182  13.688   6.157   8.594
48429SOL     OW47183   8.125  11.795   8.735
48429SOL    HW147184   8.103  11.723   8.794
48429SOL    HW247185   8.084  11.872   8.774
48430SOL     OW47186   1.126   5.472  10.474
48430SOL    HW147187   1.200   5.525  10.503
48430SOL    HW247188   1.050   5.514  10.514
48431SOL     OW47189   7.783   4.529  11.651
48431SOL    HW147190   7.808   4.545  11.742
48431SOL    HW247191   7.687   4.541  11.651
48432SOL     OW47192   7.903  12.498   5.889
48432SOL    HW147193   7.858  12.414   5.875
48432SOL    HW247194   7.989  12.486   5.850
48433SOL     OW47195  12.432   8.347   6.078
48433SOL    HW147196  12.345   8.349   6.038
48433SOL    HW247197  12.493   8.343   6.004
48434SOL     OW47198  14.422   8.902  11.906
48434SOL    HW147199  14.505   8.905  11.954
48434SOL    HW247200  14.371   8.835  11.951
48435SOL     OW47201   8.993   1.458  12.223
48435SOL    HW147202   9.022   1.368  12.209
48435SOL    HW247203   8.947   1.480  12.141
48436SOL     OW47204   0.553  13.357   9.984
48436SOL    HW147205   0.502  13.397   9.913
48436SOL    HW247206   0.517  13.394  10.064
48437SOL     OW47207   2.537   9.224   0.656
48437SOL    HW147208   2.563   9.135   0.683
48437SOL    HW247209   2.472   9.210   0.588
48438SOL     OW47210  11.578  10.922  12.289
48438SOL    HW147211  11.565  11.008  12.329
48438SOL    HW247212  11.673  10.908  12.294
48439SOL     OW47213  10.972   7.664   7.172
48439SOL    HW147214  10.925   7.655   7.089
48439SOL    HW247215  11.056   7.621   7.157
48440SOL     OW47216   2.482  13.789  14.443
48440SOL    HW147217   2.513  13.856  14.504
48440SOL    HW247218   2.518  13.815  14.358
48441SOL     OW47219   9.304   1.424   5.589
48441SOL    HW147220   9.321   1.511   5.555
48441SOL    HW247221   9.362   1.417   5.665
48442SOL     OW47222   5.197   5.237   5.965
48442SOL    HW147223   5.209   5.227   5.871
48442SOL    HW247224   5.274   5.287   5.994
48443SOL     OW47225   2.255   5.378   4.411
48443SOL    HW147226   2.264   5.381   4.316
48443SOL    HW247227   2.215   5.462   4.434
48444SOL     OW47228   1.069   2.250  13.609
48444SOL    HW147229   1.070   2.189  13.683
48444SOL    HW247230   1.007   2.318  13.635
48445SOL     OW47231   5.286   2.644   3.070
48445SOL    HW147232   5.314   2.649   2.979
48445SOL    HW247233   5.367   2.633   3.120
48446SOL     OW47234   5.336  13.440   1.740
48446SOL    HW147235   5.246  13.471   1.752
48446SOL    HW247236   5.365  13.479   1.658
48447SOL     OW47237  13.537   2.258   4.173
48447SOL    HW147238  13.516   2.324   4.238
48447SOL    HW247239  13.542   2.306   4.090
48448SOL     OW47240   3.968   6.362   9.155
48448SOL    HW147241   4.005   6.364   9.067
48448SOL    HW247242   3.965   6.269   9.178
48449SOL     OW47243   1.953   0.777   3.884
48449SOL    HW147244   1.863   0.745   3.886
48449SOL    HW247245   1.946   0.871   3.903
48450SOL     OW47246   2.532   3.498   1.843
48450SOL    HW147247   2.505   3.533   1.928
48450SOL    HW247248   2.469   3.429   1.824
48451SOL     OW47249   0.408   6.625   3.209
48451SOL    HW147250   0.379   6.593   3.295
48451SOL    HW247251   0.436   6.546   3.163
48452SOL     OW47252  12.027  10.283  11.818
48452SOL    HW147253  12.083  10.292  11.895
48452SOL    HW247254  12.053  10.355  11.761
48453SOL     OW47255   5.472   5.910  11.462
48453SOL    HW147256   5.510   5.828  11.432
48453SOL    HW247257   5.463   5.900  11.557
48454SOL     OW47258   1.430  12.555  13.940
48454SOL    HW147259   1.420  12.634  13.993
48454SOL    HW247260   1.457  12.587  13.854
48455SOL     OW47261   0.003  10.589   5.791
48455SOL    HW147262   0.092  10.623   5.778
48455SOL    HW247263   0.016  10.498   5.817
48456SOL     OW47264  10.694   9.703   7.496
48456SOL    HW147265  10.738   9.787   7.510
48456SOL    HW247266  10.745   9.640   7.546
48457SOL     OW47267  11.962  12.750   7.849
48457SOL    HW147268  12.042  12.702   7.870
48457SOL    HW247269  11.993  12.830   7.805
48458SOL     OW47270   4.540   9.792   1.117
48458SOL    HW147271   4.607   9.751   1.064
48458SOL    HW247272   4.457   9.757   1.084
48459SOL     OW47273   5.735   9.361   4.613
48459SOL    HW147274   5.738   9.442   4.563
48459SOL    HW247275   5.667   9.309   4.570
48460SOL     OW47276   1.595  14.410   8.911
48460SOL    HW147277   1.533  14.340   8.932
48460SOL    HW247278   1.643  14.377   8.834
48461SOL     OW47279   8.337  10.808   8.153
48461SOL    HW147280   8.296  10.722   8.161
48461SOL    HW247281   8.428  10.794   8.182
48462SOL     OW47282   6.682   5.283   1.538
48462SOL    HW147283   6.596   5.324   1.529
48462SOL    HW247284   6.744   5.355   1.527
48463SOL     OW47285   6.986  14.775   4.220
48463SOL    HW147286   7.040  14.731   4.153
48463SOL    HW247287   6.897  14.773   4.184
48464SOL     OW47288   8.424  14.774   4.418
48464SOL    HW147289   8.445  14.734   4.503
48464SOL    HW247290   8.479  14.852   4.414
48465SOL     OW47291  14.583   6.268   5.780
48465SOL    HW147292  14.640   6.196   5.808
48465SOL    HW247293  14.553   6.308   5.862
48466SOL     OW47294   7.976   7.409   2.120
48466SOL    HW147295   7.888   7.412   2.082
48466SOL    HW247296   7.988   7.496   2.158
48467SOL     OW47297  12.242  11.187   7.669
48467SOL    HW147298  12.191  11.267   7.656
48467SOL    HW247299  12.333  11.217   7.671
48468SOL     OW47300   0.666  11.527   5.780
48468SOL    HW147301   0.742  11.584   5.767
48468SOL    HW247302   0.591  11.586   5.781
48469SOL     OW47303  13.042  14.193   9.334
48469SOL    HW147304  13.136  14.207   9.347
48469SOL    HW247305  13.036  14.105   9.300
48470SOL     OW47306   5.737  11.216   9.341
48470SOL    HW147307   5.654  11.219   9.388
48470SOL    HW247308   5.712  11.210   9.249
48471SOL     OW47309   9.799  13.823  12.307
48471SOL    HW147310   9.873  13.779  12.349
48471SOL    HW247311   9.820  13.917  12.314
48472SOL     OW47312   6.488   6.332   2.968
48472SOL    HW147313   6.493   6.237   2.960
48472SOL    HW247314   6.473   6.348   3.061
48473SOL     OW47315   5.706   3.748   2.467
48473SOL    HW147316   5.686   3.690   2.541
48473SOL    HW247317   5.718   3.688   2.393
48474SOL     OW47318   3.084   3.623   0.054
48474SOL    HW147319   3.037   3.667   0.125
48474SOL    HW247320   3.150   3.687   0.027
48475SOL     OW47321   4.810   2.845   3.556
48475SOL    HW147322   4.891   2.897   3.558
48475SOL    HW247323   4.839   2.758   3.529
48476SOL     OW47324   4.783  13.561  14.613
48476SOL    HW147325   4.763  13.532  14.702
48476SOL    HW247326   4.698  13.566  14.570
48477SOL     OW47327   6.237  13.200   7.949
48477SOL    HW147328   6.327  13.177   7.972
48477SOL    HW247329   6.204  13.246   8.026
48478SOL     OW47330  14.536  14.648  14.604
48478SOL    HW147331  14.586  14.568  14.622
48478SOL    HW247332  14.453  14.636  14.650
48479SOL     OW47333   6.152   2.431  11.092
48479SOL    HW147334   6.171   2.374  11.166
48479SOL    HW247335   6.136   2.372  11.019
48480SOL     OW47336   5.498   7.240   8.026
48480SOL    HW147337   5.527   7.323   7.988
48480SOL    HW247338   5.449   7.266   8.104
48481SOL     OW47339   3.032  13.473   5.901
48481SOL    HW147340   2.971  13.469   5.974
48481SOL    HW247341   3.092  13.399   5.915
48482SOL     OW47342   4.845  13.354   5.079
48482SOL    HW147343   4.789  13.411   5.131
48482SOL    HW247344   4.835  13.386   4.990
48483SOL     OW47345  10.747   9.733  12.170
48483SOL    HW147346  10.830   9.777  12.149
48483SOL    HW247347  10.682   9.803  12.166
48484SOL     OW47348   7.130  13.735  10.234
48484SOL    HW147349   7.044  13.737  10.191
48484SOL    HW247350   7.174  13.814  10.204
48485SOL     OW47351   2.091   1.345   5.424
48485SOL    HW147352   2.140   1.427   5.433
48485SOL    HW247353   2.062   1.345   5.333
48486SOL     OW47354   7.857   4.384  10.195
48486SOL    HW147355   7.915   4.439  10.247
48486SOL    HW247356   7.864   4.418  10.106
48487SOL     OW47357   9.138   7.228  10.371
48487SOL    HW147358   9.081   7.290  10.326
48487SOL    HW247359   9.129   7.249  10.464
48488SOL     OW47360  12.630   7.075  12.832
48488SOL    HW147361  12.574   7.017  12.780
48488SOL    HW247362  12.667   7.019  12.900
48489SOL     OW47363  11.317   9.700  14.255
48489SOL    HW147364  11.244   9.661  14.304
48489SOL    HW247365  11.300   9.794  14.259
48490SOL     OW47366   6.272  13.887   3.935
48490SOL    HW147367   6.357  13.844   3.943
48490SOL    HW247368   6.208  13.816   3.945
48491SOL     OW47369   3.794  11.371  11.293
48491SOL    HW147370   3.760  11.283  11.278
48491SOL    HW247371   3.823  11.401  11.207
48492SOL     OW47372   3.386   3.073   7.783
48492SOL    HW147373   3.403   3.072   7.689
48492SOL    HW247374   3.449   3.012   7.820
48493SOL     OW47375  12.965   4.445  13.814
48493SOL    HW147376  13.031   4.429  13.747
48493SOL    HW247377  12.915   4.363  13.817
48494SOL     OW47378   1.127  12.609   6.681
48494SOL    HW147379   1.071  12.531   6.676
48494SOL    HW247380   1.119  12.638   6.772
48495SOL     OW47381   2.079  14.800  13.231
48495SOL    HW147382   2.035  14.749  13.163
48495SOL    HW247383   2.094   0.003  13.191
48496SOL     OW47384  13.234   3.868   5.913
48496SOL    HW147385  13.224   3.923   5.991
48496SOL    HW247386  13.168   3.901   5.852
48497SOL     OW47387   2.974  10.010  11.736
48497SOL    HW147388   2.905  10.075  11.750
48497SOL    HW247389   3.039  10.029  11.804
48498SOL     OW47390   8.308   4.389  14.259
48498SOL    HW147391   8.302   4.432  14.174
48498SOL    HW247392   8.396   4.412  14.291
48499SOL     OW47393   6.808  13.019  10.107
48499SOL    HW147394   6.813  13.113  10.121
48499SOL    HW247395   6.752  13.009  10.030
48500SOL     OW47396   9.960  12.616   7.408
48500SOL    HW147397   9.960  12.640   7.315
48500SOL    HW247398   9.870  12.590   7.426
48501SOL     OW47399   6.025   0.531   6.977
48501SOL    HW147400   5.984   0.464   6.922
48501SOL    HW247401   5.992   0.614   6.944
48502SOL     OW47402   5.583   1.375   0.187
48502SOL    HW147403   5.533   1.382   0.269
48502SOL    HW247404   5.585   1.281   0.168
48503SOL     OW47405   0.548  12.764   2.752
48503SOL    HW147406   0.510  12.836   2.802
48503SOL    HW247407   0.572  12.802   2.668
48504SOL     OW47408  11.095   4.062  12.893
48504SOL    HW147409  11.136   4.130  12.945
48504SOL    HW247410  11.090   4.100  12.805
48505SOL     OW47411  11.882   3.306  12.974
48505SOL    HW147412  11.956   3.304  13.035
48505SOL    HW247413  11.858   3.399  12.969
48506SOL     OW47414  14.420   2.745   3.781
48506SOL    HW147415  14.327   2.739   3.760
48506SOL    HW247416  14.464   2.694   3.713
48507SOL     OW47417  13.991  12.121   3.028
48507SOL    HW147418  14.043  12.157   2.956
48507SOL    HW247419  13.900  12.128   2.999
48508SOL     OW47420   7.964  11.902   3.647
48508SOL    HW147421   7.999  11.815   3.629
48508SOL    HW247422   8.020  11.961   3.595
48509SOL     OW47423   3.865   9.378  12.529
48509SOL    HW147424   3.784   9.372  12.478
48509SOL    HW247425   3.867   9.468  12.561
48510SOL     OW47426   6.237  11.941   9.063
48510SOL    HW147427   6.178  11.999   9.015
48510SOL    HW247428   6.301  12.000   9.103
48511SOL     OW47429   9.734   9.190   4.381
48511SOL    HW147430   9.758   9.279   4.357
48511SOL    HW247431   9.761   9.137   4.306
48512SOL     OW47432   7.000   1.454   9.223
48512SOL    HW147433   6.981   1.537   9.179
48512SOL    HW247434   7.091   1.461   9.250
48513SOL     OW47435   7.216  11.076   7.274
48513SOL    HW147436   7.171  11.102   7.193
48513SOL    HW247437   7.278  11.008   7.247
48514SOL     OW47438  11.686   3.652   7.140
48514SOL    HW147439  11.670   3.631   7.232
48514SOL    HW247440  11.600   3.648   7.099
48515SOL     OW47441   4.001  10.007  11.960
48515SOL    HW147442   4.015  10.090  11.914
48515SOL    HW247443   4.089   9.976  11.981
48516SOL     OW47444   2.824   5.125  13.481
48516SOL    HW147445   2.791   5.172  13.404
48516SOL    HW247446   2.745   5.103  13.531
48517SOL     OW47447   7.224   7.839  11.631
48517SOL    HW147448   7.216   7.909  11.696
48517SOL    HW247449   7.285   7.777  11.670
48518SOL     OW47450   4.166  13.375   1.485
48518SOL    HW147451   4.195  13.449   1.432
48518SOL    HW247452   4.129  13.313   1.422
48519SOL     OW47453  12.141   4.959   9.248
48519SOL    HW147454  12.231   4.990   9.241
48519SOL    HW247455  12.094   5.010   9.182
48520SOL     OW47456   4.710  13.801   7.281
48520SOL    HW147457   4.660  13.851   7.216
48520SOL    HW247458   4.708  13.856   7.360
48521SOL     OW47459   8.270   3.071   4.388
48521SOL    HW147460   8.212   3.130   4.341
48521SOL    HW247461   8.221   3.045   4.466
48522SOL     OW47462   8.127   1.449  12.872
48522SOL    HW147463   8.046   1.409  12.842
48522SOL    HW247464   8.139   1.417  12.961
48523SOL     OW47465   9.373  13.764   1.589
48523SOL    HW147466   9.368  13.855   1.560
48523SOL    HW247467   9.462  13.736   1.566
48524SOL     OW47468  12.630   6.562   3.451
48524SOL    HW147469  12.546   6.589   3.413
48524SOL    HW247470  12.695   6.609   3.400
48525SOL     OW47471   5.059   8.490   4.910
48525SOL    HW147472   5.096   8.403   4.901
48525SOL    HW247473   5.111   8.531   4.980
48526SOL     OW47474  11.072   9.157   8.430
48526SOL    HW147475  11.061   9.092   8.499
48526SOL    HW247476  11.145   9.212   8.460
48527SOL     OW47477   5.847   0.372   5.410
48527SOL    HW147478   5.793   0.294   5.421
48527SOL    HW247479   5.931   0.339   5.378
48528SOL     OW47480  11.797   7.977  11.303
48528SOL    HW147481  11.736   7.990  11.229
48528SOL    HW247482  11.882   8.006  11.269
48529SOL     OW47483   5.651   5.342   2.473
48529SOL    HW147484   5.560   5.361   2.449
48529SOL    HW247485   5.686   5.296   2.397
48530SOL     OW47486   9.490   5.088   4.092
48530SOL    HW147487   9.578   5.079   4.127
48530SOL    HW247488   9.463   5.177   4.117
48531SOL     OW47489   8.072   5.086   4.597
48531SOL    HW147490   7.977   5.090   4.607
48531SOL    HW247491   8.100   5.177   4.589
48532SOL     OW47492   2.448   4.223   9.146
48532SOL    HW147493   2.465   4.314   9.169
48532SOL    HW247494   2.532   4.191   9.111
48533SOL     OW47495   1.672   5.975  10.333
48533SOL    HW147496   1.683   5.977  10.428
48533SOL    HW247497   1.708   6.059  10.304
48534SOL     OW47498   3.964  13.756  10.216
48534SOL    HW147499   4.046  13.708  10.203
48534SOL    HW247500   3.952  13.757  10.311
48535SOL     OW47501   1.750  11.271   7.246
48535SOL    HW147502   1.722  11.308   7.162
48535SOL    HW247503   1.840  11.241   7.229
48536SOL     OW47504  13.079   7.995   3.353
48536SOL    HW147505  13.091   7.987   3.447
48536SOL    HW247506  13.058   7.906   3.324
48537SOL     OW47507  11.812  14.758   7.688
48537SOL    HW147508  11.858  14.806   7.619
48537SOL    HW247509  11.848  14.792   7.770
48538SOL     OW47510   3.199   8.919  11.920
48538SOL    HW147511   3.284   8.933  11.877
48538SOL    HW247512   3.218   8.926  12.013
48539SOL     OW47513   9.908   8.897  10.777
48539SOL    HW147514   9.994   8.907  10.817
48539SOL    HW247515   9.881   8.808  10.801
48540SOL     OW47516   3.904   0.343   7.039
48540SOL    HW147517   3.970   0.280   7.070
48540SOL    HW247518   3.877   0.309   6.954
48541SOL     OW47519   6.903  12.856   9.137
48541SOL    HW147520   6.906  12.951   9.124
48541SOL    HW247521   6.822  12.828   9.092
48542SOL     OW47522  14.289  12.965   5.023
48542SOL    HW147523  14.286  12.948   4.929
48542SOL    HW247524  14.282  13.061   5.030
48543SOL     OW47525   4.641   1.197   8.008
48543SOL    HW147526   4.628   1.160   8.095
48543SOL    HW247527   4.670   1.287   8.025
48544SOL     OW47528   0.941  13.517  10.004
48544SOL    HW147529   0.867  13.526  10.063
48544SOL    HW247530   0.980  13.604  10.000
48545SOL     OW47531   2.465   2.388   5.085
48545SOL    HW147532   2.413   2.325   5.134
48545SOL    HW247533   2.474   2.463   5.144
48546SOL     OW47534   6.275   9.925  13.923
48546SOL    HW147535   6.212   9.864  13.884
48546SOL    HW247536   6.312   9.973  13.849
48547SOL     OW47537  10.435   5.685  12.522
48547SOL    HW147538  10.411   5.623  12.591
48547SOL    HW247539  10.505   5.738  12.561
48548SOL     OW47540   4.645  14.611  11.029
48548SOL    HW147541   4.675  14.520  11.037
48548SOL    HW247542   4.551  14.607  11.044
48549SOL     OW47543  12.766   0.259   6.076
48549SOL    HW147544  12.724   0.188   6.125
48549SOL    HW247545  12.811   0.311   6.142
48550SOL     OW47546   8.614   1.879   1.091
48550SOL    HW147547   8.687   1.821   1.110
48550SOL    HW247548   8.572   1.894   1.176
48551SOL     OW47549   3.458  12.327   8.680
48551SOL    HW147550   3.434  12.266   8.749
48551SOL    HW247551   3.406  12.406   8.699
48552SOL     OW47552  11.176  10.727  10.902
48552SOL    HW147553  11.184  10.643  10.858
48552SOL    HW247554  11.131  10.708  10.984
48553SOL     OW47555  13.275  10.214   7.808
48553SOL    HW147556  13.270  10.209   7.903
48553SOL    HW247557  13.194  10.257   7.782
48554SOL     OW47558   0.893   3.205   4.249
48554SOL    HW147559   0.881   3.146   4.324
48554SOL    HW247560   0.928   3.285   4.288
48555SOL     OW47561   4.799  11.748   4.931
48555SOL    HW147562   4.804  11.794   5.015
48555SOL    HW247563   4.705  11.733   4.918
48556SOL     OW47564  12.919   0.578   9.935
48556SOL    HW147565  12.894   0.654   9.988
48556SOL    HW247566  12.898   0.503   9.990
48557SOL     OW47567  14.760   2.425   6.614
48557SOL    HW147568  14.722   2.359   6.672
48557SOL    HW247569  14.780   2.499   6.672
48558SOL     OW47570   4.222   8.548   7.272
48558SOL    HW147571   4.239   8.606   7.346
48558SOL    HW247572   4.281   8.577   7.204
48559SOL     OW47573   2.724   3.666   2.761
48559SOL    HW147574   2.688   3.702   2.680
48559SOL    HW247575   2.804   3.716   2.776
48560SOL     OW47576   7.256   7.545   3.722
48560SOL    HW147577   7.284   7.572   3.809
48560SOL    HW247578   7.336   7.516   3.679
48561SOL     OW47579   0.777   9.250  14.540
48561SOL    HW147580   0.722   9.217  14.469
48561SOL    HW247581   0.788   9.343  14.520
48562SOL     OW47582   9.218  10.696   2.872
48562SOL    HW147583   9.171  10.771   2.835
48562SOL    HW247584   9.294  10.685   2.816
48563SOL     OW47585  13.467   2.429   3.923
48563SOL    HW147586  13.381   2.426   3.966
48563SOL    HW247587  13.476   2.521   3.895
48564SOL     OW47588  11.917   3.507  12.170
48564SOL    HW147589  11.985   3.570  12.145
48564SOL    HW247590  11.954   3.460  12.244
48565SOL     OW47591   6.142   3.539  12.856
48565SOL    HW147592   6.236   3.540  12.873
48565SOL    HW247593   6.104   3.493  12.931
48566SOL     OW47594  12.562   3.285   9.500
48566SOL    HW147595  12.544   3.198   9.536
48566SOL    HW247596  12.495   3.298   9.433
48567SOL     OW47597  13.527   7.871   2.106
48567SOL    HW147598  13.622   7.872   2.105
48567SOL    HW247599  13.501   7.903   2.020
48568SOL     OW47600  13.824   9.221  11.873
48568SOL    HW147601  13.877   9.153  11.831
48568SOL    HW247602  13.735   9.206  11.842
48569SOL     OW47603   5.981   8.944   4.298
48569SOL    HW147604   5.916   8.977   4.360
48569SOL    HW247605   5.958   8.986   4.215
48570SOL     OW47606  12.602   0.464  12.880
48570SOL    HW147607  12.546   0.510  12.942
48570SOL    HW247608  12.623   0.381  12.922
48571SOL     OW47609  14.733   5.092   2.025
48571SOL    HW147610  14.736   5.043   1.943
48571SOL    HW247611  14.757   5.027   2.091
48572SOL     OW47612   4.993  12.130  10.182
48572SOL    HW147613   4.935  12.205  10.189
48572SOL    HW247614   5.043  12.146  10.101
48573SOL     OW47615  13.003   3.002   6.072
48573SOL    HW147616  13.028   2.945   6.000
48573SOL    HW247617  12.969   2.943   6.139
48574SOL     OW47618   1.602  12.249  13.141
48574SOL    HW147619   1.595  12.181  13.208
48574SOL    HW247620   1.694  12.249  13.115
48575SOL     OW47621  10.445   5.178  13.628
48575SOL    HW147622  10.359   5.176  13.669
48575SOL    HW247623  10.477   5.267  13.645
48576SOL     OW47624   0.381   5.655   2.990
48576SOL    HW147625   0.454   5.704   2.951
48576SOL    HW247626   0.419   5.572   3.017
48577SOL     OW47627   0.168  12.833   9.017
48577SOL    HW147628   0.240  12.857   9.076
48577SOL    HW247629   0.089  12.861   9.063
48578SOL     OW47630   8.806   3.215   6.820
48578SOL    HW147631   8.746   3.158   6.772
48578SOL    HW247632   8.821   3.170   6.903
48579SOL     OW47633  14.750   1.849   1.151
48579SOL    HW147634  14.684   1.839   1.220
48579SOL    HW247635  14.827   1.884   1.197
48580SOL     OW47636   3.715   7.286   2.890
48580SOL    HW147637   3.790   7.243   2.931
48580SOL    HW247638   3.743   7.303   2.800
48581SOL     OW47639   9.941   8.984   5.394
48581SOL    HW147640   9.985   8.980   5.309
48581SOL    HW247641   9.877   9.055   5.384
48582SOL     OW47642   0.499   4.951   2.474
48582SOL    HW147643   0.551   4.916   2.547
48582SOL    HW247644   0.461   5.031   2.509
48583SOL     OW47645  10.320   7.658   0.482
48583SOL    HW147646  10.409   7.635   0.456
48583SOL    HW247647  10.330   7.738   0.534
48584SOL     OW47648   4.219  10.089   5.616
48584SOL    HW147649   4.169  10.095   5.534
48584SOL    HW247650   4.240   9.996   5.625
48585SOL     OW47651   5.447   6.874   5.908
48585SOL    HW147652   5.459   6.967   5.923
48585SOL    HW247653   5.354   6.864   5.890
48586SOL     OW47654  13.301   1.285   1.601
48586SOL    HW147655  13.273   1.227   1.530
48586SOL    HW247656  13.258   1.369   1.583
48587SOL     OW47657   3.731  12.872   4.142
48587SOL    HW147658   3.722  12.922   4.061
48587SOL    HW247659   3.650  12.889   4.190
48588SOL     OW47660  14.033   5.876   8.468
48588SOL    HW147661  14.092   5.952   8.472
48588SOL    HW247662  14.091   5.801   8.482
48589SOL     OW47663   6.526   6.198   2.166
48589SOL    HW147664   6.502   6.291   2.164
48589SOL    HW247665   6.601   6.194   2.225
48590SOL     OW47666   6.636  14.688   6.395
48590SOL    HW147667   6.590  14.740   6.462
48590SOL    HW247668   6.632  14.599   6.429
48591SOL     OW47669  11.759  14.633  10.181
48591SOL    HW147670  11.848  14.658  10.155
48591SOL    HW247671  11.702  14.693  10.134
48592SOL     OW47672  10.461   1.581  10.687
48592SOL    HW147673  10.485   1.673  10.699
48592SOL    HW247674  10.380   1.583  10.637
48593SOL     OW47675   7.496   7.022   9.045
48593SOL    HW147676   7.548   6.943   9.040
48593SOL    HW247677   7.556   7.089   9.077
48594SOL     OW47678  13.072   1.054   6.531
48594SOL    HW147679  13.160   1.022   6.552
48594SOL    HW247680  13.082   1.095   6.445
48595SOL     OW47681   7.392   2.240   0.017
48595SOL    HW147682   7.303   2.209  14.880
48595SOL    HW247683   7.440   2.160   0.042
48596SOL     OW47684  14.722   5.102   4.184
48596SOL    HW147685  14.671   5.027   4.154
48596SOL    HW247686  14.762   5.138   4.105
48597SOL     OW47687   6.194   6.024   9.881
48597SOL    HW147688   6.196   5.944   9.933
48597SOL    HW247689   6.277   6.067   9.900
48598SOL     OW47690  10.940  11.719  13.135
48598SOL    HW147691  10.974  11.691  13.050
48598SOL    HW247692  10.969  11.810  13.144
48599SOL     OW47693   3.211  10.677   0.457
48599SOL    HW147694   3.292  10.626   0.447
48599SOL    HW247695   3.217  10.743   0.388
48600SOL     OW47696   1.580   0.641   6.860
48600SOL    HW147697   1.629   0.562   6.839
48600SOL    HW247698   1.604   0.703   6.791
48601SOL     OW47699  10.351   0.810  13.778
48601SOL    HW147700  10.419   0.846  13.835
48601SOL    HW247701  10.389   0.812  13.691
48602SOL     OW47702  12.977  13.681   9.764
48602SOL    HW147703  12.914  13.689   9.836
48602SOL    HW247704  12.989  13.770   9.732
48603SOL     OW47705  12.144  11.549   0.396
48603SOL    HW147706  12.198  11.627   0.385
48603SOL    HW247707  12.082  11.552   0.323
48604SOL     OW47708   5.638  12.597  12.662
48604SOL    HW147709   5.725  12.586  12.700
48604SOL    HW247710   5.646  12.559  12.574
48605SOL     OW47711   7.657   2.703   5.125
48605SOL    HW147712   7.598   2.737   5.191
48605SOL    HW247713   7.633   2.749   5.045
48606SOL     OW47714   6.527  10.506  12.211
48606SOL    HW147715   6.516  10.417  12.179
48606SOL    HW247716   6.608  10.503  12.262
48607SOL     OW47717   3.924   6.850   0.893
48607SOL    HW147718   3.879   6.766   0.885
48607SOL    HW247719   3.911   6.892   0.808
48608SOL     OW47720   7.021   1.949   0.299
48608SOL    HW147721   6.960   1.980   0.367
48608SOL    HW247722   6.968   1.893   0.243
48609SOL     OW47723   4.106   6.590   5.504
48609SOL    HW147724   4.115   6.517   5.442
48609SOL    HW247725   4.087   6.666   5.449
48610SOL     OW47726   2.550   6.011   4.958
48610SOL    HW147727   2.473   6.053   4.920
48610SOL    HW247728   2.611   6.083   4.973
48611SOL     OW47729  14.471   6.664   9.893
48611SOL    HW147730  14.463   6.724   9.818
48611SOL    HW247731  14.444   6.717   9.968
48612SOL     OW47732   6.338   8.873   3.032
48612SOL    HW147733   6.399   8.926   2.981
48612SOL    HW247734   6.323   8.924   3.112
48613SOL     OW47735   2.208  14.358   9.915
48613SOL    HW147736   2.302  14.354   9.896
48613SOL    HW247737   2.193  14.446   9.949
48614SOL     OW47738   0.763  13.005   2.881
48614SOL    HW147739   0.842  13.041   2.921
48614SOL    HW247740   0.700  12.998   2.953
48615SOL     OW47741   0.827  14.723  10.880
48615SOL    HW147742   0.748  14.671  10.864
48615SOL    HW247743   0.825  14.791  10.813
48616SOL     OW47744   3.326  12.545   1.908
48616SOL    HW147745   3.328  12.594   1.990
48616SOL    HW247746   3.333  12.453   1.935
48617SOL     OW47747   3.674   1.986  10.170
48617SOL    HW147748   3.664   2.080  10.184
48617SOL    HW247749   3.611   1.965  10.101
48618SOL     OW47750   2.253   7.537   6.855
48618SOL    HW147751   2.307   7.459   6.839
48618SOL    HW247752   2.163   7.508   6.838
48619SOL     OW47753   3.007   6.725   0.969
48619SOL    HW147754   2.915   6.701   0.979
48619SOL    HW247755   3.022   6.791   1.037
48620SOL     OW47756   9.664   7.821  10.346
48620SOL    HW147757   9.680   7.754  10.279
48620SOL    HW247758   9.620   7.892  10.299
48621SOL     OW47759   9.014   5.989   2.493
48621SOL    HW147760   9.000   5.895   2.480
48621SOL    HW247761   8.934   6.030   2.460
48622SOL     OW47762   4.862   0.641  10.237
48622SOL    HW147763   4.891   0.553  10.259
48622SOL    HW247764   4.770   0.644  10.264
48623SOL     OW47765  14.270  13.340   2.651
48623SOL    HW147766  14.218  13.304   2.579
48623SOL    HW247767  14.336  13.394   2.608
48624SOL     OW47768   5.770  12.700  13.222
48624SOL    HW147769   5.696  12.640  13.222
48624SOL    HW247770   5.800  12.704  13.131
48625SOL     OW47771   8.984   2.450   4.468
48625SOL    HW147772   8.980   2.536   4.427
48625SOL    HW247773   9.077   2.436   4.485
48626SOL     OW47774   7.289   6.555  13.510
48626SOL    HW147775   7.271   6.488  13.444
48626SOL    HW247776   7.211   6.554  13.566
48627SOL     OW47777   7.106   8.930  13.978
48627SOL    HW147778   7.106   8.854  13.919
48627SOL    HW247779   7.157   8.901  14.053
48628SOL     OW47780  14.071   5.226   1.949
48628SOL    HW147781  14.164   5.237   1.930
48628SOL    HW247782  14.069   5.186   2.036
48629SOL     OW47783   6.617  12.572   2.166
48629SOL    HW147784   6.687  12.542   2.108
48629SOL    HW247785   6.542  12.516   2.146
48630SOL     OW47786  11.642   8.125  11.777
48630SOL    HW147787  11.547   8.115  11.787
48630SOL    HW247788  11.663   8.074  11.698
48631SOL     OW47789  14.519   1.330   2.327
48631SOL    HW147790  14.460   1.315   2.401
48631SOL    HW247791  14.521   1.246   2.281
48632SOL     OW47792  11.211  13.533   8.876
48632SOL    HW147793  11.150  13.595   8.915
48632SOL    HW247794  11.165  13.498   8.801
48633SOL     OW47795   9.619   3.969   1.722
48633SOL    HW147796   9.681   4.039   1.700
48633SOL    HW247797   9.669   3.909   1.778
48634SOL     OW47798   3.523  13.077   6.042
48634SOL    HW147799   3.498  12.987   6.020
48634SOL    HW247800   3.617  13.072   6.059
48635SOL     OW47801  12.555   8.783   6.015
48635SOL    HW147802  12.549   8.816   6.104
48635SOL    HW247803  12.566   8.862   5.961
48636SOL     OW47804   0.440   6.589  12.645
48636SOL    HW147805   0.361   6.580  12.698
48636SOL    HW247806   0.512   6.586  12.709
48637SOL     OW47807   9.213   5.769   7.045
48637SOL    HW147808   9.174   5.696   6.996
48637SOL    HW247809   9.271   5.812   6.981
48638SOL     OW47810   2.109   9.729  10.812
48638SOL    HW147811   2.132   9.722  10.905
48638SOL    HW247812   2.162   9.662  10.769
48639SOL     OW47813   4.804   9.645   4.209
48639SOL    HW147814   4.789   9.595   4.289
48639SOL    HW247815   4.830   9.580   4.144
48640SOL     OW47816   7.273   4.376   0.212
48640SOL    HW147817   7.212   4.425   0.157
48640SOL    HW247818   7.322   4.444   0.258
48641SOL     OW47819   6.220  12.253   0.316
48641SOL    HW147820   6.276  12.254   0.394
48641SOL    HW247821   6.281  12.265   0.243
48642SOL     OW47822   1.441   0.437   1.271
48642SOL    HW147823   1.481   0.495   1.336
48642SOL    HW247824   1.352   0.424   1.302
48643SOL     OW47825   7.866  12.057  13.204
48643SOL    HW147826   7.784  12.027  13.243
48643SOL    HW247827   7.925  11.982  13.213
48644SOL     OW47828   7.193   0.407   6.559
48644SOL    HW147829   7.283   0.389   6.532
48644SOL    HW247830   7.201   0.486   6.613
48645SOL     OW47831   2.650  12.657   1.198
48645SOL    HW147832   2.648  12.562   1.195
48645SOL    HW247833   2.681  12.683   1.111
48646SOL     OW47834   6.860   0.923   0.331
48646SOL    HW147835   6.792   0.861   0.307
48646SOL    HW247836   6.815   0.988   0.385
48647SOL     OW47837  11.308   5.710  14.662
48647SOL    HW147838  11.274   5.735  14.577
48647SOL    HW247839  11.374   5.776  14.683
48648SOL     OW47840   6.184  10.445   9.443
48648SOL    HW147841   6.257  10.384   9.452
48648SOL    HW247842   6.173  10.482   9.530
48649SOL     OW47843   6.827   7.555   1.262
48649SOL    HW147844   6.887   7.494   1.304
48649SOL    HW247845   6.880   7.598   1.195
48650SOL     OW47846   7.417   3.949   7.638
48650SOL    HW147847   7.323   3.937   7.626
48650SOL    HW247848   7.424   4.003   7.717
48651SOL     OW47849   4.804   0.948   6.345
48651SOL    HW147850   4.746   0.968   6.419
48651SOL    HW247851   4.804   0.852   6.341
48652SOL     OW47852   6.840  14.551   7.588
48652SOL    HW147853   6.802  14.464   7.577
48652SOL    HW247854   6.926  14.535   7.627
48653SOL     OW47855   7.916  12.552  11.091
48653SOL    HW147856   7.848  12.619  11.090
48653SOL    HW247857   7.976  12.578  11.021
48654SOL     OW47858   7.972  13.687   2.705
48654SOL    HW147859   7.991  13.781   2.711
48654SOL    HW247860   8.018  13.658   2.627
48655SOL     OW47861   6.205   1.834   6.895
48655SOL    HW147862   6.132   1.842   6.957
48655SOL    HW247863   6.282   1.861   6.946
48656SOL     OW47864   2.413   2.439   7.962
48656SOL    HW147865   2.433   2.431   8.055
48656SOL    HW247866   2.447   2.359   7.922
48657SOL     OW47867  14.401   2.391  11.054
48657SOL    HW147868  14.390   2.471  11.106
48657SOL    HW247869  14.334   2.397  10.986
48658SOL     OW47870  12.260  10.130  10.018
48658SOL    HW147871  12.209  10.175  10.086
48658SOL    HW247872  12.228  10.167   9.936
48659SOL     OW47873   4.148  13.514  12.445
48659SOL    HW147874   4.097  13.478  12.518
48659SOL    HW247875   4.204  13.580  12.486
48660SOL     OW47876   2.704  10.630  11.319
48660SOL    HW147877   2.739  10.675  11.242
48660SOL    HW247878   2.781  10.598  11.366
48661SOL     OW47879  13.656   7.958  14.133
48661SOL    HW147880  13.566   7.963  14.100
48661SOL    HW247881  13.688   7.873  14.104
48662SOL     OW47882   4.706  11.311  11.666
48662SOL    HW147883   4.754  11.238  11.705
48662SOL    HW247884   4.766  11.346  11.599
48663SOL     OW47885   8.075  13.420   5.931
48663SOL    HW147886   8.166  13.436   5.958
48663SOL    HW247887   8.055  13.490   5.870
48664SOL     OW47888   1.268  13.509   9.821
48664SOL    HW147889   1.321  13.530   9.897
48664SOL    HW247890   1.308  13.559   9.749
48665SOL     OW47891   3.603  10.561  13.814
48665SOL    HW147892   3.580  10.623  13.884
48665SOL    HW247893   3.676  10.602  13.769
48666SOL     OW47894   6.894   4.413   8.880
48666SOL    HW147895   6.916   4.504   8.895
48666SOL    HW247896   6.905   4.371   8.966
48667SOL     OW47897   1.876   8.964  11.497
48667SOL    HW147898   1.856   9.038  11.439
48667SOL    HW247899   1.797   8.953  11.550
48668SOL     OW47900   5.175   1.669  10.788
48668SOL    HW147901   5.107   1.629  10.842
48668SOL    HW247902   5.141   1.756  10.766
48669SOL     OW47903   2.974  13.114  11.992
48669SOL    HW147904   2.882  13.126  12.015
48669SOL    HW247905   2.974  13.047  11.923
48670SOL     OW47906  12.372  10.911   9.697
48670SOL    HW147907  12.280  10.909   9.724
48670SOL    HW247908  12.377  10.980   9.631
48671SOL     OW47909  13.576   8.486   5.619
48671SOL    HW147910  13.580   8.440   5.703
48671SOL    HW247911  13.545   8.573   5.642
48672SOL     OW47912   6.615   2.334   1.271
48672SOL    HW147913   6.642   2.345   1.362
48672SOL    HW247914   6.538   2.276   1.276
48673SOL     OW47915  14.316   2.181  13.542
48673SOL    HW147916  14.245   2.246  13.542
48673SOL    HW247917  14.396   2.233  13.537
48674SOL     OW47918  13.887  11.568   8.829
48674SOL    HW147919  13.799  11.530   8.830
48674SOL    HW247920  13.875  11.656   8.865
48675SOL     OW47921  10.081   1.632   6.607
48675SOL    HW147922  10.162   1.659   6.649
48675SOL    HW247923  10.057   1.551   6.651
48676SOL     OW47924  11.317   2.309   5.332
48676SOL    HW147925  11.351   2.386   5.286
48676SOL    HW247926  11.227   2.301   5.302
48677SOL     OW47927   2.526  13.018   1.415
48677SOL    HW147928   2.482  12.964   1.481
48677SOL    HW247929   2.475  13.005   1.335
48678SOL     OW47930   4.002   8.927   8.608
48678SOL    HW147931   4.040   8.914   8.521
48678SOL    HW247932   3.948   8.850   8.623
48679SOL     OW47933   7.187   7.109   5.161
48679SOL    HW147934   7.258   7.045   5.167
48679SOL    HW247935   7.187   7.135   5.069
48680SOL     OW47936   0.632   7.461   7.278
48680SOL    HW147937   0.708   7.430   7.229
48680SOL    HW247938   0.588   7.381   7.307
48681SOL     OW47939   0.470  14.876   5.975
48681SOL    HW147940   0.468   0.088   5.989
48681SOL    HW247941   0.511  14.840   6.054
48682SOL     OW47942   7.966  10.059  10.631
48682SOL    HW147943   7.904   9.995  10.596
48682SOL    HW247944   7.915  10.140  10.640
48683SOL     OW47945   5.869   1.232   2.304
48683SOL    HW147946   5.838   1.252   2.216
48683SOL    HW247947   5.792   1.199   2.350
48684SOL     OW47948   2.574  11.408  10.631
48684SOL    HW147949   2.661  11.401  10.590
48684SOL    HW247950   2.513  11.391  10.560
48685SOL     OW47951  10.641   8.669   1.842
48685SOL    HW147952  10.573   8.631   1.898
48685SOL    HW247953  10.659   8.602   1.776
48686SOL     OW47954   7.074   4.590   0.902
48686SOL    HW147955   7.130   4.548   0.967
48686SOL    HW247956   7.076   4.683   0.925
48687SOL     OW47957   4.478   0.987   9.513
48687SOL    HW147958   4.483   1.083   9.510
48687SOL    HW247959   4.504   0.960   9.425
48688SOL     OW47960   4.932   9.485  13.142
48688SOL    HW147961   4.838   9.488  13.124
48688SOL    HW247962   4.971   9.444  13.065
48689SOL     OW47963   6.811   8.023   5.153
48689SOL    HW147964   6.795   7.930   5.138
48689SOL    HW247965   6.734   8.053   5.201
48690SOL     OW47966   4.153   7.043  12.515
48690SOL    HW147967   4.096   7.019  12.587
48690SOL    HW247968   4.102   7.025  12.436
48691SOL     OW47969  13.307  10.030   3.039
48691SOL    HW147970  13.381   9.982   3.001
48691SOL    HW247971  13.232  10.004   2.986
48692SOL     OW47972   4.664  11.601   4.221
48692SOL    HW147973   4.690  11.689   4.248
48692SOL    HW247974   4.718  11.543   4.274
48693SOL     OW47975   7.078   9.798  11.771
48693SOL    HW147976   7.028   9.839  11.841
48693SOL    HW247977   7.134   9.868  11.737
48694SOL     OW47978   2.482  13.382   1.320
48694SOL    HW147979   2.445  13.470   1.324
48694SOL    HW247980   2.483  13.352   1.411
48695SOL     OW47981   6.051   3.837   1.385
48695SOL    HW147982   5.997   3.776   1.334
48695SOL    HW247983   5.990   3.904   1.416
48696SOL     OW47984  14.499   5.558   1.200
48696SOL    HW147985  14.410   5.523   1.192
48696SOL    HW247986  14.506   5.621   1.128
48697SOL     OW47987   9.102   8.958  11.682
48697SOL    HW147988   9.057   8.898  11.623
48697SOL    HW247989   9.109   9.040  11.632
48698SOL     OW47990  12.530   0.561  11.345
48698SOL    HW147991  12.490   0.482  11.310
48698SOL    HW247992  12.582   0.531  11.419
48699SOL     OW47993  12.417   5.448   7.174
48699SOL    HW147994  12.451   5.418   7.259
48699SOL    HW247995  12.456   5.534   7.161
48700SOL     OW47996   8.654   4.829  10.302
48700SOL    HW147997   8.589   4.777  10.255
48700SOL    HW247998   8.663   4.909  10.250
48701SOL     OW47999   0.538   5.742  12.563
48701SOL    HW148000   0.513   5.765  12.473
48701SOL    HW248001   0.596   5.666  12.552
48702SOL     OW48002  12.871  13.814  11.962
48702SOL    HW148003  12.884  13.901  11.925
48702SOL    HW248004  12.938  13.807  12.031
48703SOL     OW48005   9.811   7.923  12.500
48703SOL    HW148006   9.844   7.972  12.424
48703SOL    HW248007   9.784   7.839  12.464
48704SOL     OW48008  10.510  11.596   9.742
48704SOL    HW148009  10.433  11.543   9.762
48704SOL    HW248010  10.564  11.540   9.686
48705SOL     OW48011   1.736  11.688   6.318
48705SOL    HW148012   1.742  11.679   6.223
48705SOL    HW248013   1.655  11.735   6.334
48706SOL     OW48014   8.124  12.060   9.497
48706SOL    HW148015   8.125  11.966   9.476
48706SOL    HW248016   8.106  12.103   9.414
48707SOL     OW48017   8.586  14.769   5.202
48707SOL    HW148018   8.579  14.778   5.107
48707SOL    HW248019   8.585  14.674   5.218
48708SOL     OW48020   5.060  14.604   3.583
48708SOL    HW148021   5.074  14.634   3.493
48708SOL    HW248022   5.086  14.679   3.637
48709SOL     OW48023   7.083  13.851   5.805
48709SOL    HW148024   7.164  13.866   5.756
48709SOL    HW248025   7.065  13.757   5.793
48710SOL     OW48026   4.341   6.909   7.391
48710SOL    HW148027   4.325   6.974   7.322
48710SOL    HW248028   4.301   6.947   7.469
48711SOL     OW48029   0.235   7.312  14.745
48711SOL    HW148030   0.303   7.366  14.784
48711SOL    HW248031   0.225   7.239  14.806
48712SOL     OW48032  13.471   8.771   8.671
48712SOL    HW148033  13.501   8.803   8.586
48712SOL    HW248034  13.472   8.848   8.728
48713SOL     OW48035   1.889   6.532  12.144
48713SOL    HW148036   1.931   6.449  12.123
48713SOL    HW248037   1.957   6.597  12.129
48714SOL     OW48038   1.437   8.182  12.464
48714SOL    HW148039   1.520   8.220  12.493
48714SOL    HW248040   1.384   8.257  12.437
48715SOL     OW48041   9.324   9.090   2.554
48715SOL    HW148042   9.295   9.154   2.619
48715SOL    HW248043   9.245   9.064   2.507
48716SOL     OW48044   3.851   0.299   7.327
48716SOL    HW148045   3.886   0.350   7.254
48716SOL    HW248046   3.806   0.226   7.285
48717SOL     OW48047   0.780   7.368  12.733
48717SOL    HW148048   0.727   7.447  12.740
48717SOL    HW248049   0.743   7.308  12.797
48718SOL     OW48050  12.737   3.810   3.730
48718SOL    HW148051  12.803   3.791   3.663
48718SOL    HW248052  12.765   3.758   3.806
48719SOL     OW48053  10.352   7.592   5.361
48719SOL    HW148054  10.435   7.571   5.317
48719SOL    HW248055  10.361   7.684   5.386
48720SOL     OW48056   2.187   4.141   7.083
48720SOL    HW148057   2.112   4.195   7.056
48720SOL    HW248058   2.198   4.160   7.176
48721SOL     OW48059  13.859   9.108   0.889
48721SOL    HW148060  13.796   9.119   0.818
48721SOL    HW248061  13.937   9.156   0.860
48722SOL     OW48062   6.922   9.881  14.273
48722SOL    HW148063   6.956   9.925  14.196
48722SOL    HW248064   6.904   9.952  14.336
48723SOL     OW48065   8.469  14.808   7.005
48723SOL    HW148066   8.395  14.771   6.956
48723SOL    HW248067   8.479  14.750   7.080
48724SOL     OW48068   2.393   2.769  12.730
48724SOL    HW148069   2.339   2.845  12.751
48724SOL    HW248070   2.413   2.730  12.816
48725SOL     OW48071   3.113   4.766   5.302
48725SOL    HW148072   3.174   4.713   5.354
48725SOL    HW248073   3.141   4.754   5.211
48726SOL     OW48074  11.697  13.944   9.491
48726SOL    HW148075  11.736  13.922   9.407
48726SOL    HW248076  11.619  13.889   9.496
48727SOL     OW48077   9.414   1.070   7.825
48727SOL    HW148078   9.344   1.014   7.860
48727SOL    HW248079   9.427   1.039   7.736
48728SOL     OW48080   6.121   3.602   3.784
48728SOL    HW148081   6.203   3.555   3.770
48728SOL    HW248082   6.066   3.540   3.832
48729SOL     OW48083  13.183   5.503   7.965
48729SOL    HW148084  13.196   5.522   8.057
48729SOL    HW248085  13.182   5.589   7.922
48730SOL     OW48086   1.931  10.912   4.497
48730SOL    HW148087   1.950  10.897   4.590
48730SOL    HW248088   1.999  10.974   4.469
48731SOL     OW48089   9.752   9.729   3.211
48731SOL    HW148090   9.704   9.810   3.193
48731SOL    HW248091   9.686   9.669   3.247
48732SOL     OW48092   2.375   7.556   5.897
48732SOL    HW148093   2.324   7.476   5.883
48732SOL    HW248094   2.414   7.544   5.983
48733SOL     OW48095  12.150   5.216   2.975
48733SOL    HW148096  12.151   5.200   2.881
48733SOL    HW248097  12.235   5.256   2.994
48734SOL     OW48098  10.661  10.034   3.884
48734SOL    HW148099  10.700   9.951   3.910
48734SOL    HW248100  10.640  10.077   3.967
48735SOL     OW48101   3.225  12.386  14.271
48735SOL    HW148102   3.179  12.426  14.344
48735SOL    HW248103   3.287  12.325  14.312
48736SOL     OW48104   0.991  12.106  14.718
48736SOL    HW148105   0.909  12.088  14.672
48736SOL    HW248106   0.978  12.072  14.806
48737SOL     OW48107   8.672   1.627   7.387
48737SOL    HW148108   8.642   1.543   7.421
48737SOL    HW248109   8.653   1.690   7.457
48738SOL     OW48110  13.704   2.963  13.509
48738SOL    HW148111  13.625   2.912  13.528
48738SOL    HW248112  13.717   3.017  13.586
48739SOL     OW48113   3.114   1.841  12.916
48739SOL    HW148114   3.097   1.770  12.854
48739SOL    HW248115   3.152   1.797  12.992
48740SOL     OW48116   8.564   4.796   1.597
48740SOL    HW148117   8.490   4.796   1.536
48740SOL    HW248118   8.638   4.828   1.546
48741SOL     OW48119   5.930   1.764   4.831
48741SOL    HW148120   5.869   1.690   4.822
48741SOL    HW248121   5.894   1.815   4.904
48742SOL     OW48122   2.399  12.918   2.301
48742SOL    HW148123   2.442  12.912   2.216
48742SOL    HW248124   2.325  12.977   2.286
48743SOL     OW48125   1.014   4.718   1.735
48743SOL    HW148126   0.967   4.784   1.785
48743SOL    HW248127   1.079   4.683   1.796
48744SOL     OW48128   7.148   2.587  13.931
48744SOL    HW148129   7.062   2.600  13.891
48744SOL    HW248130   7.165   2.493  13.921
48745SOL     OW48131   5.246   3.296  13.749
48745SOL    HW148132   5.237   3.382  13.790
48745SOL    HW248133   5.160   3.278  13.710
48746SOL     OW48134   5.213   1.157   9.275
48746SOL    HW148135   5.166   1.157   9.192
48746SOL    HW248136   5.149   1.187   9.339
48747SOL     OW48137   0.466   4.812  12.693
48747SOL    HW148138   0.473   4.900  12.656
48747SOL    HW248139   0.384   4.813  12.741
48748SOL     OW48140  13.188  13.610  14.848
48748SOL    HW148141  13.198  13.523   0.005
48748SOL    HW248142  13.216  13.671   0.034
48749SOL     OW48143  13.236  12.609   8.881
48749SOL    HW148144  13.148  12.646   8.890
48749SOL    HW248145  13.223  12.528   8.831
48750SOL     OW48146  12.096   9.143   2.105
48750SOL    HW148147  12.090   9.232   2.072
48750SOL    HW248148  12.131   9.093   2.031
48751SOL     OW48149   9.873   4.452  12.597
48751SOL    HW148150   9.909   4.415  12.677
48751SOL    HW248151   9.872   4.379  12.535
48752SOL     OW48152  12.863  14.208   0.473
48752SOL    HW148153  12.902  14.293   0.492
48752SOL    HW248154  12.823  14.220   0.386
48753SOL     OW48155   6.796   3.374  11.873
48753SOL    HW148156   6.709   3.383  11.910
48753SOL    HW248157   6.799   3.284  11.840
48754SOL     OW48158  12.641  13.586   5.444
48754SOL    HW148159  12.734  13.571   5.426
48754SOL    HW248160  12.607  13.499   5.466
48755SOL     OW48161   7.032   2.978  13.753
48755SOL    HW148162   6.946   2.993  13.792
48755SOL    HW248163   7.094   3.007  13.820
48756SOL     OW48164  10.045  13.798  10.480
48756SOL    HW148165  10.035  13.718  10.531
48756SOL    HW248166  10.108  13.851  10.529
48757SOL     OW48167   5.100   8.749  12.467
48757SOL    HW148168   5.093   8.769  12.374
48757SOL    HW248169   5.192   8.724  12.480
48758SOL     OW48170   7.395  13.391  10.858
48758SOL    HW148171   7.448  13.318  10.826
48758SOL    HW248172   7.443  13.424  10.934
48759SOL     OW48173  13.880  14.780   7.405
48759SOL    HW148174  13.900  14.869   7.376
48759SOL    HW248175  13.909  14.777   7.496
48760SOL     OW48176   7.214   1.936  13.940
48760SOL    HW148177   7.143   1.944  14.004
48760SOL    HW248178   7.278   1.879  13.982
48761SOL     OW48179  13.382   1.324   2.189
48761SOL    HW148180  13.325   1.362   2.122
48761SOL    HW248181  13.389   1.231   2.165
48762SOL     OW48182   4.961  13.420   1.223
48762SOL    HW148183   5.051  13.389   1.216
48762SOL    HW248184   4.911  13.343   1.251
48763SOL     OW48185   6.691  10.401   7.954
48763SOL    HW148186   6.607  10.355   7.950
48763SOL    HW248187   6.672  10.481   8.003
48764SOL     OW48188   7.170   9.260   6.395
48764SOL    HW148189   7.261   9.233   6.385
48764SOL    HW248190   7.137   9.267   6.306
48765SOL     OW48191  14.676   4.987  10.508
48765SOL    HW148192  14.737   5.061  10.497
48765SOL    HW248193  14.681   4.966  10.601
48766SOL     OW48194   4.626   0.983   7.460
48766SOL    HW148195   4.631   0.899   7.413
48766SOL    HW248196   4.620   0.959   7.552
48767SOL     OW48197   0.890   0.346   0.064
48767SOL    HW148198   0.892   0.290  14.869
48767SOL    HW248199   0.853   0.429   0.033
48768SOL     OW48200   4.053   0.720   9.585
48768SOL    HW148201   4.059   0.712   9.680
48768SOL    HW248202   3.988   0.656   9.559
48769SOL     OW48203  13.798   4.865   7.122
48769SOL    HW148204  13.879   4.913   7.139
48769SOL    HW248205  13.757   4.855   7.208
48770SOL     OW48206  13.773   3.944  11.088
48770SOL    HW148207  13.729   3.883  11.028
48770SOL    HW248208  13.866   3.923  11.079
48771SOL     OW48209   0.240   1.911   7.404
48771SOL    HW148210   0.207   1.990   7.448
48771SOL    HW248211   0.251   1.938   7.313
48772SOL     OW48212   9.275  13.510  12.598
48772SOL    HW148213   9.326  13.430  12.584
48772SOL    HW248214   9.264  13.515  12.693
48773SOL     OW48215   2.016   1.246  13.510
48773SOL    HW148216   2.045   1.248  13.601
48773SOL    HW248217   2.058   1.321  13.469
48774SOL     OW48218   1.975  10.954   7.151
48774SOL    HW148219   2.046  10.894   7.127
48774SOL    HW248220   1.930  10.972   7.068
48775SOL     OW48221  14.020   1.789   7.419
48775SOL    HW148222  14.029   1.819   7.329
48775SOL    HW248223  14.091   1.834   7.466
48776SOL     OW48224  14.504  14.707   6.068
48776SOL    HW148225  14.460  14.681   5.987
48776SOL    HW248226  14.540  14.625   6.103
48777SOL     OW48227  11.232  11.728   3.788
48777SOL    HW148228  11.324  11.752   3.780
48777SOL    HW248229  11.184  11.809   3.769
48778SOL     OW48230   4.147   1.044  11.217
48778SOL    HW148231   4.211   1.098  11.170
48778SOL    HW248232   4.199   0.976  11.260
48779SOL     OW48233   9.661  13.760   5.361
48779SOL    HW148234   9.750  13.725   5.374
48779SOL    HW248235   9.603  13.689   5.388
48780SOL     OW48236  13.644   4.519   9.757
48780SOL    HW148237  13.549   4.522   9.749
48780SOL    HW248238  13.676   4.532   9.667
48781SOL     OW48239   7.266  12.436   1.128
48781SOL    HW148240   7.206  12.375   1.085
48781SOL    HW248241   7.211  12.486   1.188
48782SOL     OW48242   0.057  10.944  12.090
48782SOL    HW148243   0.051  10.929  11.995
48782SOL    HW248244   0.138  10.995  12.101
48783SOL     OW48245   2.155   6.334  13.034
48783SOL    HW148246   2.088   6.267  13.019
48783SOL    HW248247   2.107   6.409  13.070
48784SOL     OW48248   6.540   3.391  13.821
48784SOL    HW148249   6.459   3.418  13.778
48784SOL    HW248250   6.538   3.436  13.906
48785SOL     OW48251   8.831  11.645   5.206
48785SOL    HW148252   8.840  11.552   5.226
48785SOL    HW248253   8.747  11.652   5.162
48786SOL     OW48254   1.791   2.423   2.328
48786SOL    HW148255   1.781   2.504   2.377
48786SOL    HW248256   1.705   2.407   2.288
48787SOL     OW48257   0.837   1.181   0.795
48787SOL    HW148258   0.887   1.203   0.874
48787SOL    HW248259   0.751   1.220   0.810
48788SOL     OW48260   2.764   0.162   3.687
48788SOL    HW148261   2.684   0.148   3.736
48788SOL    HW248262   2.735   0.192   3.601
48789SOL     OW48263   5.700   1.342  12.327
48789SOL    HW148264   5.770   1.336  12.392
48789SOL    HW248265   5.635   1.277  12.354
48790SOL     OW48266   9.086  12.747  10.479
48790SOL    HW148267   9.104  12.722  10.389
48790SOL    HW248268   9.145  12.822  10.496
48791SOL     OW48269  10.257   6.860   5.163
48791SOL    HW148270  10.208   6.942   5.167
48791SOL    HW248271  10.318   6.872   5.090
48792SOL     OW48272   1.285   1.959   8.007
48792SOL    HW148273   1.201   1.926   8.038
48792SOL    HW248274   1.275   2.054   8.008
48793SOL     OW48275   1.236   8.290   6.850
48793SOL    HW148276   1.221   8.281   6.944
48793SOL    HW248277   1.243   8.385   6.836
48794SOL     OW48278   1.640   9.757  12.822
48794SOL    HW148279   1.631   9.783  12.914
48794SOL    HW248280   1.551   9.759  12.788
48795SOL     OW48281  10.737  13.169   9.065
48795SOL    HW148282  10.765  13.159   9.156
48795SOL    HW248283  10.683  13.091   9.049
48796SOL     OW48284  12.437  14.510  10.748
48796SOL    HW148285  12.487  14.564  10.808
48796SOL    HW248286  12.376  14.571  10.706
48797SOL     OW48287   9.189   3.765  11.831
48797SOL    HW148288   9.102   3.770  11.872
48797SOL    HW248289   9.173   3.725  11.746
48798SOL     OW48290   1.755   7.443  14.436
48798SOL    HW148291   1.691   7.373  14.451
48798SOL    HW248292   1.839   7.405  14.463
48799SOL     OW48293   1.576  10.513  13.824
48799SOL    HW148294   1.490  10.491  13.860
48799SOL    HW248295   1.619  10.429  13.809
48800SOL     OW48296   3.729   6.097   9.628
48800SOL    HW148297   3.788   6.056   9.692
48800SOL    HW248298   3.760   6.066   9.543
48801SOL     OW48299   5.536  13.375   1.914
48801SOL    HW148300   5.613  13.431   1.909
48801SOL    HW248301   5.477  13.409   1.847
48802SOL     OW48302   5.391   4.427  12.675
48802SOL    HW148303   5.463   4.486  12.699
48802SOL    HW248304   5.312   4.472  12.705
48803SOL     OW48305  12.644   3.384   8.088
48803SOL    HW148306  12.663   3.461   8.141
48803SOL    HW248307  12.718   3.326   8.103
48804SOL     OW48308  14.216  13.843   0.622
48804SOL    HW148309  14.159  13.863   0.548
48804SOL    HW248310  14.196  13.752   0.644
48805SOL     OW48311   4.593   2.877  14.865
48805SOL    HW148312   4.532   2.804  14.854
48805SOL    HW248313   4.630   2.865   0.070
48806SOL     OW48314   7.931   3.633  12.299
48806SOL    HW148315   8.020   3.605  12.320
48806SOL    HW248316   7.919   3.713  12.350
48807SOL     OW48317  10.020   8.528  13.365
48807SOL    HW148318  10.087   8.502  13.428
48807SOL    HW248319   9.948   8.561  13.418
48808SOL     OW48320   7.304  12.840  14.393
48808SOL    HW148321   7.245  12.812  14.463
48808SOL    HW248322   7.349  12.917  14.428
48809SOL     OW48323   7.277  14.722   5.200
48809SOL    HW148324   7.372  14.711   5.192
48809SOL    HW248325   7.259  14.808   5.162
48810SOL     OW48326   0.222  11.190   3.668
48810SOL    HW148327   0.222  11.283   3.690
48810SOL    HW248328   0.130  11.168   3.658
48811SOL     OW48329  13.332   2.161  12.983
48811SOL    HW148330  13.278   2.141  12.906
48811SOL    HW248331  13.384   2.082  12.996
48812SOL     OW48332   6.760   0.445   6.332
48812SOL    HW148333   6.674   0.404   6.348
48812SOL    HW248334   6.741   0.521   6.278
48813SOL     OW48335   5.766   7.671   6.216
48813SOL    HW148336   5.796   7.677   6.126
48813SOL    HW248337   5.845   7.678   6.269
48814SOL     OW48338   8.020   8.914  14.265
48814SOL    HW148339   8.061   8.997  14.239
48814SOL    HW248340   7.944   8.906  14.208
48815SOL     OW48341   8.309   7.239  10.048
48815SOL    HW148342   8.321   7.298   9.973
48815SOL    HW248343   8.250   7.286  10.106
48816SOL     OW48344   1.800  13.599   4.086
48816SOL    HW148345   1.843  13.649   4.016
48816SOL    HW248346   1.818  13.508   4.066
48817SOL     OW48347  12.440  14.044   6.721
48817SOL    HW148348  12.510  13.991   6.682
48817SOL    HW248349  12.415  14.104   6.651
48818SOL     OW48350   8.966  14.029   9.014
48818SOL    HW148351   8.874  14.044   8.993
48818SOL    HW248352   8.998  13.973   8.944
48819SOL     OW48353   8.417   4.410   5.301
48819SOL    HW148354   8.462   4.470   5.243
48819SOL    HW248355   8.376   4.466   5.367
48820SOL     OW48356   6.049   0.953  11.711
48820SOL    HW148357   6.044   0.929  11.619
48820SOL    HW248358   6.015   0.876  11.758
48821SOL     OW48359  10.546   5.576   3.799
48821SOL    HW148360  10.628   5.579   3.848
48821SOL    HW248361  10.536   5.664   3.763
48822SOL     OW48362   3.001   8.574   7.269
48822SOL    HW148363   3.090   8.580   7.234
48822SOL    HW248364   3.013   8.553   7.361
48823SOL     OW48365   5.148   7.412   1.904
48823SOL    HW148366   5.166   7.416   1.999
48823SOL    HW248367   5.061   7.450   1.895
48824SOL     OW48368  11.772   4.970   4.041
48824SOL    HW148369  11.782   5.014   4.125
48824SOL    HW248370  11.777   5.041   3.976
48825SOL     OW48371   9.581  14.148  12.171
48825SOL    HW148372   9.501  14.156  12.224
48825SOL    HW248373   9.555  14.182  12.085
48826SOL     OW48374   2.845  12.013   4.929
48826SOL    HW148375   2.846  12.004   4.834
48826SOL    HW248376   2.886  11.933   4.962
48827SOL     OW48377   3.532   6.352   7.368
48827SOL    HW148378   3.511   6.269   7.324
48827SOL    HW248379   3.458   6.409   7.348
48828SOL     OW48380   3.228   0.864   3.109
48828SOL    HW148381   3.195   0.834   3.025
48828SOL    HW248382   3.306   0.811   3.125
48829SOL     OW48383   2.500   1.488  11.396
48829SOL    HW148384   2.461   1.411  11.357
48829SOL    HW248385   2.577   1.507  11.342
48830SOL     OW48386  10.372  12.203   1.563
48830SOL    HW148387  10.365  12.280   1.506
48830SOL    HW248388  10.288  12.158   1.552
48831SOL     OW48389   0.605   4.713  11.343
48831SOL    HW148390   0.526   4.758  11.312
48831SOL    HW248391   0.581   4.621  11.346
48832SOL     OW48392   9.113  14.256   8.008
48832SOL    HW148393   9.190  14.209   7.976
48832SOL    HW248394   9.088  14.313   7.935
48833SOL     OW48395   1.603  13.311  11.057
48833SOL    HW148396   1.543  13.381  11.034
48833SOL    HW248397   1.579  13.287  11.147
48834SOL     OW48398   2.779   1.832   9.193
48834SOL    HW148399   2.834   1.906   9.220
48834SOL    HW248400   2.834   1.755   9.203
48835SOL     OW48401   5.566   9.727   2.414
48835SOL    HW148402   5.528   9.766   2.335
48835SOL    HW248403   5.506   9.754   2.484
48836SOL     OW48404   2.317  11.570   0.178
48836SOL    HW148405   2.235  11.534   0.144
48836SOL    HW248406   2.354  11.619   0.105
48837SOL     OW48407   2.737   4.043  13.271
48837SOL    HW148408   2.653   4.065  13.229
48837SOL    HW248409   2.713   4.010  13.357
48838SOL     OW48410  10.206   7.751  12.757
48838SOL    HW148411  10.123   7.797  12.770
48838SOL    HW248412  10.271   7.820  12.747
48839SOL     OW48413  11.843   0.707   6.966
48839SOL    HW148414  11.918   0.743   6.919
48839SOL    HW248415  11.827   0.769   7.037
48840SOL     OW48416   1.522  11.669   5.912
48840SOL    HW148417   1.443  11.654   5.964
48840SOL    HW248418   1.564  11.584   5.906
48841SOL     OW48419   0.988  14.711   7.601
48841SOL    HW148420   1.082  14.708   7.583
48841SOL    HW248421   0.971  14.801   7.630
48842SOL     OW48422   3.097   7.179   8.797
48842SOL    HW148423   3.128   7.161   8.708
48842SOL    HW248424   3.175   7.207   8.845
48843SOL     OW48425   8.783   3.947   0.512
48843SOL    HW148426   8.690   3.924   0.509
48843SOL    HW248427   8.785   4.039   0.536
48844SOL     OW48428   7.998   3.986  10.729
48844SOL    HW148429   8.092   4.004  10.730
48844SOL    HW248430   7.961   4.060  10.681
48845SOL     OW48431  11.516   9.493  10.296
48845SOL    HW148432  11.547   9.405  10.279
48845SOL    HW248433  11.546   9.544  10.221
48846SOL     OW48434   8.406  13.704   2.596
48846SOL    HW148435   8.445  13.748   2.521
48846SOL    HW248436   8.394  13.774   2.661
48847SOL     OW48437   5.279  11.766   3.109
48847SOL    HW148438   5.373  11.781   3.120
48847SOL    HW248439   5.242  11.854   3.103
48848SOL     OW48440  13.270   6.396   9.370
48848SOL    HW148441  13.310   6.310   9.383
48848SOL    HW248442  13.322   6.456   9.424
48849SOL     OW48443  12.368   5.027  10.874
48849SOL    HW148444  12.353   5.033  10.780
48849SOL    HW248445  12.281   5.041  10.913
48850SOL     OW48446  13.156  11.274   6.479
48850SOL    HW148447  13.127  11.321   6.402
48850SOL    HW248448  13.167  11.183   6.450
48851SOL     OW48449   0.493  11.758  12.209
48851SOL    HW148450   0.532  11.686  12.159
48851SOL    HW248451   0.568  11.799  12.253
48852SOL     OW48452   9.465   3.937  13.253
48852SOL    HW148453   9.374   3.919  13.231
48852SOL    HW248454   9.515   3.889  13.186
48853SOL     OW48455   2.932   3.023   4.773
48853SOL    HW148456   2.952   2.953   4.835
48853SOL    HW248457   2.914   2.978   4.690
48854SOL     OW48458  11.841   6.907  13.965
48854SOL    HW148459  11.842   6.830  14.022
48854SOL    HW248460  11.845   6.870  13.876
48855SOL     OW48461   5.257   2.047   3.823
48855SOL    HW148462   5.336   1.997   3.802
48855SOL    HW248463   5.191   1.981   3.844
48856SOL     OW48464   7.592   4.646  12.989
48856SOL    HW148465   7.621   4.609  13.073
48856SOL    HW248466   7.500   4.620  12.983
48857SOL     OW48467   8.083   7.971   6.629
48857SOL    HW148468   8.143   7.900   6.607
48857SOL    HW248469   8.122   8.012   6.706
48858SOL     OW48470   0.168   8.496  10.025
48858SOL    HW148471   0.133   8.577  10.063
48858SOL    HW248472   0.142   8.499   9.933
48859SOL     OW48473   5.341   1.930   2.263
48859SOL    HW148474   5.265   1.947   2.319
48859SOL    HW248475   5.409   1.901   2.324
48860SOL     OW48476  13.196   8.639  11.962
48860SOL    HW148477  13.114   8.605  11.927
48860SOL    HW248478  13.264   8.596  11.911
48861SOL     OW48479   1.712   6.738   2.183
48861SOL    HW148480   1.658   6.815   2.197
48861SOL    HW248481   1.700   6.716   2.090
48862SOL     OW48482  12.781  10.387   8.008
48862SOL    HW148483  12.733  10.304   8.012
48862SOL    HW248484  12.749  10.430   7.929
48863SOL     OW48485   5.385   1.469  12.705
48863SOL    HW148486   5.386   1.559  12.738
48863SOL    HW248487   5.384   1.414  12.783
48864SOL     OW48488   3.970   6.243   2.801
48864SOL    HW148489   3.960   6.324   2.851
48864SOL    HW248490   4.055   6.209   2.828
48865SOL     OW48491   1.737  14.702   0.298
48865SOL    HW148492   1.812  14.744   0.340
48865SOL    HW248493   1.739  14.612   0.331
48866SOL     OW48494   9.269   0.460   1.912
48866SOL    HW148495   9.247   0.531   1.852
48866SOL    HW248496   9.355   0.483   1.947
48867SOL     OW48497  13.419  13.750  12.499
48867SOL    HW148498  13.349  13.694  12.532
48867SOL    HW248499  13.427  13.820  12.564
48868SOL     OW48500   8.404   6.951   5.739
48868SOL    HW148501   8.499   6.965   5.746
48868SOL    HW248502   8.395   6.888   5.667
48869SOL     OW48503   4.106   1.024  11.734
48869SOL    HW148504   4.050   0.980  11.670
48869SOL    HW248505   4.049   1.088  11.777
48870SOL     OW48506   0.924   6.054   9.488
48870SOL    HW148507   0.923   5.986   9.555
48870SOL    HW248508   0.870   6.124   9.525
48871SOL     OW48509  13.677   1.751  11.637
48871SOL    HW148510  13.673   1.843  11.609
48871SOL    HW248511  13.631   1.703  11.568
48872SOL     OW48512   5.662   4.060  14.094
48872SOL    HW148513   5.585   4.103  14.057
48872SOL    HW248514   5.717   4.040  14.018
48873SOL     OW48515   2.272   9.605  13.852
48873SOL    HW148516   2.262   9.515  13.822
48873SOL    HW248517   2.328   9.598  13.930
48874SOL     OW48518   3.067   4.592   6.442
48874SOL    HW148519   3.069   4.558   6.353
48874SOL    HW248520   2.981   4.632   6.451
48875SOL     OW48521  12.023   6.680   7.058
48875SOL    HW148522  11.988   6.732   7.130
48875SOL    HW248523  12.113   6.661   7.083
48876SOL     OW48524   1.461   4.108   9.503
48876SOL    HW148525   1.516   4.034   9.526
48876SOL    HW248526   1.372   4.073   9.500
48877SOL     OW48527  11.254   4.182  11.740
48877SOL    HW148528  11.218   4.105  11.695
48877SOL    HW248529  11.217   4.176  11.829
48878SOL     OW48530  13.877   5.633  12.502
48878SOL    HW148531  13.833   5.717  12.512
48878SOL    HW248532  13.831   5.590  12.430
48879SOL     OW48533  12.978  10.016  13.249
48879SOL    HW148534  13.012  10.006  13.161
48879SOL    HW248535  13.055  10.029  13.304
48880SOL     OW48536  13.716  14.496   9.951
48880SOL    HW148537  13.640  14.450   9.914
48880SOL    HW248538  13.705  14.587   9.923
48881SOL     OW48539   2.073   2.646   0.382
48881SOL    HW148540   2.087   2.686   0.296
48881SOL    HW248541   2.125   2.566   0.380
48882SOL     OW48542   0.154   0.334   0.637
48882SOL    HW148543   0.114   0.382   0.564
48882SOL    HW248544   0.101   0.255   0.645
48883SOL     OW48545   8.411   5.228   2.827
48883SOL    HW148546   8.497   5.224   2.785
48883SOL    HW248547   8.378   5.315   2.804
48884SOL     OW48548   8.414  11.490   3.599
48884SOL    HW148549   8.417  11.449   3.685
48884SOL    HW248550   8.443  11.580   3.614
48885SOL     OW48551   7.757   1.508   5.017
48885SOL    HW148552   7.697   1.505   4.942
48885SOL    HW248553   7.700   1.529   5.092
48886SOL     OW48554   0.691   7.253   2.915
48886SOL    HW148555   0.760   7.257   2.980
48886SOL    HW248556   0.618   7.209   2.959
48887SOL     OW48557  10.869  14.811   6.681
48887SOL    HW148558  10.814  14.777   6.752
48887SOL    HW248559  10.904  14.733   6.638
48888SOL     OW48560   6.208   1.412   5.919
48888SOL    HW148561   6.250   1.494   5.894
48888SOL    HW248562   6.280   1.358   5.953
48889SOL     OW48563   6.342  10.380  13.777
48889SOL    HW148564   6.323  10.292  13.745
48889SOL    HW248565   6.326  10.375  13.872
48890SOL     OW48566   9.040   8.518   0.236
48890SOL    HW148567   8.961   8.467   0.249
48890SOL    HW248568   9.072   8.537   0.325
48891SOL     OW48569  11.106   6.869   0.700
48891SOL    HW148570  11.099   6.959   0.732
48891SOL    HW248571  11.117   6.817   0.779
48892SOL     OW48572  13.800  13.958   9.746
48892SOL    HW148573  13.826  13.882   9.695
48892SOL    HW248574  13.757  13.921   9.824
48893SOL     OW48575   5.759  12.143   3.844
48893SOL    HW148576   5.771  12.170   3.753
48893SOL    HW248577   5.681  12.191   3.873
48894SOL     OW48578  13.870   6.556   7.871
48894SOL    HW148579  13.802   6.604   7.919
48894SOL    HW248580  13.872   6.598   7.785
48895SOL     OW48581   2.860   1.339   6.184
48895SOL    HW148582   2.875   1.246   6.204
48895SOL    HW248583   2.766   1.346   6.172
48896SOL     OW48584   4.009   7.186   5.350
48896SOL    HW148585   4.006   7.246   5.276
48896SOL    HW248586   3.919   7.183   5.382
48897SOL     OW48587   5.608   5.584   1.318
48897SOL    HW148588   5.695   5.549   1.335
48897SOL    HW248589   5.607   5.601   1.223
48898SOL     OW48590  10.368   4.049   4.939
48898SOL    HW148591  10.336   4.054   4.849
48898SOL    HW248592  10.310   4.107   4.988
48899SOL     OW48593   4.368  14.645  12.411
48899SOL    HW148594   4.447  14.620  12.458
48899SOL    HW248595   4.328  14.713  12.466
48900SOL     OW48596   4.621   4.494   4.657
48900SOL    HW148597   4.707   4.518   4.693
48900SOL    HW248598   4.627   4.400   4.643
48901SOL     OW48599  10.445  11.787  14.611
48901SOL    HW148600  10.421  11.705  14.568
48901SOL    HW248601  10.528  11.813  14.569
48902SOL     OW48602   0.980   8.792   4.885
48902SOL    HW148603   1.047   8.847   4.926
48902SOL    HW248604   1.022   8.758   4.806
48903SOL     OW48605  11.346  14.572  11.687
48903SOL    HW148606  11.375  14.635  11.753
48903SOL    HW248607  11.275  14.617  11.640
48904SOL     OW48608   7.321  14.591   3.960
48904SOL    HW148609   7.315  14.495   3.962
48904SOL    HW248610   7.414  14.610   3.970
48905SOL     OW48611   1.935   2.254  12.183
48905SOL    HW148612   1.877   2.309  12.236
48905SOL    HW248613   1.885   2.238  12.102
48906SOL     OW48614   2.140   7.238   0.815
48906SOL    HW148615   2.113   7.329   0.829
48906SOL    HW248616   2.223   7.231   0.862
48907SOL     OW48617   0.280   8.562   0.320
48907SOL    HW148618   0.321   8.621   0.258
48907SOL    HW248619   0.220   8.617   0.371
48908SOL     OW48620   5.702   4.284   1.108
48908SOL    HW148621   5.618   4.253   1.075
48908SOL    HW248622   5.679   4.359   1.163
48909SOL     OW48623   9.066   7.795   1.705
48909SOL    HW148624   9.109   7.852   1.768
48909SOL    HW248625   9.132   7.730   1.682
48910SOL     OW48626   9.090  12.776  11.890
48910SOL    HW148627   9.149  12.832  11.839
48910SOL    HW248628   9.053  12.715  11.826
48911SOL     OW48629  14.443  11.935   0.455
48911SOL    HW148630  14.454  12.002   0.388
48911SOL    HW248631  14.496  11.861   0.424
48912SOL     OW48632  13.631  10.969  11.881
48912SOL    HW148633  13.587  10.993  11.800
48912SOL    HW248634  13.626  11.049  11.935
48913SOL     OW48635   3.784   7.640   4.273
48913SOL    HW148636   3.795   7.562   4.327
48913SOL    HW248637   3.871   7.680   4.269
48914SOL     OW48638   4.529   4.370   2.657
48914SOL    HW148639   4.435   4.366   2.673
48914SOL    HW248640   4.561   4.441   2.712
48915SOL     OW48641   8.424   8.119   0.576
48915SOL    HW148642   8.456   8.111   0.666
48915SOL    HW248643   8.502   8.109   0.522
48916SOL     OW48644   9.148  11.950  11.963
48916SOL    HW148645   9.192  11.883  11.912
48916SOL    HW248646   9.170  11.929  12.054
48917SOL     OW48647  10.065   3.937  13.926
48917SOL    HW148648   9.970   3.946  13.916
48917SOL    HW248649  10.097   4.027  13.935
48918SOL     OW48650   0.482  12.077   1.701
48918SOL    HW148651   0.497  12.026   1.781
48918SOL    HW248652   0.395  12.115   1.714
48919SOL     OW48653  14.161   0.926   7.355
48919SOL    HW148654  14.174   1.004   7.301
48919SOL    HW248655  14.198   0.950   7.440
48920SOL     OW48656   4.732   8.226   2.982
48920SOL    HW148657   4.692   8.244   3.067
48920SOL    HW248658   4.739   8.311   2.940
48921SOL     OW48659   0.066  11.401   5.872
48921SOL    HW148660   0.003  11.420   5.941
48921SOL    HW248661   0.025  11.332   5.820
48922SOL     OW48662   8.970  10.360  14.539
48922SOL    HW148663   8.879  10.332  14.545
48922SOL    HW248664   9.002  10.323  14.457
48923SOL     OW48665  12.843  12.809  12.528
48923SOL    HW148666  12.914  12.859  12.569
48923SOL    HW248667  12.886  12.730  12.496
48924SOL     OW48668  13.317  10.932   2.485
48924SOL    HW148669  13.281  10.844   2.478
48924SOL    HW248670  13.411  10.918   2.501
48925SOL     OW48671   8.144  13.222  13.215
48925SOL    HW148672   8.073  13.286  13.216
48925SOL    HW248673   8.158  13.200  13.307
48926SOL     OW48674   1.997   9.750  10.179
48926SOL    HW148675   2.048   9.791  10.250
48926SOL    HW248676   2.000   9.813  10.108
48927SOL     OW48677   0.875  14.091   7.094
48927SOL    HW148678   0.863  14.071   7.187
48927SOL    HW248679   0.854  14.184   7.086
48928SOL     OW48680   3.624  10.239   4.716
48928SOL    HW148681   3.654  10.200   4.634
48928SOL    HW248682   3.540  10.197   4.733
48929SOL     OW48683  11.141   0.218   7.836
48929SOL    HW148684  11.142   0.205   7.741
48929SOL    HW248685  11.129   0.131   7.873
48930SOL     OW48686   9.964   9.966   3.878
48930SOL    HW148687   9.940  10.036   3.939
48930SOL    HW248688   9.880   9.934   3.845
48931SOL     OW48689   6.586   6.871   2.337
48931SOL    HW148690   6.591   6.777   2.323
48931SOL    HW248691   6.559   6.880   2.429
48932SOL     OW48692   9.913   7.496  10.173
48932SOL    HW148693   9.985   7.558  10.168
48932SOL    HW248694   9.834   7.549  10.165
48933SOL     OW48695  13.053   8.947  12.224
48933SOL    HW148696  13.036   8.858  12.191
48933SOL    HW248697  13.148   8.954  12.225
48934SOL     OW48698   0.986   9.549   0.472
48934SOL    HW148699   0.944   9.565   0.388
48934SOL    HW248700   1.071   9.592   0.466
48935SOL     OW48701  12.866   6.932   8.686
48935SOL    HW148702  12.900   6.857   8.637
48935SOL    HW248703  12.915   7.007   8.653
48936SOL     OW48704   6.914  12.576   2.030
48936SOL    HW148705   6.934  12.514   2.101
48936SOL    HW248706   6.931  12.662   2.068
48937SOL     OW48707  14.340   0.739   8.297
48937SOL    HW148708  14.419   0.733   8.351
48937SOL    HW248709  14.325   0.649   8.268
48938SOL     OW48710  13.397  13.622   5.079
48938SOL    HW148711  13.461  13.557   5.052
48938SOL    HW248712  13.348  13.580   5.149
48939SOL     OW48713   0.770  12.129   0.997
48939SOL    HW148714   0.756  12.034   1.004
48939SOL    HW248715   0.750  12.150   0.906
48940SOL     OW48716   8.965   0.937   6.226
48940SOL    HW148717   9.013   0.885   6.162
48940SOL    HW248718   8.991   0.899   6.311
48941SOL     OW48719   4.863   3.815   4.100
48941SOL    HW148720   4.841   3.902   4.067
48941SOL    HW248721   4.875   3.829   4.194
48942SOL     OW48722   4.212  10.915   3.051
48942SOL    HW148723   4.127  10.877   3.030
48942SOL    HW248724   4.273  10.841   3.046
48943SOL     OW48725   4.940   3.446   4.979
48943SOL    HW148726   4.927   3.457   4.885
48943SOL    HW248727   4.867   3.389   5.006
48944SOL     OW48728   7.792   7.128   1.629
48944SOL    HW148729   7.788   7.222   1.651
48944SOL    HW248730   7.853   7.092   1.694
48945SOL     OW48731   8.490  11.393   1.156
48945SOL    HW148732   8.468  11.414   1.066
48945SOL    HW248733   8.423  11.331   1.184
48946SOL     OW48734   1.013  11.110   4.021
48946SOL    HW148735   0.942  11.174   4.019
48946SOL    HW248736   1.079  11.148   4.079
48947SOL     OW48737   1.534   1.594  10.947
48947SOL    HW148738   1.594   1.550  10.886
48947SOL    HW248739   1.590   1.629  11.016
48948SOL     OW48740   0.508   0.113   7.144
48948SOL    HW148741   0.527   0.039   7.201
48948SOL    HW248742   0.589   0.164   7.143
48949SOL     OW48743  11.881  14.187   7.117
48949SOL    HW148744  11.843  14.257   7.065
48949SOL    HW248745  11.838  14.195   7.203
48950SOL     OW48746  11.587   4.624  12.456
48950SOL    HW148747  11.506   4.664  12.487
48950SOL    HW248748  11.632   4.694  12.408
48951SOL     OW48749  13.189   6.821  10.231
48951SOL    HW148750  13.248   6.759  10.273
48951SOL    HW248751  13.229   6.906  10.246
48952SOL     OW48752   9.964  10.454  10.128
48952SOL    HW148753   9.937  10.470  10.219
48952SOL    HW248754  10.059  10.464  10.129
48953SOL     OW48755   3.015  10.048   8.131
48953SOL    HW148756   3.068   9.982   8.175
48953SOL    HW248757   2.954   9.998   8.076
48954SOL     OW48758   1.623   3.469  10.324
48954SOL    HW148759   1.676   3.395  10.296
48954SOL    HW248760   1.674   3.511  10.392
48955SOL     OW48761   9.659   1.679   5.972
48955SOL    HW148762   9.688   1.619   6.040
48955SOL    HW248763   9.599   1.738   6.017
48956SOL     OW48764   6.104  12.581   0.525
48956SOL    HW148765   6.199  12.574   0.532
48956SOL    HW248766   6.072  12.579   0.615
48957SOL     OW48767  12.467   3.590   4.988
48957SOL    HW148768  12.494   3.673   4.949
48957SOL    HW248769  12.541   3.531   4.974
48958SOL     OW48770   4.124   5.334   5.018
48958SOL    HW148771   4.158   5.417   4.984
48958SOL    HW248772   4.036   5.328   4.982
48959SOL     OW48773   6.158  11.126   7.149
48959SOL    HW148774   6.254  11.133   7.141
48959SOL    HW248775   6.124  11.193   7.090
48960SOL     OW48776   5.454  13.559  11.988
48960SOL    HW148777   5.395  13.486  11.971
48960SOL    HW248778   5.413  13.609  12.059
48961SOL     OW48779   1.520   4.162   4.343
48961SOL    HW148780   1.584   4.093   4.328
48961SOL    HW248781   1.438   4.115   4.357
48962SOL     OW48782   1.953   2.132   7.842
48962SOL    HW148783   1.898   2.055   7.823
48962SOL    HW248784   1.970   2.126   7.936
48963SOL     OW48785   6.291   6.587   4.012
48963SOL    HW148786   6.365   6.538   4.047
48963SOL    HW248787   6.261   6.535   3.937
48964SOL     OW48788   6.732  13.469   8.916
48964SOL    HW148789   6.651  13.479   8.964
48964SOL    HW248790   6.714  13.507   8.830
48965SOL     OW48791  14.335   5.542   9.686
48965SOL    HW148792  14.396   5.565   9.616
48965SOL    HW248793  14.294   5.460   9.657
48966SOL     OW48794   1.403   0.429   9.021
48966SOL    HW148795   1.343   0.500   9.043
48966SOL    HW248796   1.436   0.398   9.105
48967SOL     OW48797  10.535   0.191   2.474
48967SOL    HW148798  10.586   0.233   2.544
48967SOL    HW248799  10.453   0.241   2.472
48968SOL     OW48800  14.255   8.575   9.022
48968SOL    HW148801  14.193   8.647   9.011
48968SOL    HW248802  14.224   8.507   8.963
48969SOL     OW48803   5.575   4.736   5.395
48969SOL    HW148804   5.483   4.718   5.418
48969SOL    HW248805   5.621   4.655   5.415
48970SOL     OW48806  11.363   3.934   9.006
48970SOL    HW148807  11.377   4.013   9.059
48970SOL    HW248808  11.270   3.916   9.015
48971SOL     OW48809   1.915   6.378   9.341
48971SOL    HW148810   1.924   6.468   9.375
48971SOL    HW248811   1.901   6.324   9.419
48972SOL     OW48812  10.035   7.993   5.574
48972SOL    HW148813   9.988   7.988   5.657
48972SOL    HW248814  10.053   7.902   5.550
48973SOL     OW48815   6.571   0.054   4.686
48973SOL    HW148816   6.510   0.068   4.614
48973SOL    HW248817   6.622  14.860   4.660
48974SOL     OW48818   3.086  13.577  13.906
48974SOL    HW148819   3.035  13.658  13.902
48974SOL    HW248820   3.165  13.601  13.954
48975SOL     OW48821   4.303  12.362  10.294
48975SOL    HW148822   4.244  12.380  10.220
48975SOL    HW248823   4.378  12.419  10.279
48976SOL     OW48824   1.668  10.435  10.565
48976SOL    HW148825   1.585  10.422  10.611
48976SOL    HW248826   1.693  10.526  10.583
48977SOL     OW48827   8.846   2.744   0.983
48977SOL    HW148828   8.803   2.734   1.068
48977SOL    HW248829   8.913   2.811   0.998
48978SOL     OW48830  13.116  11.074   5.205
48978SOL    HW148831  13.071  11.107   5.127
48978SOL    HW248832  13.199  11.040   5.173
48979SOL     OW48833   8.743  11.114   6.802
48979SOL    HW148834   8.699  11.177   6.744
48979SOL    HW248835   8.684  11.039   6.804
48980SOL     OW48836  11.160   9.107  13.803
48980SOL    HW148837  11.204   9.191  13.814
48980SOL    HW248838  11.230   9.043  13.795
48981SOL     OW48839  10.364   6.740   1.363
48981SOL    HW148840  10.449   6.777   1.386
48981SOL    HW248841  10.339   6.786   1.283
48982SOL     OW48842   8.160   8.318   3.625
48982SOL    HW148843   8.230   8.372   3.661
48982SOL    HW248844   8.167   8.235   3.673
48983SOL     OW48845  12.912  11.593   1.164
48983SOL    HW148846  12.859  11.514   1.169
48983SOL    HW248847  12.849  11.665   1.158
48984SOL     OW48848  11.205  12.947   3.434
48984SOL    HW148849  11.114  12.973   3.416
48984SOL    HW248850  11.255  13.029   3.428
48985SOL     OW48851   0.692   3.665  13.513
48985SOL    HW148852   0.747   3.729  13.557
48985SOL    HW248853   0.701   3.585  13.566
48986SOL     OW48854  13.429   0.821   8.426
48986SOL    HW148855  13.426   0.917   8.425
48986SOL    HW248856  13.505   0.799   8.373
48987SOL     OW48857   0.088   8.101   9.604
48987SOL    HW148858   0.043   8.016   9.597
48987SOL    HW248859   0.047   8.143   9.680
48988SOL     OW48860   2.429   7.277   3.051
48988SOL    HW148861   2.370   7.202   3.050
48988SOL    HW248862   2.468   7.276   3.138
48989SOL     OW48863   3.023   8.214   8.784
48989SOL    HW148864   3.119   8.216   8.782
48989SOL    HW248865   2.996   8.252   8.701
48990SOL     OW48866  10.500  14.648   3.694
48990SOL    HW148867  10.492  14.649   3.789
48990SOL    HW248868  10.552  14.726   3.674
48991SOL     OW48869  11.472  13.957  14.570
48991SOL    HW148870  11.548  13.929  14.519
48991SOL    HW248871  11.502  14.033  14.619
48992SOL     OW48872   2.939   5.954   5.188
48992SOL    HW148873   2.965   6.043   5.210
48992SOL    HW248874   2.930   5.954   5.093
48993SOL     OW48875   7.329   2.573  12.792
48993SOL    HW148876   7.378   2.544  12.715
48993SOL    HW248877   7.395   2.587  12.859
48994SOL     OW48878   7.052  11.768  12.348
48994SOL    HW148879   7.050  11.685  12.299
48994SOL    HW248880   7.117  11.752  12.417
48995SOL     OW48881   6.632   2.831   0.657
48995SOL    HW148882   6.602   2.896   0.593
48995SOL    HW248883   6.558   2.817   0.715
48996SOL     OW48884   6.292   7.408   3.689
48996SOL    HW148885   6.278   7.498   3.719
48996SOL    HW248886   6.205   7.368   3.693
48997SOL     OW48887  10.180   7.950   1.725
48997SOL    HW148888  10.133   7.867   1.733
48997SOL    HW248889  10.237   7.953   1.801
48998SOL     OW48890  13.199   8.147   4.795
48998SOL    HW148891  13.119   8.196   4.778
48998SOL    HW248892  13.178   8.089   4.868
48999SOL     OW48893   2.793   0.208   0.126
48999SOL    HW148894   2.753   0.294   0.134
48999SOL    HW248895   2.725   0.147   0.153
49000SOL     OW48896   4.888  13.555   7.997
49000SOL    HW148897   4.840  13.497   7.938
49000SOL    HW248898   4.824  13.621   8.024
49001SOL     OW48899   8.883  10.610   9.328
49001SOL    HW148900   8.851  10.621   9.417
49001SOL    HW248901   8.811  10.640   9.272
49002SOL     OW48902   7.927  12.058   8.270
49002SOL    HW148903   7.982  12.134   8.254
49002SOL    HW248904   7.896  12.031   8.183
49003SOL     OW48905   7.114   7.716   2.947
49003SOL    HW148906   7.141   7.777   3.016
49003SOL    HW248907   7.092   7.635   2.994
49004SOL     OW48908   3.186   6.520   0.076
49004SOL    HW148909   3.189   6.552   0.166
49004SOL    HW248910   3.103   6.554   0.042
49005SOL     OW48911   6.927   0.066   7.769
49005SOL    HW148912   6.962  14.860   7.766
49005SOL    HW248913   6.840   0.057   7.808
49006SOL     OW48914  12.890   8.329   6.117
49006SOL    HW148915  12.961   8.272   6.150
49006SOL    HW248916  12.855   8.371   6.196
49007SOL     OW48917   0.023   5.162  14.412
49007SOL    HW148918   0.087   5.097  14.383
49007SOL    HW248919  14.820   5.123  14.389
49008SOL     OW48920  13.711   0.747   2.541
49008SOL    HW148921  13.708   0.698   2.624
49008SOL    HW248922  13.784   0.707   2.493
49009SOL     OW48923  12.532   3.345  13.317
49009SOL    HW148924  12.438   3.357  13.321
49009SOL    HW248925  12.566   3.429  13.286
49010SOL     OW48926  14.473   0.820  11.425
49010SOL    HW148927  14.474   0.776  11.510
49010SOL    HW248928  14.533   0.768  11.371
49011SOL     OW48929   6.065  13.970  10.871
49011SOL    HW148930   6.002  13.920  10.819
49011SOL    HW248931   6.134  13.908  10.892
49012SOL     OW48932   4.182   6.458   3.099
49012SOL    HW148933   4.221   6.435   3.015
49012SOL    HW248934   4.153   6.549   3.088
49013SOL     OW48935   1.992  11.384  10.885
49013SOL    HW148936   1.965  11.418  10.970
49013SOL    HW248937   2.008  11.462  10.832
49014SOL     OW48938  13.159   1.261   1.824
49014SOL    HW148939  13.232   1.271   1.762
49014SOL    HW248940  13.148   1.167   1.832
49015SOL     OW48941   2.225  13.246   5.093
49015SOL    HW148942   2.267  13.287   5.017
49015SOL    HW248943   2.147  13.299   5.108
49016SOL     OW48944   5.105   2.752   9.500
49016SOL    HW148945   5.170   2.690   9.534
49016SOL    HW248946   5.143   2.838   9.516
49017SOL     OW48947   4.226   5.194   4.280
49017SOL    HW148948   4.320   5.210   4.268
49017SOL    HW248949   4.193   5.181   4.191
49018SOL     OW48950  11.752  13.894   9.935
49018SOL    HW148951  11.799  13.935  10.007
49018SOL    HW248952  11.703  13.966   9.894
49019SOL     OW48953   5.528   7.741  11.336
49019SOL    HW148954   5.591   7.673  11.357
49019SOL    HW248955   5.487   7.763  11.419
49020SOL     OW48956   5.606   0.833   9.934
49020SOL    HW148957   5.542   0.774   9.975
49020SOL    HW248958   5.635   0.890  10.005
49021SOL     OW48959   8.400   2.905   6.567
49021SOL    HW148960   8.318   2.858   6.582
49021SOL    HW248961   8.468   2.841   6.585
49022SOL     OW48962   4.499  12.571   4.468
49022SOL    HW148963   4.459  12.657   4.457
49022SOL    HW248964   4.531  12.547   4.381
49023SOL     OW48965   2.042   7.716  13.055
49023SOL    HW148966   2.069   7.780  13.120
49023SOL    HW248967   1.960   7.680  13.089
49024SOL     OW48968  12.861  11.950   0.161
49024SOL    HW148969  12.821  12.006   0.227
49024SOL    HW248970  12.933  12.003   0.126
49025SOL     OW48971   9.715   5.247   9.983
49025SOL    HW148972   9.745   5.330   9.947
49025SOL    HW248973   9.633   5.229   9.936
49026SOL     OW48974  14.537   4.993   1.061
49026SOL    HW148975  14.506   5.024   1.146
49026SOL    HW248976  14.502   5.057   0.998
49027SOL     OW48977  10.893   3.288   7.713
49027SOL    HW148978  10.937   3.370   7.734
49027SOL    HW248979  10.952   3.220   7.744
49028SOL     OW48980  11.260  14.770  12.447
49028SOL    HW148981  11.295  14.736  12.365
49028SOL    HW248982  11.309  14.724  12.515
49029SOL     OW48983   5.973   1.046  14.089
49029SOL    HW148984   6.037   0.975  14.090
49029SOL    HW248985   5.913   1.025  14.160
49030SOL     OW48986   7.282  11.046   2.924
49030SOL    HW148987   7.206  11.057   2.866
49030SOL    HW248988   7.273  10.957   2.958
49031SOL     OW48989  13.229   1.710  12.727
49031SOL    HW148990  13.317   1.749  12.732
49031SOL    HW248991  13.237   1.628  12.775
49032SOL     OW48992   7.749  12.113   2.744
49032SOL    HW148993   7.776  12.115   2.652
49032SOL    HW248994   7.830  12.112   2.793
49033SOL     OW48995   6.370  10.496  10.715
49033SOL    HW148996   6.305  10.476  10.783
49033SOL    HW248997   6.454  10.481  10.757
49034SOL     OW48998  11.916  11.611   5.429
49034SOL    HW148999  11.927  11.518   5.447
49034SOL    HW249000  11.821  11.624   5.424
49035SOL     OW49001   1.714   4.328   0.721
49035SOL    HW149002   1.661   4.384   0.778
49035SOL    HW249003   1.672   4.333   0.635
49036SOL     OW49004  11.786  12.924   4.027
49036SOL    HW149005  11.718  12.928   3.960
49036SOL    HW249006  11.739  12.910   4.109
49037SOL     OW49007   0.083  13.830  11.247
49037SOL    HW149008   0.019  13.796  11.309
49037SOL    HW249009   0.058  13.921  11.234
49038SOL     OW49010  11.883  12.235   8.442
49038SOL    HW149011  11.882  12.170   8.371
49038SOL    HW249012  11.966  12.281   8.432
49039SOL     OW49013   1.964   0.176  10.575
49039SOL    HW149014   2.016   0.219  10.507
49039SOL    HW249015   1.885   0.146  10.531
49040SOL     OW49016   7.197  11.427   1.491
49040SOL    HW149017   7.155  11.447   1.407
49040SOL    HW249018   7.262  11.359   1.469
49041SOL     OW49019   4.518   0.006  11.310
49041SOL    HW149020   4.448  14.845  11.359
49041SOL    HW249021   4.548   0.076  11.366
49042SOL     OW49022   4.317   1.812   8.595
49042SOL    HW149023   4.391   1.871   8.605
49042SOL    HW249024   4.356   1.730   8.564
49043SOL     OW49025  11.458  14.766  14.382
49043SOL    HW149026  11.397  14.757  14.309
49043SOL    HW249027  11.528  14.822  14.348
49044SOL     OW49028  13.629   4.296   3.647
49044SOL    HW149029  13.718   4.274   3.675
49044SOL    HW249030  13.640   4.373   3.592
49045SOL     OW49031   8.867   6.147  10.927
49045SOL    HW149032   8.958   6.165  10.903
49045SOL    HW249033   8.854   6.055  10.906
49046SOL     OW49034  14.750   4.002   9.232
49046SOL    HW149035  14.818   3.939   9.208
49046SOL    HW249036  14.779   4.037   9.316
49047SOL     OW49037   4.057   4.947   3.625
49047SOL    HW149038   3.985   4.955   3.687
49047SOL    HW249039   4.025   4.988   3.545
49048SOL     OW49040   9.640   3.515  11.513
49048SOL    HW149041   9.563   3.481  11.467
49048SOL    HW249042   9.706   3.446  11.505
49049SOL     OW49043   1.191  14.162  14.692
49049SOL    HW149044   1.188  14.106  14.615
49049SOL    HW249045   1.262  14.224  14.675
49050SOL     OW49046   1.690  11.517   5.430
49050SOL    HW149047   1.596  11.535   5.421
49050SOL    HW249048   1.694  11.430   5.470
49051SOL     OW49049   6.534   9.689  14.298
49051SOL    HW149050   6.626   9.668  14.309
49051SOL    HW249051   6.516   9.671  14.206
49052SOL     OW49052   5.350   4.626   0.403
49052SOL    HW149053   5.416   4.567   0.439
49052SOL    HW249054   5.398   4.706   0.382
49053SOL     OW49055   3.577   0.654   8.430
49053SOL    HW149056   3.592   0.585   8.366
49053SOL    HW249057   3.487   0.641   8.460
49054SOL     OW49058   9.709   5.458  14.103
49054SOL    HW149059   9.783   5.404  14.076
49054SOL    HW249060   9.734   5.547  14.080
49055SOL     OW49061  14.183  13.690  10.221
49055SOL    HW149062  14.252  13.630  10.248
49055SOL    HW249063  14.207  13.774  10.261
49056SOL     OW49064   9.106  10.770  12.023
49056SOL    HW149065   9.152  10.776  12.106
49056SOL    HW249066   9.044  10.698  12.035
49057SOL     OW49067  13.262   1.536  12.115
49057SOL    HW149068  13.322   1.482  12.166
49057SOL    HW249069  13.318   1.603  12.075
49058SOL     OW49070  13.392   0.541   6.106
49058SOL    HW149071  13.397   0.495   6.022
49058SOL    HW249072  13.393   0.471   6.171
49059SOL     OW49073   5.977   0.788   9.888
49059SOL    HW149074   6.019   0.828   9.965
49059SOL    HW249075   5.967   0.696   9.911
49060SOL     OW49076   1.041  12.746   1.332
49060SOL    HW149077   0.989  12.786   1.402
49060SOL    HW249078   1.128  12.734   1.370
49061SOL     OW49079   7.104  12.805   0.918
49061SOL    HW149080   7.053  12.885   0.911
49061SOL    HW249081   7.183  12.822   0.867
49062SOL     OW49082   8.958   7.994   7.562
49062SOL    HW149083   8.907   7.946   7.496
49062SOL    HW249084   8.995   8.068   7.514
49063SOL     OW49085   0.131  13.131   2.474
49063SOL    HW149086   0.097  13.071   2.408
49063SOL    HW249087   0.077  13.210   2.464
49064SOL     OW49088   4.155   7.462  12.533
49064SOL    HW149089   4.148   7.558  12.535
49064SOL    HW249090   4.209   7.444  12.456
49065SOL     OW49091  10.241   0.643  10.907
49065SOL    HW149092  10.244   0.653  10.812
49065SOL    HW249093  10.328   0.670  10.937
49066SOL     OW49094   1.790   1.953  11.180
49066SOL    HW149095   1.758   2.035  11.141
49066SOL    HW249096   1.721   1.926  11.240
49067SOL     OW49097  11.286   5.879   0.113
49067SOL    HW149098  11.322   5.792   0.127
49067SOL    HW249099  11.251   5.905   0.199
49068SOL     OW49100   5.252   0.771   7.021
49068SOL    HW149101   5.248   0.694   6.965
49068SOL    HW249102   5.257   0.845   6.960
49069SOL     OW49103   1.774  10.098  13.127
49069SOL    HW149104   1.808  10.183  13.155
49069SOL    HW249105   1.831  10.034  13.171
49070SOL     OW49106   2.658  13.721  12.442
49070SOL    HW149107   2.740  13.732  12.490
49070SOL    HW249108   2.626  13.810  12.428
49071SOL     OW49109   7.254   1.895   7.193
49071SOL    HW149110   7.333   1.930   7.150
49071SOL    HW249111   7.279   1.807   7.220
49072SOL     OW49112   6.000   6.813   9.918
49072SOL    HW149113   6.025   6.847   9.832
49072SOL    HW249114   5.969   6.724   9.901
49073SOL     OW49115   0.267  14.062  12.782
49073SOL    HW149116   0.291  14.021  12.699
49073SOL    HW249117   0.297  14.153  12.774
49074SOL     OW49118   3.105  11.068  12.777
49074SOL    HW149119   3.155  10.995  12.741
49074SOL    HW249120   3.025  11.071  12.724
49075SOL     OW49121   5.073   3.347   0.737
49075SOL    HW149122   5.132   3.315   0.668
49075SOL    HW249123   5.038   3.428   0.701
49076SOL     OW49124   3.106  14.479  10.718
49076SOL    HW149125   3.077  14.471  10.809
49076SOL    HW249126   3.201  14.464  10.723
49077SOL     OW49127   1.552  10.078   5.784
49077SOL    HW149128   1.473  10.130   5.770
49077SOL    HW249129   1.532  10.026   5.862
49078SOL     OW49130   1.432  13.831   5.873
49078SOL    HW149131   1.495  13.788   5.930
49078SOL    HW249132   1.350  13.783   5.887
49079SOL     OW49133   1.021   2.209   9.693
49079SOL    HW149134   0.943   2.255   9.661
49079SOL    HW249135   1.076   2.199   9.615
49080SOL     OW49136   9.341   0.274   0.033
49080SOL    HW149137   9.338   0.277   0.129
49080SOL    HW249138   9.372   0.361   0.007
49081SOL     OW49139   1.411  13.230   2.602
49081SOL    HW149140   1.499  13.207   2.574
49081SOL    HW249141   1.359  13.151   2.588
49082SOL     OW49142   7.294   4.206  11.916
49082SOL    HW149143   7.370   4.201  11.858
49082SOL    HW249144   7.321   4.160  11.995
49083SOL     OW49145  12.143   1.490   2.346
49083SOL    HW149146  12.088   1.551   2.297
49083SOL    HW249147  12.135   1.518   2.437
49084SOL     OW49148   4.077   4.727   7.858
49084SOL    HW149149   4.116   4.759   7.776
49084SOL    HW249150   4.134   4.656   7.886
49085SOL     OW49151   5.261  14.556   2.262
49085SOL    HW149152   5.268  14.651   2.273
49085SOL    HW249153   5.167  14.540   2.259
49086SOL     OW49154   4.009   9.418   3.012
49086SOL    HW149155   3.964   9.334   3.017
49086SOL    HW249156   4.089   9.406   3.063
49087SOL     OW49157   1.761   3.378   2.190
49087SOL    HW149158   1.779   3.298   2.140
49087SOL    HW249159   1.732   3.346   2.276
49088SOL     OW49160   2.700  11.380  11.496
49088SOL    HW149161   2.668  11.421  11.415
49088SOL    HW249162   2.622  11.340  11.534
49089SOL     OW49163   9.463  10.742   4.538
49089SOL    HW149164   9.390  10.731   4.599
49089SOL    HW249165   9.444  10.824   4.492
49090SOL     OW49166   9.757   5.971   0.940
49090SOL    HW149167   9.694   6.000   0.874
49090SOL    HW249168   9.720   6.001   1.023
49091SOL     OW49169  14.300   3.099   0.802
49091SOL    HW149170  14.246   3.026   0.769
49091SOL    HW249171  14.377   3.100   0.745
49092SOL     OW49172   7.163   2.822  12.930
49092SOL    HW149173   7.242   2.771  12.915
49092SOL    HW249174   7.186   2.884  12.999
49093SOL     OW49175  14.081  14.688   6.827
49093SOL    HW149176  14.116  14.722   6.745
49093SOL    HW249177  14.037  14.606   6.803
49094SOL     OW49178   8.909  11.353   8.903
49094SOL    HW149179   8.913  11.397   8.818
49094SOL    HW249180   8.924  11.422   8.967
49095SOL     OW49181   0.545   8.100   5.623
49095SOL    HW149182   0.560   8.067   5.535
49095SOL    HW249183   0.541   8.195   5.613
49096SOL     OW49184  14.668   7.199   5.889
49096SOL    HW149185  14.690   7.123   5.836
49096SOL    HW249186  14.614   7.254   5.831
49097SOL     OW49187   8.190   6.137   3.280
49097SOL    HW149188   8.171   6.135   3.186
49097SOL    HW249189   8.282   6.161   3.285
49098SOL     OW49190   2.541   1.422  13.181
49098SOL    HW149191   2.570   1.457  13.266
49098SOL    HW249192   2.614   1.439  13.122
49099SOL     OW49193  12.860   0.508   2.148
49099SOL    HW149194  12.801   0.541   2.216
49099SOL    HW249195  12.803   0.487   2.074
49100SOL     OW49196   6.732   6.629   3.516
49100SOL    HW149197   6.659   6.677   3.556
49100SOL    HW249198   6.706   6.620   3.424
49101SOL     OW49199  14.218   0.490   0.055
49101SOL    HW149200  14.156   0.443  14.882
49101SOL    HW249201  14.286   0.519  14.876
49102SOL     OW49202   7.701  10.955  13.449
49102SOL    HW149203   7.785  10.986  13.485
49102SOL    HW249204   7.725  10.910  13.369
49103SOL     OW49205  13.613   4.760   6.131
49103SOL    HW149206  13.683   4.696   6.146
49103SOL    HW249207  13.628   4.828   6.197
49104SOL     OW49208   6.924  14.154   7.053
49104SOL    HW149209   6.924  14.087   7.121
49104SOL    HW249210   6.831  14.177   7.043
49105SOL     OW49211   4.161   7.737   9.884
49105SOL    HW149212   4.106   7.727   9.807
49105SOL    HW249213   4.228   7.801   9.858
49106SOL     OW49214   0.711   0.992  12.742
49106SOL    HW149215   0.774   0.922  12.758
49106SOL    HW249216   0.760   1.073  12.758
49107SOL     OW49217   9.912   4.628  11.394
49107SOL    HW149218   9.842   4.571  11.426
49107SOL    HW249219   9.988   4.571  11.386
49108SOL     OW49220   8.971   4.897  11.734
49108SOL    HW149221   9.046   4.865  11.684
49108SOL    HW249222   8.932   4.818  11.771
49109SOL     OW49223   1.926  11.657   9.092
49109SOL    HW149224   1.851  11.607   9.059
49109SOL    HW249225   2.002  11.619   9.047
49110SOL     OW49226  12.449   7.467  14.472
49110SOL    HW149227  12.377   7.431  14.420
49110SOL    HW249228  12.407   7.532  14.528
49111SOL     OW49229  11.937  14.277   6.535
49111SOL    HW149230  11.918  14.333   6.610
49111SOL    HW249231  12.027  14.297   6.512
49112SOL     OW49232  10.103  10.443   5.158
49112SOL    HW149233  10.108  10.394   5.075
49112SOL    HW249234  10.021  10.493   5.151
49113SOL     OW49235  11.050   6.398   5.714
49113SOL    HW149236  10.969   6.412   5.666
49113SOL    HW249237  11.031   6.431   5.802
49114SOL     OW49238   6.819   9.506   8.768
49114SOL    HW149239   6.882   9.575   8.791
49114SOL    HW249240   6.866   9.424   8.785
49115SOL     OW49241  12.627   7.881  12.465
49115SOL    HW149242  12.544   7.923  12.487
49115SOL    HW249243  12.692   7.951  12.466
49116SOL     OW49244  13.377   4.674  10.919
49116SOL    HW149245  13.437   4.617  10.870
49116SOL    HW249246  13.325   4.613  10.972
49117SOL     OW49247  11.952  14.259  11.639
49117SOL    HW149248  11.973  14.174  11.676
49117SOL    HW249249  11.856  14.262  11.639
49118SOL     OW49250   1.964   1.969  10.590
49118SOL    HW149251   1.907   2.006  10.523
49118SOL    HW249252   1.904   1.937  10.657
49119SOL     OW49253  12.624   9.577  14.685
49119SOL    HW149254  12.656   9.623  14.607
49119SOL    HW249255  12.539   9.542  14.660
49120SOL     OW49256   0.719  11.546   3.171
49120SOL    HW149257   0.740  11.474   3.231
49120SOL    HW249258   0.637  11.520   3.129
49121SOL     OW49259  12.342   5.856  11.891
49121SOL    HW149260  12.266   5.885  11.940
49121SOL    HW249261  12.416   5.874  11.949
49122SOL     OW49262   3.814   4.755   7.874
49122SOL    HW149263   3.789   4.846   7.885
49122SOL    HW249264   3.910   4.756   7.868
49123SOL     OW49265   1.130   9.217   9.641
49123SOL    HW149266   1.125   9.123   9.625
49123SOL    HW249267   1.200   9.247   9.583
49124SOL     OW49268   9.575  12.169  10.808
49124SOL    HW149269   9.553  12.262  10.796
49124SOL    HW249270   9.605  12.141  10.722
49125SOL     OW49271   1.852   7.581   9.424
49125SOL    HW149272   1.816   7.637   9.356
49125SOL    HW249273   1.946   7.576   9.404
49126SOL     OW49274  14.218   6.853   7.774
49126SOL    HW149275  14.262   6.892   7.849
49126SOL    HW249276  14.125   6.873   7.787
49127SOL     OW49277   5.687   4.041   7.399
49127SOL    HW149278   5.695   3.969   7.461
49127SOL    HW249279   5.700   4.001   7.313
49128SOL     OW49280  13.870  14.824   2.640
49128SOL    HW149281  13.857  14.819   2.545
49128SOL    HW249282  13.960  14.793   2.654
49129SOL     OW49283   1.421  13.514   3.145
49129SOL    HW149284   1.473  13.436   3.161
49129SOL    HW249285   1.403  13.550   3.231
49130SOL     OW49286   5.166   8.166   0.854
49130SOL    HW149287   5.224   8.188   0.927
49130SOL    HW249288   5.206   8.087   0.816
49131SOL     OW49289   9.177   5.170   7.805
49131SOL    HW149290   9.202   5.218   7.726
49131SOL    HW249291   9.216   5.083   7.793
49132SOL     OW49292   1.001  12.751   4.545
49132SOL    HW149293   1.041  12.716   4.625
49132SOL    HW249294   1.073  12.796   4.501
49133SOL     OW49295   5.586   4.975   5.530
49133SOL    HW149296   5.644   5.041   5.493
49133SOL    HW249297   5.599   4.897   5.476
49134SOL     OW49298  11.321   8.943   0.819
49134SOL    HW149299  11.230   8.917   0.835
49134SOL    HW249300  11.320   9.039   0.828
49135SOL     OW49301   1.458   3.602   6.160
49135SOL    HW149302   1.397   3.558   6.219
49135SOL    HW249303   1.405   3.667   6.115
49136SOL     OW49304  10.810  10.045  12.666
49136SOL    HW149305  10.806  10.055  12.571
49136SOL    HW249306  10.895  10.006  12.683
49137SOL     OW49307   2.018   5.323   8.136
49137SOL    HW149308   1.960   5.260   8.179
49137SOL    HW249309   2.023   5.294   8.046
49138SOL     OW49310   4.725   4.916  14.181
49138SOL    HW149311   4.631   4.908  14.199
49138SOL    HW249312   4.733   4.889  14.089
49139SOL     OW49313   2.782   2.848   5.986
49139SOL    HW149314   2.847   2.792   5.942
49139SOL    HW249315   2.803   2.937   5.957
49140SOL     OW49316   3.431   7.090   8.195
49140SOL    HW149317   3.472   7.128   8.118
49140SOL    HW249318   3.466   7.140   8.268
49141SOL     OW49319  13.996   7.266   0.628
49141SOL    HW149320  14.035   7.219   0.702
49141SOL    HW249321  13.946   7.199   0.581
49142SOL     OW49322   3.738  14.469  10.803
49142SOL    HW149323   3.817  14.516  10.777
49142SOL    HW249324   3.768  14.405  10.867
49143SOL     OW49325   7.546  11.499  10.771
49143SOL    HW149326   7.538  11.428  10.707
49143SOL    HW249327   7.464  11.549  10.761
49144SOL     OW49328   5.677   6.048   9.739
49144SOL    HW149329   5.678   6.085   9.827
49144SOL    HW249330   5.620   6.107   9.689
49145SOL     OW49331   1.575   2.278   8.988
49145SOL    HW149332   1.581   2.360   8.937
49145SOL    HW249333   1.482   2.260   8.993
49146SOL     OW49334   3.876   0.595  11.222
49146SOL    HW149335   3.840   0.549  11.297
49146SOL    HW249336   3.947   0.538  11.190
49147SOL     OW49337   3.373   2.903   3.471
49147SOL    HW149338   3.379   2.826   3.528
49147SOL    HW249339   3.285   2.938   3.487
49148SOL     OW49340  13.201   7.494   6.003
49148SOL    HW149341  13.199   7.422   5.939
49148SOL    HW249342  13.247   7.457   6.079
49149SOL     OW49343   5.029   7.147   6.847
49149SOL    HW149344   5.095   7.188   6.901
49149SOL    HW249345   4.964   7.113   6.909
49150SOL     OW49346  12.734   8.264   3.407
49150SOL    HW149347  12.736   8.188   3.349
49150SOL    HW249348  12.695   8.334   3.354
49151SOL     OW49349  14.479   7.925   1.991
49151SOL    HW149350  14.551   7.985   1.972
49151SOL    HW249351  14.407   7.982   2.021
49152SOL     OW49352   7.837   0.702  11.789
49152SOL    HW149353   7.759   0.755  11.771
49152SOL    HW249354   7.907   0.766  11.801
49153SOL     OW49355  13.035   9.564  12.693
49153SOL    HW149356  13.112   9.507  12.687
49153SOL    HW249357  13.009   9.579  12.602
49154SOL     OW49358  13.892   7.519   5.263
49154SOL    HW149359  13.929   7.538   5.350
49154SOL    HW249360  13.898   7.424   5.255
49155SOL     OW49361   0.478   9.563   1.339
49155SOL    HW149362   0.483   9.652   1.373
49155SOL    HW249363   0.537   9.563   1.264
49156SOL     OW49364  12.639   0.643  14.864
49156SOL    HW149365  12.700   0.675  14.797
49156SOL    HW249366  12.685   0.657   0.065
49157SOL     OW49367  13.461  12.851  14.158
49157SOL    HW149368  13.387  12.905  14.128
49157SOL    HW249369  13.455  12.854  14.254
49158SOL     OW49370  11.969   2.658  10.362
49158SOL    HW149371  12.003   2.725  10.423
49158SOL    HW249372  12.023   2.668  10.284
49159SOL     OW49373   5.774   6.062   3.041
49159SOL    HW149374   5.781   6.000   2.968
49159SOL    HW249375   5.828   6.023   3.110
49160SOL     OW49376  14.185   7.934   7.757
49160SOL    HW149377  14.106   7.947   7.809
49160SOL    HW249378  14.154   7.914   7.669
49161SOL     OW49379   9.965   2.726  13.154
49161SOL    HW149380  10.026   2.748  13.084
49161SOL    HW249381  10.019   2.715  13.231
49162SOL     OW49382   3.402   6.530   6.330
49162SOL    HW149383   3.403   6.509   6.423
49162SOL    HW249384   3.379   6.447   6.287
49163SOL     OW49385   0.801  13.613  14.753
49163SOL    HW149386   0.727  13.551  14.760
49163SOL    HW249387   0.849  13.584  14.675
49164SOL     OW49388  11.806  10.717   7.157
49164SOL    HW149389  11.898  10.694   7.176
49164SOL    HW249390  11.756  10.665   7.219
49165SOL     OW49391   6.508   0.314   4.731
49165SOL    HW149392   6.486   0.336   4.821
49165SOL    HW249393   6.525   0.220   4.732
49166SOL     OW49394   7.209   1.287  11.058
49166SOL    HW149395   7.169   1.310  11.142
49166SOL    HW249396   7.256   1.365  11.031
49167SOL     OW49397   9.401   4.929  14.799
49167SOL    HW149398   9.476   4.988  14.806
49167SOL    HW249399   9.327   4.980  14.830
49168SOL     OW49400   1.901   0.516   9.709
49168SOL    HW149401   1.923   0.440   9.763
49168SOL    HW249402   1.808   0.507   9.691
49169SOL     OW49403   9.140   5.560   9.873
49169SOL    HW149404   9.105   5.478   9.908
49169SOL    HW249405   9.070   5.624   9.889
49170SOL     OW49406   7.296   2.363   5.779
49170SOL    HW149407   7.225   2.336   5.721
49170SOL    HW249408   7.257   2.429   5.836
49171SOL     OW49409  10.860  11.316   9.184
49171SOL    HW149410  10.930  11.278   9.237
49171SOL    HW249411  10.783  11.315   9.242
49172SOL     OW49412  11.595   8.219  14.320
49172SOL    HW149413  11.632   8.185  14.238
49172SOL    HW249414  11.656   8.288  14.346
49173SOL     OW49415  10.121   7.577  13.420
49173SOL    HW149416  10.113   7.592  13.514
49173SOL    HW249417  10.042   7.530  13.396
49174SOL     OW49418   1.421   1.041   7.861
49174SOL    HW149419   1.496   1.052   7.802
49174SOL    HW249420   1.348   1.023   7.803
49175SOL     OW49421   5.029  14.161  14.464
49175SOL    HW149422   5.026  14.226  14.394
49175SOL    HW249423   4.987  14.083  14.426
49176SOL     OW49424  12.853   6.991   1.439
49176SOL    HW149425  12.875   7.026   1.526
49176SOL    HW249426  12.926   6.934   1.416
49177SOL     OW49427   0.819  10.832  12.382
49177SOL    HW149428   0.770  10.864  12.306
49177SOL    HW249429   0.813  10.737  12.375
49178SOL     OW49430  11.524  12.599   8.606
49178SOL    HW149431  11.472  12.679   8.615
49178SOL    HW249432  11.611  12.624   8.636
49179SOL     OW49433  10.262  11.006  13.513
49179SOL    HW149434  10.247  11.033  13.422
49179SOL    HW249435  10.297  10.917  13.506
49180SOL     OW49436  10.073   9.700   8.833
49180SOL    HW149437  10.136   9.683   8.763
49180SOL    HW249438  10.006   9.632   8.822
49181SOL     OW49439  11.069   1.656  10.753
49181SOL    HW149440  11.142   1.668  10.693
49181SOL    HW249441  10.997   1.626  10.698
49182SOL     OW49442   0.673   4.367   8.794
49182SOL    HW149443   0.646   4.411   8.875
49182SOL    HW249444   0.595   4.365   8.740
49183SOL     OW49445   0.390  12.839  12.914
49183SOL    HW149446   0.310  12.839  12.967
49183SOL    HW249447   0.360  12.861  12.826
49184SOL     OW49448  10.754   6.124  12.147
49184SOL    HW149449  10.845   6.117  12.176
49184SOL    HW249450  10.703   6.089  12.220
49185SOL     OW49451  14.641  11.195   7.626
49185SOL    HW149452  14.567  11.152   7.583
49185SOL    HW249453  14.631  11.174   7.719
49186SOL     OW49454  13.391   4.699  14.796
49186SOL    HW149455  13.460   4.674  14.734
49186SOL    HW249456  13.391   4.794  14.795
49187SOL     OW49457   3.824  13.126   8.222
49187SOL    HW149458   3.867  13.197   8.269
49187SOL    HW249459   3.875  13.048   8.244
49188SOL     OW49460   9.744  12.011  11.631
49188SOL    HW149461   9.823  12.048  11.670
49188SOL    HW249462   9.761  12.009  11.537
49189SOL     OW49463   4.815  11.180  13.201
49189SOL    HW149464   4.899  11.158  13.242
49189SOL    HW249465   4.749  11.143  13.259
49190SOL     OW49466   0.285  12.720   1.074
49190SOL    HW149467   0.209  12.767   1.109
49190SOL    HW249468   0.334  12.786   1.025
49191SOL     OW49469   3.432   9.414   3.472
49191SOL    HW149470   3.369   9.439   3.404
49191SOL    HW249471   3.464   9.328   3.445
49192SOL     OW49472   0.302   3.609  13.068
49192SOL    HW149473   0.228   3.602  13.128
49192SOL    HW249474   0.289   3.536  13.007
49193SOL     OW49475   4.782  14.250   8.161
49193SOL    HW149476   4.692  14.266   8.132
49193SOL    HW249477   4.836  14.288   8.091
49194SOL     OW49478   4.806   5.849  10.701
49194SOL    HW149479   4.833   5.771  10.750
49194SOL    HW249480   4.880   5.908  10.708
49195SOL     OW49481   4.614   9.518   9.690
49195SOL    HW149482   4.615   9.502   9.784
49195SOL    HW249483   4.700   9.556   9.671
49196SOL     OW49484   1.228   1.356  14.152
49196SOL    HW149485   1.164   1.359  14.222
49196SOL    HW249486   1.312   1.340  14.196
49197SOL     OW49487   6.160  13.874   6.097
49197SOL    HW149488   6.141  13.965   6.077
49197SOL    HW249489   6.105  13.823   6.038
49198SOL     OW49490  10.922  10.755   4.984
49198SOL    HW149491  10.901  10.687   5.048
49198SOL    HW249492  10.845  10.813   4.985
49199SOL     OW49493  10.885   1.075   7.949
49199SOL    HW149494  10.965   1.034   7.918
49199SOL    HW249495  10.900   1.089   8.043
49200SOL     OW49496   4.033   3.854   1.036
49200SOL    HW149497   3.956   3.911   1.028
49200SOL    HW249498   3.998   3.770   1.063
49201SOL     OW49499  11.327  13.189  14.433
49201SOL    HW149500  11.322  13.200  14.338
49201SOL    HW249501  11.415  13.152  14.448
49202SOL     OW49502   4.833  12.147   6.716
49202SOL    HW149503   4.758  12.102   6.678
49202SOL    HW249504   4.825  12.237   6.686
49203SOL     OW49505   6.162   1.750   3.077
49203SOL    HW149506   6.096   1.795   3.024
49203SOL    HW249507   6.223   1.713   3.014
49204SOL     OW49508   9.116   0.654   4.730
49204SOL    HW149509   9.160   0.650   4.816
49204SOL    HW249510   9.183   0.688   4.671
49205SOL     OW49511  14.846   3.316  11.141
49205SOL    HW149512   0.016   3.241  11.171
49205SOL    HW249513  14.758   3.299  11.176
49206SOL     OW49514   6.223   5.111  10.123
49206SOL    HW149515   6.131   5.135  10.126
49206SOL    HW249516   6.235   5.071  10.037
49207SOL     OW49517   9.258   0.083  10.320
49207SOL    HW149518   9.286  14.878  10.290
49207SOL    HW249519   9.173   0.097  10.279
49208SOL     OW49520   9.332   1.002  12.257
49208SOL    HW149521   9.398   0.984  12.190
49208SOL    HW249522   9.377   1.057  12.321
49209SOL     OW49523   5.196  14.455  14.099
49209SOL    HW149524   5.215  14.413  14.182
49209SOL    HW249525   5.122  14.407  14.063
49210SOL     OW49526   8.512  14.632  13.821
49210SOL    HW149527   8.448  14.564  13.804
49210SOL    HW249528   8.592  14.602  13.776
49211SOL     OW49529  12.941   6.902   2.436
49211SOL    HW149530  12.981   6.897   2.523
49211SOL    HW249531  13.000   6.958   2.386
49212SOL     OW49532   0.829   0.997   2.906
49212SOL    HW149533   0.841   0.916   2.956
49212SOL    HW249534   0.914   1.015   2.867
49213SOL     OW49535   0.197   8.533   9.564
49213SOL    HW149536   0.101   8.529   9.571
49213SOL    HW249537   0.229   8.479   9.636
49214SOL     OW49538   1.777  14.455   0.423
49214SOL    HW149539   1.842  14.394   0.458
49214SOL    HW249540   1.714  14.400   0.378
49215SOL     OW49541   3.900   6.555  10.636
49215SOL    HW149542   3.930   6.483  10.692
49215SOL    HW249543   3.978   6.609  10.622
49216SOL     OW49544  10.266   2.205  13.040
49216SOL    HW149545  10.234   2.181  13.127
49216SOL    HW249546  10.249   2.127  12.986
49217SOL     OW49547   5.922  12.417  11.350
49217SOL    HW149548   5.988  12.369  11.299
49217SOL    HW249549   5.936  12.388  11.441
49218SOL     OW49550  13.060  14.875   1.354
49218SOL    HW149551  13.140  14.825   1.339
49218SOL    HW249552  13.018  14.881   1.268
49219SOL     OW49553   8.740  11.114   5.253
49219SOL    HW149554   8.743  11.019   5.267
49219SOL    HW249555   8.717  11.124   5.160
49220SOL     OW49556   6.603  13.229   4.486
49220SOL    HW149557   6.539  13.169   4.523
49220SOL    HW249558   6.647  13.178   4.417
49221SOL     OW49559  14.089   8.532   1.819
49221SOL    HW149560  14.170   8.530   1.870
49221SOL    HW249561  14.049   8.617   1.841
49222SOL     OW49562   4.301   5.856  11.977
49222SOL    HW149563   4.215   5.895  11.994
49222SOL    HW249564   4.336   5.907  11.903
49223SOL     OW49565   2.762  12.911  10.807
49223SOL    HW149566   2.781  12.915  10.901
49223SOL    HW249567   2.818  12.841  10.774
49224SOL     OW49568  10.886  10.773   3.752
49224SOL    HW149569  10.865  10.789   3.844
49224SOL    HW249570  10.841  10.692   3.730
49225SOL     OW49571   4.014   6.730   7.109
49225SOL    HW149572   3.984   6.775   7.188
49225SOL    HW249573   4.072   6.793   7.066
49226SOL     OW49574   0.039   0.393   7.329
49226SOL    HW149575   0.018   0.387   7.236
49226SOL    HW249576   0.133   0.377   7.334
49227SOL     OW49577  11.632   9.958   3.405
49227SOL    HW149578  11.617   9.898   3.332
49227SOL    HW249579  11.645   9.902   3.481
49228SOL     OW49580   3.865  10.803  10.076
49228SOL    HW149581   3.916  10.737  10.029
49228SOL    HW249582   3.854  10.766  10.164
49229SOL     OW49583   6.530   8.762   7.083
49229SOL    HW149584   6.578   8.701   7.138
49229SOL    HW249585   6.458   8.711   7.047
49230SOL     OW49586   2.699   5.642   8.647
49230SOL    HW149587   2.651   5.572   8.693
49230SOL    HW249588   2.698   5.615   8.555
49231SOL     OW49589   5.888  14.801   0.150
49231SOL    HW149590   5.833  14.872   0.183
49231SOL    HW249591   5.968  14.807   0.201
49232SOL     OW49592  14.538  10.112   7.235
49232SOL    HW149593  14.480  10.141   7.165
49232SOL    HW249594  14.624  10.142   7.209
49233SOL     OW49595   5.942   6.054   4.191
49233SOL    HW149596   5.908   5.982   4.138
49233SOL    HW249597   5.962   6.122   4.127
49234SOL     OW49598   5.558   4.951  10.210
49234SOL    HW149599   5.570   4.864  10.249
49234SOL    HW249600   5.473   4.980  10.243
49235SOL     OW49601  13.828   9.368   4.927
49235SOL    HW149602  13.753   9.397   4.874
49235SOL    HW249603  13.901   9.367   4.866
49236SOL     OW49604  13.625   1.231  11.749
49236SOL    HW149605  13.640   1.192  11.835
49236SOL    HW249606  13.540   1.197  11.721
49237SOL     OW49607  11.123   8.307  11.762
49237SOL    HW149608  11.090   8.228  11.720
49237SOL    HW249609  11.211   8.319  11.724
49238SOL     OW49610  11.489  11.111  10.736
49238SOL    HW149611  11.451  11.024  10.749
49238SOL    HW249612  11.437  11.150  10.666
49239SOL     OW49613   9.536  12.906   9.383
49239SOL    HW149614   9.519  12.831   9.440
49239SOL    HW249615   9.597  12.873   9.318
49240SOL     OW49616  10.968   4.898   7.062
49240SOL    HW149617  11.063   4.911   7.063
49240SOL    HW249618  10.957   4.804   7.080
49241SOL     OW49619   7.108  13.965  12.173
49241SOL    HW149620   7.015  13.985  12.181
49241SOL    HW249621   7.112  13.869  12.168
49242SOL     OW49622   1.291   7.360   7.238
49242SOL    HW149623   1.217   7.301   7.248
49242SOL    HW249624   1.317   7.350   7.147
49243SOL     OW49625   3.982  13.937  10.429
49243SOL    HW149626   4.049  13.943  10.360
49243SOL    HW249627   3.902  13.969  10.387
49244SOL     OW49628   2.768   5.190   8.880
49244SOL    HW149629   2.843   5.231   8.925
49244SOL    HW249630   2.748   5.114   8.934
49245SOL     OW49631  12.717   4.036   2.742
49245SOL    HW149632  12.636   4.086   2.740
49245SOL    HW249633  12.704   3.971   2.811
49246SOL     OW49634   0.182  14.322  13.702
49246SOL    HW149635   0.233  14.241  13.705
49246SOL    HW249636   0.128  14.314  13.623
49247SOL     OW49637   5.774   0.127   9.272
49247SOL    HW149638   5.701   0.072   9.297
49247SOL    HW249639   5.733   0.208   9.241
49248SOL     OW49640   0.099   2.392   8.877
49248SOL    HW149641   0.128   2.457   8.812
49248SOL    HW249642   0.135   2.423   8.960
49249SOL     OW49643   2.615  11.861   0.738
49249SOL    HW149644   2.649  11.817   0.817
49249SOL    HW249645   2.662  11.819   0.666
49250SOL     OW49646  14.518   6.389  14.260
49250SOL    HW149647  14.484   6.460  14.205
49250SOL    HW249648  14.446   6.367  14.318
49251SOL     OW49649   4.587  11.116   4.034
49251SOL    HW149650   4.594  11.210   4.051
49251SOL    HW249651   4.673  11.092   4.000
49252SOL     OW49652   8.494   5.321  12.778
49252SOL    HW149653   8.418   5.263  12.776
49252SOL    HW249654   8.488   5.372  12.697
49253SOL     OW49655   6.641  11.048   8.022
49253SOL    HW149656   6.680  10.970   7.984
49253SOL    HW249657   6.559  11.059   7.975
49254SOL     OW49658   2.472   9.310   6.081
49254SOL    HW149659   2.488   9.258   6.160
49254SOL    HW249660   2.518   9.393   6.097
49255SOL     OW49661   1.440   9.997  13.430
49255SOL    HW149662   1.384  10.057  13.479
49255SOL    HW249663   1.483   9.944  13.497
49256SOL     OW49664  11.551   9.381   2.536
49256SOL    HW149665  11.557   9.457   2.477
49256SOL    HW249666  11.457   9.363   2.541
49257SOL     OW49667   8.618   0.196   9.065
49257SOL    HW149668   8.598   0.266   9.002
49257SOL    HW249669   8.636   0.120   9.010
49258SOL     OW49670   8.489   9.998  10.404
49258SOL    HW149671   8.472   9.942  10.328
49258SOL    HW249672   8.411   9.990  10.458
49259SOL     OW49673   7.640   0.979   2.147
49259SOL    HW149674   7.614   0.888   2.133
49259SOL    HW249675   7.736   0.977   2.143
49260SOL     OW49676   5.471   9.837   6.254
49260SOL    HW149677   5.422   9.763   6.218
49260SOL    HW249678   5.414   9.913   6.238
49261SOL     OW49679  10.193   6.745   9.079
49261SOL    HW149680  10.140   6.700   9.013
49261SOL    HW249681  10.265   6.784   9.030
49262SOL     OW49682   7.310   4.356   0.523
49262SOL    HW149683   7.333   4.271   0.484
49262SOL    HW249684   7.374   4.417   0.486
49263SOL     OW49685  12.056   4.259  14.662
49263SOL    HW149686  12.038   4.342  14.705
49263SOL    HW249687  11.993   4.254  14.590
49264SOL     OW49688   1.261  11.861   3.984
49264SOL    HW149689   1.262  11.953   4.009
49264SOL    HW249690   1.324  11.819   4.042
49265SOL     OW49691  11.006   3.275   6.162
49265SOL    HW149692  10.932   3.327   6.130
49265SOL    HW249693  10.983   3.185   6.139
49266SOL     OW49694   9.630  12.314  11.856
49266SOL    HW149695   9.594  12.247  11.799
49266SOL    HW249696   9.580  12.307  11.937
49267SOL     OW49697   2.980   3.378  13.644
49267SOL    HW149698   2.922   3.302  13.637
49267SOL    HW249699   3.043   3.354  13.712
49268SOL     OW49700  11.003   0.579   3.894
49268SOL    HW149701  11.002   0.543   3.805
49268SOL    HW249702  11.042   0.511   3.947
49269SOL     OW49703   3.243   7.445   6.764
49269SOL    HW149704   3.223   7.386   6.836
49269SOL    HW249705   3.171   7.431   6.702
49270SOL     OW49706   6.716   4.306   9.062
49270SOL    HW149707   6.716   4.249   8.985
49270SOL    HW249708   6.778   4.266   9.122
49271SOL     OW49709  11.150   1.300   0.259
49271SOL    HW149710  11.158   1.301   0.354
49271SOL    HW249711  11.182   1.387   0.232
49272SOL     OW49712   7.652   8.898   2.216
49272SOL    HW149713   7.642   8.991   2.196
49272SOL    HW249714   7.579   8.856   2.171
49273SOL     OW49715   2.008   4.145   1.779
49273SOL    HW149716   1.957   4.185   1.849
49273SOL    HW249717   1.944   4.119   1.713
49274SOL     OW49718   4.948   2.372   8.472
49274SOL    HW149719   4.922   2.366   8.564
49274SOL    HW249720   4.929   2.285   8.436
49275SOL     OW49721  14.681  12.851   5.851
49275SOL    HW149722  14.690  12.913   5.923
49275SOL    HW249723  14.698  12.765   5.891
49276SOL     OW49724  13.645   4.337  14.512
49276SOL    HW149725  13.636   4.257  14.460
49276SOL    HW249726  13.686   4.308  14.593
49277SOL     OW49727   3.583  11.085   0.515
49277SOL    HW149728   3.520  11.022   0.551
49277SOL    HW249729   3.637  11.110   0.589
49278SOL     OW49730   6.779   8.747   0.645
49278SOL    HW149731   6.708   8.712   0.591
49278SOL    HW249732   6.856   8.744   0.588
49279SOL     OW49733   4.991  10.374   6.920
49279SOL    HW149734   4.947  10.443   6.869
49279SOL    HW249735   4.992  10.298   6.861
49280SOL     OW49736   3.390  12.244   6.839
49280SOL    HW149737   3.477  12.206   6.841
49280SOL    HW249738   3.404  12.337   6.819
49281SOL     OW49739   1.070   1.822   5.866
49281SOL    HW149740   1.145   1.806   5.808
49281SOL    HW249741   1.107   1.871   5.940
49282SOL     OW49742  10.261   5.543  13.277
49282SOL    HW149743  10.197   5.505  13.216
49282SOL    HW249744  10.341   5.550  13.225
49283SOL     OW49745  11.392  11.131   3.331
49283SOL    HW149746  11.474  11.093   3.361
49283SOL    HW249747  11.375  11.089   3.247
49284SOL     OW49748  11.223   1.528   9.132
49284SOL    HW149749  11.146   1.574   9.098
49284SOL    HW249750  11.286   1.597   9.149
49285SOL     OW49751  13.951  14.462  14.809
49285SOL    HW149752  14.037  14.422  14.818
49285SOL    HW249753  13.912  14.453   0.014
49286SOL     OW49754   8.698  11.261  11.502
49286SOL    HW149755   8.620  11.313  11.520
49286SOL    HW249756   8.738  11.246  11.588
49287SOL     OW49757  13.158   3.902   1.399
49287SOL    HW149758  13.085   3.865   1.448
49287SOL    HW249759  13.145   3.873   1.309
49288SOL     OW49760  13.392  12.936   2.491
49288SOL    HW149761  13.446  12.868   2.530
49288SOL    HW249762  13.417  13.016   2.537
49289SOL     OW49763  14.627   1.605  14.865
49289SOL    HW149764  14.550   1.548  14.873
49289SOL    HW249765  14.694   1.549  14.825
49290SOL     OW49766  12.916   4.722  13.762
49290SOL    HW149767  12.874   4.785  13.820
49290SOL    HW249768  12.952   4.655  13.821
49291SOL     OW49769   9.146  14.631  13.679
49291SOL    HW149770   9.119  14.555  13.626
49291SOL    HW249771   9.136  14.602  13.770
49292SOL     OW49772  10.114  13.909   9.669
49292SOL    HW149773  10.155  13.977   9.615
49292SOL    HW249774  10.142  13.929   9.758
49293SOL     OW49775  13.264   8.245  12.145
49293SOL    HW149776  13.237   8.163  12.103
49293SOL    HW249777  13.330   8.281  12.085
49294SOL     OW49778   0.196   2.169  12.954
49294SOL    HW149779   0.110   2.148  12.918
49294SOL    HW249780   0.187   2.258  12.988
49295SOL     OW49781   6.716  14.289   1.352
49295SOL    HW149782   6.751  14.373   1.380
49295SOL    HW249783   6.741  14.282   1.260
49296SOL     OW49784   3.685   1.887   7.000
49296SOL    HW149785   3.609   1.856   7.049
49296SOL    HW249786   3.710   1.813   6.944
49297SOL     OW49787   2.217  12.976   1.514
49297SOL    HW149788   2.195  13.060   1.474
49297SOL    HW249789   2.161  12.913   1.468
49298SOL     OW49790   6.392  10.098   6.183
49298SOL    HW149791   6.388  10.004   6.199
49298SOL    HW249792   6.474  10.110   6.134
49299SOL     OW49793   6.997   5.300  11.044
49299SOL    HW149794   6.934   5.341  10.985
49299SOL    HW249795   7.064   5.368  11.059
49300SOL     OW49796   7.186   8.150   4.594
49300SOL    HW149797   7.227   8.228   4.555
49300SOL    HW249798   7.104   8.139   4.546
49301SOL     OW49799   0.841  12.087  14.268
49301SOL    HW149800   0.804  12.008  14.228
49301SOL    HW249801   0.935  12.068  14.275
49302SOL     OW49802   4.313  14.681   3.790
49302SOL    HW149803   4.397  14.682   3.743
49302SOL    HW249804   4.253  14.635   3.731
49303SOL     OW49805  12.073   8.444   6.265
49303SOL    HW149806  12.009   8.379   6.295
49303SOL    HW249807  12.144   8.439   6.329
49304SOL     OW49808  11.852   2.020   7.150
49304SOL    HW149809  11.929   1.970   7.176
49304SOL    HW249810  11.778   1.967   7.180
49305SOL     OW49811  14.127  12.855   2.929
49305SOL    HW149812  14.128  12.864   3.024
49305SOL    HW249813  14.218  12.838   2.906
49306SOL     OW49814   3.003   2.736  13.680
49306SOL    HW149815   2.964   2.676  13.743
49306SOL    HW249816   2.934   2.800  13.662
49307SOL     OW49817   8.069  14.263  13.138
49307SOL    HW149818   8.019  14.215  13.072
49307SOL    HW249819   8.081  14.350  13.099
49308SOL     OW49820   1.439   2.655   5.390
49308SOL    HW149821   1.369   2.624   5.447
49308SOL    HW249822   1.500   2.581   5.383
49309SOL     OW49823   0.705  14.152   6.609
49309SOL    HW149824   0.786  14.104   6.593
49309SOL    HW249825   0.639  14.105   6.557
49310SOL     OW49826   0.579   8.177   9.781
49310SOL    HW149827   0.586   8.085   9.806
49310SOL    HW249828   0.603   8.226   9.860
49311SOL     OW49829   7.533   2.657  11.282
49311SOL    HW149830   7.558   2.678  11.192
49311SOL    HW249831   7.567   2.730  11.334
49312SOL     OW49832   0.289   8.910  13.500
49312SOL    HW149833   0.232   8.987  13.493
49312SOL    HW249834   0.236   8.846  13.549
49313SOL     OW49835  11.736  11.131  11.664
49313SOL    HW149836  11.820  11.166  11.694
49313SOL    HW249837  11.670  11.177  11.716
49314SOL     OW49838   1.928   7.218  12.108
49314SOL    HW149839   1.925   7.154  12.179
49314SOL    HW249840   1.886   7.174  12.035
49315SOL     OW49841  12.821  10.562   6.459
49315SOL    HW149842  12.743  10.532   6.505
49315SOL    HW249843  12.791  10.577   6.369
49316SOL     OW49844   4.708  11.697  10.850
49316SOL    HW149845   4.663  11.666  10.772
49316SOL    HW249846   4.801  11.698  10.825
49317SOL     OW49847   9.833  13.530   7.982
49317SOL    HW149848   9.857  13.557   7.894
49317SOL    HW249849   9.824  13.611   8.031
49318SOL     OW49850   5.425  11.481   8.807
49318SOL    HW149851   5.491  11.540   8.769
49318SOL    HW249852   5.404  11.420   8.736
49319SOL     OW49853   8.751   5.455   2.381
49319SOL    HW149854   8.834   5.498   2.402
49319SOL    HW249855   8.691   5.527   2.360
49320SOL     OW49856   7.608   8.202   9.298
49320SOL    HW149857   7.670   8.228   9.230
49320SOL    HW249858   7.581   8.284   9.339
49321SOL     OW49859   7.381  13.661   0.130
49321SOL    HW149860   7.412  13.702   0.048
49321SOL    HW249861   7.460  13.627   0.171
49322SOL     OW49862   5.358  10.992  12.639
49322SOL    HW149863   5.289  10.991  12.705
49322SOL    HW249864   5.423  10.931  12.671
49323SOL     OW49865  13.647   3.256  13.029
49323SOL    HW149866  13.669   3.189  12.964
49323SOL    HW249867  13.646   3.208  13.113
49324SOL     OW49868  10.359   8.346  11.094
49324SOL    HW149869  10.321   8.315  11.012
49324SOL    HW249870  10.365   8.441  11.084
49325SOL     OW49871   8.524   7.113   4.759
49325SOL    HW149872   8.608   7.101   4.802
49325SOL    HW249873   8.544   7.115   4.665
49326SOL     OW49874  11.832  10.836  14.733
49326SOL    HW149875  11.791  10.787  14.662
49326SOL    HW249876  11.762  10.890  14.768
49327SOL     OW49877  10.479   0.691   4.669
49327SOL    HW149878  10.564   0.675   4.711
49327SOL    HW249879  10.417   0.638   4.720
49328SOL     OW49880   8.203   0.456   1.430
49328SOL    HW149881   8.201   0.445   1.335
49328SOL    HW249882   8.286   0.501   1.448
49329SOL     OW49883   5.021   1.939   7.341
49329SOL    HW149884   4.963   2.000   7.294
49329SOL    HW249885   4.967   1.905   7.413
49330SOL     OW49886  11.810   4.719  10.626
49330SOL    HW149887  11.871   4.668  10.680
49330SOL    HW249888  11.856   4.802  10.612
49331SOL     OW49889   7.933  12.275   0.254
49331SOL    HW149890   8.029  12.276   0.252
49331SOL    HW249891   7.907  12.317   0.172
49332SOL     OW49892   7.966   0.399  13.517
49332SOL    HW149893   7.998   0.420  13.429
49332SOL    HW249894   7.920   0.315  13.507
49333SOL     OW49895   5.684   0.325   7.018
49333SOL    HW149896   5.670   0.398   6.958
49333SOL    HW249897   5.724   0.364   7.095
49334SOL     OW49898   3.143  10.188   2.411
49334SOL    HW149899   3.170  10.280   2.408
49334SOL    HW249900   3.222  10.139   2.392
49335SOL     OW49901  14.364   3.999   0.118
49335SOL    HW149902  14.289   3.939   0.116
49335SOL    HW249903  14.325   4.085   0.133
49336SOL     OW49904   4.734  10.378  13.766
49336SOL    HW149905   4.764  10.352  13.853
49336SOL    HW249906   4.710  10.471  13.775
49337SOL     OW49907   2.321   4.586   7.757
49337SOL    HW149908   2.227   4.596   7.744
49337SOL    HW249909   2.331   4.564   7.850
49338SOL     OW49910   6.860   0.416  13.940
49338SOL    HW149911   6.930   0.477  13.963
49338SOL    HW249912   6.881   0.387  13.852
49339SOL     OW49913   6.050   0.064   3.713
49339SOL    HW149914   6.081  14.857   3.703
49339SOL    HW249915   5.981   0.073   3.647
49340SOL     OW49916  13.728   1.362  13.606
49340SOL    HW149917  13.728   1.458  13.600
49340SOL    HW249918  13.722   1.345  13.700
49341SOL     OW49919   0.066   0.628   3.881
49341SOL    HW149920   0.113   0.603   3.960
49341SOL    HW249921   0.127   0.683   3.833
49342SOL     OW49922  12.793   3.961  14.031
49342SOL    HW149923  12.820   3.942  14.120
49342SOL    HW249924  12.698   3.959  14.034
49343SOL     OW49925   6.944   1.961   1.966
49343SOL    HW149926   7.013   1.903   1.998
49343SOL    HW249927   6.991   2.032   1.923
49344SOL     OW49928   9.777  14.096   4.907
49344SOL    HW149929   9.827  14.098   4.988
49344SOL    HW249930   9.780  14.186   4.875
49345SOL     OW49931   6.958  12.928  12.754
49345SOL    HW149932   7.016  12.852  12.763
49345SOL    HW249933   6.960  12.970  12.840
49346SOL     OW49934   3.200   9.495  12.767
49346SOL    HW149935   3.148   9.499  12.847
49346SOL    HW249936   3.223   9.402  12.758
49347SOL     OW49937   1.536   6.449   8.589
49347SOL    HW149938   1.544   6.510   8.662
49347SOL    HW249939   1.447   6.413   8.597
49348SOL     OW49940   1.939   5.186  11.982
49348SOL    HW149941   1.893   5.266  11.954
49348SOL    HW249942   2.017   5.218  12.026
49349SOL     OW49943   8.107   8.569  12.706
49349SOL    HW149944   8.141   8.481  12.694
49349SOL    HW249945   8.164   8.625  12.653
49350SOL     OW49946   9.344   7.653   7.235
49350SOL    HW149947   9.362   7.705   7.156
49350SOL    HW249948   9.339   7.718   7.305
49351SOL     OW49949   2.066   9.390  11.012
49351SOL    HW149950   2.147   9.339  11.022
49351SOL    HW249951   2.073   9.429  10.925
49352SOL     OW49952   1.873  13.975  14.089
49352SOL    HW149953   1.879  13.977  13.994
49352SOL    HW249954   1.827  14.055  14.113
49353SOL     OW49955   3.120  13.109   7.462
49353SOL    HW149956   3.031  13.136   7.440
49353SOL    HW249957   3.119  13.014   7.452
49354SOL     OW49958  12.022   6.070   9.277
49354SOL    HW149959  11.940   6.076   9.229
49354SOL    HW249960  12.014   6.135   9.346
49355SOL     OW49961   3.674   6.242   6.397
49355SOL    HW149962   3.637   6.197   6.322
49355SOL    HW249963   3.744   6.297   6.361
49356SOL     OW49964   2.403   3.335   7.245
49356SOL    HW149965   2.492   3.303   7.259
49356SOL    HW249966   2.403   3.424   7.281
49357SOL     OW49967   2.498  13.260   1.823
49357SOL    HW149968   2.403  13.263   1.829
49357SOL    HW249969   2.528  13.335   1.875
49358SOL     OW49970   2.097  13.168   7.084
49358SOL    HW149971   2.140  13.193   7.002
49358SOL    HW249972   2.117  13.239   7.145
49359SOL     OW49973   1.347   8.903   0.966
49359SOL    HW149974   1.386   8.865   0.887
49359SOL    HW249975   1.259   8.928   0.939
49360SOL     OW49976   3.480  14.036   0.267
49360SOL    HW149977   3.452  14.122   0.234
49360SOL    HW249978   3.439  13.973   0.208
49361SOL     OW49979   7.260   4.845   2.652
49361SOL    HW149980   7.291   4.922   2.700
49361SOL    HW249981   7.220   4.882   2.572
49362SOL     OW49982   5.268  13.592  13.448
49362SOL    HW149983   5.248  13.547  13.366
49362SOL    HW249984   5.363  13.607  13.444
49363SOL     OW49985  13.200   2.562   4.242
49363SOL    HW149986  13.151   2.643   4.260
49363SOL    HW249987  13.132   2.496   4.228
49364SOL     OW49988   2.795   3.138  13.603
49364SOL    HW149989   2.830   3.078  13.668
49364SOL    HW249990   2.767   3.082  13.531
49365SOL     OW49991  11.401   7.799   1.708
49365SOL    HW149992  11.484   7.752   1.716
49365SOL    HW249993  11.362   7.765   1.628
49366SOL     OW49994   8.285   7.321   8.625
49366SOL    HW149995   8.241   7.238   8.644
49366SOL    HW249996   8.234   7.387   8.671
49367SOL     OW49997   4.737  14.385   6.573
49367SOL    HW149998   4.657  14.380   6.520
49367SOL    HW249999   4.740  14.300   6.617
49368SOL     OW50000   4.702  14.359   1.576
49368SOL    HW150001   4.752  14.391   1.651
49368SOL    HW250002   4.692  14.436   1.520
49369SOL     OW50003  13.834   7.080   0.465
49369SOL    HW150004  13.749   7.109   0.498
49369SOL    HW250005  13.845   6.992   0.502
49370SOL     OW50006   6.560   1.979   8.259
49370SOL    HW150007   6.507   1.965   8.338
49370SOL    HW250008   6.647   1.947   8.283
49371SOL     OW50009   1.392  14.586   0.008
49371SOL    HW150010   1.420  14.543  14.809
49371SOL    HW250011   1.321  14.531   0.041
49372SOL     OW50012   5.754   0.595   9.028
49372SOL    HW150013   5.664   0.612   9.000
49372SOL    HW250014   5.745   0.526   9.094
49373SOL     OW50015   6.737   5.333   3.486
49373SOL    HW150016   6.668   5.397   3.496
49373SOL    HW250017   6.811   5.382   3.450
49374SOL     OW50018  13.025   4.676   1.597
49374SOL    HW150019  13.081   4.670   1.521
49374SOL    HW250020  13.002   4.769   1.603
49375SOL     OW50021  12.631  13.580  10.363
49375SOL    HW150022  12.623  13.674  10.345
49375SOL    HW250023  12.721  13.559  10.337
49376SOL     OW50024   1.011   1.761  14.769
49376SOL    HW150025   0.927   1.761  14.815
49376SOL    HW250026   1.004   1.832  14.706
49377SOL     OW50027   8.349   6.726   1.682
49377SOL    HW150028   8.329   6.819   1.696
49377SOL    HW250029   8.307   6.704   1.599
49378SOL     OW50030   9.626   0.815   2.771
49378SOL    HW150031   9.632   0.719   2.771
49378SOL    HW250032   9.675   0.842   2.849
49379SOL     OW50033  11.508  14.405  10.360
49379SOL    HW150034  11.527  14.316  10.391
49379SOL    HW250035  11.594  14.446  10.351
49380SOL     OW50036  12.149   8.407   8.677
49380SOL    HW150037  12.134   8.490   8.632
49380SOL    HW250038  12.122   8.424   8.767
49381SOL     OW50039   1.215   3.626  14.642
49381SOL    HW150040   1.259   3.543  14.626
49381SOL    HW250041   1.213   3.634  14.737
49382SOL     OW50042  11.808   4.897   7.617
49382SOL    HW150043  11.750   4.821   7.617
49382SOL    HW250044  11.775   4.952   7.546
49383SOL     OW50045   3.015   8.380  13.127
49383SOL    HW150046   3.009   8.412  13.217
49383SOL    HW250047   2.929   8.397  13.090
49384SOL     OW50048  10.040   4.851   4.227
49384SOL    HW150049  10.129   4.872   4.257
49384SOL    HW250050   9.995   4.935   4.225
49385SOL     OW50051   6.234   8.988  11.587
49385SOL    HW150052   6.231   9.017  11.678
49385SOL    HW250053   6.323   9.008  11.559
49386SOL     OW50054  10.988  14.554   8.820
49386SOL    HW150055  10.999  14.530   8.728
49386SOL    HW250056  11.063  14.610   8.840
49387SOL     OW50057  13.320   7.793  12.282
49387SOL    HW150058  13.233   7.779  12.246
49387SOL    HW250059  13.307   7.799  12.377
49388SOL     OW50060  11.027   3.734  11.558
49388SOL    HW150061  11.058   3.745  11.468
49388SOL    HW250062  11.003   3.642  11.564
49389SOL     OW50063   7.693   5.952   1.109
49389SOL    HW150064   7.758   5.944   1.179
49389SOL    HW250065   7.617   5.993   1.151
49390SOL     OW50066   5.365  12.178   3.110
49390SOL    HW150067   5.425  12.108   3.135
49390SOL    HW250068   5.285  12.133   3.084
49391SOL     OW50069  13.521   3.552  13.684
49391SOL    HW150070  13.491   3.625  13.631
49391SOL    HW250071  13.507   3.580  13.774
49392SOL     OW50072  10.180  12.739   5.942
49392SOL    HW150073  10.254  12.722   6.001
49392SOL    HW250074  10.221  12.765   5.860
49393SOL     OW50075  10.724   7.931   3.991
49393SOL    HW150076  10.779   7.973   3.925
49393SOL    HW250077  10.782   7.865   4.031
49394SOL     OW50078  14.228  13.049  10.237
49394SOL    HW150079  14.236  12.958  10.208
49394SOL    HW250080  14.317  13.076  10.256
49395SOL     OW50081   7.910  11.932   6.012
49395SOL    HW150082   7.852  11.856   5.999
49395SOL    HW250083   7.935  11.927   6.105
49396SOL     OW50084   2.769   1.377   0.884
49396SOL    HW150085   2.745   1.453   0.831
49396SOL    HW250086   2.733   1.396   0.971
49397SOL     OW50087   3.873   7.078  11.052
49397SOL    HW150088   3.792   7.126  11.038
49397SOL    HW250089   3.865   7.041  11.140
49398SOL     OW50090   1.918   1.929  12.976
49398SOL    HW150091   1.942   1.844  13.013
49398SOL    HW250092   1.897   1.983  13.052
49399SOL     OW50093   6.138  10.302   7.235
49399SOL    HW150094   6.054  10.290   7.277
49399SOL    HW250095   6.122  10.366   7.166
49400SOL     OW50096   7.953  13.521   4.318
49400SOL    HW150097   7.967  13.525   4.412
49400SOL    HW250098   7.867  13.479   4.308
49401SOL     OW50099   0.081   5.577  13.426
49401SOL    HW150100   0.081   5.622  13.341
49401SOL    HW250101   0.023   5.631  13.481
49402SOL     OW50102   5.777   6.970   1.522
49402SOL    HW150103   5.750   7.020   1.599
49402SOL    HW250104   5.696   6.962   1.470
49403SOL     OW50105  12.090  13.016   5.715
49403SOL    HW150106  12.138  13.082   5.664
49403SOL    HW250107  12.105  13.041   5.806
49404SOL     OW50108  11.695  12.851  11.556
49404SOL    HW150109  11.695  12.941  11.524
49404SOL    HW250110  11.668  12.799  11.480
49405SOL     OW50111  12.482   7.761   5.159
49405SOL    HW150112  12.490   7.666   5.151
49405SOL    HW250113  12.426   7.786   5.085
49406SOL     OW50114  14.682   2.578  12.566
49406SOL    HW150115  14.696   2.673  12.571
49406SOL    HW250116  14.683   2.548  12.656
49407SOL     OW50117   5.533   1.942   8.827
49407SOL    HW150118   5.602   2.004   8.803
49407SOL    HW250119   5.540   1.933   8.922
49408SOL     OW50120   5.587   8.753   6.883
49408SOL    HW150121   5.659   8.722   6.828
49408SOL    HW250122   5.627   8.769   6.968
49409SOL     OW50123   6.855  11.197   9.491
49409SOL    HW150124   6.840  11.234   9.404
49409SOL    HW250125   6.796  11.122   9.495
49410SOL     OW50126   9.092  14.228  12.291
49410SOL    HW150127   9.060  14.172  12.361
49410SOL    HW250128   9.037  14.306  12.295
49411SOL     OW50129   5.644   6.774   2.851
49411SOL    HW150130   5.644   6.870   2.851
49411SOL    HW250131   5.734   6.749   2.869
49412SOL     OW50132   9.598   2.397  12.505
49412SOL    HW150133   9.604   2.487  12.538
49412SOL    HW250134   9.660   2.348  12.560
49413SOL     OW50135   9.028  10.335  12.327
49413SOL    HW150136   8.979  10.262  12.289
49413SOL    HW250137   9.029  10.316  12.421
49414SOL     OW50138   0.502   0.371   9.473
49414SOL    HW150139   0.452   0.425   9.534
49414SOL    HW250140   0.566   0.431   9.434
49415SOL     OW50141  10.821   2.465  12.003
49415SOL    HW150142  10.865   2.504  12.078
49415SOL    HW250143  10.875   2.390  11.980
49416SOL     OW50144   4.078  13.900   0.439
49416SOL    HW150145   4.158  13.872   0.483
49416SOL    HW250146   4.025  13.820   0.431
49417SOL     OW50147   4.560   0.090   1.193
49417SOL    HW150148   4.477   0.114   1.151
49417SOL    HW250149   4.627   0.118   1.131
49418SOL     OW50150   3.853   7.605   6.851
49418SOL    HW150151   3.858   7.608   6.756
49418SOL    HW250152   3.924   7.545   6.876
49419SOL     OW50153   4.515   4.843   1.069
49419SOL    HW150154   4.480   4.898   1.139
49419SOL    HW250155   4.440   4.790   1.041
49420SOL     OW50156  14.374   9.870  12.500
49420SOL    HW150157  14.348   9.876  12.408
49420SOL    HW250158  14.463   9.836  12.498
49421SOL     OW50159   1.560   5.142  14.722
49421SOL    HW150160   1.630   5.096  14.768
49421SOL    HW250161   1.546   5.091  14.642
49422SOL     OW50162  11.283   8.362   8.804
49422SOL    HW150163  11.242   8.448   8.796
49422SOL    HW250164  11.245   8.326   8.884
49423SOL     OW50165  12.824   5.395  13.291
49423SOL    HW150166  12.771   5.454  13.237
49423SOL    HW250167  12.771   5.379  13.369
49424SOL     OW50168   6.423   4.366   1.927
49424SOL    HW150169   6.374   4.361   2.009
49424SOL    HW250170   6.514   4.358   1.953
49425SOL     OW50171   1.385   2.703  11.143
49425SOL    HW150172   1.386   2.638  11.213
49425SOL    HW250173   1.468   2.690  11.097
49426SOL     OW50174  13.068   8.970   4.557
49426SOL    HW150175  13.128   8.896   4.560
49426SOL    HW250176  12.985   8.936   4.590
49427SOL     OW50177   7.294  11.780  10.746
49427SOL    HW150178   7.306  11.848  10.680
49427SOL    HW250179   7.293  11.698  10.697
49428SOL     OW50180   2.138   7.532  10.667
49428SOL    HW150181   2.210   7.486  10.623
49428SOL    HW250182   2.144   7.622  10.635
49429SOL     OW50183   6.880   2.025  11.512
49429SOL    HW150184   6.881   1.962  11.584
49429SOL    HW250185   6.841   2.104  11.550
49430SOL     OW50186   7.718   7.590  10.599
49430SOL    HW150187   7.808   7.606  10.572
49430SOL    HW250188   7.720   7.599  10.694
49431SOL     OW50189   2.211  11.609  13.387
49431SOL    HW150190   2.166  11.655  13.458
49431SOL    HW250191   2.209  11.670  13.314
49432SOL     OW50192   1.189  12.684   9.414
49432SOL    HW150193   1.097  12.661   9.400
49432SOL    HW250194   1.238  12.615   9.370
49433SOL     OW50195  10.508   4.872   9.314
49433SOL    HW150196  10.595   4.887   9.278
49433SOL    HW250197  10.475   4.795   9.266
49434SOL     OW50198  12.086   0.506   2.737
49434SOL    HW150199  12.018   0.452   2.777
49434SOL    HW250200  12.106   0.463   2.655
49435SOL     OW50201   0.017   0.296   3.184
49435SOL    HW150202   0.065   0.307   3.102
49435SOL    HW250203   0.081   0.316   3.253
49436SOL     OW50204   8.168   5.520   0.586
49436SOL    HW150205   8.224   5.593   0.561
49436SOL    HW250206   8.206   5.488   0.668
49437SOL     OW50207   9.143  11.495  13.991
49437SOL    HW150208   9.204  11.421  13.994
49437SOL    HW250209   9.148  11.533  14.078
49438SOL     OW50210   3.014   9.433  12.962
49438SOL    HW150211   2.960   9.494  13.012
49438SOL    HW250212   2.951   9.375  12.920
49439SOL     OW50213  11.088   3.690   8.728
49439SOL    HW150214  11.100   3.779   8.697
49439SOL    HW250215  11.119   3.692   8.819
49440SOL     OW50216  14.050   5.794  12.906
49440SOL    HW150217  13.979   5.827  12.850
49440SOL    HW250218  14.113   5.866  12.909
49441SOL     OW50219  12.964   3.175  12.100
49441SOL    HW150220  13.046   3.224  12.104
49441SOL    HW250221  12.957   3.147  12.008
49442SOL     OW50222   0.877   8.225   5.196
49442SOL    HW150223   0.787   8.232   5.163
49442SOL    HW250224   0.902   8.315   5.216
49443SOL     OW50225  13.866   4.315   3.764
49443SOL    HW150226  13.865   4.401   3.805
49443SOL    HW250227  13.957   4.287   3.770
49444SOL     OW50228   6.756   9.354  13.505
49444SOL    HW150229   6.675   9.302  13.505
49444SOL    HW250230   6.825   9.292  13.525
49445SOL     OW50231  11.757  14.583   2.680
49445SOL    HW150232  11.688  14.644   2.706
49445SOL    HW250233  11.782  14.612   2.592
49446SOL     OW50234   4.237   5.894   9.839
49446SOL    HW150235   4.316   5.945   9.822
49446SOL    HW250236   4.194   5.938   9.912
49447SOL     OW50237   9.123   0.128  14.213
49447SOL    HW150238   9.191   0.161  14.273
49447SOL    HW250239   9.147   0.037  14.197
49448SOL     OW50240   2.514   8.326   8.533
49448SOL    HW150241   2.431   8.309   8.488
49448SOL    HW250242   2.505   8.416   8.566
49449SOL     OW50243   6.624  14.068   8.712
49449SOL    HW150244   6.538  14.026   8.709
49449SOL    HW250245   6.622  14.121   8.792
49450SOL     OW50246   4.517  10.100   3.547
49450SOL    HW150247   4.520  10.173   3.486
49450SOL    HW250248   4.597  10.051   3.530
49451SOL     OW50249   0.960  14.574   3.862
49451SOL    HW150250   0.969  14.514   3.788
49451SOL    HW250251   0.874  14.615   3.849
49452SOL     OW50252  13.185   6.185  13.665
49452SOL    HW150253  13.164   6.093  13.646
49452SOL    HW250254  13.154   6.233  13.588
49453SOL     OW50255   2.302   7.470   9.852
49453SOL    HW150256   2.294   7.529   9.927
49453SOL    HW250257   2.294   7.526   9.776
49454SOL     OW50258  13.377   1.845   5.453
49454SOL    HW150259  13.412   1.843   5.363
49454SOL    HW250260  13.455   1.846   5.508
49455SOL     OW50261  12.601  12.869   5.007
49455SOL    HW150262  12.597  12.879   4.912
49455SOL    HW250263  12.692  12.843   5.025
49456SOL     OW50264  13.978   4.129  11.266
49456SOL    HW150265  14.017   4.050  11.230
49456SOL    HW250266  13.993   4.122  11.361
49457SOL     OW50267  11.562  14.651   1.924
49457SOL    HW150268  11.552  14.718   1.857
49457SOL    HW250269  11.650  14.666   1.960
49458SOL     OW50270   1.260   0.111  13.575
49458SOL    HW150271   1.319   0.082  13.506
49458SOL    HW250272   1.172   0.089  13.542
49459SOL     OW50273  12.631   5.286   9.390
49459SOL    HW150274  12.556   5.307   9.445
49459SOL    HW250275  12.652   5.368   9.345
49460SOL     OW50276   4.078   6.024   8.703
49460SOL    HW150277   4.070   6.051   8.611
49460SOL    HW250278   4.141   6.085   8.740
49461SOL     OW50279   6.629  12.712   6.546
49461SOL    HW150280   6.652  12.621   6.566
49461SOL    HW250281   6.609  12.712   6.452
49462SOL     OW50282   6.205  13.393   2.612
49462SOL    HW150283   6.271  13.350   2.667
49462SOL    HW250284   6.124  13.345   2.631
49463SOL     OW50285   9.152  14.061  10.017
49463SOL    HW150286   9.209  13.987  10.040
49463SOL    HW250287   9.164  14.123  10.088
49464SOL     OW50288  14.837  10.235  13.129
49464SOL    HW150289  14.865  10.310  13.181
49464SOL    HW250290  14.832  10.268  13.040
49465SOL     OW50291   9.371   5.395  12.558
49465SOL    HW150292   9.340   5.334  12.625
49465SOL    HW250293   9.363   5.481  12.599
49466SOL     OW50294   9.188   4.634   2.610
49466SOL    HW150295   9.157   4.649   2.521
49466SOL    HW250296   9.116   4.666   2.666
49467SOL     OW50297   6.246  13.029  10.247
49467SOL    HW150298   6.254  12.937  10.222
49467SOL    HW250299   6.266  13.030  10.341
49468SOL     OW50300   3.819   5.378   9.207
49468SOL    HW150301   3.789   5.353   9.295
49468SOL    HW250302   3.914   5.372   9.212
49469SOL     OW50303  13.754   8.882   3.966
49469SOL    HW150304  13.738   8.801   3.917
49469SOL    HW250305  13.741   8.858   4.057
49470SOL     OW50306   5.649  11.264   0.001
49470SOL    HW150307   5.732  11.220   0.017
49470SOL    HW250308   5.659  11.350   0.043
49471SOL     OW50309  13.571   7.813   5.176
49471SOL    HW150310  13.586   7.868   5.253
49471SOL    HW250311  13.655   7.811   5.130
49472SOL     OW50312   1.256   8.072   0.910
49472SOL    HW150313   1.221   7.998   0.959
49472SOL    HW250314   1.320   8.034   0.849
49473SOL     OW50315   3.416   1.361  13.056
49473SOL    HW150316   3.346   1.329  12.999
49473SOL    HW250317   3.487   1.386  12.996
49474SOL     OW50318   6.226   5.724  13.227
49474SOL    HW150319   6.157   5.789  13.243
49474SOL    HW250320   6.296   5.747  13.288
49475SOL     OW50321   4.278   0.704   5.708
49475SOL    HW150322   4.305   0.709   5.800
49475SOL    HW250323   4.355   0.733   5.659
49476SOL     OW50324   8.944   2.417   1.230
49476SOL    HW150325   9.027   2.463   1.217
49476SOL    HW250326   8.940   2.400   1.325
49477SOL     OW50327  10.897   2.816  13.635
49477SOL    HW150328  10.992   2.823  13.626
49477SOL    HW250329  10.877   2.727  13.607
49478SOL     OW50330  12.222   7.017   0.100
49478SOL    HW150331  12.311   7.053   0.104
49478SOL    HW250332  12.199   7.021   0.007
49479SOL     OW50333   5.248  12.260   3.346
49479SOL    HW150334   5.258  12.188   3.407
49479SOL    HW250335   5.282  12.226   3.263
49480SOL     OW50336   4.009   0.161  11.593
49480SOL    HW150337   4.081   0.110  11.630
49480SOL    HW250338   4.004   0.134  11.502
49481SOL     OW50339  12.193   1.422   4.459
49481SOL    HW150340  12.286   1.444   4.471
49481SOL    HW250341  12.186   1.398   4.366
49482SOL     OW50342  13.038  12.474  11.990
49482SOL    HW150343  13.085  12.402  12.030
49482SOL    HW250344  13.029  12.449  11.898
49483SOL     OW50345   6.796   4.561   2.569
49483SOL    HW150346   6.760   4.558   2.658
49483SOL    HW250347   6.890   4.556   2.581
49484SOL     OW50348   6.257   5.562   3.642
49484SOL    HW150349   6.222   5.557   3.731
49484SOL    HW250350   6.330   5.624   3.649
49485SOL     OW50351   6.293   1.085  12.820
49485SOL    HW150352   6.276   1.162  12.874
49485SOL    HW250353   6.303   1.119  12.731
49486SOL     OW50354   7.849   4.834   4.909
49486SOL    HW150355   7.920   4.784   4.869
49486SOL    HW250356   7.882   4.856   4.996
49487SOL     OW50357  11.718   0.773   3.483
49487SOL    HW150358  11.622   0.773   3.479
49487SOL    HW250359  11.745   0.822   3.404
49488SOL     OW50360   0.776   4.869   4.159
49488SOL    HW150361   0.786   4.946   4.216
49488SOL    HW250362   0.823   4.891   4.079
49489SOL     OW50363  10.110   8.794   3.276
49489SOL    HW150364  10.046   8.809   3.345
49489SOL    HW250365  10.103   8.872   3.220
49490SOL     OW50366   1.297  13.655  12.365
49490SOL    HW150367   1.350  13.576  12.353
49490SOL    HW250368   1.229  13.648  12.298
49491SOL     OW50369   4.322   2.261  14.095
49491SOL    HW150370   4.399   2.240  14.148
49491SOL    HW250371   4.301   2.351  14.118
49492SOL     OW50372   1.408  10.317   8.909
49492SOL    HW150373   1.484  10.272   8.947
49492SOL    HW250374   1.411  10.405   8.946
49493SOL     OW50375   4.268   1.912   0.120
49493SOL    HW150376   4.179   1.881   0.101
49493SOL    HW250377   4.296   1.857   0.194
49494SOL     OW50378   1.634   5.407  12.483
49494SOL    HW150379   1.599   5.386  12.396
49494SOL    HW250380   1.692   5.482  12.467
49495SOL     OW50381   4.283  12.810   7.689
49495SOL    HW150382   4.353  12.752   7.659
49495SOL    HW250383   4.327  12.894   7.707
49496SOL     OW50384   0.435   0.223  10.631
49496SOL    HW150385   0.436   0.318  10.620
49496SOL    HW250386   0.347   0.205  10.665
49497SOL     OW50387  11.077  14.129   0.448
49497SOL    HW150388  11.166  14.162   0.433
49497SOL    HW250389  11.053  14.163   0.534
49498SOL     OW50390  11.782   8.526   6.299
49498SOL    HW150391  11.819   8.614   6.292
49498SOL    HW250392  11.840   8.480   6.360
49499SOL     OW50393  12.791   7.474   8.079
49499SOL    HW150394  12.741   7.494   8.000
49499SOL    HW250395  12.741   7.516   8.150
49500SOL     OW50396   9.074  11.056   7.042
49500SOL    HW150397   9.103  11.067   6.951
49500SOL    HW250398   9.076  10.961   7.056
49501SOL     OW50399  14.803  14.452  14.630
49501SOL    HW150400  14.778  14.359  14.632
49501SOL    HW250401   0.012  14.451  14.602
49502SOL     OW50402   0.796   2.184   4.264
49502SOL    HW150403   0.818   2.212   4.175
49502SOL    HW250404   0.716   2.232   4.285
49503SOL     OW50405   3.204   4.782  11.717
49503SOL    HW150406   3.166   4.848  11.775
49503SOL    HW250407   3.272   4.829  11.668
49504SOL     OW50408  12.870   2.967   0.690
49504SOL    HW150409  12.904   2.907   0.623
49504SOL    HW250410  12.802   2.916   0.735
49505SOL     OW50411  12.141  14.284  10.614
49505SOL    HW150412  12.203  14.212  10.620
49505SOL    HW250413  12.055  14.242  10.608
49506SOL     OW50414   1.025  11.475   4.081
49506SOL    HW150415   1.075  11.553   4.102
49506SOL    HW250416   0.985  11.449   4.164
49507SOL     OW50417   6.636  13.008   8.849
49507SOL    HW150418   6.662  12.947   8.918
49507SOL    HW250419   6.547  12.983   8.826
49508SOL     OW50420   9.030   4.811   0.910
49508SOL    HW150421   8.994   4.846   0.829
49508SOL    HW250422   8.958   4.760   0.948
49509SOL     OW50423  10.048  13.163  11.191
49509SOL    HW150424   9.966  13.147  11.145
49509SOL    HW250425  10.083  13.242  11.150
49510SOL     OW50426   6.474   6.310   9.367
49510SOL    HW150427   6.557   6.277   9.401
49510SOL    HW250428   6.448   6.378   9.428
49511SOL     OW50429  12.839  12.551   2.670
49511SOL    HW150430  12.808  12.641   2.680
49511SOL    HW250431  12.863  12.545   2.577
49512SOL     OW50432   5.540   7.598   4.883
49512SOL    HW150433   5.507   7.553   4.961
49512SOL    HW250434   5.475   7.666   4.866
49513SOL     OW50435   0.012  14.061  12.887
49513SOL    HW150436   0.098  14.067  12.845
49513SOL    HW250437  14.867  13.970  12.875
49514SOL     OW50438   1.516   9.322  11.969
49514SOL    HW150439   1.555   9.259  12.030
49514SOL    HW250440   1.554   9.406  11.995
49515SOL     OW50441  13.222   6.074  12.816
49515SOL    HW150442  13.179   6.159  12.807
49515SOL    HW250443  13.150   6.011  12.812
49516SOL     OW50444   7.037   1.425  11.245
49516SOL    HW150445   6.955   1.387  11.216
49516SOL    HW250446   7.034   1.516  11.213
49517SOL     OW50447   1.562   3.295   1.783
49517SOL    HW150448   1.601   3.360   1.841
49517SOL    HW250449   1.488   3.340   1.742
49518SOL     OW50450  12.433   9.067   7.472
49518SOL    HW150451  12.479   9.081   7.555
49518SOL    HW250452  12.420   8.972   7.468
49519SOL     OW50453  10.983   4.485  11.054
49519SOL    HW150454  11.052   4.551  11.041
49519SOL    HW250455  10.924   4.525  11.118
49520SOL     OW50456   5.119  12.760   6.997
49520SOL    HW150457   5.064  12.687   7.026
49520SOL    HW250458   5.174  12.780   7.073
49521SOL     OW50459  10.244   0.133   6.483
49521SOL    HW150460  10.204   0.129   6.396
49521SOL    HW250461  10.338   0.130   6.467
49522SOL     OW50462  14.728   0.340   8.187
49522SOL    HW150463  14.803   0.392   8.161
49522SOL    HW250464  14.652   0.395   8.166
49523SOL     OW50465   3.742  13.404   5.274
49523SOL    HW150466   3.769  13.324   5.229
49523SOL    HW250467   3.782  13.397   5.360
49524SOL     OW50468   1.980  12.002  10.111
49524SOL    HW150469   1.908  12.063  10.126
49524SOL    HW250470   2.009  12.021  10.022
49525SOL     OW50471   9.511   3.698   0.533
49525SOL    HW150472   9.558   3.617   0.552
49525SOL    HW250473   9.509   3.704   0.438
49526SOL     OW50474   4.819   5.157  10.714
49526SOL    HW150475   4.786   5.075  10.750
49526SOL    HW250476   4.898   5.176  10.765
49527SOL     OW50477  11.748   0.192  12.990
49527SOL    HW150478  11.676   0.254  12.977
49527SOL    HW250479  11.719   0.112  12.945
49528SOL     OW50480   2.230   2.862   2.597
49528SOL    HW150481   2.237   2.841   2.504
49528SOL    HW250482   2.320   2.863   2.628
49529SOL     OW50483  12.550   6.891   4.675
49529SOL    HW150484  12.509   6.846   4.749
49529SOL    HW250485  12.512   6.979   4.676
49530SOL     OW50486   2.642   3.625   6.691
49530SOL    HW150487   2.715   3.676   6.657
49530SOL    HW250488   2.577   3.691   6.718
49531SOL     OW50489   0.908   7.249   9.654
49531SOL    HW150490   0.988   7.220   9.698
49531SOL    HW250491   0.838   7.220   9.711
49532SOL     OW50492   8.876  10.687   4.535
49532SOL    HW150493   8.929  10.730   4.468
49532SOL    HW250494   8.786  10.695   4.503
49533SOL     OW50495   3.382   3.713   8.862
49533SOL    HW150496   3.421   3.779   8.804
49533SOL    HW250497   3.326   3.762   8.921
49534SOL     OW50498   2.287   2.564  10.293
49534SOL    HW150499   2.317   2.524  10.375
49534SOL    HW250500   2.341   2.642  10.284
49535SOL     OW50501  12.443  14.777   7.849
49535SOL    HW150502  12.348  14.787   7.850
49535SOL    HW250503  12.457  14.685   7.827
49536SOL     OW50504   1.532   7.853   8.101
49536SOL    HW150505   1.565   7.935   8.138
49536SOL    HW250506   1.534   7.867   8.007
49537SOL     OW50507  14.559   2.761  11.919
49537SOL    HW150508  14.582   2.726  12.006
49537SOL    HW250509  14.509   2.691  11.878
49538SOL     OW50510   5.444   0.857  13.077
49538SOL    HW150511   5.479   0.890  13.160
49538SOL    HW250512   5.351   0.844  13.094
49539SOL     OW50513   9.322   0.401   8.449
49539SOL    HW150514   9.295   0.490   8.425
49539SOL    HW250515   9.418   0.405   8.449
49540SOL     OW50516  13.904  12.109  14.503
49540SOL    HW150517  13.977  12.168  14.482
49540SOL    HW250518  13.860  12.094  14.419
49541SOL     OW50519   5.254   2.176   3.330
49541SOL    HW150520   5.297   2.093   3.348
49541SOL    HW250521   5.198   2.158   3.255
49542SOL     OW50522   3.997   9.635   4.170
49542SOL    HW150523   4.079   9.629   4.121
49542SOL    HW250524   4.016   9.696   4.241
49543SOL     OW50525  14.019  12.789   8.336
49543SOL    HW150526  14.112  12.801   8.355
49543SOL    HW250527  13.991  12.874   8.300
49544SOL     OW50528  13.000   1.525   2.602
49544SOL    HW150529  13.027   1.491   2.516
49544SOL    HW250530  13.081   1.531   2.652
49545SOL     OW50531   4.811   7.663   9.947
49545SOL    HW150532   4.848   7.706   9.870
49545SOL    HW250533   4.779   7.735  10.001
49546SOL     OW50534   3.493  14.374  12.707
49546SOL    HW150535   3.510  14.369  12.613
49546SOL    HW250536   3.508  14.285  12.739
49547SOL     OW50537   7.319   3.836  12.707
49547SOL    HW150538   7.243   3.794  12.748
49547SOL    HW250539   7.321   3.924  12.745
49548SOL     OW50540   7.959  14.598   7.606
49548SOL    HW150541   7.863  14.595   7.605
49548SOL    HW250542   7.985  14.523   7.554
49549SOL     OW50543   2.339   1.219   7.753
49549SOL    HW150544   2.423   1.185   7.782
49549SOL    HW250545   2.360   1.300   7.707
49550SOL     OW50546   8.175  11.315   7.142
49550SOL    HW150547   8.189  11.237   7.087
49550SOL    HW250548   8.084  11.307   7.170
49551SOL     OW50549   0.887   1.228  13.349
49551SOL    HW150550   0.827   1.165  13.308
49551SOL    HW250551   0.854   1.313  13.322
49552SOL     OW50552  14.424   3.118   9.181
49552SOL    HW150553  14.471   3.193   9.143
49552SOL    HW250554  14.365   3.089   9.111
49553SOL     OW50555   8.208   8.101   3.760
49553SOL    HW150556   8.232   8.008   3.755
49553SOL    HW250557   8.278   8.140   3.813
49554SOL     OW50558  10.914  11.382   6.001
49554SOL    HW150559  10.846  11.450   5.999
49554SOL    HW250560  10.871  11.308   6.045
49555SOL     OW50561  12.144   9.125   3.313
49555SOL    HW150562  12.158   9.032   3.294
49555SOL    HW250563  12.049   9.136   3.309
49556SOL     OW50564   2.384   9.850  10.981
49556SOL    HW150565   2.351   9.808  11.060
49556SOL    HW250566   2.477   9.827  10.978
49557SOL     OW50567  10.202   3.626   7.202
49557SOL    HW150568  10.205   3.647   7.295
49557SOL    HW250569  10.161   3.540   7.198
49558SOL     OW50570   5.439  10.460  12.298
49558SOL    HW150571   5.383  10.403  12.351
49558SOL    HW250572   5.390  10.471  12.216
49559SOL     OW50573   5.674  11.234  11.424
49559SOL    HW150574   5.629  11.152  11.403
49559SOL    HW250575   5.693  11.227  11.518
49560SOL     OW50576  11.813   5.145   1.914
49560SOL    HW150577  11.812   5.161   2.009
49560SOL    HW250578  11.905   5.143   1.891
49561SOL     OW50579   5.218   8.292   5.803
49561SOL    HW150580   5.203   8.206   5.763
49561SOL    HW250581   5.130   8.325   5.822
49562SOL     OW50582   5.399   8.399   4.731
49562SOL    HW150583   5.392   8.320   4.677
49562SOL    HW250584   5.487   8.396   4.768
49563SOL     OW50585  13.145  13.969   9.215
49563SOL    HW150586  13.172  13.878   9.225
49563SOL    HW250587  13.205  14.004   9.148
49564SOL     OW50588   4.725  10.673   9.863
49564SOL    HW150589   4.789  10.639   9.925
49564SOL    HW250590   4.667  10.600   9.845
49565SOL     OW50591   8.034   4.613   1.951
49565SOL    HW150592   7.949   4.650   1.974
49565SOL    HW250593   8.042   4.629   1.856
49566SOL     OW50594  10.716  14.683  11.338
49566SOL    HW150595  10.694  14.592  11.317
49566SOL    HW250596  10.631  14.726  11.351
49567SOL     OW50597   8.572   1.713   3.836
49567SOL    HW150598   8.651   1.694   3.784
49567SOL    HW250599   8.499   1.687   3.780
49568SOL     OW50600   4.548   8.403   5.045
49568SOL    HW150601   4.582   8.380   5.131
49568SOL    HW250602   4.626   8.412   4.990
49569SOL     OW50603   8.293   4.598   8.163
49569SOL    HW150604   8.241   4.517   8.161
49569SOL    HW250605   8.264   4.642   8.243
49570SOL     OW50606  14.187   6.645   9.497
49570SOL    HW150607  14.128   6.588   9.449
49570SOL    HW250608  14.149   6.650   9.585
49571SOL     OW50609  12.560   7.111  11.548
49571SOL    HW150610  12.527   7.036  11.597
49571SOL    HW250611  12.591   7.074  11.465
49572SOL     OW50612   0.711  13.936   9.393
49572SOL    HW150613   0.649  13.999   9.430
49572SOL    HW250614   0.745  13.979   9.315
49573SOL     OW50615  11.542   2.915   9.535
49573SOL    HW150616  11.452   2.927   9.564
49573SOL    HW250617  11.566   3.000   9.496
49574SOL     OW50618  12.106  12.166   9.157
49574SOL    HW150619  12.116  12.084   9.205
49574SOL    HW250620  12.160  12.229   9.205
49575SOL     OW50621   2.576   0.964   5.205
49575SOL    HW150622   2.604   1.044   5.160
49575SOL    HW250623   2.482   0.959   5.190
49576SOL     OW50624   4.435  12.603   6.692
49576SOL    HW150625   4.506  12.611   6.756
49576SOL    HW250626   4.452  12.674   6.629
49577SOL     OW50627   5.671   6.176  14.767
49577SOL    HW150628   5.599   6.238  14.777
49577SOL    HW250629   5.722   6.185  14.848
49578SOL     OW50630   8.094   2.335  10.857
49578SOL    HW150631   8.169   2.277  10.870
49578SOL    HW250632   8.036   2.316  10.930
49579SOL     OW50633   1.486   3.739   4.088
49579SOL    HW150634   1.577   3.767   4.090
49579SOL    HW250635   1.491   3.643   4.082
49580SOL     OW50636  12.105  14.812   8.718
49580SOL    HW150637  12.080  14.743   8.656
49580SOL    HW250638  12.188  14.781   8.755
49581SOL     OW50639   4.296  13.649   0.242
49581SOL    HW150640   4.389  13.672   0.241
49581SOL    HW250641   4.275  13.629   0.151
49582SOL     OW50642   0.333   9.830   8.683
49582SOL    HW150643   0.428   9.818   8.689
49582SOL    HW250644   0.300   9.750   8.643
49583SOL     OW50645  13.660   7.200   6.573
49583SOL    HW150646  13.726   7.222   6.638
49583SOL    HW250647  13.577   7.225   6.614
49584SOL     OW50648  14.529   5.410   3.438
49584SOL    HW150649  14.496   5.329   3.401
49584SOL    HW250650  14.466   5.433   3.507
49585SOL     OW50651  11.663   2.248   8.744
49585SOL    HW150652  11.688   2.339   8.761
49585SOL    HW250653  11.570   2.253   8.720
49586SOL     OW50654  10.805  13.003  10.332
49586SOL    HW150655  10.883  13.057  10.346
49586SOL    HW250656  10.806  12.942  10.406
49587SOL     OW50657  14.482  12.004   7.999
49587SOL    HW150658  14.545  11.932   7.998
49587SOL    HW250659  14.484  12.039   7.910
49588SOL     OW50660   6.630   4.520   2.345
49588SOL    HW150661   6.627   4.428   2.319
49588SOL    HW250662   6.688   4.522   2.421
49589SOL     OW50663   6.710  14.198   6.850
49589SOL    HW150664   6.699  14.144   6.772
49589SOL    HW250665   6.621  14.214   6.881
49590SOL     OW50666  12.534  13.258   8.539
49590SOL    HW150667  12.573  13.222   8.460
49590SOL    HW250668  12.545  13.189   8.605
49591SOL     OW50669  13.987   6.649   2.793
49591SOL    HW150670  13.917   6.597   2.832
49591SOL    HW250671  14.035   6.587   2.738
49592SOL     OW50672  14.067   7.381   1.924
49592SOL    HW150673  14.134   7.318   1.950
49592SOL    HW250674  14.066   7.446   1.995
49593SOL     OW50675  14.266  11.622  10.864
49593SOL    HW150676  14.267  11.640  10.958
49593SOL    HW250677  14.293  11.705  10.824
49594SOL     OW50678   1.478  11.889   9.141
49594SOL    HW150679   1.459  11.816   9.082
49594SOL    HW250680   1.536  11.851   9.208
49595SOL     OW50681   0.965   2.983   8.413
49595SOL    HW150682   1.054   2.976   8.448
49595SOL    HW250683   0.909   2.952   8.485
49596SOL     OW50684   3.187   7.328   0.635
49596SOL    HW150685   3.149   7.380   0.706
49596SOL    HW250686   3.275   7.365   0.622
49597SOL     OW50687   1.494   4.973   8.688
49597SOL    HW150688   1.564   5.038   8.681
49597SOL    HW250689   1.451   4.975   8.603
49598SOL     OW50690   2.671   5.092  12.325
49598SOL    HW150691   2.673   4.997  12.333
49598SOL    HW250692   2.674   5.108  12.230
49599SOL     OW50693   1.758   7.915   0.189
49599SOL    HW150694   1.786   7.849   0.252
49599SOL    HW250695   1.689   7.871   0.138
49600SOL     OW50696   8.993   7.729  10.464
49600SOL    HW150697   9.076   7.771  10.441
49600SOL    HW250698   8.936   7.745  10.389
49601SOL     OW50699   5.996  10.781   5.621
49601SOL    HW150700   6.028  10.805   5.534
49601SOL    HW250701   6.047  10.704   5.646
49602SOL     OW50702  12.353   7.345   5.212
49602SOL    HW150703  12.355   7.255   5.181
49602SOL    HW250704  12.312   7.395   5.141
49603SOL     OW50705   2.290   0.849   0.282
49603SOL    HW150706   2.203   0.846   0.321
49603SOL    HW250707   2.296   0.770   0.228
49604SOL     OW50708   7.812  10.176  11.526
49604SOL    HW150709   7.852  10.107  11.474
49604SOL    HW250710   7.761  10.130  11.592
49605SOL     OW50711  11.227   0.646   2.643
49605SOL    HW150712  11.209   0.632   2.736
49605SOL    HW250713  11.200   0.736   2.627
49606SOL     OW50714  14.789  10.971  13.812
49606SOL    HW150715  14.765  10.889  13.769
49606SOL    HW250716  14.863  11.004  13.760
49607SOL     OW50717  11.876   5.337   6.239
49607SOL    HW150718  11.837   5.376   6.161
49607SOL    HW250719  11.941   5.275   6.206
49608SOL     OW50720  14.298   8.740  12.122
49608SOL    HW150721  14.215   8.777  12.094
49608SOL    HW250722  14.316   8.779  12.207
49609SOL     OW50723   3.618  11.573  10.664
49609SOL    HW150724   3.712  11.579  10.650
49609SOL    HW250725   3.608  11.555  10.757
49610SOL     OW50726   6.469  11.067  12.814
49610SOL    HW150727   6.461  11.017  12.733
49610SOL    HW250728   6.402  11.029  12.872
49611SOL     OW50729   0.447   1.853   1.615
49611SOL    HW150730   0.520   1.818   1.666
49611SOL    HW250731   0.465   1.826   1.525
49612SOL     OW50732   1.301   1.258   1.556
49612SOL    HW150733   1.283   1.265   1.650
49612SOL    HW250734   1.317   1.348   1.528
49613SOL     OW50735   7.657   3.151   2.699
49613SOL    HW150736   7.653   3.058   2.680
49613SOL    HW250737   7.745   3.177   2.672
49614SOL     OW50738   2.028   3.437  14.316
49614SOL    HW150739   2.050   3.432  14.223
49614SOL    HW250740   1.933   3.423  14.318
49615SOL     OW50741   9.379   8.466  10.596
49615SOL    HW150742   9.353   8.455  10.688
49615SOL    HW250743   9.298   8.490  10.552
49616SOL     OW50744   7.603   4.349  11.492
49616SOL    HW150745   7.633   4.430  11.450
49616SOL    HW250746   7.681   4.312  11.533
49617SOL     OW50747  14.702   7.031   8.917
49617SOL    HW150748  14.643   7.101   8.889
49617SOL    HW250749  14.746   7.003   8.836
49618SOL     OW50750  14.097  10.149  11.618
49618SOL    HW150751  14.141  10.231  11.595
49618SOL    HW250752  14.164  10.099  11.666
49619SOL     OW50753  13.122  11.090   2.593
49619SOL    HW150754  13.058  11.024   2.619
49619SOL    HW250755  13.193  11.041   2.552
49620SOL     OW50756  12.172   1.178  10.280
49620SOL    HW150757  12.088   1.152  10.316
49620SOL    HW250758  12.153   1.203  10.189
49621SOL     OW50759   2.716   6.347   7.719
49621SOL    HW150760   2.788   6.308   7.668
49621SOL    HW250761   2.641   6.288   7.703
49622SOL     OW50762   2.912   1.672   7.860
49622SOL    HW150763   2.817   1.686   7.854
49622SOL    HW250764   2.936   1.629   7.778
49623SOL     OW50765   2.070   2.707   8.604
49623SOL    HW150766   2.122   2.781   8.634
49623SOL    HW250767   2.131   2.633   8.604
49624SOL     OW50768  13.020   5.557   3.932
49624SOL    HW150769  12.936   5.544   3.977
49624SOL    HW250770  13.050   5.468   3.912
49625SOL     OW50771   0.687   5.738   7.670
49625SOL    HW150772   0.707   5.644   7.664
49625SOL    HW250773   0.641   5.747   7.754
49626SOL     OW50774   0.452   1.512   2.481
49626SOL    HW150775   0.383   1.445   2.482
49626SOL    HW250776   0.531   1.464   2.505
49627SOL     OW50777  12.535   2.008   4.200
49627SOL    HW150778  12.531   1.919   4.234
49627SOL    HW250779  12.532   2.064   4.278
49628SOL     OW50780  11.601   2.528  13.197
49628SOL    HW150781  11.636   2.459  13.253
49628SOL    HW250782  11.550   2.583  13.256
49629SOL     OW50783   7.030   4.267   6.532
49629SOL    HW150784   7.052   4.336   6.595
49629SOL    HW250785   7.061   4.187   6.574
49630SOL     OW50786   0.183   2.266  13.390
49630SOL    HW150787   0.114   2.296  13.331
49630SOL    HW250788   0.212   2.183  13.351
49631SOL     OW50789  13.700  12.994  10.260
49631SOL    HW150790  13.660  13.074  10.227
49631SOL    HW250791  13.739  12.953  10.183
49632SOL     OW50792   0.790   2.628  12.961
49632SOL    HW150793   0.828   2.634  12.874
49632SOL    HW250794   0.865   2.611  13.019
49633SOL     OW50795   4.533   5.153   2.616
49633SOL    HW150796   4.446   5.145   2.578
49633SOL    HW250797   4.592   5.116   2.549
49634SOL     OW50798   1.269   4.404   9.287
49634SOL    HW150799   1.262   4.499   9.277
49634SOL    HW250800   1.200   4.382   9.351
49635SOL     OW50801   9.422  11.863   7.555
49635SOL    HW150802   9.394  11.897   7.470
49635SOL    HW250803   9.475  11.933   7.592
49636SOL     OW50804   1.579   0.497  10.672
49636SOL    HW150805   1.650   0.457  10.622
49636SOL    HW250806   1.521   0.424  10.693
49637SOL     OW50807   4.439  11.626  11.264
49637SOL    HW150808   4.523  11.650  11.226
49637SOL    HW250809   4.444  11.652  11.356
49638SOL     OW50810  13.281   9.944   7.023
49638SOL    HW150811  13.247   9.913   6.938
49638SOL    HW250812  13.330  10.023   7.002
49639SOL     OW50813   1.937   7.017  12.298
49639SOL    HW150814   1.936   6.989  12.389
49639SOL    HW250815   1.902   6.942  12.249
49640SOL     OW50816  10.836   3.445  10.344
49640SOL    HW150817  10.809   3.423  10.255
49640SOL    HW250818  10.897   3.518  10.333
49641SOL     OW50819   6.305  13.237   6.784
49641SOL    HW150820   6.385  13.256   6.832
49641SOL    HW250821   6.263  13.322   6.773
49642SOL     OW50822  11.000   7.918   1.099
49642SOL    HW150823  11.061   7.955   1.163
49642SOL    HW250824  11.054   7.856   1.049
49643SOL     OW50825   1.141  12.608   2.819
49643SOL    HW150826   1.147  12.571   2.731
49643SOL    HW250827   1.052  12.643   2.824
49644SOL     OW50828   7.455   1.889   3.393
49644SOL    HW150829   7.539   1.932   3.378
49644SOL    HW250830   7.430   1.914   3.482
49645SOL     OW50831   4.985  13.132   1.002
49645SOL    HW150832   5.072  13.101   0.978
49645SOL    HW250833   4.979  13.117   1.096
49646SOL     OW50834   2.963  11.516  11.863
49646SOL    HW150835   2.906  11.443  11.842
49646SOL    HW250836   3.048  11.476  11.883
49647SOL     OW50837   8.935   0.763  12.693
49647SOL    HW150838   9.015   0.810  12.670
49647SOL    HW250839   8.950   0.674  12.661
49648SOL     OW50840  10.180  11.778  12.165
49648SOL    HW150841  10.090  11.771  12.135
49648SOL    HW250842  10.177  11.756  12.258
49649SOL     OW50843  12.155   0.138   3.121
49649SOL    HW150844  12.098   0.164   3.049
49649SOL    HW250845  12.201   0.060   3.089
49650SOL     OW50846   1.876   4.082   4.305
49650SOL    HW150847   1.903   4.166   4.270
49650SOL    HW250848   1.799   4.057   4.253
49651SOL     OW50849   3.226   9.956   9.597
49651SOL    HW150850   3.248   9.942   9.505
49651SOL    HW250851   3.190  10.045   9.599
49652SOL     OW50852   4.572  12.446   0.415
49652SOL    HW150853   4.559  12.444   0.509
49652SOL    HW250854   4.561  12.538   0.391
49653SOL     OW50855  11.299   6.372   3.171
49653SOL    HW150856  11.281   6.424   3.250
49653SOL    HW250857  11.326   6.437   3.106
49654SOL     OW50858   2.610   7.374  14.021
49654SOL    HW150859   2.660   7.313  13.968
49654SOL    HW250860   2.627   7.460  13.981
49655SOL     OW50861   0.348   6.732   2.319
49655SOL    HW150862   0.427   6.727   2.373
49655SOL    HW250863   0.301   6.808   2.353
49656SOL     OW50864   3.734  13.800   1.276
49656SOL    HW150865   3.653  13.844   1.303
49656SOL    HW250866   3.802  13.839   1.332
49657SOL     OW50867   1.577   7.408   0.693
49657SOL    HW150868   1.573   7.332   0.751
49657SOL    HW250869   1.543   7.480   0.745
49658SOL     OW50870  14.736  11.834  11.211
49658SOL    HW150871  14.811  11.790  11.170
49658SOL    HW250872  14.723  11.787  11.293
49659SOL     OW50873   9.339   9.214   5.070
49659SOL    HW150874   9.245   9.223   5.055
49659SOL    HW250875   9.349   9.129   5.113
49660SOL     OW50876   6.676   5.870   6.951
49660SOL    HW150877   6.761   5.894   6.987
49660SOL    HW250878   6.629   5.953   6.943
49661SOL     OW50879   2.816   2.279  10.008
49661SOL    HW150880   2.883   2.223  10.049
49661SOL    HW250881   2.741   2.274  10.068
49662SOL     OW50882  12.962   5.290   9.045
49662SOL    HW150883  12.920   5.238   9.114
49662SOL    HW250884  13.014   5.227   8.996
49663SOL     OW50885   4.288   2.699   4.956
49663SOL    HW150886   4.330   2.623   4.997
49663SOL    HW250887   4.228   2.662   4.891
49664SOL     OW50888   2.818   5.566  11.165
49664SOL    HW150889   2.827   5.500  11.234
49664SOL    HW250890   2.908   5.591  11.144
49665SOL     OW50891   7.591  11.345   3.667
49665SOL    HW150892   7.615  11.268   3.719
49665SOL    HW250893   7.524  11.314   3.607
49666SOL     OW50894  10.953   4.328   8.034
49666SOL    HW150895  11.006   4.249   8.038
49666SOL    HW250896  11.003   4.387   7.976
49667SOL     OW50897   3.076   8.920  13.540
49667SOL    HW150898   3.078   8.920  13.635
49667SOL    HW250899   3.102   9.009  13.515
49668SOL     OW50900  12.314   7.425  11.124
49668SOL    HW150901  12.227   7.407  11.089
49668SOL    HW250902  12.299   7.452  11.214
49669SOL     OW50903   3.534   3.126  12.420
49669SOL    HW150904   3.609   3.160  12.372
49669SOL    HW250905   3.459   3.147  12.363
49670SOL     OW50906  10.640   8.552   6.820
49670SOL    HW150907  10.610   8.637   6.853
49670SOL    HW250908  10.728   8.542   6.857
49671SOL     OW50909   6.735   4.277   4.465
49671SOL    HW150910   6.691   4.339   4.408
49671SOL    HW250911   6.727   4.315   4.553
49672SOL     OW50912   2.291   3.141   3.937
49672SOL    HW150913   2.251   3.227   3.950
49672SOL    HW250914   2.329   3.145   3.850
49673SOL     OW50915   8.205   7.877   9.487
49673SOL    HW150916   8.298   7.852   9.491
49673SOL    HW250917   8.161   7.799   9.453
49674SOL     OW50918   5.192  14.435  13.205
49674SOL    HW150919   5.192  14.393  13.291
49674SOL    HW250920   5.279  14.473  13.196
49675SOL     OW50921  10.723   8.530   0.475
49675SOL    HW150922  10.720   8.567   0.563
49675SOL    HW250923  10.641   8.557   0.435
49676SOL     OW50924   0.946   8.264   8.007
49676SOL    HW150925   1.030   8.296   7.976
49676SOL    HW250926   0.955   8.168   8.008
49677SOL     OW50927   9.116   3.046   6.407
49677SOL    HW150928   9.044   3.082   6.459
49677SOL    HW250929   9.161   3.123   6.372
49678SOL     OW50930   1.768   3.518   0.133
49678SOL    HW150931   1.694   3.471   0.172
49678SOL    HW250932   1.846   3.476   0.171
49679SOL     OW50933   6.267  11.064  10.980
49679SOL    HW150934   6.260  11.148  11.027
49679SOL    HW250935   6.179  11.028  10.982
49680SOL     OW50936  13.117   3.973   1.799
49680SOL    HW150937  13.048   3.923   1.755
49680SOL    HW250938  13.109   4.061   1.763
49681SOL     OW50939  13.611  11.197   6.442
49681SOL    HW150940  13.581  11.263   6.379
49681SOL    HW250941  13.622  11.245   6.524
49682SOL     OW50942   1.584   4.005   7.339
49682SOL    HW150943   1.565   4.066   7.410
49682SOL    HW250944   1.556   4.051   7.260
49683SOL     OW50945  13.510  11.144   6.922
49683SOL    HW150946  13.456  11.131   6.845
49683SOL    HW250947  13.448  11.162   6.993
49684SOL     OW50948   4.938   8.120   3.190
49684SOL    HW150949   4.887   8.198   3.211
49684SOL    HW250950   4.903   8.052   3.247
49685SOL     OW50951   8.685   3.079  14.288
49685SOL    HW150952   8.722   3.102  14.203
49685SOL    HW250953   8.598   3.045  14.269
49686SOL     OW50954  10.359   9.468  13.243
49686SOL    HW150955  10.410   9.483  13.323
49686SOL    HW250956  10.287   9.531  13.248
49687SOL     OW50957  14.028  13.870   0.974
49687SOL    HW150958  14.080  13.851   1.053
49687SOL    HW250959  14.066  13.951   0.940
49688SOL     OW50960   0.626  14.689   0.153
49688SOL    HW150961   0.601  14.597   0.164
49688SOL    HW250962   0.704  14.686   0.098
49689SOL     OW50963   9.230  11.909  12.248
49689SOL    HW150964   9.214  11.890  12.340
49689SOL    HW250965   9.300  11.849  12.222
49690SOL     OW50966   9.443  14.266   3.267
49690SOL    HW150967   9.470  14.279   3.358
49690SOL    HW250968   9.348  14.268   3.270
49691SOL     OW50969   6.043   9.901   6.058
49691SOL    HW150970   6.103   9.897   5.984
49691SOL    HW250971   6.098   9.888   6.135
49692SOL     OW50972   3.354   9.745   4.333
49692SOL    HW150973   3.352   9.697   4.250
49692SOL    HW250974   3.305   9.689   4.393
49693SOL     OW50975  10.829   3.993   3.638
49693SOL    HW150976  10.783   3.975   3.720
49693SOL    HW250977  10.851   3.906   3.604
49694SOL     OW50978  13.641  10.831   2.913
49694SOL    HW150979  13.573  10.882   2.868
49694SOL    HW250980  13.647  10.750   2.862
49695SOL     OW50981   6.153   8.158   2.032
49695SOL    HW150982   6.124   8.249   2.042
49695SOL    HW250983   6.073   8.106   2.038
49696SOL     OW50984   2.036   9.995  14.316
49696SOL    HW150985   1.992  10.077  14.296
49696SOL    HW250986   1.996   9.966  14.398
49697SOL     OW50987   7.206   3.662   7.746
49697SOL    HW150988   7.177   3.752   7.762
49697SOL    HW250989   7.182   3.646   7.654
49698SOL     OW50990   1.401  13.851   4.150
49698SOL    HW150991   1.356  13.933   4.168
49698SOL    HW250992   1.340  13.783   4.180
49699SOL     OW50993   9.211  12.195   4.895
49699SOL    HW150994   9.121  12.195   4.863
49699SOL    HW250995   9.262  12.237   4.826
49700SOL     OW50996  13.026  11.713   3.634
49700SOL    HW150997  13.022  11.654   3.709
49700SOL    HW250998  13.038  11.655   3.559
49701SOL     OW50999  11.931   2.963  12.345
49701SOL    HW151000  12.022   2.977  12.371
49701SOL    HW251001  11.881   2.978  12.425
49702SOL     OW51002   6.037   0.461   3.268
49702SOL    HW151003   6.034   0.408   3.188
49702SOL    HW251004   5.962   0.432   3.319
49703SOL     OW51005   6.670   7.928   2.396
49703SOL    HW151006   6.605   7.965   2.456
49703SOL    HW251007   6.754   7.963   2.427
49704SOL     OW51008  13.314   9.690   9.893
49704SOL    HW151009  13.312   9.654   9.982
49704SOL    HW251010  13.222   9.697   9.867
49705SOL     OW51011   6.795   5.057   3.541
49705SOL    HW151012   6.869   5.038   3.482
49705SOL    HW251013   6.760   5.140   3.509
49706SOL     OW51014  12.085  11.594   7.064
49706SOL    HW151015  11.996  11.625   7.083
49706SOL    HW251016  12.126  11.666   7.016
49707SOL     OW51017   3.330   6.938   4.986
49707SOL    HW151018   3.405   6.945   4.928
49707SOL    HW251019   3.325   7.023   5.029
49708SOL     OW51020   2.031   3.500  10.472
49708SOL    HW151021   1.953   3.488  10.526
49708SOL    HW251022   2.020   3.437  10.400
49709SOL     OW51023  11.828   4.996  13.007
49709SOL    HW151024  11.897   4.955  12.954
49709SOL    HW251025  11.792   5.065  12.950
49710SOL     OW51026  12.282   8.765  11.232
49710SOL    HW151027  12.241   8.680  11.215
49710SOL    HW251028  12.219   8.811  11.288
49711SOL     OW51029   8.757   5.044   4.716
49711SOL    HW151030   8.717   5.124   4.683
49711SOL    HW251031   8.769   4.989   4.639
49712SOL     OW51032  12.417  11.912   8.982
49712SOL    HW151033  12.379  11.930   9.067
49712SOL    HW251034  12.356  11.951   8.919
49713SOL     OW51035   5.974  12.333   5.526
49713SOL    HW151036   6.059  12.377   5.524
49713SOL    HW251037   5.995  12.240   5.518
49714SOL     OW51038  10.537   6.972   0.890
49714SOL    HW151039  10.460   6.935   0.847
49714SOL    HW251040  10.534   7.065   0.870
49715SOL     OW51041   7.646   9.718   2.191
49715SOL    HW151042   7.636   9.812   2.205
49715SOL    HW251043   7.578   9.679   2.246
49716SOL     OW51044  11.711   7.414   4.793
49716SOL    HW151045  11.790   7.380   4.752
49716SOL    HW251046  11.677   7.478   4.731
49717SOL     OW51047  12.277  12.034   9.586
49717SOL    HW151048  12.366  12.001   9.568
49717SOL    HW251049  12.274  12.119   9.542
49718SOL     OW51050  14.222   2.267   2.730
49718SOL    HW151051  14.164   2.251   2.656
49718SOL    HW251052  14.169   2.315   2.793
49719SOL     OW51053  11.879   0.768  10.308
49719SOL    HW151054  11.801   0.712  10.302
49719SOL    HW251055  11.893   0.779  10.402
49720SOL     OW51056  10.559  13.765   3.537
49720SOL    HW151057  10.622  13.826   3.497
49720SOL    HW251058  10.584  13.763   3.629
49721SOL     OW51059   3.132   1.424   7.793
49721SOL    HW151060   3.200   1.469   7.744
49721SOL    HW251061   3.152   1.443   7.885
49722SOL     OW51062   2.035   2.012   1.200
49722SOL    HW151063   2.095   2.086   1.202
49722SOL    HW251064   1.948   2.051   1.196
49723SOL     OW51065   9.371   1.226   4.736
49723SOL    HW151066   9.409   1.294   4.792
49723SOL    HW251067   9.280   1.220   4.766
49724SOL     OW51068   0.688   2.017   7.747
49724SOL    HW151069   0.759   2.065   7.706
49724SOL    HW251070   0.730   1.965   7.816
49725SOL     OW51071   8.243   4.973   5.197
49725SOL    HW151072   8.229   5.057   5.152
49725SOL    HW251073   8.230   4.994   5.289
49726SOL     OW51074   7.520   4.140   8.035
49726SOL    HW151075   7.492   4.167   7.948
49726SOL    HW251076   7.439   4.125   8.083
49727SOL     OW51077   3.109  11.270   4.267
49727SOL    HW151078   3.161  11.306   4.339
49727SOL    HW251079   3.023  11.253   4.306
49728SOL     OW51080   2.691   1.913  11.279
49728SOL    HW151081   2.623   1.980  11.289
49728SOL    HW251082   2.773   1.962  11.281
49729SOL     OW51083   0.376   2.553   7.008
49729SOL    HW151084   0.287   2.529   6.985
49729SOL    HW251085   0.421   2.469   7.019
49730SOL     OW51086  11.436   3.766  13.777
49730SOL    HW151087  11.452   3.689  13.723
49730SOL    HW251088  11.340   3.774  13.780
49731SOL     OW51089  12.738   7.442  10.451
49731SOL    HW151090  12.681   7.490  10.391
49731SOL    HW251091  12.810   7.503  10.470
49732SOL     OW51092   2.237  10.213  13.573
49732SOL    HW151093   2.211  10.243  13.660
49732SOL    HW251094   2.214  10.120  13.573
49733SOL     OW51095  13.561   7.597   4.316
49733SOL    HW151096  13.643   7.574   4.359
49733SOL    HW251097  13.538   7.519   4.265
49734SOL     OW51098   7.545   1.637   8.294
49734SOL    HW151099   7.557   1.672   8.382
49734SOL    HW251100   7.480   1.567   8.305
49735SOL     OW51101   9.844  13.540  12.938
49735SOL    HW151102   9.909  13.470  12.940
49735SOL    HW251103   9.891  13.618  12.968
49736SOL     OW51104   1.780   7.671   1.867
49736SOL    HW151105   1.745   7.591   1.905
49736SOL    HW251106   1.866   7.646   1.832
49737SOL     OW51107   2.519   3.865  12.087
49737SOL    HW151108   2.503   3.956  12.113
49737SOL    HW251109   2.446   3.816  12.124
49738SOL     OW51110  14.759  14.730   4.589
49738SOL    HW151111  14.714  14.653   4.554
49738SOL    HW251112  14.807  14.696   4.665
49739SOL     OW51113  14.525   3.054   3.679
49739SOL    HW151114  14.467   3.071   3.753
49739SOL    HW251115  14.468   3.017   3.611
49740SOL     OW51116   4.845   9.735   7.899
49740SOL    HW151117   4.760   9.747   7.940
49740SOL    HW251118   4.827   9.684   7.820
49741SOL     OW51119  12.713  11.914  10.284
49741SOL    HW151120  12.797  11.880  10.315
49741SOL    HW251121  12.695  11.989  10.340
49742SOL     OW51122  13.372   6.358   2.626
49742SOL    HW151123  13.286   6.363   2.586
49742SOL    HW251124  13.368   6.280   2.682
49743SOL     OW51125   1.759  12.120   4.993
49743SOL    HW151126   1.819  12.126   5.067
49743SOL    HW251127   1.811  12.080   4.923
49744SOL     OW51128   7.823  11.228   4.704
49744SOL    HW151129   7.754  11.255   4.643
49744SOL    HW251130   7.823  11.133   4.699
49745SOL     OW51131   6.843   4.037  10.878
49745SOL    HW151132   6.803   3.959  10.840
49745SOL    HW251133   6.891   4.077  10.806
49746SOL     OW51134   9.104  13.294   2.833
49746SOL    HW151135   9.075  13.377   2.870
49746SOL    HW251136   9.170  13.318   2.768
49747SOL     OW51137   6.044  12.856  10.857
49747SOL    HW151138   6.096  12.776  10.854
49747SOL    HW251139   5.971  12.835  10.916
49748SOL     OW51140   2.858  12.269   8.512
49748SOL    HW151141   2.856  12.358   8.478
49748SOL    HW251142   2.847  12.213   8.434
49749SOL     OW51143  12.100   3.166   7.198
49749SOL    HW151144  12.111   3.133   7.287
49749SOL    HW251145  12.020   3.123   7.166
49750SOL     OW51146   1.625   7.235  12.758
49750SOL    HW151147   1.574   7.272  12.686
49750SOL    HW251148   1.710   7.279  12.752
49751SOL     OW51149   4.824  11.240  11.371
49751SOL    HW151150   4.892  11.172  11.367
49751SOL    HW251151   4.873  11.322  11.370
49752SOL     OW51152   8.340   1.385   5.648
49752SOL    HW151153   8.280   1.335   5.705
49752SOL    HW251154   8.388   1.442   5.708
49753SOL     OW51155   5.368  10.891   1.616
49753SOL    HW151156   5.349  10.918   1.526
49753SOL    HW251157   5.452  10.845   1.610
49754SOL     OW51158   9.816  10.196   6.291
49754SOL    HW151159   9.871  10.117   6.299
49754SOL    HW251160   9.818  10.217   6.198
49755SOL     OW51161  10.634  12.516  11.343
49755SOL    HW151162  10.702  12.580  11.363
49755SOL    HW251163  10.681  12.433  11.332
49756SOL     OW51164  12.840  13.376  12.804
49756SOL    HW151165  12.748  13.404  12.801
49756SOL    HW251166  12.890  13.457  12.809
49757SOL     OW51167  14.494  13.305   6.807
49757SOL    HW151168  14.561  13.249   6.768
49757SOL    HW251169  14.413  13.279   6.765
49758SOL     OW51170   0.862   7.983   6.870
49758SOL    HW151171   0.945   7.945   6.900
49758SOL    HW251172   0.888   8.048   6.805
49759SOL     OW51173   1.374   3.118  12.694
49759SOL    HW151174   1.339   3.203  12.667
49759SOL    HW251175   1.397   3.075  12.612
49760SOL     OW51176   8.805  13.377   1.586
49760SOL    HW151177   8.898  13.374   1.611
49760SOL    HW251178   8.761  13.419   1.659
49761SOL     OW51179   0.389  11.749   8.006
49761SOL    HW151180   0.416  11.807   8.077
49761SOL    HW251181   0.420  11.791   7.926
49762SOL     OW51182   6.831   4.042   8.353
49762SOL    HW151183   6.779   3.984   8.297
49762SOL    HW251184   6.811   4.014   8.442
49763SOL     OW51185  13.056   2.163  14.492
49763SOL    HW151186  12.988   2.106  14.528
49763SOL    HW251187  13.050   2.151  14.398
49764SOL     OW51188   3.452  10.271   6.606
49764SOL    HW151189   3.443  10.251   6.513
49764SOL    HW251190   3.431  10.365   6.612
49765SOL     OW51191   3.559  14.079   2.328
49765SOL    HW151192   3.547  14.161   2.376
49765SOL    HW251193   3.481  14.072   2.272
49766SOL     OW51194   4.801  10.105   5.652
49766SOL    HW151195   4.787  10.198   5.672
49766SOL    HW251196   4.837  10.105   5.564
49767SOL     OW51197  10.098   0.788   7.090
49767SOL    HW151198  10.158   0.797   7.164
49767SOL    HW251199  10.140   0.835   7.018
49768SOL     OW51200  11.592  11.898   7.087
49768SOL    HW151201  11.675  11.932   7.055
49768SOL    HW251202  11.594  11.805   7.064
49769SOL     OW51203  10.717   6.530  13.680
49769SOL    HW151204  10.776   6.473  13.729
49769SOL    HW251205  10.700   6.483  13.598
49770SOL     OW51206   3.338   0.549   3.362
49770SOL    HW151207   3.350   0.605   3.438
49770SOL    HW251208   3.288   0.474   3.394
49771SOL     OW51209   5.849   9.046  14.136
49771SOL    HW151210   5.880   8.970  14.085
49771SOL    HW251211   5.921   9.108  14.132
49772SOL     OW51212   9.670   7.062   1.714
49772SOL    HW151213   9.714   6.981   1.739
49772SOL    HW251214   9.581   7.036   1.693
49773SOL     OW51215  13.324  12.863   8.810
49773SOL    HW151216  13.287  12.788   8.856
49773SOL    HW251217  13.322  12.839   8.717
49774SOL     OW51218   7.037   5.286   0.304
49774SOL    HW151219   7.106   5.308   0.366
49774SOL    HW251220   6.994   5.209   0.342
49775SOL     OW51221   6.150   4.769  14.472
49775SOL    HW151222   6.172   4.853  14.513
49775SOL    HW251223   6.154   4.705  14.544
49776SOL     OW51224  13.858  10.058  13.891
49776SOL    HW151225  13.890  10.103  13.813
49776SOL    HW251226  13.866  10.122  13.961
49777SOL     OW51227  12.851  10.248   2.408
49777SOL    HW151228  12.758  10.224   2.413
49777SOL    HW251229  12.863  10.275   2.317
49778SOL     OW51230   0.699   5.006   5.345
49778SOL    HW151231   0.779   5.052   5.320
49778SOL    HW251232   0.628   5.064   5.318
49779SOL     OW51233   2.590  11.277  11.854
49779SOL    HW151234   2.528  11.347  11.874
49779SOL    HW251235   2.592  11.274  11.758
49780SOL     OW51236  12.549  11.137  10.046
49780SOL    HW151237  12.539  11.227  10.079
49780SOL    HW251238  12.613  11.097  10.105
49781SOL     OW51239   7.616   2.748  12.248
49781SOL    HW151240   7.583   2.765  12.335
49781SOL    HW251241   7.566   2.806  12.191
49782SOL     OW51242   0.932  10.114  10.243
49782SOL    HW151243   0.908  10.086  10.331
49782SOL    HW251244   0.921  10.209  10.244
49783SOL     OW51245  14.087   6.428   2.680
49783SOL    HW151246  14.092   6.397   2.770
49783SOL    HW251247  14.024   6.368   2.638
49784SOL     OW51248   0.722   3.839   0.661
49784SOL    HW151249   0.646   3.883   0.623
49784SOL    HW251250   0.752   3.897   0.731
49785SOL     OW51251   8.941   9.579   1.167
49785SOL    HW151252   8.987   9.638   1.107
49785SOL    HW251253   8.857   9.621   1.182
49786SOL     OW51254   5.063  13.269   1.686
49786SOL    HW151255   4.973  13.243   1.706
49786SOL    HW251256   5.068  13.360   1.715
49787SOL     OW51257   7.272  12.466  10.005
49787SOL    HW151258   7.187  12.508  10.018
49787SOL    HW251259   7.257  12.404   9.934
49788SOL     OW51260   8.490   3.554   1.217
49788SOL    HW151261   8.551   3.519   1.282
49788SOL    HW251262   8.435   3.615   1.267
49789SOL     OW51263   0.767   7.187   7.721
49789SOL    HW151264   0.795   7.211   7.810
49789SOL    HW251265   0.799   7.098   7.709
49790SOL     OW51266   6.758   4.425   7.924
49790SOL    HW151267   6.675   4.423   7.972
49790SOL    HW251268   6.802   4.344   7.948
49791SOL     OW51269  12.246   1.455  11.945
49791SOL    HW151270  12.275   1.540  11.911
49791SOL    HW251271  12.212   1.408  11.869
49792SOL     OW51272  11.693   5.695   2.079
49792SOL    HW151273  11.650   5.762   2.132
49792SOL    HW251274  11.649   5.699   1.994
49793SOL     OW51275   3.647   8.714   7.715
49793SOL    HW151276   3.713   8.693   7.649
49793SOL    HW251277   3.697   8.728   7.795
49794SOL     OW51278  11.968   6.407   5.009
49794SOL    HW151279  12.046   6.364   5.043
49794SOL    HW251280  11.997   6.449   4.928
49795SOL     OW51281  11.621   5.657  10.403
49795SOL    HW151282  11.682   5.730  10.407
49795SOL    HW251283  11.660   5.596  10.341
49796SOL     OW51284   8.609  10.319  11.382
49796SOL    HW151285   8.658  10.380  11.327
49796SOL    HW251286   8.668  10.299  11.455
49797SOL     OW51287   4.798  13.427   3.616
49797SOL    HW151288   4.863  13.482   3.660
49797SOL    HW251289   4.849  13.356   3.577
49798SOL     OW51290   0.074  12.569   1.728
49798SOL    HW151291   0.034  12.521   1.656
49798SOL    HW251292   0.048  12.521   1.806
49799SOL     OW51293  11.615   4.942   5.640
49799SOL    HW151294  11.528   4.908   5.618
49799SOL    HW251295  11.599   5.002   5.712
49800SOL     OW51296   4.223   0.480   9.622
49800SOL    HW151297   4.241   0.492   9.529
49800SOL    HW251298   4.192   0.390   9.629
49801SOL     OW51299  10.160  11.577   6.866
49801SOL    HW151300  10.132  11.504   6.810
49801SOL    HW251301  10.222  11.538   6.927
49802SOL     OW51302   3.355   3.466   7.279
49802SOL    HW151303   3.312   3.454   7.194
49802SOL    HW251304   3.431   3.408   7.275
49803SOL     OW51305  14.383   9.974   0.504
49803SOL    HW151306  14.332  10.032   0.448
49803SOL    HW251307  14.329   9.895   0.513
49804SOL     OW51308   9.913   2.357   0.730
49804SOL    HW151309   9.983   2.376   0.669
49804SOL    HW251310   9.884   2.443   0.762
49805SOL     OW51311  13.235  11.035   5.605
49805SOL    HW151312  13.241  11.102   5.673
49805SOL    HW251313  13.223  11.084   5.524
49806SOL     OW51314   2.463  14.669  13.796
49806SOL    HW151315   2.368  14.660  13.789
49806SOL    HW251316   2.483  14.637  13.884
49807SOL     OW51317   5.330   7.087   3.347
49807SOL    HW151318   5.312   7.174   3.310
49807SOL    HW251319   5.274   7.028   3.297
49808SOL     OW51320   1.495   5.713   8.519
49808SOL    HW151321   1.545   5.751   8.591
49808SOL    HW251322   1.404   5.727   8.543
49809SOL     OW51323   5.194  11.665   0.021
49809SOL    HW151324   5.122  11.722  14.877
49809SOL    HW251325   5.220  11.621  14.822
49810SOL     OW51326   2.929   7.651   1.379
49810SOL    HW151327   2.865   7.599   1.331
49810SOL    HW251328   2.931   7.736   1.334
49811SOL     OW51329   5.511  13.031   4.704
49811SOL    HW151330   5.424  13.038   4.665
49811SOL    HW251331   5.497  12.986   4.787
49812SOL     OW51332  10.510   3.661  12.185
49812SOL    HW151333  10.415   3.666  12.179
49812SOL    HW251334  10.540   3.664  12.094
49813SOL     OW51335   0.884  11.986   4.834
49813SOL    HW151336   0.794  11.997   4.802
49813SOL    HW251337   0.879  11.911   4.893
49814SOL     OW51338  11.821  13.939   8.141
49814SOL    HW151339  11.766  13.892   8.204
49814SOL    HW251340  11.897  13.882   8.129
49815SOL     OW51341   8.909   6.757   2.819
49815SOL    HW151342   8.832   6.711   2.852
49815SOL    HW251343   8.965   6.687   2.784
49816SOL     OW51344  13.330   6.312   0.509
49816SOL    HW151345  13.395   6.331   0.575
49816SOL    HW251346  13.324   6.391   0.456
49817SOL     OW51347  14.217   8.664   4.870
49817SOL    HW151348  14.288   8.709   4.916
49817SOL    HW251349  14.250   8.653   4.780
49818SOL     OW51350  12.558   5.907   8.331
49818SOL    HW151351  12.601   5.983   8.370
49818SOL    HW251352  12.603   5.832   8.368
49819SOL     OW51353  14.038  13.689   6.335
49819SOL    HW151354  14.104  13.728   6.278
49819SOL    HW251355  14.088  13.638   6.398
49820SOL     OW51356   9.425   7.935  11.436
49820SOL    HW151357   9.493   7.871  11.457
49820SOL    HW251358   9.419   7.990  11.514
49821SOL     OW51359   7.930   9.585   1.365
49821SOL    HW151360   7.981   9.649   1.415
49821SOL    HW251361   7.863   9.554   1.426
49822SOL     OW51362   0.538   0.064   1.686
49822SOL    HW151363   0.587   0.105   1.615
49822SOL    HW251364   0.595   0.072   1.762
49823SOL     OW51365   6.898  14.706   6.539
49823SOL    HW151366   6.816  14.674   6.501
49823SOL    HW251367   6.943  14.627   6.567
49824SOL     OW51368  13.810   2.355   0.869
49824SOL    HW151369  13.733   2.395   0.909
49824SOL    HW251370  13.881   2.417   0.889
49825SOL     OW51371  11.116  11.653   3.450
49825SOL    HW151372  11.056  11.590   3.410
49825SOL    HW251373  11.160  11.604   3.520
49826SOL     OW51374   0.895  10.692   7.912
49826SOL    HW151375   0.856  10.644   7.839
49826SOL    HW251376   0.858  10.650   7.990
49827SOL     OW51377   7.165   5.114   6.147
49827SOL    HW151378   7.176   5.065   6.066
49827SOL    HW251379   7.236   5.083   6.203
49828SOL     OW51380   6.685   8.994   4.181
49828SOL    HW151381   6.776   8.991   4.153
49828SOL    HW251382   6.679   8.929   4.250
49829SOL     OW51383  14.474  11.812  14.424
49829SOL    HW151384  14.515  11.884  14.473
49829SOL    HW251385  14.489  11.835  14.332
49830SOL     OW51386   1.337   0.683   3.847
49830SOL    HW151387   1.283   0.711   3.773
49830SOL    HW251388   1.424   0.669   3.810
49831SOL     OW51389  11.853   4.056  12.934
49831SOL    HW151390  11.916   4.057  12.862
49831SOL    HW251391  11.776   4.013  12.897
49832SOL     OW51392   5.243  14.390   8.867
49832SOL    HW151393   5.195  14.401   8.949
49832SOL    HW251394   5.335  14.382   8.894
49833SOL     OW51395   2.749   6.001   5.564
49833SOL    HW151396   2.704   5.920   5.538
49833SOL    HW251397   2.819   5.971   5.622
49834SOL     OW51398   7.501   0.876   3.536
49834SOL    HW151399   7.520   0.964   3.505
49834SOL    HW251400   7.571   0.856   3.598
49835SOL     OW51401  12.567   5.518  14.786
49835SOL    HW151402  12.588   5.595  14.732
49835SOL    HW251403  12.481   5.538  14.823
49836SOL     OW51404   3.705  10.117   1.121
49836SOL    HW151405   3.762  10.075   1.057
49836SOL    HW251406   3.727  10.075   1.204
49837SOL     OW51407   5.153   0.405   3.481
49837SOL    HW151408   5.196   0.472   3.535
49837SOL    HW251409   5.091   0.363   3.541
49838SOL     OW51410   9.695   2.826  13.168
49838SOL    HW151411   9.668   2.816  13.076
49838SOL    HW251412   9.784   2.791  13.171
49839SOL     OW51413  14.351   7.573  12.863
49839SOL    HW151414  14.315   7.592  12.776
49839SOL    HW251415  14.446   7.581  12.852
49840SOL     OW51416  11.029   6.349   5.993
49840SOL    HW151417  11.116   6.318   6.019
49840SOL    HW251418  11.020   6.434   6.035
49841SOL     OW51419  12.273   6.789   0.271
49841SOL    HW151420  12.225   6.869   0.250
49841SOL    HW251421  12.247   6.769   0.361
49842SOL     OW51422  14.444   7.613   9.801
49842SOL    HW151423  14.460   7.683   9.738
49842SOL    HW251424  14.430   7.658   9.885
49843SOL     OW51425   0.219   2.940   3.620
49843SOL    HW151426   0.235   2.999   3.547
49843SOL    HW251427   0.294   2.953   3.678
49844SOL     OW51428   2.758   8.278   0.624
49844SOL    HW151429   2.713   8.239   0.699
49844SOL    HW251430   2.753   8.373   0.641
49845SOL     OW51431   5.297   8.014  11.233
49845SOL    HW151432   5.269   8.103  11.255
49845SOL    HW251433   5.365   8.025  11.167
49846SOL     OW51434  14.589  11.189  13.907
49846SOL    HW151435  14.668  11.137  13.889
49846SOL    HW251436  14.619  11.256  13.969
49847SOL     OW51437   6.359   4.695   4.820
49847SOL    HW151438   6.405   4.693   4.904
49847SOL    HW251439   6.378   4.610   4.781
49848SOL     OW51440  10.491  12.196   6.423
49848SOL    HW151441  10.404  12.231   6.403
49848SOL    HW251442  10.487  12.104   6.394
49849SOL     OW51443  11.563  12.449   6.895
49849SOL    HW151444  11.583  12.361   6.863
49849SOL    HW251445  11.470  12.445   6.918
49850SOL     OW51446   2.389   5.121   0.663
49850SOL    HW151447   2.435   5.167   0.733
49850SOL    HW251448   2.320   5.182   0.636
49851SOL     OW51449  13.372  14.216   8.064
49851SOL    HW151450  13.466  14.233   8.056
49851SOL    HW251451  13.352  14.161   7.988
49852SOL     OW51452   3.626  12.474   9.958
49852SOL    HW151453   3.676  12.394   9.974
49852SOL    HW251454   3.684  12.545   9.986
49853SOL     OW51455  14.518  12.762  10.899
49853SOL    HW151456  14.494  12.820  10.971
49853SOL    HW251457  14.475  12.800  10.822
49854SOL     OW51458   4.978   4.708  14.050
49854SOL    HW151459   5.051   4.771  14.053
49854SOL    HW251460   5.016   4.626  14.081
49855SOL     OW51461   7.727   7.171   9.134
49855SOL    HW151462   7.684   7.209   9.210
49855SOL    HW251463   7.759   7.247   9.084
49856SOL     OW51464   6.893   7.946   3.785
49856SOL    HW151465   6.848   7.869   3.751
49856SOL    HW251466   6.929   7.917   3.869
49857SOL     OW51467   9.910   4.643  13.354
49857SOL    HW151468   9.952   4.721  13.317
49857SOL    HW251469   9.876   4.673  13.438
49858SOL     OW51470   3.604  14.091  12.419
49858SOL    HW151471   3.596  14.007  12.373
49858SOL    HW251472   3.696  14.095  12.445
49859SOL     OW51473   4.539  14.113   6.825
49859SOL    HW151474   4.498  14.038   6.782
49859SOL    HW251475   4.629  14.112   6.793
49860SOL     OW51476   1.827  12.704   6.394
49860SOL    HW151477   1.895  12.725   6.330
49860SOL    HW251478   1.749  12.688   6.342
49861SOL     OW51479   8.690   9.933  11.391
49861SOL    HW151480   8.748   9.996  11.347
49861SOL    HW251481   8.623   9.987  11.433
49862SOL     OW51482   9.065   8.056  10.622
49862SOL    HW151483   9.063   8.031  10.529
49862SOL    HW251484   9.033   8.147  10.622
49863SOL     OW51485   1.498   3.864   4.710
49863SOL    HW151486   1.590   3.864   4.684
49863SOL    HW251487   1.470   3.955   4.699
49864SOL     OW51488   5.183  10.144  12.769
49864SOL    HW151489   5.215  10.159  12.680
49864SOL    HW251490   5.257  10.165  12.825
49865SOL     OW51491  12.644   3.791   4.536
49865SOL    HW151492  12.637   3.872   4.586
49865SOL    HW251493  12.592   3.807   4.457
49866SOL     OW51494  10.697   9.892   3.339
49866SOL    HW151495  10.625   9.843   3.377
49866SOL    HW251496  10.667   9.983   3.341
49867SOL     OW51497  12.910  13.439  13.150
49867SOL    HW151498  12.827  13.404  13.183
49867SOL    HW251499  12.935  13.505  13.214
49868SOL     OW51500   0.011   8.034   7.901
49868SOL    HW151501   0.045   8.016   7.988
49868SOL    HW251502   0.049   7.965   7.846
49869SOL     OW51503   9.789  12.610   3.121
49869SOL    HW151504   9.787  12.588   3.028
49869SOL    HW251505   9.737  12.542   3.164
49870SOL     OW51506   9.527   4.142  11.635
49870SOL    HW151507   9.520   4.190  11.717
49870SOL    HW251508   9.437   4.136  11.603
49871SOL     OW51509   3.056  14.466   7.002
49871SOL    HW151510   3.027  14.426   7.084
49871SOL    HW251511   3.142  14.427   6.985
49872SOL     OW51512   9.519   6.415  13.887
49872SOL    HW151513   9.580   6.484  13.863
49872SOL    HW251514   9.558   6.375  13.965
49873SOL     OW51515  13.721   7.328   8.316
49873SOL    HW151516  13.646   7.306   8.260
49873SOL    HW251517  13.778   7.251   8.311
49874SOL     OW51518  12.402   7.557  14.785
49874SOL    HW151519  12.439   7.641  14.813
49874SOL    HW251520  12.387   7.509  14.867
49875SOL     OW51521  10.623  14.597   2.451
49875SOL    HW151522  10.584  14.665   2.397
49875SOL    HW251523  10.709  14.630   2.475
49876SOL     OW51524   5.212  10.041   2.420
49876SOL    HW151525   5.228  10.131   2.448
49876SOL    HW251526   5.151  10.049   2.347
49877SOL     OW51527   6.706   9.709   7.860
49877SOL    HW151528   6.721   9.736   7.770
49877SOL    HW251529   6.643   9.772   7.894
49878SOL     OW51530   6.868   8.353  13.792
49878SOL    HW151531   6.783   8.355  13.837
49878SOL    HW251532   6.932   8.360  13.863
49879SOL     OW51533   0.436   2.425  10.531
49879SOL    HW151534   0.366   2.442  10.594
49879SOL    HW251535   0.391   2.398  10.451
49880SOL     OW51536   4.208   8.599   8.865
49880SOL    HW151537   4.202   8.511   8.828
49880SOL    HW251538   4.266   8.590   8.940
49881SOL     OW51539  10.297   1.741   2.287
49881SOL    HW151540  10.345   1.734   2.369
49881SOL    HW251541  10.312   1.831   2.258
49882SOL     OW51542   7.891   4.966   7.194
49882SOL    HW151543   7.902   5.029   7.265
49882SOL    HW251544   7.865   5.018   7.119
49883SOL     OW51545   6.897   9.553   2.528
49883SOL    HW151546   6.832   9.603   2.478
49883SOL    HW251547   6.925   9.484   2.468
49884SOL     OW51548   5.079   7.000   6.457
49884SOL    HW151549   5.161   6.955   6.477
49884SOL    HW251550   5.089   7.087   6.496
49885SOL     OW51551  11.292  13.480   7.799
49885SOL    HW151552  11.287  13.477   7.704
49885SOL    HW251553  11.232  13.412   7.829
49886SOL     OW51554  14.337   5.779   5.658
49886SOL    HW151555  14.242   5.782   5.652
49886SOL    HW251556  14.358   5.819   5.742
49887SOL     OW51557   8.084  14.173   7.612
49887SOL    HW151558   8.157  14.163   7.673
49887SOL    HW251559   8.098  14.104   7.547
49888SOL     OW51560  14.846  10.075   7.760
49888SOL    HW151561  14.873   9.991   7.722
49888SOL    HW251562  14.876  10.071   7.851
49889SOL     OW51563   8.042  13.709   4.777
49889SOL    HW151564   8.126  13.684   4.815
49889SOL    HW251565   8.013  13.784   4.829
49890SOL     OW51566   5.636  13.682   0.070
49890SOL    HW151567   5.555  13.636   0.049
49890SOL    HW251568   5.682  13.687  14.868
49891SOL     OW51569  12.745  12.225  14.714
49891SOL    HW151570  12.794  12.273  14.780
49891SOL    HW251571  12.798  12.235  14.634
49892SOL     OW51572  10.456   4.537   5.199
49892SOL    HW151573  10.497   4.619   5.170
49892SOL    HW251574  10.505   4.468   5.154
49893SOL     OW51575   4.280   4.683   1.358
49893SOL    HW151576   4.227   4.698   1.436
49893SOL    HW251577   4.224   4.709   1.285
49894SOL     OW51578   4.894   6.637   3.177
49894SOL    HW151579   4.860   6.717   3.217
49894SOL    HW251580   4.822   6.605   3.122
49895SOL     OW51581  13.596  14.491   0.106
49895SOL    HW151582  13.574  14.584   0.109
49895SOL    HW251583  13.570  14.463   0.019
49896SOL     OW51584   9.214   6.582   0.533
49896SOL    HW151585   9.253   6.667   0.551
49896SOL    HW251586   9.243   6.560   0.444
49897SOL     OW51587   4.118  10.248   3.624
49897SOL    HW151588   4.176  10.311   3.581
49897SOL    HW251589   4.135  10.166   3.578
49898SOL     OW51590   7.388  13.537   9.133
49898SOL    HW151591   7.375  13.544   9.038
49898SOL    HW251592   7.479  13.564   9.146
49899SOL     OW51593  12.781   0.309   3.455
49899SOL    HW151594  12.831   0.258   3.518
49899SOL    HW251595  12.751   0.244   3.391
49900SOL     OW51596  14.539  10.444   4.287
49900SOL    HW151597  14.521  10.387   4.361
49900SOL    HW251598  14.549  10.385   4.213
49901SOL     OW51599  13.967   4.528  13.768
49901SOL    HW151600  13.873   4.512  13.759
49901SOL    HW251601  14.005   4.441  13.777
49902SOL     OW51602   1.125  14.321   9.071
49902SOL    HW151603   1.032  14.308   9.050
49902SOL    HW251604   1.168  14.242   9.040
49903SOL     OW51605   3.454  13.627   9.442
49903SOL    HW151606   3.392  13.557   9.461
49903SOL    HW251607   3.419  13.703   9.489
49904SOL     OW51608  10.743   7.040   6.035
49904SOL    HW151609  10.759   6.949   6.059
49904SOL    HW251610  10.694   7.035   5.953
49905SOL     OW51611   9.637   8.295   0.374
49905SOL    HW151612   9.676   8.348   0.444
49905SOL    HW251613   9.560   8.255   0.413
49906SOL     OW51614  12.348  13.586   2.225
49906SOL    HW151615  12.264  13.628   2.209
49906SOL    HW251616  12.329  13.521   2.293
49907SOL     OW51617  10.883  11.729   2.703
49907SOL    HW151618  10.883  11.824   2.699
49907SOL    HW251619  10.828  11.701   2.630
49908SOL     OW51620   7.749  10.212   1.617
49908SOL    HW151621   7.783  10.234   1.703
49908SOL    HW251622   7.736  10.117   1.620
49909SOL     OW51623   6.287   0.152  12.380
49909SOL    HW151624   6.343   0.195  12.445
49909SOL    HW251625   6.327   0.065  12.368
49910SOL     OW51626   8.516  12.091  13.521
49910SOL    HW151627   8.522  12.175  13.475
49910SOL    HW251628   8.547  12.109  13.609
49911SOL     OW51629   3.337  12.076   8.180
49911SOL    HW151630   3.406  12.041   8.123
49911SOL    HW251631   3.380  12.146   8.230
49912SOL     OW51632   2.887   5.069  11.314
49912SOL    HW151633   2.850   5.100  11.397
49912SOL    HW251634   2.980   5.091  11.319
49913SOL     OW51635  11.058   9.765  14.720
49913SOL    HW151636  11.080   9.835  14.659
49913SOL    HW251637  11.127   9.768  14.786
49914SOL     OW51638   0.572  10.627   9.331
49914SOL    HW151639   0.590  10.626   9.425
49914SOL    HW251640   0.633  10.692   9.296
49915SOL     OW51641   0.253   7.265   5.476
49915SOL    HW151642   0.346   7.287   5.482
49915SOL    HW251643   0.234   7.265   5.382
49916SOL     OW51644   8.612   6.532  14.372
49916SOL    HW151645   8.651   6.619  14.374
49916SOL    HW251646   8.587   6.519  14.281
49917SOL     OW51647   7.545  10.147   3.769
49917SOL    HW151648   7.495  10.207   3.714
49917SOL    HW251649   7.487  10.129   3.843
49918SOL     OW51650  12.285   0.173   9.332
49918SOL    HW151651  12.295   0.260   9.293
49918SOL    HW251652  12.337   0.116   9.276
49919SOL     OW51653   9.495   1.006  12.514
49919SOL    HW151654   9.545   1.040  12.440
49919SOL    HW251655   9.557   0.955  12.565
49920SOL     OW51656  12.690  10.244   8.577
49920SOL    HW151657  12.767  10.189   8.586
49920SOL    HW251658  12.644  10.236   8.661
49921SOL     OW51659   6.011   9.883   3.273
49921SOL    HW151660   6.041   9.964   3.232
49921SOL    HW251661   6.060   9.877   3.354
49922SOL     OW51662   3.183   1.849   6.114
49922SOL    HW151663   3.163   1.762   6.149
49922SOL    HW251664   3.111   1.904   6.146
49923SOL     OW51665  10.146   2.319   2.001
49923SOL    HW151666  10.079   2.301   1.934
49923SOL    HW251667  10.224   2.274   1.969
49924SOL     OW51668   8.200   2.563   8.860
49924SOL    HW151669   8.266   2.523   8.917
49924SOL    HW251670   8.142   2.490   8.838
49925SOL     OW51671   0.073   6.330  12.973
49925SOL    HW151672   0.141   6.286  12.921
49925SOL    HW251673  14.879   6.273  12.965
49926SOL     OW51674   4.402   3.610   1.689
49926SOL    HW151675   4.314   3.644   1.670
49926SOL    HW251676   4.406   3.604   1.784
49927SOL     OW51677   4.838   9.849   3.106
49927SOL    HW151678   4.889   9.772   3.129
49927SOL    HW251679   4.901   9.921   3.109
49928SOL     OW51680   6.525   6.252   3.971
49928SOL    HW151681   6.577   6.171   3.965
49928SOL    HW251682   6.435   6.221   3.974
49929SOL     OW51683  12.800   8.761   8.446
49929SOL    HW151684  12.739   8.738   8.375
49929SOL    HW251685  12.753   8.740   8.526
49930SOL     OW51686   4.217  14.003   7.326
49930SOL    HW151687   4.217  14.018   7.231
49930SOL    HW251688   4.298  14.045   7.356
49931SOL     OW51689   7.213   2.891   2.441
49931SOL    HW151690   7.143   2.942   2.479
49931SOL    HW251691   7.257   2.951   2.380
49932SOL     OW51692  14.297  11.312   8.941
49932SOL    HW151693  14.294  11.220   8.914
49932SOL    HW251694  14.319  11.309   9.034
49933SOL     OW51695  11.834  12.427   5.349
49933SOL    HW151696  11.786  12.462   5.275
49933SOL    HW251697  11.792  12.466   5.426
49934SOL     OW51698   7.947   5.288   1.208
49934SOL    HW151699   7.994   5.352   1.260
49934SOL    HW251700   7.866   5.272   1.258
49935SOL     OW51701   1.763   9.500   9.588
49935SOL    HW151702   1.827   9.471   9.522
49935SOL    HW251703   1.678   9.490   9.544
49936SOL     OW51704   4.743   0.195   2.892
49936SOL    HW151705   4.753   0.254   2.967
49936SOL    HW251706   4.818   0.214   2.836
49937SOL     OW51707   6.007   0.731   6.766
49937SOL    HW151708   5.990   0.763   6.855
49937SOL    HW251709   6.067   0.796   6.728
49938SOL     OW51710  12.534   4.843  14.870
49938SOL    HW151711  12.541   4.877  14.781
49938SOL    HW251712  12.449   4.874   0.019
49939SOL     OW51713   4.013   4.712   5.810
49939SOL    HW151714   4.008   4.648   5.881
49939SOL    HW251715   3.933   4.698   5.759
49940SOL     OW51716  13.061   2.458  13.686
49940SOL    HW151717  12.978   2.411  13.688
49940SOL    HW251718  13.077   2.476  13.594
49941SOL     OW51719   5.629   8.546   7.598
49941SOL    HW151720   5.585   8.467   7.629
49941SOL    HW251721   5.557   8.604   7.573
49942SOL     OW51722   8.585  13.264  11.243
49942SOL    HW151723   8.505  13.230  11.205
49942SOL    HW251724   8.558  13.309  11.323
49943SOL     OW51725   7.777   2.749   9.519
49943SOL    HW151726   7.711   2.788   9.576
49943SOL    HW251727   7.740   2.665   9.492
49944SOL     OW51728  10.476  12.694   3.607
49944SOL    HW151729  10.481  12.683   3.512
49944SOL    HW251730  10.399  12.750   3.620
49945SOL     OW51731   1.230   0.895   1.718
49945SOL    HW151732   1.153   0.939   1.681
49945SOL    HW251733   1.304   0.951   1.693
49946SOL     OW51734  14.122   9.523  14.421
49946SOL    HW151735  14.071   9.446  14.444
49946SOL    HW251736  14.096   9.542  14.331
49947SOL     OW51737  11.368   5.356  13.578
49947SOL    HW151738  11.412   5.306  13.509
49947SOL    HW251739  11.326   5.289  13.632
49948SOL     OW51740   6.690  10.949  12.102
49948SOL    HW151741   6.635  10.879  12.067
49948SOL    HW251742   6.742  10.907  12.171
49949SOL     OW51743  11.116   4.046  13.480
49949SOL    HW151744  11.196   3.997  13.499
49949SOL    HW251745  11.052   3.980  13.455
49950SOL     OW51746   1.861  10.231  14.811
49950SOL    HW151747   1.924  10.251  14.741
49950SOL    HW251748   1.892  10.283   0.004
49951SOL     OW51749  11.641   7.103  13.762
49951SOL    HW151750  11.568   7.041  13.766
49951SOL    HW251751  11.695   7.071  13.690
49952SOL     OW51752   8.379   7.884   4.657
49952SOL    HW151753   8.451   7.833   4.694
49952SOL    HW251754   8.365   7.955   4.720
49953SOL     OW51755   7.087  10.764  12.616
49953SOL    HW151756   6.994  10.773  12.595
49953SOL    HW251757   7.131  10.821  12.554
49954SOL     OW51758  14.422   1.241  10.793
49954SOL    HW151759  14.492   1.270  10.735
49954SOL    HW251760  14.414   1.147  10.776
49955SOL     OW51761  13.279   5.023   9.603
49955SOL    HW151762  13.260   5.108   9.564
49955SOL    HW251763  13.208   4.966   9.572
49956SOL     OW51764   0.405  10.958  14.052
49956SOL    HW151765   0.391  11.022  13.982
49956SOL    HW251766   0.320  10.952  14.095
49957SOL     OW51767  10.598   9.207   3.325
49957SOL    HW151768  10.640   9.280   3.370
49957SOL    HW251769  10.567   9.150   3.395
49958SOL     OW51770   9.688   9.125   1.550
49958SOL    HW151771   9.650   9.212   1.537
49958SOL    HW251772   9.726   9.103   1.465
49959SOL     OW51773   1.001  14.789   1.395
49959SOL    HW151774   1.047  14.708   1.373
49959SOL    HW251775   0.934  14.798   1.327
49960SOL     OW51776   2.113  13.222   3.471
49960SOL    HW151777   2.178  13.227   3.541
49960SOL    HW251778   2.139  13.146   3.419
49961SOL     OW51779   1.508   2.239   6.045
49961SOL    HW151780   1.498   2.144   6.040
49961SOL    HW251781   1.518   2.267   5.954
49962SOL     OW51782   1.949   8.024  12.425
49962SOL    HW151783   1.888   8.037  12.352
49962SOL    HW251784   1.947   8.106  12.473
49963SOL     OW51785  11.829   6.010   4.541
49963SOL    HW151786  11.792   5.933   4.497
49963SOL    HW251787  11.827   6.079   4.475
49964SOL     OW51788   8.886  13.143   0.498
49964SOL    HW151789   8.856  13.227   0.532
49964SOL    HW251790   8.860  13.079   0.565
49965SOL     OW51791   7.699  14.030  13.078
49965SOL    HW151792   7.708  14.125  13.086
49965SOL    HW251793   7.636  14.006  13.146
49966SOL     OW51794  12.160  12.366  13.151
49966SOL    HW151795  12.164  12.306  13.226
49966SOL    HW251796  12.118  12.315  13.082
49967SOL     OW51797   2.491   8.951   3.942
49967SOL    HW151798   2.434   8.891   3.991
49967SOL    HW251799   2.434   9.025   3.920
49968SOL     OW51800   3.011   6.913   3.140
49968SOL    HW151801   2.980   6.831   3.179
49968SOL    HW251802   2.948   6.979   3.170
49969SOL     OW51803   9.470  14.463   5.880
49969SOL    HW151804   9.466  14.438   5.972
49969SOL    HW251805   9.481  14.558   5.881
49970SOL     OW51806   1.090  11.713   8.548
49970SOL    HW151807   1.084  11.640   8.487
49970SOL    HW251808   1.006  11.712   8.595
49971SOL     OW51809  13.738   4.506   9.461
49971SOL    HW151810  13.673   4.484   9.394
49971SOL    HW251811  13.798   4.567   9.418
49972SOL     OW51812   3.166  12.709   5.631
49972SOL    HW151813   3.181  12.615   5.639
49972SOL    HW251814   3.254  12.748   5.636
49973SOL     OW51815   5.090   1.303   5.724
49973SOL    HW151816   5.065   1.249   5.800
49973SOL    HW251817   5.024   1.284   5.658
49974SOL     OW51818   9.993   3.521   3.298
49974SOL    HW151819  10.042   3.488   3.374
49974SOL    HW251820   9.976   3.444   3.245
49975SOL     OW51821   4.259   8.163  11.771
49975SOL    HW151822   4.171   8.200  11.766
49975SOL    HW251823   4.318   8.236  11.753
49976SOL     OW51824  11.357   5.384   1.123
49976SOL    HW151825  11.356   5.362   1.216
49976SOL    HW251826  11.289   5.451   1.114
49977SOL     OW51827   5.661  12.757   2.509
49977SOL    HW151828   5.665  12.753   2.414
49977SOL    HW251829   5.744  12.797   2.536
49978SOL     OW51830   6.996   7.043   5.514
49978SOL    HW151831   6.948   7.110   5.563
49978SOL    HW251832   7.087   7.056   5.539
49979SOL     OW51833   4.296  13.946   2.804
49979SOL    HW151834   4.375  13.893   2.796
49979SOL    HW251835   4.244  13.902   2.871
49980SOL     OW51836   0.908   1.755   7.640
49980SOL    HW151837   0.894   1.720   7.728
49980SOL    HW251838   1.002   1.776   7.637
49981SOL     OW51839  14.824   8.348  13.467
49981SOL    HW151840  14.732   8.334  13.446
49981SOL    HW251841  14.824   8.378  13.558
49982SOL     OW51842   5.319  12.085   1.160
49982SOL    HW151843   5.248  12.145   1.138
49982SOL    HW251844   5.385  12.141   1.202
49983SOL     OW51845  10.857   8.661   1.004
49983SOL    HW151846  10.876   8.661   1.098
49983SOL    HW251847  10.897   8.580   0.972
49984SOL     OW51848   0.489  12.107   3.616
49984SOL    HW151849   0.413  12.139   3.664
49984SOL    HW251850   0.458  12.096   3.526
49985SOL     OW51851   7.912  13.565  11.746
49985SOL    HW151852   7.974  13.538  11.678
49985SOL    HW251853   7.942  13.652  11.772
49986SOL     OW51854   9.947  10.208   9.231
49986SOL    HW151855   9.932  10.301   9.218
49986SOL    HW251856   9.911  10.191   9.319
49987SOL     OW51857  11.979  12.498   8.466
49987SOL    HW151858  11.915  12.501   8.538
49987SOL    HW251859  12.064  12.507   8.510
49988SOL     OW51860   6.397   1.066   4.705
49988SOL    HW151861   6.458   1.010   4.754
49988SOL    HW251862   6.362   1.009   4.637
49989SOL     OW51863   5.303  12.486   5.422
49989SOL    HW151864   5.246  12.443   5.359
49989SOL    HW251865   5.243  12.516   5.491
49990SOL     OW51866   3.837   9.731   1.650
49990SOL    HW151867   3.788   9.649   1.645
49990SOL    HW251868   3.818   9.775   1.567
49991SOL     OW51869   7.169   0.953   6.737
49991SOL    HW151870   7.127   0.969   6.653
49991SOL    HW251871   7.234   1.023   6.746
49992SOL     OW51872  10.996  10.218   1.578
49992SOL    HW151873  10.965  10.308   1.592
49992SOL    HW251874  10.919  10.172   1.545
49993SOL     OW51875   9.854  14.476  13.804
49993SOL    HW151876   9.901  14.555  13.831
49993SOL    HW251877   9.903  14.443  13.729
49994SOL     OW51878   0.611   6.495  12.002
49994SOL    HW151879   0.537   6.479  11.944
49994SOL    HW251880   0.586   6.455  12.085
49995SOL     OW51881   9.731   8.022   4.023
49995SOL    HW151882   9.781   8.082   3.967
49995SOL    HW251883   9.674   8.078   4.074
49996SOL     OW51884  11.484   3.321   4.375
49996SOL    HW151885  11.566   3.316   4.423
49996SOL    HW251886  11.488   3.249   4.312
49997SOL     OW51887   8.762  12.021   4.613
49997SOL    HW151888   8.732  11.963   4.683
49997SOL    HW251889   8.758  11.968   4.534
49998SOL     OW51890  10.460   2.722   6.500
49998SOL    HW151891  10.431   2.721   6.409
49998SOL    HW251892  10.516   2.799   6.507
49999SOL     OW51893   2.808  12.555  12.892
49999SOL    HW151894   2.849  12.635  12.861
49999SOL    HW251895   2.753  12.526  12.819
50000SOL     OW51896   3.376   3.381   4.667
50000SOL    HW151897   3.465   3.354   4.644
50000SOL    HW251898   3.373   3.376   4.762
50001SOL     OW51899  10.002  12.567   5.840
50001SOL    HW151900  10.061  12.613   5.900
50001SOL    HW251901  10.058  12.537   5.769
50002SOL     OW51902   0.308   9.613  12.476
50002SOL    HW151903   0.287   9.707  12.467
50002SOL    HW251904   0.261   9.572  12.403
50003SOL     OW51905   5.138   3.448  11.344
50003SOL    HW151906   5.219   3.432  11.392
50003SOL    HW251907   5.166   3.475  11.257
50004SOL     OW51908   0.699   5.239   8.786
50004SOL    HW151909   0.711   5.176   8.857
50004SOL    HW251910   0.778   5.293   8.788
50005SOL     OW51911  13.044   0.772  11.128
50005SOL    HW151912  12.969   0.715  11.144
50005SOL    HW251913  13.092   0.774  11.211
50006SOL     OW51914   4.921  14.406  11.187
50006SOL    HW151915   4.837  14.384  11.146
50006SOL    HW251916   4.957  14.475  11.132
50007SOL     OW51917   3.658  12.018   4.814
50007SOL    HW151918   3.734  11.980   4.769
50007SOL    HW251919   3.661  11.981   4.902
50008SOL     OW51920   9.873  13.984  12.548
50008SOL    HW151921   9.793  13.931  12.548
50008SOL    HW251922   9.860  14.047  12.477
50009SOL     OW51923   5.403  11.435   7.127
50009SOL    HW151924   5.387  11.479   7.044
50009SOL    HW251925   5.327  11.378   7.139
50010SOL     OW51926   7.750   4.450   5.421
50010SOL    HW151927   7.658   4.466   5.442
50010SOL    HW251928   7.756   4.461   5.326
50011SOL     OW51929   4.844   7.138   2.394
50011SOL    HW151930   4.868   7.136   2.301
50011SOL    HW251931   4.750   7.157   2.394
50012SOL     OW51932   1.063   2.981   9.120
50012SOL    HW151933   0.976   3.019   9.131
50012SOL    HW251934   1.119   3.055   9.096
50013SOL     OW51935  10.502   3.669   0.653
50013SOL    HW151936  10.422   3.629   0.619
50013SOL    HW251937  10.494   3.762   0.630
50014SOL     OW51938   7.370   5.799  12.990
50014SOL    HW151939   7.373   5.867  13.058
50014SOL    HW251940   7.278   5.773  12.986
50015SOL     OW51941   9.628   3.034   9.400
50015SOL    HW151942   9.719   3.056   9.379
50015SOL    HW251943   9.626   2.938   9.398
50016SOL     OW51944  12.318   0.904   8.843
50016SOL    HW151945  12.294   0.965   8.913
50016SOL    HW251946  12.361   0.831   8.888
50017SOL     OW51947   5.789   2.822   0.968
50017SOL    HW151948   5.824   2.833   0.880
50017SOL    HW251949   5.710   2.769   0.956
50018SOL     OW51950  14.804   3.027   6.614
50018SOL    HW151951  14.714   2.998   6.626
50018SOL    HW251952  14.832   3.055   6.701
50019SOL     OW51953   1.353  11.814   1.857
50019SOL    HW151954   1.364  11.839   1.949
50019SOL    HW251955   1.440  11.827   1.818
50020SOL     OW51956  14.331   7.759   6.816
50020SOL    HW151957  14.336   7.725   6.727
50020SOL    HW251958  14.396   7.708   6.865
50021SOL     OW51959  12.173   4.523  11.673
50021SOL    HW151960  12.231   4.596  11.652
50021SOL    HW251961  12.209   4.449  11.623
50022SOL     OW51962   6.689   2.931   7.291
50022SOL    HW151963   6.593   2.931   7.292
50022SOL    HW251964   6.713   2.902   7.379
50023SOL     OW51965  11.618  10.422   8.431
50023SOL    HW151966  11.675  10.346   8.416
50023SOL    HW251967  11.530  10.389   8.414
50024SOL     OW51968  13.221   9.922  12.250
50024SOL    HW151969  13.310   9.953  12.266
50024SOL    HW251970  13.165   9.992  12.284
50025SOL     OW51971   0.603   3.855  12.670
50025SOL    HW151972   0.545   3.821  12.738
50025SOL    HW251973   0.647   3.777  12.634
50026SOL     OW51974   1.533   1.098   3.708
50026SOL    HW151975   1.476   1.169   3.740
50026SOL    HW251976   1.593   1.081   3.780
50027SOL     OW51977   0.356   2.969  14.233
50027SOL    HW151978   0.267   3.000  14.251
50027SOL    HW251979   0.387   2.934  14.317
50028SOL     OW51980  10.550  13.238  10.297
50028SOL    HW151981  10.639  13.211  10.274
50028SOL    HW251982  10.556  13.267  10.388
50029SOL     OW51983   0.471  12.865   3.607
50029SOL    HW151984   0.451  12.773   3.626
50029SOL    HW251985   0.551  12.862   3.555
50030SOL     OW51986   4.268   8.145   4.699
50030SOL    HW151987   4.291   8.227   4.655
50030SOL    HW251988   4.299   8.157   4.789
50031SOL     OW51989   8.780   9.172  11.524
50031SOL    HW151990   8.711   9.150  11.587
50031SOL    HW251991   8.735   9.225  11.458
50032SOL     OW51992  13.454   8.805   3.301
50032SOL    HW151993  13.466   8.735   3.364
50032SOL    HW251994  13.370   8.786   3.260
50033SOL     OW51995  12.024   6.631   0.946
50033SOL    HW151996  11.966   6.641   1.022
50033SOL    HW251997  11.983   6.562   0.894
50034SOL     OW51998   6.374   8.334   0.239
50034SOL    HW151999   6.438   8.284   0.288
50034SOL    HW252000   6.290   8.315   0.281
50035SOL     OW52001   1.996   4.993  11.463
50035SOL    HW152002   1.995   5.067  11.402
50035SOL    HW252003   2.089   4.977  11.480
50036SOL     OW52004  13.644  14.356  12.339
50036SOL    HW152005  13.590  14.316  12.407
50036SOL    HW252006  13.662  14.284  12.278
50037SOL     OW52007   6.420  12.648  13.090
50037SOL    HW152008   6.454  12.589  13.157
50037SOL    HW252009   6.475  12.632  13.014
50038SOL     OW52010   3.806  11.300   6.079
50038SOL    HW152011   3.746  11.269   6.147
50038SOL    HW252012   3.887  11.250   6.094
50039SOL     OW52013   1.431  12.143   9.542
50039SOL    HW152014   1.398  12.114   9.456
50039SOL    HW252015   1.360  12.196   9.578
50040SOL     OW52016  10.316  14.704   6.665
50040SOL    HW152017  10.298  14.713   6.758
50040SOL    HW252018  10.278  14.782   6.625
50041SOL     OW52019  11.595  14.280  11.318
50041SOL    HW152020  11.574  14.318  11.403
50041SOL    HW252021  11.646  14.348  11.274
50042SOL     OW52022  11.896   2.278   7.491
50042SOL    HW152023  11.803   2.282   7.515
50042SOL    HW252024  11.921   2.188   7.512
50043SOL     OW52025  11.112   3.135   1.439
50043SOL    HW152026  11.051   3.173   1.376
50043SOL    HW252027  11.148   3.058   1.395
50044SOL     OW52028   6.754  14.572   8.883
50044SOL    HW152029   6.823  14.511   8.909
50044SOL    HW252030   6.687  14.516   8.845
50045SOL     OW52031   9.488   3.647  10.553
50045SOL    HW152032   9.579   3.636  10.525
50045SOL    HW252033   9.437   3.640  10.472
50046SOL     OW52034   1.161   1.591   9.950
50046SOL    HW152035   1.158   1.683   9.922
50046SOL    HW252036   1.084   1.551   9.910
50047SOL     OW52037   2.553   2.185   5.979
50047SOL    HW152038   2.574   2.149   6.066
50047SOL    HW252039   2.637   2.188   5.934
50048SOL     OW52040   1.619   0.843   3.076
50048SOL    HW152041   1.680   0.917   3.076
50048SOL    HW252042   1.591   0.834   2.985
50049SOL     OW52043   1.774   4.879  13.343
50049SOL    HW152044   1.684   4.846  13.352
50049SOL    HW252045   1.786   4.935  13.419
50050SOL     OW52046   7.868   8.028  11.451
50050SOL    HW152047   7.957   8.059  11.432
50050SOL    HW252048   7.823   8.032  11.366
50051SOL     OW52049  13.880  10.784  12.100
50051SOL    HW152050  13.889  10.693  12.071
50051SOL    HW252051  13.909  10.782  12.191
50052SOL     OW52052  13.129  12.982   5.145
50052SOL    HW152053  13.077  12.992   5.225
50052SOL    HW252054  13.160  12.892   5.147
50053SOL     OW52055   0.028   8.912   8.068
50053SOL    HW152056   0.059   8.999   8.043
50053SOL    HW252057  14.867   8.926   8.152
50054SOL     OW52058  10.156  14.077  12.551
50054SOL    HW152059  10.068  14.115  12.559
50054SOL    HW252060  10.208  14.146  12.509
50055SOL     OW52061   1.632   2.874  11.587
50055SOL    HW152062   1.604   2.783  11.599
50055SOL    HW252063   1.700   2.870  11.521
50056SOL     OW52064  14.170  10.310   2.298
50056SOL    HW152065  14.129  10.226   2.322
50056SOL    HW252066  14.142  10.325   2.208
50057SOL     OW52067   9.940   6.305   1.906
50057SOL    HW152068   9.865   6.353   1.872
50057SOL    HW252069   9.971   6.357   1.980
50058SOL     OW52070   3.192   3.650  13.313
50058SOL    HW152071   3.277   3.635  13.273
50058SOL    HW252072   3.206   3.719  13.377
50059SOL     OW52073  13.138  10.243   8.600
50059SOL    HW152074  13.130  10.227   8.694
50059SOL    HW252075  13.108  10.333   8.588
50060SOL     OW52076   2.400  11.969  14.141
50060SOL    HW152077   2.346  12.007  14.211
50060SOL    HW252078   2.374  12.017  14.063
50061SOL     OW52079   4.306   0.000  14.855
50061SOL    HW152080   4.300   0.006  14.760
50061SOL    HW252081   4.239  14.818  14.880
50062SOL     OW52082  13.247   1.374  14.106
50062SOL    HW152083  13.244   1.470  14.104
50062SOL    HW252084  13.340   1.353  14.101
50063SOL     OW52085   6.949  13.026   0.929
50063SOL    HW152086   6.885  13.076   0.879
50063SOL    HW252087   6.982  13.088   0.994
50064SOL     OW52088   8.707   3.076   5.755
50064SOL    HW152089   8.755   3.154   5.783
50064SOL    HW252090   8.756   3.043   5.680
50065SOL     OW52091   5.402   7.207  10.556
50065SOL    HW152092   5.460   7.185  10.483
50065SOL    HW252093   5.412   7.302  10.566
50066SOL     OW52094  10.474   7.987  11.366
50066SOL    HW152095  10.459   7.896  11.342
50066SOL    HW252096  10.436   7.995  11.454
50067SOL     OW52097   9.381   6.778   0.189
50067SOL    HW152098   9.313   6.822   0.137
50067SOL    HW252099   9.457   6.775   0.131
50068SOL     OW52100   9.776   4.617  10.205
50068SOL    HW152101   9.796   4.701  10.165
50068SOL    HW252102   9.760   4.637  10.297
50069SOL     OW52103   5.418  12.045   4.237
50069SOL    HW152104   5.414  11.974   4.173
50069SOL    HW252105   5.436  12.001   4.320
50070SOL     OW52106   4.356   9.502   2.967
50070SOL    HW152107   4.312   9.431   2.921
50070SOL    HW252108   4.440   9.513   2.921
50071SOL     OW52109   3.322   4.258   5.448
50071SOL    HW152110   3.237   4.293   5.424
50071SOL    HW252111   3.304   4.194   5.517
50072SOL     OW52112   6.109  10.198  10.914
50072SOL    HW152113   6.068  10.146  10.983
50072SOL    HW252114   6.172  10.253  10.959
50073SOL     OW52115   7.350   3.690   9.314
50073SOL    HW152116   7.418   3.723   9.256
50073SOL    HW252117   7.324   3.765   9.367
50074SOL     OW52118   6.594   5.110   0.593
50074SOL    HW152119   6.657   5.148   0.654
50074SOL    HW252120   6.532   5.062   0.650
50075SOL     OW52121   9.679   2.782  10.189
50075SOL    HW152122   9.734   2.806  10.114
50075SOL    HW252123   9.592   2.769  10.151
50076SOL     OW52124   6.112   5.509   0.543
50076SOL    HW152125   6.050   5.455   0.593
50076SOL    HW252126   6.068   5.593   0.532
50077SOL     OW52127  13.270  11.458   0.092
50077SOL    HW152128  13.329  11.489   0.024
50077SOL    HW252129  13.325  11.446   0.169
50078SOL     OW52130   6.254   7.925  10.310
50078SOL    HW152131   6.226   7.880  10.229
50078SOL    HW252132   6.341   7.890  10.327
50079SOL     OW52133   7.328   3.904   5.600
50079SOL    HW152134   7.298   3.992   5.577
50079SOL    HW252135   7.385   3.879   5.527
50080SOL     OW52136  10.320  12.894  12.934
50080SOL    HW152137  10.323  12.922  13.026
50080SOL    HW252138  10.409  12.910  12.902
50081SOL     OW52139   6.190  10.802   1.582
50081SOL    HW152140   6.114  10.796   1.640
50081SOL    HW252141   6.154  10.793   1.494
50082SOL     OW52142  10.946  14.443   4.039
50082SOL    HW152143  10.949  14.439   3.943
50082SOL    HW252144  11.002  14.517   4.061
50083SOL     OW52145   5.571   2.467  14.826
50083SOL    HW152146   5.526   2.398  14.777
50083SOL    HW252147   5.551   2.548  14.779
50084SOL     OW52148  12.799  13.865   3.009
50084SOL    HW152149  12.734  13.825   2.950
50084SOL    HW252150  12.757  13.862   3.095
50085SOL     OW52151  11.711   7.442   8.064
50085SOL    HW152152  11.694   7.521   8.013
50085SOL    HW252153  11.807   7.435   8.066
50086SOL     OW52154  13.746   1.003   8.893
50086SOL    HW152155  13.753   0.935   8.825
50086SOL    HW252156  13.824   1.057   8.881
50087SOL     OW52157   4.858   6.742   7.720
50087SOL    HW152158   4.890   6.781   7.639
50087SOL    HW252159   4.793   6.677   7.692
50088SOL     OW52160   8.499   0.224   5.687
50088SOL    HW152161   8.507   0.184   5.773
50088SOL    HW252162   8.516   0.153   5.625
50089SOL     OW52163  12.906   5.252   1.956
50089SOL    HW152164  12.963   5.185   1.919
50089SOL    HW252165  12.865   5.209   2.031
50090SOL     OW52166   0.754   5.343  12.512
50090SOL    HW152167   0.835   5.394  12.522
50090SOL    HW252168   0.780   5.253  12.533
50091SOL     OW52169   8.040   0.699   1.910
50091SOL    HW152170   8.055   0.622   1.855
50091SOL    HW252171   8.008   0.766   1.850
50092SOL     OW52172   1.637  10.177   9.456
50092SOL    HW152173   1.682  10.098   9.488
50092SOL    HW252174   1.627  10.232   9.533
50093SOL     OW52175   3.751   6.576   8.013
50093SOL    HW152176   3.758   6.505   8.077
50093SOL    HW252177   3.658   6.600   8.014
50094SOL     OW52178  11.256  11.984   1.090
50094SOL    HW152179  11.168  12.022   1.089
50094SOL    HW252180  11.312  12.054   1.122
50095SOL     OW52181   7.836  14.589   2.780
50095SOL    HW152182   7.761  14.649   2.783
50095SOL    HW252183   7.868  14.587   2.870
50096SOL     OW52184   8.928  12.989   2.108
50096SOL    HW152185   8.981  12.911   2.125
50096SOL    HW252186   8.862  12.990   2.177
50097SOL     OW52187   8.296   2.144  10.944
50097SOL    HW152188   8.376   2.159  10.892
50097SOL    HW252189   8.328   2.126  11.032
50098SOL     OW52190   8.477  13.148   0.714
50098SOL    HW152191   8.504  13.059   0.688
50098SOL    HW252192   8.548  13.179   0.770
50099SOL     OW52193   0.835   0.329  10.535
50099SOL    HW152194   0.794   0.394  10.593
50099SOL    HW252195   0.825   0.367  10.447
50100SOL     OW52196   0.327   3.385   6.170
50100SOL    HW152197   0.232   3.386   6.177
50100SOL    HW252198   0.354   3.474   6.194
50101SOL     OW52199   1.958  10.326   9.595
50101SOL    HW152200   1.993  10.409   9.561
50101SOL    HW252201   1.885  10.353   9.652
50102SOL     OW52202   9.370  10.917  10.207
50102SOL    HW152203   9.399  10.894  10.296
50102SOL    HW252204   9.444  10.961  10.167
50103SOL     OW52205  10.548   6.015   4.702
50103SOL    HW152206  10.547   6.094   4.757
50103SOL    HW252207  10.639   5.986   4.703
50104SOL     OW52208  13.058   3.804   3.401
50104SOL    HW152209  13.112   3.749   3.345
50104SOL    HW252210  12.972   3.763   3.401
50105SOL     OW52211  10.923   3.594   6.027
50105SOL    HW152212  10.859   3.663   6.046
50105SOL    HW252213  11.006   3.630   6.059
50106SOL     OW52214   2.727   0.891   3.828
50106SOL    HW152215   2.661   0.884   3.898
50106SOL    HW252216   2.798   0.940   3.869
50107SOL     OW52217   5.402   1.808  11.200
50107SOL    HW152218   5.313   1.782  11.223
50107SOL    HW252219   5.404   1.903  11.211
50108SOL     OW52220   2.234   1.739   6.083
50108SOL    HW152221   2.280   1.783   6.011
50108SOL    HW252222   2.142   1.764   6.071
50109SOL     OW52223  10.809   7.736   2.491
50109SOL    HW152224  10.796   7.790   2.414
50109SOL    HW252225  10.778   7.649   2.465
50110SOL     OW52226   3.686   8.296   4.898
50110SOL    HW152227   3.667   8.266   4.810
50110SOL    HW252228   3.663   8.389   4.898
50111SOL     OW52229   7.336  12.260   4.362
50111SOL    HW152230   7.271  12.252   4.292
50111SOL    HW252231   7.391  12.183   4.353
50112SOL     OW52232  13.829   2.752  12.594
50112SOL    HW152233  13.794   2.692  12.528
50112SOL    HW252234  13.837   2.698  12.673
50113SOL     OW52235  12.588  11.253  11.967
50113SOL    HW152236  12.503  11.259  12.012
50113SOL    HW252237  12.652  11.278  12.033
50114SOL     OW52238  13.193  12.314   0.349
50114SOL    HW152239  13.188  12.327   0.444
50114SOL    HW252240  13.267  12.256   0.336
50115SOL     OW52241   1.781   6.825   5.058
50115SOL    HW152242   1.823   6.781   5.132
50115SOL    HW252243   1.820   6.784   4.981
50116SOL     OW52244   5.120   2.144   4.296
50116SOL    HW152245   5.121   2.154   4.391
50116SOL    HW252246   5.191   2.201   4.265
50117SOL     OW52247  11.916  10.168   4.114
50117SOL    HW152248  11.849  10.108   4.081
50117SOL    HW252249  11.900  10.173   4.208
50118SOL     OW52250  10.545   7.316   5.724
50118SOL    HW152251  10.488   7.317   5.801
50118SOL    HW252252  10.488   7.341   5.651
50119SOL     OW52253  14.085   9.644   2.200
50119SOL    HW152254  13.993   9.658   2.221
50119SOL    HW252255  14.124   9.731   2.200
50120SOL     OW52256  10.743  12.158  13.395
50120SOL    HW152257  10.811  12.108  13.440
50120SOL    HW252258  10.663  12.107  13.408
50121SOL     OW52259  12.637  12.857   8.342
50121SOL    HW152260  12.707  12.843   8.277
50121SOL    HW252261  12.596  12.939   8.314
50122SOL     OW52262  14.176  10.950   9.113
50122SOL    HW152263  14.086  10.979   9.097
50122SOL    HW252264  14.196  10.892   9.041
50123SOL     OW52265   4.008   9.717  14.438
50123SOL    HW152266   4.014   9.743  14.530
50123SOL    HW252267   4.006   9.621  14.440
50124SOL     OW52268   0.791   4.631   3.090
50124SOL    HW152269   0.769   4.675   3.172
50124SOL    HW252270   0.816   4.543   3.116
50125SOL     OW52271   8.997   1.063   7.486
50125SOL    HW152272   9.009   0.970   7.466
50125SOL    HW252273   8.926   1.090   7.428
50126SOL     OW52274   9.792   6.143  12.578
50126SOL    HW152275   9.776   6.126  12.485
50126SOL    HW252276   9.875   6.100  12.597
50127SOL     OW52277  12.009   2.374   7.838
50127SOL    HW152278  12.026   2.425   7.917
50127SOL    HW252279  12.078   2.308   7.836
50128SOL     OW52280   8.347  11.916   0.976
50128SOL    HW152281   8.254  11.893   0.982
50128SOL    HW252282   8.355  11.962   0.893
50129SOL     OW52283   6.449  10.329   2.680
50129SOL    HW152284   6.494  10.386   2.742
50129SOL    HW252285   6.357  10.334   2.705
50130SOL     OW52286   4.157  13.570  11.921
50130SOL    HW152287   4.231  13.613  11.963
50130SOL    HW252288   4.129  13.503  11.983
50131SOL     OW52289   5.414   0.184  13.170
50131SOL    HW152290   5.448   0.120  13.106
50131SOL    HW252291   5.410   0.266  13.122
50132SOL     OW52292   1.349   8.590  11.848
50132SOL    HW152293   1.417   8.542  11.895
50132SOL    HW252294   1.387   8.609  11.762
50133SOL     OW52295   3.524  10.663  13.292
50133SOL    HW152296   3.572  10.592  13.336
50133SOL    HW252297   3.446  10.676  13.346
50134SOL     OW52298   6.290   8.096   8.049
50134SOL    HW152299   6.304   8.158   7.978
50134SOL    HW252300   6.358   8.117   8.113
50135SOL     OW52301   5.741   4.690   2.866
50135SOL    HW152302   5.746   4.707   2.960
50135SOL    HW252303   5.751   4.596   2.857
50136SOL     OW52304  13.266   4.098  14.406
50136SOL    HW152305  13.305   4.029  14.352
50136SOL    HW252306  13.201   4.139  14.350
50137SOL     OW52307  11.552  10.767  10.337
50137SOL    HW152308  11.621  10.752  10.272
50137SOL    HW252309  11.522  10.680  10.362
50138SOL     OW52310   3.067  14.015   0.162
50138SOL    HW152311   3.016  14.096   0.160
50138SOL    HW252312   3.107  14.010   0.076
50139SOL     OW52313  10.425  11.536   6.072
50139SOL    HW152314  10.346  11.541   6.126
50139SOL    HW252315  10.408  11.595   5.999
50140SOL     OW52316   9.778   6.922   0.964
50140SOL    HW152317   9.776   6.907   1.059
50140SOL    HW252318   9.855   6.977   0.950
50141SOL     OW52319   9.127   0.095  13.867
50141SOL    HW152320   9.106   0.187  13.880
50141SOL    HW252321   9.090   0.051  13.943
50142SOL     OW52322   0.385   0.377   8.802
50142SOL    HW152323   0.362   0.460   8.760
50142SOL    HW252324   0.474   0.358   8.771
50143SOL     OW52325   1.704   3.800  12.776
50143SOL    HW152326   1.647   3.862  12.731
50143SOL    HW252327   1.696   3.823  12.868
50144SOL     OW52328   5.199   9.426   5.565
50144SOL    HW152329   5.157   9.399   5.483
50144SOL    HW252330   5.289   9.395   5.557
50145SOL     OW52331   4.336   6.585  12.052
50145SOL    HW152332   4.302   6.516  12.108
50145SOL    HW252333   4.361   6.655  12.113
50146SOL     OW52334  10.703   3.783  10.765
50146SOL    HW152335  10.795   3.764  10.778
50146SOL    HW252336  10.699   3.879  10.760
50147SOL     OW52337  12.101   5.117  10.929
50147SOL    HW152338  12.050   5.112  11.009
50147SOL    HW252339  12.091   5.208  10.900
50148SOL     OW52340   7.739   5.067   4.854
50148SOL    HW152341   7.762   5.082   4.762
50148SOL    HW252342   7.789   4.988   4.878
50149SOL     OW52343  11.345  14.868   2.074
50149SOL    HW152344  11.332  14.835   1.985
50149SOL    HW252345  11.318   0.078   2.070
50150SOL     OW52346   5.370   9.140   5.616
50150SOL    HW152347   5.386   9.234   5.625
50150SOL    HW252348   5.444   9.108   5.565
50151SOL     OW52349   0.734   1.828   7.213
50151SOL    HW152350   0.764   1.817   7.303
50151SOL    HW252351   0.655   1.881   7.220
50152SOL     OW52352   3.657  13.734   4.364
50152SOL    HW152353   3.713  13.664   4.330
50152SOL    HW252354   3.681  13.742   4.456
50153SOL     OW52355  11.027   6.642  12.600
50153SOL    HW152356  11.093   6.640  12.532
50153SOL    HW252357  11.056   6.710  12.661
50154SOL     OW52358  11.108   7.930   4.539
50154SOL    HW152359  11.175   7.900   4.478
50154SOL    HW252360  11.028   7.886   4.511
50155SOL     OW52361   5.005  13.847   8.992
50155SOL    HW152362   5.091  13.853   9.035
50155SOL    HW252363   4.986  13.936   8.962
50156SOL     OW52364   1.815   4.405   9.355
50156SOL    HW152365   1.820   4.340   9.425
50156SOL    HW252366   1.726   4.397   9.320
50157SOL     OW52367   1.486   2.614   7.691
50157SOL    HW152368   1.433   2.632   7.768
50157SOL    HW252369   1.575   2.606   7.725
50158SOL     OW52370  11.068  11.195   4.940
50158SOL    HW152371  11.134  11.127   4.954
50158SOL    HW252372  11.058  11.238   5.025
50159SOL     OW52373  12.748  10.254   9.201
50159SOL    HW152374  12.765  10.235   9.294
50159SOL    HW252375  12.676  10.317   9.202
50160SOL     OW52376   8.396   6.074   0.288
50160SOL    HW152377   8.423   6.066   0.379
50160SOL    HW252378   8.304   6.101   0.292
50161SOL     OW52379  14.239   1.516  14.500
50161SOL    HW152380  14.270   1.483  14.416
50161SOL    HW252381  14.306   1.579  14.527
50162SOL     OW52382   1.270   3.544   1.182
50162SOL    HW152383   1.324   3.546   1.103
50162SOL    HW252384   1.329   3.572   1.252
50163SOL     OW52385   0.549   0.986   4.277
50163SOL    HW152386   0.629   0.952   4.235
50163SOL    HW252387   0.504   1.033   4.207
50164SOL     OW52388  12.878   0.625   8.143
50164SOL    HW152389  12.792   0.587   8.127
50164SOL    HW252390  12.876   0.710   8.100
50165SOL     OW52391   0.753   5.908  12.308
50165SOL    HW152392   0.815   5.947  12.370
50165SOL    HW252393   0.747   5.816  12.334
50166SOL     OW52394   5.431  13.355   3.084
50166SOL    HW152395   5.341  13.336   3.056
50166SOL    HW252396   5.485  13.327   3.011
50167SOL     OW52397   2.125  12.492  14.379
50167SOL    HW152398   2.061  12.514  14.447
50167SOL    HW252399   2.178  12.571  14.370
50168SOL     OW52400   9.056  14.274   6.334
50168SOL    HW152401   9.139  14.296   6.292
50168SOL    HW252402   9.081  14.214   6.405
50169SOL     OW52403  12.994  13.816   8.453
50169SOL    HW152404  13.024  13.899   8.415
50169SOL    HW252405  13.047  13.804   8.532
50170SOL     OW52406  13.620   3.968   1.422
50170SOL    HW152407  13.560   3.971   1.347
50170SOL    HW252408  13.563   3.950   1.497
50171SOL     OW52409  12.028   0.958   3.045
50171SOL    HW152410  12.103   1.017   3.036
50171SOL    HW252411  12.054   0.878   2.999
50172SOL     OW52412   5.764   7.183   5.288
50172SOL    HW152413   5.831   7.136   5.239
50172SOL    HW252414   5.744   7.126   5.363
50173SOL     OW52415   1.939   1.851   0.641
50173SOL    HW152416   2.028   1.868   0.611
50173SOL    HW252417   1.947   1.774   0.698
50174SOL     OW52418   1.546  11.258   8.485
50174SOL    HW152419   1.595  11.297   8.413
50174SOL    HW252420   1.486  11.196   8.443
50175SOL     OW52421  12.947  14.275   9.992
50175SOL    HW152422  12.951  14.180  10.002
50175SOL    HW252423  12.890  14.289   9.916
50176SOL     OW52424  11.937   3.714   7.004
50176SOL    HW152425  11.966   3.641   7.059
50176SOL    HW252426  11.853   3.740   7.042
50177SOL     OW52427   5.011  13.710   5.203
50177SOL    HW152428   5.066  13.788   5.199
50177SOL    HW252429   5.066  13.641   5.166
50178SOL     OW52430   0.674   9.800   8.337
50178SOL    HW152431   0.655   9.885   8.299
50178SOL    HW252432   0.744   9.817   8.401
50179SOL     OW52433  12.093  11.340  14.308
50179SOL    HW152434  12.039  11.272  14.348
50179SOL    HW252435  12.086  11.414  14.369
50180SOL     OW52436  13.901   9.491   7.017
50180SOL    HW152437  13.883   9.397   7.014
50180SOL    HW252438  13.817   9.531   7.040
50181SOL     OW52439   1.750   1.209  10.692
50181SOL    HW152440   1.749   1.178  10.602
50181SOL    HW252441   1.723   1.133  10.744
50182SOL     OW52442  12.804   0.606   1.784
50182SOL    HW152443  12.805   0.554   1.703
50182SOL    HW252444  12.867   0.561   1.841
50183SOL     OW52445   3.509   9.037   1.257
50183SOL    HW152446   3.426   9.027   1.305
50183SOL    HW252447   3.562   9.093   1.312
50184SOL     OW52448   4.954   6.307   9.203
50184SOL    HW152449   4.998   6.390   9.225
50184SOL    HW252450   5.022   6.254   9.163
50185SOL     OW52451   4.508  12.484   0.692
50185SOL    HW152452   4.584  12.535   0.718
50185SOL    HW252453   4.447  12.492   0.765
50186SOL     OW52454   6.920  10.363   8.242
50186SOL    HW152455   6.970  10.386   8.320
50186SOL    HW252456   6.832  10.345   8.274
50187SOL     OW52457   3.119   4.883   0.282
50187SOL    HW152458   3.080   4.957   0.236
50187SOL    HW252459   3.174   4.840   0.217
50188SOL     OW52460   3.232   9.134   1.318
50188SOL    HW152461   3.264   9.124   1.408
50188SOL    HW252462   3.219   9.228   1.308
50189SOL     OW52463   8.911   3.798   1.945
50189SOL    HW152464   8.909   3.877   1.891
50189SOL    HW252465   8.841   3.811   2.010
50190SOL     OW52466  14.516   2.123  10.714
50190SOL    HW152467  14.434   2.163  10.685
50190SOL    HW252468  14.585   2.176  10.673
50191SOL     OW52469   8.085  13.342  10.640
50191SOL    HW152470   8.122  13.407  10.699
50191SOL    HW252471   8.142  13.265  10.650
50192SOL     OW52472  12.046   4.939   6.217
50192SOL    HW152473  11.962   4.948   6.263
50192SOL    HW252474  12.098   5.013   6.248
50193SOL     OW52475   4.242   6.431  11.652
50193SOL    HW152476   4.181   6.358  11.662
50193SOL    HW252477   4.276   6.421  11.563
50194SOL     OW52478   6.650   3.165  14.750
50194SOL    HW152479   6.741   3.155  14.777
50194SOL    HW252480   6.616   3.076  14.748
50195SOL     OW52481   4.874  12.422   4.797
50195SOL    HW152482   4.960  12.381   4.784
50195SOL    HW252483   4.818  12.381   4.730
50196SOL     OW52484   4.380   2.888   5.879
50196SOL    HW152485   4.327   2.964   5.858
50196SOL    HW252486   4.461   2.924   5.915
50197SOL     OW52487   7.386   4.854   4.520
50197SOL    HW152488   7.429   4.934   4.489
50197SOL    HW252489   7.459   4.794   4.538
50198SOL     OW52490  10.139  10.641  11.120
50198SOL    HW152491  10.123  10.603  11.034
50198SOL    HW252492  10.055  10.679  11.146
50199SOL     OW52493   8.666   7.977   1.619
50199SOL    HW152494   8.654   7.890   1.580
50199SOL    HW252495   8.724   7.961   1.693
50200SOL     OW52496   2.798   6.769   5.354
50200SOL    HW152497   2.833   6.681   5.366
50200SOL    HW252498   2.720   6.757   5.300
50201SOL     OW52499   4.702   7.195  14.501
50201SOL    HW152500   4.655   7.259  14.448
50201SOL    HW252501   4.792   7.227  14.504
50202SOL     OW52502   1.634   7.406  13.036
50202SOL    HW152503   1.551   7.408  12.989
50202SOL    HW252504   1.619   7.344  13.108
50203SOL     OW52505  14.763  14.320  11.682
50203SOL    HW152506  14.759  14.248  11.619
50203SOL    HW252507  14.743  14.280  11.766
50204SOL     OW52508  10.416   3.578   6.717
50204SOL    HW152509  10.394   3.645   6.781
50204SOL    HW252510  10.399   3.495   6.762
50205SOL     OW52511  13.152   7.304   3.802
50205SOL    HW152512  13.097   7.380   3.783
50205SOL    HW252513  13.225   7.340   3.853
50206SOL     OW52514  13.310   9.351   1.540
50206SOL    HW152515  13.320   9.264   1.500
50206SOL    HW252516  13.342   9.340   1.629
50207SOL     OW52517   3.896   4.018   3.009
50207SOL    HW152518   3.862   4.097   3.051
50207SOL    HW252519   3.819   3.965   2.990
50208SOL     OW52520  13.190   3.092   8.288
50208SOL    HW152521  13.259   3.045   8.334
50208SOL    HW252522  13.226   3.179   8.274
50209SOL     OW52523   5.992   7.877   6.284
50209SOL    HW152524   6.026   7.789   6.298
50209SOL    HW252525   6.003   7.920   6.369
50210SOL     OW52526   3.783  13.941  10.111
50210SOL    HW152527   3.867  13.917  10.151
50210SOL    HW252528   3.720  13.940  10.183
50211SOL     OW52529   8.921  12.872   1.063
50211SOL    HW152530   8.941  12.792   1.014
50211SOL    HW252531   8.968  12.941   1.015
50212SOL     OW52532   1.777  10.880   2.022
50212SOL    HW152533   1.812  10.846   1.939
50212SOL    HW252534   1.702  10.824   2.042
50213SOL     OW52535  10.254  14.158   4.960
50213SOL    HW152536  10.215  14.081   5.001
50213SOL    HW252537  10.199  14.175   4.884
50214SOL     OW52538   7.825  11.305   1.802
50214SOL    HW152539   7.783  11.376   1.852
50214SOL    HW252540   7.913  11.299   1.840
50215SOL     OW52541  11.929   5.436   0.550
50215SOL    HW152542  11.989   5.378   0.503
50215SOL    HW252543  11.864   5.377   0.588
50216SOL     OW52544   9.133   9.270   9.001
50216SOL    HW152545   9.090   9.262   9.086
50216SOL    HW252546   9.192   9.195   8.997
50217SOL     OW52547  13.122   0.560   4.216
50217SOL    HW152548  13.088   0.649   4.227
50217SOL    HW252549  13.180   0.546   4.291
50218SOL     OW52550   0.552  14.455   8.579
50218SOL    HW152551   0.557  14.511   8.657
50218SOL    HW252552   0.570  14.367   8.612
50219SOL     OW52553  11.249  12.661   1.375
50219SOL    HW152554  11.168  12.706   1.399
50219SOL    HW252555  11.243  12.649   1.280
50220SOL     OW52556  11.829   2.321   7.097
50220SOL    HW152557  11.829   2.231   7.130
50220SOL    HW252558  11.809   2.313   7.004
50221SOL     OW52559  14.200   7.067  11.840
50221SOL    HW152560  14.109   7.051  11.862
50221SOL    HW252561  14.204   7.161  11.821
50222SOL     OW52562   0.295   1.654   4.749
50222SOL    HW152563   0.335   1.568   4.735
50222SOL    HW252564   0.217   1.636   4.801
50223SOL     OW52565   4.337  14.038  14.068
50223SOL    HW152566   4.296  13.957  14.039
50223SOL    HW252567   4.323  14.100  13.996
50224SOL     OW52568   4.104   0.413   3.917
50224SOL    HW152569   4.068   0.449   3.998
50224SOL    HW252570   4.043   0.440   3.849
50225SOL     OW52571   5.372   2.502   4.346
50225SOL    HW152572   5.443   2.520   4.408
50225SOL    HW252573   5.317   2.437   4.390
50226SOL     OW52574   2.216   1.549   7.865
50226SOL    HW152575   2.241   1.641   7.868
50226SOL    HW252576   2.261   1.514   7.788
50227SOL     OW52577   2.482   2.091  11.651
50227SOL    HW152578   2.574   2.066  11.660
50227SOL    HW252579   2.436   2.039  11.717
50228SOL     OW52580   7.853   6.777  10.420
50228SOL    HW152581   7.814   6.696  10.385
50228SOL    HW252582   7.839   6.771  10.514
50229SOL     OW52583   3.589   6.205   3.914
50229SOL    HW152584   3.606   6.256   3.994
50229SOL    HW252585   3.495   6.213   3.901
50230SOL     OW52586  11.669   5.593   0.437
50230SOL    HW152587  11.652   5.671   0.383
50230SOL    HW252588  11.752   5.559   0.403
50231SOL     OW52589   3.952  11.866   8.783
50231SOL    HW152590   3.901  11.909   8.851
50231SOL    HW252591   3.913  11.779   8.775
50232SOL     OW52592  14.164   9.271   8.335
50232SOL    HW152593  14.150   9.303   8.424
50232SOL    HW252594  14.076   9.253   8.302
50233SOL     OW52595   8.963   8.441   4.784
50233SOL    HW152596   9.028   8.503   4.816
50233SOL    HW252597   8.879   8.478   4.812
50234SOL     OW52598   0.645  13.240   2.611
50234SOL    HW152599   0.553  13.225   2.588
50234SOL    HW252600   0.641  13.291   2.692
50235SOL     OW52601  11.374   9.439   5.577
50235SOL    HW152602  11.312   9.414   5.509
50235SOL    HW252603  11.342   9.523   5.611
50236SOL     OW52604  12.908   4.681   0.147
50236SOL    HW152605  12.897   4.628   0.068
50236SOL    HW252606  12.822   4.720   0.161
50237SOL     OW52607   5.094  10.482  14.197
50237SOL    HW152608   5.146  10.420  14.248
50237SOL    HW252609   5.154  10.553  14.176
50238SOL     OW52610  14.088   0.300   1.875
50238SOL    HW152611  14.158   0.362   1.897
50238SOL    HW252612  14.091   0.235   1.945
50239SOL     OW52613  14.283   1.557  13.127
50239SOL    HW152614  14.337   1.549  13.206
50239SOL    HW252615  14.338   1.604  13.065
50240SOL     OW52616  13.208   4.859   6.456
50240SOL    HW152617  13.205   4.940   6.505
50240SOL    HW252618  13.140   4.804   6.495
50241SOL     OW52619   7.130   5.964  11.535
50241SOL    HW152620   7.203   6.025  11.546
50241SOL    HW252621   7.090   5.959  11.622
50242SOL     OW52622  14.660   9.429  10.243
50242SOL    HW152623  14.712   9.377  10.304
50242SOL    HW252624  14.711   9.510  10.232
50243SOL     OW52625  13.656   2.090   1.218
50243SOL    HW152626  13.743   2.080   1.258
50243SOL    HW252627  13.596   2.051   1.281
50244SOL     OW52628  14.725   3.546   2.532
50244SOL    HW152629  14.731   3.573   2.623
50244SOL    HW252630  14.805   3.579   2.491
50245SOL     OW52631   5.885   8.757   4.694
50245SOL    HW152632   5.925   8.671   4.685
50245SOL    HW252633   5.801   8.739   4.737
50246SOL     OW52634   6.674   4.118   4.143
50246SOL    HW152635   6.655   4.095   4.234
50246SOL    HW252636   6.623   4.197   4.127
50247SOL     OW52637   3.409   1.582   5.854
50247SOL    HW152638   3.364   1.512   5.902
50247SOL    HW252639   3.344   1.652   5.848
50248SOL     OW52640   7.365   5.166  12.790
50248SOL    HW152641   7.275   5.190  12.809
50248SOL    HW252642   7.358   5.106  12.715
50249SOL     OW52643   1.033   7.177  11.768
50249SOL    HW152644   0.984   7.146  11.692
50249SOL    HW252645   1.100   7.110  11.782
50250SOL     OW52646  11.339   3.508  14.083
50250SOL    HW152647  11.349   3.433  14.025
50250SOL    HW252648  11.260   3.490  14.133
50251SOL     OW52649   0.875  13.216  14.325
50251SOL    HW152650   0.918  13.179  14.402
50251SOL    HW252651   0.891  13.152  14.255
50252SOL     OW52652  11.429   1.221  12.679
50252SOL    HW152653  11.435   1.314  12.660
50252SOL    HW252654  11.346   1.193  12.639
50253SOL     OW52655  14.208  11.151   0.519
50253SOL    HW152656  14.148  11.208   0.568
50253SOL    HW252657  14.294  11.191   0.532
50254SOL     OW52658   7.910  12.757  11.584
50254SOL    HW152659   7.948  12.841  11.561
50254SOL    HW252660   7.924  12.750  11.679
50255SOL     OW52661   7.923   8.195  13.806
50255SOL    HW152662   7.919   8.232  13.717
50255SOL    HW252663   7.932   8.101  13.792
50256SOL     OW52664  11.699   7.576  12.569
50256SOL    HW152665  11.675   7.487  12.543
50256SOL    HW252666  11.615   7.620  12.583
50257SOL     OW52667  13.313   0.007   3.045
50257SOL    HW152668  13.258  14.850   2.977
50257SOL    HW252669  13.400  14.850   3.031
50258SOL     OW52670   0.005   3.179   3.857
50258SOL    HW152671  14.837   3.180   3.939
50258SOL    HW252672   0.086   3.132   3.878
50259SOL     OW52673   8.104   2.881  10.034
50259SOL    HW152674   8.190   2.875  10.076
50259SOL    HW252675   8.122   2.880   9.940
50260SOL     OW52676   4.401   3.459   5.451
50260SOL    HW152677   4.392   3.440   5.544
50260SOL    HW252678   4.445   3.544   5.448
50261SOL     OW52679   0.162   9.023   3.201
50261SOL    HW152680   0.128   9.099   3.154
50261SOL    HW252681   0.194   8.964   3.133
50262SOL     OW52682  12.323   5.997   8.175
50262SOL    HW152683  12.360   6.053   8.243
50262SOL    HW252684  12.244   5.959   8.216
50263SOL     OW52685   8.496  12.273   4.896
50263SOL    HW152686   8.422  12.220   4.867
50263SOL    HW252687   8.550  12.213   4.947
50264SOL     OW52688  14.484  10.548   0.888
50264SOL    HW152689  14.493  10.493   0.966
50264SOL    HW252690  14.457  10.633   0.922
50265SOL     OW52691   1.525   6.437   5.709
50265SOL    HW152692   1.551   6.518   5.666
50265SOL    HW252693   1.538   6.454   5.802
50266SOL     OW52694  10.364   5.954  13.118
50266SOL    HW152695  10.337   5.926  13.205
50266SOL    HW252696  10.321   5.892  13.058
50267SOL     OW52697   7.241  14.220   9.830
50267SOL    HW152698   7.282  14.221   9.744
50267SOL    HW252699   7.229  14.128   9.851
50268SOL     OW52700   4.824   2.868  13.107
50268SOL    HW152701   4.881   2.841  13.035
50268SOL    HW252702   4.765   2.793  13.121
50269SOL     OW52703   1.749   9.214  14.232
50269SOL    HW152704   1.752   9.301  14.191
50269SOL    HW252705   1.830   9.172  14.205
50270SOL     OW52706   8.832   4.994   9.067
50270SOL    HW152707   8.908   4.985   9.009
50270SOL    HW252708   8.778   5.062   9.025
50271SOL     OW52709   9.211   0.016  11.177
50271SOL    HW152710   9.259  14.815  11.183
50271SOL    HW252711   9.119  14.872  11.179
50272SOL     OW52712   0.609   8.302  10.026
50272SOL    HW152713   0.532   8.303  10.083
50272SOL    HW252714   0.683   8.292  10.086
50273SOL     OW52715   2.626   9.151   3.458
50273SOL    HW152716   2.548   9.196   3.427
50273SOL    HW252717   2.653   9.200   3.535
50274SOL     OW52718  10.834   4.278  13.433
50274SOL    HW152719  10.776   4.333  13.382
50274SOL    HW252720  10.777   4.210  13.469
50275SOL     OW52721   9.169  11.167  10.913
50275SOL    HW152722   9.160  11.187  11.006
50275SOL    HW252723   9.164  11.252  10.870
50276SOL     OW52724  10.645   1.425   3.730
50276SOL    HW152725  10.733   1.396   3.755
50276SOL    HW252726  10.621   1.490   3.796
50277SOL     OW52727   4.381   4.137   2.433
50277SOL    HW152728   4.347   4.104   2.349
50277SOL    HW252729   4.474   4.115   2.431
50278SOL     OW52730   6.589  12.172   6.305
50278SOL    HW152731   6.664  12.217   6.267
50278SOL    HW252732   6.557  12.116   6.234
50279SOL     OW52733   6.038   6.166   8.568
50279SOL    HW152734   6.111   6.187   8.510
50279SOL    HW252735   6.026   6.245   8.621
50280SOL     OW52736  12.759  10.779   0.967
50280SOL    HW152737  12.771  10.866   1.004
50280SOL    HW252738  12.797  10.720   1.032
50281SOL     OW52739   3.964   1.852   7.813
50281SOL    HW152740   4.010   1.935   7.828
50281SOL    HW252741   3.892   1.853   7.876
50282SOL     OW52742  13.487  11.274   1.272
50282SOL    HW152743  13.542  11.258   1.349
50282SOL    HW252744  13.449  11.361   1.287
50283SOL     OW52745   6.247  10.463   6.969
50283SOL    HW152746   6.280  10.379   6.937
50283SOL    HW252747   6.325  10.511   6.996
50284SOL     OW52748   7.574   5.665   7.853
50284SOL    HW152749   7.610   5.634   7.936
50284SOL    HW252750   7.592   5.759   7.853
50285SOL     OW52751   9.247   7.255   0.339
50285SOL    HW152752   9.213   7.197   0.408
50285SOL    HW252753   9.284   7.329   0.387
50286SOL     OW52754   2.775  11.154  11.252
50286SOL    HW152755   2.690  11.180  11.214
50286SOL    HW252756   2.775  11.194  11.339
50287SOL     OW52757  11.369  12.362  11.609
50287SOL    HW152758  11.281  12.337  11.583
50287SOL    HW252759  11.378  12.330  11.699
50288SOL     OW52760   7.510   2.660  10.996
50288SOL    HW152761   7.588   2.703  10.960
50288SOL    HW252762   7.523   2.567  10.976
50289SOL     OW52763   6.259   0.039   8.764
50289SOL    HW152764   6.281   0.130   8.780
50289SOL    HW252765   6.174   0.026   8.805
50290SOL     OW52766   3.815   7.179   7.271
50290SOL    HW152767   3.738   7.206   7.319
50290SOL    HW252768   3.792   7.193   7.179
50291SOL     OW52769   4.910   4.292   4.766
50291SOL    HW152770   4.893   4.279   4.859
50291SOL    HW252771   4.923   4.204   4.731
50292SOL     OW52772   0.413   0.259   9.098
50292SOL    HW152773   0.413   0.329   9.032
50292SOL    HW252774   0.469   0.292   9.168
50293SOL     OW52775   4.876   1.362   3.467
50293SOL    HW152776   4.849   1.450   3.437
50293SOL    HW252777   4.799   1.328   3.512
50294SOL     OW52778   5.217   9.195   8.443
50294SOL    HW152779   5.171   9.217   8.524
50294SOL    HW252780   5.161   9.230   8.374
50295SOL     OW52781  13.363   8.040   6.990
50295SOL    HW152782  13.277   8.066   6.957
50295SOL    HW252783  13.344   7.978   7.060
50296SOL     OW52784   5.714   0.495   4.450
50296SOL    HW152785   5.635   0.546   4.434
50296SOL    HW252786   5.684   0.419   4.500
50297SOL     OW52787   5.206   6.562  13.071
50297SOL    HW152788   5.237   6.478  13.035
50297SOL    HW252789   5.190   6.616  12.994
50298SOL     OW52790   0.098  13.787   9.159
50298SOL    HW152791   0.160  13.859   9.147
50298SOL    HW252792   0.013  13.829   9.168
50299SOL     OW52793   1.019   1.550   0.382
50299SOL    HW152794   0.991   1.488   0.449
50299SOL    HW252795   0.988   1.635   0.413
50300SOL     OW52796   7.803  10.269   3.010
50300SOL    HW152797   7.868  10.285   2.941
50300SOL    HW252798   7.846  10.297   3.091
50301SOL     OW52799   3.244  13.751   6.152
50301SOL    HW152800   3.161  13.787   6.185
50301SOL    HW252801   3.251  13.785   6.063
50302SOL     OW52802   4.517   0.086   3.488
50302SOL    HW152803   4.428   0.067   3.518
50302SOL    HW252804   4.546   0.004   3.447
50303SOL     OW52805  14.625  11.096   7.869
50303SOL    HW152806  14.613  11.116   7.962
50303SOL    HW252807  14.663  11.008   7.867
50304SOL     OW52808   3.716   1.391  12.445
50304SOL    HW152809   3.800   1.350  12.424
50304SOL    HW252810   3.651   1.324  12.424
50305SOL     OW52811   8.396   4.094   5.723
50305SOL    HW152812   8.424   4.176   5.683
50305SOL    HW252813   8.301   4.092   5.710
50306SOL     OW52814  12.614   9.831   8.813
50306SOL    HW152815  12.581   9.850   8.901
50306SOL    HW252816  12.550   9.873   8.754
50307SOL     OW52817   0.158   3.666  11.794
50307SOL    HW152818   0.079   3.709  11.826
50307SOL    HW252819   0.130   3.577  11.770
50308SOL     OW52820  12.641   8.094   0.828
50308SOL    HW152821  12.647   8.160   0.758
50308SOL    HW252822  12.668   8.141   0.907
50309SOL     OW52823  13.146   5.004  11.734
50309SOL    HW152824  13.055   5.032  11.732
50309SOL    HW252825  13.156   4.950  11.656
50310SOL     OW52826   5.708  14.648   1.931
50310SOL    HW152827   5.637  14.711   1.944
50310SOL    HW252828   5.761  14.656   2.010
50311SOL     OW52829  13.246  11.216   7.005
50311SOL    HW152830  13.182  11.267   7.055
50311SOL    HW252831  13.299  11.282   6.960
50312SOL     OW52832   8.801   7.528   4.295
50312SOL    HW152833   8.892   7.546   4.274
50312SOL    HW252834   8.792   7.433   4.284
50313SOL     OW52835   3.875  13.757   8.958
50313SOL    HW152836   3.884  13.673   9.003
50313SOL    HW252837   3.933  13.816   9.006
50314SOL     OW52838  11.350  10.608   9.455
50314SOL    HW152839  11.356  10.703   9.452
50314SOL    HW252840  11.421  10.581   9.514
50315SOL     OW52841   2.363   0.469   3.071
50315SOL    HW152842   2.287   0.459   3.127
50315SOL    HW252843   2.328   0.499   2.987
50316SOL     OW52844   5.716   8.914  11.225
50316SOL    HW152845   5.756   8.907  11.312
50316SOL    HW252846   5.776   8.971  11.176
50317SOL     OW52847  10.622   1.245   4.330
50317SOL    HW152848  10.677   1.195   4.390
50317SOL    HW252849  10.540   1.258   4.378
50318SOL     OW52850   8.952   3.264  12.559
50318SOL    HW152851   8.929   3.227  12.644
50318SOL    HW252852   8.993   3.192  12.511
50319SOL     OW52853   2.231  14.221   5.392
50319SOL    HW152854   2.255  14.165   5.466
50319SOL    HW252855   2.139  14.242   5.406
50320SOL     OW52856   8.337   5.456  12.252
50320SOL    HW152857   8.272   5.422  12.192
50320SOL    HW252858   8.340   5.392  12.324
50321SOL     OW52859   4.705  12.333   8.371
50321SOL    HW152860   4.663  12.311   8.288
50321SOL    HW252861   4.643  12.391   8.414
50322SOL     OW52862   2.744   2.172   5.381
50322SOL    HW152863   2.760   2.145   5.290
50322SOL    HW252864   2.711   2.093   5.424
50323SOL     OW52865   3.896   5.844   7.875
50323SOL    HW152866   3.983   5.850   7.915
50323SOL    HW252867   3.838   5.818   7.947
50324SOL     OW52868  13.276  10.219   2.238
50324SOL    HW152869  13.227  10.198   2.158
50324SOL    HW252870  13.368  10.216   2.211
50325SOL     OW52871   1.225  12.660  10.150
50325SOL    HW152872   1.277  12.715  10.091
50325SOL    HW252873   1.264  12.573  10.142
50326SOL     OW52874   2.479   9.174  11.819
50326SOL    HW152875   2.419   9.100  11.832
50326SOL    HW252876   2.563   9.142  11.849
50327SOL     OW52877   9.675   3.876  11.197
50327SOL    HW152878   9.628   3.958  11.209
50327SOL    HW252879   9.710   3.854  11.283
50328SOL     OW52880   9.631   2.050   1.692
50328SOL    HW152881   9.617   2.133   1.737
50328SOL    HW252882   9.558   2.043   1.631
50329SOL     OW52883   6.056  11.487   6.360
50329SOL    HW152884   6.099  11.430   6.297
50329SOL    HW252885   6.042  11.431   6.437
50330SOL     OW52886   0.883   8.120   1.293
50330SOL    HW152887   0.805   8.080   1.332
50330SOL    HW252888   0.954   8.058   1.312
50331SOL     OW52889   6.453   8.667   3.695
50331SOL    HW152890   6.543   8.634   3.696
50331SOL    HW252891   6.416   8.631   3.614
50332SOL     OW52892   3.936   0.205   3.210
50332SOL    HW152893   3.918   0.280   3.154
50332SOL    HW252894   3.852   0.160   3.218
50333SOL     OW52895  12.864   9.808  11.697
50333SOL    HW152896  12.915   9.770  11.768
50333SOL    HW252897  12.861   9.902  11.717
50334SOL     OW52898  12.391   7.458   3.882
50334SOL    HW152899  12.324   7.439   3.948
50334SOL    HW252900  12.345   7.510   3.817
50335SOL     OW52901   7.052  13.463  11.968
50335SOL    HW152902   7.091  13.377  11.950
50335SOL    HW252903   6.958  13.445  11.975
50336SOL     OW52904   0.279   9.751  13.434
50336SOL    HW152905   0.331   9.731  13.512
50336SOL    HW252906   0.340   9.740  13.361
50337SOL     OW52907  10.003   8.632   5.814
50337SOL    HW152908  10.054   8.559   5.779
50337SOL    HW252909  10.054   8.710   5.792
50338SOL     OW52910   2.717  10.288  10.439
50338SOL    HW152911   2.633  10.248  10.416
50338SOL    HW252912   2.733  10.353  10.370
50339SOL     OW52913  14.413   5.623   4.087
50339SOL    HW152914  14.424   5.717   4.101
50339SOL    HW252915  14.329   5.603   4.128
50340SOL     OW52916   8.929   2.752   5.890
50340SOL    HW152917   8.834   2.743   5.883
50340SOL    HW252918   8.947   2.841   5.860
50341SOL     OW52919   2.269   4.189   7.841
50341SOL    HW152920   2.355   4.174   7.801
50341SOL    HW252921   2.289   4.220   7.930
50342SOL     OW52922   6.114   7.879   0.450
50342SOL    HW152923   6.164   7.919   0.379
50342SOL    HW252924   6.058   7.950   0.483
50343SOL     OW52925  14.352   9.284   6.861
50343SOL    HW152926  14.316   9.201   6.890
50343SOL    HW252927  14.409   9.312   6.933
50344SOL     OW52928   9.031   7.171   5.867
50344SOL    HW152929   8.952   7.127   5.897
50344SOL    HW252930   9.008   7.264   5.863
50345SOL     OW52931  14.453   3.191   8.708
50345SOL    HW152932  14.391   3.263   8.724
50345SOL    HW252933  14.432   3.126   8.774
50346SOL     OW52934  13.163   1.955   8.207
50346SOL    HW152935  13.172   1.979   8.115
50346SOL    HW252936  13.069   1.939   8.219
50347SOL     OW52937  12.715  12.099   3.325
50347SOL    HW152938  12.785  12.041   3.355
50347SOL    HW252939  12.719  12.095   3.230
50348SOL     OW52940  12.294  14.178  12.960
50348SOL    HW152941  12.262  14.090  12.939
50348SOL    HW252942  12.347  14.166  13.039
50349SOL     OW52943  14.444  12.874  13.630
50349SOL    HW152944  14.384  12.891  13.557
50349SOL    HW252945  14.463  12.780  13.623
50350SOL     OW52946  13.193   5.596  12.194
50350SOL    HW152947  13.236   5.562  12.115
50350SOL    HW252948  13.212   5.531  12.262
50351SOL     OW52949   0.104  10.430  11.855
50351SOL    HW152950   0.093  10.448  11.761
50351SOL    HW252951   0.049  10.354  11.872
50352SOL     OW52952   5.790   5.056   8.185
50352SOL    HW152953   5.813   5.088   8.098
50352SOL    HW252954   5.823   5.123   8.245
50353SOL     OW52955   1.045   6.545   3.098
50353SOL    HW152956   1.063   6.504   3.183
50353SOL    HW252957   1.073   6.481   3.034
50354SOL     OW52958   6.435   0.005   0.470
50354SOL    HW152959   6.464   0.042   0.554
50354SOL    HW252960   6.340   0.011   0.473
50355SOL     OW52961   9.293  10.469   6.334
50355SOL    HW152962   9.380  10.462   6.373
50355SOL    HW252963   9.234  10.479   6.409
50356SOL     OW52964  12.456   8.270  12.684
50356SOL    HW152965  12.500   8.192  12.716
50356SOL    HW252966  12.447   8.326  12.761
50357SOL     OW52967  14.185  13.600  12.886
50357SOL    HW152968  14.105  13.579  12.839
50357SOL    HW252969  14.168  13.684  12.928
50358SOL     OW52970  14.365   3.955  13.030
50358SOL    HW152971  14.275   3.944  13.000
50358SOL    HW252972  14.357   3.961  13.126
50359SOL     OW52973  10.958   7.571   3.501
50359SOL    HW152974  10.927   7.534   3.419
50359SOL    HW252975  10.932   7.507   3.568
50360SOL     OW52976   0.861  11.046   8.124
50360SOL    HW152977   0.905  11.062   8.041
50360SOL    HW252978   0.769  11.036   8.102
50361SOL     OW52979   9.516   1.535  13.740
50361SOL    HW152980   9.451   1.605  13.743
50361SOL    HW252981   9.479   1.465  13.793
50362SOL     OW52982   3.318   9.007  13.194
50362SOL    HW152983   3.246   9.069  13.202
50362SOL    HW252984   3.279   8.932  13.148
50363SOL     OW52985  14.130   6.056   8.747
50363SOL    HW152986  14.162   5.966   8.741
50363SOL    HW252987  14.162   6.098   8.667
50364SOL     OW52988   8.816   6.649   7.491
50364SOL    HW152989   8.818   6.587   7.417
50364SOL    HW252990   8.889   6.621   7.547
50365SOL     OW52991   9.366   9.793  11.306
50365SOL    HW152992   9.336   9.769  11.393
50365SOL    HW252993   9.354   9.714  11.253
50366SOL     OW52994   1.601  12.080  11.976
50366SOL    HW152995   1.556  12.064  12.059
50366SOL    HW252996   1.542  12.043  11.910
50367SOL     OW52997   8.554   5.981   2.069
50367SOL    HW152998   8.536   5.923   1.994
50367SOL    HW252999   8.627   6.035   2.040
50368SOL     OW53000  10.001  14.420   3.756
50368SOL    HW153001  10.050  14.381   3.684
50368SOL    HW253002  10.036  14.379   3.834
50369SOL     OW53003   1.318   2.545   6.057
50369SOL    HW153004   1.401   2.591   6.068
50369SOL    HW253005   1.254   2.615   6.041
50370SOL     OW53006  12.291   7.868  12.189
50370SOL    HW153007  12.366   7.853  12.131
50370SOL    HW253008  12.214   7.853  12.133
50371SOL     OW53009  10.721   3.010  13.742
50371SOL    HW153010  10.764   2.962  13.670
50371SOL    HW253011  10.773   3.089  13.752
50372SOL     OW53012   9.313  11.785  10.007
50372SOL    HW153013   9.240  11.824   9.959
50372SOL    HW253014   9.357  11.860  10.047
50373SOL     OW53015   5.021   0.187   4.585
50373SOL    HW153016   4.936   0.142   4.584
50373SOL    HW253017   5.085   0.118   4.600
50374SOL     OW53018   7.458   8.568   3.352
50374SOL    HW153019   7.548   8.536   3.346
50374SOL    HW253020   7.448   8.626   3.278
50375SOL     OW53021   9.834   5.374   4.886
50375SOL    HW153022   9.900   5.315   4.849
50375SOL    HW253023   9.766   5.315   4.921
50376SOL     OW53024   9.442   4.213   2.348
50376SOL    HW153025   9.350   4.234   2.362
50376SOL    HW253026   9.445   4.177   2.259
50377SOL     OW53027  11.247   0.131   4.924
50377SOL    HW153028  11.174   0.187   4.896
50377SOL    HW253029  11.210   0.043   4.926
50378SOL     OW53030  13.823   0.788  14.595
50378SOL    HW153031  13.786   0.876  14.593
50378SOL    HW253032  13.903   0.794  14.543
50379SOL     OW53033   6.906   1.886   0.813
50379SOL    HW153034   6.925   1.828   0.740
50379SOL    HW253035   6.969   1.861   0.881
50380SOL     OW53036  12.048   4.927   9.494
50380SOL    HW153037  11.965   4.883   9.475
50380SOL    HW253038  12.092   4.934   9.410
50381SOL     OW53039   2.226   9.018   3.063
50381SOL    HW153040   2.223   8.951   3.131
50381SOL    HW253041   2.230   9.101   3.111
50382SOL     OW53042   6.954   5.246  10.724
50382SOL    HW153043   6.877   5.287  10.762
50382SOL    HW253044   7.028   5.295  10.758
50383SOL     OW53045   8.170   9.435  14.468
50383SOL    HW153046   8.259   9.464  14.486
50383SOL    HW253047   8.147   9.379  14.543
50384SOL     OW53048   1.582  11.967   8.268
50384SOL    HW153049   1.670  11.955   8.233
50384SOL    HW253050   1.542  12.032   8.212
50385SOL     OW53051   8.954  10.558   5.906
50385SOL    HW153052   8.943  10.503   5.984
50385SOL    HW253053   9.015  10.510   5.850
50386SOL     OW53054   7.517   8.838  11.940
50386SOL    HW153055   7.425   8.842  11.915
50386SOL    HW253056   7.516   8.800  12.028
50387SOL     OW53057   5.126   3.475   1.353
50387SOL    HW153058   5.069   3.546   1.324
50387SOL    HW253059   5.180   3.455   1.276
50388SOL     OW53060   6.441   3.966  12.438
50388SOL    HW153061   6.361   4.013  12.413
50388SOL    HW253062   6.511   4.010  12.390
50389SOL     OW53063   5.000  12.435   5.349
50389SOL    HW153064   4.949  12.503   5.392
50389SOL    HW253065   4.996  12.360   5.409
50390SOL     OW53066   4.621   2.172   2.048
50390SOL    HW153067   4.535   2.213   2.060
50390SOL    HW253068   4.607   2.107   1.980
50391SOL     OW53069   0.553   1.533   5.108
50391SOL    HW153070   0.535   1.609   5.052
50391SOL    HW253071   0.491   1.466   5.079
50392SOL     OW53072   3.251   7.765  11.209
50392SOL    HW153073   3.177   7.716  11.172
50392SOL    HW253074   3.312   7.776  11.136
50393SOL     OW53075  12.501   6.198   0.985
50393SOL    HW153076  12.440   6.270   0.971
50393SOL    HW253077  12.501   6.184   1.080
50394SOL     OW53078   8.821   7.468   4.730
50394SOL    HW153079   8.818   7.533   4.800
50394SOL    HW253080   8.891   7.498   4.672
50395SOL     OW53081   0.460   9.718   9.862
50395SOL    HW153082   0.393   9.669   9.910
50395SOL    HW253083   0.540   9.667   9.876
50396SOL     OW53084  11.956   7.266   7.239
50396SOL    HW153085  11.873   7.311   7.252
50396SOL    HW253086  12.000   7.271   7.324
50397SOL     OW53087   1.067   5.562  10.220
50397SOL    HW153088   1.008   5.498  10.180
50397SOL    HW253089   1.085   5.528  10.307
50398SOL     OW53090   2.935   3.423   8.188
50398SOL    HW153091   3.011   3.400   8.241
50398SOL    HW253092   2.964   3.413   8.097
50399SOL     OW53093   5.371   9.106  14.559
50399SOL    HW153094   5.462   9.077  14.559
50399SOL    HW253095   5.353   9.130  14.650
50400SOL     OW53096  13.511   6.556   5.366
50400SOL    HW153097  13.566   6.487   5.404
50400SOL    HW253098  13.505   6.621   5.436
50401SOL     OW53099   8.204   1.047   7.338
50401SOL    HW153100   8.166   1.038   7.425
50401SOL    HW253101   8.146   0.996   7.282
50402SOL     OW53102   1.369  11.789   6.977
50402SOL    HW153103   1.346  11.858   6.915
50402SOL    HW253104   1.289  11.736   6.984
50403SOL     OW53105   3.060   0.471   1.669
50403SOL    HW153106   3.065   0.562   1.698
50403SOL    HW253107   3.096   0.472   1.580
50404SOL     OW53108   9.583  11.841  11.079
50404SOL    HW153109   9.664  11.883  11.050
50404SOL    HW253110   9.546  11.903  11.142
50405SOL     OW53111   5.173   2.451   7.869
50405SOL    HW153112   5.212   2.521   7.921
50405SOL    HW253113   5.226   2.448   7.789
50406SOL     OW53114  14.750   3.572   7.657
50406SOL    HW153115  14.666   3.611   7.682
50406SOL    HW253116  14.790   3.545   7.740
50407SOL     OW53117   4.847   2.871  10.275
50407SOL    HW153118   4.773   2.927  10.299
50407SOL    HW253119   4.885   2.845  10.359
50408SOL     OW53120   8.265  12.901   4.824
50408SOL    HW153121   8.323  12.837   4.782
50408SOL    HW253122   8.320  12.943   4.890
50409SOL     OW53123   0.602   4.538  14.867
50409SOL    HW153124   0.529   4.578  14.819
50409SOL    HW253125   0.612   4.592   0.063
50410SOL     OW53126  13.721   2.734   1.089
50410SOL    HW153127  13.631   2.729   1.124
50410SOL    HW253128  13.727   2.822   1.053
50411SOL     OW53129   7.069  14.046   7.723
50411SOL    HW153130   6.976  14.049   7.701
50411SOL    HW253131   7.098  13.961   7.691
50412SOL     OW53132  11.743   3.625   6.589
50412SOL    HW153133  11.687   3.584   6.523
50412SOL    HW253134  11.682   3.657   6.656
50413SOL     OW53135   4.437   3.061  12.942
50413SOL    HW153136   4.391   3.119  13.003
50413SOL    HW253137   4.464   2.986  12.996
50414SOL     OW53138   5.418   9.751  10.459
50414SOL    HW153139   5.452   9.748  10.370
50414SOL    HW253140   5.494   9.739  10.515
50415SOL     OW53141   0.078   1.423  10.359
50415SOL    HW153142   0.085   1.454  10.449
50415SOL    HW253143   0.125   1.340  10.359
50416SOL     OW53144   3.391   0.444   4.672
50416SOL    HW153145   3.337   0.502   4.618
50416SOL    HW253146   3.352   0.450   4.759
50417SOL     OW53147   4.723  13.751   6.930
50417SOL    HW153148   4.639  13.787   6.960
50417SOL    HW253149   4.727  13.664   6.970
50418SOL     OW53150  13.581   9.123   3.045
50418SOL    HW153151  13.496   9.092   3.013
50418SOL    HW253152  13.581   9.217   3.025
50419SOL     OW53153   6.092  13.960  12.283
50419SOL    HW153154   6.125  14.049  12.291
50419SOL    HW253155   6.039  13.947  12.362
50420SOL     OW53156   8.676   8.150  13.302
50420SOL    HW153157   8.681   8.241  13.274
50420SOL    HW253158   8.605   8.112  13.251
50421SOL     OW53159   8.530  12.692   3.287
50421SOL    HW153160   8.620  12.687   3.254
50421SOL    HW253161   8.485  12.617   3.248
50422SOL     OW53162   4.590   5.616  11.297
50422SOL    HW153163   4.664   5.561  11.324
50422SOL    HW253164   4.517   5.555  11.288
50423SOL     OW53165   1.982  12.541   2.571
50423SOL    HW153166   1.944  12.554   2.658
50423SOL    HW253167   2.064  12.494   2.587
50424SOL     OW53168   5.738  14.273  13.822
50424SOL    HW153169   5.721  14.365  13.843
50424SOL    HW253170   5.757  14.232  13.907
50425SOL     OW53171   5.524   7.064   3.964
50425SOL    HW153172   5.600   7.081   3.908
50425SOL    HW253173   5.466   7.138   3.949
50426SOL     OW53174  14.463   9.289  14.271
50426SOL    HW153175  14.540   9.328  14.228
50426SOL    HW253176  14.392   9.302  14.208
50427SOL     OW53177   3.761   1.805  13.198
50427SOL    HW153178   3.801   1.833  13.116
50427SOL    HW253179   3.670   1.835  13.192
50428SOL     OW53180   8.813  14.548   5.090
50428SOL    HW153181   8.848  14.498   5.164
50428SOL    HW253182   8.799  14.482   5.022
50429SOL     OW53183   2.168  13.475  14.815
50429SOL    HW153184   2.165  13.530  14.736
50429SOL    HW253185   2.083  13.491  14.857
50430SOL     OW53186   2.491   5.321   3.791
50430SOL    HW153187   2.485   5.412   3.763
50430SOL    HW253188   2.430   5.314   3.865
50431SOL     OW53189   1.629  12.173   1.923
50431SOL    HW153190   1.687  12.105   1.958
50431SOL    HW253191   1.647  12.250   1.977
50432SOL     OW53192   2.641  11.885  10.410
50432SOL    HW153193   2.651  11.827  10.334
50432SOL    HW253194   2.682  11.967  10.383
50433SOL     OW53195   5.400   2.748   0.318
50433SOL    HW153196   5.326   2.796   0.355
50433SOL    HW253197   5.439   2.703   0.394
50434SOL     OW53198  13.191   9.768  14.094
50434SOL    HW153199  13.237   9.762  14.178
50434SOL    HW253200  13.211   9.686  14.049
50435SOL     OW53201  11.250   2.904  13.388
50435SOL    HW153202  11.289   2.992  13.393
50435SOL    HW253203  11.210   2.901  13.301
50436SOL     OW53204   7.807  10.707  10.905
50436SOL    HW153205   7.899  10.728  10.923
50436SOL    HW253206   7.760  10.789  10.921
50437SOL     OW53207   7.685   9.655   7.004
50437SOL    HW153208   7.594   9.686   7.007
50437SOL    HW253209   7.709   9.662   6.911
50438SOL     OW53210  14.799   9.022   7.553
50438SOL    HW153211  14.806   8.931   7.581
50438SOL    HW253212  14.743   9.064   7.619
50439SOL     OW53213  11.320   1.492   3.466
50439SOL    HW153214  11.312   1.480   3.560
50439SOL    HW253215  11.304   1.586   3.453
50440SOL     OW53216   6.570   7.539   5.708
50440SOL    HW153217   6.538   7.605   5.646
50440SOL    HW253218   6.664   7.533   5.691
50441SOL     OW53219   0.399   8.082  12.152
50441SOL    HW153220   0.419   8.071  12.245
50441SOL    HW253221   0.328   8.021  12.135
50442SOL     OW53222  11.613   5.673   7.167
50442SOL    HW153223  11.664   5.698   7.090
50442SOL    HW253224  11.679   5.658   7.235
50443SOL     OW53225   4.192   5.422  11.633
50443SOL    HW153226   4.207   5.511  11.666
50443SOL    HW253227   4.224   5.424  11.543
50444SOL     OW53228   0.024   9.082   3.523
50444SOL    HW153229  14.873   9.059   3.437
50444SOL    HW253230   0.115   9.107   3.508
50445SOL     OW53231   0.955  14.722   3.034
50445SOL    HW153232   0.957  14.634   2.998
50445SOL    HW253233   0.896  14.717   3.109
50446SOL     OW53234   9.939  11.778   0.088
50446SOL    HW153235   9.967  11.741   0.004
50446SOL    HW253236   9.887  11.855   0.064
50447SOL     OW53237  10.787   9.274  12.931
50447SOL    HW153238  10.720   9.334  12.964
50447SOL    HW253239  10.795   9.297  12.838
50448SOL     OW53240  10.358  11.132   6.562
50448SOL    HW153241  10.411  11.195   6.512
50448SOL    HW253242  10.342  11.060   6.500
50449SOL     OW53243  14.285   1.928  13.449
50449SOL    HW153244  14.317   1.988  13.517
50449SOL    HW253245  14.349   1.858  13.447
50450SOL     OW53246   3.953  10.804   5.158
50450SOL    HW153247   4.025  10.828   5.101
50450SOL    HW253248   3.931  10.884   5.205
50451SOL     OW53249  10.974  11.080   2.968
50451SOL    HW153250  10.887  11.074   2.929
50451SOL    HW253251  10.985  10.996   3.014
50452SOL     OW53252   1.866   9.451  14.447
50452SOL    HW153253   1.875   9.474  14.355
50452SOL    HW253254   1.787   9.396  14.451
50453SOL     OW53255   8.750  14.417  11.795
50453SOL    HW153256   8.795  14.472  11.731
50453SOL    HW253257   8.658  14.443  11.787
50454SOL     OW53258   5.482   9.410   4.965
50454SOL    HW153259   5.559   9.366   4.932
50454SOL    HW253260   5.467   9.482   4.903
50455SOL     OW53261   6.498  14.796   6.075
50455SOL    HW153262   6.457  14.746   6.004
50455SOL    HW253263   6.588  14.761   6.080
50456SOL     OW53264   2.126  13.713   6.590
50456SOL    HW153265   2.115  13.624   6.559
50456SOL    HW253266   2.068  13.765   6.535
50457SOL     OW53267  11.383   8.588  10.462
50457SOL    HW153268  11.406   8.496  10.454
50457SOL    HW253269  11.345   8.612  10.377
50458SOL     OW53270   6.609   7.027   1.758
50458SOL    HW153271   6.596   6.939   1.794
50458SOL    HW253272   6.523   7.068   1.764
50459SOL     OW53273  10.623   5.960  10.475
50459SOL    HW153274  10.682   6.025  10.514
50459SOL    HW253275  10.680   5.909  10.417
50460SOL     OW53276   4.507   5.699  12.424
50460SOL    HW153277   4.455   5.774  12.455
50460SOL    HW253278   4.441   5.632  12.403
50461SOL     OW53279  10.946  12.308   0.862
50461SOL    HW153280  11.008  12.334   0.794
50461SOL    HW253281  10.871  12.366   0.849
50462SOL     OW53282   7.783   6.286   2.857
50462SOL    HW153283   7.772   6.350   2.787
50462SOL    HW253284   7.857   6.318   2.909
50463SOL     OW53285   7.582   7.334   7.949
50463SOL    HW153286   7.537   7.411   7.983
50463SOL    HW253287   7.672   7.362   7.936
50464SOL     OW53288   0.400  13.927   6.823
50464SOL    HW153289   0.345  13.883   6.888
50464SOL    HW253290   0.480  13.950   6.870
50465SOL     OW53291   5.313   5.701  14.243
50465SOL    HW153292   5.280   5.724  14.330
50465SOL    HW253293   5.264   5.623  14.219
50466SOL     OW53294   2.069  14.019   5.571
50466SOL    HW153295   1.979  14.043   5.592
50466SOL    HW253296   2.122  14.066   5.634
50467SOL     OW53297   9.381   1.248   9.387
50467SOL    HW153298   9.461   1.290   9.418
50467SOL    HW253299   9.322   1.321   9.367
50468SOL     OW53300  14.599  13.643   6.436
50468SOL    HW153301  14.629  13.562   6.395
50468SOL    HW253302  14.680  13.689   6.461
50469SOL     OW53303   8.137   7.629  11.097
50469SOL    HW153304   8.076   7.555  11.101
50469SOL    HW253305   8.096   7.696  11.153
50470SOL     OW53306  14.255   9.232   8.837
50470SOL    HW153307  14.235   9.163   8.773
50470SOL    HW253308  14.345   9.257   8.817
50471SOL     OW53309  11.698   8.582   7.111
50471SOL    HW153310  11.635   8.595   7.040
50471SOL    HW253311  11.666   8.504   7.157
50472SOL     OW53312  10.530   7.629   0.244
50472SOL    HW153313  10.478   7.709   0.231
50472SOL    HW253314  10.480   7.561   0.200
50473SOL     OW53315   7.573   1.215   2.463
50473SOL    HW153316   7.483   1.184   2.452
50473SOL    HW253317   7.594   1.193   2.554
50474SOL     OW53318   0.839   3.781   8.898
50474SOL    HW153319   0.892   3.701   8.904
50474SOL    HW253320   0.900   3.852   8.919
50475SOL     OW53321   1.282   0.560   6.699
50475SOL    HW153322   1.360   0.506   6.712
50475SOL    HW253323   1.214   0.498   6.672
50476SOL     OW53324  13.522   5.234   9.305
50476SOL    HW153325  13.505   5.298   9.235
50476SOL    HW253326  13.564   5.161   9.261
50477SOL     OW53327  14.192   1.111   3.361
50477SOL    HW153328  14.111   1.073   3.396
50477SOL    HW253329  14.182   1.107   3.266
50478SOL     OW53330  13.017   6.174   6.693
50478SOL    HW153331  12.968   6.256   6.696
50478SOL    HW253332  12.950   6.106   6.685
50479SOL     OW53333  11.118   2.711  14.422
50479SOL    HW153334  11.093   2.759  14.500
50479SOL    HW253335  11.100   2.771  14.350
50480SOL     OW53336   2.436   9.470   1.764
50480SOL    HW153337   2.509   9.408   1.760
50480SOL    HW253338   2.375   9.429   1.825
50481SOL     OW53339   0.294   0.311   4.036
50481SOL    HW153340   0.284   0.271   4.122
50481SOL    HW253341   0.347   0.390   4.053
50482SOL     OW53342   3.759   7.177   3.283
50482SOL    HW153343   3.705   7.256   3.281
50482SOL    HW253344   3.755   7.147   3.374
50483SOL     OW53345   0.833  12.418  12.305
50483SOL    HW153346   0.829  12.456  12.217
50483SOL    HW253347   0.772  12.471  12.356
50484SOL     OW53348   0.908   3.567  13.915
50484SOL    HW153349   0.885   3.484  13.959
50484SOL    HW253350   0.905   3.632  13.985
50485SOL     OW53351  13.945   5.955   3.065
50485SOL    HW153352  13.877   5.888   3.069
50485SOL    HW253353  13.901   6.035   3.095
50486SOL     OW53354   9.161   6.956  11.138
50486SOL    HW153355   9.115   6.922  11.215
50486SOL    HW253356   9.213   7.029  11.171
50487SOL     OW53357  14.112   5.057  12.676
50487SOL    HW153358  14.124   5.065  12.582
50487SOL    HW253359  14.135   5.144  12.711
50488SOL     OW53360   5.692   5.475   7.289
50488SOL    HW153361   5.704   5.570   7.292
50488SOL    HW253362   5.750   5.442   7.357
50489SOL     OW53363   3.221   1.951   2.043
50489SOL    HW153364   3.217   1.996   1.958
50489SOL    HW253365   3.305   1.906   2.042
50490SOL     OW53366  12.770   3.710   9.615
50490SOL    HW153367  12.678   3.682   9.616
50490SOL    HW253368  12.788   3.735   9.706
50491SOL     OW53369   5.892  12.858  11.498
50491SOL    HW153370   5.826  12.790  11.511
50491SOL    HW253371   5.931  12.870  11.585
50492SOL     OW53372   9.050   2.571   6.290
50492SOL    HW153373   9.058   2.654   6.336
50492SOL    HW253374   9.129   2.523   6.313
50493SOL     OW53375   6.922   9.269   0.621
50493SOL    HW153376   6.941   9.354   0.581
50493SOL    HW253377   6.850   9.233   0.569
50494SOL     OW53378  12.472   5.935   3.529
50494SOL    HW153379  12.537   5.980   3.583
50494SOL    HW253380  12.392   5.937   3.580
50495SOL     OW53381   3.190   6.967   1.572
50495SOL    HW153382   3.156   6.878   1.558
50495SOL    HW253383   3.116   7.014   1.610
50496SOL     OW53384   9.749  10.604   2.404
50496SOL    HW153385   9.699  10.668   2.352
50496SOL    HW253386   9.695  10.525   2.403
50497SOL     OW53387   2.410  10.725   1.939
50497SOL    HW153388   2.462  10.805   1.928
50497SOL    HW253389   2.324  10.756   1.966
50498SOL     OW53390   6.719   0.885   0.023
50498SOL    HW153391   6.803   0.930   0.026
50498SOL    HW253392   6.667   0.926   0.092
50499SOL     OW53393   3.907  13.499  11.184
50499SOL    HW153394   3.944  13.555  11.116
50499SOL    HW253395   3.813  13.499  11.166
50500SOL     OW53396   7.180   9.482  13.303
50500SOL    HW153397   7.160   9.471  13.210
50500SOL    HW253398   7.170   9.394  13.340
50501SOL     OW53399   8.491   8.443  11.474
50501SOL    HW153400   8.405   8.483  11.492
50501SOL    HW253401   8.553   8.501  11.518
50502SOL     OW53402   0.418   3.700   9.924
50502SOL    HW153403   0.363   3.777   9.911
50502SOL    HW253404   0.363   3.626   9.897
50503SOL     OW53405   1.850  14.757  10.334
50503SOL    HW153406   1.791  14.704  10.280
50503SOL    HW253407   1.793  14.809  10.389
50504SOL     OW53408   0.013   1.395  13.339
50504SOL    HW153409   0.097   1.406  13.295
50504SOL    HW253410  14.859   1.315  13.302
50505SOL     OW53411   6.871   6.526   5.689
50505SOL    HW153412   6.957   6.506   5.726
50505SOL    HW253413   6.846   6.609   5.729
50506SOL     OW53414   0.615  14.201   2.368
50506SOL    HW153415   0.560  14.231   2.441
50506SOL    HW253416   0.682  14.269   2.359
50507SOL     OW53417   3.430   2.353   9.579
50507SOL    HW153418   3.524   2.367   9.586
50507SOL    HW253419   3.398   2.361   9.668
50508SOL     OW53420   8.357  11.962   5.967
50508SOL    HW153421   8.338  11.892   5.905
50508SOL    HW253422   8.436  12.004   5.933
50509SOL     OW53423   0.022   0.058   0.675
50509SOL    HW153424   0.068  14.859   0.698
50509SOL    HW253425  14.811   0.034   0.678
50510SOL     OW53426   2.318  12.038  13.732
50510SOL    HW153427   2.223  12.036  13.741
50510SOL    HW253428   2.348  11.954  13.767
50511SOL     OW53429   2.790  10.255  13.059
50511SOL    HW153430   2.875  10.251  13.016
50511SOL    HW253431   2.810  10.274  13.151
50512SOL     OW53432   5.041   1.167  11.408
50512SOL    HW153433   5.010   1.181  11.318
50512SOL    HW253434   4.985   1.223  11.462
50513SOL     OW53435   8.759  11.682   9.512
50513SOL    HW153436   8.822  11.740   9.554
50513SOL    HW253437   8.810  11.605   9.486
50514SOL     OW53438   9.475  14.020  14.410
50514SOL    HW153439   9.562  14.010  14.371
50514SOL    HW253440   9.460  14.115  14.411
50515SOL     OW53441   8.713   8.356   5.320
50515SOL    HW153442   8.698   8.436   5.270
50515SOL    HW253443   8.671   8.373   5.405
50516SOL     OW53444   3.706  13.705  11.899
50516SOL    HW153445   3.793  13.730  11.867
50516SOL    HW253446   3.662  13.789  11.915
50517SOL     OW53447   7.561  12.403   5.416
50517SOL    HW153448   7.560  12.415   5.511
50517SOL    HW253449   7.497  12.466   5.382
50518SOL     OW53450   4.614   6.878   9.075
50518SOL    HW153451   4.591   6.893   9.167
50518SOL    HW253452   4.698   6.832   9.079
50519SOL     OW53453  14.242   6.479   5.229
50519SOL    HW153454  14.244   6.384   5.216
50519SOL    HW253455  14.323   6.499   5.276
50520SOL     OW53456  14.786   0.290   2.389
50520SOL    HW153457  14.802   0.379   2.420
50520SOL    HW253458  14.703   0.265   2.428
50521SOL     OW53459   3.048   0.429   9.172
50521SOL    HW153460   3.128   0.405   9.124
50521SOL    HW253461   3.080   0.479   9.248
50522SOL     OW53462   9.112   0.127   3.525
50522SOL    HW153463   9.120   0.058   3.591
50522SOL    HW253464   9.048   0.187   3.562
50523SOL     OW53465   4.090   2.493   5.362
50523SOL    HW153466   4.114   2.427   5.297
50523SOL    HW253467   4.083   2.574   5.312
50524SOL     OW53468   8.250   2.176   3.966
50524SOL    HW153469   8.213   2.261   3.943
50524SOL    HW253470   8.194   2.143   4.036
50525SOL     OW53471   7.210   5.562   4.451
50525SOL    HW153472   7.201   5.593   4.362
50525SOL    HW253473   7.124   5.525   4.472
50526SOL     OW53474  11.382   0.510   5.293
50526SOL    HW153475  11.409   0.536   5.381
50526SOL    HW253476  11.464   0.496   5.246
50527SOL     OW53477   6.875  10.615  10.059
50527SOL    HW153478   6.804  10.649  10.003
50527SOL    HW253479   6.949  10.605  10.000
50528SOL     OW53480   0.837   6.010   7.435
50528SOL    HW153481   0.929   5.992   7.456
50528SOL    HW253482   0.822   6.098   7.470
50529SOL     OW53483  13.348   1.380  11.715
50529SOL    HW153484  13.303   1.433  11.780
50529SOL    HW253485  13.441   1.396  11.730
50530SOL     OW53486  13.579   0.852  10.143
50530SOL    HW153487  13.623   0.921  10.094
50530SOL    HW253488  13.650   0.807  10.190
50531SOL     OW53489   0.140   0.086  10.233
50531SOL    HW153490   0.047   0.077  10.213
50531SOL    HW253491   0.178   0.002  10.207
50532SOL     OW53492  11.592   4.270  11.329
50532SOL    HW153493  11.548   4.341  11.376
50532SOL    HW253494  11.621   4.310  11.247
50533SOL     OW53495   7.248   0.983  11.738
50533SOL    HW153496   7.317   1.045  11.716
50533SOL    HW253497   7.286   0.930  11.809
50534SOL     OW53498   1.448   4.556   2.975
50534SOL    HW153499   1.482   4.475   3.012
50534SOL    HW253500   1.525   4.613   2.968
50535SOL     OW53501   0.187   8.678   8.141
50535SOL    HW153502   0.150   8.766   8.138
50535SOL    HW253503   0.202   8.655   8.050
50536SOL     OW53504  13.728   8.477  13.839
50536SOL    HW153505  13.776   8.427  13.773
50536SOL    HW253506  13.696   8.412  13.901
50537SOL     OW53507   1.476   8.835   6.420
50537SOL    HW153508   1.556   8.783   6.414
50537SOL    HW253509   1.454   8.855   6.329
50538SOL     OW53510   8.589   7.947   8.497
50538SOL    HW153511   8.547   8.007   8.436
50538SOL    HW253512   8.532   7.945   8.574
50539SOL     OW53513  12.162   3.501   9.971
50539SOL    HW153514  12.067   3.491   9.961
50539SOL    HW253515  12.181   3.586   9.931
50540SOL     OW53516   7.026   6.521   2.290
50540SOL    HW153517   7.016   6.454   2.358
50540SOL    HW253518   7.120   6.531   2.279
50541SOL     OW53519   0.499  14.249   0.564
50541SOL    HW153520   0.421  14.209   0.528
50541SOL    HW253521   0.500  14.221   0.656
50542SOL     OW53522   7.596   6.911   0.439
50542SOL    HW153523   7.612   6.929   0.346
50542SOL    HW253524   7.660   6.844   0.462
50543SOL     OW53525   6.580   5.557   7.723
50543SOL    HW153526   6.575   5.462   7.709
50543SOL    HW253527   6.496   5.579   7.764
50544SOL     OW53528   8.707   4.506  14.524
50544SOL    HW153529   8.652   4.520  14.601
50544SOL    HW253530   8.654   4.452  14.466
50545SOL     OW53531   9.918  12.221   5.844
50545SOL    HW153532   9.932  12.282   5.916
50545SOL    HW253533   9.849  12.261   5.791
50546SOL     OW53534  14.402   3.607  10.581
50546SOL    HW153535  14.431   3.691  10.545
50546SOL    HW253536  14.464   3.587  10.651
50547SOL     OW53537  10.764   9.726   3.029
50547SOL    HW153538  10.748   9.666   2.955
50547SOL    HW253539  10.851   9.761   3.013
50548SOL     OW53540   5.218  14.839   2.104
50548SOL    HW153541   5.228   0.019   2.031
50548SOL    HW253542   5.171   0.007   2.171
50549SOL     OW53543   3.664   5.932   2.456
50549SOL    HW153544   3.731   5.929   2.387
50549SOL    HW253545   3.582   5.940   2.408
50550SOL     OW53546  12.408   3.456   9.335
50550SOL    HW153547  12.328   3.434   9.288
50550SOL    HW253548  12.441   3.534   9.289
50551SOL     OW53549   0.188   4.961  13.418
50551SOL    HW153550   0.281   4.955  13.400
50551SOL    HW253551   0.145   4.927  13.339
50552SOL     OW53552   4.456  12.051   9.065
50552SOL    HW153553   4.534  12.065   9.012
50552SOL    HW253554   4.386  12.038   9.001
50553SOL     OW53555   7.295   3.547   8.958
50553SOL    HW153556   7.333   3.479   9.013
50553SOL    HW253557   7.289   3.507   8.871
50554SOL     OW53558  13.025  12.653  13.322
50554SOL    HW153559  12.941  12.663  13.367
50554SOL    HW253560  13.081  12.609  13.385
50555SOL     OW53561   3.894   6.307   5.485
50555SOL    HW153562   3.834   6.367   5.528
50555SOL    HW253563   3.838   6.256   5.426
50556SOL     OW53564  10.254   9.875   2.561
50556SOL    HW153565  10.261   9.931   2.484
50556SOL    HW253566  10.307   9.798   2.539
50557SOL     OW53567   5.044   5.075   7.535
50557SOL    HW153568   5.029   4.985   7.506
50557SOL    HW253569   5.137   5.080   7.554
50558SOL     OW53570   0.954   1.349   5.367
50558SOL    HW153571   0.934   1.256   5.359
50558SOL    HW253572   0.876   1.393   5.334
50559SOL     OW53573   4.391   9.748   5.863
50559SOL    HW153574   4.453   9.755   5.791
50559SOL    HW253575   4.442   9.772   5.941
50560SOL     OW53576   8.690   8.711   9.799
50560SOL    HW153577   8.650   8.780   9.851
50560SOL    HW253578   8.782   8.735   9.793
50561SOL     OW53579   7.258   3.134   4.441
50561SOL    HW153580   7.319   3.208   4.449
50561SOL    HW253581   7.239   3.129   4.347
50562SOL     OW53582  13.260   5.197  14.843
50562SOL    HW153583  13.197   5.220   0.030
50562SOL    HW253584  13.213   5.134  14.788
50563SOL     OW53585   2.092  12.671  11.633
50563SOL    HW153586   2.116  12.637  11.720
50563SOL    HW253587   2.011  12.625  11.611
50564SOL     OW53588   5.739  13.287   1.079
50564SOL    HW153589   5.740  13.300   1.174
50564SOL    HW253590   5.688  13.361   1.046
50565SOL     OW53591   8.371  14.264   3.993
50565SOL    HW153592   8.341  14.193   3.937
50565SOL    HW253593   8.409  14.328   3.933
50566SOL     OW53594  14.394   8.043  14.365
50566SOL    HW153595  14.370   8.025  14.274
50566SOL    HW253596  14.330   8.109  14.394
50567SOL     OW53597   0.977   5.065   9.977
50567SOL    HW153598   0.894   5.112   9.972
50567SOL    HW253599   0.977   5.025  10.065
50568SOL     OW53600   6.745   3.299   0.742
50568SOL    HW153601   6.829   3.256   0.727
50568SOL    HW253602   6.705   3.248   0.813
50569SOL     OW53603   0.774   1.532   9.571
50569SOL    HW153604   0.720   1.594   9.523
50569SOL    HW253605   0.842   1.505   9.509
50570SOL     OW53606   0.813   0.756   9.578
50570SOL    HW153607   0.725   0.792   9.581
50570SOL    HW253608   0.862   0.814   9.520
50571SOL     OW53609   2.295   9.164   3.557
50571SOL    HW153610   2.338   9.242   3.521
50571SOL    HW253611   2.233   9.138   3.489
50572SOL     OW53612   7.733  12.680   5.440
50572SOL    HW153613   7.777  12.658   5.358
50572SOL    HW253614   7.771  12.619   5.504
50573SOL     OW53615   6.008   3.191   6.417
50573SOL    HW153616   5.922   3.188   6.458
50573SOL    HW253617   5.993   3.161   6.328
50574SOL     OW53618  10.992   9.856  11.647
50574SOL    HW153619  10.987   9.894  11.734
50574SOL    HW253620  11.021   9.928  11.591
50575SOL     OW53621   4.979   0.371   2.999
50575SOL    HW153622   4.900   0.384   3.050
50575SOL    HW253623   5.046   0.421   3.046
50576SOL     OW53624   7.526  10.673   7.618
50576SOL    HW153625   7.503  10.719   7.537
50576SOL    HW253626   7.462  10.602   7.625
50577SOL     OW53627   1.309   7.109  13.704
50577SOL    HW153628   1.214   7.094  13.700
50577SOL    HW253629   1.347   7.024  13.682
50578SOL     OW53630   2.630   1.232   6.841
50578SOL    HW153631   2.580   1.289   6.782
50578SOL    HW253632   2.603   1.259   6.929
50579SOL     OW53633   3.096   9.868   8.680
50579SOL    HW153634   3.044   9.905   8.752
50579SOL    HW253635   3.153   9.939   8.653
50580SOL     OW53636   2.811  13.831   1.415
50580SOL    HW153637   2.905  13.840   1.430
50580SOL    HW253638   2.805  13.775   1.337
50581SOL     OW53639  10.195   8.346  11.991
50581SOL    HW153640  10.202   8.251  11.992
50581SOL    HW253641  10.285   8.377  11.999
50582SOL     OW53642   6.434   7.553  12.236
50582SOL    HW153643   6.352   7.569  12.190
50582SOL    HW253644   6.486   7.501  12.175
50583SOL     OW53645   6.697   2.717   8.857
50583SOL    HW153646   6.688   2.630   8.817
50583SOL    HW253647   6.716   2.775   8.783
50584SOL     OW53648   1.137   7.056   0.137
50584SOL    HW153649   1.127   7.033   0.045
50584SOL    HW253650   1.230   7.073   0.148
50585SOL     OW53651   6.823  12.537   6.004
50585SOL    HW153652   6.894  12.598   6.026
50585SOL    HW253653   6.856  12.488   5.929
50586SOL     OW53654   5.917   6.702   9.489
50586SOL    HW153655   5.840   6.738   9.444
50586SOL    HW253656   5.881   6.664   9.570
50587SOL     OW53657   9.142   3.756  10.317
50587SOL    HW153658   9.153   3.801  10.401
50587SOL    HW253659   9.216   3.696  10.312
50588SOL     OW53660   5.249   8.166  12.474
50588SOL    HW153661   5.240   8.100  12.404
50588SOL    HW253662   5.244   8.250  12.428
50589SOL     OW53663   2.235  12.311  10.034
50589SOL    HW153664   2.163  12.253  10.011
50589SOL    HW253665   2.288  12.316   9.955
50590SOL     OW53666   7.950   0.522   2.607
50590SOL    HW153667   7.920   0.539   2.696
50590SOL    HW253668   7.931   0.603   2.560
50591SOL     OW53669   8.568   8.261   6.243
50591SOL    HW153670   8.551   8.342   6.196
50591SOL    HW253671   8.663   8.253   6.245
50592SOL     OW53672   1.156   0.861   9.042
50592SOL    HW153673   1.203   0.940   9.068
50592SOL    HW253674   1.130   0.877   8.951
50593SOL     OW53675  12.377   1.540   6.109
50593SOL    HW153676  12.335   1.596   6.174
50593SOL    HW253677  12.421   1.602   6.049
50594SOL     OW53678   4.159  13.040   1.790
50594SOL    HW153679   4.136  13.043   1.883
50594SOL    HW253680   4.144  13.128   1.758
50595SOL     OW53681  14.315  12.879  11.740
50595SOL    HW153682  14.341  12.814  11.806
50595SOL    HW253683  14.254  12.832  11.683
50596SOL     OW53684   8.838   9.311   1.731
50596SOL    HW153685   8.897   9.236   1.739
50596SOL    HW253686   8.887   9.373   1.677
50597SOL     OW53687   7.454   7.851   8.362
50597SOL    HW153688   7.383   7.916   8.352
50597SOL    HW253689   7.529   7.892   8.320
50598SOL     OW53690  13.503   6.786  13.068
50598SOL    HW153691  13.472   6.872  13.039
50598SOL    HW253692  13.577   6.766  13.011
50599SOL     OW53693   7.288   0.839   8.318
50599SOL    HW153694   7.337   0.789   8.253
50599SOL    HW253695   7.224   0.888   8.266
50600SOL     OW53696   7.460  11.203   8.779
50600SOL    HW153697   7.378  11.242   8.809
50600SOL    HW253698   7.470  11.125   8.833
50601SOL     OW53699   1.457  13.544  14.158
50601SOL    HW153700   1.436  13.497  14.077
50601SOL    HW253701   1.553  13.546  14.160
50602SOL     OW53702   1.684   5.624   4.577
50602SOL    HW153703   1.684   5.592   4.667
50602SOL    HW253704   1.592   5.620   4.551
50603SOL     OW53705   1.139  11.471   4.436
50603SOL    HW153706   1.147  11.462   4.531
50603SOL    HW253707   1.226  11.451   4.403
50604SOL     OW53708   2.162  13.073   8.859
50604SOL    HW153709   2.173  12.982   8.887
50604SOL    HW253710   2.077  13.099   8.893
50605SOL     OW53711   7.290   6.762   5.952
50605SOL    HW153712   7.270   6.855   5.945
50605SOL    HW253713   7.333   6.740   5.870
50606SOL     OW53714   3.647   0.817   2.483
50606SOL    HW153715   3.627   0.823   2.576
50606SOL    HW253716   3.740   0.840   2.477
50607SOL     OW53717   6.258  12.770  14.585
50607SOL    HW153718   6.217  12.792  14.669
50607SOL    HW253719   6.226  12.682  14.566
50608SOL     OW53720   1.006   1.190   4.875
50608SOL    HW153721   1.076   1.157   4.819
50608SOL    HW253722   0.930   1.136   4.852
50609SOL     OW53723   2.463   2.290  11.211
50609SOL    HW153724   2.398   2.356  11.235
50609SOL    HW253725   2.455   2.222  11.278
50610SOL     OW53726  11.738   2.084   5.862
50610SOL    HW153727  11.765   2.018   5.797
50610SOL    HW253728  11.786   2.163   5.836
50611SOL     OW53729  12.216   5.617   0.498
50611SOL    HW153730  12.215   5.688   0.434
50611SOL    HW253731  12.196   5.539   0.447
50612SOL     OW53732   3.796   2.465   7.911
50612SOL    HW153733   3.784   2.560   7.912
50612SOL    HW253734   3.708   2.430   7.924
50613SOL     OW53735  11.108   9.647  10.504
50613SOL    HW153736  11.049   9.574  10.524
50613SOL    HW253737  11.163   9.655  10.581
50614SOL     OW53738   7.457  12.478  14.262
50614SOL    HW153739   7.422  12.479  14.173
50614SOL    HW253740   7.380  12.482  14.318
50615SOL     OW53741   1.487   0.652   6.108
50615SOL    HW153742   1.432   0.627   6.033
50615SOL    HW253743   1.439   0.621   6.185
50616SOL     OW53744   3.136   5.328  11.071
50616SOL    HW153745   3.172   5.413  11.045
50616SOL    HW253746   3.091   5.296  10.992
50617SOL     OW53747  11.553   9.500   4.652
50617SOL    HW153748  11.572   9.424   4.597
50617SOL    HW253749  11.538   9.464   4.739
50618SOL     OW53750   5.091  12.065  10.749
50618SOL    HW153751   5.180  12.075  10.783
50618SOL    HW253752   5.035  12.073  10.825
50619SOL     OW53753  12.301  13.155   1.064
50619SOL    HW153754  12.334  13.090   1.126
50619SOL    HW253755  12.361  13.229   1.072
50620SOL     OW53756   1.519   2.409   6.244
50620SOL    HW153757   1.436   2.456   6.251
50620SOL    HW253758   1.509   2.353   6.167
50621SOL     OW53759   2.253   5.628  10.601
50621SOL    HW153760   2.196   5.705  10.598
50621SOL    HW253761   2.202   5.559  10.558
50622SOL     OW53762  11.728   0.294  11.541
50622SOL    HW153763  11.737   0.274  11.448
50622SOL    HW253764  11.694   0.384  11.543
50623SOL     OW53765  13.975   6.689   5.640
50623SOL    HW153766  14.041   6.664   5.576
50623SOL    HW253767  14.018   6.755   5.695
50624SOL     OW53768   9.941   3.378  14.174
50624SOL    HW153769   9.937   3.473  14.166
50624SOL    HW253770   9.865   3.347  14.125
50625SOL     OW53771  14.834   1.669  12.099
50625SOL    HW153772  14.854   1.712  12.182
50625SOL    HW253773   0.036   1.665  12.053
50626SOL     OW53774  13.029   7.659  10.517
50626SOL    HW153775  13.085   7.663  10.439
50626SOL    HW253776  12.998   7.749  10.529
50627SOL     OW53777   1.313   1.628   5.080
50627SOL    HW153778   1.315   1.719   5.052
50627SOL    HW253779   1.222   1.613   5.107
50628SOL     OW53780   2.697  13.553   5.332
50628SOL    HW153781   2.776  13.586   5.375
50628SOL    HW253782   2.729  13.497   5.261
50629SOL     OW53783   9.686   3.278  13.911
50629SOL    HW153784   9.677   3.373  13.920
50629SOL    HW253785   9.671   3.262  13.818
50630SOL     OW53786  10.113   4.313   5.562
50630SOL    HW153787  10.074   4.283   5.644
50630SOL    HW253788  10.059   4.275   5.493
50631SOL     OW53789   6.665   8.242  11.009
50631SOL    HW153790   6.585   8.189  11.016
50631SOL    HW253791   6.736   8.179  11.015
50632SOL     OW53792   4.097   8.789   1.212
50632SOL    HW153793   4.040   8.831   1.148
50632SOL    HW253794   4.104   8.698   1.182
50633SOL     OW53795  13.531   1.035   1.269
50633SOL    HW153796  13.558   0.945   1.286
50633SOL    HW253797  13.462   1.052   1.333
50634SOL     OW53798  11.048   1.806  13.899
50634SOL    HW153799  10.960   1.776  13.878
50634SOL    HW253800  11.106   1.740  13.861
50635SOL     OW53801   9.816   9.455   4.517
50635SOL    HW153802   9.860   9.468   4.601
50635SOL    HW253803   9.723   9.452   4.539
50636SOL     OW53804   8.936   1.779   6.654
50636SOL    HW153805   8.940   1.836   6.577
50636SOL    HW253806   8.862   1.812   6.704
50637SOL     OW53807   5.245   3.394   4.681
50637SOL    HW153808   5.282   3.458   4.619
50637SOL    HW253809   5.246   3.311   4.633
50638SOL     OW53810  11.706   2.081   3.009
50638SOL    HW153811  11.628   2.092   2.954
50638SOL    HW253812  11.756   2.011   2.966
50639SOL     OW53813   3.417   7.571   5.818
50639SOL    HW153814   3.369   7.615   5.748
50639SOL    HW253815   3.496   7.625   5.830
50640SOL     OW53816  13.917   0.345   1.531
50640SOL    HW153817  14.013   0.354   1.532
50640SOL    HW253818  13.885   0.431   1.506
50641SOL     OW53819   0.006  14.075  11.204
50641SOL    HW153820  14.807  14.107  11.243
50641SOL    HW253821   0.059  14.153  11.190
50642SOL     OW53822   3.782  14.034   8.838
50642SOL    HW153823   3.697  13.992   8.831
50642SOL    HW253824   3.826  13.988   8.910
50643SOL     OW53825   3.381   6.835  11.660
50643SOL    HW153826   3.320   6.830  11.734
50643SOL    HW253827   3.377   6.927  11.632
50644SOL     OW53828  11.668   6.825   8.026
50644SOL    HW153829  11.731   6.755   8.009
50644SOL    HW253830  11.619   6.833   7.944
50645SOL     OW53831   1.483   8.101   9.777
50645SOL    HW153832   1.501   8.111   9.870
50645SOL    HW253833   1.538   8.027   9.750
50646SOL     OW53834   8.902  10.560  11.992
50646SOL    HW153835   8.832  10.525  12.046
50646SOL    HW253836   8.936  10.485  11.944
50647SOL     OW53837  14.138  12.023   5.598
50647SOL    HW153838  14.221  12.069   5.586
50647SOL    HW253839  14.117  11.989   5.511
50648SOL     OW53840   8.467   1.263  13.589
50648SOL    HW153841   8.498   1.347  13.623
50648SOL    HW253842   8.547   1.210  13.580
50649SOL     OW53843   0.757   7.749   7.937
50649SOL    HW153844   0.775   7.664   7.897
50649SOL    HW253845   0.758   7.732   8.031
50650SOL     OW53846   2.884   7.841   2.870
50650SOL    HW153847   2.794   7.828   2.840
50650SOL    HW253848   2.938   7.803   2.800
50651SOL     OW53849   8.095  10.618   6.012
50651SOL    HW153850   8.079  10.618   6.106
50651SOL    HW253851   8.191  10.610   6.005
50652SOL     OW53852   3.336   2.923  11.896
50652SOL    HW153853   3.379   2.900  11.978
50652SOL    HW253854   3.242   2.918  11.915
50653SOL     OW53855   2.437  11.753   3.456
50653SOL    HW153856   2.509  11.780   3.514
50653SOL    HW253857   2.451  11.659   3.442
50654SOL     OW53858   9.748   5.071   0.680
50654SOL    HW153859   9.817   5.067   0.614
50654SOL    HW253860   9.711   4.983   0.681
50655SOL     OW53861   6.727   3.882  11.558
50655SOL    HW153862   6.808   3.860  11.511
50655SOL    HW253863   6.674   3.929  11.493
50656SOL     OW53864   9.343   7.340   6.800
50656SOL    HW153865   9.363   7.423   6.758
50656SOL    HW253866   9.403   7.335   6.874
50657SOL     OW53867   6.979   6.778  13.782
50657SOL    HW153868   7.013   6.865  13.762
50657SOL    HW253869   6.971   6.777  13.878
50658SOL     OW53870   6.258   8.756   6.876
50658SOL    HW153871   6.199   8.747   6.950
50658SOL    HW253872   6.218   8.705   6.806
50659SOL     OW53873   7.438  12.630   4.671
50659SOL    HW153874   7.533  12.640   4.660
50659SOL    HW253875   7.429  12.568   4.743
50660SOL     OW53876  13.536   8.487   5.252
50660SOL    HW153877  13.486   8.490   5.170
50660SOL    HW253878  13.473   8.456   5.317
50661SOL     OW53879   0.031   9.540  10.649
50661SOL    HW153880  14.854   9.574  10.716
50661SOL    HW253881   0.039   9.611  10.586
50662SOL     OW53882   1.758   9.670  11.003
50662SOL    HW153883   1.709   9.589  10.991
50662SOL    HW253884   1.721   9.730  10.938
50663SOL     OW53885  10.548   0.434   5.728
50663SOL    HW153886  10.464   0.465   5.761
50663SOL    HW253887  10.526   0.375   5.656
50664SOL     OW53888  13.902   4.429  13.094
50664SOL    HW153889  13.916   4.336  13.079
50664SOL    HW253890  13.810   4.444  13.070
50665SOL     OW53891  14.419   7.661  12.234
50665SOL    HW153892  14.447   7.753  12.243
50665SOL    HW253893  14.459   7.617  12.309
50666SOL     OW53894  10.846   8.276  13.785
50666SOL    HW153895  10.826   8.305  13.874
50666SOL    HW253896  10.834   8.181  13.787
50667SOL     OW53897  11.195   6.232   7.794
50667SOL    HW153898  11.272   6.289   7.795
50667SOL    HW253899  11.206   6.178   7.716
50668SOL     OW53900  12.620   8.454  13.220
50668SOL    HW153901  12.566   8.384  13.258
50668SOL    HW253902  12.690   8.407  13.174
50669SOL     OW53903   5.210   3.404   1.629
50669SOL    HW153904   5.194   3.424   1.537
50669SOL    HW253905   5.227   3.490   1.669
50670SOL     OW53906   5.262  11.620   9.547
50670SOL    HW153907   5.323  11.694   9.546
50670SOL    HW253908   5.250  11.597   9.455
50671SOL     OW53909   6.817   8.298  13.027
50671SOL    HW153910   6.862   8.353  13.091
50671SOL    HW253911   6.887   8.256  12.977
50672SOL     OW53912   3.084   4.736  14.435
50672SOL    HW153913   3.040   4.734  14.350
50672SOL    HW253914   3.151   4.668  14.429
50673SOL     OW53915  12.733   6.975  11.082
50673SOL    HW153916  12.813   7.027  11.073
50673SOL    HW253917  12.688   6.985  10.998
50674SOL     OW53918   2.380  14.644   4.455
50674SOL    HW153919   2.474  14.641   4.469
50674SOL    HW253920   2.361  14.736   4.438
50675SOL     OW53921   5.686   7.800   1.799
50675SOL    HW153922   5.675   7.713   1.836
50675SOL    HW253923   5.664   7.860   1.870
50676SOL     OW53924   6.549   3.660  14.429
50676SOL    HW153925   6.468   3.666  14.379
50676SOL    HW253926   6.601   3.593  14.384
50677SOL     OW53927  13.759   6.865   6.264
50677SOL    HW153928  13.802   6.939   6.222
50677SOL    HW253929  13.672   6.863   6.224
50678SOL     OW53930   1.121   3.271  14.034
50678SOL    HW153931   1.096   3.316  14.114
50678SOL    HW253932   1.174   3.197  14.064
50679SOL     OW53933  11.319  13.048   8.171
50679SOL    HW153934  11.304  13.108   8.244
50679SOL    HW253935  11.397  13.083   8.128
50680SOL     OW53936   1.455   4.403  14.854
50680SOL    HW153937   1.455   4.484   0.023
50680SOL    HW253938   1.542   4.366  14.867
50681SOL     OW53939  11.694  14.647   0.023
50681SOL    HW153940  11.735  14.731   0.003
50681SOL    HW253941  11.606  14.670   0.052
50682SOL     OW53942   2.389   9.556  11.555
50682SOL    HW153943   2.462   9.495  11.563
50682SOL    HW253944   2.425   9.640  11.580
50683SOL     OW53945  11.787   1.417   4.339
50683SOL    HW153946  11.735   1.338   4.353
50683SOL    HW253947  11.798   1.454   4.427
50684SOL     OW53948   4.878   4.888   8.744
50684SOL    HW153949   4.911   4.869   8.832
50684SOL    HW253950   4.813   4.821   8.728
50685SOL     OW53951   8.961  12.557  10.883
50685SOL    HW153952   8.887  12.552  10.944
50685SOL    HW253953   8.963  12.648  10.854
50686SOL     OW53954   5.455   5.318   1.695
50686SOL    HW153955   5.403   5.243   1.721
50686SOL    HW253956   5.510   5.336   1.772
50687SOL     OW53957   6.207  14.045  13.897
50687SOL    HW153958   6.161  14.016  13.975
50687SOL    HW253959   6.156  14.121  13.867
50688SOL     OW53960  12.182   0.026   2.617
50688SOL    HW153961  12.213   0.056   2.703
50688SOL    HW253962  12.127   0.097   2.585
50689SOL     OW53963   5.765   4.054   2.100
50689SOL    HW153964   5.773   4.025   2.190
50689SOL    HW253965   5.849   4.033   2.060
50690SOL     OW53966   6.418   9.084   7.881
50690SOL    HW153967   6.438   9.065   7.973
50690SOL    HW253968   6.456   9.171   7.866
50691SOL     OW53969   9.543  12.149   6.210
50691SOL    HW153970   9.597  12.227   6.199
50691SOL    HW253971   9.588  12.080   6.161
50692SOL     OW53972   1.187   8.181   1.623
50692SOL    HW153973   1.101   8.185   1.664
50692SOL    HW253974   1.246   8.153   1.693
50693SOL     OW53975   9.667   0.136  10.297
50693SOL    HW153976   9.658   0.111  10.205
50693SOL    HW253977   9.579   0.161  10.324
50694SOL     OW53978  11.471   2.704   7.029
50694SOL    HW153979  11.399   2.753   7.068
50694SOL    HW253980  11.431   2.654   6.958
50695SOL     OW53981   9.236  13.579   2.246
50695SOL    HW153982   9.171  13.649   2.250
50695SOL    HW253983   9.235  13.541   2.334
50696SOL     OW53984   4.715  11.143   7.782
50696SOL    HW153985   4.706  11.161   7.876
50696SOL    HW253986   4.751  11.055   7.777
50697SOL     OW53987  13.385   3.081   6.723
50697SOL    HW153988  13.379   3.072   6.628
50697SOL    HW253989  13.416   3.170   6.737
50698SOL     OW53990   5.078   6.902   9.819
50698SOL    HW153991   5.000   6.848   9.835
50698SOL    HW253992   5.144   6.840   9.787
50699SOL     OW53993   3.328   6.877  14.636
50699SOL    HW153994   3.334   6.809  14.704
50699SOL    HW253995   3.418   6.890  14.607
50700SOL     OW53996   5.296   6.346  12.951
50700SOL    HW153997   5.384   6.332  12.986
50700SOL    HW253998   5.258   6.258  12.946
50701SOL     OW53999  13.209  12.341   7.264
50701SOL    HW154000  13.141  12.333   7.196
50701SOL    HW254001  13.214  12.435   7.281
50702SOL     OW54002   5.505   1.588   9.639
50702SOL    HW154003   5.431   1.613   9.584
50702SOL    HW254004   5.580   1.634   9.601
50703SOL     OW54005   8.025  12.992  12.567
50703SOL    HW154006   8.097  13.004  12.630
50703SOL    HW254007   8.049  12.913  12.519
50704SOL     OW54008   8.877   4.990   5.223
50704SOL    HW154009   8.965   4.953   5.220
50704SOL    HW254010   8.859   5.016   5.133
50705SOL     OW54011   3.454  12.686   0.771
50705SOL    HW154012   3.414  12.682   0.858
50705SOL    HW254013   3.468  12.780   0.755
50706SOL     OW54014   6.990   3.761   8.713
50706SOL    HW154015   7.057   3.708   8.670
50706SOL    HW254016   6.955   3.818   8.644
50707SOL     OW54017  11.991   3.634   6.733
50707SOL    HW154018  11.973   3.681   6.815
50707SOL    HW254019  11.911   3.647   6.681
50708SOL     OW54020   4.484  14.660   0.246
50708SOL    HW154021   4.520  14.715   0.176
50708SOL    HW254022   4.551  14.593   0.260
50709SOL     OW54023   1.917   9.492  13.356
50709SOL    HW154024   1.851   9.532  13.413
50709SOL    HW254025   1.867   9.433  13.299
50710SOL     OW54026  12.996   0.821   6.734
50710SOL    HW154027  13.029   0.894   6.682
50710SOL    HW254028  12.931   0.861   6.793
50711SOL     OW54029   8.871   0.075   9.131
50711SOL    HW154030   8.883  14.868   9.163
50711SOL    HW254031   8.892   0.071   9.038
50712SOL     OW54032   2.657   4.140   8.711
50712SOL    HW154033   2.566   4.141   8.681
50712SOL    HW254034   2.651   4.127   8.805
50713SOL     OW54035   1.327   6.146   1.538
50713SOL    HW154036   1.357   6.082   1.603
50713SOL    HW254037   1.288   6.093   1.469
50714SOL     OW54038   6.071   6.935  12.341
50714SOL    HW154039   6.046   6.847  12.371
50714SOL    HW254040   6.106   6.921  12.253
50715SOL     OW54041   3.456   2.535   1.137
50715SOL    HW154042   3.502   2.547   1.054
50715SOL    HW254043   3.522   2.497   1.195
50716SOL     OW54044   3.030  13.009   8.282
50716SOL    HW154045   2.945  12.969   8.264
50716SOL    HW254046   3.013  13.103   8.283
50717SOL     OW54047  13.853   2.176   7.145
50717SOL    HW154048  13.798   2.200   7.220
50717SOL    HW254049  13.791   2.163   7.074
50718SOL     OW54050  10.853   7.822  11.419
50718SOL    HW154051  10.820   7.848  11.333
50718SOL    HW254052  10.948   7.824  11.409
50719SOL     OW54053   4.412   8.756   2.140
50719SOL    HW154054   4.412   8.789   2.050
50719SOL    HW254055   4.388   8.664   2.131
50720SOL     OW54056  13.374  13.083   9.890
50720SOL    HW154057  13.374  13.015   9.957
50720SOL    HW254058  13.463  13.082   9.854
50721SOL     OW54059   0.536   5.679  12.870
50721SOL    HW154060   0.522   5.683  12.776
50721SOL    HW254061   0.472   5.615  12.902
50722SOL     OW54062   4.700  12.153  11.502
50722SOL    HW154063   4.752  12.118  11.575
50722SOL    HW254064   4.765  12.186  11.440
50723SOL     OW54065  10.065   9.984   7.832
50723SOL    HW154066  10.136  10.038   7.798
50723SOL    HW254067  10.084   9.896   7.801
50724SOL     OW54068   4.286  14.820  14.581
50724SOL    HW154069   4.351  14.820  14.510
50724SOL    HW254070   4.212  14.770  14.546
50725SOL     OW54071   1.203   1.333   6.976
50725SOL    HW154072   1.108   1.321   6.964
50725SOL    HW254073   1.228   1.393   6.906
50726SOL     OW54074  12.951   2.090  10.358
50726SOL    HW154075  12.977   2.004  10.391
50726SOL    HW254076  12.857   2.094  10.373
50727SOL     OW54077   8.495   8.144   0.856
50727SOL    HW154078   8.479   8.238   0.868
50727SOL    HW254079   8.563   8.123   0.919
50728SOL     OW54080  12.118  13.337   6.725
50728SOL    HW154081  12.040  13.285   6.743
50728SOL    HW254082  12.191  13.276   6.733
50729SOL     OW54083   0.908  14.422   4.356
50729SOL    HW154084   0.959  14.486   4.404
50729SOL    HW254085   0.935  14.337   4.391
50730SOL     OW54086  11.434   2.519   5.198
50730SOL    HW154087  11.392   2.545   5.116
50730SOL    HW254088  11.526   2.544   5.188
50731SOL     OW54089   2.032   4.135  14.307
50731SOL    HW154090   2.107   4.160  14.253
50731SOL    HW254091   2.069   4.121  14.394
50732SOL     OW54092  11.603   9.724  14.235
50732SOL    HW154093  11.510   9.714  14.255
50732SOL    HW254094  11.645   9.648  14.276
50733SOL     OW54095   0.977  13.140  11.196
50733SOL    HW154096   0.884  13.159  11.188
50733SOL    HW254097   1.016  13.171  11.114
50734SOL     OW54098   8.695  14.604  14.123
50734SOL    HW154099   8.693  14.558  14.206
50734SOL    HW254100   8.683  14.536  14.057
50735SOL     OW54101  13.423   7.059   7.792
50735SOL    HW154102  13.378   7.020   7.867
50735SOL    HW254103  13.418   6.992   7.723
50736SOL     OW54104  12.702   1.509   6.652
50736SOL    HW154105  12.725   1.516   6.745
50736SOL    HW254106  12.627   1.450   6.651
50737SOL     OW54107   3.344   7.728   8.162
50737SOL    HW154108   3.314   7.781   8.236
50737SOL    HW254109   3.437   7.748   8.154
50738SOL     OW54110   5.555   1.242  11.326
50738SOL    HW154111   5.514   1.249  11.412
50738SOL    HW254112   5.581   1.332  11.305
50739SOL     OW54113   8.898   4.135   6.068
50739SOL    HW154114   8.889   4.063   6.130
50739SOL    HW254115   8.834   4.117   6.000
50740SOL     OW54116  11.607   9.560   5.501
50740SOL    HW154117  11.529   9.506   5.517
50740SOL    HW254118  11.661   9.507   5.443
50741SOL     OW54119   2.765   3.051  11.763
50741SOL    HW154120   2.794   3.060  11.854
50741SOL    HW254121   2.714   2.971  11.762
50742SOL     OW54122   5.633  11.460   3.347
50742SOL    HW154123   5.550  11.505   3.360
50742SOL    HW254124   5.644  11.407   3.426
50743SOL     OW54125   7.694   4.877  12.679
50743SOL    HW154126   7.636   4.865  12.754
50743SOL    HW254127   7.675   4.804  12.621
50744SOL     OW54128   6.652  12.797   9.031
50744SOL    HW154129   6.620  12.718   8.987
50744SOL    HW254130   6.583  12.819   9.094
50745SOL     OW54131   0.839   5.231  10.552
50745SOL    HW154132   0.920   5.199  10.592
50745SOL    HW254133   0.865   5.255  10.463
50746SOL     OW54134   6.594   9.655   0.140
50746SOL    HW154135   6.550   9.669   0.224
50746SOL    HW254136   6.548   9.714   0.080
50747SOL     OW54137   5.364  14.729   4.138
50747SOL    HW154138   5.412  14.811   4.154
50747SOL    HW254139   5.304  14.750   4.066
50748SOL     OW54140   4.935  13.037   7.775
50748SOL    HW154141   4.938  12.957   7.723
50748SOL    HW254142   4.857  13.082   7.745
50749SOL     OW54143  13.671   3.747   6.332
50749SOL    HW154144  13.667   3.685   6.260
50749SOL    HW254145  13.593   3.802   6.321
50750SOL     OW54146   8.944   2.882  14.044
50750SOL    HW154147   8.985   2.839  13.969
50750SOL    HW254148   8.885   2.946  14.005
50751SOL     OW54149   7.252  13.779   2.446
50751SOL    HW154150   7.244  13.698   2.497
50751SOL    HW254151   7.242  13.849   2.511
50752SOL     OW54152   5.333   9.765   3.425
50752SOL    HW154153   5.397   9.696   3.444
50752SOL    HW254154   5.350   9.832   3.491
50753SOL     OW54155   3.141  10.447   4.999
50753SOL    HW154156   3.138  10.351   5.003
50753SOL    HW254157   3.161  10.475   5.088
50754SOL     OW54158  10.516   2.841   5.363
50754SOL    HW154159  10.488   2.918   5.313
50754SOL    HW254160  10.563   2.877   5.439
50755SOL     OW54161   8.840   4.353  14.706
50755SOL    HW154162   8.815   4.263  14.684
50755SOL    HW254163   8.792   4.407  14.643
50756SOL     OW54164   5.224   9.309   7.436
50756SOL    HW154165   5.236   9.390   7.486
50756SOL    HW254166   5.234   9.239   7.501
50757SOL     OW54167   1.525   3.601   8.603
50757SOL    HW154168   1.528   3.513   8.568
50757SOL    HW254169   1.440   3.636   8.575
50758SOL     OW54170   0.062   4.021   1.308
50758SOL    HW154171   0.028   3.997   1.222
50758SOL    HW254172   0.143   4.068   1.290
50759SOL     OW54173  11.895   8.971  13.741
50759SOL    HW154174  11.885   8.965  13.646
50759SOL    HW254175  11.831   8.909  13.776
50760SOL     OW54176   0.268   6.266   2.276
50760SOL    HW154177   0.362   6.277   2.292
50760SOL    HW254178   0.253   6.171   2.282
50761SOL     OW54179   5.633  13.261   6.497
50761SOL    HW154180   5.587  13.287   6.576
50761SOL    HW254181   5.567  13.216   6.444
50762SOL     OW54182   6.091   2.435   3.839
50762SOL    HW154183   6.126   2.407   3.923
50762SOL    HW254184   5.996   2.423   3.847
50763SOL     OW54185  11.975   0.929   8.061
50763SOL    HW154186  12.022   0.911   8.143
50763SOL    HW254187  11.888   0.891   8.075
50764SOL     OW54188   5.616  14.226   7.754
50764SOL    HW154189   5.586  14.135   7.750
50764SOL    HW254190   5.556  14.269   7.814
50765SOL     OW54191   3.909   7.981   7.161
50765SOL    HW154192   3.915   8.035   7.240
50765SOL    HW254193   3.915   8.043   7.089
50766SOL     OW54194  14.491   5.980  11.343
50766SOL    HW154195  14.459   5.968  11.254
50766SOL    HW254196  14.430   6.042  11.383
50767SOL     OW54197   6.773  10.234  10.248
50767SOL    HW154198   6.819  10.225  10.165
50767SOL    HW254199   6.792  10.324  10.276
50768SOL     OW54200   7.614   3.407   9.013
50768SOL    HW154201   7.547   3.342   9.033
50768SOL    HW254202   7.577   3.458   8.941
50769SOL     OW54203   2.316   3.114  14.604
50769SOL    HW154204   2.226   3.142  14.617
50769SOL    HW254205   2.336   3.138  14.514
50770SOL     OW54206   8.322   2.107  13.935
50770SOL    HW154207   8.280   2.182  13.977
50770SOL    HW254208   8.382   2.073  14.001
50771SOL     OW54209   8.121   9.308   2.679
50771SOL    HW154210   8.054   9.267   2.734
50771SOL    HW254211   8.130   9.396   2.713
50772SOL     OW54212  11.936  10.261   9.409
50772SOL    HW154213  12.005  10.267   9.343
50772SOL    HW254214  11.943  10.172   9.444
50773SOL     OW54215   2.575   4.304  12.996
50773SOL    HW154216   2.561   4.304  12.902
50773SOL    HW254217   2.593   4.213  13.018
50774SOL     OW54218   4.369   0.987  14.121
50774SOL    HW154219   4.308   0.921  14.087
50774SOL    HW254220   4.324   1.070  14.110
50775SOL     OW54221   3.207  13.089   3.455
50775SOL    HW154222   3.225  13.041   3.374
50775SOL    HW254223   3.275  13.156   3.459
50776SOL     OW54224   9.999   4.156   5.213
50776SOL    HW154225   9.959   4.086   5.160
50776SOL    HW254226   9.941   4.164   5.289
50777SOL     OW54227  10.269  10.480   7.004
50777SOL    HW154228  10.301  10.506   7.090
50777SOL    HW254229  10.206  10.547   6.981
50778SOL     OW54230   1.493   3.538   3.125
50778SOL    HW154231   1.536   3.467   3.173
50778SOL    HW254232   1.504   3.615   3.181
50779SOL     OW54233   5.741   0.933   1.515
50779SOL    HW154234   5.787   0.858   1.478
50779SOL    HW254235   5.735   0.913   1.609
50780SOL     OW54236   4.243  12.610  10.499
50780SOL    HW154237   4.254  12.567  10.414
50780SOL    HW254238   4.261  12.702  10.482
50781SOL     OW54239  13.090  11.463   6.715
50781SOL    HW154240  12.998  11.488   6.713
50781SOL    HW254241  13.096  11.388   6.656
50782SOL     OW54242   0.170   5.442   1.631
50782SOL    HW154243   0.139   5.472   1.716
50782SOL    HW254244   0.097   5.390   1.596
50783SOL     OW54245  10.412   8.756  13.678
50783SOL    HW154246  10.411   8.730  13.586
50783SOL    HW254247  10.481   8.704  13.718
50784SOL     OW54248  10.753   2.508  13.055
50784SOL    HW154249  10.788   2.504  12.966
50784SOL    HW254250  10.698   2.430  13.063
50785SOL     OW54251   8.000   1.192   3.488
50785SOL    HW154252   7.930   1.226   3.544
50785SOL    HW254253   7.984   1.234   3.403
50786SOL     OW54254  10.183   9.458   2.556
50786SOL    HW154255  10.232   9.538   2.574
50786SOL    HW254256  10.209   9.398   2.627
50787SOL     OW54257   6.497  14.205  12.952
50787SOL    HW154258   6.430  14.173  13.012
50787SOL    HW254259   6.578  14.167  12.984
50788SOL     OW54260   6.749  12.987   3.774
50788SOL    HW154261   6.667  13.030   3.798
50788SOL    HW254262   6.754  12.911   3.832
50789SOL     OW54263   4.406   2.715  14.246
50789SOL    HW154264   4.328   2.769  14.260
50789SOL    HW254265   4.479   2.778  14.247
50790SOL     OW54266   8.488   2.586   5.896
50790SOL    HW154267   8.570   2.597   5.847
50790SOL    HW254268   8.511   2.611   5.986
50791SOL     OW54269   1.949   4.410   7.004
50791SOL    HW154270   2.022   4.455   6.962
50791SOL    HW254271   1.924   4.467   7.077
50792SOL     OW54272   0.989  11.074  10.650
50792SOL    HW154273   0.941  10.991  10.650
50792SOL    HW254274   0.961  11.117  10.731
50793SOL     OW54275   0.741   1.649   8.272
50793SOL    HW154276   0.741   1.687   8.361
50793SOL    HW254277   0.657   1.604   8.266
50794SOL     OW54278   5.706   5.010  10.005
50794SOL    HW154279   5.651   4.991  10.081
50794SOL    HW254280   5.645   5.039   9.938
50795SOL     OW54281   5.449  11.042  13.510
50795SOL    HW154282   5.543  11.056  13.513
50795SOL    HW254283   5.436  10.983  13.436
50796SOL     OW54284   7.188  10.303   7.344
50796SOL    HW154285   7.104  10.290   7.388
50796SOL    HW254286   7.237  10.223   7.363
50797SOL     OW54287   2.452   8.346   1.678
50797SOL    HW154288   2.486   8.371   1.763
50797SOL    HW254289   2.420   8.428   1.640
50798SOL     OW54290  12.477   0.362   3.697
50798SOL    HW154291  12.486   0.286   3.639
50798SOL    HW254292  12.526   0.432   3.652
50799SOL     OW54293   0.698   3.651   5.979
50799SOL    HW154294   0.761   3.689   5.918
50799SOL    HW254295   0.723   3.684   6.065
50800SOL     OW54296  10.195   5.018   1.007
50800SOL    HW154297  10.101   5.008   1.017
50800SOL    HW254298  10.206   5.092   0.948
50801SOL     OW54299   0.245  10.555  14.130
50801SOL    HW154300   0.323  10.589  14.086
50801SOL    HW254301   0.177  10.556  14.062
50802SOL     OW54302  13.125   8.116   1.948
50802SOL    HW154303  13.071   8.085   1.875
50802SOL    HW254304  13.132   8.041   2.007
50803SOL     OW54305   7.847   7.288   5.355
50803SOL    HW154306   7.761   7.328   5.341
50803SOL    HW254307   7.834   7.196   5.334
50804SOL     OW54308   5.015   6.022   4.669
50804SOL    HW154309   5.043   6.026   4.760
50804SOL    HW254310   5.016   5.929   4.647
50805SOL     OW54311   4.546   3.084   1.379
50805SOL    HW154312   4.541   3.040   1.294
50805SOL    HW254313   4.615   3.038   1.427
50806SOL     OW54314   7.940  11.977  14.125
50806SOL    HW154315   7.913  12.027  14.202
50806SOL    HW254316   8.033  11.998  14.115
50807SOL     OW54317   4.177   7.956   7.967
50807SOL    HW154318   4.099   7.959   8.023
50807SOL    HW254319   4.144   7.974   7.879
50808SOL     OW54320   9.883   4.995   4.961
50808SOL    HW154321   9.905   4.995   5.054
50808SOL    HW254322   9.813   5.059   4.952
50809SOL     OW54323   3.122   0.848   3.673
50809SOL    HW154324   3.126   0.929   3.724
50809SOL    HW254325   3.076   0.786   3.730
50810SOL     OW54326  14.216   0.478   9.125
50810SOL    HW154327  14.301   0.436   9.143
50810SOL    HW254328  14.235   0.539   9.054
50811SOL     OW54329   2.284   6.460   7.546
50811SOL    HW154330   2.325   6.436   7.463
50811SOL    HW254331   2.216   6.393   7.559
50812SOL     OW54332   8.594   8.907   5.965
50812SOL    HW154333   8.679   8.880   5.999
50812SOL    HW254334   8.550   8.947   6.040
50813SOL     OW54335   6.799  14.482  12.567
50813SOL    HW154336   6.809  14.454  12.476
50813SOL    HW254337   6.807  14.402  12.618
50814SOL     OW54338   8.560   8.175   8.877
50814SOL    HW154339   8.552   8.250   8.935
50814SOL    HW254340   8.557   8.212   8.789
50815SOL     OW54341  10.449   4.293   7.262
50815SOL    HW154342  10.359   4.294   7.295
50815SOL    HW254343  10.441   4.317   7.170
50816SOL     OW54344  10.131  13.353   1.395
50816SOL    HW154345  10.153  13.387   1.482
50816SOL    HW254346  10.059  13.292   1.411
50817SOL     OW54347   5.852   9.108   0.178
50817SOL    HW154348   5.805   9.047   0.121
50817SOL    HW254349   5.888   9.053   0.248
50818SOL     OW54350   6.750   4.646   6.892
50818SOL    HW154351   6.682   4.613   6.952
50818SOL    HW254352   6.728   4.739   6.880
50819SOL     OW54353   4.041   7.683   2.202
50819SOL    HW154354   4.039   7.763   2.150
50819SOL    HW254355   3.949   7.655   2.206
50820SOL     OW54356   0.214   4.076   0.378
50820SOL    HW154357   0.251   4.143   0.320
50820SOL    HW254358   0.223   3.995   0.328
50821SOL     OW54359   1.571  13.752   0.183
50821SOL    HW154360   1.619  13.793   0.255
50821SOL    HW254361   1.530  13.826   0.138
50822SOL     OW54362   4.447  10.984   3.232
50822SOL    HW154363   4.390  10.927   3.284
50822SOL    HW254364   4.392  11.015   3.161
50823SOL     OW54365   2.987   0.080   9.762
50823SOL    HW154366   2.930   0.131   9.819
50823SOL    HW254367   2.947  14.875   9.759
50824SOL     OW54368   9.466  13.748   8.205
50824SOL    HW154369   9.399  13.808   8.173
50824SOL    HW254370   9.434  13.721   8.292
50825SOL     OW54371  10.637   2.703   4.472
50825SOL    HW154372  10.597   2.725   4.556
50825SOL    HW254373  10.612   2.611   4.457
50826SOL     OW54374   5.880   5.685  13.239
50826SOL    HW154375   5.887   5.733  13.157
50826SOL    HW254376   5.858   5.752  13.304
50827SOL     OW54377   6.300   3.593   3.101
50827SOL    HW154378   6.386   3.550   3.100
50827SOL    HW254379   6.239   3.525   3.130
50828SOL     OW54380  11.288  10.654   8.429
50828SOL    HW154381  11.204  10.617   8.456
50828SOL    HW254382  11.266  10.739   8.391
50829SOL     OW54383   5.546   9.725   4.322
50829SOL    HW154384   5.579   9.678   4.245
50829SOL    HW254385   5.574   9.815   4.309
50830SOL     OW54386   1.184   0.095  11.325
50830SOL    HW154387   1.104   0.065  11.281
50830SOL    HW254388   1.162   0.091  11.418
50831SOL     OW54389  12.568  14.653   2.098
50831SOL    HW154390  12.636  14.590   2.122
50831SOL    HW254391  12.600  14.737   2.131
50832SOL     OW54392  14.757   3.732   4.949
50832SOL    HW154393  14.817   3.673   4.902
50832SOL    HW254394  14.680   3.738   4.893
50833SOL     OW54395   6.622   1.468  14.608
50833SOL    HW154396   6.583   1.519  14.537
50833SOL    HW254397   6.572   1.387  14.610
50834SOL     OW54398  10.958   0.258   2.750
50834SOL    HW154399  10.940   0.177   2.797
50834SOL    HW254400  11.052   0.271   2.759
50835SOL     OW54401   1.395   2.620   3.085
50835SOL    HW154402   1.353   2.635   3.000
50835SOL    HW254403   1.370   2.531   3.108
50836SOL     OW54404   5.508   8.940   7.855
50836SOL    HW154405   5.550   9.003   7.796
50836SOL    HW254406   5.432   8.987   7.889
50837SOL     OW54407  12.746   5.834   3.854
50837SOL    HW154408  12.682   5.894   3.892
50837SOL    HW254409  12.737   5.846   3.760
50838SOL     OW54410   0.772   4.939   7.443
50838SOL    HW154411   0.790   4.957   7.535
50838SOL    HW254412   0.738   4.850   7.442
50839SOL     OW54413   9.259   8.595  14.047
50839SOL    HW154414   9.295   8.599  13.958
50839SOL    HW254415   9.166   8.573  14.035
50840SOL     OW54416   5.800   9.042   3.699
50840SOL    HW154417   5.834   9.068   3.614
50840SOL    HW254418   5.785   9.124   3.745
50841SOL     OW54419   2.063  12.003  10.744
50841SOL    HW154420   2.153  12.032  10.729
50841SOL    HW254421   2.062  11.912  10.713
50842SOL     OW54422   3.805  11.130   5.043
50842SOL    HW154423   3.719  11.090   5.048
50842SOL    HW254424   3.833  11.118   4.952
50843SOL     OW54425  11.550  12.503   4.382
50843SOL    HW154426  11.635  12.467   4.407
50843SOL    HW254427  11.503  12.513   4.465
50844SOL     OW54428   5.223  14.807   7.404
50844SOL    HW154429   5.139  14.852   7.398
50844SOL    HW254430   5.262  14.839   7.485
50845SOL     OW54431   8.742  11.848   8.905
50845SOL    HW154432   8.777  11.892   8.828
50845SOL    HW254433   8.716  11.919   8.964
50846SOL     OW54434  10.674   9.891   9.575
50846SOL    HW154435  10.678   9.881   9.670
50846SOL    HW254436  10.642   9.807   9.543
50847SOL     OW54437   8.004   2.395  11.881
50847SOL    HW154438   8.019   2.454  11.955
50847SOL    HW254439   8.070   2.421  11.816
50848SOL     OW54440   5.421   7.298  11.192
50848SOL    HW154441   5.454   7.359  11.126
50848SOL    HW254442   5.487   7.299  11.261
50849SOL     OW54443   3.350   7.869   7.224
50849SOL    HW154444   3.409   7.872   7.299
50849SOL    HW254445   3.370   7.949   7.175
50850SOL     OW54446   7.831  10.253   7.172
50850SOL    HW154447   7.772  10.195   7.124
50850SOL    HW254448   7.905  10.197   7.196
50851SOL     OW54449  11.205  13.240  13.085
50851SOL    HW154450  11.230  13.293  13.161
50851SOL    HW254451  11.270  13.170  13.083
50852SOL     OW54452  11.094  10.879  10.120
50852SOL    HW154453  11.149  10.930  10.179
50852SOL    HW254454  11.142  10.797  10.106
50853SOL     OW54455  10.233  10.352   4.366
50853SOL    HW154456  10.147  10.366   4.407
50853SOL    HW254457  10.256  10.263   4.392
50854SOL     OW54458  13.445   2.775  13.199
50854SOL    HW154459  13.429   2.864  13.228
50854SOL    HW254460  13.429   2.721  13.276
50855SOL     OW54461   2.620  10.954  14.803
50855SOL    HW154462   2.656  10.944   0.009
50855SOL    HW254463   2.687  10.916  14.745
50856SOL     OW54464   5.713   9.700   0.272
50856SOL    HW154465   5.682   9.726   0.185
50856SOL    HW254466   5.734   9.782   0.316
50857SOL     OW54467  14.849   6.519  11.428
50857SOL    HW154468  14.826   6.604  11.390
50857SOL    HW254469   0.022   6.478  11.362
50858SOL     OW54470  14.215  12.597   4.228
50858SOL    HW154471  14.159  12.520   4.240
50858SOL    HW254472  14.301  12.569   4.260
50859SOL     OW54473   9.077   7.478  14.359
50859SOL    HW154474   9.024   7.447  14.433
50859SOL    HW254475   9.043   7.566  14.340
50860SOL     OW54476   8.918   0.011   3.864
50860SOL    HW154477   8.874  14.865   3.945
50860SOL    HW254478   8.869   0.088   3.835
50861SOL     OW54479  10.351  12.139   3.241
50861SOL    HW154480  10.383  12.206   3.302
50861SOL    HW254481  10.257  12.153   3.237
50862SOL     OW54482   8.081  10.668   4.302
50862SOL    HW154483   8.030  10.745   4.277
50862SOL    HW254484   8.125  10.640   4.222
50863SOL     OW54485   5.920  13.720   6.567
50863SOL    HW154486   5.840  13.769   6.584
50863SOL    HW254487   5.921  13.707   6.472
50864SOL     OW54488   4.018   3.576   6.641
50864SOL    HW154489   3.959   3.513   6.682
50864SOL    HW254490   4.036   3.640   6.710
50865SOL     OW54491   3.745  11.870  12.260
50865SOL    HW154492   3.669  11.812  12.259
50865SOL    HW254493   3.714  11.950  12.302
50866SOL     OW54494   7.060  14.379   1.759
50866SOL    HW154495   7.107  14.296   1.762
50866SOL    HW254496   6.978  14.363   1.805
50867SOL     OW54497  12.737   8.611   8.666
50867SOL    HW154498  12.801   8.543   8.687
50867SOL    HW254499  12.690   8.626   8.748
50868SOL     OW54500   7.457  11.518   4.473
50868SOL    HW154501   7.484  11.541   4.562
50868SOL    HW254502   7.381  11.573   4.457
50869SOL     OW54503   9.688  14.145  13.050
50869SOL    HW154504   9.654  14.057  13.037
50869SOL    HW254505   9.625  14.202  13.006
50870SOL     OW54506   1.919   2.586   1.974
50870SOL    HW154507   1.916   2.667   1.923
50870SOL    HW254508   1.952   2.520   1.913
50871SOL     OW54509   8.302  14.161   7.789
50871SOL    HW154510   8.394  14.188   7.792
50871SOL    HW254511   8.303  14.072   7.823
50872SOL     OW54512   4.631   3.717  13.265
50872SOL    HW154513   4.556   3.661  13.287
50872SOL    HW254514   4.615   3.743  13.174
50873SOL     OW54515  12.982   8.050   0.032
50873SOL    HW154516  13.025   8.044  14.829
50873SOL    HW254517  12.888   8.050   0.011
50874SOL     OW54518  14.634  14.464   6.149
50874SOL    HW154519  14.689  14.453   6.226
50874SOL    HW254520  14.574  14.390   6.151
50875SOL     OW54521   2.279  13.186   0.649
50875SOL    HW154522   2.206  13.245   0.630
50875SOL    HW254523   2.289  13.133   0.570
50876SOL     OW54524   3.337   4.371   5.120
50876SOL    HW154525   3.321   4.460   5.150
50876SOL    HW254526   3.328   4.317   5.199
50877SOL     OW54527  13.228   1.238   9.608
50877SOL    HW154528  13.267   1.315   9.649
50877SOL    HW254529  13.204   1.181   9.681
50878SOL     OW54530  10.521  14.149   9.963
50878SOL    HW154531  10.487  14.231   9.926
50878SOL    HW254532  10.604  14.135   9.917
50879SOL     OW54533  13.652   7.542   0.647
50879SOL    HW154534  13.695   7.627   0.637
50879SOL    HW254535  13.560   7.564   0.661
50880SOL     OW54536   8.246  14.491   1.181
50880SOL    HW154537   8.289  14.438   1.114
50880SOL    HW254538   8.179  14.539   1.133
50881SOL     OW54539   4.307  11.701   5.176
50881SOL    HW154540   4.330  11.780   5.223
50881SOL    HW254541   4.211  11.704   5.169
50882SOL     OW54542   0.870   7.283   3.984
50882SOL    HW154543   0.832   7.290   4.071
50882SOL    HW254544   0.819   7.343   3.930
50883SOL     OW54545  12.094  12.027  10.716
50883SOL    HW154546  12.077  12.023  10.622
50883SOL    HW254547  12.007  12.039  10.755
50884SOL     OW54548   5.620   8.736   4.772
50884SOL    HW154549   5.578   8.655   4.804
50884SOL    HW254550   5.555   8.804   4.789
50885SOL     OW54551   2.369   9.781   0.920
50885SOL    HW154552   2.281   9.789   0.955
50885SOL    HW254553   2.426   9.781   0.997
50886SOL     OW54554   8.990  13.335  10.075
50886SOL    HW154555   9.003  13.298  10.163
50886SOL    HW254556   8.940  13.268  10.029
50887SOL     OW54557   5.131  10.961   8.377
50887SOL    HW154558   5.152  10.916   8.295
50887SOL    HW254559   5.210  10.954   8.429
50888SOL     OW54560  10.390  13.839  13.712
50888SOL    HW154561  10.331  13.775  13.673
50888SOL    HW254562  10.423  13.796  13.791
50889SOL     OW54563  11.383  14.113   7.484
50889SOL    HW154564  11.467  14.123   7.530
50889SOL    HW254565  11.353  14.203   7.471
50890SOL     OW54566  10.263   2.488   6.320
50890SOL    HW154567  10.288   2.484   6.228
50890SOL    HW254568  10.278   2.579   6.345
50891SOL     OW54569   1.763   9.603   7.065
50891SOL    HW154570   1.696   9.620   6.999
50891SOL    HW254571   1.773   9.686   7.112
50892SOL     OW54572   4.837   4.014   2.231
50892SOL    HW154573   4.897   3.948   2.266
50892SOL    HW254574   4.895   4.083   2.198
50893SOL     OW54575   0.817   9.754  11.860
50893SOL    HW154576   0.755   9.752  11.933
50893SOL    HW254577   0.781   9.819  11.800
50894SOL     OW54578   1.732  10.378  13.159
50894SOL    HW154579   1.675  10.440  13.205
50894SOL    HW254580   1.672  10.321  13.112
50895SOL     OW54581   4.965   5.493   7.539
50895SOL    HW154582   5.037   5.490   7.602
50895SOL    HW254583   4.993   5.559   7.474
50896SOL     OW54584   9.632   2.186  10.366
50896SOL    HW154585   9.579   2.108  10.350
50896SOL    HW254586   9.571   2.259  10.355
50897SOL     OW54587   2.855   9.143   1.167
50897SOL    HW154588   2.907   9.073   1.205
50897SOL    HW254589   2.782   9.098   1.123
50898SOL     OW54590  11.262   3.458   5.798
50898SOL    HW154591  11.313   3.483   5.875
50898SOL    HW254592  11.211   3.537   5.777
50899SOL     OW54593   2.656   2.178   7.318
50899SOL    HW154594   2.610   2.106   7.274
50899SOL    HW254595   2.632   2.256   7.268
50900SOL     OW54596   9.006   5.556  13.622
50900SOL    HW154597   8.925   5.599  13.595
50900SOL    HW254598   9.000   5.468  13.585
50901SOL     OW54599   6.443   8.465   6.530
50901SOL    HW154600   6.414   8.388   6.481
50901SOL    HW254601   6.537   8.452   6.542
50902SOL     OW54602   0.053  10.320   3.138
50902SOL    HW154603   0.087  10.408   3.128
50902SOL    HW254604  14.846  10.324   3.104
50903SOL     OW54605   1.446   8.096   0.717
50903SOL    HW154606   1.519   8.100   0.656
50903SOL    HW254607   1.463   8.167   0.780
50904SOL     OW54608  11.352   1.330   0.843
50904SOL    HW154609  11.436   1.308   0.883
50904SOL    HW254610  11.356   1.425   0.832
50905SOL     OW54611  12.408   6.398  14.036
50905SOL    HW154612  12.479   6.459  14.056
50905SOL    HW254613  12.452   6.314  14.021
50906SOL     OW54614  10.475   3.861   7.850
50906SOL    HW154615  10.502   3.901   7.767
50906SOL    HW254616  10.555   3.861   7.903
50907SOL     OW54617   2.782   6.815   6.502
50907SOL    HW154618   2.809   6.820   6.410
50907SOL    HW254619   2.861   6.788   6.549
50908SOL     OW54620   9.069   3.901   5.803
50908SOL    HW154621   9.008   3.934   5.869
50908SOL    HW254622   9.099   3.817   5.838
50909SOL     OW54623   4.335   7.786  14.821
50909SOL    HW154624   4.314   7.820  14.734
50909SOL    HW254625   4.255   7.802  14.872
50910SOL     OW54626  13.674   5.450   6.014
50910SOL    HW154627  13.733   5.377   6.033
50910SOL    HW254628  13.591   5.408   5.991
50911SOL     OW54629  14.606  12.925   4.750
50911SOL    HW154630  14.621  12.855   4.814
50911SOL    HW254631  14.673  12.911   4.683
50912SOL     OW54632   2.393  14.200   7.516
50912SOL    HW154633   2.418  14.250   7.594
50912SOL    HW254634   2.298  14.197   7.518
50913SOL     OW54635   7.078   3.296   4.321
50913SOL    HW154636   7.112   3.338   4.401
50913SOL    HW254637   7.024   3.224   4.354
50914SOL     OW54638  12.114   9.859   5.391
50914SOL    HW154639  12.162   9.852   5.474
50914SOL    HW254640  12.049   9.926   5.407
50915SOL     OW54641   4.820  10.660  14.769
50915SOL    HW154642   4.769  10.737  14.793
50915SOL    HW254643   4.781  10.589  14.820
50916SOL     OW54644   7.481   9.229  12.200
50916SOL    HW154645   7.399   9.246  12.246
50916SOL    HW254646   7.542   9.294  12.234
50917SOL     OW54647   6.737   3.470  14.299
50917SOL    HW154648   6.786   3.399  14.342
50917SOL    HW254649   6.672   3.425  14.245
50918SOL     OW54650  12.178   1.913  10.696
50918SOL    HW154651  12.236   1.925  10.772
50918SOL    HW254652  12.141   2.000  10.681
50919SOL     OW54653  11.022   7.966   0.483
50919SOL    HW154654  11.097   7.906   0.483
50919SOL    HW254655  11.055   8.046   0.523
50920SOL     OW54656   2.573   9.435  13.636
50920SOL    HW154657   2.664   9.454  13.616
50920SOL    HW254658   2.523   9.497  13.582
50921SOL     OW54659  14.723  12.376  10.630
50921SOL    HW154660  14.728  12.457  10.679
50921SOL    HW254661  14.756  12.309  10.690
50922SOL     OW54662   9.640   0.033   4.376
50922SOL    HW154663   9.707   0.088   4.335
50922SOL    HW254664   9.667   0.027   4.468
50923SOL     OW54665   5.786   7.659   5.684
50923SOL    HW154666   5.854   7.676   5.618
50923SOL    HW254667   5.706   7.648   5.634
50924SOL     OW54668  11.280   8.968  13.215
50924SOL    HW154669  11.286   8.955  13.310
50924SOL    HW254670  11.264   9.062  13.205
50925SOL     OW54671  14.141   9.714   9.187
50925SOL    HW154672  14.182   9.740   9.269
50925SOL    HW254673  14.131   9.796   9.139
50926SOL     OW54674   5.785   5.601   0.844
50926SOL    HW154675   5.775   5.512   0.811
50926SOL    HW254676   5.747   5.656   0.776
50927SOL     OW54677   6.094   8.432  11.235
50927SOL    HW154678   6.136   8.346  11.226
50927SOL    HW254679   6.030   8.434  11.164
50928SOL     OW54680  13.793   4.038   0.746
50928SOL    HW154681  13.886   4.021   0.759
50928SOL    HW254682  13.779   4.024   0.652
50929SOL     OW54683  12.252  14.753   3.029
50929SOL    HW154684  12.258  14.666   2.991
50929SOL    HW254685  12.336  14.765   3.075
50930SOL     OW54686   7.536  12.361  10.644
50930SOL    HW154687   7.516  12.324  10.730
50930SOL    HW254688   7.524  12.289  10.583
50931SOL     OW54689  11.809   6.242  14.716
50931SOL    HW154690  11.824   6.219  14.808
50931SOL    HW254691  11.752   6.319  14.719
50932SOL     OW54692   3.321   6.733   6.884
50932SOL    HW154693   3.351   6.814   6.841
50932SOL    HW254694   3.360   6.736   6.971
50933SOL     OW54695  14.329  14.088   6.346
50933SOL    HW154696  14.376  14.162   6.384
50933SOL    HW254697  14.397  14.024   6.326
50934SOL     OW54698   2.220  10.263   6.762
50934SOL    HW154699   2.163  10.229   6.830
50934SOL    HW254700   2.213  10.358   6.769
50935SOL     OW54701   8.087   3.696   1.858
50935SOL    HW154702   8.133   3.634   1.801
50935SOL    HW254703   8.150   3.766   1.874
50936SOL     OW54704   0.972   5.854   9.679
50936SOL    HW154705   0.949   5.894   9.763
50936SOL    HW254706   1.045   5.796   9.700
50937SOL     OW54707   4.387   5.181   0.782
50937SOL    HW154708   4.424   5.102   0.820
50937SOL    HW254709   4.324   5.150   0.717
50938SOL     OW54710   4.515   1.242   2.342
50938SOL    HW154711   4.505   1.153   2.375
50938SOL    HW254712   4.582   1.235   2.274
50939SOL     OW54713  13.272   0.441  10.194
50939SOL    HW154714  13.236   0.361  10.155
50939SOL    HW254715  13.251   0.435  10.287
50940SOL     OW54716  12.165   3.677  12.132
50940SOL    HW154717  12.165   3.773  12.127
50940SOL    HW254718  12.231   3.650  12.069
50941SOL     OW54719   8.250  10.642   7.013
50941SOL    HW154720   8.174  10.660   6.958
50941SOL    HW254721   8.317  10.702   6.982
50942SOL     OW54722   6.676   3.259   4.209
50942SOL    HW154723   6.756   3.233   4.163
50942SOL    HW254724   6.633   3.320   4.149
50943SOL     OW54725   8.610   7.423   9.955
50943SOL    HW154726   8.677   7.356   9.968
50943SOL    HW254727   8.658   7.501   9.929
50944SOL     OW54728  10.106   5.889  10.305
50944SOL    HW154729  10.173   5.953  10.328
50944SOL    HW254730  10.024   5.928  10.334
50945SOL     OW54731   0.777  11.604  12.546
50945SOL    HW154732   0.682  11.619  12.538
50945SOL    HW254733   0.787  11.509  12.538
50946SOL     OW54734   8.979  14.590  10.582
50946SOL    HW154735   8.916  14.628  10.642
50946SOL    HW254736   8.964  14.496  10.587
50947SOL     OW54737   4.524   5.448  11.621
50947SOL    HW154738   4.464   5.472  11.550
50947SOL    HW254739   4.606   5.490  11.598
50948SOL     OW54740   1.878   1.862   9.009
50948SOL    HW154741   1.847   1.778   8.973
50948SOL    HW254742   1.910   1.840   9.096
50949SOL     OW54743  12.937   2.208  12.690
50949SOL    HW154744  12.978   2.294  12.705
50949SOL    HW254745  12.946   2.194  12.596
50950SOL     OW54746   2.599  10.691  12.190
50950SOL    HW154747   2.683  10.735  12.206
50950SOL    HW254748   2.593  10.625  12.260
50951SOL     OW54749   6.153   8.588  14.614
50951SOL    HW154750   6.153   8.521  14.681
50951SOL    HW254751   6.234   8.637  14.628
50952SOL     OW54752  10.209   3.173  10.815
50952SOL    HW154753  10.196   3.078  10.812
50952SOL    HW254754  10.170   3.200  10.898
50953SOL     OW54755   3.882   9.842  12.961
50953SOL    HW154756   3.880   9.747  12.950
50953SOL    HW254757   3.884   9.876  12.872
50954SOL     OW54758   1.786   2.536  11.896
50954SOL    HW154759   1.816   2.445  11.894
50954SOL    HW254760   1.847   2.581  11.954
50955SOL     OW54761  10.618   7.403  13.367
50955SOL    HW154762  10.524   7.415  13.355
50955SOL    HW254763  10.647   7.354  13.291
50956SOL     OW54764  14.611  10.585  12.330
50956SOL    HW154765  14.614  10.492  12.353
50956SOL    HW254766  14.687  10.623  12.374
50957SOL     OW54767   5.089   5.036  13.162
50957SOL    HW154768   5.101   5.018  13.069
50957SOL    HW254769   5.049   5.123  13.165
50958SOL     OW54770   4.640   4.615  11.166
50958SOL    HW154771   4.595   4.538  11.199
50958SOL    HW254772   4.638   4.606  11.071
50959SOL     OW54773   2.797   6.087   1.083
50959SOL    HW154774   2.858   6.111   1.013
50959SOL    HW254775   2.722   6.048   1.037
50960SOL     OW54776  13.742   4.634   4.160
50960SOL    HW154777  13.746   4.657   4.253
50960SOL    HW254778  13.808   4.689   4.119
50961SOL     OW54779   0.262   6.972   4.321
50961SOL    HW154780   0.324   6.903   4.298
50961SOL    HW254781   0.314   7.036   4.370
50962SOL     OW54782   5.485   7.959   2.749
50962SOL    HW154783   5.540   8.022   2.796
50962SOL    HW254784   5.435   7.914   2.817
50963SOL     OW54785  13.690   4.257  11.896
50963SOL    HW154786  13.675   4.168  11.863
50963SOL    HW254787  13.604   4.288  11.923
50964SOL     OW54788   3.782  10.403   3.743
50964SOL    HW154789   3.794  10.310   3.723
50964SOL    HW254790   3.844  10.421   3.813
50965SOL     OW54791   2.694   0.581  14.173
50965SOL    HW154792   2.634   0.633  14.227
50965SOL    HW254793   2.773   0.573  14.227
50966SOL     OW54794   6.616   9.414   7.194
50966SOL    HW154795   6.534   9.367   7.209
50966SOL    HW254796   6.618   9.430   7.099
50967SOL     OW54797  10.163   7.845   7.931
50967SOL    HW154798  10.132   7.898   8.004
50967SOL    HW254799  10.084   7.803   7.896
50968SOL     OW54800   3.420  10.499   4.512
50968SOL    HW154801   3.492  10.444   4.481
50968SOL    HW254802   3.392  10.457   4.594
50969SOL     OW54803   4.207   4.235   8.997
50969SOL    HW154804   4.146   4.309   9.001
50969SOL    HW254805   4.233   4.221   9.088
50970SOL     OW54806   4.650  11.949   1.756
50970SOL    HW154807   4.713  11.880   1.734
50970SOL    HW254808   4.650  11.951   1.852
50971SOL     OW54809  12.587   3.619   2.491
50971SOL    HW154810  12.546   3.704   2.510
50971SOL    HW254811  12.544   3.558   2.550
50972SOL     OW54812   0.409   5.159  11.703
50972SOL    HW154813   0.344   5.229  11.705
50972SOL    HW254814   0.489   5.200  11.670
50973SOL     OW54815   7.784   8.443   0.669
50973SOL    HW154816   7.773   8.435   0.574
50973SOL    HW254817   7.878   8.438   0.683
50974SOL     OW54818  11.063   8.088  11.335
50974SOL    HW154819  10.976   8.066  11.303
50974SOL    HW254820  11.062   8.183  11.343
50975SOL     OW54821   5.977  10.392   4.818
50975SOL    HW154822   5.968  10.388   4.913
50975SOL    HW254823   5.994  10.301   4.791
50976SOL     OW54824   2.657   6.679   4.395
50976SOL    HW154825   2.569   6.704   4.422
50976SOL    HW254826   2.708   6.676   4.476
50977SOL     OW54827   6.408  13.203   0.816
50977SOL    HW154828   6.332  13.170   0.865
50977SOL    HW254829   6.382  13.291   0.789
50978SOL     OW54830   8.549   7.440  14.242
50978SOL    HW154831   8.589   7.385  14.309
50978SOL    HW254832   8.466   7.395  14.222
50979SOL     OW54833   7.623   0.141   9.418
50979SOL    HW154834   7.585   0.192   9.347
50979SOL    HW254835   7.672   0.204   9.471
50980SOL     OW54836   2.656   6.191   9.791
50980SOL    HW154837   2.585   6.225   9.736
50980SOL    HW254838   2.655   6.248   9.868
50981SOL     OW54839  13.241  13.165  12.297
50981SOL    HW154840  13.224  13.111  12.220
50981SOL    HW254841  13.249  13.254  12.262
50982SOL     OW54842  14.469   7.903   9.320
50982SOL    HW154843  14.417   7.958   9.379
50982SOL    HW254844  14.547   7.956   9.301
50983SOL     OW54845  13.286   7.601  14.212
50983SOL    HW154846  13.210   7.575  14.265
50983SOL    HW254847  13.361   7.587  14.269
50984SOL     OW54848   2.366   1.196  14.564
50984SOL    HW154849   2.409   1.190  14.649
50984SOL    HW254850   2.420   1.142  14.506
50985SOL     OW54851  12.537  14.301  11.690
50985SOL    HW154852  12.461  14.265  11.645
50985SOL    HW254853  12.502  14.371  11.746
50986SOL     OW54854  11.703   4.883  12.296
50986SOL    HW154855  11.794   4.880  12.266
50986SOL    HW254856  11.655   4.920  12.221
50987SOL     OW54857   5.152  13.386   8.338
50987SOL    HW154858   5.128  13.479   8.337
50987SOL    HW254859   5.090  13.345   8.277
50988SOL     OW54860   8.137   9.344   6.010
50988SOL    HW154861   8.082   9.266   6.010
50988SOL    HW254862   8.199   9.330   5.939
50989SOL     OW54863  13.598   1.024   2.615
50989SOL    HW154864  13.623   0.966   2.543
50989SOL    HW254865  13.610   0.970   2.693
50990SOL     OW54866   3.888   0.043   9.680
50990SOL    HW154867   3.928  14.849   9.638
50990SOL    HW254868   3.794   0.025   9.679
50991SOL     OW54869   0.364   4.059   7.892
50991SOL    HW154870   0.422   4.016   7.955
50991SOL    HW254871   0.323   4.130   7.941
50992SOL     OW54872  13.044   7.925  12.381
50992SOL    HW154873  12.991   7.883  12.313
50992SOL    HW254874  13.090   7.852  12.423
50993SOL     OW54875  10.743  10.454  13.719
50993SOL    HW154876  10.652  10.464  13.746
50993SOL    HW254877  10.738  10.415  13.632
50994SOL     OW54878   4.470   5.646   2.567
50994SOL    HW154879   4.411   5.696   2.511
50994SOL    HW254880   4.439   5.555   2.559
50995SOL     OW54881   0.220   6.423   0.068
50995SOL    HW154882   0.193   6.465  14.869
50995SOL    HW254883   0.212   6.329   0.050
50996SOL     OW54884  14.819  11.775  11.930
50996SOL    HW154885   0.028  11.802  11.914
50996SOL    HW254886  14.768  11.820  11.863
50997SOL     OW54887   5.936   9.522   4.385
50997SOL    HW154888   5.962   9.553   4.299
50997SOL    HW254889   5.973   9.433   4.390
50998SOL     OW54890  10.189  10.437   3.179
50998SOL    HW154891  10.230  10.453   3.094
50998SOL    HW254892  10.097  10.460   3.166
50999SOL     OW54893  14.571  10.150   7.957
50999SOL    HW154894  14.626  10.199   8.017
50999SOL    HW254895  14.559  10.065   7.999
51000SOL     OW54896   8.167  10.424  12.738
51000SOL    HW154897   8.165  10.512  12.776
51000SOL    HW254898   8.211  10.435  12.654
51001SOL     OW54899   0.736   8.117  11.755
51001SOL    HW154900   0.702   8.085  11.839
51001SOL    HW254901   0.780   8.041  11.716
51002SOL     OW54902   6.552   4.547   1.650
51002SOL    HW154903   6.576   4.521   1.561
51002SOL    HW254904   6.635   4.575   1.690
51003SOL     OW54905   0.544   8.075  13.868
51003SOL    HW154906   0.614   8.009  13.864
51003SOL    HW254907   0.476   8.034  13.921
51004SOL     OW54908  14.360  12.694  11.929
51004SOL    HW154909  14.348  12.600  11.916
51004SOL    HW254910  14.368  12.703  12.024
51005SOL     OW54911   9.348   8.653  11.309
51005SOL    HW154912   9.414   8.716  11.336
51005SOL    HW254913   9.397   8.582  11.269
51006SOL     OW54914   9.287   6.522   7.314
51006SOL    HW154915   9.238   6.596   7.349
51006SOL    HW254916   9.220   6.463   7.278
51007SOL     OW54917   4.184   1.903   5.483
51007SOL    HW154918   4.274   1.873   5.496
51007SOL    HW254919   4.157   1.937   5.568
51008SOL     OW54920   3.327   7.193   1.467
51008SOL    HW154921   3.278   7.127   1.516
51008SOL    HW254922   3.295   7.186   1.377
51009SOL     OW54923  10.778   4.253   3.709
51009SOL    HW154924  10.788   4.170   3.662
51009SOL    HW254925  10.684   4.263   3.722
51010SOL     OW54926   1.103   4.870  13.882
51010SOL    HW154927   1.146   4.785  13.882
51010SOL    HW254928   1.137   4.914  13.803
51011SOL     OW54929   0.165   2.449   0.632
51011SOL    HW154930   0.070   2.444   0.645
51011SOL    HW254931   0.202   2.441   0.720
51012SOL     OW54932   4.132   8.637   6.595
51012SOL    HW154933   4.109   8.729   6.579
51012SOL    HW254934   4.065   8.606   6.656
51013SOL     OW54935  11.298  14.260   0.332
51013SOL    HW154936  11.315  14.225   0.244
51013SOL    HW254937  11.264  14.348   0.317
51014SOL     OW54938   7.066  11.435  12.841
51014SOL    HW154939   7.020  11.428  12.757
51014SOL    HW254940   6.999  11.420  12.907
51015SOL     OW54941  13.946   9.771  11.922
51015SOL    HW154942  13.887   9.720  11.977
51015SOL    HW254943  13.946   9.726  11.838
51016SOL     OW54944  12.840  11.014   3.089
51016SOL    HW154945  12.934  11.021   3.104
51016SOL    HW254946  12.804  10.988   3.174
51017SOL     OW54947   9.219   3.234   0.926
51017SOL    HW154948   9.263   3.160   0.966
51017SOL    HW254949   9.152   3.195   0.869
51018SOL     OW54950   9.945   0.123   6.275
51018SOL    HW154951  10.013   0.156   6.217
51018SOL    HW254952   9.961   0.166   6.359
51019SOL     OW54953  13.413  13.247  10.342
51019SOL    HW154954  13.447  13.309  10.406
51019SOL    HW254955  13.318  13.246  10.357
51020SOL     OW54956   2.223   1.584  11.352
51020SOL    HW154957   2.223   1.580  11.257
51020SOL    HW254958   2.308   1.548  11.377
51021SOL     OW54959  10.971  13.626   2.702
51021SOL    HW154960  10.946  13.666   2.785
51021SOL    HW254961  11.015  13.697   2.654
51022SOL     OW54962   4.314  11.009  10.198
51022SOL    HW154963   4.312  11.069  10.272
51022SOL    HW254964   4.223  10.998  10.173
51023SOL     OW54965   2.074  13.039   4.904
51023SOL    HW154966   2.023  13.092   4.966
51023SOL    HW254967   2.160  13.081   4.902
51024SOL     OW54968   7.652   8.293   7.758
51024SOL    HW154969   7.728   8.346   7.784
51024SOL    HW254970   7.580   8.356   7.752
51025SOL     OW54971  12.170  13.128   9.690
51025SOL    HW154972  12.179  13.043   9.646
51025SOL    HW254973  12.113  13.110   9.765
51026SOL     OW54974   4.949   3.298   6.524
51026SOL    HW154975   4.977   3.207   6.540
51026SOL    HW254976   4.974   3.314   6.433
51027SOL     OW54977   2.477  12.316  11.571
51027SOL    HW154978   2.513  12.391  11.618
51027SOL    HW254979   2.382  12.326  11.577
51028SOL     OW54980  14.728  13.178   1.341
51028SOL    HW154981  14.742  13.143   1.253
51028SOL    HW254982  14.645  13.140   1.370
51029SOL     OW54983  11.551   6.651   5.421
51029SOL    HW154984  11.488   6.671   5.490
51029SOL    HW254985  11.631   6.698   5.446
51030SOL     OW54986   1.834   4.419   3.878
51030SOL    HW154987   1.793   4.351   3.825
51030SOL    HW254988   1.776   4.495   3.869
51031SOL     OW54989  13.858   5.871   3.750
51031SOL    HW154990  13.779   5.836   3.709
51031SOL    HW254991  13.833   5.959   3.778
51032SOL     OW54992   0.586   7.811   6.114
51032SOL    HW154993   0.666   7.822   6.062
51032SOL    HW254994   0.618   7.795   6.203
51033SOL     OW54995  13.896   3.109   8.702
51033SOL    HW154996  13.869   3.036   8.645
51033SOL    HW254997  13.932   3.066   8.780
51034SOL     OW54998   3.933   4.779   3.282
51034SOL    HW154999   4.026   4.759   3.274
51034SOL    HW255000   3.919   4.851   3.219
51035SOL     OW55001   2.798  11.792   5.445
51035SOL    HW155002   2.832  11.881   5.442
51035SOL    HW255003   2.703  11.802   5.434
51036SOL     OW55004   5.266   1.143   8.443
51036SOL    HW155005   5.289   1.219   8.496
51036SOL    HW255006   5.348   1.118   8.400
51037SOL     OW55007   1.487   2.189   9.952
51037SOL    HW155008   1.560   2.235   9.910
51037SOL    HW255009   1.428   2.167   9.880
51038SOL     OW55010   3.955  13.356   4.284
51038SOL    HW155011   4.045  13.341   4.256
51038SOL    HW255012   3.944  13.302   4.362
51039SOL     OW55013   1.933   0.412   1.777
51039SOL    HW155014   1.951   0.329   1.733
51039SOL    HW255015   1.882   0.462   1.713
51040SOL     OW55016   0.016   5.806   3.434
51040SOL    HW155017  14.872   5.887   3.478
51040SOL    HW255018   0.108   5.821   3.410
51041SOL     OW55019  13.370   2.445   3.607
51041SOL    HW155020  13.465   2.459   3.601
51041SOL    HW255021  13.353   2.374   3.544
51042SOL     OW55022   0.495   9.184   1.222
51042SOL    HW155023   0.513   9.226   1.306
51042SOL    HW255024   0.426   9.237   1.183
51043SOL     OW55025  12.368   6.465   6.689
51043SOL    HW155026  12.365   6.560   6.702
51043SOL    HW255027  12.305   6.430   6.751
51044SOL     OW55028   0.968   4.646   4.142
51044SOL    HW155029   0.896   4.596   4.180
51044SOL    HW255030   1.029   4.659   4.214
51045SOL     OW55031  10.513  14.673   6.115
51045SOL    HW155032  10.574  14.650   6.045
51045SOL    HW255033  10.512  14.597   6.173
51046SOL     OW55034  13.879   2.233   8.128
51046SOL    HW155035  13.837   2.286   8.195
51046SOL    HW255036  13.851   2.144   8.146
51047SOL     OW55037   8.516  12.269  10.555
51047SOL    HW155038   8.533  12.175  10.548
51047SOL    HW255039   8.596  12.305  10.593
51048SOL     OW55040  14.690   7.867  13.266
51048SOL    HW155041  14.659   7.958  13.260
51048SOL    HW255042  14.777   7.873  13.303
51049SOL     OW55043   8.492   4.834   5.505
51049SOL    HW155044   8.574   4.858   5.549
51049SOL    HW255045   8.445   4.917   5.498
51050SOL     OW55046  12.183   3.648  11.569
51050SOL    HW155047  12.256   3.591  11.594
51050SOL    HW255048  12.140   3.602  11.497
51051SOL     OW55049   4.242   7.368  11.595
51051SOL    HW155050   4.148   7.372  11.580
51051SOL    HW255051   4.269   7.460  11.600
51052SOL     OW55052  13.258  12.268   9.766
51052SOL    HW155053  13.265  12.273   9.862
51052SOL    HW255054  13.268  12.358   9.736
51053SOL     OW55055   5.255  14.262   2.007
51053SOL    HW155056   5.336  14.302   2.038
51053SOL    HW255057   5.207  14.242   2.087
51054SOL     OW55058   5.860  10.812   6.278
51054SOL    HW155059   5.815  10.852   6.352
51054SOL    HW255060   5.855  10.718   6.296
51055SOL     OW55061   3.624   1.997   0.086
51055SOL    HW155062   3.627   1.972   0.178
51055SOL    HW255063   3.546   2.051   0.078
51056SOL     OW55064  11.286   6.458   6.434
51056SOL    HW155065  11.245   6.411   6.361
51056SOL    HW255066  11.217   6.463   6.501
51057SOL     OW55067  12.243   2.291  14.388
51057SOL    HW155068  12.317   2.333  14.346
51057SOL    HW255069  12.174   2.290  14.322
51058SOL     OW55070  10.821   6.411  14.560
51058SOL    HW155071  10.850   6.330  14.518
51058SOL    HW255072  10.811   6.388  14.652
51059SOL     OW55073   7.246   7.457  11.478
51059SOL    HW155074   7.330   7.502  11.493
51059SOL    HW255075   7.202   7.460  11.562
51060SOL     OW55076   4.176   5.134   3.870
51060SOL    HW155077   4.269   5.132   3.847
51060SOL    HW255078   4.132   5.108   3.790
51061SOL     OW55079   9.435  11.325   5.578
51061SOL    HW155080   9.458  11.275   5.500
51061SOL    HW255081   9.428  11.415   5.548
51062SOL     OW55082   3.313   8.586   6.121
51062SOL    HW155083   3.235   8.581   6.065
51062SOL    HW255084   3.340   8.495   6.132
51063SOL     OW55085  11.607   4.028  10.115
51063SOL    HW155086  11.653   4.072  10.044
51063SOL    HW255087  11.543   3.972  10.070
51064SOL     OW55088   0.180   6.229   4.335
51064SOL    HW155089   0.116   6.159   4.327
51064SOL    HW255090   0.179   6.272   4.249
51065SOL     OW55091   7.888  12.890   9.942
51065SOL    HW155092   7.954  12.821   9.931
51065SOL    HW255093   7.850  12.873  10.028
51066SOL     OW55094   3.234   8.811  13.045
51066SOL    HW155095   3.240   8.802  12.950
51066SOL    HW255096   3.274   8.732  13.081
51067SOL     OW55097   8.452  11.434   4.810
51067SOL    HW155098   8.499  11.353   4.830
51067SOL    HW255099   8.472  11.492   4.884
51068SOL     OW55100   6.403   4.054   9.628
51068SOL    HW155101   6.480   4.094   9.667
51068SOL    HW255102   6.329   4.106   9.661
51069SOL     OW55103  11.777  11.175   0.865
51069SOL    HW155104  11.796  11.208   0.953
51069SOL    HW255105  11.710  11.108   0.879
51070SOL     OW55106   8.852   3.469   5.571
51070SOL    HW155107   8.857   3.388   5.521
51070SOL    HW255108   8.895   3.534   5.514
51071SOL     OW55109   5.994  13.600   5.310
51071SOL    HW155110   6.051  13.543   5.258
51071SOL    HW255111   6.011  13.688   5.275
51072SOL     OW55112   3.415  11.809   9.498
51072SOL    HW155113   3.328  11.847   9.493
51072SOL    HW255114   3.409  11.746   9.571
51073SOL     OW55115   6.495   8.147   2.186
51073SOL    HW155116   6.529   8.227   2.228
51073SOL    HW255117   6.400   8.156   2.193
51074SOL     OW55118  11.198   9.495  12.853
51074SOL    HW155119  11.271   9.522  12.909
51074SOL    HW255120  11.235   9.490  12.765
51075SOL     OW55121   3.720   1.883   9.832
51075SOL    HW155122   3.691   1.796   9.807
51075SOL    HW255123   3.805   1.870   9.873
51076SOL     OW55124   6.333   0.465  12.300
51076SOL    HW155125   6.284   0.433  12.224
51076SOL    HW255126   6.425   0.460  12.273
51077SOL     OW55127   8.617   9.240  10.580
51077SOL    HW155128   8.699   9.197  10.556
51077SOL    HW255129   8.595   9.204  10.666
51078SOL     OW55130   9.901   5.427   5.752
51078SOL    HW155131   9.848   5.355   5.784
51078SOL    HW255132   9.914   5.407   5.659
51079SOL     OW55133   5.090  14.180   2.362
51079SOL    HW155134   5.029  14.241   2.323
51079SOL    HW255135   5.037  14.103   2.383
51080SOL     OW55136   3.192  11.066  14.045
51080SOL    HW155137   3.231  11.042  13.960
51080SOL    HW255138   3.258  11.040  14.109
51081SOL     OW55139   8.962   8.856  12.143
51081SOL    HW155140   9.025   8.812  12.200
51081SOL    HW255141   8.992   8.837  12.054
51082SOL     OW55142   0.813  10.288   3.147
51082SOL    HW155143   0.741  10.339   3.109
51082SOL    HW255144   0.819  10.210   3.091
51083SOL     OW55145   8.862   6.277   3.293
51083SOL    HW155146   8.872   6.331   3.215
51083SOL    HW255147   8.860   6.339   3.366
51084SOL     OW55148  13.988  13.708   8.269
51084SOL    HW155149  13.985  13.765   8.192
51084SOL    HW255150  13.976  13.768   8.343
51085SOL     OW55151  13.838   9.975   5.598
51085SOL    HW155152  13.800   9.887   5.593
51085SOL    HW255153  13.919   9.969   5.546
51086SOL     OW55154   0.189  12.242  13.963
51086SOL    HW155155   0.151  12.167  14.009
51086SOL    HW255156   0.278  12.215  13.942
51087SOL     OW55157   0.200   7.111   6.426
51087SOL    HW155158   0.255   7.044   6.385
51087SOL    HW255159   0.261   7.182   6.447
51088SOL     OW55160   6.774   5.518   6.348
51088SOL    HW155161   6.813   5.488   6.266
51088SOL    HW255162   6.844   5.513   6.412
51089SOL     OW55163   0.100   6.743   2.603
51089SOL    HW155164   0.065   6.788   2.526
51089SOL    HW255165   0.164   6.804   2.640
51090SOL     OW55166   0.884  13.046   0.183
51090SOL    HW155167   0.793  13.048   0.156
51090SOL    HW255168   0.933  13.028   0.103
51091SOL     OW55169   6.689   7.956  11.237
51091SOL    HW155170   6.746   7.994  11.304
51091SOL    HW255171   6.605   7.943  11.280
51092SOL     OW55172   1.644   2.824   3.701
51092SOL    HW155173   1.645   2.824   3.796
51092SOL    HW255174   1.695   2.746   3.677
51093SOL     OW55175   8.850  14.661   2.245
51093SOL    HW155176   8.789  14.722   2.286
51093SOL    HW255177   8.794  14.595   2.205
51094SOL     OW55178   0.201  12.431   4.211
51094SOL    HW155179   0.227  12.427   4.303
51094SOL    HW255180   0.281  12.414   4.162
51095SOL     OW55181   1.569  10.725   2.064
51095SOL    HW155182   1.520  10.728   1.982
51095SOL    HW255183   1.531  10.794   2.118
51096SOL     OW55184   5.365   9.135   0.322
51096SOL    HW155185   5.296   9.164   0.381
51096SOL    HW255186   5.323   9.071   0.265
51097SOL     OW55187   9.965   2.576   2.404
51097SOL    HW155188   9.979   2.669   2.425
51097SOL    HW255189   9.951   2.575   2.310
51098SOL     OW55190  13.126   9.110  10.942
51098SOL    HW155191  13.034   9.119  10.919
51098SOL    HW255192  13.172   9.110  10.858
51099SOL     OW55193  12.956   8.224   0.437
51099SOL    HW155194  13.005   8.203   0.357
51099SOL    HW255195  12.931   8.138   0.472
51100SOL     OW55196   2.668   3.007  13.371
51100SOL    HW155197   2.613   3.085  13.365
51100SOL    HW255198   2.610   2.934  13.348
51101SOL     OW55199   3.596   2.279   1.802
51101SOL    HW155200   3.628   2.217   1.867
51101SOL    HW255201   3.583   2.360   1.850
51102SOL     OW55202   6.807  14.208   2.841
51102SOL    HW155203   6.821  14.220   2.935
51102SOL    HW255204   6.713  14.215   2.829
51103SOL     OW55205   7.692   8.330   9.036
51103SOL    HW155206   7.743   8.337   8.955
51103SOL    HW255207   7.637   8.408   9.036
51104SOL     OW55208  10.239   2.760   7.902
51104SOL    HW155209  10.306   2.826   7.888
51104SOL    HW255210  10.283   2.692   7.953
51105SOL     OW55211   7.581   7.506   0.899
51105SOL    HW155212   7.490   7.537   0.893
51105SOL    HW255213   7.587   7.469   0.987
51106SOL     OW55214   6.216   9.824   4.150
51106SOL    HW155215   6.308   9.802   4.132
51106SOL    HW255216   6.219   9.881   4.227
51107SOL     OW55217   5.400  11.216  11.756
51107SOL    HW155218   5.342  11.211  11.680
51107SOL    HW255219   5.375  11.142  11.811
51108SOL     OW55220  12.153  13.954  10.906
51108SOL    HW155221  12.227  13.901  10.935
51108SOL    HW255222  12.078  13.919  10.954
51109SOL     OW55223   9.340   3.734   6.392
51109SOL    HW155224   9.409   3.674   6.417
51109SOL    HW255225   9.352   3.749   6.299
51110SOL     OW55226   1.461  14.529   7.776
51110SOL    HW155227   1.507  14.448   7.757
51110SOL    HW255228   1.530  14.590   7.804
51111SOL     OW55229   9.585   5.104   8.969
51111SOL    HW155230   9.658   5.044   8.957
51111SOL    HW255231   9.570   5.141   8.882
51112SOL     OW55232   1.660   8.544  12.440
51112SOL    HW155233   1.699   8.616  12.490
51112SOL    HW255234   1.571   8.574  12.420
51113SOL     OW55235   4.798   8.720   5.155
51113SOL    HW155236   4.835   8.645   5.108
51113SOL    HW255237   4.870   8.783   5.161
51114SOL     OW55238   9.622   0.719  14.250
51114SOL    HW155239   9.670   0.799  14.272
51114SOL    HW255240   9.659   0.652  14.307
51115SOL     OW55241   1.131   4.701   7.726
51115SOL    HW155242   1.151   4.607   7.731
51115SOL    HW255243   1.217   4.744   7.731
51116SOL     OW55244   7.452   1.554  14.816
51116SOL    HW155245   7.435   1.502  14.738
51116SOL    HW255246   7.458   1.489   0.005
51117SOL     OW55247   7.925   5.053  12.329
51117SOL    HW155248   7.920   5.022  12.420
51117SOL    HW255249   7.851   5.010  12.286
51118SOL     OW55250   2.688  14.731   6.470
51118SOL    HW155251   2.616  14.689   6.518
51118SOL    HW255252   2.676  14.825   6.487
51119SOL     OW55253   3.472  13.240  13.079
51119SOL    HW155254   3.401  13.197  13.031
51119SOL    HW255255   3.433  13.260  13.165
51120SOL     OW55256  10.237  13.826   1.191
51120SOL    HW155257  10.282  13.897   1.145
51120SOL    HW255258  10.296  13.803   1.263
51121SOL     OW55259   9.668  14.722   9.443
51121SOL    HW155260   9.588  14.673   9.463
51121SOL    HW255261   9.738  14.658   9.452
51122SOL     OW55262   8.676   3.192   0.146
51122SOL    HW155263   8.766   3.223   0.140
51122SOL    HW255264   8.647   3.183   0.056
51123SOL     OW55265   2.960   0.505  12.077
51123SOL    HW155266   2.900   0.578  12.088
51123SOL    HW255267   2.979   0.504  11.983
51124SOL     OW55268   3.044   6.956  10.215
51124SOL    HW155269   3.129   6.938  10.174
51124SOL    HW255270   3.000   6.872  10.217
51125SOL     OW55271  13.562   2.589   7.320
51125SOL    HW155272  13.653   2.557   7.321
51125SOL    HW255273  13.524   2.554   7.400
51126SOL     OW55274   1.596   9.819   7.934
51126SOL    HW155275   1.539   9.895   7.944
51126SOL    HW255276   1.643   9.814   8.018
51127SOL     OW55277   4.427   2.488   4.334
51127SOL    HW155278   4.475   2.468   4.254
51127SOL    HW255279   4.351   2.538   4.306
51128SOL     OW55280  10.598  13.438   8.710
51128SOL    HW155281  10.519  13.386   8.696
51128SOL    HW255282  10.653  13.419   8.634
51129SOL     OW55283   5.703  10.335   1.437
51129SOL    HW155284   5.655  10.281   1.499
51129SOL    HW255285   5.790  10.295   1.431
51130SOL     OW55286  10.272   1.788   5.251
51130SOL    HW155287  10.358   1.758   5.283
51130SOL    HW255288  10.292   1.858   5.190
51131SOL     OW55289  11.374  12.315   0.638
51131SOL    HW155290  11.334  12.236   0.674
51131SOL    HW255291  11.370  12.302   0.543
51132SOL     OW55292  14.857   2.400  10.283
51132SOL    HW155293   0.051   2.346  10.303
51132SOL    HW255294  14.847   2.456  10.360
51133SOL     OW55295   9.618   2.216   7.216
51133SOL    HW155296   9.699   2.265   7.228
51133SOL    HW255297   9.557   2.255   7.279
51134SOL     OW55298   8.093  11.751   0.534
51134SOL    HW155299   8.101  11.692   0.459
51134SOL    HW255300   7.999  11.768   0.541
51135SOL     OW55301  12.937   5.686  12.226
51135SOL    HW155302  13.027   5.659  12.209
51135SOL    HW255303  12.931   5.775  12.192
51136SOL     OW55304  13.516  11.950   0.835
51136SOL    HW155305  13.447  11.910   0.887
51136SOL    HW255306  13.474  11.974   0.752
51137SOL     OW55307   2.243   8.029  14.265
51137SOL    HW155308   2.247   8.123  14.281
51137SOL    HW255309   2.149   8.009  14.260
51138SOL     OW55310   4.161   5.889   5.735
51138SOL    HW155311   4.090   5.952   5.745
51138SOL    HW255312   4.232   5.939   5.693
51139SOL     OW55313   2.666  14.870   0.654
51139SOL    HW155314   2.742  14.829   0.613
51139SOL    HW255315   2.594  14.809   0.638
51140SOL     OW55316  14.154   0.357  13.122
51140SOL    HW155317  14.136   0.449  13.103
51140SOL    HW255318  14.191   0.322  13.041
51141SOL     OW55319   1.946   4.072   0.136
51141SOL    HW155320   1.914   4.147   0.085
51141SOL    HW255321   1.937   3.997   0.077
51142SOL     OW55322  14.505  14.530   6.824
51142SOL    HW155323  14.451  14.519   6.746
51142SOL    HW255324  14.484  14.455   6.879
51143SOL     OW55325  12.822   8.719   5.101
51143SOL    HW155326  12.879   8.642   5.101
51143SOL    HW255327  12.736   8.685   5.076
51144SOL     OW55328   1.384   1.676  10.522
51144SOL    HW155329   1.418   1.588  10.508
51144SOL    HW255330   1.319   1.688  10.453
51145SOL     OW55331   0.171   1.136   4.937
51145SOL    HW155332   0.244   1.076   4.923
51145SOL    HW255333   0.156   1.177   4.851
51146SOL     OW55334   7.580  13.147   3.576
51146SOL    HW155335   7.525  13.086   3.626
51146SOL    HW255336   7.655  13.094   3.549
51147SOL     OW55337   3.315  13.345   9.483
51147SOL    HW155338   3.379  13.280   9.453
51147SOL    HW255339   3.258  13.297   9.543
51148SOL     OW55340  11.463   8.931   0.358
51148SOL    HW155341  11.484   8.923   0.452
51148SOL    HW255342  11.546   8.955   0.317
51149SOL     OW55343   2.386  11.704   8.464
51149SOL    HW155344   2.333  11.631   8.496
51149SOL    HW255345   2.465  11.663   8.429
51150SOL     OW55346   7.797  14.856  12.037
51150SOL    HW155347   7.737   0.045  12.015
51150SOL    HW255348   7.744  14.777  12.031
51151SOL     OW55349   6.761   2.182   4.461
51151SOL    HW155350   6.775   2.087   4.468
51151SOL    HW255351   6.747   2.211   4.551
51152SOL     OW55352   6.495  10.008  12.302
51152SOL    HW155353   6.434   9.972  12.238
51152SOL    HW255354   6.549   9.934  12.329
51153SOL     OW55355   4.994   0.318   0.641
51153SOL    HW155356   4.917   0.375   0.645
51153SOL    HW255357   5.060   0.370   0.596
51154SOL     OW55358   4.647   0.694  14.507
51154SOL    HW155359   4.606   0.608  14.515
51154SOL    HW255360   4.726   0.679  14.455
51155SOL     OW55361   7.269  12.821  11.044
51155SOL    HW155362   7.269  12.825  10.948
51155SOL    HW255363   7.299  12.732  11.064
51156SOL     OW55364   9.791   9.770   1.927
51156SOL    HW155365   9.859   9.826   1.964
51156SOL    HW255366   9.747   9.732   2.003
51157SOL     OW55367   8.696  12.299   2.874
51157SOL    HW155368   8.758  12.355   2.827
51157SOL    HW255369   8.707  12.213   2.834
51158SOL     OW55370   1.955   1.626  12.454
51158SOL    HW155371   2.007   1.705  12.467
51158SOL    HW255372   1.869   1.658  12.430
51159SOL     OW55373  13.992   1.999  10.869
51159SOL    HW155374  14.002   2.022  10.961
51159SOL    HW255375  13.899   1.981  10.858
51160SOL     OW55376   6.755  11.301  14.393
51160SOL    HW155377   6.703  11.379  14.410
51160SOL    HW255378   6.717  11.264  14.313
51161SOL     OW55379   2.573  14.798   3.424
51161SOL    HW155380   2.664  14.824   3.412
51161SOL    HW255381   2.524  14.850   3.359
51162SOL     OW55382  11.742   1.890  14.823
51162SOL    HW155383  11.819   1.916  14.874
51162SOL    HW255384  11.707   1.972  14.789
51163SOL     OW55385   2.856  11.649   4.070
51163SOL    HW155386   2.770  11.605   4.072
51163SOL    HW255387   2.910  11.595   4.013
51164SOL     OW55388  12.936   9.671   4.672
51164SOL    HW155389  12.858   9.627   4.706
51164SOL    HW255390  12.925   9.670   4.577
51165SOL     OW55391  10.073   0.444  10.718
51165SOL    HW155392  10.023   0.525  10.707
51165SOL    HW255393  10.054   0.416  10.807
51166SOL     OW55394   6.598   1.893   7.410
51166SOL    HW155395   6.581   1.824   7.474
51166SOL    HW255396   6.607   1.846   7.327
51167SOL     OW55397   6.255  10.098   2.883
51167SOL    HW155398   6.315  10.172   2.882
51167SOL    HW255399   6.214  10.099   2.796
51168SOL     OW55400   0.085   3.153  12.794
51168SOL    HW155401  14.876   3.131  12.775
51168SOL    HW255402   0.120   3.077  12.840
51169SOL     OW55403   3.596   8.934  11.630
51169SOL    HW155404   3.677   8.912  11.677
51169SOL    HW255405   3.621   9.006  11.573
51170SOL     OW55406   1.741  14.392  12.093
51170SOL    HW155407   1.779  14.426  12.012
51170SOL    HW255408   1.798  14.425  12.163
51171SOL     OW55409  13.669   4.490   0.180
51171SOL    HW155410  13.670   4.395   0.188
51171SOL    HW255411  13.587   4.518   0.221
51172SOL     OW55412   1.109   8.464   4.447
51172SOL    HW155413   1.095   8.385   4.395
51172SOL    HW255414   1.090   8.536   4.387
51173SOL     OW55415   3.296   0.278  12.753
51173SOL    HW155416   3.345   0.338  12.696
51173SOL    HW255417   3.260   0.212  12.693
51174SOL     OW55418   4.208  10.573  13.719
51174SOL    HW155419   4.163  10.576  13.635
51174SOL    HW255420   4.287  10.627  13.706
51175SOL     OW55421   0.124   1.107   2.882
51175SOL    HW155422   0.081   1.125   2.966
51175SOL    HW255423   0.088   1.172   2.822
51176SOL     OW55424   4.939  11.374   8.150
51176SOL    HW155425   4.932  11.280   8.131
51176SOL    HW255426   4.852  11.398   8.182
51177SOL     OW55427  12.587   3.130   5.621
51177SOL    HW155428  12.537   3.048   5.623
51177SOL    HW255429  12.637   3.126   5.540
51178SOL     OW55430  14.634   0.815   2.147
51178SOL    HW155431  14.615   0.744   2.209
51178SOL    HW255432  14.727   0.804   2.126
51179SOL     OW55433  10.520  12.107  12.418
51179SOL    HW155434  10.435  12.103  12.373
51179SOL    HW255435  10.501  12.078  12.507
51180SOL     OW55436   6.754   1.035  13.389
51180SOL    HW155437   6.663   1.003  13.386
51180SOL    HW255438   6.750   1.111  13.448
51181SOL     OW55439   4.735   8.557  14.189
51181SOL    HW155440   4.752   8.497  14.116
51181SOL    HW255441   4.734   8.644  14.149
51182SOL     OW55442   6.191   9.413  13.788
51182SOL    HW155443   6.118   9.457  13.831
51182SOL    HW255444   6.164   9.404  13.697
51183SOL     OW55445   1.944   4.665  10.102
51183SOL    HW155446   1.997   4.744  10.090
51183SOL    HW255447   1.869   4.693  10.154
51184SOL     OW55448   5.098   2.090   5.392
51184SOL    HW155449   5.091   2.147   5.316
51184SOL    HW255450   5.192   2.085   5.410
51185SOL     OW55451  14.738   1.242  12.718
51185SOL    HW155452  14.773   1.194  12.643
51185SOL    HW255453  14.650   1.207  12.730
51186SOL     OW55454   2.658   5.949   7.370
51186SOL    HW155455   2.628   5.944   7.279
51186SOL    HW255456   2.582   5.923   7.421
51187SOL     OW55457   5.673   7.815   9.243
51187SOL    HW155458   5.694   7.732   9.286
51187SOL    HW255459   5.757   7.859   9.234
51188SOL     OW55460   2.182   0.903  13.762
51188SOL    HW155461   2.093   0.895  13.727
51188SOL    HW255462   2.178   0.976  13.823
51189SOL     OW55463   2.355   5.695   3.223
51189SOL    HW155464   2.307   5.641   3.160
51189SOL    HW255465   2.336   5.655   3.308
51190SOL     OW55466   8.829  13.163  14.622
51190SOL    HW155467   8.863  13.187  14.708
51190SOL    HW255468   8.904  13.123  14.577
51191SOL     OW55469   3.948  13.982   3.145
51191SOL    HW155470   3.983  14.061   3.184
51191SOL    HW255471   3.870  14.010   3.098
51192SOL     OW55472  14.358   6.011   7.235
51192SOL    HW155473  14.453   6.007   7.223
51192SOL    HW255474  14.347   6.037   7.327
51193SOL     OW55475   9.724  13.889  11.079
51193SOL    HW155476   9.771  13.946  11.018
51193SOL    HW255477   9.780  13.812  11.087
51194SOL     OW55478   0.516  13.543   5.137
51194SOL    HW155479   0.459  13.616   5.112
51194SOL    HW255480   0.576  13.532   5.063
51195SOL     OW55481  13.570   6.094   4.142
51195SOL    HW155482  13.580   6.141   4.059
51195SOL    HW255483  13.594   6.158   4.209
51196SOL     OW55484  12.744  13.141   5.200
51196SOL    HW155485  12.660  13.098   5.213
51196SOL    HW255486  12.739  13.175   5.110
51197SOL     OW55487   3.626  14.355   1.885
51197SOL    HW155488   3.565  14.325   1.818
51197SOL    HW255489   3.689  14.283   1.894
51198SOL     OW55490   6.309  13.201  12.811
51198SOL    HW155491   6.271  13.172  12.728
51198SOL    HW255492   6.394  13.238  12.786
51199SOL     OW55493   8.761   5.962  12.933
51199SOL    HW155494   8.719   5.944  13.018
51199SOL    HW255495   8.854   5.970  12.953
51200SOL     OW55496   1.259   8.473   0.433
51200SOL    HW155497   1.236   8.382   0.451
51200SOL    HW255498   1.347   8.469   0.395
51201SOL     OW55499   8.575   6.267  11.564
51201SOL    HW155500   8.566   6.285  11.657
51201SOL    HW255501   8.485   6.254  11.533
51202SOL     OW55502   3.081   2.013  12.522
51202SOL    HW155503   3.139   2.054  12.586
51202SOL    HW255504   3.108   1.921  12.522
51203SOL     OW55505   2.112   1.315   2.736
51203SOL    HW155506   2.097   1.404   2.767
51203SOL    HW255507   2.207   1.309   2.727
51204SOL     OW55508   6.597   2.300  12.215
51204SOL    HW155509   6.591   2.282  12.309
51204SOL    HW255510   6.524   2.360  12.197
51205SOL     OW55511   4.327   8.611   1.768
51205SOL    HW155512   4.391   8.589   1.836
51205SOL    HW255513   4.282   8.689   1.801
51206SOL     OW55514   0.582   9.415   9.089
51206SOL    HW155515   0.519   9.362   9.137
51206SOL    HW255516   0.612   9.358   9.018
51207SOL     OW55517   3.123   1.192   9.601
51207SOL    HW155518   3.130   1.113   9.655
51207SOL    HW255519   3.138   1.161   9.512
51208SOL     OW55520   8.397   7.343   8.969
51208SOL    HW155521   8.355   7.282   8.909
51208SOL    HW255522   8.484   7.358   8.933
51209SOL     OW55523  14.155   6.342   6.347
51209SOL    HW155524  14.069   6.334   6.388
51209SOL    HW255525  14.193   6.421   6.386
51210SOL     OW55526   2.592   0.464  12.950
51210SOL    HW155527   2.650   0.510  12.889
51210SOL    HW255528   2.551   0.533  13.002
51211SOL     OW55529   7.382   9.753   6.353
51211SOL    HW155530   7.463   9.801   6.367
51211SOL    HW255531   7.394   9.671   6.401
51212SOL     OW55532   8.215   6.117  12.732
51212SOL    HW155533   8.157   6.074  12.669
51212SOL    HW255534   8.179   6.095  12.818
51213SOL     OW55535  10.028   9.745   9.246
51213SOL    HW155536   9.991   9.808   9.184
51213SOL    HW255537  10.097   9.701   9.196
51214SOL     OW55538   0.798   7.028   2.410
51214SOL    HW155539   0.879   6.990   2.446
51214SOL    HW255540   0.767   6.964   2.347
51215SOL     OW55541   2.721   3.047  12.689
51215SOL    HW155542   2.655   3.090  12.636
51215SOL    HW255543   2.674   3.014  12.765
51216SOL     OW55544   5.407  11.661  11.660
51216SOL    HW155545   5.450  11.736  11.701
51216SOL    HW255546   5.455  11.585  11.693
51217SOL     OW55547  12.469   0.108   4.077
51217SOL    HW155548  12.526   0.041   4.115
51217SOL    HW255549  12.503   0.120   3.988
51218SOL     OW55550   1.024   1.157  10.271
51218SOL    HW155551   1.064   1.143  10.357
51218SOL    HW255552   1.042   1.249  10.251
51219SOL     OW55553   3.347   7.060   9.821
51219SOL    HW155554   3.357   6.995   9.891
51219SOL    HW255555   3.435   7.072   9.786
51220SOL     OW55556  11.637   1.408   2.455
51220SOL    HW155557  11.595   1.374   2.376
51220SOL    HW255558  11.727   1.428   2.427
51221SOL     OW55559  14.369   8.503   3.111
51221SOL    HW155560  14.300   8.482   3.173
51221SOL    HW255561  14.324   8.521   3.029
51222SOL     OW55562   9.819   4.044   1.066
51222SOL    HW155563   9.776   3.981   1.123
51222SOL    HW255564   9.889   4.082   1.120
51223SOL     OW55565   5.468   0.956   4.830
51223SOL    HW155566   5.427   1.036   4.797
51223SOL    HW255567   5.480   0.972   4.923
51224SOL     OW55568  10.540  10.301  11.139
51224SOL    HW155569  10.534  10.394  11.115
51224SOL    HW255570  10.477  10.292  11.211
51225SOL     OW55571   4.562   1.039   0.871
51225SOL    HW155572   4.493   1.091   0.830
51225SOL    HW255573   4.538   0.948   0.850
51226SOL     OW55574   4.077   6.763   9.348
51226SOL    HW155575   3.997   6.810   9.323
51226SOL    HW255576   4.140   6.832   9.368
51227SOL     OW55577   2.140   1.544   9.048
51227SOL    HW155578   2.047   1.562   9.041
51227SOL    HW255579   2.166   1.513   8.961
51228SOL     OW55580   2.970   5.524   4.130
51228SOL    HW155581   2.963   5.568   4.215
51228SOL    HW255582   2.899   5.561   4.078
51229SOL     OW55583   3.747   7.491   0.362
51229SOL    HW155584   3.758   7.511   0.269
51229SOL    HW255585   3.744   7.577   0.405
51230SOL     OW55586   0.182  12.689   5.713
51230SOL    HW155587   0.229  12.608   5.692
51230SOL    HW255588   0.251  12.752   5.731
51231SOL     OW55589   5.596   5.233   0.279
51231SOL    HW155590   5.586   5.325   0.306
51231SOL    HW255591   5.661   5.198   0.339
51232SOL     OW55592   4.311  10.025   2.920
51232SOL    HW155593   4.288   9.948   2.972
51232SOL    HW255594   4.325   9.990   2.832
51233SOL     OW55595   7.810   4.222  11.632
51233SOL    HW155596   7.904   4.210  11.647
51233SOL    HW255597   7.773   4.134  11.643
51234SOL     OW55598   2.813   4.080   1.842
51234SOL    HW155599   2.799   4.080   1.747
51234SOL    HW255600   2.734   4.041   1.878
51235SOL     OW55601   2.678  12.225   7.143
51235SOL    HW155602   2.679  12.319   7.165
51235SOL    HW255603   2.741  12.217   7.072
51236SOL     OW55604  14.098   3.784   5.013
51236SOL    HW155605  14.104   3.695   5.048
51236SOL    HW255606  14.035   3.777   4.942
51237SOL     OW55607   2.808   2.958   5.083
51237SOL    HW155608   2.739   2.963   5.018
51237SOL    HW255609   2.771   2.904   5.154
51238SOL     OW55610  14.161   2.073   9.201
51238SOL    HW155611  14.093   2.022   9.157
51238SOL    HW255612  14.134   2.074   9.293
51239SOL     OW55613   5.192   6.881   5.807
51239SOL    HW155614   5.176   6.974   5.823
51239SOL    HW255615   5.156   6.865   5.720
51240SOL     OW55616  13.679   4.956   7.705
51240SOL    HW155617  13.620   4.922   7.773
51240SOL    HW255618  13.708   4.878   7.657
51241SOL     OW55619   3.708   1.150  13.397
51241SOL    HW155620   3.642   1.179  13.335
51241SOL    HW255621   3.788   1.194  13.368
51242SOL     OW55622   5.413   9.077   5.028
51242SOL    HW155623   5.462   8.995   5.025
51242SOL    HW255624   5.455   9.128   5.098
51243SOL     OW55625   9.362  11.210   1.996
51243SOL    HW155626   9.294  11.188   1.932
51243SOL    HW255627   9.411  11.128   2.007
51244SOL     OW55628   4.078   1.863   9.446
51244SOL    HW155629   4.140   1.791   9.452
51244SOL    HW255630   4.003   1.826   9.399
51245SOL     OW55631   5.212   6.356  14.212
51245SOL    HW155632   5.117   6.345  14.216
51245SOL    HW255633   5.240   6.352  14.304
51246SOL     OW55634   0.199  13.425   5.125
51246SOL    HW155635   0.187  13.470   5.209
51246SOL    HW255636   0.248  13.346   5.147
51247SOL     OW55637   6.473  14.523   1.492
51247SOL    HW155638   6.409  14.465   1.533
51247SOL    HW255639   6.455  14.609   1.529
51248SOL     OW55640   0.504   0.127   3.699
51248SOL    HW155641   0.508   0.049   3.643
51248SOL    HW255642   0.410   0.142   3.711
51249SOL     OW55643   7.569   6.029   4.213
51249SOL    HW155644   7.557   6.108   4.160
51249SOL    HW255645   7.599   6.062   4.298
51250SOL     OW55646   2.540   4.683   0.997
51250SOL    HW155647   2.511   4.596   1.027
51250SOL    HW255648   2.497   4.694   0.912
51251SOL     OW55649   6.824  10.708  12.612
51251SOL    HW155650   6.829  10.619  12.648
51251SOL    HW255651   6.732  10.732  12.619
51252SOL     OW55652   9.090   6.009  14.037
51252SOL    HW155653   9.098   6.062  13.958
51252SOL    HW255654   9.111   5.920  14.010
51253SOL     OW55655   8.645  11.964  13.944
51253SOL    HW155656   8.590  11.887  13.926
51253SOL    HW255657   8.673  11.953  14.035
51254SOL     OW55658   2.823  13.219  11.359
51254SOL    HW155659   2.828  13.296  11.304
51254SOL    HW255660   2.790  13.150  11.301
51255SOL     OW55661   6.040  12.528   8.774
51255SOL    HW155662   6.096  12.587   8.723
51255SOL    HW255663   5.954  12.534   8.733
51256SOL     OW55664  14.053  12.072   2.074
51256SOL    HW155665  14.109  12.131   2.023
51256SOL    HW255666  14.102  12.059   2.156
51257SOL     OW55667   7.292   3.440   3.757
51257SOL    HW155668   7.227   3.502   3.791
51257SOL    HW255669   7.314   3.474   3.670
51258SOL     OW55670   1.669  14.328   7.729
51258SOL    HW155671   1.714  14.299   7.650
51258SOL    HW255672   1.682  14.257   7.792
51259SOL     OW55673  10.770  10.336   7.122
51259SOL    HW155674  10.686  10.374   7.098
51259SOL    HW255675  10.776  10.255   7.070
51260SOL     OW55676   0.270   6.817   8.792
51260SOL    HW155677   0.358   6.851   8.777
51260SOL    HW255678   0.259   6.819   8.887
51261SOL     OW55679   5.170   6.346   5.068
51261SOL    HW155680   5.186   6.281   4.999
51261SOL    HW255681   5.238   6.328   5.134
51262SOL     OW55682   8.120   4.568   0.190
51262SOL    HW155683   8.111   4.619   0.270
51262SOL    HW255684   8.188   4.504   0.209
51263SOL     OW55685   5.415  13.031   5.265
51263SOL    HW155686   5.471  12.956   5.283
51263SOL    HW255687   5.412  13.080   5.347
51264SOL     OW55688   5.240   0.283   9.060
51264SOL    HW155689   5.268   0.191   9.066
51264SOL    HW255690   5.255   0.307   8.969
51265SOL     OW55691   6.195  11.900  13.960
51265SOL    HW155692   6.196  11.807  13.939
51265SOL    HW255693   6.132  11.908  14.032
51266SOL     OW55694   9.322   3.357   3.538
51266SOL    HW155695   9.410   3.369   3.502
51266SOL    HW255696   9.310   3.262   3.542
51267SOL     OW55697   4.782   5.037  13.203
51267SOL    HW155698   4.847   5.107  13.193
51267SOL    HW255699   4.699   5.083  13.216
51268SOL     OW55700   0.899   0.321   9.610
51268SOL    HW155701   0.829   0.374   9.649
51268SOL    HW255702   0.941   0.379   9.547
51269SOL     OW55703   2.147  13.923   8.849
51269SOL    HW155704   2.138  13.849   8.789
51269SOL    HW255705   2.066  13.972   8.838
51270SOL     OW55706   8.537   9.980   9.337
51270SOL    HW155707   8.609  10.018   9.388
51270SOL    HW255708   8.581   9.928   9.269
51271SOL     OW55709  10.896   6.960   9.115
51271SOL    HW155710  10.866   7.040   9.072
51271SOL    HW255711  10.826   6.939   9.177
51272SOL     OW55712  12.139   6.680  10.488
51272SOL    HW155713  12.116   6.623  10.562
51272SOL    HW255714  12.062   6.735  10.474
51273SOL     OW55715   1.124  11.777  11.742
51273SOL    HW155716   1.034  11.808  11.753
51273SOL    HW255717   1.178  11.854  11.761
51274SOL     OW55718   6.776   2.261   7.348
51274SOL    HW155719   6.682   2.271   7.357
51274SOL    HW255720   6.788   2.169   7.324
51275SOL     OW55721   0.333  11.433   0.447
51275SOL    HW155722   0.416  11.471   0.418
51275SOL    HW255723   0.299  11.496   0.511
51276SOL     OW55724   5.506   1.017   5.115
51276SOL    HW155725   5.589   1.058   5.090
51276SOL    HW255726   5.525   0.972   5.198
51277SOL     OW55727   5.633  11.384   8.601
51277SOL    HW155728   5.633  11.467   8.649
51277SOL    HW255729   5.720  11.348   8.614
51278SOL     OW55730   7.889   4.198   0.671
51278SOL    HW155731   7.889   4.135   0.743
51278SOL    HW255732   7.980   4.223   0.661
51279SOL     OW55733  14.190   5.048  14.110
51279SOL    HW155734  14.221   5.036  14.200
51279SOL    HW255735  14.130   4.975  14.096
51280SOL     OW55736  13.162  12.414  11.499
51280SOL    HW155737  13.144  12.508  11.492
51280SOL    HW255738  13.251  12.409  11.536
51281SOL     OW55739  12.974   9.580   9.127
51281SOL    HW155740  12.941   9.522   9.195
51281SOL    HW255741  12.908   9.649   9.119
51282SOL     OW55742   5.253   0.381   8.073
51282SOL    HW155743   5.295   0.296   8.086
51282SOL    HW255744   5.315   0.444   8.110
51283SOL     OW55745   3.902   4.718  13.914
51283SOL    HW155746   3.920   4.681  14.001
51283SOL    HW255747   3.820   4.678  13.887
51284SOL     OW55748   0.047   6.520   8.981
51284SOL    HW155749   0.095   6.508   9.063
51284SOL    HW255750   0.033   6.615   8.976
51285SOL     OW55751   1.029  10.359  12.946
51285SOL    HW155752   0.957  10.388  12.890
51285SOL    HW255753   1.088  10.434  12.950
51286SOL     OW55754   6.922   7.194  11.435
51286SOL    HW155755   6.848   7.145  11.400
51286SOL    HW255756   6.900   7.286  11.419
51287SOL     OW55757   4.463   9.802   4.916
51287SOL    HW155758   4.427   9.733   4.971
51287SOL    HW255759   4.442   9.775   4.826
51288SOL     OW55760   4.266  11.524   3.656
51288SOL    HW155761   4.234  11.505   3.744
51288SOL    HW255762   4.349  11.569   3.670
51289SOL     OW55763  10.546   5.642   2.936
51289SOL    HW155764  10.522   5.642   2.843
51289SOL    HW255765  10.531   5.732   2.964
51290SOL     OW55766   6.109   0.320  12.649
51290SOL    HW155767   6.053   0.340  12.724
51290SOL    HW255768   6.067   0.244  12.608
51291SOL     OW55769  11.399   1.322   2.752
51291SOL    HW155770  11.377   1.364   2.834
51291SOL    HW255771  11.406   1.394   2.689
51292SOL     OW55772   6.642   4.496   7.490
51292SOL    HW155773   6.694   4.536   7.560
51292SOL    HW255774   6.558   4.541   7.493
51293SOL     OW55775   5.455   0.201   7.362
51293SOL    HW155776   5.391   0.172   7.428
51293SOL    HW255777   5.531   0.229   7.413
51294SOL     OW55778   2.784   9.175  11.335
51294SOL    HW155779   2.841   9.226  11.392
51294SOL    HW255780   2.830   9.171  11.251
51295SOL     OW55781   2.334   6.105   0.365
51295SOL    HW155782   2.252   6.073   0.403
51295SOL    HW255783   2.377   6.153   0.435
51296SOL     OW55784   0.326  10.038   7.802
51296SOL    HW155785   0.383  10.109   7.773
51296SOL    HW255786   0.366  10.007   7.883
51297SOL     OW55787   2.901  12.288  13.022
51297SOL    HW155788   2.891  12.362  12.962
51297SOL    HW255789   2.953  12.323  13.094
51298SOL     OW55790   9.001   5.839   1.695
51298SOL    HW155791   9.055   5.760   1.705
51298SOL    HW255792   8.932   5.813   1.635
51299SOL     OW55793   1.624   3.563   2.360
51299SOL    HW155794   1.629   3.471   2.385
51299SOL    HW255795   1.645   3.564   2.266
51300SOL     OW55796   0.798   7.785   2.825
51300SOL    HW155797   0.884   7.802   2.789
51300SOL    HW255798   0.738   7.831   2.767
51301SOL     OW55799   1.195  10.695   4.490
51301SOL    HW155800   1.133  10.760   4.524
51301SOL    HW255801   1.236  10.737   4.415
51302SOL     OW55802   3.175   5.479  12.769
51302SOL    HW155803   3.085   5.499  12.741
51302SOL    HW255804   3.186   5.526  12.851
51303SOL     OW55805   6.550  14.721   3.422
51303SOL    HW155806   6.487  14.764   3.364
51303SOL    HW255807   6.505  14.715   3.506
51304SOL     OW55808  13.319   0.999   2.330
51304SOL    HW155809  13.265   0.924   2.356
51304SOL    HW255810  13.408   0.974   2.353
51305SOL     OW55811   6.234   0.378   6.457
51305SOL    HW155812   6.160   0.438   6.443
51305SOL    HW255813   6.208   0.298   6.412
51306SOL     OW55814   5.882   4.904   5.811
51306SOL    HW155815   5.840   4.976   5.859
51306SOL    HW255816   5.967   4.940   5.785
51307SOL     OW55817   2.684   6.605   7.887
51307SOL    HW155818   2.619   6.595   7.817
51307SOL    HW255819   2.765   6.573   7.848
51308SOL     OW55820   4.254   7.890  14.580
51308SOL    HW155821   4.192   7.943  14.530
51308SOL    HW255822   4.340   7.916  14.546
51309SOL     OW55823  11.185   3.476   3.743
51309SOL    HW155824  11.177   3.461   3.837
51309SOL    HW255825  11.270   3.439   3.719
51310SOL     OW55826  10.868   1.044   2.848
51310SOL    HW155827  10.956   1.064   2.881
51310SOL    HW255828  10.816   1.120   2.873
51311SOL     OW55829  14.621   9.291   2.502
51311SOL    HW155830  14.561   9.225   2.536
51311SOL    HW255831  14.700   9.281   2.555
51312SOL     OW55832  14.697   8.709   9.624
51312SOL    HW155833  14.743   8.628   9.603
51312SOL    HW255834  14.661   8.740   9.541
51313SOL     OW55835  14.138  11.289   3.467
51313SOL    HW155836  14.154  11.202   3.504
51313SOL    HW255837  14.179  11.350   3.530
51314SOL     OW55838   2.772   0.882  11.649
51314SOL    HW155839   2.865   0.905  11.648
51314SOL    HW255840   2.734   0.938  11.716
51315SOL     OW55841   1.995  12.321  13.879
51315SOL    HW155842   2.064  12.368  13.926
51315SOL    HW255843   1.914  12.366  13.903
51316SOL     OW55844   5.789   1.368  14.626
51316SOL    HW155845   5.737   1.448  14.630
51316SOL    HW255846   5.799   1.349  14.533
51317SOL     OW55847  14.467   6.959   4.240
51317SOL    HW155848  14.468   6.970   4.145
51317SOL    HW255849  14.406   7.024   4.272
51318SOL     OW55850   8.451   0.424   4.735
51318SOL    HW155851   8.453   0.341   4.784
51318SOL    HW255852   8.398   0.483   4.790
51319SOL     OW55853   9.384  13.006   4.172
51319SOL    HW155854   9.434  13.049   4.242
51319SOL    HW255855   9.359  12.922   4.209
51320SOL     OW55856  14.660  14.647   7.013
51320SOL    HW155857  14.602  14.608   6.948
51320SOL    HW255858  14.717  14.575   7.040
51321SOL     OW55859  13.278  14.830  12.495
51321SOL    HW155860  13.255  14.817  12.587
51321SOL    HW255861  13.294   0.042  12.487
51322SOL     OW55862   6.111  10.343   6.676
51322SOL    HW155863   6.092  10.356   6.769
51322SOL    HW255864   6.203  10.367   6.668
51323SOL     OW55865  11.137  11.979   6.981
51323SOL    HW155866  11.093  11.898   7.009
51323SOL    HW255867  11.085  12.010   6.906
51324SOL     OW55868   6.556   0.936   4.942
51324SOL    HW155869   6.615   0.867   4.913
51324SOL    HW255870   6.612   0.999   4.987
51325SOL     OW55871   1.719  10.411   1.690
51325SOL    HW155872   1.736  10.453   1.775
51325SOL    HW255873   1.688  10.482   1.634
51326SOL     OW55874  13.377   9.195   2.681
51326SOL    HW155875  13.467   9.206   2.649
51326SOL    HW255876  13.366   9.100   2.690
51327SOL     OW55877   8.182   9.278   7.158
51327SOL    HW155878   8.238   9.299   7.233
51327SOL    HW255879   8.242   9.242   7.093
51328SOL     OW55880  13.626   5.558   5.183
51328SOL    HW155881  13.640   5.468   5.213
51328SOL    HW255882  13.551   5.552   5.125
51329SOL     OW55883   3.907   7.889   2.549
51329SOL    HW155884   3.968   7.929   2.487
51329SOL    HW255885   3.897   7.799   2.518
51330SOL     OW55886   6.416   9.896   8.501
51330SOL    HW155887   6.361   9.899   8.580
51330SOL    HW255888   6.478   9.968   8.513
51331SOL     OW55889   6.566   6.104   2.550
51331SOL    HW155890   6.553   6.161   2.626
51331SOL    HW255891   6.537   6.018   2.579
51332SOL     OW55892   9.563   9.825  14.119
51332SOL    HW155893   9.549   9.838  14.213
51332SOL    HW255894   9.616   9.900  14.092
51333SOL     OW55895   4.108   8.459   9.782
51333SOL    HW155896   4.120   8.543   9.737
51333SOL    HW255897   4.186   8.408   9.758
51334SOL     OW55898   4.260  14.796   3.448
51334SOL    HW155899   4.274  14.719   3.392
51334SOL    HW255900   4.242  14.867   3.386
51335SOL     OW55901   4.425  12.362  13.443
51335SOL    HW155902   4.410  12.295  13.510
51335SOL    HW255903   4.362  12.431  13.463
51336SOL     OW55904   8.678  10.619   8.222
51336SOL    HW155905   8.769  10.593   8.239
51336SOL    HW255906   8.658  10.683   8.291
51337SOL     OW55907  13.067   7.792  14.553
51337SOL    HW155908  12.993   7.844  14.522
51337SOL    HW255909  13.032   7.703  14.563
51338SOL     OW55910   7.610  13.355   8.827
51338SOL    HW155911   7.670  13.320   8.894
51338SOL    HW255912   7.543  13.287   8.818
51339SOL     OW55913  12.761   2.298  13.048
51339SOL    HW155914  12.668   2.278  13.037
51339SOL    HW255915  12.807   2.222  13.013
51340SOL     OW55916  13.621   9.417   9.959
51340SOL    HW155917  13.608   9.328   9.991
51340SOL    HW255918  13.690   9.408   9.892
51341SOL     OW55919   3.503  12.511  14.361
51341SOL    HW155920   3.407  12.516  14.363
51341SOL    HW255921   3.531  12.579  14.421
51342SOL     OW55922   2.645   8.953   5.370
51342SOL    HW155923   2.718   9.014   5.358
51342SOL    HW255924   2.567   9.006   5.355
51343SOL     OW55925   1.775   5.205  10.440
51343SOL    HW155926   1.770   5.249  10.355
51343SOL    HW255927   1.843   5.252  10.488
51344SOL     OW55928   6.990   3.051   9.684
51344SOL    HW155929   6.897   3.030   9.674
51344SOL    HW255930   7.026   2.978   9.734
51345SOL     OW55931  11.633   6.407   0.585
51345SOL    HW155932  11.715   6.455   0.591
51345SOL    HW255933  11.638   6.340   0.653
51346SOL     OW55934   9.449   5.738  10.104
51346SOL    HW155935   9.412   5.809  10.051
51346SOL    HW255936   9.520   5.703  10.050
51347SOL     OW55937   9.834  12.807  14.567
51347SOL    HW155938   9.811  12.870  14.636
51347SOL    HW255939   9.925  12.784  14.585
51348SOL     OW55940   8.984   5.510   7.585
51348SOL    HW155941   8.988   5.605   7.572
51348SOL    HW255942   8.906   5.482   7.537
51349SOL     OW55943   1.757   5.436   4.178
51349SOL    HW155944   1.716   5.456   4.094
51349SOL    HW255945   1.687   5.397   4.230
51350SOL     OW55946   3.297   5.629   2.169
51350SOL    HW155947   3.293   5.665   2.081
51350SOL    HW255948   3.387   5.597   2.178
51351SOL     OW55949   3.785   6.875   1.633
51351SOL    HW155950   3.728   6.894   1.558
51351SOL    HW255951   3.810   6.961   1.667
51352SOL     OW55952  10.069  10.835   4.621
51352SOL    HW155953   9.983  10.862   4.587
51352SOL    HW255954  10.072  10.741   4.605
51353SOL     OW55955  12.822  11.722  13.550
51353SOL    HW155956  12.767  11.710  13.473
51353SOL    HW255957  12.762  11.751  13.619
51354SOL     OW55958  10.086   2.098   2.884
51354SOL    HW155959  10.070   2.123   2.975
51354SOL    HW255960  10.030   2.022   2.870
51355SOL     OW55961  12.382   2.919  13.501
51355SOL    HW155962  12.465   2.892  13.539
51355SOL    HW255963  12.399   2.926  13.407
51356SOL     OW55964   0.644  13.695   9.310
51356SOL    HW155965   0.686  13.778   9.330
51356SOL    HW255966   0.648  13.687   9.215
51357SOL     OW55967   1.627  12.585   8.840
51357SOL    HW155968   1.686  12.545   8.905
51357SOL    HW255969   1.543  12.543   8.855
51358SOL     OW55970  12.758   0.521   7.538
51358SOL    HW155971  12.808   0.439   7.536
51358SOL    HW255972  12.772   0.555   7.627
51359SOL     OW55973   9.646  12.522  12.208
51359SOL    HW155974   9.668  12.611  12.235
51359SOL    HW255975   9.706  12.466  12.256
51360SOL     OW55976   6.357  13.214  14.801
51360SOL    HW155977   6.329  13.288  14.856
51360SOL    HW255978   6.315  13.138  14.840
51361SOL     OW55979   4.349   2.387   6.718
51361SOL    HW155980   4.340   2.478   6.690
51361SOL    HW255981   4.260   2.353   6.721
51362SOL     OW55982   9.638  10.573   3.660
51362SOL    HW155983   9.565  10.517   3.634
51362SOL    HW255984   9.615  10.659   3.626
51363SOL     OW55985   7.522   8.714   1.544
51363SOL    HW155986   7.552   8.801   1.519
51363SOL    HW255987   7.509   8.719   1.638
51364SOL     OW55988   8.557   0.989  14.016
51364SOL    HW155989   8.506   0.924  13.967
51364SOL    HW255990   8.586   0.943  14.095
51365SOL     OW55991   0.959   4.123   9.187
51365SOL    HW155992   0.971   4.068   9.109
51365SOL    HW255993   0.870   4.106   9.216
51366SOL     OW55994   4.491   2.071   4.809
51366SOL    HW155995   4.557   2.020   4.763
51366SOL    HW255996   4.422   2.087   4.743
51367SOL     OW55997   5.172  13.166  13.459
51367SOL    HW155998   5.143  13.250  13.496
51367SOL    HW255999   5.219  13.190  13.379
51368SOL     OW56000   7.826   5.784   8.805
51368SOL    HW156001   7.898   5.790   8.867
51368SOL    HW256002   7.785   5.871   8.807
51369SOL     OW56003  10.667  10.047  11.366
51369SOL    HW156004  10.645  10.053  11.273
51369SOL    HW256005  10.681   9.954  11.381
51370SOL     OW56006  14.068   5.532  13.771
51370SOL    HW156007  14.158   5.511  13.797
51370SOL    HW256008  14.015   5.465  13.815
51371SOL     OW56009  10.422   6.223   8.583
51371SOL    HW156010  10.451   6.276   8.509
51371SOL    HW256011  10.376   6.285   8.640
51372SOL     OW56012   0.068  10.814   1.614
51372SOL    HW156013   0.159  10.791   1.592
51372SOL    HW256014   0.024  10.730   1.623
51373SOL     OW56015   5.792   3.633   3.832
51373SOL    HW156016   5.706   3.674   3.837
51373SOL    HW256017   5.791   3.583   3.751
51374SOL     OW56018   0.363   7.889   9.430
51374SOL    HW156019   0.363   7.984   9.440
51374SOL    HW256020   0.447   7.861   9.466
51375SOL     OW56021   3.206   3.428   1.433
51375SOL    HW156022   3.179   3.519   1.433
51375SOL    HW256023   3.158   3.388   1.506
51376SOL     OW56024   5.007  10.074   3.102
51376SOL    HW156025   5.052  10.133   3.041
51376SOL    HW256026   5.044  10.096   3.188
51377SOL     OW56027  13.035  13.216  13.765
51377SOL    HW156028  13.121  13.253  13.787
51377SOL    HW256029  13.038  13.204  13.670
51378SOL     OW56030   5.242   9.135   7.673
51378SOL    HW156031   5.313   9.097   7.621
51378SOL    HW256032   5.277   9.140   7.762
51379SOL     OW56033   2.624   2.381   6.420
51379SOL    HW156034   2.716   2.402   6.432
51379SOL    HW256035   2.577   2.461   6.444
51380SOL     OW56036   3.040   8.109  11.637
51380SOL    HW156037   3.034   8.072  11.549
51380SOL    HW256038   2.949   8.119  11.664
51381SOL     OW56039   2.105  14.765   3.218
51381SOL    HW156040   2.187  14.717   3.221
51381SOL    HW256041   2.130  14.857   3.221
51382SOL     OW56042   4.203   3.437   7.335
51382SOL    HW156043   4.251   3.445   7.252
51382SOL    HW256044   4.167   3.524   7.351
51383SOL     OW56045  14.058  12.402  11.051
51383SOL    HW156046  14.058  12.458  11.128
51383SOL    HW256047  13.972  12.359  11.053
51384SOL     OW56048  12.184   0.204   1.577
51384SOL    HW156049  12.199   0.158   1.660
51384SOL    HW256050  12.202   0.296   1.597
51385SOL     OW56051  13.380   4.086   6.491
51385SOL    HW156052  13.439   4.032   6.438
51385SOL    HW256053  13.394   4.175   6.459
51386SOL     OW56054  10.912  10.401  11.734
51386SOL    HW156055  10.853  10.463  11.691
51386SOL    HW256056  10.962  10.455  11.796
51387SOL     OW56057  14.568  13.537  10.530
51387SOL    HW156058  14.491  13.506  10.578
51387SOL    HW256059  14.625  13.573  10.598
51388SOL     OW56060   8.283   4.994   2.434
51388SOL    HW156061   8.302   5.086   2.451
51388SOL    HW256062   8.319   4.977   2.347
51389SOL     OW56063   0.066   0.983   6.694
51389SOL    HW156064   0.061   0.947   6.783
51389SOL    HW256065  14.862   0.967   6.656
51390SOL     OW56066   7.321   0.967  12.753
51390SOL    HW156067   7.233   0.931  12.743
51390SOL    HW256068   7.355   0.972  12.664
51391SOL     OW56069   1.712   4.371   0.088
51391SOL    HW156070   1.774   4.322   0.034
51391SOL    HW256071   1.722   4.461   0.059
51392SOL     OW56072   8.832   6.633  10.681
51392SOL    HW156073   8.803   6.592  10.599
51392SOL    HW256074   8.814   6.568  10.748
51393SOL     OW56075   5.936   5.370   7.133
51393SOL    HW156076   5.970   5.281   7.142
51393SOL    HW256077   5.842   5.361   7.147
51394SOL     OW56078  10.394   2.443   5.203
51394SOL    HW156079  10.323   2.395   5.245
51394SOL    HW256080  10.359   2.530   5.187
51395SOL     OW56081   6.229   1.823  13.902
51395SOL    HW156082   6.279   1.899  13.932
51395SOL    HW256083   6.220   1.835  13.808
51396SOL     OW56084   8.524   3.231  11.576
51396SOL    HW156085   8.593   3.244  11.641
51396SOL    HW256086   8.568   3.241  11.492
51397SOL     OW56087   6.446   0.286  13.558
51397SOL    HW156088   6.492   0.216  13.604
51397SOL    HW256089   6.416   0.346  13.626
51398SOL     OW56090  11.329   6.221  11.142
51398SOL    HW156091  11.282   6.288  11.192
51398SOL    HW256092  11.272   6.204  11.067
51399SOL     OW56093   8.050   0.223   0.200
51399SOL    HW156094   8.135   0.192   0.167
51399SOL    HW256095   7.992   0.217   0.124
51400SOL     OW56096   9.283   2.673   8.624
51400SOL    HW156097   9.356   2.687   8.564
51400SOL    HW256098   9.306   2.725   8.701
51401SOL     OW56099   8.987   9.394   1.356
51401SOL    HW156100   8.893   9.374   1.359
51401SOL    HW256101   8.996   9.457   1.285
51402SOL     OW56102   8.612   0.997   4.270
51402SOL    HW156103   8.553   0.921   4.265
51402SOL    HW256104   8.676   0.973   4.337
51403SOL     OW56105   0.912   7.150   0.891
51403SOL    HW156106   0.830   7.102   0.901
51403SOL    HW256107   0.964   7.124   0.967
51404SOL     OW56108  14.008  14.739   0.870
51404SOL    HW156109  13.943  14.690   0.921
51404SOL    HW256110  14.030  14.680   0.797
51405SOL     OW56111  13.191   5.040   3.674
51405SOL    HW156112  13.105   5.036   3.633
51405SOL    HW256113  13.254   5.036   3.602
51406SOL     OW56114   5.409   0.505   9.605
51406SOL    HW156115   5.354   0.578   9.632
51406SOL    HW256116   5.480   0.503   9.669
51407SOL     OW56117  10.264   7.630   4.032
51407SOL    HW156118  10.346   7.679   4.032
51407SOL    HW256119  10.215   7.666   3.958
51408SOL     OW56120   1.194   1.763   2.552
51408SOL    HW156121   1.268   1.719   2.511
51408SOL    HW256122   1.230   1.803   2.631
51409SOL     OW56123   3.934   5.125   9.750
51409SOL    HW156124   3.842   5.151   9.738
51409SOL    HW256125   3.982   5.208   9.751
51410SOL     OW56126   1.278  11.296   9.957
51410SOL    HW156127   1.365  11.334   9.967
51410SOL    HW256128   1.227  11.330  10.030
51411SOL     OW56129  12.062   7.922   0.896
51411SOL    HW156130  12.070   7.847   0.836
51411SOL    HW256131  12.074   7.999   0.841
51412SOL     OW56132  10.662  12.278   5.109
51412SOL    HW156133  10.598  12.207   5.113
51412SOL    HW256134  10.705  12.278   5.194
51413SOL     OW56135  11.944  14.784  14.307
51413SOL    HW156136  11.962  14.877  14.316
51413SOL    HW256137  11.929  14.772  14.213
51414SOL     OW56138  11.770   8.875   0.917
51414SOL    HW156139  11.820   8.902   0.840
51414SOL    HW256140  11.683   8.855   0.883
51415SOL     OW56141  14.647   2.498   1.497
51415SOL    HW156142  14.672   2.455   1.578
51415SOL    HW256143  14.552   2.508   1.504
51416SOL     OW56144   6.314   0.588   2.355
51416SOL    HW156145   6.242   0.525   2.349
51416SOL    HW256146   6.298   0.635   2.437
51417SOL     OW56147   2.279   1.770   1.326
51417SOL    HW156148   2.202   1.731   1.367
51417SOL    HW256149   2.243   1.835   1.265
51418SOL     OW56150   8.332  11.762  11.858
51418SOL    HW156151   8.252  11.776  11.909
51418SOL    HW256152   8.385  11.840  11.875
51419SOL     OW56153  12.298   9.749  11.031
51419SOL    HW156154  12.377   9.724  10.983
51419SOL    HW256155  12.235   9.771  10.963
51420SOL     OW56156   9.466  13.612   8.490
51420SOL    HW156157   9.372  13.599   8.506
51420SOL    HW256158   9.498  13.653   8.570
51421SOL     OW56159   0.742   1.504  13.472
51421SOL    HW156160   0.763   1.482  13.382
51421SOL    HW256161   0.674   1.442  13.497
51422SOL     OW56162   4.435   3.634  12.289
51422SOL    HW156163   4.496   3.631  12.215
51422SOL    HW256164   4.416   3.727  12.301
51423SOL     OW56165  12.808   2.288  13.355
51423SOL    HW156166  12.845   2.374  13.340
51423SOL    HW256167  12.828   2.239  13.275
51424SOL     OW56168   8.488   7.341  14.865
51424SOL    HW156169   8.445   7.337  14.779
51424SOL    HW256170   8.526   7.429  14.869
51425SOL     OW56171  12.420   2.011   5.933
51425SOL    HW156172  12.369   2.028   6.012
51425SOL    HW256173  12.491   2.075   5.936
51426SOL     OW56174  13.574   7.035  12.467
51426SOL    HW156175  13.528   6.960  12.429
51426SOL    HW256176  13.584   7.097  12.395
51427SOL     OW56177  13.554   0.625   1.699
51427SOL    HW156178  13.539   0.701   1.755
51427SOL    HW256179  13.569   0.553   1.760
51428SOL     OW56180  11.949   0.632   7.901
51428SOL    HW156181  11.991   0.716   7.919
51428SOL    HW256182  12.001   0.595   7.830
51429SOL     OW56183   2.399  13.745   6.917
51429SOL    HW156184   2.428  13.685   6.985
51429SOL    HW256185   2.454  13.822   6.926
51430SOL     OW56186   0.503   7.788   1.420
51430SOL    HW156187   0.519   7.830   1.505
51430SOL    HW256188   0.435   7.722   1.438
51431SOL     OW56189   9.536  12.625   6.401
51431SOL    HW156190   9.483  12.546   6.398
51431SOL    HW256191   9.576  12.631   6.314
51432SOL     OW56192  10.377  11.659  11.130
51432SOL    HW156193  10.323  11.630  11.057
51432SOL    HW256194  10.412  11.744  11.101
51433SOL     OW56195   5.131   0.938   3.595
51433SOL    HW156196   5.226   0.948   3.590
51433SOL    HW256197   5.105   0.914   3.506
51434SOL     OW56198   9.460   4.887  11.491
51434SOL    HW156199   9.438   4.846  11.407
51434SOL    HW256200   9.556   4.884  11.495
51435SOL     OW56201   6.911   7.228   2.644
51435SOL    HW156202   6.869   7.201   2.563
51435SOL    HW256203   6.999   7.191   2.639
51436SOL     OW56204   5.932  14.443  12.135
51436SOL    HW156205   5.958  14.362  12.181
51436SOL    HW256206   5.987  14.511  12.175
51437SOL     OW56207   4.070   2.174  14.491
51437SOL    HW156208   4.061   2.149  14.399
51437SOL    HW256209   4.006   2.244  14.502
51438SOL     OW56210   7.233   3.234   6.941
51438SOL    HW156211   7.314   3.219   6.989
51438SOL    HW256212   7.200   3.146   6.920
51439SOL     OW56213   3.669   0.407   8.317
51439SOL    HW156214   3.601   0.350   8.351
51439SOL    HW256215   3.716   0.438   8.394
51440SOL     OW56216   5.428  12.779   0.312
51440SOL    HW156217   5.501  12.735   0.269
51440SOL    HW256218   5.454  12.871   0.314
51441SOL     OW56219   5.368   1.067   1.518
51441SOL    HW156220   5.287   1.097   1.477
51441SOL    HW256221   5.432   1.066   1.447
51442SOL     OW56222   2.958  14.684   6.145
51442SOL    HW156223   2.973  14.694   6.239
51442SOL    HW256224   2.984  14.594   6.125
51443SOL     OW56225   6.706   5.736   5.586
51443SOL    HW156226   6.741   5.668   5.528
51443SOL    HW256227   6.724   5.705   5.674
51444SOL     OW56228   6.071   5.841   9.364
51444SOL    HW156229   6.073   5.745   9.355
51444SOL    HW256230   6.060   5.873   9.275
51445SOL     OW56231   6.973   5.857   4.254
51445SOL    HW156232   6.905   5.817   4.307
51445SOL    HW256233   6.933   5.868   4.168
51446SOL     OW56234   1.015  12.269   5.354
51446SOL    HW156235   1.105  12.300   5.361
51446SOL    HW256236   1.020  12.175   5.369
51447SOL     OW56237   7.216   8.306   6.860
51447SOL    HW156238   7.189   8.384   6.908
51447SOL    HW256239   7.273   8.338   6.790
51448SOL     OW56240   1.098   8.951   0.871
51448SOL    HW156241   1.053   8.876   0.911
51448SOL    HW256242   1.042   9.026   0.893
51449SOL     OW56243   8.140   5.710   0.978
51449SOL    HW156244   8.141   5.714   0.882
51449SOL    HW256245   8.170   5.622   0.999
51450SOL     OW56246   4.388   8.949   2.643
51450SOL    HW156247   4.341   9.028   2.614
51450SOL    HW256248   4.422   8.973   2.729
51451SOL     OW56249   3.900   5.545   3.521
51451SOL    HW156250   3.974   5.488   3.503
51451SOL    HW256251   3.922   5.628   3.479
51452SOL     OW56252   7.765   7.267   1.179
51452SOL    HW156253   7.846   7.309   1.152
51452SOL    HW256254   7.791   7.209   1.251
51453SOL     OW56255   3.283   7.446   8.280
51453SOL    HW156256   3.211   7.486   8.329
51453SOL    HW256257   3.345   7.419   8.348
51454SOL     OW56258   8.192  14.564   4.419
51454SOL    HW156259   8.178  14.568   4.324
51454SOL    HW256260   8.285  14.583   4.430
51455SOL     OW56261  14.395   7.169   3.110
51455SOL    HW156262  14.326   7.209   3.057
51455SOL    HW256263  14.403   7.080   3.076
51456SOL     OW56264  13.258   4.659   8.277
51456SOL    HW156265  13.223   4.574   8.304
51456SOL    HW256266  13.191   4.722   8.304
51457SOL     OW56267  10.088   4.210   4.459
51457SOL    HW156268  10.033   4.175   4.389
51457SOL    HW256269  10.176   4.212   4.422
51458SOL     OW56270   3.152  11.295   3.638
51458SOL    HW156271   3.215  11.328   3.702
51458SOL    HW256272   3.192  11.214   3.606
51459SOL     OW56273  13.126   3.079   9.875
51459SOL    HW156274  13.088   3.165   9.857
51459SOL    HW256275  13.054   3.017   9.860
51460SOL     OW56276   2.190   3.958  10.162
51460SOL    HW156277   2.259   3.940  10.097
51460SOL    HW256278   2.238   3.969  10.244
51461SOL     OW56279   2.101   5.363   6.496
51461SOL    HW156280   2.061   5.319   6.421
51461SOL    HW256281   2.027   5.387   6.552
51462SOL     OW56282   9.904  11.110   8.978
51462SOL    HW156283   9.811  11.089   8.963
51462SOL    HW256284   9.940  11.121   8.890
51463SOL     OW56285  13.437  12.804  10.988
51463SOL    HW156286  13.380  12.738  11.027
51463SOL    HW256287  13.488  12.755  10.922
51464SOL     OW56288   6.619   7.630   4.226
51464SOL    HW156289   6.606   7.719   4.192
51464SOL    HW256290   6.655   7.582   4.152
51465SOL     OW56291   0.234   9.861   5.217
51465SOL    HW156292   0.167   9.825   5.275
51465SOL    HW256293   0.188   9.885   5.137
51466SOL     OW56294  11.702  10.885   6.969
51466SOL    HW156295  11.610  10.910   6.979
51466SOL    HW256296  11.716  10.818   7.036
51467SOL     OW56297   1.278   8.082  11.729
51467SOL    HW156298   1.304   8.101  11.639
51467SOL    HW256299   1.221   8.005  11.721
51468SOL     OW56300   0.337   7.092   7.579
51468SOL    HW156301   0.274   7.034   7.621
51468SOL    HW256302   0.384   7.035   7.517
51469SOL     OW56303   1.807   2.027  10.383
51469SOL    HW156304   1.740   1.965  10.355
51469SOL    HW256305   1.800   2.099  10.320
51470SOL     OW56306  12.232   9.523   9.282
51470SOL    HW156307  12.245   9.451   9.343
51470SOL    HW256308  12.160   9.493   9.226
51471SOL     OW56309   2.436   4.500   5.619
51471SOL    HW156310   2.411   4.520   5.528
51471SOL    HW256311   2.373   4.550   5.672
51472SOL     OW56312  13.386   6.956   4.067
51472SOL    HW156313  13.412   6.928   4.155
51472SOL    HW256314  13.381   6.875   4.017
51473SOL     OW56315  12.009  13.602   2.953
51473SOL    HW156316  12.056  13.653   3.019
51473SOL    HW256317  12.057  13.617   2.872
51474SOL     OW56318  12.672   7.694   9.626
51474SOL    HW156319  12.730   7.743   9.684
51474SOL    HW256320  12.697   7.723   9.538
51475SOL     OW56321   6.278   2.498   8.117
51475SOL    HW156322   6.216   2.425   8.114
51475SOL    HW256323   6.360   2.458   8.146
51476SOL     OW56324   0.007   1.576  14.535
51476SOL    HW156325   0.005   1.664  14.573
51476SOL    HW256326   0.014   1.590  14.441
51477SOL     OW56327  11.376   0.329  12.414
51477SOL    HW156328  11.450   0.295  12.464
51477SOL    HW256329  11.299   0.303  12.465
51478SOL     OW56330   3.948   9.884   2.433
51478SOL    HW156331   4.040   9.868   2.411
51478SOL    HW256332   3.938   9.979   2.429
51479SOL     OW56333   6.232  12.104   5.964
51479SOL    HW156334   6.258  12.067   6.048
51479SOL    HW256335   6.143  12.136   5.979
51480SOL     OW56336  12.838  14.368   8.192
51480SOL    HW156337  12.827  14.379   8.098
51480SOL    HW256338  12.851  14.274   8.204
51481SOL     OW56339   7.036   0.242  10.625
51481SOL    HW156340   7.095   0.220  10.553
51481SOL    HW256341   7.092   0.287  10.689
51482SOL     OW56342  11.058  11.878   0.763
51482SOL    HW156343  11.076  11.914   0.676
51482SOL    HW256344  11.067  11.783   0.752
51483SOL     OW56345   9.385   2.932   1.810
51483SOL    HW156346   9.358   2.867   1.745
51483SOL    HW256347   9.350   3.014   1.777
51484SOL     OW56348  11.741   4.265  11.818
51484SOL    HW156349  11.657   4.310  11.820
51484SOL    HW256350  11.742   4.220  11.733
51485SOL     OW56351   5.646   2.235   3.241
51485SOL    HW156352   5.654   2.209   3.150
51485SOL    HW256353   5.714   2.186   3.287
51486SOL     OW56354  11.355  13.177   3.426
51486SOL    HW156355  11.397  13.211   3.347
51486SOL    HW256356  11.427  13.151   3.483
51487SOL     OW56357  14.102   1.329  11.786
51487SOL    HW156358  14.190   1.329  11.748
51487SOL    HW256359  14.043   1.337  11.711
51488SOL     OW56360  10.535   7.666   7.202
51488SOL    HW156361  10.557   7.753   7.236
51488SOL    HW256362  10.447   7.675   7.167
51489SOL     OW56363  13.268  12.390   0.603
51489SOL    HW156364  13.242  12.480   0.626
51489SOL    HW256365  13.298  12.352   0.686
51490SOL     OW56366   1.703  12.088   9.129
51490SOL    HW156367   1.673  12.018   9.187
51490SOL    HW256368   1.798  12.078   9.127
51491SOL     OW56369  13.255   7.783   4.858
51491SOL    HW156370  13.325   7.837   4.895
51491SOL    HW256371  13.239   7.716   4.925
51492SOL     OW56372   3.120  11.061   9.917
51492SOL    HW156373   3.074  10.980   9.894
51492SOL    HW256374   3.078  11.127   9.861
51493SOL     OW56375   9.308   8.196   0.919
51493SOL    HW156376   9.213   8.182   0.915
51493SOL    HW256377   9.322   8.235   1.006
51494SOL     OW56378  12.098   1.889  11.755
51494SOL    HW156379  12.078   1.953  11.823
51494SOL    HW256380  12.184   1.855  11.778
51495SOL     OW56381  12.896   2.971   7.790
51495SOL    HW156382  12.854   2.998   7.872
51495SOL    HW256383  12.974   2.923   7.818
51496SOL     OW56384   7.912   7.970  10.904
51496SOL    HW156385   7.829   8.009  10.934
51496SOL    HW256386   7.979   8.032  10.932
51497SOL     OW56387   1.443  14.485   7.093
51497SOL    HW156388   1.432  14.416   7.159
51497SOL    HW256389   1.427  14.566   7.141
51498SOL     OW56390  14.454   8.804  14.594
51498SOL    HW156391  14.368   8.846  14.605
51498SOL    HW256392  14.438   8.711  14.609
51499SOL     OW56393  11.555   8.632   6.042
51499SOL    HW156394  11.506   8.555   6.071
51499SOL    HW256395  11.614   8.652   6.115
51500SOL     OW56396  14.543   9.669  11.383
51500SOL    HW156397  14.528   9.584  11.425
51500SOL    HW256398  14.456   9.703  11.364
51501SOL     OW56399  10.720   0.840   5.309
51501SOL    HW156400  10.772   0.772   5.265
51501SOL    HW256401  10.778   0.916   5.312
51502SOL     OW56402  14.111   5.985   7.150
51502SOL    HW156403  14.202   5.993   7.177
51502SOL    HW256404  14.071   6.067   7.179
51503SOL     OW56405   5.057  10.808   2.128
51503SOL    HW156406   4.977  10.832   2.082
51503SOL    HW256407   5.048  10.714   2.145
51504SOL     OW56408   1.453   1.293  14.565
51504SOL    HW156409   1.423   1.292  14.474
51504SOL    HW256410   1.419   1.211  14.601
51505SOL     OW56411  10.376   3.280   4.927
51505SOL    HW156412  10.347   3.362   4.887
51505SOL    HW256413  10.298   3.225   4.930
51506SOL     OW56414  13.503  10.900   4.199
51506SOL    HW156415  13.525  10.948   4.279
51506SOL    HW256416  13.411  10.878   4.208
51507SOL     OW56417  12.003   7.322  13.923
51507SOL    HW156418  11.959   7.389  13.870
51507SOL    HW256419  12.070   7.286  13.865
51508SOL     OW56420   2.573   2.413  13.641
51508SOL    HW156421   2.652   2.371  13.675
51508SOL    HW256422   2.501   2.363  13.678
51509SOL     OW56423   5.242  11.296  13.317
51509SOL    HW156424   5.147  11.298  13.303
51509SOL    HW256425   5.274  11.376  13.275
51510SOL     OW56426  11.845   8.932  12.587
51510SOL    HW156427  11.790   8.913  12.663
51510SOL    HW256428  11.885   9.017  12.607
51511SOL     OW56429   4.961   8.131  12.606
51511SOL    HW156430   4.961   8.088  12.692
51511SOL    HW256431   5.044   8.105  12.567
51512SOL     OW56432  12.294  10.643   5.849
51512SOL    HW156433  12.247  10.583   5.907
51512SOL    HW256434  12.225  10.690   5.803
51513SOL     OW56435   3.484  12.880  10.895
51513SOL    HW156436   3.571  12.874  10.855
51513SOL    HW256437   3.471  12.795  10.937
51514SOL     OW56438   0.502  13.076   3.021
51514SOL    HW156439   0.463  13.091   2.935
51514SOL    HW256440   0.533  13.163   3.049
51515SOL     OW56441   6.116   8.308   0.382
51515SOL    HW156442   6.024   8.334   0.375
51515SOL    HW256443   6.116   8.216   0.354
51516SOL     OW56444   5.631  11.335  13.954
51516SOL    HW156445   5.545  11.331  13.914
51516SOL    HW256446   5.618  11.387  14.034
51517SOL     OW56447  13.426   7.455  13.933
51517SOL    HW156448  13.425   7.506  13.851
51517SOL    HW256449  13.408   7.520  14.001
51518SOL     OW56450   6.322  11.808   5.423
51518SOL    HW156451   6.397  11.766   5.381
51518SOL    HW256452   6.320  11.897   5.387
51519SOL     OW56453  12.305   2.366   2.049
51519SOL    HW156454  12.389   2.409   2.033
51519SOL    HW256455  12.249   2.436   2.083
51520SOL     OW56456  12.221   1.152   2.992
51520SOL    HW156457  12.235   1.245   2.979
51520SOL    HW256458  12.304   1.119   3.027
51521SOL     OW56459   0.023  12.490   7.029
51521SOL    HW156460  14.858  12.573   7.027
51521SOL    HW256461   0.113  12.513   7.004
51522SOL     OW56462   9.088  11.268  14.388
51522SOL    HW156463   9.180  11.243  14.379
51522SOL    HW256464   9.057  11.222  14.466
51523SOL     OW56465   5.360   5.247  11.460
51523SOL    HW156466   5.441   5.218  11.502
51523SOL    HW256467   5.330   5.320  11.514
51524SOL     OW56468   9.869  10.857   1.164
51524SOL    HW156469   9.795  10.898   1.209
51524SOL    HW256470   9.928  10.829   1.234
51525SOL     OW56471  13.996   4.216   8.610
51525SOL    HW156472  13.965   4.245   8.696
51525SOL    HW256473  13.919   4.223   8.553
51526SOL     OW56474  12.620   1.536   7.813
51526SOL    HW156475  12.584   1.599   7.751
51526SOL    HW256476  12.660   1.590   7.881
51527SOL     OW56477  11.365  12.326   4.735
51527SOL    HW156478  11.338  12.357   4.822
51527SOL    HW256479  11.315  12.381   4.674
51528SOL     OW56480   5.487   2.303   7.876
51528SOL    HW156481   5.418   2.238   7.893
51528SOL    HW256482   5.568   2.260   7.906
51529SOL     OW56483   5.531  13.556   3.250
51529SOL    HW156484   5.473  13.537   3.176
51529SOL    HW256485   5.612  13.509   3.228
51530SOL     OW56486  13.375   9.455   0.832
51530SOL    HW156487  13.384   9.545   0.799
51530SOL    HW256488  13.450   9.443   0.890
51531SOL     OW56489  10.813   7.182  11.594
51531SOL    HW156490  10.738   7.127  11.569
51531SOL    HW256491  10.775   7.247  11.655
51532SOL     OW56492   7.384   0.548  12.977
51532SOL    HW156493   7.450   0.553  12.908
51532SOL    HW256494   7.434   0.544  13.058
51533SOL     OW56495  13.930   8.993   2.430
51533SOL    HW156496  13.882   9.039   2.361
51533SOL    HW256497  14.022   9.011   2.413
51534SOL     OW56498   8.180   9.261  14.710
51534SOL    HW156499   8.138   9.285  14.792
51534SOL    HW256500   8.133   9.184  14.680
51535SOL     OW56501   1.207   5.838   2.795
51535SOL    HW156502   1.206   5.769   2.729
51535SOL    HW256503   1.241   5.795   2.874
51536SOL     OW56504  11.121  10.092   4.446
51536SOL    HW156505  11.032  10.079   4.414
51536SOL    HW256506  11.141  10.012   4.495
51537SOL     OW56507   1.086   7.786   9.513
51537SOL    HW156508   1.090   7.807   9.606
51537SOL    HW256509   1.161   7.730   9.497
51538SOL     OW56510  12.459   0.418   4.914
51538SOL    HW156511  12.463   0.392   5.006
51538SOL    HW256512  12.453   0.335   4.866
51539SOL     OW56513  12.904   9.228  12.877
51539SOL    HW156514  13.000   9.224  12.883
51539SOL    HW256515  12.886   9.230  12.783
51540SOL     OW56516   0.849   3.235   4.554
51540SOL    HW156517   0.769   3.211   4.601
51540SOL    HW256518   0.835   3.325   4.526
51541SOL     OW56519   1.315   9.746   1.713
51541SOL    HW156520   1.328   9.833   1.675
51541SOL    HW256521   1.223   9.727   1.698
51542SOL     OW56522   7.488  12.512   2.070
51542SOL    HW156523   7.406  12.517   2.119
51542SOL    HW256524   7.464  12.537   1.981
51543SOL     OW56525  13.446  11.226   9.762
51543SOL    HW156526  13.414  11.266   9.843
51543SOL    HW256527  13.541  11.239   9.765
51544SOL     OW56528  13.919   4.724   5.084
51544SOL    HW156529  13.979   4.709   5.011
51544SOL    HW256530  13.866   4.799   5.057
51545SOL     OW56531   0.659   2.197   3.926
51545SOL    HW156532   0.665   2.286   3.890
51545SOL    HW256533   0.740   2.154   3.898
51546SOL     OW56534   9.966   0.761  10.086
51546SOL    HW156535   9.878   0.775  10.121
51546SOL    HW256536   9.975   0.825  10.016
51547SOL     OW56537   2.862   5.104   2.453
51547SOL    HW156538   2.856   5.168   2.523
51547SOL    HW256539   2.775   5.066   2.447
51548SOL     OW56540  11.678  11.901  13.531
51548SOL    HW156541  11.641  11.819  13.499
51548SOL    HW256542  11.730  11.876  13.607
51549SOL     OW56543   6.480   8.175   9.181
51549SOL    HW156544   6.493   8.250   9.123
51549SOL    HW256545   6.551   8.115   9.158
51550SOL     OW56546  14.119  11.596   3.975
51550SOL    HW156547  14.183  11.528   3.990
51550SOL    HW256548  14.036  11.558   4.002
51551SOL     OW56549   6.614  13.687   6.653
51551SOL    HW156550   6.552  13.630   6.608
51551SOL    HW256551   6.666  13.726   6.583
51552SOL     OW56552   4.961   4.510   1.446
51552SOL    HW156553   5.040   4.507   1.500
51552SOL    HW256554   4.895   4.551   1.502
51553SOL     OW56555  14.001  11.795   6.890
51553SOL    HW156556  13.960  11.830   6.812
51553SOL    HW256557  13.979  11.701   6.888
51554SOL     OW56558   7.464   0.631   3.763
51554SOL    HW156559   7.414   0.623   3.844
51554SOL    HW256560   7.484   0.724   3.757
51555SOL     OW56561   0.541   4.493   2.046
51555SOL    HW156562   0.592   4.414   2.030
51555SOL    HW256563   0.599   4.564   2.019
51556SOL     OW56564   3.093   9.472   0.004
51556SOL    HW156565   3.182   9.466  14.854
51556SOL    HW256566   3.082   9.395   0.060
51557SOL     OW56567   2.850   5.359   3.332
51557SOL    HW156568   2.920   5.418   3.359
51557SOL    HW256569   2.815   5.323   3.414
51558SOL     OW56570  11.985   2.246   1.780
51558SOL    HW156571  11.906   2.278   1.823
51558SOL    HW256572  12.043   2.222   1.852
51559SOL     OW56573   6.270   2.743  11.331
51559SOL    HW156574   6.195   2.788  11.293
51559SOL    HW256575   6.233   2.695  11.405
51560SOL     OW56576  14.574   6.598   8.190
51560SOL    HW156577  14.553   6.686   8.158
51560SOL    HW256578  14.625   6.559   8.119
51561SOL     OW56579   9.541  12.445   9.065
51561SOL    HW156580   9.574  12.379   9.125
51561SOL    HW256581   9.482  12.397   9.006
51562SOL     OW56582  11.615   5.263  14.772
51562SOL    HW156583  11.608   5.348  14.815
51562SOL    HW256584  11.525   5.230  14.769
51563SOL     OW56585   9.862   8.919   2.671
51563SOL    HW156586   9.809   8.988   2.709
51563SOL    HW256587   9.812   8.890   2.594
51564SOL     OW56588   4.847   6.448  13.540
51564SOL    HW156589   4.867   6.377  13.479
51564SOL    HW256590   4.924   6.453  13.597
51565SOL     OW56591  14.803  11.543   1.587
51565SOL    HW156592  14.858  11.472   1.621
51565SOL    HW256593  14.714  11.514   1.606
51566SOL     OW56594   2.321  11.809   9.688
51566SOL    HW156595   2.392  11.828   9.750
51566SOL    HW256596   2.365  11.800   9.604
51567SOL     OW56597  12.575  13.586   2.073
51567SOL    HW156598  12.551  13.632   1.993
51567SOL    HW256599  12.498  13.597   2.130
51568SOL     OW56600   1.734   8.464   7.679
51568SOL    HW156601   1.799   8.407   7.719
51568SOL    HW256602   1.782   8.543   7.656
51569SOL     OW56603   6.713   4.481  11.241
51569SOL    HW156604   6.705   4.476  11.336
51569SOL    HW256605   6.741   4.394  11.214
51570SOL     OW56606  10.540   3.897   3.100
51570SOL    HW156607  10.469   3.939   3.052
51570SOL    HW256608  10.620   3.932   3.061
51571SOL     OW56609   1.908   2.427   3.783
51571SOL    HW156610   1.998   2.431   3.751
51571SOL    HW256611   1.857   2.398   3.707
51572SOL     OW56612   0.583  13.848   0.580
51572SOL    HW156613   0.517  13.912   0.607
51572SOL    HW256614   0.625  13.887   0.504
51573SOL     OW56615   8.301   6.343  13.456
51573SOL    HW156616   8.279   6.262  13.411
51573SOL    HW256617   8.351   6.394  13.392
51574SOL     OW56618   2.165  12.234  12.680
51574SOL    HW156619   2.075  12.202  12.677
51574SOL    HW256620   2.213  12.166  12.729
51575SOL     OW56621   3.211  10.966  12.117
51575SOL    HW156622   3.133  10.930  12.159
51575SOL    HW256623   3.232  10.905  12.047
51576SOL     OW56624   4.361   7.079  12.011
51576SOL    HW156625   4.313   7.056  11.932
51576SOL    HW256626   4.365   7.175  12.010
51577SOL     OW56627   1.032  11.828   4.577
51577SOL    HW156628   0.950  11.834   4.527
51577SOL    HW256629   1.021  11.750   4.631
51578SOL     OW56630   1.757   6.714   0.158
51578SOL    HW156631   1.806   6.794   0.139
51578SOL    HW256632   1.824   6.647   0.167
51579SOL     OW56633  14.301   0.967  10.091
51579SOL    HW156634  14.350   1.049  10.081
51579SOL    HW256635  14.329   0.933  10.176
51580SOL     OW56636   4.049  12.379  11.684
51580SOL    HW156637   4.122  12.439  11.691
51580SOL    HW256638   4.000  12.391  11.766
51581SOL     OW56639   1.656   0.513   4.854
51581SOL    HW156640   1.635   0.478   4.941
51581SOL    HW256641   1.750   0.498   4.844
51582SOL     OW56642   8.054  11.529  10.333
51582SOL    HW156643   8.142  11.531  10.294
51582SOL    HW256644   8.003  11.588  10.279
51583SOL     OW56645   4.590   1.024  14.516
51583SOL    HW156646   4.629   0.979  14.441
51583SOL    HW256647   4.608   0.966  14.591
51584SOL     OW56648   7.510  11.990   5.580
51584SOL    HW156649   7.561  12.028   5.652
51584SOL    HW256650   7.445  11.934   5.623
51585SOL     OW56651   3.410   2.729  10.446
51585SOL    HW156652   3.479   2.701  10.386
51585SOL    HW256653   3.370   2.804  10.402
51586SOL     OW56654   1.467   0.294   7.817
51586SOL    HW156655   1.450   0.203   7.791
51586SOL    HW256656   1.551   0.315   7.777
51587SOL     OW56657  14.243   6.389   8.671
51587SOL    HW156658  14.227   6.427   8.757
51587SOL    HW256659  14.248   6.465   8.612
51588SOL     OW56660   9.816  14.088   5.884
51588SOL    HW156661   9.853  14.172   5.911
51588SOL    HW256662   9.853  14.072   5.797
51589SOL     OW56663   7.536  12.859   9.504
51589SOL    HW156664   7.589  12.800   9.450
51589SOL    HW256665   7.508  12.927   9.443
51590SOL     OW56666   1.723   8.755   9.229
51590SOL    HW156667   1.735   8.836   9.278
51590SOL    HW256668   1.737   8.685   9.293
51591SOL     OW56669  11.024   8.429  14.208
51591SOL    HW156670  11.008   8.372  14.283
51591SOL    HW256671  10.966   8.504  14.222
51592SOL     OW56672   4.189   8.592  11.114
51592SOL    HW156673   4.106   8.550  11.089
51592SOL    HW256674   4.235   8.526  11.165
51593SOL     OW56675   4.725   0.906   9.808
51593SOL    HW156676   4.738   0.995   9.842
51593SOL    HW256677   4.784   0.851   9.861
51594SOL     OW56678   1.565  11.178  14.465
51594SOL    HW156679   1.528  11.089  14.465
51594SOL    HW256680   1.627  11.178  14.392
51595SOL     OW56681  13.512   3.607   7.250
51595SOL    HW156682  13.420   3.599   7.276
51595SOL    HW256683  13.511   3.668   7.177
51596SOL     OW56684   3.888   2.007   0.784
51596SOL    HW156685   3.947   2.008   0.708
51596SOL    HW256686   3.803   1.981   0.748
51597SOL     OW56687  14.006   1.330   8.513
51597SOL    HW156688  14.012   1.360   8.422
51597SOL    HW256689  14.087   1.283   8.528
51598SOL     OW56690   7.347  11.984   6.822
51598SOL    HW156691   7.343  12.057   6.884
51598SOL    HW256692   7.382  12.023   6.741
51599SOL     OW56693   5.534   9.677  12.014
51599SOL    HW156694   5.548   9.635  12.099
51599SOL    HW256695   5.457   9.634  11.978
51600SOL     OW56696  11.961   4.050  11.710
51600SOL    HW156697  12.043   4.097  11.728
51600SOL    HW256698  11.909   4.112  11.659
51601SOL     OW56699   7.111   1.599   5.738
51601SOL    HW156700   7.154   1.531   5.791
51601SOL    HW256701   7.028   1.616   5.783
51602SOL     OW56702  12.213   1.011   6.819
51602SOL    HW156703  12.152   0.963   6.762
51602SOL    HW256704  12.206   0.967   6.904
51603SOL     OW56705   5.637   6.763   8.013
51603SOL    HW156706   5.657   6.685   7.961
51603SOL    HW256707   5.551   6.745   8.051
51604SOL     OW56708   9.714   6.763  11.753
51604SOL    HW156709   9.626   6.792  11.728
51604SOL    HW256710   9.699   6.697  11.821
51605SOL     OW56711  10.203   0.509   9.521
51605SOL    HW156712  10.155   0.426   9.517
51605SOL    HW256713  10.156   0.561   9.586
51606SOL     OW56714   1.539   2.906   0.210
51606SOL    HW156715   1.565   2.953   0.131
51606SOL    HW256716   1.449   2.878   0.193
51607SOL     OW56717   6.275   1.269  12.311
51607SOL    HW156718   6.257   1.207  12.240
51607SOL    HW256719   6.206   1.334  12.305
51608SOL     OW56720  14.813   4.500   3.747
51608SOL    HW156721  14.880   4.450   3.699
51608SOL    HW256722  14.817   4.466   3.836
51609SOL     OW56723  12.197  12.879   3.896
51609SOL    HW156724  12.194  12.783   3.896
51609SOL    HW256725  12.278  12.900   3.942
51610SOL     OW56726   8.056   3.854  13.894
51610SOL    HW156727   8.061   3.949  13.902
51610SOL    HW256728   7.963   3.834  13.899
51611SOL     OW56729   3.543   4.865  10.929
51611SOL    HW156730   3.461   4.910  10.950
51611SOL    HW256731   3.593   4.929  10.879
51612SOL     OW56732  10.616   5.612   1.559
51612SOL    HW156733  10.710   5.592   1.561
51612SOL    HW256734  10.610   5.694   1.510
51613SOL     OW56735   9.723  12.913   1.433
51613SOL    HW156736   9.647  12.854   1.435
51613SOL    HW256737   9.795  12.859   1.465
51614SOL     OW56738   5.676   0.982  10.492
51614SOL    HW156739   5.630   0.987  10.575
51614SOL    HW256740   5.673   1.072  10.458
51615SOL     OW56741  12.020   2.004  13.680
51615SOL    HW156742  12.096   1.989  13.624
51615SOL    HW256743  11.980   1.917  13.689
51616SOL     OW56744   7.761   4.910   9.272
51616SOL    HW156745   7.842   4.959   9.285
51616SOL    HW256746   7.693   4.978   9.262
51617SOL     OW56747  14.566   0.091  14.611
51617SOL    HW156748  14.529   0.163  14.560
51617SOL    HW256749  14.558   0.015  14.553
51618SOL     OW56750   5.136   8.949   2.360
51618SOL    HW156751   5.200   8.972   2.427
51618SOL    HW256752   5.149   8.854   2.347
51619SOL     OW56753   5.466   4.034   2.060
51619SOL    HW156754   5.561   4.026   2.069
51619SOL    HW256755   5.435   4.058   2.148
51620SOL     OW56756   5.982   2.454  12.099
51620SOL    HW156757   6.069   2.465  12.136
51620SOL    HW256758   5.958   2.541  12.067
51621SOL     OW56759   8.467  14.068   8.682
51621SOL    HW156760   8.445  14.061   8.775
51621SOL    HW256761   8.530  13.996   8.667
51622SOL     OW56762  11.022   8.600  13.158
51622SOL    HW156763  10.958   8.654  13.204
51622SOL    HW256764  11.084   8.663  13.121
51623SOL     OW56765  13.091   2.400   0.444
51623SOL    HW156766  13.129   2.338   0.507
51623SOL    HW256767  13.079   2.348   0.364
51624SOL     OW56768   2.599   4.249  11.065
51624SOL    HW156769   2.525   4.199  11.100
51624SOL    HW256770   2.647   4.277  11.143
51625SOL     OW56771  12.496   5.521   4.329
51625SOL    HW156772  12.511   5.543   4.420
51625SOL    HW256773  12.493   5.605   4.284
51626SOL     OW56774  14.064   2.944  12.610
51626SOL    HW156775  14.138   2.883  12.620
51626SOL    HW256776  13.988   2.887  12.599
51627SOL     OW56777   6.775   8.707   8.054
51627SOL    HW156778   6.850   8.666   8.096
51627SOL    HW256779   6.714   8.725   8.125
51628SOL     OW56780  10.113   5.764   9.550
51628SOL    HW156781  10.172   5.741   9.478
51628SOL    HW256782  10.165   5.748   9.629
51629SOL     OW56783  14.713  11.295   2.338
51629SOL    HW156784  14.722  11.373   2.393
51629SOL    HW256785  14.619  11.289   2.321
51630SOL     OW56786  11.494  14.328   4.396
51630SOL    HW156787  11.408  14.369   4.406
51630SOL    HW256788  11.498  14.263   4.467
51631SOL     OW56789   8.009   5.206   4.188
51631SOL    HW156790   7.967   5.122   4.202
51631SOL    HW256791   8.081   5.209   4.250
51632SOL     OW56792   8.725   3.344   3.307
51632SOL    HW156793   8.693   3.429   3.275
51632SOL    HW256794   8.699   3.282   3.238
51633SOL     OW56795  12.430   3.236   6.610
51633SOL    HW156796  12.471   3.307   6.660
51633SOL    HW256797  12.370   3.195   6.673
51634SOL     OW56798   9.875   0.606  14.075
51634SOL    HW156799   9.889   0.520  14.116
51634SOL    HW256800   9.945   0.614  14.010
51635SOL     OW56801   1.082  10.922   7.013
51635SOL    HW156802   1.055  11.013   7.011
51635SOL    HW256803   1.045  10.884   6.933
51636SOL     OW56804   6.487   6.036  10.426
51636SOL    HW156805   6.506   5.997  10.512
51636SOL    HW256806   6.410   5.989  10.395
51637SOL     OW56807   4.066   8.633   5.389
51637SOL    HW156808   4.003   8.703   5.407
51637SOL    HW256809   4.058   8.573   5.463
51638SOL     OW56810  12.690  11.465   7.174
51638SOL    HW156811  12.710  11.461   7.081
51638SOL    HW256812  12.601  11.500   7.178
51639SOL     OW56813   4.754   2.416   4.425
51639SOL    HW156814   4.671   2.375   4.399
51639SOL    HW256815   4.812   2.401   4.350
51640SOL     OW56816  14.036   3.647   0.714
51640SOL    HW156817  14.073   3.734   0.697
51640SOL    HW256818  13.943   3.664   0.730
51641SOL     OW56819   4.501  10.903  12.118
51641SOL    HW156820   4.458  10.982  12.084
51641SOL    HW256821   4.446  10.876  12.192
51642SOL     OW56822   7.454  12.803   2.099
51642SOL    HW156823   7.491  12.886   2.071
51642SOL    HW256824   7.529  12.746   2.112
51643SOL     OW56825   3.096   7.917   5.557
51643SOL    HW156826   3.100   7.954   5.468
51643SOL    HW256827   3.002   7.911   5.575
51644SOL     OW56828  12.997   5.526   1.962
51644SOL    HW156829  13.007   5.494   1.872
51644SOL    HW256830  12.963   5.451   2.010
51645SOL     OW56831   5.201  12.645   8.438
51645SOL    HW156832   5.239  12.664   8.524
51645SOL    HW256833   5.216  12.552   8.424
51646SOL     OW56834   3.286  10.382   9.592
51646SOL    HW156835   3.366  10.424   9.561
51646SOL    HW256836   3.217  10.418   9.536
51647SOL     OW56837  11.066   4.904  12.196
51647SOL    HW156838  11.092   4.982  12.146
51647SOL    HW256839  10.987   4.872  12.152
51648SOL     OW56840   3.146   7.725  11.655
51648SOL    HW156841   3.227   7.774  11.644
51648SOL    HW256842   3.168   7.656  11.718
51649SOL     OW56843   8.612  12.380   4.238
51649SOL    HW156844   8.652  12.438   4.302
51649SOL    HW256845   8.541  12.431   4.200
51650SOL     OW56846   6.864   8.278   2.970
51650SOL    HW156847   6.852   8.325   3.053
51650SOL    HW256848   6.943   8.317   2.932
51651SOL     OW56849   5.840   3.203  10.882
51651SOL    HW156850   5.852   3.280  10.827
51651SOL    HW256851   5.918   3.150  10.868
51652SOL     OW56852  13.639   1.639   6.682
51652SOL    HW156853  13.640   1.621   6.588
51652SOL    HW256854  13.650   1.734   6.688
51653SOL     OW56855  12.807   7.649   5.246
51653SOL    HW156856  12.777   7.583   5.183
51653SOL    HW256857  12.878   7.695   5.200
51654SOL     OW56858   2.937   0.330   1.423
51654SOL    HW156859   2.852   0.368   1.444
51654SOL    HW256860   2.950   0.351   1.330
51655SOL     OW56861   2.069   6.989   7.108
51655SOL    HW156862   2.160   7.010   7.128
51655SOL    HW256863   2.049   7.040   7.030
51656SOL     OW56864   8.303   8.697  12.563
51656SOL    HW156865   8.392   8.709  12.597
51656SOL    HW256866   8.316   8.670  12.472
51657SOL     OW56867   5.151   0.574  13.222
51657SOL    HW156868   5.225   0.628  13.250
51657SOL    HW256869   5.090   0.577  13.296
51658SOL     OW56870   2.330   6.122   9.295
51658SOL    HW156871   2.414   6.096   9.332
51658SOL    HW256872   2.267   6.061   9.334
51659SOL     OW56873   2.266  12.758   5.209
51659SOL    HW156874   2.310  12.843   5.207
51659SOL    HW256875   2.230  12.747   5.122
51660SOL     OW56876   9.176   6.802  12.730
51660SOL    HW156877   9.130   6.871  12.682
51660SOL    HW256878   9.136   6.721  12.699
51661SOL     OW56879  11.447   7.094   0.173
51661SOL    HW156880  11.461   7.077   0.266
51661SOL    HW256881  11.381   7.030   0.146
51662SOL     OW56882  12.568   7.931  11.029
51662SOL    HW156883  12.597   7.988  11.101
51662SOL    HW256884  12.614   7.848  11.044
51663SOL     OW56885   1.073  12.177   2.512
51663SOL    HW156886   1.048  12.097   2.466
51663SOL    HW256887   1.095  12.148   2.600
51664SOL     OW56888   0.026   7.063   5.469
51664SOL    HW156889   0.066   7.024   5.391
51664SOL    HW256890   0.101   7.095   5.520
51665SOL     OW56891   4.674   1.276   5.943
51665SOL    HW156892   4.711   1.190   5.963
51665SOL    HW256893   4.748   1.336   5.950
51666SOL     OW56894   0.244   8.031   6.447
51666SOL    HW156895   0.197   8.020   6.364
51666SOL    HW256896   0.293   7.949   6.458
51667SOL     OW56897  13.429   0.402   4.643
51667SOL    HW156898  13.476   0.464   4.699
51667SOL    HW256899  13.387   0.342   4.704
51668SOL     OW56900  10.808  14.239   6.593
51668SOL    HW156901  10.825  14.146   6.610
51668SOL    HW256902  10.734  14.239   6.532
51669SOL     OW56903  10.363   2.245   3.580
51669SOL    HW156904  10.327   2.324   3.619
51669SOL    HW256905  10.409   2.276   3.502
51670SOL     OW56906   9.948   7.812  14.870
51670SOL    HW156907   9.892   7.748  14.826
51670SOL    HW256908  10.034   7.801  14.830
51671SOL     OW56909  14.464   0.554  14.162
51671SOL    HW156910  14.511   0.594  14.088
51671SOL    HW256911  14.533   0.531  14.224
51672SOL     OW56912   7.144  11.247   9.069
51672SOL    HW156913   7.056  11.248   9.031
51672SOL    HW256914   7.202  11.275   8.997
51673SOL     OW56915  11.034   3.363   4.270
51673SOL    HW156916  11.102   3.365   4.337
51673SOL    HW256917  10.971   3.429   4.298
51674SOL     OW56918   1.843  13.536   8.831
51674SOL    HW156919   1.835  13.585   8.749
51674SOL    HW256920   1.929  13.495   8.826
51675SOL     OW56921   6.817  11.475   3.440
51675SOL    HW156922   6.828  11.551   3.497
51675SOL    HW256923   6.892  11.419   3.460
51676SOL     OW56924   4.011   2.956   4.608
51676SOL    HW156925   4.075   2.978   4.540
51676SOL    HW256926   4.023   3.023   4.675
51677SOL     OW56927  14.299   9.917   7.834
51677SOL    HW156928  14.260   9.880   7.913
51677SOL    HW256929  14.254  10.000   7.822
51678SOL     OW56930   9.143   9.677  13.617
51678SOL    HW156931   9.125   9.674  13.523
51678SOL    HW256932   9.145   9.771  13.638
51679SOL     OW56933  13.211   6.686   7.612
51679SOL    HW156934  13.154   6.750   7.655
51679SOL    HW256935  13.178   6.682   7.522
51680SOL     OW56936   1.969   4.107   3.795
51680SOL    HW156937   1.970   4.021   3.754
51680SOL    HW256938   1.922   4.163   3.733
51681SOL     OW56939  13.974  14.142  12.044
51681SOL    HW156940  13.999  14.060  12.002
51681SOL    HW256941  14.024  14.209  11.998
51682SOL     OW56942  11.607  14.243  14.336
51682SOL    HW156943  11.577  14.333  14.325
51682SOL    HW256944  11.701  14.250  14.349
51683SOL     OW56945   3.456   8.747   4.846
51683SOL    HW156946   3.482   8.835   4.874
51683SOL    HW256947   3.371   8.759   4.803
51684SOL     OW56948   8.502   7.225   1.823
51684SOL    HW156949   8.430   7.194   1.768
51684SOL    HW256950   8.465   7.229   1.911
51685SOL     OW56951   0.245  12.102  10.809
51685SOL    HW156952   0.322  12.111  10.865
51685SOL    HW256953   0.214  12.192  10.797
51686SOL     OW56954   0.586  10.918   3.251
51686SOL    HW156955   0.658  10.981   3.249
51686SOL    HW256956   0.518  10.957   3.196
51687SOL     OW56957   1.722  14.288  11.618
51687SOL    HW156958   1.668  14.366  11.604
51687SOL    HW256959   1.778  14.310  11.691
51688SOL     OW56960   6.391   2.971   3.088
51688SOL    HW156961   6.428   3.039   3.145
51688SOL    HW256962   6.396   3.008   3.000
51689SOL     OW56963   7.266   2.862   4.550
51689SOL    HW156964   7.283   2.956   4.549
51689SOL    HW256965   7.171   2.855   4.540
51690SOL     OW56966   0.526  14.435   5.565
51690SOL    HW156967   0.580  14.494   5.511
51690SOL    HW256968   0.447  14.422   5.513
51691SOL     OW56969   4.027   4.462   8.564
51691SOL    HW156970   4.008   4.413   8.484
51691SOL    HW256971   4.081   4.403   8.616
51692SOL     OW56972   1.780  11.796   0.234
51692SOL    HW156973   1.769  11.858   0.162
51692SOL    HW256974   1.839  11.841   0.295
51693SOL     OW56975   0.148   7.308   9.718
51693SOL    HW156976   0.111   7.354   9.643
51693SOL    HW256977   0.076   7.253   9.750
51694SOL     OW56978   9.755   2.178  11.348
51694SOL    HW156979   9.798   2.095  11.328
51694SOL    HW256980   9.781   2.197  11.438
51695SOL     OW56981   7.131   6.279   1.437
51695SOL    HW156982   7.136   6.283   1.342
51695SOL    HW256983   7.202   6.220   1.462
51696SOL     OW56984  10.739  12.737   2.331
51696SOL    HW156985  10.808  12.709   2.271
51696SOL    HW256986  10.671  12.671   2.322
51697SOL     OW56987   7.012   6.391   7.508
51697SOL    HW156988   7.071   6.373   7.581
51697SOL    HW256989   7.062   6.368   7.430
51698SOL     OW56990   9.470   3.065   0.459
51698SOL    HW156991   9.562   3.077   0.434
51698SOL    HW256992   9.444   3.150   0.494
51699SOL     OW56993   1.822   3.957   2.371
51699SOL    HW156994   1.776   4.041   2.375
51699SOL    HW256995   1.819   3.932   2.278
51700SOL     OW56996  12.603   0.988   3.814
51700SOL    HW156997  12.565   1.075   3.830
51700SOL    HW256998  12.661   0.974   3.889
51701SOL     OW56999  13.526   2.813  11.740
51701SOL    HW157000  13.537   2.851  11.653
51701SOL    HW257001  13.478   2.732  11.725
51702SOL     OW57002  11.513  13.472   0.712
51702SOL    HW157003  11.576  13.401   0.698
51702SOL    HW257004  11.482  13.459   0.802
51703SOL     OW57005   3.867   6.677   0.291
51703SOL    HW157006   3.943   6.636   0.331
51703SOL    HW257007   3.819   6.604   0.250
51704SOL     OW57008   2.090   6.607   1.778
51704SOL    HW157009   2.065   6.564   1.860
51704SOL    HW257010   2.008   6.615   1.729
51705SOL     OW57011   0.860  14.263  11.066
51705SOL    HW157012   0.877  14.254  10.972
51705SOL    HW257013   0.947  14.265  11.106
51706SOL     OW57014   1.194   7.924  12.558
51706SOL    HW157015   1.206   7.928  12.463
51706SOL    HW257016   1.197   8.015  12.586
51707SOL     OW57017  11.265  11.977  11.679
51707SOL    HW157018  11.286  11.898  11.730
51707SOL    HW257019  11.346  11.998  11.633
51708SOL     OW57020  13.585   2.905   5.901
51708SOL    HW157021  13.621   2.846   5.834
51708SOL    HW257022  13.493   2.915   5.876
51709SOL     OW57023  11.370  14.443  14.000
51709SOL    HW157024  11.462  14.420  13.985
51709SOL    HW257025  11.324  14.359  14.003
51710SOL     OW57026  12.400  14.269   9.309
51710SOL    HW157027  12.307  14.287   9.325
51710SOL    HW257028  12.408  14.268   9.213
51711SOL     OW57029  14.858   1.392   9.317
51711SOL    HW157030   0.031   1.320   9.287
51711SOL    HW257031   0.038   1.461   9.341
51712SOL     OW57032   1.331   5.156   0.016
51712SOL    HW157033   1.273   5.232   0.029
51712SOL    HW257034   1.397   5.187  14.836
51713SOL     OW57035  14.254   5.485   9.376
51713SOL    HW157036  14.219   5.473   9.288
51713SOL    HW257037  14.180   5.466   9.434
51714SOL     OW57038   3.456   6.324   9.075
51714SOL    HW157039   3.424   6.263   9.142
51714SOL    HW257040   3.549   6.302   9.066
51715SOL     OW57041   2.045   3.884   7.748
51715SOL    HW157042   2.112   3.817   7.759
51715SOL    HW257043   2.038   3.925   7.835
51716SOL     OW57044  11.886   4.577  11.541
51716SOL    HW157045  11.973   4.567  11.581
51716SOL    HW257046  11.829   4.598  11.615
51717SOL     OW57047   3.046   2.764   5.932
51717SOL    HW157048   3.100   2.725   6.001
51717SOL    HW257049   3.082   2.730   5.850
51718SOL     OW57050  12.620   5.762   0.175
51718SOL    HW157051  12.604   5.749   0.082
51718SOL    HW257052  12.588   5.681   0.216
51719SOL     OW57053   3.028   6.464   9.749
51719SOL    HW157054   2.999   6.381   9.786
51719SOL    HW257055   3.118   6.449   9.722
51720SOL     OW57056   8.822  12.324  11.591
51720SOL    HW157057   8.781  12.273  11.661
51720SOL    HW257058   8.883  12.383  11.636
51721SOL     OW57059   2.356   5.302  10.608
51721SOL    HW157060   2.354   5.278  10.701
51721SOL    HW257061   2.266   5.292  10.579
51722SOL     OW57062   3.162   4.027   4.470
51722SOL    HW157063   3.248   4.063   4.492
51722SOL    HW257064   3.139   3.973   4.546
51723SOL     OW57065   2.655  13.548   6.952
51723SOL    HW157066   2.580  13.501   6.988
51723SOL    HW257067   2.726  13.529   7.013
51724SOL     OW57068  11.351  11.898   8.309
51724SOL    HW157069  11.370  11.894   8.216
51724SOL    HW257070  11.436  11.913   8.351
51725SOL     OW57071   8.628   5.736  10.828
51725SOL    HW157072   8.618   5.689  10.910
51725SOL    HW257073   8.713   5.779  10.835
51726SOL     OW57074  14.056   1.866   0.119
51726SOL    HW157075  14.019   1.860   0.208
51726SOL    HW257076  14.092   1.779   0.103
51727SOL     OW57077   2.015   7.374   3.711
51727SOL    HW157078   1.993   7.357   3.619
51727SOL    HW257079   1.931   7.391   3.753
51728SOL     OW57080  12.899  11.706  13.072
51728SOL    HW157081  12.900  11.670  13.161
51728SOL    HW257082  12.852  11.640  13.021
51729SOL     OW57083   6.398  12.148   3.953
51729SOL    HW157084   6.377  12.060   3.921
51729SOL    HW257085   6.492  12.156   3.938
51730SOL     OW57086  11.806   6.617  14.569
51730SOL    HW157087  11.851   6.556  14.510
51730SOL    HW257088  11.723   6.573  14.589
51731SOL     OW57089   0.620   0.446   6.811
51731SOL    HW157090   0.541   0.453   6.864
51731SOL    HW257091   0.628   0.532   6.769
51732SOL     OW57092  10.570   6.543   5.802
51732SOL    HW157093  10.574   6.483   5.877
51732SOL    HW257094  10.525   6.621   5.836
51733SOL     OW57095   5.662  10.489   8.207
51733SOL    HW157096   5.639  10.512   8.297
51733SOL    HW257097   5.650  10.394   8.203
51734SOL     OW57098   9.017  10.087   3.438
51734SOL    HW157099   9.002   9.993   3.428
51734SOL    HW257100   8.949  10.128   3.385
51735SOL     OW57101   1.705   1.097   7.780
51735SOL    HW157102   1.763   1.173   7.788
51735SOL    HW257103   1.672   1.102   7.690
51736SOL     OW57104   6.668  13.045   5.745
51736SOL    HW157105   6.707  12.964   5.778
51736SOL    HW257106   6.634  13.089   5.822
51737SOL     OW57107   6.587  10.140  12.600
51737SOL    HW157108   6.653  10.144  12.532
51737SOL    HW257109   6.519  10.202  12.572
51738SOL     OW57110   3.940  12.212  13.592
51738SOL    HW157111   3.913  12.188  13.503
51738SOL    HW257112   4.013  12.155  13.612
51739SOL     OW57113  14.177   4.149   2.887
51739SOL    HW157114  14.114   4.221   2.887
51739SOL    HW257115  14.229   4.163   2.807
51740SOL     OW57116   6.881  13.682   9.062
51740SOL    HW157117   6.846  13.605   9.018
51740SOL    HW257118   6.857  13.756   9.007
51741SOL     OW57119   1.796  14.787   2.737
51741SOL    HW157120   1.850  14.777   2.659
51741SOL    HW257121   1.773  14.697   2.761
51742SOL     OW57122  10.455   1.049   0.185
51742SOL    HW157123  10.419   1.019   0.269
51742SOL    HW257124  10.517   1.118   0.208
51743SOL     OW57125   8.311   4.827   1.844
51743SOL    HW157126   8.319   4.806   1.750
51743SOL    HW257127   8.365   4.761   1.887
51744SOL     OW57128  13.728  11.396   4.838
51744SOL    HW157129  13.743  11.479   4.793
51744SOL    HW257130  13.668  11.417   4.909
51745SOL     OW57131   2.258   5.453   5.925
51745SOL    HW157132   2.320   5.458   5.998
51745SOL    HW257133   2.295   5.385   5.868
51746SOL     OW57134  10.932  13.117   5.186
51746SOL    HW157135  10.881  13.054   5.134
51746SOL    HW257136  10.919  13.090   5.276
51747SOL     OW57137   1.468   0.339   6.758
51747SOL    HW157138   1.551   0.337   6.711
51747SOL    HW257139   1.473   0.265   6.819
51748SOL     OW57140  11.411   0.788  12.888
51748SOL    HW157141  11.364   0.762  12.968
51748SOL    HW257142  11.342   0.822  12.831
51749SOL     OW57143   7.193   6.460   5.763
51749SOL    HW157144   7.223   6.530   5.706
51749SOL    HW257145   7.261   6.393   5.757
51750SOL     OW57146   3.517   1.408   7.839
51750SOL    HW157147   3.536   1.470   7.769
51750SOL    HW257148   3.566   1.329   7.816
51751SOL     OW57149   3.345  12.641  11.001
51751SOL    HW157150   3.281  12.655  11.071
51751SOL    HW257151   3.308  12.687  10.925
51752SOL     OW57152   9.846  11.781   6.355
51752SOL    HW157153   9.902  11.858   6.355
51752SOL    HW257154   9.761  11.813   6.385
51753SOL     OW57155   7.010  14.777  12.465
51753SOL    HW157156   7.033  14.741  12.550
51753SOL    HW257157   6.929  14.826  12.480
51754SOL     OW57158   4.406   8.151   9.611
51754SOL    HW157159   4.491   8.156   9.654
51754SOL    HW257160   4.383   8.058   9.613
51755SOL     OW57161   6.917  13.986   7.264
51755SOL    HW157162   6.999  13.947   7.295
51755SOL    HW257163   6.884  14.034   7.340
51756SOL     OW57164   4.213   0.775  12.775
51756SOL    HW157165   4.254   0.711  12.717
51756SOL    HW257166   4.129   0.737  12.798
51757SOL     OW57167   7.376   0.831  11.907
51757SOL    HW157168   7.308   0.778  11.948
51757SOL    HW257169   7.450   0.825  11.966
51758SOL     OW57170   4.178   7.182  11.781
51758SOL    HW157171   4.140   7.236  11.850
51758SOL    HW257172   4.210   7.245  11.716
51759SOL     OW57173  10.505  12.736   1.575
51759SOL    HW157174  10.459  12.780   1.646
51759SOL    HW257175  10.474  12.646   1.578
51760SOL     OW57176   0.631   6.071  11.541
51760SOL    HW157177   0.724   6.050  11.537
51760SOL    HW257178   0.588   5.985  11.540
51761SOL     OW57179   4.379   1.726   6.983
51761SOL    HW157180   4.425   1.806   6.957
51761SOL    HW257181   4.287   1.752   6.988
51762SOL     OW57182   8.540  11.709   4.140
51762SOL    HW157183   8.494  11.634   4.102
51762SOL    HW257184   8.488  11.732   4.218
51763SOL     OW57185  13.839   9.628   3.438
51763SOL    HW157186  13.869   9.549   3.393
51763SOL    HW257187  13.899   9.636   3.512
51764SOL     OW57188  10.936   5.302   5.232
51764SOL    HW157189  10.907   5.343   5.313
51764SOL    HW257190  11.011   5.355   5.203
51765SOL     OW57191  12.175   1.836  12.434
51765SOL    HW157192  12.201   1.916  12.480
51765SOL    HW257193  12.079   1.837  12.437
51766SOL     OW57194   5.877   2.000   6.679
51766SOL    HW157195   5.800   1.947   6.657
51766SOL    HW257196   5.858   2.035   6.766
51767SOL     OW57197  11.019  13.465   1.304
51767SOL    HW157198  11.030  13.531   1.235
51767SOL    HW257199  11.101  13.415   1.303
51768SOL     OW57200  13.157   6.456  12.007
51768SOL    HW157201  13.198   6.392  12.065
51768SOL    HW257202  13.219   6.528  12.002
51769SOL     OW57203   9.360   7.748   4.641
51769SOL    HW157204   9.359   7.690   4.717
51769SOL    HW257205   9.394   7.831   4.675
51770SOL     OW57206   8.569   4.368   1.912
51770SOL    HW157207   8.664   4.361   1.922
51770SOL    HW257208   8.537   4.387   2.000
51771SOL     OW57209  11.137   1.205  11.852
51771SOL    HW157210  11.213   1.164  11.893
51771SOL    HW257211  11.126   1.159  11.769
51772SOL     OW57212  10.593   5.860  11.330
51772SOL    HW157213  10.510   5.815  11.343
51772SOL    HW257214  10.574   5.952  11.351
51773SOL     OW57215   1.777   2.225   7.136
51773SOL    HW157216   1.819   2.148   7.174
51773SOL    HW257217   1.834   2.250   7.063
51774SOL     OW57218   9.330   4.787   3.714
51774SOL    HW157219   9.272   4.845   3.666
51774SOL    HW257220   9.381   4.742   3.646
51775SOL     OW57221  13.917   4.613   4.541
51775SOL    HW157222  13.826   4.588   4.554
51775SOL    HW257223  13.913   4.686   4.478
51776SOL     OW57224   3.068  12.095   3.593
51776SOL    HW157225   3.092  12.016   3.545
51776SOL    HW257226   3.019  12.063   3.669
51777SOL     OW57227   6.227   5.642   0.815
51777SOL    HW157228   6.219   5.716   0.755
51777SOL    HW257229   6.159   5.580   0.786
51778SOL     OW57230  13.697  14.475  10.339
51778SOL    HW157231  13.704  14.564  10.306
51778SOL    HW257232  13.690  14.420  10.261
51779SOL     OW57233  12.632   9.696   8.052
51779SOL    HW157234  12.709   9.655   8.092
51779SOL    HW257235  12.577   9.721   8.126
51780SOL     OW57236  13.724   8.565   3.256
51780SOL    HW157237  13.792   8.506   3.223
51780SOL    HW257238  13.661   8.507   3.299
51781SOL     OW57239   8.729   0.914  14.261
51781SOL    HW157240   8.789   0.966  14.207
51781SOL    HW257241   8.768   0.916  14.349
51782SOL     OW57242   7.198   0.437   0.175
51782SOL    HW157243   7.124   0.407   0.228
51782SOL    HW257244   7.234   0.511   0.225
51783SOL     OW57245   8.508   3.930   3.078
51783SOL    HW157246   8.460   3.902   3.000
51783SOL    HW257247   8.579   3.867   3.087
51784SOL     OW57248   9.628   3.448  14.612
51784SOL    HW157249   9.564   3.383  14.582
51784SOL    HW257250   9.576   3.518  14.651
51785SOL     OW57251   6.775   1.474   6.717
51785SOL    HW157252   6.792   1.383   6.691
51785SOL    HW257253   6.784   1.524   6.636
51786SOL     OW57254   6.544   9.169   2.350
51786SOL    HW157255   6.455   9.152   2.379
51786SOL    HW257256   6.595   9.173   2.431
51787SOL     OW57257   4.503   0.413  10.458
51787SOL    HW157258   4.459   0.341  10.413
51787SOL    HW257259   4.431   0.464  10.497
51788SOL     OW57260   6.616  11.259   4.164
51788SOL    HW157261   6.678  11.322   4.127
51788SOL    HW257262   6.643  11.175   4.128
51789SOL     OW57263   5.768  12.522   2.551
51789SOL    HW157264   5.695  12.463   2.574
51789SOL    HW257265   5.728  12.608   2.543
51790SOL     OW57266  11.007  12.547   4.198
51790SOL    HW157267  11.077  12.605   4.227
51790SOL    HW257268  10.930  12.576   4.246
51791SOL     OW57269   1.245   4.148  13.732
51791SOL    HW157270   1.313   4.106  13.784
51791SOL    HW257271   1.285   4.160  13.646
51792SOL     OW57272   7.439   3.176   1.462
51792SOL    HW157273   7.397   3.161   1.546
51792SOL    HW257274   7.522   3.219   1.483
51793SOL     OW57275   4.291   7.058  10.751
51793SOL    HW157276   4.307   7.108  10.671
51793SOL    HW257277   4.200   7.077  10.774
51794SOL     OW57278   6.895  11.844   2.061
51794SOL    HW157279   6.965  11.846   2.127
51794SOL    HW257280   6.915  11.768   2.007
51795SOL     OW57281   4.874   3.396  12.729
51795SOL    HW157282   4.866   3.372  12.637
51795SOL    HW257283   4.942   3.464  12.730
51796SOL     OW57284   1.567  14.801   0.061
51796SOL    HW157285   1.538  14.711   0.045
51796SOL    HW257286   1.620  14.795   0.141
51797SOL     OW57287  13.319  10.072  14.340
51797SOL    HW157288  13.393  10.025  14.302
51797SOL    HW257289  13.287  10.128  14.269
51798SOL     OW57290   1.398   3.584   1.407
51798SOL    HW157291   1.411   3.678   1.422
51798SOL    HW257292   1.389   3.546   1.495
51799SOL     OW57293  12.149  11.458   2.734
51799SOL    HW157294  12.206  11.382   2.749
51799SOL    HW257295  12.172  11.519   2.804
51800SOL     OW57296   7.578   0.366   5.124
51800SOL    HW157297   7.620   0.371   5.210
51800SOL    HW257298   7.625   0.296   5.078
51801SOL     OW57299   1.167  11.846   9.010
51801SOL    HW157300   1.260  11.844   8.990
51801SOL    HW257301   1.151  11.935   9.042
51802SOL     OW57302   6.126   0.940  13.152
51802SOL    HW157303   6.165   0.891  13.079
51802SOL    HW257304   6.165   0.901  13.230
51803SOL     OW57305   2.394   4.612   5.377
51803SOL    HW157306   2.464   4.676   5.392
51803SOL    HW257307   2.338   4.653   5.311
51804SOL     OW57308   7.589   9.145   5.666
51804SOL    HW157309   7.571   9.066   5.716
51804SOL    HW257310   7.565   9.123   5.576
51805SOL     OW57311   6.157   2.850   1.947
51805SOL    HW157312   6.079   2.815   1.904
51805SOL    HW257313   6.145   2.945   1.945
51806SOL     OW57314   2.006  14.547   5.576
51806SOL    HW157315   1.958  14.604   5.517
51806SOL    HW257316   2.098  14.562   5.555
51807SOL     OW57317  14.442   8.904   2.992
51807SOL    HW157318  14.404   8.831   3.041
51807SOL    HW257319  14.414   8.983   3.039
51808SOL     OW57320   4.030  10.231  11.379
51808SOL    HW157321   4.074  10.307  11.341
51808SOL    HW257322   4.099  10.184  11.426
51809SOL     OW57323   2.769   9.922   5.720
51809SOL    HW157324   2.685   9.944   5.761
51809SOL    HW257325   2.833   9.932   5.790
51810SOL     OW57326   1.843   9.548  12.491
51810SOL    HW157327   1.751   9.544  12.465
51810SOL    HW257328   1.840   9.557  12.587
51811SOL     OW57329   1.634   4.472   5.790
51811SOL    HW157330   1.574   4.438   5.724
51811SOL    HW257331   1.637   4.566   5.774
51812SOL     OW57332   3.758  11.381  13.412
51812SOL    HW157333   3.776  11.459  13.360
51812SOL    HW257334   3.830  11.377  13.475
51813SOL     OW57335   4.046   7.436   6.883
51813SOL    HW157336   4.037   7.362   6.822
51813SOL    HW257337   4.127   7.419   6.930
51814SOL     OW57338   4.650  14.746   5.215
51814SOL    HW157339   4.694  14.778   5.136
51814SOL    HW257340   4.624  14.657   5.194
51815SOL     OW57341   3.079  12.819   0.774
51815SOL    HW157342   3.132  12.814   0.853
51815SOL    HW257343   3.020  12.744   0.780
51816SOL     OW57344   1.152  11.298   2.873
51816SOL    HW157345   1.094  11.362   2.914
51816SOL    HW257346   1.176  11.338   2.790
51817SOL     OW57347  13.456   3.984   2.550
51817SOL    HW157348  13.410   3.955   2.629
51817SOL    HW257349  13.533   4.031   2.583
51818SOL     OW57350   2.059   3.401  11.742
51818SOL    HW157351   2.113   3.322  11.741
51818SOL    HW257352   2.113   3.466  11.788
51819SOL     OW57353  14.732   9.926   1.789
51819SOL    HW157354  14.723   9.989   1.860
51819SOL    HW257355  14.746   9.842   1.833
51820SOL     OW57356   2.261  10.301   2.525
51820SOL    HW157357   2.200  10.232   2.553
51820SOL    HW257358   2.222  10.337   2.445
51821SOL     OW57359   7.275  12.364   5.893
51821SOL    HW157360   7.209  12.365   5.962
51821SOL    HW257361   7.317  12.450   5.899
51822SOL     OW57362  10.483   5.538   8.265
51822SOL    HW157363  10.551   5.536   8.333
51822SOL    HW257364  10.490   5.625   8.227
51823SOL     OW57365  14.755   2.949   3.524
51823SOL    HW157366  14.834   2.953   3.577
51823SOL    HW257367  14.683   2.956   3.586
51824SOL     OW57368  13.428   8.014  11.102
51824SOL    HW157369  13.373   8.090  11.079
51824SOL    HW257370  13.435   7.965  11.020
51825SOL     OW57371  13.188  12.270  12.287
51825SOL    HW157372  13.244  12.199  12.319
51825SOL    HW257373  13.144  12.303  12.365
51826SOL     OW57374   8.556   4.576  12.987
51826SOL    HW157375   8.572   4.533  13.071
51826SOL    HW257376   8.480   4.531  12.951
51827SOL     OW57377  13.831   8.374   1.328
51827SOL    HW157378  13.811   8.451   1.276
51827SOL    HW257379  13.924   8.358   1.312
51828SOL     OW57380  14.772   2.687   3.848
51828SOL    HW157381  14.731   2.601   3.858
51828SOL    HW257382  14.860   2.667   3.815
51829SOL     OW57383   5.979   0.384  10.348
51829SOL    HW157384   6.043   0.446  10.314
51829SOL    HW257385   6.007   0.299  10.313
51830SOL     OW57386  13.879   1.169   3.188
51830SOL    HW157387  13.826   1.243   3.158
51830SOL    HW257388  13.900   1.191   3.279
51831SOL     OW57389   4.554   0.807   7.676
51831SOL    HW157390   4.533   0.855   7.755
51831SOL    HW257391   4.637   0.763   7.695
51832SOL     OW57392  14.460   5.212   4.812
51832SOL    HW157393  14.550   5.232   4.789
51832SOL    HW257394  14.414   5.208   4.728
51833SOL     OW57395   2.895  10.149  14.139
51833SOL    HW157396   2.935  10.173  14.223
51833SOL    HW257397   2.927  10.215  14.077
51834SOL     OW57398   5.067   7.868   8.644
51834SOL    HW157399   5.047   7.949   8.597
51834SOL    HW257400   5.135   7.826   8.591
51835SOL     OW57401  14.023  14.471   3.563
51835SOL    HW157402  14.031  14.383   3.528
51835SOL    HW257403  13.933  14.497   3.545
51836SOL     OW57404   7.558  14.811   6.616
51836SOL    HW157405   7.521  14.839   6.532
51836SOL    HW257406   7.621  14.743   6.593
51837SOL     OW57407   2.482  12.924   3.491
51837SOL    HW157408   2.570  12.934   3.529
51837SOL    HW257409   2.447  12.846   3.534
51838SOL     OW57410  14.040   0.244   7.796
51838SOL    HW157411  14.102   0.202   7.737
51838SOL    HW257412  13.979   0.290   7.739
51839SOL     OW57413  10.419   2.532   5.555
51839SOL    HW157414  10.454   2.548   5.467
51839SOL    HW257415  10.438   2.439   5.571
51840SOL     OW57416   9.062   1.432  10.270
51840SOL    HW157417   9.028   1.459  10.355
51840SOL    HW257418   9.141   1.383  10.291
51841SOL     OW57419  11.273  12.567  13.964
51841SOL    HW157420  11.350  12.618  13.938
51841SOL    HW257421  11.205  12.593  13.903
51842SOL     OW57422   6.849   2.378   6.696
51842SOL    HW157423   6.834   2.459   6.744
51842SOL    HW257424   6.769   2.328   6.708
51843SOL     OW57425  12.182   3.000   9.476
51843SOL    HW157426  12.150   2.911   9.493
51843SOL    HW257427  12.107   3.045   9.436
51844SOL     OW57428   7.014   7.903  11.864
51844SOL    HW157429   6.942   7.853  11.827
51844SOL    HW257430   7.061   7.841  11.920
51845SOL     OW57431  13.670   1.291   3.444
51845SOL    HW157432  13.660   1.235   3.521
51845SOL    HW257433  13.586   1.337   3.437
51846SOL     OW57434   8.105   1.974   9.785
51846SOL    HW157435   8.102   1.894   9.837
51846SOL    HW257436   8.136   2.041   9.847
51847SOL     OW57437  10.915   9.052  10.460
51847SOL    HW157438  10.870   9.015  10.384
51847SOL    HW257439  10.865   9.019  10.535
51848SOL     OW57440   6.108   5.633   8.745
51848SOL    HW157441   6.028   5.685   8.736
51848SOL    HW257442   6.122   5.595   8.659
51849SOL     OW57443  14.199  11.538   1.291
51849SOL    HW157444  14.287  11.539   1.327
51849SOL    HW257445  14.178  11.445   1.281
51850SOL     OW57446  13.789   9.057   6.875
51850SOL    HW157447  13.854   9.104   6.824
51850SOL    HW257448  13.839   8.987   6.919
51851SOL     OW57449   0.156   2.391   2.386
51851SOL    HW157450   0.231   2.361   2.438
51851SOL    HW257451   0.196   2.430   2.308
51852SOL     OW57452   6.561   4.546  13.950
51852SOL    HW157453   6.613   4.604  13.895
51852SOL    HW257454   6.470   4.572  13.934
51853SOL     OW57455   7.149  14.817  14.656
51853SOL    HW157456   7.108  14.812  14.742
51853SOL    HW257457   7.168   0.028  14.643
51854SOL     OW57458   2.354   0.576  13.794
51854SOL    HW157459   2.368   0.496  13.744
51854SOL    HW257460   2.274   0.614  13.758
51855SOL     OW57461   9.193   3.838   7.703
51855SOL    HW157462   9.187   3.838   7.798
51855SOL    HW257463   9.150   3.919   7.676
51856SOL     OW57464  10.982   8.393   1.169
51856SOL    HW157465  11.062   8.443   1.153
51856SOL    HW257466  10.966   8.346   1.088
51857SOL     OW57467   2.935   5.758  12.600
51857SOL    HW157468   3.027   5.778  12.586
51857SOL    HW257469   2.890   5.842  12.593
51858SOL     OW57470   9.944  14.266   9.537
51858SOL    HW157471   9.951  14.248   9.443
51858SOL    HW257472  10.029  14.242   9.572
51859SOL     OW57473   6.542   1.252   8.996
51859SOL    HW157474   6.610   1.285   9.055
51859SOL    HW257475   6.567   1.286   8.910
51860SOL     OW57476   8.575  11.842  14.560
51860SOL    HW157477   8.625  11.859  14.640
51860SOL    HW257478   8.630  11.782  14.510
51861SOL     OW57479   4.789   5.518   7.746
51861SOL    HW157480   4.852   5.515   7.674
51861SOL    HW257481   4.759   5.609   7.748
51862SOL     OW57482   0.267   0.732   9.363
51862SOL    HW157483   0.180   0.694   9.361
51862SOL    HW257484   0.284   0.750   9.456
51863SOL     OW57485   1.643   7.831  11.694
51863SOL    HW157486   1.614   7.851  11.783
51863SOL    HW257487   1.565   7.844  11.640
51864SOL     OW57488   4.315   0.146  12.803
51864SOL    HW157489   4.292   0.214  12.867
51864SOL    HW257490   4.318   0.065  12.855
51865SOL     OW57491   1.167   2.341  11.592
51865SOL    HW157492   1.253   2.352  11.634
51865SOL    HW257493   1.125   2.426  11.602
51866SOL     OW57494   9.153   2.397   9.298
51866SOL    HW157495   9.186   2.367   9.213
51866SOL    HW257496   9.074   2.447   9.276
51867SOL     OW57497   7.891  10.404  12.702
51867SOL    HW157498   7.985  10.409  12.720
51867SOL    HW257499   7.885  10.381  12.610
51868SOL     OW57500   4.451   8.148  10.019
51868SOL    HW157501   4.496   8.159  10.102
51868SOL    HW257502   4.517   8.112   9.960
51869SOL     OW57503   1.914   2.979  12.770
51869SOL    HW157504   1.848   2.942  12.712
51869SOL    HW257505   1.919   3.071  12.746
51870SOL     OW57506   7.649   2.962  13.139
51870SOL    HW157507   7.627   2.893  13.203
51870SOL    HW257508   7.564   2.992  13.107
51871SOL     OW57509   1.358  10.259   9.724
51871SOL    HW157510   1.426  10.237   9.788
51871SOL    HW257511   1.341  10.178   9.677
51872SOL     OW57512  10.961   4.372  13.215
51872SOL    HW157513  11.040   4.324  13.238
51872SOL    HW257514  10.918   4.390  13.298
51873SOL     OW57515   9.253   6.448  10.694
51873SOL    HW157516   9.219   6.537  10.706
51873SOL    HW257517   9.181   6.391  10.721
51874SOL     OW57518   8.440   4.138   1.883
51874SOL    HW157519   8.506   4.073   1.863
51874SOL    HW257520   8.483   4.222   1.867
51875SOL     OW57521   7.269   3.816   6.995
51875SOL    HW157522   7.316   3.871   7.058
51875SOL    HW257523   7.320   3.736   6.990
51876SOL     OW57524  10.763  12.773  10.105
51876SOL    HW157525  10.671  12.797  10.120
51876SOL    HW257526  10.803  12.779  10.192
51877SOL     OW57527   0.614   3.487  11.356
51877SOL    HW157528   0.709   3.493  11.347
51877SOL    HW257529   0.598   3.488  11.450
51878SOL     OW57530   1.554  11.588  10.491
51878SOL    HW157531   1.537  11.515  10.550
51878SOL    HW257532   1.618  11.642  10.537
51879SOL     OW57533  14.214  11.318  13.316
51879SOL    HW157534  14.190  11.270  13.395
51879SOL    HW257535  14.165  11.400  13.322
51880SOL     OW57536   4.422   9.142  13.283
51880SOL    HW157537   4.489   9.148  13.351
51880SOL    HW257538   4.433   9.222  13.232
51881SOL     OW57539   2.394   1.546  12.043
51881SOL    HW157540   2.410   1.557  12.137
51881SOL    HW257541   2.356   1.458  12.035
51882SOL     OW57542   1.190   1.756   1.258
51882SOL    HW157543   1.141   1.812   1.319
51882SOL    HW257544   1.234   1.692   1.314
51883SOL     OW57545   2.082  12.915   5.863
51883SOL    HW157546   2.088  12.912   5.958
51883SOL    HW257547   2.162  12.959   5.835
51884SOL     OW57548   7.089  12.035   1.740
51884SOL    HW157549   7.066  12.090   1.815
51884SOL    HW257550   7.015  12.042   1.681
51885SOL     OW57551  11.844   1.113   8.473
51885SOL    HW157552  11.915   1.076   8.421
51885SOL    HW257553  11.861   1.083   8.562
51886SOL     OW57554   2.225  14.625  10.059
51886SOL    HW157555   2.295  14.689  10.068
51886SOL    HW257556   2.164  14.646  10.130
51887SOL     OW57557  13.049   3.817  12.469
51887SOL    HW157558  13.028   3.768  12.548
51887SOL    HW257559  13.132   3.781  12.438
51888SOL     OW57560  14.080   9.894   5.180
51888SOL    HW157561  14.145   9.827   5.203
51888SOL    HW257562  13.999   9.864   5.222
51889SOL     OW57563  11.863   1.456   9.694
51889SOL    HW157564  11.835   1.547   9.703
51889SOL    HW257565  11.807   1.407   9.755
51890SOL     OW57566  11.490   0.181   9.523
51890SOL    HW157567  11.528   0.220   9.444
51890SOL    HW257568  11.507   0.244   9.592
51891SOL     OW57569   3.059   2.935   8.814
51891SOL    HW157570   3.009   2.868   8.767
51891SOL    HW257571   3.150   2.918   8.790
51892SOL     OW57572   6.831   6.121  14.278
51892SOL    HW157573   6.919   6.125  14.315
51892SOL    HW257574   6.845   6.091  14.188
51893SOL     OW57575  14.805  13.988  10.611
51893SOL    HW157576  14.800  13.985  10.515
51893SOL    HW257577  14.862  14.063  10.629
51894SOL     OW57578   4.892   4.733   9.513
51894SOL    HW157579   4.813   4.787   9.505
51894SOL    HW257580   4.879   4.685   9.595
51895SOL     OW57581   3.173   1.563   0.800
51895SOL    HW157582   3.124   1.645   0.800
51895SOL    HW257583   3.125   1.506   0.740
51896SOL     OW57584  12.687   6.615   8.997
51896SOL    HW157585  12.757   6.680   8.991
51896SOL    HW257586  12.657   6.604   8.906
51897SOL     OW57587   0.178  11.188   1.472
51897SOL    HW157588   0.239  11.154   1.407
51897SOL    HW257589   0.095  11.146   1.451
51898SOL     OW57590   3.580   6.099   6.938
51898SOL    HW157591   3.666   6.138   6.923
51898SOL    HW257592   3.561   6.051   6.857
51899SOL     OW57593  13.017   9.297  10.092
51899SOL    HW157594  13.062   9.334  10.016
51899SOL    HW257595  12.924   9.300  10.069
51900SOL     OW57596   0.905   3.477   1.874
51900SOL    HW157597   0.862   3.516   1.951
51900SOL    HW257598   0.910   3.549   1.811
51901SOL     OW57599  14.805  11.641   9.936
51901SOL    HW157600  14.755  11.566   9.906
51901SOL    HW257601  14.871  11.605   9.995
51902SOL     OW57602   1.875   1.964  12.690
51902SOL    HW157603   1.853   2.003  12.605
51902SOL    HW257604   1.791   1.937  12.727
51903SOL     OW57605  12.049   0.253   0.315
51903SOL    HW157606  12.086   0.174   0.278
51903SOL    HW257607  12.120   0.317   0.314
51904SOL     OW57608   5.434   3.657   1.515
51904SOL    HW157609   5.380   3.627   1.588
51904SOL    HW257610   5.376   3.711   1.461
51905SOL     OW57611   7.615   1.663   9.864
51905SOL    HW157612   7.680   1.641   9.932
51905SOL    HW257613   7.562   1.732   9.903
51906SOL     OW57614   8.323   3.689   5.358
51906SOL    HW157615   8.267   3.671   5.434
51906SOL    HW257616   8.400   3.733   5.395
51907SOL     OW57617  11.093   2.346  13.562
51907SOL    HW157618  11.065   2.404  13.634
51907SOL    HW257619  11.177   2.382  13.534
51908SOL     OW57620   2.054   7.426   2.421
51908SOL    HW157621   2.132   7.372   2.411
51908SOL    HW257622   1.995   7.398   2.350
51909SOL     OW57623   1.329   3.898  12.767
51909SOL    HW157624   1.244   3.942  12.765
51909SOL    HW257625   1.345   3.880  12.860
51910SOL     OW57626  11.396   7.440   3.441
51910SOL    HW157627  11.333   7.407   3.506
51910SOL    HW257628  11.482   7.424   3.481
51911SOL     OW57629   0.336   7.181   8.459
51911SOL    HW157630   0.319   7.269   8.494
51911SOL    HW257631   0.430   7.170   8.470
51912SOL     OW57632  14.125   5.028   3.719
51912SOL    HW157633  14.145   5.096   3.655
51912SOL    HW257634  14.090   4.955   3.667
51913SOL     OW57635   4.317  14.741  10.736
51913SOL    HW157636   4.377  14.806  10.700
51913SOL    HW257637   4.249  14.792  10.781
51914SOL     OW57638  13.775   2.001  10.023
51914SOL    HW157639  13.715   1.974  10.093
51914SOL    HW257640  13.854   2.029  10.069
51915SOL     OW57641  14.609   2.946   5.675
51915SOL    HW157642  14.636   2.856   5.659
51915SOL    HW257643  14.655   2.997   5.609
51916SOL     OW57644   5.964   0.742  14.487
51916SOL    HW157645   5.919   0.662  14.514
51916SOL    HW257646   6.037   0.713  14.433
51917SOL     OW57647   7.575   7.180  13.219
51917SOL    HW157648   7.664   7.178  13.253
51917SOL    HW257649   7.519   7.166  13.296
51918SOL     OW57650   0.093   2.544   4.847
51918SOL    HW157651   0.046   2.465   4.874
51918SOL    HW257652   0.078   2.605   4.919
51919SOL     OW57653   7.505   0.976   2.826
51919SOL    HW157654   7.571   0.971   2.894
51919SOL    HW257655   7.536   1.046   2.768
51920SOL     OW57656  14.586   4.546   4.710
51920SOL    HW157657  14.561   4.541   4.618
51920SOL    HW257658  14.526   4.486   4.755
51921SOL     OW57659  14.103   7.055   2.826
51921SOL    HW157660  14.178   7.107   2.798
51921SOL    HW257661  14.099   7.068   2.921
51922SOL     OW57662  13.519  10.053   5.731
51922SOL    HW157663  13.567  10.122   5.685
51922SOL    HW257664  13.488  10.095   5.812
51923SOL     OW57665   6.781   0.132   1.382
51923SOL    HW157666   6.753   0.175   1.462
51923SOL    HW257667   6.799   0.042   1.408
51924SOL     OW57668   4.280   0.666   9.383
51924SOL    HW157669   4.210   0.691   9.444
51924SOL    HW257670   4.234   0.649   9.300
51925SOL     OW57671  14.134   0.029   6.406
51925SOL    HW157672  14.219   0.005   6.367
51925SOL    HW257673  14.078  14.835   6.389
51926SOL     OW57674   6.961  14.794   9.817
51926SOL    HW157675   6.993  14.875   9.778
51926SOL    HW257676   7.035  14.762   9.868
51927SOL     OW57677   2.089  13.192  13.594
51927SOL    HW157678   2.109  13.137  13.670
51927SOL    HW257679   2.045  13.269  13.631
51928SOL     OW57680   1.534   0.801  11.002
51928SOL    HW157681   1.506   0.866  11.067
51928SOL    HW257682   1.456   0.783  10.950
51929SOL     OW57683  13.054   4.255   3.343
51929SOL    HW157684  12.994   4.186   3.315
51929SOL    HW257685  13.078   4.232   3.432
51930SOL     OW57686   3.403   6.669   8.858
51930SOL    HW157687   3.370   6.580   8.868
51930SOL    HW257688   3.357   6.719   8.926
51931SOL     OW57689  14.444  11.253   2.255
51931SOL    HW157690  14.415  11.234   2.344
51931SOL    HW257691  14.431  11.171   2.208
51932SOL     OW57692  14.608   7.496   5.053
51932SOL    HW157693  14.554   7.576   5.049
51932SOL    HW257694  14.601   7.468   5.144
51933SOL     OW57695   8.858   8.203   2.762
51933SOL    HW157696   8.845   8.146   2.838
51933SOL    HW257697   8.953   8.214   2.756
51934SOL     OW57698   9.437   7.376   6.266
51934SOL    HW157699   9.426   7.292   6.310
51934SOL    HW257700   9.508   7.362   6.203
51935SOL     OW57701   2.415  12.985   6.070
51935SOL    HW157702   2.505  12.952   6.066
51935SOL    HW257703   2.384  12.979   5.979
51936SOL     OW57704  14.403   5.122  13.630
51936SOL    HW157705  14.394   5.217  13.622
51936SOL    HW257706  14.361   5.101  13.713
51937SOL     OW57707   4.475   3.758   3.965
51937SOL    HW157708   4.475   3.852   3.947
51937SOL    HW257709   4.567   3.733   3.962
51938SOL     OW57710  12.884   5.395   1.316
51938SOL    HW157711  12.971   5.364   1.342
51938SOL    HW257712  12.827   5.319   1.329
51939SOL     OW57713   6.666   4.461  12.279
51939SOL    HW157714   6.633   4.544  12.313
51939SOL    HW257715   6.670   4.474  12.184
51940SOL     OW57716   2.232   0.711   9.950
51940SOL    HW157717   2.149   0.739   9.910
51940SOL    HW257718   2.299   0.755   9.899
51941SOL     OW57719  11.493   4.117   1.845
51941SOL    HW157720  11.540   4.132   1.763
51941SOL    HW257721  11.485   4.203   1.885
51942SOL     OW57722  14.487  13.293   3.035
51942SOL    HW157723  14.563  13.265   3.085
51942SOL    HW257724  14.483  13.233   2.961
51943SOL     OW57725  12.557   2.683   4.845
51943SOL    HW157726  12.623   2.689   4.777
51943SOL    HW257727  12.569   2.762   4.897
51944SOL     OW57728   5.844   1.188   0.805
51944SOL    HW157729   5.835   1.138   0.724
51944SOL    HW257730   5.838   1.122   0.874
51945SOL     OW57731   7.626  13.740  13.646
51945SOL    HW157732   7.565  13.704  13.711
51945SOL    HW257733   7.601  13.697  13.564
51946SOL     OW57734   0.350   4.756   4.619
51946SOL    HW157735   0.421   4.819   4.630
51946SOL    HW257736   0.278   4.791   4.671
51947SOL     OW57737   4.725  11.131   5.398
51947SOL    HW157738   4.753  11.085   5.477
51947SOL    HW257739   4.637  11.096   5.380
51948SOL     OW57740   7.586   5.967   8.740
51948SOL    HW157741   7.539   5.886   8.717
51948SOL    HW257742   7.654   5.975   8.673
51949SOL     OW57743   1.740  11.432   7.889
51949SOL    HW157744   1.676  11.409   7.821
51949SOL    HW257745   1.688  11.442   7.969
51950SOL     OW57746  10.735   2.219  13.209
51950SOL    HW157747  10.707   2.286  13.271
51950SOL    HW257748  10.746   2.140  13.262
51951SOL     OW57749  13.229  11.437   8.862
51951SOL    HW157750  13.179  11.361   8.833
51951SOL    HW257751  13.284  11.404   8.934
51952SOL     OW57752   6.905  10.174  11.672
51952SOL    HW157753   6.954  10.161  11.753
51952SOL    HW257754   6.876  10.265  11.676
51953SOL     OW57755  14.107   3.331   7.692
51953SOL    HW157756  14.158   3.296   7.619
51953SOL    HW257757  14.144   3.288   7.769
51954SOL     OW57758  12.108  11.864   2.959
51954SOL    HW157759  12.127  11.771   2.967
51954SOL    HW257760  12.064  11.887   3.041
51955SOL     OW57761  10.504   3.475   1.369
51955SOL    HW157762  10.472   3.564   1.386
51955SOL    HW257763  10.425   3.425   1.348
51956SOL     OW57764  12.928  10.856   6.082
51956SOL    HW157765  12.872  10.878   6.007
51956SOL    HW257766  13.002  10.808   6.044
51957SOL     OW57767   5.668  10.015   4.367
51957SOL    HW157768   5.749  10.003   4.417
51957SOL    HW257769   5.671  10.106   4.336
51958SOL     OW57770   2.338   2.654   3.196
51958SOL    HW157771   2.272   2.585   3.186
51958SOL    HW257772   2.303   2.727   3.145
51959SOL     OW57773  12.307   7.130   7.346
51959SOL    HW157774  12.338   7.055   7.396
51959SOL    HW257775  12.222   7.151   7.385
51960SOL     OW57776   9.879   4.367  10.196
51960SOL    HW157777   9.963   4.356  10.151
51960SOL    HW257778   9.860   4.460  10.189
51961SOL     OW57779  11.473   4.353   6.833
51961SOL    HW157780  11.380   4.375   6.846
51961SOL    HW257781  11.486   4.359   6.739
51962SOL     OW57782   3.706   5.443  14.702
51962SOL    HW157783   3.750   5.499  14.766
51962SOL    HW257784   3.777   5.402  14.653
51963SOL     OW57785   5.920  10.941   3.179
51963SOL    HW157786   5.893  10.922   3.269
51963SOL    HW257787   5.986  11.010   3.188
51964SOL     OW57788  11.945   6.421   3.410
51964SOL    HW157789  11.936   6.448   3.502
51964SOL    HW257790  11.877   6.471   3.364
51965SOL     OW57791  12.665   4.537   2.022
51965SOL    HW157792  12.612   4.608   1.986
51965SOL    HW257793  12.704   4.495   1.945
51966SOL     OW57794   1.128   6.084  14.608
51966SOL    HW157795   1.130   6.117  14.518
51966SOL    HW257796   1.212   6.040  14.619
51967SOL     OW57797   8.064  12.678   4.172
51967SOL    HW157798   8.089  12.764   4.208
51967SOL    HW257799   8.103  12.615   4.232
51968SOL     OW57800   6.670  13.415   9.392
51968SOL    HW157801   6.712  13.435   9.476
51968SOL    HW257802   6.693  13.489   9.336
51969SOL     OW57803   6.658   2.913   2.082
51969SOL    HW157804   6.653   2.976   2.010
51969SOL    HW257805   6.569   2.907   2.116
51970SOL     OW57806  12.699   6.457  10.145
51970SOL    HW157807  12.763   6.407  10.094
51970SOL    HW257808  12.751   6.522  10.192
51971SOL     OW57809   2.243   6.838   8.484
51971SOL    HW157810   2.261   6.790   8.565
51971SOL    HW257811   2.233   6.769   8.417
51972SOL     OW57812   7.004   4.120   3.120
51972SOL    HW157813   6.991   4.202   3.073
51972SOL    HW257814   7.073   4.075   3.071
51973SOL     OW57815   4.004   4.093   2.054
51973SOL    HW157816   4.051   4.122   2.132
51973SOL    HW257817   4.052   4.132   1.981
51974SOL     OW57818   1.321  13.814  10.863
51974SOL    HW157819   1.329  13.905  10.833
51974SOL    HW257820   1.362  13.814  10.949
51975SOL     OW57821   0.353  11.753   8.383
51975SOL    HW157822   0.349  11.670   8.429
51975SOL    HW257823   0.283  11.806   8.421
51976SOL     OW57824   0.668   9.558   2.712
51976SOL    HW157825   0.615   9.638   2.709
51976SOL    HW257826   0.605   9.489   2.733
51977SOL     OW57827   6.409   3.070   8.439
51977SOL    HW157828   6.446   3.135   8.498
51977SOL    HW257829   6.322   3.102   8.419
51978SOL     OW57830  11.154  13.698  12.471
51978SOL    HW157831  11.158  13.775  12.529
51978SOL    HW257832  11.085  13.644  12.508
51979SOL     OW57833   9.083   6.286  14.391
51979SOL    HW157834   9.124   6.279  14.477
51979SOL    HW257835   8.991   6.269  14.407
51980SOL     OW57836  12.512   8.695  13.305
51980SOL    HW157837  12.555   8.615  13.273
51980SOL    HW257838  12.428   8.665  13.338
51981SOL     OW57839   9.540   7.718   8.921
51981SOL    HW157840   9.489   7.680   8.993
51981SOL    HW257841   9.631   7.701   8.944
51982SOL     OW57842   8.912   1.285   6.795
51982SOL    HW157843   8.945   1.374   6.796
51982SOL    HW257844   8.852   1.282   6.720
51983SOL     OW57845  11.846   3.027   2.433
51983SOL    HW157846  11.782   3.039   2.362
51983SOL    HW257847  11.867   2.934   2.430
51984SOL     OW57848   8.397   6.451  10.418
51984SOL    HW157849   8.433   6.461  10.330
51984SOL    HW257850   8.407   6.537  10.459
51985SOL     OW57851   2.253  14.400  14.617
51985SOL    HW157852   2.320  14.465  14.636
51985SOL    HW257853   2.293  14.316  14.638
51986SOL     OW57854  13.423   6.730   3.924
51986SOL    HW157855  13.357   6.712   3.858
51986SOL    HW257856  13.432   6.648   3.973
51987SOL     OW57857  11.555  10.683   2.046
51987SOL    HW157858  11.582  10.593   2.065
51987SOL    HW257859  11.602  10.736   2.110
51988SOL     OW57860   5.487   5.992   8.248
51988SOL    HW157861   5.433   5.979   8.170
51988SOL    HW257862   5.457   5.925   8.310
51989SOL     OW57863  14.484   7.200   8.034
51989SOL    HW157864  14.529   7.214   8.118
51989SOL    HW257865  14.549   7.226   7.968
51990SOL     OW57866  11.363   8.217   7.536
51990SOL    HW157867  11.388   8.126   7.522
51990SOL    HW257868  11.286   8.229   7.481
51991SOL     OW57869  11.915  10.707  14.117
51991SOL    HW157870  11.984  10.643  14.098
51991SOL    HW257871  11.909  10.707  14.212
51992SOL     OW57872   9.881   5.607  11.458
51992SOL    HW157873   9.829   5.574  11.531
51992SOL    HW257874   9.819   5.656  11.404
51993SOL     OW57875  14.264   4.328  11.401
51993SOL    HW157876  14.205   4.340  11.474
51993SOL    HW257877  14.339   4.383  11.421
51994SOL     OW57878   0.929  14.366   5.467
51994SOL    HW157879   0.999  14.428   5.485
51994SOL    HW257880   0.886  14.400   5.388
51995SOL     OW57881   6.327  12.136   9.473
51995SOL    HW157882   6.384  12.202   9.512
51995SOL    HW257883   6.240  12.156   9.506
51996SOL     OW57884   2.989   8.699  14.019
51996SOL    HW157885   3.057   8.646  13.977
51996SOL    HW257886   2.911   8.644  14.016
51997SOL     OW57887  12.883   7.469   2.456
51997SOL    HW157888  12.864   7.542   2.516
51997SOL    HW257889  12.857   7.391   2.504
51998SOL     OW57890   8.994   2.180  14.116
51998SOL    HW157891   9.001   2.209  14.206
51998SOL    HW257892   9.016   2.257  14.063
51999SOL     OW57893   1.924   2.781   3.921
51999SOL    HW157894   1.992   2.804   3.858
51999SOL    HW257895   1.925   2.852   3.985
52000SOL     OW57896  10.902   9.246  11.126
52000SOL    HW157897  10.912   9.289  11.041
52000SOL    HW257898  10.844   9.172  11.108
52001SOL     OW57899   8.787   7.085  14.196
52001SOL    HW157900   8.821   7.174  14.190
52001SOL    HW257901   8.859   7.030  14.165
52002SOL     OW57902  10.643  13.203   7.655
52002SOL    HW157903  10.689  13.135   7.703
52002SOL    HW257904  10.625  13.164   7.569
52003SOL     OW57905   9.531  12.632   1.049
52003SOL    HW157906   9.502  12.682   1.125
52003SOL    HW257907   9.517  12.691   0.975
52004SOL     OW57908   3.551   9.333   1.787
52004SOL    HW157909   3.461   9.320   1.756
52004SOL    HW257910   3.597   9.253   1.760
52005SOL     OW57911  11.742   6.488  12.379
52005SOL    HW157912  11.672   6.458  12.320
52005SOL    HW257913  11.790   6.553  12.327
52006SOL     OW57914   8.263   8.476   3.164
52006SOL    HW157915   8.225   8.549   3.115
52006SOL    HW257916   8.211   8.400   3.138
52007SOL     OW57917   5.070  14.306   9.328
52007SOL    HW157918   5.021  14.365   9.386
52007SOL    HW257919   5.074  14.352   9.244
52008SOL     OW57920   2.176   0.106  14.135
52008SOL    HW157921   2.225   0.159  14.198
52008SOL    HW257922   2.135   0.038  14.188
52009SOL     OW57923   8.400   2.354  11.275
52009SOL    HW157924   8.320   2.302  11.281
52009SOL    HW257925   8.372   2.438  11.240
52010SOL     OW57926   1.647   1.525   3.137
52010SOL    HW157927   1.644   1.446   3.192
52010SOL    HW257928   1.617   1.496   3.051
52011SOL     OW57929   0.082   9.051  10.715
52011SOL    HW157930   0.022   9.124  10.733
52011SOL    HW257931   0.030   8.972  10.731
52012SOL     OW57932   4.775   3.621  11.403
52012SOL    HW157933   4.822   3.566  11.339
52012SOL    HW257934   4.761   3.564  11.478
52013SOL     OW57935   7.199   9.004   8.480
52013SOL    HW157936   7.286   8.984   8.444
52013SOL    HW257937   7.212   9.009   8.574
52014SOL     OW57938  10.012  12.950  12.155
52014SOL    HW157939   9.976  12.930  12.241
52014SOL    HW257940  10.101  12.915  12.157
52015SOL     OW57941   6.974  13.706  11.619
52015SOL    HW157942   6.881  13.728  11.608
52015SOL    HW257943   6.999  13.751  11.700
52016SOL     OW57944   6.492   7.509   0.056
52016SOL    HW157945   6.485   7.579   0.121
52016SOL    HW257946   6.427   7.532  14.871
52017SOL     OW57947   7.864  13.576   6.147
52017SOL    HW157948   7.920  13.520   6.201
52017SOL    HW257949   7.784  13.524   6.134
52018SOL     OW57950   1.153   5.572   3.166
52018SOL    HW157951   1.147   5.601   3.075
52018SOL    HW257952   1.144   5.653   3.217
52019SOL     OW57953   1.095   3.509  13.717
52019SOL    HW157954   1.054   3.477  13.636
52019SOL    HW257955   1.026   3.508  13.782
52020SOL     OW57956   6.803   9.769  12.055
52020SOL    HW157957   6.848   9.788  12.138
52020SOL    HW257958   6.768   9.680  12.068
52021SOL     OW57959   5.102   9.973   1.371
52021SOL    HW157960   5.010   9.991   1.391
52021SOL    HW257961   5.127  10.041   1.309
52022SOL     OW57962   2.685   0.477   0.204
52022SOL    HW157963   2.615   0.525   0.160
52022SOL    HW257964   2.644   0.442   0.283
52023SOL     OW57965  12.476   7.775  12.739
52023SOL    HW157966  12.439   7.766  12.652
52023SOL    HW257967  12.403   7.759  12.799
52024SOL     OW57968  11.718   8.694   9.159
52024SOL    HW157969  11.635   8.669   9.199
52024SOL    HW257970  11.775   8.619   9.174
52025SOL     OW57971   1.741   3.982   7.812
52025SOL    HW157972   1.768   3.923   7.741
52025SOL    HW257973   1.814   3.979   7.874
52026SOL     OW57974   3.100  14.710  11.005
52026SOL    HW157975   3.111  14.657  11.084
52026SOL    HW257976   3.186  14.747  10.988
52027SOL     OW57977  12.137   2.354   0.946
52027SOL    HW157978  12.049   2.323   0.928
52027SOL    HW257979  12.148   2.340   1.040
52028SOL     OW57980   8.973   0.199   5.536
52028SOL    HW157981   8.936   0.287   5.524
52028SOL    HW257982   9.062   0.206   5.500
52029SOL     OW57983   7.585   1.201  14.338
52029SOL    HW157984   7.631   1.283  14.354
52029SOL    HW257985   7.655   1.136  14.331
52030SOL     OW57986  12.950  10.209  11.427
52030SOL    HW157987  13.003  10.133  11.452
52030SOL    HW257988  12.920  10.245  11.511
52031SOL     OW57989   0.286   1.048  11.212
52031SOL    HW157990   0.282   1.047  11.116
52031SOL    HW257991   0.306   1.139  11.235
52032SOL     OW57992   2.643  12.332  13.591
52032SOL    HW157993   2.683  12.367  13.512
52032SOL    HW257994   2.591  12.257  13.562
52033SOL     OW57995   6.146   1.175   4.746
52033SOL    HW157996   6.231   1.145   4.714
52033SOL    HW257997   6.114   1.102   4.800
52034SOL     OW57998  10.468  12.772   4.320
52034SOL    HW157999  10.468  12.703   4.254
52034SOL    HW258000  10.486  12.852   4.271
52035SOL     OW58001  13.030  11.945  12.125
52035SOL    HW158002  12.983  12.004  12.185
52035SOL    HW258003  13.117  11.983  12.118
52036SOL     OW58004   2.280   5.169   9.739
52036SOL    HW158005   2.208   5.205   9.791
52036SOL    HW258006   2.337   5.243   9.722
52037SOL     OW58007  14.113   8.725   2.899
52037SOL    HW158008  14.157   8.642   2.878
52037SOL    HW258009  14.113   8.773   2.816
52038SOL     OW58010  12.556  10.432  11.327
52038SOL    HW158011  12.565  10.352  11.378
52038SOL    HW258012  12.503  10.406  11.251
52039SOL     OW58013  11.820   9.117  11.329
52039SOL    HW158014  11.727   9.133  11.311
52039SOL    HW258015  11.824   9.024  11.349
52040SOL     OW58016  12.260   4.108   7.719
52040SOL    HW158017  12.308   4.041   7.768
52040SOL    HW258018  12.328   4.155   7.670
52041SOL     OW58019  14.078   7.174   0.863
52041SOL    HW158020  14.079   7.153   0.957
52041SOL    HW258021  14.163   7.146   0.831
52042SOL     OW58022   6.860   3.840   5.606
52042SOL    HW158023   6.915   3.804   5.536
52042SOL    HW258024   6.864   3.774   5.675
52043SOL     OW58025  12.646   7.444   6.393
52043SOL    HW158026  12.583   7.404   6.333
52043SOL    HW258027  12.657   7.380   6.463
52044SOL     OW58028   3.274  12.966   3.924
52044SOL    HW158029   3.288  13.051   3.882
52044SOL    HW258030   3.269  12.904   3.851
52045SOL     OW58031   2.695  11.319   5.694
52045SOL    HW158032   2.764  11.253   5.686
52045SOL    HW258033   2.740  11.402   5.677
52046SOL     OW58034   4.167   2.998   1.942
52046SOL    HW158035   4.218   2.977   2.020
52046SOL    HW258036   4.115   2.920   1.926
52047SOL     OW58037  12.017  12.891   2.042
52047SOL    HW158038  11.964  12.902   1.963
52047SOL    HW258039  12.053  12.803   2.035
52048SOL     OW58040   3.713  14.248   4.042
52048SOL    HW158041   3.717  14.210   3.954
52048SOL    HW258042   3.734  14.176   4.101
52049SOL     OW58043   3.286  13.308   3.817
52049SOL    HW158044   3.224  13.334   3.749
52049SOL    HW258045   3.235  13.311   3.898
52050SOL     OW58046  12.949   5.947  12.125
52050SOL    HW158047  13.032   5.964  12.081
52050SOL    HW258048  12.888   6.009  12.086
52051SOL     OW58049  10.399  14.104   2.274
52051SOL    HW158050  10.325  14.120   2.215
52051SOL    HW258051  10.384  14.162   2.348
52052SOL     OW58052   6.682   0.594   2.157
52052SOL    HW158053   6.651   0.546   2.080
52052SOL    HW258054   6.645   0.681   2.148
52053SOL     OW58055   2.532  10.274   1.276
52053SOL    HW158056   2.544  10.179   1.267
52053SOL    HW258057   2.544  10.308   1.188
52054SOL     OW58058   9.333  12.660   2.389
52054SOL    HW158059   9.386  12.674   2.310
52054SOL    HW258060   9.277  12.737   2.394
52055SOL     OW58061   5.385  13.559   6.186
52055SOL    HW158062   5.477  13.539   6.166
52055SOL    HW258063   5.367  13.638   6.136
52056SOL     OW58064  13.296  12.198  12.561
52056SOL    HW158065  13.385  12.195  12.594
52056SOL    HW258066  13.249  12.133  12.613
52057SOL     OW58067   3.544   6.387   8.594
52057SOL    HW158068   3.552   6.450   8.522
52057SOL    HW258069   3.634   6.360   8.612
52058SOL     OW58070  13.000   6.458   5.478
52058SOL    HW158071  13.075   6.436   5.534
52058SOL    HW258072  13.020   6.546   5.446
52059SOL     OW58073   7.140  12.077  13.079
52059SOL    HW158074   7.133  12.014  13.151
52059SOL    HW258075   7.080  12.044  13.012
52060SOL     OW58076  14.093   0.925   8.254
52060SOL    HW158077  14.098   0.948   8.161
52060SOL    HW258078  14.152   0.851   8.264
52061SOL     OW58079   8.563  13.907  14.753
52061SOL    HW158080   8.571  13.971  14.681
52061SOL    HW258081   8.469  13.890  14.760
52062SOL     OW58082  13.686   4.561   3.043
52062SOL    HW158083  13.697   4.511   2.962
52062SOL    HW258084  13.608   4.524   3.085
52063SOL     OW58085  10.077   5.463  12.025
52063SOL    HW158086   9.986   5.479  12.002
52063SOL    HW258087  10.127   5.489  11.947
52064SOL     OW58088   9.000   2.875  14.655
52064SOL    HW158089   9.088   2.876  14.617
52064SOL    HW258090   8.941   2.880  14.579
52065SOL     OW58091   8.943   6.548   1.303
52065SOL    HW158092   8.967   6.474   1.247
52065SOL    HW258093   8.884   6.600   1.249
52066SOL     OW58094  13.757   8.317   8.445
52066SOL    HW158095  13.760   8.412   8.432
52066SOL    HW258096  13.747   8.281   8.357
52067SOL     OW58097  14.701   6.708  13.963
52067SOL    HW158098  14.651   6.764  14.023
52067SOL    HW258099  14.706   6.624  14.009
52068SOL     OW58100  10.678  11.880  14.136
52068SOL    HW158101  10.621  11.952  14.109
52068SOL    HW258102  10.620  11.816  14.175
52069SOL     OW58103   1.873   2.531   5.259
52069SOL    HW158104   1.945   2.575   5.303
52069SOL    HW258105   1.901   2.522   5.168
52070SOL     OW58106  12.249   3.469   6.312
52070SOL    HW158107  12.298   3.504   6.386
52070SOL    HW258108  12.309   3.477   6.238
52071SOL     OW58109  13.024   9.136   9.623
52071SOL    HW158110  12.993   9.139   9.532
52071SOL    HW258111  13.049   9.226   9.642
52072SOL     OW58112  13.720  10.856   1.014
52072SOL    HW158113  13.691  10.900   1.094
52072SOL    HW258114  13.644  10.861   0.955
52073SOL     OW58115  11.905   3.145   3.372
52073SOL    HW158116  11.983   3.196   3.396
52073SOL    HW258117  11.835   3.182   3.424
52074SOL     OW58118   2.068   6.500  11.770
52074SOL    HW158119   2.144   6.543  11.809
52074SOL    HW258120   2.072   6.410  11.801
52075SOL     OW58121   0.874   1.668   0.744
52075SOL    HW158122   0.967   1.650   0.731
52075SOL    HW258123   0.846   1.606   0.811
52076SOL     OW58124  13.596  11.475   5.091
52076SOL    HW158125  13.609  11.423   5.171
52076SOL    HW258126  13.502  11.465   5.072
52077SOL     OW58127   5.250   5.783  14.503
52077SOL    HW158128   5.281   5.724  14.572
52077SOL    HW258129   5.222   5.862  14.550
52078SOL     OW58130   0.579   3.704   3.910
52078SOL    HW158131   0.675   3.704   3.910
52078SOL    HW258132   0.555   3.725   4.000
52079SOL     OW58133  13.116   5.767   2.391
52079SOL    HW158134  13.122   5.827   2.466
52079SOL    HW258135  13.022   5.755   2.378
52080SOL     OW58136   9.417   3.214   5.965
52080SOL    HW158137   9.513   3.213   5.960
52080SOL    HW258138   9.394   3.306   5.953
52081SOL     OW58139   1.484   8.148  13.374
52081SOL    HW158140   1.440   8.184  13.297
52081SOL    HW258141   1.468   8.054  13.369
52082SOL     OW58142   1.351  13.638   5.427
52082SOL    HW158143   1.278  13.668   5.374
52082SOL    HW258144   1.356  13.544   5.410
52083SOL     OW58145  13.635  10.462   9.734
52083SOL    HW158146  13.667  10.534   9.788
52083SOL    HW258147  13.609  10.394   9.796
52084SOL     OW58148  12.161   7.249  10.477
52084SOL    HW158149  12.113   7.332  10.481
52084SOL    HW258150  12.093   7.184  10.460
52085SOL     OW58151   0.276   8.284   2.431
52085SOL    HW158152   0.230   8.362   2.460
52085SOL    HW258153   0.242   8.214   2.488
52086SOL     OW58154  12.663  14.467  14.031
52086SOL    HW158155  12.593  14.402  14.041
52086SOL    HW258156  12.646  14.532  14.099
52087SOL     OW58157   8.029   3.018  12.833
52087SOL    HW158158   7.960   3.018  12.900
52087SOL    HW258159   8.005   3.089  12.774
52088SOL     OW58160   4.028   2.713  11.671
52088SOL    HW158161   3.981   2.774  11.613
52088SOL    HW258162   4.120   2.728  11.651
52089SOL     OW58163  14.455   5.786  11.114
52089SOL    HW158164  14.431   5.872  11.079
52089SOL    HW258165  14.387   5.767  11.179
52090SOL     OW58166  13.031   4.841   4.307
52090SOL    HW158167  12.956   4.856   4.366
52090SOL    HW258168  13.013   4.897   4.231
52091SOL     OW58169  10.088   0.040   8.426
52091SOL    HW158170  10.155   0.105   8.447
52091SOL    HW258171  10.101  14.852   8.491
52092SOL     OW58172   9.486   9.791   0.493
52092SOL    HW158173   9.433   9.862   0.528
52092SOL    HW258174   9.497   9.730   0.566
52093SOL     OW58175   9.822  10.987   5.559
52093SOL    HW158176   9.802  11.080   5.573
52093SOL    HW258177   9.739  10.942   5.573
52094SOL     OW58178  11.032   6.064   5.348
52094SOL    HW158179  11.027   6.084   5.441
52094SOL    HW258180  10.963   5.999   5.334
52095SOL     OW58181   1.322  11.097   0.415
52095SOL    HW158182   1.295  11.109   0.323
52095SOL    HW258183   1.270  11.022   0.445
52096SOL     OW58184  14.732  10.299  12.613
52096SOL    HW158185  14.650  10.339  12.641
52096SOL    HW258186  14.706  10.216  12.574
52097SOL     OW58187   0.901  14.051   8.538
52097SOL    HW158188   0.994  14.039   8.555
52097SOL    HW258189   0.867  13.962   8.526
52098SOL     OW58190   3.277   6.926   8.371
52098SOL    HW158191   3.334   6.985   8.322
52098SOL    HW258192   3.220   6.887   8.304
52099SOL     OW58193   3.666   7.681  14.768
52099SOL    HW158194   3.588   7.729  14.741
52099SOL    HW258195   3.735   7.747  14.770
52100SOL     OW58196   5.725   4.023   6.647
52100SOL    HW158197   5.797   4.069   6.690
52100SOL    HW258198   5.647   4.050   6.694
52101SOL     OW58199  11.996  11.141   2.017
52101SOL    HW158200  11.989  11.046   2.005
52101SOL    HW258201  11.907  11.174   2.001
52102SOL     OW58202   8.810  14.240   2.704
52102SOL    HW158203   8.788  14.147   2.693
52102SOL    HW258204   8.779  14.261   2.793
52103SOL     OW58205  13.895   6.901  12.758
52103SOL    HW158206  13.877   6.961  12.830
52103SOL    HW258207  13.875   6.952  12.679
52104SOL     OW58208  14.491  12.620   7.719
52104SOL    HW158209  14.407  12.621   7.673
52104SOL    HW258210  14.492  12.700   7.771
52105SOL     OW58211   9.324   3.316   0.152
52105SOL    HW158212   9.258   3.349   0.090
52105SOL    HW258213   9.322   3.378   0.225
52106SOL     OW58214   5.800  14.501   2.390
52106SOL    HW158215   5.718  14.462   2.419
52106SOL    HW258216   5.825  14.560   2.462
52107SOL     OW58217   9.228   7.252  12.409
52107SOL    HW158218   9.255   7.268  12.500
52107SOL    HW258219   9.135   7.271  12.408
52108SOL     OW58220   2.861   6.099  10.144
52108SOL    HW158221   2.904   6.033  10.090
52108SOL    HW258222   2.776   6.061  10.167
52109SOL     OW58223  13.980  14.308   5.143
52109SOL    HW158224  13.961  14.397   5.172
52109SOL    HW258225  14.069  14.292   5.172
52110SOL     OW58226  13.133   4.011  13.172
52110SOL    HW158227  13.207   3.950  13.174
52110SOL    HW258228  13.062   3.964  13.217
52111SOL     OW58229   3.640  11.821   5.029
52111SOL    HW158230   3.667  11.729   5.034
52111SOL    HW258231   3.580  11.832   5.103
52112SOL     OW58232   3.979   3.187   1.910
52112SOL    HW158233   4.043   3.120   1.933
52112SOL    HW258234   4.008   3.264   1.959
52113SOL     OW58235   0.173   9.615  12.868
52113SOL    HW158236   0.160   9.690  12.811
52113SOL    HW258237   0.144   9.645  12.954
52114SOL     OW58238  11.317  12.010  10.445
52114SOL    HW158239  11.301  12.105  10.453
52114SOL    HW258240  11.374  12.002  10.369
52115SOL     OW58241   9.896  13.879   2.536
52115SOL    HW158242   9.848  13.874   2.453
52115SOL    HW258243   9.987  13.895   2.509
52116SOL     OW58244   6.299   4.564  13.885
52116SOL    HW158245   6.240   4.520  13.824
52116SOL    HW258246   6.266   4.653  13.891
52117SOL     OW58247   3.480   5.310   1.855
52117SOL    HW158248   3.432   5.353   1.784
52117SOL    HW258249   3.540   5.377   1.888
52118SOL     OW58250   5.286   1.825  10.107
52118SOL    HW158251   5.350   1.763  10.143
52118SOL    HW258252   5.245   1.864  10.184
52119SOL     OW58253   0.473   8.802   1.618
52119SOL    HW158254   0.489   8.748   1.695
52119SOL    HW258255   0.518   8.757   1.547
52120SOL     OW58256  12.817  14.783  14.737
52120SOL    HW158257  12.889  14.783  14.800
52120SOL    HW258258  12.750  14.729  14.778
52121SOL     OW58259  14.223   9.125  12.384
52121SOL    HW158260  14.270   9.126  12.300
52121SOL    HW258261  14.134   9.154  12.362
52122SOL     OW58262  11.379  14.000   0.879
52122SOL    HW158263  11.362  14.032   0.791
52122SOL    HW258264  11.456  13.945   0.870
52123SOL     OW58265   6.819   7.340   8.171
52123SOL    HW158266   6.823   7.343   8.266
52123SOL    HW258267   6.908   7.361   8.142
52124SOL     OW58268   2.652   7.493   9.135
52124SOL    HW158269   2.737   7.464   9.167
52124SOL    HW258270   2.651   7.588   9.150
52125SOL     OW58271   2.497  13.508   2.885
52125SOL    HW158272   2.501  13.432   2.943
52125SOL    HW258273   2.448  13.573   2.934
52126SOL     OW58274   2.787   0.370   6.702
52126SOL    HW158275   2.792   0.363   6.797
52126SOL    HW258276   2.708   0.320   6.678
52127SOL     OW58277   3.075  12.498  13.667
52127SOL    HW158278   3.080  12.593  13.676
52127SOL    HW258279   3.116  12.479  13.582
52128SOL     OW58280  12.290  12.600  12.080
52128SOL    HW158281  12.294  12.604  11.984
52128SOL    HW258282  12.299  12.691  12.108
52129SOL     OW58283  14.266   7.101  10.229
52129SOL    HW158284  14.183   7.075  10.190
52129SOL    HW258285  14.243   7.165  10.296
52130SOL     OW58286  13.667  13.158   2.669
52130SOL    HW158287  13.670  13.119   2.757
52130SOL    HW258288  13.618  13.239   2.681
52131SOL     OW58289   5.388   0.127   3.879
52131SOL    HW158290   5.375   0.179   3.800
52131SOL    HW258291   5.467   0.075   3.861
52132SOL     OW58292   2.357   9.818   5.122
52132SOL    HW158293   2.419   9.749   5.146
52132SOL    HW258294   2.405   9.900   5.136
52133SOL     OW58295   7.982   6.130   3.690
52133SOL    HW158296   7.936   6.212   3.671
52133SOL    HW258297   8.016   6.101   3.606
52134SOL     OW58298  12.943   3.605  14.251
52134SOL    HW158299  12.871   3.607  14.314
52134SOL    HW258300  13.008   3.665  14.287
52135SOL     OW58301   8.707   0.631   4.253
52135SOL    HW158302   8.680   0.603   4.341
52135SOL    HW258303   8.667   0.568   4.194
52136SOL     OW58304  14.215   6.235   9.260
52136SOL    HW158305  14.278   6.215   9.329
52136SOL    HW258306  14.268   6.241   9.180
52137SOL     OW58307   3.390  11.812   0.209
52137SOL    HW158308   3.475  11.800   0.166
52137SOL    HW258309   3.326  11.799   0.139
52138SOL     OW58310  10.744   0.121   1.733
52138SOL    HW158311  10.767   0.193   1.792
52138SOL    HW258312  10.803   0.050   1.756
52139SOL     OW58313   3.798   8.281   5.732
52139SOL    HW158314   3.828   8.217   5.796
52139SOL    HW258315   3.840   8.363   5.759
52140SOL     OW58316  13.934  13.003  13.568
52140SOL    HW158317  13.933  12.920  13.519
52140SOL    HW258318  13.884  12.985  13.648
52141SOL     OW58319  13.330   6.565   9.585
52141SOL    HW158320  13.256   6.604   9.539
52141SOL    HW258321  13.396   6.634   9.588
52142SOL     OW58322   7.111  13.669   3.558
52142SOL    HW158323   7.031  13.710   3.525
52142SOL    HW258324   7.171  13.670   3.483
52143SOL     OW58325   2.923   0.432   9.562
52143SOL    HW158326   2.871   0.468   9.490
52143SOL    HW258327   2.968   0.508   9.600
52144SOL     OW58328  12.380   5.028  14.112
52144SOL    HW158329  12.410   4.995  14.197
52144SOL    HW258330  12.292   4.992  14.102
52145SOL     OW58331   1.807   4.186  12.883
52145SOL    HW158332   1.775   4.267  12.841
52145SOL    HW258333   1.825   4.127  12.810
52146SOL     OW58334  14.753   7.959   4.684
52146SOL    HW158335  14.736   8.006   4.602
52146SOL    HW258336  14.812   7.888   4.659
52147SOL     OW58337  11.439   4.416   7.892
52147SOL    HW158338  11.401   4.426   7.980
52147SOL    HW258339  11.492   4.336   7.898
52148SOL     OW58340   6.219   9.938  12.748
52148SOL    HW158341   6.150   9.919  12.811
52148SOL    HW258342   6.217  10.033  12.737
52149SOL     OW58343   9.946  13.860   0.597
52149SOL    HW158344   9.975  13.923   0.663
52149SOL    HW258345   9.939  13.778   0.645
52150SOL     OW58346   1.024  11.783   6.894
52150SOL    HW158347   1.076  11.714   6.935
52150SOL    HW258348   0.984  11.741   6.818
52151SOL     OW58349   8.490  10.468  11.130
52151SOL    HW158350   8.403  10.431  11.145
52151SOL    HW258351   8.506  10.524  11.205
52152SOL     OW58352   6.319  12.787   1.696
52152SOL    HW158353   6.349  12.721   1.633
52152SOL    HW258354   6.235  12.755   1.726
52153SOL     OW58355   1.433   8.364   3.750
52153SOL    HW158356   1.522   8.339   3.775
52153SOL    HW258357   1.377   8.321   3.814
52154SOL     OW58358   9.075  12.511  13.177
52154SOL    HW158359   9.059  12.417  13.169
52154SOL    HW258360   9.112  12.522  13.264
52155SOL     OW58361  11.457   2.779   2.551
52155SOL    HW158362  11.547   2.749   2.540
52155SOL    HW258363  11.404   2.711   2.509
52156SOL     OW58364   9.250   4.968  13.232
52156SOL    HW158365   9.189   4.897  13.214
52156SOL    HW258366   9.260   5.013  13.148
52157SOL     OW58367   0.915   2.298   2.305
52157SOL    HW158368   0.934   2.263   2.217
52157SOL    HW258369   0.969   2.245   2.364
52158SOL     OW58370  10.796   8.053   2.486
52158SOL    HW158371  10.801   8.147   2.474
52158SOL    HW258372  10.883   8.028   2.516
52159SOL     OW58373  11.864   5.414  10.495
52159SOL    HW158374  11.836   5.426  10.404
52159SOL    HW258375  11.783   5.420  10.546
52160SOL     OW58376   5.531   0.046   4.178
52160SOL    HW158377   5.598   0.074   4.240
52160SOL    HW258378   5.575   0.045   4.093
52161SOL     OW58379   6.770   4.150   9.411
52161SOL    HW158380   6.721   4.068   9.410
52161SOL    HW258381   6.749   4.189   9.495
52162SOL     OW58382   8.907   3.997   8.807
52162SOL    HW158383   8.952   4.080   8.791
52162SOL    HW258384   8.900   3.957   8.720
52163SOL     OW58385   2.869   4.315  13.034
52163SOL    HW158386   2.833   4.311  12.945
52163SOL    HW258387   2.818   4.249  13.082
52164SOL     OW58388  13.145  12.427   8.694
52164SOL    HW158389  13.112  12.465   8.612
52164SOL    HW258390  13.078  12.364   8.719
52165SOL     OW58391   5.969   7.959  12.390
52165SOL    HW158392   5.964   8.045  12.433
52165SOL    HW258393   5.993   7.899  12.461
52166SOL     OW58394   4.860  12.543   0.564
52166SOL    HW158395   4.831  12.531   0.654
52166SOL    HW258396   4.853  12.637   0.549
52167SOL     OW58397   5.004  10.964  14.638
52167SOL    HW158398   4.980  10.967  14.731
52167SOL    HW258399   5.047  10.880  14.627
52168SOL     OW58400   7.796  13.766   4.663
52168SOL    HW158401   7.885  13.734   4.676
52168SOL    HW258402   7.752  13.749   4.747
52169SOL     OW58403   2.210   0.804   5.490
52169SOL    HW158404   2.224   0.716   5.455
52169SOL    HW258405   2.255   0.805   5.574
52170SOL     OW58406   1.986  12.067  13.264
52170SOL    HW158407   1.946  12.007  13.202
52170SOL    HW258408   1.958  12.035  13.350
52171SOL     OW58409   4.092  14.072   8.369
52171SOL    HW158410   4.151  14.132   8.324
52171SOL    HW258411   4.035  14.038   8.300
52172SOL     OW58412   7.549   3.918   5.406
52172SOL    HW158413   7.542   3.854   5.336
52172SOL    HW258414   7.545   4.003   5.362
52173SOL     OW58415   8.600   8.939  10.295
52173SOL    HW158416   8.652   8.879  10.349
52173SOL    HW258417   8.520   8.890  10.276
52174SOL     OW58418   5.223   0.077  11.539
52174SOL    HW158419   5.169   0.064  11.462
52174SOL    HW258420   5.177   0.144  11.590
52175SOL     OW58421   4.024   1.229  14.642
52175SOL    HW158422   3.999   1.159  14.581
52175SOL    HW258423   3.974   1.305  14.613
52176SOL     OW58424  14.161   6.986  14.338
52176SOL    HW158425  14.186   6.894  14.343
52176SOL    HW258426  14.159   7.016  14.429
52177SOL     OW58427  12.364   2.869   8.181
52177SOL    HW158428  12.412   2.952   8.190
52177SOL    HW258429  12.273   2.896   8.169
52178SOL     OW58430   5.352  13.619  10.132
52178SOL    HW158431   5.393  13.567  10.064
52178SOL    HW258432   5.272  13.570  10.154
52179SOL     OW58433   4.745  10.708  12.692
52179SOL    HW158434   4.834  10.685  12.719
52179SOL    HW258435   4.756  10.761  12.613
52180SOL     OW58436  13.673  13.997   1.138
52180SOL    HW158437  13.577  13.993   1.142
52180SOL    HW258438  13.699  13.910   1.109
52181SOL     OW58439   3.006   6.788  13.851
52181SOL    HW158440   2.967   6.710  13.811
52181SOL    HW258441   3.031   6.761  13.939
52182SOL     OW58442   9.448   4.816  10.010
52182SOL    HW158443   9.498   4.845  10.086
52182SOL    HW258444   9.440   4.893   9.955
52183SOL     OW58445  11.326  14.296  13.407
52183SOL    HW158446  11.304  14.208  13.439
52183SOL    HW258447  11.327  14.350  13.486
52184SOL     OW58448   9.539   3.656   0.246
52184SOL    HW158449   9.479   3.582   0.235
52184SOL    HW258450   9.626   3.617   0.244
52185SOL     OW58451   9.429   4.841   1.254
52185SOL    HW158452   9.499   4.787   1.219
52185SOL    HW258453   9.445   4.928   1.218
52186SOL     OW58454  13.566   7.579   6.467
52186SOL    HW158455  13.506   7.513   6.504
52186SOL    HW258456  13.635   7.587   6.532
52187SOL     OW58457   6.492   5.673   4.985
52187SOL    HW158458   6.561   5.674   5.051
52187SOL    HW258459   6.420   5.723   5.024
52188SOL     OW58460   2.119   5.588   2.847
52188SOL    HW158461   2.084   5.548   2.927
52188SOL    HW258462   2.043   5.631   2.806
52189SOL     OW58463  11.941   9.687   3.653
52189SOL    HW158464  12.029   9.694   3.615
52189SOL    HW258465  11.936   9.598   3.687
52190SOL     OW58466   7.106   9.026   6.102
52190SOL    HW158467   7.018   9.045   6.133
52190SOL    HW258468   7.129   8.942   6.143
52191SOL     OW58469   1.893  14.791  13.775
52191SOL    HW158470   1.921  14.804  13.866
52191SOL    HW258471   1.884  14.880  13.740
52192SOL     OW58472   9.995   1.239   1.021
52192SOL    HW158473  10.048   1.318   1.010
52192SOL    HW258474  10.044   1.185   1.083
52193SOL     OW58475   5.287  14.289   1.498
52193SOL    HW158476   5.358  14.225   1.490
52193SOL    HW258477   5.220  14.258   1.437
52194SOL     OW58478   3.389  12.990   6.396
52194SOL    HW158479   3.452  12.950   6.336
52194SOL    HW258480   3.372  13.077   6.360
52195SOL     OW58481   6.700  12.621   0.542
52195SOL    HW158482   6.738  12.699   0.583
52195SOL    HW258483   6.733  12.548   0.595
52196SOL     OW58484   4.328   7.238   3.846
52196SOL    HW158485   4.275   7.306   3.888
52196SOL    HW258486   4.373   7.283   3.775
52197SOL     OW58487  11.814   3.164  13.900
52197SOL    HW158488  11.792   3.078  13.863
52197SOL    HW258489  11.815   3.223  13.825
52198SOL     OW58490   3.162  14.316  14.807
52198SOL    HW158491   3.071  14.346  14.799
52198SOL    HW258492   3.210  14.369  14.744
52199SOL     OW58493  11.120  12.133   2.019
52199SOL    HW158494  11.062  12.136   2.095
52199SOL    HW258495  11.061  12.131   1.944
52200SOL     OW58496   7.800   7.870   0.528
52200SOL    HW158497   7.832   7.799   0.471
52200SOL    HW258498   7.742   7.826   0.590
52201SOL     OW58499  14.448   5.898  14.484
52201SOL    HW158500  14.357   5.890  14.458
52201SOL    HW258501  14.484   5.966  14.426
52202SOL     OW58502   5.204   4.044   9.888
52202SOL    HW158503   5.239   4.017   9.973
52202SOL    HW258504   5.275   4.025   9.827
52203SOL     OW58505   9.534  11.241   0.139
52203SOL    HW158506   9.459  11.181   0.143
52203SOL    HW258507   9.531  11.289   0.221
52204SOL     OW58508   8.477   2.148  12.815
52204SOL    HW158509   8.561   2.193  12.802
52204SOL    HW258510   8.501   2.060  12.844
52205SOL     OW58511  10.361   0.704   4.218
52205SOL    HW158512  10.434   0.646   4.239
52205SOL    HW258513  10.352   0.698   4.123
52206SOL     OW58514   6.530   7.106   8.930
52206SOL    HW158515   6.491   7.052   8.998
52206SOL    HW258516   6.520   7.196   8.963
52207SOL     OW58517   5.957  12.605   9.815
52207SOL    HW158518   6.001  12.634   9.894
52207SOL    HW258519   5.874  12.654   9.814
52208SOL     OW58520  14.198   5.387   8.193
52208SOL    HW158521  14.292   5.382   8.174
52208SOL    HW258522  14.163   5.306   8.156
52209SOL     OW58523  11.908   8.805   3.021
52209SOL    HW158524  11.903   8.845   2.934
52209SOL    HW258525  11.993   8.762   3.023
52210SOL     OW58526   6.454   1.780   4.526
52210SOL    HW158527   6.516   1.824   4.585
52210SOL    HW258528   6.388   1.846   4.507
52211SOL     OW58529   9.841   1.736  14.292
52211SOL    HW158530   9.935   1.716  14.291
52211SOL    HW258531   9.798   1.651  14.283
52212SOL     OW58532   5.159   7.976   7.141
52212SOL    HW158533   5.193   7.973   7.230
52212SOL    HW258534   5.200   8.054   7.102
52213SOL     OW58535   1.278   3.141   9.966
52213SOL    HW158536   1.294   3.130  10.060
52213SOL    HW258537   1.314   3.061   9.927
52214SOL     OW58538   0.627   6.176   6.260
52214SOL    HW158539   0.716   6.164   6.293
52214SOL    HW258540   0.571   6.148   6.332
52215SOL     OW58541   5.572   4.457   0.523
52215SOL    HW158542   5.588   4.363   0.538
52215SOL    HW258543   5.516   4.484   0.596
52216SOL     OW58544   9.391  13.796   2.925
52216SOL    HW158545   9.440  13.805   2.843
52216SOL    HW258546   9.340  13.716   2.914
52217SOL     OW58547  10.149   6.251   7.028
52217SOL    HW158548  10.241   6.244   7.053
52217SOL    HW258549  10.112   6.166   7.050
52218SOL     OW58550   3.481   5.919   5.041
52218SOL    HW158551   3.477   6.006   5.003
52218SOL    HW258552   3.395   5.881   5.023
52219SOL     OW58553  14.647   1.120   5.526
52219SOL    HW158554  14.624   1.185   5.459
52219SOL    HW258555  14.574   1.058   5.526
52220SOL     OW58556  14.625   5.864   4.854
52220SOL    HW158557  14.634   5.952   4.891
52220SOL    HW258558  14.586   5.812   4.925
52221SOL     OW58559   9.554   5.499   7.232
52221SOL    HW158560   9.575   5.456   7.315
52221SOL    HW258561   9.548   5.427   7.169
52222SOL     OW58562  12.387   6.764   0.839
52222SOL    HW158563  12.376   6.849   0.796
52222SOL    HW258564  12.452   6.780   0.907
52223SOL     OW58565   6.597   9.893  13.020
52223SOL    HW158566   6.554   9.811  13.047
52223SOL    HW258567   6.556   9.914  12.936
52224SOL     OW58568  13.218   6.606  12.676
52224SOL    HW158569  13.177   6.675  12.622
52224SOL    HW258570  13.239   6.650  12.758
52225SOL     OW58571   2.667   7.752   6.718
52225SOL    HW158572   2.675   7.680   6.780
52225SOL    HW258573   2.719   7.823   6.755
52226SOL     OW58574   7.512   2.959  11.728
52226SOL    HW158575   7.578   3.010  11.774
52226SOL    HW258576   7.437   2.957  11.788
52227SOL     OW58577   2.258   6.005  11.332
52227SOL    HW158578   2.251   6.100  11.337
52227SOL    HW258579   2.232   5.974  11.419
52228SOL     OW58580   2.711   7.268   8.284
52228SOL    HW158581   2.657   7.189   8.287
52228SOL    HW258582   2.781   7.252   8.348
52229SOL     OW58583   0.808  14.363  14.101
52229SOL    HW158584   0.777  14.283  14.144
52229SOL    HW258585   0.729  14.415  14.088
52230SOL     OW58586   3.201  11.412  14.317
52230SOL    HW158587   3.167  11.379  14.400
52230SOL    HW258588   3.175  11.505  14.316
52231SOL     OW58589   2.904   7.094  10.403
52231SOL    HW158590   2.972   7.052  10.456
52231SOL    HW258591   2.916   7.056  10.316
52232SOL     OW58592   8.430  14.013   4.470
52232SOL    HW158593   8.396  13.925   4.484
52232SOL    HW258594   8.522  14.001   4.449
52233SOL     OW58595  12.060  13.218   4.258
52233SOL    HW158596  12.052  13.125   4.239
52233SOL    HW258597  12.064  13.223   4.354
52234SOL     OW58598   1.875   1.961  11.942
52234SOL    HW158599   1.891   1.867  11.933
52234SOL    HW258600   1.839   1.987  11.857
52235SOL     OW58601   9.891  12.725  13.312
52235SOL    HW158602   9.814  12.727  13.256
52235SOL    HW258603   9.962  12.695  13.255
52236SOL     OW58604   7.065   9.472   4.595
52236SOL    HW158605   7.129   9.542   4.604
52236SOL    HW258606   7.074   9.420   4.676
52237SOL     OW58607  13.325   9.450   9.722
52237SOL    HW158608  13.385   9.522   9.704
52237SOL    HW258609  13.328   9.441   9.818
52238SOL     OW58610   6.850  10.122   8.627
52238SOL    HW158611   6.902  10.140   8.549
52238SOL    HW258612   6.899  10.055   8.674
52239SOL     OW58613   1.378   6.809  10.182
52239SOL    HW158614   1.442   6.743  10.154
52239SOL    HW258615   1.430   6.875  10.227
52240SOL     OW58616   2.996  14.126   5.599
52240SOL    HW158617   2.924  14.190   5.595
52240SOL    HW258618   2.994  14.083   5.513
52241SOL     OW58619   9.024   0.848  11.283
52241SOL    HW158620   9.080   0.877  11.356
52241SOL    HW258621   9.012   0.927  11.230
52242SOL     OW58622   3.906  14.466  12.542
52242SOL    HW158623   3.989  14.505  12.568
52242SOL    HW258624   3.867  14.436  12.624
52243SOL     OW58625   3.515  13.470   9.984
52243SOL    HW158626   3.505  13.543   9.921
52243SOL    HW258627   3.603  13.482  10.021
52244SOL     OW58628  13.550   0.047   1.425
52244SOL    HW158629  13.524  14.848   1.381
52244SOL    HW258630  13.534   0.029   1.518
52245SOL     OW58631   4.919   9.454   7.394
52245SOL    HW158632   4.902   9.505   7.315
52245SOL    HW258633   4.901   9.363   7.368
52246SOL     OW58634  10.423   7.675   6.298
52246SOL    HW158635  10.420   7.696   6.205
52246SOL    HW258636  10.339   7.706   6.332
52247SOL     OW58637   5.610  12.064   2.583
52247SOL    HW158638   5.587  11.972   2.568
52247SOL    HW258639   5.700  12.072   2.551
52248SOL     OW58640  12.435   0.440  10.439
52248SOL    HW158641  12.527   0.467  10.449
52248SOL    HW258642  12.391   0.518  10.407
52249SOL     OW58643   0.609   3.829  10.756
52249SOL    HW158644   0.657   3.892  10.702
52249SOL    HW258645   0.564   3.773  10.694
52250SOL     OW58646   4.949  14.322   9.906
52250SOL    HW158647   5.016  14.254   9.906
52250SOL    HW258648   4.869  14.276   9.881
52251SOL     OW58649   7.359   7.548   9.642
52251SOL    HW158650   7.413   7.586   9.573
52251SOL    HW258651   7.415   7.546   9.719
52252SOL     OW58652   5.172   4.505  11.913
52252SOL    HW158653   5.213   4.591  11.928
52252SOL    HW258654   5.087   4.525  11.874
52253SOL     OW58655  10.344  12.466  14.521
52253SOL    HW158656  10.334  12.423  14.606
52253SOL    HW258657  10.414  12.530  14.535
52254SOL     OW58658   3.420   6.960   6.780
52254SOL    HW158659   3.515   6.968   6.780
52254SOL    HW258660   3.388   7.050   6.771
52255SOL     OW58661   1.520   4.749  14.378
52255SOL    HW158662   1.475   4.681  14.428
52255SOL    HW258663   1.520   4.716  14.288
52256SOL     OW58664   6.545   1.955   5.786
52256SOL    HW158665   6.598   1.958   5.866
52256SOL    HW258666   6.608   1.957   5.715
52257SOL     OW58667   9.193  11.988   3.868
52257SOL    HW158668   9.133  12.003   3.940
52257SOL    HW258669   9.151  12.029   3.792
52258SOL     OW58670   4.182  11.580  14.257
52258SOL    HW158671   4.190  11.508  14.194
52258SOL    HW258672   4.265  11.626  14.251
52259SOL     OW58673   9.511   8.802   3.106
52259SOL    HW158674   9.448   8.873   3.112
52259SOL    HW258675   9.557   8.804   3.190
52260SOL     OW58676   5.016   5.356   1.136
52260SOL    HW158677   5.093   5.299   1.145
52260SOL    HW258678   5.002   5.391   1.224
52261SOL     OW58679   2.624  13.851   8.098
52261SOL    HW158680   2.568  13.908   8.150
52261SOL    HW258681   2.713  13.879   8.119
52262SOL     OW58682   6.949   8.288   7.640
52262SOL    HW158683   7.033   8.335   7.632
52262SOL    HW258684   6.892   8.350   7.685
52263SOL     OW58685   1.186   5.275   0.736
52263SOL    HW158686   1.261   5.215   0.739
52263SOL    HW258687   1.110   5.218   0.750
52264SOL     OW58688   6.510   9.071   4.570
52264SOL    HW158689   6.471   9.004   4.626
52264SOL    HW258690   6.604   9.053   4.573
52265SOL     OW58691  10.260   4.885   9.435
52265SOL    HW158692  10.204   4.923   9.368
52265SOL    HW258693  10.348   4.889   9.398
52266SOL     OW58694   7.878   1.697   9.004
52266SOL    HW158695   7.845   1.732   8.922
52266SOL    HW258696   7.817   1.626   9.026
52267SOL     OW58697   7.019   3.781   1.963
52267SOL    HW158698   7.058   3.795   1.876
52267SOL    HW258699   6.931   3.817   1.956
52268SOL     OW58700  13.528   4.325   3.971
52268SOL    HW158701  13.552   4.333   3.879
52268SOL    HW258702  13.472   4.401   3.988
52269SOL     OW58703  12.998  14.881   0.032
52269SOL    HW158704  12.938   0.050  14.858
52269SOL    HW258705  13.085   0.017  14.879
52270SOL     OW58706  10.082   6.920   5.780
52270SOL    HW158707  10.125   7.002   5.801
52270SOL    HW258708  10.006   6.945   5.727
52271SOL     OW58709   9.489  12.347  13.071
52271SOL    HW158710   9.541  12.408  13.019
52271SOL    HW258711   9.543  12.330  13.148
52272SOL     OW58712   3.652   9.288   0.701
52272SOL    HW158713   3.747   9.281   0.698
52272SOL    HW258714   3.620   9.213   0.650
52273SOL     OW58715   3.895   8.394   8.346
52273SOL    HW158716   3.863   8.402   8.256
52273SOL    HW258717   3.960   8.464   8.354
52274SOL     OW58718   0.987   5.909  14.749
52274SOL    HW158719   1.016   5.951  14.668
52274SOL    HW258720   1.068   5.878  14.790
52275SOL     OW58721   8.532   2.903   9.587
52275SOL    HW158722   8.457   2.854   9.553
52275SOL    HW258723   8.494   2.983   9.622
52276SOL     OW58724  11.728  11.171   5.600
52276SOL    HW158725  11.659  11.234   5.583
52276SOL    HW258726  11.693  11.088   5.567
52277SOL     OW58727   5.972  12.749   5.247
52277SOL    HW158728   6.008  12.741   5.335
52277SOL    HW258729   5.957  12.659   5.218
52278SOL     OW58730   1.059   8.309   0.243
52278SOL    HW158731   0.968   8.305   0.273
52278SOL    HW258732   1.065   8.392   0.197
52279SOL     OW58733   6.381   0.564  14.446
52279SOL    HW158734   6.414   0.536  14.532
52279SOL    HW258735   6.458   0.565  14.390
52280SOL     OW58736   3.407   7.499   2.270
52280SOL    HW158737   3.434   7.424   2.217
52280SOL    HW258738   3.448   7.485   2.355
52281SOL     OW58739  14.584  11.451   9.387
52281SOL    HW158740  14.648  11.408   9.330
52281SOL    HW258741  14.505  11.458   9.334
52282SOL     OW58742   2.466  12.445   0.659
52282SOL    HW158743   2.401  12.382   0.688
52282SOL    HW258744   2.500  12.409   0.577
52283SOL     OW58745   6.502  13.243   8.360
52283SOL    HW158746   6.568  13.291   8.411
52283SOL    HW258747   6.494  13.159   8.404
52284SOL     OW58748   2.703   3.293   4.119
52284SOL    HW158749   2.786   3.282   4.073
52284SOL    HW258750   2.727   3.326   4.205
52285SOL     OW58751   5.647   5.347  14.226
52285SOL    HW158752   5.562   5.354  14.269
52285SOL    HW258753   5.702   5.300  14.288
52286SOL     OW58754   7.490   7.959  10.152
52286SOL    HW158755   7.464   7.915  10.233
52286SOL    HW258756   7.579   7.927  10.135
52287SOL     OW58757   9.031  14.821   6.032
52287SOL    HW158758   8.983   0.022   6.042
52287SOL    HW258759   9.103  14.829   6.094
52288SOL     OW58760   6.470  13.533   5.106
52288SOL    HW158761   6.565  13.517   5.110
52288SOL    HW258762   6.458  13.584   5.026
52289SOL     OW58763   1.979   3.374   7.346
52289SOL    HW158764   1.922   3.302   7.373
52289SOL    HW258765   2.039   3.335   7.283
52290SOL     OW58766   7.572  11.393   0.054
52290SOL    HW158767   7.486  11.352   0.051
52290SOL    HW258768   7.634  11.323   0.033
52291SOL     OW58769  11.406   5.457   0.401
52291SOL    HW158770  11.456   5.528   0.441
52291SOL    HW258771  11.447   5.443   0.316
52292SOL     OW58772  11.206   8.247   1.774
52292SOL    HW158773  11.266   8.174   1.769
52292SOL    HW258774  11.198   8.267   1.867
52293SOL     OW58775   9.212   2.744   4.652
52293SOL    HW158776   9.231   2.753   4.746
52293SOL    HW258777   9.183   2.831   4.625
52294SOL     OW58778   1.692   4.202  10.827
52294SOL    HW158779   1.705   4.107  10.831
52294SOL    HW258780   1.667   4.219  10.736
52295SOL     OW58781  10.311  10.133   4.533
52295SOL    HW158782  10.367  10.178   4.596
52295SOL    HW258783  10.323  10.040   4.552
52296SOL     OW58784   4.704   7.416  10.100
52296SOL    HW158785   4.701   7.346  10.035
52296SOL    HW258786   4.750   7.488  10.056
52297SOL     OW58787   3.070   6.882  10.894
52297SOL    HW158788   2.998   6.876  10.957
52297SOL    HW258789   3.133   6.817  10.924
52298SOL     OW58790   2.595   4.041   6.188
52298SOL    HW158791   2.644   4.017   6.267
52298SOL    HW258792   2.517   3.985   6.190
52299SOL     OW58793   1.670   3.619  11.012
52299SOL    HW158794   1.692   3.555  10.943
52299SOL    HW258795   1.653   3.565  11.090
52300SOL     OW58796   7.915  11.374   3.778
52300SOL    HW158797   7.962  11.354   3.859
52300SOL    HW258798   7.838  11.316   3.780
52301SOL     OW58799  13.454  10.167   4.565
52301SOL    HW158800  13.545  10.196   4.567
52301SOL    HW258801  13.404  10.245   4.542
52302SOL     OW58802   4.796   2.113   3.134
52302SOL    HW158803   4.850   2.174   3.083
52302SOL    HW258804   4.860   2.056   3.178
52303SOL     OW58805   9.764  10.431   3.020
52303SOL    HW158806   9.827  10.490   2.979
52303SOL    HW258807   9.763  10.354   2.964
52304SOL     OW58808   9.056   8.080  11.011
52304SOL    HW158809   9.068   8.019  11.084
52304SOL    HW258810   9.100   8.037  10.937
52305SOL     OW58811   9.496   0.440   6.478
52305SOL    HW158812   9.469   0.532   6.474
52305SOL    HW258813   9.414   0.392   6.469
52306SOL     OW58814   2.876  10.059   4.425
52306SOL    HW158815   2.861  10.093   4.513
52306SOL    HW258816   2.967  10.027   4.427
52307SOL     OW58817   6.139   7.399   7.012
52307SOL    HW158818   6.127   7.313   7.052
52307SOL    HW258819   6.224   7.429   7.044
52308SOL     OW58820  13.503   7.516  10.537
52308SOL    HW158821  13.462   7.491  10.619
52308SOL    HW258822  13.479   7.608  10.526
52309SOL     OW58823  10.770   1.549  11.650
52309SOL    HW158824  10.721   1.612  11.702
52309SOL    HW258825  10.765   1.467  11.699
52310SOL     OW58826   1.066   4.343   1.377
52310SOL    HW158827   0.978   4.315   1.354
52310SOL    HW258828   1.054   4.429   1.416
52311SOL     OW58829  12.080  14.327   8.175
52311SOL    HW158830  12.114  14.293   8.257
52311SOL    HW258831  12.011  14.265   8.149
52312SOL     OW58832  13.678  10.905  12.785
52312SOL    HW158833  13.692  10.848  12.860
52312SOL    HW258834  13.758  10.899  12.734
52313SOL     OW58835   9.767  12.954   1.935
52313SOL    HW158836   9.769  13.008   2.015
52313SOL    HW258837   9.717  13.007   1.873
52314SOL     OW58838  12.702   3.647  10.774
52314SOL    HW158839  12.796   3.649  10.760
52314SOL    HW258840  12.678   3.738  10.788
52315SOL     OW58841   1.128   1.031   7.596
52315SOL    HW158842   1.111   1.001   7.506
52315SOL    HW258843   1.154   0.953   7.643
52316SOL     OW58844   2.660  12.623   6.692
52316SOL    HW158845   2.673  12.552   6.628
52316SOL    HW258846   2.691  12.586   6.774
52317SOL     OW58847  10.981  11.490   7.882
52317SOL    HW158848  11.002  11.439   7.804
52317SOL    HW258849  10.892  11.461   7.906
52318SOL     OW58850   9.603   6.179   0.540
52318SOL    HW158851   9.658   6.188   0.617
52318SOL    HW258852   9.537   6.248   0.550
52319SOL     OW58853   7.664   8.181   3.663
52319SOL    HW158854   7.656   8.091   3.633
52319SOL    HW258855   7.734   8.218   3.608
52320SOL     OW58856   0.395   7.937  10.229
52320SOL    HW158857   0.411   7.941  10.134
52320SOL    HW258858   0.367   7.847  10.245
52321SOL     OW58859  13.298  12.062   5.933
52321SOL    HW158860  13.360  12.122   5.892
52321SOL    HW258861  13.333  11.975   5.915
52322SOL     OW58862   8.333  13.417   0.730
52322SOL    HW158863   8.375  13.331   0.732
52322SOL    HW258864   8.272  13.415   0.804
52323SOL     OW58865  14.019   3.485   3.001
52323SOL    HW158866  13.979   3.406   3.036
52323SOL    HW258867  14.033   3.465   2.908
52324SOL     OW58868   5.744  10.544   5.083
52324SOL    HW158869   5.669  10.599   5.105
52324SOL    HW258870   5.706  10.473   5.030
52325SOL     OW58871   5.469   0.257  14.442
52325SOL    HW158872   5.508   0.223  14.361
52325SOL    HW258873   5.525   0.224  14.511
52326SOL     OW58874   6.592   7.059   6.568
52326SOL    HW158875   6.562   6.984   6.517
52326SOL    HW258876   6.594   7.132   6.506
52327SOL     OW58877   4.345   5.248   5.348
52327SOL    HW158878   4.314   5.338   5.340
52327SOL    HW258879   4.277   5.195   5.306
52328SOL     OW58880   2.039   1.348   5.155
52328SOL    HW158881   2.096   1.397   5.096
52328SOL    HW258882   1.961   1.402   5.164
52329SOL     OW58883   3.799   4.247   8.175
52329SOL    HW158884   3.780   4.314   8.109
52329SOL    HW258885   3.739   4.266   8.247
52330SOL     OW58886   7.541   7.585   7.399
52330SOL    HW158887   7.447   7.584   7.381
52330SOL    HW258888   7.553   7.518   7.466
52331SOL     OW58889   6.652  12.139   3.073
52331SOL    HW158890   6.685  12.184   3.151
52331SOL    HW258891   6.725  12.086   3.042
52332SOL     OW58892   3.557  14.720   3.449
52332SOL    HW158893   3.513  14.636   3.463
52332SOL    HW258894   3.546  14.767   3.532
52333SOL     OW58895   0.064  12.113   0.731
52333SOL    HW158896   0.056  12.035   0.676
52333SOL    HW258897   0.112  12.083   0.808
52334SOL     OW58898   8.359   2.240   7.404
52334SOL    HW158899   8.345   2.225   7.497
52334SOL    HW258900   8.354   2.335   7.394
52335SOL     OW58901  10.754  10.061  14.418
52335SOL    HW158902  10.824  10.028  14.362
52335SOL    HW258903  10.790  10.138  14.460
52336SOL     OW58904   2.315   4.173  11.909
52336SOL    HW158905   2.378   4.157  11.838
52336SOL    HW258906   2.241   4.116  11.889
52337SOL     OW58907  10.866  11.297   4.149
52337SOL    HW158908  10.812  11.219   4.161
52337SOL    HW258909  10.949  11.274   4.191
52338SOL     OW58910   5.256   4.768   8.695
52338SOL    HW158911   5.283   4.702   8.631
52338SOL    HW258912   5.167   4.742   8.719
52339SOL     OW58913   7.164   3.128   2.704
52339SOL    HW158914   7.195   3.077   2.779
52339SOL    HW258915   7.208   3.212   2.712
52340SOL     OW58916  11.914   8.086  14.305
52340SOL    HW158917  11.855   8.011  14.301
52340SOL    HW258918  11.907   8.118  14.395
52341SOL     OW58919   2.812   9.868  11.299
52341SOL    HW158920   2.784   9.791  11.249
52341SOL    HW258921   2.906   9.855  11.314
52342SOL     OW58922   7.860   4.487   6.945
52342SOL    HW158923   7.800   4.418   6.915
52342SOL    HW258924   7.886   4.533   6.865
52343SOL     OW58925   9.415   8.949   2.227
52343SOL    HW158926   9.492   8.894   2.214
52343SOL    HW258927   9.440   9.011   2.295
52344SOL     OW58928   6.729   1.322   4.943
52344SOL    HW158929   6.660   1.319   4.877
52344SOL    HW258930   6.769   1.235   4.939
52345SOL     OW58931  11.765   1.008   7.381
52345SOL    HW158932  11.834   1.054   7.334
52345SOL    HW258933  11.694   1.071   7.389
52346SOL     OW58934   7.959   8.209  13.322
52346SOL    HW158935   7.961   8.278  13.255
52346SOL    HW258936   8.042   8.163  13.311
52347SOL     OW58937  10.329   7.539   6.615
52347SOL    HW158938  10.382   7.566   6.689
52347SOL    HW258939  10.304   7.620   6.571
52348SOL     OW58940   0.539  10.379   7.198
52348SOL    HW158941   0.457  10.352   7.157
52348SOL    HW258942   0.568  10.302   7.247
52349SOL     OW58943   3.531   5.684   3.753
52349SOL    HW158944   3.463   5.662   3.690
52349SOL    HW258945   3.565   5.769   3.723
52350SOL     OW58946  12.677   1.221   4.136
52350SOL    HW158947  12.623   1.292   4.102
52350SOL    HW258948  12.641   1.201   4.222
52351SOL     OW58949  10.961   9.798   3.402
52351SOL    HW158950  10.995   9.787   3.313
52351SOL    HW258951  10.881   9.849   3.391
52352SOL     OW58952   9.850  11.099   3.914
52352SOL    HW158953   9.892  11.160   3.974
52352SOL    HW258954   9.757  11.103   3.938
52353SOL     OW58955   6.508   5.050   3.972
52353SOL    HW158956   6.595   5.046   3.933
52353SOL    HW258957   6.450   5.012   3.906
52354SOL     OW58958  10.473  10.493  13.734
52354SOL    HW158959  10.450  10.575  13.779
52354SOL    HW258960  10.389  10.461  13.698
52355SOL     OW58961   3.256  12.276   0.559
52355SOL    HW158962   3.279  12.358   0.603
52355SOL    HW258963   3.165  12.260   0.585
52356SOL     OW58964   6.459   4.407   0.625
52356SOL    HW158965   6.466   4.380   0.716
52356SOL    HW258966   6.469   4.502   0.627
52357SOL     OW58967   8.331  10.062   8.879
52357SOL    HW158968   8.378  10.130   8.927
52357SOL    HW258969   8.263  10.032   8.939
52358SOL     OW58970  10.242  11.772   8.032
52358SOL    HW158971  10.233  11.764   7.937
52358SOL    HW258972  10.154  11.759   8.065
52359SOL     OW58973  12.233   8.264  13.999
52359SOL    HW158974  12.174   8.296  14.067
52359SOL    HW258975  12.253   8.341  13.947
52360SOL     OW58976   1.325  12.735   9.021
52360SOL    HW158977   1.258  12.668   9.032
52360SOL    HW258978   1.395  12.710   9.082
52361SOL     OW58979  13.921   3.614   6.971
52361SOL    HW158980  13.969   3.591   6.892
52361SOL    HW258981  13.875   3.534   6.995
52362SOL     OW58982   9.647   3.895  11.684
52362SOL    HW158983   9.588   3.850  11.745
52362SOL    HW258984   9.611   3.983  11.676
52363SOL     OW58985   9.622   8.053   6.373
52363SOL    HW158986   9.559   8.110   6.417
52363SOL    HW258987   9.708   8.085   6.402
52364SOL     OW58988   6.207   8.475   6.686
52364SOL    HW158989   6.168   8.561   6.669
52364SOL    HW258990   6.288   8.476   6.635
52365SOL     OW58991   8.452  12.935  11.539
52365SOL    HW158992   8.391  12.864  11.555
52365SOL    HW258993   8.399  13.005  11.499
52366SOL     OW58994   0.102   1.245  13.968
52366SOL    HW158995   0.035   1.312  13.961
52366SOL    HW258996   0.090   1.190  13.891
52367SOL     OW58997   8.497   9.544   0.799
52367SOL    HW158998   8.552   9.494   0.859
52367SOL    HW258999   8.480   9.626   0.846
52368SOL     OW59000  11.800   0.893  12.292
52368SOL    HW159001  11.744   0.822  12.325
52368SOL    HW259002  11.815   0.871  12.200
52369SOL     OW59003   7.971  13.597   3.536
52369SOL    HW159004   7.943  13.515   3.495
52369SOL    HW259005   7.934  13.666   3.480
52370SOL     OW59006   7.818  11.498   7.889
52370SOL    HW159007   7.826  11.587   7.924
52370SOL    HW259008   7.877  11.446   7.943
52371SOL     OW59009   7.987  10.407   4.255
52371SOL    HW159010   8.047  10.392   4.328
52371SOL    HW259011   7.958  10.498   4.266
52372SOL     OW59012  11.472   5.763   7.488
52372SOL    HW159013  11.436   5.692   7.435
52372SOL    HW259014  11.552   5.726   7.525
52373SOL     OW59015   5.697   2.522   6.273
52373SOL    HW159016   5.703   2.448   6.335
52373SOL    HW259017   5.664   2.483   6.192
52374SOL     OW59018   0.436   2.056   0.005
52374SOL    HW159019   0.388   1.976   0.024
52374SOL    HW259020   0.491   2.070   0.083
52375SOL     OW59021   0.074   2.771   1.898
52375SOL    HW159022   0.142   2.705   1.885
52375SOL    HW259023   0.098   2.814   1.980
52376SOL     OW59024  11.101   0.246   9.814
52376SOL    HW159025  11.052   0.205   9.742
52376SOL    HW259026  11.188   0.208   9.808
52377SOL     OW59027   4.731   0.884   5.047
52377SOL    HW159028   4.714   0.796   5.012
52377SOL    HW259029   4.808   0.915   4.999
52378SOL     OW59030   4.388   6.065   2.132
52378SOL    HW159031   4.429   6.122   2.067
52378SOL    HW259032   4.370   5.984   2.086
52379SOL     OW59033   3.324   5.037   9.184
52379SOL    HW159034   3.260   4.976   9.150
52379SOL    HW259035   3.347   5.004   9.271
52380SOL     OW59036   6.780  11.297  13.784
52380SOL    HW159037   6.782  11.288  13.879
52380SOL    HW259038   6.829  11.377  13.766
52381SOL     OW59039  13.316   2.379   8.026
52381SOL    HW159040  13.306   2.377   7.931
52381SOL    HW259041  13.226   2.386   8.059
52382SOL     OW59042  12.019  10.247   4.407
52382SOL    HW159043  11.933  10.264   4.447
52382SOL    HW259044  12.051  10.170   4.453
52383SOL     OW59045   1.883   9.594   4.793
52383SOL    HW159046   1.871   9.499   4.800
52383SOL    HW259047   1.975   9.605   4.769
52384SOL     OW59048  10.321  12.359   3.474
52384SOL    HW159049  10.409  12.384   3.447
52384SOL    HW259050  10.334  12.304   3.552
52385SOL     OW59051   1.237   8.170   0.385
52385SOL    HW159052   1.290   8.105   0.337
52385SOL    HW259053   1.190   8.218   0.316
52386SOL     OW59054   9.325   5.513   1.141
52386SOL    HW159055   9.401   5.486   1.194
52386SOL    HW259056   9.353   5.499   1.051
52387SOL     OW59057   6.376  10.910   6.419
52387SOL    HW159058   6.408  10.990   6.460
52387SOL    HW259059   6.351  10.937   6.330
52388SOL     OW59060   5.166  10.125   1.177
52388SOL    HW159061   5.112  10.112   1.099
52388SOL    HW259062   5.256  10.118   1.145
52389SOL     OW59063   7.821  13.457   8.996
52389SOL    HW159064   7.804  13.363   9.001
52389SOL    HW259065   7.912  13.465   8.968
52390SOL     OW59066   9.256   1.461   9.576
52390SOL    HW159067   9.287   1.549   9.597
52390SOL    HW259068   9.205   1.472   9.496
52391SOL     OW59069   8.391   4.536  13.351
52391SOL    HW159070   8.466   4.509  13.298
52391SOL    HW259071   8.383   4.630  13.336
52392SOL     OW59072  12.114   3.738   0.424
52392SOL    HW159073  12.019   3.729   0.436
52392SOL    HW259074  12.146   3.648   0.417
52393SOL     OW59075   3.907   5.377   5.769
52393SOL    HW159076   3.924   5.428   5.690
52393SOL    HW259077   3.817   5.346   5.758
52394SOL     OW59078   0.999   4.003   8.965
52394SOL    HW159079   0.945   4.062   8.913
52394SOL    HW259080   1.067   3.973   8.905
52395SOL     OW59081  10.571  13.170   7.081
52395SOL    HW159082  10.534  13.200   6.998
52395SOL    HW259083  10.647  13.226   7.096
52396SOL     OW59084  13.790  11.915   3.296
52396SOL    HW159085  13.777  11.919   3.201
52396SOL    HW259086  13.851  11.986   3.315
52397SOL     OW59087  13.849   5.745   0.731
52397SOL    HW159088  13.755   5.735   0.716
52397SOL    HW259089  13.857   5.766   0.824
52398SOL     OW59090   4.395  13.443  10.140
52398SOL    HW159091   4.366  13.369  10.194
52398SOL    HW259092   4.406  13.405  10.053
52399SOL     OW59093   3.072   5.935  10.793
52399SOL    HW159094   3.122   5.865  10.750
52399SOL    HW259095   3.067   5.908  10.885
52400SOL     OW59096  13.585   3.365   4.653
52400SOL    HW159097  13.641   3.292   4.627
52400SOL    HW259098  13.538   3.333   4.730
52401SOL     OW59099  10.692  11.614   2.546
52401SOL    HW159100  10.753  11.628   2.474
52401SOL    HW259101  10.618  11.673   2.527
52402SOL     OW59102   8.975   6.661   8.015
52402SOL    HW159103   8.973   6.731   8.081
52402SOL    HW259104   9.060   6.619   8.026
52403SOL     OW59105  10.323  11.292  10.556
52403SOL    HW159106  10.250  11.290  10.619
52403SOL    HW259107  10.353  11.202  10.551
52404SOL     OW59108  11.125  14.027  14.447
52404SOL    HW159109  11.179  14.103  14.428
52404SOL    HW259110  11.098  13.994  14.361
52405SOL     OW59111   7.943   1.143   8.106
52405SOL    HW159112   7.915   1.119   8.195
52405SOL    HW259113   7.901   1.078   8.050
52406SOL     OW59114   9.676   0.659   8.195
52406SOL    HW159115   9.643   0.576   8.158
52406SOL    HW259116   9.597   0.708   8.217
52407SOL     OW59117   2.413  12.836   7.926
52407SOL    HW159118   2.486  12.895   7.908
52407SOL    HW259119   2.347  12.858   7.860
52408SOL     OW59120  12.665  10.506  11.920
52408SOL    HW159121  12.659  10.541  11.831
52408SOL    HW259122  12.754  10.528  11.948
52409SOL     OW59123   6.150   0.658  10.789
52409SOL    HW159124   6.059   0.630  10.799
52409SOL    HW259125   6.193   0.633  10.871
52410SOL     OW59126   7.052   2.905   1.761
52410SOL    HW159127   7.014   2.975   1.708
52410SOL    HW259128   7.076   2.949   1.843
52411SOL     OW59129   8.394   7.885  10.321
52411SOL    HW159130   8.372   7.978  10.326
52411SOL    HW259131   8.314   7.843  10.292
52412SOL     OW59132   1.983   9.228  13.850
52412SOL    HW159133   1.914   9.163  13.844
52412SOL    HW259134   1.994   9.261  13.761
52413SOL     OW59135   4.031   2.746   1.911
52413SOL    HW159136   3.940   2.768   1.927
52413SOL    HW259137   4.031   2.652   1.893
52414SOL     OW59138   0.782  10.113  13.351
52414SOL    HW159139   0.840  10.176  13.308
52414SOL    HW259140   0.787  10.035  13.295
52415SOL     OW59141   3.633  11.753   7.575
52415SOL    HW159142   3.551  11.706   7.590
52415SOL    HW259143   3.671  11.765   7.662
52416SOL     OW59144   2.704  12.145   3.551
52416SOL    HW159145   2.654  12.077   3.596
52416SOL    HW259146   2.711  12.215   3.615
52417SOL     OW59147   4.169   2.280   2.618
52417SOL    HW159148   4.210   2.366   2.608
52417SOL    HW259149   4.092   2.296   2.672
52418SOL     OW59150  12.792   3.574   8.309
52418SOL    HW159151  12.842   3.550   8.230
52418SOL    HW259152  12.856   3.570   8.380
52419SOL     OW59153  13.656  10.843   8.076
52419SOL    HW159154  13.630  10.776   8.139
52419SOL    HW259155  13.707  10.795   8.010
52420SOL     OW59156   3.927   2.011   7.403
52420SOL    HW159157   4.018   1.980   7.401
52420SOL    HW259158   3.923   2.070   7.478
52421SOL     OW59159  12.705   0.110   0.184
52421SOL    HW159160  12.619   0.151   0.177
52421SOL    HW259161  12.693   0.038   0.246
52422SOL     OW59162   9.883  10.251  11.255
52422SOL    HW159163   9.919  10.242  11.344
52422SOL    HW259164   9.818  10.322  11.262
52423SOL     OW59165   3.391  10.116   1.248
52423SOL    HW159166   3.338  10.166   1.311
52423SOL    HW259167   3.481  10.133   1.275
52424SOL     OW59168   2.048   3.467   0.120
52424SOL    HW159169   2.057   3.561   0.134
52424SOL    HW259170   2.096   3.450   0.039
52425SOL     OW59171   9.568   0.439   7.983
52425SOL    HW159172   9.492   0.447   7.924
52425SOL    HW259173   9.546   0.365   8.040
52426SOL     OW59174   5.428   4.402   8.870
52426SOL    HW159175   5.411   4.310   8.847
52426SOL    HW259176   5.463   4.440   8.790
52427SOL     OW59177   3.939   0.615   4.420
52427SOL    HW159178   3.979   0.533   4.391
52427SOL    HW259179   3.858   0.588   4.463
52428SOL     OW59180   4.589  14.682  11.582
52428SOL    HW159181   4.607  14.759  11.635
52428SOL    HW259182   4.538  14.714  11.508
52429SOL     OW59183   3.825  12.632  14.200
52429SOL    HW159184   3.791  12.705  14.252
52429SOL    HW259185   3.757  12.617  14.134
52430SOL     OW59186   7.565  12.477   3.020
52430SOL    HW159187   7.571  12.396   3.071
52430SOL    HW259188   7.505  12.533   3.070
52431SOL     OW59189  13.673  13.180   6.363
52431SOL    HW159190  13.678  13.126   6.284
52431SOL    HW259191  13.762  13.180   6.398
52432SOL     OW59192  12.941   1.201  10.701
52432SOL    HW159193  12.994   1.186  10.779
52432SOL    HW259194  12.923   1.114  10.667
52433SOL     OW59195   1.787   4.964   3.768
52433SOL    HW159196   1.743   5.042   3.800
52433SOL    HW259197   1.874   4.967   3.809
52434SOL     OW59198   1.034   3.419  13.055
52434SOL    HW159199   0.955   3.368  13.073
52434SOL    HW259200   1.100   3.353  13.031
52435SOL     OW59201   0.936  10.280  14.837
52435SOL    HW159202   0.864  10.292   0.018
52435SOL    HW259203   0.993  10.355  14.852
52436SOL     OW59204  14.341   6.298   0.545
52436SOL    HW159205  14.407   6.292   0.476
52436SOL    HW259206  14.287   6.373   0.519
52437SOL     OW59207   6.571   4.207  11.498
52437SOL    HW159208   6.660   4.179  11.476
52437SOL    HW259209   6.515   4.140  11.458
52438SOL     OW59210   3.965   1.300   1.107
52438SOL    HW159211   3.914   1.336   1.180
52438SOL    HW259212   4.050   1.278   1.145
52439SOL     OW59213   0.006   3.434  10.882
52439SOL    HW159214   0.006   3.402  10.972
52439SOL    HW259215  14.875   3.356  10.829
52440SOL     OW59216  12.666   1.794  10.259
52440SOL    HW159217  12.668   1.799  10.163
52440SOL    HW259218  12.759   1.791  10.284
52441SOL     OW59219   5.640   7.554  14.535
52441SOL    HW159220   5.616   7.622  14.598
52441SOL    HW259221   5.602   7.585  14.452
52442SOL     OW59222   7.161   5.064   3.104
52442SOL    HW159223   7.068   5.058   3.084
52442SOL    HW259224   7.182   4.981   3.148
52443SOL     OW59225   4.786   1.945  11.730
52443SOL    HW159226   4.760   1.886  11.801
52443SOL    HW259227   4.714   2.009  11.725
52444SOL     OW59228  11.073   8.841   2.377
52444SOL    HW159229  11.047   8.878   2.461
52444SOL    HW259230  11.015   8.765   2.366
52445SOL     OW59231   0.651   5.057   3.371
52445SOL    HW159232   0.728   5.095   3.414
52445SOL    HW259233   0.597   5.026   3.444
52446SOL     OW59234   5.788   8.385  13.456
52446SOL    HW159235   5.854   8.318  13.440
52446SOL    HW259236   5.809   8.455  13.394
52447SOL     OW59237   5.681   8.366  11.830
52447SOL    HW159238   5.688   8.362  11.926
52447SOL    HW259239   5.673   8.459  11.811
52448SOL     OW59240   8.860   0.880   3.916
52448SOL    HW159241   8.883   0.824   3.989
52448SOL    HW259242   8.791   0.938   3.950
52449SOL     OW59243  10.027   4.833   5.505
52449SOL    HW159244  10.095   4.770   5.482
52449SOL    HW259245  10.047   4.858   5.595
52450SOL     OW59246  13.073  12.983   6.958
52450SOL    HW159247  13.151  12.956   6.910
52450SOL    HW259248  13.107  13.039   7.029
52451SOL     OW59249   3.411  13.905  13.464
52451SOL    HW159250   3.504  13.888  13.453
52451SOL    HW259251   3.368  13.833  13.418
52452SOL     OW59252   2.832  10.297   0.772
52452SOL    HW159253   2.799  10.207   0.780
52452SOL    HW259254   2.801  10.340   0.852
52453SOL     OW59255   4.716   7.569   7.576
52453SOL    HW159256   4.626   7.600   7.569
52453SOL    HW259257   4.709   7.485   7.621
52454SOL     OW59258   2.308   6.761   9.813
52454SOL    HW159259   2.242   6.699   9.843
52454SOL    HW259260   2.261   6.820   9.754
52455SOL     OW59261   6.993   3.488   8.363
52455SOL    HW159262   7.046   3.528   8.432
52455SOL    HW259263   7.058   3.450   8.303
52456SOL     OW59264   2.633   3.075  14.740
52456SOL    HW159265   2.571   3.138  14.703
52456SOL    HW259266   2.579   3.009  14.783
52457SOL     OW59267   1.702  14.686   3.346
52457SOL    HW159268   1.613  14.678   3.310
52457SOL    HW259269   1.754  14.625   3.293
52458SOL     OW59270   8.029  12.920   4.999
52458SOL    HW159271   8.034  12.992   5.061
52458SOL    HW259272   8.093  12.943   4.931
52459SOL     OW59273  10.351   8.890   6.148
52459SOL    HW159274  10.350   8.812   6.203
52459SOL    HW259275  10.354   8.855   6.058
52460SOL     OW59276   5.327   0.353   5.197
52460SOL    HW159277   5.312   0.280   5.257
52460SOL    HW259278   5.310   0.431   5.251
52461SOL     OW59279   9.647   1.196   5.063
52461SOL    HW159280   9.595   1.265   5.103
52461SOL    HW259281   9.681   1.145   5.137
52462SOL     OW59282  10.574   5.777  13.337
52462SOL    HW159283  10.614   5.817  13.414
52462SOL    HW259284  10.614   5.823  13.263
52463SOL     OW59285   0.465   6.918   7.396
52463SOL    HW159286   0.528   6.877   7.455
52463SOL    HW259287   0.426   6.845   7.348
52464SOL     OW59288   3.579   2.398   3.729
52464SOL    HW159289   3.553   2.463   3.795
52464SOL    HW259290   3.634   2.336   3.777
52465SOL     OW59291  13.075   1.526  12.453
52465SOL    HW159292  13.156   1.577  12.457
52465SOL    HW259293  13.069   1.498  12.362
52466SOL     OW59294   8.103  14.519   3.865
52466SOL    HW159295   8.149  14.515   3.949
52466SOL    HW259296   8.052  14.437   3.861
52467SOL     OW59297   5.813   4.942   1.428
52467SOL    HW159298   5.847   4.975   1.345
52467SOL    HW259299   5.804   5.020   1.483
52468SOL     OW59300   3.295   4.450  11.161
52468SOL    HW159301   3.258   4.522  11.111
52468SOL    HW259302   3.384   4.478  11.182
52469SOL     OW59303   0.710  10.593   9.928
52469SOL    HW159304   0.793  10.547   9.918
52469SOL    HW259305   0.653  10.552   9.862
52470SOL     OW59306  13.289  11.287  12.986
52470SOL    HW159307  13.210  11.307  13.035
52470SOL    HW259308  13.262  11.291  12.894
52471SOL     OW59309  12.763   7.268  13.189
52471SOL    HW159310  12.714   7.195  13.226
52471SOL    HW259311  12.695   7.328  13.157
52472SOL     OW59312  11.340  10.400  13.522
52472SOL    HW159313  11.418  10.352  13.493
52472SOL    HW259314  11.288  10.411  13.443
52473SOL     OW59315   1.806   0.579   1.587
52473SOL    HW159316   1.821   0.673   1.598
52473SOL    HW259317   1.818   0.563   1.494
52474SOL     OW59318  12.636   4.200   2.985
52474SOL    HW159319  12.647   4.108   2.962
52474SOL    HW259320  12.613   4.198   3.078
52475SOL     OW59321  13.433   7.263  11.662
52475SOL    HW159322  13.521   7.285  11.631
52475SOL    HW259323  13.443   7.250  11.756
52476SOL     OW59324   4.485  10.483  12.651
52476SOL    HW159325   4.398  10.522  12.658
52476SOL    HW259326   4.530  10.535  12.584
52477SOL     OW59327   6.909   3.552  14.043
52477SOL    HW159328   6.971   3.484  14.016
52477SOL    HW259329   6.840   3.505  14.089
52478SOL     OW59330   0.629  11.712  10.510
52478SOL    HW159331   0.663  11.659  10.581
52478SOL    HW259332   0.618  11.799  10.548
52479SOL     OW59333   7.850  10.944  14.145
52479SOL    HW159334   7.827  10.959  14.053
52479SOL    HW259335   7.940  10.911  14.142
52480SOL     OW59336   6.924   4.732  11.936
52480SOL    HW159337   6.976   4.671  11.990
52480SOL    HW259338   6.886   4.677  11.868
52481SOL     OW59339   6.589  13.606  11.136
52481SOL    HW159340   6.657  13.589  11.070
52481SOL    HW259341   6.595  13.531  11.195
52482SOL     OW59342   0.922   1.008   1.850
52482SOL    HW159343   0.950   0.917   1.856
52482SOL    HW259344   0.908   1.023   1.757
52483SOL     OW59345   7.500   7.177   1.000
52483SOL    HW159346   7.464   7.090   0.982
52483SOL    HW259347   7.566   7.162   1.068
52484SOL     OW59348   0.585   3.530  13.977
52484SOL    HW159349   0.634   3.449  13.960
52484SOL    HW259350   0.628   3.568  14.054
52485SOL     OW59351  13.870   2.868   8.592
52485SOL    HW159352  13.954   2.844   8.553
52485SOL    HW259353  13.828   2.784   8.610
52486SOL     OW59354   3.563   9.800   4.778
52486SOL    HW159355   3.469   9.800   4.794
52486SOL    HW259356   3.574   9.747   4.700
52487SOL     OW59357   9.879  13.142  12.730
52487SOL    HW159358   9.888  13.215  12.791
52487SOL    HW259359   9.954  13.150  12.671
52488SOL     OW59360   4.652   2.851   6.271
52488SOL    HW159361   4.658   2.763   6.232
52488SOL    HW259362   4.640   2.909   6.196
52489SOL     OW59363   1.321   6.281  11.700
52489SOL    HW159364   1.235   6.273  11.659
52489SOL    HW259365   1.303   6.307  11.790
52490SOL     OW59366   5.338   5.756  10.549
52490SOL    HW159367   5.282   5.678  10.549
52490SOL    HW259368   5.316   5.800  10.632
52491SOL     OW59369   8.377   3.467   3.505
52491SOL    HW159370   8.430   3.500   3.433
52491SOL    HW259371   8.416   3.506   3.583
52492SOL     OW59372  10.803  11.675  13.379
52492SOL    HW159373  10.867  11.611  13.409
52492SOL    HW259374  10.842  11.714  13.301
52493SOL     OW59375   2.547  14.082   0.929
52493SOL    HW159376   2.580  14.166   0.961
52493SOL    HW259377   2.455  14.081   0.953
52494SOL     OW59378   8.849   2.443   1.509
52494SOL    HW159379   8.807   2.357   1.497
52494SOL    HW259380   8.777   2.506   1.503
52495SOL     OW59381   2.133   7.750   0.553
52495SOL    HW159382   2.052   7.797   0.534
52495SOL    HW259383   2.119   7.712   0.640
52496SOL     OW59384   3.872   6.462  13.898
52496SOL    HW159385   3.825   6.449  13.980
52496SOL    HW259386   3.959   6.492  13.924
52497SOL     OW59387   2.991  14.110   1.219
52497SOL    HW159388   3.031  14.032   1.182
52497SOL    HW259389   2.900  14.084   1.236
52498SOL     OW59390   3.688   7.571   9.307
52498SOL    HW159391   3.705   7.476   9.305
52498SOL    HW259392   3.772   7.610   9.284
52499SOL     OW59393   3.393  11.931   0.958
52499SOL    HW159394   3.358  11.968   1.039
52499SOL    HW259395   3.315  11.908   0.906
52500SOL     OW59396   0.786   0.802   1.416
52500SOL    HW159397   0.807   0.849   1.496
52500SOL    HW259398   0.849   0.730   1.413
52501SOL     OW59399   0.910   9.875   3.570
52501SOL    HW159400   0.937   9.967   3.573
52501SOL    HW259401   0.857   9.863   3.649
52502SOL     OW59402   4.883   6.024   3.482
52502SOL    HW159403   4.897   6.015   3.576
52502SOL    HW259404   4.791   6.052   3.474
52503SOL     OW59405   8.550   5.084  14.082
52503SOL    HW159406   8.483   5.067  14.148
52503SOL    HW259407   8.565   5.179  14.088
52504SOL     OW59408   8.283   6.293   8.306
52504SOL    HW159409   8.319   6.229   8.366
52504SOL    HW259410   8.255   6.366   8.361
52505SOL     OW59411  10.906  10.384  14.268
52505SOL    HW159412  10.992  10.344  14.251
52505SOL    HW259413  10.918  10.477  14.245
52506SOL     OW59414   2.191   0.999  14.365
52506SOL    HW159415   2.166   1.090  14.347
52506SOL    HW259416   2.121   0.967  14.421
52507SOL     OW59417   3.049  10.568   1.411
52507SOL    HW159418   2.976  10.511   1.432
52507SOL    HW259419   3.010  10.641   1.362
52508SOL     OW59420   6.891  11.431   4.571
52508SOL    HW159421   6.860  11.512   4.531
52508SOL    HW259422   6.973  11.455   4.613
52509SOL     OW59423  12.927  11.894  10.534
52509SOL    HW159424  12.854  11.907  10.594
52509SOL    HW259425  12.910  11.808  10.495
52510SOL     OW59426  11.452  12.766   6.982
52510SOL    HW159427  11.424  12.747   6.892
52510SOL    HW259428  11.548  12.766   6.977
52511SOL     OW59429  11.917   6.086   8.381
52511SOL    HW159430  11.895   6.004   8.337
52511SOL    HW259431  11.841   6.106   8.434
52512SOL     OW59432   4.549   3.901  12.192
52512SOL    HW159433   4.644   3.902  12.184
52512SOL    HW259434   4.522   3.990  12.170
52513SOL     OW59435   7.759   7.202   2.158
52513SOL    HW159436   7.698   7.224   2.087
52513SOL    HW259437   7.768   7.283   2.208
52514SOL     OW59438  10.095   3.991   7.584
52514SOL    HW159439  10.107   3.902   7.617
52514SOL    HW259440  10.183   4.022   7.566
52515SOL     OW59441   6.400   0.524   1.456
52515SOL    HW159442   6.404   0.554   1.365
52515SOL    HW259443   6.313   0.485   1.465
52516SOL     OW59444   9.233   6.720  14.430
52516SOL    HW159445   9.247   6.770  14.510
52516SOL    HW259446   9.139   6.729  14.412
52517SOL     OW59447   4.623   0.451  11.501
52517SOL    HW159448   4.673   0.533  11.499
52517SOL    HW259449   4.532   0.479  11.503
52518SOL     OW59450  10.290  11.098  14.519
52518SOL    HW159451  10.291  11.055  14.434
52518SOL    HW259452  10.339  11.038  14.577
52519SOL     OW59453   1.042  11.914  12.912
52519SOL    HW159454   1.023  11.849  12.844
52519SOL    HW259455   1.121  11.958  12.880
52520SOL     OW59456   5.292   9.990   7.998
52520SOL    HW159457   5.256   9.953   8.079
52520SOL    HW259458   5.321  10.078   8.023
52521SOL     OW59459   7.000   3.536  14.855
52521SOL    HW159460   7.030   3.496  14.773
52521SOL    HW259461   6.993   3.629  14.835
52522SOL     OW59462  13.924   6.375   6.470
52522SOL    HW159463  13.886   6.437   6.408
52522SOL    HW259464  13.910   6.414   6.556
52523SOL     OW59465   5.749   4.480  13.425
52523SOL    HW159466   5.696   4.408  13.460
52523SOL    HW259467   5.828   4.479  13.479
52524SOL     OW59468   5.797  11.107  13.440
52524SOL    HW159469   5.868  11.168  13.424
52524SOL    HW259470   5.744  11.148  13.508
52525SOL     OW59471   5.235   7.694  11.663
52525SOL    HW159472   5.220   7.601  11.644
52525SOL    HW259473   5.163   7.718  11.721
52526SOL     OW59474   3.163  12.428   0.881
52526SOL    HW159475   3.218  12.460   0.810
52526SOL    HW259476   3.218  12.365   0.928
52527SOL     OW59477   8.409  11.629   7.452
52527SOL    HW159478   8.428  11.713   7.412
52527SOL    HW259479   8.332  11.645   7.506
52528SOL     OW59480   9.058   4.754  13.145
52528SOL    HW159481   9.027   4.724  13.230
52528SOL    HW259482   8.979   4.764  13.092
52529SOL     OW59483  12.733   7.039  10.104
52529SOL    HW159484  12.717   7.124  10.146
52529SOL    HW259485  12.793   6.994  10.163
52530SOL     OW59486  14.299   1.703   7.293
52530SOL    HW159487  14.224   1.760   7.273
52530SOL    HW259488  14.339   1.686   7.208
52531SOL     OW59489   9.069   3.188   9.463
52531SOL    HW159490   9.069   3.276   9.424
52531SOL    HW259491   9.040   3.131   9.392
52532SOL     OW59492   6.796   3.298   6.685
52532SOL    HW159493   6.842   3.381   6.670
52532SOL    HW259494   6.721   3.321   6.739
52533SOL     OW59495   0.305   5.504  11.018
52533SOL    HW159496   0.400   5.490  11.014
52533SOL    HW259497   0.294   5.570  11.087
52534SOL     OW59498   5.721  10.103  11.458
52534SOL    HW159499   5.784  10.032  11.454
52534SOL    HW259500   5.646  10.072  11.407
52535SOL     OW59501   6.336   3.708  13.603
52535SOL    HW159502   6.377   3.680  13.521
52535SOL    HW259503   6.365   3.799  13.614
52536SOL     OW59504   6.039   2.086  13.991
52536SOL    HW159505   6.049   2.113  13.900
52536SOL    HW259506   5.944   2.083  14.004
52537SOL     OW59507   1.092  12.553   1.030
52537SOL    HW159508   1.093  12.510   1.116
52537SOL    HW259509   1.184  12.566   1.009
52538SOL     OW59510  13.463   5.274   1.443
52538SOL    HW159511  13.506   5.257   1.527
52538SOL    HW259512  13.517   5.341   1.401
52539SOL     OW59513   6.478   3.206   3.287
52539SOL    HW159514   6.569   3.207   3.257
52539SOL    HW259515   6.481   3.164   3.373
52540SOL     OW59516   5.647  11.282   7.189
52540SOL    HW159517   5.654  11.354   7.127
52540SOL    HW259518   5.553  11.264   7.194
52541SOL     OW59519   0.284  13.318   6.781
52541SOL    HW159520   0.335  13.381   6.730
52541SOL    HW259521   0.334  13.237   6.776
52542SOL     OW59522   8.428  14.431  10.506
52542SOL    HW159523   8.513  14.418  10.463
52542SOL    HW259524   8.381  14.491  10.448
52543SOL     OW59525  14.132  13.721   9.448
52543SOL    HW159526  14.209  13.715   9.392
52543SOL    HW259527  14.159  13.678   9.530
52544SOL     OW59528  13.295   9.452  13.751
52544SOL    HW159529  13.250   9.404  13.681
52544SOL    HW259530  13.226   9.476  13.812
52545SOL     OW59531   6.608   1.806   6.442
52545SOL    HW159532   6.542   1.767   6.499
52545SOL    HW259533   6.558   1.844   6.370
52546SOL     OW59534   9.734  11.973  11.969
52546SOL    HW159535   9.806  11.945  12.026
52546SOL    HW259536   9.767  12.052  11.926
52547SOL     OW59537   5.465  11.901  10.777
52547SOL    HW159538   5.435  11.912  10.687
52547SOL    HW259539   5.388  11.872  10.825
52548SOL     OW59540   4.562   6.605   3.164
52548SOL    HW159541   4.578   6.566   3.078
52548SOL    HW259542   4.561   6.531   3.224
52549SOL     OW59543   9.141   4.803   0.408
52549SOL    HW159544   9.100   4.725   0.369
52549SOL    HW259545   9.182   4.771   0.488
52550SOL     OW59546   9.829   1.890   5.389
52550SOL    HW159547   9.736   1.870   5.376
52550SOL    HW259548   9.874   1.810   5.362
52551SOL     OW59549  13.641   8.886   2.794
52551SOL    HW159550  13.692   8.842   2.726
52551SOL    HW259551  13.668   8.845   2.876
52552SOL     OW59552   0.021  10.095   2.986
52552SOL    HW159553  14.856  10.111   2.904
52552SOL    HW259554   0.047  10.183   3.015
52553SOL     OW59555   9.382   2.245   2.052
52553SOL    HW159556   9.410   2.235   2.143
52553SOL    HW259557   9.386   2.339   2.036
52554SOL     OW59558   5.410   3.315   1.779
52554SOL    HW159559   5.475   3.296   1.711
52554SOL    HW259560   5.329   3.332   1.731
52555SOL     OW59561  11.957  13.268  13.645
52555SOL    HW159562  12.020  13.203  13.676
52555SOL    HW259563  11.964  13.263  13.549
52556SOL     OW59564   8.418  10.490  10.188
52556SOL    HW159565   8.378  10.504  10.102
52556SOL    HW259566   8.467  10.408  10.179
52557SOL     OW59567   7.961   2.569   4.767
52557SOL    HW159568   7.896   2.586   4.699
52557SOL    HW259569   7.910   2.563   4.847
52558SOL     OW59570   1.698   5.769   6.185
52558SOL    HW159571   1.658   5.695   6.229
52558SOL    HW259572   1.695   5.840   6.249
52559SOL     OW59573  14.696  14.065   3.015
52559SOL    HW159574  14.661  13.978   3.034
52559SOL    HW259575  14.642  14.125   3.067
52560SOL     OW59576   7.321  14.700  11.880
52560SOL    HW159577   7.327  14.605  11.885
52560SOL    HW259578   7.348  14.721  11.790
52561SOL     OW59579   2.528   6.323  10.604
52561SOL    HW159580   2.621   6.330  10.585
52561SOL    HW259581   2.490   6.402  10.564
52562SOL     OW59582   5.456   4.789   1.890
52562SOL    HW159583   5.367   4.825   1.891
52562SOL    HW259584   5.457   4.727   1.963
52563SOL     OW59585   6.758  10.378  13.522
52563SOL    HW159586   6.807  10.314  13.470
52563SOL    HW259587   6.718  10.436  13.457
52564SOL     OW59588   9.876  10.266   4.658
52564SOL    HW159589   9.961  10.257   4.701
52564SOL    HW259590   9.831  10.183   4.676
52565SOL     OW59591   7.103   3.512   0.753
52565SOL    HW159592   7.028   3.552   0.797
52565SOL    HW259593   7.159   3.481   0.824
52566SOL     OW59594  11.020  11.523   6.783
52566SOL    HW159595  11.086  11.576   6.827
52566SOL    HW259596  11.053  11.510   6.695
52567SOL     OW59597   8.226   8.639  13.813
52567SOL    HW159598   8.159   8.593  13.865
52567SOL    HW259599   8.192   8.727  13.803
52568SOL     OW59600  11.722   5.639  11.209
52568SOL    HW159601  11.814   5.655  11.186
52568SOL    HW259602  11.719   5.545  11.230
52569SOL     OW59603  14.172  10.419   1.272
52569SOL    HW159604  14.214  10.419   1.186
52569SOL    HW259605  14.130  10.334   1.279
52570SOL     OW59606   5.940   5.171   6.895
52570SOL    HW159607   5.948   5.266   6.904
52570SOL    HW259608   5.953   5.137   6.984
52571SOL     OW59609   6.003  11.528  12.660
52571SOL    HW159610   6.053  11.602  12.695
52571SOL    HW259611   5.978  11.477  12.737
52572SOL     OW59612  11.584   0.174   8.416
52572SOL    HW159613  11.504   0.161   8.467
52572SOL    HW259614  11.560   0.239   8.349
52573SOL     OW59615   8.638  13.095   0.315
52573SOL    HW159616   8.673  13.082   0.227
52573SOL    HW259617   8.715  13.106   0.370
52574SOL     OW59618  13.092   8.511   3.282
52574SOL    HW159619  13.077   8.435   3.339
52574SOL    HW259620  13.021   8.507   3.219
52575SOL     OW59621   4.576   8.674  14.378
52575SOL    HW159622   4.646   8.621  14.340
52575SOL    HW259623   4.506   8.671  14.313
52576SOL     OW59624  14.171  13.046   9.420
52576SOL    HW159625  14.113  13.050   9.344
52576SOL    HW259626  14.157  13.130   9.465
52577SOL     OW59627   7.174   8.261   9.147
52577SOL    HW159628   7.229   8.226   9.217
52577SOL    HW259629   7.236   8.297   9.084
52578SOL     OW59630   6.413  12.906   1.035
52578SOL    HW159631   6.458  12.946   1.109
52578SOL    HW259632   6.479  12.901   0.966
52579SOL     OW59633   6.729   3.883  13.682
52579SOL    HW159634   6.757   3.826  13.611
52579SOL    HW259635   6.780   3.853  13.758
52580SOL     OW59636  11.577  12.976   2.123
52580SOL    HW159637  11.576  12.955   2.030
52580SOL    HW259638  11.488  13.005   2.142
52581SOL     OW59639   2.379   8.916   3.543
52581SOL    HW159640   2.371   9.007   3.571
52581SOL    HW259641   2.471   8.908   3.518
52582SOL     OW59642   4.437   2.955  10.001
52582SOL    HW159643   4.482   2.926   9.922
52582SOL    HW259644   4.506   2.963  10.066
52583SOL     OW59645  11.703  10.192   8.862
52583SOL    HW159646  11.644  10.249   8.813
52583SOL    HW259647  11.648  10.154   8.931
52584SOL     OW59648   4.091   1.386   0.881
52584SOL    HW159649   4.045   1.371   0.964
52584SOL    HW259650   4.082   1.480   0.865
52585SOL     OW59651   1.445  12.147   6.221
52585SOL    HW159652   1.474  12.193   6.143
52585SOL    HW259653   1.524  12.108   6.257
52586SOL     OW59654   5.719   4.937  12.744
52586SOL    HW159655   5.792   4.999  12.747
52586SOL    HW259656   5.734   4.879  12.819
52587SOL     OW59657   6.747  10.085   6.427
52587SOL    HW159658   6.835  10.063   6.458
52587SOL    HW259659   6.740  10.044   6.341
52588SOL     OW59660   7.347   9.552  14.361
52588SOL    HW159661   7.415   9.536  14.426
52588SOL    HW259662   7.391   9.541  14.277
52589SOL     OW59663   7.123   9.726   2.900
52589SOL    HW159664   7.075   9.722   2.983
52589SOL    HW259665   7.056   9.714   2.833
52590SOL     OW59666   1.307   7.792   4.576
52590SOL    HW159667   1.266   7.751   4.652
52590SOL    HW259668   1.282   7.885   4.583
52591SOL     OW59669   0.273   0.890   7.234
52591SOL    HW159670   0.298   0.828   7.165
52591SOL    HW259671   0.262   0.836   7.312
52592SOL     OW59672   9.886   7.122   4.330
52592SOL    HW159673   9.889   7.027   4.315
52592SOL    HW259674   9.813   7.135   4.391
52593SOL     OW59675  13.156  12.726  10.812
52593SOL    HW159676  13.229  12.788  10.819
52593SOL    HW259677  13.127  12.713  10.903
52594SOL     OW59678  14.143   9.647   4.206
52594SOL    HW159679  14.131   9.708   4.133
52594SOL    HW259680  14.146   9.703   4.283
52595SOL     OW59681   4.866   0.026   4.103
52595SOL    HW159682   4.952   0.059   4.131
52595SOL    HW259683   4.861  14.820   4.139
52596SOL     OW59684   0.971   3.745   1.765
52596SOL    HW159685   0.941   3.780   1.681
52596SOL    HW259686   0.932   3.803   1.830
52597SOL     OW59687   8.375   9.186   2.212
52597SOL    HW159688   8.291   9.207   2.171
52597SOL    HW259689   8.389   9.257   2.275
52598SOL     OW59690  12.183   6.566  13.968
52598SOL    HW159691  12.259   6.521  14.005
52598SOL    HW259692  12.166   6.638  14.029
52599SOL     OW59693  13.722   6.473  11.408
52599SOL    HW159694  13.637   6.517  11.406
52599SOL    HW259695  13.783   6.540  11.439
52600SOL     OW59696  12.553   3.553   4.165
52600SOL    HW159697  12.585   3.521   4.081
52600SOL    HW259698  12.623   3.609   4.198
52601SOL     OW59699   9.620  11.760  10.017
52601SOL    HW159700   9.662  11.837   9.979
52601SOL    HW259701   9.579  11.715   9.944
52602SOL     OW59702   7.719   7.086   9.945
52602SOL    HW159703   7.759   7.001   9.965
52602SOL    HW259704   7.703   7.084   9.851
52603SOL     OW59705  12.885   4.784  11.886
52603SOL    HW159706  12.810   4.803  11.943
52603SOL    HW259707  12.894   4.862  11.832
52604SOL     OW59708   6.274   5.386  11.637
52604SOL    HW159709   6.358   5.348  11.608
52604SOL    HW259710   6.290   5.480  11.641
52605SOL     OW59711   8.659  10.248   7.200
52605SOL    HW159712   8.693  10.275   7.285
52605SOL    HW259713   8.731  10.200   7.159
52606SOL     OW59714   4.961   6.696   1.812
52606SOL    HW159715   4.934   6.660   1.897
52606SOL    HW259716   5.002   6.623   1.767
52607SOL     OW59717   2.752  11.333  12.623
52607SOL    HW159718   2.761  11.297  12.535
52607SOL    HW259719   2.687  11.403  12.614
52608SOL     OW59720   3.441  10.519   2.685
52608SOL    HW159721   3.477  10.460   2.620
52608SOL    HW259722   3.360  10.476   2.715
52609SOL     OW59723  10.531   1.497   6.835
52609SOL    HW159724  10.437   1.489   6.853
52609SOL    HW259725  10.573   1.436   6.895
52610SOL     OW59726   1.804   1.512   5.216
52610SOL    HW159727   1.718   1.548   5.193
52610SOL    HW259728   1.785   1.430   5.261
52611SOL     OW59729   7.211  13.142  12.441
52611SOL    HW159730   7.212  13.237  12.427
52611SOL    HW259731   7.171  13.107  12.362
52612SOL     OW59732   6.949   8.503   1.250
52612SOL    HW159733   6.984   8.592   1.256
52612SOL    HW259734   6.890   8.496   1.326
52613SOL     OW59735   5.560  10.177   3.702
52613SOL    HW159736   5.649  10.179   3.666
52613SOL    HW259737   5.521  10.097   3.666
52614SOL     OW59738   3.115  10.237   0.722
52614SOL    HW159739   3.190  10.292   0.744
52614SOL    HW259740   3.040  10.282   0.761
52615SOL     OW59741  13.873   8.976   5.804
52615SOL    HW159742  13.938   9.038   5.838
52615SOL    HW259743  13.791   9.027   5.802
52616SOL     OW59744   5.379   1.836   6.051
52616SOL    HW159745   5.358   1.896   6.122
52616SOL    HW259746   5.365   1.887   5.971
52617SOL     OW59747   2.741   5.301  10.228
52617SOL    HW159748   2.815   5.289  10.169
52617SOL    HW259749   2.679   5.355  10.179
52618SOL     OW59750   2.975   2.407   5.048
52618SOL    HW159751   2.885   2.424   5.021
52618SOL    HW259752   2.979   2.434   5.139
52619SOL     OW59753   3.147   2.514  14.016
52619SOL    HW159754   3.180   2.448  14.076
52619SOL    HW259755   3.168   2.597  14.057
52620SOL     OW59756   3.239   8.808  10.365
52620SOL    HW159757   3.324   8.834  10.400
52620SOL    HW259758   3.190   8.891  10.358
52621SOL     OW59759   2.285  12.350   4.602
52621SOL    HW159760   2.305  12.312   4.516
52621SOL    HW259761   2.357  12.322   4.658
52622SOL     OW59762   4.601  13.182  12.096
52622SOL    HW159763   4.674  13.189  12.157
52622SOL    HW259764   4.523  13.180  12.152
52623SOL     OW59765   5.220   0.778   5.439
52623SOL    HW159766   5.300   0.786   5.492
52623SOL    HW259767   5.156   0.833   5.484
52624SOL     OW59768   0.756   4.326   0.020
52624SOL    HW159769   0.711   4.299   0.100
52624SOL    HW259770   0.704   4.401  14.870
52625SOL     OW59771  11.826   2.786   8.190
52625SOL    HW159772  11.732   2.768   8.187
52625SOL    HW259773  11.861   2.718   8.248
52626SOL     OW59774   2.200   4.157  10.442
52626SOL    HW159775   2.282   4.184  10.400
52626SOL    HW259776   2.133   4.215  10.404
52627SOL     OW59777   5.253   5.428   4.525
52627SOL    HW159778   5.251   5.385   4.439
52627SOL    HW259779   5.325   5.491   4.518
52628SOL     OW59780   0.230  13.428   5.398
52628SOL    HW159781   0.315  13.386   5.409
52628SOL    HW259782   0.205  13.455   5.486
52629SOL     OW59783   0.018   0.677   6.364
52629SOL    HW159784   0.002   0.584   6.383
52629SOL    HW259785   0.004   0.721   6.448
52630SOL     OW59786   8.469  12.530   9.355
52630SOL    HW159787   8.443  12.441   9.335
52630SOL    HW259788   8.478  12.533   9.450
52631SOL     OW59789   5.955   0.299   2.602
52631SOL    HW159790   5.883   0.360   2.618
52631SOL    HW259791   5.929   0.219   2.647
52632SOL     OW59792   6.900  14.001  14.335
52632SOL    HW159793   6.992  14.012  14.312
52632SOL    HW259794   6.900  13.938  14.406
52633SOL     OW59795   7.975   6.688   6.371
52633SOL    HW159796   7.933   6.645   6.446
52633SOL    HW259797   8.063   6.710   6.402
52634SOL     OW59798   7.644   6.240  14.210
52634SOL    HW159799   7.640   6.304  14.281
52634SOL    HW259800   7.707   6.174  14.240
52635SOL     OW59801   0.041   0.695  12.126
52635SOL    HW159802  14.834   0.661  12.139
52635SOL    HW259803   0.029   0.789  12.114
52636SOL     OW59804   4.880  13.976   0.256
52636SOL    HW159805   4.849  14.065   0.267
52636SOL    HW259806   4.960  13.971   0.307
52637SOL     OW59807  12.137  14.022   9.006
52637SOL    HW159808  12.187  14.031   8.924
52637SOL    HW259809  12.199  13.984   9.068
52638SOL     OW59810   3.280   8.813   5.437
52638SOL    HW159811   3.349   8.868   5.401
52638SOL    HW259812   3.276   8.837   5.530
52639SOL     OW59813   1.587   9.681  14.281
52639SOL    HW159814   1.558   9.704  14.369
52639SOL    HW259815   1.538   9.740  14.224
52640SOL     OW59816  11.297  14.529  13.096
52640SOL    HW159817  11.316  14.563  13.184
52640SOL    HW259818  11.279  14.436  13.110
52641SOL     OW59819  12.701   9.074  14.040
52641SOL    HW159820  12.783   9.034  14.012
52641SOL    HW259821  12.705   9.071  14.136
52642SOL     OW59822  12.078  12.755   8.139
52642SOL    HW159823  12.170  12.750   8.111
52642SOL    HW259824  12.071  12.840   8.181
52643SOL     OW59825   2.299   8.689   1.268
52643SOL    HW159826   2.261   8.751   1.204
52643SOL    HW259827   2.251   8.608   1.253
52644SOL     OW59828  14.700  12.644   2.033
52644SOL    HW159829  14.702  12.608   2.122
52644SOL    HW259830  14.775  12.603   1.990
52645SOL     OW59831   2.852  13.171   4.928
52645SOL    HW159832   2.864  13.100   4.990
52645SOL    HW259833   2.917  13.155   4.859
52646SOL     OW59834  10.868  10.763  14.564
52646SOL    HW159835  10.844  10.690  14.620
52646SOL    HW259836  10.954  10.740  14.530
52647SOL     OW59837   5.802   8.858   3.153
52647SOL    HW159838   5.796   8.918   3.227
52647SOL    HW259839   5.856   8.904   3.089
52648SOL     OW59840  14.089   6.923   6.077
52648SOL    HW159841  14.088   6.831   6.103
52648SOL    HW259842  14.018   6.962   6.128
52649SOL     OW59843  14.093   2.401   7.452
52649SOL    HW159844  14.048   2.481   7.478
52649SOL    HW259845  14.027   2.332   7.461
52650SOL     OW59846   5.270   3.830  10.946
52650SOL    HW159847   5.332   3.903  10.944
52650SOL    HW259848   5.207   3.854  11.014
52651SOL     OW59849  14.291  13.486   3.068
52651SOL    HW159850  14.363  13.434   3.030
52651SOL    HW259851  14.267  13.439   3.148
52652SOL     OW59852   5.701  10.997  14.507
52652SOL    HW159853   5.742  10.963  14.587
52652SOL    HW259854   5.651  11.073  14.537
52653SOL     OW59855   8.494   2.306  13.084
52653SOL    HW159856   8.541   2.298  13.001
52653SOL    HW259857   8.487   2.400  13.099
52654SOL     OW59858   0.454   1.996   3.818
52654SOL    HW159859   0.520   1.926   3.813
52654SOL    HW259860   0.498   2.067   3.865
52655SOL     OW59861   8.785   2.088  11.521
52655SOL    HW159862   8.864   2.109  11.570
52655SOL    HW259863   8.811   2.095  11.429
52656SOL     OW59864  10.298   6.721   7.447
52656SOL    HW159865  10.324   6.812   7.437
52656SOL    HW259866  10.207   6.719   7.419
52657SOL     OW59867   8.644  11.073   3.123
52657SOL    HW159868   8.694  11.146   3.159
52657SOL    HW259869   8.585  11.114   3.059
52658SOL     OW59870   1.384   9.447   3.668
52658SOL    HW159871   1.408   9.535   3.640
52658SOL    HW259872   1.290   9.451   3.684
52659SOL     OW59873  14.600   7.356   3.805
52659SOL    HW159874  14.649   7.297   3.862
52659SOL    HW259875  14.664   7.386   3.740
52660SOL     OW59876   7.697   9.926  12.649
52660SOL    HW159877   7.703   9.994  12.716
52660SOL    HW259878   7.750   9.854  12.682
52661SOL     OW59879   7.117   8.848   3.206
52661SOL    HW159880   7.133   8.858   3.112
52661SOL    HW259881   7.178   8.909   3.247
52662SOL     OW59882  14.627  10.806  13.483
52662SOL    HW159883  14.549  10.860  13.465
52662SOL    HW259884  14.596  10.716  13.473
52663SOL     OW59885  13.663   3.458  11.483
52663SOL    HW159886  13.586   3.497  11.442
52663SOL    HW259887  13.722   3.438  11.410
52664SOL     OW59888   1.015   2.104   4.848
52664SOL    HW159889   1.106   2.134   4.858
52664SOL    HW259890   0.996   2.060   4.931
52665SOL     OW59891   8.657   9.349  11.888
52665SOL    HW159892   8.571   9.328  11.853
52665SOL    HW259893   8.665   9.444  11.875
52666SOL     OW59894   0.903  14.879   4.664
52666SOL    HW159895   0.934  14.812   4.724
52666SOL    HW259896   0.812   0.013   4.691
52667SOL     OW59897   7.990   5.625  12.540
52667SOL    HW159898   8.006   5.641  12.447
52667SOL    HW259899   7.896   5.608  12.545
52668SOL     OW59900   7.517  10.190  12.398
52668SOL    HW159901   7.480  10.110  12.434
52668SOL    HW259902   7.565  10.229  12.471
52669SOL     OW59903   9.566  11.842  10.334
52669SOL    HW159904   9.641  11.811  10.283
52669SOL    HW259905   9.518  11.898  10.273
52670SOL     OW59906  12.096  10.253   1.362
52670SOL    HW159907  12.086  10.335   1.315
52670SOL    HW259908  12.080  10.185   1.296
52671SOL     OW59909   4.109  11.200   7.616
52671SOL    HW159910   4.117  11.106   7.600
52671SOL    HW259911   4.119  11.240   7.529
52672SOL     OW59912  12.762   2.524  11.562
52672SOL    HW159913  12.751   2.577  11.483
52672SOL    HW259914  12.719   2.441  11.541
52673SOL     OW59915  13.065   4.332  12.495
52673SOL    HW159916  13.046   4.242  12.469
52673SOL    HW259917  12.995   4.355  12.556
52674SOL     OW59918   7.030  13.257   1.051
52674SOL    HW159919   7.091  13.317   1.007
52674SOL    HW259920   7.074  13.235   1.133
52675SOL     OW59921   8.087   2.679   7.941
52675SOL    HW159922   8.146   2.614   7.979
52675SOL    HW259923   8.133   2.762   7.952
52676SOL     OW59924   0.273  13.971   0.947
52676SOL    HW159925   0.320  13.888   0.954
52676SOL    HW259926   0.191  13.949   0.903
52677SOL     OW59927   4.397  11.846   9.263
52677SOL    HW159928   4.320  11.864   9.317
52677SOL    HW259929   4.419  11.931   9.225
52678SOL     OW59930  14.587   0.584   4.010
52678SOL    HW159931  14.624   0.521   4.072
52678SOL    HW259932  14.628   0.561   3.926
52679SOL     OW59933   8.943   3.828   1.051
52679SOL    HW159934   9.034   3.820   1.081
52679SOL    HW259935   8.891   3.804   1.127
52680SOL     OW59936  14.253  14.829  13.956
52680SOL    HW159937  14.245  14.823  14.052
52680SOL    HW259938  14.325  14.770  13.935
52681SOL     OW59939   6.406  13.004   8.506
52681SOL    HW159940   6.310  12.999   8.505
52681SOL    HW259941   6.429  12.994   8.599
52682SOL     OW59942  11.068   8.071  13.453
52682SOL    HW159943  11.073   8.140  13.387
52682SOL    HW259944  11.017   8.002  13.411
52683SOL     OW59945   8.887   6.140   1.892
52683SOL    HW159946   8.838   6.090   1.827
52683SOL    HW259947   8.820   6.175   1.951
52684SOL     OW59948   5.235   7.707  11.304
52684SOL    HW159949   5.317   7.730  11.260
52684SOL    HW259950   5.217   7.781  11.362
52685SOL     OW59951  11.347   7.216   9.557
52685SOL    HW159952  11.339   7.310   9.572
52685SOL    HW259953  11.434   7.193   9.588
52686SOL     OW59954   2.392  12.999  13.151
52686SOL    HW159955   2.316  13.042  13.190
52686SOL    HW259956   2.360  12.913  13.124
52687SOL     OW59957   4.501   5.711  13.908
52687SOL    HW159958   4.502   5.633  13.963
52687SOL    HW259959   4.478   5.679  13.821
52688SOL     OW59960  10.955  11.098   8.750
52688SOL    HW159961  10.897  11.023   8.768
52688SOL    HW259962  11.001  11.074   8.670
52689SOL     OW59963   6.597   5.975  14.353
52689SOL    HW159964   6.671   6.031  14.333
52689SOL    HW259965   6.555   5.958  14.269
52690SOL     OW59966  10.998   2.774   4.043
52690SOL    HW159967  10.996   2.767   4.138
52690SOL    HW259968  11.002   2.683   4.012
52691SOL     OW59969   4.946   3.017   3.934
52691SOL    HW159970   4.867   3.027   3.880
52691SOL    HW259971   4.948   3.096   3.989
52692SOL     OW59972   7.144  12.113   4.600
52692SOL    HW159973   7.216  12.150   4.651
52692SOL    HW259974   7.109  12.042   4.654
52693SOL     OW59975  13.426  12.201   9.322
52693SOL    HW159976  13.483  12.262   9.277
52693SOL    HW259977  13.348  12.195   9.267
52694SOL     OW59978  14.773   8.195  10.468
52694SOL    HW159979  14.773   8.170  10.561
52694SOL    HW259980  14.739   8.284  10.467
52695SOL     OW59981   1.360  13.605   3.385
52695SOL    HW159982   1.278  13.556   3.387
52695SOL    HW259983   1.352  13.668   3.456
52696SOL     OW59984   7.410  13.597   7.266
52696SOL    HW159985   7.375  13.588   7.177
52696SOL    HW259986   7.458  13.680   7.265
52697SOL     OW59987   2.630   6.785   7.102
52697SOL    HW159988   2.600   6.873   7.122
52697SOL    HW259989   2.601   6.769   7.012
52698SOL     OW59990   5.193  12.130   5.274
52698SOL    HW159991   5.240  12.143   5.356
52698SOL    HW259992   5.213  12.040   5.249
52699SOL     OW59993   6.317   2.037   4.085
52699SOL    HW159994   6.384   1.988   4.038
52699SOL    HW259995   6.361   2.070   4.163
52700SOL     OW59996   1.738   0.712   3.579
52700SOL    HW159997   1.788   0.647   3.530
52700SOL    HW259998   1.780   0.795   3.558
52701SOL     OW59999   3.370  11.909   2.272
52701SOL    HW160000   3.419  11.946   2.346
52701SOL    HW260001   3.343  11.823   2.302
52702SOL     OW60002  12.898  14.399   4.642
52702SOL    HW160003  12.908  14.304   4.636
52702SOL    HW260004  12.876  14.415   4.734
52703SOL     OW60005   8.172   6.428   4.534
52703SOL    HW160006   8.089   6.401   4.497
52703SOL    HW260007   8.237   6.372   4.491
52704SOL     OW60008   5.795   0.677   1.452
52704SOL    HW160009   5.795   0.607   1.387
52704SOL    HW260010   5.730   0.650   1.517
52705SOL     OW60011   3.920  14.801   4.539
52705SOL    HW160012   4.008  14.838   4.532
52705SOL    HW260013   3.934  14.706   4.540
52706SOL     OW60014   4.945   7.128   8.966
52706SOL    HW160015   5.003   7.203   8.978
52706SOL    HW260016   5.003   7.058   8.936
52707SOL     OW60017   2.770   0.097   5.730
52707SOL    HW160018   2.854   0.134   5.700
52707SOL    HW260019   2.788   0.065   5.818
52708SOL     OW60020   9.811   4.941   2.000
52708SOL    HW160021   9.902   4.920   1.981
52708SOL    HW260022   9.776   4.861   2.041
52709SOL     OW60023   5.462   2.088   2.640
52709SOL    HW160024   5.462   2.018   2.574
52709SOL    HW260025   5.479   2.168   2.590
52710SOL     OW60026   3.197   7.344   2.469
52710SOL    HW160027   3.213   7.251   2.452
52710SOL    HW260028   3.280   7.377   2.504
52711SOL     OW60029   5.695   6.882  12.574
52711SOL    HW160030   5.648   6.961  12.546
52711SOL    HW260031   5.723   6.842  12.491
52712SOL     OW60032   3.931  11.797  14.012
52712SOL    HW160033   3.923  11.702  14.024
52712SOL    HW260034   3.916  11.834  14.099
52713SOL     OW60035   1.651   0.685   8.436
52713SOL    HW160036   1.612   0.598   8.444
52713SOL    HW260037   1.577   0.745   8.434
52714SOL     OW60038  12.462   7.137   9.271
52714SOL    HW160039  12.422   7.081   9.338
52714SOL    HW260040  12.473   7.080   9.195
52715SOL     OW60041   6.803  11.584   9.515
52715SOL    HW160042   6.713  11.572   9.486
52715SOL    HW260043   6.836  11.655   9.461
52716SOL     OW60044   5.625   5.445   5.154
52716SOL    HW160045   5.590   5.401   5.231
52716SOL    HW260046   5.679   5.515   5.190
52717SOL     OW60047   3.954  12.740   6.503
52717SOL    HW160048   3.960  12.664   6.446
52717SOL    HW260049   3.877  12.723   6.558
52718SOL     OW60050   7.367   4.171  10.297
52718SOL    HW160051   7.362   4.233  10.370
52718SOL    HW260052   7.455   4.183  10.262
52719SOL     OW60053  11.801   1.059  11.786
52719SOL    HW160054  11.861   1.119  11.830
52719SOL    HW260055  11.856   1.010  11.724
52720SOL     OW60056  13.819   2.976  10.898
52720SOL    HW160057  13.774   3.053  10.864
52720SOL    HW260058  13.842   2.925  10.820
52721SOL     OW60059   1.203   2.290   5.994
52721SOL    HW160060   1.236   2.380   5.988
52721SOL    HW260061   1.273   2.237   5.954
52722SOL     OW60062   8.123   6.882  13.988
52722SOL    HW160063   8.064   6.824  13.940
52722SOL    HW260064   8.072   6.963  13.999
52723SOL     OW60065   4.766  13.347   4.469
52723SOL    HW160066   4.679  13.387   4.469
52723SOL    HW260067   4.804  13.374   4.385
52724SOL     OW60068   4.848   7.483   4.713
52724SOL    HW160069   4.886   7.426   4.780
52724SOL    HW260070   4.823   7.562   4.761
52725SOL     OW60071   8.939  12.878   4.285
52725SOL    HW160072   8.914  12.924   4.205
52725SOL    HW260073   8.922  12.941   4.355
52726SOL     OW60074   2.430   0.591  11.036
52726SOL    HW160075   2.339   0.560  11.036
52726SOL    HW260076   2.441   0.632  11.122
52727SOL     OW60077   1.835   0.237   2.098
52727SOL    HW160078   1.835   0.180   2.021
52727SOL    HW260079   1.927   0.258   2.113
52728SOL     OW60080   1.537   1.875   9.003
52728SOL    HW160081   1.451   1.903   8.971
52728SOL    HW260082   1.600   1.925   8.951
52729SOL     OW60083   1.737   2.397   0.334
52729SOL    HW160084   1.654   2.364   0.299
52729SOL    HW260085   1.761   2.467   0.273
52730SOL     OW60086   7.854  11.037  10.708
52730SOL    HW160087   7.810  10.990  10.637
52730SOL    HW260088   7.783  11.079  10.757
52731SOL     OW60089  12.230   2.245   7.141
52731SOL    HW160090  12.162   2.298   7.184
52731SOL    HW260091  12.295   2.229   7.209
52732SOL     OW60092  11.300   5.346   7.198
52732SOL    HW160093  11.339   5.268   7.237
52732SOL    HW260094  11.267   5.317   7.113
52733SOL     OW60095   9.736   2.172   7.931
52733SOL    HW160096   9.740   2.175   8.027
52733SOL    HW260097   9.761   2.083   7.909
52734SOL     OW60098   0.032   7.889  13.030
52734SOL    HW160099   0.092   7.939  13.086
52734SOL    HW260100   0.029   7.802  13.070
52735SOL     OW60101   4.836  11.892   5.185
52735SOL    HW160102   4.830  11.844   5.268
52735SOL    HW260103   4.924  11.874   5.153
52736SOL     OW60104   0.085  12.291   8.155
52736SOL    HW160105   0.069  12.295   8.060
52736SOL    HW260106   0.165  12.342   8.168
52737SOL     OW60107  13.219   4.601   5.748
52737SOL    HW160108  13.311   4.581   5.760
52737SOL    HW260109  13.189   4.540   5.680
52738SOL     OW60110   1.297   5.170   8.753
52738SOL    HW160111   1.279   5.076   8.743
52738SOL    HW260112   1.384   5.173   8.794
52739SOL     OW60113   4.318   5.010  10.696
52739SOL    HW160114   4.242   5.026  10.752
52739SOL    HW260115   4.342   5.097  10.664
52740SOL     OW60116   3.953   4.582   9.747
52740SOL    HW160117   3.981   4.502   9.791
52740SOL    HW260118   3.892   4.552   9.680
52741SOL     OW60119   1.270   5.725   7.851
52741SOL    HW160120   1.182   5.712   7.887
52741SOL    HW260121   1.266   5.686   7.764
52742SOL     OW60122  12.897   3.274  10.724
52742SOL    HW160123  12.957   3.219  10.774
52742SOL    HW260124  12.877   3.223  10.646
52743SOL     OW60125   4.599   7.244   1.202
52743SOL    HW160126   4.625   7.155   1.177
52743SOL    HW260127   4.638   7.257   1.288
52744SOL     OW60128   9.761   1.197  14.626
52744SOL    HW160129   9.759   1.246  14.543
52744SOL    HW260130   9.689   1.233  14.677
52745SOL     OW60131   4.451   5.116   5.567
52745SOL    HW160132   4.510   5.180   5.606
52745SOL    HW260133   4.395   5.168   5.509
52746SOL     OW60134   0.379   3.152   1.700
52746SOL    HW160135   0.400   3.063   1.671
52746SOL    HW260136   0.357   3.142   1.793
52747SOL     OW60137   0.088   1.511   4.193
52747SOL    HW160138   0.009   1.474   4.154
52747SOL    HW260139   0.077   1.606   4.186
52748SOL     OW60140  11.665  14.354  14.004
52748SOL    HW160141  11.729  14.393  14.063
52748SOL    HW260142  11.695  14.264  13.993
52749SOL     OW60143  14.367   0.679  13.124
52749SOL    HW160144  14.339   0.726  13.203
52749SOL    HW260145  14.418   0.743  13.075
52750SOL     OW60146  11.583  10.297  13.445
52750SOL    HW160147  11.649  10.233  13.417
52750SOL    HW260148  11.625  10.382  13.433
52751SOL     OW60149  14.875   4.068   9.460
52751SOL    HW160150   0.084   4.086   9.434
52751SOL    HW260151  14.843   4.151   9.493
52752SOL     OW60152  11.979   1.941   3.345
52752SOL    HW160153  11.933   1.989   3.414
52752SOL    HW260154  11.973   1.998   3.268
52753SOL     OW60155   8.855  12.298  13.955
52753SOL    HW160156   8.904  12.223  13.987
52753SOL    HW260157   8.911  12.373  13.971
52754SOL     OW60158   0.186   3.113   6.721
52754SOL    HW160159   0.125   3.144   6.788
52754SOL    HW260160   0.188   3.182   6.656
52755SOL     OW60161  11.102  14.357   5.032
52755SOL    HW160162  11.039  14.415   5.074
52755SOL    HW260163  11.101  14.381   4.940
52756SOL     OW60164   0.780  13.812  11.356
52756SOL    HW160165   0.815  13.838  11.271
52756SOL    HW260166   0.698  13.766  11.336
52757SOL     OW60167   7.875  11.144   5.460
52757SOL    HW160168   7.839  11.215   5.512
52757SOL    HW260169   7.927  11.187   5.392
52758SOL     OW60170   6.381   2.736   2.038
52758SOL    HW160171   6.465   2.765   2.002
52758SOL    HW260172   6.315   2.775   1.980
52759SOL     OW60173   3.670   5.138   8.443
52759SOL    HW160174   3.679   5.233   8.445
52759SOL    HW260175   3.578   5.124   8.420
52760SOL     OW60176   5.605   6.646   1.361
52760SOL    HW160177   5.693   6.646   1.397
52760SOL    HW260178   5.548   6.665   1.435
52761SOL     OW60179  14.626   1.613   9.908
52761SOL    HW160180  14.709   1.651   9.936
52761SOL    HW260181  14.605   1.549   9.977
52762SOL     OW60182   3.046   6.820  12.278
52762SOL    HW160183   2.988   6.770  12.221
52762SOL    HW260184   3.017   6.911  12.270
52763SOL     OW60185   7.264   0.502   2.881
52763SOL    HW160186   7.348   0.482   2.921
52763SOL    HW260187   7.283   0.573   2.819
52764SOL     OW60188  12.708   7.469  12.165
52764SOL    HW160189  12.673   7.558  12.170
52764SOL    HW260190  12.684   7.428  12.247
52765SOL     OW60191   2.243  10.434   7.332
52765SOL    HW160192   2.330  10.467   7.356
52765SOL    HW260193   2.184  10.472   7.396
52766SOL     OW60194   2.895  14.257   7.973
52766SOL    HW160195   2.910  14.346   8.007
52766SOL    HW260196   2.982  14.218   7.969
52767SOL     OW60197   8.012   9.702  14.136
52767SOL    HW160198   8.063   9.651  14.199
52767SOL    HW260199   7.999   9.642  14.062
52768SOL     OW60200  11.358  13.235   3.848
52768SOL    HW160201  11.294  13.302   3.825
52768SOL    HW260202  11.425  13.243   3.780
52769SOL     OW60203   9.253  10.643   4.703
52769SOL    HW160204   9.235  10.568   4.647
52769SOL    HW260205   9.175  10.652   4.757
52770SOL     OW60206   6.438  13.493  13.089
52770SOL    HW160207   6.492  13.419  13.063
52770SOL    HW260208   6.349  13.466  13.069
52771SOL     OW60209   8.625   7.502   2.852
52771SOL    HW160210   8.699   7.539   2.901
52771SOL    HW260211   8.629   7.546   2.767
52772SOL     OW60212  11.926   2.440   6.609
52772SOL    HW160213  11.962   2.406   6.526
52772SOL    HW260214  11.999   2.485   6.650
52773SOL     OW60215  11.844  12.901   3.637
52773SOL    HW160216  11.881  12.847   3.707
52773SOL    HW260217  11.790  12.965   3.683
52774SOL     OW60218  11.074  14.600   7.405
52774SOL    HW160219  11.044  14.624   7.317
52774SOL    HW260220  11.072  14.682   7.455
52775SOL     OW60221   1.070  12.491   0.514
52775SOL    HW160222   1.110  12.450   0.437
52775SOL    HW260223   1.007  12.425   0.546
52776SOL     OW60224   7.071  13.650   2.229
52776SOL    HW160225   7.147  13.685   2.276
52776SOL    HW260226   7.072  13.556   2.251
52777SOL     OW60227   8.398   0.711  10.585
52777SOL    HW160228   8.372   0.801  10.564
52777SOL    HW260229   8.419   0.671  10.501
52778SOL     OW60230  11.064  10.786   2.942
52778SOL    HW160231  11.135  10.826   2.991
52778SOL    HW260232  11.067  10.693   2.966
52779SOL     OW60233  12.848   0.549  12.530
52779SOL    HW160234  12.761   0.511  12.525
52779SOL    HW260235  12.901   0.484  12.576
52780SOL     OW60236   6.763   1.373   3.049
52780SOL    HW160237   6.781   1.416   3.132
52780SOL    HW260238   6.829   1.303   3.044
52781SOL     OW60239   7.771  13.859   2.465
52781SOL    HW160240   7.837  13.847   2.532
52781SOL    HW260241   7.788  13.946   2.429
52782SOL     OW60242   2.077   7.330   3.118
52782SOL    HW160243   1.992   7.343   3.160
52782SOL    HW260244   2.123   7.413   3.130
52783SOL     OW60245   7.975   5.930   9.563
52783SOL    HW160246   7.950   5.860   9.502
52783SOL    HW260247   8.020   5.884   9.634
52784SOL     OW60248   3.224   7.294   7.990
52784SOL    HW160249   3.194   7.262   8.075
52784SOL    HW260250   3.190   7.230   7.927
52785SOL     OW60251   7.135   9.979   3.413
52785SOL    HW160252   7.103  10.052   3.360
52785SOL    HW260253   7.056   9.936   3.445
52786SOL     OW60254   9.708   2.075   0.615
52786SOL    HW160255   9.798   2.060   0.585
52786SOL    HW260256   9.677   2.148   0.562
52787SOL     OW60257   9.140   7.364   3.652
52787SOL    HW160258   9.179   7.436   3.601
52787SOL    HW260259   9.216   7.317   3.687
52788SOL     OW60260   0.040  10.884   6.344
52788SOL    HW160261  14.839  10.841   6.324
52788SOL    HW260262   0.093  10.873   6.264
52789SOL     OW60263   8.775  11.738   2.134
52789SOL    HW160264   8.739  11.758   2.221
52789SOL    HW260265   8.870  11.734   2.148
52790SOL     OW60266   5.970  12.843   1.487
52790SOL    HW160267   5.996  12.896   1.412
52790SOL    HW260268   5.967  12.905   1.560
52791SOL     OW60269  10.787   9.610   7.259
52791SOL    HW160270  10.716   9.548   7.247
52791SOL    HW260271  10.767   9.655   7.342
52792SOL     OW60272   5.551   6.110   6.758
52792SOL    HW160273   5.600   6.086   6.679
52792SOL    HW260274   5.472   6.152   6.725
52793SOL     OW60275   8.101  10.839   2.188
52793SOL    HW160276   8.171  10.875   2.134
52793SOL    HW260277   8.028  10.900   2.178
52794SOL     OW60278   9.435   2.228  12.165
52794SOL    HW160279   9.374   2.166  12.125
52794SOL    HW260280   9.396   2.248  12.250
52795SOL     OW60281   9.478   4.553   2.574
52795SOL    HW160282   9.402   4.609   2.557
52795SOL    HW260283   9.553   4.612   2.572
52796SOL     OW60284  11.035  13.348   4.925
52796SOL    HW160285  10.961  13.374   4.980
52796SOL    HW260286  11.021  13.394   4.843
52797SOL     OW60287  14.225   0.515   7.808
52797SOL    HW160288  14.197   0.562   7.887
52797SOL    HW260289  14.144   0.485   7.767
52798SOL     OW60290   7.181   6.810  11.195
52798SOL    HW160291   7.108   6.871  11.205
52798SOL    HW260292   7.141   6.731  11.159
52799SOL     OW60293  12.044   7.062  14.074
52799SOL    HW160294  12.019   7.154  14.072
52799SOL    HW260295  11.979   7.018  14.019
52800SOL     OW60296  10.503   0.920   2.285
52800SOL    HW160297  10.588   0.877   2.281
52800SOL    HW260298  10.440   0.852   2.262
52801SOL     OW60299  14.087   2.588   2.878
52801SOL    HW160300  14.169   2.628   2.850
52801SOL    HW260301  14.054   2.544   2.800
52802SOL     OW60302  12.109   0.223   9.062
52802SOL    HW160303  12.123   0.131   9.086
52802SOL    HW260304  12.053   0.220   8.985
52803SOL     OW60305   5.208   4.481   3.020
52803SOL    HW160306   5.254   4.532   2.953
52803SOL    HW260307   5.194   4.395   2.979
52804SOL     OW60308   2.241  10.715  11.267
52804SOL    HW160309   2.227  10.702  11.361
52804SOL    HW260310   2.299  10.643  11.241
52805SOL     OW60311   2.328   6.843   5.998
52805SOL    HW160312   2.307   6.751   5.983
52805SOL    HW260313   2.336   6.850   6.094
52806SOL     OW60314  13.286   6.736   5.122
52806SOL    HW160315  13.238   6.661   5.088
52806SOL    HW260316  13.224   6.808   5.119
52807SOL     OW60317   7.481   0.329   7.537
52807SOL    HW160318   7.466   0.296   7.449
52807SOL    HW260319   7.417   0.283   7.591
52808SOL     OW60320   7.688  11.113  12.256
52808SOL    HW160321   7.720  11.116  12.346
52808SOL    HW260322   7.710  11.199  12.220
52809SOL     OW60323   4.160   1.141  12.068
52809SOL    HW160324   4.089   1.193  12.030
52809SOL    HW260325   4.129   1.051  12.064
52810SOL     OW60326   0.360   0.500  10.656
52810SOL    HW160327   0.304   0.566  10.616
52810SOL    HW260328   0.363   0.523  10.749
52811SOL     OW60329   0.123   8.803   0.713
52811SOL    HW160330   0.218   8.798   0.719
52811SOL    HW260331   0.092   8.789   0.803
52812SOL     OW60332   9.597   0.030  10.073
52812SOL    HW160333   9.561  14.823  10.073
52812SOL    HW260334   9.531   0.083  10.029
52813SOL     OW60335   9.108  11.834  12.967
52813SOL    HW160336   9.144  11.766  13.024
52813SOL    HW260337   9.098  11.910  13.025
52814SOL     OW60338   5.292   6.821   4.701
52814SOL    HW160339   5.377   6.862   4.710
52814SOL    HW260340   5.304   6.752   4.637
52815SOL     OW60341   9.687  13.587   8.327
52815SOL    HW160342   9.659  13.667   8.281
52815SOL    HW260343   9.618  13.572   8.392
52816SOL     OW60344   7.204  10.060  12.972
52816SOL    HW160345   7.212  10.153  12.954
52816SOL    HW260346   7.282  10.038  13.022
52817SOL     OW60347  14.837   8.428   6.929
52817SOL    HW160348  14.859   8.516   6.897
52817SOL    HW260349  14.840   8.437   7.025
52818SOL     OW60350   2.888   6.048   0.539
52818SOL    HW160351   2.885   6.084   0.450
52818SOL    HW260352   2.965   6.090   0.579
52819SOL     OW60353  10.263  13.306  13.983
52819SOL    HW160354  10.296  13.348  13.903
52819SOL    HW260355  10.168  13.314  13.976
52820SOL     OW60356  14.512  11.990  13.106
52820SOL    HW160357  14.593  12.001  13.057
52820SOL    HW260358  14.445  11.977  13.038
52821SOL     OW60359  13.168   6.775   5.797
52821SOL    HW160360  13.228   6.842   5.765
52821SOL    HW260361  13.081   6.815   5.790
52822SOL     OW60362   5.684  14.123  14.827
52822SOL    HW160363   5.695  14.175  14.748
52822SOL    HW260364   5.773  14.116  14.864
52823SOL     OW60365   1.601   2.764   4.918
52823SOL    HW160366   1.629   2.853   4.895
52823SOL    HW260367   1.625   2.755   5.010
52824SOL     OW60368   1.909   7.158  12.607
52824SOL    HW160369   1.918   7.166  12.702
52824SOL    HW260370   1.910   7.248  12.576
52825SOL     OW60371  13.471   5.509  12.237
52825SOL    HW160372  13.466   5.444  12.307
52825SOL    HW260373  13.435   5.465  12.160
52826SOL     OW60374  14.591   5.937   1.276
52826SOL    HW160375  14.513   5.965   1.324
52826SOL    HW260376  14.608   6.009   1.215
52827SOL     OW60377   7.429  13.492   6.779
52827SOL    HW160378   7.469  13.405   6.777
52827SOL    HW260379   7.408  13.510   6.687
52828SOL     OW60380   8.054   7.548  13.393
52828SOL    HW160381   8.117   7.620  13.400
52828SOL    HW260382   8.067   7.513  13.306
52829SOL     OW60383   7.834   6.180   8.197
52829SOL    HW160384   7.922   6.194   8.162
52829SOL    HW260385   7.833   6.229   8.279
52830SOL     OW60386  14.652   0.111  11.655
52830SOL    HW160387  14.690   0.125  11.568
52830SOL    HW260388  14.598   0.188  11.671
52831SOL     OW60389  11.639   4.607   7.793
52831SOL    HW160390  11.640   4.588   7.700
52831SOL    HW260391  11.588   4.536   7.832
52832SOL     OW60392   9.112   0.578   0.764
52832SOL    HW160393   9.130   0.671   0.774
52832SOL    HW260394   9.084   0.568   0.673
52833SOL     OW60395   8.321  10.713  14.084
52833SOL    HW160396   8.368  10.793  14.058
52833SOL    HW260397   8.381  10.668  14.143
52834SOL     OW60398   0.617  12.907   7.266
52834SOL    HW160399   0.704  12.867   7.272
52834SOL    HW260400   0.604  12.950   7.351
52835SOL     OW60401   7.387   2.327   7.918
52835SOL    HW160402   7.455   2.394   7.921
52835SOL    HW260403   7.435   2.246   7.903
52836SOL     OW60404   7.014  13.770   2.940
52836SOL    HW160405   7.089  13.819   2.975
52836SOL    HW260406   6.972  13.830   2.879
52837SOL     OW60407   5.787   9.713   5.251
52837SOL    HW160408   5.803   9.658   5.174
52837SOL    HW260409   5.810   9.801   5.223
52838SOL     OW60410   9.920  10.674  14.070
52838SOL    HW160411   9.890  10.701  13.983
52838SOL    HW260412   9.911  10.579  14.069
52839SOL     OW60413  10.945  10.133   6.895
52839SOL    HW160414  10.850  10.133   6.879
52839SOL    HW260415  10.970  10.041   6.884
52840SOL     OW60416   2.763   4.255   8.483
52840SOL    HW160417   2.730   4.217   8.564
52840SOL    HW260418   2.851   4.219   8.473
52841SOL     OW60419  14.025   6.469   9.351
52841SOL    HW160420  14.039   6.382   9.313
52841SOL    HW260421  13.933   6.468   9.380
52842SOL     OW60422  12.066   5.611   3.020
52842SOL    HW160423  11.993   5.567   3.063
52842SOL    HW260424  12.042   5.703   3.019
52843SOL     OW60425  12.417   4.302   0.694
52843SOL    HW160426  12.354   4.370   0.668
52843SOL    HW260427  12.438   4.322   0.785
52844SOL     OW60428   5.543   8.065  11.906
52844SOL    HW160429   5.571   8.069  11.998
52844SOL    HW260430   5.463   8.118  11.903
52845SOL     OW60431  12.122   6.172   3.506
52845SOL    HW160432  12.199   6.205   3.460
52845SOL    HW260433  12.061   6.246   3.506
52846SOL     OW60434   6.726   1.339   1.257
52846SOL    HW160435   6.762   1.424   1.283
52846SOL    HW260436   6.631   1.352   1.261
52847SOL     OW60437  12.784  11.350   4.505
52847SOL    HW160438  12.829  11.422   4.460
52847SOL    HW260439  12.854  11.297   4.542
52848SOL     OW60440  12.935   5.152   1.027
52848SOL    HW160441  12.934   5.101   0.946
52848SOL    HW260442  13.001   5.110   1.081
52849SOL     OW60443  13.363  12.900   6.957
52849SOL    HW160444  13.455  12.887   6.933
52849SOL    HW260445  13.358  12.871   7.048
52850SOL     OW60446   0.398   0.924   7.631
52850SOL    HW160447   0.478   0.912   7.682
52850SOL    HW260448   0.349   0.991   7.679
52851SOL     OW60449   5.943   6.369   4.318
52851SOL    HW160450   5.913   6.310   4.387
52851SOL    HW260451   5.871   6.430   4.305
52852SOL     OW60452   4.123   6.844   5.110
52852SOL    HW160453   4.122   6.752   5.134
52852SOL    HW260454   4.189   6.884   5.167
52853SOL     OW60455  10.336   6.263  12.218
52853SOL    HW160456  10.329   6.182  12.269
52853SOL    HW260457  10.389   6.239  12.143
52854SOL     OW60458   3.652   8.089  11.503
52854SOL    HW160459   3.693   8.133  11.428
52854SOL    HW260460   3.591   8.154  11.538
52855SOL     OW60461   3.614   7.675   7.556
52855SOL    HW160462   3.617   7.604   7.492
52855SOL    HW260463   3.566   7.745   7.511
52856SOL     OW60464   5.308  10.073   5.747
52856SOL    HW160465   5.334  10.126   5.822
52856SOL    HW260466   5.383  10.076   5.688
52857SOL     OW60467  10.477   2.939   0.849
52857SOL    HW160468  10.451   2.888   0.772
52857SOL    HW260469  10.572   2.952   0.837
52858SOL     OW60470  14.564  14.025   5.979
52858SOL    HW160471  14.568  13.939   6.021
52858SOL    HW260472  14.641  14.071   6.013
52859SOL     OW60473   8.490   6.392   4.420
52859SOL    HW160474   8.447   6.391   4.334
52859SOL    HW260475   8.480   6.303   4.452
52860SOL     OW60476  12.432  10.222   0.780
52860SOL    HW160477  12.405  10.169   0.855
52860SOL    HW260478  12.481  10.162   0.725
52861SOL     OW60479   7.878   8.674  11.754
52861SOL    HW160480   7.873   8.684  11.849
52861SOL    HW260481   7.794   8.706  11.722
52862SOL     OW60482   4.374   0.764  13.674
52862SOL    HW160483   4.394   0.824  13.602
52862SOL    HW260484   4.458   0.748  13.717
52863SOL     OW60485   0.304   9.946   6.388
52863SOL    HW160486   0.209   9.951   6.395
52863SOL    HW260487   0.331  10.032   6.357
52864SOL     OW60488   1.035   1.825  14.030
52864SOL    HW160489   1.009   1.780  13.949
52864SOL    HW260490   0.996   1.912  14.021
52865SOL     OW60491   1.950  14.882   4.297
52865SOL    HW160492   1.904  14.801   4.319
52865SOL    HW260493   2.023   0.003   4.358
52866SOL     OW60494  11.614   8.026  11.060
52866SOL    HW160495  11.649   8.085  10.993
52866SOL    HW260496  11.649   7.940  11.037
52867SOL     OW60497   4.115  12.941   5.425
52867SOL    HW160498   4.186  12.886   5.390
52867SOL    HW260499   4.150  13.030   5.421
52868SOL     OW60500   3.190  11.310   4.020
52868SOL    HW160501   3.165  11.294   4.111
52868SOL    HW260502   3.188  11.223   3.979
52869SOL     OW60503   0.410   0.689   6.126
52869SOL    HW160504   0.411   0.625   6.197
52869SOL    HW260505   0.367   0.644   6.053
52870SOL     OW60506   7.873   4.997  11.801
52870SOL    HW160507   7.792   4.950  11.783
52870SOL    HW260508   7.936   4.928  11.824
52871SOL     OW60509   2.846   6.192   3.873
52871SOL    HW160510   2.843   6.239   3.957
52871SOL    HW260511   2.931   6.215   3.836
52872SOL     OW60512  12.787   3.855  10.439
52872SOL    HW160513  12.851   3.899  10.383
52872SOL    HW260514  12.781   3.766  10.404
52873SOL     OW60515   0.740  11.739   4.913
52873SOL    HW160516   0.681  11.759   4.840
52873SOL    HW260517   0.697  11.776   4.990
52874SOL     OW60518  10.590   3.933   7.604
52874SOL    HW160519  10.641   4.013   7.602
52874SOL    HW260520  10.655   3.863   7.605
52875SOL     OW60521  10.029   6.912   9.264
52875SOL    HW160522  10.104   6.860   9.236
52875SOL    HW260523   9.952   6.860   9.238
52876SOL     OW60524  10.155   4.133   1.855
52876SOL    HW160525  10.161   4.212   1.909
52876SOL    HW260526  10.172   4.061   1.916
52877SOL     OW60527  11.593  14.564   8.460
52877SOL    HW160528  11.549  14.636   8.506
52877SOL    HW260529  11.673  14.603   8.425
52878SOL     OW60530   0.315   9.578  14.091
52878SOL    HW160531   0.367   9.574  14.172
52878SOL    HW260532   0.288   9.670  14.086
52879SOL     OW60533  10.512   7.855  10.380
52879SOL    HW160534  10.523   7.767  10.343
52879SOL    HW260535  10.560   7.853  10.463
52880SOL     OW60536   8.278   5.190  13.074
52880SOL    HW160537   8.200   5.146  13.107
52880SOL    HW260538   8.351   5.136  13.105
52881SOL     OW60539   7.569  11.797  14.088
52881SOL    HW160540   7.561  11.708  14.125
52881SOL    HW260541   7.480  11.817  14.058
52882SOL     OW60542   9.777   4.110  10.102
52882SOL    HW160543   9.688   4.132  10.074
52882SOL    HW260544   9.812   4.192  10.138
52883SOL     OW60545  14.090   4.908   7.973
52883SOL    HW160546  14.012   4.888   8.025
52883SOL    HW260547  14.096   4.836   7.911
52884SOL     OW60548   1.988   9.141  13.087
52884SOL    HW160549   1.937   9.105  13.159
52884SOL    HW260550   1.922   9.177  13.027
52885SOL     OW60551  12.169  14.839  11.475
52885SOL    HW160552  12.130   0.017  11.412
52885SOL    HW260553  12.194   0.013  11.549
52886SOL     OW60554   3.597  13.536   1.695
52886SOL    HW160555   3.593  13.507   1.786
52886SOL    HW260556   3.672  13.490   1.658
52887SOL     OW60557  11.819  10.984   2.621
52887SOL    HW160558  11.894  10.980   2.681
52887SOL    HW260559  11.859  10.983   2.534
52888SOL     OW60560   0.516   1.849  10.038
52888SOL    HW160561   0.584   1.804  10.088
52888SOL    HW260562   0.463   1.779  10.001
52889SOL     OW60563   0.536   2.652  10.665
52889SOL    HW160564   0.632   2.650  10.657
52889SOL    HW260565   0.506   2.580  10.608
52890SOL     OW60566   4.220   4.673  11.234
52890SOL    HW160567   4.280   4.684  11.308
52890SOL    HW260568   4.156   4.608  11.264
52891SOL     OW60569  12.101   8.951  11.334
52891SOL    HW160570  12.130   9.030  11.379
52891SOL    HW260571  12.008   8.943  11.356
52892SOL     OW60572  12.046  10.132  10.737
52892SOL    HW160573  12.009  10.060  10.686
52892SOL    HW260574  11.969  10.177  10.773
52893SOL     OW60575  13.634  12.114  13.025
52893SOL    HW160576  13.580  12.036  13.034
52893SOL    HW260577  13.571  12.186  13.026
52894SOL     OW60578   9.926   0.382  14.210
52894SOL    HW160579   9.920   0.300  14.259
52894SOL    HW260580   9.997   0.368  14.148
52895SOL     OW60581   0.312  13.325   2.901
52895SOL    HW160582   0.400  13.349   2.870
52895SOL    HW260583   0.253  13.385   2.856
52896SOL     OW60584  13.891  12.527  11.903
52896SOL    HW160585  13.806  12.549  11.941
52896SOL    HW260586  13.872  12.499  11.814
52897SOL     OW60587  13.381   9.842   4.661
52897SOL    HW160588  13.425   9.926   4.647
52897SOL    HW260589  13.442   9.793   4.717
52898SOL     OW60590   6.275   6.909  12.581
52898SOL    HW160591   6.247   6.902  12.490
52898SOL    HW260592   6.364   6.875  12.581
52899SOL     OW60593  12.394  13.900  12.692
52899SOL    HW160594  12.366  13.893  12.784
52899SOL    HW260595  12.451  13.824  12.679
52900SOL     OW60596  13.988   4.229  14.516
52900SOL    HW160597  13.975   4.323  14.506
52900SOL    HW260598  13.982   4.213  14.610
52901SOL     OW60599   8.658   3.526  12.424
52901SOL    HW160600   8.720   3.505  12.494
52901SOL    HW260601   8.582   3.470  12.441
52902SOL     OW60602  10.402   6.210   2.391
52902SOL    HW160603  10.384   6.124   2.429
52902SOL    HW260604  10.489   6.233   2.423
52903SOL     OW60605  11.860   0.358   8.292
52903SOL    HW160606  11.876   0.295   8.222
52903SOL    HW260607  11.927   0.338   8.357
52904SOL     OW60608   8.745  13.284  10.632
52904SOL    HW160609   8.708  13.198  10.610
52904SOL    HW260610   8.674  13.331  10.674
52905SOL     OW60611   3.255   4.634   3.264
52905SOL    HW160612   3.232   4.706   3.206
52905SOL    HW260613   3.351   4.634   3.266
52906SOL     OW60614  10.955   4.540  14.528
52906SOL    HW160615  11.009   4.499  14.462
52906SOL    HW260616  10.889   4.474  14.550
52907SOL     OW60617   7.630   4.677   6.708
52907SOL    HW160618   7.706   4.625   6.734
52907SOL    HW260619   7.667   4.756   6.669
52908SOL     OW60620   2.127  13.006  10.183
52908SOL    HW160621   2.137  13.099  10.203
52908SOL    HW260622   2.197  12.963  10.233
52909SOL     OW60623   5.123   9.144  13.027
52909SOL    HW160624   5.091   9.157  13.116
52909SOL    HW260625   5.055   9.090  12.985
52910SOL     OW60626   5.842   9.278   5.450
52910SOL    HW160627   5.876   9.289   5.538
52910SOL    HW260628   5.807   9.364   5.427
52911SOL     OW60629  10.448   7.272   4.355
52911SOL    HW160630  10.396   7.269   4.435
52911SOL    HW260631  10.417   7.350   4.309
52912SOL     OW60632  10.252  13.545  13.315
52912SOL    HW160633  10.347  13.539  13.317
52912SOL    HW260634  10.228  13.520  13.225
52913SOL     OW60635   8.267  11.588  10.865
52913SOL    HW160636   8.316  11.656  10.910
52913SOL    HW260637   8.260  11.620  10.775
52914SOL     OW60638   7.768   1.607   6.862
52914SOL    HW160639   7.804   1.518   6.867
52914SOL    HW260640   7.735   1.614   6.772
52915SOL     OW60641   9.511   9.439   2.181
52915SOL    HW160642   9.550   9.354   2.160
52915SOL    HW260643   9.557   9.468   2.259
52916SOL     OW60644   4.134  10.902   1.390
52916SOL    HW160645   4.146  10.818   1.433
52916SOL    HW260646   4.120  10.880   1.298
52917SOL     OW60647   7.206   2.534   3.683
52917SOL    HW160648   7.246   2.524   3.597
52917SOL    HW260649   7.261   2.482   3.741
52918SOL     OW60650   0.806   7.096   6.395
52918SOL    HW160651   0.811   7.177   6.446
52918SOL    HW260652   0.827   7.123   6.306
52919SOL     OW60653   1.629   5.890   5.235
52919SOL    HW160654   1.546   5.900   5.188
52919SOL    HW260655   1.682   5.965   5.208
52920SOL     OW60656   1.577   3.550   3.833
52920SOL    HW160657   1.550   3.501   3.911
52920SOL    HW260658   1.595   3.483   3.768
52921SOL     OW60659  12.174   8.922   4.669
52921SOL    HW160660  12.193   8.885   4.755
52921SOL    HW260661  12.201   9.013   4.675
52922SOL     OW60662  14.169   5.158  11.562
52922SOL    HW160663  14.097   5.097  11.576
52922SOL    HW260664  14.206   5.134  11.477
52923SOL     OW60665  14.657   7.693   7.371
52923SOL    HW160666  14.675   7.602   7.397
52923SOL    HW260667  14.697   7.746   7.440
52924SOL     OW60668  10.074  13.614  10.691
52924SOL    HW160669  10.141  13.658  10.742
52924SOL    HW260670  10.030  13.557  10.753
52925SOL     OW60671  10.412   7.247   2.788
52925SOL    HW160672  10.432   7.339   2.769
52925SOL    HW260673  10.328   7.231   2.745
52926SOL     OW60674   6.214   2.637   7.853
52926SOL    HW160675   6.214   2.711   7.913
52926SOL    HW260676   6.154   2.663   7.782
52927SOL     OW60677   7.520  13.396   3.626
52927SOL    HW160678   7.547  13.305   3.636
52927SOL    HW260679   7.527  13.414   3.532
52928SOL     OW60680   3.068   2.353   7.965
52928SOL    HW160681   3.067   2.301   8.046
52928SOL    HW260682   3.161   2.361   7.943
52929SOL     OW60683   3.003   4.415  11.212
52929SOL    HW160684   3.097   4.424  11.198
52929SOL    HW260685   2.984   4.474  11.286
52930SOL     OW60686  14.844   9.877   3.113
52930SOL    HW160687  14.860   9.959   3.068
52930SOL    HW260688  14.749   9.864   3.106
52931SOL     OW60689  11.094   2.099   2.885
52931SOL    HW160690  11.166   2.123   2.826
52931SOL    HW260691  11.109   2.007   2.904
52932SOL     OW60692   9.395   8.020  14.053
52932SOL    HW160693   9.346   8.076  13.992
52932SOL    HW260694   9.388   8.064  14.137
52933SOL     OW60695   4.297   5.333   1.289
52933SOL    HW160696   4.357   5.406   1.278
52933SOL    HW260697   4.302   5.284   1.206
52934SOL     OW60698   7.164   7.735   2.031
52934SOL    HW160699   7.182   7.714   1.939
52934SOL    HW260700   7.070   7.721   2.040
52935SOL     OW60701  13.726  10.172   2.723
52935SOL    HW160702  13.736  10.102   2.788
52935SOL    HW260703  13.633  10.193   2.725
52936SOL     OW60704   1.467  11.948   8.507
52936SOL    HW160705   1.510  11.963   8.422
52936SOL    HW260706   1.531  11.897   8.557
52937SOL     OW60707   1.305   9.581   4.652
52937SOL    HW160708   1.263   9.564   4.736
52937SOL    HW260709   1.388   9.534   4.656
52938SOL     OW60710   1.962   8.875   7.243
52938SOL    HW160711   2.038   8.925   7.211
52938SOL    HW260712   1.886   8.920   7.207
52939SOL     OW60713   0.839   8.008   8.298
52939SOL    HW160714   0.822   8.102   8.298
52939SOL    HW260715   0.847   7.985   8.391
52940SOL     OW60716   5.360   5.294   0.017
52940SOL    HW160717   5.430   5.250   0.065
52940SOL    HW260718   5.400   5.375  14.867
52941SOL     OW60719   7.689   9.047   4.571
52941SOL    HW160720   7.692   9.070   4.478
52941SOL    HW260721   7.765   9.090   4.610
52942SOL     OW60722  13.501   9.887   6.735
52942SOL    HW160723  13.451   9.806   6.728
52942SOL    HW260724  13.529   9.890   6.826
52943SOL     OW60725   6.856   3.486   0.473
52943SOL    HW160726   6.835   3.570   0.514
52943SOL    HW260727   6.804   3.485   0.393
52944SOL     OW60728   7.260   3.774   2.430
52944SOL    HW160729   7.234   3.779   2.338
52944SOL    HW260730   7.233   3.687   2.458
52945SOL     OW60731   3.106   4.543   4.690
52945SOL    HW160732   3.187   4.584   4.661
52945SOL    HW260733   3.121   4.522   4.782
52946SOL     OW60734  13.913  10.184  13.272
52946SOL    HW160735  13.900  10.274  13.303
52946SOL    HW260736  13.933  10.194  13.179
52947SOL     OW60737   2.893   6.573   8.676
52947SOL    HW160738   2.823   6.590   8.740
52947SOL    HW260739   2.846   6.548   8.596
52948SOL     OW60740   7.142   1.994   5.694
52948SOL    HW160741   7.072   1.951   5.645
52948SOL    HW260742   7.129   2.087   5.678
52949SOL     OW60743   7.753   3.337   3.044
52949SOL    HW160744   7.729   3.416   3.092
52949SOL    HW260745   7.791   3.279   3.110
52950SOL     OW60746   1.567   2.149  10.591
52950SOL    HW160747   1.582   2.054  10.586
52950SOL    HW260748   1.629   2.186  10.528
52951SOL     OW60749   3.198   3.638  12.160
52951SOL    HW160750   3.219   3.551  12.127
52951SOL    HW260751   3.128   3.624  12.224
52952SOL     OW60752   3.779  12.139   1.974
52952SOL    HW160753   3.859  12.165   1.928
52952SOL    HW260754   3.759  12.051   1.941
52953SOL     OW60755  10.249  11.963  11.936
52953SOL    HW160756  10.267  11.910  12.014
52953SOL    HW260757  10.175  11.919  11.894
52954SOL     OW60758  11.170   3.236   4.661
52954SOL    HW160759  11.256   3.197   4.680
52954SOL    HW260760  11.188   3.302   4.594
52955SOL     OW60761  11.958  10.611  12.155
52955SOL    HW160762  11.883  10.567  12.194
52955SOL    HW260763  11.997  10.546  12.097
52956SOL     OW60764  11.460  14.611  12.564
52956SOL    HW160765  11.535  14.613  12.504
52956SOL    HW260766  11.500  14.608  12.651
52957SOL     OW60767  14.715   1.484   0.750
52957SOL    HW160768  14.783   1.487   0.682
52957SOL    HW260769  14.634   1.471   0.701
52958SOL     OW60770   2.828  10.587   8.660
52958SOL    HW160771   2.812  10.624   8.747
52958SOL    HW260772   2.840  10.663   8.603
52959SOL     OW60773   9.613  14.780  12.876
52959SOL    HW160774   9.690  14.798  12.929
52959SOL    HW260775   9.561  14.861  12.880
52960SOL     OW60776   9.027   0.432  13.724
52960SOL    HW160777   9.046   0.522  13.699
52960SOL    HW260778   8.934   0.432  13.744
52961SOL     OW60779   8.677   6.490  13.772
52961SOL    HW160780   8.584   6.479  13.789
52961SOL    HW260781   8.698   6.423  13.707
52962SOL     OW60782  11.320   9.204   7.109
52962SOL    HW160783  11.254   9.206   7.040
52962SOL    HW260784  11.300   9.280   7.163
52963SOL     OW60785   3.488   8.822  10.728
52963SOL    HW160786   3.424   8.751  10.736
52963SOL    HW260787   3.447   8.885  10.669
52964SOL     OW60788   0.970   5.815  10.523
52964SOL    HW160789   0.962   5.823  10.428
52964SOL    HW260790   0.949   5.724  10.541
52965SOL     OW60791   4.999   4.786   2.463
52965SOL    HW160792   5.091   4.811   2.476
52965SOL    HW260793   5.000   4.691   2.459
52966SOL     OW60794  14.131   3.877   0.072
52966SOL    HW160795  14.060   3.813   0.079
52966SOL    HW260796  14.090   3.962   0.086
52967SOL     OW60797   1.854   6.642   1.951
52967SOL    HW160798   1.874   6.734   1.969
52967SOL    HW260799   1.922   6.593   1.996
52968SOL     OW60800   4.421   8.641  11.683
52968SOL    HW160801   4.485   8.709  11.699
52968SOL    HW260802   4.388   8.618  11.770
52969SOL     OW60803   6.655   1.029   8.492
52969SOL    HW160804   6.645   0.937   8.465
52969SOL    HW260805   6.618   1.079   8.420
52970SOL     OW60806  13.334   0.706   1.545
52970SOL    HW160807  13.257   0.673   1.590
52970SOL    HW260808  13.408   0.668   1.593
52971SOL     OW60809   2.871  11.069  12.261
52971SOL    HW160810   2.945  11.105  12.212
52971SOL    HW260811   2.802  11.057  12.195
52972SOL     OW60812  13.602  10.072   1.462
52972SOL    HW160813  13.549  10.042   1.535
52972SOL    HW260814  13.660  10.138   1.499
52973SOL     OW60815   6.225   3.877   7.668
52973SOL    HW160816   6.284   3.864   7.594
52973SOL    HW260817   6.227   3.971   7.684
52974SOL     OW60818   7.167   9.453   7.263
52974SOL    HW160819   7.210   9.375   7.300
52974SOL    HW260820   7.239   9.514   7.247
52975SOL     OW60821   7.128   1.803  13.185
52975SOL    HW160822   7.105   1.835  13.272
52975SOL    HW260823   7.047   1.809  13.135
52976SOL     OW60824  10.467   9.804  14.353
52976SOL    HW160825  10.440   9.712  14.351
52976SOL    HW260826  10.510   9.814  14.438
52977SOL     OW60827   0.856  13.142  13.686
52977SOL    HW160828   0.854  13.228  13.729
52977SOL    HW260829   0.769  13.133  13.648
52978SOL     OW60830   4.585   4.184   9.900
52978SOL    HW160831   4.615   4.097   9.876
52978SOL    HW260832   4.612   4.194   9.992
52979SOL     OW60833   4.862  12.402  12.986
52979SOL    HW160834   4.772  12.424  12.962
52979SOL    HW260835   4.886  12.467  13.051
52980SOL     OW60836   1.153  10.816   5.530
52980SOL    HW160837   1.134  10.724   5.512
52980SOL    HW260838   1.246  10.826   5.508
52981SOL     OW60839  12.896   2.513  12.952
52981SOL    HW160840  12.935   2.465  12.879
52981SOL    HW260841  12.828   2.454  12.985
52982SOL     OW60842   0.588   0.263   7.408
52982SOL    HW160843   0.560   0.215   7.330
52982SOL    HW260844   0.515   0.255   7.468
52983SOL     OW60845   8.548   5.604  14.073
52983SOL    HW160846   8.575   5.695  14.087
52983SOL    HW260847   8.462   5.599  14.114
52984SOL     OW60848  11.395  13.355  10.197
52984SOL    HW160849  11.427  13.445  10.206
52984SOL    HW260850  11.445  13.318  10.125
52985SOL     OW60851   4.114  12.969  12.348
52985SOL    HW160852   4.070  12.886  12.367
52985SOL    HW260853   4.194  12.966  12.400
52986SOL     OW60854   3.159   7.441   3.758
52986SOL    HW160855   3.241   7.392   3.764
52986SOL    HW260856   3.169   7.511   3.822
52987SOL     OW60857  13.756   5.533   4.767
52987SOL    HW160858  13.674   5.486   4.752
52987SOL    HW260859  13.734   5.625   4.759
52988SOL     OW60860  11.914   8.951   1.385
52988SOL    HW160861  11.883   8.968   1.474
52988SOL    HW260862  11.896   8.859   1.370
52989SOL     OW60863  13.147   7.029   3.893
52989SOL    HW160864  13.139   7.109   3.841
52989SOL    HW260865  13.210   7.050   3.961
52990SOL     OW60866   6.012  13.969   1.996
52990SOL    HW160867   5.941  14.027   2.024
52990SOL    HW260868   6.051  14.013   1.921
52991SOL     OW60869  10.827  10.489   0.439
52991SOL    HW160870  10.835  10.576   0.478
52991SOL    HW260871  10.845  10.504   0.346
52992SOL     OW60872  11.346   1.973   7.760
52992SOL    HW160873  11.327   1.985   7.667
52992SOL    HW260874  11.401   1.895   7.764
52993SOL     OW60875   0.283   5.588  11.299
52993SOL    HW160876   0.268   5.673  11.256
52993SOL    HW260877   0.197   5.563  11.333
52994SOL     OW60878   1.896   1.885   9.672
52994SOL    HW160879   1.980   1.915   9.638
52994SOL    HW260880   1.906   1.791   9.684
52995SOL     OW60881   1.699   8.273   6.112
52995SOL    HW160882   1.616   8.225   6.121
52995SOL    HW260883   1.697   8.306   6.022
52996SOL     OW60884   9.497  12.748   0.815
52996SOL    HW160885   9.517  12.701   0.734
52996SOL    HW260886   9.467  12.834   0.786
52997SOL     OW60887   7.981   1.123   2.298
52997SOL    HW160888   8.032   1.078   2.231
52997SOL    HW260889   8.045   1.175   2.346
52998SOL     OW60890  10.565  14.835   2.335
52998SOL    HW160891  10.559  14.859   2.243
52998SOL    HW260892  10.598   0.032   2.378
52999SOL     OW60893  10.360   4.085   4.652
52999SOL    HW160894  10.277   4.041   4.633
52999SOL    HW260895  10.426   4.016   4.643
53000SOL     OW60896   7.638   5.393  10.334
53000SOL    HW160897   7.546   5.407  10.357
53000SOL    HW260898   7.655   5.457  10.265
53001SOL     OW60899  14.528   4.089   4.186
53001SOL    HW160900  14.473   4.098   4.264
53001SOL    HW260901  14.573   4.173   4.178
53002SOL     OW60902  12.282  11.313   8.622
53002SOL    HW160903  12.308  11.223   8.644
53002SOL    HW260904  12.216  11.336   8.688
53003SOL     OW60905  14.723  14.288  12.845
53003SOL    HW160906  14.755  14.331  12.924
53003SOL    HW260907  14.769  14.204  12.843
53004SOL     OW60908  12.766   8.898  12.042
53004SOL    HW160909  12.836   8.870  12.102
53004SOL    HW260910  12.758   8.825  11.980
53005SOL     OW60911   6.665   3.293   2.568
53005SOL    HW160912   6.620   3.220   2.610
53005SOL    HW260913   6.675   3.266   2.476
53006SOL     OW60914   1.597  13.607  13.781
53006SOL    HW160915   1.681  13.637  13.744
53006SOL    HW260916   1.570  13.679  13.838
53007SOL     OW60917  13.266  13.744   2.643
53007SOL    HW160918  13.222  13.829   2.647
53007SOL    HW260919  13.199  13.682   2.672
53008SOL     OW60920   0.107  14.879  12.066
53008SOL    HW160921   0.179   0.047  12.029
53008SOL    HW260922   0.040  14.878  11.998
53009SOL     OW60923  14.176  13.489   6.116
53009SOL    HW160924  14.240  13.559   6.103
53009SOL    HW260925  14.226  13.408   6.105
53010SOL     OW60926   0.742   3.661   8.346
53010SOL    HW160927   0.770   3.687   8.258
53010SOL    HW260928   0.808   3.699   8.404
53011SOL     OW60929   3.624   3.722  14.486
53011SOL    HW160930   3.686   3.777  14.439
53011SOL    HW260931   3.594   3.775  14.559
53012SOL     OW60932   8.612   5.176   7.989
53012SOL    HW160933   8.638   5.224   7.910
53012SOL    HW260934   8.617   5.240   8.060
53013SOL     OW60935   5.538   7.947  10.100
53013SOL    HW160936   5.625   7.983  10.119
53013SOL    HW260937   5.487   8.022  10.070
53014SOL     OW60938   0.139   2.276   9.638
53014SOL    HW160939   0.160   2.369   9.626
53014SOL    HW260940   0.203   2.245   9.702
53015SOL     OW60941   7.472   0.905   9.333
53015SOL    HW160942   7.533   0.840   9.369
53015SOL    HW260943   7.499   0.916   9.242
53016SOL     OW60944   4.814   8.951  12.259
53016SOL    HW160945   4.838   8.883  12.195
53016SOL    HW260946   4.730   8.986  12.227
53017SOL     OW60947  13.357   3.871   3.759
53017SOL    HW160948  13.399   3.846   3.677
53017SOL    HW260949  13.428   3.902   3.815
53018SOL     OW60950   0.339   6.507   6.846
53018SOL    HW160951   0.312   6.598   6.856
53018SOL    HW260952   0.394   6.490   6.922
53019SOL     OW60953   5.568   4.319   9.425
53019SOL    HW160954   5.476   4.302   9.446
53019SOL    HW260955   5.613   4.237   9.447
53020SOL     OW60956   9.297  13.439   8.007
53020SOL    HW160957   9.392  13.449   8.011
53020SOL    HW260958   9.271  13.481   7.925
53021SOL     OW60959  10.315   3.101  12.650
53021SOL    HW160960  10.255   3.027  12.659
53021SOL    HW260961  10.383   3.084  12.715
53022SOL     OW60962  11.359   4.379  12.641
53022SOL    HW160963  11.307   4.431  12.702
53022SOL    HW260964  11.449   4.410  12.654
53023SOL     OW60965  10.976   5.028   9.018
53023SOL    HW160966  10.899   4.990   9.060
53023SOL    HW260967  11.002   4.962   8.953
53024SOL     OW60968  12.656   7.827   1.730
53024SOL    HW160969  12.581   7.840   1.789
53024SOL    HW260970  12.626   7.861   1.646
53025SOL     OW60971   8.429  13.549   7.991
53025SOL    HW160972   8.486  13.621   8.017
53025SOL    HW260973   8.342  13.589   7.983
53026SOL     OW60974  11.582  13.694  14.365
53026SOL    HW160975  11.664  13.742  14.373
53026SOL    HW260976  11.576  13.644  14.446
53027SOL     OW60977  11.617   5.501   0.022
53027SOL    HW160978  11.528   5.532   0.037
53027SOL    HW260979  11.654   5.561  14.839
53028SOL     OW60980  12.715   7.388  10.961
53028SOL    HW160981  12.674   7.472  10.942
53028SOL    HW260982  12.645   7.324  10.948
53029SOL     OW60983   5.506   1.239   1.146
53029SOL    HW160984   5.563   1.211   1.217
53029SOL    HW260985   5.484   1.330   1.167
53030SOL     OW60986   5.373   9.828   2.039
53030SOL    HW160987   5.324   9.836   1.957
53030SOL    HW260988   5.399   9.736   2.042
53031SOL     OW60989  10.256   0.607  10.353
53031SOL    HW160990  10.223   0.517  10.347
53031SOL    HW260991  10.300   0.612  10.438
53032SOL     OW60992  13.948   4.222   2.565
53032SOL    HW160993  13.971   4.129   2.571
53032SOL    HW260994  13.985   4.261   2.644
53033SOL     OW60995   4.931   3.447   3.929
53033SOL    HW160996   4.931   3.358   3.893
53033SOL    HW260997   5.020   3.462   3.958
53034SOL     OW60998   8.327  10.802   4.141
53034SOL    HW160999   8.286  10.716   4.131
53034SOL    HW261000   8.272  10.847   4.206
53035SOL     OW61001  12.175   3.684  10.872
53035SOL    HW161002  12.110   3.622  10.840
53035SOL    HW261003  12.253   3.632  10.889
53036SOL     OW61004   5.021  10.584   5.752
53036SOL    HW161005   5.067  10.635   5.685
53036SOL    HW261006   4.975  10.516   5.703
53037SOL     OW61007  13.510  13.917   5.876
53037SOL    HW161008  13.449  13.956   5.939
53037SOL    HW261009  13.561  13.855   5.927
53038SOL     OW61010   5.114   4.730  11.189
53038SOL    HW161011   5.140   4.744  11.098
53038SOL    HW261012   5.091   4.637  11.193
53039SOL     OW61013   2.737  10.142  11.295
53039SOL    HW161014   2.761  10.050  11.308
53039SOL    HW261015   2.761  10.185  11.377
53040SOL     OW61016   3.304   3.347   8.556
53040SOL    HW161017   3.343   3.376   8.639
53040SOL    HW261018   3.364   3.280   8.523
53041SOL     OW61019   9.823  10.292  13.451
53041SOL    HW161020   9.832  10.272  13.544
53041SOL    HW261021   9.730  10.304  13.437
53042SOL     OW61022   1.646   2.981   4.290
53042SOL    HW161023   1.611   3.067   4.269
53042SOL    HW261024   1.723   2.998   4.345
53043SOL     OW61025  11.135   4.756   0.160
53043SOL    HW161026  11.160   4.665   0.144
53043SOL    HW261027  11.166   4.803   0.082
53044SOL     OW61028   2.845   5.439   1.094
53044SOL    HW161029   2.853   5.347   1.119
53044SOL    HW261030   2.787   5.478   1.159
53045SOL     OW61031   3.270   0.831  10.968
53045SOL    HW161032   3.346   0.788  10.929
53045SOL    HW261033   3.256   0.786  11.051
53046SOL     OW61034   2.461   0.852  10.273
53046SOL    HW161035   2.466   0.849  10.368
53046SOL    HW261036   2.455   0.945  10.251
53047SOL     OW61037  11.920   1.444  10.210
53047SOL    HW161038  11.909   1.529  10.168
53047SOL    HW261039  11.969   1.392  10.146
53048SOL     OW61040   2.939   5.296  14.486
53048SOL    HW161041   2.856   5.342  14.496
53048SOL    HW261042   2.921   5.231  14.418
53049SOL     OW61043   1.097   9.685   5.779
53049SOL    HW161044   1.046   9.762   5.758
53049SOL    HW261045   1.179   9.697   5.730
53050SOL     OW61046  12.144   3.746   9.832
53050SOL    HW161047  12.100   3.705   9.758
53050SOL    HW261048  12.184   3.825   9.795
53051SOL     OW61049  10.248  10.979   8.628
53051SOL    HW161050  10.320  10.918   8.610
53051SOL    HW261051  10.169  10.931   8.603
53052SOL     OW61052  14.669  14.397   6.514
53052SOL    HW161053  14.695  14.453   6.587
53052SOL    HW261054  14.733  14.418   6.445
53053SOL     OW61055   7.589   9.848   3.913
53053SOL    HW161056   7.626   9.860   3.826
53053SOL    HW261057   7.531   9.772   3.904
53054SOL     OW61058   4.117   2.386   3.024
53054SOL    HW161059   4.059   2.406   3.097
53054SOL    HW261060   4.129   2.470   2.979
53055SOL     OW61061  14.460   3.715   7.458
53055SOL    HW161062  14.394   3.770   7.416
53055SOL    HW261063  14.527   3.703   7.391
53056SOL     OW61064  12.694   0.144  12.713
53056SOL    HW161065  12.715   0.051  12.697
53056SOL    HW261066  12.642   0.143  12.793
53057SOL     OW61067   7.739   9.376  12.315
53057SOL    HW161068   7.712   9.285  12.327
53057SOL    HW261069   7.750   9.410  12.404
53058SOL     OW61070   6.306   5.282  13.996
53058SOL    HW161071   6.225   5.264  14.044
53058SOL    HW261072   6.305   5.221  13.923
53059SOL     OW61073   0.168  11.842  10.768
53059SOL    HW161074   0.258  11.815  10.755
53059SOL    HW261075   0.172  11.938  10.776
53060SOL     OW61076   7.588  14.593  10.914
53060SOL    HW161077   7.510  14.538  10.909
53060SOL    HW261078   7.588  14.628  11.003
53061SOL     OW61079   0.081   3.123   3.303
53061SOL    HW161080   0.022   3.195   3.327
53061SOL    HW261081   0.156   3.134   3.362
53062SOL     OW61082  10.409   5.252   8.611
53062SOL    HW161083  10.396   5.329   8.557
53062SOL    HW261084  10.504   5.244   8.619
53063SOL     OW61085   6.075   1.575   3.308
53063SOL    HW161086   6.144   1.579   3.374
53063SOL    HW261087   6.114   1.615   3.231
53064SOL     OW61088   2.188   7.763   7.830
53064SOL    HW161089   2.250   7.741   7.899
53064SOL    HW261090   2.231   7.833   7.781
53065SOL     OW61091  10.817   8.961   5.078
53065SOL    HW161092  10.899   8.993   5.116
53065SOL    HW261093  10.842   8.881   5.032
53066SOL     OW61094   6.225   6.852  14.244
53066SOL    HW161095   6.144   6.864  14.294
53066SOL    HW261096   6.241   6.758  14.246
53067SOL     OW61097  11.128   6.082   9.262
53067SOL    HW161098  11.074   6.078   9.183
53067SOL    HW261099  11.205   6.133   9.235
53068SOL     OW61100   1.152  14.646   7.344
53068SOL    HW161101   1.204  14.725   7.359
53068SOL    HW261102   1.174  14.588   7.417
53069SOL     OW61103  13.203  11.061  13.886
53069SOL    HW161104  13.269  11.079  13.952
53069SOL    HW261105  13.227  10.975  13.850
53070SOL     OW61106  12.883   2.793  12.977
53070SOL    HW161107  12.875   2.701  12.999
53070SOL    HW261108  12.977   2.813  12.987
53071SOL     OW61109   1.344   6.972   6.654
53071SOL    HW161110   1.264   6.921   6.650
53071SOL    HW261111   1.368   6.973   6.747
53072SOL     OW61112   2.232   4.865   2.757
53072SOL    HW161113   2.139   4.859   2.780
53072SOL    HW261114   2.271   4.785   2.792
53073SOL     OW61115  10.213   8.758  14.813
53073SOL    HW161116  10.133   8.751  14.865
53073SOL    HW261117  10.189   8.717  14.729
53074SOL     OW61118  14.551  14.030  14.597
53074SOL    HW161119  14.602  14.109  14.612
53074SOL    HW261120  14.616  13.959  14.597
53075SOL     OW61121   2.377  14.114   9.682
53075SOL    HW161122   2.379  14.208   9.700
53075SOL    HW261123   2.380  14.107   9.587
53076SOL     OW61124  13.790   8.712   9.245
53076SOL    HW161125  13.704   8.707   9.205
53076SOL    HW261126  13.820   8.801   9.225
53077SOL     OW61127   9.556   4.184  14.714
53077SOL    HW161128   9.514   4.265  14.744
53077SOL    HW261129   9.491   4.116  14.733
53078SOL     OW61130   3.597   5.730  12.523
53078SOL    HW161131   3.542   5.772  12.589
53078SOL    HW261132   3.549   5.742  12.441
53079SOL     OW61133   6.062   5.930  14.830
53079SOL    HW161134   5.982   5.916  14.780
53079SOL    HW261135   6.123   5.864  14.797
53080SOL     OW61136   6.555   8.103   1.447
53080SOL    HW161137   6.562   8.072   1.357
53080SOL    HW261138   6.562   8.023   1.500
53081SOL     OW61139   5.754   5.499   6.540
53081SOL    HW161140   5.775   5.414   6.502
53081SOL    HW261141   5.815   5.559   6.498
53082SOL     OW61142  13.431  10.851  11.082
53082SOL    HW161143  13.434  10.755  11.087
53082SOL    HW261144  13.518  10.876  11.052
53083SOL     OW61145   4.042   1.258   1.509
53083SOL    HW161146   4.102   1.328   1.535
53083SOL    HW261147   3.975   1.302   1.457
53084SOL     OW61148   4.330   3.388  11.340
53084SOL    HW161149   4.408   3.338  11.366
53084SOL    HW261150   4.256   3.335  11.370
53085SOL     OW61151  11.862  12.605   7.564
53085SOL    HW161152  11.827  12.644   7.644
53085SOL    HW261153  11.810  12.645   7.494
53086SOL     OW61154   4.641  11.307   5.047
53086SOL    HW161155   4.718  11.357   5.074
53086SOL    HW261156   4.572  11.336   5.106
53087SOL     OW61157   6.714   4.908   1.610
53087SOL    HW161158   6.704   4.959   1.530
53087SOL    HW261159   6.625   4.887   1.636
53088SOL     OW61160   0.380   6.194  14.626
53088SOL    HW161161   0.291   6.228  14.629
53088SOL    HW261162   0.436   6.272  14.628
53089SOL     OW61163  13.422   2.736   7.833
53089SOL    HW161164  13.342   2.719   7.884
53089SOL    HW261165  13.419   2.673   7.761
53090SOL     OW61166   1.458   6.611   4.632
53090SOL    HW161167   1.468   6.539   4.694
53090SOL    HW261168   1.458   6.569   4.546
53091SOL     OW61169   9.223  12.864   1.456
53091SOL    HW161170   9.163  12.939   1.457
53091SOL    HW261171   9.216  12.829   1.367
53092SOL     OW61172  10.131  14.298   8.696
53092SOL    HW161173  10.204  14.246   8.661
53092SOL    HW261174  10.125  14.272   8.788
53093SOL     OW61175  14.145   6.528   8.931
53093SOL    HW161176  14.068   6.563   8.976
53093SOL    HW261177  14.209   6.599   8.935
53094SOL     OW61178   6.177   3.358   7.988
53094SOL    HW161179   6.234   3.412   8.043
53094SOL    HW261180   6.187   3.394   7.900
53095SOL     OW61181  11.510   9.585   9.372
53095SOL    HW161182  11.476   9.548   9.290
53095SOL    HW261183  11.460   9.542   9.441
53096SOL     OW61184   7.985   1.558   4.174
53096SOL    HW161185   8.016   1.479   4.131
53096SOL    HW261186   7.961   1.617   4.102
53097SOL     OW61187  14.166  14.825   3.823
53097SOL    HW161188  14.234  14.819   3.756
53097SOL    HW261189  14.210  14.865   3.898
53098SOL     OW61190  12.252  13.029   2.750
53098SOL    HW161191  12.318  12.995   2.690
53098SOL    HW261192  12.190  13.075   2.693
53099SOL     OW61193  13.285  13.909   1.016
53099SOL    HW161194  13.207  13.889   1.067
53099SOL    HW261195  13.269  13.996   0.980
53100SOL     OW61196   3.463  10.283   7.083
53100SOL    HW161197   3.424  10.329   7.157
53100SOL    HW261198   3.455  10.190   7.106
53101SOL     OW61199  11.164  11.537   4.546
53101SOL    HW161200  11.219  11.597   4.495
53101SOL    HW261201  11.219  11.461   4.562
53102SOL     OW61202   4.104   5.073   5.636
53102SOL    HW161203   4.047   5.112   5.569
53102SOL    HW261204   4.145   4.999   5.592
53103SOL     OW61205   9.696  13.064  12.033
53103SOL    HW161206   9.619  13.103  11.993
53103SOL    HW261207   9.665  13.026  12.116
53104SOL     OW61208   5.477   8.745   7.488
53104SOL    HW161209   5.450   8.818   7.543
53104SOL    HW261210   5.423   8.752   7.410
53105SOL     OW61211   1.047   9.651   9.539
53105SOL    HW161212   1.076   9.590   9.472
53105SOL    HW261213   1.115   9.647   9.606
53106SOL     OW61214   5.274   8.379  13.384
53106SOL    HW161215   5.209   8.376  13.455
53106SOL    HW261216   5.321   8.296  13.392
53107SOL     OW61217  11.524   1.599   8.023
53107SOL    HW161218  11.474   1.587   8.104
53107SOL    HW261219  11.607   1.638   8.052
53108SOL     OW61220  14.813   7.510  10.034
53108SOL    HW161221  14.764   7.461   9.967
53108SOL    HW261222   0.021   7.479  10.025
53109SOL     OW61223   2.598   1.069  14.463
53109SOL    HW161224   2.692   1.084  14.448
53109SOL    HW261225   2.561   1.060  14.375
53110SOL     OW61226   8.272   6.650  13.901
53110SOL    HW161227   8.261   6.664  13.807
53110SOL    HW261228   8.271   6.738  13.938
53111SOL     OW61229   9.923   4.572   3.316
53111SOL    HW161230   9.960   4.616   3.239
53111SOL    HW261231   9.953   4.482   3.309
53112SOL     OW61232   6.212   1.049   9.484
53112SOL    HW161233   6.128   1.094   9.496
53112SOL    HW261234   6.197   0.960   9.516
53113SOL     OW61235   3.171   9.756   7.356
53113SOL    HW161236   3.146   9.698   7.429
53113SOL    HW261237   3.241   9.810   7.392
53114SOL     OW61238   0.017   4.382   1.895
53114SOL    HW161239   0.102   4.399   1.856
53114SOL    HW261240   0.011   4.287   1.900
53115SOL     OW61241  11.556  14.216  14.627
53115SOL    HW161242  11.563  14.307  14.657
53115SOL    HW261243  11.527  14.222  14.536
53116SOL     OW61244   7.343   8.994  11.554
53116SOL    HW161245   7.259   9.000  11.510
53116SOL    HW261246   7.325   9.020  11.645
53117SOL     OW61247   4.206   7.684   8.154
53117SOL    HW161248   4.291   7.641   8.154
53117SOL    HW261249   4.197   7.721   8.066
53118SOL     OW61250   5.841   4.041  12.615
53118SOL    HW161251   5.844   4.023  12.709
53118SOL    HW261252   5.771   3.984  12.582
53119SOL     OW61253   6.260   4.523   5.361
53119SOL    HW161254   6.180   4.505   5.411
53119SOL    HW261255   6.316   4.448   5.379
53120SOL     OW61256   0.924   1.809   1.353
53120SOL    HW161257   0.987   1.857   1.407
53120SOL    HW261258   0.867   1.765   1.415
53121SOL     OW61259  13.496  11.894  14.016
53121SOL    HW161260  13.495  11.988  14.034
53121SOL    HW261261  13.429  11.882  13.949
53122SOL     OW61262  11.307   9.479  13.397
53122SOL    HW161263  11.286   9.405  13.453
53122SOL    HW261264  11.403   9.481  13.396
53123SOL     OW61265  10.925   1.685   3.051
53123SOL    HW161266  10.926   1.592   3.028
53123SOL    HW261267  10.854   1.693   3.114
53124SOL     OW61268   3.636   2.807   0.024
53124SOL    HW161269   3.730   2.823   0.021
53124SOL    HW261270   3.620   2.777   0.114
53125SOL     OW61271   9.493  14.739  10.524
53125SOL    HW161272   9.490  14.648  10.554
53125SOL    HW261273   9.438  14.740  10.446
53126SOL     OW61274   1.477   7.776  14.255
53126SOL    HW161275   1.521   7.751  14.174
53126SOL    HW261276   1.424   7.700  14.278
53127SOL     OW61277   3.120  14.098  12.827
53127SOL    HW161278   3.187  14.156  12.791
53127SOL    HW261279   3.045  14.156  12.845
53128SOL     OW61280  14.798   7.847  12.323
53128SOL    HW161281  14.778   7.905  12.397
53128SOL    HW261282  14.735   7.776  12.330
53129SOL     OW61283   6.336   4.700   3.337
53129SOL    HW161284   6.389   4.779   3.349
53129SOL    HW261285   6.275   4.699   3.411
53130SOL     OW61286   9.696  10.830   6.602
53130SOL    HW161287   9.664  10.919   6.590
53130SOL    HW261288   9.707  10.796   6.513
53131SOL     OW61289   7.282  14.390   5.610
53131SOL    HW161290   7.246  14.405   5.697
53131SOL    HW261291   7.207  14.398   5.551
53132SOL     OW61292  11.710   7.591   7.294
53132SOL    HW161293  11.790   7.639   7.273
53132SOL    HW261294  11.670   7.640   7.366
53133SOL     OW61295  10.743  11.007  11.420
53133SOL    HW161296  10.700  11.005  11.334
53133SOL    HW261297  10.783  10.921  11.428
53134SOL     OW61298   9.556   1.409   0.587
53134SOL    HW161299   9.623   1.472   0.613
53134SOL    HW261300   9.583   1.327   0.628
53135SOL     OW61301   0.232  14.491  10.781
53135SOL    HW161302   0.304  14.450  10.828
53135SOL    HW261303   0.267  14.506  10.693
53136SOL     OW61304  11.970   8.260   9.169
53136SOL    HW161305  11.925   8.286   9.089
53136SOL    HW261306  12.057   8.299   9.161
53137SOL     OW61307  13.911   7.603   5.660
53137SOL    HW161308  13.822   7.588   5.628
53137SOL    HW261309  13.967   7.586   5.585
53138SOL     OW61310   7.345  10.945  14.275
53138SOL    HW161311   7.400  10.990  14.339
53138SOL    HW261312   7.329  11.010  14.207
53139SOL     OW61313  14.469  11.121  11.123
53139SOL    HW161314  14.531  11.098  11.055
53139SOL    HW261315  14.453  11.039  11.171
53140SOL     OW61316   4.861   6.217  12.407
53140SOL    HW161317   4.782   6.257  12.369
53140SOL    HW261318   4.865   6.130  12.369
53141SOL     OW61319  13.994   5.701  10.698
53141SOL    HW161320  14.036   5.648  10.631
53141SOL    HW261321  14.024   5.791  10.680
53142SOL     OW61322  13.705  12.411   1.399
53142SOL    HW161323  13.801  12.411   1.395
53142SOL    HW261324  13.681  12.504   1.402
53143SOL     OW61325   0.043   1.676   9.354
53143SOL    HW161326  14.861   1.704   9.419
53143SOL    HW261327   0.109   1.746   9.354
53144SOL     OW61328   2.989   3.349   9.801
53144SOL    HW161329   2.904   3.393   9.792
53144SOL    HW261330   3.020   3.337   9.712
53145SOL     OW61331   0.335  11.281  12.743
53145SOL    HW161332   0.307  11.202  12.789
53145SOL    HW261333   0.376  11.250  12.663
53146SOL     OW61334   5.122   8.167  11.822
53146SOL    HW161335   5.160   8.233  11.879
53146SOL    HW261336   5.173   8.173  11.741
53147SOL     OW61337   8.051  13.378   0.602
53147SOL    HW161338   8.115  13.307   0.614
53147SOL    HW261339   8.090  13.435   0.535
53148SOL     OW61340  10.687   9.121  10.056
53148SOL    HW161341  10.724   9.207  10.038
53148SOL    HW261342  10.738   9.061  10.001
53149SOL     OW61343  13.921   1.814   5.868
53149SOL    HW161344  13.989   1.818   5.936
53149SOL    HW261345  13.854   1.756   5.904
53150SOL     OW61346   5.217  12.729   7.262
53150SOL    HW161347   5.215  12.644   7.307
53150SOL    HW261348   5.299  12.769   7.290
53151SOL     OW61349   7.306   4.534   8.448
53151SOL    HW161350   7.211   4.523   8.446
53151SOL    HW261351   7.341   4.453   8.410
53152SOL     OW61352   5.155  12.581   6.789
53152SOL    HW161353   5.142  12.646   6.858
53152SOL    HW261354   5.243  12.548   6.802
53153SOL     OW61355   5.605   2.257  11.377
53153SOL    HW161356   5.563   2.306  11.448
53153SOL    HW261357   5.541   2.190  11.353
53154SOL     OW61358  10.038  10.206  14.623
53154SOL    HW161359  10.127  10.171  14.624
53154SOL    HW261360   9.996  10.169  14.700
53155SOL     OW61361   2.765   1.032   2.234
53155SOL    HW161362   2.792   0.941   2.243
53155SOL    HW261363   2.677   1.035   2.272
53156SOL     OW61364  11.004   2.758   4.572
53156SOL    HW161365  10.968   2.690   4.628
53156SOL    HW261366  11.024   2.830   4.631
53157SOL     OW61367  14.376  10.630   2.943
53157SOL    HW161368  14.304  10.582   2.903
53157SOL    HW261369  14.401  10.578   3.019
53158SOL     OW61370   4.701  11.966   2.034
53158SOL    HW161371   4.649  12.046   2.023
53158SOL    HW261372   4.743  11.976   2.119
53159SOL     OW61373   6.970  14.802  10.555
53159SOL    HW161374   6.917  14.882  10.555
53159SOL    HW261375   6.928  14.746  10.489
53160SOL     OW61376   7.346   5.876   8.010
53160SOL    HW161377   7.334   5.864   7.916
53160SOL    HW261378   7.328   5.789   8.048
53161SOL     OW61379   9.350  14.073   1.621
53161SOL    HW161380   9.352  14.161   1.583
53161SOL    HW261381   9.276  14.075   1.681
53162SOL     OW61382   2.248   8.955   4.223
53162SOL    HW161383   2.286   8.873   4.191
53162SOL    HW261384   2.154   8.943   4.212
53163SOL     OW61385   3.414  14.030   6.143
53163SOL    HW161386   3.421  13.955   6.084
53163SOL    HW261387   3.419  14.106   6.085
53164SOL     OW61388   3.931   6.486   6.281
53164SOL    HW161389   3.918   6.572   6.322
53164SOL    HW261390   3.869   6.485   6.208
53165SOL     OW61391  14.037  12.258   9.308
53165SOL    HW161392  13.968  12.321   9.286
53165SOL    HW261393  14.097  12.306   9.364
53166SOL     OW61394   7.918   5.961   9.101
53166SOL    HW161395   7.866   5.993   9.026
53166SOL    HW261396   7.859   5.900   9.145
53167SOL     OW61397   6.192   3.074   6.558
53167SOL    HW161398   6.142   3.060   6.638
53167SOL    HW261399   6.131   3.116   6.498
53168SOL     OW61400  10.573   3.567  11.536
53168SOL    HW161401  10.542   3.657  11.527
53168SOL    HW261402  10.599   3.542  11.447
53169SOL     OW61403   8.904   7.493  11.302
53169SOL    HW161404   8.874   7.527  11.217
53169SOL    HW261405   8.997   7.477  11.290
53170SOL     OW61406   2.163   6.287   3.377
53170SOL    HW161407   2.197   6.261   3.292
53170SOL    HW261408   2.208   6.369   3.397
53171SOL     OW61409   7.625   2.228  11.483
53171SOL    HW161410   7.554   2.172  11.515
53171SOL    HW261411   7.621   2.306  11.538
53172SOL     OW61412  13.338  10.939   4.560
53172SOL    HW161413  13.431  10.956   4.574
53172SOL    HW261414  13.333  10.899   4.473
53173SOL     OW61415   7.448   2.704   6.388
53173SOL    HW161416   7.447   2.638   6.457
53173SOL    HW261417   7.369   2.686   6.337
53174SOL     OW61418   2.487   8.226   8.996
53174SOL    HW161419   2.410   8.273   8.964
53174SOL    HW261420   2.551   8.232   8.925
53175SOL     OW61421  12.857  13.773  14.074
53175SOL    HW161422  12.866  13.864  14.099
53175SOL    HW261423  12.929  13.757  14.013
53176SOL     OW61424   7.153   0.758  12.991
53176SOL    HW161425   7.135   0.748  12.897
53176SOL    HW261426   7.243   0.730  13.001
53177SOL     OW61427   2.975   5.717   3.604
53177SOL    HW161428   2.943   5.645   3.659
53177SOL    HW261429   2.944   5.796   3.649
53178SOL     OW61430  11.373   0.270   3.056
53178SOL    HW161431  11.327   0.276   3.140
53178SOL    HW261432  11.423   0.189   3.061
53179SOL     OW61433  14.022   9.721   8.020
53179SOL    HW161434  14.026   9.719   8.116
53179SOL    HW261435  14.030   9.814   7.998
53180SOL     OW61436  10.574   3.594   2.919
53180SOL    HW161437  10.574   3.500   2.902
53180SOL    HW261438  10.609   3.603   3.007
53181SOL     OW61439   5.347   1.612   9.141
53181SOL    HW161440   5.263   1.595   9.099
53181SOL    HW261441   5.373   1.528   9.180
53182SOL     OW61442  12.884  13.632   6.710
53182SOL    HW161443  12.794  13.602   6.694
53182SOL    HW261444  12.938  13.555   6.694
53183SOL     OW61445   9.321   7.857   4.964
53183SOL    HW161446   9.285   7.920   5.027
53183SOL    HW261447   9.281   7.773   4.990
53184SOL     OW61448   1.904   1.158   0.308
53184SOL    HW161449   1.901   1.078   0.256
53184SOL    HW261450   1.826   1.207   0.282
53185SOL     OW61451  10.409   2.126   4.132
53185SOL    HW161452  10.419   2.204   4.078
53185SOL    HW261453  10.314   2.113   4.138
53186SOL     OW61454   8.431   9.310  11.731
53186SOL    HW161455   8.390   9.326  11.646
53186SOL    HW261456   8.360   9.282  11.788
53187SOL     OW61457   3.433  10.160  13.530
53187SOL    HW161458   3.443  10.241  13.579
53187SOL    HW261459   3.338  10.145  13.526
53188SOL     OW61460  13.657   7.031   4.491
53188SOL    HW161461  13.682   7.111   4.539
53188SOL    HW261462  13.569   7.050   4.459
53189SOL     OW61463   8.934   4.651  11.834
53189SOL    HW161464   8.841   4.659  11.817
53189SOL    HW261465   8.951   4.557  11.838
53190SOL     OW61466   3.925   6.644  12.854
53190SOL    HW161467   3.985   6.579  12.817
53190SOL    HW261468   3.945   6.645  12.947
53191SOL     OW61469   5.901   0.478   2.995
53191SOL    HW161470   5.846   0.536   3.048
53191SOL    HW261471   5.842   0.444   2.928
53192SOL     OW61472   5.025   7.279   2.534
53192SOL    HW161473   5.101   7.220   2.540
53192SOL    HW261474   4.953   7.222   2.507
53193SOL     OW61475  14.230  14.568   1.051
53193SOL    HW161476  14.162  14.601   0.993
53193SOL    HW261477  14.255  14.483   1.013
53194SOL     OW61478  13.328  12.754   6.673
53194SOL    HW161479  13.376  12.770   6.592
53194SOL    HW261480  13.236  12.759   6.648
53195SOL     OW61481   6.797   5.423   4.792
53195SOL    HW161482   6.843   5.348   4.754
53195SOL    HW261483   6.735   5.385   4.854
53196SOL     OW61484   1.567   7.374   7.297
53196SOL    HW161485   1.472   7.360   7.293
53196SOL    HW261486   1.602   7.289   7.323
53197SOL     OW61487  14.561   4.641   1.124
53197SOL    HW161488  14.589   4.559   1.164
53197SOL    HW261489  14.465   4.633   1.117
53198SOL     OW61490   3.380  14.786   1.135
53198SOL    HW161491   3.350  14.696   1.152
53198SOL    HW261492   3.320  14.841   1.185
53199SOL     OW61493   9.334   6.499   0.282
53199SOL    HW161494   9.428   6.510   0.293
53199SOL    HW261495   9.308   6.570   0.222
53200SOL     OW61496  14.805   8.309   4.872
53200SOL    HW161497  14.812   8.403   4.889
53200SOL    HW261498  14.722   8.300   4.826
53201SOL     OW61499  11.299   7.884   4.363
53201SOL    HW161500  11.276   7.972   4.333
53201SOL    HW261501  11.392   7.875   4.343
53202SOL     OW61502   9.613   1.529   1.733
53202SOL    HW161503   9.560   1.558   1.807
53202SOL    HW261504   9.571   1.448   1.704
53203SOL     OW61505   8.554   3.712  12.977
53203SOL    HW161506   8.576   3.798  13.012
53203SOL    HW261507   8.461   3.717  12.957
53204SOL     OW61508   0.157   1.805   0.521
53204SOL    HW161509   0.118   1.876   0.470
53204SOL    HW261510   0.228   1.772   0.466
53205SOL     OW61511  11.507  12.459  14.696
53205SOL    HW161512  11.416  12.460  14.669
53205SOL    HW261513  11.552  12.514  14.632
53206SOL     OW61514  13.441   9.304  12.281
53206SOL    HW161515  13.442   9.266  12.368
53206SOL    HW261516  13.434   9.398  12.296
53207SOL     OW61517  13.409  14.607   0.665
53207SOL    HW161518  13.475  14.587   0.731
53207SOL    HW261519  13.442  14.685   0.620
53208SOL     OW61520  14.663   2.659   5.620
53208SOL    HW161521  14.672   2.564   5.612
53208SOL    HW261522  14.680   2.677   5.713
53209SOL     OW61523   0.379   5.881   4.961
53209SOL    HW161524   0.319   5.921   5.024
53209SOL    HW261525   0.458   5.935   4.966
53210SOL     OW61526  11.432   0.064   5.871
53210SOL    HW161527  11.424   0.126   5.799
53210SOL    HW261528  11.526   0.063   5.892
53211SOL     OW61529  12.768  12.858  14.491
53211SOL    HW161530  12.705  12.845  14.562
53211SOL    HW261531  12.821  12.933  14.520
53212SOL     OW61532  14.305   1.750   1.975
53212SOL    HW161533  14.354   1.800   2.040
53212SOL    HW261534  14.309   1.802   1.896
53213SOL     OW61535   0.828   0.169  12.200
53213SOL    HW161536   0.853   0.260  12.214
53213SOL    HW261537   0.805   0.165  12.107
53214SOL     OW61538   5.322   9.305  11.042
53214SOL    HW161539   5.241   9.265  11.008
53214SOL    HW261540   5.337   9.261  11.126
53215SOL     OW61541   4.462   4.274   1.521
53215SOL    HW161542   4.538   4.239   1.475
53215SOL    HW261543   4.410   4.317   1.454
53216SOL     OW61544   4.400   8.286   7.007
53216SOL    HW161545   4.354   8.356   6.960
53216SOL    HW261546   4.467   8.256   6.946
53217SOL     OW61547   5.092   0.884   5.703
53217SOL    HW161548   5.121   0.966   5.662
53217SOL    HW261549   5.029   0.847   5.641
53218SOL     OW61550  12.164  11.430   1.632
53218SOL    HW161551  12.132  11.509   1.675
53218SOL    HW261552  12.111  11.359   1.669
53219SOL     OW61553   1.520  14.827   9.254
53219SOL    HW161554   1.540   0.018   9.194
53219SOL    HW261555   1.563  14.751   9.215
53220SOL     OW61556   5.630   9.917   8.323
53220SOL    HW161557   5.570   9.855   8.365
53220SOL    HW261558   5.658   9.872   8.243
53221SOL     OW61559   0.043   7.099   7.870
53221SOL    HW161560   0.071   7.117   7.959
53221SOL    HW261561   0.107   7.145   7.815
53222SOL     OW61562  10.056  14.577  14.327
53222SOL    HW161563  10.019  14.489  14.338
53222SOL    HW261564  10.039  14.621  14.410
53223SOL     OW61565   2.763   0.155   7.777
53223SOL    HW161566   2.722   0.075   7.746
53223SOL    HW261567   2.832   0.125   7.837
53224SOL     OW61568   0.323  10.483   6.209
53224SOL    HW161569   0.375  10.479   6.129
53224SOL    HW261570   0.236  10.509   6.180
53225SOL     OW61571   9.479   8.917   4.866
53225SOL    HW161572   9.555   8.868   4.832
53225SOL    HW261573   9.497   9.008   4.842
53226SOL     OW61574  12.915   6.283  12.099
53226SOL    HW161575  12.984   6.324  12.048
53226SOL    HW261576  12.942   6.293  12.190
53227SOL     OW61577  12.616   3.757  12.431
53227SOL    HW161578  12.561   3.826  12.393
53227SOL    HW261579  12.665   3.722  12.357
53228SOL     OW61580   7.065  14.774   3.123
53228SOL    HW161581   6.975  14.763   3.092
53228SOL    HW261582   7.119  14.736   3.054
53229SOL     OW61583   2.695   8.917   0.988
53229SOL    HW161584   2.639   8.853   0.946
53229SOL    HW261585   2.635   8.981   1.027
53230SOL     OW61586  12.111   5.965   4.689
53230SOL    HW161587  12.032   5.940   4.641
53230SOL    HW261588  12.141   6.044   4.644
53231SOL     OW61589   2.087  13.556   5.329
53231SOL    HW161590   2.088  13.493   5.257
53231SOL    HW261591   2.027  13.625   5.301
53232SOL     OW61592  14.833   4.815   3.657
53232SOL    HW161593  14.787   4.738   3.690
53232SOL    HW261594  14.846   4.798   3.564
53233SOL     OW61595  12.463   9.564  10.299
53233SOL    HW161596  12.470   9.475  10.332
53233SOL    HW261597  12.390   9.603  10.348
53234SOL     OW61598   3.701   4.978   1.964
53234SOL    HW161599   3.744   5.039   2.023
53234SOL    HW261600   3.720   5.011   1.876
53235SOL     OW61601   0.298   3.793  11.417
53235SOL    HW161602   0.204   3.810  11.417
53235SOL    HW261603   0.323   3.796  11.509
53236SOL     OW61604   3.355  11.102  13.005
53236SOL    HW161605   3.296  11.038  13.045
53236SOL    HW261606   3.299  11.174  12.978
53237SOL     OW61607   0.070  11.105  13.631
53237SOL    HW161608   0.077  11.110  13.536
53237SOL    HW261609   0.086  11.195  13.661
53238SOL     OW61610   9.802  12.761  11.381
53238SOL    HW161611   9.811  12.730  11.472
53238SOL    HW261612   9.890  12.789  11.357
53239SOL     OW61613   1.480   9.101  13.364
53239SOL    HW161614   1.508   9.022  13.318
53239SOL    HW261615   1.494   9.082  13.457
53240SOL     OW61616   4.266   7.282   8.987
53240SOL    HW161617   4.274   7.261   8.894
53240SOL    HW261618   4.344   7.244   9.027
53241SOL     OW61619  12.635   6.171  13.211
53241SOL    HW161620  12.561   6.197  13.266
53241SOL    HW261621  12.628   6.075  13.206
53242SOL     OW61622   5.708   9.157   7.378
53242SOL    HW161623   5.694   9.124   7.289
53242SOL    HW261624   5.705   9.252   7.369
53243SOL     OW61625   7.014   2.665  11.431
53243SOL    HW161626   6.967   2.620  11.501
53243SOL    HW261627   7.103   2.632  11.436
53244SOL     OW61628   0.365   7.043  14.189
53244SOL    HW161629   0.338   6.962  14.232
53244SOL    HW261630   0.294   7.062  14.128
53245SOL     OW61631  11.849  14.046   6.372
53245SOL    HW161632  11.930  14.003   6.399
53245SOL    HW261633  11.873  14.139   6.365
53246SOL     OW61634  11.620  12.653   4.661
53246SOL    HW161635  11.615  12.563   4.695
53246SOL    HW261636  11.708  12.660   4.625
53247SOL     OW61637   3.242  11.194  12.479
53247SOL    HW161638   3.253  11.109  12.437
53247SOL    HW261639   3.292  11.186  12.560
53248SOL     OW61640   4.758   1.803   5.528
53248SOL    HW161641   4.809   1.727   5.554
53248SOL    HW261642   4.806   1.878   5.565
53249SOL     OW61643   8.499   9.791   0.962
53249SOL    HW161644   8.450   9.750   1.034
53249SOL    HW261645   8.579   9.824   1.003
53250SOL     OW61646   9.834   3.135  10.053
53250SOL    HW161647   9.745   3.167  10.041
53250SOL    HW261648   9.825   3.040  10.051
53251SOL     OW61649   3.291   0.441  11.616
53251SOL    HW161650   3.255   0.528  11.633
53251SOL    HW261651   3.229   0.400  11.556
53252SOL     OW61652  10.183   4.656   5.255
53252SOL    HW161653  10.272   4.649   5.221
53252SOL    HW261654  10.128   4.623   5.184
53253SOL     OW61655   7.759  14.233   8.334
53253SOL    HW161656   7.775  14.154   8.386
53253SOL    HW261657   7.843  14.279   8.335
53254SOL     OW61658  12.417   7.268   3.669
53254SOL    HW161659  12.439   7.299   3.757
53254SOL    HW261660  12.326   7.297   3.656
53255SOL     OW61661   4.688  11.412  10.678
53255SOL    HW161662   4.646  11.327  10.661
53255SOL    HW261663   4.760  11.391  10.736
53256SOL     OW61664  12.272   2.482   6.272
53256SOL    HW161665  12.244   2.422   6.342
53256SOL    HW261666  12.201   2.546   6.265
53257SOL     OW61667   8.278   8.595  12.322
53257SOL    HW161668   8.369   8.602  12.292
53257SOL    HW261669   8.226   8.593  12.241
53258SOL     OW61670   6.379   4.915   1.823
53258SOL    HW161671   6.349   4.897   1.912
53258SOL    HW261672   6.359   4.835   1.775
53259SOL     OW61673   1.032   0.831   4.312
53259SOL    HW161674   1.108   0.852   4.259
53259SOL    HW261675   1.007   0.742   4.286
53260SOL     OW61676   5.617   0.362  14.061
53260SOL    HW161677   5.631   0.317  14.144
53260SOL    HW261678   5.704   0.361  14.019
53261SOL     OW61679   2.988   8.082  12.478
53261SOL    HW161680   3.075   8.068  12.442
53261SOL    HW261681   2.929   8.041  12.416
53262SOL     OW61682   9.785   1.262   7.742
53262SOL    HW161683   9.799   1.208   7.819
53262SOL    HW261684   9.712   1.220   7.696
53263SOL     OW61685   7.216  13.442  13.486
53263SOL    HW161686   7.299  13.395  13.495
53263SOL    HW261687   7.162  13.411  13.559
53264SOL     OW61688  10.099   6.678   1.152
53264SOL    HW161689  10.075   6.761   1.194
53264SOL    HW261690  10.192   6.688   1.132
53265SOL     OW61691   4.925   1.418   8.518
53265SOL    HW161692   4.834   1.448   8.517
53265SOL    HW261693   4.976   1.494   8.544
53266SOL     OW61694   3.441  10.623  11.699
53266SOL    HW161695   3.423  10.710  11.734
53266SOL    HW261696   3.436  10.565  11.775
53267SOL     OW61697  12.150   6.617   1.371
53267SOL    HW161698  12.199   6.696   1.348
53267SOL    HW261699  12.168   6.556   1.299
53268SOL     OW61700   8.661   4.801   9.191
53268SOL    HW161701   8.718   4.869   9.157
53268SOL    HW261702   8.632   4.752   9.114
53269SOL     OW61703  14.603   3.631  14.802
53269SOL    HW161704  14.546   3.621  14.878
53269SOL    HW261705  14.590   3.722  14.774
53270SOL     OW61706  10.100   1.668  11.970
53270SOL    HW161707  10.021   1.703  11.929
53270SOL    HW261708  10.101   1.708  12.057
53271SOL     OW61709   6.733   7.795  14.723
53271SOL    HW161710   6.639   7.782  14.712
53271SOL    HW261711   6.740   7.887  14.750
53272SOL     OW61712   2.903  13.578  10.279
53272SOL    HW161713   2.810  13.594  10.268
53272SOL    HW261714   2.924  13.511  10.214
53273SOL     OW61715   6.848   8.709   0.958
53273SOL    HW161716   6.898   8.634   0.990
53273SOL    HW261717   6.845   8.696   0.863
53274SOL     OW61718  11.868   6.841  11.900
53274SOL    HW161719  11.836   6.928  11.875
53274SOL    HW261720  11.839   6.784  11.829
53275SOL     OW61721   9.881  11.294   4.118
53275SOL    HW161722   9.877  11.389   4.119
53275SOL    HW261723   9.793  11.265   4.142
53276SOL     OW61724   9.892   1.303  10.702
53276SOL    HW161725   9.988   1.311  10.710
53276SOL    HW261726   9.863   1.277  10.789
53277SOL     OW61727  10.208   1.807  11.641
53277SOL    HW161728  10.189   1.899  11.655
53277SOL    HW261729  10.173   1.788  11.554
53278SOL     OW61730  10.435  10.229   6.640
53278SOL    HW161731  10.435  10.168   6.713
53278SOL    HW261732  10.458  10.313   6.679
53279SOL     OW61733   7.550   9.939   6.522
53279SOL    HW161734   7.594  10.019   6.551
53279SOL    HW261735   7.576   9.873   6.587
53280SOL     OW61736  14.098   4.481  13.291
53280SOL    HW161737  14.047   4.452  13.216
53280SOL    HW261738  14.061   4.566  13.314
53281SOL     OW61739   2.322   0.041   5.469
53281SOL    HW161740   2.416   0.058   5.464
53281SOL    HW261741   2.292   0.099   5.539
53282SOL     OW61742   9.569  14.559   4.218
53282SOL    HW161743   9.562  14.477   4.170
53282SOL    HW261744   9.500  14.614   4.180
53283SOL     OW61745  13.770   3.573   7.391
53283SOL    HW161746  13.678   3.565   7.367
53283SOL    HW261747  13.793   3.663   7.369
53284SOL     OW61748  11.208   9.681   2.597
53284SOL    HW161749  11.243   9.720   2.517
53284SOL    HW261750  11.196   9.754   2.657
53285SOL     OW61751  12.546  12.390   2.139
53285SOL    HW161752  12.538  12.467   2.083
53285SOL    HW261753  12.456  12.368   2.162
53286SOL     OW61754  12.000  12.263  12.325
53286SOL    HW161755  11.974  12.214  12.247
53286SOL    HW261756  12.095  12.252  12.329
53287SOL     OW61757  13.757   8.085  14.395
53287SOL    HW161758  13.696   8.033  14.344
53287SOL    HW261759  13.781   8.028  14.469
53288SOL     OW61760   0.742   9.037  12.835
53288SOL    HW161761   0.755   8.976  12.763
53288SOL    HW261762   0.647   9.047  12.841
53289SOL     OW61763  13.274  11.929   8.819
53289SOL    HW161764  13.205  11.865   8.838
53289SOL    HW261765  13.302  11.960   8.905
53290SOL     OW61766  10.487   7.698   4.592
53290SOL    HW161767  10.527   7.784   4.580
53290SOL    HW261768  10.522   7.645   4.520
53291SOL     OW61769  10.421   7.710   6.848
53291SOL    HW161770  10.417   7.771   6.921
53291SOL    HW261771  10.511   7.676   6.849
53292SOL     OW61772  14.634   9.354   2.128
53292SOL    HW161773  14.621   9.267   2.165
53292SOL    HW261774  14.697   9.396   2.187
53293SOL     OW61775   0.015   4.473   2.694
53293SOL    HW161776  14.807   4.504   2.704
53293SOL    HW261777   0.067   4.532   2.750
53294SOL     OW61778   8.456   8.006   1.316
53294SOL    HW161779   8.527   8.062   1.347
53294SOL    HW261780   8.380   8.063   1.311
53295SOL     OW61781   8.178   0.888   3.311
53295SOL    HW161782   8.231   0.935   3.376
53295SOL    HW261783   8.088   0.913   3.331
53296SOL     OW61784   5.192   8.887  14.474
53296SOL    HW161785   5.242   8.968  14.469
53296SOL    HW261786   5.197   8.862  14.567
53297SOL     OW61787  14.464   0.099  10.478
53297SOL    HW161788  14.408   0.051  10.417
53297SOL    HW261789  14.428   0.187  10.480
53298SOL     OW61790   6.349   0.066   7.601
53298SOL    HW161791   6.439   0.034   7.602
53298SOL    HW261792   6.301   0.002   7.549
53299SOL     OW61793   2.376   0.609   8.245
53299SOL    HW161794   2.280   0.599   8.247
53299SOL    HW261795   2.390   0.690   8.196
53300SOL     OW61796  10.849   7.635   4.116
53300SOL    HW161797  10.817   7.592   4.037
53300SOL    HW261798  10.912   7.700   4.086
53301SOL     OW61799  10.839  10.793   7.476
53301SOL    HW161800  10.917  10.797   7.533
53301SOL    HW261801  10.846  10.708   7.433
53302SOL     OW61802   1.452   5.666   1.086
53302SOL    HW161803   1.497   5.746   1.059
53302SOL    HW261804   1.377   5.696   1.136
53303SOL     OW61805   6.190   4.190   6.678
53303SOL    HW161806   6.131   4.117   6.658
53303SOL    HW261807   6.239   4.160   6.755
53304SOL     OW61808   1.963   3.445   2.486
53304SOL    HW161809   2.051   3.446   2.448
53304SOL    HW261810   1.932   3.535   2.477
53305SOL     OW61811  11.329   0.794   0.438
53305SOL    HW161812  11.305   0.711   0.396
53305SOL    HW261813  11.248   0.845   0.436
53306SOL     OW61814   6.401   0.529   7.046
53306SOL    HW161815   6.493   0.515   7.068
53306SOL    HW261816   6.403   0.584   6.967
53307SOL     OW61817   7.338   8.298   2.067
53307SOL    HW161818   7.271   8.239   2.102
53307SOL    HW261819   7.295   8.383   2.061
53308SOL     OW61820   3.427   9.689  12.987
53308SOL    HW161821   3.514   9.713  13.020
53308SOL    HW261822   3.386   9.643  13.061
53309SOL     OW61823   2.081   5.947  11.566
53309SOL    HW161824   2.100   5.877  11.629
53309SOL    HW261825   1.987   5.964  11.576
53310SOL     OW61826   0.509  14.098   5.431
53310SOL    HW161827   0.485  14.037   5.500
53310SOL    HW261828   0.600  14.121   5.449
53311SOL     OW61829   8.162   7.191   1.407
53311SOL    HW161830   8.139   7.255   1.473
53311SOL    HW261831   8.222   7.237   1.348
53312SOL     OW61832  14.414   7.746  14.305
53312SOL    HW161833  14.451   7.829  14.273
53312SOL    HW261834  14.351   7.772  14.372
53313SOL     OW61835   2.015   0.938   9.299
53313SOL    HW161836   1.928   0.900   9.305
53313SOL    HW261837   2.000   1.033   9.306
53314SOL     OW61838  14.452  14.176   6.831
53314SOL    HW161839  14.409  14.100   6.869
53314SOL    HW261840  14.445  14.244   6.898
53315SOL     OW61841   8.785   6.455   5.052
53315SOL    HW161842   8.808   6.502   5.132
53315SOL    HW261843   8.776   6.524   4.986
53316SOL     OW61844   4.188  10.875   5.283
53316SOL    HW161845   4.201  10.894   5.376
53316SOL    HW261846   4.144  10.790   5.282
53317SOL     OW61847  10.488  12.936   5.928
53317SOL    HW161848  10.415  12.988   5.962
53317SOL    HW261849  10.492  12.958   5.835
53318SOL     OW61850   3.926   1.161  11.893
53318SOL    HW161851   3.883   1.245  11.911
53318SOL    HW261852   3.857   1.096  11.907
53319SOL     OW61853   4.574   7.074  10.250
53319SOL    HW161854   4.629   7.060  10.327
53319SOL    HW261855   4.615   7.023  10.181
53320SOL     OW61856   3.388  12.850   5.233
53320SOL    HW161857   3.329  12.788   5.191
53320SOL    HW261858   3.391  12.822   5.325
53321SOL     OW61859  11.232  12.270   1.637
53321SOL    HW161860  11.212  12.316   1.719
53321SOL    HW261861  11.151  12.272   1.587
53322SOL     OW61862  12.811  12.955  13.477
53322SOL    HW161863  12.746  13.020  13.449
53322SOL    HW261864  12.854  12.994  13.552
53323SOL     OW61865   0.308   8.307  11.704
53323SOL    HW161866   0.333   8.228  11.751
53323SOL    HW261867   0.341   8.379  11.758
53324SOL     OW61868  12.911   6.069   3.787
53324SOL    HW161869  12.905   6.163   3.803
53324SOL    HW261870  12.881   6.058   3.697
53325SOL     OW61871  11.472   5.438  12.649
53325SOL    HW161872  11.516   5.353  12.646
53325SOL    HW261873  11.388   5.423  12.604
53326SOL     OW61874   7.713   5.564   3.050
53326SOL    HW161875   7.701   5.645   3.100
53326SOL    HW261876   7.807   5.554   3.042
53327SOL     OW61877   5.600   5.730   9.453
53327SOL    HW161878   5.569   5.746   9.364
53327SOL    HW261879   5.693   5.710   9.442
53328SOL     OW61880   0.033   0.584   9.398
53328SOL    HW161881  14.826   0.613   9.415
53328SOL    HW261882   0.029   0.544   9.311
53329SOL     OW61883  13.128   3.254   7.938
53329SOL    HW161884  13.155   3.346   7.943
53329SOL    HW261885  13.064   3.252   7.867
53330SOL     OW61886  11.194   1.048   5.544
53330SOL    HW161887  11.151   0.971   5.509
53330SOL    HW261888  11.219   1.099   5.466
53331SOL     OW61889   0.752   7.136   9.851
53331SOL    HW161890   0.700   7.056   9.849
53331SOL    HW261891   0.693   7.203   9.884
53332SOL     OW61892   7.598  12.237  13.829
53332SOL    HW161893   7.636  12.180  13.762
53332SOL    HW261894   7.674  12.277  13.872
53333SOL     OW61895   0.461  11.341   4.908
53333SOL    HW161896   0.545  11.387   4.904
53333SOL    HW261897   0.442  11.319   4.817
53334SOL     OW61898  11.249   0.880   4.698
53334SOL    HW161899  11.294   0.800   4.675
53334SOL    HW261900  11.286   0.906   4.782
53335SOL     OW61901   9.099  12.405  12.383
53335SOL    HW161902   9.148  12.486  12.371
53335SOL    HW261903   9.165  12.340  12.407
53336SOL     OW61904   0.512   1.649   4.260
53336SOL    HW161905   0.577   1.673   4.327
53336SOL    HW261906   0.429   1.649   4.307
53337SOL     OW61907  11.315   8.543   5.804
53337SOL    HW161908  11.402   8.544   5.763
53337SOL    HW261909  11.254   8.543   5.730
53338SOL     OW61910   7.757  12.061   3.308
53338SOL    HW161911   7.684  12.022   3.356
53338SOL    HW261912   7.716  12.129   3.254
53339SOL     OW61913   2.102  13.037   4.503
53339SOL    HW161914   2.158  13.048   4.579
53339SOL    HW261915   2.018  13.006   4.538
53340SOL     OW61916   8.177   1.583   6.022
53340SOL    HW161917   8.161   1.489   6.031
53340SOL    HW261918   8.121   1.611   5.950
53341SOL     OW61919  12.891  14.617   5.873
53341SOL    HW161920  12.811  14.612   5.925
53341SOL    HW261921  12.894  14.708   5.842
53342SOL     OW61922   9.207  14.568   7.624
53342SOL    HW161923   9.202  14.556   7.530
53342SOL    HW261924   9.228  14.660   7.636
53343SOL     OW61925   0.116   6.587   2.189
53343SOL    HW161926   0.106   6.494   2.207
53343SOL    HW261927   0.193   6.614   2.240
53344SOL     OW61928   5.987  13.831  14.340
53344SOL    HW161929   5.897  13.799  14.345
53344SOL    HW261930   6.038  13.768  14.392
53345SOL     OW61931   9.713  11.441   8.593
53345SOL    HW161932   9.682  11.444   8.684
53345SOL    HW261933   9.752  11.354   8.584
53346SOL     OW61934  11.385   5.235  13.170
53346SOL    HW161935  11.472   5.217  13.207
53346SOL    HW261936  11.343   5.149  13.165
53347SOL     OW61937   5.994   7.809   9.381
53347SOL    HW161938   6.078   7.854   9.374
53347SOL    HW261939   5.969   7.792   9.290
53348SOL     OW61940  10.247  12.483  14.142
53348SOL    HW161941  10.306  12.540  14.092
53348SOL    HW261942  10.283  12.485  14.231
53349SOL     OW61943  12.250   0.726  14.082
53349SOL    HW161944  12.257   0.654  14.020
53349SOL    HW261945  12.210   0.688  14.159
53350SOL     OW61946   6.143   8.295   6.879
53350SOL    HW161947   6.150   8.368   6.817
53350SOL    HW261948   6.198   8.321   6.953
53351SOL     OW61949   7.542   1.528   4.866
53351SOL    HW161950   7.501   1.534   4.780
53351SOL    HW261951   7.469   1.531   4.928
53352SOL     OW61952   9.786   4.136  10.842
53352SOL    HW161953   9.874   4.106  10.818
53352SOL    HW261954   9.729   4.064  10.817
53353SOL     OW61955   6.371   7.508   5.893
53353SOL    HW161956   6.431   7.514   5.818
53353SOL    HW261957   6.315   7.585   5.885
53354SOL     OW61958   7.253  11.400   0.243
53354SOL    HW161959   7.200  11.456   0.186
53354SOL    HW261960   7.296  11.338   0.183
53355SOL     OW61961   6.564  14.070   0.801
53355SOL    HW161962   6.555  14.128   0.877
53355SOL    HW261963   6.633  14.009   0.827
53356SOL     OW61964  13.508   9.333   5.914
53356SOL    HW161965  13.448   9.405   5.934
53356SOL    HW261966  13.450   9.263   5.884
53357SOL     OW61967  13.396   4.913   9.305
53357SOL    HW161968  13.378   4.835   9.358
53357SOL    HW261969  13.432   4.977   9.367
53358SOL     OW61970   0.902   7.629   9.678
53358SOL    HW161971   0.993   7.615   9.706
53358SOL    HW261972   0.904   7.617   9.583
53359SOL     OW61973  10.762  12.593   4.329
53359SOL    HW161974  10.683  12.606   4.277
53359SOL    HW261975  10.751  12.507   4.370
53360SOL     OW61976   6.136   2.838   3.118
53360SOL    HW161977   6.171   2.751   3.138
53360SOL    HW261978   6.213   2.891   3.098
53361SOL     OW61979   7.167   2.556  14.397
53361SOL    HW161980   7.151   2.583  14.307
53361SOL    HW261981   7.091   2.588  14.446
53362SOL     OW61982   2.389   8.898  10.873
53362SOL    HW161983   2.324   8.879  10.941
53362SOL    HW261984   2.404   8.992  10.880
53363SOL     OW61985   0.997   9.471   4.031
53363SOL    HW161986   1.017   9.467   3.937
53363SOL    HW261987   1.079   9.498   4.072
53364SOL     OW61988  10.911   5.747   4.910
53364SOL    HW161989  10.996   5.724   4.873
53364SOL    HW261990  10.881   5.667   4.953
53365SOL     OW61991   2.179   2.776  12.496
53365SOL    HW161992   2.267   2.769  12.458
53365SOL    HW261993   2.184   2.853  12.553
53366SOL     OW61994  10.146   5.923   4.292
53366SOL    HW161995  10.169   5.997   4.236
53366SOL    HW261996  10.160   5.846   4.238
53367SOL     OW61997   3.635  13.366   6.078
53367SOL    HW161998   3.674  13.351   6.164
53367SOL    HW261999   3.584  13.286   6.061
53368SOL     OW62000   5.069  13.773   0.794
53368SOL    HW162001   5.067  13.745   0.702
53368SOL    HW262002   5.131  13.846   0.794
53369SOL     OW62003   5.580   7.091  11.496
53369SOL    HW162004   5.492   7.053  11.501
53369SOL    HW262005   5.565   7.182  11.470
53370SOL     OW62006  12.061  11.135   5.546
53370SOL    HW162007  12.049  11.040   5.553
53370SOL    HW262008  12.006  11.171   5.616
53371SOL     OW62009  10.129   4.967   9.199
53371SOL    HW162010  10.034   4.958   9.201
53371SOL    HW262011  10.157   4.913   9.124
53372SOL     OW62012  14.380   6.351   1.754
53372SOL    HW162013  14.303   6.395   1.790
53372SOL    HW262014  14.438   6.341   1.829
53373SOL     OW62015   9.934   0.915   1.512
53373SOL    HW162016   9.967   1.005   1.509
53373SOL    HW262017   9.972   0.873   1.435
53374SOL     OW62018   6.882   1.319  14.518
53374SOL    HW162019   6.908   1.230  14.492
53374SOL    HW262020   6.819   1.305  14.589
53375SOL     OW62021  14.013  10.907   1.308
53375SOL    HW162022  14.022  10.888   1.401
53375SOL    HW262023  13.929  10.952   1.300
53376SOL     OW62024  14.170   0.986   4.452
53376SOL    HW162025  14.219   1.039   4.390
53376SOL    HW262026  14.091   0.960   4.405
53377SOL     OW62027   4.847   1.398   0.235
53377SOL    HW162028   4.820   1.349   0.157
53377SOL    HW262029   4.890   1.477   0.200
53378SOL     OW62030   3.080   1.505   2.733
53378SOL    HW162031   3.145   1.485   2.800
53378SOL    HW262032   2.998   1.513   2.781
53379SOL     OW62033  14.056   3.109   2.833
53379SOL    HW162034  14.084   3.062   2.912
53379SOL    HW262035  14.111   3.073   2.763
53380SOL     OW62036  12.729  14.774   9.108
53380SOL    HW162037  12.814  14.748   9.074
53380SOL    HW262038  12.701  14.700   9.162
53381SOL     OW62039   1.991   6.969   7.992
53381SOL    HW162040   2.013   7.017   8.072
53381SOL    HW262041   1.970   6.880   8.023
53382SOL     OW62042  11.197   8.727   7.320
53382SOL    HW162043  11.135   8.755   7.253
53382SOL    HW262044  11.165   8.641   7.348
53383SOL     OW62045   9.058  10.686   1.740
53383SOL    HW162046   8.977  10.693   1.689
53383SOL    HW262047   9.032  10.640   1.820
53384SOL     OW62048   9.079   0.119  13.474
53384SOL    HW162049   9.102   0.042  13.422
53384SOL    HW262050   9.136   0.188  13.442
53385SOL     OW62051   8.670   0.239   6.736
53385SOL    HW162052   8.731   0.302   6.774
53385SOL    HW262053   8.636   0.190   6.811
53386SOL     OW62054   7.137   4.275  13.396
53386SOL    HW162055   7.167   4.280  13.487
53386SOL    HW262056   7.118   4.366  13.372
53387SOL     OW62057   6.785  14.110   3.567
53387SOL    HW162058   6.699  14.082   3.536
53387SOL    HW262059   6.827  14.029   3.597
53388SOL     OW62060  12.040   6.653   8.785
53388SOL    HW162061  12.103   6.713   8.826
53388SOL    HW262062  12.055   6.569   8.830
53389SOL     OW62063   6.291   0.528  14.008
53389SOL    HW162064   6.275   0.441  14.045
53389SOL    HW262065   6.312   0.510  13.916
53390SOL     OW62066  13.238  10.491  10.756
53390SOL    HW162067  13.152  10.463  10.726
53390SOL    HW262068  13.277  10.411  10.793
53391SOL     OW62069   5.205   9.866   3.022
53391SOL    HW162070   5.155   9.918   3.085
53391SOL    HW262071   5.201   9.918   2.941
53392SOL     OW62072  14.325   9.586  12.779
53392SOL    HW162073  14.367   9.672  12.785
53392SOL    HW262074  14.276   9.589  12.697
53393SOL     OW62075   4.338   0.121   9.746
53393SOL    HW162076   4.300   0.105   9.832
53393SOL    HW262077   4.263   0.141   9.690
53394SOL     OW62078   0.718   2.894  14.072
53394SOL    HW162079   0.781   2.964  14.088
53394SOL    HW262080   0.717   2.843  14.153
53395SOL     OW62081   1.959  10.529   0.879
53395SOL    HW162082   1.982  10.612   0.919
53395SOL    HW262083   2.039  10.499   0.836
53396SOL     OW62084   2.319  13.629   8.137
53396SOL    HW162085   2.334  13.723   8.143
53396SOL    HW262086   2.228  13.621   8.110
53397SOL     OW62087   6.137   6.265   9.619
53397SOL    HW162088   6.063   6.221   9.660
53397SOL    HW262089   6.104   6.292   9.534
53398SOL     OW62090   2.192   8.237   4.451
53398SOL    HW162091   2.150   8.293   4.517
53398SOL    HW262092   2.247   8.297   4.400
53399SOL     OW62093  12.631   6.819   1.353
53399SOL    HW162094  12.704   6.774   1.310
53399SOL    HW262095  12.671   6.897   1.393
53400SOL     OW62096   1.713   4.750   4.468
53400SOL    HW162097   1.785   4.689   4.449
53400SOL    HW262098   1.756   4.827   4.505
53401SOL     OW62099  10.550   8.405   4.314
53401SOL    HW162100  10.603   8.484   4.297
53401SOL    HW262101  10.565   8.350   4.238
53402SOL     OW62102   6.785   6.633  10.526
53402SOL    HW162103   6.753   6.574  10.457
53402SOL    HW262104   6.748   6.718  10.503
53403SOL     OW62105   8.232  12.875   7.616
53403SOL    HW162106   8.267  12.787   7.611
53403SOL    HW262107   8.302  12.927   7.656
53404SOL     OW62108   6.307   1.811  14.312
53404SOL    HW162109   6.237   1.853  14.261
53404SOL    HW262110   6.262   1.767  14.384
53405SOL     OW62111   0.288   7.226   1.352
53405SOL    HW162112   0.222   7.292   1.331
53405SOL    HW262113   0.327   7.257   1.434
53406SOL     OW62114   4.208   0.453   0.885
53406SOL    HW162115   4.148   0.381   0.907
53406SOL    HW262116   4.280   0.410   0.840
53407SOL     OW62117   9.825   7.895  13.249
53407SOL    HW162118   9.908   7.877  13.293
53407SOL    HW262119   9.778   7.953  13.308
53408SOL     OW62120   7.006   2.266  13.042
53408SOL    HW162121   6.917   2.254  13.074
53408SOL    HW262122   7.033   2.180  13.011
53409SOL     OW62123  10.235  13.496   3.393
53409SOL    HW162124  10.314  13.453   3.426
53409SOL    HW262125  10.228  13.576   3.446
53410SOL     OW62126   5.194   3.988   6.790
53410SOL    HW162127   5.151   4.072   6.776
53410SOL    HW262128   5.176   3.938   6.710
53411SOL     OW62129   1.331   6.588   7.894
53411SOL    HW162130   1.367   6.658   7.840
53411SOL    HW262131   1.400   6.568   7.958
53412SOL     OW62132   7.680  11.617  12.832
53412SOL    HW162133   7.765  11.661  12.828
53412SOL    HW262134   7.649  11.617  12.742
53413SOL     OW62135   1.604  13.753  10.218
53413SOL    HW162136   1.686  13.711  10.192
53413SOL    HW262137   1.594  13.731  10.311
53414SOL     OW62138   9.130   5.238   5.429
53414SOL    HW162139   9.209   5.241   5.376
53414SOL    HW262140   9.088   5.323   5.416
53415SOL     OW62141   9.849   9.143   9.822
53415SOL    HW162142   9.761   9.141   9.785
53415SOL    HW262143   9.872   9.051   9.834
53416SOL     OW62144   3.863   4.800   0.987
53416SOL    HW162145   3.819   4.830   0.907
53416SOL    HW262146   3.803   4.824   1.057
53417SOL     OW62147   0.679  10.287  12.935
53417SOL    HW162148   0.731  10.359  12.901
53417SOL    HW262149   0.629  10.325  13.007
53418SOL     OW62150  12.570   2.422   3.936
53418SOL    HW162151  12.530   2.447   3.853
53418SOL    HW262152  12.528   2.339   3.959
53419SOL     OW62153   7.907   2.601  10.184
53419SOL    HW162154   7.903   2.694  10.206
53419SOL    HW262155   7.902   2.599  10.088
53420SOL     OW62156   6.851   0.654  11.466
53420SOL    HW162157   6.886   0.592  11.401
53420SOL    HW262158   6.771   0.613  11.498
53421SOL     OW62159   2.671   4.127   9.034
53421SOL    HW162160   2.733   4.191   8.999
53421SOL    HW262161   2.718   4.044   9.032
53422SOL     OW62162  10.043  10.902  14.158
53422SOL    HW162163   9.993  10.934  14.233
53422SOL    HW262164   9.991  10.829  14.124
53423SOL     OW62165  10.580   5.978  12.282
53423SOL    HW162166  10.485   5.982  12.287
53423SOL    HW262167  10.599   5.908  12.220
53424SOL     OW62168   4.439  10.290   1.119
53424SOL    HW162169   4.412  10.373   1.080
53424SOL    HW262170   4.413  10.224   1.054
53425SOL     OW62171  10.612   8.026   1.293
53425SOL    HW162172  10.660   8.108   1.300
53425SOL    HW262173  10.665   7.963   1.342
53426SOL     OW62174  14.567   4.328   6.528
53426SOL    HW162175  14.659   4.308   6.548
53426SOL    HW262176  14.532   4.364   6.609
53427SOL     OW62177   2.424  10.869  14.477
53427SOL    HW162178   2.332  10.896  14.481
53427SOL    HW262179   2.429  10.809  14.403
53428SOL     OW62180   1.239   1.956   2.191
53428SOL    HW162181   1.286   2.020   2.138
53428SOL    HW262182   1.209   2.005   2.267
53429SOL     OW62183   6.733  10.405   0.560
53429SOL    HW162184   6.748  10.337   0.625
53429SOL    HW262185   6.715  10.484   0.610
53430SOL     OW62186  13.859   6.108   8.693
53430SOL    HW162187  13.805   6.035   8.724
53430SOL    HW262188  13.948   6.075   8.696
53431SOL     OW62189   1.817  14.765  12.188
53431SOL    HW162190   1.721  14.764  12.196
53431SOL    HW262191   1.844  14.678  12.218
53432SOL     OW62192  12.875   1.147   7.668
53432SOL    HW162193  12.828   1.209   7.724
53432SOL    HW262194  12.931   1.098   7.729
53433SOL     OW62195  12.765   3.370   0.296
53433SOL    HW162196  12.690   3.310   0.291
53433SOL    HW262197  12.726   3.455   0.313
53434SOL     OW62198   0.093   7.997  12.175
53434SOL    HW162199   0.042   7.922  12.204
53434SOL    HW262200   0.050   8.072  12.216
53435SOL     OW62201   6.413  11.097   7.058
53435SOL    HW162202   6.454  11.168   7.009
53435SOL    HW262203   6.420  11.021   7.000
53436SOL     OW62204  10.965   0.958   4.741
53436SOL    HW162205  11.055   0.946   4.772
53436SOL    HW262206  10.950   0.883   4.683
53437SOL     OW62207   4.455   5.127  11.999
53437SOL    HW162208   4.379   5.180  11.976
53437SOL    HW262209   4.530   5.178  11.970
53438SOL     OW62210  11.882  10.845  12.661
53438SOL    HW162211  11.901  10.938  12.673
53438SOL    HW262212  11.887  10.807  12.749
53439SOL     OW62213  13.759   1.621   7.395
53439SOL    HW162214  13.837   1.602   7.447
53439SOL    HW262215  13.791   1.633   7.306
53440SOL     OW62216   6.404   7.271   0.500
53440SOL    HW162217   6.411   7.215   0.422
53440SOL    HW262218   6.311   7.286   0.511
53441SOL     OW62219  11.469   7.340   0.044
53441SOL    HW162220  11.384   7.383   0.051
53441SOL    HW262221  11.463   7.266   0.104
53442SOL     OW62222   9.351   4.357   2.713
53442SOL    HW162223   9.262   4.339   2.681
53442SOL    HW262224   9.384   4.426   2.656
53443SOL     OW62225   4.481  11.097   2.967
53443SOL    HW162226   4.458  11.187   2.992
53443SOL    HW262227   4.557  11.076   3.021
53444SOL     OW62228  13.427   5.339  13.516
53444SOL    HW162229  13.424   5.433  13.499
53444SOL    HW262230  13.515   5.324  13.552
53445SOL     OW62231   9.354   8.839   5.753
53445SOL    HW162232   9.398   8.782   5.817
53445SOL    HW262233   9.330   8.916   5.804
53446SOL     OW62234   5.106   9.206   7.041
53446SOL    HW162235   5.165   9.281   7.036
53446SOL    HW262236   5.145   9.141   6.982
53447SOL     OW62237   9.174   9.275   2.314
53447SOL    HW162238   9.208   9.360   2.341
53447SOL    HW262239   9.078   9.284   2.320
53448SOL     OW62240   7.190   3.291   9.083
53448SOL    HW162241   7.115   3.341   9.114
53448SOL    HW262242   7.190   3.211   9.135
53449SOL     OW62243  14.006   3.176  11.146
53449SOL    HW162244  13.970   3.246  11.091
53449SOL    HW262245  14.051   3.118  11.084
53450SOL     OW62246   7.368   1.992   6.168
53450SOL    HW162247   7.307   2.013   6.239
53450SOL    HW262248   7.447   1.963   6.213
53451SOL     OW62249  11.188   0.807   7.158
53451SOL    HW162250  11.189   0.711   7.149
53451SOL    HW262251  11.132   0.823   7.234
53452SOL     OW62252   4.688   4.708   3.465
53452SOL    HW162253   4.649   4.647   3.527
53452SOL    HW262254   4.662   4.674   3.379
53453SOL     OW62255   4.124  13.769  14.027
53453SOL    HW162256   4.052  13.832  14.020
53453SOL    HW262257   4.081  13.685  14.044
53454SOL     OW62258   0.320   4.427  14.349
53454SOL    HW162259   0.372   4.411  14.428
53454SOL    HW262260   0.376   4.483  14.295
53455SOL     OW62261   5.594   3.130   2.593
53455SOL    HW162262   5.561   3.109   2.681
53455SOL    HW262263   5.654   3.057   2.573
53456SOL     OW62264  14.502  13.437  11.739
53456SOL    HW162265  14.410  13.426  11.763
53456SOL    HW262266  14.543  13.474  11.817
53457SOL     OW62267  11.076   8.451   2.432
53457SOL    HW162268  11.140   8.423   2.367
53457SOL    HW262269  11.127   8.501   2.496
53458SOL     OW62270   2.056   0.426   2.913
53458SOL    HW162271   1.974   0.403   2.868
53458SOL    HW262272   2.043   0.399   3.003
53459SOL     OW62273   9.815   8.905   0.474
53459SOL    HW162274   9.845   8.991   0.504
53459SOL    HW262275   9.720   8.908   0.487
53460SOL     OW62276   9.679   3.365  12.874
53460SOL    HW162277   9.616   3.298  12.899
53460SOL    HW262278   9.628   3.430  12.825
53461SOL     OW62279  12.873   5.786  10.030
53461SOL    HW162280  12.811   5.753  10.096
53461SOL    HW262281  12.946   5.724  10.034
53462SOL     OW62282   1.246   9.394  11.082
53462SOL    HW162283   1.295   9.475  11.073
53462SOL    HW262284   1.306   9.335  11.129
53463SOL     OW62285  12.140  13.437   6.356
53463SOL    HW162286  12.162  13.448   6.264
53463SOL    HW262287  12.220  13.405   6.397
53464SOL     OW62288   7.831   3.625  12.001
53464SOL    HW162289   7.887   3.598  12.074
53464SOL    HW262290   7.754   3.568  12.008
53465SOL     OW62291   7.335   4.707  13.247
53465SOL    HW162292   7.429   4.713  13.263
53465SOL    HW262293   7.296   4.776  13.301
53466SOL     OW62294   1.523  11.455  10.034
53466SOL    HW162295   1.588  11.475   9.967
53466SOL    HW262296   1.536  11.522  10.101
53467SOL     OW62297   1.130   4.102   4.905
53467SOL    HW162298   1.073   4.081   4.831
53467SOL    HW262299   1.073   4.147   4.967
53468SOL     OW62300   6.001   2.955  11.788
53468SOL    HW162301   6.063   2.910  11.845
53468SOL    HW262302   6.055   3.005  11.728
53469SOL     OW62303   1.657   0.713   0.007
53469SOL    HW162304   1.592   0.727  14.821
53469SOL    HW262305   1.625   0.762   0.082
53470SOL     OW62306  14.155   1.520  13.654
53470SOL    HW162307  14.078   1.573  13.675
53470SOL    HW262308  14.121   1.449  13.599
53471SOL     OW62309   2.799   9.672   3.016
53471SOL    HW162310   2.826   9.763   3.005
53471SOL    HW262311   2.880   9.624   3.035
53472SOL     OW62312   7.885   3.570   6.411
53472SOL    HW162313   7.916   3.480   6.403
53472SOL    HW262314   7.963   3.620   6.437
53473SOL     OW62315  12.609   2.032   5.392
53473SOL    HW162316  12.675   2.061   5.328
53473SOL    HW262317  12.624   1.938   5.400
53474SOL     OW62318   5.763  14.648   1.436
53474SOL    HW162319   5.796  14.653   1.526
53474SOL    HW262320   5.814  14.714   1.388
53475SOL     OW62321   5.141   0.715   6.130
53475SOL    HW162322   5.229   0.734   6.099
53475SOL    HW262323   5.150   0.635   6.182
53476SOL     OW62324   1.508   8.841   4.272
53476SOL    HW162325   1.583   8.835   4.213
53476SOL    HW262326   1.432   8.844   4.213
53477SOL     OW62327   1.945  14.456  10.461
53477SOL    HW162328   2.033  14.493  10.454
53477SOL    HW262329   1.936  14.431  10.553
53478SOL     OW62330   9.872   3.432   6.055
53478SOL    HW162331   9.960   3.407   6.025
53478SOL    HW262332   9.887   3.506   6.114
53479SOL     OW62333  14.262  14.059   2.801
53479SOL    HW162334  14.312  14.134   2.832
53479SOL    HW262335  14.253  14.073   2.707
53480SOL     OW62336   1.083   7.407   1.484
53480SOL    HW162337   1.120   7.370   1.404
53480SOL    HW262338   1.159   7.432   1.536
53481SOL     OW62339  11.712   1.937  10.517
53481SOL    HW162340  11.753   1.942  10.603
53481SOL    HW262341  11.691   2.028  10.496
53482SOL     OW62342   0.103   1.504   1.671
53482SOL    HW162343   0.146   1.427   1.635
53482SOL    HW262344   0.023   1.471   1.711
53483SOL     OW62345  11.873   0.462   2.388
53483SOL    HW162346  11.860   0.467   2.294
53483SOL    HW262347  11.936   0.533   2.407
53484SOL     OW62348   5.447  14.820  14.438
53484SOL    HW162349   5.524  14.872  14.417
53484SOL    HW262350   5.480  14.747  14.491
53485SOL     OW62351  10.971   4.543  10.556
53485SOL    HW162352  10.943   4.512  10.642
53485SOL    HW262353  11.037   4.480  10.528
53486SOL     OW62354   8.487   3.765   2.476
53486SOL    HW162355   8.393   3.756   2.462
53486SOL    HW262356   8.527   3.701   2.417
53487SOL     OW62357  11.848   0.804   2.440
53487SOL    HW162358  11.871   0.848   2.522
53487SOL    HW262359  11.761   0.767   2.456
53488SOL     OW62360   6.346  12.599   6.892
53488SOL    HW162361   6.322  12.506   6.885
53488SOL    HW262362   6.265  12.646   6.871
53489SOL     OW62363   6.978   9.182  13.887
53489SOL    HW162364   7.044   9.251  13.893
53489SOL    HW262365   7.026   9.101  13.905
53490SOL     OW62366  12.775   3.729  10.179
53490SOL    HW162367  12.705   3.663  10.174
53490SOL    HW262368  12.751   3.794  10.114
53491SOL     OW62369   5.421  10.164   6.288
53491SOL    HW162370   5.502  10.186   6.335
53491SOL    HW262371   5.351  10.196   6.345
53492SOL     OW62372   0.569   5.150  10.287
53492SOL    HW162373   0.503   5.122  10.350
53492SOL    HW262374   0.529   5.224  10.242
53493SOL     OW62375  14.152  14.692   8.611
53493SOL    HW162376  14.240  14.723   8.632
53493SOL    HW262377  14.142  14.613   8.664
53494SOL     OW62378  10.673  14.814   7.589
53494SOL    HW162379  10.653  14.875   7.518
53494SOL    HW262380  10.621  14.846   7.663
53495SOL     OW62381  12.885  11.248  14.615
53495SOL    HW162382  12.892  11.342  14.598
53495SOL    HW262383  12.833  11.241  14.695
53496SOL     OW62384  12.025   7.156  12.832
53496SOL    HW162385  12.099   7.098  12.849
53496SOL    HW262386  11.956   7.124  12.891
53497SOL     OW62387   4.697   9.071   3.617
53497SOL    HW162388   4.641   9.054   3.693
53497SOL    HW262389   4.651   9.139   3.568
53498SOL     OW62390   6.154   4.792  11.268
53498SOL    HW162391   6.240   4.798  11.227
53498SOL    HW262392   6.169   4.814  11.360
53499SOL     OW62393   6.150   2.892   9.048
53499SOL    HW162394   6.185   2.871   9.134
53499SOL    HW262395   6.082   2.826   9.033
53500SOL     OW62396   7.937   1.628   3.592
53500SOL    HW162397   8.009   1.653   3.534
53500SOL    HW262398   7.860   1.669   3.554
53501SOL     OW62399   9.062   1.765   1.991
53501SOL    HW162400   9.028   1.676   1.987
53501SOL    HW262401   9.118   1.773   1.913
53502SOL     OW62402  11.428  13.200   9.062
53502SOL    HW162403  11.516  13.235   9.045
53502SOL    HW262404  11.374  13.278   9.075
53503SOL     OW62405  10.672  12.890   0.385
53503SOL    HW162406  10.661  12.949   0.310
53503SOL    HW262407  10.765  12.867   0.384
53504SOL     OW62408  11.348  12.538   2.206
53504SOL    HW162409  11.311  12.613   2.159
53504SOL    HW262410  11.399  12.491   2.140
53505SOL     OW62411   9.794  10.684  11.996
53505SOL    HW162412   9.830  10.729  11.919
53505SOL    HW262413   9.707  10.657  11.969
53506SOL     OW62414  11.935   7.595  11.269
53506SOL    HW162415  11.887   7.579  11.188
53506SOL    HW262416  11.870   7.587  11.338
53507SOL     OW62417  11.446   7.152  14.193
53507SOL    HW162418  11.524   7.133  14.140
53507SOL    HW262419  11.480   7.168  14.281
53508SOL     OW62420   3.178   8.372  11.735
53508SOL    HW162421   3.139   8.285  11.724
53508SOL    HW262422   3.134   8.408  11.812
53509SOL     OW62423  12.630  10.447  12.939
53509SOL    HW162424  12.662  10.505  13.009
53509SOL    HW262425  12.547  10.413  12.972
53510SOL     OW62426  11.013   6.600  12.997
53510SOL    HW162427  10.925   6.627  13.021
53510SOL    HW262428  11.070   6.666  13.037
53511SOL     OW62429   2.038   4.554  11.061
53511SOL    HW162430   1.944   4.558  11.041
53511SOL    HW262431   2.056   4.460  11.073
53512SOL     OW62432  11.243   3.342  13.202
53512SOL    HW162433  11.309   3.274  13.187
53512SOL    HW262434  11.163   3.294  13.221
53513SOL     OW62435   0.730   8.542  14.437
53513SOL    HW162436   0.668   8.604  14.476
53513SOL    HW262437   0.816   8.581  14.453
53514SOL     OW62438   2.101   0.449   1.008
53514SOL    HW162439   2.123   0.442   1.101
53514SOL    HW262440   2.008   0.473   1.007
53515SOL     OW62441  10.619   0.032   5.271
53515SOL    HW162442  10.596   0.022   5.364
53515SOL    HW262443  10.684   0.102   5.270
53516SOL     OW62444  13.018   0.718   7.673
53516SOL    HW162445  13.028   0.674   7.589
53516SOL    HW262446  13.101   0.705   7.718
53517SOL     OW62447   7.915  13.201   3.893
53517SOL    HW162448   7.984  13.262   3.917
53517SOL    HW262449   7.933  13.122   3.944
53518SOL     OW62450  11.139  13.155   9.376
53518SOL    HW162451  11.093  13.187   9.454
53518SOL    HW262452  11.068  13.125   9.318
53519SOL     OW62453  11.661   7.992  13.763
53519SOL    HW162454  11.637   8.082  13.783
53519SOL    HW262455  11.612   7.939  13.826
53520SOL     OW62456   0.335   3.640   8.459
53520SOL    HW162457   0.240   3.634   8.448
53520SOL    HW262458   0.350   3.733   8.475
53521SOL     OW62459  13.804   9.858   6.682
53521SOL    HW162460  13.785   9.787   6.621
53521SOL    HW262461  13.739   9.848   6.752
53522SOL     OW62462   7.612   2.308   7.284
53522SOL    HW162463   7.689   2.364   7.298
53522SOL    HW262464   7.648   2.221   7.267
53523SOL     OW62465   4.848  13.145   2.492
53523SOL    HW162466   4.919  13.131   2.554
53523SOL    HW262467   4.791  13.069   2.503
53524SOL     OW62468   2.540   0.208  10.029
53524SOL    HW162469   2.518   0.282  10.086
53524SOL    HW262470   2.629   0.183  10.056
53525SOL     OW62471   4.356  12.770   2.721
53525SOL    HW162472   4.337  12.758   2.628
53525SOL    HW262473   4.359  12.865   2.734
53526SOL     OW62474   7.923   4.716   7.067
53526SOL    HW162475   7.859   4.650   7.038
53526SOL    HW262476   7.873   4.773   7.126
53527SOL     OW62477   3.683   4.547  12.031
53527SOL    HW162478   3.601   4.545  12.081
53527SOL    HW262479   3.751   4.554  12.097
53528SOL     OW62480  14.126   3.323   2.453
53528SOL    HW162481  14.206   3.328   2.401
53528SOL    HW262482  14.124   3.233   2.484
53529SOL     OW62483   4.221   1.001   2.261
53529SOL    HW162484   4.164   0.931   2.230
53529SOL    HW262485   4.218   1.066   2.191
53530SOL     OW62486   3.943   6.988  14.027
53530SOL    HW162487   3.849   6.980  14.010
53530SOL    HW262488   3.983   6.978  13.940
53531SOL     OW62489   0.097  11.795  13.667
53531SOL    HW162490   0.052  11.880  13.669
53531SOL    HW262491   0.158  11.802  13.593
53532SOL     OW62492   3.249  12.391  12.773
53532SOL    HW162493   3.273  12.311  12.726
53532SOL    HW262494   3.260  12.369  12.865
53533SOL     OW62495   6.769   0.615   5.287
53533SOL    HW162496   6.821   0.547   5.331
53533SOL    HW262497   6.799   0.612   5.196
53534SOL     OW62498   9.129   1.574   6.717
53534SOL    HW162499   9.110   1.513   6.646
53534SOL    HW262500   9.071   1.648   6.702
53535SOL     OW62501  12.175   0.377  14.853
53535SOL    HW162502  12.229   0.380   0.050
53535SOL    HW262503  12.086   0.393   0.002
53536SOL     OW62504   9.171   4.744  10.018
53536SOL    HW162505   9.264   4.745   9.995
53536SOL    HW262506   9.155   4.831  10.054
53537SOL     OW62507  11.120  13.769   3.412
53537SOL    HW162508  11.100  13.712   3.487
53537SOL    HW262509  11.136  13.708   3.340
53538SOL     OW62510  14.510  11.110  10.217
53538SOL    HW162511  14.578  11.169  10.185
53538SOL    HW262512  14.431  11.164  10.220
53539SOL     OW62513   4.949   7.378  10.742
53539SOL    HW162514   4.867   7.329  10.730
53539SOL    HW262515   4.998   7.327  10.807
53540SOL     OW62516   1.242  14.414  10.932
53540SOL    HW162517   1.190  14.341  10.898
53540SOL    HW262518   1.179  14.469  10.979
53541SOL     OW62519   1.115   6.528   0.551
53541SOL    HW162520   1.085   6.571   0.631
53541SOL    HW262521   1.210   6.542   0.550
53542SOL     OW62522  10.200   3.541   5.439
53542SOL    HW162523  10.217   3.604   5.509
53542SOL    HW262524  10.272   3.555   5.377
53543SOL     OW62525  12.231   5.629  11.656
53543SOL    HW162526  12.267   5.717  11.667
53543SOL    HW262527  12.158   5.640  11.595
53544SOL     OW62528   4.845   7.163   4.020
53544SOL    HW162529   4.856   7.120   3.935
53544SOL    HW262530   4.916   7.227   4.024
53545SOL     OW62531   1.085  11.307  13.984
53545SOL    HW162532   1.094  11.357  13.903
53545SOL    HW262533   1.003  11.259  13.974
53546SOL     OW62534   3.244   5.550  10.565
53546SOL    HW162535   3.298   5.535  10.487
53546SOL    HW262536   3.170   5.491  10.555
53547SOL     OW62537  14.612   3.463   6.774
53547SOL    HW162538  14.621   3.533   6.839
53547SOL    HW262539  14.618   3.382   6.825
53548SOL     OW62540   2.040   9.213   8.673
53548SOL    HW162541   1.949   9.215   8.703
53548SOL    HW262542   2.089   9.179   8.748
53549SOL     OW62543   7.443  10.234  14.030
53549SOL    HW162544   7.501  10.181  13.976
53549SOL    HW262545   7.482  10.322  14.028
53550SOL     OW62546  14.781  14.610   3.053
53550SOL    HW162547  14.834  14.688   3.038
53550SOL    HW262548  14.840  14.548   3.096
53551SOL     OW62549   2.370   3.322   4.711
53551SOL    HW162550   2.403   3.377   4.640
53551SOL    HW262551   2.441   3.261   4.729
53552SOL     OW62552   5.231   7.488  14.107
53552SOL    HW162553   5.165   7.467  14.041
53552SOL    HW262554   5.196   7.566  14.152
53553SOL     OW62555   8.617   7.617   8.841
53553SOL    HW162556   8.640   7.662   8.923
53553SOL    HW262557   8.643   7.526   8.855
53554SOL     OW62558   7.547   7.207   9.379
53554SOL    HW162559   7.458   7.227   9.408
53554SOL    HW262560   7.568   7.124   9.421
53555SOL     OW62561   5.523   2.188   1.419
53555SOL    HW162562   5.492   2.264   1.370
53555SOL    HW262563   5.568   2.225   1.495
53556SOL     OW62564   8.453   0.219  11.215
53556SOL    HW162565   8.386   0.169  11.262
53556SOL    HW262566   8.526   0.225  11.276
53557SOL     OW62567   5.329   6.873   2.142
53557SOL    HW162568   5.386   6.844   2.213
53557SOL    HW262569   5.281   6.795   2.115
53558SOL     OW62570   0.991  14.674  11.853
53558SOL    HW162571   0.936  14.677  11.931
53558SOL    HW262572   0.930  14.668  11.780
53559SOL     OW62573  14.384  14.253   3.640
53559SOL    HW162574  14.369  14.347   3.645
53559SOL    HW262575  14.325  14.216   3.705
53560SOL     OW62576  10.652   1.307  13.797
53560SOL    HW162577  10.603   1.247  13.854
53560SOL    HW262578  10.740   1.270  13.794
53561SOL     OW62579   8.400   5.796   6.770
53561SOL    HW162580   8.374   5.821   6.859
53561SOL    HW262581   8.495   5.805   6.770
53562SOL     OW62582   9.220  11.319  10.680
53562SOL    HW162583   9.313  11.340  10.682
53562SOL    HW262584   9.176  11.402  10.664
53563SOL     OW62585   1.287   2.094   9.794
53563SOL    HW162586   1.207   2.139   9.823
53563SOL    HW262587   1.297   2.120   9.703
53564SOL     OW62588  13.680  10.572   7.417
53564SOL    HW162589  13.692  10.666   7.404
53564SOL    HW262590  13.701  10.533   7.332
53565SOL     OW62591  13.105   6.373   1.409
53565SOL    HW162592  13.053   6.453   1.411
53565SOL    HW262593  13.114   6.352   1.316
53566SOL     OW62594   0.193  12.691   2.964
53566SOL    HW162595   0.280  12.693   3.004
53566SOL    HW262596   0.204  12.637   2.886
53567SOL     OW62597  13.104  11.902   4.530
53567SOL    HW162598  13.081  11.913   4.437
53567SOL    HW262599  13.040  11.955   4.577
53568SOL     OW62600   9.512   7.077   5.621
53568SOL    HW162601   9.466   6.994   5.607
53568SOL    HW262602   9.569   7.086   5.545
53569SOL     OW62603   0.983  11.619  11.280
53569SOL    HW162604   1.037  11.687  11.241
53569SOL    HW262605   0.893  11.653  11.274
53570SOL     OW62606   9.310   1.115   6.940
53570SOL    HW162607   9.389   1.074   6.974
53570SOL    HW262608   9.314   1.205   6.972
53571SOL     OW62609   7.920   5.525   8.438
53571SOL    HW162610   7.863   5.592   8.399
53571SOL    HW262611   7.887   5.442   8.403
53572SOL     OW62612  14.780   0.032   4.188
53572SOL    HW162613  14.776   0.122   4.157
53572SOL    HW262614  14.813   0.038   4.278
53573SOL     OW62615  10.492  14.546   6.487
53573SOL    HW162616  10.566  14.526   6.544
53573SOL    HW262617  10.433  14.598   6.541
53574SOL     OW62618   1.752   8.718  13.503
53574SOL    HW162619   1.821   8.686  13.445
53574SOL    HW262620   1.672   8.712  13.451
53575SOL     OW62621  10.911  14.711   4.194
53575SOL    HW162622  10.886  14.752   4.111
53575SOL    HW262623  11.004  14.693   4.185
53576SOL     OW62624   0.057  14.236   0.324
53576SOL    HW162625   0.050  14.329   0.304
53576SOL    HW262626  14.848  14.206   0.330
53577SOL     OW62627   1.949   5.929   5.019
53577SOL    HW162628   1.989   5.895   4.939
53577SOL    HW262629   1.906   5.852   5.058
53578SOL     OW62630   9.983   0.479   6.087
53578SOL    HW162631   9.961   0.572   6.083
53578SOL    HW262632   9.906   0.435   6.051
53579SOL     OW62633   3.108   1.597  10.610
53579SOL    HW162634   3.049   1.588  10.536
53579SOL    HW262635   3.086   1.682  10.649
53580SOL     OW62636  11.918   2.605  13.800
53580SOL    HW162637  11.886   2.515  13.803
53580SOL    HW262638  12.010   2.598  13.826
53581SOL     OW62639   4.585  12.366   3.661
53581SOL    HW162640   4.671  12.331   3.684
53581SOL    HW262641   4.526  12.333   3.729
53582SOL     OW62642   6.102   6.328   0.208
53582SOL    HW162643   6.184   6.377   0.217
53582SOL    HW262644   6.053   6.350   0.286
53583SOL     OW62645   1.516   3.455  11.327
53583SOL    HW162646   1.609   3.476  11.316
53583SOL    HW262647   1.501   3.456  11.421
53584SOL     OW62648  11.526  14.125   1.612
53584SOL    HW162649  11.453  14.109   1.672
53584SOL    HW262650  11.547  14.218   1.624
53585SOL     OW62651   8.471   5.738   8.472
53585SOL    HW162652   8.500   5.646   8.467
53585SOL    HW262653   8.553   5.788   8.469
53586SOL     OW62654  14.563  14.495   4.250
53586SOL    HW162655  14.577  14.564   4.185
53586SOL    HW262656  14.468  14.483   4.253
53587SOL     OW62657  12.113   9.681   8.250
53587SOL    HW162658  12.082   9.755   8.198
53587SOL    HW262659  12.033   9.640   8.283
53588SOL     OW62660   7.450   7.926   6.187
53588SOL    HW162661   7.444   8.019   6.212
53588SOL    HW262662   7.511   7.889   6.251
53589SOL     OW62663   5.164   4.790   9.605
53589SOL    HW162664   5.144   4.878   9.573
53589SOL    HW262665   5.097   4.734   9.565
53590SOL     OW62666   7.481   2.965   0.186
53590SOL    HW162667   7.538   2.894   0.214
53590SOL    HW262668   7.526   3.045   0.214
53591SOL     OW62669  14.495  13.328   0.486
53591SOL    HW162670  14.496  13.233   0.497
53591SOL    HW262671  14.533  13.362   0.567
53592SOL     OW62672   0.950   3.595   5.612
53592SOL    HW162673   1.034   3.582   5.655
53592SOL    HW262674   0.913   3.507   5.603
53593SOL     OW62675  11.676   1.062   6.448
53593SOL    HW162676  11.721   1.136   6.488
53593SOL    HW262677  11.734   0.987   6.465
53594SOL     OW62678   3.991   3.902   7.044
53594SOL    HW162679   3.987   3.924   7.138
53594SOL    HW262680   4.007   3.986   7.001
53595SOL     OW62681   4.981   6.467   2.212
53595SOL    HW162682   4.897   6.467   2.256
53595SOL    HW262683   4.992   6.376   2.182
53596SOL     OW62684   6.605   9.506   1.634
53596SOL    HW162685   6.617   9.446   1.707
53596SOL    HW262686   6.692   9.542   1.617
53597SOL     OW62687   3.024  12.945   0.091
53597SOL    HW162688   3.080  12.878   0.052
53597SOL    HW262689   2.956  12.960   0.026
53598SOL     OW62690   6.998  14.360   6.859
53598SOL    HW162691   6.963  14.276   6.888
53598SOL    HW262692   6.981  14.420   6.931
53599SOL     OW62693   2.702  12.255  14.084
53599SOL    HW162694   2.792  12.282  14.103
53599SOL    HW262695   2.661  12.245  14.170
53600SOL     OW62696   1.677  12.966   1.351
53600SOL    HW162697   1.600  12.969   1.407
53600SOL    HW262698   1.647  12.921   1.272
53601SOL     OW62699   8.534   1.716  12.459
53601SOL    HW162700   8.461   1.752  12.510
53601SOL    HW262701   8.522   1.621  12.463
53602SOL     OW62702   2.923  12.779   7.917
53602SOL    HW162703   2.898  12.693   7.951
53602SOL    HW262704   2.990  12.810   7.977
53603SOL     OW62705   5.277  13.664   7.352
53603SOL    HW162706   5.239  13.750   7.333
53603SOL    HW262707   5.364  13.684   7.388
53604SOL     OW62708   6.295  12.605   7.623
53604SOL    HW162709   6.259  12.517   7.622
53604SOL    HW262710   6.243  12.652   7.688
53605SOL     OW62711  13.792   9.216   8.254
53605SOL    HW162712  13.851   9.257   8.190
53605SOL    HW262713  13.806   9.122   8.242
53606SOL     OW62714   5.356   2.200   2.147
53606SOL    HW162715   5.392   2.196   2.058
53606SOL    HW262716   5.387   2.121   2.189
53607SOL     OW62717   7.695  10.997   1.479
53607SOL    HW162718   7.682  10.932   1.409
53607SOL    HW262719   7.619  10.986   1.536
53608SOL     OW62720   0.712   7.053   4.261
53608SOL    HW162721   0.745   7.010   4.340
53608SOL    HW262722   0.625   7.014   4.247
53609SOL     OW62723   8.710   2.275   0.951
53609SOL    HW162724   8.756   2.325   0.885
53609SOL    HW262725   8.759   2.193   0.960
53610SOL     OW62726  14.854  10.504   0.571
53610SOL    HW162727  14.842  10.539   0.483
53610SOL    HW262728   0.067  10.496   0.581
53611SOL     OW62729   0.061   1.605  10.566
53611SOL    HW162730   0.053   1.661  10.643
53611SOL    HW262731   0.043   1.663  10.492
53612SOL     OW62732   8.084  13.899  12.186
53612SOL    HW162733   8.157  13.961  12.185
53612SOL    HW262734   8.006  13.953  12.202
53613SOL     OW62735   5.514   0.135   7.092
53613SOL    HW162736   5.466   0.185   7.158
53613SOL    HW262737   5.578   0.197   7.057
53614SOL     OW62738  10.575  13.599  13.220
53614SOL    HW162739  10.616  13.520  13.254
53614SOL    HW262740  10.571  13.585  13.126
53615SOL     OW62741   4.183   6.561   5.165
53615SOL    HW162742   4.257   6.542   5.109
53615SOL    HW262743   4.160   6.477   5.205
53616SOL     OW62744   9.181   3.194   5.045
53616SOL    HW162745   9.205   3.104   5.026
53616SOL    HW262746   9.110   3.187   5.109
53617SOL     OW62747   1.647   0.050  12.794
53617SOL    HW162748   1.738   0.057  12.824
53617SOL    HW262749   1.653   0.044  12.699
53618SOL     OW62750   3.474   7.949   7.958
53618SOL    HW162751   3.396   7.899   7.937
53618SOL    HW262752   3.546   7.902   7.915
53619SOL     OW62753  10.008   0.799  11.085
53619SOL    HW162754  10.053   0.817  11.003
53619SOL    HW262755  10.074   0.755  11.139
53620SOL     OW62756   5.762   8.810   5.410
53620SOL    HW162757   5.777   8.895   5.367
53620SOL    HW262758   5.784   8.746   5.343
53621SOL     OW62759   6.033   1.149   1.032
53621SOL    HW162760   6.054   1.241   1.014
53621SOL    HW262761   5.979   1.152   1.111
53622SOL     OW62762   6.440   3.814   7.459
53622SOL    HW162763   6.530   3.827   7.489
53622SOL    HW262764   6.433   3.719   7.445
53623SOL     OW62765  13.360  12.741   5.035
53623SOL    HW162766  13.323  12.690   5.107
53623SOL    HW262767  13.331  12.697   4.956
53624SOL     OW62768   3.019   0.793   4.045
53624SOL    HW162769   2.964   0.869   4.061
53624SOL    HW262770   2.987   0.756   3.962
53625SOL     OW62771  10.476  12.107   6.052
53625SOL    HW162772  10.562  12.067   6.065
53625SOL    HW262773  10.489  12.199   6.078
53626SOL     OW62774   0.442   5.526   8.063
53626SOL    HW162775   0.475   5.568   7.983
53626SOL    HW262776   0.368   5.473   8.033
53627SOL     OW62777   1.403   3.833   6.529
53627SOL    HW162778   1.354   3.806   6.451
53627SOL    HW262779   1.491   3.799   6.515
53628SOL     OW62780   3.507  12.140   2.922
53628SOL    HW162781   3.581  12.161   2.979
53628SOL    HW262782   3.439  12.204   2.948
53629SOL     OW62783  10.417  11.768   1.821
53629SOL    HW162784  10.372  11.801   1.743
53629SOL    HW262785  10.475  11.839   1.847
53630SOL     OW62786  12.654   1.397   0.250
53630SOL    HW162787  12.655   1.490   0.275
53630SOL    HW262788  12.578   1.388   0.192
53631SOL     OW62789   8.958   7.827   2.365
53631SOL    HW162790   8.946   7.764   2.436
53631SOL    HW262791   8.905   7.902   2.391
53632SOL     OW62792  11.611  10.430  10.709
53632SOL    HW162793  11.567  10.515  10.719
53632SOL    HW262794  11.542  10.366  10.723
53633SOL     OW62795   0.314   4.240  11.826
53633SOL    HW162796   0.270   4.325  11.819
53633SOL    HW262797   0.313   4.206  11.736
53634SOL     OW62798  12.252  12.665   4.783
53634SOL    HW162799  12.282  12.721   4.711
53634SOL    HW262800  12.168  12.703   4.809
53635SOL     OW62801   3.549  14.011  11.428
53635SOL    HW162802   3.588  13.963  11.501
53635SOL    HW262803   3.624  14.050  11.383
53636SOL     OW62804   1.612   1.301  13.017
53636SOL    HW162805   1.593   1.328  12.927
53636SOL    HW262806   1.593   1.207  13.019
53637SOL     OW62807  14.063  12.440  13.072
53637SOL    HW162808  13.993  12.377  13.057
53637SOL    HW262809  14.143  12.390  13.061
53638SOL     OW62810  12.007   6.032   6.996
53638SOL    HW162811  11.919   6.028   7.033
53638SOL    HW262812  12.005   6.108   6.938
53639SOL     OW62813   9.599   5.367   1.241
53639SOL    HW162814   9.592   5.273   1.225
53639SOL    HW262815   9.649   5.400   1.167
53640SOL     OW62816   8.714  10.831   7.692
53640SOL    HW162817   8.740  10.810   7.782
53640SOL    HW262818   8.741  10.923   7.680
53641SOL     OW62819  14.000   0.889   4.230
53641SOL    HW162820  13.921   0.893   4.176
53641SOL    HW262821  14.048   0.813   4.196
53642SOL     OW62822   0.517   8.400   2.721
53642SOL    HW162823   0.477   8.480   2.687
53642SOL    HW262824   0.445   8.356   2.768
53643SOL     OW62825  14.630   1.444  12.541
53643SOL    HW162826  14.537   1.452  12.517
53643SOL    HW262827  14.630   1.442  12.637
53644SOL     OW62828  10.504  10.423   3.698
53644SOL    HW162829  10.576  10.413   3.761
53644SOL    HW262830  10.543  10.397   3.614
53645SOL     OW62831   3.698   4.172   5.677
53645SOL    HW162832   3.671   4.142   5.764
53645SOL    HW262833   3.789   4.143   5.669
53646SOL     OW62834  12.700   8.539   4.347
53646SOL    HW162835  12.783   8.514   4.385
53646SOL    HW262836  12.639   8.470   4.373
53647SOL     OW62837  11.802  11.366   0.671
53647SOL    HW162838  11.780  11.305   0.741
53647SOL    HW262839  11.718  11.405   0.645
53648SOL     OW62840   4.618   8.489   5.451
53648SOL    HW162841   4.553   8.499   5.521
53648SOL    HW262842   4.663   8.574   5.448
53649SOL     OW62843   4.602  10.324   9.405
53649SOL    HW162844   4.615  10.230   9.415
53649SOL    HW262845   4.597  10.357   9.495
53650SOL     OW62846   9.582   7.829   4.869
53650SOL    HW162847   9.622   7.907   4.830
53650SOL    HW262848   9.495   7.857   4.896
53651SOL     OW62849   9.679   5.125   6.163
53651SOL    HW162850   9.616   5.175   6.110
53651SOL    HW262851   9.624   5.077   6.225
53652SOL     OW62852  12.696   4.022   9.508
53652SOL    HW162853  12.728   3.937   9.540
53652SOL    HW262854  12.752   4.086   9.553
53653SOL     OW62855   6.103  14.527  11.614
53653SOL    HW162856   6.153  14.532  11.696
53653SOL    HW262857   6.013  14.542  11.640
53654SOL     OW62858   7.781   4.563   2.631
53654SOL    HW162859   7.826   4.562   2.716
53654SOL    HW262860   7.691   4.540   2.651
53655SOL     OW62861  11.402   2.221   7.133
53655SOL    HW162862  11.313   2.249   7.111
53655SOL    HW262863  11.459   2.275   7.078
53656SOL     OW62864   2.638   6.382   0.520
53656SOL    HW162865   2.560   6.408   0.471
53656SOL    HW262866   2.617   6.295   0.554
53657SOL     OW62867   8.807  10.134   1.583
53657SOL    HW162868   8.735  10.195   1.596
53657SOL    HW262869   8.808  10.080   1.662
53658SOL     OW62870   8.282  10.032   2.065
53658SOL    HW162871   8.322  10.106   2.021
53658SOL    HW262872   8.188  10.051   2.063
53659SOL     OW62873   2.668   6.216  11.737
53659SOL    HW162874   2.655   6.183  11.648
53659SOL    HW262875   2.749   6.176  11.766
53660SOL     OW62876   6.474  10.504   0.170
53660SOL    HW162877   6.461  10.480   0.262
53660SOL    HW262878   6.568  10.495   0.156
53661SOL     OW62879   3.008   9.802   9.485
53661SOL    HW162880   2.933   9.799   9.544
53661SOL    HW262881   3.074   9.747   9.526
53662SOL     OW62882   8.256   2.799   4.950
53662SOL    HW162883   8.310   2.821   4.874
53662SOL    HW262884   8.316   2.756   5.011
53663SOL     OW62885   1.038   8.795  13.063
53663SOL    HW162886   0.978   8.808  13.136
53663SOL    HW262887   1.024   8.870  13.006
53664SOL     OW62888   4.538   3.793  13.801
53664SOL    HW162889   4.446   3.775  13.824
53664SOL    HW262890   4.535   3.878  13.757
53665SOL     OW62891  12.398  13.169   5.687
53665SOL    HW162892  12.345  13.153   5.609
53665SOL    HW262893  12.369  13.103   5.750
53666SOL     OW62894   2.416  13.931   7.387
53666SOL    HW162895   2.385  14.005   7.439
53666SOL    HW262896   2.337  13.887   7.358
53667SOL     OW62897   3.326   4.892  14.213
53667SOL    HW162898   3.246   4.927  14.174
53667SOL    HW262899   3.319   4.911  14.306
53668SOL     OW62900   4.955  12.939   5.856
53668SOL    HW162901   5.004  12.945   5.773
53668SOL    HW262902   4.938  13.030   5.881
53669SOL     OW62903   3.849   1.813   1.643
53669SOL    HW162904   3.767   1.774   1.613
53669SOL    HW262905   3.851   1.795   1.737
53670SOL     OW62906   9.358   9.165  10.888
53670SOL    HW162907   9.341   9.192  10.798
53670SOL    HW262908   9.436   9.109  10.882
53671SOL     OW62909   8.630   7.699   4.052
53671SOL    HW162910   8.642   7.605   4.037
53671SOL    HW262911   8.656   7.713   4.143
53672SOL     OW62912   1.542   0.910   6.017
53672SOL    HW162913   1.456   0.925   5.978
53672SOL    HW262914   1.541   0.818   6.044
53673SOL     OW62915   0.739   0.250   0.761
53673SOL    HW162916   0.703   0.325   0.712
53673SOL    HW262917   0.668   0.224   0.819
53674SOL     OW62918  12.966   3.633   6.875
53674SOL    HW162919  12.914   3.557   6.849
53674SOL    HW262920  13.047   3.624   6.825
53675SOL     OW62921   7.115   7.772   0.611
53675SOL    HW162922   7.098   7.679   0.592
53675SOL    HW262923   7.080   7.784   0.699
53676SOL     OW62924   6.570   7.630   7.494
53676SOL    HW162925   6.576   7.538   7.519
53676SOL    HW262926   6.609   7.634   7.407
53677SOL     OW62927  13.623  12.400   5.500
53677SOL    HW162928  13.591  12.486   5.472
53677SOL    HW262929  13.628  12.349   5.419
53678SOL     OW62930   5.067  12.228   3.976
53678SOL    HW162931   5.157  12.243   4.006
53678SOL    HW262932   5.055  12.133   3.984
53679SOL     OW62933   9.427   3.463   6.237
53679SOL    HW162934   9.423   3.475   6.142
53679SOL    HW262935   9.514   3.425   6.253
53680SOL     OW62936   9.046   7.587   4.603
53680SOL    HW162937   9.057   7.680   4.621
53680SOL    HW262938   9.091   7.543   4.676
53681SOL     OW62939   8.648  13.402   0.103
53681SOL    HW162940   8.616  13.464   0.038
53681SOL    HW262941   8.570  13.361   0.139
53682SOL     OW62942   5.802   5.515   4.314
53682SOL    HW162943   5.870   5.524   4.379
53682SOL    HW262944   5.808   5.595   4.261
53683SOL     OW62945  12.596  11.280  13.134
53683SOL    HW162946  12.671  11.265  13.076
53683SOL    HW262947  12.522  11.292  13.075
53684SOL     OW62948   2.977   2.802   9.834
53684SOL    HW162949   2.936   2.886   9.812
53684SOL    HW262950   2.939   2.740   9.773
53685SOL     OW62951  10.300   5.980  14.540
53685SOL    HW162952  10.225   6.039  14.548
53685SOL    HW262953  10.348   5.990  14.622
53686SOL     OW62954   0.889  13.408   2.295
53686SOL    HW162955   0.836  13.334   2.265
53686SOL    HW262956   0.837  13.448   2.365
53687SOL     OW62957  10.322   7.596   1.680
53687SOL    HW162958  10.396   7.598   1.741
53687SOL    HW262959  10.252   7.643   1.726
53688SOL     OW62960   7.361  10.457   7.618
53688SOL    HW162961   7.274  10.424   7.638
53688SOL    HW262962   7.411  10.378   7.595
53689SOL     OW62963   6.591  11.310   0.155
53689SOL    HW162964   6.547  11.231   0.186
53689SOL    HW262965   6.533  11.382   0.181
53690SOL     OW62966   7.470  13.137   7.159
53690SOL    HW162967   7.529  13.083   7.211
53690SOL    HW262968   7.433  13.077   7.094
53691SOL     OW62969   2.798  14.098  12.941
53691SOL    HW162970   2.860  14.049  12.996
53691SOL    HW262971   2.846  14.178  12.917
53692SOL     OW62972   0.896  12.135   1.464
53692SOL    HW162973   0.964  12.199   1.487
53692SOL    HW262974   0.813  12.179   1.486
53693SOL     OW62975  11.543   7.055  11.664
53693SOL    HW162976  11.453   7.048  11.631
53693SOL    HW262977  11.593   7.090  11.590
53694SOL     OW62978   0.322   0.563  10.965
53694SOL    HW162979   0.309   0.562  11.060
53694SOL    HW262980   0.333   0.471  10.941
53695SOL     OW62981   5.017   0.572   7.138
53695SOL    HW162982   5.103   0.532   7.124
53695SOL    HW262983   4.963   0.502   7.174
53696SOL     OW62984   0.951  14.393   6.814
53696SOL    HW162985   1.022  14.336   6.841
53696SOL    HW262986   0.959  14.471   6.869
53697SOL     OW62987  12.924   2.619  11.203
53697SOL    HW162988  12.955   2.567  11.277
53697SOL    HW262989  12.968   2.703  11.213
53698SOL     OW62990  14.337   5.901   9.154
53698SOL    HW162991  14.319   5.989   9.121
53698SOL    HW262992  14.315   5.905   9.247
53699SOL     OW62993   9.313   3.907  12.170
53699SOL    HW162994   9.290   3.963  12.244
53699SOL    HW262995   9.392   3.948  12.134
53700SOL     OW62996  12.322   0.481   5.636
53700SOL    HW162997  12.327   0.479   5.541
53700SOL    HW262998  12.407   0.449   5.666
53701SOL     OW62999  11.193   2.124   9.143
53701SOL    HW163000  11.106   2.164   9.142
53701SOL    HW263001  11.187   2.052   9.081
53702SOL     OW63002  12.137   1.645  10.697
53702SOL    HW163003  12.159   1.737  10.708
53702SOL    HW263004  12.182   1.619  10.616
53703SOL     OW63005   4.214   3.197   5.247
53703SOL    HW163006   4.229   3.102   5.250
53703SOL    HW263007   4.288   3.231   5.198
53704SOL     OW63008   5.629   8.056  12.177
53704SOL    HW163009   5.652   8.098  12.260
53704SOL    HW263010   5.549   8.008  12.196
53705SOL     OW63011  13.235   1.530   2.392
53705SOL    HW163012  13.207   1.603   2.336
53705SOL    HW263013  13.325   1.553   2.417
53706SOL     OW63014   0.353  14.663   4.872
53706SOL    HW163015   0.437  14.638   4.911
53706SOL    HW263016   0.365  14.650   4.778
53707SOL     OW63017   3.070   9.453  10.661
53707SOL    HW163018   2.999   9.410  10.614
53707SOL    HW263019   3.034   9.469  10.749
53708SOL     OW63020   9.608   6.906  13.663
53708SOL    HW163021   9.546   6.844  13.701
53708SOL    HW263022   9.565   6.935  13.582
53709SOL     OW63023  14.079   6.725   3.893
53709SOL    HW163024  14.163   6.756   3.858
53709SOL    HW263025  14.042   6.673   3.822
53710SOL     OW63026  14.654   1.765  10.936
53710SOL    HW163027  14.687   1.715  11.011
53710SOL    HW263028  14.642   1.853  10.970
53711SOL     OW63029   1.258   7.124  10.190
53711SOL    HW163030   1.343   7.166  10.178
53711SOL    HW263031   1.237   7.137  10.282
53712SOL     OW63032   8.821   4.682  12.996
53712SOL    HW163033   8.734   4.644  12.981
53712SOL    HW263034   8.806   4.751  13.060
53713SOL     OW63035  12.934  14.563   5.519
53713SOL    HW163036  12.864  14.628   5.527
53713SOL    HW263037  12.893  14.489   5.474
53714SOL     OW63038   9.688   7.508   8.657
53714SOL    HW163039   9.596   7.493   8.633
53714SOL    HW263040   9.738   7.450   8.600
53715SOL     OW63041  13.797   3.812  14.091
53715SOL    HW163042  13.818   3.905  14.091
53715SOL    HW263043  13.718   3.806  14.037
53716SOL     OW63044   4.385   3.010   8.672
53716SOL    HW163045   4.436   2.939   8.634
53716SOL    HW263046   4.322   2.967   8.729
53717SOL     OW63047   9.206   8.190   4.853
53717SOL    HW163048   9.154   8.132   4.797
53717SOL    HW263049   9.297   8.176   4.824
53718SOL     OW63050   4.288  13.885  12.954
53718SOL    HW163051   4.288  13.789  12.959
53718SOL    HW263052   4.197  13.907  12.936
53719SOL     OW63053   9.546   7.385   9.226
53719SOL    HW163054   9.594   7.393   9.144
53719SOL    HW263055   9.497   7.467   9.234
53720SOL     OW63056   6.529   6.990   0.006
53720SOL    HW163057   6.513   6.930  14.815
53720SOL    HW263058   6.463   7.060  14.876
53721SOL     OW63059  10.846   4.431   4.057
53721SOL    HW163060  10.758   4.467   4.058
53721SOL    HW263061  10.835   4.343   4.020
53722SOL     OW63062   4.167   5.234  13.937
53722SOL    HW163063   4.190   5.326  13.923
53722SOL    HW263064   4.113   5.234  14.015
53723SOL     OW63065   6.364  12.689  10.848
53723SOL    HW163066   6.395  12.606  10.884
53723SOL    HW263067   6.341  12.670  10.758
53724SOL     OW63068   6.867  12.486   8.421
53724SOL    HW163069   6.785  12.525   8.449
53724SOL    HW263070   6.868  12.497   8.326
53725SOL     OW63071  10.587   3.907   9.215
53725SOL    HW163072  10.570   3.839   9.150
53725SOL    HW263073  10.501   3.932   9.247
53726SOL     OW63074   1.545   2.694   8.832
53726SOL    HW163075   1.496   2.633   8.776
53726SOL    HW263076   1.608   2.640   8.878
53727SOL     OW63077  12.595  10.184   1.625
53727SOL    HW163078  12.639  10.138   1.552
53727SOL    HW263079  12.537  10.246   1.582
53728SOL     OW63080   4.478   2.735   3.027
53728SOL    HW163081   4.507   2.690   3.106
53728SOL    HW263082   4.526   2.817   3.026
53729SOL     OW63083   4.947   7.318   0.983
53729SOL    HW163084   4.875   7.255   0.980
53729SOL    HW263085   5.009   7.288   0.916
53730SOL     OW63086   8.493   6.721   3.272
53730SOL    HW163087   8.497   6.698   3.179
53730SOL    HW263088   8.545   6.801   3.279
53731SOL     OW63089   5.627   6.425   1.083
53731SOL    HW163090   5.714   6.416   1.123
53731SOL    HW263091   5.637   6.385   0.997
53732SOL     OW63092   1.990   6.655  12.753
53732SOL    HW163093   2.024   6.726  12.808
53732SOL    HW263094   1.920   6.695  12.702
53733SOL     OW63095  14.681  11.015   0.333
53733SOL    HW163096  14.775  11.031   0.336
53733SOL    HW263097  14.672  10.936   0.280
53734SOL     OW63098   8.295  12.793   8.500
53734SOL    HW163099   8.341  12.877   8.503
53734SOL    HW263100   8.212  12.810   8.544
53735SOL     OW63101   4.946   1.463   7.545
53735SOL    HW163102   4.956   1.380   7.592
53735SOL    HW263103   4.856   1.460   7.513
53736SOL     OW63104   9.170  12.522   4.171
53736SOL    HW163105   9.214  12.584   4.113
53736SOL    HW263106   9.219  12.440   4.159
53737SOL     OW63107   4.458  11.855   3.330
53737SOL    HW163108   4.523  11.906   3.378
53737SOL    HW263109   4.392  11.833   3.396
53738SOL     OW63110   3.263   7.819   7.852
53738SOL    HW163111   3.309   7.741   7.822
53738SOL    HW263112   3.220   7.852   7.773
53739SOL     OW63113   3.792   0.689   0.184
53739SOL    HW163114   3.868   0.635   0.165
53739SOL    HW263115   3.769   0.666   0.274
53740SOL     OW63116  10.008  12.680   8.148
53740SOL    HW163117  10.059  12.599   8.146
53740SOL    HW263118   9.990  12.699   8.055
53741SOL     OW63119   8.263   0.715  13.337
53741SOL    HW163120   8.185   0.739  13.387
53741SOL    HW263121   8.243   0.740  13.247
53742SOL     OW63122   4.567  13.801   9.057
53742SOL    HW163123   4.566  13.819   9.151
53742SOL    HW263124   4.545  13.885   9.016
53743SOL     OW63125   4.689  13.012   7.025
53743SOL    HW163126   4.617  12.994   6.964
53743SOL    HW263127   4.714  12.927   7.060
53744SOL     OW63128   2.159   1.883  11.369
53744SOL    HW163129   2.225   1.814  11.370
53744SOL    HW263130   2.148   1.903  11.276
53745SOL     OW63131   6.556   3.025   0.483
53745SOL    HW163132   6.563   3.118   0.505
53745SOL    HW263133   6.493   3.022   0.411
53746SOL     OW63134   4.509   3.078  14.425
53746SOL    HW163135   4.450   3.154  14.427
53746SOL    HW263136   4.549   3.077  14.512
53747SOL     OW63137   3.589   0.753   7.094
53747SOL    HW163138   3.578   0.843   7.066
53747SOL    HW263139   3.580   0.756   7.190
53748SOL     OW63140   9.863   1.586   2.473
53748SOL    HW163141   9.944   1.636   2.463
53748SOL    HW263142   9.794   1.646   2.444
53749SOL     OW63143  14.656   5.625  11.209
53749SOL    HW163144  14.678   5.683  11.137
53749SOL    HW263145  14.567   5.596  11.190
53750SOL     OW63146   5.117   6.282   5.554
53750SOL    HW163147   5.208   6.292   5.581
53750SOL    HW263148   5.109   6.333   5.474
53751SOL     OW63149   8.464  12.269   0.276
53751SOL    HW163150   8.444  12.177   0.259
53751SOL    HW263151   8.518  12.267   0.355
53752SOL     OW63152   8.449   4.786   2.524
53752SOL    HW163153   8.419   4.873   2.548
53752SOL    HW263154   8.378   4.749   2.471
53753SOL     OW63155   5.903  10.085  10.380
53753SOL    HW163156   5.886  10.042  10.464
53753SOL    HW263157   5.841  10.045  10.319
53754SOL     OW63158  12.820  10.425  14.086
53754SOL    HW163159  12.800  10.394  13.998
53754SOL    HW263160  12.857  10.349  14.131
53755SOL     OW63161   5.822   0.779   5.516
53755SOL    HW163162   5.912   0.787   5.482
53755SOL    HW263163   5.811   0.857   5.570
53756SOL     OW63164   5.213   9.916   2.690
53756SOL    HW163165   5.202   9.947   2.600
53756SOL    HW263166   5.308   9.906   2.700
53757SOL     OW63167   1.144   5.609   4.680
53757SOL    HW163168   1.177   5.598   4.591
53757SOL    HW263169   1.050   5.623   4.669
53758SOL     OW63170   7.030   6.329   5.468
53758SOL    HW163171   6.960   6.299   5.525
53758SOL    HW263172   7.042   6.421   5.492
53759SOL     OW63173   8.467   0.163   5.103
53759SOL    HW163174   8.415   0.088   5.131
53759SOL    HW263175   8.533   0.127   5.044
53760SOL     OW63176  14.641   7.917  10.213
53760SOL    HW163177  14.564   7.919  10.157
53760SOL    HW263178  14.621   7.975  10.286
53761SOL     OW63179   3.727   6.069   1.594
53761SOL    HW163180   3.808   6.029   1.627
53761SOL    HW263181   3.671   5.995   1.571
53762SOL     OW63182   3.724   6.600   5.014
53762SOL    HW163183   3.780   6.569   5.085
53762SOL    HW263184   3.671   6.668   5.053
53763SOL     OW63185  10.754  13.577   0.925
53763SOL    HW163186  10.783  13.664   0.953
53763SOL    HW263187  10.662  13.589   0.901
53764SOL     OW63188  11.915  13.284   7.221
53764SOL    HW163189  11.934  13.332   7.141
53764SOL    HW263190  11.952  13.337   7.292
53765SOL     OW63191   4.752   6.432   1.994
53765SOL    HW163192   4.769   6.453   2.086
53765SOL    HW263193   4.687   6.496   1.966
53766SOL     OW63194   2.031   8.970  13.722
53766SOL    HW163195   2.070   8.884  13.739
53766SOL    HW263196   2.102   9.032  13.740
53767SOL     OW63197   4.132   3.497   4.660
53767SOL    HW163198   4.214   3.504   4.611
53767SOL    HW263199   4.136   3.570   4.723
53768SOL     OW63200   5.611  14.690  12.739
53768SOL    HW163201   5.627  14.782  12.715
53768SOL    HW263202   5.516  14.686  12.755
53769SOL     OW63203   2.062   8.731  12.745
53769SOL    HW163204   2.070   8.665  12.677
53769SOL    HW263205   2.086   8.686  12.826
53770SOL     OW63206  10.581   1.520   4.175
53770SOL    HW163207  10.492   1.554   4.162
53770SOL    HW263208  10.571   1.456   4.246
53771SOL     OW63209  14.392   6.358  13.954
53771SOL    HW163210  14.305   6.333  13.985
53771SOL    HW263211  14.377   6.435  13.899
53772SOL     OW63212   3.793   8.971   2.374
53772SOL    HW163213   3.765   8.894   2.324
53772SOL    HW263214   3.862   8.939   2.432
53773SOL     OW63215  11.791   1.246   9.129
53773SOL    HW163216  11.784   1.323   9.072
53773SOL    HW263217  11.703   1.233   9.163
53774SOL     OW63218   3.799   5.300  13.532
53774SOL    HW163219   3.821   5.385  13.569
53774SOL    HW263220   3.781   5.319  13.439
53775SOL     OW63221   2.498  12.935   2.553
53775SOL    HW163222   2.415  12.916   2.597
53775SOL    HW263223   2.473  12.951   2.462
53776SOL     OW63224   7.695  13.671  13.152
53776SOL    HW163225   7.650  13.745  13.112
53776SOL    HW263226   7.688  13.600  13.088
53777SOL     OW63227   5.077  12.193   2.684
53777SOL    HW163228   5.107  12.264   2.741
53777SOL    HW263229   4.993  12.224   2.650
53778SOL     OW63230   5.096   5.183  14.220
53778SOL    HW163231   5.179   5.184  14.172
53778SOL    HW263232   5.031   5.156  14.155
53779SOL     OW63233   1.057   1.014   9.829
53779SOL    HW163234   1.054   1.021   9.925
53779SOL    HW263235   1.013   0.932   9.810
53780SOL     OW63236  13.184   7.747   6.927
53780SOL    HW163237  13.119   7.678   6.936
53780SOL    HW263238  13.153   7.801   6.854
53781SOL     OW63239   4.184  12.614  10.999
53781SOL    HW163240   4.244  12.628  10.925
53781SOL    HW263241   4.226  12.656  11.073
53782SOL     OW63242  14.474  13.940  10.240
53782SOL    HW163243  14.403  13.906  10.294
53782SOL    HW263244  14.466  13.894  10.157
53783SOL     OW63245  14.730  10.819   5.390
53783SOL    HW163246  14.779  10.749   5.434
53783SOL    HW263247  14.784  10.841   5.315
53784SOL     OW63248   7.147   3.613  10.453
53784SOL    HW163249   7.143   3.582  10.363
53784SOL    HW263250   7.203   3.690  10.449
53785SOL     OW63251   3.173  10.950   6.268
53785SOL    HW163252   3.136  10.991   6.346
53785SOL    HW263253   3.165  11.018   6.200
53786SOL     OW63254   6.314   4.564   2.136
53786SOL    HW163255   6.310   4.472   2.162
53786SOL    HW263256   6.250   4.572   2.066
53787SOL     OW63257   9.213   2.760  10.092
53787SOL    HW163258   9.150   2.690  10.111
53787SOL    HW263259   9.168   2.841  10.119
53788SOL     OW63260  12.548   3.799   9.825
53788SOL    HW163261  12.479   3.861   9.803
53788SOL    HW263262  12.509   3.713   9.812
53789SOL     OW63263  12.022  14.744   1.865
53789SOL    HW163264  11.950  14.789   1.909
53789SOL    HW263265  12.064  14.692   1.933
53790SOL     OW63266   5.048  10.410   2.700
53790SOL    HW163267   5.079  10.320   2.704
53790SOL    HW263268   5.046  10.439   2.792
53791SOL     OW63269   4.084   8.496   8.552
53791SOL    HW163270   4.117   8.426   8.608
53791SOL    HW263271   4.157   8.557   8.544
53792SOL     OW63272  10.350   1.807  10.310
53792SOL    HW163273  10.374   1.802  10.402
53792SOL    HW263274  10.333   1.900  10.294
53793SOL     OW63275   2.599  13.807   5.365
53793SOL    HW163276   2.621  13.714   5.373
53793SOL    HW263277   2.587  13.820   5.271
53794SOL     OW63278   2.731   4.893  13.607
53794SOL    HW163279   2.700   4.861  13.522
53794SOL    HW263280   2.826   4.883  13.604
53795SOL     OW63281   4.399   0.357  10.043
53795SOL    HW163282   4.330   0.291  10.057
53795SOL    HW263283   4.418   0.353   9.950
53796SOL     OW63284  11.997   4.874  12.305
53796SOL    HW163285  11.987   4.780  12.293
53796SOL    HW263286  12.079   4.883  12.354
53797SOL     OW63287  11.916   0.195   1.405
53797SOL    HW163288  11.977   0.236   1.467
53797SOL    HW263289  11.862   0.138   1.459
53798SOL     OW63290   9.756  14.344   7.524
53798SOL    HW163291   9.709  14.327   7.605
53798SOL    HW263292   9.811  14.420   7.544
53799SOL     OW63293   5.861   7.867   8.213
53799SOL    HW163294   5.938   7.922   8.225
53799SOL    HW263295   5.895   7.789   8.169
53800SOL     OW63296   8.864   7.864   2.723
53800SOL    HW163297   8.882   7.915   2.802
53800SOL    HW263298   8.890   7.922   2.651
53801SOL     OW63299  10.206  11.556   1.600
53801SOL    HW163300  10.283  11.596   1.559
53801SOL    HW263301  10.172  11.497   1.533
53802SOL     OW63302   1.956   0.365   2.549
53802SOL    HW163303   1.988   0.436   2.493
53802SOL    HW263304   1.899   0.409   2.612
53803SOL     OW63305  11.197   4.212   5.156
53803SOL    HW163306  11.165   4.286   5.104
53803SOL    HW263307  11.120   4.158   5.172
53804SOL     OW63308   0.943  10.347  11.819
53804SOL    HW163309   1.005  10.367  11.749
53804SOL    HW263310   0.979  10.269  11.861
53805SOL     OW63311   3.610   1.223   5.709
53805SOL    HW163312   3.649   1.181   5.632
53805SOL    HW263313   3.683   1.271   5.749
53806SOL     OW63314  14.725   2.808  13.914
53806SOL    HW163315  14.652   2.761  13.874
53806SOL    HW263316  14.739   2.884  13.858
53807SOL     OW63317  13.756   5.486  12.305
53807SOL    HW163318  13.788   5.397  12.314
53807SOL    HW263319  13.664   5.480  12.331
53808SOL     OW63320   5.371   9.512  12.536
53808SOL    HW163321   5.414   9.497  12.452
53808SOL    HW263322   5.373   9.427  12.580
53809SOL     OW63323   9.339   8.147   7.469
53809SOL    HW163324   9.373   8.164   7.381
53809SOL    HW263325   9.391   8.203   7.527
53810SOL     OW63326  11.727   3.020   1.675
53810SOL    HW163327  11.728   3.102   1.625
53810SOL    HW263328  11.810   3.019   1.722
53811SOL     OW63329   7.187   0.287  11.259
53811SOL    HW163330   7.177   0.358  11.196
53811SOL    HW263331   7.183   0.207  11.206
53812SOL     OW63332  11.135  10.158   1.108
53812SOL    HW163333  11.116  10.137   1.199
53812SOL    HW263334  11.136  10.254   1.105
53813SOL     OW63335  11.633   3.387   7.702
53813SOL    HW163336  11.649   3.445   7.628
53813SOL    HW263337  11.665   3.434   7.778
53814SOL     OW63338   2.433  13.105   8.243
53814SOL    HW163339   2.419  13.035   8.307
53814SOL    HW263340   2.351  13.154   8.244
53815SOL     OW63341   0.035   1.965   6.087
53815SOL    HW163342   0.065   1.874   6.094
53815SOL    HW263343   0.115   2.015   6.070
53816SOL     OW63344   1.511   0.109   3.506
53816SOL    HW163345   1.593   0.094   3.554
53816SOL    HW263346   1.536   0.115   3.415
53817SOL     OW63347  11.607   9.233   4.735
53817SOL    HW163348  11.641   9.148   4.707
53817SOL    HW263349  11.567   9.216   4.820
53818SOL     OW63350   7.343   8.184   9.340
53818SOL    HW163351   7.432   8.165   9.309
53818SOL    HW263352   7.337   8.140   9.425
53819SOL     OW63353   0.329   9.185  11.025
53819SOL    HW163354   0.365   9.150  10.944
53819SOL    HW263355   0.262   9.247  10.995
53820SOL     OW63356  12.583   6.824  11.597
53820SOL    HW163357  12.647   6.760  11.564
53820SOL    HW263358  12.612   6.842  11.687
53821SOL     OW63359   6.243   4.036  12.835
53821SOL    HW163360   6.331   3.997  12.832
53821SOL    HW263361   6.189   3.976  12.783
53822SOL     OW63362   0.290   8.215   9.842
53822SOL    HW163363   0.213   8.185   9.890
53822SOL    HW263364   0.364   8.194   9.900
53823SOL     OW63365  11.954   6.851  12.938
53823SOL    HW163366  11.954   6.756  12.952
53823SOL    HW263367  12.024   6.883  12.995
53824SOL     OW63368  14.042  13.909  11.940
53824SOL    HW163369  14.111  13.892  11.877
53824SOL    HW263370  14.065  13.856  12.016
53825SOL     OW63371   5.705   6.019  14.188
53825SOL    HW163372   5.765   5.987  14.120
53825SOL    HW263373   5.687   6.110  14.163
53826SOL     OW63374   1.098  12.865   6.078
53826SOL    HW163375   1.049  12.822   6.148
53826SOL    HW263376   1.033  12.883   6.010
53827SOL     OW63377   4.314  11.303   9.316
53827SOL    HW163378   4.343  11.389   9.346
53827SOL    HW263379   4.220  11.302   9.334
53828SOL     OW63380  12.388  14.311  10.987
53828SOL    HW163381  12.351  14.381  10.934
53828SOL    HW263382  12.331  14.305  11.063
53829SOL     OW63383  13.799  13.726   0.381
53829SOL    HW163384  13.749  13.780   0.320
53829SOL    HW263385  13.891  13.742   0.359
53830SOL     OW63386  10.971   9.437   3.838
53830SOL    HW163387  10.942   9.497   3.770
53830SOL    HW263388  10.924   9.355   3.821
53831SOL     OW63389  12.705   4.903   4.780
53831SOL    HW163390  12.715   4.990   4.818
53831SOL    HW263391  12.678   4.847   4.854
53832SOL     OW63392   9.607   9.405   5.671
53832SOL    HW163393   9.685   9.452   5.640
53832SOL    HW263394   9.557   9.386   5.592
53833SOL     OW63395   9.158   5.527   0.397
53833SOL    HW163396   9.168   5.435   0.422
53833SOL    HW263397   9.064   5.544   0.408
53834SOL     OW63398   9.341   4.353  13.264
53834SOL    HW163399   9.387   4.321  13.342
53834SOL    HW263400   9.256   4.382  13.296
53835SOL     OW63401  12.327  12.878  14.836
53835SOL    HW163402  12.386  12.952  14.823
53835SOL    HW263403  12.382  12.801  14.822
53836SOL     OW63404   5.868   5.260   6.466
53836SOL    HW163405   5.877   5.200   6.540
53836SOL    HW263406   5.848   5.205   6.391
53837SOL     OW63407   2.783   3.371  11.345
53837SOL    HW163408   2.863   3.388  11.294
53837SOL    HW263409   2.772   3.276  11.342
53838SOL     OW63410   9.718  11.405   3.060
53838SOL    HW163411   9.809  11.433   3.051
53838SOL    HW263412   9.721  11.335   3.125
53839SOL     OW63413  11.379   3.037  12.248
53839SOL    HW163414  11.459   3.015  12.201
53839SOL    HW263415  11.401   3.114  12.300
53840SOL     OW63416  14.060  10.230   2.061
53840SOL    HW163417  14.008  10.241   1.982
53840SOL    HW263418  14.061  10.135   2.076
53841SOL     OW63419   5.096   1.401  14.828
53841SOL    HW163420   5.121   1.308  14.828
53841SOL    HW263421   5.001   1.401  14.820
53842SOL     OW63422   9.167  10.676   1.045
53842SOL    HW163423   9.225  10.601   1.033
53842SOL    HW263424   9.220  10.741   1.091
53843SOL     OW63425   6.206   7.396  11.339
53843SOL    HW163426   6.273   7.348  11.291
53843SOL    HW263427   6.225   7.378  11.431
53844SOL     OW63428   7.372  10.021   8.411
53844SOL    HW163429   7.335  10.020   8.323
53844SOL    HW263430   7.463   9.994   8.400
53845SOL     OW63431   5.725   2.773   4.475
53845SOL    HW163432   5.780   2.846   4.448
53845SOL    HW263433   5.759   2.747   4.561
53846SOL     OW63434  12.496  10.930   4.477
53846SOL    HW163435  12.401  10.932   4.475
53846SOL    HW263436  12.522  11.012   4.519
53847SOL     OW63437   1.830   9.774   0.859
53847SOL    HW163438   1.913   9.770   0.812
53847SOL    HW263439   1.825   9.864   0.892
53848SOL     OW63440   3.217   2.452   2.363
53848SOL    HW163441   3.178   2.483   2.281
53848SOL    HW263442   3.310   2.472   2.354
53849SOL     OW63443   7.070   7.658   7.133
53849SOL    HW163444   6.988   7.619   7.163
53849SOL    HW263445   7.049   7.750   7.119
53850SOL     OW63446   8.446  10.927   1.134
53850SOL    HW163447   8.371  10.984   1.119
53850SOL    HW263448   8.474  10.900   1.046
53851SOL     OW63449   6.618  13.122   0.248
53851SOL    HW163450   6.547  13.073   0.290
53851SOL    HW263451   6.598  13.214   0.266
53852SOL     OW63452  10.461   0.945   5.290
53852SOL    HW163453  10.539   0.899   5.320
53852SOL    HW263454  10.457   1.023   5.346
53853SOL     OW63455   6.241   3.501  13.165
53853SOL    HW163456   6.192   3.577  13.199
53853SOL    HW263457   6.288   3.467  13.241
53854SOL     OW63458  14.184   9.662  13.481
53854SOL    HW163459  14.216   9.747  13.452
53854SOL    HW263460  14.260   9.604  13.474
53855SOL     OW63461   1.146   1.723   6.838
53855SOL    HW163462   1.056   1.751   6.821
53855SOL    HW263463   1.183   1.792   6.893
53856SOL     OW63464   8.004  14.125   8.747
53856SOL    HW163465   8.025  14.156   8.835
53856SOL    HW263466   7.909  14.120   8.745
53857SOL     OW63467  10.307   1.805   6.566
53857SOL    HW163468  10.315   1.838   6.477
53857SOL    HW263469  10.368   1.732   6.570
53858SOL     OW63470  12.851   0.625   5.400
53858SOL    HW163471  12.858   0.720   5.404
53858SOL    HW263472  12.934   0.595   5.363
53859SOL     OW63473   0.760   2.652  13.523
53859SOL    HW163474   0.679   2.671  13.570
53859SOL    HW263475   0.733   2.642  13.432
53860SOL     OW63476   6.634   1.912   3.635
53860SOL    HW163477   6.553   1.891   3.589
53860SOL    HW263478   6.694   1.939   3.565
53861SOL     OW63479  13.312   0.091   5.715
53861SOL    HW163480  13.231   0.045   5.694
53861SOL    HW263481  13.378   0.049   5.660
53862SOL     OW63482   8.040   5.970  12.241
53862SOL    HW163483   8.112   6.009  12.191
53862SOL    HW263484   7.969   6.035  12.235
53863SOL     OW63485   7.159  12.221   8.616
53863SOL    HW163486   7.142  12.133   8.650
53863SOL    HW263487   7.246  12.214   8.577
53864SOL     OW63488  13.282  11.282   2.731
53864SOL    HW163489  13.357  11.312   2.679
53864SOL    HW263490  13.214  11.265   2.666
53865SOL     OW63491   4.324   0.065   0.980
53865SOL    HW163492   4.307   0.000   0.911
53865SOL    HW263493   4.238   0.081   1.019
53866SOL     OW63494  10.918   0.941   0.809
53866SOL    HW163495  10.973   0.865   0.827
53866SOL    HW263496  10.964   1.014   0.850
53867SOL     OW63497   6.419   1.773   8.074
53867SOL    HW163498   6.323   1.773   8.079
53867SOL    HW263499   6.447   1.818   8.154
53868SOL     OW63500   1.673   1.060   5.481
53868SOL    HW163501   1.746   1.025   5.430
53868SOL    HW263502   1.685   1.024   5.568
53869SOL     OW63503  14.508  14.063  11.625
53869SOL    HW163504  14.439  14.052  11.690
53869SOL    HW263505  14.499  13.988  11.567
53870SOL     OW63506   1.979  10.980   0.206
53870SOL    HW163507   1.972  11.027   0.123
53870SOL    HW263508   1.971  10.888   0.183
53871SOL     OW63509   6.558   5.195  13.433
53871SOL    HW163510   6.638   5.149  13.458
53871SOL    HW263511   6.512   5.132  13.377
53872SOL     OW63512  12.590   7.382  13.412
53872SOL    HW163513  12.643   7.361  13.335
53872SOL    HW263514  12.526   7.310  13.417
53873SOL     OW63515   5.282   9.156   8.945
53873SOL    HW163516   5.362   9.166   8.893
53873SOL    HW263517   5.271   9.062   8.954
53874SOL     OW63518   1.663  13.366  10.047
53874SOL    HW163519   1.600  13.293  10.051
53874SOL    HW263520   1.713  13.359  10.128
53875SOL     OW63521  11.756   0.553   9.861
53875SOL    HW163522  11.773   0.534   9.768
53875SOL    HW263523  11.660   0.561   9.866
53876SOL     OW63524   2.883   4.779  11.027
53876SOL    HW163525   2.938   4.855  11.044
53876SOL    HW263526   2.813   4.785  11.092
53877SOL     OW63527   2.978  12.924   4.004
53877SOL    HW163528   2.973  12.829   3.989
53877SOL    HW263529   3.072  12.941   4.010
53878SOL     OW63530   7.892   1.473   5.319
53878SOL    HW163531   7.916   1.445   5.408
53878SOL    HW263532   7.976   1.489   5.276
53879SOL     OW63533  12.912   3.948   6.414
53879SOL    HW163534  12.839   3.915   6.467
53879SOL    HW263535  12.986   3.952   6.474
53880SOL     OW63536   1.937   5.649  14.264
53880SOL    HW163537   1.932   5.700  14.183
53880SOL    HW263538   1.908   5.708  14.332
53881SOL     OW63539  12.578  11.944  11.545
53881SOL    HW163540  12.530  11.890  11.608
53881SOL    HW263541  12.645  11.988  11.598
53882SOL     OW63542  13.868   0.281   7.593
53882SOL    HW163543  13.838   0.190   7.599
53882SOL    HW263544  13.790   0.333   7.611
53883SOL     OW63545   6.245   6.481  11.736
53883SOL    HW163546   6.150   6.489  11.748
53883SOL    HW263547   6.257   6.395  11.697
53884SOL     OW63548   7.587  13.314   6.444
53884SOL    HW163549   7.536  13.262   6.382
53884SOL    HW263550   7.556  13.287   6.530
53885SOL     OW63551   7.297   5.123   0.863
53885SOL    HW163552   7.251   5.195   0.906
53885SOL    HW263553   7.356   5.087   0.930
53886SOL     OW63554   3.404   0.171   8.800
53886SOL    HW163555   3.338   0.106   8.777
53886SOL    HW263556   3.487   0.124   8.796
53887SOL     OW63557   1.843   5.433   5.679
53887SOL    HW163558   1.877   5.522   5.667
53887SOL    HW263559   1.771   5.443   5.742
53888SOL     OW63560   2.687   7.039  10.713
53888SOL    HW163561   2.676   6.950  10.679
53888SOL    HW263562   2.716   7.026  10.803
53889SOL     OW63563   7.003   1.292   1.304
53889SOL    HW163564   7.035   1.261   1.220
53889SOL    HW263565   6.909   1.275   1.301
53890SOL     OW63566   8.511   6.940   3.627
53890SOL    HW163567   8.493   7.029   3.656
53890SOL    HW263568   8.564   6.951   3.548
53891SOL     OW63569  13.407   2.659   9.826
53891SOL    HW163570  13.340   2.709   9.780
53891SOL    HW263571  13.479   2.653   9.764
53892SOL     OW63572   1.764   1.085  10.462
53892SOL    HW163573   1.802   1.010  10.508
53892SOL    HW263574   1.812   1.089  10.379
53893SOL     OW63575   1.635   1.610   3.736
53893SOL    HW163576   1.569   1.633   3.801
53893SOL    HW263577   1.708   1.669   3.754
53894SOL     OW63578   0.406   8.718   9.013
53894SOL    HW163579   0.407   8.647   9.078
53894SOL    HW263580   0.468   8.782   9.048
53895SOL     OW63581  14.210   4.030  14.729
53895SOL    HW163582  14.148   3.975  14.681
53895SOL    HW263583  14.217   3.989  14.815
53896SOL     OW63584   0.618  10.558   2.361
53896SOL    HW163585   0.709  10.534   2.343
53896SOL    HW263586   0.571  10.475   2.362
53897SOL     OW63587   3.712   3.262   5.188
53897SOL    HW163588   3.792   3.309   5.164
53897SOL    HW263589   3.668   3.244   5.105
53898SOL     OW63590   4.475   9.362   8.604
53898SOL    HW163591   4.408   9.371   8.535
53898SOL    HW263592   4.535   9.296   8.570
53899SOL     OW63593   9.637  13.089   8.783
53899SOL    HW163594   9.634  13.000   8.818
53899SOL    HW263595   9.561  13.094   8.724
53900SOL     OW63596  11.913   5.529   9.508
53900SOL    HW163597  11.836   5.490   9.549
53900SOL    HW263598  11.884   5.615   9.478
53901SOL     OW63599   0.263   6.066   8.213
53901SOL    HW163600   0.252   6.145   8.160
53901SOL    HW263601   0.194   6.007   8.183
53902SOL     OW63602   4.160  13.175  13.362
53902SOL    HW163603   4.195  13.263  13.363
53902SOL    HW263604   4.111  13.167  13.444
53903SOL     OW63605  14.095   6.986  11.353
53903SOL    HW163606  14.115   6.983  11.447
53903SOL    HW263607  14.000   6.998  11.349
53904SOL     OW63608  13.052  11.522   4.614
53904SOL    HW163609  13.077  11.601   4.663
53904SOL    HW263610  13.036  11.554   4.525
53905SOL     OW63611   7.208  10.970  13.023
53905SOL    HW163612   7.208  10.883  12.984
53905SOL    HW263613   7.263  10.961  13.102
53906SOL     OW63614   4.566   3.433   4.274
53906SOL    HW163615   4.531   3.456   4.188
53906SOL    HW263616   4.658   3.458   4.269
53907SOL     OW63617   5.987   4.153  11.379
53907SOL    HW163618   5.907   4.135  11.330
53907SOL    HW263619   6.040   4.074  11.369
53908SOL     OW63620   4.703  11.957   3.939
53908SOL    HW163621   4.689  11.863   3.952
53908SOL    HW263622   4.723  11.991   4.026
53909SOL     OW63623   6.739  12.480   4.827
53909SOL    HW163624   6.658  12.435   4.850
53909SOL    HW263625   6.734  12.492   4.733
53910SOL     OW63626   7.348   0.148  10.263
53910SOL    HW163627   7.347   0.054  10.245
53910SOL    HW263628   7.372   0.188  10.179
53911SOL     OW63629  13.585   6.277   0.164
53911SOL    HW163630  13.663   6.222   0.175
53911SOL    HW263631  13.619   6.367   0.161
53912SOL     OW63632  11.159  10.799  13.456
53912SOL    HW163633  11.233  10.818  13.398
53912SOL    HW263634  11.109  10.732  13.410
53913SOL     OW63635  10.026   9.237   7.159
53913SOL    HW163636  10.011   9.297   7.233
53913SOL    HW263637   9.949   9.180   7.159
53914SOL     OW63638   5.415  11.564  12.722
53914SOL    HW163639   5.393  11.656  12.732
53914SOL    HW263640   5.474  11.545  12.795
53915SOL     OW63641  14.489   2.942   0.621
53915SOL    HW163642  14.503   2.945   0.527
53915SOL    HW263643  14.415   2.883   0.633
53916SOL     OW63644   1.733   2.711  13.121
53916SOL    HW163645   1.702   2.728  13.032
53916SOL    HW263646   1.710   2.619  13.137
53917SOL     OW63647   2.429  11.768  11.522
53917SOL    HW163648   2.482  11.833  11.474
53917SOL    HW263649   2.484  11.744  11.596
53918SOL     OW63650   0.194  10.583  11.607
53918SOL    HW163651   0.118  10.619  11.563
53918SOL    HW263652   0.219  10.507  11.555
53919SOL     OW63653   2.556   7.011   7.974
53919SOL    HW163654   2.540   6.963   8.056
53919SOL    HW263655   2.534   6.947   7.906
53920SOL     OW63656   0.100  13.792   9.909
53920SOL    HW163657   0.140  13.723   9.857
53920SOL    HW263658   0.057  13.747   9.982
53921SOL     OW63659   8.086   6.185   9.631
53921SOL    HW163660   8.043   6.116   9.582
53921SOL    HW263661   8.124   6.242   9.564
53922SOL     OW63662   4.806   6.382   5.098
53922SOL    HW163663   4.736   6.371   5.162
53922SOL    HW263664   4.861   6.305   5.109
53923SOL     OW63665   7.749  11.700   6.076
53923SOL    HW163666   7.808  11.625   6.067
53923SOL    HW263667   7.707  11.687   6.161
53924SOL     OW63668   4.937   0.713  12.188
53924SOL    HW163669   4.898   0.768  12.256
53924SOL    HW263670   4.995   0.772  12.139
53925SOL     OW63671   0.516  10.469   8.707
53925SOL    HW163672   0.582  10.414   8.664
53925SOL    HW263673   0.523  10.446   8.800
53926SOL     OW63674   3.985   1.238  10.360
53926SOL    HW163675   4.041   1.311  10.334
53926SOL    HW263676   3.919   1.232  10.292
53927SOL     OW63677   7.133   2.608   9.707
53927SOL    HW163678   7.165   2.653   9.785
53927SOL    HW263679   7.039   2.623   9.707
53928SOL     OW63680   0.418   1.519   0.717
53928SOL    HW163681   0.368   1.441   0.739
53928SOL    HW263682   0.367   1.592   0.752
53929SOL     OW63683   9.549   6.797  14.130
53929SOL    HW163684   9.557   6.703  14.141
53929SOL    HW263685   9.639   6.826  14.113
53930SOL     OW63686   0.311  10.400  10.335
53930SOL    HW163687   0.258  10.322  10.351
53930SOL    HW263688   0.340  10.390  10.244
53931SOL     OW63689   1.271   8.153  11.440
53931SOL    HW163690   1.310   8.147  11.352
53931SOL    HW263691   1.178   8.137  11.426
53932SOL     OW63692   3.976   7.235   8.839
53932SOL    HW163693   3.903   7.177   8.860
53932SOL    HW263694   3.965   7.256   8.747
53933SOL     OW63695   1.573   5.048   6.872
53933SOL    HW163696   1.493   5.099   6.880
53933SOL    HW263697   1.566   5.004   6.788
53934SOL     OW63698   3.075  10.344   6.818
53934SOL    HW163699   3.004  10.308   6.764
53934SOL    HW263700   3.052  10.320   6.908
53935SOL     OW63701   5.138   4.525   5.730
53935SOL    HW163702   5.052   4.563   5.713
53935SOL    HW263703   5.181   4.587   5.789
53936SOL     OW63704   3.438   0.265   4.145
53936SOL    HW163705   3.465   0.237   4.058
53936SOL    HW263706   3.343   0.253   4.146
53937SOL     OW63707  11.412   8.107   5.148
53937SOL    HW163708  11.466   8.105   5.227
53937SOL    HW263709  11.361   8.026   5.152
53938SOL     OW63710   7.425  11.060   1.834
53938SOL    HW163711   7.433  11.150   1.867
53938SOL    HW263712   7.482  11.009   1.891
53939SOL     OW63713  12.757   0.841  11.798
53939SOL    HW163714  12.723   0.928  11.821
53939SOL    HW263715  12.831   0.859  11.741
53940SOL     OW63716   1.182   5.757   0.162
53940SOL    HW163717   1.169   5.846   0.196
53940SOL    HW263718   1.187   5.768   0.067
53941SOL     OW63719  10.398   3.801   0.359
53941SOL    HW163720  10.306   3.776   0.368
53941SOL    HW263721  10.447   3.729   0.398
53942SOL     OW63722   2.097  14.169   6.064
53942SOL    HW163723   2.081  14.088   6.017
53942SOL    HW263724   2.187  14.193   6.041
53943SOL     OW63725   3.165   1.281   2.600
53943SOL    HW163726   3.100   1.235   2.546
53943SOL    HW263727   3.114   1.348   2.646
53944SOL     OW63728   8.785   8.875   9.239
53944SOL    HW163729   8.813   8.833   9.320
53944SOL    HW263730   8.854   8.856   9.176
53945SOL     OW63731   1.933  11.347  11.383
53945SOL    HW163732   2.020  11.310  11.372
53945SOL    HW263733   1.884  11.280  11.430
53946SOL     OW63734   1.122  10.376  11.628
53946SOL    HW163735   1.200  10.323  11.613
53946SOL    HW263736   1.070  10.364  11.549
53947SOL     OW63737   2.580  11.264   4.489
53947SOL    HW163738   2.611  11.178   4.459
53947SOL    HW263739   2.597  11.264   4.583
53948SOL     OW63740  13.168  11.775   9.546
53948SOL    HW163741  13.128  11.727   9.619
53948SOL    HW263742  13.167  11.713   9.473
53949SOL     OW63743   4.418  11.354  10.865
53949SOL    HW163744   4.427  11.376  10.957
53949SOL    HW263745   4.438  11.260  10.861
53950SOL     OW63746   6.722   0.701   3.294
53950SOL    HW163747   6.707   0.735   3.383
53950SOL    HW263748   6.817   0.705   3.283
53951SOL     OW63749   2.959   0.586   1.060
53951SOL    HW163750   2.955   0.645   0.985
53951SOL    HW263751   2.873   0.592   1.100
53952SOL     OW63752  13.550   0.875   2.851
53952SOL    HW163753  13.503   0.792   2.861
53952SOL    HW263754  13.554   0.911   2.939
53953SOL     OW63755  11.928  13.507  14.096
53953SOL    HW163756  11.886  13.425  14.122
53953SOL    HW263757  11.943  13.498  14.002
53954SOL     OW63758  14.188   2.212   4.386
53954SOL    HW163759  14.250   2.195   4.457
53954SOL    HW263760  14.231   2.277   4.331
53955SOL     OW63761  12.732  11.292   1.508
53955SOL    HW163762  12.791  11.365   1.488
53955SOL    HW263763  12.719  11.298   1.603
53956SOL     OW63764   6.451  14.584  10.582
53956SOL    HW163765   6.408  14.666  10.606
53956SOL    HW263766   6.387  14.537  10.528
53957SOL     OW63767   8.198   1.704  14.009
53957SOL    HW163768   8.132   1.635  14.004
53957SOL    HW263769   8.266   1.676  13.948
53958SOL     OW63770  14.692   9.568   2.798
53958SOL    HW163771  14.629   9.560   2.870
53958SOL    HW263772  14.691   9.661   2.775
53959SOL     OW63773   6.711   1.855  11.361
53959SOL    HW163774   6.681   1.869  11.450
53959SOL    HW263775   6.796   1.897  11.357
53960SOL     OW63776   3.612  13.698  14.341
53960SOL    HW163777   3.619  13.625  14.281
53960SOL    HW263778   3.639  13.662  14.426
53961SOL     OW63779   6.412   3.267  14.862
53961SOL    HW163780   6.451   3.289   0.064
53961SOL    HW263781   6.475   3.208  14.820
53962SOL     OW63782   6.057   4.155   1.679
53962SOL    HW163783   6.153   4.151   1.678
53962SOL    HW263784   6.033   4.194   1.596
53963SOL     OW63785   3.334  10.079   5.988
53963SOL    HW163786   3.280  10.025   6.046
53963SOL    HW263787   3.422  10.042   5.995
53964SOL     OW63788   8.830   8.467  11.797
53964SOL    HW163789   8.882   8.420  11.732
53964SOL    HW263790   8.886   8.468  11.875
53965SOL     OW63791   8.245   4.034   4.203
53965SOL    HW163792   8.299   4.015   4.127
53965SOL    HW263793   8.288   3.990   4.276
53966SOL     OW63794  10.106   8.120   0.667
53966SOL    HW163795  10.126   8.084   0.581
53966SOL    HW263796  10.118   8.214   0.658
53967SOL     OW63797   7.196  13.413   2.189
53967SOL    HW163798   7.268  13.463   2.226
53967SOL    HW263799   7.233  13.327   2.170
53968SOL     OW63800  12.929   2.901  12.592
53968SOL    HW163801  12.942   2.993  12.566
53968SOL    HW263802  12.834   2.891  12.594
53969SOL     OW63803   3.768   7.508   7.174
53969SOL    HW163804   3.761   7.600   7.148
53969SOL    HW263805   3.810   7.465   7.100
53970SOL     OW63806  11.536  12.571   5.823
53970SOL    HW163807  11.448  12.534   5.831
53970SOL    HW263808  11.521  12.664   5.805
53971SOL     OW63809   7.878   0.445  13.109
53971SOL    HW163810   7.917   0.445  13.021
53971SOL    HW263811   7.859   0.537  13.127
53972SOL     OW63812  13.595   6.571   6.544
53972SOL    HW163813  13.604   6.478   6.563
53972SOL    HW263814  13.518   6.598   6.594
53973SOL     OW63815   6.795   9.850  13.904
53973SOL    HW163816   6.870   9.894  13.943
53973SOL    HW263817   6.719   9.890  13.946
53974SOL     OW63818   2.621   0.411  14.791
53974SOL    HW163819   2.683   0.482  14.809
53974SOL    HW263820   2.568   0.444  14.719
53975SOL     OW63821  13.888   0.576  13.658
53975SOL    HW163822  13.955   0.631  13.699
53975SOL    HW263823  13.923   0.556  13.571
53976SOL     OW63824   3.146   7.360   2.112
53976SOL    HW163825   3.232   7.392   2.139
53976SOL    HW263826   3.160   7.269   2.088
53977SOL     OW63827   8.548  11.352  13.625
53977SOL    HW163828   8.547  11.295  13.549
53977SOL    HW263829   8.563  11.440  13.589
53978SOL     OW63830   7.380   0.581  13.541
53978SOL    HW163831   7.336   0.613  13.462
53978SOL    HW263832   7.426   0.502  13.512
53979SOL     OW63833   6.796   5.982   5.709
53979SOL    HW163834   6.774   5.903   5.659
53979SOL    HW263835   6.723   5.992   5.771
53980SOL     OW63836   8.072   0.395   8.759
53980SOL    HW163837   8.108   0.428   8.677
53980SOL    HW263838   8.007   0.460   8.785
53981SOL     OW63839  12.085   8.691   4.232
53981SOL    HW163840  12.117   8.601   4.218
53981SOL    HW263841  12.106   8.709   4.324
53982SOL     OW63842   9.696   4.150   0.608
53982SOL    HW163843   9.773   4.105   0.643
53982SOL    HW263844   9.720   4.170   0.517
53983SOL     OW63845   9.088   3.510   8.770
53983SOL    HW163846   9.083   3.505   8.675
53983SOL    HW263847   9.162   3.454   8.793
53984SOL     OW63848   5.795   9.709  12.383
53984SOL    HW163849   5.701   9.726  12.392
53984SOL    HW263850   5.809   9.627  12.430
53985SOL     OW63851  11.026   2.516  11.215
53985SOL    HW163852  11.025   2.506  11.119
53985SOL    HW263853  10.935   2.536  11.237
53986SOL     OW63854  13.969   1.484   0.251
53986SOL    HW163855  14.039   1.440   0.300
53986SOL    HW263856  13.991   1.577   0.258
53987SOL     OW63857   7.429   8.207  12.227
53987SOL    HW163858   7.337   8.191  12.249
53987SOL    HW263859   7.435   8.188  12.133
53988SOL     OW63860   5.659   7.974   7.917
53988SOL    HW163861   5.623   7.908   7.976
53988SOL    HW263862   5.677   8.049   7.974
53989SOL     OW63863   0.976   7.997  13.728
53989SOL    HW163864   1.033   7.962  13.659
53989SOL    HW263865   1.012   7.961  13.809
53990SOL     OW63866  12.317   4.155   2.994
53990SOL    HW163867  12.262   4.225   2.961
53990SOL    HW263868  12.380   4.198   3.052
53991SOL     OW63869  13.785   7.811   3.026
53991SOL    HW163870  13.757   7.813   2.934
53991SOL    HW263871  13.818   7.722   3.039
53992SOL     OW63872   7.397   3.883   8.572
53992SOL    HW163873   7.337   3.864   8.500
53992SOL    HW263874   7.350   3.856   8.651
53993SOL     OW63875   4.264   0.593   5.307
53993SOL    HW163876   4.174   0.593   5.273
53993SOL    HW263877   4.280   0.685   5.328
53994SOL     OW63878  14.604   3.370   5.945
53994SOL    HW163879  14.677   3.403   5.894
53994SOL    HW263880  14.622   3.276   5.955
53995SOL     OW63881  12.521   4.863  12.368
53995SOL    HW163882  12.561   4.787  12.410
53995SOL    HW263883  12.593   4.902  12.317
53996SOL     OW63884   4.992   5.469   8.428
53996SOL    HW163885   4.917   5.409   8.433
53996SOL    HW263886   5.044   5.450   8.506
53997SOL     OW63887  11.579   4.824   8.089
53997SOL    HW163888  11.643   4.802   8.021
53997SOL    HW263889  11.564   4.742   8.135
53998SOL     OW63890   8.104   7.465  12.751
53998SOL    HW163891   8.106   7.376  12.786
53998SOL    HW263892   8.184   7.473  12.700
53999SOL     OW63893   4.156   8.628  10.241
53999SOL    HW163894   4.223   8.562  10.257
53999SOL    HW263895   4.148   8.632  10.146
54000SOL     OW63896   9.097  14.776  12.085
54000SOL    HW163897   9.135  14.691  12.060
54000SOL    HW263898   9.117  14.834  12.012
54001SOL     OW63899  14.485   7.485  11.456
54001SOL    HW163900  14.418   7.423  11.428
54001SOL    HW263901  14.496   7.468  11.549
54002SOL     OW63902   1.610   7.075   0.255
54002SOL    HW163903   1.653   6.992   0.234
54002SOL    HW263904   1.622   7.086   0.349
54003SOL     OW63905   5.996   9.303   0.055
54003SOL    HW163906   5.905   9.325   0.036
54003SOL    HW263907   5.992   9.214   0.090
54004SOL     OW63908   7.855   8.749  12.426
54004SOL    HW163909   7.890   8.662  12.407
54004SOL    HW263910   7.767   8.732  12.460
54005SOL     OW63911   4.894   0.748   2.389
54005SOL    HW163912   4.825   0.776   2.449
54005SOL    HW263913   4.925   0.829   2.349
54006SOL     OW63914   4.958   3.512   4.719
54006SOL    HW163915   4.938   3.603   4.697
54006SOL    HW263916   5.048   3.500   4.688
54007SOL     OW63917  11.290  10.278   2.540
54007SOL    HW163918  11.201  10.312   2.530
54007SOL    HW263919  11.309  10.233   2.458
54008SOL     OW63920  12.075   2.396   5.187
54008SOL    HW163921  12.080   2.476   5.134
54008SOL    HW263922  12.012   2.416   5.256
54009SOL     OW63923   5.257   2.950   3.577
54009SOL    HW163924   5.214   2.913   3.654
54009SOL    HW263925   5.201   3.024   3.552
54010SOL     OW63926  12.161   9.095   7.582
54010SOL    HW163927  12.233   9.063   7.527
54010SOL    HW263928  12.174   9.190   7.585
54011SOL     OW63929   4.394   2.364   2.903
54011SOL    HW163930   4.320   2.417   2.934
54011SOL    HW263931   4.453   2.428   2.862
54012SOL     OW63932  10.025   9.505   3.822
54012SOL    HW163933  10.077   9.586   3.819
54012SOL    HW263934  10.086   9.439   3.854
54013SOL     OW63935  13.020   0.979   7.832
54013SOL    HW163936  13.017   0.897   7.783
54013SOL    HW263937  13.035   0.953   7.923
54014SOL     OW63938  11.039  13.574   9.301
54014SOL    HW163939  10.962  13.593   9.247
54014SOL    HW263940  11.085  13.505   9.254
54015SOL     OW63941   1.298  13.541   8.621
54015SOL    HW163942   1.303  13.498   8.535
54015SOL    HW263943   1.286  13.634   8.600
54016SOL     OW63944   1.069   2.401   1.836
54016SOL    HW163945   1.100   2.396   1.926
54016SOL    HW263946   0.975   2.418   1.843
54017SOL     OW63947   5.011   4.809   7.423
54017SOL    HW163948   5.086   4.761   7.457
54017SOL    HW263949   4.937   4.777   7.475
54018SOL     OW63950   7.047   5.480   0.917
54018SOL    HW163951   7.054   5.557   0.974
54018SOL    HW263952   7.108   5.496   0.846
54019SOL     OW63953   9.541   2.698  12.305
54019SOL    HW163954   9.470   2.762  12.296
54019SOL    HW263955   9.618   2.743  12.271
54020SOL     OW63956  12.680  11.105   3.972
54020SOL    HW163957  12.763  11.108   4.020
54020SOL    HW263958  12.634  11.029   4.008
54021SOL     OW63959   1.049  13.300  10.129
54021SOL    HW163960   1.115  13.368  10.143
54021SOL    HW263961   0.994  13.335  10.059
54022SOL     OW63962  11.759   7.484  11.491
54022SOL    HW163963  11.735   7.571  11.521
54022SOL    HW263964  11.676   7.445  11.463
54023SOL     OW63965   7.452   6.544   3.460
54023SOL    HW163966   7.530   6.598   3.461
54023SOL    HW263967   7.465   6.481   3.532
54024SOL     OW63968   8.441   9.014  12.085
54024SOL    HW163969   8.369   9.061  12.043
54024SOL    HW263970   8.415   8.922  12.083
54025SOL     OW63971   7.564  11.164   3.120
54025SOL    HW163972   7.631  11.232   3.123
54025SOL    HW263973   7.571  11.126   3.032
54026SOL     OW63974   4.352   8.584   5.005
54026SOL    HW163975   4.407   8.519   5.047
54026SOL    HW263976   4.263   8.560   5.030
54027SOL     OW63977  13.647   8.228   2.603
54027SOL    HW163978  13.697   8.288   2.658
54027SOL    HW263979  13.584   8.284   2.558
54028SOL     OW63980   9.291   2.347  11.738
54028SOL    HW163981   9.328   2.265  11.769
54028SOL    HW263982   9.367   2.398  11.708
54029SOL     OW63983   0.746   3.570   0.701
54029SOL    HW163984   0.748   3.664   0.685
54029SOL    HW263985   0.653   3.546   0.692
54030SOL     OW63986   7.254  10.851  13.301
54030SOL    HW163987   7.307  10.771  13.297
54030SOL    HW263988   7.176  10.825  13.350
54031SOL     OW63989   1.432   0.945   2.311
54031SOL    HW163990   1.445   0.875   2.247
54031SOL    HW263991   1.513   0.948   2.362
54032SOL     OW63992   2.102   7.660  12.610
54032SOL    HW163993   2.008   7.677  12.606
54032SOL    HW263994   2.141   7.745  12.630
54033SOL     OW63995  12.323   7.208   2.903
54033SOL    HW163996  12.388   7.268   2.938
54033SOL    HW263997  12.298   7.246   2.819
54034SOL     OW63998   7.393  11.281   4.302
54034SOL    HW163999   7.370  11.324   4.384
54034SOL    HW264000   7.332  11.208   4.295
54035SOL     OW64001   1.124  13.675   8.895
54035SOL    HW164002   1.184  13.617   8.848
54035SOL    HW264003   1.115  13.635   8.982
54036SOL     OW64004  11.247   9.615   1.746
54036SOL    HW164005  11.289   9.650   1.825
54036SOL    HW264006  11.216   9.528   1.772
54037SOL     OW64007  11.447  13.445   8.576
54037SOL    HW164008  11.391  13.514   8.539
54037SOL    HW264009  11.462  13.385   8.503
54038SOL     OW64010  11.233  11.636   6.940
54038SOL    HW164011  11.262  11.676   7.022
54038SOL    HW264012  11.287  11.557   6.931
54039SOL     OW64013   4.553   7.261   7.147
54039SOL    HW164014   4.648   7.265   7.141
54039SOL    HW264015   4.533   7.287   7.238
54040SOL     OW64016  14.693  12.754   8.940
54040SOL    HW164017  14.738  12.788   9.017
54040SOL    HW264018  14.676  12.831   8.886
54041SOL     OW64019  11.686   3.695  11.846
54041SOL    HW164020  11.689   3.649  11.930
54041SOL    HW264021  11.697   3.787  11.869
54042SOL     OW64022   3.961  13.712   4.770
54042SOL    HW164023   4.017  13.704   4.692
54042SOL    HW264024   4.022  13.705   4.844
54043SOL     OW64025   8.412   5.467   7.048
54043SOL    HW164026   8.377   5.410   6.979
54043SOL    HW264027   8.334   5.506   7.088
54044SOL     OW64028  12.237   3.273  12.222
54044SOL    HW164029  12.273   3.259  12.135
54044SOL    HW264030  12.313   3.291  12.277
54045SOL     OW64031   7.125   3.337   5.585
54045SOL    HW164032   7.136   3.339   5.680
54045SOL    HW264033   7.121   3.243   5.564
54046SOL     OW64034   8.787   9.683  12.645
54046SOL    HW164035   8.732   9.743  12.695
54046SOL    HW264036   8.726   9.619  12.609
54047SOL     OW64037  11.234   2.913   9.394
54047SOL    HW164038  11.171   2.842   9.397
54047SOL    HW264039  11.223   2.959   9.477
54048SOL     OW64040   5.952   2.251   1.285
54048SOL    HW164041   5.873   2.284   1.329
54048SOL    HW264042   5.940   2.276   1.193
54049SOL     OW64043   6.200  11.150   1.368
54049SOL    HW164044   6.170  11.131   1.457
54049SOL    HW264045   6.291  11.177   1.379
54050SOL     OW64046  13.657   7.854   2.799
54050SOL    HW164047  13.708   7.931   2.823
54050SOL    HW264048  13.642   7.864   2.705
54051SOL     OW64049  13.817   8.386   4.572
54051SOL    HW164050  13.872   8.465   4.568
54051SOL    HW264051  13.806   8.360   4.481
54052SOL     OW64052  13.751   6.134   1.313
54052SOL    HW164053  13.739   6.224   1.282
54052SOL    HW264054  13.699   6.081   1.254
54053SOL     OW64055   7.175   3.264   3.965
54053SOL    HW164056   7.099   3.229   3.918
54053SOL    HW264057   7.213   3.327   3.904
54054SOL     OW64058   4.300  11.035  14.746
54054SOL    HW164059   4.282  10.954  14.697
54054SOL    HW264060   4.230  11.095  14.721
54055SOL     OW64061   1.812   2.259   1.614
54055SOL    HW164062   1.890   2.314   1.623
54055SOL    HW264063   1.743   2.309   1.657
54056SOL     OW64064   1.002  12.597   8.078
54056SOL    HW164065   1.014  12.537   8.005
54056SOL    HW264066   0.988  12.540   8.154
54057SOL     OW64067  13.122   8.283  11.726
54057SOL    HW164068  13.160   8.359  11.682
54057SOL    HW264069  13.163   8.208  11.684
54058SOL     OW64070   7.734   8.016  11.857
54058SOL    HW164071   7.699   7.991  11.771
54058SOL    HW264072   7.661   8.003  11.917
54059SOL     OW64073  11.173  12.569   8.164
54059SOL    HW164074  11.111  12.581   8.237
54059SOL    HW264075  11.212  12.484   8.180
54060SOL     OW64076   1.872   4.470   2.976
54060SOL    HW164077   1.817   4.549   2.978
54060SOL    HW264078   1.836   4.418   2.904
54061SOL     OW64079   8.597   3.357   8.406
54061SOL    HW164080   8.685   3.322   8.418
54061SOL    HW264081   8.571   3.387   8.493
54062SOL     OW64082  10.660   3.677  13.234
54062SOL    HW164083  10.661   3.637  13.321
54062SOL    HW264084  10.729   3.631  13.186
54063SOL     OW64085   5.200   5.949   5.834
54063SOL    HW164086   5.139   6.022   5.820
54063SOL    HW264087   5.154   5.890   5.893
54064SOL     OW64088  10.468   0.876   1.971
54064SOL    HW164089  10.542   0.937   1.970
54064SOL    HW264090  10.509   0.790   1.980
54065SOL     OW64091   9.377   1.817  14.761
54065SOL    HW164092   9.338   1.737  14.796
54065SOL    HW264093   9.429   1.852  14.834
54066SOL     OW64094   8.890   0.204   4.185
54066SOL    HW164095   8.850   0.249   4.260
54066SOL    HW264096   8.948   0.269   4.146
54067SOL     OW64097   3.137   4.409   6.883
54067SOL    HW164098   3.147   4.498   6.918
54067SOL    HW264099   3.194   4.407   6.806
54068SOL     OW64100   9.125  10.809   8.052
54068SOL    HW164101   9.119  10.725   8.007
54068SOL    HW264102   9.129  10.874   7.981
54069SOL     OW64103   8.166  11.730   1.296
54069SOL    HW164104   8.259  11.706   1.296
54069SOL    HW264105   8.156  11.784   1.375
54070SOL     OW64106   2.320   7.328   5.228
54070SOL    HW164107   2.328   7.399   5.163
54070SOL    HW264108   2.378   7.260   5.196
54071SOL     OW64109   2.940   9.842   2.244
54071SOL    HW164110   2.978   9.808   2.163
54071SOL    HW264111   2.899   9.765   2.284
54072SOL     OW64112   7.271   8.809  11.843
54072SOL    HW164113   7.263   8.762  11.760
54072SOL    HW264114   7.182   8.812  11.878
54073SOL     OW64115   1.670   9.376   1.602
54073SOL    HW164116   1.697   9.347   1.689
54073SOL    HW264117   1.634   9.463   1.615
54074SOL     OW64118   6.133   6.093  13.283
54074SOL    HW164119   6.202   6.124  13.342
54074SOL    HW264120   6.180   6.046  13.214
54075SOL     OW64121  12.079   1.223   1.163
54075SOL    HW164122  12.028   1.143   1.166
54075SOL    HW264123  12.115   1.233   1.251
54076SOL     OW64124   9.310   8.058   4.632
54076SOL    HW164125   9.400   8.084   4.655
54076SOL    HW264126   9.291   8.107   4.553
54077SOL     OW64127   4.288   8.134  12.068
54077SOL    HW164128   4.335   8.217  12.073
54077SOL    HW264129   4.257   8.130  11.978
54078SOL     OW64130  10.787   2.754   7.611
54078SOL    HW164131  10.790   2.718   7.522
54078SOL    HW264132  10.810   2.846   7.601
54079SOL     OW64133   1.881   4.480   7.976
54079SOL    HW164134   1.846   4.482   7.887
54079SOL    HW264135   1.816   4.431   8.026
54080SOL     OW64136   6.079   9.422   1.963
54080SOL    HW164137   5.989   9.432   1.996
54080SOL    HW264138   6.097   9.329   1.970
54081SOL     OW64139   3.451   9.122  14.739
54081SOL    HW164140   3.390   9.093  14.807
54081SOL    HW264141   3.395   9.157  14.669
54082SOL     OW64142   8.241   1.883   9.322
54082SOL    HW164143   8.309   1.920   9.265
54082SOL    HW264144   8.254   1.926   9.406
54083SOL     OW64145   4.686   7.345  13.093
54083SOL    HW164146   4.618   7.385  13.040
54083SOL    HW264147   4.676   7.385  13.180
54084SOL     OW64148  10.511   2.691   9.125
54084SOL    HW164149  10.541   2.661   9.039
54084SOL    HW264150  10.428   2.735   9.108
54085SOL     OW64151   6.212   9.455   3.187
54085SOL    HW164152   6.221   9.375   3.240
54085SOL    HW264153   6.186   9.522   3.249
54086SOL     OW64154   2.018  10.304   4.191
54086SOL    HW164155   1.969  10.385   4.207
54086SOL    HW264156   2.104  10.333   4.162
54087SOL     OW64157  14.794  10.810   7.593
54087SOL    HW164158  14.800  10.831   7.499
54087SOL    HW264159  14.831  10.722   7.600
54088SOL     OW64160  12.109   3.426  11.075
54088SOL    HW164161  12.055   3.471  11.010
54088SOL    HW264162  12.049   3.405  11.147
54089SOL     OW64163   7.852   6.877  10.046
54089SOL    HW164164   7.936   6.879  10.001
54089SOL    HW264165   7.855   6.798  10.099
54090SOL     OW64166   5.082   5.842   0.753
54090SOL    HW164167   5.152   5.779   0.738
54090SOL    HW264168   5.120   5.908   0.811
54091SOL     OW64169   1.882   3.653   7.791
54091SOL    HW164170   1.952   3.714   7.767
54091SOL    HW264171   1.925   3.567   7.794
54092SOL     OW64172   5.456   8.639   6.607
54092SOL    HW164173   5.471   8.668   6.518
54092SOL    HW264174   5.510   8.697   6.661
54093SOL     OW64175  13.627  11.551  11.216
54093SOL    HW164176  13.556  11.551  11.151
54093SOL    HW264177  13.688  11.485  11.184
54094SOL     OW64178  11.945   1.887   8.623
54094SOL    HW164179  11.935   1.836   8.543
54094SOL    HW264180  12.039   1.903   8.630
54095SOL     OW64181   2.876   8.006  10.018
54095SOL    HW164182   2.819   7.951   9.963
54095SOL    HW264183   2.955   8.018   9.965
54096SOL     OW64184   0.839   1.202   3.435
54096SOL    HW164185   0.930   1.180   3.456
54096SOL    HW264186   0.844   1.287   3.391
54097SOL     OW64187   6.057   5.715  12.555
54097SOL    HW164188   5.997   5.641  12.561
54097SOL    HW264189   6.122   5.699  12.622
54098SOL     OW64190   5.930   7.850   0.015
54098SOL    HW164191   5.864   7.916  14.876
54098SOL    HW264192   5.887   7.767  14.880
54099SOL     OW64193  13.151   1.829   2.793
54099SOL    HW164194  13.170   1.861   2.705
54099SOL    HW264195  13.230   1.782   2.819
54100SOL     OW64196  12.593   7.955   6.118
54100SOL    HW164197  12.597   8.027   6.182
54100SOL    HW264198  12.586   7.876   6.172
54101SOL     OW64199   0.220   5.081  12.043
54101SOL    HW164200   0.283   5.045  11.980
54101SOL    HW264201   0.273   5.134  12.102
54102SOL     OW64202   9.729   0.560   2.308
54102SOL    HW164203   9.811   0.581   2.264
54102SOL    HW264204   9.711   0.637   2.363
54103SOL     OW64205  14.297   5.202   5.516
54103SOL    HW164206  14.377   5.242   5.481
54103SOL    HW264207  14.258   5.271   5.570
54104SOL     OW64208   2.656  12.764   9.505
54104SOL    HW164209   2.611  12.838   9.464
54104SOL    HW264210   2.593  12.692   9.497
54105SOL     OW64211   8.562  11.265   6.682
54105SOL    HW164212   8.576  11.351   6.643
54105SOL    HW264213   8.470  11.265   6.707
54106SOL     OW64214  12.409   0.227  14.078
54106SOL    HW164215  12.489   0.189  14.043
54106SOL    HW264216  12.389   0.300  14.018
54107SOL     OW64217   7.687   8.694   8.961
54107SOL    HW164218   7.670   8.706   8.868
54107SOL    HW264219   7.754   8.759   8.983
54108SOL     OW64220   0.837   4.775   0.345
54108SOL    HW164221   0.825   4.712   0.415
54108SOL    HW264222   0.756   4.824   0.341
54109SOL     OW64223   7.980   3.600   3.751
54109SOL    HW164224   8.002   3.513   3.785
54109SOL    HW264225   8.027   3.660   3.809
54110SOL     OW64226  10.243   0.772  12.995
54110SOL    HW164227  10.259   0.717  12.918
54110SOL    HW264228  10.185   0.720  13.051
54111SOL     OW64229   3.375   7.901   1.336
54111SOL    HW164230   3.414   7.943   1.413
54111SOL    HW264231   3.377   7.807   1.357
54112SOL     OW64232   6.119  11.273  12.556
54112SOL    HW164233   6.152  11.197  12.604
54112SOL    HW264234   6.136  11.347  12.614
54113SOL     OW64235   2.722  14.837   3.922
54113SOL    HW164236   2.776  14.758   3.919
54113SOL    HW264237   2.701  14.856   3.831
54114SOL     OW64238  13.355  14.183   3.268
54114SOL    HW164239  13.397  14.269   3.269
54114SOL    HW264240  13.399  14.135   3.198
54115SOL     OW64241  12.329  12.210   7.948
54115SOL    HW164242  12.353  12.288   7.998
54115SOL    HW264243  12.343  12.137   8.009
54116SOL     OW64244   3.171   8.122  12.743
54116SOL    HW164245   3.089   8.113  12.694
54116SOL    HW264246   3.219   8.041  12.724
54117SOL     OW64247  12.159  13.796  11.768
54117SOL    HW164248  12.178  13.785  11.675
54117SOL    HW264249  12.066  13.817  11.771
54118SOL     OW64250   9.036   7.458   2.795
54118SOL    HW164251   9.012   7.411   2.874
54118SOL    HW264252   9.106   7.406   2.755
54119SOL     OW64253   0.842  11.754   7.982
54119SOL    HW164254   0.901  11.771   7.908
54119SOL    HW264255   0.761  11.725   7.941
54120SOL     OW64256   7.783  13.366   0.642
54120SOL    HW164257   7.785  13.334   0.732
54120SOL    HW264258   7.872  13.349   0.609
54121SOL     OW64259   5.971  12.650   4.384
54121SOL    HW164260   5.876  12.650   4.399
54121SOL    HW264261   6.005  12.587   4.448
54122SOL     OW64262  12.290  14.517  12.943
54122SOL    HW164263  12.289  14.460  13.021
54122SOL    HW264264  12.294  14.456  12.869
54123SOL     OW64265   8.685  14.238   9.768
54123SOL    HW164266   8.691  14.252   9.673
54123SOL    HW264267   8.693  14.326   9.805
54124SOL     OW64268   4.661   9.151   6.535
54124SOL    HW164269   4.579   9.128   6.580
54124SOL    HW264270   4.722   9.081   6.558
54125SOL     OW64271   6.629   6.431   1.914
54125SOL    HW164272   6.604   6.363   1.852
54125SOL    HW264273   6.723   6.415   1.930
54126SOL     OW64274  13.550   5.019   0.321
54126SOL    HW164275  13.578   4.970   0.243
54126SOL    HW264276  13.487   4.962   0.364
54127SOL     OW64277  11.383  13.933   0.494
54127SOL    HW164278  11.454  13.886   0.539
54127SOL    HW264279  11.367  14.010   0.549
54128SOL     OW64280   7.413  10.163   7.868
54128SOL    HW164281   7.485  10.142   7.927
54128SOL    HW264282   7.412  10.091   7.804
54129SOL     OW64283  13.638  10.788   7.701
54129SOL    HW164284  13.709  10.727   7.722
54129SOL    HW264285  13.680  10.853   7.644
54130SOL     OW64286   1.201  11.951   4.311
54130SOL    HW164287   1.242  11.897   4.379
54130SOL    HW264288   1.274  11.992   4.265
54131SOL     OW64289  13.377   3.289   2.014
54131SOL    HW164290  13.286   3.274   1.987
54131SOL    HW264291  13.427   3.285   1.933
54132SOL     OW64292   3.338   5.301  13.611
54132SOL    HW164293   3.248   5.306  13.579
54132SOL    HW264294   3.381   5.378  13.574
54133SOL     OW64295   9.179  13.336   5.570
54133SOL    HW164296   9.227  13.274   5.625
54133SOL    HW264297   9.107  13.366   5.626
54134SOL     OW64298   1.110   7.526   6.069
54134SOL    HW164299   1.124   7.437   6.037
54134SOL    HW264300   1.051   7.516   6.144
54135SOL     OW64301  12.982   4.822  14.188
54135SOL    HW164302  13.053   4.784  14.135
54135SOL    HW264303  12.975   4.765  14.264
54136SOL     OW64304   1.658   8.747   3.698
54136SOL    HW164305   1.634   8.839   3.709
54136SOL    HW264306   1.576   8.702   3.679
54137SOL     OW64307   0.140  11.674  10.222
54137SOL    HW164308   0.170  11.753  10.178
54137SOL    HW264309   0.221  11.635  10.257
54138SOL     OW64310   7.995   8.684   8.355
54138SOL    HW164311   7.967   8.679   8.447
54138SOL    HW264312   8.075   8.737   8.358
54139SOL     OW64313  10.648   6.485   1.168
54139SOL    HW164314  10.602   6.458   1.248
54139SOL    HW264315  10.696   6.563   1.193
54140SOL     OW64316  11.005   4.669   7.320
54140SOL    HW164317  10.927   4.718   7.345
54140SOL    HW264318  11.046   4.644   7.403
54141SOL     OW64319  10.546  12.615   7.049
54141SOL    HW164320  10.638  12.600   7.028
54141SOL    HW264321  10.546  12.700   7.093
54142SOL     OW64322   6.332   8.570   0.580
54142SOL    HW164323   6.344   8.475   0.587
54142SOL    HW264324   6.298   8.596   0.666
54143SOL     OW64325   5.034   3.729   6.502
54143SOL    HW164326   5.048   3.667   6.573
54143SOL    HW264327   5.122   3.760   6.479
54144SOL     OW64328   0.055   4.274   3.203
54144SOL    HW164329   0.074   4.219   3.279
54144SOL    HW264330   0.038   4.212   3.132
54145SOL     OW64331   6.696   7.786  13.502
54145SOL    HW164332   6.698   7.780  13.598
54145SOL    HW264333   6.761   7.853  13.481
54146SOL     OW64334   9.755   2.827  11.750
54146SOL    HW164335   9.700   2.819  11.672
54146SOL    HW264336   9.695   2.810  11.823
54147SOL     OW64337   5.268  12.785  14.303
54147SOL    HW164338   5.297  12.855  14.244
54147SOL    HW264339   5.331  12.714  14.289
54148SOL     OW64340   4.685  12.626   1.696
54148SOL    HW164341   4.638  12.629   1.780
54148SOL    HW264342   4.725  12.539   1.695
54149SOL     OW64343   3.811   7.103  12.231
54149SOL    HW164344   3.799   7.100  12.136
54149SOL    HW264345   3.895   7.059  12.246
54150SOL     OW64346  14.298   1.219   8.081
54150SOL    HW164347  14.238   1.168   8.027
54150SOL    HW264348  14.266   1.207   8.171
54151SOL     OW64349  14.428   7.838   7.854
54151SOL    HW164350  14.347   7.881   7.827
54151SOL    HW264351  14.455   7.787   7.778
54152SOL     OW64352   9.367   6.030   7.293
54152SOL    HW164353   9.321   6.011   7.375
54152SOL    HW264354   9.408   5.946   7.270
54153SOL     OW64355   8.395   3.837   9.247
54153SOL    HW164356   8.364   3.925   9.226
54153SOL    HW264357   8.489   3.839   9.227
54154SOL     OW64358   3.859   6.631  11.210
54154SOL    HW164359   3.889   6.646  11.299
54154SOL    HW264360   3.765   6.647  11.213
54155SOL     OW64361  12.378  14.496   3.006
54155SOL    HW164362  12.447  14.429   2.997
54155SOL    HW264363  12.300  14.446   3.029
54156SOL     OW64364   1.867  14.467  12.660
54156SOL    HW164365   1.931  14.533  12.688
54156SOL    HW264366   1.836  14.427  12.741
54157SOL     OW64367   1.010   5.649   9.127
54157SOL    HW164368   0.983   5.673   9.039
54157SOL    HW264369   0.998   5.730   9.178
54158SOL     OW64370   8.650  11.117   6.181
54158SOL    HW164371   8.742  11.093   6.184
54158SOL    HW264372   8.609  11.051   6.125
54159SOL     OW64373   6.022  12.611   1.363
54159SOL    HW164374   6.028  12.683   1.425
54159SOL    HW264375   5.990  12.537   1.415
54160SOL     OW64376  14.055   9.649   7.381
54160SOL    HW164377  14.077   9.607   7.465
54160SOL    HW264378  14.137   9.691   7.354
54161SOL     OW64379  13.742  10.319  11.988
54161SOL    HW164380  13.769  10.302  11.897
54161SOL    HW264381  13.782  10.404  12.009
54162SOL     OW64382   3.112   1.125   0.343
54162SOL    HW164383   3.152   1.151   0.426
54162SOL    HW264384   3.024   1.097   0.366
54163SOL     OW64385   2.334   5.427   3.380
54163SOL    HW164386   2.254   5.429   3.432
54163SOL    HW264387   2.362   5.336   3.382
54164SOL     OW64388   8.518   1.988  13.339
54164SOL    HW164389   8.573   1.965  13.264
54164SOL    HW264390   8.433   2.010  13.300
54165SOL     OW64391   6.595  12.054   5.032
54165SOL    HW164392   6.633  11.994   5.098
54165SOL    HW264393   6.642  12.033   4.952
54166SOL     OW64394   9.709   3.042   3.385
54166SOL    HW164395   9.699   3.130   3.348
54166SOL    HW264396   9.760   2.995   3.320
54167SOL     OW64397   5.731   1.668   9.182
54167SOL    HW164398   5.704   1.630   9.265
54167SOL    HW264399   5.717   1.599   9.118
54168SOL     OW64400  11.832   4.585   8.444
54168SOL    HW164401  11.737   4.595   8.451
54168SOL    HW264402  11.855   4.633   8.364
54169SOL     OW64403   3.421   6.568  14.506
54169SOL    HW164404   3.335   6.578  14.466
54169SOL    HW264405   3.404   6.531  14.592
54170SOL     OW64406   3.220  12.440   8.497
54170SOL    HW164407   3.192  12.390   8.421
54170SOL    HW264408   3.140  12.480   8.530
54171SOL     OW64409   3.718  14.287   7.620
54171SOL    HW164410   3.759  14.315   7.701
54171SOL    HW264411   3.700  14.194   7.633
54172SOL     OW64412   4.597   5.342  11.876
54172SOL    HW164413   4.648   5.418  11.907
54172SOL    HW264414   4.559   5.371  11.793
54173SOL     OW64415   9.583   7.074   8.504
54173SOL    HW164416   9.671   7.104   8.525
54173SOL    HW264417   9.541   7.149   8.461
54174SOL     OW64418   9.781   6.591  12.826
54174SOL    HW164419   9.703   6.543  12.801
54174SOL    HW264420   9.848   6.562  12.765
54175SOL     OW64421   1.320   3.722  13.355
54175SOL    HW164422   1.253   3.657  13.334
54175SOL    HW264423   1.308   3.739  13.448
54176SOL     OW64424   3.980   0.333   4.351
54176SOL    HW164425   3.959   0.290   4.434
54176SOL    HW264426   4.075   0.346   4.353
54177SOL     OW64427  11.469   7.085   8.754
54177SOL    HW164428  11.435   7.137   8.827
54177SOL    HW264429  11.400   7.020   8.738
54178SOL     OW64430   6.007   1.240   1.887
54178SOL    HW164431   6.072   1.308   1.867
54178SOL    HW264432   6.049   1.185   1.952
54179SOL     OW64433   7.385  13.049   8.155
54179SOL    HW164434   7.368  12.964   8.114
54179SOL    HW264435   7.462  13.034   8.211
54180SOL     OW64436   7.965   6.363  13.587
54180SOL    HW164437   7.885   6.340  13.633
54180SOL    HW264438   8.020   6.285  13.595
54181SOL     OW64439   4.636   3.527   1.874
54181SOL    HW164440   4.625   3.450   1.819
54181SOL    HW264441   4.679   3.591   1.818
54182SOL     OW64442   0.916   6.339   6.725
54182SOL    HW164443   0.885   6.359   6.813
54182SOL    HW264444   0.945   6.248   6.729
54183SOL     OW64445  13.999  11.897   5.028
54183SOL    HW164446  13.921  11.851   4.995
54183SOL    HW264447  14.055  11.906   4.951
54184SOL     OW64448   3.595   7.154   9.741
54184SOL    HW164449   3.678   7.181   9.701
54184SOL    HW264450   3.603   7.179   9.833
54185SOL     OW64451   9.204  12.192  11.327
54185SOL    HW164452   9.256  12.264  11.364
54185SOL    HW264453   9.115  12.227  11.321
54186SOL     OW64454   7.796   4.851   2.699
54186SOL    HW164455   7.884   4.885   2.681
54186SOL    HW264456   7.785   4.782   2.633
54187SOL     OW64457   4.628   6.884   0.015
54187SOL    HW164458   4.621   6.963  14.844
54187SOL    HW264459   4.693   6.830  14.853
54188SOL     OW64460   7.540   9.886   9.043
54188SOL    HW164461   7.547   9.970   8.998
54188SOL    HW264462   7.589   9.898   9.124
54189SOL     OW64463   3.511   3.739   7.272
54189SOL    HW164464   3.436   3.683   7.291
54189SOL    HW264465   3.503   3.759   7.179
54190SOL     OW64466   1.232   1.676   3.619
54190SOL    HW164467   1.292   1.712   3.554
54190SOL    HW264468   1.247   1.582   3.615
54191SOL     OW64469   9.687  12.411   4.566
54191SOL    HW164470   9.670  12.363   4.485
54191SOL    HW264471   9.750  12.357   4.614
54192SOL     OW64472  11.249  11.561   1.514
54192SOL    HW164473  11.328  11.511   1.533
54192SOL    HW264474  11.279  11.635   1.460
54193SOL     OW64475   5.073  13.780   8.713
54193SOL    HW164476   5.059  13.787   8.808
54193SOL    HW264477   5.139  13.846   8.693
54194SOL     OW64478   3.724   5.735  14.097
54194SOL    HW164479   3.797   5.783  14.135
54194SOL    HW264480   3.757   5.645  14.087
54195SOL     OW64481  13.932   6.887   7.316
54195SOL    HW164482  13.870   6.815   7.306
54195SOL    HW264483  13.949   6.891   7.410
54196SOL     OW64484   1.097   1.992   2.739
54196SOL    HW164485   1.043   1.918   2.765
54196SOL    HW264486   1.178   1.982   2.788
54197SOL     OW64487   9.899   3.107   5.847
54197SOL    HW164488   9.827   3.094   5.785
54197SOL    HW264489   9.967   3.045   5.819
54198SOL     OW64490   9.467  12.045  10.146
54198SOL    HW164491   9.529  12.086  10.086
54198SOL    HW264492   9.442  12.115  10.207
54199SOL     OW64493  14.511  11.459   5.067
54199SOL    HW164494  14.480  11.452   5.157
54199SOL    HW264495  14.435  11.492   5.018
54200SOL     OW64496   6.004  10.276   5.058
54200SOL    HW164497   6.053  10.201   5.025
54200SOL    HW264498   6.061  10.315   5.124
54201SOL     OW64499   6.199   7.226   5.700
54201SOL    HW164500   6.130   7.202   5.636
54201SOL    HW264501   6.165   7.195   5.784
54202SOL     OW64502  14.065   2.777  11.128
54202SOL    HW164503  14.088   2.856  11.080
54202SOL    HW264504  14.134   2.767  11.194
54203SOL     OW64505   8.581  11.308   3.776
54203SOL    HW164506   8.566  11.215   3.796
54203SOL    HW264507   8.589  11.311   3.681
54204SOL     OW64508  14.341   8.854  12.374
54204SOL    HW164509  14.289   8.880  12.450
54204SOL    HW264510  14.372   8.936  12.337
54205SOL     OW64511   3.915  13.167   4.468
54205SOL    HW164512   3.823  13.157   4.492
54205SOL    HW264513   3.963  13.148   4.549
54206SOL     OW64514   5.747   5.501   3.633
54206SOL    HW164515   5.838   5.530   3.621
54206SOL    HW264516   5.722   5.466   3.547
54207SOL     OW64517   7.903  13.063  12.347
54207SOL    HW164518   7.955  13.054  12.428
54207SOL    HW264519   7.905  13.156  12.327
54208SOL     OW64520  12.694   5.768  11.493
54208SOL    HW164521  12.611   5.786  11.537
54208SOL    HW264522  12.677   5.690  11.441
54209SOL     OW64523   2.354   0.327   1.378
54209SOL    HW164524   2.427   0.300   1.322
54209SOL    HW264525   2.326   0.247   1.422
54210SOL     OW64526   5.023  14.368   7.040
54210SOL    HW164527   5.082  14.388   7.112
54210SOL    HW264528   4.936  14.385   7.075
54211SOL     OW64529   8.163   8.508   4.137
54211SOL    HW164530   8.221   8.454   4.084
54211SOL    HW264531   8.219   8.575   4.175
54212SOL     OW64532  11.350   1.366  13.730
54212SOL    HW164533  11.325   1.313  13.654
54212SOL    HW264534  11.435   1.332  13.757
54213SOL     OW64535   6.727   6.660   7.304
54213SOL    HW164536   6.809   6.639   7.258
54213SOL    HW264537   6.708   6.581   7.355
54214SOL     OW64538  10.612   7.046   4.396
54214SOL    HW164539  10.560   7.125   4.379
54214SOL    HW264540  10.694   7.079   4.433
54215SOL     OW64541   4.109   9.711  11.276
54215SOL    HW164542   4.135   9.744  11.190
54215SOL    HW264543   4.175   9.646  11.298
54216SOL     OW64544   1.454  13.022   6.561
54216SOL    HW164545   1.479  13.113   6.580
54216SOL    HW264546   1.359  13.026   6.553
54217SOL     OW64547   4.097  10.874   4.322
54217SOL    HW164548   4.173  10.843   4.372
54217SOL    HW264549   4.077  10.802   4.262
54218SOL     OW64550   4.037  13.750   3.311
54218SOL    HW164551   3.997  13.815   3.253
54218SOL    HW264552   3.973  13.738   3.381
54219SOL     OW64553   9.381   3.000   8.696
54219SOL    HW164554   9.318   3.023   8.629
54219SOL    HW264555   9.466   3.005   8.652
54220SOL     OW64556   9.713  11.362   1.983
54220SOL    HW164557   9.686  11.303   2.053
54220SOL    HW264558   9.800  11.331   1.958
54221SOL     OW64559  14.746   3.335   4.383
54221SOL    HW164560  14.787   3.294   4.460
54221SOL    HW264561  14.809   3.322   4.313
54222SOL     OW64562  13.480  14.161   1.794
54222SOL    HW164563  13.550  14.192   1.736
54222SOL    HW264564  13.399  14.182   1.747
54223SOL     OW64565  13.440  11.087  14.743
54223SOL    HW164566  13.389  11.114  14.820
54223SOL    HW264567  13.442  10.991  14.749
54224SOL     OW64568   5.488   8.269   2.762
54224SOL    HW164569   5.485   8.326   2.686
54224SOL    HW264570   5.397   8.266   2.793
54225SOL     OW64571   5.123   5.646   5.470
54225SOL    HW164572   5.173   5.587   5.414
54225SOL    HW264573   5.183   5.718   5.488
54226SOL     OW64574   9.956  12.236   7.863
54226SOL    HW164575  10.051  12.238   7.871
54226SOL    HW264576   9.932  12.145   7.881
54227SOL     OW64577   0.200   7.858   9.180
54227SOL    HW164578   0.261   7.847   9.253
54227SOL    HW264579   0.206   7.950   9.157
54228SOL     OW64580   2.620   8.858   5.623
54228SOL    HW164581   2.614   8.892   5.533
54228SOL    HW264582   2.687   8.790   5.618
54229SOL     OW64583  11.063  11.335  10.213
54229SOL    HW164584  10.976  11.320  10.177
54229SOL    HW264585  11.117  11.264  10.177
54230SOL     OW64586  12.129  11.244  12.688
54230SOL    HW164587  12.117  11.321  12.632
54230SOL    HW264588  12.196  11.192  12.643
54231SOL     OW64589   5.491  10.105   7.806
54231SOL    HW164590   5.420  10.160   7.772
54231SOL    HW264591   5.446  10.040   7.862
54232SOL     OW64592  13.236   1.581  10.275
54232SOL    HW164593  13.192   1.503  10.309
54232SOL    HW264594  13.167   1.647  10.268
54233SOL     OW64595   8.268  10.706   0.607
54233SOL    HW164596   8.354  10.749   0.611
54233SOL    HW264597   8.287  10.613   0.619
54234SOL     OW64598   1.137   3.881  10.091
54234SOL    HW164599   1.132   3.856  10.183
54234SOL    HW264600   1.149   3.799  10.044
54235SOL     OW64601  12.920  11.564  13.332
54235SOL    HW164602  12.829  11.537  13.343
54235SOL    HW264603  12.961  11.545  13.416
54236SOL     OW64604   0.814   7.480   3.790
54236SOL    HW164605   0.718   7.489   3.789
54236SOL    HW264606   0.844   7.541   3.723
54237SOL     OW64607   7.087   6.353  12.044
54237SOL    HW164608   7.072   6.330  12.136
54237SOL    HW264609   7.085   6.448  12.043
54238SOL     OW64610  10.016  11.843  11.826
54238SOL    HW164611   9.997  11.916  11.766
54238SOL    HW264612  10.007  11.765  11.773
54239SOL     OW64613   2.249  12.174   2.291
54239SOL    HW164614   2.231  12.104   2.228
54239SOL    HW264615   2.164  12.210   2.313
54240SOL     OW64616   8.266  13.177  10.726
54240SOL    HW164617   8.270  13.096  10.776
54240SOL    HW264618   8.299  13.153  10.640
54241SOL     OW64619   4.741  11.930   3.100
54241SOL    HW164620   4.712  11.978   3.177
54241SOL    HW264621   4.796  11.992   3.051
54242SOL     OW64622   3.425   0.127   9.221
54242SOL    HW164623   3.503   0.097   9.268
54242SOL    HW264624   3.459   0.177   9.147
54243SOL     OW64625  11.444   2.329   1.012
54243SOL    HW164626  11.532   2.358   1.036
54243SOL    HW264627  11.447   2.233   1.018
54244SOL     OW64628   9.172  11.511  10.992
54244SOL    HW164629   9.260  11.517  10.955
54244SOL    HW264630   9.178  11.440  11.056
54245SOL     OW64631   4.858  13.110   2.187
54245SOL    HW164632   4.805  13.032   2.173
54245SOL    HW264633   4.824  13.148   2.268
54246SOL     OW64634   3.376   0.583  10.648
54246SOL    HW164635   3.431   0.600  10.725
54246SOL    HW264636   3.423   0.623  10.575
54247SOL     OW64637  14.646   0.461  13.607
54247SOL    HW164638  14.606   0.403  13.543
54247SOL    HW264639  14.653   0.408  13.687
54248SOL     OW64640   8.813   0.681  14.016
54248SOL    HW164641   8.852   0.753  14.066
54248SOL    HW264642   8.871   0.607  14.032
54249SOL     OW64643   8.628   3.899  13.933
54249SOL    HW164644   8.661   3.907  13.843
54249SOL    HW264645   8.614   3.805  13.944
54250SOL     OW64646  12.064   6.035   7.970
54250SOL    HW164647  12.104   6.113   8.010
54250SOL    HW264648  12.043   6.062   7.880
54251SOL     OW64649   8.270   5.507   7.810
54251SOL    HW164650   8.234   5.429   7.852
54251SOL    HW264651   8.256   5.577   7.875
54252SOL     OW64652   4.979   6.186   9.838
54252SOL    HW164653   4.989   6.251   9.908
54252SOL    HW264654   4.919   6.122   9.874
54253SOL     OW64655   4.540   7.409   4.679
54253SOL    HW164656   4.493   7.459   4.612
54253SOL    HW264657   4.631   7.436   4.669
54254SOL     OW64658   5.562  11.075   5.022
54254SOL    HW164659   5.578  10.992   4.977
54254SOL    HW264660   5.627  11.077   5.092
54255SOL     OW64661  14.454  10.551   3.924
54255SOL    HW164662  14.416  10.535   4.011
54255SOL    HW264663  14.539  10.592   3.942
54256SOL     OW64664   5.737  12.614  14.064
54256SOL    HW164665   5.662  12.557  14.050
54256SOL    HW264666   5.782  12.617  13.979
54257SOL     OW64667  11.725  12.191   5.082
54257SOL    HW164668  11.637  12.222   5.058
54257SOL    HW264669  11.784  12.258   5.047
54258SOL     OW64670   7.293   4.924   1.056
54258SOL    HW164671   7.314   4.831   1.041
54258SOL    HW264672   7.209   4.936   1.012
54259SOL     OW64673  11.598   7.353  12.231
54259SOL    HW164674  11.571   7.445  12.228
54259SOL    HW264675  11.633   7.336  12.143
54260SOL     OW64676  10.952   4.153   0.826
54260SOL    HW164677  10.906   4.094   0.766
54260SOL    HW264678  11.044   4.146   0.800
54261SOL     OW64679  13.341   7.542   1.147
54261SOL    HW164680  13.381   7.545   1.060
54261SOL    HW264681  13.381   7.616   1.194
54262SOL     OW64682  11.987   8.623   0.501
54262SOL    HW164683  11.946   8.565   0.565
54262SOL    HW264684  12.053   8.670   0.551
54263SOL     OW64685   1.338   8.792   1.797
54263SOL    HW164686   1.386   8.797   1.715
54263SOL    HW264687   1.280   8.716   1.786
54264SOL     OW64688   7.477   2.699   4.211
54264SOL    HW164689   7.453   2.776   4.159
54264SOL    HW264690   7.395   2.652   4.224
54265SOL     OW64691  11.675   5.156  10.294
54265SOL    HW164692  11.688   5.247  10.268
54265SOL    HW264693  11.692   5.106  10.214
54266SOL     OW64694   0.892  11.718   3.064
54266SOL    HW164695   0.957  11.690   3.128
54266SOL    HW264696   0.810  11.678   3.094
54267SOL     OW64697   2.256   2.025  11.830
54267SOL    HW164698   2.302   2.084  11.890
54267SOL    HW264699   2.168   2.018  11.867
54268SOL     OW64700   5.625   6.226   5.747
54268SOL    HW164701   5.695   6.279   5.710
54268SOL    HW264702   5.654   6.136   5.733
54269SOL     OW64703   5.230   2.381  11.452
54269SOL    HW164704   5.187   2.307  11.494
54269SOL    HW264705   5.201   2.377  11.361
54270SOL     OW64706   8.569  12.441  14.416
54270SOL    HW164707   8.519  12.479  14.343
54270SOL    HW264708   8.614  12.365  14.377
54271SOL     OW64709  10.992   7.302  14.723
54271SOL    HW164710  11.029   7.334  14.641
54271SOL    HW264711  11.067   7.288  14.780
54272SOL     OW64712  12.070   4.877  13.329
54272SOL    HW164713  12.113   4.859  13.246
54272SOL    HW264714  12.140   4.871  13.394
54273SOL     OW64715  10.790   2.210  13.734
54273SOL    HW164716  10.736   2.274  13.689
54273SOL    HW264717  10.793   2.241  13.825
54274SOL     OW64718  14.494  13.835   5.595
54274SOL    HW164719  14.404  13.863   5.580
54274SOL    HW264720  14.506  13.760   5.537
54275SOL     OW64721   6.674  12.140   4.333
54275SOL    HW164722   6.764  12.170   4.330
54275SOL    HW264723   6.680  12.045   4.322
54276SOL     OW64724  14.056   1.474  12.879
54276SOL    HW164725  13.973   1.429  12.867
54276SOL    HW264726  14.080   1.457  12.970
54277SOL     OW64727   6.928  12.229  13.197
54277SOL    HW164728   6.884  12.152  13.234
54277SOL    HW264729   7.013  12.197  13.168
54278SOL     OW64730  11.767   3.297  11.808
54278SOL    HW164731  11.812   3.275  11.726
54278SOL    HW264732  11.821   3.258  11.876
54279SOL     OW64733   9.401   8.379   5.403
54279SOL    HW164734   9.325   8.325   5.425
54279SOL    HW264735   9.472   8.317   5.391
54280SOL     OW64736   3.718  11.124   5.410
54280SOL    HW164737   3.800  11.099   5.367
54280SOL    HW264738   3.690  11.045   5.457
54281SOL     OW64739   0.278  11.350  13.465
54281SOL    HW164740   0.207  11.369  13.405
54281SOL    HW264741   0.316  11.436  13.485
54282SOL     OW64742  13.679  12.653   5.038
54282SOL    HW164743  13.771  12.663   5.017
54282SOL    HW264744  13.667  12.700   5.120
54283SOL     OW64745   7.900   8.200  12.843
54283SOL    HW164746   7.849   8.154  12.777
54283SOL    HW264747   7.989   8.165  12.833
54284SOL     OW64748  10.834  14.366   6.087
54284SOL    HW164749  10.767  14.413   6.137
54284SOL    HW264750  10.817  14.273   6.106
54285SOL     OW64751   8.017   8.628   0.406
54285SOL    HW164752   8.017   8.689   0.333
54285SOL    HW264753   7.967   8.671   0.475
54286SOL     OW64754  12.667  11.422   0.264
54286SOL    HW164755  12.572  11.417   0.255
54286SOL    HW264756  12.685  11.516   0.270
54287SOL     OW64757   2.137  10.864   9.954
54287SOL    HW164758   2.194  10.941   9.964
54287SOL    HW264759   2.075  10.871  10.027
54288SOL     OW64760   3.374  13.022   1.403
54288SOL    HW164761   3.293  12.983   1.370
54288SOL    HW264762   3.348  13.070   1.482
54289SOL     OW64763  10.150   0.567   7.272
54289SOL    HW164764  10.161   0.657   7.244
54289SOL    HW264765  10.118   0.573   7.362
54290SOL     OW64766  12.150   3.198   4.959
54290SOL    HW164767  12.232   3.191   4.911
54290SOL    HW264768  12.159   3.278   5.011
54291SOL     OW64769   9.819   2.088   2.325
54291SOL    HW164770   9.851   2.089   2.235
54291SOL    HW264771   9.896   2.111   2.378
54292SOL     OW64772   2.625   3.876  13.479
54292SOL    HW164773   2.684   3.804  13.456
54292SOL    HW264774   2.595   3.855  13.567
54293SOL     OW64775  13.046   2.923  12.225
54293SOL    HW164776  13.006   2.857  12.169
54293SOL    HW264777  13.013   3.006  12.194
54294SOL     OW64778   0.202  13.011  12.440
54294SOL    HW164779   0.115  13.014  12.399
54294SOL    HW264780   0.258  12.970  12.375
54295SOL     OW64781  12.540   5.115   8.207
54295SOL    HW164782  12.479   5.108   8.280
54295SOL    HW264783  12.496   5.071   8.134
54296SOL     OW64784   2.259  14.729  12.953
54296SOL    HW164785   2.252  14.639  12.919
54296SOL    HW264786   2.289  14.780  12.878
54297SOL     OW64787  13.609   0.762   1.239
54297SOL    HW164788  13.555   0.714   1.176
54297SOL    HW264789  13.614   0.704   1.315
54298SOL     OW64790   9.553   5.620   6.904
54298SOL    HW164791   9.507   5.644   6.985
54298SOL    HW264792   9.625   5.683   6.898
54299SOL     OW64793  14.411  11.788   2.459
54299SOL    HW164794  14.389  11.695   2.459
54299SOL    HW264795  14.379  11.821   2.375
54300SOL     OW64796   0.150  13.533   8.244
54300SOL    HW164797   0.196  13.542   8.327
54300SOL    HW264798   0.081  13.469   8.260
54301SOL     OW64799  14.297   0.430  11.215
54301SOL    HW164800  14.310   0.449  11.308
54301SOL    HW264801  14.311   0.514  11.171
54302SOL     OW64802   2.120   4.315  14.806
54302SOL    HW164803   2.208   4.316  14.845
54302SOL    HW264804   2.116   4.396  14.756
54303SOL     OW64805  11.991   6.275   1.377
54303SOL    HW164806  12.062   6.325   1.336
54303SOL    HW264807  11.939   6.340   1.424
54304SOL     OW64808  12.378  11.956   2.965
54304SOL    HW164809  12.387  12.039   3.011
54304SOL    HW264810  12.285  11.933   2.976
54305SOL     OW64811   1.222   0.322   3.899
54305SOL    HW164812   1.177   0.257   3.953
54305SOL    HW264813   1.307   0.334   3.941
54306SOL     OW64814  11.384   6.420   4.183
54306SOL    HW164815  11.460   6.477   4.179
54306SOL    HW264816  11.323   6.465   4.242
54307SOL     OW64817  11.458   0.349   0.535
54307SOL    HW164818  11.448   0.260   0.567
54307SOL    HW264819  11.410   0.350   0.452
54308SOL     OW64820  13.583   1.977  13.817
54308SOL    HW164821  13.657   1.988  13.757
54308SOL    HW264822  13.609   2.027  13.895
54309SOL     OW64823   2.244   1.566   9.790
54309SOL    HW164824   2.309   1.534   9.853
54309SOL    HW264825   2.287   1.556   9.705
54310SOL     OW64826   3.545   0.094  11.558
54310SOL    HW164827   3.537   0.187  11.578
54310SOL    HW264828   3.582   0.092  11.470
54311SOL     OW64829   8.666  11.101   3.515
54311SOL    HW164830   8.740  11.134   3.464
54311SOL    HW264831   8.589  11.141   3.476
54312SOL     OW64832   7.234   8.764   8.917
54312SOL    HW164833   7.236   8.706   8.993
54312SOL    HW264834   7.286   8.719   8.851
54313SOL     OW64835   4.318   4.170  11.053
54313SOL    HW164836   4.231   4.132  11.069
54313SOL    HW264837   4.379   4.096  11.064
54314SOL     OW64838   8.169   1.846   1.958
54314SOL    HW164839   8.109   1.905   2.003
54314SOL    HW264840   8.183   1.887   1.873
54315SOL     OW64841   1.689   1.300   0.276
54315SOL    HW164842   1.650   1.382   0.306
54315SOL    HW264843   1.633   1.273   0.203
54316SOL     OW64844   5.714   1.102   7.203
54316SOL    HW164845   5.663   1.090   7.123
54316SOL    HW264846   5.668   1.171   7.251
54317SOL     OW64847  13.696   0.082   3.367
54317SOL    HW164848  13.664   0.171   3.369
54317SOL    HW264849  13.750   0.077   3.288
54318SOL     OW64850   2.593   4.329   7.289
54318SOL    HW164851   2.539   4.302   7.363
54318SOL    HW264852   2.576   4.423   7.279
54319SOL     OW64853   8.960   0.708   2.658
54319SOL    HW164854   8.871   0.739   2.639
54319SOL    HW264855   8.946   0.628   2.708
54320SOL     OW64856   8.709  13.920  14.121
54320SOL    HW164857   8.698  13.859  14.194
54320SOL    HW264858   8.772  13.984  14.153
54321SOL     OW64859   4.531  12.258  10.558
54321SOL    HW164860   4.475  12.193  10.601
54321SOL    HW264861   4.509  12.251  10.466
54322SOL     OW64862  13.689   2.889   1.645
54322SOL    HW164863  13.774   2.933   1.648
54322SOL    HW264864  13.667   2.875   1.737
54323SOL     OW64865  11.812   7.630   7.842
54323SOL    HW164866  11.772   7.710   7.808
54323SOL    HW264867  11.777   7.560   7.787
54324SOL     OW64868   7.722   4.553  14.045
54324SOL    HW164869   7.666   4.606  14.102
54324SOL    HW264870   7.810   4.585  14.062
54325SOL     OW64871   6.678   8.019   8.642
54325SOL    HW164872   6.739   7.994   8.711
54325SOL    HW264873   6.699   8.111   8.625
54326SOL     OW64874  13.303  10.875  14.541
54326SOL    HW164875  13.346  10.879  14.626
54326SOL    HW264876  13.210  10.887  14.561
54327SOL     OW64877   2.593   3.502   0.853
54327SOL    HW164878   2.675   3.484   0.807
54327SOL    HW264879   2.613   3.484   0.945
54328SOL     OW64880  14.286   7.165   0.404
54328SOL    HW164881  14.223   7.235   0.390
54328SOL    HW264882  14.250   7.114   0.476
54329SOL     OW64883  11.163   7.752  13.466
54329SOL    HW164884  11.149   7.799  13.384
54329SOL    HW264885  11.132   7.811  13.534
54330SOL     OW64886  11.670   2.733   3.184
54330SOL    HW164887  11.636   2.815   3.149
54330SOL    HW264888  11.737   2.760   3.247
54331SOL     OW64889   8.937   5.166   9.858
54331SOL    HW164890   8.987   5.230   9.807
54331SOL    HW264891   8.847   5.174   9.825
54332SOL     OW64892  10.613   1.919   9.336
54332SOL    HW164893  10.593   2.005   9.300
54332SOL    HW264894  10.630   1.864   9.259
54333SOL     OW64895   1.427  11.284  12.741
54333SOL    HW164896   1.351  11.234  12.710
54333SOL    HW264897   1.430  11.267  12.835
54334SOL     OW64898   2.066   3.822   2.773
54334SOL    HW164899   1.974   3.795   2.778
54334SOL    HW264900   2.114   3.739   2.767
54335SOL     OW64901  14.013   3.944  13.595
54335SOL    HW164902  13.999   4.034  13.567
54335SOL    HW264903  13.929   3.917  13.634
54336SOL     OW64904   3.395   7.151  14.792
54336SOL    HW164905   3.359   7.086  14.732
54336SOL    HW264906   3.340   7.229  14.779
54337SOL     OW64907   6.643   2.379  14.220
54337SOL    HW164908   6.549   2.366  14.231
54337SOL    HW264909   6.676   2.295  14.188
54338SOL     OW64910  11.351   1.460   0.491
54338SOL    HW164911  11.404   1.478   0.413
54338SOL    HW264912  11.378   1.527   0.554
54339SOL     OW64913   3.211  12.542  12.418
54339SOL    HW164914   3.258  12.466  12.451
54339SOL    HW264915   3.198  12.598  12.495
54340SOL     OW64916   6.853   3.445   7.785
54340SOL    HW164917   6.810   3.365   7.755
54340SOL    HW264918   6.833   3.510   7.718
54341SOL     OW64919  12.467   4.559   0.116
54341SOL    HW164920  12.456   4.466   0.099
54341SOL    HW264921  12.503   4.594   0.035
54342SOL     OW64922   0.197  11.845  12.159
54342SOL    HW164923   0.197  11.846  12.064
54342SOL    HW264924   0.281  11.882  12.184
54343SOL     OW64925  14.772   6.281   0.876
54343SOL    HW164926  14.833   6.326   0.818
54343SOL    HW264927  14.702   6.250   0.818
54344SOL     OW64928  12.987   1.111   7.009
54344SOL    HW164929  13.007   1.167   7.084
54344SOL    HW264930  13.044   1.144   6.939
54345SOL     OW64931   4.065  13.518  13.761
54345SOL    HW164932   4.126  13.444  13.772
54345SOL    HW264933   3.993  13.481  13.710
54346SOL     OW64934   4.737   8.889   6.631
54346SOL    HW164935   4.739   8.856   6.541
54346SOL    HW264936   4.829   8.894   6.656
54347SOL     OW64937   9.918   3.162   9.589
54347SOL    HW164938   9.844   3.131   9.641
54347SOL    HW264939   9.991   3.162   9.651
54348SOL     OW64940   2.761   1.762   2.253
54348SOL    HW164941   2.856   1.769   2.248
54348SOL    HW264942   2.730   1.791   2.168
54349SOL     OW64943   1.308  13.284   7.334
54349SOL    HW164944   1.332  13.344   7.405
54349SOL    HW264945   1.288  13.202   7.378
54350SOL     OW64946   5.312   0.739   4.954
54350SOL    HW164947   5.376   0.743   5.025
54350SOL    HW264948   5.362   0.763   4.875
54351SOL     OW64949  10.887  10.334   8.211
54351SOL    HW164950  10.961  10.385   8.178
54351SOL    HW264951  10.891  10.345   8.306
54352SOL     OW64952   5.521   7.182   1.515
54352SOL    HW164953   5.472   7.105   1.486
54352SOL    HW264954   5.583   7.149   1.580
54353SOL     OW64955  14.759   3.082   5.967
54353SOL    HW164956  14.667   3.061   5.982
54353SOL    HW264957  14.807   3.031   6.032
54354SOL     OW64958   9.370   4.548   0.495
54354SOL    HW164959   9.465   4.542   0.503
54354SOL    HW264960   9.344   4.609   0.564
54355SOL     OW64961  12.818  14.468   8.518
54355SOL    HW164962  12.794  14.386   8.560
54355SOL    HW264963  12.758  14.476   8.444
54356SOL     OW64964   5.739   1.117   6.745
54356SOL    HW164965   5.681   1.156   6.811
54356SOL    HW264966   5.685   1.049   6.704
54357SOL     OW64967   0.369  14.539   3.684
54357SOL    HW164968   0.320  14.561   3.762
54357SOL    HW264969   0.336  14.452   3.659
54358SOL     OW64970  10.521  10.837   1.360
54358SOL    HW164971  10.585  10.770   1.337
54358SOL    HW264972  10.498  10.878   1.276
54359SOL     OW64973   2.425   7.799   9.878
54359SOL    HW164974   2.376   7.757   9.949
54359SOL    HW264975   2.363   7.805   9.806
54360SOL     OW64976  14.634   7.045  10.299
54360SOL    HW164977  14.552   7.081  10.332
54360SOL    HW264978  14.654   6.971  10.357
54361SOL     OW64979   3.245   5.694   7.731
54361SOL    HW164980   3.314   5.656   7.677
54361SOL    HW264981   3.164   5.659   7.694
54362SOL     OW64982   0.262   7.888   4.228
54362SOL    HW164983   0.344   7.847   4.199
54362SOL    HW264984   0.214   7.818   4.272
54363SOL     OW64985  14.560   5.059  10.285
54363SOL    HW164986  14.586   5.032  10.373
54363SOL    HW264987  14.624   5.017  10.227
54364SOL     OW64988  11.002   6.576  11.348
54364SOL    HW164989  11.024   6.566  11.441
54364SOL    HW264990  11.086   6.595  11.305
54365SOL     OW64991   6.823  11.739  14.653
54365SOL    HW164992   6.895  11.752  14.715
54365SOL    HW264993   6.770  11.671  14.692
54366SOL     OW64994  13.506   2.010   2.903
54366SOL    HW164995  13.477   2.099   2.922
54366SOL    HW264996  13.510   2.005   2.808
54367SOL     OW64997   7.247  14.188  13.954
54367SOL    HW164998   7.179  14.122  13.965
54367SOL    HW264999   7.199  14.270  13.940
54368SOL     OW65000   0.171   8.075   3.463
54368SOL    HW165001   0.203   7.985   3.458
54368SOL    HW265002   0.238   8.121   3.513
54369SOL     OW65003   1.943  12.524  14.583
54369SOL    HW165004   1.926  12.430  14.583
54369SOL    HW265005   1.906  12.555  14.666
54370SOL     OW65006  14.026   3.708  11.312
54370SOL    HW165007  13.957   3.699  11.246
54370SOL    HW265008  13.980   3.738  11.390
54371SOL     OW65009   2.694   3.395   7.968
54371SOL    HW165010   2.785   3.364   7.964
54371SOL    HW265011   2.642   3.315   7.981
54372SOL     OW65012  10.497  14.183  13.877
54372SOL    HW165013  10.406  14.169  13.904
54372SOL    HW265014  10.509  14.126  13.801
54373SOL     OW65015  12.404   2.484   3.683
54373SOL    HW165016  12.342   2.416   3.657
54373SOL    HW265017  12.466   2.488   3.610
54374SOL     OW65018   8.218   0.563   7.240
54374SOL    HW165019   8.187   0.622   7.171
54374SOL    HW265020   8.303   0.598   7.265
54375SOL     OW65021   0.052   0.340   6.395
54375SOL    HW165022   0.126   0.362   6.338
54375SOL    HW265023   0.001   0.276   6.345
54376SOL     OW65024   6.897  12.868  12.215
54376SOL    HW165025   6.975  12.874  12.270
54376SOL    HW265026   6.931  12.875  12.125
54377SOL     OW65027   1.230  10.688   9.542
54377SOL    HW165028   1.259  10.658   9.455
54377SOL    HW265029   1.309  10.726   9.581
54378SOL     OW65030   3.913   4.403   1.262
54378SOL    HW165031   3.823   4.405   1.292
54378SOL    HW265032   3.965   4.411   1.342
54379SOL     OW65033  12.127  10.420   7.785
54379SOL    HW165034  12.076  10.347   7.821
54379SOL    HW265035  12.065  10.468   7.730
54380SOL     OW65036   3.885  10.382   6.669
54380SOL    HW165037   3.926  10.408   6.752
54380SOL    HW265038   3.938  10.309   6.638
54381SOL     OW65039  10.750  13.203   8.256
54381SOL    HW165040  10.684  13.158   8.203
54381SOL    HW265041  10.803  13.134   8.294
54382SOL     OW65042  10.743  11.986   6.134
54382SOL    HW165043  10.817  11.950   6.182
54382SOL    HW265044  10.771  11.984   6.042
54383SOL     OW65045   8.899   1.895   8.262
54383SOL    HW165046   8.970   1.887   8.198
54383SOL    HW265047   8.829   1.841   8.226
54384SOL     OW65048  13.245   9.404   5.299
54384SOL    HW165049  13.150   9.403   5.282
54384SOL    HW265050  13.252   9.381   5.391
54385SOL     OW65051   6.531   4.637  11.164
54385SOL    HW165052   6.597   4.575  11.195
54385SOL    HW265053   6.452   4.616  11.214
54386SOL     OW65054   4.929  12.419   0.008
54386SOL    HW165055   4.988  12.418   0.082
54386SOL    HW265056   4.842  12.426   0.047
54387SOL     OW65057   7.925   4.402   5.847
54387SOL    HW165058   7.897   4.324   5.798
54387SOL    HW265059   7.943   4.466   5.779
54388SOL     OW65060   8.846   6.349   4.326
54388SOL    HW165061   8.774   6.382   4.272
54388SOL    HW265062   8.814   6.267   4.362
54389SOL     OW65063  10.558  13.817  14.395
54389SOL    HW165064  10.487  13.753  14.387
54389SOL    HW265065  10.622  13.775  14.452
54390SOL     OW65066   0.766  11.220   7.394
54390SOL    HW165067   0.739  11.181   7.478
54390SOL    HW265068   0.835  11.281   7.417
54391SOL     OW65069   0.627  11.772  14.284
54391SOL    HW165070   0.554  11.834  14.279
54391SOL    HW265071   0.678  11.789  14.206
54392SOL     OW65072   0.524   1.772   0.957
54392SOL    HW165073   0.620   1.775   0.962
54392SOL    HW265074   0.504   1.792   0.865
54393SOL     OW65075  11.248  13.055   0.935
54393SOL    HW165076  11.220  12.992   1.001
54393SOL    HW265077  11.166  13.094   0.903
54394SOL     OW65078  12.074  12.404   0.357
54394SOL    HW165079  12.138  12.474   0.344
54394SOL    HW265080  12.078  12.352   0.277
54395SOL     OW65081  12.966   5.154  13.753
54395SOL    HW165082  12.993   5.148  13.661
54395SOL    HW265083  12.881   5.111  13.756
54396SOL     OW65084   7.553   7.934   6.444
54396SOL    HW165085   7.648   7.939   6.459
54396SOL    HW265086   7.522   8.024   6.456
54397SOL     OW65087  11.356   2.668   1.801
54397SOL    HW165088  11.340   2.652   1.894
54397SOL    HW265089  11.340   2.761   1.789
54398SOL     OW65090   8.227   9.182   9.562
54398SOL    HW165091   8.318   9.207   9.545
54398SOL    HW265092   8.230   9.086   9.571
54399SOL     OW65093  14.788   6.428  14.091
54399SOL    HW165094   0.000   6.445  14.092
54399SOL    HW265095  14.770   6.390  14.177
54400SOL     OW65096   6.595   7.938   0.170
54400SOL    HW165097   6.554   7.985   0.242
54400SOL    HW265098   6.609   7.849   0.204
54401SOL     OW65099  12.506   1.444  14.514
54401SOL    HW165100  12.468   1.514  14.567
54401SOL    HW265101  12.597   1.470  14.501
54402SOL     OW65102   4.337  14.350   4.469
54402SOL    HW165103   4.304  14.390   4.388
54402SOL    HW265104   4.407  14.408   4.498
54403SOL     OW65105   9.512   6.989   0.019
54403SOL    HW165106   9.608   6.994   0.020
54403SOL    HW265107   9.489   6.986  14.808
54404SOL     OW65108   9.173   1.591   4.012
54404SOL    HW165109   9.192   1.501   3.985
54404SOL    HW265110   9.184   1.591   4.107
54405SOL     OW65111   9.468  14.267  11.946
54405SOL    HW165112   9.429  14.184  11.919
54405SOL    HW265113   9.472  14.319  11.866
54406SOL     OW65114   1.776   6.327   7.081
54406SOL    HW165115   1.797   6.403   7.135
54406SOL    HW265116   1.738   6.264   7.142
54407SOL     OW65117   0.563   3.793   6.560
54407SOL    HW165118   0.584   3.701   6.580
54407SOL    HW265119   0.593   3.841   6.637
54408SOL     OW65120   6.485  12.112   2.156
54408SOL    HW165121   6.560  12.084   2.103
54408SOL    HW265122   6.524  12.138   2.240
54409SOL     OW65123  13.400  14.142   7.783
54409SOL    HW165124  13.491  14.127   7.757
54409SOL    HW265125  13.378  14.226   7.744
54410SOL     OW65126   9.701  12.924   6.125
54410SOL    HW165127   9.677  12.903   6.035
54410SOL    HW265128   9.683  13.018   6.134
54411SOL     OW65129   9.366   8.853  14.562
54411SOL    HW165130   9.435   8.859  14.628
54411SOL    HW265131   9.393   8.912  14.492
54412SOL     OW65132  14.394   2.625  10.704
54412SOL    HW165133  14.456   2.668  10.762
54412SOL    HW265134  14.308   2.640  10.745
54413SOL     OW65135  13.467  13.766   1.193
54413SOL    HW165136  13.468  13.825   1.268
54413SOL    HW265137  13.411  13.809   1.129
54414SOL     OW65138  13.762  12.181   1.898
54414SOL    HW165139  13.666  12.180   1.904
54414SOL    HW265140  13.789  12.099   1.939
54415SOL     OW65141   1.013  11.574   8.083
54415SOL    HW165142   0.961  11.506   8.039
54415SOL    HW265143   0.979  11.656   8.047
54416SOL     OW65144   2.093  10.517   6.506
54416SOL    HW165145   2.041  10.596   6.522
54416SOL    HW265146   2.121  10.524   6.415
54417SOL     OW65147   1.109   9.189  13.479
54417SOL    HW165148   1.078   9.119  13.421
54417SOL    HW265149   1.065   9.173  13.562
54418SOL     OW65150   7.612   7.798   3.852
54418SOL    HW165151   7.621   7.705   3.873
54418SOL    HW265152   7.591   7.840   3.936
54419SOL     OW65153   6.933   8.339  10.182
54419SOL    HW165154   6.853   8.377  10.217
54419SOL    HW265155   6.905   8.256  10.143
54420SOL     OW65156  14.019   9.201   6.764
54420SOL    HW165157  14.067   9.119   6.746
54420SOL    HW265158  14.051   9.228   6.850
54421SOL     OW65159   2.612   2.417   3.367
54421SOL    HW165160   2.685   2.462   3.409
54421SOL    HW265161   2.537   2.432   3.426
54422SOL     OW65162  14.463   8.093   5.278
54422SOL    HW165163  14.484   8.163   5.339
54422SOL    HW265164  14.459   8.136   5.192
54423SOL     OW65165   6.768  12.677   5.336
54423SOL    HW165166   6.836  12.636   5.388
54423SOL    HW265167   6.782  12.645   5.248
54424SOL     OW65168  10.263   4.762  11.607
54424SOL    HW165169  10.353   4.733  11.601
54424SOL    HW265170  10.229   4.719  11.686
54425SOL     OW65171   5.463   1.905   2.835
54425SOL    HW165172   5.540   1.852   2.854
54425SOL    HW265173   5.484   1.949   2.753
54426SOL     OW65174   8.095   4.599  11.301
54426SOL    HW165175   8.055   4.525  11.346
54426SOL    HW265176   8.075   4.675  11.355
54427SOL     OW65177   4.668   9.364   7.216
54427SOL    HW165178   4.734   9.414   7.169
54427SOL    HW265179   4.604   9.338   7.150
54428SOL     OW65180   6.559   9.300   3.004
54428SOL    HW165181   6.606   9.301   3.088
54428SOL    HW265182   6.589   9.379   2.959
54429SOL     OW65183   4.483  14.782  13.644
54429SOL    HW165184   4.560  14.740  13.604
54429SOL    HW265185   4.514  14.869  13.668
54430SOL     OW65186   5.494   7.593  14.090
54430SOL    HW165187   5.411   7.546  14.086
54430SOL    HW265188   5.557   7.535  14.047
54431SOL     OW65189   1.777   9.889  12.048
54431SOL    HW165190   1.792   9.833  11.972
54431SOL    HW265191   1.842   9.859  12.112
54432SOL     OW65192   5.909   5.846   5.438
54432SOL    HW165193   5.917   5.807   5.351
54432SOL    HW265194   5.998   5.841   5.474
54433SOL     OW65195   4.186  11.816   4.898
54433SOL    HW165196   4.274  11.781   4.885
54433SOL    HW265197   4.138  11.744   4.939
54434SOL     OW65198  11.556  13.061   1.433
54434SOL    HW165199  11.542  13.146   1.392
54434SOL    HW265200  11.617  13.016   1.375
54435SOL     OW65201   0.440   2.180   7.539
54435SOL    HW165202   0.392   2.241   7.484
54435SOL    HW265203   0.489   2.126   7.477
54436SOL     OW65204   9.406   7.362  13.437
54436SOL    HW165205   9.413   7.383  13.344
54436SOL    HW265206   9.339   7.293  13.440
54437SOL     OW65207   9.928   8.370   2.904
54437SOL    HW165208   9.867   8.439   2.879
54437SOL    HW265209   9.955   8.329   2.822
54438SOL     OW65210  10.547   3.959   1.074
54438SOL    HW165211  10.589   4.011   1.141
54438SOL    HW265212  10.527   4.021   1.004
54439SOL     OW65213   2.825   6.301   8.907
54439SOL    HW165214   2.868   6.257   8.981
54439SOL    HW265215   2.848   6.394   8.918
54440SOL     OW65216   6.504   0.717  10.052
54440SOL    HW165217   6.556   0.762   9.985
54440SOL    HW265218   6.523   0.765  10.133
54441SOL     OW65219   2.613   6.434   1.191
54441SOL    HW165220   2.573   6.356   1.230
54441SOL    HW265221   2.602   6.502   1.257
54442SOL     OW65222   5.465   1.275  12.550
54442SOL    HW165223   5.414   1.349  12.584
54442SOL    HW265224   5.413   1.243  12.476
54443SOL     OW65225  13.379   1.345  12.271
54443SOL    HW165226  13.380   1.258  12.231
54443SOL    HW265227  13.345   1.330  12.359
54444SOL     OW65228   0.850  12.008  11.092
54444SOL    HW165229   0.849  12.086  11.036
54444SOL    HW265230   0.869  12.042  11.179
54445SOL     OW65231  12.927   2.861  13.544
54445SOL    HW165232  12.965   2.800  13.482
54445SOL    HW265233  12.918   2.943  13.495
54446SOL     OW65234   4.884   6.450   8.614
54446SOL    HW165235   4.870   6.537   8.651
54446SOL    HW265236   4.833   6.391   8.671
54447SOL     OW65237   2.598   3.993   2.792
54447SOL    HW165238   2.611   3.963   2.882
54447SOL    HW265239   2.575   4.085   2.800
54448SOL     OW65240   7.657   1.929  14.713
54448SOL    HW165241   7.577   1.905  14.758
54448SOL    HW265242   7.633   2.005  14.660
54449SOL     OW65243   4.337   0.961   9.740
54449SOL    HW165244   4.339   0.866   9.746
54449SOL    HW265245   4.388   0.982   9.662
54450SOL     OW65246   8.490   6.327   7.367
54450SOL    HW165247   8.549   6.341   7.442
54450SOL    HW265248   8.452   6.413   7.350
54451SOL     OW65249   4.749   0.549   0.613
54451SOL    HW165250   4.724   0.497   0.537
54451SOL    HW265251   4.777   0.633   0.577
54452SOL     OW65252   6.006  13.195  10.995
54452SOL    HW165253   5.953  13.266  10.957
54452SOL    HW265254   5.945  13.145  11.049
54453SOL     OW65255  13.180  10.814   5.958
54453SOL    HW165256  13.165  10.792   5.866
54453SOL    HW265257  13.275  10.809   5.970
54454SOL     OW65258   0.483   5.729   1.734
54454SOL    HW165259   0.477   5.654   1.793
54454SOL    HW265260   0.522   5.694   1.654
54455SOL     OW65261  10.524  10.303   8.864
54455SOL    HW165262  10.498  10.326   8.774
54455SOL    HW265263  10.449  10.328   8.918
54456SOL     OW65264   3.767  12.255   5.128
54456SOL    HW165265   3.858  12.278   5.146
54456SOL    HW265266   3.751  12.177   5.181
54457SOL     OW65267   4.942   2.052   9.808
54457SOL    HW165268   4.892   2.119   9.763
54457SOL    HW265269   4.997   2.101   9.870
54458SOL     OW65270  13.197  11.701   6.603
54458SOL    HW165271  13.254  11.729   6.675
54458SOL    HW265272  13.172  11.612   6.625
54459SOL     OW65273   7.550   1.433   9.352
54459SOL    HW165274   7.589   1.381   9.423
54459SOL    HW265275   7.455   1.425   9.367
54460SOL     OW65276  13.231  14.484   2.752
54460SOL    HW165277  13.264  14.487   2.841
54460SOL    HW265278  13.185  14.400   2.746
54461SOL     OW65279   2.366   8.572   1.945
54461SOL    HW165280   2.407   8.653   1.975
54461SOL    HW265281   2.311   8.544   2.018
54462SOL     OW65282  10.432  13.389   3.665
54462SOL    HW165283  10.507  13.330   3.673
54462SOL    HW265284  10.451  13.442   3.587
54463SOL     OW65285  13.889  13.439   6.231
54463SOL    HW165286  13.935  13.521   6.249
54463SOL    HW265287  13.799  13.456   6.261
54464SOL     OW65288   7.422   3.849   3.006
54464SOL    HW165289   7.416   3.926   3.062
54464SOL    HW265290   7.498   3.865   2.950
54465SOL     OW65291   8.420   9.419  11.473
54465SOL    HW165292   8.492   9.420  11.409
54465SOL    HW265293   8.359   9.354  11.439
54466SOL     OW65294   2.316   3.961  14.769
54466SOL    HW165295   2.242   3.972  14.828
54466SOL    HW265296   2.373   3.897  14.812
54467SOL     OW65297   5.385  10.194   7.188
54467SOL    HW165298   5.397  10.201   7.093
54467SOL    HW265299   5.342  10.276   7.213
54468SOL     OW65300   6.186   4.737  11.670
54468SOL    HW165301   6.128   4.667  11.638
54468SOL    HW265302   6.197   4.718  11.763
54469SOL     OW65303   6.106  11.040  14.818
54469SOL    HW165304   6.168  10.983  14.863
54469SOL    HW265305   6.110  11.012  14.726
54470SOL     OW65306  10.352  11.749   0.359
54470SOL    HW165307  10.345  11.775   0.267
54470SOL    HW265308  10.352  11.653   0.357
54471SOL     OW65309   6.845   9.228   0.933
54471SOL    HW165310   6.881   9.261   0.850
54471SOL    HW265311   6.856   9.300   0.995
54472SOL     OW65312  10.754   1.070   2.608
54472SOL    HW165313  10.721   0.982   2.589
54472SOL    HW265314  10.815   1.058   2.681
54473SOL     OW65315   5.097  12.769  14.504
54473SOL    HW165316   5.175  12.764  14.449
54473SOL    HW265317   5.031  12.720  14.456
54474SOL     OW65318   4.064   8.761   3.655
54474SOL    HW165319   4.118   8.695   3.612
54474SOL    HW265320   3.976   8.723   3.654
54475SOL     OW65321   0.562   6.282  12.760
54475SOL    HW165322   0.606   6.349  12.708
54475SOL    HW265323   0.614   6.276  12.840
54476SOL     OW65324   9.650   9.826   9.158
54476SOL    HW165325   9.634   9.777   9.238
54476SOL    HW265326   9.650   9.760   9.089
54477SOL     OW65327  13.972   9.365  14.819
54477SOL    HW165328  14.060   9.355  14.855
54477SOL    HW265329  13.917   9.388   0.012
54478SOL     OW65330   6.585  11.203   0.963
54478SOL    HW165331   6.611  11.263   1.033
54478SOL    HW265332   6.575  11.118   1.006
54479SOL     OW65333  12.415  11.441   2.944
54479SOL    HW165334  12.429  11.532   2.919
54479SOL    HW265335  12.420  11.441   3.039
54480SOL     OW65336   1.027   5.147   2.116
54480SOL    HW165337   0.960   5.212   2.095
54480SOL    HW265338   0.982   5.082   2.170
54481SOL     OW65339  10.995   5.730   3.380
54481SOL    HW165340  10.913   5.756   3.337
54481SOL    HW265341  11.063   5.779   3.335
54482SOL     OW65342   6.686  11.236   5.425
54482SOL    HW165343   6.678  11.232   5.520
54482SOL    HW265344   6.633  11.311   5.399
54483SOL     OW65345  13.928   7.606   7.778
54483SOL    HW165346  13.841   7.643   7.796
54483SOL    HW265347  13.941   7.543   7.849
54484SOL     OW65348  12.636   7.380  11.504
54484SOL    HW165349  12.636   7.289  11.536
54484SOL    HW265350  12.627   7.371  11.410
54485SOL     OW65351   1.644  13.418   1.119
54485SOL    HW165352   1.727  13.392   1.159
54485SOL    HW265353   1.621  13.344   1.062
54486SOL     OW65354  10.978   8.189  14.366
54486SOL    HW165355  11.009   8.132  14.296
54486SOL    HW265356  10.966   8.130  14.441
54487SOL     OW65357   5.686   5.916  10.775
54487SOL    HW165358   5.682   5.821  10.765
54487SOL    HW265359   5.607   5.938  10.824
54488SOL     OW65360   9.566   7.342  11.611
54488SOL    HW165361   9.524   7.427  11.617
54488SOL    HW265362   9.537   7.295  11.689
54489SOL     OW65363   1.029  11.943   0.817
54489SOL    HW165364   1.094  11.906   0.877
54489SOL    HW265365   1.032  11.886   0.740
54490SOL     OW65366   9.159   5.752   5.914
54490SOL    HW165367   9.106   5.751   5.994
54490SOL    HW265368   9.161   5.845   5.889
54491SOL     OW65369   6.466   2.812  13.048
54491SOL    HW165370   6.517   2.792  12.969
54491SOL    HW265371   6.526   2.862  13.103
54492SOL     OW65372   1.608   1.061   3.952
54492SOL    HW165373   1.642   1.140   3.995
54492SOL    HW265374   1.640   0.989   4.005
54493SOL     OW65375  13.196   6.818   8.723
54493SOL    HW165376  13.206   6.733   8.766
54493SOL    HW265377  13.237   6.806   8.637
54494SOL     OW65378  13.906   3.399   1.769
54494SOL    HW165379  13.994   3.384   1.733
54494SOL    HW265380  13.910   3.363   1.858
54495SOL     OW65381  13.331  11.283   4.806
54495SOL    HW165382  13.360  11.324   4.887
54495SOL    HW265383  13.237  11.271   4.816
54496SOL     OW65384   5.630   5.703   4.799
54496SOL    HW165385   5.652   5.779   4.744
54496SOL    HW265386   5.692   5.635   4.772
54497SOL     OW65387   1.530  12.462   2.870
54497SOL    HW165388   1.492  12.548   2.888
54497SOL    HW265389   1.457  12.408   2.841
54498SOL     OW65390  11.516   1.595   3.121
54498SOL    HW165391  11.581   1.609   3.052
54498SOL    HW265392  11.435   1.577   3.075
54499SOL     OW65393   2.739   1.469  13.654
54499SOL    HW165394   2.822   1.453  13.700
54499SOL    HW265395   2.672   1.433  13.711
54500SOL     OW65396  10.872  10.171   7.668
54500SOL    HW165397  10.953  10.201   7.627
54500SOL    HW265398  10.885  10.188   7.762
54501SOL     OW65399  13.813   5.182   4.958
54501SOL    HW165400  13.806   5.145   4.870
54501SOL    HW265401  13.827   5.106   5.015
54502SOL     OW65402  12.685   5.848   4.834
54502SOL    HW165403  12.758   5.839   4.896
54502SOL    HW265404  12.642   5.763   4.835
54503SOL     OW65405   3.409  11.264   0.705
54503SOL    HW165406   3.428  11.329   0.638
54503SOL    HW265407   3.422  11.311   0.788
54504SOL     OW65408   1.269   3.092  11.025
54504SOL    HW165409   1.280   3.126  10.936
54504SOL    HW265410   1.358   3.081  11.057
54505SOL     OW65411   2.380   7.298   3.500
54505SOL    HW165412   2.403   7.388   3.476
54505SOL    HW265413   2.402   7.246   3.423
54506SOL     OW65414   6.768   7.461  11.834
54506SOL    HW165415   6.826   7.424  11.901
54506SOL    HW265416   6.804   7.430  11.751
54507SOL     OW65417  13.442   6.169  10.047
54507SOL    HW165418  13.424   6.176  10.140
54507SOL    HW265419  13.511   6.102  10.041
54508SOL     OW65420  11.509   6.425   6.267
54508SOL    HW165421  11.450   6.432   6.342
54508SOL    HW265422  11.567   6.501   6.275
54509SOL     OW65423   6.296   7.773   4.130
54509SOL    HW165424   6.279   7.685   4.096
54509SOL    HW265425   6.385   7.792   4.101
54510SOL     OW65426   5.823  10.655   6.939
54510SOL    HW165427   5.773  10.730   6.970
54510SOL    HW265428   5.814  10.658   6.843
54511SOL     OW65429   8.744   1.202  10.333
54511SOL    HW165430   8.714   1.290  10.358
54511SOL    HW265431   8.781   1.165  10.413
54512SOL     OW65432   5.338  11.216  12.889
54512SOL    HW165433   5.421  11.192  12.929
54512SOL    HW265434   5.330  11.158  12.813
54513SOL     OW65435  12.781  14.462   7.919
54513SOL    HW165436  12.717  14.424   7.859
54513SOL    HW265437  12.854  14.400   7.918
54514SOL     OW65438   2.709  12.044   1.180
54514SOL    HW165439   2.648  11.973   1.158
54514SOL    HW265440   2.698  12.055   1.274
54515SOL     OW65441   5.968   8.324  12.431
54515SOL    HW165442   5.956   8.404  12.481
54515SOL    HW265443   6.041   8.342  12.372
54516SOL     OW65444   7.588   8.728   7.877
54516SOL    HW165445   7.621   8.761   7.961
54516SOL    HW265446   7.493   8.727   7.888
54517SOL     OW65447   1.426  10.743   4.769
54517SOL    HW165448   1.368  10.819   4.767
54517SOL    HW265449   1.375  10.673   4.728
54518SOL     OW65450  13.039  11.342   0.400
54518SOL    HW165451  12.972  11.369   0.464
54518SOL    HW265452  13.122  11.367   0.440
54519SOL     OW65453   1.296   0.828   9.818
54519SOL    HW165454   1.243   0.887   9.871
54519SOL    HW265455   1.359   0.884   9.773
54520SOL     OW65456   0.904  11.198   4.592
54520SOL    HW165457   0.957  11.251   4.652
54520SOL    HW265458   0.947  11.206   4.508
54521SOL     OW65459   5.716   3.441   8.832
54521SOL    HW165460   5.687   3.395   8.911
54521SOL    HW265461   5.808   3.418   8.823
54522SOL     OW65462   8.402  14.069   2.238
54522SOL    HW165463   8.464  14.007   2.201
54522SOL    HW265464   8.320  14.020   2.245
54523SOL     OW65465   4.019   9.131  10.981
54523SOL    HW165466   3.984   9.145  10.893
54523SOL    HW265467   4.042   9.037  10.982
54524SOL     OW65468   2.240  12.463  13.931
54524SOL    HW165469   2.257  12.473  13.837
54524SOL    HW265470   2.324  12.482  13.972
54525SOL     OW65471  13.961  13.200   1.056
54525SOL    HW165472  13.890  13.259   1.082
54525SOL    HW265473  13.955  13.198   0.960
54526SOL     OW65474   7.550   2.547   7.878
54526SOL    HW165475   7.607   2.616   7.912
54526SOL    HW265476   7.528   2.576   7.789
54527SOL     OW65477   5.294   9.862   8.943
54527SOL    HW165478   5.265   9.953   8.953
54527SOL    HW265479   5.213   9.813   8.927
54528SOL     OW65480   9.060   5.646   1.055
54528SOL    HW165481   9.130   5.594   1.016
54528SOL    HW265482   9.080   5.647   1.149
54529SOL     OW65483   0.194  10.494   4.460
54529SOL    HW165484   0.273  10.519   4.507
54529SOL    HW265485   0.180  10.564   4.396
54530SOL     OW65486  11.255   8.093  10.719
54530SOL    HW165487  11.261   8.154  10.792
54530SOL    HW265488  11.248   8.149  10.642
54531SOL     OW65489   6.944   9.170  13.603
54531SOL    HW165490   6.909   9.082  13.596
54531SOL    HW265491   6.955   9.185  13.697
54532SOL     OW65492  12.551   4.359   9.652
54532SOL    HW165493  12.516   4.433   9.703
54532SOL    HW265494  12.557   4.393   9.562
54533SOL     OW65495   7.830  12.724   0.390
54533SOL    HW165496   7.922  12.701   0.379
54533SOL    HW265497   7.790  12.703   0.306
54534SOL     OW65498   7.859  13.827   6.059
54534SOL    HW165499   7.946  13.825   6.021
54534SOL    HW265500   7.854  13.748   6.113
54535SOL     OW65501   2.425   9.622  13.504
54535SOL    HW165502   2.334   9.619  13.477
54535SOL    HW265503   2.462   9.698  13.460
54536SOL     OW65504   4.695   1.970   6.215
54536SOL    HW165505   4.627   1.909   6.243
54536SOL    HW265506   4.650   2.054   6.207
54537SOL     OW65507   0.749  10.995  14.520
54537SOL    HW165508   0.714  11.050  14.450
54537SOL    HW265509   0.823  11.045  14.555
54538SOL     OW65510   7.221  11.712   8.943
54538SOL    HW165511   7.261  11.670   9.019
54538SOL    HW265512   7.133  11.675   8.939
54539SOL     OW65513  13.586   0.444   1.927
54539SOL    HW165514  13.674   0.424   1.894
54539SOL    HW265515  13.529   0.382   1.881
54540SOL     OW65516   6.400   1.818   7.093
54540SOL    HW165517   6.395   1.723   7.089
54540SOL    HW265518   6.476   1.840   7.039
54541SOL     OW65519  13.297   5.662   0.065
54541SOL    HW165520  13.315   5.746   0.024
54541SOL    HW265521  13.266   5.684   0.153
54542SOL     OW65522   7.900   9.016   3.700
54542SOL    HW165523   7.895   9.095   3.646
54542SOL    HW265524   7.817   9.014   3.747
54543SOL     OW65525   2.363   6.844   3.214
54543SOL    HW165526   2.349   6.913   3.149
54543SOL    HW265527   2.299   6.863   3.283
54544SOL     OW65528   4.256   9.674  10.276
54544SOL    HW165529   4.288   9.634  10.357
54544SOL    HW265530   4.308   9.755  10.268
54545SOL     OW65531   3.993   1.263   0.631
54545SOL    HW165532   3.928   1.195   0.653
54545SOL    HW265533   4.032   1.286   0.716
54546SOL     OW65534  12.254   3.539   2.368
54546SOL    HW165535  12.237   3.573   2.280
54546SOL    HW265536  12.333   3.487   2.359
54547SOL     OW65537   4.704   1.592   5.833
54547SOL    HW165538   4.731   1.596   5.742
54547SOL    HW265539   4.775   1.543   5.877
54548SOL     OW65540   8.254  12.519   4.335
54548SOL    HW165541   8.297  12.480   4.411
54548SOL    HW265542   8.203  12.448   4.297
54549SOL     OW65543  10.333   9.378   2.274
54549SOL    HW165544  10.293   9.431   2.343
54549SOL    HW265545  10.427   9.392   2.285
54550SOL     OW65546   1.455  11.023   4.422
54550SOL    HW165547   1.527  10.965   4.447
54550SOL    HW265548   1.384  10.963   4.398
54551SOL     OW65549   5.838   5.278   4.165
54551SOL    HW165550   5.846   5.306   4.073
54551SOL    HW265551   5.811   5.358   4.211
54552SOL     OW65552   3.870  12.995   7.103
54552SOL    HW165553   3.935  12.965   7.039
54552SOL    HW265554   3.786  12.973   7.063
54553SOL     OW65555   2.540   4.603  10.896
54553SOL    HW165556   2.521   4.664  10.824
54553SOL    HW265557   2.465   4.543  10.897
54554SOL     OW65558   9.492   7.194   8.247
54554SOL    HW165559   9.535   7.276   8.223
54554SOL    HW265560   9.404   7.220   8.273
54555SOL     OW65561   5.523   2.573   1.684
54555SOL    HW165562   5.535   2.598   1.776
54555SOL    HW265563   5.462   2.500   1.686
54556SOL     OW65564   1.462  14.682  12.087
54556SOL    HW165565   1.522  14.748  12.052
54556SOL    HW265566   1.378  14.704  12.048
54557SOL     OW65567   3.138   9.544   9.784
54557SOL    HW165568   3.067   9.496   9.743
54557SOL    HW265569   3.196   9.567   9.712
54558SOL     OW65570   5.581  12.816   5.550
54558SOL    HW165571   5.665  12.801   5.594
54558SOL    HW265572   5.602  12.816   5.457
54559SOL     OW65573   3.467  10.227   0.335
54559SOL    HW165574   3.416  10.178   0.401
54559SOL    HW265575   3.434  10.194   0.251
54560SOL     OW65576   0.511   5.398  10.608
54560SOL    HW165577   0.419   5.391  10.583
54560SOL    HW265578   0.551   5.448  10.537
54561SOL     OW65579  11.724  13.727  13.365
54561SOL    HW165580  11.774  13.675  13.427
54561SOL    HW265581  11.775  13.808  13.355
54562SOL     OW65582   8.760  10.709   2.961
54562SOL    HW165583   8.715  10.767   3.021
54562SOL    HW265584   8.850  10.741   2.959
54563SOL     OW65585   6.471  10.306   0.755
54563SOL    HW165586   6.422  10.240   0.804
54563SOL    HW265587   6.480  10.380   0.815
54564SOL     OW65588  11.271   3.176   2.221
54564SOL    HW165589  11.206   3.203   2.286
54564SOL    HW265590  11.290   3.085   2.242
54565SOL     OW65591   5.315  13.006   0.492
54565SOL    HW165592   5.357  13.088   0.518
54565SOL    HW265593   5.316  13.007   0.396
54566SOL     OW65594   5.494   6.350   7.200
54566SOL    HW165595   5.530   6.267   7.169
54566SOL    HW265596   5.441   6.325   7.276
54567SOL     OW65597   8.977   9.776  11.164
54567SOL    HW165598   8.938   9.841  11.106
54567SOL    HW265599   8.963   9.693  11.120
54568SOL     OW65600   0.047  12.297  13.233
54568SOL    HW165601   0.041  12.373  13.175
54568SOL    HW265602   0.047  12.222  13.173
54569SOL     OW65603   0.098   8.699   6.424
54569SOL    HW165604   0.104   8.633   6.354
54569SOL    HW265605   0.186   8.733   6.433
54570SOL     OW65606  12.930  14.586   0.267
54570SOL    HW165607  12.852  14.576   0.212
54570SOL    HW265608  12.911  14.534   0.345
54571SOL     OW65609  12.640   9.598   6.505
54571SOL    HW165610  12.599   9.678   6.537
54571SOL    HW265611  12.572   9.555   6.454
54572SOL     OW65612   0.668  11.058   5.767
54572SOL    HW165613   0.674  11.147   5.734
54572SOL    HW265614   0.575  11.046   5.788
54573SOL     OW65615   6.816  13.356  11.412
54573SOL    HW165616   6.730  13.322  11.436
54573SOL    HW265617   6.872  13.332  11.485
54574SOL     OW65618   1.207   2.730  13.647
54574SOL    HW165619   1.197   2.819  13.681
54574SOL    HW265620   1.299   2.725  13.620
54575SOL     OW65621  13.042   4.575   7.925
54575SOL    HW165622  13.091   4.494   7.912
54575SOL    HW265623  12.970   4.570   7.861
54576SOL     OW65624   4.846   5.430   5.995
54576SOL    HW165625   4.771   5.434   5.935
54576SOL    HW265626   4.918   5.398   5.942
54577SOL     OW65627   0.661   7.730  11.994
54577SOL    HW165628   0.711   7.754  11.916
54577SOL    HW265629   0.703   7.649  12.024
54578SOL     OW65630   4.079   9.529   1.511
54578SOL    HW165631   4.109   9.611   1.550
54578SOL    HW265632   4.005   9.502   1.564
54579SOL     OW65633   0.926   7.423   7.172
54579SOL    HW165634   0.932   7.476   7.092
54579SOL    HW265635   0.952   7.483   7.242
54580SOL     OW65636   0.510  12.738   5.500
54580SOL    HW165637   0.460  12.694   5.432
54580SOL    HW265638   0.503  12.680   5.576
54581SOL     OW65639  14.372   5.173   4.270
54581SOL    HW165640  14.422   5.230   4.212
54581SOL    HW265641  14.282   5.206   4.263
54582SOL     OW65642   9.285   8.655   1.833
54582SOL    HW165643   9.200   8.672   1.795
54582SOL    HW265644   9.271   8.662   1.928
54583SOL     OW65645  11.875   4.276  14.014
54583SOL    HW165646  11.937   4.349  14.011
54583SOL    HW265647  11.830   4.280  13.930
54584SOL     OW65648   6.565   3.073  10.740
54584SOL    HW165649   6.526   3.049  10.824
54584SOL    HW265650   6.659   3.064  10.753
54585SOL     OW65651   6.621  13.162  14.078
54585SOL    HW165652   6.630  13.129  14.167
54585SOL    HW265653   6.590  13.252  14.088
54586SOL     OW65654   8.249   3.834   9.993
54586SOL    HW165655   8.213   3.787   9.918
54586SOL    HW265656   8.302   3.769  10.039
54587SOL     OW65657   7.334   1.424  10.226
54587SOL    HW165658   7.360   1.516  10.232
54587SOL    HW265659   7.262   1.415  10.288
54588SOL     OW65660   2.100   7.462   4.466
54588SOL    HW165661   2.008   7.464   4.442
54588SOL    HW265662   2.141   7.404   4.402
54589SOL     OW65663   9.126   1.383   2.255
54589SOL    HW165664   9.169   1.446   2.312
54589SOL    HW265665   9.108   1.432   2.174
54590SOL     OW65666   2.049   6.581  13.158
54590SOL    HW165667   1.967   6.629  13.143
54590SOL    HW265668   2.088   6.624  13.234
54591SOL     OW65669   7.009   0.248   4.074
54591SOL    HW165670   7.005   0.340   4.049
54591SOL    HW265671   6.954   0.203   4.010
54592SOL     OW65672   0.309   9.603   6.564
54592SOL    HW165673   0.237   9.628   6.506
54592SOL    HW265674   0.366   9.679   6.566
54593SOL     OW65675  11.020   3.451   2.757
54593SOL    HW165676  10.934   3.433   2.718
54593SOL    HW265677  11.056   3.364   2.775
54594SOL     OW65678   9.938   4.523   7.128
54594SOL    HW165679   9.980   4.605   7.152
54594SOL    HW265680   9.902   4.540   7.040
54595SOL     OW65681   4.861  11.668  13.164
54595SOL    HW165682   4.766  11.670  13.174
54595SOL    HW265683   4.876  11.706  13.077
54596SOL     OW65684  11.138  12.076  13.981
54596SOL    HW165685  11.162  12.160  14.021
54596SOL    HW265686  11.107  12.023  14.053
54597SOL     OW65687  12.968   5.012   7.860
54597SOL    HW165688  12.890   5.029   7.913
54597SOL    HW265689  12.938   5.019   7.770
54598SOL     OW65690   2.914  14.073   4.446
54598SOL    HW165691   2.977  14.095   4.378
54598SOL    HW265692   2.862  14.002   4.408
54599SOL     OW65693   3.382  14.331   0.908
54599SOL    HW165694   3.476  14.317   0.921
54599SOL    HW265695   3.343  14.312   0.993
54600SOL     OW65696   1.415   2.607   1.983
54600SOL    HW165697   1.393   2.674   1.919
54600SOL    HW265698   1.506   2.626   2.007
54601SOL     OW65699  11.857   9.236   0.018
54601SOL    HW165700  11.918   9.259  14.830
54601SOL    HW265701  11.897   9.160   0.060
54602SOL     OW65702   5.226   6.462  10.949
54602SOL    HW165703   5.236   6.401  11.022
54602SOL    HW265704   5.271   6.420  10.876
54603SOL     OW65705  14.802  10.382   1.790
54603SOL    HW165706  14.879  10.389   1.846
54603SOL    HW265707  14.752  10.309   1.827
54604SOL     OW65708  14.081   2.301  12.988
54604SOL    HW165709  14.157   2.257  12.950
54604SOL    HW265710  14.097   2.394  12.971
54605SOL     OW65711   5.374   0.714  14.082
54605SOL    HW165712   5.437   0.673  14.140
54605SOL    HW265713   5.428   0.758  14.015
54606SOL     OW65714   3.348   0.293  10.545
54606SOL    HW165715   3.306   0.350  10.480
54606SOL    HW265716   3.413   0.348  10.588
54607SOL     OW65717   3.246   1.466   3.315
54607SOL    HW165718   3.271   1.536   3.254
54607SOL    HW265719   3.320   1.405   3.313
54608SOL     OW65720   4.214   7.039   0.524
54608SOL    HW165721   4.131   7.085   0.527
54608SOL    HW265722   4.198   6.964   0.466
54609SOL     OW65723  13.663   9.145   7.542
54609SOL    HW165724  13.605   9.071   7.562
54609SOL    HW265725  13.737   9.105   7.496
54610SOL     OW65726   5.876  14.470   0.689
54610SOL    HW165727   5.966  14.483   0.717
54610SOL    HW265728   5.864  14.534   0.618
54611SOL     OW65729  12.103   9.728   1.650
54611SOL    HW165730  12.081   9.726   1.743
54611SOL    HW265731  12.198   9.734   1.648
54612SOL     OW65732  14.620   7.548   0.221
54612SOL    HW165733  14.659   7.636   0.217
54612SOL    HW265734  14.529   7.562   0.195
54613SOL     OW65735   5.288   8.276   1.303
54613SOL    HW165736   5.218   8.222   1.340
54613SOL    HW265737   5.364   8.258   1.359
54614SOL     OW65738   1.322   2.376   1.357
54614SOL    HW165739   1.283   2.300   1.312
54614SOL    HW265740   1.311   2.448   1.295
54615SOL     OW65741  12.488  14.792  10.058
54615SOL    HW165742  12.549  14.808   9.986
54615SOL    HW265743  12.411  14.846  10.036
54616SOL     OW65744   0.248  12.119   3.059
54616SOL    HW165745   0.296  12.037   3.045
54616SOL    HW265746   0.186  12.122   2.986
54617SOL     OW65747   5.476  14.736   3.028
54617SOL    HW165748   5.428  14.694   3.100
54617SOL    HW265749   5.568  14.726   3.052
54618SOL     OW65750   9.470  12.047  11.210
54618SOL    HW165751   9.377  12.061  11.192
54618SOL    HW265752   9.507  12.135  11.219
54619SOL     OW65753   4.129   5.381  11.227
54619SOL    HW165754   4.149   5.314  11.162
54619SOL    HW265755   4.079   5.335  11.294
54620SOL     OW65756   4.473   3.742  10.589
54620SOL    HW165757   4.502   3.827  10.555
54620SOL    HW265758   4.457   3.689  10.512
54621SOL     OW65759   8.456  12.428   3.500
54621SOL    HW165760   8.539  12.421   3.548
54621SOL    HW265761   8.473  12.382   3.418
54622SOL     OW65762   0.310  11.098  12.096
54622SOL    HW165763   0.362  11.061  12.024
54622SOL    HW265764   0.324  11.193  12.089
54623SOL     OW65765   3.390   8.140  14.420
54623SOL    HW165766   3.383   8.066  14.360
54623SOL    HW265767   3.484   8.146  14.441
54624SOL     OW65768   5.669  14.432   0.222
54624SOL    HW165769   5.740  14.383   0.263
54624SOL    HW265770   5.646  14.499   0.286
54625SOL     OW65771  11.090  11.464  10.705
54625SOL    HW165772  10.998  11.477  10.731
54625SOL    HW265773  11.118  11.549  10.674
54626SOL     OW65774   7.798   8.544   7.844
54626SOL    HW165775   7.713   8.588   7.849
54626SOL    HW265776   7.821   8.527   7.935
54627SOL     OW65777   5.971   1.398  10.132
54627SOL    HW165778   5.880   1.418  10.151
54627SOL    HW265779   5.979   1.408  10.037
54628SOL     OW65780  13.921   1.323   2.369
54628SOL    HW165781  13.840   1.273   2.368
54628SOL    HW265782  13.983   1.270   2.317
54629SOL     OW65783  10.988   5.626   7.005
54629SOL    HW165784  11.021   5.540   7.029
54629SOL    HW265785  10.939   5.611   6.924
54630SOL     OW65786   3.397   6.628   7.851
54630SOL    HW165787   3.360   6.667   7.931
54630SOL    HW265788   3.477   6.679   7.834
54631SOL     OW65789  14.338   6.466  14.485
54631SOL    HW165790  14.339   6.378  14.524
54631SOL    HW265791  14.252   6.500  14.507
54632SOL     OW65792   3.624   2.133   9.774
54632SOL    HW165793   3.544   2.161   9.819
54632SOL    HW265794   3.653   2.055   9.822
54633SOL     OW65795  11.132  11.726   7.553
54633SOL    HW165796  11.160  11.792   7.616
54633SOL    HW265797  11.170  11.644   7.586
54634SOL     OW65798  11.869   6.928   9.454
54634SOL    HW165799  11.851   6.849   9.402
54634SOL    HW265800  11.854   6.902   9.544
54635SOL     OW65801   1.602   6.203  10.027
54635SOL    HW165802   1.534   6.145  10.062
54635SOL    HW265803   1.634   6.251  10.104
54636SOL     OW65804  10.355  10.199   3.047
54636SOL    HW165805  10.362  10.265   2.978
54636SOL    HW265806  10.413  10.230   3.116
54637SOL     OW65807  11.104   7.056   6.717
54637SOL    HW165808  11.173   7.114   6.688
54637SOL    HW265809  11.150   6.984   6.761
54638SOL     OW65810  10.087   8.960  12.691
54638SOL    HW165811  10.039   8.955  12.773
54638SOL    HW265812  10.035   8.908  12.630
54639SOL     OW65813  10.142   6.080  14.215
54639SOL    HW165814  10.210   6.036  14.164
54639SOL    HW265815  10.170   6.171  14.220
54640SOL     OW65816   3.540   5.420  12.490
54640SOL    HW165817   3.570   5.336  12.525
54640SOL    HW265818   3.597   5.485  12.530
54641SOL     OW65819   7.132  11.900  13.295
54641SOL    HW165820   7.115  11.844  13.371
54641SOL    HW265821   7.211  11.948  13.317
54642SOL     OW65822   5.899  14.710   3.645
54642SOL    HW165823   5.894  14.787   3.588
54642SOL    HW265824   5.828  14.723   3.708
54643SOL     OW65825   4.122   0.632   8.834
54643SOL    HW165826   4.033   0.605   8.811
54643SOL    HW265827   4.177   0.590   8.769
54644SOL     OW65828  10.435   5.998  10.021
54644SOL    HW165829  10.371   5.947  10.069
54644SOL    HW265830  10.513   5.998  10.077
54645SOL     OW65831  12.199   7.909   3.978
54645SOL    HW165832  12.263   7.975   3.951
54645SOL    HW265833  12.131   7.912   3.910
54646SOL     OW65834   7.341  10.634  11.407
54646SOL    HW165835   7.296  10.664  11.485
54646SOL    HW265836   7.397  10.562  11.438
54647SOL     OW65837   6.136   3.625  10.138
54647SOL    HW165838   6.080   3.683  10.087
54647SOL    HW265839   6.083   3.600  10.214
54648SOL     OW65840   3.556   0.718  12.788
54648SOL    HW165841   3.532   0.629  12.814
54648SOL    HW265842   3.640   0.733  12.830
54649SOL     OW65843   5.311   3.707   4.166
54649SOL    HW165844   5.254   3.776   4.134
54649SOL    HW265845   5.395   3.723   4.124
54650SOL     OW65846   4.586   6.988  13.949
54650SOL    HW165847   4.624   6.960  14.033
54650SOL    HW265848   4.500   6.946  13.947
54651SOL     OW65849   3.659   9.807  13.117
54651SOL    HW165850   3.738   9.812  13.063
54651SOL    HW265851   3.691   9.817  13.207
54652SOL     OW65852   6.642  10.835  13.563
54652SOL    HW165853   6.660  10.922  13.598
54652SOL    HW265854   6.697  10.776  13.613
54653SOL     OW65855   2.397  13.333   5.588
54653SOL    HW165856   2.430  13.360   5.502
54653SOL    HW265857   2.307  13.304   5.572
54654SOL     OW65858   2.143   7.741   0.835
54654SOL    HW165859   2.075   7.695   0.884
54654SOL    HW265860   2.184   7.798   0.899
54655SOL     OW65861   1.627   2.898  11.853
54655SOL    HW165862   1.610   2.804  11.862
54655SOL    HW265863   1.628   2.914  11.759
54656SOL     OW65864   8.616   3.985   8.800
54656SOL    HW165865   8.643   3.927   8.729
54656SOL    HW265866   8.697   4.026   8.829
54657SOL     OW65867  10.346   2.565   9.301
54657SOL    HW165868  10.422   2.597   9.252
54657SOL    HW265869  10.370   2.476   9.328
54658SOL     OW65870  11.930   6.686  12.327
54658SOL    HW165871  11.950   6.663  12.417
54658SOL    HW265872  11.921   6.781  12.327
54659SOL     OW65873   1.312  10.355   1.523
54659SOL    HW165874   1.274  10.270   1.542
54659SOL    HW265875   1.337  10.390   1.609
54660SOL     OW65876   6.495   4.143   7.330
54660SOL    HW165877   6.418   4.105   7.287
54660SOL    HW265878   6.483   4.122   7.423
54661SOL     OW65879   9.977  14.583   2.022
54661SOL    HW165880  10.015  14.498   2.000
54661SOL    HW265881   9.885  14.565   2.036
54662SOL     OW65882  14.696   9.554   8.130
54662SOL    HW165883  14.693   9.466   8.092
54662SOL    HW265884  14.631   9.603   8.079
54663SOL     OW65885  14.424  11.455   3.073
54663SOL    HW165886  14.350  11.508   3.101
54663SOL    HW265887  14.404  11.367   3.104
54664SOL     OW65888   5.394   9.690   6.015
54664SOL    HW165889   5.485   9.714   6.032
54664SOL    HW265890   5.372   9.733   5.932
54665SOL     OW65891   9.319   7.577   2.466
54665SOL    HW165892   9.285   7.626   2.391
54665SOL    HW265893   9.355   7.643   2.525
54666SOL     OW65894   8.907   1.721   4.981
54666SOL    HW165895   8.890   1.806   5.022
54666SOL    HW265896   8.820   1.681   4.973
54667SOL     OW65897   4.173   5.760   8.683
54667SOL    HW165898   4.151   5.853   8.687
54667SOL    HW265899   4.266   5.756   8.707
54668SOL     OW65900  14.701  11.922   0.094
54668SOL    HW165901  14.744  11.893   0.175
54668SOL    HW265902  14.685  11.842   0.045
54669SOL     OW65903  11.883  14.028  12.038
54669SOL    HW165904  11.792  14.002  12.052
54669SOL    HW265905  11.930  13.997  12.115
54670SOL     OW65906   0.490   2.651  10.130
54670SOL    HW165907   0.565   2.686  10.082
54670SOL    HW265908   0.437   2.728  10.151
54671SOL     OW65909  10.355  12.246   3.723
54671SOL    HW165910  10.299  12.266   3.798
54671SOL    HW265911  10.346  12.151   3.712
54672SOL     OW65912   7.067   5.325   5.875
54672SOL    HW165913   7.018   5.248   5.902
54672SOL    HW265914   7.053   5.388   5.946
54673SOL     OW65915   7.857   6.176   7.071
54673SOL    HW165916   7.937   6.229   7.065
54673SOL    HW265917   7.819   6.182   6.984
54674SOL     OW65918  12.792  13.929   5.566
54674SOL    HW165919  12.774  13.860   5.631
54674SOL    HW265920  12.705  13.961   5.541
54675SOL     OW65921  14.600   7.795   0.718
54675SOL    HW165922  14.661   7.722   0.709
54675SOL    HW265923  14.548   7.793   0.637
54676SOL     OW65924   0.370   1.051   1.158
54676SOL    HW165925   0.328   0.976   1.116
54676SOL    HW265926   0.462   1.042   1.136
54677SOL     OW65927   2.814   5.815   4.616
54677SOL    HW165928   2.788   5.904   4.595
54677SOL    HW265929   2.763   5.792   4.694
54678SOL     OW65930   9.155  13.414  10.534
54678SOL    HW165931   9.066  13.425  10.566
54678SOL    HW265932   9.201  13.371  10.606
54679SOL     OW65933   9.597   1.215   0.878
54679SOL    HW165934   9.643   1.132   0.882
54679SOL    HW265935   9.654   1.273   0.829
54680SOL     OW65936  10.635   3.341   2.864
54680SOL    HW165937  10.702   3.303   2.920
54680SOL    HW265938  10.570   3.272   2.853
54681SOL     OW65939   5.122   4.087   4.169
54681SOL    HW165940   5.103   4.061   4.079
54681SOL    HW265941   5.214   4.063   4.183
54682SOL     OW65942   6.028   3.952  12.313
54682SOL    HW165943   6.012   3.869  12.356
54682SOL    HW265944   6.078   3.929  12.234
54683SOL     OW65945   6.529  13.490  11.596
54683SOL    HW165946   6.461  13.550  11.627
54683SOL    HW265947   6.602  13.548  11.571
54684SOL     OW65948   8.663  12.552   5.706
54684SOL    HW165949   8.624  12.580   5.623
54684SOL    HW265950   8.611  12.594   5.774
54685SOL     OW65951   2.648   7.379  10.894
54685SOL    HW165952   2.732   7.390  10.851
54685SOL    HW265953   2.670   7.365  10.986
54686SOL     OW65954   3.542   4.404   0.668
54686SOL    HW165955   3.478   4.407   0.597
54686SOL    HW265956   3.621   4.444   0.632
54687SOL     OW65957   1.063   7.709   8.817
54687SOL    HW165958   1.109   7.640   8.770
54687SOL    HW265959   0.970   7.695   8.797
54688SOL     OW65960   6.822   6.158   3.000
54688SOL    HW165961   6.819   6.200   2.914
54688SOL    HW265962   6.731   6.140   3.021
54689SOL     OW65963  13.671  10.814   8.594
54689SOL    HW165964  13.658  10.897   8.548
54689SOL    HW265965  13.664  10.836   8.687
54690SOL     OW65966   9.133  11.747   2.869
54690SOL    HW165967   9.194  11.690   2.821
54690SOL    HW265968   9.083  11.792   2.800
54691SOL     OW65969   0.590  11.279   3.208
54691SOL    HW165970   0.522  11.315   3.265
54691SOL    HW265971   0.558  11.193   3.183
54692SOL     OW65972   3.568   7.132   9.299
54692SOL    HW165973   3.499   7.081   9.256
54692SOL    HW265974   3.648   7.108   9.253
54693SOL     OW65975   3.663  12.548   2.026
54693SOL    HW165976   3.608  12.621   2.053
54693SOL    HW265977   3.666  12.490   2.102
54694SOL     OW65978   8.526   4.720   0.176
54694SOL    HW165979   8.498   4.645   0.229
54694SOL    HW265980   8.621   4.715   0.175
54695SOL     OW65981   4.263  10.535  14.023
54695SOL    HW165982   4.241  10.604  13.961
54695SOL    HW265983   4.312  10.470  13.971
54696SOL     OW65984  13.260  11.227   9.534
54696SOL    HW165985  13.337  11.238   9.477
54696SOL    HW265986  13.295  11.189   9.614
54697SOL     OW65987  14.600   1.819   8.640
54697SOL    HW165988  14.660   1.880   8.597
54697SOL    HW265989  14.598   1.848   8.731
54698SOL     OW65990  13.219   2.431   7.173
54698SOL    HW165991  13.157   2.500   7.195
54698SOL    HW265992  13.171   2.372   7.116
54699SOL     OW65993   6.465   5.636   8.465
54699SOL    HW165994   6.522   5.653   8.540
54699SOL    HW265995   6.524   5.609   8.395
54700SOL     OW65996   2.096   9.713   0.106
54700SOL    HW165997   2.144   9.639   0.144
54700SOL    HW265998   2.020   9.724   0.162
54701SOL     OW65999  12.554  13.165   3.105
54701SOL    HW166000  12.551  13.084   3.156
54701SOL    HW266001  12.462  13.193   3.100
54702SOL     OW66002   8.212   8.660  10.753
54702SOL    HW166003   8.159   8.739  10.757
54702SOL    HW266004   8.292   8.682  10.801
54703SOL     OW66005   9.665   3.586  12.696
54703SOL    HW166006   9.749   3.582  12.650
54703SOL    HW266007   9.672   3.663  12.752
54704SOL     OW66008   3.775   2.141   7.213
54704SOL    HW166009   3.827   2.092   7.277
54704SOL    HW266010   3.830   2.215   7.189
54705SOL     OW66011  13.403   3.979   8.534
54705SOL    HW166012  13.432   3.916   8.600
54705SOL    HW266013  13.470   4.047   8.534
54706SOL     OW66014   8.947   0.067   0.032
54706SOL    HW166015   8.984   0.155   0.030
54706SOL    HW266016   8.994   0.020  14.845
54707SOL     OW66017  12.406   1.837   4.636
54707SOL    HW166018  12.463   1.770   4.674
54707SOL    HW266019  12.379   1.801   4.552
54708SOL     OW66020   1.102  14.634   1.792
54708SOL    HW166021   1.111  14.643   1.887
54708SOL    HW266022   1.069  14.545   1.780
54709SOL     OW66023  12.980   9.680  11.936
54709SOL    HW166024  13.049   9.740  11.965
54709SOL    HW266025  13.026   9.598  11.916
54710SOL     OW66026  10.801   1.153   9.280
54710SOL    HW166027  10.835   1.111   9.201
54710SOL    HW266028  10.865   1.131   9.348
54711SOL     OW66029  12.788   2.710   4.703
54711SOL    HW166030  12.882   2.694   4.691
54711SOL    HW266031  12.777   2.803   4.683
54712SOL     OW66032  13.164  13.718   0.254
54712SOL    HW166033  13.096  13.785   0.254
54712SOL    HW266034  13.137  13.656   0.322
54713SOL     OW66035  12.834   0.702  14.648
54713SOL    HW166036  12.764   0.697  14.582
54713SOL    HW266037  12.875   0.787  14.633
54714SOL     OW66038   7.647  10.751  12.722
54714SOL    HW166039   7.672  10.758  12.630
54714SOL    HW266040   7.566  10.801  12.729
54715SOL     OW66041  10.498  10.287  12.038
54715SOL    HW166042  10.520  10.215  11.978
54715SOL    HW266043  10.561  10.356  12.016
54716SOL     OW66044  11.447   1.686  11.519
54716SOL    HW166045  11.499   1.644  11.450
54716SOL    HW266046  11.436   1.617  11.585
54717SOL     OW66047  14.011  13.241   6.059
54717SOL    HW166048  13.945  13.172   6.052
54717SOL    HW266049  13.968  13.310   6.110
54718SOL     OW66050  11.883  10.305  10.354
54718SOL    HW166051  11.938  10.372  10.394
54718SOL    HW266052  11.885  10.232  10.416
54719SOL     OW66053  11.857   7.982  12.853
54719SOL    HW166054  11.826   7.971  12.763
54719SOL    HW266055  11.786   8.029  12.897
54720SOL     OW66056  10.180   7.183   3.591
54720SOL    HW166057  10.185   7.127   3.513
54720SOL    HW266058  10.118   7.138   3.649
54721SOL     OW66059  13.226   1.766   3.099
54721SOL    HW166060  13.139   1.768   3.138
54721SOL    HW266061  13.279   1.820   3.157
54722SOL     OW66062   0.252  10.603   7.770
54722SOL    HW166063   0.214  10.647   7.694
54722SOL    HW266064   0.244  10.667   7.840
54723SOL     OW66065  14.692   1.748   4.356
54723SOL    HW166066  14.694   1.680   4.288
54723SOL    HW266067  14.718   1.702   4.436
54724SOL     OW66068   9.844   9.948   1.326
54724SOL    HW166069   9.934   9.973   1.346
54724SOL    HW266070   9.833   9.862   1.367
54725SOL     OW66071  12.058   0.088   4.478
54725SOL    HW166072  12.103   0.167   4.451
54725SOL    HW266073  12.111   0.053   4.550
54726SOL     OW66074   8.946   4.121   9.862
54726SOL    HW166075   8.985   4.201   9.825
54726SOL    HW266076   8.991   4.108   9.945
54727SOL     OW66077   3.512   8.476   7.895
54727SOL    HW166078   3.570   8.404   7.917
54727SOL    HW266079   3.480   8.456   7.807
54728SOL     OW66080   8.603  11.498   8.208
54728SOL    HW166081   8.597  11.532   8.298
54728SOL    HW266082   8.523  11.530   8.166
54729SOL     OW66083   0.349  14.365   4.672
54729SOL    HW166084   0.392  14.385   4.755
54729SOL    HW266085   0.352  14.270   4.666
54730SOL     OW66086  11.722   8.002   0.641
54730SOL    HW166087  11.785   7.935   0.615
54730SOL    HW266088  11.673   8.020   0.561
54731SOL     OW66089  13.335   5.572   7.496
54731SOL    HW166090  13.260   5.558   7.554
54731SOL    HW266091  13.385   5.490   7.503
54732SOL     OW66092   6.284   1.636  14.079
54732SOL    HW166093   6.278   1.703  14.011
54732SOL    HW266094   6.306   1.684  14.158
54733SOL     OW66095   0.421   0.286  14.279
54733SOL    HW166096   0.464   0.372  14.282
54733SOL    HW266097   0.491   0.223  14.299
54734SOL     OW66098  13.565   3.704  11.821
54734SOL    HW166099  13.524   3.643  11.760
54734SOL    HW266100  13.655   3.673  11.831
54735SOL     OW66101  11.972   3.312  11.993
54735SOL    HW166102  12.017   3.372  11.933
54735SOL    HW266103  11.944   3.369  12.065
54736SOL     OW66104   5.997   7.346   8.269
54736SOL    HW166105   6.031   7.386   8.349
54736SOL    HW266106   5.937   7.411   8.234
54737SOL     OW66107  13.957   8.791   0.043
54737SOL    HW166108  14.027   8.848   0.012
54737SOL    HW266109  13.988   8.703   0.025
54738SOL     OW66110   6.038   9.943  14.735
54738SOL    HW166111   5.965   9.992  14.696
54738SOL    HW266112   5.995   9.870  14.780
54739SOL     OW66113   7.332   2.820  13.379
54739SOL    HW166114   7.381   2.751  13.334
54739SOL    HW266115   7.395   2.859  13.439
54740SOL     OW66116   0.266   7.259   5.191
54740SOL    HW166117   0.264   7.255   5.096
54740SOL    HW266118   0.306   7.177   5.218
54741SOL     OW66119   4.767   8.323   2.457
54741SOL    HW166120   4.812   8.238   2.466
54741SOL    HW266121   4.706   8.310   2.385
54742SOL     OW66122   1.407   2.628  11.407
54742SOL    HW166123   1.372   2.681  11.479
54742SOL    HW266124   1.501   2.622  11.425
54743SOL     OW66125   0.065  13.204  14.314
54743SOL    HW166126   0.045  13.125  14.264
54743SOL    HW266127   0.117  13.173  14.388
54744SOL     OW66128  14.423   9.381   4.612
54744SOL    HW166129  14.517   9.373   4.593
54744SOL    HW266130  14.394   9.291   4.628
54745SOL     OW66131  11.997  14.564   1.148
54745SOL    HW166132  11.930  14.507   1.111
54745SOL    HW266133  11.948  14.634   1.190
54746SOL     OW66134   9.026   1.847  10.390
54746SOL    HW166135   9.083   1.924  10.397
54746SOL    HW266136   9.055   1.802  10.310
54747SOL     OW66137   7.630   5.666   3.955
54747SOL    HW166138   7.613   5.599   3.888
54747SOL    HW266139   7.649   5.746   3.904
54748SOL     OW66140   8.867  13.725   6.712
54748SOL    HW166141   8.962  13.734   6.703
54748SOL    HW266142   8.831  13.765   6.632
54749SOL     OW66143   3.900   4.149   1.725
54749SOL    HW166144   3.995   4.157   1.723
54749SOL    HW266145   3.872   4.211   1.792
54750SOL     OW66146  13.780  13.699   6.486
54750SOL    HW166147  13.823  13.618   6.513
54750SOL    HW266148  13.724  13.673   6.413
54751SOL     OW66149   7.217  14.645   9.625
54751SOL    HW166150   7.304  14.607   9.639
54751SOL    HW266151   7.234  14.734   9.596
54752SOL     OW66152   1.729   1.704  14.065
54752SOL    HW166153   1.731   1.783  14.119
54752SOL    HW266154   1.818   1.695  14.032
54753SOL     OW66155  10.444   2.514  11.787
54753SOL    HW166156  10.410   2.477  11.706
54753SOL    HW266157  10.380   2.580  11.813
54754SOL     OW66158  13.054   8.635   8.966
54754SOL    HW166159  13.145   8.660   8.980
54754SOL    HW266160  13.058   8.554   8.916
54755SOL     OW66161   9.245   6.818   6.290
54755SOL    HW166162   9.322   6.763   6.278
54755SOL    HW266163   9.246   6.839   6.384
54756SOL     OW66164  11.806   9.142   3.691
54756SOL    HW166165  11.788   9.192   3.771
54756SOL    HW266166  11.752   9.183   3.624
54757SOL     OW66167  14.436  13.706   4.947
54757SOL    HW166168  14.496  13.767   4.903
54757SOL    HW266169  14.408  13.646   4.878
54758SOL     OW66170  10.839   3.017   7.895
54758SOL    HW166171  10.840   3.105   7.933
54758SOL    HW266172  10.892   3.025   7.816
54759SOL     OW66173  10.576   1.262   4.012
54759SOL    HW166174  10.635   1.279   4.086
54759SOL    HW266175  10.618   1.191   3.964
54760SOL     OW66176   8.907  14.084   7.906
54760SOL    HW166177   8.920  14.051   7.816
54760SOL    HW266178   8.989  14.128   7.927
54761SOL     OW66179   9.250   3.258   4.764
54761SOL    HW166180   9.345   3.267   4.777
54761SOL    HW266181   9.214   3.253   4.853
54762SOL     OW66182   4.401   2.215   5.034
54762SOL    HW166183   4.440   2.172   4.957
54762SOL    HW266184   4.439   2.169   5.109
54763SOL     OW66185   0.244  13.217  11.367
54763SOL    HW166186   0.199  13.296  11.397
54763SOL    HW266187   0.174  13.153  11.355
54764SOL     OW66188  13.421   5.061   1.251
54764SOL    HW166189  13.455   5.109   1.175
54764SOL    HW266190  13.436   5.119   1.325
54765SOL     OW66191   9.365   6.796   9.749
54765SOL    HW166192   9.446   6.788   9.800
54765SOL    HW266193   9.391   6.772   9.660
54766SOL     OW66194  11.216  14.782  13.098
54766SOL    HW166195  11.216  14.687  13.108
54766SOL    HW266196  11.297  14.801  13.051
54767SOL     OW66197  12.266   8.553   4.691
54767SOL    HW166198  12.207   8.617   4.652
54767SOL    HW266199  12.214   8.473   4.697
54768SOL     OW66200  13.789   6.171   3.096
54768SOL    HW166201  13.846   6.247   3.109
54768SOL    HW266202  13.712   6.189   3.150
54769SOL     OW66203   9.064  12.318  11.736
54769SOL    HW166204   9.066  12.242  11.677
54769SOL    HW266205   9.143  12.309  11.789
54770SOL     OW66206  12.007   8.838  10.260
54770SOL    HW166207  12.006   8.919  10.209
54770SOL    HW266208  11.955   8.859  10.338
54771SOL     OW66209   7.409  10.190   0.975
54771SOL    HW166210   7.468  10.214   1.047
54771SOL    HW266211   7.325  10.175   1.017
54772SOL     OW66212  12.335   6.996  10.950
54772SOL    HW166213  12.313   7.016  10.859
54772SOL    HW266214  12.421   6.954  10.944
54773SOL     OW66215  12.809   0.986   4.057
54773SOL    HW166216  12.768   1.066   4.091
54773SOL    HW266217  12.802   0.924   4.129
54774SOL     OW66218   6.950   3.461   9.099
54774SOL    HW166219   6.950   3.550   9.062
54774SOL    HW266220   6.880   3.462   9.164
54775SOL     OW66221  12.346  12.371   9.223
54775SOL    HW166222  12.322  12.464   9.223
54775SOL    HW266223  12.388  12.358   9.138
54776SOL     OW66224   2.041   9.686  11.916
54776SOL    HW166225   2.070   9.701  11.826
54776SOL    HW266226   2.116   9.646  11.959
54777SOL     OW66227  14.716  12.242   2.669
54777SOL    HW166228  14.648  12.175   2.679
54777SOL    HW266229  14.764  12.216   2.591
54778SOL     OW66230  11.512   6.238  14.032
54778SOL    HW166231  11.455   6.298  13.983
54778SOL    HW266232  11.494   6.152  13.994
54779SOL     OW66233  11.880   9.094  13.988
54779SOL    HW166234  11.966   9.071  14.022
54779SOL    HW266235  11.891   9.096  13.893
54780SOL     OW66236  12.848   8.956   2.423
54780SOL    HW166237  12.931   8.920   2.455
54780SOL    HW266238  12.794   8.879   2.404
54781SOL     OW66239   3.892  14.182   8.643
54781SOL    HW166240   3.869  14.120   8.712
54781SOL    HW266241   3.977  14.216   8.669
54782SOL     OW66242   7.345   8.429   7.237
54782SOL    HW166243   7.392   8.501   7.194
54782SOL    HW266244   7.404   8.402   7.309
54783SOL     OW66245   8.389  11.888   3.895
54783SOL    HW166246   8.405  11.864   3.986
54783SOL    HW266247   8.296  11.867   3.880
54784SOL     OW66248  13.763   4.357   0.481
54784SOL    HW166249  13.810   4.429   0.440
54784SOL    HW266250  13.757   4.290   0.412
54785SOL     OW66251  13.405   5.785   2.478
54785SOL    HW166252  13.465   5.745   2.415
54785SOL    HW266253  13.318   5.770   2.443
54786SOL     OW66254   8.869  13.700   0.502
54786SOL    HW166255   8.933  13.677   0.435
54786SOL    HW266256   8.786  13.665   0.469
54787SOL     OW66257  14.672  12.357   4.236
54787SOL    HW166258  14.589  12.383   4.196
54787SOL    HW266259  14.732  12.430   4.217
54788SOL     OW66260   0.710   0.180   1.499
54788SOL    HW166261   0.801   0.180   1.530
54788SOL    HW266262   0.681   0.271   1.510
54789SOL     OW66263   0.910  14.022  12.985
54789SOL    HW166264   0.884  14.043  12.895
54789SOL    HW266265   0.846  13.957  13.014
54790SOL     OW66266   8.190   7.812   4.282
54790SOL    HW166267   8.282   7.825   4.307
54790SOL    HW266268   8.148   7.780   4.362
54791SOL     OW66269   2.962   2.527   0.937
54791SOL    HW166270   2.999   2.585   0.871
54791SOL    HW266271   2.952   2.443   0.893
54792SOL     OW66272   1.564   6.801   1.459
54792SOL    HW166273   1.619   6.874   1.433
54792SOL    HW266274   1.534   6.763   1.377
54793SOL     OW66275   1.886  13.642  10.188
54793SOL    HW166276   1.962  13.616  10.240
54793SOL    HW266277   1.902  13.734  10.167
54794SOL     OW66278   2.421   2.452  14.460
54794SOL    HW166279   2.401   2.527  14.515
54794SOL    HW266280   2.471   2.393  14.517
54795SOL     OW66281   0.404   6.336  10.485
54795SOL    HW166282   0.318   6.303  10.457
54795SOL    HW266283   0.386   6.384  10.565
54796SOL     OW66284   8.623  10.352   4.264
54796SOL    HW166285   8.597  10.407   4.338
54796SOL    HW266286   8.569  10.273   4.273
54797SOL     OW66287   2.713   7.673   7.465
54797SOL    HW166288   2.713   7.588   7.420
54797SOL    HW266289   2.675   7.654   7.551
54798SOL     OW66290   6.562   0.417   2.849
54798SOL    HW166291   6.641   0.426   2.795
54798SOL    HW266292   6.582   0.465   2.929
54799SOL     OW66293  14.611   9.752   9.204
54799SOL    HW166294  14.610   9.770   9.110
54799SOL    HW266295  14.704   9.737   9.224
54800SOL     OW66296   3.124   4.283   7.259
54800SOL    HW166297   3.100   4.201   7.215
54800SOL    HW266298   3.046   4.338   7.251
54801SOL     OW66299   8.104   9.772   8.397
54801SOL    HW166300   8.053   9.841   8.439
54801SOL    HW266301   8.080   9.692   8.445
54802SOL     OW66302   2.634   1.589   5.598
54802SOL    HW166303   2.719   1.606   5.638
54802SOL    HW266304   2.640   1.628   5.511
54803SOL     OW66305   5.257  10.455   3.825
54803SOL    HW166306   5.298  10.408   3.752
54803SOL    HW266307   5.283  10.406   3.903
54804SOL     OW66308  13.209   4.166   2.900
54804SOL    HW166309  13.150   4.183   2.828
54804SOL    HW266310  13.290   4.137   2.859
54805SOL     OW66311  10.938   3.690  10.184
54805SOL    HW166312  10.966   3.727  10.267
54805SOL    HW266313  10.846   3.714  10.176
54806SOL     OW66314   9.686   5.439   6.140
54806SOL    HW166315   9.617   5.481   6.191
54806SOL    HW266316   9.767   5.459   6.187
54807SOL     OW66317   4.738   5.633   0.109
54807SOL    HW166318   4.814   5.576   0.104
54807SOL    HW266319   4.707   5.624   0.199
54808SOL     OW66320  10.878   1.078  10.581
54808SOL    HW166321  10.826   1.068  10.661
54808SOL    HW266322  10.948   1.138  10.605
54809SOL     OW66323   7.558   2.143  14.545
54809SOL    HW166324   7.483   2.198  14.568
54809SOL    HW266325   7.520   2.072  14.494
54810SOL     OW66326   0.828   8.286   2.504
54810SOL    HW166327   0.846   8.192   2.508
54810SOL    HW266328   0.732   8.293   2.507
54811SOL     OW66329   2.571   2.033  12.632
54811SOL    HW166330   2.653   1.988  12.611
54811SOL    HW266331   2.597   2.104  12.692
54812SOL     OW66332   1.969   7.712  11.884
54812SOL    HW166333   1.933   7.772  11.949
54812SOL    HW266334   2.063   7.708  11.904
54813SOL     OW66335  14.398  10.962  13.440
54813SOL    HW166336  14.347  10.881  13.449
54813SOL    HW266337  14.336  11.032  13.457
54814SOL     OW66338   8.549   2.692  12.132
54814SOL    HW166339   8.563   2.599  12.152
54814SOL    HW266340   8.474   2.693  12.072
54815SOL     OW66341   2.421   8.843  13.690
54815SOL    HW166342   2.424   8.891  13.773
54815SOL    HW266343   2.455   8.905  13.625
54816SOL     OW66344  12.232   5.436   1.346
54816SOL    HW166345  12.194   5.516   1.311
54816SOL    HW266346  12.165   5.400   1.404
54817SOL     OW66347  14.127   3.840   1.432
54817SOL    HW166348  14.111   3.802   1.519
54817SOL    HW266349  14.052   3.896   1.416
54818SOL     OW66350   1.116   6.050   0.190
54818SOL    HW166351   1.035   6.012   0.223
54818SOL    HW266352   1.164   6.078   0.268
54819SOL     OW66353  12.814   3.942  14.322
54819SOL    HW166354  12.847   3.993  14.396
54819SOL    HW266355  12.811   3.852  14.355
54820SOL     OW66356  10.967   1.325   2.709
54820SOL    HW166357  10.875   1.348   2.701
54820SOL    HW266358  11.010   1.375   2.639
54821SOL     OW66359   5.988   6.600  10.221
54821SOL    HW166360   5.942   6.682  10.201
54821SOL    HW266361   6.055   6.626  10.284
54822SOL     OW66362  10.917  13.421  13.000
54822SOL    HW166363  11.007  13.418  12.968
54822SOL    HW266364  10.887  13.510  12.982
54823SOL     OW66365  13.264  10.179   5.366
54823SOL    HW166366  13.212  10.127   5.305
54823SOL    HW266367  13.256  10.269   5.333
54824SOL     OW66368   0.050   3.918  10.661
54824SOL    HW166369   0.134   3.926  10.616
54824SOL    HW266370   0.059   3.841  10.716
54825SOL     OW66371   5.055  11.203  13.764
54825SOL    HW166372   5.074  11.112  13.787
54825SOL    HW266373   5.119  11.224  13.696
54826SOL     OW66374  12.064   3.443   7.497
54826SOL    HW166375  12.053   3.381   7.569
54826SOL    HW266376  11.989   3.428   7.440
54827SOL     OW66377   1.975   4.780   0.694
54827SOL    HW166378   1.963   4.813   0.784
54827SOL    HW266379   1.995   4.858   0.643
54828SOL     OW66380   1.984   4.916   0.915
54828SOL    HW166381   2.078   4.899   0.908
54828SOL    HW266382   1.976   4.982   0.984
54829SOL     OW66383  13.271   5.505   8.667
54829SOL    HW166384  13.248   5.551   8.747
54829SOL    HW266385  13.189   5.463   8.640
54830SOL     OW66386   0.020   5.764   6.554
54830SOL    HW166387  14.818   5.726   6.580
54830SOL    HW266388   0.002   5.806   6.470
54831SOL     OW66389   1.706   2.131   4.654
54831SOL    HW166390   1.761   2.181   4.594
54831SOL    HW266391   1.666   2.197   4.710
54832SOL     OW66392   9.828   9.822  14.392
54832SOL    HW166393   9.903   9.876  14.366
54832SOL    HW266394   9.867   9.739  14.417
54833SOL     OW66395   2.079  10.079  12.048
54833SOL    HW166396   2.141  10.095  12.119
54833SOL    HW266397   2.018  10.153  12.052
54834SOL     OW66398  14.626   3.878   6.681
54834SOL    HW166399  14.707   3.829   6.667
54834SOL    HW266400  14.631   3.905   6.773
54835SOL     OW66401   8.880   3.909   6.225
54835SOL    HW166402   8.895   3.818   6.200
54835SOL    HW266403   8.938   3.923   6.300
54836SOL     OW66404  13.579   2.501   5.109
54836SOL    HW166405  13.638   2.567   5.071
54836SOL    HW266406  13.636   2.427   5.128
54837SOL     OW66407   4.317  12.163   3.322
54837SOL    HW166408   4.299  12.179   3.230
54837SOL    HW266409   4.233  12.134   3.359
54838SOL     OW66410  14.378   4.057   8.403
54838SOL    HW166411  14.416   4.131   8.449
54838SOL    HW266412  14.299   4.035   8.453
54839SOL     OW66413  10.066   0.466   1.778
54839SOL    HW166414   9.990   0.408   1.768
54839SOL    HW266415  10.122   0.446   1.703
54840SOL     OW66416   2.128  11.396   3.388
54840SOL    HW166417   2.047  11.360   3.351
54840SOL    HW266418   2.197  11.342   3.350
54841SOL     OW66419   3.713   8.589   6.315
54841SOL    HW166420   3.650   8.544   6.370
54841SOL    HW266421   3.739   8.524   6.249
54842SOL     OW66422   2.319   8.032   9.628
54842SOL    HW166423   2.302   8.103   9.690
54842SOL    HW266424   2.368   8.074   9.557
54843SOL     OW66425   1.032   4.777   3.641
54843SOL    HW166426   1.059   4.704   3.585
54843SOL    HW266427   0.995   4.842   3.581
54844SOL     OW66428   2.071  10.984  13.643
54844SOL    HW166429   2.032  11.071  13.636
54844SOL    HW266430   2.098  10.963  13.553
54845SOL     OW66431   6.626  11.683   0.155
54845SOL    HW166432   6.592  11.634   0.080
54845SOL    HW266433   6.608  11.626   0.230
54846SOL     OW66434  11.431   8.158  11.217
54846SOL    HW166435  11.393   8.102  11.285
54846SOL    HW266436  11.499   8.104  11.177
54847SOL     OW66437   9.359  11.014   4.522
54847SOL    HW166438   9.281  10.990   4.572
54847SOL    HW266439   9.350  11.109   4.508
54848SOL     OW66440   8.567  13.043   6.376
54848SOL    HW166441   8.548  12.950   6.365
54848SOL    HW266442   8.507  13.072   6.444
54849SOL     OW66443   7.080   6.560  13.677
54849SOL    HW166444   7.079   6.517  13.763
54849SOL    HW266445   7.049   6.649  13.694
54850SOL     OW66446   4.951  11.787  12.539
54850SOL    HW166447   4.986  11.744  12.462
54850SOL    HW266448   4.933  11.716  12.600
54851SOL     OW66449  14.150   2.962   0.359
54851SOL    HW166450  14.119   2.923   0.441
54851SOL    HW266451  14.151   3.056   0.376
54852SOL     OW66452  14.386   5.376   2.345
54852SOL    HW166453  14.344   5.329   2.273
54852SOL    HW266454  14.318   5.384   2.412
54853SOL     OW66455   8.044  11.039   9.180
54853SOL    HW166456   8.045  11.054   9.085
54853SOL    HW266457   7.953  11.017   9.200
54854SOL     OW66458   9.725   0.327   6.575
54854SOL    HW166459   9.640   0.346   6.536
54854SOL    HW266460   9.762   0.260   6.519
54855SOL     OW66461   1.485   2.678   8.124
54855SOL    HW166462   1.469   2.639   8.037
54855SOL    HW266463   1.507   2.603   8.179
54856SOL     OW66464   3.655   3.259   5.957
54856SOL    HW166465   3.576   3.206   5.940
54856SOL    HW266466   3.667   3.311   5.877
54857SOL     OW66467   7.932  12.210   7.631
54857SOL    HW166468   7.910  12.251   7.714
54857SOL    HW266469   7.947  12.118   7.654
54858SOL     OW66470   1.973   1.198   1.458
54858SOL    HW166471   1.955   1.107   1.482
54858SOL    HW266472   1.900   1.223   1.402
54859SOL     OW66473   7.481   6.670   6.158
54859SOL    HW166474   7.482   6.740   6.224
54859SOL    HW266475   7.420   6.701   6.091
54860SOL     OW66476   5.639  12.624   8.483
54860SOL    HW166477   5.575  12.696   8.484
54860SOL    HW266478   5.697  12.644   8.410
54861SOL     OW66479   8.583   6.890  12.453
54861SOL    HW166480   8.594   6.880  12.358
54861SOL    HW266481   8.621   6.810  12.490
54862SOL     OW66482   3.821  13.255   6.540
54862SOL    HW166483   3.769  13.265   6.460
54862SOL    HW266484   3.839  13.344   6.569
54863SOL     OW66485   8.200   8.313   9.586
54863SOL    HW166486   8.250   8.234   9.604
54863SOL    HW266487   8.174   8.305   9.495
54864SOL     OW66488  11.850   2.653   5.972
54864SOL    HW166489  11.814   2.733   5.933
54864SOL    HW266490  11.933   2.639   5.926
54865SOL     OW66491   8.009   3.315   3.838
54865SOL    HW166492   8.095   3.354   3.820
54865SOL    HW266493   8.025   3.255   3.911
54866SOL     OW66494  14.042  12.917   5.156
54866SOL    HW166495  14.019  12.963   5.237
54866SOL    HW266496  14.126  12.954   5.129
54867SOL     OW66497   2.215   7.453   1.765
54867SOL    HW166498   2.282   7.398   1.806
54867SOL    HW266499   2.216   7.429   1.673
54868SOL     OW66500   7.904   1.202   8.500
54868SOL    HW166501   7.892   1.124   8.446
54868SOL    HW266502   7.896   1.275   8.438
54869SOL     OW66503  10.338   4.597   7.474
54869SOL    HW166504  10.359   4.613   7.382
54869SOL    HW266505  10.401   4.529   7.501
54870SOL     OW66506   0.195   0.339   9.478
54870SOL    HW166507   0.190   0.406   9.411
54870SOL    HW266508   0.282   0.301   9.468
54871SOL     OW66509   4.642  10.133   4.732
54871SOL    HW166510   4.679  10.053   4.694
54871SOL    HW266511   4.570  10.157   4.674
54872SOL     OW66512   7.082   3.496  10.227
54872SOL    HW166513   7.087   3.555  10.152
54872SOL    HW266514   6.989   3.494  10.250
54873SOL     OW66515   9.265   8.778   9.688
54873SOL    HW166516   9.358   8.771   9.709
54873SOL    HW266517   9.258   8.753   9.596
54874SOL     OW66518   9.205  10.394   8.728
54874SOL    HW166519   9.196  10.468   8.668
54874SOL    HW266520   9.196  10.433   8.815
54875SOL     OW66521   8.475   2.014   0.891
54875SOL    HW166522   8.473   2.109   0.890
54875SOL    HW266523   8.507   1.991   0.978
54876SOL     OW66524  13.179  11.508  11.805
54876SOL    HW166525  13.212  11.418  11.792
54876SOL    HW266526  13.179  11.546  11.717
54877SOL     OW66527   7.668  13.963   0.781
54877SOL    HW166528   7.619  13.881   0.789
54877SOL    HW266529   7.676  13.977   0.687
54878SOL     OW66530   5.476  12.467  10.308
54878SOL    HW166531   5.464  12.438  10.218
54878SOL    HW266532   5.387  12.473  10.344
54879SOL     OW66533   5.939   6.774   5.215
54879SOL    HW166534   5.991   6.695   5.202
54879SOL    HW266535   5.855   6.755   5.174
54880SOL     OW66536  13.251  14.780   9.776
54880SOL    HW166537  13.251  14.743   9.687
54880SOL    HW266538  13.269  14.705   9.833
54881SOL     OW66539   6.557   5.307   7.796
54881SOL    HW166540   6.483   5.250   7.819
54881SOL    HW266541   6.624   5.287   7.862
54882SOL     OW66542   8.836   5.925   5.861
54882SOL    HW166543   8.781   5.861   5.817
54882SOL    HW266544   8.925   5.903   5.835
54883SOL     OW66545  12.134   4.221  11.267
54883SOL    HW166546  12.212   4.269  11.295
54883SOL    HW266547  12.066   4.288  11.261
54884SOL     OW66548   4.038   5.079  14.419
54884SOL    HW166549   3.950   5.047  14.440
54884SOL    HW266550   4.069   5.121  14.499
54885SOL     OW66551  12.084   1.561   6.200
54885SOL    HW166552  12.124   1.487   6.154
54885SOL    HW266553  12.105   1.546   6.292
54886SOL     OW66554   8.178   8.302   0.232
54886SOL    HW166555   8.094   8.320   0.272
54886SOL    HW266556   8.230   8.262   0.301
54887SOL     OW66557   3.015   0.687  13.212
54887SOL    HW166558   3.082   0.747  13.179
54887SOL    HW266559   3.049   0.658  13.297
54888SOL     OW66560   2.409  12.455  14.556
54888SOL    HW166561   2.501  12.436  14.578
54888SOL    HW266562   2.408  12.460  14.460
54889SOL     OW66563   4.586  13.674  10.150
54889SOL    HW166564   4.546  13.688  10.064
54889SOL    HW266565   4.549  13.592  10.182
54890SOL     OW66566   5.328   4.820   3.964
54890SOL    HW166567   5.341   4.870   4.045
54890SOL    HW266568   5.413   4.825   3.919
54891SOL     OW66569  14.254   9.655  12.230
54891SOL    HW166570  14.238   9.565  12.203
54891SOL    HW266571  14.167   9.689  12.251
54892SOL     OW66572  10.066  11.781   7.196
54892SOL    HW166573  10.038  11.859   7.244
54892SOL    HW266574  10.017  11.709   7.236
54893SOL     OW66575   2.624  10.997   4.139
54893SOL    HW166576   2.699  10.954   4.098
54893SOL    HW266577   2.549  10.942   4.117
54894SOL     OW66578   8.377  14.725   9.102
54894SOL    HW166579   8.339  14.641   9.075
54894SOL    HW266580   8.453  14.736   9.046
54895SOL     OW66581  13.593   3.341   2.166
54895SOL    HW166582  13.564   3.404   2.232
54895SOL    HW266583  13.513   3.312   2.123
54896SOL     OW66584   5.142   6.544  12.289
54896SOL    HW166585   5.230   6.539  12.325
54896SOL    HW266586   5.108   6.455  12.297
54897SOL     OW66587   6.345   8.676  13.092
54897SOL    HW166588   6.414   8.626  13.048
54897SOL    HW266589   6.347   8.646  13.183
54898SOL     OW66590  14.537   6.615   3.648
54898SOL    HW166591  14.571   6.549   3.587
54898SOL    HW266592  14.478   6.668   3.596
54899SOL     OW66593   3.743   3.887  12.135
54899SOL    HW166594   3.728   3.793  12.126
54899SOL    HW266595   3.660   3.927  12.110
54900SOL     OW66596   3.013  13.101   7.931
54900SOL    HW166597   3.043  13.117   7.841
54900SOL    HW266598   2.943  13.036   7.921
54901SOL     OW66599   9.014   0.789   1.921
54901SOL    HW166600   9.110   0.793   1.919
54901SOL    HW266601   8.994   0.695   1.916
54902SOL     OW66602   7.768   4.517   0.548
54902SOL    HW166603   7.837   4.467   0.505
54902SOL    HW266604   7.703   4.533   0.479
54903SOL     OW66605  10.449  12.700   3.878
54903SOL    HW166606  10.460  12.698   3.782
54903SOL    HW266607  10.369  12.750   3.892
54904SOL     OW66608   2.862   5.166   1.615
54904SOL    HW166609   2.814   5.087   1.589
54904SOL    HW266610   2.844   5.175   1.709
54905SOL     OW66611   4.631   4.401  12.992
54905SOL    HW166612   4.574   4.460  13.043
54905SOL    HW266613   4.571   4.357  12.932
54906SOL     OW66614   5.175   9.812   6.888
54906SOL    HW166615   5.203   9.880   6.826
54906SOL    HW266616   5.192   9.850   6.974
54907SOL     OW66617   1.849   7.961  10.998
54907SOL    HW166618   1.914   7.891  11.002
54907SOL    HW266619   1.807   7.961  11.084
54908SOL     OW66620   2.307   6.073   2.045
54908SOL    HW166621   2.370   6.128   2.091
54908SOL    HW266622   2.361   6.010   1.997
54909SOL     OW66623  11.279   2.618   7.587
54909SOL    HW166624  11.188   2.647   7.585
54909SOL    HW266625  11.324   2.680   7.645
54910SOL     OW66626  11.251   2.205   2.106
54910SOL    HW166627  11.313   2.188   2.035
54910SOL    HW266628  11.258   2.299   2.122
54911SOL     OW66629  14.680   0.779   9.573
54911SOL    HW166630  14.724   0.861   9.597
54911SOL    HW266631  14.622   0.803   9.501
54912SOL     OW66632   3.703   8.644  14.247
54912SOL    HW166633   3.797   8.647  14.266
54912SOL    HW266634   3.664   8.699  14.315
54913SOL     OW66635   7.860   9.056   6.450
54913SOL    HW166636   7.818   9.133   6.489
54913SOL    HW266637   7.869   8.994   6.522
54914SOL     OW66638   5.719   4.443  14.445
54914SOL    HW166639   5.737   4.401  14.361
54914SOL    HW266640   5.626   4.428  14.460
54915SOL     OW66641  12.427   5.674   3.718
54915SOL    HW166642  12.461   5.650   3.632
54915SOL    HW266643  12.370   5.600   3.742
54916SOL     OW66644  10.965   0.536  10.732
54916SOL    HW166645  11.033   0.473  10.753
54916SOL    HW266646  10.976   0.606  10.796
54917SOL     OW66647   5.231  10.352   0.594
54917SOL    HW166648   5.145  10.362   0.554
54917SOL    HW266649   5.213  10.340   0.688
54918SOL     OW66650   1.439   5.977   1.739
54918SOL    HW166651   1.430   5.887   1.707
54918SOL    HW266652   1.483   5.968   1.823
54919SOL     OW66653  13.117   4.139  14.182
54919SOL    HW166654  13.030   4.175  14.163
54919SOL    HW266655  13.174   4.215  14.185
54920SOL     OW66656   1.788  10.137   4.412
54920SOL    HW166657   1.797  10.228   4.383
54920SOL    HW266658   1.736  10.143   4.492
54921SOL     OW66659   8.365  13.593   1.022
54921SOL    HW166660   8.397  13.666   0.969
54921SOL    HW266661   8.443  13.542   1.042
54922SOL     OW66662  13.641   8.704  14.436
54922SOL    HW166663  13.688   8.686  14.518
54922SOL    HW266664  13.632   8.618  14.395
54923SOL     OW66665   5.340   7.902   6.400
54923SOL    HW166666   5.417   7.847   6.409
54923SOL    HW266667   5.329   7.944   6.485
54924SOL     OW66668  12.316   1.341   6.895
54924SOL    HW166669  12.300   1.312   6.985
54924SOL    HW266670  12.369   1.271   6.856
54925SOL     OW66671   9.633   5.451  12.483
54925SOL    HW166672   9.618   5.538  12.445
54925SOL    HW266673   9.549   5.425  12.519
54926SOL     OW66674   3.662  10.018   3.143
54926SOL    HW166675   3.663  10.031   3.048
54926SOL    HW266676   3.572  10.039   3.169
54927SOL     OW66677   8.863  14.095  12.895
54927SOL    HW166678   8.902  14.170  12.940
54927SOL    HW266679   8.842  14.129  12.807
54928SOL     OW66680   4.577  10.880   5.345
54928SOL    HW166681   4.496  10.865   5.394
54928SOL    HW266682   4.616  10.793   5.336
54929SOL     OW66683  10.961  13.579   3.587
54929SOL    HW166684  10.912  13.532   3.519
54929SOL    HW266685  10.940  13.532   3.668
54930SOL     OW66686   5.706   2.159   7.948
54930SOL    HW166687   5.795   2.185   7.969
54930SOL    HW266688   5.715   2.090   7.882
54931SOL     OW66689  14.273  10.779   8.927
54931SOL    HW166690  14.315  10.746   8.847
54931SOL    HW266691  14.222  10.705   8.959
54932SOL     OW66692  10.085   6.395   9.625
54932SOL    HW166693  10.048   6.468   9.574
54932SOL    HW266694  10.079   6.320   9.566
54933SOL     OW66695  12.779  13.224  14.799
54933SOL    HW166696  12.775  13.196  14.708
54933SOL    HW266697  12.872  13.224  14.820
54934SOL     OW66698  12.241   4.447   1.503
54934SOL    HW166699  12.264   4.513   1.568
54934SOL    HW266700  12.325   4.416   1.469
54935SOL     OW66701   9.481   7.605   6.434
54935SOL    HW166702   9.459   7.596   6.527
54935SOL    HW266703   9.507   7.517   6.407
54936SOL     OW66704   9.674  10.214   4.412
54936SOL    HW166705   9.626  10.213   4.495
54936SOL    HW266706   9.762  10.185   4.436
54937SOL     OW66707   3.906   8.466   8.976
54937SOL    HW166708   3.842   8.532   9.003
54937SOL    HW266709   3.883   8.446   8.886
54938SOL     OW66710   6.012   3.888  14.401
54938SOL    HW166711   6.107   3.881  14.389
54938SOL    HW266712   5.980   3.799  14.390
54939SOL     OW66713   6.189  13.065   6.932
54939SOL    HW166714   6.241  13.124   6.877
54939SOL    HW266715   6.253  13.022   6.989
54940SOL     OW66716  13.148  13.508   9.171
54940SOL    HW166717  13.072  13.512   9.114
54940SOL    HW266718  13.121  13.454   9.245
54941SOL     OW66719   1.284   8.684   6.581
54941SOL    HW166720   1.367   8.719   6.550
54941SOL    HW266721   1.220   8.751   6.558
54942SOL     OW66722   3.430   6.458   2.071
54942SOL    HW166723   3.422   6.529   2.135
54942SOL    HW266724   3.522   6.458   2.046
54943SOL     OW66725   2.380   5.592   5.398
54943SOL    HW166726   2.427   5.540   5.463
54943SOL    HW266727   2.420   5.568   5.315
54944SOL     OW66728  13.645  11.485  14.077
54944SOL    HW166729  13.688  11.433  14.144
54944SOL    HW266730  13.591  11.548  14.126
54945SOL     OW66731   6.860  14.325   4.240
54945SOL    HW166732   6.844  14.328   4.334
54945SOL    HW266733   6.859  14.231   4.219
54946SOL     OW66734   7.842   5.270   8.304
54946SOL    HW166735   7.854   5.178   8.328
54946SOL    HW266736   7.904   5.284   8.232
54947SOL     OW66737  12.084   3.771  14.847
54947SOL    HW166738  12.115   3.799   0.050
54947SOL    HW266739  12.051   3.851  14.805
54948SOL     OW66740  12.911  13.421   7.628
54948SOL    HW166741  12.906  13.471   7.547
54948SOL    HW266742  12.970  13.348   7.607
54949SOL     OW66743   0.209  14.514   0.391
54949SOL    HW166744   0.281  14.552   0.339
54949SOL    HW266745   0.235  14.423   0.405
54950SOL     OW66746  11.592  10.851   9.181
54950SOL    HW166747  11.520  10.908   9.153
54950SOL    HW266748  11.564  10.763   9.156
54951SOL     OW66749   8.357  10.874   8.757
54951SOL    HW166750   8.315  10.959   8.745
54951SOL    HW266751   8.306  10.813   8.704
54952SOL     OW66752   2.726  10.943  12.853
54952SOL    HW166753   2.786  10.945  12.927
54952SOL    HW266754   2.771  10.992  12.784
54953SOL     OW66755   5.741   6.666   9.732
54953SOL    HW166756   5.832   6.649   9.756
54953SOL    HW266757   5.699   6.580   9.734
54954SOL     OW66758   4.469   0.396   0.400
54954SOL    HW166759   4.438   0.330   0.337
54954SOL    HW266760   4.564   0.387   0.399
54955SOL     OW66761   2.954   2.149   3.070
54955SOL    HW166762   3.007   2.151   2.990
54955SOL    HW266763   2.892   2.221   3.058
54956SOL     OW66764  13.226   7.522   8.534
54956SOL    HW166765  13.276   7.443   8.515
54956SOL    HW266766  13.220   7.567   8.450
54957SOL     OW66767   3.344   2.095   9.245
54957SOL    HW166768   3.349   2.000   9.255
54957SOL    HW266769   3.349   2.110   9.151
54958SOL     OW66770  13.682  10.313  14.748
54958SOL    HW166771  13.757  10.254  14.758
54958SOL    HW266772  13.616  10.278  14.808
54959SOL     OW66773   7.594  12.858   4.840
54959SOL    HW166774   7.548  12.856   4.756
54959SOL    HW266775   7.641  12.941   4.841
54960SOL     OW66776  14.305   0.365   0.260
54960SOL    HW166777  14.288   0.412   0.342
54960SOL    HW266778  14.247   0.407   0.196
54961SOL     OW66779   9.678   8.270   3.231
54961SOL    HW166780   9.664   8.279   3.137
54961SOL    HW266781   9.771   8.292   3.244
54962SOL     OW66782   5.428  13.994  10.678
54962SOL    HW166783   5.389  13.920  10.725
54962SOL    HW266784   5.512  14.009  10.722
54963SOL     OW66785  13.033   6.896   0.122
54963SOL    HW166786  12.970   6.965   0.101
54963SOL    HW266787  13.010   6.824   0.063
54964SOL     OW66788   3.568   2.407   5.057
54964SOL    HW166789   3.587   2.323   5.015
54964SOL    HW266790   3.473   2.406   5.070
54965SOL     OW66791   1.529   6.648  13.966
54965SOL    HW166792   1.588   6.642  13.892
54965SOL    HW266793   1.560   6.583  14.028
54966SOL     OW66794   8.683   2.026   5.051
54966SOL    HW166795   8.720   2.087   4.987
54966SOL    HW266796   8.650   1.953   5.000
54967SOL     OW66797   1.671   2.852   7.762
54967SOL    HW166798   1.678   2.936   7.808
54967SOL    HW266799   1.612   2.870   7.689
54968SOL     OW66800   1.329   8.419   4.076
54968SOL    HW166801   1.264   8.471   4.123
54968SOL    HW266802   1.413   8.447   4.114
54969SOL     OW66803   7.675  14.526   0.737
54969SOL    HW166804   7.610  14.484   0.793
54969SOL    HW266805   7.649  14.501   0.648
54970SOL     OW66806   0.727  12.007  14.621
54970SOL    HW166807   0.719  12.075  14.554
54970SOL    HW266808   0.637  11.975  14.633
54971SOL     OW66809   2.147   5.259   4.829
54971SOL    HW166810   2.092   5.265   4.907
54971SOL    HW266811   2.149   5.165   4.809
54972SOL     OW66812  12.321   8.851   0.341
54972SOL    HW166813  12.391   8.816   0.395
54972SOL    HW266814  12.272   8.773   0.312
54973SOL     OW66815   6.382   1.015   3.492
54973SOL    HW166816   6.298   1.054   3.514
54973SOL    HW266817   6.380   0.928   3.532
54974SOL     OW66818  12.208   2.716   9.475
54974SOL    HW166819  12.280   2.710   9.413
54974SOL    HW266820  12.182   2.625   9.491
54975SOL     OW66821  12.915   2.386   1.036
54975SOL    HW166822  12.949   2.440   0.964
54975SOL    HW266823  12.965   2.305   1.030
54976SOL     OW66824   7.953  12.648   1.386
54976SOL    HW166825   7.989  12.589   1.452
54976SOL    HW266826   7.978  12.609   1.303
54977SOL     OW66827   6.826   2.604  12.823
54977SOL    HW166828   6.897   2.548  12.853
54977SOL    HW266829   6.839   2.687  12.867
54978SOL     OW66830   7.094   1.097   4.025
54978SOL    HW166831   7.113   1.100   4.119
54978SOL    HW266832   7.043   1.176   4.008
54979SOL     OW66833   4.970   0.821   2.017
54979SOL    HW166834   4.900   0.820   1.952
54979SOL    HW266835   4.979   0.730   2.045
54980SOL     OW66836  11.819   7.893   8.769
54980SOL    HW166837  11.754   7.865   8.705
54980SOL    HW266838  11.844   7.813   8.815
54981SOL     OW66839   2.157   7.729  13.819
54981SOL    HW166840   2.088   7.709  13.756
54981SOL    HW266841   2.114   7.728  13.904
54982SOL     OW66842   7.306  13.539   7.007
54982SOL    HW166843   7.343  13.513   6.923
54982SOL    HW266844   7.285  13.456   7.050
54983SOL     OW66845   6.773   4.815  11.321
54983SOL    HW166846   6.696   4.801  11.266
54983SOL    HW266847   6.749   4.777  11.405
54984SOL     OW66848   4.796   0.861   8.072
54984SOL    HW166849   4.843   0.818   8.000
54984SOL    HW266850   4.855   0.932   8.099
54985SOL     OW66851   5.213   5.208   4.687
54985SOL    HW166852   5.245   5.271   4.623
54985SOL    HW266853   5.174   5.138   4.636
54986SOL     OW66854  10.409   7.838  10.015
54986SOL    HW166855  10.450   7.883  10.089
54986SOL    HW266856  10.412   7.745  10.038
54987SOL     OW66857   0.299   0.667  10.294
54987SOL    HW166858   0.375   0.610  10.278
54987SOL    HW266859   0.224   0.617  10.264
54988SOL     OW66860  14.086  14.138  13.642
54988SOL    HW166861  14.126  14.088  13.572
54988SOL    HW266862  14.011  14.086  13.670
54989SOL     OW66863   5.817   2.453   5.918
54989SOL    HW166864   5.797   2.510   5.844
54989SOL    HW266865   5.734   2.443   5.964
54990SOL     OW66866   2.094  14.714   0.757
54990SOL    HW166867   2.121  14.678   0.672
54990SOL    HW266868   2.171  14.703   0.813
54991SOL     OW66869   1.405   0.984   8.740
54991SOL    HW166870   1.342   1.045   8.777
54991SOL    HW266871   1.368   0.962   8.654
54992SOL     OW66872   9.373   2.997   5.744
54992SOL    HW166873   9.401   2.925   5.800
54992SOL    HW266874   9.393   3.076   5.794
54993SOL     OW66875   1.417   1.499   0.768
54993SOL    HW166876   1.338   1.484   0.821
54993SOL    HW266877   1.441   1.590   0.787
54994SOL     OW66878   4.496  12.145   2.023
54994SOL    HW166879   4.469  12.212   1.960
54994SOL    HW266880   4.493  12.190   2.108
54995SOL     OW66881   1.542   0.084   8.398
54995SOL    HW166882   1.623   0.037   8.377
54995SOL    HW266883   1.484   0.017   8.433
54996SOL     OW66884   5.149   1.224   1.385
54996SOL    HW166885   5.082   1.181   1.438
54996SOL    HW266886   5.175   1.157   1.321
54997SOL     OW66887   0.261  11.316   7.259
54997SOL    HW166888   0.343  11.305   7.308
54997SOL    HW266889   0.207  11.373   7.314
54998SOL     OW66890   7.615  13.676  11.714
54998SOL    HW166891   7.527  13.652  11.744
54998SOL    HW266892   7.671  13.668  11.791
54999SOL     OW66893   2.626   2.442  10.263
54999SOL    HW166894   2.621   2.513  10.199
54999SOL    HW266895   2.538   2.405  10.264
55000SOL     OW66896   9.143  14.392   5.768
55000SOL    HW166897   9.221  14.426   5.724
55000SOL    HW266898   9.116  14.463   5.826
55001SOL     OW66899   5.402   0.138   6.659
55001SOL    HW166900   5.405   0.157   6.565
55001SOL    HW266901   5.485   0.095   6.677
55002SOL     OW66902  13.447   9.063   3.421
55002SOL    HW166903  13.429   9.105   3.337
55002SOL    HW266904  13.457   8.971   3.401
55003SOL     OW66905   1.514   4.115   7.800
55003SOL    HW166906   1.490   4.131   7.891
55003SOL    HW266907   1.600   4.073   7.804
55004SOL     OW66908   1.374   6.672   6.019
55004SOL    HW166909   1.414   6.725   5.950
55004SOL    HW266910   1.418   6.702   6.099
55005SOL     OW66911   7.041   6.753   8.387
55005SOL    HW166912   7.067   6.739   8.478
55005SOL    HW266913   7.110   6.809   8.350
55006SOL     OW66914   1.064   6.051   1.692
55006SOL    HW166915   0.978   6.045   1.732
55006SOL    HW266916   1.118   6.098   1.757
55007SOL     OW66917   7.142   0.083   5.884
55007SOL    HW166918   7.215   0.031   5.916
55007SOL    HW266919   7.064   0.032   5.905
55008SOL     OW66920   1.964   2.535   2.793
55008SOL    HW166921   1.987   2.464   2.734
55008SOL    HW266922   1.883   2.507   2.835
55009SOL     OW66923   7.931   0.470  10.581
55009SOL    HW166924   7.892   0.542  10.533
55009SOL    HW266925   7.857   0.431  10.629
55010SOL     OW66926   6.699   2.754   3.723
55010SOL    HW166927   6.787   2.762   3.684
55010SOL    HW266928   6.705   2.803   3.805
55011SOL     OW66929  12.978   1.339  11.144
55011SOL    HW166930  12.929   1.264  11.179
55011SOL    HW266931  12.935   1.359  11.061
55012SOL     OW66932  13.612  12.853  12.148
55012SOL    HW166933  13.536  12.910  12.137
55012SOL    HW266934  13.575  12.769  12.174
55013SOL     OW66935   2.338   1.961   2.321
55013SOL    HW166936   2.429   1.949   2.349
55013SOL    HW266937   2.286   1.924   2.393
55014SOL     OW66938   8.713   5.713  11.687
55014SOL    HW166939   8.731   5.807  11.683
55014SOL    HW266940   8.791   5.673  11.649
55015SOL     OW66941   6.143   9.575  10.478
55015SOL    HW166942   6.174   9.619  10.557
55015SOL    HW266943   6.209   9.596  10.412
55016SOL     OW66944  10.824   3.254   5.223
55016SOL    HW166945  10.751   3.309   5.193
55016SOL    HW266946  10.899   3.314   5.225
55017SOL     OW66947  12.204  10.500  14.589
55017SOL    HW166948  12.283  10.478  14.637
55017SOL    HW266949  12.202  10.596  14.587
55018SOL     OW66950   0.757  10.435   9.600
55018SOL    HW166951   0.717  10.348   9.594
55018SOL    HW266952   0.816  10.429   9.675
55019SOL     OW66953  14.166  14.254  14.321
55019SOL    HW166954  14.110  14.234  14.246
55019SOL    HW266955  14.131  14.202  14.393
55020SOL     OW66956  13.863   8.999  11.712
55020SOL    HW166957  13.912   9.047  11.646
55020SOL    HW266958  13.776   8.988  11.673
55021SOL     OW66959  13.811   7.403  10.225
55021SOL    HW166960  13.752   7.440  10.159
55021SOL    HW266961  13.768   7.421  10.309
55022SOL     OW66962   3.498   2.460   2.822
55022SOL    HW166963   3.406   2.477   2.843
55022SOL    HW266964   3.518   2.377   2.864
55023SOL     OW66965   5.100   7.149   5.882
55023SOL    HW166966   5.036   7.193   5.825
55023SOL    HW266967   5.053   7.133   5.964
55024SOL     OW66968   0.036   5.151  11.123
55024SOL    HW166969  14.864   5.225  11.094
55024SOL    HW266970   0.000   5.076  11.075
55025SOL     OW66971   4.167  13.115  10.552
55025SOL    HW166972   4.118  13.072  10.483
55025SOL    HW266973   4.146  13.065  10.631
55026SOL     OW66974   5.038   9.597   1.738
55026SOL    HW166975   4.973   9.627   1.674
55026SOL    HW266976   5.011   9.508   1.760
55027SOL     OW66977  10.636  11.418   3.216
55027SOL    HW166978  10.703  11.386   3.156
55027SOL    HW266979  10.554  11.413   3.166
55028SOL     OW66980   0.936   8.666   3.658
55028SOL    HW166981   1.005   8.645   3.720
55028SOL    HW266982   0.910   8.581   3.621
55029SOL     OW66983  10.839  10.261  13.339
55029SOL    HW166984  10.762  10.259  13.395
55029SOL    HW266985  10.805  10.276  13.251
55030SOL     OW66986   6.165   6.572   7.706
55030SOL    HW166987   6.153   6.570   7.612
55030SOL    HW266988   6.084   6.536   7.742
55031SOL     OW66989   0.346   3.384   7.587
55031SOL    HW166990   0.288   3.458   7.602
55031SOL    HW266991   0.305   3.311   7.633
55032SOL     OW66992   3.126   9.303   4.937
55032SOL    HW166993   3.156   9.385   4.977
55032SOL    HW266994   3.197   9.278   4.878
55033SOL     OW66995   8.317   9.161  11.349
55033SOL    HW166996   8.279   9.086  11.303
55033SOL    HW266997   8.412   9.151  11.335
55034SOL     OW66998  14.690   6.611  12.801
55034SOL    HW166999  14.729   6.698  12.791
55034SOL    HW267000  14.611   6.614  12.747
55035SOL     OW67001  13.864   9.668   1.145
55035SOL    HW167002  13.826   9.652   1.059
55035SOL    HW267003  13.825   9.750   1.174
55036SOL     OW67004   5.999  10.510   1.205
55036SOL    HW167005   5.939  10.516   1.279
55036SOL    HW267006   6.085  10.499   1.245
55037SOL     OW67007   5.894   3.057   6.201
55037SOL    HW167008   5.892   2.964   6.225
55037SOL    HW267009   5.833   3.064   6.128
55038SOL     OW67010  13.907   6.811   2.424
55038SOL    HW167011  13.856   6.801   2.505
55038SOL    HW267012  13.998   6.817   2.452
55039SOL     OW67013   4.382   5.281   6.208
55039SOL    HW167014   4.287   5.263   6.208
55039SOL    HW267015   4.400   5.310   6.119
55040SOL     OW67016  14.223  13.270  12.787
55040SOL    HW167017  14.255  13.353  12.751
55040SOL    HW267018  14.270  13.203  12.736
55041SOL     OW67019   3.122   4.800   0.965
55041SOL    HW167020   3.118   4.888   1.002
55041SOL    HW267021   3.117   4.814   0.870
55042SOL     OW67022  13.016   6.677  14.814
55042SOL    HW167023  12.924   6.671  14.838
55042SOL    HW267024  13.017   6.734  14.737
55043SOL     OW67025  13.229  11.879  10.541
55043SOL    HW167026  13.143  11.921  10.537
55043SOL    HW267027  13.241  11.840  10.455
55044SOL     OW67028   7.822   3.647  10.028
55044SOL    HW167029   7.728   3.634  10.040
55044SOL    HW267030   7.830   3.686   9.941
55045SOL     OW67031   3.497   0.660  14.600
55045SOL    HW167032   3.571   0.645  14.659
55045SOL    HW267033   3.490   0.579  14.549
55046SOL     OW67034   2.509  14.596  14.407
55046SOL    HW167035   2.554  14.517  14.378
55046SOL    HW267036   2.416  14.578  14.391
55047SOL     OW67037   1.383   4.591  10.226
55047SOL    HW167038   1.298   4.581  10.183
55047SOL    HW267039   1.400   4.685  10.222
55048SOL     OW67040  14.760  10.324   3.774
55048SOL    HW167041  14.768  10.367   3.859
55048SOL    HW267042  14.851  10.311   3.745
55049SOL     OW67043  13.860   6.554  12.305
55049SOL    HW167044  13.931   6.519  12.251
55049SOL    HW267045  13.849   6.489  12.375
55050SOL     OW67046   5.978  12.179  14.013
55050SOL    HW167047   6.061  12.214  14.046
55050SOL    HW267048   5.998  12.151  13.924
55051SOL     OW67049   5.061   8.493  10.643
55051SOL    HW167050   5.082   8.504  10.550
55051SOL    HW267051   5.131   8.539  10.689
55052SOL     OW67052   4.300  14.395   6.192
55052SOL    HW167053   4.255  14.360   6.270
55052SOL    HW267054   4.276  14.488   6.191
55053SOL     OW67055  14.760   8.170   5.114
55053SOL    HW167056  14.782   8.192   5.024
55053SOL    HW267057  14.664   8.173   5.116
55054SOL     OW67058   9.070   1.813  12.651
55054SOL    HW167059   9.112   1.731  12.626
55054SOL    HW267060   8.989   1.814  12.600
55055SOL     OW67061   0.812   6.023   8.589
55055SOL    HW167062   0.762   6.075   8.526
55055SOL    HW267063   0.833   6.085   8.659
55056SOL     OW67064   1.280   0.467  13.081
55056SOL    HW167065   1.331   0.440  13.005
55056SOL    HW267066   1.192   0.483  13.047
55057SOL     OW67067  13.693  11.517   3.340
55057SOL    HW167068  13.622  11.478   3.289
55057SOL    HW267069  13.693  11.609   3.315
55058SOL     OW67070   5.538   0.664   8.888
55058SOL    HW167071   5.457   0.614   8.889
55058SOL    HW267072   5.572   0.652   8.799
55059SOL     OW67073  11.960   5.592   4.113
55059SOL    HW167074  12.008   5.653   4.169
55059SOL    HW267075  11.988   5.505   4.141
55060SOL     OW67076   1.045   8.197   4.347
55060SOL    HW167077   0.955   8.221   4.368
55060SOL    HW267078   1.043   8.176   4.253
55061SOL     OW67079  13.223   2.533   5.690
55061SOL    HW167080  13.293   2.596   5.674
55061SOL    HW267081  13.242   2.460   5.631
55062SOL     OW67082   0.126  12.307  10.170
55062SOL    HW167083   0.067  12.364  10.219
55062SOL    HW267084   0.073  12.275  10.097
55063SOL     OW67085   7.349  10.665  13.914
55063SOL    HW167086   7.307  10.681  13.998
55063SOL    HW267087   7.373  10.752  13.882
55064SOL     OW67088   7.158   2.098   1.826
55064SOL    HW167089   7.215   2.038   1.777
55064SOL    HW267090   7.210   2.177   1.837
55065SOL     OW67091  11.025  11.148  12.638
55065SOL    HW167092  11.089  11.094  12.592
55065SOL    HW267093  10.999  11.095  12.713
55066SOL     OW67094   1.155   0.554   4.030
55066SOL    HW167095   1.203   0.622   3.984
55066SOL    HW267096   1.152   0.481   3.968
55067SOL     OW67097   6.951   0.144   4.325
55067SOL    HW167098   6.968   0.195   4.246
55067SOL    HW267099   6.966   0.053   4.298
55068SOL     OW67100   4.590  14.373  12.671
55068SOL    HW167101   4.676  14.340  12.698
55068SOL    HW267102   4.601  14.398  12.580
55069SOL     OW67103   0.755   0.962  10.335
55069SOL    HW167104   0.849   0.948  10.324
55069SOL    HW267105   0.718   0.874  10.342
55070SOL     OW67106  13.639   9.250  14.536
55070SOL    HW167107  13.719   9.198  14.526
55070SOL    HW267108  13.585   9.198  14.596
55071SOL     OW67109   0.097   6.637  12.612
55071SOL    HW167110   0.161   6.566  12.614
55071SOL    HW267111   0.016   6.595  12.583
55072SOL     OW67112   4.606   3.819   7.668
55072SOL    HW167113   4.578   3.893   7.615
55072SOL    HW267114   4.526   3.768   7.682
55073SOL     OW67115   4.192   3.072  12.358
55073SOL    HW167116   4.213   3.040  12.446
55073SOL    HW267117   4.270   3.120  12.331
55074SOL     OW67118   7.347  11.020   3.259
55074SOL    HW167119   7.395  10.961   3.317
55074SOL    HW267120   7.415  11.067   3.211
55075SOL     OW67121  14.127  12.186  12.518
55075SOL    HW167122  14.119  12.219  12.608
55075SOL    HW267123  14.097  12.095  12.523
55076SOL     OW67124  12.517   0.899   6.453
55076SOL    HW167125  12.608   0.912   6.482
55076SOL    HW267126  12.483   0.988   6.441
55077SOL     OW67127  13.006   7.731   5.087
55077SOL    HW167128  13.093   7.705   5.119
55077SOL    HW267129  13.003   7.696   4.997
55078SOL     OW67130  14.334  13.876  12.479
55078SOL    HW167131  14.322  13.848  12.570
55078SOL    HW267132  14.247  13.873  12.441
55079SOL     OW67133   4.059   0.231   9.724
55079SOL    HW167134   3.988   0.170   9.705
55079SOL    HW267135   4.025   0.285   9.796
55080SOL     OW67136   5.422  10.108   0.523
55080SOL    HW167137   5.397  10.199   0.539
55080SOL    HW267138   5.414  10.098   0.428
55081SOL     OW67139  12.311  13.705  10.678
55081SOL    HW167140  12.339  13.724  10.767
55081SOL    HW267141  12.334  13.613  10.664
55082SOL     OW67142   5.088   4.289  12.860
55082SOL    HW167143   5.133   4.236  12.925
55082SOL    HW267144   4.995   4.284  12.884
55083SOL     OW67145  12.551   8.551  10.031
55083SOL    HW167146  12.631   8.598  10.056
55083SOL    HW267147  12.496   8.555  10.109
55084SOL     OW67148   5.244   6.195   0.601
55084SOL    HW167149   5.288   6.279   0.585
55084SOL    HW267150   5.307   6.129   0.572
55085SOL     OW67151   5.164   6.371   3.232
55085SOL    HW167152   5.117   6.364   3.315
55085SOL    HW267153   5.241   6.316   3.243
55086SOL     OW67154   9.171  13.602   3.862
55086SOL    HW167155   9.157  13.518   3.818
55086SOL    HW267156   9.127  13.593   3.947
55087SOL     OW67157   4.823  14.780   1.071
55087SOL    HW167158   4.771  14.789   1.150
55087SOL    HW267159   4.884  14.854   1.073
55088SOL     OW67160   2.465  13.483   9.239
55088SOL    HW167161   2.397  13.488   9.172
55088SOL    HW267162   2.441  13.406   9.291
55089SOL     OW67163  13.950   6.552   4.237
55089SOL    HW167164  13.954   6.457   4.246
55089SOL    HW267165  13.942   6.585   4.326
55090SOL     OW67166  10.254  10.131   8.841
55090SOL    HW167167  10.312  10.074   8.791
55090SOL    HW267168  10.182  10.074   8.868
55091SOL     OW67169   5.173   7.173  13.790
55091SOL    HW167170   5.096   7.222  13.761
55091SOL    HW267171   5.160   7.086  13.753
55092SOL     OW67172   0.733   1.511  14.718
55092SOL    HW167173   0.641   1.528  14.697
55092SOL    HW267174   0.730   1.435  14.776
55093SOL     OW67175  14.703  10.718  14.355
55093SOL    HW167176  14.626  10.677  14.317
55093SOL    HW267177  14.773  10.653  14.343
55094SOL     OW67178   3.651  13.677   5.259
55094SOL    HW167179   3.689  13.734   5.325
55094SOL    HW267180   3.678  13.589   5.285
55095SOL     OW67181   6.621   3.132   4.618
55095SOL    HW167182   6.614   3.057   4.560
55095SOL    HW267183   6.658   3.202   4.564
55096SOL     OW67184  11.319  12.767   1.614
55096SOL    HW167185  11.250  12.709   1.648
55096SOL    HW267186  11.331  12.740   1.523
55097SOL     OW67187   0.054   3.805   3.266
55097SOL    HW167188  14.881   3.794   3.343
55097SOL    HW267189   0.034   3.729   3.211
55098SOL     OW67190  10.841   7.748  10.328
55098SOL    HW167191  10.853   7.842  10.339
55098SOL    HW267192  10.925   7.709  10.354
55099SOL     OW67193   2.380   9.790   6.194
55099SOL    HW167194   2.462   9.754   6.158
55099SOL    HW267195   2.327   9.713   6.215
55100SOL     OW67196  13.563   3.495   2.390
55100SOL    HW167197  13.642   3.442   2.402
55100SOL    HW267198  13.560   3.551   2.467
55101SOL     OW67199   4.058  14.756   8.927
55101SOL    HW167200   4.080  14.671   8.889
55101SOL    HW267201   4.019  14.805   8.855
55102SOL     OW67202   3.084   7.229  14.124
55102SOL    HW167203   3.146   7.290  14.084
55102SOL    HW267204   3.139   7.163  14.166
55103SOL     OW67205  10.579  13.490  13.557
55103SOL    HW167206  10.503  13.439  13.582
55103SOL    HW267207  10.636  13.427  13.512
55104SOL     OW67208  13.984   7.443   8.011
55104SOL    HW167209  14.014   7.512   8.071
55104SOL    HW267210  14.061   7.387   8.000
55105SOL     OW67211   6.926   3.173   8.979
55105SOL    HW167212   6.844   3.171   8.929
55105SOL    HW267213   6.930   3.260   9.016
55106SOL     OW67214  10.397  13.598   1.590
55106SOL    HW167215  10.374  13.521   1.641
55106SOL    HW267216  10.483  13.624   1.624
55107SOL     OW67217   7.793   6.183  12.655
55107SOL    HW167218   7.873   6.236  12.655
55107SOL    HW267219   7.761   6.188  12.565
55108SOL     OW67220   2.495  13.161  14.766
55108SOL    HW167221   2.475  13.181  14.857
55108SOL    HW267222   2.502  13.247  14.724
55109SOL     OW67223  11.417   2.722   4.601
55109SOL    HW167224  11.428   2.663   4.676
55109SOL    HW267225  11.345   2.684   4.550
55110SOL     OW67226   9.528   2.013   9.245
55110SOL    HW167227   9.553   2.057   9.164
55110SOL    HW267228   9.445   2.053   9.269
55111SOL     OW67229   2.666   1.017   6.703
55111SOL    HW167230   2.757   1.017   6.673
55111SOL    HW267231   2.656   1.101   6.749
55112SOL     OW67232   2.232   6.657  10.627
55112SOL    HW167233   2.195   6.743  10.606
55112SOL    HW267234   2.158   6.608  10.665
55113SOL     OW67235   4.755   0.780   1.328
55113SOL    HW167236   4.768   0.859   1.276
55113SOL    HW267237   4.714   0.718   1.268
55114SOL     OW67238   4.816   0.262   9.625
55114SOL    HW167239   4.755   0.192   9.646
55114SOL    HW267240   4.790   0.335   9.682
55115SOL     OW67241  10.116  14.339   7.439
55115SOL    HW167242  10.137  14.372   7.351
55115SOL    HW267243  10.069  14.411   7.481
55116SOL     OW67244  10.882  13.594   9.562
55116SOL    HW167245  10.934  13.629   9.634
55116SOL    HW267246  10.946  13.570   9.495
55117SOL     OW67247   4.484   8.972  11.229
55117SOL    HW167248   4.578   8.951  11.235
55117SOL    HW267249   4.478   9.029  11.152
55118SOL     OW67250   2.378   8.990   5.345
55118SOL    HW167251   2.367   9.049   5.419
55118SOL    HW267252   2.291   8.952   5.331
55119SOL     OW67253   6.328  12.783   9.380
55119SOL    HW167254   6.362  12.839   9.311
55119SOL    HW267255   6.241  12.758   9.351
55120SOL     OW67256  11.362   4.871  12.739
55120SOL    HW167257  11.313   4.820  12.804
55120SOL    HW267258  11.454   4.855  12.761
55121SOL     OW67259  14.053   6.330   2.941
55121SOL    HW167260  14.000   6.260   2.904
55121SOL    HW267261  14.110   6.286   3.004
55122SOL     OW67262  12.130   0.721  13.776
55122SOL    HW167263  12.205   0.774  13.805
55122SOL    HW267264  12.169   0.639  13.747
55123SOL     OW67265  12.195  11.939   8.809
55123SOL    HW167266  12.111  11.955   8.767
55123SOL    HW267267  12.228  11.859   8.768
55124SOL     OW67268   2.076   5.146  10.334
55124SOL    HW167269   2.078   5.220  10.395
55124SOL    HW267270   2.121   5.178  10.256
55125SOL     OW67271   9.242  14.333   1.509
55125SOL    HW167272   9.254  14.389   1.433
55125SOL    HW267273   9.148  14.312   1.510
55126SOL     OW67274  13.374  13.658   4.416
55126SOL    HW167275  13.395  13.742   4.377
55126SOL    HW267276  13.374  13.597   4.343
55127SOL     OW67277   2.583   0.242   3.409
55127SOL    HW167278   2.626   0.312   3.359
55127SOL    HW267279   2.537   0.191   3.342
55128SOL     OW67280  10.952   1.316   1.811
55128SOL    HW167281  10.946   1.344   1.903
55128SOL    HW267282  11.024   1.253   1.811
55129SOL     OW67283  12.408   5.268   5.494
55129SOL    HW167284  12.356   5.190   5.510
55129SOL    HW267285  12.350   5.327   5.447
55130SOL     OW67286   0.936   3.123   1.755
55130SOL    HW167287   0.854   3.168   1.774
55130SOL    HW267288   0.930   3.101   1.662
55131SOL     OW67289  10.986   6.325   3.681
55131SOL    HW167290  10.892   6.338   3.692
55131SOL    HW267291  10.994   6.273   3.601
55132SOL     OW67292   7.488   8.573   3.864
55132SOL    HW167293   7.486   8.495   3.809
55132SOL    HW267294   7.407   8.620   3.841
55133SOL     OW67295   4.033  10.736   4.750
55133SOL    HW167296   3.972  10.804   4.722
55133SOL    HW267297   4.073  10.772   4.830
55134SOL     OW67298   6.544  11.968   4.497
55134SOL    HW167299   6.460  11.924   4.492
55134SOL    HW267300   6.535  12.045   4.442
55135SOL     OW67301   1.423   4.642   0.094
55135SOL    HW167302   1.332   4.657   0.120
55135SOL    HW267303   1.475   4.668   0.171
55136SOL     OW67304   2.427   1.118   4.109
55136SOL    HW167305   2.503   1.165   4.143
55136SOL    HW267306   2.459   1.031   4.088
55137SOL     OW67307  11.578   9.250  12.555
55137SOL    HW167308  11.600   9.308  12.482
55137SOL    HW267309  11.660   9.240  12.603
55138SOL     OW67310  10.654  12.602   0.907
55138SOL    HW167311  10.592  12.536   0.875
55138SOL    HW267312  10.738  12.577   0.868
55139SOL     OW67313  14.415   8.021  11.960
55139SOL    HW167314  14.464   7.990  12.036
55139SOL    HW267315  14.368   8.098  11.992
55140SOL     OW67316   5.043  11.848   7.926
55140SOL    HW167317   5.081  11.764   7.950
55140SOL    HW267318   5.119  11.905   7.913
55141SOL     OW67319  13.335   3.133   9.314
55141SOL    HW167320  13.346   3.096   9.401
55141SOL    HW267321  13.404   3.198   9.306
55142SOL     OW67322  10.774   3.516  13.048
55142SOL    HW167323  10.869   3.506  13.053
55142SOL    HW267324  10.739   3.446  13.103
55143SOL     OW67325   3.488  13.118   9.416
55143SOL    HW167326   3.528  13.114   9.329
55143SOL    HW267327   3.557  13.089   9.475
55144SOL     OW67328   9.907   1.614   2.747
55144SOL    HW167329   9.906   1.537   2.804
55144SOL    HW267330   9.854   1.588   2.672
55145SOL     OW67331  14.189   7.764   4.829
55145SOL    HW167332  14.181   7.774   4.924
55145SOL    HW267333  14.276   7.725   4.817
55146SOL     OW67334   4.645   9.380  13.124
55146SOL    HW167335   4.604   9.362  13.039
55146SOL    HW267336   4.584   9.440  13.168
55147SOL     OW67337   7.199  13.095  10.113
55147SOL    HW167338   7.135  13.132  10.174
55147SOL    HW267339   7.250  13.171  10.084
55148SOL     OW67340  12.118   4.726   6.490
55148SOL    HW167341  12.115   4.821   6.486
55148SOL    HW267342  12.039   4.701   6.539
55149SOL     OW67343  14.648   4.550   3.540
55149SOL    HW167344  14.629   4.466   3.498
55149SOL    HW267345  14.712   4.529   3.608
55150SOL     OW67346  11.369   0.909   4.174
55150SOL    HW167347  11.291   0.956   4.145
55150SOL    HW267348  11.399   0.957   4.251
55151SOL     OW67349  14.293   3.498   1.778
55151SOL    HW167350  14.377   3.538   1.754
55151SOL    HW267351  14.312   3.448   1.857
55152SOL     OW67352   0.475   8.598   2.176
55152SOL    HW167353   0.565   8.565   2.182
55152SOL    HW267354   0.483   8.693   2.185
55153SOL     OW67355   0.506   4.134  10.445
55153SOL    HW167356   0.430   4.130  10.386
55153SOL    HW267357   0.520   4.043  10.471
55154SOL     OW67358  10.656   0.651   9.992
55154SOL    HW167359  10.652   0.678  10.084
55154SOL    HW267360  10.735   0.598   9.986
55155SOL     OW67361   5.959   8.244   3.043
55155SOL    HW167362   6.000   8.323   3.078
55155SOL    HW267363   5.867   8.268   3.031
55156SOL     OW67364  12.088   6.560  12.576
55156SOL    HW167365  12.019   6.504  12.610
55156SOL    HW267366  12.107   6.621  12.647
55157SOL     OW67367   8.128   0.850   0.615
55157SOL    HW167368   8.222   0.853   0.601
55157SOL    HW267369   8.118   0.845   0.711
55158SOL     OW67370   4.157  14.528   2.329
55158SOL    HW167371   4.159  14.432   2.324
55158SOL    HW267372   4.108  14.555   2.252
55159SOL     OW67373   3.898  11.816   9.502
55159SOL    HW167374   3.843  11.740   9.517
55159SOL    HW267375   3.948  11.827   9.582
55160SOL     OW67376  13.477  13.740   9.647
55160SOL    HW167377  13.483  13.697   9.733
55160SOL    HW267378  13.542  13.696   9.593
55161SOL     OW67379   9.010   2.696   1.439
55161SOL    HW167380   8.980   2.613   1.476
55161SOL    HW267381   9.036   2.675   1.349
55162SOL     OW67382   4.725   5.795   1.609
55162SOL    HW167383   4.811   5.807   1.567
55162SOL    HW267384   4.742   5.737   1.683
55163SOL     OW67385  10.641  13.185   3.742
55163SOL    HW167386  10.601  13.119   3.685
55163SOL    HW267387  10.735  13.176   3.726
55164SOL     OW67388   4.292  12.886   1.498
55164SOL    HW167389   4.202  12.857   1.484
55164SOL    HW267390   4.342  12.804   1.510
55165SOL     OW67391   6.853   3.367   5.446
55165SOL    HW167392   6.890   3.370   5.534
55165SOL    HW267393   6.929   3.367   5.388
55166SOL     OW67394   8.095   4.807   6.871
55166SOL    HW167395   8.107   4.717   6.840
55166SOL    HW267396   8.048   4.798   6.954
55167SOL     OW67397  13.669   7.325  14.483
55167SOL    HW167398  13.728   7.287  14.417
55167SOL    HW267399  13.728   7.358  14.551
55168SOL     OW67400  11.075   9.242   4.533
55168SOL    HW167401  11.136   9.239   4.607
55168SOL    HW267402  11.127   9.217   4.457
55169SOL     OW67403  13.698   3.647   7.943
55169SOL    HW167404  13.616   3.614   7.907
55169SOL    HW267405  13.765   3.613   7.885
55170SOL     OW67406   4.306  13.794  10.827
55170SOL    HW167407   4.298  13.829  10.739
55170SOL    HW267408   4.295  13.699  10.816
55171SOL     OW67409  12.418  13.890   5.078
55171SOL    HW167410  12.466  13.862   5.156
55171SOL    HW267411  12.417  13.812   5.022
55172SOL     OW67412  13.372  12.758  12.635
55172SOL    HW167413  13.339  12.673  12.665
55172SOL    HW267414  13.451  12.773  12.687
55173SOL     OW67415   6.130   6.217   3.558
55173SOL    HW167416   6.055   6.233   3.501
55173SOL    HW267417   6.096   6.231   3.646
55174SOL     OW67418  14.617   4.463  13.118
55174SOL    HW167419  14.698   4.480  13.070
55174SOL    HW267420  14.646   4.433  13.204
55175SOL     OW67421   0.993   3.526   7.993
55175SOL    HW167422   0.999   3.434   8.021
55175SOL    HW267423   1.071   3.540   7.940
55176SOL     OW67424  14.690  13.531   4.285
55176SOL    HW167425  14.742  13.585   4.226
55176SOL    HW267426  14.607  13.519   4.240
55177SOL     OW67427  10.851  11.818   4.397
55177SOL    HW167428  10.912  11.850   4.464
55177SOL    HW267429  10.865  11.877   4.322
55178SOL     OW67430   1.364  10.414   4.878
55178SOL    HW167431   1.296  10.449   4.935
55178SOL    HW267432   1.323  10.408   4.792
55179SOL     OW67433   2.085  11.188  12.156
55179SOL    HW167434   2.054  11.102  12.185
55179SOL    HW267435   2.062  11.192  12.063
55180SOL     OW67436   4.233  12.626  11.738
55180SOL    HW167437   4.325  12.641  11.760
55180SOL    HW267438   4.185  12.683  11.799
55181SOL     OW67439   0.768   0.036  11.634
55181SOL    HW167440   0.733   0.085  11.560
55181SOL    HW267441   0.734  14.829  11.622
55182SOL     OW67442  11.365  13.619   1.361
55182SOL    HW167443  11.321  13.614   1.445
55182SOL    HW267444  11.379  13.528   1.335
55183SOL     OW67445   3.643  12.128  13.380
55183SOL    HW167446   3.592  12.125  13.299
55183SOL    HW267447   3.627  12.043  13.421
55184SOL     OW67448   2.618  14.145   8.211
55184SOL    HW167449   2.605  14.211   8.143
55184SOL    HW267450   2.547  14.160   8.273
55185SOL     OW67451   3.365   1.865   6.309
55185SOL    HW167452   3.419   1.790   6.288
55185SOL    HW267453   3.310   1.878   6.232
55186SOL     OW67454   9.112   3.113   5.706
55186SOL    HW167455   9.165   3.033   5.718
55186SOL    HW267456   9.128   3.137   5.614
55187SOL     OW67457   3.983   7.611   9.144
55187SOL    HW167458   3.924   7.545   9.106
55187SOL    HW267459   4.048   7.626   9.075
55188SOL     OW67460   2.653  12.453   7.381
55188SOL    HW167461   2.720  12.468   7.314
55188SOL    HW267462   2.684  12.377   7.430
55189SOL     OW67463   4.224   5.709   6.266
55189SOL    HW167464   4.140   5.664   6.253
55189SOL    HW267465   4.199   5.796   6.299
55190SOL     OW67466  14.002   1.601   3.421
55190SOL    HW167467  13.955   1.642   3.348
55190SOL    HW267468  13.989   1.507   3.408
55191SOL     OW67469   0.534  10.811   9.772
55191SOL    HW167470   0.589  10.884   9.799
55191SOL    HW267471   0.585  10.766   9.704
55192SOL     OW67472  12.687   2.924  12.290
55192SOL    HW167473  12.773   2.940  12.250
55192SOL    HW267474  12.697   2.840  12.334
55193SOL     OW67475   7.013   4.147   4.356
55193SOL    HW167476   7.022   4.061   4.314
55193SOL    HW267477   6.921   4.152   4.379
55194SOL     OW67478   5.107   7.484   7.872
55194SOL    HW167479   5.033   7.541   7.852
55194SOL    HW267480   5.126   7.439   7.789
55195SOL     OW67481   8.820   5.961   8.891
55195SOL    HW167482   8.730   5.966   8.923
55195SOL    HW267483   8.847   5.871   8.910
55196SOL     OW67484  12.552   4.352   7.739
55196SOL    HW167485  12.553   4.295   7.817
55196SOL    HW267486  12.636   4.398   7.743
55197SOL     OW67487   4.926   5.538   4.610
55197SOL    HW167488   4.866   5.510   4.541
55197SOL    HW267489   5.010   5.500   4.586
55198SOL     OW67490   7.850  13.972  11.588
55198SOL    HW167491   7.842  14.044  11.651
55198SOL    HW267492   7.759  13.952  11.562
55199SOL     OW67493   1.438   1.850   6.209
55199SOL    HW167494   1.533   1.857   6.204
55199SOL    HW267495   1.419   1.763   6.173
55200SOL     OW67496   8.632   4.620  11.215
55200SOL    HW167497   8.540   4.631  11.192
55200SOL    HW267498   8.655   4.533  11.183
55201SOL     OW67499   3.483   5.599  14.023
55201SOL    HW167500   3.575   5.595  14.047
55201SOL    HW267501   3.450   5.510  14.036
55202SOL     OW67502   1.516   6.309   4.588
55202SOL    HW167503   1.545   6.220   4.568
55202SOL    HW267504   1.597   6.358   4.602
55203SOL     OW67505  10.411  14.516   7.946
55203SOL    HW167506  10.477  14.572   7.906
55203SOL    HW267507  10.423  14.431   7.902
55204SOL     OW67508   4.726  12.231   5.452
55204SOL    HW167509   4.701  12.313   5.409
55204SOL    HW267510   4.817  12.244   5.478
55205SOL     OW67511   9.284   0.030   1.251
55205SOL    HW167512   9.314   0.071   1.332
55205SOL    HW267513   9.225  14.842   1.280
55206SOL     OW67514   4.753   0.380   7.151
55206SOL    HW167515   4.820   0.374   7.082
55206SOL    HW267516   4.696   0.305   7.135
55207SOL     OW67517  10.737   2.176  10.042
55207SOL    HW167518  10.740   2.196   9.948
55207SOL    HW267519  10.665   2.114  10.051
55208SOL     OW67520  10.150   4.392  13.194
55208SOL    HW167521  10.174   4.374  13.103
55208SOL    HW267522  10.188   4.477  13.213
55209SOL     OW67523   9.788   9.211   2.553
55209SOL    HW167524   9.742   9.182   2.632
55209SOL    HW267525   9.854   9.144   2.538
55210SOL     OW67526   5.611   8.488   1.618
55210SOL    HW167527   5.602   8.498   1.524
55210SOL    HW267528   5.524   8.509   1.653
55211SOL     OW67529   1.873  13.122   6.141
55211SOL    HW167530   1.817  13.054   6.104
55211SOL    HW267531   1.962  13.089   6.129
55212SOL     OW67532   2.974  10.185  12.575
55212SOL    HW167533   3.064  10.180  12.606
55212SOL    HW267534   2.964  10.276  12.545
55213SOL     OW67535   4.149  10.245   7.336
55213SOL    HW167536   4.234  10.232   7.295
55213SOL    HW267537   4.089  10.192   7.283
55214SOL     OW67538  10.006   5.874   6.797
55214SOL    HW167539  10.021   5.945   6.735
55214SOL    HW267540  10.071   5.807   6.773
55215SOL     OW67541   0.196   0.256   4.304
55215SOL    HW167542   0.162   0.174   4.342
55215SOL    HW267543   0.126   0.320   4.319
55216SOL     OW67544   6.485   9.896  12.754
55216SOL    HW167545   6.521   9.972  12.708
55216SOL    HW267546   6.395   9.889  12.724
55217SOL     OW67547   9.841  11.197   8.585
55217SOL    HW167548   9.886  11.221   8.666
55217SOL    HW267549   9.909  11.159   8.530
55218SOL     OW67550   2.446  13.292  10.904
55218SOL    HW167551   2.436  13.372  10.957
55218SOL    HW267552   2.433  13.322  10.814
55219SOL     OW67553   0.798  10.277   8.582
55219SOL    HW167554   0.729  10.252   8.520
55219SOL    HW267555   0.799  10.373   8.579
55220SOL     OW67556  10.226  10.433  13.646
55220SOL    HW167557  10.135  10.410  13.665
55220SOL    HW267558  10.221  10.494  13.573
55221SOL     OW67559   5.978   5.116   1.903
55221SOL    HW167560   6.027   5.086   1.825
55221SOL    HW267561   6.044   5.117   1.973
55222SOL     OW67562   5.836   5.557   9.242
55222SOL    HW167563   5.759   5.505   9.265
55222SOL    HW267564   5.811   5.603   9.162
55223SOL     OW67565   8.411   8.932   8.922
55223SOL    HW167566   8.504   8.945   8.943
55223SOL    HW267567   8.410   8.870   8.850
55224SOL     OW67568  12.084   6.529   0.270
55224SOL    HW167569  12.060   6.515   0.179
55224SOL    HW267570  12.155   6.593   0.267
55225SOL     OW67571   5.400   6.633   9.009
55225SOL    HW167572   5.388   6.720   9.047
55225SOL    HW267573   5.332   6.626   8.942
55226SOL     OW67574   6.771  14.069  12.965
55226SOL    HW167575   6.753  14.102  13.052
55226SOL    HW267576   6.822  13.989  12.979
55227SOL     OW67577   0.047   0.378   0.180
55227SOL    HW167578  14.873   0.323   0.124
55227SOL    HW267579   0.133   0.377   0.136
55228SOL     OW67580   6.485   2.908   6.112
55228SOL    HW167581   6.510   2.831   6.162
55228SOL    HW267582   6.437   2.963   6.174
55229SOL     OW67583   4.478   7.589  11.091
55229SOL    HW167584   4.510   7.594  11.001
55229SOL    HW267585   4.557   7.570  11.143
55230SOL     OW67586  14.624  11.678   2.147
55230SOL    HW167587  14.552  11.616   2.136
55230SOL    HW267588  14.695  11.625   2.183
55231SOL     OW67589  10.071   6.461   2.990
55231SOL    HW167590   9.992   6.516   2.996
55231SOL    HW267591  10.066   6.421   2.904
55232SOL     OW67592   6.619   3.624   6.674
55232SOL    HW167593   6.537   3.622   6.722
55232SOL    HW267594   6.658   3.709   6.695
55233SOL     OW67595  13.762   9.407  12.815
55233SOL    HW167596  13.746   9.492  12.774
55233SOL    HW267597  13.839   9.422  12.870
55234SOL     OW67598  10.871   4.777   3.624
55234SOL    HW167599  10.853   4.835   3.698
55234SOL    HW267600  10.850   4.690   3.657
55235SOL     OW67601   1.132   5.359   2.391
55235SOL    HW167602   1.107   5.347   2.483
55235SOL    HW267603   1.217   5.403   2.394
55236SOL     OW67604   9.152   2.158   2.341
55236SOL    HW167605   9.232   2.205   2.364
55236SOL    HW267606   9.181   2.088   2.283
55237SOL     OW67607  12.456   6.462   9.094
55237SOL    HW167608  12.488   6.521   9.026
55237SOL    HW267609  12.429   6.383   9.047
55238SOL     OW67610   6.296  14.033  14.362
55238SOL    HW167611   6.378  14.010  14.319
55238SOL    HW267612   6.287  14.127  14.348
55239SOL     OW67613   9.374   0.787   1.203
55239SOL    HW167614   9.399   0.722   1.269
55239SOL    HW267615   9.413   0.755   1.122
55240SOL     OW67616  11.687   8.235   4.039
55240SOL    HW167617  11.746   8.295   3.994
55240SOL    HW267618  11.744   8.183   4.096
55241SOL     OW67619   5.177   6.111   0.843
55241SOL    HW167620   5.206   6.188   0.892
55241SOL    HW267621   5.187   6.135   0.751
55242SOL     OW67622   7.024   7.537   5.952
55242SOL    HW167623   7.106   7.542   5.903
55242SOL    HW267624   7.051   7.543   6.044
55243SOL     OW67625   1.125   3.218   2.824
55243SOL    HW167626   1.199   3.267   2.787
55243SOL    HW267627   1.085   3.278   2.886
55244SOL     OW67628  11.080  11.041   6.081
55244SOL    HW167629  11.146  11.032   6.150
55244SOL    HW267630  11.121  11.002   6.004
55245SOL     OW67631   8.040   1.442  13.506
55245SOL    HW167632   8.110   1.460  13.442
55245SOL    HW267633   8.086   1.410  13.583
55246SOL     OW67634   4.865   1.415   7.180
55246SOL    HW167635   4.893   1.409   7.272
55246SOL    HW267636   4.824   1.501   7.173
55247SOL     OW67637   2.552   7.884  11.554
55247SOL    HW167638   2.612   7.917  11.621
55247SOL    HW267639   2.596   7.900  11.471
55248SOL     OW67640  13.169  13.683  10.645
55248SOL    HW167641  13.092  13.694  10.588
55248SOL    HW267642  13.241  13.664  10.584
55249SOL     OW67643   7.663   4.224  13.602
55249SOL    HW167644   7.695   4.248  13.689
55249SOL    HW267645   7.601   4.294  13.580
55250SOL     OW67646  13.396   2.818   3.512
55250SOL    HW167647  13.439   2.748   3.462
55250SOL    HW267648  13.351   2.771   3.583
55251SOL     OW67649   3.962  12.373   7.201
55251SOL    HW167650   4.047  12.334   7.223
55251SOL    HW267651   3.899  12.309   7.234
55252SOL     OW67652   0.221   7.375   0.670
55252SOL    HW167653   0.239   7.360   0.577
55252SOL    HW267654   0.247   7.293   0.713
55253SOL     OW67655   2.005   3.459  14.032
55253SOL    HW167656   2.063   3.491  13.963
55253SOL    HW267657   1.922   3.443  13.988
55254SOL     OW67658   8.513   7.099   6.095
55254SOL    HW167659   8.581   7.083   6.160
55254SOL    HW267660   8.467   7.176   6.128
55255SOL     OW67661  11.189   9.367  10.350
55255SOL    HW167662  11.179   9.453  10.311
55255SOL    HW267663  11.233   9.315  10.283
55256SOL     OW67664  10.748   4.727  12.757
55256SOL    HW167665  10.803   4.804  12.741
55256SOL    HW267666  10.676   4.759  12.811
55257SOL     OW67667  11.249   5.034  10.762
55257SOL    HW167668  11.263   5.022  10.668
55257SOL    HW267669  11.158   5.065  10.768
55258SOL     OW67670   7.420   5.513   5.910
55258SOL    HW167671   7.441   5.443   5.972
55258SOL    HW267672   7.461   5.591   5.947
55259SOL     OW67673   1.308   0.053  13.862
55259SOL    HW167674   1.289  14.841  13.860
55259SOL    HW267675   1.306   0.080  13.770
55260SOL     OW67676   0.198   9.863   5.623
55260SOL    HW167677   0.226   9.795   5.561
55260SOL    HW267678   0.138   9.818   5.683
55261SOL     OW67679   5.004   7.697   6.122
55261SOL    HW167680   5.092   7.674   6.155
55261SOL    HW267681   4.959   7.733   6.198
55262SOL     OW67682   2.377  13.992   7.920
55262SOL    HW167683   2.460  13.992   7.874
55262SOL    HW267684   2.343  14.081   7.910
55263SOL     OW67685   3.577  12.314  13.574
55263SOL    HW167686   3.604  12.246  13.512
55263SOL    HW267687   3.610  12.396  13.537
55264SOL     OW67688  14.416   8.336   1.732
55264SOL    HW167689  14.496   8.297   1.696
55264SOL    HW267690  14.396   8.409   1.673
55265SOL     OW67691   8.796  12.865  14.438
55265SOL    HW167692   8.889  12.880  14.454
55265SOL    HW267693   8.760  12.952  14.420
55266SOL     OW67694   9.276   8.654   2.355
55266SOL    HW167695   9.355   8.602   2.344
55266SOL    HW267696   9.302   8.725   2.413
55267SOL     OW67697   0.303  13.001   4.558
55267SOL    HW167698   0.264  13.028   4.475
55267SOL    HW267699   0.238  13.024   4.624
55268SOL     OW67700   8.843   1.181   6.088
55268SOL    HW167701   8.879   1.094   6.104
55268SOL    HW267702   8.895   1.215   6.015
55269SOL     OW67703   3.773   9.289  14.350
55269SOL    HW167704   3.683   9.259  14.337
55269SOL    HW267705   3.814   9.220  14.404
55270SOL     OW67706  14.586   5.651  14.484
55270SOL    HW167707  14.539   5.730  14.510
55270SOL    HW267708  14.676   5.667  14.513
55271SOL     OW67709   7.131  14.052   3.499
55271SOL    HW167710   7.210  14.005   3.526
55271SOL    HW267711   7.116  14.116   3.569
55272SOL     OW67712   2.920   3.951   3.052
55272SOL    HW167713   2.838   3.944   3.101
55272SOL    HW267714   2.962   3.866   3.063
55273SOL     OW67715   1.018   2.742   2.794
55273SOL    HW167716   0.970   2.769   2.716
55273SOL    HW267717   1.012   2.818   2.853
55274SOL     OW67718  11.239  11.161   7.526
55274SOL    HW167719  11.156  11.167   7.480
55274SOL    HW267720  11.267  11.070   7.513
55275SOL     OW67721  14.665  12.203   3.439
55275SOL    HW167722  14.592  12.156   3.479
55275SOL    HW267723  14.742  12.153   3.465
55276SOL     OW67724  14.446  11.085  14.383
55276SOL    HW167725  14.452  11.065  14.290
55276SOL    HW267726  14.487  11.171  14.392
55277SOL     OW67727  11.168  13.130   4.068
55277SOL    HW167728  11.240  13.129   4.131
55277SOL    HW267729  11.163  13.221   4.039
55278SOL     OW67730  13.659  13.974   2.369
55278SOL    HW167731  13.714  14.043   2.332
55278SOL    HW267732  13.687  13.894   2.326
55279SOL     OW67733   7.652  11.848   5.070
55279SOL    HW167734   7.659  11.913   5.140
55279SOL    HW267735   7.666  11.897   4.989
55280SOL     OW67736  11.773  10.954  14.062
55280SOL    HW167737  11.800  10.968  13.972
55280SOL    HW267738  11.817  10.873  14.088
55281SOL     OW67739   8.673   5.708   7.348
55281SOL    HW167740   8.617   5.634   7.325
55281SOL    HW267741   8.759   5.684   7.312
55282SOL     OW67742   9.767   1.076   2.503
55282SOL    HW167743   9.848   1.067   2.453
55282SOL    HW267744   9.701   1.101   2.437
55283SOL     OW67745   5.360   4.308   0.230
55283SOL    HW167746   5.287   4.355   0.270
55283SOL    HW267747   5.369   4.229   0.283
55284SOL     OW67748  11.567   6.802   9.154
55284SOL    HW167749  11.553   6.896   9.164
55284SOL    HW267750  11.641   6.783   9.213
55285SOL     OW67751   8.072  10.228   3.831
55285SOL    HW167752   7.976  10.222   3.827
55285SOL    HW267753   8.093  10.306   3.780
55286SOL     OW67754   6.617  10.739   6.647
55286SOL    HW167755   6.616  10.659   6.700
55286SOL    HW267756   6.594  10.709   6.559
55287SOL     OW67757   4.171   1.888   3.051
55287SOL    HW167758   4.199   1.978   3.067
55287SOL    HW267759   4.253   1.840   3.038
55288SOL     OW67760  13.105  13.188   7.163
55288SOL    HW167761  13.037  13.256   7.163
55288SOL    HW267762  13.181  13.230   7.124
55289SOL     OW67763  11.239   6.012   4.835
55289SOL    HW167764  11.214   6.048   4.920
55289SOL    HW267765  11.331   6.036   4.825
55290SOL     OW67766   7.157  12.439   6.140
55290SOL    HW167767   7.166  12.533   6.157
55290SOL    HW267768   7.126  12.402   6.222
55291SOL     OW67769   8.710  12.720   4.057
55291SOL    HW167770   8.650  12.685   3.991
55291SOL    HW267771   8.782  12.656   4.060
55292SOL     OW67772  13.074   0.866   9.471
55292SOL    HW167773  13.026   0.828   9.545
55292SOL    HW267774  13.155   0.816   9.468
55293SOL     OW67775   4.115   3.197   7.417
55293SOL    HW167776   4.048   3.195   7.349
55293SOL    HW267777   4.169   3.272   7.395
55294SOL     OW67778   8.512   8.868   3.884
55294SOL    HW167779   8.421   8.892   3.900
55294SOL    HW267780   8.536   8.816   3.961
55295SOL     OW67781  13.650  11.661   8.627
55295SOL    HW167782  13.596  11.631   8.700
55295SOL    HW267783  13.685  11.580   8.589
55296SOL     OW67784  13.182   7.320   7.577
55296SOL    HW167785  13.215   7.348   7.491
55296SOL    HW267786  13.149   7.231   7.562
55297SOL     OW67787   9.947   1.676   7.750
55297SOL    HW167788   9.989   1.721   7.823
55297SOL    HW267789   9.900   1.603   7.791
55298SOL     OW67790   0.052  13.102   5.036
55298SOL    HW167791  14.843  13.122   5.059
55298SOL    HW267792   0.081  13.042   5.104
55299SOL     OW67793   4.656   2.127  11.392
55299SOL    HW167794   4.577   2.089  11.430
55299SOL    HW267795   4.626   2.207  11.349
55300SOL     OW67796   6.970   1.359   0.755
55300SOL    HW167797   6.993   1.340   0.664
55300SOL    HW267798   6.883   1.320   0.766
55301SOL     OW67799   9.352   5.127  10.087
55301SOL    HW167800   9.397   5.195  10.036
55301SOL    HW267801   9.316   5.067  10.022
55302SOL     OW67802   6.634   3.336   7.126
55302SOL    HW167803   6.715   3.323   7.175
55302SOL    HW267804   6.660   3.330   7.034
55303SOL     OW67805   4.299   0.071  11.479
55303SOL    HW167806   4.309   0.124  11.400
55303SOL    HW267807   4.225   0.014  11.461
55304SOL     OW67808   1.335   2.500  12.743
55304SOL    HW167809   1.323   2.430  12.680
55304SOL    HW267810   1.376   2.458  12.819
55305SOL     OW67811   0.336  10.828   4.068
55305SOL    HW167812   0.415  10.775   4.055
55305SOL    HW267813   0.349  10.903   4.009
55306SOL     OW67814   5.196  14.358   8.182
55306SOL    HW167815   5.171  14.449   8.167
55306SOL    HW267816   5.195  14.317   8.096
55307SOL     OW67817   8.807   1.778  14.030
55307SOL    HW167818   8.748   1.734  14.091
55307SOL    HW267819   8.806   1.723  13.951
55308SOL     OW67820   9.861  10.213  10.089
55308SOL    HW167821   9.943  10.170  10.068
55308SOL    HW267822   9.886  10.302  10.115
55309SOL     OW67823   1.505   4.859  11.520
55309SOL    HW167824   1.467   4.830  11.603
55309SOL    HW267825   1.600   4.860  11.536
55310SOL     OW67826  10.660  11.986   9.862
55310SOL    HW167827  10.625  12.030   9.785
55310SOL    HW267828  10.697  12.056   9.915
55311SOL     OW67829   6.619   9.016  13.274
55311SOL    HW167830   6.532   8.975  13.267
55311SOL    HW267831   6.611   9.075  13.349
55312SOL     OW67832  14.555   1.285  13.160
55312SOL    HW167833  14.528   1.360  13.213
55312SOL    HW267834  14.522   1.304  13.072
55313SOL     OW67835   3.234   6.587   7.571
55313SOL    HW167836   3.278   6.596   7.655
55313SOL    HW267837   3.252   6.669   7.525
55314SOL     OW67838   6.565  11.446   6.824
55314SOL    HW167839   6.506  11.381   6.785
55314SOL    HW267840   6.647  11.435   6.777
55315SOL     OW67841   2.844   4.891   7.126
55315SOL    HW167842   2.859   4.903   7.220
55315SOL    HW267843   2.930   4.900   7.086
55316SOL     OW67844  14.700  14.027   0.398
55316SOL    HW167845  14.616  13.997   0.434
55316SOL    HW267846  14.742  13.947   0.367
55317SOL     OW67847   9.684   2.749   9.744
55317SOL    HW167848   9.637   2.677   9.788
55317SOL    HW267849   9.615   2.798   9.700
55318SOL     OW67850   3.786   5.841  12.669
55318SOL    HW167851   3.721   5.789  12.621
55318SOL    HW267852   3.821   5.780  12.734
55319SOL     OW67853   7.252   3.504  14.123
55319SOL    HW167854   7.324   3.471  14.177
55319SOL    HW267855   7.243   3.440  14.053
55320SOL     OW67856   3.501   5.429   9.629
55320SOL    HW167857   3.418   5.398   9.593
55320SOL    HW267858   3.477   5.473   9.711
55321SOL     OW67859   2.559  13.559   0.997
55321SOL    HW167860   2.519  13.477   1.027
55321SOL    HW267861   2.619  13.533   0.928
55322SOL     OW67862   4.051   2.385  13.610
55322SOL    HW167863   4.081   2.310  13.558
55322SOL    HW267864   3.966   2.358  13.644
55323SOL     OW67865   7.394   4.729   3.627
55323SOL    HW167866   7.388   4.645   3.674
55323SOL    HW267867   7.389   4.705   3.534
55324SOL     OW67868   9.080   1.223   4.757
55324SOL    HW167869   9.072   1.185   4.670
55324SOL    HW267870   9.008   1.184   4.808
55325SOL     OW67871   3.220   8.594  14.337
55325SOL    HW167872   3.219   8.510  14.291
55325SOL    HW267873   3.300   8.591  14.390
55326SOL     OW67874  13.334  11.617   5.545
55326SOL    HW167875  13.238  11.611   5.547
55326SOL    HW267876  13.351  11.711   5.540
55327SOL     OW67877   3.904   5.517   5.516
55327SOL    HW167878   3.958   5.595   5.503
55327SOL    HW267879   3.913   5.468   5.434
55328SOL     OW67880  11.095   8.759   0.417
55328SOL    HW167881  11.172   8.719   0.457
55328SOL    HW267882  11.042   8.685   0.388
55329SOL     OW67883   5.359  14.822   3.478
55329SOL    HW167884   5.454  14.825   3.475
55329SOL    HW267885   5.339  14.780   3.562
55330SOL     OW67886  11.336   2.634  14.052
55330SOL    HW167887  11.404   2.592  14.104
55330SOL    HW267888  11.346   2.728  14.069
55331SOL     OW67889   4.937   1.255   2.823
55331SOL    HW167890   4.896   1.267   2.737
55331SOL    HW267891   4.971   1.342   2.845
55332SOL     OW67892   4.609   8.210   0.761
55332SOL    HW167893   4.607   8.240   0.670
55332SOL    HW267894   4.702   8.195   0.780
55333SOL     OW67895   7.355  11.276   2.259
55333SOL    HW167896   7.302  11.342   2.303
55333SOL    HW267897   7.327  11.280   2.167
55334SOL     OW67898   7.426  13.339   2.898
55334SOL    HW167899   7.421  13.263   2.955
55334SOL    HW267900   7.336  13.371   2.893
55335SOL     OW67901  13.358   3.263   2.670
55335SOL    HW167902  13.321   3.242   2.756
55335SOL    HW267903  13.440   3.310   2.690
55336SOL     OW67904  10.419   8.143   9.937
55336SOL    HW167905  10.376   8.226   9.915
55336SOL    HW267906  10.469   8.121   9.858
55337SOL     OW67907   8.667  13.251   5.180
55337SOL    HW167908   8.587  13.222   5.135
55337SOL    HW267909   8.638  13.321   5.238
55338SOL     OW67910  13.280   6.099   0.664
55338SOL    HW167911  13.260   6.180   0.711
55338SOL    HW267912  13.297   6.127   0.574
55339SOL     OW67913  10.181   2.735   9.447
55339SOL    HW167914  10.097   2.711   9.406
55339SOL    HW267915  10.246   2.689   9.395
55340SOL     OW67916  14.874   3.394   9.118
55340SOL    HW167917  14.881   3.459   9.048
55340SOL    HW267918   0.067   3.411   9.174
55341SOL     OW67919   5.308   3.318   2.174
55341SOL    HW167920   5.218   3.338   2.199
55341SOL    HW267921   5.329   3.237   2.221
55342SOL     OW67922   7.089  11.847   9.752
55342SOL    HW167923   7.131  11.780   9.699
55342SOL    HW267924   7.017  11.801   9.796
55343SOL     OW67925  10.459  11.094   3.214
55343SOL    HW167926  10.426  11.010   3.246
55343SOL    HW267927  10.550  11.076   3.191
55344SOL     OW67928   9.049   7.494   1.273
55344SOL    HW167929   8.960   7.477   1.304
55344SOL    HW267930   9.102   7.494   1.353
55345SOL     OW67931   5.632  14.024  11.518
55345SOL    HW167932   5.684  14.014  11.598
55345SOL    HW267933   5.664  14.105  11.479
55346SOL     OW67934   1.833   0.816  13.382
55346SOL    HW167935   1.770   0.887  13.369
55346SOL    HW267936   1.898   0.852  13.443
55347SOL     OW67937   9.850   9.692   1.064
55347SOL    HW167938   9.938   9.658   1.077
55347SOL    HW267939   9.806   9.679   1.147
55348SOL     OW67940  13.586  11.463   4.136
55348SOL    HW167941  13.586  11.379   4.182
55348SOL    HW267942  13.587  11.440   4.043
55349SOL     OW67943  11.102   3.039   4.179
55349SOL    HW167944  11.076   2.954   4.216
55349SOL    HW267945  11.177   3.018   4.123
55350SOL     OW67946   5.218   7.636   0.880
55350SOL    HW167947   5.210   7.655   0.973
55350SOL    HW267948   5.128   7.638   0.847
55351SOL     OW67949   1.504   8.323  10.461
55351SOL    HW167950   1.461   8.290  10.539
55351SOL    HW267951   1.591   8.350  10.491
55352SOL     OW67952   4.505   1.712  10.739
55352SOL    HW167953   4.462   1.766  10.804
55352SOL    HW267954   4.465   1.737  10.656
55353SOL     OW67955   5.835   7.181   4.961
55353SOL    HW167956   5.883   7.107   4.925
55353SOL    HW267957   5.746   7.171   4.927
55354SOL     OW67958  10.240  13.752   2.776
55354SOL    HW167959  10.169  13.689   2.760
55354SOL    HW267960  10.275  13.771   2.690
55355SOL     OW67961   1.751   1.426   6.095
55355SOL    HW167962   1.701   1.380   6.027
55355SOL    HW267963   1.800   1.493   6.047
55356SOL     OW67964   3.665   8.964  12.477
55356SOL    HW167965   3.723   9.010  12.538
55356SOL    HW267966   3.711   8.883  12.456
55357SOL     OW67967  11.241   0.893  12.710
55357SOL    HW167968  11.220   0.985  12.730
55357SOL    HW267969  11.215   0.882  12.619
55358SOL     OW67970   2.304   0.255  11.458
55358SOL    HW167971   2.335   0.234  11.370
55358SOL    HW267972   2.383   0.278  11.507
55359SOL     OW67973  14.587   6.591   7.420
55359SOL    HW167974  14.661   6.530   7.416
55359SOL    HW267975  14.531   6.566   7.346
55360SOL     OW67976  10.509   1.642   5.574
55360SOL    HW167977  10.419   1.610   5.579
55360SOL    HW267978  10.558   1.571   5.532
55361SOL     OW67979  10.027  11.752   7.735
55361SOL    HW167980  10.054  11.663   7.756
55361SOL    HW267981  10.087  11.779   7.665
55362SOL     OW67982   2.835  12.541   6.162
55362SOL    HW167983   2.891  12.565   6.236
55362SOL    HW267984   2.889  12.558   6.085
55363SOL     OW67985   1.623   8.590   1.137
55363SOL    HW167986   1.664   8.676   1.132
55363SOL    HW267987   1.540   8.600   1.090
55364SOL     OW67988   6.258  11.588   4.003
55364SOL    HW167989   6.223  11.677   3.993
55364SOL    HW267990   6.249  11.569   4.096
55365SOL     OW67991   1.530  10.863   7.744
55365SOL    HW167992   1.500  10.819   7.824
55365SOL    HW267993   1.610  10.816   7.720
55366SOL     OW67994   6.732   8.927   5.666
55366SOL    HW167995   6.714   8.990   5.736
55366SOL    HW267996   6.652   8.875   5.658
55367SOL     OW67997  13.946   5.107   4.144
55367SOL    HW167998  13.930   5.201   4.133
55367SOL    HW267999  13.863   5.072   4.175
55368SOL     OW68000  13.237   5.768   1.328
55368SOL    HW168001  13.219   5.752   1.236
55368SOL    HW268002  13.152   5.762   1.371
55369SOL     OW68003  11.981   7.085  10.796
55369SOL    HW168004  12.069   7.091  10.759
55369SOL    HW268005  11.989   7.123  10.883
55370SOL     OW68006   8.794   6.472   1.564
55370SOL    HW168007   8.823   6.519   1.486
55370SOL    HW268008   8.806   6.533   1.636
55371SOL     OW68009   8.355  11.412   0.895
55371SOL    HW168010   8.409  11.400   0.817
55371SOL    HW268011   8.268  11.383   0.868
55372SOL     OW68012  14.664   7.563   0.969
55372SOL    HW168013  14.720   7.566   0.891
55372SOL    HW268014  14.646   7.655   0.988
55373SOL     OW68015  12.141  12.965   8.311
55373SOL    HW168016  12.080  13.014   8.367
55373SOL    HW268017  12.142  12.877   8.349
55374SOL     OW68018   1.316   5.175  10.894
55374SOL    HW168019   1.295   5.181  10.988
55374SOL    HW268020   1.383   5.241  10.880
55375SOL     OW68021   1.963   1.002   1.721
55375SOL    HW168022   2.054   0.973   1.714
55375SOL    HW268023   1.911   0.925   1.698
55376SOL     OW68024   7.752   7.091   5.746
55376SOL    HW168025   7.830   7.099   5.691
55376SOL    HW268026   7.768   7.151   5.819
55377SOL     OW68027  13.394   8.272   4.902
55377SOL    HW168028  13.320   8.233   4.856
55377SOL    HW268029  13.459   8.288   4.833
55378SOL     OW68030   1.539   8.951  12.338
55378SOL    HW168031   1.459   8.906  12.365
55378SOL    HW268032   1.592   8.883  12.295
55379SOL     OW68033   2.241   6.194  14.203
55379SOL    HW168034   2.298   6.135  14.254
55379SOL    HW268035   2.232   6.150  14.118
55380SOL     OW68036  12.507   3.657   9.187
55380SOL    HW168037  12.572   3.721   9.214
55380SOL    HW268038  12.541   3.623   9.103
55381SOL     OW68039   9.232   5.387   5.125
55381SOL    HW168040   9.197   5.438   5.198
55381SOL    HW268041   9.165   5.320   5.109
55382SOL     OW68042  12.791  11.273   7.848
55382SOL    HW168043  12.853  11.204   7.826
55382SOL    HW268044  12.785  11.271   7.943
55383SOL     OW68045  11.312   9.636  10.698
55383SOL    HW168046  11.318   9.550  10.738
55383SOL    HW268047  11.355   9.626  10.613
55384SOL     OW68048   0.095   8.618  14.252
55384SOL    HW168049   0.073   8.532  14.215
55384SOL    HW268050   0.093   8.605  14.346
55385SOL     OW68051   8.444   7.553  10.664
55385SOL    HW168052   8.395   7.634  10.647
55385SOL    HW268053   8.390   7.484  10.628
55386SOL     OW68054  14.722   5.099   6.847
55386SOL    HW168055  14.742   5.180   6.893
55386SOL    HW268056  14.675   5.127   6.768
55387SOL     OW68057   0.839  14.772   9.006
55387SOL    HW168058   0.772  14.722   9.052
55387SOL    HW268059   0.919  14.720   9.018
55388SOL     OW68060   2.183   2.056   4.871
55388SOL    HW168061   2.215   1.974   4.907
55388SOL    HW268062   2.195   2.119   4.943
55389SOL     OW68063  12.157   5.303  13.354
55389SOL    HW168064  12.085   5.255  13.313
55389SOL    HW268065  12.184   5.366  13.287
55390SOL     OW68066   4.894   8.945  10.446
55390SOL    HW168067   4.854   9.030  10.462
55390SOL    HW268068   4.988   8.961  10.446
55391SOL     OW68069   8.108   2.894  14.769
55391SOL    HW168070   8.122   2.956  14.697
55391SOL    HW268071   8.056   2.942  14.833
55392SOL     OW68072   4.502  14.238  13.290
55392SOL    HW168073   4.422  14.187  13.306
55392SOL    HW268074   4.509  14.242  13.195
55393SOL     OW68075   9.205   3.874   7.969
55393SOL    HW168076   9.179   3.964   7.989
55393SOL    HW268077   9.137   3.820   8.009
55394SOL     OW68078  13.120  12.569   0.027
55394SOL    HW168079  13.132  12.642  14.848
55394SOL    HW268080  13.195  12.573   0.086
55395SOL     OW68081   5.434  11.804   8.402
55395SOL    HW168082   5.431  11.710   8.385
55395SOL    HW268083   5.371  11.818   8.472
55396SOL     OW68084   0.620  11.561   9.842
55396SOL    HW168085   0.536  11.556   9.798
55396SOL    HW268086   0.682  11.522   9.780
55397SOL     OW68087  14.580   3.341   9.126
55397SOL    HW168088  14.528   3.419   9.105
55397SOL    HW268089  14.669   3.364   9.101
55398SOL     OW68090   5.233   3.266   0.127
55398SOL    HW168091   5.217   3.220   0.210
55398SOL    HW268092   5.315   3.313   0.141
55399SOL     OW68093  12.843  12.409   0.607
55399SOL    HW168094  12.900  12.441   0.677
55399SOL    HW268095  12.760  12.389   0.650
55400SOL     OW68096   1.991   4.357  13.006
55400SOL    HW168097   1.956   4.361  13.095
55400SOL    HW268098   1.933   4.297  12.960
55401SOL     OW68099   8.518   0.390   9.589
55401SOL    HW168100   8.529   0.326   9.518
55401SOL    HW268101   8.525   0.339   9.669
55402SOL     OW68102   5.805   2.380   8.869
55402SOL    HW168103   5.820   2.432   8.791
55402SOL    HW268104   5.748   2.309   8.841
55403SOL     OW68105   7.119  10.527   9.392
55403SOL    HW168106   7.208  10.508   9.363
55403SOL    HW268107   7.114  10.623   9.394
55404SOL     OW68108   9.152   4.757   2.371
55404SOL    HW168109   9.144   4.802   2.286
55404SOL    HW268110   9.170   4.827   2.434
55405SOL     OW68111   7.675  10.667  10.016
55405SOL    HW168112   7.667  10.613  10.095
55405SOL    HW268113   7.755  10.636   9.974
55406SOL     OW68114   0.036  12.330   7.882
55406SOL    HW168115   0.041  12.303   7.790
55406SOL    HW268116   0.024  12.425   7.878
55407SOL     OW68117  12.016   0.460   1.870
55407SOL    HW168118  12.085   0.399   1.894
55407SOL    HW268119  11.966   0.473   1.951
55408SOL     OW68120   9.468   5.927   4.601
55408SOL    HW168121   9.449   5.855   4.541
55408SOL    HW268122   9.407   5.915   4.673
55409SOL     OW68123   1.769  10.682   7.031
55409SOL    HW168124   1.739  10.606   7.081
55409SOL    HW268125   1.759  10.756   7.090
55410SOL     OW68126   1.634  13.375   2.135
55410SOL    HW168127   1.590  13.346   2.215
55410SOL    HW268128   1.648  13.295   2.085
55411SOL     OW68129   5.995   4.476   5.500
55411SOL    HW168130   6.038   4.547   5.546
55411SOL    HW268131   5.901   4.495   5.507
55412SOL     OW68132   9.033  12.106  14.006
55412SOL    HW168133   9.090  12.049  14.058
55412SOL    HW268134   9.035  12.068  13.918
55413SOL     OW68135  13.306   2.439   2.514
55413SOL    HW168136  13.308   2.469   2.423
55413SOL    HW268137  13.392   2.463   2.549
55414SOL     OW68138   2.410   7.659   2.792
55414SOL    HW168139   2.481   7.706   2.836
55414SOL    HW268140   2.344   7.726   2.774
55415SOL     OW68141  10.527   4.327   5.014
55415SOL    HW168142  10.478   4.359   4.938
55415SOL    HW268143  10.460   4.315   5.081
55416SOL     OW68144   1.771  12.716   7.575
55416SOL    HW168145   1.759  12.808   7.599
55416SOL    HW268146   1.772  12.716   7.479
55417SOL     OW68147   7.642   4.225  10.203
55417SOL    HW168148   7.665   4.133  10.216
55417SOL    HW268149   7.725   4.272  10.215
55418SOL     OW68150   0.833   6.350  10.307
55418SOL    HW168151   0.786   6.284  10.357
55418SOL    HW268152   0.916   6.361  10.352
55419SOL     OW68153   5.883  11.316   2.064
55419SOL    HW168154   5.891  11.401   2.107
55419SOL    HW268155   5.832  11.334   1.985
55420SOL     OW68156   3.731   3.736   8.197
55420SOL    HW168157   3.795   3.682   8.149
55420SOL    HW268158   3.743   3.824   8.162
55421SOL     OW68159  11.719   0.583   3.957
55421SOL    HW168160  11.641   0.528   3.947
55421SOL    HW268161  11.749   0.598   3.868
55422SOL     OW68162   3.218  10.758  13.811
55422SOL    HW168163   3.210  10.853  13.818
55422SOL    HW268164   3.258  10.731  13.894
55423SOL     OW68165  10.039   2.737   9.167
55423SOL    HW168166  10.008   2.647   9.180
55423SOL    HW268167  10.009   2.784   9.245
55424SOL     OW68168   8.642  10.863   4.470
55424SOL    HW168169   8.547  10.877   4.467
55424SOL    HW268170   8.678  10.949   4.492
55425SOL     OW68171   8.643   1.326  11.073
55425SOL    HW168172   8.737   1.310  11.063
55425SOL    HW268173   8.637   1.413  11.114
55426SOL     OW68174   0.972   5.918  10.272
55426SOL    HW168175   1.050   5.866  10.252
55426SOL    HW268176   0.990   6.003  10.232
55427SOL     OW68177  10.157  11.227  11.235
55427SOL    HW168178  10.161  11.230  11.140
55427SOL    HW268179  10.198  11.308  11.264
55428SOL     OW68180   5.822   5.839  14.671
55428SOL    HW168181   5.756   5.887  14.621
55428SOL    HW268182   5.855   5.772  14.611
55429SOL     OW68183  14.498   3.262   5.486
55429SOL    HW168184  14.429   3.294   5.428
55429SOL    HW268185  14.452   3.237   5.566
55430SOL     OW68186   8.579   2.335   3.722
55430SOL    HW168187   8.497   2.287   3.718
55430SOL    HW268188   8.571   2.403   3.655
55431SOL     OW68189   3.287   9.204   0.627
55431SOL    HW168190   3.350   9.199   0.554
55431SOL    HW268191   3.203   9.222   0.584
55432SOL     OW68192   2.671   7.488   7.665
55432SOL    HW168193   2.665   7.468   7.759
55432SOL    HW268194   2.718   7.414   7.628
55433SOL     OW68195   4.630   8.607  10.706
55433SOL    HW168196   4.577   8.667  10.757
55433SOL    HW268197   4.644   8.652  10.622
55434SOL     OW68198  14.058  13.025   0.400
55434SOL    HW168199  14.119  13.010   0.473
55434SOL    HW268200  14.051  12.941   0.357
55435SOL     OW68201  14.383   1.994   4.998
55435SOL    HW168202  14.397   1.927   5.065
55435SOL    HW268203  14.312   1.959   4.944
55436SOL     OW68204   5.868   9.632  12.021
55436SOL    HW168205   5.865   9.539  12.043
55436SOL    HW268206   5.910   9.635  11.935
55437SOL     OW68207   2.870  12.204  10.551
55437SOL    HW168208   2.830  12.284  10.587
55437SOL    HW268209   2.884  12.224  10.459
55438SOL     OW68210   6.050   6.408   6.643
55438SOL    HW168211   6.008   6.324   6.626
55438SOL    HW268212   6.063   6.446   6.556
55439SOL     OW68213   2.488   3.680   9.747
55439SOL    HW168214   2.435   3.723   9.680
55439SOL    HW268215   2.512   3.595   9.708
55440SOL     OW68216   3.328  13.922   7.652
55440SOL    HW168217   3.306  13.862   7.581
55440SOL    HW268218   3.279  14.001   7.633
55441SOL     OW68219   1.237   6.542  14.873
55441SOL    HW168220   1.167   6.546   0.057
55441SOL    HW268221   1.207   6.477  14.810
55442SOL     OW68222   3.751   5.969   2.033
55442SOL    HW168223   3.830   5.935   1.991
55442SOL    HW268224   3.768   5.961   2.127
55443SOL     OW68225  14.343  10.584  14.493
55443SOL    HW168226  14.281  10.554  14.426
55443SOL    HW268227  14.399  10.646  14.447
55444SOL     OW68228  11.860   5.489   3.156
55444SOL    HW168229  11.858   5.554   3.227
55444SOL    HW268230  11.845   5.405   3.199
55445SOL     OW68231  14.199   6.019  12.909
55445SOL    HW168232  14.206   6.077  12.985
55445SOL    HW268233  14.173   6.076  12.837
55446SOL     OW68234   4.926   9.732   1.360
55446SOL    HW168235   4.881   9.666   1.411
55446SOL    HW268236   5.008   9.747   1.407
55447SOL     OW68237  13.326   9.657  11.919
55447SOL    HW168238  13.262   9.728  11.911
55447SOL    HW268239  13.366   9.670  12.005
55448SOL     OW68240   0.095  10.709   2.806
55448SOL    HW168241   0.017  10.729   2.857
55448SOL    HW268242   0.100  10.613   2.805
55449SOL     OW68243   1.516   3.009  10.598
55449SOL    HW168244   1.432   3.047  10.625
55449SOL    HW268245   1.545   3.063  10.525
55450SOL     OW68246   7.490   6.719  11.753
55450SOL    HW168247   7.550   6.658  11.711
55450SOL    HW268248   7.508   6.711  11.846
55451SOL     OW68249   4.691   4.264   5.289
55451SOL    HW168250   4.636   4.283   5.365
55451SOL    HW268251   4.747   4.192   5.317
55452SOL     OW68252   0.233  11.773   3.657
55452SOL    HW168253   0.325  11.746   3.656
55452SOL    HW268254   0.206  11.771   3.565
55453SOL     OW68255   9.313  13.396   6.088
55453SOL    HW168256   9.237  13.402   6.030
55453SOL    HW268257   9.384  13.438   6.039
55454SOL     OW68258   3.873   4.965  10.193
55454SOL    HW168259   3.792   5.008  10.164
55454SOL    HW268260   3.923   4.951  10.112
55455SOL     OW68261  13.207  11.836  11.893
55455SOL    HW168262  13.262  11.762  11.920
55455SOL    HW268263  13.216  11.838  11.797
55456SOL     OW68264   6.794   1.884   3.394
55456SOL    HW168265   6.845   1.837   3.329
55456SOL    HW268266   6.858   1.934   3.444
55457SOL     OW68267  12.457   9.226   2.832
55457SOL    HW168268  12.545   9.262   2.820
55457SOL    HW268269  12.466   9.133   2.814
55458SOL     OW68270   5.093   9.815   4.968
55458SOL    HW168271   5.016   9.843   4.917
55458SOL    HW268272   5.166   9.860   4.925
55459SOL     OW68273  13.508   1.434   2.882
55459SOL    HW168274  13.486   1.385   2.803
55459SOL    HW268275  13.546   1.516   2.849
55460SOL     OW68276   8.405  14.386   5.041
55460SOL    HW168277   8.374  14.301   5.073
55460SOL    HW268278   8.392  14.445   5.114
55461SOL     OW68279  13.844   0.686  11.591
55461SOL    HW168280  13.818   0.764  11.541
55461SOL    HW268281  13.794   0.694  11.673
55462SOL     OW68282  10.463   6.968   2.644
55462SOL    HW168283  10.417   7.051   2.658
55462SOL    HW268284  10.393   6.905   2.625
55463SOL     OW68285   2.376  12.270  14.135
55463SOL    HW168286   2.414  12.341  14.186
55463SOL    HW268287   2.416  12.278  14.048
55464SOL     OW68288   9.025   1.421   5.402
55464SOL    HW168289   9.098   1.386   5.351
55464SOL    HW268290   8.970   1.465   5.337
55465SOL     OW68291   4.798  10.871   2.052
55465SOL    HW168292   4.734  10.940   2.070
55465SOL    HW268293   4.764  10.795   2.100
55466SOL     OW68294  12.525   0.141   3.050
55466SOL    HW168295  12.606   0.095   3.028
55466SOL    HW268296  12.512   0.125   3.143
55467SOL     OW68297   0.769   8.817  10.481
55467SOL    HW168298   0.833   8.802  10.412
55467SOL    HW268299   0.804   8.770  10.557
55468SOL     OW68300   3.445   5.954   3.147
55468SOL    HW168301   3.387   6.008   3.094
55468SOL    HW268302   3.456   5.873   3.095
55469SOL     OW68303   3.084  11.969   8.405
55469SOL    HW168304   3.118  11.943   8.491
55469SOL    HW268305   3.134  12.047   8.382
55470SOL     OW68306  14.550   9.541   3.016
55470SOL    HW168307  14.625   9.509   3.066
55470SOL    HW268308  14.474   9.501   3.059
55471SOL     OW68309   7.376   4.832   5.697
55471SOL    HW168310   7.430   4.826   5.618
55471SOL    HW268311   7.424   4.780   5.762
55472SOL     OW68312  14.679  10.342   9.207
55472SOL    HW168313  14.715  10.276   9.267
55472SOL    HW268314  14.686  10.424   9.256
55473SOL     OW68315   1.351   0.453   2.276
55473SOL    HW168316   1.355   0.405   2.193
55473SOL    HW268317   1.443   0.472   2.297
55474SOL     OW68318  12.315   8.990   1.910
55474SOL    HW168319  12.314   9.029   1.998
55474SOL    HW268320  12.246   8.923   1.913
55475SOL     OW68321   3.983   1.777   3.267
55475SOL    HW168322   3.894   1.804   3.247
55475SOL    HW268323   4.031   1.789   3.184
55476SOL     OW68324   5.608  12.930  12.898
55476SOL    HW168325   5.514  12.915  12.890
55476SOL    HW268326   5.617  13.025  12.902
55477SOL     OW68327   8.402   6.994  11.371
55477SOL    HW168328   8.382   6.943  11.449
55477SOL    HW268329   8.327   6.982  11.314
55478SOL     OW68330   1.074  12.192  11.754
55478SOL    HW168331   1.043  12.282  11.762
55478SOL    HW268332   1.169  12.200  11.745
55479SOL     OW68333   6.169   8.599   3.530
55479SOL    HW168334   6.258   8.621   3.503
55479SOL    HW268335   6.115   8.667   3.491
55480SOL     OW68336   2.418  11.029   4.732
55480SOL    HW168337   2.362  11.052   4.805
55480SOL    HW268338   2.497  11.082   4.745
55481SOL     OW68339   2.490   2.788   2.407
55481SOL    HW168340   2.483   2.865   2.350
55481SOL    HW268341   2.494   2.825   2.496
55482SOL     OW68342   1.050  13.594  10.484
55482SOL    HW168343   0.981  13.548  10.437
55482SOL    HW268344   1.009  13.621  10.567
55483SOL     OW68345  11.973   9.056   0.191
55483SOL    HW168346  12.008   8.971   0.216
55483SOL    HW268347  12.004   9.116   0.259
55484SOL     OW68348  12.458  11.683   0.196
55484SOL    HW168349  12.390  11.696   0.262
55484SOL    HW268350  12.420  11.718   0.115
55485SOL     OW68351  11.258  13.912   3.696
55485SOL    HW168352  11.317  13.845   3.660
55485SOL    HW268353  11.245  13.973   3.624
55486SOL     OW68354   2.729  14.460  13.979
55486SOL    HW168355   2.658  14.523  13.993
55486SOL    HW268356   2.787  14.504  13.916
55487SOL     OW68357  10.993   1.922   3.595
55487SOL    HW168358  11.044   1.977   3.536
55487SOL    HW268359  10.980   1.840   3.547
55488SOL     OW68360   4.692   2.922   5.158
55488SOL    HW168361   4.736   2.838   5.140
55488SOL    HW268362   4.676   2.960   5.072
55489SOL     OW68363   9.200   8.255  13.549
55489SOL    HW168364   9.274   8.196  13.533
55489SOL    HW268365   9.125   8.210  13.510
55490SOL     OW68366   5.898   2.333   6.400
55490SOL    HW168367   5.987   2.321   6.432
55490SOL    HW268368   5.843   2.332   6.478
55491SOL     OW68369   9.924   4.112   8.891
55491SOL    HW168370   9.959   4.049   8.954
55491SOL    HW268371   9.947   4.075   8.805
55492SOL     OW68372   1.084   4.261   4.175
55492SOL    HW168373   1.108   4.180   4.131
55492SOL    HW268374   1.003   4.289   4.132
55493SOL     OW68375   1.277   7.397   3.698
55493SOL    HW168376   1.240   7.328   3.753
55493SOL    HW268377   1.218   7.404   3.624
55494SOL     OW68378   3.847   8.555   9.279
55494SOL    HW168379   3.815   8.509   9.357
55494SOL    HW268380   3.772   8.557   9.220
55495SOL     OW68381  13.551   8.336   3.977
55495SOL    HW168382  13.469   8.354   4.024
55495SOL    HW268383  13.596   8.420   3.975
55496SOL     OW68384   6.889   8.986  11.596
55496SOL    HW168385   6.896   8.891  11.595
55496SOL    HW268386   6.856   9.007  11.683
55497SOL     OW68387   2.121  10.658   1.221
55497SOL    HW168388   2.192  10.605   1.257
55497SOL    HW268389   2.046  10.637   1.277
55498SOL     OW68390   2.471   1.253   0.314
55498SOL    HW168391   2.376   1.243   0.304
55498SOL    HW268392   2.492   1.205   0.394
55499SOL     OW68393   0.259   6.842   5.023
55499SOL    HW168394   0.280   6.752   5.049
55499SOL    HW268395   0.170   6.837   4.989
55500SOL     OW68396  11.960  12.689   5.892
55500SOL    HW168397  11.951  12.594   5.877
55500SOL    HW268398  11.970  12.697   5.987
55501SOL     OW68399   2.900  13.049   6.522
55501SOL    HW168400   2.821  12.999   6.503
55501SOL    HW268401   2.868  13.136   6.544
55502SOL     OW68402   5.080  11.904  13.410
55502SOL    HW168403   5.105  11.842  13.342
55502SOL    HW268404   5.055  11.983  13.362
55503SOL     OW68405   1.488  12.933   7.731
55503SOL    HW168406   1.450  12.916   7.817
55503SOL    HW268407   1.438  12.878   7.672
55504SOL     OW68408   4.972   8.810   3.140
55504SOL    HW168409   5.054   8.770   3.113
55504SOL    HW268410   4.974   8.898   3.102
55505SOL     OW68411   2.128   4.140  11.346
55505SOL    HW168412   2.165   4.228  11.351
55505SOL    HW268413   2.136   4.105  11.435
55506SOL     OW68414  12.343   3.728  14.318
55506SOL    HW168415  12.317   3.643  14.355
55506SOL    HW268416  12.399   3.705  14.244
55507SOL     OW68417   3.791   3.466   6.765
55507SOL    HW168418   3.824   3.392   6.816
55507SOL    HW268419   3.702   3.480   6.797
55508SOL     OW68420   0.153   0.151  10.964
55508SOL    HW168421   0.155   0.158  10.869
55508SOL    HW268422   0.237   0.186  10.992
55509SOL     OW68423   8.788   8.009  14.175
55509SOL    HW168424   8.880   8.034  14.179
55509SOL    HW268425   8.741   8.086  14.208
55510SOL     OW68426   7.136   7.507   0.340
55510SOL    HW168427   7.104   7.455   0.414
55510SOL    HW268428   7.229   7.519   0.358
55511SOL     OW68429  11.893  13.928  13.331
55511SOL    HW168430  11.974  13.978  13.319
55511SOL    HW268431  11.825  13.985  13.297
55512SOL     OW68432   2.005  11.354  12.369
55512SOL    HW168433   1.984  11.288  12.303
55512SOL    HW268434   2.099  11.341  12.387
55513SOL     OW68435   5.795  11.064  13.176
55513SOL    HW168436   5.768  11.093  13.263
55513SOL    HW268437   5.887  11.038  13.187
55514SOL     OW68438   9.130   4.502   0.894
55514SOL    HW168439   9.065   4.540   0.836
55514SOL    HW268440   9.134   4.410   0.868
55515SOL     OW68441   8.675   1.595   9.472
55515SOL    HW168442   8.641   1.676   9.511
55515SOL    HW268443   8.747   1.570   9.530
55516SOL     OW68444  14.568   4.451   9.959
55516SOL    HW168445  14.481   4.430   9.924
55516SOL    HW268446  14.549   4.502  10.038
55517SOL     OW68447  11.128   0.004  10.599
55517SOL    HW168448  11.109  14.805  10.646
55517SOL    HW268449  11.063   0.006  10.528
55518SOL     OW68450  13.235  12.076  10.247
55518SOL    HW168451  13.264  11.988  10.271
55518SOL    HW268452  13.149  12.084  10.288
55519SOL     OW68453   7.628   3.781   8.429
55519SOL    HW168454   7.588   3.717   8.370
55519SOL    HW268455   7.553   3.821   8.473
55520SOL     OW68456  12.461  13.397   0.331
55520SOL    HW168457  12.512  13.372   0.254
55520SOL    HW268458  12.509  13.360   0.405
55521SOL     OW68459  14.675   9.920  11.397
55521SOL    HW168460  14.674   9.827  11.376
55521SOL    HW268461  14.603   9.957  11.346
55522SOL     OW68462  13.658   8.253   4.314
55522SOL    HW168463  13.569   8.288   4.320
55522SOL    HW268464  13.678   8.258   4.220
55523SOL     OW68465   7.362   3.490   6.169
55523SOL    HW168466   7.429   3.519   6.107
55523SOL    HW268467   7.393   3.405   6.199
55524SOL     OW68468  14.637   3.072  10.475
55524SOL    HW168469  14.585   3.071  10.395
55524SOL    HW268470  14.591   3.012  10.534
55525SOL     OW68471   4.786  14.524   6.812
55525SOL    HW168472   4.840  14.601   6.795
55525SOL    HW268473   4.786  14.475   6.730
55526SOL     OW68474   0.561   8.661  11.312
55526SOL    HW168475   0.504   8.608  11.368
55526SOL    HW268476   0.615   8.711  11.374
55527SOL     OW68477   4.927   4.438  10.876
55527SOL    HW168478   4.863   4.370  10.894
55527SOL    HW268479   4.876   4.519  10.871
55528SOL     OW68480   2.643  14.856   6.178
55528SOL    HW168481   2.652   0.042   6.244
55528SOL    HW268482   2.558  14.874   6.137
55529SOL     OW68483  12.978   0.461   1.914
55529SOL    HW168484  13.004   0.369   1.914
55529SOL    HW268485  12.958   0.481   2.006
55530SOL     OW68486   0.678  10.021  12.845
55530SOL    HW168487   0.762   9.997  12.883
55530SOL    HW268488   0.672  10.115  12.858
55531SOL     OW68489  14.821  10.831   2.169
55531SOL    HW168490  14.842  10.917   2.131
55531SOL    HW268491  14.864  10.768   2.111
55532SOL     OW68492  11.021  10.740   5.600
55532SOL    HW168493  11.072  10.675   5.647
55532SOL    HW268494  11.081  10.776   5.535
55533SOL     OW68495   0.945   9.936  14.743
55533SOL    HW168496   0.881   9.988  14.694
55533SOL    HW268497   1.015   9.999  14.763
55534SOL     OW68498   9.059  12.418   3.574
55534SOL    HW168499   9.043  12.439   3.482
55534SOL    HW268500   9.153  12.434   3.586
55535SOL     OW68501  12.499   7.074   0.090
55535SOL    HW168502  12.565   7.089   0.158
55535SOL    HW268503  12.550   7.045   0.014
55536SOL     OW68504   8.052   5.860   6.023
55536SOL    HW168505   8.075   5.778   5.980
55536SOL    HW268506   8.121   5.921   5.998
55537SOL     OW68507   7.031   7.948  12.408
55537SOL    HW168508   6.999   7.952  12.318
55537SOL    HW268509   6.955   7.917  12.458
55538SOL     OW68510  11.121   7.286  13.458
55538SOL    HW168511  11.111   7.191  13.455
55538SOL    HW268512  11.191   7.302  13.521
55539SOL     OW68513  14.294  12.270  13.044
55539SOL    HW168514  14.356  12.275  12.971
55539SOL    HW268515  14.348  12.272  13.123
55540SOL     OW68516  13.159   8.739   9.618
55540SOL    HW168517  13.180   8.809   9.680
55540SOL    HW268518  13.105   8.782   9.551
55541SOL     OW68519  11.306   4.827   5.402
55541SOL    HW168520  11.291   4.850   5.310
55541SOL    HW268521  11.356   4.745   5.398
55542SOL     OW68522   6.286   3.383   4.753
55542SOL    HW168523   6.307   3.311   4.812
55542SOL    HW268524   6.364   3.438   4.753
55543SOL     OW68525  14.607  13.349  14.843
55543SOL    HW168526  14.672  13.398  14.792
55543SOL    HW268527  14.627  13.370   0.052
55544SOL     OW68528  11.083   1.245   4.712
55544SOL    HW168529  11.047   1.169   4.758
55544SOL    HW268530  11.141   1.286   4.775
55545SOL     OW68531   1.134   7.039   8.061
55545SOL    HW168532   1.214   6.992   8.040
55545SOL    HW268533   1.117   7.019   8.153
55546SOL     OW68534  12.750   6.866   4.896
55546SOL    HW168535  12.695   6.903   4.965
55546SOL    HW268536  12.689   6.829   4.833
55547SOL     OW68537   5.584  13.404   8.987
55547SOL    HW168538   5.492  13.419   9.011
55547SOL    HW268539   5.593  13.449   8.903
55548SOL     OW68540   1.749  13.372  13.790
55548SOL    HW168541   1.771  13.375  13.697
55548SOL    HW268542   1.723  13.461  13.812
55549SOL     OW68543   1.430   9.877   2.692
55549SOL    HW168544   1.403   9.864   2.601
55549SOL    HW268545   1.500   9.813   2.706
55550SOL     OW68546   9.151   7.618   0.343
55550SOL    HW168547   9.160   7.710   0.368
55550SOL    HW268548   9.194   7.570   0.413
55551SOL     OW68549   6.752   8.435   8.895
55551SOL    HW168550   6.662   8.445   8.925
55551SOL    HW268551   6.806   8.457   8.971
55552SOL     OW68552  13.973   8.300   1.850
55552SOL    HW168553  14.021   8.223   1.820
55552SOL    HW268554  14.029   8.374   1.826
55553SOL     OW68555   6.322   7.000   4.317
55553SOL    HW168556   6.239   6.975   4.277
55553SOL    HW268557   6.314   7.094   4.332
55554SOL     OW68558   7.138   8.305   1.218
55554SOL    HW168559   7.157   8.297   1.311
55554SOL    HW268560   7.060   8.362   1.215
55555SOL     OW68561  14.100  14.022   8.400
55555SOL    HW168562  14.023  14.044   8.347
55555SOL    HW268563  14.070  14.029   8.490
55556SOL     OW68564   6.607  11.387   4.656
55556SOL    HW168565   6.684  11.367   4.602
55556SOL    HW268566   6.578  11.472   4.626
55557SOL     OW68567   6.628   0.106   2.695
55557SOL    HW168568   6.535   0.085   2.701
55557SOL    HW268569   6.631   0.196   2.662
55558SOL     OW68570  11.650   6.366   7.737
55558SOL    HW168571  11.680   6.286   7.780
55558SOL    HW268572  11.563   6.382   7.773
55559SOL     OW68573  13.830  13.396   5.929
55559SOL    HW168574  13.823  13.457   6.003
55559SOL    HW268575  13.907  13.343   5.948
55560SOL     OW68576  13.856  14.009  13.736
55560SOL    HW168577  13.885  13.918  13.729
55560SOL    HW268578  13.784  14.017  13.674
55561SOL     OW68579   3.680  11.085   3.960
55561SOL    HW168580   3.720  11.159   4.006
55561SOL    HW268581   3.610  11.055   4.018
55562SOL     OW68582   1.452   0.016  12.992
55562SOL    HW168583   1.416  14.813  12.964
55562SOL    HW268584   1.521   0.035  12.929
55563SOL     OW68585   8.714  12.568   6.771
55563SOL    HW168586   8.731  12.554   6.678
55563SOL    HW268587   8.685  12.659   6.776
55564SOL     OW68588  13.623   4.203  11.099
55564SOL    HW168589  13.679   4.127  11.086
55564SOL    HW268590  13.650   4.239  11.184
55565SOL     OW68591   0.664  10.798  11.538
55565SOL    HW168592   0.722  10.760  11.472
55565SOL    HW268593   0.637  10.882  11.502
55566SOL     OW68594   7.014   3.112  14.526
55566SOL    HW168595   7.093   3.067  14.497
55566SOL    HW268596   6.961   3.044  14.567
55567SOL     OW68597  11.772   9.459   9.270
55567SOL    HW168598  11.711   9.514   9.318
55567SOL    HW268599  11.720   9.419   9.201
55568SOL     OW68600   6.763   2.457  12.090
55568SOL    HW168601   6.679   2.502  12.086
55568SOL    HW268602   6.748   2.383  12.149
55569SOL     OW68603   4.470  13.743   0.758
55569SOL    HW168604   4.481  13.683   0.832
55569SOL    HW268605   4.522  13.703   0.688
55570SOL     OW68606  14.317  14.842   0.774
55570SOL    HW168607  14.314  14.750   0.751
55570SOL    HW268608  14.410  14.861   0.787
55571SOL     OW68609  12.879   6.430   4.024
55571SOL    HW168610  12.839   6.456   4.107
55571SOL    HW268611  12.943   6.363   4.048
55572SOL     OW68612   5.197   7.013   9.484
55572SOL    HW168613   5.266   6.967   9.437
55572SOL    HW268614   5.244   7.078   9.538
55573SOL     OW68615  12.519   6.616  14.379
55573SOL    HW168616  12.600   6.621  14.329
55573SOL    HW268617  12.547   6.601  14.469
55574SOL     OW68618   8.262  11.395   7.406
55574SOL    HW168619   8.251  11.369   7.315
55574SOL    HW268620   8.322  11.469   7.404
55575SOL     OW68621   4.702   0.156   5.757
55575SOL    HW168622   4.651   0.193   5.828
55575SOL    HW268623   4.760   0.092   5.799
55576SOL     OW68624   0.803   3.524  14.328
55576SOL    HW168625   0.812   3.576  14.248
55576SOL    HW268626   0.741   3.455  14.304
55577SOL     OW68627  14.226   8.726  14.360
55577SOL    HW168628  14.265   8.726  14.273
55577SOL    HW268629  14.287   8.676  14.414
55578SOL     OW68630  13.805   4.237   3.336
55578SOL    HW168631  13.714   4.265   3.345
55578SOL    HW268632  13.856   4.313   3.364
55579SOL     OW68633   7.579   3.841  14.464
55579SOL    HW168634   7.672   3.848  14.483
55579SOL    HW268635   7.555   3.926  14.428
55580SOL     OW68636   3.897   6.421   3.001
55580SOL    HW168637   3.974   6.477   2.995
55580SOL    HW268638   3.825   6.477   2.972
55581SOL     OW68639   7.597  11.943   1.390
55581SOL    HW168640   7.635  11.876   1.446
55581SOL    HW268641   7.645  12.023   1.413
55582SOL     OW68642   4.942   7.522   4.013
55582SOL    HW168643   4.869   7.573   4.049
55582SOL    HW268644   5.014   7.584   4.006
55583SOL     OW68645   6.899  10.966  13.485
55583SOL    HW168646   6.947  11.027  13.541
55583SOL    HW268647   6.954  10.888  13.481
55584SOL     OW68648  10.099  12.353  12.879
55584SOL    HW168649  10.009  12.382  12.892
55584SOL    HW268650  10.093  12.287  12.810
55585SOL     OW68651  14.642   3.608  13.033
55585SOL    HW168652  14.554   3.632  13.062
55585SOL    HW268653  14.677   3.688  12.993
55586SOL     OW68654   7.664   7.856   9.810
55586SOL    HW168655   7.575   7.888   9.796
55586SOL    HW268656   7.654   7.782   9.870
55587SOL     OW68657   8.592   2.812   9.090
55587SOL    HW168658   8.516   2.868   9.077
55587SOL    HW268659   8.563   2.726   9.059
55588SOL     OW68660   1.925   8.969   2.147
55588SOL    HW168661   2.004   9.015   2.117
55588SOL    HW268662   1.872   8.958   2.068
55589SOL     OW68663  13.820   1.637   6.936
55589SOL    HW168664  13.834   1.579   6.861
55589SOL    HW268665  13.776   1.583   7.001
55590SOL     OW68666   0.991   7.773   1.827
55590SOL    HW168667   1.063   7.766   1.890
55590SOL    HW268668   0.961   7.683   1.814
55591SOL     OW68669  13.335   6.239   1.515
55591SOL    HW168670  13.345   6.176   1.443
55591SOL    HW268671  13.274   6.304   1.482
55592SOL     OW68672  13.787   9.919   9.846
55592SOL    HW168673  13.810  10.012   9.849
55592SOL    HW268674  13.752   9.906   9.758
55593SOL     OW68675   2.959  14.547  13.027
55593SOL    HW168676   3.036  14.604  13.024
55593SOL    HW268677   2.949  14.526  13.120
55594SOL     OW68678  11.119   5.081   3.060
55594SOL    HW168679  11.097   5.168   3.092
55594SOL    HW268680  11.058   5.023   3.106
55595SOL     OW68681  12.394   5.755  12.350
55595SOL    HW168682  12.325   5.783  12.411
55595SOL    HW268683  12.402   5.827  12.288
55596SOL     OW68684   2.419   8.874   0.893
55596SOL    HW168685   2.382   8.806   0.837
55596SOL    HW268686   2.384   8.855   0.980
55597SOL     OW68687   8.608   5.877   2.877
55597SOL    HW168688   8.566   5.907   2.957
55597SOL    HW268689   8.618   5.955   2.824
55598SOL     OW68690  11.352  10.146  10.492
55598SOL    HW168691  11.350  10.221  10.431
55598SOL    HW268692  11.276  10.094  10.468
55599SOL     OW68693   4.223   9.715   8.605
55599SOL    HW168694   4.288   9.656   8.641
55599SOL    HW268695   4.265   9.755   8.529
55600SOL     OW68696   8.571  10.257  13.029
55600SOL    HW168697   8.594  10.348  13.012
55600SOL    HW268698   8.595  10.211  12.949
55601SOL     OW68699   6.026  10.173   9.166
55601SOL    HW168700   5.991  10.251   9.209
55601SOL    HW268701   6.121  10.187   9.166
55602SOL     OW68702   5.291  10.948   3.144
55602SOL    HW168703   5.328  10.939   3.232
55602SOL    HW268704   5.353  10.903   3.087
55603SOL     OW68705  10.904   6.782   7.263
55603SOL    HW168706  10.891   6.718   7.193
55603SOL    HW268707  10.917   6.729   7.341
55604SOL     OW68708   7.159   6.196  10.660
55604SOL    HW168709   7.231   6.251  10.631
55604SOL    HW268710   7.145   6.135  10.587
55605SOL     OW68711  12.421  12.940   7.482
55605SOL    HW168712  12.514  12.922   7.497
55605SOL    HW268713  12.380  12.853   7.482
55606SOL     OW68714   0.122   8.936  10.189
55606SOL    HW168715   0.201   8.945  10.134
55606SOL    HW268716   0.102   8.842  10.186
55607SOL     OW68717   3.920   1.614  14.320
55607SOL    HW168718   4.007   1.642  14.349
55607SOL    HW268719   3.889   1.687  14.266
55608SOL     OW68720  12.443  13.022  10.339
55608SOL    HW168721  12.428  13.032  10.245
55608SOL    HW268722  12.373  12.962  10.368
55609SOL     OW68723  12.173   7.548  10.658
55609SOL    HW168724  12.119   7.555  10.579
55609SOL    HW268725  12.241   7.486  10.635
55610SOL     OW68726   5.348  13.087  14.678
55610SOL    HW168727   5.253  13.092  14.690
55610SOL    HW268728   5.377  13.026  14.746
55611SOL     OW68729   4.448  13.140   4.858
55611SOL    HW168730   4.463  13.202   4.929
55611SOL    HW268731   4.353  13.133   4.850
55612SOL     OW68732  14.356   0.991  11.862
55612SOL    HW168733  14.326   0.905  11.833
55612SOL    HW268734  14.379   1.037  11.781
55613SOL     OW68735   4.214   1.885  10.741
55613SOL    HW168736   4.132   1.835  10.737
55613SOL    HW268737   4.259   1.850  10.818
55614SOL     OW68738   2.576   6.663  14.241
55614SOL    HW168739   2.649   6.724  14.241
55614SOL    HW268740   2.498   6.719  14.246
55615SOL     OW68741   0.791  10.736  10.443
55615SOL    HW168742   0.780  10.641  10.445
55615SOL    HW268743   0.703  10.770  10.429
55616SOL     OW68744   3.387   0.722   2.610
55616SOL    HW168745   3.366   0.633   2.638
55616SOL    HW268746   3.411   0.713   2.518
55617SOL     OW68747  13.174   0.928   8.976
55617SOL    HW168748  13.177   1.019   8.948
55617SOL    HW268749  13.246   0.886   8.929
55618SOL     OW68750  10.500  10.993  11.546
55618SOL    HW168751  10.445  11.051  11.492
55618SOL    HW268752  10.580  10.982  11.496
55619SOL     OW68753   5.897   0.817  13.164
55619SOL    HW168754   5.911   0.723  13.153
55619SOL    HW268755   5.981   0.850  13.195
55620SOL     OW68756   6.306   8.124  13.406
55620SOL    HW168757   6.270   8.038  13.387
55620SOL    HW268758   6.351   8.113  13.490
55621SOL     OW68759   4.069  11.643   6.506
55621SOL    HW168760   4.049  11.550   6.509
55621SOL    HW268761   3.995  11.685   6.552
55622SOL     OW68762   7.465   7.364   2.990
55622SOL    HW168763   7.450   7.457   3.012
55622SOL    HW268764   7.529   7.366   2.920
55623SOL     OW68765  13.603   8.006   7.522
55623SOL    HW168766  13.607   7.942   7.593
55623SOL    HW268767  13.511   8.032   7.518
55624SOL     OW68768  12.409   8.881   6.906
55624SOL    HW168769  12.325   8.858   6.947
55624SOL    HW268770  12.402   8.974   6.887
55625SOL     OW68771   1.515   1.829   2.226
55625SOL    HW168772   1.527   1.901   2.164
55625SOL    HW268773   1.423   1.804   2.217
55626SOL     OW68774   9.526   2.341   7.859
55626SOL    HW168775   9.599   2.295   7.902
55626SOL    HW268776   9.555   2.351   7.768
55627SOL     OW68777   9.819   6.912   1.261
55627SOL    HW168778   9.787   6.975   1.326
55627SOL    HW268779   9.914   6.914   1.271
55628SOL     OW68780  13.154  12.220   3.206
55628SOL    HW168781  13.152  12.242   3.299
55628SOL    HW268782  13.148  12.125   3.203
55629SOL     OW68783   7.865   0.661  11.334
55629SOL    HW168784   7.773   0.673  11.308
55629SOL    HW268785   7.911   0.736  11.297
55630SOL     OW68786  11.321   0.329   0.302
55630SOL    HW168787  11.330   0.248   0.252
55630SOL    HW268788  11.234   0.324   0.341
55631SOL     OW68789   9.804   5.548   4.181
55631SOL    HW168790   9.800   5.492   4.103
55631SOL    HW268791   9.734   5.612   4.167
55632SOL     OW68792   8.005  10.920   5.534
55632SOL    HW168793   8.047  10.931   5.620
55632SOL    HW268794   7.952  10.999   5.524
55633SOL     OW68795   6.170   5.502   8.015
55633SOL    HW168796   6.228   5.460   8.079
55633SOL    HW268797   6.124   5.570   8.064
55634SOL     OW68798   9.700   9.040  10.873
55634SOL    HW168799   9.774   8.988  10.840
55634SOL    HW268800   9.634   8.975  10.896
55635SOL     OW68801  13.627   9.760  13.437
55635SOL    HW168802  13.533   9.776  13.431
55635SOL    HW268803  13.635   9.681  13.490
55636SOL     OW68804  13.148   9.757   1.010
55636SOL    HW168805  13.138   9.691   0.941
55636SOL    HW268806  13.078   9.738   1.071
55637SOL     OW68807   9.728   3.576  10.449
55637SOL    HW168808   9.698   3.552  10.362
55637SOL    HW268809   9.751   3.669  10.442
55638SOL     OW68810  11.370   5.571   7.320
55638SOL    HW168811  11.447   5.610   7.278
55638SOL    HW268812  11.335   5.511   7.254
55639SOL     OW68813   8.001   7.716   9.414
55639SOL    HW168814   7.998   7.702   9.319
55639SOL    HW268815   7.920   7.763   9.434
55640SOL     OW68816  14.182   0.804   1.678
55640SOL    HW168817  14.213   0.714   1.685
55640SOL    HW268818  14.254   0.857   1.713
55641SOL     OW68819   4.123  11.769  12.776
55641SOL    HW168820   4.161  11.829  12.841
55641SOL    HW268821   4.150  11.682  12.805
55642SOL     OW68822   5.604   6.908   9.762
55642SOL    HW168823   5.642   6.965   9.829
55642SOL    HW268824   5.664   6.833   9.758
55643SOL     OW68825  14.780  14.347   5.425
55643SOL    HW168826  14.849  14.390   5.475
55643SOL    HW268827  14.782  14.256   5.454
55644SOL     OW68828   5.575  11.611   3.716
55644SOL    HW168829   5.524  11.530   3.712
55644SOL    HW268830   5.527  11.672   3.661
55645SOL     OW68831   4.413  11.224  12.767
55645SOL    HW168832   4.385  11.312  12.791
55645SOL    HW268833   4.413  11.175  12.849
55646SOL     OW68834   4.314   9.031  10.523
55646SOL    HW168835   4.360   8.975  10.585
55646SOL    HW268836   4.287   8.973  10.452
55647SOL     OW68837   6.816   2.815  12.613
55647SOL    HW168838   6.894   2.774  12.650
55647SOL    HW268839   6.771   2.744  12.567
55648SOL     OW68840   9.714   3.756   7.280
55648SOL    HW168841   9.751   3.836   7.243
55648SOL    HW268842   9.620   3.766   7.270
55649SOL     OW68843  10.283   5.549   4.356
55649SOL    HW168844  10.191   5.560   4.336
55649SOL    HW268845  10.326   5.536   4.271
55650SOL     OW68846   8.777   0.063   8.364
55650SOL    HW168847   8.761   0.095   8.452
55650SOL    HW268848   8.817  14.859   8.377
55651SOL     OW68849   1.178   8.480  11.194
55651SOL    HW168850   1.145   8.568  11.181
55651SOL    HW268851   1.137   8.450  11.275
55652SOL     OW68852   3.016  12.955  12.209
55652SOL    HW168853   2.951  12.888  12.185
55652SOL    HW268854   3.038  12.998  12.126
55653SOL     OW68855   8.377  10.343  13.213
55653SOL    HW168856   8.304  10.340  13.152
55653SOL    HW268857   8.451  10.305  13.165
55654SOL     OW68858  10.545  11.219  11.720
55654SOL    HW168859  10.510  11.139  11.680
55654SOL    HW268860  10.634  11.225  11.686
55655SOL     OW68861   2.145   1.941  13.817
55655SOL    HW168862   2.084   2.010  13.791
55655SOL    HW268863   2.134   1.873  13.751
55656SOL     OW68864  12.939  11.192   8.531
55656SOL    HW168865  12.860  11.180   8.583
55656SOL    HW268866  13.011  11.172   8.591
55657SOL     OW68867  12.784   5.709  12.888
55657SOL    HW168868  12.851   5.776  12.900
55657SOL    HW268869  12.815   5.656  12.815
55658SOL     OW68870   1.314  10.637   9.281
55658SOL    HW168871   1.283  10.560   9.233
55658SOL    HW268872   1.406  10.646   9.253
55659SOL     OW68873  11.664   4.725   5.818
55659SOL    HW168874  11.585   4.722   5.873
55659SOL    HW268875  11.667   4.814   5.784
55660SOL     OW68876   4.714  12.853   8.431
55660SOL    HW168877   4.724  12.786   8.364
55660SOL    HW268878   4.623  12.882   8.424
55661SOL     OW68879   9.018   3.553   0.265
55661SOL    HW168880   8.957   3.627   0.269
55661SOL    HW268881   9.037   3.532   0.356
55662SOL     OW68882   5.434   6.238   2.418
55662SOL    HW168883   5.521   6.275   2.402
55662SOL    HW268884   5.383   6.263   2.341
55663SOL     OW68885  14.726  12.150  14.850
55663SOL    HW168886  14.753  12.218   0.030
55663SOL    HW268887  14.712  12.072   0.022
55664SOL     OW68888   0.427   6.220   0.538
55664SOL    HW168889   0.478   6.176   0.606
55664SOL    HW268890   0.479   6.298   0.516
55665SOL     OW68891   0.564   4.083   9.699
55665SOL    HW168892   0.646   4.132   9.687
55665SOL    HW268893   0.553   4.078   9.793
55666SOL     OW68894   5.029   0.119   1.423
55666SOL    HW168895   5.026   0.213   1.405
55666SOL    HW268896   4.962   0.106   1.490
55667SOL     OW68897   9.186   9.728   5.018
55667SOL    HW168898   9.265   9.767   4.979
55667SOL    HW268899   9.190   9.637   4.992
55668SOL     OW68900   2.091   4.228  13.482
55668SOL    HW168901   2.033   4.165  13.438
55668SOL    HW268902   2.043   4.251  13.562
55669SOL     OW68903   2.536   9.518   6.443
55669SOL    HW168904   2.597   9.490   6.375
55669SOL    HW268905   2.450   9.496   6.407
55670SOL     OW68906  14.630   1.667   6.929
55670SOL    HW168907  14.679   1.750   6.935
55670SOL    HW268908  14.698   1.600   6.925
55671SOL     OW68909   4.833   0.677  11.220
55671SOL    HW168910   4.843   0.636  11.135
55671SOL    HW268911   4.893   0.628  11.277
55672SOL     OW68912  14.142   7.493  12.560
55672SOL    HW168913  14.056   7.455  12.578
55672SOL    HW268914  14.203   7.435  12.606
55673SOL     OW68915   5.153  11.315   3.782
55673SOL    HW168916   5.088  11.377   3.748
55673SOL    HW268917   5.237  11.361   3.773
55674SOL     OW68918   1.780  10.032   3.042
55674SOL    HW168919   1.821   9.947   3.023
55674SOL    HW268920   1.839  10.073   3.106
55675SOL     OW68921  12.954   0.064   6.036
55675SOL    HW168922  12.938   0.020   6.119
55675SOL    HW268923  12.902   0.144   6.041
55676SOL     OW68924   4.813   7.311  11.237
55676SOL    HW168925   4.851   7.334  11.152
55676SOL    HW268926   4.773   7.392  11.268
55677SOL     OW68927  11.970  10.095   3.186
55677SOL    HW168928  11.980  10.013   3.234
55677SOL    HW268929  11.970  10.162   3.254
55678SOL     OW68930   8.231   3.663   8.085
55678SOL    HW168931   8.186   3.730   8.033
55678SOL    HW268932   8.163   3.597   8.103
55679SOL     OW68933   0.561  14.064   8.910
55679SOL    HW168934   0.505  14.052   8.833
55679SOL    HW268935   0.571  14.158   8.918
55680SOL     OW68936   7.655   0.686   8.252
55680SOL    HW168937   7.575   0.692   8.201
55680SOL    HW268938   7.626   0.681   8.343
55681SOL     OW68939  12.695   1.657   6.419
55681SOL    HW168940  12.602   1.635   6.411
55681SOL    HW268941  12.722   1.617   6.501
55682SOL     OW68942   0.347   9.007  11.931
55682SOL    HW168943   0.327   9.072  11.863
55682SOL    HW268944   0.323   9.050  12.013
55683SOL     OW68945  10.018   1.591   0.160
55683SOL    HW168946   9.942   1.533   0.170
55683SOL    HW268947  10.006   1.630   0.073
55684SOL     OW68948   8.161  10.244   0.172
55684SOL    HW168949   8.097  10.280   0.233
55684SOL    HW268950   8.179  10.316   0.111
55685SOL     OW68951   0.071   1.962   1.305
55685SOL    HW168952   0.142   1.958   1.241
55685SOL    HW268953   0.115   1.970   1.390
55686SOL     OW68954  10.666   9.970   8.745
55686SOL    HW168955  10.634   9.881   8.729
55686SOL    HW268956  10.608  10.004   8.814
55687SOL     OW68957   3.526   3.669   9.405
55687SOL    HW168958   3.579   3.695   9.330
55687SOL    HW268959   3.534   3.574   9.409
55688SOL     OW68960  13.379   7.073   3.216
55688SOL    HW168961  13.461   7.064   3.266
55688SOL    HW268962  13.376   7.165   3.191
55689SOL     OW68963  10.819   0.836   1.259
55689SOL    HW168964  10.765   0.813   1.335
55689SOL    HW268965  10.882   0.899   1.292
55690SOL     OW68966   2.749   8.547  11.548
55690SOL    HW168967   2.829   8.561  11.498
55690SOL    HW268968   2.773   8.485  11.617
55691SOL     OW68969  11.449  11.197   0.649
55691SOL    HW168970  11.396  11.265   0.691
55691SOL    HW268971  11.478  11.141   0.722
55692SOL     OW68972   3.920  14.466   9.820
55692SOL    HW168973   4.005  14.496   9.789
55692SOL    HW268974   3.916  14.496   9.911
55693SOL     OW68975  12.104  10.977   9.123
55693SOL    HW168976  12.022  10.933   9.144
55693SOL    HW268977  12.152  10.980   9.206
55694SOL     OW68978   7.765  11.844  10.898
55694SOL    HW168979   7.743  11.877  10.985
55694SOL    HW268980   7.741  11.915  10.839
55695SOL     OW68981   8.330   5.608   4.994
55695SOL    HW168982   8.267   5.616   4.922
55695SOL    HW268983   8.290   5.655   5.067
55696SOL     OW68984   0.023   5.347  13.619
55696SOL    HW168985   0.042   5.405  13.544
55696SOL    HW268986   0.066   5.265  13.596
55697SOL     OW68987  12.222   9.518  11.631
55697SOL    HW168988  12.128   9.514  11.613
55697SOL    HW268989  12.261   9.453  11.571
55698SOL     OW68990   3.295  11.656   2.343
55698SOL    HW168991   3.383  11.642   2.377
55698SOL    HW268992   3.259  11.567   2.330
55699SOL     OW68993   5.643   2.892   0.097
55699SOL    HW168994   5.573   2.874   0.035
55699SOL    HW268995   5.723   2.883   0.045
55700SOL     OW68996   1.785  14.046   5.015
55700SOL    HW168997   1.857  14.044   4.952
55700SOL    HW268998   1.827  14.055   5.100
55701SOL     OW68999   2.591   1.981  13.599
55701SOL    HW169000   2.647   1.904  13.612
55701SOL    HW269001   2.538   1.987  13.678
55702SOL     OW69002  13.663   7.739  12.620
55702SOL    HW169003  13.675   7.757  12.527
55702SOL    HW269004  13.615   7.815  12.654
55703SOL     OW69005   6.197   8.187  12.673
55703SOL    HW169006   6.264   8.240  12.716
55703SOL    HW269007   6.247   8.132  12.612
55704SOL     OW69008  10.917   9.840   9.460
55704SOL    HW169009  10.990   9.861   9.518
55704SOL    HW269010  10.840   9.872   9.506
55705SOL     OW69011  14.794   2.045  12.875
55705SOL    HW169012  14.719   2.001  12.915
55705SOL    HW269013  14.787   2.026  12.782
55706SOL     OW69014   5.237   6.596  10.263
55706SOL    HW169015   5.282   6.678  10.244
55706SOL    HW269016   5.297   6.548  10.319
55707SOL     OW69017  13.784   9.546   7.337
55707SOL    HW169018  13.773   9.533   7.431
55707SOL    HW269019  13.875   9.574   7.328
55708SOL     OW69020   2.218   9.323  10.627
55708SOL    HW169021   2.246   9.414  10.632
55708SOL    HW269022   2.122   9.327  10.632
55709SOL     OW69023   3.829   6.049   8.873
55709SOL    HW169024   3.915   6.085   8.896
55709SOL    HW269025   3.850   5.971   8.820
55710SOL     OW69026   0.589  11.551   2.032
55710SOL    HW169027   0.577  11.633   2.079
55710SOL    HW269028   0.506  11.503   2.046
55711SOL     OW69029   3.828   8.517   3.125
55711SOL    HW169030   3.809   8.572   3.050
55711SOL    HW269031   3.749   8.464   3.137
55712SOL     OW69032   3.850   8.537   6.064
55712SOL    HW169033   3.826   8.629   6.079
55712SOL    HW269034   3.889   8.537   5.976
55713SOL     OW69035   2.048  13.110   1.048
55713SOL    HW169036   2.118  13.158   1.093
55713SOL    HW269037   1.978  13.103   1.113
55714SOL     OW69038  12.369  12.063   2.320
55714SOL    HW169039  12.373  11.971   2.345
55714SOL    HW269040  12.375  12.062   2.224
55715SOL     OW69041   6.425  14.695   5.786
55715SOL    HW169042   6.468  14.690   5.701
55715SOL    HW269043   6.347  14.640   5.777
55716SOL     OW69044   4.316   8.418  10.081
55716SOL    HW169045   4.292   8.398   9.991
55716SOL    HW269046   4.405   8.453  10.075
55717SOL     OW69047   5.853  13.018  12.135
55717SOL    HW169048   5.942  12.989  12.155
55717SOL    HW269049   5.864  13.078  12.061
55718SOL     OW69050  13.712  11.498   2.176
55718SOL    HW169051  13.641  11.448   2.217
55718SOL    HW269052  13.769  11.524   2.249
55719SOL     OW69053   7.828   2.582   2.106
55719SOL    HW169054   7.732   2.575   2.107
55719SOL    HW269055   7.859   2.495   2.130
55720SOL     OW69056  12.820   0.622  11.202
55720SOL    HW169057  12.815   0.530  11.176
55720SOL    HW269058  12.733   0.656  11.184
55721SOL     OW69059   6.335  11.838  13.647
55721SOL    HW169060   6.298  11.891  13.577
55721SOL    HW269061   6.423  11.815  13.615
55722SOL     OW69062   8.996   8.232  12.254
55722SOL    HW169063   9.060   8.161  12.262
55722SOL    HW269064   8.927   8.208  12.316
55723SOL     OW69065   3.790  14.433  13.796
55723SOL    HW169066   3.844  14.511  13.807
55723SOL    HW269067   3.706  14.457  13.835
55724SOL     OW69068   2.855  11.020   5.106
55724SOL    HW169069   2.784  11.064   5.153
55724SOL    HW269070   2.816  10.938   5.077
55725SOL     OW69071   9.692   7.883  12.160
55725SOL    HW169072   9.728   7.961  12.119
55725SOL    HW269073   9.597   7.894  12.152
55726SOL     OW69074   4.566   9.097   1.166
55726SOL    HW169075   4.487   9.135   1.206
55726SOL    HW269076   4.565   9.005   1.193
55727SOL     OW69077   2.285   9.415   8.624
55727SOL    HW169078   2.192   9.392   8.616
55727SOL    HW269079   2.284   9.509   8.641
55728SOL     OW69080   9.125   7.168   1.767
55728SOL    HW169081   9.172   7.250   1.752
55728SOL    HW269082   9.186   7.114   1.817
55729SOL     OW69083   2.526   5.492  14.706
55729SOL    HW169084   2.601   5.540  14.742
55729SOL    HW269085   2.453   5.553  14.716
55730SOL     OW69086   0.156  11.756   0.019
55730SOL    HW169087   0.235  11.709   0.048
55730SOL    HW269088   0.091  11.736   0.086
55731SOL     OW69089   1.433  10.761   7.989
55731SOL    HW169090   1.486  10.756   8.068
55731SOL    HW269091   1.345  10.739   8.017
55732SOL     OW69092  10.941   3.372   6.891
55732SOL    HW169093  10.896   3.454   6.871
55732SOL    HW269094  10.887   3.304   6.851
55733SOL     OW69095   2.470   5.195   3.363
55733SOL    HW169096   2.539   5.246   3.319
55733SOL    HW269097   2.518   5.134   3.418
55734SOL     OW69098   6.873  10.696   2.100
55734SOL    HW169099   6.963  10.716   2.073
55734SOL    HW269100   6.852  10.614   2.056
55735SOL     OW69101   3.542  10.911  10.423
55735SOL    HW169102   3.449  10.933  10.429
55735SOL    HW269103   3.564  10.924  10.331
55736SOL     OW69104   5.282   4.099   1.349
55736SOL    HW169105   5.272   4.179   1.298
55736SOL    HW269106   5.230   4.114   1.428
55737SOL     OW69107   0.014   6.697   3.846
55737SOL    HW169108   0.037   6.643   3.770
55737SOL    HW269109   0.091   6.692   3.903
55738SOL     OW69110   4.559  13.134  10.971
55738SOL    HW169111   4.545  13.227  10.992
55738SOL    HW269112   4.638  13.133  10.917
55739SOL     OW69113   1.600   4.904   0.668
55739SOL    HW169114   1.506   4.893   0.686
55739SOL    HW269115   1.609   4.887   0.575
55740SOL     OW69116  12.444   9.404  10.739
55740SOL    HW169117  12.386   9.480  10.739
55740SOL    HW269118  12.531   9.441  10.726
55741SOL     OW69119   1.469   2.779   5.956
55741SOL    HW169120   1.538   2.826   6.002
55741SOL    HW269121   1.515   2.722   5.894
55742SOL     OW69122  12.243  14.368   7.898
55742SOL    HW169123  12.188  14.318   7.837
55742SOL    HW269124  12.187  14.381   7.975
55743SOL     OW69125   5.197  13.251   3.592
55743SOL    HW169126   5.211  13.265   3.686
55743SOL    HW269127   5.285  13.255   3.554
55744SOL     OW69128  10.337   8.821   1.130
55744SOL    HW169129  10.349   8.912   1.101
55744SOL    HW269130  10.245   8.802   1.112
55745SOL     OW69131  12.375   9.784   1.497
55745SOL    HW169132  12.405   9.740   1.577
55745SOL    HW269133  12.443   9.765   1.432
55746SOL     OW69134   6.999  10.876   8.319
55746SOL    HW169135   6.927  10.826   8.280
55746SOL    HW269136   7.009  10.952   8.261
55747SOL     OW69137   4.952   8.956   0.896
55747SOL    HW169138   4.905   8.886   0.942
55747SOL    HW269139   4.910   9.036   0.927
55748SOL     OW69140   2.092   3.557   3.817
55748SOL    HW169141   2.122   3.499   3.888
55748SOL    HW269142   2.071   3.639   3.862
55749SOL     OW69143  11.881   7.690   5.396
55749SOL    HW169144  11.887   7.732   5.482
55749SOL    HW269145  11.850   7.760   5.338
55750SOL     OW69146   7.839   0.881   5.942
55750SOL    HW169147   7.824   0.974   5.963
55750SOL    HW269148   7.755   0.839   5.960
55751SOL     OW69149   2.245  14.375   9.233
55751SOL    HW169150   2.304  14.448   9.216
55751SOL    HW269151   2.166  14.415   9.267
55752SOL     OW69152   2.586   8.468   5.097
55752SOL    HW169153   2.585   8.377   5.128
55752SOL    HW269154   2.636   8.516   5.163
55753SOL     OW69155   1.339   8.869   6.908
55753SOL    HW169156   1.279   8.794   6.914
55753SOL    HW269157   1.292   8.941   6.950
55754SOL     OW69158   8.264   4.352   8.662
55754SOL    HW169159   8.223   4.267   8.643
55754SOL    HW269160   8.320   4.334   8.737
55755SOL     OW69161   9.646  12.376   3.182
55755SOL    HW169162   9.690  12.332   3.110
55755SOL    HW269163   9.560  12.399   3.148
55756SOL     OW69164   5.142   6.882  13.120
55756SOL    HW169165   5.151   6.836  13.037
55756SOL    HW269166   5.230   6.914  13.140
55757SOL     OW69167   5.161   1.479  13.225
55757SOL    HW169168   5.244   1.434  13.241
55757SOL    HW269169   5.138   1.458  13.135
55758SOL     OW69170   9.620  13.992   3.652
55758SOL    HW169171   9.703  13.956   3.685
55758SOL    HW269172   9.564  13.915   3.641
55759SOL     OW69173   1.563   2.649   6.645
55759SOL    HW169174   1.477   2.679   6.673
55759SOL    HW269175   1.549   2.561   6.612
55760SOL     OW69176  10.637   3.753   6.591
55760SOL    HW169177  10.565   3.815   6.603
55760SOL    HW269178  10.643   3.706   6.674
55761SOL     OW69179  11.791   2.768  12.954
55761SOL    HW169180  11.827   2.704  12.893
55761SOL    HW269181  11.764   2.842  12.899
55762SOL     OW69182   4.847   9.232   5.616
55762SOL    HW169183   4.758   9.240   5.651
55762SOL    HW269184   4.895   9.183   5.682
55763SOL     OW69185   9.439   1.781   1.661
55763SOL    HW169186   9.514   1.739   1.704
55763SOL    HW269187   9.416   1.721   1.590
55764SOL     OW69188  12.418   1.664   3.512
55764SOL    HW169189  12.338   1.710   3.491
55764SOL    HW269190  12.478   1.685   3.441
55765SOL     OW69191   4.320   4.726   0.730
55765SOL    HW169192   4.390   4.693   0.787
55765SOL    HW269193   4.246   4.742   0.789
55766SOL     OW69194   6.852   1.667   8.137
55766SOL    HW169195   6.940   1.684   8.170
55766SOL    HW269196   6.842   1.728   8.064
55767SOL     OW69197  12.024   3.483  11.399
55767SOL    HW169198  11.956   3.441  11.346
55767SOL    HW269199  12.053   3.557  11.346
55768SOL     OW69200  10.212   2.866   5.545
55768SOL    HW169201  10.250   2.946   5.509
55768SOL    HW269202  10.208   2.805   5.471
55769SOL     OW69203   9.404   2.869   7.910
55769SOL    HW169204   9.441   2.917   7.836
55769SOL    HW269205   9.446   2.783   7.906
55770SOL     OW69206  13.260   0.995  11.113
55770SOL    HW169207  13.186   0.934  11.111
55770SOL    HW269208  13.239   1.055  11.185
55771SOL     OW69209   7.158  14.609   6.292
55771SOL    HW169210   7.105  14.688   6.300
55771SOL    HW269211   7.194  14.595   6.380
55772SOL     OW69212   9.598   7.707   9.886
55772SOL    HW169213   9.525   7.647   9.900
55772SOL    HW269214   9.596   7.725   9.792
55773SOL     OW69215   3.380   1.741   5.296
55773SOL    HW169216   3.418   1.829   5.301
55773SOL    HW269217   3.352   1.723   5.386
55774SOL     OW69218  12.132   4.582   5.211
55774SOL    HW169219  12.146   4.506   5.155
55774SOL    HW269220  12.096   4.546   5.292
55775SOL     OW69221   4.036  12.059  11.045
55775SOL    HW169222   4.082  12.035  10.965
55775SOL    HW269223   4.028  11.977  11.094
55776SOL     OW69224   2.780  12.636   8.776
55776SOL    HW169225   2.801  12.677   8.860
55776SOL    HW269226   2.820  12.693   8.711
55777SOL     OW69227   2.297   7.152   5.563
55777SOL    HW169228   2.326   7.151   5.654
55777SOL    HW269229   2.289   7.059   5.540
55778SOL     OW69230   0.236   5.345   7.974
55778SOL    HW169231   0.260   5.304   7.892
55778SOL    HW269232   0.206   5.272   8.029
55779SOL     OW69233   0.083  13.181   6.889
55779SOL    HW169234   0.032  13.231   6.952
55779SOL    HW269235   0.147  13.244   6.854
55780SOL     OW69236   3.254   8.723   1.291
55780SOL    HW169237   3.344   8.691   1.282
55780SOL    HW269238   3.236   8.767   1.208
55781SOL     OW69239   6.848   3.546  12.521
55781SOL    HW169240   6.879   3.624  12.476
55781SOL    HW269241   6.780   3.579  12.580
55782SOL     OW69242   6.859   0.505   6.584
55782SOL    HW169243   6.884   0.597   6.572
55782SOL    HW269244   6.829   0.477   6.498
55783SOL     OW69245   6.226   6.558  12.693
55783SOL    HW169246   6.297   6.498  12.671
55783SOL    HW269247   6.269   6.631  12.738
55784SOL     OW69248  14.808   2.746   1.571
55784SOL    HW169249  14.875   2.693   1.614
55784SOL    HW269250  14.774   2.689   1.502
55785SOL     OW69251   1.064   1.810   8.118
55785SOL    HW169252   1.040   1.802   8.210
55785SOL    HW269253   1.142   1.755   8.108
55786SOL     OW69254   8.624   0.532   3.600
55786SOL    HW169255   8.662   0.594   3.662
55786SOL    HW269256   8.574   0.471   3.654
55787SOL     OW69257   6.690  10.216   4.169
55787SOL    HW169258   6.780  10.251   4.170
55787SOL    HW269259   6.664  10.216   4.261
55788SOL     OW69260  14.538  14.879   7.959
55788SOL    HW169261  14.452   0.034   7.940
55788SOL    HW269262  14.555  14.820   7.885
55789SOL     OW69263   5.846  10.299  10.939
55789SOL    HW169264   5.931  10.257  10.924
55789SOL    HW269265   5.822  10.273  11.027
55790SOL     OW69266   5.987   3.555   2.828
55790SOL    HW169267   6.022   3.471   2.856
55790SOL    HW269268   6.054   3.590   2.769
55791SOL     OW69269  14.532  14.817  11.346
55791SOL    HW169270  14.477   0.009  11.371
55791SOL    HW269271  14.518  14.807  11.252
55792SOL     OW69272   2.767  13.428  12.815
55792SOL    HW169273   2.717  13.481  12.753
55792SOL    HW269274   2.765  13.340  12.779
55793SOL     OW69275  12.991   7.925  11.788
55793SOL    HW169276  12.973   7.836  11.820
55793SOL    HW269277  13.011   7.913  11.695
55794SOL     OW69278  12.565   3.890   8.046
55794SOL    HW169279  12.554   3.847   8.131
55794SOL    HW269280  12.652   3.865   8.017
55795SOL     OW69281   4.656  10.857  10.998
55795SOL    HW169282   4.725  10.922  11.010
55795SOL    HW269283   4.575  10.906  11.009
55796SOL     OW69284  10.099   5.014   6.138
55796SOL    HW169285  10.137   5.038   6.223
55796SOL    HW269286  10.175   4.992   6.083
55797SOL     OW69287   5.310   3.625  10.071
55797SOL    HW169288   5.277   3.711  10.095
55797SOL    HW269289   5.242   3.564  10.101
55798SOL     OW69290  10.915   7.559  10.130
55798SOL    HW169291  10.875   7.617  10.196
55798SOL    HW269292  10.959   7.491  10.181
55799SOL     OW69293   8.159   4.556   7.406
55799SOL    HW169294   8.172   4.582   7.497
55799SOL    HW269295   8.104   4.478   7.410
55800SOL     OW69296  12.185  14.111  12.581
55800SOL    HW169297  12.194  14.131  12.488
55800SOL    HW269298  12.257  14.050  12.600
55801SOL     OW69299   9.813   7.244  14.751
55801SOL    HW169300   9.859   7.323  14.723
55801SOL    HW269301   9.749   7.227  14.682
55802SOL     OW69302   0.574   7.471   5.010
55802SOL    HW169303   0.572   7.444   4.918
55802SOL    HW269304   0.492   7.519   5.023
55803SOL     OW69305   8.254   7.654  12.919
55803SOL    HW169306   8.257   7.604  13.001
55803SOL    HW269307   8.234   7.589  12.852
55804SOL     OW69308   1.445  11.553   6.465
55804SOL    HW169309   1.454  11.543   6.559
55804SOL    HW269310   1.351  11.556   6.449
55805SOL     OW69311   8.091  14.430  12.746
55805SOL    HW169312   8.173  14.381  12.744
55805SOL    HW269313   8.027  14.369  12.784
55806SOL     OW69314   3.365  11.587   1.225
55806SOL    HW169315   3.338  11.496   1.212
55806SOL    HW269316   3.340  11.631   1.143
55807SOL     OW69317  14.068   2.076  10.116
55807SOL    HW169318  14.034   1.999  10.161
55807SOL    HW269319  14.157   2.087  10.151
55808SOL     OW69320   5.737   9.248  13.816
55808SOL    HW169321   5.803   9.180  13.804
55808SOL    HW269322   5.730   9.290  13.730
55809SOL     OW69323  14.099  12.863  10.549
55809SOL    HW169324  14.092  12.805  10.625
55809SOL    HW269325  14.184  12.840  10.510
55810SOL     OW69326   4.026  12.956   7.634
55810SOL    HW169327   3.981  12.922   7.712
55810SOL    HW269328   4.105  12.902   7.626
55811SOL     OW69329  10.881   5.397   5.506
55811SOL    HW169330  10.826   5.441   5.571
55811SOL    HW269331  10.969   5.430   5.524
55812SOL     OW69332   1.658   1.290   3.283
55812SOL    HW169333   1.565   1.271   3.276
55812SOL    HW269334   1.679   1.273   3.375
55813SOL     OW69335   8.472   2.325  14.626
55813SOL    HW169336   8.433   2.262  14.565
55813SOL    HW269337   8.567   2.315  14.613
55814SOL     OW69338  10.233   1.547  10.525
55814SOL    HW169339  10.228   1.519  10.433
55814SOL    HW269340  10.192   1.633  10.526
55815SOL     OW69341   1.469   0.853   3.594
55815SOL    HW169342   1.508   0.927   3.639
55815SOL    HW269343   1.542   0.792   3.581
55816SOL     OW69344   7.663   5.738   4.512
55816SOL    HW169345   7.619   5.658   4.484
55816SOL    HW269346   7.696   5.777   4.431
55817SOL     OW69347   9.511   2.018   3.755
55817SOL    HW169348   9.469   1.935   3.776
55817SOL    HW269349   9.604   2.002   3.767
55818SOL     OW69350   3.453   4.960   6.536
55818SOL    HW169351   3.389   4.891   6.519
55818SOL    HW269352   3.400   5.038   6.550
55819SOL     OW69353  11.683  13.737  12.887
55819SOL    HW169354  11.724  13.657  12.919
55819SOL    HW269355  11.718  13.806  12.943
55820SOL     OW69356   3.419   3.989   7.487
55820SOL    HW169357   3.375   4.074   7.485
55820SOL    HW269358   3.503   4.004   7.444
55821SOL     OW69359  12.994  12.780   2.830
55821SOL    HW169360  12.939  12.794   2.908
55821SOL    HW269361  12.934  12.743   2.765
55822SOL     OW69362   0.419  10.670   1.882
55822SOL    HW169363   0.487  10.637   1.941
55822SOL    HW269364   0.464  10.733   1.826
55823SOL     OW69365   8.893  13.162  13.436
55823SOL    HW169366   8.880  13.170  13.530
55823SOL    HW269367   8.979  13.122  13.427
55824SOL     OW69368   2.138   4.749   1.155
55824SOL    HW169369   2.152   4.812   1.084
55824SOL    HW269370   2.053   4.773   1.192
55825SOL     OW69371  10.191   7.846  14.757
55825SOL    HW169372  10.255   7.914  14.779
55825SOL    HW269373  10.156   7.872  14.672
55826SOL     OW69374   1.592   3.074   5.026
55826SOL    HW169375   1.525   3.136   5.055
55826SOL    HW269376   1.666   3.130   5.002
55827SOL     OW69377   4.059   3.618   2.529
55827SOL    HW169378   4.022   3.706   2.529
55827SOL    HW269379   4.119   3.617   2.604
55828SOL     OW69380  13.305   6.869  10.738
55828SOL    HW169381  13.358   6.945  10.762
55828SOL    HW269382  13.302   6.871  10.642
55829SOL     OW69383   6.661  14.733   8.099
55829SOL    HW169384   6.675  14.647   8.058
55829SOL    HW269385   6.602  14.714   8.172
55830SOL     OW69386  14.104   4.312  11.697
55830SOL    HW169387  14.027   4.368  11.696
55830SOL    HW269388  14.159   4.349  11.767
55831SOL     OW69389   1.576   8.148   0.253
55831SOL    HW169390   1.502   8.087   0.255
55831SOL    HW269391   1.643   8.104   0.202
55832SOL     OW69392   3.405  14.863   1.422
55832SOL    HW169393   3.483  14.827   1.380
55832SOL    HW269394   3.390   0.064   1.376
55833SOL     OW69395   9.007  12.431   0.044
55833SOL    HW169396   9.055  12.468   0.118
55833SOL    HW269397   8.956  12.504   0.009
55834SOL     OW69398   8.262  13.534   5.085
55834SOL    HW169399   8.309  13.573   5.012
55834SOL    HW269400   8.234  13.609   5.138
55835SOL     OW69401  13.470  12.974   4.953
55835SOL    HW169402  13.460  12.885   4.987
55835SOL    HW269403  13.383  13.012   4.960
55836SOL     OW69404   3.187   6.799   3.961
55836SOL    HW169405   3.106   6.770   4.004
55836SOL    HW269406   3.226   6.861   4.022
55837SOL     OW69407   4.743   6.323  12.902
55837SOL    HW169408   4.727   6.340  12.995
55837SOL    HW269409   4.670   6.366  12.857
55838SOL     OW69410   3.025   3.767   0.606
55838SOL    HW169411   2.978   3.753   0.689
55838SOL    HW269412   2.980   3.711   0.544
55839SOL     OW69413   4.249   0.907   2.994
55839SOL    HW169414   4.285   0.991   3.020
55839SOL    HW269415   4.319   0.844   3.012
55840SOL     OW69416   0.133   9.852  12.366
55840SOL    HW169417   0.156   9.894  12.284
55840SOL    HW269418   0.038   9.859  12.371
55841SOL     OW69419  14.002  13.635  12.592
55841SOL    HW169420  13.971  13.572  12.658
55841SOL    HW269421  14.093  13.608  12.574
55842SOL     OW69422   9.419   4.480   4.027
55842SOL    HW169423   9.506   4.462   4.061
55842SOL    HW269424   9.360   4.457   4.099
55843SOL     OW69425   1.749   6.061  12.368
55843SOL    HW169426   1.671   6.014  12.397
55843SOL    HW269427   1.731   6.083  12.277
55844SOL     OW69428   7.547   0.042   8.735
55844SOL    HW169429   7.602   0.041   8.813
55844SOL    HW269430   7.545  14.833   8.705
55845SOL     OW69431   7.148   6.384  12.321
55845SOL    HW169432   7.123   6.469  12.357
55845SOL    HW269433   7.149   6.325  12.396
55846SOL     OW69434   4.720  13.969   1.470
55846SOL    HW169435   4.731  13.879   1.440
55846SOL    HW269436   4.626  13.985   1.464
55847SOL     OW69437  13.294   5.569   3.473
55847SOL    HW169438  13.230   5.629   3.513
55847SOL    HW269439  13.351   5.627   3.422
55848SOL     OW69440   4.243   0.953   9.304
55848SOL    HW169441   4.154   0.932   9.275
55848SOL    HW269442   4.258   0.897   9.380
55849SOL     OW69443   9.109   0.273  14.747
55849SOL    HW169444   9.203   0.267  14.733
55849SOL    HW269445   9.099   0.283  14.842
55850SOL     OW69446   1.043   1.892  10.219
55850SOL    HW169447   0.954   1.865  10.242
55850SOL    HW269448   1.035   1.925  10.130
55851SOL     OW69449   3.031   1.147   7.072
55851SOL    HW169450   3.099   1.084   7.049
55851SOL    HW269451   2.994   1.175   6.988
55852SOL     OW69452   9.106   5.320  13.280
55852SOL    HW169453   9.030   5.306  13.223
55852SOL    HW269454   9.069   5.328  13.368
55853SOL     OW69455  14.064   8.542  14.871
55853SOL    HW169456  14.104   8.503   0.066
55853SOL    HW269457  14.116   8.510  14.797
55854SOL     OW69458   5.648   4.852   6.388
55854SOL    HW169459   5.668   4.872   6.296
55854SOL    HW269460   5.626   4.759   6.388
55855SOL     OW69461   8.275   1.993   5.107
55855SOL    HW169462   8.246   2.034   5.026
55855SOL    HW269463   8.296   2.067   5.165
55856SOL     OW69464   2.320   2.302  12.734
55856SOL    HW169465   2.251   2.264  12.679
55856SOL    HW269466   2.278   2.316  12.818
55857SOL     OW69467  13.750   9.001  13.063
55857SOL    HW169468  13.731   8.911  13.036
55857SOL    HW269469  13.672   9.051  13.037
55858SOL     OW69470   5.092   3.841   2.895
55858SOL    HW169471   5.120   3.794   2.974
55858SOL    HW269472   5.068   3.771   2.834
55859SOL     OW69473  10.661   2.173  11.786
55859SOL    HW169474  10.728   2.202  11.848
55859SOL    HW269475  10.617   2.101  11.830
55860SOL     OW69476  11.287   9.174  11.425
55860SOL    HW169477  11.200   9.134  11.428
55860SOL    HW269478  11.297   9.203  11.335
55861SOL     OW69479   1.527  14.296   5.576
55861SOL    HW169480   1.520  14.221   5.517
55861SOL    HW269481   1.498  14.371   5.524
55862SOL     OW69482   4.604   3.881   1.836
55862SOL    HW169483   4.668   3.822   1.797
55862SOL    HW269484   4.595   3.952   1.772
55863SOL     OW69485   6.744  12.791  14.045
55863SOL    HW169486   6.828  12.756  14.073
55863SOL    HW269487   6.680  12.726  14.073
55864SOL     OW69488   6.119   7.182  10.071
55864SOL    HW169489   6.158   7.106  10.028
55864SOL    HW269490   6.141   7.170  10.164
55865SOL     OW69491   9.295  13.975   8.986
55865SOL    HW169492   9.324  13.967   9.077
55865SOL    HW269493   9.234  13.902   8.974
55866SOL     OW69494   2.510  14.234  11.291
55866SOL    HW169495   2.495  14.163  11.228
55866SOL    HW269496   2.442  14.298  11.272
55867SOL     OW69497   8.334  13.220  11.156
55867SOL    HW169498   8.256  13.194  11.204
55867SOL    HW269499   8.300  13.256  11.074
55868SOL     OW69500   5.082   0.676  10.857
55868SOL    HW169501   5.151   0.612  10.875
55868SOL    HW269502   5.127   0.745  10.808
55869SOL     OW69503   0.754  11.841   2.380
55869SOL    HW169504   0.796  11.760   2.349
55869SOL    HW269505   0.729  11.821   2.470
55870SOL     OW69506   1.470   2.060   1.602
55870SOL    HW169507   1.544   2.058   1.663
55870SOL    HW269508   1.413   2.129   1.636
55871SOL     OW69509   8.297   7.555   5.221
55871SOL    HW169510   8.224   7.501   5.252
55871SOL    HW269511   8.336   7.504   5.151
55872SOL     OW69512   6.441   6.367   8.348
55872SOL    HW169513   6.520   6.332   8.388
55872SOL    HW269514   6.456   6.462   8.345
55873SOL     OW69515   3.694  12.326   9.342
55873SOL    HW169516   3.724  12.243   9.379
55873SOL    HW269517   3.722  12.322   9.250
55874SOL     OW69518   5.750  12.999   8.481
55874SOL    HW169519   5.697  12.959   8.413
55874SOL    HW269520   5.829  13.029   8.437
55875SOL     OW69521   6.441   5.013   8.606
55875SOL    HW169522   6.457   5.066   8.684
55875SOL    HW269523   6.387   5.069   8.549
55876SOL     OW69524   8.845   3.580  13.531
55876SOL    HW169525   8.888   3.514  13.477
55876SOL    HW269526   8.891   3.661  13.512
55877SOL     OW69527  13.514  11.216   2.588
55877SOL    HW169528  13.598  11.244   2.553
55877SOL    HW269529  13.454  11.218   2.513
55878SOL     OW69530   3.729   0.157  11.902
55878SOL    HW169531   3.711   0.243  11.941
55878SOL    HW269532   3.738   0.174  11.809
55879SOL     OW69533   2.626  12.404   5.933
55879SOL    HW169534   2.664  12.351   6.003
55879SOL    HW269535   2.550  12.354   5.903
55880SOL     OW69536   8.246  11.259  13.469
55880SOL    HW169537   8.336  11.232  13.487
55880SOL    HW269538   8.251  11.354  13.458
55881SOL     OW69539   6.041   4.056  11.042
55881SOL    HW169540   6.101   4.093  11.106
55881SOL    HW269541   6.077   4.080  10.957
55882SOL     OW69542  10.272   0.056   0.845
55882SOL    HW169543  10.273  14.843   0.856
55882SOL    HW269544  10.363   0.079   0.828
55883SOL     OW69545   4.565  13.581   0.009
55883SOL    HW169546   4.520  13.646  14.837
55883SOL    HW269547   4.597  13.630   0.085
55884SOL     OW69548   0.387  13.030   2.107
55884SOL    HW169549   0.411  13.074   2.025
55884SOL    HW269550   0.297  13.058   2.124
55885SOL     OW69551   0.887   4.273   6.570
55885SOL    HW169552   0.847   4.357   6.591
55885SOL    HW269553   0.969   4.273   6.621
55886SOL     OW69554   6.013   3.016   9.955
55886SOL    HW169555   6.063   3.093   9.984
55886SOL    HW269556   5.970   3.045   9.875
55887SOL     OW69557   3.242  11.274   9.100
55887SOL    HW169558   3.166  11.290   9.044
55887SOL    HW269559   3.247  11.179   9.108
55888SOL     OW69560   8.030   5.855   7.375
55888SOL    HW169561   7.990   5.768   7.363
55888SOL    HW269562   7.998   5.906   7.300
55889SOL     OW69563   8.808   2.710  12.628
55889SOL    HW169564   8.817   2.615  12.620
55889SOL    HW269565   8.897   2.743  12.617
55890SOL     OW69566   6.781   9.884   8.954
55890SOL    HW169567   6.837   9.867   8.878
55890SOL    HW269568   6.705   9.930   8.918
55891SOL     OW69569   6.449   9.283   6.155
55891SOL    HW169570   6.516   9.242   6.099
55891SOL    HW269571   6.369   9.234   6.135
55892SOL     OW69572   3.401   3.417   0.564
55892SOL    HW169573   3.493   3.392   0.559
55892SOL    HW269574   3.402   3.503   0.608
55893SOL     OW69575  14.832  11.636   8.613
55893SOL    HW169576  14.869  11.638   8.702
55893SOL    HW269577  14.831  11.543   8.590
55894SOL     OW69578   9.363   8.318   0.378
55894SOL    HW169579   9.320   8.298   0.461
55894SOL    HW269580   9.365   8.413   0.374
55895SOL     OW69581   4.530  14.325   9.548
55895SOL    HW169582   4.562  14.414   9.538
55895SOL    HW269583   4.604  14.269   9.523
55896SOL     OW69584   1.828   7.672   6.568
55896SOL    HW169585   1.832   7.577   6.570
55896SOL    HW269586   1.895   7.700   6.630
55897SOL     OW69587   9.075  11.027  13.187
55897SOL    HW169588   9.077  11.121  13.206
55897SOL    HW269589   9.097  10.985  13.270
55898SOL     OW69590  14.026  13.307  12.983
55898SOL    HW169591  14.086  13.260  12.925
55898SOL    HW269592  14.012  13.391  12.941
55899SOL     OW69593   3.513  11.822   8.302
55899SOL    HW169594   3.423  11.818   8.270
55899SOL    HW269595   3.565  11.842   8.224
55900SOL     OW69596   9.904   5.238   5.462
55900SOL    HW169597   9.992   5.201   5.450
55900SOL    HW269598   9.913   5.330   5.436
55901SOL     OW69599  10.953   9.475   4.478
55901SOL    HW169600  10.881   9.497   4.537
55901SOL    HW269601  10.975   9.384   4.500
55902SOL     OW69602   8.417  13.585  11.283
55902SOL    HW169603   8.418  13.512  11.346
55902SOL    HW269604   8.340  13.568  11.228
55903SOL     OW69605   4.209   8.068  13.548
55903SOL    HW169606   4.243   8.122  13.619
55903SOL    HW269607   4.129   8.113  13.520
55904SOL     OW69608   4.521  10.602   2.974
55904SOL    HW169609   4.545  10.650   2.894
55904SOL    HW269610   4.541  10.511   2.953
55905SOL     OW69611   4.213  10.101   2.216
55905SOL    HW169612   4.207  10.142   2.302
55905SOL    HW269613   4.275  10.029   2.228
55906SOL     OW69614   1.987   2.576   6.218
55906SOL    HW169615   1.895   2.594   6.197
55906SOL    HW269616   2.025   2.662   6.235
55907SOL     OW69617   9.209  11.391   9.098
55907SOL    HW169618   9.257  11.315   9.065
55907SOL    HW269619   9.239  11.463   9.043
55908SOL     OW69620   8.996  14.189  11.041
55908SOL    HW169621   9.026  14.280  11.036
55908SOL    HW269622   8.996  14.169  11.134
55909SOL     OW69623  12.480   9.086  11.716
55909SOL    HW169624  12.506   9.161  11.662
55909SOL    HW269625  12.477   9.121  11.805
55910SOL     OW69626   2.124  10.588   8.082
55910SOL    HW169627   2.106  10.578   7.989
55910SOL    HW269628   2.102  10.504   8.121
55911SOL     OW69629  11.181  12.523   4.644
55911SOL    HW169630  11.098  12.478   4.659
55911SOL    HW269631  11.197  12.512   4.550
55912SOL     OW69632   0.527   1.367   9.994
55912SOL    HW169633   0.439   1.397   9.970
55912SOL    HW269634   0.523   1.272   9.987
55913SOL     OW69635   6.554   5.857   8.722
55913SOL    HW169636   6.569   5.879   8.630
55913SOL    HW269637   6.461   5.876   8.737
55914SOL     OW69638   2.294   7.701  14.396
55914SOL    HW169639   2.286   7.610  14.366
55914SOL    HW269640   2.388   7.716  14.402
55915SOL     OW69641   5.138   9.344   9.376
55915SOL    HW169642   5.173   9.397   9.447
55915SOL    HW269643   5.044   9.363   9.376
55916SOL     OW69644   0.624   9.143   8.967
55916SOL    HW169645   0.539   9.153   8.924
55916SOL    HW269646   0.628   9.050   8.990
55917SOL     OW69647  10.718  11.141   6.738
55917SOL    HW169648  10.687  11.062   6.696
55917SOL    HW269649  10.700  11.211   6.676
55918SOL     OW69650  14.486   7.180  10.074
55918SOL    HW169651  14.487   7.276  10.064
55918SOL    HW269652  14.413   7.164  10.135
55919SOL     OW69653  13.732   2.541  12.389
55919SOL    HW169654  13.795   2.575  12.326
55919SOL    HW269655  13.739   2.445  12.381
55920SOL     OW69656  12.854   5.653  13.904
55920SOL    HW169657  12.847   5.745  13.929
55920SOL    HW269658  12.915   5.616  13.968
55921SOL     OW69659   4.413  10.742  10.503
55921SOL    HW169660   4.443  10.756  10.593
55921SOL    HW269661   4.317  10.745  10.509
55922SOL     OW69662   9.346   1.097   0.261
55922SOL    HW169663   9.266   1.108   0.209
55922SOL    HW269664   9.417   1.123   0.202
55923SOL     OW69665  12.792   5.366   0.654
55923SOL    HW169666  12.867   5.407   0.696
55923SOL    HW269667  12.731   5.348   0.726
55924SOL     OW69668   0.033   3.859   5.550
55924SOL    HW169669  14.868   3.825   5.473
55924SOL    HW269670   0.087   3.785   5.579
55925SOL     OW69671  12.356  14.308  14.389
55925SOL    HW169672  12.367  14.373  14.458
55925SOL    HW269673  12.445  14.283  14.364
55926SOL     OW69674   0.449   8.154   5.973
55926SOL    HW169675   0.401   8.073   5.955
55926SOL    HW269676   0.475   8.147   6.064
55927SOL     OW69677   5.810   1.673   4.286
55927SOL    HW169678   5.771   1.598   4.242
55927SOL    HW269679   5.764   1.749   4.249
55928SOL     OW69680   5.240   9.785  10.817
55928SOL    HW169681   5.196   9.833  10.746
55928SOL    HW269682   5.172   9.774  10.884
55929SOL     OW69683   4.468   6.734  10.893
55929SOL    HW169684   4.426   6.674  10.955
55929SOL    HW269685   4.424   6.818  10.906
55930SOL     OW69686   7.338  12.710  11.530
55930SOL    HW169687   7.311  12.660  11.607
55930SOL    HW269688   7.396  12.651  11.482
55931SOL     OW69689   6.447   7.333   1.041
55931SOL    HW169690   6.525   7.338   1.097
55931SOL    HW269691   6.389   7.400   1.077
55932SOL     OW69692   0.987   3.913  12.845
55932SOL    HW169693   0.983   3.876  12.933
55932SOL    HW269694   0.933   3.855  12.792
55933SOL     OW69695  14.542   8.380  12.886
55933SOL    HW169696  14.561   8.335  12.969
55933SOL    HW269697  14.471   8.330  12.847
55934SOL     OW69698   0.705   0.245   7.993
55934SOL    HW169699   0.767   0.267   8.062
55934SOL    HW269700   0.627   0.296   8.014
55935SOL     OW69701   0.540   8.526   8.882
55935SOL    HW169702   0.472   8.591   8.902
55935SOL    HW269703   0.616   8.578   8.856
55936SOL     OW69704   2.606  12.186   2.847
55936SOL    HW169705   2.643  12.150   2.766
55936SOL    HW269706   2.683  12.218   2.895
55937SOL     OW69707  10.543  14.370  11.250
55937SOL    HW169708  10.481  14.442  11.263
55937SOL    HW269709  10.534  14.317  11.329
55938SOL     OW69710  13.465   8.661   5.816
55938SOL    HW169711  13.454   8.639   5.908
55938SOL    HW269712  13.552   8.700   5.810
55939SOL     OW69713   4.891   9.467   5.999
55939SOL    HW169714   4.844   9.500   5.922
55939SOL    HW269715   4.982   9.496   5.986
55940SOL     OW69716   1.770  13.593   1.464
55940SOL    HW169717   1.743  13.534   1.535
55940SOL    HW269718   1.789  13.676   1.509
55941SOL     OW69719   2.368   6.863   9.327
55941SOL    HW169720   2.437   6.823   9.380
55941SOL    HW269721   2.389   6.836   9.237
55942SOL     OW69722  12.434  11.427   1.258
55942SOL    HW169723  12.352  11.477   1.262
55942SOL    HW269724  12.471  11.433   1.345
55943SOL     OW69725  14.305  13.130  11.828
55943SOL    HW169726  14.210  13.134  11.826
55943SOL    HW269727  14.326  13.038  11.814
55944SOL     OW69728  11.041  10.562   0.033
55944SOL    HW169729  10.992  10.596   0.108
55944SOL    HW269730  11.066  10.473   0.059
55945SOL     OW69731   4.014   6.516  12.353
55945SOL    HW169732   4.047   6.553  12.436
55945SOL    HW269733   3.934   6.471  12.377
55946SOL     OW69734   0.648  11.792   6.129
55946SOL    HW169735   0.556  11.803   6.153
55946SOL    HW269736   0.686  11.879   6.141
55947SOL     OW69737  14.125   1.215   6.017
55947SOL    HW169738  14.161   1.269   6.087
55947SOL    HW269739  14.030   1.220   6.030
55948SOL     OW69740   0.386   3.403  14.351
55948SOL    HW169741   0.292   3.392  14.338
55948SOL    HW269742   0.395   3.479  14.409
55949SOL     OW69743   4.132  12.212  10.519
55949SOL    HW169744   4.154  12.290  10.469
55949SOL    HW269745   4.068  12.242  10.583
55950SOL     OW69746   0.530   1.589   4.009
55950SOL    HW169747   0.563   1.501   4.027
55950SOL    HW269748   0.533   1.633   4.094
55951SOL     OW69749   0.667   5.426   9.397
55951SOL    HW169750   0.723   5.422   9.319
55951SOL    HW269751   0.693   5.506   9.442
55952SOL     OW69752   6.774  12.906  11.244
55952SOL    HW169753   6.728  12.969  11.189
55952SOL    HW269754   6.848  12.877  11.191
55953SOL     OW69755   9.703   2.866   1.041
55953SOL    HW169756   9.732   2.933   0.980
55953SOL    HW269757   9.700   2.786   0.989
55954SOL     OW69758   3.640  13.870  10.349
55954SOL    HW169759   3.552  13.908  10.346
55954SOL    HW269760   3.667  13.879  10.440
55955SOL     OW69761   8.368   1.629  13.299
55955SOL    HW169762   8.450   1.596  13.337
55955SOL    HW269763   8.353   1.712  13.345
55956SOL     OW69764   6.238  12.983   2.960
55956SOL    HW169765   6.291  12.992   3.039
55956SOL    HW269766   6.211  12.891   2.960
55957SOL     OW69767   8.541   3.370   4.486
55957SOL    HW169768   8.532   3.464   4.505
55957SOL    HW269769   8.469   3.329   4.533
55958SOL     OW69770  11.169   5.502  10.436
55958SOL    HW169771  11.217   5.487  10.354
55958SOL    HW269772  11.156   5.597  10.439
55959SOL     OW69773  14.585   2.149   0.345
55959SOL    HW169774  14.502   2.196   0.355
55959SOL    HW269775  14.624   2.151   0.432
55960SOL     OW69776   6.470  11.677   2.904
55960SOL    HW169777   6.565  11.677   2.893
55960SOL    HW269778   6.441  11.756   2.857
55961SOL     OW69779  13.316  11.419   7.356
55961SOL    HW169780  13.294  11.340   7.405
55961SOL    HW269781  13.232  11.457   7.333
55962SOL     OW69782   1.551  12.650   1.625
55962SOL    HW169783   1.518  12.738   1.608
55962SOL    HW269784   1.630  12.643   1.572
55963SOL     OW69785   7.069  13.728   0.261
55963SOL    HW169786   7.131  13.671   0.214
55963SOL    HW269787   7.046  13.795   0.197
55964SOL     OW69788   7.896   6.577  10.161
55964SOL    HW169789   7.958   6.581  10.233
55964SOL    HW269790   7.950   6.563  10.083
55965SOL     OW69791  13.133  13.139   0.135
55965SOL    HW169792  13.049  13.097   0.156
55965SOL    HW269793  13.143  13.127   0.041
55966SOL     OW69794  10.787  10.521   9.990
55966SOL    HW169795  10.844  10.594   9.971
55966SOL    HW269796  10.845  10.445   9.994
55967SOL     OW69797   5.326   6.941   6.618
55967SOL    HW169798   5.415   6.924   6.587
55967SOL    HW269799   5.310   6.874   6.684
55968SOL     OW69800  14.766   3.755   3.489
55968SOL    HW169801  14.738   3.842   3.518
55968SOL    HW269802  14.684   3.708   3.473
55969SOL     OW69803   4.611   6.903   2.964
55969SOL    HW169804   4.619   6.808   2.974
55969SOL    HW269805   4.673   6.925   2.895
55970SOL     OW69806   6.777   3.885   1.961
55970SOL    HW169807   6.695   3.838   1.946
55970SOL    HW269808   6.759   3.974   1.930
55971SOL     OW69809   7.216  10.468   6.740
55971SOL    HW169810   7.134  10.517   6.735
55971SOL    HW269811   7.238  10.467   6.833
55972SOL     OW69812   4.735  11.688   8.282
55972SOL    HW169813   4.821  11.729   8.281
55972SOL    HW269814   4.710  11.680   8.190
55973SOL     OW69815  12.980   7.252   8.981
55973SOL    HW169816  13.071   7.228   8.999
55973SOL    HW269817  12.930   7.171   8.997
55974SOL     OW69818   8.026  13.726  10.757
55974SOL    HW169819   7.934  13.702  10.747
55974SOL    HW269820   8.026  13.821  10.759
55975SOL     OW69821   4.180  11.705   2.506
55975SOL    HW169822   4.246  11.644   2.471
55975SOL    HW269823   4.230  11.783   2.530
55976SOL     OW69824   6.420   5.759   6.688
55976SOL    HW169825   6.404   5.853   6.679
55976SOL    HW269826   6.364   5.719   6.621
55977SOL     OW69827   2.474   1.077   4.522
55977SOL    HW169828   2.549   1.086   4.580
55977SOL    HW269829   2.501   1.120   4.441
55978SOL     OW69830  13.865   1.529   5.742
55978SOL    HW169831  13.813   1.554   5.818
55978SOL    HW269832  13.801   1.524   5.670
55979SOL     OW69833   5.707   8.942  12.614
55979SOL    HW169834   5.735   8.935  12.705
55979SOL    HW269835   5.784   8.974  12.567
55980SOL     OW69836  14.687   0.876   0.858
55980SOL    HW169837  14.731   0.834   0.784
55980SOL    HW269838  14.647   0.804   0.906
55981SOL     OW69839   4.720   8.298   9.078
55981SOL    HW169840   4.662   8.295   9.003
55981SOL    HW269841   4.688   8.229   9.136
55982SOL     OW69842   0.828  14.327   7.332
55982SOL    HW169843   0.799  14.358   7.418
55982SOL    HW269844   0.797  14.394   7.271
55983SOL     OW69845  10.316   2.238  14.722
55983SOL    HW169846  10.249   2.180  14.758
55983SOL    HW269847  10.357   2.187  14.652
55984SOL     OW69848   5.084   5.637  13.333
55984SOL    HW169849   5.041   5.722  13.343
55984SOL    HW269850   5.065   5.590  13.414
55985SOL     OW69851  14.527   4.404  11.942
55985SOL    HW169852  14.452   4.451  11.979
55985SOL    HW269853  14.582   4.473  11.904
55986SOL     OW69854  14.614   4.269   5.938
55986SOL    HW169855  14.638   4.332   6.006
55986SOL    HW269856  14.698   4.240   5.902
55987SOL     OW69857   6.958   3.902   9.938
55987SOL    HW169858   6.933   3.907   9.846
55987SOL    HW269859   6.974   3.808   9.953
55988SOL     OW69860   6.876   7.793   7.977
55988SOL    HW169861   6.917   7.809   7.892
55988SOL    HW269862   6.806   7.731   7.959
55989SOL     OW69863   7.244   7.092   5.836
55989SOL    HW169864   7.332   7.056   5.832
55989SOL    HW269865   7.235   7.142   5.754
55990SOL     OW69866   9.066   7.097   0.123
55990SOL    HW169867   9.025   7.151   0.191
55990SOL    HW269868   9.146   7.145   0.100
55991SOL     OW69869  10.899  14.210   1.767
55991SOL    HW169870  10.913  14.155   1.844
55991SOL    HW269871  10.804  14.210   1.755
55992SOL     OW69872  11.226   3.283   1.120
55992SOL    HW169873  11.190   3.195   1.114
55992SOL    HW269874  11.162   3.339   1.076
55993SOL     OW69875  12.152   8.843   2.324
55993SOL    HW169876  12.219   8.869   2.260
55993SOL    HW269877  12.160   8.747   2.329
55994SOL     OW69878   8.480   5.118   5.515
55994SOL    HW169879   8.427   5.153   5.587
55994SOL    HW269880   8.568   5.154   5.530
55995SOL     OW69881  11.526  10.303  12.455
55995SOL    HW169882  11.580  10.228  12.429
55995SOL    HW269883  11.585  10.360  12.503
55996SOL     OW69884  12.337  13.308  12.608
55996SOL    HW169885  12.316  13.388  12.560
55996SOL    HW269886  12.394  13.259  12.549
55997SOL     OW69887   8.816   8.626   2.082
55997SOL    HW169888   8.812   8.621   1.987
55997SOL    HW269889   8.863   8.707   2.100
55998SOL     OW69890   9.408   6.962  11.913
55998SOL    HW169891   9.446   7.023  11.976
55998SOL    HW269892   9.314   6.980  11.916
55999SOL     OW69893   5.700  13.558  10.202
55999SOL    HW169894   5.643  13.502  10.255
55999SOL    HW269895   5.777  13.572  10.256
56000SOL     OW69896   0.966   6.806   2.500
56000SOL    HW169897   0.887   6.758   2.474
56000SOL    HW269898   1.038   6.753   2.466
56001SOL     OW69899   4.923   0.107   9.019
56001SOL    HW169900   4.911   0.063   8.935
56001SOL    HW269901   4.989   0.174   9.002
56002SOL     OW69902   4.762   5.974   6.974
56002SOL    HW169903   4.813   5.968   6.893
56002SOL    HW269904   4.787   6.059   7.011
56003SOL     OW69905  12.945   2.231   9.243
56003SOL    HW169906  12.858   2.197   9.218
56003SOL    HW269907  12.929   2.321   9.271
56004SOL     OW69908  13.014   3.445  14.001
56004SOL    HW169909  12.999   3.525  14.052
56004SOL    HW269910  12.961   3.379  14.045
56005SOL     OW69911   6.785  12.881   2.106
56005SOL    HW169912   6.787  12.906   2.013
56005SOL    HW269913   6.693  12.860   2.123
56006SOL     OW69914   7.092   9.372   1.900
56006SOL    HW169915   7.082   9.444   1.839
56006SOL    HW269916   7.031   9.305   1.870
56007SOL     OW69917  12.005   2.519   1.226
56007SOL    HW169918  12.002   2.594   1.166
56007SOL    HW269919  11.953   2.452   1.182
56008SOL     OW69920  12.847  10.985   5.690
56008SOL    HW169921  12.784  11.057   5.697
56008SOL    HW269922  12.868  10.981   5.596
56009SOL     OW69923   4.356  11.006  14.369
56009SOL    HW169924   4.273  10.959  14.385
56009SOL    HW269925   4.347  11.088  14.417
56010SOL     OW69926   4.248  10.539  12.932
56010SOL    HW169927   4.183  10.548  13.001
56010SOL    HW269928   4.332  10.556  12.975
56011SOL     OW69929   1.125  10.209  13.856
56011SOL    HW169930   1.075  10.221  13.937
56011SOL    HW269931   1.077  10.141  13.808
56012SOL     OW69932   2.559  13.884   1.150
56012SOL    HW169933   2.600  13.802   1.120
56012SOL    HW269934   2.611  13.953   1.109
56013SOL     OW69935  12.790   6.685  11.988
56013SOL    HW169936  12.767   6.605  11.939
56013SOL    HW269937  12.727   6.750  11.957
56014SOL     OW69938   5.295   3.461   5.285
56014SOL    HW169939   5.367   3.441   5.345
56014SOL    HW269940   5.302   3.555   5.269
56015SOL     OW69941   5.602   0.374   4.117
56015SOL    HW169942   5.556   0.364   4.033
56015SOL    HW269943   5.597   0.287   4.157
56016SOL     OW69944   4.124   7.812  11.986
56016SOL    HW169945   4.029   7.800  11.979
56016SOL    HW269946   4.137   7.847  12.074
56017SOL     OW69947   5.571  10.257   5.235
56017SOL    HW169948   5.634  10.246   5.164
56017SOL    HW269949   5.625  10.254   5.314
56018SOL     OW69950  14.496   4.779   9.377
56018SOL    HW169951  14.458   4.714   9.436
56018SOL    HW269952  14.435   4.784   9.304
56019SOL     OW69953   0.341   8.278  10.150
56019SOL    HW169954   0.287   8.347  10.111
56019SOL    HW269955   0.291   8.249  10.226
56020SOL     OW69956  14.499  10.406   7.593
56020SOL    HW169957  14.489  10.426   7.686
56020SOL    HW269958  14.548  10.325   7.590
56021SOL     OW69959   5.847   7.573   9.380
56021SOL    HW169960   5.886   7.506   9.325
56021SOL    HW269961   5.917   7.638   9.392
56022SOL     OW69962  12.860   6.107   7.727
56022SOL    HW169963  12.821   6.020   7.728
56022SOL    HW269964  12.805   6.159   7.786
56023SOL     OW69965   0.631   8.490   7.257
56023SOL    HW169966   0.608   8.448   7.174
56023SOL    HW269967   0.703   8.436   7.291
56024SOL     OW69968   7.897   9.232  10.665
56024SOL    HW169969   7.948   9.201  10.590
56024SOL    HW269970   7.955   9.293  10.710
56025SOL     OW69971   0.788  12.911   4.608
56025SOL    HW169972   0.859  12.849   4.594
56025SOL    HW269973   0.786  12.925   4.703
56026SOL     OW69974   3.834   5.530   1.266
56026SOL    HW169975   3.927   5.537   1.290
56026SOL    HW269976   3.810   5.441   1.292
56027SOL     OW69977   0.228   2.881   9.801
56027SOL    HW169978   0.150   2.921   9.762
56027SOL    HW269979   0.245   2.933   9.879
56028SOL     OW69980   2.861  14.506   6.774
56028SOL    HW169981   2.783  14.560   6.765
56028SOL    HW269982   2.852  14.463   6.859
56029SOL     OW69983   8.377  13.219  14.247
56029SOL    HW169984   8.355  13.308  14.273
56029SOL    HW269985   8.301  13.167  14.272
56030SOL     OW69986   9.271  13.859   1.264
56030SOL    HW169987   9.264  13.793   1.195
56030SOL    HW269988   9.186  13.854   1.310
56031SOL     OW69989  11.661   2.013  12.546
56031SOL    HW169990  11.624   2.016  12.635
56031SOL    HW269991  11.689   2.103  12.529
56032SOL     OW69992   7.697  11.227   6.805
56032SOL    HW169993   7.726  11.168   6.734
56032SOL    HW269994   7.652  11.170   6.867
56033SOL     OW69995  12.248   5.407   7.464
56033SOL    HW169996  12.162   5.370   7.449
56033SOL    HW269997  12.231   5.496   7.496
56034SOL     OW69998   0.196   4.630   6.285
56034SOL    HW169999   0.101   4.639   6.275
56034SOL    HW270000   0.227   4.720   6.295
56035SOL     OW70001   8.269   9.619  14.752
56035SOL    HW170002   8.249   9.565  14.829
56035SOL    HW270003   8.210   9.587  14.684
56036SOL     OW70004  12.971   7.920  14.189
56036SOL    HW170005  12.936   7.980  14.122
56036SOL    HW270006  12.979   7.836  14.143
56037SOL     OW70007   9.831   1.302  11.471
56037SOL    HW170008   9.854   1.267  11.386
56037SOL    HW270009   9.911   1.293  11.524
56038SOL     OW70010  14.332   3.850  10.891
56038SOL    HW170011  14.259   3.840  10.829
56038SOL    HW270012  14.292   3.839  10.977
56039SOL     OW70013  14.272   7.156  12.487
56039SOL    HW170014  14.292   7.209  12.564
56039SOL    HW270015  14.241   7.072  12.523
56040SOL     OW70016   7.787   0.671   6.969
56040SOL    HW170017   7.749   0.640   7.051
56040SOL    HW270018   7.720   0.729   6.932
56041SOL     OW70019   4.202   4.618   8.824
56041SOL    HW170020   4.140   4.690   8.811
56041SOL    HW270021   4.156   4.557   8.882
56042SOL     OW70022   9.904   4.452   5.356
56042SOL    HW170023   9.904   4.516   5.427
56042SOL    HW270024   9.820   4.407   5.363
56043SOL     OW70025   0.751  13.597   2.007
56043SOL    HW170026   0.754  13.530   1.939
56043SOL    HW270027   0.842  13.609   2.035
56044SOL     OW70028   0.555   1.025  12.209
56044SOL    HW170029   0.650   1.037  12.211
56044SOL    HW270030   0.524   1.092  12.148
56045SOL     OW70031   8.804  11.218  14.846
56045SOL    HW170032   8.785  11.312  14.838
56045SOL    HW270033   8.725  11.175  14.812
56046SOL     OW70034   9.241  11.099   8.040
56046SOL    HW170035   9.175  11.070   8.103
56046SOL    HW270036   9.217  11.056   7.958
56047SOL     OW70037   2.314   2.866   9.008
56047SOL    HW170038   2.238   2.881   9.064
56047SOL    HW270039   2.310   2.773   8.986
56048SOL     OW70040   8.846   4.226   1.933
56048SOL    HW170041   8.815   4.175   1.857
56048SOL    HW270042   8.903   4.293   1.895
56049SOL     OW70043   2.091  14.686   3.514
56049SOL    HW170044   2.042  14.698   3.433
56049SOL    HW270045   2.126  14.773   3.534
56050SOL     OW70046   0.409   8.770   0.113
56050SOL    HW170047   0.485   8.794   0.166
56050SOL    HW270048   0.427   8.807   0.026
56051SOL     OW70049   5.737   6.224   4.631
56051SOL    HW170050   5.785   6.170   4.569
56051SOL    HW270051   5.652   6.238   4.590
56052SOL     OW70052  12.971   0.172   1.541
56052SOL    HW170053  13.031   0.110   1.498
56052SOL    HW270054  12.889   0.124   1.548
56053SOL     OW70055   8.054   0.285   2.539
56053SOL    HW170056   8.026   0.364   2.587
56053SOL    HW270057   8.117   0.317   2.475
56054SOL     OW70058   6.605   3.076   9.389
56054SOL    HW170059   6.590   3.134   9.464
56054SOL    HW270060   6.539   3.102   9.325
56055SOL     OW70061  13.457   4.306  11.531
56055SOL    HW170062  13.420   4.222  11.556
56055SOL    HW270063  13.395   4.342  11.468
56056SOL     OW70064  13.780  10.586   6.297
56056SOL    HW170065  13.711  10.538   6.343
56056SOL    HW270066  13.820  10.521   6.239
56057SOL     OW70067   9.881   7.725  14.422
56057SOL    HW170068   9.888   7.656  14.356
56057SOL    HW270069   9.790   7.753  14.417
56058SOL     OW70070   0.281   5.689  10.587
56058SOL    HW170071   0.245   5.697  10.499
56058SOL    HW270072   0.272   5.596  10.608
56059SOL     OW70073   9.800   9.517   5.529
56059SOL    HW170074   9.767   9.540   5.442
56059SOL    HW270075   9.874   9.576   5.544
56060SOL     OW70076   4.143  11.877   0.594
56060SOL    HW170077   4.166  11.867   0.687
56060SOL    HW270078   4.224  11.906   0.552
56061SOL     OW70079  13.650   6.060  12.983
56061SOL    HW170080  13.560   6.038  13.003
56061SOL    HW270081  13.699   6.040  13.063
56062SOL     OW70082   8.628   3.625  14.025
56062SOL    HW170083   8.672   3.565  14.086
56062SOL    HW270084   8.535   3.618  14.046
56063SOL     OW70085   2.406  14.798  10.450
56063SOL    HW170086   2.397  14.708  10.480
56063SOL    HW270087   2.331  14.844  10.488
56064SOL     OW70088  12.367  13.353   9.506
56064SOL    HW170089  12.293  13.376   9.562
56064SOL    HW270090  12.342  13.270   9.465
56065SOL     OW70091   2.799   7.861  10.239
56065SOL    HW170092   2.892   7.867  10.259
56065SOL    HW270093   2.787   7.918  10.163
56066SOL     OW70094   3.506   4.321   1.778
56066SOL    HW170095   3.458   4.335   1.697
56066SOL    HW270096   3.483   4.397   1.832
56067SOL     OW70097   6.756   6.970  14.063
56067SOL    HW170098   6.703   6.890  14.054
56067SOL    HW270099   6.830   6.943  14.118
56068SOL     OW70100  12.972   8.733  12.873
56068SOL    HW170101  13.002   8.823  12.857
56068SOL    HW270102  13.022   8.679  12.812
56069SOL     OW70103   2.484   3.838   5.652
56069SOL    HW170104   2.428   3.784   5.596
56069SOL    HW270105   2.485   3.924   5.610
56070SOL     OW70106   3.544   1.057   8.016
56070SOL    HW170107   3.473   1.061   7.952
56070SOL    HW270108   3.508   1.099   8.094
56071SOL     OW70109  12.275  12.190   6.374
56071SOL    HW170110  12.197  12.135   6.383
56071SOL    HW270111  12.320  12.155   6.297
56072SOL     OW70112   4.814   5.136   2.774
56072SOL    HW170113   4.810   5.041   2.763
56072SOL    HW270114   4.726   5.166   2.752
56073SOL     OW70115   6.348  10.934  12.030
56073SOL    HW170116   6.346  10.957  11.937
56073SOL    HW270117   6.407  10.859  12.035
56074SOL     OW70118   1.963   0.301   0.556
56074SOL    HW170119   2.017   0.226   0.579
56074SOL    HW270120   1.890   0.264   0.506
56075SOL     OW70121   1.405  12.971  13.636
56075SOL    HW170122   1.456  12.970  13.717
56075SOL    HW270123   1.315  12.955  13.665
56076SOL     OW70124   4.195  14.757   0.833
56076SOL    HW170125   4.225  14.666   0.825
56076SOL    HW270126   4.187  14.787   0.742
56077SOL     OW70127  11.217   2.988   5.223
56077SOL    HW170128  11.264   2.921   5.272
56077SOL    HW270129  11.260   2.991   5.138
56078SOL     OW70130   7.358   8.280  11.233
56078SOL    HW170131   7.399   8.351  11.185
56078SOL    HW270132   7.423   8.210  11.234
56079SOL     OW70133   4.397   9.174   6.965
56079SOL    HW170134   4.481   9.151   6.926
56079SOL    HW270135   4.344   9.095   6.955
56080SOL     OW70136   9.191  13.479   8.498
56080SOL    HW170137   9.115  13.434   8.536
56080SOL    HW270138   9.214  13.426   8.422
56081SOL     OW70139  10.475   2.376   3.370
56081SOL    HW170140  10.428   2.458   3.358
56081SOL    HW270141  10.563   2.402   3.399
56082SOL     OW70142  14.443   1.285   8.416
56082SOL    HW170143  14.381   1.229   8.369
56082SOL    HW270144  14.485   1.226   8.478
56083SOL     OW70145   4.381  11.890   0.477
56083SOL    HW170146   4.453  11.929   0.526
56083SOL    HW270147   4.397  11.916   0.386
56084SOL     OW70148   6.348  12.946  11.589
56084SOL    HW170149   6.338  13.040  11.605
56084SOL    HW270150   6.327  12.935  11.497
56085SOL     OW70151   9.921  13.819   6.208
56085SOL    HW170152   9.904  13.880   6.280
56085SOL    HW270153   9.839  13.817   6.159
56086SOL     OW70154   5.104   5.276   0.100
56086SOL    HW170155   5.189   5.275   0.055
56086SOL    HW270156   5.127   5.285   0.193
56087SOL     OW70157   1.330   8.139   7.723
56087SOL    HW170158   1.364   8.177   7.642
56087SOL    HW270159   1.276   8.066   7.695
56088SOL     OW70160   1.210   1.070  11.103
56088SOL    HW170161   1.120   1.072  11.134
56088SOL    HW270162   1.209   1.124  11.024
56089SOL     OW70163  13.811  11.891   8.666
56089SOL    HW170164  13.754  11.826   8.625
56089SOL    HW270165  13.792  11.885   8.760
56090SOL     OW70166  11.490  10.605   7.709
56090SOL    HW170167  11.471  10.581   7.799
56090SOL    HW270168  11.571  10.656   7.713
56091SOL     OW70169   6.079  12.783  14.826
56091SOL    HW170170   6.002  12.744  14.784
56091SOL    HW270171   6.107  12.718   0.008
56092SOL     OW70172   3.682   9.886   7.669
56092SOL    HW170173   3.615   9.952   7.687
56092SOL    HW270174   3.678   9.873   7.574
56093SOL     OW70175  11.228   4.050   7.262
56093SOL    HW170176  11.202   4.130   7.216
56093SOL    HW270177  11.288   4.006   7.202
56094SOL     OW70178   8.859  13.722  13.162
56094SOL    HW170179   8.847  13.641  13.111
56094SOL    HW270180   8.780  13.727  13.215
56095SOL     OW70181   3.738   0.102  14.776
56095SOL    HW170182   3.647   0.104  14.806
56095SOL    HW270183   3.731   0.099  14.681
56096SOL     OW70184  13.089  14.464   8.286
56096SOL    HW170185  13.000  14.432   8.277
56096SOL    HW270186  13.090  14.547   8.237
56097SOL     OW70187   6.364   7.513  10.747
56097SOL    HW170188   6.297   7.453  10.715
56097SOL    HW270189   6.352   7.593  10.696
56098SOL     OW70190   3.466   1.190  10.508
56098SOL    HW170191   3.471   1.113  10.450
56098SOL    HW270192   3.412   1.160  10.582
56099SOL     OW70193   5.748   6.115   1.320
56099SOL    HW170194   5.755   6.077   1.407
56099SOL    HW270195   5.748   6.210   1.335
56100SOL     OW70196   2.573   9.073   8.558
56100SOL    HW170197   2.576   8.977   8.552
56100SOL    HW270198   2.520   9.100   8.484
56101SOL     OW70199   9.244   4.584  10.251
56101SOL    HW170200   9.239   4.596  10.156
56101SOL    HW270201   9.162   4.541  10.274
56102SOL     OW70202   1.645   1.826   4.327
56102SOL    HW170203   1.699   1.746   4.326
56102SOL    HW270204   1.649   1.857   4.417
56103SOL     OW70205   3.068   3.022   6.096
56103SOL    HW170206   3.031   2.945   6.053
56103SOL    HW270207   3.063   3.091   6.030
56104SOL     OW70208   2.965   9.302   7.623
56104SOL    HW170209   2.974   9.210   7.649
56104SOL    HW270210   2.946   9.298   7.529
56105SOL     OW70211   8.329  12.385  10.836
56105SOL    HW170212   8.244  12.405  10.797
56105SOL    HW270213   8.327  12.427  10.922
56106SOL     OW70214  13.923   3.300  12.515
56106SOL    HW170215  13.862   3.269  12.448
56106SOL    HW270216  13.991   3.233  12.518
56107SOL     OW70217   9.576   9.212   9.734
56107SOL    HW170218   9.552   9.186   9.645
56107SOL    HW270219   9.494   9.210   9.782
56108SOL     OW70220   6.052   9.250   4.290
56108SOL    HW170221   6.101   9.193   4.230
56108SOL    HW270222   6.105   9.250   4.370
56109SOL     OW70223   4.828   0.221   5.010
56109SOL    HW170224   4.799   0.225   5.102
56109SOL    HW270225   4.921   0.201   5.016
56110SOL     OW70226  13.323   6.022   9.771
56110SOL    HW170227  13.411   6.060   9.783
56110SOL    HW270228  13.271   6.063   9.840
56111SOL     OW70229  11.702   7.521  11.114
56111SOL    HW170230  11.621   7.559  11.148
56111SOL    HW270231  11.702   7.431  11.147
56112SOL     OW70232  11.196   1.408  12.893
56112SOL    HW170233  11.105   1.417  12.921
56112SOL    HW270234  11.212   1.484  12.836
56113SOL     OW70235   6.040  13.656  12.719
56113SOL    HW170236   5.956  13.610  12.727
56113SOL    HW270237   6.052  13.699  12.804
56114SOL     OW70238  12.517   8.707   0.490
56114SOL    HW170239  12.605   8.672   0.502
56114SOL    HW270240  12.491   8.737   0.578
56115SOL     OW70241  12.929   2.816   6.267
56115SOL    HW170242  12.936   2.727   6.300
56115SOL    HW270243  12.837   2.825   6.239
56116SOL     OW70244   9.698   0.314  12.134
56116SOL    HW170245   9.660   0.226  12.125
56116SOL    HW270246   9.633   0.363  12.185
56117SOL     OW70247   3.628   9.511  13.336
56117SOL    HW170248   3.668   9.459  13.266
56117SOL    HW270249   3.639   9.602  13.308
56118SOL     OW70250   6.522   2.444   7.343
56118SOL    HW170251   6.441   2.459   7.392
56118SOL    HW270252   6.525   2.516   7.279
56119SOL     OW70253  12.447  12.580  13.288
56119SOL    HW170254  12.399  12.591  13.206
56119SOL    HW270255  12.507  12.655  13.291
56120SOL     OW70256   3.286  14.516   3.074
56120SOL    HW170257   3.233  14.489   2.999
56120SOL    HW270258   3.372  14.478   3.058
56121SOL     OW70259   5.658  10.787  10.501
56121SOL    HW170260   5.605  10.857  10.463
56121SOL    HW270261   5.613  10.706  10.476
56122SOL     OW70262  13.929   9.555   8.284
56122SOL    HW170263  13.908   9.502   8.361
56122SOL    HW270264  13.997   9.614   8.315
56123SOL     OW70265   9.405   7.413   8.926
56123SOL    HW170266   9.396   7.326   8.963
56123SOL    HW270267   9.500   7.429   8.922
56124SOL     OW70268   6.880   6.197   8.816
56124SOL    HW170269   6.849   6.218   8.904
56124SOL    HW270270   6.954   6.137   8.830
56125SOL     OW70271   3.928  13.334   7.693
56125SOL    HW170272   3.975  13.263   7.736
56125SOL    HW270273   3.935  13.315   7.600
56126SOL     OW70274   1.454   8.720  14.214
56126SOL    HW170275   1.388   8.723  14.145
56126SOL    HW270276   1.435   8.796  14.269
56127SOL     OW70277  12.462   1.109   5.244
56127SOL    HW170278  12.381   1.066   5.272
56127SOL    HW270279  12.469   1.185   5.302
56128SOL     OW70280   4.086   9.197   5.086
56128SOL    HW170281   4.069   9.237   5.001
56128SOL    HW270282   4.149   9.127   5.067
56129SOL     OW70283   6.689  13.886   5.360
56129SOL    HW170284   6.647  13.972   5.370
56129SOL    HW270285   6.685  13.868   5.266
56130SOL     OW70286  11.095   3.510  14.197
56130SOL    HW170287  11.071   3.456  14.272
56130SOL    HW270288  11.071   3.599  14.222
56131SOL     OW70289   2.389   6.083   9.683
56131SOL    HW170290   2.413   6.159   9.736
56131SOL    HW270291   2.304   6.105   9.646
56132SOL     OW70292  12.803  14.044   9.897
56132SOL    HW170293  12.748  14.106   9.849
56132SOL    HW270294  12.878  14.028   9.839
56133SOL     OW70295  13.898   0.800   7.350
56133SOL    HW170296  13.987   0.815   7.383
56133SOL    HW270297  13.872   0.884   7.312
56134SOL     OW70298   3.550   8.938   5.658
56134SOL    HW170299   3.467   8.983   5.671
56134SOL    HW270300   3.608   9.003   5.619
56135SOL     OW70301   8.458   0.637   9.128
56135SOL    HW170302   8.512   0.716   9.124
56135SOL    HW270303   8.427   0.634   9.218
56136SOL     OW70304  13.090   7.979  10.208
56136SOL    HW170305  13.014   7.961  10.264
56136SOL    HW270306  13.051   8.010  10.126
56137SOL     OW70307   7.077   9.976  11.210
56137SOL    HW170308   7.171   9.980  11.193
56137SOL    HW270309   7.065   9.895  11.259
56138SOL     OW70310   6.123   0.948  10.417
56138SOL    HW170311   6.040   0.913  10.387
56138SOL    HW270312   6.137   1.026  10.363
56139SOL     OW70313   4.270  12.725  12.214
56139SOL    HW170314   4.274  12.794  12.280
56139SOL    HW270315   4.357  12.722  12.176
56140SOL     OW70316   8.404  11.726  13.323
56140SOL    HW170317   8.345  11.664  13.281
56140SOL    HW270318   8.485  11.677  13.338
56141SOL     OW70319  12.124  12.023   2.746
56141SOL    HW170320  12.119  11.964   2.821
56141SOL    HW270321  12.211  12.061   2.751
56142SOL     OW70322   9.857   4.574  14.681
56142SOL    HW170323   9.889   4.512  14.616
56142SOL    HW270324   9.881   4.660  14.646
56143SOL     OW70325   1.216  12.403   0.295
56143SOL    HW170326   1.234  12.395   0.201
56143SOL    HW270327   1.261  12.328   0.334
56144SOL     OW70328   6.043   4.046   4.837
56144SOL    HW170329   6.115   4.018   4.894
56144SOL    HW270330   6.032   3.974   4.775
56145SOL     OW70331  12.596   3.539   3.692
56145SOL    HW170332  12.684   3.518   3.660
56145SOL    HW270333  12.605   3.537   3.787
56146SOL     OW70334   2.366   8.882   9.470
56146SOL    HW170335   2.309   8.886   9.547
56146SOL    HW270336   2.454   8.892   9.506
56147SOL     OW70337  13.074   9.256  11.422
56147SOL    HW170338  13.088   9.272  11.329
56147SOL    HW270339  13.086   9.342  11.462
56148SOL     OW70340   5.872   7.390   3.162
56148SOL    HW170341   5.947   7.365   3.108
56148SOL    HW270342   5.846   7.310   3.207
56149SOL     OW70343  11.185  14.401   9.766
56149SOL    HW170344  11.106  14.352   9.789
56149SOL    HW270345  11.161  14.493   9.779
56150SOL     OW70346   1.500   7.918   7.831
56150SOL    HW170347   1.496   7.864   7.752
56150SOL    HW270348   1.442   7.992   7.812
56151SOL     OW70349  10.266  11.108   2.933
56151SOL    HW170350  10.272  11.192   2.978
56151SOL    HW270351  10.318  11.120   2.854
56152SOL     OW70352   7.561   0.035   5.869
56152SOL    HW170353   7.567   0.007   5.778
56152SOL    HW270354   7.541   0.129   5.864
56153SOL     OW70355  13.564  13.807   3.393
56153SOL    HW170356  13.659  13.801   3.381
56153SOL    HW270357  13.535  13.870   3.328
56154SOL     OW70358   4.330  12.769   5.364
56154SOL    HW170359   4.360  12.699   5.422
56154SOL    HW270360   4.410  12.808   5.329
56155SOL     OW70361   3.414   2.420   6.913
56155SOL    HW170362   3.421   2.366   6.992
56155SOL    HW270363   3.496   2.403   6.866
56156SOL     OW70364   6.101   3.023   3.387
56156SOL    HW170365   6.115   2.952   3.449
56156SOL    HW270366   6.135   2.991   3.304
56157SOL     OW70367  11.743  13.001   6.829
56157SOL    HW170368  11.698  13.081   6.804
56157SOL    HW270369  11.788  13.023   6.910
56158SOL     OW70370   5.762   4.008   5.240
56158SOL    HW170371   5.758   3.998   5.145
56158SOL    HW270372   5.853   3.990   5.262
56159SOL     OW70373  11.998   1.615   1.660
56159SOL    HW170374  12.075   1.562   1.682
56159SOL    HW270375  12.012   1.699   1.703
56160SOL     OW70376   3.469   7.835   8.785
56160SOL    HW170377   3.550   7.865   8.743
56160SOL    HW270378   3.491   7.825   8.877
56161SOL     OW70379  10.315   2.532   8.880
56161SOL    HW170380  10.262   2.563   8.954
56161SOL    HW270381  10.257   2.541   8.805
56162SOL     OW70382   1.494  10.730  10.630
56162SOL    HW170383   1.584  10.729  10.599
56162SOL    HW270384   1.501  10.735  10.725
56163SOL     OW70385  14.039  13.735   7.686
56163SOL    HW170386  14.122  13.718   7.641
56163SOL    HW270387  13.988  13.786   7.623
56164SOL     OW70388   7.456   4.556   5.387
56164SOL    HW170389   7.464   4.562   5.292
56164SOL    HW270390   7.363   4.575   5.404
56165SOL     OW70391  11.447  10.487  12.763
56165SOL    HW170392  11.483  10.545  12.830
56165SOL    HW270393  11.509  10.493  12.691
56166SOL     OW70394  12.911   3.709   6.003
56166SOL    HW170395  12.929   3.784   6.061
56166SOL    HW270396  12.880   3.749   5.922
56167SOL     OW70397   0.621   0.808  10.596
56167SOL    HW170398   0.573   0.802  10.679
56167SOL    HW270399   0.713   0.814  10.622
56168SOL     OW70400   9.613  13.788  13.700
56168SOL    HW170401   9.579  13.722  13.761
56168SOL    HW270402   9.699  13.755  13.675
56169SOL     OW70403   1.044   6.089   5.323
56169SOL    HW170404   1.021   6.066   5.413
56169SOL    HW270405   1.107   6.161   5.332
56170SOL     OW70406   5.738  11.777   7.963
56170SOL    HW170407   5.658  11.781   7.910
56170SOL    HW270408   5.708  11.747   8.050
56171SOL     OW70409   3.529  12.296  14.119
56171SOL    HW170410   3.588  12.318  14.192
56171SOL    HW270411   3.452  12.351  14.134
56172SOL     OW70412   6.724  11.203  11.726
56172SOL    HW170413   6.780  11.268  11.769
56172SOL    HW270414   6.652  11.189  11.788
56173SOL     OW70415   4.422   9.482   5.853
56173SOL    HW170416   4.334   9.444   5.850
56173SOL    HW270417   4.407   9.576   5.864
56174SOL     OW70418   9.868   8.231   3.868
56174SOL    HW170419   9.840   8.262   3.781
56174SOL    HW270420   9.956   8.197   3.853
56175SOL     OW70421   3.854  13.316   5.496
56175SOL    HW170422   3.847  13.356   5.582
56175SOL    HW270423   3.948  13.305   5.482
56176SOL     OW70424   1.109   5.568  13.708
56176SOL    HW170425   1.078   5.493  13.657
56176SOL    HW270426   1.052   5.571  13.784
56177SOL     OW70427   8.070  10.338   8.703
56177SOL    HW170428   8.051  10.403   8.636
56177SOL    HW270429   8.142  10.286   8.666
56178SOL     OW70430   7.782   7.426  14.012
56178SOL    HW170431   7.721   7.489  13.973
56178SOL    HW270432   7.776   7.442  14.106
56179SOL     OW70433   4.098   3.740   4.790
56179SOL    HW170434   4.004   3.741   4.803
56179SOL    HW270435   4.131   3.812   4.844
56180SOL     OW70436   0.728   2.779   3.458
56180SOL    HW170437   0.656   2.741   3.408
56180SOL    HW270438   0.771   2.705   3.500
56181SOL     OW70439  10.127  10.713   9.333
56181SOL    HW170440  10.050  10.768   9.316
56181SOL    HW270441  10.096  10.648   9.396
56182SOL     OW70442  11.620  11.591   7.071
56182SOL    HW170443  11.689  11.525   7.064
56182SOL    HW270444  11.592  11.588   7.163
56183SOL     OW70445   8.048   1.400   1.200
56183SOL    HW170446   8.140   1.371   1.197
56183SOL    HW270447   8.030   1.410   1.293
56184SOL     OW70448  11.544   0.596   4.715
56184SOL    HW170449  11.531   0.690   4.725
56184SOL    HW270450  11.494   0.557   4.787
56185SOL     OW70451  13.906  13.535  12.845
56185SOL    HW170452  13.866  13.622  12.849
56185SOL    HW270453  13.833  13.476  12.827
56186SOL     OW70454   3.360  13.648  12.341
56186SOL    HW170455   3.278  13.685  12.374
56186SOL    HW270456   3.393  13.715  12.280
56187SOL     OW70457   6.151   7.104   7.268
56187SOL    HW170458   6.147   7.019   7.312
56187SOL    HW270459   6.186   7.085   7.181
56188SOL     OW70460  12.956  10.660  14.039
56188SOL    HW170461  13.028  10.636  13.981
56188SOL    HW270462  12.922  10.576  14.070
56189SOL     OW70463  10.252  10.918   4.874
56189SOL    HW170464  10.260  10.835   4.920
56189SOL    HW270465  10.189  10.901   4.803
56190SOL     OW70466  12.987   0.549   3.210
56190SOL    HW170467  12.992   0.642   3.192
56190SOL    HW270468  12.978   0.543   3.305
56191SOL     OW70469   4.803   3.147   2.017
56191SOL    HW170470   4.738   3.143   1.947
56191SOL    HW270471   4.803   3.238   2.045
56192SOL     OW70472  10.871   5.093   7.677
56192SOL    HW170473  10.838   5.146   7.750
56192SOL    HW270474  10.822   5.011   7.684
56193SOL     OW70475   1.134   6.478  10.962
56193SOL    HW170476   1.051   6.476  10.915
56193SOL    HW270477   1.180   6.554  10.926
56194SOL     OW70478   4.764  13.421   9.391
56194SOL    HW170479   4.704  13.428   9.317
56194SOL    HW270480   4.799  13.509   9.402
56195SOL     OW70481   4.650   0.583  10.835
56195SOL    HW170482   4.698   0.561  10.915
56195SOL    HW270483   4.695   0.534  10.766
56196SOL     OW70484  13.022   8.543  13.454
56196SOL    HW170485  12.944   8.522  13.506
56196SOL    HW270486  13.000   8.624  13.409
56197SOL     OW70487   7.417   9.418   5.968
56197SOL    HW170488   7.417   9.509   5.999
56197SOL    HW270489   7.389   9.423   5.877
56198SOL     OW70490   3.350   7.841   3.264
56198SOL    HW170491   3.413   7.870   3.329
56198SOL    HW270492   3.329   7.920   3.214
56199SOL     OW70493   6.604   5.174   3.287
56199SOL    HW170494   6.632   5.241   3.350
56199SOL    HW270495   6.551   5.223   3.223
56200SOL     OW70496   1.710   9.298  11.647
56200SOL    HW170497   1.767   9.373  11.664
56200SOL    HW270498   1.760   9.243  11.587
56201SOL     OW70499   0.585  10.875   8.362
56201SOL    HW170500   0.525  10.947   8.348
56201SOL    HW270501   0.546  10.823   8.432
56202SOL     OW70502  10.998   4.044  11.698
56202SOL    HW170503  10.939   4.117  11.715
56202SOL    HW270504  11.000   3.994  11.780
56203SOL     OW70505   7.447   7.058   8.771
56203SOL    HW170506   7.446   6.994   8.841
56203SOL    HW270507   7.492   7.015   8.699
56204SOL     OW70508   8.890  14.050  14.860
56204SOL    HW170509   8.810  14.016   0.017
56204SOL    HW270510   8.928  14.105   0.047
56205SOL     OW70511  10.840  13.521   0.675
56205SOL    HW170512  10.797  13.539   0.758
56205SOL    HW270513  10.806  13.435   0.648
56206SOL     OW70514  13.013   0.841   0.912
56206SOL    HW170515  12.940   0.852   0.973
56206SOL    HW270516  13.073   0.781   0.957
56207SOL     OW70517  14.535   8.314   8.204
56207SOL    HW170518  14.598   8.327   8.275
56207SOL    HW270519  14.583   8.266   8.138
56208SOL     OW70520  13.754  13.312  12.863
56208SOL    HW170521  13.682  13.290  12.921
56208SOL    HW270522  13.815  13.239  12.871
56209SOL     OW70523   4.517  14.100   0.502
56209SOL    HW170524   4.466  14.108   0.421
56209SOL    HW270525   4.455  14.061   0.564
56210SOL     OW70526   5.557   6.770  14.012
56210SOL    HW170527   5.520   6.827  13.944
56210SOL    HW270528   5.583   6.691  13.966
56211SOL     OW70529  10.431   5.827   3.695
56211SOL    HW170530  10.342   5.828   3.660
56211SOL    HW270531  10.446   5.917   3.724
56212SOL     OW70532   5.732  12.526   8.945
56212SOL    HW170533   5.736  12.495   9.036
56212SOL    HW270534   5.666  12.595   8.946
56213SOL     OW70535   3.180   6.943   6.586
56213SOL    HW170536   3.102   6.889   6.597
56213SOL    HW270537   3.240   6.912   6.654
56214SOL     OW70538   5.960   6.751   1.347
56214SOL    HW170539   5.875   6.796   1.340
56214SOL    HW270540   6.019   6.816   1.383
56215SOL     OW70541   9.294   2.874  14.329
56215SOL    HW170542   9.306   2.898  14.420
56215SOL    HW270543   9.199   2.860  14.320
56216SOL     OW70544   5.582   6.199  11.112
56216SOL    HW170545   5.587   6.105  11.125
56216SOL    HW270546   5.517   6.229  11.175
56217SOL     OW70547  11.176  13.895   3.052
56217SOL    HW170548  11.270  13.915   3.044
56217SOL    HW270549  11.141  13.968   3.102
56218SOL     OW70550   2.120  11.296  10.500
56218SOL    HW170551   2.031  11.331  10.505
56218SOL    HW270552   2.159  11.317  10.585
56219SOL     OW70553   9.329  12.116   7.415
56219SOL    HW170554   9.402  12.171   7.385
56219SOL    HW270555   9.286  12.169   7.482
56220SOL     OW70556   1.417   2.665   3.992
56220SOL    HW170557   1.470   2.622   3.925
56220SOL    HW270558   1.473   2.735   4.026
56221SOL     OW70559  14.066   5.218   0.945
56221SOL    HW170560  14.028   5.262   0.869
56221SOL    HW270561  14.039   5.126   0.935
56222SOL     OW70562   4.849   2.576  13.579
56222SOL    HW170563   4.852   2.502  13.639
56222SOL    HW270564   4.851   2.653  13.637
56223SOL     OW70565  13.739  12.954   0.536
56223SOL    HW170566  13.798  12.899   0.587
56223SOL    HW270567  13.655  12.909   0.539
56224SOL     OW70568  12.162   7.776   7.747
56224SOL    HW170569  12.205   7.721   7.682
56224SOL    HW270570  12.164   7.724   7.828
56225SOL     OW70571   5.140   3.093  11.097
56225SOL    HW170572   5.065   3.051  11.139
56225SOL    HW270573   5.102   3.165  11.046
56226SOL     OW70574  12.792   8.433   2.242
56226SOL    HW170575  12.776   8.365   2.176
56226SOL    HW270576  12.886   8.429   2.258
56227SOL     OW70577  14.192   6.566   4.090
56227SOL    HW170578  14.139   6.623   4.034
56227SOL    HW270579  14.141   6.557   4.170
56228SOL     OW70580   4.949  13.234   7.178
56228SOL    HW170581   4.974  13.158   7.125
56228SOL    HW270582   5.028  13.288   7.180
56229SOL     OW70583   3.367  14.286   3.272
56229SOL    HW170584   3.336  14.348   3.206
56229SOL    HW270585   3.398  14.211   3.222
56230SOL     OW70586   1.866   4.231  13.693
56230SOL    HW170587   1.810   4.278  13.632
56230SOL    HW270588   1.830   4.252  13.780
56231SOL     OW70589  11.862  13.194  10.812
56231SOL    HW170590  11.800  13.195  10.739
56231SOL    HW270591  11.919  13.119  10.794
56232SOL     OW70592  10.044  11.163  14.688
56232SOL    HW170593   9.971  11.107  14.664
56232SOL    HW270594  10.114  11.139  14.627
56233SOL     OW70595   8.867   0.682   4.911
56233SOL    HW170596   8.954   0.653   4.884
56233SOL    HW270597   8.845   0.626   4.986
56234SOL     OW70598   3.483   3.645   6.147
56234SOL    HW170599   3.392   3.667   6.130
56234SOL    HW270600   3.507   3.698   6.223
56235SOL     OW70601  14.789   1.061   3.732
56235SOL    HW170602  14.768   1.146   3.773
56235SOL    HW270603  14.781   0.998   3.804
56236SOL     OW70604  14.067   3.642   0.989
56236SOL    HW170605  14.058   3.643   0.893
56236SOL    HW270606  14.073   3.735   1.013
56237SOL     OW70607   0.046   8.688  13.927
56237SOL    HW170608   0.014   8.601  13.952
56237SOL    HW270609   0.138   8.688  13.955
56238SOL     OW70610   2.609   7.657   8.816
56238SOL    HW170611   2.526   7.691   8.848
56238SOL    HW270612   2.675   7.714   8.856
56239SOL     OW70613   0.072  13.733   8.797
56239SOL    HW170614  14.875  13.691   8.829
56239SOL    HW270615   0.058  13.827   8.812
56240SOL     OW70616   0.558   4.449   3.405
56240SOL    HW170617   0.577   4.537   3.372
56240SOL    HW270618   0.510   4.406   3.333
56241SOL     OW70619   0.270   5.927   1.663
56241SOL    HW170620   0.347   5.870   1.662
56241SOL    HW270621   0.220   5.898   1.739
56242SOL     OW70622  14.141   0.214  10.182
56242SOL    HW170623  14.133   0.295  10.132
56242SOL    HW270624  14.159   0.147  10.116
56243SOL     OW70625   4.831  11.337   5.844
56243SOL    HW170626   4.853  11.297   5.929
56243SOL    HW270627   4.743  11.371   5.855
56244SOL     OW70628  12.067   8.663  10.912
56244SOL    HW170629  12.104   8.704  10.833
56244SOL    HW270630  12.075   8.569  10.896
56245SOL     OW70631  14.133   4.039   2.396
56245SOL    HW170632  14.107   4.001   2.480
56245SOL    HW270633  14.094   4.127   2.397
56246SOL     OW70634   3.236   9.467  12.303
56246SOL    HW170635   3.220   9.548  12.351
56246SOL    HW270636   3.246   9.400  12.371
56247SOL     OW70637  11.783  10.708   2.989
56247SOL    HW170638  11.732  10.731   3.067
56247SOL    HW270639  11.835  10.786   2.972
56248SOL     OW70640  14.778   0.365   9.523
56248SOL    HW170641  14.766   0.414   9.605
56248SOL    HW270642  14.871   0.374   9.503
56249SOL     OW70643   7.012  12.860  10.087
56249SOL    HW170644   6.925  12.897  10.096
56249SOL    HW270645   7.071  12.936  10.091
56250SOL     OW70646   1.458   4.069   8.060
56250SOL    HW170647   1.390   4.038   8.120
56250SOL    HW270648   1.539   4.030   8.093
56251SOL     OW70649  11.972   7.112  13.241
56251SOL    HW170650  11.980   7.019  13.263
56251SOL    HW270651  11.878   7.129  13.243
56252SOL     OW70652   1.596   9.535  14.687
56252SOL    HW170653   1.593   9.440  14.687
56252SOL    HW270654   1.646   9.558  14.765
56253SOL     OW70655   0.922   1.646   3.083
56253SOL    HW170656   0.889   1.727   3.121
56253SOL    HW270657   0.958   1.671   2.999
56254SOL     OW70658   3.214   7.711   9.344
56254SOL    HW170659   3.127   7.697   9.305
56254SOL    HW270660   3.267   7.638   9.311
56255SOL     OW70661   5.256   0.002   9.155
56255SOL    HW170662   5.293  14.806   9.114
56255SOL    HW270663   5.182  14.852   9.206
56256SOL     OW70664  14.025   2.986   3.076
56256SOL    HW170665  13.953   2.943   3.030
56256SOL    HW270666  14.068   2.915   3.125
56257SOL     OW70667   6.668   0.739  13.462
56257SOL    HW170668   6.662   0.644  13.450
56257SOL    HW270669   6.617   0.776  13.390
56258SOL     OW70670   5.561   0.909   4.444
56258SOL    HW170671   5.638   0.851   4.438
56258SOL    HW270672   5.598   0.997   4.451
56259SOL     OW70673   6.294   3.472   0.355
56259SOL    HW170674   6.233   3.542   0.330
56259SOL    HW270675   6.267   3.446   0.443
56260SOL     OW70676   4.983   4.633   9.262
56260SOL    HW170677   4.997   4.708   9.320
56260SOL    HW270678   4.919   4.579   9.308
56261SOL     OW70679   6.565   7.627  14.416
56261SOL    HW170680   6.542   7.679  14.493
56261SOL    HW270681   6.585   7.540  14.451
56262SOL     OW70682   9.618   8.573   0.722
56262SOL    HW170683   9.699   8.538   0.685
56262SOL    HW270684   9.591   8.509   0.788
56263SOL     OW70685  12.938   3.383   2.600
56263SOL    HW170686  12.912   3.409   2.512
56263SOL    HW270687  13.034   3.385   2.598
56264SOL     OW70688   8.437  12.679  11.309
56264SOL    HW170689   8.389  12.700  11.389
56264SOL    HW270690   8.412  12.748  11.247
56265SOL     OW70691   9.867  14.081   4.455
56265SOL    HW170692   9.912  14.030   4.388
56265SOL    HW270693   9.824  14.016   4.510
56266SOL     OW70694   2.954   9.341  10.379
56266SOL    HW170695   2.981   9.254  10.351
56266SOL    HW270696   2.912   9.379  10.302
56267SOL     OW70697   4.439   1.310   0.300
56267SOL    HW170698   4.465   1.267   0.219
56267SOL    HW270699   4.446   1.242   0.367
56268SOL     OW70700   4.080  13.356   9.417
56268SOL    HW170701   4.132  13.279   9.440
56268SOL    HW270702   4.084  13.360   9.322
56269SOL     OW70703   4.423   3.193   4.465
56269SOL    HW170704   4.518   3.195   4.459
56269SOL    HW270705   4.393   3.259   4.402
56270SOL     OW70706   6.467   8.466   3.918
56270SOL    HW170707   6.396   8.526   3.897
56270SOL    HW270708   6.464   8.458   4.014
56271SOL     OW70709   9.710  14.204   2.187
56271SOL    HW170710   9.672  14.192   2.273
56271SOL    HW270711   9.702  14.119   2.144
56272SOL     OW70712  10.567   8.050   6.744
56272SOL    HW170713  10.647   8.095   6.772
56272SOL    HW270714  10.497   8.097   6.788
56273SOL     OW70715  11.309   9.297   4.666
56273SOL    HW170716  11.404   9.287   4.658
56273SOL    HW270717  11.298   9.356   4.741
56274SOL     OW70718   3.244   8.994   7.004
56274SOL    HW170719   3.268   8.998   6.912
56274SOL    HW270720   3.319   9.034   7.050
56275SOL     OW70721   0.537  10.748  14.433
56275SOL    HW170722   0.602  10.776  14.368
56275SOL    HW270723   0.457  10.736  14.383
56276SOL     OW70724  14.765  12.335   7.418
56276SOL    HW170725  14.709  12.366   7.348
56276SOL    HW270726  14.746  12.393   7.492
56277SOL     OW70727  11.162  12.129   5.147
56277SOL    HW170728  11.191  12.066   5.213
56277SOL    HW270729  11.067  12.133   5.157
56278SOL     OW70730   2.446   9.456   0.739
56278SOL    HW170731   2.443   9.434   0.832
56278SOL    HW270732   2.479   9.377   0.697
56279SOL     OW70733  12.483  10.413   8.169
56279SOL    HW170734  12.532  10.479   8.119
56279SOL    HW270735  12.523  10.413   8.255
56280SOL     OW70736  12.740   8.805  14.211
56280SOL    HW170737  12.827   8.841  14.232
56280SOL    HW270738  12.695   8.798  14.295
56281SOL     OW70739   9.911   5.414   1.968
56281SOL    HW170740   9.816   5.410   1.961
56281SOL    HW270741   9.930   5.505   1.989
56282SOL     OW70742   5.494   7.668   6.834
56282SOL    HW170743   5.479   7.613   6.911
56282SOL    HW270744   5.424   7.733   6.837
56283SOL     OW70745   1.967   1.576   2.533
56283SOL    HW170746   1.883   1.559   2.577
56283SOL    HW270747   2.005   1.649   2.580
56284SOL     OW70748   0.858  11.122  13.695
56284SOL    HW170749   0.764  11.116  13.679
56284SOL    HW270750   0.880  11.213  13.677
56285SOL     OW70751   8.149   3.469   4.490
56285SOL    HW170752   8.182   3.556   4.467
56285SOL    HW270753   8.059   3.483   4.518
56286SOL     OW70754  10.739   4.384  14.578
56286SOL    HW170755  10.741   4.351  14.668
56286SOL    HW270756  10.686   4.463  14.583
56287SOL     OW70757   4.969   3.006   4.789
56287SOL    HW170758   5.028   3.061   4.840
56287SOL    HW270759   4.881   3.030   4.819
56288SOL     OW70760   0.597  12.790  11.463
56288SOL    HW170761   0.693  12.786  11.460
56288SOL    HW270762   0.578  12.874  11.504
56289SOL     OW70763  12.631   8.131   0.144
56289SOL    HW170764  12.645   8.095   0.232
56289SOL    HW270765  12.648   8.058   0.085
56290SOL     OW70766   4.165   1.355   8.684
56290SOL    HW170767   4.128   1.323   8.601
56290SOL    HW270768   4.088   1.369   8.740
56291SOL     OW70769   5.195   0.028  13.264
56291SOL    HW170770   5.225   0.015  13.354
56291SOL    HW270771   5.251   0.097  13.229
56292SOL     OW70772   8.444   6.490   0.429
56292SOL    HW170773   8.501   6.560   0.460
56292SOL    HW270774   8.422   6.440   0.507
56293SOL     OW70775  13.620   5.816  12.677
56293SOL    HW170776  13.590   5.770  12.599
56293SOL    HW270777  13.574   5.899  12.676
56294SOL     OW70778  12.348   1.846   6.763
56294SOL    HW170779  12.308   1.930   6.740
56294SOL    HW270780  12.441   1.866   6.771
56295SOL     OW70781  12.238  10.333   9.257
56295SOL    HW170782  12.184  10.374   9.189
56295SOL    HW270783  12.225  10.239   9.245
56296SOL     OW70784   9.614  10.349   1.960
56296SOL    HW170785   9.658  10.341   2.045
56296SOL    HW270786   9.605  10.444   1.947
56297SOL     OW70787   6.764  14.023   4.243
56297SOL    HW170788   6.805  13.952   4.292
56297SOL    HW270789   6.784  14.003   4.152
56298SOL     OW70790   4.193   0.178   2.421
56298SOL    HW170791   4.230   0.146   2.504
56298SOL    HW270792   4.227   0.267   2.413
56299SOL     OW70793   7.327  14.352  11.908
56299SOL    HW170794   7.330  14.333  12.002
56299SOL    HW270795   7.418  14.348  11.880
56300SOL     OW70796   6.504   6.996   3.484
56300SOL    HW170797   6.482   7.032   3.570
56300SOL    HW270798   6.430   7.020   3.428
56301SOL     OW70799  10.546  10.786  13.749
56301SOL    HW170800  10.489  10.767  13.675
56301SOL    HW270801  10.515  10.871  13.781
56302SOL     OW70802  12.208   1.441   1.460
56302SOL    HW170803  12.165   1.526   1.458
56302SOL    HW270804  12.252   1.438   1.545
56303SOL     OW70805   5.891   5.764   8.613
56303SOL    HW170806   5.801   5.745   8.586
56303SOL    HW270807   5.882   5.817   8.692
56304SOL     OW70808   3.260  10.863   4.886
56304SOL    HW170809   3.298  10.850   4.799
56304SOL    HW270810   3.320  10.817   4.945
56305SOL     OW70811   6.842   1.669   6.128
56305SOL    HW170812   6.894   1.696   6.053
56305SOL    HW270813   6.843   1.745   6.187
56306SOL     OW70814   8.351  12.884   5.198
56306SOL    HW170815   8.408  12.810   5.176
56306SOL    HW270816   8.286  12.847   5.257
56307SOL     OW70817   3.015   9.422   9.195
56307SOL    HW170818   2.925   9.420   9.163
56307SOL    HW270819   3.067   9.385   9.123
56308SOL     OW70820   7.477   0.620  11.554
56308SOL    HW170821   7.519   0.554  11.498
56308SOL    HW270822   7.401   0.575  11.590
56309SOL     OW70823  14.461   8.759   7.531
56309SOL    HW170824  14.454   8.671   7.495
56309SOL    HW270825  14.444   8.817   7.457
56310SOL     OW70826   6.432  11.887  12.208
56310SOL    HW170827   6.415  11.951  12.139
56310SOL    HW270828   6.492  11.824  12.169
56311SOL     OW70829  13.663   8.529   6.397
56311SOL    HW170830  13.706   8.611   6.372
56311SOL    HW270831  13.570   8.551   6.402
56312SOL     OW70832   1.097  11.002   3.190
56312SOL    HW170833   1.132  10.915   3.169
56312SOL    HW270834   1.075  10.997   3.283
56313SOL     OW70835   6.915   3.618   0.916
56313SOL    HW170836   6.827   3.600   0.884
56313SOL    HW270837   6.923   3.567   0.997
56314SOL     OW70838   4.472  10.754   7.420
56314SOL    HW170839   4.524  10.682   7.457
56314SOL    HW270840   4.513  10.833   7.454
56315SOL     OW70841   7.546  14.257  13.173
56315SOL    HW170842   7.498  14.189  13.221
56315SOL    HW270843   7.576  14.318  13.240
56316SOL     OW70844   3.855   9.645  12.640
56316SOL    HW170845   3.932   9.701  12.631
56316SOL    HW270846   3.781   9.703  12.627
56317SOL     OW70847   5.418   7.003   1.082
56317SOL    HW170848   5.481   7.017   1.012
56317SOL    HW270849   5.409   6.908   1.088
56318SOL     OW70850   7.176   8.089  11.239
56318SOL    HW170851   7.241   8.158  11.224
56318SOL    HW270852   7.225   8.020  11.284
56319SOL     OW70853   6.328  10.594  14.195
56319SOL    HW170854   6.347  10.665  14.257
56319SOL    HW270855   6.233  10.595  14.185
56320SOL     OW70856   1.634  12.172   3.687
56320SOL    HW170857   1.723  12.198   3.712
56320SOL    HW270858   1.633  12.077   3.698
56321SOL     OW70859   0.844   5.692  12.006
56321SOL    HW170860   0.751   5.696  11.986
56321SOL    HW270861   0.860   5.600  12.028
56322SOL     OW70862   6.877   2.438  13.342
56322SOL    HW170863   6.925   2.367  13.300
56322SOL    HW270864   6.945   2.499  13.371
56323SOL     OW70865  14.316   5.883  10.394
56323SOL    HW170866  14.391   5.917  10.345
56323SOL    HW270867  14.350   5.864  10.481
56324SOL     OW70868   1.963  13.202   0.002
56324SOL    HW170869   1.980  13.296   0.005
56324SOL    HW270870   2.047  13.162   0.025
56325SOL     OW70871   9.461  12.382   1.919
56325SOL    HW170872   9.490  12.293   1.937
56325SOL    HW270873   9.396  12.373   1.849
56326SOL     OW70874  12.796  11.451   4.850
56326SOL    HW170875  12.715  11.443   4.799
56326SOL    HW270876  12.851  11.509   4.798
56327SOL     OW70877   2.083  11.620   1.390
56327SOL    HW170878   2.149  11.623   1.459
56327SOL    HW270879   2.110  11.548   1.334
56328SOL     OW70880   7.375   4.045   4.513
56328SOL    HW170881   7.357   4.118   4.572
56328SOL    HW270882   7.416   4.085   4.437
56329SOL     OW70883   3.403  10.266   4.094
56329SOL    HW170884   3.351  10.192   4.064
56329SOL    HW270885   3.340  10.322   4.140
56330SOL     OW70886   5.721   7.251   3.628
56330SOL    HW170887   5.768   7.206   3.698
56330SOL    HW270888   5.641   7.201   3.617
56331SOL     OW70889   2.709  13.333   3.888
56331SOL    HW170890   2.747  13.359   3.972
56331SOL    HW270891   2.774  13.275   3.849
56332SOL     OW70892  10.554  10.617   0.276
56332SOL    HW170893  10.570  10.629   0.370
56332SOL    HW270894  10.503  10.536   0.271
56333SOL     OW70895   4.354   6.351   8.936
56333SOL    HW170896   4.434   6.403   8.927
56333SOL    HW270897   4.369   6.297   9.014
56334SOL     OW70898  10.666   0.323  10.911
56334SOL    HW170899  10.695   0.325  10.820
56334SOL    HW270900  10.583   0.275  10.908
56335SOL     OW70901   0.588  14.649  13.908
56335SOL    HW170902   0.664  14.707  13.899
56335SOL    HW270903   0.587  14.598  13.827
56336SOL     OW70904   8.138  11.529  13.482
56336SOL    HW170905   8.083  11.607  13.482
56336SOL    HW270906   8.101  11.473  13.413
56337SOL     OW70907   1.218   9.046   4.977
56337SOL    HW170908   1.188   8.983   5.042
56337SOL    HW270909   1.146   9.107   4.967
56338SOL     OW70910  13.479   3.498   9.788
56338SOL    HW170911  13.466   3.492   9.883
56338SOL    HW270912  13.498   3.408   9.761
56339SOL     OW70913  12.035   4.698  10.826
56339SOL    HW170914  11.994   4.774  10.785
56339SOL    HW270915  12.028   4.714  10.920
56340SOL     OW70916   6.986   7.093   0.842
56340SOL    HW170917   6.992   7.181   0.806
56340SOL    HW270918   7.019   7.101   0.932
56341SOL     OW70919   0.305   6.946   5.518
56341SOL    HW170920   0.328   6.923   5.608
56341SOL    HW270921   0.256   6.870   5.485
56342SOL     OW70922   8.627   9.425   0.030
56342SOL    HW170923   8.666   9.422  14.825
56342SOL    HW270924   8.629   9.334   0.061
56343SOL     OW70925   1.704   7.352  10.774
56343SOL    HW170926   1.749   7.396  10.847
56343SOL    HW270927   1.677   7.268  10.811
56344SOL     OW70928  12.230   1.049   7.513
56344SOL    HW170929  12.158   1.108   7.492
56344SOL    HW270930  12.252   1.009   7.428
56345SOL     OW70931   1.212   3.107   6.259
56345SOL    HW170932   1.252   3.102   6.345
56345SOL    HW270933   1.211   3.016   6.227
56346SOL     OW70934   2.066   6.167   1.138
56346SOL    HW170935   1.982   6.162   1.092
56346SOL    HW270936   2.122   6.219   1.080
56347SOL     OW70937   8.520   6.404   1.598
56347SOL    HW170938   8.613   6.424   1.606
56347SOL    HW270939   8.477   6.490   1.597
56348SOL     OW70940  10.016   0.293   9.576
56348SOL    HW170941  10.005   0.200   9.555
56348SOL    HW270942   9.935   0.318   9.619
56349SOL     OW70943   1.235   0.962   8.488
56349SOL    HW170944   1.198   0.881   8.524
56349SOL    HW270945   1.167   1.028   8.503
56350SOL     OW70946  14.668  11.249   7.277
56350SOL    HW170947  14.715  11.191   7.337
56350SOL    HW270948  14.598  11.288   7.330
56351SOL     OW70949   1.065  11.888   3.431
56351SOL    HW170950   1.007  11.821   3.393
56351SOL    HW270951   1.129  11.906   3.362
56352SOL     OW70952   5.426   4.336   3.755
56352SOL    HW170953   5.350   4.301   3.710
56352SOL    HW270954   5.396   4.355   3.843
56353SOL     OW70955  14.190   1.863  14.271
56353SOL    HW170956  14.207   1.841  14.362
56353SOL    HW270957  14.115   1.922  14.274
56354SOL     OW70958   5.078  14.047   3.876
56354SOL    HW170959   5.012  14.045   3.807
56354SOL    HW270960   5.069  13.963   3.921
56355SOL     OW70961   0.643   4.529  11.933
56355SOL    HW170962   0.601   4.474  11.998
56355SOL    HW270963   0.595   4.513  11.852
56356SOL     OW70964  13.334  12.694   2.344
56356SOL    HW170965  13.307  12.754   2.413
56356SOL    HW270966  13.317  12.741   2.263
56357SOL     OW70967   3.540   2.706   5.228
56357SOL    HW170968   3.624   2.663   5.214
56357SOL    HW270969   3.557   2.774   5.293
56358SOL     OW70970   0.516   8.535   5.324
56358SOL    HW170971   0.527   8.473   5.397
56358SOL    HW270972   0.542   8.486   5.247
56359SOL     OW70973  14.428  14.857   1.831
56359SOL    HW170974  14.455   0.002   1.743
56359SOL    HW270975  14.336  14.830   1.820
56360SOL     OW70976   4.888   3.204   1.574
56360SOL    HW170977   4.833   3.127   1.588
56360SOL    HW270978   4.850   3.248   1.498
56361SOL     OW70979  11.467   2.476   6.665
56361SOL    HW170980  11.542   2.537   6.660
56361SOL    HW270981  11.402   2.523   6.716
56362SOL     OW70982   1.649   3.666   7.567
56362SOL    HW170983   1.626   3.643   7.477
56362SOL    HW270984   1.744   3.670   7.567
56363SOL     OW70985  12.305  12.067   4.727
56363SOL    HW170986  12.253  11.988   4.741
56363SOL    HW270987  12.367  12.070   4.800
56364SOL     OW70988   0.038   8.777  10.807
56364SOL    HW170989   0.047   8.806  10.898
56364SOL    HW270990   0.079   8.690  10.806
56365SOL     OW70991   5.742   9.643   9.443
56365SOL    HW170992   5.794   9.689   9.376
56365SOL    HW270993   5.786   9.664   9.525
56366SOL     OW70994   1.719   6.883  11.280
56366SOL    HW170995   1.669   6.879  11.362
56366SOL    HW270996   1.743   6.793  11.262
56367SOL     OW70997   0.574   2.108   1.128
56367SOL    HW170998   0.566   2.062   1.044
56367SOL    HW270999   0.642   2.174   1.113
56368SOL     OW71000  14.314   0.792   7.677
56368SOL    HW171001  14.362   0.875   7.670
56368SOL    HW271002  14.301   0.779   7.771
56369SOL     OW71003  11.309  12.938   6.421
56369SOL    HW171004  11.296  12.864   6.361
56369SOL    HW271005  11.257  12.915   6.499
56370SOL     OW71006   4.448  13.417   9.442
56370SOL    HW171007   4.541  13.401   9.457
56370SOL    HW271008   4.404  13.343   9.486
56371SOL     OW71009  10.753  13.907   2.522
56371SOL    HW171010  10.814  13.973   2.554
56371SOL    HW271011  10.808  13.835   2.492
56372SOL     OW71012  14.749   9.066   0.962
56372SOL    HW171013  14.796   9.047   1.043
56372SOL    HW271014  14.725   9.158   0.969
56373SOL     OW71015   7.690   3.945   1.757
56373SOL    HW171016   7.681   3.987   1.842
56373SOL    HW271017   7.768   3.890   1.765
56374SOL     OW71018   6.809   5.676   4.882
56374SOL    HW171019   6.814   5.583   4.861
56374SOL    HW271020   6.768   5.678   4.969
56375SOL     OW71021   1.258   2.906   1.571
56375SOL    HW171022   1.327   2.921   1.507
56375SOL    HW271023   1.190   2.970   1.548
56376SOL     OW71024   1.170   1.972   6.066
56376SOL    HW171025   1.191   2.039   6.131
56376SOL    HW271026   1.209   1.892   6.101
56377SOL     OW71027   6.007   8.016   4.447
56377SOL    HW171028   5.982   8.042   4.536
56377SOL    HW271029   6.090   8.061   4.431
56378SOL     OW71030   8.415   2.797  11.764
56378SOL    HW171031   8.395   2.744  11.841
56378SOL    HW271032   8.419   2.887  11.797
56379SOL     OW71033  10.784   6.997  10.281
56379SOL    HW171034  10.740   7.033  10.205
56379SOL    HW271035  10.729   7.023  10.355
56380SOL     OW71036   7.679   3.555   3.225
56380SOL    HW171037   7.710   3.615   3.157
56380SOL    HW271038   7.735   3.574   3.300
56381SOL     OW71039   0.692   1.610  11.427
56381SOL    HW171040   0.716   1.582  11.339
56381SOL    HW271041   0.628   1.679  11.414
56382SOL     OW71042  12.259  13.664   8.924
56382SOL    HW171043  12.256  13.585   8.871
56382SOL    HW271044  12.244  13.735   8.863
56383SOL     OW71045   7.195   3.148  14.862
56383SOL    HW171046   7.191   3.100   0.062
56383SOL    HW271047   7.223   3.236   0.005
56384SOL     OW71048   3.988  10.877  10.842
56384SOL    HW171049   3.958  10.965  10.864
56384SOL    HW271050   3.940  10.855  10.762
56385SOL     OW71051   1.441   0.026   4.779
56385SOL    HW171052   1.480   0.091   4.720
56385SOL    HW271053   1.407  14.841   4.721
56386SOL     OW71054  14.541  12.423   3.325
56386SOL    HW171055  14.590  12.500   3.352
56386SOL    HW271056  14.591  12.349   3.359
56387SOL     OW71057   5.642   0.467  10.863
56387SOL    HW171058   5.633   0.522  10.941
56387SOL    HW271059   5.617   0.524  10.791
56388SOL     OW71060   0.839  12.219  10.399
56388SOL    HW171061   0.812  12.311  10.397
56388SOL    HW271062   0.765  12.171  10.362
56389SOL     OW71063   0.711   2.401   2.924
56389SOL    HW171064   0.773   2.390   2.852
56389SOL    HW271065   0.683   2.492   2.919
56390SOL     OW71066   0.104   2.458   7.028
56390SOL    HW171067   0.085   2.490   7.116
56390SOL    HW271068   0.059   2.519   6.970
56391SOL     OW71069   7.746   5.745   2.609
56391SOL    HW171070   7.714   5.663   2.647
56391SOL    HW271071   7.670   5.780   2.561
56392SOL     OW71072   2.908  11.535   0.270
56392SOL    HW171073   2.906  11.481   0.191
56392SOL    HW271074   2.892  11.474   0.341
56393SOL     OW71075   6.670   3.276   0.471
56393SOL    HW171076   6.752   3.282   0.422
56393SOL    HW271077   6.688   3.323   0.552
56394SOL     OW71078   8.188  13.550   4.180
56394SOL    HW171079   8.233  13.634   4.182
56394SOL    HW271080   8.105  13.566   4.225
56395SOL     OW71081   3.727  11.773   3.442
56395SOL    HW171082   3.664  11.836   3.476
56395SOL    HW271083   3.811  11.798   3.480
56396SOL     OW71084   2.965   3.719   9.239
56396SOL    HW171085   3.051   3.676   9.234
56396SOL    HW271086   2.980   3.808   9.206
56397SOL     OW71087  12.883   0.639   0.713
56397SOL    HW171088  12.959   0.697   0.723
56397SOL    HW271089  12.847   0.631   0.801
56398SOL     OW71090  14.064  14.363  11.884
56398SOL    HW171091  14.055  14.371  11.789
56398SOL    HW271092  14.091  14.449  11.914
56399SOL     OW71093   9.260  14.126   9.374
56399SOL    HW171094   9.181  14.150   9.421
56399SOL    HW271095   9.247  14.034   9.349
56400SOL     OW71096  12.881   5.851  14.313
56400SOL    HW171097  12.898   5.757  14.325
56400SOL    HW271098  12.865   5.860  14.219
56401SOL     OW71099   5.590   1.692   4.449
56401SOL    HW171100   5.617   1.749   4.377
56401SOL    HW271101   5.664   1.634   4.463
56402SOL     OW71102   0.395  14.393   6.548
56402SOL    HW171103   0.332  14.462   6.528
56402SOL    HW271104   0.379  14.326   6.482
56403SOL     OW71105   1.239   1.267   0.866
56403SOL    HW171106   1.325   1.279   0.907
56403SOL    HW271107   1.243   1.179   0.828
56404SOL     OW71108   2.301   9.387   1.988
56404SOL    HW171109   2.363   9.373   2.060
56404SOL    HW271110   2.219   9.410   2.032
56405SOL     OW71111   1.758  12.144   0.299
56405SOL    HW171112   1.809  12.216   0.336
56405SOL    HW271113   1.716  12.104   0.375
56406SOL     OW71114   8.387  10.307   2.871
56406SOL    HW171115   8.337  10.379   2.831
56406SOL    HW271116   8.333  10.280   2.945
56407SOL     OW71117   2.860   0.375  14.453
56407SOL    HW171118   2.912   0.435  14.399
56407SOL    HW271119   2.832   0.307  14.393
56408SOL     OW71120   0.358   0.452   0.491
56408SOL    HW171121   0.368   0.536   0.536
56408SOL    HW271122   0.290   0.406   0.540
56409SOL     OW71123   3.008  11.398  13.733
56409SOL    HW171124   2.998  11.339  13.658
56409SOL    HW271125   2.949  11.362  13.800
56410SOL     OW71126   5.467   8.424   5.930
56410SOL    HW171127   5.500   8.501   5.882
56410SOL    HW271128   5.378   8.412   5.897
56411SOL     OW71129   4.564   7.095   1.693
56411SOL    HW171130   4.616   7.164   1.653
56411SOL    HW271131   4.628   7.029   1.720
56412SOL     OW71132  12.234  12.396   2.142
56412SOL    HW171133  12.165  12.373   2.204
56412SOL    HW271134  12.234  12.325   2.078
56413SOL     OW71135   6.533   2.475  11.330
56413SOL    HW171136   6.456   2.439  11.374
56413SOL    HW271137   6.498   2.516  11.251
56414SOL     OW71138   8.857  10.978   2.951
56414SOL    HW171139   8.927  10.920   2.980
56414SOL    HW271140   8.829  11.025   3.030
56415SOL     OW71141   7.905  10.166   5.398
56415SOL    HW171142   7.975  10.113   5.359
56415SOL    HW271143   7.942  10.254   5.402
56416SOL     OW71144   3.970   1.993   1.472
56416SOL    HW171145   3.912   1.942   1.528
56416SOL    HW271146   3.911   2.043   1.416
56417SOL     OW71147   2.536  13.091   3.215
56417SOL    HW171148   2.516  13.044   3.134
56417SOL    HW271149   2.530  13.025   3.283
56418SOL     OW71150  14.869  12.708  12.523
56418SOL    HW171151  14.802  12.704  12.455
56418SOL    HW271152  14.869  12.800  12.551
56419SOL     OW71153  10.697   6.429   7.533
56419SOL    HW171154  10.613   6.457   7.571
56419SOL    HW271155  10.689   6.334   7.526
56420SOL     OW71156   2.389   7.517   5.057
56420SOL    HW171157   2.459   7.496   4.995
56420SOL    HW271158   2.393   7.612   5.066
56421SOL     OW71159   0.402   8.674   6.616
56421SOL    HW171160   0.390   8.740   6.548
56421SOL    HW271161   0.405   8.724   6.697
56422SOL     OW71162   9.623   5.349   6.974
56422SOL    HW171163   9.609   5.325   6.883
56422SOL    HW271164   9.607   5.443   6.976
56423SOL     OW71165  14.515   8.701   3.207
56423SOL    HW171166  14.493   8.617   3.168
56423SOL    HW271167  14.438   8.725   3.259
56424SOL     OW71168   4.443  13.585   3.143
56424SOL    HW171169   4.412  13.616   3.058
56424SOL    HW271170   4.364  13.584   3.198
56425SOL     OW71171   6.012   9.260   0.753
56425SOL    HW171172   6.027   9.325   0.821
56425SOL    HW271173   5.948   9.301   0.694
56426SOL     OW71174  10.391  11.015  13.801
56426SOL    HW171175  10.342  10.960  13.861
56426SOL    HW271176  10.332  11.027  13.726
56427SOL     OW71177  12.242   7.527   2.350
56427SOL    HW171178  12.328   7.555   2.381
56427SOL    HW271179  12.182   7.555   2.419
56428SOL     OW71180   6.870   0.249   7.044
56428SOL    HW171181   6.917   0.292   6.973
56428SOL    HW271182   6.922   0.268   7.122
56429SOL     OW71183   2.789   3.204   1.263
56429SOL    HW171184   2.871   3.254   1.274
56429SOL    HW271185   2.816   3.113   1.272
56430SOL     OW71186  12.527  11.897   6.591
56430SOL    HW171187  12.445  11.863   6.627
56430SOL    HW271188  12.541  11.980   6.637
56431SOL     OW71189   6.727   4.525   7.236
56431SOL    HW171190   6.705   4.509   7.328
56431SOL    HW271191   6.662   4.477   7.187
56432SOL     OW71192  11.136   8.819  13.033
56432SOL    HW171193  11.206   8.842  12.972
56432SOL    HW271194  11.136   8.890  13.097
56433SOL     OW71195  11.030  11.054   3.916
56433SOL    HW171196  10.995  11.033   4.003
56433SOL    HW271197  11.008  11.147   3.903
56434SOL     OW71198  11.510  10.875  10.577
56434SOL    HW171199  11.560  10.953  10.601
56434SOL    HW271200  11.531  10.861  10.484
56435SOL     OW71201   6.918  13.971   8.599
56435SOL    HW171202   6.979  14.018   8.656
56435SOL    HW271203   6.948  13.881   8.601
56436SOL     OW71204   7.276   5.853  13.737
56436SOL    HW171205   7.276   5.922  13.803
56436SOL    HW271206   7.186   5.821  13.736
56437SOL     OW71207   7.096   3.834   8.151
56437SOL    HW171208   7.014   3.877   8.130
56437SOL    HW271209   7.100   3.758   8.092
56438SOL     OW71210  11.628   8.562  13.909
56438SOL    HW171211  11.536   8.541  13.896
56438SOL    HW271212  11.673   8.518  13.837
56439SOL     OW71213   0.653  11.055  11.461
56439SOL    HW171214   0.723  11.042  11.524
56439SOL    HW271215   0.695  11.098  11.387
56440SOL     OW71216   9.200   8.340   3.480
56440SOL    HW171217   9.186   8.255   3.521
56440SOL    HW271218   9.295   8.348   3.473
56441SOL     OW71219  11.463   5.423   5.969
56441SOL    HW171220  11.505   5.488   5.911
56441SOL    HW271221  11.393   5.385   5.916
56442SOL     OW71222   7.612  12.091   4.016
56442SOL    HW171223   7.657  12.010   3.992
56442SOL    HW271224   7.575  12.073   4.103
56443SOL     OW71225   9.881   3.324  11.298
56443SOL    HW171226   9.875   3.399  11.240
56443SOL    HW271227   9.871   3.248  11.241
56444SOL     OW71228   9.718   8.514   1.051
56444SOL    HW171229   9.792   8.502   0.991
56444SOL    HW271230   9.641   8.490   0.999
56445SOL     OW71231   9.697   9.429   4.115
56445SOL    HW171232   9.776   9.448   4.166
56445SOL    HW271233   9.630   9.410   4.180
56446SOL     OW71234   0.884   8.619   0.123
56446SOL    HW171235   0.952   8.665   0.172
56446SOL    HW271236   0.916   8.618   0.032
56447SOL     OW71237   7.753  10.290  11.187
56447SOL    HW171238   7.776  10.365  11.242
56447SOL    HW271239   7.801  10.304  11.106
56448SOL     OW71240   1.517  11.050  11.679
56448SOL    HW171241   1.509  11.140  11.646
56448SOL    HW271242   1.591  11.054  11.740
56449SOL     OW71243  12.024   0.745   1.936
56449SOL    HW171244  12.040   0.663   1.890
56449SOL    HW271245  11.990   0.804   1.869
56450SOL     OW71246  12.607  14.299  14.309
56450SOL    HW171247  12.700  14.280  14.297
56450SOL    HW271248  12.599  14.393  14.294
56451SOL     OW71249  11.044   9.601   3.123
56451SOL    HW171250  10.954   9.581   3.095
56451SOL    HW271251  11.092   9.615   3.041
56452SOL     OW71252   8.016  14.487   6.548
56452SOL    HW171253   8.039  14.567   6.596
56452SOL    HW271254   8.094  14.466   6.498
56453SOL     OW71255   0.576  10.336   9.321
56453SOL    HW171256   0.544  10.425   9.338
56453SOL    HW271257   0.664  10.349   9.286
56454SOL     OW71258   9.788   5.827  12.275
56454SOL    HW171259   9.762   5.736  12.263
56454SOL    HW271260   9.709   5.870  12.308
56455SOL     OW71261   2.419   7.496   9.334
56455SOL    HW171262   2.457   7.419   9.376
56455SOL    HW271263   2.477   7.513   9.259
56456SOL     OW71264  13.277  10.296   4.860
56456SOL    HW171265  13.367  10.264   4.851
56456SOL    HW271266  13.227  10.220   4.889
56457SOL     OW71267  14.233  11.610   5.652
56457SOL    HW171268  14.232  11.530   5.600
56457SOL    HW271269  14.325  11.621   5.677
56458SOL     OW71270   9.149   7.220   9.219
56458SOL    HW171271   9.224   7.178   9.261
56458SOL    HW271272   9.156   7.312   9.244
56459SOL     OW71273  13.599   3.873   2.085
56459SOL    HW171274  13.663   3.814   2.123
56459SOL    HW271275  13.546   3.903   2.159
56460SOL     OW71276   0.980  13.984   6.589
56460SOL    HW171277   1.038  13.974   6.665
56460SOL    HW271278   0.940  13.898   6.577
56461SOL     OW71279   5.096   0.727   9.843
56461SOL    HW171280   5.136   0.814   9.841
56461SOL    HW271281   5.014   0.740   9.891
56462SOL     OW71282   0.863  12.964   5.213
56462SOL    HW171283   0.954  12.963   5.242
56462SOL    HW271284   0.816  13.013   5.280
56463SOL     OW71285   8.451   3.311   9.339
56463SOL    HW171286   8.399   3.362   9.276
56463SOL    HW271287   8.434   3.220   9.316
56464SOL     OW71288   3.224  11.483   9.333
56464SOL    HW171289   3.153  11.498   9.396
56464SOL    HW271290   3.204  11.397   9.295
56465SOL     OW71291   3.977   4.638   7.554
56465SOL    HW171292   4.008   4.711   7.606
56465SOL    HW271293   3.895   4.611   7.597
56466SOL     OW71294   6.141  11.084   8.678
56466SOL    HW171295   6.113  11.156   8.735
56466SOL    HW271296   6.150  11.124   8.591
56467SOL     OW71297   5.543  14.360   2.457
56467SOL    HW171298   5.591  14.302   2.516
56467SOL    HW271299   5.454  14.361   2.491
56468SOL     OW71300   8.251   8.419   5.755
56468SOL    HW171301   8.292   8.370   5.826
56468SOL    HW271302   8.198   8.355   5.709
56469SOL     OW71303   5.255   4.981  14.707
56469SOL    HW171304   5.268   4.938  14.623
56469SOL    HW271305   5.177   5.036  14.694
56470SOL     OW71306   4.406   7.866   9.770
56470SOL    HW171307   4.403   7.772   9.750
56470SOL    HW271308   4.454   7.904   9.696
56471SOL     OW71309   0.266   8.943   1.313
56471SOL    HW171310   0.336   9.003   1.341
56471SOL    HW271311   0.310   8.878   1.258
56472SOL     OW71312  14.828   2.377   3.369
56472SOL    HW171313  14.809   2.443   3.436
56472SOL    HW271314  14.870   2.306   3.418
56473SOL     OW71315   9.033   9.786   1.038
56473SOL    HW171316   8.972   9.828   0.978
56473SOL    HW271317   9.071   9.858   1.089
56474SOL     OW71318   5.418   6.976   9.339
56474SOL    HW171319   5.402   7.070   9.326
56474SOL    HW271320   5.404   6.937   9.253
56475SOL     OW71321  10.892   9.494   1.204
56475SOL    HW171322  10.847   9.551   1.142
56475SOL    HW271323  10.973   9.540   1.224
56476SOL     OW71324   5.078   3.725   0.901
56476SOL    HW171325   5.122   3.809   0.910
56476SOL    HW271326   5.044   3.705   0.988
56477SOL     OW71327  11.045   2.522  13.837
56477SOL    HW171328  11.060   2.560  13.923
56477SOL    HW271329  10.957   2.485  13.842
56478SOL     OW71330   8.843   1.141  14.109
56478SOL    HW171331   8.880   1.229  14.109
56478SOL    HW271332   8.816   1.127  14.018
56479SOL     OW71333   2.411   7.460  11.015
56479SOL    HW171334   2.479   7.451  10.949
56479SOL    HW271335   2.384   7.370  11.034
56480SOL     OW71336  11.618   1.598  13.474
56480SOL    HW171337  11.665   1.554  13.545
56480SOL    HW271338  11.684   1.653  13.432
56481SOL     OW71339   5.503  14.131   8.427
56481SOL    HW171340   5.514  14.053   8.373
56481SOL    HW271341   5.535  14.105   8.514
56482SOL     OW71342   8.666  11.409   1.374
56482SOL    HW171343   8.595  11.387   1.313
56482SOL    HW271344   8.639  11.491   1.414
56483SOL     OW71345   0.952  11.989   3.637
56483SOL    HW171346   0.975  11.931   3.709
56483SOL    HW271347   0.997  11.952   3.561
56484SOL     OW71348   9.870   4.358   2.168
56484SOL    HW171349   9.866   4.343   2.262
56484SOL    HW271350   9.825   4.282   2.130
56485SOL     OW71351   9.392  10.458   0.631
56485SOL    HW171352   9.428  10.468   0.543
56485SOL    HW271353   9.314  10.513   0.632
56486SOL     OW71354   8.577   7.319  11.826
56486SOL    HW171355   8.638   7.376  11.873
56486SOL    HW271356   8.565   7.361  11.741
56487SOL     OW71357   9.369   5.495  10.204
56487SOL    HW171358   9.347   5.580  10.166
56487SOL    HW271359   9.464   5.499  10.217
56488SOL     OW71360   3.020   8.011  13.739
56488SOL    HW171361   3.028   7.920  13.766
56488SOL    HW271362   2.936   8.040  13.776
56489SOL     OW71363  10.493   8.119   8.649
56489SOL    HW171364  10.527   8.207   8.634
56489SOL    HW271365  10.567   8.070   8.685
56490SOL     OW71366  13.988   7.528   1.679
56490SOL    HW171367  14.019   7.474   1.607
56490SOL    HW271368  14.000   7.473   1.757
56491SOL     OW71369   2.388   4.219   8.091
56491SOL    HW171370   2.386   4.287   8.158
56491SOL    HW271371   2.480   4.194   8.084
56492SOL     OW71372   7.573  14.733   0.385
56492SOL    HW171373   7.500  14.730   0.446
56492SOL    HW271374   7.550  14.668   0.318
56493SOL     OW71375   5.331  11.408   9.988
56493SOL    HW171376   5.364  11.319   9.996
56493SOL    HW271377   5.347  11.432   9.897
56494SOL     OW71378   0.506   2.236   7.953
56494SOL    HW171379   0.473   2.320   7.984
56494SOL    HW271380   0.571   2.258   7.887
56495SOL     OW71381   7.203   2.025  11.905
56495SOL    HW171382   7.131   2.085  11.921
56495SOL    HW271383   7.213   2.025  11.810
56496SOL     OW71384  10.128   0.966  13.784
56496SOL    HW171385  10.067   0.939  13.715
56496SOL    HW271386  10.202   0.907  13.774
56497SOL     OW71387   2.264   8.492   9.217
56497SOL    HW171388   2.231   8.411   9.180
56497SOL    HW271389   2.187   8.548   9.226
56498SOL     OW71390  13.725  11.523   0.120
56498SOL    HW171391  13.652  11.512   0.181
56498SOL    HW271392  13.708  11.459   0.050
56499SOL     OW71393   9.639   7.231   1.082
56499SOL    HW171394   9.614   7.155   1.136
56499SOL    HW271395   9.729   7.250   1.109
56500SOL     OW71396  13.766  12.315   7.531
56500SOL    HW171397  13.861  12.309   7.522
56500SOL    HW271398  13.732  12.268   7.454
56501SOL     OW71399   4.627   5.347   4.794
56501SOL    HW171400   4.599   5.295   4.870
56501SOL    HW271401   4.721   5.359   4.806
56502SOL     OW71402   9.417   3.355  13.375
56502SOL    HW171403   9.498   3.379  13.420
56502SOL    HW271404   9.372   3.439  13.361
56503SOL     OW71405   1.108   2.046  13.781
56503SOL    HW171406   1.050   2.055  13.856
56503SOL    HW271407   1.103   1.953  13.757
56504SOL     OW71408  13.543  10.701   1.792
56504SOL    HW171409  13.576  10.772   1.737
56504SOL    HW271410  13.452  10.724   1.810
56505SOL     OW71411   9.428   5.440   3.939
56505SOL    HW171412   9.479   5.403   4.011
56505SOL    HW271413   9.473   5.409   3.860
56506SOL     OW71414  13.357   5.628   2.701
56506SOL    HW171415  13.380   5.684   2.628
56506SOL    HW271416  13.417   5.654   2.771
56507SOL     OW71417  11.982  10.553  12.649
56507SOL    HW171418  12.053  10.489  12.639
56507SOL    HW271419  12.001  10.621  12.584
56508SOL     OW71420   1.100   4.625   2.543
56508SOL    HW171421   1.134   4.633   2.454
56508SOL    HW271422   1.133   4.541   2.574
56509SOL     OW71423  12.157   3.853   7.112
56509SOL    HW171424  12.235   3.799   7.098
56509SOL    HW271425  12.089   3.810   7.060
56510SOL     OW71426  13.767   8.400   2.771
56510SOL    HW171427  13.823   8.439   2.704
56510SOL    HW271428  13.828   8.366   2.836
56511SOL     OW71429   8.852   7.205  11.897
56511SOL    HW171430   8.861   7.267  11.825
56511SOL    HW271431   8.772   7.156  11.877
56512SOL     OW71432  14.243  12.277   5.489
56512SOL    HW171433  14.240  12.315   5.402
56512SOL    HW271434  14.157  12.296   5.527
56513SOL     OW71435   8.430   6.282   3.470
56513SOL    HW171436   8.434   6.248   3.381
56513SOL    HW271437   8.475   6.366   3.467
56514SOL     OW71438   7.063  13.092  14.400
56514SOL    HW171439   6.997  13.117  14.335
56514SOL    HW271440   7.145  13.089  14.351
56515SOL     OW71441   0.456   5.479   6.791
56515SOL    HW171442   0.510   5.408   6.756
56515SOL    HW271443   0.396   5.500   6.719
56516SOL     OW71444   8.386   0.682   9.384
56516SOL    HW171445   8.460   0.671   9.444
56516SOL    HW271446   8.343   0.762   9.414
56517SOL     OW71447  13.449   6.548   4.577
56517SOL    HW171448  13.509   6.621   4.589
56517SOL    HW271449  13.363   6.589   4.568
56518SOL     OW71450   2.291   6.649   3.662
56518SOL    HW171451   2.319   6.572   3.612
56518SOL    HW271452   2.201   6.630   3.688
56519SOL     OW71453  12.662   4.269   9.385
56519SOL    HW171454  12.569   4.270   9.364
56519SOL    HW271455  12.678   4.182   9.420
56520SOL     OW71456   4.914  13.767   0.049
56520SOL    HW171457   4.872  13.825   0.113
56520SOL    HW271458   4.868  13.784  14.849
56521SOL     OW71459  11.558   8.022   6.112
56521SOL    HW171460  11.578   8.032   6.205
56521SOL    HW271461  11.619   7.955   6.081
56522SOL     OW71462  13.969   6.387   1.297
56522SOL    HW171463  13.892   6.409   1.349
56522SOL    HW271464  14.038   6.373   1.362
56523SOL     OW71465   7.192  11.695   2.967
56523SOL    HW171466   7.193  11.742   3.051
56523SOL    HW271467   7.099  11.687   2.945
56524SOL     OW71468   7.293   5.853   6.791
56524SOL    HW171469   7.200   5.846   6.772
56524SOL    HW271470   7.323   5.926   6.736
56525SOL     OW71471   5.549   7.814   1.573
56525SOL    HW171472   5.597   7.797   1.653
56525SOL    HW271473   5.606   7.873   1.523
56526SOL     OW71474   2.243   4.265   4.143
56526SOL    HW171475   2.290   4.283   4.225
56526SOL    HW271476   2.269   4.336   4.085
56527SOL     OW71477  14.459  11.869   4.612
56527SOL    HW171478  14.454  11.792   4.555
56527SOL    HW271479  14.447  11.943   4.553
56528SOL     OW71480  11.591   4.607   1.961
56528SOL    HW171481  11.515   4.549   1.969
56528SOL    HW271482  11.578   4.672   2.030
56529SOL     OW71483   9.811   9.788   8.586
56529SOL    HW171484   9.848   9.854   8.528
56529SOL    HW271485   9.874   9.716   8.585
56530SOL     OW71486  14.437   2.274   4.874
56530SOL    HW171487  14.434   2.189   4.919
56530SOL    HW271488  14.515   2.269   4.819
56531SOL     OW71489  10.075   3.868   2.483
56531SOL    HW171490   9.981   3.851   2.492
56531SOL    HW271491  10.083   3.915   2.400
56532SOL     OW71492   5.583  12.500  13.156
56532SOL    HW171493   5.548  12.582  13.122
56532SOL    HW271494   5.581  12.440  13.081
56533SOL     OW71495   1.028  13.511  13.319
56533SOL    HW171496   1.078  13.571  13.263
56533SOL    HW271497   1.095  13.467  13.373
56534SOL     OW71498   1.801  10.075   7.010
56534SOL    HW171499   1.726  10.135   7.012
56534SOL    HW271500   1.787  10.023   6.931
56535SOL     OW71501   3.153   5.332   6.170
56535SOL    HW171502   3.243   5.360   6.150
56535SOL    HW271503   3.148   5.243   6.137
56536SOL     OW71504   6.392  14.644   1.020
56536SOL    HW171505   6.349  14.688   1.094
56536SOL    HW271506   6.424  14.562   1.058
56537SOL     OW71507   0.661  13.717   5.821
56537SOL    HW171508   0.718  13.719   5.899
56537SOL    HW271509   0.579  13.756   5.851
56538SOL     OW71510   8.053   0.827  11.679
56538SOL    HW171511   8.042   0.872  11.595
56538SOL    HW271512   8.057   0.734  11.656
56539SOL     OW71513   0.514   0.913   8.266
56539SOL    HW171514   0.502   1.008   8.272
56539SOL    HW271515   0.563   0.890   8.345
56540SOL     OW71516  10.660   5.309   1.028
56540SOL    HW171517  10.635   5.366   1.100
56540SOL    HW271518  10.730   5.254   1.063
56541SOL     OW71519  12.948  13.118   2.165
56541SOL    HW171520  12.977  13.088   2.252
56541SOL    HW271521  12.856  13.142   2.179
56542SOL     OW71522   8.070   9.760   1.530
56542SOL    HW171523   8.165   9.750   1.522
56542SOL    HW271524   8.054   9.853   1.513
56543SOL     OW71525   9.152   1.192   9.699
56543SOL    HW171526   9.088   1.215   9.631
56543SOL    HW271527   9.211   1.267   9.702
56544SOL     OW71528   2.939   9.200   6.578
56544SOL    HW171529   2.852   9.165   6.599
56544SOL    HW271530   2.927   9.295   6.575
56545SOL     OW71531   6.803  13.413  13.832
56545SOL    HW171532   6.779  13.321  13.820
56545SOL    HW271533   6.723  13.456  13.862
56546SOL     OW71534   2.343   8.800   9.019
56546SOL    HW171535   2.410   8.732   9.018
56546SOL    HW271536   2.277   8.770   8.957
56547SOL     OW71537   8.692   3.847   6.545
56547SOL    HW171538   8.606   3.811   6.564
56547SOL    HW271539   8.739   3.840   6.628
56548SOL     OW71540   7.190   9.568  11.277
56548SOL    HW171541   7.241   9.593  11.354
56548SOL    HW271542   7.106   9.612  11.289
56549SOL     OW71543   2.642  10.127   6.401
56549SOL    HW171544   2.730  10.163   6.397
56549SOL    HW271545   2.601  10.173   6.475
56550SOL     OW71546   3.287   3.475   3.918
56550SOL    HW171547   3.316   3.432   3.999
56550SOL    HW271548   3.191   3.477   3.925
56551SOL     OW71549   3.444   2.697   8.066
56551SOL    HW171550   3.469   2.739   8.148
56551SOL    HW271551   3.512   2.724   8.004
56552SOL     OW71552   9.088  12.346  14.645
56552SOL    HW171553   8.997  12.327  14.624
56552SOL    HW271554   9.087  12.376  14.736
56553SOL     OW71555  11.138   8.192   7.744
56553SOL    HW171556  11.115   8.258   7.679
56553SOL    HW271557  11.233   8.198   7.753
56554SOL     OW71558   4.622  14.009   4.883
56554SOL    HW171559   4.656  14.031   4.969
56554SOL    HW271560   4.649  13.918   4.869
56555SOL     OW71561   0.899   7.421   0.977
56555SOL    HW171562   0.900   7.331   0.945
56555SOL    HW271563   0.825   7.462   0.931
56556SOL     OW71564  12.438   1.276  12.011
56556SOL    HW171565  12.435   1.228  11.928
56556SOL    HW271566  12.378   1.349  11.998
56557SOL     OW71567  10.554   1.331   7.894
56557SOL    HW171568  10.520   1.287   7.972
56557SOL    HW271569  10.649   1.327   7.903
56558SOL     OW71570  13.913   0.590   6.078
56558SOL    HW171571  13.836   0.574   6.024
56558SOL    HW271572  13.879   0.595   6.168
56559SOL     OW71573  10.206   0.822   2.024
56559SOL    HW171574  10.167   0.907   2.005
56559SOL    HW271575  10.298   0.832   1.998
56560SOL     OW71576   8.559   8.207   8.286
56560SOL    HW171577   8.625   8.239   8.225
56560SOL    HW271578   8.514   8.137   8.238
56561SOL     OW71579  11.442   9.420  11.417
56561SOL    HW171580  11.416   9.332  11.444
56561SOL    HW271581  11.361   9.459  11.383
56562SOL     OW71582   8.216   7.474   7.729
56562SOL    HW171583   8.171   7.558   7.733
56562SOL    HW271584   8.182   7.431   7.651
56563SOL     OW71585   6.119   0.367   8.287
56563SOL    HW171586   6.106   0.330   8.200
56563SOL    HW271587   6.108   0.461   8.275
56564SOL     OW71588  10.093   0.947  10.872
56564SOL    HW171589  10.119   1.037  10.852
56564SOL    HW271590  10.116   0.897  10.794
56565SOL     OW71591  10.372   6.136   0.775
56565SOL    HW171592  10.334   6.224   0.779
56565SOL    HW271593  10.431   6.139   0.700
56566SOL     OW71594  11.541   4.471  11.505
56566SOL    HW171595  11.500   4.549  11.468
56566SOL    HW271596  11.522   4.477  11.599
56567SOL     OW71597  12.241  11.070   1.762
56567SOL    HW171598  12.149  11.073   1.737
56567SOL    HW271599  12.251  11.142   1.825
56568SOL     OW71600  14.037   3.258  14.615
56568SOL    HW171601  14.010   3.177  14.658
56568SOL    HW271602  14.133   3.250  14.609
56569SOL     OW71603   5.549  12.917   0.868
56569SOL    HW171604   5.482  12.911   0.800
56569SOL    HW271605   5.558  13.011   0.884
56570SOL     OW71606  10.299   6.247   4.923
56570SOL    HW171607  10.297   6.318   4.858
56570SOL    HW271608  10.254   6.174   4.880
56571SOL     OW71609   5.185   4.714   0.823
56571SOL    HW171610   5.133   4.739   0.747
56571SOL    HW271611   5.141   4.637   0.859
56572SOL     OW71612   9.691  11.423  12.339
56572SOL    HW171613   9.659  11.453  12.254
56572SOL    HW271614   9.687  11.327  12.333
56573SOL     OW71615   6.678   5.882  12.374
56573SOL    HW171616   6.720   5.929  12.446
56573SOL    HW271617   6.750   5.842  12.326
56574SOL     OW71618   3.546  13.176  11.467
56574SOL    HW171619   3.537  13.154  11.375
56574SOL    HW271620   3.477  13.240  11.484
56575SOL     OW71621   9.219  12.259   4.080
56575SOL    HW171622   9.270  12.179   4.072
56575SOL    HW271623   9.133  12.237   4.044
56576SOL     OW71624  11.594  13.321   1.310
56576SOL    HW171625  11.539  13.282   1.242
56576SOL    HW271626  11.662  13.368   1.262
56577SOL     OW71627  14.364   4.949   8.868
56577SOL    HW171628  14.422   4.996   8.927
56577SOL    HW271629  14.397   4.859   8.867
56578SOL     OW71630   0.113   5.847   4.571
56578SOL    HW171631   0.202   5.880   4.563
56578SOL    HW271632   0.102   5.830   4.664
56579SOL     OW71633   1.374   4.768  13.688
56579SOL    HW171634   1.329   4.706  13.746
56579SOL    HW271635   1.306   4.827  13.657
56580SOL     OW71636   7.954   6.551  12.407
56580SOL    HW171637   7.997   6.590  12.483
56580SOL    HW271638   8.002   6.587  12.332
56581SOL     OW71639  10.981  14.331   7.908
56581SOL    HW171640  11.053  14.275   7.876
56581SOL    HW271641  10.906  14.272   7.912
56582SOL     OW71642   5.818   1.554  11.906
56582SOL    HW171643   5.891   1.616  11.907
56582SOL    HW271644   5.856   1.473  11.942
56583SOL     OW71645   5.339  11.311  14.491
56583SOL    HW171646   5.251  11.275  14.505
56583SOL    HW271647   5.397  11.247  14.532
56584SOL     OW71648   9.239   0.614   9.827
56584SOL    HW171649   9.232   0.688   9.767
56584SOL    HW271650   9.254   0.654   9.913
56585SOL     OW71651   7.620   6.871  14.414
56585SOL    HW171652   7.575   6.788  14.400
56585SOL    HW271653   7.676   6.855  14.491
56586SOL     OW71654  14.317  13.009   4.018
56586SOL    HW171655  14.326  12.915   4.036
56586SOL    HW271656  14.332  13.051   4.103
56587SOL     OW71657   4.940   7.993   9.939
56587SOL    HW171658   5.003   7.929   9.972
56587SOL    HW271659   4.919   7.963   9.851
56588SOL     OW71660   0.600  13.560  11.321
56588SOL    HW171661   0.560  13.572  11.407
56588SOL    HW271662   0.547  13.493  11.278
56589SOL     OW71663  14.483   2.925   6.666
56589SOL    HW171664  14.441   2.916   6.580
56589SOL    HW271665  14.451   2.850   6.716
56590SOL     OW71666   2.050  14.808  13.983
56590SOL    HW171667   2.109  14.873  14.021
56590SOL    HW271668   2.018  14.758  14.058
56591SOL     OW71669  10.575  13.147   5.206
56591SOL    HW171670  10.509  13.078   5.194
56591SOL    HW271671  10.526  13.228   5.193
56592SOL     OW71672  12.059  13.130   1.788
56592SOL    HW171673  11.970  13.163   1.773
56592SOL    HW271674  12.114  13.208   1.785
56593SOL     OW71675   9.246   6.340  11.950
56593SOL    HW171676   9.311   6.271  11.936
56593SOL    HW271677   9.283   6.394  12.019
56594SOL     OW71678   4.693  12.517  11.388
56594SOL    HW171679   4.671  12.574  11.315
56594SOL    HW271680   4.786  12.500  11.378
56595SOL     OW71681   9.287   6.872   6.566
56595SOL    HW171682   9.318   6.945   6.619
56595SOL    HW271683   9.193   6.868   6.583
56596SOL     OW71684   2.679  14.455   7.579
56596SOL    HW171685   2.754  14.428   7.630
56596SOL    HW271686   2.703  14.541   7.544
56597SOL     OW71687   1.801   9.160   9.582
56597SOL    HW171688   1.725   9.190   9.632
56597SOL    HW271689   1.794   9.206   9.498
56598SOL     OW71690   1.099  13.223   5.570
56598SOL    HW171691   1.156  13.264   5.505
56598SOL    HW271692   1.031  13.287   5.586
56599SOL     OW71693   3.295   8.226   8.800
56599SOL    HW171694   3.310   8.181   8.883
56599SOL    HW271695   3.348   8.306   8.806
56600SOL     OW71696   6.283   6.680   2.756
56600SOL    HW171697   6.236   6.599   2.736
56600SOL    HW271698   6.375   6.654   2.758
56601SOL     OW71699  13.200  14.292   8.527
56601SOL    HW171700  13.160  14.212   8.492
56601SOL    HW271701  13.186  14.358   8.459
56602SOL     OW71702   5.644   6.108  13.039
56602SOL    HW171703   5.635   6.203  13.027
56602SOL    HW271704   5.732   6.096  13.073
56603SOL     OW71705  11.332  14.723   4.997
56603SOL    HW171706  11.267  14.736   4.929
56603SOL    HW271707  11.324  14.800   5.054
56604SOL     OW71708   5.230  14.345   4.688
56604SOL    HW171709   5.184  14.288   4.627
56604SOL    HW271710   5.164  14.369   4.753
56605SOL     OW71711   9.464   7.415   1.732
56605SOL    HW171712   9.521   7.382   1.661
56605SOL    HW271713   9.489   7.363   1.808
56606SOL     OW71714   8.620   1.388  14.040
56606SOL    HW171715   8.602   1.336  14.118
56606SOL    HW271716   8.670   1.330  13.983
56607SOL     OW71717  11.546  13.781   5.299
56607SOL    HW171718  11.520  13.862   5.343
56607SOL    HW271719  11.596  13.733   5.366
56608SOL     OW71720  14.689   3.461   8.283
56608SOL    HW171721  14.622   3.480   8.218
56608SOL    HW271722  14.642   3.454   8.366
56609SOL     OW71723   9.752  10.334   4.195
56609SOL    HW171724   9.750  10.291   4.280
56609SOL    HW271725   9.683  10.400   4.200
56610SOL     OW71726   5.719  10.626   2.485
56610SOL    HW171727   5.707  10.680   2.407
56610SOL    HW271728   5.665  10.669   2.552
56611SOL     OW71729   8.330  14.121   9.986
56611SOL    HW171730   8.275  14.064  10.040
56611SOL    HW271731   8.310  14.209  10.017
56612SOL     OW71732   0.653  11.710   7.761
56612SOL    HW171733   0.602  11.788   7.740
56612SOL    HW271734   0.699  11.690   7.679
56613SOL     OW71735   2.964   3.513   2.569
56613SOL    HW171736   2.962   3.430   2.616
56613SOL    HW271737   2.878   3.553   2.585
56614SOL     OW71738   2.349  11.382   4.991
56614SOL    HW171739   2.362  11.423   4.905
56614SOL    HW271740   2.429  11.402   5.039
56615SOL     OW71741   0.415  10.280  10.089
56615SOL    HW171742   0.478  10.223  10.132
56615SOL    HW271743   0.447  10.288   9.999
56616SOL     OW71744   1.073   3.484  14.220
56616SOL    HW171745   1.034   3.413  14.272
56616SOL    HW271746   1.152   3.508  14.269
56617SOL     OW71747   7.827  14.262   7.652
56617SOL    HW171748   7.919  14.250   7.676
56617SOL    HW271749   7.790  14.174   7.653
56618SOL     OW71750   3.639   3.972   2.919
56618SOL    HW171751   3.673   4.007   2.837
56618SOL    HW271752   3.589   3.894   2.892
56619SOL     OW71753   5.515   3.636   3.758
56619SOL    HW171754   5.573   3.559   3.763
56619SOL    HW271755   5.432   3.606   3.795
56620SOL     OW71756   2.814   3.157   8.845
56620SOL    HW171757   2.799   3.177   8.753
56620SOL    HW271758   2.895   3.105   8.845
56621SOL     OW71759   4.380   2.341   5.923
56621SOL    HW171760   4.315   2.395   5.876
56621SOL    HW271761   4.398   2.268   5.864
56622SOL     OW71762   3.639  14.494   1.427
56622SOL    HW171763   3.597  14.408   1.432
56622SOL    HW271764   3.655  14.518   1.518
56623SOL     OW71765   1.794  13.345  10.624
56623SOL    HW171766   1.850  13.361  10.700
56623SOL    HW271767   1.851  13.298  10.562
56624SOL     OW71768   4.467   2.796  12.655
56624SOL    HW171769   4.445   2.746  12.733
56624SOL    HW271770   4.438   2.742  12.581
56625SOL     OW71771  11.716  12.806   1.025
56625SOL    HW171772  11.662  12.737   1.065
56625SOL    HW271773  11.712  12.879   1.087
56626SOL     OW71774   6.412  11.470   0.269
56626SOL    HW171775   6.339  11.437   0.217
56626SOL    HW271776   6.371  11.511   0.345
56627SOL     OW71777  13.489  12.383  13.012
56627SOL    HW171778  13.395  12.386  13.027
56627SOL    HW271779  13.519  12.473  13.025
56628SOL     OW71780   9.556   8.833   1.023
56628SOL    HW171781   9.477   8.886   1.010
56628SOL    HW271782   9.549   8.764   0.957
56629SOL     OW71783  13.551  14.626  14.321
56629SOL    HW171784  13.469  14.675  14.325
56629SOL    HW271785  13.525  14.534  14.317
56630SOL     OW71786   9.091   5.443   6.032
56630SOL    HW171787   9.122   5.529   6.005
56630SOL    HW271788   9.106   5.386   5.956
56631SOL     OW71789  11.448   6.606   3.712
56631SOL    HW171790  11.459   6.697   3.682
56631SOL    HW271791  11.356   6.601   3.739
56632SOL     OW71792  14.033   7.189   1.619
56632SOL    HW171793  14.011   7.125   1.552
56632SOL    HW271794  14.081   7.258   1.572
56633SOL     OW71795  14.593   3.250  11.890
56633SOL    HW171796  14.550   3.310  11.829
56633SOL    HW271797  14.618   3.305  11.964
56634SOL     OW71798   4.477  14.043   9.536
56634SOL    HW171799   4.561  14.071   9.573
56634SOL    HW271800   4.418  14.116   9.554
56635SOL     OW71801  11.919  14.317   3.770
56635SOL    HW171802  11.824  14.315   3.758
56635SOL    HW271803  11.954  14.268   3.695
56636SOL     OW71804  13.892   1.146   6.752
56636SOL    HW171805  13.927   1.151   6.664
56636SOL    HW271806  13.898   1.054   6.776
56637SOL     OW71807  14.131   9.263  13.124
56637SOL    HW171808  14.086   9.204  13.185
56637SOL    HW271809  14.178   9.324  13.182
56638SOL     OW71810   5.653   4.646  13.941
56638SOL    HW171811   5.611   4.726  13.908
56638SOL    HW271812   5.664   4.661  14.035
56639SOL     OW71813   8.710   9.134   1.144
56639SOL    HW171814   8.762   9.214   1.142
56639SOL    HW271815   8.652   9.141   1.069
56640SOL     OW71816  13.835   1.063   7.275
56640SOL    HW171817  13.748   1.096   7.299
56640SOL    HW271818  13.886   1.141   7.256
56641SOL     OW71819   8.221  14.342   5.658
56641SOL    HW171820   8.316  14.337   5.665
56641SOL    HW271821   8.204  14.362   5.566
56642SOL     OW71822   8.984   6.693  11.165
56642SOL    HW171823   8.898   6.671  11.200
56642SOL    HW271824   9.028   6.739  11.237
56643SOL     OW71825   5.105  12.911   5.633
56643SOL    HW171826   5.200  12.905   5.642
56643SOL    HW271827   5.090  12.991   5.581
56644SOL     OW71828   2.232   9.472  11.282
56644SOL    HW171829   2.252   9.379  11.272
56644SOL    HW271830   2.234   9.487  11.376
56645SOL     OW71831  14.468   7.711   5.076
56645SOL    HW171832  14.499   7.761   5.000
56645SOL    HW271833  14.506   7.757   5.151
56646SOL     OW71834   1.141   6.140  11.464
56646SOL    HW171835   1.155   6.146  11.369
56646SOL    HW271836   1.208   6.079  11.494
56647SOL     OW71837  14.415  10.697   8.057
56647SOL    HW171838  14.444  10.638   7.987
56647SOL    HW271839  14.371  10.768   8.010
56648SOL     OW71840   4.743   6.182   3.042
56648SOL    HW171841   4.740   6.146   3.130
56648SOL    HW271842   4.756   6.106   2.985
56649SOL     OW71843   0.255   2.410   4.027
56649SOL    HW171844   0.261   2.321   3.991
56649SOL    HW271845   0.219   2.463   3.956
56650SOL     OW71846   5.641   3.373   3.706
56650SOL    HW171847   5.596   3.311   3.649
56650SOL    HW271848   5.626   3.340   3.794
56651SOL     OW71849  10.670   7.349  10.406
56651SOL    HW171850  10.613   7.366  10.481
56651SOL    HW271851  10.759   7.352  10.442
56652SOL     OW71852   1.898   1.010  10.240
56652SOL    HW171853   1.886   1.089  10.187
56652SOL    HW271854   1.901   0.939  10.176
56653SOL     OW71855   8.357   2.747  10.154
56653SOL    HW171856   8.439   2.796  10.166
56653SOL    HW271857   8.341   2.706  10.239
56654SOL     OW71858   3.301   9.883  10.527
56654SOL    HW171859   3.256   9.959  10.492
56654SOL    HW271860   3.232   9.828  10.563
56655SOL     OW71861  12.793   8.711   8.939
56655SOL    HW171862  12.884   8.688   8.954
56655SOL    HW271863  12.780   8.792   8.989
56656SOL     OW71864  13.862  10.471   0.785
56656SOL    HW171865  13.779  10.470   0.737
56656SOL    HW271866  13.870  10.561   0.816
56657SOL     OW71867   6.217   6.230  10.863
56657SOL    HW171868   6.137   6.267  10.899
56657SOL    HW271869   6.262   6.305  10.823
56658SOL     OW71870   5.573   4.628  12.752
56658SOL    HW171871   5.552   4.623  12.845
56658SOL    HW271872   5.568   4.722  12.732
56659SOL     OW71873   7.337  13.576   0.802
56659SOL    HW171874   7.331  13.534   0.888
56659SOL    HW271875   7.256  13.550   0.757
56660SOL     OW71876   8.708  10.190   6.225
56660SOL    HW171877   8.706  10.123   6.156
56660SOL    HW271878   8.679  10.144   6.304
56661SOL     OW71879   0.604   6.692   5.349
56661SOL    HW171880   0.659   6.770   5.355
56661SOL    HW271881   0.597   6.675   5.255
56662SOL     OW71882  12.993   2.713  12.067
56662SOL    HW171883  13.058   2.706  12.137
56662SOL    HW271884  13.032   2.667  11.993
56663SOL     OW71885  10.996  12.368  10.015
56663SOL    HW171886  11.056  12.344   9.944
56663SOL    HW271887  10.941  12.437   9.978
56664SOL     OW71888   7.280   9.808   8.572
56664SOL    HW171889   7.365   9.801   8.613
56664SOL    HW271890   7.286   9.887   8.518
56665SOL     OW71891  12.086  13.910   6.465
56665SOL    HW171892  12.133  13.834   6.498
56665SOL    HW271893  12.145  13.949   6.401
56666SOL     OW71894   1.205  12.354   2.218
56666SOL    HW171895   1.283  12.320   2.175
56666SOL    HW271896   1.206  12.448   2.198
56667SOL     OW71897   2.174   8.057  12.105
56667SOL    HW171898   2.248   8.053  12.165
56667SOL    HW271899   2.112   8.117  12.147
56668SOL     OW71900   1.585   1.699  13.222
56668SOL    HW171901   1.500   1.684  13.263
56668SOL    HW271902   1.623   1.611  13.212
56669SOL     OW71903   0.591   6.870  10.071
56669SOL    HW171904   0.601   6.877   9.976
56669SOL    HW271905   0.642   6.943  10.106
56670SOL     OW71906   5.464  12.026   9.594
56670SOL    HW171907   5.524  12.075   9.538
56670SOL    HW271908   5.456  12.080   9.673
56671SOL     OW71909  10.770   9.563   1.496
56671SOL    HW171910  10.829   9.638   1.504
56671SOL    HW271911  10.784   9.530   1.407
56672SOL     OW71912   1.291   3.390   2.715
56672SOL    HW171913   1.296   3.435   2.799
56672SOL    HW271914   1.377   3.351   2.702
56673SOL     OW71915   9.484   1.286   1.696
56673SOL    HW171916   9.395   1.259   1.718
56673SOL    HW271917   9.504   1.237   1.617
56674SOL     OW71918  10.415  10.126  13.940
56674SOL    HW171919  10.484  10.160  13.884
56674SOL    HW271920  10.414  10.032  13.922
56675SOL     OW71921  10.431   3.008  10.226
56675SOL    HW171922  10.419   3.026  10.133
56675SOL    HW271923  10.387   3.081  10.270
56676SOL     OW71924   9.267  14.661   4.481
56676SOL    HW171925   9.309  14.746   4.469
56676SOL    HW271926   9.323  14.614   4.543
56677SOL     OW71927  10.824  14.143  10.489
56677SOL    HW171928  10.787  14.231  10.497
56677SOL    HW271929  10.915  14.153  10.514
56678SOL     OW71930   8.461   1.674   8.702
56678SOL    HW171931   8.402   1.613   8.657
56678SOL    HW271932   8.541   1.624   8.715
56679SOL     OW71933   0.339   1.390   4.979
56679SOL    HW171934   0.247   1.416   4.979
56679SOL    HW271935   0.361   1.377   4.887
56680SOL     OW71936  14.201   6.935  11.593
56680SOL    HW171937  14.202   6.979  11.677
56680SOL    HW271938  14.212   6.842  11.614
56681SOL     OW71939   1.655   1.149   1.743
56681SOL    HW171940   1.614   1.222   1.789
56681SOL    HW271941   1.748   1.173   1.739
56682SOL     OW71942   8.229   5.793   6.573
56682SOL    HW171943   8.193   5.882   6.566
56682SOL    HW271944   8.297   5.800   6.640
56683SOL     OW71945  14.066   0.427   9.365
56683SOL    HW171946  14.109   0.464   9.288
56683SOL    HW271947  14.101   0.338   9.371
56684SOL     OW71948   5.144   5.514   3.799
56684SOL    HW171949   5.086   5.438   3.805
56684SOL    HW271950   5.085   5.590   3.798
56685SOL     OW71951  13.607  12.678   0.556
56685SOL    HW171952  13.632  12.617   0.626
56685SOL    HW271953  13.547  12.628   0.500
56686SOL     OW71954  14.138   8.790   7.635
56686SOL    HW171955  14.168   8.850   7.567
56686SOL    HW271956  14.044   8.785   7.622
56687SOL     OW71957   2.602   0.321   7.934
56687SOL    HW171958   2.671   0.306   7.999
56687SOL    HW271959   2.615   0.253   7.869
56688SOL     OW71960   3.393   9.562   7.350
56688SOL    HW171961   3.369   9.653   7.369
56688SOL    HW271962   3.326   9.510   7.394
56689SOL     OW71963   6.172   7.575   9.469
56689SOL    HW171964   6.155   7.539   9.382
56689SOL    HW271965   6.145   7.506   9.529
56690SOL     OW71966  13.252   4.715   4.126
56690SOL    HW171967  13.180   4.684   4.181
56690SOL    HW271968  13.209   4.753   4.049
56691SOL     OW71969  13.877  10.131   7.950
56691SOL    HW171970  13.898  10.188   8.023
56691SOL    HW271971  13.803  10.173   7.906
56692SOL     OW71972  14.465  12.387   4.070
56692SOL    HW171973  14.374  12.358   4.069
56692SOL    HW271974  14.468  12.458   4.005
56693SOL     OW71975  13.003   6.579   9.587
56693SOL    HW171976  13.030   6.533   9.666
56693SOL    HW271977  12.945   6.648   9.619
56694SOL     OW71978  10.529   3.218  13.965
56694SOL    HW171979  10.459   3.223  13.901
56694SOL    HW271980  10.602   3.178  13.919
56695SOL     OW71981   9.173   7.581  13.134
56695SOL    HW171982   9.233   7.626  13.075
56695SOL    HW271983   9.117   7.650  13.170
56696SOL     OW71984   0.453  12.012   5.931
56696SOL    HW171985   0.426  11.966   6.011
56696SOL    HW271986   0.424  11.955   5.860
56697SOL     OW71987  12.908   9.741  13.256
56697SOL    HW171988  12.887   9.726  13.348
56697SOL    HW271989  12.935   9.833  13.252
56698SOL     OW71990  12.385  12.138  12.898
56698SOL    HW171991  12.394  12.221  12.851
56698SOL    HW271992  12.475  12.109  12.913
56699SOL     OW71993   7.445  10.316  11.115
56699SOL    HW171994   7.522  10.363  11.083
56699SOL    HW271995   7.447  10.232  11.069
56700SOL     OW71996   2.782   2.352   3.934
56700SOL    HW171997   2.818   2.303   3.859
56700SOL    HW271998   2.688   2.358   3.916
56701SOL     OW71999   5.507   2.473   3.196
56701SOL    HW172000   5.572   2.403   3.191
56701SOL    HW272001   5.466   2.462   3.282
56702SOL     OW72002   4.535   8.471  13.218
56702SOL    HW172003   4.500   8.537  13.157
56702SOL    HW272004   4.630   8.487  13.218
56703SOL     OW72005   5.216   6.751  13.474
56703SOL    HW172006   5.178   6.713  13.395
56703SOL    HW272007   5.241   6.676  13.527
56704SOL     OW72008   7.543   5.943   5.311
56704SOL    HW172009   7.622   5.993   5.330
56704SOL    HW272010   7.554   5.913   5.221
56705SOL     OW72011  12.602   1.374   7.239
56705SOL    HW172012  12.543   1.298   7.238
56705SOL    HW272013  12.667   1.353   7.306
56706SOL     OW72014  13.795   8.677   1.430
56706SOL    HW172015  13.784   8.637   1.343
56706SOL    HW272016  13.719   8.647   1.479
56707SOL     OW72017   8.838   1.053  10.821
56707SOL    HW172018   8.887   0.974  10.795
56707SOL    HW272019   8.857   1.116  10.752
56708SOL     OW72020  10.016   4.766   2.880
56708SOL    HW172021  10.041   4.856   2.861
56708SOL    HW272022  10.057   4.715   2.810
56709SOL     OW72023  11.764   3.107   7.405
56709SOL    HW172024  11.859   3.102   7.397
56709SOL    HW272025  11.738   3.021   7.439
56710SOL     OW72026   2.699   9.849   8.805
56710SOL    HW172027   2.699   9.925   8.748
56710SOL    HW272028   2.761   9.788   8.765
56711SOL     OW72029  12.528   0.229  10.817
56711SOL    HW172030  12.542   0.206  10.725
56711SOL    HW272031  12.562   0.319  10.824
56712SOL     OW72032  11.407   9.878  12.889
56712SOL    HW172033  11.351   9.818  12.937
56712SOL    HW272034  11.465   9.916  12.955
56713SOL     OW72035  10.877  11.440  14.729
56713SOL    HW172036  10.887  11.484  14.645
56713SOL    HW272037  10.797  11.389  14.720
56714SOL     OW72038  10.819   1.000   5.086
56714SOL    HW172039  10.845   1.029   5.174
56714SOL    HW272040  10.723   0.998   5.089
56715SOL     OW72041  11.653   8.492   1.494
56715SOL    HW172042  11.604   8.429   1.441
56715SOL    HW272043  11.693   8.438   1.563
56716SOL     OW72044   2.927  12.675  10.767
56716SOL    HW172045   3.023  12.674  10.760
56716SOL    HW272046   2.898  12.615  10.699
56717SOL     OW72047   3.094   0.237  11.168
56717SOL    HW172048   3.185   0.210  11.184
56717SOL    HW272049   3.100   0.293  11.091
56718SOL     OW72050   2.528   1.800  11.716
56718SOL    HW172051   2.531   1.783  11.810
56718SOL    HW272052   2.611   1.844  11.697
56719SOL     OW72053   5.595  14.602   0.446
56719SOL    HW172054   5.529  14.659   0.408
56719SOL    HW272055   5.654  14.661   0.493
56720SOL     OW72056   7.381   8.377   1.212
56720SOL    HW172057   7.415   8.331   1.135
56720SOL    HW272058   7.285   8.372   1.202
56721SOL     OW72059   8.089   7.816   5.733
56721SOL    HW172060   8.110   7.907   5.714
56721SOL    HW272061   8.167   7.767   5.705
56722SOL     OW72062  13.413   0.020   2.596
56722SOL    HW172063  13.474   0.048   2.664
56722SOL    HW272064  13.458   0.040   2.514
56723SOL     OW72065   3.551  10.855   8.960
56723SOL    HW172066   3.524  10.919   8.893
56723SOL    HW272067   3.630  10.893   8.999
56724SOL     OW72068  14.506   8.211   5.021
56724SOL    HW172069  14.506   8.304   5.000
56724SOL    HW272070  14.514   8.167   4.936
56725SOL     OW72071  12.408   3.032  13.880
56725SOL    HW172072  12.501   3.015  13.864
56725SOL    HW272073  12.408   3.099  13.949
56726SOL     OW72074   5.949  10.550   2.163
56726SOL    HW172075   5.874  10.605   2.141
56726SOL    HW272076   6.022  10.610   2.172
56727SOL     OW72077   0.018   1.723   7.167
56727SOL    HW172078  14.821   1.768   7.194
56727SOL    HW272079   0.063   1.703   7.250
56728SOL     OW72080  13.463   3.352   6.728
56728SOL    HW172081  13.439   3.413   6.798
56728SOL    HW272082  13.500   3.407   6.660
56729SOL     OW72083   7.078  14.201  11.607
56729SOL    HW172084   7.100  14.271  11.668
56729SOL    HW272085   7.019  14.144  11.657
56730SOL     OW72086   9.721  13.274   2.496
56730SOL    HW172087   9.699  13.182   2.484
56730SOL    HW272088   9.794  13.289   2.436
56731SOL     OW72089  12.681   3.326   5.788
56731SOL    HW172090  12.718   3.375   5.714
56731SOL    HW272091  12.649   3.245   5.749
56732SOL     OW72092  11.238  13.476   7.124
56732SOL    HW172093  11.177  13.546   7.102
56732SOL    HW272094  11.184  13.407   7.161
56733SOL     OW72095   8.464  11.340   2.657
56733SOL    HW172096   8.377  11.320   2.690
56733SOL    HW272097   8.514  11.367   2.734
56734SOL     OW72098   2.026   7.299   5.265
56734SOL    HW172099   1.981   7.366   5.214
56734SOL    HW272100   2.114   7.295   5.227
56735SOL     OW72101   0.129  10.579   2.497
56735SOL    HW172102   0.173  10.617   2.573
56735SOL    HW272103   0.126  10.486   2.515
56736SOL     OW72104   9.450  11.628   7.066
56736SOL    HW172105   9.389  11.702   7.059
56736SOL    HW272106   9.516  11.645   6.999
56737SOL     OW72107   8.542  11.223   8.254
56737SOL    HW172108   8.568  11.192   8.167
56737SOL    HW272109   8.545  11.319   8.247
56738SOL     OW72110   1.526   1.285  13.576
56738SOL    HW172111   1.471   1.212  13.549
56738SOL    HW272112   1.583   1.302  13.501
56739SOL     OW72113   3.164   5.578  13.005
56739SOL    HW172114   3.139   5.633  13.080
56739SOL    HW272115   3.116   5.496  13.018
56740SOL     OW72116   5.132  14.618   8.146
56740SOL    HW172117   5.078  14.629   8.224
56740SOL    HW272118   5.145  14.707   8.114
56741SOL     OW72119   5.572   9.973  12.007
56741SOL    HW172120   5.664   9.984  11.984
56741SOL    HW272121   5.564   9.881  12.033
56742SOL     OW72122   4.793  10.988   0.936
56742SOL    HW172123   4.876  11.011   0.977
56742SOL    HW272124   4.787  10.893   0.946
56743SOL     OW72125   9.553   4.550  10.051
56743SOL    HW172126   9.632   4.538  10.103
56743SOL    HW272127   9.536   4.644  10.053
56744SOL     OW72128   5.043   2.093   5.906
56744SOL    HW172129   5.016   2.131   5.822
56744SOL    HW272130   4.975   2.122   5.967
56745SOL     OW72131   5.192   2.472  12.933
56745SOL    HW172132   5.105   2.509  12.923
56745SOL    HW272133   5.246   2.545  12.963
56746SOL     OW72134  12.943  12.957  14.729
56746SOL    HW172135  13.006  13.021  14.697
56746SOL    HW272136  12.925  12.983  14.819
56747SOL     OW72137   3.643   7.648   6.161
56747SOL    HW172138   3.686   7.600   6.091
56747SOL    HW272139   3.551   7.650   6.135
56748SOL     OW72140  13.459   9.165  13.299
56748SOL    HW172141  13.411   9.246  13.282
56748SOL    HW272142  13.536   9.193  13.348
56749SOL     OW72143   7.748   3.405   7.158
56749SOL    HW172144   7.670   3.351   7.169
56749SOL    HW272145   7.759   3.449   7.242
56750SOL     OW72146   2.229   8.870  11.164
56750SOL    HW172147   2.143   8.891  11.128
56750SOL    HW272148   2.225   8.900  11.255
56751SOL     OW72149   2.917  14.633  11.650
56751SOL    HW172150   2.863  14.664  11.722
56751SOL    HW272151   2.928  14.709  11.593
56752SOL     OW72152   0.426   0.386  14.585
56752SOL    HW172153   0.360   0.423  14.528
56752SOL    HW272154   0.391   0.398  14.674
56753SOL     OW72155   2.914   0.145  11.722
56753SOL    HW172156   2.922   0.071  11.663
56753SOL    HW272157   2.899   0.106  11.808
56754SOL     OW72158   5.736   5.213  12.137
56754SOL    HW172159   5.751   5.223  12.231
56754SOL    HW272160   5.656   5.162  12.131
56755SOL     OW72161   4.701   7.239   3.563
56755SOL    HW172162   4.643   7.248   3.488
56755SOL    HW272163   4.747   7.156   3.549
56756SOL     OW72164   3.584   2.609  10.246
56756SOL    HW172165   3.620   2.540  10.302
56756SOL    HW272166   3.656   2.632  10.187
56757SOL     OW72167  12.934   8.981  13.903
56757SOL    HW172168  13.012   9.026  13.873
56757SOL    HW272169  12.964   8.928  13.977
56758SOL     OW72170   9.259   8.908  10.059
56758SOL    HW172171   9.229   8.996  10.038
56758SOL    HW272172   9.228   8.892  10.148
56759SOL     OW72173   6.465   5.093   4.407
56759SOL    HW172174   6.495   5.182   4.424
56759SOL    HW272175   6.381   5.086   4.453
56760SOL     OW72176   8.679   0.666   7.131
56760SOL    HW172177   8.643   0.620   7.055
56760SOL    HW272178   8.695   0.756   7.100
56761SOL     OW72179   3.885  12.460   1.558
56761SOL    HW172180   3.827  12.385   1.568
56761SOL    HW272181   3.922  12.473   1.645
56762SOL     OW72182   8.586   3.345   9.667
56762SOL    HW172183   8.646   3.273   9.684
56762SOL    HW272184   8.642   3.414   9.631
56763SOL     OW72185   7.588   4.679   2.012
56763SOL    HW172186   7.677   4.710   2.030
56763SOL    HW272187   7.594   4.584   2.019
56764SOL     OW72188  12.984  13.502  14.095
56764SOL    HW172189  13.069  13.502  14.139
56764SOL    HW272190  12.942  13.583  14.123
56765SOL     OW72191   3.849   7.253   8.581
56765SOL    HW172192   3.765   7.297   8.595
56765SOL    HW272193   3.826   7.161   8.567
56766SOL     OW72194  11.427   2.043   5.340
56766SOL    HW172195  11.514   2.083   5.343
56766SOL    HW272196  11.367   2.116   5.325
56767SOL     OW72197   8.445   4.487   4.163
56767SOL    HW172198   8.387   4.455   4.233
56767SOL    HW272199   8.422   4.433   4.087
56768SOL     OW72200   0.495   7.445  14.556
56768SOL    HW172201   0.450   7.388  14.494
56768SOL    HW272202   0.458   7.422  14.641
56769SOL     OW72203   8.609   8.712   6.315
56769SOL    HW172204   8.621   8.790   6.368
56769SOL    HW272205   8.659   8.729   6.235
56770SOL     OW72206   2.082  12.559  10.750
56770SOL    HW172207   2.037  12.559  10.834
56770SOL    HW272208   2.130  12.642  10.748
56771SOL     OW72209  14.815  14.422   9.889
56771SOL    HW172210  14.758  14.346   9.889
56771SOL    HW272211   0.021  14.386   9.876
56772SOL     OW72212  13.788   1.027  13.723
56772SOL    HW172213  13.852   0.967  13.760
56772SOL    HW272214  13.820   1.115  13.745
56773SOL     OW72215   4.640   6.133   1.307
56773SOL    HW172216   4.636   6.037   1.302
56773SOL    HW272217   4.727   6.155   1.274
56774SOL     OW72218   8.452  12.455   6.872
56774SOL    HW172219   8.432  12.418   6.786
56774SOL    HW272220   8.544  12.483   6.865
56775SOL     OW72221   4.164  12.134   1.047
56775SOL    HW172222   4.097  12.088   1.099
56775SOL    HW272223   4.166  12.087   0.964
56776SOL     OW72224   4.170  13.732   2.588
56776SOL    HW172225   4.240  13.754   2.527
56776SOL    HW272226   4.091  13.729   2.534
56777SOL     OW72227   3.110   7.477  13.242
56777SOL    HW172228   3.032   7.479  13.187
56777SOL    HW272229   3.106   7.393  13.287
56778SOL     OW72230   9.526  14.044   0.593
56778SOL    HW172231   9.476  14.125   0.603
56778SOL    HW272232   9.542  14.014   0.683
56779SOL     OW72233   3.980   5.075  11.248
56779SOL    HW172234   4.011   5.054  11.159
56779SOL    HW272235   3.995   4.995  11.298
56780SOL     OW72236   2.244  11.904   8.038
56780SOL    HW172237   2.152  11.916   8.017
56780SOL    HW272238   2.245  11.889   8.133
56781SOL     OW72239   9.251   3.622  11.366
56781SOL    HW172240   9.306   3.544  11.381
56781SOL    HW272241   9.273   3.649  11.276
56782SOL     OW72242  12.741  13.034   6.557
56782SOL    HW172243  12.756  13.000   6.469
56782SOL    HW272244  12.720  12.957   6.609
56783SOL     OW72245   7.231   0.483  11.675
56783SOL    HW172246   7.195   0.415  11.732
56783SOL    HW272247   7.182   0.474  11.593
56784SOL     OW72248   0.082  11.176   8.635
56784SOL    HW172249   0.071  11.225   8.717
56784SOL    HW272250   0.003  11.121   8.629
56785SOL     OW72251  14.431  14.044  10.969
56785SOL    HW172252  14.494  13.979  11.001
56785SOL    HW272253  14.352  14.029  11.021
56786SOL     OW72254   5.149  11.948  12.642
56786SOL    HW172255   5.178  12.020  12.586
56786SOL    HW272256   5.100  11.890  12.584
56787SOL     OW72257   1.552   9.393   8.658
56787SOL    HW172258   1.485   9.334   8.691
56787SOL    HW272259   1.548   9.382   8.563
56788SOL     OW72260   6.769   9.267  14.069
56788SOL    HW172261   6.689   9.269  14.018
56788SOL    HW272262   6.839   9.260  14.004
56789SOL     OW72263   9.551  11.627   9.131
56789SOL    HW172264   9.477  11.674   9.093
56789SOL    HW272265   9.628  11.669   9.094
56790SOL     OW72266   1.573   7.413  12.105
56790SOL    HW172267   1.534   7.483  12.052
56790SOL    HW272268   1.664   7.440  12.117
56791SOL     OW72269  13.875  11.994   6.734
56791SOL    HW172270  13.813  11.985   6.806
56791SOL    HW272271  13.949  12.042   6.772
56792SOL     OW72272   7.733   7.542  12.315
56792SOL    HW172273   7.783   7.600  12.373
56792SOL    HW272274   7.744   7.579  12.228
56793SOL     OW72275   1.866   4.551  13.593
56793SOL    HW172276   1.818   4.490  13.537
56793SOL    HW272277   1.949   4.566  13.547
56794SOL     OW72278   1.611   6.775  14.498
56794SOL    HW172279   1.592   6.712  14.429
56794SOL    HW272280   1.541   6.762  14.562
56795SOL     OW72281   6.580   7.497   4.642
56795SOL    HW172282   6.564   7.564   4.576
56795SOL    HW272283   6.518   7.518   4.713
56796SOL     OW72284   1.735  10.847   1.614
56796SOL    HW172285   1.819  10.832   1.657
56796SOL    HW272286   1.691  10.913   1.667
56797SOL     OW72287   9.393  12.736   7.911
56797SOL    HW172288   9.430  12.718   7.824
56797SOL    HW272289   9.329  12.805   7.897
56798SOL     OW72290   8.839   9.029   6.263
56798SOL    HW172291   8.904   9.085   6.219
56798SOL    HW272292   8.821   9.074   6.345
56799SOL     OW72293   7.147   3.700   5.689
56799SOL    HW172294   7.182   3.787   5.669
56799SOL    HW272295   7.217   3.640   5.663
56800SOL     OW72296  12.150   2.061   7.418
56800SOL    HW172297  12.078   2.056   7.481
56800SOL    HW272298  12.113   2.029   7.336
56801SOL     OW72299   0.992   5.053   2.405
56801SOL    HW172300   0.902   5.027   2.425
56801SOL    HW272301   0.986   5.143   2.374
56802SOL     OW72302   5.600   3.233   0.223
56802SOL    HW172303   5.583   3.143   0.248
56802SOL    HW272304   5.634   3.274   0.302
56803SOL     OW72305   6.683  10.490  12.457
56803SOL    HW172306   6.633  10.451  12.528
56803SOL    HW272307   6.740  10.554  12.500
56804SOL     OW72308   8.497  10.528  12.947
56804SOL    HW172309   8.422  10.586  12.953
56804SOL    HW272310   8.573  10.586  12.949
56805SOL     OW72311   3.227   9.997  11.953
56805SOL    HW172312   3.242   9.972  11.862
56805SOL    HW272313   3.198   9.917  11.996
56806SOL     OW72314   1.992   2.974  13.859
56806SOL    HW172315   2.003   2.906  13.794
56806SOL    HW272316   1.906   2.958  13.897
56807SOL     OW72317   1.122   7.917   2.980
56807SOL    HW172318   1.152   7.933   3.070
56807SOL    HW272319   1.168   7.982   2.927
56808SOL     OW72320  14.566   4.326  14.708
56808SOL    HW172321  14.558   4.360  14.619
56808SOL    HW272322  14.646   4.274  14.708
56809SOL     OW72323   0.697  10.864  13.152
56809SOL    HW172324   0.766  10.840  13.214
56809SOL    HW272325   0.659  10.781  13.126
56810SOL     OW72326   1.660   3.715   4.998
56810SOL    HW172327   1.608   3.698   4.920
56810SOL    HW272328   1.751   3.700   4.970
56811SOL     OW72329   6.330   3.245   2.032
56811SOL    HW172330   6.386   3.284   1.964
56811SOL    HW272331   6.245   3.233   1.988
56812SOL     OW72332  12.857   8.207   6.631
56812SOL    HW172333  12.937   8.250   6.662
56812SOL    HW272334  12.806   8.277   6.590
56813SOL     OW72335  14.085  12.787   5.751
56813SOL    HW172336  14.140  12.826   5.683
56813SOL    HW272337  14.114  12.696   5.757
56814SOL     OW72338   4.923   8.758   0.131
56814SOL    HW172339   4.947   8.850   0.145
56814SOL    HW272340   4.926   8.719   0.219
56815SOL     OW72341   7.942   7.509   7.918
56815SOL    HW172342   8.033   7.526   7.943
56815SOL    HW272343   7.922   7.424   7.955
56816SOL     OW72344   3.695   6.076   7.547
56816SOL    HW172345   3.702   5.990   7.589
56816SOL    HW272346   3.761   6.129   7.591
56817SOL     OW72347  10.882  11.135  10.736
56817SOL    HW172348  10.877  11.101  10.647
56817SOL    HW272349  10.836  11.218  10.732
56818SOL     OW72350   1.320   0.839  10.858
56818SOL    HW172351   1.285   0.777  10.795
56818SOL    HW272352   1.315   0.924  10.815
56819SOL     OW72353   8.205   3.188  12.284
56819SOL    HW172354   8.146   3.151  12.350
56819SOL    HW272355   8.229   3.114  12.229
56820SOL     OW72356   2.794   7.068   1.376
56820SOL    HW172357   2.844   7.149   1.377
56820SOL    HW272358   2.856   7.001   1.348
56821SOL     OW72359   8.071   5.767  11.160
56821SOL    HW172360   8.156   5.796  11.194
56821SOL    HW272361   8.058   5.819  11.081
56822SOL     OW72362  13.086  10.198   4.235
56822SOL    HW172363  13.181  10.212   4.234
56822SOL    HW272364  13.065  10.186   4.328
56823SOL     OW72365   0.878   9.660  14.688
56823SOL    HW172366   0.919   9.602  14.752
56823SOL    HW272367   0.881   9.746  14.729
56824SOL     OW72368   7.738  13.654   0.266
56824SOL    HW172369   7.729  13.640   0.360
56824SOL    HW272370   7.782  13.575   0.234
56825SOL     OW72371   1.738  10.499   3.355
56825SOL    HW172372   1.774  10.566   3.412
56825SOL    HW272373   1.647  10.489   3.383
56826SOL     OW72374  11.191   9.831   3.576
56826SOL    HW172375  11.255   9.892   3.539
56826SOL    HW272376  11.121   9.826   3.511
56827SOL     OW72377   7.450  12.095   2.226
56827SOL    HW172378   7.441  12.085   2.321
56827SOL    HW272379   7.519  12.161   2.215
56828SOL     OW72380  13.284  14.337  10.119
56828SOL    HW172381  13.200  14.326  10.164
56828SOL    HW272382  13.261  14.376  10.035
56829SOL     OW72383   4.956  10.981   3.594
56829SOL    HW172384   5.001  10.986   3.679
56829SOL    HW272385   4.983  11.060   3.548
56830SOL     OW72386   7.657   8.997   7.777
56830SOL    HW172387   7.611   8.914   7.793
56830SOL    HW272388   7.662   9.038   7.864
56831SOL     OW72389   4.161  12.757   1.240
56831SOL    HW172390   4.098  12.686   1.255
56831SOL    HW272391   4.120  12.812   1.175
56832SOL     OW72392  14.260  10.067   6.157
56832SOL    HW172393  14.257  10.149   6.108
56832SOL    HW272394  14.168  10.045   6.172
56833SOL     OW72395   2.277   6.272  14.512
56833SOL    HW172396   2.248   6.333  14.445
56833SOL    HW272397   2.317   6.200  14.464
56834SOL     OW72398   5.800   2.467  10.782
56834SOL    HW172399   5.740   2.541  10.773
56834SOL    HW272400   5.780   2.430  10.868
56835SOL     OW72401   1.112   3.965  10.888
56835SOL    HW172402   1.094   3.971  10.982
56835SOL    HW272403   1.185   4.026  10.874
56836SOL     OW72404   4.700   8.651   9.337
56836SOL    HW172405   4.752   8.711   9.391
56836SOL    HW272406   4.764   8.597   9.292
56837SOL     OW72407   8.161   0.178   8.067
56837SOL    HW172408   8.243   0.193   8.115
56837SOL    HW272409   8.173   0.093   8.025
56838SOL     OW72410  12.979  12.728   8.896
56838SOL    HW172411  12.884  12.716   8.887
56838SOL    HW272412  12.990  12.759   8.986
56839SOL     OW72413   0.528   1.532  14.389
56839SOL    HW172414   0.500   1.623  14.396
56839SOL    HW272415   0.613   1.536  14.345
56840SOL     OW72416  11.671   3.897   4.086
56840SOL    HW172417  11.634   3.980   4.057
56840SOL    HW272418  11.737   3.876   4.020
56841SOL     OW72419   4.438  14.216   5.647
56841SOL    HW172420   4.423  14.234   5.740
56841SOL    HW272421   4.359  14.170   5.619
56842SOL     OW72422   6.974   9.910   8.737
56842SOL    HW172423   6.979   9.845   8.668
56842SOL    HW272424   7.065   9.928   8.761
56843SOL     OW72425  10.616  11.955  14.443
56843SOL    HW172426  10.657  12.039  14.427
56843SOL    HW272427  10.532  11.960  14.397
56844SOL     OW72428   6.068   0.887   5.160
56844SOL    HW172429   6.128   0.860   5.092
56844SOL    HW272430   6.077   0.982   5.164
56845SOL     OW72431   7.478   3.716   7.497
56845SOL    HW172432   7.433   3.785   7.546
56845SOL    HW272433   7.413   3.684   7.435
56846SOL     OW72434   3.705   9.156   1.516
56846SOL    HW172435   3.743   9.201   1.441
56846SOL    HW272436   3.779   9.137   1.573
56847SOL     OW72437   5.848   9.356  11.320
56847SOL    HW172438   5.848   9.425  11.385
56847SOL    HW272439   5.891   9.282  11.363
56848SOL     OW72440   4.083   9.280   7.158
56848SOL    HW172441   4.075   9.334   7.079
56848SOL    HW272442   4.023   9.207   7.143
56849SOL     OW72443  13.667  14.020   6.775
56849SOL    HW172444  13.663  14.107   6.736
56849SOL    HW272445  13.676  14.035   6.869
56850SOL     OW72446   2.433   6.513  10.223
56850SOL    HW172447   2.491   6.437  10.211
56850SOL    HW272448   2.455   6.571  10.150
56851SOL     OW72449  11.530   4.001   8.381
56851SOL    HW172450  11.581   3.960   8.451
56851SOL    HW272451  11.454   3.944   8.371
56852SOL     OW72452   8.848  11.895  12.880
56852SOL    HW172453   8.857  11.988  12.860
56852SOL    HW272454   8.936  11.867  12.905
56853SOL     OW72455  11.256  13.461   3.754
56853SOL    HW172456  11.236  13.528   3.819
56853SOL    HW272457  11.340  13.488   3.717
56854SOL     OW72458   7.536   3.968  11.999
56854SOL    HW172459   7.578   4.042  11.955
56854SOL    HW272460   7.559   3.892  11.945
56855SOL     OW72461   7.510   8.972  13.533
56855SOL    HW172462   7.452   8.936  13.600
56855SOL    HW272463   7.552   8.896  13.494
56856SOL     OW72464   9.878   7.806   5.264
56856SOL    HW172465   9.816   7.780   5.196
56856SOL    HW272466   9.859   7.748   5.338
56857SOL     OW72467  12.383   4.203   3.555
56857SOL    HW172468  12.391   4.124   3.608
56857SOL    HW272469  12.420   4.179   3.470
56858SOL     OW72470   1.615   1.448  14.112
56858SOL    HW172471   1.612   1.540  14.139
56858SOL    HW272472   1.694   1.441  14.058
56859SOL     OW72473   9.992   4.596  14.081
56859SOL    HW172474  10.007   4.518  14.027
56859SOL    HW272475   9.901   4.621  14.064
56860SOL     OW72476  13.442   2.095   7.167
56860SOL    HW172477  13.408   2.154   7.234
56860SOL    HW272478  13.373   2.091   7.101
56861SOL     OW72479  10.164  10.737   6.389
56861SOL    HW172480  10.102  10.779   6.330
56861SOL    HW272481  10.161  10.644   6.365
56862SOL     OW72482   4.099  12.934   8.010
56862SOL    HW172483   4.175  12.878   7.996
56862SOL    HW272484   4.027  12.873   8.028
56863SOL     OW72485  10.736   2.816   0.174
56863SOL    HW172486  10.688   2.891   0.209
56863SOL    HW272487  10.670   2.747   0.166
56864SOL     OW72488   4.273  12.208   8.632
56864SOL    HW172489   4.249  12.289   8.677
56864SOL    HW272490   4.229  12.215   8.547
56865SOL     OW72491  12.549   5.194  11.252
56865SOL    HW172492  12.615   5.139  11.294
56865SOL    HW272493  12.564   5.281  11.289
56866SOL     OW72494   1.032  13.869   3.598
56866SOL    HW172495   0.978  13.942   3.567
56866SOL    HW272496   0.986  13.791   3.567
56867SOL     OW72497   0.671   1.832   0.735
56867SOL    HW172498   0.735   1.764   0.755
56867SOL    HW272499   0.679   1.845   0.640
56868SOL     OW72500   7.082  10.781   5.938
56868SOL    HW172501   7.023  10.740   5.875
56868SOL    HW272502   7.150  10.821   5.884
56869SOL     OW72503   8.839   4.220  10.149
56869SOL    HW172504   8.765   4.159  10.154
56869SOL    HW272505   8.843   4.246  10.057
56870SOL     OW72506  11.154  14.576   1.557
56870SOL    HW172507  11.107  14.552   1.637
56870SOL    HW272508  11.206  14.498   1.536
56871SOL     OW72509   2.136  11.677   1.705
56871SOL    HW172510   2.230  11.660   1.711
56871SOL    HW272511   2.130  11.765   1.667
56872SOL     OW72512  12.741  11.020   0.779
56872SOL    HW172513  12.690  11.099   0.759
56872SOL    HW272514  12.740  11.014   0.874
56873SOL     OW72515  14.193   3.686   6.269
56873SOL    HW172516  14.116   3.722   6.312
56873SOL    HW272517  14.260   3.753   6.277
56874SOL     OW72518   3.234   7.703   9.628
56874SOL    HW172519   3.219   7.609   9.631
56874SOL    HW272520   3.247   7.722   9.535
56875SOL     OW72521   4.361   9.873  12.293
56875SOL    HW172522   4.441   9.872  12.345
56875SOL    HW272523   4.294   9.836  12.351
56876SOL     OW72524   0.472   8.664   7.418
56876SOL    HW172525   0.513   8.682   7.502
56876SOL    HW272526   0.507   8.579   7.392
56877SOL     OW72527   0.656   0.984   5.061
56877SOL    HW172528   0.610   0.902   5.076
56877SOL    HW272529   0.587   1.046   5.037
56878SOL     OW72530   9.048   2.732  14.388
56878SOL    HW172531   8.969   2.786  14.381
56878SOL    HW272532   9.047   2.699  14.477
56879SOL     OW72533  11.280   2.278   3.337
56879SOL    HW172534  11.331   2.248   3.262
56879SOL    HW272535  11.290   2.373   3.337
56880SOL     OW72536  10.544   4.580  13.476
56880SOL    HW172537  10.541   4.533  13.560
56880SOL    HW272538  10.564   4.512  13.412
56881SOL     OW72539   2.973  11.804   3.574
56881SOL    HW172540   2.978  11.739   3.504
56881SOL    HW272541   2.897  11.778   3.625
56882SOL     OW72542   7.276  10.154   6.312
56882SOL    HW172543   7.366  10.186   6.305
56882SOL    HW272544   7.274  10.107   6.395
56883SOL     OW72545   6.946   8.823   9.317
56883SOL    HW172546   6.928   8.827   9.411
56883SOL    HW272547   6.883   8.761   9.282
56884SOL     OW72548  10.193  12.267  13.433
56884SOL    HW172549  10.241  12.196  13.474
56884SOL    HW272550  10.246  12.345  13.451
56885SOL     OW72551  10.277  10.908   3.366
56885SOL    HW172552  10.317  10.825   3.389
56885SOL    HW272553  10.255  10.949   3.450
56886SOL     OW72554  11.707  11.748   5.096
56886SOL    HW172555  11.737  11.830   5.135
56886SOL    HW272556  11.623  11.769   5.057
56887SOL     OW72557   2.368   7.745   3.854
56887SOL    HW172558   2.449   7.793   3.841
56887SOL    HW272559   2.306   7.784   3.793
56888SOL     OW72560   4.732   6.909   3.851
56888SOL    HW172561   4.779   6.879   3.929
56888SOL    HW272562   4.662   6.964   3.885
56889SOL     OW72563   5.278   7.732   1.148
56889SOL    HW172564   5.327   7.654   1.122
56889SOL    HW272565   5.345   7.796   1.169
56890SOL     OW72566  10.395  14.863  13.832
56890SOL    HW172567  10.426   0.057  13.881
56890SOL    HW272568  10.462  14.848  13.766
56891SOL     OW72569  12.359   9.107   5.017
56891SOL    HW172570  12.379   9.022   4.979
56891SOL    HW272571  12.347   9.088   5.111
56892SOL     OW72572  14.337   9.578   9.071
56892SOL    HW172573  14.271   9.645   9.088
56892SOL    HW272574  14.290   9.510   9.023
56893SOL     OW72575  14.187   8.190   4.895
56893SOL    HW172576  14.255   8.257   4.886
56893SOL    HW272577  14.122   8.213   4.829
56894SOL     OW72578   7.355   4.663  14.556
56894SOL    HW172579   7.383   4.592  14.615
56894SOL    HW272580   7.425   4.670  14.492
56895SOL     OW72581   4.742   0.685   4.761
56895SOL    HW172582   4.727   0.594   4.786
56895SOL    HW272583   4.685   0.699   4.685
56896SOL     OW72584  11.259   9.520   4.466
56896SOL    HW172585  11.171   9.516   4.427
56896SOL    HW272586  11.264   9.441   4.520
56897SOL     OW72587   5.282   2.858   1.295
56897SOL    HW172588   5.325   2.795   1.237
56897SOL    HW272589   5.287   2.819   1.382
56898SOL     OW72590   7.090   4.820   6.277
56898SOL    HW172591   7.165   4.762   6.265
56898SOL    HW272592   7.038   4.809   6.197
56899SOL     OW72593   5.984  13.599   3.125
56899SOL    HW172594   5.939  13.682   3.109
56899SOL    HW272595   5.914  13.538   3.149
56900SOL     OW72596   8.948  13.721  14.629
56900SOL    HW172597   8.995  13.710  14.546
56900SOL    HW272598   8.992  13.794  14.673
56901SOL     OW72599   7.515  10.962   8.523
56901SOL    HW172600   7.421  10.978   8.522
56901SOL    HW272601   7.529  10.905   8.599
56902SOL     OW72602   6.204   5.272   7.092
56902SOL    HW172603   6.199   5.340   7.024
56902SOL    HW272604   6.200   5.190   7.043
56903SOL     OW72605   3.415  11.517  13.713
56903SOL    HW172606   3.328  11.549  13.737
56903SOL    HW272607   3.475  11.584  13.747
56904SOL     OW72608   0.756   6.960   9.425
56904SOL    HW172609   0.814   6.934   9.497
56904SOL    HW272610   0.768   7.054   9.418
56905SOL     OW72611   1.374   7.600   3.380
56905SOL    HW172612   1.323   7.680   3.382
56905SOL    HW272613   1.313   7.533   3.350
56906SOL     OW72614   1.794   5.026   2.785
56906SOL    HW172615   1.767   4.958   2.724
56906SOL    HW272616   1.712   5.063   2.818
56907SOL     OW72617   5.729   9.454   8.832
56907SOL    HW172618   5.787   9.400   8.778
56907SOL    HW272619   5.645   9.451   8.788
56908SOL     OW72620   7.973   1.850   5.288
56908SOL    HW172621   7.896   1.881   5.239
56908SOL    HW272622   7.976   1.907   5.365
56909SOL     OW72623  10.243   5.210   4.360
56909SOL    HW172624  10.188   5.285   4.340
56909SOL    HW272625  10.306   5.243   4.425
56910SOL     OW72626   4.826   0.362   5.631
56910SOL    HW172627   4.766   0.425   5.670
56910SOL    HW272628   4.805   0.278   5.673
56911SOL     OW72629   8.091   6.203   1.402
56911SOL    HW172630   8.144   6.220   1.480
56911SOL    HW272631   8.005   6.238   1.424
56912SOL     OW72632  13.557  13.388   3.386
56912SOL    HW172633  13.530  13.360   3.473
56912SOL    HW272634  13.478  13.422   3.345
56913SOL     OW72635   0.435   7.893   3.233
56913SOL    HW172636   0.375   7.896   3.159
56913SOL    HW272637   0.522   7.891   3.193
56914SOL     OW72638   0.523   6.828   9.047
56914SOL    HW172639   0.476   6.746   9.032
56914SOL    HW272640   0.600   6.822   8.990
56915SOL     OW72641   3.567   8.343   1.153
56915SOL    HW172642   3.534   8.379   1.236
56915SOL    HW272643   3.497   8.287   1.122
56916SOL     OW72644   0.889   6.683  13.401
56916SOL    HW172645   0.890   6.641  13.488
56916SOL    HW272646   0.966   6.647  13.357
56917SOL     OW72647   9.880  13.202   8.793
56917SOL    HW172648   9.902  13.190   8.701
56917SOL    HW272649   9.789  13.172   8.800
56918SOL     OW72650  10.740  13.086   2.129
56918SOL    HW172651  10.662  13.124   2.169
56918SOL    HW272652  10.784  13.160   2.086
56919SOL     OW72653   7.250   9.661   9.692
56919SOL    HW172654   7.330   9.711   9.704
56919SOL    HW272655   7.233   9.620   9.776
56920SOL     OW72656   4.839   6.512   9.698
56920SOL    HW172657   4.769   6.526   9.635
56920SOL    HW272658   4.805   6.445   9.758
56921SOL     OW72659   7.680   8.460   8.571
56921SOL    HW172660   7.603   8.405   8.586
56921SOL    HW272661   7.694   8.457   8.476
56922SOL     OW72662   9.193   8.477  14.579
56922SOL    HW172663   9.185   8.558  14.629
56922SOL    HW272664   9.127   8.418  14.616
56923SOL     OW72665   7.705   9.870   1.870
56923SOL    HW172666   7.798   9.886   1.888
56923SOL    HW272667   7.658   9.924   1.933
56924SOL     OW72668  10.585   8.909   3.150
56924SOL    HW172669  10.528   8.985   3.145
56924SOL    HW272670  10.585   8.873   3.062
56925SOL     OW72671  14.408   8.515   8.073
56925SOL    HW172672  14.475   8.525   8.005
56925SOL    HW272673  14.432   8.434   8.119
56926SOL     OW72674   4.823  10.133  14.001
56926SOL    HW172675   4.741  10.139  13.952
56926SOL    HW272676   4.865  10.218  13.989
56927SOL     OW72677   9.277   8.129   2.111
56927SOL    HW172678   9.265   8.130   2.206
56927SOL    HW272679   9.237   8.210   2.080
56928SOL     OW72680  10.449  13.859   7.882
56928SOL    HW172681  10.395  13.885   7.807
56928SOL    HW272682  10.488  13.941   7.913
56929SOL     OW72683   6.001   6.392  11.571
56929SOL    HW172684   6.042   6.426  11.492
56929SOL    HW272685   5.980   6.470  11.623
56930SOL     OW72686   9.980   5.008   2.612
56930SOL    HW172687   9.900   5.054   2.586
56930SOL    HW272688   9.982   5.018   2.707
56931SOL     OW72689   6.902   8.375   2.445
56931SOL    HW172690   6.875   8.399   2.533
56931SOL    HW272691   6.932   8.284   2.453
56932SOL     OW72692  10.628   0.100   9.418
56932SOL    HW172693  10.630   0.093   9.322
56932SOL    HW272694  10.666   0.017   9.449
56933SOL     OW72695   3.790  12.984  13.104
56933SOL    HW172696   3.760  12.896  13.080
56933SOL    HW272697   3.822  13.021  13.022
56934SOL     OW72698   2.095  12.831   2.232
56934SOL    HW172699   2.141  12.784   2.163
56934SOL    HW272700   2.002  12.814   2.216
56935SOL     OW72701   2.895  10.886   2.642
56935SOL    HW172702   2.974  10.851   2.682
56935SOL    HW272703   2.917  10.894   2.549
56936SOL     OW72704   4.288   8.999  13.570
56936SOL    HW172705   4.323   9.036  13.651
56936SOL    HW272706   4.324   9.055  13.501
56937SOL     OW72707   0.587   6.822   1.188
56937SOL    HW172708   0.649   6.756   1.218
56937SOL    HW272709   0.540   6.849   1.267
56938SOL     OW72710  13.710   3.435  13.307
56938SOL    HW172711  13.784   3.405  13.254
56938SOL    HW272712  13.673   3.507  13.256
56939SOL     OW72713  13.897  11.573   5.891
56939SOL    HW172714  13.837  11.500   5.876
56939SOL    HW272715  13.855  11.648   5.848
56940SOL     OW72716   3.140   4.789   4.514
56940SOL    HW172717   3.192   4.772   4.593
56940SOL    HW272718   3.205   4.791   4.443
56941SOL     OW72719   3.639   4.150   3.873
56941SOL    HW172720   3.709   4.118   3.929
56941SOL    HW272721   3.590   4.071   3.848
56942SOL     OW72722   4.463   4.911  14.309
56942SOL    HW172723   4.406   4.835  14.294
56942SOL    HW272724   4.517   4.887  14.384
56943SOL     OW72725   1.648  14.221   4.503
56943SOL    HW172726   1.643  14.204   4.409
56943SOL    HW272727   1.710  14.157   4.537
56944SOL     OW72728   9.862  13.798   9.369
56944SOL    HW172729   9.777  13.754   9.362
56944SOL    HW272730   9.847  13.869   9.432
56945SOL     OW72731   9.517  14.148   3.844
56945SOL    HW172732   9.491  14.070   3.893
56945SOL    HW272733   9.558  14.113   3.765
56946SOL     OW72734   4.857   3.269   8.326
56946SOL    HW172735   4.878   3.229   8.242
56946SOL    HW272736   4.868   3.363   8.312
56947SOL     OW72737  12.920  10.065   0.452
56947SOL    HW172738  12.937  10.003   0.522
56947SOL    HW272739  12.930  10.151   0.493
56948SOL     OW72740  11.406   7.691   4.731
56948SOL    HW172741  11.471   7.633   4.692
56948SOL    HW272742  11.440   7.711   4.818
56949SOL     OW72743   1.402   7.772   8.398
56949SOL    HW172744   1.428   7.854   8.439
56949SOL    HW272745   1.338   7.734   8.459
56950SOL     OW72746   6.236   4.739  12.881
56950SOL    HW172747   6.216   4.652  12.846
56950SOL    HW272748   6.219   4.731  12.975
56951SOL     OW72749   7.819  11.997  14.712
56951SOL    HW172750   7.870  12.079  14.711
56951SOL    HW272751   7.869  11.937  14.656
56952SOL     OW72752   8.308   7.321   0.410
56952SOL    HW172753   8.354   7.240   0.388
56952SOL    HW272754   8.242   7.294   0.474
56953SOL     OW72755  14.707   7.246   7.330
56953SOL    HW172756  14.622   7.290   7.334
56953SOL    HW272757  14.698   7.171   7.389
56954SOL     OW72758   7.237   3.211  14.353
56954SOL    HW172759   7.203   3.293  14.317
56954SOL    HW272760   7.243   3.226  14.447
56955SOL     OW72761   7.501  12.973  12.334
56955SOL    HW172762   7.516  13.037  12.403
56955SOL    HW272763   7.554  13.003  12.261
56956SOL     OW72764   8.793   2.480   5.982
56956SOL    HW172765   8.746   2.532   6.046
56956SOL    HW272766   8.857   2.431   6.034
56957SOL     OW72767   3.116   2.147  13.960
56957SOL    HW172768   3.184   2.189  14.013
56957SOL    HW272769   3.034   2.173  14.001
56958SOL     OW72770   7.243   0.242   6.985
56958SOL    HW172771   7.225   0.194   6.904
56958SOL    HW272772   7.193   0.323   6.976
56959SOL     OW72773   5.455  10.907  12.981
56959SOL    HW172774   5.437  10.976  13.045
56959SOL    HW272775   5.370  10.891  12.939
56960SOL     OW72776   4.443   6.609   4.346
56960SOL    HW172777   4.443   6.595   4.441
56960SOL    HW272778   4.360   6.653   4.328
56961SOL     OW72779   1.409   5.487  11.007
56961SOL    HW172780   1.381   5.539  11.082
56961SOL    HW272781   1.454   5.412  11.046
56962SOL     OW72782   8.794  10.645   9.581
56962SOL    HW172783   8.742  10.721   9.606
56962SOL    HW272784   8.861  10.639   9.649
56963SOL     OW72785   5.276  12.387   3.662
56963SOL    HW172786   5.322  12.351   3.738
56963SOL    HW272787   5.340  12.385   3.591
56964SOL     OW72788  11.584   5.725   7.802
56964SOL    HW172789  11.539   5.775   7.870
56964SOL    HW272790  11.523   5.655   7.779
56965SOL     OW72791   3.538   4.959   4.245
56965SOL    HW172792   3.529   5.043   4.290
56965SOL    HW272793   3.522   4.894   4.312
56966SOL     OW72794   4.443   0.779  10.788
56966SOL    HW172795   4.507   0.748  10.853
56966SOL    HW272796   4.383   0.835  10.838
56967SOL     OW72797  12.246   9.981   7.419
56967SOL    HW172798  12.172   9.927   7.392
56967SOL    HW272799  12.316   9.919   7.438
56968SOL     OW72800   6.408   2.772   7.623
56968SOL    HW172801   6.451   2.740   7.702
56968SOL    HW272802   6.316   2.748   7.634
56969SOL     OW72803   2.637  14.353  11.077
56969SOL    HW172804   2.685  14.361  10.994
56969SOL    HW272805   2.556  14.308  11.053
56970SOL     OW72806  13.015  14.733  13.279
56970SOL    HW172807  13.088  14.674  13.260
56970SOL    HW272808  13.048  14.820  13.260
56971SOL     OW72809   5.541   9.755  12.392
56971SOL    HW172810   5.465   9.807  12.367
56971SOL    HW272811   5.516   9.665  12.372
56972SOL     OW72812  12.234  12.525   8.596
56972SOL    HW172813  12.243  12.433   8.622
56972SOL    HW272814  12.324  12.555   8.581
56973SOL     OW72815   3.057   1.826   2.234
56973SOL    HW172816   3.117   1.789   2.299
56973SOL    HW272817   3.088   1.915   2.221
56974SOL     OW72818   2.249   9.555   0.255
56974SOL    HW172819   2.253   9.462   0.232
56974SOL    HW272820   2.313   9.565   0.326
56975SOL     OW72821  10.402   3.154  11.932
56975SOL    HW172822  10.402   3.121  11.842
56975SOL    HW272823  10.340   3.098  11.978
56976SOL     OW72824   9.063   2.177   1.542
56976SOL    HW172825   9.049   2.084   1.555
56976SOL    HW272826   8.988   2.219   1.585
56977SOL     OW72827  11.807   2.022   6.118
56977SOL    HW172828  11.730   2.067   6.154
56977SOL    HW272829  11.795   2.024   6.024
56978SOL     OW72830   8.195  11.321   5.035
56978SOL    HW172831   8.251  11.366   4.972
56978SOL    HW272832   8.160  11.390   5.091
56979SOL     OW72833  10.528  12.628   9.978
56979SOL    HW172834  10.447  12.612   9.930
56979SOL    HW272835  10.508  12.702  10.036
56980SOL     OW72836  12.921  13.804   7.379
56980SOL    HW172837  12.922  13.806   7.474
56980SOL    HW272838  12.873  13.884   7.354
56981SOL     OW72839   3.252   3.850  14.817
56981SOL    HW172840   3.207   3.933  14.834
56981SOL    HW272841   3.243   3.837  14.722
56982SOL     OW72842  12.592  10.755   6.629
56982SOL    HW172843  12.622  10.804   6.553
56982SOL    HW272844  12.575  10.667   6.596
56983SOL     OW72845   7.529   0.157   1.471
56983SOL    HW172846   7.469   0.209   1.524
56983SOL    HW272847   7.512   0.066   1.497
56984SOL     OW72848  13.663   9.007  13.566
56984SOL    HW172849  13.718   9.037  13.493
56984SOL    HW272850  13.602   9.080  13.581
56985SOL     OW72851  14.507  12.866   1.636
56985SOL    HW172852  14.491  12.956   1.665
56985SOL    HW272853  14.421  12.823   1.640
56986SOL     OW72854   1.488   8.536   4.264
56986SOL    HW172855   1.552   8.537   4.336
56986SOL    HW272856   1.438   8.617   4.276
56987SOL     OW72857  10.129   2.930   0.751
56987SOL    HW172858  10.059   2.951   0.688
56987SOL    HW272859  10.191   2.876   0.701
56988SOL     OW72860   9.655  12.633   6.153
56988SOL    HW172861   9.710  12.709   6.173
56988SOL    HW272862   9.695  12.595   6.074
56989SOL     OW72863   0.147   9.933  12.110
56989SOL    HW172864   0.093   9.956  12.034
56989SOL    HW272865   0.235   9.963  12.087
56990SOL     OW72866   0.327   1.843   4.104
56990SOL    HW172867   0.394   1.786   4.143
56990SOL    HW272868   0.368   1.930   4.103
56991SOL     OW72869  11.763  14.826  11.695
56991SOL    HW172870  11.724  14.742  11.720
56991SOL    HW272871  11.778  14.818  11.601
56992SOL     OW72872   7.264  14.260  12.178
56992SOL    HW172873   7.256  14.224  12.266
56992SOL    HW272874   7.174  14.285  12.154
56993SOL     OW72875   2.766  10.799   4.999
56993SOL    HW172876   2.706  10.826   4.929
56993SOL    HW272877   2.843  10.765   4.953
56994SOL     OW72878  12.358   8.338   3.816
56994SOL    HW172879  12.283   8.397   3.823
56994SOL    HW272880  12.427   8.392   3.777
56995SOL     OW72881   0.598   4.567   6.861
56995SOL    HW172882   0.545   4.632   6.816
56995SOL    HW272883   0.622   4.608   6.944
56996SOL     OW72884  14.297   1.094   9.225
56996SOL    HW172885  14.345   1.053   9.153
56996SOL    HW272886  14.208   1.104   9.192
56997SOL     OW72887  12.514   9.293  10.338
56997SOL    HW172888  12.528   9.211  10.386
56997SOL    HW272889  12.427   9.282  10.297
56998SOL     OW72890   3.554  13.387   3.888
56998SOL    HW172891   3.544  13.438   3.968
56998SOL    HW272892   3.467  13.353   3.869
56999SOL     OW72893   0.990   2.897   5.350
56999SOL    HW172894   1.052   2.968   5.367
56999SOL    HW272895   0.947   2.883   5.434
57000SOL     OW72896   2.174   3.476   9.367
57000SOL    HW172897   2.112   3.450   9.435
57000SOL    HW272898   2.119   3.508   9.296
57001SOL     OW72899  13.985  12.059   0.316
57001SOL    HW172900  14.018  12.144   0.287
57001SOL    HW272901  14.062  12.004   0.321
57002SOL     OW72902  11.364   6.808  10.978
57002SOL    HW172903  11.356   6.875  10.910
57002SOL    HW272904  11.299   6.742  10.955
57003SOL     OW72905  10.223   9.915  12.076
57003SOL    HW172906  10.230   9.826  12.042
57003SOL    HW272907  10.147   9.952  12.030
57004SOL     OW72908   9.231   6.104  11.736
57004SOL    HW172909   9.251   6.124  11.827
57004SOL    HW272910   9.263   6.015  11.723
57005SOL     OW72911   7.564  10.558   7.931
57005SOL    HW172912   7.489  10.504   7.954
57005SOL    HW272913   7.556  10.571   7.837
57006SOL     OW72914   7.361  10.007  11.230
57006SOL    HW172915   7.364  10.050  11.145
57006SOL    HW272916   7.448  10.020  11.267
57007SOL     OW72917   2.747   5.843  10.985
57007SOL    HW172918   2.757   5.876  11.074
57007SOL    HW272919   2.777   5.752  10.990
57008SOL     OW72920   4.750   2.248   2.289
57008SOL    HW172921   4.744   2.244   2.194
57008SOL    HW272922   4.843   2.258   2.307
57009SOL     OW72923  12.288   3.589  11.246
57009SOL    HW172924  12.316   3.664  11.194
57009SOL    HW272925  12.215   3.551  11.198
57010SOL     OW72926   5.592  11.992  13.891
57010SOL    HW172927   5.573  12.073  13.938
57010SOL    HW272928   5.617  12.021  13.803
57011SOL     OW72929   7.882  11.377  12.944
57011SOL    HW172930   7.877  11.303  13.006
57011SOL    HW272931   7.813  11.359  12.880
57012SOL     OW72932   7.331  12.223  14.602
57012SOL    HW172933   7.390  12.189  14.669
57012SOL    HW272934   7.301  12.145  14.555
57013SOL     OW72935  14.006   4.216  10.351
57013SOL    HW172936  14.037   4.233  10.262
57013SOL    HW272937  13.911   4.228  10.346
57014SOL     OW72938  14.017   7.491   7.157
57014SOL    HW172939  13.973   7.423   7.207
57014SOL    HW272940  14.016   7.567   7.214
57015SOL     OW72941   4.005  14.342   7.135
57015SOL    HW172942   3.936  14.362   7.072
57015SOL    HW272943   3.992  14.250   7.157
57016SOL     OW72944   7.183   9.340  13.979
57016SOL    HW172945   7.271   9.304  13.991
57016SOL    HW272946   7.198   9.431  13.952
57017SOL     OW72947   5.580   3.677   0.566
57017SOL    HW172948   5.493   3.672   0.605
57017SOL    HW272949   5.565   3.707   0.476
57018SOL     OW72950   4.848   4.941   6.438
57018SOL    HW172951   4.932   4.986   6.425
57018SOL    HW272952   4.800   4.999   6.497
57019SOL     OW72953   9.566   8.585  14.830
57019SOL    HW172954   9.525   8.498  14.837
57019SOL    HW272955   9.577   8.613   0.038
57020SOL     OW72956   2.540  14.567   2.531
57020SOL    HW172957   2.579  14.499   2.476
57020SOL    HW272958   2.446  14.555   2.522
57021SOL     OW72959   5.356  12.458  11.824
57021SOL    HW172960   5.306  12.467  11.905
57021SOL    HW272961   5.375  12.364  11.819
57022SOL     OW72962  14.481  10.516  11.441
57022SOL    HW172963  14.469  10.596  11.389
57022SOL    HW272964  14.566  10.527  11.483
57023SOL     OW72965   3.760  11.702  13.528
57023SOL    HW172966   3.826  11.753  13.575
57023SOL    HW272967   3.731  11.637  13.591
57024SOL     OW72968  11.626  14.549   9.074
57024SOL    HW172969  11.611  14.606   9.149
57024SOL    HW272970  11.604  14.461   9.106
57025SOL     OW72971   0.340   0.319   6.147
57025SOL    HW172972   0.364   0.398   6.197
57025SOL    HW272973   0.354   0.344   6.056
57026SOL     OW72974  10.973   7.469  13.684
57026SOL    HW172975  11.028   7.427  13.617
57026SOL    HW272976  10.884   7.438  13.664
57027SOL     OW72977  13.384   1.489   3.116
57027SOL    HW172978  13.349   1.573   3.087
57027SOL    HW272979  13.434   1.457   3.041
57028SOL     OW72980  13.302  14.726   9.470
57028SOL    HW172981  13.311  14.642   9.424
57028SOL    HW272982  13.224  14.766   9.432
57029SOL     OW72983   2.809   0.537   6.111
57029SOL    HW172984   2.794   0.443   6.120
57029SOL    HW272985   2.865   0.559   6.185
57030SOL     OW72986  13.578   1.186   7.287
57030SOL    HW172987  13.552   1.166   7.377
57030SOL    HW272988  13.502   1.163   7.234
57031SOL     OW72989   4.582  10.948   7.605
57031SOL    HW172990   4.642  10.890   7.653
57031SOL    HW272991   4.615  11.036   7.623
57032SOL     OW72992  10.764   5.888   5.623
57032SOL    HW172993  10.719   5.897   5.707
57032SOL    HW272994  10.726   5.955   5.567
57033SOL     OW72995   6.679  12.520  11.576
57033SOL    HW172996   6.730  12.547  11.499
57033SOL    HW272997   6.648  12.603  11.613
57034SOL     OW72998   3.790  10.459   8.543
57034SOL    HW172999   3.742  10.376   8.539
57034SOL    HW273000   3.751  10.506   8.616
57035SOL     OW73001   3.840   7.734  12.710
57035SOL    HW173002   3.929   7.722  12.678
57035SOL    HW273003   3.842   7.820  12.754
57036SOL     OW73004   4.140  12.430   9.622
57036SOL    HW173005   4.072  12.367   9.647
57036SOL    HW273006   4.221  12.379   9.623
57037SOL     OW73007  10.120   4.369   1.983
57037SOL    HW173008  10.035   4.381   2.024
57037SOL    HW273009  10.134   4.450   1.933
57038SOL     OW73010   8.812   8.127  13.835
57038SOL    HW173011   8.731   8.106  13.881
57038SOL    HW273012   8.785   8.139  13.744
57039SOL     OW73013   9.055   7.676   8.017
57039SOL    HW173014   9.135   7.729   8.009
57039SOL    HW273015   8.984   7.740   8.007
57040SOL     OW73016   7.647   7.034  11.308
57040SOL    HW173017   7.705   7.100  11.269
57040SOL    HW273018   7.582   7.016  11.239
57041SOL     OW73019  13.515   7.539   8.878
57041SOL    HW173020  13.556   7.556   8.962
57041SOL    HW273021  13.562   7.463   8.843
57042SOL     OW73022   7.122   8.827   0.915
57042SOL    HW173023   7.096   8.911   0.876
57042SOL    HW273024   7.048   8.803   0.971
57043SOL     OW73025   9.511   2.482  11.666
57043SOL    HW173026   9.482   2.567  11.635
57043SOL    HW273027   9.604   2.479  11.643
57044SOL     OW73028   7.004  14.609  11.966
57044SOL    HW173029   6.910  14.603  11.985
57044SOL    HW273030   7.046  14.606  12.053
57045SOL     OW73031   5.842   8.656  12.192
57045SOL    HW173032   5.839   8.562  12.171
57045SOL    HW273033   5.755   8.688  12.169
57046SOL     OW73034  12.080   1.597   2.589
57046SOL    HW173035  11.994   1.639   2.593
57046SOL    HW273036  12.064   1.508   2.623
57047SOL     OW73037  11.792  13.337   8.771
57047SOL    HW173038  11.839  13.314   8.691
57047SOL    HW273039  11.740  13.414   8.747
57048SOL     OW73040   3.473   9.717  11.327
57048SOL    HW173041   3.396   9.675  11.365
57048SOL    HW273042   3.543   9.653  11.338
57049SOL     OW73043   2.902  13.349   1.126
57049SOL    HW173044   2.812  13.325   1.105
57049SOL    HW273045   2.917  13.314   1.214
57050SOL     OW73046  11.621  10.085   4.347
57050SOL    HW173047  11.652  10.048   4.265
57050SOL    HW273048  11.697  10.134   4.381
57051SOL     OW73049  10.655   5.609  11.108
57051SOL    HW173050  10.646   5.601  11.013
57051SOL    HW273051  10.683   5.699  11.123
57052SOL     OW73052  14.238  14.865   0.434
57052SOL    HW173053  14.189   0.048   0.484
57052SOL    HW273054  14.258  14.796   0.497
57053SOL     OW73055   7.881  11.454   0.138
57053SOL    HW173056   7.796  11.418   0.163
57053SOL    HW273057   7.874  11.468   0.044
57054SOL     OW73058   6.294  10.335   4.097
57054SOL    HW173059   6.349  10.263   4.128
57054SOL    HW273060   6.255  10.302   4.015
57055SOL     OW73061  10.983  12.842   4.695
57055SOL    HW173062  10.916  12.835   4.627
57055SOL    HW273063  11.056  12.886   4.652
57056SOL     OW73064   1.192  10.638  13.313
57056SOL    HW173065   1.101  10.667  13.328
57056SOL    HW273066   1.184  10.568  13.248
57057SOL     OW73067  11.834   1.013   3.837
57057SOL    HW173068  11.788   0.936   3.871
57057SOL    HW273069  11.780   1.087   3.865
57058SOL     OW73070  14.235   9.960   7.188
57058SOL    HW173071  14.155   9.991   7.230
57058SOL    HW273072  14.269   9.892   7.247
57059SOL     OW73073  12.159   5.893   0.395
57059SOL    HW173074  12.099   5.966   0.414
57059SOL    HW273075  12.207   5.881   0.476
57060SOL     OW73076   8.047  10.611   6.267
57060SOL    HW173077   8.047  10.537   6.328
57060SOL    HW273078   7.968  10.660   6.290
57061SOL     OW73079   6.447  11.495   1.067
57061SOL    HW173080   6.530  11.469   1.106
57061SOL    HW273081   6.387  11.423   1.087
57062SOL     OW73082   2.412  14.523   5.787
57062SOL    HW173083   2.409  14.619   5.783
57062SOL    HW273084   2.472  14.498   5.718
57063SOL     OW73085   9.361   4.355   6.940
57063SOL    HW173086   9.406   4.335   6.858
57063SOL    HW273087   9.415   4.423   6.981
57064SOL     OW73088  12.060  11.849   9.592
57064SOL    HW173089  11.991  11.899   9.636
57064SOL    HW273090  12.137  11.906   9.597
57065SOL     OW73091  12.396   0.384  13.493
57065SOL    HW173092  12.376   0.383  13.399
57065SOL    HW273093  12.420   0.294  13.514
57066SOL     OW73094   4.078  11.158  14.661
57066SOL    HW173095   4.062  11.251  14.675
57066SOL    HW273096   4.005  11.129  14.607
57067SOL     OW73097   0.272  12.302  11.975
57067SOL    HW173098   0.333  12.279  12.045
57067SOL    HW273099   0.246  12.218  11.937
57068SOL     OW73100   1.898  12.218   3.780
57068SOL    HW173101   1.942  12.187   3.701
57068SOL    HW273102   1.964  12.210   3.848
57069SOL     OW73103   8.219  11.001   8.015
57069SOL    HW173104   8.147  11.003   8.078
57069SOL    HW273105   8.283  10.940   8.053
57070SOL     OW73106   4.669   7.411   1.433
57070SOL    HW173107   4.607   7.437   1.501
57070SOL    HW273108   4.731   7.484   1.428
57071SOL     OW73109   1.731   3.847  14.498
57071SOL    HW173110   1.656   3.793  14.476
57071SOL    HW273111   1.762   3.881  14.414
57072SOL     OW73112   3.928   5.601  11.378
57072SOL    HW173113   3.886   5.558  11.453
57072SOL    HW273114   3.986   5.534  11.341
57073SOL     OW73115   7.050   0.151  14.001
57073SOL    HW173116   6.989   0.103  13.944
57073SOL    HW273117   7.019   0.242  13.997
57074SOL     OW73118  12.061   8.823   5.081
57074SOL    HW173119  12.025   8.865   5.002
57074SOL    HW273120  12.028   8.876   5.153
57075SOL     OW73121   3.807  11.029   0.384
57075SOL    HW173122   3.723  11.044   0.428
57075SOL    HW273123   3.840  11.116   0.364
57076SOL     OW73124  10.347  10.790   0.129
57076SOL    HW173125  10.373  10.700   0.148
57076SOL    HW273126  10.382  10.841   0.202
57077SOL     OW73127   4.022  11.043   6.325
57077SOL    HW173128   4.015  10.948   6.338
57077SOL    HW273129   4.083  11.072   6.393
57078SOL     OW73130   9.173  14.549   3.786
57078SOL    HW173131   9.168  14.466   3.835
57078SOL    HW273132   9.265  14.557   3.762
57079SOL     OW73133   2.338  14.323   5.941
57079SOL    HW173134   2.355  14.406   5.898
57079SOL    HW273135   2.376  14.333   6.029
57080SOL     OW73136  10.776   4.696   5.272
57080SOL    HW173137  10.704   4.706   5.210
57080SOL    HW273138  10.767   4.772   5.331
57081SOL     OW73139   3.528  12.596   7.351
57081SOL    HW173140   3.554  12.597   7.259
57081SOL    HW273141   3.596  12.646   7.396
57082SOL     OW73142   9.707   3.487   7.532
57082SOL    HW173143   9.736   3.562   7.479
57082SOL    HW273144   9.642   3.524   7.591
57083SOL     OW73145   2.609  14.397  14.211
57083SOL    HW173146   2.519  14.380  14.184
57083SOL    HW273147   2.660  14.396  14.130
57084SOL     OW73148  12.422  11.199   0.481
57084SOL    HW173149  12.406  11.248   0.400
57084SOL    HW273150  12.517  11.205   0.494
57085SOL     OW73151   3.558   7.839  13.619
57085SOL    HW173152   3.526   7.817  13.706
57085SOL    HW273153   3.637   7.890  13.635
57086SOL     OW73154   1.673  11.867  13.955
57086SOL    HW173155   1.768  11.857  13.964
57086SOL    HW273156   1.638  11.806  14.020
57087SOL     OW73157  10.849   9.276  11.690
57087SOL    HW173158  10.844   9.264  11.595
57087SOL    HW273159  10.763   9.249  11.722
57088SOL     OW73160   9.487   1.048   9.561
57088SOL    HW173161   9.575   1.084   9.565
57088SOL    HW273162   9.444   1.097   9.491
57089SOL     OW73163   2.797   0.704   3.601
57089SOL    HW173164   2.770   0.686   3.511
57089SOL    HW273165   2.765   0.792   3.619
57090SOL     OW73166   5.009   0.993   0.033
57090SOL    HW173167   4.920   1.029   0.034
57090SOL    HW273168   5.055   1.040   0.103
57091SOL     OW73169   6.281  10.463  13.087
57091SOL    HW173170   6.262  10.507  13.170
57091SOL    HW273171   6.363  10.417  13.101
57092SOL     OW73172   7.654   5.726  11.783
57092SOL    HW173173   7.671   5.809  11.740
57092SOL    HW273174   7.641   5.664  11.712
57093SOL     OW73175   5.326  13.709   9.301
57093SOL    HW173176   5.375  13.729   9.380
57093SOL    HW273177   5.248  13.663   9.331
57094SOL     OW73178   5.785   9.711   1.330
57094SOL    HW173179   5.784   9.778   1.398
57094SOL    HW273180   5.693   9.697   1.308
57095SOL     OW73181   0.049   4.251   7.451
57095SOL    HW173182   0.014   4.320   7.396
57095SOL    HW273183   0.129   4.223   7.407
57096SOL     OW73184   6.346   8.296   9.620
57096SOL    HW173185   6.404   8.275   9.693
57096SOL    HW273186   6.382   8.247   9.546
57097SOL     OW73187   5.385   8.696   0.527
57097SOL    HW173188   5.404   8.776   0.577
57097SOL    HW273189   5.384   8.627   0.593
57098SOL     OW73190   6.214   4.769   5.265
57098SOL    HW173191   6.259   4.813   5.338
57098SOL    HW273192   6.233   4.676   5.279
57099SOL     OW73193   6.857   7.662   3.339
57099SOL    HW173194   6.784   7.608   3.307
57099SOL    HW273195   6.829   7.752   3.322
57100SOL     OW73196   1.740   6.204   9.786
57100SOL    HW173197   1.705   6.222   9.873
57100SOL    HW273198   1.697   6.123   9.759
57101SOL     OW73199  13.125   6.299  12.691
57101SOL    HW173200  13.043   6.329  12.731
57101SOL    HW273201  13.165   6.380  12.657
57102SOL     OW73202   9.713   9.800   0.275
57102SOL    HW173203   9.731   9.894   0.278
57102SOL    HW273204   9.636   9.788   0.330
57103SOL     OW73205   8.441   8.433   2.201
57103SOL    HW173206   8.409   8.345   2.181
57103SOL    HW273207   8.378   8.467   2.265
57104SOL     OW73208   1.738  13.799   5.741
57104SOL    HW173209   1.798  13.786   5.668
57104SOL    HW273210   1.654  13.765   5.710
57105SOL     OW73211   1.848   0.003  14.658
57105SOL    HW173212   1.892   0.001  14.573
57105SOL    HW273213   1.895   0.069  14.709
57106SOL     OW73214   8.075  12.895   0.540
57106SOL    HW173215   8.111  12.942   0.465
57106SOL    HW273216   8.077  12.803   0.514
57107SOL     OW73217   8.445   9.050   5.788
57107SOL    HW173218   8.501   8.998   5.845
57107SOL    HW273219   8.469   9.023   5.699
57108SOL     OW73220   6.780   8.503   6.254
57108SOL    HW173221   6.757   8.593   6.280
57108SOL    HW273222   6.829   8.468   6.328
57109SOL     OW73223   2.248  12.928   4.126
57109SOL    HW173224   2.191  13.000   4.155
57109SOL    HW273225   2.212  12.902   4.041
57110SOL     OW73226   6.497   5.011   4.915
57110SOL    HW173227   6.552   5.047   4.985
57110SOL    HW273228   6.556   5.004   4.840
57111SOL     OW73229   2.347  13.518  13.365
57111SOL    HW173230   2.404  13.566  13.305
57111SOL    HW273231   2.399  13.442  13.392
57112SOL     OW73232   1.336   3.009   5.638
57112SOL    HW173233   1.411   2.952   5.618
57112SOL    HW273234   1.299   2.971   5.718
57113SOL     OW73235   0.744  11.317   3.000
57113SOL    HW173236   0.786  11.234   2.979
57113SOL    HW273237   0.691  11.300   3.077
57114SOL     OW73238   5.238   2.630   7.605
57114SOL    HW173239   5.256   2.678   7.525
57114SOL    HW273240   5.313   2.572   7.617
57115SOL     OW73241   8.004   8.885   8.813
57115SOL    HW173242   8.050   8.806   8.841
57115SOL    HW273243   8.057   8.919   8.741
57116SOL     OW73244   9.160   7.347  10.988
57116SOL    HW173245   9.071   7.314  10.971
57116SOL    HW273246   9.152   7.442  10.981
57117SOL     OW73247  11.658   7.103   7.813
57117SOL    HW173248  11.598   7.128   7.883
57117SOL    HW273249  11.628   7.017   7.784
57118SOL     OW73250  10.733   1.197   0.123
57118SOL    HW173251  10.748   1.153   0.207
57118SOL    HW273252  10.663   1.260   0.142
57119SOL     OW73253   2.585  12.753  10.618
57119SOL    HW173254   2.607  12.756  10.711
57119SOL    HW273255   2.613  12.666  10.590
57120SOL     OW73256   2.983   6.442   8.180
57120SOL    HW173257   2.892   6.413   8.190
57120SOL    HW273258   3.016   6.449   8.269
57121SOL     OW73259   6.087   0.922   3.853
57121SOL    HW173260   6.164   0.866   3.864
57121SOL    HW273261   6.117   0.992   3.795
57122SOL     OW73262  11.418  14.593   7.766
57122SOL    HW173263  11.377  14.530   7.825
57122SOL    HW273264  11.344  14.635   7.722
57123SOL     OW73265   9.785  14.434   2.689
57123SOL    HW173266   9.734  14.372   2.741
57123SOL    HW273267   9.863  14.451   2.743
57124SOL     OW73268   7.365  10.674  14.190
57124SOL    HW173269   7.386  10.749  14.245
57124SOL    HW273270   7.402  10.599  14.235
57125SOL     OW73271   6.295  12.773   2.060
57125SOL    HW173272   6.201  12.787   2.046
57125SOL    HW273273   6.328  12.747   1.974
57126SOL     OW73274   1.432   8.117   1.373
57126SOL    HW173275   1.417   8.054   1.443
57126SOL    HW273276   1.379   8.193   1.396
57127SOL     OW73277   5.799  11.728  14.845
57127SOL    HW173278   5.865  11.722   0.033
57127SOL    HW273279   5.827  11.802  14.792
57128SOL     OW73280   1.915   8.959   2.897
57128SOL    HW173281   1.959   8.875   2.909
57128SOL    HW273282   1.833   8.937   2.853
57129SOL     OW73283  12.815   5.801   0.435
57129SOL    HW173284  12.767   5.882   0.416
57129SOL    HW273285  12.753   5.748   0.485
57130SOL     OW73286   8.206   3.926  14.580
57130SOL    HW173287   8.233   4.004  14.532
57130SOL    HW273288   8.126   3.897  14.535
57131SOL     OW73289   6.973  11.148   5.910
57131SOL    HW173290   6.911  11.168   5.980
57131SOL    HW273291   7.054  11.126   5.955
57132SOL     OW73292  12.518   6.815   7.093
57132SOL    HW173293  12.558   6.728   7.104
57132SOL    HW273294  12.484   6.837   7.179
57133SOL     OW73295   2.397  14.655  14.719
57133SOL    HW173296   2.452  14.592  14.766
57133SOL    HW273297   2.449  14.680  14.643
57134SOL     OW73298   5.793  13.218   5.525
57134SOL    HW173299   5.791  13.186   5.435
57134SOL    HW273300   5.858  13.162   5.568
57135SOL     OW73301   8.491  10.714  13.306
57135SOL    HW173302   8.559  10.691  13.242
57135SOL    HW273303   8.525  10.682  13.390
57136SOL     OW73304   1.130  13.830   5.303
57136SOL    HW173305   1.047  13.867   5.331
57136SOL    HW273306   1.111  13.792   5.217
57137SOL     OW73307  10.929   6.253   5.031
57137SOL    HW173308  11.009   6.203   5.046
57137SOL    HW273309  10.859   6.197   5.066
57138SOL     OW73310   1.237  10.834  12.726
57138SOL    HW173311   1.232  10.825  12.631
57138SOL    HW273312   1.327  10.810  12.748
57139SOL     OW73313   5.279  10.419   4.380
57139SOL    HW173314   5.331  10.479   4.327
57139SOL    HW273315   5.314  10.332   4.359
57140SOL     OW73316   9.636   4.227   5.125
57140SOL    HW173317   9.597   4.292   5.184
57140SOL    HW273318   9.674   4.279   5.054
57141SOL     OW73319   8.703   8.070   1.033
57141SOL    HW173320   8.760   8.004   0.993
57141SOL    HW273321   8.686   8.037   1.121
57142SOL     OW73322   8.118   0.163  10.625
57142SOL    HW173323   8.203   0.208  10.622
57142SOL    HW273324   8.054   0.233  10.638
57143SOL     OW73325   5.465   9.472   5.243
57143SOL    HW173326   5.483   9.451   5.151
57143SOL    HW273327   5.381   9.429   5.261
57144SOL     OW73328   5.988   0.892  11.442
57144SOL    HW173329   6.044   0.918  11.369
57144SOL    HW273330   5.915   0.954  11.439
57145SOL     OW73331   4.299  12.042   2.183
57145SOL    HW173332   4.227  11.989   2.150
57145SOL    HW273333   4.353  12.059   2.106
57146SOL     OW73334   8.883  11.641   3.155
57146SOL    HW173335   8.827  11.622   3.079
57146SOL    HW273336   8.961  11.682   3.117
57147SOL     OW73337   5.698   3.385  11.763
57147SOL    HW173338   5.734   3.413  11.848
57147SOL    HW273339   5.657   3.464  11.728
57148SOL     OW73340  10.298   3.598  10.268
57148SOL    HW173341  10.271   3.527  10.325
57148SOL    HW273342  10.346   3.555  10.197
57149SOL     OW73343  14.430   4.419   3.723
57149SOL    HW173344  14.430   4.471   3.803
57149SOL    HW273345  14.470   4.476   3.657
57150SOL     OW73346  14.092   5.116   9.227
57150SOL    HW173347  14.041   5.074   9.296
57150SOL    HW273348  14.134   5.191   9.270
57151SOL     OW73349  10.750   7.671   7.476
57151SOL    HW173350  10.668   7.720   7.477
57151SOL    HW273351  10.817   7.736   7.454
57152SOL     OW73352   3.251   9.246   1.785
57152SOL    HW173353   3.175   9.297   1.758
57152SOL    HW273354   3.268   9.274   1.875
57153SOL     OW73355   3.320   4.180   9.792
57153SOL    HW173356   3.278   4.266   9.793
57153SOL    HW273357   3.388   4.186   9.860
57154SOL     OW73358   7.460   5.741   8.667
57154SOL    HW173359   7.441   5.692   8.748
57154SOL    HW273360   7.472   5.673   8.601
57155SOL     OW73361  10.677   9.688  12.449
57155SOL    HW173362  10.720   9.683  12.364
57155SOL    HW273363  10.642   9.777  12.453
57156SOL     OW73364   3.030  11.927  11.691
57156SOL    HW173365   3.082  11.883  11.624
57156SOL    HW273366   2.994  12.004  11.646
57157SOL     OW73367  10.302  10.271  10.620
57157SOL    HW173368  10.386  10.246  10.658
57157SOL    HW273369  10.291  10.363  10.645
57158SOL     OW73370  11.711   8.027  12.563
57158SOL    HW173371  11.754   7.942  12.574
57158SOL    HW273372  11.690   8.031  12.470
57159SOL     OW73373   4.547  10.561  13.880
57159SOL    HW173374   4.540  10.624  13.952
57159SOL    HW273375   4.517  10.478  13.919
57160SOL     OW73376   1.032  11.042   7.303
57160SOL    HW173377   1.013  10.949   7.292
57160SOL    HW273378   0.950  11.087   7.280
57161SOL     OW73379  10.253  10.623  10.373
57161SOL    HW173380  10.253  10.586  10.285
57161SOL    HW273381  10.335  10.671  10.379
57162SOL     OW73382  11.268   7.066   4.018
57162SOL    HW173383  11.356   7.091   4.046
57162SOL    HW273384  11.264   6.972   4.034
57163SOL     OW73385   2.129  14.827  14.522
57163SOL    HW173386   2.200   0.009  14.518
57163SOL    HW273387   2.121  14.806  14.615
57164SOL     OW73388   0.040   8.173   9.311
57164SOL    HW173389   0.118   8.177   9.255
57164SOL    HW273390   0.075   8.151   9.398
57165SOL     OW73391  11.305   2.877  13.095
57165SOL    HW173392  11.249   2.915  13.027
57165SOL    HW273393  11.305   2.783  13.077
57166SOL     OW73394  14.576   1.808   0.426
57166SOL    HW173395  14.641   1.737   0.431
57166SOL    HW273396  14.514   1.788   0.496
57167SOL     OW73397   5.595  14.810   6.746
57167SOL    HW173398   5.606  14.764   6.829
57167SOL    HW273399   5.648   0.007   6.755
57168SOL     OW73400  14.723  10.322   4.607
57168SOL    HW173401  14.641  10.348   4.566
57168SOL    HW273402  14.726  10.372   4.688
57169SOL     OW73403  13.145   6.249   4.376
57169SOL    HW173404  13.215   6.231   4.439
57169SOL    HW273405  13.066   6.258   4.430
57170SOL     OW73406   7.981  14.186   1.510
57170SOL    HW173407   7.922  14.205   1.583
57170SOL    HW273408   8.068  14.187   1.548
57171SOL     OW73409   7.147  14.308  14.485
57171SOL    HW173410   7.225  14.256  14.467
57171SOL    HW273411   7.180  14.397  14.497
57172SOL     OW73412  10.770   3.232   1.968
57172SOL    HW173413  10.770   3.207   1.875
57172SOL    HW273414  10.819   3.162   2.011
57173SOL     OW73415  13.168   4.310   6.245
57173SOL    HW173416  13.130   4.373   6.307
57173SOL    HW273417  13.262   4.312   6.263
57174SOL     OW73418   6.837  12.689  10.737
57174SOL    HW173419   6.742  12.685  10.749
57174SOL    HW273420   6.864  12.769  10.784
57175SOL     OW73421   4.605   6.635   0.644
57175SOL    HW173422   4.622   6.720   0.685
57175SOL    HW273423   4.687   6.613   0.600
57176SOL     OW73424  12.391   7.297  12.837
57176SOL    HW173425  12.482   7.271  12.850
57176SOL    HW273426  12.358   7.237  12.770
57177SOL     OW73427   0.212   1.098  10.956
57177SOL    HW173428   0.142   1.037  10.936
57177SOL    HW273429   0.168   1.175  10.994
57178SOL     OW73430  13.214   0.910   3.598
57178SOL    HW173431  13.158   0.975   3.555
57178SOL    HW273432  13.296   0.956   3.612
57179SOL     OW73433   6.598   7.207   3.051
57179SOL    HW173434   6.651   7.270   3.099
57179SOL    HW273435   6.629   7.212   2.961
57180SOL     OW73436  13.953   9.301  14.448
57180SOL    HW173437  13.902   9.301  14.367
57180SOL    HW273438  13.928   9.220  14.492
57181SOL     OW73439   2.236   0.164  10.206
57181SOL    HW173440   2.210   0.182  10.115
57181SOL    HW273441   2.154   0.146  10.251
57182SOL     OW73442   9.919   5.077   2.271
57182SOL    HW173443   9.991   5.113   2.219
57182SOL    HW273444   9.840   5.108   2.226
57183SOL     OW73445  13.149   9.685  11.487
57183SOL    HW173446  13.054   9.685  11.473
57183SOL    HW273447  13.164   9.609  11.544
57184SOL     OW73448   3.725   6.822   7.590
57184SOL    HW173449   3.689   6.861   7.510
57184SOL    HW273450   3.713   6.728   7.578
57185SOL     OW73451   5.303  13.956  10.198
57185SOL    HW173452   5.325  14.045  10.227
57185SOL    HW273453   5.386  13.909  10.202
57186SOL     OW73454  14.496   2.892  10.623
57186SOL    HW173455  14.445   2.818  10.591
57186SOL    HW273456  14.487   2.887  10.718
57187SOL     OW73457   5.009  13.889  14.106
57187SOL    HW173458   5.088  13.879  14.053
57187SOL    HW273459   4.982  13.980  14.091
57188SOL     OW73460   1.760   7.998   6.889
57188SOL    HW173461   1.770   8.088   6.919
57188SOL    HW273462   1.848   7.962   6.891
57189SOL     OW73463   3.131   8.437   1.340
57189SOL    HW173464   3.219   8.414   1.370
57189SOL    HW273465   3.141   8.523   1.299
57190SOL     OW73466   5.954  11.478  10.515
57190SOL    HW173467   5.865  11.449  10.494
57190SOL    HW273468   5.964  11.559  10.466
57191SOL     OW73469  12.403   5.860   9.570
57191SOL    HW173470  12.456   5.926   9.617
57191SOL    HW273471  12.419   5.878   9.478
57192SOL     OW73472  10.482  13.673   2.932
57192SOL    HW173473  10.423  13.702   2.862
57192SOL    HW273474  10.427  13.617   2.988
57193SOL     OW73475   7.945  13.114  12.939
57193SOL    HW173476   7.941  13.018  12.945
57193SOL    HW273477   8.027  13.131  12.892
57194SOL     OW73478   2.185   0.034  11.879
57194SOL    HW173479   2.272   0.039  11.839
57194SOL    HW273480   2.202   0.043  11.973
57195SOL     OW73481  10.371  10.320  10.267
57195SOL    HW173482  10.379  10.238  10.314
57195SOL    HW273483  10.451  10.326  10.215
57196SOL     OW73484   9.429   0.711   6.461
57196SOL    HW173485   9.509   0.739   6.506
57196SOL    HW273486   9.400   0.789   6.414
57197SOL     OW73487   6.276  10.807   0.476
57197SOL    HW173488   6.256  10.805   0.570
57197SOL    HW273489   6.205  10.755   0.437
57198SOL     OW73490   5.978  13.284   1.507
57198SOL    HW173491   5.966  13.308   1.599
57198SOL    HW273492   6.036  13.208   1.510
57199SOL     OW73493   6.602   1.105   0.209
57199SOL    HW173494   6.683   1.135   0.251
57199SOL    HW273495   6.532   1.141   0.264
57200SOL     OW73496  11.347   7.662   3.951
57200SOL    HW173497  11.286   7.735   3.940
57200SOL    HW273498  11.304   7.589   3.906
57201SOL     OW73499   7.788   7.911  10.214
57201SOL    HW173500   7.762   7.977  10.279
57201SOL    HW273501   7.861   7.951  10.167
57202SOL     OW73502  14.278   4.460   7.386
57202SOL    HW173503  14.344   4.528   7.397
57202SOL    HW273504  14.237   4.480   7.301
57203SOL     OW73505  12.302  11.390   2.374
57203SOL    HW173506  12.230  11.343   2.417
57203SOL    HW273507  12.325  11.460   2.434
57204SOL     OW73508   7.872   5.992  10.082
57204SOL    HW173509   7.920   6.056  10.133
57204SOL    HW273510   7.862   6.031   9.996
57205SOL     OW73511  12.641   6.700   4.252
57205SOL    HW173512  12.700   6.725   4.180
57205SOL    HW273513  12.605   6.616   4.225
57206SOL     OW73514  13.426  12.947  11.677
57206SOL    HW173515  13.493  12.921  11.741
57206SOL    HW273516  13.410  12.867  11.627
57207SOL     OW73517   1.599   7.785  10.488
57207SOL    HW173518   1.619   7.718  10.553
57207SOL    HW273519   1.682   7.830  10.473
57208SOL     OW73520   6.539   9.181  13.504
57208SOL    HW173521   6.560   9.134  13.584
57208SOL    HW273522   6.446   9.163  13.489
57209SOL     OW73523   8.292   5.856   7.316
57209SOL    HW173524   8.310   5.948   7.332
57209SOL    HW273525   8.209   5.840   7.360
57210SOL     OW73526  11.857   6.030   2.174
57210SOL    HW173527  11.776   5.997   2.212
57210SOL    HW273528  11.891   5.957   2.121
57211SOL     OW73529   3.399   8.564  13.010
57211SOL    HW173530   3.430   8.517  13.087
57211SOL    HW273531   3.374   8.495  12.948
57212SOL     OW73532  10.312   3.509   2.711
57212SOL    HW173533  10.268   3.532   2.630
57212SOL    HW273534  10.324   3.592   2.756
57213SOL     OW73535   2.534   4.086   5.544
57213SOL    HW173536   2.531   4.161   5.602
57213SOL    HW273537   2.549   4.123   5.457
57214SOL     OW73538   2.590  13.992   6.234
57214SOL    HW173539   2.570  14.006   6.141
57214SOL    HW273540   2.669  13.938   6.233
57215SOL     OW73541   9.695   4.307   6.214
57215SOL    HW173542   9.649   4.360   6.149
57215SOL    HW273543   9.786   4.337   6.210
57216SOL     OW73544  12.194   7.425  12.564
57216SOL    HW173545  12.104   7.410  12.593
57216SOL    HW273546  12.225   7.496  12.620
57217SOL     OW73547  11.580   7.879   3.839
57217SOL    HW173548  11.566   7.973   3.826
57217SOL    HW273549  11.514   7.837   3.783
57218SOL     OW73550  14.101   5.963   0.978
57218SOL    HW173551  14.104   6.055   0.951
57218SOL    HW273552  14.063   5.964   1.065
57219SOL     OW73553  12.632   5.392  11.463
57219SOL    HW173554  12.704   5.338  11.432
57219SOL    HW273555  12.654   5.413  11.554
57220SOL     OW73556   2.737   1.008   2.798
57220SOL    HW173557   2.655   1.050   2.825
57220SOL    HW273558   2.772   0.970   2.879
57221SOL     OW73559  13.173   1.622  14.242
57221SOL    HW173560  13.191   1.678  14.166
57221SOL    HW273561  13.106   1.670  14.292
57222SOL     OW73562  13.831   3.492   3.933
57222SOL    HW173563  13.920   3.524   3.951
57222SOL    HW273564  13.835   3.399   3.955
57223SOL     OW73565  12.170  13.753   9.599
57223SOL    HW173566  12.084  13.778   9.632
57223SOL    HW273567  12.231  13.806   9.649
57224SOL     OW73568  11.902   3.806   6.033
57224SOL    HW173569  11.938   3.802   5.944
57224SOL    HW273570  11.958   3.748   6.084
57225SOL     OW73571   7.889  12.935   1.073
57225SOL    HW173572   7.852  12.851   1.046
57225SOL    HW273573   7.832  13.001   1.034
57226SOL     OW73574   7.098   0.517  14.004
57226SOL    HW173575   7.172   0.500  14.062
57226SOL    HW273576   7.137   0.526  13.917
57227SOL     OW73577   9.445   7.148   2.713
57227SOL    HW173578   9.434   7.177   2.804
57227SOL    HW273579   9.401   7.216   2.661
57228SOL     OW73580   8.606  10.340   2.710
57228SOL    HW173581   8.601  10.435   2.707
57228SOL    HW273582   8.545  10.315   2.779
57229SOL     OW73583   9.538   4.358   6.699
57229SOL    HW173584   9.510   4.449   6.691
57229SOL    HW273585   9.464   4.307   6.665
57230SOL     OW73586   8.734   7.159   9.025
57230SOL    HW173587   8.827   7.139   9.013
57230SOL    HW273588   8.733   7.240   9.076
57231SOL     OW73589  13.556   7.865  13.652
57231SOL    HW173590  13.461   7.858  13.649
57231SOL    HW273591  13.582   7.878  13.560
57232SOL     OW73592   4.757  13.809   6.664
57232SOL    HW173593   4.808  13.733   6.637
57232SOL    HW273594   4.749  13.800   6.759
57233SOL     OW73595   3.549  11.196   4.400
57233SOL    HW173596   3.488  11.224   4.468
57233SOL    HW273597   3.618  11.262   4.400
57234SOL     OW73598  10.861   2.282   6.148
57234SOL    HW173599  10.862   2.302   6.055
57234SOL    HW273600  10.826   2.193   6.154
57235SOL     OW73601   2.369  12.817  14.882
57235SOL    HW173602   2.341  12.747  14.823
57235SOL    HW273603   2.330  12.795   0.084
57236SOL     OW73604   8.639   1.486  10.423
57236SOL    HW173605   8.665   1.499  10.514
57236SOL    HW273606   8.557   1.534  10.414
57237SOL     OW73607   6.959   7.779  11.534
57237SOL    HW173608   7.047   7.754  11.560
57237SOL    HW273609   6.904   7.753  11.608
57238SOL     OW73610   1.151   9.301  11.423
57238SOL    HW173611   1.236   9.319  11.383
57238SOL    HW273612   1.124   9.384  11.462
57239SOL     OW73613   9.554   4.195   8.434
57239SOL    HW173614   9.646   4.189   8.460
57239SOL    HW273615   9.555   4.189   8.339
57240SOL     OW73616  11.743   7.206   1.560
57240SOL    HW173617  11.790   7.270   1.507
57240SOL    HW273618  11.742   7.243   1.648
57241SOL     OW73619   7.191  11.318   5.123
57241SOL    HW173620   7.193  11.317   5.028
57241SOL    HW273621   7.278  11.351   5.149
57242SOL     OW73622  14.246   7.366  10.006
57242SOL    HW173623  14.185   7.395  10.074
57242SOL    HW273624  14.330   7.401  10.034
57243SOL     OW73625   2.597   8.186  12.754
57243SOL    HW173626   2.514   8.150  12.722
57243SOL    HW273627   2.594   8.279  12.730
57244SOL     OW73628   8.919   2.084   6.968
57244SOL    HW173629   8.973   2.163   6.969
57244SOL    HW273630   8.894   2.072   6.877
57245SOL     OW73631   3.345   5.515   3.111
57245SOL    HW173632   3.375   5.566   3.187
57245SOL    HW273633   3.255   5.546   3.096
57246SOL     OW73634  12.692  13.853   1.254
57246SOL    HW173635  12.718  13.775   1.205
57246SOL    HW273636  12.622  13.892   1.201
57247SOL     OW73637   6.269  13.885   2.929
57247SOL    HW173638   6.362  13.890   2.952
57247SOL    HW273639   6.252  13.791   2.920
57248SOL     OW73640  12.506   8.471  11.945
57248SOL    HW173641  12.433   8.531  11.927
57248SOL    HW273642  12.584   8.527  11.943
57249SOL     OW73643  12.752   4.082  13.236
57249SOL    HW173644  12.671   4.075  13.185
57249SOL    HW273645  12.769   4.176  13.243
57250SOL     OW73646   9.194   3.826   1.868
57250SOL    HW173647   9.228   3.750   1.821
57250SOL    HW273648   9.152   3.789   1.946
57251SOL     OW73649   4.119  13.238   0.162
57251SOL    HW173650   4.051  13.294   0.123
57251SOL    HW273651   4.201  13.283   0.142
57252SOL     OW73652   7.884   2.570   4.234
57252SOL    HW173653   7.841   2.635   4.179
57252SOL    HW273654   7.905   2.616   4.315
57253SOL     OW73655   2.879  14.877   8.898
57253SOL    HW173656   2.885   0.079   8.944
57253SOL    HW273657   2.862  14.813   8.967
57254SOL     OW73658  13.815   5.754   2.685
57254SOL    HW173659  13.884   5.818   2.707
57254SOL    HW273660  13.734   5.804   2.689
57255SOL     OW73661  13.420   4.495   3.137
57255SOL    HW173662  13.407   4.521   3.228
57255SOL    HW273663  13.350   4.431   3.120
57256SOL     OW73664   4.707   1.107   8.475
57256SOL    HW173665   4.669   1.111   8.563
57256SOL    HW273666   4.796   1.142   8.486
57257SOL     OW73667   5.545   2.905   0.604
57257SOL    HW173668   5.541   2.812   0.626
57257SOL    HW273669   5.562   2.949   0.687
57258SOL     OW73670  11.560   2.502  14.155
57258SOL    HW173671  11.610   2.582  14.163
57258SOL    HW273672  11.551   2.470  14.245
57259SOL     OW73673  12.058  10.658  10.268
57259SOL    HW173674  12.112  10.733  10.242
57259SOL    HW273675  11.989  10.655  10.202
57260SOL     OW73676   7.655   4.250  10.567
57260SOL    HW173677   7.746   4.223  10.555
57260SOL    HW273678   7.651   4.338  10.528
57261SOL     OW73679   4.199   0.083   3.251
57261SOL    HW173680   4.170   0.174   3.263
57261SOL    HW273681   4.139   0.048   3.185
57262SOL     OW73682   6.140   1.958   9.484
57262SOL    HW173683   6.235   1.954   9.472
57262SOL    HW273684   6.108   1.877   9.446
57263SOL     OW73685   4.015  13.734  12.695
57263SOL    HW173686   4.087  13.788  12.664
57263SOL    HW273687   4.057  13.658  12.734
57264SOL     OW73688   5.675   8.214   5.880
57264SOL    HW173689   5.658   8.147   5.946
57264SOL    HW273690   5.598   8.271   5.884
57265SOL     OW73691   7.690   9.447   1.522
57265SOL    HW173692   7.658   9.478   1.606
57265SOL    HW273693   7.712   9.355   1.537
57266SOL     OW73694   7.736  14.708   9.866
57266SOL    HW173695   7.751  14.624   9.824
57266SOL    HW273696   7.641  14.720   9.866
57267SOL     OW73697  11.760   9.456   5.253
57267SOL    HW173698  11.759   9.364   5.277
57267SOL    HW273699  11.840   9.491   5.293
57268SOL     OW73700  14.777  13.731   4.979
57268SOL    HW173701  14.866  13.745   4.948
57268SOL    HW273702  14.760  13.638   4.961
57269SOL     OW73703   6.456  11.737   6.826
57269SOL    HW173704   6.488  11.647   6.824
57269SOL    HW273705   6.457  11.765   6.734
57270SOL     OW73706   0.746   3.356   2.409
57270SOL    HW173707   0.796   3.318   2.481
57270SOL    HW273708   0.656   3.328   2.423
57271SOL     OW73709   9.596   5.209   3.627
57271SOL    HW173710   9.577   5.148   3.556
57271SOL    HW273711   9.541   5.180   3.700
57272SOL     OW73712   2.470   1.007  11.619
57272SOL    HW173713   2.427   0.925  11.595
57272SOL    HW273714   2.417   1.041  11.691
57273SOL     OW73715  11.990  13.723   9.269
57273SOL    HW173716  11.945  13.671   9.336
57273SOL    HW273717  12.071  13.675   9.253
57274SOL     OW73718  11.729  13.455  14.824
57274SOL    HW173719  11.676  13.382  14.791
57274SOL    HW273720  11.703  13.464   0.034
57275SOL     OW73721   2.696   8.257  13.205
57275SOL    HW173722   2.666   8.168  13.186
57275SOL    HW273723   2.722   8.292  13.120
57276SOL     OW73724   8.952   0.566   4.521
57276SOL    HW173725   9.026   0.591   4.575
57276SOL    HW273726   8.957   0.625   4.445
57277SOL     OW73727   1.442   2.781   9.619
57277SOL    HW173728   1.535   2.756   9.620
57277SOL    HW273729   1.408   2.748   9.702
57278SOL     OW73730   5.127   6.057   2.964
57278SOL    HW173731   5.205   6.031   3.014
57278SOL    HW273732   5.070   6.099   3.028
57279SOL     OW73733   8.753   1.179   8.740
57279SOL    HW173734   8.688   1.219   8.798
57279SOL    HW273735   8.760   1.089   8.770
57280SOL     OW73736  11.618  11.943   8.426
57280SOL    HW173737  11.673  11.967   8.352
57280SOL    HW273738  11.664  11.975   8.503
57281SOL     OW73739   6.375   6.759  14.784
57281SOL    HW173740   6.423   6.678  14.769
57281SOL    HW273741   6.377   6.770  14.879
57282SOL     OW73742   3.465   5.154  13.813
57282SOL    HW173743   3.462   5.193  13.726
57282SOL    HW273744   3.429   5.066  13.800
57283SOL     OW73745  12.096   1.507   7.399
57283SOL    HW173746  12.096   1.600   7.422
57283SOL    HW273747  12.019   1.472   7.444
57284SOL     OW73748  12.238  12.650   9.617
57284SOL    HW173749  12.325  12.683   9.592
57284SOL    HW273750  12.253  12.601   9.697
57285SOL     OW73751   5.140  13.287  10.586
57285SOL    HW173752   5.123  13.362  10.644
57285SOL    HW273753   5.061  13.279  10.534
57286SOL     OW73754  14.284   4.268   3.549
57286SOL    HW173755  14.199   4.236   3.579
57286SOL    HW273756  14.322   4.311   3.625
57287SOL     OW73757  14.807  13.425   3.826
57287SOL    HW173758  14.804  13.478   3.747
57287SOL    HW273759  14.736  13.362   3.815
57288SOL     OW73760   4.759   3.304   3.285
57288SOL    HW173761   4.685   3.291   3.226
57288SOL    HW273762   4.763   3.224   3.337
57289SOL     OW73763   2.351   0.527   6.956
57289SOL    HW173764   2.323   0.539   7.047
57289SOL    HW273765   2.283   0.473   6.916
57290SOL     OW73766   3.774   3.057   4.377
57290SOL    HW173767   3.832   2.984   4.398
57290SOL    HW273768   3.830   3.135   4.383
57291SOL     OW73769  11.536   3.858  11.533
57291SOL    HW173770  11.509   3.920  11.601
57291SOL    HW273771  11.596   3.798  11.578
57292SOL     OW73772   2.484   6.683  10.011
57292SOL    HW173773   2.476   6.759  10.068
57292SOL    HW273774   2.422   6.699   9.940
57293SOL     OW73775   0.630   5.719   0.756
57293SOL    HW173776   0.567   5.773   0.804
57293SOL    HW273777   0.604   5.728   0.665
57294SOL     OW73778  12.015   6.434   7.700
57294SOL    HW173779  11.985   6.517   7.662
57294SOL    HW273780  11.950   6.414   7.768
57295SOL     OW73781   1.240  10.949   1.516
57295SOL    HW173782   1.232  10.951   1.612
57295SOL    HW273783   1.173  11.009   1.484
57296SOL     OW73784   8.925   1.402   3.162
57296SOL    HW173785   8.938   1.497   3.158
57296SOL    HW273786   8.841   1.387   3.120
57297SOL     OW73787  11.904   5.441  14.556
57297SOL    HW173788  11.822   5.391  14.556
57297SOL    HW273789  11.899   5.497  14.479
57298SOL     OW73790  11.048   9.701   2.293
57298SOL    HW173791  11.141   9.722   2.303
57298SOL    HW273792  11.042   9.607   2.310
57299SOL     OW73793   9.852   1.179   9.174
57299SOL    HW173794   9.805   1.245   9.124
57299SOL    HW273795   9.920   1.227   9.220
57300SOL     OW73796   1.369   4.456  14.001
57300SOL    HW173797   1.399   4.366  14.018
57300SOL    HW273798   1.421   4.510  14.061
57301SOL     OW73799  13.448   5.355   9.699
57301SOL    HW173800  13.411   5.436   9.733
57301SOL    HW273801  13.469   5.303   9.777
57302SOL     OW73802   7.673   1.236   2.729
57302SOL    HW173803   7.768   1.226   2.737
57302SOL    HW273804   7.646   1.274   2.813
57303SOL     OW73805  12.030   9.507   7.548
57303SOL    HW173806  11.978   9.556   7.484
57303SOL    HW273807  12.075   9.575   7.599
57304SOL     OW73808   5.643  13.215  12.906
57304SOL    HW173809   5.608  13.276  12.972
57304SOL    HW273810   5.735  13.203  12.931
57305SOL     OW73811  13.501   1.949   3.479
57305SOL    HW173812  13.432   2.005   3.514
57305SOL    HW273813  13.580   2.002   3.483
57306SOL     OW73814   0.170   7.171   4.153
57306SOL    HW173815   0.181   7.089   4.201
57306SOL    HW273816   0.256   7.186   4.113
57307SOL     OW73817  14.307   8.288  11.240
57307SOL    HW173818  14.313   8.381  11.218
57307SOL    HW273819  14.236   8.283  11.305
57308SOL     OW73820   4.707   5.159   6.555
57308SOL    HW173821   4.649   5.139   6.481
57308SOL    HW273822   4.719   5.254   6.551
57309SOL     OW73823  13.219   5.953   9.034
57309SOL    HW173824  13.190   5.943   9.124
57309SOL    HW273825  13.155   6.011   8.994
57310SOL     OW73826  13.555   2.883   7.302
57310SOL    HW173827  13.535   2.930   7.383
57310SOL    HW273828  13.527   2.793   7.318
57311SOL     OW73829   8.460   5.369   7.629
57311SOL    HW173830   8.439   5.277   7.647
57311SOL    HW273831   8.385   5.418   7.661
57312SOL     OW73832  11.875   6.032   3.020
57312SOL    HW173833  11.924   6.036   2.938
57312SOL    HW273834  11.905   6.107   3.071
57313SOL     OW73835  11.340   2.232  12.104
57313SOL    HW173836  11.408   2.238  12.037
57313SOL    HW273837  11.301   2.320  12.106
57314SOL     OW73838  12.893   9.287  13.141
57314SOL    HW173839  12.903   9.271  13.047
57314SOL    HW273840  12.857   9.206  13.176
57315SOL     OW73841   6.699  13.186  11.802
57315SOL    HW173842   6.643  13.193  11.725
57315SOL    HW273843   6.656  13.120  11.857
57316SOL     OW73844   9.061  14.490  14.806
57316SOL    HW173845   9.108  14.573  14.804
57316SOL    HW273846   8.992  14.503  14.871
57317SOL     OW73847  13.126  14.099   1.345
57317SOL    HW173848  13.180  14.078   1.421
57317SOL    HW273849  13.132  14.021   1.289
57318SOL     OW73850   1.666   3.956   3.479
57318SOL    HW173851   1.632   3.884   3.532
57318SOL    HW273852   1.758   3.962   3.502
57319SOL     OW73853   4.398   5.369   0.213
57319SOL    HW173854   4.355   5.454   0.200
57319SOL    HW273855   4.435   5.348   0.128
57320SOL     OW73856  13.215  12.838   0.355
57320SOL    HW173857  13.197  12.745   0.372
57320SOL    HW273858  13.139  12.884   0.391
57321SOL     OW73859   1.815   7.010  13.070
57321SOL    HW173860   1.813   7.082  13.133
57321SOL    HW273861   1.890   7.029  13.014
57322SOL     OW73862   7.516  10.082  14.677
57322SOL    HW173863   7.487  10.158  14.727
57322SOL    HW273864   7.583  10.118  14.618
57323SOL     OW73865   6.109  14.000   1.517
57323SOL    HW173866   6.172  14.013   1.446
57323SOL    HW273867   6.029  13.972   1.472
57324SOL     OW73868   8.409   0.150   8.172
57324SOL    HW173869   8.499   0.146   8.141
57324SOL    HW273870   8.416   0.156   8.267
57325SOL     OW73871   5.446  13.802  14.779
57325SOL    HW173872   5.355  13.823  14.757
57325SOL    HW273873   5.444  13.711  14.808
57326SOL     OW73874   3.448   2.850   8.319
57326SOL    HW173875   3.469   2.922   8.259
57326SOL    HW273876   3.357   2.866   8.344
57327SOL     OW73877  11.228   7.829  14.869
57327SOL    HW173878  11.175   7.785  14.803
57327SOL    HW273879  11.254   7.911  14.827
57328SOL     OW73880  11.621  11.276   9.892
57328SOL    HW173881  11.663  11.316   9.968
57328SOL    HW273882  11.603  11.186   9.920
57329SOL     OW73883   6.566  11.676  13.491
57329SOL    HW173884   6.521  11.686  13.407
57329SOL    HW273885   6.566  11.582  13.507
57330SOL     OW73886   0.295   9.623   0.880
57330SOL    HW173887   0.384   9.589   0.869
57330SOL    HW273888   0.304   9.694   0.943
57331SOL     OW73889   4.505  12.733  13.212
57331SOL    HW173890   4.444  12.796  13.250
57331SOL    HW273891   4.449  12.668  13.169
57332SOL     OW73892  10.726   8.681   3.744
57332SOL    HW173893  10.654   8.677   3.680
57332SOL    HW273894  10.786   8.612   3.715
57333SOL     OW73895  12.672  14.026  10.129
57333SOL    HW173896  12.687  14.112  10.168
57333SOL    HW273897  12.730  14.023  10.053
57334SOL     OW73898  10.080   1.204   2.233
57334SOL    HW173899  10.093   1.154   2.313
57334SOL    HW273900  10.013   1.269   2.255
57335SOL     OW73901   9.930   8.227  11.216
57335SOL    HW173902   9.962   8.274  11.139
57335SOL    HW273903   9.923   8.294  11.284
57336SOL     OW73904   3.918  12.534   9.082
57336SOL    HW173905   3.924  12.498   8.993
57336SOL    HW273906   3.840  12.493   9.119
57337SOL     OW73907  10.168   6.578   3.213
57337SOL    HW173908  10.190   6.500   3.263
57337SOL    HW273909  10.123   6.546   3.135
57338SOL     OW73910  13.094   9.452   6.455
57338SOL    HW173911  12.998   9.449   6.450
57338SOL    HW273912  13.116   9.395   6.529
57339SOL     OW73913   3.437   5.995   2.776
57339SOL    HW173914   3.471   6.070   2.727
57339SOL    HW273915   3.513   5.940   2.792
57340SOL     OW73916   7.663   8.087  12.729
57340SOL    HW173917   7.618   8.059  12.650
57340SOL    HW273918   7.618   8.041  12.801
57341SOL     OW73919  14.390   7.526   1.560
57341SOL    HW173920  14.419   7.611   1.591
57341SOL    HW273921  14.438   7.463   1.613
57342SOL     OW73922   9.406   1.803  13.754
57342SOL    HW173923   9.314   1.804  13.779
57342SOL    HW273924   9.423   1.892  13.722
57343SOL     OW73925   1.550   0.094  14.357
57343SOL    HW173926   1.574   0.177  14.315
57343SOL    HW273927   1.504   0.120  14.437
57344SOL     OW73928  10.808   8.885   4.232
57344SOL    HW173929  10.795   8.960   4.290
57344SOL    HW273930  10.891   8.847   4.261
57345SOL     OW73931  14.810   5.563  13.860
57345SOL    HW173932  14.727   5.582  13.904
57345SOL    HW273933  14.822   5.469  13.871
57346SOL     OW73934   5.382   4.825   9.836
57346SOL    HW173935   5.340   4.804   9.753
57346SOL    HW273936   5.410   4.916   9.827
57347SOL     OW73937   7.128   3.764   2.808
57347SOL    HW173938   7.204   3.710   2.788
57347SOL    HW273939   7.148   3.849   2.767
57348SOL     OW73940   0.909  13.974   1.024
57348SOL    HW173941   0.856  13.937   0.954
57348SOL    HW273942   0.976  14.026   0.979
57349SOL     OW73943   5.447   4.868   7.571
57349SOL    HW173944   5.446   4.911   7.656
57349SOL    HW273945   5.470   4.937   7.509
57350SOL     OW73946   2.228   2.395   7.207
57350SOL    HW173947   2.234   2.491   7.202
57350SOL    HW273948   2.163   2.372   7.141
57351SOL     OW73949  14.294  14.370  10.872
57351SOL    HW173950  14.313  14.291  10.821
57351SOL    HW273951  14.301  14.442  10.808
57352SOL     OW73952   5.885  10.980  14.309
57352SOL    HW173953   5.850  11.018  14.390
57352SOL    HW273954   5.813  10.926  14.276
57353SOL     OW73955  10.158  11.703  12.915
57353SOL    HW173956  10.178  11.626  12.860
57353SOL    HW273957  10.205  11.687  12.997
57354SOL     OW73958   1.936  14.651  13.030
57354SOL    HW173959   1.864  14.657  12.967
57354SOL    HW273960   1.954  14.557  13.038
57355SOL     OW73961   7.974   3.229   1.314
57355SOL    HW173962   7.992   3.135   1.318
57355SOL    HW273963   8.049   3.266   1.268
57356SOL     OW73964   9.760   4.163   3.562
57356SOL    HW173965   9.778   4.096   3.628
57356SOL    HW273966   9.716   4.116   3.491
57357SOL     OW73967  12.840  11.984  10.961
57357SOL    HW173968  12.799  11.901  10.939
57357SOL    HW273969  12.769  12.039  10.994
57358SOL     OW73970  11.619   8.661  11.663
57358SOL    HW173971  11.613   8.577  11.709
57358SOL    HW273972  11.681   8.645  11.591
57359SOL     OW73973   9.897   3.179   1.267
57359SOL    HW173974   9.891   3.213   1.357
57359SOL    HW273975   9.810   3.144   1.249
57360SOL     OW73976  14.726  10.385   4.878
57360SOL    HW173977  14.728  10.303   4.928
57360SOL    HW273978  14.668  10.442   4.928
57361SOL     OW73979   8.166   9.443  12.826
57361SOL    HW173980   8.234   9.376  12.828
57361SOL    HW273981   8.190   9.500  12.752
57362SOL     OW73982   7.780   1.354   3.585
57362SOL    HW173983   7.735   1.431   3.550
57362SOL    HW273984   7.780   1.368   3.680
57363SOL     OW73985  10.446  13.916  11.268
57363SOL    HW173986  10.371  13.916  11.328
57363SOL    HW273987  10.439  13.999  11.222
57364SOL     OW73988   6.843  11.914   6.112
57364SOL    HW173989   6.891  11.990   6.079
57364SOL    HW273990   6.887  11.839   6.071
57365SOL     OW73991  12.538  12.718  13.881
57365SOL    HW173992  12.513  12.678  13.964
57365SOL    HW273993  12.617  12.768  13.901
57366SOL     OW73994   8.932   6.875  11.567
57366SOL    HW173995   8.843   6.907  11.552
57366SOL    HW273996   8.920   6.796  11.619
57367SOL     OW73997   9.250   0.375   4.575
57367SOL    HW173998   9.267   0.461   4.615
57367SOL    HW273999   9.193   0.393   4.501
57368SOL     OW74000  10.916   7.475   4.845
57368SOL    HW174001  10.846   7.533   4.814
57368SOL    HW274002  10.871   7.411   4.900
57369SOL     OW74003   3.560   6.037   1.290
57369SOL    HW174004   3.563   6.129   1.264
57369SOL    HW274005   3.636   5.997   1.249
57370SOL     OW74006  10.804   7.060  11.879
57370SOL    HW174007  10.723   7.110  11.875
57370SOL    HW274008  10.848   7.092  11.958
57371SOL     OW74009  12.703   9.464  11.968
57371SOL    HW174010  12.681   9.372  11.958
57371SOL    HW274011  12.698   9.499  11.879
57372SOL     OW74012   2.361   7.382   6.391
57372SOL    HW174013   2.303   7.445   6.433
57372SOL    HW274014   2.445   7.427   6.384
57373SOL     OW74015   7.707   8.177  12.278
57373SOL    HW174016   7.619   8.169  12.242
57373SOL    HW274017   7.750   8.242  12.222
57374SOL     OW74018   6.792   7.443   3.545
57374SOL    HW174019   6.700   7.424   3.561
57374SOL    HW274020   6.803   7.535   3.567
57375SOL     OW74021   7.175   0.968  14.195
57375SOL    HW174022   7.216   1.008  14.119
57375SOL    HW274023   7.172   1.038  14.261
57376SOL     OW74024   5.431   1.576   2.368
57376SOL    HW174025   5.412   1.622   2.286
57376SOL    HW274026   5.524   1.595   2.385
57377SOL     OW74027  11.237  13.567  10.797
57377SOL    HW174028  11.278  13.648  10.765
57377SOL    HW274029  11.295  13.537  10.867
57378SOL     OW74030   3.172   7.964   1.670
57378SOL    HW174031   3.226   7.937   1.744
57378SOL    HW274032   3.207   8.050   1.646
57379SOL     OW74033  11.352   5.777   0.876
57379SOL    HW174034  11.421   5.711   0.862
57379SOL    HW274035  11.354   5.830   0.797
57380SOL     OW74036  12.879  14.485   2.404
57380SOL    HW174037  12.857  14.493   2.311
57380SOL    HW274038  12.847  14.566   2.443
57381SOL     OW74039   0.165   9.890  13.716
57381SOL    HW174040   0.085   9.849  13.682
57381SOL    HW274041   0.185   9.960  13.654
57382SOL     OW74042  12.138   8.653  13.591
57382SOL    HW174043  12.148   8.725  13.653
57382SOL    HW274044  12.134   8.574  13.646
57383SOL     OW74045   8.601   5.146  12.138
57383SOL    HW174046   8.656   5.223  12.154
57383SOL    HW274047   8.621   5.088  12.212
57384SOL     OW74048   5.374  13.498  12.519
57384SOL    HW174049   5.417  13.537  12.443
57384SOL    HW274050   5.359  13.570  12.579
57385SOL     OW74051   8.851  14.568  11.578
57385SOL    HW174052   8.878  14.492  11.527
57385SOL    HW274053   8.828  14.634  11.513
57386SOL     OW74054   6.691   9.488  10.700
57386SOL    HW174055   6.612   9.525  10.662
57386SOL    HW274056   6.678   9.495  10.795
57387SOL     OW74057   4.275  11.090   2.780
57387SOL    HW174058   4.329  11.067   2.855
57387SOL    HW274059   4.205  11.144   2.817
57388SOL     OW74060   6.316   6.905  11.305
57388SOL    HW174061   6.240   6.871  11.353
57388SOL    HW274062   6.315   6.999  11.322
57389SOL     OW74063   3.639  13.401   3.432
57389SOL    HW174064   3.705  13.377   3.497
57389SOL    HW274065   3.658  13.346   3.356
57390SOL     OW74066  10.662   8.472   2.666
57390SOL    HW174067  10.577   8.430   2.655
57390SOL    HW274068  10.643   8.566   2.667
57391SOL     OW74069   0.877   3.816  13.682
57391SOL    HW174070   0.872   3.764  13.763
57391SOL    HW274071   0.967   3.846  13.678
57392SOL     OW74072   0.679  12.830  11.911
57392SOL    HW174073   0.634  12.796  11.988
57392SOL    HW274074   0.627  12.907  11.885
57393SOL     OW74075   3.066   0.828   7.223
57393SOL    HW174076   3.083   0.858   7.134
57393SOL    HW274077   2.971   0.835   7.233
57394SOL     OW74078  12.413  12.449  10.209
57394SOL    HW174079  12.499  12.417  10.237
57394SOL    HW274080  12.363  12.457  10.290
57395SOL     OW74081   2.853   3.912  13.029
57395SOL    HW174082   2.817   3.959  13.104
57395SOL    HW274083   2.893   3.833  13.066
57396SOL     OW74084   5.988   0.813   7.560
57396SOL    HW174085   6.004   0.768   7.477
57396SOL    HW274086   5.901   0.851   7.550
57397SOL     OW74087   3.742  10.169  14.691
57397SOL    HW174088   3.741  10.265  14.682
57397SOL    HW274089   3.767  10.138  14.604
57398SOL     OW74090   9.641   9.767   5.608
57398SOL    HW174091   9.613   9.729   5.692
57398SOL    HW274092   9.584   9.726   5.543
57399SOL     OW74093   8.065   1.606  12.440
57399SOL    HW174094   8.024   1.656  12.369
57399SOL    HW274095   8.120   1.670  12.485
57400SOL     OW74096  11.667   8.270   2.985
57400SOL    HW174097  11.761   8.274   3.002
57400SOL    HW274098  11.640   8.185   3.020
57401SOL     OW74099   4.290   4.438   3.646
57401SOL    HW174100   4.309   4.429   3.739
57401SOL    HW274101   4.194   4.439   3.641
57402SOL     OW74102  11.453   3.307   1.262
57402SOL    HW174103  11.368   3.316   1.218
57402SOL    HW274104  11.509   3.372   1.221
57403SOL     OW74105   2.093   0.388  10.470
57403SOL    HW174106   2.072   0.472  10.512
57403SOL    HW274107   2.189   0.382  10.476
57404SOL     OW74108   9.986   4.821   5.821
57404SOL    HW174109  10.060   4.782   5.867
57404SOL    HW274110   9.923   4.841   5.890
57405SOL     OW74111   3.712  14.636   4.737
57405SOL    HW174112   3.783  14.626   4.674
57405SOL    HW274113   3.635  14.655   4.684
57406SOL     OW74114   4.433   5.354   5.929
57406SOL    HW174115   4.370   5.303   5.877
57406SOL    HW274116   4.518   5.316   5.908
57407SOL     OW74117   0.776   8.870  13.816
57407SOL    HW174118   0.687   8.835  13.810
57407SOL    HW274119   0.815   8.849  13.731
57408SOL     OW74120   3.065   6.886   6.203
57408SOL    HW174121   3.140   6.882   6.262
57408SOL    HW274122   3.024   6.970   6.223
57409SOL     OW74123  10.869  12.671  13.763
57409SOL    HW174124  10.933  12.631  13.704
57409SOL    HW274125  10.804  12.603  13.778
57410SOL     OW74126   5.066   0.598   0.163
57410SOL    HW174127   5.011   0.670   0.196
57410SOL    HW274128   5.003   0.534   0.130
57411SOL     OW74129   4.796   8.486   2.150
57411SOL    HW174130   4.844   8.403   2.157
57411SOL    HW274131   4.718   8.473   2.204
57412SOL     OW74132  11.901   2.718  14.865
57412SOL    HW174133  11.957   2.791   0.010
57412SOL    HW274134  11.900   2.722  14.770
57413SOL     OW74135   4.971  14.306   0.516
57413SOL    HW174136   4.918  14.323   0.594
57413SOL    HW274137   4.921  14.242   0.465
57414SOL     OW74138  10.960   6.077   0.224
57414SOL    HW174139  11.015   6.001   0.242
57414SOL    HW274140  10.998   6.115   0.144
57415SOL     OW74141   5.448   6.854   3.636
57415SOL    HW174142   5.497   6.926   3.597
57415SOL    HW274143   5.439   6.790   3.566
57416SOL     OW74144  10.851   1.013   4.233
57416SOL    HW174145  10.760   0.982   4.230
57416SOL    HW274146  10.871   1.033   4.142
57417SOL     OW74147   3.530   1.270   9.221
57417SOL    HW174148   3.615   1.253   9.180
57417SOL    HW274149   3.485   1.185   9.218
57418SOL     OW74150   4.389  11.561  13.253
57418SOL    HW174151   4.402  11.656  13.253
57418SOL    HW274152   4.446  11.528  13.184
57419SOL     OW74153   4.073  10.601   8.779
57419SOL    HW174154   4.076  10.514   8.738
57419SOL    HW274155   4.165  10.627   8.787
57420SOL     OW74156   9.682   7.629  10.142
57420SOL    HW174157   9.588   7.613  10.150
57420SOL    HW274158   9.691   7.679  10.060
57421SOL     OW74159   4.960  11.078   8.710
57421SOL    HW174160   4.929  11.020   8.779
57421SOL    HW274161   5.023  11.026   8.660
57422SOL     OW74162   0.189  10.174   8.261
57422SOL    HW174163   0.143  10.230   8.323
57422SOL    HW274164   0.281  10.180   8.288
57423SOL     OW74165  11.684   9.386   7.309
57423SOL    HW174166  11.616   9.426   7.362
57423SOL    HW274167  11.675   9.292   7.326
57424SOL     OW74168   8.841   7.784   3.478
57424SOL    HW174169   8.783   7.725   3.525
57424SOL    HW274170   8.878   7.730   3.407
57425SOL     OW74171  14.302  12.224   8.109
57425SOL    HW174172  14.387  12.202   8.071
57425SOL    HW274173  14.308  12.196   8.200
57426SOL     OW74174   1.463   4.806   2.306
57426SOL    HW174175   1.528   4.871   2.280
57426SOL    HW274176   1.395   4.856   2.350
57427SOL     OW74177  10.701   7.327   3.186
57427SOL    HW174178  10.780   7.379   3.198
57427SOL    HW274179  10.683   7.291   3.273
57428SOL     OW74180   7.295   0.130   5.657
57428SOL    HW174181   7.355   0.194   5.697
57428SOL    HW274182   7.248   0.093   5.731
57429SOL     OW74183   5.139   9.648   5.162
57429SOL    HW174184   5.076   9.576   5.155
57429SOL    HW274185   5.116   9.707   5.090
57430SOL     OW74186   8.509   4.109   6.445
57430SOL    HW174187   8.595   4.090   6.483
57430SOL    HW274188   8.451   4.121   6.520
57431SOL     OW74189   0.138   0.056   0.359
57431SOL    HW174190   0.195   0.101   0.422
57431SOL    HW274191   0.194  14.873   0.318
57432SOL     OW74192   2.392  13.891   6.629
57432SOL    HW174193   2.369  13.904   6.537
57432SOL    HW274194   2.315  13.846   6.666
57433SOL     OW74195  13.024   1.584  13.469
57433SOL    HW174196  13.118   1.582  13.487
57433SOL    HW274197  13.013   1.659  13.410
57434SOL     OW74198   2.052  10.887  10.668
57434SOL    HW174199   2.129  10.918  10.717
57434SOL    HW274200   2.073  10.905  10.576
57435SOL     OW74201   9.343   9.219  10.607
57435SOL    HW174202   9.412   9.153  10.598
57435SOL    HW274203   9.370   9.289  10.547
57436SOL     OW74204   8.905  14.067  14.242
57436SOL    HW174205   8.968  14.121  14.194
57436SOL    HW274206   8.896  14.110  14.327
57437SOL     OW74207  12.964  12.589   0.802
57437SOL    HW174208  12.959  12.566   0.895
57437SOL    HW274209  12.930  12.678   0.797
57438SOL     OW74210   8.503  12.297  11.050
57438SOL    HW174211   8.439  12.280  11.119
57438SOL    HW274212   8.453  12.300  10.969
57439SOL     OW74213  11.401   5.589   4.590
57439SOL    HW174214  11.312   5.578   4.623
57439SOL    HW274215  11.414   5.684   4.589
57440SOL     OW74216   7.063   0.833   9.351
57440SOL    HW174217   7.153   0.810   9.374
57440SOL    HW274218   7.068   0.926   9.325
57441SOL     OW74219   6.667   4.457   0.343
57441SOL    HW174220   6.612   4.533   0.359
57441SOL    HW274221   6.711   4.440   0.427
57442SOL     OW74222   8.467  11.140   9.739
57442SOL    HW174223   8.474  11.082   9.816
57442SOL    HW274224   8.524  11.099   9.674
57443SOL     OW74225   7.902   1.412   9.617
57443SOL    HW174226   7.881   1.319   9.613
57443SOL    HW274227   7.884   1.445   9.529
57444SOL     OW74228   4.672  13.785   4.614
57444SOL    HW174229   4.730  13.807   4.542
57444SOL    HW274230   4.729  13.779   4.691
57445SOL     OW74231   2.396   5.072  10.368
57445SOL    HW174232   2.315   5.118  10.391
57445SOL    HW274233   2.466   5.127  10.405
57446SOL     OW74234  10.002   5.094  12.785
57446SOL    HW174235  10.000   5.130  12.696
57446SOL    HW274236   9.934   5.141  12.832
57447SOL     OW74237   6.219   0.762  14.361
57447SOL    HW174238   6.279   0.692  14.389
57447SOL    HW274239   6.276   0.838  14.349
57448SOL     OW74240   1.640   8.037   4.353
57448SOL    HW174241   1.637   8.093   4.275
57448SOL    HW274242   1.565   7.978   4.342
57449SOL     OW74243  13.953  14.367  10.436
57449SOL    HW174244  13.882  14.373  10.372
57449SOL    HW274245  13.999  14.286  10.414
57450SOL     OW74246   1.621   3.345  12.670
57450SOL    HW174247   1.602   3.376  12.758
57450SOL    HW274248   1.550   3.381  12.616
57451SOL     OW74249   5.695   7.955   4.231
57451SOL    HW174250   5.608   7.952   4.192
57451SOL    HW274251   5.747   8.004   4.168
57452SOL     OW74252   1.933  12.087   9.423
57452SOL    HW174253   1.976  12.096   9.508
57452SOL    HW274254   1.947  11.995   9.399
57453SOL     OW74255  14.407   4.543   5.371
57453SOL    HW174256  14.456   4.534   5.453
57453SOL    HW274257  14.406   4.637   5.354
57454SOL     OW74258   0.641   4.251   7.402
57454SOL    HW174259   0.687   4.220   7.325
57454SOL    HW274260   0.579   4.181   7.423
57455SOL     OW74261  11.546  13.775  11.542
57455SOL    HW174262  11.479  13.707  11.557
57455SOL    HW274263  11.531  13.840  11.610
57456SOL     OW74264   3.495   1.878  11.903
57456SOL    HW174265   3.469   1.971  11.908
57456SOL    HW274266   3.535   1.860  11.988
57457SOL     OW74267   6.252   9.057  12.406
57457SOL    HW174268   6.234   9.125  12.471
57457SOL    HW274269   6.265   9.105  12.324
57458SOL     OW74270  12.665  11.771  13.742
57458SOL    HW174271  12.594  11.709  13.724
57458SOL    HW274272  12.620  11.849  13.775
57459SOL     OW74273   2.893   1.006   0.165
57459SOL    HW174274   2.943   1.046   0.094
57459SOL    HW274275   2.913   0.913   0.160
57460SOL     OW74276   0.299  12.386   7.966
57460SOL    HW174277   0.206  12.384   7.946
57460SOL    HW274278   0.329  12.297   7.948
57461SOL     OW74279   1.205   4.819   7.099
57461SOL    HW174280   1.224   4.728   7.118
57461SOL    HW274281   1.149   4.848   7.171
57462SOL     OW74282  14.238  10.206   4.612
57462SOL    HW174283  14.203  10.146   4.677
57462SOL    HW274284  14.192  10.289   4.627
57463SOL     OW74285   1.150  12.928   2.761
57463SOL    HW174286   1.243  12.905   2.757
57463SOL    HW274287   1.121  12.930   2.670
57464SOL     OW74288  14.690  13.930   2.374
57464SOL    HW174289  14.726  13.921   2.462
57464SOL    HW274290  14.766  13.940   2.318
57465SOL     OW74291   8.838  11.404   5.861
57465SOL    HW174292   8.921  11.414   5.814
57465SOL    HW274293   8.791  11.485   5.845
57466SOL     OW74294  10.590  13.062   6.369
57466SOL    HW174295  10.659  13.006   6.334
57466SOL    HW274296  10.628  13.102   6.447
57467SOL     OW74297  14.481   9.481   5.536
57467SOL    HW174298  14.437   9.410   5.582
57467SOL    HW274299  14.533   9.437   5.468
57468SOL     OW74300   5.425   9.046   8.569
57468SOL    HW174301   5.355   9.099   8.531
57468SOL    HW274302   5.393   8.956   8.563
57469SOL     OW74303  13.494   2.832   4.580
57469SOL    HW174304  13.453   2.894   4.641
57469SOL    HW274305  13.543   2.772   4.637
57470SOL     OW74306   3.139   0.233   4.170
57470SOL    HW174307   3.100   0.185   4.097
57470SOL    HW274308   3.111   0.324   4.157
57471SOL     OW74309   1.470   1.685  14.258
57471SOL    HW174310   1.409   1.730  14.200
57471SOL    HW274311   1.414   1.641  14.322
57472SOL     OW74312  10.033   4.868   7.559
57472SOL    HW174313  10.093   4.816   7.505
57472SOL    HW274314  10.022   4.817   7.639
57473SOL     OW74315  12.694   3.226  13.103
57473SOL    HW174316  12.655   3.262  13.183
57473SOL    HW274317  12.734   3.144  13.131
57474SOL     OW74318   7.579   0.056   4.136
57474SOL    HW174319   7.626   0.013   4.064
57474SOL    HW274320   7.490   0.023   4.129
57475SOL     OW74321   9.512   2.570   7.130
57475SOL    HW174322   9.419   2.562   7.149
57475SOL    HW274323   9.516   2.627   7.053
57476SOL     OW74324   0.262   7.487   4.034
57476SOL    HW174325   0.323   7.416   4.056
57476SOL    HW274326   0.316   7.566   4.036
57477SOL     OW74327   1.625   9.248   5.592
57477SOL    HW174328   1.716   9.279   5.587
57477SOL    HW274329   1.573   9.322   5.559
57478SOL     OW74330   1.516  12.514   2.133
57478SOL    HW174331   1.528  12.498   2.040
57478SOL    HW274332   1.581  12.458   2.176
57479SOL     OW74333  12.692   0.583  13.191
57479SOL    HW174334  12.676   0.576  13.285
57479SOL    HW274335  12.727   0.672  13.179
57480SOL     OW74336   4.990  11.894   9.151
57480SOL    HW174337   4.927  11.824   9.167
57480SOL    HW274338   5.074  11.860   9.181
57481SOL     OW74339   2.356   5.532   3.979
57481SOL    HW174340   2.354   5.439   3.999
57481SOL    HW274341   2.293   5.571   4.039
57482SOL     OW74342  10.866   5.679   3.073
57482SOL    HW174343  10.883   5.588   3.097
57482SOL    HW274344  10.782   5.699   3.114
57483SOL     OW74345  10.192   6.101   0.056
57483SOL    HW174346  10.102   6.127   0.073
57483SOL    HW274347  10.242   6.132   0.132
57484SOL     OW74348  14.769   3.723  12.618
57484SOL    HW174349  14.837   3.790  12.628
57484SOL    HW274350  14.695   3.756  12.668
57485SOL     OW74351  10.730  11.247   4.395
57485SOL    HW174352  10.739  11.167   4.344
57485SOL    HW274353  10.666  11.299   4.347
57486SOL     OW74354   5.776  13.103  11.431
57486SOL    HW174355   5.758  13.134  11.520
57486SOL    HW274356   5.819  13.018  11.443
57487SOL     OW74357   8.414   4.718   1.373
57487SOL    HW174358   8.482   4.681   1.317
57487SOL    HW274359   8.369   4.782   1.318
57488SOL     OW74360   5.147   0.981   2.656
57488SOL    HW174361   5.182   1.059   2.699
57488SOL    HW274362   5.062   0.968   2.697
57489SOL     OW74363   3.962  13.589  13.098
57489SOL    HW174364   3.938  13.536  13.174
57489SOL    HW274365   3.880  13.632  13.072
57490SOL     OW74366   6.428   1.565   7.297
57490SOL    HW174367   6.421   1.546   7.203
57490SOL    HW274368   6.485   1.641   7.301
57491SOL     OW74369  13.978   3.083   0.135
57491SOL    HW174370  13.975   3.012   0.199
57491SOL    HW274371  13.997   3.161   0.187
57492SOL     OW74372   4.721  12.315   0.825
57492SOL    HW174373   4.690  12.298   0.914
57492SOL    HW274374   4.641  12.339   0.777
57493SOL     OW74375   3.861  10.619   4.957
57493SOL    HW174376   3.883  10.686   5.021
57493SOL    HW274377   3.910  10.644   4.878
57494SOL     OW74378   9.930  12.326   4.183
57494SOL    HW174379   9.921  12.292   4.094
57494SOL    HW274380   9.855  12.384   4.195
57495SOL     OW74381   0.349  14.104   4.638
57495SOL    HW174382   0.280  14.046   4.603
57495SOL    HW274383   0.409  14.045   4.683
57496SOL     OW74384   7.444   3.350   8.468
57496SOL    HW174385   7.396   3.401   8.403
57496SOL    HW274386   7.391   3.270   8.480
57497SOL     OW74387  11.219   0.301  14.879
57497SOL    HW174388  11.164   0.242  14.827
57497SOL    HW274389  11.162   0.376   0.015
57498SOL     OW74390   5.159   6.531  11.913
57498SOL    HW174391   5.146   6.578  11.832
57498SOL    HW274392   5.088   6.561  11.971
57499SOL     OW74393  12.457   9.374   3.766
57499SOL    HW174394  12.527   9.438   3.778
57499SOL    HW274395  12.501   9.289   3.771
57500SOL     OW74396   2.751  10.014   0.706
57500SOL    HW174397   2.719   9.984   0.621
57500SOL    HW274398   2.828   9.960   0.723
57501SOL     OW74399   6.050   7.374   3.798
57501SOL    HW174400   5.981   7.311   3.777
57501SOL    HW274401   6.014   7.424   3.871
57502SOL     OW74402  12.491   3.105  11.142
57502SOL    HW174403  12.479   3.166  11.215
57502SOL    HW274404  12.474   3.019  11.180
57503SOL     OW74405   5.794   2.514   3.270
57503SOL    HW174406   5.789   2.477   3.182
57503SOL    HW274407   5.742   2.594   3.265
57504SOL     OW74408  12.503  13.551   6.963
57504SOL    HW174409  12.439  13.622   6.953
57504SOL    HW274410  12.451  13.475   6.989
57505SOL     OW74411   9.278   5.740  14.229
57505SOL    HW174412   9.209   5.784  14.279
57505SOL    HW274413   9.237   5.658  14.200
57506SOL     OW74414  12.185   8.660   0.700
57506SOL    HW174415  12.222   8.575   0.722
57506SOL    HW274416  12.257   8.722   0.710
57507SOL     OW74417  12.091   3.827   8.341
57507SOL    HW174418  12.178   3.866   8.355
57507SOL    HW274419  12.049   3.885   8.278
57508SOL     OW74420   4.042   5.096   4.099
57508SOL    HW174421   4.029   5.002   4.091
57508SOL    HW274422   4.069   5.124   4.011
57509SOL     OW74423   6.169   9.935   4.852
57509SOL    HW174424   6.255   9.939   4.812
57509SOL    HW274425   6.173   9.996   4.926
57510SOL     OW74426   1.197   2.442   8.288
57510SOL    HW174427   1.157   2.413   8.206
57510SOL    HW274428   1.137   2.509   8.321
57511SOL     OW74429   3.623  13.628   2.822
57511SOL    HW174430   3.533  13.648   2.795
57511SOL    HW274431   3.639  13.684   2.897
57512SOL     OW74432   3.560   7.175   4.533
57512SOL    HW174433   3.468   7.184   4.511
57512SOL    HW274434   3.605   7.226   4.465
57513SOL     OW74435  14.008   3.993   7.174
57513SOL    HW174436  13.944   4.034   7.232
57513SOL    HW274437  14.007   3.901   7.198
57514SOL     OW74438   4.576  12.711   0.378
57514SOL    HW174439   4.665  12.743   0.363
57514SOL    HW274440   4.520  12.786   0.359
57515SOL     OW74441  10.301   8.150  10.163
57515SOL    HW174442  10.341   8.227  10.204
57515SOL    HW274443  10.343   8.144  10.077
57516SOL     OW74444   5.734   8.568   2.334
57516SOL    HW174445   5.693   8.654   2.344
57516SOL    HW274446   5.661   8.506   2.342
57517SOL     OW74447   5.059   5.337   4.070
57517SOL    HW174448   5.047   5.425   4.107
57517SOL    HW274449   5.151   5.335   4.045
57518SOL     OW74450   2.299  10.591  13.673
57518SOL    HW174451   2.388  10.558  13.657
57518SOL    HW274452   2.308  10.686  13.670
57519SOL     OW74453   7.823  13.049   4.441
57519SOL    HW174454   7.862  12.978   4.492
57519SOL    HW274455   7.836  13.024   4.350
57520SOL     OW74456   2.614   0.473   8.193
57520SOL    HW174457   2.665   0.542   8.151
57520SOL    HW274458   2.530   0.514   8.215
57521SOL     OW74459  13.090   0.456   4.739
57521SOL    HW174460  13.156   0.390   4.716
57521SOL    HW274461  13.022   0.445   4.673
57522SOL     OW74462   6.569  14.868   5.246
57522SOL    HW174463   6.610   0.006   5.331
57522SOL    HW274464   6.569  14.772   5.243
57523SOL     OW74465   8.222   8.541   7.569
57523SOL    HW174466   8.240   8.627   7.530
57523SOL    HW274467   8.177   8.561   7.650
57524SOL     OW74468   8.747   0.995   6.683
57524SOL    HW174469   8.835   0.990   6.648
57524SOL    HW274470   8.690   0.980   6.608
57525SOL     OW74471  11.608   0.839   4.001
57525SOL    HW174472  11.644   0.751   4.007
57525SOL    HW274473  11.562   0.852   4.084
57526SOL     OW74474   3.524  10.080  11.853
57526SOL    HW174475   3.593  10.022  11.885
57526SOL    HW274476   3.565  10.167  11.851
57527SOL     OW74477   1.689  13.054   8.074
57527SOL    HW174478   1.722  12.977   8.121
57527SOL    HW274479   1.594  13.048   8.084
57528SOL     OW74480   0.926   1.648   6.533
57528SOL    HW174481   0.834   1.623   6.545
57528SOL    HW274482   0.933   1.734   6.573
57529SOL     OW74483  10.533   1.902  12.515
57529SOL    HW174484  10.564   1.970  12.576
57529SOL    HW274485  10.579   1.922  12.433
57530SOL     OW74486   0.947   0.824   6.589
57530SOL    HW174487   0.857   0.854   6.590
57530SOL    HW274488   0.972   0.818   6.681
57531SOL     OW74489   2.874   1.079   6.230
57531SOL    HW174490   2.953   1.043   6.270
57531SOL    HW274491   2.833   1.005   6.187
57532SOL     OW74492   7.461   4.754  11.548
57532SOL    HW174493   7.430   4.836  11.508
57532SOL    HW274494   7.381   4.711  11.578
57533SOL     OW74495   0.768  10.518   1.407
57533SOL    HW174496   0.853  10.510   1.452
57533SOL    HW274497   0.703  10.501   1.476
57534SOL     OW74498  11.095   5.560   6.671
57534SOL    HW174499  11.153   5.568   6.595
57534SOL    HW274500  11.088   5.465   6.685
57535SOL     OW74501  13.927   5.777   9.638
57535SOL    HW174502  13.928   5.696   9.587
57535SOL    HW274503  13.846   5.821   9.611
57536SOL     OW74504   3.980   8.781   0.037
57536SOL    HW174505   4.054   8.740  14.873
57536SOL    HW274506   3.957   8.718   0.105
57537SOL     OW74507  11.066   1.893   6.334
57537SOL    HW174508  10.990   1.946   6.310
57537SOL    HW274509  11.132   1.957   6.359
57538SOL     OW74510   6.245  11.727   6.460
57538SOL    HW174511   6.181  11.656   6.457
57538SOL    HW274512   6.194  11.806   6.442
57539SOL     OW74513   3.700   4.539  13.861
57539SOL    HW174514   3.668   4.575  13.943
57539SOL    HW274515   3.686   4.444  13.869
57540SOL     OW74516   3.489  12.984  12.699
57540SOL    HW174517   3.439  12.955  12.623
57540SOL    HW274518   3.578  12.995  12.666
57541SOL     OW74519   9.162  11.587  10.637
57541SOL    HW174520   9.172  11.616  10.547
57541SOL    HW274521   9.177  11.666  10.689
57542SOL     OW74522   8.098   5.046   2.141
57542SOL    HW174523   8.039   5.054   2.066
57542SOL    HW274524   8.049   5.084   2.214
57543SOL     OW74525  13.910   7.785   0.949
57543SOL    HW174526  13.860   7.703   0.947
57543SOL    HW274527  13.973   7.777   0.878
57544SOL     OW74528   4.539   4.586   4.078
57544SOL    HW174529   4.545   4.548   4.166
57544SOL    HW274530   4.570   4.676   4.088
57545SOL     OW74531   6.299   4.936  14.620
57545SOL    HW174532   6.317   4.937  14.714
57545SOL    HW274533   6.384   4.914  14.580
57546SOL     OW74534  14.183  11.516   2.317
57546SOL    HW174535  14.141  11.563   2.246
57546SOL    HW274536  14.127  11.439   2.331
57547SOL     OW74537  13.055   4.684   3.626
57547SOL    HW174538  13.015   4.602   3.597
57547SOL    HW274539  12.985   4.748   3.621
57548SOL     OW74540  13.053  13.129   1.720
57548SOL    HW174541  13.006  13.083   1.651
57548SOL    HW274542  13.090  13.060   1.775
57549SOL     OW74543  12.530   5.386  12.422
57549SOL    HW174544  12.580   5.467  12.410
57549SOL    HW274545  12.541   5.338  12.340
57550SOL     OW74546   6.582  12.573  14.140
57550SOL    HW174547   6.522  12.502  14.120
57550SOL    HW274548   6.645  12.535  14.201
57551SOL     OW74549   1.259   7.665  13.735
57551SOL    HW174550   1.249   7.656  13.829
57551SOL    HW274551   1.171   7.649  13.700
57552SOL     OW74552   8.353  13.971   3.555
57552SOL    HW174553   8.338  13.923   3.473
57552SOL    HW274554   8.442  14.005   3.546
57553SOL     OW74555   3.653   6.689  12.845
57553SOL    HW174556   3.657   6.728  12.757
57553SOL    HW274557   3.744   6.667  12.865
57554SOL     OW74558   7.451   2.068   9.036
57554SOL    HW174559   7.381   2.055   8.973
57554SOL    HW274560   7.523   2.105   8.985
57555SOL     OW74561   9.040   7.751   8.500
57555SOL    HW174562   9.030   7.810   8.575
57555SOL    HW274563   8.957   7.757   8.453
57556SOL     OW74564   1.675   5.661   7.281
57556SOL    HW174565   1.729   5.594   7.323
57556SOL    HW274566   1.595   5.664   7.334
57557SOL     OW74567   9.253  14.879   6.203
57557SOL    HW174568   9.321   0.064   6.198
57557SOL    HW274569   9.293  14.807   6.251
57558SOL     OW74570   5.570  14.603   7.401
57558SOL    HW174571   5.569  14.549   7.480
57558SOL    HW274572   5.624  14.679   7.423
57559SOL     OW74573  12.386   1.044   5.647
57559SOL    HW174574  12.368   0.951   5.657
57559SOL    HW274575  12.313   1.077   5.595
57560SOL     OW74576   0.264   1.870  14.374
57560SOL    HW174577   0.360   1.869  14.368
57560SOL    HW274578   0.242   1.782  14.404
57561SOL     OW74579   4.856  14.118   7.338
57561SOL    HW174580   4.810  14.104   7.256
57561SOL    HW274581   4.948  14.103   7.318
57562SOL     OW74582  10.423   3.573   5.258
57562SOL    HW174583  10.476   3.522   5.196
57562SOL    HW274584  10.384   3.642   5.205
57563SOL     OW74585  10.972   1.904  11.792
57563SOL    HW174586  10.906   1.873  11.854
57563SOL    HW274587  11.054   1.903  11.842
57564SOL     OW74588   2.256   8.349   8.647
57564SOL    HW174589   2.201   8.371   8.572
57564SOL    HW274590   2.263   8.254   8.645
57565SOL     OW74591   8.395   9.856   3.376
57565SOL    HW174592   8.312   9.902   3.375
57565SOL    HW274593   8.457   9.917   3.415
57566SOL     OW74594  13.881  12.682   1.772
57566SOL    HW174595  13.946  12.636   1.718
57566SOL    HW274596  13.925  12.762   1.800
57567SOL     OW74597   4.083  10.265  11.094
57567SOL    HW174598   4.151  10.222  11.041
57567SOL    HW274599   4.006  10.209  11.084
57568SOL     OW74600  12.192   3.040  12.381
57568SOL    HW174601  12.282   3.028  12.411
57568SOL    HW274602  12.197   3.113  12.319
57569SOL     OW74603   5.143   0.157   2.871
57569SOL    HW174604   5.200   0.124   2.940
57569SOL    HW274605   5.084   0.217   2.916
57570SOL     OW74606   3.232   0.291   1.310
57570SOL    HW174607   3.231   0.373   1.360
57570SOL    HW274608   3.149   0.292   1.262
57571SOL     OW74609   5.282  11.571  11.258
57571SOL    HW174610   5.283  11.570  11.163
57571SOL    HW274611   5.371  11.595  11.283
57572SOL     OW74612  14.492   4.880   5.988
57572SOL    HW174613  14.428   4.851   5.923
57572SOL    HW274614  14.493   4.976   5.980
57573SOL     OW74615  10.268   3.407   4.262
57573SOL    HW174616  10.321   3.348   4.209
57573SOL    HW274617  10.311   3.408   4.348
57574SOL     OW74618   8.501   7.572   4.670
57574SOL    HW174619   8.593   7.545   4.678
57574SOL    HW274620   8.478   7.605   4.757
57575SOL     OW74621  10.668   6.086   5.383
57575SOL    HW174622  10.689   6.179   5.385
57575SOL    HW274623  10.701   6.055   5.299
57576SOL     OW74624  13.396   1.921  11.635
57576SOL    HW174625  13.385   1.980  11.710
57576SOL    HW274626  13.323   1.860  11.643
57577SOL     OW74627   3.788   7.129   3.571
57577SOL    HW174628   3.803   7.111   3.664
57577SOL    HW274629   3.761   7.221   3.568
57578SOL     OW74630  11.882  12.322  12.583
57578SOL    HW174631  11.946  12.335  12.653
57578SOL    HW274632  11.935  12.307  12.504
57579SOL     OW74633   7.109  12.446   3.966
57579SOL    HW174634   7.089  12.456   3.873
57579SOL    HW274635   7.193  12.489   3.978
57580SOL     OW74636   4.997   3.607  14.779
57580SOL    HW174637   4.994   3.572  14.690
57580SOL    HW274638   4.960   3.537  14.833
57581SOL     OW74639   2.511   1.010   3.676
57581SOL    HW174640   2.459   0.934   3.703
57581SOL    HW274641   2.593   1.002   3.725
57582SOL     OW74642   8.162   5.841   5.681
57582SOL    HW174643   8.233   5.778   5.686
57582SOL    HW274644   8.204   5.922   5.651
57583SOL     OW74645   3.287   4.646  14.092
57583SOL    HW174646   3.318   4.714  14.152
57583SOL    HW274647   3.195   4.633  14.117
57584SOL     OW74648  11.654   4.905   9.305
57584SOL    HW174649  11.578   4.950   9.341
57584SOL    HW274650  11.714   4.975   9.281
57585SOL     OW74651   3.331   1.119   8.874
57585SOL    HW174652   3.246   1.092   8.839
57585SOL    HW274653   3.394   1.093   8.806
57586SOL     OW74654   2.738  11.877   3.915
57586SOL    HW174655   2.766  11.800   3.864
57586SOL    HW274656   2.677  11.842   3.980
57587SOL     OW74657  14.086   0.986   7.976
57587SOL    HW174658  14.028   1.028   7.913
57587SOL    HW274659  14.120   0.910   7.929
57588SOL     OW74660   5.290   3.493  10.394
57588SOL    HW174661   5.312   3.547  10.470
57588SOL    HW274662   5.233   3.425  10.430
57589SOL     OW74663  11.176  13.512  10.512
57589SOL    HW174664  11.191  13.538  10.603
57589SOL    HW274665  11.197  13.419  10.510
57590SOL     OW74666   6.483   6.680   9.243
57590SOL    HW174667   6.405   6.649   9.288
57590SOL    HW274668   6.484   6.630   9.161
57591SOL     OW74669   2.933   4.291   9.943
57591SOL    HW174670   2.877   4.361   9.910
57591SOL    HW274671   2.897   4.211   9.902
57592SOL     OW74672   9.783   4.228  10.443
57592SOL    HW174673   9.788   4.281  10.363
57592SOL    HW274674   9.696   4.188  10.440
57593SOL     OW74675  14.780  14.475   0.703
57593SOL    HW174676  14.825  14.522   0.773
57593SOL    HW274677  14.807  14.384   0.714
57594SOL     OW74678   8.591   6.835   6.027
57594SOL    HW174679   8.523   6.778   6.063
57594SOL    HW274680   8.555   6.923   6.034
57595SOL     OW74681  12.136   2.597   2.644
57595SOL    HW174682  12.180   2.617   2.727
57595SOL    HW274683  12.072   2.666   2.634
57596SOL     OW74684   8.151   3.106   7.624
57596SOL    HW174685   8.135   3.187   7.674
57596SOL    HW274686   8.216   3.131   7.558
57597SOL     OW74687   8.693   2.412   5.743
57597SOL    HW174688   8.718   2.440   5.832
57597SOL    HW274689   8.746   2.334   5.727
57598SOL     OW74690  12.171   5.852  13.087
57598SOL    HW174691  12.213   5.928  13.045
57598SOL    HW274692  12.114   5.816  13.019
57599SOL     OW74693   8.299   7.765  14.497
57599SOL    HW174694   8.265   7.817  14.425
57599SOL    HW274695   8.287   7.821  14.574
57600SOL     OW74696   1.640  11.178   2.182
57600SOL    HW174697   1.683  11.150   2.101
57600SOL    HW274698   1.612  11.096   2.223
57601SOL     OW74699  13.157   9.761   6.218
57601SOL    HW174700  13.218   9.703   6.173
57601SOL    HW274701  13.078   9.709   6.228
57602SOL     OW74702   9.194   8.706  14.738
57602SOL    HW174703   9.109   8.750  14.732
57602SOL    HW274704   9.248   8.748  14.671
57603SOL     OW74705  14.646  13.103   3.142
57603SOL    HW174706  14.734  13.074   3.168
57603SOL    HW274707  14.607  13.026   3.102
57604SOL     OW74708   6.530   8.964  12.476
57604SOL    HW174709   6.485   9.017  12.410
57604SOL    HW274710   6.585   8.904  12.424
57605SOL     OW74711  10.511  12.453  10.396
57605SOL    HW174712  10.418  12.433  10.405
57605SOL    HW274713  10.521  12.540  10.435
57606SOL     OW74714   3.078  13.872  12.680
57606SOL    HW174715   3.095  13.890  12.588
57606SOL    HW274716   3.098  13.954  12.725
57607SOL     OW74717   3.712   2.134   7.805
57607SOL    HW174718   3.677   2.206   7.857
57607SOL    HW274719   3.754   2.177   7.730
57608SOL     OW74720   3.288  13.324   8.593
57608SOL    HW174721   3.277  13.358   8.682
57608SOL    HW274722   3.221  13.256   8.585
57609SOL     OW74723   9.159   9.418  13.989
57609SOL    HW174724   9.211   9.456  13.918
57609SOL    HW274725   9.086   9.376  13.944
57610SOL     OW74726  14.627  11.451   4.108
57610SOL    HW174727  14.654  11.535   4.145
57610SOL    HW274728  14.709  11.408   4.085
57611SOL     OW74729   3.057   7.647   3.604
57611SOL    HW174730   2.983   7.598   3.567
57611SOL    HW274731   3.124   7.580   3.621
57612SOL     OW74732  10.917   2.026  12.515
57612SOL    HW174733  10.941   1.967  12.586
57612SOL    HW274734  10.925   2.114  12.552
57613SOL     OW74735  11.482   7.698  12.916
57613SOL    HW174736  11.387   7.687  12.904
57613SOL    HW274737  11.514   7.609  12.930
57614SOL     OW74738  12.331   9.144  10.068
57614SOL    HW174739  12.414   9.107  10.040
57614SOL    HW274740  12.268   9.073  10.057
57615SOL     OW74741  11.935   8.463  12.936
57615SOL    HW174742  11.921   8.521  12.861
57615SOL    HW274743  11.984   8.389  12.900
57616SOL     OW74744  14.061   2.560   6.811
57616SOL    HW174745  14.044   2.466   6.800
57616SOL    HW274746  14.087   2.590   6.723
57617SOL     OW74747   2.839   9.267   1.424
57617SOL    HW174748   2.827   9.248   1.331
57617SOL    HW274749   2.751   9.258   1.462
57618SOL     OW74750  11.154  12.130  14.392
57618SOL    HW174751  11.120  12.220  14.393
57618SOL    HW274752  11.142  12.099  14.482
57619SOL     OW74753   8.667  12.523  11.003
57619SOL    HW174754   8.605  12.456  11.034
57619SOL    HW274755   8.634  12.548  10.917
57620SOL     OW74756   5.032   6.725  14.673
57620SOL    HW174757   5.088   6.803  14.677
57620SOL    HW274758   5.072   6.670  14.606
57621SOL     OW74759   3.651  12.759   2.267
57621SOL    HW174760   3.670  12.823   2.335
57621SOL    HW274761   3.632  12.812   2.189
57622SOL     OW74762   9.048   9.604  12.526
57622SOL    HW174763   8.992   9.601  12.449
57622SOL    HW274764   9.000   9.658  12.588
57623SOL     OW74765   3.798   7.285   8.111
57623SOL    HW174766   3.827   7.210   8.164
57623SOL    HW274767   3.858   7.355   8.135
57624SOL     OW74768  12.039   3.878   4.350
57624SOL    HW174769  12.026   3.892   4.256
57624SOL    HW274770  12.118   3.927   4.370
57625SOL     OW74771   0.537   2.614  11.062
57625SOL    HW174772   0.585   2.618  11.145
57625SOL    HW274773   0.555   2.699  11.020
57626SOL     OW74774  12.839   3.028   8.515
57626SOL    HW174775  12.908   3.022   8.581
57626SOL    HW274776  12.760   2.997   8.559
57627SOL     OW74777  11.747  14.423   4.421
57627SOL    HW174778  11.729  14.503   4.372
57627SOL    HW274779  11.671  14.368   4.406
57628SOL     OW74780   0.419  14.603  13.209
57628SOL    HW174781   0.470  14.643  13.138
57628SOL    HW274782   0.345  14.662  13.221
57629SOL     OW74783   4.145  11.581   0.808
57629SOL    HW174784   4.223  11.637   0.800
57629SOL    HW274785   4.160  11.510   0.745
57630SOL     OW74786   6.868   0.911   7.407
57630SOL    HW174787   6.830   0.998   7.415
57630SOL    HW274788   6.811   0.854   7.459
57631SOL     OW74789   9.315  13.708   8.839
57631SOL    HW174790   9.336  13.651   8.912
57631SOL    HW274791   9.401  13.738   8.807
57632SOL     OW74792   4.446   1.187   9.897
57632SOL    HW174793   4.476   1.210   9.985
57632SOL    HW274794   4.422   1.095   9.902
57633SOL     OW74795  11.111   3.481   2.110
57633SOL    HW174796  11.177   3.545   2.080
57633SOL    HW274797  11.094   3.506   2.201
57634SOL     OW74798   4.085   3.372   3.329
57634SOL    HW174799   4.106   3.343   3.240
57634SOL    HW274800   4.012   3.317   3.356
57635SOL     OW74801   5.528   3.999  10.922
57635SOL    HW174802   5.477   4.042  10.855
57635SOL    HW274803   5.613   3.982  10.881
57636SOL     OW74804   0.185  11.869   5.698
57636SOL    HW174805   0.124  11.900   5.631
57636SOL    HW274806   0.200  11.777   5.676
57637SOL     OW74807   1.702   9.743   2.012
57637SOL    HW174808   1.771   9.687   1.976
57637SOL    HW274809   1.711   9.826   1.966
57638SOL     OW74810   3.367   1.876  12.596
57638SOL    HW174811   3.385   1.830  12.678
57638SOL    HW274812   3.314   1.814  12.546
57639SOL     OW74813  10.436  12.149   8.829
57639SOL    HW174814  10.465  12.225   8.880
57639SOL    HW274815  10.485  12.075   8.866
57640SOL     OW74816   0.281   9.835   6.139
57640SOL    HW174817   0.309   9.746   6.118
57640SOL    HW274818   0.298   9.844   6.233
57641SOL     OW74819  11.984  10.659   4.973
57641SOL    HW174820  11.996  10.641   4.880
57641SOL    HW274821  11.990  10.573   5.015
57642SOL     OW74822  13.407   5.990   6.262
57642SOL    HW174823  13.369   5.971   6.177
57642SOL    HW274824  13.452   6.074   6.251
57643SOL     OW74825  12.709   1.430  11.433
57643SOL    HW174826  12.704   1.461  11.342
57643SOL    HW274827  12.764   1.495  11.477
57644SOL     OW74828   6.607   5.782  11.492
57644SOL    HW174829   6.573   5.865  11.459
57644SOL    HW274830   6.545   5.756  11.561
57645SOL     OW74831   6.356   9.916   0.531
57645SOL    HW174832   6.384  10.005   0.511
57645SOL    HW274833   6.266   9.912   0.498
57646SOL     OW74834   1.420   5.894  13.650
57646SOL    HW174835   1.491   5.866  13.592
57646SOL    HW274836   1.461   5.903  13.736
57647SOL     OW74837   7.771  14.495  12.218
57647SOL    HW174838   7.848  14.490  12.274
57647SOL    HW274839   7.805  14.493  12.129
57648SOL     OW74840  11.093  12.539  14.810
57648SOL    HW174841  11.167  12.571  14.861
57648SOL    HW274842  11.074  12.453  14.846
57649SOL     OW74843   0.131   8.157  10.291
57649SOL    HW174844   0.045   8.169  10.331
57649SOL    HW274845   0.117   8.094  10.221
57650SOL     OW74846   7.813  11.121   5.053
57650SOL    HW174847   7.781  11.197   5.005
57650SOL    HW274848   7.894  11.096   5.008
57651SOL     OW74849   4.282   0.188   3.908
57651SOL    HW174850   4.256   0.138   3.831
57651SOL    HW274851   4.222   0.263   3.910
57652SOL     OW74852   8.593   4.604  12.492
57652SOL    HW174853   8.679   4.613  12.450
57652SOL    HW274854   8.613   4.590  12.585
57653SOL     OW74855  10.593   5.458   1.807
57653SOL    HW174856  10.573   5.509   1.729
57653SOL    HW274857  10.510   5.453   1.855
57654SOL     OW74858   2.202   0.013  10.607
57654SOL    HW174859   2.126   0.059  10.572
57654SOL    HW274860   2.203   0.036  10.700
57655SOL     OW74861  11.404   8.704   2.364
57655SOL    HW174862  11.336   8.712   2.430
57655SOL    HW274863  11.358   8.683   2.283
57656SOL     OW74864   9.659   4.969  10.921
57656SOL    HW174865   9.661   4.888  10.871
57656SOL    HW274866   9.731   5.021  10.886
57657SOL     OW74867   9.701   2.615   2.764
57657SOL    HW174868   9.653   2.690   2.728
57657SOL    HW274869   9.651   2.590   2.842
57658SOL     OW74870   6.496  12.219   8.923
57658SOL    HW174871   6.507  12.138   8.874
57658SOL    HW274872   6.401  12.226   8.936
57659SOL     OW74873   0.105   8.833   1.669
57659SOL    HW174874   0.102   8.799   1.759
57659SOL    HW274875   0.166   8.775   1.623
57660SOL     OW74876   7.689   3.161   0.228
57660SOL    HW174877   7.737   3.173   0.311
57660SOL    HW274878   7.709   3.240   0.178
57661SOL     OW74879  11.416  10.867   9.743
57661SOL    HW174880  11.424  10.884   9.649
57661SOL    HW274881  11.504  10.878   9.777
57662SOL     OW74882   7.300  13.828   9.554
57662SOL    HW174883   7.315  13.740   9.587
57662SOL    HW274884   7.313  13.821   9.459
57663SOL     OW74885  10.465   5.895  10.755
57663SOL    HW174886  10.461   5.933  10.843
57663SOL    HW274887  10.557   5.875  10.742
57664SOL     OW74888  12.028   9.672  13.381
57664SOL    HW174889  12.104   9.692  13.327
57664SOL    HW274890  12.006   9.756  13.423
57665SOL     OW74891  13.432  13.241   3.070
57665SOL    HW174892  13.459  13.329   3.044
57665SOL    HW274893  13.338  13.248   3.085
57666SOL     OW74894   5.434  11.464   1.824
57666SOL    HW174895   5.406  11.380   1.788
57666SOL    HW274896   5.353  11.515   1.830
57667SOL     OW74897  11.863  14.767  12.955
57667SOL    HW174898  11.951  14.803  12.964
57667SOL    HW274899  11.869  14.707  12.881
57668SOL     OW74900  13.609   1.649   1.145
57668SOL    HW174901  13.698   1.675   1.121
57668SOL    HW274902  13.614   1.632   1.239
57669SOL     OW74903   5.097   9.832   9.268
57669SOL    HW174904   5.135   9.753   9.228
57669SOL    HW274905   5.137   9.836   9.355
57670SOL     OW74906   8.333  10.713   3.600
57670SOL    HW174907   8.334  10.808   3.609
57670SOL    HW274908   8.377  10.697   3.516
57671SOL     OW74909   5.246   0.765   8.566
57671SOL    HW174910   5.221   0.790   8.477
57671SOL    HW274911   5.166   0.775   8.617
57672SOL     OW74912   7.383   6.909   5.502
57672SOL    HW174913   7.369   6.927   5.409
57672SOL    HW274914   7.449   6.973   5.529
57673SOL     OW74915   3.059   8.249   2.620
57673SOL    HW174916   3.061   8.340   2.649
57673SOL    HW274917   3.002   8.206   2.683
57674SOL     OW74918  10.825  13.378  13.909
57674SOL    HW174919  10.822  13.363  13.815
57674SOL    HW274920  10.771  13.309  13.947
57675SOL     OW74921   1.879   2.912   0.253
57675SOL    HW174922   1.811   2.949   0.196
57675SOL    HW274923   1.936   2.863   0.193
57676SOL     OW74924   1.129   6.567   7.545
57676SOL    HW174925   1.209   6.616   7.528
57676SOL    HW274926   1.156   6.497   7.605
57677SOL     OW74927   2.926  14.626   9.345
57677SOL    HW174928   3.015  14.637   9.379
57677SOL    HW274929   2.878  14.589   9.419
57678SOL     OW74930   8.915  13.519  12.457
57678SOL    HW174931   8.991  13.521  12.400
57678SOL    HW274932   8.927  13.594  12.515
57679SOL     OW74933  11.715  12.270  14.365
57679SOL    HW174934  11.620  12.259  14.367
57679SOL    HW274935  11.734  12.300  14.276
57680SOL     OW74936   9.057   6.437   8.570
57680SOL    HW174937   9.052   6.513   8.628
57680SOL    HW274938   8.969   6.401   8.569
57681SOL     OW74939  13.833   0.367   9.642
57681SOL    HW174940  13.912   0.335   9.685
57681SOL    HW274941  13.857   0.452   9.606
57682SOL     OW74942  14.432   2.118   2.492
57682SOL    HW174943  14.525   2.141   2.494
57682SOL    HW274944  14.418   2.065   2.571
57683SOL     OW74945  14.440  11.589   2.826
57683SOL    HW174946  14.506  11.551   2.768
57683SOL    HW274947  14.448  11.539   2.908
57684SOL     OW74948  10.262  10.652   9.659
57684SOL    HW174949  10.211  10.699   9.725
57684SOL    HW274950  10.196  10.609   9.604
57685SOL     OW74951  11.183   5.825   2.779
57685SOL    HW174952  11.277   5.828   2.767
57685SOL    HW274953  11.160   5.733   2.770
57686SOL     OW74954  10.984   3.038   4.605
57686SOL    HW174955  11.047   3.099   4.642
57686SOL    HW274956  10.969   3.070   4.516
57687SOL     OW74957  11.791   0.511  10.654
57687SOL    HW174958  11.708   0.506  10.607
57687SOL    HW274959  11.794   0.600  10.690
57688SOL     OW74960   1.626  14.876   0.816
57688SOL    HW174961   1.660  14.882   0.906
57688SOL    HW274962   1.660  14.793   0.783
57689SOL     OW74963   1.060   3.056   1.484
57689SOL    HW174964   1.077   3.141   1.443
57689SOL    HW274965   1.013   3.007   1.417
57690SOL     OW74966   4.909  10.476   5.279
57690SOL    HW174967   4.915  10.383   5.259
57690SOL    HW274968   4.930  10.520   5.197
57691SOL     OW74969  14.047   7.582   8.791
57691SOL    HW174970  14.052   7.493   8.755
57691SOL    HW274971  13.955   7.594   8.814
57692SOL     OW74972   5.793   6.631   5.996
57692SOL    HW174973   5.708   6.587   6.003
57692SOL    HW274974   5.818   6.649   6.086
57693SOL     OW74975   4.509   8.098   5.124
57693SOL    HW174976   4.535   8.176   5.173
57693SOL    HW274977   4.418   8.084   5.148
57694SOL     OW74978   0.717   2.653  13.950
57694SOL    HW174979   0.626   2.638  13.926
57694SOL    HW274980   0.721   2.745  13.976
57695SOL     OW74981   8.323   3.776  14.019
57695SOL    HW174982   8.300   3.696  14.065
57695SOL    HW274983   8.241   3.806  13.980
57696SOL     OW74984  13.579  12.692  10.305
57696SOL    HW174985  13.667  12.660  10.323
57696SOL    HW274986  13.592  12.767  10.247
57697SOL     OW74987   5.184   0.935  13.739
57697SOL    HW174988   5.123   0.980  13.681
57697SOL    HW274989   5.270   0.949  13.700
57698SOL     OW74990   1.796   2.659   1.026
57698SOL    HW174991   1.805   2.754   1.018
57698SOL    HW274992   1.802   2.642   1.120
57699SOL     OW74993  13.232   8.699  12.631
57699SOL    HW174994  13.232   8.795  12.629
57699SOL    HW274995  13.150   8.674  12.591
57700SOL     OW74996   3.984   5.978   8.371
57700SOL    HW174997   3.968   5.994   8.278
57700SOL    HW274998   3.988   5.882   8.379
57701SOL     OW74999  12.237  14.516  13.745
57701SOL    HW175000  12.178  14.527  13.819
57701SOL    HW275001  12.260  14.423  13.747
57702SOL     OW75002  10.048  12.507   3.801
57702SOL    HW175003   9.968  12.557   3.816
57702SOL    HW275004  10.049  12.493   3.706
57703SOL     OW75005  13.527   0.403   0.071
57703SOL    HW175006  13.575   0.362   0.143
57703SOL    HW275007  13.436   0.406   0.101
57704SOL     OW75008   7.912   1.322   6.288
57704SOL    HW175009   7.958   1.238   6.296
57704SOL    HW275010   7.981   1.388   6.286
57705SOL     OW75011   3.708  12.369   6.354
57705SOL    HW175012   3.620  12.346   6.323
57705SOL    HW275013   3.763  12.297   6.324
57706SOL     OW75014  13.647   5.777  13.861
57706SOL    HW175015  13.647   5.747  13.770
57706SOL    HW275016  13.555   5.797  13.880
57707SOL     OW75017  14.584   4.294   5.527
57707SOL    HW175018  14.608   4.232   5.458
57707SOL    HW275019  14.517   4.248   5.578
57708SOL     OW75020   0.576  14.594   7.776
57708SOL    HW175021   0.631  14.579   7.852
57708SOL    HW275022   0.513  14.660   7.805
57709SOL     OW75023   1.112   3.148  11.897
57709SOL    HW175024   1.091   3.133  11.989
57709SOL    HW275025   1.075   3.072  11.851
57710SOL     OW75026   8.089   7.533   3.639
57710SOL    HW175027   8.168   7.493   3.604
57710SOL    HW275028   8.062   7.596   3.573
57711SOL     OW75029  12.386  10.638   7.113
57711SOL    HW175030  12.309  10.684   7.080
57711SOL    HW275031  12.433  10.611   7.034
57712SOL     OW75032  11.624  11.756   1.785
57712SOL    HW175033  11.588  11.811   1.715
57712SOL    HW275034  11.579  11.785   1.864
57713SOL     OW75035   3.121   1.602  13.300
57713SOL    HW175036   3.085   1.526  13.345
57713SOL    HW275037   3.216   1.596  13.314
57714SOL     OW75038   6.374  14.594  10.842
57714SOL    HW175039   6.341  14.529  10.780
57714SOL    HW275040   6.469  14.589  10.835
57715SOL     OW75041   2.396  11.745   4.907
57715SOL    HW175042   2.401  11.656   4.872
57715SOL    HW275043   2.448  11.797   4.846
57716SOL     OW75044  10.936  12.696   9.325
57716SOL    HW175045  10.888  12.762   9.276
57716SOL    HW275046  10.942  12.732   9.414
57717SOL     OW75047   3.294   5.741   2.764
57717SOL    HW175048   3.320   5.832   2.749
57717SOL    HW275049   3.198   5.744   2.762
57718SOL     OW75050  14.797   4.285  10.815
57718SOL    HW175051  14.819   4.220  10.881
57718SOL    HW275052  14.767   4.234  10.739
57719SOL     OW75053  14.599   9.681   1.999
57719SOL    HW175054  14.526   9.743   2.010
57719SOL    HW275055  14.677   9.731   2.023
57720SOL     OW75056   2.604   7.179  11.129
57720SOL    HW175057   2.638   7.117  11.064
57720SOL    HW275058   2.511   7.188  11.107
57721SOL     OW75059  13.659   0.068   2.764
57721SOL    HW175060  13.662  14.878   2.827
57721SOL    HW275061  13.723   0.044   2.697
57722SOL     OW75062   4.627   6.462  13.851
57722SOL    HW175063   4.630   6.536  13.790
57722SOL    HW275064   4.719   6.449  13.877
57723SOL     OW75065   3.875   6.098  11.015
57723SOL    HW175066   3.800   6.129  11.066
57723SOL    HW275067   3.932   6.174  11.006
57724SOL     OW75068  13.056  11.085   3.221
57724SOL    HW175069  13.046  11.088   3.316
57724SOL    HW275070  13.149  11.069   3.206
57725SOL     OW75071   9.577   3.523   1.393
57725SOL    HW175072   9.592   3.491   1.482
57725SOL    HW275073   9.503   3.584   1.402
57726SOL     OW75074   6.808  11.995   7.412
57726SOL    HW175075   6.743  11.950   7.358
57726SOL    HW275076   6.877  12.021   7.351
57727SOL     OW75077   2.869  11.214  13.924
57727SOL    HW175078   2.896  11.262  14.002
57727SOL    HW275079   2.781  11.184  13.943
57728SOL     OW75080   3.453   3.473   8.730
57728SOL    HW175081   3.484   3.513   8.648
57728SOL    HW275082   3.430   3.547   8.786
57729SOL     OW75083   5.487   5.333   5.686
57729SOL    HW175084   5.524   5.371   5.606
57729SOL    HW275085   5.499   5.401   5.753
57730SOL     OW75086   7.799   4.572   3.456
57730SOL    HW175087   7.825   4.664   3.448
57730SOL    HW275088   7.837   4.544   3.539
57731SOL     OW75089  10.096   2.397  13.967
57731SOL    HW175090  10.136   2.339  14.031
57731SOL    HW275091  10.161   2.467  13.954
57732SOL     OW75092   7.188   4.847   4.289
57732SOL    HW175093   7.172   4.891   4.372
57732SOL    HW275094   7.174   4.914   4.222
57733SOL     OW75095   3.767   5.671   2.921
57733SOL    HW175096   3.810   5.726   2.856
57733SOL    HW275097   3.675   5.694   2.915
57734SOL     OW75098   6.330   3.564   1.425
57734SOL    HW175099   6.314   3.642   1.372
57734SOL    HW275100   6.384   3.595   1.498
57735SOL     OW75101   2.220   1.965   3.054
57735SOL    HW175102   2.203   1.900   2.986
57735SOL    HW275103   2.145   2.024   3.051
57736SOL     OW75104   1.271   0.215   8.564
57736SOL    HW175105   1.243   0.294   8.517
57736SOL    HW275106   1.199   0.197   8.624
57737SOL     OW75107  14.860   2.546  14.320
57737SOL    HW175108  14.871   2.640  14.307
57737SOL    HW275109  14.802   2.518  14.249
57738SOL     OW75110  10.632   5.950   2.941
57738SOL    HW175111  10.713   5.969   2.989
57738SOL    HW275112  10.662   5.907   2.860
57739SOL     OW75113   0.056   2.727   4.327
57739SOL    HW175114  14.850   2.732   4.290
57739SOL    HW275115   0.079   2.634   4.320
57740SOL     OW75116   3.625   0.715   1.304
57740SOL    HW175117   3.646   0.803   1.334
57740SOL    HW275118   3.626   0.722   1.208
57741SOL     OW75119   9.510   5.724  12.505
57741SOL    HW175120   9.594   5.742  12.547
57741SOL    HW275121   9.448   5.716  12.577
57742SOL     OW75122  14.524   3.924  11.838
57742SOL    HW175123  14.538   4.017  11.822
57742SOL    HW275124  14.473   3.894  11.763
57743SOL     OW75125  11.783   0.961   9.285
57743SOL    HW175126  11.856   0.913   9.325
57743SOL    HW275127  11.789   1.049   9.322
57744SOL     OW75128  10.887   0.367   4.343
57744SOL    HW175129  10.864   0.277   4.317
57744SOL    HW275130  10.982   0.368   4.344
57745SOL     OW75131   0.011   5.609   3.854
57745SOL    HW175132   0.021   5.515   3.838
57745SOL    HW275133   0.011   5.648   3.767
57746SOL     OW75134   0.864   0.498   8.125
57746SOL    HW175135   0.782   0.542   8.103
57746SOL    HW275136   0.872   0.508   8.220
57747SOL     OW75137   0.087  12.703   0.729
57747SOL    HW175138   0.100  12.656   0.811
57747SOL    HW275139   0.078  12.794   0.754
57748SOL     OW75140  12.897   6.555   3.130
57748SOL    HW175141  12.953   6.478   3.121
57748SOL    HW275142  12.951   6.627   3.097
57749SOL     OW75143   9.806  14.665   1.409
57749SOL    HW175144   9.778  14.599   1.345
57749SOL    HW275145   9.802  14.748   1.362
57750SOL     OW75146  14.146   3.445  11.723
57750SOL    HW175147  14.061   3.462  11.682
57750SOL    HW275148  14.125   3.394  11.801
57751SOL     OW75149  12.873   1.630  11.456
57751SOL    HW175150  12.942   1.667  11.401
57751SOL    HW275151  12.918   1.598  11.534
57752SOL     OW75152   9.912   8.964  14.229
57752SOL    HW175153   9.893   9.057  14.235
57752SOL    HW275154   9.829   8.924  14.203
57753SOL     OW75155   1.183   0.621  11.640
57753SOL    HW175156   1.121   0.549  11.630
57753SOL    HW275157   1.254   0.586  11.692
57754SOL     OW75158   7.037  10.776   1.214
57754SOL    HW175159   7.035  10.738   1.301
57754SOL    HW275160   7.038  10.701   1.154
57755SOL     OW75161   4.042   9.647  14.170
57755SOL    HW175162   4.030   9.694  14.252
57755SOL    HW275163   3.988   9.694  14.107
57756SOL     OW75164   9.357   5.374   8.258
57756SOL    HW175165   9.440   5.421   8.254
57756SOL    HW275166   9.323   5.377   8.168
57757SOL     OW75167   4.340   9.174  13.784
57757SOL    HW175168   4.344   9.268  13.768
57757SOL    HW275169   4.333   9.166  13.879
57758SOL     OW75170   4.539  13.378  11.053
57758SOL    HW175171   4.585  13.421  11.125
57758SOL    HW275172   4.449  13.410  11.059
57759SOL     OW75173  14.249   1.320   9.381
57759SOL    HW175174  14.261   1.255   9.312
57759SOL    HW275175  14.329   1.315   9.433
57760SOL     OW75176  10.274   9.202  13.312
57760SOL    HW175177  10.334   9.176  13.382
57760SOL    HW275178  10.294   9.295  13.297
57761SOL     OW75179   1.792   0.784  11.125
57761SOL    HW175180   1.719   0.810  11.069
57761SOL    HW275181   1.862   0.847  11.106
57762SOL     OW75182   5.461  14.512   4.012
57762SOL    HW175183   5.401  14.447   4.047
57762SOL    HW275184   5.441  14.592   4.060
57763SOL     OW75185  14.802   7.980   2.586
57763SOL    HW175186  14.773   8.004   2.498
57763SOL    HW275187  14.723   7.948   2.630
57764SOL     OW75188  13.303  14.829   6.623
57764SOL    HW175189  13.263  14.779   6.695
57764SOL    HW275190  13.230  14.879   6.586
57765SOL     OW75191   3.703   6.847  13.289
57765SOL    HW175192   3.622   6.841  13.239
57765SOL    HW275193   3.716   6.940  13.303
57766SOL     OW75194   2.689  14.269   8.650
57766SOL    HW175195   2.642  14.350   8.668
57766SOL    HW275196   2.627  14.215   8.602
57767SOL     OW75197   5.405  12.334   6.132
57767SOL    HW175198   5.435  12.357   6.044
57767SOL    HW275199   5.316  12.302   6.119
57768SOL     OW75200  10.690   7.047   9.585
57768SOL    HW175201  10.703   6.952   9.590
57768SOL    HW275202  10.741   7.075   9.509
57769SOL     OW75203   8.794   4.356   5.445
57769SOL    HW175204   8.841   4.345   5.527
57769SOL    HW275205   8.748   4.439   5.454
57770SOL     OW75206   3.142  13.931   3.629
57770SOL    HW175207   3.074  13.880   3.674
57770SOL    HW275208   3.163  14.001   3.691
57771SOL     OW75209   2.384  10.758   0.339
57771SOL    HW175210   2.344  10.729   0.257
57771SOL    HW275211   2.377  10.683   0.398
57772SOL     OW75212  10.023  12.746  13.727
57772SOL    HW175213   9.953  12.683  13.745
57772SOL    HW275214   9.993  12.827  13.767
57773SOL     OW75215  12.909  10.078  11.745
57773SOL    HW175216  12.998  10.050  11.768
57773SOL    HW275217  12.914  10.173  11.741
57774SOL     OW75218  12.496   4.174  10.494
57774SOL    HW175219  12.444   4.124  10.557
57774SOL    HW275220  12.559   4.222  10.548
57775SOL     OW75221   9.949  11.284   4.535
57775SOL    HW175222   9.995  11.293   4.452
57775SOL    HW275223  10.019  11.275   4.600
57776SOL     OW75224   0.139   0.208  14.244
57776SOL    HW175225   0.230   0.217  14.216
57776SOL    HW275226   0.121   0.114  14.239
57777SOL     OW75227  11.479   2.492   0.793
57777SOL    HW175228  11.440   2.432   0.856
57777SOL    HW275229  11.492   2.573   0.842
57778SOL     OW75230  11.272   4.948  11.378
57778SOL    HW175231  11.303   5.020  11.323
57778SOL    HW275232  11.194   4.983  11.422
57779SOL     OW75233  14.301  12.594   1.090
57779SOL    HW175234  14.361  12.626   1.157
57779SOL    HW275235  14.357  12.544   1.031
57780SOL     OW75236   0.625   6.626  10.446
57780SOL    HW175237   0.685   6.644  10.518
57780SOL    HW275238   0.657   6.543  10.409
57781SOL     OW75239   9.359  14.779   8.789
57781SOL    HW175240   9.350  14.814   8.878
57781SOL    HW275241   9.285  14.816   8.741
57782SOL     OW75242  14.270  10.794   1.264
57782SOL    HW175243  14.183  10.828   1.284
57782SOL    HW275244  14.326  10.827   1.335
57783SOL     OW75245   2.841   6.096   4.685
57783SOL    HW175246   2.913   6.140   4.729
57783SOL    HW275247   2.773   6.163   4.677
57784SOL     OW75248  13.378  11.245  14.204
57784SOL    HW175249  13.421  11.204  14.130
57784SOL    HW275250  13.327  11.175  14.245
57785SOL     OW75251   5.899   1.861  12.273
57785SOL    HW175252   5.845   1.783  12.279
57785SOL    HW275253   5.874   1.902  12.190
57786SOL     OW75254  13.979   3.027   7.266
57786SOL    HW175255  14.009   2.952   7.319
57786SOL    HW275256  14.060   3.067   7.234
57787SOL     OW75257  12.391   8.793   7.507
57787SOL    HW175258  12.444   8.754   7.438
57787SOL    HW275259  12.310   8.741   7.508
57788SOL     OW75260   2.111  11.777  13.570
57788SOL    HW175261   2.178  11.774  13.639
57788SOL    HW275262   2.047  11.841  13.601
57789SOL     OW75263   8.249  10.156  10.506
57789SOL    HW175264   8.259  10.245  10.473
57789SOL    HW275265   8.158  10.132  10.488
57790SOL     OW75266   0.108   2.377   8.008
57790SOL    HW175267   0.018   2.348   7.991
57790SOL    HW275268   0.142   2.402   7.923
57791SOL     OW75269  11.955   5.052   1.608
57791SOL    HW175270  11.878   5.033   1.660
57791SOL    HW275271  12.028   5.015   1.658
57792SOL     OW75272   5.636   9.631   1.827
57792SOL    HW175273   5.601   9.719   1.841
57792SOL    HW275274   5.560   9.577   1.807
57793SOL     OW75275   1.293  10.093   2.908
57793SOL    HW175276   1.363  10.126   2.964
57793SOL    HW275277   1.239  10.039   2.966
57794SOL     OW75278   2.047  12.108  11.710
57794SOL    HW175279   2.055  12.166  11.786
57794SOL    HW275280   2.098  12.031  11.734
57795SOL     OW75281   2.199  11.490   5.363
57795SOL    HW175282   2.227  11.509   5.273
57795SOL    HW275283   2.107  11.466   5.354
57796SOL     OW75284  14.055  10.401   3.738
57796SOL    HW175285  14.018  10.315   3.759
57796SOL    HW275286  13.988  10.444   3.684
57797SOL     OW75287  10.398   6.164   5.319
57797SOL    HW175288  10.492   6.165   5.339
57797SOL    HW275289  10.392   6.123   5.233
57798SOL     OW75290   1.172   7.174   9.343
57798SOL    HW175291   1.241   7.177   9.277
57798SOL    HW275292   1.190   7.095   9.393
57799SOL     OW75293   7.334   0.438   1.952
57799SOL    HW175294   7.380   0.422   2.035
57799SOL    HW275295   7.243   0.452   1.977
57800SOL     OW75296  14.475   1.736   7.585
57800SOL    HW175297  14.533   1.738   7.661
57800SOL    HW275298  14.518   1.676   7.524
57801SOL     OW75299  12.225  13.130  11.443
57801SOL    HW175300  12.295  13.099  11.384
57801SOL    HW275301  12.165  13.056  11.449
57802SOL     OW75302  10.011  14.665   0.653
57802SOL    HW175303  10.098  14.625   0.660
57802SOL    HW275304   9.998  14.678   0.559
57803SOL     OW75305  14.574  14.282   5.658
57803SOL    HW175306  14.638  14.214   5.636
57803SOL    HW275307  14.626  14.357   5.686
57804SOL     OW75308   1.994  14.202   3.524
57804SOL    HW175309   2.059  14.264   3.558
57804SOL    HW275310   2.046  14.128   3.492
57805SOL     OW75311   8.256  14.127   6.263
57805SOL    HW175312   8.164  14.132   6.289
57805SOL    HW275313   8.294  14.063   6.323
57806SOL     OW75314   5.552  11.607   6.579
57806SOL    HW175315   5.569  11.700   6.563
57806SOL    HW275316   5.493  11.581   6.509
57807SOL     OW75317   6.212  10.233   1.449
57807SOL    HW175318   6.138  10.294   1.438
57807SOL    HW275319   6.269  10.275   1.513
57808SOL     OW75320   7.140   2.594   8.974
57808SOL    HW175321   7.103   2.591   8.886
57808SOL    HW275322   7.070   2.633   9.028
57809SOL     OW75323  12.606  12.801   1.724
57809SOL    HW175324  12.593  12.831   1.814
57809SOL    HW275325  12.523  12.759   1.700
57810SOL     OW75326  13.480  10.256   3.108
57810SOL    HW175327  13.428  10.177   3.121
57810SOL    HW275328  13.547  10.253   3.177
57811SOL     OW75329  11.698   1.578   2.220
57811SOL    HW175330  11.715   1.605   2.129
57811SOL    HW275331  11.643   1.501   2.212
57812SOL     OW75332  10.240  10.516  10.129
57812SOL    HW175333  10.287  10.538  10.049
57812SOL    HW275334  10.301  10.460  10.177
57813SOL     OW75335   4.199   2.780   0.106
57813SOL    HW175336   4.113   2.818   0.087
57813SOL    HW275337   4.261   2.838   0.061
57814SOL     OW75338   4.020  11.960   0.363
57814SOL    HW175339   4.049  11.928   0.448
57814SOL    HW275340   4.084  11.924   0.301
57815SOL     OW75341   3.185   1.129  12.288
57815SOL    HW175342   3.221   1.194  12.349
57815SOL    HW275343   3.243   1.133  12.212
57816SOL     OW75344   4.305   2.275   8.892
57816SOL    HW175345   4.260   2.293   8.809
57816SOL    HW275346   4.290   2.183   8.909
57817SOL     OW75347  13.870   6.210  12.725
57817SOL    HW175348  13.850   6.116  12.730
57817SOL    HW275349  13.955   6.213  12.682
57818SOL     OW75350   2.222  12.412   6.295
57818SOL    HW175351   2.162  12.464   6.242
57818SOL    HW275352   2.168  12.342   6.331
57819SOL     OW75353  13.140  13.136  14.689
57819SOL    HW175354  13.231  13.165  14.699
57819SOL    HW275355  13.124  13.142  14.594
57820SOL     OW75356   3.684   5.923   7.332
57820SOL    HW175357   3.686   5.987   7.404
57820SOL    HW275358   3.775   5.894   7.323
57821SOL     OW75359  11.103   0.552   0.888
57821SOL    HW175360  11.093   0.458   0.903
57821SOL    HW275361  11.065   0.592   0.966
57822SOL     OW75362   4.995   3.686  10.934
57822SOL    HW175363   5.074   3.708  10.884
57822SOL    HW275364   4.929   3.665  10.868
57823SOL     OW75365   7.928   2.140  10.703
57823SOL    HW175366   7.857   2.203  10.710
57823SOL    HW275367   8.006   2.188  10.731
57824SOL     OW75368   7.387  10.877   0.137
57824SOL    HW175369   7.380  10.909   0.226
57824SOL    HW275370   7.296  10.875   0.105
57825SOL     OW75371   0.931   8.792   8.981
57825SOL    HW175372   0.873   8.717   8.990
57825SOL    HW275373   0.923   8.839   9.063
57826SOL     OW75374   7.736   3.984  12.322
57826SOL    HW175375   7.790   3.964  12.246
57826SOL    HW275376   7.684   4.060  12.295
57827SOL     OW75377   3.761  14.770  14.315
57827SOL    HW175378   3.696  14.814  14.260
57827SOL    HW275379   3.801  14.705  14.257
57828SOL     OW75380   6.849   2.425   2.849
57828SOL    HW175381   6.871   2.368   2.775
57828SOL    HW275382   6.754   2.434   2.844
57829SOL     OW75383   2.252  14.031  13.945
57829SOL    HW175384   2.210  13.974  14.009
57829SOL    HW275385   2.193  14.029  13.869
57830SOL     OW75386  11.247   9.643   5.696
57830SOL    HW175387  11.160   9.661   5.732
57830SOL    HW275388  11.307   9.659   5.769
57831SOL     OW75389   9.293  10.332   1.547
57831SOL    HW175390   9.209  10.295   1.574
57831SOL    HW275391   9.356  10.300   1.612
57832SOL     OW75392   6.769   0.998   3.500
57832SOL    HW175393   6.708   1.046   3.557
57832SOL    HW275394   6.817   0.941   3.560
57833SOL     OW75395   3.799  10.865  13.400
57833SOL    HW175396   3.771  10.951  13.368
57833SOL    HW275397   3.831  10.820  13.323
57834SOL     OW75398   9.347   1.605   9.045
57834SOL    HW175399   9.396   1.537   8.998
57834SOL    HW275400   9.414   1.669   9.069
57835SOL     OW75401  12.082  11.406  14.769
57835SOL    HW175402  12.087  11.320  14.729
57835SOL    HW275403  12.170  11.443  14.760
57836SOL     OW75404   5.652   0.871   2.986
57836SOL    HW175405   5.558   0.888   2.992
57836SOL    HW275406   5.692   0.958   2.985
57837SOL     OW75407   6.108   7.779   2.026
57837SOL    HW175408   6.072   7.695   2.053
57837SOL    HW275409   6.163   7.806   2.100
57838SOL     OW75410   2.360   0.821   5.704
57838SOL    HW175411   2.371   0.908   5.741
57838SOL    HW275412   2.449   0.791   5.684
57839SOL     OW75413   6.382   1.095  10.071
57839SOL    HW175414   6.347   1.182  10.090
57839SOL    HW275415   6.364   1.082   9.978
57840SOL     OW75416   4.269   6.984   3.772
57840SOL    HW175417   4.276   7.068   3.818
57840SOL    HW275418   4.287   7.004   3.681
57841SOL     OW75419  13.128   2.613   0.615
57841SOL    HW175420  13.107   2.526   0.581
57841SOL    HW275421  13.223   2.620   0.605
57842SOL     OW75422   9.800   0.019   9.873
57842SOL    HW175423   9.811   0.114   9.869
57842SOL    HW275424   9.727   0.006   9.934
57843SOL     OW75425   9.263   2.257   4.534
57843SOL    HW175426   9.296   2.338   4.573
57843SOL    HW275427   9.213   2.215   4.603
57844SOL     OW75428   7.929   4.491   2.846
57844SOL    HW175429   7.994   4.443   2.897
57844SOL    HW275430   7.884   4.546   2.910
57845SOL     OW75431   6.353  10.160   0.372
57845SOL    HW175432   6.368  10.247   0.409
57845SOL    HW275433   6.432  10.141   0.323
57846SOL     OW75434   3.956   1.718   1.085
57846SOL    HW175435   3.983   1.801   1.124
57846SOL    HW275436   4.022   1.701   1.017
57847SOL     OW75437   1.573  13.281   3.057
57847SOL    HW175438   1.537  13.312   2.974
57847SOL    HW275439   1.659  13.322   3.064
57848SOL     OW75440  11.461   7.578   7.448
57848SOL    HW175441  11.449   7.557   7.540
57848SOL    HW275442  11.415   7.508   7.401
57849SOL     OW75443  12.667   9.694   9.812
57849SOL    HW175444  12.720   9.737   9.879
57849SOL    HW275445  12.586   9.670   9.857
57850SOL     OW75446   7.846   6.466   1.733
57850SOL    HW175447   7.941   6.473   1.730
57850SOL    HW275448   7.820   6.527   1.803
57851SOL     OW75449   6.106  12.206  10.724
57851SOL    HW175450   6.065  12.290  10.704
57851SOL    HW275451   6.053  12.142  10.677
57852SOL     OW75452   5.752   2.996  13.637
57852SOL    HW175453   5.765   3.085  13.670
57852SOL    HW275454   5.776   3.001  13.544
57853SOL     OW75455   3.629   5.055  12.364
57853SOL    HW175456   3.537   5.029  12.369
57853SOL    HW275457   3.642   5.111  12.441
57854SOL     OW75458   9.754   8.237   5.994
57854SOL    HW175459   9.738   8.152   6.034
57854SOL    HW275460   9.849   8.240   5.981
57855SOL     OW75461  12.430   4.127   4.978
57855SOL    HW175462  12.392   4.107   4.893
57855SOL    HW275463  12.428   4.222   4.984
57856SOL     OW75464  11.597  14.494  14.665
57856SOL    HW175465  11.510  14.535  14.659
57856SOL    HW275466  11.645  14.548  14.728
57857SOL     OW75467   8.618   6.747  10.278
57857SOL    HW175468   8.565   6.747  10.358
57857SOL    HW275469   8.556   6.726  10.208
57858SOL     OW75470   8.900  13.074   6.196
57858SOL    HW175471   8.863  13.039   6.277
57858SOL    HW275472   8.956  13.146   6.224
57859SOL     OW75473   6.478   4.455   0.119
57859SOL    HW175474   6.553   4.450   0.179
57859SOL    HW275475   6.418   4.517   0.161
57860SOL     OW75476   4.953   6.121   9.380
57860SOL    HW175477   4.959   6.181   9.306
57860SOL    HW275478   4.870   6.144   9.423
57861SOL     OW75479   3.994  12.901   4.838
57861SOL    HW175480   3.909  12.865   4.863
57861SOL    HW275481   4.035  12.833   4.785
57862SOL     OW75482   1.752   2.357   6.364
57862SOL    HW175483   1.779   2.446   6.383
57862SOL    HW275484   1.682   2.366   6.299
57863SOL     OW75485  10.022   7.467   0.969
57863SOL    HW175486  10.061   7.420   1.043
57863SOL    HW275487  10.095   7.516   0.931
57864SOL     OW75488   4.678  13.430  13.578
57864SOL    HW175489   4.735  13.374  13.631
57864SOL    HW275490   4.700  13.519  13.605
57865SOL     OW75491   7.063   6.481   9.951
57865SOL    HW175492   7.130   6.542   9.982
57865SOL    HW275493   7.023   6.447  10.031
57866SOL     OW75494   2.442  13.361  10.297
57866SOL    HW175495   2.427  13.343  10.204
57866SOL    HW275496   2.405  13.285  10.342
57867SOL     OW75497   1.843  13.207   3.688
57867SOL    HW175498   1.781  13.261   3.639
57867SOL    HW275499   1.919  13.199   3.631
57868SOL     OW75500   5.304   5.955  12.219
57868SOL    HW175501   5.310   6.042  12.179
57868SOL    HW275502   5.296   5.972  12.313
57869SOL     OW75503  11.937   3.687   2.697
57869SOL    HW175504  11.912   3.616   2.756
57869SOL    HW275505  12.022   3.660   2.662
57870SOL     OW75506   8.787   2.897   2.531
57870SOL    HW175507   8.859   2.843   2.499
57870SOL    HW275508   8.815   2.924   2.619
57871SOL     OW75509   9.863   1.393   1.790
57871SOL    HW175510   9.776   1.419   1.761
57871SOL    HW275511   9.850   1.357   1.878
57872SOL     OW75512   5.287   3.211  12.727
57872SOL    HW175513   5.238   3.189  12.806
57872SOL    HW275514   5.219   3.231  12.662
57873SOL     OW75515   7.007  10.547  11.914
57873SOL    HW175516   7.102  10.557  11.915
57873SOL    HW275517   6.985  10.526  12.005
57874SOL     OW75518   7.770   7.786   2.635
57874SOL    HW175519   7.754   7.692   2.642
57874SOL    HW275520   7.828   7.806   2.708
57875SOL     OW75521   0.792   7.731   3.981
57875SOL    HW175522   0.751   7.657   3.937
57875SOL    HW275523   0.884   7.707   3.989
57876SOL     OW75524   9.964   8.520  12.081
57876SOL    HW175525  10.036   8.459  12.097
57876SOL    HW275526   9.890   8.485  12.130
57877SOL     OW75527   6.943   1.043  10.027
57877SOL    HW175528   6.973   1.051  10.118
57877SOL    HW275529   6.872   1.107  10.020
57878SOL     OW75530   3.531  13.876  11.703
57878SOL    HW175531   3.522  13.960  11.748
57878SOL    HW275532   3.444  13.837  11.707
57879SOL     OW75533  11.373  13.326   7.373
57879SOL    HW175534  11.399  13.385   7.443
57879SOL    HW275535  11.444  13.330   7.309
57880SOL     OW75536   6.711   4.981   5.114
57880SOL    HW175537   6.650   4.908   5.120
57880SOL    HW275538   6.778   4.962   5.179
57881SOL     OW75539   2.743   9.041   7.375
57881SOL    HW175540   2.755   9.121   7.324
57881SOL    HW275541   2.660   9.005   7.343
57882SOL     OW75542   2.711   3.889   6.406
57882SOL    HW175543   2.684   3.965   6.457
57882SOL    HW275544   2.772   3.842   6.464
57883SOL     OW75545   3.813   3.829   8.462
57883SOL    HW175546   3.791   3.754   8.407
57883SOL    HW275547   3.830   3.791   8.548
57884SOL     OW75548  11.191  11.047  11.770
57884SOL    HW175549  11.266  11.001  11.808
57884SOL    HW275550  11.219  11.069  11.681
57885SOL     OW75551  10.297   2.947   7.323
57885SOL    HW175552  10.254   2.880   7.270
57885SOL    HW275553  10.371   2.977   7.270
57886SOL     OW75554   5.017   1.198  10.341
57886SOL    HW175555   5.101   1.157  10.363
57886SOL    HW275556   4.956   1.163  10.406
57887SOL     OW75557   4.633  11.372  14.188
57887SOL    HW175558   4.713  11.395  14.234
57887SOL    HW275559   4.648  11.283  14.156
57888SOL     OW75560   9.981   5.973   0.809
57888SOL    HW175561   9.955   6.024   0.732
57888SOL    HW275562   9.906   5.979   0.868
57889SOL     OW75563   0.614   1.795   1.827
57889SOL    HW175564   0.694   1.755   1.859
57889SOL    HW275565   0.547   1.768   1.890
57890SOL     OW75566  11.102   4.513   7.894
57890SOL    HW175567  11.143   4.504   7.808
57890SOL    HW275568  11.071   4.604   7.895
57891SOL     OW75569   7.359   4.653   1.063
57891SOL    HW175570   7.339   4.565   1.029
57891SOL    HW275571   7.421   4.638   1.134
57892SOL     OW75572  13.862   2.017   8.787
57892SOL    HW175573  13.941   2.000   8.736
57892SOL    HW275574  13.791   2.016   8.723
57893SOL     OW75575   9.818   4.537  13.098
57893SOL    HW175576   9.747   4.601  13.107
57893SOL    HW275577   9.878   4.558  13.170
57894SOL     OW75578   6.621   1.257   4.693
57894SOL    HW175579   6.653   1.272   4.604
57894SOL    HW275580   6.559   1.184   4.684
57895SOL     OW75581  13.564   2.973   0.532
57895SOL    HW175582  13.525   3.007   0.612
57895SOL    HW275583  13.551   3.042   0.467
57896SOL     OW75584   1.118   1.003   7.300
57896SOL    HW175585   1.179   0.937   7.269
57896SOL    HW275586   1.167   1.085   7.298
57897SOL     OW75587   0.785   4.320   1.306
57897SOL    HW175588   0.789   4.349   1.397
57897SOL    HW275589   0.769   4.400   1.256
57898SOL     OW75590   1.347   2.009   8.866
57898SOL    HW175591   1.294   2.060   8.805
57898SOL    HW275592   1.291   1.936   8.891
57899SOL     OW75593   1.603   1.552   0.352
57899SOL    HW175594   1.525   1.584   0.308
57899SOL    HW275595   1.659   1.629   0.363
57900SOL     OW75596   1.655   0.874  12.039
57900SOL    HW175597   1.735   0.836  12.004
57900SOL    HW275598   1.680   0.963  12.065
57901SOL     OW75599   4.061   2.525   6.664
57901SOL    HW175600   3.987   2.470   6.687
57901SOL    HW275601   4.095   2.556   6.748
57902SOL     OW75602   6.622  11.246  11.125
57902SOL    HW175603   6.626  11.263  11.031
57902SOL    HW275604   6.575  11.320  11.161
57903SOL     OW75605   5.740   3.006  12.198
57903SOL    HW175606   5.733   2.995  12.103
57903SOL    HW275607   5.660   2.967  12.233
57904SOL     OW75608   2.126   2.085   0.514
57904SOL    HW175609   2.196   2.106   0.452
57904SOL    HW275610   2.055   2.144   0.492
57905SOL     OW75611  14.301   3.268   0.365
57905SOL    HW175612  14.237   3.260   0.436
57905SOL    HW275613  14.377   3.310   0.406
57906SOL     OW75614  13.774   5.714   3.009
57906SOL    HW175615  13.865   5.695   2.988
57906SOL    HW275616  13.726   5.634   2.987
57907SOL     OW75617   2.505  14.560   4.185
57907SOL    HW175618   2.600  14.561   4.194
57907SOL    HW275619   2.472  14.566   4.274
57908SOL     OW75620  14.817   4.980   2.268
57908SOL    HW175621  14.856   4.905   2.315
57908SOL    HW275622   0.003   5.048   2.272
57909SOL     OW75623  13.792   9.897   1.272
57909SOL    HW175624  13.726   9.866   1.335
57909SOL    HW275625  13.777   9.991   1.266
57910SOL     OW75626  13.652  14.070  13.569
57910SOL    HW175627  13.587  14.025  13.516
57910SOL    HW275628  13.601  14.131  13.624
57911SOL     OW75629   7.515  13.655   8.017
57911SOL    HW175630   7.602  13.619   7.999
57911SOL    HW275631   7.467  13.645   7.935
57912SOL     OW75632  10.671  14.547  14.591
57912SOL    HW175633  10.693  14.564  14.499
57912SOL    HW275634  10.634  14.459  14.590
57913SOL     OW75635   4.398  14.517   3.972
57913SOL    HW175636   4.493  14.515   3.980
57913SOL    HW275637   4.381  14.573   3.896
57914SOL     OW75638   4.209   3.105   5.816
57914SOL    HW175639   4.181   3.122   5.726
57914SOL    HW275640   4.130   3.115   5.869
57915SOL     OW75641   1.538   2.911   1.025
57915SOL    HW175642   1.496   2.877   0.945
57915SOL    HW275643   1.517   2.847   1.092
57916SOL     OW75644  12.757   7.151   7.028
57916SOL    HW175645  12.668   7.127   7.053
57916SOL    HW275646  12.812   7.087   7.075
57917SOL     OW75647   4.441   5.240   9.625
57917SOL    HW175648   4.490   5.244   9.707
57917SOL    HW275649   4.436   5.331   9.595
57918SOL     OW75650  10.493  14.860  13.215
57918SOL    HW175651  10.417  14.801  13.215
57918SOL    HW275652  10.461   0.059  13.176
57919SOL     OW75653   1.062   8.088   9.461
57919SOL    HW175654   1.071   8.008   9.410
57919SOL    HW275655   1.022   8.060   9.543
57920SOL     OW75656   7.577   5.464  14.264
57920SOL    HW175657   7.505   5.404  14.284
57920SOL    HW275658   7.649   5.408  14.236
57921SOL     OW75659   1.465   5.059   0.226
57921SOL    HW175660   1.444   5.131   0.285
57921SOL    HW275661   1.410   5.074   0.149
57922SOL     OW75662   8.665  10.551  12.479
57922SOL    HW175663   8.654  10.518  12.568
57922SOL    HW275664   8.591  10.515  12.430
57923SOL     OW75665   1.881   4.515  12.500
57923SOL    HW175666   1.912   4.424  12.494
57923SOL    HW275667   1.940   4.564  12.444
57924SOL     OW75668   6.985   5.532   6.140
57924SOL    HW175669   7.056   5.494   6.192
57924SOL    HW275670   7.004   5.626   6.139
57925SOL     OW75671  13.698  11.402   5.856
57925SOL    HW175672  13.645  11.479   5.877
57925SOL    HW275673  13.634  11.330   5.854
57926SOL     OW75674   3.248   4.368   3.360
57926SOL    HW175675   3.271   4.368   3.453
57926SOL    HW275676   3.265   4.457   3.331
57927SOL     OW75677   0.476   8.694   3.564
57927SOL    HW175678   0.527   8.709   3.644
57927SOL    HW275679   0.499   8.605   3.537
57928SOL     OW75680   4.927   4.143  10.543
57928SOL    HW175681   4.969   4.157  10.458
57928SOL    HW275682   4.841   4.182  10.534
57929SOL     OW75683   7.988  14.671   5.350
57929SOL    HW175684   7.907  14.626   5.373
57929SOL    HW275685   8.020  14.708   5.432
57930SOL     OW75686   2.526   3.951   4.666
57930SOL    HW175687   2.556   3.906   4.587
57930SOL    HW275688   2.533   4.044   4.645
57931SOL     OW75689   1.333  12.766   0.425
57931SOL    HW175690   1.339  12.856   0.458
57931SOL    HW275691   1.244  12.759   0.390
57932SOL     OW75692   2.194   2.376   4.384
57932SOL    HW175693   2.116   2.416   4.345
57932SOL    HW275694   2.247   2.348   4.309
57933SOL     OW75695  10.311   1.208   0.973
57933SOL    HW175696  10.345   1.170   1.054
57933SOL    HW275697  10.329   1.301   0.981
57934SOL     OW75698  12.115   3.877   6.585
57934SOL    HW175699  12.084   3.809   6.526
57934SOL    HW275700  12.037   3.902   6.635
57935SOL     OW75701   1.589   5.322  10.790
57935SOL    HW175702   1.628   5.247  10.835
57935SOL    HW275703   1.663   5.372  10.757
57936SOL     OW75704   1.719  12.649  11.805
57936SOL    HW175705   1.716  12.558  11.837
57936SOL    HW275706   1.766  12.643  11.722
57937SOL     OW75707   0.660   2.988   0.232
57937SOL    HW175708   0.666   2.893   0.244
57937SOL    HW275709   0.729   3.023   0.287
57938SOL     OW75710   0.471   5.424  10.184
57938SOL    HW175711   0.501   5.470  10.106
57938SOL    HW275712   0.375   5.427  10.179
57939SOL     OW75713   7.006   1.183   0.193
57939SOL    HW175714   6.925   1.200   0.241
57939SOL    HW275715   7.053   1.118   0.247
57940SOL     OW75716   5.240   6.925  14.650
57940SOL    HW175717   5.314   6.870  14.677
57940SOL    HW275718   5.280   7.001  14.609
57941SOL     OW75719   4.423   6.023   8.502
57941SOL    HW175720   4.453   5.952   8.560
57941SOL    HW275721   4.498   6.041   8.446
57942SOL     OW75722   6.997   5.483   2.944
57942SOL    HW175723   6.922   5.458   2.891
57942SOL    HW275724   7.059   5.411   2.934
57943SOL     OW75725  12.568   6.512   0.627
57943SOL    HW175726  12.524   6.582   0.674
57943SOL    HW275727  12.581   6.546   0.539
57944SOL     OW75728   5.261   1.088   5.259
57944SOL    HW175729   5.244   1.135   5.341
57944SOL    HW275730   5.357   1.086   5.251
57945SOL     OW75731   8.929  11.075   0.403
57945SOL    HW175732   9.023  11.055   0.401
57945SOL    HW275733   8.921  11.147   0.466
57946SOL     OW75734  12.085  12.285  11.323
57946SOL    HW175735  12.108  12.376  11.303
57946SOL    HW275736  11.989  12.284  11.318
57947SOL     OW75737  14.061  13.841  12.419
57947SOL    HW175738  14.012  13.915  12.455
57947SOL    HW275739  14.032  13.765  12.470
57948SOL     OW75740   8.110  12.391   7.547
57948SOL    HW175741   8.046  12.323   7.568
57948SOL    HW275742   8.188  12.343   7.520
57949SOL     OW75743   4.087  13.552   9.616
57949SOL    HW175744   4.074  13.486   9.548
57949SOL    HW275745   4.007  13.550   9.668
57950SOL     OW75746   9.620   3.650   9.355
57950SOL    HW175747   9.692   3.640   9.293
57950SOL    HW275748   9.552   3.695   9.306
57951SOL     OW75749   8.105   4.385  11.850
57951SOL    HW175750   8.102   4.329  11.772
57951SOL    HW275751   8.117   4.473  11.815
57952SOL     OW75752   0.319  11.314   6.833
57952SOL    HW175753   0.389  11.316   6.899
57952SOL    HW275754   0.334  11.233   6.785
57953SOL     OW75755   0.832   4.369   7.626
57953SOL    HW175756   0.863   4.400   7.711
57953SOL    HW275757   0.759   4.310   7.647
57954SOL     OW75758   7.019   4.611   7.221
57954SOL    HW175759   6.975   4.553   7.160
57954SOL    HW275760   6.971   4.693   7.216
57955SOL     OW75761  11.899   6.194   4.055
57955SOL    HW175762  11.846   6.226   3.982
57955SOL    HW275763  11.925   6.106   4.028
57956SOL     OW75764   1.787   6.085   0.868
57956SOL    HW175765   1.765   6.014   0.807
57956SOL    HW275766   1.832   6.042   0.940
57957SOL     OW75767   7.531   2.248   8.778
57957SOL    HW175768   7.554   2.326   8.728
57957SOL    HW275769   7.601   2.240   8.843
57958SOL     OW75770  13.323  10.774   4.809
57958SOL    HW175771  13.295  10.829   4.735
57958SOL    HW275772  13.250  10.778   4.871
57959SOL     OW75773   8.310   0.480  11.283
57959SOL    HW175774   8.245   0.510  11.219
57959SOL    HW275775   8.382   0.447  11.230
57960SOL     OW75776   7.996   2.826   5.955
57960SOL    HW175777   8.041   2.904   5.988
57960SOL    HW275778   8.063   2.758   5.954
57961SOL     OW75779   4.786  11.364  12.841
57961SOL    HW175780   4.787  11.340  12.749
57961SOL    HW275781   4.777  11.281  12.888
57962SOL     OW75782   7.160   5.634  11.154
57962SOL    HW175783   7.106   5.678  11.088
57962SOL    HW275784   7.241   5.612  11.108
57963SOL     OW75785   8.882   1.925  14.234
57963SOL    HW175786   8.867   1.879  14.151
57963SOL    HW275787   8.926   2.007  14.208
57964SOL     OW75788   8.772   2.829  13.071
57964SOL    HW175789   8.847   2.857  13.124
57964SOL    HW275790   8.705   2.806  13.136
57965SOL     OW75791   3.426   9.315   5.507
57965SOL    HW175792   3.343   9.270   5.489
57965SOL    HW275793   3.426   9.390   5.448
57966SOL     OW75794   8.365   4.092   7.473
57966SOL    HW175795   8.299   4.074   7.406
57966SOL    HW275796   8.361   4.186   7.486
57967SOL     OW75797   8.360   0.104   4.674
57967SOL    HW175798   8.352   0.009   4.674
57967SOL    HW275799   8.320   0.132   4.756
57968SOL     OW75800   7.562   8.769   0.183
57968SOL    HW175801   7.514   8.847   0.209
57968SOL    HW275802   7.620   8.799   0.113
57969SOL     OW75803   0.848   3.964  11.367
57969SOL    HW175804   0.814   3.917  11.443
57969SOL    HW275805   0.943   3.963  11.378
57970SOL     OW75806   3.197   7.850  14.506
57970SOL    HW175807   3.105   7.830  14.488
57970SOL    HW275808   3.229   7.890  14.425
57971SOL     OW75809   8.037   6.646  11.469
57971SOL    HW175810   7.971   6.579  11.484
57971SOL    HW275811   8.120   6.599  11.469
57972SOL     OW75812  11.349   4.313   1.107
57972SOL    HW175813  11.381   4.277   1.189
57972SOL    HW275814  11.270   4.362   1.130
57973SOL     OW75815   0.273   5.086  13.022
57973SOL    HW175816   0.297   5.068  12.931
57973SOL    HW275817   0.323   5.164  13.045
57974SOL     OW75818  14.833   1.329   8.215
57974SOL    HW175819  14.859   1.237   8.214
57974SOL    HW275820   0.010   1.370   8.278
57975SOL     OW75821   2.692   9.288   8.412
57975SOL    HW175822   2.687   9.260   8.321
57975SOL    HW275823   2.669   9.210   8.463
57976SOL     OW75824   9.367   4.058   0.264
57976SOL    HW175825   9.392   4.150   0.256
57976SOL    HW275826   9.446   4.010   0.240
57977SOL     OW75827   4.364   3.897  14.080
57977SOL    HW175828   4.353   3.898  14.175
57977SOL    HW275829   4.408   3.814  14.062
57978SOL     OW75830   9.240   0.398   3.781
57978SOL    HW175831   9.157   0.425   3.743
57978SOL    HW275832   9.301   0.397   3.708
57979SOL     OW75833   1.217   4.334   6.925
57979SOL    HW175834   1.242   4.399   6.991
57979SOL    HW275835   1.261   4.253   6.953
57980SOL     OW75836   3.311  13.218  13.802
57980SOL    HW175837   3.226  13.248  13.834
57980SOL    HW275838   3.333  13.143  13.857
57981SOL     OW75839   8.044   5.143   3.897
57981SOL    HW175840   8.096   5.064   3.889
57981SOL    HW275841   8.040   5.160   3.991
57982SOL     OW75842   1.078  12.909   5.440
57982SOL    HW175843   1.126  12.944   5.515
57982SOL    HW275844   1.077  12.814   5.454
57983SOL     OW75845   6.317   4.688   9.876
57983SOL    HW175846   6.242   4.643   9.914
57983SOL    HW275847   6.333   4.642   9.794
57984SOL     OW75848  12.394   6.896   8.612
57984SOL    HW175849  12.444   6.941   8.680
57984SOL    HW275850  12.442   6.913   8.531
57985SOL     OW75851   9.246   4.001   8.851
57985SOL    HW175852   9.272   4.084   8.810
57985SOL    HW275853   9.207   4.027   8.935
57986SOL     OW75854   4.666   0.258  13.271
57986SOL    HW175855   4.658   0.214  13.356
57986SOL    HW275856   4.748   0.225  13.235
57987SOL     OW75857   9.258   9.341  12.788
57987SOL    HW175858   9.312   9.393  12.729
57987SOL    HW275859   9.241   9.260  12.740
57988SOL     OW75860   4.283   2.101  12.781
57988SOL    HW175861   4.262   2.127  12.691
57988SOL    HW275862   4.328   2.018  12.773
57989SOL     OW75863  12.705   0.894   7.192
57989SOL    HW175864  12.798   0.873   7.195
57989SOL    HW275865  12.661   0.811   7.211
57990SOL     OW75866  11.798   4.998   5.413
57990SOL    HW175867  11.883   5.018   5.451
57990SOL    HW275868  11.745   4.967   5.486
57991SOL     OW75869   7.429   9.344   3.112
57991SOL    HW175870   7.388   9.408   3.053
57991SOL    HW275871   7.509   9.387   3.141
57992SOL     OW75872   3.176   9.784   1.102
57992SOL    HW175873   3.134   9.699   1.088
57992SOL    HW275874   3.259   9.763   1.145
57993SOL     OW75875  11.566  11.460  14.467
57993SOL    HW175876  11.625  11.452  14.542
57993SOL    HW275877  11.623  11.456  14.390
57994SOL     OW75878   2.860  13.418   6.100
57994SOL    HW175879   2.866  13.416   6.195
57994SOL    HW275880   2.790  13.356   6.079
57995SOL     OW75881   9.524   5.998  10.460
57995SOL    HW175882   9.616   6.021  10.452
57995SOL    HW275883   9.499   6.029  10.547
57996SOL     OW75884   8.634   5.868  10.463
57996SOL    HW175885   8.647   5.791  10.407
57996SOL    HW275886   8.583   5.928  10.409
57997SOL     OW75887   2.871   4.709   9.180
57997SOL    HW175888   2.784   4.734   9.211
57997SOL    HW275889   2.868   4.614   9.171
57998SOL     OW75890   4.719  12.056   6.043
57998SOL    HW175891   4.660  12.020   5.977
57998SOL    HW275892   4.804  12.015   6.024
57999SOL     OW75893   7.540  11.637   6.600
57999SOL    HW175894   7.517  11.717   6.552
57999SOL    HW275895   7.564  11.668   6.687
58000SOL     OW75896   3.740   3.928   6.832
58000SOL    HW175897   3.736   4.015   6.870
58000SOL    HW275898   3.815   3.886   6.875
58001SOL     OW75899   3.885   4.888  13.482
58001SOL    HW175900   3.831   4.817  13.446
58001SOL    HW275901   3.823   4.956  13.507
58002SOL     OW75902  10.568   1.823   0.077
58002SOL    HW175903  10.593   1.731   0.070
58002SOL    HW275904  10.647   1.867   0.109
58003SOL     OW75905   5.749   7.127   5.898
58003SOL    HW175906   5.806   7.154   5.970
58003SOL    HW275907   5.756   7.032   5.896
58004SOL     OW75908   5.323   8.545   2.919
58004SOL    HW175909   5.304   8.461   2.877
58004SOL    HW275910   5.237   8.585   2.931
58005SOL     OW75911  10.065   0.400  11.615
58005SOL    HW175912  10.064   0.486  11.656
58005SOL    HW275913   9.995   0.404  11.549
58006SOL     OW75914   6.685  10.168   6.797
58006SOL    HW175915   6.712  10.077   6.784
58006SOL    HW275916   6.657  10.197   6.710
58007SOL     OW75917   7.156  11.431   9.797
58007SOL    HW175918   7.241  11.391   9.776
58007SOL    HW275919   7.112  11.439   9.713
58008SOL     OW75920  14.499   2.927  14.192
58008SOL    HW175921  14.528   3.018  14.187
58008SOL    HW275922  14.412   2.927  14.153
58009SOL     OW75923   4.489   9.784  11.116
58009SOL    HW175924   4.573   9.763  11.076
58009SOL    HW275925   4.513   9.838  11.192
58010SOL     OW75926   9.511   3.736   3.993
58010SOL    HW175927   9.543   3.759   3.906
58010SOL    HW275928   9.507   3.820   4.040
58011SOL     OW75929  14.310   6.774  14.702
58011SOL    HW175930  14.251   6.760  14.776
58011SOL    HW275931  14.395   6.792  14.743
58012SOL     OW75932   2.692   1.342   1.819
58012SOL    HW175933   2.767   1.342   1.759
58012SOL    HW275934   2.726   1.383   1.899
58013SOL     OW75935   1.163   7.262  13.230
58013SOL    HW175936   1.139   7.316  13.306
58013SOL    HW275937   1.132   7.312  13.154
58014SOL     OW75938   0.411  13.535   9.157
58014SOL    HW175939   0.356  13.544   9.079
58014SOL    HW275940   0.450  13.621   9.169
58015SOL     OW75941   9.114   7.627   1.044
58015SOL    HW175942   9.031   7.625   0.997
58015SOL    HW275943   9.092   7.597   1.132
58016SOL     OW75944   2.833  10.332   7.882
58016SOL    HW175945   2.804  10.423   7.881
58016SOL    HW275946   2.887  10.323   7.803
58017SOL     OW75947  10.257   0.539   1.589
58017SOL    HW175948  10.205   0.491   1.524
58017SOL    HW275949  10.225   0.629   1.584
58018SOL     OW75950   4.664  12.905   9.856
58018SOL    HW175951   4.570  12.894   9.840
58018SOL    HW275952   4.700  12.817   9.841
58019SOL     OW75953   8.076   3.547   1.594
58019SOL    HW175954   8.142   3.504   1.648
58019SOL    HW275955   8.025   3.476   1.556
58020SOL     OW75956   9.076  12.969   6.685
58020SOL    HW175957   9.063  13.026   6.609
58020SOL    HW275958   9.062  12.881   6.651
58021SOL     OW75959   1.694   0.291   6.999
58021SOL    HW175960   1.734   0.314   6.916
58021SOL    HW275961   1.768   0.271   7.057
58022SOL     OW75962   3.962  13.830   4.403
58022SOL    HW175963   3.969  13.784   4.320
58022SOL    HW275964   4.029  13.791   4.459
58023SOL     OW75965   6.258  10.437   2.471
58023SOL    HW175966   6.169  10.409   2.447
58023SOL    HW275967   6.314  10.369   2.434
58024SOL     OW75968   6.513   4.680   0.383
58024SOL    HW175969   6.570   4.725   0.446
58024SOL    HW275970   6.446   4.744   0.360
58025SOL     OW75971   3.429  10.790   1.288
58025SOL    HW175972   3.352  10.832   1.249
58025SOL    HW275973   3.434  10.705   1.244
58026SOL     OW75974  10.177   4.495  10.701
58026SOL    HW175975  10.109   4.428  10.706
58026SOL    HW275976  10.241   4.459  10.639
58027SOL     OW75977   2.830  10.832  14.704
58027SOL    HW175978   2.922  10.811  14.687
58027SOL    HW275979   2.791  10.749  14.733
58028SOL     OW75980   9.535   4.867   0.387
58028SOL    HW175981   9.595   4.873   0.313
58028SOL    HW275982   9.519   4.773   0.397
58029SOL     OW75983   3.812  11.660   5.951
58029SOL    HW175984   3.892  11.694   5.910
58029SOL    HW275985   3.844  11.607   6.024
58030SOL     OW75986  12.021   0.451   3.466
58030SOL    HW175987  12.048   0.494   3.385
58030SOL    HW275988  12.066   0.367   3.464
58031SOL     OW75989   4.890   9.998  11.087
58031SOL    HW175990   4.948  10.074  11.093
58031SOL    HW275991   4.824  10.024  11.021
58032SOL     OW75992   0.337  13.755  14.324
58032SOL    HW175993   0.265  13.794  14.275
58032SOL    HW275994   0.348  13.668  14.284
58033SOL     OW75995  10.290  13.953   7.690
58033SOL    HW175996  10.213  13.906   7.722
58033SOL    HW275997  10.255  14.033   7.651
58034SOL     OW75998   2.887   9.460   8.483
58034SOL    HW175999   2.820   9.398   8.455
58034SOL    HW276000   2.931   9.487   8.402
58035SOL     OW76001  10.573   9.935  12.464
58035SOL    HW176002  10.588   9.965  12.554
58035SOL    HW276003  10.591  10.012  12.410
58036SOL     OW76004   9.416   4.776   2.177
58036SOL    HW176005   9.336   4.828   2.188
58036SOL    HW276006   9.410   4.709   2.245
58037SOL     OW76007  11.971  13.930  12.269
58037SOL    HW176008  12.059  13.894  12.261
58037SOL    HW276009  11.936  13.891  12.349
58038SOL     OW76010  10.516   4.196  13.685
58038SOL    HW176011  10.464   4.124  13.649
58038SOL    HW276012  10.495   4.197  13.778
58039SOL     OW76013   2.665  11.240   7.077
58039SOL    HW176014   2.752  11.250   7.038
58039SOL    HW276015   2.611  11.307   7.035
58040SOL     OW76016  11.230  11.750  14.428
58040SOL    HW176017  11.149  11.731  14.476
58040SOL    HW276018  11.255  11.666  14.389
58041SOL     OW76019   8.559   4.731   6.815
58041SOL    HW176020   8.476   4.688   6.833
58041SOL    HW276021   8.538   4.824   6.808
58042SOL     OW76022  14.711  13.204   4.271
58042SOL    HW176023  14.653  13.279   4.257
58042SOL    HW276024  14.795  13.232   4.235
58043SOL     OW76025  12.117   9.587   7.117
58043SOL    HW176026  12.097   9.536   7.039
58043SOL    HW276027  12.116   9.524   7.189
58044SOL     OW76028  10.110  10.122   8.610
58044SOL    HW176029  10.069  10.040   8.583
58044SOL    HW276030  10.145  10.104   8.697
58045SOL     OW76031   0.884   0.274  14.100
58045SOL    HW176032   0.976   0.253  14.084
58045SOL    HW276033   0.886   0.359  14.144
58046SOL     OW76034   7.990   3.971   2.299
58046SOL    HW176035   7.950   3.884   2.310
58046SOL    HW276036   7.988   3.986   2.204
58047SOL     OW76037   7.527   0.711   2.818
58047SOL    HW176038   7.445   0.709   2.768
58047SOL    HW276039   7.550   0.804   2.821
58048SOL     OW76040   0.166   3.636   2.617
58048SOL    HW176041   0.104   3.598   2.679
58048SOL    HW276042   0.136   3.606   2.532
58049SOL     OW76043   6.851   4.510  12.787
58049SOL    HW176044   6.895   4.528  12.871
58049SOL    HW276045   6.922   4.482  12.729
58050SOL     OW76046  14.119   2.897  12.002
58050SOL    HW176047  14.121   2.905  11.907
58050SOL    HW276048  14.174   2.821  12.021
58051SOL     OW76049   7.975   1.538   6.592
58051SOL    HW176050   7.996   1.632   6.596
58051SOL    HW276051   7.989   1.515   6.500
58052SOL     OW76052  10.654   5.217   3.006
58052SOL    HW176053  10.624   5.292   3.058
58052SOL    HW276054  10.744   5.239   2.982
58053SOL     OW76055   2.669   9.822   5.001
58053SOL    HW176056   2.760   9.844   5.020
58053SOL    HW276057   2.624   9.906   5.002
58054SOL     OW76058   9.787  11.990   9.304
58054SOL    HW176059   9.806  11.959   9.393
58054SOL    HW276060   9.843  11.936   9.248
58055SOL     OW76061   0.550   9.842  13.439
58055SOL    HW176062   0.523   9.853  13.348
58055SOL    HW276063   0.635   9.885  13.444
58056SOL     OW76064   5.090  12.156  11.543
58056SOL    HW176065   5.026  12.166  11.472
58056SOL    HW276066   5.120  12.245  11.561
58057SOL     OW76067   4.578   1.922   9.785
58057SOL    HW176068   4.510   1.913   9.718
58057SOL    HW276069   4.583   1.837   9.827
58058SOL     OW76070  12.580   0.160  13.603
58058SOL    HW176071  12.554   0.106  13.678
58058SOL    HW276072  12.675   0.166  13.610
58059SOL     OW76073   6.014   2.925   9.643
58059SOL    HW176074   6.107   2.948   9.648
58059SOL    HW276075   5.968   3.008   9.655
58060SOL     OW76076   2.619  10.252   2.454
58060SOL    HW176077   2.654  10.217   2.536
58060SOL    HW276078   2.684  10.317   2.427
58061SOL     OW76079   8.420  14.099   8.100
58061SOL    HW176080   8.416  14.190   8.131
58061SOL    HW276081   8.461  14.051   8.172
58062SOL     OW76082   0.058  12.695   7.200
58062SOL    HW176083   0.071  12.774   7.147
58062SOL    HW276084   0.133  12.640   7.179
58063SOL     OW76085   4.758   0.928   5.748
58063SOL    HW176086   4.707   0.847   5.759
58063SOL    HW276087   4.836   0.915   5.801
58064SOL     OW76088   3.223  10.101  13.133
58064SOL    HW176089   3.177  10.017  13.139
58064SOL    HW276090   3.316  10.078  13.129
58065SOL     OW76091   5.773   9.799   8.967
58065SOL    HW176092   5.763   9.783   8.873
58065SOL    HW276093   5.714   9.736   9.008
58066SOL     OW76094   6.721   0.906  11.764
58066SOL    HW176095   6.798   0.914  11.708
58066SOL    HW276096   6.649   0.942  11.712
58067SOL     OW76097  10.849   0.727  14.481
58067SOL    HW176098  10.862   0.660  14.548
58067SOL    HW276099  10.888   0.689  14.402
58068SOL     OW76100  10.610  11.409  12.562
58068SOL    HW176101  10.601  11.494  12.604
58068SOL    HW276102  10.698  11.409  12.525
58069SOL     OW76103   0.316  10.223   2.760
58069SOL    HW176104   0.323  10.164   2.835
58069SOL    HW276105   0.403  10.223   2.721
58070SOL     OW76106  13.975   7.259  11.886
58070SOL    HW176107  13.954   7.295  11.972
58070SOL    HW276108  13.936   7.171  11.887
58071SOL     OW76109   3.865   3.431   1.424
58071SOL    HW176110   3.894   3.347   1.388
58071SOL    HW276111   3.912   3.438   1.507
58072SOL     OW76112  12.377   6.162   4.935
58072SOL    HW176113  12.376   6.115   4.852
58072SOL    HW276114  12.323   6.240   4.919
58073SOL     OW76115  13.068   1.839  13.136
58073SOL    HW176116  13.157   1.821  13.166
58073SOL    HW276117  13.064   1.802  13.048
58074SOL     OW76118   7.216  10.564  12.761
58074SOL    HW176119   7.179  10.643  12.721
58074SOL    HW276120   7.205  10.497  12.693
58075SOL     OW76121  14.511   9.808   5.465
58075SOL    HW176122  14.509   9.772   5.554
58075SOL    HW276123  14.591   9.860   5.462
58076SOL     OW76124   0.515   5.451   5.041
58076SOL    HW176125   0.585   5.425   5.101
58076SOL    HW276126   0.434   5.438   5.090
58077SOL     OW76127   0.379   2.771   8.607
58077SOL    HW176128   0.326   2.769   8.528
58077SOL    HW276129   0.338   2.838   8.662
58078SOL     OW76130  10.978   0.457  11.734
58078SOL    HW176131  10.988   0.385  11.797
58078SOL    HW276132  10.889   0.490  11.751
58079SOL     OW76133  13.836  13.030   2.507
58079SOL    HW176134  13.769  13.072   2.560
58079SOL    HW276135  13.826  13.069   2.420
58080SOL     OW76136  12.193   1.579  10.392
58080SOL    HW176137  12.104   1.549  10.371
58080SOL    HW276138  12.203   1.660  10.342
58081SOL     OW76139   4.383   8.558   0.006
58081SOL    HW176140   4.466   8.560  14.841
58081SOL    HW276141   4.407   8.561   0.099
58082SOL     OW76142   9.278  14.193   7.560
58082SOL    HW176143   9.348  14.191   7.495
58082SOL    HW276144   9.294  14.272   7.611
58083SOL     OW76145   3.853   0.377   9.017
58083SOL    HW176146   3.871   0.286   9.040
58083SOL    HW276147   3.879   0.426   9.095
58084SOL     OW76148   5.580  12.213   4.934
58084SOL    HW176149   5.620  12.274   4.997
58084SOL    HW276150   5.492  12.198   4.968
58085SOL     OW76151  10.732   1.676   4.726
58085SOL    HW176152  10.659   1.613   4.726
58085SOL    HW276153  10.804   1.629   4.685
58086SOL     OW76154   0.302   4.149  12.130
58086SOL    HW176155   0.336   4.103  12.054
58086SOL    HW276156   0.295   4.240  12.102
58087SOL     OW76157   7.054  12.118   9.821
58087SOL    HW176158   7.033  12.073   9.903
58087SOL    HW276159   7.064  12.048   9.757
58088SOL     OW76160   6.694   0.294   8.091
58088SOL    HW176161   6.602   0.320   8.095
58088SOL    HW276162   6.707   0.264   8.001
58089SOL     OW76163  12.676  10.976  13.982
58089SOL    HW176164  12.727  11.051  14.015
58089SOL    HW276165  12.741  10.920  13.939
58090SOL     OW76166  13.499   8.052  14.835
58090SOL    HW176167  13.484   8.033   0.045
58090SOL    HW276168  13.570   8.116  14.834
58091SOL     OW76169  14.295   5.362   0.198
58091SOL    HW176170  14.203   5.352   0.174
58091SOL    HW276171  14.340   5.295   0.147
58092SOL     OW76172   2.464  12.057  11.710
58092SOL    HW176173   2.466  12.139  11.662
58092SOL    HW276174   2.532  12.003  11.670
58093SOL     OW76175   7.062  14.616   2.697
58093SOL    HW176176   7.016  14.690   2.737
58093SOL    HW276177   6.993  14.555   2.673
58094SOL     OW76178   2.017   1.220  14.340
58094SOL    HW176179   1.949   1.208  14.406
58094SOL    HW276180   2.009   1.312  14.313
58095SOL     OW76181  12.983  13.165  12.958
58095SOL    HW176182  12.974  13.181  13.052
58095SOL    HW276183  12.926  13.230  12.917
58096SOL     OW76184   8.823   2.101  13.879
58096SOL    HW176185   8.867   2.070  13.958
58096SOL    HW276186   8.848   2.194  13.873
58097SOL     OW76187   0.054   3.107   1.994
58097SOL    HW176188   0.144   3.102   1.960
58097SOL    HW276189   0.065   3.125   2.088
58098SOL     OW76190  12.422  14.607   1.409
58098SOL    HW176191  12.472  14.554   1.346
58098SOL    HW276192  12.357  14.547   1.444
58099SOL     OW76193   0.708   7.599  14.558
58099SOL    HW176194   0.669   7.650  14.629
58099SOL    HW276195   0.644   7.531  14.539
58100SOL     OW76196   3.301  11.565  14.632
58100SOL    HW176197   3.364  11.605  14.572
58100SOL    HW276198   3.216  11.599  14.604
58101SOL     OW76199  10.791   3.374  10.615
58101SOL    HW176200  10.804   3.396  10.523
58101SOL    HW276201  10.866   3.411  10.660
58102SOL     OW76202   7.556   0.043   5.337
58102SOL    HW176203   7.552  14.835   5.305
58102SOL    HW276204   7.467   0.076   5.329
58103SOL     OW76205   1.079   2.731  11.501
58103SOL    HW176206   1.167   2.723  11.538
58103SOL    HW276207   1.042   2.808  11.544
58104SOL     OW76208   5.385   7.245   4.349
58104SOL    HW176209   5.472   7.264   4.384
58104SOL    HW276210   5.393   7.263   4.255
58105SOL     OW76211  13.917   4.129  12.657
58105SOL    HW176212  13.844   4.130  12.595
58105SOL    HW276213  13.912   4.043  12.698
58106SOL     OW76214   7.260  14.787  10.503
58106SOL    HW176215   7.290  14.698  10.483
58106SOL    HW276216   7.167  14.776  10.522
58107SOL     OW76217   9.176  11.552   7.975
58107SOL    HW176218   9.201  11.645   7.978
58107SOL    HW276219   9.090  11.552   7.934
58108SOL     OW76220  10.540   3.073   3.868
58108SOL    HW176221  10.587   3.058   3.950
58108SOL    HW276222  10.609   3.092   3.804
58109SOL     OW76223   9.954   2.172   3.112
58109SOL    HW176224   9.978   2.196   3.201
58109SOL    HW276225   9.859   2.159   3.115
58110SOL     OW76226   6.720   7.059   7.522
58110SOL    HW176227   6.749   7.128   7.581
58110SOL    HW276228   6.787   6.991   7.529
58111SOL     OW76229   9.894   3.031   9.239
58111SOL    HW176230   9.811   2.995   9.206
58111SOL    HW276231   9.925   3.088   9.169
58112SOL     OW76232  10.592   7.307  10.979
58112SOL    HW176233  10.631   7.257  11.051
58112SOL    HW276234  10.643   7.388  10.975
58113SOL     OW76235   0.763   1.918   1.114
58113SOL    HW176236   0.719   1.984   1.167
58113SOL    HW276237   0.779   1.846   1.175
58114SOL     OW76238   5.908  13.516   6.090
58114SOL    HW176239   5.951  13.483   6.011
58114SOL    HW276240   5.962  13.483   6.162
58115SOL     OW76241   4.504  13.860   7.682
58115SOL    HW176242   4.464  13.877   7.597
58115SOL    HW276243   4.596  13.843   7.663
58116SOL     OW76244  13.570  12.985   5.782
58116SOL    HW176245  13.481  12.949   5.784
58116SOL    HW276246  13.570  13.054   5.848
58117SOL     OW76247   1.647   6.559   1.032
58117SOL    HW176248   1.660   6.465   1.020
58117SOL    HW276249   1.623   6.591   0.945
58118SOL     OW76250   8.881   2.276  10.345
58118SOL    HW176251   8.930   2.293  10.426
58118SOL    HW276252   8.945   2.291  10.275
58119SOL     OW76253   0.825   6.322   5.195
58119SOL    HW176254   0.870   6.243   5.164
58119SOL    HW276255   0.867   6.342   5.279
58120SOL     OW76256  10.896   4.074   8.902
58120SOL    HW176257  10.988   4.085   8.927
58120SOL    HW276258  10.848   4.079   8.985
58121SOL     OW76259   4.841   9.360   6.974
58121SOL    HW176260   4.867   9.267   6.971
58121SOL    HW276261   4.924   9.407   6.986
58122SOL     OW76262   6.837   3.565   6.979
58122SOL    HW176263   6.887   3.487   6.958
58122SOL    HW276264   6.897   3.621   7.029
58123SOL     OW76265   0.663  12.354   6.382
58123SOL    HW176266   0.754  12.338   6.404
58123SOL    HW276267   0.663  12.370   6.287
58124SOL     OW76268   4.807  11.055   0.494
58124SOL    HW176269   4.743  11.058   0.424
58124SOL    HW276270   4.845  10.967   0.488
58125SOL     OW76271   8.342  12.519   3.214
58125SOL    HW176272   8.254  12.494   3.185
58125SOL    HW276273   8.387  12.435   3.228
58126SOL     OW76274   5.531   0.206   5.090
58126SOL    HW176275   5.511   0.284   5.142
58126SOL    HW276276   5.613   0.227   5.046
58127SOL     OW76277  12.027  14.216   1.070
58127SOL    HW176278  12.047  14.293   1.124
58127SOL    HW276279  12.050  14.244   0.981
58128SOL     OW76280   5.475   3.097  12.924
58128SOL    HW176281   5.567   3.073  12.936
58128SOL    HW276282   5.442   3.033  12.860
58129SOL     OW76283   3.431   1.454  12.720
58129SOL    HW176284   3.421   1.542  12.756
58129SOL    HW276285   3.440   1.467  12.626
58130SOL     OW76286  12.437  14.682   4.882
58130SOL    HW176287  12.342  14.676   4.876
58130SOL    HW276288  12.466  14.696   4.792
58131SOL     OW76289   1.689  14.599  11.550
58131SOL    HW176290   1.708  14.687  11.583
58131SOL    HW276291   1.754  14.584  11.482
58132SOL     OW76292   7.379   5.812   5.570
58132SOL    HW176293   7.328   5.794   5.649
58132SOL    HW276294   7.469   5.792   5.595
58133SOL     OW76295   5.037   3.575  10.122
58133SOL    HW176296   5.057   3.631  10.197
58133SOL    HW276297   4.999   3.635  10.057
58134SOL     OW76298   8.997   9.900  10.702
58134SOL    HW176299   8.924   9.842  10.683
58134SOL    HW276300   8.966   9.955  10.775
58135SOL     OW76301   0.184   6.744   5.364
58135SOL    HW176302   0.192   6.652   5.388
58135SOL    HW276303   0.099   6.751   5.322
58136SOL     OW76304  12.828   0.525   1.510
58136SOL    HW176305  12.791   0.482   1.433
58136SOL    HW276306  12.819   0.618   1.493
58137SOL     OW76307   0.224   8.246   1.589
58137SOL    HW176308   0.221   8.327   1.538
58137SOL    HW276309   0.137   8.207   1.578
58138SOL     OW76310   0.086   4.766   1.388
58138SOL    HW176311   0.094   4.860   1.405
58138SOL    HW276312  14.874   4.749   1.385
58139SOL     OW76313   1.316   7.431   2.339
58139SOL    HW176314   1.225   7.405   2.322
58139SOL    HW276315   1.315   7.467   2.427
58140SOL     OW76316   8.875   6.128   2.717
58140SOL    HW176317   8.902   6.109   2.627
58140SOL    HW276318   8.812   6.200   2.708
58141SOL     OW76319   8.344   9.243  12.883
58141SOL    HW176320   8.306   9.164  12.846
58141SOL    HW276321   8.437   9.224  12.891
58142SOL     OW76322   0.293   4.381   9.954
58142SOL    HW176323   0.357   4.314   9.978
58142SOL    HW276324   0.297   4.445  10.026
58143SOL     OW76325   7.086   7.321   8.539
58143SOL    HW176326   7.176   7.304   8.565
58143SOL    HW276327   7.034   7.254   8.585
58144SOL     OW76328   8.245   5.518   6.602
58144SOL    HW176329   8.221   5.609   6.588
58144SOL    HW276330   8.306   5.498   6.531
58145SOL     OW76331  11.863  11.507   3.051
58145SOL    HW176332  11.782  11.555   3.065
58145SOL    HW276333  11.853  11.426   3.101
58146SOL     OW76334   6.559   3.845   4.638
58146SOL    HW176335   6.615   3.767   4.637
58146SOL    HW276336   6.534   3.856   4.729
58147SOL     OW76337   2.833   0.918  13.523
58147SOL    HW176338   2.820   0.862  13.446
58147SOL    HW276339   2.761   0.896  13.581
58148SOL     OW76340   1.527   9.697   8.273
58148SOL    HW176341   1.511   9.620   8.218
58148SOL    HW276342   1.601   9.741   8.232
58149SOL     OW76343   5.480   1.894   3.821
58149SOL    HW176344   5.527   1.825   3.866
58149SOL    HW276345   5.541   1.926   3.755
58150SOL     OW76346   3.360  12.569   8.683
58150SOL    HW176347   3.297  12.604   8.746
58150SOL    HW276348   3.308  12.551   8.605
58151SOL     OW76349  13.132   3.792   1.142
58151SOL    HW176350  13.075   3.730   1.097
58151SOL    HW276351  13.217   3.781   1.099
58152SOL     OW76352  12.567   9.190  10.981
58152SOL    HW176353  12.497   9.251  10.959
58152SOL    HW276354  12.524   9.122  11.034
58153SOL     OW76355   9.105   0.482  13.159
58153SOL    HW176356   9.069   0.487  13.070
58153SOL    HW276357   9.138   0.571  13.176
58154SOL     OW76358   5.311   8.543   8.410
58154SOL    HW176359   5.249   8.515   8.477
58154SOL    HW276360   5.291   8.489   8.333
58155SOL     OW76361   7.201   0.085   1.514
58155SOL    HW176362   7.244   0.164   1.546
58155SOL    HW276363   7.268   0.016   1.519
58156SOL     OW76364   5.573   7.858   0.579
58156SOL    HW176365   5.604   7.795   0.514
58156SOL    HW276366   5.643   7.861   0.644
58157SOL     OW76367   3.121  12.278   5.203
58157SOL    HW176368   3.194  12.284   5.141
58157SOL    HW276369   3.111  12.184   5.218
58158SOL     OW76370  11.211   0.804   6.187
58158SOL    HW176371  11.180   0.854   6.262
58158SOL    HW276372  11.158   0.725   6.187
58159SOL     OW76373   7.914   2.884  10.238
58159SOL    HW176374   7.984   2.887  10.173
58159SOL    HW276375   7.938   2.951  10.302
58160SOL     OW76376  12.930   1.828  13.360
58160SOL    HW176377  12.976   1.834  13.277
58160SOL    HW276378  12.996   1.849  13.426
58161SOL     OW76379   4.269   9.443   9.042
58161SOL    HW176380   4.246   9.496   9.119
58161SOL    HW276381   4.325   9.500   8.990
58162SOL     OW76382  10.089   3.027  10.473
58162SOL    HW176383  10.150   3.073  10.415
58162SOL    HW276384  10.129   2.941  10.486
58163SOL     OW76385   1.546   8.793   0.295
58163SOL    HW176386   1.556   8.726   0.227
58163SOL    HW276387   1.453   8.815   0.293
58164SOL     OW76388  13.226  11.948   5.318
58164SOL    HW176389  13.289  11.995   5.263
58164SOL    HW276390  13.205  11.869   5.268
58165SOL     OW76391  13.706   5.251  13.525
58165SOL    HW176392  13.777   5.197  13.489
58165SOL    HW276393  13.663   5.194  13.588
58166SOL     OW76394  11.310   8.348  13.114
58166SOL    HW176395  11.353   8.335  13.029
58166SOL    HW276396  11.379   8.382  13.171
58167SOL     OW76397   3.119  11.508   3.450
58167SOL    HW176398   3.189  11.479   3.392
58167SOL    HW276399   3.123  11.449   3.525
58168SOL     OW76400   3.043  10.515   1.746
58168SOL    HW176401   3.117  10.570   1.719
58168SOL    HW276402   3.073  10.425   1.732
58169SOL     OW76403  12.090   2.371  13.498
58169SOL    HW176404  12.014   2.320  13.526
58169SOL    HW276405  12.054   2.435  13.436
58170SOL     OW76406   5.404   2.047   0.070
58170SOL    HW176407   5.467   2.011   0.132
58170SOL    HW276408   5.339   1.979   0.058
58171SOL     OW76409   3.031   7.384   1.190
58171SOL    HW176410   3.126   7.372   1.181
58171SOL    HW276411   3.012   7.357   1.280
58172SOL     OW76412   2.984  12.271   1.560
58172SOL    HW176413   3.065  12.293   1.605
58172SOL    HW276414   2.990  12.317   1.476
58173SOL     OW76415   0.348  11.433   1.226
58173SOL    HW176416   0.352  11.344   1.260
58173SOL    HW276417   0.438  11.453   1.199
58174SOL     OW76418   9.764   5.783  11.715
58174SOL    HW176419   9.786   5.692  11.695
58174SOL    HW276420   9.768   5.789  11.811
58175SOL     OW76421  12.709  10.249   1.095
58175SOL    HW176422  12.645  10.317   1.116
58175SOL    HW276423  12.786  10.273   1.147
58176SOL     OW76424  11.967   2.977  13.609
58176SOL    HW176425  12.059   2.967  13.636
58176SOL    HW276426  11.970   2.974  13.513
58177SOL     OW76427   0.347   4.557   7.250
58177SOL    HW176428   0.392   4.583   7.170
58177SOL    HW276429   0.257   4.589   7.239
58178SOL     OW76430   2.052  11.227  10.157
58178SOL    HW176431   2.070  11.317  10.129
58178SOL    HW276432   1.973  11.234  10.211
58179SOL     OW76433   8.973   6.742   0.923
58179SOL    HW176434   8.969   6.809   0.991
58179SOL    HW276435   9.066   6.721   0.916
58180SOL     OW76436   0.583  12.475   7.259
58180SOL    HW176437   0.659  12.523   7.226
58180SOL    HW276438   0.595  12.385   7.227
58181SOL     OW76439   6.159   8.633  11.810
58181SOL    HW176440   6.241   8.655  11.854
58181SOL    HW276441   6.090   8.658  11.871
58182SOL     OW76442   4.604  14.451   4.248
58182SOL    HW176443   4.634  14.369   4.208
58182SOL    HW276444   4.659  14.519   4.207
58183SOL     OW76445   2.781   8.519  14.126
58183SOL    HW176446   2.794   8.473  14.209
58183SOL    HW276447   2.779   8.450  14.060
58184SOL     OW76448   1.629  10.190   8.967
58184SOL    HW176449   1.695  10.239   8.918
58184SOL    HW276450   1.675  10.157   9.044
58185SOL     OW76451   9.220   1.916   1.769
58185SOL    HW176452   9.293   1.860   1.744
58185SOL    HW276453   9.258   2.004   1.775
58186SOL     OW76454   0.527   3.504   4.783
58186SOL    HW176455   0.578   3.585   4.780
58186SOL    HW276456   0.592   3.434   4.784
58187SOL     OW76457   3.749   1.815   2.979
58187SOL    HW176458   3.817   1.758   2.942
58187SOL    HW276459   3.668   1.768   2.966
58188SOL     OW76460  14.169   2.977  11.731
58188SOL    HW176461  14.157   3.070  11.709
58188SOL    HW276462  14.258   2.958  11.703
58189SOL     OW76463  13.452   5.239   4.740
58189SOL    HW176464  13.386   5.215   4.805
58189SOL    HW276465  13.517   5.169   4.745
58190SOL     OW76466  14.243  10.568  13.184
58190SOL    HW176467  14.253  10.475  13.164
58190SOL    HW276468  14.198  10.604  13.108
58191SOL     OW76469   2.851  10.473   5.664
58191SOL    HW176470   2.917  10.508   5.725
58191SOL    HW276471   2.898  10.462   5.582
58192SOL     OW76472   0.123   9.814   3.305
58192SOL    HW176473   0.191   9.881   3.296
58192SOL    HW276474   0.064   9.829   3.231
58193SOL     OW76475   6.729   0.264  10.315
58193SOL    HW176476   6.716   0.233  10.404
58193SOL    HW276477   6.779   0.345  10.325
58194SOL     OW76478  13.693  10.463  11.552
58194SOL    HW176479  13.631  10.398  11.519
58194SOL    HW276480  13.741  10.417  11.622
58195SOL     OW76481   0.278   1.030   5.957
58195SOL    HW176482   0.251   0.963   5.894
58195SOL    HW276483   0.231   1.008   6.037
58196SOL     OW76484   8.449   0.685  10.856
58196SOL    HW176485   8.435   0.700  10.763
58196SOL    HW276486   8.514   0.614  10.859
58197SOL     OW76487  10.553   3.418   2.308
58197SOL    HW176488  10.597   3.500   2.286
58197SOL    HW276489  10.622   3.352   2.304
58198SOL     OW76490   3.706   6.104   5.712
58198SOL    HW176491   3.657   6.024   5.732
58198SOL    HW276492   3.732   6.093   5.620
58199SOL     OW76493  12.724   5.768  10.636
58199SOL    HW176494  12.740   5.694  10.578
58199SOL    HW276495  12.788   5.758  10.706
58200SOL     OW76496   8.679   4.372  11.194
58200SOL    HW176497   8.632   4.310  11.137
58200SOL    HW276498   8.712   4.318  11.266
58201SOL     OW76499   8.525  13.759  12.831
58201SOL    HW176500   8.486  13.673  12.846
58201SOL    HW276501   8.607  13.740  12.786
58202SOL     OW76502   7.767   8.377   5.005
58202SOL    HW176503   7.774   8.327   4.924
58202SOL    HW276504   7.777   8.468   4.978
58203SOL     OW76505   1.075   6.121  12.079
58203SOL    HW176506   1.010   6.177  12.122
58203SOL    HW276507   1.038   6.033  12.084
58204SOL     OW76508   0.728   4.663   1.915
58204SOL    HW176509   0.665   4.732   1.935
58204SOL    HW276510   0.726   4.655   1.820
58205SOL     OW76511   4.565   0.658  10.344
58205SOL    HW176512   4.561   0.567  10.373
58205SOL    HW276513   4.545   0.709  10.422
58206SOL     OW76514  11.727   6.618   7.638
58206SOL    HW176515  11.725   6.563   7.560
58206SOL    HW276516  11.655   6.585   7.692
58207SOL     OW76517  11.363  10.180   4.295
58207SOL    HW176518  11.452  10.166   4.329
58207SOL    HW276519  11.308  10.121   4.347
58208SOL     OW76520   1.932   1.844   7.530
58208SOL    HW176521   2.020   1.831   7.566
58208SOL    HW276522   1.922   1.939   7.523
58209SOL     OW76523   2.220  12.354   6.671
58209SOL    HW176524   2.305  12.314   6.690
58209SOL    HW276525   2.242  12.433   6.621
58210SOL     OW76526   1.817  14.510   7.892
58210SOL    HW176527   1.768  14.450   7.835
58210SOL    HW276528   1.909  14.493   7.871
58211SOL     OW76529  14.706   7.709   5.491
58211SOL    HW176530  14.725   7.748   5.576
58211SOL    HW276531  14.615   7.679   5.498
58212SOL     OW76532  12.464   4.748   8.080
58212SOL    HW176533  12.400   4.813   8.052
58212SOL    HW276534  12.504   4.786   8.158
58213SOL     OW76535   7.771   0.145   3.746
58213SOL    HW176536   7.688   0.188   3.729
58213SOL    HW276537   7.750   0.076   3.810
58214SOL     OW76538   8.907   8.179  10.062
58214SOL    HW176539   8.826   8.162  10.013
58214SOL    HW276540   8.975   8.184   9.995
58215SOL     OW76541  11.056   1.187   0.938
58215SOL    HW176542  11.110   1.191   0.859
58215SOL    HW276543  11.099   1.246   1.000
58216SOL     OW76544  13.417   2.741  10.459
58216SOL    HW176545  13.369   2.757  10.541
58216SOL    HW276546  13.349   2.744  10.391
58217SOL     OW76547  12.995   9.935   4.015
58217SOL    HW176548  12.974   9.891   3.933
58217SOL    HW276549  12.956  10.022   4.007
58218SOL     OW76550  14.809   7.337   8.963
58218SOL    HW176551  14.828   7.277   9.035
58218SOL    HW276552  14.821   7.424   9.000
58219SOL     OW76553   5.220  11.206   6.234
58219SOL    HW176554   5.299  11.256   6.214
58219SOL    HW276555   5.204  11.220   6.327
58220SOL     OW76556  14.673   6.479   2.497
58220SOL    HW176557  14.762   6.461   2.466
58220SOL    HW276558  14.626   6.396   2.482
58221SOL     OW76559   4.831   8.833   6.383
58221SOL    HW176560   4.834   8.922   6.346
58221SOL    HW276561   4.778   8.783   6.322
58222SOL     OW76562  10.412   4.490   1.961
58222SOL    HW176563  10.368   4.408   1.937
58222SOL    HW276564  10.409   4.543   1.881
58223SOL     OW76565  12.512   0.883   6.091
58223SOL    HW176566  12.573   0.907   6.162
58223SOL    HW276567  12.525   0.952   6.025
58224SOL     OW76568  12.818   3.258   9.627
58224SOL    HW176569  12.882   3.284   9.560
58224SOL    HW276570  12.734   3.264   9.583
58225SOL     OW76571   7.027  11.421   9.564
58225SOL    HW176572   6.959  11.488   9.560
58225SOL    HW276573   7.012  11.367   9.486
58226SOL     OW76574   3.360   7.283  13.294
58226SOL    HW176575   3.399   7.272  13.207
58226SOL    HW276576   3.369   7.376  13.313
58227SOL     OW76577  13.818  11.940  10.488
58227SOL    HW176578  13.798  12.014  10.431
58227SOL    HW276579  13.759  11.950  10.562
58228SOL     OW76580   1.079   7.410   2.137
58228SOL    HW176581   1.141   7.483   2.137
58228SOL    HW276582   1.065   7.391   2.045
58229SOL     OW76583   8.847  13.015   4.930
58229SOL    HW176584   8.888  13.099   4.948
58229SOL    HW276585   8.844  12.970   5.014
58230SOL     OW76586  14.274   1.763   9.459
58230SOL    HW176587  14.250   1.721   9.541
58230SOL    HW276588  14.252   1.855   9.471
58231SOL     OW76589   6.971   5.247   8.334
58231SOL    HW176590   7.033   5.175   8.348
58231SOL    HW276591   6.885   5.205   8.329
58232SOL     OW76592   9.802  14.283  11.884
58232SOL    HW176593   9.761  14.257  11.802
58232SOL    HW276594   9.736  14.337  11.929
58233SOL     OW76595   1.023   7.334   3.199
58233SOL    HW176596   0.939   7.289   3.195
58233SOL    HW276597   1.060   7.324   3.111
58234SOL     OW76598  12.938  14.128   0.988
58234SOL    HW176599  12.890  14.123   1.071
58234SOL    HW276600  13.027  14.153   1.014
58235SOL     OW76601   5.278   2.711   4.818
58235SOL    HW176602   5.315   2.693   4.732
58235SOL    HW276603   5.312   2.798   4.841
58236SOL     OW76604   9.831   0.510   1.426
58236SOL    HW176605   9.754   0.521   1.371
58236SOL    HW276606   9.818   0.571   1.499
58237SOL     OW76607  13.516   8.502   1.275
58237SOL    HW176608  13.549   8.521   1.362
58237SOL    HW276609  13.531   8.582   1.225
58238SOL     OW76610   1.006  13.785  14.172
58238SOL    HW176611   1.057  13.850  14.221
58238SOL    HW276612   0.982  13.831  14.091
58239SOL     OW76613   4.232   3.775  10.765
58239SOL    HW176614   4.210   3.864  10.738
58239SOL    HW276615   4.288   3.742  10.695
58240SOL     OW76616   8.514   7.603   5.576
58240SOL    HW176617   8.595   7.634   5.618
58240SOL    HW276618   8.544   7.556   5.499
58241SOL     OW76619   4.011   8.630  11.748
58241SOL    HW176620   4.023   8.592  11.661
58241SOL    HW276621   4.095   8.671  11.769
58242SOL     OW76622   4.507  13.546   5.819
58242SOL    HW176623   4.457  13.620   5.784
58242SOL    HW276624   4.442  13.488   5.858
58243SOL     OW76625   6.514   7.140   8.406
58243SOL    HW176626   6.478   7.200   8.341
58243SOL    HW276627   6.563   7.076   8.355
58244SOL     OW76628   0.407   4.296   4.746
58244SOL    HW176629   0.407   4.359   4.674
58244SOL    HW276630   0.387   4.212   4.704
58245SOL     OW76631   8.132   3.060   6.075
58245SOL    HW176632   8.175   3.144   6.056
58245SOL    HW276633   8.039   3.081   6.080
58246SOL     OW76634   5.362   3.701   4.851
58246SOL    HW176635   5.396   3.680   4.764
58246SOL    HW276636   5.392   3.790   4.868
58247SOL     OW76637   1.353  11.942   6.073
58247SOL    HW176638   1.431  11.889   6.089
58247SOL    HW276639   1.372  12.026   6.114
58248SOL     OW76640   1.844   3.872   0.883
58248SOL    HW176641   1.845   3.934   0.810
58248SOL    HW276642   1.883   3.920   0.956
58249SOL     OW76643   2.082   4.518   7.625
58249SOL    HW176644   2.079   4.451   7.556
58249SOL    HW276645   1.995   4.514   7.665
58250SOL     OW76646  12.458  14.699   4.599
58250SOL    HW176647  12.505  14.772   4.558
58250SOL    HW276648  12.390  14.676   4.535
58251SOL     OW76649   0.395   9.351   5.812
58251SOL    HW176650   0.401   9.298   5.733
58251SOL    HW276651   0.340   9.299   5.871
58252SOL     OW76652   7.485  12.029  12.234
58252SOL    HW176653   7.528  12.048  12.151
58252SOL    HW276654   7.548  12.057  12.301
58253SOL     OW76655  12.565   5.807   1.871
58253SOL    HW176656  12.591   5.894   1.902
58253SOL    HW276657  12.516   5.823   1.791
58254SOL     OW76658   4.708   0.575   1.162
58254SOL    HW176659   4.720   0.549   1.070
58254SOL    HW276660   4.758   0.510   1.212
58255SOL     OW76661  11.988   2.652  11.296
58255SOL    HW176662  11.917   2.614  11.245
58255SOL    HW276663  11.950   2.665  11.383
58256SOL     OW76664   4.495   8.545   2.435
58256SOL    HW176665   4.492   8.634   2.401
58256SOL    HW276666   4.506   8.556   2.530
58257SOL     OW76667   3.960  13.157  12.940
58257SOL    HW176668   3.905  13.149  12.862
58257SOL    HW276669   4.035  13.210  12.911
58258SOL     OW76670   3.649   0.690   6.382
58258SOL    HW176671   3.700   0.744   6.442
58258SOL    HW276672   3.562   0.686   6.422
58259SOL     OW76673   7.979  11.349  14.527
58259SOL    HW176674   7.998  11.267  14.481
58259SOL    HW276675   8.018  11.417  14.472
58260SOL     OW76676  11.223  14.061   5.297
58260SOL    HW176677  11.161  14.124   5.334
58260SOL    HW276678  11.303  14.073   5.349
58261SOL     OW76679   2.755   4.458   0.032
58261SOL    HW176680   2.745   4.548   0.062
58261SOL    HW276681   2.779   4.466  14.822
58262SOL     OW76682   7.040   2.742   4.079
58262SOL    HW176683   7.035   2.704   3.991
58262SOL    HW276684   7.076   2.830   4.065
58263SOL     OW76685   9.622  12.279   6.534
58263SOL    HW176686   9.622  12.220   6.459
58263SOL    HW276687   9.539  12.326   6.528
58264SOL     OW76688   8.595  13.896   0.322
58264SOL    HW176689   8.589  13.808   0.360
58264SOL    HW276690   8.658  13.885   0.250
58265SOL     OW76691   0.814  13.217   4.127
58265SOL    HW176692   0.818  13.142   4.187
58265SOL    HW276693   0.897  13.213   4.079
58266SOL     OW76694   4.085  11.152   4.288
58266SOL    HW176695   4.097  11.058   4.304
58266SOL    HW276696   4.019  11.156   4.219
58267SOL     OW76697  12.837   8.629   0.796
58267SOL    HW176698  12.814   8.599   0.708
58267SOL    HW276699  12.879   8.714   0.781
58268SOL     OW76700   9.961   0.605   0.027
58268SOL    HW176701   9.891   0.619  14.846
58268SOL    HW276702  10.038   0.584  14.856
58269SOL     OW76703   8.462   6.740   1.197
58269SOL    HW176704   8.401   6.697   1.257
58269SOL    HW276705   8.485   6.822   1.242
58270SOL     OW76706   3.219  10.708  14.512
58270SOL    HW176707   3.147  10.750  14.464
58270SOL    HW276708   3.227  10.622  14.472
58271SOL     OW76709  12.831   2.700   2.452
58271SOL    HW176710  12.892   2.626   2.441
58271SOL    HW276711  12.746   2.664   2.427
58272SOL     OW76712  11.291   9.150   4.323
58272SOL    HW176713  11.378   9.190   4.335
58272SOL    HW276714  11.292   9.116   4.233
58273SOL     OW76715  14.527  11.341   7.860
58273SOL    HW176716  14.442  11.312   7.827
58273SOL    HW276717  14.578  11.261   7.870
58274SOL     OW76718  12.403  13.953  14.095
58274SOL    HW176719  12.474  13.971  14.157
58274SOL    HW276720  12.332  13.920  14.149
58275SOL     OW76721   2.612   2.757   7.139
58275SOL    HW176722   2.548   2.763   7.209
58275SOL    HW276723   2.569   2.705   7.071
58276SOL     OW76724   3.930   6.341   4.189
58276SOL    HW176725   3.931   6.275   4.258
58276SOL    HW276726   4.012   6.390   4.201
58277SOL     OW76727  14.449  11.238   4.696
58277SOL    HW176728  14.490  11.323   4.677
58277SOL    HW276729  14.429  11.201   4.611
58278SOL     OW76730  11.256  14.532   0.457
58278SOL    HW176731  11.333  14.589   0.460
58278SOL    HW276732  11.270  14.468   0.527
58279SOL     OW76733  14.399   9.601   4.919
58279SOL    HW176734  14.343   9.541   4.968
58279SOL    HW276735  14.393   9.684   4.967
58280SOL     OW76736   8.241   3.474   0.868
58280SOL    HW176737   8.170   3.455   0.929
58280SOL    HW276738   8.214   3.434   0.786
58281SOL     OW76739   1.999   9.922  10.669
58281SOL    HW176740   1.951   9.979  10.728
58281SOL    HW276741   2.034   9.853  10.725
58282SOL     OW76742   3.389   0.641  13.815
58282SOL    HW176743   3.301   0.662  13.783
58282SOL    HW276744   3.401   0.549  13.794
58283SOL     OW76745   9.253   3.672   0.017
58283SOL    HW176746   9.189   3.743   0.007
58283SOL    HW276747   9.200   3.597   0.045
58284SOL     OW76748   7.050   0.107   2.263
58284SOL    HW176749   6.994   0.185   2.261
58284SOL    HW276750   7.139   0.142   2.269
58285SOL     OW76751   5.346   4.002   9.135
58285SOL    HW176752   5.352   4.097   9.145
58285SOL    HW276753   5.258   3.987   9.101
58286SOL     OW76754  11.845   7.195   4.133
58286SOL    HW176755  11.861   7.282   4.170
58286SOL    HW276756  11.873   7.135   4.202
58287SOL     OW76757   7.577   2.936   3.483
58287SOL    HW176758   7.577   3.026   3.452
58287SOL    HW276759   7.670   2.914   3.491
58288SOL     OW76760   3.123   3.954   5.507
58288SOL    HW176761   3.044   3.905   5.529
58288SOL    HW276762   3.100   4.046   5.521
58289SOL     OW76763   0.563  14.420   8.280
58289SOL    HW176764   0.546  14.432   8.373
58289SOL    HW276765   0.571  14.325   8.269
58290SOL     OW76766   6.138  14.648   3.772
58290SOL    HW176767   6.057  14.650   3.722
58290SOL    HW276768   6.116  14.597   3.851
58291SOL     OW76769   6.408  14.480  14.832
58291SOL    HW176770   6.397  14.441   0.037
58291SOL    HW276771   6.489  14.530  14.838
58292SOL     OW76772   6.160   9.347   3.615
58292SOL    HW176773   6.172   9.351   3.710
58292SOL    HW276774   6.181   9.436   3.585
58293SOL     OW76775   9.745   5.546  14.849
58293SOL    HW176776   9.801   5.621  14.830
58293SOL    HW276777   9.692   5.574   0.042
58294SOL     OW76778  11.816   1.712   4.653
58294SOL    HW176779  11.906   1.683   4.665
58294SOL    HW276780  11.788   1.740   4.740
58295SOL     OW76781   2.401  10.589   5.196
58295SOL    HW176782   2.444  10.512   5.233
58295SOL    HW276783   2.428  10.661   5.254
58296SOL     OW76784   4.899  11.151   9.349
58296SOL    HW176785   4.983  11.153   9.395
58296SOL    HW276786   4.906  11.220   9.284
58297SOL     OW76787  13.676   7.174   9.209
58297SOL    HW176788  13.700   7.158   9.300
58297SOL    HW276789  13.589   7.214   9.214
58298SOL     OW76790   8.828   1.877   8.790
58298SOL    HW176791   8.775   1.922   8.725
58298SOL    HW276792   8.880   1.814   8.739
58299SOL     OW76793  14.335   1.844   9.032
58299SOL    HW176794  14.318   1.777   9.098
58299SOL    HW276795  14.271   1.913   9.050
58300SOL     OW76796   8.467  10.446   0.249
58300SOL    HW176797   8.556  10.409   0.253
58300SOL    HW276798   8.446  10.447   0.156
58301SOL     OW76799   9.318   7.437  11.680
58301SOL    HW176800   9.273   7.410  11.600
58301SOL    HW276801   9.301   7.366  11.742
58302SOL     OW76802  13.193   0.780   6.133
58302SOL    HW176803  13.156   0.847   6.191
58302SOL    HW276804  13.269   0.746   6.180
58303SOL     OW76805   2.054  13.761   4.779
58303SOL    HW176806   2.107  13.754   4.858
58303SOL    HW276807   2.118  13.761   4.707
58304SOL     OW76808   3.779  14.035   9.318
58304SOL    HW176809   3.730  13.956   9.295
58304SOL    HW276810   3.801  14.025   9.410
58305SOL     OW76811   0.880   8.470   6.017
58305SOL    HW176812   0.787   8.473   5.995
58305SOL    HW276813   0.915   8.552   5.981
58306SOL     OW76814   9.507   2.130  14.198
58306SOL    HW176815   9.523   2.220  14.228
58306SOL    HW276816   9.521   2.134  14.103
58307SOL     OW76817  14.511   6.400   9.047
58307SOL    HW176818  14.550   6.484   9.026
58307SOL    HW276819  14.456   6.417   9.123
58308SOL     OW76820   9.847   2.923   3.142
58308SOL    HW176821   9.909   2.852   3.128
58308SOL    HW276822   9.779   2.910   3.076
58309SOL     OW76823   8.440   2.996  14.211
58309SOL    HW176824   8.404   3.054  14.144
58309SOL    HW276825   8.463   2.916  14.163
58310SOL     OW76826   3.000  14.752   1.478
58310SOL    HW176827   2.943  14.698   1.424
58310SOL    HW276828   3.062  14.691   1.517
58311SOL     OW76829  12.540  13.644   4.415
58311SOL    HW176830  12.520  13.602   4.499
58311SOL    HW276831  12.472  13.710   4.405
58312SOL     OW76832   7.125   5.067   9.666
58312SOL    HW176833   7.155   5.029   9.583
58312SOL    HW276834   7.113   4.992   9.724
58313SOL     OW76835  10.739   2.527  12.705
58313SOL    HW176836  10.646   2.513  12.692
58313SOL    HW276837  10.781   2.475  12.635
58314SOL     OW76838  11.177   0.031   8.725
58314SOL    HW176839  11.208   0.110   8.770
58314SOL    HW276840  11.194  14.842   8.787
58315SOL     OW76841   4.328   6.769   2.568
58315SOL    HW176842   4.358   6.729   2.486
58315SOL    HW276843   4.398   6.829   2.593
58316SOL     OW76844  14.371  13.145  13.686
58316SOL    HW176845  14.424  13.209  13.637
58316SOL    HW276846  14.426  13.067  13.690
58317SOL     OW76847  14.203   6.081  14.615
58317SOL    HW176848  14.179   6.003  14.565
58317SOL    HW276849  14.163   6.068  14.701
58318SOL     OW76850   4.407   0.065  11.764
58318SOL    HW176851   4.336   0.026  11.815
58318SOL    HW276852   4.374   0.068  11.675
58319SOL     OW76853  14.874   2.565   7.776
58319SOL    HW176854   0.045   2.636   7.812
58319SOL    HW276855  14.784   2.595   7.787
58320SOL     OW76856   9.218   2.792   9.395
58320SOL    HW176857   9.133   2.783   9.437
58320SOL    HW276858   9.281   2.780   9.466
58321SOL     OW76859   6.418   2.747   8.177
58321SOL    HW176860   6.398   2.745   8.271
58321SOL    HW276861   6.400   2.658   8.147
58322SOL     OW76862  11.798  10.668   2.713
58322SOL    HW176863  11.886  10.705   2.699
58322SOL    HW276864  11.777  10.691   2.804
58323SOL     OW76865  12.753  12.691  14.769
58323SOL    HW176866  12.827  12.735  14.728
58323SOL    HW276867  12.783  12.601  14.784
58324SOL     OW76868  12.845   7.285   3.243
58324SOL    HW176869  12.863   7.357   3.302
58324SOL    HW276870  12.817   7.213   3.300
58325SOL     OW76871  12.564  13.074  11.488
58325SOL    HW176872  12.618  13.000  11.517
58325SOL    HW276873  12.534  13.114  11.570
58326SOL     OW76874  13.446  10.561   7.276
58326SOL    HW176875  13.437  10.466   7.274
58326SOL    HW276876  13.499  10.579   7.354
58327SOL     OW76877   5.620   8.279   1.169
58327SOL    HW176878   5.705   8.239   1.186
58327SOL    HW276879   5.593   8.245   1.084
58328SOL     OW76880   1.758  12.519   9.703
58328SOL    HW176881   1.800  12.491   9.785
58328SOL    HW276882   1.680  12.464   9.697
58329SOL     OW76883   4.078   4.850   8.860
58329SOL    HW176884   4.121   4.881   8.939
58329SOL    HW276885   3.985   4.867   8.875
58330SOL     OW76886   2.622  10.092  14.200
58330SOL    HW176887   2.710  10.113  14.169
58330SOL    HW276888   2.625   9.998  14.218
58331SOL     OW76889   9.377   0.536  13.519
58331SOL    HW176890   9.450   0.503  13.465
58331SOL    HW276891   9.411   0.535  13.608
58332SOL     OW76892   3.403   9.817  12.300
58332SOL    HW176893   3.409   9.903  12.260
58332SOL    HW276894   3.314   9.788  12.283
58333SOL     OW76895   6.215   3.487   7.734
58333SOL    HW176896   6.288   3.548   7.720
58333SOL    HW276897   6.138   3.536   7.706
58334SOL     OW76898   7.861  11.923   9.044
58334SOL    HW176899   7.836  11.850   8.986
58334SOL    HW276900   7.783  11.978   9.048
58335SOL     OW76901  10.356  13.711  12.210
58335SOL    HW176902  10.300  13.763  12.151
58335SOL    HW276903  10.438  13.701  12.162
58336SOL     OW76904   1.870  13.638  10.947
58336SOL    HW176905   1.824  13.711  10.906
58336SOL    HW276906   1.956  13.673  10.970
58337SOL     OW76907   8.001   8.542   1.865
58337SOL    HW176908   8.057   8.616   1.841
58337SOL    HW276909   7.993   8.491   1.785
58338SOL     OW76910  13.813   0.316   0.155
58338SOL    HW176911  13.832   0.265   0.075
58338SOL    HW276912  13.847   0.261   0.226
58339SOL     OW76913  13.835  11.039  13.090
58339SOL    HW176914  13.823  11.063  13.182
58339SOL    HW276915  13.746  11.031  13.056
58340SOL     OW76916   3.482   6.191   9.638
58340SOL    HW176917   3.575   6.171   9.628
58340SOL    HW276918   3.438   6.106   9.631
58341SOL     OW76919   4.834   4.315   4.482
58341SOL    HW176920   4.850   4.392   4.427
58341SOL    HW276921   4.870   4.339   4.567
58342SOL     OW76922   2.554   9.120  11.059
58342SOL    HW176923   2.593   9.134  10.973
58342SOL    HW276924   2.581   9.032  11.084
58343SOL     OW76925  14.197  14.008  11.461
58343SOL    HW176926  14.124  13.949  11.481
58343SOL    HW276927  14.262  13.988  11.528
58344SOL     OW76928  12.098   9.484   3.194
58344SOL    HW176929  12.060   9.436   3.268
58344SOL    HW276930  12.046   9.455   3.118
58345SOL     OW76931   3.649   7.390   1.766
58345SOL    HW176932   3.646   7.374   1.671
58345SOL    HW276933   3.685   7.478   1.775
58346SOL     OW76934  14.543   7.828   2.677
58346SOL    HW176935  14.495   7.810   2.597
58346SOL    HW276936  14.546   7.744   2.723
58347SOL     OW76937   4.818   1.921   9.229
58347SOL    HW176938   4.723   1.913   9.224
58347SOL    HW276939   4.851   1.869   9.156
58348SOL     OW76940   5.442   3.038  13.868
58348SOL    HW176941   5.442   2.942  13.877
58348SOL    HW276942   5.453   3.052  13.774
58349SOL     OW76943  10.664   4.959  10.968
58349SOL    HW176944  10.583   5.004  10.990
58349SOL    HW276945  10.681   4.984  10.877
58350SOL     OW76946   8.304   7.591  14.697
58350SOL    HW176947   8.345   7.521  14.646
58350SOL    HW276948   8.286   7.660  14.633
58351SOL     OW76949   3.727   2.104  12.882
58351SOL    HW176950   3.747   2.124  12.790
58351SOL    HW276951   3.769   2.019  12.897
58352SOL     OW76952   1.364  10.498   7.391
58352SOL    HW176953   1.305  10.542   7.330
58352SOL    HW276954   1.318  10.418   7.415
58353SOL     OW76955   2.573   5.501  10.048
58353SOL    HW176956   2.528   5.536   9.971
58353SOL    HW276957   2.507   5.501  10.117
58354SOL     OW76958  12.911  11.789   2.155
58354SOL    HW176959  12.863  11.712   2.184
58354SOL    HW276960  12.858  11.863   2.183
58355SOL     OW76961   1.923   9.184   3.892
58355SOL    HW176962   2.008   9.150   3.920
58355SOL    HW276963   1.928   9.279   3.908
58356SOL     OW76964   3.121   7.335   4.290
58356SOL    HW176965   3.043   7.305   4.243
58356SOL    HW276966   3.099   7.425   4.316
58357SOL     OW76967   1.231   7.584  14.017
58357SOL    HW176968   1.268   7.575  14.105
58357SOL    HW276969   1.227   7.495  13.983
58358SOL     OW76970   8.350  11.514  14.521
58358SOL    HW176971   8.419  11.481  14.463
58358SOL    HW276972   8.275  11.527  14.464
58359SOL     OW76973  10.363   9.436   9.147
58359SOL    HW176974  10.370   9.485   9.066
58359SOL    HW276975  10.449   9.443   9.188
58360SOL     OW76976  12.743   2.071   0.638
58360SOL    HW176977  12.793   1.994   0.608
58360SOL    HW276978  12.748   2.132   0.565
58361SOL     OW76979   9.292  14.868  13.694
58361SOL    HW176980   9.237  14.795  13.667
58361SOL    HW276981   9.231   0.049  13.733
58362SOL     OW76982  14.310   9.443   9.759
58362SOL    HW176983  14.394   9.400   9.744
58362SOL    HW276984  14.244   9.376   9.737
58363SOL     OW76985  10.510   4.532   3.163
58363SOL    HW176986  10.423   4.566   3.139
58363SOL    HW276987  10.571   4.583   3.109
58364SOL     OW76988   7.664  13.784   3.025
58364SOL    HW176989   7.722  13.856   3.052
58364SOL    HW276990   7.719  13.726   2.973
58365SOL     OW76991   9.126   4.842   5.817
58365SOL    HW176992   9.171   4.922   5.790
58365SOL    HW276993   9.156   4.826   5.907
58366SOL     OW76994  10.380   4.427   0.010
58366SOL    HW176995  10.305   4.451  14.838
58366SOL    HW276996  10.453   4.423  14.830
58367SOL     OW76997  11.922  12.459   1.080
58367SOL    HW176998  11.904  12.405   1.157
58367SOL    HW276999  11.993  12.517   1.107
58368SOL     OW77000   3.758   1.034   0.723
58368SOL    HW177001   3.689   1.069   0.668
58368SOL    HW277002   3.713   1.005   0.803
58369SOL     OW77003  10.625   0.931   7.841
58369SOL    HW177004  10.705   0.963   7.882
58369SOL    HW277005  10.643   0.839   7.822
58370SOL     OW77006   6.218  13.665   1.013
58370SOL    HW177007   6.190  13.645   1.102
58370SOL    HW277008   6.244  13.757   1.016
58371SOL     OW77009   4.350  12.612  12.486
58371SOL    HW177010   4.317  12.604  12.396
58371SOL    HW277011   4.444  12.599  12.478
58372SOL     OW77012  11.580   7.685   0.833
58372SOL    HW177013  11.556   7.773   0.804
58372SOL    HW277014  11.666   7.695   0.873
58373SOL     OW77015  10.508  11.716   6.408
58373SOL    HW177016  10.516  11.734   6.502
58373SOL    HW277017  10.493  11.621   6.404
58374SOL     OW77018   9.185  13.607   1.662
58374SOL    HW177019   9.236  13.537   1.620
58374SOL    HW277020   9.238  13.686   1.649
58375SOL     OW77021   3.405  11.497  12.295
58375SOL    HW177022   3.411  11.590  12.318
58375SOL    HW277023   3.316  11.472  12.319
58376SOL     OW77024  12.918   9.196   1.731
58376SOL    HW177025  13.008   9.178   1.758
58376SOL    HW277026  12.914   9.165   1.641
58377SOL     OW77027  10.122  13.382   9.282
58377SOL    HW177028  10.192  13.442   9.257
58377SOL    HW277029  10.066  13.433   9.340
58378SOL     OW77030   9.907  13.245  14.431
58378SOL    HW177031   9.837  13.305  14.458
58378SOL    HW277032   9.866  13.189  14.364
58379SOL     OW77033   1.927  13.786   5.556
58379SOL    HW177034   1.908  13.754   5.468
58379SOL    HW277035   2.009  13.834   5.547
58380SOL     OW77036  12.342  11.684  14.728
58380SOL    HW177037  12.254  11.673  14.765
58380SOL    HW277038  12.328  11.695  14.634
58381SOL     OW77039  11.768   6.436  11.568
58381SOL    HW177040  11.814   6.355  11.549
58381SOL    HW277041  11.771   6.444  11.663
58382SOL     OW77042   2.809   8.323  13.937
58382SOL    HW177043   2.812   8.317  13.841
58382SOL    HW277044   2.888   8.278  13.966
58383SOL     OW77045  14.149   7.812  12.173
58383SOL    HW177046  14.187   7.833  12.088
58383SOL    HW277047  14.185   7.726  12.196
58384SOL     OW77048   0.421   5.189  12.175
58384SOL    HW177049   0.437   5.273  12.132
58384SOL    HW277050   0.489   5.182  12.242
58385SOL     OW77051   1.218  14.173  11.516
58385SOL    HW177052   1.245  14.174  11.608
58385SOL    HW277053   1.123  14.172  11.519
58386SOL     OW77054   1.538   7.352   3.655
58386SOL    HW177055   1.455   7.389   3.687
58386SOL    HW277056   1.514   7.304   3.576
58387SOL     OW77057   2.500   3.829   8.546
58387SOL    HW177058   2.426   3.879   8.580
58387SOL    HW277059   2.532   3.780   8.622
58388SOL     OW77060   6.915   5.439  12.009
58388SOL    HW177061   6.892   5.346  12.006
58388SOL    HW277062   7.011   5.441  12.006
58389SOL     OW77063   3.257   5.253  10.211
58389SOL    HW177064   3.251   5.277  10.119
58389SOL    HW277065   3.336   5.200  10.217
58390SOL     OW77066  14.232   9.623  12.512
58390SOL    HW177067  14.265   9.711  12.491
58390SOL    HW277068  14.141   9.624  12.483
58391SOL     OW77069   5.857  11.995   0.976
58391SOL    HW177070   5.905  12.005   1.059
58391SOL    HW277071   5.767  11.978   1.003
58392SOL     OW77072   4.465  14.812   5.832
58392SOL    HW177073   4.479  14.796   5.926
58392SOL    HW277074   4.544  14.857   5.803
58393SOL     OW77075   1.745   1.386   1.881
58393SOL    HW177076   1.757   1.417   1.971
58393SOL    HW277077   1.827   1.342   1.859
58394SOL     OW77078   2.962  12.222   8.094
58394SOL    HW177079   2.961  12.257   8.005
58394SOL    HW277080   3.021  12.147   8.090
58395SOL     OW77081   3.208  13.060   4.567
58395SOL    HW177082   3.268  13.019   4.504
58395SOL    HW277083   3.127  13.010   4.560
58396SOL     OW77084   3.094   0.624   8.746
58396SOL    HW177085   3.008   0.646   8.711
58396SOL    HW277086   3.095   0.528   8.749
58397SOL     OW77087   2.399  11.795  10.548
58397SOL    HW177088   2.488  11.820  10.520
58397SOL    HW277089   2.379  11.856  10.619
58398SOL     OW77090  14.776  12.675   7.398
58398SOL    HW177091  14.829  12.703   7.323
58398SOL    HW277092  14.834  12.620   7.450
58399SOL     OW77093  11.690   6.030   5.512
58399SOL    HW177094  11.745   6.091   5.464
58399SOL    HW277095  11.625   6.000   5.449
58400SOL     OW77096  10.814   5.116  12.106
58400SOL    HW177097  10.754   5.182  12.071
58400SOL    HW277098  10.767   5.033  12.097
58401SOL     OW77099   3.123   8.391  11.467
58401SOL    HW177100   3.208   8.375  11.427
58401SOL    HW277101   3.142   8.404  11.560
58402SOL     OW77102   7.929   1.731  12.766
58402SOL    HW177103   8.007   1.730  12.821
58402SOL    HW277104   7.872   1.797  12.805
58403SOL     OW77105  14.328   3.639  12.507
58403SOL    HW177106  14.326   3.605  12.418
58403SOL    HW277107  14.354   3.564  12.561
58404SOL     OW77108   3.065  13.620  12.231
58404SOL    HW177109   3.032  13.623  12.141
58404SOL    HW277110   3.080  13.712  12.253
58405SOL     OW77111   4.136  13.257   5.466
58405SOL    HW177112   4.191  13.294   5.535
58405SOL    HW277113   4.130  13.327   5.400
58406SOL     OW77114   5.778   5.284  14.012
58406SOL    HW177115   5.852   5.343  13.998
58406SOL    HW277116   5.720   5.332  14.071
58407SOL     OW77117  10.056  13.221   7.216
58407SOL    HW177118  10.058  13.219   7.120
58407SOL    HW277119  10.144  13.193   7.242
58408SOL     OW77120   6.895  12.611   3.681
58408SOL    HW177121   6.986  12.587   3.661
58408SOL    HW277122   6.879  12.572   3.767
58409SOL     OW77123  13.603   1.410   8.282
58409SOL    HW177124  13.682   1.385   8.233
58409SOL    HW277125  13.596   1.504   8.269
58410SOL     OW77126   8.733   4.910   8.300
58410SOL    HW177127   8.688   4.855   8.364
58410SOL    HW277128   8.678   4.905   8.222
58411SOL     OW77129   1.778   0.702   6.119
58411SOL    HW177130   1.695   0.731   6.157
58411SOL    HW277131   1.760   0.692   6.026
58412SOL     OW77132   4.646   2.389   6.648
58412SOL    HW177133   4.555   2.419   6.647
58412SOL    HW277134   4.696   2.464   6.615
58413SOL     OW77135   4.189   6.924  10.391
58413SOL    HW177136   4.250   6.863  10.350
58413SOL    HW277137   4.130   6.951  10.321
58414SOL     OW77138   8.378   4.162   6.213
58414SOL    HW177139   8.420   4.146   6.298
58414SOL    HW277140   8.332   4.080   6.193
58415SOL     OW77141  11.308  13.408   6.625
58415SOL    HW177142  11.308  13.350   6.549
58415SOL    HW277143  11.321  13.349   6.700
58416SOL     OW77144   7.317   7.648   2.288
58416SOL    HW177145   7.266   7.655   2.207
58416SOL    HW277146   7.351   7.737   2.302
58417SOL     OW77147   1.680   4.048   9.783
58417SOL    HW177148   1.638   3.982   9.728
58417SOL    HW277149   1.647   4.031   9.871
58418SOL     OW77150   9.765  12.001   1.524
58418SOL    HW177151   9.793  11.942   1.594
58418SOL    HW277152   9.809  11.967   1.446
58419SOL     OW77153   7.176   1.249  10.747
58419SOL    HW177154   7.138   1.241  10.834
58419SOL    HW277155   7.186   1.159  10.717
58420SOL     OW77156   6.907  13.908   6.962
58420SOL    HW177157   6.938  13.857   7.037
58420SOL    HW277158   6.933  13.998   6.982
58421SOL     OW77159   2.071  13.362  13.851
58421SOL    HW177160   2.082  13.268  13.855
58421SOL    HW277161   1.980  13.377  13.876
58422SOL     OW77162  14.853  11.687   6.091
58422SOL    HW177163  14.776  11.645   6.053
58422SOL    HW277164  14.863  11.768   6.041
58423SOL     OW77165   9.830   1.889   6.304
58423SOL    HW177166   9.840   1.865   6.396
58423SOL    HW277167   9.737   1.909   6.294
58424SOL     OW77168   9.035   5.886   2.776
58424SOL    HW177169   9.090   5.904   2.700
58424SOL    HW277170   9.029   5.969   2.823
58425SOL     OW77171  13.778   3.695   2.278
58425SOL    HW177172  13.806   3.693   2.369
58425SOL    HW277173  13.763   3.603   2.255
58426SOL     OW77174   3.257   9.112  14.329
58426SOL    HW177175   3.174   9.093  14.285
58426SOL    HW277176   3.233   9.169  14.402
58427SOL     OW77177   7.045   3.224  11.971
58427SOL    HW177178   6.965   3.172  11.963
58427SOL    HW277179   7.038   3.291  11.903
58428SOL     OW77180   4.329   1.065  10.210
58428SOL    HW177181   4.394   0.998  10.191
58428SOL    HW277182   4.377   1.133  10.257
58429SOL     OW77183   1.612  11.181  11.084
58429SOL    HW177184   1.614  11.226  11.169
58429SOL    HW277185   1.519  11.163  11.069
58430SOL     OW77186  10.021   6.154   3.103
58430SOL    HW177187  10.076   6.232   3.094
58430SOL    HW277188  10.002   6.148   3.196
58431SOL     OW77189   1.531  10.456   8.586
58431SOL    HW177190   1.500  10.471   8.497
58431SOL    HW277191   1.540  10.361   8.593
58432SOL     OW77192  11.056  14.512   2.176
58432SOL    HW177193  11.095  14.593   2.207
58432SOL    HW277194  11.054  14.521   2.081
58433SOL     OW77195   3.717  14.791   5.939
58433SOL    HW177196   3.636  14.742   5.922
58433SOL    HW277197   3.763  14.791   5.855
58434SOL     OW77198   6.396  10.524   2.211
58434SOL    HW177199   6.404  10.462   2.284
58434SOL    HW277200   6.452  10.597   2.237
58435SOL     OW77201   0.005   7.970   5.573
58435SOL    HW177202   0.094   8.004   5.576
58435SOL    HW277203  14.836   8.039   5.532
58436SOL     OW77204   1.975  11.094   3.797
58436SOL    HW177205   1.932  11.169   3.756
58436SOL    HW277206   1.910  11.059   3.858
58437SOL     OW77207   1.261   4.851   8.955
58437SOL    HW177208   1.211   4.806   9.023
58437SOL    HW277209   1.275   4.784   8.887
58438SOL     OW77210   7.904   0.996   2.020
58438SOL    HW177211   7.960   1.004   1.942
58438SOL    HW277212   7.930   0.914   2.061
58439SOL     OW77213  12.490   1.888   9.761
58439SOL    HW177214  12.576   1.870   9.723
58439SOL    HW277215  12.434   1.908   9.686
58440SOL     OW77216   8.205  10.028   1.667
58440SOL    HW177217   8.180  10.011   1.576
58440SOL    HW277218   8.130  10.074   1.704
58441SOL     OW77219   9.318   5.030   0.340
58441SOL    HW177220   9.402   4.987   0.353
58441SOL    HW277221   9.254   4.959   0.339
58442SOL     OW77222   6.795  10.902   7.408
58442SOL    HW177223   6.846  10.910   7.489
58442SOL    HW277224   6.708  10.876   7.437
58443SOL     OW77225   6.796   9.281   2.207
58443SOL    HW177226   6.809   9.200   2.159
58443SOL    HW277227   6.701   9.293   2.208
58444SOL     OW77228  14.562  13.492   1.498
58444SOL    HW177229  14.642  13.456   1.538
58444SOL    HW277230  14.593  13.566   1.446
58445SOL     OW77231  10.130  10.580   0.660
58445SOL    HW177232  10.085  10.585   0.744
58445SOL    HW277233  10.080  10.514   0.611
58446SOL     OW77234  14.805  14.352   7.332
58446SOL    HW177235  14.848  14.347   7.247
58446SOL    HW277236  14.713  14.331   7.314
58447SOL     OW77237  13.237  11.771  12.825
58447SOL    HW177238  13.204  11.758  12.737
58447SOL    HW277239  13.203  11.697  12.875
58448SOL     OW77240   0.035   3.843  11.330
58448SOL    HW177241   0.017   3.754  11.300
58448SOL    HW277242  14.842   3.865  11.386
58449SOL     OW77243  10.417  11.701   3.751
58449SOL    HW177244  10.492  11.688   3.808
58449SOL    HW277245  10.342  11.673   3.803
58450SOL     OW77246  10.064   8.299  12.520
58450SOL    HW177247  10.154   8.307  12.490
58450SOL    HW277248  10.069   8.315  12.615
58451SOL     OW77249  10.708   4.646  11.673
58451SOL    HW177250  10.789   4.693  11.694
58451SOL    HW277251  10.709   4.638  11.577
58452SOL     OW77252   7.265   6.576   1.988
58452SOL    HW177253   7.288   6.503   2.046
58452SOL    HW277254   7.347   6.625   1.978
58453SOL     OW77255   4.494   2.921   1.136
58453SOL    HW177256   4.478   2.995   1.078
58453SOL    HW277257   4.571   2.877   1.100
58454SOL     OW77258   9.370   3.718   0.779
58454SOL    HW177259   9.437   3.689   0.841
58454SOL    HW277260   9.419   3.752   0.705
58455SOL     OW77261  13.863  13.831   6.187
58455SOL    HW177262  13.921  13.793   6.253
58455SOL    HW277263  13.862  13.925   6.207
58456SOL     OW77264   9.733   3.519   3.048
58456SOL    HW177265   9.673   3.489   2.979
58456SOL    HW277266   9.688   3.593   3.088
58457SOL     OW77267   5.659   8.834   7.129
58457SOL    HW177268   5.642   8.927   7.114
58457SOL    HW277269   5.693   8.830   7.219
58458SOL     OW77270  14.300   9.744   7.345
58458SOL    HW177271  14.331   9.778   7.429
58458SOL    HW277272  14.361   9.673   7.324
58459SOL     OW77273  13.834   3.342  11.321
58459SOL    HW177274  13.923   3.333  11.288
58459SOL    HW277275  13.781   3.285  11.265
58460SOL     OW77276   7.743   4.696  12.336
58460SOL    HW177277   7.801   4.676  12.410
58460SOL    HW277278   7.732   4.612  12.290
58461SOL     OW77279  13.669   4.539   8.181
58461SOL    HW177280  13.758   4.506   8.170
58461SOL    HW277281  13.616   4.461   8.200
58462SOL     OW77282   2.298  14.005  11.799
58462SOL    HW177283   2.215  14.047  11.777
58462SOL    HW277284   2.297  13.923  11.748
58463SOL     OW77285  13.416   5.429   0.361
58463SOL    HW177286  13.386   5.354   0.309
58463SOL    HW277287  13.374   5.504   0.319
58464SOL     OW77288   6.787  11.444  14.702
58464SOL    HW177289   6.826  11.419  14.785
58464SOL    HW277290   6.846  11.409  14.635
58465SOL     OW77291   6.257   5.932  10.342
58465SOL    HW177292   6.225   5.965  10.426
58465SOL    HW277293   6.218   5.991  10.277
58466SOL     OW77294   6.145   8.381  11.689
58466SOL    HW177295   6.151   8.465  11.736
58466SOL    HW277296   6.111   8.404  11.603
58467SOL     OW77297  13.939   2.942   4.631
58467SOL    HW177298  13.964   2.855   4.661
58467SOL    HW277299  13.994   3.002   4.681
58468SOL     OW77300   1.730   9.307   1.910
58468SOL    HW177301   1.826   9.309   1.904
58468SOL    HW277302   1.710   9.371   1.978
58469SOL     OW77303   1.072   1.778  13.717
58469SOL    HW177304   1.164   1.754  13.730
58469SOL    HW277305   1.037   1.712  13.657
58470SOL     OW77306   2.292   7.784   5.995
58470SOL    HW177307   2.292   7.698   5.954
58470SOL    HW277308   2.212   7.787   6.047
58471SOL     OW77309  12.437  12.146   3.790
58471SOL    HW177310  12.382  12.188   3.856
58471SOL    HW277311  12.477  12.072   3.836
58472SOL     OW77312   1.912  13.648  13.951
58472SOL    HW177313   1.933  13.561  13.985
58472SOL    HW277314   1.992  13.678  13.909
58473SOL     OW77315   8.855  14.601   1.438
58473SOL    HW177316   8.879  14.529   1.496
58473SOL    HW277317   8.768  14.628   1.467
58474SOL     OW77318  14.154   3.885   9.146
58474SOL    HW177319  14.239   3.842   9.150
58474SOL    HW277320  14.174   3.978   9.158
58475SOL     OW77321   1.840   2.872  11.395
58475SOL    HW177322   1.888   2.856  11.314
58475SOL    HW277323   1.839   2.968  11.404
58476SOL     OW77324   2.409   6.778  13.945
58476SOL    HW177325   2.429   6.856  13.996
58476SOL    HW277326   2.493   6.733  13.936
58477SOL     OW77327   2.866   7.337   4.113
58477SOL    HW177328   2.846   7.402   4.046
58477SOL    HW277329   2.832   7.255   4.077
58478SOL     OW77330  10.316   3.091   5.413
58478SOL    HW177331  10.236   3.140   5.395
58478SOL    HW277332  10.362   3.143   5.479
58479SOL     OW77333   0.586   6.660   6.476
58479SOL    HW177334   0.525   6.604   6.428
58479SOL    HW277335   0.530   6.728   6.513
58480SOL     OW77336  12.865   4.572   9.866
58480SOL    HW177337  12.853   4.631   9.791
58480SOL    HW277338  12.854   4.628   9.943
58481SOL     OW77339   2.719  12.145   9.329
58481SOL    HW177340   2.625  12.163   9.320
58481SOL    HW277341   2.730  12.057   9.294
58482SOL     OW77342   9.043   2.341   7.080
58482SOL    HW177343   9.112   2.352   7.015
58482SOL    HW277344   9.086   2.298   7.154
58483SOL     OW77345  13.840   9.937   8.161
58483SOL    HW177346  13.851   9.980   8.076
58483SOL    HW277347  13.886   9.994   8.223
58484SOL     OW77348  12.107  12.871   9.547
58484SOL    HW177349  12.138  12.796   9.597
58484SOL    HW277350  12.035  12.836   9.494
58485SOL     OW77351   4.390   0.314   2.964
58485SOL    HW177352   4.417   0.237   3.014
58485SOL    HW277353   4.317   0.284   2.911
58486SOL     OW77354   3.791   2.470   4.603
58486SOL    HW177355   3.853   2.406   4.638
58486SOL    HW277356   3.735   2.491   4.678
58487SOL     OW77357   7.508   7.054   0.641
58487SOL    HW177358   7.576   7.121   0.645
58487SOL    HW277359   7.535   6.998   0.568
58488SOL     OW77360   5.260   5.298  13.251
58488SOL    HW177361   5.216   5.332  13.329
58488SOL    HW277362   5.200   5.318  13.179
58489SOL     OW77363   5.961   5.651   3.608
58489SOL    HW177364   6.014   5.656   3.688
58489SOL    HW277365   6.023   5.674   3.538
58490SOL     OW77366  10.004  13.632  12.422
58490SOL    HW177367  10.043  13.551  12.456
58490SOL    HW277368  10.075  13.696  12.423
58491SOL     OW77369   2.441  10.451  10.483
58491SOL    HW177370   2.446  10.360  10.454
58491SOL    HW277371   2.462  10.502  10.405
58492SOL     OW77372   4.371   4.597   3.408
58492SOL    HW177373   4.358   4.579   3.501
58492SOL    HW277374   4.378   4.692   3.402
58493SOL     OW77375   6.940   6.211   6.743
58493SOL    HW177376   6.848   6.225   6.765
58493SOL    HW277377   6.966   6.291   6.698
58494SOL     OW77378  13.177  12.246  13.479
58494SOL    HW177379  13.109  12.255  13.413
58494SOL    HW277380  13.259  12.266  13.434
58495SOL     OW77381   3.513   3.081   8.192
58495SOL    HW177382   3.597   3.041   8.169
58495SOL    HW277383   3.503   3.153   8.130
58496SOL     OW77384   8.254   0.315   0.579
58496SOL    HW177385   8.293   0.403   0.578
58496SOL    HW277386   8.162   0.328   0.556
58497SOL     OW77387   6.440   3.817   2.886
58497SOL    HW177388   6.499   3.826   2.811
58497SOL    HW277389   6.413   3.725   2.883
58498SOL     OW77390   0.177   2.189   2.072
58498SOL    HW177391   0.235   2.177   1.997
58498SOL    HW277392   0.117   2.115   2.068
58499SOL     OW77393  10.391  11.800   2.670
58499SOL    HW177394  10.435  11.779   2.588
58499SOL    HW277395  10.442  11.873   2.707
58500SOL     OW77396   3.903   9.924   3.272
58500SOL    HW177397   3.814   9.946   3.298
58500SOL    HW277398   3.915   9.967   3.188
58501SOL     OW77399   3.052   1.428   8.901
58501SOL    HW177400   3.012   1.503   8.945
58501SOL    HW277401   3.113   1.392   8.966
58502SOL     OW77402   6.969  14.367  14.002
58502SOL    HW177403   6.880  14.401  13.994
58502SOL    HW277404   6.989  14.374  14.095
58503SOL     OW77405   6.513  13.387  13.950
58503SOL    HW177406   6.494  13.312  13.894
58503SOL    HW277407   6.428  13.427  13.966
58504SOL     OW77408  13.133   6.783  11.723
58504SOL    HW177409  13.129   6.713  11.657
58504SOL    HW277410  13.044   6.818  11.726
58505SOL     OW77411  10.579   0.896   6.464
58505SOL    HW177412  10.498   0.862   6.501
58505SOL    HW277413  10.589   0.983   6.503
58506SOL     OW77414   3.452   8.275   9.292
58506SOL    HW177415   3.457   8.241   9.382
58506SOL    HW277416   3.427   8.199   9.240
58507SOL     OW77417   2.176  11.149   9.896
58507SOL    HW177418   2.222  11.224   9.932
58507SOL    HW277419   2.157  11.173   9.805
58508SOL     OW77420   2.631  14.788   2.174
58508SOL    HW177421   2.644  14.694   2.188
58508SOL    HW277422   2.697  14.830   2.230
58509SOL     OW77423   1.106  10.685   6.213
58509SOL    HW177424   1.121  10.748   6.284
58509SOL    HW277425   1.026  10.716   6.170
58510SOL     OW77426  11.110   0.207   1.164
58510SOL    HW177427  11.139   0.241   1.080
58510SOL    HW277428  11.019   0.180   1.150
58511SOL     OW77429  10.936  13.572  12.642
58511SOL    HW177430  10.893  13.487  12.650
58511SOL    HW277431  10.919  13.615  12.726
58512SOL     OW77432  12.723  11.553   3.507
58512SOL    HW177433  12.799  11.581   3.456
58512SOL    HW277434  12.648  11.581   3.455
58513SOL     OW77435  14.355   4.488  10.142
58513SOL    HW177436  14.368   4.503  10.235
58513SOL    HW277437  14.377   4.396  10.129
58514SOL     OW77438   8.725   6.149  14.669
58514SOL    HW177439   8.690   6.066  14.700
58514SOL    HW277440   8.650   6.208  14.668
58515SOL     OW77441  13.386  12.570   3.705
58515SOL    HW177442  13.374  12.662   3.729
58515SOL    HW277443  13.341  12.521   3.774
58516SOL     OW77444   5.084   1.367   0.690
58516SOL    HW177445   5.042   1.373   0.604
58516SOL    HW277446   5.050   1.443   0.738
58517SOL     OW77447  14.434   8.467   8.561
58517SOL    HW177448  14.359   8.434   8.510
58517SOL    HW277449  14.510   8.422   8.523
58518SOL     OW77450  10.772  10.636   5.519
58518SOL    HW177451  10.853  10.673   5.554
58518SOL    HW277452  10.707  10.706   5.528
58519SOL     OW77453   3.059   7.003   1.082
58519SOL    HW177454   3.151   7.004   1.109
58519SOL    HW277455   3.010   7.013   1.164
58520SOL     OW77456   3.751   9.812   2.097
58520SOL    HW177457   3.768   9.724   2.064
58520SOL    HW277458   3.832   9.836   2.143
58521SOL     OW77459  14.119  12.419   8.882
58521SOL    HW177460  14.135  12.329   8.910
58521SOL    HW277461  14.095  12.465   8.963
58522SOL     OW77462   6.004  10.582   2.544
58522SOL    HW177463   5.969  10.499   2.511
58522SOL    HW277464   5.965  10.649   2.487
58523SOL     OW77465   6.059   9.737  13.818
58523SOL    HW177466   6.045   9.670  13.886
58523SOL    HW277467   6.044   9.691  13.736
58524SOL     OW77468   8.755   0.738  10.655
58524SOL    HW177469   8.701   0.673  10.611
58524SOL    HW277470   8.695   0.783  10.715
58525SOL     OW77471   5.250   2.023   6.885
58525SOL    HW177472   5.166   2.007   6.928
58525SOL    HW277473   5.270   2.114   6.905
58526SOL     OW77474   9.383   0.579   3.042
58526SOL    HW177475   9.393   0.484   3.045
58526SOL    HW277476   9.464   0.613   3.081
58527SOL     OW77477   1.840   6.681   1.590
58527SOL    HW177478   1.823   6.670   1.497
58527SOL    HW277479   1.834   6.775   1.605
58528SOL     OW77480   4.974   6.840  14.333
58528SOL    HW177481   4.973   6.763  14.391
58528SOL    HW277482   5.064   6.871  14.337
58529SOL     OW77483   5.579  10.254   4.764
58529SOL    HW177484   5.618  10.167   4.764
58529SOL    HW277485   5.496  10.243   4.718
58530SOL     OW77486  12.565   7.722   6.275
58530SOL    HW177487  12.641   7.673   6.306
58530SOL    HW277488  12.535   7.674   6.198
58531SOL     OW77489   5.170  11.479  10.724
58531SOL    HW177490   5.188  11.386  10.713
58531SOL    HW277491   5.231  11.522  10.665
58532SOL     OW77492   0.503   5.574   7.291
58532SOL    HW177493   0.551   5.654   7.310
58532SOL    HW277494   0.548   5.536   7.216
58533SOL     OW77495   0.764   1.092   4.825
58533SOL    HW177496   0.717   1.037   4.889
58533SOL    HW277497   0.827   1.032   4.784
58534SOL     OW77498   3.342  13.098   7.711
58534SOL    HW177499   3.313  13.088   7.621
58534SOL    HW277500   3.321  13.014   7.753
58535SOL     OW77501  12.940   8.061   5.227
58535SOL    HW177502  12.848   8.040   5.245
58535SOL    HW277503  12.975   8.088   5.311
58536SOL     OW77504   0.408  11.653   0.617
58536SOL    HW177505   0.465  11.727   0.596
58536SOL    HW277506   0.338  11.691   0.670
58537SOL     OW77507  13.938   9.108  10.132
58537SOL    HW177508  13.932   9.199  10.161
58537SOL    HW277509  13.963   9.114  10.040
58538SOL     OW77510   0.105   1.053  13.353
58538SOL    HW177511   0.097   0.959  13.334
58538SOL    HW277512   0.035   1.093  13.302
58539SOL     OW77513  10.643  11.358   0.770
58539SOL    HW177514  10.665  11.267   0.789
58539SOL    HW277515  10.681  11.408   0.842
58540SOL     OW77516  12.902   4.240  11.823
58540SOL    HW177517  12.847   4.318  11.831
58540SOL    HW277518  12.978   4.270  11.774
58541SOL     OW77519  12.919   8.287   8.471
58541SOL    HW177520  12.998   8.319   8.427
58541SOL    HW277521  12.847   8.321   8.418
58542SOL     OW77522   4.913   6.776   8.917
58542SOL    HW177523   4.906   6.745   9.007
58542SOL    HW277524   4.989   6.833   8.916
58543SOL     OW77525   6.598  12.788  11.621
58543SOL    HW177526   6.519  12.836  11.601
58543SOL    HW277527   6.669  12.839  11.581
58544SOL     OW77528  10.107   0.833   4.383
58544SOL    HW177529  10.186   0.816   4.331
58544SOL    HW277530  10.054   0.889   4.326
58545SOL     OW77531   9.287   1.073   8.687
58545SOL    HW177532   9.343   0.997   8.699
58545SOL    HW277533   9.339   1.133   8.634
58546SOL     OW77534  12.326   6.027  12.381
58546SOL    HW177535  12.292   6.110  12.348
58546SOL    HW277536  12.419   6.028  12.359
58547SOL     OW77537  11.704   6.501  13.176
58547SOL    HW177538  11.728   6.593  13.187
58547SOL    HW277539  11.657   6.479  13.257
58548SOL     OW77540   6.232   1.301  11.911
58548SOL    HW177541   6.174   1.331  11.981
58548SOL    HW277542   6.280   1.228  11.949
58549SOL     OW77543  10.441  12.598   7.368
58549SOL    HW177544  10.408  12.651   7.296
58549SOL    HW277545  10.381  12.524   7.373
58550SOL     OW77546   8.651   7.626   0.767
58550SOL    HW177547   8.604   7.548   0.737
58550SOL    HW277548   8.588   7.673   0.821
58551SOL     OW77549   1.857   8.569   9.461
58551SOL    HW177550   1.880   8.490   9.412
58551SOL    HW277551   1.935   8.624   9.457
58552SOL     OW77552  12.515  10.663   8.718
58552SOL    HW177553  12.557  10.621   8.793
58552SOL    HW277554  12.587  10.687   8.661
58553SOL     OW77555  11.630   1.288  12.864
58553SOL    HW177556  11.594   1.331  12.941
58553SOL    HW277557  11.555   1.273  12.807
58554SOL     OW77558   5.773   2.076  14.080
58554SOL    HW177559   5.755   2.018  14.154
58554SOL    HW277560   5.693   2.073  14.028
58555SOL     OW77561  11.713   1.161   9.720
58555SOL    HW177562  11.666   1.087   9.683
58555SOL    HW277563  11.693   1.234   9.661
58556SOL     OW77564   5.129   4.435   3.963
58556SOL    HW177565   5.221   4.441   3.989
58556SOL    HW277566   5.091   4.517   3.995
58557SOL     OW77567   7.169   9.070   2.958
58557SOL    HW177568   7.175   9.096   3.050
58557SOL    HW277569   7.149   9.151   2.912
58558SOL     OW77570   2.491   5.598   9.796
58558SOL    HW177571   2.519   5.679   9.838
58558SOL    HW277572   2.488   5.618   9.702
58559SOL     OW77573   7.844   1.502   3.159
58559SOL    HW177574   7.761   1.474   3.198
58559SOL    HW277575   7.842   1.598   3.164
58560SOL     OW77576   9.033   3.814   4.813
58560SOL    HW177577   9.070   3.742   4.761
58560SOL    HW277578   8.949   3.780   4.844
58561SOL     OW77579   6.655   3.321   7.499
58561SOL    HW177580   6.713   3.391   7.529
58561SOL    HW277581   6.711   3.266   7.444
58562SOL     OW77582   9.143   0.022   6.490
58562SOL    HW177583   9.124   0.023   6.397
58562SOL    HW277584   9.074   0.076   6.529
58563SOL     OW77585  10.419   4.057   2.104
58563SOL    HW177586  10.489   4.036   2.166
58563SOL    HW277587  10.340   4.062   2.157
58564SOL     OW77588   7.880  13.358   0.924
58564SOL    HW177589   7.913  13.268   0.924
58564SOL    HW277590   7.953  13.410   0.889
58565SOL     OW77591  13.164   2.739   4.741
58565SOL    HW177592  13.131   2.820   4.781
58565SOL    HW277593  13.160   2.674   4.811
58566SOL     OW77594   5.781   0.810   9.709
58566SOL    HW177595   5.742   0.897   9.716
58566SOL    HW277596   5.825   0.797   9.792
58567SOL     OW77597   2.516  12.788  12.681
58567SOL    HW177598   2.582  12.852  12.655
58567SOL    HW277599   2.439  12.839  12.702
58568SOL     OW77600  10.014   8.659  11.139
58568SOL    HW177601   9.999   8.752  11.155
58568SOL    HW277602  10.086   8.636  11.198
58569SOL     OW77603   5.698  11.440   9.623
58569SOL    HW177604   5.741  11.473   9.543
58569SOL    HW277605   5.770  11.427   9.685
58570SOL     OW77606  13.465  11.395  14.428
58570SOL    HW177607  13.403  11.467  14.438
58570SOL    HW277608  13.448  11.360  14.341
58571SOL     OW77609   2.356   5.354   7.858
58571SOL    HW177610   2.368   5.359   7.763
58571SOL    HW277611   2.289   5.287   7.871
58572SOL     OW77612   0.975   8.504   5.181
58572SOL    HW177613   0.880   8.497   5.171
58572SOL    HW277614   1.002   8.570   5.118
58573SOL     OW77615  10.487  14.031  10.643
58573SOL    HW177616  10.492  14.125  10.663
58573SOL    HW277617  10.504  13.988  10.727
58574SOL     OW77618   6.708   9.543   5.799
58574SOL    HW177619   6.763   9.480   5.845
58574SOL    HW277620   6.765   9.581   5.733
58575SOL     OW77621   8.669   2.454   4.475
58575SOL    HW177622   8.752   2.498   4.458
58575SOL    HW277623   8.684   2.363   4.448
58576SOL     OW77624  13.819   2.041  13.699
58576SOL    HW177625  13.835   2.004  13.612
58576SOL    HW277626  13.899   2.090  13.719
58577SOL     OW77627  14.031  13.797   6.607
58577SOL    HW177628  13.968  13.826   6.673
58577SOL    HW277629  13.979  13.787   6.527
58578SOL     OW77630   5.549   1.545   9.941
58578SOL    HW177631   5.456   1.556   9.959
58578SOL    HW277632   5.554   1.537   9.845
58579SOL     OW77633  11.775   9.674   5.704
58579SOL    HW177634  11.761   9.618   5.781
58579SOL    HW277635  11.704   9.651   5.645
58580SOL     OW77636  14.427   7.653  14.760
58580SOL    HW177637  14.388   7.613  14.682
58580SOL    HW277638  14.516   7.674  14.734
58581SOL     OW77639   8.559  13.645  13.633
58581SOL    HW177640   8.563  13.624  13.726
58581SOL    HW277641   8.492  13.586  13.598
58582SOL     OW77642  14.773  13.571  14.731
58582SOL    HW177643  14.850  13.540  14.683
58582SOL    HW277644  14.797  13.659  14.761
58583SOL     OW77645  10.627  13.891  11.597
58583SOL    HW177646  10.605  13.802  11.625
58583SOL    HW277647  10.653  13.882  11.505
58584SOL     OW77648   7.672   1.497   2.150
58584SOL    HW177649   7.670   1.429   2.083
58584SOL    HW277650   7.699   1.452   2.230
58585SOL     OW77651   0.281   4.122   7.307
58585SOL    HW177652   0.306   4.180   7.235
58585SOL    HW277653   0.363   4.102   7.351
58586SOL     OW77654   0.944   6.315  13.684
58586SOL    HW177655   0.850   6.335  13.682
58586SOL    HW277656   0.952   6.231  13.638
58587SOL     OW77657   7.215   2.172  10.407
58587SOL    HW177658   7.240   2.185  10.499
58587SOL    HW277659   7.299   2.171  10.360
58588SOL     OW77660  11.595  14.635   4.992
58588SOL    HW177661  11.502  14.656   4.989
58588SOL    HW277662  11.637  14.716   5.020
58589SOL     OW77663   8.364   3.544   4.080
58589SOL    HW177664   8.416   3.478   4.124
58589SOL    HW277665   8.279   3.543   4.124
58590SOL     OW77666   8.976   0.013   8.841
58590SOL    HW177667   9.002  14.850   8.761
58590SOL    HW277668   9.030   0.092   8.842
58591SOL     OW77669  11.836   3.987   0.564
58591SOL    HW177670  11.781   4.041   0.508
58591SOL    HW277671  11.806   3.897   0.550
58592SOL     OW77672   0.429   5.472  11.984
58592SOL    HW177673   0.402   5.564  11.991
58592SOL    HW277674   0.382   5.439  11.908
58593SOL     OW77675   1.506  12.735  13.498
58593SOL    HW177676   1.546  12.686  13.570
58593SOL    HW277677   1.442  12.792  13.540
58594SOL     OW77678  11.118  14.135   7.108
58594SOL    HW177679  11.156  14.071   7.168
58594SOL    HW277680  11.193  14.184   7.075
58595SOL     OW77681   6.672   7.507  11.174
58595SOL    HW177682   6.646   7.469  11.258
58595SOL    HW277683   6.596   7.559  11.146
58596SOL     OW77684  11.195  13.118   7.413
58596SOL    HW177685  11.264  13.183   7.395
58596SOL    HW277686  11.133  13.164   7.469
58597SOL     OW77687   4.825  13.143  13.003
58597SOL    HW177688   4.790  13.067  13.050
58597SOL    HW277689   4.750  13.179  12.957
58598SOL     OW77690  11.231   3.232   9.748
58598SOL    HW177691  11.183   3.215   9.667
58598SOL    HW277692  11.240   3.327   9.751
58599SOL     OW77693   3.508   6.386   4.136
58599SOL    HW177694   3.490   6.382   4.230
58599SOL    HW277695   3.535   6.476   4.120
58600SOL     OW77696   3.217   3.525   9.590
58600SOL    HW177697   3.215   3.597   9.527
58600SOL    HW277698   3.215   3.446   9.537
58601SOL     OW77699  14.680  11.824   5.641
58601SOL    HW177700  14.709  11.733   5.638
58601SOL    HW277701  14.635  11.832   5.725
58602SOL     OW77702   2.221   1.856   9.886
58602SOL    HW177703   2.227   1.766   9.919
58602SOL    HW277704   2.159   1.850   9.813
58603SOL     OW77705   0.098   8.475  11.614
58603SOL    HW177706   0.152   8.397  11.628
58603SOL    HW277707   0.015   8.440  11.581
58604SOL     OW77708  10.974   4.403   0.460
58604SOL    HW177709  11.066   4.406   0.487
58604SOL    HW277710  10.947   4.494   0.454
58605SOL     OW77711  14.328  14.546   9.505
58605SOL    HW177712  14.306  14.536   9.413
58605SOL    HW277713  14.244  14.536   9.551
58606SOL     OW77714   2.253   1.640  12.461
58606SOL    HW177715   2.213   1.726  12.476
58606SOL    HW277716   2.180   1.585  12.432
58607SOL     OW77717   7.110   6.074   2.708
58607SOL    HW177718   7.202   6.085   2.731
58607SOL    HW277719   7.073   6.025   2.782
58608SOL     OW77720   5.358   1.231   6.808
58608SOL    HW177721   5.348   1.264   6.719
58608SOL    HW277722   5.314   1.296   6.863
58609SOL     OW77723   6.727   6.759   3.866
58609SOL    HW177724   6.694   6.669   3.856
58609SOL    HW277725   6.680   6.809   3.799
58610SOL     OW77726  12.565  13.670  12.650
58610SOL    HW177727  12.509  13.656  12.726
58610SOL    HW277728  12.642  13.615  12.667
58611SOL     OW77729   6.100   6.947  12.767
58611SOL    HW177730   6.036   7.008  12.730
58611SOL    HW277731   6.165   6.935  12.697
58612SOL     OW77732  10.696   8.356  10.397
58612SOL    HW177733  10.686   8.423  10.465
58612SOL    HW277734  10.785   8.370  10.363
58613SOL     OW77735  13.835   1.825   6.538
58613SOL    HW177736  13.914   1.834   6.592
58613SOL    HW277737  13.792   1.910   6.543
58614SOL     OW77738   7.494   4.356   5.550
58614SOL    HW177739   7.499   4.301   5.472
58614SOL    HW277740   7.460   4.440   5.517
58615SOL     OW77741   0.514   6.252  10.824
58615SOL    HW177742   0.563   6.240  10.905
58615SOL    HW277743   0.472   6.167  10.809
58616SOL     OW77744   1.757   1.880   5.285
58616SOL    HW177745   1.811   1.838   5.352
58616SOL    HW277746   1.799   1.965   5.270
58617SOL     OW77747   3.607  10.374  12.851
58617SOL    HW177748   3.560  10.392  12.933
58617SOL    HW277749   3.540  10.337  12.793
58618SOL     OW77750   4.097  14.594   4.852
58618SOL    HW177751   4.087  14.542   4.772
58618SOL    HW277752   4.185  14.631   4.845
58619SOL     OW77753   8.775   7.988   7.771
58619SOL    HW177754   8.706   7.994   7.704
58619SOL    HW277755   8.855   8.014   7.725
58620SOL     OW77756   3.355   2.293  10.132
58620SOL    HW177757   3.312   2.340  10.204
58620SOL    HW277758   3.434   2.256  10.170
58621SOL     OW77759   4.549  14.722   3.353
58621SOL    HW177760   4.633  14.684   3.379
58621SOL    HW277761   4.486  14.653   3.370
58622SOL     OW77762   3.424   5.274   6.720
58622SOL    HW177763   3.428   5.364   6.685
58622SOL    HW277764   3.490   5.274   6.790
58623SOL     OW77765   6.936   4.786   8.486
58623SOL    HW177766   6.913   4.718   8.423
58623SOL    HW277767   6.874   4.774   8.558
58624SOL     OW77768   6.302   2.482   2.181
58624SOL    HW177769   6.227   2.528   2.144
58624SOL    HW277770   6.374   2.544   2.174
58625SOL     OW77771   4.987   9.626  14.438
58625SOL    HW177772   5.063   9.588  14.395
58625SOL    HW277773   4.928   9.552  14.454
58626SOL     OW77774  11.193   2.976  12.856
58626SOL    HW177775  11.234   2.934  12.781
58626SOL    HW277776  11.134   3.042  12.819
58627SOL     OW77777   5.577   1.083   9.712
58627SOL    HW177778   5.568   1.064   9.806
58627SOL    HW277779   5.501   1.040   9.672
58628SOL     OW77780  10.693   3.987  12.067
58628SOL    HW177781  10.628   4.031  12.013
58628SOL    HW277782  10.690   3.896  12.038
58629SOL     OW77783   0.679   8.566   5.723
58629SOL    HW177784   0.661   8.520   5.805
58629SOL    HW277785   0.637   8.513   5.655
58630SOL     OW77786   8.463   3.337   2.475
58630SOL    HW177787   8.409   3.373   2.546
58630SOL    HW277788   8.547   3.381   2.484
58631SOL     OW77789   3.498  12.047   9.967
58631SOL    HW177790   3.473  12.123  10.019
58631SOL    HW277791   3.514  12.081   9.879
58632SOL     OW77792   5.379  14.226  10.300
58632SOL    HW177793   5.288  14.255  10.298
58632SOL    HW277794   5.417  14.270  10.377
58633SOL     OW77795   9.822   0.760   0.718
58633SOL    HW177796   9.905   0.804   0.736
58633SOL    HW277797   9.780   0.815   0.652
58634SOL     OW77798   7.390   0.523   0.639
58634SOL    HW177799   7.310   0.553   0.595
58634SOL    HW277800   7.448   0.497   0.568
58635SOL     OW77801   4.390  13.849  11.111
58635SOL    HW177802   4.357  13.770  11.153
58635SOL    HW277803   4.335  13.860  11.033
58636SOL     OW77804  12.913   5.104   6.422
58636SOL    HW177805  12.966   5.103   6.501
58636SOL    HW277806  12.973   5.078   6.352
58637SOL     OW77807   0.213  10.166   4.712
58637SOL    HW177808   0.178  10.225   4.779
58637SOL    HW277809   0.291  10.127   4.752
58638SOL     OW77810  12.983   3.550   1.101
58638SOL    HW177811  13.008   3.467   1.060
58638SOL    HW277812  12.929   3.524   1.176
58639SOL     OW77813   5.079  11.427   2.037
58639SOL    HW177814   5.100  11.476   2.116
58639SOL    HW277815   5.100  11.336   2.059
58640SOL     OW77816   2.932   6.521   2.881
58640SOL    HW177817   2.921   6.600   2.828
58640SOL    HW277818   2.847   6.509   2.923
58641SOL     OW77819   5.885  12.060   4.934
58641SOL    HW177820   5.882  12.048   5.028
58641SOL    HW277821   5.870  12.154   4.921
58642SOL     OW77822   9.263  11.745  14.550
58642SOL    HW177823   9.268  11.786  14.637
58642SOL    HW277824   9.282  11.653  14.567
58643SOL     OW77825   2.296  14.689   8.058
58643SOL    HW177826   2.268  14.769   8.014
58643SOL    HW277827   2.218  14.634   8.060
58644SOL     OW77828   7.727  13.770  14.234
58644SOL    HW177829   7.818  13.756  14.263
58644SOL    HW277830   7.706  13.858  14.265
58645SOL     OW77831   9.112   1.604   3.569
58645SOL    HW177832   9.019   1.583   3.555
58645SOL    HW277833   9.124   1.688   3.525
58646SOL     OW77834   6.352  12.289  10.257
58646SOL    HW177835   6.266  12.330  10.265
58646SOL    HW277836   6.399  12.317  10.335
58647SOL     OW77837  12.150   7.810  13.992
58647SOL    HW177838  12.137   7.905  13.981
58647SOL    HW277839  12.220   7.789  13.930
58648SOL     OW77840   7.334   3.058  11.514
58648SOL    HW177841   7.363   3.023  11.598
58648SOL    HW277842   7.273   2.993  11.480
58649SOL     OW77843  11.942  13.453   3.656
58649SOL    HW177844  11.900  13.383   3.706
58649SOL    HW277845  12.010  13.409   3.605
58650SOL     OW77846   1.544   8.108   5.249
58650SOL    HW177847   1.561   8.016   5.269
58650SOL    HW277848   1.456   8.124   5.283
58651SOL     OW77849   3.018  10.474  10.425
58651SOL    HW177850   2.997  10.432  10.508
58651SOL    HW277851   2.953  10.441  10.364
58652SOL     OW77852  10.224  13.326  10.528
58652SOL    HW177853  10.233  13.365  10.615
58652SOL    HW277854  10.130  13.314  10.517
58653SOL     OW77855  11.885  10.487   1.803
58653SOL    HW177856  11.961  10.434   1.828
58653SOL    HW277857  11.816  10.461   1.864
58654SOL     OW77858   7.735   4.738   5.229
58654SOL    HW177859   7.659   4.737   5.170
58654SOL    HW277860   7.778   4.654   5.215
58655SOL     OW77861  12.476  12.614   4.930
58655SOL    HW177862  12.514  12.698   4.956
58655SOL    HW277863  12.400  12.638   4.876
58656SOL     OW77864  12.580  12.090   4.195
58656SOL    HW177865  12.645  12.054   4.257
58656SOL    HW277866  12.627  12.095   4.112
58657SOL     OW77867   7.454   9.392   1.354
58657SOL    HW177868   7.529   9.408   1.412
58657SOL    HW277869   7.462   9.459   1.286
58658SOL     OW77870  11.519   5.159  13.442
58658SOL    HW177871  11.478   5.081  13.406
58658SOL    HW277872  11.612   5.137  13.448
58659SOL     OW77873   2.032  13.954  10.556
58659SOL    HW177874   2.104  13.899  10.525
58659SOL    HW277875   1.955  13.921  10.508
58660SOL     OW77876  10.467  11.463  10.726
58660SOL    HW177877  10.441  11.417  10.646
58660SOL    HW277878  10.385  11.493  10.765
58661SOL     OW77879  14.872  12.040  12.229
58661SOL    HW177880   0.052  11.973  12.199
58661SOL    HW277881  14.832  12.003  12.307
58662SOL     OW77882  10.898   9.935  10.323
58662SOL    HW177883  10.822   9.978  10.284
58662SOL    HW277884  10.891   9.844  10.296
58663SOL     OW77885  11.903  13.006   3.231
58663SOL    HW177886  11.994  13.024   3.211
58663SOL    HW277887  11.906  12.955   3.312
58664SOL     OW77888   6.608  10.049   2.909
58664SOL    HW177889   6.639  10.132   2.946
58664SOL    HW277890   6.625  10.057   2.815
58665SOL     OW77891   7.293   5.354   7.453
58665SOL    HW177892   7.344   5.382   7.529
58665SOL    HW277893   7.243   5.431   7.428
58666SOL     OW77894   2.950   3.927  11.385
58666SOL    HW177895   2.868   3.972  11.365
58666SOL    HW277896   2.949   3.851  11.328
58667SOL     OW77897   3.432   4.096   6.710
58667SOL    HW177898   3.359   4.062   6.762
58667SOL    HW277899   3.458   4.023   6.654
58668SOL     OW77900   2.722  13.059   9.613
58668SOL    HW177901   2.781  13.064   9.538
58668SOL    HW277902   2.758  13.121   9.676
58669SOL     OW77903  10.069   2.565   5.943
58669SOL    HW177904  10.157   2.572   5.904
58669SOL    HW277905  10.046   2.473   5.933
58670SOL     OW77906  12.691   7.205  12.046
58670SOL    HW177907  12.671   7.296  12.070
58670SOL    HW277908  12.621   7.154  12.086
58671SOL     OW77909   7.344  13.866   1.212
58671SOL    HW177910   7.265  13.819   1.186
58671SOL    HW277911   7.368  13.918   1.135
58672SOL     OW77912   8.613   9.135   2.719
58672SOL    HW177913   8.548   9.171   2.780
58672SOL    HW277914   8.689   9.193   2.729
58673SOL     OW77915  12.599   8.437   3.740
58673SOL    HW177916  12.650   8.441   3.822
58673SOL    HW277917  12.665   8.449   3.672
58674SOL     OW77918   4.016  12.706   9.475
58674SOL    HW177919   4.022  12.641   9.545
58674SOL    HW277920   3.965  12.664   9.406
58675SOL     OW77921   3.453  13.086   8.123
58675SOL    HW177922   3.517  13.151   8.093
58675SOL    HW277923   3.368  13.131   8.117
58676SOL     OW77924   3.114   6.958   4.517
58676SOL    HW177925   3.133   6.897   4.446
58676SOL    HW277926   3.153   6.918   4.595
58677SOL     OW77927   5.506  10.453  13.768
58677SOL    HW177928   5.548  10.453  13.854
58677SOL    HW277929   5.570  10.411  13.710
58678SOL     OW77930   4.620   4.642  13.753
58678SOL    HW177931   4.559   4.599  13.813
58678SOL    HW277932   4.566   4.704  13.704
58679SOL     OW77933   8.797   6.804   1.634
58679SOL    HW177934   8.766   6.880   1.683
58679SOL    HW277935   8.819   6.839   1.547
58680SOL     OW77936   6.075  10.211  10.645
58680SOL    HW177937   6.018  10.143  10.610
58680SOL    HW277938   6.101  10.178  10.731
58681SOL     OW77939   1.827   3.907   1.291
58681SOL    HW177940   1.871   3.826   1.318
58681SOL    HW277941   1.898   3.971   1.283
58682SOL     OW77942   9.334   1.356   3.939
58682SOL    HW177943   9.287   1.309   3.870
58682SOL    HW277944   9.398   1.293   3.971
58683SOL     OW77945  11.109   5.913  13.011
58683SOL    HW177946  11.177   5.965  12.967
58683SOL    HW277947  11.148   5.826  13.021
58684SOL     OW77948  11.584  10.510   3.584
58684SOL    HW177949  11.600  10.463   3.665
58684SOL    HW277950  11.525  10.454   3.534
58685SOL     OW77951   6.998  14.827   6.785
58685SOL    HW177952   6.976  14.767   6.714
58685SOL    HW277953   6.926  14.818   6.847
58686SOL     OW77954  10.349  11.409   8.060
58686SOL    HW177955  10.298  11.452   8.128
58686SOL    HW277956  10.423  11.370   8.107
58687SOL     OW77957   3.396   9.807   3.084
58687SOL    HW177958   3.368   9.897   3.103
58687SOL    HW277959   3.447   9.781   3.160
58688SOL     OW77960  11.486   7.797   5.377
58688SOL    HW177961  11.503   7.726   5.440
58688SOL    HW277962  11.395   7.821   5.393
58689SOL     OW77963  13.803  14.721  12.760
58689SOL    HW177964  13.844  14.751  12.841
58689SOL    HW277965  13.812  14.796  12.700
58690SOL     OW77966   7.036   2.238  13.926
58690SOL    HW177967   7.005   2.181  13.856
58690SOL    HW277968   7.125   2.262  13.901
58691SOL     OW77969   6.113   2.750  10.471
58691SOL    HW177970   6.048   2.686  10.497
58691SOL    HW277971   6.087   2.777  10.383
58692SOL     OW77972   7.922   8.841   7.397
58692SOL    HW177973   7.851   8.867   7.338
58692SOL    HW277974   7.877   8.798   7.470
58693SOL     OW77975  13.797  13.949   9.423
58693SOL    HW177976  13.778  13.974   9.513
58693SOL    HW277977  13.718  13.903   9.394
58694SOL     OW77978   6.668  14.525   2.131
58694SOL    HW177979   6.703  14.541   2.219
58694SOL    HW277980   6.730  14.569   2.072
58695SOL     OW77981   5.213  11.605   1.818
58695SOL    HW177982   5.169  11.606   1.733
58695SOL    HW277983   5.154  11.556   1.875
58696SOL     OW77984   8.059  10.190   2.321
58696SOL    HW177985   8.021  10.277   2.311
58696SOL    HW277986   8.079  10.163   2.232
58697SOL     OW77987   6.021   9.682   0.056
58697SOL    HW177988   6.113   9.689   0.078
58697SOL    HW277989   5.976   9.674   0.140
58698SOL     OW77990   4.369   5.621  10.244
58698SOL    HW177991   4.316   5.570  10.305
58698SOL    HW277992   4.316   5.698  10.224
58699SOL     OW77993   4.544   1.197   7.226
58699SOL    HW177994   4.633   1.186   7.261
58699SOL    HW277995   4.487   1.173   7.299
58700SOL     OW77996   4.070  13.843   2.946
58700SOL    HW177997   3.999  13.875   2.891
58700SOL    HW277998   4.049  13.876   3.033
58701SOL     OW77999   0.234   2.287   7.782
58701SOL    HW178000   0.198   2.199   7.775
58701SOL    HW278001   0.325   2.274   7.808
58702SOL     OW78002   5.735  11.087   6.803
58702SOL    HW178003   5.792  11.163   6.803
58702SOL    HW278004   5.652  11.118   6.840
58703SOL     OW78005   0.457   7.564  14.211
58703SOL    HW178006   0.551   7.573  14.197
58703SOL    HW278007   0.450   7.498  14.280
58704SOL     OW78008  12.443   6.785   6.796
58704SOL    HW178009  12.483   6.850   6.738
58704SOL    HW278010  12.482   6.803   6.882
58705SOL     OW78011   1.406   6.372   5.133
58705SOL    HW178012   1.360   6.299   5.091
58705SOL    HW278013   1.439   6.334   5.215
58706SOL     OW78014  11.308  12.663   6.744
58706SOL    HW178015  11.314  12.573   6.777
58706SOL    HW278016  11.393  12.679   6.702
58707SOL     OW78017   1.594   2.359  11.570
58707SOL    HW178018   1.586   2.269  11.537
58707SOL    HW278019   1.516   2.371  11.625
58708SOL     OW78020   2.352   6.678   6.599
58708SOL    HW178021   2.283   6.628   6.554
58708SOL    HW278022   2.433   6.642   6.565
58709SOL     OW78023  10.706   8.507   3.281
58709SOL    HW178024  10.709   8.602   3.292
58709SOL    HW278025  10.683   8.494   3.189
58710SOL     OW78026   6.415   0.132  14.690
58710SOL    HW178027   6.326   0.129  14.657
58710SOL    HW278028   6.462   0.063  14.643
58711SOL     OW78029   6.736  11.096   8.350
58711SOL    HW178030   6.736  11.005   8.320
58711SOL    HW278031   6.715  11.148   8.273
58712SOL     OW78032   7.945   0.866  12.920
58712SOL    HW178033   7.917   0.778  12.897
58712SOL    HW278034   7.864   0.916  12.929
58713SOL     OW78035   5.507  11.527   2.924
58713SOL    HW178036   5.491  11.461   2.992
58713SOL    HW278037   5.527  11.476   2.846
58714SOL     OW78038   3.062   0.998  10.457
58714SOL    HW178039   3.037   0.906  10.467
58714SOL    HW278040   3.056   1.035  10.545
58715SOL     OW78041   3.403  12.866  12.949
58715SOL    HW178042   3.426  12.897  12.861
58715SOL    HW278043   3.312  12.893  12.961
58716SOL     OW78044   2.827  11.954  14.273
58716SOL    HW178045   2.849  11.911  14.190
58716SOL    HW278046   2.911  11.962  14.318
58717SOL     OW78047   4.082   1.203   7.916
58717SOL    HW178048   4.007   1.202   7.857
58717SOL    HW278049   4.052   1.250   7.994
58718SOL     OW78050   7.260   4.066   8.086
58718SOL    HW178051   7.196   4.010   8.129
58718SOL    HW278052   7.223   4.083   7.999
58719SOL     OW78053   3.499   9.487   2.012
58719SOL    HW178054   3.445   9.558   1.975
58719SOL    HW278055   3.532   9.441   1.935
58720SOL     OW78056  11.418  10.380   4.677
58720SOL    HW178057  11.382  10.438   4.744
58720SOL    HW278058  11.348  10.371   4.613
58721SOL     OW78059   5.546   4.030  11.188
58721SOL    HW178060   5.548   4.039  11.093
58721SOL    HW278061   5.452   4.029  11.210
58722SOL     OW78062   5.448  10.758   9.556
58722SOL    HW178063   5.464  10.718   9.470
58722SOL    HW278064   5.354  10.775   9.557
58723SOL     OW78065   4.835   0.578   6.780
58723SOL    HW178066   4.875   0.660   6.811
58723SOL    HW278067   4.818   0.593   6.687
58724SOL     OW78068   1.271  10.448   5.625
58724SOL    HW178069   1.358  10.411   5.614
58724SOL    HW278070   1.286  10.532   5.668
58725SOL     OW78071   4.054   5.489   4.492
58725SOL    HW178072   3.968   5.448   4.486
58725SOL    HW278073   4.115   5.416   4.495
58726SOL     OW78074   2.747  12.856  14.238
58726SOL    HW178075   2.801  12.876  14.162
58726SOL    HW278076   2.793  12.785  14.283
58727SOL     OW78077   6.212   0.045   9.942
58727SOL    HW178078   6.216  14.851   9.884
58727SOL    HW278079   6.281   0.104   9.910
58728SOL     OW78080   6.834   1.507   3.285
58728SOL    HW178081   6.791   1.520   3.370
58728SOL    HW278082   6.892   1.582   3.276
58729SOL     OW78083  13.379   2.072   6.831
58729SOL    HW178084  13.295   2.031   6.851
58729SOL    HW278085  13.430   2.003   6.790
58730SOL     OW78086   0.810   2.452   9.698
58730SOL    HW178087   0.732   2.503   9.720
58730SOL    HW278088   0.874   2.518   9.670
58731SOL     OW78089   5.269   7.074   7.717
58731SOL    HW178090   5.189   7.115   7.749
58731SOL    HW278091   5.313   7.043   7.796
58732SOL     OW78092   6.161   0.922   2.321
58732SOL    HW178093   6.096   0.882   2.263
58732SOL    HW278094   6.109   0.959   2.392
58733SOL     OW78095   8.517  13.831  11.376
58733SOL    HW178096   8.485  13.741  11.376
58733SOL    HW278097   8.443  13.882  11.342
58734SOL     OW78098   8.431   1.566   0.748
58734SOL    HW178099   8.428   1.564   0.652
58734SOL    HW278100   8.502   1.627   0.768
58735SOL     OW78101   6.807  14.349   1.939
58735SOL    HW178102   6.762  14.433   1.951
58735SOL    HW278103   6.855  14.335   2.020
58736SOL     OW78104   8.498   5.449   8.469
58736SOL    HW178105   8.511   5.433   8.562
58736SOL    HW278106   8.471   5.365   8.433
58737SOL     OW78107  14.498   6.754   6.549
58737SOL    HW178108  14.580   6.784   6.588
58737SOL    HW278109  14.445   6.834   6.540
58738SOL     OW78110   8.972   5.477  10.954
58738SOL    HW178111   8.933   5.395  10.921
58738SOL    HW278112   8.984   5.531  10.875
58739SOL     OW78113   4.733  10.250   1.773
58739SOL    HW178114   4.755  10.274   1.863
58739SOL    HW278115   4.649  10.206   1.780
58740SOL     OW78116  10.340   4.004   8.139
58740SOL    HW178117  10.417   4.061   8.128
58740SOL    HW278118  10.305   4.027   8.225
58741SOL     OW78119   6.525  13.332   0.482
58741SOL    HW178120   6.447  13.353   0.534
58741SOL    HW278121   6.597  13.375   0.528
58742SOL     OW78122   9.232  13.700   6.164
58742SOL    HW178123   9.188  13.627   6.121
58742SOL    HW278124   9.162  13.763   6.183
58743SOL     OW78125  11.217  10.540   2.362
58743SOL    HW178126  11.158  10.615   2.354
58743SOL    HW278127  11.172  10.468   2.318
58744SOL     OW78128  11.204  13.458  14.363
58744SOL    HW178129  11.269  13.431  14.428
58744SOL    HW278130  11.255  13.500  14.294
58745SOL     OW78131   4.743   0.333   2.545
58745SOL    HW178132   4.811   0.292   2.599
58745SOL    HW278133   4.685   0.376   2.608
58746SOL     OW78134   1.289   3.280   0.945
58746SOL    HW178135   1.321   3.370   0.946
58746SOL    HW278136   1.364   3.227   0.971
58747SOL     OW78137   8.583   1.268   2.711
58747SOL    HW178138   8.551   1.239   2.796
58747SOL    HW278139   8.678   1.264   2.718
58748SOL     OW78140  13.529   4.058  14.003
58748SOL    HW178141  13.473   4.067  14.081
58748SOL    HW278142  13.584   4.136  14.004
58749SOL     OW78143   2.677  11.140   3.563
58749SOL    HW178144   2.654  11.133   3.656
58749SOL    HW278145   2.603  11.186   3.524
58750SOL     OW78146  11.426   6.108   5.975
58750SOL    HW178147  11.344   6.059   5.982
58750SOL    HW278148  11.453   6.098   5.884
58751SOL     OW78149   8.244  10.033   9.342
58751SOL    HW178150   8.215  10.013   9.253
58751SOL    HW278151   8.338  10.050   9.333
58752SOL     OW78152   0.794   5.840   4.980
58752SOL    HW178153   0.808   5.791   4.899
58752SOL    HW278154   0.779   5.773   5.047
58753SOL     OW78155  12.331  13.367   5.330
58753SOL    HW178156  12.320  13.459   5.304
58753SOL    HW278157  12.410  13.367   5.383
58754SOL     OW78158   5.298   8.071  10.918
58754SOL    HW178159   5.351   8.141  10.880
58754SOL    HW278160   5.348   7.991  10.902
58755SOL     OW78161   4.856   6.878  13.930
58755SOL    HW178162   4.838   6.876  14.024
58755SOL    HW278163   4.800   6.948  13.896
58756SOL     OW78164   4.527   1.714   9.505
58756SOL    HW178165   4.618   1.714   9.478
58756SOL    HW278166   4.514   1.629   9.547
58757SOL     OW78167   4.800   8.063   6.384
58757SOL    HW178168   4.872   8.064   6.448
58757SOL    HW278169   4.804   8.149   6.342
58758SOL     OW78170  14.487  11.762   4.125
58758SOL    HW178171  14.427  11.787   4.055
58758SOL    HW278172  14.567  11.813   4.108
58759SOL     OW78173   9.283   2.131  11.173
58759SOL    HW178174   9.337   2.164  11.102
58759SOL    HW278175   9.317   2.175  11.251
58760SOL     OW78176   0.551   5.807  11.516
58760SOL    HW178177   0.541   5.795  11.422
58760SOL    HW278178   0.576   5.720  11.548
58761SOL     OW78179   9.131  10.901   2.682
58761SOL    HW178180   9.098  10.990   2.669
58761SOL    HW278181   9.165  10.875   2.596
58762SOL     OW78182   3.229  14.484   3.760
58762SOL    HW178183   3.252  14.576   3.744
58762SOL    HW278184   3.194  14.483   3.849
58763SOL     OW78185  11.540   2.197  14.255
58763SOL    HW178186  11.454   2.171  14.288
58763SOL    HW278187  11.567   2.269  14.312
58764SOL     OW78188   8.151   9.848   9.493
58764SOL    HW178189   8.061   9.866   9.517
58764SOL    HW278190   8.180   9.927   9.446
58765SOL     OW78191  10.236   4.368  11.792
58765SOL    HW178192  10.294   4.432  11.750
58765SOL    HW278193  10.295   4.314  11.845
58766SOL     OW78194  13.252   4.278   3.154
58766SOL    HW178195  13.223   4.228   3.078
58766SOL    HW278196  13.180   4.271   3.217
58767SOL     OW78197   4.231   2.678   7.610
58767SOL    HW178198   4.311   2.724   7.584
58767SOL    HW278199   4.171   2.691   7.537
58768SOL     OW78200  12.081  12.267   0.001
58768SOL    HW178201  12.076  12.185   0.051
58768SOL    HW278202  12.173  12.274  14.859
58769SOL     OW78203  10.373   3.114   5.832
58769SOL    HW178204  10.336   3.025   5.837
58769SOL    HW278205  10.382   3.141   5.923
58770SOL     OW78206   1.807   5.415   9.798
58770SOL    HW178207   1.859   5.375   9.728
58770SOL    HW278208   1.730   5.358   9.805
58771SOL     OW78209  10.238  14.459   1.102
58771SOL    HW178210  10.317  14.423   1.061
58771SOL    HW278211  10.270  14.521   1.167
58772SOL     OW78212  11.044   2.131   9.713
58772SOL    HW178213  11.100   2.122   9.636
58772SOL    HW278214  11.031   2.041   9.745
58773SOL     OW78215  10.687   0.932   8.307
58773SOL    HW178216  10.720   0.857   8.357
58773SOL    HW278217  10.766   0.976   8.275
58774SOL     OW78218   5.148   2.880   5.456
58774SOL    HW178219   5.107   2.837   5.531
58774SOL    HW278220   5.101   2.846   5.380
58775SOL     OW78221   3.011   7.688   6.591
58775SOL    HW178222   3.078   7.711   6.527
58775SOL    HW278223   3.023   7.750   6.663
58776SOL     OW78224  11.585   3.584  10.532
58776SOL    HW178225  11.612   3.603  10.622
58776SOL    HW278226  11.574   3.669  10.491
58777SOL     OW78227  14.078   2.302  10.263
58777SOL    HW178228  14.045   2.230  10.210
58777SOL    HW278229  14.164   2.322  10.225
58778SOL     OW78230   4.066   4.556   1.087
58778SOL    HW178231   4.011   4.632   1.071
58778SOL    HW278232   4.007   4.490   1.123
58779SOL     OW78233   0.255  11.026  11.120
58779SOL    HW178234   0.238  10.964  11.191
58779SOL    HW278235   0.227  10.982  11.041
58780SOL     OW78236  14.151   4.616   9.427
58780SOL    HW178237  14.115   4.705   9.426
58780SOL    HW278238  14.238   4.626   9.467
58781SOL     OW78239   1.877  11.976   3.220
58781SOL    HW178240   1.870  12.071   3.224
58781SOL    HW278241   1.875  11.948   3.312
58782SOL     OW78242   8.659  11.194  10.001
58782SOL    HW178243   8.723  11.194  10.073
58782SOL    HW278244   8.695  11.254   9.936
58783SOL     OW78245   2.792   3.015  10.196
58783SOL    HW178246   2.888   3.018  10.195
58783SOL    HW278247   2.770   2.929  10.160
58784SOL     OW78248   0.727   0.209   3.348
58784SOL    HW178249   0.701   0.236   3.260
58784SOL    HW278250   0.644   0.200   3.395
58785SOL     OW78251   7.556   5.124  10.257
58785SOL    HW178252   7.462   5.115  10.244
58785SOL    HW278253   7.570   5.217  10.272
58786SOL     OW78254   3.893  14.028  11.572
58786SOL    HW178255   3.986  14.026  11.595
58786SOL    HW278256   3.859  13.943  11.601
58787SOL     OW78257   6.343  13.894   5.220
58787SOL    HW178258   6.291  13.827   5.175
58787SOL    HW278259   6.324  13.880   5.313
58788SOL     OW78260  14.705   1.206  11.523
58788SOL    HW178261  14.749   1.274  11.472
58788SOL    HW278262  14.763   1.130  11.518
58789SOL     OW78263   4.982   4.124   9.311
58789SOL    HW178264   4.919   4.086   9.250
58789SOL    HW278265   4.994   4.056   9.378
58790SOL     OW78266   3.063   1.044  12.680
58790SOL    HW178267   3.042   1.079  12.767
58790SOL    HW278268   3.135   1.099  12.649
58791SOL     OW78269   9.838  14.219   9.245
58791SOL    HW178270   9.803  14.303   9.276
58791SOL    HW278271   9.801  14.209   9.157
58792SOL     OW78272   0.017  14.268  13.089
58792SOL    HW178273   0.002  14.249  13.181
58792SOL    HW278274  14.874  14.188  13.043
58793SOL     OW78275  11.300   8.648   6.935
58793SOL    HW178276  11.239   8.711   6.973
58793SOL    HW278277  11.339   8.604   7.011
58794SOL     OW78278  13.725   6.737   1.669
58794SOL    HW178279  13.667   6.682   1.721
58794SOL    HW278280  13.811   6.697   1.679
58795SOL     OW78281   0.068  11.927   5.990
58795SOL    HW178282   0.108  11.917   5.904
58795SOL    HW278283   0.131  11.888   6.051
58796SOL     OW78284   0.293   2.195  13.684
58796SOL    HW178285   0.263   2.274  13.640
58796SOL    HW278286   0.388   2.202  13.684
58797SOL     OW78287   1.982   9.613   5.674
58797SOL    HW178288   1.996   9.687   5.615
58797SOL    HW278289   1.968   9.653   5.759
58798SOL     OW78290  12.339   9.142   6.870
58798SOL    HW178291  12.358   9.233   6.848
58798SOL    HW278292  12.322   9.143   6.964
58799SOL     OW78293   6.884   3.882  12.622
58799SOL    HW178294   6.903   3.869  12.529
58799SOL    HW278295   6.892   3.976  12.636
58800SOL     OW78296  10.466   0.263  10.481
58800SOL    HW178297  10.480   0.311  10.563
58800SOL    HW278298  10.373   0.239  10.483
58801SOL     OW78299   1.096   3.531   1.580
58801SOL    HW178300   1.181   3.537   1.625
58801SOL    HW278301   1.041   3.596   1.623
58802SOL     OW78302   3.819   7.323   2.610
58802SOL    HW178303   3.914   7.310   2.620
58802SOL    HW278304   3.793   7.256   2.546
58803SOL     OW78305  12.625   2.605   3.550
58803SOL    HW178306  12.670   2.563   3.476
58803SOL    HW278307  12.602   2.692   3.516
58804SOL     OW78308   9.890   1.873   0.592
58804SOL    HW178309   9.820   1.856   0.656
58804SOL    HW278310   9.967   1.891   0.645
58805SOL     OW78311  13.186  11.675  13.771
58805SOL    HW178312  13.185  11.707  13.681
58805SOL    HW278313  13.267  11.711  13.808
58806SOL     OW78314   5.273   0.021  13.539
58806SOL    HW178315   5.236  14.837  13.598
58806SOL    HW278316   5.367   0.005  13.541
58807SOL     OW78317   2.925   6.701   3.364
58807SOL    HW178318   2.840   6.661   3.381
58807SOL    HW278319   2.963   6.716   3.451
58808SOL     OW78320  12.915   7.949   6.763
58808SOL    HW178321  12.849   8.019   6.758
58808SOL    HW278322  12.901   7.898   6.683
58809SOL     OW78323   1.130   7.321   1.825
58809SOL    HW178324   1.187   7.337   1.750
58809SOL    HW278325   1.127   7.226   1.834
58810SOL     OW78326  11.001   2.398   0.687
58810SOL    HW178327  10.987   2.339   0.613
58810SOL    HW278328  11.095   2.414   0.687
58811SOL     OW78329   3.757  10.306   1.502
58811SOL    HW178330   3.770  10.340   1.414
58811SOL    HW278331   3.756  10.383   1.558
58812SOL     OW78332  14.832   4.316   8.190
58812SOL    HW178333  14.847   4.356   8.105
58812SOL    HW278334   0.015   4.245   8.195
58813SOL     OW78335  12.006   1.760   3.984
58813SOL    HW178336  11.988   1.687   4.042
58813SOL    HW278337  12.001   1.838   4.040
58814SOL     OW78338  10.895  14.576  12.314
58814SOL    HW178339  10.975  14.526  12.329
58814SOL    HW278340  10.921  14.668  12.325
58815SOL     OW78341   4.403  10.294   6.947
58815SOL    HW178342   4.316  10.332   6.941
58815SOL    HW278343   4.398  10.213   6.895
58816SOL     OW78344   6.558   6.545   4.935
58816SOL    HW178345   6.527   6.562   5.025
58816SOL    HW278346   6.620   6.616   4.918
58817SOL     OW78347  10.234   5.899   7.258
58817SOL    HW178348  10.173   5.939   7.195
58817SOL    HW278349  10.233   5.958   7.333
58818SOL     OW78350  14.218  10.125   0.342
58818SOL    HW178351  14.147  10.090   0.288
58818SOL    HW278352  14.266  10.184   0.285
58819SOL     OW78353   9.811  13.598   8.714
58819SOL    HW178354   9.904  13.578   8.710
58819SOL    HW278355   9.807  13.690   8.740
58820SOL     OW78356   3.620   7.432  14.598
58820SOL    HW178357   3.632   7.496  14.668
58820SOL    HW278358   3.642   7.348  14.639
58821SOL     OW78359  14.694   6.685   1.939
58821SOL    HW178360  14.750   6.696   1.863
58821SOL    HW278361  14.676   6.591   1.942
58822SOL     OW78362   1.321   5.414   3.302
58822SOL    HW178363   1.323   5.477   3.374
58822SOL    HW278364   1.279   5.461   3.230
58823SOL     OW78365   5.721  10.193  11.166
58823SOL    HW178366   5.669  10.123  11.205
58823SOL    HW278367   5.665  10.271  11.174
58824SOL     OW78368   5.893  13.297  13.414
58824SOL    HW178369   5.924  13.208  13.401
58824SOL    HW278370   5.906  13.314  13.507
58825SOL     OW78371   0.900   3.817   8.508
58825SOL    HW178372   0.884   3.855   8.595
58825SOL    HW278373   0.906   3.893   8.450
58826SOL     OW78374  12.255   1.351  14.276
58826SOL    HW178375  12.350   1.339  14.275
58826SOL    HW278376  12.241   1.415  14.347
58827SOL     OW78377   3.557   8.528  12.619
58827SOL    HW178378   3.529   8.462  12.683
58827SOL    HW278379   3.652   8.529  12.625
58828SOL     OW78380  11.094   5.190   4.172
58828SOL    HW178381  11.151   5.266   4.180
58828SOL    HW278382  11.122   5.146   4.092
58829SOL     OW78383   6.485   2.695   2.658
58829SOL    HW178384   6.555   2.682   2.722
58829SOL    HW278385   6.530   2.730   2.581
58830SOL     OW78386   5.704   7.895   7.262
58830SOL    HW178387   5.690   7.947   7.183
58830SOL    HW278388   5.682   7.805   7.235
58831SOL     OW78389   9.168   7.421  11.258
58831SOL    HW178390   9.162   7.442  11.165
58831SOL    HW278391   9.261   7.433  11.280
58832SOL     OW78392  11.436   3.276   6.581
58832SOL    HW178393  11.466   3.188   6.607
58832SOL    HW278394  11.439   3.327   6.661
58833SOL     OW78395   1.565   3.128  11.506
58833SOL    HW178396   1.588   3.044  11.544
58833SOL    HW278397   1.469   3.129  11.504
58834SOL     OW78398  14.342   7.266  11.352
58834SOL    HW178399  14.368   7.230  11.437
58834SOL    HW278400  14.363   7.197  11.289
58835SOL     OW78401  12.785  13.925   3.304
58835SOL    HW178402  12.730  13.849   3.288
58835SOL    HW278403  12.820  13.913   3.392
58836SOL     OW78404   1.168  11.566   5.864
58836SOL    HW178405   1.166  11.659   5.887
58836SOL    HW278406   1.187  11.522   5.947
58837SOL     OW78407   9.695   1.965   2.958
58837SOL    HW178408   9.657   1.938   3.042
58837SOL    HW278409   9.619   1.978   2.901
58838SOL     OW78410   3.025   2.706   0.761
58838SOL    HW178411   3.042   2.661   0.678
58838SOL    HW278412   2.943   2.752   0.747
58839SOL     OW78413   5.998   3.361   8.873
58839SOL    HW178414   5.958   3.280   8.841
58839SOL    HW278415   6.032   3.338   8.959
58840SOL     OW78416   6.254   5.537  14.380
58840SOL    HW178417   6.270   5.466  14.442
58840SOL    HW278418   6.293   5.506  14.298
58841SOL     OW78419  11.731   4.273   1.644
58841SOL    HW178420  11.802   4.230   1.692
58841SOL    HW278421  11.740   4.241   1.554
58842SOL     OW78422   9.582   4.884  10.244
58842SOL    HW178423   9.634   4.849  10.316
58842SOL    HW278424   9.622   4.969  10.224
58843SOL     OW78425   3.664   0.853   2.774
58843SOL    HW178426   3.607   0.920   2.810
58843SOL    HW278427   3.750   0.894   2.768
58844SOL     OW78428   9.752   2.551  13.548
58844SOL    HW178429   9.735   2.644  13.529
58844SOL    HW278430   9.786   2.550  13.637
58845SOL     OW78431  14.640   6.644   9.319
58845SOL    HW178432  14.629   6.645   9.224
58845SOL    HW278433  14.692   6.723   9.338
58846SOL     OW78434   8.719  11.058   6.489
58846SOL    HW178435   8.661  11.106   6.549
58846SOL    HW278436   8.661  10.996   6.445
58847SOL     OW78437   6.945   1.155   2.276
58847SOL    HW178438   6.872   1.194   2.324
58847SOL    HW278439   6.908   1.076   2.238
58848SOL     OW78440   9.080  13.091   1.908
58848SOL    HW178441   9.012  13.081   1.975
58848SOL    HW278442   9.112  13.001   1.894
58849SOL     OW78443   8.579  14.440   0.472
58849SOL    HW178444   8.571  14.529   0.438
58849SOL    HW278445   8.585  14.385   0.394
58850SOL     OW78446  14.768   5.510   7.273
58850SOL    HW178447  14.692   5.567   7.267
58850SOL    HW278448  14.732   5.423   7.293
58851SOL     OW78449  11.103  13.309  12.681
58851SOL    HW178450  11.174  13.253  12.714
58851SOL    HW278451  11.120  13.395  12.721
58852SOL     OW78452   3.333  11.499  10.313
58852SOL    HW178453   3.256  11.447  10.336
58852SOL    HW278454   3.388  11.438  10.264
58853SOL     OW78455   7.310   2.383   4.816
58853SOL    HW178456   7.349   2.341   4.892
58853SOL    HW278457   7.376   2.446   4.787
58854SOL     OW78458  11.403  11.856  13.731
58854SOL    HW178459  11.427  11.903  13.651
58854SOL    HW278460  11.422  11.764  13.710
58855SOL     OW78461   8.174   5.692   5.193
58855SOL    HW178462   8.082   5.711   5.210
58855SOL    HW278463   8.202   5.638   5.268
58856SOL     OW78464   4.199   5.920  12.876
58856SOL    HW178465   4.144   5.953  12.805
58856SOL    HW278466   4.234   5.837  12.844
58857SOL     OW78467  12.966  11.968  13.020
58857SOL    HW178468  12.922  11.886  13.041
58857SOL    HW278469  12.930  11.992  12.934
58858SOL     OW78470   6.075  12.042   4.160
58858SOL    HW178471   6.032  11.978   4.218
58858SOL    HW278472   6.139  12.086   4.216
58859SOL     OW78473   4.421  13.925  10.104
58859SOL    HW178474   4.414  13.864  10.030
58859SOL    HW278475   4.463  14.003  10.066
58860SOL     OW78476   6.649  12.793   9.454
58860SOL    HW178477   6.666  12.885   9.476
58860SOL    HW278478   6.574  12.796   9.396
58861SOL     OW78479   6.084   0.053  10.763
58861SOL    HW178480   6.052   0.129  10.714
58861SOL    HW278481   6.083   0.081  10.854
58862SOL     OW78482   9.813  12.413  10.399
58862SOL    HW178483   9.842  12.394  10.488
58862SOL    HW278484   9.883  12.465  10.361
58863SOL     OW78485   5.555   9.438  11.649
58863SOL    HW178486   5.574   9.365  11.591
58863SOL    HW278487   5.512   9.399  11.725
58864SOL     OW78488   8.694  12.892   8.130
58864SOL    HW178489   8.767  12.951   8.113
58864SOL    HW278490   8.654  12.878   8.044
58865SOL     OW78491   1.429   5.580   8.271
58865SOL    HW178492   1.448   5.642   8.341
58865SOL    HW278493   1.436   5.494   8.312
58866SOL     OW78494  10.363  11.915  12.900
58866SOL    HW178495  10.338  11.838  12.850
58866SOL    HW278496  10.374  11.884  12.990
58867SOL     OW78497   1.403   1.877   3.065
58867SOL    HW178498   1.348   1.799   3.058
58867SOL    HW278499   1.486   1.844   3.101
58868SOL     OW78500   2.412  13.363  14.569
58868SOL    HW178501   2.413  13.435  14.633
58868SOL    HW278502   2.385  13.404  14.487
58869SOL     OW78503  10.201  14.336   1.720
58869SOL    HW178504  10.115  14.367   1.746
58869SOL    HW278505  10.185  14.279   1.645
58870SOL     OW78506  10.122   8.213   0.068
58870SOL    HW178507  10.101   8.127   0.103
58870SOL    HW278508  10.037   8.251   0.044
58871SOL     OW78509   1.516  12.592   0.461
58871SOL    HW178510   1.431  12.633   0.476
58871SOL    HW278511   1.529  12.598   0.366
58872SOL     OW78512  13.596   9.404  14.330
58872SOL    HW178513  13.593   9.342  14.403
58872SOL    HW278514  13.688   9.404  14.303
58873SOL     OW78515   0.182   4.943  14.347
58873SOL    HW178516   0.119   4.875  14.327
58873SOL    HW278517   0.242   4.943  14.271
58874SOL     OW78518   7.553   2.624   3.361
58874SOL    HW178519   7.624   2.582   3.409
58874SOL    HW278520   7.579   2.716   3.355
58875SOL     OW78521  14.227  13.851   8.747
58875SOL    HW178522  14.281  13.776   8.771
58875SOL    HW278523  14.220  13.846   8.652
58876SOL     OW78524   2.158  13.387   1.017
58876SOL    HW178525   2.082  13.335   0.991
58876SOL    HW278526   2.137  13.417   1.105
58877SOL     OW78527   9.553   4.065   9.688
58877SOL    HW178528   9.599   4.140   9.727
58877SOL    HW278529   9.501   4.029   9.759
58878SOL     OW78530  12.352  11.548  10.439
58878SOL    HW178531  12.417  11.617  10.451
58878SOL    HW278532  12.284  11.589  10.385
58879SOL     OW78533  10.147   6.859   6.457
58879SOL    HW178534  10.077   6.885   6.516
58879SOL    HW278535  10.215   6.925   6.469
58880SOL     OW78536   3.075   9.371   6.310
58880SOL    HW178537   3.164   9.340   6.293
58880SOL    HW278538   3.019   9.318   6.253
58881SOL     OW78539   8.333   5.497   0.816
58881SOL    HW178540   8.404   5.435   0.798
58881SOL    HW278541   8.344   5.518   0.909
58882SOL     OW78542   2.459   7.570   6.148
58882SOL    HW178543   2.543   7.598   6.184
58882SOL    HW278544   2.396   7.630   6.188
58883SOL     OW78545   9.590   0.729   9.692
58883SOL    HW178546   9.525   0.680   9.642
58883SOL    HW278547   9.562   0.720   9.783
58884SOL     OW78548   2.420   7.445   2.356
58884SOL    HW178549   2.384   7.415   2.273
58884SOL    HW278550   2.354   7.505   2.391
58885SOL     OW78551   1.340  11.525   3.345
58885SOL    HW178552   1.348  11.604   3.399
58885SOL    HW278553   1.360  11.453   3.406
58886SOL     OW78554  13.207   8.082   5.629
58886SOL    HW178555  13.209   8.044   5.717
58886SOL    HW278556  13.295   8.067   5.595
58887SOL     OW78557   0.994  14.382   1.748
58887SOL    HW178558   0.977  14.389   1.654
58887SOL    HW278559   1.044  14.301   1.757
58888SOL     OW78560   2.587  10.945   1.901
58888SOL    HW178561   2.557  10.999   1.974
58888SOL    HW278562   2.681  10.962   1.895
58889SOL     OW78563  11.454   1.369  13.063
58889SOL    HW178564  11.415   1.288  13.098
58889SOL    HW278565  11.379   1.418  13.030
58890SOL     OW78566   9.846   1.873   7.516
58890SOL    HW178567   9.870   1.811   7.585
58890SOL    HW278568   9.915   1.940   7.518
58891SOL     OW78569  11.880  13.848   0.052
58891SOL    HW178570  11.794  13.862   0.012
58891SOL    HW278571  11.935  13.819  14.862
58892SOL     OW78572   8.551   1.393   3.572
58892SOL    HW178573   8.474   1.356   3.614
58892SOL    HW278574   8.553   1.353   3.485
58893SOL     OW78575  13.329   8.122   5.321
58893SOL    HW178576  13.374   8.123   5.237
58893SOL    HW278577  13.372   8.190   5.373
58894SOL     OW78578  11.756   3.967  11.916
58894SOL    HW178579  11.821   3.995  11.852
58894SOL    HW278580  11.747   4.043  11.974
58895SOL     OW78581  12.862   5.700   3.111
58895SOL    HW178582  12.937   5.651   3.075
58895SOL    HW278583  12.791   5.684   3.048
58896SOL     OW78584   1.399   2.234   2.558
58896SOL    HW178585   1.420   2.238   2.651
58896SOL    HW278586   1.451   2.162   2.524
58897SOL     OW78587  13.852   2.929   0.947
58897SOL    HW178588  13.906   2.956   1.021
58897SOL    HW278589  13.793   3.003   0.932
58898SOL     OW78590  13.642  13.609   4.507
58898SOL    HW178591  13.559  13.602   4.460
58898SOL    HW278592  13.708  13.598   4.439
58899SOL     OW78593   2.817   4.908   1.239
58899SOL    HW178594   2.737   4.926   1.288
58899SOL    HW278595   2.863   4.842   1.292
58900SOL     OW78596   0.990   4.586   4.572
58900SOL    HW178597   1.031   4.653   4.628
58900SOL    HW278598   0.977   4.511   4.630
58901SOL     OW78599   1.853  10.804   9.868
58901SOL    HW178600   1.936  10.833   9.906
58901SOL    HW278601   1.792  10.804   9.941
58902SOL     OW78602  11.428   0.761   2.052
58902SOL    HW178603  11.433   0.763   1.956
58902SOL    HW278604  11.430   0.853   2.078
58903SOL     OW78605   8.050   2.694   9.136
58903SOL    HW178606   8.000   2.649   9.204
58903SOL    HW278607   8.010   2.668   9.054
58904SOL     OW78608   5.325  10.455   7.277
58904SOL    HW178609   5.364  10.534   7.239
58904SOL    HW278610   5.344  10.462   7.371
58905SOL     OW78611   6.540   9.233  12.381
58905SOL    HW178612   6.569   9.323  12.398
58905SOL    HW278613   6.457   9.243  12.335
58906SOL     OW78614   0.773   7.860   0.962
58906SOL    HW178615   0.745   7.842   0.872
58906SOL    HW278616   0.694   7.889   1.007
58907SOL     OW78617   3.620   2.063   6.474
58907SOL    HW178618   3.557   2.000   6.508
58907SOL    HW278619   3.683   2.010   6.426
58908SOL     OW78620   3.181  13.647   3.473
58908SOL    HW178621   3.128  13.726   3.458
58908SOL    HW278622   3.222  13.630   3.388
58909SOL     OW78623  10.147   9.457  14.240
58909SOL    HW178624  10.068   9.414  14.272
58909SOL    HW278625  10.115   9.527  14.183
58910SOL     OW78626   8.098   2.302   5.294
58910SOL    HW178627   8.143   2.386   5.294
58910SOL    HW278628   8.165   2.238   5.267
58911SOL     OW78629   6.660   7.395  14.513
58911SOL    HW178630   6.626   7.325  14.457
58911SOL    HW278631   6.748   7.411  14.480
58912SOL     OW78632   8.666   8.154   5.892
58912SOL    HW178633   8.666   8.244   5.925
58912SOL    HW278634   8.754   8.141   5.857
58913SOL     OW78635   3.130   3.958   6.802
58913SOL    HW178636   3.070   3.994   6.737
58913SOL    HW278637   3.128   3.863   6.788
58914SOL     OW78638   4.884   1.466  10.560
58914SOL    HW178639   4.865   1.378  10.593
58914SOL    HW278640   4.827   1.523  10.612
58915SOL     OW78641   7.167  12.750   2.103
58915SOL    HW178642   7.255  12.764   2.069
58915SOL    HW278643   7.167  12.660   2.135
58916SOL     OW78644  13.658   8.959  10.725
58916SOL    HW178645  13.733   8.990  10.776
58916SOL    HW278646  13.640   9.029  10.663
58917SOL     OW78647   4.471  13.150   4.292
58917SOL    HW178648   4.506  13.061   4.301
58917SOL    HW278649   4.539  13.206   4.329
58918SOL     OW78650   3.965   2.706   6.445
58918SOL    HW178651   4.030   2.685   6.378
58918SOL    HW278652   3.981   2.643   6.514
58919SOL     OW78653   1.166  12.667   1.556
58919SOL    HW178654   1.205  12.582   1.575
58919SOL    HW278655   1.172  12.715   1.638
58920SOL     OW78656  10.764   7.733   8.654
58920SOL    HW178657  10.808   7.678   8.589
58920SOL    HW278658  10.753   7.817   8.610
58921SOL     OW78659   9.063   4.558   5.913
58921SOL    HW178660   9.023   4.502   5.980
58921SOL    HW278661   9.030   4.645   5.932
58922SOL     OW78662  13.599   9.691  14.293
58922SOL    HW178663  13.550   9.610  14.278
58922SOL    HW278664  13.689   9.670  14.267
58923SOL     OW78665   6.256   4.997  14.304
58923SOL    HW178666   6.328   4.987  14.242
58923SOL    HW278667   6.242   4.909  14.340
58924SOL     OW78668   4.372   2.093   0.716
58924SOL    HW178669   4.303   2.158   0.729
58924SOL    HW278670   4.338   2.036   0.646
58925SOL     OW78671   8.751  13.881   6.924
58925SOL    HW178672   8.818  13.937   6.965
58925SOL    HW278673   8.801  13.822   6.868
58926SOL     OW78674   3.261   5.473   5.294
58926SOL    HW178675   3.316   5.447   5.220
58926SOL    HW278676   3.310   5.543   5.337
58927SOL     OW78677   6.261   1.960   0.924
58927SOL    HW178678   6.344   2.008   0.925
58927SOL    HW278679   6.234   1.957   1.016
58928SOL     OW78680  12.808   5.225  11.316
58928SOL    HW178681  12.860   5.296  11.280
58928SOL    HW278682  12.864   5.148  11.309
58929SOL     OW78683   0.652   2.252   3.541
58929SOL    HW178684   0.633   2.275   3.450
58929SOL    HW278685   0.747   2.254   3.548
58930SOL     OW78686   2.129   5.935   0.484
58930SOL    HW178687   2.155   5.879   0.557
58930SOL    HW278688   2.034   5.933   0.485
58931SOL     OW78689   4.617  10.296   3.360
58931SOL    HW178690   4.593  10.265   3.272
58931SOL    HW278691   4.710  10.317   3.354
58932SOL     OW78692   1.740   8.287   9.164
58932SOL    HW178693   1.729   8.310   9.256
58932SOL    HW278694   1.658   8.313   9.122
58933SOL     OW78695  12.961  13.002   2.566
58933SOL    HW178696  13.006  13.010   2.650
58933SOL    HW278697  12.880  13.051   2.578
58934SOL     OW78698   1.132   0.307   9.327
58934SOL    HW178699   1.090   0.309   9.242
58934SOL    HW278700   1.217   0.266   9.311
58935SOL     OW78701  11.753  10.029   7.520
58935SOL    HW178702  11.684   9.987   7.571
58935SOL    HW278703  11.830  10.029   7.578
58936SOL     OW78704   8.541   9.715  10.293
58936SOL    HW178705   8.565   9.623  10.282
58936SOL    HW278706   8.462   9.726  10.240
58937SOL     OW78707  13.310   2.161   0.876
58937SOL    HW178708  13.229   2.121   0.908
58937SOL    HW278709  13.364   2.087   0.848
58938SOL     OW78710   4.242   3.642   9.087
58938SOL    HW178711   4.298   3.593   9.027
58938SOL    HW278712   4.194   3.703   9.031
58939SOL     OW78713   0.616   5.233   2.953
58939SOL    HW178714   0.668   5.154   2.964
58939SOL    HW278715   0.651   5.274   2.874
58940SOL     OW78716   2.658   3.271  11.883
58940SOL    HW178717   2.665   3.211  11.808
58940SOL    HW278718   2.746   3.275  11.919
58941SOL     OW78719   9.251  14.050  12.781
58941SOL    HW178720   9.265  14.060  12.875
58941SOL    HW278721   9.340  14.044  12.744
58942SOL     OW78722  10.494   4.291   8.378
58942SOL    HW178723  10.499   4.237   8.456
58942SOL    HW278724  10.564   4.258   8.322
58943SOL     OW78725  13.540  14.127   7.012
58943SOL    HW178726  13.549  14.207   6.960
58943SOL    HW278727  13.447  14.121   7.030
58944SOL     OW78728   2.858  13.783  14.282
58944SOL    HW178729   2.869  13.756  14.373
58944SOL    HW278730   2.899  13.870  14.279
58945SOL     OW78731   7.036  12.987   2.012
58945SOL    HW178732   6.952  12.989   2.057
58945SOL    HW278733   7.067  12.897   2.022
58946SOL     OW78734  10.039   1.780   5.004
58946SOL    HW178735   9.953   1.814   5.030
58946SOL    HW278736  10.101   1.845   5.038
58947SOL     OW78737  14.431   4.565  13.964
58947SOL    HW178738  14.497   4.597  13.903
58947SOL    HW278739  14.480   4.548  14.045
58948SOL     OW78740  12.073   9.816   6.613
58948SOL    HW178741  12.083   9.721   6.620
58948SOL    HW278742  12.129   9.851   6.683
58949SOL     OW78743  11.786   4.444   1.846
58949SOL    HW178744  11.750   4.398   1.770
58949SOL    HW278745  11.710   4.480   1.890
58950SOL     OW78746  14.118   9.785   1.084
58950SOL    HW178747  14.123   9.811   0.992
58950SOL    HW278748  14.025   9.767   1.099
58951SOL     OW78749  10.481  14.126  12.887
58951SOL    HW178750  10.418  14.067  12.846
58951SOL    HW278751  10.544  14.145  12.818
58952SOL     OW78752   1.908   5.706   6.042
58952SOL    HW178753   1.933   5.615   6.061
58952SOL    HW278754   1.831   5.721   6.096
58953SOL     OW78755   7.384   0.289  11.423
58953SOL    HW178756   7.311   0.308  11.364
58953SOL    HW278757   7.344   0.245  11.498
58954SOL     OW78758   6.742   8.994  14.210
58954SOL    HW178759   6.780   9.082  14.209
58954SOL    HW278760   6.649   9.008  14.193
58955SOL     OW78761   9.218  11.049   2.382
58955SOL    HW178762   9.151  11.118   2.389
58955SOL    HW278763   9.301  11.096   2.383
58956SOL     OW78764  11.973  12.770   4.795
58956SOL    HW178765  11.935  12.734   4.875
58956SOL    HW278766  11.927  12.852   4.780
58957SOL     OW78767   8.096   5.541  13.221
58957SOL    HW178768   8.155   5.607  13.184
58957SOL    HW278769   8.050   5.586  13.291
58958SOL     OW78770   5.567   0.208   2.050
58958SOL    HW178771   5.546   0.118   2.023
58958SOL    HW278772   5.489   0.237   2.097
58959SOL     OW78773   8.411   1.163   4.647
58959SOL    HW178774   8.415   1.093   4.712
58959SOL    HW278775   8.458   1.236   4.687
58960SOL     OW78776   4.163   5.919  13.587
58960SOL    HW178777   4.220   5.990  13.619
58960SOL    HW278778   4.173   5.921  13.492
58961SOL     OW78779  14.017  11.684   5.319
58961SOL    HW178780  14.047  11.774   5.335
58961SOL    HW278781  13.954  11.692   5.247
58962SOL     OW78782   0.696   6.659   3.387
58962SOL    HW178783   0.672   6.569   3.367
58962SOL    HW278784   0.786   6.653   3.419
58963SOL     OW78785   0.266   7.205   6.148
58963SOL    HW178786   0.282   7.111   6.159
58963SOL    HW278787   0.183   7.210   6.101
58964SOL     OW78788  14.024   3.433  11.005
58964SOL    HW178789  13.967   3.500  11.042
58964SOL    HW278790  14.105   3.441  11.055
58965SOL     OW78791   9.904   0.175   9.140
58965SOL    HW178792   9.866   0.178   9.052
58965SOL    HW278793   9.829   0.183   9.199
58966SOL     OW78794   0.230   9.316   4.148
58966SOL    HW178795   0.227   9.225   4.179
58966SOL    HW278796   0.247   9.367   4.227
58967SOL     OW78797   5.261  11.240   0.902
58967SOL    HW178798   5.330  11.285   0.952
58967SOL    HW278799   5.224  11.309   0.846
58968SOL     OW78800   5.019  14.099  13.713
58968SOL    HW178801   4.969  14.088  13.632
58968SOL    HW278802   5.004  14.018  13.761
58969SOL     OW78803   2.661   4.278   8.045
58969SOL    HW178804   2.661   4.227   7.964
58969SOL    HW278805   2.730   4.237   8.098
58970SOL     OW78806   3.639   7.756   4.752
58970SOL    HW178807   3.620   7.679   4.806
58970SOL    HW278808   3.561   7.768   4.698
58971SOL     OW78809  11.236  10.301  11.909
58971SOL    HW178810  11.266  10.352  11.834
58971SOL    HW278811  11.256  10.210  11.886
58972SOL     OW78812  11.383   0.512   2.456
58972SOL    HW178813  11.344   0.555   2.532
58972SOL    HW278814  11.464   0.474   2.488
58973SOL     OW78815   5.228  10.350  13.101
58973SOL    HW178816   5.158  10.284  13.094
58973SOL    HW278817   5.303  10.309  13.059
58974SOL     OW78818   9.792   2.976  14.254
58974SOL    HW178819   9.765   3.055  14.300
58974SOL    HW278820   9.710   2.928  14.240
58975SOL     OW78821   7.433  13.135   9.422
58975SOL    HW178822   7.380  13.176   9.353
58975SOL    HW278823   7.394  13.167   9.503
58976SOL     OW78824   1.071   1.766   2.142
58976SOL    HW178825   1.135   1.696   2.153
58976SOL    HW278826   1.122   1.846   2.151
58977SOL     OW78827   4.538   2.038  10.087
58977SOL    HW178828   4.586   2.020  10.006
58977SOL    HW278829   4.512   2.130  10.081
58978SOL     OW78830   2.560  13.650  13.251
58978SOL    HW178831   2.651  13.652  13.281
58978SOL    HW278832   2.566  13.627  13.159
58979SOL     OW78833   6.609   2.215   6.721
58979SOL    HW178834   6.626   2.134   6.673
58979SOL    HW278835   6.530   2.196   6.772
58980SOL     OW78836  14.217   2.676  12.136
58980SOL    HW178837  14.251   2.594  12.098
58980SOL    HW278838  14.294   2.717  12.176
58981SOL     OW78839  11.523  13.588  10.291
58981SOL    HW178840  11.544  13.665  10.237
58981SOL    HW278841  11.609  13.550  10.312
58982SOL     OW78842  12.639  14.208   2.165
58982SOL    HW178843  12.699  14.193   2.092
58982SOL    HW278844  12.553  14.186   2.130
58983SOL     OW78845   2.081  10.850   4.171
58983SOL    HW178846   2.166  10.832   4.212
58983SOL    HW278847   2.101  10.864   4.079
58984SOL     OW78848  10.466   6.584   0.953
58984SOL    HW178849  10.515   6.554   1.029
58984SOL    HW278850  10.519   6.558   0.878
58985SOL     OW78851   3.269  14.119  14.436
58985SOL    HW178852   3.305  14.030  14.432
58985SOL    HW278853   3.343  14.174  14.462
58986SOL     OW78854   1.022  11.833   3.839
58986SOL    HW178855   0.963  11.867   3.906
58986SOL    HW278856   1.107  11.827   3.884
58987SOL     OW78857   9.918   9.561   9.875
58987SOL    HW178858   9.830   9.545   9.910
58987SOL    HW278859   9.919   9.515   9.791
58988SOL     OW78860   1.739  11.938   0.514
58988SOL    HW178861   1.725  11.847   0.537
58988SOL    HW278862   1.801  11.970   0.579
58989SOL     OW78863   0.080   3.067   9.047
58989SOL    HW178864   0.047   3.108   9.127
58989SOL    HW278865   0.163   3.112   9.030
58990SOL     OW78866   6.324   6.898  10.741
58990SOL    HW178867   6.251   6.854  10.783
58990SOL    HW278868   6.395   6.896  10.806
58991SOL     OW78869  12.733   3.202   1.121
58991SOL    HW178870  12.730   3.109   1.099
58991SOL    HW278871  12.825   3.220   1.137
58992SOL     OW78872   2.625   2.367   5.747
58992SOL    HW178873   2.679   2.288   5.741
58992SOL    HW278874   2.687   2.439   5.732
58993SOL     OW78875   2.801  12.393   3.226
58993SOL    HW178876   2.841  12.455   3.286
58993SOL    HW278877   2.855  12.314   3.232
58994SOL     OW78878   0.098  14.308  10.211
58994SOL    HW178879   0.156  14.368  10.165
58994SOL    HW278880   0.012  14.324  10.174
58995SOL     OW78881  13.654   9.694   6.116
58995SOL    HW178882  13.648   9.776   6.165
58995SOL    HW278883  13.676   9.721   6.027
58996SOL     OW78884   8.444   6.273   1.817
58996SOL    HW178885   8.359   6.235   1.796
58996SOL    HW278886   8.466   6.328   1.742
58997SOL     OW78887  14.398   6.790   9.397
58997SOL    HW178888  14.316   6.751   9.426
58997SOL    HW278889  14.456   6.715   9.382
58998SOL     OW78890   3.566  13.162  10.301
58998SOL    HW178891   3.632  13.175  10.233
58998SOL    HW278892   3.613  13.178  10.383
58999SOL     OW78893   6.934   0.312  12.348
58999SOL    HW178894   7.028   0.306  12.333
58999SOL    HW278895   6.897   0.240  12.296
59000SOL     OW78896  11.021  10.298  11.483
59000SOL    HW178897  10.985  10.298  11.572
59000SOL    HW278898  11.074  10.219  11.479
59001SOL     OW78899  13.660   6.777  10.742
59001SOL    HW178900  13.658   6.866  10.706
59001SOL    HW278901  13.719   6.784  10.818
59002SOL     OW78902  10.889   0.546   1.756
59002SOL    HW178903  10.891   0.611   1.825
59002SOL    HW278904  10.816   0.488   1.780
59003SOL     OW78905   9.021   4.403  10.236
59003SOL    HW178906   8.976   4.451  10.167
59003SOL    HW278907   8.966   4.326  10.252
59004SOL     OW78908  14.821   7.155   9.721
59004SOL    HW178909  14.748   7.161   9.660
59004SOL    HW278910  14.803   7.076   9.773
59005SOL     OW78911   3.067  13.957   2.165
59005SOL    HW178912   2.973  13.950   2.151
59005SOL    HW278913   3.079  13.939   2.258
59006SOL     OW78914   5.558   1.632  11.094
59006SOL    HW178915   5.498   1.595  11.028
59006SOL    HW278916   5.504   1.692  11.144
59007SOL     OW78917   6.979   8.363   6.400
59007SOL    HW178918   7.036   8.353   6.324
59007SOL    HW278919   7.031   8.413   6.463
59008SOL     OW78920   5.298   1.558   4.097
59008SOL    HW178921   5.290   1.567   4.002
59008SOL    HW278922   5.225   1.608   4.132
59009SOL     OW78923   5.885   2.780   9.932
59009SOL    HW178924   5.949   2.713   9.956
59009SOL    HW278925   5.925   2.863   9.959
59010SOL     OW78926   5.774   2.260   5.393
59010SOL    HW178927   5.863   2.284   5.417
59010SOL    HW278928   5.746   2.199   5.461
59011SOL     OW78929   6.733   4.017   5.412
59011SOL    HW178930   6.721   4.043   5.503
59011SOL    HW278931   6.779   3.933   5.417
59012SOL     OW78932   9.301   4.749   0.952
59012SOL    HW178933   9.288   4.657   0.926
59012SOL    HW278934   9.212   4.785   0.958
59013SOL     OW78935   1.171   2.522  14.774
59013SOL    HW178936   1.104   2.517  14.706
59013SOL    HW278937   1.128   2.491  14.853
59014SOL     OW78938   9.134   3.951  11.200
59014SOL    HW178939   9.135   3.988  11.289
59014SOL    HW278940   9.172   4.020  11.145
59015SOL     OW78941   8.975   4.028  11.742
59015SOL    HW178942   8.978   3.973  11.820
59015SOL    HW278943   8.898   3.999  11.694
59016SOL     OW78944   8.290   8.085  12.439
59016SOL    HW178945   8.293   8.093  12.344
59016SOL    HW278946   8.301   8.175  12.471
59017SOL     OW78947   8.824   6.613  11.654
59017SOL    HW178948   8.797   6.529  11.693
59017SOL    HW278949   8.756   6.675  11.682
59018SOL     OW78950  12.452   0.346   8.192
59018SOL    HW178951  12.470   0.252   8.189
59018SOL    HW278952  12.478   0.373   8.280
59019SOL     OW78953   2.276  12.952   9.356
59019SOL    HW178954   2.357  12.954   9.408
59019SOL    HW278955   2.262  13.044   9.332
59020SOL     OW78956  13.195   8.108   9.001
59020SOL    HW178957  13.145   8.074   8.927
59020SOL    HW278958  13.145   8.082   9.078
59021SOL     OW78959   9.426  12.141   5.118
59021SOL    HW178960   9.471  12.189   5.049
59021SOL    HW278961   9.400  12.208   5.181
59022SOL     OW78962  12.724   6.747  12.258
59022SOL    HW178963  12.753   6.730  12.168
59022SOL    HW278964  12.723   6.661  12.300
59023SOL     OW78965   7.743   8.557   1.555
59023SOL    HW178966   7.666   8.603   1.521
59023SOL    HW278967   7.716   8.527   1.642
59024SOL     OW78968  14.662   5.113   0.106
59024SOL    HW178969  14.626   5.043   0.051
59024SOL    HW278970  14.729   5.154   0.051
59025SOL     OW78971   7.640   0.574  12.851
59025SOL    HW178972   7.597   0.505  12.800
59025SOL    HW278973   7.733   0.553  12.845
59026SOL     OW78974   1.249   5.269  11.166
59026SOL    HW178975   1.189   5.200  11.195
59026SOL    HW278976   1.192   5.337  11.130
59027SOL     OW78977   3.460  11.100   9.337
59027SOL    HW178978   3.442  11.159   9.410
59027SOL    HW278979   3.468  11.157   9.260
59028SOL     OW78980   4.902   2.024   5.580
59028SOL    HW178981   4.959   1.975   5.640
59028SOL    HW278982   4.961   2.054   5.510
59029SOL     OW78983   4.445  12.178  11.160
59029SOL    HW178984   4.349  12.181  11.165
59029SOL    HW278985   4.472  12.269  11.163
59030SOL     OW78986   0.576  13.791  10.073
59030SOL    HW178987   0.665  13.826  10.072
59030SOL    HW278988   0.520  13.868  10.066
59031SOL     OW78989   0.686   8.818   3.291
59031SOL    HW178990   0.719   8.769   3.215
59031SOL    HW278991   0.764   8.851   3.334
59032SOL     OW78992   8.914  13.003   9.773
59032SOL    HW178993   8.908  12.917   9.730
59032SOL    HW278994   9.000  13.004   9.813
59033SOL     OW78995   0.014  10.797  13.479
59033SOL    HW178996   0.020  10.893  13.476
59033SOL    HW278997  14.803  10.779  13.463
59034SOL     OW78998   1.945   8.001   7.986
59034SOL    HW178999   1.867   8.052   7.964
59034SOL    HW279000   2.017   8.046   7.942
59035SOL     OW79001   7.858   6.194  12.222
59035SOL    HW179002   7.888   6.275  12.181
59035SOL    HW279003   7.801   6.223  12.294
59036SOL     OW79004  13.875   6.051   9.846
59036SOL    HW179005  13.920   6.054   9.930
59036SOL    HW279006  13.910   6.126   9.797
59037SOL     OW79007   9.331  14.001  11.970
59037SOL    HW179008   9.384  13.934  12.015
59037SOL    HW279009   9.250  13.956  11.948
59038SOL     OW79010   8.535   2.508   3.521
59038SOL    HW179011   8.513   2.597   3.550
59038SOL    HW279012   8.512   2.506   3.428
59039SOL     OW79013   4.105  10.152   6.587
59039SOL    HW179014   4.182  10.099   6.608
59039SOL    HW279015   4.031  10.094   6.604
59040SOL     OW79016   2.196   9.930  12.351
59040SOL    HW179017   2.168   9.884  12.271
59040SOL    HW279018   2.116   9.938  12.403
59041SOL     OW79019   6.676   2.156   2.070
59041SOL    HW179020   6.622   2.115   2.002
59041SOL    HW279021   6.679   2.091   2.140
59042SOL     OW79022   8.119  12.631   4.644
59042SOL    HW179023   8.173  12.677   4.580
59042SOL    HW279024   8.044  12.600   4.593
59043SOL     OW79025   4.775  10.958  12.202
59043SOL    HW179026   4.691  10.920  12.175
59043SOL    HW279027   4.766  11.051  12.185
59044SOL     OW79028  14.692   5.466   8.137
59044SOL    HW179029  14.693   5.550   8.183
59044SOL    HW279030  14.752   5.411   8.187
59045SOL     OW79031   4.699   9.652  10.977
59045SOL    HW179032   4.659   9.645  10.890
59045SOL    HW279033   4.710   9.561  11.006
59046SOL     OW79034   8.840  14.417   0.526
59046SOL    HW179035   8.754  14.429   0.487
59046SOL    HW279036   8.841  14.325   0.554
59047SOL     OW79037  11.219   9.638   2.886
59047SOL    HW179038  11.301   9.688   2.891
59047SOL    HW279039  11.204   9.625   2.793
59048SOL     OW79040  10.521  12.372   4.886
59048SOL    HW179041  10.533  12.279   4.870
59048SOL    HW279042  10.604  12.412   4.858
59049SOL     OW79043  14.242   4.781   5.363
59049SOL    HW179044  14.267   4.836   5.289
59049SOL    HW279045  14.165   4.733   5.333
59050SOL     OW79046   3.885  13.520  13.358
59050SOL    HW179047   3.883  13.435  13.401
59050SOL    HW279048   3.826  13.574  13.410
59051SOL     OW79049   7.939   6.959   6.002
59051SOL    HW179050   7.909   6.956   6.093
59051SOL    HW279051   8.017   7.014   6.004
59052SOL     OW79052   2.131   7.946   3.427
59052SOL    HW179053   2.148   7.922   3.336
59052SOL    HW279054   2.042   7.982   3.427
59053SOL     OW79055   7.532   1.649   8.845
59053SOL    HW179056   7.519   1.629   8.752
59053SOL    HW279057   7.621   1.684   8.851
59054SOL     OW79058  11.484  11.799  11.287
59054SOL    HW179059  11.545  11.862  11.324
59054SOL    HW279060  11.541  11.731  11.249
59055SOL     OW79061   3.812  13.688  10.892
59055SOL    HW179062   3.811  13.641  10.808
59055SOL    HW279063   3.904  13.686  10.919
59056SOL     OW79064   2.778  10.463   7.434
59056SOL    HW179065   2.861  10.460   7.386
59056SOL    HW279066   2.788  10.536   7.494
59057SOL     OW79067   4.536  11.941  11.771
59057SOL    HW179068   4.553  12.034  11.778
59057SOL    HW279069   4.491  11.919  11.853
59058SOL     OW79070   2.310   7.290   4.723
59058SOL    HW179071   2.349   7.377   4.722
59058SOL    HW279072   2.385   7.230   4.725
59059SOL     OW79073   0.888   0.277   4.914
59059SOL    HW179074   0.797   0.251   4.929
59059SOL    HW279075   0.940   0.208   4.956
59060SOL     OW79076   0.033   8.713   1.310
59060SOL    HW179077  14.852   8.753   1.249
59060SOL    HW279078   0.093   8.784   1.331
59061SOL     OW79079   5.597  12.582   7.816
59061SOL    HW179080   5.593  12.539   7.901
59061SOL    HW279081   5.547  12.525   7.758
59062SOL     OW79082   5.177   2.621   5.803
59062SOL    HW179083   5.117   2.552   5.833
59062SOL    HW279084   5.168   2.691   5.868
59063SOL     OW79085   2.439   2.135   2.969
59063SOL    HW179086   2.382   2.080   3.022
59063SOL    HW279087   2.516   2.080   2.952
59064SOL     OW79088   7.935   5.241   7.219
59064SOL    HW179089   7.922   5.211   7.129
59064SOL    HW279090   7.862   5.300   7.236
59065SOL     OW79091  14.122  12.393  11.437
59065SOL    HW179092  14.104  12.468  11.380
59065SOL    HW279093  14.116  12.317  11.380
59066SOL     OW79094  10.971  11.796  11.418
59066SOL    HW179095  10.935  11.724  11.469
59066SOL    HW279096  10.977  11.869  11.480
59067SOL     OW79097  10.396   3.314  14.167
59067SOL    HW179098  10.414   3.242  14.228
59067SOL    HW279099  10.458   3.300  14.095
59068SOL     OW79100   3.226   4.216  12.588
59068SOL    HW179101   3.264   4.285  12.534
59068SOL    HW279102   3.227   4.253  12.677
59069SOL     OW79103  11.747   1.712   8.107
59069SOL    HW179104  11.751   1.805   8.130
59069SOL    HW279105  11.746   1.667   8.192
59070SOL     OW79106  11.895  10.412   6.966
59070SOL    HW179107  11.937  10.326   6.962
59070SOL    HW279108  11.953  10.469   6.915
59071SOL     OW79109   3.896   3.812   3.562
59071SOL    HW179110   3.808   3.786   3.589
59071SOL    HW279111   3.951   3.737   3.587
59072SOL     OW79112   5.252   6.051   1.993
59072SOL    HW179113   5.284   6.026   1.906
59072SOL    HW279114   5.327   6.092   2.036
59073SOL     OW79115   3.667  13.801   3.912
59073SOL    HW179116   3.690  13.727   3.856
59073SOL    HW279117   3.751  13.838   3.938
59074SOL     OW79118  12.459   0.362  11.141
59074SOL    HW179119  12.434   0.275  11.172
59074SOL    HW279120  12.385   0.418  11.165
59075SOL     OW79121   3.287   9.037   5.620
59075SOL    HW179122   3.272   9.075   5.534
59075SOL    HW279123   3.231   9.086   5.679
59076SOL     OW79124   2.422   8.572  10.644
59076SOL    HW179125   2.480   8.633  10.691
59076SOL    HW279126   2.334   8.607  10.658
59077SOL     OW79127   8.667  10.244  12.369
59077SOL    HW179128   8.603  10.176  12.350
59077SOL    HW279129   8.725  10.206  12.434
59078SOL     OW79130  13.290  12.941  11.352
59078SOL    HW179131  13.335  12.913  11.272
59078SOL    HW279132  13.323  13.029  11.369
59079SOL     OW79133   0.772  13.333   5.427
59079SOL    HW179134   0.758  13.348   5.520
59079SOL    HW279135   0.831  13.404   5.400
59080SOL     OW79136  10.622   5.302   4.235
59080SOL    HW179137  10.690   5.335   4.176
59080SOL    HW279138  10.670   5.272   4.312
59081SOL     OW79139  12.426  11.424   3.611
59081SOL    HW179140  12.486  11.441   3.538
59081SOL    HW279141  12.483  11.391   3.681
59082SOL     OW79142  12.764  12.291   3.544
59082SOL    HW179143  12.710  12.341   3.605
59082SOL    HW279144  12.710  12.282   3.466
59083SOL     OW79145   0.835   7.152   5.782
59083SOL    HW179146   0.906   7.212   5.804
59083SOL    HW279147   0.878   7.082   5.732
59084SOL     OW79148  14.406   8.680   0.066
59084SOL    HW179149  14.360   8.718   0.141
59084SOL    HW279150  14.480   8.739   0.051
59085SOL     OW79151   3.022   5.571  13.476
59085SOL    HW179152   2.928   5.572  13.496
59085SOL    HW279153   3.064   5.612  13.551
59086SOL     OW79154   3.312   0.456   8.953
59086SOL    HW179155   3.308   0.373   8.905
59086SOL    HW279156   3.384   0.504   8.911
59087SOL     OW79157  10.423  10.928   6.081
59087SOL    HW179158  10.418  10.966   5.993
59087SOL    HW279159  10.367  10.850   6.077
59088SOL     OW79160   9.212  11.464   5.192
59088SOL    HW179161   9.236  11.496   5.105
59088SOL    HW279162   9.179  11.375   5.177
59089SOL     OW79163  10.093   3.097  10.102
59089SOL    HW179164   9.999   3.109  10.085
59089SOL    HW279165  10.123   3.040  10.032
59090SOL     OW79166   5.074   6.201  13.495
59090SOL    HW179167   5.129   6.123  13.496
59090SOL    HW279168   5.033   6.200  13.408
59091SOL     OW79169  11.353   0.163  10.318
59091SOL    HW179170  11.373   0.147  10.410
59091SOL    HW279171  11.263   0.132  10.307
59092SOL     OW79172  14.773   0.822   7.492
59092SOL    HW179173  14.855   0.861   7.461
59092SOL    HW279174  14.706   0.858   7.435
59093SOL     OW79175   1.011   6.813   7.535
59093SOL    HW179176   1.066   6.737   7.553
59093SOL    HW279177   1.063   6.867   7.476
59094SOL     OW79178  11.679  14.434   9.541
59094SOL    HW179179  11.681  14.350   9.496
59094SOL    HW279180  11.588  14.445   9.568
59095SOL     OW79181   3.016   3.561  12.360
59095SOL    HW179182   2.997   3.483  12.413
59095SOL    HW279183   2.978   3.633  12.410
59096SOL     OW79184   5.790  11.822   9.101
59096SOL    HW179185   5.704  11.785   9.081
59096SOL    HW279186   5.780  11.916   9.086
59097SOL     OW79187   2.504  12.768   1.532
59097SOL    HW179188   2.446  12.705   1.490
59097SOL    HW279189   2.481  12.763   1.625
59098SOL     OW79190   4.568   1.193   1.678
59098SOL    HW179191   4.530   1.267   1.725
59098SOL    HW279192   4.495   1.157   1.627
59099SOL     OW79193   7.772  10.548   7.385
59099SOL    HW179194   7.710  10.479   7.359
59099SOL    HW279195   7.830  10.506   7.448
59100SOL     OW79196   3.046   1.101  13.572
59100SOL    HW179197   2.993   1.022  13.560
59100SOL    HW279198   2.997   1.152  13.637
59101SOL     OW79199   9.660   8.933   9.981
59101SOL    HW179200   9.685   9.022  10.009
59101SOL    HW279201   9.723   8.912   9.912
59102SOL     OW79202   8.875   0.625  10.957
59102SOL    HW179203   8.956   0.676  10.948
59102SOL    HW279204   8.823   0.648  10.880
59103SOL     OW79205   5.649   0.345   3.230
59103SOL    HW179206   5.581   0.336   3.163
59103SOL    HW279207   5.625   0.425   3.277
59104SOL     OW79208   2.974   9.428   4.216
59104SOL    HW179209   2.955   9.522   4.210
59104SOL    HW279210   2.888   9.386   4.219
59105SOL     OW79211   0.116   7.384  14.405
59105SOL    HW179212   0.080   7.360  14.491
59105SOL    HW279213   0.057   7.452  14.373
59106SOL     OW79214   5.629   6.505   4.596
59106SOL    HW179215   5.600   6.414   4.586
59106SOL    HW279216   5.588   6.535   4.677
59107SOL     OW79217  13.088   5.969   9.276
59107SOL    HW179218  13.032   6.047   9.279
59107SOL    HW279219  13.140   5.973   9.356
59108SOL     OW79220   5.079   0.820   8.303
59108SOL    HW179221   5.045   0.740   8.262
59108SOL    HW279222   5.165   0.833   8.262
59109SOL     OW79223   7.983  11.745   7.501
59109SOL    HW179224   8.014  11.697   7.425
59109SOL    HW279225   7.903  11.699   7.527
59110SOL     OW79226   2.399   5.026   4.012
59110SOL    HW179227   2.482   5.054   4.052
59110SOL    HW279228   2.339   5.018   4.085
59111SOL     OW79229   5.068  13.763   7.575
59111SOL    HW179230   5.095  13.816   7.500
59111SOL    HW279231   5.078  13.672   7.545
59112SOL     OW79232  14.634   9.120  13.979
59112SOL    HW179233  14.675   9.205  13.961
59112SOL    HW279234  14.670   9.094  14.064
59113SOL     OW79235   3.656  11.375  14.097
59113SOL    HW179236   3.602  11.383  14.176
59113SOL    HW279237   3.656  11.281  14.077
59114SOL     OW79238   4.594  14.681  14.179
59114SOL    HW179239   4.518  14.624  14.167
59114SOL    HW279240   4.590  14.742  14.106
59115SOL     OW79241  10.047   6.889   1.834
59115SOL    HW179242  10.127   6.938   1.854
59115SOL    HW279243  10.050   6.814   1.893
59116SOL     OW79244  13.840   2.163   2.977
59116SOL    HW179245  13.870   2.075   2.997
59116SOL    HW279246  13.919   2.209   2.948
59117SOL     OW79247   9.537   6.939   5.033
59117SOL    HW179248   9.454   6.976   5.003
59117SOL    HW279249   9.535   6.848   5.001
59118SOL     OW79250  12.971   4.701  12.512
59118SOL    HW179251  13.003   4.659  12.591
59118SOL    HW279252  12.892   4.748  12.539
59119SOL     OW79253   0.668  10.765  14.669
59119SOL    HW179254   0.734  10.822  14.628
59119SOL    HW279255   0.604  10.748  14.600
59120SOL     OW79256  12.693  14.790  10.426
59120SOL    HW179257  12.781  14.824  10.409
59120SOL    HW279258  12.682  14.719  10.363
59121SOL     OW79259   5.683   3.321   6.157
59121SOL    HW179260   5.676   3.234   6.118
59121SOL    HW279261   5.620   3.374   6.108
59122SOL     OW79262   9.157   0.162   9.194
59122SOL    HW179263   9.173   0.214   9.115
59122SOL    HW279264   9.062   0.160   9.202
59123SOL     OW79265   1.544   6.803   6.185
59123SOL    HW179266   1.599   6.864   6.137
59123SOL    HW279267   1.484   6.859   6.235
59124SOL     OW79268   8.512  10.930   2.697
59124SOL    HW179269   8.448  10.865   2.668
59124SOL    HW279270   8.507  10.928   2.792
59125SOL     OW79271   0.698  12.858   9.493
59125SOL    HW179272   0.624  12.811   9.455
59125SOL    HW279273   0.727  12.802   9.565
59126SOL     OW79274   0.138   7.335  12.296
59126SOL    HW179275   0.054   7.363  12.331
59126SOL    HW279276   0.193   7.413  12.298
59127SOL     OW79277   5.254   9.308   5.291
59127SOL    HW179278   5.247   9.215   5.272
59127SOL    HW279279   5.170   9.345   5.263
59128SOL     OW79280  14.036   4.883  11.895
59128SOL    HW179281  14.102   4.919  11.836
59128SOL    HW279282  14.024   4.793  11.865
59129SOL     OW79283   1.723   3.120   6.243
59129SOL    HW179284   1.699   3.164   6.325
59129SOL    HW279285   1.770   3.187   6.193
59130SOL     OW79286  12.574   7.782   5.615
59130SOL    HW179287  12.570   7.877   5.625
59130SOL    HW279288  12.582   7.749   5.705
59131SOL     OW79289  13.814   7.070   1.362
59131SOL    HW179290  13.760   7.074   1.441
59131SOL    HW279291  13.898   7.036   1.392
59132SOL     OW79292   9.602  13.830   0.055
59132SOL    HW179293   9.542  13.760   0.027
59132SOL    HW279294   9.609  13.888  14.860
59133SOL     OW79295   0.101  11.930   8.419
59133SOL    HW179296   0.081  11.905   8.509
59133SOL    HW279297   0.067  12.019   8.411
59134SOL     OW79298  12.060   9.004   8.192
59134SOL    HW179299  11.982   9.010   8.247
59134SOL    HW279300  12.026   8.989   8.104
59135SOL     OW79301   7.541  10.836   4.660
59135SOL    HW179302   7.482  10.772   4.700
59135SOL    HW279303   7.482  10.902   4.623
59136SOL     OW79304   5.679  12.663   1.568
59136SOL    HW179305   5.743  12.703   1.509
59136SOL    HW279306   5.601  12.650   1.514
59137SOL     OW79307   1.021   4.880   7.270
59137SOL    HW179308   0.946   4.930   7.237
59137SOL    HW279309   1.042   4.920   7.354
59138SOL     OW79310  13.268   2.385   7.729
59138SOL    HW179311  13.230   2.314   7.677
59138SOL    HW279312  13.227   2.464   7.695
59139SOL     OW79313   8.656   7.934   6.163
59139SOL    HW179314   8.682   7.999   6.228
59139SOL    HW279315   8.616   7.986   6.093
59140SOL     OW79316   9.788   0.574   8.685
59140SOL    HW179317   9.793   0.513   8.759
59140SOL    HW279318   9.793   0.661   8.725
59141SOL     OW79319  11.975  10.429   7.344
59141SOL    HW179320  12.066  10.440   7.317
59141SOL    HW279321  11.960  10.335   7.341
59142SOL     OW79322   2.001   2.624  14.725
59142SOL    HW179323   2.039   2.588  14.645
59142SOL    HW279324   1.927   2.676  14.695
59143SOL     OW79325  10.633   5.089   8.101
59143SOL    HW179326  10.581   5.158   8.142
59143SOL    HW279327  10.715   5.087   8.150
59144SOL     OW79328   3.968  12.613  13.931
59144SOL    HW179329   4.026  12.552  13.978
59144SOL    HW279330   3.884  12.605  13.975
59145SOL     OW79331   8.582   9.963  10.909
59145SOL    HW179332   8.507  10.015  10.938
59145SOL    HW279333   8.610  10.004  10.827
59146SOL     OW79334  11.267   3.666   1.999
59146SOL    HW179335  11.343   3.683   1.943
59146SOL    HW279336  11.216   3.747   1.996
59147SOL     OW79337   3.318  14.308  13.688
59147SOL    HW179338   3.252  14.244  13.715
59147SOL    HW279339   3.385  14.256  13.643
59148SOL     OW79340  14.081  12.893  11.457
59148SOL    HW179341  14.176  12.893  11.445
59148SOL    HW279342  14.068  12.863  11.546
59149SOL     OW79343  14.091  11.746   7.336
59149SOL    HW179344  14.077  11.765   7.429
59149SOL    HW279345  14.013  11.780   7.293
59150SOL     OW79346  13.072  10.098   9.404
59150SOL    HW179347  13.143  10.071   9.463
59150SOL    HW279348  13.079  10.193   9.400
59151SOL     OW79349  14.054  10.453  11.759
59151SOL    HW179350  14.051  10.548  11.750
59151SOL    HW279351  14.138  10.428  11.721
59152SOL     OW79352  11.185  13.805  11.484
59152SOL    HW179353  11.095  13.779  11.462
59152SOL    HW279354  11.226  13.725  11.517
59153SOL     OW79355   5.731  10.097  13.706
59153SOL    HW179356   5.727  10.189  13.678
59153SOL    HW279357   5.810  10.092  13.760
59154SOL     OW79358  14.043   2.246  14.490
59154SOL    HW179359  14.012   2.209  14.573
59154SOL    HW279360  14.048   2.340  14.507
59155SOL     OW79361   3.688   5.269   0.896
59155SOL    HW179362   3.621   5.205   0.921
59155SOL    HW279363   3.646   5.354   0.909
59156SOL     OW79364   1.024   4.618   5.569
59156SOL    HW179365   1.029   4.523   5.561
59156SOL    HW279366   1.046   4.651   5.481
59157SOL     OW79367   1.509   2.101   5.469
59157SOL    HW179368   1.481   2.011   5.486
59157SOL    HW279369   1.433   2.154   5.494
59158SOL     OW79370   2.368  14.141  14.625
59158SOL    HW179371   2.420  14.061  14.614
59158SOL    HW279372   2.308  14.122  14.696
59159SOL     OW79373   8.087  11.059   6.593
59159SOL    HW179374   8.080  11.097   6.680
59159SOL    HW279375   8.113  10.968   6.609
59160SOL     OW79376  11.365   7.045   2.014
59160SOL    HW179377  11.313   7.113   2.056
59160SOL    HW279378  11.455   7.077   2.019
59161SOL     OW79379   9.712   0.302   0.704
59161SOL    HW179380   9.765   0.233   0.664
59161SOL    HW279381   9.696   0.272   0.794
59162SOL     OW79382   7.333   8.804  14.521
59162SOL    HW179383   7.290   8.727  14.484
59162SOL    HW279384   7.296   8.814  14.608
59163SOL     OW79385   6.761   2.293   7.831
59163SOL    HW179386   6.694   2.361   7.825
59163SOL    HW279387   6.821   2.311   7.758
59164SOL     OW79388  12.262  13.289   0.188
59164SOL    HW179389  12.338  13.234   0.209
59164SOL    HW279390  12.289  13.339   0.111
59165SOL     OW79391   3.047   2.807   4.913
59165SOL    HW179392   3.099   2.818   4.992
59165SOL    HW279393   3.109   2.780   4.846
59166SOL     OW79394  11.265  14.642   8.788
59166SOL    HW179395  11.277  14.562   8.737
59166SOL    HW279396  11.353  14.670   8.810
59167SOL     OW79397  14.014   8.937   9.425
59167SOL    HW179398  14.069   9.011   9.398
59167SOL    HW279399  13.941   8.937   9.363
59168SOL     OW79400   4.753  13.283   5.524
59168SOL    HW179401   4.764  13.188   5.515
59168SOL    HW279402   4.661  13.298   5.501
59169SOL     OW79403   9.076   7.758   7.693
59169SOL    HW179404   9.122   7.787   7.772
59169SOL    HW279405   9.047   7.838   7.651
59170SOL     OW79406   7.832   2.239  11.321
59170SOL    HW179407   7.764   2.222  11.385
59170SOL    HW279408   7.911   2.256  11.373
59171SOL     OW79409   1.778   2.770  14.646
59171SOL    HW179410   1.721   2.760  14.569
59171SOL    HW279411   1.721   2.750  14.720
59172SOL     OW79412   1.869  10.883   6.094
59172SOL    HW179413   1.843  10.962   6.141
59172SOL    HW279414   1.791  10.828   6.093
59173SOL     OW79415   9.575   6.671   7.731
59173SOL    HW179416   9.658   6.623   7.731
59173SOL    HW279417   9.558   6.689   7.639
59174SOL     OW79418   9.409   8.837   8.812
59174SOL    HW179419   9.440   8.747   8.801
59174SOL    HW279420   9.490   8.889   8.819
59175SOL     OW79421  13.893   3.050   1.646
59175SOL    HW179422  13.955   3.092   1.706
59175SOL    HW279423  13.920   3.081   1.559
59176SOL     OW79424  11.840  14.200   8.142
59176SOL    HW179425  11.828  14.105   8.142
59176SOL    HW279426  11.753  14.236   8.157
59177SOL     OW79427   3.362   5.113   5.007
59177SOL    HW179428   3.326   5.028   5.032
59177SOL    HW279429   3.318   5.135   4.925
59178SOL     OW79430  13.063   3.585   6.213
59178SOL    HW179431  13.140   3.636   6.236
59178SOL    HW279432  13.046   3.608   6.121
59179SOL     OW79433  13.333  13.986   2.032
59179SOL    HW179434  13.407  14.032   1.994
59179SOL    HW279435  13.281  14.054   2.075
59180SOL     OW79436  11.601   0.934   8.534
59180SOL    HW179437  11.656   0.903   8.606
59180SOL    HW279438  11.643   1.015   8.505
59181SOL     OW79439  13.754   2.198   2.272
59181SOL    HW179440  13.734   2.108   2.297
59181SOL    HW279441  13.672   2.245   2.283
59182SOL     OW79442   6.451   1.631   0.858
59182SOL    HW179443   6.442   1.539   0.834
59182SOL    HW279444   6.378   1.675   0.815
59183SOL     OW79445   5.275   8.333   0.629
59183SOL    HW179446   5.322   8.253   0.607
59183SOL    HW279447   5.249   8.321   0.720
59184SOL     OW79448   8.056   8.155   1.867
59184SOL    HW179449   7.969   8.188   1.843
59184SOL    HW279450   8.071   8.082   1.807
59185SOL     OW79451  12.176   3.709   3.415
59185SOL    HW179452  12.137   3.622   3.419
59185SOL    HW279453  12.248   3.706   3.478
59186SOL     OW79454   1.274   7.261   8.297
59186SOL    HW179455   1.331   7.245   8.373
59186SOL    HW279456   1.312   7.208   8.227
59187SOL     OW79457   4.773  11.318   7.576
59187SOL    HW179458   4.701  11.377   7.555
59187SOL    HW279459   4.740  11.266   7.650
59188SOL     OW79460   1.407   5.605   0.571
59188SOL    HW179461   1.463   5.667   0.525
59188SOL    HW279462   1.329   5.597   0.517
59189SOL     OW79463   3.322   1.610   6.737
59189SOL    HW179464   3.257   1.549   6.773
59189SOL    HW279465   3.283   1.697   6.749
59190SOL     OW79466   4.548   1.389  12.007
59190SOL    HW179467   4.520   1.341  12.085
59190SOL    HW279468   4.533   1.328  11.935
59191SOL     OW79469   4.025   6.934  11.808
59191SOL    HW179470   4.074   6.865  11.762
59191SOL    HW279471   4.088   7.004  11.821
59192SOL     OW79472   9.832   7.236  12.688
59192SOL    HW179473   9.927   7.228  12.698
59192SOL    HW279474   9.810   7.320  12.727
59193SOL     OW79475   6.820   5.788   1.236
59193SOL    HW179476   6.754   5.718   1.236
59193SOL    HW279477   6.896   5.749   1.279
59194SOL     OW79478   7.436   7.866   0.810
59194SOL    HW179479   7.407   7.946   0.766
59194SOL    HW279480   7.464   7.894   0.897
59195SOL     OW79481   2.025   6.091  13.340
59195SOL    HW179482   2.087   6.164  13.345
59195SOL    HW279483   1.964   6.114  13.270
59196SOL     OW79484   1.221   5.442   8.763
59196SOL    HW179485   1.228   5.476   8.674
59196SOL    HW279486   1.243   5.349   8.755
59197SOL     OW79487  10.412  11.461   8.615
59197SOL    HW179488  10.358  11.388   8.585
59197SOL    HW279489  10.496  11.421   8.637
59198SOL     OW79490   1.601   2.764   4.454
59198SOL    HW179491   1.677   2.761   4.513
59198SOL    HW279492   1.622   2.836   4.394
59199SOL     OW79493   9.414   2.311   8.827
59199SOL    HW179494   9.326   2.344   8.808
59199SOL    HW279495   9.454   2.299   8.741
59200SOL     OW79496   1.615  14.720   7.516
59200SOL    HW179497   1.621  14.815   7.511
59200SOL    HW279498   1.636  14.699   7.607
59201SOL     OW79499  14.298  13.342  10.233
59201SOL    HW179500  14.362  13.272  10.237
59201SOL    HW279501  14.251  13.328  10.151
59202SOL     OW79502   6.261  11.991   1.182
59202SOL    HW179503   6.168  11.972   1.173
59202SOL    HW279504   6.296  11.915   1.230
59203SOL     OW79505   0.657   8.328  12.272
59203SOL    HW179506   0.652   8.291  12.361
59203SOL    HW279507   0.711   8.407  12.283
59204SOL     OW79508  11.281   5.044  12.357
59204SOL    HW179509  11.256   5.050  12.265
59204SOL    HW279510  11.295   5.134  12.384
59205SOL     OW79511   4.309   8.215   2.770
59205SOL    HW179512   4.392   8.237   2.728
59205SOL    HW279513   4.298   8.121   2.753
59206SOL     OW79514  10.154  14.056   0.174
59206SOL    HW179515  10.097  14.133   0.177
59206SOL    HW279516  10.233  14.086   0.129
59207SOL     OW79517  11.953   2.854   3.075
59207SOL    HW179518  11.906   2.879   3.154
59207SOL    HW279519  12.044   2.878   3.092
59208SOL     OW79520   0.331   6.683   8.233
59208SOL    HW179521   0.302   6.717   8.148
59208SOL    HW279522   0.271   6.610   8.250
59209SOL     OW79523   4.195   7.595  11.151
59209SOL    HW179524   4.215   7.688  11.143
59209SOL    HW279525   4.280   7.551  11.140
59210SOL     OW79526   9.628   3.235   5.078
59210SOL    HW179527   9.577   3.158   5.104
59210SOL    HW279528   9.716   3.200   5.060
59211SOL     OW79529   2.728   6.594  11.075
59211SOL    HW179530   2.669   6.580  11.001
59211SOL    HW279531   2.810   6.551  11.049
59212SOL     OW79532   0.867   8.091   8.883
59212SOL    HW179533   0.825   8.152   8.943
59212SOL    HW279534   0.797   8.064   8.824
59213SOL     OW79535   3.725  10.284   0.657
59213SOL    HW179536   3.750  10.265   0.566
59213SOL    HW279537   3.804  10.323   0.695
59214SOL     OW79538  14.757   9.127  12.409
59214SOL    HW179539  14.679   9.176  12.383
59214SOL    HW279540  14.741   9.102  12.500
59215SOL     OW79541   3.409   8.054   2.307
59215SOL    HW179542   3.385   7.994   2.378
59215SOL    HW279543   3.369   8.137   2.332
59216SOL     OW79544   1.699   9.233   6.939
59216SOL    HW179545   1.673   9.216   6.848
59216SOL    HW279546   1.619   9.262   6.982
59217SOL     OW79547   5.086   9.221   3.766
59217SOL    HW179548   5.059   9.312   3.774
59217SOL    HW279549   5.093   9.190   3.856
59218SOL     OW79550  13.734   6.842   9.971
59218SOL    HW179551  13.780   6.872   9.893
59218SOL    HW279552  13.697   6.922  10.008
59219SOL     OW79553   3.618   7.115   6.329
59219SOL    HW179554   3.685   7.053   6.303
59219SOL    HW279555   3.626   7.188   6.267
59220SOL     OW79556   6.969   6.549   0.170
59220SOL    HW179557   7.025   6.612   0.215
59220SOL    HW279558   6.934   6.596   0.095
59221SOL     OW79559  14.251   3.637   3.936
59221SOL    HW179560  14.174   3.613   3.989
59221SOL    HW279561  14.262   3.563   3.876
59222SOL     OW79562  10.306   1.227  12.639
59222SOL    HW179563  10.227   1.279  12.628
59222SOL    HW279564  10.355   1.239  12.558
59223SOL     OW79565   4.775   4.706   1.637
59223SOL    HW179566   4.697   4.690   1.583
59223SOL    HW279567   4.757   4.661   1.719
59224SOL     OW79568   5.300   6.621  14.447
59224SOL    HW179569   5.346   6.537  14.442
59224SOL    HW279570   5.348   6.678  14.387
59225SOL     OW79571  11.072   9.756   9.944
59225SOL    HW179572  11.158   9.767   9.903
59225SOL    HW279573  11.065   9.663   9.962
59226SOL     OW79574   2.614   5.833   6.867
59226SOL    HW179575   2.605   5.925   6.892
59226SOL    HW279576   2.625   5.787   6.950
59227SOL     OW79577  12.376  12.666  14.470
59227SOL    HW179578  12.397  12.656  14.563
59227SOL    HW279579  12.407  12.585  14.429
59228SOL     OW79580  14.107   7.561   5.461
59228SOL    HW179581  14.172   7.614   5.506
59228SOL    HW279582  14.158   7.508   5.399
59229SOL     OW79583  12.742  12.283  13.070
59229SOL    HW179584  12.771  12.354  13.012
59229SOL    HW279585  12.705  12.327  13.146
59230SOL     OW79586  10.199   7.154   3.193
59230SOL    HW179587  10.264   7.142   3.123
59230SOL    HW279588  10.115   7.139   3.150
59231SOL     OW79589   8.641  14.389   4.343
59231SOL    HW179590   8.720  14.424   4.303
59231SOL    HW279591   8.669  14.309   4.387
59232SOL     OW79592   7.562   0.279   9.175
59232SOL    HW179593   7.487   0.290   9.116
59232SOL    HW279594   7.628   0.236   9.121
59233SOL     OW79595  14.275  13.550   6.874
59233SOL    HW179596  14.255  13.463   6.840
59233SOL    HW279597  14.321  13.593   6.802
59234SOL     OW79598   7.061   2.319   0.523
59234SOL    HW179599   7.043   2.238   0.570
59234SOL    HW279600   7.005   2.384   0.565
59235SOL     OW79601   2.366   7.622  10.118
59235SOL    HW179602   2.342   7.625  10.210
59235SOL    HW279603   2.454   7.584  10.117
59236SOL     OW79604  11.020   5.275  11.442
59236SOL    HW179605  11.114   5.285  11.459
59236SOL    HW279606  10.984   5.246  11.526
59237SOL     OW79607   5.279   9.808   1.156
59237SOL    HW179608   5.244   9.719   1.156
59237SOL    HW279609   5.222   9.857   1.215
59238SOL     OW79610   9.882  11.159   0.356
59238SOL    HW179611   9.860  11.201   0.273
59238SOL    HW279612   9.860  11.224   0.423
59239SOL     OW79613   4.588   4.587   5.378
59239SOL    HW179614   4.615   4.595   5.286
59239SOL    HW279615   4.598   4.675   5.413
59240SOL     OW79616   9.171   6.989  11.656
59240SOL    HW179617   9.090   6.940  11.645
59240SOL    HW279618   9.173   7.011  11.749
59241SOL     OW79619  11.659   9.100   3.143
59241SOL    HW179620  11.676   9.055   3.061
59241SOL    HW279621  11.623   9.185   3.118
59242SOL     OW79622  11.605   0.367   4.541
59242SOL    HW179623  11.578   0.414   4.620
59242SOL    HW279624  11.525   0.329   4.507
59243SOL     OW79625   7.024   6.065   8.028
59243SOL    HW179626   7.095   6.003   8.008
59243SOL    HW279627   7.010   6.113   7.947
59244SOL     OW79628  14.342  12.616   5.849
59244SOL    HW179629  14.256  12.572   5.846
59244SOL    HW279630  14.395  12.568   5.785
59245SOL     OW79631  12.376   9.639   8.151
59245SOL    HW179632  12.285   9.638   8.180
59245SOL    HW279633  12.407   9.550   8.166
59246SOL     OW79634   7.122   8.067   3.961
59246SOL    HW179635   7.095   8.047   4.051
59246SOL    HW279636   7.159   8.155   3.966
59247SOL     OW79637   3.105   7.988  10.339
59247SOL    HW179638   3.137   8.047  10.270
59247SOL    HW279639   3.144   8.023  10.419
59248SOL     OW79640  10.212   1.294  13.577
59248SOL    HW179641  10.245   1.383  13.562
59248SOL    HW279642  10.167   1.299  13.661
59249SOL     OW79643  14.506   5.371   5.461
59249SOL    HW179644  14.477   5.462   5.463
59249SOL    HW279645  14.556   5.363   5.380
59250SOL     OW79646   0.070   6.126  12.750
59250SOL    HW179647   0.033   6.078  12.824
59250SOL    HW279648   0.159   6.147  12.776
59251SOL     OW79649   5.020   8.957  11.526
59251SOL    HW179650   5.057   8.964  11.438
59251SOL    HW279651   4.946   8.897  11.517
59252SOL     OW79652   3.038   2.417   5.349
59252SOL    HW179653   3.106   2.481   5.373
59252SOL    HW279654   3.022   2.369   5.430
59253SOL     OW79655   4.766  11.937  10.589
59253SOL    HW179656   4.698  11.871  10.581
59253SOL    HW279657   4.847  11.891  10.566
59254SOL     OW79658   5.774   7.111   8.543
59254SOL    HW179659   5.775   7.198   8.584
59254SOL    HW279660   5.793   7.128   8.451
59255SOL     OW79661   7.491   2.534  14.192
59255SOL    HW179662   7.419   2.583  14.154
59255SOL    HW279663   7.461   2.443  14.190
59256SOL     OW79664   4.926   3.165   3.680
59256SOL    HW179665   4.970   3.250   3.678
59256SOL    HW279666   4.835   3.185   3.662
59257SOL     OW79667   1.232   1.658   8.495
59257SOL    HW179668   1.219   1.743   8.538
59257SOL    HW279669   1.149   1.642   8.449
59258SOL     OW79670   0.603   6.946  10.557
59258SOL    HW179671   0.549   6.952  10.478
59258SOL    HW279672   0.540   6.945  10.629
59259SOL     OW79673   2.332   2.809   6.797
59259SOL    HW179674   2.333   2.872   6.725
59259SOL    HW279675   2.288   2.732   6.761
59260SOL     OW79676   7.331   4.617   1.596
59260SOL    HW179677   7.254   4.603   1.650
59260SOL    HW279678   7.343   4.535   1.547
59261SOL     OW79679   4.808   2.183  10.131
59261SOL    HW179680   4.741   2.121  10.158
59261SOL    HW279681   4.889   2.132  10.130
59262SOL     OW79682  13.084   2.680   8.416
59262SOL    HW179683  13.059   2.623   8.343
59262SOL    HW279684  13.033   2.760   8.403
59263SOL     OW79685   8.020   4.145  13.181
59263SOL    HW179686   7.948   4.182  13.232
59263SOL    HW279687   7.978   4.106  13.104
59264SOL     OW79688  14.320  11.549   4.743
59264SOL    HW179689  14.228  11.527   4.729
59264SOL    HW279690  14.322  11.592   4.829
59265SOL     OW79691  12.996   9.545   1.217
59265SOL    HW179692  12.975   9.476   1.153
59265SOL    HW279693  12.944   9.620   1.189
59266SOL     OW79694  11.030   3.083   6.447
59266SOL    HW179695  11.115   3.074   6.405
59266SOL    HW279696  10.967   3.080   6.375
59267SOL     OW79697   8.613   8.647   9.187
59267SOL    HW179698   8.649   8.634   9.275
59267SOL    HW279699   8.663   8.720   9.150
59268SOL     OW79700  11.179   7.845   6.712
59268SOL    HW179701  11.168   7.800   6.796
59268SOL    HW279702  11.104   7.903   6.705
59269SOL     OW79703   4.231   9.626   9.661
59269SOL    HW179704   4.281   9.693   9.709
59269SOL    HW279705   4.244   9.546   9.712
59270SOL     OW79706   9.490  14.399   9.924
59270SOL    HW179707   9.474  14.319   9.873
59270SOL    HW279708   9.574  14.431   9.891
59271SOL     OW79709  14.228  14.320   3.873
59271SOL    HW179710  14.265  14.408   3.882
59271SOL    HW279711  14.145  14.324   3.921
59272SOL     OW79712   9.473   1.725   4.470
59272SOL    HW179713   9.501   1.749   4.381
59272SOL    HW279714   9.473   1.808   4.517
59273SOL     OW79715   2.054   1.515   2.913
59273SOL    HW179716   2.066   1.580   2.983
59273SOL    HW279717   1.982   1.460   2.943
59274SOL     OW79718  14.730  11.589  12.091
59274SOL    HW179719  14.767  11.665  12.045
59274SOL    HW279720  14.696  11.533  12.021
59275SOL     OW79721  12.572  10.619   1.620
59275SOL    HW179722  12.600  10.704   1.584
59275SOL    HW279723  12.477  10.625   1.625
59276SOL     OW79724  14.584   7.013   1.807
59276SOL    HW179725  14.562   7.092   1.758
59276SOL    HW279726  14.679   7.014   1.815
59277SOL     OW79727   0.126   4.404   3.541
59277SOL    HW179728   0.113   4.459   3.464
59277SOL    HW279729   0.220   4.401   3.553
59278SOL     OW79730   2.276   7.596  10.365
59278SOL    HW179731   2.345   7.570  10.426
59278SOL    HW279732   2.208   7.530  10.375
59279SOL     OW79733   8.982   6.183  11.678
59279SOL    HW179734   8.990   6.185  11.583
59279SOL    HW279735   9.064   6.143  11.709
59280SOL     OW79736   9.671   3.061   1.918
59280SOL    HW179737   9.589   3.012   1.931
59280SOL    HW279738   9.644   3.146   1.886
59281SOL     OW79739   6.260  14.800  13.665
59281SOL    HW179740   6.256  14.713  13.705
59281SOL    HW279741   6.248  14.861  13.738
59282SOL     OW79742  13.225   9.122   4.403
59282SOL    HW179743  13.277   9.153   4.477
59282SOL    HW279744  13.163   9.060   4.442
59283SOL     OW79745  14.413  13.433   6.460
59283SOL    HW179746  14.480  13.501   6.467
59283SOL    HW279747  14.434  13.388   6.378
59284SOL     OW79748   2.964   0.824   0.426
59284SOL    HW179749   2.988   0.744   0.474
59284SOL    HW279750   2.872   0.811   0.403
59285SOL     OW79751  11.581   1.706   0.103
59285SOL    HW179752  11.635   1.771   0.056
59285SOL    HW279753  11.566   1.637   0.039
59286SOL     OW79754   6.692   7.814   4.750
59286SOL    HW179755   6.698   7.895   4.801
59286SOL    HW279756   6.602   7.783   4.765
59287SOL     OW79757   6.304  14.268   3.125
59287SOL    HW179758   6.399  14.273   3.114
59287SOL    HW279759   6.291  14.200   3.192
59288SOL     OW79760   3.318  10.364   7.340
59288SOL    HW179761   3.299  10.455   7.314
59288SOL    HW279762   3.336  10.370   7.434
59289SOL     OW79763   7.681   2.977  14.768
59289SOL    HW179764   7.588   2.957  14.776
59289SOL    HW279765   7.724   2.892  14.781
59290SOL     OW79766   4.048   7.006   2.549
59290SOL    HW179767   3.984   6.964   2.492
59290SOL    HW279768   4.048   6.953   2.629
59291SOL     OW79769   2.113   1.266   4.831
59291SOL    HW179770   2.023   1.234   4.830
59291SOL    HW279771   2.144   1.253   4.741
59292SOL     OW79772  12.368   4.624   3.502
59292SOL    HW179773  12.425   4.647   3.576
59292SOL    HW279774  12.284   4.664   3.523
59293SOL     OW79775   0.487   1.286   3.515
59293SOL    HW179776   0.473   1.365   3.463
59293SOL    HW279777   0.538   1.229   3.458
59294SOL     OW79778   5.102   6.425   5.329
59294SOL    HW179779   5.103   6.396   5.238
59294SOL    HW279780   5.035   6.493   5.332
59295SOL     OW79781  10.784   9.703  11.900
59295SOL    HW179782  10.745   9.751  11.973
59295SOL    HW279783  10.786   9.612  11.930
59296SOL     OW79784   9.823   8.766   4.331
59296SOL    HW179785   9.736   8.775   4.292
59296SOL    HW279786   9.859   8.687   4.290
59297SOL     OW79787   7.981   7.618  11.401
59297SOL    HW179788   8.071   7.638  11.426
59297SOL    HW279789   7.962   7.682  11.332
59298SOL     OW79790   3.684   2.291  11.813
59298SOL    HW179791   3.597   2.252  11.827
59298SOL    HW279792   3.667   2.368  11.758
59299SOL     OW79793  11.730   5.572   9.190
59299SOL    HW179794  11.789   5.500   9.212
59299SOL    HW279795  11.739   5.633   9.263
59300SOL     OW79796   7.012   2.356   8.125
59300SOL    HW179797   6.945   2.288   8.127
59300SOL    HW279798   7.095   2.308   8.134
59301SOL     OW79799   7.002   3.237   1.295
59301SOL    HW179800   6.961   3.188   1.223
59301SOL    HW279801   7.096   3.229   1.278
59302SOL     OW79802   0.300   2.162  10.752
59302SOL    HW179803   0.297   2.067  10.766
59302SOL    HW279804   0.392   2.185  10.767
59303SOL     OW79805  14.745   4.782   0.980
59303SOL    HW179806  14.690   4.859   0.995
59303SOL    HW279807  14.700   4.711   1.026
59304SOL     OW79808   4.215   1.766   7.900
59304SOL    HW179809   4.234   1.701   7.968
59304SOL    HW279810   4.119   1.770   7.897
59305SOL     OW79811   2.767  14.561   5.264
59305SOL    HW179812   2.758  14.532   5.173
59305SOL    HW279813   2.681  14.597   5.285
59306SOL     OW79814   7.697   7.403   0.028
59306SOL    HW179815   7.687   7.498   0.019
59306SOL    HW279816   7.622   7.376   0.082
59307SOL     OW79817   2.975  11.328   7.498
59307SOL    HW179818   2.999  11.346   7.589
59307SOL    HW279819   3.016  11.243   7.479
59308SOL     OW79820  14.538   4.053  12.848
59308SOL    HW179821  14.543   3.974  12.794
59308SOL    HW279822  14.485   4.027  12.924
59309SOL     OW79823   6.423   7.256   4.196
59309SOL    HW179824   6.484   7.293   4.133
59309SOL    HW279825   6.470   7.259   4.279
59310SOL     OW79826  13.174   7.520  12.664
59310SOL    HW179827  13.173   7.424  12.660
59310SOL    HW279828  13.250   7.541  12.718
59311SOL     OW79829   9.558  12.314  10.135
59311SOL    HW179830   9.566  12.331  10.041
59311SOL    HW279831   9.635  12.263  10.157
59312SOL     OW79832   3.437   3.502   0.186
59312SOL    HW179833   3.375   3.473   0.120
59312SOL    HW279834   3.385   3.514   0.265
59313SOL     OW79835  11.638   3.290   5.316
59313SOL    HW179836  11.642   3.292   5.221
59313SOL    HW279837  11.570   3.226   5.336
59314SOL     OW79838   6.322   5.947   3.813
59314SOL    HW179839   6.340   5.960   3.906
59314SOL    HW279840   6.379   6.009   3.768
59315SOL     OW79841  10.338   4.125   7.583
59315SOL    HW179842  10.376   4.204   7.623
59315SOL    HW279843  10.402   4.099   7.517
59316SOL     OW79844   0.838   8.920   9.476
59316SOL    HW179845   0.901   8.874   9.531
59316SOL    HW279846   0.832   9.007   9.513
59317SOL     OW79847   9.752   0.891   3.964
59317SOL    HW179848   9.685   0.959   3.970
59317SOL    HW279849   9.728   0.841   3.886
59318SOL     OW79850  13.382   5.894  14.782
59318SOL    HW179851  13.436   5.940  14.718
59318SOL    HW279852  13.394   5.942  14.864
59319SOL     OW79853  12.965   1.812   8.624
59319SOL    HW179854  12.955   1.727   8.666
59319SOL    HW279855  12.875   1.838   8.602
59320SOL     OW79856   4.043   0.423   7.991
59320SOL    HW179857   4.058   0.442   8.084
59320SOL    HW279858   4.126   0.385   7.961
59321SOL     OW79859  11.580  11.042   5.296
59321SOL    HW179860  11.548  10.984   5.227
59321SOL    HW279861  11.625  10.984   5.358
59322SOL     OW79862  11.940  10.799   7.531
59322SOL    HW179863  11.893  10.751   7.599
59322SOL    HW279864  12.003  10.852   7.579
59323SOL     OW79865  11.552   4.526   8.483
59323SOL    HW179866  11.524   4.545   8.573
59323SOL    HW279867  11.573   4.433   8.483
59324SOL     OW79868   6.471  11.541  10.793
59324SOL    HW179869   6.525  11.613  10.763
59324SOL    HW279870   6.401  11.583  10.843
59325SOL     OW79871  12.117  13.630  10.470
59325SOL    HW179872  12.035  13.675  10.492
59325SOL    HW279873  12.179  13.661  10.536
59326SOL     OW79874  14.735   0.185   0.083
59326SOL    HW179875  14.654   0.142   0.057
59326SOL    HW279876  14.745   0.163   0.176
59327SOL     OW79877   5.608  10.603   7.881
59327SOL    HW179878   5.536  10.645   7.834
59327SOL    HW279879   5.686  10.650   7.853
59328SOL     OW79880   8.946   9.909   4.343
59328SOL    HW179881   8.882   9.974   4.374
59328SOL    HW279882   8.894   9.846   4.292
59329SOL     OW79883   1.171  13.886   2.662
59329SOL    HW179884   1.262  13.855   2.668
59329SOL    HW279885   1.153  13.888   2.568
59330SOL     OW79886  10.622   4.159   6.975
59330SOL    HW179887  10.605   4.204   6.893
59330SOL    HW279888  10.563   4.084   6.974
59331SOL     OW79889  11.975   6.780   7.325
59331SOL    HW179890  12.034   6.759   7.397
59331SOL    HW279891  11.889   6.791   7.366
59332SOL     OW79892   7.635  11.379   2.562
59332SOL    HW179893   7.592  11.300   2.530
59332SOL    HW279894   7.727  11.354   2.572
59333SOL     OW79895   3.347   6.706  14.844
59333SOL    HW179896   3.315   6.617  14.859
59333SOL    HW279897   3.312   6.756   0.035
59334SOL     OW79898   9.502   9.311  13.086
59334SOL    HW179899   9.555   9.306  13.007
59334SOL    HW279900   9.505   9.222  13.123
59335SOL     OW79901   5.547  13.652   1.803
59335SOL    HW179902   5.493  13.710   1.749
59335SOL    HW279903   5.599  13.602   1.740
59336SOL     OW79904  13.241  11.165   4.443
59336SOL    HW179905  13.259  11.081   4.485
59336SOL    HW279906  13.292  11.228   4.493
59337SOL     OW79907  13.364   8.154  12.661
59337SOL    HW179908  13.419   8.076  12.671
59337SOL    HW279909  13.329   8.147  12.572
59338SOL     OW79910  11.220  14.289  13.160
59338SOL    HW179911  11.131  14.311  13.186
59338SOL    HW279912  11.265  14.271  13.243
59339SOL     OW79913   9.618   5.591   4.594
59339SOL    HW179914   9.583   5.503   4.582
59339SOL    HW279915   9.556   5.648   4.547
59340SOL     OW79916   0.694  12.501   5.273
59340SOL    HW179917   0.635  12.576   5.271
59340SOL    HW279918   0.755  12.520   5.344
59341SOL     OW79919  13.035  11.822   6.949
59341SOL    HW179920  13.121  11.781   6.949
59341SOL    HW279921  13.053  11.916   6.943
59342SOL     OW79922   6.783   6.545  10.798
59342SOL    HW179923   6.785   6.567  10.705
59342SOL    HW279924   6.707   6.592  10.832
59343SOL     OW79925   4.254   1.744   1.302
59343SOL    HW179926   4.248   1.652   1.275
59343SOL    HW279927   4.348   1.760   1.312
59344SOL     OW79928   3.283  12.651   4.199
59344SOL    HW179929   3.256  12.567   4.238
59344SOL    HW279930   3.378  12.645   4.193
59345SOL     OW79931   3.270   9.624  11.720
59345SOL    HW179932   3.179   9.656  11.717
59345SOL    HW279933   3.322   9.700  11.694
59346SOL     OW79934   9.084   1.384   0.257
59346SOL    HW179935   9.150   1.385   0.187
59346SOL    HW279936   9.059   1.475   0.268
59347SOL     OW79937   2.513   1.524   0.155
59347SOL    HW179938   2.457   1.553   0.083
59347SOL    HW279939   2.502   1.429   0.156
59348SOL     OW79940   7.857  14.599   4.842
59348SOL    HW179941   7.854  14.695   4.847
59348SOL    HW279942   7.774  14.575   4.801
59349SOL     OW79943   5.004  10.750   3.452
59349SOL    HW179944   4.922  10.705   3.471
59349SOL    HW279945   5.001  10.830   3.504
59350SOL     OW79946   9.881   0.911   0.145
59350SOL    HW179947   9.975   0.899   0.134
59350SOL    HW279948   9.847   0.824   0.165
59351SOL     OW79949   3.436   1.681   9.920
59351SOL    HW179950   3.386   1.634   9.986
59351SOL    HW279951   3.524   1.645   9.926
59352SOL     OW79952  12.757   5.983  11.644
59352SOL    HW179953  12.743   6.072  11.609
59352SOL    HW279954  12.726   5.925  11.574
59353SOL     OW79955  12.220   6.741   1.089
59353SOL    HW179956  12.171   6.699   1.018
59353SOL    HW279957  12.213   6.834   1.071
59354SOL     OW79958   2.153  11.143   9.007
59354SOL    HW179959   2.107  11.225   8.991
59354SOL    HW279960   2.135  11.123   9.099
59355SOL     OW79961  10.554  13.418   8.317
59355SOL    HW179962  10.582  13.384   8.232
59355SOL    HW279963  10.576  13.511   8.314
59356SOL     OW79964   2.575   2.645   3.958
59356SOL    HW179965   2.576   2.562   3.910
59356SOL    HW279966   2.570   2.712   3.891
59357SOL     OW79967   0.367   7.079  12.448
59357SOL    HW179968   0.418   7.110  12.523
59357SOL    HW279969   0.428   7.023  12.400
59358SOL     OW79970   8.064   6.981   7.327
59358SOL    HW179971   8.039   7.074   7.330
59358SOL    HW279972   8.159   6.981   7.340
59359SOL     OW79973  13.699   3.664   5.209
59359SOL    HW179974  13.712   3.716   5.130
59359SOL    HW279975  13.693   3.728   5.280
59360SOL     OW79976  14.836  11.419   2.811
59360SOL    HW179977   0.015  11.492   2.808
59360SOL    HW279978  14.791  11.428   2.895
59361SOL     OW79979  10.167   5.569   5.284
59361SOL    HW179980  10.256   5.594   5.309
59361SOL    HW279981  10.139   5.639   5.225
59362SOL     OW79982   0.960   5.300   1.760
59362SOL    HW179983   0.992   5.300   1.850
59362SOL    HW279984   0.873   5.341   1.766
59363SOL     OW79985   8.200   7.577   0.696
59363SOL    HW179986   8.174   7.668   0.706
59363SOL    HW279987   8.126   7.535   0.653
59364SOL     OW79988   5.664   5.085  11.766
59364SOL    HW179989   5.706   5.166  11.736
59364SOL    HW279990   5.692   5.019  11.703
59365SOL     OW79991   7.569  13.532   7.652
59365SOL    HW179992   7.613  13.460   7.607
59365SOL    HW279993   7.575  13.510   7.745
59366SOL     OW79994  12.865   1.377  10.887
59366SOL    HW179995  12.920   1.339  10.819
59366SOL    HW279996  12.785   1.323  10.887
59367SOL     OW79997  12.352   1.465   9.664
59367SOL    HW179998  12.423   1.481   9.727
59367SOL    HW279999  12.357   1.538   9.603
59368SOL     OW80000  12.765   8.920  13.685
59368SOL    HW180001  12.680   8.949  13.720
59368SOL    HW280002  12.826   8.928  13.758
59369SOL     OW80003  14.419   0.697   3.619
59369SOL    HW180004  14.446   0.724   3.707
59369SOL    HW280005  14.460   0.761   3.560
59370SOL     OW80006  12.194   7.107  11.180
59370SOL    HW180007  12.263   7.142  11.237
59370SOL    HW280008  12.241   7.050  11.119
59371SOL     OW80009   7.559  11.471   0.330
59371SOL    HW180010   7.478  11.507   0.295
59371SOL    HW280011   7.611  11.449   0.252
59372SOL     OW80012   9.380   4.792  10.369
59372SOL    HW180013   9.444   4.843  10.320
59372SOL    HW280014   9.369   4.712  10.318
59373SOL     OW80015  13.429   8.029   1.908
59373SOL    HW180016  13.466   8.049   1.822
59373SOL    HW280017  13.399   8.113   1.941
59374SOL     OW80018  14.850  10.924   7.825
59374SOL    HW180019  14.832  10.862   7.755
59374SOL    HW280020   0.034  10.983   7.789
59375SOL     OW80021  11.751  11.645   9.970
59375SOL    HW180022  11.678  11.603  10.016
59375SOL    HW280023  11.770  11.723  10.021
59376SOL     OW80024   6.560   0.294   8.591
59376SOL    HW180025   6.512   0.348   8.654
59376SOL    HW280026   6.626   0.352   8.555
59377SOL     OW80027   0.395   8.483  14.583
59377SOL    HW180028   0.452   8.558  14.563
59377SOL    HW280029   0.455   8.411  14.600
59378SOL     OW80030  11.134  12.545  13.681
59378SOL    HW180031  11.107  12.457  13.655
59378SOL    HW280032  11.227  12.550  13.657
59379SOL     OW80033   2.431  12.315   8.393
59379SOL    HW180034   2.408  12.224   8.375
59379SOL    HW280035   2.445  12.354   8.306
59380SOL     OW80036  14.043  11.523  13.758
59380SOL    HW180037  14.045  11.537  13.853
59380SOL    HW280038  13.979  11.453  13.746
59381SOL     OW80039  14.555   3.345   7.945
59381SOL    HW180040  14.523   3.392   8.022
59381SOL    HW280041  14.629   3.397   7.914
59382SOL     OW80042   0.971   3.352  13.522
59382SOL    HW180043   0.881   3.329  13.502
59382SOL    HW280044   0.986   3.317  13.610
59383SOL     OW80045   1.456  13.522   4.459
59383SOL    HW180046   1.543  13.521   4.419
59383SOL    HW280047   1.419  13.436   4.439
59384SOL     OW80048   9.381   5.480  13.631
59384SOL    HW180049   9.406   5.570  13.650
59384SOL    HW280050   9.320   5.457  13.701
59385SOL     OW80051   1.313   2.726   4.451
59385SOL    HW180052   1.281   2.644   4.414
59385SOL    HW280053   1.408   2.724   4.438
59386SOL     OW80054   6.120   0.288  13.408
59386SOL    HW180055   6.064   0.290  13.330
59386SOL    HW280056   6.154   0.199  13.410
59387SOL     OW80057  10.534   0.872   3.183
59387SOL    HW180058  10.463   0.929   3.154
59387SOL    HW280059  10.495   0.785   3.185
59388SOL     OW80060   5.529   4.553   6.205
59388SOL    HW180061   5.461   4.617   6.182
59388SOL    HW280062   5.519   4.540   6.299
59389SOL     OW80063   0.270  13.349   1.114
59389SOL    HW180064   0.360  13.339   1.083
59389SOL    HW280065   0.276  13.337   1.209
59390SOL     OW80066   5.406  10.024   3.167
59390SOL    HW180067   5.439  10.024   3.256
59390SOL    HW280068   5.381   9.933   3.151
59391SOL     OW80069   1.542   4.304   9.318
59391SOL    HW180070   1.458   4.343   9.296
59391SOL    HW280071   1.520   4.228   9.372
59392SOL     OW80072   3.399   2.519   6.295
59392SOL    HW180073   3.441   2.459   6.357
59392SOL    HW280074   3.460   2.592   6.287
59393SOL     OW80075   3.395   2.420   4.349
59393SOL    HW180076   3.485   2.389   4.359
59393SOL    HW280077   3.345   2.340   4.332
59394SOL     OW80078  12.591   4.361  13.663
59394SOL    HW180079  12.522   4.354  13.729
59394SOL    HW280080  12.569   4.294  13.598
59395SOL     OW80081   6.410   9.723   7.164
59395SOL    HW180082   6.468   9.773   7.220
59395SOL    HW280083   6.322   9.752   7.188
59396SOL     OW80084  13.088  10.518   8.630
59396SOL    HW180085  13.166  10.573   8.643
59396SOL    HW280086  13.032  10.538   8.706
59397SOL     OW80087   7.692   2.846   4.906
59397SOL    HW180088   7.752   2.920   4.921
59397SOL    HW280089   7.716   2.812   4.820
59398SOL     OW80090  13.378   5.367   3.059
59398SOL    HW180091  13.296   5.321   3.078
59398SOL    HW280092  13.359   5.459   3.074
59399SOL     OW80093  13.790   9.290   8.885
59399SOL    HW180094  13.874   9.300   8.840
59399SOL    HW280095  13.735   9.358   8.847
59400SOL     OW80096  11.195   2.078   4.053
59400SOL    HW180097  11.226   1.996   4.091
59400SOL    HW280098  11.149   2.052   3.974
59401SOL     OW80099   7.708  10.388  14.344
59401SOL    HW180100   7.734  10.480  14.352
59401SOL    HW280101   7.616  10.392  14.315
59402SOL     OW80102   9.825   0.151  11.701
59402SOL    HW180103   9.824   0.233  11.652
59402SOL    HW280104   9.877   0.170  11.779
59403SOL     OW80105   7.764  11.266  14.231
59403SOL    HW180106   7.746  11.360  14.231
59403SOL    HW280107   7.738  11.237  14.143
59404SOL     OW80108  12.580   2.380   2.703
59404SOL    HW180109  12.631   2.460   2.718
59404SOL    HW280110  12.543   2.391   2.615
59405SOL     OW80111   7.866   1.195  12.168
59405SOL    HW180112   7.823   1.243  12.239
59405SOL    HW280113   7.898   1.115  12.210
59406SOL     OW80114   2.892   3.073   6.373
59406SOL    HW180115   2.896   3.057   6.467
59406SOL    HW280116   2.961   3.137   6.356
59407SOL     OW80117   0.844   9.107  10.751
59407SOL    HW180118   0.939   9.106  10.755
59407SOL    HW280119   0.816   9.036  10.809
59408SOL     OW80120  14.124  11.017  11.389
59408SOL    HW180121  14.206  10.968  11.397
59408SOL    HW280122  14.149  11.109  11.403
59409SOL     OW80123   4.438  14.309   1.537
59409SOL    HW180124   4.374  14.379   1.547
59409SOL    HW280125   4.518  14.343   1.578
59410SOL     OW80126  10.072  10.648  11.515
59410SOL    HW180127  10.133  10.580  11.487
59410SOL    HW280128   9.989  10.624  11.474
59411SOL     OW80129   2.682  13.167   0.580
59411SOL    HW180130   2.760  13.148   0.526
59411SOL    HW280131   2.693  13.258   0.606
59412SOL     OW80132   6.515   4.909   3.387
59412SOL    HW180133   6.583   4.905   3.320
59412SOL    HW280134   6.486   5.001   3.385
59413SOL     OW80135   7.725   0.545   7.220
59413SOL    HW180136   7.786   0.577   7.286
59413SOL    HW280137   7.648   0.517   7.270
59414SOL     OW80138   9.426  11.590   3.652
59414SOL    HW180139   9.413  11.643   3.573
59414SOL    HW280140   9.510  11.546   3.638
59415SOL     OW80141   0.423  12.696   2.044
59415SOL    HW180142   0.361  12.741   1.987
59415SOL    HW280143   0.415  12.604   2.021
59416SOL     OW80144   2.723  12.436  14.878
59416SOL    HW180145   2.796  12.494   0.019
59416SOL    HW280146   2.739  12.414  14.787
59417SOL     OW80147  14.023   3.236   4.807
59417SOL    HW180148  14.011   3.248   4.713
59417SOL    HW280149  13.978   3.310   4.847
59418SOL     OW80150   5.975   2.508  14.658
59418SOL    HW180151   6.049   2.560  14.691
59418SOL    HW280152   5.917   2.500  14.734
59419SOL     OW80153   1.727   0.080  10.480
59419SOL    HW180154   1.669   0.043  10.546
59419SOL    HW280155   1.670   0.134  10.425
59420SOL     OW80156   8.462   4.286   5.575
59420SOL    HW180157   8.446   4.347   5.504
59420SOL    HW280158   8.541   4.317   5.618
59421SOL     OW80159   7.142  10.558   9.932
59421SOL    HW180160   7.236  10.572   9.941
59421SOL    HW280161   7.133  10.465   9.914
59422SOL     OW80162   6.093   8.448   2.022
59422SOL    HW180163   6.186   8.465   2.005
59422SOL    HW280164   6.067   8.517   2.083
59423SOL     OW80165   7.446   8.610   8.337
59423SOL    HW180166   7.465   8.517   8.347
59423SOL    HW280167   7.531   8.652   8.329
59424SOL     OW80168   2.947   5.921   7.674
59424SOL    HW180169   2.911   5.999   7.631
59424SOL    HW280170   3.030   5.906   7.629
59425SOL     OW80171   5.415  12.699  12.243
59425SOL    HW180172   5.505  12.727  12.254
59425SOL    HW280173   5.420  12.620  12.188
59426SOL     OW80174  14.412   5.862   8.005
59426SOL    HW180175  14.338   5.842   8.063
59426SOL    HW280176  14.439   5.950   8.029
59427SOL     OW80177   1.055  13.921   9.705
59427SOL    HW180178   1.128  13.891   9.758
59427SOL    HW280179   1.075  14.013   9.687
59428SOL     OW80180  11.393   7.602   1.023
59428SOL    HW180181  11.438   7.518   1.007
59428SOL    HW280182  11.450   7.667   0.983
59429SOL     OW80183   0.039  10.061   3.654
59429SOL    HW180184   0.037  10.090   3.563
59429SOL    HW280185   0.109   9.997   3.657
59430SOL     OW80186   8.456  12.094   5.238
59430SOL    HW180187   8.428  12.072   5.327
59430SOL    HW280188   8.387  12.152   5.205
59431SOL     OW80189  11.819   9.929  14.279
59431SOL    HW180190  11.737   9.880  14.289
59431SOL    HW280191  11.887   9.866  14.299
59432SOL     OW80192   3.892   1.119   5.288
59432SOL    HW180193   3.854   1.039   5.252
59432SOL    HW280194   3.982   1.094   5.311
59433SOL     OW80195  14.372   4.203  13.380
59433SOL    HW180196  14.322   4.271  13.425
59433SOL    HW280197  14.305   4.140  13.350
59434SOL     OW80198   5.780  14.224  13.052
59434SOL    HW180199   5.850  14.175  13.010
59434SOL    HW280200   5.772  14.185  13.139
59435SOL     OW80201   4.561   8.964   9.161
59435SOL    HW180202   4.472   8.929   9.161
59435SOL    HW280203   4.617   8.888   9.148
59436SOL     OW80204   1.674  14.027   7.374
59436SOL    HW180205   1.583  14.040   7.400
59436SOL    HW280206   1.687  13.933   7.379
59437SOL     OW80207   1.196   6.324   0.248
59437SOL    HW180208   1.153   6.408   0.233
59437SOL    HW280209   1.165   6.296   0.334
59438SOL     OW80210  14.119   5.867   4.672
59438SOL    HW180211  14.123   5.783   4.717
59438SOL    HW280212  14.204   5.908   4.689
59439SOL     OW80213  11.613   5.971   3.041
59439SOL    HW180214  11.701   6.004   3.028
59439SOL    HW280215  11.561   6.049   3.064
59440SOL     OW80216  13.355   4.741   9.888
59440SOL    HW180217  13.394   4.737   9.800
59440SOL    HW280218  13.269   4.780   9.873
59441SOL     OW80219   2.675   9.511   0.909
59441SOL    HW180220   2.696   9.555   0.827
59441SOL    HW280221   2.662   9.582   0.972
59442SOL     OW80222  13.251   8.959  14.638
59442SOL    HW180223  13.162   8.925  14.645
59442SOL    HW280224  13.282   8.928  14.553
59443SOL     OW80225   9.041   6.023   1.472
59443SOL    HW180226   9.017   5.973   1.550
59443SOL    HW280227   8.977   6.094   1.468
59444SOL     OW80228  13.219   4.051   6.095
59444SOL    HW180229  13.291   4.089   6.044
59444SOL    HW280230  13.169   4.126   6.127
59445SOL     OW80231   0.157   2.674   3.782
59445SOL    HW180232   0.234   2.618   3.778
59445SOL    HW280233   0.178   2.750   3.729
59446SOL     OW80234   2.510   9.918   0.117
59446SOL    HW180235   2.452   9.855   0.074
59446SOL    HW280236   2.470   9.934   0.202
59447SOL     OW80237  12.916   9.893   8.783
59447SOL    HW180238  12.823   9.894   8.808
59447SOL    HW280239  12.939   9.800   8.782
59448SOL     OW80240  13.654  11.848  14.658
59448SOL    HW180241  13.596  11.886  14.592
59448SOL    HW280242  13.679  11.921  14.713
59449SOL     OW80243  13.801   5.058  13.317
59449SOL    HW180244  13.781   4.973  13.357
59449SOL    HW280245  13.785   5.044  13.223
59450SOL     OW80246  13.686   1.392   9.715
59450SOL    HW180247  13.673   1.325   9.647
59450SOL    HW280248  13.781   1.401   9.721
59451SOL     OW80249  14.877   9.624   9.248
59451SOL    HW180250   0.073   9.620   9.303
59451SOL    HW280251  14.852   9.532   9.236
59452SOL     OW80252  10.548   7.378   1.537
59452SOL    HW180253  10.520   7.377   1.445
59452SOL    HW280254  10.625   7.435   1.538
59453SOL     OW80255   3.272  12.291   7.098
59453SOL    HW180256   3.309  12.297   7.009
59453SOL    HW280257   3.273  12.198   7.118
59454SOL     OW80258  12.489   7.200   1.191
59454SOL    HW180259  12.455   7.214   1.280
59454SOL    HW280260  12.557   7.267   1.181
59455SOL     OW80261   8.998  11.126   9.567
59455SOL    HW180262   9.068  11.183   9.600
59455SOL    HW280263   9.024  11.105   9.478
59456SOL     OW80264  14.869  13.437   1.271
59456SOL    HW180265  14.818  13.374   1.321
59456SOL    HW280266  14.818  13.451   1.191
59457SOL     OW80267   0.761   3.771  13.261
59457SOL    HW180268   0.705   3.848  13.273
59457SOL    HW280269   0.751   3.721  13.342
59458SOL     OW80270  13.087  11.406   6.256
59458SOL    HW180271  13.087  11.492   6.297
59458SOL    HW280272  13.044  11.420   6.172
59459SOL     OW80273   2.972   9.224  10.049
59459SOL    HW180274   3.039   9.175  10.096
59459SOL    HW280275   3.012   9.247   9.965
59460SOL     OW80276  10.045   4.319   0.949
59460SOL    HW180277   9.998   4.289   1.026
59460SOL    HW280278   9.980   4.368   0.898
59461SOL     OW80279  10.064   9.227   6.533
59461SOL    HW180280  10.130   9.195   6.594
59461SOL    HW280281  10.057   9.321   6.552
59462SOL     OW80282  13.252  14.879  11.855
59462SOL    HW180283  13.171  14.843  11.818
59462SOL    HW280284  13.314  14.807  11.851
59463SOL     OW80285  11.744   4.796   3.744
59463SOL    HW180286  11.818   4.751   3.785
59463SOL    HW280287  11.746   4.768   3.652
59464SOL     OW80288   4.595  10.442  12.028
59464SOL    HW180289   4.664  10.419  12.091
59464SOL    HW280290   4.613  10.533  12.006
59465SOL     OW80291   9.645  14.739   5.651
59465SOL    HW180292   9.610  14.716   5.737
59465SOL    HW280293   9.569  14.735   5.593
59466SOL     OW80294   3.429   0.720  10.166
59466SOL    HW180295   3.516   0.758  10.180
59466SOL    HW280296   3.401   0.756  10.082
59467SOL     OW80297  14.333  11.197   1.669
59467SOL    HW180298  14.366  11.111   1.643
59467SOL    HW280299  14.300  11.236   1.588
59468SOL     OW80300  11.718   5.376   8.537
59468SOL    HW180301  11.729   5.471   8.534
59468SOL    HW280302  11.669   5.356   8.457
59469SOL     OW80303   4.625   3.083  14.669
59469SOL    HW180304   4.720   3.091  14.668
59469SOL    HW280305   4.608   3.006  14.724
59470SOL     OW80306  14.836   8.257  14.490
59470SOL    HW180307  14.839   8.194  14.562
59470SOL    HW280308   0.038   8.246  14.446
59471SOL     OW80309   5.851   4.263   2.605
59471SOL    HW180310   5.816   4.352   2.593
59471SOL    HW280311   5.925   4.259   2.544
59472SOL     OW80312  13.635   9.827   5.868
59472SOL    HW180313  13.717   9.795   5.829
59472SOL    HW280314  13.617   9.909   5.823
59473SOL     OW80315   5.132   7.627   0.213
59473SOL    HW180316   5.184   7.652   0.289
59473SOL    HW280317   5.052   7.589   0.249
59474SOL     OW80318   4.352   0.326   4.153
59474SOL    HW180319   4.411   0.272   4.205
59474SOL    HW280320   4.340   0.278   4.071
59475SOL     OW80321   7.458  11.364   2.768
59475SOL    HW180322   7.497  11.296   2.822
59475SOL    HW280323   7.522  11.379   2.698
59476SOL     OW80324   6.552   6.952   5.971
59476SOL    HW180325   6.516   6.984   5.889
59476SOL    HW280326   6.630   7.005   5.986
59477SOL     OW80327  12.162  12.406   3.070
59477SOL    HW180328  12.218  12.330   3.081
59477SOL    HW280329  12.189  12.466   3.139
59478SOL     OW80330  11.440  12.328  10.155
59478SOL    HW180331  11.437  12.397  10.221
59478SOL    HW280332  11.390  12.364  10.081
59479SOL     OW80333  11.395   1.557   6.331
59479SOL    HW180334  11.393   1.496   6.405
59479SOL    HW280335  11.453   1.627   6.361
59480SOL     OW80336  12.495   2.795  12.724
59480SOL    HW180337  12.494   2.703  12.750
59480SOL    HW280338  12.571   2.832  12.769
59481SOL     OW80339   5.411   3.300   6.220
59481SOL    HW180340   5.367   3.381   6.247
59481SOL    HW280341   5.491   3.298   6.272
59482SOL     OW80342  11.461   7.269  11.146
59482SOL    HW180343  11.379   7.312  11.121
59482SOL    HW280344  11.437   7.177  11.154
59483SOL     OW80345   5.684   7.695   6.642
59483SOL    HW180346   5.616   7.671   6.705
59483SOL    HW280347   5.721   7.776   6.676
59484SOL     OW80348   3.724  10.770   1.538
59484SOL    HW180349   3.787  10.762   1.467
59484SOL    HW280350   3.723  10.683   1.579
59485SOL     OW80351  10.582  12.364   3.998
59485SOL    HW180352  10.590  12.400   3.910
59485SOL    HW280353  10.526  12.287   3.988
59486SOL     OW80354   1.388   9.793   3.961
59486SOL    HW180355   1.481   9.776   3.949
59486SOL    HW280356   1.354   9.808   3.872
59487SOL     OW80357   8.799  14.821   0.224
59487SOL    HW180358   8.842  14.836   0.308
59487SOL    HW280359   8.854  14.865   0.160
59488SOL     OW80360  13.005   0.466   5.700
59488SOL    HW180361  13.035   0.554   5.726
59488SOL    HW280362  13.042   0.408   5.766
59489SOL     OW80363   5.898   3.491  13.076
59489SOL    HW180364   5.823   3.479  13.017
59489SOL    HW280365   5.864   3.547  13.146
59490SOL     OW80366   4.667  13.207   6.487
59490SOL    HW180367   4.749  13.178   6.445
59490SOL    HW280368   4.640  13.132   6.540
59491SOL     OW80369   7.793   5.073   3.856
59491SOL    HW180370   7.786   4.988   3.811
59491SOL    HW280371   7.885   5.098   3.846
59492SOL     OW80372  13.091  14.194  12.185
59492SOL    HW180373  13.084  14.239  12.101
59492SOL    HW280374  13.172  14.229  12.224
59493SOL     OW80375   7.692   3.564   7.436
59493SOL    HW180376   7.609   3.610   7.451
59493SOL    HW280377   7.757   3.633   7.431
59494SOL     OW80378   4.300   3.737   4.345
59494SOL    HW180379   4.237   3.786   4.399
59494SOL    HW280380   4.369   3.800   4.326
59495SOL     OW80381   8.486  12.737   4.823
59495SOL    HW180382   8.455  12.679   4.892
59495SOL    HW280383   8.562  12.692   4.787
59496SOL     OW80384   4.974   3.929   9.513
59496SOL    HW180385   4.914   3.928   9.587
59496SOL    HW280386   5.047   3.873   9.540
59497SOL     OW80387   3.554  10.588   9.503
59497SOL    HW180388   3.535  10.680   9.485
59497SOL    HW280389   3.646  10.577   9.480
59498SOL     OW80390  12.640  11.111  10.846
59498SOL    HW180391  12.596  11.178  10.899
59498SOL    HW280392  12.718  11.154  10.811
59499SOL     OW80393   1.322   4.511   3.754
59499SOL    HW180394   1.240   4.517   3.803
59499SOL    HW280395   1.353   4.422   3.769
59500SOL     OW80396   8.786   5.090  11.787
59500SOL    HW180397   8.862   5.033  11.770
59500SOL    HW280398   8.712   5.030  11.792
59501SOL     OW80399   2.539   6.496   8.695
59501SOL    HW180400   2.538   6.402   8.715
59501SOL    HW280401   2.602   6.533   8.757
59502SOL     OW80402  14.686  11.502   6.378
59502SOL    HW180403  14.759  11.553   6.414
59502SOL    HW280404  14.611  11.561   6.382
59503SOL     OW80405   6.971   2.432   0.155
59503SOL    HW180406   7.013   2.355   0.193
59503SOL    HW280407   6.995   2.429   0.062
59504SOL     OW80408   8.485  14.173   6.739
59504SOL    HW180409   8.578  14.163   6.721
59504SOL    HW280410   8.463  14.260   6.707
59505SOL     OW80411  14.728   1.513  10.186
59505SOL    HW180412  14.815   1.499  10.225
59505SOL    HW280413  14.710   1.606  10.198
59506SOL     OW80414  13.123   3.231  12.451
59506SOL    HW180415  13.203   3.179  12.453
59506SOL    HW280416  13.092   3.231  12.541
59507SOL     OW80417   1.648   4.130   3.026
59507SOL    HW180418   1.685   4.088   3.104
59507SOL    HW280419   1.642   4.060   2.962
59508SOL     OW80420   5.866  13.565   7.867
59508SOL    HW180421   5.870  13.561   7.963
59508SOL    HW280422   5.845  13.656   7.847
59509SOL     OW80423   3.516   0.846   3.438
59509SOL    HW180424   3.504   0.936   3.471
59509SOL    HW280425   3.468   0.792   3.500
59510SOL     OW80426   7.393   5.441  11.154
59510SOL    HW180427   7.434   5.364  11.192
59510SOL    HW280428   7.330   5.470  11.220
59511SOL     OW80429   2.429   0.832   8.097
59511SOL    HW180430   2.514   0.875   8.102
59511SOL    HW280431   2.386   0.871   8.021
59512SOL     OW80432   0.957   9.505   4.355
59512SOL    HW180433   0.987   9.434   4.299
59512SOL    HW280434   1.025   9.572   4.349
59513SOL     OW80435   0.338   7.561   4.761
59513SOL    HW180436   0.377   7.479   4.790
59513SOL    HW280437   0.351   7.563   4.667
59514SOL     OW80438   0.698  14.770  12.635
59514SOL    HW180439   0.714  14.689  12.588
59514SOL    HW280440   0.604  14.769  12.652
59515SOL     OW80441   2.171  14.637  13.800
59515SOL    HW180442   2.142  14.678  13.719
59515SOL    HW280443   2.138  14.694  13.870
59516SOL     OW80444   5.303   8.529   1.598
59516SOL    HW180445   5.284   8.436   1.591
59516SOL    HW280446   5.254   8.557   1.676
59517SOL     OW80447   9.586  14.353   6.423
59517SOL    HW180448   9.593  14.277   6.365
59517SOL    HW280449   9.663  14.348   6.479
59518SOL     OW80450   0.913   7.873   4.369
59518SOL    HW180451   0.852   7.940   4.340
59518SOL    HW280452   0.869   7.790   4.349
59519SOL     OW80453  13.683   3.741  10.898
59519SOL    HW180454  13.722   3.675  10.841
59519SOL    HW280455  13.611   3.777  10.847
59520SOL     OW80456   4.894   7.775   2.527
59520SOL    HW180457   4.905   7.681   2.512
59520SOL    HW280458   4.818   7.783   2.584
59521SOL     OW80459   2.466   3.742   5.921
59521SOL    HW180460   2.446   3.820   5.974
59521SOL    HW280461   2.443   3.766   5.832
59522SOL     OW80462   2.818   8.611   3.787
59522SOL    HW180463   2.850   8.639   3.873
59522SOL    HW280464   2.740   8.664   3.773
59523SOL     OW80465   6.241   2.787   0.073
59523SOL    HW180466   6.323   2.741   0.094
59523SOL    HW280467   6.174   2.740   0.122
59524SOL     OW80468   6.419  11.786  11.869
59524SOL    HW180469   6.461  11.749  11.791
59524SOL    HW280470   6.449  11.730  11.941
59525SOL     OW80471   3.993   8.453   0.689
59525SOL    HW180472   3.940   8.378   0.663
59525SOL    HW280473   4.083   8.428   0.668
59526SOL     OW80474   2.400  10.943  11.223
59526SOL    HW180475   2.317  10.895  11.221
59526SOL    HW280476   2.465  10.880  11.253
59527SOL     OW80477   6.562  11.065  11.348
59527SOL    HW180478   6.535  11.139  11.403
59527SOL    HW280479   6.571  11.102  11.260
59528SOL     OW80480   2.760   4.673   7.628
59528SOL    HW180481   2.830   4.737   7.641
59528SOL    HW280482   2.725   4.693   7.541
59529SOL     OW80483   3.129  14.296   1.354
59529SOL    HW180484   3.161  14.261   1.437
59529SOL    HW280485   3.076  14.225   1.316
59530SOL     OW80486  11.361   9.786   4.979
59530SOL    HW180487  11.351   9.875   5.013
59530SOL    HW280488  11.453   9.765   4.993
59531SOL     OW80489  12.217   1.859  11.070
59531SOL    HW180490  12.236   1.872  11.163
59531SOL    HW280491  12.296   1.888  11.026
59532SOL     OW80492  10.332   6.158  11.732
59532SOL    HW180493  10.386   6.084  11.703
59532SOL    HW280494  10.258   6.158  11.671
59533SOL     OW80495  12.241   1.497   1.747
59533SOL    HW180496  12.206   1.514   1.834
59533SOL    HW280497  12.300   1.423   1.758
59534SOL     OW80498   9.739   2.166   1.433
59534SOL    HW180499   9.656   2.213   1.439
59534SOL    HW280500   9.737   2.105   1.507
59535SOL     OW80501  12.240   5.931  13.362
59535SOL    HW180502  12.207   5.891  13.282
59535SOL    HW280503  12.175   5.907  13.429
59536SOL     OW80504   5.426  12.586   7.079
59536SOL    HW180505   5.447  12.520   7.146
59536SOL    HW280506   5.453  12.669   7.118
59537SOL     OW80507  11.707   3.012  10.836
59537SOL    HW180508  11.765   3.082  10.806
59537SOL    HW280509  11.676   2.971  10.755
59538SOL     OW80510   3.644  13.111   8.509
59538SOL    HW180511   3.667  13.202   8.528
59538SOL    HW280512   3.645  13.105   8.414
59539SOL     OW80513   3.758  11.126   6.313
59539SOL    HW180514   3.691  11.083   6.366
59539SOL    HW280515   3.838  11.076   6.329
59540SOL     OW80516   0.209   1.391  10.646
59540SOL    HW180517   0.116   1.372  10.635
59540SOL    HW280518   0.212   1.460  10.712
59541SOL     OW80519  11.262   4.815  10.457
59541SOL    HW180520  11.293   4.730  10.488
59541SOL    HW280521  11.167   4.806  10.453
59542SOL     OW80522   4.342   6.234   8.070
59542SOL    HW180523   4.314   6.263   8.157
59542SOL    HW280524   4.375   6.146   8.084
59543SOL     OW80525   2.606  10.202   8.347
59543SOL    HW180526   2.663  10.183   8.272
59543SOL    HW280527   2.660  10.186   8.424
59544SOL     OW80528   9.891   0.269   1.713
59544SOL    HW180529   9.924   0.183   1.687
59544SOL    HW280530   9.796   0.262   1.704
59545SOL     OW80531   7.611  14.800   4.914
59545SOL    HW180532   7.527  14.847   4.911
59545SOL    HW280533   7.674  14.861   4.874
59546SOL     OW80534   2.936   6.402  10.460
59546SOL    HW180535   2.996   6.430  10.529
59546SOL    HW280536   2.877   6.340  10.502
59547SOL     OW80537  13.172   4.259   7.403
59547SOL    HW180538  13.186   4.285   7.312
59547SOL    HW280539  13.235   4.188   7.418
59548SOL     OW80540   5.841  14.122   9.928
59548SOL    HW180541   5.867  14.164  10.010
59548SOL    HW280542   5.902  14.050   9.917
59549SOL     OW80543   0.781   3.686   6.258
59549SOL    HW180544   0.713   3.752   6.271
59549SOL    HW280545   0.832   3.688   6.339
59550SOL     OW80546   7.802   4.789   0.517
59550SOL    HW180547   7.830   4.841   0.593
59550SOL    HW280548   7.800   4.699   0.550
59551SOL     OW80549   3.171   4.901   8.977
59551SOL    HW180550   3.076   4.911   8.976
59551SOL    HW280551   3.200   4.945   8.897
59552SOL     OW80552  10.764  12.666   1.583
59552SOL    HW180553  10.779  12.699   1.671
59552SOL    HW280554  10.669  12.671   1.571
59553SOL     OW80555  13.589   6.495   1.712
59553SOL    HW180556  13.571   6.442   1.790
59553SOL    HW280557  13.631   6.434   1.651
59554SOL     OW80558   1.666   5.040  10.668
59554SOL    HW180559   1.693   5.103  10.601
59554SOL    HW280560   1.747   4.996  10.693
59555SOL     OW80561   9.016   3.865  13.452
59555SOL    HW180562   8.959   3.839  13.380
59555SOL    HW280563   9.035   3.958  13.436
59556SOL     OW80564  11.747  10.691  10.174
59556SOL    HW180565  11.719  10.600  10.167
59556SOL    HW280566  11.792  10.709  10.091
59557SOL     OW80567   2.247   8.880   6.780
59557SOL    HW180568   2.249   8.974   6.758
59557SOL    HW280569   2.221   8.837   6.698
59558SOL     OW80570   0.563   3.475  14.861
59558SOL    HW180571   0.552   3.382  14.881
59558SOL    HW280572   0.550   3.481  14.767
59559SOL     OW80573   1.773  14.628  12.465
59559SOL    HW180574   1.804  14.587  12.546
59559SOL    HW280575   1.809  14.574  12.395
59560SOL     OW80576   0.881   6.115  12.453
59560SOL    HW180577   0.918   6.192  12.497
59560SOL    HW280578   0.844   6.149  12.372
59561SOL     OW80579   8.351  10.851   7.380
59561SOL    HW180580   8.324  10.896   7.300
59561SOL    HW280581   8.353  10.919   7.447
59562SOL     OW80582   3.022   5.329   6.547
59562SOL    HW180583   3.004   5.400   6.486
59562SOL    HW280584   2.957   5.339   6.616
59563SOL     OW80585  11.854  13.519   6.313
59563SOL    HW180586  11.943  13.496   6.338
59563SOL    HW280587  11.799  13.453   6.356
59564SOL     OW80588   7.096  12.880  12.388
59564SOL    HW180589   7.079  12.893  12.481
59564SOL    HW280590   7.187  12.850  12.385
59565SOL     OW80591   3.505  12.780   8.135
59565SOL    HW180592   3.454  12.733   8.201
59565SOL    HW280593   3.475  12.871   8.140
59566SOL     OW80594   6.294   0.413  10.664
59566SOL    HW180595   6.323   0.338  10.611
59566SOL    HW280596   6.289   0.485  10.601
59567SOL     OW80597   4.813  10.074   8.859
59567SOL    HW180598   4.848  10.158   8.832
59567SOL    HW280599   4.890  10.025   8.889
59568SOL     OW80600   0.216   8.447   7.460
59568SOL    HW180601   0.158   8.522   7.446
59568SOL    HW280602   0.266   8.439   7.379
59569SOL     OW80603  10.025   0.222  11.245
59569SOL    HW180604   9.978   0.156  11.193
59569SOL    HW280605   9.978   0.223  11.329
59570SOL     OW80606   3.630   5.394   7.732
59570SOL    HW180607   3.561   5.334   7.759
59570SOL    HW280608   3.627   5.465   7.795
59571SOL     OW80609  10.281   8.409   3.005
59571SOL    HW180610  10.207   8.471   3.005
59571SOL    HW280611  10.255   8.342   2.942
59572SOL     OW80612   8.325   7.226  13.266
59572SOL    HW180613   8.415   7.212  13.296
59572SOL    HW280614   8.275   7.241  13.346
59573SOL     OW80615   7.387   5.789   7.063
59573SOL    HW180616   7.480   5.805   7.050
59573SOL    HW280617   7.347   5.809   6.977
59574SOL     OW80618  14.391  11.540  14.353
59574SOL    HW180619  14.379  11.568  14.262
59574SOL    HW280620  14.399  11.621  14.403
59575SOL     OW80621   9.101  10.159   4.358
59575SOL    HW180622   9.075  10.070   4.333
59575SOL    HW280623   9.019  10.204   4.376
59576SOL     OW80624   7.527   2.318  10.042
59576SOL    HW180625   7.514   2.306   9.948
59576SOL    HW280626   7.621   2.331  10.052
59577SOL     OW80627   6.542   1.649   7.582
59577SOL    HW180628   6.568   1.570   7.630
59577SOL    HW280629   6.446   1.650   7.589
59578SOL     OW80630  10.828   8.297  14.055
59578SOL    HW180631  10.790   8.335  14.135
59578SOL    HW280632  10.922   8.314  14.063
59579SOL     OW80633  14.062   0.202   3.313
59579SOL    HW180634  14.145   0.243   3.335
59579SOL    HW280635  14.072   0.110   3.339
59580SOL     OW80636  10.860  10.971   5.655
59580SOL    HW180637  10.903  11.035   5.713
59580SOL    HW280638  10.926  10.904   5.640
59581SOL     OW80639  14.753   4.176  12.820
59581SOL    HW180640  14.727   4.251  12.767
59581SOL    HW280641  14.671   4.143  12.856
59582SOL     OW80642   3.924  11.941   7.949
59582SOL    HW180643   3.886  11.856   7.970
59582SOL    HW280644   3.999  11.921   7.892
59583SOL     OW80645   1.188   4.283  14.846
59583SOL    HW180646   1.267   4.337  14.855
59583SOL    HW280647   1.116   4.346  14.853
59584SOL     OW80648   3.851   1.026  14.575
59584SOL    HW180649   3.900   0.983  14.645
59584SOL    HW280650   3.780   1.072  14.620
59585SOL     OW80651   6.883   5.037   3.119
59585SOL    HW180652   6.850   4.962   3.168
59585SOL    HW280653   6.835   5.112   3.154
59586SOL     OW80654   5.506   5.041   8.997
59586SOL    HW180655   5.524   5.016   9.088
59586SOL    HW280656   5.468   4.962   8.958
59587SOL     OW80657   2.367  13.273   9.387
59587SOL    HW180658   2.378  13.240   9.476
59587SOL    HW280659   2.286  13.325   9.391
59588SOL     OW80660   2.465   3.151   1.995
59588SOL    HW180661   2.422   3.144   1.910
59588SOL    HW280662   2.558   3.152   1.975
59589SOL     OW80663   8.754   1.744   3.642
59589SOL    HW180664   8.753   1.650   3.621
59589SOL    HW280665   8.729   1.786   3.559
59590SOL     OW80666   4.446   6.445   5.511
59590SOL    HW180667   4.410   6.382   5.449
59590SOL    HW280668   4.400   6.527   5.493
59591SOL     OW80669   1.207  10.341  13.289
59591SOL    HW180670   1.259  10.298  13.221
59591SOL    HW280671   1.259  10.418  13.312
59592SOL     OW80672  12.501   6.246   5.157
59592SOL    HW180673  12.461   6.183   5.097
59592SOL    HW280674  12.559   6.193   5.212
59593SOL     OW80675  11.153   4.453  12.133
59593SOL    HW180676  11.147   4.504  12.213
59593SOL    HW280677  11.137   4.363  12.160
59594SOL     OW80678   0.196   7.970   1.469
59594SOL    HW180679   0.118   7.918   1.488
59594SOL    HW280680   0.258   7.946   1.538
59595SOL     OW80681   7.092   5.475   2.444
59595SOL    HW180682   7.098   5.535   2.518
59595SOL    HW280683   7.088   5.531   2.367
59596SOL     OW80684   1.876   5.582   0.676
59596SOL    HW180685   1.817   5.512   0.703
59596SOL    HW280686   1.861   5.592   0.582
59597SOL     OW80687   4.542   9.442  10.834
59597SOL    HW180688   4.502   9.442  10.921
59597SOL    HW280689   4.493   9.377  10.784
59598SOL     OW80690  11.431  11.874   7.533
59598SOL    HW180691  11.449  11.782   7.554
59598SOL    HW280692  11.389  11.908   7.611
59599SOL     OW80693  12.042  13.440  13.845
59599SOL    HW180694  12.012  13.393  13.768
59599SOL    HW280695  12.130  13.470  13.821
59600SOL     OW80696  11.406   3.089   3.247
59600SOL    HW180697  11.383   3.095   3.340
59600SOL    HW280698  11.339   3.142   3.203
59601SOL     OW80699   8.729   0.913   8.839
59601SOL    HW180700   8.681   0.871   8.767
59601SOL    HW280701   8.660   0.938   8.901
59602SOL     OW80702  10.051   9.095  10.536
59602SOL    HW180703  10.065   9.124  10.445
59602SOL    HW280704  10.139   9.081  10.570
59603SOL     OW80705  10.245   3.793  13.008
59603SOL    HW180706  10.320   3.820  12.954
59603SOL    HW280707  10.283   3.734  13.073
59604SOL     OW80708  14.835   2.380  12.400
59604SOL    HW180709  14.769   2.314  12.383
59604SOL    HW280710  14.795   2.439  12.464
59605SOL     OW80711   8.772  13.492  13.349
59605SOL    HW180712   8.688  13.539  13.352
59605SOL    HW280713   8.748  13.400  13.361
59606SOL     OW80714   8.448   4.471   0.312
59606SOL    HW180715   8.393   4.419   0.252
59606SOL    HW280716   8.407   4.459   0.398
59607SOL     OW80717   9.956   9.388  13.819
59607SOL    HW180718   9.940   9.483  13.816
59607SOL    HW280719  10.022   9.373  13.752
59608SOL     OW80720  14.356  11.193   5.871
59608SOL    HW180721  14.402  11.149   5.943
59608SOL    HW280722  14.321  11.273   5.910
59609SOL     OW80723   6.745  11.424   6.635
59609SOL    HW180724   6.708  11.406   6.548
59609SOL    HW280725   6.799  11.502   6.623
59610SOL     OW80726   4.113  14.413  14.409
59610SOL    HW180727   4.189  14.368  14.373
59610SOL    HW280728   4.149  14.489  14.454
59611SOL     OW80729   1.144   5.464   4.958
59611SOL    HW180730   1.073   5.444   5.020
59611SOL    HW280731   1.099   5.502   4.883
59612SOL     OW80732   4.317  12.052   7.642
59612SOL    HW180733   4.406  12.060   7.609
59612SOL    HW280734   4.269  12.123   7.599
59613SOL     OW80735  11.438  11.422   2.712
59613SOL    HW180736  11.508  11.386   2.766
59613SOL    HW280737  11.484  11.467   2.641
59614SOL     OW80738   4.210  11.632   1.688
59614SOL    HW180739   4.154  11.555   1.690
59614SOL    HW280740   4.279  11.610   1.626
59615SOL     OW80741   5.401  12.997   7.555
59615SOL    HW180742   5.477  13.033   7.511
59615SOL    HW280743   5.419  13.010   7.648
59616SOL     OW80744   1.199   6.924   5.881
59616SOL    HW180745   1.294   6.915   5.888
59616SOL    HW280746   1.166   6.835   5.894
59617SOL     OW80747   1.735   5.648   8.278
59617SOL    HW180748   1.645   5.621   8.296
59617SOL    HW280749   1.787   5.570   8.296
59618SOL     OW80750   7.188   9.994  12.679
59618SOL    HW180751   7.177  10.008  12.773
59618SOL    HW280752   7.162   9.903  12.665
59619SOL     OW80753  10.539   8.509  12.991
59619SOL    HW180754  10.634   8.513  13.000
59619SOL    HW280755  10.520   8.569  12.919
59620SOL     OW80756  12.948  11.047   9.532
59620SOL    HW180757  13.037  11.038   9.566
59620SOL    HW280758  12.960  11.079   9.442
59621SOL     OW80759  10.269  10.124  12.255
59621SOL    HW180760  10.285  10.042  12.207
59621SOL    HW280761  10.308  10.192  12.200
59622SOL     OW80762   3.219   0.968   2.410
59622SOL    HW180763   3.315   0.972   2.410
59622SOL    HW280764   3.193   1.019   2.487
59623SOL     OW80765  12.509  10.938   4.166
59623SOL    HW180766  12.502  10.923   4.261
59623SOL    HW280767  12.524  10.851   4.129
59624SOL     OW80768   6.645   9.462   1.921
59624SOL    HW180769   6.657   9.369   1.905
59624SOL    HW280770   6.593   9.466   2.001
59625SOL     OW80771   7.844   4.476   8.184
59625SOL    HW180772   7.797   4.402   8.147
59625SOL    HW280773   7.776   4.533   8.220
59626SOL     OW80774  11.214   5.925  13.771
59626SOL    HW180775  11.208   5.920  13.675
59626SOL    HW280776  11.154   5.857  13.802
59627SOL     OW80777   0.187   6.915   3.392
59627SOL    HW180778   0.197   6.866   3.311
59627SOL    HW280779   0.093   6.914   3.409
59628SOL     OW80780   4.811   4.409   5.901
59628SOL    HW180781   4.850   4.404   5.988
59628SOL    HW280782   4.866   4.352   5.847
59629SOL     OW80783   5.620  12.125   3.303
59629SOL    HW180784   5.669  12.169   3.233
59629SOL    HW280785   5.675  12.050   3.326
59630SOL     OW80786   4.091   2.122   9.378
59630SOL    HW180787   4.104   2.028   9.389
59630SOL    HW280788   3.997   2.132   9.362
59631SOL     OW80789  14.556  12.500  13.146
59631SOL    HW180790  14.571  12.432  13.080
59631SOL    HW280791  14.520  12.453  13.221
59632SOL     OW80792  14.285   3.553   6.977
59632SOL    HW180793  14.308   3.644   6.994
59632SOL    HW280794  14.245   3.522   7.058
59633SOL     OW80795   8.970   7.721  12.135
59633SOL    HW180796   8.934   7.692  12.052
59633SOL    HW280797   8.943   7.813  12.142
59634SOL     OW80798   4.630   9.684  10.719
59634SOL    HW180799   4.579   9.728  10.651
59634SOL    HW280800   4.591   9.596  10.725
59635SOL     OW80801  10.128   7.733  12.035
59635SOL    HW180802  10.210   7.689  12.015
59635SOL    HW280803  10.152   7.825  12.047
59636SOL     OW80804   3.449   3.296  14.256
59636SOL    HW180805   3.432   3.251  14.338
59636SOL    HW280806   3.507   3.368  14.280
59637SOL     OW80807  10.576   3.024   7.247
59637SOL    HW180808  10.664   3.045   7.217
59637SOL    HW280809  10.584   3.017   7.342
59638SOL     OW80810   9.053   9.000  13.105
59638SOL    HW180811   9.115   8.989  13.178
59638SOL    HW280812   9.109   9.003  13.027
59639SOL     OW80813  13.125   1.110  11.356
59639SOL    HW180814  13.047   1.131  11.407
59639SOL    HW280815  13.197   1.151  11.405
59640SOL     OW80816   5.751  12.269   7.714
59640SOL    HW180817   5.706  12.300   7.636
59640SOL    HW280818   5.817  12.335   7.732
59641SOL     OW80819  11.779   8.711   5.180
59641SOL    HW180820  11.751   8.621   5.164
59641SOL    HW280821  11.830   8.706   5.261
59642SOL     OW80822  14.092   8.986   8.996
59642SOL    HW180823  14.176   8.943   8.978
59642SOL    HW280824  14.116   9.076   9.019
59643SOL     OW80825   0.766  10.980   4.658
59643SOL    HW180826   0.781  11.074   4.642
59643SOL    HW280827   0.703  10.954   4.592
59644SOL     OW80828   5.871   9.018  11.966
59644SOL    HW180829   5.877   9.092  11.906
59644SOL    HW280830   5.832   9.056  12.046
59645SOL     OW80831  13.604  10.481   4.325
59645SOL    HW180832  13.559  10.509   4.246
59645SOL    HW280833  13.551  10.409   4.360
59646SOL     OW80834   4.384  14.488   9.825
59646SOL    HW180835   4.454  14.527   9.773
59646SOL    HW280836   4.388  14.534   9.909
59647SOL     OW80837   6.373   7.895  11.176
59647SOL    HW180838   6.290   7.870  11.135
59647SOL    HW280839   6.390   7.825  11.240
59648SOL     OW80840  14.878  13.649   3.083
59648SOL    HW180841   0.038  13.705   3.149
59648SOL    HW280842  14.867  13.565   3.127
59649SOL     OW80843   8.727  14.602  12.918
59649SOL    HW180844   8.666  14.574  12.849
59649SOL    HW280845   8.767  14.521  12.948
59650SOL     OW80846  13.738  10.286   1.556
59650SOL    HW180847  13.706  10.300   1.467
59650SOL    HW280848  13.833  10.298   1.550
59651SOL     OW80849   9.501  12.755   1.454
59651SOL    HW180850   9.491  12.696   1.529
59651SOL    HW280851   9.412  12.788   1.438
59652SOL     OW80852   3.048   0.059   5.647
59652SOL    HW180853   3.044   0.022   5.559
59652SOL    HW280854   3.086  14.872   5.701
59653SOL     OW80855   6.583   8.243   3.825
59653SOL    HW180856   6.651   8.265   3.761
59653SOL    HW280857   6.550   8.327   3.855
59654SOL     OW80858   7.225   4.809  10.188
59654SOL    HW180859   7.211   4.714  10.188
59654SOL    HW280860   7.137   4.846  10.181
59655SOL     OW80861   2.311  13.885   5.565
59655SOL    HW180862   2.225  13.926   5.568
59655SOL    HW280863   2.294  13.798   5.530
59656SOL     OW80864   7.328   0.917   7.186
59656SOL    HW180865   7.255   0.869   7.224
59656SOL    HW280866   7.406   0.878   7.226
59657SOL     OW80867   0.731   3.288   6.123
59657SOL    HW180868   0.721   3.196   6.100
59657SOL    HW280869   0.820   3.294   6.157
59658SOL     OW80870  11.823  12.396   3.876
59658SOL    HW180871  11.799  12.317   3.924
59658SOL    HW280872  11.807  12.467   3.938
59659SOL     OW80873   1.369   5.365   0.314
59659SOL    HW180874   1.392   5.449   0.275
59659SOL    HW280875   1.289   5.383   0.364
59660SOL     OW80876   1.334   7.549  14.293
59660SOL    HW180877   1.256   7.591  14.330
59660SOL    HW280878   1.355   7.479  14.356
59661SOL     OW80879  13.157   5.921  10.648
59661SOL    HW180880  13.079   5.961  10.685
59661SOL    HW280881  13.129   5.887  10.563
59662SOL     OW80882   9.083   6.617   8.340
59662SOL    HW180883   9.116   6.559   8.409
59662SOL    HW280884   9.041   6.559   8.277
59663SOL     OW80885   7.649   6.808   5.205
59663SOL    HW180886   7.688   6.758   5.133
59663SOL    HW280887   7.612   6.742   5.263
59664SOL     OW80888   7.369  10.403   5.498
59664SOL    HW180889   7.429  10.340   5.459
59664SOL    HW280890   7.294  10.351   5.527
59665SOL     OW80891   1.957  12.386   7.831
59665SOL    HW180892   1.991  12.470   7.801
59665SOL    HW280893   1.998  12.322   7.773
59666SOL     OW80894   3.437   0.965  12.867
59666SOL    HW180895   3.424   0.873  12.848
59666SOL    HW280896   3.509   0.967  12.930
59667SOL     OW80897  12.404   5.513   1.004
59667SOL    HW180898  12.403   5.430   1.052
59667SOL    HW280899  12.321   5.554   1.027
59668SOL     OW80900   9.531   5.431  13.078
59668SOL    HW180901   9.606   5.373  13.064
59668SOL    HW280902   9.522   5.435  13.174
59669SOL     OW80903   4.252   9.131   2.016
59669SOL    HW180904   4.312   9.165   1.949
59669SOL    HW280905   4.254   9.195   2.086
59670SOL     OW80906   5.084   7.540   9.181
59670SOL    HW180907   5.001   7.573   9.215
59670SOL    HW280908   5.142   7.616   9.181
59671SOL     OW80909  12.696   4.824  12.637
59671SOL    HW180910  12.673   4.904  12.589
59671SOL    HW280911  12.712   4.854  12.726
59672SOL     OW80912   9.963  11.284   1.930
59672SOL    HW180913  10.035  11.328   1.976
59672SOL    HW280914  10.003  11.249   1.851
59673SOL     OW80915   1.230   7.185  12.293
59673SOL    HW180916   1.319   7.183  12.260
59673SOL    HW280917   1.203   7.093  12.296
59674SOL     OW80918   4.311   8.278   9.836
59674SOL    HW180919   4.342   8.232   9.914
59674SOL    HW280920   4.349   8.230   9.763
59675SOL     OW80921   0.890  13.234   7.213
59675SOL    HW180922   0.957  13.290   7.252
59675SOL    HW280923   0.922  13.215   7.125
59676SOL     OW80924  14.047   6.747  14.841
59676SOL    HW180925  14.049   6.682   0.029
59676SOL    HW280926  13.954   6.767  14.830
59677SOL     OW80927   5.406  14.664  10.272
59677SOL    HW180928   5.324  14.619  10.290
59677SOL    HW280929   5.472  14.614  10.321
59678SOL     OW80930   6.657  14.536   4.070
59678SOL    HW180931   6.715  14.477   4.117
59678SOL    HW280932   6.569  14.511   4.098
59679SOL     OW80933  13.210  14.482  10.415
59679SOL    HW180934  13.202  14.493  10.320
59679SOL    HW280935  13.300  14.451  10.428
59680SOL     OW80936  10.400   9.474   3.959
59680SOL    HW180937  10.453   9.450   4.035
59680SOL    HW280938  10.318   9.506   3.996
59681SOL     OW80939   7.461  14.165  12.632
59681SOL    HW180940   7.550  14.199  12.619
59681SOL    HW280941   7.444  14.177  12.725
59682SOL     OW80942   0.822   8.403   1.971
59682SOL    HW180943   0.912   8.426   1.947
59682SOL    HW280944   0.817   8.308   1.959
59683SOL     OW80945  13.338   2.618   8.543
59683SOL    HW180946  13.326   2.664   8.626
59683SOL    HW280947  13.250   2.600   8.512
59684SOL     OW80948   3.450   2.057  14.513
59684SOL    HW180949   3.502   2.096  14.442
59684SOL    HW280950   3.367   2.034  14.472
59685SOL     OW80951   4.680  13.303   8.758
59685SOL    HW180952   4.728  13.336   8.833
59685SOL    HW280953   4.610  13.249   8.795
59686SOL     OW80954   8.921  10.241   7.970
59686SOL    HW180955   9.005  10.242   8.015
59686SOL    HW280956   8.893  10.149   7.974
59687SOL     OW80957   3.504   9.648   0.269
59687SOL    HW180958   3.425   9.619   0.314
59687SOL    HW280959   3.540   9.716   0.326
59688SOL     OW80960   0.094  14.051  13.399
59688SOL    HW180961   0.068  13.959  13.390
59688SOL    HW280962   0.017  14.101  13.372
59689SOL     OW80963   8.541  14.652   4.179
59689SOL    HW180964   8.632  14.623   4.188
59689SOL    HW280965   8.536  14.732   4.231
59690SOL     OW80966   3.211   8.985  11.344
59690SOL    HW180967   3.280   8.941  11.393
59690SOL    HW280968   3.130   8.958  11.386
59691SOL     OW80969   6.506  13.362   2.507
59691SOL    HW180970   6.462  13.287   2.468
59691SOL    HW280971   6.452  13.437   2.484
59692SOL     OW80972   5.940  10.471   4.264
59692SOL    HW180973   6.024  10.501   4.230
59692SOL    HW280974   5.920  10.530   4.336
59693SOL     OW80975   8.291   8.834   0.152
59693SOL    HW180976   8.219   8.805   0.095
59693SOL    HW280977   8.306   8.925   0.126
59694SOL     OW80978   6.794  14.375   3.596
59694SOL    HW180979   6.787  14.280   3.600
59694SOL    HW280980   6.885  14.394   3.618
59695SOL     OW80981   2.821   2.320   0.787
59695SOL    HW180982   2.873   2.263   0.730
59695SOL    HW280983   2.815   2.272   0.870
59696SOL     OW80984   1.450   7.009   6.383
59696SOL    HW180985   1.465   7.101   6.361
59696SOL    HW280986   1.417   7.011   6.473
59697SOL     OW80987  13.107   9.524  13.116
59697SOL    HW180988  13.050   9.566  13.181
59697SOL    HW280989  13.057   9.449  13.085
59698SOL     OW80990   5.927   2.526  13.019
59698SOL    HW180991   5.914   2.431  13.026
59698SOL    HW280992   6.014   2.541  13.057
59699SOL     OW80993   1.067  11.427   0.345
59699SOL    HW180994   1.066  11.515   0.305
59699SOL    HW280995   1.160  11.407   0.355
59700SOL     OW80996   1.237   0.974   0.034
59700SOL    HW180997   1.182   0.943   0.106
59700SOL    HW280998   1.209   0.922  14.841
59701SOL     OW80999   2.358   1.094   1.914
59701SOL    HW181000   2.376   1.177   1.870
59701SOL    HW281001   2.298   1.048   1.854
59702SOL     OW81002  14.412  12.906  10.683
59702SOL    HW181003  14.428  12.983  10.630
59702SOL    HW281004  14.407  12.834  10.620
59703SOL     OW81005   5.260   2.841  14.680
59703SOL    HW181006   5.204   2.789  14.737
59703SOL    HW281007   5.205   2.915  14.653
59704SOL     OW81008   8.643  10.408   1.753
59704SOL    HW181009   8.683  10.424   1.838
59704SOL    HW281010   8.555  10.378   1.772
59705SOL     OW81011  12.422   8.987  13.486
59705SOL    HW181012  12.341   9.030  13.512
59705SOL    HW281013  12.425   8.996  13.391
59706SOL     OW81014   2.961  14.635  13.884
59706SOL    HW181015   3.033  14.577  13.907
59706SOL    HW281016   2.960  14.635  13.789
59707SOL     OW81017  11.141   2.524   7.139
59707SOL    HW181018  11.232   2.495   7.145
59707SOL    HW281019  11.111   2.491   7.054
59708SOL     OW81020   2.646   4.884   8.552
59708SOL    HW181021   2.688   4.862   8.635
59708SOL    HW281022   2.674   4.974   8.534
59709SOL     OW81023  11.742   5.793   0.917
59709SOL    HW181024  11.750   5.712   0.968
59709SOL    HW281025  11.819   5.845   0.941
59710SOL     OW81026   5.960   7.498  14.057
59710SOL    HW181027   6.009   7.550  13.994
59710SOL    HW281028   5.983   7.536  14.142
59711SOL     OW81029   0.390   6.154   5.940
59711SOL    HW181030   0.353   6.094   6.005
59711SOL    HW281031   0.340   6.235   5.950
59712SOL     OW81032   6.853  14.414  12.285
59712SOL    HW181033   6.934  14.370  12.257
59712SOL    HW281034   6.831  14.471  12.211
59713SOL     OW81035  13.604   7.479   7.777
59713SOL    HW181036  13.588   7.528   7.696
59713SOL    HW281037  13.528   7.421   7.785
59714SOL     OW81038  10.874  13.368  10.255
59714SOL    HW181039  10.945  13.415  10.212
59714SOL    HW281040  10.799  13.427  10.249
59715SOL     OW81041   2.754   7.416  13.432
59715SOL    HW181042   2.826   7.368  13.475
59715SOL    HW281043   2.684   7.417  13.498
59716SOL     OW81044   6.564   8.363   1.559
59716SOL    HW181045   6.526   8.347   1.646
59716SOL    HW281046   6.544   8.284   1.509
59717SOL     OW81047   2.779   5.608   2.451
59717SOL    HW181048   2.766   5.522   2.489
59717SOL    HW281049   2.690   5.643   2.442
59718SOL     OW81050   3.609  12.636  12.784
59718SOL    HW181051   3.701  12.634  12.759
59718SOL    HW281052   3.563  12.662  12.705
59719SOL     OW81053  13.790  12.682  11.037
59719SOL    HW181054  13.836  12.761  11.011
59719SOL    HW281055  13.859  12.625  11.072
59720SOL     OW81056  10.425   4.642   6.278
59720SOL    HW181057  10.411   4.639   6.183
59720SOL    HW281058  10.520   4.643   6.288
59721SOL     OW81059   8.042   2.405  13.040
59721SOL    HW181060   8.125   2.359  13.024
59721SOL    HW281061   8.040   2.419  13.134
59722SOL     OW81062  14.425   1.526   1.806
59722SOL    HW181063  14.369   1.561   1.876
59722SOL    HW281064  14.470   1.602   1.771
59723SOL     OW81065   0.386   3.497   0.381
59723SOL    HW181066   0.472   3.489   0.340
59723SOL    HW281067   0.353   3.582   0.352
59724SOL     OW81068  14.603   4.856  14.872
59724SOL    HW181069  14.649   4.774   0.008
59724SOL    HW281070  14.511   4.832  14.871
59725SOL     OW81071   4.932  10.658  12.087
59725SOL    HW181072   4.863  10.639  12.150
59725SOL    HW281073   4.996  10.588  12.100
59726SOL     OW81074  11.127  14.359   4.431
59726SOL    HW181075  11.046  14.405   4.453
59726SOL    HW281076  11.166  14.411   4.360
59727SOL     OW81077   4.349   9.271   9.691
59727SOL    HW181078   4.256   9.248   9.688
59727SOL    HW281079   4.353   9.345   9.752
59728SOL     OW81080  10.574   4.040  11.786
59728SOL    HW181081  10.506   3.977  11.761
59728SOL    HW281082  10.647   4.020  11.727
59729SOL     OW81083   1.772   0.076   5.724
59729SOL    HW181084   1.851   0.110   5.682
59729SOL    HW281085   1.709   0.148   5.719
59730SOL     OW81086   1.653   3.701   1.128
59730SOL    HW181087   1.709   3.713   1.052
59730SOL    HW281088   1.642   3.790   1.164
59731SOL     OW81089   5.363  13.864  13.056
59731SOL    HW181090   5.379  13.772  13.034
59731SOL    HW281091   5.431  13.912  13.009
59732SOL     OW81092  12.115   4.215   3.270
59732SOL    HW181093  12.025   4.217   3.240
59732SOL    HW281094  12.147   4.128   3.246
59733SOL     OW81095  12.973   3.704   2.897
59733SOL    HW181096  12.928   3.681   2.816
59733SOL    HW281097  13.059   3.662   2.890
59734SOL     OW81098   2.129  12.946   5.375
59734SOL    HW181099   2.171  12.896   5.306
59734SOL    HW281100   2.121  12.884   5.448
59735SOL     OW81101  14.823   8.989   1.956
59735SOL    HW181102  14.880   9.066   1.950
59735SOL    HW281103  14.876   8.917   1.921
59736SOL     OW81104   4.527  11.499  14.701
59736SOL    HW181105   4.512  11.477  14.608
59736SOL    HW281106   4.589  11.571  14.699
59737SOL     OW81107  12.401   0.718   2.011
59737SOL    HW181108  12.365   0.806   2.025
59737SOL    HW281109  12.486   0.720   2.055
59738SOL     OW81110   8.107  11.983  14.804
59738SOL    HW181111   8.105  12.000  14.710
59738SOL    HW281112   8.032  11.926  14.820
59739SOL     OW81113   4.369   7.403  12.047
59739SOL    HW181114   4.309   7.406  11.972
59739SOL    HW281115   4.436   7.468  12.025
59740SOL     OW81116  12.767  13.546   8.029
59740SOL    HW181117  12.761  13.632   8.070
59740SOL    HW281118  12.849  13.549   7.979
59741SOL     OW81119   7.540   3.613   5.168
59741SOL    HW181120   7.568   3.534   5.213
59741SOL    HW281121   7.618   3.643   5.121
59742SOL     OW81122   1.593   6.508   2.768
59742SOL    HW181123   1.583   6.597   2.804
59742SOL    HW281124   1.611   6.454   2.845
59743SOL     OW81125   2.172   0.547  11.038
59743SOL    HW181126   2.142   0.537  11.128
59743SOL    HW281127   2.093   0.566  10.988
59744SOL     OW81128  10.497   8.458  13.256
59744SOL    HW181129  10.508   8.480  13.164
59744SOL    HW281130  10.456   8.535  13.295
59745SOL     OW81131   7.409   5.998   3.142
59745SOL    HW181132   7.433   6.087   3.116
59745SOL    HW281133   7.446   5.943   3.074
59746SOL     OW81134   6.946   1.699  11.164
59746SOL    HW181135   7.031   1.734  11.137
59746SOL    HW281136   6.905   1.772  11.211
59747SOL     OW81137   0.376  13.801  13.474
59747SOL    HW181138   0.452  13.759  13.433
59747SOL    HW281139   0.303  13.778  13.417
59748SOL     OW81140  14.664   4.095   2.513
59748SOL    HW181141  14.689   4.025   2.452
59748SOL    HW281142  14.746   4.125   2.551
59749SOL     OW81143  13.325   5.266   7.907
59749SOL    HW181144  13.284   5.353   7.910
59749SOL    HW281145  13.414   5.280   7.939
59750SOL     OW81146   3.578   1.130   5.334
59750SOL    HW181147   3.632   1.082   5.272
59750SOL    HW281148   3.637   1.194   5.374
59751SOL     OW81149   4.872   0.083   9.383
59751SOL    HW181150   4.829   0.167   9.368
59751SOL    HW281151   4.861   0.066   9.476
59752SOL     OW81152  12.143  11.623   5.956
59752SOL    HW181153  12.067  11.622   5.898
59752SOL    HW281154  12.132  11.545   6.011
59753SOL     OW81155  11.422  10.802  11.745
59753SOL    HW181156  11.360  10.799  11.672
59753SOL    HW281157  11.501  10.759  11.711
59754SOL     OW81158   2.940  10.617  14.177
59754SOL    HW181159   2.867  10.582  14.229
59754SOL    HW281160   2.974  10.689  14.229
59755SOL     OW81161   2.707   7.858   9.816
59755SOL    HW181162   2.613   7.846   9.805
59755SOL    HW281163   2.746   7.783   9.769
59756SOL     OW81164   3.969  11.411   7.163
59756SOL    HW181165   3.938  11.463   7.089
59756SOL    HW281166   3.902  11.343   7.174
59757SOL     OW81167   8.187   8.491   7.227
59757SOL    HW181168   8.180   8.493   7.132
59757SOL    HW281169   8.182   8.583   7.253
59758SOL     OW81170  10.464   2.011   9.890
59758SOL    HW181171  10.499   1.990   9.977
59758SOL    HW281172  10.542   2.020   9.835
59759SOL     OW81173  10.226   9.409   5.303
59759SOL    HW181174  10.239   9.434   5.394
59759SOL    HW281175  10.239   9.314   5.302
59760SOL     OW81176  14.874   7.002  14.504
59760SOL    HW181177  14.837   7.058  14.436
59760SOL    HW281178   0.009   7.060  14.577
59761SOL     OW81179   0.087   7.992   3.978
59761SOL    HW181180   0.117   7.960   4.063
59761SOL    HW281181  14.875   8.005   3.989
59762SOL     OW81182   6.042   6.798   3.490
59762SOL    HW181183   6.026   6.787   3.584
59762SOL    HW281184   5.964   6.843   3.457
59763SOL     OW81185   6.649  14.566  11.248
59763SOL    HW181186   6.705  14.490  11.264
59763SOL    HW281187   6.576  14.531  11.197
59764SOL     OW81188   4.525   3.651   3.184
59764SOL    HW181189   4.524   3.598   3.104
59764SOL    HW281190   4.440   3.635   3.224
59765SOL     OW81191   2.578   2.769   3.454
59765SOL    HW181192   2.580   2.792   3.362
59765SOL    HW281193   2.650   2.707   3.465
59766SOL     OW81194   6.243   5.154  11.288
59766SOL    HW181195   6.211   5.074  11.329
59766SOL    HW281196   6.331   5.165  11.323
59767SOL     OW81197   2.143   8.730  12.367
59767SOL    HW181198   2.162   8.660  12.429
59767SOL    HW281199   2.228   8.757  12.333
59768SOL     OW81200  12.560   7.576   5.437
59768SOL    HW181201  12.616   7.616   5.370
59768SOL    HW281202  12.577   7.626   5.516
59769SOL     OW81203  14.423  11.962   6.114
59769SOL    HW181204  14.450  12.009   6.193
59769SOL    HW281205  14.352  11.905   6.143
59770SOL     OW81206   7.025   9.510   7.481
59770SOL    HW181207   7.069   9.437   7.438
59770SOL    HW281208   6.941   9.474   7.510
59771SOL     OW81209   6.799  10.730  10.787
59771SOL    HW181210   6.755  10.756  10.706
59771SOL    HW281211   6.885  10.699  10.758
59772SOL     OW81212   4.217   5.158   0.416
59772SOL    HW181213   4.180   5.135   0.502
59772SOL    HW281214   4.276   5.086   0.396
59773SOL     OW81215   8.425   0.067   3.607
59773SOL    HW181216   8.491   0.019   3.658
59773SOL    HW281217   8.343   0.050   3.653
59774SOL     OW81218   3.453   7.367   2.585
59774SOL    HW181219   3.538   7.408   2.567
59774SOL    HW281220   3.446   7.368   2.681
59775SOL     OW81221   7.929  14.350  11.447
59775SOL    HW181222   7.904  14.435  11.483
59775SOL    HW281223   7.846  14.302  11.440
59776SOL     OW81224   2.996  14.539   7.433
59776SOL    HW181225   2.960  14.494   7.510
59776SOL    HW281226   2.949  14.500   7.359
59777SOL     OW81227   6.824   1.732   7.732
59777SOL    HW181228   6.814   1.770   7.819
59777SOL    HW281229   6.843   1.806   7.675
59778SOL     OW81230   1.290   4.208  12.682
59778SOL    HW181231   1.239   4.186  12.760
59778SOL    HW281232   1.246   4.160  12.611
59779SOL     OW81233   1.784   2.096  13.694
59779SOL    HW181234   1.799   2.004  13.717
59779SOL    HW281235   1.867   2.126  13.658
59780SOL     OW81236   6.192  12.764  12.075
59780SOL    HW181237   6.234  12.777  11.990
59780SOL    HW281238   6.190  12.851  12.115
59781SOL     OW81239  10.436  13.263   2.651
59781SOL    HW181240  10.509  13.325   2.645
59781SOL    HW281241  10.404  13.272   2.741
59782SOL     OW81242   1.195   9.449   7.748
59782SOL    HW181243   1.245   9.527   7.724
59782SOL    HW281244   1.257   9.393   7.795
59783SOL     OW81245   7.598  14.554   0.151
59783SOL    HW181246   7.674  14.499   0.170
59783SOL    HW281247   7.635  14.634   0.114
59784SOL     OW81248  13.412   2.804   2.704
59784SOL    HW181249  13.393   2.743   2.775
59784SOL    HW281250  13.327   2.823   2.665
59785SOL     OW81251   6.199   9.696  12.573
59785SOL    HW181252   6.164   9.754  12.506
59785SOL    HW281253   6.205   9.751  12.652
59786SOL     OW81254  12.184   3.942   8.673
59786SOL    HW181255  12.089   3.947   8.677
59786SOL    HW281256  12.210   3.910   8.759
59787SOL     OW81257   8.635  14.878   7.327
59787SOL    HW181258   8.580  14.818   7.277
59787SOL    HW281259   8.583   0.019   7.404
59788SOL     OW81260   3.890  13.167   0.666
59788SOL    HW181261   3.874  13.255   0.634
59788SOL    HW281262   3.822  13.114   0.624
59789SOL     OW81263  14.079  10.108  10.472
59789SOL    HW181264  14.065  10.022  10.511
59789SOL    HW281265  14.173  10.123  10.479
59790SOL     OW81266  14.651  11.246   9.582
59790SOL    HW181267  14.653  11.337   9.552
59790SOL    HW281268  14.591  11.202   9.522
59791SOL     OW81269   8.540   9.176  14.496
59791SOL    HW181270   8.588   9.218  14.424
59791SOL    HW281271   8.549   9.082  14.478
59792SOL     OW81272  10.427   5.873   8.031
59792SOL    HW181273  10.478   5.863   8.112
59792SOL    HW281274  10.430   5.787   7.990
59793SOL     OW81275   8.284   2.319   0.665
59793SOL    HW181276   8.198   2.276   0.669
59793SOL    HW281277   8.326   2.281   0.587
59794SOL     OW81278   6.028   0.864   6.175
59794SOL    HW181279   6.053   0.859   6.268
59794SOL    HW281280   5.949   0.810   6.169
59795SOL     OW81281  11.699   9.339   3.851
59795SOL    HW181282  11.696   9.346   3.947
59795SOL    HW281283  11.608   9.356   3.824
59796SOL     OW81284  10.364   4.431  14.507
59796SOL    HW181285  10.269   4.443  14.505
59796SOL    HW281286  10.377   4.339  14.482
59797SOL     OW81287  10.203  14.408   6.265
59797SOL    HW181288  10.186  14.472   6.197
59797SOL    HW281289  10.194  14.323   6.221
59798SOL     OW81290   7.925   4.279   3.933
59798SOL    HW181291   7.870   4.248   3.861
59798SOL    HW281292   7.908   4.373   3.938
59799SOL     OW81293   1.113   6.128  10.172
59799SOL    HW181294   1.121   6.218  10.142
59799SOL    HW281295   1.201   6.104  10.200
59800SOL     OW81296   1.209   8.096   9.823
59800SOL    HW181297   1.174   8.177   9.859
59800SOL    HW281298   1.304   8.111   9.819
59801SOL     OW81299   7.614   5.718  13.452
59801SOL    HW181300   7.566   5.656  13.396
59801SOL    HW281301   7.603   5.802  13.408
59802SOL     OW81302   2.771  12.672  11.751
59802SOL    HW181303   2.862  12.645  11.743
59802SOL    HW281304   2.730  12.644  11.669
59803SOL     OW81305  10.942   8.367   4.806
59803SOL    HW181306  10.851   8.349   4.783
59803SOL    HW281307  10.982   8.280   4.816
59804SOL     OW81308  12.915   5.353  14.169
59804SOL    HW181309  12.889   5.264  14.189
59804SOL    HW281310  12.948   5.350  14.079
59805SOL     OW81311   8.997  10.780  13.600
59805SOL    HW181312   9.040  10.831  13.532
59805SOL    HW281313   9.017  10.689  13.579
59806SOL     OW81314   4.475   9.607   9.476
59806SOL    HW181315   4.383   9.603   9.503
59806SOL    HW281316   4.524   9.571   9.550
59807SOL     OW81317  11.214  10.179   1.747
59807SOL    HW181318  11.210  10.215   1.836
59807SOL    HW281319  11.124  10.183   1.715
59808SOL     OW81320   6.724   9.788   0.665
59808SOL    HW181321   6.679   9.704   0.677
59808SOL    HW281322   6.809   9.776   0.706
59809SOL     OW81323   0.992   1.184   2.343
59809SOL    HW181324   0.927   1.197   2.274
59809SOL    HW281325   0.995   1.089   2.356
59810SOL     OW81326   6.097  13.674   7.148
59810SOL    HW181327   6.094  13.653   7.055
59810SOL    HW281328   6.170  13.622   7.182
59811SOL     OW81329   8.585   5.573   5.510
59811SOL    HW181330   8.538   5.498   5.475
59811SOL    HW281331   8.629   5.611   5.433
59812SOL     OW81332   3.908   5.570  11.832
59812SOL    HW181333   3.939   5.657  11.807
59812SOL    HW281334   3.915   5.518  11.752
59813SOL     OW81335   9.480   9.574   3.341
59813SOL    HW181336   9.527   9.549   3.421
59813SOL    HW281337   9.464   9.491   3.295
59814SOL     OW81338   7.214   3.571  13.229
59814SOL    HW181339   7.214   3.539  13.138
59814SOL    HW281340   7.307   3.576  13.252
59815SOL     OW81341  12.347  12.887  13.771
59815SOL    HW181342  12.349  12.842  13.686
59815SOL    HW281343  12.398  12.832  13.829
59816SOL     OW81344   2.966   8.693   9.803
59816SOL    HW181345   2.939   8.759   9.867
59816SOL    HW281346   2.956   8.610   9.850
59817SOL     OW81347   3.786   8.315   6.740
59817SOL    HW181348   3.802   8.268   6.658
59817SOL    HW281349   3.690   8.324   6.744
59818SOL     OW81350   6.796  12.077   0.857
59818SOL    HW181351   6.851  12.004   0.887
59818SOL    HW281352   6.727  12.035   0.805
59819SOL     OW81353  13.150   8.641   8.096
59819SOL    HW181354  13.067   8.688   8.088
59819SOL    HW281355  13.135   8.578   8.167
59820SOL     OW81356   4.893   9.977   8.348
59820SOL    HW181357   4.950   9.931   8.410
59820SOL    HW281358   4.843  10.038   8.402
59821SOL     OW81359   4.057   8.444   4.192
59821SOL    HW181360   4.011   8.374   4.238
59821SOL    HW281361   4.044   8.424   4.099
59822SOL     OW81362   6.365   6.146  13.426
59822SOL    HW181363   6.403   6.226  13.390
59822SOL    HW281364   6.366   6.160  13.521
59823SOL     OW81365   5.674   1.154  12.865
59823SOL    HW181366   5.727   1.135  12.943
59823SOL    HW281367   5.633   1.071  12.844
59824SOL     OW81368  13.335   0.304  11.426
59824SOL    HW181369  13.278   0.380  11.434
59824SOL    HW281370  13.287   0.233  11.469
59825SOL     OW81371   7.785   4.151   1.571
59825SOL    HW181372   7.749   4.230   1.612
59825SOL    HW281373   7.748   4.079   1.622
59826SOL     OW81374   2.600   3.793   4.192
59826SOL    HW181375   2.506   3.804   4.178
59826SOL    HW281376   2.632   3.759   4.109
59827SOL     OW81377   3.293  14.499   9.757
59827SOL    HW181378   3.368  14.541   9.716
59827SOL    HW281379   3.328  14.418   9.794
59828SOL     OW81380   1.163   6.598  12.086
59828SOL    HW181381   1.130   6.532  12.025
59828SOL    HW281382   1.253   6.572  12.104
59829SOL     OW81383  12.199   0.345   7.938
59829SOL    HW181384  12.267   0.356   8.005
59829SOL    HW281385  12.142   0.421   7.949
59830SOL     OW81386   9.909   8.274   1.540
59830SOL    HW181387   9.892   8.328   1.462
59830SOL    HW281388   9.985   8.222   1.516
59831SOL     OW81389  13.887  14.092   8.922
59831SOL    HW181390  13.818  14.154   8.899
59831SOL    HW281391  13.845  14.031   8.982
59832SOL     OW81392  12.794  13.298  11.835
59832SOL    HW181393  12.844  13.233  11.883
59832SOL    HW281394  12.852  13.374  11.831
59833SOL     OW81395   8.341   2.595  11.200
59833SOL    HW181396   8.257   2.588  11.246
59833SOL    HW281397   8.324   2.657  11.129
59834SOL     OW81398   4.488  11.048   5.598
59834SOL    HW181399   4.464  11.126   5.648
59834SOL    HW281400   4.573  11.023   5.632
59835SOL     OW81401   2.589   5.937   8.712
59835SOL    HW181402   2.608   5.998   8.640
59835SOL    HW281403   2.595   5.850   8.672
59836SOL     OW81404   6.624   8.543  13.545
59836SOL    HW181405   6.624   8.448  13.531
59836SOL    HW281406   6.715   8.569  13.528
59837SOL     OW81407  12.997  14.001   3.548
59837SOL    HW181408  13.044  13.974   3.470
59837SOL    HW281409  12.951  13.922   3.577
59838SOL     OW81410   5.091   9.718   8.829
59838SOL    HW181411   5.008   9.727   8.782
59838SOL    HW281412   5.114   9.626   8.819
59839SOL     OW81413   6.060   1.095   0.572
59839SOL    HW181414   6.145   1.067   0.604
59839SOL    HW281415   6.057   1.189   0.591
59840SOL     OW81416   9.607  13.873   3.068
59840SOL    HW181417   9.582  13.894   3.158
59840SOL    HW281418   9.525  13.852   3.024
59841SOL     OW81419   9.989   3.049   5.272
59841SOL    HW181420   9.965   2.971   5.323
59841SOL    HW281421  10.008   3.115   5.338
59842SOL     OW81422   6.725   2.983   9.669
59842SOL    HW181423   6.669   3.028   9.606
59842SOL    HW281424   6.674   2.907   9.696
59843SOL     OW81425  14.218  13.323   6.731
59843SOL    HW181426  14.137  13.285   6.766
59843SOL    HW281427  14.208  13.318   6.636
59844SOL     OW81428   1.562   5.188   8.960
59844SOL    HW181429   1.616   5.165   8.884
59844SOL    HW281430   1.614   5.159   9.035
59845SOL     OW81431   6.450   0.193   9.055
59845SOL    HW181432   6.496   0.110   9.068
59845SOL    HW281433   6.359   0.173   9.074
59846SOL     OW81434  11.738   5.373  11.280
59846SOL    HW181435  11.690   5.406  11.356
59846SOL    HW281436  11.707   5.283  11.270
59847SOL     OW81437   4.041   0.907   4.473
59847SOL    HW181438   3.970   0.968   4.495
59847SOL    HW281439   3.996   0.829   4.442
59848SOL     OW81440  13.436  13.549   0.320
59848SOL    HW181441  13.498  13.475   0.324
59848SOL    HW281442  13.444  13.582   0.231
59849SOL     OW81443   5.006  10.084  11.849
59849SOL    HW181444   5.046  10.172  11.846
59849SOL    HW281445   4.930  10.094  11.905
59850SOL     OW81446   0.434   0.037   5.142
59850SOL    HW181447   0.439   0.108   5.077
59850SOL    HW281448   0.443  14.839   5.090
59851SOL     OW81449   9.451  13.964   2.183
59851SOL    HW181450   9.431  13.902   2.113
59851SOL    HW281451   9.466  13.909   2.260
59852SOL     OW81452   3.263   8.952   9.523
59852SOL    HW181453   3.322   8.944   9.449
59852SOL    HW281454   3.196   9.014   9.494
59853SOL     OW81455   4.414   2.706   9.181
59853SOL    HW181456   4.476   2.774   9.154
59853SOL    HW281457   4.461   2.624   9.166
59854SOL     OW81458   4.332   2.327  11.791
59854SOL    HW181459   4.248   2.289  11.768
59854SOL    HW281460   4.350   2.390  11.721
59855SOL     OW81461  11.541  10.771   0.456
59855SOL    HW181462  11.602  10.724   0.512
59855SOL    HW281463  11.490  10.826   0.516
59856SOL     OW81464  14.314   2.924  10.058
59856SOL    HW181465  14.299   2.938   9.964
59856SOL    HW281466  14.260   2.848  10.080
59857SOL     OW81467  14.770   5.035   3.077
59857SOL    HW181468  14.723   4.993   3.005
59857SOL    HW281469  14.850   5.068   3.038
59858SOL     OW81470   7.289  13.524   9.602
59858SOL    HW181471   7.293  13.554   9.511
59858SOL    HW281472   7.195  13.518   9.621
59859SOL     OW81473   3.248  11.841   1.598
59859SOL    HW181474   3.273  11.902   1.528
59859SOL    HW281475   3.331  11.817   1.639
59860SOL     OW81476   0.258   2.049   6.729
59860SOL    HW181477   0.163   2.064   6.732
59860SOL    HW281478   0.266   1.955   6.710
59861SOL     OW81479   6.179   9.265  10.458
59861SOL    HW181480   6.241   9.206  10.414
59861SOL    HW281481   6.220   9.351  10.452
59862SOL     OW81482   3.260   3.908   3.137
59862SOL    HW181483   3.211   3.989   3.127
59862SOL    HW281484   3.193   3.842   3.159
59863SOL     OW81485   9.153   1.320  14.529
59863SOL    HW181486   9.162   1.272  14.612
59863SOL    HW281487   9.235   1.369  14.520
59864SOL     OW81488  12.899  13.732   0.610
59864SOL    HW181489  12.906  13.823   0.580
59864SOL    HW281490  12.984  13.713   0.649
59865SOL     OW81491   5.139   6.515   1.731
59865SOL    HW181492   5.090   6.438   1.703
59865SOL    HW281493   5.227   6.501   1.696
59866SOL     OW81494   0.811   4.812   8.971
59866SOL    HW181495   0.776   4.731   9.007
59866SOL    HW281496   0.779   4.814   8.881
59867SOL     OW81497  13.574   2.556  11.339
59867SOL    HW181498  13.659   2.600  11.329
59867SOL    HW281499  13.514   2.609  11.287
59868SOL     OW81500  14.645   6.250   6.386
59868SOL    HW181501  14.686   6.169   6.418
59868SOL    HW281502  14.552   6.238   6.402
59869SOL     OW81503   5.746  14.726   3.059
59869SOL    HW181504   5.747  14.820   3.078
59869SOL    HW281505   5.838  14.701   3.057
59870SOL     OW81506   2.940  11.605   6.583
59870SOL    HW181507   2.867  11.544   6.575
59870SOL    HW281508   3.000  11.562   6.645
59871SOL     OW81509   4.513   6.673  11.391
59871SOL    HW181510   4.588   6.644  11.340
59871SOL    HW281511   4.535   6.762  11.419
59872SOL     OW81512   6.108  10.237  13.671
59872SOL    HW181513   6.135  10.260  13.583
59872SOL    HW281514   6.122  10.316  13.723
59873SOL     OW81515   4.438   1.524   6.802
59873SOL    HW181516   4.410   1.597   6.856
59873SOL    HW281517   4.483   1.465   6.863
59874SOL     OW81518  13.523   7.523  14.793
59874SOL    HW181519  13.438   7.487  14.819
59874SOL    HW281520  13.502   7.580  14.718
59875SOL     OW81521   0.916   0.810   3.560
59875SOL    HW181522   0.958   0.725   3.545
59875SOL    HW281523   0.825   0.788   3.583
59876SOL     OW81524  12.108   7.816   1.806
59876SOL    HW181525  12.175   7.773   1.754
59876SOL    HW281526  12.141   7.813   1.896
59877SOL     OW81527  11.009   3.157  13.077
59877SOL    HW181528  10.973   3.084  13.027
59877SOL    HW281529  11.069   3.200  13.017
59878SOL     OW81530   7.191   8.130  11.594
59878SOL    HW181531   7.251   8.204  11.587
59878SOL    HW281532   7.211   8.076  11.517
59879SOL     OW81533   3.579   6.802   4.797
59879SOL    HW181534   3.659   6.755   4.822
59879SOL    HW281535   3.599   6.838   4.710
59880SOL     OW81536   0.949   2.886  14.754
59880SOL    HW181537   1.012   2.945  14.795
59880SOL    HW281538   0.869   2.939  14.744
59881SOL     OW81539   1.348   5.498   8.017
59881SOL    HW181540   1.363   5.565   7.949
59881SOL    HW281541   1.369   5.542   8.099
59882SOL     OW81542  13.405  11.456   6.952
59882SOL    HW181543  13.498  11.460   6.931
59882SOL    HW281544  13.370  11.538   6.918
59883SOL     OW81545  14.079   1.409   4.352
59883SOL    HW181546  14.016   1.338   4.357
59883SOL    HW281547  14.066   1.447   4.265
59884SOL     OW81548  13.566   4.239   2.975
59884SOL    HW181549  13.519   4.302   3.030
59884SOL    HW281550  13.524   4.246   2.889
59885SOL     OW81551  14.447   3.365  14.391
59885SOL    HW181552  14.439   3.452  14.352
59885SOL    HW281553  14.513   3.376  14.460
59886SOL     OW81554  12.424  10.331   4.150
59886SOL    HW181555  12.330  10.343   4.163
59886SOL    HW281556  12.442  10.242   4.178
59887SOL     OW81557  12.705   8.639   3.137
59887SOL    HW181558  12.756   8.674   3.209
59887SOL    HW281559  12.666   8.716   3.095
59888SOL     OW81560   5.753  12.710  10.152
59888SOL    HW181561   5.767  12.643  10.219
59888SOL    HW281562   5.831  12.706  10.097
59889SOL     OW81563  10.743   8.684   0.730
59889SOL    HW181564  10.654   8.654   0.747
59889SOL    HW281565  10.791   8.662   0.809
59890SOL     OW81566   5.231  10.795   9.172
59890SOL    HW181567   5.237  10.789   9.077
59890SOL    HW281568   5.138  10.783   9.192
59891SOL     OW81569   8.259  12.929  13.913
59891SOL    HW181570   8.322  12.981  13.863
59891SOL    HW281571   8.186  12.915  13.852
59892SOL     OW81572  13.337   4.863   5.008
59892SOL    HW181573  13.393   4.787   4.994
59892SOL    HW281574  13.261   4.848   4.952
59893SOL     OW81575   1.565  11.092   0.579
59893SOL    HW181576   1.485  11.111   0.530
59893SOL    HW281577   1.572  10.997   0.578
59894SOL     OW81578  11.220   7.760   0.500
59894SOL    HW181579  11.168   7.789   0.425
59894SOL    HW281580  11.168   7.691   0.540
59895SOL     OW81581   4.183   5.027  13.082
59895SOL    HW181582   4.134   4.967  13.025
59895SOL    HW281583   4.275   5.009  13.061
59896SOL     OW81584   0.880   8.601   7.540
59896SOL    HW181585   0.871   8.518   7.586
59896SOL    HW281586   0.915   8.578   7.454
59897SOL     OW81587   0.408  10.902   9.462
59897SOL    HW181588   0.477  10.965   9.484
59897SOL    HW281589   0.382  10.864   9.546
59898SOL     OW81590   3.375   3.273   6.440
59898SOL    HW181591   3.440   3.316   6.385
59898SOL    HW281592   3.335   3.208   6.383
59899SOL     OW81593   0.277  10.782  13.210
59899SOL    HW181594   0.317  10.794  13.296
59899SOL    HW281595   0.247  10.870  13.185
59900SOL     OW81596   5.116   2.186  11.612
59900SOL    HW181597   5.071   2.104  11.590
59900SOL    HW281598   5.170   2.165  11.688
59901SOL     OW81599  13.397   4.444  14.398
59901SOL    HW181600  13.478   4.410  14.437
59901SOL    HW281601  13.422   4.529  14.361
59902SOL     OW81602   0.521   6.568   9.623
59902SOL    HW181603   0.519   6.653   9.579
59902SOL    HW281604   0.558   6.587   9.710
59903SOL     OW81605   5.462   0.907   7.136
59903SOL    HW181606   5.444   0.916   7.229
59903SOL    HW281607   5.378   0.887   7.096
59904SOL     OW81608  11.492   2.091   5.943
59904SOL    HW181609  11.577   2.108   5.903
59904SOL    HW281610  11.440   2.048   5.875
59905SOL     OW81611   3.284   6.137  14.341
59905SOL    HW181612   3.376   6.146  14.364
59905SOL    HW281613   3.274   6.045  14.318
59906SOL     OW81614   7.606  11.768   5.794
59906SOL    HW181615   7.647  11.851   5.772
59906SOL    HW281616   7.589  11.774   5.888
59907SOL     OW81617   2.803   0.811  10.323
59907SOL    HW181618   2.716   0.788  10.291
59907SOL    HW281619   2.861   0.747  10.282
59908SOL     OW81620   7.224   5.099   7.791
59908SOL    HW181621   7.133   5.069   7.796
59908SOL    HW281622   7.275   5.029   7.831
59909SOL     OW81623   6.946  13.206   3.325
59909SOL    HW181624   6.917  13.288   3.365
59909SOL    HW281625   7.021  13.180   3.377
59910SOL     OW81626  13.469  14.768  11.518
59910SOL    HW181627  13.536  14.793  11.581
59910SOL    HW281628  13.424  14.694  11.559
59911SOL     OW81629  14.117   8.950  11.978
59911SOL    HW181630  14.080   8.862  11.971
59911SOL    HW281631  14.121   8.982  11.888
59912SOL     OW81632   5.482   8.426   2.197
59912SOL    HW181633   5.521   8.452   2.114
59912SOL    HW281634   5.389   8.448   2.188
59913SOL     OW81635   8.453  11.392   0.571
59913SOL    HW181636   8.396  11.361   0.501
59913SOL    HW281637   8.421  11.480   0.590
59914SOL     OW81638  11.866  10.206  14.135
59914SOL    HW181639  11.873  10.125  14.185
59914SOL    HW281640  11.866  10.275  14.201
59915SOL     OW81641  12.903   7.590  12.339
59915SOL    HW181642  12.985   7.584  12.289
59915SOL    HW281643  12.835   7.563  12.278
59916SOL     OW81644   7.492  14.602   9.625
59916SOL    HW181645   7.530  14.686   9.598
59916SOL    HW281646   7.554  14.537   9.593
59917SOL     OW81647   6.336   1.258  12.578
59917SOL    HW181648   6.296   1.239  12.492
59917SOL    HW281649   6.429   1.266  12.560
59918SOL     OW81650   6.158   5.753   5.567
59918SOL    HW181651   6.241   5.708   5.579
59918SOL    HW281652   6.108   5.734   5.646
59919SOL     OW81653  13.574   2.175   1.667
59919SOL    HW181654  13.529   2.119   1.604
59919SOL    HW281655  13.524   2.257   1.666
59920SOL     OW81656  13.177  10.285   0.025
59920SOL    HW181657  13.219  10.284   0.112
59920SOL    HW281658  13.118  10.210   0.027
59921SOL     OW81659   4.328  13.814  13.458
59921SOL    HW181660   4.347  13.780  13.545
59921SOL    HW281661   4.239  13.782  13.439
59922SOL     OW81662  10.603   7.593  14.759
59922SOL    HW181663  10.518   7.550  14.764
59922SOL    HW281664  10.666   7.524  14.782
59923SOL     OW81665  14.774   4.173   4.947
59923SOL    HW181666  14.689   4.130   4.960
59923SOL    HW281667  14.837   4.101   4.951
59924SOL     OW81668   2.144   1.474   6.109
59924SOL    HW181669   2.121   1.465   6.016
59924SOL    HW281670   2.185   1.561   6.115
59925SOL     OW81671   8.939   9.594   8.760
59925SOL    HW181672   8.944   9.500   8.745
59925SOL    HW281673   8.845   9.614   8.758
59926SOL     OW81674  10.124  12.616   9.279
59926SOL    HW181675  10.094  12.538   9.325
59926SOL    HW281676  10.161  12.583   9.197
59927SOL     OW81677   8.360   3.409   9.796
59927SOL    HW181678   8.432   3.381   9.740
59927SOL    HW281679   8.384   3.379   9.883
59928SOL     OW81680   4.878   3.575  14.087
59928SOL    HW181681   4.878   3.670  14.077
59928SOL    HW281682   4.817   3.544  14.020
59929SOL     OW81683   5.745  14.531   7.744
59929SOL    HW181684   5.773  14.576   7.824
59929SOL    HW281685   5.651  14.548   7.739
59930SOL     OW81686   1.481  12.850  11.025
59930SOL    HW181687   1.460  12.805  10.943
59930SOL    HW281688   1.577  12.856  11.025
59931SOL     OW81689   9.059   4.468   3.891
59931SOL    HW181690   9.039   4.559   3.910
59931SOL    HW281691   9.136   4.471   3.835
59932SOL     OW81692   9.513  10.097   1.199
59932SOL    HW181693   9.461  10.175   1.220
59932SOL    HW281694   9.460  10.024   1.231
59933SOL     OW81695  13.525   0.221  10.920
59933SOL    HW181696  13.527   0.219  11.015
59933SOL    HW281697  13.463   0.291  10.899
59934SOL     OW81698  14.479  10.273  11.289
59934SOL    HW181699  14.463  10.346  11.349
59934SOL    HW281700  14.449  10.306  11.204
59935SOL     OW81701  10.836  11.515   7.004
59935SOL    HW181702  10.825  11.421   6.989
59935SOL    HW281703  10.873  11.547   6.922
59936SOL     OW81704  10.742   9.062  11.023
59936SOL    HW181705  10.742   9.095  10.933
59936SOL    HW281706  10.650   9.044  11.041
59937SOL     OW81707  13.618  10.604  13.551
59937SOL    HW181708  13.708  10.599  13.518
59937SOL    HW281709  13.627  10.610  13.646
59938SOL     OW81710   9.288  12.968   5.428
59938SOL    HW181711   9.202  13.005   5.448
59938SOL    HW281712   9.284  12.947   5.335
59939SOL     OW81713   0.721  12.486   4.993
59939SOL    HW181714   0.744  12.565   5.042
59939SOL    HW281715   0.770  12.416   5.035
59940SOL     OW81716   6.530   4.120  10.527
59940SOL    HW181717   6.609   4.174  10.528
59940SOL    HW281718   6.551   4.047  10.468
59941SOL     OW81719   4.235   0.749  13.073
59941SOL    HW181720   4.247   0.657  13.049
59941SOL    HW281721   4.264   0.797  12.995
59942SOL     OW81722  10.326   8.658   0.602
59942SOL    HW181723  10.333   8.751   0.583
59942SOL    HW281724  10.400   8.618   0.556
59943SOL     OW81725   6.492  12.029   7.718
59943SOL    HW181726   6.424  12.022   7.651
59943SOL    HW281727   6.552  11.957   7.699
59944SOL     OW81728   2.688   2.805   5.322
59944SOL    HW181729   2.756   2.738   5.329
59944SOL    HW281730   2.689   2.849   5.407
59945SOL     OW81731  10.210   0.674   5.079
59945SOL    HW181732  10.218   0.708   4.990
59945SOL    HW281733  10.184   0.583   5.067
59946SOL     OW81734  11.792  14.733   2.040
59946SOL    HW181735  11.855  14.670   2.074
59946SOL    HW281736  11.809  14.813   2.090
59947SOL     OW81737   5.551   3.801  14.521
59947SOL    HW181738   5.528   3.822  14.611
59947SOL    HW281739   5.616   3.867  14.496
59948SOL     OW81740  12.460   6.605   3.235
59948SOL    HW181741  12.437   6.685   3.283
59948SOL    HW281742  12.406   6.608   3.156
59949SOL     OW81743   1.247   1.520   4.767
59949SOL    HW181744   1.226   1.451   4.830
59949SOL    HW281745   1.199   1.596   4.799
59950SOL     OW81746   5.927  14.275  11.686
59950SOL    HW181747   5.903  14.345  11.625
59950SOL    HW281748   6.003  14.309  11.733
59951SOL     OW81749   0.842  10.415   9.314
59951SOL    HW181750   0.929  10.454   9.304
59951SOL    HW281751   0.822  10.424   9.407
59952SOL     OW81752   1.410   9.751   7.550
59952SOL    HW181753   1.473   9.679   7.551
59952SOL    HW281754   1.365   9.745   7.634
59953SOL     OW81755   9.795   3.264  12.383
59953SOL    HW181756   9.842   3.229  12.308
59953SOL    HW281757   9.863   3.282  12.448
59954SOL     OW81758  13.905   1.495   6.288
59954SOL    HW181759  13.858   1.521   6.368
59954SOL    HW281760  13.853   1.533   6.217
59955SOL     OW81761   7.204   5.451   5.017
59955SOL    HW181762   7.297   5.454   5.042
59955SOL    HW281763   7.172   5.540   5.033
59956SOL     OW81764   4.174  14.091   4.205
59956SOL    HW181765   4.110  14.162   4.194
59956SOL    HW281766   4.196  14.092   4.298
59957SOL     OW81767   2.222  12.771  10.860
59957SOL    HW181768   2.211  12.858  10.821
59957SOL    HW281769   2.308  12.774  10.902
59958SOL     OW81770  14.291   5.446   6.115
59958SOL    HW181771  14.199   5.471   6.122
59958SOL    HW281772  14.314   5.458   6.023
59959SOL     OW81773  12.517   4.223  13.162
59959SOL    HW181774  12.558   4.309  13.162
59959SOL    HW281775  12.444   4.232  13.100
59960SOL     OW81776  10.090  11.057   0.202
59960SOL    HW181777  10.129  11.020   0.281
59960SOL    HW281778  10.014  11.106   0.234
59961SOL     OW81779  13.500   9.556  11.699
59961SOL    HW181780  13.440   9.580  11.628
59961SOL    HW281781  13.452   9.576  11.779
59962SOL     OW81782   0.476   8.379   5.583
59962SOL    HW181783   0.429   8.316   5.529
59962SOL    HW281784   0.429   8.378   5.667
59963SOL     OW81785   3.162  13.777   1.825
59963SOL    HW181786   3.087  13.723   1.799
59963SOL    HW281787   3.202  13.729   1.897
59964SOL     OW81788  11.124   1.923   4.851
59964SOL    HW181789  11.136   1.973   4.933
59964SOL    HW281790  11.114   1.990   4.784
59965SOL     OW81791   3.446   1.807  10.302
59965SOL    HW181792   3.488   1.792  10.387
59965SOL    HW281793   3.481   1.890  10.272
59966SOL     OW81794   3.248   6.770   9.467
59966SOL    HW181795   3.284   6.857   9.482
59966SOL    HW281796   3.228   6.768   9.373
59967SOL     OW81797   0.288  10.261   7.570
59967SOL    HW181798   0.372  10.306   7.563
59967SOL    HW281799   0.233  10.301   7.504
59968SOL     OW81800   7.511   4.949   6.958
59968SOL    HW181801   7.494   4.889   6.885
59968SOL    HW281802   7.473   5.032   6.931
59969SOL     OW81803  10.655  10.655  12.863
59969SOL    HW181804  10.560  10.664  12.856
59969SOL    HW281805  10.689  10.742  12.842
59970SOL     OW81806   1.403   7.993  10.533
59970SOL    HW181807   1.414   8.041  10.616
59970SOL    HW281808   1.462   7.918  10.541
59971SOL     OW81809   7.814  11.323  12.137
59971SOL    HW181810   7.796  11.397  12.195
59971SOL    HW281811   7.821  11.362  12.050
59972SOL     OW81812   1.970   3.754  13.436
59972SOL    HW181813   1.952   3.687  13.502
59972SOL    HW281814   1.979   3.706  13.354
59973SOL     OW81815   4.263   1.445   5.235
59973SOL    HW181816   4.289   1.461   5.325
59973SOL    HW281817   4.320   1.501   5.183
59974SOL     OW81818   4.418   7.893   8.332
59974SOL    HW181819   4.477   7.831   8.376
59974SOL    HW281820   4.400   7.853   8.247
59975SOL     OW81821  11.454  10.034   6.818
59975SOL    HW181822  11.548  10.025   6.809
59975SOL    HW281823  11.440  10.049   6.912
59976SOL     OW81824  10.935   5.959   7.540
59976SOL    HW181825  10.898   5.909   7.613
59976SOL    HW281826  10.907   6.049   7.557
59977SOL     OW81827   6.124   3.921  10.265
59977SOL    HW181828   6.054   3.875  10.220
59977SOL    HW281829   6.122   4.010  10.229
59978SOL     OW81830   7.001   6.194   0.590
59978SOL    HW181831   7.025   6.102   0.581
59978SOL    HW281832   6.912   6.199   0.555
59979SOL     OW81833  14.524   1.480   7.819
59979SOL    HW181834  14.558   1.567   7.801
59979SOL    HW281835  14.578   1.448   7.892
59980SOL     OW81836  12.262   6.303   9.731
59980SOL    HW181837  12.269   6.257   9.648
59980SOL    HW281838  12.170   6.293   9.757
59981SOL     OW81839   1.606   2.534   3.434
59981SOL    HW181840   1.560   2.616   3.413
59981SOL    HW281841   1.688   2.563   3.473
59982SOL     OW81842   9.351   3.393  12.703
59982SOL    HW181843   9.257   3.374  12.702
59982SOL    HW281844   9.374   3.392  12.796
59983SOL     OW81845   2.993   7.844   7.376
59983SOL    HW181846   2.998   7.920   7.318
59983SOL    HW281847   2.909   7.803   7.356
59984SOL     OW81848   4.712   9.243   9.890
59984SOL    HW181849   4.735   9.273   9.802
59984SOL    HW281850   4.796   9.216   9.928
59985SOL     OW81851  12.959   0.879  13.390
59985SOL    HW181852  12.926   0.957  13.436
59985SOL    HW281853  12.897   0.866  13.318
59986SOL     OW81854  14.737   8.099   4.416
59986SOL    HW181855  14.751   8.008   4.393
59986SOL    HW281856  14.651   8.120   4.378
59987SOL     OW81857   0.802   9.982   8.843
59987SOL    HW181858   0.860  10.048   8.805
59987SOL    HW281859   0.860   9.924   8.893
59988SOL     OW81860   4.063   8.098   0.805
59988SOL    HW181861   4.147   8.117   0.764
59988SOL    HW281862   4.049   8.005   0.788
59989SOL     OW81863  11.987   1.888   0.091
59989SOL    HW181864  11.982   1.931   0.177
59989SOL    HW281865  12.009   1.797   0.111
59990SOL     OW81866  14.558  14.118   1.483
59990SOL    HW181867  14.621  14.187   1.505
59990SOL    HW281868  14.483  14.133   1.541
59991SOL     OW81869   1.833   0.328   5.897
59991SOL    HW181870   1.770   0.333   5.826
59991SOL    HW281871   1.841   0.235   5.916
59992SOL     OW81872   3.161  11.443   0.532
59992SOL    HW181873   3.193  11.464   0.445
59992SOL    HW281874   3.231  11.391   0.572
59993SOL     OW81875  12.857   4.291  14.170
59993SOL    HW181876  12.821   4.377  14.146
59993SOL    HW281877  12.875   4.297  14.263
59994SOL     OW81878  10.107   3.946   0.918
59994SOL    HW181879  10.202   3.951   0.910
59994SOL    HW281880  10.089   3.968   1.009
59995SOL     OW81881   8.423   0.202   1.001
59995SOL    HW181882   8.399   0.119   0.960
59995SOL    HW281883   8.348   0.226   1.054
59996SOL     OW81884   3.339   9.293   8.173
59996SOL    HW181885   3.377   9.359   8.115
59996SOL    HW281886   3.415   9.254   8.218
59997SOL     OW81887   8.011   6.434  13.195
59997SOL    HW181888   7.960   6.457  13.273
59997SOL    HW281889   8.050   6.517  13.167
59998SOL     OW81890   9.358   2.196  12.686
59998SOL    HW181891   9.447   2.183  12.654
59998SOL    HW281892   9.351   2.291  12.699
59999SOL     OW81893   4.780   1.202   7.358
59999SOL    HW181894   4.860   1.160   7.326
59999SOL    HW281895   4.743   1.140   7.421
60000SOL     OW81896  14.298  13.819   5.365
60000SOL    HW181897  14.355  13.742   5.367
60000SOL    HW281898  14.259  13.818   5.277
60001SOL     OW81899   5.511   2.251  10.368
60001SOL    HW181900   5.460   2.329  10.346
60001SOL    HW281901   5.537   2.264  10.459
60002SOL     OW81902   6.389   8.293   6.326
60002SOL    HW181903   6.434   8.212   6.305
60002SOL    HW281904   6.343   8.316   6.246
60003SOL     OW81905  13.980   8.552   0.649
60003SOL    HW181906  13.921   8.606   0.701
60003SOL    HW281907  13.959   8.574   0.558
60004SOL     OW81908  10.625   1.688   0.633
60004SOL    HW181909  10.531   1.670   0.638
60004SOL    HW281910  10.663   1.605   0.604
60005SOL     OW81911   2.182   0.946   6.261
60005SOL    HW181912   2.213   0.976   6.176
60005SOL    HW281913   2.094   0.983   6.269
60006SOL     OW81914   2.637  10.269  14.406
60006SOL    HW181915   2.542  10.264  14.418
60006SOL    HW281916   2.657  10.197  14.346
60007SOL     OW81917  11.615  13.025   4.918
60007SOL    HW181918  11.546  12.986   4.972
60007SOL    HW281919  11.575  13.105   4.884
60008SOL     OW81920   0.801   8.345   6.725
60008SOL    HW181921   0.818   8.423   6.672
60008SOL    HW281922   0.858   8.278   6.687
60009SOL     OW81923   4.621   0.998   6.568
60009SOL    HW181924   4.661   1.012   6.653
60009SOL    HW281925   4.544   1.054   6.567
60010SOL     OW81926  12.276   2.740   7.063
60010SOL    HW181927  12.346   2.755   7.000
60010SOL    HW281928  12.196   2.743   7.011
60011SOL     OW81929   3.543  11.956   2.487
60011SOL    HW181930   3.549  11.908   2.569
60011SOL    HW281931   3.632  11.987   2.471
60012SOL     OW81932  13.707  13.417   9.224
60012SOL    HW181933  13.613  13.403   9.232
60012SOL    HW281934  13.726  13.400   9.132
60013SOL     OW81935   0.789  14.791   0.473
60013SOL    HW181936   0.835  14.800   0.556
60013SOL    HW281937   0.855  14.806   0.406
60014SOL     OW81938   4.031   0.611  10.839
60014SOL    HW181939   3.947   0.626  10.796
60014SOL    HW281940   4.072   0.541  10.789
60015SOL     OW81941   4.098   3.654  10.963
60015SOL    HW181942   4.153   3.699  10.898
60015SOL    HW281943   4.012   3.649  10.923
60016SOL     OW81944  12.250   7.061   0.890
60016SOL    HW181945  12.156   7.063   0.878
60016SOL    HW281946  12.263   7.057   0.985
60017SOL     OW81947   1.750  11.610   6.694
60017SOL    HW181948   1.738  11.515   6.697
60017SOL    HW281949   1.696  11.643   6.765
60018SOL     OW81950  11.291  14.436  13.651
60018SOL    HW181951  11.203  14.438  13.612
60018SOL    HW281952  11.295  14.517  13.703
60019SOL     OW81953  14.674   9.269  13.061
60019SOL    HW181954  14.718   9.190  13.092
60019SOL    HW281955  14.613   9.292  13.130
60020SOL     OW81956  14.488   1.772   2.277
60020SOL    HW181957  14.506   1.738   2.365
60020SOL    HW281958  14.399   1.806   2.282
60021SOL     OW81959   1.074  14.234  13.053
60021SOL    HW181960   1.022  14.154  13.045
60021SOL    HW281961   1.096  14.238  13.146
60022SOL     OW81962  11.887   2.178  14.862
60022SOL    HW181963  11.912   2.166  14.771
60022SOL    HW281964  11.969   2.202   0.024
60023SOL     OW81965  11.162  14.766   5.495
60023SOL    HW181966  11.169  14.707   5.420
60023SOL    HW281967  11.249  14.766   5.534
60024SOL     OW81968   3.161   1.904  13.850
60024SOL    HW181969   3.133   1.989  13.882
60024SOL    HW281970   3.150   1.845  13.925
60025SOL     OW81971   4.421  11.700   5.804
60025SOL    HW181972   4.487  11.714   5.872
60025SOL    HW281973   4.342  11.742   5.838
60026SOL     OW81974   6.442   4.739   5.071
60026SOL    HW181975   6.487   4.709   5.150
60026SOL    HW281976   6.353   4.759   5.100
60027SOL     OW81977   9.086   6.287   2.097
60027SOL    HW181978   9.163   6.231   2.113
60027SOL    HW281979   9.014   6.225   2.086
60028SOL     OW81980   0.215  14.346   6.093
60028SOL    HW181981   0.195  14.343   6.000
60028SOL    HW281982   0.290  14.405   6.100
60029SOL     OW81983   4.014   4.896  12.181
60029SOL    HW181984   3.969   4.944  12.250
60029SOL    HW281985   3.944   4.865  12.124
60030SOL     OW81986  11.201   8.453   6.592
60030SOL    HW181987  11.107   8.468   6.602
60030SOL    HW281988  11.240   8.540   6.597
60031SOL     OW81989  14.417   0.404   3.705
60031SOL    HW181990  14.459   0.368   3.627
60031SOL    HW281991  14.429   0.499   3.697
60032SOL     OW81992   5.994   5.038   7.537
60032SOL    HW181993   5.994   5.115   7.594
60032SOL    HW281994   6.081   5.001   7.547
60033SOL     OW81995  14.083  11.457   8.294
60033SOL    HW181996  14.017  11.526   8.286
60033SOL    HW281997  14.159  11.492   8.247
60034SOL     OW81998   6.894   7.828   9.941
60034SOL    HW181999   6.880   7.748   9.890
60034SOL    HW282000   6.827   7.889   9.908
60035SOL     OW82001  13.725  11.830   9.577
60035SOL    HW182002  13.763  11.918   9.576
60035SOL    HW282003  13.634  11.842   9.550
60036SOL     OW82004  10.654  11.373  14.166
60036SOL    HW182005  10.685  11.324  14.090
60036SOL    HW282006  10.618  11.454  14.130
60037SOL     OW82007   2.955   5.643   4.386
60037SOL    HW182008   2.894   5.689   4.444
60037SOL    HW282009   2.995   5.577   4.443
60038SOL     OW82010  14.181   5.052   8.409
60038SOL    HW182011  14.241   5.077   8.479
60038SOL    HW282012  14.109   5.114   8.416
60039SOL     OW82013  13.658  13.358   6.839
60039SOL    HW182014  13.714  13.435   6.826
60039SOL    HW282015  13.717  13.292   6.877
60040SOL     OW82016   2.131   2.749   5.997
60040SOL    HW182017   2.041   2.769   5.971
60040SOL    HW282018   2.153   2.671   5.947
60041SOL     OW82019   6.921   7.771  13.700
60041SOL    HW182020   6.988   7.840  13.698
60041SOL    HW282021   6.952   7.706  13.637
60042SOL     OW82022  14.584  13.309   5.275
60042SOL    HW182023  14.677  13.328   5.287
60042SOL    HW282024  14.551  13.379   5.218
60043SOL     OW82025   2.780   2.258   8.091
60043SOL    HW182026   2.836   2.334   8.078
60043SOL    HW282027   2.692   2.288   8.070
60044SOL     OW82028  13.137   2.224   5.859
60044SOL    HW182029  13.096   2.225   5.945
60044SOL    HW282030  13.094   2.153   5.812
60045SOL     OW82031  12.222   3.936  12.037
60045SOL    HW182032  12.296   3.931  11.976
60045SOL    HW282033  12.178   4.018  12.014
60046SOL     OW82034   2.159   8.704  10.666
60046SOL    HW182035   2.084   8.654  10.697
60046SOL    HW282036   2.132   8.796  10.672
60047SOL     OW82037   1.014   4.507   5.062
60047SOL    HW182038   0.979   4.554   5.137
60047SOL    HW282039   1.075   4.569   5.021
60048SOL     OW82040  10.137   6.950   2.865
60048SOL    HW182041  10.162   6.927   2.955
60048SOL    HW282042  10.076   6.881   2.839
60049SOL     OW82043  11.218   0.456  11.282
60049SOL    HW182044  11.214   0.466  11.377
60049SOL    HW282045  11.215   0.362  11.268
60050SOL     OW82046   9.164  11.167  12.454
60050SOL    HW182047   9.186  11.187  12.545
60050SOL    HW282048   9.070  11.179  12.448
60051SOL     OW82049  14.736   8.496   1.349
60051SOL    HW182050  14.709   8.520   1.438
60051SOL    HW282051  14.799   8.563   1.324
60052SOL     OW82052   8.810   0.388   4.377
60052SOL    HW182053   8.886   0.439   4.408
60052SOL    HW282054   8.785   0.334   4.452
60053SOL     OW82055  11.037   9.855   9.213
60053SOL    HW182056  11.062   9.764   9.193
60053SOL    HW282057  10.982   9.848   9.291
60054SOL     OW82058   7.077   9.313   3.428
60054SOL    HW182059   7.017   9.301   3.354
60054SOL    HW282060   7.044   9.256   3.496
60055SOL     OW82061  10.614   3.044   0.246
60055SOL    HW182062  10.651   3.132   0.250
60055SOL    HW282063  10.520   3.057   0.243
60056SOL     OW82064   2.721   0.338  11.758
60056SOL    HW182065   2.788   0.271  11.743
60056SOL    HW282066   2.695   0.326  11.850
60057SOL     OW82067   4.131   0.506   7.355
60057SOL    HW182068   4.208   0.547   7.395
60057SOL    HW282069   4.075   0.580   7.329
60058SOL     OW82070   6.403   3.827   9.172
60058SOL    HW182071   6.382   3.890   9.102
60058SOL    HW282072   6.465   3.766   9.131
60059SOL     OW82073   5.074  11.795   5.133
60059SOL    HW182074   5.089  11.729   5.064
60059SOL    HW282075   5.089  11.748   5.215
60060SOL     OW82076   1.887  14.127   8.946
60060SOL    HW182077   1.821  14.151   9.011
60060SOL    HW282078   1.968  14.118   8.996
60061SOL     OW82079   8.409  11.274   0.340
60061SOL    HW182080   8.348  11.263   0.268
60061SOL    HW282081   8.495  11.273   0.300
60062SOL     OW82082  11.480  12.661   0.835
60062SOL    HW182083  11.401  12.660   0.889
60062SOL    HW282084  11.531  12.586   0.865
60063SOL     OW82085   4.461  10.356  14.008
60063SOL    HW182086   4.493  10.382  14.094
60063SOL    HW282087   4.452  10.260  14.014
60064SOL     OW82088  11.915   1.924   2.391
60064SOL    HW182089  11.822   1.941   2.401
60064SOL    HW282090  11.953   2.009   2.369
60065SOL     OW82091  13.208   8.745   3.185
60065SOL    HW182092  13.198   8.658   3.224
60065SOL    HW282093  13.134   8.754   3.125
60066SOL     OW82094   1.021  12.275   8.696
60066SOL    HW182095   1.001  12.187   8.665
60066SOL    HW282096   0.976  12.282   8.780
60067SOL     OW82097  13.547   1.562  12.914
60067SOL    HW182098  13.454   1.554  12.892
60067SOL    HW282099  13.551   1.547  13.009
60068SOL     OW82100   4.890  10.312  10.698
60068SOL    HW182101   4.916  10.322  10.606
60068SOL    HW282102   4.898  10.218  10.715
60069SOL     OW82103   7.867   4.083   4.114
60069SOL    HW182104   7.772   4.093   4.108
60069SOL    HW282105   7.902   4.140   4.046
60070SOL     OW82106  10.701   1.383  10.679
60070SOL    HW182107  10.785   1.425  10.658
60070SOL    HW282108  10.635   1.449  10.658
60071SOL     OW82109  13.113   0.525  13.372
60071SOL    HW182110  13.170   0.541  13.448
60071SOL    HW282111  13.136   0.595  13.310
60072SOL     OW82112   9.005   0.312   0.123
60072SOL    HW182113   8.982   0.256   0.197
60072SOL    HW282114   8.923   0.357   0.101
60073SOL     OW82115  11.631  11.446  11.808
60073SOL    HW182116  11.541  11.421  11.791
60073SOL    HW282117  11.625  11.537  11.837
60074SOL     OW82118  10.141   3.210   0.075
60074SOL    HW182119  10.161   3.262  14.879
60074SOL    HW282120  10.106   3.128   0.041
60075SOL     OW82121  11.744  11.345  10.135
60075SOL    HW182122  11.701  11.393  10.206
60075SOL    HW282123  11.808  11.407  10.100
60076SOL     OW82124   8.015   8.663  14.360
60076SOL    HW182125   7.946   8.615  14.314
60076SOL    HW282126   8.039   8.733  14.300
60077SOL     OW82127  11.290   3.627   2.951
60077SOL    HW182128  11.223   3.664   2.893
60077SOL    HW282129  11.360   3.600   2.893
60078SOL     OW82130  10.174   2.578   1.941
60078SOL    HW182131  10.098   2.616   1.898
60078SOL    HW282132  10.155   2.484   1.943
60079SOL     OW82133   0.642   2.173   9.079
60079SOL    HW182134   0.716   2.185   9.138
60079SOL    HW282135   0.648   2.246   9.018
60080SOL     OW82136  14.785  11.664   1.322
60080SOL    HW182137  14.790  11.643   1.415
60080SOL    HW282138  14.754  11.584   1.281
60081SOL     OW82139   6.414   0.756   1.966
60081SOL    HW182140   6.442   0.698   1.895
60081SOL    HW282141   6.324   0.729   1.985
60082SOL     OW82142   4.517   1.258  14.241
60082SOL    HW182143   4.581   1.297  14.300
60082SOL    HW282144   4.432   1.278  14.281
60083SOL     OW82145   2.900  10.628  10.067
60083SOL    HW182146   2.921  10.707  10.017
60083SOL    HW282147   2.882  10.562  10.000
60084SOL     OW82148  13.349   9.258  11.728
60084SOL    HW182149  13.389   9.273  11.814
60084SOL    HW282150  13.421   9.269  11.666
60085SOL     OW82151   4.116   3.962   7.681
60085SOL    HW182152   4.157   4.040   7.643
60085SOL    HW282153   4.071   3.921   7.607
60086SOL     OW82154  11.299  11.354  10.844
60086SOL    HW182155  11.226  11.373  10.785
60086SOL    HW282156  11.297  11.258  10.853
60087SOL     OW82157   5.453   9.578   1.602
60087SOL    HW182158   5.476   9.655   1.550
60087SOL    HW282159   5.526   9.518   1.591
60088SOL     OW82160   0.905  12.638  10.611
60088SOL    HW182161   0.940  12.624  10.523
60088SOL    HW282162   0.811  12.642  10.599
60089SOL     OW82163  13.719   8.875   6.080
60089SOL    HW182164  13.631   8.911   6.092
60089SOL    HW282165  13.751   8.918   6.001
60090SOL     OW82166   3.177   1.182  10.309
60090SOL    HW182167   3.219   1.235  10.377
60090SOL    HW282168   3.138   1.109  10.356
60091SOL     OW82169  12.211  13.723   3.115
60091SOL    HW182170  12.238  13.655   3.177
60091SOL    HW282171  12.132  13.761   3.155
60092SOL     OW82172  14.679   9.769  14.398
60092SOL    HW182173  14.594   9.725  14.396
60092SOL    HW282174  14.699   9.785  14.305
60093SOL     OW82175   3.312  14.276   4.232
60093SOL    HW182176   3.367  14.199   4.243
60093SOL    HW282177   3.314  14.319   4.317
60094SOL     OW82178   1.108   8.870   6.486
60094SOL    HW182179   1.060   8.832   6.413
60094SOL    HW282180   1.085   8.963   6.484
60095SOL     OW82181  14.085   5.176   6.357
60095SOL    HW182182  14.153   5.109   6.364
60095SOL    HW282183  14.080   5.214   6.445
60096SOL     OW82184   0.096  12.221   7.246
60096SOL    HW182185   0.036  12.263   7.308
60096SOL    HW282186   0.063  12.131   7.239
60097SOL     OW82187   6.960   3.058   1.511
60097SOL    HW182188   6.951   3.146   1.472
60097SOL    HW282189   7.039   3.022   1.471
60098SOL     OW82190  10.434  11.331  11.253
60098SOL    HW182191  10.470  11.313  11.166
60098SOL    HW282192  10.418  11.244  11.290
60099SOL     OW82193   4.678   5.479   6.758
60099SOL    HW182194   4.701   5.567   6.729
60099SOL    HW282195   4.723   5.421   6.697
60100SOL     OW82196  13.660   2.359  11.521
60100SOL    HW182197  13.730   2.343  11.458
60100SOL    HW282198  13.591   2.403  11.470
60101SOL     OW82199   2.416   3.786   1.905
60101SOL    HW182200   2.337   3.765   1.855
60101SOL    HW282201   2.427   3.713   1.965
60102SOL     OW82202   5.485  13.552   7.206
60102SOL    HW182203   5.403  13.546   7.256
60102SOL    HW282204   5.495  13.645   7.188
60103SOL     OW82205  10.638  13.225   9.424
60103SOL    HW182206  10.585  13.194   9.351
60103SOL    HW282207  10.575  13.251   9.491
60104SOL     OW82208  12.663   8.231   6.258
60104SOL    HW182209  12.590   8.281   6.222
60104SOL    HW282210  12.739   8.258   6.206
60105SOL     OW82211  13.629   1.808  13.248
60105SOL    HW182212  13.568   1.738  13.223
60105SOL    HW282213  13.673   1.832  13.166
60106SOL     OW82214   1.392  11.165   2.835
60106SOL    HW182215   1.402  11.210   2.751
60106SOL    HW282216   1.302  11.183   2.861
60107SOL     OW82217   8.852   5.696   2.816
60107SOL    HW182218   8.775   5.748   2.840
60107SOL    HW282219   8.915   5.759   2.783
60108SOL     OW82220  11.511   5.804  10.752
60108SOL    HW182221  11.432   5.836  10.795
60108SOL    HW282222  11.480   5.736  10.693
60109SOL     OW82223   8.788  13.454   8.584
60109SOL    HW182224   8.710  13.467   8.639
60109SOL    HW282225   8.844  13.395   8.635
60110SOL     OW82226   3.878   6.488  11.663
60110SOL    HW182227   3.934   6.410  11.658
60110SOL    HW282228   3.848   6.490  11.754
60111SOL     OW82229   4.341   1.772  12.400
60111SOL    HW182230   4.348   1.710  12.327
60111SOL    HW282231   4.247   1.787  12.409
60112SOL     OW82232   6.374   1.192   6.017
60112SOL    HW182233   6.416   1.121   6.066
60112SOL    HW282234   6.379   1.165   5.926
60113SOL     OW82235   1.090   8.472  12.098
60113SOL    HW182236   1.126   8.423  12.024
60113SOL    HW282237   1.166   8.499  12.148
60114SOL     OW82238  12.379   7.941   0.402
60114SOL    HW182239  12.352   7.899   0.484
60114SOL    HW282240  12.456   7.892   0.374
60115SOL     OW82241  10.173   8.317   7.222
60115SOL    HW182242  10.183   8.406   7.255
60115SOL    HW282243  10.169   8.262   7.300
60116SOL     OW82244   1.971   1.406   2.338
60116SOL    HW182245   1.971   1.478   2.400
60116SOL    HW282246   2.063   1.397   2.311
60117SOL     OW82247   1.087   9.235   1.377
60117SOL    HW182248   0.994   9.259   1.379
60117SOL    HW282249   1.130   9.304   1.427
60118SOL     OW82250   9.985  12.315   1.282
60118SOL    HW182251  10.004  12.306   1.188
60118SOL    HW282252   9.890  12.329   1.285
60119SOL     OW82253  12.889   0.211  14.756
60119SOL    HW182254  12.800   0.235  14.782
60119SOL    HW282255  12.937   0.294  14.753
60120SOL     OW82256  12.448   5.199   0.554
60120SOL    HW182257  12.439   5.292   0.531
60120SOL    HW282258  12.383   5.184   0.622
60121SOL     OW82259  12.348   3.886  13.034
60121SOL    HW182260  12.299   3.961  13.067
60121SOL    HW282261  12.412   3.924  12.973
60122SOL     OW82262  11.553   5.381   8.343
60122SOL    HW182263  11.467   5.381   8.301
60122SOL    HW282264  11.582   5.472   8.339
60123SOL     OW82265   4.765  13.055   0.263
60123SOL    HW182266   4.839  13.074   0.321
60123SOL    HW282267   4.775  12.963   0.239
60124SOL     OW82268   1.312   5.018   6.944
60124SOL    HW182269   1.288   4.942   6.997
60124SOL    HW282270   1.281   5.094   6.995
60125SOL     OW82271   3.511   1.490   5.594
60125SOL    HW182272   3.498   1.396   5.598
60125SOL    HW282273   3.483   1.522   5.680
60126SOL     OW82274   0.141   0.676   0.439
60126SOL    HW182275   0.104   0.588   0.452
60126SOL    HW282276   0.127   0.694   0.346
60127SOL     OW82277  10.718   5.225   0.744
60127SOL    HW182278  10.773   5.225   0.823
60127SOL    HW282279  10.775   5.262   0.676
60128SOL     OW82280   4.142   2.629   6.908
60128SOL    HW182281   4.212   2.586   6.957
60128SOL    HW282282   4.069   2.636   6.970
60129SOL     OW82283  10.638   5.268   9.907
60129SOL    HW182284  10.726   5.265   9.868
60129SOL    HW282285  10.592   5.195   9.865
60130SOL     OW82286  12.833   0.190  13.953
60130SOL    HW182287  12.776   0.221  13.883
60130SOL    HW282288  12.868   0.107  13.922
60131SOL     OW82289  13.669   4.322  14.025
60131SOL    HW182290  13.586   4.369  14.035
60131SOL    HW282291  13.725   4.356  14.094
60132SOL     OW82292   1.877   8.720   5.069
60132SOL    HW182293   1.927   8.692   5.146
60132SOL    HW282294   1.935   8.705   4.995
60133SOL     OW82295   9.838  11.210   3.240
60133SOL    HW182296   9.925  11.174   3.256
60133SOL    HW282297   9.780  11.134   3.244
60134SOL     OW82298  12.436  11.685   2.849
60134SOL    HW182299  12.495  11.708   2.777
60134SOL    HW282300  12.401  11.768   2.879
60135SOL     OW82301   8.940  10.203  13.836
60135SOL    HW182302   9.034  10.188  13.849
60135SOL    HW282303   8.898  10.155  13.907
60136SOL     OW82304  14.152   9.705  14.638
60136SOL    HW182305  14.204   9.732  14.563
60136SOL    HW282306  14.124   9.616  14.618
60137SOL     OW82307   6.831   5.033   9.328
60137SOL    HW182308   6.752   4.993   9.365
60137SOL    HW282309   6.845   5.111   9.383
60138SOL     OW82310   0.080   6.313   6.123
60138SOL    HW182311   0.040   6.377   6.182
60138SOL    HW282312   0.143   6.364   6.072
60139SOL     OW82313  10.250   4.203   0.830
60139SOL    HW182314  10.187   4.237   0.894
60139SOL    HW282315  10.333   4.200   0.878
60140SOL     OW82316   9.517   7.315   7.510
60140SOL    HW182317   9.573   7.365   7.451
60140SOL    HW282318   9.504   7.231   7.465
60141SOL     OW82319   6.937   8.003  11.386
60141SOL    HW182320   6.944   7.918  11.429
60141SOL    HW282321   7.019   8.012  11.336
60142SOL     OW82322   6.567   8.294  11.876
60142SOL    HW182323   6.475   8.282  11.895
60142SOL    HW282324   6.597   8.208  11.846
60143SOL     OW82325   5.798   0.548  14.707
60143SOL    HW182326   5.722   0.546  14.648
60143SOL    HW282327   5.788   0.469  14.760
60144SOL     OW82328   8.259  10.553   8.206
60144SOL    HW182329   8.334  10.494   8.209
60144SOL    HW282330   8.194  10.506   8.154
60145SOL     OW82331   4.492   3.251   9.557
60145SOL    HW182332   4.449   3.281   9.477
60145SOL    HW282333   4.476   3.157   9.560
60146SOL     OW82334   0.459   5.591  13.670
60146SOL    HW182335   0.366   5.577  13.689
60146SOL    HW282336   0.461   5.624  13.580
60147SOL     OW82337   5.457   9.725  10.164
60147SOL    HW182338   5.545   9.727  10.203
60147SOL    HW282339   5.429   9.634  10.171
60148SOL     OW82340   7.015   2.576   8.420
60148SOL    HW182341   6.927   2.611   8.428
60148SOL    HW282342   7.056   2.629   8.351
60149SOL     OW82343   2.836   6.286  11.366
60149SOL    HW182344   2.834   6.381  11.365
60149SOL    HW282345   2.743   6.260  11.362
60150SOL     OW82346   9.684   6.492   1.461
60150SOL    HW182347   9.766   6.530   1.494
60150SOL    HW282348   9.709   6.450   1.378
60151SOL     OW82349  13.000   1.191  11.971
60151SOL    HW182350  13.075   1.132  11.968
60151SOL    HW282351  12.991   1.213  12.064
60152SOL     OW82352   6.650   4.856   3.648
60152SOL    HW182353   6.704   4.901   3.583
60152SOL    HW282354   6.562   4.859   3.612
60153SOL     OW82355   6.513   8.618  10.700
60153SOL    HW182356   6.465   8.693  10.737
60153SOL    HW282357   6.497   8.547  10.762
60154SOL     OW82358   3.118  14.222  13.233
60154SOL    HW182359   3.030  14.246  13.259
60154SOL    HW282360   3.152  14.299  13.188
60155SOL     OW82361  10.685   0.582  11.189
60155SOL    HW182362  10.673   0.656  11.130
60155SOL    HW282363  10.776   0.590  11.219
60156SOL     OW82364   2.667  14.314  11.509
60156SOL    HW182365   2.611  14.312  11.432
60156SOL    HW282366   2.607  14.305  11.583
60157SOL     OW82367  11.620  10.625   5.337
60157SOL    HW182368  11.602  10.570   5.414
60157SOL    HW282369  11.674  10.696   5.371
60158SOL     OW82370   2.073   8.506   1.189
60158SOL    HW182371   2.026   8.551   1.119
60158SOL    HW282372   2.005   8.485   1.254
60159SOL     OW82373   6.225   5.228  11.848
60159SOL    HW182374   6.134   5.251  11.868
60159SOL    HW282375   6.251   5.292  11.781
60160SOL     OW82376   5.798   3.667  13.989
60160SOL    HW182377   5.730   3.631  14.045
60160SOL    HW282378   5.751   3.713  13.919
60161SOL     OW82379   1.964  11.270   6.926
60161SOL    HW182380   1.941  11.363   6.929
60161SOL    HW282381   2.029  11.264   6.856
60162SOL     OW82382  13.744  10.278  11.038
60162SOL    HW182383  13.751  10.234  10.953
60162SOL    HW282384  13.831  10.270  11.076
60163SOL     OW82385   1.589  11.820   2.711
60163SOL    HW182386   1.520  11.761   2.741
60163SOL    HW282387   1.562  11.906   2.743
60164SOL     OW82388   2.457  13.591   4.542
60164SOL    HW182389   2.494  13.558   4.460
60164SOL    HW282390   2.529  13.638   4.584
60165SOL     OW82391   1.808   2.102   2.891
60165SOL    HW182392   1.745   2.143   2.951
60165SOL    HW282393   1.787   2.008   2.896
60166SOL     OW82394  10.628  12.072   4.796
60166SOL    HW182395  10.699  12.010   4.782
60166SOL    HW282396  10.562  12.049   4.730
60167SOL     OW82397   1.358   3.992  13.918
60167SOL    HW182398   1.421   3.939  13.869
60167SOL    HW282399   1.330   3.935  13.989
60168SOL     OW82400   3.667   8.795  14.481
60168SOL    HW182401   3.754   8.796  14.522
60168SOL    HW282402   3.614   8.740  14.539
60169SOL     OW82403  11.765   9.732   6.593
60169SOL    HW182404  11.701   9.664   6.572
60169SOL    HW282405  11.825   9.690   6.655
60170SOL     OW82406   0.970  14.867  12.939
60170SOL    HW182407   0.946   0.043  12.866
60170SOL    HW282408   1.053   0.019  12.970
60171SOL     OW82409  13.606   2.822   4.036
60171SOL    HW182410  13.700   2.834   4.053
60171SOL    HW282411  13.564   2.834   4.121
60172SOL     OW82412  14.602   9.260   4.879
60172SOL    HW182413  14.684   9.301   4.854
60172SOL    HW282414  14.563   9.232   4.796
60173SOL     OW82415   8.723   2.933  11.600
60173SOL    HW182416   8.633   2.926  11.569
60173SOL    HW282417   8.773   2.956  11.522
60174SOL     OW82418   5.433  12.070  12.987
60174SOL    HW182419   5.366  12.082  13.055
60174SOL    HW282420   5.508  12.120  13.019
60175SOL     OW82421  10.516   1.878  12.117
60175SOL    HW182422  10.573   1.876  12.194
60175SOL    HW282423  10.428   1.886  12.152
60176SOL     OW82424   7.969   0.640   9.623
60176SOL    HW182425   7.983   0.713   9.563
60176SOL    HW282426   8.050   0.589   9.618
60177SOL     OW82427  12.548  13.951  13.374
60177SOL    HW182428  12.516  13.909  13.454
60177SOL    HW282429  12.642  13.959  13.388
60178SOL     OW82430   6.300   1.011   4.199
60178SOL    HW182431   6.248   1.091   4.190
60178SOL    HW282432   6.318   0.984   4.109
60179SOL     OW82433   4.955   8.265  11.070
60179SOL    HW182434   4.928   8.191  11.016
60179SOL    HW282435   4.876   8.292  11.116
60180SOL     OW82436  13.869   2.562  14.009
60180SOL    HW182437  13.795   2.594  14.060
60180SOL    HW282438  13.836   2.483  13.966
60181SOL     OW82439  12.782   8.929  10.100
60181SOL    HW182440  12.807   8.848  10.057
60181SOL    HW282441  12.697   8.910  10.139
60182SOL     OW82442   7.869   4.771   0.008
60182SOL    HW182443   7.827   4.779   0.094
60182SOL    HW282444   7.963   4.778   0.026
60183SOL     OW82445   8.488   2.182   8.564
60183SOL    HW182446   8.456   2.112   8.621
60183SOL    HW282447   8.470   2.263   8.613
60184SOL     OW82448  13.062   4.553   6.306
60184SOL    HW182449  13.064   4.576   6.213
60184SOL    HW282450  12.972   4.575   6.333
60185SOL     OW82451   6.272   2.479   1.585
60185SOL    HW182452   6.364   2.479   1.610
60185SOL    HW282453   6.272   2.456   1.492
60186SOL     OW82454   0.440   6.765   4.202
60186SOL    HW182455   0.425   6.721   4.285
60186SOL    HW282456   0.530   6.743   4.179
60187SOL     OW82457  10.507   9.857   7.614
60187SOL    HW182458  10.481   9.936   7.567
60187SOL    HW282459  10.560   9.808   7.551
60188SOL     OW82460   1.650  14.335   0.152
60188SOL    HW182461   1.675  14.246   0.125
60188SOL    HW282462   1.722  14.390   0.122
60189SOL     OW82463   9.102   5.853   6.324
60189SOL    HW182464   9.145   5.885   6.403
60189SOL    HW282465   9.152   5.894   6.252
60190SOL     OW82466   3.426   5.423  14.727
60190SOL    HW182467   3.391   5.507  14.699
60190SOL    HW282468   3.520   5.430  14.711
60191SOL     OW82469  13.927  12.445   2.881
60191SOL    HW182470  13.966  12.478   2.962
60191SOL    HW282471  13.997  12.398   2.838
60192SOL     OW82472  13.365   3.010  13.342
60192SOL    HW182473  13.325   2.999  13.428
60192SOL    HW282474  13.420   3.087  13.350
60193SOL     OW82475  11.572   8.478   8.901
60193SOL    HW182476  11.511   8.407   8.883
60193SOL    HW282477  11.656   8.448   8.865
60194SOL     OW82478   3.122   7.480  10.254
60194SOL    HW182479   3.210   7.469  10.217
60194SOL    HW282480   3.066   7.427  10.197
60195SOL     OW82481   5.811  13.718   1.159
60195SOL    HW182482   5.765  13.778   1.100
60195SOL    HW282483   5.837  13.645   1.104
60196SOL     OW82484   1.278   8.287   1.878
60196SOL    HW182485   1.326   8.238   1.944
60196SOL    HW282486   1.344   8.337   1.831
60197SOL     OW82487   5.751   9.950   0.382
60197SOL    HW182488   5.782   9.971   0.294
60197SOL    HW282489   5.794  10.015   0.438
60198SOL     OW82490  13.291  13.992   5.239
60198SOL    HW182491  13.345  13.934   5.293
60198SOL    HW282492  13.269  14.065   5.297
60199SOL     OW82493   1.119   0.227   4.151
60199SOL    HW182494   1.187   0.169   4.184
60199SOL    HW282495   1.088   0.274   4.229
60200SOL     OW82496   6.080  14.362   4.766
60200SOL    HW182497   6.008  14.411   4.727
60200SOL    HW282498   6.093  14.288   4.707
60201SOL     OW82499  13.429   6.468   4.032
60201SOL    HW182500  13.370   6.407   3.986
60201SOL    HW282501  13.386   6.485   4.115
60202SOL     OW82502   0.469   4.962  13.421
60202SOL    HW182503   0.489   5.012  13.500
60202SOL    HW282504   0.479   4.870  13.448
60203SOL     OW82505   2.406   4.870  14.179
60203SOL    HW182506   2.397   4.848  14.087
60203SOL    HW282507   2.474   4.810  14.211
60204SOL     OW82508   7.940   6.462   1.122
60204SOL    HW182509   7.899   6.382   1.088
60204SOL    HW282510   8.032   6.437   1.136
60205SOL     OW82511   5.190   0.346   7.528
60205SOL    HW182512   5.168   0.388   7.611
60205SOL    HW282513   5.232   0.264   7.553
60206SOL     OW82514   1.689   9.062   3.993
60206SOL    HW182515   1.633   9.105   3.928
60206SOL    HW282516   1.778   9.077   3.962
60207SOL     OW82517   9.769   9.809   3.772
60207SOL    HW182518   9.778   9.740   3.838
60207SOL    HW282519   9.726   9.765   3.698
60208SOL     OW82520   9.765   0.539  11.270
60208SOL    HW182521   9.700   0.519  11.203
60208SOL    HW282522   9.777   0.634  11.264
60209SOL     OW82523   6.417  10.275   6.789
60209SOL    HW182524   6.387  10.208   6.849
60209SOL    HW282525   6.441  10.228   6.709
60210SOL     OW82526   4.876   3.333  14.647
60210SOL    HW182527   4.939   3.340  14.719
60210SOL    HW282528   4.890   3.246  14.610
60211SOL     OW82529   1.573   5.286   6.999
60211SOL    HW182530   1.606   5.293   7.089
60211SOL    HW282531   1.624   5.214   6.961
60212SOL     OW82532   1.101   2.212  14.479
60212SOL    HW182533   1.141   2.195  14.394
60212SOL    HW282534   1.009   2.191  14.467
60213SOL     OW82535  11.157   4.140   8.889
60213SOL    HW182536  11.221   4.188   8.941
60213SOL    HW282537  11.206   4.110   8.812
60214SOL     OW82538   4.200   2.018   8.898
60214SOL    HW182539   4.229   1.931   8.870
60214SOL    HW282540   4.111   2.004   8.930
60215SOL     OW82541   6.048  13.788  12.976
60215SOL    HW182542   5.962  13.830  12.975
60215SOL    HW282543   6.105  13.850  12.930
60216SOL     OW82544   9.002   5.358   4.884
60216SOL    HW182545   9.057   5.422   4.838
60216SOL    HW282546   8.912   5.385   4.863
60217SOL     OW82547  14.724   8.212   1.381
60217SOL    HW182548  14.703   8.212   1.474
60217SOL    HW282549  14.744   8.303   1.360
60218SOL     OW82550   6.075   8.470   3.170
60218SOL    HW182551   5.995   8.496   3.215
60218SOL    HW282552   6.074   8.521   3.089
60219SOL     OW82553  14.696  12.965  10.088
60219SOL    HW182554  14.717  13.057  10.102
60219SOL    HW282555  14.748  12.918  10.154
60220SOL     OW82556   7.848   4.498   5.162
60220SOL    HW182557   7.931   4.468   5.199
60220SOL    HW282558   7.842   4.453   5.078
60221SOL     OW82559   8.664   4.240   0.354
60221SOL    HW182560   8.662   4.234   0.450
60221SOL    HW282561   8.594   4.301   0.332
60222SOL     OW82562  14.780   0.708  14.481
60222SOL    HW182563  14.738   0.728  14.565
60222SOL    HW282564  14.779   0.791  14.433
60223SOL     OW82565   4.271   3.893  13.105
60223SOL    HW182566   4.266   3.972  13.050
60223SOL    HW282567   4.311   3.827  13.049
60224SOL     OW82568  12.722   4.749   7.636
60224SOL    HW182569  12.633   4.781   7.648
60224SOL    HW282570  12.772   4.825   7.607
60225SOL     OW82571   4.711   5.258  13.842
60225SOL    HW182572   4.618   5.282  13.845
60225SOL    HW282573   4.750   5.322  13.782
60226SOL     OW82574   4.184   6.094   2.851
60226SOL    HW182575   4.199   6.042   2.930
60226SOL    HW282576   4.157   6.031   2.785
60227SOL     OW82577  12.077  13.957  14.606
60227SOL    HW182578  12.035  14.027  14.656
60227SOL    HW282579  12.014  13.885  14.608
60228SOL     OW82580   8.133   6.391   6.388
60228SOL    HW182581   8.038   6.387   6.381
60228SOL    HW282582   8.149   6.452   6.460
60229SOL     OW82583   7.703   3.100   6.401
60229SOL    HW182584   7.667   3.077   6.487
60229SOL    HW282585   7.755   3.024   6.375
60230SOL     OW82586   4.317  14.106   2.192
60230SOL    HW182587   4.262  14.151   2.256
60230SOL    HW282588   4.403  14.147   2.200
60231SOL     OW82589   8.800   8.323   0.937
60231SOL    HW182590   8.796   8.235   0.975
60231SOL    HW282591   8.726   8.369   0.975
60232SOL     OW82592   0.426  12.718  11.265
60232SOL    HW182593   0.492  12.729  11.333
60232SOL    HW282594   0.347  12.758  11.301
60233SOL     OW82595   4.238  13.537  10.860
60233SOL    HW182596   4.273  13.509  10.776
60233SOL    HW282597   4.184  13.463  10.889
60234SOL     OW82598   8.163  10.614   0.893
60234SOL    HW182599   8.222  10.606   0.967
60234SOL    HW282600   8.212  10.579   0.819
60235SOL     OW82601   3.423   1.891  11.037
60235SOL    HW182602   3.429   1.861  11.128
60235SOL    HW282603   3.333   1.922  11.028
60236SOL     OW82604   5.197   2.496   5.375
60236SOL    HW182605   5.193   2.589   5.353
60236SOL    HW282606   5.290   2.474   5.366
60237SOL     OW82607   7.527   9.905   0.026
60237SOL    HW182608   7.505   9.979  14.852
60237SOL    HW282609   7.443   9.865   0.047
60238SOL     OW82610   1.229  12.100   7.517
60238SOL    HW182611   1.314  12.109   7.561
60238SOL    HW282612   1.247  12.044   7.442
60239SOL     OW82613  11.283  12.589   0.103
60239SOL    HW182614  11.374  12.615   0.118
60239SOL    HW282615  11.267  12.518   0.166
60240SOL     OW82616   1.278   4.839   5.810
60240SOL    HW182617   1.249   4.867   5.897
60240SOL    HW282618   1.235   4.754   5.797
60241SOL     OW82619  10.015   9.311   3.098
60241SOL    HW182620  10.002   9.370   3.024
60241SOL    HW282621   9.930   9.310   3.143
60242SOL     OW82622   9.209   3.375  10.321
60242SOL    HW182623   9.259   3.325  10.385
60242SOL    HW282624   9.139   3.315  10.294
60243SOL     OW82625   5.303  10.958   2.682
60243SOL    HW182626   5.222  11.009   2.681
60243SOL    HW282627   5.367  11.016   2.725
60244SOL     OW82628   1.492   0.767   5.729
60244SOL    HW182629   1.468   0.820   5.653
60244SOL    HW282630   1.428   0.791   5.796
60245SOL     OW82631   8.103   3.016  12.053
60245SOL    HW182632   8.061   2.941  12.093
60245SOL    HW282633   8.197   3.004  12.071
60246SOL     OW82634   8.620   2.667  13.860
60246SOL    HW182635   8.611   2.696  13.769
60246SOL    HW282636   8.592   2.576  13.859
60247SOL     OW82637   3.407   1.119   0.075
60247SOL    HW182638   3.502   1.127   0.079
60247SOL    HW282639   3.381   1.170  14.880
60248SOL     OW82640   0.111   4.561   6.832
60248SOL    HW182641   0.131   4.566   6.739
60248SOL    HW282642   0.154   4.637   6.871
60249SOL     OW82643   4.010   6.068  11.299
60249SOL    HW182644   3.928   6.020  11.308
60249SOL    HW282645   4.072   6.003  11.265
60250SOL     OW82646   4.988   5.723   7.162
60250SOL    HW182647   5.054   5.708   7.094
60250SOL    HW282648   5.031   5.695   7.243
60251SOL     OW82649   9.986   3.120   8.463
60251SOL    HW182650  10.051   3.130   8.394
60251SOL    HW282651   9.912   3.175   8.434
60252SOL     OW82652   7.814  11.872   3.912
60252SOL    HW182653   7.860  11.905   3.835
60252SOL    HW282654   7.798  11.780   3.892
60253SOL     OW82655  11.605  10.787   4.239
60253SOL    HW182656  11.619  10.733   4.161
60253SOL    HW282657  11.673  10.759   4.300
60254SOL     OW82658  11.639  12.692  14.541
60254SOL    HW182659  11.600  12.656  14.461
60254SOL    HW282660  11.572  12.752  14.576
60255SOL     OW82661   5.505   2.346   2.575
60255SOL    HW182662   5.536   2.416   2.518
60255SOL    HW282663   5.516   2.380   2.664
60256SOL     OW82664   0.951   0.251   1.595
60256SOL    HW182665   0.942   0.266   1.689
60256SOL    HW282666   1.024   0.189   1.588
60257SOL     OW82667   9.557   6.319   0.923
60257SOL    HW182668   9.549   6.236   0.875
60257SOL    HW282669   9.489   6.314   0.991
60258SOL     OW82670   2.037   9.984  11.604
60258SOL    HW182671   2.115  10.017  11.560
60258SOL    HW282672   2.071   9.921  11.668
60259SOL     OW82673  13.828  12.096  13.663
60259SOL    HW182674  13.881  12.049  13.727
60259SOL    HW282675  13.767  12.147  13.716
60260SOL     OW82676   5.079  14.600  11.013
60260SOL    HW182677   5.108  14.510  11.022
60260SOL    HW282678   5.122  14.647  11.084
60261SOL     OW82679   6.166   0.363   7.580
60261SOL    HW182680   6.119   0.307   7.518
60261SOL    HW282681   6.117   0.356   7.662
60262SOL     OW82682   8.892   0.469   5.472
60262SOL    HW182683   8.880   0.561   5.497
60262SOL    HW282684   8.987   0.460   5.458
60263SOL     OW82685   1.316   3.874  13.058
60263SOL    HW182686   1.259   3.909  13.127
60263SOL    HW282687   1.278   3.789  13.036
60264SOL     OW82688  11.199  11.791   9.319
60264SOL    HW182689  11.262  11.857   9.290
60264SOL    HW282690  11.118  11.840   9.332
60265SOL     OW82691  11.643  11.447   4.739
60265SOL    HW182692  11.556  11.472   4.769
60265SOL    HW282693  11.647  11.352   4.748
60266SOL     OW82694   2.434   1.016  14.236
60266SOL    HW182695   2.398   1.037  14.150
60266SOL    HW282696   2.359   0.988  14.288
60267SOL     OW82697  12.360   0.685   0.132
60267SOL    HW182698  12.288   0.711   0.074
60267SOL    HW282699  12.439   0.695   0.079
60268SOL     OW82700   4.327   4.346   6.630
60268SOL    HW182701   4.246   4.351   6.579
60268SOL    HW282702   4.359   4.436   6.634
60269SOL     OW82703   1.471   4.047  10.312
60269SOL    HW182704   1.541   4.098  10.353
60269SOL    HW282705   1.396   4.057  10.371
60270SOL     OW82706   8.303   4.221   6.611
60270SOL    HW182707   8.280   4.271   6.533
60270SOL    HW282708   8.222   4.176   6.636
60271SOL     OW82709  11.438   1.587   3.987
60271SOL    HW182710  11.465   1.574   4.078
60271SOL    HW282711  11.520   1.583   3.937
60272SOL     OW82712   4.011  12.511  14.624
60272SOL    HW182713   4.048  12.600  14.629
60272SOL    HW282714   3.972  12.497  14.710
60273SOL     OW82715   3.013  13.325   7.179
60273SOL    HW182716   3.050  13.366   7.257
60273SOL    HW282717   2.983  13.398   7.125
60274SOL     OW82718   2.406   5.863   7.472
60274SOL    HW182719   2.333   5.808   7.443
60274SOL    HW282720   2.402   5.859   7.568
60275SOL     OW82721  14.706   6.325  12.825
60275SOL    HW182722  14.709   6.418  12.801
60275SOL    HW282723  14.787   6.289  12.788
60276SOL     OW82724   4.387   2.650   6.627
60276SOL    HW182725   4.408   2.743   6.617
60276SOL    HW282726   4.397   2.614   6.539
60277SOL     OW82727   4.137  13.264   8.919
60277SOL    HW182728   4.065  13.316   8.886
60277SOL    HW282729   4.201  13.262   8.848
60278SOL     OW82730   3.308   4.183   5.837
60278SOL    HW182731   3.307   4.279   5.832
60278SOL    HW282732   3.228   4.156   5.791
60279SOL     OW82733  12.675   6.980  11.341
60279SOL    HW182734  12.714   6.900  11.378
60279SOL    HW282735  12.698   6.978  11.248
60280SOL     OW82736   9.008  12.041   4.295
60280SOL    HW182737   9.052  12.101   4.356
60280SOL    HW282738   8.918  12.072   4.292
60281SOL     OW82739   0.770   5.694   8.291
60281SOL    HW182740   0.797   5.657   8.375
60281SOL    HW282741   0.836   5.664   8.229
60282SOL     OW82742  13.668  11.907   9.227
60282SOL    HW182743  13.583  11.946   9.207
60282SOL    HW282744  13.651  11.812   9.227
60283SOL     OW82745   0.737   4.517   6.615
60283SOL    HW182746   0.707   4.520   6.706
60283SOL    HW282747   0.682   4.581   6.570
60284SOL     OW82748  10.845   1.560  12.021
60284SOL    HW182749  10.851   1.656  12.014
60284SOL    HW282750  10.763   1.545  12.068
60285SOL     OW82751   8.457   0.290  14.768
60285SOL    HW182752   8.469   0.342  14.688
60285SOL    HW282753   8.362   0.280  14.775
60286SOL     OW82754   7.026   1.110  13.701
60286SOL    HW182755   7.023   1.167  13.624
60286SOL    HW282756   6.981   1.030  13.673
60287SOL     OW82757   2.895   6.594   1.403
60287SOL    HW182758   2.825   6.626   1.345
60287SOL    HW282759   2.849   6.554   1.476
60288SOL     OW82760   9.876   2.756   5.868
60288SOL    HW182761   9.933   2.681   5.884
60288SOL    HW282762   9.861   2.795   5.954
60289SOL     OW82763   9.034   7.283   1.506
60289SOL    HW182764   8.967   7.214   1.506
60289SOL    HW282765   9.064   7.286   1.597
60290SOL     OW82766   0.219   9.479   8.331
60290SOL    HW182767   0.187   9.397   8.368
60290SOL    HW282768   0.165   9.493   8.253
60291SOL     OW82769  12.411  11.849   4.305
60291SOL    HW182770  12.377  11.936   4.327
60291SOL    HW282771  12.483  11.835   4.367
60292SOL     OW82772   6.648  13.204   1.095
60292SOL    HW182773   6.686  13.209   1.007
60292SOL    HW282774   6.721  13.225   1.153
60293SOL     OW82775   1.972   7.697  10.415
60293SOL    HW182776   2.036   7.704  10.485
60293SOL    HW282777   2.001   7.623  10.362
60294SOL     OW82778   5.216  13.327  11.156
60294SOL    HW182779   5.220  13.403  11.098
60294SOL    HW282780   5.139  13.343  11.211
60295SOL     OW82781  10.038   2.936  14.135
60295SOL    HW182782  10.062   3.023  14.102
60295SOL    HW282783   9.953   2.949  14.176
60296SOL     OW82784  10.042   1.445   8.008
60296SOL    HW182785  10.047   1.532   7.969
60296SOL    HW282786   9.950   1.422   8.004
60297SOL     OW82787  13.578  11.458   7.649
60297SOL    HW182788  13.490  11.449   7.613
60297SOL    HW282789  13.576  11.405   7.729
60298SOL     OW82790  10.329  10.182  13.176
60298SOL    HW182791  10.356  10.139  13.257
60298SOL    HW282792  10.264  10.123  13.138
60299SOL     OW82793   5.721  10.842   4.412
60299SOL    HW182794   5.772  10.765   4.435
60299SOL    HW282795   5.769  10.882   4.340
60300SOL     OW82796  12.495   8.775  12.148
60300SOL    HW182797  12.576   8.803  12.107
60300SOL    HW282798  12.429   8.782  12.079
60301SOL     OW82799  13.728   0.595   3.499
60301SOL    HW182800  13.726   0.585   3.404
60301SOL    HW282801  13.785   0.523   3.529
60302SOL     OW82802   0.435  10.004   2.292
60302SOL    HW182803   0.460   9.977   2.204
60302SOL    HW282804   0.412   9.922   2.336
60303SOL     OW82805  11.542  11.446   1.864
60303SOL    HW182806  11.594  11.517   1.826
60303SOL    HW282807  11.516  11.392   1.790
60304SOL     OW82808  11.528   6.835   4.510
60304SOL    HW182809  11.536   6.777   4.585
60304SOL    HW282810  11.447   6.885   4.526
60305SOL     OW82811   4.482   3.636   2.477
60305SOL    HW182812   4.387   3.646   2.478
60305SOL    HW282813   4.507   3.633   2.570
60306SOL     OW82814  10.286   0.757  12.180
60306SOL    HW182815  10.291   0.748  12.275
60306SOL    HW282816  10.193   0.768  12.161
60307SOL     OW82817  10.127   6.995   3.407
60307SOL    HW182818  10.199   6.945   3.448
60307SOL    HW282819  10.160   7.017   3.320
60308SOL     OW82820  13.819   0.764  14.149
60308SOL    HW182821  13.755   0.695  14.163
60308SOL    HW282822  13.893   0.720  14.108
60309SOL     OW82823   6.749   7.193  10.681
60309SOL    HW182824   6.733   7.211  10.589
60309SOL    HW282825   6.842   7.210  10.694
60310SOL     OW82826   9.978   8.173   3.404
60310SOL    HW182827  10.047   8.107   3.394
60310SOL    HW282828   9.972   8.214   3.317
60311SOL     OW82829  13.552   3.675   9.094
60311SOL    HW182830  13.599   3.681   9.177
60311SOL    HW282831  13.491   3.749   9.097
60312SOL     OW82832   8.004   6.509   7.836
60312SOL    HW182833   7.953   6.428   7.840
60312SOL    HW282834   7.974   6.560   7.911
60313SOL     OW82835   8.405   7.371  14.564
60313SOL    HW182836   8.470   7.313  14.525
60313SOL    HW282837   8.321   7.327  14.548
60314SOL     OW82838  13.816  14.036   3.680
60314SOL    HW182839  13.723  14.056   3.691
60314SOL    HW282840  13.841  13.995   3.762
60315SOL     OW82841  12.395   9.677   6.619
60315SOL    HW182842  12.449   9.639   6.687
60315SOL    HW282843  12.305   9.655   6.645
60316SOL     OW82844   7.871   6.030   0.574
60316SOL    HW182845   7.816   6.061   0.645
60316SOL    HW282846   7.852   6.088   0.500
60317SOL     OW82847  14.286   8.668  13.638
60317SOL    HW182848  14.217   8.606  13.660
60317SOL    HW282849  14.251   8.754  13.663
60318SOL     OW82850  10.656  12.251   9.349
60318SOL    HW182851  10.697  12.241   9.435
60318SOL    HW282852  10.600  12.328   9.358
60319SOL     OW82853  10.891   9.383   2.599
60319SOL    HW182854  10.809   9.431   2.589
60319SOL    HW282855  10.922   9.370   2.510
60320SOL     OW82856  12.613  14.304   8.372
60320SOL    HW182857  12.684  14.272   8.315
60320SOL    HW282858  12.533  14.275   8.330
60321SOL     OW82859   1.124   0.886   5.081
60321SOL    HW182860   1.039   0.845   5.096
60321SOL    HW282861   1.118   0.924   4.993
60322SOL     OW82862  11.222   3.918   5.301
60322SOL    HW182863  11.161   3.846   5.312
60322SOL    HW282864  11.170   3.986   5.258
60323SOL     OW82865   1.700   4.637  12.918
60323SOL    HW182866   1.605   4.637  12.914
60323SOL    HW282867   1.724   4.726  12.941
60324SOL     OW82868   0.609   5.384   1.328
60324SOL    HW182869   0.538   5.366   1.266
60324SOL    HW282870   0.565   5.403   1.411
60325SOL     OW82871   6.921   6.231  11.272
60325SOL    HW182872   6.836   6.271  11.253
60325SOL    HW282873   6.899   6.146  11.309
60326SOL     OW82874   7.605  12.935  13.991
60326SOL    HW182875   7.547  12.880  14.045
60326SOL    HW282876   7.545  12.983  13.934
60327SOL     OW82877   9.392   0.950   2.691
60327SOL    HW182878   9.428   1.026   2.737
60327SOL    HW282879   9.465   0.887   2.688
60328SOL     OW82880  10.313   2.831   0.182
60328SOL    HW182881  10.315   2.927   0.191
60328SOL    HW282882  10.404   2.804   0.200
60329SOL     OW82883   8.850   4.544   3.112
60329SOL    HW182884   8.795   4.466   3.106
60329SOL    HW282885   8.866   4.556   3.206
60330SOL     OW82886   6.818   6.749  14.300
60330SOL    HW182887   6.775   6.834  14.310
60330SOL    HW282888   6.764   6.689  14.352
60331SOL     OW82889   4.489   2.319   9.579
60331SOL    HW182890   4.410   2.264   9.577
60331SOL    HW282891   4.487   2.367   9.496
60332SOL     OW82892   7.635  11.821   8.664
60332SOL    HW182893   7.584  11.856   8.591
60332SOL    HW282894   7.594  11.858   8.742
60333SOL     OW82895   2.488  13.863  10.648
60333SOL    HW182896   2.478  13.914  10.568
60333SOL    HW282897   2.400  13.858  10.685
60334SOL     OW82898   6.108   4.052  12.558
60334SOL    HW182899   6.095   4.019  12.469
60334SOL    HW282900   6.052   3.997  12.613
60335SOL     OW82901  11.658   5.272   5.476
60335SOL    HW182902  11.733   5.331   5.470
60335SOL    HW282903  11.685   5.193   5.430
60336SOL     OW82904  12.248  14.548  10.089
60336SOL    HW182905  12.247  14.591  10.174
60336SOL    HW282906  12.173  14.489  10.090
60337SOL     OW82907  12.563   4.979   1.254
60337SOL    HW182908  12.489   4.995   1.313
60337SOL    HW282909  12.523   4.942   1.176
60338SOL     OW82910   2.400   7.718  14.820
60338SOL    HW182911   2.432   7.807  14.835
60338SOL    HW282912   2.323   7.729  14.764
60339SOL     OW82913   6.650   9.588  14.023
60339SOL    HW182914   6.666   9.666  13.970
60339SOL    HW282915   6.555   9.583  14.030
60340SOL     OW82916   6.874   3.369  13.673
60340SOL    HW182917   6.832   3.324  13.600
60340SOL    HW282918   6.967   3.366  13.653
60341SOL     OW82919   4.020   2.469   0.772
60341SOL    HW182920   4.002   2.540   0.833
60341SOL    HW282921   3.938   2.420   0.768
60342SOL     OW82922  11.221  14.315   8.363
60342SOL    HW182923  11.238  14.403   8.398
60342SOL    HW282924  11.162  14.331   8.289
60343SOL     OW82925   5.399   4.975   7.804
60343SOL    HW182926   5.431   5.062   7.826
60343SOL    HW282927   5.315   4.968   7.849
60344SOL     OW82928   1.351   7.704  10.657
60344SOL    HW182929   1.441   7.736  10.659
60344SOL    HW282930   1.320   7.717  10.747
60345SOL     OW82931   2.164   9.457   1.638
60345SOL    HW182932   2.260   9.462   1.645
60345SOL    HW282933   2.148   9.447   1.544
60346SOL     OW82934   5.484   4.293   6.442
60346SOL    HW182935   5.506   4.274   6.351
60346SOL    HW282936   5.406   4.348   6.437
60347SOL     OW82937   1.175   3.087   8.185
60347SOL    HW182938   1.093   3.059   8.225
60347SOL    HW282939   1.226   3.006   8.177
60348SOL     OW82940   3.347   1.175   5.689
60348SOL    HW182941   3.349   1.090   5.733
60348SOL    HW282942   3.439   1.199   5.678
60349SOL     OW82943  11.656   3.735   0.959
60349SOL    HW182944  11.606   3.744   0.878
60349SOL    HW282945  11.739   3.695   0.933
60350SOL     OW82946  12.031  11.748   7.748
60350SOL    HW182947  12.021  11.791   7.663
60350SOL    HW282948  12.122  11.718   7.750
60351SOL     OW82949   3.662   7.137   3.853
60351SOL    HW182950   3.644   7.099   3.939
60351SOL    HW282951   3.696   7.225   3.873
60352SOL     OW82952   1.176  14.429   6.237
60352SOL    HW182953   1.257  14.414   6.285
60352SOL    HW282954   1.107  14.406   6.300
60353SOL     OW82955  12.848   3.201   6.178
60353SOL    HW182956  12.881   3.121   6.138
60353SOL    HW282957  12.858   3.268   6.111
60354SOL     OW82958  12.693   1.047  14.614
60354SOL    HW182959  12.598   1.060  14.607
60354SOL    HW282960  12.723   1.044  14.524
60355SOL     OW82961  10.769   9.335   9.875
60355SOL    HW182962  10.674   9.344   9.867
60355SOL    HW282963  10.793   9.270   9.808
60356SOL     OW82964  14.586   5.204   1.491
60356SOL    HW182965  14.612   5.248   1.410
60356SOL    HW282966  14.615   5.114   1.479
60357SOL     OW82967  10.987   9.306   1.513
60357SOL    HW182968  11.004   9.269   1.427
60357SOL    HW282969  11.016   9.397   1.506
60358SOL     OW82970   3.778  11.206   7.119
60358SOL    HW182971   3.700  11.151   7.111
60358SOL    HW282972   3.838  11.171   7.053
60359SOL     OW82973   0.133   4.465  10.787
60359SOL    HW182974   0.110   4.384  10.740
60359SOL    HW282975   0.115   4.444  10.879
60360SOL     OW82976  14.156  14.303   5.873
60360SOL    HW182977  14.148  14.287   5.779
60360SOL    HW282978  14.250  14.309   5.888
60361SOL     OW82979  10.726   4.698   2.952
60361SOL    HW182980  10.706   4.779   2.999
60361SOL    HW282981  10.789   4.653   3.008
60362SOL     OW82982   0.535   2.042   6.773
60362SOL    HW182983   0.451   2.079   6.746
60362SOL    HW282984   0.514   1.989   6.850
60363SOL     OW82985   0.502  14.469  14.297
60363SOL    HW182986   0.523  14.562  14.306
60363SOL    HW282987   0.553  14.426  14.365
60364SOL     OW82988  12.952   4.384   2.749
60364SOL    HW182989  13.008   4.433   2.688
60364SOL    HW282990  12.988   4.295   2.748
60365SOL     OW82991   0.205   3.180   8.073
60365SOL    HW182992   0.210   3.267   8.113
60365SOL    HW282993   0.118   3.178   8.031
60366SOL     OW82994  13.280  13.169  12.996
60366SOL    HW182995  13.314  13.244  13.045
60366SOL    HW282996  13.185  13.173  13.009
60367SOL     OW82997   4.263  14.224  12.768
60367SOL    HW182998   4.266  14.238  12.863
60367SOL    HW282999   4.326  14.286  12.733
60368SOL     OW83000  13.003  12.389  11.725
60368SOL    HW183001  13.057  12.354  11.654
60368SOL    HW283002  12.954  12.460  11.685
60369SOL     OW83003   0.173  14.586   2.566
60369SOL    HW183004   0.199  14.520   2.630
60369SOL    HW283005   0.243  14.585   2.500
60370SOL     OW83006  12.410   4.847   0.372
60370SOL    HW183007  12.476   4.910   0.344
60370SOL    HW283008  12.349   4.841   0.299
60371SOL     OW83009   7.370   4.955  11.399
60371SOL    HW183010   7.322   4.886  11.353
60371SOL    HW283011   7.384   5.022  11.333
60372SOL     OW83012   7.255  10.940  12.465
60372SOL    HW183013   7.221  11.023  12.432
60372SOL    HW283014   7.325  10.964  12.526
60373SOL     OW83015   0.354   5.599   3.617
60373SOL    HW183016   0.385   5.560   3.698
60373SOL    HW283017   0.287   5.539   3.585
60374SOL     OW83018  14.808   3.917   0.005
60374SOL    HW183019  14.858   3.837   0.017
60374SOL    HW283020  14.873   3.987   0.009
60375SOL     OW83021   0.726   2.841  14.350
60375SOL    HW183022   0.655   2.857  14.413
60375SOL    HW283023   0.805   2.869  14.396
60376SOL     OW83024  14.576   8.368  10.259
60376SOL    HW183025  14.516   8.368  10.184
60376SOL    HW283026  14.519   8.369  10.336
60377SOL     OW83027   6.011  10.864   6.712
60377SOL    HW183028   5.990  10.908   6.794
60377SOL    HW283029   6.026  10.936   6.650
60378SOL     OW83030   7.485   5.931   4.874
60378SOL    HW183031   7.461   5.948   4.782
60378SOL    HW283032   7.496   6.019   4.912
60379SOL     OW83033   2.835   2.750   1.015
60379SOL    HW183034   2.890   2.673   1.006
60379SOL    HW283035   2.812   2.775   0.926
60380SOL     OW83036  11.146  10.421   9.626
60380SOL    HW183037  11.188  10.458   9.548
60380SOL    HW283038  11.068  10.377   9.594
60381SOL     OW83039   7.245   4.632   0.670
60381SOL    HW183040   7.237   4.538   0.657
60381SOL    HW283041   7.162   4.657   0.711
60382SOL     OW83042  11.848   6.694   3.939
60382SOL    HW183043  11.900   6.685   4.019
60382SOL    HW283044  11.765   6.651   3.960
60383SOL     OW83045   3.351   7.333   7.441
60383SOL    HW183046   3.304   7.397   7.387
60383SOL    HW283047   3.311   7.341   7.528
60384SOL     OW83048   5.599   5.650  10.440
60384SOL    HW183049   5.515   5.686  10.470
60384SOL    HW283050   5.659   5.724  10.441
60385SOL     OW83051   9.716   7.849   9.238
60385SOL    HW183052   9.685   7.771   9.194
60385SOL    HW283053   9.808   7.831   9.260
60386SOL     OW83054  10.275  14.295   3.833
60386SOL    HW183055  10.289  14.353   3.908
60386SOL    HW283056  10.270  14.207   3.871
60387SOL     OW83057   1.129   8.645   3.019
60387SOL    HW183058   1.059   8.628   3.082
60387SOL    HW283059   1.110   8.733   2.987
60388SOL     OW83060  11.355  13.613   2.674
60388SOL    HW183061  11.298  13.690   2.661
60388SOL    HW283062  11.367  13.607   2.769
60389SOL     OW83063   1.642   9.100   3.021
60389SOL    HW183064   1.586   9.054   3.084
60389SOL    HW283065   1.622   9.059   2.936
60390SOL     OW83066   8.385   7.118  10.978
60390SOL    HW183067   8.421   7.033  11.005
60390SOL    HW283068   8.404   7.175  11.053
60391SOL     OW83069  11.362  13.228  13.844
60391SOL    HW183070  11.409  13.311  13.849
60391SOL    HW283071  11.275  13.247  13.880
60392SOL     OW83072   7.966  11.396  12.531
60392SOL    HW183073   7.993  11.419  12.620
60392SOL    HW283074   8.046  11.403  12.479
60393SOL     OW83075   2.942   0.639   5.205
60393SOL    HW183076   2.915   0.698   5.275
60393SOL    HW283077   2.963   0.557   5.250
60394SOL     OW83078   1.881  10.778   6.772
60394SOL    HW183079   1.807  10.721   6.791
60394SOL    HW283080   1.859  10.861   6.815
60395SOL     OW83081   2.428   6.327  12.933
60395SOL    HW183082   2.438   6.236  12.906
60395SOL    HW283083   2.360   6.325  13.000
60396SOL     OW83084  11.144  11.442  12.549
60396SOL    HW183085  11.225  11.425  12.597
60396SOL    HW283086  11.074  11.411  12.607
60397SOL     OW83087   2.997  14.224   0.850
60397SOL    HW183088   2.909  14.188   0.845
60397SOL    HW283089   3.054  14.154   0.818
60398SOL     OW83090  11.966  10.008   6.045
60398SOL    HW183091  11.980  10.030   5.953
60398SOL    HW283092  11.964   9.913   6.046
60399SOL     OW83093   0.035  11.107   8.078
60399SOL    HW183094   0.013  11.042   8.145
60399SOL    HW283095  14.847  11.099   8.013
60400SOL     OW83096  12.641   5.115   6.366
60400SOL    HW183097  12.606   5.120   6.277
60400SOL    HW283098  12.736   5.107   6.353
60401SOL     OW83099   3.516   0.720  10.872
60401SOL    HW183100   3.574   0.793  10.853
60401SOL    HW283101   3.565   0.666  10.933
60402SOL     OW83102   3.629  14.019   5.712
60402SOL    HW183103   3.607  13.930   5.739
60402SOL    HW283104   3.662  14.062   5.791
60403SOL     OW83105  13.596   0.699   0.300
60403SOL    HW183106  13.683   0.666   0.280
60403SOL    HW283107  13.577   0.667   0.388
60404SOL     OW83108   7.827   7.486  14.595
60404SOL    HW183109   7.789   7.410  14.639
60404SOL    HW283110   7.844   7.455  14.506
60405SOL     OW83111  12.997  14.310  12.771
60405SOL    HW183112  13.088  14.334  12.753
60405SOL    HW283113  12.977  14.241  12.708
60406SOL     OW83114   5.026   3.788  13.844
60406SOL    HW183115   5.087   3.718  13.869
60406SOL    HW283116   4.994   3.762  13.757
60407SOL     OW83117   8.074   5.252   9.952
60407SOL    HW183118   8.092   5.277   9.861
60407SOL    HW283119   8.002   5.310   9.978
60408SOL     OW83120  14.118   9.110   4.906
60408SOL    HW183121  14.146   9.029   4.948
60408SOL    HW283122  14.023   9.102   4.897
60409SOL     OW83123  11.834   1.651   6.184
60409SOL    HW183124  11.786   1.569   6.195
60409SOL    HW283125  11.925   1.623   6.169
60410SOL     OW83126   3.880   6.580  12.139
60410SOL    HW183127   3.807   6.613  12.191
60410SOL    HW283128   3.949   6.561  12.202
60411SOL     OW83129  11.478   4.392  11.798
60411SOL    HW183130  11.401   4.349  11.761
60411SOL    HW283131  11.444   4.445  11.870
60412SOL     OW83132  10.644  11.396   8.289
60412SOL    HW183133  10.622  11.325   8.229
60412SOL    HW283134  10.559  11.429   8.319
60413SOL     OW83135   8.420   4.622   6.463
60413SOL    HW183136   8.473   4.594   6.538
60413SOL    HW283137   8.387   4.708   6.488
60414SOL     OW83138   0.823   0.599  11.704
60414SOL    HW183139   0.764   0.605  11.779
60414SOL    HW283140   0.845   0.689  11.683
60415SOL     OW83141   3.003   7.260  13.416
60415SOL    HW183142   3.037   7.209  13.343
60415SOL    HW283143   3.043   7.220  13.494
60416SOL     OW83144   0.965   4.879   3.313
60416SOL    HW183145   1.044   4.880   3.366
60416SOL    HW283146   0.996   4.899   3.224
60417SOL     OW83147  10.542   5.668   0.163
60417SOL    HW183148  10.625   5.697   0.200
60417SOL    HW283149  10.479   5.680   0.234
60418SOL     OW83150   0.983  12.898  12.273
60418SOL    HW183151   0.970  12.878  12.180
60418SOL    HW283152   0.936  12.829  12.319
60419SOL     OW83153   7.801   9.585   5.671
60419SOL    HW183154   7.819   9.566   5.579
60419SOL    HW283155   7.710   9.616   5.672
60420SOL     OW83156   4.171  13.289   9.923
60420SOL    HW183157   4.129  13.375   9.928
60420SOL    HW283158   4.210  13.286   9.836
60421SOL     OW83159  13.568   9.490   1.340
60421SOL    HW183160  13.602   9.519   1.255
60421SOL    HW283161  13.473   9.486   1.327
60422SOL     OW83162   6.743   9.788  10.117
60422SOL    HW183163   6.720   9.779  10.210
60422SOL    HW283164   6.797   9.866  10.112
60423SOL     OW83165   5.307   2.355   2.378
60423SOL    HW183166   5.312   2.311   2.293
60423SOL    HW283167   5.379   2.316   2.429
60424SOL     OW83168   8.118   1.132   5.243
60424SOL    HW183169   8.186   1.119   5.177
60424SOL    HW283170   8.045   1.171   5.195
60425SOL     OW83171   2.727   6.973  10.986
60425SOL    HW183172   2.638   6.940  10.969
60425SOL    HW283173   2.767   6.905  11.040
60426SOL     OW83174   9.001  12.774   6.906
60426SOL    HW183175   9.079  12.754   6.958
60426SOL    HW283176   9.027  12.755   6.816
60427SOL     OW83177  11.019   2.316   8.058
60427SOL    HW183178  11.065   2.251   8.004
60427SOL    HW283179  10.981   2.265   8.130
60428SOL     OW83180  13.921  12.868  13.801
60428SOL    HW183181  13.871  12.833  13.875
60428SOL    HW283182  14.005  12.822  13.804
60429SOL     OW83183   9.625  10.863   3.627
60429SOL    HW183184   9.564  10.820   3.567
60429SOL    HW283185   9.690  10.904   3.569
60430SOL     OW83186  12.324   3.951   9.735
60430SOL    HW183187  12.334   4.044   9.756
60430SOL    HW283188  12.358   3.942   9.646
60431SOL     OW83189   9.358  10.251   8.986
60431SOL    HW183190   9.452  10.271   8.989
60431SOL    HW283191   9.351  10.166   9.030
60432SOL     OW83192   4.081  14.599  12.743
60432SOL    HW183193   4.090  14.692  12.726
60432SOL    HW283194   4.163  14.561  12.712
60433SOL     OW83195  11.714   9.293  14.119
60433SOL    HW183196  11.750   9.370  14.074
60433SOL    HW283197  11.772   9.221  14.092
60434SOL     OW83198   3.711   8.692  13.737
60434SOL    HW183199   3.674   8.774  13.705
60434SOL    HW283200   3.672   8.681  13.824
60435SOL     OW83201   7.838   3.847  11.738
60435SOL    HW183202   7.775   3.817  11.804
60435SOL    HW283203   7.785   3.889  11.671
60436SOL     OW83204  10.910  14.488  11.826
60436SOL    HW183205  10.891  14.564  11.771
60436SOL    HW283206  10.838  14.428  11.809
60437SOL     OW83207   9.128   9.135   9.883
60437SOL    HW183208   9.098   9.082   9.810
60437SOL    HW283209   9.077   9.216   9.877
60438SOL     OW83210   8.459   8.511  13.150
60438SOL    HW183211   8.544   8.466  13.158
60438SOL    HW283212   8.472   8.574  13.079
60439SOL     OW83213   3.772  10.034  12.220
60439SOL    HW183214   3.750   9.986  12.300
60439SOL    HW283215   3.868  10.036  12.219
60440SOL     OW83216   5.566   2.265  12.372
60440SOL    HW183217   5.513   2.300  12.300
60440SOL    HW283218   5.510   2.275  12.449
60441SOL     OW83219   8.538   5.880   7.754
60441SOL    HW183220   8.465   5.869   7.814
60441SOL    HW283221   8.552   5.793   7.717
60442SOL     OW83222   1.945   9.523   3.934
60442SOL    HW183223   2.031   9.559   3.956
60442SOL    HW283224   1.950   9.504   3.840
60443SOL     OW83225   9.602   2.177   2.480
60443SOL    HW183226   9.658   2.121   2.426
60443SOL    HW283227   9.660   2.244   2.513
60444SOL     OW83228   0.021   8.818   3.370
60444SOL    HW183229   0.091   8.841   3.309
60444SOL    HW283230  14.825   8.859   3.334
60445SOL     OW83231  14.755   9.502  12.367
60445SOL    HW183232  14.793   9.512  12.454
60445SOL    HW283233  14.664   9.529  12.378
60446SOL     OW83234   5.048   7.027   4.964
60446SOL    HW183235   5.066   6.968   4.891
60446SOL    HW283236   5.034   6.969   5.039
60447SOL     OW83237  12.799   2.032  12.920
60447SOL    HW183238  12.790   1.951  12.970
60447SOL    HW283239  12.816   2.004  12.830
60448SOL     OW83240  12.794   7.725   3.336
60448SOL    HW183241  12.885   7.694   3.344
60448SOL    HW283242  12.745   7.669   3.396
60449SOL     OW83243  13.324   8.428  11.192
60449SOL    HW183244  13.348   8.372  11.266
60449SOL    HW283245  13.386   8.403  11.123
60450SOL     OW83246   6.030   4.573   6.460
60450SOL    HW183247   6.069   4.510   6.399
60450SOL    HW283248   5.936   4.566   6.444
60451SOL     OW83249  14.717  13.719  11.334
60451SOL    HW183250  14.642  13.778  11.341
60451SOL    HW283251  14.680  13.638  11.297
60452SOL     OW83252   8.329  14.039   0.771
60452SOL    HW183253   8.268  14.067   0.840
60452SOL    HW283254   8.273  14.002   0.703
60453SOL     OW83255   5.690   9.735  11.746
60453SOL    HW183256   5.651   9.745  11.833
60453SOL    HW283257   5.756   9.803  11.740
60454SOL     OW83258   4.571  14.548   3.067
60454SOL    HW183259   4.544  14.527   2.977
60454SOL    HW283260   4.491  14.577   3.110
60455SOL     OW83261   0.363  13.407   3.244
60455SOL    HW183262   0.285  13.357   3.269
60455SOL    HW283263   0.388  13.453   3.324
60456SOL     OW83264   4.818   8.914   8.295
60456SOL    HW183265   4.738   8.862   8.301
60456SOL    HW283266   4.856   8.909   8.383
60457SOL     OW83267   1.928   9.632   6.313
60457SOL    HW183268   1.916   9.691   6.387
60457SOL    HW283269   1.946   9.547   6.352
60458SOL     OW83270  11.618   4.934   3.156
60458SOL    HW183271  11.542   4.954   3.102
60458SOL    HW283272  11.582   4.899   3.237
60459SOL     OW83273   5.537   8.999   3.819
60459SOL    HW183274   5.486   9.055   3.761
60459SOL    HW283275   5.627   9.010   3.789
60460SOL     OW83276   2.874   3.402   6.490
60460SOL    HW183277   2.947   3.389   6.550
60460SOL    HW283278   2.808   3.339   6.518
60461SOL     OW83279   7.236   3.112   0.286
60461SOL    HW183280   7.313   3.057   0.292
60461SOL    HW283281   7.270   3.201   0.296
60462SOL     OW83282   4.880  14.875   0.045
60462SOL    HW183283   4.796  14.875   0.090
60462SOL    HW283284   4.944   0.008   0.115
60463SOL     OW83285   9.297   5.184   2.786
60463SOL    HW183286   9.387   5.164   2.814
60463SOL    HW283287   9.298   5.168   2.691
60464SOL     OW83288   9.137   8.983   6.518
60464SOL    HW183289   9.168   8.965   6.429
60464SOL    HW283290   9.061   9.039   6.506
60465SOL     OW83291  13.860  13.303  13.477
60465SOL    HW183292  13.951  13.272  13.469
60465SOL    HW283293  13.835  13.327  13.388
60466SOL     OW83294   2.725  10.114   7.227
60466SOL    HW183295   2.668  10.107   7.150
60466SOL    HW283296   2.771  10.031   7.230
60467SOL     OW83297  13.868   0.448   4.064
60467SOL    HW183298  13.889   0.358   4.087
60467SOL    HW283299  13.777   0.460   4.092
60468SOL     OW83300   6.236   0.839   7.065
60468SOL    HW183301   6.144   0.839   7.039
60468SOL    HW283302   6.283   0.813   6.986
60469SOL     OW83303  11.340   0.177   2.594
60469SOL    HW183304  11.326   0.231   2.672
60469SOL    HW283305  11.432   0.151   2.600
60470SOL     OW83306  10.449   5.390  13.427
60470SOL    HW183307  10.456   5.295  13.430
60470SOL    HW283308  10.371   5.407  13.374
60471SOL     OW83309  12.622   7.430   5.148
60471SOL    HW183310  12.622   7.374   5.070
60471SOL    HW283311  12.535   7.419   5.185
60472SOL     OW83312   7.365   8.044  10.869
60472SOL    HW183313   7.283   8.069  10.913
60472SOL    HW283314   7.336   7.990  10.795
60473SOL     OW83315  10.936   3.753   5.461
60473SOL    HW183316  10.852   3.720   5.495
60473SOL    HW283317  10.985   3.777   5.539
60474SOL     OW83318   1.046   3.939  14.843
60474SOL    HW183319   1.120   3.877  14.840
60474SOL    HW283320   1.029   3.950   0.055
60475SOL     OW83321  10.193  11.067   8.290
60475SOL    HW183322  10.141  10.987   8.281
60475SOL    HW283323  10.167  11.121   8.216
60476SOL     OW83324   8.461  14.065  12.658
60476SOL    HW183325   8.385  14.026  12.700
60476SOL    HW283326   8.469  14.019  12.574
60477SOL     OW83327   7.463   9.095  10.550
60477SOL    HW183328   7.553   9.083  10.580
60477SOL    HW283329   7.471   9.154  10.475
60478SOL     OW83330  12.690   2.364   9.493
60478SOL    HW183331  12.761   2.376   9.556
60478SOL    HW283332  12.730   2.385   9.408
60479SOL     OW83333   4.425  11.110  13.017
60479SOL    HW183334   4.412  11.145  13.105
60479SOL    HW283335   4.436  11.016  13.030
60480SOL     OW83336   5.916   8.788   9.778
60480SOL    HW183337   5.877   8.747   9.701
60480SOL    HW283338   5.896   8.881   9.767
60481SOL     OW83339   2.226   1.328   6.581
60481SOL    HW183340   2.154   1.330   6.519
60481SOL    HW283341   2.227   1.238   6.614
60482SOL     OW83342   3.240   5.094   4.759
60482SOL    HW183343   3.173   5.052   4.704
60482SOL    HW283344   3.213   5.185   4.764
60483SOL     OW83345   9.070   2.813  12.642
60483SOL    HW183346   9.074   2.816  12.737
60483SOL    HW283347   9.115   2.892  12.613
60484SOL     OW83348   9.682  13.981   7.484
60484SOL    HW183349   9.633  14.062   7.466
60484SOL    HW283350   9.746  13.975   7.412
60485SOL     OW83351   9.599   9.599   7.285
60485SOL    HW183352   9.605   9.591   7.190
60485SOL    HW283353   9.556   9.519   7.314
60486SOL     OW83354   8.345   7.904   7.731
60486SOL    HW183355   8.407   7.838   7.702
60486SOL    HW283356   8.399   7.982   7.748
60487SOL     OW83357  14.121   7.998   0.597
60487SOL    HW183358  14.076   8.071   0.640
60487SOL    HW283359  14.101   8.009   0.504
60488SOL     OW83360   4.206  14.675   7.456
60488SOL    HW183361   4.247  14.593   7.428
60488SOL    HW283362   4.119  14.648   7.488
60489SOL     OW83363  10.623  12.691  11.821
60489SOL    HW183364  10.547  12.654  11.866
60489SOL    HW283365  10.678  12.616  11.800
60490SOL     OW83366  13.804   6.692   1.991
60490SOL    HW183367  13.856   6.631   2.044
60490SOL    HW283368  13.808   6.775   2.039
60491SOL     OW83369   1.838   8.438  12.278
60491SOL    HW183370   1.770   8.491  12.320
60491SOL    HW283371   1.901   8.502  12.245
60492SOL     OW83372  12.028  14.219  10.936
60492SOL    HW183373  12.085  14.142  10.936
60492SOL    HW283374  12.085  14.290  10.905
60493SOL     OW83375   3.981   3.824  12.856
60493SOL    HW183376   3.906   3.858  12.905
60493SOL    HW283377   4.050   3.815  12.921
60494SOL     OW83378   2.002   0.077   6.873
60494SOL    HW183379   2.021  14.865   6.874
60494SOL    HW283380   1.916   0.084   6.914
60495SOL     OW83381   9.799   0.897  10.935
60495SOL    HW183382   9.858   0.863  11.004
60495SOL    HW283383   9.746   0.821  10.910
60496SOL     OW83384   8.235   6.812   3.678
60496SOL    HW183385   8.252   6.813   3.773
60496SOL    HW283386   8.231   6.905   3.654
60497SOL     OW83387   5.084   4.974  11.777
60497SOL    HW183388   5.093   4.896  11.832
60497SOL    HW283389   5.171   4.985  11.737
60498SOL     OW83390   3.171   6.052   4.856
60498SOL    HW183391   3.232   5.988   4.891
60498SOL    HW283392   3.084   6.015   4.873
60499SOL     OW83393   9.863  10.897   5.964
60499SOL    HW183394   9.819  10.965   6.015
60499SOL    HW283395   9.936  10.942   5.922
60500SOL     OW83396   9.619   7.456   2.678
60500SOL    HW183397   9.689   7.393   2.665
60500SOL    HW283398   9.613   7.504   2.595
60501SOL     OW83399   4.897   1.532   3.776
60501SOL    HW183400   4.834   1.554   3.708
60501SOL    HW283401   4.887   1.437   3.788
60502SOL     OW83402   3.720   6.677   0.883
60502SOL    HW183403   3.700   6.590   0.916
60502SOL    HW283404   3.660   6.689   0.809
60503SOL     OW83405  13.016   3.075   9.013
60503SOL    HW183406  13.052   2.991   9.042
60503SOL    HW283407  13.032   3.134   9.086
60504SOL     OW83408   0.251   9.559  10.059
60504SOL    HW183409   0.158   9.581  10.048
60504SOL    HW283410   0.271   9.589  10.148
60505SOL     OW83411   9.719   3.055   6.422
60505SOL    HW183412   9.647   3.044   6.360
60505SOL    HW283413   9.777   3.119   6.381
60506SOL     OW83414   9.228   7.741  11.487
60506SOL    HW183415   9.263   7.817  11.441
60506SOL    HW283416   9.305   7.690  11.511
60507SOL     OW83417  14.127   2.455   0.053
60507SOL    HW183418  14.168   2.531   0.096
60507SOL    HW283419  14.036   2.482   0.039
60508SOL     OW83420   0.252  11.060   5.046
60508SOL    HW183421   0.328  11.014   5.082
60508SOL    HW283422   0.181  11.039   5.107
60509SOL     OW83423  14.817   5.307   4.950
60509SOL    HW183424  14.782   5.324   4.862
60509SOL    HW283425  14.853   5.219   4.944
60510SOL     OW83426   7.683  13.959   5.257
60510SOL    HW183427   7.621  13.959   5.184
60510SOL    HW283428   7.632  13.930   5.332
60511SOL     OW83429   6.571   5.282   7.200
60511SOL    HW183430   6.574   5.366   7.155
60511SOL    HW283431   6.478   5.268   7.218
60512SOL     OW83432   0.344   1.929  13.752
60512SOL    HW183433   0.394   1.906  13.674
60512SOL    HW283434   0.310   2.017  13.734
60513SOL     OW83435   2.783   1.227  12.087
60513SOL    HW183436   2.812   1.288  12.019
60513SOL    HW283437   2.732   1.281  12.147
60514SOL     OW83438  11.167   9.534  11.415
60514SOL    HW183439  11.158   9.503  11.505
60514SOL    HW283440  11.086   9.581  11.397
60515SOL     OW83441   0.732  11.566   5.448
60515SOL    HW183442   0.639  11.551   5.467
60515SOL    HW283443   0.751  11.650   5.489
60516SOL     OW83444   3.048   2.196  13.569
60516SOL    HW183445   3.015   2.240  13.491
60516SOL    HW283446   3.095   2.264  13.617
60517SOL     OW83447   1.644   8.297  14.621
60517SOL    HW183448   1.659   8.219  14.568
60517SOL    HW283449   1.696   8.365  14.577
60518SOL     OW83450  12.215   1.358   0.250
60518SOL    HW183451  12.127   1.357   0.288
60518SOL    HW283452  12.262   1.425   0.299
60519SOL     OW83453   9.076  11.710  11.497
60519SOL    HW183454   8.986  11.680  11.493
60519SOL    HW283455   9.076  11.792  11.447
60520SOL     OW83456  11.530   9.861   7.268
60520SOL    HW183457  11.472   9.927   7.305
60520SOL    HW283458  11.527   9.789   7.331
60521SOL     OW83459   2.938   6.871  13.512
60521SOL    HW183460   2.904   6.785  13.492
60521SOL    HW283461   2.863   6.920  13.546
60522SOL     OW83462  12.843  11.578  14.869
60522SOL    HW183463  12.756  11.609   0.013
60522SOL    HW283464  12.894  11.579   0.067
60523SOL     OW83465   6.073   4.516  13.187
60523SOL    HW183466   6.073   4.523  13.283
60523SOL    HW283467   6.166   4.505  13.165
60524SOL     OW83468   8.817  13.221  13.696
60524SOL    HW183469   8.885  13.280  13.731
60524SOL    HW283470   8.820  13.145  13.754
60525SOL     OW83471   8.392  11.146  11.499
60525SOL    HW183472   8.454  11.143  11.426
60525SOL    HW283473   8.393  11.238  11.526
60526SOL     OW83474   7.034   7.355   9.163
60526SOL    HW183475   6.953   7.348   9.112
60526SOL    HW283476   7.086   7.279   9.136
60527SOL     OW83477   4.143  12.492   7.685
60527SOL    HW183478   4.223  12.543   7.674
60527SOL    HW283479   4.099  12.531   7.760
60528SOL     OW83480   0.299  11.453   7.662
60528SOL    HW183481   0.236  11.430   7.731
60528SOL    HW283482   0.248  11.508   7.602
60529SOL     OW83483   6.772   2.861   8.626
60529SOL    HW183484   6.822   2.935   8.592
60529SOL    HW283485   6.745   2.812   8.548
60530SOL     OW83486   1.995   7.888  12.817
60530SOL    HW183487   2.015   7.819  12.881
60530SOL    HW283488   1.947   7.843  12.747
60531SOL     OW83489   8.001  10.771   4.796
60531SOL    HW183490   8.088  10.797   4.826
60531SOL    HW283491   7.956  10.744   4.876
60532SOL     OW83492   3.633  14.765   1.844
60532SOL    HW183493   3.702  14.808   1.895
60532SOL    HW283494   3.574  14.835   1.819
60533SOL     OW83495  11.858  13.971   3.430
60533SOL    HW183496  11.849  13.897   3.489
60533SOL    HW283497  11.769  13.990   3.401
60534SOL     OW83498  14.252  11.253  14.703
60534SOL    HW183499  14.325  11.224  14.647
60534SOL    HW283500  14.214  11.172  14.735
60535SOL     OW83501   3.652   0.229  12.838
60535SOL    HW183502   3.633   0.196  12.925
60535SOL    HW283503   3.654   0.151  12.782
60536SOL     OW83504   5.507  12.718   4.439
60536SOL    HW183505   5.565  12.724   4.515
60536SOL    HW283506   5.419  12.720   4.476
60537SOL     OW83507   0.417   8.036   6.742
60537SOL    HW183508   0.463   7.980   6.805
60537SOL    HW283509   0.424   7.989   6.659
60538SOL     OW83510  12.246   5.681   3.433
60538SOL    HW183511  12.207   5.599   3.402
60538SOL    HW283512  12.186   5.713   3.499
60539SOL     OW83513   3.027  14.441   9.716
60539SOL    HW183514   3.118  14.465   9.731
60539SOL    HW283515   3.023  14.347   9.734
60540SOL     OW83516  13.614   7.353   4.652
60540SOL    HW183517  13.576   7.360   4.740
60540SOL    HW283518  13.561   7.413   4.599
60541SOL     OW83519   2.539   0.565   7.849
60541SOL    HW183520   2.624   0.592   7.884
60541SOL    HW283521   2.536   0.471   7.864
60542SOL     OW83522   3.886  14.271   1.310
60542SOL    HW183523   3.841  14.250   1.392
60542SOL    HW283524   3.822  14.321   1.259
60543SOL     OW83525   4.557   0.691   0.183
60543SOL    HW183526   4.490   0.710   0.248
60543SOL    HW283527   4.523   0.726   0.101
60544SOL     OW83528  13.204  11.368   3.819
60544SOL    HW183529  13.254  11.381   3.738
60544SOL    HW283530  13.180  11.275   3.818
60545SOL     OW83531   6.377  11.722   3.176
60545SOL    HW183532   6.372  11.714   3.080
60545SOL    HW283533   6.373  11.632   3.208
60546SOL     OW83534   7.723  12.018  11.125
60546SOL    HW183535   7.638  12.062  11.120
60546SOL    HW283536   7.786  12.085  11.101
60547SOL     OW83537   2.127   7.031  10.336
60547SOL    HW183538   2.036   7.026  10.309
60547SOL    HW283539   2.168   7.090  10.273
60548SOL     OW83540  13.915   2.611  12.156
60548SOL    HW183541  14.009   2.630  12.150
60548SOL    HW283542  13.887   2.605  12.064
60549SOL     OW83543  12.261   9.209   3.082
60549SOL    HW183544  12.254   9.169   3.169
60549SOL    HW283545  12.354   9.200   3.059
60550SOL     OW83546   3.472  11.718   5.668
60550SOL    HW183547   3.506  11.738   5.756
60550SOL    HW283548   3.498  11.792   5.614
60551SOL     OW83549  11.078   4.891   9.550
60551SOL    HW183550  11.136   4.871   9.624
60551SOL    HW283551  11.100   4.826   9.484
60552SOL     OW83552  14.426  12.547   4.386
60552SOL    HW183553  14.437  12.485   4.457
60552SOL    HW283554  14.505  12.600   4.387
60553SOL     OW83555  13.868   9.764   0.335
60553SOL    HW183556  13.864   9.836   0.398
60553SOL    HW283557  13.815   9.793   0.261
60554SOL     OW83558  12.747   3.835   6.842
60554SOL    HW183559  12.711   3.849   6.930
60554SOL    HW283560  12.841   3.825   6.857
60555SOL     OW83561   7.907   8.374   0.298
60555SOL    HW183562   7.926   8.466   0.314
60555SOL    HW283563   7.878   8.371   0.207
60556SOL     OW83564   5.363   4.622   9.552
60556SOL    HW183565   5.293   4.674   9.591
60556SOL    HW283566   5.317   4.548   9.511
60557SOL     OW83567   2.446  10.704   1.345
60557SOL    HW183568   2.541  10.699   1.345
60557SOL    HW283569   2.417  10.623   1.304
60558SOL     OW83570   1.364   1.505   1.464
60558SOL    HW183571   1.288   1.520   1.520
60558SOL    HW283572   1.430   1.568   1.496
60559SOL     OW83573   8.080   4.163   9.663
60559SOL    HW183574   8.149   4.100   9.687
60559SOL    HW283575   8.081   4.227   9.734
60560SOL     OW83576   9.893  10.051   4.373
60560SOL    HW183577   9.966   9.994   4.397
60560SOL    HW283578   9.842  10.000   4.309
60561SOL     OW83579   5.856   9.518   6.384
60561SOL    HW183580   5.899   9.554   6.307
60561SOL    HW283581   5.764   9.543   6.375
60562SOL     OW83582  13.781   0.642   9.016
60562SOL    HW183583  13.706   0.597   9.054
60562SOL    HW283584  13.773   0.627   8.922
60563SOL     OW83585  13.858  11.322   3.616
60563SOL    HW183586  13.891  11.399   3.570
60563SOL    HW283587  13.890  11.332   3.706
60564SOL     OW83588   2.198  13.898   0.209
60564SOL    HW183589   2.215  13.822   0.264
60564SOL    HW283590   2.211  13.866   0.119
60565SOL     OW83591  11.944   9.407   3.441
60565SOL    HW183592  11.891   9.486   3.444
60565SOL    HW283593  11.949   9.378   3.532
60566SOL     OW83594  12.908   4.569   8.532
60566SOL    HW183595  12.925   4.510   8.605
60566SOL    HW283596  12.895   4.654   8.573
60567SOL     OW83597   0.618   3.653   9.715
60567SOL    HW183598   0.702   3.643   9.759
60567SOL    HW283599   0.556   3.671   9.786
60568SOL     OW83600  11.438   6.296   5.362
60568SOL    HW183601  11.344   6.285   5.349
60568SOL    HW283602  11.446   6.327   5.453
60569SOL     OW83603  13.848   5.340   7.186
60569SOL    HW183604  13.904   5.415   7.167
60569SOL    HW283605  13.828   5.302   7.101
60570SOL     OW83606   5.453   5.469   8.231
60570SOL    HW183607   5.528   5.504   8.280
60570SOL    HW283608   5.449   5.377   8.257
60571SOL     OW83609   5.331   4.887   3.475
60571SOL    HW183610   5.292   4.930   3.551
60571SOL    HW283611   5.410   4.939   3.456
60572SOL     OW83612   3.962   1.651   0.316
60572SOL    HW183613   4.043   1.600   0.312
60572SOL    HW283614   3.974   1.720   0.251
60573SOL     OW83615   3.026  11.495   3.894
60573SOL    HW183616   3.095  11.536   3.842
60573SOL    HW283617   3.052  11.403   3.900
60574SOL     OW83618   6.135  12.519  13.424
60574SOL    HW183619   6.147  12.456  13.352
60574SOL    HW283620   6.214  12.573  13.422
60575SOL     OW83621   9.200  10.891   5.885
60575SOL    HW183622   9.112  10.926   5.881
60575SOL    HW283623   9.201  10.821   5.819
60576SOL     OW83624  14.203   0.313   5.134
60576SOL    HW183625  14.133   0.263   5.176
60576SOL    HW283626  14.282   0.262   5.148
60577SOL     OW83627  14.397  14.359   7.024
60577SOL    HW183628  14.318  14.397   7.065
60577SOL    HW283629  14.454  14.337   7.098
60578SOL     OW83630   0.625  11.200   7.160
60578SOL    HW183631   0.544  11.161   7.196
60578SOL    HW283632   0.673  11.231   7.237
60579SOL     OW83633  12.442   5.634   7.781
60579SOL    HW183634  12.398   5.704   7.830
60579SOL    HW283635  12.485   5.581   7.848
60580SOL     OW83636  11.551   7.781  13.587
60580SOL    HW183637  11.527   7.837  13.513
60580SOL    HW283638  11.608   7.836  13.641
60581SOL     OW83639   3.664  14.330   3.109
60581SOL    HW183640   3.674  14.389   3.035
60581SOL    HW283641   3.671  14.387   3.186
60582SOL     OW83642  10.102  13.388   0.372
60582SOL    HW183643  10.092  13.483   0.383
60582SOL    HW283644  10.036  13.351   0.431
60583SOL     OW83645  11.545   1.596  13.200
60583SOL    HW183646  11.534   1.501  13.199
60583SOL    HW283647  11.549   1.618  13.293
60584SOL     OW83648   2.172   8.261   9.095
60584SOL    HW183649   2.124   8.229   9.019
60584SOL    HW283650   2.194   8.183   9.144
60585SOL     OW83651   6.936   3.153   4.083
60585SOL    HW183652   7.027   3.179   4.095
60585SOL    HW283653   6.915   3.098   4.158
60586SOL     OW83654   8.179   4.498   4.839
60586SOL    HW183655   8.197   4.540   4.923
60586SOL    HW283656   8.248   4.433   4.830
60587SOL     OW83657   6.565  13.725   6.255
60587SOL    HW183658   6.483  13.765   6.226
60587SOL    HW283659   6.633  13.788   6.230
60588SOL     OW83660   8.571   7.399  12.576
60588SOL    HW183661   8.662   7.415  12.601
60588SOL    HW283662   8.577   7.362  12.488
60589SOL     OW83663   2.152   0.204   3.410
60589SOL    HW183664   2.197   0.136   3.462
60589SOL    HW283665   2.066   0.166   3.391
60590SOL     OW83666   0.107   3.349   5.535
60590SOL    HW183667   0.150   3.363   5.620
60590SOL    HW283668   0.019   3.382   5.546
60591SOL     OW83669   1.399   0.562   0.153
60591SOL    HW183670   1.451   0.549   0.074
60591SOL    HW283671   1.464   0.568   0.223
60592SOL     OW83672   2.074  14.761   4.538
60592SOL    HW183673   2.165  14.736   4.524
60592SOL    HW283674   2.048  14.713   4.616
60593SOL     OW83675  12.909   6.317   6.979
60593SOL    HW183676  12.868   6.233   6.961
60593SOL    HW283677  12.944   6.345   6.894
60594SOL     OW83678  11.340  11.346   7.241
60594SOL    HW183679  11.274  11.414   7.249
60594SOL    HW283680  11.367  11.349   7.149
60595SOL     OW83681   7.707  12.237   8.073
60595SOL    HW183682   7.619  12.212   8.047
60595SOL    HW283683   7.760  12.158   8.058
60596SOL     OW83684   4.278   5.591   1.783
60596SOL    HW183685   4.281   5.510   1.733
60596SOL    HW283686   4.359   5.591   1.834
60597SOL     OW83687   8.517   8.517   3.223
60597SOL    HW183688   8.425   8.518   3.198
60597SOL    HW283689   8.516   8.497   3.317
60598SOL     OW83690   1.135  11.120   3.517
60598SOL    HW183691   1.129  11.129   3.612
60598SOL    HW283692   1.058  11.068   3.492
60599SOL     OW83693   8.621  11.600  13.010
60599SOL    HW183694   8.621  11.693  12.989
60599SOL    HW283695   8.640  11.596  13.104
60600SOL     OW83696  10.783  11.968  13.596
60600SOL    HW183697  10.873  11.936  13.587
60600SOL    HW283698  10.730  11.888  13.597
60601SOL     OW83699  13.135   1.033   0.108
60601SOL    HW183700  13.061   1.087   0.083
60601SOL    HW283701  13.096   0.952   0.142
60602SOL     OW83702   8.179  10.237   4.108
60602SOL    HW183703   8.114  10.297   4.145
60602SOL    HW283704   8.160  10.238   4.014
60603SOL     OW83705  11.865   5.693   8.569
60603SOL    HW183706  11.802   5.712   8.499
60603SOL    HW283707  11.845   5.757   8.637
60604SOL     OW83708  11.342   9.750   7.612
60604SOL    HW183709  11.338   9.655   7.603
60604SOL    HW283710  11.252   9.775   7.635
60605SOL     OW83711  11.402  10.131   5.082
60605SOL    HW183712  11.447  10.086   5.154
60605SOL    HW283713  11.471  10.147   5.018
60606SOL     OW83714   0.697   2.446   8.472
60606SOL    HW183715   0.678   2.385   8.544
60606SOL    HW283716   0.700   2.532   8.514
60607SOL     OW83717   1.591  13.375  14.859
60607SOL    HW183718   1.536  13.399   0.051
60607SOL    HW283719   1.657  13.444  14.855
60608SOL     OW83720  12.040   4.549   1.898
60608SOL    HW183721  11.969   4.485   1.886
60608SOL    HW283722  12.040   4.568   1.992
60609SOL     OW83723  11.827  12.938   5.985
60609SOL    HW183724  11.876  12.871   5.937
60609SOL    HW283725  11.890  12.973   6.048
60610SOL     OW83726  13.304   1.444   3.880
60610SOL    HW183727  13.236   1.505   3.851
60610SOL    HW283728  13.285   1.429   3.973
60611SOL     OW83729   6.294   1.416   7.749
60611SOL    HW183730   6.362   1.358   7.714
60611SOL    HW283731   6.268   1.470   7.675
60612SOL     OW83732  12.425   1.803   2.759
60612SOL    HW183733  12.488   1.867   2.726
60612SOL    HW283734  12.479   1.737   2.804
60613SOL     OW83735  13.186  11.578   8.228
60613SOL    HW183736  13.164  11.504   8.285
60613SOL    HW283737  13.103  11.601   8.186
60614SOL     OW83738   1.397   8.445  13.022
60614SOL    HW183739   1.378   8.530  13.062
60614SOL    HW283740   1.462   8.464  12.955
60615SOL     OW83741   2.274   2.949  13.016
60615SOL    HW183742   2.319   2.865  13.017
60615SOL    HW283743   2.192   2.931  12.970
60616SOL     OW83744   6.437  14.578   3.086
60616SOL    HW183745   6.451  14.667   3.053
60616SOL    HW283746   6.344  14.574   3.107
60617SOL     OW83747   2.157   4.209   7.607
60617SOL    HW183748   2.193   4.221   7.695
60617SOL    HW283749   2.074   4.164   7.620
60618SOL     OW83750   2.864   7.350  13.170
60618SOL    HW183751   2.843   7.260  13.145
60618SOL    HW283752   2.834   7.358  13.260
60619SOL     OW83753  13.499  11.396  12.611
60619SOL    HW183754  13.466  11.481  12.638
60619SOL    HW283755  13.474  11.336  12.681
60620SOL     OW83756   9.496  12.208   2.940
60620SOL    HW183757   9.469  12.166   2.858
60620SOL    HW283758   9.592  12.208   2.936
60621SOL     OW83759  13.868   2.591  11.887
60621SOL    HW183760  13.870   2.585  11.792
60621SOL    HW283761  13.778   2.619  11.907
60622SOL     OW83762   1.056   0.558  10.050
60622SOL    HW183763   1.120   0.575  10.120
60622SOL    HW283764   1.098   0.493   9.995
60623SOL     OW83765  14.001  11.720   4.272
60623SOL    HW183766  13.992  11.813   4.292
60623SOL    HW283767  14.056  11.717   4.194
60624SOL     OW83768   0.449   9.901   3.905
60624SOL    HW183769   0.475   9.810   3.894
60624SOL    HW283770   0.472   9.921   3.996
60625SOL     OW83771  11.782  12.302  14.645
60625SOL    HW183772  11.818  12.214  14.631
60625SOL    HW283773  11.741  12.325  14.561
60626SOL     OW83774  12.464  14.635  12.742
60626SOL    HW183775  12.410  14.629  12.820
60626SOL    HW283776  12.554  14.628  12.774
60627SOL     OW83777  10.948   9.740   4.420
60627SOL    HW183778  10.853   9.747   4.413
60627SOL    HW283779  10.964   9.647   4.438
60628SOL     OW83780   3.910  12.443  14.371
60628SOL    HW183781   3.947  12.471  14.455
60628SOL    HW283782   3.899  12.525  14.322
60629SOL     OW83783  14.096   4.892   1.870
60629SOL    HW183784  14.172   4.896   1.812
60629SOL    HW283785  14.024   4.925   1.817
60630SOL     OW83786  10.385  14.194   8.977
60630SOL    HW183787  10.402  14.172   9.069
60630SOL    HW283788  10.290  14.196   8.970
60631SOL     OW83789   0.404   0.873   1.816
60631SOL    HW183790   0.423   0.853   1.725
60631SOL    HW283791   0.488   0.866   1.860
60632SOL     OW83792  13.653  13.499   8.929
60632SOL    HW183793  13.561  13.475   8.929
60632SOL    HW283794  13.687  13.467   8.845
60633SOL     OW83795   7.697   7.953  13.471
60633SOL    HW183796   7.647   8.034  13.466
60633SOL    HW283797   7.775   7.975  13.521
60634SOL     OW83798   6.185   0.256   1.237
60634SOL    HW183799   6.179   0.161   1.227
60634SOL    HW283800   6.107   0.291   1.193
60635SOL     OW83801   8.351   0.571   0.574
60635SOL    HW183802   8.428   0.584   0.629
60635SOL    HW283803   8.334   0.656   0.536
60636SOL     OW83804  14.532   3.875   4.024
60636SOL    HW183805  14.598   3.826   4.073
60636SOL    HW283806  14.526   3.959   4.070
60637SOL     OW83807  11.784   0.041   0.605
60637SOL    HW183808  11.852  14.857   0.587
60637SOL    HW283809  11.785   0.098   0.528
60638SOL     OW83810  14.823   1.032  12.089
60638SOL    HW183811  14.755   1.054  12.153
60638SOL    HW283812  14.780   1.044  12.004
60639SOL     OW83813   9.109   6.135   2.914
60639SOL    HW183814   9.125   6.219   2.956
60639SOL    HW283815   9.094   6.157   2.822
60640SOL     OW83816  12.043   3.190   9.193
60640SOL    HW183817  11.978   3.239   9.242
60640SOL    HW283818  12.037   3.101   9.228
60641SOL     OW83819   1.004  12.184   3.331
60641SOL    HW183820   1.094  12.156   3.344
60641SOL    HW283821   0.964  12.114   3.280
60642SOL     OW83822   8.713  13.954  11.238
60642SOL    HW183823   8.641  13.906  11.279
60642SOL    HW283824   8.779  13.962  11.307
60643SOL     OW83825   3.554   3.164   4.265
60643SOL    HW183826   3.570   3.243   4.317
60643SOL    HW283827   3.624   3.104   4.290
60644SOL     OW83828   4.137   4.668   1.621
60644SOL    HW183829   4.053   4.712   1.635
60644SOL    HW283830   4.179   4.669   1.707
60645SOL     OW83831   7.450  14.386   8.752
60645SOL    HW183832   7.492  14.351   8.831
60645SOL    HW283833   7.401  14.312   8.716
60646SOL     OW83834  14.053   5.637   5.652
60646SOL    HW183835  13.990   5.622   5.722
60646SOL    HW283836  14.009   5.699   5.593
60647SOL     OW83837  12.913   7.505   2.051
60647SOL    HW183838  12.940   7.422   2.013
60647SOL    HW283839  12.993   7.542   2.089
60648SOL     OW83840  10.358  13.739   8.236
60648SOL    HW183841  10.300  13.741   8.160
60648SOL    HW283842  10.441  13.705   8.202
60649SOL     OW83843   4.062  13.302   3.720
60649SOL    HW183844   3.972  13.330   3.738
60649SOL    HW283845   4.085  13.246   3.794
60650SOL     OW83846  11.011  12.788   0.703
60650SOL    HW183847  10.980  12.795   0.793
60650SOL    HW283848  11.104  12.812   0.708
60651SOL     OW83849   0.753   7.605   9.938
60651SOL    HW183850   0.804   7.559   9.872
60651SOL    HW283851   0.746   7.694   9.905
60652SOL     OW83852   1.078   5.483  11.173
60652SOL    HW183853   1.040   5.517  11.092
60652SOL    HW283854   1.071   5.556  11.235
60653SOL     OW83855   3.928  13.749   9.831
60653SOL    HW183856   3.969  13.831   9.857
60653SOL    HW283857   3.895  13.766   9.743
60654SOL     OW83858  14.882   4.465  11.964
60654SOL    HW183859  14.873   4.412  11.885
60654SOL    HW283860  14.870   4.555  11.933
60655SOL     OW83861  11.214  13.297   4.677
60655SOL    HW183862  11.159  13.281   4.754
60655SOL    HW283863  11.164  13.261   4.604
60656SOL     OW83864   5.981  14.666   1.169
60656SOL    HW183865   5.914  14.647   1.102
60656SOL    HW283866   6.011  14.580   1.197
60657SOL     OW83867  10.369   4.324   4.770
60657SOL    HW183868  10.337   4.366   4.690
60657SOL    HW283869  10.358   4.230   4.753
60658SOL     OW83870   0.442   0.528   6.337
60658SOL    HW183871   0.537   0.531   6.329
60658SOL    HW283872   0.426   0.512   6.430
60659SOL     OW83873  12.664   2.399  14.848
60659SOL    HW183874  12.673   2.466   0.033
60659SOL    HW283875  12.754   2.381  14.820
60660SOL     OW83876   4.469   9.840   1.595
60660SOL    HW183877   4.510   9.781   1.531
60660SOL    HW283878   4.403   9.887   1.544
60661SOL     OW83879   2.485  14.671   8.293
60661SOL    HW183880   2.552  14.604   8.282
60661SOL    HW283881   2.448  14.683   8.206
60662SOL     OW83882   9.877   8.907  13.765
60662SOL    HW183883   9.922   8.920  13.681
60662SOL    HW283884   9.835   8.991  13.783
60663SOL     OW83885   8.214  12.338   5.324
60663SOL    HW183886   8.237  12.287   5.247
60663SOL    HW283887   8.162  12.278   5.378
60664SOL     OW83888   0.078   4.434  14.813
60664SOL    HW183889   0.079   4.383  14.733
60664SOL    HW283890   0.156   4.406  14.860
60665SOL     OW83891  14.326  10.558   4.165
60665SOL    HW183892  14.279  10.485   4.206
60665SOL    HW283893  14.403  10.571   4.220
60666SOL     OW83894  13.344   6.386   1.170
60666SOL    HW183895  13.342   6.457   1.106
60666SOL    HW283896  13.434   6.383   1.202
60667SOL     OW83897   1.667   4.494  13.770
60667SOL    HW183898   1.735   4.487  13.703
60667SOL    HW283899   1.600   4.549  13.730
60668SOL     OW83900   7.399   3.940  11.071
60668SOL    HW183901   7.389   3.851  11.104
60668SOL    HW283902   7.320   3.957  11.021
60669SOL     OW83903  13.522   1.362   1.057
60669SOL    HW183904  13.568   1.396   0.980
60669SOL    HW283905  13.526   1.433   1.121
60670SOL     OW83906   1.111   8.957   9.576
60670SOL    HW183907   1.150   8.901   9.643
60670SOL    HW283908   1.160   8.936   9.496
60671SOL     OW83909  12.996   6.419   9.389
60671SOL    HW183910  13.087   6.413   9.359
60671SOL    HW283911  12.997   6.489   9.454
60672SOL     OW83912  12.770   4.455   6.883
60672SOL    HW183913  12.793   4.386   6.946
60672SOL    HW283914  12.817   4.431   6.803
60673SOL     OW83915   6.702  14.711   9.726
60673SOL    HW183916   6.796  14.707   9.744
60673SOL    HW283917   6.697  14.732   9.633
60674SOL     OW83918  11.902   1.535   7.983
60674SOL    HW183919  11.907   1.443   8.009
60674SOL    HW283920  11.843   1.575   8.048
60675SOL     OW83921   6.087   1.835   1.641
60675SOL    HW183922   6.042   1.817   1.559
60675SOL    HW283923   6.032   1.795   1.708
60676SOL     OW83924   0.047  11.305   8.876
60676SOL    HW183925  14.881  11.386   8.864
60676SOL    HW283926   0.098  11.318   8.956
60677SOL     OW83927   8.327   1.021   9.015
60677SOL    HW183928   8.273   1.028   9.094
60677SOL    HW283929   8.409   0.984   9.046
60678SOL     OW83930   2.692   9.853  14.456
60678SOL    HW183931   2.646   9.868  14.539
60678SOL    HW283932   2.682   9.759  14.440
60679SOL     OW83933   7.234  10.265  14.226
60679SOL    HW183934   7.155  10.297  14.182
60679SOL    HW283935   7.285  10.224  14.156
60680SOL     OW83936   5.819  11.973   7.473
60680SOL    HW183937   5.854  11.888   7.447
60680SOL    HW283938   5.757  11.995   7.403
60681SOL     OW83939  13.385  11.706   3.075
60681SOL    HW183940  13.405  11.737   2.986
60681SOL    HW283941  13.412  11.778   3.132
60682SOL     OW83942   5.931   3.143  10.269
60682SOL    HW183943   5.947   3.118  10.360
60682SOL    HW283944   5.953   3.065  10.218
60683SOL     OW83945   4.088   5.083   1.117
60683SOL    HW183946   4.173   5.127   1.121
60683SOL    HW283947   4.030   5.148   1.077
60684SOL     OW83948  13.794   6.841   0.917
60684SOL    HW183949  13.753   6.842   1.004
60684SOL    HW283950  13.839   6.757   0.913
60685SOL     OW83951  11.056   6.109   2.281
60685SOL    HW183952  11.041   6.168   2.207
60685SOL    HW283953  11.152   6.106   2.289
60686SOL     OW83954   0.761   0.433   2.221
60686SOL    HW183955   0.808   0.363   2.266
60686SOL    HW283956   0.700   0.466   2.286
60687SOL     OW83957   6.405   3.525   2.791
60687SOL    HW183958   6.405   3.447   2.847
60687SOL    HW283959   6.320   3.522   2.747
60688SOL     OW83960  10.022  12.221   7.478
60688SOL    HW183961  10.009  12.250   7.388
60688SOL    HW283962  10.111  12.188   7.481
60689SOL     OW83963  10.036  11.938  12.949
60689SOL    HW183964  10.098  11.867  12.932
60689SOL    HW283965  10.091  12.017  12.955
60690SOL     OW83966  11.218   2.443  10.737
60690SOL    HW183967  11.309   2.424  10.759
60690SOL    HW283968  11.223   2.505  10.664
60691SOL     OW83969  14.012   4.657   1.954
60691SOL    HW183970  14.044   4.740   1.918
60691SOL    HW283971  14.079   4.593   1.930
60692SOL     OW83972  14.166   3.297   5.546
60692SOL    HW183973  14.095   3.331   5.492
60692SOL    HW283974  14.167   3.353   5.623
60693SOL     OW83975  12.813   3.227   1.464
60693SOL    HW183976  12.895   3.242   1.416
60693SOL    HW283977  12.762   3.306   1.450
60694SOL     OW83978   6.973   6.066   4.742
60694SOL    HW183979   6.928   6.142   4.779
60694SOL    HW283980   7.066   6.085   4.754
60695SOL     OW83981  12.965   7.568   5.450
60695SOL    HW183982  12.886   7.560   5.397
60695SOL    HW283983  12.969   7.660   5.474
60696SOL     OW83984   5.531  12.096  14.864
60696SOL    HW183985   5.490  12.181  14.850
60696SOL    HW283986   5.457  12.039   0.006
60697SOL     OW83987   6.531  10.590  10.948
60697SOL    HW183988   6.479  10.668  10.928
60697SOL    HW283989   6.589  10.617  11.019
60698SOL     OW83990  11.958   7.349   4.604
60698SOL    HW183991  11.886   7.295   4.572
60698SOL    HW283992  11.982   7.404   4.529
60699SOL     OW83993   8.369  11.713  11.452
60699SOL    HW183994   8.296  11.667  11.495
60699SOL    HW283995   8.336  11.733  11.364
60700SOL     OW83996  13.333   6.236   8.722
60700SOL    HW183997  13.368   6.186   8.795
60700SOL    HW283998  13.392   6.218   8.649
60701SOL     OW83999  11.653   6.256   6.511
60701SOL    HW184000  11.581   6.313   6.486
60701SOL    HW284001  11.732   6.305   6.486
60702SOL     OW84002   0.081   2.240   9.345
60702SOL    HW184003   0.066   2.276   9.433
60702SOL    HW284004   0.018   2.169   9.338
60703SOL     OW84005   6.638  14.197   5.796
60703SOL    HW184006   6.568  14.141   5.831
60703SOL    HW284007   6.595  14.280   5.775
60704SOL     OW84008   5.510   5.822   0.910
60704SOL    HW184009   5.492   5.896   0.853
60704SOL    HW284010   5.515   5.860   0.998
60705SOL     OW84011  11.601   8.555  11.982
60705SOL    HW184012  11.637   8.643  11.995
60705SOL    HW284013  11.577   8.525  12.070
60706SOL     OW84014   3.635   6.184  13.601
60706SOL    HW184015   3.679   6.191  13.517
60706SOL    HW284016   3.551   6.144  13.581
60707SOL     OW84017   1.325  14.520  13.478
60707SOL    HW184018   1.318  14.522  13.382
60707SOL    HW284019   1.341  14.428  13.499
60708SOL     OW84020  10.445   2.092  14.525
60708SOL    HW184021  10.524   2.100  14.471
60708SOL    HW284022  10.429   1.998  14.530
60709SOL     OW84023   2.837   4.915   0.726
60709SOL    HW184024   2.839   4.841   0.786
60709SOL    HW284025   2.745   4.942   0.724
60710SOL     OW84026   5.499   1.964   7.829
60710SOL    HW184027   5.524   1.911   7.904
60710SOL    HW284028   5.580   2.006   7.801
60711SOL     OW84029   3.666  11.022   5.706
60711SOL    HW184030   3.680  10.973   5.787
60711SOL    HW284031   3.753  11.056   5.684
60712SOL     OW84032  10.505   0.481   7.533
60712SOL    HW184033  10.475   0.507   7.446
60712SOL    HW284034  10.458   0.539   7.594
60713SOL     OW84035   8.223   9.624  12.449
60713SOL    HW184036   8.233   9.529  12.438
60713SOL    HW284037   8.141   9.634  12.497
60714SOL     OW84038  11.257   5.250   0.023
60714SOL    HW184039  11.239   5.210   0.108
60714SOL    HW284040  11.221   5.339   0.031
60715SOL     OW84041   4.729   1.494  14.248
60715SOL    HW184042   4.697   1.527  14.164
60715SOL    HW284043   4.770   1.410  14.226
60716SOL     OW84044  11.348   4.016  11.354
60716SOL    HW184045  11.325   4.109  11.357
60716SOL    HW284046  11.399   4.002  11.434
60717SOL     OW84047  11.500  14.711   8.905
60717SOL    HW184048  11.465  14.773   8.969
60717SOL    HW284049  11.552  14.649   8.957
60718SOL     OW84050   5.636   4.735   4.360
60718SOL    HW184051   5.622   4.829   4.373
60718SOL    HW284052   5.562   4.706   4.307
60719SOL     OW84053  14.766  14.821   8.829
60719SOL    HW184054  14.831  14.782   8.771
60719SOL    HW284055  14.801  14.808   8.917
60720SOL     OW84056   2.444   6.292   5.254
60720SOL    HW184057   2.361   6.334   5.230
60720SOL    HW284058   2.511   6.345   5.211
60721SOL     OW84059  12.722  13.785   9.827
60721SOL    HW184060  12.675  13.740   9.897
60721SOL    HW284061  12.744  13.871   9.864
60722SOL     OW84062   2.033   2.361   5.801
60722SOL    HW184063   2.063   2.281   5.844
60722SOL    HW284064   1.954   2.386   5.849
60723SOL     OW84065  12.616   5.592   8.444
60723SOL    HW184066  12.626   5.555   8.532
60723SOL    HW284067  12.595   5.516   8.389
60724SOL     OW84068   2.936   4.800   3.301
60724SOL    HW184069   3.023   4.767   3.326
60724SOL    HW284070   2.953   4.889   3.269
60725SOL     OW84071   5.930   4.237   0.229
60725SOL    HW184072   5.911   4.315   0.282
60725SOL    HW284073   5.989   4.269   0.161
60726SOL     OW84074   9.081   7.865   4.599
60726SOL    HW184075   9.035   7.856   4.683
60726SOL    HW284076   9.168   7.898   4.623
60727SOL     OW84077   6.325   0.017   3.850
60727SOL    HW184078   6.249   0.060   3.811
60727SOL    HW284079   6.360  14.844   3.780
60728SOL     OW84080   1.953  11.432   5.281
60728SOL    HW184081   1.968  11.379   5.203
60728SOL    HW284082   1.862  11.462   5.271
60729SOL     OW84083   6.007   8.979   4.640
60729SOL    HW184084   6.088   8.942   4.603
60729SOL    HW284085   5.966   8.906   4.686
60730SOL     OW84086   9.325   8.101   2.702
60730SOL    HW184087   9.375   8.044   2.761
60730SOL    HW284088   9.363   8.084   2.616
60731SOL     OW84089  13.814   4.786   4.381
60731SOL    HW184090  13.719   4.801   4.377
60731SOL    HW284091  13.851   4.872   4.399
60732SOL     OW84092   2.032  13.001  11.770
60732SOL    HW184093   1.989  13.035  11.692
60732SOL    HW284094   1.986  12.919  11.789
60733SOL     OW84095   5.760   9.220   6.086
60733SOL    HW184096   5.766   9.217   6.181
60733SOL    HW284097   5.672   9.252   6.068
60734SOL     OW84098   1.395   2.387  11.737
60734SOL    HW184099   1.401   2.309  11.792
60734SOL    HW284100   1.416   2.459  11.797
60735SOL     OW84101   6.917   0.756   0.599
60735SOL    HW184102   6.958   0.796   0.522
60735SOL    HW284103   6.944   0.664   0.595
60736SOL     OW84104   1.243   7.654   7.301
60736SOL    HW184105   1.315   7.622   7.355
60736SOL    HW284106   1.240   7.594   7.227
60737SOL     OW84107   4.075   2.029  10.128
60737SOL    HW184108   4.029   2.101  10.084
60737SOL    HW284109   4.099   2.065  10.213
60738SOL     OW84110   3.344   1.785   8.627
60738SOL    HW184111   3.343   1.850   8.698
60738SOL    HW284112   3.252   1.779   8.599
60739SOL     OW84113   3.443  12.074   1.651
60739SOL    HW184114   3.523  12.096   1.603
60739SOL    HW284115   3.470  12.075   1.743
60740SOL     OW84116   9.001   0.922  13.229
60740SOL    HW184117   9.003   0.861  13.304
60740SOL    HW284118   9.073   0.982  13.245
60741SOL     OW84119  10.613   2.680   5.977
60741SOL    HW184120  10.654   2.600   5.943
60741SOL    HW284121  10.565   2.716   5.903
60742SOL     OW84122   6.471   6.033   3.025
60742SOL    HW184123   6.530   5.972   3.069
60742SOL    HW284124   6.384   6.007   3.054
60743SOL     OW84125  11.321   5.260   1.649
60743SOL    HW184126  11.268   5.210   1.712
60743SOL    HW284127  11.366   5.192   1.598
60744SOL     OW84128   0.181  10.184   4.117
60744SOL    HW184129   0.138  10.257   4.160
60744SOL    HW284130   0.199  10.122   4.187
60745SOL     OW84131   8.611  13.882   1.086
60745SOL    HW184132   8.624  13.974   1.067
60745SOL    HW284133   8.573  13.881   1.174
60746SOL     OW84134   7.921   8.880  14.023
60746SOL    HW184135   7.893   8.904  13.934
60746SOL    HW284136   7.882   8.794  14.038
60747SOL     OW84137   9.476  11.647   9.411
60747SOL    HW184138   9.391  11.606   9.396
60747SOL    HW284139   9.509  11.666   9.323
60748SOL     OW84140  11.037   7.247   3.604
60748SOL    HW184141  11.113   7.299   3.631
60748SOL    HW284142  11.001   7.214   3.686
60749SOL     OW84143  14.654  13.399   1.829
60749SOL    HW184144  14.673  13.348   1.750
60749SOL    HW284145  14.689  13.486   1.809
60750SOL     OW84146   8.053   3.263  11.444
60750SOL    HW184147   8.112   3.292  11.375
60750SOL    HW284148   8.059   3.167  11.443
60751SOL     OW84149   0.564  10.769   0.069
60751SOL    HW184150   0.593  10.758  14.861
60751SOL    HW284151   0.588  10.687   0.113
60752SOL     OW84152  11.302   7.889   1.203
60752SOL    HW184153  11.286   7.923   1.115
60752SOL    HW284154  11.334   7.964   1.253
60753SOL     OW84155  10.506   2.315   5.693
60753SOL    HW184156  10.578   2.251   5.696
60753SOL    HW284157  10.429   2.265   5.722
60754SOL     OW84158  10.626  14.782   5.740
60754SOL    HW184159  10.570  14.705   5.740
60754SOL    HW284160  10.715  14.747   5.730
60755SOL     OW84161   0.544  12.851   2.225
60755SOL    HW184162   0.544  12.782   2.158
60755SOL    HW284163   0.487  12.919   2.188
60756SOL     OW84164  14.794   8.381   1.054
60756SOL    HW184165  14.853   8.306   1.044
60756SOL    HW284166  14.853   8.454   1.076
60757SOL     OW84167  12.518   4.340   8.214
60757SOL    HW184168  12.529   4.378   8.127
60757SOL    HW284169  12.432   4.297   8.211
60758SOL     OW84170  11.921  12.671   4.549
60758SOL    HW184171  11.947  12.678   4.641
60758SOL    HW284172  11.956  12.751   4.509
60759SOL     OW84173   6.390   2.316  12.463
60759SOL    HW184174   6.322   2.326  12.529
60759SOL    HW284175   6.472   2.313  12.514
60760SOL     OW84176  12.713   0.135   7.901
60760SOL    HW184177  12.639   0.197   7.899
60760SOL    HW284178  12.677   0.056   7.940
60761SOL     OW84179   8.631   1.679   0.884
60761SOL    HW184180   8.596   1.767   0.876
60761SOL    HW284181   8.594   1.645   0.965
60762SOL     OW84182   7.165   3.374   7.558
60762SOL    HW184183   7.131   3.293   7.521
60762SOL    HW284184   7.119   3.444   7.510
60763SOL     OW84185   1.699   7.638   9.659
60763SOL    HW184186   1.617   7.589   9.659
60763SOL    HW284187   1.749   7.601   9.586
60764SOL     OW84188   5.637   8.810   2.382
60764SOL    HW184189   5.660   8.897   2.414
60764SOL    HW284190   5.573   8.777   2.446
60765SOL     OW84191   6.964   9.696   0.752
60765SOL    HW184192   6.951   9.634   0.681
60765SOL    HW284193   7.008   9.646   0.821
60766SOL     OW84194   6.737   2.207  10.275
60766SOL    HW184195   6.829   2.188  10.258
60766SOL    HW284196   6.734   2.227  10.369
60767SOL     OW84197  10.253  13.957   0.643
60767SOL    HW184198  10.166  13.980   0.675
60767SOL    HW284199  10.239  13.933   0.551
60768SOL     OW84200   6.051  13.092  14.491
60768SOL    HW184201   6.038  13.111  14.398
60768SOL    HW284202   6.122  13.027  14.492
60769SOL     OW84203  11.890  14.225  10.452
60769SOL    HW184204  11.830  14.293  10.421
60769SOL    HW284205  11.851  14.194  10.534
60770SOL     OW84206   8.031   1.763  12.028
60770SOL    HW184207   8.012   1.783  11.937
60770SOL    HW284208   8.118   1.723  12.026
60771SOL     OW84209   7.185   5.587   7.360
60771SOL    HW184210   7.236   5.667   7.350
60771SOL    HW284211   7.120   5.609   7.428
60772SOL     OW84212   4.816   7.350   1.918
60772SOL    HW184213   4.809   7.347   1.822
60772SOL    HW284214   4.845   7.262   1.942
60773SOL     OW84215   3.821   7.006  11.318
60773SOL    HW184216   3.836   6.927  11.370
60773SOL    HW284217   3.892   7.065  11.342
60774SOL     OW84218   4.096   2.632  13.730
60774SOL    HW184219   4.067   2.553  13.683
60774SOL    HW284220   4.084   2.611  13.822
60775SOL     OW84221   1.542  10.209   7.306
60775SOL    HW184222   1.592  10.289   7.291
60775SOL    HW284223   1.536  10.201   7.401
60776SOL     OW84224   6.453  12.355   1.148
60776SOL    HW184225   6.520  12.414   1.112
60776SOL    HW284226   6.498  12.309   1.219
60777SOL     OW84227   7.485   0.200   3.650
60777SOL    HW184228   7.418   0.141   3.685
60777SOL    HW284229   7.510   0.161   3.567
60778SOL     OW84230  10.136  12.809  10.459
60778SOL    HW184231  10.222  12.839  10.430
60778SOL    HW284232  10.082  12.888  10.460
60779SOL     OW84233   2.633  10.472   0.197
60779SOL    HW184234   2.660  10.460   0.288
60779SOL    HW284235   2.538  10.484   0.201
60780SOL     OW84236  14.078  12.534  14.474
60780SOL    HW184237  14.145  12.592  14.511
60780SOL    HW284238  13.997  12.583  14.483
60781SOL     OW84239  11.416   4.896  10.227
60781SOL    HW184240  11.375   4.885  10.313
60781SOL    HW284241  11.509   4.881  10.242
60782SOL     OW84242  10.343   6.608   8.151
60782SOL    HW184243  10.343   6.676   8.219
60782SOL    HW284244  10.286   6.643   8.082
60783SOL     OW84245   2.301  14.810   7.503
60783SOL    HW184246   2.331   0.017   7.521
60783SOL    HW284247   2.367  14.754   7.543
60784SOL     OW84248  10.645   5.141  10.459
60784SOL    HW184249  10.594   5.121  10.381
60784SOL    HW284250  10.666   5.056  10.497
60785SOL     OW84251   6.515  13.419  13.617
60785SOL    HW184252   6.465  13.426  13.536
60785SOL    HW284253   6.507  13.505  13.658
60786SOL     OW84254   5.002   1.513   9.331
60786SOL    HW184255   5.040   1.468   9.406
60786SOL    HW284256   4.914   1.474   9.322
60787SOL     OW84257  10.816  11.642   3.077
60787SOL    HW184258  10.852  11.574   3.021
60787SOL    HW284259  10.888  11.666   3.136
60788SOL     OW84260   1.885   2.896   5.332
60788SOL    HW184261   1.796   2.880   5.302
60788SOL    HW284262   1.934   2.918   5.253
60789SOL     OW84263  11.076   4.698   5.639
60789SOL    HW184264  11.088   4.762   5.709
60789SOL    HW284265  11.059   4.750   5.560
60790SOL     OW84266   8.536   3.455  13.100
60790SOL    HW184267   8.528   3.547  13.074
60790SOL    HW284268   8.531   3.406  13.019
60791SOL     OW84269  10.134  12.745  12.747
60791SOL    HW184270  10.143  12.816  12.683
60791SOL    HW284271  10.185  12.774  12.822
60792SOL     OW84272  10.936  13.290   1.920
60792SOL    HW184273  11.025  13.255   1.913
60792SOL    HW284274  10.924  13.342   1.841
60793SOL     OW84275   7.053   5.960  12.659
60793SOL    HW184276   7.087   6.007  12.583
60793SOL    HW284277   7.130   5.922  12.700
60794SOL     OW84278  14.863   8.539   5.036
60794SOL    HW184279  14.867   8.513   5.128
60794SOL    HW284280  14.850   8.634   5.039
60795SOL     OW84281   2.364   0.380  12.837
60795SOL    HW184282   2.439   0.393  12.895
60795SOL    HW284283   2.289   0.375  12.896
60796SOL     OW84284  12.806   6.180   9.842
60796SOL    HW184285  12.838   6.221   9.763
60796SOL    HW284286  12.885   6.155   9.890
60797SOL     OW84287   7.280  10.089   1.423
60797SOL    HW184288   7.340  10.096   1.497
60797SOL    HW284289   7.208  10.149   1.444
60798SOL     OW84290   5.203   7.437   4.311
60798SOL    HW184291   5.176   7.459   4.400
60798SOL    HW284292   5.288   7.395   4.321
60799SOL     OW84293   5.246  11.874   1.899
60799SOL    HW184294   5.251  11.778   1.899
60799SOL    HW284295   5.310  11.901   1.964
60800SOL     OW84296  10.971   6.210   9.482
60800SOL    HW184297  10.898   6.252   9.437
60800SOL    HW284298  11.013   6.156   9.416
60801SOL     OW84299   0.028  13.459  12.716
60801SOL    HW184300   0.116  13.496  12.726
60801SOL    HW284301   0.003  13.434  12.805
60802SOL     OW84302   0.146   6.623   0.509
60802SOL    HW184303   0.183   6.614   0.596
60802SOL    HW284304   0.128   6.533   0.480
60803SOL     OW84305   9.943   0.417   3.483
60803SOL    HW184306   9.979   0.455   3.564
60803SOL    HW284307   9.919   0.493   3.430
60804SOL     OW84308   7.663   8.394   0.415
60804SOL    HW184309   7.753   8.374   0.389
60804SOL    HW284310   7.614   8.315   0.393
60805SOL     OW84311   7.718   5.343  10.826
60805SOL    HW184312   7.734   5.359  10.733
60805SOL    HW284313   7.624   5.353  10.837
60806SOL     OW84314   8.983   9.057  10.892
60806SOL    HW184315   9.002   9.021  10.806
60806SOL    HW284316   8.940   8.986  10.939
60807SOL     OW84317  10.748   4.050  10.773
60807SOL    HW184318  10.724   4.045  10.866
60807SOL    HW284319  10.758   4.143  10.756
60808SOL     OW84320   5.253  11.822  10.958
60808SOL    HW184321   5.231  11.730  10.969
60808SOL    HW284322   5.173  11.869  10.981
60809SOL     OW84323   8.663   3.820  12.404
60809SOL    HW184324   8.568   3.813  12.414
60809SOL    HW284325   8.697   3.821  12.494
60810SOL     OW84326   8.341  13.245   7.471
60810SOL    HW184327   8.282  13.308   7.513
60810SOL    HW284328   8.390  13.207   7.544
60811SOL     OW84329   1.513   0.568   1.717
60811SOL    HW184330   1.575   0.563   1.790
60811SOL    HW284331   1.482   0.478   1.706
60812SOL     OW84332   5.395   9.387   6.304
60812SOL    HW184333   5.465   9.398   6.240
60812SOL    HW284334   5.316   9.415   6.259
60813SOL     OW84335   0.566   9.625   8.522
60813SOL    HW184336   0.640   9.589   8.570
60813SOL    HW284337   0.605   9.671   8.448
60814SOL     OW84338  14.840   1.082   7.900
60814SOL    HW184339  14.752   1.097   7.936
60814SOL    HW284340  14.867   0.999   7.939
60815SOL     OW84341   2.362   8.252   7.722
60815SOL    HW184342   2.418   8.326   7.748
60815SOL    HW284343   2.309   8.286   7.650
60816SOL     OW84344   7.090   4.974   8.239
60816SOL    HW184345   6.999   4.964   8.265
60816SOL    HW284346   7.092   4.947   8.147
60817SOL     OW84347   3.100   1.942   5.376
60817SOL    HW184348   3.194   1.957   5.388
60817SOL    HW284349   3.071   2.017   5.324
60818SOL     OW84350   9.446   3.139   7.788
60818SOL    HW184351   9.458   3.233   7.802
60818SOL    HW284352   9.530   3.109   7.754
60819SOL     OW84353   2.746   8.450   6.900
60819SOL    HW184354   2.653   8.445   6.882
60819SOL    HW284355   2.760   8.539   6.933
60820SOL     OW84356   8.436  13.039   2.558
60820SOL    HW184357   8.475  12.963   2.601
60820SOL    HW284358   8.424  13.103   2.628
60821SOL     OW84359  14.381   0.975   1.793
60821SOL    HW184360  14.331   1.014   1.864
60821SOL    HW284361  14.455   1.035   1.779
60822SOL     OW84362   0.329  10.429   1.770
60822SOL    HW184363   0.283  10.416   1.688
60822SOL    HW284364   0.365  10.518   1.763
60823SOL     OW84365  10.767  11.209   6.177
60823SOL    HW184366  10.807  11.198   6.263
60823SOL    HW284367  10.785  11.127   6.132
60824SOL     OW84368  10.755   2.370  13.951
60824SOL    HW184369  10.769   2.348  14.044
60824SOL    HW284370  10.697   2.446  13.953
60825SOL     OW84371   8.660   9.309   3.641
60825SOL    HW184372   8.665   9.233   3.583
60825SOL    HW284373   8.732   9.366   3.613
60826SOL     OW84374  11.665  10.478   4.597
60826SOL    HW184375  11.664  10.527   4.678
60826SOL    HW284376  11.580  10.435   4.594
60827SOL     OW84377   2.392   5.037   7.485
60827SOL    HW184378   2.297   5.043   7.498
60827SOL    HW284379   2.421   4.973   7.549
60828SOL     OW84380   8.393   4.591   5.723
60828SOL    HW184381   8.376   4.497   5.732
60828SOL    HW284382   8.486   4.601   5.745
60829SOL     OW84383   2.234   1.033   6.013
60829SOL    HW184384   2.144   1.052   5.988
60829SOL    HW284385   2.279   1.018   5.929
60830SOL     OW84386   3.787   2.820   7.184
60830SOL    HW184387   3.760   2.847   7.272
60830SOL    HW284388   3.705   2.804   7.137
60831SOL     OW84389  10.800   0.451   7.151
60831SOL    HW184390  10.726   0.400   7.182
60831SOL    HW284391  10.823   0.508   7.225
60832SOL     OW84392  12.082   6.235   5.714
60832SOL    HW184393  12.092   6.302   5.646
60832SOL    HW284394  12.008   6.265   5.767
60833SOL     OW84395   9.300  14.850  11.891
60833SOL    HW184396   9.373  14.790  11.903
60833SOL    HW284397   9.340   0.055  11.897
60834SOL     OW84398   0.524  12.524   7.984
60834SOL    HW184399   0.543  12.541   8.076
60834SOL    HW284400   0.444  12.472   7.984
60835SOL     OW84401   9.687   1.353  10.165
60835SOL    HW184402   9.736   1.285  10.211
60835SOL    HW284403   9.696   1.331  10.073
60836SOL     OW84404   0.637   2.845   5.127
60836SOL    HW184405   0.709   2.905   5.145
60836SOL    HW284406   0.561   2.886   5.168
60837SOL     OW84407   8.229   8.920   1.655
60837SOL    HW184408   8.301   8.964   1.609
60837SOL    HW284409   8.208   8.978   1.728
60838SOL     OW84410  10.216   5.868   6.406
60838SOL    HW184411  10.232   5.881   6.312
60838SOL    HW284412  10.237   5.952   6.446
60839SOL     OW84413  14.368   3.772   1.563
60839SOL    HW184414  14.401   3.732   1.483
60839SOL    HW284415  14.283   3.808   1.539
60840SOL     OW84416   7.400  14.241   5.963
60840SOL    HW184417   7.467  14.212   5.901
60840SOL    HW284418   7.322  14.257   5.910
60841SOL     OW84419   1.521   2.556   7.261
60841SOL    HW184420   1.465   2.585   7.334
60841SOL    HW284421   1.550   2.468   7.287
60842SOL     OW84422  11.993  13.064   3.903
60842SOL    HW184423  11.918  13.036   3.956
60842SOL    HW284424  12.048  12.986   3.897
60843SOL     OW84425   9.969   0.163   3.982
60843SOL    HW184426  10.062   0.146   3.995
60843SOL    HW284427   9.941   0.099   3.917
60844SOL     OW84428  13.200   1.538   1.759
60844SOL    HW184429  13.179   1.447   1.780
60844SOL    HW284430  13.115   1.578   1.741
60845SOL     OW84431   0.893  14.807   1.957
60845SOL    HW184432   0.962  14.757   2.002
60845SOL    HW284433   0.933  14.834   1.875
60846SOL     OW84434  11.784  12.705  14.784
60846SOL    HW184435  11.850  12.637  14.788
60846SOL    HW284436  11.728  12.680  14.710
60847SOL     OW84437  11.981   5.308   8.562
60847SOL    HW184438  11.886   5.313   8.567
60847SOL    HW284439  12.011   5.399   8.563
60848SOL     OW84440  13.820   5.769   2.015
60848SOL    HW184441  13.912   5.793   2.027
60848SOL    HW284442  13.772   5.846   2.045
60849SOL     OW84443  11.645   5.909   0.371
60849SOL    HW184444  11.683   5.915   0.459
60849SOL    HW284445  11.591   5.987   0.363
60850SOL     OW84446   9.500   3.957   3.679
60850SOL    HW184447   9.407   3.937   3.670
60850SOL    HW284448   9.536   3.885   3.731
60851SOL     OW84449  13.469   7.139   2.653
60851SOL    HW184450  13.471   7.231   2.681
60851SOL    HW284451  13.545   7.099   2.696
60852SOL     OW84452   6.559   3.233   9.612
60852SOL    HW184453   6.540   3.311   9.664
60852SOL    HW284454   6.536   3.159   9.669
60853SOL     OW84455  13.495   8.064   6.671
60853SOL    HW184456  13.410   8.020   6.670
60853SOL    HW284457  13.548   8.011   6.731
60854SOL     OW84458   1.393   0.493  11.793
60854SOL    HW184459   1.443   0.430  11.741
60854SOL    HW284460   1.459   0.544  11.839
60855SOL     OW84461   2.127  11.730   5.708
60855SOL    HW184462   2.125  11.826   5.704
60855SOL    HW284463   2.119  11.709   5.801
60856SOL     OW84464   2.599   1.798   2.036
60856SOL    HW184465   2.572   1.890   2.034
60856SOL    HW284466   2.593   1.770   1.945
60857SOL     OW84467   5.648   4.781   3.747
60857SOL    HW184468   5.681   4.722   3.814
60857SOL    HW284469   5.719   4.843   3.732
60858SOL     OW84470   9.636   5.714   2.554
60858SOL    HW184471   9.732   5.709   2.560
60858SOL    HW284472   9.620   5.777   2.483
60859SOL     OW84473   7.117   9.857   6.769
60859SOL    HW184474   7.151   9.833   6.855
60859SOL    HW284475   7.044   9.916   6.787
60860SOL     OW84476   4.694   7.721   0.809
60860SOL    HW184477   4.682   7.715   0.904
60860SOL    HW284478   4.623   7.668   0.773
60861SOL     OW84479  11.963   8.552   9.525
60861SOL    HW184480  12.027   8.503   9.576
60861SOL    HW284481  11.878   8.524   9.559
60862SOL     OW84482  11.202   5.678  14.083
60862SOL    HW184483  11.160   5.743  14.028
60862SOL    HW284484  11.130   5.621  14.112
60863SOL     OW84485  14.554   0.790   6.656
60863SOL    HW184486  14.528   0.749   6.573
60863SOL    HW284487  14.476   0.788   6.710
60864SOL     OW84488   6.899   3.501  11.634
60864SOL    HW184489   6.867   3.453  11.710
60864SOL    HW284490   6.951   3.572  11.671
60865SOL     OW84491   8.346   7.428   9.396
60865SOL    HW184492   8.381   7.507   9.438
60865SOL    HW284493   8.255   7.450   9.376
60866SOL     OW84494   5.843  12.533   1.761
60866SOL    HW184495   5.768  12.587   1.734
60866SOL    HW284496   5.826  12.513   1.853
60867SOL     OW84497   9.712   7.060  13.935
60867SOL    HW184498   9.677   6.984  13.887
60867SOL    HW284499   9.640   7.123  13.935
60868SOL     OW84500  10.362   1.023   2.492
60868SOL    HW184501  10.413   0.986   2.420
60868SOL    HW284502  10.379   0.965   2.566
60869SOL     OW84503  11.175   6.343   6.886
60869SOL    HW184504  11.086   6.359   6.855
60869SOL    HW284505  11.193   6.252   6.862
60870SOL     OW84506   8.387  12.588  12.575
60870SOL    HW184507   8.391  12.493  12.563
60870SOL    HW284508   8.322  12.617  12.510
60871SOL     OW84509   2.054  12.760   9.579
60871SOL    HW184510   1.964  12.775   9.608
60871SOL    HW284511   2.094  12.847   9.582
60872SOL     OW84512  11.344   6.227  13.547
60872SOL    HW184513  11.329   6.139  13.513
60872SOL    HW284514  11.429   6.222  13.590
60873SOL     OW84515   4.637   0.814   8.538
60873SOL    HW184516   4.654   0.776   8.452
60873SOL    HW284517   4.652   0.908   8.526
60874SOL     OW84518   4.456   7.192   6.452
60874SOL    HW184519   4.489   7.256   6.388
60874SOL    HW284520   4.372   7.164   6.416
60875SOL     OW84521   2.362   9.988   7.528
60875SOL    HW184522   2.429   9.921   7.514
60875SOL    HW284523   2.331  10.010   7.440
60876SOL     OW84524  10.620  11.572   2.803
60876SOL    HW184525  10.693  11.512   2.811
60876SOL    HW284526  10.623  11.602   2.712
60877SOL     OW84527  11.079   1.405  11.536
60877SOL    HW184528  11.104   1.481  11.483
60877SOL    HW284529  11.145   1.400  11.604
60878SOL     OW84530   4.930  10.524  12.466
60878SOL    HW184531   4.987  10.493  12.396
60878SOL    HW284532   4.913  10.445  12.518
60879SOL     OW84533   9.360   6.025   5.365
60879SOL    HW184534   9.364   5.953   5.302
60879SOL    HW284535   9.337   5.982   5.448
60880SOL     OW84536  14.595  12.019  14.649
60880SOL    HW184537  14.514  12.069  14.639
60880SOL    HW284538  14.647  12.070  14.711
60881SOL     OW84539   0.176   0.664   7.428
60881SOL    HW184540   0.189   0.674   7.523
60881SOL    HW284541   0.247   0.606   7.400
60882SOL     OW84542   2.238  11.984   6.434
60882SOL    HW184543   2.228  11.924   6.508
60882SOL    HW284544   2.332  11.997   6.426
60883SOL     OW84545   4.059   3.400   6.902
60883SOL    HW184546   4.146   3.404   6.862
60883SOL    HW284547   4.044   3.488   6.937
60884SOL     OW84548   9.485   7.303   7.095
60884SOL    HW184549   9.410   7.252   7.125
60884SOL    HW284550   9.514   7.350   7.173
60885SOL     OW84551  11.645  13.257   2.997
60885SOL    HW184552  11.722  13.238   2.944
60885SOL    HW284553  11.642  13.353   3.000
60886SOL     OW84554  12.880  11.264  10.299
60886SOL    HW184555  12.968  11.229  10.281
60886SOL    HW284556  12.834  11.192  10.341
60887SOL     OW84557   3.439  11.863   4.743
60887SOL    HW184558   3.382  11.902   4.677
60887SOL    HW284559   3.521  11.911   4.735
60888SOL     OW84560  10.379   6.410  10.589
60888SOL    HW184561  10.328   6.439  10.665
60888SOL    HW284562  10.411   6.324  10.614
60889SOL     OW84563   5.460   0.452  10.193
60889SOL    HW184564   5.420   0.497  10.267
60889SOL    HW284565   5.414   0.368  10.189
60890SOL     OW84566   3.826  13.581   4.230
60890SOL    HW184567   3.883  13.507   4.251
60890SOL    HW284568   3.795  13.563   4.141
60891SOL     OW84569   7.564   2.993   9.403
60891SOL    HW184570   7.624   3.003   9.329
60891SOL    HW284571   7.621   2.985   9.480
60892SOL     OW84572   8.588  14.352   3.628
60892SOL    HW184573   8.610  14.291   3.698
60892SOL    HW284574   8.658  14.418   3.631
60893SOL     OW84575   5.523   9.300   6.580
60893SOL    HW184576   5.567   9.233   6.528
60893SOL    HW284577   5.484   9.359   6.516
60894SOL     OW84578  13.921  10.959   2.855
60894SOL    HW184579  13.840  10.910   2.845
60894SOL    HW284580  13.985  10.895   2.885
60895SOL     OW84581   6.151   0.422   1.460
60895SOL    HW184582   6.191   0.370   1.391
60895SOL    HW284583   6.069   0.377   1.480
60896SOL     OW84584   7.818   1.592  10.675
60896SOL    HW184585   7.914   1.585  10.675
60896SOL    HW284586   7.793   1.572  10.765
60897SOL     OW84587   8.004   4.577  10.024
60897SOL    HW184588   8.022   4.618  10.109
60897SOL    HW284589   7.980   4.650   9.967
60898SOL     OW84590   0.357  10.067   1.005
60898SOL    HW184591   0.349  10.096   0.914
60898SOL    HW284592   0.297   9.994   1.013
60899SOL     OW84593   0.342   4.923  14.110
60899SOL    HW184594   0.401   4.974  14.165
60899SOL    HW284595   0.360   4.952  14.021
60900SOL     OW84596   0.551   7.775   7.233
60900SOL    HW184597   0.559   7.680   7.232
60900SOL    HW284598   0.634   7.807   7.269
60901SOL     OW84599  13.232   4.070  12.724
60901SOL    HW184600  13.260   4.153  12.685
60901SOL    HW284601  13.284   4.004  12.678
60902SOL     OW84602  11.813   4.879  11.522
60902SOL    HW184603  11.781   4.810  11.580
60902SOL    HW284604  11.734   4.917  11.483
60903SOL     OW84605  14.252   8.942  13.804
60903SOL    HW184606  14.335   8.991  13.804
60903SOL    HW284607  14.188   9.004  13.768
60904SOL     OW84608   4.050   1.018  10.781
60904SOL    HW184609   4.016   1.075  10.712
60904SOL    HW284610   3.980   0.954  10.796
60905SOL     OW84611   4.116  13.690  13.337
60905SOL    HW184612   4.156  13.711  13.253
60905SOL    HW284613   4.031  13.654  13.316
60906SOL     OW84614   3.394   0.340  14.115
60906SOL    HW184615   3.359   0.253  14.137
60906SOL    HW284616   3.316   0.396  14.109
60907SOL     OW84617   4.728   1.743   2.036
60907SOL    HW184618   4.771   1.748   2.121
60907SOL    HW284619   4.737   1.651   2.010
60908SOL     OW84620   3.992   4.403   7.859
60908SOL    HW184621   3.931   4.465   7.819
60908SOL    HW284622   3.971   4.406   7.952
60909SOL     OW84623   9.313   7.143   5.408
60909SOL    HW184624   9.232   7.102   5.376
60909SOL    HW284625   9.296   7.160   5.501
60910SOL     OW84626   6.262   9.230  11.857
60910SOL    HW184627   6.219   9.148  11.884
60910SOL    HW284628   6.332   9.202  11.799
60911SOL     OW84629   6.682  13.862   7.860
60911SOL    HW184630   6.593  13.869   7.826
60911SOL    HW284631   6.734  13.919   7.804
60912SOL     OW84632   5.630  10.935   4.036
60912SOL    HW184633   5.661  10.859   3.986
60912SOL    HW284634   5.705  10.961   4.089
60913SOL     OW84635   6.900   7.082   9.806
60913SOL    HW184636   6.955   7.078   9.728
60913SOL    HW284637   6.921   7.002   9.855
60914SOL     OW84638   6.402   7.655  11.919
60914SOL    HW184639   6.411   7.750  11.933
60914SOL    HW284640   6.328   7.630  11.974
60915SOL     OW84641   0.247   6.697   3.997
60915SOL    HW184642   0.284   6.774   3.952
60915SOL    HW284643   0.321   6.660   4.045
60916SOL     OW84644   5.741   6.142   6.955
60916SOL    HW184645   5.683   6.087   6.902
60916SOL    HW284646   5.829   6.115   6.930
60917SOL     OW84647  14.381   1.253  10.467
60917SOL    HW184648  14.328   1.315  10.518
60917SOL    HW284649  14.467   1.254  10.510
60918SOL     OW84650   2.959   0.597  10.206
60918SOL    HW184651   2.891   0.547  10.162
60918SOL    HW284652   3.038   0.543  10.196
60919SOL     OW84653   4.503  11.004   4.416
60919SOL    HW184654   4.479  11.082   4.468
60919SOL    HW284655   4.586  10.976   4.453
60920SOL     OW84656   1.285   4.689  10.729
60920SOL    HW184657   1.336   4.738  10.665
60920SOL    HW284658   1.294   4.738  10.810
60921SOL     OW84659  13.071  11.957   7.303
60921SOL    HW184660  12.981  11.928   7.321
60921SOL    HW284661  13.062  12.050   7.283
60922SOL     OW84662   6.507   2.545   6.680
60922SOL    HW184663   6.562   2.580   6.610
60922SOL    HW284664   6.561   2.552   6.759
60923SOL     OW84665   2.344   4.604   9.664
60923SOL    HW184666   2.379   4.591   9.752
60923SOL    HW284667   2.250   4.617   9.678
60924SOL     OW84668   6.293   6.015   3.467
60924SOL    HW184669   6.217   6.069   3.489
60924SOL    HW284670   6.366   6.059   3.510
60925SOL     OW84671   8.517   3.792   8.339
60925SOL    HW184672   8.441   3.787   8.397
60925SOL    HW284673   8.566   3.869   8.369
60926SOL     OW84674  12.164  11.292  12.270
60926SOL    HW184675  12.085  11.242  12.291
60926SOL    HW284676  12.235  11.229  12.283
60927SOL     OW84677   6.709  11.964  11.652
60927SOL    HW184678   6.723  12.028  11.583
60927SOL    HW284679   6.638  12.000  11.704
60928SOL     OW84680   8.706  14.645   6.498
60928SOL    HW184681   8.745  14.721   6.541
60928SOL    HW284682   8.652  14.682   6.429
60929SOL     OW84683  14.051   8.329  11.352
60929SOL    HW184684  13.982   8.365  11.297
60929SOL    HW284685  14.012   8.327  11.440
60930SOL     OW84686   8.305   9.668  13.879
60930SOL    HW184687   8.294   9.657  13.974
60930SOL    HW284688   8.245   9.739  13.857
60931SOL     OW84689   2.744   1.769   0.911
60931SOL    HW184690   2.741   1.748   1.005
60931SOL    HW284691   2.836   1.761   0.888
60932SOL     OW84692   1.743   3.051   2.121
60932SOL    HW184693   1.818   3.045   2.061
60932SOL    HW284694   1.668   3.028   2.066
60933SOL     OW84695   2.966   1.662   2.005
60933SOL    HW184696   2.975   1.721   2.079
60933SOL    HW284697   3.030   1.593   2.021
60934SOL     OW84698   9.522   4.446   9.664
60934SOL    HW184699   9.586   4.427   9.595
60934SOL    HW284700   9.440   4.461   9.617
60935SOL     OW84701  13.852   4.707   0.175
60935SOL    HW184702  13.901   4.688   0.095
60935SOL    HW284703  13.789   4.636   0.182
60936SOL     OW84704  12.843   0.317   8.395
60936SOL    HW184705  12.886   0.325   8.480
60936SOL    HW284706  12.910   0.339   8.331
60937SOL     OW84707  11.989  13.941   1.293
60937SOL    HW184708  11.900  13.968   1.317
60937SOL    HW284709  12.031  13.921   1.376
60938SOL     OW84710  14.754   7.409   8.208
60938SOL    HW184711  14.794   7.390   8.293
60938SOL    HW284712  14.772   7.502   8.193
60939SOL     OW84713  14.140  12.030   9.864
60939SOL    HW184714  14.151  12.048   9.771
60939SOL    HW284715  14.097  12.109   9.899
60940SOL     OW84716   7.575  14.333  11.840
60940SOL    HW184717   7.577  14.293  11.753
60940SOL    HW284718   7.629  14.275  11.894
60941SOL     OW84719   1.893   1.750   5.473
60941SOL    HW184720   1.972   1.703   5.446
60941SOL    HW284721   1.881   1.726   5.564
60942SOL     OW84722  11.214   5.230   7.717
60942SOL    HW184723  11.179   5.259   7.633
60942SOL    HW284724  11.290   5.287   7.732
60943SOL     OW84725   7.626   2.692  14.802
60943SOL    HW184726   7.540   2.652  14.814
60943SOL    HW284727   7.684   2.640  14.858
60944SOL     OW84728  13.678   7.693   7.917
60944SOL    HW184729  13.644   7.704   8.006
60944SOL    HW284730  13.638   7.612   7.886
60945SOL     OW84731   6.085  12.770   8.254
60945SOL    HW184732   6.129  12.753   8.337
60945SOL    HW284733   6.051  12.684   8.227
60946SOL     OW84734   8.047   4.636   9.651
60946SOL    HW184735   8.051   4.732   9.644
60946SOL    HW284736   7.979   4.610   9.589
60947SOL     OW84737   6.504   3.547  14.806
60947SOL    HW184738   6.457   3.576   0.001
60947SOL    HW284739   6.481   3.455  14.796
60948SOL     OW84740   2.861   7.150  14.653
60948SOL    HW184741   2.855   7.221  14.717
60948SOL    HW284742   2.784   7.160  14.598
60949SOL     OW84743  13.070  10.695  14.412
60949SOL    HW184744  13.079  10.760  14.342
60949SOL    HW284745  12.987  10.717  14.454
60950SOL     OW84746   4.866  14.322   0.068
60950SOL    HW184747   4.954  14.354   0.087
60950SOL    HW284748   4.879  14.254   0.001
60951SOL     OW84749  14.337   5.655  13.411
60951SOL    HW184750  14.267   5.713  13.382
60951SOL    HW284751  14.334   5.660  13.507
60952SOL     OW84752   8.749  11.827   7.806
60952SOL    HW184753   8.715  11.912   7.780
60952SOL    HW284754   8.676  11.784   7.851
60953SOL     OW84755  13.805   6.375   8.329
60953SOL    HW184756  13.875   6.323   8.368
60953SOL    HW284757  13.818   6.463   8.365
60954SOL     OW84758  13.289   5.114   5.962
60954SOL    HW184759  13.247   5.048   5.908
60954SOL    HW284760  13.230   5.126   6.036
60955SOL     OW84761   0.297   7.074   6.878
60955SOL    HW184762   0.308   7.107   6.967
60955SOL    HW284763   0.236   7.136   6.837
60956SOL     OW84764   0.192  11.468   3.672
60956SOL    HW184765   0.189  11.560   3.646
60956SOL    HW284766   0.182  11.469   3.767
60957SOL     OW84767   5.273   7.153   0.716
60957SOL    HW184768   5.190   7.106   0.703
60957SOL    HW284769   5.280   7.211   0.640
60958SOL     OW84770   9.066   3.179   3.906
60958SOL    HW184771   9.110   3.243   3.962
60958SOL    HW284772   9.010   3.232   3.849
60959SOL     OW84773   4.999  13.814   7.110
60959SOL    HW184774   5.060  13.772   7.050
60959SOL    HW284775   4.918  13.765   7.101
60960SOL     OW84776   1.345   2.560   8.667
60960SOL    HW184777   1.309   2.578   8.580
60960SOL    HW284778   1.416   2.498   8.652
60961SOL     OW84779   0.026   9.437  13.405
60961SOL    HW184780   0.043   9.526  13.437
60961SOL    HW284781  14.824   9.413  13.445
60962SOL     OW84782  13.047   3.186   5.054
60962SOL    HW184783  12.985   3.199   5.126
60962SOL    HW284784  13.090   3.271   5.045
60963SOL     OW84785   8.436   4.941  11.607
60963SOL    HW184786   8.363   5.003  11.612
60963SOL    HW284787   8.483   4.952  11.689
60964SOL     OW84788  12.756  11.752   3.722
60964SOL    HW184789  12.842  11.715   3.746
60964SOL    HW284790  12.728  11.699   3.648
60965SOL     OW84791  12.734  13.143  14.535
60965SOL    HW184792  12.669  13.167  14.469
60965SOL    HW284793  12.818  13.150  14.490
60966SOL     OW84794   8.082  12.602   0.388
60966SOL    HW184795   8.076  12.563   0.476
60966SOL    HW284796   8.139  12.542   0.340
60967SOL     OW84797   3.451  10.007   3.887
60967SOL    HW184798   3.462   9.988   3.980
60967SOL    HW284799   3.374   9.955   3.862
60968SOL     OW84800   0.849  12.300   3.856
60968SOL    HW184801   0.910  12.278   3.926
60968SOL    HW284802   0.903  12.302   3.777
60969SOL     OW84803  11.870  10.979  13.223
60969SOL    HW184804  11.898  11.023  13.303
60969SOL    HW284805  11.867  10.886  13.247
60970SOL     OW84806  12.591  11.810  14.801
60970SOL    HW184807  12.642  11.839  14.725
60970SOL    HW284808  12.516  11.765  14.763
60971SOL     OW84809  13.951  11.246  13.769
60971SOL    HW184810  14.035  11.211  13.800
60971SOL    HW284811  13.896  11.249  13.847
60972SOL     OW84812  10.896   0.499  10.093
60972SOL    HW184813  10.900   0.585  10.134
60972SOL    HW284814  10.861   0.442  10.161
60973SOL     OW84815  13.650   7.464   7.079
60973SOL    HW184816  13.658   7.454   7.174
60973SOL    HW284817  13.620   7.378   7.048
60974SOL     OW84818  13.078   7.456  11.692
60974SOL    HW184819  13.173   7.450  11.687
60974SOL    HW284820  13.048   7.365  11.695
60975SOL     OW84821   8.091   3.734  12.636
60975SOL    HW184822   8.041   3.801  12.590
60975SOL    HW284823   8.030   3.698  12.700
60976SOL     OW84824  11.074   5.981   9.668
60976SOL    HW184825  11.052   6.064   9.627
60976SOL    HW284826  11.139   5.941   9.610
60977SOL     OW84827   7.798  13.306   8.597
60977SOL    HW184828   7.861  13.377   8.612
60977SOL    HW284829   7.729  13.321   8.662
60978SOL     OW84830   6.590   1.744   1.768
60978SOL    HW184831   6.653   1.789   1.824
60978SOL    HW284832   6.612   1.772   1.679
60979SOL     OW84833   8.431   3.082   5.585
60979SOL    HW184834   8.501   3.113   5.643
60979SOL    HW284835   8.392   3.008   5.632
60980SOL     OW84836   8.325  10.877   4.470
60980SOL    HW184837   8.356  10.807   4.526
60980SOL    HW284838   8.238  10.898   4.505
60981SOL     OW84839  13.677   8.517   6.765
60981SOL    HW184840  13.726   8.570   6.828
60981SOL    HW284841  13.593   8.562   6.757
60982SOL     OW84842   3.411  13.499   9.050
60982SOL    HW184843   3.346  13.470   9.113
60982SOL    HW284844   3.411  13.595   9.058
60983SOL     OW84845  12.663   5.236   1.339
60983SOL    HW184846  12.613   5.195   1.409
60983SOL    HW284847  12.671   5.168   1.272
60984SOL     OW84848  14.069   3.605  12.005
60984SOL    HW184849  14.164   3.617  12.013
60984SOL    HW284850  14.033   3.690  12.028
60985SOL     OW84851   1.083   1.777   4.788
60985SOL    HW184852   1.162   1.814   4.749
60985SOL    HW284853   1.022   1.850   4.795
60986SOL     OW84854   2.114  10.606   6.234
60986SOL    HW184855   2.137  10.565   6.151
60986SOL    HW284856   2.018  10.608   6.233
60987SOL     OW84857   2.878   7.017   5.474
60987SOL    HW184858   2.856   6.930   5.443
60987SOL    HW284859   2.950   7.004   5.535
60988SOL     OW84860  10.839  10.970   5.370
60988SOL    HW184861  10.844  11.048   5.316
60988SOL    HW284862  10.841  11.003   5.460
60989SOL     OW84863   3.267   5.482  12.506
60989SOL    HW184864   3.362   5.469  12.510
60989SOL    HW284865   3.239   5.485  12.597
60990SOL     OW84866   2.635   1.264  12.543
60990SOL    HW184867   2.582   1.268  12.622
60990SOL    HW284868   2.663   1.172  12.538
60991SOL     OW84869   2.066   7.422   1.035
60991SOL    HW184870   1.971   7.412   1.034
60991SOL    HW284871   2.083   7.483   1.107
60992SOL     OW84872  11.282   2.723   0.274
60992SOL    HW184873  11.213   2.766   0.224
60992SOL    HW284874  11.250   2.635   0.289
60993SOL     OW84875  10.659  11.333   8.649
60993SOL    HW184876  10.693  11.324   8.738
60993SOL    HW284877  10.719  11.282   8.595
60994SOL     OW84878   7.421  11.512   8.675
60994SOL    HW184879   7.499  11.457   8.667
60994SOL    HW284880   7.429  11.575   8.603
60995SOL     OW84881   5.196   9.748   4.087
60995SOL    HW184882   5.153   9.826   4.053
60995SOL    HW284883   5.287   9.756   4.060
60996SOL     OW84884   3.085   3.350  11.698
60996SOL    HW184885   3.146   3.355  11.772
60996SOL    HW284886   3.004   3.389  11.731
60997SOL     OW84887  11.681   4.650   4.485
60997SOL    HW184888  11.760   4.698   4.460
60997SOL    HW284889  11.617   4.672   4.418
60998SOL     OW84890   8.898   1.172  11.916
60998SOL    HW184891   8.945   1.188  11.834
60998SOL    HW284892   8.811   1.210  11.901
60999SOL     OW84893   7.117   8.647  14.488
60999SOL    HW184894   7.107   8.670  14.580
60999SOL    HW284895   7.131   8.552  14.489
61000SOL     OW84896   6.418   8.524   3.423
61000SOL    HW184897   6.399   8.449   3.367
61000SOL    HW284898   6.475   8.580   3.370
61001SOL     OW84899  10.952   8.097  10.090
61001SOL    HW184900  10.900   8.141  10.023
61001SOL    HW284901  11.012   8.041  10.041
61002SOL     OW84902  10.983   8.765   3.117
61002SOL    HW184903  11.024   8.692   3.164
61002SOL    HW284904  11.028   8.843   3.150
61003SOL     OW84905   1.763   5.162  14.445
61003SOL    HW184906   1.734   5.248  14.417
61003SOL    HW284907   1.845   5.147  14.399
61004SOL     OW84908   4.466   9.152   9.995
61004SOL    HW184909   4.540   9.162   9.935
61004SOL    HW284910   4.481   9.219  10.062
61005SOL     OW84911   4.948   4.231   3.873
61005SOL    HW184912   5.005   4.299   3.910
61005SOL    HW284913   4.875   4.279   3.834
61006SOL     OW84914  11.193  11.850   2.772
61006SOL    HW184915  11.151  11.792   2.708
61006SOL    HW284916  11.226  11.790   2.840
61007SOL     OW84917   8.038   8.869  13.317
61007SOL    HW184918   8.125   8.864  13.356
61007SOL    HW284919   8.001   8.782  13.329
61008SOL     OW84920   9.055   8.317   1.035
61008SOL    HW184921   9.061   8.285   1.125
61008SOL    HW284922   8.962   8.307   1.013
61009SOL     OW84923  10.849   9.954  13.115
61009SOL    HW184924  10.920  10.015  13.134
61009SOL    HW284925  10.824   9.919  13.200
61010SOL     OW84926   1.542  12.588   0.102
61010SOL    HW184927   1.568  12.593   0.010
61010SOL    HW284928   1.541  12.679   0.132
61011SOL     OW84929   2.914   0.161   5.306
61011SOL    HW184930   2.977   0.232   5.318
61011SOL    HW284931   2.966   0.081   5.310
61012SOL     OW84932   2.034   2.960   2.008
61012SOL    HW184933   2.096   2.896   2.045
61012SOL    HW284934   2.075   3.045   2.025
61013SOL     OW84935   3.659   9.477   2.821
61013SOL    HW184936   3.637   9.493   2.729
61013SOL    HW284937   3.755   9.484   2.824
61014SOL     OW84938   4.552  13.466   4.854
61014SOL    HW184939   4.457  13.479   4.854
61014SOL    HW284940   4.567  13.404   4.926
61015SOL     OW84941   9.152   7.961   2.892
61015SOL    HW184942   9.226   7.907   2.921
61015SOL    HW284943   9.179   7.993   2.806
61016SOL     OW84944   1.700   4.592  10.640
61016SOL    HW184945   1.679   4.649  10.566
61016SOL    HW284946   1.661   4.636  10.716
61017SOL     OW84947   4.087   4.396   8.239
61017SOL    HW184948   4.055   4.486   8.242
61017SOL    HW284949   4.182   4.403   8.250
61018SOL     OW84950   2.011   9.320   1.823
61018SOL    HW184951   2.048   9.232   1.819
61018SOL    HW284952   2.076   9.376   1.780
61019SOL     OW84953   7.019  12.806  14.548
61019SOL    HW184954   7.048  12.895  14.572
61019SOL    HW284955   6.925  12.814  14.536
61020SOL     OW84956   1.857  13.707   5.281
61020SOL    HW184957   1.794  13.775   5.258
61020SOL    HW284958   1.808  13.625   5.274
61021SOL     OW84959   0.015   7.724   0.817
61021SOL    HW184960   0.029   7.808   0.860
61021SOL    HW284961   0.035   7.740   0.725
61022SOL     OW84962  12.041   6.563   5.876
61022SOL    HW184963  11.988   6.489   5.845
61022SOL    HW284964  12.095   6.525   5.946
61023SOL     OW84965   3.455   0.754   3.155
61023SOL    HW184966   3.459   0.813   3.230
61023SOL    HW284967   3.462   0.666   3.193
61024SOL     OW84968  11.839  12.893   5.620
61024SOL    HW184969  11.910  12.953   5.643
61024SOL    HW284970  11.883  12.810   5.604
61025SOL     OW84971  12.001   3.404   5.215
61025SOL    HW184972  11.975   3.329   5.269
61025SOL    HW284973  11.942   3.474   5.241
61026SOL     OW84974   1.195   5.699   7.071
61026SOL    HW184975   1.162   5.731   6.987
61026SOL    HW284976   1.283   5.734   7.078
61027SOL     OW84977   8.986   1.500   5.671
61027SOL    HW184978   8.938   1.581   5.653
61027SOL    HW284979   9.031   1.480   5.589
61028SOL     OW84980   1.287  12.510  10.667
61028SOL    HW184981   1.215  12.562  10.705
61028SOL    HW284982   1.243  12.435  10.627
61029SOL     OW84983   5.461  11.402   2.186
61029SOL    HW184984   5.537  11.402   2.128
61029SOL    HW284985   5.430  11.492   2.184
61030SOL     OW84986   7.691  13.237   4.106
61030SOL    HW184987   7.694  13.329   4.080
61030SOL    HW284988   7.750  13.193   4.046
61031SOL     OW84989   2.093   0.641   1.788
61031SOL    HW184990   2.072   0.679   1.702
61031SOL    HW284991   2.095   0.547   1.773
61032SOL     OW84992  14.335   7.017   6.170
61032SOL    HW184993  14.337   7.026   6.266
61032SOL    HW284994  14.248   6.983   6.151
61033SOL     OW84995  11.303   8.002   2.337
61033SOL    HW184996  11.284   7.967   2.250
61033SOL    HW284997  11.336   7.926   2.386
61034SOL     OW84998  13.486   6.727   5.584
61034SOL    HW184999  13.433   6.690   5.654
61034SOL    HW285000  13.567   6.754   5.626
61035SOL     OW85001   6.775  13.359   4.282
61035SOL    HW185002   6.833  13.344   4.356
61035SOL    HW285003   6.735  13.274   4.264
61036SOL     OW85004   8.258   3.014  10.925
61036SOL    HW185005   8.290   3.028  10.837
61036SOL    HW285006   8.254   2.918  10.934
61037SOL     OW85007   3.409   4.797   5.805
61037SOL    HW185008   3.454   4.881   5.812
61037SOL    HW285009   3.472   4.739   5.764
61038SOL     OW85010  10.376   4.409   1.335
61038SOL    HW185011  10.451   4.434   1.390
61038SOL    HW285012  10.314   4.481   1.344
61039SOL     OW85013   8.482   7.888  13.357
61039SOL    HW185014   8.485   7.812  13.300
61039SOL    HW285015   8.467   7.962  13.298
61040SOL     OW85016   9.262   4.024   3.053
61040SOL    HW185017   9.351   4.000   3.027
61040SOL    HW285018   9.250   4.112   3.017
61041SOL     OW85019   1.181  11.343  13.136
61041SOL    HW185020   1.111  11.383  13.083
61041SOL    HW285021   1.253  11.406  13.130
61042SOL     OW85022   8.766   2.465   7.550
61042SOL    HW185023   8.815   2.411   7.488
61042SOL    HW285024   8.731   2.402   7.613
61043SOL     OW85025   5.607   9.759  14.584
61043SOL    HW185026   5.646   9.711  14.656
61043SOL    HW285027   5.597   9.694  14.514
61044SOL     OW85028   1.112   3.342   8.330
61044SOL    HW185029   1.174   3.310   8.263
61044SOL    HW285030   1.152   3.317   8.413
61045SOL     OW85031  13.129  11.947  12.450
61045SOL    HW185032  13.199  11.987  12.399
61045SOL    HW285033  13.051  11.998  12.428
61046SOL     OW85034  13.946   1.901   5.255
61046SOL    HW185035  13.935   1.868   5.344
61046SOL    HW285036  14.012   1.843   5.216
61047SOL     OW85037  14.043   2.512   5.789
61047SOL    HW185038  14.113   2.555   5.838
61047SOL    HW285039  14.049   2.549   5.700
61048SOL     OW85040   2.550   3.715   7.110
61048SOL    HW185041   2.554   3.650   7.039
61048SOL    HW285042   2.507   3.669   7.182
61049SOL     OW85043   4.969  13.032   8.974
61049SOL    HW185044   4.957  13.107   9.032
61049SOL    HW285045   4.993  13.070   8.890
61050SOL     OW85046  12.748   1.376  10.580
61050SOL    HW185047  12.820   1.324  10.617
61050SOL    HW285048  12.761   1.463  10.617
61051SOL     OW85049   6.063  11.871   7.124
61051SOL    HW185050   6.065  11.967   7.121
61051SOL    HW285051   5.980  11.847   7.083
61052SOL     OW85052  12.551  12.291   0.354
61052SOL    HW185053  12.499  12.286   0.434
61052SOL    HW285054  12.496  12.341   0.293
61053SOL     OW85055  11.323   2.607   6.169
61053SOL    HW185056  11.362   2.608   6.082
61053SOL    HW285057  11.236   2.645   6.157
61054SOL     OW85058  10.633  12.702   6.435
61054SOL    HW185059  10.624  12.607   6.446
61054SOL    HW285060  10.578  12.739   6.504
61055SOL     OW85061  11.987   0.501   0.665
61055SOL    HW185062  12.018   0.588   0.688
61055SOL    HW285063  11.895   0.515   0.639
61056SOL     OW85064   7.786   9.746   7.490
61056SOL    HW185065   7.846   9.790   7.550
61056SOL    HW285066   7.844   9.706   7.424
61057SOL     OW85067   6.464  14.253   4.865
61057SOL    HW185068   6.401  14.323   4.882
61057SOL    HW285069   6.466  14.202   4.946
61058SOL     OW85070   8.811  13.799   1.963
61058SOL    HW185071   8.851  13.884   1.976
61058SOL    HW285072   8.861  13.759   1.892
61059SOL     OW85073   3.674   1.319   3.520
61059SOL    HW185074   3.668   1.375   3.597
61059SOL    HW285075   3.734   1.365   3.461
61060SOL     OW85076  13.468  12.669   1.035
61060SOL    HW185077  13.415  12.741   1.001
61060SOL    HW285078  13.558  12.703   1.036
61061SOL     OW85079  13.497  10.755   5.005
61061SOL    HW185080  13.445  10.770   4.926
61061SOL    HW285081  13.572  10.703   4.974
61062SOL     OW85082   9.274   0.840  11.553
61062SOL    HW185083   9.337   0.770  11.537
61062SOL    HW285084   9.224   0.811  11.630
61063SOL     OW85085   4.829  11.882   0.130
61063SOL    HW185086   4.865  11.971   0.133
61063SOL    HW285087   4.886  11.831   0.187
61064SOL     OW85088  11.481   4.471   0.885
61064SOL    HW185089  11.463   4.377   0.889
61064SOL    HW285090  11.444   4.506   0.966
61065SOL     OW85091   2.833   8.530  12.661
61065SOL    HW185092   2.912   8.477  12.646
61065SOL    HW285093   2.856   8.616  12.626
61066SOL     OW85094  13.132  13.716  11.516
61066SOL    HW185095  13.118  13.746  11.426
61066SOL    HW285096  13.044  13.690  11.546
61067SOL     OW85097   0.830   6.941   3.141
61067SOL    HW185098   0.756   6.890   3.175
61067SOL    HW285099   0.810   7.031   3.167
61068SOL     OW85100  13.354  13.222  11.441
61068SOL    HW185101  13.259  13.222  11.444
61068SOL    HW285102  13.378  13.314  11.429
61069SOL     OW85103   4.520   4.278   8.318
61069SOL    HW185104   4.609   4.310   8.307
61069SOL    HW285105   4.511   4.208   8.253
61070SOL     OW85106   7.490  12.495  10.199
61070SOL    HW185107   7.554  12.551  10.156
61070SOL    HW285108   7.445  12.450  10.128
61071SOL     OW85109   0.872  14.491   9.666
61071SOL    HW185110   0.883  14.397   9.647
61071SOL    HW285111   0.839  14.493   9.756
61072SOL     OW85112   7.860   4.923   3.009
61072SOL    HW185113   7.832   4.882   2.927
61072SOL    HW285114   7.788   4.980   3.034
61073SOL     OW85115   8.198  12.351  14.825
61073SOL    HW185116   8.229  12.269  14.865
61073SOL    HW285117   8.271  12.380  14.770
61074SOL     OW85118   8.983  11.341   8.166
61074SOL    HW185119   8.896  11.342   8.125
61074SOL    HW285120   9.004  11.249   8.178
61075SOL     OW85121   8.749  13.873   1.504
61075SOL    HW185122   8.654  13.881   1.513
61075SOL    HW285123   8.762  13.787   1.464
61076SOL     OW85124  13.019   5.080   2.178
61076SOL    HW185125  13.006   5.010   2.114
61076SOL    HW285126  13.101   5.057   2.222
61077SOL     OW85127   3.753  11.322  10.559
61077SOL    HW185128   3.758  11.313  10.464
61077SOL    HW285129   3.809  11.397  10.578
61078SOL     OW85130   5.929  10.330  12.207
61078SOL    HW185131   5.852  10.381  12.180
61078SOL    HW285132   6.000  10.363  12.151
61079SOL     OW85133   4.824   8.496  11.766
61079SOL    HW185134   4.764   8.522  11.695
61079SOL    HW285135   4.832   8.401  11.757
61080SOL     OW85136  10.393   0.132  13.502
61080SOL    HW185137  10.443   0.166  13.577
61080SOL    HW285138  10.375   0.041  13.526
61081SOL     OW85139  11.084   2.778   6.017
61081SOL    HW185140  11.149   2.845   5.999
61081SOL    HW285141  11.057   2.747   5.930
61082SOL     OW85142  11.710   7.828  12.050
61082SOL    HW185143  11.745   7.823  12.139
61082SOL    HW285144  11.616   7.837  12.062
61083SOL     OW85145   3.093   8.170   0.074
61083SOL    HW185146   3.069   8.106   0.141
61083SOL    HW285147   3.138   8.118   0.007
61084SOL     OW85148   7.071   0.336   9.875
61084SOL    HW185149   7.141   0.294   9.925
61084SOL    HW285150   7.095   0.428   9.872
61085SOL     OW85151   1.348   4.880  10.957
61085SOL    HW185152   1.329   4.971  10.933
61085SOL    HW285153   1.340   4.878  11.052
61086SOL     OW85154   1.233  11.432   2.646
61086SOL    HW185155   1.279  11.482   2.579
61086SOL    HW285156   1.215  11.347   2.605
61087SOL     OW85157   2.541   3.769  10.004
61087SOL    HW185158   2.601   3.706  10.045
61087SOL    HW285159   2.525   3.734   9.917
61088SOL     OW85160  14.799   1.996   8.539
61088SOL    HW185161  14.783   1.990   8.445
61088SOL    HW285162  14.828   2.086   8.552
61089SOL     OW85163   6.140   4.224  13.705
61089SOL    HW185164   6.124   4.154  13.641
61089SOL    HW285165   6.119   4.184  13.789
61090SOL     OW85166   0.007  12.057   9.114
61090SOL    HW185167  14.865  12.061   9.207
61090SOL    HW285168  14.806  12.045   9.069
61091SOL     OW85169   7.942   6.652  14.281
61091SOL    HW185170   8.018   6.600  14.255
61091SOL    HW285171   7.867   6.601  14.253
61092SOL     OW85172   8.552   8.688   2.122
61092SOL    HW185173   8.501   8.622   2.169
61092SOL    HW285174   8.643   8.658   2.129
61093SOL     OW85175   9.523   2.336   1.458
61093SOL    HW185176   9.441   2.293   1.483
61093SOL    HW285177   9.540   2.397   1.530
61094SOL     OW85178  14.341  12.819  11.428
61094SOL    HW185179  14.405  12.756  11.460
61094SOL    HW285180  14.328  12.795  11.336
61095SOL     OW85181   3.731   4.263   4.286
61095SOL    HW185182   3.693   4.182   4.254
61095SOL    HW285183   3.763   4.242   4.374
61096SOL     OW85184  13.620   3.359  11.990
61096SOL    HW185185  13.565   3.386  11.916
61096SOL    HW285186  13.704   3.401  11.974
61097SOL     OW85187   2.209  12.712   7.611
61097SOL    HW185188   2.299  12.679   7.614
61097SOL    HW285189   2.215  12.801   7.644
61098SOL     OW85190   8.656   2.409  12.135
61098SOL    HW185191   8.735   2.358  12.153
61098SOL    HW285192   8.624   2.434  12.222
61099SOL     OW85193  11.495  13.937   0.223
61099SOL    HW185194  11.422  13.963   0.166
61099SOL    HW285195  11.482  13.986   0.304
61100SOL     OW85196  12.388  14.854  10.472
61100SOL    HW185197  12.420   0.060  10.494
61100SOL    HW285198  12.454  14.818  10.413
61101SOL     OW85199   0.409   7.469  10.228
61101SOL    HW185200   0.380   7.550  10.269
61101SOL    HW285201   0.504   7.476  10.224
61102SOL     OW85202   8.176   3.787   3.919
61102SOL    HW185203   8.227   3.715   3.881
61102SOL    HW285204   8.241   3.854   3.939
61103SOL     OW85205  13.173  12.303   2.266
61103SOL    HW185206  13.266  12.322   2.257
61103SOL    HW285207  13.137  12.382   2.306
61104SOL     OW85208   5.065   5.000   6.001
61104SOL    HW185209   5.146   4.991   5.951
61104SOL    HW285210   5.056   5.094   6.015
61105SOL     OW85211  14.329  13.809  13.343
61105SOL    HW185212  14.408  13.862  13.344
61105SOL    HW285213  14.351  13.734  13.399
61106SOL     OW85214   1.846   0.270   7.623
61106SOL    HW185215   1.882   0.284   7.711
61106SOL    HW285216   1.899   0.199   7.587
61107SOL     OW85217   4.553   5.468  10.137
61107SOL    HW185218   4.476   5.525  10.147
61107SOL    HW285219   4.550   5.411  10.214
61108SOL     OW85220  12.161  11.195   2.499
61108SOL    HW185221  12.068  11.218   2.504
61108SOL    HW285222  12.175  11.168   2.408
61109SOL     OW85223  10.173   5.255   0.846
61109SOL    HW185224  10.108   5.231   0.779
61109SOL    HW285225  10.248   5.288   0.797
61110SOL     OW85226   8.945   0.647   5.893
61110SOL    HW185227   8.947   0.703   5.815
61110SOL    HW285228   9.010   0.685   5.951
61111SOL     OW85229   9.668   3.875   8.337
61111SOL    HW185230   9.683   3.796   8.388
61111SOL    HW285231   9.728   3.868   8.263
61112SOL     OW85232  11.233   5.190   9.490
61112SOL    HW185233  11.284   5.271   9.497
61112SOL    HW285234  11.188   5.183   9.574
61113SOL     OW85235  10.778  11.645   7.727
61113SOL    HW185236  10.697  11.593   7.730
61113SOL    HW285237  10.834  11.608   7.794
61114SOL     OW85238   7.170   6.855   7.006
61114SOL    HW185239   7.169   6.951   7.004
61114SOL    HW285240   7.079   6.831   7.024
61115SOL     OW85241   2.843   5.550   7.673
61115SOL    HW185242   2.926   5.554   7.626
61115SOL    HW285243   2.818   5.458   7.670
61116SOL     OW85244   6.582   1.047   4.295
61116SOL    HW185245   6.491   1.028   4.275
61116SOL    HW285246   6.585   1.141   4.312
61117SOL     OW85247   7.827   9.147   9.437
61117SOL    HW185248   7.905   9.185   9.396
61117SOL    HW285249   7.777   9.222   9.467
61118SOL     OW85250   6.049  14.013  14.145
61118SOL    HW185251   6.129  14.017  14.197
61118SOL    HW285252   6.005  13.932  14.174
61119SOL     OW85253   4.664   9.663  12.831
61119SOL    HW185254   4.748   9.698  12.858
61119SOL    HW285255   4.664   9.572  12.863
61120SOL     OW85256   4.547  14.400   3.413
61120SOL    HW185257   4.581  14.396   3.324
61120SOL    HW285258   4.549  14.309   3.443
61121SOL     OW85259   1.957   2.457   6.799
61121SOL    HW185260   2.032   2.505   6.763
61121SOL    HW285261   1.891   2.525   6.816
61122SOL     OW85262   9.117  12.705   6.178
61122SOL    HW185263   9.131  12.793   6.144
61122SOL    HW285264   9.190  12.691   6.238
61123SOL     OW85265  11.846   4.872  10.203
61123SOL    HW185266  11.805   4.840  10.283
61123SOL    HW285267  11.783   4.934  10.166
61124SOL     OW85268   8.359   4.118   9.230
61124SOL    HW185269   8.394   4.194   9.277
61124SOL    HW285270   8.410   4.114   9.149
61125SOL     OW85271  14.844   1.995   6.722
61125SOL    HW185272  14.858   1.914   6.770
61125SOL    HW285273  14.755   1.986   6.686
61126SOL     OW85274   4.749  10.714   8.474
61126SOL    HW185275   4.686  10.703   8.546
61126SOL    HW285276   4.709  10.781   8.418
61127SOL     OW85277  14.193   7.164   9.366
61127SOL    HW185278  14.279   7.123   9.356
61127SOL    HW285279  14.172   7.200   9.280
61128SOL     OW85280   0.037   7.744  10.679
61128SOL    HW185281   0.020   7.807  10.609
61128SOL    HW285282   0.070   7.666  10.635
61129SOL     OW85283  10.138   7.397  12.547
61129SOL    HW185284  10.196   7.430  12.478
61129SOL    HW285285  10.164   7.446  12.626
61130SOL     OW85286  10.373  12.706   0.763
61130SOL    HW185287  10.389  12.784   0.709
61130SOL    HW285288  10.337  12.741   0.845
61131SOL     OW85289   7.014   4.604   6.645
61131SOL    HW185290   6.977   4.686   6.612
61131SOL    HW285291   6.939   4.545   6.652
61132SOL     OW85292   8.249   0.654   2.443
61132SOL    HW185293   8.209   0.600   2.374
61132SOL    HW285294   8.177   0.671   2.504
61133SOL     OW85295   9.535  13.202   4.888
61133SOL    HW185296   9.573  13.170   4.971
61133SOL    HW285297   9.542  13.297   4.894
61134SOL     OW85298   5.813   5.762  11.745
61134SOL    HW185299   5.893   5.735  11.701
61134SOL    HW285300   5.801   5.853  11.719
61135SOL     OW85301   7.164  10.484   8.393
61135SOL    HW185302   7.223  10.458   8.323
61135SOL    HW285303   7.171  10.580   8.397
61136SOL     OW85304   5.997   9.623   2.254
61136SOL    HW185305   5.949   9.582   2.183
61136SOL    HW285306   5.984   9.564   2.329
61137SOL     OW85307  14.638   7.360   7.679
61137SOL    HW185308  14.716   7.395   7.635
61137SOL    HW285309  14.669   7.335   7.766
61138SOL     OW85310   0.226   4.352  13.203
61138SOL    HW185311   0.203   4.424  13.262
61138SOL    HW285312   0.150   4.295  13.202
61139SOL     OW85313  10.477   2.248  11.598
61139SOL    HW185314  10.473   2.170  11.543
61139SOL    HW285315  10.532   2.222  11.672
61140SOL     OW85316  10.198   9.785   8.403
61140SOL    HW185317  10.105   9.782   8.427
61140SOL    HW285318  10.231   9.698   8.428
61141SOL     OW85319  11.529   0.219   1.869
61141SOL    HW185320  11.500   0.283   1.804
61141SOL    HW285321  11.456   0.213   1.931
61142SOL     OW85322   1.948   5.191   5.661
61142SOL    HW185323   2.009   5.194   5.587
61142SOL    HW285324   1.918   5.281   5.671
61143SOL     OW85325   2.012   3.426  12.959
61143SOL    HW185326   1.956   3.488  12.912
61143SOL    HW285327   1.957   3.348  12.971
61144SOL     OW85328  10.060  11.660  11.032
61144SOL    HW185329  10.028  11.598  11.097
61144SOL    HW285330  10.084  11.737  11.082
61145SOL     OW85331  10.571   3.737  10.429
61145SOL    HW185332  10.494   3.710  10.480
61145SOL    HW285333  10.597   3.821  10.468
61146SOL     OW85334   0.956   9.745  13.718
61146SOL    HW185335   0.875   9.731  13.668
61146SOL    HW285336   0.966   9.664  13.768
61147SOL     OW85337   1.958  13.987   3.350
61147SOL    HW185338   1.955  13.943   3.435
61147SOL    HW285339   1.871  14.025   3.340
61148SOL     OW85340  13.440  12.516   3.155
61148SOL    HW185341  13.363  12.544   3.204
61148SOL    HW285342  13.479  12.598   3.124
61149SOL     OW85343  13.657  10.149  10.544
61149SOL    HW185344  13.720  10.215  10.516
61149SOL    HW285345  13.711  10.071  10.560
61150SOL     OW85346   6.113   0.819   1.184
61150SOL    HW185347   6.125   0.825   1.279
61150SOL    HW285348   6.106   0.909   1.154
61151SOL     OW85349  13.807   8.675  12.367
61151SOL    HW185350  13.771   8.658  12.454
61151SOL    HW285351  13.782   8.766  12.348
61152SOL     OW85352  11.737   7.803   6.922
61152SOL    HW185353  11.742   7.707   6.925
61152SOL    HW285354  11.773   7.832   7.006
61153SOL     OW85355   6.662   0.809   9.842
61153SOL    HW185356   6.627   0.895   9.819
61153SOL    HW285357   6.757   0.822   9.846
61154SOL     OW85358  12.337  14.749   3.558
61154SOL    HW185359  12.280  14.704   3.621
61154SOL    HW285360  12.369  14.679   3.500
61155SOL     OW85361  11.394   0.664   1.783
61155SOL    HW185362  11.444   0.593   1.742
61155SOL    HW285363  11.321   0.679   1.724
61156SOL     OW85364   7.981   9.836   7.639
61156SOL    HW185365   8.069   9.800   7.638
61156SOL    HW285366   7.945   9.811   7.724
61157SOL     OW85367   9.414   2.171   6.657
61157SOL    HW185368   9.423   2.160   6.752
61157SOL    HW285369   9.411   2.266   6.644
61158SOL     OW85370  14.392   9.891   2.791
61158SOL    HW185371  14.366   9.853   2.707
61158SOL    HW285372  14.317   9.944   2.817
61159SOL     OW85373   9.446   0.540  10.729
61159SOL    HW185374   9.527   0.494  10.707
61159SOL    HW285375   9.408   0.488  10.800
61160SOL     OW85376  11.529  11.583   6.389
61160SOL    HW185377  11.457  11.606   6.330
61160SOL    HW285378  11.598  11.552   6.331
61161SOL     OW85379   0.061   9.087   0.729
61161SOL    HW185380   0.093   8.998   0.717
61161SOL    HW285381   0.022   9.087   0.817
61162SOL     OW85382  13.952  10.135  14.378
61162SOL    HW185383  13.907  10.116  14.295
61162SOL    HW285384  13.957  10.050  14.422
61163SOL     OW85385   5.309   8.784   7.274
61163SOL    HW185386   5.339   8.817   7.189
61163SOL    HW285387   5.237   8.842   7.298
61164SOL     OW85388   3.289  12.867  12.176
61164SOL    HW185389   3.215  12.852  12.236
61164SOL    HW285390   3.277  12.957  12.146
61165SOL     OW85391   8.644   4.378   2.433
61165SOL    HW185392   8.668   4.471   2.430
61165SOL    HW285393   8.551   4.377   2.411
61166SOL     OW85394   0.396   7.442   8.577
61166SOL    HW185395   0.365   7.499   8.648
61166SOL    HW285396   0.491   7.453   8.577
61167SOL     OW85397   6.910   2.175   0.906
61167SOL    HW185398   6.899   2.093   0.953
61167SOL    HW285399   6.996   2.207   0.933
61168SOL     OW85400   7.080   3.361  14.583
61168SOL    HW185401   7.099   3.391  14.494
61168SOL    HW285402   7.053   3.270  14.572
61169SOL     OW85403  11.631  11.023   3.439
61169SOL    HW185404  11.725  11.025   3.419
61169SOL    HW285405  11.624  10.964   3.514
61170SOL     OW85406   5.224   1.434   5.253
61170SOL    HW185407   5.196   1.343   5.263
61170SOL    HW285408   5.185   1.462   5.170
61171SOL     OW85409   2.832   4.243  10.595
61171SOL    HW185410   2.821   4.209  10.683
61171SOL    HW285411   2.875   4.328  10.607
61172SOL     OW85412   6.955   3.909  14.709
61172SOL    HW185413   6.975   3.926  14.801
61172SOL    HW285414   7.013   3.967  14.660
61173SOL     OW85415   8.618   2.418  10.339
61173SOL    HW185416   8.537   2.368  10.342
61173SOL    HW285417   8.617   2.471  10.418
61174SOL     OW85418   3.737   2.786  11.749
61174SOL    HW185419   3.793   2.788  11.827
61174SOL    HW285420   3.775   2.717  11.694
61175SOL     OW85421  13.277   6.129   5.604
61175SOL    HW185422  13.232   6.100   5.684
61175SOL    HW285423  13.259   6.060   5.541
61176SOL     OW85424  12.257  12.153   0.295
61176SOL    HW185425  12.198  12.170   0.369
61176SOL    HW285426  12.339  12.126   0.336
61177SOL     OW85427   3.379   5.895   0.678
61177SOL    HW185428   3.299   5.946   0.691
61177SOL    HW285429   3.430   5.948   0.617
61178SOL     OW85430   4.914   8.716  13.877
61178SOL    HW185431   4.823   8.694  13.854
61178SOL    HW285432   4.906   8.760  13.961
61179SOL     OW85433  13.151  10.612  13.841
61179SOL    HW185434  13.166  10.552  13.768
61179SOL    HW285435  13.185  10.696  13.811
61180SOL     OW85436   8.659   0.781   5.228
61180SOL    HW185437   8.656   0.692   5.191
61180SOL    HW285438   8.572   0.817   5.211
61181SOL     OW85439   4.803  13.372   2.680
61181SOL    HW185440   4.886  13.396   2.723
61181SOL    HW285441   4.823  13.293   2.631
61182SOL     OW85442   8.155  13.243  13.977
61182SOL    HW185443   8.134  13.223  13.886
61182SOL    HW285444   8.187  13.161  14.013
61183SOL     OW85445   0.189   0.124   9.066
61183SOL    HW185446   0.170   0.118   8.972
61183SOL    HW285447   0.266   0.181   9.071
61184SOL     OW85448  12.455   9.585   3.359
61184SOL    HW185449  12.491   9.595   3.271
61184SOL    HW285450  12.509   9.641   3.414
61185SOL     OW85451   1.217   4.610  13.842
61185SOL    HW185452   1.159   4.537  13.824
61185SOL    HW285453   1.287   4.573  13.895
61186SOL     OW85454   5.721   1.367   5.881
61186SOL    HW185455   5.660   1.323   5.821
61186SOL    HW285456   5.807   1.352   5.842
61187SOL     OW85457  13.131  13.618   1.795
61187SOL    HW185458  13.193  13.668   1.848
61187SOL    HW285459  13.161  13.527   1.803
61188SOL     OW85460   8.376   3.670   3.726
61188SOL    HW185461   8.331   3.731   3.668
61188SOL    HW285462   8.468   3.695   3.720
61189SOL     OW85463   5.058   6.435   6.555
61189SOL    HW185464   5.147   6.445   6.587
61189SOL    HW285465   5.005   6.487   6.616
61190SOL     OW85466   3.110   5.855   9.739
61190SOL    HW185467   3.043   5.876   9.674
61190SOL    HW285468   3.126   5.762   9.727
61191SOL     OW85469   1.498  12.201  11.184
61191SOL    HW185470   1.437  12.132  11.155
61191SOL    HW285471   1.582  12.174  11.148
61192SOL     OW85472  12.544   2.147  10.996
61192SOL    HW185473  12.601   2.081  11.035
61192SOL    HW285474  12.533   2.213  11.064
61193SOL     OW85475  12.814   8.400  12.401
61193SOL    HW185476  12.894   8.383  12.351
61193SOL    HW285477  12.845   8.423  12.489
61194SOL     OW85478  10.579  12.432  11.650
61194SOL    HW185479  10.601  12.379  11.727
61194SOL    HW285480  10.662  12.470  11.622
61195SOL     OW85481   3.913   3.189   6.848
61195SOL    HW185482   3.970   3.257   6.884
61195SOL    HW285483   3.961   3.107   6.860
61196SOL     OW85484   9.360   0.319   0.345
61196SOL    HW185485   9.427   0.372   0.387
61196SOL    HW285486   9.285   0.378   0.336
61197SOL     OW85487   5.913   2.795   1.838
61197SOL    HW185488   5.841   2.775   1.778
61197SOL    HW285489   5.871   2.832   1.915
61198SOL     OW85490   8.766   9.725  10.100
61198SOL    HW185491   8.792   9.761  10.185
61198SOL    HW285492   8.826   9.652  10.086
61199SOL     OW85493   1.819   2.607  11.241
61199SOL    HW185494   1.814   2.688  11.293
61199SOL    HW285495   1.738   2.560  11.262
61200SOL     OW85496  14.714   4.870   9.859
61200SOL    HW185497  14.711   4.894   9.951
61200SOL    HW285498  14.641   4.810   9.847
61201SOL     OW85499  11.339   6.977   9.911
61201SOL    HW185500  11.292   7.010   9.835
61201SOL    HW285501  11.415   7.034   9.920
61202SOL     OW85502  10.251  13.562   0.062
61202SOL    HW185503  10.302  13.520   0.132
61202SOL    HW285504  10.207  13.635   0.106
61203SOL     OW85505   7.823  12.184   6.274
61203SOL    HW185506   7.842  12.119   6.341
61203SOL    HW285507   7.893  12.249   6.282
61204SOL     OW85508   0.576   7.185  11.492
61204SOL    HW185509   0.598   7.114  11.552
61204SOL    HW285510   0.481   7.179  11.482
61205SOL     OW85511  14.687   8.266   1.672
61205SOL    HW185512  14.754   8.332   1.693
61205SOL    HW285513  14.701   8.197   1.736
61206SOL     OW85514   9.530   8.718   9.719
61206SOL    HW185515   9.591   8.752   9.784
61206SOL    HW285516   9.562   8.751   9.635
61207SOL     OW85517  11.283  14.272  14.335
61207SOL    HW185518  11.346  14.219  14.288
61207SOL    HW285519  11.329  14.354  14.354
61208SOL     OW85520  13.370  14.099  12.364
61208SOL    HW185521  13.409  14.121  12.280
61208SOL    HW285522  13.382  14.004  12.373
61209SOL     OW85523  13.464   5.765  13.170
61209SOL    HW185524  13.420   5.697  13.119
61209SOL    HW285525  13.474   5.838  13.110
61210SOL     OW85526   4.764   4.696   6.067
61210SOL    HW185527   4.679   4.654   6.085
61210SOL    HW285528   4.789   4.662   5.981
61211SOL     OW85529   6.436   6.657   3.467
61211SOL    HW185530   6.364   6.597   3.447
61211SOL    HW285531   6.431   6.724   3.400
61212SOL     OW85532   8.199   2.223   9.931
61212SOL    HW185533   8.229   2.285   9.865
61212SOL    HW285534   8.273   2.163   9.944
61213SOL     OW85535   6.829  14.106  11.301
61213SOL    HW185536   6.775  14.075  11.374
61213SOL    HW285537   6.847  14.028  11.249
61214SOL     OW85538   6.690   3.636   3.517
61214SOL    HW185539   6.671   3.713   3.464
61214SOL    HW285540   6.633   3.568   3.482
61215SOL     OW85541   8.912   7.944   5.269
61215SOL    HW185542   8.873   8.010   5.211
61215SOL    HW285543   8.887   7.972   5.357
61216SOL     OW85544   4.761  13.796   7.587
61216SOL    HW185545   4.841  13.745   7.581
61216SOL    HW285546   4.781  13.878   7.542
61217SOL     OW85547   4.047   7.862   1.961
61217SOL    HW185548   4.083   7.947   1.937
61217SOL    HW285549   3.994   7.835   1.886
61218SOL     OW85550  11.629   9.794   9.871
61218SOL    HW185551  11.645   9.888   9.881
61218SOL    HW285552  11.683   9.768   9.797
61219SOL     OW85553   9.068   0.538  12.585
61219SOL    HW185554   9.123   0.564  12.511
61219SOL    HW285555   9.011   0.470  12.551
61220SOL     OW85556  11.991   6.395  13.921
61220SOL    HW185557  12.049   6.468  13.940
61220SOL    HW285558  12.004   6.334  13.994
61221SOL     OW85559   1.732   4.247   8.056
61221SOL    HW185560   1.781   4.210   7.983
61221SOL    HW285561   1.706   4.171   8.108
61222SOL     OW85562  10.753  10.691   9.465
61222SOL    HW185563  10.685  10.684   9.398
61222SOL    HW285564  10.827  10.732   9.420
61223SOL     OW85565   7.370   9.307  11.613
61223SOL    HW185566   7.449   9.333  11.661
61223SOL    HW285567   7.402   9.271  11.530
61224SOL     OW85568   9.146   1.011   5.291
61224SOL    HW185569   9.090   1.052   5.357
61224SOL    HW285570   9.085   0.966   5.233
61225SOL     OW85571   0.779   0.477  10.271
61225SOL    HW185572   0.791   0.412  10.203
61225SOL    HW285573   0.797   0.561  10.228
61226SOL     OW85574   2.250   9.996  11.841
61226SOL    HW185575   2.170   9.998  11.893
61226SOL    HW285576   2.272  10.088  11.827
61227SOL     OW85577   6.348   4.150   3.160
61227SOL    HW185578   6.358   4.213   3.089
61227SOL    HW285579   6.322   4.069   3.115
61228SOL     OW85580   7.380   8.418   6.688
61228SOL    HW185581   7.445   8.350   6.701
61228SOL    HW285582   7.430   8.491   6.651
61229SOL     OW85583   0.792   6.128   0.040
61229SOL    HW185584   0.769   6.195  14.857
61229SOL    HW285585   0.865   6.080   0.000
61230SOL     OW85586   4.109   2.785   8.199
61230SOL    HW185587   4.018   2.775   8.227
61230SOL    HW285588   4.150   2.838   8.267
61231SOL     OW85589  11.006  14.297   6.749
61231SOL    HW185590  10.939  14.278   6.683
61231SOL    HW285591  11.085  14.254   6.715
61232SOL     OW85592   8.838  14.816  12.083
61232SOL    HW185593   8.927  14.783  12.099
61232SOL    HW285594   8.784  14.737  12.075
61233SOL     OW85595  12.633   8.658  13.853
61233SOL    HW185596  12.591   8.704  13.925
61233SOL    HW285597  12.622   8.715  13.777
61234SOL     OW85598   8.364  12.014   2.603
61234SOL    HW185599   8.340  12.096   2.647
61234SOL    HW285600   8.310  12.012   2.524
61235SOL     OW85601   3.173   3.346   9.388
61235SOL    HW185602   3.133   3.388   9.313
61235SOL    HW285603   3.233   3.281   9.351
61236SOL     OW85604   1.669  10.443   7.190
61236SOL    HW185605   1.728  10.397   7.131
61236SOL    HW285606   1.727  10.485   7.254
61237SOL     OW85607   0.938   5.685   7.396
61237SOL    HW185608   0.986   5.631   7.459
61237SOL    HW285609   0.991   5.764   7.387
61238SOL     OW85610   7.817   2.517   7.356
61238SOL    HW185611   7.864   2.512   7.273
61238SOL    HW285612   7.789   2.608   7.362
61239SOL     OW85613  11.429   9.541   6.080
61239SOL    HW185614  11.362   9.475   6.062
61239SOL    HW285615  11.488   9.499   6.142
61240SOL     OW85616  12.544   2.034   8.056
61240SOL    HW185617  12.567   1.947   8.090
61240SOL    HW285618  12.557   2.027   7.962
61241SOL     OW85619   8.926   1.622  13.277
61241SOL    HW185620   8.977   1.613  13.357
61241SOL    HW285621   8.981   1.675  13.219
61242SOL     OW85622   3.873   7.503   3.203
61242SOL    HW185623   3.895   7.475   3.292
61242SOL    HW285624   3.780   7.523   3.206
61243SOL     OW85625   2.168   4.389  11.991
61243SOL    HW185626   2.172   4.441  11.911
61243SOL    HW285627   2.227   4.315  11.975
61244SOL     OW85628   2.647  13.394  10.515
61244SOL    HW185629   2.630  13.487  10.503
61244SOL    HW285630   2.634  13.356  10.428
61245SOL     OW85631  11.597  14.003   2.216
61245SOL    HW185632  11.571  14.067   2.283
61245SOL    HW285633  11.687  13.980   2.239
61246SOL     OW85634  14.031  10.028   0.922
61246SOL    HW185635  13.960  10.078   0.882
61246SOL    HW285636  14.067  10.087   0.988
61247SOL     OW85637  11.472  10.484   1.255
61247SOL    HW185638  11.468  10.573   1.289
61247SOL    HW285639  11.385  10.448   1.270
61248SOL     OW85640   7.792  12.137  10.750
61248SOL    HW185641   7.710  12.139  10.701
61248SOL    HW285642   7.860  12.121  10.684
61249SOL     OW85643   6.418   9.447  14.800
61249SOL    HW185644   6.475   9.497  14.742
61249SOL    HW285645   6.472   9.427  14.876
61250SOL     OW85646   9.130   2.092   6.557
61250SOL    HW185647   9.219   2.111   6.586
61250SOL    HW285648   9.135   2.086   6.462
61251SOL     OW85649   5.661  11.189  13.644
61251SOL    HW185650   5.568  11.187  13.668
61251SOL    HW285651   5.685  11.282  13.647
61252SOL     OW85652  14.050   3.762  10.357
61252SOL    HW185653  14.079   3.842  10.402
61252SOL    HW285654  14.078   3.774  10.266
61253SOL     OW85655  14.626   0.049   5.525
61253SOL    HW185656  14.625   0.136   5.486
61253SOL    HW285657  14.576   0.059   5.606
61254SOL     OW85658  12.046  12.950   7.661
61254SOL    HW185659  12.112  12.902   7.611
61254SOL    HW285660  12.011  13.014   7.600
61255SOL     OW85661  10.906   7.809  13.650
61255SOL    HW185662  10.947   7.759  13.721
61255SOL    HW285663  10.865   7.743  13.595
61256SOL     OW85664  13.449  11.285   9.338
61256SOL    HW185665  13.520  11.224   9.318
61256SOL    HW285666  13.413  11.310   9.253
61257SOL     OW85667  14.167   1.221  14.622
61257SOL    HW185668  14.175   1.316  14.628
61257SOL    HW285669  14.245   1.187  14.666
61258SOL     OW85670   3.605   1.140  14.637
61258SOL    HW185671   3.570   1.051  14.624
61258SOL    HW285672   3.575   1.165  14.725
61259SOL     OW85673  11.562   4.800   2.753
61259SOL    HW185674  11.504   4.747   2.807
61259SOL    HW285675  11.649   4.762   2.766
61260SOL     OW85676  10.096  12.597   1.163
61260SOL    HW185677  10.171  12.638   1.206
61260SOL    HW285678  10.022  12.656   1.181
61261SOL     OW85679   6.281   0.777  12.989
61261SOL    HW185680   6.322   0.709  13.041
61261SOL    HW285681   6.290   0.747  12.898
61262SOL     OW85682   5.264   9.852  12.500
61262SOL    HW185683   5.251   9.834  12.407
61262SOL    HW285684   5.238   9.944  12.511
61263SOL     OW85685  11.277   7.734  13.887
61263SOL    HW185686  11.184   7.718  13.872
61263SOL    HW285687  11.320   7.695  13.811
61264SOL     OW85688   6.041   3.831   7.460
61264SOL    HW185689   6.105   3.849   7.529
61264SOL    HW285690   5.992   3.755   7.493
61265SOL     OW85691  11.228   2.939   8.157
61265SOL    HW185692  11.216   2.898   8.242
61265SOL    HW285693  11.263   3.026   8.177
61266SOL     OW85694   0.988   2.431  10.044
61266SOL    HW185695   1.037   2.349  10.055
61266SOL    HW285696   1.043   2.483   9.985
61267SOL     OW85697  10.687  11.071   4.194
61267SOL    HW185698  10.650  10.992   4.233
61267SOL    HW285699  10.711  11.044   4.105
61268SOL     OW85700   5.473   2.854  12.764
61268SOL    HW185701   5.471   2.802  12.844
61268SOL    HW285702   5.564   2.848  12.734
61269SOL     OW85703   9.544  10.429  13.186
61269SOL    HW185704   9.514  10.410  13.275
61269SOL    HW285705   9.580  10.518  13.192
61270SOL     OW85706  12.914   1.595   0.047
61270SOL    HW185707  12.948   1.679   0.079
61270SOL    HW285708  12.973   1.571  14.858
61271SOL     OW85709   1.656   4.919   0.949
61271SOL    HW185710   1.655   4.926   0.853
61271SOL    HW285711   1.748   4.918   0.972
61272SOL     OW85712   2.255   1.537  11.662
61272SOL    HW185713   2.259   1.596  11.587
61272SOL    HW285714   2.207   1.587  11.729
61273SOL     OW85715   4.268   2.982   6.357
61273SOL    HW185716   4.178   3.010   6.342
61273SOL    HW285717   4.299   2.952   6.272
61274SOL     OW85718   2.064   4.818  12.879
61274SOL    HW185719   2.106   4.751  12.932
61274SOL    HW285720   2.116   4.820  12.798
61275SOL     OW85721  12.640  12.905   4.752
61275SOL    HW185722  12.664  12.856   4.674
61275SOL    HW285723  12.561  12.953   4.727
61276SOL     OW85724   5.621   6.467   8.952
61276SOL    HW185725   5.555   6.536   8.960
61276SOL    HW285726   5.601   6.424   8.869
61277SOL     OW85727   0.902  12.275   5.057
61277SOL    HW185728   0.921  12.199   5.001
61277SOL    HW285729   0.985  12.292   5.103
61278SOL     OW85730  10.358   9.734   2.870
61278SOL    HW185731  10.390   9.777   2.790
61278SOL    HW285732  10.346   9.643   2.844
61279SOL     OW85733   9.753   5.524   7.692
61279SOL    HW185734   9.681   5.471   7.726
61279SOL    HW285735   9.723   5.553   7.606
61280SOL     OW85736   1.626   4.066   3.726
61280SOL    HW185737   1.639   4.152   3.684
61280SOL    HW285738   1.622   4.005   3.653
61281SOL     OW85739   8.318   9.107   4.269
61281SOL    HW185740   8.306   9.048   4.195
61281SOL    HW285741   8.311   9.195   4.232
61282SOL     OW85742   3.712   4.131  10.350
61282SOL    HW185743   3.764   4.070  10.298
61282SOL    HW285744   3.621   4.113  10.324
61283SOL     OW85745   7.523   6.770  10.795
61283SOL    HW185746   7.484   6.774  10.882
61283SOL    HW285747   7.617   6.772  10.811
61284SOL     OW85748   2.579   8.755   8.757
61284SOL    HW185749   2.669   8.787   8.768
61284SOL    HW285750   2.558   8.714   8.841
61285SOL     OW85751  13.270   4.251   2.273
61285SOL    HW185752  13.178   4.255   2.301
61285SOL    HW285753  13.269   4.286   2.184
61286SOL     OW85754   5.402  13.275  10.494
61286SOL    HW185755   5.310  13.277  10.519
61286SOL    HW285756   5.406  13.210  10.423
61287SOL     OW85757  10.660   1.055   5.817
61287SOL    HW185758  10.677   0.973   5.770
61287SOL    HW285759  10.649   1.028   5.908
61288SOL     OW85760   4.747   8.426   7.766
61288SOL    HW185761   4.714   8.374   7.839
61288SOL    HW285762   4.783   8.361   7.705
61289SOL     OW85763   4.678  10.768   4.909
61289SOL    HW185764   4.735  10.824   4.961
61289SOL    HW285765   4.719  10.765   4.822
61290SOL     OW85766  14.699  12.855   9.833
61290SOL    HW185767  14.701  12.927   9.770
61290SOL    HW285768  14.693  12.898   9.918
61291SOL     OW85769   7.059  12.868  13.205
61291SOL    HW185770   7.026  12.855  13.294
61291SOL    HW285771   7.008  12.807  13.151
61292SOL     OW85772  12.524   4.362   9.007
61292SOL    HW185773  12.604   4.413   8.995
61292SOL    HW285774  12.538   4.282   8.956
61293SOL     OW85775  13.171  12.440   8.319
61293SOL    HW185776  13.145  12.522   8.276
61293SOL    HW285777  13.266  12.437   8.310
61294SOL     OW85778   8.238   0.798   7.647
61294SOL    HW185779   8.216   0.714   7.607
61294SOL    HW285780   8.175   0.860   7.609
61295SOL     OW85781  14.627   1.614  13.057
61295SOL    HW185782  14.587   1.677  12.996
61295SOL    HW285783  14.674   1.553  13.000
61296SOL     OW85784   7.779   8.275   4.739
61296SOL    HW185785   7.748   8.346   4.682
61296SOL    HW285786   7.838   8.224   4.684
61297SOL     OW85787   9.337  10.458   1.047
61297SOL    HW185788   9.359  10.429   1.136
61297SOL    HW285789   9.268  10.399   1.018
61298SOL     OW85790   9.304   9.529  12.570
61298SOL    HW185791   9.214   9.544  12.542
61298SOL    HW285792   9.354   9.532  12.488
61299SOL     OW85793   8.615   7.356   1.589
61299SOL    HW185794   8.598   7.272   1.548
61299SOL    HW285795   8.529   7.392   1.608
61300SOL     OW85796   0.552   7.208   2.553
61300SOL    HW185797   0.541   7.155   2.474
61300SOL    HW285798   0.569   7.144   2.622
61301SOL     OW85799   9.837   8.623   2.517
61301SOL    HW185800   9.906   8.672   2.473
61301SOL    HW285801   9.763   8.683   2.518
61302SOL     OW85802   9.014  11.382   7.518
61302SOL    HW185803   9.066  11.408   7.442
61302SOL    HW285804   9.068  11.317   7.563
61303SOL     OW85805   6.693   8.435   3.462
61303SOL    HW185806   6.725   8.432   3.552
61303SOL    HW285807   6.599   8.449   3.471
61304SOL     OW85808   6.313  13.636  11.662
61304SOL    HW185809   6.319  13.698  11.735
61304SOL    HW285810   6.219  13.618  11.653
61305SOL     OW85811   2.569   1.656  14.335
61305SOL    HW185812   2.598   1.571  14.303
61305SOL    HW285813   2.627   1.675  14.408
61306SOL     OW85814   9.220   3.912   3.731
61306SOL    HW185815   9.193   3.982   3.791
61306SOL    HW285816   9.178   3.934   3.648
61307SOL     OW85817   4.192   2.877   7.158
61307SOL    HW185818   4.146   2.794   7.161
61307SOL    HW285819   4.126   2.941   7.130
61308SOL     OW85820   1.690   3.973   8.154
61308SOL    HW185821   1.783   3.956   8.136
61308SOL    HW285822   1.661   3.898   8.206
61309SOL     OW85823  14.788  13.192   0.952
61309SOL    HW185824  14.719  13.238   0.999
61309SOL    HW285825  14.807  13.115   1.005
61310SOL     OW85826   2.777  10.305  13.630
61310SOL    HW185827   2.761  10.399  13.619
61310SOL    HW285828   2.689  10.267  13.635
61311SOL     OW85829   2.222   7.845  10.191
61311SOL    HW185830   2.265   7.774  10.144
61311SOL    HW285831   2.183   7.804  10.268
61312SOL     OW85832   7.054  14.266   7.535
61312SOL    HW185833   7.097  14.194   7.580
61312SOL    HW285834   7.116  14.293   7.468
61313SOL     OW85835  11.699  13.274   2.177
61313SOL    HW185836  11.755  13.196   2.183
61313SOL    HW285837  11.755  13.346   2.207
61314SOL     OW85838   0.216  14.447   3.341
61314SOL    HW185839   0.214  14.353   3.359
61314SOL    HW285840   0.226  14.453   3.246
61315SOL     OW85841   4.756   7.199   9.209
61315SOL    HW185842   4.826   7.181   9.271
61315SOL    HW285843   4.782   7.153   9.129
61316SOL     OW85844   2.743  12.270  12.086
61316SOL    HW185845   2.829  12.237  12.062
61316SOL    HW285846   2.716  12.324  12.012
61317SOL     OW85847   6.173  11.702  14.367
61317SOL    HW185848   6.134  11.780  14.327
61317SOL    HW285849   6.100  11.658  14.411
61318SOL     OW85850   3.554   9.483  12.810
61318SOL    HW185851   3.515   9.563  12.846
61318SOL    HW285852   3.479   9.426  12.792
61319SOL     OW85853   9.500   2.552   8.260
61319SOL    HW185854   9.426   2.493   8.275
61319SOL    HW285855   9.467   2.638   8.287
61320SOL     OW85856   8.978  14.252   0.994
61320SOL    HW185857   8.996  14.173   0.943
61320SOL    HW285858   9.032  14.241   1.073
61321SOL     OW85859   1.609   4.323   1.017
61321SOL    HW185860   1.552   4.340   0.942
61321SOL    HW285861   1.666   4.399   1.021
61322SOL     OW85862   7.611  10.922   4.370
61322SOL    HW185863   7.628  11.008   4.332
61322SOL    HW285864   7.532  10.933   4.422
61323SOL     OW85865  13.144   5.965   5.224
61323SOL    HW185866  13.100   6.039   5.267
61323SOL    HW285867  13.164   5.997   5.136
61324SOL     OW85868   1.663   8.135   0.549
61324SOL    HW185869   1.619   8.130   0.464
61324SOL    HW285870   1.712   8.217   0.545
61325SOL     OW85871   7.451   7.693   6.831
61325SOL    HW185872   7.484   7.707   6.920
61325SOL    HW285873   7.491   7.764   6.780
61326SOL     OW85874  12.297   9.481   9.920
61326SOL    HW185875  12.329   9.566   9.952
61326SOL    HW285876  12.355   9.460   9.847
61327SOL     OW85877   0.893  12.004   6.019
61327SOL    HW185878   0.817  12.060   6.007
61327SOL    HW285879   0.925  12.025   6.106
61328SOL     OW85880  11.864   2.460   5.367
61328SOL    HW185881  11.795   2.397   5.344
61328SOL    HW285882  11.816   2.537   5.397
61329SOL     OW85883   9.686   3.174   6.931
61329SOL    HW185884   9.617   3.237   6.949
61329SOL    HW285885   9.695   3.174   6.836
61330SOL     OW85886   6.352  13.534   3.999
61330SOL    HW185887   6.413  13.601   3.970
61330SOL    HW285888   6.403  13.477   4.055
61331SOL     OW85889   6.193  12.304   0.998
61331SOL    HW185890   6.273  12.317   1.049
61331SOL    HW285891   6.194  12.374   0.933
61332SOL     OW85892   0.210  10.134  13.509
61332SOL    HW185893   0.282  10.196  13.499
61332SOL    HW285894   0.132  10.189  13.516
61333SOL     OW85895  13.077   7.014   6.737
61333SOL    HW185896  13.119   7.042   6.818
61333SOL    HW285897  12.984   7.032   6.751
61334SOL     OW85898  12.473   1.854  14.341
61334SOL    HW185899  12.395   1.904  14.365
61334SOL    HW285900  12.481   1.788  14.410
61335SOL     OW85901   4.503   7.383   4.313
61335SOL    HW185902   4.569   7.398   4.245
61335SOL    HW285903   4.539   7.427   4.390
61336SOL     OW85904   2.414   8.114  13.041
61336SOL    HW185905   2.365   8.103  12.959
61336SOL    HW285906   2.499   8.072  13.024
61337SOL     OW85907   1.117   4.977  12.951
61337SOL    HW185908   1.151   4.960  12.863
61337SOL    HW285909   1.195   4.981  13.006
61338SOL     OW85910   5.523   8.184   3.743
61338SOL    HW185911   5.562   8.150   3.663
61338SOL    HW285912   5.585   8.161   3.812
61339SOL     OW85913   7.151  14.109   4.813
61339SOL    HW185914   7.241  14.104   4.783
61339SOL    HW285915   7.140  14.200   4.841
61340SOL     OW85916   2.586  10.294   9.602
61340SOL    HW185917   2.563  10.210   9.564
61340SOL    HW285918   2.667  10.278   9.650
61341SOL     OW85919  11.254  11.716   8.591
61341SOL    HW185920  11.289  11.647   8.534
61341SOL    HW285921  11.219  11.781   8.530
61342SOL     OW85922  10.694  13.483   9.870
61342SOL    HW185923  10.606  13.469   9.905
61342SOL    HW285924  10.705  13.578   9.868
61343SOL     OW85925  13.768  13.525   3.345
61343SOL    HW185926  13.688  13.490   3.381
61343SOL    HW285927  13.784  13.606   3.394
61344SOL     OW85928  13.386   4.178   3.544
61344SOL    HW185929  13.468   4.188   3.593
61344SOL    HW285930  13.401   4.103   3.487
61345SOL     OW85931  14.631   3.897   2.338
61345SOL    HW185932  14.543   3.860   2.346
61345SOL    HW285933  14.677   3.837   2.280
61346SOL     OW85934  10.985   1.714   8.370
61346SOL    HW185935  11.007   1.634   8.321
61346SOL    HW285936  11.005   1.785   8.310
61347SOL     OW85937   5.301  13.752   6.976
61347SOL    HW185938   5.318  13.664   6.941
61347SOL    HW285939   5.368  13.764   7.044
61348SOL     OW85940   0.577   6.069   7.987
61348SOL    HW185941   0.493   6.039   7.950
61348SOL    HW285942   0.593   6.010   8.060
61349SOL     OW85943   1.558  11.226  11.370
61349SOL    HW185944   1.526  11.288  11.435
61349SOL    HW285945   1.637  11.189  11.409
61350SOL     OW85946   8.054   4.083   1.454
61350SOL    HW185947   8.002   4.103   1.532
61350SOL    HW285948   8.069   3.989   1.457
61351SOL     OW85949   1.010   0.908   0.216
61351SOL    HW185950   0.955   0.844   0.260
61351SOL    HW285951   0.966   0.992   0.232
61352SOL     OW85952   5.472  10.713  11.905
61352SOL    HW185953   5.545  10.698  11.845
61352SOL    HW285954   5.511  10.703  11.992
61353SOL     OW85955   1.686   9.356   6.232
61353SOL    HW185956   1.674   9.401   6.148
61353SOL    HW285957   1.662   9.265   6.214
61354SOL     OW85958  11.745  14.558  11.770
61354SOL    HW185959  11.721  14.512  11.690
61354SOL    HW285960  11.692  14.517  11.838
61355SOL     OW85961  12.433  10.084  12.832
61355SOL    HW185962  12.501  10.019  12.851
61355SOL    HW285963  12.437  10.097  12.738
61356SOL     OW85964   3.549  13.049   8.930
61356SOL    HW185965   3.457  13.028   8.918
61356SOL    HW285966   3.594  13.001   8.861
61357SOL     OW85967   8.866   5.795  12.332
61357SOL    HW185968   8.941   5.749  12.294
61357SOL    HW285969   8.839   5.741  12.406
61358SOL     OW85970   3.037  10.218  12.937
61358SOL    HW185971   3.073  10.275  12.870
61358SOL    HW285972   3.112  10.197  12.993
61359SOL     OW85973  12.296  11.521  14.235
61359SOL    HW185974  12.283  11.546  14.143
61359SOL    HW285975  12.241  11.443  14.246
61360SOL     OW85976  10.247   5.667   9.762
61360SOL    HW185977  10.281   5.636   9.845
61360SOL    HW285978  10.320   5.657   9.701
61361SOL     OW85979   2.266   5.842   8.469
61361SOL    HW185980   2.270   5.885   8.554
61361SOL    HW285981   2.246   5.912   8.407
61362SOL     OW85982  13.265  11.199   4.177
61362SOL    HW185983  13.234  11.165   4.261
61362SOL    HW285984  13.357  11.175   4.174
61363SOL     OW85985   4.126   7.293  13.597
61363SOL    HW185986   4.110   7.378  13.556
61363SOL    HW285987   4.219   7.294  13.617
61364SOL     OW85988   3.707  12.486  13.426
61364SOL    HW185989   3.736  12.517  13.340
61364SOL    HW285990   3.744  12.549  13.487
61365SOL     OW85991  13.219   0.218  13.484
61365SOL    HW185992  13.204   0.274  13.560
61365SOL    HW285993  13.279   0.269  13.428
61366SOL     OW85994   7.645   9.522   8.424
61366SOL    HW185995   7.736   9.508   8.451
61366SOL    HW285996   7.595   9.515   8.505
61367SOL     OW85997   7.803  10.224   0.140
61367SOL    HW185998   7.848  10.278   0.204
61367SOL    HW285999   7.848  10.139   0.143
61368SOL     OW86000   9.234   2.798   6.123
61368SOL    HW186001   9.268   2.888   6.128
61368SOL    HW286002   9.141   2.806   6.143
61369SOL     OW86003  10.273   4.527   0.464
61369SOL    HW186004  10.221   4.451   0.489
61369SOL    HW286005  10.225   4.566   0.391
61370SOL     OW86006   6.009  13.416   6.705
61370SOL    HW186007   6.006  13.358   6.781
61370SOL    HW286008   5.982  13.361   6.632
61371SOL     OW86009   3.630   2.697   3.292
61371SOL    HW186010   3.567   2.633   3.258
61371SOL    HW286011   3.637   2.678   3.385
61372SOL     OW86012  11.168   4.976   9.961
61372SOL    HW186013  11.239   4.911   9.967
61372SOL    HW286014  11.088   4.924   9.955
61373SOL     OW86015   1.418   4.179   6.240
61373SOL    HW186016   1.329   4.158   6.210
61373SOL    HW286017   1.462   4.215   6.164
61374SOL     OW86018   4.847   6.695   8.686
61374SOL    HW186019   4.762   6.737   8.674
61374SOL    HW286020   4.878   6.729   8.770
61375SOL     OW86021   6.717  11.559   4.887
61375SOL    HW186022   6.760  11.524   4.965
61375SOL    HW286023   6.717  11.486   4.825
61376SOL     OW86024   2.595   0.230   1.210
61376SOL    HW186025   2.590   0.172   1.134
61376SOL    HW286026   2.615   0.172   1.284
61377SOL     OW86027   3.177   2.065  13.116
61377SOL    HW186028   3.257   2.035  13.073
61377SOL    HW286029   3.139   1.986  13.154
61378SOL     OW86030   9.224   0.385   6.670
61378SOL    HW186031   9.200   0.368   6.579
61378SOL    HW286032   9.272   0.308   6.698
61379SOL     OW86033   2.745   0.314   8.781
61379SOL    HW186034   2.834   0.337   8.754
61379SOL    HW286035   2.697   0.302   8.699
61380SOL     OW86036  14.788   3.013  13.715
61380SOL    HW186037  14.693   3.014  13.700
61380SOL    HW286038  14.820   3.093  13.673
61381SOL     OW86039  10.850   0.196   1.484
61381SOL    HW186040  10.803   0.188   1.567
61381SOL    HW286041  10.782   0.218   1.420
61382SOL     OW86042   2.037   6.066  13.966
61382SOL    HW186043   2.063   6.116  13.889
61382SOL    HW286044   1.978   6.124  14.015
61383SOL     OW86045   8.375  12.012   9.153
61383SOL    HW186046   8.411  11.933   9.193
61383SOL    HW286047   8.306  11.979   9.094
61384SOL     OW86048   0.697   0.573   8.651
61384SOL    HW186049   0.736   0.614   8.728
61384SOL    HW286050   0.656   0.493   8.684
61385SOL     OW86051   5.814  14.514   8.825
61385SOL    HW186052   5.769  14.481   8.904
61385SOL    HW286053   5.874  14.581   8.858
61386SOL     OW86054   3.634   2.541  12.182
61386SOL    HW186055   3.551   2.547  12.230
61386SOL    HW286056   3.697   2.588  12.236
61387SOL     OW86057   7.966   7.744  12.472
61387SOL    HW186058   7.885   7.751  12.522
61387SOL    HW286059   8.034   7.773  12.532
61388SOL     OW86060   0.917  10.592  10.138
61388SOL    HW186061   0.833  10.618  10.101
61388SOL    HW286062   0.916  10.626  10.227
61389SOL     OW86063   6.654  11.166   2.021
61389SOL    HW186064   6.739  11.179   1.980
61389SOL    HW286065   6.591  11.176   1.950
61390SOL     OW86066  12.901  14.874   1.113
61390SOL    HW186067  12.876  14.800   1.059
61390SOL    HW286068  12.819   0.033   1.140
61391SOL     OW86069   1.907  14.768   9.061
61391SOL    HW186070   1.839  14.727   9.007
61391SOL    HW286071   1.876  14.758   9.151
61392SOL     OW86072   3.729   5.217  13.153
61392SOL    HW186073   3.648   5.166  13.158
61392SOL    HW286074   3.700   5.308  13.147
61393SOL     OW86075  12.850  12.788  14.247
61393SOL    HW186076  12.944  12.777  14.265
61393SOL    HW286077  12.816  12.834  14.323
61394SOL     OW86078  12.403   8.339   1.022
61394SOL    HW186079  12.498   8.328   1.016
61394SOL    HW286080  12.387   8.351   1.116
61395SOL     OW86081  11.121   4.211  12.657
61395SOL    HW186082  11.211   4.233  12.632
61395SOL    HW286083  11.068   4.282  12.621
61396SOL     OW86084   0.350   5.841   9.814
61396SOL    HW186085   0.318   5.887   9.737
61396SOL    HW286086   0.345   5.905   9.885
61397SOL     OW86087  10.752   5.557   3.514
61397SOL    HW186088  10.773   5.559   3.608
61397SOL    HW286089  10.830   5.594   3.472
61398SOL     OW86090  13.698  12.677   1.358
61398SOL    HW186091  13.772  12.625   1.326
61398SOL    HW286092  13.684  12.743   1.289
61399SOL     OW86093   9.076   1.986  11.941
61399SOL    HW186094   9.092   2.023  11.854
61399SOL    HW286095   8.985   2.011  11.961
61400SOL     OW86096   2.181   5.277  12.068
61400SOL    HW186097   2.253   5.291  12.006
61400SOL    HW286098   2.167   5.362  12.109
61401SOL     OW86099  13.576   2.502   2.532
61401SOL    HW186100  13.569   2.596   2.521
61401SOL    HW286101  13.657   2.489   2.581
61402SOL     OW86102   8.306   0.670  11.474
61402SOL    HW186103   8.267   0.624  11.548
61402SOL    HW286104   8.308   0.606  11.403
61403SOL     OW86105   0.001   7.032   1.848
61403SOL    HW186106  14.874   6.979   1.769
61403SOL    HW286107   0.017   7.121   1.815
61404SOL     OW86108  13.804   4.764   8.376
61404SOL    HW186109  13.756   4.735   8.453
61404SOL    HW286110  13.761   4.719   8.303
61405SOL     OW86111   1.425   3.589   9.573
61405SOL    HW186112   1.498   3.607   9.632
61405SOL    HW286113   1.466   3.563   9.491
61406SOL     OW86114  11.668  14.711   0.733
61406SOL    HW186115  11.698  14.786   0.681
61406SOL    HW286116  11.749  14.671   0.766
61407SOL     OW86117   7.120  12.453   8.474
61407SOL    HW186118   7.144  12.385   8.537
61407SOL    HW286119   7.032  12.430   8.446
61408SOL     OW86120   6.968  13.352   8.305
61408SOL    HW186121   6.981  13.288   8.375
61408SOL    HW286122   7.048  13.349   8.253
61409SOL     OW86123  13.679  12.408   0.317
61409SOL    HW186124  13.673  12.390   0.223
61409SOL    HW286125  13.773  12.411   0.334
61410SOL     OW86126  14.628   5.708   2.835
61410SOL    HW186127  14.639   5.631   2.891
61410SOL    HW286128  14.592   5.673   2.754
61411SOL     OW86129   2.450  13.671  11.639
61411SOL    HW186130   2.485  13.634  11.558
61411SOL    HW286131   2.522  13.668  11.701
61412SOL     OW86132   5.608  14.130   3.390
61412SOL    HW186133   5.536  14.107   3.449
61412SOL    HW286134   5.683  14.081   3.423
61413SOL     OW86135   9.429   1.465  11.393
61413SOL    HW186136   9.382   1.528  11.448
61413SOL    HW286137   9.391   1.476  11.306
61414SOL     OW86138   2.805   0.776   6.429
61414SOL    HW186139   2.876   0.731   6.384
61414SOL    HW286140   2.761   0.708   6.479
61415SOL     OW86141   3.650  10.581   2.192
61415SOL    HW186142   3.578  10.526   2.221
61415SOL    HW286143   3.677  10.630   2.269
61416SOL     OW86144  13.509  10.248   2.140
61416SOL    HW186145  13.488  10.299   2.061
61416SOL    HW286146  13.573  10.301   2.187
61417SOL     OW86147  13.039  12.485   9.453
61417SOL    HW186148  13.053  12.451   9.364
61417SOL    HW286149  13.114  12.452   9.503
61418SOL     OW86150  11.997   3.990   6.208
61418SOL    HW186151  11.959   3.935   6.139
61418SOL    HW286152  11.941   4.067   6.210
61419SOL     OW86153  14.274   6.787   5.346
61419SOL    HW186154  14.325   6.776   5.266
61419SOL    HW286155  14.279   6.881   5.364
61420SOL     OW86156  14.074   2.714   1.704
61420SOL    HW186157  14.057   2.806   1.727
61420SOL    HW286158  14.114   2.678   1.783
61421SOL     OW86159   6.665   1.100  10.332
61421SOL    HW186160   6.600   1.157  10.372
61421SOL    HW286161   6.615   1.028  10.294
61422SOL     OW86162   9.833   7.547  13.346
61422SOL    HW186163   9.780   7.572  13.271
61422SOL    HW286164   9.776   7.563  13.422
61423SOL     OW86165   8.641   4.143   4.929
61423SOL    HW186166   8.709   4.208   4.951
61423SOL    HW286167   8.625   4.098   5.012
61424SOL     OW86168   5.978   1.504   5.459
61424SOL    HW186169   6.018   1.564   5.521
61424SOL    HW286170   5.981   1.419   5.503
61425SOL     OW86171  11.847   9.474  13.425
61425SOL    HW186172  11.913   9.540  13.407
61425SOL    HW286173  11.884   9.421  13.496
61426SOL     OW86174   7.245   1.761   8.396
61426SOL    HW186175   7.274   1.680   8.438
61426SOL    HW286176   7.227   1.820   8.469
61427SOL     OW86177  12.723   7.033   0.566
61427SOL    HW186178  12.702   7.063   0.654
61427SOL    HW286179  12.659   7.075   0.509
61428SOL     OW86180   6.302  10.535  10.439
61428SOL    HW186181   6.237  10.605  10.426
61428SOL    HW286182   6.336  10.550  10.527
61429SOL     OW86183  11.336   2.792   5.369
61429SOL    HW186184  11.334   2.832   5.456
61429SOL    HW286185  11.413   2.736   5.370
61430SOL     OW86186   6.519  11.478   1.884
61430SOL    HW186187   6.601  11.464   1.837
61430SOL    HW286188   6.453  11.434   1.829
61431SOL     OW86189   8.610   4.356   9.711
61431SOL    HW186190   8.515   4.347   9.707
61431SOL    HW286191   8.637   4.302   9.785
61432SOL     OW86192   3.172   4.401   3.771
61432SOL    HW186193   3.248   4.363   3.727
61432SOL    HW286194   3.178   4.495   3.750
61433SOL     OW86195  11.063   9.802   7.457
61433SOL    HW186196  10.999   9.848   7.511
61433SOL    HW286197  11.058   9.846   7.372
61434SOL     OW86198   0.357  10.544  14.810
61434SOL    HW186199   0.452  10.541  14.827
61434SOL    HW286200   0.344  10.629  14.768
61435SOL     OW86201   4.096   0.866   6.615
61435SOL    HW186202   4.078   0.940   6.558
61435SOL    HW286203   4.099   0.904   6.703
61436SOL     OW86204   4.299  10.652  11.175
61436SOL    HW186205   4.278  10.712  11.247
61436SOL    HW286206   4.384  10.615  11.199
61437SOL     OW86207   7.073   9.841  13.123
61437SOL    HW186208   7.066   9.859  13.217
61437SOL    HW286209   7.103   9.923  13.085
61438SOL     OW86210  12.556   3.966   3.988
61438SOL    HW186211  12.553   4.050   4.034
61438SOL    HW286212  12.467   3.952   3.957
61439SOL     OW86213   1.685   6.073   8.433
61439SOL    HW186214   1.647   6.078   8.521
61439SOL    HW286215   1.770   6.032   8.446
61440SOL     OW86216   6.635   2.056   7.833
61440SOL    HW186217   6.595   2.082   7.750
61440SOL    HW286218   6.696   2.127   7.854
61441SOL     OW86219  13.441   4.558   7.994
61441SOL    HW186220  13.374   4.511   8.044
61441SOL    HW286221  13.449   4.643   8.037
61442SOL     OW86222  11.469  14.758   8.582
61442SOL    HW186223  11.413  14.824   8.541
61442SOL    HW286224  11.459  14.773   8.676
61443SOL     OW86225  12.291  13.904   0.272
61443SOL    HW186226  12.303  13.949   0.356
61443SOL    HW286227  12.197  13.910   0.255
61444SOL     OW86228   5.826   3.754  11.657
61444SOL    HW186229   5.857   3.769  11.567
61444SOL    HW286230   5.906   3.741  11.708
61445SOL     OW86231   4.642   7.914   4.992
61445SOL    HW186232   4.686   7.973   4.932
61445SOL    HW286233   4.590   7.971   5.049
61446SOL     OW86234   7.491   5.703   3.491
61446SOL    HW186235   7.559   5.719   3.426
61446SOL    HW286236   7.472   5.789   3.529
61447SOL     OW86237   8.649  10.715   1.812
61447SOL    HW186238   8.581  10.652   1.791
61447SOL    HW286239   8.619  10.797   1.771
61448SOL     OW86240  11.246   5.901   7.747
61448SOL    HW186241  11.256   5.938   7.659
61448SOL    HW286242  11.160   5.858   7.744
61449SOL     OW86243   5.976  13.076  10.638
61449SOL    HW186244   5.991  13.045  10.727
61449SOL    HW286245   5.901  13.134  10.644
61450SOL     OW86246  11.174  11.124  10.780
61450SOL    HW186247  11.217  11.041  10.759
61450SOL    HW286248  11.090  11.120  10.735
61451SOL     OW86249   1.187   9.948   2.164
61451SOL    HW186250   1.264  10.001   2.147
61451SOL    HW286251   1.218   9.857   2.160
61452SOL     OW86252  13.460   1.776   4.252
61452SOL    HW186253  13.401   1.846   4.223
61452SOL    HW286254  13.489   1.734   4.171
61453SOL     OW86255  14.011   0.447   4.712
61453SOL    HW186256  14.040   0.358   4.690
61453SOL    HW286257  13.945   0.468   4.647
61454SOL     OW86258   3.252   1.246   1.277
61454SOL    HW186259   3.342   1.272   1.296
61454SOL    HW286260   3.254   1.150   1.280
61455SOL     OW86261   4.912   0.439   3.285
61455SOL    HW186262   4.836   0.383   3.297
61455SOL    HW286263   4.983   0.393   3.328
61456SOL     OW86264   1.992   8.147   8.456
61456SOL    HW186265   1.973   8.059   8.424
61456SOL    HW286266   1.926   8.202   8.414
61457SOL     OW86267  14.044  14.461  12.257
61457SOL    HW186268  14.054  14.369  12.281
61457SOL    HW286269  14.133  14.492  12.242
61458SOL     OW86270   3.779  12.229  11.965
61458SOL    HW186271   3.816  12.155  11.915
61458SOL    HW286272   3.849  12.295  11.964
61459SOL     OW86273   9.917   3.125   6.125
61459SOL    HW186274   9.918   3.157   6.035
61459SOL    HW286275   9.998   3.161   6.163
61460SOL     OW86276   1.438  12.871   8.551
61460SOL    HW186277   1.460  12.836   8.637
61460SOL    HW286278   1.443  12.966   8.561
61461SOL     OW86279   0.954   1.944  11.125
61461SOL    HW186280   0.979   2.030  11.090
61461SOL    HW286281   0.998   1.939  11.210
61462SOL     OW86282   2.900   5.307  12.313
61462SOL    HW186283   2.855   5.234  12.272
61462SOL    HW286284   2.924   5.275  12.400
61463SOL     OW86285  13.853  13.044  12.856
61463SOL    HW186286  13.786  12.976  12.850
61463SOL    HW286287  13.933  12.998  12.881
61464SOL     OW86288   7.962   1.454   1.465
61464SOL    HW186289   8.010   1.514   1.523
61464SOL    HW286290   7.914   1.397   1.525
61465SOL     OW86291  13.787   0.255   0.490
61465SOL    HW186292  13.853   0.205   0.442
61465SOL    HW286293  13.823   0.343   0.496
61466SOL     OW86294   4.644  12.807   5.358
61466SOL    HW186295   4.605  12.803   5.271
61466SOL    HW286296   4.737  12.789   5.343
61467SOL     OW86297   9.900   9.867  12.917
61467SOL    HW186298   9.913   9.810  12.840
61467SOL    HW286299   9.987   9.876  12.955
61468SOL     OW86300  14.176   4.008   3.152
61468SOL    HW186301  14.263   4.030   3.185
61468SOL    HW286302  14.176   4.041   3.062
61469SOL     OW86303  11.865  14.563  10.763
61469SOL    HW186304  11.921  14.519  10.827
61469SOL    HW286305  11.923  14.585  10.690
61470SOL     OW86306   2.191  12.741   0.181
61470SOL    HW186307   2.204  12.676   0.250
61470SOL    HW286308   2.159  12.819   0.227
61471SOL     OW86309  13.789   3.789  10.622
61471SOL    HW186310  13.840   3.789  10.541
61471SOL    HW286311  13.821   3.866  10.670
61472SOL     OW86312   6.822   2.845   7.073
61472SOL    HW186313   6.753   2.880   7.130
61472SOL    HW286314   6.868   2.782   7.129
61473SOL     OW86315   5.078   0.356   8.336
61473SOL    HW186316   5.149   0.409   8.301
61473SOL    HW286317   5.115   0.268   8.343
61474SOL     OW86318  14.377  10.406   7.302
61474SOL    HW186319  14.353  10.476   7.362
61474SOL    HW286320  14.352  10.325   7.348
61475SOL     OW86321  13.148   5.015   1.151
61475SOL    HW186322  13.243   5.024   1.144
61475SOL    HW286323  13.133   4.966   1.231
61476SOL     OW86324   7.545   7.835   7.102
61476SOL    HW186325   7.639   7.846   7.118
61476SOL    HW286326   7.511   7.799   7.184
61477SOL     OW86327   6.319  14.300   8.694
61477SOL    HW186328   6.255  14.270   8.631
61477SOL    HW286329   6.268  14.340   8.764
61478SOL     OW86330   6.945   2.971   5.694
61478SOL    HW186331   6.994   2.990   5.775
61478SOL    HW286332   6.941   2.876   5.692
61479SOL     OW86333  12.013  11.237   1.737
61479SOL    HW186334  11.970  11.181   1.672
61479SOL    HW286335  11.960  11.227   1.816
61480SOL     OW86336   6.243   0.097   7.322
61480SOL    HW186337   6.190   0.135   7.252
61480SOL    HW286338   6.307   0.165   7.344
61481SOL     OW86339  14.603  10.842  12.516
61481SOL    HW186340  14.617  10.879  12.604
61481SOL    HW286341  14.521  10.883  12.486
61482SOL     OW86342   2.875   3.783   0.183
61482SOL    HW186343   2.886   3.866   0.228
61482SOL    HW286344   2.839   3.806   0.098
61483SOL     OW86345  14.447   0.647  14.843
61483SOL    HW186346  14.430   0.715   0.026
61483SOL    HW286347  14.507   0.586   0.005
61484SOL     OW86348   5.805   9.924  12.199
61484SOL    HW186349   5.799   9.832  12.226
61484SOL    HW286350   5.873   9.924  12.131
61485SOL     OW86351  10.355   0.089   8.100
61485SOL    HW186352  10.332   0.014   8.046
61485SOL    HW286353  10.277   0.144   8.101
61486SOL     OW86354   0.926   3.723   5.212
61486SOL    HW186355   0.928   3.818   5.205
61486SOL    HW286356   0.861   3.696   5.147
61487SOL     OW86357   9.063   7.993  14.170
61487SOL    HW186358   9.134   8.034  14.220
61487SOL    HW286359   9.071   7.900  14.189
61488SOL     OW86360   5.899   7.180   7.423
61488SOL    HW186361   5.889   7.159   7.515
61488SOL    HW286362   5.992   7.167   7.404
61489SOL     OW86363  10.264   9.206  14.315
61489SOL    HW186364  10.336   9.260  14.350
61489SOL    HW286365  10.240   9.249  14.234
61490SOL     OW86366  10.934  13.775   5.337
61490SOL    HW186367  10.996  13.815   5.275
61490SOL    HW286368  10.931  13.835   5.411
61491SOL     OW86369   7.103   9.284   9.045
61491SOL    HW186370   7.196   9.293   9.024
61491SOL    HW286371   7.100   9.222   9.118
61492SOL     OW86372   6.967   1.298   4.746
61492SOL    HW186373   6.946   1.348   4.825
61492SOL    HW286374   6.916   1.341   4.677
61493SOL     OW86375  13.981   2.226   4.821
61493SOL    HW186376  14.006   2.134   4.823
61493SOL    HW286377  13.885   2.225   4.820
61494SOL     OW86378  14.391   9.861  13.516
61494SOL    HW186379  14.395   9.956  13.517
61494SOL    HW286380  14.435   9.834  13.597
61495SOL     OW86381   4.252   9.100   2.969
61495SOL    HW186382   4.343   9.082   2.944
61495SOL    HW286383   4.224   9.170   2.911
61496SOL     OW86384   4.533   2.607   1.646
61496SOL    HW186385   4.451   2.651   1.669
61496SOL    HW286386   4.576   2.591   1.730
61497SOL     OW86387   3.160   4.427   9.854
61497SOL    HW186388   3.083   4.385   9.893
61497SOL    HW286389   3.136   4.439   9.762
61498SOL     OW86390   8.087   5.117   0.303
61498SOL    HW186391   8.166   5.166   0.279
61498SOL    HW286392   8.087   5.116   0.398
61499SOL     OW86393  14.469   0.434   8.112
61499SOL    HW186394  14.389   0.427   8.165
61499SOL    HW286395  14.448   0.387   8.031
61500SOL     OW86396   0.855  12.680   3.040
61500SOL    HW186397   0.834  12.713   2.953
61500SOL    HW286398   0.794  12.725   3.099
61501SOL     OW86399   7.144   1.944   9.710
61501SOL    HW186400   7.125   1.852   9.726
61501SOL    HW286401   7.181   1.945   9.621
61502SOL     OW86402   6.569   4.282  12.048
61502SOL    HW186403   6.660   4.304  12.071
61502SOL    HW286404   6.570   4.274  11.953
61503SOL     OW86405   1.068   3.253  14.619
61503SOL    HW186406   0.997   3.312  14.596
61503SOL    HW286407   1.041   3.214  14.703
61504SOL     OW86408   0.618   4.057  11.202
61504SOL    HW186409   0.556   3.985  11.212
61504SOL    HW286410   0.690   4.036  11.262
61505SOL     OW86411  12.866   6.386   1.890
61505SOL    HW186412  12.889   6.463   1.838
61505SOL    HW286413  12.865   6.418   1.980
61506SOL     OW86414  10.322   1.022  12.926
61506SOL    HW186415  10.314   0.944  12.981
61506SOL    HW286416  10.287   0.996  12.841
61507SOL     OW86417   4.603   3.883   5.609
61507SOL    HW186418   4.588   3.924   5.695
61507SOL    HW286419   4.695   3.899   5.591
61508SOL     OW86420   4.772  12.657   9.096
61508SOL    HW186421   4.742  12.748   9.100
61508SOL    HW286422   4.702  12.611   9.050
61509SOL     OW86423  12.343   7.758  14.455
61509SOL    HW186424  12.248   7.748  14.444
61509SOL    HW286425  12.363   7.843  14.417
61510SOL     OW86426   1.971  14.576   9.606
61510SOL    HW186427   2.059  14.596   9.573
61510SOL    HW286428   1.952  14.649   9.665
61511SOL     OW86429  11.708  12.722   8.423
61511SOL    HW186430  11.754  12.638   8.415
61511SOL    HW286431  11.630  12.702   8.475
61512SOL     OW86432   0.615   0.838   5.964
61512SOL    HW186433   0.626   0.914   6.022
61512SOL    HW286434   0.548   0.785   6.007
61513SOL     OW86435   5.554   4.929   9.249
61513SOL    HW186436   5.615   4.982   9.300
61513SOL    HW286437   5.574   4.839   9.273
61514SOL     OW86438  13.747   3.505   8.182
61514SOL    HW186439  13.701   3.428   8.215
61514SOL    HW286440  13.692   3.535   8.110
61515SOL     OW86441   2.822  11.936   6.374
61515SOL    HW186442   2.893  11.921   6.312
61515SOL    HW286443   2.859  11.996   6.438
61516SOL     OW86444  12.988   4.144  12.060
61516SOL    HW186445  12.974   4.049  12.069
61516SOL    HW286446  12.930   4.171  11.989
61517SOL     OW86447  10.826  14.420  10.796
61517SOL    HW186448  10.801  14.384  10.711
61517SOL    HW286449  10.743  14.449  10.835
61518SOL     OW86450   4.821   7.640   7.322
61518SOL    HW186451   4.766   7.622   7.399
61518SOL    HW286452   4.872   7.717   7.347
61519SOL     OW86453   6.319   7.766  14.103
61519SOL    HW186454   6.262   7.780  14.028
61519SOL    HW286455   6.339   7.854  14.135
61520SOL     OW86456  10.171   6.865  14.867
61520SOL    HW186457  10.170   6.945  14.814
61520SOL    HW286458  10.105   6.879   0.052
61521SOL     OW86459   9.458   5.794   8.898
61521SOL    HW186460   9.536   5.847   8.916
61521SOL    HW286461   9.392   5.827   8.959
61522SOL     OW86462  11.402   8.291   7.838
61522SOL    HW186463  11.431   8.328   7.755
61522SOL    HW286464  11.415   8.362   7.902
61523SOL     OW86465   6.478   6.543  13.886
61523SOL    HW186466   6.568   6.529  13.856
61523SOL    HW286467   6.433   6.579  13.810
61524SOL     OW86468  11.537  12.312   0.055
61524SOL    HW186469  11.543  12.376  14.867
61524SOL    HW286470  11.465  12.255   0.029
61525SOL     OW86471   3.374  14.845   0.639
61525SOL    HW186472   3.282  14.831   0.662
61525SOL    HW286473   3.414  14.877   0.720
61526SOL     OW86474   3.111   4.357   5.330
61526SOL    HW186475   3.052   4.430   5.348
61526SOL    HW286476   3.068   4.307   5.261
61527SOL     OW86477   1.320   7.711  10.041
61527SOL    HW186478   1.262   7.693  10.115
61527SOL    HW286479   1.398   7.659  10.059
61528SOL     OW86480   0.896   4.669  13.932
61528SOL    HW186481   0.913   4.615  14.009
61528SOL    HW286482   0.973   4.726  13.925
61529SOL     OW86483   0.870  12.690  11.733
61529SOL    HW186484   0.897  12.750  11.663
61529SOL    HW286485   0.787  12.726  11.764
61530SOL     OW86486  12.463   6.603   1.124
61530SOL    HW186487  12.537   6.659   1.149
61530SOL    HW286488  12.388   6.662   1.123
61531SOL     OW86489   8.670   0.400   8.573
61531SOL    HW186490   8.645   0.474   8.518
61531SOL    HW286491   8.762   0.384   8.551
61532SOL     OW86492   5.118   6.251   1.331
61532SOL    HW186493   5.071   6.211   1.405
61532SOL    HW286494   5.098   6.195   1.256
61533SOL     OW86495  13.557  10.515   3.037
61533SOL    HW186496  13.512  10.435   3.066
61533SOL    HW286497  13.498  10.552   2.971
61534SOL     OW86498   6.966   3.713   1.407
61534SOL    HW186499   6.881   3.706   1.363
61534SOL    HW286500   7.026   3.740   1.337
61535SOL     OW86501  12.422  14.820   8.541
61535SOL    HW186502  12.362  14.753   8.507
61535SOL    HW286503  12.493  14.823   8.478
61536SOL     OW86504   1.831   3.881   7.344
61536SOL    HW186505   1.848   3.791   7.316
61536SOL    HW286506   1.736   3.887   7.352
61537SOL     OW86507   6.380   9.693   5.583
61537SOL    HW186508   6.382   9.598   5.578
61537SOL    HW286509   6.291   9.714   5.611
61538SOL     OW86510   1.334  12.265   6.949
61538SOL    HW186511   1.272  12.214   7.000
61538SOL    HW286512   1.370  12.328   7.012
61539SOL     OW86513   5.838   2.998   1.420
61539SOL    HW186514   5.886   3.058   1.477
61539SOL    HW286515   5.874   2.912   1.441
61540SOL     OW86516  13.169   6.366   1.906
61540SOL    HW186517  13.207   6.437   1.854
61540SOL    HW286518  13.075   6.372   1.890
61541SOL     OW86519  14.831   5.154   3.408
61541SOL    HW186520  14.858   5.239   3.373
61541SOL    HW286521   0.005   5.091   3.364
61542SOL     OW86522   1.586  14.858  11.162
61542SOL    HW186523   1.670  14.871  11.206
61542SOL    HW286524   1.534   0.053  11.185
61543SOL     OW86525   7.590   8.007   3.212
61543SOL    HW186526   7.596   8.101   3.225
61543SOL    HW286527   7.501   7.985   3.240
61544SOL     OW86528  11.731   4.025  10.659
61544SOL    HW186529  11.817   4.066  10.662
61544SOL    HW286530  11.694   4.039  10.746
61545SOL     OW86531   4.219   2.592   4.214
61545SOL    HW186532   4.157   2.548   4.272
61545SOL    HW286533   4.164   2.646   4.157
61546SOL     OW86534  10.109   9.006  13.276
61546SOL    HW186535  10.174   8.936  13.283
61546SOL    HW286536  10.160   9.087  13.286
61547SOL     OW86537   7.007   7.547  12.999
61547SOL    HW186538   7.101   7.549  13.012
61547SOL    HW286539   6.991   7.605  12.925
61548SOL     OW86540   5.398  11.168   7.279
61548SOL    HW186541   5.315  11.215   7.277
61548SOL    HW286542   5.447  11.209   7.350
61549SOL     OW86543   6.976   4.726  12.315
61549SOL    HW186544   6.977   4.647  12.263
61549SOL    HW286545   6.926   4.703  12.394
61550SOL     OW86546   1.079   6.758  11.777
61550SOL    HW186547   1.010   6.756  11.842
61550SOL    HW286548   1.033   6.761  11.693
61551SOL     OW86549   7.113  14.545   2.381
61551SOL    HW186550   7.138  14.610   2.447
61551SOL    HW286551   7.146  14.462   2.414
61552SOL     OW86552  14.033   1.940   6.272
61552SOL    HW186553  14.076   1.882   6.335
61552SOL    HW286554  14.079   1.924   6.190
61553SOL     OW86555  12.008   1.708   5.480
61553SOL    HW186556  12.009   1.749   5.566
61553SOL    HW286557  11.961   1.625   5.493
61554SOL     OW86558  13.266   7.225  14.877
61554SOL    HW186559  13.333   7.170  14.838
61554SOL    HW286560  13.307   7.258   0.076
61555SOL     OW86561  13.724   1.286  11.089
61555SOL    HW186562  13.649   1.248  11.043
61555SOL    HW286563  13.742   1.368  11.044
61556SOL     OW86564   5.824  12.802   5.657
61556SOL    HW186565   5.867  12.735   5.711
61556SOL    HW286566   5.864  12.884   5.685
61557SOL     OW86567   3.974   1.387  13.182
61557SOL    HW186568   4.014   1.389  13.095
61557SOL    HW286569   3.899   1.446  13.176
61558SOL     OW86570   9.261   6.908   1.811
61558SOL    HW186571   9.334   6.936   1.756
61558SOL    HW286572   9.233   6.825   1.773
61559SOL     OW86573  13.920   8.856   3.273
61559SOL    HW186574  13.879   8.903   3.201
61559SOL    HW286575  13.939   8.923   3.338
61560SOL     OW86576   9.523  14.350   9.602
61560SOL    HW186577   9.542  14.329   9.510
61560SOL    HW286578   9.469  14.277   9.632
61561SOL     OW86579   3.033   4.943  11.860
61561SOL    HW186580   2.941   4.917  11.856
61561SOL    HW286581   3.048   4.963  11.953
61562SOL     OW86582   0.687   3.395   5.863
61562SOL    HW186583   0.725   3.358   5.943
61562SOL    HW286584   0.707   3.489   5.868
61563SOL     OW86585   8.503   4.370   7.546
61563SOL    HW186586   8.469   4.458   7.562
61563SOL    HW286587   8.519   4.334   7.633
61564SOL     OW86588  14.758  13.015  11.865
61564SOL    HW186589  14.839  12.995  11.911
61564SOL    HW286590  14.721  12.929  11.844
61565SOL     OW86591  14.667  10.970  12.757
61565SOL    HW186592  14.653  11.059  12.724
61565SOL    HW286593  14.622  10.968  12.842
61566SOL     OW86594  14.861   2.592  13.446
61566SOL    HW186595   0.045   2.633  13.390
61566SOL    HW286596  14.868   2.637  13.530
61567SOL     OW86597   2.697   6.341   4.623
61567SOL    HW186598   2.610   6.341   4.583
61567SOL    HW286599   2.753   6.380   4.556
61568SOL     OW86600  14.184   6.773   2.432
61568SOL    HW186601  14.197   6.741   2.342
61568SOL    HW286602  14.248   6.724   2.484
61569SOL     OW86603  11.938   4.838  12.808
61569SOL    HW186604  11.940   4.751  12.769
61569SOL    HW286605  12.028   4.870  12.800
61570SOL     OW86606   4.242   4.301   5.231
61570SOL    HW186607   4.255   4.381   5.281
61570SOL    HW286608   4.167   4.258   5.272
61571SOL     OW86609  10.903   6.234   1.518
61571SOL    HW186610  10.915   6.300   1.450
61571SOL    HW286611  10.822   6.189   1.494
61572SOL     OW86612   2.843   4.634  11.576
61572SOL    HW186613   2.870   4.654  11.487
61572SOL    HW286614   2.919   4.590  11.615
61573SOL     OW86615   3.777   1.718  11.079
61573SOL    HW186616   3.730   1.635  11.079
61573SOL    HW286617   3.719   1.778  11.032
61574SOL     OW86618  10.481   2.182   5.169
61574SOL    HW186619  10.458   2.275   5.166
61574SOL    HW286620  10.514   2.169   5.258
61575SOL     OW86621   3.803   9.716   5.947
61575SOL    HW186622   3.752   9.779   5.896
61575SOL    HW286623   3.893   9.728   5.917
61576SOL     OW86624   1.641   9.862   1.360
61576SOL    HW186625   1.656   9.803   1.286
61576SOL    HW286626   1.631   9.804   1.435
61577SOL     OW86627   2.244   0.330  14.728
61577SOL    HW186628   2.217   0.421  14.716
61577SOL    HW286629   2.283   0.328  14.816
61578SOL     OW86630  12.419  10.559  12.030
61578SOL    HW186631  12.376  10.644  12.016
61578SOL    HW286632  12.495  10.561  11.971
61579SOL     OW86633   3.412   7.557  13.344
61579SOL    HW186634   3.466   7.608  13.283
61579SOL    HW286635   3.381   7.622  13.408
61580SOL     OW86636   5.111   6.068  11.594
61580SOL    HW186637   5.043   6.103  11.537
61580SOL    HW286638   5.090   6.103  11.681
61581SOL     OW86639   4.224   5.510  14.234
61581SOL    HW186640   4.174   5.435  14.203
61581SOL    HW286641   4.210   5.578  14.169
61582SOL     OW86642   4.934  14.621   3.985
61582SOL    HW186643   4.949  14.532   4.016
61582SOL    HW286644   4.991  14.630   3.908
61583SOL     OW86645   3.304   7.269   4.112
61583SOL    HW186646   3.398   7.277   4.129
61583SOL    HW286647   3.262   7.301   4.192
61584SOL     OW86648  11.297  11.473   9.532
61584SOL    HW186649  11.304  11.549   9.476
61584SOL    HW286650  11.353  11.493   9.607
61585SOL     OW86651   0.261   1.415  13.651
61585SOL    HW186652   0.350   1.425  13.685
61585SOL    HW286653   0.253   1.321  13.634
61586SOL     OW86654   1.260   2.780   8.493
61586SOL    HW186655   1.309   2.802   8.572
61586SOL    HW286656   1.228   2.865   8.461
61587SOL     OW86657  10.019  13.548  11.236
61587SOL    HW186658   9.973  13.604  11.174
61587SOL    HW286659  10.090  13.510  11.186
61588SOL     OW86660  11.762  12.426   5.872
61588SOL    HW186661  11.701  12.356   5.895
61588SOL    HW286662  11.710  12.506   5.876
61589SOL     OW86663   5.936   5.189  11.013
61589SOL    HW186664   5.987   5.109  11.025
61589SOL    HW286665   5.938   5.232  11.099
61590SOL     OW86666  10.820   7.096  14.655
61590SOL    HW186667  10.882   7.168  14.662
61590SOL    HW286668  10.757   7.125  14.589
61591SOL     OW86669  13.228   6.399   5.608
61591SOL    HW186670  13.269   6.313   5.595
61591SOL    HW286671  13.293   6.449   5.658
61592SOL     OW86672   0.826   2.637   7.802
61592SOL    HW186673   0.877   2.667   7.877
61592SOL    HW286674   0.736   2.631   7.835
61593SOL     OW86675   9.660  13.711  11.811
61593SOL    HW186676   9.601  13.675  11.745
61593SOL    HW286677   9.724  13.642  11.827
61594SOL     OW86678  10.371   7.001   1.746
61594SOL    HW186679  10.413   6.917   1.732
61594SOL    HW286680  10.348   7.032   1.658
61595SOL     OW86681  14.669   6.962   7.824
61595SOL    HW186682  14.717   6.894   7.778
61595SOL    HW286683  14.730   7.035   7.831
61596SOL     OW86684   0.802  13.633  12.958
61596SOL    HW186685   0.774  13.596  13.042
61596SOL    HW286686   0.813  13.727  12.975
61597SOL     OW86687   8.673   5.035   6.473
61597SOL    HW186688   8.676   5.110   6.413
61597SOL    HW286689   8.764   5.025   6.502
61598SOL     OW86690  14.234   6.782  11.294
61598SOL    HW186691  14.184   6.863  11.295
61598SOL    HW286692  14.174   6.716  11.327
61599SOL     OW86693   8.033   4.173   8.800
61599SOL    HW186694   8.057   4.223   8.878
61599SOL    HW286695   7.944   4.202   8.781
61600SOL     OW86696  13.796   9.520   7.593
61600SOL    HW186697  13.786   9.591   7.656
61600SOL    HW286698  13.821   9.444   7.645
61601SOL     OW86699   0.856   1.452   3.322
61601SOL    HW186700   0.861   1.527   3.382
61601SOL    HW286701   0.848   1.491   3.235
61602SOL     OW86702   0.249  13.718   6.364
61602SOL    HW186703   0.322  13.717   6.302
61602SOL    HW286704   0.286  13.756   6.443
61603SOL     OW86705   5.395   1.113   2.257
61603SOL    HW186706   5.418   1.025   2.226
61603SOL    HW286707   5.326   1.098   2.322
61604SOL     OW86708   2.873   6.333   1.211
61604SOL    HW186709   2.786   6.372   1.207
61604SOL    HW286710   2.872   6.265   1.144
61605SOL     OW86711   2.823   2.006   8.538
61605SOL    HW186712   2.869   1.950   8.475
61605SOL    HW286713   2.761   1.947   8.581
61606SOL     OW86714  13.117   6.805   4.265
61606SOL    HW186715  13.081   6.779   4.180
61606SOL    HW286716  13.073   6.887   4.286
61607SOL     OW86717   2.059   8.499  12.604
61607SOL    HW186718   1.984   8.439  12.601
61607SOL    HW286719   2.135   8.442  12.602
61608SOL     OW86720   9.994   6.424   7.644
61608SOL    HW186721  10.088   6.442   7.647
61608SOL    HW286722   9.975   6.403   7.553
61609SOL     OW86723  14.774   5.532   8.736
61609SOL    HW186724  14.842   5.465   8.747
61609SOL    HW286725  14.721   5.525   8.816
61610SOL     OW86726   3.747   3.301  12.282
61610SOL    HW186727   3.715   3.390  12.298
61610SOL    HW286728   3.820   3.291  12.343
61611SOL     OW86729  10.946   4.591  13.433
61611SOL    HW186730  10.884   4.624  13.368
61611SOL    HW286731  10.958   4.665  13.494
61612SOL     OW86732  14.649   8.612   6.421
61612SOL    HW186733  14.692   8.540   6.467
61612SOL    HW286734  14.670   8.690   6.473
61613SOL     OW86735   5.708   1.228  10.376
61613SOL    HW186736   5.651   1.269  10.311
61613SOL    HW286737   5.742   1.300  10.428
61614SOL     OW86738  11.270   4.023  12.166
61614SOL    HW186739  11.274   4.078  12.244
61614SOL    HW286740  11.236   3.940  12.197
61615SOL     OW86741   2.232  14.447   8.763
61615SOL    HW186742   2.141  14.465   8.785
61615SOL    HW286743   2.270  14.533   8.747
61616SOL     OW86744  12.083   0.765   0.930
61616SOL    HW186745  12.109   0.822   0.858
61616SOL    HW286746  11.993   0.792   0.950
61617SOL     OW86747   7.003   8.777  10.826
61617SOL    HW186748   7.028   8.689  10.855
61617SOL    HW286749   6.988   8.826  10.907
61618SOL     OW86750   7.157  12.999   5.545
61618SOL    HW186751   7.200  12.943   5.610
61618SOL    HW286752   7.069  12.961   5.537
61619SOL     OW86753   7.744   8.122  10.371
61619SOL    HW186754   7.667   8.176  10.352
61619SOL    HW286755   7.727   8.084  10.457
61620SOL     OW86756  14.609   0.384   7.712
61620SOL    HW186757  14.553   0.449   7.670
61620SOL    HW286758  14.698   0.412   7.689
61621SOL     OW86759   0.026   0.927   2.661
61621SOL    HW186760   0.075   0.898   2.737
61621SOL    HW286761  14.824   0.882   2.668
61622SOL     OW86762   6.599  11.382  11.936
61622SOL    HW186763   6.604  11.433  11.855
61622SOL    HW286764   6.507  11.357  11.943
61623SOL     OW86765   0.557  12.559  14.687
61623SOL    HW186766   0.467  12.561  14.718
61623SOL    HW286767   0.576  12.650  14.664
61624SOL     OW86768   7.130  13.233  10.950
61624SOL    HW186769   7.116  13.217  11.044
61624SOL    HW286770   7.224  13.250  10.943
61625SOL     OW86771   7.216   5.732   1.946
61625SOL    HW186772   7.164   5.789   1.890
61625SOL    HW286773   7.254   5.667   1.886
61626SOL     OW86774   4.319   9.433  12.657
61626SOL    HW186775   4.308   9.344  12.625
61626SOL    HW286776   4.267   9.487  12.598
61627SOL     OW86777   2.199   1.630   7.184
61627SOL    HW186778   2.186   1.537   7.164
61627SOL    HW286779   2.192   1.674   7.099
61628SOL     OW86780  11.592  12.576   9.470
61628SOL    HW186781  11.509  12.546   9.507
61628SOL    HW286782  11.575  12.667   9.443
61629SOL     OW86783  12.696   8.906  10.534
61629SOL    HW186784  12.634   8.974  10.562
61629SOL    HW286785  12.767   8.911  10.597
61630SOL     OW86786  12.631   4.636  12.456
61630SOL    HW186787  12.649   4.687  12.536
61630SOL    HW286788  12.714   4.594  12.435
61631SOL     OW86789   4.563   2.577   1.033
61631SOL    HW186790   4.573   2.483   1.017
61631SOL    HW286791   4.549   2.615   0.946
61632SOL     OW86792   9.441   7.110   3.316
61632SOL    HW186793   9.409   7.065   3.238
61632SOL    HW286794   9.399   7.064   3.389
61633SOL     OW86795  11.697   0.120   9.006
61633SOL    HW186796  11.663   0.206   9.031
61633SOL    HW286797  11.790   0.135   8.988
61634SOL     OW86798   1.371   6.187  13.648
61634SOL    HW186799   1.373   6.099  13.685
61634SOL    HW286800   1.432   6.185  13.575
61635SOL     OW86801   4.912   4.679   5.135
61635SOL    HW186802   4.949   4.758   5.095
61635SOL    HW286803   4.824   4.704   5.162
61636SOL     OW86804  14.085   7.699  13.430
61636SOL    HW186805  14.115   7.736  13.347
61636SOL    HW286806  14.145   7.626  13.447
61637SOL     OW86807   3.482   3.347   1.362
61637SOL    HW186808   3.391   3.356   1.390
61637SOL    HW286809   3.533   3.388   1.431
61638SOL     OW86810   3.094   2.176   2.154
61638SOL    HW186811   3.123   2.244   2.093
61638SOL    HW286812   3.131   2.095   2.118
61639SOL     OW86813  12.452  10.947  10.450
61639SOL    HW186814  12.485  11.031  10.418
61639SOL    HW286815  12.450  10.957  10.545
61640SOL     OW86816   4.602  14.290   8.371
61640SOL    HW186817   4.661  14.268   8.298
61640SOL    HW286818   4.540  14.352   8.333
61641SOL     OW86819   1.513   4.007   8.818
61641SOL    HW186820   1.531   3.913   8.815
61641SOL    HW286821   1.536   4.038   8.730
61642SOL     OW86822  11.838   7.129   6.471
61642SOL    HW186823  11.887   7.157   6.394
61642SOL    HW286824  11.898   7.140   6.544
61643SOL     OW86825   9.153  12.433   6.921
61643SOL    HW186826   9.236  12.391   6.945
61643SOL    HW286827   9.110  12.449   7.005
61644SOL     OW86828   5.308   7.540  13.048
61644SOL    HW186829   5.244   7.470  13.038
61644SOL    HW286830   5.374   7.521  12.981
61645SOL     OW86831   6.995  11.573   9.008
61645SOL    HW186832   6.909  11.615   9.004
61645SOL    HW286833   7.017  11.573   9.101
61646SOL     OW86834   3.944  14.246   4.638
61646SOL    HW186835   3.909  14.179   4.579
61646SOL    HW286836   3.881  14.248   4.711
61647SOL     OW86837   9.126  13.553  12.270
61647SOL    HW186838   9.115  13.625  12.207
61647SOL    HW286839   9.212  13.516  12.249
61648SOL     OW86840   8.648  11.425   6.989
61648SOL    HW186841   8.675  11.375   7.066
61648SOL    HW286842   8.617  11.359   6.928
61649SOL     OW86843  11.571   0.929   9.720
61649SOL    HW186844  11.592   0.954   9.810
61649SOL    HW286845  11.477   0.910   9.722
61650SOL     OW86846   4.587   2.790  11.732
61650SOL    HW186847   4.618   2.721  11.673
61650SOL    HW286848   4.646   2.864  11.714
61651SOL     OW86849   2.437   7.346   7.070
61651SOL    HW186850   2.447   7.278   7.004
61651SOL    HW286851   2.350   7.330   7.108
61652SOL     OW86852   3.175  10.775   2.758
61652SOL    HW186853   3.202  10.695   2.803
61652SOL    HW286854   3.249  10.835   2.771
61653SOL     OW86855  10.784   1.881  11.994
61653SOL    HW186856  10.821   1.924  12.071
61653SOL    HW286857  10.692   1.906  11.994
61654SOL     OW86858  12.147   2.533   2.191
61654SOL    HW186859  12.134   2.620   2.229
61654SOL    HW286860  12.102   2.535   2.107
61655SOL     OW86861   6.185   6.822   9.006
61655SOL    HW186862   6.108   6.799   9.057
61655SOL    HW286863   6.209   6.741   8.961
61656SOL     OW86864  13.493  13.764  10.122
61656SOL    HW186865  13.518  13.693  10.182
61656SOL    HW286866  13.430  13.816  10.171
61657SOL     OW86867   2.026   4.505   1.944
61657SOL    HW186868   2.109   4.458   1.950
61657SOL    HW286869   1.965   4.440   1.909
61658SOL     OW86870  13.314   4.795   3.215
61658SOL    HW186871  13.367   4.806   3.136
61658SOL    HW286872  13.269   4.712   3.202
61659SOL     OW86873   0.739   1.294   0.019
61659SOL    HW186874   0.762   1.202   0.035
61659SOL    HW286875   0.731   1.332   0.107
61660SOL     OW86876   9.907   0.421   0.236
61660SOL    HW186877   9.955   0.400   0.316
61660SOL    HW286878   9.972   0.461   0.178
61661SOL     OW86879   0.313   3.014   2.328
61661SOL    HW186880   0.267   3.094   2.305
61661SOL    HW286881   0.405   3.041   2.334
61662SOL     OW86882  14.446  14.258   8.070
61662SOL    HW186883  14.368  14.313   8.069
61662SOL    HW286884  14.516  14.313   8.036
61663SOL     OW86885  12.565   0.885   2.891
61663SOL    HW186886  12.534   0.857   2.804
61663SOL    HW286887  12.650   0.926   2.874
61664SOL     OW86888  11.103   1.917   3.845
61664SOL    HW186889  11.084   1.914   3.752
61664SOL    HW286890  11.196   1.892   3.851
61665SOL     OW86891   8.664  10.038  10.654
61665SOL    HW186892   8.611  10.115  10.634
61665SOL    HW286893   8.675   9.993  10.570
61666SOL     OW86894   6.740   3.134  13.589
61666SOL    HW186895   6.741   3.040  13.570
61666SOL    HW286896   6.649   3.160  13.575
61667SOL     OW86897  12.714   4.425   5.459
61667SOL    HW186898  12.746   4.504   5.415
61667SOL    HW286899  12.630   4.406   5.416
61668SOL     OW86900  10.414   8.872   3.996
61668SOL    HW186901  10.430   8.841   4.085
61668SOL    HW286902  10.393   8.793   3.946
61669SOL     OW86903   9.727   7.138  10.580
61669SOL    HW186904   9.687   7.176  10.502
61669SOL    HW286905   9.814   7.109  10.551
61670SOL     OW86906   7.674  13.221   0.234
61670SOL    HW186907   7.657  13.246   0.324
61670SOL    HW286908   7.719  13.137   0.241
61671SOL     OW86909   4.833   5.484   5.402
61671SOL    HW186910   4.801   5.541   5.332
61671SOL    HW286911   4.915   5.526   5.431
61672SOL     OW86912   7.348  10.846   9.820
61672SOL    HW186913   7.282  10.907   9.851
61672SOL    HW286914   7.418  10.901   9.786
61673SOL     OW86915   4.381   4.343  10.818
61673SOL    HW186916   4.378   4.342  10.914
61673SOL    HW286917   4.297   4.306  10.791
61674SOL     OW86918   0.207   4.310   0.888
61674SOL    HW186919   0.213   4.247   0.815
61674SOL    HW286920   0.298   4.325   0.914
61675SOL     OW86921   2.285  11.374  12.121
61675SOL    HW186922   2.209  11.316  12.115
61675SOL    HW286923   2.268  11.429  12.197
61676SOL     OW86924  10.570   0.190   4.199
61676SOL    HW186925  10.562   0.233   4.284
61676SOL    HW286926  10.525   0.106   4.211
61677SOL     OW86927   6.335   9.008   6.955
61677SOL    HW186928   6.337   9.068   6.881
61677SOL    HW286929   6.327   8.921   6.916
61678SOL     OW86930   5.402   6.249   3.326
61678SOL    HW186931   5.442   6.211   3.404
61678SOL    HW286932   5.475   6.286   3.276
61679SOL     OW86933   1.392  14.739   3.536
61679SOL    HW186934   1.438  14.820   3.561
61679SOL    HW286935   1.300  14.757   3.554
61680SOL     OW86936  11.346  12.489   2.886
61680SOL    HW186937  11.316  12.562   2.939
61680SOL    HW286938  11.394  12.433   2.947
61681SOL     OW86939  14.027   6.054  10.080
61681SOL    HW186940  14.057   5.963  10.075
61681SOL    HW286941  14.104   6.103  10.107
61682SOL     OW86942   3.880  12.835  11.906
61682SOL    HW186943   3.882  12.861  11.814
61682SOL    HW286944   3.972  12.818  11.928
61683SOL     OW86945  13.058   8.848   3.943
61683SOL    HW186946  13.003   8.781   3.903
61683SOL    HW286947  13.007   8.881   4.016
61684SOL     OW86948   2.374   3.136   3.167
61684SOL    HW186949   2.412   3.213   3.124
61684SOL    HW286950   2.380   3.156   3.260
61685SOL     OW86951   5.042  11.830  11.571
61685SOL    HW186952   5.053  11.736  11.554
61685SOL    HW286953   5.095  11.847  11.648
61686SOL     OW86954   5.589  14.436   1.417
61686SOL    HW186955   5.663  14.498   1.419
61686SOL    HW286956   5.534  14.462   1.490
61687SOL     OW86957   7.061   3.083   5.479
61687SOL    HW186958   7.017   3.064   5.562
61687SOL    HW286959   7.113   3.004   5.461
61688SOL     OW86960   8.743   8.851   8.522
61688SOL    HW186961   8.758   8.784   8.455
61688SOL    HW286962   8.718   8.929   8.472
61689SOL     OW86963  10.488   0.679   7.003
61689SOL    HW186964  10.483   0.771   6.978
61689SOL    HW286965  10.406   0.641   6.971
61690SOL     OW86966   6.754  11.242  14.065
61690SOL    HW186967   6.759  11.147  14.074
61690SOL    HW286968   6.667  11.265  14.100
61691SOL     OW86969  11.928   6.231  11.420
61691SOL    HW186970  11.985   6.275  11.482
61691SOL    HW286971  11.987   6.192  11.356
61692SOL     OW86972  10.304  11.928   1.631
61692SOL    HW186973  10.248  11.980   1.575
61692SOL    HW286974  10.393  11.951   1.604
61693SOL     OW86975  11.626   3.021   2.199
61693SOL    HW186976  11.538   3.040   2.168
61693SOL    HW286977  11.681   3.090   2.162
61694SOL     OW86978  12.218   5.186   2.705
61694SOL    HW186979  12.156   5.121   2.671
61694SOL    HW286980  12.253   5.229   2.626
61695SOL     OW86981   9.386   1.727  10.009
61695SOL    HW186982   9.453   1.686  10.064
61695SOL    HW286983   9.389   1.820  10.033
61696SOL     OW86984   3.434   9.859   9.711
61696SOL    HW186985   3.357   9.910   9.686
61696SOL    HW286986   3.454   9.888   9.800
61697SOL     OW86987  13.241   3.973   4.395
61697SOL    HW186988  13.314   3.960   4.455
61697SOL    HW286989  13.280   3.971   4.308
61698SOL     OW86990   7.577  10.062  13.833
61698SOL    HW186991   7.634   9.985  13.828
61698SOL    HW286992   7.635  10.137  13.821
61699SOL     OW86993   5.193   8.905   3.673
61699SOL    HW186994   5.127   8.956   3.627
61699SOL    HW286995   5.177   8.815   3.646
61700SOL     OW86996  14.671   0.531   2.773
61700SOL    HW186997  14.628   0.467   2.716
61700SOL    HW286998  14.653   0.500   2.862
61701SOL     OW86999   3.679  13.336   2.306
61701SOL    HW187000   3.663  13.320   2.399
61701SOL    HW287001   3.699  13.430   2.301
61702SOL     OW87002   1.189  13.951  11.907
61702SOL    HW187003   1.151  14.004  11.977
61702SOL    HW287004   1.256  13.899  11.950
61703SOL     OW87005   2.481  12.763  13.805
61703SOL    HW187006   2.439  12.801  13.727
61703SOL    HW287007   2.408  12.733  13.859
61704SOL     OW87008   6.563   9.153   0.199
61704SOL    HW187009   6.575   9.242   0.234
61704SOL    HW287010   6.592   9.096   0.270
61705SOL     OW87011   0.875   6.247  12.202
61705SOL    HW187012   0.906   6.334  12.226
61705SOL    HW287013   0.779   6.253  12.208
61706SOL     OW87014   4.196   3.216   5.533
61706SOL    HW187015   4.278   3.187   5.494
61706SOL    HW287016   4.148   3.258   5.461
61707SOL     OW87017   5.290   3.854   2.473
61707SOL    HW187018   5.374   3.869   2.431
61707SOL    HW287019   5.287   3.916   2.546
61708SOL     OW87020   0.024  14.411  12.493
61708SOL    HW187021   0.065  14.472  12.431
61708SOL    HW287022  14.851  14.467  12.548
61709SOL     OW87023  11.892   8.561  13.434
61709SOL    HW187024  11.908   8.562  13.339
61709SOL    HW287025  11.953   8.627  13.469
61710SOL     OW87026  13.083   1.934  10.174
61710SOL    HW187027  13.002   1.959  10.218
61710SOL    HW287028  13.132   2.016  10.164
61711SOL     OW87029  12.062   2.134  11.224
61711SOL    HW187030  12.050   2.143  11.319
61711SOL    HW287031  12.154   2.109  11.214
61712SOL     OW87032   3.027   1.275   0.859
61712SOL    HW187033   2.933   1.281   0.876
61712SOL    HW287034   3.067   1.332   0.925
61713SOL     OW87035   4.875   8.589  10.054
61713SOL    HW187036   4.815   8.555  10.120
61713SOL    HW287037   4.862   8.684  10.055
61714SOL     OW87038  14.496   9.612  12.374
61714SOL    HW187039  14.409   9.621  12.334
61714SOL    HW287040  14.482   9.556  12.450
61715SOL     OW87041  14.257   3.001  14.094
61715SOL    HW187042  14.211   2.917  14.091
61715SOL    HW287043  14.204   3.056  14.152
61716SOL     OW87044   1.029   6.609   5.603
61716SOL    HW187045   0.934   6.606   5.601
61716SOL    HW287046   1.050   6.642   5.691
61717SOL     OW87047   1.424  13.325  13.251
61717SOL    HW187048   1.361  13.352  13.318
61717SOL    HW287049   1.506  13.314  13.299
61718SOL     OW87050   3.857  11.023  11.045
61718SOL    HW187051   3.791  11.025  10.976
61718SOL    HW287052   3.837  10.943  11.095
61719SOL     OW87053   8.773  10.919   7.351
61719SOL    HW187054   8.771  10.849   7.416
61719SOL    HW287055   8.840  10.893   7.289
61720SOL     OW87056  12.239   5.315   2.428
61720SOL    HW187057  12.163   5.261   2.405
61720SOL    HW287058  12.220   5.401   2.389
61721SOL     OW87059   6.999   0.618   8.541
61721SOL    HW187060   6.995   0.665   8.458
61721SOL    HW287061   6.908   0.598   8.562
61722SOL     OW87062  10.651  14.866   2.628
61722SOL    HW187063  10.601   0.020   2.555
61722SOL    HW287064  10.588  14.857   2.699
61723SOL     OW87065   1.223  11.807   1.251
61723SOL    HW187066   1.236  11.885   1.305
61723SOL    HW287067   1.286  11.744   1.284
61724SOL     OW87068   6.300   9.533   2.707
61724SOL    HW187069   6.306   9.605   2.769
61724SOL    HW287070   6.288   9.576   2.622
61725SOL     OW87071  11.687  12.740   7.403
61725SOL    HW187072  11.689  12.666   7.342
61725SOL    HW287073  11.594  12.755   7.419
61726SOL     OW87074   0.668  13.551   3.425
61726SOL    HW187075   0.633  13.462   3.424
61726SOL    HW287076   0.626  13.593   3.500
61727SOL     OW87077  11.218   5.858   9.404
61727SOL    HW187078  11.284   5.902   9.459
61727SOL    HW287079  11.189   5.925   9.343
61728SOL     OW87080   0.524   3.803  14.149
61728SOL    HW187081   0.457   3.784  14.214
61728SOL    HW287082   0.488   3.876  14.098
61729SOL     OW87083   9.164   8.658   4.295
61729SOL    HW187084   9.096   8.725   4.304
61729SOL    HW287085   9.192   8.641   4.385
61730SOL     OW87086  10.253   4.807   1.186
61730SOL    HW187087  10.334   4.859   1.178
61730SOL    HW287088  10.212   4.816   1.100
61731SOL     OW87089  13.718  12.174   8.633
61731SOL    HW187090  13.725  12.130   8.548
61731SOL    HW287091  13.761  12.114   8.694
61732SOL     OW87092  12.736  12.909   3.418
61732SOL    HW187093  12.727  12.838   3.355
61732SOL    HW287094  12.657  12.961   3.407
61733SOL     OW87095  12.197   2.835  11.161
61733SOL    HW187096  12.146   2.814  11.239
61733SOL    HW287097  12.145   2.900  11.114
61734SOL     OW87098  10.809   6.898   4.704
61734SOL    HW187099  10.777   6.953   4.775
61734SOL    HW287100  10.790   6.808   4.732
61735SOL     OW87101   9.885  12.388  12.276
61735SOL    HW187102   9.849  12.309  12.316
61735SOL    HW287103   9.967  12.360  12.236
61736SOL     OW87104   9.223  14.764  14.195
61736SOL    HW187105   9.210  14.669  14.189
61736SOL    HW287106   9.293  14.783  14.133
61737SOL     OW87107   2.913  10.938  14.083
61737SOL    HW187108   2.817  10.939  14.076
61737SOL    HW287109   2.943  10.977  14.001
61738SOL     OW87110   4.457   4.160  12.166
61738SOL    HW187111   4.422   4.190  12.250
61738SOL    HW287112   4.379   4.151  12.110
61739SOL     OW87113   6.708  11.568   5.445
61739SOL    HW187114   6.731  11.644   5.498
61739SOL    HW287115   6.654  11.603   5.374
61740SOL     OW87116   8.407   2.799   1.451
61740SOL    HW187117   8.437   2.708   1.448
61740SOL    HW287118   8.487   2.851   1.445
61741SOL     OW87119  14.678   6.515   0.092
61741SOL    HW187120  14.759   6.527   0.142
61741SOL    HW287121  14.621   6.464   0.151
61742SOL     OW87122  14.549   4.443   8.728
61742SOL    HW187123  14.504   4.522   8.697
61742SOL    HW287124  14.526   4.436   8.820
61743SOL     OW87125   9.952  12.352   2.031
61743SOL    HW187126  10.029  12.362   1.974
61743SOL    HW287127   9.885  12.405   1.990
61744SOL     OW87128  11.155   7.059   9.709
61744SOL    HW187129  11.149   6.968   9.679
61744SOL    HW287130  11.204   7.104   9.641
61745SOL     OW87131   9.975   1.394   6.736
61745SOL    HW187132   9.958   1.422   6.826
61745SOL    HW287133   9.897   1.345   6.710
61746SOL     OW87134   2.153  10.013   2.599
61746SOL    HW187135   2.122   9.922   2.589
61746SOL    HW287136   2.080  10.059   2.640
61747SOL     OW87137  10.248  12.688   4.469
61747SOL    HW187138  10.185  12.647   4.409
61747SOL    HW287139  10.322  12.711   4.413
61748SOL     OW87140   6.250  11.345  11.062
61748SOL    HW187141   6.302  11.408  11.110
61748SOL    HW287142   6.168  11.338  11.111
61749SOL     OW87143   7.423  10.342  14.782
61749SOL    HW187144   7.358  10.318  14.847
61749SOL    HW287145   7.372  10.379  14.709
61750SOL     OW87146   0.367   4.796   1.248
61750SOL    HW187147   0.296   4.786   1.311
61750SOL    HW287148   0.437   4.838   1.297
61751SOL     OW87149  12.567   0.922   7.826
61751SOL    HW187150  12.542   1.001   7.780
61751SOL    HW287151  12.555   0.852   7.762
61752SOL     OW87152   4.575   8.113   5.598
61752SOL    HW187153   4.533   8.085   5.516
61752SOL    HW287154   4.668   8.116   5.577
61753SOL     OW87155  10.391  11.536   1.211
61753SOL    HW187156  10.415  11.567   1.298
61753SOL    HW287157  10.338  11.606   1.174
61754SOL     OW87158  14.035   8.195  14.340
61754SOL    HW187159  14.014   8.176  14.249
61754SOL    HW287160  13.952   8.184  14.387
61755SOL     OW87161  14.735   5.673   1.403
61755SOL    HW187162  14.755   5.656   1.310
61755SOL    HW287163  14.697   5.761   1.403
61756SOL     OW87164   1.581  13.581  13.266
61756SOL    HW187165   1.655  13.570  13.325
61756SOL    HW287166   1.558  13.492  13.239
61757SOL     OW87167   7.570   5.104   5.477
61757SOL    HW187168   7.630   5.072   5.410
61757SOL    HW287169   7.560   5.031   5.538
61758SOL     OW87170   7.626  12.010  14.265
61758SOL    HW187171   7.641  11.947  14.196
61758SOL    HW287172   7.532  12.027  14.263
61759SOL     OW87173  12.862   1.080   8.847
61759SOL    HW187174  12.957   1.084   8.843
61759SOL    HW287175  12.842   1.076   8.941
61760SOL     OW87176  11.484   0.268   8.000
61760SOL    HW187177  11.574   0.284   7.971
61760SOL    HW287178  11.477   0.173   8.003
61761SOL     OW87179   7.567  13.344   7.902
61761SOL    HW187180   7.614  13.271   7.863
61761SOL    HW287181   7.609  13.357   7.987
61762SOL     OW87182  14.114   8.164   5.167
61762SOL    HW187183  14.020   8.144   5.159
61762SOL    HW287184  14.143   8.179   5.078
61763SOL     OW87185   3.405   4.906   8.765
61763SOL    HW187186   3.445   4.987   8.796
61763SOL    HW287187   3.440   4.838   8.822
61764SOL     OW87188   5.195   6.881  10.965
61764SOL    HW187189   5.272   6.938  10.967
61764SOL    HW287190   5.136   6.922  10.902
61765SOL     OW87191  14.439  13.237   1.438
61765SOL    HW187192  14.467  13.325   1.464
61765SOL    HW287193  14.398  13.200   1.516
61766SOL     OW87194   4.471   5.685  12.113
61766SOL    HW187195   4.422   5.753  12.067
61766SOL    HW287196   4.462   5.707  12.205
61767SOL     OW87197  12.384   2.649   4.295
61767SOL    HW187198  12.435   2.730   4.298
61767SOL    HW287199  12.295   2.678   4.275
61768SOL     OW87200   2.444   4.116   3.172
61768SOL    HW187201   2.466   4.156   3.256
61768SOL    HW287202   2.522   4.129   3.118
61769SOL     OW87203  10.541  10.734   0.529
61769SOL    HW187204  10.570  10.825   0.524
61769SOL    HW287205  10.465  10.735   0.587
61770SOL     OW87206   6.491  13.760  13.007
61770SOL    HW187207   6.461  13.678  13.044
61770SOL    HW287208   6.493  13.745  12.912
61771SOL     OW87209  13.617   8.744   3.074
61771SOL    HW187210  13.634   8.671   3.133
61771SOL    HW287211  13.564   8.805   3.126
61772SOL     OW87212  12.100  11.583   4.842
61772SOL    HW187213  12.111  11.547   4.930
61772SOL    HW287214  12.006  11.599   4.835
61773SOL     OW87215   0.913   7.353   6.473
61773SOL    HW187216   0.920   7.432   6.419
61773SOL    HW287217   0.999   7.312   6.467
61774SOL     OW87218   7.527   9.939   2.750
61774SOL    HW187219   7.526   9.898   2.663
61774SOL    HW287220   7.434   9.942   2.775
61775SOL     OW87221  11.391  13.009  10.310
61775SOL    HW187222  11.361  13.076  10.371
61775SOL    HW287223  11.312  12.984  10.262
61776SOL     OW87224   1.675   0.156   2.722
61776SOL    HW187225   1.723   0.077   2.749
61776SOL    HW287226   1.701   0.170   2.631
61777SOL     OW87227  11.808  11.893   5.655
61777SOL    HW187228  11.759  11.960   5.703
61777SOL    HW287229  11.803  11.921   5.564
61778SOL     OW87230  13.925   0.375   8.232
61778SOL    HW187231  13.868   0.315   8.183
61778SOL    HW287232  13.990   0.318   8.273
61779SOL     OW87233  12.324   0.497   5.366
61779SOL    HW187234  12.384   0.498   5.292
61779SOL    HW287235  12.237   0.492   5.326
61780SOL     OW87236  11.772   6.122  13.757
61780SOL    HW187237  11.852   6.088  13.715
61780SOL    HW287238  11.702   6.068  13.722
61781SOL     OW87239  12.310   6.578   2.988
61781SOL    HW187240  12.346   6.582   2.899
61781SOL    HW287241  12.215   6.587   2.975
61782SOL     OW87242   8.902   6.705  12.756
61782SOL    HW187243   8.808   6.689  12.755
61782SOL    HW287244   8.941   6.618  12.748
61783SOL     OW87245   8.444   0.024   5.900
61783SOL    HW187246   8.419  14.815   5.915
61783SOL    HW287247   8.385   0.074   5.956
61784SOL     OW87248   0.164   1.017   4.095
61784SOL    HW187249   0.089   1.075   4.082
61784SOL    HW287250   0.235   1.059   4.047
61785SOL     OW87251  13.988   6.433   4.482
61785SOL    HW187252  13.911   6.440   4.538
61785SOL    HW287253  14.000   6.339   4.468
61786SOL     OW87254   8.008   3.461   9.956
61786SOL    HW187255   8.072   3.512   9.906
61786SOL    HW287256   7.950   3.527   9.994
61787SOL     OW87257  12.743   5.597  12.055
61787SOL    HW187258  12.776   5.646  11.980
61787SOL    HW287259  12.790   5.633  12.130
61788SOL     OW87260   2.879   4.968   1.853
61788SOL    HW187261   2.877   4.937   1.763
61788SOL    HW287262   2.793   4.946   1.888
61789SOL     OW87263   5.222   0.689   1.836
61789SOL    HW187264   5.279   0.761   1.808
61789SOL    HW287265   5.138   0.730   1.854
61790SOL     OW87266  11.394   4.010   1.154
61790SOL    HW187267  11.486   4.034   1.146
61790SOL    HW287268  11.395   3.930   1.207
61791SOL     OW87269   5.098   8.335  13.109
61791SOL    HW187270   5.025   8.294  13.156
61791SOL    HW287271   5.167   8.345  13.175
61792SOL     OW87272   3.244  12.819   9.732
61792SOL    HW187273   3.251  12.869   9.651
61792SOL    HW287274   3.151  12.825   9.756
61793SOL     OW87275  11.535   1.287   5.063
61793SOL    HW187276  11.463   1.240   5.022
61793SOL    HW287277  11.525   1.271   5.157
61794SOL     OW87278   5.202   1.556   5.709
61794SOL    HW187279   5.241   1.550   5.621
61794SOL    HW287280   5.169   1.468   5.727
61795SOL     OW87281   4.950  14.597   9.467
61795SOL    HW187282   4.977  14.679   9.508
61795SOL    HW287283   4.974  14.529   9.530
61796SOL     OW87284   4.058   2.679   3.371
61796SOL    HW187285   3.998   2.706   3.301
61796SOL    HW287286   4.143   2.713   3.344
61797SOL     OW87287   8.287   5.378  10.668
61797SOL    HW187288   8.192   5.378  10.653
61797SOL    HW287289   8.316   5.293  10.635
61798SOL     OW87290   0.570  12.896   3.913
61798SOL    HW187291   0.546  12.812   3.874
61798SOL    HW287292   0.598  12.874   4.002
61799SOL     OW87293   0.657   4.284   0.320
61799SOL    HW187294   0.746   4.269   0.350
61799SOL    HW287295   0.634   4.371   0.354
61800SOL     OW87296   3.382   7.138   7.794
61800SOL    HW187297   3.342   7.225   7.782
61800SOL    HW287298   3.451   7.151   7.858
61801SOL     OW87299   0.275   2.119   3.356
61801SOL    HW187300   0.303   2.198   3.311
61801SOL    HW287301   0.356   2.080   3.390
61802SOL     OW87302   9.548   9.616  12.731
61802SOL    HW187303   9.514   9.661  12.808
61802SOL    HW287304   9.472   9.610  12.672
61803SOL     OW87305  12.033   0.789   5.377
61803SOL    HW187306  12.018   0.751   5.464
61803SOL    HW287307  11.957   0.844   5.362
61804SOL     OW87308  14.853   6.400   7.911
61804SOL    HW187309  14.771   6.431   7.872
61804SOL    HW287310   0.007   6.340   7.847
61805SOL     OW87311   4.097   1.082  12.348
61805SOL    HW187312   4.135   1.108  12.264
61805SOL    HW287313   4.141   0.999  12.370
61806SOL     OW87314   3.832  11.549  11.708
61806SOL    HW187315   3.836  11.632  11.755
61806SOL    HW287316   3.777  11.493  11.763
61807SOL     OW87317   5.504   2.951  10.176
61807SOL    HW187318   5.562   3.025  10.157
61807SOL    HW287319   5.501   2.901  10.095
61808SOL     OW87320  12.164   5.291   1.677
61808SOL    HW187321  12.131   5.226   1.739
61808SOL    HW287322  12.129   5.374   1.709
61809SOL     OW87323   9.908   5.100   4.204
61809SOL    HW187324   9.966   5.160   4.252
61809SOL    HW287325   9.821   5.118   4.238
61810SOL     OW87326  13.914  11.011   9.104
61810SOL    HW187327  13.861  11.060   9.042
61810SOL    HW287328  13.876  10.923   9.103
61811SOL     OW87329   5.138   4.565   4.860
61811SOL    HW187330   5.162   4.605   4.943
61811SOL    HW287331   5.063   4.509   4.880
61812SOL     OW87332   6.226   3.167  12.557
61812SOL    HW187333   6.195   3.091  12.508
61812SOL    HW287334   6.190   3.242  12.509
61813SOL     OW87335   0.980   7.634   4.560
61813SOL    HW187336   0.989   7.548   4.601
61813SOL    HW287337   0.945   7.615   4.472
61814SOL     OW87338   9.792   6.051  11.175
61814SOL    HW187339   9.726   6.115  11.147
61814SOL    HW287340   9.766   5.969  11.133
61815SOL     OW87341   6.828   0.181   9.941
61815SOL    HW187342   6.908   0.210   9.985
61815SOL    HW287343   6.854   0.169   9.850
61816SOL     OW87344   1.302  13.284   0.904
61816SOL    HW187345   1.261  13.245   0.827
61816SOL    HW287346   1.392  13.301   0.877
61817SOL     OW87347   0.768   3.219  11.308
61817SOL    HW187348   0.747   3.126  11.312
61817SOL    HW287349   0.683   3.262  11.291
61818SOL     OW87350  12.102  12.634  14.869
61818SOL    HW187351  12.035  12.570  14.845
61818SOL    HW287352  12.092  12.704  14.804
61819SOL     OW87353   5.469   0.435   9.060
61819SOL    HW187354   5.477   0.510   9.119
61819SOL    HW287355   5.391   0.389   9.092
61820SOL     OW87356  14.255   7.779   0.268
61820SOL    HW187357  14.305   7.711   0.222
61820SOL    HW287358  14.229   7.840   0.199
61821SOL     OW87359   3.734   2.116   8.323
61821SOL    HW187360   3.745   2.024   8.350
61821SOL    HW287361   3.640   2.129   8.317
61822SOL     OW87362   0.851   7.940   8.549
61822SOL    HW187363   0.915   7.868   8.547
61822SOL    HW287364   0.899   8.012   8.590
61823SOL     OW87365   7.511  12.271   2.739
61823SOL    HW187366   7.524  12.366   2.737
61823SOL    HW287367   7.598  12.235   2.751
61824SOL     OW87368   0.190   4.880   5.635
61824SOL    HW187369   0.141   4.824   5.575
61824SOL    HW287370   0.135   4.958   5.645
61825SOL     OW87371  12.068  11.370   3.256
61825SOL    HW187372  11.973  11.379   3.265
61825SOL    HW287373  12.103  11.418   3.330
61826SOL     OW87374   5.113   8.499  13.863
61826SOL    HW187375   5.069   8.584  13.859
61826SOL    HW287376   5.206   8.520  13.855
61827SOL     OW87377   4.216  13.520   0.466
61827SOL    HW187378   4.259  13.545   0.384
61827SOL    HW287379   4.221  13.424   0.468
61828SOL     OW87380   9.430   2.418  14.664
61828SOL    HW187381   9.457   2.471  14.589
61828SOL    HW287382   9.512   2.387  14.702
61829SOL     OW87383   1.304   0.517   3.491
61829SOL    HW187384   1.300   0.522   3.396
61829SOL    HW287385   1.288   0.425   3.511
61830SOL     OW87386   3.527  14.664  14.757
61830SOL    HW187387   3.579  14.691  14.681
61830SOL    HW287388   3.569  14.584  14.788
61831SOL     OW87389   1.841   0.258   3.629
61831SOL    HW187390   1.808   0.169   3.613
61831SOL    HW287391   1.936   0.247   3.637
61832SOL     OW87392   0.323   6.518  14.093
61832SOL    HW187393   0.263   6.446  14.073
61832SOL    HW287394   0.349   6.553  14.008
61833SOL     OW87395  14.234   8.720   6.376
61833SOL    HW187396  14.275   8.643   6.415
61833SOL    HW287397  14.306   8.779   6.356
61834SOL     OW87398   2.460   8.296   0.054
61834SOL    HW187399   2.484   8.282  14.845
61834SOL    HW287400   2.527   8.248   0.104
61835SOL     OW87401   6.645   3.702   5.881
61835SOL    HW187402   6.727   3.691   5.834
61835SOL    HW287403   6.650   3.640   5.953
61836SOL     OW87404   2.197   1.638   4.750
61836SOL    HW187405   2.121   1.682   4.712
61836SOL    HW287406   2.231   1.583   4.680
61837SOL     OW87407  10.941   7.079  13.629
61837SOL    HW187408  11.027   7.044  13.603
61837SOL    HW287409  10.945   7.083  13.724
61838SOL     OW87410   0.043   0.705   7.168
61838SOL    HW187411   0.075   0.734   7.253
61838SOL    HW287412  14.869   0.630   7.188
61839SOL     OW87413  12.751   0.324   5.320
61839SOL    HW187414  12.697   0.301   5.397
61839SOL    HW287415  12.735   0.417   5.306
61840SOL     OW87416   6.159  14.379   8.890
61840SOL    HW187417   6.116  14.458   8.923
61840SOL    HW287418   6.093  14.336   8.836
61841SOL     OW87419  12.166   8.532   3.434
61841SOL    HW187420  12.107   8.524   3.359
61841SOL    HW287421  12.121   8.487   3.505
61842SOL     OW87422   1.729   7.362   3.850
61842SOL    HW187423   1.719   7.447   3.894
61842SOL    HW287424   1.661   7.362   3.783
61843SOL     OW87425  10.073   4.568   7.442
61843SOL    HW187426  10.166   4.576   7.425
61843SOL    HW287427  10.063   4.593   7.534
61844SOL     OW87428  10.848  13.917   0.571
61844SOL    HW187429  10.889  13.991   0.527
61844SOL    HW287430  10.820  13.859   0.501
61845SOL     OW87431   1.088   0.458  10.480
61845SOL    HW187432   1.144   0.518  10.529
61845SOL    HW287433   1.037   0.413  10.547
61846SOL     OW87434  12.948   0.654   6.303
61846SOL    HW187435  12.961   0.743   6.271
61846SOL    HW287436  13.020   0.604   6.265
61847SOL     OW87437   2.593   8.630   4.839
61847SOL    HW187438   2.538   8.675   4.904
61847SOL    HW287439   2.590   8.538   4.865
61848SOL     OW87440  11.192   2.894  13.668
61848SOL    HW187441  11.255   2.834  13.708
61848SOL    HW287442  11.216   2.897  13.576
61849SOL     OW87443   7.931   5.447  13.625
61849SOL    HW187444   8.010   5.446  13.679
61849SOL    HW287445   7.909   5.539  13.615
61850SOL     OW87446   7.086  12.700   2.878
61850SOL    HW187447   7.117  12.638   2.943
61850SOL    HW287448   7.011  12.742   2.919
61851SOL     OW87449   7.306   1.329  12.481
61851SOL    HW187450   7.355   1.310  12.401
61851SOL    HW287451   7.357   1.289  12.551
61852SOL     OW87452   6.819   8.812   1.461
61852SOL    HW187453   6.793   8.852   1.544
61852SOL    HW287454   6.780   8.725   1.463
61853SOL     OW87455  11.433  12.211   0.333
61853SOL    HW187456  11.371  12.163   0.279
61853SOL    HW287457  11.447  12.294   0.286
61854SOL     OW87458   4.541   2.162   5.413
61854SOL    HW187459   4.457   2.206   5.398
61854SOL    HW287460   4.545   2.094   5.346
61855SOL     OW87461   8.620   0.125  13.587
61855SOL    HW187462   8.713   0.135  13.607
61855SOL    HW287463   8.615   0.048  13.532
61856SOL     OW87464  11.316  13.461  13.573
61856SOL    HW187465  11.409  13.478  13.566
61856SOL    HW287466  11.288  13.439  13.484
61857SOL     OW87467   0.596   4.707   4.269
61857SOL    HW187468   0.642   4.689   4.352
61857SOL    HW287469   0.659   4.755   4.216
61858SOL     OW87470  14.326   6.084   2.819
61858SOL    HW187471  14.309   6.106   2.911
61858SOL    HW287472  14.349   5.991   2.820
61859SOL     OW87473   5.751   2.921   8.065
61859SOL    HW187474   5.765   2.875   8.148
61859SOL    HW287475   5.830   2.903   8.015
61860SOL     OW87476   8.062   5.177   3.370
61860SOL    HW187477   7.989   5.205   3.314
61860SOL    HW287478   8.033   5.198   3.459
61861SOL     OW87479   5.367   7.577   0.057
61861SOL    HW187480   5.292   7.605   0.109
61861SOL    HW287481   5.433   7.644   0.073
61862SOL     OW87482  10.903  14.092   2.285
61862SOL    HW187483  10.949  14.175   2.290
61862SOL    HW287484  10.813  14.113   2.308
61863SOL     OW87485   6.782   7.321   0.360
61863SOL    HW187486   6.838   7.308   0.436
61863SOL    HW287487   6.780   7.416   0.346
61864SOL     OW87488   4.040  11.103   9.071
61864SOL    HW187489   4.023  11.169   9.139
61864SOL    HW287490   4.135  11.105   9.059
61865SOL     OW87491   6.848   4.711   4.901
61865SOL    HW187492   6.854   4.806   4.911
61865SOL    HW287493   6.808   4.698   4.816
61866SOL     OW87494   2.999  12.148  12.018
61866SOL    HW187495   3.095  12.151  12.020
61866SOL    HW287496   2.978  12.110  11.932
61867SOL     OW87497   9.848  13.099   4.197
61867SOL    HW187498   9.868  13.170   4.136
61867SOL    HW287499   9.921  13.100   4.259
61868SOL     OW87500   9.371   5.552   0.020
61868SOL    HW187501   9.403   5.563  14.813
61868SOL    HW287502   9.284   5.591   0.020
61869SOL     OW87503  14.448   8.135   0.592
61869SOL    HW187504  14.382   8.182   0.644
61869SOL    HW287505  14.410   8.049   0.577
61870SOL     OW87506  12.811   6.452   0.964
61870SOL    HW187507  12.835   6.490   0.879
61870SOL    HW287508  12.827   6.358   0.954
61871SOL     OW87509   1.971   0.125   5.477
61871SOL    HW187510   1.901   0.188   5.490
61871SOL    HW287511   2.051   0.177   5.482
61872SOL     OW87512   8.789   6.974   4.320
61872SOL    HW187513   8.805   6.896   4.373
61872SOL    HW287514   8.840   6.960   4.240
61873SOL     OW87515   9.173   9.874   2.458
61873SOL    HW187516   9.237   9.803   2.456
61873SOL    HW287517   9.185   9.913   2.544
61874SOL     OW87518   1.425  12.879   4.243
61874SOL    HW187519   1.420  12.863   4.149
61874SOL    HW287520   1.491  12.947   4.253
61875SOL     OW87521   7.558   2.019  14.153
61875SOL    HW187522   7.652   2.029  14.139
61875SOL    HW287523   7.551   1.960  14.229
61876SOL     OW87524   3.178   7.294   5.771
61876SOL    HW187525   3.262   7.335   5.751
61876SOL    HW287526   3.174   7.295   5.867
61877SOL     OW87527   9.675  13.966  11.922
61877SOL    HW187528   9.647  13.955  12.013
61877SOL    HW287529   9.657  13.881  11.882
61878SOL     OW87530  14.062  10.769   7.845
61878SOL    HW187531  14.138  10.812   7.884
61878SOL    HW287532  14.099  10.702   7.788
61879SOL     OW87533   5.466  12.394   3.022
61879SOL    HW187534   5.560  12.389   3.039
61879SOL    HW287535   5.430  12.316   3.063
61880SOL     OW87536   2.471  14.358   9.881
61880SOL    HW187537   2.475  14.316   9.967
61880SOL    HW287538   2.539  14.425   9.884
61881SOL     OW87539   8.298  11.727   5.748
61881SOL    HW187540   8.208  11.695   5.744
61881SOL    HW287541   8.310  11.775   5.665
61882SOL     OW87542   3.798   0.916   9.044
61882SOL    HW187543   3.804   0.841   8.985
61882SOL    HW287544   3.704   0.934   9.051
61883SOL     OW87545   3.756   1.234   9.821
61883SOL    HW187546   3.790   1.316   9.856
61883SOL    HW287547   3.750   1.249   9.727
61884SOL     OW87548   9.654  12.323   6.815
61884SOL    HW187549   9.640  12.228   6.818
61884SOL    HW287550   9.643  12.346   6.723
61885SOL     OW87551   0.003  11.645   6.508
61885SOL    HW187552   0.087  11.611   6.477
61885SOL    HW287553   0.015  11.740   6.513
61886SOL     OW87554   5.494   5.632   2.229
61886SOL    HW187555   5.472   5.721   2.255
61886SOL    HW287556   5.467   5.627   2.137
61887SOL     OW87557   8.716  11.557   3.456
61887SOL    HW187558   8.683  11.482   3.507
61887SOL    HW287559   8.807  11.565   3.483
61888SOL     OW87560  11.691   3.651   2.330
61888SOL    HW187561  11.676   3.632   2.237
61888SOL    HW287562  11.777   3.694   2.332
61889SOL     OW87563   0.948   4.092  14.392
61889SOL    HW187564   1.032   4.064  14.358
61889SOL    HW287565   0.966   4.125  14.480
61890SOL     OW87566   1.641  12.429   3.305
61890SOL    HW187567   1.592  12.480   3.239
61890SOL    HW287568   1.667  12.494   3.370
61891SOL     OW87569  13.281  11.588   1.683
61891SOL    HW187570  13.347  11.656   1.667
61891SOL    HW287571  13.224  11.624   1.751
61892SOL     OW87572   8.536   0.227   2.032
61892SOL    HW187573   8.607   0.284   2.003
61892SOL    HW287574   8.534   0.157   1.967
61893SOL     OW87575  13.504   1.134   4.229
61893SOL    HW187576  13.546   1.188   4.162
61893SOL    HW287577  13.575   1.111   4.289
61894SOL     OW87578   3.191   0.062   6.466
61894SOL    HW187579   3.096   0.052   6.469
61894SOL    HW287580   3.213   0.101   6.551
61895SOL     OW87581   8.051  12.642   7.938
61895SOL    HW187582   8.003  12.704   7.884
61895SOL    HW287583   8.142  12.672   7.935
61896SOL     OW87584   9.140  12.147  12.727
61896SOL    HW187585   9.092  12.201  12.665
61896SOL    HW287586   9.218  12.200  12.749
61897SOL     OW87587   3.683   6.053   8.015
61897SOL    HW187588   3.603   6.036   7.964
61897SOL    HW287589   3.653   6.102   8.091
61898SOL     OW87590   0.150   6.405   4.140
61898SOL    HW187591   0.079   6.468   4.147
61898SOL    HW287592   0.130   6.355   4.060
61899SOL     OW87593   8.157   8.017   8.130
61899SOL    HW187594   8.212   8.094   8.119
61899SOL    HW287595   8.203   7.948   8.082
61900SOL     OW87596   1.037  11.294   1.532
61900SOL    HW187597   0.982  11.351   1.586
61900SOL    HW287598   1.099  11.354   1.490
61901SOL     OW87599  13.211  12.653   5.754
61901SOL    HW187600  13.184  12.564   5.778
61901SOL    HW287601  13.142  12.684   5.695
61902SOL     OW87602  13.545   1.247  13.997
61902SOL    HW187603  13.530   1.153  14.005
61902SOL    HW287604  13.613   1.265  14.062
61903SOL     OW87605  12.222  12.099  10.001
61903SOL    HW187606  12.295  12.037  10.010
61903SOL    HW287607  12.264  12.183   9.985
61904SOL     OW87608   7.630   0.674   9.930
61904SOL    HW187609   7.560   0.621   9.966
61904SOL    HW287610   7.601   0.765   9.943
61905SOL     OW87611  11.735   7.712   3.490
61905SOL    HW187612  11.684   7.760   3.424
61905SOL    HW287613  11.789   7.779   3.532
61906SOL     OW87614  12.912  13.501  12.090
61906SOL    HW187615  12.907  13.445  12.168
61906SOL    HW287616  12.835  13.557  12.096
61907SOL     OW87617   0.672   4.877   9.956
61907SOL    HW187618   0.712   4.815   9.895
61907SOL    HW287619   0.638   4.947   9.900
61908SOL     OW87620  10.332  12.473   7.733
61908SOL    HW187621  10.360  12.519   7.654
61908SOL    HW287622  10.237  12.465   7.723
61909SOL     OW87623  11.585   0.770   8.296
61909SOL    HW187624  11.674   0.741   8.276
61909SOL    HW287625  11.593   0.813   8.381
61910SOL     OW87626  12.383  10.376  13.025
61910SOL    HW187627  12.398  10.415  13.111
61910SOL    HW287628  12.398  10.282  13.039
61911SOL     OW87629   0.531   7.858   9.927
61911SOL    HW187630   0.605   7.847   9.867
61911SOL    HW287631   0.455   7.828   9.877
61912SOL     OW87632   5.159  12.567   7.634
61912SOL    HW187633   5.171  12.472   7.632
61912SOL    HW287634   5.161  12.589   7.727
61913SOL     OW87635   4.615  13.947  10.710
61913SOL    HW187636   4.696  13.897  10.706
61913SOL    HW287637   4.625  14.013  10.641
61914SOL     OW87638   7.999   2.476  14.608
61914SOL    HW187639   7.913   2.463  14.648
61914SOL    HW287640   8.059   2.427  14.663
61915SOL     OW87641  11.820   1.775   9.582
61915SOL    HW187642  11.882   1.761   9.654
61915SOL    HW287643  11.735   1.780   9.625
61916SOL     OW87644  12.676   0.022   5.395
61916SOL    HW187645  12.744   0.074   5.438
61916SOL    HW287646  12.600   0.079   5.392
61917SOL     OW87647  14.556   7.522  13.464
61917SOL    HW187648  14.534   7.601  13.415
61917SOL    HW287649  14.641   7.542  13.504
61918SOL     OW87650   6.876   5.311   9.777
61918SOL    HW187651   6.932   5.285   9.850
61918SOL    HW287652   6.874   5.234   9.720
61919SOL     OW87653   5.615  10.309  12.040
61919SOL    HW187654   5.539  10.277  12.088
61919SOL    HW287655   5.666  10.230  12.021
61920SOL     OW87656   8.069   4.353   1.649
61920SOL    HW187657   7.993   4.296   1.639
61920SOL    HW287658   8.107   4.328   1.733
61921SOL     OW87659  13.925   0.768  11.147
61921SOL    HW187660  13.911   0.742  11.056
61921SOL    HW287661  13.912   0.863  11.148
61922SOL     OW87662   9.964  14.096   8.500
61922SOL    HW187663  10.019  14.105   8.422
61922SOL    HW287664  10.026  14.077   8.571
61923SOL     OW87665   9.080  10.531   0.065
61923SOL    HW187666   9.134  10.609   0.054
61923SOL    HW287667   8.990  10.564   0.066
61924SOL     OW87668  12.742  12.794   6.706
61924SOL    HW187669  12.797  12.729   6.750
61924SOL    HW287670  12.653  12.775   6.737
61925SOL     OW87671  13.230  14.585   3.336
61925SOL    HW187672  13.188  14.499   3.337
61925SOL    HW287673  13.319  14.567   3.305
61926SOL     OW87674   1.060  12.313   9.234
61926SOL    HW187675   1.102  12.317   9.320
61926SOL    HW287676   0.999  12.387   9.234
61927SOL     OW87677   8.964   2.734   9.524
61927SOL    HW187678   8.892   2.790   9.493
61927SOL    HW287679   8.942   2.716   9.616
61928SOL     OW87680   1.844   1.499   6.645
61928SOL    HW187681   1.789   1.517   6.569
61928SOL    HW287682   1.783   1.464   6.710
61929SOL     OW87683   4.198   9.513  12.426
61929SOL    HW187684   4.216   9.518  12.333
61929SOL    HW287685   4.117   9.463  12.433
61930SOL     OW87686   7.376   6.799   7.418
61930SOL    HW187687   7.328   6.775   7.496
61930SOL    HW287688   7.314   6.850   7.366
61931SOL     OW87689   3.008   2.420  13.394
61931SOL    HW187690   2.995   2.500  13.446
61931SOL    HW287691   2.920   2.384  13.384
61932SOL     OW87692   6.224   7.197   4.483
61932SOL    HW187693   6.257   7.124   4.536
61932SOL    HW287694   6.129   7.185   4.482
61933SOL     OW87695   1.516  10.150   2.652
61933SOL    HW187696   1.478  10.209   2.717
61933SOL    HW287697   1.491  10.062   2.683
61934SOL     OW87698   8.188   1.496   0.347
61934SOL    HW187699   8.254   1.478   0.413
61934SOL    HW287700   8.119   1.544   0.394
61935SOL     OW87701   7.397   7.480   9.289
61935SOL    HW187702   7.432   7.417   9.353
61935SOL    HW287703   7.405   7.435   9.205
61936SOL     OW87704  10.531  11.326  13.448
61936SOL    HW187705  10.473  11.251  13.440
61936SOL    HW287706  10.596  11.314  13.378
61937SOL     OW87707  12.377   9.712   7.575
61937SOL    HW187708  12.293   9.740   7.613
61937SOL    HW287709  12.422   9.669   7.648
61938SOL     OW87710  14.880   3.147  11.849
61938SOL    HW187711   0.044   3.196  11.917
61938SOL    HW287712  14.788   3.152  11.875
61939SOL     OW87713   1.802   2.236   2.653
61939SOL    HW187714   1.894   2.265   2.655
61939SOL    HW287715   1.793   2.182   2.731
61940SOL     OW87716   9.912  10.198   7.478
61940SOL    HW187717  10.006  10.213   7.487
61940SOL    HW287718   9.872  10.277   7.513
61941SOL     OW87719  13.031  13.618   2.169
61941SOL    HW187720  13.053  13.530   2.139
61941SOL    HW287721  13.096  13.675   2.127
61942SOL     OW87722   4.522   5.163   4.982
61942SOL    HW187723   4.517   5.167   5.077
61942SOL    HW287724   4.440   5.121   4.955
61943SOL     OW87725   7.019  11.106   5.631
61943SOL    HW187726   6.938  11.057   5.617
61943SOL    HW287727   7.024  11.117   5.726
61944SOL     OW87728   5.417   7.768   7.450
61944SOL    HW187729   5.425   7.815   7.532
61944SOL    HW287730   5.507   7.746   7.426
61945SOL     OW87731   6.512   9.968   7.320
61945SOL    HW187732   6.436  10.025   7.332
61945SOL    HW287733   6.556   9.968   7.405
61946SOL     OW87734  10.236   3.376   2.940
61946SOL    HW187735  10.142   3.389   2.922
61946SOL    HW287736  10.280   3.425   2.871
61947SOL     OW87737   3.930   0.262  12.729
61947SOL    HW187738   3.979   0.270  12.811
61947SOL    HW287739   3.840   0.244  12.757
61948SOL     OW87740   1.094   9.993   8.290
61948SOL    HW187741   1.005  10.015   8.317
61948SOL    HW287742   1.084   9.925   8.224
61949SOL     OW87743   9.973  11.832   8.527
61949SOL    HW187744   9.925  11.811   8.447
61949SOL    HW287745  10.015  11.749   8.552
61950SOL     OW87746   5.470   1.900  13.528
61950SOL    HW187747   5.387   1.883  13.572
61950SOL    HW287748   5.446   1.919  13.437
61951SOL     OW87749   5.422   2.507   8.041
61951SOL    HW187750   5.423   2.449   7.964
61951SOL    HW287751   5.366   2.580   8.014
61952SOL     OW87752  13.199  10.542   6.896
61952SOL    HW187753  13.173  10.618   6.948
61952SOL    HW287754  13.150  10.551   6.814
61953SOL     OW87755   9.949  10.080  10.739
61953SOL    HW187756   9.872  10.025  10.723
61953SOL    HW287757   9.947  10.097  10.833
61954SOL     OW87758  12.269   1.796   7.474
61954SOL    HW187759  12.249   1.797   7.568
61954SOL    HW287760  12.241   1.882   7.442
61955SOL     OW87761  12.050   2.787   2.229
61955SOL    HW187762  12.008   2.797   2.314
61955SOL    HW287763  12.091   2.872   2.212
61956SOL     OW87764   6.780  11.845   6.791
61956SOL    HW187765   6.760  11.812   6.703
61956SOL    HW287766   6.831  11.775   6.831
61957SOL     OW87767  10.323   4.533   7.843
61957SOL    HW187768  10.354   4.505   7.757
61957SOL    HW287769  10.256   4.469   7.866
61958SOL     OW87770   2.653   1.236  11.564
61958SOL    HW187771   2.617   1.153  11.596
61958SOL    HW287772   2.609   1.303  11.616
61959SOL     OW87773  10.897   2.904   9.003
61959SOL    HW187774  10.857   2.953   8.932
61959SOL    HW287775  10.991   2.919   8.992
61960SOL     OW87776   2.924   8.232   6.805
61960SOL    HW187777   2.883   8.260   6.723
61960SOL    HW287778   2.932   8.312   6.857
61961SOL     OW87779  10.003  10.202  14.333
61961SOL    HW187780  10.087  10.247  14.331
61961SOL    HW287781   9.986  10.186  14.426
61962SOL     OW87782  10.629   9.001   2.605
61962SOL    HW187783  10.620   8.906   2.596
61962SOL    HW287784  10.724   9.016   2.600
61963SOL     OW87785   9.768  12.248   2.977
61963SOL    HW187786   9.829  12.176   2.963
61963SOL    HW287787   9.812  12.325   2.942
61964SOL     OW87788   8.951   7.908   9.049
61964SOL    HW187789   9.028   7.911   8.992
61964SOL    HW287790   8.878   7.930   8.991
61965SOL     OW87791   9.886   9.658   1.689
61965SOL    HW187792   9.879   9.727   1.756
61965SOL    HW287793   9.966   9.611   1.711
61966SOL     OW87794   8.354   2.708  12.569
61966SOL    HW187795   8.425   2.753  12.523
61966SOL    HW287796   8.396   2.632  12.609
61967SOL     OW87797   7.558   1.450   4.545
61967SOL    HW187798   7.616   1.452   4.621
61967SOL    HW287799   7.570   1.362   4.509
61968SOL     OW87800  12.074   4.155  14.285
61968SOL    HW187801  11.983   4.184  14.279
61968SOL    HW287802  12.076   4.096  14.361
61969SOL     OW87803   9.547  13.152   9.449
61969SOL    HW187804   9.516  13.061   9.444
61969SOL    HW287805   9.639  13.144   9.475
61970SOL     OW87806  13.726  11.621   2.704
61970SOL    HW187807  13.796  11.682   2.682
61970SOL    HW287808  13.666  11.627   2.630
61971SOL     OW87809   3.431  11.278  11.929
61971SOL    HW187810   3.422  11.225  12.008
61971SOL    HW287811   3.355  11.256  11.876
61972SOL     OW87812  10.245  14.044   3.906
61972SOL    HW187813  10.234  14.031   3.812
61972SOL    HW287814  10.276  13.959   3.938
61973SOL     OW87815   8.916   3.581  12.320
61973SOL    HW187816   8.822   3.575  12.340
61973SOL    HW287817   8.921   3.634  12.241
61974SOL     OW87818   3.078   6.190   0.663
61974SOL    HW187819   3.148   6.254   0.674
61974SOL    HW287820   3.101   6.120   0.725
61975SOL     OW87821   4.732   2.010   4.194
61975SOL    HW187822   4.709   2.080   4.255
61975SOL    HW287823   4.649   1.978   4.161
61976SOL     OW87824  12.592  10.980  14.570
61976SOL    HW187825  12.618  11.036  14.643
61976SOL    HW287826  12.503  10.953  14.591
61977SOL     OW87827   2.695   0.551   8.914
61977SOL    HW187828   2.765   0.601   8.873
61977SOL    HW287829   2.700   0.464   8.875
61978SOL     OW87830   6.829  10.131  10.998
61978SOL    HW187831   6.852  10.043  11.030
61978SOL    HW287832   6.884  10.190  11.049
61979SOL     OW87833   4.742   2.020   8.302
61979SOL    HW187834   4.691   1.940   8.285
61979SOL    HW287835   4.801   2.028   8.227
61980SOL     OW87836  11.611  12.782   1.429
61980SOL    HW187837  11.703  12.810   1.424
61980SOL    HW287838  11.569  12.849   1.483
61981SOL     OW87839  14.424   1.104   6.517
61981SOL    HW187840  14.377   1.186   6.536
61981SOL    HW287841  14.371   1.060   6.451
61982SOL     OW87842   2.774   4.923   1.561
61982SOL    HW187843   2.688   4.933   1.519
61982SOL    HW287844   2.781   4.830   1.580
61983SOL     OW87845  14.124   6.829   6.537
61983SOL    HW187846  14.213   6.847   6.568
61983SOL    HW287847  14.090   6.915   6.511
61984SOL     OW87848   3.455   1.791   2.885
61984SOL    HW187849   3.365   1.821   2.892
61984SOL    HW287850   3.448   1.697   2.866
61985SOL     OW87851   9.759   6.425   3.572
61985SOL    HW187852   9.739   6.499   3.515
61985SOL    HW287853   9.688   6.363   3.556
61986SOL     OW87854   5.281  10.155   9.671
61986SOL    HW187855   5.224  10.106   9.612
61986SOL    HW287856   5.368  10.120   9.654
61987SOL     OW87857   2.417   3.659   9.426
61987SOL    HW187858   2.336   3.640   9.380
61987SOL    HW287859   2.398   3.738   9.476
61988SOL     OW87860  13.545   7.326  14.145
61988SOL    HW187861  13.515   7.236  14.155
61988SOL    HW287862  13.507   7.355  14.062
61989SOL     OW87863   7.194   8.673   7.263
61989SOL    HW187864   7.256   8.745   7.263
61989SOL    HW287865   7.247   8.595   7.280
61990SOL     OW87866   2.231   7.962  12.460
61990SOL    HW187867   2.251   7.895  12.394
61990SOL    HW287868   2.149   8.001  12.431
61991SOL     OW87869   6.859   2.761   6.592
61991SOL    HW187870   6.898   2.734   6.675
61991SOL    HW287871   6.831   2.851   6.606
61992SOL     OW87872   8.457   8.783  11.832
61992SOL    HW187873   8.402   8.761  11.907
61992SOL    HW287874   8.543   8.802  11.869
61993SOL     OW87875   1.793  12.829   9.613
61993SOL    HW187876   1.744  12.803   9.535
61993SOL    HW287877   1.769  12.921   9.626
61994SOL     OW87878   7.768   1.979   8.143
61994SOL    HW187879   7.770   1.886   8.124
61994SOL    HW287880   7.834   1.991   8.211
61995SOL     OW87881   1.925   0.220  11.126
61995SOL    HW187882   1.897   0.136  11.161
61995SOL    HW287883   1.984   0.197  11.054
61996SOL     OW87884  11.049   4.075  11.422
61996SOL    HW187885  11.117   4.141  11.416
61996SOL    HW287886  11.046   4.051  11.514
61997SOL     OW87887   5.449   4.781   6.082
61997SOL    HW187888   5.543   4.800   6.090
61997SOL    HW287889   5.406   4.864   6.105
61998SOL     OW87890  13.631   5.867   5.965
61998SOL    HW187891  13.667   5.912   5.889
61998SOL    HW287892  13.685   5.896   6.038
61999SOL     OW87893   7.817   1.467  12.440
61999SOL    HW187894   7.750   1.532  12.420
61999SOL    HW287895   7.897   1.518  12.454
62000SOL     OW87896  12.954   7.482   7.725
62000SOL    HW187897  13.034   7.439   7.695
62000SOL    HW287898  12.883   7.422   7.701
62001SOL     OW87899   7.207   1.627   7.870
62001SOL    HW187900   7.180   1.637   7.961
62001SOL    HW287901   7.196   1.714   7.832
62002SOL     OW87902   8.073   8.801  11.599
62002SOL    HW187903   8.025   8.824  11.519
62002SOL    HW287904   8.017   8.738  11.643
62003SOL     OW87905  14.878   5.527   4.673
62003SOL    HW187906   0.054   5.578   4.729
62003SOL    HW287907  14.868   5.581   4.594
62004SOL     OW87908   5.398   9.687  14.001
62004SOL    HW187909   5.427   9.663  13.913
62004SOL    HW287910   5.303   9.687  13.997
62005SOL     OW87911   5.879   4.229   7.595
62005SOL    HW187912   5.892   4.174   7.517
62005SOL    HW287913   5.819   4.298   7.566
62006SOL     OW87914  11.253   5.816   9.134
62006SOL    HW187915  11.214   5.731   9.115
62006SOL    HW287916  11.272   5.814   9.228
62007SOL     OW87917   2.062   0.185  13.311
62007SOL    HW187918   2.154   0.210  13.298
62007SOL    HW287919   2.062   0.135  13.393
62008SOL     OW87920   0.710   3.012   8.963
62008SOL    HW187921   0.766   2.935   8.955
62008SOL    HW287922   0.735   3.051   9.047
62009SOL     OW87923  13.600   8.051  10.788
62009SOL    HW187924  13.671   7.987  10.795
62009SOL    HW287925  13.641   8.135  10.807
62010SOL     OW87926   8.752   2.896   3.438
62010SOL    HW187927   8.809   2.942   3.376
62010SOL    HW287928   8.739   2.810   3.399
62011SOL     OW87929  10.860   5.562   1.851
62011SOL    HW187930  10.904   5.501   1.792
62011SOL    HW287931  10.767   5.546   1.836
62012SOL     OW87932  10.369   2.194   3.183
62012SOL    HW187933  10.399   2.249   3.255
62012SOL    HW287934  10.399   2.106   3.207
62013SOL     OW87935   9.699  13.624   6.455
62013SOL    HW187936   9.680  13.657   6.367
62013SOL    HW287937   9.614  13.627   6.500
62014SOL     OW87938   0.566   9.019  11.596
62014SOL    HW187939   0.561   8.925  11.614
62014SOL    HW287940   0.476   9.051  11.606
62015SOL     OW87941   9.453   5.435   0.893
62015SOL    HW187942   9.402   5.403   0.819
62015SOL    HW287943   9.501   5.358   0.924
62016SOL     OW87944   5.756   6.489  13.342
62016SOL    HW187945   5.764   6.396  13.363
62016SOL    HW287946   5.661   6.505  13.341
62017SOL     OW87947   0.444   4.675  13.393
62017SOL    HW187948   0.378   4.667  13.325
62017SOL    HW287949   0.399   4.648  13.473
62018SOL     OW87950  13.630   2.688   0.523
62018SOL    HW187951  13.678   2.696   0.606
62018SOL    HW287952  13.589   2.773   0.511
62019SOL     OW87953  12.397  12.823   2.487
62019SOL    HW187954  12.304  12.823   2.466
62019SOL    HW287955  12.410  12.744   2.540
62020SOL     OW87956   3.617   8.893  10.959
62020SOL    HW187957   3.666   8.811  10.963
62020SOL    HW287958   3.554   8.880  10.888
62021SOL     OW87959  12.724   2.612   5.082
62021SOL    HW187960  12.722   2.568   5.167
62021SOL    HW287961  12.711   2.704   5.102
62022SOL     OW87962  13.774   3.448   5.656
62022SOL    HW187963  13.682   3.473   5.645
62022SOL    HW287964  13.823   3.515   5.608
62023SOL     OW87965   0.868   2.288   5.786
62023SOL    HW187966   0.882   2.372   5.829
62023SOL    HW287967   0.795   2.304   5.726
62024SOL     OW87968   3.464   1.532   2.790
62024SOL    HW187969   3.521   1.472   2.741
62024SOL    HW287970   3.382   1.482   2.802
62025SOL     OW87971   8.527   5.866  14.551
62025SOL    HW187972   8.609   5.820  14.570
62025SOL    HW287973   8.503   5.907  14.634
62026SOL     OW87974  10.407  13.112   0.022
62026SOL    HW187975  10.450  13.079   0.101
62026SOL    HW287976  10.465  13.183  14.875
62027SOL     OW87977   8.535   3.475   5.463
62027SOL    HW187978   8.580   3.516   5.389
62027SOL    HW287979   8.530   3.382   5.440
62028SOL     OW87980   3.674  14.343   9.938
62028SOL    HW187981   3.690  14.356  10.032
62028SOL    HW287982   3.761  14.343   9.899
62029SOL     OW87983   1.505   3.640  12.408
62029SOL    HW187984   1.514   3.632  12.313
62029SOL    HW287985   1.583   3.597  12.444
62030SOL     OW87986  12.411  11.725   1.773
62030SOL    HW187987  12.485  11.693   1.824
62030SOL    HW287988  12.335  11.680   1.810
62031SOL     OW87989  11.844  12.387   8.665
62031SOL    HW187990  11.786  12.343   8.726
62031SOL    HW287991  11.877  12.318   8.609
62032SOL     OW87992   3.057  10.447  14.534
62032SOL    HW187993   3.088  10.423  14.622
62032SOL    HW287994   2.977  10.497  14.550
62033SOL     OW87995  12.659   8.598   7.870
62033SOL    HW187996  12.733   8.618   7.813
62033SOL    HW287997  12.699   8.566   7.951
62034SOL     OW87998   9.012   5.494   2.725
62034SOL    HW187999   8.983   5.413   2.766
62034SOL    HW288000   8.954   5.561   2.761
62035SOL     OW88001   7.324   1.337   7.524
62035SOL    HW188002   7.265   1.266   7.501
62035SOL    HW288003   7.288   1.372   7.606
62036SOL     OW88004   5.935   5.213   2.415
62036SOL    HW188005   5.876   5.174   2.350
62036SOL    HW288006   5.954   5.300   2.381
62037SOL     OW88007   3.943  14.576   6.549
62037SOL    HW188008   3.876  14.623   6.599
62037SOL    HW288009   3.981  14.643   6.491
62038SOL     OW88010  12.330   3.024   1.694
62038SOL    HW188011  12.416   3.028   1.736
62038SOL    HW288012  12.343   2.970   1.616
62039SOL     OW88013   6.222  13.346   4.730
62039SOL    HW188014   6.234  13.330   4.823
62039SOL    HW288015   6.208  13.441   4.724
62040SOL     OW88016   2.661   3.175   3.290
62040SOL    HW188017   2.602   3.178   3.215
62040SOL    HW288018   2.622   3.235   3.354
62041SOL     OW88019   0.297  14.472   8.465
62041SOL    HW188020   0.246  14.420   8.528
62041SOL    HW288021   0.380  14.488   8.510
62042SOL     OW88022   2.210  11.788  13.181
62042SOL    HW188023   2.279  11.746  13.129
62042SOL    HW288024   2.254  11.859  13.227
62043SOL     OW88025   6.630   0.358   9.924
62043SOL    HW188026   6.585   0.380  10.006
62043SOL    HW288027   6.691   0.289   9.947
62044SOL     OW88028   1.821   7.989  13.090
62044SOL    HW188029   1.796   7.917  13.032
62044SOL    HW288030   1.768   8.063  13.060
62045SOL     OW88031  12.211   0.082   1.349
62045SOL    HW188032  12.203   0.128   1.432
62045SOL    HW288033  12.151   0.008   1.357
62046SOL     OW88034  10.636   6.750  10.270
62046SOL    HW188035  10.726   6.782  10.280
62046SOL    HW288036  10.645   6.669  10.219
62047SOL     OW88037   8.101   3.900   9.085
62047SOL    HW188038   8.027   3.873   9.031
62047SOL    HW288039   8.084   3.859   9.170
62048SOL     OW88040   3.637   0.750   4.468
62048SOL    HW188041   3.654   0.656   4.479
62048SOL    HW288042   3.617   0.782   4.556
62049SOL     OW88043  12.269   4.985  13.857
62049SOL    HW188044  12.242   4.922  13.924
62049SOL    HW288045  12.348   4.946  13.818
62050SOL     OW88046  12.304   0.981   1.437
62050SOL    HW188047  12.390   0.945   1.417
62050SOL    HW288048  12.316   1.076   1.436
62051SOL     OW88049   7.029   0.601   2.509
62051SOL    HW188050   7.000   0.510   2.513
62051SOL    HW288051   6.966   0.648   2.564
62052SOL     OW88052  13.956   5.656   0.233
62052SOL    HW188053  14.010   5.681   0.308
62052SOL    HW288054  13.879   5.613   0.272
62053SOL     OW88055   0.235  13.389   7.536
62053SOL    HW188056   0.221  13.482   7.550
62053SOL    HW288057   0.277  13.384   7.450
62054SOL     OW88058   2.227  13.030   2.594
62054SOL    HW188059   2.211  13.084   2.671
62054SOL    HW288060   2.195  12.944   2.618
62055SOL     OW88061   1.052   2.136   5.488
62055SOL    HW188062   0.988   2.108   5.554
62055SOL    HW288063   1.000   2.176   5.419
62056SOL     OW88064   7.560  10.364  10.032
62056SOL    HW188065   7.523  10.305   9.966
62056SOL    HW288066   7.642  10.322  10.058
62057SOL     OW88067  12.024   1.187   7.403
62057SOL    HW188068  11.981   1.249   7.461
62057SOL    HW288069  12.005   1.220   7.315
62058SOL     OW88070  13.983  11.774  13.456
62058SOL    HW188071  13.934  11.704  13.414
62058SOL    HW288072  13.954  11.772  13.548
62059SOL     OW88073  11.041   7.830   8.025
62059SOL    HW188074  10.996   7.903   7.981
62059SOL    HW288075  11.044   7.856   8.117
62060SOL     OW88076   6.131  10.838   5.934
62060SOL    HW188077   6.090  10.752   5.938
62060SOL    HW288078   6.076  10.889   5.873
62061SOL     OW88079  11.601   5.145   8.653
62061SOL    HW188080  11.628   5.101   8.572
62061SOL    HW288081  11.630   5.235   8.642
62062SOL     OW88082   2.755   8.891   9.514
62062SOL    HW188083   2.760   8.870   9.421
62062SOL    HW288084   2.736   8.807   9.556
62063SOL     OW88085   4.100   2.069   3.865
62063SOL    HW188086   4.176   2.092   3.810
62063SOL    HW288087   4.028   2.120   3.828
62064SOL     OW88088  13.069   2.867  13.243
62064SOL    HW188089  13.144   2.918  13.214
62064SOL    HW288090  13.107   2.783  13.271
62065SOL     OW88091   4.595  10.706   1.646
62065SOL    HW188092   4.673  10.750   1.612
62065SOL    HW288093   4.523  10.738   1.591
62066SOL     OW88094  11.047  14.633   0.324
62066SOL    HW188095  10.967  14.601   0.366
62066SOL    HW288096  11.118  14.587   0.368
62067SOL     OW88097   6.802  12.247  10.432
62067SOL    HW188098   6.862  12.295  10.488
62067SOL    HW288099   6.848  12.166  10.410
62068SOL     OW88100  13.579   8.406   8.987
62068SOL    HW188101  13.501   8.362   9.019
62068SOL    HW288102  13.642   8.335   8.973
62069SOL     OW88103   8.992  13.441  13.938
62069SOL    HW188104   8.924  13.468  14.000
62069SOL    HW288105   9.062  13.505  13.950
62070SOL     OW88106  10.458   4.644  11.943
62070SOL    HW188107  10.460   4.583  11.869
62070SOL    HW288108  10.505   4.721  11.912
62071SOL     OW88109  14.704  12.153  11.821
62071SOL    HW188110  14.627  12.205  11.800
62071SOL    HW288111  14.724  12.174  11.912
62072SOL     OW88112  12.028   4.752   7.649
62072SOL    HW188113  12.034   4.749   7.553
62072SOL    HW288114  11.970   4.826   7.667
62073SOL     OW88115   5.687   9.072  12.186
62073SOL    HW188116   5.617   9.021  12.147
62073SOL    HW288117   5.659   9.086  12.276
62074SOL     OW88118   3.609   4.095   5.923
62074SOL    HW188119   3.596   4.060   6.011
62074SOL    HW288120   3.520   4.115   5.892
62075SOL     OW88121  10.125   8.400  10.289
62075SOL    HW188122  10.075   8.324  10.261
62075SOL    HW288123  10.216   8.370  10.290
62076SOL     OW88124  12.891  10.765  11.648
62076SOL    HW188125  12.809  10.716  11.644
62076SOL    HW288126  12.953  10.711  11.599
62077SOL     OW88127  12.393   6.047  14.770
62077SOL    HW188128  12.393   6.080  14.680
62077SOL    HW288129  12.301   6.030  14.790
62078SOL     OW88130   8.866  14.861   2.812
62078SOL    HW188131   8.956  14.852   2.843
62078SOL    HW288132   8.874  14.873   2.718
62079SOL     OW88133  13.671  11.208  12.045
62079SOL    HW188134  13.696  11.280  11.987
62079SOL    HW288135  13.696  11.237  12.132
62080SOL     OW88136   3.954   8.826   1.692
62080SOL    HW188137   4.031   8.844   1.746
62080SOL    HW288138   3.976   8.745   1.646
62081SOL     OW88139  13.599   2.274   9.490
62081SOL    HW188140  13.564   2.360   9.513
62081SOL    HW288141  13.693   2.282   9.507
62082SOL     OW88142   3.450   6.590  11.534
62082SOL    HW188143   3.492   6.590  11.448
62082SOL    HW288144   3.462   6.679  11.566
62083SOL     OW88145   6.657   0.210   5.518
62083SOL    HW188146   6.625   0.222   5.607
62083SOL    HW288147   6.690   0.296   5.492
62084SOL     OW88148  13.832   6.086   7.326
62084SOL    HW188149  13.799   6.004   7.289
62084SOL    HW288150  13.881   6.127   7.254
62085SOL     OW88151   4.372   6.029  10.663
62085SOL    HW188152   4.404   5.980  10.587
62085SOL    HW288153   4.416   5.988  10.737
62086SOL     OW88154   4.365   4.056  11.608
62086SOL    HW188155   4.420   3.979  11.594
62086SOL    HW288156   4.294   4.048  11.545
62087SOL     OW88157  11.692  12.705   7.874
62087SOL    HW188158  11.635  12.775   7.905
62087SOL    HW288159  11.781  12.737   7.888
62088SOL     OW88160   7.907   3.811   3.991
62088SOL    HW188161   7.998   3.810   3.961
62088SOL    HW288162   7.892   3.903   4.015
62089SOL     OW88163  13.975   7.861   4.578
62089SOL    HW188164  14.010   7.926   4.639
62089SOL    HW288165  13.956   7.910   4.499
62090SOL     OW88166  12.023   7.467   5.709
62090SOL    HW188167  12.081   7.497   5.640
62090SOL    HW288168  11.963   7.540   5.723
62091SOL     OW88169   9.005   2.683   0.293
62091SOL    HW188170   9.052   2.737   0.230
62091SOL    HW288171   8.918   2.671   0.254
62092SOL     OW88172   7.535   4.498   7.028
62092SOL    HW188173   7.594   4.474   6.957
62092SOL    HW288174   7.477   4.564   6.989
62093SOL     OW88175  11.382   6.924   5.166
62093SOL    HW188176  11.394   6.941   5.073
62093SOL    HW288177  11.404   6.831   5.176
62094SOL     OW88178   8.182  12.413   6.084
62094SOL    HW188179   8.161  12.320   6.092
62094SOL    HW288180   8.164  12.434   5.992
62095SOL     OW88181  10.357   3.103   7.977
62095SOL    HW188182  10.449   3.083   7.995
62095SOL    HW288183  10.353   3.117   7.883
62096SOL     OW88184  11.074  12.257  11.144
62096SOL    HW188185  11.122  12.177  11.125
62096SOL    HW288186  11.135  12.328  11.124
62097SOL     OW88187   0.782   9.206   0.420
62097SOL    HW188188   0.756   9.140   0.356
62097SOL    HW288189   0.860   9.170   0.461
62098SOL     OW88190   0.430  12.813   8.788
62098SOL    HW188191   0.441  12.720   8.810
62098SOL    HW288192   0.358  12.843   8.845
62099SOL     OW88193   6.659   6.165   6.764
62099SOL    HW188194   6.602   6.234   6.729
62099SOL    HW288195   6.648   6.172   6.859
62100SOL     OW88196   3.758   8.308   4.150
62100SOL    HW188197   3.830   8.307   4.213
62100SOL    HW288198   3.689   8.357   4.194
62101SOL     OW88199   0.586  14.358  14.763
62101SOL    HW188200   0.521  14.402  14.819
62101SOL    HW288201   0.647  14.318  14.825
62102SOL     OW88202   9.857   2.084  12.484
62102SOL    HW188203   9.881   2.061  12.574
62102SOL    HW288204   9.778   2.034  12.466
62103SOL     OW88205   9.814   8.248   4.189
62103SOL    HW188206   9.845   8.210   4.107
62103SOL    HW288207   9.893   8.275   4.235
62104SOL     OW88208  12.267   8.618  13.360
62104SOL    HW188209  12.228   8.636  13.446
62104SOL    HW288210  12.217   8.671  13.299
62105SOL     OW88211   5.621   5.560   8.425
62105SOL    HW188212   5.621   5.621   8.498
62105SOL    HW288213   5.713   5.536   8.414
62106SOL     OW88214   7.144   6.937   7.387
62106SOL    HW188215   7.085   6.959   7.460
62106SOL    HW288216   7.086   6.926   7.312
62107SOL     OW88217   0.280   9.888   3.648
62107SOL    HW188218   0.227   9.809   3.659
62107SOL    HW288219   0.346   9.882   3.717
62108SOL     OW88220   9.088   6.267   1.654
62108SOL    HW188221   9.007   6.241   1.610
62108SOL    HW288222   9.075   6.242   1.745
62109SOL     OW88223   4.202   7.836   7.427
62109SOL    HW188224   4.117   7.795   7.444
62109SOL    HW288225   4.192   7.878   7.342
62110SOL     OW88226   9.668   0.903   1.375
62110SOL    HW188227   9.710   0.963   1.437
62110SOL    HW288228   9.574   0.913   1.392
62111SOL     OW88229   6.533   6.944   3.120
62111SOL    HW188230   6.562   7.032   3.097
62111SOL    HW288231   6.598   6.912   3.182
62112SOL     OW88232   0.474  12.308  13.622
62112SOL    HW188233   0.562  12.342  13.607
62112SOL    HW288234   0.463  12.241  13.555
62113SOL     OW88235  10.575  13.712   5.012
62113SOL    HW188236  10.629  13.633   5.013
62113SOL    HW288237  10.584  13.749   5.100
62114SOL     OW88238   5.315   0.135   8.796
62114SOL    HW188239   5.310   0.058   8.854
62114SOL    HW288240   5.282   0.103   8.712
62115SOL     OW88241   9.757   8.245   5.194
62115SOL    HW188242   9.770   8.202   5.278
62115SOL    HW288243   9.664   8.236   5.176
62116SOL     OW88244  13.880   5.494   5.029
62116SOL    HW188245  13.802   5.523   5.077
62116SOL    HW288246  13.845   5.457   4.948
62117SOL     OW88247   5.552   4.606   9.919
62117SOL    HW188248   5.481   4.670   9.911
62117SOL    HW288249   5.631   4.655   9.898
62118SOL     OW88250  14.252   1.542  10.996
62118SOL    HW188251  14.310   1.603  11.041
62118SOL    HW288252  14.201   1.597  10.937
62119SOL     OW88253   0.545  11.261   4.458
62119SOL    HW188254   0.617  11.321   4.478
62119SOL    HW288255   0.520  11.225   4.543
62120SOL     OW88256   8.428   3.713   5.746
62120SOL    HW188257   8.425   3.781   5.813
62120SOL    HW288258   8.522   3.696   5.732
62121SOL     OW88259   5.548  10.980  11.025
62121SOL    HW188260   5.515  10.891  11.031
62121SOL    HW288261   5.535  11.005  10.934
62122SOL     OW88262  12.445   2.316   8.907
62122SOL    HW188263  12.432   2.407   8.879
62122SOL    HW288264  12.363   2.291   8.948
62123SOL     OW88265  12.340  11.659   9.146
62123SOL    HW188266  12.278  11.653   9.219
62123SOL    HW288267  12.415  11.706   9.181
62124SOL     OW88268  13.385   3.031   9.976
62124SOL    HW188269  13.398   2.943  10.011
62124SOL    HW288270  13.291   3.036   9.957
62125SOL     OW88271   1.151   6.504   1.819
62125SOL    HW188272   1.171   6.506   1.726
62125SOL    HW288273   1.125   6.594   1.840
62126SOL     OW88274   8.783   0.685   6.431
62126SOL    HW188275   8.708   0.721   6.384
62126SOL    HW288276   8.855   0.746   6.413
62127SOL     OW88277  12.976   2.773   0.164
62127SOL    HW188278  13.020   2.689   0.177
62127SOL    HW288279  12.927   2.787   0.246
62128SOL     OW88280  13.987   6.112  11.360
62128SOL    HW188281  13.941   6.035  11.327
62128SOL    HW288282  13.938   6.187  11.324
62129SOL     OW88283   1.195   2.188   6.260
62129SOL    HW188284   1.238   2.242   6.193
62129SOL    HW288285   1.134   2.247   6.303
62130SOL     OW88286   9.737  13.094  13.065
62130SOL    HW188287   9.651  13.054  13.080
62130SOL    HW288288   9.775  13.041  12.995
62131SOL     OW88289   4.892   4.654   9.769
62131SOL    HW188290   4.859   4.564   9.766
62131SOL    HW288291   4.951   4.656   9.845
62132SOL     OW88292   3.434   4.590  12.131
62132SOL    HW188293   3.357   4.546  12.094
62132SOL    HW288294   3.431   4.567  12.224
62133SOL     OW88295   3.117  12.349   9.370
62133SOL    HW188296   3.200  12.332   9.415
62133SOL    HW288297   3.142  12.387   9.286
62134SOL     OW88298  10.331  13.150   3.340
62134SOL    HW188299  10.299  13.186   3.422
62134SOL    HW288300  10.426  13.150   3.349
62135SOL     OW88301  14.122  13.606  10.766
62135SOL    HW188302  14.202  13.647  10.734
62135SOL    HW288303  14.093  13.661  10.838
62136SOL     OW88304  12.322   7.684   1.042
62136SOL    HW188305  12.415   7.673   1.021
62136SOL    HW288306  12.321   7.714   1.132
62137SOL     OW88307   4.693   0.256   1.015
62137SOL    HW188308   4.678   0.331   0.958
62137SOL    HW288309   4.697   0.181   0.956
62138SOL     OW88310  12.275   2.718   9.115
62138SOL    HW188311  12.340   2.647   9.119
62138SOL    HW288312  12.229   2.703   9.033
62139SOL     OW88313   3.512   3.719  13.538
62139SOL    HW188314   3.449   3.648  13.525
62139SOL    HW288315   3.462   3.799  13.523
62140SOL     OW88316   1.808   1.804   8.292
62140SOL    HW188317   1.739   1.777   8.231
62140SOL    HW288318   1.889   1.784   8.246
62141SOL     OW88319   4.266   3.835   9.477
62141SOL    HW188320   4.264   3.749   9.518
62141SOL    HW288321   4.360   3.853   9.463
62142SOL     OW88322   0.565  10.324  13.964
62142SOL    HW188323   0.634  10.259  13.954
62142SOL    HW288324   0.566  10.346  14.057
62143SOL     OW88325   2.574   3.522  10.553
62143SOL    HW188326   2.518   3.455  10.516
62143SOL    HW288327   2.518   3.599  10.561
62144SOL     OW88328   5.150  12.202  11.112
62144SOL    HW188329   5.146  12.123  11.166
62144SOL    HW288330   5.059  12.228  11.102
62145SOL     OW88331  14.541   1.343   6.109
62145SOL    HW188332  14.485   1.350   6.186
62145SOL    HW288333  14.510   1.411   6.050
62146SOL     OW88334   7.931   6.692   9.690
62146SOL    HW188335   8.000   6.738   9.643
62146SOL    HW288336   7.884   6.643   9.623
62147SOL     OW88337   8.309   8.622   4.843
62147SOL    HW188338   8.337   8.652   4.930
62147SOL    HW288339   8.365   8.546   4.825
62148SOL     OW88340   4.803   5.445   3.559
62148SOL    HW188341   4.890   5.418   3.532
62148SOL    HW288342   4.792   5.533   3.523
62149SOL     OW88343  12.179  14.031   5.035
62149SOL    HW188344  12.094  13.988   5.034
62149SOL    HW288345  12.240  13.964   5.064
62150SOL     OW88346   0.337   9.006   9.052
62150SOL    HW188347   0.413   8.963   9.012
62150SOL    HW288348   0.271   9.008   8.983
62151SOL     OW88349   2.949   4.721   8.657
62151SOL    HW188350   3.032   4.674   8.672
62151SOL    HW288351   2.974   4.813   8.650
62152SOL     OW88352   1.055  10.811  13.566
62152SOL    HW188353   1.093  10.899  13.573
62152SOL    HW288354   0.961  10.825  13.567
62153SOL     OW88355  11.306   1.867   0.505
62153SOL    HW188356  11.270   1.940   0.555
62153SOL    HW288357  11.401   1.882   0.505
62154SOL     OW88358   2.799  11.662   3.745
62154SOL    HW188359   2.717  11.612   3.736
62154SOL    HW288360   2.862  11.598   3.780
62155SOL     OW88361   2.990   1.855  10.903
62155SOL    HW188362   2.924   1.833  10.837
62155SOL    HW288363   3.074   1.841  10.859
62156SOL     OW88364   4.604   4.234   6.835
62156SOL    HW188365   4.533   4.298   6.836
62156SOL    HW288366   4.610   4.206   6.744
62157SOL     OW88367   1.304   0.453   6.974
62157SOL    HW188368   1.377   0.514   6.965
62157SOL    HW288369   1.258   0.459   6.890
62158SOL     OW88370   5.141  13.890   7.338
62158SOL    HW188371   5.102  13.863   7.255
62158SOL    HW288372   5.148  13.985   7.331
62159SOL     OW88373   7.711  12.081   4.884
62159SOL    HW188374   7.789  12.132   4.859
62159SOL    HW288375   7.653  12.145   4.924
62160SOL     OW88376   3.983   9.564   2.353
62160SOL    HW188377   3.908   9.588   2.407
62160SOL    HW288378   4.009   9.645   2.310
62161SOL     OW88379   8.066   6.095  13.622
62161SOL    HW188380   8.150   6.052  13.608
62161SOL    HW288381   8.024   6.095  13.536
62162SOL     OW88382  11.192  11.793   9.596
62162SOL    HW188383  11.201  11.822   9.505
62162SOL    HW288384  11.107  11.826   9.624
62163SOL     OW88385   9.008   4.449   1.493
62163SOL    HW188386   8.927   4.498   1.506
62163SOL    HW288387   8.983   4.377   1.435
62164SOL     OW88388  13.595   5.033   4.845
62164SOL    HW188389  13.559   5.020   4.933
62164SOL    HW288390  13.659   4.963   4.834
62165SOL     OW88391  10.520   4.153   2.425
62165SOL    HW188392  10.458   4.222   2.402
62165SOL    HW288393  10.603   4.199   2.441
62166SOL     OW88394   2.475   6.360   7.940
62166SOL    HW188395   2.466   6.444   7.986
62166SOL    HW288396   2.392   6.315   7.956
62167SOL     OW88397   3.491  10.838   9.409
62167SOL    HW188398   3.528  10.789   9.336
62167SOL    HW288399   3.479  10.926   9.375
62168SOL     OW88400   9.381  13.399  13.679
62168SOL    HW188401   9.439  13.425  13.607
62168SOL    HW288402   9.356  13.481  13.721
62169SOL     OW88403   7.165  10.786  10.617
62169SOL    HW188404   7.118  10.703  10.625
62169SOL    HW288405   7.116  10.835  10.552
62170SOL     OW88406   9.111  11.060  14.165
62170SOL    HW188407   9.098  11.133  14.225
62170SOL    HW288408   9.119  11.100  14.079
62171SOL     OW88409   9.798  10.610  13.507
62171SOL    HW188410   9.792  10.523  13.544
62171SOL    HW288411   9.710  10.628  13.474
62172SOL     OW88412   6.730   6.911   1.341
62172SOL    HW188413   6.686   6.994   1.358
62172SOL    HW288414   6.712   6.892   1.249
62173SOL     OW88415  14.097   2.289   3.840
62173SOL    HW188416  14.022   2.337   3.875
62173SOL    HW288417  14.127   2.234   3.912
62174SOL     OW88418   4.242   6.643  14.775
62174SOL    HW188419   4.319   6.651  14.831
62174SOL    HW288420   4.171   6.680  14.826
62175SOL     OW88421   1.270   8.075   8.903
62175SOL    HW188422   1.358   8.092   8.870
62175SOL    HW288423   1.231   8.016   8.839
62176SOL     OW88424  14.860   8.306  11.134
62176SOL    HW188425  14.779   8.357  11.127
62176SOL    HW288426   0.027   8.349  11.204
62177SOL     OW88427   8.206   2.553   6.776
62177SOL    HW188428   8.266   2.537   6.849
62177SOL    HW288429   8.121   2.567   6.819
62178SOL     OW88430   7.033  11.829   9.145
62178SOL    HW188431   7.078  11.913   9.137
62178SOL    HW288432   7.103  11.764   9.148
62179SOL     OW88433   3.201  12.267   6.490
62179SOL    HW188434   3.119  12.312   6.468
62179SOL    HW288435   3.265  12.338   6.500
62180SOL     OW88436   9.993  11.210   5.839
62180SOL    HW188437  10.008  11.118   5.817
62180SOL    HW288438   9.918  11.235   5.784
62181SOL     OW88439  14.537   4.591   7.509
62181SOL    HW188440  14.619   4.564   7.467
62181SOL    HW288441  14.555   4.583   7.603
62182SOL     OW88442  10.184  13.510   8.342
62182SOL    HW188443  10.136  13.473   8.269
62182SOL    HW288444  10.224  13.590   8.307
62183SOL     OW88445  10.001   2.720   5.058
62183SOL    HW188446  10.056   2.669   4.999
62183SOL    HW288447   9.952   2.779   5.001
62184SOL     OW88448  11.260   2.177   6.025
62184SOL    HW188449  11.288   2.239   6.092
62184SOL    HW288450  11.342   2.143   5.988
62185SOL     OW88451  10.056   4.158  14.730
62185SOL    HW188452  10.003   4.078  14.726
62185SOL    HW288453  10.100   4.162  14.646
62186SOL     OW88454   2.708  14.671  12.921
62186SOL    HW188455   2.796  14.641  12.942
62186SOL    HW288456   2.653  14.639  12.993
62187SOL     OW88457  12.403  10.356   2.940
62187SOL    HW188458  12.457  10.285   2.975
62187SOL    HW288459  12.415  10.428   3.001
62188SOL     OW88460   8.857   4.519  13.594
62188SOL    HW188461   8.894   4.528  13.682
62188SOL    HW288462   8.763   4.536  13.605
62189SOL     OW88463   8.932   1.479  14.401
62189SOL    HW188464   8.889   1.393  14.403
62189SOL    HW288465   9.018   1.464  14.440
62190SOL     OW88466   1.761   6.999   2.506
62190SOL    HW188467   1.845   7.025   2.468
62190SOL    HW288468   1.778   6.995   2.600
62191SOL     OW88469  12.917   2.043   7.526
62191SOL    HW188470  12.876   2.127   7.546
62191SOL    HW288471  12.899   1.988   7.602
62192SOL     OW88472   7.439  13.087  14.472
62192SOL    HW188473   7.412  13.060  14.560
62192SOL    HW288474   7.414  13.179  14.467
62193SOL     OW88475  11.842   9.409   2.282
62193SOL    HW188476  11.925   9.396   2.328
62193SOL    HW288477  11.784   9.342   2.318
62194SOL     OW88478   7.904   4.003   5.436
62194SOL    HW188479   7.856   3.958   5.365
62194SOL    HW288480   7.988   4.028   5.396
62195SOL     OW88481  12.976   4.233   4.796
62195SOL    HW188482  13.063   4.271   4.802
62195SOL    HW288483  12.927   4.295   4.742
62196SOL     OW88484   7.268   9.252   9.661
62196SOL    HW188485   7.173   9.241   9.665
62196SOL    HW288486   7.300   9.169   9.625
62197SOL     OW88487  13.529   6.499  14.191
62197SOL    HW188488  13.558   6.408  14.182
62197SOL    HW288489  13.512   6.509  14.284
62198SOL     OW88490   0.747   7.645   7.046
62198SOL    HW188491   0.750   7.701   7.124
62198SOL    HW288492   0.654   7.641   7.024
62199SOL     OW88493   4.292  10.734   1.157
62199SOL    HW188494   4.289  10.753   1.063
62199SOL    HW288495   4.385  10.724   1.175
62200SOL     OW88496   9.761   5.462  13.706
62200SOL    HW188497   9.771   5.429  13.795
62200SOL    HW288498   9.762   5.383  13.651
62201SOL     OW88499   9.156   8.950   6.242
62201SOL    HW188500   9.084   8.886   6.245
62201SOL    HW288501   9.176   8.960   6.149
62202SOL     OW88502   2.198   4.716   6.624
62202SOL    HW188503   2.169   4.789   6.679
62202SOL    HW288504   2.121   4.692   6.573
62203SOL     OW88505   7.277  11.632   1.646
62203SOL    HW188506   7.243  11.553   1.605
62203SOL    HW288507   7.371  11.616   1.656
62204SOL     OW88508   3.776   1.675   1.990
62204SOL    HW188509   3.852   1.701   1.938
62204SOL    HW288510   3.808   1.605   2.047
62205SOL     OW88511   7.633  10.886   0.429
62205SOL    HW188512   7.643  10.791   0.432
62205SOL    HW288513   7.686  10.918   0.501
62206SOL     OW88514   3.500  13.392   1.966
62206SOL    HW188515   3.442  13.382   1.891
62206SOL    HW288516   3.534  13.304   1.981
62207SOL     OW88517  13.786   8.934  13.801
62207SOL    HW188518  13.713   8.890  13.844
62207SOL    HW288519  13.756   8.947  13.711
62208SOL     OW88520  13.403   7.080  14.167
62208SOL    HW188521  13.414   7.038  14.252
62208SOL    HW288522  13.312   7.060  14.142
62209SOL     OW88523   8.198   3.207   5.468
62209SOL    HW188524   8.154   3.181   5.549
62209SOL    HW288525   8.291   3.203   5.488
62210SOL     OW88526  11.890   4.147   8.200
62210SOL    HW188527  11.892   4.220   8.138
62210SOL    HW288528  11.916   4.187   8.283
62211SOL     OW88529   3.110   7.849   7.617
62211SOL    HW188530   3.071   7.840   7.530
62211SOL    HW288531   3.046   7.811   7.677
62212SOL     OW88532   2.249  11.013   8.387
62212SOL    HW188533   2.218  11.038   8.474
62212SOL    HW288534   2.312  11.081   8.364
62213SOL     OW88535   6.407   8.408   4.170
62213SOL    HW188536   6.316   8.385   4.151
62213SOL    HW288537   6.400   8.470   4.243
62214SOL     OW88538   3.354  12.357   7.769
62214SOL    HW188539   3.261  12.342   7.783
62214SOL    HW288540   3.360  12.384   7.677
62215SOL     OW88541  10.598  10.834  11.981
62215SOL    HW188542  10.668  10.809  12.041
62215SOL    HW288543  10.633  10.815  11.894
62216SOL     OW88544   1.652   3.286   2.413
62216SOL    HW188545   1.600   3.208   2.431
62216SOL    HW288546   1.703   3.300   2.493
62217SOL     OW88547   5.445  12.694   9.472
62217SOL    HW188548   5.431  12.623   9.408
62217SOL    HW288549   5.378  12.678   9.539
62218SOL     OW88550  12.518   6.642   1.614
62218SOL    HW188551  12.589   6.675   1.669
62218SOL    HW288552  12.542   6.668   1.525
62219SOL     OW88553  14.413  10.129   1.895
62219SOL    HW188554  14.378  10.218   1.889
62219SOL    HW288555  14.371  10.082   1.823
62220SOL     OW88556  14.365   7.913   3.736
62220SOL    HW188557  14.406   7.893   3.820
62220SOL    HW288558  14.420   7.869   3.671
62221SOL     OW88559   9.129   2.862   7.934
62221SOL    HW188560   9.220   2.840   7.915
62221SOL    HW288561   9.078   2.790   7.897
62222SOL     OW88562   1.237   0.731   7.653
62222SOL    HW188563   1.268   0.646   7.685
62222SOL    HW288564   1.148   0.738   7.688
62223SOL     OW88565   1.965  11.432   9.773
62223SOL    HW188566   1.999  11.438   9.862
62223SOL    HW288567   1.906  11.356   9.774
62224SOL     OW88568  10.425   4.705   1.736
62224SOL    HW188569  10.458   4.727   1.823
62224SOL    HW288570  10.475   4.762   1.677
62225SOL     OW88571   1.743  10.686  13.703
62225SOL    HW188572   1.676  10.624  13.731
62225SOL    HW288573   1.707  10.726  13.624
62226SOL     OW88574   5.133  12.608   5.593
62226SOL    HW188575   5.110  12.663   5.517
62226SOL    HW288576   5.183  12.667   5.650
62227SOL     OW88577  12.207   7.709   4.176
62227SOL    HW188578  12.135   7.653   4.146
62227SOL    HW288579  12.214   7.776   4.108
62228SOL     OW88580  14.453   2.273   6.787
62228SOL    HW188581  14.460   2.326   6.709
62228SOL    HW288582  14.512   2.314   6.850
62229SOL     OW88583  14.234   6.607  13.331
62229SOL    HW188584  14.321   6.575  13.354
62229SOL    HW288585  14.175   6.559  13.389
62230SOL     OW88586   8.703  14.530   7.372
62230SOL    HW188587   8.724  14.604   7.428
62230SOL    HW288588   8.669  14.463   7.431
62231SOL     OW88589  10.893   3.039  13.401
62231SOL    HW188590  10.986   3.062  13.403
62231SOL    HW288591  10.893   2.945  13.379
62232SOL     OW88592  11.993   6.395   1.730
62232SOL    HW188593  11.959   6.474   1.773
62232SOL    HW288594  11.946   6.323   1.772
62233SOL     OW88595   2.325  14.420  12.552
62233SOL    HW188596   2.405  14.382  12.515
62233SOL    HW288597   2.262  14.417  12.480
62234SOL     OW88598   1.913   2.945   8.760
62234SOL    HW188599   1.861   2.866   8.775
62234SOL    HW288600   1.977   2.946   8.831
62235SOL     OW88601   1.048  14.355  14.428
62235SOL    HW188602   0.984  14.427  14.422
62235SOL    HW288603   0.995  14.278  14.446
62236SOL     OW88604   5.532   7.520  12.835
62236SOL    HW188605   5.546   7.613  12.819
62236SOL    HW288606   5.490   7.488  12.756
62237SOL     OW88607   8.220   3.601  13.119
62237SOL    HW188608   8.263   3.594  13.033
62237SOL    HW288609   8.156   3.671  13.108
62238SOL     OW88610  13.419  13.702   8.290
62238SOL    HW188611  13.469  13.628   8.256
62238SOL    HW288612  13.405  13.681   8.383
62239SOL     OW88613   4.456  11.210  13.599
62239SOL    HW188614   4.376  11.173  13.560
62239SOL    HW288615   4.468  11.162  13.681
62240SOL     OW88616   5.315  10.127   8.958
62240SOL    HW188617   5.335  10.161   9.045
62240SOL    HW288618   5.401  10.118   8.916
62241SOL     OW88619   6.235   4.645   8.378
62241SOL    HW188620   6.193   4.596   8.449
62241SOL    HW288621   6.171   4.643   8.307
62242SOL     OW88622   1.413   3.970   2.816
62242SOL    HW188623   1.405   3.944   2.908
62242SOL    HW288624   1.493   3.928   2.787
62243SOL     OW88625   4.704   4.085  14.160
62243SOL    HW188626   4.757   4.128  14.227
62243SOL    HW288627   4.616   4.119  14.174
62244SOL     OW88628   3.253   7.318   9.883
62244SOL    HW188629   3.284   7.243   9.833
62244SOL    HW288630   3.330   7.374   9.893
62245SOL     OW88631  14.800   7.942  14.462
62245SOL    HW188632  14.841   7.861  14.431
62245SOL    HW288633  14.860   7.976  14.529
62246SOL     OW88634  11.337   9.722  14.850
62246SOL    HW188635  11.361   9.666  14.776
62246SOL    HW288636  11.417   9.771  14.869
62247SOL     OW88637   2.322  13.272  10.021
62247SOL    HW188638   2.244  13.219  10.036
62247SOL    HW288639   2.291  13.348   9.972
62248SOL     OW88640  11.417   4.672   3.523
62248SOL    HW188641  11.325   4.654   3.503
62248SOL    HW288642  11.420   4.764   3.546
62249SOL     OW88643   6.025  13.893   5.269
62249SOL    HW188644   6.062  13.980   5.255
62249SOL    HW288645   5.953  13.907   5.330
62250SOL     OW88646   9.835   4.373   0.798
62250SOL    HW188647   9.798   4.325   0.724
62250SOL    HW288648   9.769   4.439   0.820
62251SOL     OW88649   1.882  12.026  13.554
62251SOL    HW188650   1.819  12.095  13.535
62251SOL    HW288651   1.834  11.963  13.607
62252SOL     OW88652   3.332   5.525   9.142
62252SOL    HW188653   3.326   5.583   9.066
62252SOL    HW288654   3.305   5.439   9.109
62253SOL     OW88655   6.705   6.039   6.517
62253SOL    HW188656   6.713   6.070   6.607
62253SOL    HW288657   6.781   5.982   6.504
62254SOL     OW88658   3.124   7.140  13.626
62254SOL    HW188659   3.052   7.099  13.673
62254SOL    HW288660   3.172   7.188  13.693
62255SOL     OW88661   8.513   0.998   3.179
62255SOL    HW188662   8.588   0.960   3.225
62255SOL    HW288663   8.439   0.981   3.237
62256SOL     OW88664   8.447   4.578   2.114
62256SOL    HW188665   8.363   4.581   2.158
62256SOL    HW288666   8.512   4.578   2.184
62257SOL     OW88667   5.527   2.982   6.963
62257SOL    HW188668   5.535   2.889   6.982
62257SOL    HW288669   5.513   2.986   6.868
62258SOL     OW88670  13.439   9.149   1.080
62258SOL    HW188671  13.454   9.090   1.007
62258SOL    HW288672  13.509   9.214   1.074
62259SOL     OW88673   1.441   6.537   4.375
62259SOL    HW188674   1.457   6.443   4.389
62259SOL    HW288675   1.345   6.545   4.374
62260SOL     OW88676   8.875   5.110   4.966
62260SOL    HW188677   8.830   5.091   4.884
62260SOL    HW288678   8.909   5.199   4.955
62261SOL     OW88679   6.207  14.485   8.256
62261SOL    HW188680   6.268  14.412   8.268
62261SOL    HW288681   6.262  14.560   8.234
62262SOL     OW88682   9.690  13.347   0.668
62262SOL    HW188683   9.678  13.259   0.703
62262SOL    HW288684   9.764  13.339   0.607
62263SOL     OW88685   3.342  14.810  10.881
62263SOL    HW188686   3.319   0.020  10.867
62263SOL    HW288687   3.398  14.788  10.807
62264SOL     OW88688   3.118   6.847   8.958
62264SOL    HW188689   3.163   6.931   8.960
62264SOL    HW288690   3.078   6.843   8.871
62265SOL     OW88691   8.690   8.425  10.106
62265SOL    HW188692   8.638   8.346  10.121
62265SOL    HW288693   8.738   8.408  10.025
62266SOL     OW88694   2.705  11.779   9.656
62266SOL    HW188695   2.776  11.729   9.615
62266SOL    HW288696   2.653  11.811   9.583
62267SOL     OW88697  14.575   1.955   5.739
62267SOL    HW188698  14.572   1.865   5.706
62267SOL    HW288699  14.591   1.945   5.833
62268SOL     OW88700  12.815  13.722   8.692
62268SOL    HW188701  12.806  13.651   8.629
62268SOL    HW288702  12.732  13.769   8.688
62269SOL     OW88703  14.189  12.075  10.910
62269SOL    HW188704  14.140  11.999  10.880
62269SOL    HW288705  14.253  12.040  10.971
62270SOL     OW88706   5.801   5.085  11.496
62270SOL    HW188707   5.892   5.112  11.511
62270SOL    HW288708   5.751   5.166  11.499
62271SOL     OW88709   9.807   8.720  14.450
62271SOL    HW188710   9.757   8.777  14.392
62271SOL    HW288711   9.741   8.670  14.497
62272SOL     OW88712   2.800   7.302   2.149
62272SOL    HW188713   2.852   7.370   2.106
62272SOL    HW288714   2.758   7.347   2.222
62273SOL     OW88715  12.079  12.639   0.865
62273SOL    HW188716  12.132  12.709   0.905
62273SOL    HW288717  12.000  12.684   0.834
62274SOL     OW88718  13.239   3.155  14.096
62274SOL    HW188719  13.237   3.120  14.185
62274SOL    HW288720  13.294   3.234  14.103
62275SOL     OW88721   3.655   6.963   1.001
62275SOL    HW188722   3.692   6.881   0.968
62275SOL    HW288723   3.709   6.984   1.078
62276SOL     OW88724  12.842   8.226  14.391
62276SOL    HW188725  12.776   8.295  14.390
62276SOL    HW288726  12.876   8.223  14.301
62277SOL     OW88727   0.195  11.290   8.211
62277SOL    HW188728   0.129  11.317   8.275
62277SOL    HW288729   0.148  11.231   8.152
62278SOL     OW88730   0.696   6.890   6.688
62278SOL    HW188731   0.638   6.853   6.756
62278SOL    HW288732   0.659   6.976   6.670
62279SOL     OW88733  12.325   8.886  11.609
62279SOL    HW188734  12.391   8.911  11.544
62279SOL    HW288735  12.359   8.920  11.692
62280SOL     OW88736   6.436  11.203   6.806
62280SOL    HW188737   6.355  11.201   6.858
62280SOL    HW288738   6.452  11.112   6.784
62281SOL     OW88739   1.099  10.595   8.965
62281SOL    HW188740   1.082  10.674   8.914
62281SOL    HW288741   1.141  10.535   8.902
62282SOL     OW88742   1.475  11.522  13.385
62282SOL    HW188743   1.555  11.469  13.389
62282SOL    HW288744   1.506  11.612  13.388
62283SOL     OW88745   8.932   5.385   7.292
62283SOL    HW188746   8.935   5.480   7.279
62283SOL    HW288747   8.839   5.364   7.298
62284SOL     OW88748  13.258  10.606  11.012
62284SOL    HW188749  13.178  10.633  11.057
62284SOL    HW288750  13.233  10.600  10.920
62285SOL     OW88751   1.979   0.190   1.116
62285SOL    HW188752   2.061   0.146   1.139
62285SOL    HW288753   1.927   0.187   1.196
62286SOL     OW88754   8.708  12.979   0.069
62286SOL    HW188755   8.800  12.964   0.092
62286SOL    HW288756   8.692  12.919  14.878
62287SOL     OW88757  11.020   4.457   6.406
62287SOL    HW188758  11.088   4.395   6.379
62287SOL    HW288759  10.943   4.402   6.424
62288SOL     OW88760   4.657  11.241   0.016
62288SOL    HW188761   4.715  11.254  14.823
62288SOL    HW288762   4.716  11.215   0.088
62289SOL     OW88763   9.622   7.327  12.432
62289SOL    HW188764   9.582   7.405  12.471
62289SOL    HW288765   9.716   7.342  12.440
62290SOL     OW88766   9.356   9.049   8.190
62290SOL    HW188767   9.436   9.030   8.237
62290SOL    HW288768   9.384   9.068   8.100
62291SOL     OW88769   0.019   1.325   5.079
62291SOL    HW188770   0.081   1.267   5.036
62291SOL    HW288771  14.840   1.266   5.124
62292SOL     OW88772  13.105  12.184   3.797
62292SOL    HW188773  13.175  12.120   3.804
62292SOL    HW288774  13.116  12.240   3.873
62293SOL     OW88775  12.541   8.849  10.196
62293SOL    HW188776  12.449   8.834  10.176
62293SOL    HW288777  12.561   8.788  10.267
62294SOL     OW88778   2.846   5.706   2.208
62294SOL    HW188779   2.907   5.645   2.166
62294SOL    HW288780   2.844   5.679   2.300
62295SOL     OW88781   1.303   2.766  11.661
62295SOL    HW188782   1.339   2.852  11.682
62295SOL    HW288783   1.275   2.731  11.745
62296SOL     OW88784   4.135   9.231   1.539
62296SOL    HW188785   4.154   9.190   1.454
62296SOL    HW288786   4.128   9.324   1.520
62297SOL     OW88787  11.489   7.195   4.469
62297SOL    HW188788  11.407   7.195   4.419
62297SOL    HW288789  11.461   7.203   4.560
62298SOL     OW88790   1.296  12.907   5.628
62298SOL    HW188791   1.305  12.945   5.715
62298SOL    HW288792   1.258  12.820   5.644
62299SOL     OW88793   6.160   1.036   5.719
62299SOL    HW188794   6.179   1.037   5.625
62299SOL    HW288795   6.245   1.045   5.761
62300SOL     OW88796   5.755   9.873  13.955
62300SOL    HW188797   5.751   9.926  14.035
62300SOL    HW288798   5.840   9.895  13.917
62301SOL     OW88799  11.621  14.368   7.203
62301SOL    HW188800  11.543  14.424   7.199
62301SOL    HW288801  11.662  14.390   7.287
62302SOL     OW88802   8.959   7.902   4.899
62302SOL    HW188803   9.039   7.900   4.952
62302SOL    HW288804   8.935   7.994   4.894
62303SOL     OW88805  13.120   5.835   8.537
62303SOL    HW188806  13.159   5.811   8.620
62303SOL    HW288807  13.055   5.767   8.520
62304SOL     OW88808  11.073   7.764  11.804
62304SOL    HW188809  11.126   7.793  11.730
62304SOL    HW288810  10.995   7.819  11.802
62305SOL     OW88811  14.120  10.214   3.467
62305SOL    HW188812  14.100  10.308   3.473
62305SOL    HW288813  14.072  10.185   3.389
62306SOL     OW88814  14.446   4.715   3.441
62306SOL    HW188815  14.534   4.678   3.450
62306SOL    HW288816  14.388   4.639   3.438
62307SOL     OW88817   5.028  12.515  14.649
62307SOL    HW188818   4.999  12.453  14.716
62307SOL    HW288819   5.033  12.463  14.569
62308SOL     OW88820   4.755  13.344  14.794
62308SOL    HW188821   4.700  13.394  14.855
62308SOL    HW288822   4.800  13.280  14.850
62309SOL     OW88823   7.892   7.112   6.767
62309SOL    HW188824   7.843   7.194   6.773
62309SOL    HW288825   7.834   7.046   6.805
62310SOL     OW88826  12.731   4.202  10.333
62310SOL    HW188827  12.683   4.185  10.414
62310SOL    HW288828  12.800   4.135  10.332
62311SOL     OW88829   4.100  12.224  14.308
62311SOL    HW188830   4.021  12.270  14.338
62311SOL    HW288831   4.165  12.240  14.376
62312SOL     OW88832   8.086   6.931  12.423
62312SOL    HW188833   8.071   6.933  12.517
62312SOL    HW288834   8.000   6.912  12.386
62313SOL     OW88835  12.866   5.736  11.843
62313SOL    HW188836  12.856   5.829  11.820
62313SOL    HW288837  12.958   5.717  11.823
62314SOL     OW88838   8.809   7.442   1.432
62314SOL    HW188839   8.882   7.389   1.463
62314SOL    HW288840   8.733   7.409   1.480
62315SOL     OW88841   8.793  12.502  13.215
62315SOL    HW188842   8.860  12.568  13.196
62315SOL    HW288843   8.746  12.490  13.133
62316SOL     OW88844  10.774   3.597   6.792
62316SOL    HW188845  10.708   3.587   6.861
62316SOL    HW288846  10.826   3.672   6.819
62317SOL     OW88847   3.625  12.184   5.711
62317SOL    HW188848   3.717  12.213   5.710
62317SOL    HW288849   3.575  12.266   5.715
62318SOL     OW88850   5.423   9.104   6.922
62318SOL    HW188851   5.506   9.102   6.875
62318SOL    HW288852   5.357   9.112   6.854
62319SOL     OW88853   0.794   4.211   5.332
62319SOL    HW188854   0.714   4.263   5.320
62319SOL    HW288855   0.812   4.217   5.426
62320SOL     OW88856   9.712  13.109   3.155
62320SOL    HW188857   9.662  13.057   3.217
62320SOL    HW288858   9.803  13.095   3.180
62321SOL     OW88859   4.870  10.371   9.241
62321SOL    HW188860   4.883  10.284   9.202
62321SOL    HW288861   4.814  10.355   9.317
62322SOL     OW88862   1.027   6.014  13.280
62322SOL    HW188863   1.073   5.933  13.302
62322SOL    HW288864   0.937   5.986  13.264
62323SOL     OW88865  14.206   0.421   4.369
62323SOL    HW188866  14.239   0.442   4.282
62323SOL    HW288867  14.112   0.438   4.364
62324SOL     OW88868   8.356   6.634  12.582
62324SOL    HW188869   8.389   6.702  12.642
62324SOL    HW288870   8.378   6.552  12.626
62325SOL     OW88871   4.045   0.044   8.023
62325SOL    HW188872   4.017   0.054   7.932
62325SOL    HW288873   4.095   0.123   8.042
62326SOL     OW88874   0.829   6.999  11.660
62326SOL    HW188875   0.749   7.009  11.712
62326SOL    HW288876   0.834   6.905  11.641
62327SOL     OW88877   3.449   3.219   9.894
62327SOL    HW188878   3.429   3.218   9.987
62327SOL    HW288879   3.518   3.285   9.885
62328SOL     OW88880  11.536   9.223   6.233
62328SOL    HW188881  11.452   9.196   6.196
62328SOL    HW288882  11.572   9.142   6.271
62329SOL     OW88883   5.186   9.581   9.195
62329SOL    HW188884   5.261   9.553   9.141
62329SOL    HW288885   5.142   9.500   9.219
62330SOL     OW88886  12.693  13.398   7.796
62330SOL    HW188887  12.744  13.425   7.873
62330SOL    HW288888  12.737  13.440   7.722
62331SOL     OW88889   2.310  12.339  12.999
62331SOL    HW188890   2.294  12.261  13.052
62331SOL    HW288891   2.225  12.383  12.994
62332SOL     OW88892  12.230   4.687   1.177
62332SOL    HW188893  12.184   4.763   1.139
62332SOL    HW288894  12.192   4.678   1.264
62333SOL     OW88895   9.353  12.699  12.808
62333SOL    HW188896   9.335  12.697  12.714
62333SOL    HW288897   9.266  12.704  12.848
62334SOL     OW88898   4.373   6.835   0.110
62334SOL    HW188899   4.462   6.844   0.076
62334SOL    HW288900   4.342   6.925   0.121
62335SOL     OW88901   4.255   5.112   2.574
62335SOL    HW188902   4.200   5.162   2.634
62335SOL    HW288903   4.231   5.021   2.590
62336SOL     OW88904   1.451   3.457   4.069
62336SOL    HW188905   1.380   3.417   4.018
62336SOL    HW288906   1.437   3.424   4.158
62337SOL     OW88907  14.008  11.199  10.981
62337SOL    HW188908  13.948  11.158  10.918
62337SOL    HW288909  14.025  11.285  10.944
62338SOL     OW88910  13.141  12.756   7.102
62338SOL    HW188911  13.131  12.684   7.039
62338SOL    HW288912  13.099  12.830   7.059
62339SOL     OW88913   4.623  10.001   4.984
62339SOL    HW188914   4.632  10.053   4.905
62339SOL    HW288915   4.557   9.934   4.962
62340SOL     OW88916   8.171   5.941  10.311
62340SOL    HW188917   8.230   5.885  10.362
62340SOL    HW288918   8.089   5.941  10.360
62341SOL     OW88919  11.127  11.638  10.251
62341SOL    HW188920  11.050  11.686  10.223
62341SOL    HW288921  11.107  11.611  10.341
62342SOL     OW88922  12.718   5.727   1.416
62342SOL    HW188923  12.672   5.678   1.348
62342SOL    HW288924  12.698   5.819   1.397
62343SOL     OW88925  14.529  14.878  13.532
62343SOL    HW188926  14.433  14.870  13.534
62343SOL    HW288927  14.544   0.091  13.537
62344SOL     OW88928  14.523   5.112   0.798
62344SOL    HW188929  14.614   5.092   0.779
62344SOL    HW288930  14.518   5.207   0.801
62345SOL     OW88931  11.578   2.543   1.726
62345SOL    HW188932  11.500   2.555   1.780
62345SOL    HW288933  11.624   2.627   1.732
62346SOL     OW88934   8.976  13.669  11.295
62346SOL    HW188935   8.885  13.639  11.293
62346SOL    HW288936   9.012  13.632  11.376
62347SOL     OW88937  10.211  10.128   6.522
62347SOL    HW188938  10.287  10.163   6.570
62347SOL    HW288939  10.241  10.044   6.488
62348SOL     OW88940  10.709   7.335   7.793
62348SOL    HW188941  10.700   7.426   7.766
62348SOL    HW288942  10.720   7.338   7.888
62349SOL     OW88943   9.646  11.477   8.150
62349SOL    HW188944   9.570  11.436   8.191
62349SOL    HW288945   9.614  11.561   8.118
62350SOL     OW88946  13.390  13.448   6.796
62350SOL    HW188947  13.391  13.541   6.775
62350SOL    HW288948  13.482  13.421   6.790
62351SOL     OW88949  12.980  10.507  11.206
62351SOL    HW188950  12.984  10.518  11.301
62351SOL    HW288951  13.037  10.433  11.187
62352SOL     OW88952  13.703  11.020  10.578
62352SOL    HW188953  13.695  11.095  10.520
62352SOL    HW288954  13.638  11.034  10.646
62353SOL     OW88955  11.477   3.302   1.692
62353SOL    HW188956  11.432   3.245   1.629
62353SOL    HW288957  11.408   3.331   1.751
62354SOL     OW88958   5.223   6.144   7.088
62354SOL    HW188959   5.157   6.163   7.154
62354SOL    HW288960   5.178   6.159   7.004
62355SOL     OW88961  10.458  14.391   4.555
62355SOL    HW188962  10.518  14.330   4.514
62355SOL    HW288963  10.373  14.346   4.554
62356SOL     OW88964  12.544   9.492   9.163
62356SOL    HW188965  12.545   9.402   9.127
62356SOL    HW288966  12.464   9.530   9.128
62357SOL     OW88967  12.665  10.034  13.942
62357SOL    HW188968  12.745   9.991  13.972
62357SOL    HW288969  12.610   9.962  13.909
62358SOL     OW88970  11.476  13.836  12.440
62358SOL    HW188971  11.423  13.791  12.506
62358SOL    HW288972  11.499  13.768  12.377
62359SOL     OW88973   4.189   0.604   2.586
62359SOL    HW188974   4.098   0.616   2.558
62359SOL    HW288975   4.206   0.679   2.643
62360SOL     OW88976   5.802  11.640   4.200
62360SOL    HW188977   5.750  11.681   4.130
62360SOL    HW288978   5.857  11.710   4.233
62361SOL     OW88979   1.499   2.435   6.522
62361SOL    HW188980   1.553   2.410   6.447
62361SOL    HW288981   1.409   2.423   6.492
62362SOL     OW88982   0.189   4.043   1.552
62362SOL    HW188983   0.247   3.968   1.559
62362SOL    HW288984   0.154   4.038   1.463
62363SOL     OW88985   1.818   1.635   8.532
62363SOL    HW188986   1.752   1.577   8.494
62363SOL    HW288987   1.840   1.696   8.462
62364SOL     OW88988   5.940   1.392   5.110
62364SOL    HW188989   5.858   1.365   5.068
62364SOL    HW288990   5.990   1.434   5.041
62365SOL     OW88991  11.163   6.882  12.154
62365SOL    HW188992  11.079   6.837  12.149
62365SOL    HW288993  11.221   6.820  12.198
62366SOL     OW88994   0.102  12.990  11.602
62366SOL    HW188995   0.015  13.023  11.622
62366SOL    HW288996   0.126  12.937  11.678
62367SOL     OW88997   4.376   1.440  12.543
62367SOL    HW188998   4.442   1.395  12.489
62367SOL    HW288999   4.307   1.376  12.555
62368SOL     OW89000   6.206   2.146   6.719
62368SOL    HW189001   6.168   2.108   6.798
62368SOL    HW289002   6.282   2.194   6.750
62369SOL     OW89003  11.580   7.678   4.105
62369SOL    HW189004  11.520   7.680   4.030
62369SOL    HW289005  11.667   7.676   4.065
62370SOL     OW89006   3.747  12.701   8.094
62370SOL    HW189007   3.752  12.623   8.148
62370SOL    HW289008   3.658  12.734   8.107
62371SOL     OW89009   3.564   8.971   3.068
62371SOL    HW189010   3.611   9.051   3.092
62371SOL    HW289011   3.601   8.947   2.983
62372SOL     OW89012  14.744   5.667   9.392
62372SOL    HW189013  14.736   5.760   9.370
62372SOL    HW289014  14.811   5.665   9.460
62373SOL     OW89015   9.432  11.565  10.145
62373SOL    HW189016   9.505  11.613  10.184
62373SOL    HW289017   9.376  11.632  10.107
62374SOL     OW89018  13.459  11.381   0.980
62374SOL    HW189019  13.459  11.323   0.904
62374SOL    HW289020  13.403  11.336   1.044
62375SOL     OW89021  11.919   6.798   4.727
62375SOL    HW189022  11.883   6.853   4.657
62375SOL    HW289023  11.848   6.789   4.790
62376SOL     OW89024  14.759   2.784   7.373
62376SOL    HW189025  14.830   2.732   7.337
62376SOL    HW289026  14.687   2.722   7.386
62377SOL     OW89027   0.820   9.922   4.365
62377SOL    HW189028   0.853   9.833   4.350
62377SOL    HW289029   0.884   9.979   4.323
62378SOL     OW89030   0.548   0.086   2.199
62378SOL    HW189031   0.609   0.157   2.179
62378SOL    HW289032   0.499   0.072   2.118
62379SOL     OW89033   3.787   1.862   6.372
62379SOL    HW189034   3.775   1.846   6.466
62379SOL    HW289035   3.736   1.794   6.329
62380SOL     OW89036   0.015   6.821   4.916
62380SOL    HW189037  14.870   6.754   4.853
62380SOL    HW289038  14.844   6.897   4.893
62381SOL     OW89039   9.581   7.461   8.203
62381SOL    HW189040   9.534   7.521   8.145
62381SOL    HW289041   9.670   7.496   8.206
62382SOL     OW89042   5.097  10.179  14.611
62382SOL    HW189043   5.018  10.227  14.585
62382SOL    HW289044   5.074  10.087  14.602
62383SOL     OW89045  11.479   5.719  11.297
62383SOL    HW189046  11.557   5.677  11.333
62383SOL    HW289047  11.501   5.736  11.205
62384SOL     OW89048  12.629  12.458   4.726
62384SOL    HW189049  12.565  12.441   4.658
62384SOL    HW289050  12.584  12.515   4.788
62385SOL     OW89051  13.681  13.348   3.627
62385SOL    HW189052  13.715  13.317   3.711
62385SOL    HW289053  13.759  13.361   3.573
62386SOL     OW89054   9.306   2.855   4.286
62386SOL    HW189055   9.229   2.865   4.341
62386SOL    HW289056   9.279   2.793   4.218
62387SOL     OW89057   2.839   3.911   8.691
62387SOL    HW189058   2.870   3.889   8.603
62387SOL    HW289059   2.768   3.973   8.677
62388SOL     OW89060   4.531  13.319   1.119
62388SOL    HW189061   4.605  13.316   1.059
62388SOL    HW289062   4.545  13.246   1.179
62389SOL     OW89063  12.169   4.913   8.477
62389SOL    HW189064  12.079   4.948   8.474
62389SOL    HW289065  12.159   4.825   8.513
62390SOL     OW89066   4.973  12.912  10.788
62390SOL    HW189067   5.049  12.920  10.730
62390SOL    HW289068   5.008  12.926  10.876
62391SOL     OW89069   9.564   1.329  10.405
62391SOL    HW189070   9.602   1.249  10.441
62391SOL    HW289071   9.602   1.336  10.318
62392SOL     OW89072   9.969  13.394   0.959
62392SOL    HW189073   9.947  13.460   0.894
62392SOL    HW289074   9.984  13.444   1.040
62393SOL     OW89075  10.107   1.296   4.624
62393SOL    HW189076  10.188   1.249   4.642
62393SOL    HW289077  10.038   1.230   4.634
62394SOL     OW89078   1.775  14.557   4.372
62394SOL    HW189079   1.764  14.466   4.344
62394SOL    HW289080   1.750  14.558   4.464
62395SOL     OW89081   3.548   2.734  12.534
62395SOL    HW189082   3.495   2.798  12.581
62395SOL    HW289083   3.637   2.768  12.541
62396SOL     OW89084   4.960  12.647  11.121
62396SOL    HW189085   5.004  12.620  11.041
62396SOL    HW289086   5.000  12.594  11.190
62397SOL     OW89087  11.854   1.097   4.188
62397SOL    HW189088  11.773   1.118   4.235
62397SOL    HW289089  11.862   1.002   4.196
62398SOL     OW89090   8.491   8.762   1.292
62398SOL    HW189091   8.431   8.713   1.348
62398SOL    HW289092   8.440   8.779   1.212
62399SOL     OW89093   3.181  12.760  13.344
62399SOL    HW189094   3.212  12.845  13.374
62399SOL    HW289095   3.225  12.747  13.260
62400SOL     OW89096  13.739   5.699   7.379
62400SOL    HW189097  13.800   5.660   7.442
62400SOL    HW289098  13.719   5.785   7.416
62401SOL     OW89099   2.774   2.098  10.479
62401SOL    HW189100   2.813   2.179  10.448
62401SOL    HW289101   2.775   2.105  10.575
62402SOL     OW89102   9.053   7.374   7.099
62402SOL    HW189103   9.071   7.373   7.193
62402SOL    HW289104   9.005   7.455   7.085
62403SOL     OW89105   4.100  10.669   2.093
62403SOL    HW189106   4.061  10.756   2.101
62403SOL    HW289107   4.026  10.609   2.088
62404SOL     OW89108   1.077   8.554   8.656
62404SOL    HW189109   1.111   8.464   8.654
62404SOL    HW289110   1.153   8.609   8.638
62405SOL     OW89111  13.131  10.461  13.626
62405SOL    HW189112  13.068  10.485  13.558
62405SOL    HW289113  13.216  10.466  13.582
62406SOL     OW89114   6.697  11.583   3.750
62406SOL    HW189115   6.767  11.518   3.739
62406SOL    HW289116   6.625  11.533   3.789
62407SOL     OW89117  11.469   3.280   9.967
62407SOL    HW189118  11.497   3.332  10.043
62407SOL    HW289119  11.457   3.344   9.897
62408SOL     OW89120   2.315  12.451  13.665
62408SOL    HW189121   2.370  12.382  13.701
62408SOL    HW289122   2.309  12.431  13.572
62409SOL     OW89123  14.292  12.484  13.748
62409SOL    HW189124  14.270  12.415  13.685
62409SOL    HW289125  14.312  12.437  13.829
62410SOL     OW89126  12.176   9.477   4.845
62410SOL    HW189127  12.121   9.405   4.813
62410SOL    HW289128  12.167   9.544   4.777
62411SOL     OW89129   1.743   1.443  12.763
62411SOL    HW189130   1.771   1.533  12.778
62411SOL    HW289131   1.807   1.389  12.810
62412SOL     OW89132   0.498   9.384   2.782
62412SOL    HW189133   0.408   9.393   2.813
62412SOL    HW289134   0.504   9.293   2.752
62413SOL     OW89135   7.767   3.451   4.980
62413SOL    HW189136   7.784   3.535   4.936
62413SOL    HW289137   7.845   3.398   4.961
62414SOL     OW89138   5.487   1.687   7.600
62414SOL    HW189139   5.578   1.714   7.590
62414SOL    HW289140   5.445   1.759   7.646
62415SOL     OW89141  13.172   1.915   0.656
62415SOL    HW189142  13.256   1.873   0.674
62415SOL    HW289143  13.108   1.859   0.700
62416SOL     OW89144   6.400   4.292   5.434
62416SOL    HW189145   6.493   4.306   5.454
62416SOL    HW289146   6.361   4.271   5.519
62417SOL     OW89147  14.116   7.606   3.796
62417SOL    HW189148  14.057   7.656   3.739
62417SOL    HW289149  14.198   7.601   3.747
62418SOL     OW89150   4.243  14.064   6.688
62418SOL    HW189151   4.178  14.062   6.757
62418SOL    HW289152   4.306  13.995   6.712
62419SOL     OW89153  11.799  11.831  11.806
62419SOL    HW189154  11.853  11.760  11.771
62419SOL    HW289155  11.841  11.911  11.774
62420SOL     OW89156   4.425   7.382   7.773
62420SOL    HW189157   4.505   7.379   7.720
62420SOL    HW289158   4.396   7.291   7.778
62421SOL     OW89159   0.198   5.199   8.842
62421SOL    HW189160   0.268   5.254   8.808
62421SOL    HW289161   0.216   5.113   8.804
62422SOL     OW89162   5.048  12.440   5.082
62422SOL    HW189163   5.027  12.457   5.174
62422SOL    HW289164   4.998  12.361   5.060
62423SOL     OW89165  13.745   2.017   6.103
62423SOL    HW189166  13.768   1.942   6.158
62423SOL    HW289167  13.674   1.985   6.047
62424SOL     OW89168  10.489  11.382   4.325
62424SOL    HW189169  10.466  11.425   4.242
62424SOL    HW289170  10.406  11.347   4.358
62425SOL     OW89171   5.696  14.243   2.673
62425SOL    HW189172   5.704  14.147   2.679
62425SOL    HW289173   5.781  14.276   2.700
62426SOL     OW89174   7.244   9.137   0.635
62426SOL    HW189175   7.153   9.110   0.648
62426SOL    HW289176   7.289   9.057   0.606
62427SOL     OW89177  10.158   8.872   4.280
62427SOL    HW189178  10.105   8.901   4.206
62427SOL    HW289179  10.099   8.817   4.332
62428SOL     OW89180   5.649   8.784   8.483
62428SOL    HW189181   5.714   8.725   8.520
62428SOL    HW289182   5.674   8.794   8.391
62429SOL     OW89183   1.365  11.613   9.691
62429SOL    HW189184   1.395  11.689   9.642
62429SOL    HW289185   1.440  11.588   9.745
62430SOL     OW89186   7.045   2.599   1.813
62430SOL    HW189187   7.050   2.693   1.798
62430SOL    HW289188   7.083   2.586   1.900
62431SOL     OW89189   7.279   2.310  13.911
62431SOL    HW189190   7.330   2.269  13.981
62431SOL    HW289191   7.343   2.329  13.843
62432SOL     OW89192  11.867   4.147   7.698
62432SOL    HW189193  11.878   4.242   7.703
62432SOL    HW289194  11.937   4.118   7.640
62433SOL     OW89195  12.784  11.109   1.330
62433SOL    HW189196  12.876  11.086   1.316
62433SOL    HW289197  12.785  11.165   1.408
62434SOL     OW89198   2.335   9.732   5.583
62434SOL    HW189199   2.300   9.658   5.533
62434SOL    HW289200   2.307   9.717   5.673
62435SOL     OW89201  13.651  12.935   0.248
62435SOL    HW189202  13.719  12.955   0.312
62435SOL    HW289203  13.580  12.895   0.299
62436SOL     OW89204   3.039  11.260   1.364
62436SOL    HW189205   3.054  11.312   1.285
62436SOL    HW289206   3.042  11.169   1.333
62437SOL     OW89207   0.999   2.198   1.593
62437SOL    HW189208   0.911   2.171   1.622
62437SOL    HW289209   0.985   2.282   1.550
62438SOL     OW89210   1.722  11.426  13.434
62438SOL    HW189211   1.749  11.363  13.366
62438SOL    HW289212   1.804  11.467  13.462
62439SOL     OW89213  13.912   8.884   4.832
62439SOL    HW189214  13.900   8.817   4.899
62439SOL    HW289215  13.850   8.954   4.857
62440SOL     OW89216  10.014   6.444   2.173
62440SOL    HW189217  10.080   6.375   2.168
62440SOL    HW289218  10.059   6.518   2.215
62441SOL     OW89219   9.909  14.220   1.299
62441SOL    HW189220   9.816  14.213   1.276
62441SOL    HW289221   9.941  14.294   1.246
62442SOL     OW89222   5.889   3.174   2.977
62442SOL    HW189223   5.858   3.172   3.068
62442SOL    HW289224   5.814   3.206   2.927
62443SOL     OW89225  12.358   9.759   6.359
62443SOL    HW189226  12.353   9.705   6.438
62443SOL    HW289227  12.267   9.785   6.342
62444SOL     OW89228   0.629  14.409   3.002
62444SOL    HW189229   0.615  14.358   2.922
62444SOL    HW289230   0.590  14.494   2.983
62445SOL     OW89231  10.283   8.893   1.818
62445SOL    HW189232  10.249   8.823   1.761
62445SOL    HW289233  10.286   8.970   1.761
62446SOL     OW89234   2.531   2.120   4.707
62446SOL    HW189235   2.476   2.059   4.658
62446SOL    HW289236   2.616   2.077   4.713
62447SOL     OW89237  12.452   3.990  13.362
62447SOL    HW189238  12.371   3.998  13.412
62447SOL    HW289239  12.460   4.075  13.317
62448SOL     OW89240   9.015  10.597  12.314
62448SOL    HW189241   9.045  10.624  12.401
62448SOL    HW289242   9.013  10.501  12.319
62449SOL     OW89243   7.719   7.562  11.301
62449SOL    HW189244   7.680   7.494  11.355
62449SOL    HW289245   7.788   7.600  11.355
62450SOL     OW89246   1.791   2.059   8.428
62450SOL    HW189247   1.789   1.999   8.353
62450SOL    HW289248   1.699   2.081   8.444
62451SOL     OW89249  11.325   7.528   4.211
62451SOL    HW189250  11.238   7.556   4.237
62451SOL    HW289251  11.339   7.570   4.126
62452SOL     OW89252   0.749   7.109  14.369
62452SOL    HW189253   0.667   7.088  14.414
62452SOL    HW289254   0.814   7.111  14.439
62453SOL     OW89255  11.266  13.622   8.446
62453SOL    HW189256  11.206  13.692   8.469
62453SOL    HW289257  11.237  13.593   8.359
62454SOL     OW89258   4.384   5.547   9.600
62454SOL    HW189259   4.365   5.591   9.683
62454SOL    HW289260   4.472   5.576   9.577
62455SOL     OW89261   5.074   5.285  10.610
62455SOL    HW189262   5.077   5.232  10.531
62455SOL    HW289263   5.056   5.374  10.580
62456SOL     OW89264   2.814   2.574   5.334
62456SOL    HW189265   2.739   2.517   5.352
62456SOL    HW289266   2.890   2.517   5.346
62457SOL     OW89267  12.618   5.375   3.261
62457SOL    HW189268  12.624   5.457   3.310
62457SOL    HW289269  12.708   5.343   3.255
62458SOL     OW89270   9.506   3.201  12.553
62458SOL    HW189271   9.460   3.279  12.585
62458SOL    HW289272   9.557   3.232  12.478
62459SOL     OW89273   2.665   7.463   0.724
62459SOL    HW189274   2.686   7.370   0.719
62459SOL    HW289275   2.608   7.478   0.648
62460SOL     OW89276   1.448  10.785   1.760
62460SOL    HW189277   1.415  10.788   1.671
62460SOL    HW289278   1.490  10.870   1.774
62461SOL     OW89279  11.592  12.247   8.351
62461SOL    HW189280  11.673  12.246   8.402
62461SOL    HW289281  11.594  12.166   8.301
62462SOL     OW89282   9.019   3.971   6.451
62462SOL    HW189283   9.113   3.988   6.459
62462SOL    HW289284   8.996   3.924   6.531
62463SOL     OW89285  12.879  14.146   4.008
62463SOL    HW189286  12.909  14.227   4.049
62463SOL    HW289287  12.941  14.080   4.037
62464SOL     OW89288   1.200   3.366   5.442
62464SOL    HW189289   1.255   3.368   5.521
62464SOL    HW289290   1.196   3.458   5.414
62465SOL     OW89291   1.471   1.247   7.053
62465SOL    HW189292   1.528   1.300   6.997
62465SOL    HW289293   1.388   1.294   7.056
62466SOL     OW89294  10.694  12.748  12.643
62466SOL    HW189295  10.694  12.694  12.563
62466SOL    HW289296  10.760  12.815  12.627
62467SOL     OW89297   6.100   2.347   0.753
62467SOL    HW189298   6.055   2.426   0.724
62467SOL    HW289299   6.168   2.332   0.687
62468SOL     OW89300   7.030  14.714   0.814
62468SOL    HW189301   6.949  14.667   0.794
62468SOL    HW289302   7.030  14.789   0.755
62469SOL     OW89303  10.477   7.485  13.639
62469SOL    HW189304  10.533   7.553  13.676
62469SOL    HW289305  10.510   7.474  13.550
62470SOL     OW89306  14.279   8.849   0.226
62470SOL    HW189307  14.324   8.903   0.292
62470SOL    HW289308  14.220   8.794   0.277
62471SOL     OW89309   5.999  11.289  14.220
62471SOL    HW189310   6.041  11.205  14.240
62471SOL    HW289311   5.955  11.274  14.136
62472SOL     OW89312   7.466   8.167   6.509
62472SOL    HW189313   7.545   8.222   6.512
62472SOL    HW289314   7.408   8.212   6.447
62473SOL     OW89315  10.183  13.657   6.638
62473SOL    HW189316  10.252  13.689   6.579
62473SOL    HW289317  10.134  13.594   6.585
62474SOL     OW89318  11.897   5.543   1.990
62474SOL    HW189319  11.933   5.518   2.075
62474SOL    HW289320  11.827   5.605   2.012
62475SOL     OW89321  10.495  13.086   0.296
62475SOL    HW189322  10.499  13.009   0.352
62475SOL    HW289323  10.445  13.150   0.346
62476SOL     OW89324   5.625   7.473   7.884
62476SOL    HW189325   5.537   7.508   7.872
62476SOL    HW289326   5.679   7.550   7.902
62477SOL     OW89327  11.710   2.986   4.894
62477SOL    HW189328  11.656   2.910   4.914
62477SOL    HW289329  11.797   2.950   4.875
62478SOL     OW89330  11.261  11.443   3.125
62478SOL    HW189331  11.215  11.416   3.204
62478SOL    HW289332  11.243  11.537   3.117
62479SOL     OW89333  12.665  11.493  13.299
62479SOL    HW189334  12.628  11.424  13.245
62479SOL    HW289335  12.592  11.553  13.315
62480SOL     OW89336   7.566   0.491  10.859
62480SOL    HW189337   7.587   0.558  10.794
62480SOL    HW289338   7.567   0.537  10.943
62481SOL     OW89339   5.156   2.596  14.260
62481SOL    HW189340   5.174   2.684  14.224
62481SOL    HW289341   5.096   2.612  14.332
62482SOL     OW89342   7.371  14.006  12.128
62482SOL    HW189343   7.368  14.102  12.123
62482SOL    HW289344   7.281  13.980  12.146
62483SOL     OW89345  12.968  10.718   2.879
62483SOL    HW189346  12.991  10.635   2.836
62483SOL    HW289347  12.886  10.700   2.925
62484SOL     OW89348  13.577   1.502  11.907
62484SOL    HW189349  13.654   1.537  11.861
62484SOL    HW289350  13.513   1.573  11.903
62485SOL     OW89351   1.477   1.400  11.674
62485SOL    HW189352   1.424   1.325  11.649
62485SOL    HW289353   1.560   1.387  11.628
62486SOL     OW89354  12.682  10.066  12.620
62486SOL    HW189355  12.754  10.090  12.562
62486SOL    HW289356  12.604  10.100  12.577
62487SOL     OW89357   7.545   0.986   9.699
62487SOL    HW189358   7.633   0.948   9.701
62487SOL    HW289359   7.490   0.923   9.745
62488SOL     OW89360   6.310   5.319  12.691
62488SOL    HW189361   6.288   5.237  12.647
62488SOL    HW289362   6.306   5.385  12.621
62489SOL     OW89363   1.200   3.399   6.484
62489SOL    HW189364   1.255   3.330   6.446
62489SOL    HW289365   1.258   3.443   6.547
62490SOL     OW89366   9.357   0.629   0.522
62490SOL    HW189367   9.295   0.562   0.549
62490SOL    HW289368   9.440   0.582   0.511
62491SOL     OW89369   1.854  12.739   5.414
62491SOL    HW189370   1.809  12.816   5.378
62491SOL    HW289371   1.926  12.776   5.465
62492SOL     OW89372  10.400  14.135   0.085
62492SOL    HW189373  10.477  14.190   0.092
62492SOL    HW289374  10.389  14.120  14.873
62493SOL     OW89375  10.633  13.710   1.681
62493SOL    HW189376  10.713  13.760   1.664
62493SOL    HW289377  10.564  13.777   1.687
62494SOL     OW89378   0.947   9.622   4.974
62494SOL    HW189379   0.904   9.637   4.890
62494SOL    HW289380   0.998   9.542   4.961
62495SOL     OW89381   2.118  12.745   3.027
62495SOL    HW189382   2.056  12.804   3.070
62495SOL    HW289383   2.204  12.780   3.050
62496SOL     OW89384   3.690  13.694   3.637
62496SOL    HW189385   3.645  13.698   3.553
62496SOL    HW289386   3.766  13.751   3.627
62497SOL     OW89387  14.188  10.639  12.244
62497SOL    HW189388  14.197  10.543  12.242
62497SOL    HW289389  14.194  10.665  12.152
62498SOL     OW89390   7.473   8.804   6.825
62498SOL    HW189391   7.527   8.791   6.748
62498SOL    HW289392   7.516   8.874   6.874
62499SOL     OW89393   8.166   5.261   0.888
62499SOL    HW189394   8.240   5.276   0.829
62499SOL    HW289395   8.133   5.349   0.908
62500SOL     OW89396   0.371   4.572  13.890
62500SOL    HW189397   0.418   4.502  13.844
62500SOL    HW289398   0.376   4.547  13.982
62501SOL     OW89399   6.159   0.076  14.631
62501SOL    HW189400   6.129   0.166  14.644
62501SOL    HW289401   6.079   0.023  14.637
62502SOL     OW89402   9.046  12.630   5.380
62502SOL    HW189403   9.138  12.604   5.385
62502SOL    HW289404   8.997  12.548   5.377
62503SOL     OW89405  14.553   2.522   2.764
62503SOL    HW189406  14.587   2.446   2.811
62503SOL    HW289407  14.601   2.523   2.681
62504SOL     OW89408   3.252   5.359   6.940
62504SOL    HW189409   3.172   5.398   6.904
62504SOL    HW289410   3.302   5.331   6.863
62505SOL     OW89411  11.251  12.979   6.056
62505SOL    HW189412  11.314  13.030   6.106
62505SOL    HW289413  11.171  12.980   6.109
62506SOL     OW89414   0.718   4.687   7.862
62506SOL    HW189415   0.767   4.751   7.914
62506SOL    HW289416   0.758   4.603   7.882
62507SOL     OW89417  10.541  11.169   2.705
62507SOL    HW189418  10.595  11.240   2.671
62507SOL    HW289419  10.451  11.197   2.688
62508SOL     OW89420   4.388  11.994  13.772
62508SOL    HW189421   4.386  11.914  13.720
62508SOL    HW289422   4.412  11.966  13.860
62509SOL     OW89423  11.586   3.491   9.108
62509SOL    HW189424  11.505   3.489   9.159
62509SOL    HW289425  11.559   3.512   9.019
62510SOL     OW89426  14.011   2.392   5.364
62510SOL    HW189427  14.033   2.385   5.271
62510SOL    HW289428  13.957   2.315   5.382
62511SOL     OW89429   9.648   9.951   6.064
62511SOL    HW189430   9.687  10.027   6.021
62511SOL    HW289431   9.554   9.964   6.055
62512SOL     OW89432   1.112   2.849   6.897
62512SOL    HW189433   1.029   2.851   6.945
62512SOL    HW289434   1.143   2.759   6.906
62513SOL     OW89435   7.238   0.461   8.507
62513SOL    HW189436   7.161   0.511   8.534
62513SOL    HW289437   7.204   0.376   8.481
62514SOL     OW89438   7.385   6.389   9.037
62514SOL    HW189439   7.301   6.347   9.055
62514SOL    HW289440   7.380   6.413   8.944
62515SOL     OW89441   4.059   4.906   4.395
62515SOL    HW189442   4.040   4.965   4.322
62515SOL    HW289443   4.154   4.906   4.402
62516SOL     OW89444  11.806   5.878   8.057
62516SOL    HW189445  11.856   5.932   7.995
62516SOL    HW289446  11.773   5.941   8.122
62517SOL     OW89447   9.830  11.494   1.675
62517SOL    HW189448   9.839  11.399   1.681
62517SOL    HW289449   9.897  11.528   1.734
62518SOL     OW89450   8.203   7.514   8.077
62518SOL    HW189451   8.279   7.506   8.020
62518SOL    HW289452   8.219   7.595   8.126
62519SOL     OW89453  13.773   5.979   9.587
62519SOL    HW189454  13.687   5.937   9.578
62519SOL    HW289455  13.789   5.980   9.682
62520SOL     OW89456   3.968   4.172  10.082
62520SOL    HW189457   3.906   4.222  10.135
62520SOL    HW289458   4.026   4.131  10.146
62521SOL     OW89459   4.174   7.526   8.957
62521SOL    HW189460   4.185   7.439   8.919
62521SOL    HW289461   4.263   7.559   8.968
62522SOL     OW89462   2.170  11.122   5.214
62522SOL    HW189463   2.231  11.181   5.259
62522SOL    HW289464   2.114  11.087   5.283
62523SOL     OW89465  11.101  13.481  11.096
62523SOL    HW189466  11.047  13.518  11.026
62523SOL    HW289467  11.176  13.540  11.102
62524SOL     OW89468   2.533  12.707   5.230
62524SOL    HW189469   2.437  12.713   5.238
62524SOL    HW289470   2.550  12.613   5.228
62525SOL     OW89471  10.939   4.125   0.345
62525SOL    HW189472  11.033   4.112   0.329
62525SOL    HW289473  10.930   4.220   0.356
62526SOL     OW89474   5.673   9.609   4.099
62526SOL    HW189475   5.740   9.592   4.032
62526SOL    HW289476   5.684   9.538   4.162
62527SOL     OW89477  13.476   6.045  12.688
62527SOL    HW189478  13.399   6.040  12.744
62527SOL    HW289479  13.497   6.138  12.683
62528SOL     OW89480   2.495  12.535   8.541
62528SOL    HW189481   2.421  12.596   8.535
62528SOL    HW289482   2.460  12.452   8.508
62529SOL     OW89483   9.454  11.581   8.855
62529SOL    HW189484   9.361  11.597   8.869
62529SOL    HW289485   9.473  11.624   8.772
62530SOL     OW89486   3.925   3.043   5.683
62530SOL    HW189487   3.934   3.068   5.775
62530SOL    HW289488   3.960   2.954   5.679
62531SOL     OW89489   4.207  14.877   5.467
62531SOL    HW189490   4.171  14.797   5.428
62531SOL    HW289491   4.288   0.011   5.418
62532SOL     OW89492   3.594   5.618   1.176
62532SOL    HW189493   3.681   5.585   1.198
62532SOL    HW289494   3.567   5.565   1.100
62533SOL     OW89495  10.170   6.457   4.286
62533SOL    HW189496  10.182   6.542   4.328
62533SOL    HW289497  10.102   6.414   4.338
62534SOL     OW89498  12.245   5.084   3.286
62534SOL    HW189499  12.308   5.015   3.302
62534SOL    HW289500  12.294   5.151   3.238
62535SOL     OW89501   7.516   1.120   6.160
62535SOL    HW189502   7.471   1.193   6.118
62535SOL    HW289503   7.485   1.042   6.114
62536SOL     OW89504   4.906  13.144   4.076
62536SOL    HW189505   4.907  13.167   3.983
62536SOL    HW289506   4.865  13.219   4.119
62537SOL     OW89507   1.582  14.543   5.951
62537SOL    HW189508   1.513  14.476   5.941
62537SOL    HW289509   1.540  14.625   5.924
62538SOL     OW89510  13.192   0.882   4.715
62538SOL    HW189511  13.254   0.820   4.751
62538SOL    HW289512  13.228   0.907   4.630
62539SOL     OW89513   4.284   1.721   3.257
62539SOL    HW189514   4.196   1.752   3.232
62539SOL    HW289515   4.304   1.770   3.336
62540SOL     OW89516   9.083   8.171   9.845
62540SOL    HW189517   9.053   8.256   9.813
62540SOL    HW289518   9.178   8.173   9.832
62541SOL     OW89519  12.348   1.237   1.388
62541SOL    HW189520  12.440   1.266   1.386
62541SOL    HW289521  12.298   1.319   1.385
62542SOL     OW89522  10.115   3.755   3.188
62542SOL    HW189523  10.077   3.688   3.244
62542SOL    HW289524  10.210   3.744   3.198
62543SOL     OW89525   8.910  13.656   6.089
62543SOL    HW189526   8.885  13.749   6.096
62543SOL    HW289527   8.836  13.615   6.045
62544SOL     OW89528  13.354   8.361   1.123
62544SOL    HW189529  13.416   8.328   1.058
62544SOL    HW289530  13.408   8.413   1.184
62545SOL     OW89531  11.671  10.383   7.641
62545SOL    HW189532  11.609  10.438   7.687
62545SOL    HW289533  11.664  10.298   7.683
62546SOL     OW89534   7.227   0.399  12.836
62546SOL    HW189535   7.301   0.367  12.785
62546SOL    HW289536   7.265   0.464  12.896
62547SOL     OW89537  12.036   4.353  10.032
62547SOL    HW189538  12.063   4.363  10.123
62547SOL    HW289539  12.032   4.258  10.019
62548SOL     OW89540  14.729   0.106   6.295
62548SOL    HW189541  14.719   0.081   6.203
62548SOL    HW289542  14.783   0.036   6.332
62549SOL     OW89543  14.439   8.801  10.008
62549SOL    HW189544  14.348   8.781   9.987
62549SOL    HW289545  14.450   8.892   9.983
62550SOL     OW89546   7.591   1.407   9.740
62550SOL    HW189547   7.533   1.360   9.800
62550SOL    HW289548   7.631   1.475   9.795
62551SOL     OW89549  10.972   4.732   5.009
62551SOL    HW189550  10.960   4.700   5.098
62551SOL    HW289551  10.968   4.827   5.017
62552SOL     OW89552  13.046   0.944   5.935
62552SOL    HW189553  13.105   0.890   5.987
62552SOL    HW289554  13.103   0.996   5.879
62553SOL     OW89555   9.290   7.394   8.637
62553SOL    HW189556   9.362   7.419   8.580
62553SOL    HW289557   9.331   7.381   8.723
62554SOL     OW89558   6.606  12.892   4.775
62554SOL    HW189559   6.671  12.822   4.781
62554SOL    HW289560   6.565  12.894   4.862
62555SOL     OW89561   6.917   0.407  13.135
62555SOL    HW189562   6.890   0.383  13.046
62555SOL    HW289563   6.861   0.353  13.191
62556SOL     OW89564   9.858   5.788   5.973
62556SOL    HW189565   9.818   5.767   5.889
62556SOL    HW289566   9.912   5.711   5.994
62557SOL     OW89567   2.133  13.282  10.214
62557SOL    HW189568   2.145  13.366  10.257
62557SOL    HW289569   2.072  13.300  10.143
62558SOL     OW89570  13.566   0.836  10.668
62558SOL    HW189571  13.598   0.926  10.680
62558SOL    HW289572  13.557   0.826  10.574
62559SOL     OW89573  10.120  13.337   1.884
62559SOL    HW189574  10.045  13.385   1.848
62559SOL    HW289575  10.081  13.267   1.935
62560SOL     OW89576   7.136   2.399   3.437
62560SOL    HW189577   7.208   2.461   3.424
62560SOL    HW289578   7.095   2.392   3.350
62561SOL     OW89579   6.215  11.238  11.764
62561SOL    HW189580   6.186  11.148  11.779
62561SOL    HW289581   6.247  11.268  11.850
62562SOL     OW89582   6.639   7.694   9.675
62562SOL    HW189583   6.599   7.671   9.591
62562SOL    HW289584   6.612   7.624   9.735
62563SOL     OW89585   5.983   5.198  11.985
62563SOL    HW189586   5.982   5.103  12.002
62563SOL    HW289587   5.909   5.232  12.035
62564SOL     OW89588   8.146  11.471   6.343
62564SOL    HW189589   8.228  11.433   6.375
62564SOL    HW289590   8.141  11.443   6.252
62565SOL     OW89591   2.800   7.796   6.180
62565SOL    HW189592   2.810   7.825   6.271
62565SOL    HW289593   2.707   7.808   6.161
62566SOL     OW89594   9.102  12.606  13.803
62566SOL    HW189595   9.173  12.651  13.849
62566SOL    HW289596   9.092  12.654  13.721
62567SOL     OW89597   4.945  12.015   1.302
62567SOL    HW189598   5.028  11.976   1.330
62567SOL    HW289599   4.906  12.051   1.382
62568SOL     OW89600   0.980  11.135   5.479
62568SOL    HW189601   1.073  11.134   5.454
62568SOL    HW289602   0.965  11.226   5.506
62569SOL     OW89603   0.359   3.262   9.747
62569SOL    HW189604   0.315   3.188   9.788
62569SOL    HW289605   0.326   3.339   9.792
62570SOL     OW89606   9.079   8.535  13.493
62570SOL    HW189607   9.012   8.510  13.556
62570SOL    HW289608   9.120   8.453  13.468
62571SOL     OW89609   7.965   4.305   6.085
62571SOL    HW189610   7.960   4.328   5.992
62571SOL    HW289611   7.961   4.389   6.131
62572SOL     OW89612   6.542   1.291  11.921
62572SOL    HW189613   6.630   1.275  11.889
62572SOL    HW289614   6.495   1.329  11.846
62573SOL     OW89615   1.004  10.693  12.698
62573SOL    HW189616   1.061  10.764  12.726
62573SOL    HW289617   1.045  10.660  12.618
62574SOL     OW89618   2.308   9.253   3.218
62574SOL    HW189619   2.233   9.215   3.264
62574SOL    HW289620   2.327   9.334   3.266
62575SOL     OW89621  11.366   1.812   3.768
62575SOL    HW189622  11.425   1.866   3.714
62575SOL    HW289623  11.407   1.813   3.855
62576SOL     OW89624   4.552  11.701   2.146
62576SOL    HW189625   4.486  11.710   2.077
62576SOL    HW289626   4.584  11.790   2.160
62577SOL     OW89627   2.841  13.603  13.303
62577SOL    HW189628   2.846  13.570  13.213
62577SOL    HW289629   2.892  13.684  13.302
62578SOL     OW89630  10.112   3.261   5.455
62578SOL    HW189631  10.085   3.256   5.547
62578SOL    HW289632  10.105   3.354   5.433
62579SOL     OW89633   8.615   5.354   6.675
62579SOL    HW189634   8.537   5.301   6.661
62579SOL    HW289635   8.621   5.408   6.596
62580SOL     OW89636  13.010  11.921  13.428
62580SOL    HW189637  13.012  11.974  13.348
62580SOL    HW289638  12.917  11.908  13.446
62581SOL     OW89639  13.458   6.928  14.415
62581SOL    HW189640  13.474   6.957  14.505
62581SOL    HW289641  13.538   6.883  14.390
62582SOL     OW89642  14.766  14.465   4.024
62582SOL    HW189643  14.822  14.469   4.102
62582SOL    HW289644  14.706  14.539   4.036
62583SOL     OW89645   1.198  13.380  10.502
62583SOL    HW189646   1.128  13.331  10.545
62583SOL    HW289647   1.163  13.469  10.492
62584SOL     OW89648   2.869  12.471  12.444
62584SOL    HW189649   2.831  12.476  12.532
62584SOL    HW289650   2.937  12.404  12.451
62585SOL     OW89651  10.429   6.475   5.256
62585SOL    HW189652  10.443   6.566   5.230
62585SOL    HW289653  10.364   6.480   5.326
62586SOL     OW89654  13.764   1.418   5.380
62586SOL    HW189655  13.831   1.388   5.319
62586SOL    HW289656  13.756   1.512   5.363
62587SOL     OW89657  10.912   0.861  10.055
62587SOL    HW189658  10.956   0.912  10.123
62587SOL    HW289659  10.840   0.817  10.101
62588SOL     OW89660   8.886   3.455   9.732
62588SOL    HW189661   8.864   3.511   9.658
62588SOL    HW289662   8.900   3.368   9.694
62589SOL     OW89663   2.128   9.236  12.673
62589SOL    HW189664   2.164   9.290  12.744
62589SOL    HW289665   2.133   9.146  12.706
62590SOL     OW89666  12.583   2.283  11.583
62590SOL    HW189667  12.645   2.210  11.583
62590SOL    HW289668  12.561   2.297  11.675
62591SOL     OW89669  10.836   5.361   0.516
62591SOL    HW189670  10.899   5.406   0.460
62591SOL    HW289671  10.765   5.336   0.457
62592SOL     OW89672  10.240   9.585  11.304
62592SOL    HW189673  10.148   9.581  11.330
62592SOL    HW289674  10.249   9.519  11.235
62593SOL     OW89675  10.987   8.292   3.250
62593SOL    HW189676  10.917   8.298   3.316
62593SOL    HW289677  10.991   8.380   3.213
62594SOL     OW89678  10.333   7.532  12.233
62594SOL    HW189679  10.266   7.579  12.283
62594SOL    HW289680  10.323   7.441  12.259
62595SOL     OW89681  10.127  10.892  11.938
62595SOL    HW189682  10.129  10.801  11.908
62595SOL    HW289683  10.219  10.919  11.940
62596SOL     OW89684   1.963   6.522  10.657
62596SOL    HW189685   1.937   6.482  10.740
62596SOL    HW289686   1.932   6.612  10.663
62597SOL     OW89687   4.472   3.170   5.579
62597SOL    HW189688   4.501   3.079   5.581
62597SOL    HW289689   4.544   3.217   5.536
62598SOL     OW89690   9.343   4.554   8.029
62598SOL    HW189691   9.296   4.583   8.107
62598SOL    HW289692   9.401   4.485   8.061
62599SOL     OW89693   1.677   4.922   8.091
62599SOL    HW189694   1.661   4.879   8.007
62599SOL    HW289695   1.745   4.869   8.132
62600SOL     OW89696  11.678  10.356   3.794
62600SOL    HW189697  11.719  10.277   3.759
62600SOL    HW289698  11.730  10.379   3.871
62601SOL     OW89699   2.675  10.965   6.577
62601SOL    HW189700   2.674  11.004   6.665
62601SOL    HW289701   2.623  11.025   6.524
62602SOL     OW89702  10.374   4.248   0.231
62602SOL    HW189703  10.346   4.316   0.170
62602SOL    HW289704  10.293   4.205   0.258
62603SOL     OW89705   8.650   7.832  10.104
62603SOL    HW189706   8.601   7.884  10.168
62603SOL    HW289707   8.618   7.743  10.116
62604SOL     OW89708   8.434  13.481  12.869
62604SOL    HW189709   8.368  13.453  12.806
62604SOL    HW289710   8.514  13.437  12.840
62605SOL     OW89711   2.195  12.002   9.105
62605SOL    HW189712   2.150  12.078   9.141
62605SOL    HW289713   2.287  12.015   9.128
62606SOL     OW89714  14.617   2.584  12.133
62606SOL    HW189715  14.674   2.514  12.102
62606SOL    HW289716  14.588   2.555  12.220
62607SOL     OW89717   8.881   0.133  13.658
62607SOL    HW189718   8.907   0.079  13.733
62607SOL    HW289719   8.954   0.125  13.597
62608SOL     OW89720  11.117   9.287   5.069
62608SOL    HW189721  11.131   9.245   5.154
62608SOL    HW289722  11.043   9.346   5.084
62609SOL     OW89723   9.748  10.506  14.616
62609SOL    HW189724   9.790  10.547  14.540
62609SOL    HW289725   9.769  10.563  14.690
62610SOL     OW89726   8.429  12.783   7.271
62610SOL    HW189727   8.435  12.754   7.180
62610SOL    HW289728   8.475  12.867   7.273
62611SOL     OW89729  11.840   5.260   3.299
62611SOL    HW189730  11.874   5.252   3.388
62611SOL    HW289731  11.886   5.192   3.250
62612SOL     OW89732  11.864   9.450   4.576
62612SOL    HW189733  11.843   9.495   4.494
62612SOL    HW289734  11.839   9.512   4.645
62613SOL     OW89735   1.711  10.026  13.828
62613SOL    HW189736   1.762  10.080  13.768
62613SOL    HW289737   1.644  10.084  13.862
62614SOL     OW89738   2.129   1.288  14.784
62614SOL    HW189739   2.181   1.227  14.731
62614SOL    HW289740   2.047   1.242  14.800
62615SOL     OW89741   6.641  14.427   9.182
62615SOL    HW189742   6.581  14.362   9.217
62615SOL    HW289743   6.714  14.375   9.146
62616SOL     OW89744   4.857  13.078   8.273
62616SOL    HW189745   4.899  12.994   8.288
62616SOL    HW289746   4.808  13.095   8.353
62617SOL     OW89747   6.959   2.693   5.643
62617SOL    HW189748   6.866   2.675   5.627
62617SOL    HW289749   6.991   2.613   5.685
62618SOL     OW89750  11.830   5.685   3.429
62618SOL    HW189751  11.818   5.622   3.500
62618SOL    HW289752  11.897   5.745   3.461
62619SOL     OW89753  12.020   4.663   8.821
62619SOL    HW189754  12.046   4.745   8.864
62619SOL    HW289755  12.093   4.603   8.838
62620SOL     OW89756   8.538  13.596   1.507
62620SOL    HW189757   8.621  13.566   1.469
62620SOL    HW289758   8.513  13.672   1.454
62621SOL     OW89759   8.340   9.063   1.270
62621SOL    HW189760   8.327   9.046   1.177
62621SOL    HW289761   8.425   9.024   1.290
62622SOL     OW89762   7.573  14.776   8.070
62622SOL    HW189763   7.652  14.725   8.090
62622SOL    HW289764   7.586  14.805   7.980
62623SOL     OW89765   9.373   9.832   3.270
62623SOL    HW189766   9.284   9.829   3.234
62623SOL    HW289767   9.400   9.740   3.275
62624SOL     OW89768   9.324  10.660   1.304
62624SOL    HW189769   9.269  10.738   1.307
62624SOL    HW289770   9.320  10.624   1.393
62625SOL     OW89771  12.529   3.209   9.976
62625SOL    HW189772  12.440   3.223   9.944
62625SOL    HW289773  12.584   3.265   9.921
62626SOL     OW89774   9.581   0.067  11.841
62626SOL    HW189775   9.650   0.101  11.783
62626SOL    HW289776   9.506   0.125  11.824
62627SOL     OW89777   3.064   5.191   1.923
62627SOL    HW189778   3.010   5.112   1.919
62627SOL    HW289779   3.122   5.176   1.997
62628SOL     OW89780   3.427   9.197   5.151
62628SOL    HW189781   3.334   9.176   5.144
62628SOL    HW289782   3.458   9.145   5.226
62629SOL     OW89783  12.984   1.763  12.865
62629SOL    HW189784  12.937   1.700  12.810
62629SOL    HW289785  13.070   1.771  12.824
62630SOL     OW89786   7.532  11.992   1.742
62630SOL    HW189787   7.455  11.946   1.775
62630SOL    HW289788   7.499  12.051   1.674
62631SOL     OW89789   5.272   0.412   1.905
62631SOL    HW189790   5.356   0.418   1.950
62631SOL    HW289791   5.246   0.503   1.890
62632SOL     OW89792  14.645   0.997   8.100
62632SOL    HW189793  14.615   1.077   8.056
62632SOL    HW289794  14.600   0.998   8.185
62633SOL     OW89795  14.342   1.454   8.205
62633SOL    HW189796  14.351   1.380   8.144
62633SOL    HW289797  14.348   1.414   8.292
62634SOL     OW89798   0.603   1.664  12.059
62634SOL    HW189799   0.694   1.637  12.071
62634SOL    HW289800   0.596   1.748  12.103
62635SOL     OW89801  11.673   0.563   1.946
62635SOL    HW189802  11.700   0.556   1.854
62635SOL    HW289803  11.588   0.607   1.942
62636SOL     OW89804   8.672  11.218  11.091
62636SOL    HW189805   8.596  11.226  11.034
62636SOL    HW289806   8.717  11.302  11.083
62637SOL     OW89807   4.620   2.574  12.891
62637SOL    HW189808   4.581   2.502  12.941
62637SOL    HW289809   4.654   2.634  12.958
62638SOL     OW89810   0.809  12.691   7.597
62638SOL    HW189811   0.758  12.772   7.590
62638SOL    HW289812   0.752  12.624   7.559
62639SOL     OW89813   9.033  11.334  11.623
62639SOL    HW189814   8.960  11.386  11.656
62639SOL    HW289815   9.105  11.352  11.683
62640SOL     OW89816   8.432   6.777  13.190
62640SOL    HW189817   8.465   6.841  13.253
62640SOL    HW289818   8.447   6.817  13.104
62641SOL     OW89819  10.689  13.494   1.837
62641SOL    HW189820  10.650  13.537   1.913
62641SOL    HW289821  10.657  13.544   1.762
62642SOL     OW89822   7.251   9.510   9.939
62642SOL    HW189823   7.178   9.469   9.985
62642SOL    HW289824   7.325   9.499   9.999
62643SOL     OW89825   1.090   4.337   2.017
62643SOL    HW189826   1.058   4.258   2.060
62643SOL    HW289827   1.020   4.401   2.028
62644SOL     OW89828  11.110  13.210  11.494
62644SOL    HW189829  11.085  13.286  11.441
62644SOL    HW289830  11.154  13.248  11.570
62645SOL     OW89831   2.138   2.476  13.381
62645SOL    HW189832   2.088   2.558  13.380
62645SOL    HW289833   2.189   2.480  13.462
62646SOL     OW89834   8.258   2.027   5.768
62646SOL    HW189835   8.279   1.978   5.847
62646SOL    HW289836   8.176   2.072   5.788
62647SOL     OW89837   5.068   1.682   3.322
62647SOL    HW189838   5.145   1.636   3.354
62647SOL    HW289839   5.039   1.735   3.396
62648SOL     OW89840  10.926  10.148   5.591
62648SOL    HW189841  11.021  10.150   5.598
62648SOL    HW289842  10.906  10.211   5.521
62649SOL     OW89843   9.724   1.608   6.823
62649SOL    HW189844   9.779   1.679   6.856
62649SOL    HW289845   9.652   1.602   6.886
62650SOL     OW89846   1.032   8.962   5.689
62650SOL    HW189847   1.039   8.992   5.598
62650SOL    HW289848   0.940   8.939   5.700
62651SOL     OW89849  13.985   5.062   0.165
62651SOL    HW189850  13.904   5.051   0.215
62651SOL    HW289851  14.055   5.051   0.230
62652SOL     OW89852   1.196  10.210   0.469
62652SOL    HW189853   1.122  10.168   0.513
62652SOL    HW289854   1.253  10.138   0.444
62653SOL     OW89855  14.434   9.549  13.823
62653SOL    HW189856  14.501   9.483  13.842
62653SOL    HW289857  14.365   9.500  13.778
62654SOL     OW89858   5.980  12.010   5.600
62654SOL    HW189859   6.004  12.021   5.508
62654SOL    HW289860   6.063  11.990   5.644
62655SOL     OW89861  12.637  10.500  12.249
62655SOL    HW189862  12.596  10.552  12.180
62655SOL    HW289863  12.622  10.550  12.329
62656SOL     OW89864   2.101   3.746  12.705
62656SOL    HW189865   2.057   3.810  12.649
62656SOL    HW289866   2.177   3.718  12.653
62657SOL     OW89867   5.316   1.156   4.729
62657SOL    HW189868   5.245   1.122   4.674
62657SOL    HW289869   5.290   1.246   4.747
62658SOL     OW89870   2.812   5.814  10.643
62658SOL    HW189871   2.839   5.875  10.712
62658SOL    HW289872   2.782   5.870  10.572
62659SOL     OW89873   9.688   8.013  13.015
62659SOL    HW189874   9.708   7.980  12.928
62659SOL    HW289875   9.717   7.944  13.075
62660SOL     OW89876  12.067   2.533   8.753
62660SOL    HW189877  12.063   2.440   8.729
62660SOL    HW289878  12.015   2.578   8.687
62661SOL     OW89879   3.742   7.248   5.498
62661SOL    HW189880   3.659   7.286   5.528
62661SOL    HW289881   3.719   7.159   5.472
62662SOL     OW89882   4.811   5.755  12.237
62662SOL    HW189883   4.766   5.711  12.309
62662SOL    HW289884   4.745   5.758  12.167
62663SOL     OW89885  10.153  14.390   4.511
62663SOL    HW189886  10.155  14.316   4.573
62663SOL    HW289887  10.067  14.430   4.525
62664SOL     OW89888   7.050   1.685   9.781
62664SOL    HW189889   7.040   1.693   9.876
62664SOL    HW289890   6.968   1.646   9.751
62665SOL     OW89891   0.591   5.502  12.240
62665SOL    HW189892   0.608   5.570  12.175
62665SOL    HW289893   0.499   5.512  12.262
62666SOL     OW89894  13.821   1.961   7.848
62666SOL    HW189895  13.844   1.932   7.760
62666SOL    HW289896  13.728   1.980   7.843
62667SOL     OW89897   9.813  13.213  11.042
62667SOL    HW189898   9.745  13.209  11.109
62667SOL    HW289899   9.802  13.132  10.992
62668SOL     OW89900   9.987   6.833   8.096
62668SOL    HW189901  10.049   6.900   8.125
62668SOL    HW289902   9.931   6.879   8.034
62669SOL     OW89903   8.434   0.844  12.854
62669SOL    HW189904   8.528   0.859  12.856
62669SOL    HW289905   8.395   0.932  12.854
62670SOL     OW89906  10.122   5.681  11.758
62670SOL    HW189907  10.115   5.731  11.839
62670SOL    HW289908  10.054   5.719  11.701
62671SOL     OW89909   6.659   7.216  14.107
62671SOL    HW189910   6.673   7.125  14.081
62671SOL    HW289911   6.664   7.265  14.024
62672SOL     OW89912   8.628   1.092   0.198
62672SOL    HW189913   8.685   1.145   0.254
62672SOL    HW289914   8.678   1.012   0.184
62673SOL     OW89915   4.190  13.252  12.832
62673SOL    HW189916   4.233  13.172  12.800
62673SOL    HW289917   4.261  13.302  12.872
62674SOL     OW89918   6.763  11.392   1.776
62674SOL    HW189919   6.816  11.324   1.818
62674SOL    HW289920   6.767  11.371   1.682
62675SOL     OW89921   8.978   5.933   4.970
62675SOL    HW189922   8.999   6.017   5.012
62675SOL    HW289923   8.889   5.945   4.937
62676SOL     OW89924   4.427   1.197  13.153
62676SOL    HW189925   4.391   1.264  13.211
62676SOL    HW289926   4.354   1.137  13.137
62677SOL     OW89927   2.575   4.799   5.352
62677SOL    HW189928   2.665   4.829   5.357
62677SOL    HW289929   2.532   4.860   5.292
62678SOL     OW89930   6.573  12.064   3.378
62678SOL    HW189931   6.561  11.970   3.364
62678SOL    HW289932   6.652  12.086   3.328
62679SOL     OW89933  11.194   7.649   8.713
62679SOL    HW189934  11.157   7.591   8.779
62679SOL    HW289935  11.173   7.737   8.743
62680SOL     OW89936   8.919   9.071  14.810
62680SOL    HW189937   8.893   9.016  14.736
62680SOL    HW289938   8.962   9.146  14.770
62681SOL     OW89939   5.488  11.752  13.051
62681SOL    HW189940   5.577  11.784  13.042
62681SOL    HW289941   5.434  11.812  12.999
62682SOL     OW89942   7.208   0.819   5.753
62682SOL    HW189943   7.135   0.791   5.698
62682SOL    HW289944   7.252   0.887   5.702
62683SOL     OW89945   1.626   0.747   0.643
62683SOL    HW189946   1.534   0.763   0.621
62683SOL    HW289947   1.654   0.826   0.688
62684SOL     OW89948  10.974  13.396   0.949
62684SOL    HW189949  11.029  13.458   0.998
62684SOL    HW289950  10.904  13.450   0.914
62685SOL     OW89951   6.133   7.111  14.396
62685SOL    HW189952   6.214   7.113  14.344
62685SOL    HW289953   6.126   7.199  14.433
62686SOL     OW89954   9.811   9.786  13.924
62686SOL    HW189955   9.746   9.779  13.994
62686SOL    HW289956   9.772   9.847  13.861
62687SOL     OW89957   9.126   8.745  11.440
62687SOL    HW189958   9.192   8.690  11.399
62687SOL    HW289959   9.043   8.715  11.403
62688SOL     OW89960   4.297   5.818   7.493
62688SOL    HW189961   4.269   5.906   7.516
62688SOL    HW289962   4.219   5.764   7.507
62689SOL     OW89963  13.525   9.544  13.635
62689SOL    HW189964  13.454   9.510  13.690
62689SOL    HW289965  13.564   9.614  13.687
62690SOL     OW89966   4.689   2.631   2.306
62690SOL    HW189967   4.665   2.561   2.367
62690SOL    HW289968   4.626   2.623   2.234
62691SOL     OW89969  11.498   8.273  12.327
62691SOL    HW189970  11.582   8.231  12.348
62691SOL    HW289971  11.519   8.367  12.326
62692SOL     OW89972  12.509  10.716   2.529
62692SOL    HW189973  12.507  10.623   2.505
62692SOL    HW289974  12.442  10.724   2.597
62693SOL     OW89975  14.607   8.301   0.727
62693SOL    HW189976  14.550   8.264   0.660
62693SOL    HW289977  14.653   8.226   0.764
62694SOL     OW89978   1.214   0.828   2.003
62694SOL    HW189979   1.196   0.922   2.005
62694SOL    HW289980   1.259   0.814   1.920
62695SOL     OW89981   8.367   6.350   0.632
62695SOL    HW189982   8.291   6.329   0.687
62695SOL    HW289983   8.442   6.345   0.691
62696SOL     OW89984  12.632   5.227  10.072
62696SOL    HW189985  12.718   5.192  10.093
62696SOL    HW289986  12.590   5.158  10.020
62697SOL     OW89987   0.640  11.892  12.465
62697SOL    HW189988   0.676  11.979  12.480
62697SOL    HW289989   0.708  11.832  12.494
62698SOL     OW89990   9.134  11.141   7.602
62698SOL    HW189991   9.096  11.096   7.527
62698SOL    HW289992   9.228  11.138   7.587
62699SOL     OW89993   7.830   4.332   1.873
62699SOL    HW189994   7.912   4.381   1.877
62699SOL    HW289995   7.842   4.261   1.937
62700SOL     OW89996   0.111   9.794  14.791
62700SOL    HW189997   0.180   9.843  14.835
62700SOL    HW289998   0.087   9.725  14.853
62701SOL     OW89999   5.528   8.754   4.141
62701SOL    HW190000   5.541   8.849   4.140
62701SOL    HW290001   5.596   8.720   4.083
62702SOL     OW90002  10.331   3.967   9.283
62702SOL    HW190003  10.290   3.933   9.204
62702SOL    HW290004  10.277   3.934   9.355
62703SOL     OW90005   5.430   7.510   4.577
62703SOL    HW190006   5.511   7.496   4.626
62703SOL    HW290007   5.379   7.430   4.594
62704SOL     OW90008  13.143   9.446   7.397
62704SOL    HW190009  13.062   9.449   7.447
62704SOL    HW290010  13.203   9.504   7.445
62705SOL     OW90011   3.600  11.588  13.921
62705SOL    HW190012   3.582  11.503  13.962
62705SOL    HW290013   3.639  11.641  13.991
62706SOL     OW90014   7.116   8.818   8.104
62706SOL    HW190015   7.054   8.887   8.128
62706SOL    HW290016   7.082   8.739   8.147
62707SOL     OW90017  13.526  10.045   0.397
62707SOL    HW190018  13.514  10.115   0.333
62707SOL    HW290019  13.501  10.085   0.480
62708SOL     OW90020   6.794   4.607   5.550
62708SOL    HW190021   6.827   4.662   5.621
62708SOL    HW290022   6.852   4.625   5.476
62709SOL     OW90023   1.615  13.198  13.965
62709SOL    HW190024   1.675  13.227  13.896
62709SOL    HW290025   1.543  13.260  13.961
62710SOL     OW90026   1.487   1.537   4.554
62710SOL    HW190027   1.504   1.610   4.614
62710SOL    HW290028   1.432   1.575   4.486
62711SOL     OW90029   4.187   3.862   6.511
62711SOL    HW190030   4.239   3.817   6.578
62711SOL    HW290031   4.216   3.823   6.428
62712SOL     OW90032   3.000  13.256   0.634
62712SOL    HW190033   3.064  13.199   0.591
62712SOL    HW290034   3.045  13.290   0.711
62713SOL     OW90035   8.846  14.011  12.519
62713SOL    HW190036   8.922  14.063  12.545
62713SOL    HW290037   8.776  14.075  12.506
62714SOL     OW90038   0.198   4.205   0.628
62714SOL    HW190039   0.292   4.219   0.639
62714SOL    HW290040   0.190   4.150   0.550
62715SOL     OW90041   9.326   7.835   7.417
62715SOL    HW190042   9.283   7.876   7.492
62715SOL    HW290043   9.372   7.907   7.374
62716SOL     OW90044   6.306   7.043  13.212
62716SOL    HW190045   6.304   7.008  13.301
62716SOL    HW290046   6.239   6.994  13.165
62717SOL     OW90047   6.836   4.685   3.747
62717SOL    HW190048   6.768   4.734   3.701
62717SOL    HW290049   6.866   4.744   3.816
62718SOL     OW90050   7.517   0.828   3.260
62718SOL    HW190051   7.612   0.814   3.260
62718SOL    HW290052   7.491   0.819   3.352
62719SOL     OW90053   9.834   8.000   2.684
62719SOL    HW190054   9.911   7.944   2.687
62719SOL    HW290055   9.866   8.084   2.652
62720SOL     OW90056   6.065   6.180   9.141
62720SOL    HW190057   5.996   6.113   9.139
62720SOL    HW290058   6.147   6.130   9.142
62721SOL     OW90059   2.171   4.063   3.969
62721SOL    HW190060   2.199   4.127   4.035
62721SOL    HW290061   2.123   4.115   3.904
62722SOL     OW90062   8.031   5.671   4.461
62722SOL    HW190063   7.986   5.725   4.526
62722SOL    HW290064   7.974   5.596   4.447
62723SOL     OW90065   3.310  10.769   0.954
62723SOL    HW190066   3.224  10.808   0.973
62723SOL    HW290067   3.371  10.842   0.955
62724SOL     OW90068   0.117  14.494  13.295
62724SOL    HW190069   0.185  14.450  13.346
62724SOL    HW290070   0.144  14.586  13.294
62725SOL     OW90071   0.156   7.090  13.608
62725SOL    HW190072   0.222   7.118  13.545
62725SOL    HW290073   0.205   7.049  13.679
62726SOL     OW90074   0.202   5.528   8.567
62726SOL    HW190075   0.245   5.444   8.553
62726SOL    HW290076   0.210   5.573   8.483
62727SOL     OW90077   6.891   6.197   5.852
62727SOL    HW190078   6.844   6.137   5.910
62727SOL    HW290079   6.843   6.193   5.770
62728SOL     OW90080   6.398  14.211  10.359
62728SOL    HW190081   6.444  14.198  10.442
62728SOL    HW290082   6.306  14.218  10.384
62729SOL     OW90083  12.301   1.913   9.066
62729SOL    HW190084  12.296   1.831   9.116
62729SOL    HW290085  12.224   1.910   9.008
62730SOL     OW90086   9.793  14.430   8.890
62730SOL    HW190087   9.719  14.451   8.833
62730SOL    HW290088   9.783  14.489   8.965
62731SOL     OW90089  11.893   3.665   1.275
62731SOL    HW190090  11.839   3.587   1.261
62731SOL    HW290091  11.831   3.737   1.276
62732SOL     OW90092   0.752  11.930   1.855
62732SOL    HW190093   0.738  11.929   1.760
62732SOL    HW290094   0.667  11.956   1.891
62733SOL     OW90095  10.723   4.649  10.740
62733SOL    HW190096  10.680   4.586  10.798
62733SOL    HW290097  10.806   4.669  10.784
62734SOL     OW90098   5.972  14.358   5.566
62734SOL    HW190099   6.051  14.306   5.580
62734SOL    HW290100   5.933  14.321   5.487
62735SOL     OW90101  11.421  14.646   4.000
62735SOL    HW190102  11.498  14.702   4.002
62735SOL    HW290103  11.454  14.558   4.019
62736SOL     OW90104   3.925   5.059   3.417
62736SOL    HW190105   3.914   5.043   3.324
62736SOL    HW290106   3.857   5.006   3.459
62737SOL     OW90107  14.331   5.932   3.714
62737SOL    HW190108  14.305   5.841   3.703
62737SOL    HW290109  14.255   5.982   3.682
62738SOL     OW90110   5.981   1.957  12.500
62738SOL    HW190111   6.049   1.893  12.520
62738SOL    HW290112   5.943   1.928  12.418
62739SOL     OW90113   3.828   6.688   2.655
62739SOL    HW190114   3.788   6.643   2.730
62739SOL    HW290115   3.898   6.630   2.626
62740SOL     OW90116   0.867   2.841  13.714
62740SOL    HW190117   0.850   2.776  13.645
62740SOL    HW290118   0.792   2.900  13.711
62741SOL     OW90119  11.839   9.474   9.963
62741SOL    HW190120  11.886   9.534   9.906
62741SOL    HW290121  11.900   9.403   9.980
62742SOL     OW90122  14.042   9.450   1.152
62742SOL    HW190123  13.995   9.532   1.136
62742SOL    HW290124  13.977   9.382   1.136
62743SOL     OW90125   9.281   6.866  14.129
62743SOL    HW190126   9.240   6.821  14.203
62743SOL    HW290127   9.374   6.841  14.134
62744SOL     OW90128   9.697   9.790  10.313
62744SOL    HW190129   9.614   9.791  10.265
62744SOL    HW290130   9.760   9.827  10.251
62745SOL     OW90131  10.178   2.377   3.101
62745SOL    HW190132  10.207   2.285   3.098
62745SOL    HW290133  10.256   2.427   3.079
62746SOL     OW90134  12.610  11.269   0.887
62746SOL    HW190135  12.570  11.349   0.919
62746SOL    HW290136  12.547  11.200   0.907
62747SOL     OW90137   3.024   0.817   0.892
62747SOL    HW190138   2.947   0.867   0.866
62747SOL    HW290139   3.097   0.879   0.887
62748SOL     OW90140   4.326  14.051   3.981
62748SOL    HW190141   4.270  14.096   4.045
62748SOL    HW290142   4.311  13.958   3.998
62749SOL     OW90143  12.887   5.828   5.424
62749SOL    HW190144  12.942   5.800   5.497
62749SOL    HW290145  12.799   5.797   5.446
62750SOL     OW90146   7.471   1.619   7.766
62750SOL    HW190147   7.382   1.616   7.801
62750SOL    HW290148   7.527   1.603   7.842
62751SOL     OW90149   3.045   4.203   5.606
62751SOL    HW190150   3.028   4.295   5.588
62751SOL    HW290151   2.958   4.166   5.626
62752SOL     OW90152   2.129  12.953  12.975
62752SOL    HW190153   2.158  13.011  13.045
62752SOL    HW290154   2.204  12.948  12.916
62753SOL     OW90155   8.969  11.074   5.846
62753SOL    HW190156   8.948  11.164   5.822
62753SOL    HW290157   8.908  11.020   5.795
62754SOL     OW90158   2.849  14.047   7.372
62754SOL    HW190159   2.790  13.977   7.400
62754SOL    HW290160   2.795  14.126   7.371
62755SOL     OW90161   2.200   5.213   5.466
62755SOL    HW190162   2.183   5.123   5.437
62755SOL    HW290163   2.289   5.210   5.502
62756SOL     OW90164   3.457  11.861  13.930
62756SOL    HW190165   3.501  11.777  13.945
62756SOL    HW290166   3.455  11.902  14.017
62757SOL     OW90167  13.570   6.211   0.974
62757SOL    HW190168  13.519   6.217   1.054
62757SOL    HW290169  13.656   6.244   0.998
62758SOL     OW90170   3.153   0.346   3.717
62758SOL    HW190171   3.107   0.423   3.682
62758SOL    HW290172   3.230   0.382   3.761
62759SOL     OW90173  11.997   2.034   4.791
62759SOL    HW190174  11.965   1.997   4.874
62759SOL    HW290175  11.948   2.116   4.781
62760SOL     OW90176  10.270   6.833   8.334
62760SOL    HW190177  10.193   6.789   8.370
62760SOL    HW290178  10.235   6.901   8.277
62761SOL     OW90179   7.318   1.736   5.312
62761SOL    HW190180   7.235   1.696   5.338
62761SOL    HW290181   7.384   1.691   5.366
62762SOL     OW90182  13.066  13.093   8.470
62762SOL    HW190183  13.008  13.059   8.539
62762SOL    HW290184  13.096  13.015   8.424
62763SOL     OW90185   9.461   6.023   6.197
62763SOL    HW190186   9.523   6.051   6.264
62763SOL    HW290187   9.510   6.026   6.115
62764SOL     OW90188  13.377   5.981   8.032
62764SOL    HW190189  13.443   5.986   7.963
62764SOL    HW290190  13.337   6.068   8.032
62765SOL     OW90191   7.677  12.108   8.414
62765SOL    HW190192   7.697  12.180   8.473
62765SOL    HW290193   7.760  12.087   8.371
62766SOL     OW90194   1.883  12.220  12.030
62766SOL    HW190195   1.844  12.134  12.017
62766SOL    HW290196   1.977  12.203  12.035
62767SOL     OW90197   5.575   3.519  10.011
62767SOL    HW190198   5.481   3.532  10.000
62767SOL    HW290199   5.615   3.567   9.939
62768SOL     OW90200   8.684   6.524   8.824
62768SOL    HW190201   8.679   6.484   8.911
62768SOL    HW290202   8.645   6.459   8.765
62769SOL     OW90203   5.500  13.827   7.138
62769SOL    HW190204   5.479  13.911   7.179
62769SOL    HW290205   5.585  13.841   7.097
62770SOL     OW90206   4.652   6.989   1.270
62770SOL    HW190207   4.703   6.950   1.341
62770SOL    HW290208   4.561   6.967   1.290
62771SOL     OW90209   0.955   2.368   6.403
62771SOL    HW190210   0.913   2.436   6.456
62771SOL    HW290211   0.899   2.292   6.414
62772SOL     OW90212   6.110   1.594  11.594
62772SOL    HW190213   6.043   1.626  11.653
62772SOL    HW290214   6.064   1.533  11.535
62773SOL     OW90215   2.380   2.724  14.586
62773SOL    HW190216   2.314   2.784  14.620
62773SOL    HW290217   2.360   2.715  14.493
62774SOL     OW90218  12.111   8.379  13.247
62774SOL    HW190219  12.148   8.312  13.189
62774SOL    HW290220  12.188   8.424  13.284
62775SOL     OW90221  11.131   0.137  11.273
62775SOL    HW190222  11.053   0.147  11.327
62775SOL    HW290223  11.197   0.098  11.331
62776SOL     OW90224  12.142  10.455   6.035
62776SOL    HW190225  12.182  10.508   6.103
62776SOL    HW290226  12.166  10.365   6.057
62777SOL     OW90227   1.132   0.206  14.032
62777SOL    HW190228   1.188   0.134  14.001
62777SOL    HW290229   1.180   0.285  14.005
62778SOL     OW90230   4.861   6.295   5.960
62778SOL    HW190231   4.823   6.326   6.042
62778SOL    HW290232   4.909   6.371   5.926
62779SOL     OW90233   7.214  12.431   2.155
62779SOL    HW190234   7.131  12.387   2.176
62779SOL    HW290235   7.246  12.463   2.240
62780SOL     OW90236   7.306   4.189   1.308
62780SOL    HW190237   7.321   4.141   1.226
62780SOL    HW290238   7.216   4.220   1.301
62781SOL     OW90239   9.046   0.751   4.351
62781SOL    HW190240   9.139   0.728   4.340
62781SOL    HW290241   9.048   0.840   4.387
62782SOL     OW90242  10.286   7.147  11.522
62782SOL    HW190243  10.276   7.182  11.434
62782SOL    HW290244  10.233   7.204  11.577
62783SOL     OW90245   5.337  12.645  13.757
62783SOL    HW190246   5.350  12.559  13.798
62783SOL    HW290247   5.285  12.694  13.820
62784SOL     OW90248   5.528   5.251   8.575
62784SOL    HW190249   5.526   5.255   8.479
62784SOL    HW290250   5.446   5.207   8.598
62785SOL     OW90251  14.505   8.906   6.950
62785SOL    HW190252  14.593   8.937   6.932
62785SOL    HW290253  14.518   8.823   6.996
62786SOL     OW90254   4.138   2.038   2.040
62786SOL    HW190255   4.223   2.033   1.996
62786SOL    HW290256   4.105   2.125   2.019
62787SOL     OW90257   4.199   8.757   8.498
62787SOL    HW190258   4.266   8.780   8.563
62787SOL    HW290259   4.230   8.797   8.417
62788SOL     OW90260   6.092   9.352   6.706
62788SOL    HW190261   6.000   9.378   6.714
62788SOL    HW290262   6.133   9.423   6.656
62789SOL     OW90263  13.620  12.190   9.558
62789SOL    HW190264  13.540  12.226   9.518
62789SOL    HW290265  13.672  12.160   9.484
62790SOL     OW90266   0.357   1.660   9.904
62790SOL    HW190267   0.319   1.577   9.933
62790SOL    HW290268   0.340   1.662   9.810
62791SOL     OW90269  11.322  12.363  12.168
62791SOL    HW190270  11.240  12.380  12.121
62791SOL    HW290271  11.316  12.272  12.195
62792SOL     OW90272  13.946   0.843  10.097
62792SOL    HW190273  14.029   0.806  10.066
62792SOL    HW290274  13.890   0.767  10.113
62793SOL     OW90275  13.412   7.330  12.556
62793SOL    HW190276  13.464   7.400  12.596
62793SOL    HW290277  13.438   7.331  12.464
62794SOL     OW90278   9.671   3.790  13.083
62794SOL    HW190279   9.721   3.734  13.024
62794SOL    HW290280   9.732   3.813  13.153
62795SOL     OW90281  14.066  12.885   7.743
62795SOL    HW190282  14.058  12.900   7.649
62795SOL    HW290283  14.151  12.921   7.766
62796SOL     OW90284   4.986   8.239  10.017
62796SOL    HW190285   4.963   8.288   9.938
62796SOL    HW290286   4.961   8.148   9.997
62797SOL     OW90287  10.109   0.626  13.208
62797SOL    HW190288  10.165   0.685  13.259
62797SOL    HW290289  10.020   0.658  13.225
62798SOL     OW90290   9.453  13.173  14.832
62798SOL    HW190291   9.521  13.168   0.017
62798SOL    HW290292   9.378  13.213  14.876
62799SOL     OW90293   6.865   6.884   6.805
62799SOL    HW190294   6.785   6.842   6.775
62799SOL    HW290295   6.927   6.872   6.733
62800SOL     OW90296  10.026   2.290   5.891
62800SOL    HW190297   9.961   2.275   5.823
62800SOL    HW290298  10.091   2.222   5.877
62801SOL     OW90299  13.460   5.659   5.999
62801SOL    HW190300  13.493   5.586   5.946
62801SOL    HW290301  13.519   5.732   5.980
62802SOL     OW90302   4.065  11.820   3.303
62802SOL    HW190303   4.092  11.909   3.279
62802SOL    HW290304   4.105  11.805   3.388
62803SOL     OW90305   6.436   0.777   3.203
62803SOL    HW190306   6.517   0.785   3.255
62803SOL    HW290307   6.388   0.705   3.245
62804SOL     OW90308  11.127   7.997  13.735
62804SOL    HW190309  11.049   7.941  13.724
62804SOL    HW290310  11.141   8.036  13.649
62805SOL     OW90311  13.421  12.844  14.438
62805SOL    HW190312  13.435  12.759  14.480
62805SOL    HW290313  13.452  12.908  14.501
62806SOL     OW90314   0.047   9.452  11.496
62806SOL    HW190315   0.125   9.400  11.475
62806SOL    HW290316   0.071   9.542  11.472
62807SOL     OW90317   8.854   4.600   9.758
62807SOL    HW190318   8.887   4.680   9.801
62807SOL    HW290319   8.856   4.534   9.827
62808SOL     OW90320   9.828   7.382   6.277
62808SOL    HW190321   9.871   7.311   6.324
62808SOL    HW290322   9.747   7.344   6.244
62809SOL     OW90323  13.345   1.801   6.504
62809SOL    HW190324  13.396   1.768   6.430
62809SOL    HW290325  13.306   1.882   6.472
62810SOL     OW90326   8.562  13.678   6.204
62810SOL    HW190327   8.629  13.744   6.222
62810SOL    HW290328   8.588  13.604   6.260
62811SOL     OW90329  13.964  14.671   3.014
62811SOL    HW190330  13.883  14.681   3.065
62811SOL    HW290331  13.933  14.643   2.927
62812SOL     OW90332  12.525   3.943   6.709
62812SOL    HW190333  12.599   3.911   6.761
62812SOL    HW290334  12.502   3.870   6.652
62813SOL     OW90335  11.917  14.474  14.142
62813SOL    HW190336  11.970  14.489  14.065
62813SOL    HW290337  11.975  14.493  14.216
62814SOL     OW90338   8.956  12.450   9.904
62814SOL    HW190339   9.024  12.437   9.838
62814SOL    HW290340   9.002  12.439   9.987
62815SOL     OW90341  10.266   6.121   7.740
62815SOL    HW190342  10.273   6.134   7.834
62815SOL    HW290343  10.258   6.209   7.704
62816SOL     OW90344   0.467   9.596   5.760
62816SOL    HW190345   0.547   9.583   5.810
62816SOL    HW290346   0.415   9.518   5.777
62817SOL     OW90347   5.189  14.193   7.890
62817SOL    HW190348   5.268  14.159   7.932
62817SOL    HW290349   5.194  14.160   7.800
62818SOL     OW90350   9.212   6.226   0.443
62818SOL    HW190351   9.278   6.162   0.417
62818SOL    HW290352   9.261   6.307   0.458
62819SOL     OW90353   6.829   3.854  13.129
62819SOL    HW190354   6.848   3.801  13.207
62819SOL    HW290355   6.734   3.849  13.120
62820SOL     OW90356   8.750  12.497   5.077
62820SOL    HW190357   8.705  12.514   5.160
62820SOL    HW290358   8.800  12.417   5.094
62821SOL     OW90359   2.468   6.695   0.308
62821SOL    HW190360   2.518   6.752   0.249
62821SOL    HW290361   2.406   6.650   0.250
62822SOL     OW90362  10.605   4.014  12.317
62822SOL    HW190363  10.678   4.030  12.376
62822SOL    HW290364  10.646   4.000  12.231
62823SOL     OW90365   5.467   6.199   1.443
62823SOL    HW190366   5.559   6.224   1.450
62823SOL    HW290367   5.445   6.213   1.351
62824SOL     OW90368  12.344   4.366  13.828
62824SOL    HW190369  12.389   4.356  13.911
62824SOL    HW290370  12.271   4.426  13.847
62825SOL     OW90371   9.685  10.390   7.236
62825SOL    HW190372   9.633  10.388   7.316
62825SOL    HW290373   9.681  10.480   7.206
62826SOL     OW90374  13.777   3.139  12.309
62826SOL    HW190375  13.692   3.129  12.353
62826SOL    HW290376  13.807   3.049  12.296
62827SOL     OW90377  13.187   0.481   3.531
62827SOL    HW190378  13.092   0.478   3.530
62827SOL    HW290379  13.212   0.425   3.605
62828SOL     OW90380   0.132  12.001   0.475
62828SOL    HW190381   0.128  12.088   0.437
62828SOL    HW290382   0.225  11.978   0.474
62829SOL     OW90383   1.564  14.192   3.746
62829SOL    HW190384   1.514  14.259   3.699
62829SOL    HW290385   1.543  14.207   3.838
62830SOL     OW90386  13.996   7.047  10.026
62830SOL    HW190387  14.012   6.969  10.079
62830SOL    HW290388  14.076   7.056   9.973
62831SOL     OW90389  13.926   5.593   7.551
62831SOL    HW190390  13.951   5.667   7.606
62831SOL    HW290391  14.006   5.572   7.501
62832SOL     OW90392   4.920   9.868  11.701
62832SOL    HW190393   4.956   9.919  11.773
62832SOL    HW290394   4.904   9.931  11.631
62833SOL     OW90395  14.693   9.102   7.111
62833SOL    HW190396  14.729   9.036   7.051
62833SOL    HW290397  14.767   9.125   7.169
62834SOL     OW90398   8.276   1.764  12.589
62834SOL    HW190399   8.261   1.726  12.676
62834SOL    HW290400   8.239   1.852  12.594
62835SOL     OW90401   7.566   0.550   3.521
62835SOL    HW190402   7.653   0.580   3.545
62835SOL    HW290403   7.516   0.554   3.603
62836SOL     OW90404  10.723   3.861   8.573
62836SOL    HW190405  10.642   3.841   8.620
62836SOL    HW290406  10.700   3.937   8.518
62837SOL     OW90407   6.375   8.791   8.434
62837SOL    HW190408   6.380   8.709   8.384
62837SOL    HW290409   6.302   8.839   8.395
62838SOL     OW90410   9.314  12.844   2.146
62838SOL    HW190411   9.268  12.776   2.098
62838SOL    HW290412   9.406  12.834   2.120
62839SOL     OW90413  11.733  13.904   8.544
62839SOL    HW190414  11.639  13.908   8.522
62839SOL    HW290415  11.745  13.816   8.578
62840SOL     OW90416   0.442   6.793  11.442
62840SOL    HW190417   0.414   6.872  11.395
62840SOL    HW290418   0.361   6.757  11.479
62841SOL     OW90419   4.719   4.653  12.486
62841SOL    HW190420   4.695   4.628  12.397
62841SOL    HW290421   4.788   4.591  12.510
62842SOL     OW90422  11.800  13.989   2.718
62842SOL    HW190423  11.753  14.073   2.710
62842SOL    HW290424  11.822  13.983   2.811
62843SOL     OW90425   6.380   0.252   0.066
62843SOL    HW190426   6.289   0.238   0.042
62843SOL    HW290427   6.428   0.241  14.866
62844SOL     OW90428   9.698   5.011  10.468
62844SOL    HW190429   9.782   5.048  10.497
62844SOL    HW290430   9.634   5.048  10.529
62845SOL     OW90431  13.759  10.581   0.245
62845SOL    HW190432  13.771  10.518   0.174
62845SOL    HW290433  13.842  10.578   0.293
62846SOL     OW90434   7.421  14.608  12.374
62846SOL    HW190435   7.427  14.571  12.462
62846SOL    HW290436   7.450  14.537  12.316
62847SOL     OW90437   3.143   2.874   0.045
62847SOL    HW190438   3.101   2.947   0.090
62847SOL    HW290439   3.149   2.902  14.836
62848SOL     OW90440   8.473  14.512  11.811
62848SOL    HW190441   8.447  14.522  11.719
62848SOL    HW290442   8.399  14.547  11.860
62849SOL     OW90443   3.073   3.744   8.026
62849SOL    HW190444   2.981   3.718   8.029
62849SOL    HW290445   3.112   3.684   7.962
62850SOL     OW90446   0.418   7.427   0.270
62850SOL    HW190447   0.435   7.333   0.276
62850SOL    HW290448   0.322   7.433   0.267
62851SOL     OW90449  13.290   8.445   0.101
62851SOL    HW190450  13.230   8.496   0.048
62851SOL    HW290451  13.372   8.443   0.051
62852SOL     OW90452   0.364   7.941   0.356
62852SOL    HW190453   0.440   7.929   0.299
62852SOL    HW290454   0.366   8.034   0.380
62853SOL     OW90455   5.188   7.173   1.642
62853SOL    HW190456   5.093   7.176   1.631
62853SOL    HW290457   5.217   7.104   1.584
62854SOL     OW90458   7.990   0.726   4.085
62854SOL    HW190459   7.914   0.720   4.144
62854SOL    HW290460   8.056   0.774   4.135
62855SOL     OW90461  14.239   6.091   2.568
62855SOL    HW190462  14.249   6.096   2.664
62855SOL    HW290463  14.238   6.183   2.540
62856SOL     OW90464   4.482   9.034   0.881
62856SOL    HW190465   4.419   8.962   0.883
62856SOL    HW290466   4.445   9.096   0.818
62857SOL     OW90467   5.477  14.575   7.661
62857SOL    HW190468   5.472  14.606   7.752
62857SOL    HW290469   5.386  14.570   7.632
62858SOL     OW90470   2.809   9.010   4.742
62858SOL    HW190471   2.839   9.056   4.664
62858SOL    HW290472   2.822   8.917   4.721
62859SOL     OW90473  14.851   0.292  12.587
62859SOL    HW190474  14.866   0.230  12.516
62859SOL    HW290475   0.022   0.260  12.660
62860SOL     OW90476   7.357   2.858   3.612
62860SOL    HW190477   7.432   2.899   3.568
62860SOL    HW290478   7.396   2.792   3.670
62861SOL     OW90479   4.126   9.895  11.496
62861SOL    HW190480   4.042   9.940  11.508
62861SOL    HW290481   4.104   9.802  11.503
62862SOL     OW90482   1.079   4.024   1.697
62862SOL    HW190483   1.009   4.024   1.632
62862SOL    HW290484   1.107   4.115   1.704
62863SOL     OW90485   7.803   4.824   8.965
62863SOL    HW190486   7.797   4.856   9.055
62863SOL    HW290487   7.712   4.815   8.937
62864SOL     OW90488   1.111  10.788   1.311
62864SOL    HW190489   1.180  10.825   1.366
62864SOL    HW290490   1.145  10.703   1.284
62865SOL     OW90491   1.233   9.908  10.568
62865SOL    HW190492   1.187   9.988  10.544
62865SOL    HW290493   1.222   9.901  10.663
62866SOL     OW90494  14.055   5.139   8.146
62866SOL    HW190495  14.081   5.103   8.062
62866SOL    HW290496  14.016   5.065   8.194
62867SOL     OW90497  13.936  11.781   2.682
62867SOL    HW190498  14.023  11.755   2.711
62867SOL    HW290499  13.934  11.876   2.696
62868SOL     OW90500   7.674   2.078   3.455
62868SOL    HW190501   7.726   2.117   3.525
62868SOL    HW290502   7.610   2.145   3.432
62869SOL     OW90503   1.250  10.859   4.272
62869SOL    HW190504   1.284  10.817   4.194
62869SOL    HW290505   1.158  10.879   4.251
62870SOL     OW90506   3.857  12.918   1.200
62870SOL    HW190507   3.794  12.941   1.132
62870SOL    HW290508   3.942  12.936   1.160
62871SOL     OW90509   4.706  11.989   9.605
62871SOL    HW190510   4.690  12.050   9.533
62871SOL    HW290511   4.705  11.903   9.563
62872SOL     OW90512   2.469  12.313   1.703
62872SOL    HW190513   2.540  12.249   1.713
62872SOL    HW290514   2.489  12.380   1.769
62873SOL     OW90515   9.178  11.590  12.664
62873SOL    HW190516   9.099  11.644  12.665
62873SOL    HW290517   9.183  11.557  12.574
62874SOL     OW90518  10.510   7.392   5.220
62874SOL    HW190519  10.470   7.309   5.196
62874SOL    HW290520  10.582   7.368   5.279
62875SOL     OW90521  12.180   7.678   0.798
62875SOL    HW190522  12.162   7.584   0.807
62875SOL    HW290523  12.236   7.699   0.874
62876SOL     OW90524   8.589  13.011   9.280
62876SOL    HW190525   8.649  12.986   9.210
62876SOL    HW290526   8.505  12.971   9.256
62877SOL     OW90527  14.253   9.200   4.451
62877SOL    HW190528  14.160   9.204   4.473
62877SOL    HW290529  14.264   9.267   4.384
62878SOL     OW90530   3.107  13.622   8.634
62878SOL    HW190531   3.154  13.587   8.710
62878SOL    HW290532   3.035  13.561   8.620
62879SOL     OW90533  13.135  14.040  12.490
62879SOL    HW190534  13.051  14.086  12.487
62879SOL    HW290535  13.198  14.104  12.455
62880SOL     OW90536   3.948  11.390   6.425
62880SOL    HW190537   3.905  11.314   6.386
62880SOL    HW290538   4.002  11.354   6.495
62881SOL     OW90539  14.085  12.690  10.964
62881SOL    HW190540  14.083  12.594  10.964
62881SOL    HW290541  14.069  12.714  10.872
62882SOL     OW90542   7.611   1.595  10.157
62882SOL    HW190543   7.657   1.592  10.241
62882SOL    HW290544   7.633   1.511  10.115
62883SOL     OW90545   2.526  14.491   5.510
62883SOL    HW190546   2.444  14.454   5.478
62883SOL    HW290547   2.549  14.558   5.445
62884SOL     OW90548   7.594  14.650  14.341
62884SOL    HW190549   7.623  14.568  14.301
62884SOL    HW290550   7.538  14.690  14.275
62885SOL     OW90551  10.599   5.049   5.097
62885SOL    HW190552  10.561   5.132   5.127
62885SOL    HW290553  10.600   5.057   5.001
62886SOL     OW90554   1.716   4.372  13.477
62886SOL    HW190555   1.712   4.277  13.483
62886SOL    HW290556   1.628   4.402  13.498
62887SOL     OW90557  10.232  11.968   6.508
62887SOL    HW190558  10.291  11.976   6.432
62887SOL    HW290559  10.145  11.968   6.469
62888SOL     OW90560  10.498   2.817  14.249
62888SOL    HW190561  10.408   2.847  14.266
62888SOL    HW290562  10.513   2.750  14.316
62889SOL     OW90563   8.540   6.610   9.355
62889SOL    HW190564   8.635   6.618   9.346
62889SOL    HW290565   8.517   6.531   9.305
62890SOL     OW90566   6.319   1.534  12.540
62890SOL    HW190567   6.412   1.548  12.521
62890SOL    HW290568   6.304   1.441  12.520
62891SOL     OW90569   1.182   8.783   3.316
62891SOL    HW190570   1.241   8.712   3.292
62891SOL    HW290571   1.095   8.750   3.295
62892SOL     OW90572  12.770   8.678   2.030
62892SOL    HW190573  12.761   8.671   1.935
62892SOL    HW290574  12.809   8.594   2.056
62893SOL     OW90575   8.121   8.867   2.575
62893SOL    HW190576   8.076   8.851   2.492
62893SOL    HW290577   8.110   8.785   2.624
62894SOL     OW90578  11.744  11.830  14.543
62894SOL    HW190579  11.768  11.801  14.455
62894SOL    HW290580  11.653  11.858  14.535
62895SOL     OW90581   0.130   4.104   6.652
62895SOL    HW190582   0.174   4.162   6.590
62895SOL    HW290583   0.199   4.072   6.710
62896SOL     OW90584   8.180   6.655  13.089
62896SOL    HW190585   8.259   6.694  13.127
62896SOL    HW290586   8.158   6.713  13.016
62897SOL     OW90587   4.442   6.493  13.000
62897SOL    HW190588   4.397   6.444  12.931
62897SOL    HW290589   4.487   6.564  12.954
62898SOL     OW90590  10.630   6.077   9.525
62898SOL    HW190591  10.595   5.988   9.531
62898SOL    HW290592  10.706   6.070   9.467
62899SOL     OW90593  11.230   9.636   2.021
62899SOL    HW190594  11.250   9.686   2.100
62899SOL    HW290595  11.261   9.548   2.039
62900SOL     OW90596   1.094   8.939   1.344
62900SOL    HW190597   1.093   9.032   1.325
62900SOL    HW290598   1.061   8.932   1.433
62901SOL     OW90599   2.698   0.868   7.541
62901SOL    HW190600   2.752   0.805   7.590
62901SOL    HW290601   2.641   0.907   7.607
62902SOL     OW90602   9.753   0.406  11.500
62902SOL    HW190603   9.747   0.480  11.560
62902SOL    HW290604   9.763   0.445  11.413
62903SOL     OW90605  13.433   2.550   8.215
62903SOL    HW190606  13.390   2.516   8.136
62903SOL    HW290607  13.406   2.491   8.285
62904SOL     OW90608  11.999   2.576   9.743
62904SOL    HW190609  11.957   2.574   9.829
62904SOL    HW290610  12.012   2.484   9.721
62905SOL     OW90611   9.003   8.199  14.002
62905SOL    HW190612   9.024   8.125  14.059
62905SOL    HW290613   8.922   8.173  13.958
62906SOL     OW90614   1.621   9.644   3.406
62906SOL    HW190615   1.685   9.663   3.337
62906SOL    HW290616   1.543   9.614   3.359
62907SOL     OW90617  12.116  14.469   5.167
62907SOL    HW190618  12.143  14.459   5.076
62907SOL    HW290619  12.197  14.461   5.217
62908SOL     OW90620   8.388   9.471   0.512
62908SOL    HW190621   8.374   9.381   0.540
62908SOL    HW290622   8.405   9.519   0.593
62909SOL     OW90623  14.270   8.142   2.444
62909SOL    HW190624  14.308   8.060   2.413
62909SOL    HW290625  14.266   8.133   2.539
62910SOL     OW90626   8.052   8.522   4.973
62910SOL    HW190627   8.108   8.585   4.926
62910SOL    HW290628   7.965   8.562   4.971
62911SOL     OW90629   7.637   4.183   6.379
62911SOL    HW190630   7.638   4.175   6.284
62911SOL    HW290631   7.694   4.113   6.410
62912SOL     OW90632  11.352   5.439   7.569
62912SOL    HW190633  11.371   5.500   7.497
62912SOL    HW290634  11.437   5.422   7.608
62913SOL     OW90635   8.131   8.005   2.969
62913SOL    HW190636   8.211   8.014   2.917
62913SOL    HW290637   8.111   8.094   2.998
62914SOL     OW90638  12.997  11.963   9.046
62914SOL    HW190639  13.009  11.935   8.955
62914SOL    HW290640  13.013  11.884   9.098
62915SOL     OW90641  10.042  11.384  12.978
62915SOL    HW190642   9.963  11.436  12.966
62915SOL    HW290643  10.108  11.427  12.923
62916SOL     OW90644  10.272   8.029  14.385
62916SOL    HW190645  10.258   8.122  14.372
62916SOL    HW290646  10.198   8.000  14.437
62917SOL     OW90647   6.954  12.631   7.995
62917SOL    HW190648   6.973  12.557   8.053
62917SOL    HW290649   6.885  12.680   8.040
62918SOL     OW90650   4.474  11.542  13.882
62918SOL    HW190651   4.399  11.595  13.908
62918SOL    HW290652   4.550  11.597  13.901
62919SOL     OW90653   1.520  10.841   0.485
62919SOL    HW190654   1.443  10.784   0.487
62919SOL    HW290655   1.525  10.871   0.394
62920SOL     OW90656   6.141  12.981   2.629
62920SOL    HW190657   6.142  13.010   2.720
62920SOL    HW290658   6.233  12.984   2.602
62921SOL     OW90659   1.063   4.856   2.211
62921SOL    HW190660   1.067   4.930   2.272
62921SOL    HW290661   1.127   4.793   2.245
62922SOL     OW90662  12.736   4.241   1.317
62922SOL    HW190663  12.710   4.190   1.394
62922SOL    HW290664  12.814   4.196   1.284
62923SOL     OW90665   0.851   5.457   6.994
62923SOL    HW190666   0.758   5.439   7.008
62923SOL    HW290667   0.865   5.542   7.036
62924SOL     OW90668  14.652  14.025   0.757
62924SOL    HW190669  14.583  13.961   0.775
62924SOL    HW290670  14.612  14.086   0.695
62925SOL     OW90671   2.201  13.718  12.648
62925SOL    HW190672   2.150  13.709  12.568
62925SOL    HW290673   2.137  13.705  12.718
62926SOL     OW90674  13.917  14.687   5.552
62926SOL    HW190675  13.889  14.612   5.604
62926SOL    HW290676  13.931  14.652   5.464
62927SOL     OW90677   1.786   7.471  12.764
62927SOL    HW190678   1.870   7.474  12.810
62927SOL    HW290679   1.721   7.463  12.834
62928SOL     OW90680  11.119  11.240   4.279
62928SOL    HW190681  11.170  11.302   4.225
62928SOL    HW290682  11.162  11.241   4.364
62929SOL     OW90683   3.076  11.985   8.035
62929SOL    HW190684   3.019  11.909   8.027
62929SOL    HW290685   3.157  11.950   8.073
62930SOL     OW90686   9.858   0.280  13.357
62930SOL    HW190687   9.853   0.201  13.410
62930SOL    HW290688   9.923   0.259  13.290
62931SOL     OW90689   5.009   3.141  13.058
62931SOL    HW190690   4.987   3.053  13.088
62931SOL    HW290691   4.957   3.152  12.978
62932SOL     OW90692   2.190   9.936   8.835
62932SOL    HW190693   2.168   9.997   8.764
62932SOL    HW290694   2.283   9.954   8.853
62933SOL     OW90695   5.286  12.613   1.800
62933SOL    HW190696   5.340  12.679   1.757
62933SOL    HW290697   5.342  12.576   1.868
62934SOL     OW90698   0.934   8.802   2.805
62934SOL    HW190699   0.944   8.824   2.897
62934SOL    HW290700   0.880   8.873   2.769
62935SOL     OW90701  11.408   4.693   7.491
62935SOL    HW190702  11.332   4.669   7.438
62935SOL    HW290703  11.477   4.633   7.464
62936SOL     OW90704  12.618   3.163   5.162
62936SOL    HW190705  12.652   3.247   5.132
62936SOL    HW290706  12.526   3.180   5.184
62937SOL     OW90707  11.305  13.208   6.459
62937SOL    HW190708  11.275  13.208   6.368
62937SOL    HW290709  11.304  13.116   6.485
62938SOL     OW90710   1.718   0.912   9.129
62938SOL    HW190711   1.638   0.860   9.123
62938SOL    HW290712   1.767   0.890   9.050
62939SOL     OW90713   3.644   0.473  13.480
62939SOL    HW190714   3.562   0.508  13.445
62939SOL    HW290715   3.620   0.387  13.516
62940SOL     OW90716  10.500   0.009   5.531
62940SOL    HW190717  10.552  14.839   5.593
62940SOL    HW290718  10.428  14.834   5.507
62941SOL     OW90719   4.193   1.386   9.326
62941SOL    HW190720   4.256   1.317   9.343
62941SOL    HW290721   4.119   1.341   9.286
62942SOL     OW90722   1.217   7.732   4.846
62942SOL    HW190723   1.268   7.783   4.910
62942SOL    HW290724   1.208   7.646   4.886
62943SOL     OW90725   8.365   3.039   9.320
62943SOL    HW190726   8.291   3.077   9.366
62943SOL    HW290727   8.353   2.944   9.329
62944SOL     OW90728   5.912   5.088  13.718
62944SOL    HW190729   5.974   5.140  13.666
62944SOL    HW290730   5.826   5.120  13.691
62945SOL     OW90731   1.945   5.368   1.998
62945SOL    HW190732   1.935   5.280   1.961
62945SOL    HW290733   2.000   5.414   1.934
62946SOL     OW90734   6.382   2.256   6.895
62946SOL    HW190735   6.334   2.338   6.903
62946SOL    HW290736   6.385   2.221   6.984
62947SOL     OW90737  13.432   2.156   4.548
62947SOL    HW190738  13.501   2.114   4.497
62947SOL    HW290739  13.401   2.228   4.493
62948SOL     OW90740   8.393   2.181   7.909
62948SOL    HW190741   8.347   2.228   7.979
62948SOL    HW290742   8.455   2.124   7.955
62949SOL     OW90743   1.279   8.204   3.925
62949SOL    HW190744   1.198   8.223   3.877
62949SOL    HW290745   1.287   8.276   3.988
62950SOL     OW90746   0.636   8.521  14.179
62950SOL    HW190747   0.670   8.498  14.266
62950SOL    HW290748   0.622   8.616  14.183
62951SOL     OW90749   0.415  13.649   9.432
62951SOL    HW190750   0.428  13.557   9.455
62951SOL    HW290751   0.498  13.675   9.391
62952SOL     OW90752  12.145   6.937   4.626
62952SOL    HW190753  12.106   6.977   4.704
62952SOL    HW290754  12.104   6.851   4.620
62953SOL     OW90755  11.518   8.720   0.794
62953SOL    HW190756  11.552   8.757   0.713
62953SOL    HW290757  11.432   8.761   0.805
62954SOL     OW90758   1.100   5.308   9.702
62954SOL    HW190759   1.036   5.323   9.633
62954SOL    HW290760   1.071   5.364   9.775
62955SOL     OW90761   5.580  10.007   6.472
62955SOL    HW190762   5.500   9.957   6.456
62955SOL    HW290763   5.628   9.956   6.538
62956SOL     OW90764   1.761   7.879   4.555
62956SOL    HW190765   1.847   7.892   4.596
62956SOL    HW290766   1.754   7.950   4.491
62957SOL     OW90767  11.391   9.948  13.468
62957SOL    HW190768  11.466   9.956  13.527
62957SOL    HW290769  11.424   9.898  13.393
62958SOL     OW90770   5.047   3.611   0.558
62958SOL    HW190771   5.135   3.633   0.528
62958SOL    HW290772   5.003   3.577   0.480
62959SOL     OW90773   7.734   5.625   6.153
62959SOL    HW190774   7.829   5.623   6.165
62959SOL    HW290775   7.708   5.533   6.152
62960SOL     OW90776   0.704  14.641   1.792
62960SOL    HW190777   0.769  14.711   1.798
62960SOL    HW290778   0.681  14.621   1.883
62961SOL     OW90779   3.404   3.276   2.070
62961SOL    HW190780   3.367   3.342   2.129
62961SOL    HW290781   3.448   3.327   2.001
62962SOL     OW90782   9.766   5.436   1.046
62962SOL    HW190783   9.748   5.515   0.995
62962SOL    HW290784   9.844   5.398   1.004
62963SOL     OW90785   7.468   5.811   9.142
62963SOL    HW190786   7.453   5.899   9.107
62963SOL    HW290787   7.443   5.752   9.070
62964SOL     OW90788  10.241   9.882  10.134
62964SOL    HW190789  10.210   9.791  10.137
62964SOL    HW290790  10.330   9.876  10.099
62965SOL     OW90791   1.123  13.133   5.829
62965SOL    HW190792   1.083  13.047   5.828
62965SOL    HW290793   1.104  13.170   5.743
62966SOL     OW90794  14.805   3.916   9.873
62966SOL    HW190795  14.864   3.986   9.847
62966SOL    HW290796  14.767   3.883   9.792
62967SOL     OW90797   7.286   1.325   0.660
62967SOL    HW190798   7.332   1.409   0.666
62967SOL    HW290799   7.202   1.347   0.621
62968SOL     OW90800  10.034  13.026   4.612
62968SOL    HW190801  10.031  12.939   4.652
62968SOL    HW290802  10.110  13.024   4.554
62969SOL     OW90803   6.792   5.200   6.666
62969SOL    HW190804   6.816   5.264   6.733
62969SOL    HW290805   6.869   5.194   6.609
62970SOL     OW90806   4.733  11.135   8.553
62970SOL    HW190807   4.800  11.140   8.621
62970SOL    HW290808   4.782  11.122   8.471
62971SOL     OW90809  12.647   2.117   1.281
62971SOL    HW190810  12.571   2.141   1.227
62971SOL    HW290811  12.617   2.041   1.331
62972SOL     OW90812   3.526  10.991   3.505
62972SOL    HW190813   3.524  11.045   3.426
62972SOL    HW290814   3.607  10.941   3.498
62973SOL     OW90815   0.293   3.810   3.706
62973SOL    HW190816   0.330   3.728   3.736
62973SOL    HW290817   0.295   3.804   3.610
62974SOL     OW90818  12.652   7.540   7.589
62974SOL    HW190819  12.675   7.522   7.498
62974SOL    HW290820  12.664   7.634   7.599
62975SOL     OW90821   9.727  11.755  14.175
62975SOL    HW190822   9.730  11.827  14.238
62975SOL    HW290823   9.642  11.765  14.133
62976SOL     OW90824   1.776   1.018  11.762
62976SOL    HW190825   1.846   1.019  11.697
62976SOL    HW290826   1.738   0.931  11.756
62977SOL     OW90827   7.231   1.332   5.438
62977SOL    HW190828   7.241   1.341   5.344
62977SOL    HW290829   7.321   1.330   5.472
62978SOL     OW90830   3.581   5.620  10.261
62978SOL    HW190831   3.490   5.595  10.280
62978SOL    HW290832   3.594   5.702  10.307
62979SOL     OW90833  14.862   6.097  13.294
62979SOL    HW190834  14.771   6.073  13.311
62979SOL    HW290835   0.019   6.019  13.254
62980SOL     OW90836  12.474   9.804  13.909
62980SOL    HW190837  12.435   9.721  13.938
62980SOL    HW290838  12.445   9.813  13.818
62981SOL     OW90839   6.822   9.933   0.350
62981SOL    HW190840   6.899   9.987   0.368
62981SOL    HW290841   6.802   9.890   0.433
62982SOL     OW90842  12.047  13.645   4.719
62982SOL    HW190843  11.994  13.586   4.666
62982SOL    HW290844  12.133  13.603   4.725
62983SOL     OW90845  14.010   9.360   8.778
62983SOL    HW190846  14.027   9.447   8.814
62983SOL    HW290847  14.091   9.312   8.792
62984SOL     OW90848  11.376  14.640  14.629
62984SOL    HW190849  11.404  14.655  14.539
62984SOL    HW290850  11.335  14.722  14.656
62985SOL     OW90851  14.588   9.137   7.703
62985SOL    HW190852  14.610   9.216   7.653
62985SOL    HW290853  14.511   9.162   7.753
62986SOL     OW90854  10.525   8.552   4.689
62986SOL    HW190855  10.479   8.536   4.771
62986SOL    HW290856  10.457   8.561   4.623
62987SOL     OW90857  13.266  10.837  13.752
62987SOL    HW190858  13.220  10.868  13.674
62987SOL    HW290859  13.359  10.841  13.728
62988SOL     OW90860   2.742   0.026   0.968
62988SOL    HW190861   2.731  14.875   0.879
62988SOL    HW290862   2.792   0.107   0.959
62989SOL     OW90863   7.864  12.547  14.124
62989SOL    HW190864   7.808  12.589  14.189
62989SOL    HW290865   7.928  12.614  14.101
62990SOL     OW90866   9.271  10.809   3.990
62990SOL    HW190867   9.290  10.892   4.034
62990SOL    HW290868   9.355  10.782   3.952
62991SOL     OW90869   7.626   8.111  13.719
62991SOL    HW190870   7.585   8.179  13.772
62991SOL    HW290871   7.716   8.143  13.705
62992SOL     OW90872  10.156   4.132  10.679
62992SOL    HW190873  10.203   4.182  10.612
62992SOL    HW290874  10.169   4.040  10.654
62993SOL     OW90875   3.686  10.201  10.871
62993SOL    HW190876   3.756  10.169  10.928
62993SOL    HW290877   3.703  10.160  10.786
62994SOL     OW90878  10.931   8.192   1.710
62994SOL    HW190879  10.869   8.262   1.694
62994SOL    HW290880  11.017   8.232   1.696
62995SOL     OW90881   1.541  14.567  11.815
62995SOL    HW190882   1.586  14.593  11.734
62995SOL    HW290883   1.599  14.595  11.885
62996SOL     OW90884   2.007   1.511  10.426
62996SOL    HW190885   2.051   1.595  10.410
62996SOL    HW290886   2.058   1.470  10.495
62997SOL     OW90887   3.641  14.713   7.126
62997SOL    HW190888   3.556  14.756   7.124
62997SOL    HW290889   3.685  14.750   7.203
62998SOL     OW90890  13.507   8.128   0.762
62998SOL    HW190891  13.568   8.162   0.697
62998SOL    HW290892  13.423   8.125   0.717
62999SOL     OW90893   4.927  14.647   0.270
62999SOL    HW190894   5.006  14.636   0.324
62999SOL    HW290895   4.944  14.727   0.220
63000SOL     OW90896  10.889   7.126   7.661
63000SOL    HW190897  10.825   7.065   7.625
63000SOL    HW290898  10.836   7.198   7.696
63001SOL     OW90899   1.737  10.748   8.255
63001SOL    HW190900   1.828  10.728   8.275
63001SOL    HW290901   1.695  10.757   8.340
63002SOL     OW90902  14.673   6.416   9.475
63002SOL    HW190903  14.705   6.487   9.420
63002SOL    HW290904  14.705   6.336   9.433
63003SOL     OW90905   7.740  10.060   9.707
63003SOL    HW190906   7.799  10.135   9.714
63003SOL    HW290907   7.733  10.026   9.796
63004SOL     OW90908  11.585   6.278  11.136
63004SOL    HW190909  11.580   6.374  11.131
63004SOL    HW290910  11.494   6.250  11.136
63005SOL     OW90911  14.558   6.130   0.258
63005SOL    HW190912  14.489   6.181   0.215
63005SOL    HW290913  14.569   6.053   0.202
63006SOL     OW90914   7.776   5.984   7.547
63006SOL    HW190915   7.811   6.071   7.567
63006SOL    HW290916   7.825   5.925   7.605
63007SOL     OW90917   9.132   2.131  13.675
63007SOL    HW190918   9.058   2.169  13.629
63007SOL    HW290919   9.101   2.045  13.705
63008SOL     OW90920   8.921  10.100  12.994
63008SOL    HW190921   8.874  10.157  12.934
63008SOL    HW290922   8.858  10.033  13.019
63009SOL     OW90923   3.800  11.973   2.605
63009SOL    HW190924   3.825  11.964   2.513
63009SOL    HW290925   3.863  11.918   2.652
63010SOL     OW90926   7.027  13.922   3.817
63010SOL    HW190927   7.069  13.924   3.732
63010SOL    HW290928   7.064  13.996   3.865
63011SOL     OW90929  14.842   5.213  10.524
63011SOL    HW190930  14.849   5.290  10.467
63011SOL    HW290931   0.049   5.198  10.556
63012SOL     OW90932   3.554   7.715  14.155
63012SOL    HW190933   3.560   7.716  14.250
63012SOL    HW290934   3.520   7.627  14.134
63013SOL     OW90935   4.845   8.168   4.645
63013SOL    HW190936   4.815   8.078   4.652
63013SOL    HW290937   4.940   8.163   4.658
63014SOL     OW90938   0.771  12.778  10.089
63014SOL    HW190939   0.861  12.754  10.113
63014SOL    HW290940   0.762  12.750   9.998
63015SOL     OW90941  10.375  10.439  14.073
63015SOL    HW190942  10.447  10.500  14.058
63015SOL    HW290943  10.297  10.495  14.083
63016SOL     OW90944   6.659   6.480   2.370
63016SOL    HW190945   6.680   6.506   2.280
63016SOL    HW290946   6.691   6.390   2.376
63017SOL     OW90947  14.523   5.072   3.788
63017SOL    HW190948  14.482   5.089   3.703
63017SOL    HW290949  14.617   5.076   3.770
63018SOL     OW90950   1.057  13.984   1.957
63018SOL    HW190951   1.065  13.894   1.924
63018SOL    HW290952   1.138  13.999   2.005
63019SOL     OW90953   1.513  10.211  13.975
63019SOL    HW190954   1.490  10.295  13.934
63019SOL    HW290955   1.441  10.194  14.035
63020SOL     OW90956   4.414   5.100   7.344
63020SOL    HW190957   4.494   5.098   7.291
63020SOL    HW290958   4.411   5.189   7.379
63021SOL     OW90959  12.016  14.737   3.211
63021SOL    HW190960  12.062  14.794   3.149
63021SOL    HW290961  11.951  14.793   3.252
63022SOL     OW90962   3.945   0.498  10.099
63022SOL    HW190963   3.929   0.433  10.031
63022SOL    HW290964   4.039   0.495  10.114
63023SOL     OW90965   2.082   0.076   4.007
63023SOL    HW190966   2.172   0.063   4.036
63023SOL    HW290967   2.043  14.871   4.010
63024SOL     OW90968   1.383   7.350   5.571
63024SOL    HW190969   1.304   7.296   5.575
63024SOL    HW290970   1.440   7.313   5.639
63025SOL     OW90971   6.303   5.025   6.924
63025SOL    HW190972   6.391   5.037   6.889
63025SOL    HW290973   6.312   5.038   7.019
63026SOL     OW90974   3.177   8.756  12.444
63026SOL    HW190975   3.109   8.821  12.427
63026SOL    HW290976   3.251   8.806  12.476
63027SOL     OW90977   1.948   0.779   4.562
63027SOL    HW190978   1.960   0.827   4.644
63027SOL    HW290979   1.855   0.760   4.559
63028SOL     OW90980   8.473   1.797  12.209
63028SOL    HW190981   8.448   1.889  12.200
63028SOL    HW290982   8.462   1.778  12.302
63029SOL     OW90983   1.917  11.407   0.960
63029SOL    HW190984   1.903  11.313   0.967
63029SOL    HW290985   1.847  11.445   1.013
63030SOL     OW90986   1.809   9.275  12.927
63030SOL    HW190987   1.783   9.329  12.852
63030SOL    HW290988   1.761   9.311  13.001
63031SOL     OW90989  10.848  12.286   6.913
63031SOL    HW190990  10.878  12.286   7.004
63031SOL    HW290991  10.753  12.295   6.920
63032SOL     OW90992  12.082   1.863   8.919
63032SOL    HW190993  12.083   1.791   8.856
63032SOL    HW290994  11.993   1.899   8.913
63033SOL     OW90995   4.749  13.717   1.400
63033SOL    HW190996   4.842  13.701   1.387
63033SOL    HW290997   4.712  13.631   1.419
63034SOL     OW90998  12.104   7.014   9.343
63034SOL    HW190999  12.025   7.034   9.394
63034SOL    HW291000  12.176   7.052   9.395
63035SOL     OW91001  11.055   3.930   5.959
63035SOL    HW191002  11.079   4.017   5.989
63035SOL    HW291003  11.051   3.877   6.039
63036SOL     OW91004  12.344  12.285  14.559
63036SOL    HW191005  12.318  12.347  14.627
63036SOL    HW291006  12.402  12.335  14.501
63037SOL     OW91007   6.865   2.844  10.322
63037SOL    HW191008   6.771   2.832  10.333
63037SOL    HW291009   6.903   2.759  10.343
63038SOL     OW91010  14.769  14.587   1.676
63038SOL    HW191011  14.783  14.664   1.621
63038SOL    HW291012  14.678  14.596   1.706
63039SOL     OW91013   0.395   7.667   9.051
63039SOL    HW191014   0.323   7.689   9.109
63039SOL    HW291015   0.460   7.736   9.067
63040SOL     OW91016   2.648  10.028   1.247
63040SOL    HW191017   2.723  10.047   1.191
63040SOL    HW291018   2.686   9.998   1.329
63041SOL     OW91019   4.765   4.916   0.961
63041SOL    HW191020   4.796   4.990   1.013
63041SOL    HW291021   4.705   4.869   1.019
63042SOL     OW91022  10.270   2.452  11.593
63042SOL    HW191023  10.208   2.481  11.526
63042SOL    HW291024  10.300   2.366  11.562
63043SOL     OW91025  13.577   8.930   7.020
63043SOL    HW191026  13.576   9.022   6.993
63043SOL    HW291027  13.546   8.931   7.111
63044SOL     OW91028   5.551   5.964  14.662
63044SOL    HW191029   5.612   6.028  14.699
63044SOL    HW291030   5.499   5.935  14.737
63045SOL     OW91031   2.176  12.498   8.357
63045SOL    HW191032   2.147  12.532   8.441
63045SOL    HW291033   2.154  12.567   8.294
63046SOL     OW91034   8.323  12.072   4.213
63046SOL    HW191035   8.412  12.107   4.206
63046SOL    HW291036   8.334  11.977   4.220
63047SOL     OW91037   0.565  13.310   9.224
63047SOL    HW191038   0.558  13.264   9.141
63047SOL    HW291039   0.517  13.392   9.210
63048SOL     OW91040  13.251   5.592  14.245
63048SOL    HW191041  13.161   5.617  14.264
63048SOL    HW291042  13.300   5.622  14.322
63049SOL     OW91043   4.300   5.527  11.397
63049SOL    HW191044   4.247   5.492  11.325
63049SOL    HW291045   4.272   5.619  11.404
63050SOL     OW91046  12.925   5.285  13.002
63050SOL    HW191047  12.964   5.222  13.062
63050SOL    HW291048  12.831   5.277  13.015
63051SOL     OW91049   8.937   5.508   6.272
63051SOL    HW191050   8.981   5.467   6.197
63051SOL    HW291051   8.851   5.532   6.238
63052SOL     OW91052   4.053   7.686   3.023
63052SOL    HW191053   3.961   7.662   3.036
63052SOL    HW291054   4.100   7.633   3.088
63053SOL     OW91055   6.536   4.477   8.063
63053SOL    HW191056   6.471   4.537   8.025
63053SOL    HW291057   6.495   4.445   8.143
63054SOL     OW91058   2.998   3.382  12.569
63054SOL    HW191059   2.968   3.311  12.625
63054SOL    HW291060   3.092   3.391  12.589
63055SOL     OW91061   8.451   3.697  11.717
63055SOL    HW191062   8.401   3.772  11.684
63055SOL    HW291063   8.477   3.649  11.638
63056SOL     OW91064   1.146   8.574   4.178
63056SOL    HW191065   1.126   8.664   4.204
63056SOL    HW291066   1.060   8.535   4.159
63057SOL     OW91067   1.470   8.702  13.484
63057SOL    HW191068   1.437   8.614  13.469
63057SOL    HW291069   1.469   8.713  13.579
63058SOL     OW91070  13.018   3.567  12.691
63058SOL    HW191071  13.005   3.533  12.779
63058SOL    HW291072  12.942   3.535  12.641
63059SOL     OW91073   4.413   2.606   0.448
63059SOL    HW191074   4.357   2.649   0.513
63059SOL    HW291075   4.411   2.514   0.473
63060SOL     OW91076   8.208  13.760   3.755
63060SOL    HW191077   8.227  13.738   3.663
63060SOL    HW291078   8.115  13.741   3.765
63061SOL     OW91079  10.324  14.113  14.256
63061SOL    HW191080  10.308  14.125  14.350
63061SOL    HW291081  10.316  14.018  14.242
63062SOL     OW91082  11.062   0.365   5.525
63062SOL    HW191083  11.010   0.444   5.516
63062SOL    HW291084  11.000   0.299   5.556
63063SOL     OW91085   2.384   1.809  14.760
63063SOL    HW191086   2.389   1.776  14.670
63063SOL    HW291087   2.292   1.830  14.773
63064SOL     OW91088   1.857  11.576   7.216
63064SOL    HW191089   1.943  11.588   7.255
63064SOL    HW291090   1.802  11.545   7.288
63065SOL     OW91091   3.570  10.956   6.836
63065SOL    HW191092   3.620  10.902   6.897
63065SOL    HW291093   3.582  10.913   6.751
63066SOL     OW91094   6.653   9.209  10.695
63066SOL    HW191095   6.719   9.258  10.646
63066SOL    HW291096   6.626   9.269  10.765
63067SOL     OW91097  11.718  13.679   3.185
63067SOL    HW191098  11.712  13.603   3.242
63067SOL    HW291099  11.642  13.670   3.126
63068SOL     OW91100   1.498   0.354   9.283
63068SOL    HW191101   1.530   0.270   9.316
63068SOL    HW291102   1.531   0.418   9.346
63069SOL     OW91103   6.278   8.603   0.846
63069SOL    HW191104   6.313   8.652   0.920
63069SOL    HW291105   6.290   8.511   0.869
63070SOL     OW91106   1.328   4.333  12.232
63070SOL    HW191107   1.351   4.240  12.234
63070SOL    HW291108   1.273   4.342  12.154
63071SOL     OW91109   3.292  14.368  11.805
63071SOL    HW191110   3.240  14.317  11.743
63071SOL    HW291111   3.273  14.459  11.782
63072SOL     OW91112   5.665  11.012   4.635
63072SOL    HW191113   5.704  10.979   4.553
63072SOL    HW291114   5.620  10.937   4.672
63073SOL     OW91115   1.750   1.902   0.998
63073SOL    HW191116   1.763   1.985   1.044
63073SOL    HW291117   1.815   1.903   0.928
63074SOL     OW91118   2.357  11.100  14.754
63074SOL    HW191119   2.353  11.162  14.681
63074SOL    HW291120   2.450  11.077  14.760
63075SOL     OW91121   5.419  12.645   2.955
63075SOL    HW191122   5.437  12.555   2.981
63075SOL    HW291123   5.487  12.664   2.889
63076SOL     OW91124   6.900   3.178   6.102
63076SOL    HW191125   6.808   3.150   6.099
63076SOL    HW291126   6.931   3.146   6.187
63077SOL     OW91127  13.548  12.498   4.657
63077SOL    HW191128  13.473  12.557   4.646
63077SOL    HW291129  13.621  12.557   4.676
63078SOL     OW91130  11.567  13.032  14.457
63078SOL    HW191131  11.624  13.021  14.532
63078SOL    HW291132  11.623  13.015  14.381
63079SOL     OW91133   6.879   6.494  12.989
63079SOL    HW191134   6.899   6.442  12.911
63079SOL    HW291135   6.833   6.571  12.955
63080SOL     OW91136   7.395   3.009   2.288
63080SOL    HW191137   7.456   3.048   2.350
63080SOL    HW291138   7.358   3.084   2.241
63081SOL     OW91139   8.738   2.703  14.114
63081SOL    HW191140   8.807   2.769  14.104
63081SOL    HW291141   8.721   2.672  14.025
63082SOL     OW91142  14.348  12.868   1.326
63082SOL    HW191143  14.283  12.919   1.374
63082SOL    HW291144  14.319  12.777   1.335
63083SOL     OW91145   5.871  10.949   4.211
63083SOL    HW191146   5.896  11.040   4.199
63083SOL    HW291147   5.923  10.901   4.147
63084SOL     OW91148   7.725   1.889   7.482
63084SOL    HW191149   7.782   1.846   7.545
63084SOL    HW291150   7.720   1.827   7.409
63085SOL     OW91151   5.551   4.655  12.448
63085SOL    HW191152   5.530   4.622  12.361
63085SOL    HW291153   5.646   4.650  12.454
63086SOL     OW91154   2.260   3.940   6.382
63086SOL    HW191155   2.195   3.982   6.439
63086SOL    HW291156   2.295   3.868   6.434
63087SOL     OW91157  14.026   8.278   7.328
63087SOL    HW191158  13.934   8.266   7.350
63087SOL    HW291159  14.066   8.193   7.348
63088SOL     OW91160   3.187   7.392  11.355
63088SOL    HW191161   3.238   7.339  11.294
63088SOL    HW291162   3.252   7.437  11.409
63089SOL     OW91163   3.138   5.021   2.830
63089SOL    HW191164   3.179   4.939   2.802
63089SOL    HW291165   3.208   5.086   2.827
63090SOL     OW91166   0.138   4.250   2.342
63090SOL    HW191167   0.052   4.290   2.360
63090SOL    HW291168   0.198   4.294   2.402
63091SOL     OW91169   0.175   2.228  10.316
63091SOL    HW191170   0.245   2.294  10.322
63091SOL    HW291171   0.202   2.159  10.377
63092SOL     OW91172  11.879  12.604  13.900
63092SOL    HW191173  11.943  12.623  13.831
63092SOL    HW291174  11.830  12.529  13.867
63093SOL     OW91175  11.319   1.756  11.862
63093SOL    HW191176  11.296   1.791  11.776
63093SOL    HW291177  11.261   1.682  11.874
63094SOL     OW91178   1.607  11.334   6.340
63094SOL    HW191179   1.598  11.337   6.245
63094SOL    HW291180   1.581  11.421   6.369
63095SOL     OW91181   4.757   9.452   8.719
63095SOL    HW191182   4.695   9.391   8.759
63095SOL    HW291183   4.783   9.510   8.790
63096SOL     OW91184  12.926   4.315   0.880
63096SOL    HW191185  12.883   4.393   0.915
63096SOL    HW291186  12.857   4.266   0.836
63097SOL     OW91187   2.802  10.351   1.034
63097SOL    HW191188   2.891  10.376   1.058
63097SOL    HW291189   2.801  10.256   1.041
63098SOL     OW91190  12.255  12.319  11.777
63098SOL    HW191191  12.258  12.270  11.695
63098SOL    HW291192  12.200  12.395  11.758
63099SOL     OW91193  11.144  13.978   1.470
63099SOL    HW191194  11.169  14.026   1.549
63099SOL    HW291195  11.223  13.930   1.445
63100SOL     OW91196  12.431   6.266  13.018
63100SOL    HW191197  12.504   6.327  13.025
63100SOL    HW291198  12.380   6.280  13.098
63101SOL     OW91199  11.911  14.115   8.549
63101SOL    HW191200  11.875  14.192   8.506
63101SOL    HW291201  11.842  14.048   8.543
63102SOL     OW91202   4.137   1.633   2.019
63102SOL    HW191203   4.186   1.566   1.971
63102SOL    HW291204   4.081   1.582   2.078
63103SOL     OW91205   5.521   3.357  12.659
63103SOL    HW191206   5.506   3.331  12.568
63103SOL    HW291207   5.444   3.327  12.706
63104SOL     OW91208  12.004   9.711   2.426
63104SOL    HW191209  12.090   9.734   2.462
63104SOL    HW291210  11.943   9.768   2.473
63105SOL     OW91211  11.694  10.705  14.522
63105SOL    HW191212  11.666  10.620  14.488
63105SOL    HW291213  11.612  10.752  14.538
63106SOL     OW91214   2.295   5.311  14.669
63106SOL    HW191215   2.210   5.351  14.686
63106SOL    HW291216   2.356   5.359  14.725
63107SOL     OW91217  11.771   6.883   2.835
63107SOL    HW191218  11.862   6.861   2.858
63107SOL    HW291219  11.756   6.840   2.751
63108SOL     OW91220   9.890   8.541   4.192
63108SOL    HW191221   9.915   8.449   4.183
63108SOL    HW291222   9.870   8.569   4.103
63109SOL     OW91223   7.136   2.169  12.623
63109SOL    HW191224   7.143   2.148  12.529
63109SOL    HW291225   7.226   2.174  12.653
63110SOL     OW91226   9.009   0.852   6.500
63110SOL    HW191227   9.012   0.941   6.536
63110SOL    HW291228   9.088   0.810   6.531
63111SOL     OW91229   5.453  13.974   7.476
63111SOL    HW191230   5.514  14.039   7.444
63111SOL    HW291231   5.422  13.929   7.397
63112SOL     OW91232   4.886  13.668   2.082
63112SOL    HW191233   4.907  13.732   2.150
63112SOL    HW291234   4.942  13.692   2.009
63113SOL     OW91235   4.484   7.617   3.968
63113SOL    HW191236   4.509   7.709   3.960
63113SOL    HW291237   4.542   7.582   4.036
63114SOL     OW91238   9.277   7.171   9.921
63114SOL    HW191239   9.359   7.172   9.871
63114SOL    HW291240   9.217   7.225   9.869
63115SOL     OW91241   7.338   3.179  14.627
63115SOL    HW191242   7.270   3.141  14.681
63115SOL    HW291243   7.366   3.258  14.674
63116SOL     OW91244  12.038  11.524  12.173
63116SOL    HW191245  12.104  11.455  12.169
63116SOL    HW291246  12.018  11.532  12.267
63117SOL     OW91247   5.305  13.435   8.962
63117SOL    HW191248   5.251  13.436   8.883
63117SOL    HW291249   5.320  13.528   8.982
63118SOL     OW91250   5.704   2.977   3.619
63118SOL    HW191251   5.679   3.061   3.581
63118SOL    HW291252   5.798   2.970   3.603
63119SOL     OW91253   3.263  13.579  14.860
63119SOL    HW191254   3.270  13.486  14.836
63119SOL    HW291255   3.253  13.578   0.073
63120SOL     OW91256   2.819   1.565  10.921
63120SOL    HW191257   2.816   1.491  10.860
63120SOL    HW291258   2.813   1.642  10.865
63121SOL     OW91259  13.472   7.184   8.677
63121SOL    HW191260  13.429   7.262   8.643
63121SOL    HW291261  13.550   7.217   8.722
63122SOL     OW91262  13.311   3.985   0.922
63122SOL    HW191263  13.369   3.942   0.985
63122SOL    HW291264  13.309   4.076   0.949
63123SOL     OW91265  14.793  14.517   6.722
63123SOL    HW191266  14.869  14.464   6.748
63123SOL    HW291267  14.729  14.502   6.792
63124SOL     OW91268  12.516  14.249   7.962
63124SOL    HW191269  12.445  14.308   7.938
63124SOL    HW291270  12.486  14.208   8.043
63125SOL     OW91271   2.673   3.044  11.260
63125SOL    HW191272   2.611   3.114  11.239
63125SOL    HW291273   2.636   3.002  11.338
63126SOL     OW91274  13.220   1.492   2.767
63126SOL    HW191275  13.254   1.455   2.849
63126SOL    HW291276  13.295   1.537   2.729
63127SOL     OW91277   7.826   4.346   3.240
63127SOL    HW191278   7.860   4.421   3.288
63127SOL    HW291279   7.732   4.364   3.230
63128SOL     OW91280   7.099   6.849  10.572
63128SOL    HW191281   7.148   6.861  10.654
63128SOL    HW291282   7.030   6.914  10.576
63129SOL     OW91283   5.833  10.145   7.141
63129SOL    HW191284   5.751  10.117   7.182
63129SOL    HW291285   5.864  10.216   7.198
63130SOL     OW91286  14.300  11.427   5.973
63130SOL    HW191287  14.218  11.419   5.925
63130SOL    HW291288  14.274  11.456   6.061
63131SOL     OW91289   4.861   4.461  12.889
63131SOL    HW191290   4.907   4.491  12.968
63131SOL    HW291291   4.773   4.438  12.920
63132SOL     OW91292   8.062   7.389  11.238
63132SOL    HW191293   7.989   7.428  11.285
63132SOL    HW291294   8.125   7.367  11.307
63133SOL     OW91295  11.196   3.752   5.809
63133SOL    HW191296  11.248   3.799   5.744
63133SOL    HW291297  11.143   3.819   5.852
63134SOL     OW91298   3.029   0.886   9.142
63134SOL    HW191299   2.990   0.972   9.153
63134SOL    HW291300   3.114   0.892   9.186
63135SOL     OW91301   6.284   5.341  14.576
63135SOL    HW191302   6.256   5.261  14.532
63135SOL    HW291303   6.203   5.381  14.608
63136SOL     OW91304   0.163  12.516   6.749
63136SOL    HW191305   0.112  12.597   6.738
63136SOL    HW291306   0.244  12.544   6.792
63137SOL     OW91307  12.921   3.677  13.123
63137SOL    HW191308  12.932   3.763  13.165
63137SOL    HW291309  12.979   3.619  13.173
63138SOL     OW91310   6.249   2.681  12.505
63138SOL    HW191311   6.324   2.681  12.565
63138SOL    HW291312   6.173   2.664  12.562
63139SOL     OW91313   9.421  11.647  12.433
63139SOL    HW191314   9.445  11.655  12.525
63139SOL    HW291315   9.333  11.610  12.434
63140SOL     OW91316   9.136  12.675  10.239
63140SOL    HW191317   9.229  12.682  10.220
63140SOL    HW291318   9.109  12.591  10.202
63141SOL     OW91319   7.937   5.765   1.166
63141SOL    HW191320   7.997   5.708   1.118
63141SOL    HW291321   7.857   5.713   1.177
63142SOL     OW91322  10.112  14.707   9.295
63142SOL    HW191323  10.157  14.791   9.311
63142SOL    HW291324  10.158  14.669   9.221
63143SOL     OW91325  14.093   9.801  11.076
63143SOL    HW191326  14.073   9.763  10.990
63143SOL    HW291327  14.008   9.812  11.118
63144SOL     OW91328   9.963   3.173   7.022
63144SOL    HW191329   9.885   3.182   6.967
63144SOL    HW291330   9.981   3.262   7.053
63145SOL     OW91331  13.800  13.116  10.893
63145SOL    HW191332  13.705  13.119  10.904
63145SOL    HW291333  13.828  13.207  10.907
63146SOL     OW91334   1.847   2.464   9.637
63146SOL    HW191335   1.766   2.506   9.667
63146SOL    HW291336   1.842   2.375   9.673
63147SOL     OW91337  14.484   9.382   6.393
63147SOL    HW191338  14.522   9.304   6.353
63147SOL    HW291339  14.491   9.366   6.487
63148SOL     OW91340  11.860  10.830   9.212
63148SOL    HW191341  11.765  10.827   9.222
63148SOL    HW291342  11.889  10.740   9.225
63149SOL     OW91343  14.254   9.146   1.857
63149SOL    HW191344  14.187   9.203   1.820
63149SOL    HW291345  14.337   9.186   1.831
63150SOL     OW91346  14.339   6.690  11.980
63150SOL    HW191347  14.349   6.786  11.981
63150SOL    HW291348  14.253   6.674  12.018
63151SOL     OW91349   7.189   9.829   9.293
63151SOL    HW191350   7.115   9.857   9.347
63151SOL    HW291351   7.159   9.840   9.203
63152SOL     OW91352   7.194  12.785   5.249
63152SOL    HW191353   7.161  12.715   5.193
63152SOL    HW291354   7.116  12.832   5.278
63153SOL     OW91355   6.553   4.611   9.671
63153SOL    HW191356   6.564   4.568   9.586
63153SOL    HW291357   6.549   4.705   9.650
63154SOL     OW91358   0.443  10.322   8.488
63154SOL    HW191359   0.439  10.228   8.507
63154SOL    HW291360   0.420  10.364   8.571
63155SOL     OW91361   2.779   6.794  14.692
63155SOL    HW191362   2.864   6.759  14.666
63155SOL    HW291363   2.750   6.735  14.762
63156SOL     OW91364   5.214  12.847   9.645
63156SOL    HW191365   5.146  12.834   9.711
63156SOL    HW291366   5.295  12.825   9.691
63157SOL     OW91367  11.522   8.778  12.396
63157SOL    HW191368  11.530   8.870  12.423
63157SOL    HW291369  11.461   8.740  12.458
63158SOL     OW91370  12.346   2.436   9.752
63158SOL    HW191371  12.412   2.374   9.722
63158SOL    HW291372  12.389   2.521   9.746
63159SOL     OW91373   5.789   2.717   8.231
63159SOL    HW191374   5.779   2.634   8.184
63159SOL    HW291375   5.755   2.698   8.319
63160SOL     OW91376  14.427   8.508  14.548
63160SOL    HW191377  14.467   8.448  14.611
63160SOL    HW291378  14.376   8.452  14.490
63161SOL     OW91379   6.877   4.760  14.645
63161SOL    HW191380   6.803   4.712  14.682
63161SOL    HW291381   6.859   4.765  14.552
63162SOL     OW91382  12.223   9.745  14.348
63162SOL    HW191383  12.199   9.806  14.418
63162SOL    HW291384  12.305   9.779  14.313
63163SOL     OW91385   1.543  10.374   5.556
63163SOL    HW191386   1.537  10.380   5.461
63163SOL    HW291387   1.625  10.326   5.571
63164SOL     OW91388   7.903   2.900  14.341
63164SOL    HW191389   7.901   2.850  14.423
63164SOL    HW291390   7.811   2.908  14.315
63165SOL     OW91391  11.244  13.192   5.017
63165SOL    HW191392  11.175  13.238   4.970
63165SOL    HW291393  11.222  13.203   5.109
63166SOL     OW91394   0.529  14.869   2.958
63166SOL    HW191395   0.519   0.032   3.042
63166SOL    HW291396   0.492   0.047   2.894
63167SOL     OW91397   8.836  10.119   4.157
63167SOL    HW191398   8.751  10.122   4.201
63167SOL    HW291399   8.875  10.037   4.186
63168SOL     OW91400   3.287   2.940  14.228
63168SOL    HW191401   3.317   3.011  14.170
63168SOL    HW291402   3.360   2.879  14.231
63169SOL     OW91403   2.839  10.048   1.812
63169SOL    HW191404   2.761  10.039   1.867
63169SOL    HW291405   2.865  10.140   1.823
63170SOL     OW91406   8.858  13.652   5.282
63170SOL    HW191407   8.876  13.565   5.318
63170SOL    HW291408   8.944  13.690   5.265
63171SOL     OW91409   1.386  12.573   6.618
63171SOL    HW191410   1.395  12.478   6.620
63171SOL    HW291411   1.294  12.588   6.640
63172SOL     OW91412  11.042  13.157  11.048
63172SOL    HW191413  11.077  13.068  11.047
63172SOL    HW291414  10.958  13.151  11.002
63173SOL     OW91415   2.569  11.130   0.982
63173SOL    HW191416   2.497  11.162   0.928
63173SOL    HW291417   2.560  11.034   0.980
63174SOL     OW91418   5.266   7.265   4.597
63174SOL    HW191419   5.183   7.297   4.562
63174SOL    HW291420   5.301   7.208   4.529
63175SOL     OW91421   9.159  11.914   5.551
63175SOL    HW191422   9.182  11.970   5.625
63175SOL    HW291423   9.079  11.870   5.579
63176SOL     OW91424   1.481   9.937   3.431
63176SOL    HW191425   1.524   9.854   3.451
63176SOL    HW291426   1.553   9.999   3.420
63177SOL     OW91427   1.946  11.212   2.523
63177SOL    HW191428   2.004  11.136   2.518
63177SOL    HW291429   1.997  11.278   2.570
63178SOL     OW91430   3.419  14.500   3.485
63178SOL    HW191431   3.442  14.425   3.430
63178SOL    HW291432   3.457  14.479   3.571
63179SOL     OW91433  14.072  14.018   7.394
63179SOL    HW191434  14.116  14.096   7.360
63179SOL    HW291435  14.063  13.961   7.318
63180SOL     OW91436  13.956  11.211   1.208
63180SOL    HW191437  13.911  11.154   1.145
63180SOL    HW291438  13.904  11.291   1.209
63181SOL     OW91439   7.062   1.851   7.362
63181SOL    HW191440   7.072   1.768   7.409
63181SOL    HW291441   7.120   1.843   7.286
63182SOL     OW91442   7.338   5.089  11.744
63182SOL    HW191443   7.354   5.076  11.838
63182SOL    HW291444   7.424   5.084  11.704
63183SOL     OW91445   4.044   5.429   1.567
63183SOL    HW191446   4.078   5.341   1.582
63183SOL    HW291447   3.984   5.445   1.640
63184SOL     OW91448   2.595   4.889   9.669
63184SOL    HW191449   2.509   4.895   9.710
63184SOL    HW291450   2.654   4.931   9.731
63185SOL     OW91451   8.848  12.961   3.041
63185SOL    HW191452   8.911  12.946   3.111
63185SOL    HW291453   8.843  13.056   3.033
63186SOL     OW91454  10.347   5.981  14.042
63186SOL    HW191455  10.342   5.956  13.950
63186SOL    HW291456  10.434   6.020  14.051
63187SOL     OW91457   9.315   8.897  10.659
63187SOL    HW191458   9.333   8.909  10.566
63187SOL    HW291459   9.401   8.877  10.698
63188SOL     OW91460  13.349  10.933   9.491
63188SOL    HW191461  13.342  10.992   9.565
63188SOL    HW291462  13.298  10.856   9.516
63189SOL     OW91463  11.083  12.213   9.790
63189SOL    HW191464  11.163  12.176   9.753
63189SOL    HW291465  11.036  12.139   9.826
63190SOL     OW91466   3.336   7.761   4.921
63190SOL    HW191467   3.365   7.670   4.913
63190SOL    HW291468   3.246   7.760   4.889
63191SOL     OW91469   9.068   6.615  12.135
63191SOL    HW191470   9.088   6.701  12.173
63191SOL    HW291471   9.060   6.632  12.041
63192SOL     OW91472   6.041   8.019   8.557
63192SOL    HW191473   6.093   8.086   8.603
63192SOL    HW291474   5.980   7.987   8.623
63193SOL     OW91475   1.059   9.479  14.822
63193SOL    HW191476   1.149   9.452  14.803
63193SOL    HW291477   1.005   9.408  14.788
63194SOL     OW91478   6.044   7.179   0.091
63194SOL    HW191479   5.979   7.130   0.040
63194SOL    HW291480   5.993   7.249   0.133
63195SOL     OW91481   3.172   1.530   9.562
63195SOL    HW191482   3.222   1.607   9.536
63195SOL    HW291483   3.239   1.466   9.589
63196SOL     OW91484  11.105   2.764  10.920
63196SOL    HW191485  11.184   2.808  10.951
63196SOL    HW291486  11.070   2.822  10.852
63197SOL     OW91487   9.846   8.208   6.412
63197SOL    HW191488   9.900   8.262   6.470
63197SOL    HW291489   9.806   8.270   6.351
63198SOL     OW91490   1.524   1.949  10.848
63198SOL    HW191491   1.523   1.959  10.752
63198SOL    HW291492   1.614   1.925  10.869
63199SOL     OW91493  10.374  13.225   8.984
63199SOL    HW191494  10.279  13.231   8.979
63199SOL    HW291495  10.405  13.251   8.898
63200SOL     OW91496   2.522   8.932   8.271
63200SOL    HW191497   2.435   8.891   8.279
63200SOL    HW291498   2.583   8.866   8.304
63201SOL     OW91499   6.039   1.896   6.469
63201SOL    HW191500   6.003   1.962   6.528
63201SOL    HW291501   5.985   1.902   6.390
63202SOL     OW91502   9.116   4.326   4.538
63202SOL    HW191503   9.071   4.398   4.582
63202SOL    HW291504   9.177   4.292   4.603
63203SOL     OW91505   4.660   9.142   6.898
63203SOL    HW191506   4.689   9.229   6.927
63203SOL    HW291507   4.695   9.082   6.964
63204SOL     OW91508  13.889  13.461   6.590
63204SOL    HW191509  13.973  13.460   6.544
63204SOL    HW291510  13.846  13.380   6.564
63205SOL     OW91511  12.629   9.151   5.188
63205SOL    HW191512  12.609   9.078   5.130
63205SOL    HW291513  12.711   9.187   5.153
63206SOL     OW91514  13.276   7.893   6.273
63206SOL    HW191515  13.353   7.946   6.295
63206SOL    HW291516  13.309   7.804   6.268
63207SOL     OW91517   1.872   4.314   2.403
63207SOL    HW191518   1.914   4.328   2.318
63207SOL    HW291519   1.944   4.313   2.465
63208SOL     OW91520   6.228   6.058   4.820
63208SOL    HW191521   6.279   6.129   4.783
63208SOL    HW291522   6.206   6.088   4.909
63209SOL     OW91523   0.579  12.095   8.690
63209SOL    HW191524   0.634  12.079   8.767
63209SOL    HW291525   0.614  12.037   8.623
63210SOL     OW91526  11.010   0.041   9.491
63210SOL    HW191527  11.066   0.076   9.422
63210SOL    HW291528  11.062  14.855   9.532
63211SOL     OW91529   6.138   2.306   2.534
63211SOL    HW191530   6.221   2.346   2.561
63211SOL    HW291531   6.099   2.369   2.474
63212SOL     OW91532  12.601   3.396   7.190
63212SOL    HW191533  12.646   3.374   7.271
63212SOL    HW291534  12.552   3.476   7.210
63213SOL     OW91535   2.803   5.334   4.466
63213SOL    HW191536   2.815   5.424   4.498
63213SOL    HW291537   2.840   5.335   4.377
63214SOL     OW91538   8.679   2.162  10.982
63214SOL    HW191539   8.676   2.180  11.075
63214SOL    HW291540   8.771   2.140  10.965
63215SOL     OW91541   7.877  10.756   5.051
63215SOL    HW191542   7.820  10.814   5.102
63215SOL    HW291543   7.817  10.693   5.011
63216SOL     OW91544   0.092   4.548   3.206
63216SOL    HW191545   0.000   4.567   3.183
63216SOL    HW291546   0.092   4.454   3.226
63217SOL     OW91547   2.902   7.585   4.939
63217SOL    HW191548   2.960   7.618   4.870
63217SOL    HW291549   2.890   7.492   4.917
63218SOL     OW91550   3.075   5.473   0.920
63218SOL    HW191551   3.145   5.408   0.930
63218SOL    HW291552   3.019   5.461   0.997
63219SOL     OW91553  13.688  11.745   0.522
63219SOL    HW191554  13.783  11.737   0.517
63219SOL    HW291555  13.664  11.798   0.445
63220SOL     OW91556   2.487   5.963   7.806
63220SOL    HW191557   2.567   5.917   7.782
63220SOL    HW291558   2.495   5.977   7.900
63221SOL     OW91559  12.140  11.456  12.500
63221SOL    HW191560  12.223  11.503  12.504
63221SOL    HW291561  12.146  11.403  12.420
63222SOL     OW91562  14.624   7.467   2.042
63222SOL    HW191563  14.531   7.460   2.063
63222SOL    HW291564  14.668   7.411   2.106
63223SOL     OW91565   1.757  12.460  13.914
63223SOL    HW191566   1.818  12.533  13.914
63223SOL    HW291567   1.673  12.498  13.886
63224SOL     OW91568  14.627   0.286   6.487
63224SOL    HW191569  14.709   0.295   6.535
63224SOL    HW291570  14.645   0.218   6.421
63225SOL     OW91571   2.355   2.805   8.008
63225SOL    HW191572   2.383   2.728   7.958
63225SOL    HW291573   2.270   2.828   7.971
63226SOL     OW91574  13.145   7.357   2.374
63226SOL    HW191575  13.057   7.327   2.350
63226SOL    HW291576  13.195   7.277   2.389
63227SOL     OW91577   8.995   2.630  10.589
63227SOL    HW191578   9.067   2.678  10.629
63227SOL    HW291579   8.935   2.612  10.661
63228SOL     OW91580   4.605  10.093  10.130
63228SOL    HW191581   4.651  10.127  10.207
63228SOL    HW291582   4.560  10.169  10.093
63229SOL     OW91583   7.063  12.764   1.306
63229SOL    HW191584   7.157  12.763   1.286
63229SOL    HW291585   7.051  12.843   1.360
63230SOL     OW91586  13.443  12.124   5.256
63230SOL    HW191587  13.374  12.190   5.249
63230SOL    HW291588  13.510  12.153   5.194
63231SOL     OW91589  14.419   8.816  12.694
63231SOL    HW191590  14.482   8.871  12.648
63231SOL    HW291591  14.334   8.849  12.668
63232SOL     OW91592  12.286   8.199  11.077
63232SOL    HW191593  12.369   8.244  11.061
63232SOL    HW291594  12.312   8.111  11.105
63233SOL     OW91595  14.278   7.958  11.425
63233SOL    HW191596  14.370   7.966  11.448
63233SOL    HW291597  14.275   7.981  11.332
63234SOL     OW91598   2.022  11.418   1.674
63234SOL    HW191599   2.089  11.357   1.645
63234SOL    HW291600   2.067  11.502   1.683
63235SOL     OW91601   3.005  12.841  10.010
63235SOL    HW191602   3.054  12.924  10.007
63235SOL    HW291603   2.988  12.820   9.918
63236SOL     OW91604  11.616  11.008   2.834
63236SOL    HW191605  11.684  10.990   2.768
63236SOL    HW291606  11.535  10.975   2.795
63237SOL     OW91607   5.799   4.064   8.914
63237SOL    HW191608   5.730   4.018   8.962
63237SOL    HW291609   5.853   3.994   8.878
63238SOL     OW91610   0.801  10.165   2.208
63238SOL    HW191611   0.806  10.261   2.204
63238SOL    HW291612   0.870  10.140   2.268
63239SOL     OW91613   4.925   4.642   2.903
63239SOL    HW191614   5.001   4.688   2.868
63239SOL    HW291615   4.911   4.682   2.989
63240SOL     OW91616   1.650  12.152   8.770
63240SOL    HW191617   1.671  12.059   8.772
63240SOL    HW291618   1.610  12.166   8.684
63241SOL     OW91619   0.211   5.589   0.683
63241SOL    HW191620   0.147   5.528   0.645
63241SOL    HW291621   0.269   5.533   0.735
63242SOL     OW91622  12.978   5.504   4.295
63242SOL    HW191623  13.027   5.496   4.213
63242SOL    HW291624  13.045   5.510   4.362
63243SOL     OW91625   6.609   2.810  12.819
63243SOL    HW191626   6.669   2.737  12.807
63243SOL    HW291627   6.648   2.883  12.770
63244SOL     OW91628   2.010  12.150  10.975
63244SOL    HW191629   2.094  12.191  10.994
63244SOL    HW291630   2.023  12.105  10.892
63245SOL     OW91631  14.537   7.019   1.095
63245SOL    HW191632  14.557   7.075   1.019
63245SOL    HW291633  14.568   6.932   1.069
63246SOL     OW91634   0.338   2.150  14.455
63246SOL    HW191635   0.276   2.078  14.446
63246SOL    HW291636   0.411   2.126  14.399
63247SOL     OW91637  12.988   9.480   9.887
63247SOL    HW191638  12.893   9.471   9.884
63247SOL    HW291639  13.016   9.468   9.796
63248SOL     OW91640  13.638   2.767   2.545
63248SOL    HW191641  13.574   2.788   2.614
63248SOL    HW291642  13.716   2.817   2.569
63249SOL     OW91643   9.094  13.467   9.013
63249SOL    HW191644   9.182  13.431   9.003
63249SOL    HW291645   9.066  13.440   9.100
63250SOL     OW91646   4.436  11.911   0.195
63250SOL    HW191647   4.472  11.829   0.161
63250SOL    HW291648   4.511  11.970   0.200
63251SOL     OW91649  11.037  13.445  11.366
63251SOL    HW191650  11.012  13.537  11.363
63251SOL    HW291651  11.049  13.420  11.274
63252SOL     OW91652   6.047   2.238   5.943
63252SOL    HW191653   6.090   2.223   6.027
63252SOL    HW291654   5.954   2.247   5.964
63253SOL     OW91655  13.056   0.556  11.670
63253SOL    HW191656  13.077   0.650  11.666
63253SOL    HW291657  13.047   0.530  11.579
63254SOL     OW91658  11.100   4.195   1.649
63254SOL    HW191659  11.010   4.213   1.678
63254SOL    HW291660  11.090   4.158   1.561
63255SOL     OW91661   2.427   9.973   0.387
63255SOL    HW191662   2.348   9.994   0.337
63255SOL    HW291663   2.401   9.989   0.478
63256SOL     OW91664   7.961   2.410   2.428
63256SOL    HW191665   7.912   2.354   2.488
63256SOL    HW291666   7.924   2.390   2.342
63257SOL     OW91667   1.276  12.160   0.480
63257SOL    HW191668   1.333  12.083   0.478
63257SOL    HW291669   1.188  12.125   0.463
63258SOL     OW91670  13.453  14.745   7.207
63258SOL    HW191671  13.410  14.828   7.188
63258SOL    HW291672  13.533  14.770   7.255
63259SOL     OW91673   3.923   6.032  12.999
63259SOL    HW191674   3.986   6.094  13.035
63259SOL    HW291675   3.929   5.956  13.057
63260SOL     OW91676  11.188   8.763  10.594
63260SOL    HW191677  11.232   8.691  10.549
63260SOL    HW291678  11.206   8.840  10.541
63261SOL     OW91679  10.760  11.652   8.207
63261SOL    HW191680  10.736  11.565   8.236
63261SOL    HW291681  10.701  11.671   8.134
63262SOL     OW91682  14.528   7.255   8.603
63262SOL    HW191683  14.464   7.184   8.606
63262SOL    HW291684  14.536   7.284   8.694
63263SOL     OW91685  10.012  13.532   7.325
63263SOL    HW191686  10.038  13.456   7.273
63263SOL    HW291687   9.916  13.534   7.319
63264SOL     OW91688   1.782  13.166  13.022
63264SOL    HW191689   1.779  13.261  13.029
63264SOL    HW291690   1.709  13.135  13.075
63265SOL     OW91691   5.100   2.314  14.805
63265SOL    HW191692   5.054   2.305   0.006
63265SOL    HW291693   5.062   2.392  14.765
63266SOL     OW91694   2.148  11.426   5.918
63266SOL    HW191695   2.140  11.334   5.943
63266SOL    HW291696   2.193  11.424   5.834
63267SOL     OW91697   3.672   3.825   9.656
63267SOL    HW191698   3.592   3.856   9.614
63267SOL    HW291699   3.674   3.731   9.639
63268SOL     OW91700   8.780  10.397  12.941
63268SOL    HW191701   8.850  10.433  12.887
63268SOL    HW291702   8.755  10.469  12.999
63269SOL     OW91703  13.819   5.052   2.157
63269SOL    HW191704  13.770   5.126   2.194
63269SOL    HW291705  13.911   5.076   2.169
63270SOL     OW91706   2.231   7.193   6.181
63270SOL    HW191707   2.247   7.274   6.229
63270SOL    HW291708   2.318   7.160   6.160
63271SOL     OW91709   2.075  12.172   8.603
63271SOL    HW191710   2.015  12.247   8.593
63271SOL    HW291711   2.126  12.193   8.682
63272SOL     OW91712   1.302   2.882   4.817
63272SOL    HW191713   1.371   2.846   4.872
63272SOL    HW291714   1.241   2.809   4.804
63273SOL     OW91715   4.001   3.480  12.881
63273SOL    HW191716   3.924   3.535  12.891
63273SOL    HW291717   4.028   3.493  12.790
63274SOL     OW91718   3.382   9.775  14.408
63274SOL    HW191719   3.465   9.790  14.455
63274SOL    HW291720   3.316   9.813  14.464
63275SOL     OW91721   4.255  11.426   6.221
63275SOL    HW191722   4.322  11.465   6.276
63275SOL    HW291723   4.286  11.337   6.204
63276SOL     OW91724   3.887   4.177   9.705
63276SOL    HW191725   3.979   4.159   9.686
63276SOL    HW291726   3.838   4.125   9.641
63277SOL     OW91727   5.459   1.918   4.522
63277SOL    HW191728   5.516   1.841   4.516
63277SOL    HW291729   5.491   1.976   4.453
63278SOL     OW91730   0.716   3.255   1.842
63278SOL    HW191731   0.767   3.336   1.850
63278SOL    HW291732   0.697   3.230   1.932
63279SOL     OW91733   1.741   9.646   3.746
63279SOL    HW191734   1.721   9.567   3.695
63279SOL    HW291735   1.832   9.665   3.725
63280SOL     OW91736   3.627  11.478   4.580
63280SOL    HW191737   3.678  11.558   4.587
63280SOL    HW291738   3.548  11.495   4.632
63281SOL     OW91739  13.045   3.821   9.887
63281SOL    HW191740  12.957   3.846   9.859
63281SOL    HW291741  13.094   3.903   9.885
63282SOL     OW91742  10.435   7.693   9.771
63282SOL    HW191743  10.450   7.757   9.840
63282SOL    HW291744  10.384   7.740   9.705
63283SOL     OW91745  10.086  14.137   1.511
63283SOL    HW191746  10.028  14.188   1.453
63283SOL    HW291747  10.030  14.114   1.586
63284SOL     OW91748   0.576  13.423   2.843
63284SOL    HW191749   0.552  13.464   2.760
63284SOL    HW291750   0.671  13.436   2.849
63285SOL     OW91751  14.798   0.047   8.063
63285SOL    HW191752  14.786   0.109   8.136
63285SOL    HW291753  14.716   0.052   8.014
63286SOL     OW91754   9.985  11.574   8.613
63286SOL    HW191755  10.017  11.527   8.691
63286SOL    HW291756   9.895  11.544   8.602
63287SOL     OW91757   6.961   0.484   3.443
63287SOL    HW191758   6.993   0.474   3.533
63287SOL    HW291759   6.991   0.571   3.417
63288SOL     OW91760   3.327  14.574   8.163
63288SOL    HW191761   3.407  14.531   8.193
63288SOL    HW291762   3.356  14.661   8.136
63289SOL     OW91763   0.625   2.725   7.266
63289SOL    HW191764   0.555   2.687   7.318
63289SOL    HW291765   0.698   2.665   7.275
63290SOL     OW91766   4.562   5.377   5.529
63290SOL    HW191767   4.495   5.410   5.470
63290SOL    HW291768   4.629   5.446   5.531
63291SOL     OW91769   2.299   6.348   6.812
63291SOL    HW191770   2.210   6.360   6.845
63291SOL    HW291771   2.294   6.370   6.719
63292SOL     OW91772   1.588   6.602   8.802
63292SOL    HW191773   1.599   6.681   8.856
63292SOL    HW291774   1.610   6.530   8.861
63293SOL     OW91775  10.063   3.837   9.596
63293SOL    HW191776   9.976   3.872   9.615
63293SOL    HW291777  10.050   3.742   9.591
63294SOL     OW91778  11.177   3.628   2.355
63294SOL    HW191779  11.209   3.718   2.359
63294SOL    HW291780  11.255   3.576   2.336
63295SOL     OW91781   9.245  13.614  13.520
63295SOL    HW191782   9.172  13.646  13.466
63295SOL    HW291783   9.250  13.677  13.592
63296SOL     OW91784  11.688  14.669  13.155
63296SOL    HW191785  11.724  14.674  13.066
63296SOL    HW291786  11.749  14.614  13.203
63297SOL     OW91787   0.190   5.292  10.859
63297SOL    HW191788   0.249   5.237  10.910
63297SOL    HW291789   0.195   5.378  10.899
63298SOL     OW91790   4.486  11.767  13.598
63298SOL    HW191791   4.552  11.822  13.640
63298SOL    HW291792   4.521  11.679  13.604
63299SOL     OW91793  10.693   5.480   9.265
63299SOL    HW191794  10.774   5.464   9.312
63299SOL    HW291795  10.674   5.573   9.281
63300SOL     OW91796   7.120   9.429   2.839
63300SOL    HW191797   7.077   9.394   2.917
63300SOL    HW291798   7.193   9.481   2.874
63301SOL     OW91799  14.490   0.813   3.886
63301SOL    HW191800  14.504   0.725   3.922
63301SOL    HW291801  14.562   0.865   3.922
63302SOL     OW91802   5.505   8.237  11.664
63302SOL    HW191803   5.543   8.150  11.678
63302SOL    HW291804   5.567   8.297  11.706
63303SOL     OW91805   6.250  10.443   9.168
63303SOL    HW191806   6.180  10.466   9.107
63303SOL    HW291807   6.226  10.486   9.250
63304SOL     OW91808  13.014  13.788  12.463
63304SOL    HW191809  12.982  13.819  12.378
63304SOL    HW291810  13.058  13.865  12.501
63305SOL     OW91811   0.077  10.583   4.712
63305SOL    HW191812   0.084  10.501   4.761
63305SOL    HW291813   0.126  10.568   4.632
63306SOL     OW91814   8.869   5.305   6.997
63306SOL    HW191815   8.835   5.395   7.000
63306SOL    HW291816   8.881   5.281   7.089
63307SOL     OW91817   3.300   0.832   1.148
63307SOL    HW191818   3.372   0.874   1.101
63307SOL    HW291819   3.222   0.881   1.121
63308SOL     OW91820   6.299   3.455  14.547
63308SOL    HW191821   6.370   3.393  14.530
63308SOL    HW291822   6.237   3.406  14.600
63309SOL     OW91823  10.095   6.673  12.070
63309SOL    HW191824  10.167   6.733  12.048
63309SOL    HW291825  10.054   6.654  11.986
63310SOL     OW91826   0.387   4.877   7.098
63310SOL    HW191827   0.431   4.860   7.182
63310SOL    HW291828   0.323   4.945   7.119
63311SOL     OW91829   2.510  13.986   6.990
63311SOL    HW191830   2.459  14.067   6.993
63311SOL    HW291831   2.601  14.016   6.988
63312SOL     OW91832   7.093   0.905  14.657
63312SOL    HW191833   7.027   0.839  14.677
63312SOL    HW291834   7.126   0.933  14.742
63313SOL     OW91835   2.908   2.534   9.596
63313SOL    HW191836   2.889   2.531   9.690
63313SOL    HW291837   2.999   2.564   9.591
63314SOL     OW91838   5.314  10.661  12.535
63314SOL    HW191839   5.367  10.712  12.474
63314SOL    HW291840   5.231  10.707  12.540
63315SOL     OW91841  11.660   6.488  11.818
63315SOL    HW191842  11.731   6.505  11.879
63315SOL    HW291843  11.585   6.536  11.853
63316SOL     OW91844  12.049   1.323   0.922
63316SOL    HW191845  12.048   1.417   0.937
63316SOL    HW291846  12.073   1.285   1.006
63317SOL     OW91847  11.741   5.370   0.257
63317SOL    HW191848  11.699   5.403   0.177
63317SOL    HW291849  11.826   5.415   0.259
63318SOL     OW91850   8.058   4.937   8.195
63318SOL    HW191851   8.034   4.895   8.112
63318SOL    HW291852   7.978   4.935   8.246
63319SOL     OW91853   5.351  12.461  10.926
63319SOL    HW191854   5.335  12.421  11.011
63319SOL    HW291855   5.431  12.512  10.938
63320SOL     OW91856   1.225   4.239  11.217
63320SOL    HW191857   1.165   4.307  11.248
63320SOL    HW291858   1.290   4.231  11.287
63321SOL     OW91859   1.043  10.296  14.354
63321SOL    HW191860   1.134  10.312  14.380
63321SOL    HW291861   0.992  10.322  14.430
63322SOL     OW91862   7.383   0.341   3.148
63322SOL    HW191863   7.384   0.411   3.213
63322SOL    HW291864   7.292   0.333   3.121
63323SOL     OW91865   6.394  10.248   2.320
63323SOL    HW191866   6.470  10.191   2.333
63323SOL    HW291867   6.376  10.241   2.226
63324SOL     OW91868  10.254   4.116  11.617
63324SOL    HW191869  10.194   4.164  11.675
63324SOL    HW291870  10.257   4.028  11.654
63325SOL     OW91871   7.491   6.682   9.410
63325SOL    HW191872   7.462   6.659   9.321
63325SOL    HW291873   7.419   6.656   9.466
63326SOL     OW91874   9.378   1.993   7.623
63326SOL    HW191875   9.449   1.930   7.617
63326SOL    HW291876   9.354   1.993   7.716
63327SOL     OW91877   0.153  11.893  10.066
63327SOL    HW191878   0.138  11.929  10.153
63327SOL    HW291879   0.112  11.956  10.006
63328SOL     OW91880  14.512   9.189   1.374
63328SOL    HW191881  14.558   9.236   1.444
63328SOL    HW291882  14.530   9.241   1.296
63329SOL     OW91883   2.293  13.003   7.222
63329SOL    HW191884   2.346  13.061   7.276
63329SOL    HW291885   2.238  13.062   7.170
63330SOL     OW91886   0.014   6.348  12.295
63330SOL    HW191887   0.023   6.283  12.364
63330SOL    HW291888  14.835   6.413  12.329
63331SOL     OW91889   9.486   7.871   0.204
63331SOL    HW191890   9.502   7.955   0.248
63331SOL    HW291891   9.430   7.892   0.130
63332SOL     OW91892   5.321  11.798   2.518
63332SOL    HW191893   5.246  11.765   2.569
63332SOL    HW291894   5.396  11.789   2.577
63333SOL     OW91895   1.220   6.094   3.754
63333SOL    HW191896   1.203   6.071   3.845
63333SOL    HW291897   1.278   6.169   3.758
63334SOL     OW91898   2.450  13.422   5.353
63334SOL    HW191899   2.471  13.354   5.289
63334SOL    HW291900   2.530  13.474   5.360
63335SOL     OW91901  14.265   7.513  13.515
63335SOL    HW191902  14.238   7.453  13.585
63335SOL    HW291903  14.360   7.507  13.513
63336SOL     OW91904  10.333   8.953   0.509
63336SOL    HW191905  10.383   9.030   0.536
63336SOL    HW291906  10.242   8.976   0.529
63337SOL     OW91907  12.633  14.804   9.824
63337SOL    HW191908  12.543  14.792   9.796
63337SOL    HW291909  12.652   0.014   9.805
63338SOL     OW91910   3.765   7.395   3.834
63338SOL    HW191911   3.817   7.459   3.785
63338SOL    HW291912   3.679   7.436   3.842
63339SOL     OW91913  14.533   6.194   3.593
63339SOL    HW191914  14.491   6.127   3.539
63339SOL    HW291915  14.571   6.145   3.666
63340SOL     OW91916   9.802  14.399   0.636
63340SOL    HW191917   9.736  14.468   0.629
63340SOL    HW291918   9.815  14.387   0.730
63341SOL     OW91919   4.474   8.182  11.102
63341SOL    HW191920   4.543   8.122  11.131
63341SOL    HW291921   4.520   8.243  11.044
63342SOL     OW91922   9.167  11.300  13.295
63342SOL    HW191923   9.238  11.343  13.342
63342SOL    HW291924   9.179  11.325  13.204
63343SOL     OW91925  12.264  14.762   6.207
63343SOL    HW191926  12.201  14.749   6.277
63343SOL    HW291927  12.313  14.680   6.202
63344SOL     OW91928   9.189   4.859   6.106
63344SOL    HW191929   9.124   4.815   6.161
63344SOL    HW291930   9.252   4.896   6.167
63345SOL     OW91931  12.180   8.871  14.081
63345SOL    HW191932  12.155   8.789  14.037
63345SOL    HW291933  12.139   8.865  14.167
63346SOL     OW91934   9.271  11.271   4.240
63346SOL    HW191935   9.246  11.320   4.318
63346SOL    HW291936   9.205  11.293   4.174
63347SOL     OW91937  12.457  12.735   8.973
63347SOL    HW191938  12.402  12.675   8.922
63347SOL    HW291939  12.546  12.713   8.948
63348SOL     OW91940   0.689  14.571  10.203
63348SOL    HW191941   0.607  14.610  10.231
63348SOL    HW291942   0.747  14.646  10.189
63349SOL     OW91943   9.942   8.098  12.290
63349SOL    HW191944  10.002   8.154  12.339
63349SOL    HW291945   9.910   8.153  12.219
63350SOL     OW91946   7.053   7.254   4.290
63350SOL    HW191947   7.137   7.267   4.334
63350SOL    HW291948   7.001   7.330   4.315
63351SOL     OW91949  12.090   2.890   5.958
63351SOL    HW191950  12.124   2.804   5.982
63351SOL    HW291951  12.126   2.906   5.871
63352SOL     OW91952  10.891  10.515   7.513
63352SOL    HW191953  10.810  10.465   7.512
63352SOL    HW291954  10.917  10.519   7.421
63353SOL     OW91955  11.764   1.937   1.586
63353SOL    HW191956  11.709   2.010   1.612
63353SOL    HW291957  11.705   1.878   1.538
63354SOL     OW91958  13.075  12.026   8.648
63354SOL    HW191959  13.100  12.049   8.558
63354SOL    HW291960  13.157  11.998   8.689
63355SOL     OW91961  14.140   9.706  12.973
63355SOL    HW191962  14.070   9.641  12.973
63355SOL    HW291963  14.212   9.664  12.925
63356SOL     OW91964  13.556   1.938   6.699
63356SOL    HW191965  13.501   1.901   6.630
63356SOL    HW291966  13.614   1.999   6.654
63357SOL     OW91967  11.903  12.532   8.195
63357SOL    HW191968  11.927  12.616   8.155
63357SOL    HW291969  11.937  12.539   8.285
63358SOL     OW91970   4.381   3.605   2.011
63358SOL    HW191971   4.420   3.686   2.044
63358SOL    HW291972   4.451   3.540   2.015
63359SOL     OW91973   3.009   4.508  10.667
63359SOL    HW191974   2.941   4.515  10.734
63359SOL    HW291975   3.045   4.596  10.660
63360SOL     OW91976   3.180   6.347   9.396
63360SOL    HW191977   3.129   6.427   9.395
63360SOL    HW291978   3.268   6.374   9.424
63361SOL     OW91979   3.621  10.778   4.518
63361SOL    HW191980   3.708  10.819   4.510
63361SOL    HW291981   3.638  10.684   4.514
63362SOL     OW91982  10.211   9.507  14.843
63362SOL    HW191983  10.283   9.449  14.820
63362SOL    HW291984  10.133   9.451  14.841
63363SOL     OW91985  14.429   1.195   9.960
63363SOL    HW191986  14.429   1.175   9.866
63363SOL    HW291987  14.411   1.289   9.964
63364SOL     OW91988  14.645   0.371   1.202
63364SOL    HW191989  14.564   0.411   1.233
63364SOL    HW291990  14.676   0.431   1.133
63365SOL     OW91991  14.229  13.455   0.639
63365SOL    HW191992  14.314  13.498   0.641
63365SOL    HW291993  14.249  13.362   0.649
63366SOL     OW91994   2.833   7.773  13.413
63366SOL    HW191995   2.919   7.742  13.384
63366SOL    HW291996   2.840   7.869  13.411
63367SOL     OW91997   3.649  10.560  10.112
63367SOL    HW191998   3.590  10.574  10.186
63367SOL    HW291999   3.605  10.598  10.037
63368SOL     OW92000   5.081  13.499   4.432
63368SOL    HW192001   5.092  13.457   4.346
63368SOL    HW292002   5.146  13.457   4.487
63369SOL     OW92003  11.615  11.103   7.619
63369SOL    HW192004  11.593  11.019   7.579
63369SOL    HW292005  11.535  11.155   7.610
63370SOL     OW92006   1.757   6.290  11.536
63370SOL    HW192007   1.815   6.336  11.475
63370SOL    HW292008   1.763   6.341  11.617
63371SOL     OW92009   3.899   6.956   6.511
63371SOL    HW192010   3.823   7.010   6.529
63371SOL    HW292011   3.955   7.010   6.455
63372SOL     OW92012   8.409   9.663   8.895
63372SOL    HW192013   8.456   9.582   8.917
63372SOL    HW292014   8.337   9.667   8.957
63373SOL     OW92015   5.307  13.168  12.947
63373SOL    HW192016   5.326  13.197  12.858
63373SOL    HW292017   5.223  13.207  12.968
63374SOL     OW92018  10.537  13.189  14.597
63374SOL    HW192019  10.579  13.260  14.646
63374SOL    HW292020  10.452  13.223  14.572
63375SOL     OW92021  14.042   4.505   9.690
63375SOL    HW192022  14.098   4.559   9.634
63375SOL    HW292023  14.008   4.566   9.755
63376SOL     OW92024   2.017   9.295   2.905
63376SOL    HW192025   2.074   9.265   2.835
63376SOL    HW292026   1.986   9.215   2.947
63377SOL     OW92027  13.850   6.209  14.059
63377SOL    HW192028  13.943   6.222  14.041
63377SOL    HW292029  13.831   6.122  14.024
63378SOL     OW92030  13.470   6.564  11.344
63378SOL    HW192031  13.449   6.601  11.430
63378SOL    HW292032  13.523   6.631  11.301
63379SOL     OW92033   4.434  14.346  13.925
63379SOL    HW192034   4.429  14.425  13.978
63379SOL    HW292035   4.343  14.320  13.912
63380SOL     OW92036   7.735   0.496  11.919
63380SOL    HW192037   7.765   0.550  11.846
63380SOL    HW292038   7.644   0.475  11.897
63381SOL     OW92039  10.097   0.985  12.222
63381SOL    HW192040  10.121   1.031  12.141
63381SOL    HW292041  10.089   1.054  12.288
63382SOL     OW92042  12.610   9.697   7.768
63382SOL    HW192043  12.624   9.681   7.862
63382SOL    HW292044  12.673   9.767   7.746
63383SOL     OW92045   0.374  11.136   1.284
63383SOL    HW192046   0.404  11.144   1.194
63383SOL    HW292047   0.453  11.114   1.334
63384SOL     OW92048   7.805  12.462   4.974
63384SOL    HW192049   7.819  12.556   4.989
63384SOL    HW292050   7.832  12.420   5.056
63385SOL     OW92051  10.978   0.771   9.222
63385SOL    HW192052  10.991   0.757   9.316
63385SOL    HW292053  10.908   0.710   9.198
63386SOL     OW92054  11.852   9.956  10.581
63386SOL    HW192055  11.814   9.911  10.657
63386SOL    HW292056  11.795   9.932  10.508
63387SOL     OW92057   6.507   8.285   8.087
63387SOL    HW192058   6.590   8.239   8.081
63387SOL    HW292059   6.516   8.359   8.027
63388SOL     OW92060  11.855   2.247   4.742
63388SOL    HW192061  11.863   2.337   4.711
63388SOL    HW292062  11.788   2.208   4.686
63389SOL     OW92063   7.803  14.038   9.089
63389SOL    HW192064   7.869  14.082   9.035
63389SOL    HW292065   7.797  13.950   9.052
63390SOL     OW92066   6.235  12.414   9.202
63390SOL    HW192067   6.234  12.348   9.272
63390SOL    HW292068   6.162  12.472   9.222
63391SOL     OW92069  14.273  11.830  10.000
63391SOL    HW192070  14.245  11.918   9.975
63391SOL    HW292071  14.332  11.803   9.930
63392SOL     OW92072   1.644  13.929   1.289
63392SOL    HW192073   1.554  13.937   1.258
63392SOL    HW292074   1.636  13.926   1.385
63393SOL     OW92075  13.841   9.065  14.516
63393SOL    HW192076  13.892   8.987  14.494
63393SOL    HW292077  13.868   9.087  14.605
63394SOL     OW92078   0.681   6.831   2.230
63394SOL    HW192079   0.716   6.753   2.187
63394SOL    HW292080   0.680   6.898   2.161
63395SOL     OW92081   9.273   6.176   6.647
63395SOL    HW192082   9.324   6.098   6.624
63395SOL    HW292083   9.321   6.249   6.608
63396SOL     OW92084   8.647  10.549  14.217
63396SOL    HW192085   8.616  10.609  14.284
63396SOL    HW292086   8.739  10.534  14.237
63397SOL     OW92087  11.368   0.256   5.664
63397SOL    HW192088  11.405   0.319   5.726
63397SOL    HW292089  11.273   0.267   5.673
63398SOL     OW92090  10.595   9.691   8.891
63398SOL    HW192091  10.505   9.662   8.880
63398SOL    HW292092  10.642   9.653   8.817
63399SOL     OW92093   9.659   6.066   3.345
63399SOL    HW192094   9.616   5.981   3.356
63399SOL    HW292095   9.645   6.088   3.253
63400SOL     OW92096   3.951  11.984  12.096
63400SOL    HW192097   3.865  11.947  12.115
63400SOL    HW292098   4.008  11.943  12.161
63401SOL     OW92099   3.420   0.460  12.573
63401SOL    HW192100   3.465   0.382  12.541
63401SOL    HW292101   3.482   0.531  12.558
63402SOL     OW92102   8.737   2.578  14.764
63402SOL    HW192103   8.702   2.541  14.683
63402SOL    HW292104   8.660   2.604  14.814
63403SOL     OW92105   9.818   8.758   8.784
63403SOL    HW192106   9.761   8.738   8.859
63403SOL    HW292107   9.865   8.837   8.811
63404SOL     OW92108  11.755   2.434  10.239
63404SOL    HW192109  11.742   2.347  10.201
63404SOL    HW292110  11.806   2.419  10.318
63405SOL     OW92111   7.506  13.193  11.414
63405SOL    HW192112   7.429  13.236  11.451
63405SOL    HW292113   7.495  13.100  11.436
63406SOL     OW92114  14.806   7.549  11.795
63406SOL    HW192115  14.776   7.623  11.743
63406SOL    HW292116  14.873   7.507  11.742
63407SOL     OW92117   3.143  14.144   6.721
63407SOL    HW192118   3.181  14.065   6.761
63407SOL    HW292119   3.051  14.141   6.745
63408SOL     OW92120  10.201   3.342   7.373
63408SOL    HW192121  10.211   3.414   7.435
63408SOL    HW292122  10.287   3.334   7.331
63409SOL     OW92123   9.669   9.257   1.278
63409SOL    HW192124   9.633   9.314   1.347
63409SOL    HW292125   9.613   9.273   1.203
63410SOL     OW92126   0.420  12.512  13.799
63410SOL    HW192127   0.422  12.465  13.882
63410SOL    HW292128   0.416  12.443  13.732
63411SOL     OW92129   9.929  12.252   4.610
63411SOL    HW192130   9.989  12.191   4.568
63411SOL    HW292131   9.967  12.339   4.593
63412SOL     OW92132   8.856   5.987  14.217
63412SOL    HW192133   8.784   5.985  14.155
63412SOL    HW292134   8.932   6.014  14.165
63413SOL     OW92135  14.453   9.960   1.183
63413SOL    HW192136  14.516   9.893   1.209
63413SOL    HW292137  14.406   9.981   1.263
63414SOL     OW92138   8.807  12.881  12.609
63414SOL    HW192139   8.716  12.863  12.635
63414SOL    HW292140   8.816  12.838  12.524
63415SOL     OW92141   7.020   0.697   0.022
63415SOL    HW192142   6.994   0.619   0.070
63415SOL    HW292143   6.971   0.693  14.822
63416SOL     OW92144  13.119   5.566  10.332
63416SOL    HW192145  13.119   5.506  10.406
63416SOL    HW292146  13.201   5.616  10.342
63417SOL     OW92147  12.640   0.785   0.576
63417SOL    HW192148  12.580   0.791   0.651
63417SOL    HW292149  12.727   0.799   0.613
63418SOL     OW92150  10.134   5.582  12.882
63418SOL    HW192151  10.111   5.552  12.794
63418SOL    HW292152  10.132   5.502  12.935
63419SOL     OW92153  11.403  10.381   2.813
63419SOL    HW192154  11.462  10.308   2.797
63419SOL    HW292155  11.456  10.447   2.857
63420SOL     OW92156  12.824   7.111   6.785
63420SOL    HW192157  12.803   7.140   6.873
63420SOL    HW292158  12.752   7.053   6.761
63421SOL     OW92159  13.219   7.141   6.534
63421SOL    HW192160  13.161   7.097   6.596
63421SOL    HW292161  13.255   7.071   6.480
63422SOL     OW92162   5.702   9.743   4.969
63422SOL    HW192163   5.702   9.656   5.009
63422SOL    HW292164   5.789   9.753   4.932
63423SOL     OW92165  10.994   2.907  10.065
63423SOL    HW192166  11.063   2.861  10.017
63423SOL    HW292167  11.017   2.999  10.059
63424SOL     OW92168   8.386  12.297   8.897
63424SOL    HW192169   8.372  12.309   8.991
63424SOL    HW292170   8.351  12.377   8.857
63425SOL     OW92171   5.884   3.739  14.720
63425SOL    HW192172   5.799   3.697  14.732
63425SOL    HW292173   5.863   3.831  14.704
63426SOL     OW92174  13.881  14.274   2.682
63426SOL    HW192175  13.883  14.247   2.773
63426SOL    HW292176  13.921  14.201   2.634
63427SOL     OW92177   7.653  12.588   9.413
63427SOL    HW192178   7.559  12.571   9.409
63427SOL    HW292179   7.681  12.592   9.322
63428SOL     OW92180  14.831   2.070   9.697
63428SOL    HW192181  14.881   1.998   9.658
63428SOL    HW292182   0.012   2.142   9.702
63429SOL     OW92183  13.538  12.804   2.667
63429SOL    HW192184  13.500  12.728   2.712
63429SOL    HW292185  13.613  12.829   2.720
63430SOL     OW92186   4.391   2.480   8.068
63430SOL    HW192187   4.403   2.398   8.115
63430SOL    HW292188   4.476   2.525   8.074
63431SOL     OW92189  10.166   2.487  12.076
63431SOL    HW192190  10.234   2.421  12.070
63431SOL    HW292191  10.122   2.469  12.159
63432SOL     OW92192  10.448   3.938   6.949
63432SOL    HW192193  10.361   3.948   6.989
63432SOL    HW292194  10.432   3.941   6.855
63433SOL     OW92195   5.521   4.768  11.779
63433SOL    HW192196   5.510   4.823  11.856
63433SOL    HW292197   5.611   4.735  11.785
63434SOL     OW92198   9.200   7.298  12.702
63434SOL    HW192199   9.121   7.247  12.683
63434SOL    HW292200   9.179   7.346  12.782
63435SOL     OW92201   5.467   2.647   0.607
63435SOL    HW192202   5.513   2.563   0.600
63435SOL    HW292203   5.376   2.623   0.625
63436SOL     OW92204   9.621   6.637   3.416
63436SOL    HW192205   9.591   6.635   3.507
63436SOL    HW292206   9.549   6.674   3.367
63437SOL     OW92207   7.071   9.550  13.728
63437SOL    HW192208   7.141   9.584  13.784
63437SOL    HW292209   7.006   9.620  13.727
63438SOL     OW92210   8.512   5.856   3.123
63438SOL    HW192211   8.434   5.807   3.149
63438SOL    HW292212   8.585   5.795   3.134
63439SOL     OW92213   1.435   8.321  10.205
63439SOL    HW192214   1.483   8.391  10.161
63439SOL    HW292215   1.458   8.330  10.298
63440SOL     OW92216  13.846  12.988   8.673
63440SOL    HW192217  13.804  13.074   8.671
63440SOL    HW292218  13.937  13.006   8.696
63441SOL     OW92219   0.182  14.704  12.937
63441SOL    HW192220   0.250  14.641  12.913
63441SOL    HW292221   0.100  14.654  12.932
63442SOL     OW92222  14.686   2.003  14.128
63442SOL    HW192223  14.608   2.052  14.151
63442SOL    HW292224  14.744   2.013  14.203
63443SOL     OW92225   7.622   9.031  12.955
63443SOL    HW192226   7.667   9.058  13.035
63443SOL    HW292227   7.629   9.106  12.897
63444SOL     OW92228   8.260   6.505  11.510
63444SOL    HW192229   8.270   6.420  11.469
63444SOL    HW292230   8.305   6.498  11.594
63445SOL     OW92231   7.249  10.413  11.885
63445SOL    HW192232   7.173  10.396  11.941
63445SOL    HW292233   7.294  10.329  11.881
63446SOL     OW92234   4.600   9.799   2.394
63446SOL    HW192235   4.619   9.742   2.319
63446SOL    HW292236   4.628   9.886   2.366
63447SOL     OW92237  12.641   3.858   1.338
63447SOL    HW192238  12.691   3.779   1.358
63447SOL    HW292239  12.646   3.866   1.242
63448SOL     OW92240   6.937  14.612   6.993
63448SOL    HW192241   6.894  14.646   7.072
63448SOL    HW292242   6.865  14.587   6.935
63449SOL     OW92243   1.702  12.916   6.079
63449SOL    HW192244   1.727  12.825   6.066
63449SOL    HW292245   1.654  12.917   6.162
63450SOL     OW92246   3.375   1.370   2.036
63450SOL    HW192247   3.446   1.336   2.090
63450SOL    HW292248   3.372   1.311   1.961
63451SOL     OW92249   5.359   8.263   1.050
63451SOL    HW192250   5.359   8.353   1.016
63451SOL    HW292251   5.357   8.274   1.145
63452SOL     OW92252   6.461  11.517   3.425
63452SOL    HW192253   6.549  11.480   3.419
63452SOL    HW292254   6.421  11.498   3.341
63453SOL     OW92255  10.366   3.965  13.629
63453SOL    HW192256  10.364   3.916  13.547
63453SOL    HW292257  10.351   3.899  13.697
63454SOL     OW92258   4.889   7.756  12.305
63454SOL    HW192259   4.943   7.723  12.376
63454SOL    HW292260   4.939   7.738  12.225
63455SOL     OW92261   3.938   4.562   0.314
63455SOL    HW192262   3.863   4.598   0.267
63455SOL    HW292263   4.012   4.613   0.283
63456SOL     OW92264   3.021   5.949  10.350
63456SOL    HW192265   2.936   5.993  10.340
63456SOL    HW292266   3.003   5.878  10.411
63457SOL     OW92267  12.984   9.371   5.371
63457SOL    HW192268  12.916   9.374   5.305
63457SOL    HW292269  12.987   9.279   5.399
63458SOL     OW92270   5.411  12.653   5.078
63458SOL    HW192271   5.402  12.622   5.168
63458SOL    HW292272   5.328  12.632   5.037
63459SOL     OW92273  10.389  10.051  10.330
63459SOL    HW192274  10.325  10.013  10.391
63459SOL    HW292275  10.434   9.975  10.293
63460SOL     OW92276   4.642   0.426  14.535
63460SOL    HW192277   4.662   0.361  14.468
63460SOL    HW292278   4.570   0.387  14.585
63461SOL     OW92279  10.006  14.210   5.138
63461SOL    HW192280  10.063  14.133   5.138
63461SOL    HW292281  10.039  14.265   5.067
63462SOL     OW92282  14.273   5.005  14.367
63462SOL    HW192283  14.251   4.979  14.457
63462SOL    HW292284  14.351   4.953  14.346
63463SOL     OW92285   4.036  12.972   8.647
63463SOL    HW192286   4.004  13.062   8.647
63463SOL    HW292287   4.109  12.972   8.708
63464SOL     OW92288  12.420   3.908   1.055
63464SOL    HW192289  12.473   3.969   1.106
63464SOL    HW292290  12.446   3.822   1.087
63465SOL     OW92291   0.410  14.297  12.859
63465SOL    HW192292   0.399  14.305  12.954
63465SOL    HW292293   0.401  14.387  12.826
63466SOL     OW92294  11.191   7.528   7.144
63466SOL    HW192295  11.157   7.454   7.095
63466SOL    HW292296  11.260   7.491   7.199
63467SOL     OW92297  12.511   9.722   0.442
63467SOL    HW192298  12.602   9.700   0.420
63467SOL    HW292299  12.513   9.741   0.535
63468SOL     OW92300  14.621   1.783  11.950
63468SOL    HW192301  14.603   1.696  11.915
63468SOL    HW292302  14.702   1.772  12.000
63469SOL     OW92303   3.046   3.050   0.883
63469SOL    HW192304   3.055   2.969   0.933
63469SOL    HW292305   2.966   3.090   0.918
63470SOL     OW92306   6.592   6.728  11.924
63470SOL    HW192307   6.610   6.733  11.830
63470SOL    HW292308   6.678   6.717  11.964
63471SOL     OW92309  13.438  10.169   2.626
63471SOL    HW192310  13.468  10.258   2.645
63471SOL    HW292311  13.406  10.173   2.536
63472SOL     OW92312   7.302  11.343  11.087
63472SOL    HW192313   7.226  11.398  11.106
63472SOL    HW292314   7.375  11.403  11.079
63473SOL     OW92315  13.438   1.990   9.189
63473SOL    HW192316  13.450   2.010   9.096
63473SOL    HW292317  13.378   2.058   9.220
63474SOL     OW92318   3.950  13.617   0.426
63474SOL    HW192319   4.045  13.603   0.423
63474SOL    HW292320   3.921  13.565   0.501
63475SOL     OW92321   8.511   4.515   7.796
63475SOL    HW192322   8.418   4.511   7.818
63475SOL    HW292323   8.538   4.603   7.824
63476SOL     OW92324   8.456   2.762   8.441
63476SOL    HW192325   8.415   2.739   8.357
63476SOL    HW292326   8.451   2.857   8.444
63477SOL     OW92327  11.845   9.013   1.637
63477SOL    HW192328  11.834   8.925   1.672
63477SOL    HW292329  11.912   9.053   1.692
63478SOL     OW92330   7.883   9.565   0.884
63478SOL    HW192331   7.822   9.535   0.951
63478SOL    HW292332   7.907   9.486   0.836
63479SOL     OW92333   7.056   2.011   1.089
63479SOL    HW192334   7.107   2.084   1.053
63479SOL    HW292335   7.075   2.012   1.182
63480SOL     OW92336   4.817  13.504   8.472
63480SOL    HW192337   4.772  13.581   8.506
63480SOL    HW292338   4.897  13.538   8.432
63481SOL     OW92339   2.076  13.752   1.622
63481SOL    HW192340   2.141  13.810   1.661
63481SOL    HW292341   2.071  13.779   1.530
63482SOL     OW92342   6.085  12.832   4.692
63482SOL    HW192343   6.141  12.769   4.737
63482SOL    HW292344   5.999  12.790   4.689
63483SOL     OW92345   0.417   9.700  13.172
63483SOL    HW192346   0.407   9.759  13.097
63483SOL    HW292347   0.498   9.652  13.154
63484SOL     OW92348  10.030  13.459  12.653
63484SOL    HW192349   9.937  13.473  12.636
63484SOL    HW292350  10.060  13.539  12.694
63485SOL     OW92351  12.463   3.482   6.131
63485SOL    HW192352  12.484   3.574   6.114
63485SOL    HW292353  12.484   3.437   6.049
63486SOL     OW92354  10.760   5.661   8.705
63486SOL    HW192355  10.816   5.738   8.705
63486SOL    HW292356  10.724   5.657   8.793
63487SOL     OW92357   0.817   4.654   3.899
63487SOL    HW192358   0.875   4.616   3.965
63487SOL    HW292359   0.729   4.633   3.929
63488SOL     OW92360   6.609   9.630  12.793
63488SOL    HW192361   6.562   9.700  12.748
63488SOL    HW292362   6.577   9.634  12.883
63489SOL     OW92363   3.635  10.696   9.179
63489SOL    HW192364   3.729  10.707   9.166
63489SOL    HW292365   3.596  10.723   9.095
63490SOL     OW92366  11.145  14.221   3.984
63490SOL    HW192367  11.082  14.233   3.912
63490SOL    HW292368  11.215  14.168   3.947
63491SOL     OW92369  12.509  14.693   3.773
63491SOL    HW192370  12.536  14.766   3.828
63491SOL    HW292371  12.456  14.732   3.704
63492SOL     OW92372  11.712   0.283   0.035
63492SOL    HW192373  11.682   0.340   0.106
63492SOL    HW292374  11.634   0.233   0.010
63493SOL     OW92375   0.457   3.404   2.371
63493SOL    HW192376   0.452   3.495   2.402
63493SOL    HW292377   0.395   3.357   2.427
63494SOL     OW92378  10.976   5.379   8.580
63494SOL    HW192379  11.038   5.305   8.584
63494SOL    HW292380  11.030   5.452   8.550
63495SOL     OW92381   9.502  10.893   9.193
63495SOL    HW192382   9.553  10.911   9.272
63495SOL    HW292383   9.459  10.809   9.211
63496SOL     OW92384   0.929  11.426   3.835
63496SOL    HW192385   0.972  11.435   3.919
63496SOL    HW292386   0.892  11.513   3.818
63497SOL     OW92387   9.989  11.590   2.931
63497SOL    HW192388  10.058  11.656   2.934
63497SOL    HW292389   9.990  11.558   2.841
63498SOL     OW92390  13.769   0.849  12.095
63498SOL    HW192391  13.746   0.757  12.110
63498SOL    HW292392  13.851   0.861  12.144
63499SOL     OW92393  11.166   7.738   3.470
63499SOL    HW192394  11.132   7.827   3.475
63499SOL    HW292395  11.089   7.682   3.466
63500SOL     OW92396   3.938   2.059   8.148
63500SOL    HW192397   3.902   2.060   8.237
63500SOL    HW292398   3.998   2.134   8.146
63501SOL     OW92399   1.456   9.322   3.252
63501SOL    HW192400   1.404   9.400   3.273
63501SOL    HW292401   1.508   9.347   3.176
63502SOL     OW92402  11.499   3.075   1.939
63502SOL    HW192403  11.428   3.018   1.910
63502SOL    HW292404  11.576   3.043   1.892
63503SOL     OW92405   1.664   2.974   1.716
63503SOL    HW192406   1.597   3.022   1.765
63503SOL    HW292407   1.631   2.971   1.627
63504SOL     OW92408   3.922   3.061   0.133
63504SOL    HW192409   3.875   2.996   0.185
63504SOL    HW292410   3.854   3.118   0.098
63505SOL     OW92411   0.281  10.526   0.601
63505SOL    HW192412   0.339  10.450   0.596
63505SOL    HW292413   0.296  10.562   0.689
63506SOL     OW92414   7.531  13.255   0.843
63506SOL    HW192415   7.485  13.241   0.761
63506SOL    HW292416   7.603  13.192   0.841
63507SOL     OW92417   6.167   9.605  13.428
63507SOL    HW192418   6.151   9.627  13.337
63507SOL    HW292419   6.262   9.605  13.437
63508SOL     OW92420   9.627   9.171  14.050
63508SOL    HW192421   9.647   9.163  13.957
63508SOL    HW292422   9.532   9.164  14.056
63509SOL     OW92423   3.942  10.653  12.019
63509SOL    HW192424   3.903  10.715  12.081
63509SOL    HW292425   4.027  10.692  11.997
63510SOL     OW92426  13.159  10.043  11.125
63510SOL    HW192427  13.109   9.964  11.147
63510SOL    HW292428  13.166  10.041  11.030
63511SOL     OW92429  13.441   7.767   3.095
63511SOL    HW192430  13.413   7.845   3.048
63511SOL    HW292431  13.517   7.736   3.045
63512SOL     OW92432   6.257   0.706  12.707
63512SOL    HW192433   6.221   0.769  12.644
63512SOL    HW292434   6.243   0.621  12.665
63513SOL     OW92435  11.412   2.898   0.131
63513SOL    HW192436  11.387   2.839   0.202
63513SOL    HW292437  11.508   2.902   0.136
63514SOL     OW92438   0.706  14.643  10.585
63514SOL    HW192439   0.789  14.692  10.589
63514SOL    HW292440   0.646  14.700  10.538
63515SOL     OW92441   8.315   4.272   5.086
63515SOL    HW192442   8.369   4.336   5.039
63515SOL    HW292443   8.350   4.274   5.176
63516SOL     OW92444  12.347  11.241  14.037
63516SOL    HW192445  12.350  11.180  14.110
63516SOL    HW292446  12.437  11.272  14.028
63517SOL     OW92447   2.818   0.207   7.263
63517SOL    HW192448   2.847   0.143   7.197
63517SOL    HW292449   2.893   0.216   7.321
63518SOL     OW92450   5.352  12.425  12.518
63518SOL    HW192451   5.416  12.495  12.528
63518SOL    HW292452   5.282  12.448  12.579
63519SOL     OW92453  10.743   4.049   8.384
63519SOL    HW192454  10.719   4.049   8.291
63519SOL    HW292455  10.783   4.135   8.399
63520SOL     OW92456   6.250   6.041   2.199
63520SOL    HW192457   6.333   6.076   2.167
63520SOL    HW292458   6.185   6.105   2.171
63521SOL     OW92459  10.383  12.088   4.639
63521SOL    HW192460  10.409  12.006   4.596
63521SOL    HW292461  10.413  12.157   4.581
63522SOL     OW92462   4.429   5.145   6.765
63522SOL    HW192463   4.482   5.067   6.784
63522SOL    HW292464   4.493   5.216   6.756
63523SOL     OW92465   8.535  12.305   3.271
63523SOL    HW192466   8.481  12.251   3.214
63523SOL    HW292467   8.623  12.269   3.263
63524SOL     OW92468  14.762   6.689   9.929
63524SOL    HW192469  14.755   6.783   9.909
63524SOL    HW292470  14.671   6.660   9.940
63525SOL     OW92471   2.486   9.655  13.074
63525SOL    HW192472   2.423   9.725  13.059
63525SOL    HW292473   2.544   9.689  13.142
63526SOL     OW92474  11.481  11.193   0.257
63526SOL    HW192475  11.402  11.150   0.290
63526SOL    HW292476  11.465  11.204   0.163
63527SOL     OW92477  11.483  10.413   5.863
63527SOL    HW192478  11.392  10.441   5.864
63527SOL    HW292479  11.518  10.442   5.947
63528SOL     OW92480  10.899   3.399   3.713
63528SOL    HW192481  10.994   3.406   3.717
63528SOL    HW292482  10.870   3.403   3.805
63529SOL     OW92483   9.435  12.404   7.580
63529SOL    HW192484   9.490  12.362   7.514
63529SOL    HW292485   9.345  12.387   7.551
63530SOL     OW92486   2.209  13.443   9.863
63530SOL    HW192487   2.232  13.443   9.771
63530SOL    HW292488   2.230  13.532   9.893
63531SOL     OW92489   6.098   5.424  12.393
63531SOL    HW192490   6.032   5.458  12.454
63531SOL    HW292491   6.119   5.498  12.336
63532SOL     OW92492   2.959   5.066   8.251
63532SOL    HW192493   2.915   5.134   8.200
63532SOL    HW292494   2.962   5.101   8.340
63533SOL     OW92495  12.584   3.839   4.226
63533SOL    HW192496  12.674   3.804   4.228
63533SOL    HW292497  12.568   3.856   4.133
63534SOL     OW92498  10.616   0.765   3.871
63534SOL    HW192499  10.643   0.690   3.819
63534SOL    HW292500  10.673   0.763   3.948
63535SOL     OW92501   7.857   2.579  13.756
63535SOL    HW192502   7.934   2.565  13.701
63535SOL    HW292503   7.783   2.554  13.700
63536SOL     OW92504  14.585   8.750   9.361
63536SOL    HW192505  14.611   8.830   9.315
63536SOL    HW292506  14.506   8.775   9.409
63537SOL     OW92507   2.510  12.897   0.255
63537SOL    HW192508   2.588  12.875   0.204
63537SOL    HW292509   2.497  12.823   0.314
63538SOL     OW92510   6.029   5.931  12.232
63538SOL    HW192511   5.955   5.872  12.219
63538SOL    HW292512   6.017   5.967  12.319
63539SOL     OW92513   2.661   6.409   4.292
63539SOL    HW192514   2.662   6.502   4.311
63539SOL    HW292515   2.591   6.398   4.228
63540SOL     OW92516  14.067  13.762   0.402
63540SOL    HW192517  14.116  13.769   0.321
63540SOL    HW292518  14.060  13.667   0.418
63541SOL     OW92519  12.005   7.687   8.039
63541SOL    HW192520  11.975   7.615   7.984
63541SOL    HW292521  11.942   7.757   8.022
63542SOL     OW92522  12.186   3.249  13.632
63542SOL    HW192523  12.182   3.159  13.665
63542SOL    HW292524  12.182   3.303  13.711
63543SOL     OW92525   7.736   9.587   0.340
63543SOL    HW192526   7.829   9.573   0.321
63543SOL    HW292527   7.693   9.511   0.302
63544SOL     OW92528  10.818   4.932   3.834
63544SOL    HW192529  10.747   4.925   3.898
63544SOL    HW292530  10.856   5.019   3.849
63545SOL     OW92531  13.160  13.066  11.025
63545SOL    HW192532  13.247  13.059  11.066
63545SOL    HW292533  13.166  13.009  10.948
63546SOL     OW92534  12.351   8.620   0.945
63546SOL    HW192535  12.391   8.533   0.941
63546SOL    HW292536  12.260   8.604   0.970
63547SOL     OW92537   7.633  10.158  11.937
63547SOL    HW192538   7.692  10.106  11.883
63547SOL    HW292539   7.605  10.098  12.006
63548SOL     OW92540   2.875  13.420   6.410
63548SOL    HW192541   2.801  13.448   6.357
63548SOL    HW292542   2.835  13.378   6.486
63549SOL     OW92543  14.793   5.664   9.062
63549SOL    HW192544  14.784   5.570   9.073
63549SOL    HW292545  14.728   5.702   9.121
63550SOL     OW92546  10.249   7.743   7.184
63550SOL    HW192547  10.156   7.764   7.176
63550SOL    HW292548  10.294   7.819   7.148
63551SOL     OW92549  10.349   7.539  10.941
63551SOL    HW192550  10.350   7.445  10.919
63551SOL    HW292551  10.259   7.567  10.922
63552SOL     OW92552   2.646  11.691   8.835
63552SOL    HW192553   2.636  11.785   8.818
63552SOL    HW292554   2.704  11.687   8.912
63553SOL     OW92555   9.761  13.782   7.664
63553SOL    HW192556   9.767  13.844   7.591
63553SOL    HW292557   9.678  13.736   7.650
63554SOL     OW92558   9.697  12.364   6.187
63554SOL    HW192559   9.693  12.459   6.181
63554SOL    HW292560   9.791  12.344   6.185
63555SOL     OW92561  14.631   5.133  12.829
63555SOL    HW192562  14.567   5.195  12.863
63555SOL    HW292563  14.607   5.121  12.737
63556SOL     OW92564   9.637   2.950   9.115
63556SOL    HW192565   9.584   3.029   9.106
63556SOL    HW292566   9.609   2.912   9.198
63557SOL     OW92567  14.829   3.719   0.406
63557SOL    HW192568  14.766   3.688   0.341
63557SOL    HW292569  14.788   3.798   0.443
63558SOL     OW92570   4.968  12.560  12.398
63558SOL    HW192571   5.049  12.610  12.392
63558SOL    HW292572   4.981  12.503  12.474
63559SOL     OW92573   7.373   0.240   1.685
63559SOL    HW192574   7.408   0.314   1.734
63559SOL    HW292575   7.337   0.182   1.752
63560SOL     OW92576   3.368   7.321  14.538
63560SOL    HW192577   3.291   7.356  14.583
63560SOL    HW292578   3.440   7.377  14.567
63561SOL     OW92579   7.214   9.205   2.416
63561SOL    HW192580   7.288   9.165   2.371
63561SOL    HW292581   7.177   9.266   2.352
63562SOL     OW92582   6.588   7.702   1.257
63562SOL    HW192583   6.559   7.671   1.171
63562SOL    HW292584   6.655   7.639   1.283
63563SOL     OW92585   8.898  14.585   3.148
63563SOL    HW192586   8.930  14.534   3.074
63563SOL    HW292587   8.804  14.592   3.133
63564SOL     OW92588   3.640   1.582   5.316
63564SOL    HW192589   3.557   1.627   5.301
63564SOL    HW292590   3.630   1.498   5.270
63565SOL     OW92591   9.705   3.585  10.150
63565SOL    HW192592   9.715   3.679  10.164
63565SOL    HW292593   9.647   3.579  10.074
63566SOL     OW92594   9.555   4.554  11.417
63566SOL    HW192595   9.485   4.616  11.396
63566SOL    HW292596   9.592   4.530  11.332
63567SOL     OW92597   7.529  14.198   8.941
63567SOL    HW192598   7.498  14.114   8.973
63567SOL    HW292599   7.568  14.240   9.018
63568SOL     OW92600   6.016   5.234  14.839
63568SOL    HW192601   6.002   5.280  14.755
63568SOL    HW292602   6.086   5.283  14.882
63569SOL     OW92603  14.572   9.238  10.060
63569SOL    HW192604  14.632   9.174  10.022
63569SOL    HW292605  14.628   9.291  10.117
63570SOL     OW92606  11.353   1.222   7.735
63570SOL    HW192607  11.323   1.294   7.680
63570SOL    HW292608  11.424   1.260   7.787
63571SOL     OW92609  12.238   6.131   2.955
63571SOL    HW192610  12.173   6.060   2.965
63571SOL    HW292611  12.214   6.173   2.872
63572SOL     OW92612   3.401  10.609  11.177
63572SOL    HW192613   3.358  10.669  11.117
63572SOL    HW292614   3.494  10.618  11.157
63573SOL     OW92615  11.453   6.219   6.701
63573SOL    HW192616  11.383   6.198   6.640
63573SOL    HW292617  11.507   6.283   6.654
63574SOL     OW92618   1.132   8.084  10.540
63574SOL    HW192619   1.227   8.074  10.542
63574SOL    HW292620   1.109   8.072  10.447
63575SOL     OW92621   2.591  10.844   0.986
63575SOL    HW192622   2.656  10.776   1.005
63575SOL    HW292623   2.512  10.797   0.961
63576SOL     OW92624  13.871  12.732   8.570
63576SOL    HW192625  13.845  12.821   8.596
63576SOL    HW292626  13.914  12.744   8.486
63577SOL     OW92627   3.732   3.048  14.025
63577SOL    HW192628   3.735   2.957  13.995
63577SOL    HW292629   3.676   3.046  14.103
63578SOL     OW92630   4.052  13.996  10.700
63578SOL    HW192631   3.995  13.978  10.626
63578SOL    HW292632   4.140  14.002  10.662
63579SOL     OW92633   8.421   9.066  12.495
63579SOL    HW192634   8.347   9.052  12.437
63579SOL    HW292635   8.496   9.033  12.446
63580SOL     OW92636   3.985   2.384   9.562
63580SOL    HW192637   4.031   2.467   9.577
63580SOL    HW292638   4.054   2.320   9.547
63581SOL     OW92639   2.358  10.442   7.854
63581SOL    HW192640   2.350  10.373   7.788
63581SOL    HW292641   2.354  10.395   7.937
63582SOL     OW92642  10.435  13.390   5.182
63582SOL    HW192643  10.349  13.395   5.224
63582SOL    HW292644  10.415  13.382   5.089
63583SOL     OW92645  11.376   9.182   0.386
63583SOL    HW192646  11.409   9.099   0.351
63583SOL    HW292647  11.293   9.160   0.427
63584SOL     OW92648  12.483   9.054   8.385
63584SOL    HW192649  12.552   9.009   8.336
63584SOL    HW292650  12.511   9.047   8.476
63585SOL     OW92651   0.580   6.197  14.258
63585SOL    HW192652   0.621   6.112  14.246
63585SOL    HW292653   0.486   6.178  14.263
63586SOL     OW92654   3.118   3.712   9.780
63586SOL    HW192655   3.165   3.639   9.740
63586SOL    HW292656   3.126   3.783   9.716
63587SOL     OW92657  13.557   4.339   4.881
63587SOL    HW192658  13.520   4.343   4.970
63587SOL    HW292659  13.489   4.377   4.826
63588SOL     OW92660  14.471   9.094   8.362
63588SOL    HW192661  14.544   9.090   8.301
63588SOL    HW292662  14.393   9.102   8.306
63589SOL     OW92663   7.630   0.922  10.042
63589SOL    HW192664   7.565   0.951  10.106
63589SOL    HW292665   7.637   0.995   9.980
63590SOL     OW92666   6.214  14.282  14.378
63590SOL    HW192667   6.204  14.356  14.319
63590SOL    HW292668   6.201  14.319  14.465
63591SOL     OW92669   9.202   8.602  12.728
63591SOL    HW192670   9.182   8.696  12.721
63591SOL    HW292671   9.255   8.584  12.651
63592SOL     OW92672   8.293  10.783  11.726
63592SOL    HW192673   8.247  10.770  11.808
63592SOL    HW292674   8.236  10.746  11.659
63593SOL     OW92675  11.154   1.252   7.905
63593SOL    HW192676  11.223   1.242   7.840
63593SOL    HW292677  11.139   1.163   7.937
63594SOL     OW92678  12.921  10.002   7.977
63594SOL    HW192679  12.950   9.942   7.908
63594SOL    HW292680  12.826  10.000   7.972
63595SOL     OW92681   3.781   5.048   9.071
63595SOL    HW192682   3.776   5.111   9.000
63595SOL    HW292683   3.720   5.081   9.137
63596SOL     OW92684  10.864   7.637   0.722
63596SOL    HW192685  10.784   7.597   0.757
63596SOL    HW292686  10.833   7.714   0.673
63597SOL     OW92687  10.250   6.356   3.811
63597SOL    HW192688  10.278   6.392   3.895
63597SOL    HW292689  10.159   6.383   3.803
63598SOL     OW92690   4.801   5.861   9.489
63598SOL    HW192691   4.817   5.845   9.396
63598SOL    HW292692   4.887   5.881   9.525
63599SOL     OW92693  12.890  12.363   2.461
63599SOL    HW192694  12.806  12.406   2.478
63599SOL    HW292695  12.896  12.295   2.528
63600SOL     OW92696   5.306   7.734   9.848
63600SOL    HW192697   5.287   7.823   9.876
63600SOL    HW292698   5.316   7.740   9.753
63601SOL     OW92699  10.325   9.665   5.947
63601SOL    HW192700  10.239   9.641   5.983
63601SOL    HW292701  10.379   9.681   6.025
63602SOL     OW92702   0.782  11.714   8.335
63602SOL    HW192703   0.724  11.658   8.283
63602SOL    HW292704   0.846  11.746   8.273
63603SOL     OW92705   7.718   3.264   4.700
63603SOL    HW192706   7.708   3.313   4.782
63603SOL    HW292707   7.656   3.192   4.707
63604SOL     OW92708   4.760  11.324  14.631
63604SOL    HW192709   4.809  11.391  14.583
63604SOL    HW292710   4.765  11.246  14.576
63605SOL     OW92711   8.724  12.738   9.340
63605SOL    HW192712   8.700  12.830   9.327
63605SOL    HW292713   8.640  12.694   9.354
63606SOL     OW92714   8.080   2.808  11.876
63606SOL    HW192715   8.088   2.902  11.888
63606SOL    HW292716   8.001   2.797  11.824
63607SOL     OW92717  10.318   7.070   8.675
63607SOL    HW192718  10.372   6.991   8.681
63607SOL    HW292719  10.277   7.077   8.761
63608SOL     OW92720   2.780  13.819   0.410
63608SOL    HW192721   2.762  13.890   0.348
63608SOL    HW292722   2.861  13.844   0.453
63609SOL     OW92723  11.374   3.394   5.063
63609SOL    HW192724  11.309   3.338   5.020
63609SOL    HW292725  11.432   3.423   4.992
63610SOL     OW92726   7.147  14.106   0.960
63610SOL    HW192727   7.064  14.110   0.913
63610SOL    HW292728   7.137  14.169   1.032
63611SOL     OW92729   8.572   4.565  13.588
63611SOL    HW192730   8.508   4.567  13.517
63611SOL    HW292731   8.520   4.558  13.668
63612SOL     OW92732  13.175   5.218   3.146
63612SOL    HW192733  13.143   5.140   3.192
63612SOL    HW292734  13.149   5.204   3.055
63613SOL     OW92735  12.089   9.776   4.415
63613SOL    HW192736  12.058   9.706   4.357
63613SOL    HW292737  12.151   9.826   4.362
63614SOL     OW92738  10.627   6.057   5.084
63614SOL    HW192739  10.551   6.000   5.071
63614SOL    HW292740  10.591   6.145   5.091
63615SOL     OW92741  11.761  14.474   0.997
63615SOL    HW192742  11.722  14.405   1.050
63615SOL    HW292743  11.738  14.451   0.907
63616SOL     OW92744   4.685  13.964   9.785
63616SOL    HW192745   4.702  13.914   9.706
63616SOL    HW292746   4.760  13.945   9.842
63617SOL     OW92747  12.431   9.615   1.702
63617SOL    HW192748  12.522   9.633   1.727
63617SOL    HW292749  12.406   9.539   1.754
63618SOL     OW92750   0.160  13.827   5.965
63618SOL    HW192751   0.140  13.892   6.032
63618SOL    HW292752   0.088  13.834   5.903
63619SOL     OW92753  10.558  14.153  12.411
63619SOL    HW192754  10.633  14.207  12.385
63619SOL    HW292755  10.536  14.103  12.333
63620SOL     OW92756   2.749   5.850   3.243
63620SOL    HW192757   2.822   5.901   3.278
63620SOL    HW292758   2.764   5.849   3.148
63621SOL     OW92759  12.693  12.280   4.939
63621SOL    HW192760  12.744  12.351   4.981
63621SOL    HW292761  12.663  12.318   4.857
63622SOL     OW92762   8.080   0.377  12.296
63622SOL    HW192763   8.038   0.340  12.217
63622SOL    HW292764   8.159   0.420  12.263
63623SOL     OW92765   4.125   8.443   0.201
63623SOL    HW192766   4.190   8.509   0.178
63623SOL    HW292767   4.048   8.493   0.227
63624SOL     OW92768   8.869   1.392  11.444
63624SOL    HW192769   8.868   1.324  11.376
63624SOL    HW292770   8.829   1.468  11.402
63625SOL     OW92771  14.786   1.142  11.838
63625SOL    HW192772  14.706   1.106  11.800
63625SOL    HW292773  14.856   1.092  11.797
63626SOL     OW92774   8.399   5.077   8.661
63626SOL    HW192775   8.307   5.084   8.635
63626SOL    HW292776   8.397   5.039   8.749
63627SOL     OW92777  12.505   4.533   0.380
63627SOL    HW192778  12.459   4.605   0.423
63627SOL    HW292779  12.498   4.551   0.287
63628SOL     OW92780   0.376   2.657  13.337
63628SOL    HW192781   0.408   2.570  13.363
63628SOL    HW292782   0.362   2.702  13.421
63629SOL     OW92783  13.888   1.209   3.906
63629SOL    HW192784  13.889   1.120   3.871
63629SOL    HW292785  13.979   1.237   3.902
63630SOL     OW92786   2.628  10.916  11.677
63630SOL    HW192787   2.720  10.941  11.664
63630SOL    HW292788   2.631  10.825  11.704
63631SOL     OW92789   5.999   6.500   1.374
63631SOL    HW192790   6.000   6.479   1.467
63631SOL    HW292791   5.981   6.594   1.371
63632SOL     OW92792   1.827  10.629   2.303
63632SOL    HW192793   1.895  10.696   2.308
63632SOL    HW292794   1.755  10.665   2.355
63633SOL     OW92795   4.402  11.631   9.113
63633SOL    HW192796   4.310  11.604   9.107
63633SOL    HW292797   4.401  11.704   9.175
63634SOL     OW92798   4.634  13.610   5.498
63634SOL    HW192799   4.574  13.543   5.531
63634SOL    HW292800   4.704  13.614   5.563
63635SOL     OW92801   0.216   5.322  13.281
63635SOL    HW192802   0.282   5.317  13.212
63635SOL    HW292803   0.219   5.413  13.310
63636SOL     OW92804   0.932   5.005   1.410
63636SOL    HW192805   0.849   4.990   1.456
63636SOL    HW292806   0.974   5.076   1.459
63637SOL     OW92807   6.505  11.121   8.736
63637SOL    HW192808   6.548  11.084   8.659
63637SOL    HW292809   6.444  11.186   8.700
63638SOL     OW92810   3.236  11.848   9.940
63638SOL    HW192811   3.170  11.888   9.996
63638SOL    HW292812   3.315  11.848   9.993
63639SOL     OW92813   4.716   7.233   6.577
63639SOL    HW192814   4.646   7.191   6.527
63639SOL    HW292815   4.693   7.326   6.577
63640SOL     OW92816   7.523  14.130  10.650
63640SOL    HW192817   7.595  14.148  10.589
63640SOL    HW292818   7.480  14.215  10.662
63641SOL     OW92819   8.403  11.348   9.529
63641SOL    HW192820   8.322  11.374   9.485
63641SOL    HW292821   8.379  11.271   9.581
63642SOL     OW92822  14.535  10.104  10.205
63642SOL    HW192823  14.540  10.198  10.224
63642SOL    HW292824  14.531  10.099  10.109
63643SOL     OW92825  11.921  13.070   7.413
63643SOL    HW192826  11.919  12.987   7.365
63643SOL    HW292827  11.936  13.136   7.345
63644SOL     OW92828   4.093   5.269  13.486
63644SOL    HW192829   4.046   5.231  13.560
63644SOL    HW292830   4.185   5.254  13.507
63645SOL     OW92831  11.892   7.564  13.715
63645SOL    HW192832  11.953   7.607  13.655
63645SOL    HW292833  11.811   7.555  13.665
63646SOL     OW92834  14.360  13.284   1.172
63646SOL    HW192835  14.321  13.212   1.123
63646SOL    HW292836  14.398  13.242   1.249
63647SOL     OW92837   8.249   4.604   8.932
63647SOL    HW192838   8.304   4.560   8.997
63647SOL    HW292839   8.192   4.661   8.984
63648SOL     OW92840   9.003  10.055   0.463
63648SOL    HW192841   8.909  10.071   0.476
63648SOL    HW292842   9.043  10.080   0.546
63649SOL     OW92843   4.618   2.913   9.124
63649SOL    HW192844   4.550   2.977   9.103
63649SOL    HW292845   4.700   2.958   9.107
63650SOL     OW92846   8.819  11.320   8.548
63650SOL    HW192847   8.870  11.397   8.524
63650SOL    HW292848   8.741  11.356   8.592
63651SOL     OW92849   5.503   5.042   3.016
63651SOL    HW192850   5.476   4.982   2.946
63651SOL    HW292851   5.422   5.066   3.060
63652SOL     OW92852   3.354   7.467   8.552
63652SOL    HW192853   3.268   7.435   8.580
63652SOL    HW292854   3.369   7.545   8.604
63653SOL     OW92855  14.728  10.912   4.846
63653SOL    HW192856  14.805  10.880   4.800
63653SOL    HW292857  14.720  11.003   4.819
63654SOL     OW92858  12.132   4.905   3.730
63654SOL    HW192859  12.068   4.890   3.799
63654SOL    HW292860  12.111   4.840   3.663
63655SOL     OW92861   6.015   2.685   8.941
63655SOL    HW192862   6.065   2.604   8.949
63655SOL    HW292863   5.924   2.657   8.932
63656SOL     OW92864   0.512   1.762  11.624
63656SOL    HW192865   0.548   1.811  11.698
63656SOL    HW292866   0.461   1.692  11.665
63657SOL     OW92867  11.469   6.778   3.338
63657SOL    HW192868  11.521   6.779   3.258
63657SOL    HW292869  11.483   6.691   3.375
63658SOL     OW92870   9.433  11.362   3.385
63658SOL    HW192871   9.357  11.342   3.330
63658SOL    HW292872   9.440  11.286   3.444
63659SOL     OW92873  10.675   6.412   6.076
63659SOL    HW192874  10.585   6.386   6.095
63659SOL    HW292875  10.700   6.468   6.149
63660SOL     OW92876   1.356   8.000   0.196
63660SOL    HW192877   1.376   7.991   0.103
63660SOL    HW292878   1.313   7.917   0.219
63661SOL     OW92879   9.836  12.293  13.674
63661SOL    HW192880   9.923  12.255  13.682
63661SOL    HW292881   9.847  12.367  13.614
63662SOL     OW92882   8.341  11.362   2.379
63662SOL    HW192883   8.410  11.345   2.443
63662SOL    HW292884   8.277  11.414   2.426
63663SOL     OW92885   2.335   4.563   7.330
63663SOL    HW192886   2.386   4.545   7.410
63663SOL    HW292887   2.379   4.638   7.290
63664SOL     OW92888   7.212   4.331   6.336
63664SOL    HW192889   7.159   4.384   6.276
63664SOL    HW292890   7.152   4.308   6.407
63665SOL     OW92891   7.393   7.207  13.612
63665SOL    HW192892   7.484   7.233  13.598
63665SOL    HW292893   7.348   7.232  13.531
63666SOL     OW92894  12.460   6.885  12.748
63666SOL    HW192895  12.365   6.876  12.749
63666SOL    HW292896  12.491   6.827  12.817
63667SOL     OW92897   6.519  14.175   3.730
63667SOL    HW192898   6.569  14.187   3.810
63667SOL    HW292899   6.508  14.263   3.695
63668SOL     OW92900   6.809  11.928   8.478
63668SOL    HW192901   6.731  11.984   8.471
63668SOL    HW292902   6.822  11.918   8.572
63669SOL     OW92903  11.483   6.114  13.291
63669SOL    HW192904  11.443   6.027  13.295
63669SOL    HW292905  11.568   6.103  13.335
63670SOL     OW92906   1.579   6.848  14.811
63670SOL    HW192907   1.528   6.789  14.756
63670SOL    HW292908   1.554   6.827   0.018
63671SOL     OW92909   0.674  12.852   3.195
63671SOL    HW192910   0.686  12.943   3.222
63671SOL    HW292911   0.705  12.800   3.270
63672SOL     OW92912   3.555   4.654   7.285
63672SOL    HW192913   3.575   4.733   7.235
63672SOL    HW292914   3.478   4.618   7.243
63673SOL     OW92915   9.211   4.341   8.476
63673SOL    HW192916   9.127   4.381   8.452
63673SOL    HW292917   9.270   4.415   8.489
63674SOL     OW92918   7.270   4.682   3.069
63674SOL    HW192919   7.235   4.634   2.993
63674SOL    HW292920   7.292   4.613   3.132
63675SOL     OW92921  11.444  11.015   6.062
63675SOL    HW192922  11.411  11.086   6.008
63675SOL    HW292923  11.409  11.033   6.149
63676SOL     OW92924   0.493   1.514   1.268
63676SOL    HW192925   0.409   1.503   1.224
63676SOL    HW292926   0.476   1.496   1.360
63677SOL     OW92927  10.749  11.425  13.799
63677SOL    HW192928  10.817  11.493  13.800
63677SOL    HW292929  10.797  11.343  13.791
63678SOL     OW92930  13.285   1.007  12.664
63678SOL    HW192931  13.229   0.940  12.625
63678SOL    HW292932  13.227   1.081  12.679
63679SOL     OW92933   5.021   7.051  10.346
63679SOL    HW192934   5.062   7.050  10.259
63679SOL    HW292935   5.094   7.067  10.406
63680SOL     OW92936  12.089   8.330  14.252
63680SOL    HW192937  12.017   8.388  14.228
63680SOL    HW292938  12.048   8.245  14.265
63681SOL     OW92939   5.816   0.802   8.132
63681SOL    HW192940   5.887   0.825   8.072
63681SOL    HW292941   5.744   0.860   8.107
63682SOL     OW92942   5.946  13.036   8.869
63682SOL    HW192943   5.882  13.107   8.874
63682SOL    HW292944   6.020  13.067   8.922
63683SOL     OW92945  14.208   5.795   6.273
63683SOL    HW192946  14.262   5.746   6.336
63683SOL    HW292947  14.164   5.727   6.222
63684SOL     OW92948  12.490   4.557  12.221
63684SOL    HW192949  12.499   4.467  12.187
63684SOL    HW292950  12.513   4.550  12.313
63685SOL     OW92951   4.987  11.744  12.259
63685SOL    HW192952   4.994  11.652  12.231
63685SOL    HW292953   4.893  11.763  12.256
63686SOL     OW92954  14.269   8.029   1.070
63686SOL    HW192955  14.208   7.959   1.094
63686SOL    HW292956  14.329   7.988   1.008
63687SOL     OW92957   9.417   0.896  11.982
63687SOL    HW192958   9.324   0.917  11.988
63687SOL    HW292959   9.443   0.925  11.895
63688SOL     OW92960  11.845  10.070   5.731
63688SOL    HW192961  11.804  10.018   5.661
63688SOL    HW292962  11.775  10.124   5.765
63689SOL     OW92963   1.479   4.859   0.406
63689SOL    HW192964   1.485   4.928   0.341
63689SOL    HW292965   1.530   4.787   0.369
63690SOL     OW92966   7.521  14.251   6.549
63690SOL    HW192967   7.508  14.201   6.468
63690SOL    HW292968   7.586  14.201   6.598
63691SOL     OW92969   9.213   8.575   5.398
63691SOL    HW192970   9.256   8.660   5.410
63691SOL    HW292971   9.286   8.513   5.389
63692SOL     OW92972  12.610   7.553   8.271
63692SOL    HW192973  12.534   7.502   8.239
63692SOL    HW292974  12.587   7.576   8.361
63693SOL     OW92975  12.349  14.777   9.768
63693SOL    HW192976  12.303  14.721   9.705
63693SOL    HW292977  12.284  14.842   9.794
63694SOL     OW92978   6.584   2.367   2.873
63694SOL    HW192979   6.547   2.291   2.918
63694SOL    HW292980   6.585   2.436   2.939
63695SOL     OW92981   0.210  13.201   9.855
63695SOL    HW192982   0.193  13.228   9.945
63695SOL    HW292983   0.289  13.249   9.829
63696SOL     OW92984   8.964  13.027   9.335
63696SOL    HW192985   8.990  12.950   9.385
63696SOL    HW292986   9.005  13.016   9.249
63697SOL     OW92987   4.694   0.747   7.300
63697SOL    HW192988   4.764   0.773   7.240
63697SOL    HW292989   4.727   0.668   7.342
63698SOL     OW92990   4.266  14.693   6.201
63698SOL    HW192991   4.351  14.737   6.191
63698SOL    HW292992   4.239  14.674   6.111
63699SOL     OW92993   9.447   1.826  11.561
63699SOL    HW192994   9.385   1.773  11.512
63699SOL    HW292995   9.421   1.916  11.543
63700SOL     OW92996   4.827  12.343  14.263
63700SOL    HW192997   4.733  12.358  14.273
63700SOL    HW292998   4.866  12.429  14.278
63701SOL     OW92999  14.733  12.072  12.957
63701SOL    HW193000  14.739  12.010  12.884
63701SOL    HW293001  14.813  12.124  12.952
63702SOL     OW93002   4.471   4.887   4.777
63702SOL    HW193003   4.443   4.978   4.790
63702SOL    HW293004   4.436   4.840   4.852
63703SOL     OW93005   1.800  12.361  12.421
63703SOL    HW193006   1.805  12.395  12.332
63703SOL    HW293007   1.771  12.436  12.473
63704SOL     OW93008   2.409   6.941  12.557
63704SOL    HW193009   2.363   6.910  12.479
63704SOL    HW293010   2.479   6.996  12.523
63705SOL     OW93011   7.840  12.243   3.988
63705SOL    HW193012   7.904  12.200   3.930
63705SOL    HW293013   7.757  12.199   3.969
63706SOL     OW93014   2.751   2.415  14.158
63706SOL    HW193015   2.773   2.332  14.116
63706SOL    HW293016   2.660   2.405  14.184
63707SOL     OW93017   1.663   2.343   4.796
63707SOL    HW193018   1.647   2.389   4.713
63707SOL    HW293019   1.642   2.407   4.863
63708SOL     OW93020  11.849  10.740  10.454
63708SOL    HW193021  11.941  10.720  10.437
63708SOL    HW293022  11.806  10.734  10.369
63709SOL     OW93023   3.566   4.528   9.963
63709SOL    HW193024   3.640   4.586   9.981
63709SOL    HW293025   3.606   4.443   9.947
63710SOL     OW93026   0.667   2.168   5.056
63710SOL    HW193027   0.586   2.206   5.091
63710SOL    HW293028   0.725   2.243   5.044
63711SOL     OW93029   1.786   5.528   4.990
63711SOL    HW193030   1.808   5.602   5.046
63711SOL    HW293031   1.725   5.476   5.042
63712SOL     OW93032  14.372   6.462  13.633
63712SOL    HW193033  14.402   6.510  13.711
63712SOL    HW293034  14.280   6.489  13.623
63713SOL     OW93035   4.632  14.074   3.705
63713SOL    HW193036   4.624  14.097   3.612
63713SOL    HW293037   4.703  14.011   3.709
63714SOL     OW93038   1.304   6.432   9.457
63714SOL    HW193039   1.300   6.356   9.399
63714SOL    HW293040   1.337   6.502   9.401
63715SOL     OW93041   2.701   3.932   6.903
63715SOL    HW193042   2.693   3.972   6.990
63715SOL    HW293043   2.612   3.910   6.877
63716SOL     OW93044   3.144   2.294   0.009
63716SOL    HW193045   3.204   2.234   0.053
63716SOL    HW293046   3.126   2.362   0.075
63717SOL     OW93047  10.161  12.296   9.994
63717SOL    HW193048  10.174  12.390  10.010
63717SOL    HW293049  10.157  12.288   9.899
63718SOL     OW93050   3.823  11.439   9.110
63718SOL    HW193051   3.783  11.398   9.033
63718SOL    HW293052   3.856  11.523   9.077
63719SOL     OW93053   7.020   0.119   3.588
63719SOL    HW193054   6.977   0.033   3.593
63719SOL    HW293055   6.998   0.151   3.501
63720SOL     OW93056   8.746   2.485  11.351
63720SOL    HW193057   8.792   2.551  11.298
63720SOL    HW293058   8.658   2.521  11.360
63721SOL     OW93059  12.570   6.040  10.977
63721SOL    HW193060  12.536   5.988  10.905
63721SOL    HW293061  12.532   6.001  11.055
63722SOL     OW93062  11.096   7.327   1.929
63722SOL    HW193063  11.113   7.267   1.856
63722SOL    HW293064  11.004   7.352   1.918
63723SOL     OW93065   4.902   9.513   3.557
63723SOL    HW193066   4.876   9.576   3.489
63723SOL    HW293067   4.997   9.506   3.548
63724SOL     OW93068   1.095   4.188   3.091
63724SOL    HW193069   1.170   4.207   3.148
63724SOL    HW293070   1.103   4.095   3.071
63725SOL     OW93071  14.327   5.841   2.108
63725SOL    HW193072  14.281   5.888   2.178
63725SOL    HW293073  14.403   5.897   2.088
63726SOL     OW93074  11.194  12.853   7.339
63726SOL    HW193075  11.184  12.939   7.380
63726SOL    HW293076  11.190  12.871   7.245
63727SOL     OW93077   1.718   1.749   7.004
63727SOL    HW193078   1.784   1.798   6.956
63727SOL    HW293079   1.648   1.734   6.940
63728SOL     OW93080   4.845  12.322   2.600
63728SOL    HW193081   4.777  12.373   2.643
63728SOL    HW293082   4.798  12.250   2.559
63729SOL     OW93083   5.422   3.148  12.151
63729SOL    HW193084   5.344   3.125  12.101
63729SOL    HW293085   5.420   3.090  12.227
63730SOL     OW93086   7.989  10.249  14.657
63730SOL    HW193087   8.007  10.163  14.695
63730SOL    HW293088   8.039  10.250  14.575
63731SOL     OW93089  13.524   5.149   3.054
63731SOL    HW193090  13.550   5.167   2.964
63731SOL    HW293091  13.471   5.225   3.080
63732SOL     OW93092   2.209  10.307  13.310
63732SOL    HW193093   2.173  10.281  13.395
63732SOL    HW293094   2.294  10.345  13.331
63733SOL     OW93095  14.419   6.824   1.692
63733SOL    HW193096  14.442   6.827   1.599
63733SOL    HW293097  14.473   6.891   1.733
63734SOL     OW93098   7.084   6.166   9.876
63734SOL    HW193099   7.082   6.077   9.842
63734SOL    HW293100   7.060   6.222   9.802
63735SOL     OW93101   6.315   5.727   9.138
63735SOL    HW193102   6.342   5.682   9.059
63735SOL    HW293103   6.255   5.665   9.181
63736SOL     OW93104  11.558   4.255   8.462
63736SOL    HW193105  11.582   4.246   8.554
63736SOL    HW293106  11.558   4.165   8.429
63737SOL     OW93107  14.773   4.780  14.448
63737SOL    HW193108  14.791   4.718  14.377
63737SOL    HW293109  14.852   4.777  14.503
63738SOL     OW93110  14.512  13.471   5.079
63738SOL    HW193111  14.484  13.561   5.064
63738SOL    HW293112  14.581  13.456   5.016
63739SOL     OW93113   7.631  14.831   4.541
63739SOL    HW193114   7.678  14.783   4.473
63739SOL    HW293115   7.577   0.012   4.493
63740SOL     OW93116  11.350  11.573   6.601
63740SOL    HW193117  11.396  11.576   6.517
63740SOL    HW293118  11.420  11.559   6.665
63741SOL     OW93119   2.804   7.184  11.710
63741SOL    HW193120   2.897   7.160  11.711
63741SOL    HW293121   2.793   7.239  11.787
63742SOL     OW93122   6.231  12.352  12.475
63742SOL    HW193123   6.314  12.395  12.497
63742SOL    HW293124   6.258  12.271  12.430
63743SOL     OW93125   7.466   1.585   6.084
63743SOL    HW193126   7.496   1.540   6.005
63743SOL    HW293127   7.543   1.586   6.141
63744SOL     OW93128   2.090  13.016   9.905
63744SOL    HW193129   2.047  13.095   9.938
63744SOL    HW293130   2.145  12.987   9.978
63745SOL     OW93131   5.188   9.993   4.244
63745SOL    HW193132   5.101   9.954   4.252
63745SOL    HW293133   5.249   9.920   4.253
63746SOL     OW93134   8.146  13.302   9.089
63746SOL    HW193135   8.086  13.309   9.163
63746SOL    HW293136   8.233  13.309   9.128
63747SOL     OW93137   9.284   3.011   8.949
63747SOL    HW193138   9.328   3.017   8.864
63747SOL    HW293139   9.226   2.936   8.941
63748SOL     OW93140  10.789   8.570  14.518
63748SOL    HW193141  10.848   8.585  14.592
63748SOL    HW293142  10.703   8.598  14.549
63749SOL     OW93143   8.780   7.367   9.197
63749SOL    HW193144   8.838   7.361   9.273
63749SOL    HW293145   8.794   7.455   9.163
63750SOL     OW93146  10.218   2.379   4.606
63750SOL    HW193147  10.126   2.398   4.583
63750SOL    HW293148  10.267   2.454   4.571
63751SOL     OW93149   4.193   7.693   7.008
63751SOL    HW193150   4.115   7.727   6.964
63751SOL    HW293151   4.158   7.634   7.075
63752SOL     OW93152   2.594   1.980   5.520
63752SOL    HW193153   2.511   1.943   5.489
63752SOL    HW293154   2.574   2.015   5.606
63753SOL     OW93155  13.169   1.697   5.468
63753SOL    HW193156  13.197   1.617   5.423
63753SOL    HW293157  13.249   1.750   5.475
63754SOL     OW93158   1.546  12.679  10.236
63754SOL    HW193159   1.502  12.656  10.318
63754SOL    HW293160   1.541  12.774  10.232
63755SOL     OW93161   8.504   5.500  11.537
63755SOL    HW193162   8.416   5.520  11.503
63755SOL    HW293163   8.561   5.562  11.492
63756SOL     OW93164   7.966   3.686  14.632
63756SOL    HW193165   7.926   3.768  14.602
63756SOL    HW293166   8.025   3.661  14.560
63757SOL     OW93167  14.159   5.332  10.845
63757SOL    HW193168  14.214   5.410  10.845
63757SOL    HW293169  14.162   5.300  10.935
63758SOL     OW93170   8.864   9.152  11.882
63758SOL    HW193171   8.792   9.214  11.888
63758SOL    HW293172   8.860   9.118  11.792
63759SOL     OW93173   1.235  10.592  13.667
63759SOL    HW193174   1.288  10.604  13.588
63759SOL    HW293175   1.157  10.647  13.652
63760SOL     OW93176   4.105   0.045  13.944
63760SOL    HW193177   4.023   0.095  13.946
63760SOL    HW293178   4.157   0.087  13.875
63761SOL     OW93179   8.494   0.704   9.944
63761SOL    HW193180   8.583   0.670   9.937
63761SOL    HW293181   8.438   0.627   9.941
63762SOL     OW93182  10.336   0.774   8.080
63762SOL    HW193183  10.381   0.823   8.148
63762SOL    HW293184  10.379   0.689   8.079
63763SOL     OW93185  13.082  14.700   3.546
63763SOL    HW193186  13.125  14.669   3.467
63763SOL    HW293187  13.063  14.621   3.597
63764SOL     OW93188   3.517   9.642   9.290
63764SOL    HW193189   3.513   9.548   9.271
63764SOL    HW293190   3.437   9.678   9.251
63765SOL     OW93191   9.401  14.554   1.898
63765SOL    HW193192   9.399  14.616   1.971
63765SOL    HW293193   9.467  14.489   1.923
63766SOL     OW93194   2.705  14.037  11.524
63766SOL    HW193195   2.641  13.987  11.574
63766SOL    HW293196   2.675  14.128  11.530
63767SOL     OW93197   2.405  11.673   3.192
63767SOL    HW193198   2.353  11.594   3.176
63767SOL    HW293199   2.418  11.675   3.286
63768SOL     OW93200   6.901   3.720   6.165
63768SOL    HW193201   6.829   3.658   6.175
63768SOL    HW293202   6.979   3.668   6.185
63769SOL     OW93203  13.487  13.440   7.720
63769SOL    HW193204  13.444  13.396   7.794
63769SOL    HW293205  13.437  13.413   7.643
63770SOL     OW93206   0.835   6.893   4.464
63770SOL    HW193207   0.894   6.967   4.470
63770SOL    HW293208   0.798   6.884   4.552
63771SOL     OW93209   2.400   2.357   3.539
63771SOL    HW193210   2.352   2.434   3.571
63771SOL    HW293211   2.382   2.289   3.604
63772SOL     OW93212   2.891  12.685   5.712
63772SOL    HW193213   2.980  12.699   5.679
63772SOL    HW293214   2.848  12.634   5.643
63773SOL     OW93215  10.539   6.659   9.780
63773SOL    HW193216  10.455   6.630   9.743
63773SOL    HW293217  10.596   6.671   9.704
63774SOL     OW93218  12.351   7.732   3.231
63774SOL    HW193219  12.343   7.643   3.266
63774SOL    HW293220  12.266   7.749   3.190
63775SOL     OW93221   7.190   3.810   2.178
63775SOL    HW193222   7.136   3.788   2.103
63775SOL    HW293223   7.263   3.860   2.142
63776SOL     OW93224   9.995  11.951   0.548
63776SOL    HW193225  10.035  11.953   0.461
63776SOL    HW293226  10.064  11.978   0.607
63777SOL     OW93227   1.184  14.193   9.368
63777SOL    HW193228   1.171  14.241   9.286
63777SOL    HW293229   1.276  14.209   9.391
63778SOL     OW93230  12.278   3.002   0.877
63778SOL    HW193231  12.280   2.906   0.874
63778SOL    HW293232  12.312   3.024   0.964
63779SOL     OW93233  14.301   0.894   4.084
63779SOL    HW193234  14.347   0.871   4.003
63779SOL    HW293235  14.250   0.815   4.106
63780SOL     OW93236   5.409  13.713  13.844
63780SOL    HW193237   5.408  13.658  13.922
63780SOL    HW293238   5.412  13.651  13.771
63781SOL     OW93239   4.972  12.255   5.551
63781SOL    HW193240   5.018  12.171   5.550
63781SOL    HW293241   4.988  12.290   5.638
63782SOL     OW93242   9.074  14.751   8.642
63782SOL    HW193243   9.092  14.670   8.690
63782SOL    HW293244   9.122  14.742   8.560
63783SOL     OW93245  13.764  11.969   7.015
63783SOL    HW193246  13.785  12.063   7.017
63783SOL    HW293247  13.673  11.965   7.043
63784SOL     OW93248  12.112  12.763   5.393
63784SOL    HW193249  12.189  12.717   5.361
63784SOL    HW293250  12.118  12.756   5.489
63785SOL     OW93251   5.101   0.314  13.409
63785SOL    HW193252   5.110   0.408  13.396
63785SOL    HW293253   5.164   0.275  13.348
63786SOL     OW93254   4.036   0.423  14.449
63786SOL    HW193255   4.069   0.359  14.512
63786SOL    HW293256   4.114   0.473  14.423
63787SOL     OW93257  11.841  13.605   9.053
63787SOL    HW193258  11.785  13.563   9.119
63787SOL    HW293259  11.908  13.651   9.104
63788SOL     OW93260   7.724   0.152   8.979
63788SOL    HW193261   7.707   0.234   8.933
63788SOL    HW293262   7.818   0.139   8.970
63789SOL     OW93263   2.483   8.133   5.146
63789SOL    HW193264   2.433   8.149   5.066
63789SOL    HW293265   2.574   8.150   5.122
63790SOL     OW93266  10.885   6.435  12.715
63790SOL    HW193267  10.832   6.508  12.682
63790SOL    HW293268  10.975   6.468  12.714
63791SOL     OW93269  12.791   9.939   2.938
63791SOL    HW193270  12.844   9.979   2.869
63791SOL    HW293271  12.842   9.952   3.018
63792SOL     OW93272  12.047   4.064  12.748
63792SOL    HW193273  12.141   4.068  12.732
63792SOL    HW293274  12.016   3.995  12.690
63793SOL     OW93275   2.386   4.810   8.641
63793SOL    HW193276   2.478   4.829   8.623
63793SOL    HW293277   2.354   4.889   8.686
63794SOL     OW93278   4.892   2.061   0.668
63794SOL    HW193279   4.803   2.068   0.703
63794SOL    HW293280   4.946   2.109   0.731
63795SOL     OW93281  10.359   6.036  12.656
63795SOL    HW193282  10.443   6.071  12.627
63795SOL    HW293283  10.333   6.093  12.729
63796SOL     OW93284   4.822   2.953  12.207
63796SOL    HW193285   4.798   2.993  12.290
63796SOL    HW293286   4.845   3.026  12.150
63797SOL     OW93287   8.669   7.717   1.450
63797SOL    HW193288   8.742   7.779   1.450
63797SOL    HW293289   8.710   7.632   1.467
63798SOL     OW93290  10.457  13.184   1.585
63798SOL    HW193291  10.496  13.132   1.656
63798SOL    HW293292  10.406  13.252   1.631
63799SOL     OW93293   8.754   9.654   8.084
63799SOL    HW193294   8.839   9.688   8.110
63799SOL    HW293295   8.732   9.702   8.004
63800SOL     OW93296  10.342   6.149  12.938
63800SOL    HW193297  10.334   6.073  12.996
63800SOL    HW293298  10.259   6.196  12.949
63801SOL     OW93299  11.221   9.546   0.135
63801SOL    HW193300  11.293   9.593   0.092
63801SOL    HW293301  11.261   9.510   0.215
63802SOL     OW93302   1.127   5.106   5.066
63802SOL    HW193303   1.220   5.115   5.046
63802SOL    HW293304   1.088   5.078   4.983
63803SOL     OW93305   1.509   2.387  10.779
63803SOL    HW193306   1.541   2.310  10.734
63803SOL    HW293307   1.487   2.357  10.867
63804SOL     OW93308  13.389   0.830   5.742
63804SOL    HW193309  13.460   0.871   5.693
63804SOL    HW293310  13.423   0.743   5.763
63805SOL     OW93311  11.968   5.762   1.604
63805SOL    HW193312  12.001   5.852   1.595
63805SOL    HW293313  11.873   5.771   1.596
63806SOL     OW93314   3.461   1.074   3.558
63806SOL    HW193315   3.382   1.039   3.517
63806SOL    HW293316   3.432   1.156   3.598
63807SOL     OW93317   3.969  10.601  11.597
63807SOL    HW193318   3.950  10.655  11.520
63807SOL    HW293319   3.995  10.664  11.664
63808SOL     OW93320   7.005   4.616   9.226
63808SOL    HW193321   6.946   4.650   9.294
63808SOL    HW293322   6.955   4.624   9.145
63809SOL     OW93323   8.627   0.035  10.212
63809SOL    HW193324   8.558   0.046  10.277
63809SOL    HW293325   8.701  14.882  10.262
63810SOL     OW93326   3.822  11.429  14.424
63810SOL    HW193327   3.811  11.396  14.513
63810SOL    HW293328   3.747  11.487  14.410
63811SOL     OW93329   5.890  13.152   3.849
63811SOL    HW193330   5.918  13.214   3.781
63811SOL    HW293331   5.959  13.086   3.850
63812SOL     OW93332   6.854   9.629  11.166
63812SOL    HW193333   6.782   9.692  11.156
63812SOL    HW293334   6.912   9.669  11.231
63813SOL     OW93335  14.248   4.340   1.292
63813SOL    HW193336  14.303   4.277   1.339
63813SOL    HW293337  14.228   4.407   1.357
63814SOL     OW93338  14.863  10.482   4.005
63814SOL    HW193339   0.017  10.548   3.946
63814SOL    HW293340  14.811  10.532   4.068
63815SOL     OW93341  11.496   0.760   6.675
63815SOL    HW193342  11.405   0.734   6.683
63815SOL    HW293343  11.496   0.830   6.610
63816SOL     OW93344  12.192   1.820   3.461
63816SOL    HW193345  12.170   1.833   3.553
63816SOL    HW293346  12.112   1.842   3.413
63817SOL     OW93347  12.150   0.079   3.813
63817SOL    HW193348  12.092   0.153   3.832
63817SOL    HW293349  12.227   0.094   3.868
63818SOL     OW93350   4.194   2.460  13.961
63818SOL    HW193351   4.228   2.393  13.902
63818SOL    HW293352   4.270   2.515  13.981
63819SOL     OW93353  14.405  13.416   5.822
63819SOL    HW193354  14.356  13.348   5.868
63819SOL    HW293355  14.368  13.417   5.734
63820SOL     OW93356   1.486   0.883   8.347
63820SOL    HW193357   1.395   0.912   8.352
63820SOL    HW293358   1.509   0.894   8.254
63821SOL     OW93359   1.440   9.936   8.675
63821SOL    HW193360   1.462   9.854   8.632
63821SOL    HW293361   1.434   9.913   8.768
63822SOL     OW93362   3.717  13.007  12.567
63822SOL    HW193363   3.717  12.939  12.500
63822SOL    HW293364   3.809  13.017  12.591
63823SOL     OW93365  13.602   6.337   3.249
63823SOL    HW193366  13.563   6.315   3.334
63823SOL    HW293367  13.682   6.385   3.272
63824SOL     OW93368   9.692   1.241  12.681
63824SOL    HW193369   9.610   1.198  12.705
63824SOL    HW293370   9.676   1.276  12.593
63825SOL     OW93371   2.050  11.054   5.813
63825SOL    HW193372   2.050  11.109   5.891
63825SOL    HW293373   2.109  11.100   5.752
63826SOL     OW93374   1.379   3.853   1.448
63826SOL    HW193375   1.307   3.901   1.408
63826SOL    HW293376   1.364   3.861   1.542
63827SOL     OW93377  14.874  12.882  12.858
63827SOL    HW193378  14.839  12.955  12.909
63827SOL    HW293379   0.009  12.919  12.771
63828SOL     OW93380   6.980   9.414  11.046
63828SOL    HW193381   6.943   9.491  11.088
63828SOL    HW293382   7.044   9.380  11.110
63829SOL     OW93383   8.746   9.372   9.735
63829SOL    HW193384   8.703   9.398   9.817
63829SOL    HW293385   8.731   9.277   9.729
63830SOL     OW93386   7.551   8.884   0.773
63830SOL    HW193387   7.488   8.867   0.843
63830SOL    HW293388   7.613   8.811   0.778
63831SOL     OW93389   9.171   4.089   9.340
63831SOL    HW193390   9.113   4.015   9.322
63831SOL    HW293391   9.114   4.155   9.380
63832SOL     OW93392  11.889  13.572   6.775
63832SOL    HW193393  11.837  13.622   6.712
63832SOL    HW293394  11.980  13.593   6.753
63833SOL     OW93395   8.223  13.144   8.744
63833SOL    HW193396   8.173  13.149   8.826
63833SOL    HW293397   8.295  13.206   8.757
63834SOL     OW93398  14.743   4.455   5.067
63834SOL    HW193399  14.738   4.392   4.996
63834SOL    HW293400  14.661   4.446   5.114
63835SOL     OW93401   6.634   5.948   7.917
63835SOL    HW193402   6.672   6.020   7.865
63835SOL    HW293403   6.541   5.950   7.897
63836SOL     OW93404  13.606  12.978   6.824
63836SOL    HW193405  13.566  13.018   6.747
63836SOL    HW293406  13.645  13.051   6.871
63837SOL     OW93407  11.732  14.867  12.005
63837SOL    HW193408  11.727   0.012  11.913
63837SOL    HW293409  11.812   0.027  12.037
63838SOL     OW93410   7.310   5.484  14.503
63838SOL    HW193411   7.385   5.541  14.486
63838SOL    HW293412   7.308   5.474  14.598
63839SOL     OW93413  11.911  12.433   7.141
63839SOL    HW193414  11.997  12.470   7.162
63839SOL    HW293415  11.923  12.389   7.057
63840SOL     OW93416  14.815  13.156   9.581
63840SOL    HW193417  14.733  13.113   9.605
63840SOL    HW293418  14.831  13.131   9.491
63841SOL     OW93419   3.212   0.535   9.363
63841SOL    HW193420   3.221   0.606   9.427
63841SOL    HW293421   3.225   0.455   9.413
63842SOL     OW93422  14.254   5.261  12.838
63842SOL    HW193423  14.341   5.293  12.862
63842SOL    HW293424  14.196   5.335  12.857
63843SOL     OW93425   6.063   3.036   5.886
63843SOL    HW193426   6.026   3.124   5.891
63843SOL    HW293427   6.039   2.995   5.969
63844SOL     OW93428  13.323   1.433   5.967
63844SOL    HW193429  13.302   1.351   5.922
63844SOL    HW293430  13.241   1.460   6.009
63845SOL     OW93431  14.507   7.084   6.766
63845SOL    HW193432  14.524   7.086   6.671
63845SOL    HW293433  14.429   7.030   6.776
63846SOL     OW93434   3.411   0.642   3.611
63846SOL    HW193435   3.368   0.614   3.692
63846SOL    HW293436   3.503   0.650   3.635
63847SOL     OW93437   4.667   8.375   0.504
63847SOL    HW193438   4.723   8.390   0.428
63847SOL    HW293439   4.686   8.449   0.563
63848SOL     OW93440  11.695   6.111  13.043
63848SOL    HW193441  11.705   6.075  13.131
63848SOL    HW293442  11.651   6.042  12.994
63849SOL     OW93443   6.960   7.101  12.950
63849SOL    HW193444   7.038   7.142  12.914
63849SOL    HW293445   6.963   7.011  12.917
63850SOL     OW93446  12.515  13.623   5.704
63850SOL    HW193447  12.426  13.592   5.687
63850SOL    HW293448  12.551  13.640   5.617
63851SOL     OW93449   8.341   4.969  14.273
63851SOL    HW193450   8.328   5.009  14.360
63851SOL    HW293451   8.355   4.876  14.291
63852SOL     OW93452   6.601   9.852   5.522
63852SOL    HW193453   6.585   9.933   5.473
63852SOL    HW293454   6.515   9.812   5.533
63853SOL     OW93455   3.307   6.531  12.781
63853SOL    HW193456   3.355   6.611  12.760
63853SOL    HW293457   3.216   6.560  12.793
63854SOL     OW93458  11.077   0.389   2.108
63854SOL    HW193459  11.118   0.322   2.054
63854SOL    HW293460  11.150   0.442   2.140
63855SOL     OW93461   4.976   9.128  10.725
63855SOL    HW193462   4.882   9.121  10.707
63855SOL    HW293463   5.018   9.109  10.641
63856SOL     OW93464   8.220   7.845  13.185
63856SOL    HW193465   8.224   7.940  13.199
63856SOL    HW293466   8.206   7.835  13.091
63857SOL     OW93467  10.232   9.616   9.560
63857SOL    HW193468  10.233   9.633   9.466
63857SOL    HW293469  10.269   9.528   9.569
63858SOL     OW93470  14.248   4.421  13.518
63858SOL    HW193471  14.257   4.492  13.581
63858SOL    HW293472  14.186   4.454  13.453
63859SOL     OW93473   2.966  11.224  14.591
63859SOL    HW193474   3.046  11.187  14.629
63859SOL    HW293475   2.905  11.228  14.665
63860SOL     OW93476   8.976   8.609   4.542
63860SOL    HW193477   8.912   8.608   4.613
63860SOL    HW293478   9.010   8.699   4.542
63861SOL     OW93479   9.563   0.791  11.275
63861SOL    HW193480   9.511   0.871  11.265
63861SOL    HW293481   9.652   0.822  11.292
63862SOL     OW93482  11.281  13.215  10.870
63862SOL    HW193483  11.261  13.199  10.778
63862SOL    HW293484  11.196  13.213  10.914
63863SOL     OW93485  12.613   7.442  13.667
63863SOL    HW193486  12.609   7.402  13.580
63863SOL    HW293487  12.619   7.536  13.649
63864SOL     OW93488  11.933   5.593  10.933
63864SOL    HW193489  11.840   5.580  10.918
63864SOL    HW293490  11.975   5.518  10.890
63865SOL     OW93491  10.887  14.556  12.617
63865SOL    HW193492  10.889  14.478  12.561
63865SOL    HW293493  10.927  14.624  12.563
63866SOL     OW93494  12.315   1.437  13.713
63866SOL    HW193495  12.379   1.367  13.698
63866SOL    HW293496  12.362   1.517  13.690
63867SOL     OW93497  12.322   9.372  12.819
63867SOL    HW193498  12.325   9.320  12.739
63867SOL    HW293499  12.395   9.340  12.871
63868SOL     OW93500  13.582   7.876   8.496
63868SOL    HW193501  13.547   7.800   8.542
63868SOL    HW293502  13.639   7.919   8.559
63869SOL     OW93503  13.331   1.004   6.380
63869SOL    HW193504  13.420   1.021   6.348
63869SOL    HW293505  13.333   0.912   6.406
63870SOL     OW93506   8.797   7.685   5.627
63870SOL    HW193507   8.866   7.621   5.613
63870SOL    HW293508   8.843   7.767   5.645
63871SOL     OW93509  12.875  13.044   0.171
63871SOL    HW193510  12.871  12.951   0.196
63871SOL    HW293511  12.816  13.088   0.232
63872SOL     OW93512   6.620   1.089   6.516
63872SOL    HW193513   6.701   1.109   6.562
63872SOL    HW293514   6.561   1.161   6.537
63873SOL     OW93515   9.350   5.614   3.084
63873SOL    HW193516   9.411   5.670   3.038
63873SOL    HW293517   9.264   5.635   3.046
63874SOL     OW93518   1.598  11.484   1.962
63874SOL    HW193519   1.578  11.448   2.049
63874SOL    HW293520   1.693  11.475   1.954
63875SOL     OW93521   1.920   4.314  14.562
63875SOL    HW193522   1.903   4.399  14.520
63875SOL    HW293523   1.905   4.250  14.493
63876SOL     OW93524   8.441   5.557   1.353
63876SOL    HW193525   8.432   5.463   1.369
63876SOL    HW293526   8.534   5.574   1.364
63877SOL     OW93527   2.459   4.828   5.836
63877SOL    HW193528   2.525   4.802   5.772
63877SOL    HW293529   2.399   4.754   5.840
63878SOL     OW93530  11.541   8.690   5.445
63878SOL    HW193531  11.525   8.733   5.361
63878SOL    HW293532  11.476   8.727   5.504
63879SOL     OW93533   6.407   1.163   3.944
63879SOL    HW193534   6.484   1.108   3.931
63879SOL    HW293535   6.442   1.250   3.962
63880SOL     OW93536   0.380   2.447  10.924
63880SOL    HW193537   0.445   2.502  10.968
63880SOL    HW293538   0.432   2.396  10.861
63881SOL     OW93539  11.844  13.864   0.623
63881SOL    HW193540  11.831  13.782   0.671
63881SOL    HW293541  11.840  13.839   0.531
63882SOL     OW93542  12.157   8.186   1.802
63882SOL    HW193543  12.182   8.181   1.894
63882SOL    HW293544  12.115   8.272   1.793
63883SOL     OW93545   3.842   5.699  10.512
63883SOL    HW193546   3.909   5.721  10.578
63883SOL    HW293547   3.779   5.645  10.560
63884SOL     OW93548   3.072  13.955   4.930
63884SOL    HW193549   3.140  13.925   4.870
63884SOL    HW293550   3.117  14.013   4.991
63885SOL     OW93551  12.553   7.849   0.744
63885SOL    HW193552  12.467   7.854   0.702
63885SOL    HW293553  12.567   7.937   0.780
63886SOL     OW93554   9.338  13.940   7.290
63886SOL    HW193555   9.347  13.917   7.197
63886SOL    HW293556   9.369  14.030   7.295
63887SOL     OW93557  14.196   0.305   2.203
63887SOL    HW193558  14.218   0.372   2.139
63887SOL    HW293559  14.259   0.235   2.187
63888SOL     OW93560  14.817   2.756  11.313
63888SOL    HW193561  14.830   2.674  11.265
63888SOL    HW293562   0.021   2.797  11.314
63889SOL     OW93563   3.997   0.985   6.876
63889SOL    HW193564   4.074   1.004   6.929
63889SOL    HW293565   3.934   1.052   6.900
63890SOL     OW93566  13.690  12.594   2.868
63890SOL    HW193567  13.782  12.572   2.851
63890SOL    HW293568  13.641  12.545   2.802
63891SOL     OW93569   0.930   0.993  11.123
63891SOL    HW193570   0.886   1.066  11.166
63891SOL    HW293571   0.860   0.944  11.081
63892SOL     OW93572  10.970   7.605   5.405
63892SOL    HW193573  10.962   7.514   5.376
63892SOL    HW293574  10.918   7.610   5.485
63893SOL     OW93575   7.866  14.272   7.046
63893SOL    HW193576   7.829  14.188   7.017
63893SOL    HW293577   7.850  14.331   6.973
63894SOL     OW93578   4.155  11.934   8.604
63894SOL    HW193579   4.183  12.013   8.651
63894SOL    HW293580   4.097  11.889   8.665
63895SOL     OW93581   7.672   2.651  14.520
63895SOL    HW193582   7.638   2.657  14.610
63895SOL    HW293583   7.751   2.705  14.521
63896SOL     OW93584  12.094   4.171   5.696
63896SOL    HW193585  12.008   4.193   5.732
63896SOL    HW293586  12.080   4.168   5.602
63897SOL     OW93587   5.436   7.159   5.932
63897SOL    HW193588   5.508   7.196   5.880
63897SOL    HW293589   5.381   7.234   5.954
63898SOL     OW93590   8.343   7.090  11.966
63898SOL    HW193591   8.349   7.006  11.921
63898SOL    HW293592   8.339   7.067  12.059
63899SOL     OW93593   0.801  11.790  13.507
63899SOL    HW193594   0.793  11.701  13.541
63899SOL    HW293595   0.775  11.845  13.581
63900SOL     OW93596   8.987   7.356   9.424
63900SOL    HW193597   9.049   7.420   9.390
63900SOL    HW293598   9.042   7.285   9.458
63901SOL     OW93599  11.586   5.472   3.398
63901SOL    HW193600  11.558   5.543   3.340
63901SOL    HW293601  11.623   5.406   3.338
63902SOL     OW93602   6.852   0.931  11.511
63902SOL    HW193603   6.770   0.981  11.505
63902SOL    HW293604   6.828   0.842  11.486
63903SOL     OW93605   9.948  14.044   1.717
63903SOL    HW193606   9.882  14.100   1.758
63903SOL    HW293607   9.953  13.967   1.774
63904SOL     OW93608   3.459   7.189   5.247
63904SOL    HW193609   3.488   7.253   5.183
63904SOL    HW293610   3.368   7.212   5.265
63905SOL     OW93611  12.167   0.008   8.073
63905SOL    HW193612  12.129   0.078   8.020
63905SOL    HW293613  12.152  14.810   8.023
63906SOL     OW93614   6.497   5.181   8.811
63906SOL    HW193615   6.441   5.193   8.887
63906SOL    HW293616   6.491   5.264   8.763
63907SOL     OW93617   6.127   8.139   1.322
63907SOL    HW193618   6.106   8.053   1.356
63907SOL    HW293619   6.150   8.191   1.400
63908SOL     OW93620  11.794   2.278   6.827
63908SOL    HW193621  11.861   2.333   6.787
63908SOL    HW293622  11.750   2.235   6.753
63909SOL     OW93623   2.116  10.728  12.509
63909SOL    HW193624   2.028  10.716  12.545
63909SOL    HW293625   2.168  10.763  12.581
63910SOL     OW93626   5.713  12.867   0.225
63910SOL    HW193627   5.709  12.857   0.320
63910SOL    HW293628   5.714  12.778   0.191
63911SOL     OW93629  13.318  14.028   3.469
63911SOL    HW193630  13.339  14.077   3.549
63911SOL    HW293631  13.335  14.090   3.399
63912SOL     OW93632   5.691  14.502  10.793
63912SOL    HW193633   5.739  14.584  10.783
63912SOL    HW293634   5.757  14.438  10.816
63913SOL     OW93635  14.236   5.681   8.485
63913SOL    HW193636  14.213   5.588   8.488
63913SOL    HW293637  14.328   5.681   8.457
63914SOL     OW93638   8.055  13.148   3.075
63914SOL    HW193639   8.008  13.157   3.158
63914SOL    HW293640   7.995  13.100   3.018
63915SOL     OW93641   5.530   7.093  10.326
63915SOL    HW193642   5.540   7.176  10.278
63915SOL    HW293643   5.502   7.031  10.260
63916SOL     OW93644  10.083   3.464   9.966
63916SOL    HW193645  10.027   3.471  10.043
63916SOL    HW293646  10.168   3.438  10.000
63917SOL     OW93647   8.192  11.155  10.047
63917SOL    HW193648   8.125  11.175  10.112
63917SOL    HW293649   8.153  11.181   9.963
63918SOL     OW93650   2.621   8.355   3.458
63918SOL    HW193651   2.597   8.263   3.466
63918SOL    HW293652   2.654   8.379   3.545
63919SOL     OW93653  10.333   3.475   8.336
63919SOL    HW193654  10.364   3.422   8.262
63919SOL    HW293655  10.342   3.566   8.306
63920SOL     OW93656   2.982   3.776   2.775
63920SOL    HW193657   3.052   3.834   2.804
63920SOL    HW293658   3.026   3.706   2.727
63921SOL     OW93659   6.789  10.705   0.719
63921SOL    HW193660   6.879  10.702   0.752
63921SOL    HW293661   6.751  10.782   0.760
63922SOL     OW93662   5.224   9.142   4.467
63922SOL    HW193663   5.282   9.067   4.480
63922SOL    HW293664   5.277   9.217   4.494
63923SOL     OW93665   5.937   6.993  14.049
63923SOL    HW193666   5.900   6.929  13.989
63923SOL    HW293667   5.893   6.976  14.132
63924SOL     OW93668   2.607  11.685   7.514
63924SOL    HW193669   2.564  11.745   7.575
63924SOL    HW293670   2.612  11.734   7.432
63925SOL     OW93671  11.885   4.699  14.758
63925SOL    HW193672  11.863   4.774  14.703
63925SOL    HW293673  11.804   4.650  14.766
63926SOL     OW93674   7.697   9.427   8.854
63926SOL    HW193675   7.669   9.490   8.920
63926SOL    HW293676   7.704   9.344   8.902
63927SOL     OW93677   8.914  12.757   7.715
63927SOL    HW193678   8.971  12.814   7.765
63927SOL    HW293679   8.892  12.685   7.775
63928SOL     OW93680   4.055   9.536   3.855
63928SOL    HW193681   3.976   9.559   3.805
63928SOL    HW293682   4.122   9.596   3.822
63929SOL     OW93683   9.623   6.378   4.533
63929SOL    HW193684   9.671   6.332   4.464
63929SOL    HW293685   9.569   6.311   4.574
63930SOL     OW93686  13.188   1.650   8.235
63930SOL    HW193687  13.115   1.665   8.174
63930SOL    HW293688  13.171   1.564   8.272
63931SOL     OW93689   2.109   3.546   7.511
63931SOL    HW193690   2.034   3.510   7.465
63931SOL    HW293691   2.173   3.474   7.513
63932SOL     OW93692   8.535   3.836  11.159
63932SOL    HW193693   8.601   3.852  11.227
63932SOL    HW293694   8.467   3.902  11.175
63933SOL     OW93695   3.575   5.767   9.520
63933SOL    HW193696   3.580   5.690   9.464
63933SOL    HW293697   3.614   5.838   9.468
63934SOL     OW93698  11.808   3.930   3.625
63934SOL    HW193699  11.824   3.985   3.702
63934SOL    HW293700  11.713   3.929   3.616
63935SOL     OW93701   6.553   1.762  10.150
63935SOL    HW193702   6.542   1.738  10.242
63935SOL    HW293703   6.534   1.856  10.148
63936SOL     OW93704  10.334   9.191   1.642
63936SOL    HW193705  10.348   9.152   1.556
63936SOL    HW293706  10.265   9.256   1.628
63937SOL     OW93707  14.330  12.122  14.838
63937SOL    HW193708  14.248  12.168  14.856
63937SOL    HW293709  14.359  12.155  14.753
63938SOL     OW93710  10.646   6.347   5.355
63938SOL    HW193711  10.574   6.393   5.312
63938SOL    HW293712  10.657   6.392   5.439
63939SOL     OW93713  10.389  10.312   1.994
63939SOL    HW193714  10.311  10.367   1.987
63939SOL    HW293715  10.405  10.282   1.904
63940SOL     OW93716   8.305   4.646   5.461
63940SOL    HW193717   8.314   4.636   5.555
63940SOL    HW293718   8.374   4.707   5.436
63941SOL     OW93719   2.190   9.580  13.323
63941SOL    HW193720   2.209   9.525  13.247
63941SOL    HW293721   2.111   9.542  13.360
63942SOL     OW93722   1.742  13.150  11.864
63942SOL    HW193723   1.764  13.184  11.950
63942SOL    HW293724   1.797  13.072  11.854
63943SOL     OW93725   8.391   7.930   8.698
63943SOL    HW193726   8.453   7.877   8.749
63943SOL    HW293727   8.334   7.970   8.764
63944SOL     OW93728   7.489   3.680  12.450
63944SOL    HW193729   7.395   3.686  12.468
63944SOL    HW293730   7.499   3.719  12.363
63945SOL     OW93731   3.422   9.620   0.913
63945SOL    HW193732   3.444   9.565   0.838
63945SOL    HW293733   3.402   9.705   0.875
63946SOL     OW93734   2.660   9.030  14.505
63946SOL    HW193735   2.624   8.944  14.484
63946SOL    HW293736   2.747   9.030  14.466
63947SOL     OW93737  10.590   9.890  10.824
63947SOL    HW193738  10.526   9.896  10.754
63947SOL    HW293739  10.583   9.974  10.870
63948SOL     OW93740  10.508   6.078   5.637
63948SOL    HW193741  10.520   6.058   5.544
63948SOL    HW293742  10.474   6.167   5.638
63949SOL     OW93743   0.765  10.639   5.751
63949SOL    HW193744   0.755  10.608   5.661
63949SOL    HW293745   0.848  10.687   5.751
63950SOL     OW93746  14.764   6.015  10.995
63950SOL    HW193747  14.829   6.076  10.959
63950SOL    HW293748  14.769   6.029  11.090
63951SOL     OW93749  14.401   7.510   4.397
63951SOL    HW193750  14.454   7.431   4.407
63951SOL    HW293751  14.311   7.479   4.402
63952SOL     OW93752   0.117   7.511   7.823
63952SOL    HW193753   0.181   7.566   7.868
63952SOL    HW293754   0.158   7.425   7.816
63953SOL     OW93755   2.426   8.167   2.802
63953SOL    HW193756   2.421   8.246   2.747
63953SOL    HW293757   2.450   8.200   2.889
63954SOL     OW93758  13.417   1.728   6.240
63954SOL    HW193759  13.471   1.781   6.182
63954SOL    HW293760  13.328   1.738   6.206
63955SOL     OW93761   5.464  12.568   8.125
63955SOL    HW193762   5.557  12.589   8.130
63955SOL    HW293763   5.425  12.643   8.079
63956SOL     OW93764   1.051   2.963   4.599
63956SOL    HW193765   0.963   2.985   4.629
63956SOL    HW293766   1.108   3.000   4.666
63957SOL     OW93767   8.374   1.347   9.620
63957SOL    HW193768   8.309   1.411   9.648
63957SOL    HW293769   8.447   1.358   9.681
63958SOL     OW93770  11.936   8.614   1.539
63958SOL    HW193771  12.013   8.613   1.483
63958SOL    HW293772  11.871   8.562   1.492
63959SOL     OW93773   9.451   9.949   2.203
63959SOL    HW193774   9.417   9.871   2.246
63959SOL    HW293775   9.422   9.942   2.113
63960SOL     OW93776  12.010   3.071  12.814
63960SOL    HW193777  12.049   3.000  12.763
63960SOL    HW293778  12.053   3.066  12.899
63961SOL     OW93779  13.201   5.310   0.777
63961SOL    HW193780  13.131   5.358   0.823
63961SOL    HW293781  13.198   5.343   0.688
63962SOL     OW93782   5.533   0.492   6.128
63962SOL    HW193783   5.480   0.421   6.093
63962SOL    HW293784   5.613   0.449   6.159
63963SOL     OW93785  13.426   5.778   8.214
63963SOL    HW193786  13.418   5.855   8.157
63963SOL    HW293787  13.479   5.716   8.164
63964SOL     OW93788  13.339   4.612  14.160
63964SOL    HW193789  13.262   4.600  14.104
63964SOL    HW293790  13.397   4.669  14.109
63965SOL     OW93791   6.662   2.428  10.041
63965SOL    HW193792   6.672   2.360  10.108
63965SOL    HW293793   6.745   2.426   9.992
63966SOL     OW93794   1.811  12.586  11.546
63966SOL    HW193795   1.829  12.500  11.510
63966SOL    HW293796   1.716  12.597  11.537
63967SOL     OW93797   2.441   6.975   5.189
63967SOL    HW193798   2.495   6.906   5.152
63967SOL    HW293799   2.472   6.983   5.280
63968SOL     OW93800  12.830   5.444   6.380
63968SOL    HW193801  12.817   5.404   6.294
63968SOL    HW293802  12.742   5.469   6.408
63969SOL     OW93803   1.396  14.777   2.846
63969SOL    HW193804   1.437  14.813   2.767
63969SOL    HW293805   1.465  14.781   2.913
63970SOL     OW93806   6.581   9.312   8.061
63970SOL    HW193807   6.512   9.338   8.123
63970SOL    HW293808   6.660   9.306   8.114
63971SOL     OW93809   8.618   9.409   8.093
63971SOL    HW193810   8.671   9.486   8.072
63971SOL    HW293811   8.660   9.338   8.044
63972SOL     OW93812  10.685   6.886   0.104
63972SOL    HW193813  10.624   6.901   0.032
63972SOL    HW293814  10.746   6.960   0.100
63973SOL     OW93815  10.056  11.060   5.059
63973SOL    HW193816  10.106  11.021   4.987
63973SOL    HW293817   9.970  11.076   5.023
63974SOL     OW93818   0.617  10.373  14.228
63974SOL    HW193819   0.563  10.335  14.298
63974SOL    HW293820   0.692  10.314  14.222
63975SOL     OW93821  14.447   4.995   7.092
63975SOL    HW193822  14.368   4.950   7.062
63975SOL    HW293823  14.433   5.086   7.067
63976SOL     OW93824   9.821  12.827  12.008
63976SOL    HW193825   9.876  12.865  12.076
63976SOL    HW293826   9.763  12.898  11.982
63977SOL     OW93827  11.808   0.739  13.102
63977SOL    HW193828  11.790   0.782  13.186
63977SOL    HW293829  11.852   0.805  13.049
63978SOL     OW93830   9.607  11.696   3.892
63978SOL    HW193831   9.573  11.624   3.838
63978SOL    HW293832   9.546  11.702   3.965
63979SOL     OW93833  14.387   7.416   2.453
63979SOL    HW193834  14.397   7.339   2.397
63979SOL    HW293835  14.403   7.384   2.542
63980SOL     OW93836  12.683   5.214   1.717
63980SOL    HW193837  12.774   5.206   1.689
63980SOL    HW293838  12.688   5.260   1.801
63981SOL     OW93839  13.379   6.943   6.423
63981SOL    HW193840  13.458   6.889   6.421
63981SOL    HW293841  13.329   6.916   6.347
63982SOL     OW93842  12.018   7.599   9.480
63982SOL    HW193843  12.032   7.629   9.569
63982SOL    HW293844  11.985   7.676   9.433
63983SOL     OW93845  13.924   3.216   1.101
63983SOL    HW193846  13.880   3.292   1.139
63983SOL    HW293847  13.940   3.240   1.010
63984SOL     OW93848   3.191  11.860  12.509
63984SOL    HW193849   3.131  11.859  12.434
63984SOL    HW293850   3.181  11.774  12.549
63985SOL     OW93851   2.008   7.486   0.195
63985SOL    HW193852   1.941   7.553   0.208
63985SOL    HW293853   2.056   7.483   0.277
63986SOL     OW93854   9.478   9.564   1.302
63986SOL    HW193855   9.398   9.575   1.353
63986SOL    HW293856   9.534   9.509   1.357
63987SOL     OW93857   9.717  14.043   6.884
63987SOL    HW193858   9.699  14.119   6.828
63987SOL    HW293859   9.674  13.970   6.839
63988SOL     OW93860  10.536   8.704   2.883
63988SOL    HW193861  10.541   8.624   2.936
63988SOL    HW293862  10.447   8.735   2.896
63989SOL     OW93863  10.907  10.818   4.384
63989SOL    HW193864  10.976  10.787   4.443
63989SOL    HW293865  10.953  10.878   4.325
63990SOL     OW93866   4.602   2.003   0.200
63990SOL    HW193867   4.638   2.042   0.120
63990SOL    HW293868   4.679   1.979   0.251
63991SOL     OW93869  11.423   8.931   7.154
63991SOL    HW193870  11.350   8.878   7.123
63991SOL    HW293871  11.394   9.022   7.144
63992SOL     OW93872   0.422   4.842  10.111
63992SOL    HW193873   0.426   4.926  10.065
63992SOL    HW293874   0.493   4.790  10.074
63993SOL     OW93875  12.631   0.531   8.080
63993SOL    HW193876  12.618   0.479   8.001
63993SOL    HW293877  12.589   0.481   8.150
63994SOL     OW93878   8.183  12.794   1.580
63994SOL    HW193879   8.225  12.819   1.663
63994SOL    HW293880   8.102  12.844   1.579
63995SOL     OW93881  14.190  13.238   7.329
63995SOL    HW193882  14.258  13.178   7.361
63995SOL    HW293883  14.131  13.183   7.279
63996SOL     OW93884   1.321  14.173  12.915
63996SOL    HW193885   1.296  14.097  12.863
63996SOL    HW293886   1.245  14.190  12.970
63997SOL     OW93887   2.388  12.862  10.079
63997SOL    HW193888   2.398  12.767  10.083
63997SOL    HW293889   2.385  12.890  10.171
63998SOL     OW93890   0.998  12.167   4.344
63998SOL    HW193891   1.042  12.082   4.345
63998SOL    HW293892   0.907  12.147   4.320
63999SOL     OW93893   0.860   2.117   7.317
63999SOL    HW193894   0.903   2.202   7.305
63999SOL    HW293895   0.913   2.056   7.265
64000SOL     OW93896  14.234  14.177  11.788
64000SOL    HW193897  14.302  14.225  11.742
64000SOL    HW293898  14.157  14.235  11.785
64001SOL     OW93899   0.448  14.274   1.533
64001SOL    HW193900   0.519  14.337   1.538
64001SOL    HW293901   0.442  14.237   1.621
64002SOL     OW93902   0.910   7.197   1.367
64002SOL    HW193903   0.933   7.122   1.311
64002SOL    HW293904   0.974   7.265   1.343
64003SOL     OW93905  11.512  13.403  14.027
64003SOL    HW193906  11.445  13.446  14.079
64003SOL    HW293907  11.543  13.470  13.966
64004SOL     OW93908   8.631   3.982   0.780
64004SOL    HW193909   8.608   3.890   0.767
64004SOL    HW293910   8.626   3.995   0.875
64005SOL     OW93911  14.716  13.898   9.093
64005SOL    HW193912  14.713  13.989   9.063
64005SOL    HW293913  14.631  13.862   9.067
64006SOL     OW93914   1.323   6.320  10.098
64006SOL    HW193915   1.369   6.384  10.044
64006SOL    HW293916   1.291   6.370  10.173
64007SOL     OW93917   8.416   2.124   1.257
64007SOL    HW193918   8.469   2.049   1.284
64007SOL    HW293919   8.478   2.197   1.250
64008SOL     OW93920   3.518   2.492  11.697
64008SOL    HW193921   3.469   2.473  11.777
64008SOL    HW293922   3.493   2.582  11.674
64009SOL     OW93923  10.201   1.907   7.056
64009SOL    HW193924  10.138   1.948   7.115
64009SOL    HW293925  10.217   1.973   6.988
64010SOL     OW93926  10.106   2.487   0.566
64010SOL    HW193927  10.110   2.578   0.536
64010SOL    HW293928  10.071   2.438   0.492
64011SOL     OW93929  12.737   2.893   2.696
64011SOL    HW193930  12.827   2.866   2.714
64011SOL    HW293931  12.684   2.845   2.760
64012SOL     OW93932   8.642   6.779  14.094
64012SOL    HW193933   8.579   6.707  14.096
64012SOL    HW293934   8.723   6.740  14.062
64013SOL     OW93935   2.671   2.094   3.639
64013SOL    HW193936   2.697   2.163   3.578
64013SOL    HW293937   2.746   2.034   3.640
64014SOL     OW93938  11.250   0.237   1.596
64014SOL    HW193939  11.173   0.293   1.581
64014SOL    HW293940  11.249   0.175   1.523
64015SOL     OW93941   8.667  12.813  10.789
64015SOL    HW193942   8.685  12.773  10.704
64015SOL    HW293943   8.753  12.839  10.822
64016SOL     OW93944   9.925  14.805   5.183
64016SOL    HW193945  10.020  14.804   5.194
64016SOL    HW293946   9.901  14.712   5.182
64017SOL     OW93947  14.626   1.208   8.774
64017SOL    HW193948  14.579   1.291   8.784
64017SOL    HW293949  14.698   1.214   8.837
64018SOL     OW93950   7.360  13.852  10.077
64018SOL    HW193951   7.427  13.906  10.119
64018SOL    HW293952   7.400  13.824   9.994
64019SOL     OW93953  13.173   9.404  14.195
64019SOL    HW193954  13.112   9.331  14.201
64019SOL    HW293955  13.256   9.369  14.228
64020SOL     OW93956   7.625   0.534   0.454
64020SOL    HW193957   7.684   0.602   0.486
64020SOL    HW293958   7.646   0.525   0.361
64021SOL     OW93959   2.921   6.238   0.886
64021SOL    HW193960   2.850   6.296   0.859
64021SOL    HW293961   2.977   6.231   0.809
64022SOL     OW93962  13.795  13.169   2.279
64022SOL    HW193963  13.735  13.155   2.206
64022SOL    HW293964  13.756  13.241   2.328
64023SOL     OW93965   3.005   5.576  13.983
64023SOL    HW193966   2.969   5.492  14.010
64023SOL    HW293967   3.072   5.596  14.048
64024SOL     OW93968   3.005   9.474  11.297
64024SOL    HW193969   2.989   9.402  11.358
64024SOL    HW293970   3.085   9.449  11.251
64025SOL     OW93971   0.766   2.625   9.184
64025SOL    HW193972   0.858   2.601   9.172
64025SOL    HW293973   0.742   2.667   9.101
64026SOL     OW93974   1.254   4.988   0.490
64026SOL    HW193975   1.262   5.019   0.580
64026SOL    HW293976   1.336   4.941   0.473
64027SOL     OW93977   1.682  10.843   1.166
64027SOL    HW193978   1.634  10.858   1.085
64027SOL    HW293979   1.693  10.748   1.171
64028SOL     OW93980   5.462  14.515   8.145
64028SOL    HW193981   5.389  14.545   8.199
64028SOL    HW293982   5.529  14.489   8.208
64029SOL     OW93983   3.564  11.641   6.591
64029SOL    HW193984   3.604  11.597   6.517
64029SOL    HW293985   3.497  11.697   6.552
64030SOL     OW93986   4.297   5.701  12.709
64030SOL    HW193987   4.339   5.622  12.742
64030SOL    HW293988   4.258   5.676  12.625
64031SOL     OW93989   8.274   5.946   0.733
64031SOL    HW193990   8.307   6.007   0.668
64031SOL    HW293991   8.192   5.912   0.695
64032SOL     OW93992   2.261   5.566   8.527
64032SOL    HW193993   2.235   5.508   8.455
64032SOL    HW293994   2.253   5.654   8.491
64033SOL     OW93995   4.479  13.392   3.726
64033SOL    HW193996   4.563  13.346   3.723
64033SOL    HW293997   4.424  13.343   3.664
64034SOL     OW93998   9.764   4.854  13.843
64034SOL    HW193999   9.708   4.916  13.796
64034SOL    HW294000   9.801   4.798  13.774
64035SOL     OW94001   9.783   8.763  13.985
64035SOL    HW194002   9.832   8.808  13.917
64035SOL    HW294003   9.847   8.707  14.028
64036SOL     OW94004   5.226  11.327  10.280
64036SOL    HW194005   5.297  11.354  10.222
64036SOL    HW294006   5.173  11.406  10.291
64037SOL     OW94007  12.259   5.536  12.253
64037SOL    HW194008  12.210   5.512  12.332
64037SOL    HW294009  12.303   5.618  12.276
64038SOL     OW94010   4.640  12.805   6.702
64038SOL    HW194011   4.572  12.858   6.743
64038SOL    HW294012   4.639  12.831   6.610
64039SOL     OW94013  12.464   7.383   6.953
64039SOL    HW194014  12.470   7.351   6.863
64039SOL    HW294015  12.413   7.464   6.946
64040SOL     OW94016  14.750  14.705  14.384
64040SOL    HW194017  14.794  14.654  14.452
64040SOL    HW294018  14.656  14.689  14.400
64041SOL     OW94019  13.129   7.756   8.387
64041SOL    HW194020  13.091   7.734   8.302
64041SOL    HW294021  13.169   7.842   8.374
64042SOL     OW94022  11.530   5.850   9.123
64042SOL    HW194023  11.438   5.874   9.111
64042SOL    HW294024  11.541   5.770   9.073
64043SOL     OW94025   5.088   6.518   9.327
64043SOL    HW194026   5.113   6.550   9.413
64043SOL    HW294027   5.169   6.519   9.276
64044SOL     OW94028  10.654   9.395   6.033
64044SOL    HW194029  10.712   9.326   6.066
64044SOL    HW294030  10.703   9.435   5.961
64045SOL     OW94031   4.258  11.820  10.326
64045SOL    HW194032   4.282  11.753  10.389
64045SOL    HW294033   4.264  11.902  10.374
64046SOL     OW94034   1.664   3.570   6.905
64046SOL    HW194035   1.701   3.520   6.833
64046SOL    HW294036   1.603   3.510   6.948
64047SOL     OW94037   1.959   8.282  14.748
64047SOL    HW194038   1.913   8.207  14.786
64047SOL    HW294039   2.040   8.289  14.799
64048SOL     OW94040   1.980   0.396   0.282
64048SOL    HW194041   1.888   0.418   0.268
64048SOL    HW294042   1.982   0.357   0.370
64049SOL     OW94043   4.030  11.506  11.099
64049SOL    HW194044   3.974  11.563  11.151
64049SOL    HW294045   4.068  11.564  11.032
64050SOL     OW94046   9.749  11.217  10.577
64050SOL    HW194047   9.688  11.275  10.532
64050SOL    HW294048   9.822  11.208  10.516
64051SOL     OW94049  10.371  14.060   1.104
64051SOL    HW194050  10.388  14.000   1.032
64051SOL    HW294051  10.376  14.147   1.065
64052SOL     OW94052   1.314   1.206   1.287
64052SOL    HW194053   1.332   1.205   1.381
64052SOL    HW294054   1.248   1.274   1.276
64053SOL     OW94055   2.148   4.591  12.989
64053SOL    HW194056   2.106   4.507  13.008
64053SOL    HW294057   2.231   4.587  13.035
64054SOL     OW94058   9.682   9.217   0.172
64054SOL    HW194059   9.601   9.257   0.141
64054SOL    HW294060   9.711   9.275   0.243
64055SOL     OW94061   7.788   1.703   0.998
64055SOL    HW194062   7.782   1.608   0.988
64055SOL    HW294063   7.717   1.737   0.943
64056SOL     OW94064  14.730  12.194   0.862
64056SOL    HW194065  14.642  12.186   0.823
64056SOL    HW294066  14.787  12.145   0.803
64057SOL     OW94067  11.460   7.426  12.595
64057SOL    HW194068  11.405   7.364  12.548
64057SOL    HW294069  11.399   7.483  12.641
64058SOL     OW94070   5.848   2.270  10.452
64058SOL    HW194071   5.874   2.262  10.360
64058SOL    HW294072   5.775   2.209  10.461
64059SOL     OW94073   2.577   7.275  12.832
64059SOL    HW194074   2.670   7.299  12.834
64059SOL    HW294075   2.577   7.179  12.837
64060SOL     OW94076   1.831  12.162   6.706
64060SOL    HW194077   1.914  12.122   6.733
64060SOL    HW294078   1.840  12.255   6.728
64061SOL     OW94079   2.232   7.813   7.499
64061SOL    HW194080   2.266   7.880   7.557
64061SOL    HW294081   2.274   7.732   7.528
64062SOL     OW94082  12.717  12.175  10.729
64062SOL    HW194083  12.777  12.209  10.795
64062SOL    HW294084  12.645  12.238  10.727
64063SOL     OW94085  12.412  14.104  10.320
64063SOL    HW194086  12.452  14.115  10.234
64063SOL    HW294087  12.344  14.171  10.324
64064SOL     OW94088   6.729  13.741   0.394
64064SOL    HW194089   6.652  13.727   0.338
64064SOL    HW294090   6.700  13.718   0.482
64065SOL     OW94091   8.880   6.869   7.113
64065SOL    HW194092   8.971   6.844   7.098
64065SOL    HW294093   8.874   6.879   7.208
64066SOL     OW94094  14.538   3.898  14.757
64066SOL    HW194095  14.611   3.947  14.794
64066SOL    HW294096  14.463   3.921  14.813
64067SOL     OW94097  12.295  12.296   9.506
64067SOL    HW194098  12.230  12.332   9.446
64067SOL    HW294099  12.275  12.338   9.590
64068SOL     OW94100  12.240  12.900   1.800
64068SOL    HW194101  12.194  12.851   1.731
64068SOL    HW294102  12.169  12.939   1.852
64069SOL     OW94103   8.763   3.150  14.039
64069SOL    HW194104   8.821   3.178  13.967
64069SOL    HW294105   8.675   3.168  14.007
64070SOL     OW94106  12.185   7.103   5.191
64070SOL    HW194107  12.168   7.189   5.229
64070SOL    HW294108  12.107   7.051   5.212
64071SOL     OW94109   7.674   4.031   2.015
64071SOL    HW194110   7.621   4.069   2.085
64071SOL    HW294111   7.685   3.940   2.040
64072SOL     OW94112   2.488   9.961  10.178
64072SOL    HW194113   2.424   9.989  10.113
64072SOL    HW294114   2.569   9.949  10.128
64073SOL     OW94115   9.847   0.098   8.797
64073SOL    HW194116   9.888   0.026   8.845
64073SOL    HW294117   9.761   0.065   8.773
64074SOL     OW94118   3.952  12.975  14.051
64074SOL    HW194119   4.034  13.002  14.093
64074SOL    HW294120   3.890  12.968  14.123
64075SOL     OW94121  11.965  13.493   7.582
64075SOL    HW194122  12.038  13.460   7.529
64075SOL    HW294123  11.991  13.474   7.672
64076SOL     OW94124  10.735   6.056   0.495
64076SOL    HW194125  10.711   6.061   0.403
64076SOL    HW294126  10.656   6.084   0.542
64077SOL     OW94127   1.159   1.655   3.989
64077SOL    HW194128   1.085   1.598   3.970
64077SOL    HW294129   1.122   1.742   3.994
64078SOL     OW94130   2.801   3.153   0.953
64078SOL    HW194131   2.789   3.136   1.046
64078SOL    HW294132   2.717   3.132   0.913
64079SOL     OW94133   9.389   1.789  10.395
64079SOL    HW194134   9.366   1.867  10.446
64079SOL    HW294135   9.413   1.823  10.308
64080SOL     OW94136   6.644   8.971   2.173
64080SOL    HW194137   6.589   9.039   2.212
64080SOL    HW294138   6.648   8.903   2.240
64081SOL     OW94139  12.016   4.791   7.385
64081SOL    HW194140  12.079   4.772   7.315
64081SOL    HW294141  11.932   4.759   7.351
64082SOL     OW94142   4.078   7.499  14.822
64082SOL    HW194143   4.149   7.447  14.860
64082SOL    HW294144   4.044   7.550   0.013
64083SOL     OW94145   9.516  14.825   7.608
64083SOL    HW194146   9.566   0.010   7.560
64083SOL    HW294147   9.573  14.749   7.609
64084SOL     OW94148   5.272  10.113  12.420
64084SOL    HW194149   5.248  10.203  12.444
64084SOL    HW294150   5.324  10.122  12.341
64085SOL     OW94151   6.542   3.080   3.557
64085SOL    HW194152   6.569   3.101   3.647
64085SOL    HW294153   6.506   2.992   3.563
64086SOL     OW94154   6.038  14.125  11.102
64086SOL    HW194155   6.057  14.068  11.028
64086SOL    HW294156   6.033  14.065  11.177
64087SOL     OW94157  12.584   1.221   5.587
64087SOL    HW194158  12.565   1.266   5.505
64087SOL    HW294159  12.502   1.176   5.610
64088SOL     OW94160   4.144  12.761  11.964
64088SOL    HW194161   4.201  12.836  11.948
64088SOL    HW294162   4.142  12.752  12.059
64089SOL     OW94163   0.498   8.791  11.888
64089SOL    HW194164   0.568   8.784  11.953
64089SOL    HW294165   0.443   8.863  11.920
64090SOL     OW94166  10.807  12.834  13.105
64090SOL    HW194167  10.735  12.774  13.086
64090SOL    HW294168  10.826  12.876  13.021
64091SOL     OW94169   8.522   3.890  13.647
64091SOL    HW194170   8.550   3.818  13.705
64091SOL    HW294171   8.590   3.894  13.580
64092SOL     OW94172   4.000   4.195   5.333
64092SOL    HW194173   3.973   4.108   5.363
64092SOL    HW294174   3.951   4.255   5.389
64093SOL     OW94175  12.693  11.458   5.700
64093SOL    HW194176  12.704  11.383   5.757
64093SOL    HW294177  12.762  11.449   5.634
64094SOL     OW94178   6.756   9.192  14.664
64094SOL    HW194179   6.739   9.284  14.644
64094SOL    HW294180   6.829   9.168  14.607
64095SOL     OW94181   3.870   1.324   7.498
64095SOL    HW194182   3.965   1.331   7.491
64095SOL    HW294183   3.856   1.286   7.585
64096SOL     OW94184  11.538   5.436   8.794
64096SOL    HW194185  11.624   5.416   8.758
64096SOL    HW294186  11.496   5.490   8.727
64097SOL     OW94187   6.179  10.199  14.798
64097SOL    HW194188   6.158  10.219  14.706
64097SOL    HW294189   6.135  10.116  14.815
64098SOL     OW94190   1.691   0.342  11.058
64098SOL    HW194191   1.706   0.436  11.068
64098SOL    HW294192   1.762   0.301  11.107
64099SOL     OW94193  11.350   0.516   5.823
64099SOL    HW194194  11.272   0.488   5.871
64099SOL    HW294195  11.383   0.591   5.872
64100SOL     OW94196   6.941   7.675   4.799
64100SOL    HW194197   6.851   7.694   4.774
64100SOL    HW294198   6.993   7.702   4.723
64101SOL     OW94199   6.414  14.076   5.580
64101SOL    HW194200   6.324  14.049   5.562
64101SOL    HW294201   6.428  14.051   5.672
64102SOL     OW94202  12.722  11.535   3.210
64102SOL    HW194203  12.725  11.473   3.137
64102SOL    HW294204  12.632  11.567   3.211
64103SOL     OW94205  13.959   3.001   8.958
64103SOL    HW194206  13.911   2.919   8.948
64103SOL    HW294207  13.904   3.055   9.015
64104SOL     OW94208   8.418   6.892  14.406
64104SOL    HW194209   8.367   6.890  14.324
64104SOL    HW294210   8.357   6.929  14.470
64105SOL     OW94211  11.191   1.611   5.106
64105SOL    HW194212  11.141   1.670   5.162
64105SOL    HW294213  11.244   1.669   5.052
64106SOL     OW94214   1.885   8.397  13.003
64106SOL    HW194215   1.950   8.467  13.004
64106SOL    HW294216   1.926   8.327  12.951
64107SOL     OW94217   8.393  12.685  10.754
64107SOL    HW194218   8.475  12.714  10.795
64107SOL    HW294219   8.340  12.765  10.748
64108SOL     OW94220   6.193  11.653   8.525
64108SOL    HW194221   6.154  11.566   8.535
64108SOL    HW294222   6.176  11.677   8.434
64109SOL     OW94223   5.038  10.500   2.939
64109SOL    HW194224   4.950  10.473   2.965
64109SOL    HW294225   5.073  10.546   3.014
64110SOL     OW94226   7.552   6.609  10.580
64110SOL    HW194227   7.545   6.646  10.668
64110SOL    HW294228   7.636   6.562  10.581
64111SOL     OW94229  12.229  10.871  11.451
64111SOL    HW194230  12.299  10.814  11.420
64111SOL    HW294231  12.162  10.811  11.484
64112SOL     OW94232   5.948   9.596   3.320
64112SOL    HW194233   5.936   9.534   3.248
64112SOL    HW294234   5.973   9.678   3.277
64113SOL     OW94235   1.630  14.585  10.509
64113SOL    HW194236   1.628  14.598  10.604
64113SOL    HW294237   1.710  14.534  10.494
64114SOL     OW94238   4.986   7.065  11.272
64114SOL    HW194239   4.947   7.148  11.243
64114SOL    HW294240   5.076   7.068  11.240
64115SOL     OW94241   8.702  14.198  12.691
64115SOL    HW194242   8.698  14.275  12.748
64115SOL    HW294243   8.615  14.158  12.698
64116SOL     OW94244  14.132   5.157  13.297
64116SOL    HW194245  14.204   5.095  13.281
64116SOL    HW294246  14.054   5.113  13.262
64117SOL     OW94247  12.508   4.590   5.282
64117SOL    HW194248  12.573   4.660   5.286
64117SOL    HW294249  12.425   4.634   5.300
64118SOL     OW94250   1.245   9.172   2.205
64118SOL    HW194251   1.307   9.205   2.270
64118SOL    HW294252   1.300   9.134   2.136
64119SOL     OW94253   5.088   8.103  14.430
64119SOL    HW194254   5.045   8.111  14.345
64119SOL    HW294255   5.061   8.017  14.462
64120SOL     OW94256   6.917   3.110  11.740
64120SOL    HW194257   6.994   3.061  11.712
64120SOL    HW294258   6.879   3.144  11.659
64121SOL     OW94259   6.324   4.241  13.092
64121SOL    HW194260   6.344   4.334  13.098
64121SOL    HW294261   6.359   4.214  13.007
64122SOL     OW94262  13.286   1.549   0.467
64122SOL    HW194263  13.296   1.615   0.399
64122SOL    HW294264  13.214   1.583   0.522
64123SOL     OW94265  11.128   5.400  13.243
64123SOL    HW194266  11.165   5.317  13.274
64123SOL    HW294267  11.093   5.380  13.156
64124SOL     OW94268   5.084   9.560   4.539
64124SOL    HW194269   5.003   9.604   4.564
64124SOL    HW294270   5.102   9.500   4.611
64125SOL     OW94271  11.191   5.163   5.513
64125SOL    HW194272  11.268   5.189   5.462
64125SOL    HW294273  11.118   5.165   5.452
64126SOL     OW94274   0.643   7.217  12.912
64126SOL    HW194275   0.595   7.287  12.956
64126SOL    HW294276   0.615   7.137  12.956
64127SOL     OW94277   4.874   2.078   8.959
64127SOL    HW194278   4.874   2.120   9.045
64127SOL    HW294279   4.927   1.999   8.970
64128SOL     OW94280  14.188   1.698   9.211
64128SOL    HW194281  14.110   1.644   9.222
64128SOL    HW294282  14.219   1.713   9.301
64129SOL     OW94283  10.547  11.977   5.298
64129SOL    HW194284  10.543  11.882   5.312
64129SOL    HW294285  10.557  11.987   5.203
64130SOL     OW94286   7.548  12.803  14.707
64130SOL    HW194287   7.624  12.860  14.712
64130SOL    HW294288   7.583  12.715  14.715
64131SOL     OW94289  12.156   6.618   7.486
64131SOL    HW194290  12.234   6.587   7.440
64131SOL    HW294291  12.089   6.553   7.465
64132SOL     OW94292   3.599   0.480   4.135
64132SOL    HW194293   3.537   0.409   4.150
64132SOL    HW294294   3.560   0.555   4.181
64133SOL     OW94295   3.954   6.420   6.589
64133SOL    HW194296   3.945   6.478   6.513
64133SOL    HW294297   4.045   6.390   6.586
64134SOL     OW94298   1.471   8.655  11.614
64134SOL    HW194299   1.391   8.661  11.562
64134SOL    HW294300   1.509   8.571  11.590
64135SOL     OW94301   5.350   3.491   7.968
64135SOL    HW194302   5.438   3.455   7.976
64135SOL    HW294303   5.330   3.526   8.055
64136SOL     OW94304  11.609  11.384   2.344
64136SOL    HW194305  11.684  11.430   2.306
64136SOL    HW294306  11.584  11.437   2.420
64137SOL     OW94307  10.018   2.372  10.432
64137SOL    HW194308   9.977   2.441  10.485
64137SOL    HW294309  10.094   2.415  10.392
64138SOL     OW94310   3.219   5.034  13.666
64138SOL    HW194311   3.230   5.124  13.636
64138SOL    HW294312   3.297   4.988  13.635
64139SOL     OW94313  14.363  11.855   2.982
64139SOL    HW194314  14.378  11.772   2.938
64139SOL    HW294315  14.433  11.912   2.948
64140SOL     OW94316   9.133  14.638  12.975
64140SOL    HW194317   9.105  14.595  13.056
64140SOL    HW294318   9.198  14.703  13.004
64141SOL     OW94319  11.893   1.287  14.656
64141SOL    HW194320  11.985   1.285  14.633
64141SOL    HW294321  11.850   1.234  14.588
64142SOL     OW94322  12.673   4.781   0.536
64142SOL    HW194323  12.617   4.738   0.471
64142SOL    HW294324  12.759   4.786   0.494
64143SOL     OW94325  11.782   1.370   1.133
64143SOL    HW194326  11.759   1.395   1.043
64143SOL    HW294327  11.774   1.275   1.134
64144SOL     OW94328  11.737   9.552   4.074
64144SOL    HW194329  11.642   9.558   4.064
64144SOL    HW294330  11.751   9.471   4.123
64145SOL     OW94331   0.835  13.852   9.891
64145SOL    HW194332   0.884  13.899   9.824
64145SOL    HW294333   0.900  13.835   9.960
64146SOL     OW94334   4.585   2.304   1.012
64146SOL    HW194335   4.529   2.294   1.089
64146SOL    HW294336   4.674   2.300   1.045
64147SOL     OW94337   3.014  13.268   8.241
64147SOL    HW194338   3.080  13.334   8.264
64147SOL    HW294339   2.939  13.320   8.211
64148SOL     OW94340   3.658   1.198   0.019
64148SOL    HW194341   3.650   1.287   0.054
64148SOL    HW294342   3.752   1.186   0.008
64149SOL     OW94343   6.358  11.493  14.296
64149SOL    HW194344   6.373  11.532  14.210
64149SOL    HW294345   6.303  11.556  14.342
64150SOL     OW94346   2.452   7.272  14.789
64150SOL    HW194347   2.472   7.365  14.793
64150SOL    HW294348   2.374   7.261  14.844
64151SOL     OW94349   8.556   6.998   2.325
64151SOL    HW194350   8.583   6.997   2.417
64151SOL    HW294351   8.489   7.066   2.320
64152SOL     OW94352  12.790   1.416   5.589
64152SOL    HW194353  12.747   1.340   5.627
64152SOL    HW294354  12.824   1.465   5.664
64153SOL     OW94355  12.828   6.750  11.476
64153SOL    HW194356  12.895   6.768  11.410
64153SOL    HW294357  12.860   6.794  11.555
64154SOL     OW94358  14.169  13.092   5.411
64154SOL    HW194359  14.263  13.105   5.405
64154SOL    HW294360  14.157  13.030   5.482
64155SOL     OW94361   6.024   0.308   8.548
64155SOL    HW194362   6.058   0.312   8.459
64155SOL    HW294363   6.103   0.311   8.603
64156SOL     OW94364  13.523  12.283  12.739
64156SOL    HW194365  13.572  12.351  12.692
64156SOL    HW294366  13.533  12.307  12.831
64157SOL     OW94367  11.873   3.282   1.062
64157SOL    HW194368  11.803   3.237   1.109
64157SOL    HW294369  11.949   3.277   1.120
64158SOL     OW94370   4.673   5.812  11.491
64158SOL    HW194371   4.763   5.823  11.462
64158SOL    HW294372   4.634   5.751  11.428
64159SOL     OW94373   6.105   4.775   0.938
64159SOL    HW194374   6.042   4.731   0.996
64159SOL    HW294375   6.099   4.867   0.962
64160SOL     OW94376   3.510   4.062  14.342
64160SOL    HW194377   3.556   3.978  14.343
64160SOL    HW294378   3.523   4.097  14.430
64161SOL     OW94379   6.818   2.428   3.762
64161SOL    HW194380   6.852   2.497   3.705
64161SOL    HW294381   6.831   2.347   3.712
64162SOL     OW94382   6.400   3.094   4.321
64162SOL    HW194383   6.334   3.163   4.315
64162SOL    HW294384   6.478   3.132   4.280
64163SOL     OW94385  12.164  10.813  13.248
64163SOL    HW194386  12.131  10.784  13.333
64163SOL    HW294387  12.216  10.891  13.268
64164SOL     OW94388   7.388  12.250  10.860
64164SOL    HW194389   7.320  12.194  10.823
64164SOL    HW294390   7.343  12.332  10.879
64165SOL     OW94391   6.149  12.935   3.287
64165SOL    HW194392   6.148  12.888   3.370
64165SOL    HW294393   6.241  12.937   3.261
64166SOL     OW94394  11.142   3.898   9.168
64166SOL    HW194395  11.143   3.886   9.263
64166SOL    HW294396  11.098   3.982   9.155
64167SOL     OW94397   3.402   0.407  13.645
64167SOL    HW194398   3.323   0.357  13.665
64167SOL    HW294399   3.372   0.477  13.587
64168SOL     OW94400   1.949   1.597   7.916
64168SOL    HW194401   1.957   1.602   8.011
64168SOL    HW294402   2.039   1.589   7.884
64169SOL     OW94403   7.256   5.001  14.547
64169SOL    HW194404   7.242   4.928  14.608
64169SOL    HW294405   7.344   5.031  14.566
64170SOL     OW94406  13.257   5.878   5.475
64170SOL    HW194407  13.196   5.895   5.403
64170SOL    HW294408  13.311   5.805   5.444
64171SOL     OW94409   9.574   1.540  14.203
64171SOL    HW194410   9.508   1.476  14.174
64171SOL    HW294411   9.577   1.604  14.132
64172SOL     OW94412  12.274   0.769  11.542
64172SOL    HW194413  12.367   0.780  11.562
64172SOL    HW294414  12.263   0.811  11.456
64173SOL     OW94415   5.582   3.377   6.497
64173SOL    HW194416   5.630   3.314   6.442
64173SOL    HW294417   5.650   3.437   6.528
64174SOL     OW94418   5.235  12.964   9.121
64174SOL    HW194419   5.245  12.913   9.202
64174SOL    HW294420   5.158  12.926   9.078
64175SOL     OW94421   8.806  11.297   3.128
64175SOL    HW194422   8.853  11.306   3.045
64175SOL    HW294423   8.754  11.377   3.134
64176SOL     OW94424  12.440   7.247   5.985
64176SOL    HW194425  12.426   7.240   5.891
64176SOL    HW294426  12.354   7.227   6.023
64177SOL     OW94427   5.065   2.445   3.843
64177SOL    HW194428   5.052   2.353   3.820
64177SOL    HW294429   5.112   2.482   3.769
64178SOL     OW94430   6.032  12.052  10.523
64178SOL    HW194431   6.049  12.103  10.444
64178SOL    HW294432   6.112  12.000  10.535
64179SOL     OW94433   2.638   7.101  14.874
64179SOL    HW194434   2.559   7.146  14.843
64179SOL    HW294435   2.709   7.139  14.823
64180SOL     OW94436   4.852  10.809   4.651
64180SOL    HW194437   4.948  10.813   4.651
64180SOL    HW294438   4.832  10.730   4.601
64181SOL     OW94439  10.636   2.745   3.739
64181SOL    HW194440  10.635   2.680   3.808
64181SOL    HW294441  10.719   2.791   3.751
64182SOL     OW94442   5.097   2.103  14.224
64182SOL    HW194443   5.135   2.191  14.219
64182SOL    HW294444   5.169   2.048  14.256
64183SOL     OW94445   7.657  10.225   9.491
64183SOL    HW194446   7.734  10.279   9.474
64183SOL    HW294447   7.685  10.163   9.558
64184SOL     OW94448   2.128   6.377   6.193
64184SOL    HW194449   2.214   6.343   6.171
64184SOL    HW294450   2.073   6.299   6.202
64185SOL     OW94451   2.365  11.512   4.761
64185SOL    HW194452   2.314  11.437   4.731
64185SOL    HW294453   2.395  11.553   4.680
64186SOL     OW94454   7.739   7.037   5.340
64186SOL    HW194455   7.684   6.968   5.303
64186SOL    HW294456   7.760   7.006   5.428
64187SOL     OW94457  10.331   3.461   5.755
64187SOL    HW194458  10.391   3.482   5.826
64187SOL    HW294459  10.383   3.411   5.693
64188SOL     OW94460  13.299  11.155   0.075
64188SOL    HW194461  13.369  11.137   0.138
64188SOL    HW294462  13.283  11.249   0.082
64189SOL     OW94463   7.774  11.469  11.626
64189SOL    HW194464   7.855  11.512  11.599
64189SOL    HW294465   7.769  11.391  11.570
64190SOL     OW94466   5.121   7.397   9.407
64190SOL    HW194467   5.093   7.445   9.329
64190SOL    HW294468   5.078   7.441   9.480
64191SOL     OW94469   9.246   9.680   2.006
64191SOL    HW194470   9.306   9.621   1.960
64191SOL    HW294471   9.170   9.626   2.027
64192SOL     OW94472  12.277  10.214   0.530
64192SOL    HW194473  12.284  10.120   0.516
64192SOL    HW294474  12.359  10.250   0.495
64193SOL     OW94475   7.458   6.675   0.160
64193SOL    HW194476   7.462   6.731   0.083
64193SOL    HW294477   7.366   6.674   0.185
64194SOL     OW94478   4.516  14.482   5.835
64194SOL    HW194479   4.487  14.407   5.886
64194SOL    HW294480   4.435  14.529   5.813
64195SOL     OW94481   9.102   4.536   0.390
64195SOL    HW194482   9.060   4.476   0.451
64195SOL    HW294483   9.195   4.533   0.413
64196SOL     OW94484  13.845  10.940   0.120
64196SOL    HW194485  13.796  10.906   0.046
64196SOL    HW294486  13.799  11.021   0.144
64197SOL     OW94487  12.178  12.231   7.508
64197SOL    HW194488  12.165  12.139   7.530
64197SOL    HW294489  12.090  12.267   7.497
64198SOL     OW94490  13.399   1.366   6.982
64198SOL    HW194491  13.437   1.283   7.011
64198SOL    HW294492  13.465   1.404   6.924
64199SOL     OW94493   5.821   1.089  11.604
64199SOL    HW194494   5.889   1.051  11.660
64199SOL    HW294495   5.789   1.165  11.653
64200SOL     OW94496   3.680   4.620   4.126
64200SOL    HW194497   3.621   4.563   4.176
64200SOL    HW294498   3.737   4.659   4.191
64201SOL     OW94499   8.225   7.932  11.149
64201SOL    HW194500   8.184   7.987  11.083
64201SOL    HW294501   8.311   7.910  11.113
64202SOL     OW94502  10.746   9.515   8.024
64202SOL    HW194503  10.681   9.585   8.035
64202SOL    HW294504  10.829   9.556   8.048
64203SOL     OW94505   5.625  12.171  11.164
64203SOL    HW194506   5.585  12.097  11.117
64203SOL    HW294507   5.641  12.137  11.252
64204SOL     OW94508   0.433   0.752  13.933
64204SOL    HW194509   0.407   0.713  14.017
64204SOL    HW294510   0.444   0.845  13.953
64205SOL     OW94511   2.559  10.400  12.988
64205SOL    HW194512   2.649  10.374  13.006
64205SOL    HW294513   2.554  10.404  12.893
64206SOL     OW94514  11.192   3.592   4.764
64206SOL    HW194515  11.123   3.535   4.797
64206SOL    HW294516  11.268   3.534   4.756
64207SOL     OW94517  11.503   7.358   2.748
64207SOL    HW194518  11.526   7.267   2.765
64207SOL    HW294519  11.408   7.360   2.751
64208SOL     OW94520   2.751  12.773   4.288
64208SOL    HW194521   2.740  12.843   4.224
64208SOL    HW294522   2.666  12.728   4.289
64209SOL     OW94523   5.547  13.758   2.047
64209SOL    HW194524   5.512  13.683   2.096
64209SOL    HW294525   5.568  13.722   1.961
64210SOL     OW94526   4.931  10.240   5.000
64210SOL    HW194527   4.996  10.267   5.065
64210SOL    HW294528   4.921  10.146   5.015
64211SOL     OW94529   0.303  13.570   4.902
64211SOL    HW194530   0.267  13.659   4.907
64211SOL    HW294531   0.279  13.530   4.986
64212SOL     OW94532   8.142   3.267   4.200
64212SOL    HW194533   8.053   3.235   4.211
64212SOL    HW294534   8.136   3.362   4.213
64213SOL     OW94535  12.845   4.337  10.982
64213SOL    HW194536  12.874   4.352  10.892
64213SOL    HW294537  12.754   4.367  10.983
64214SOL     OW94538   0.701   1.843  11.146
64214SOL    HW194539   0.790   1.876  11.135
64214SOL    HW294540   0.685   1.846  11.241
64215SOL     OW94541   3.041   5.770   7.376
64215SOL    HW194542   3.047   5.768   7.281
64215SOL    HW294543   3.095   5.844   7.402
64216SOL     OW94544   1.593   9.093   6.184
64216SOL    HW194545   1.500   9.094   6.206
64216SOL    HW294546   1.602   9.020   6.122
64217SOL     OW94547   2.305  10.683   4.656
64217SOL    HW194548   2.300  10.632   4.737
64217SOL    HW294549   2.215  10.689   4.625
64218SOL     OW94550   6.960   3.632   4.905
64218SOL    HW194551   6.978   3.641   4.998
64218SOL    HW294552   7.028   3.685   4.862
64219SOL     OW94553  10.777   2.503   1.177
64219SOL    HW194554  10.738   2.444   1.241
64219SOL    HW294555  10.704   2.531   1.121
64220SOL     OW94556   4.756   5.483  11.472
64220SOL    HW194557   4.781   5.395  11.499
64220SOL    HW294558   4.836   5.535  11.481
64221SOL     OW94559   1.797  10.357   5.254
64221SOL    HW194560   1.864  10.349   5.186
64221SOL    HW294561   1.772  10.267   5.274
64222SOL     OW94562   2.108  11.034  10.413
64222SOL    HW194563   2.108  11.125  10.442
64222SOL    HW294564   2.015  11.012  10.404
64223SOL     OW94565   6.645  12.442   3.217
64223SOL    HW194566   6.722  12.385   3.219
64223SOL    HW294567   6.651  12.492   3.299
64224SOL     OW94568   8.126   3.202  10.000
64224SOL    HW194569   8.081   3.285  10.015
64224SOL    HW294570   8.056   3.137   9.996
64225SOL     OW94571  14.202  14.351  14.808
64225SOL    HW194572  14.291  14.352  14.772
64225SOL    HW294573  14.202  14.278  14.870
64226SOL     OW94574   3.046  11.560   5.240
64226SOL    HW194575   3.139  11.551   5.261
64226SOL    HW294576   3.004  11.492   5.291
64227SOL     OW94577   2.342   2.979   4.449
64227SOL    HW194578   2.302   2.893   4.460
64227SOL    HW294579   2.436   2.962   4.448
64228SOL     OW94580   3.152   6.459  13.875
64228SOL    HW194581   3.170   6.547  13.843
64228SOL    HW294582   3.223   6.405  13.839
64229SOL     OW94583   5.696   0.458   9.496
64229SOL    HW194584   5.644   0.379   9.512
64229SOL    HW294585   5.765   0.455   9.561
64230SOL     OW94586   2.944   0.066  14.802
64230SOL    HW194587   2.964   0.149  14.759
64230SOL    HW294588   2.918   0.091   0.009
64231SOL     OW94589   6.668   3.329   8.447
64231SOL    HW194590   6.756   3.355   8.473
64231SOL    HW294591   6.675   3.310   8.354
64232SOL     OW94592  14.401   2.426   4.513
64232SOL    HW194593  14.372   2.367   4.583
64232SOL    HW294594  14.433   2.503   4.559
64233SOL     OW94595  14.756  12.130   4.958
64233SOL    HW194596  14.846  12.143   4.926
64233SOL    HW294597  14.708  12.097   4.882
64234SOL     OW94598   2.353  11.052   0.407
64234SOL    HW194599   2.360  10.957   0.400
64234SOL    HW294600   2.383  11.085   0.322
64235SOL     OW94601  13.511   6.607  11.638
64235SOL    HW194602  13.569   6.678  11.665
64235SOL    HW294603  13.438   6.611  11.699
64236SOL     OW94604   9.323  11.633  11.524
64236SOL    HW194605   9.233  11.667  11.514
64236SOL    HW294606   9.365  11.652  11.440
64237SOL     OW94607   1.933   3.601   2.177
64237SOL    HW194608   1.874   3.526   2.189
64237SOL    HW294609   1.950   3.632   2.266
64238SOL     OW94610  14.385   9.936  10.750
64238SOL    HW194611  14.405   9.843  10.740
64238SOL    HW294612  14.357   9.945  10.841
64239SOL     OW94613   6.973   7.671   5.247
64239SOL    HW194614   6.969   7.616   5.325
64239SOL    HW294615   6.984   7.760   5.281
64240SOL     OW94616  10.963   1.697   9.259
64240SOL    HW194617  10.957   1.754   9.182
64240SOL    HW294618  10.925   1.614   9.230
64241SOL     OW94619   3.464   8.661   2.934
64241SOL    HW194620   3.446   8.733   2.873
64241SOL    HW294621   3.395   8.669   3.000
64242SOL     OW94622   4.828   0.486   1.582
64242SOL    HW194623   4.888   0.431   1.632
64242SOL    HW294624   4.876   0.508   1.503
64243SOL     OW94625   3.563   5.877   9.221
64243SOL    HW194626   3.564   5.791   9.262
64243SOL    HW294627   3.576   5.859   9.128
64244SOL     OW94628  13.182   6.440   7.265
64244SOL    HW194629  13.244   6.513   7.260
64244SOL    HW294630  13.171   6.424   7.358
64245SOL     OW94631   4.976  14.354   3.037
64245SOL    HW194632   4.996  14.434   2.989
64245SOL    HW294633   4.935  14.297   2.973
64246SOL     OW94634   1.889  12.893  10.672
64246SOL    HW194635   1.911  12.971  10.722
64246SOL    HW294636   1.795  12.880  10.686
64247SOL     OW94637  11.170   1.978  11.984
64247SOL    HW194638  11.229   2.034  11.934
64247SOL    HW294639  11.190   1.996  12.076
64248SOL     OW94640   5.397   9.732   5.171
64248SOL    HW194641   5.304   9.721   5.153
64248SOL    HW294642   5.427   9.646   5.201
64249SOL     OW94643  13.349   1.669   1.040
64249SOL    HW194644  13.437   1.650   1.072
64249SOL    HW294645  13.301   1.699   1.117
64250SOL     OW94646   0.676   4.957   5.673
64250SOL    HW194647   0.771   4.970   5.677
64250SOL    HW294648   0.657   4.951   5.579
64251SOL     OW94649  13.130   6.666   8.035
64251SOL    HW194650  13.175   6.591   7.998
64251SOL    HW294651  13.094   6.712   7.959
64252SOL     OW94652   4.893   6.042  10.063
64252SOL    HW194653   4.888   6.132  10.097
64252SOL    HW294654   4.883   5.987  10.140
64253SOL     OW94655   7.779  13.608   1.117
64253SOL    HW194656   7.726  13.561   1.052
64253SOL    HW294657   7.718  13.670   1.157
64254SOL     OW94658   6.519   2.473   5.173
64254SOL    HW194659   6.473   2.422   5.107
64254SOL    HW294660   6.484   2.562   5.166
64255SOL     OW94661   2.177  10.330   9.202
64255SOL    HW194662   2.128  10.250   9.223
64255SOL    HW294663   2.252  10.299   9.151
64256SOL     OW94664  12.460   9.822  13.378
64256SOL    HW194665  12.442   9.768  13.301
64256SOL    HW294666  12.453   9.912  13.346
64257SOL     OW94667  14.135  12.674  12.995
64257SOL    HW194668  14.122  12.672  12.900
64257SOL    HW294669  14.109  12.587  13.024
64258SOL     OW94670   2.370  13.747   5.993
64258SOL    HW194671   2.311  13.740   5.918
64258SOL    HW294672   2.453  13.777   5.956
64259SOL     OW94673   4.303  12.577   0.241
64259SOL    HW194674   4.276  12.583   0.333
64259SOL    HW294675   4.349  12.494   0.235
64260SOL     OW94676  10.278   0.748   2.265
64260SOL    HW194677  10.231   0.765   2.183
64260SOL    HW294678  10.275   0.653   2.275
64261SOL     OW94679  13.668  14.432   7.620
64261SOL    HW194680  13.747  14.479   7.647
64261SOL    HW294681  13.646  14.469   7.535
64262SOL     OW94682   7.251  11.226   6.603
64262SOL    HW194683   7.328  11.278   6.625
64262SOL    HW294684   7.203  11.280   6.540
64263SOL     OW94685   9.211   4.779  11.623
64263SOL    HW194686   9.252   4.819  11.546
64263SOL    HW294687   9.260   4.813  11.697
64264SOL     OW94688  10.111  10.150  12.670
64264SOL    HW194689  10.174  10.203  12.621
64264SOL    HW294690  10.157  10.069  12.689
64265SOL     OW94691   5.673   8.071   4.733
64265SOL    HW194692   5.627   8.003   4.684
64265SOL    HW294693   5.659   8.047   4.825
64266SOL     OW94694   1.975   9.183  10.043
64266SOL    HW194695   1.956   9.133   9.964
64266SOL    HW294696   1.891   9.222  10.067
64267SOL     OW94697  14.272   8.066   9.981
64267SOL    HW194698  14.329   8.124   9.930
64267SOL    HW294699  14.235   8.006   9.916
64268SOL     OW94700  11.531  13.822  10.999
64268SOL    HW194701  11.581  13.808  11.080
64268SOL    HW294702  11.548  13.914  10.976
64269SOL     OW94703  14.264   0.851  13.352
64269SOL    HW194704  14.348   0.896  13.344
64269SOL    HW294705  14.199   0.921  13.345
64270SOL     OW94706  11.009  12.549   5.636
64270SOL    HW194707  11.010  12.522   5.728
64270SOL    HW294708  10.980  12.472   5.589
64271SOL     OW94709   1.059   4.739   5.328
64271SOL    HW194710   1.093   4.740   5.239
64271SOL    HW294711   0.986   4.801   5.326
64272SOL     OW94712   8.316  11.626   6.827
64272SOL    HW194713   8.266  11.557   6.784
64272SOL    HW294714   8.320  11.599   6.918
64273SOL     OW94715  14.443   1.519  13.636
64273SOL    HW194716  14.442   1.424  13.648
64273SOL    HW294717  14.353   1.546  13.652
64274SOL     OW94718  11.246   2.262  10.383
64274SOL    HW194719  11.305   2.193  10.415
64274SOL    HW294720  11.295   2.343  10.395
64275SOL     OW94721   9.233  12.925   6.088
64275SOL    HW194722   9.317  12.930   6.042
64275SOL    HW294723   9.173  12.976   6.033
64276SOL     OW94724   7.926   8.020   2.496
64276SOL    HW194725   7.950   7.992   2.408
64276SOL    HW294726   7.895   7.941   2.539
64277SOL     OW94727   6.436   4.949   0.746
64277SOL    HW194728   6.364   5.001   0.710
64277SOL    HW294729   6.398   4.904   0.821
64278SOL     OW94730   4.220  11.612   8.795
64278SOL    HW194731   4.241  11.599   8.702
64278SOL    HW294732   4.125  11.601   8.800
64279SOL     OW94733  12.422   8.153   5.611
64279SOL    HW194734  12.376   8.140   5.528
64279SOL    HW294735  12.515   8.156   5.586
64280SOL     OW94736  11.174   9.897   5.373
64280SOL    HW194737  11.224   9.864   5.448
64280SOL    HW294738  11.218   9.859   5.297
64281SOL     OW94739   9.385   0.149   4.603
64281SOL    HW194740   9.342   0.233   4.617
64281SOL    HW294741   9.344   0.114   4.524
64282SOL     OW94742   2.581   6.696  12.628
64282SOL    HW194743   2.546   6.610  12.648
64282SOL    HW294744   2.520   6.757  12.670
64283SOL     OW94745   4.360  14.797   7.968
64283SOL    HW194746   4.427  14.854   7.930
64283SOL    HW294747   4.395  14.709   7.960
64284SOL     OW94748   2.881   5.556  12.223
64284SOL    HW194749   2.945   5.587  12.287
64284SOL    HW294750   2.862   5.466  12.250
64285SOL     OW94751   3.315  13.464   5.668
64285SOL    HW194752   3.250  13.446   5.736
64285SOL    HW294753   3.399  13.438   5.707
64286SOL     OW94754   7.236   1.922   0.099
64286SOL    HW194755   7.187   1.988   0.049
64286SOL    HW294756   7.171   1.857   0.124
64287SOL     OW94757   2.956   2.103   7.883
64287SOL    HW194758   2.867   2.091   7.917
64287SOL    HW294759   2.971   2.197   7.891
64288SOL     OW94760  13.153  10.280   0.781
64288SOL    HW194761  13.087  10.274   0.712
64288SOL    HW294762  13.103  10.294   0.861
64289SOL     OW94763   3.775  11.338   5.193
64289SOL    HW194764   3.701  11.302   5.241
64289SOL    HW294765   3.797  11.271   5.129
64290SOL     OW94766  10.980   7.597  12.236
64290SOL    HW194767  10.904   7.615  12.292
64290SOL    HW294768  11.000   7.682  12.195
64291SOL     OW94769  12.636  10.632  11.673
64291SOL    HW194770  12.582  10.710  11.666
64291SOL    HW294771  12.631  10.591  11.587
64292SOL     OW94772   2.746   7.624  14.498
64292SOL    HW194773   2.818   7.575  14.460
64292SOL    HW294774   2.775   7.643  14.587
64293SOL     OW94775  14.288   1.497  12.732
64293SOL    HW194776  14.207   1.497  12.784
64293SOL    HW294777  14.264   1.452  12.651
64294SOL     OW94778   2.149  12.891   0.605
64294SOL    HW194779   2.124  12.828   0.673
64294SOL    HW294780   2.194  12.961   0.652
64295SOL     OW94781   9.849   3.666   2.608
64295SOL    HW194782   9.884   3.717   2.680
64295SOL    HW294783   9.757   3.650   2.632
64296SOL     OW94784   0.762   0.289   9.111
64296SOL    HW194785   0.740   0.227   9.042
64296SOL    HW294786   0.780   0.235   9.187
64297SOL     OW94787   2.413   7.151   2.124
64297SOL    HW194788   2.450   7.202   2.052
64297SOL    HW294789   2.485   7.093   2.151
64298SOL     OW94790  12.300   6.339   1.699
64298SOL    HW194791  12.352   6.386   1.765
64298SOL    HW294792  12.213   6.380   1.705
64299SOL     OW94793   3.423   9.915  13.700
64299SOL    HW194794   3.352   9.925  13.763
64299SOL    HW294795   3.409   9.986  13.637
64300SOL     OW94796   7.553  10.538  13.747
64300SOL    HW194797   7.472  10.553  13.796
64300SOL    HW294798   7.571  10.622  13.705
64301SOL     OW94799   5.926   5.588   0.112
64301SOL    HW194800   5.860   5.656   0.099
64301SOL    HW294801   5.963   5.606   0.198
64302SOL     OW94802   8.805   4.575  12.332
64302SOL    HW194803   8.868   4.616  12.391
64302SOL    HW294804   8.824   4.613  12.246
64303SOL     OW94805  14.263   3.906  12.472
64303SOL    HW194806  14.304   3.819  12.472
64303SOL    HW294807  14.174   3.890  12.503
64304SOL     OW94808  10.968   2.112  13.549
64304SOL    HW194809  11.022   2.190  13.539
64304SOL    HW294810  10.921   2.125  13.631
64305SOL     OW94811   7.808   8.318   3.884
64305SOL    HW194812   7.771   8.282   3.804
64305SOL    HW294813   7.818   8.243   3.942
64306SOL     OW94814   4.268   7.475   3.996
64306SOL    HW194815   4.215   7.525   4.058
64306SOL    HW294816   4.345   7.530   3.981
64307SOL     OW94817   2.815   9.984   6.893
64307SOL    HW194818   2.812   9.894   6.925
64307SOL    HW294819   2.737  10.026   6.930
64308SOL     OW94820  14.489  13.764   3.620
64308SOL    HW194821  14.466  13.696   3.557
64308SOL    HW294822  14.439  13.840   3.592
64309SOL     OW94823  14.806  11.358  11.293
64309SOL    HW194824  14.759  11.405  11.225
64309SOL    HW294825  14.830  11.426  11.357
64310SOL     OW94826   8.693   5.707   8.019
64310SOL    HW194827   8.655   5.632   7.975
64310SOL    HW294828   8.783   5.681   8.040
64311SOL     OW94829   2.320   6.561   9.565
64311SOL    HW194830   2.231   6.550   9.533
64311SOL    HW294831   2.319   6.645   9.610
64312SOL     OW94832  13.094   0.677   4.550
64312SOL    HW194833  13.168   0.630   4.511
64312SOL    HW294834  13.123   0.695   4.639
64313SOL     OW94835  14.722   9.835   9.847
64313SOL    HW194836  14.775   9.899   9.801
64313SOL    HW294837  14.638   9.836   9.801
64314SOL     OW94838   3.350  13.217  12.810
64314SOL    HW194839   3.403  13.143  12.780
64314SOL    HW294840   3.393  13.294  12.772
64315SOL     OW94841   1.167  11.332  10.247
64315SOL    HW194842   1.192  11.271  10.316
64315SOL    HW294843   1.083  11.300  10.215
64316SOL     OW94844   8.269   8.097  12.147
64316SOL    HW194845   8.276   8.131  12.058
64316SOL    HW294846   8.304   8.008  12.141
64317SOL     OW94847   3.162   2.199   6.344
64317SOL    HW194848   3.094   2.132   6.349
64317SOL    HW294849   3.152   2.249   6.425
64318SOL     OW94850   9.309  13.317   0.213
64318SOL    HW194851   9.283  13.306   0.304
64318SOL    HW294852   9.405  13.322   0.216
64319SOL     OW94853  14.855   6.674   1.724
64319SOL    HW194854   0.038   6.630   1.669
64319SOL    HW294855  14.852   6.764   1.691
64320SOL     OW94856   2.732  12.120  10.232
64320SOL    HW194857   2.690  12.178  10.169
64320SOL    HW294858   2.805  12.171  10.267
64321SOL     OW94859   6.730   9.208  12.130
64321SOL    HW194860   6.813   9.242  12.163
64321SOL    HW294861   6.677   9.195  12.209
64322SOL     OW94862  13.475   1.601   5.594
64322SOL    HW194863  13.416   1.527   5.608
64322SOL    HW294864  13.487   1.640   5.681
64323SOL     OW94865  14.282   7.510   7.579
64323SOL    HW194866  14.242   7.597   7.586
64323SOL    HW294867  14.339   7.505   7.656
64324SOL     OW94868  12.531   3.544  12.114
64324SOL    HW194869  12.453   3.557  12.059
64324SOL    HW294870  12.518   3.458  12.154
64325SOL     OW94871   3.706   2.614   4.276
64325SOL    HW194872   3.680   2.541   4.219
64325SOL    HW294873   3.789   2.585   4.314
64326SOL     OW94874   4.761  13.521   0.859
64326SOL    HW194875   4.823  13.524   0.785
64326SOL    HW294876   4.767  13.432   0.892
64327SOL     OW94877   2.675   6.975   1.070
64327SOL    HW194878   2.597   6.919   1.062
64327SOL    HW294879   2.736   6.941   1.004
64328SOL     OW94880   7.958  10.983  13.352
64328SOL    HW194881   8.023  10.952  13.415
64328SOL    HW294882   7.936  10.905  13.301
64329SOL     OW94883   8.426   9.501  14.480
64329SOL    HW194884   8.458   9.472  14.395
64329SOL    HW294885   8.480   9.578  14.501
64330SOL     OW94886  12.419   6.136  11.666
64330SOL    HW194887  12.508   6.163  11.648
64330SOL    HW294888  12.364   6.194  11.613
64331SOL     OW94889   7.130   1.600   5.483
64331SOL    HW194890   7.141   1.505   5.485
64331SOL    HW294891   7.133   1.626   5.575
64332SOL     OW94892   0.095  11.470   1.118
64332SOL    HW194893   0.053  11.384   1.120
64332SOL    HW294894   0.184  11.454   1.148
64333SOL     OW94895   5.780   7.520   8.227
64333SOL    HW194896   5.792   7.614   8.212
64333SOL    HW294897   5.712   7.494   8.165
64334SOL     OW94898   3.808  14.354   6.491
64334SOL    HW194899   3.774  14.330   6.577
64334SOL    HW294900   3.853  14.437   6.505
64335SOL     OW94901   6.352   3.287   1.353
64335SOL    HW194902   6.348   3.367   1.406
64335SOL    HW294903   6.302   3.223   1.403
64336SOL     OW94904  12.351   3.398   5.621
64336SOL    HW194905  12.336   3.309   5.590
64336SOL    HW294906  12.342   3.452   5.542
64337SOL     OW94907   4.788  13.991   4.316
64337SOL    HW194908   4.697  14.017   4.327
64337SOL    HW294909   4.784  13.898   4.295
64338SOL     OW94910   0.456   6.696  10.208
64338SOL    HW194911   0.510   6.670  10.283
64338SOL    HW294912   0.511   6.756  10.159
64339SOL     OW94913   0.445  14.415   4.083
64339SOL    HW194914   0.539  14.421   4.100
64339SOL    HW294915   0.425  14.494   4.031
64340SOL     OW94916   5.833  14.487   4.675
64340SOL    HW194917   5.870  14.538   4.603
64340SOL    HW294918   5.786  14.415   4.632
64341SOL     OW94919   1.342   4.985   6.650
64341SOL    HW194920   1.283   5.010   6.721
64341SOL    HW294921   1.380   4.901   6.677
64342SOL     OW94922   6.054   3.288   3.405
64342SOL    HW194923   6.020   3.321   3.489
64342SOL    HW294924   6.057   3.193   3.416
64343SOL     OW94925   8.616   1.680   4.991
64343SOL    HW194926   8.584   1.752   4.936
64343SOL    HW294927   8.546   1.667   5.055
64344SOL     OW94928   6.573  13.203   7.352
64344SOL    HW194929   6.661  13.165   7.361
64344SOL    HW294930   6.578  13.257   7.273
64345SOL     OW94931  12.837  13.961   1.460
64345SOL    HW194932  12.860  14.048   1.429
64345SOL    HW294933  12.784  13.924   1.389
64346SOL     OW94934   2.215   0.206  12.618
64346SOL    HW194935   2.246   0.239  12.534
64346SOL    HW294936   2.216   0.282  12.676
64347SOL     OW94937   7.094   0.416   1.305
64347SOL    HW194938   7.085   0.498   1.256
64347SOL    HW294939   7.145   0.359   1.247
64348SOL     OW94940  14.030  14.634   5.077
64348SOL    HW194941  13.984  14.576   5.017
64348SOL    HW294942  14.112  14.655   5.032
64349SOL     OW94943  12.651  14.770   2.944
64349SOL    HW194944  12.631  14.679   2.922
64349SOL    HW294945  12.722  14.764   3.008
64350SOL     OW94946   1.217   1.487   0.203
64350SOL    HW194947   1.151   1.490   0.133
64350SOL    HW294948   1.168   1.508   0.283
64351SOL     OW94949  11.558  10.537   9.088
64351SOL    HW194950  11.641  10.490   9.098
64351SOL    HW294951  11.495  10.487   9.139
64352SOL     OW94952  13.509  10.438  10.445
64352SOL    HW194953  13.472  10.357  10.409
64352SOL    HW294954  13.583  10.458  10.388
64353SOL     OW94955   3.753   8.981   5.064
64353SOL    HW194956   3.769   8.894   5.028
64353SOL    HW294957   3.742   9.037   4.988
64354SOL     OW94958  10.505   5.285   3.994
64354SOL    HW194959  10.542   5.277   4.082
64354SOL    HW294960  10.430   5.226   3.994
64355SOL     OW94961  13.203  11.763  13.495
64355SOL    HW194962  13.241  11.753  13.407
64355SOL    HW294963  13.125  11.817  13.482
64356SOL     OW94964   7.061   1.719  12.699
64356SOL    HW194965   7.116   1.786  12.739
64356SOL    HW294966   7.096   1.709  12.611
64357SOL     OW94967   3.503   9.268  14.308
64357SOL    HW194968   3.445   9.336  14.343
64357SOL    HW294969   3.448   9.189  14.306
64358SOL     OW94970   2.728   6.114   2.508
64358SOL    HW194971   2.797   6.083   2.450
64358SOL    HW294972   2.651   6.062   2.484
64359SOL     OW94973  14.471   9.119  13.751
64359SOL    HW194974  14.522   9.126  13.671
64359SOL    HW294975  14.535   9.097  13.819
64360SOL     OW94976   5.605   2.546   5.255
64360SOL    HW194977   5.669   2.613   5.231
64360SOL    HW294978   5.545   2.591   5.314
64361SOL     OW94979   3.485   5.135   1.590
64361SOL    HW194980   3.471   5.069   1.523
64361SOL    HW294981   3.453   5.216   1.550
64362SOL     OW94982  10.217   7.050  11.200
64362SOL    HW194983  10.241   6.962  11.171
64362SOL    HW294984  10.272   7.109  11.148
64363SOL     OW94985  11.771  12.609  12.635
64363SOL    HW194986  11.770  12.520  12.599
64363SOL    HW294987  11.849  12.649  12.597
64364SOL     OW94988  10.180   7.475  12.793
64364SOL    HW194989  10.115   7.483  12.863
64364SOL    HW294990  10.194   7.565  12.764
64365SOL     OW94991   4.401   3.359   0.812
64365SOL    HW194992   4.449   3.406   0.880
64365SOL    HW294993   4.413   3.412   0.733
64366SOL     OW94994  14.580   5.917  11.593
64366SOL    HW194995  14.499   5.926  11.644
64366SOL    HW294996  14.553   5.929  11.503
64367SOL     OW94997   3.955   0.262   0.244
64367SOL    HW194998   3.929   0.247   0.153
64367SOL    HW294999   3.985   0.177   0.275
64368SOL     OW95000   3.657   5.012   5.786
64368SOL    HW195001   3.749   4.993   5.805
64368SOL    HW295002   3.645   5.102   5.818
64369SOL     OW95003   4.424  11.083   0.999
64369SOL    HW195004   4.508  11.104   1.041
64369SOL    HW295005   4.359  11.134   1.048
64370SOL     OW95006   1.691   7.825   8.580
64370SOL    HW195007   1.637   7.902   8.566
64370SOL    HW295008   1.695   7.781   8.495
64371SOL     OW95009  14.530  12.231   9.145
64371SOL    HW195010  14.482  12.169   9.200
64371SOL    HW295011  14.471  12.306   9.137
64372SOL     OW95012   4.125  10.068   5.343
64372SOL    HW195013   4.119   9.973   5.330
64372SOL    HW295014   4.084  10.106   5.266
64373SOL     OW95015   7.148  11.066  10.970
64373SOL    HW195016   7.064  11.030  10.941
64373SOL    HW295017   7.170  11.017  11.049
64374SOL     OW95018  12.397  11.995   8.117
64374SOL    HW195019  12.339  11.957   8.183
64374SOL    HW295020  12.462  11.927   8.101
64375SOL     OW95021   4.040   0.752   5.619
64375SOL    HW195022   4.124   0.725   5.657
64375SOL    HW295023   4.065   0.802   5.541
64376SOL     OW95024   6.753  13.142  13.849
64376SOL    HW195025   6.767  13.064  13.796
64376SOL    HW295026   6.695  13.114  13.919
64377SOL     OW95027   4.255   1.312  14.379
64377SOL    HW195028   4.251   1.217  14.388
64377SOL    HW295029   4.185   1.333  14.317
64378SOL     OW95030   5.457  12.624   1.395
64378SOL    HW195031   5.413  12.558   1.449
64378SOL    HW295032   5.430  12.603   1.305
64379SOL     OW95033   8.327   0.751  14.233
64379SOL    HW195034   8.322   0.772  14.140
64379SOL    HW295035   8.410   0.788  14.262
64380SOL     OW95036   8.701   0.447  12.431
64380SOL    HW195037   8.717   0.476  12.520
64380SOL    HW295038   8.785   0.413  12.401
64381SOL     OW95039  11.507   9.536   5.158
64381SOL    HW195040  11.593   9.514   5.194
64381SOL    HW295041  11.460   9.453   5.156
64382SOL     OW95042   8.209   4.457   1.439
64382SOL    HW195043   8.177   4.402   1.510
64382SOL    HW295044   8.130   4.495   1.400
64383SOL     OW95045  11.727   7.631   2.127
64383SOL    HW195046  11.667   7.655   2.057
64383SOL    HW295047  11.720   7.536   2.134
64384SOL     OW95048   1.534   7.854   2.511
64384SOL    HW195049   1.564   7.859   2.420
64384SOL    HW295050   1.599   7.800   2.555
64385SOL     OW95051   2.191  11.143  13.089
64385SOL    HW195052   2.286  11.132  13.086
64385SOL    HW295053   2.174  11.184  13.174
64386SOL     OW95054   6.429  13.589   2.391
64386SOL    HW195055   6.493  13.654   2.362
64386SOL    HW295056   6.402  13.545   2.310
64387SOL     OW95057  14.121  11.136   2.700
64387SOL    HW195058  14.057  11.065   2.711
64387SOL    HW295059  14.092  11.204   2.761
64388SOL     OW95060   5.426   4.803  10.586
64388SOL    HW195061   5.481   4.881  10.592
64388SOL    HW295062   5.341   4.837  10.555
64389SOL     OW95063   0.433  13.498   2.592
64389SOL    HW195064   0.439  13.591   2.616
64389SOL    HW295065   0.351  13.491   2.543
64390SOL     OW95066  12.636   1.321   9.407
64390SOL    HW195067  12.669   1.238   9.373
64390SOL    HW295068  12.542   1.319   9.389
64391SOL     OW95069  11.394  10.931   0.636
64391SOL    HW195070  11.364  10.957   0.723
64391SOL    HW295071  11.389  11.011   0.584
64392SOL     OW95072   9.207  10.928   0.368
64392SOL    HW195073   9.177  10.837   0.362
64392SOL    HW295074   9.295  10.923   0.404
64393SOL     OW95075   2.035   6.722   7.194
64393SOL    HW195076   2.047   6.794   7.132
64393SOL    HW295077   2.119   6.714   7.239
64394SOL     OW95078  11.900  10.237   1.100
64394SOL    HW195079  11.921  10.149   1.132
64394SOL    HW295080  11.831  10.268   1.157
64395SOL     OW95081   1.463   1.682   4.790
64395SOL    HW195082   1.389   1.623   4.801
64395SOL    HW295083   1.528   1.651   4.854
64396SOL     OW95084   1.151   7.843   4.198
64396SOL    HW195085   1.078   7.841   4.260
64396SOL    HW295086   1.120   7.791   4.123
64397SOL     OW95087   3.134  11.285   5.621
64397SOL    HW195088   3.129  11.381   5.619
64397SOL    HW295089   3.228  11.266   5.614
64398SOL     OW95090   3.918   8.966  12.106
64398SOL    HW195091   3.935   9.011  12.188
64398SOL    HW295092   3.939   8.875  12.124
64399SOL     OW95093   0.103   6.505   1.566
64399SOL    HW195094   0.119   6.545   1.480
64399SOL    HW295095   0.008   6.494   1.570
64400SOL     OW95096   2.857   3.763   6.628
64400SOL    HW195097   2.932   3.719   6.668
64400SOL    HW295098   2.876   3.857   6.636
64401SOL     OW95099   0.348   3.391   6.886
64401SOL    HW195100   0.271   3.440   6.858
64401SOL    HW295101   0.395   3.451   6.944
64402SOL     OW95102  11.295  12.395   6.835
64402SOL    HW195103  11.313  12.308   6.799
64402SOL    HW295104  11.242  12.379   6.913
64403SOL     OW95105   3.012   8.608   5.185
64403SOL    HW195106   2.974   8.672   5.124
64403SOL    HW295107   3.105   8.606   5.164
64404SOL     OW95108  11.590  14.200   1.947
64404SOL    HW195109  11.591  14.132   2.014
64404SOL    HW295110  11.665  14.256   1.969
64405SOL     OW95111   1.081  13.950   3.030
64405SOL    HW195112   1.102  13.871   2.981
64405SOL    HW295113   1.012  13.923   3.091
64406SOL     OW95114  13.190   6.872   1.441
64406SOL    HW195115  13.183   6.967   1.434
64406SOL    HW295116  13.283   6.853   1.427
64407SOL     OW95117  13.996   4.909  13.128
64407SOL    HW195118  13.915   4.911  13.078
64407SOL    HW295119  14.064   4.893  13.062
64408SOL     OW95120   0.389   8.985   9.872
64408SOL    HW195121   0.396   8.927   9.947
64408SOL    HW295122   0.357   8.929   9.801
64409SOL     OW95123   3.863  14.540   3.649
64409SOL    HW195124   3.768  14.546   3.659
64409SOL    HW295125   3.898  14.593   3.720
64410SOL     OW95126  13.898   1.193   5.672
64410SOL    HW195127  13.858   1.280   5.676
64410SOL    HW295128  13.840   1.138   5.725
64411SOL     OW95129   8.177  14.659   6.677
64411SOL    HW195130   8.239  14.636   6.746
64411SOL    HW295131   8.214  14.736   6.635
64412SOL     OW95132   4.672  10.046   9.388
64412SOL    HW195133   4.728   9.968   9.397
64412SOL    HW295134   4.604  10.020   9.326
64413SOL     OW95135  13.121   2.678  13.441
64413SOL    HW195136  13.207   2.654  13.476
64413SOL    HW295137  13.091   2.599  13.395
64414SOL     OW95138  14.051  11.645   0.956
64414SOL    HW195139  14.048  11.687   1.042
64414SOL    HW295140  14.020  11.556   0.972
64415SOL     OW95141   4.934   6.215   7.861
64415SOL    HW195142   4.873   6.288   7.869
64415SOL    HW295143   4.924   6.166   7.942
64416SOL     OW95144   5.993   1.249   7.797
64416SOL    HW195145   5.960   1.339   7.799
64416SOL    HW295146   6.031   1.236   7.884
64417SOL     OW95147   4.918  12.184   1.941
64417SOL    HW195148   4.858  12.159   2.011
64417SOL    HW295149   4.942  12.102   1.899
64418SOL     OW95150   1.987  12.439   5.996
64418SOL    HW195151   1.938  12.459   5.917
64418SOL    HW295152   1.922  12.402   6.056
64419SOL     OW95153   2.437   3.654  12.854
64419SOL    HW195154   2.405   3.733  12.899
64419SOL    HW295155   2.454   3.593  12.925
64420SOL     OW95156   0.545  12.550   9.089
64420SOL    HW195157   0.614  12.505   9.138
64420SOL    HW295158   0.529  12.494   9.013
64421SOL     OW95159  14.830  12.243   3.169
64421SOL    HW195160  14.785  12.260   3.251
64421SOL    HW295161   0.026  12.298   3.173
64422SOL     OW95162   5.304  10.842  13.266
64422SOL    HW195163   5.296  10.783  13.191
64422SOL    HW295164   5.289  10.786  13.343
64423SOL     OW95165  10.446   9.611  14.042
64423SOL    HW195166  10.433   9.588  14.134
64423SOL    HW295167  10.506   9.545  14.009
64424SOL     OW95168  13.847   0.518  13.059
64424SOL    HW195169  13.878   0.542  13.147
64424SOL    HW295170  13.919   0.539  13.001
64425SOL     OW95171   1.477   8.281   4.387
64425SOL    HW195172   1.435   8.217   4.329
64425SOL    HW295173   1.456   8.366   4.347
64426SOL     OW95174   4.226   2.546   0.231
64426SOL    HW195175   4.205   2.630   0.190
64426SOL    HW295176   4.313   2.560   0.269
64427SOL     OW95177  14.057  13.721   4.355
64427SOL    HW195178  14.152  13.732   4.355
64427SOL    HW295179  14.039  13.663   4.281
64428SOL     OW95180  12.546  10.489   5.864
64428SOL    HW195181  12.474  10.529   5.815
64428SOL    HW295182  12.553  10.542   5.944
64429SOL     OW95183   6.699   4.223   5.772
64429SOL    HW195184   6.740   4.145   5.809
64429SOL    HW295185   6.606   4.203   5.772
64430SOL     OW95186   2.748   5.837   9.410
64430SOL    HW195187   2.707   5.814   9.493
64430SOL    HW295188   2.837   5.862   9.433
64431SOL     OW95189   0.189  11.204   1.852
64431SOL    HW195190   0.232  11.161   1.926
64431SOL    HW295191   0.123  11.140   1.823
64432SOL     OW95192  13.159   5.053  11.112
64432SOL    HW195193  13.177   5.144  11.133
64432SOL    HW295194  13.181   5.045  11.019
64433SOL     OW95195   6.392   8.279   4.572
64433SOL    HW195196   6.418   8.190   4.548
64433SOL    HW295197   6.473   8.330   4.567
64434SOL     OW95198  11.097  12.961   2.069
64434SOL    HW195199  11.129  13.022   2.135
64434SOL    HW295200  11.112  13.006   1.986
64435SOL     OW95201   0.014   3.374   8.641
64435SOL    HW195202   0.063   3.454   8.659
64435SOL    HW295203  14.815   3.404   8.600
64436SOL     OW95204   2.794  14.760   4.515
64436SOL    HW195205   2.788  14.850   4.547
64436SOL    HW295206   2.836  14.711   4.586
64437SOL     OW95207   9.528   3.566   7.699
64437SOL    HW195208   9.514   3.500   7.767
64437SOL    HW295209   9.440   3.588   7.668
64438SOL     OW95210   1.098   7.407  11.038
64438SOL    HW195211   1.050   7.362  10.969
64438SOL    HW295212   1.108   7.342  11.108
64439SOL     OW95213   7.100   2.279   5.615
64439SOL    HW195214   7.012   2.251   5.641
64439SOL    HW295215   7.086   2.345   5.548
64440SOL     OW95216   4.612  10.275   4.307
64440SOL    HW195217   4.674  10.201   4.302
64440SOL    HW295218   4.662  10.344   4.350
64441SOL     OW95219   5.308   1.137   9.572
64441SOL    HW195220   5.256   1.061   9.600
64441SOL    HW295221   5.306   1.133   9.476
64442SOL     OW95222  10.762   6.222   5.922
64442SOL    HW195223  10.737   6.292   5.983
64442SOL    HW295224  10.839   6.256   5.878
64443SOL     OW95225   7.784   6.855  12.038
64443SOL    HW195226   7.832   6.930  12.004
64443SOL    HW295227   7.809   6.782  11.982
64444SOL     OW95228   1.789  10.594   8.957
64444SOL    HW195229   1.820  10.685   8.960
64444SOL    HW295230   1.845  10.547   9.018
64445SOL     OW95231   6.305   3.841  14.095
64445SOL    HW195232   6.214   3.870  14.104
64445SOL    HW295233   6.341   3.896  14.025
64446SOL     OW95234   4.605   0.570   5.088
64446SOL    HW195235   4.582   0.489   5.134
64446SOL    HW295236   4.681   0.547   5.036
64447SOL     OW95237   5.112  13.896   4.587
64447SOL    HW195238   5.108  13.814   4.637
64447SOL    HW295239   5.050  13.882   4.515
64448SOL     OW95240   8.887   4.102   7.812
64448SOL    HW195241   8.884   4.198   7.819
64448SOL    HW295242   8.937   4.074   7.889
64449SOL     OW95243   2.633  12.574   9.066
64449SOL    HW195244   2.660  12.661   9.094
64449SOL    HW295245   2.562  12.550   9.126
64450SOL     OW95246  11.061   2.898   1.683
64450SOL    HW195247  11.015   2.830   1.634
64450SOL    HW295248  10.993   2.958   1.712
64451SOL     OW95249   6.065   4.913   8.724
64451SOL    HW195250   6.002   4.943   8.659
64451SOL    HW295251   6.139   4.974   8.717
64452SOL     OW95252   2.496   8.300  14.204
64452SOL    HW195253   2.403   8.315  14.221
64452SOL    HW295254   2.501   8.282  14.110
64453SOL     OW95255  10.843  14.598   4.905
64453SOL    HW195256  10.780  14.670   4.911
64453SOL    HW295257  10.807  14.540   4.839
64454SOL     OW95258   6.728  11.013   0.756
64454SOL    HW195259   6.640  10.988   0.727
64454SOL    HW295260   6.719  11.104   0.784
64455SOL     OW95261   8.386  13.401   6.361
64455SOL    HW195262   8.399  13.447   6.444
64455SOL    HW295263   8.345  13.318   6.386
64456SOL     OW95264   2.525   7.547   0.492
64456SOL    HW195265   2.493   7.583   0.575
64456SOL    HW295266   2.542   7.624   0.438
64457SOL     OW95267   0.402  10.278   2.362
64457SOL    HW195268   0.392  10.185   2.343
64457SOL    HW295269   0.413  10.282   2.457
64458SOL     OW95270  13.637   4.434   6.112
64458SOL    HW195271  13.688   4.487   6.173
64458SOL    HW295272  13.681   4.447   6.027
64459SOL     OW95273   2.430   2.649   0.311
64459SOL    HW195274   2.475   2.649   0.227
64459SOL    HW295275   2.380   2.731   0.311
64460SOL     OW95276   8.704  14.151  13.963
64460SOL    HW195277   8.700  14.097  14.042
64460SOL    HW295278   8.615  14.184  13.952
64461SOL     OW95279  10.206  12.986   0.549
64461SOL    HW195280  10.247  13.068   0.522
64461SOL    HW295281  10.122  12.984   0.503
64462SOL     OW95282  13.621   0.648  14.850
64462SOL    HW195283  13.679   0.624  14.778
64462SOL    HW295284  13.587   0.564  14.882
64463SOL     OW95285   4.589   5.541   3.216
64463SOL    HW195286   4.610   5.464   3.164
64463SOL    HW295287   4.607   5.615   3.158
64464SOL     OW95288  12.034   5.267   8.110
64464SOL    HW195289  11.947   5.288   8.143
64464SOL    HW295290  12.032   5.292   8.018
64465SOL     OW95291  10.257   5.532   0.705
64465SOL    HW195292  10.228   5.548   0.795
64465SOL    HW295293  10.217   5.602   0.654
64466SOL     OW95294  11.583   0.358  11.867
64466SOL    HW195295  11.666   0.316  11.843
64466SOL    HW295296  11.545   0.299  11.933
64467SOL     OW95297   2.469   0.674   7.250
64467SOL    HW195298   2.508   0.756   7.218
64467SOL    HW295299   2.453   0.690   7.343
64468SOL     OW95300  10.331   6.276   6.757
64468SOL    HW195301  10.367   6.260   6.669
64468SOL    HW295302  10.392   6.338   6.797
64469SOL     OW95303   8.834   7.220   7.923
64469SOL    HW195304   8.878   7.238   8.006
64469SOL    HW295305   8.853   7.128   7.905
64470SOL     OW95306  10.457   9.700   7.354
64470SOL    HW195307  10.429   9.610   7.342
64470SOL    HW295308  10.545   9.693   7.390
64471SOL     OW95309   3.167  13.066  14.160
64471SOL    HW195310   3.136  13.015  14.235
64471SOL    HW295311   3.127  13.153  14.173
64472SOL     OW95312   1.677   7.739   9.241
64472SOL    HW195313   1.631   7.692   9.172
64472SOL    HW295314   1.609   7.786   9.288
64473SOL     OW95315   7.650   9.813   0.888
64473SOL    HW195316   7.604   9.811   0.972
64473SOL    HW295317   7.630   9.728   0.848
64474SOL     OW95318   5.889   6.168  10.318
64474SOL    HW195319   5.976   6.134  10.300
64474SOL    HW295320   5.864   6.214  10.238
64475SOL     OW95321   6.186  14.283   0.943
64475SOL    HW195322   6.128  14.311   1.013
64475SOL    HW295323   6.255  14.232   0.987
64476SOL     OW95324  11.068  12.619  11.571
64476SOL    HW195325  11.102  12.701  11.608
64476SOL    HW295326  11.146  12.563  11.563
64477SOL     OW95327  12.854   6.005   1.849
64477SOL    HW195328  12.796   6.051   1.788
64477SOL    HW295329  12.908   5.949   1.793
64478SOL     OW95330   6.012   5.930  13.480
64478SOL    HW195331   6.051   5.990  13.417
64478SOL    HW295332   5.925   5.911  13.445
64479SOL     OW95333   6.462   8.873  12.725
64479SOL    HW195334   6.475   8.925  12.645
64479SOL    HW295335   6.540   8.819  12.732
64480SOL     OW95336  10.232   0.100  10.502
64480SOL    HW195337  10.231   0.056  10.417
64480SOL    HW295338  10.158   0.161  10.499
64481SOL     OW95339   1.104  11.619   9.615
64481SOL    HW195340   1.110  11.523   9.622
64481SOL    HW295341   1.195  11.649   9.621
64482SOL     OW95342  13.317   6.423  14.020
64482SOL    HW195343  13.364   6.507  14.021
64482SOL    HW295344  13.367   6.367  14.078
64483SOL     OW95345  10.512   5.140   3.461
64483SOL    HW195346  10.492   5.115   3.551
64483SOL    HW295347  10.601   5.111   3.447
64484SOL     OW95348   6.453  14.387   6.210
64484SOL    HW195349   6.529  14.346   6.251
64484SOL    HW295350   6.419  14.320   6.151
64485SOL     OW95351   8.035  12.238   3.321
64485SOL    HW195352   8.011  12.320   3.364
64485SOL    HW295353   7.967  12.225   3.254
64486SOL     OW95354   2.832  12.309   2.660
64486SOL    HW195355   2.906  12.267   2.705
64486SOL    HW295356   2.845  12.402   2.675
64487SOL     OW95357  12.870   6.317   7.283
64487SOL    HW195358  12.898   6.334   7.193
64487SOL    HW295359  12.781   6.353   7.288
64488SOL     OW95360   2.091  13.098  13.881
64488SOL    HW195361   2.024  13.059  13.937
64488SOL    HW295362   2.157  13.029  13.872
64489SOL     OW95363   4.025   5.754   5.524
64489SOL    HW195364   4.083   5.758   5.600
64489SOL    HW295365   4.070   5.806   5.457
64490SOL     OW95366  11.610   1.129   0.744
64490SOL    HW195367  11.567   1.065   0.800
64490SOL    HW295368  11.702   1.128   0.772
64491SOL     OW95369  11.637   0.987   5.437
64491SOL    HW195370  11.548   0.954   5.437
64491SOL    HW295371  11.685   0.927   5.381
64492SOL     OW95372   7.278   1.225   2.781
64492SOL    HW195373   7.275   1.182   2.696
64492SOL    HW295374   7.293   1.154   2.843
64493SOL     OW95375   6.366   3.948   5.488
64493SOL    HW195376   6.367   4.028   5.540
64493SOL    HW295377   6.318   3.885   5.542
64494SOL     OW95378  10.832   3.008   7.224
64494SOL    HW195379  10.841   2.916   7.197
64494SOL    HW295380  10.921   3.041   7.226
64495SOL     OW95381   3.882   5.950  14.222
64495SOL    HW195382   3.855   5.926  14.310
64495SOL    HW295383   3.978   5.946  14.224
64496SOL     OW95384  11.289   2.338   7.598
64496SOL    HW195385  11.310   2.430   7.585
64496SOL    HW295386  11.319   2.319   7.686
64497SOL     OW95387   7.608  11.827   7.153
64497SOL    HW195388   7.549  11.799   7.082
64497SOL    HW295389   7.674  11.758   7.157
64498SOL     OW95390   9.041   3.258   6.194
64498SOL    HW195391   8.951   3.230   6.179
64498SOL    HW295392   9.050   3.337   6.141
64499SOL     OW95393   2.842  10.863  11.223
64499SOL    HW195394   2.836  10.958  11.229
64499SOL    HW295395   2.879  10.836  11.307
64500SOL     OW95396   8.000   3.787   1.261
64500SOL    HW195397   8.035   3.754   1.344
64500SOL    HW295398   7.913   3.749   1.255
64501SOL     OW95399  11.425   3.387   3.770
64501SOL    HW195400  11.458   3.471   3.737
64501SOL    HW295401  11.462   3.380   3.858
64502SOL     OW95402   9.034  14.050   0.796
64502SOL    HW195403   9.119  14.087   0.820
64502SOL    HW295404   9.020  13.979   0.858
64503SOL     OW95405   5.809  10.947   2.627
64503SOL    HW195406   5.868  11.014   2.660
64503SOL    HW295407   5.829  10.869   2.680
64504SOL     OW95408   0.678   0.242   3.856
64504SOL    HW195409   0.621   0.200   3.792
64504SOL    HW295410   0.750   0.180   3.869
64505SOL     OW95411   7.963   6.184   9.887
64505SOL    HW195412   8.014   6.184   9.806
64505SOL    HW295413   7.900   6.255   9.876
64506SOL     OW95414   3.985   0.843   9.264
64506SOL    HW195415   3.918   0.889   9.213
64506SOL    HW295416   3.936   0.785   9.321
64507SOL     OW95417  13.966  11.988   7.803
64507SOL    HW195418  13.886  12.038   7.794
64507SOL    HW295419  14.036  12.054   7.804
64508SOL     OW95420   9.251   5.137   5.687
64508SOL    HW195421   9.305   5.060   5.674
64508SOL    HW295422   9.205   5.149   5.604
64509SOL     OW95423   9.575   4.184   1.071
64509SOL    HW195424   9.559   4.277   1.086
64509SOL    HW295425   9.668   4.178   1.052
64510SOL     OW95426   4.582  12.470   1.073
64510SOL    HW195427   4.502  12.491   1.025
64510SOL    HW295428   4.640  12.544   1.057
64511SOL     OW95429  13.964  12.758   6.692
64511SOL    HW195430  14.027  12.819   6.652
64511SOL    HW295431  13.881  12.779   6.650
64512SOL     OW95432   8.918   6.880   3.251
64512SOL    HW195433   8.985   6.862   3.185
64512SOL    HW295434   8.953   6.954   3.301
64513SOL     OW95435   0.310   9.600   8.559
64513SOL    HW195436   0.403   9.609   8.537
64513SOL    HW295437   0.268   9.575   8.476
64514SOL     OW95438  11.841   4.979   0.564
64514SOL    HW195439  11.843   4.902   0.620
64514SOL    HW295440  11.810   5.050   0.621
64515SOL     OW95441  10.526   7.022  12.530
64515SOL    HW195442  10.591   7.082  12.565
64515SOL    HW295443  10.570   6.979  12.456
64516SOL     OW95444  11.754  10.067   9.889
64516SOL    HW195445  11.760  10.163   9.892
64516SOL    HW295446  11.824  10.041   9.829
64517SOL     OW95447   2.555   1.210   9.139
64517SOL    HW195448   2.594   1.213   9.227
64517SOL    HW295449   2.462   1.227   9.154
64518SOL     OW95450   7.447   4.591   8.715
64518SOL    HW195451   7.499   4.626   8.642
64518SOL    HW295452   7.489   4.509   8.738
64519SOL     OW95453   5.948   7.738   4.710
64519SOL    HW195454   5.888   7.769   4.643
64519SOL    HW295455   5.902   7.754   4.793
64520SOL     OW95456  14.177  14.442   1.276
64520SOL    HW195457  14.093  14.406   1.303
64520SOL    HW295458  14.174  14.442   1.180
64521SOL     OW95459   0.674   6.370   2.005
64521SOL    HW195460   0.714   6.432   1.944
64521SOL    HW295461   0.703   6.284   1.974
64522SOL     OW95462  11.774   7.061   8.765
64522SOL    HW195463  11.847   7.001   8.753
64522SOL    HW295464  11.781   7.090   8.856
64523SOL     OW95465  10.611  12.058   0.319
64523SOL    HW195466  10.612  12.141   0.271
64523SOL    HW295467  10.659  11.998   0.263
64524SOL     OW95468   2.419   2.790  12.111
64524SOL    HW195469   2.435   2.840  12.191
64524SOL    HW295470   2.402   2.701  12.141
64525SOL     OW95471   5.168   2.995   4.368
64525SOL    HW195472   5.122   2.933   4.424
64525SOL    HW295473   5.151   2.965   4.279
64526SOL     OW95474   6.338  14.597  13.879
64526SOL    HW195475   6.367  14.541  13.951
64526SOL    HW295476   6.372  14.555  13.800
64527SOL     OW95477  12.402  11.476  11.437
64527SOL    HW195478  12.386  11.551  11.380
64527SOL    HW295479  12.445  11.512  11.514
64528SOL     OW95480  10.387  11.287  13.080
64528SOL    HW195481  10.305  11.309  13.125
64528SOL    HW295482  10.408  11.199  13.111
64529SOL     OW95483  12.780   8.550   3.580
64529SOL    HW195484  12.813   8.630   3.537
64529SOL    HW295485  12.737   8.501   3.510
64530SOL     OW95486  14.479   2.249   1.351
64530SOL    HW195487  14.453   2.285   1.436
64530SOL    HW295488  14.570   2.222   1.363
64531SOL     OW95489  13.857  14.095  12.918
64531SOL    HW195490  13.837  14.025  12.855
64531SOL    HW295491  13.940  14.132  12.887
64532SOL     OW95492   9.480   2.566   9.828
64532SOL    HW195493   9.517   2.479   9.814
64532SOL    HW295494   9.393   2.562   9.789
64533SOL     OW95495   2.006   2.281   7.004
64533SOL    HW195496   2.033   2.211   6.945
64533SOL    HW295497   2.006   2.360   6.949
64534SOL     OW95498   4.830   5.741   3.531
64534SOL    HW195499   4.772   5.817   3.530
64534SOL    HW295500   4.878   5.748   3.613
64535SOL     OW95501  10.519   9.025   2.868
64535SOL    HW195502  10.564   9.109   2.867
64535SOL    HW295503  10.529   8.992   2.779
64536SOL     OW95504  14.056   4.758  14.327
64536SOL    HW195505  14.053   4.671  14.287
64536SOL    HW295506  14.109   4.811  14.267
64537SOL     OW95507   1.640   9.197   4.298
64537SOL    HW195508   1.680   9.205   4.211
64537SOL    HW295509   1.547   9.216   4.284
64538SOL     OW95510  14.009   1.160   6.508
64538SOL    HW195511  13.965   1.181   6.426
64538SOL    HW295512  14.088   1.213   6.508
64539SOL     OW95513  11.022   4.338   6.787
64539SOL    HW195514  11.071   4.257   6.772
64539SOL    HW295515  10.968   4.318   6.864
64540SOL     OW95516   9.631   8.553  10.571
64540SOL    HW195517   9.542   8.528  10.595
64540SOL    HW295518   9.687   8.497  10.625
64541SOL     OW95519   3.000  13.605   2.162
64541SOL    HW195520   3.000  13.573   2.252
64541SOL    HW295521   2.927  13.667   2.158
64542SOL     OW95522   9.513   0.447   9.873
64542SOL    HW195523   9.423   0.462   9.900
64542SOL    HW295524   9.562   0.439   9.955
64543SOL     OW95525  14.121  13.287   2.866
64543SOL    HW195526  14.041  13.338   2.857
64543SOL    HW295527  14.169  13.302   2.784
64544SOL     OW95528   9.032  14.283   2.329
64544SOL    HW195529   8.986  14.343   2.387
64544SOL    HW295530   8.988  14.292   2.244
64545SOL     OW95531  13.027  13.427   5.668
64545SOL    HW195532  13.114  13.466   5.668
64545SOL    HW295533  12.985  13.460   5.589
64546SOL     OW95534   2.071   2.915  10.504
64546SOL    HW195535   2.053   2.882  10.592
64546SOL    HW295536   2.004   2.875  10.449
64547SOL     OW95537   7.079   1.209   5.043
64547SOL    HW195538   7.068   1.142   4.975
64547SOL    HW295539   7.079   1.292   4.995
64548SOL     OW95540  11.695   6.805   9.901
64548SOL    HW195541  11.666   6.893   9.927
64548SOL    HW295542  11.701   6.810   9.806
64549SOL     OW95543   3.818   0.031   6.365
64549SOL    HW195544   3.839  14.838   6.310
64549SOL    HW295545   3.731   0.012   6.400
64550SOL     OW95546   6.986   4.494   3.990
64550SOL    HW195547   7.052   4.445   4.040
64550SOL    HW295548   7.037   4.557   3.939
64551SOL     OW95549  12.163   0.298  10.883
64551SOL    HW195550  12.097   0.236  10.851
64551SOL    HW295551  12.129   0.384  10.857
64552SOL     OW95552   8.687  11.795  11.112
64552SOL    HW195553   8.725  11.881  11.096
64552SOL    HW295554   8.639  11.805  11.194
64553SOL     OW95555   0.719  10.827   8.776
64553SOL    HW195556   0.652  10.852   8.839
64553SOL    HW295557   0.763  10.752   8.816
64554SOL     OW95558   8.421   5.039   4.307
64554SOL    HW195559   8.443   4.947   4.295
64554SOL    HW295560   8.470   5.085   4.238
64555SOL     OW95561   2.982   1.135  14.133
64555SOL    HW195562   3.042   1.061  14.141
64555SOL    HW295563   3.038   1.212  14.146
64556SOL     OW95564  13.537  10.251   1.803
64556SOL    HW195565  13.528  10.322   1.866
64556SOL    HW295566  13.605  10.280   1.743
64557SOL     OW95567  10.463  14.089   6.669
64557SOL    HW195568  10.406  14.110   6.743
64557SOL    HW295569  10.507  14.008   6.695
64558SOL     OW95570   5.107  11.708   3.352
64558SOL    HW195571   5.172  11.732   3.286
64558SOL    HW295572   5.079  11.620   3.327
64559SOL     OW95573   6.874   3.815   2.944
64559SOL    HW195574   6.950   3.844   2.894
64559SOL    HW295575   6.906   3.801   3.032
64560SOL     OW95576   0.227   5.414  10.613
64560SOL    HW195577   0.201   5.363  10.689
64560SOL    HW295578   0.149   5.416  10.557
64561SOL     OW95579   8.675   4.483   3.755
64561SOL    HW195580   8.653   4.563   3.707
64561SOL    HW295581   8.712   4.425   3.688
64562SOL     OW95582  11.140   5.335  14.290
64562SOL    HW195583  11.088   5.359  14.367
64562SOL    HW295584  11.076   5.331  14.219
64563SOL     OW95585   4.948  11.310   5.597
64563SOL    HW195586   4.897  11.348   5.525
64563SOL    HW295587   4.892  11.321   5.674
64564SOL     OW95588   5.834  12.530   1.179
64564SOL    HW195589   5.803  12.612   1.140
64564SOL    HW295590   5.872  12.556   1.263
64565SOL     OW95591  14.373   4.415   4.184
64565SOL    HW195592  14.312   4.416   4.257
64565SOL    HW295593  14.398   4.506   4.173
64566SOL     OW95594  12.322   4.557  14.563
64566SOL    HW195595  12.242   4.562  14.616
64566SOL    HW295596  12.326   4.642  14.519
64567SOL     OW95597  10.513   0.443   8.656
64567SOL    HW195598  10.427   0.479   8.633
64567SOL    HW295599  10.505   0.416   8.747
64568SOL     OW95600  11.022   3.095   0.872
64568SOL    HW195601  10.928   3.082   0.889
64568SOL    HW295602  11.026   3.177   0.822
64569SOL     OW95603   9.538   7.798   8.513
64569SOL    HW195604   9.453   7.823   8.477
64569SOL    HW295605   9.600   7.817   8.443
64570SOL     OW95606   2.556   7.499  11.948
64570SOL    HW195607   2.596   7.417  11.979
64570SOL    HW295608   2.462   7.487  11.963
64571SOL     OW95609  13.776  10.412   9.500
64571SOL    HW195610  13.742  10.446   9.584
64571SOL    HW295611  13.724  10.333   9.484
64572SOL     OW95612   9.489   9.052   3.577
64572SOL    HW195613   9.455   9.126   3.626
64572SOL    HW295614   9.583   9.054   3.591
64573SOL     OW95615   3.744  14.687   0.217
64573SOL    HW195616   3.781  14.678   0.130
64573SOL    HW295617   3.698  14.770   0.216
64574SOL     OW95618   8.820   6.583  13.988
64574SOL    HW195619   8.763   6.529  13.933
64574SOL    HW295620   8.854   6.522  14.054
64575SOL     OW95621   0.831   1.859   4.938
64575SOL    HW195622   0.787   1.908   4.868
64575SOL    HW295623   0.784   1.776   4.943
64576SOL     OW95624   1.276  12.131   3.385
64576SOL    HW195625   1.295  12.071   3.313
64576SOL    HW295626   1.355  12.183   3.395
64577SOL     OW95627   7.719   2.160   5.466
64577SOL    HW195628   7.678   2.103   5.401
64577SOL    HW295629   7.653   2.227   5.484
64578SOL     OW95630  14.793   1.454  12.870
64578SOL    HW195631  14.855   1.506  12.819
64578SOL    HW295632  14.785   1.371  12.823
64579SOL     OW95633  10.814   8.037  11.246
64579SOL    HW195634  10.737   8.069  11.293
64579SOL    HW295635  10.790   8.044  11.153
64580SOL     OW95636   5.550   5.793   5.278
64580SOL    HW195637   5.466   5.750   5.262
64580SOL    HW295638   5.537   5.841   5.359
64581SOL     OW95639   4.726  11.597   7.953
64581SOL    HW195640   4.656  11.561   7.898
64581SOL    HW295641   4.715  11.692   7.947
64582SOL     OW95642  12.058   7.491   5.302
64582SOL    HW195643  12.027   7.581   5.308
64582SOL    HW295644  12.122   7.482   5.372
64583SOL     OW95645   1.115   9.655   5.349
64583SOL    HW195646   1.022   9.642   5.328
64583SOL    HW295647   1.114   9.716   5.423
64584SOL     OW95648   3.491   6.708   5.087
64584SOL    HW195649   3.469   6.762   5.163
64584SOL    HW295650   3.439   6.744   5.016
64585SOL     OW95651   1.865   9.704  14.576
64585SOL    HW195652   1.811   9.641  14.625
64585SOL    HW295653   1.921   9.649  14.521
64586SOL     OW95654   0.805   2.985   4.860
64586SOL    HW195655   0.731   2.942   4.816
64586SOL    HW295656   0.821   2.932   4.938
64587SOL     OW95657   7.213   8.925   4.236
64587SOL    HW195658   7.226   8.860   4.167
64587SOL    HW295659   7.224   8.876   4.318
64588SOL     OW95660   2.939   1.411  13.380
64588SOL    HW195661   2.904   1.399  13.468
64588SOL    HW295662   2.909   1.334  13.332
64589SOL     OW95663  13.251   4.103   5.592
64589SOL    HW195664  13.183   4.063   5.647
64589SOL    HW295665  13.203   4.137   5.517
64590SOL     OW95666   9.808   8.842   9.776
64590SOL    HW195667   9.901   8.836   9.753
64590SOL    HW295668   9.761   8.821   9.696
64591SOL     OW95669   6.317   9.035  10.988
64591SOL    HW195670   6.224   9.051  11.007
64591SOL    HW295671   6.326   9.051  10.894
64592SOL     OW95672   7.433   0.526  12.186
64592SOL    HW195673   7.418   0.440  12.225
64592SOL    HW295674   7.345   0.559  12.166
64593SOL     OW95675   3.285  12.400  11.390
64593SOL    HW195676   3.357  12.448  11.347
64593SOL    HW295677   3.287  12.432  11.480
64594SOL     OW95678   6.477   0.643   8.626
64594SOL    HW195679   6.435   0.665   8.710
64594SOL    HW295680   6.568   0.623   8.650
64595SOL     OW95681   3.650   3.902   5.500
64595SOL    HW195682   3.665   3.859   5.584
64595SOL    HW295683   3.558   3.929   5.502
64596SOL     OW95684  12.735  14.866   2.694
64596SOL    HW195685  12.724  14.844   2.787
64596SOL    HW295686  12.659   0.038   2.673
64597SOL     OW95687   5.135   7.666  13.221
64597SOL    HW195688   5.091   7.612  13.286
64597SOL    HW295689   5.159   7.606  13.150
64598SOL     OW95690   4.510   1.493   1.398
64598SOL    HW195691   4.419   1.510   1.371
64598SOL    HW295692   4.563   1.516   1.322
64599SOL     OW95693  10.817   8.763  13.253
64599SOL    HW195694  10.722   8.774  13.247
64599SOL    HW295695  10.848   8.846  13.288
64600SOL     OW95696   5.773   6.242   2.678
64600SOL    HW195697   5.848   6.269   2.731
64600SOL    HW295698   5.717   6.319   2.675
64601SOL     OW95699   3.611   6.768  14.851
64601SOL    HW195700   3.633   6.687  14.806
64601SOL    HW295701   3.518   6.761  14.869
64602SOL     OW95702  12.078  12.418   5.256
64602SOL    HW195703  12.143  12.472   5.301
64602SOL    HW295704  11.995  12.438   5.299
64603SOL     OW95705  11.009  11.151   7.783
64603SOL    HW195706  10.940  11.096   7.819
64603SOL    HW295707  11.086  11.095   7.781
64604SOL     OW95708   1.056   7.749   8.476
64604SOL    HW195709   1.067   7.744   8.381
64604SOL    HW295710   1.103   7.673   8.510
64605SOL     OW95711   7.509  12.343   6.751
64605SOL    HW195712   7.470  12.314   6.668
64605SOL    HW295713   7.596  12.375   6.727
64606SOL     OW95714   2.302  12.363   0.205
64606SOL    HW195715   2.247  12.307   0.260
64606SOL    HW295716   2.243  12.396   0.137
64607SOL     OW95717   8.840   4.301   7.092
64607SOL    HW195718   8.782   4.329   7.163
64607SOL    HW295719   8.901   4.375   7.080
64608SOL     OW95720   8.172  14.852   8.798
64608SOL    HW195721   8.256  14.813   8.773
64608SOL    HW295722   8.108  14.808   8.742
64609SOL     OW95723  14.111  13.347   9.147
64609SOL    HW195724  14.123  13.439   9.124
64609SOL    HW295725  14.018  13.330   9.132
64610SOL     OW95726   6.727   9.465   8.467
64610SOL    HW195727   6.706   9.390   8.523
64610SOL    HW295728   6.651   9.522   8.474
64611SOL     OW95729  12.526   8.787   0.103
64611SOL    HW195730  12.486   8.845   0.168
64611SOL    HW295731  12.586   8.843   0.054
64612SOL     OW95732  10.028   3.284   0.481
64612SOL    HW195733   9.987   3.337   0.550
64612SOL    HW295734  10.122   3.286   0.502
64613SOL     OW95735  14.199   2.481   7.682
64613SOL    HW195736  14.244   2.409   7.727
64613SOL    HW295737  14.163   2.440   7.603
64614SOL     OW95738   3.796   2.325   5.808
64614SOL    HW195739   3.839   2.361   5.730
64614SOL    HW295740   3.741   2.255   5.774
64615SOL     OW95741  12.506   0.227   5.465
64615SOL    HW195742  12.430   0.193   5.513
64615SOL    HW295743  12.549   0.286   5.528
64616SOL     OW95744  10.651   5.453   3.116
64616SOL    HW195745  10.581   5.501   3.072
64616SOL    HW295746  10.664   5.501   3.198
64617SOL     OW95747  11.738  13.013   8.952
64617SOL    HW195748  11.713  13.103   8.973
64617SOL    HW295749  11.761  13.015   8.859
64618SOL     OW95750   3.189  11.371   2.028
64618SOL    HW195751   3.268  11.317   2.026
64618SOL    HW295752   3.167  11.379   2.121
64619SOL     OW95753  10.616  12.670  10.534
64619SOL    HW195754  10.663  12.587  10.530
64619SOL    HW295755  10.644  12.709  10.616
64620SOL     OW95756  11.157   3.113   5.701
64620SOL    HW195757  11.125   3.191   5.656
64620SOL    HW295758  11.214   3.147   5.770
64621SOL     OW95759  13.470  10.185  14.016
64621SOL    HW195760  13.433  10.141  13.940
64621SOL    HW295761  13.395  10.198  14.075
64622SOL     OW95762   0.148  14.157   5.904
64622SOL    HW195763   0.174  14.116   5.987
64622SOL    HW295764   0.212  14.127   5.840
64623SOL     OW95765   0.105   9.404   1.841
64623SOL    HW195766   0.123   9.316   1.809
64623SOL    HW295767   0.011   9.415   1.830
64624SOL     OW95768   3.355  11.044  11.547
64624SOL    HW195769   3.349  11.115  11.483
64624SOL    HW295770   3.338  10.965  11.497
64625SOL     OW95771  14.701   4.798   7.937
64625SOL    HW195772  14.650   4.821   7.859
64625SOL    HW295773  14.749   4.719   7.912
64626SOL     OW95774   5.480   8.390   7.033
64626SOL    HW195775   5.435   8.431   6.959
64626SOL    HW295776   5.506   8.464   7.089
64627SOL     OW95777  13.383   2.180  13.986
64627SOL    HW195778  13.445   2.249  14.010
64627SOL    HW295779  13.310   2.226  13.946
64628SOL     OW95780   9.137   3.809   0.682
64628SOL    HW195781   9.212   3.759   0.714
64628SOL    HW295782   9.159   3.830   0.592
64629SOL     OW95783   4.318  13.521   7.308
64629SOL    HW195784   4.388  13.566   7.355
64629SOL    HW295785   4.244  13.522   7.369
64630SOL     OW95786  10.545  12.001   1.921
64630SOL    HW195787  10.585  12.038   1.999
64630SOL    HW295788  10.506  12.076   1.876
64631SOL     OW95789   8.375   4.499   9.138
64631SOL    HW195790   8.310   4.543   9.192
64631SOL    HW295791   8.411   4.431   9.195
64632SOL     OW95792  13.875   0.980   3.763
64632SOL    HW195793  13.886   1.020   3.677
64632SOL    HW295794  13.899   0.888   3.751
64633SOL     OW95795   6.488   7.805  10.219
64633SOL    HW195796   6.537   7.783  10.298
64633SOL    HW295797   6.464   7.720  10.182
64634SOL     OW95798   0.541   7.367  10.877
64634SOL    HW195799   0.501   7.315  10.947
64634SOL    HW295800   0.477   7.362  10.805
64635SOL     OW95801   6.444  13.101   7.057
64635SOL    HW195802   6.525  13.083   7.009
64635SOL    HW295803   6.454  13.192   7.086
64636SOL     OW95804  10.905  10.356   0.831
64636SOL    HW195805  11.000  10.366   0.840
64636SOL    HW295806  10.895  10.287   0.764
64637SOL     OW95807   0.781   7.811  14.775
64637SOL    HW195808   0.869   7.826  14.739
64637SOL    HW295809   0.796   7.790  14.867
64638SOL     OW95810  13.435   2.821   8.935
64638SOL    HW195811  13.392   2.743   8.900
64638SOL    HW295812  13.529   2.801   8.929
64639SOL     OW95813  11.234   3.224  11.222
64639SOL    HW195814  11.194   3.259  11.142
64639SOL    HW295815  11.198   3.137  11.231
64640SOL     OW95816  11.514   3.644   5.735
64640SOL    HW195817  11.524   3.584   5.661
64640SOL    HW295818  11.482   3.589   5.807
64641SOL     OW95819  13.114  14.850   9.304
64641SOL    HW195820  13.040   0.023   9.278
64641SOL    HW295821  13.166  14.841   9.225
64642SOL     OW95822   1.126  13.572   6.365
64642SOL    HW195823   1.190  13.622   6.313
64642SOL    HW295824   1.079  13.639   6.414
64643SOL     OW95825   3.937   1.697   7.152
64643SOL    HW195826   3.980   1.670   7.233
64643SOL    HW295827   4.000   1.755   7.109
64644SOL     OW95828   4.229   6.967   5.848
64644SOL    HW195829   4.181   6.896   5.806
64644SOL    HW295830   4.268   7.017   5.776
64645SOL     OW95831  13.145   5.351   3.417
64645SOL    HW195832  13.186   5.307   3.342
64645SOL    HW295833  13.210   5.415   3.445
64646SOL     OW95834   4.093   7.187  14.585
64646SOL    HW195835   4.179   7.224  14.604
64646SOL    HW295836   4.051   7.176  14.671
64647SOL     OW95837   4.843   9.492   0.303
64647SOL    HW195838   4.876   9.578   0.327
64647SOL    HW295839   4.904   9.430   0.344
64648SOL     OW95840  10.445   6.323   9.525
64648SOL    HW195841  10.485   6.240   9.502
64648SOL    HW295842  10.493   6.352   9.603
64649SOL     OW95843  14.013   7.270   6.314
64649SOL    HW195844  13.987   7.244   6.226
64649SOL    HW295845  14.058   7.354   6.301
64650SOL     OW95846   7.001   0.817   2.987
64650SOL    HW195847   7.065   0.753   3.020
64650SOL    HW295848   7.053   0.884   2.944
64651SOL     OW95849   8.713   9.391   2.884
64651SOL    HW195850   8.746   9.462   2.939
64651SOL    HW295851   8.626   9.419   2.858
64652SOL     OW95852   7.277  10.427  12.332
64652SOL    HW195853   7.353  10.410  12.276
64652SOL    HW295854   7.312  10.421  12.421
64653SOL     OW95855   4.072   3.786  12.610
64653SOL    HW195856   4.054   3.827  12.694
64653SOL    HW295857   4.091   3.695  12.630
64654SOL     OW95858   3.299   2.378   5.144
64654SOL    HW195859   3.270   2.418   5.062
64654SOL    HW295860   3.229   2.396   5.207
64655SOL     OW95861  11.363   8.330  11.623
64655SOL    HW195862  11.383   8.301  11.535
64655SOL    HW295863  11.434   8.390  11.645
64656SOL     OW95864  13.944   9.483   4.587
64656SOL    HW195865  13.974   9.564   4.629
64656SOL    HW295866  13.909   9.511   4.503
64657SOL     OW95867   5.698  14.569  13.211
64657SOL    HW195868   5.643  14.496  13.180
64657SOL    HW295869   5.782  14.528  13.232
64658SOL     OW95870   3.209   5.265   3.169
64658SOL    HW195871   3.272   5.336   3.179
64658SOL    HW295872   3.124   5.305   3.188
64659SOL     OW95873  12.455  13.202   7.929
64659SOL    HW195874  12.416  13.165   8.007
64659SOL    HW295875  12.467  13.295   7.949
64660SOL     OW95876   2.156   9.723   1.556
64660SOL    HW195877   2.216   9.791   1.587
64660SOL    HW295878   2.150   9.661   1.628
64661SOL     OW95879  13.533   9.517  10.569
64661SOL    HW195880  13.571   9.471  10.644
64661SOL    HW295881  13.450   9.552  10.601
64662SOL     OW95882   2.374   0.521  11.812
64662SOL    HW195883   2.413   0.438  11.842
64662SOL    HW295884   2.375   0.577  11.889
64663SOL     OW95885   0.814   5.221  13.305
64663SOL    HW195886   0.731   5.221  13.256
64663SOL    HW295887   0.873   5.273  13.251
64664SOL     OW95888   4.287   3.017   6.941
64664SOL    HW195889   4.209   3.025   6.886
64664SOL    HW295890   4.257   2.966   7.017
64665SOL     OW95891   2.222  14.528   8.357
64665SOL    HW195892   2.292  14.582   8.320
64665SOL    HW295893   2.160  14.518   8.285
64666SOL     OW95894  11.850   9.411   1.398
64666SOL    HW195895  11.904   9.472   1.448
64666SOL    HW295896  11.761   9.444   1.407
64667SOL     OW95897   8.060  11.631   0.277
64667SOL    HW195898   7.993  11.591   0.223
64667SOL    HW295899   8.140  11.627   0.224
64668SOL     OW95900   5.504   6.045   4.047
64668SOL    HW195901   5.588   6.075   4.012
64668SOL    HW295902   5.508   5.950   4.041
64669SOL     OW95903   2.368   5.513  10.230
64669SOL    HW195904   2.310   5.590  10.237
64669SOL    HW295905   2.309   5.438  10.229
64670SOL     OW95906  10.851   5.933   7.278
64670SOL    HW195907  10.762   5.897   7.278
64670SOL    HW295908  10.877   5.931   7.370
64671SOL     OW95909  14.870   4.007   0.503
64671SOL    HW195910   0.033   3.983   0.584
64671SOL    HW295911   0.058   4.036   0.444
64672SOL     OW95912  10.612   4.399   1.756
64672SOL    HW195913  10.551   4.436   1.692
64672SOL    HW295914  10.564   4.328   1.797
64673SOL     OW95915   0.609   3.402  11.092
64673SOL    HW195916   0.647   3.478  11.049
64673SOL    HW295917   0.553   3.438  11.161
64674SOL     OW95918  11.933   3.188   6.677
64674SOL    HW195919  11.939   3.118   6.611
64674SOL    HW295920  11.979   3.262   6.637
64675SOL     OW95921   7.274   6.709  12.461
64675SOL    HW195922   7.334   6.663  12.520
64675SOL    HW295923   7.256   6.792  12.506
64676SOL     OW95924   0.073  11.939   1.152
64676SOL    HW195925   0.048  11.855   1.115
64676SOL    HW295926   0.147  11.919   1.209
64677SOL     OW95927   0.183   8.560   3.462
64677SOL    HW195928   0.248   8.630   3.454
64677SOL    HW295929   0.124   8.575   3.387
64678SOL     OW95930   7.158   6.036   3.236
64678SOL    HW195931   7.131   6.119   3.198
64678SOL    HW295932   7.245   6.019   3.199
64679SOL     OW95933   0.690   8.062   3.679
64679SOL    HW195934   0.654   8.129   3.736
64679SOL    HW295935   0.757   8.019   3.731
64680SOL     OW95936  10.222   4.467   9.046
64680SOL    HW195937  10.171   4.418   8.981
64680SOL    HW295938  10.235   4.404   9.117
64681SOL     OW95939   0.108   7.632  13.156
64681SOL    HW195940   0.194   7.672  13.149
64681SOL    HW295941   0.123   7.551  13.205
64682SOL     OW95942   6.399  14.013   6.737
64682SOL    HW195943   6.344  13.979   6.667
64682SOL    HW295944   6.487  14.016   6.698
64683SOL     OW95945  11.785   9.552  14.033
64683SOL    HW195946  11.855   9.598  14.077
64683SOL    HW295947  11.708   9.608  14.044
64684SOL     OW95948   4.804   9.540   6.747
64684SOL    HW195949   4.832   9.472   6.808
64684SOL    HW295950   4.796   9.494   6.663
64685SOL     OW95951   1.861   5.225   7.806
64685SOL    HW195952   1.835   5.164   7.737
64685SOL    HW295953   1.779   5.257   7.843
64686SOL     OW95954   0.223  11.354  13.114
64686SOL    HW195955   0.305  11.372  13.069
64686SOL    HW295956   0.212  11.427  13.175
64687SOL     OW95957   4.279   6.197   8.688
64687SOL    HW195958   4.332   6.276   8.676
64687SOL    HW295959   4.307   6.138   8.618
64688SOL     OW95960   6.279  10.422   3.077
64688SOL    HW195961   6.250  10.484   3.145
64688SOL    HW295962   6.316  10.349   3.127
64689SOL     OW95963  10.403   0.004   0.316
64689SOL    HW195964  10.476  14.843   0.272
64689SOL    HW295965  10.435   0.092   0.337
64690SOL     OW95966  12.853   8.262  11.572
64690SOL    HW195967  12.881   8.234  11.660
64690SOL    HW295968  12.779   8.205  11.551
64691SOL     OW95969   1.640  11.208   0.306
64691SOL    HW195970   1.573  11.276   0.319
64691SOL    HW295971   1.685  11.202   0.390
64692SOL     OW95972   8.127   3.211   0.241
64692SOL    HW195973   8.048   3.230   0.191
64692SOL    HW295974   8.150   3.293   0.283
64693SOL     OW95975  10.786   9.922   6.076
64693SOL    HW195976  10.799   9.874   6.158
64693SOL    HW295977  10.871   9.963   6.058
64694SOL     OW95978   5.528  12.083  12.719
64694SOL    HW195979   5.596  12.151  12.715
64694SOL    HW295980   5.499  12.084  12.811
64695SOL     OW95981  14.590   2.689   8.179
64695SOL    HW195982  14.539   2.609   8.185
64695SOL    HW295983  14.525   2.759   8.170
64696SOL     OW95984  14.371   5.255   1.287
64696SOL    HW195985  14.301   5.315   1.261
64696SOL    HW295986  14.452   5.303   1.271
64697SOL     OW95987  12.788  10.374   5.861
64697SOL    HW195988  12.815  10.437   5.793
64697SOL    HW295989  12.693  10.386   5.867
64698SOL     OW95990   8.994   0.770  13.020
64698SOL    HW195991   8.906   0.735  13.012
64698SOL    HW295992   8.991   0.828  13.097
64699SOL     OW95993  11.676   7.569  13.999
64699SOL    HW195994  11.721   7.486  14.013
64699SOL    HW295995  11.710   7.602  13.916
64700SOL     OW95996   7.233  14.596   0.699
64700SOL    HW195997   7.159  14.640   0.741
64700SOL    HW295998   7.271  14.662   0.641
64701SOL     OW95999   4.120  12.602   1.879
64701SOL    HW196000   4.154  12.537   1.818
64701SOL    HW296001   4.025  12.595   1.872
64702SOL     OW96002  12.120   6.772   3.149
64702SOL    HW196003  12.094   6.778   3.057
64702SOL    HW296004  12.096   6.683   3.174
64703SOL     OW96005   3.397   0.871   9.499
64703SOL    HW196006   3.443   0.791   9.524
64703SOL    HW296007   3.441   0.899   9.418
64704SOL     OW96008   9.055  10.975  12.889
64704SOL    HW196009   9.066  10.986  12.983
64704SOL    HW296010   9.139  10.998  12.852
64705SOL     OW96011   0.043   3.451   8.142
64705SOL    HW196012  14.856   3.472   8.205
64705SOL    HW296013   0.088   3.533   8.127
64706SOL     OW96014   4.351   5.455   6.979
64706SOL    HW196015   4.256   5.446   6.968
64706SOL    HW296016   4.388   5.407   6.906
64707SOL     OW96017  11.194  11.961   0.543
64707SOL    HW196018  11.275  11.957   0.594
64707SOL    HW296019  11.195  11.881   0.491
64708SOL     OW96020   7.324  10.826  10.119
64708SOL    HW196021   7.238  10.835  10.159
64708SOL    HW296022   7.308  10.825  10.025
64709SOL     OW96023   9.809  10.972  13.878
64709SOL    HW196024   9.846  10.911  13.815
64709SOL    HW296025   9.793  11.052  13.828
64710SOL     OW96026  13.225  12.315   3.988
64710SOL    HW196027  13.230  12.408   4.007
64710SOL    HW296028  13.238  12.273   4.073
64711SOL     OW96029   4.140   5.948   2.494
64711SOL    HW196030   4.146   5.909   2.581
64711SOL    HW296031   4.188   5.887   2.437
64712SOL     OW96032  12.094  13.356  11.381
64712SOL    HW196033  12.142  13.274  11.393
64712SOL    HW296034  12.143  13.402  11.312
64713SOL     OW96035   1.170   3.020   1.165
64713SOL    HW196036   1.087   2.984   1.196
64713SOL    HW296037   1.156   3.036   1.072
64714SOL     OW96038   4.419   9.835  11.781
64714SOL    HW196039   4.366   9.775  11.834
64714SOL    HW296040   4.399   9.811  11.690
64715SOL     OW96041   0.490   4.754   6.145
64715SOL    HW196042   0.558   4.710   6.094
64715SOL    HW296043   0.417   4.762   6.084
64716SOL     OW96044  12.903  10.502  14.604
64716SOL    HW196045  12.876  10.575  14.549
64716SOL    HW296046  12.877  10.528  14.693
64717SOL     OW96047   2.150   4.627   9.267
64717SOL    HW196048   2.182   4.556   9.323
64717SOL    HW296049   2.146   4.703   9.325
64718SOL     OW96050   3.623  12.137   4.010
64718SOL    HW196051   3.698  12.157   3.953
64718SOL    HW296052   3.588  12.055   3.975
64719SOL     OW96053  10.223   1.002   9.663
64719SOL    HW196054  10.281   1.070   9.698
64719SOL    HW296055  10.266   0.919   9.687
64720SOL     OW96056  12.112   3.027   6.199
64720SOL    HW196057  12.095   2.985   6.115
64720SOL    HW296058  12.165   2.965   6.248
64721SOL     OW96059   0.329  10.864   5.582
64721SOL    HW196060   0.362  10.796   5.524
64721SOL    HW296061   0.369  10.944   5.551
64722SOL     OW96062   5.346   3.441   1.194
64722SOL    HW196063   5.373   3.381   1.264
64722SOL    HW296064   5.404   3.419   1.121
64723SOL     OW96065   2.959   2.957   9.073
64723SOL    HW196066   2.969   3.036   9.125
64723SOL    HW296067   2.983   2.983   8.984
64724SOL     OW96068   1.414   6.802   7.219
64724SOL    HW196069   1.343   6.829   7.161
64724SOL    HW296070   1.490   6.792   7.161
64725SOL     OW96071  12.794   1.841   9.287
64725SOL    HW196072  12.867   1.802   9.240
64725SOL    HW296073  12.833   1.874   9.368
64726SOL     OW96074   0.588  13.647   6.812
64726SOL    HW196075   0.601  13.659   6.906
64726SOL    HW296076   0.597  13.553   6.798
64727SOL     OW96077   2.077   1.338  13.123
64727SOL    HW196078   2.008   1.379  13.070
64727SOL    HW296079   2.158   1.365  13.080
64728SOL     OW96080   9.858   9.560   7.486
64728SOL    HW196081   9.918   9.615   7.537
64728SOL    HW296082   9.771   9.597   7.505
64729SOL     OW96083  14.779   0.322   4.465
64729SOL    HW196084  14.797   0.228   4.458
64729SOL    HW296085  14.831   0.351   4.540
64730SOL     OW96086   2.454   5.531   2.298
64730SOL    HW196087   2.486   5.559   2.384
64730SOL    HW296088   2.413   5.446   2.314
64731SOL     OW96089  13.325   6.137   7.697
64731SOL    HW196090  13.272   6.155   7.774
64731SOL    HW296091  13.277   6.069   7.649
64732SOL     OW96092   3.520   8.475   9.752
64732SOL    HW196093   3.497   8.497   9.661
64732SOL    HW296094   3.608   8.512   9.764
64733SOL     OW96095   6.861  10.210   5.820
64733SOL    HW196096   6.794  10.153   5.782
64733SOL    HW296097   6.827  10.299   5.808
64734SOL     OW96098   0.524   3.477  12.340
64734SOL    HW196099   0.531   3.558  12.289
64734SOL    HW296100   0.592   3.420  12.303
64735SOL     OW96101   4.889  12.860   8.660
64735SOL    HW196102   4.823  12.869   8.591
64735SOL    HW296103   4.948  12.934   8.646
64736SOL     OW96104  14.843   9.490   6.594
64736SOL    HW196105  14.757   9.532   6.599
64736SOL    HW296106   0.023   9.563   6.594
64737SOL     OW96107   1.877   3.189   6.565
64737SOL    HW196108   1.819   3.262   6.587
64737SOL    HW296109   1.919   3.214   6.483
64738SOL     OW96110   3.069  14.860   2.500
64738SOL    HW196111   3.029  14.781   2.464
64738SOL    HW296112   3.076  14.843   2.594
64739SOL     OW96113   9.484   3.464   1.124
64739SOL    HW196114   9.448   3.475   1.212
64739SOL    HW296115   9.573   3.498   1.131
64740SOL     OW96116   2.045   3.417  11.471
64740SOL    HW196117   2.041   3.421  11.566
64740SOL    HW296118   2.126   3.462  11.448
64741SOL     OW96119   6.747   1.832   9.876
64741SOL    HW196120   6.688   1.840   9.951
64741SOL    HW296121   6.808   1.905   9.886
64742SOL     OW96122  14.708   1.123   0.084
64742SOL    HW196123  14.678   1.193   0.142
64742SOL    HW296124  14.797   1.104   0.114
64743SOL     OW96125   5.240   1.437  14.390
64743SOL    HW196126   5.210   1.500  14.324
64743SOL    HW296127   5.160   1.404  14.430
64744SOL     OW96128   9.153  12.793  11.188
64744SOL    HW196129   9.148  12.886  11.207
64744SOL    HW296130   9.077  12.755  11.232
64745SOL     OW96131   7.875   3.386   7.589
64745SOL    HW196132   7.820   3.458   7.560
64745SOL    HW296133   7.844   3.310   7.540
64746SOL     OW96134  14.808   5.388   2.043
64746SOL    HW196135  14.809   5.298   2.075
64746SOL    HW296136  14.742   5.432   2.097
64747SOL     OW96137   8.470   9.927  13.198
64747SOL    HW196138   8.522   9.858  13.157
64747SOL    HW296139   8.407   9.953  13.131
64748SOL     OW96140  11.580   6.093   9.732
64748SOL    HW196141  11.549   6.147   9.805
64748SOL    HW296142  11.656   6.139   9.698
64749SOL     OW96143   6.540  13.282  10.637
64749SOL    HW196144   6.561  13.375  10.643
64749SOL    HW296145   6.625  13.239  10.629
64750SOL     OW96146   6.642   8.669  12.721
64750SOL    HW196147   6.621   8.590  12.671
64750SOL    HW296148   6.736   8.662  12.739
64751SOL     OW96149   9.802   1.279   8.078
64751SOL    HW196150   9.723   1.234   8.050
64751SOL    HW296151   9.781   1.312   8.166
64752SOL     OW96152  10.592   7.159   6.603
64752SOL    HW196153  10.676   7.137   6.644
64752SOL    HW296154  10.586   7.255   6.611
64753SOL     OW96155  13.093   5.062   5.271
64753SOL    HW196156  13.055   5.031   5.189
64753SOL    HW296157  13.021   5.105   5.317
64754SOL     OW96158  13.232   1.097   1.367
64754SOL    HW196159  13.223   1.027   1.302
64754SOL    HW296160  13.188   1.172   1.326
64755SOL     OW96161   4.196  11.547   3.952
64755SOL    HW196162   4.251  11.576   4.026
64755SOL    HW296163   4.108  11.541   3.988
64756SOL     OW96164  14.473   6.894   3.258
64756SOL    HW196165  14.462   6.859   3.170
64756SOL    HW296166  14.563   6.926   3.260
64757SOL     OW96167   4.451   6.833   9.963
64757SOL    HW196168   4.537   6.875   9.956
64757SOL    HW296169   4.392   6.891   9.915
64758SOL     OW96170   5.508   3.293  12.374
64758SOL    HW196171   5.526   3.262  12.285
64758SOL    HW296172   5.427   3.343  12.366
64759SOL     OW96173   9.522   0.868  13.988
64759SOL    HW196174   9.470   0.909  14.057
64759SOL    HW296175   9.548   0.783  14.024
64760SOL     OW96176   6.272   8.872   7.560
64760SOL    HW196177   6.253   8.884   7.653
64760SOL    HW296178   6.291   8.961   7.528
64761SOL     OW96179   7.657  13.121   7.800
64761SOL    HW196180   7.700  13.048   7.843
64761SOL    HW296181   7.586  13.081   7.750
64762SOL     OW96182   3.606  10.420  14.122
64762SOL    HW196183   3.686  10.470  14.108
64762SOL    HW296184   3.594  10.420  14.217
64763SOL     OW96185  13.465  12.558   0.376
64763SOL    HW196186  13.388  12.506   0.395
64763SOL    HW296187  13.520  12.501   0.322
64764SOL     OW96188   9.680   6.715   6.014
64764SOL    HW196189   9.606   6.708   5.954
64764SOL    HW296190   9.757   6.702   5.958
64765SOL     OW96191   3.833   3.587  13.525
64765SOL    HW196192   3.806   3.495  13.521
64765SOL    HW296193   3.805   3.616  13.612
64766SOL     OW96194   8.412  13.378  13.856
64766SOL    HW196195   8.503  13.350  13.869
64766SOL    HW296196   8.376  13.384  13.945
64767SOL     OW96197   7.357   1.459   8.202
64767SOL    HW196198   7.313   1.403   8.266
64767SOL    HW296199   7.378   1.400   8.129
64768SOL     OW96200   6.287   6.183   1.129
64768SOL    HW196201   6.250   6.264   1.165
64768SOL    HW296202   6.361   6.213   1.076
64769SOL     OW96203   7.548   3.122  13.523
64769SOL    HW196204   7.639   3.120  13.552
64769SOL    HW296205   7.521   3.030  13.524
64770SOL     OW96206   8.590  14.078  10.427
64770SOL    HW196207   8.660  14.139  10.404
64770SOL    HW296208   8.603  14.002  10.370
64771SOL     OW96209   8.294   2.523   8.020
64771SOL    HW196210   8.287   2.492   7.930
64771SOL    HW296211   8.369   2.475   8.056
64772SOL     OW96212   3.451   5.532   6.581
64772SOL    HW196213   3.477   5.602   6.521
64772SOL    HW296214   3.366   5.560   6.615
64773SOL     OW96215   0.460   7.450   6.219
64773SOL    HW196216   0.412   7.391   6.278
64773SOL    HW296217   0.518   7.391   6.169
64774SOL     OW96218  14.410   3.656   2.116
64774SOL    HW196219  14.398   3.564   2.095
64774SOL    HW296220  14.359   3.703   2.050
64775SOL     OW96221   2.823   8.184  12.076
64775SOL    HW196222   2.911   8.169  12.041
64775SOL    HW296223   2.804   8.275  12.054
64776SOL     OW96224   4.895   5.974   1.422
64776SOL    HW196225   4.977   5.927   1.408
64776SOL    HW296226   4.919   6.050   1.475
64777SOL     OW96227   8.092   3.041   0.812
64777SOL    HW196228   8.146   3.000   0.879
64777SOL    HW296229   8.003   3.009   0.830
64778SOL     OW96230  10.849  10.579   1.002
64778SOL    HW196231  10.785  10.630   0.952
64778SOL    HW296232  10.868  10.503   0.947
64779SOL     OW96233  11.904   4.674   7.952
64779SOL    HW196234  11.854   4.667   7.870
64779SOL    HW296235  11.987   4.713   7.926
64780SOL     OW96236   8.352  11.807  12.826
64780SOL    HW196237   8.341  11.807  12.731
64780SOL    HW296238   8.442  11.837  12.840
64781SOL     OW96239   3.987   0.462  13.265
64781SOL    HW196240   4.058   0.417  13.221
64781SOL    HW296241   3.988   0.551  13.228
64782SOL     OW96242  11.657   8.742   8.852
64782SOL    HW196243  11.643   8.784   8.767
64782SOL    HW296244  11.602   8.664   8.849
64783SOL     OW96245   3.086  11.057   4.715
64783SOL    HW196246   3.152  11.047   4.784
64783SOL    HW296247   3.126  11.018   4.638
64784SOL     OW96248  10.416   9.416  12.517
64784SOL    HW196249  10.497   9.371  12.493
64784SOL    HW296250  10.363   9.350  12.560
64785SOL     OW96251   3.204   7.351  14.866
64785SOL    HW196252   3.175   7.262  14.849
64785SOL    HW296253   3.129   7.406  14.843
64786SOL     OW96254   5.857   5.643  14.478
64786SOL    HW196255   5.913   5.565  14.479
64786SOL    HW296256   5.893   5.697  14.407
64787SOL     OW96257  13.849   3.391   4.957
64787SOL    HW196258  13.844   3.325   5.026
64787SOL    HW296259  13.816   3.471   4.999
64788SOL     OW96260   4.408  13.499   8.353
64788SOL    HW196261   4.468  13.428   8.332
64788SOL    HW296262   4.440  13.574   8.303
64789SOL     OW96263   9.428   6.566   6.769
64789SOL    HW196264   9.524   6.568   6.770
64789SOL    HW296265   9.405   6.495   6.828
64790SOL     OW96266  10.021   2.475   8.946
64790SOL    HW196267  10.053   2.395   8.988
64790SOL    HW296268   9.938   2.494   8.990
64791SOL     OW96269   3.229  13.400   2.416
64791SOL    HW196270   3.153  13.383   2.361
64791SOL    HW296271   3.198  13.384   2.505
64792SOL     OW96272   9.062  11.054   0.775
64792SOL    HW196273   9.080  11.106   0.852
64792SOL    HW296274   8.968  11.038   0.778
64793SOL     OW96275   2.454  12.303   4.806
64793SOL    HW196276   2.479  12.386   4.847
64793SOL    HW296277   2.536  12.253   4.801
64794SOL     OW96278   7.690   0.127   9.977
64794SOL    HW196279   7.719   0.119  10.068
64794SOL    HW296280   7.696   0.038   9.942
64795SOL     OW96281  11.241   5.427  12.454
64795SOL    HW196282  11.178   5.364  12.488
64795SOL    HW296283  11.198   5.512  12.465
64796SOL     OW96284  14.133   8.073   3.481
64796SOL    HW196285  14.104   7.983   3.501
64796SOL    HW296286  14.146   8.113   3.567
64797SOL     OW96287  13.643   2.134   3.199
64797SOL    HW196288  13.639   2.172   3.111
64797SOL    HW296289  13.720   2.077   3.197
64798SOL     OW96290   8.863   1.202  10.585
64798SOL    HW196291   8.823   1.282  10.618
64798SOL    HW296292   8.938   1.231  10.534
64799SOL     OW96293  14.499  11.897   7.475
64799SOL    HW196294  14.474  11.902   7.568
64799SOL    HW296295  14.542  11.980   7.457
64800SOL     OW96296   5.685   4.823   7.094
64800SOL    HW196297   5.766   4.773   7.106
64800SOL    HW296298   5.656   4.802   7.006
64801SOL     OW96299  13.852   2.240   9.188
64801SOL    HW196300  13.880   2.151   9.163
64801SOL    HW296301  13.813   2.275   9.108
64802SOL     OW96302  14.294  10.026  11.793
64802SOL    HW196303  14.274   9.941  11.831
64802SOL    HW296304  14.376  10.013  11.744
64803SOL     OW96305   1.202  11.412   6.090
64803SOL    HW196306   1.111  11.406   6.120
64803SOL    HW296307   1.248  11.455   6.162
64804SOL     OW96308  13.374  13.776   7.466
64804SOL    HW196309  13.406  13.732   7.387
64804SOL    HW296310  13.279  13.762   7.464
64805SOL     OW96311  12.339  13.349   7.101
64805SOL    HW196312  12.326  13.256   7.122
64805SOL    HW296313  12.264  13.393   7.140
64806SOL     OW96314  10.541  13.593   5.889
64806SOL    HW196315  10.555  13.666   5.828
64806SOL    HW296316  10.536  13.515   5.832
64807SOL     OW96317  12.014   1.042   8.700
64807SOL    HW196318  12.020   1.001   8.786
64807SOL    HW296319  12.089   1.007   8.652
64808SOL     OW96320   0.720  11.784  12.900
64808SOL    HW196321   0.713  11.737  12.817
64808SOL    HW296322   0.808  11.763  12.932
64809SOL     OW96323  12.379  10.480  12.696
64809SOL    HW196324  12.437  10.471  12.771
64809SOL    HW296325  12.366  10.574  12.686
64810SOL     OW96326  10.350  13.112  10.151
64810SOL    HW196327  10.432  13.137  10.193
64810SOL    HW296328  10.281  13.144  10.209
64811SOL     OW96329  10.505   9.746   0.086
64811SOL    HW196330  10.423   9.765   0.041
64811SOL    HW296331  10.546   9.832   0.098
64812SOL     OW96332   5.961   1.932   4.606
64812SOL    HW196333   5.906   2.003   4.572
64812SOL    HW296334   5.904   1.885   4.667
64813SOL     OW96335  10.812  10.588  10.968
64813SOL    HW196336  10.905  10.612  10.962
64813SOL    HW296337  10.803  10.552  11.056
64814SOL     OW96338  14.153  10.035  14.047
64814SOL    HW196339  14.082   9.986  14.089
64814SOL    HW296340  14.210  10.062  14.119
64815SOL     OW96341   1.837   9.758   0.259
64815SOL    HW196342   1.777   9.833   0.261
64815SOL    HW296343   1.818   9.711   0.340
64816SOL     OW96344   5.550  14.036   9.967
64816SOL    HW196345   5.639  14.016   9.993
64816SOL    HW296346   5.548  14.132   9.960
64817SOL     OW96347   1.518  10.028  11.675
64817SOL    HW196348   1.550   9.993  11.592
64817SOL    HW296349   1.495   9.950  11.726
64818SOL     OW96350  10.446   3.945   6.680
64818SOL    HW196351  10.358   3.950   6.641
64818SOL    HW296352  10.476   4.036   6.683
64819SOL     OW96353  12.820   9.858   6.444
64819SOL    HW196354  12.828   9.939   6.392
64819SOL    HW296355  12.761   9.881   6.515
64820SOL     OW96356   4.575  11.222  11.241
64820SOL    HW196357   4.640  11.235  11.310
64820SOL    HW296358   4.624  11.183  11.168
64821SOL     OW96359   4.550   4.159  13.470
64821SOL    HW196360   4.613   4.230  13.457
64821SOL    HW296361   4.547   4.114  13.386
64822SOL     OW96362   1.032   0.360   7.923
64822SOL    HW196363   1.120   0.350   7.959
64822SOL    HW296364   0.980   0.394   7.996
64823SOL     OW96365   3.193   0.724   4.306
64823SOL    HW196366   3.134   0.715   4.231
64823SOL    HW296367   3.246   0.645   4.304
64824SOL     OW96368   5.657   4.305  11.014
64824SOL    HW196369   5.700   4.376  10.965
64824SOL    HW296370   5.727   4.242  11.031
64825SOL     OW96371  11.184   1.302   6.055
64825SOL    HW196372  11.140   1.317   5.971
64825SOL    HW296373  11.275   1.327   6.040
64826SOL     OW96374   5.202  11.039   5.871
64826SOL    HW196375   5.219  11.106   5.804
64826SOL    HW296376   5.199  10.957   5.822
64827SOL     OW96377   9.132  14.734   2.231
64827SOL    HW196378   9.118  14.763   2.321
64827SOL    HW296379   9.053  14.685   2.209
64828SOL     OW96380   3.273   5.800   2.384
64828SOL    HW196381   3.185   5.811   2.420
64828SOL    HW296382   3.269   5.718   2.335
64829SOL     OW96383   2.131  10.604  13.168
64829SOL    HW196384   2.191  10.547  13.121
64829SOL    HW296385   2.056  10.614  13.110
64830SOL     OW96386  13.778  11.675  13.106
64830SOL    HW196387  13.718  11.744  13.134
64830SOL    HW296388  13.855  11.722  13.074
64831SOL     OW96389  11.626   8.867   0.599
64831SOL    HW196390  11.627   8.961   0.582
64831SOL    HW296391  11.704   8.834   0.554
64832SOL     OW96392   0.905  10.635   5.194
64832SOL    HW196393   0.838  10.698   5.166
64832SOL    HW296394   0.860  10.551   5.191
64833SOL     OW96395  14.803   0.624   1.050
64833SOL    HW196396  14.721   0.648   1.092
64833SOL    HW296397  14.871   0.654   1.109
64834SOL     OW96398   8.878   3.828   7.498
64834SOL    HW196399   8.838   3.913   7.511
64834SOL    HW296400   8.972   3.846   7.493
64835SOL     OW96401   4.289   7.184   1.392
64835SOL    HW196402   4.203   7.149   1.370
64835SOL    HW296403   4.282   7.208   1.484
64836SOL     OW96404   9.292   5.356  11.850
64836SOL    HW196405   9.351   5.422  11.886
64836SOL    HW296406   9.271   5.387  11.763
64837SOL     OW96407   3.271   4.522   9.187
64837SOL    HW196408   3.285   4.429   9.169
64837SOL    HW296409   3.195   4.524   9.246
64838SOL     OW96410   6.665  12.497   9.438
64838SOL    HW196411   6.671  12.591   9.454
64838SOL    HW296412   6.688  12.486   9.346
64839SOL     OW96413   2.041   8.285   0.702
64839SOL    HW196414   1.954   8.320   0.678
64839SOL    HW296415   2.026   8.192   0.716
64840SOL     OW96416   6.075   4.021  13.533
64840SOL    HW196417   6.031   4.013  13.449
64840SOL    HW296418   6.097   3.931  13.558
64841SOL     OW96419   6.502   4.260   9.240
64841SOL    HW196420   6.588   4.237   9.202
64841SOL    HW296421   6.440   4.244   9.169
64842SOL     OW96422   9.061   9.819  14.516
64842SOL    HW196423   9.128   9.886  14.529
64842SOL    HW296424   8.987   9.867  14.478
64843SOL     OW96425   3.350  11.085   6.771
64843SOL    HW196426   3.424  11.027   6.791
64843SOL    HW296427   3.350  11.149   6.842
64844SOL     OW96428  14.394   5.801  10.662
64844SOL    HW196429  14.485   5.828  10.648
64844SOL    HW296430  14.396   5.756  10.747
64845SOL     OW96431   5.255   4.507   1.263
64845SOL    HW196432   5.253   4.461   1.347
64845SOL    HW296433   5.216   4.592   1.282
64846SOL     OW96434   8.445  14.755   8.762
64846SOL    HW196435   8.504  14.812   8.811
64846SOL    HW296436   8.465  14.667   8.794
64847SOL     OW96437   3.263  12.990  13.472
64847SOL    HW196438   3.350  12.955  13.456
64847SOL    HW296439   3.259  13.004  13.567
64848SOL     OW96440   5.042  12.400   1.457
64848SOL    HW196441   5.107  12.339   1.491
64848SOL    HW296442   5.050  12.478   1.511
64849SOL     OW96443   9.719   4.134   0.077
64849SOL    HW196444   9.689   4.175  14.878
64849SOL    HW296445   9.664   4.056   0.087
64850SOL     OW96446  11.344   7.207  10.738
64850SOL    HW196447  11.323   7.217  10.645
64850SOL    HW296448  11.266   7.241  10.783
64851SOL     OW96449  11.054  14.187   4.613
64851SOL    HW196450  11.058  14.228   4.527
64851SOL    HW296451  11.136  14.137   4.619
64852SOL     OW96452  13.384  13.976  11.747
64852SOL    HW196453  13.428  13.896  11.776
64852SOL    HW296454  13.363  13.960  11.655
64853SOL     OW96455  10.139  13.666  11.479
64853SOL    HW196456  10.103  13.637  11.563
64853SOL    HW296457  10.084  13.623  11.414
64854SOL     OW96458  10.863   3.460   3.373
64854SOL    HW196459  10.859   3.437   3.466
64854SOL    HW296460  10.936   3.522   3.367
64855SOL     OW96461  12.551   0.801   2.258
64855SOL    HW196462  12.493   0.846   2.319
64855SOL    HW296463  12.629   0.856   2.253
64856SOL     OW96464  11.446   1.844   2.630
64856SOL    HW196465  11.354   1.836   2.604
64856SOL    HW296466  11.477   1.754   2.638
64857SOL     OW96467   5.134   8.313   7.056
64857SOL    HW196468   5.140   8.308   7.151
64857SOL    HW296469   5.223   8.329   7.026
64858SOL     OW96470  11.697   6.060   9.161
64858SOL    HW196471  11.664   6.099   9.242
64858SOL    HW296472  11.652   5.976   9.155
64859SOL     OW96473   3.389  10.271   0.745
64859SOL    HW196474   3.426  10.359   0.740
64859SOL    HW296475   3.437  10.229   0.817
64860SOL     OW96476   9.540   6.606  12.289
64860SOL    HW196477   9.516   6.659  12.213
64860SOL    HW296478   9.629   6.576  12.271
64861SOL     OW96479  10.764   6.654   3.495
64861SOL    HW196480  10.734   6.721   3.435
64861SOL    HW296481  10.686   6.629   3.545
64862SOL     OW96482   6.466   3.436   3.464
64862SOL    HW196483   6.445   3.365   3.403
64862SOL    HW296484   6.444   3.516   3.416
64863SOL     OW96485   0.501   9.782   6.544
64863SOL    HW196486   0.593   9.791   6.522
64863SOL    HW296487   0.455   9.838   6.482
64864SOL     OW96488   6.004   0.698  11.845
64864SOL    HW196489   5.997   0.749  11.926
64864SOL    HW296490   5.974   0.610  11.870
64865SOL     OW96491   4.112   2.756   9.116
64865SOL    HW196492   4.104   2.695   9.190
64865SOL    HW296493   4.146   2.702   9.045
64866SOL     OW96494  14.685  11.185   5.378
64866SOL    HW196495  14.744  11.181   5.453
64866SOL    HW296496  14.624  11.113   5.392
64867SOL     OW96497  12.659  13.075  12.781
64867SOL    HW196498  12.686  13.096  12.871
64867SOL    HW296499  12.731  13.024  12.745
64868SOL     OW96500   0.600   7.467  11.470
64868SOL    HW196501   0.597   7.371  11.480
64868SOL    HW296502   0.684   7.483  11.427
64869SOL     OW96503   9.500  12.431   0.403
64869SOL    HW196504   9.510  12.376   0.480
64869SOL    HW296505   9.505  12.370   0.329
64870SOL     OW96506   8.137  13.951   4.504
64870SOL    HW196507   8.074  13.937   4.434
64870SOL    HW296508   8.177  14.036   4.484
64871SOL     OW96509   9.833   7.373   5.712
64871SOL    HW196510   9.781   7.418   5.778
64871SOL    HW296511   9.919   7.413   5.718
64872SOL     OW96512   5.110   9.259   3.130
64872SOL    HW196513   5.173   9.278   3.060
64872SOL    HW296514   5.152   9.292   3.209
64873SOL     OW96515   0.421   0.220  10.239
64873SOL    HW196516   0.351   0.167  10.277
64873SOL    HW296517   0.443   0.176  10.157
64874SOL     OW96518   3.533   0.408  13.890
64874SOL    HW196519   3.459   0.399  13.950
64874SOL    HW296520   3.503   0.367  13.809
64875SOL     OW96521   0.286  13.047  13.585
64875SOL    HW196522   0.250  13.135  13.568
64875SOL    HW296523   0.265  13.031  13.677
64876SOL     OW96524   9.229   5.951   1.227
64876SOL    HW196525   9.206   5.991   1.311
64876SOL    HW296526   9.191   5.863   1.230
64877SOL     OW96527   9.458   5.548   1.915
64877SOL    HW196528   9.396   5.496   1.967
64877SOL    HW296529   9.485   5.618   1.974
64878SOL     OW96530  10.717   2.320   0.819
64878SOL    HW196531  10.698   2.314   0.725
64878SOL    HW296532  10.733   2.414   0.834
64879SOL     OW96533   2.358  13.049   0.426
64879SOL    HW196534   2.309  13.012   0.352
64879SOL    HW296535   2.447  13.017   0.414
64880SOL     OW96536   2.362  14.339  14.152
64880SOL    HW196537   2.370  14.306  14.063
64880SOL    HW296538   2.296  14.408  14.147
64881SOL     OW96539  10.659   9.727   4.442
64881SOL    HW196540  10.582   9.776   4.413
64881SOL    HW296541  10.636   9.697   4.530
64882SOL     OW96542   3.704  11.903   1.790
64882SOL    HW196543   3.675  11.859   1.710
64882SOL    HW296544   3.646  11.871   1.858
64883SOL     OW96545   7.885   6.125  13.854
64883SOL    HW196546   7.927   6.097  13.773
64883SOL    HW296547   7.803   6.076  13.857
64884SOL     OW96548   6.771   6.577   6.981
64884SOL    HW196549   6.823   6.645   7.024
64884SOL    HW296550   6.803   6.577   6.891
64885SOL     OW96551   4.805   9.113   9.471
64885SOL    HW196552   4.719   9.149   9.496
64885SOL    HW296553   4.809   9.126   9.376
64886SOL     OW96554   9.102   2.019   3.504
64886SOL    HW196555   9.092   2.026   3.599
64886SOL    HW296556   9.146   2.100   3.479
64887SOL     OW96557  11.221   5.567   6.424
64887SOL    HW196558  11.309   5.604   6.439
64887SOL    HW296559  11.230   5.516   6.343
64888SOL     OW96560   4.630   0.050   6.968
64888SOL    HW196561   4.603   0.091   7.051
64888SOL    HW296562   4.580   0.096   6.901
64889SOL     OW96563   6.322  11.390   5.560
64889SOL    HW196564   6.241  11.338   5.558
64889SOL    HW296565   6.299  11.467   5.611
64890SOL     OW96566   7.254   0.400   5.456
64890SOL    HW196567   7.261   0.487   5.416
64890SOL    HW296568   7.161   0.392   5.478
64891SOL     OW96569  13.734  11.280   9.082
64891SOL    HW196570  13.743  11.214   9.151
64891SOL    HW296571  13.741  11.364   9.128
64892SOL     OW96572   3.603   3.421  14.623
64892SOL    HW196573   3.532   3.467  14.666
64892SOL    HW296574   3.682   3.448  14.669
64893SOL     OW96575   0.991   3.839   2.702
64893SOL    HW196576   0.995   3.783   2.625
64893SOL    HW296577   1.024   3.784   2.773
64894SOL     OW96578   2.879   9.410   0.318
64894SOL    HW196579   2.820   9.444   0.385
64894SOL    HW296580   2.820   9.376   0.250
64895SOL     OW96581  11.545   2.175   7.666
64895SOL    HW196582  11.616   2.225   7.705
64895SOL    HW296583  11.479   2.170   7.735
64896SOL     OW96584   8.003  13.498  13.162
64896SOL    HW196585   7.934  13.506  13.096
64896SOL    HW296586   8.080  13.537  13.122
64897SOL     OW96587   8.227  10.535  13.380
64897SOL    HW196588   8.242  10.627  13.360
64897SOL    HW296589   8.281  10.488  13.317
64898SOL     OW96590  13.216   7.116   0.789
64898SOL    HW196591  13.264   7.199   0.799
64898SOL    HW296592  13.197   7.088   0.878
64899SOL     OW96593   9.678  11.073  13.100
64899SOL    HW196594   9.614  11.003  13.083
64899SOL    HW296595   9.664  11.134  13.028
64900SOL     OW96596  11.363  14.412  10.087
64900SOL    HW196597  11.336  14.448  10.003
64900SOL    HW296598  11.284  14.410  10.140
64901SOL     OW96599   6.046   4.798   7.175
64901SOL    HW196600   6.123   4.767   7.223
64901SOL    HW296601   5.982   4.727   7.185
64902SOL     OW96602  11.751  13.910   6.166
64902SOL    HW196603  11.821  13.887   6.105
64902SOL    HW296604  11.793  13.967   6.230
64903SOL     OW96605  14.368  13.320   0.207
64903SOL    HW196606  14.435  13.297   0.142
64903SOL    HW296607  14.414  13.313   0.291
64904SOL     OW96608  14.606   1.204   0.552
64904SOL    HW196609  14.541   1.274   0.559
64904SOL    HW296610  14.566   1.129   0.598
64905SOL     OW96611  13.853   7.308   6.785
64905SOL    HW196612  13.860   7.393   6.829
64905SOL    HW296613  13.943   7.275   6.784
64906SOL     OW96614   1.953  13.218  10.445
64906SOL    HW196615   2.044  13.207  10.418
64906SOL    HW296616   1.903  13.205  10.364
64907SOL     OW96617   2.802   3.523  10.697
64907SOL    HW196618   2.811   3.570  10.779
64907SOL    HW296619   2.710   3.536  10.671
64908SOL     OW96620   3.978   7.118  14.816
64908SOL    HW196621   3.912   7.050  14.834
64908SOL    HW296622   3.937   7.199  14.845
64909SOL     OW96623  11.716   0.701   0.016
64909SOL    HW196624  11.763   0.779   0.046
64909SOL    HW296625  11.624   0.722   0.032
64910SOL     OW96626   2.177   0.775  10.221
64910SOL    HW196627   2.193   0.762  10.128
64910SOL    HW296628   2.243   0.839  10.248
64911SOL     OW96629   2.212  10.336  10.584
64911SOL    HW196630   2.292  10.387  10.568
64911SOL    HW296631   2.142  10.388  10.544
64912SOL     OW96632   4.024  14.355   8.307
64912SOL    HW196633   3.991  14.268   8.329
64912SOL    HW296634   4.064  14.387   8.389
64913SOL     OW96635   2.693   2.894   8.724
64913SOL    HW196636   2.662   2.852   8.804
64913SOL    HW296637   2.694   2.988   8.745
64914SOL     OW96638   8.201  11.326  10.924
64914SOL    HW196639   8.238  11.407  10.888
64914SOL    HW296640   8.120  11.314  10.875
64915SOL     OW96641  12.390   3.480   2.625
64915SOL    HW196642  12.367   3.393   2.658
64915SOL    HW296643  12.306   3.521   2.605
64916SOL     OW96644  14.041  10.802  11.670
64916SOL    HW196645  13.978  10.820  11.741
64916SOL    HW296646  14.019  10.867  11.603
64917SOL     OW96647  10.568   8.853   5.048
64917SOL    HW196648  10.558   8.873   4.955
64917SOL    HW296649  10.654   8.888   5.070
64918SOL     OW96650   1.793   8.692   3.203
64918SOL    HW196651   1.739   8.734   3.270
64918SOL    HW296652   1.851   8.762   3.172
64919SOL     OW96653   4.123   8.979   7.218
64919SOL    HW196654   4.161   9.029   7.290
64919SOL    HW296655   4.051   8.930   7.259
64920SOL     OW96656  10.165   9.116   6.159
64920SOL    HW196657  10.211   9.191   6.122
64920SOL    HW296658  10.234   9.052   6.179
64921SOL     OW96659   6.965   4.965   7.751
64921SOL    HW196660   6.889   4.976   7.694
64921SOL    HW296661   7.023   4.906   7.703
64922SOL     OW96662   5.558  11.203  14.638
64922SOL    HW196663   5.552  11.231  14.730
64922SOL    HW296664   5.629  11.256  14.602
64923SOL     OW96665   4.072  10.596   1.160
64923SOL    HW196666   4.159  10.635   1.169
64923SOL    HW296667   4.087  10.514   1.113
64924SOL     OW96668   1.705   7.599  10.681
64924SOL    HW196669   1.707   7.505  10.697
64924SOL    HW296670   1.794   7.628  10.700
64925SOL     OW96671   8.779   3.400   0.978
64925SOL    HW196672   8.819   3.313   0.985
64925SOL    HW296673   8.688   3.387   1.003
64926SOL     OW96674   1.904  12.441   4.431
64926SOL    HW196675   1.865  12.469   4.348
64926SOL    HW296676   1.834  12.392   4.475
64927SOL     OW96677   3.065   6.912   1.900
64927SOL    HW196678   2.999   6.963   1.852
64927SOL    HW296679   3.061   6.825   1.861
64928SOL     OW96680   6.534   3.310   5.816
64928SOL    HW196681   6.492   3.227   5.838
64928SOL    HW296682   6.561   3.299   5.725
64929SOL     OW96683   1.892   4.578   1.308
64929SOL    HW196684   1.900   4.664   1.348
64929SOL    HW296685   1.918   4.517   1.377
64930SOL     OW96686  13.721  10.114  12.178
64930SOL    HW196687  13.729  10.182  12.112
64930SOL    HW296688  13.772  10.146  12.252
64931SOL     OW96689   7.976   6.715   5.196
64931SOL    HW196690   7.926   6.789   5.160
64931SOL    HW296691   8.059   6.753   5.223
64932SOL     OW96692  11.453   9.633   3.396
64932SOL    HW196693  11.379   9.650   3.453
64932SOL    HW296694  11.526   9.679   3.437
64933SOL     OW96695  13.600  14.383   8.381
64933SOL    HW196696  13.509  14.408   8.361
64933SOL    HW296697  13.640  14.464   8.412
64934SOL     OW96698  11.508   0.089  14.828
64934SOL    HW196699  11.480   0.051  14.745
64934SOL    HW296700  11.592   0.047  14.847
64935SOL     OW96701  12.080  10.010   7.685
64935SOL    HW196702  12.123  10.037   7.604
64935SOL    HW296703  12.128  10.056   7.754
64936SOL     OW96704  12.569  14.191   9.788
64936SOL    HW196705  12.521  14.236   9.858
64936SOL    HW296706  12.502  14.141   9.741
64937SOL     OW96707   3.597   8.439   4.335
64937SOL    HW196708   3.563   8.526   4.312
64937SOL    HW296709   3.518   8.387   4.350
64938SOL     OW96710   3.122  10.083  11.191
64938SOL    HW196711   3.097  10.105  11.281
64938SOL    HW296712   3.189  10.016  11.201
64939SOL     OW96713   5.123  10.123  13.333
64939SOL    HW196714   5.115  10.073  13.414
64939SOL    HW296715   5.111  10.058  13.264
64940SOL     OW96716   4.435   2.023   1.425
64940SOL    HW196717   4.439   1.960   1.353
64940SOL    HW296718   4.525   2.054   1.436
64941SOL     OW96719  13.747   1.564   3.717
64941SOL    HW196720  13.832   1.531   3.747
64941SOL    HW296721  13.685   1.497   3.743
64942SOL     OW96722  12.563  11.989   5.964
64942SOL    HW196723  12.530  11.903   5.938
64942SOL    HW296724  12.584  12.033   5.882
64943SOL     OW96725   2.872  14.474   3.540
64943SOL    HW196726   2.803  14.449   3.478
64943SOL    HW296727   2.899  14.561   3.511
64944SOL     OW96728   2.764   4.112  12.270
64944SOL    HW196729   2.675   4.107  12.236
64944SOL    HW296730   2.812   4.044  12.221
64945SOL     OW96731  13.795  11.655   4.773
64945SOL    HW196732  13.816  11.657   4.680
64945SOL    HW296733  13.738  11.730   4.787
64946SOL     OW96734  14.570   0.492   1.724
64946SOL    HW196735  14.560   0.453   1.811
64946SOL    HW296736  14.623   0.429   1.676
64947SOL     OW96737  12.928   4.818  11.493
64947SOL    HW196738  13.006   4.874  11.496
64947SOL    HW296739  12.963   4.729  11.494
64948SOL     OW96740   5.350   7.281  11.938
64948SOL    HW196741   5.373   7.193  11.967
64948SOL    HW296742   5.404   7.296  11.861
64949SOL     OW96743  12.633  13.012   9.526
64949SOL    HW196744  12.722  13.020   9.560
64949SOL    HW296745  12.584  13.083   9.568
64950SOL     OW96746  14.358   0.203   9.843
64950SOL    HW196747  14.451   0.205   9.865
64950SOL    HW296748  14.357   0.203   9.747
64951SOL     OW96749   8.732   4.510  10.004
64951SOL    HW196750   8.721   4.593   9.957
64951SOL    HW296751   8.673   4.449   9.958
64952SOL     OW96752  12.758   8.310  13.853
64952SOL    HW196753  12.691   8.251  13.819
64952SOL    HW296754  12.716   8.396  13.855
64953SOL     OW96755   0.484  14.782   8.514
64953SOL    HW196756   0.472  14.696   8.472
64953SOL    HW296757   0.524  14.836   8.445
64954SOL     OW96758  14.744   6.201   8.749
64954SOL    HW196759  14.753   6.125   8.807
64954SOL    HW296760  14.650   6.208   8.733
64955SOL     OW96761   7.591   0.360  13.703
64955SOL    HW196762   7.529   0.333  13.770
64955SOL    HW296763   7.605   0.453  13.718
64956SOL     OW96764   7.795  12.217   5.948
64956SOL    HW196765   7.704  12.243   5.959
64956SOL    HW296766   7.825  12.197   6.037
64957SOL     OW96767   9.253  14.827   6.886
64957SOL    HW196768   9.168  14.806   6.848
64957SOL    HW296769   9.294  14.742   6.902
64958SOL     OW96770   0.086   1.832  14.156
64958SOL    HW196771   0.127   1.801  14.075
64958SOL    HW296772   0.159   1.869  14.207
64959SOL     OW96773   0.767   3.276   2.120
64959SOL    HW196774   0.801   3.286   2.210
64959SOL    HW296775   0.682   3.320   2.121
64960SOL     OW96776  11.553   6.457  11.406
64960SOL    HW196777  11.574   6.364  11.395
64960SOL    HW296778  11.612   6.488  11.474
64961SOL     OW96779  14.433   7.422   0.457
64961SOL    HW196780  14.506   7.408   0.398
64961SOL    HW296781  14.414   7.336   0.494
64962SOL     OW96782   7.579   1.527   4.097
64962SOL    HW196783   7.619   1.610   4.124
64962SOL    HW296784   7.511   1.512   4.162
64963SOL     OW96785  14.331   1.057  14.027
64963SOL    HW196786  14.336   1.062  14.123
64963SOL    HW296787  14.240   1.031  14.009
64964SOL     OW96788  12.581   5.373  10.588
64964SOL    HW196789  12.653   5.414  10.541
64964SOL    HW296790  12.606   5.377  10.680
64965SOL     OW96791  11.883   5.256   3.569
64965SOL    HW196792  11.829   5.186   3.606
64965SOL    HW296793  11.973   5.226   3.581
64966SOL     OW96794   6.016  10.357   1.917
64966SOL    HW196795   5.990  10.434   1.967
64966SOL    HW296796   6.091  10.387   1.865
64967SOL     OW96797   2.500   4.297   4.910
64967SOL    HW196798   2.575   4.287   4.968
64967SOL    HW296799   2.433   4.239   4.947
64968SOL     OW96800   4.812   2.442   7.018
64968SOL    HW196801   4.787   2.524   6.976
64968SOL    HW296802   4.731   2.406   7.052
64969SOL     OW96803  11.411   8.539  14.833
64969SOL    HW196804  11.428   8.611   0.011
64969SOL    HW296805  11.446   8.461  14.878
64970SOL     OW96806   3.031   7.724   0.938
64970SOL    HW196807   2.946   7.723   0.893
64970SOL    HW296808   3.047   7.817   0.958
64971SOL     OW96809  12.391   2.627   8.516
64971SOL    HW196810  12.321   2.647   8.578
64971SOL    HW296811  12.351   2.633   8.430
64972SOL     OW96812   2.472   0.315   6.678
64972SOL    HW196813   2.507   0.361   6.601
64972SOL    HW296814   2.384   0.350   6.688
64973SOL     OW96815   6.324   9.226   9.834
64973SOL    HW196816   6.341   9.229   9.740
64973SOL    HW296817   6.345   9.314   9.866
64974SOL     OW96818  12.976  10.365   4.031
64974SOL    HW196819  13.032  10.341   4.105
64974SOL    HW296820  13.036  10.375   3.957
64975SOL     OW96821   5.852   9.563  10.712
64975SOL    HW196822   5.930   9.616  10.727
64975SOL    HW296823   5.859   9.491  10.775
64976SOL     OW96824   8.408   1.441   2.053
64976SOL    HW196825   8.370   1.528   2.047
64976SOL    HW296826   8.469   1.446   2.126
64977SOL     OW96827   3.460   3.017   2.102
64977SOL    HW196828   3.541   3.005   2.152
64977SOL    HW296829   3.468   3.105   2.064
64978SOL     OW96830   1.402  11.688  11.522
64978SOL    HW196831   1.377  11.631  11.449
64978SOL    HW296832   1.427  11.771  11.480
64979SOL     OW96833   1.480  13.282   2.327
64979SOL    HW196834   1.408  13.232   2.287
64979SOL    HW296835   1.514  13.224   2.395
64980SOL     OW96836   0.991   3.949   7.077
64980SOL    HW196837   1.068   3.896   7.095
64980SOL    HW296838   0.918   3.887   7.078
64981SOL     OW96839   6.585  12.709   6.292
64981SOL    HW196840   6.646  12.770   6.252
64981SOL    HW296841   6.561  12.650   6.221
64982SOL     OW96842  14.596   8.223   4.714
64982SOL    HW196843  14.581   8.259   4.627
64982SOL    HW296844  14.565   8.132   4.708
64983SOL     OW96845   0.155  12.840  13.077
64983SOL    HW196846   0.101  12.845  12.998
64983SOL    HW296847   0.102  12.791  13.139
64984SOL     OW96848   7.236   2.312   6.924
64984SOL    HW196849   7.152   2.316   6.970
64984SOL    HW296850   7.277   2.232   6.957
64985SOL     OW96851   0.150  11.331   7.853
64985SOL    HW196852   0.192  11.251   7.821
64985SOL    HW296853   0.185  11.343   7.941
64986SOL     OW96854   0.496  11.778  13.534
64986SOL    HW196855   0.520  11.864  13.569
64986SOL    HW296856   0.405  11.788  13.507
64987SOL     OW96857   1.895   7.617  14.695
64987SOL    HW196858   1.924   7.642  14.783
64987SOL    HW296859   1.871   7.524  14.702
64988SOL     OW96860   5.794   2.493  11.303
64988SOL    HW196861   5.731   2.558  11.335
64988SOL    HW296862   5.748   2.409  11.314
64989SOL     OW96863   9.847   0.582   6.920
64989SOL    HW196864   9.893   0.530   6.986
64989SOL    HW296865   9.873   0.543   6.837
64990SOL     OW96866   1.528  13.250   6.911
64990SOL    HW196867   1.523  13.275   7.003
64990SOL    HW296868   1.494  13.160   6.909
64991SOL     OW96869   8.487   8.654   5.940
64991SOL    HW196870   8.529   8.738   5.958
64991SOL    HW296871   8.444   8.666   5.855
64992SOL     OW96872   1.555   3.066   3.707
64992SOL    HW196873   1.591   2.983   3.674
64992SOL    HW296874   1.613   3.089   3.779
64993SOL     OW96875   2.088   1.933   6.565
64993SOL    HW196876   2.096   1.856   6.509
64993SOL    HW296877   2.073   2.006   6.505
64994SOL     OW96878   7.730  10.632   1.642
64994SOL    HW196879   7.804  10.576   1.619
64994SOL    HW296880   7.770  10.716   1.663
64995SOL     OW96881   0.434   9.418   7.060
64995SOL    HW196882   0.472   9.414   6.972
64995SOL    HW296883   0.438   9.510   7.084
64996SOL     OW96884  10.225  10.466   6.338
64996SOL    HW196885  10.203  10.455   6.246
64996SOL    HW296886  10.308  10.419   6.349
64997SOL     OW96887   6.080   8.165   0.787
64997SOL    HW196888   6.038   8.161   0.873
64997SOL    HW296889   6.022   8.218   0.733
64998SOL     OW96890  13.916  10.046   3.119
64998SOL    HW196891  13.869   9.990   3.182
64998SOL    HW296892  13.909  10.134   3.156
64999SOL     OW96893   2.158   5.705   0.844
64999SOL    HW196894   2.158   5.753   0.927
64999SOL    HW296895   2.067   5.703   0.817
65000SOL     OW96896   7.295   9.936  13.341
65000SOL    HW196897   7.209   9.921  13.382
65000SOL    HW296898   7.337   9.850  13.341
65001SOL     OW96899  10.573  10.105  11.814
65001SOL    HW196900  10.567  10.015  11.781
65001SOL    HW296901  10.660  10.111  11.852
65002SOL     OW96902  12.010   7.424  12.305
65002SOL    HW196903  12.016   7.358  12.236
65002SOL    HW296904  11.975   7.377  12.381
65003SOL     OW96905   2.824  14.684   0.258
65003SOL    HW196906   2.770  14.753   0.221
65003SOL    HW296907   2.914  14.711   0.241
65004SOL     OW96908   9.981   5.899   3.334
65004SOL    HW196909   9.992   5.880   3.240
65004SOL    HW296910   9.954   5.815   3.371
65005SOL     OW96911   0.823  11.671   7.537
65005SOL    HW196912   0.785  11.594   7.495
65005SOL    HW296913   0.889  11.702   7.475
65006SOL     OW96914   1.865   7.905  12.026
65006SOL    HW196915   1.844   7.922  12.118
65006SOL    HW296916   1.842   7.986  11.980
65007SOL     OW96917  14.516   6.545   1.621
65007SOL    HW196918  14.463   6.475   1.657
65007SOL    HW296919  14.505   6.618   1.682
65008SOL     OW96920   9.659  11.677   7.970
65008SOL    HW196921   9.597  11.639   7.909
65008SOL    HW296922   9.740  11.628   7.957
65009SOL     OW96923   7.352  13.880  13.713
65009SOL    HW196924   7.382  13.970  13.703
65009SOL    HW296925   7.309  13.860  13.630
65010SOL     OW96926   6.038  10.618  12.287
65010SOL    HW196927   6.067  10.598  12.198
65010SOL    HW296928   6.001  10.706  12.281
65011SOL     OW96929   9.210   3.372   5.779
65011SOL    HW196930   9.270   3.438   5.744
65011SOL    HW296931   9.216   3.299   5.718
65012SOL     OW96932  10.786   1.970   2.058
65012SOL    HW196933  10.866   1.999   2.014
65012SOL    HW296934  10.778   2.029   2.133
65013SOL     OW96935  11.720   8.867  13.241
65013SOL    HW196936  11.687   8.824  13.162
65013SOL    HW296937  11.806   8.900  13.216
65014SOL     OW96938   6.076   8.985   6.361
65014SOL    HW196939   6.046   8.951   6.277
65014SOL    HW296940   6.171   8.994   6.352
65015SOL     OW96941   9.028  12.903   8.914
65015SOL    HW196942   9.071  12.917   8.998
65015SOL    HW296943   9.083  12.950   8.850
65016SOL     OW96944  11.290   0.548   2.180
65016SOL    HW196945  11.321   0.542   2.270
65016SOL    HW296946  11.326   0.631   2.147
65017SOL     OW96947   3.258   1.861   3.205
65017SOL    HW196948   3.166   1.887   3.206
65017SOL    HW296949   3.306   1.942   3.220
65018SOL     OW96950  11.674   7.512  13.593
65018SOL    HW196951  11.630   7.597  13.588
65018SOL    HW296952  11.637   7.471  13.671
65019SOL     OW96953   9.253   1.333   9.954
65019SOL    HW196954   9.170   1.370   9.923
65019SOL    HW296955   9.237   1.309  10.045
65020SOL     OW96956   3.316  10.821  11.410
65020SOL    HW196957   3.271  10.793  11.330
65020SOL    HW296958   3.300  10.749  11.472
65021SOL     OW96959   1.351  14.164   9.724
65021SOL    HW196960   1.345  14.137   9.816
65021SOL    HW296961   1.391  14.089   9.679
65022SOL     OW96962   4.705   7.015  10.807
65022SOL    HW196963   4.694   7.096  10.757
65022SOL    HW296964   4.670   7.035  10.894
65023SOL     OW96965  14.023  14.041   1.539
65023SOL    HW196966  13.948  14.000   1.582
65023SOL    HW296967  14.041  13.984   1.464
65024SOL     OW96968  13.254   0.579   1.302
65024SOL    HW196969  13.314   0.604   1.373
65024SOL    HW296970  13.203   0.506   1.338
65025SOL     OW96971  13.930   1.329   3.428
65025SOL    HW196972  13.979   1.295   3.503
65025SOL    HW296973  13.842   1.346   3.463
65026SOL     OW96974   8.420   1.321   7.036
65026SOL    HW196975   8.445   1.258   7.103
65026SOL    HW296976   8.354   1.376   7.078
65027SOL     OW96977  13.228   3.654   3.279
65027SOL    HW196978  13.279   3.587   3.325
65027SOL    HW296979  13.224   3.623   3.189
65028SOL     OW96980   9.288   0.048  12.371
65028SOL    HW196981   9.258   0.109  12.304
65028SOL    HW296982   9.326  14.857  12.323
65029SOL     OW96983  11.580   0.719  14.133
65029SOL    HW196984  11.601   0.747  14.044
65029SOL    HW296985  11.662   0.728  14.181
65030SOL     OW96986   7.612   5.940   7.828
65030SOL    HW196987   7.587   5.981   7.746
65030SOL    HW296988   7.639   6.013   7.884
65031SOL     OW96989  13.208   4.748   2.077
65031SOL    HW196990  13.113   4.756   2.066
65031SOL    HW296991  13.237   4.838   2.095
65032SOL     OW96992   5.895   6.140   4.930
65032SOL    HW196993   5.964   6.134   4.864
65032SOL    HW296994   5.941   6.164   5.010
65033SOL     OW96995  11.188  10.489   5.485
65033SOL    HW196996  11.205  10.522   5.573
65033SOL    HW296997  11.093  10.499   5.473
65034SOL     OW96998  13.893   2.297   8.547
65034SOL    HW196999  13.893   2.376   8.493
65034SOL    HW297000  13.865   2.227   8.486
65035SOL     OW97001  10.355   8.646  10.423
65035SOL    HW197002  10.413   8.660  10.497
65035SOL    HW297003  10.267   8.663  10.457
65036SOL     OW97004   2.112  13.555   5.757
65036SOL    HW197005   2.120  13.650   5.770
65036SOL    HW297006   2.185  13.518   5.807
65037SOL     OW97007   7.391  10.903  12.779
65037SOL    HW197008   7.333  10.978  12.768
65037SOL    HW297009   7.354  10.853  12.852
65038SOL     OW97010   7.706   5.030   6.006
65038SOL    HW197011   7.723   4.949   5.958
65038SOL    HW297012   7.666   5.088   5.941
65039SOL     OW97013  13.473   8.773   1.674
65039SOL    HW197014  13.399   8.719   1.646
65039SOL    HW297015  13.492   8.829   1.598
65040SOL     OW97016  13.560   0.445  11.503
65040SOL    HW197017  13.482   0.400  11.472
65040SOL    HW297018  13.583   0.506  11.432
65041SOL     OW97019   5.341   8.108  10.488
65041SOL    HW197020   5.310   8.062  10.410
65041SOL    HW297021   5.362   8.196  10.456
65042SOL     OW97022   7.025  12.324  12.279
65042SOL    HW197023   7.011  12.368  12.363
65042SOL    HW297024   7.098  12.371  12.239
65043SOL     OW97025   5.758  10.466   9.472
65043SOL    HW197026   5.787  10.456   9.381
65043SOL    HW297027   5.722  10.380   9.496
65044SOL     OW97028   2.413   4.279   9.783
65044SOL    HW197029   2.421   4.243   9.871
65044SOL    HW297030   2.337   4.336   9.787
65045SOL     OW97031   7.127   0.659  10.363
65045SOL    HW197032   7.105   0.658  10.457
65045SOL    HW297033   7.071   0.728  10.327
65046SOL     OW97034   2.321   9.043  11.492
65046SOL    HW197035   2.394   9.010  11.440
65046SOL    HW297036   2.340   9.015  11.581
65047SOL     OW97037   2.505   6.203   7.623
65047SOL    HW197038   2.442   6.179   7.556
65047SOL    HW297039   2.484   6.146   7.697
65048SOL     OW97040  11.794   6.891  14.712
65048SOL    HW197041  11.841   6.808  14.699
65048SOL    HW297042  11.713   6.866  14.756
65049SOL     OW97043  12.301  10.607   7.872
65049SOL    HW197044  12.298  10.580   7.780
65049SOL    HW297045  12.218  10.576   7.908
65050SOL     OW97046   2.637   8.737  14.120
65050SOL    HW197047   2.709   8.674  14.120
65050SOL    HW297048   2.577   8.705  14.053
65051SOL     OW97049  12.204   2.476  11.251
65051SOL    HW197050  12.224   2.512  11.164
65051SOL    HW297051  12.123   2.520  11.277
65052SOL     OW97052  12.529   4.584  11.106
65052SOL    HW197053  12.444   4.583  11.150
65052SOL    HW297054  12.577   4.656  11.147
65053SOL     OW97055   3.018   9.290   7.967
65053SOL    HW197056   2.961   9.367   7.972
65053SOL    HW297057   3.086   9.315   7.904
65054SOL     OW97058  12.490   8.540  10.492
65054SOL    HW197059  12.446   8.470  10.541
65054SOL    HW297060  12.545   8.584  10.556
65055SOL     OW97061   6.309  10.241   4.544
65055SOL    HW197062   6.337  10.151   4.558
65055SOL    HW297063   6.266  10.240   4.458
65056SOL     OW97064   4.851   3.631  10.709
65056SOL    HW197065   4.840   3.705  10.648
65056SOL    HW297066   4.890   3.562  10.655
65057SOL     OW97067   7.280   7.894   5.746
65057SOL    HW197068   7.369   7.912   5.777
65057SOL    HW297069   7.288   7.817   5.690
65058SOL     OW97070  10.530   8.606   5.153
65058SOL    HW197071  10.527   8.681   5.094
65058SOL    HW297072  10.488   8.637   5.234
65059SOL     OW97073  10.409   1.166   9.758
65059SOL    HW197074  10.475   1.127   9.815
65059SOL    HW297075  10.448   1.249   9.730
65060SOL     OW97076   2.056   2.117   7.499
65060SOL    HW197077   2.117   2.069   7.442
65060SOL    HW297078   2.107   2.138   7.577
65061SOL     OW97079   1.276   5.059   2.809
65061SOL    HW197080   1.213   5.080   2.878
65061SOL    HW297081   1.269   4.964   2.797
65062SOL     OW97082   9.689   1.861   3.490
65062SOL    HW197083   9.773   1.884   3.450
65062SOL    HW297084   9.711   1.801   3.561
65063SOL     OW97085   2.985   4.908   2.135
65063SOL    HW197086   3.033   4.903   2.053
65063SOL    HW297087   2.903   4.951   2.112
65064SOL     OW97088  12.535  12.582   6.692
65064SOL    HW197089  12.454  12.597   6.740
65064SOL    HW297090  12.524  12.495   6.653
65065SOL     OW97091   5.867   6.338   3.205
65065SOL    HW197092   5.794   6.298   3.157
65065SOL    HW297093   5.944   6.319   3.150
65066SOL     OW97094  12.609   8.617   8.304
65066SOL    HW197095  12.630   8.551   8.370
65066SOL    HW297096  12.513   8.623   8.306
65067SOL     OW97097  13.230   9.018  14.294
65067SOL    HW197098  13.304   8.977  14.340
65067SOL    HW297099  13.269   9.092  14.247
65068SOL     OW97100   8.398   9.728  12.614
65068SOL    HW197101   8.359   9.744  12.700
65068SOL    HW297102   8.323   9.716  12.555
65069SOL     OW97103   8.392   5.299  11.308
65069SOL    HW197104   8.342   5.231  11.261
65069SOL    HW297105   8.350   5.305  11.393
65070SOL     OW97106  14.095   1.959   3.832
65070SOL    HW197107  14.164   2.017   3.864
65070SOL    HW297108  14.018   2.015   3.824
65071SOL     OW97109   1.822   3.816   0.251
65071SOL    HW197110   1.728   3.830   0.255
65071SOL    HW297111   1.832   3.726   0.219
65072SOL     OW97112   8.020   5.124  13.004
65072SOL    HW197113   8.004   5.196  13.065
65072SOL    HW297114   7.956   5.137  12.934
65073SOL     OW97115  10.115   1.521   2.209
65073SOL    HW197116  10.097   1.470   2.287
65073SOL    HW297117  10.168   1.595   2.240
65074SOL     OW97118   3.110   7.682   4.768
65074SOL    HW197119   3.076   7.767   4.738
65074SOL    HW297120   3.157   7.647   4.692
65075SOL     OW97121   7.079   4.311   0.691
65075SOL    HW197122   7.077   4.238   0.628
65075SOL    HW297123   7.149   4.368   0.659
65076SOL     OW97124   5.197   9.769   5.418
65076SOL    HW197125   5.168   9.730   5.501
65076SOL    HW297126   5.225   9.694   5.365
65077SOL     OW97127   6.305   4.996   1.429
65077SOL    HW197128   6.349   5.069   1.385
65077SOL    HW297129   6.295   4.929   1.361
65078SOL     OW97130  14.431   0.097  12.345
65078SOL    HW197131  14.408   0.006  12.326
65078SOL    HW297132  14.501   0.118  12.284
65079SOL     OW97133   5.208   9.158   1.400
65079SOL    HW197134   5.199   9.217   1.475
65079SOL    HW297135   5.131   9.101   1.406
65080SOL     OW97136   4.496  14.080   1.846
65080SOL    HW197137   4.497  14.114   1.935
65080SOL    HW297138   4.585  14.095   1.814
65081SOL     OW97139   8.209  13.334  10.942
65081SOL    HW197140   8.227  13.417  10.899
65081SOL    HW297141   8.225  13.268  10.875
65082SOL     OW97142   1.823   7.257   0.485
65082SOL    HW197143   1.770   7.289   0.411
65082SOL    HW297144   1.827   7.332   0.545
65083SOL     OW97145  10.565   8.346   6.632
65083SOL    HW197146  10.471   8.329   6.641
65083SOL    HW297147  10.583   8.414   6.697
65084SOL     OW97148  14.343   4.830   7.534
65084SOL    HW197149  14.414   4.768   7.517
65084SOL    HW297150  14.267   4.793   7.488
65085SOL     OW97151   2.814  14.788  14.620
65085SOL    HW197152   2.853  14.841  14.689
65085SOL    HW297153   2.883  14.727  14.594
65086SOL     OW97154   7.148   1.238  14.709
65086SOL    HW197155   7.212   1.169  14.693
65086SOL    HW297156   7.183   1.288  14.782
65087SOL     OW97157   9.483  12.435   2.206
65087SOL    HW197158   9.532  12.353   2.193
65087SOL    HW297159   9.490  12.481   2.122
65088SOL     OW97160   8.165   4.622   7.145
65088SOL    HW197161   8.159   4.593   7.236
65088SOL    HW297162   8.077   4.653   7.124
65089SOL     OW97163   6.579   9.595   8.260
65089SOL    HW197164   6.625   9.525   8.306
65089SOL    HW297165   6.644   9.664   8.248
65090SOL     OW97166  12.484   7.156  14.555
65090SOL    HW197167  12.467   7.131  14.464
65090SOL    HW297168  12.476   7.251  14.556
65091SOL     OW97169   5.459  10.474  11.176
65091SOL    HW197170   5.376  10.495  11.133
65091SOL    HW297171   5.444  10.388  11.216
65092SOL     OW97172  12.070  11.388  11.070
65092SOL    HW197173  12.047  11.398  11.162
65092SOL    HW297174  12.164  11.405  11.067
65093SOL     OW97175   8.740   4.356   9.197
65093SOL    HW197176   8.741   4.362   9.102
65093SOL    HW297177   8.811   4.295   9.218
65094SOL     OW97178   4.793   3.881   8.549
65094SOL    HW197179   4.734   3.888   8.624
65094SOL    HW297180   4.786   3.790   8.522
65095SOL     OW97181  14.803   3.244  13.977
65095SOL    HW197182  14.756   3.230  14.059
65095SOL    HW297183  14.748   3.304  13.928
65096SOL     OW97184  12.273   8.057   8.180
65096SOL    HW197185  12.248   7.985   8.238
65096SOL    HW297186  12.224   8.040   8.099
65097SOL     OW97187   7.555   3.296  10.528
65097SOL    HW197188   7.580   3.350  10.453
65097SOL    HW297189   7.589   3.209  10.507
65098SOL     OW97190  13.596   8.015  10.254
65098SOL    HW197191  13.519   8.072  10.254
65098SOL    HW297192  13.602   7.984  10.164
65099SOL     OW97193   3.324   1.705  13.754
65099SOL    HW197194   3.390   1.727  13.820
65099SOL    HW297195   3.262   1.778  13.757
65100SOL     OW97196   2.626  14.601  11.166
65100SOL    HW197197   2.703  14.621  11.218
65100SOL    HW297198   2.643  14.515  11.128
65101SOL     OW97199   7.361   2.880  14.191
65101SOL    HW197200   7.275   2.845  14.169
65101SOL    HW297201   7.402   2.811  14.243
65102SOL     OW97202  10.030  14.365   5.380
65102SOL    HW197203  10.111  14.414   5.366
65102SOL    HW297204  10.015  14.320   5.297
65103SOL     OW97205  12.872   5.506   2.289
65103SOL    HW197206  12.823   5.436   2.331
65103SOL    HW297207  12.857   5.583   2.344
65104SOL     OW97208  14.667   6.083   3.806
65104SOL    HW197209  14.756   6.049   3.811
65104SOL    HW297210  14.613   6.015   3.846
65105SOL     OW97211   4.364  12.483   3.888
65105SOL    HW197212   4.324  12.566   3.912
65105SOL    HW297213   4.369  12.434   3.970
65106SOL     OW97214   8.032   3.271   9.208
65106SOL    HW197215   8.040   3.246   9.300
65106SOL    HW297216   7.954   3.327   9.206
65107SOL     OW97217   3.281   0.463   4.366
65107SOL    HW197218   3.204   0.448   4.421
65107SOL    HW297219   3.334   0.384   4.376
65108SOL     OW97220   6.178  13.945   6.545
65108SOL    HW197221   6.150  14.020   6.597
65108SOL    HW297222   6.096  13.900   6.521
65109SOL     OW97223   3.245   4.473   6.626
65109SOL    HW197224   3.171   4.516   6.583
65109SOL    HW297225   3.273   4.405   6.564
65110SOL     OW97226   0.324  14.258  12.526
65110SOL    HW197227   0.253  14.268  12.463
65110SOL    HW297228   0.345  14.165  12.525
65111SOL     OW97229   9.347   9.178  14.618
65111SOL    HW197230   9.402   9.254  14.635
65111SOL    HW297231   9.388   9.136  14.542
65112SOL     OW97232   9.714  13.916  12.867
65112SOL    HW197233   9.641  13.964  12.829
65112SOL    HW297234   9.679  13.828  12.884
65113SOL     OW97235  10.185   9.004   3.693
65113SOL    HW197236  10.249   9.075   3.692
65113SOL    HW297237  10.225   8.936   3.638
65114SOL     OW97238   0.878   8.068  14.123
65114SOL    HW197239   0.902   7.980  14.096
65114SOL    HW297240   0.958   8.119  14.112
65115SOL     OW97241   9.658   0.233  14.023
65115SOL    HW197242   9.705   0.153  14.049
65115SOL    HW297243   9.609   0.207  13.945
65116SOL     OW97244  14.563   8.689  13.724
65116SOL    HW197245  14.615   8.750  13.777
65116SOL    HW297246  14.480   8.736  13.708
65117SOL     OW97247   9.848  14.667   6.428
65117SOL    HW197248   9.800  14.592   6.394
65117SOL    HW297249   9.934  14.632   6.453
65118SOL     OW97250  11.737   7.283   2.557
65118SOL    HW197251  11.704   7.302   2.645
65118SOL    HW297252  11.764   7.367   2.522
65119SOL     OW97253   9.182  14.327   9.837
65119SOL    HW197254   9.257  14.272   9.814
65119SOL    HW297255   9.112  14.264   9.856
65120SOL     OW97256   3.761   6.775   3.095
65120SOL    HW197257   3.834   6.815   3.048
65120SOL    HW297258   3.794   6.763   3.185
65121SOL     OW97259   7.131   3.216  10.397
65121SOL    HW197260   7.091   3.219  10.484
65121SOL    HW297261   7.133   3.308  10.369
65122SOL     OW97262   3.899   9.601   1.214
65122SOL    HW197263   3.827   9.570   1.270
65122SOL    HW297264   3.866   9.682   1.175
65123SOL     OW97265  12.840   2.862   5.266
65123SOL    HW197266  12.900   2.892   5.335
65123SOL    HW297267  12.896   2.816   5.203
65124SOL     OW97268  13.797  13.023   1.741
65124SOL    HW197269  13.809  12.981   1.827
65124SOL    HW297270  13.796  13.117   1.760
65125SOL     OW97271   4.331   8.006   2.298
65125SOL    HW197272   4.317   7.920   2.260
65125SOL    HW297273   4.406   7.995   2.357
65126SOL     OW97274  14.403   3.858   9.057
65126SOL    HW197275  14.419   3.774   9.013
65126SOL    HW297276  14.415   3.923   8.988
65127SOL     OW97277   4.054   3.962   9.866
65127SOL    HW197278   4.131   4.019   9.855
65127SOL    HW297279   3.993   4.015   9.918
65128SOL     OW97280   7.642  14.559   4.661
65128SOL    HW197281   7.717  14.554   4.602
65128SOL    HW297282   7.609  14.648   4.650
65129SOL     OW97283   8.192  13.091   0.363
65129SOL    HW197284   8.278  13.131   0.367
65129SOL    HW297285   8.148  13.135   0.290
65130SOL     OW97286   0.409  10.629   4.591
65130SOL    HW197287   0.485  10.584   4.555
65130SOL    HW297288   0.411  10.716   4.551
65131SOL     OW97289  13.393  10.635  14.393
65131SOL    HW197290  13.464  10.590  14.438
65131SOL    HW297291  13.347  10.683  14.461
65132SOL     OW97292   9.946   8.303   1.831
65132SOL    HW197293   9.970   8.382   1.880
65132SOL    HW297294   9.913   8.337   1.748
65133SOL     OW97295   7.196  12.045   0.741
65133SOL    HW197296   7.187  11.953   0.765
65133SOL    HW297297   7.290  12.056   0.725
65134SOL     OW97298   2.868  10.432  10.655
65134SOL    HW197299   2.834  10.345  10.633
65134SOL    HW297300   2.793  10.490  10.646
65135SOL     OW97301   6.459   0.768   3.630
65135SOL    HW197302   6.529   0.727   3.681
65135SOL    HW297303   6.412   0.694   3.591
65136SOL     OW97304  10.150  14.293   5.902
65136SOL    HW197305  10.152  14.243   5.984
65136SOL    HW297306  10.203  14.241   5.842
65137SOL     OW97307   7.386  12.537   2.357
65137SOL    HW197308   7.474  12.560   2.384
65137SOL    HW297309   7.375  12.447   2.385
65138SOL     OW97310   2.633   4.184   0.135
65138SOL    HW197311   2.643   4.147   0.047
65138SOL    HW297312   2.625   4.278   0.121
65139SOL     OW97313   7.703   1.847  12.091
65139SOL    HW197314   7.720   1.753  12.089
65139SOL    HW297315   7.608   1.854  12.097
65140SOL     OW97316  10.697  13.063  12.567
65140SOL    HW197317  10.760  13.012  12.516
65140SOL    HW297318  10.748  13.138  12.599
65141SOL     OW97319   3.032   2.304   4.213
65141SOL    HW197320   3.050   2.395   4.237
65141SOL    HW297321   3.087   2.253   4.272
65142SOL     OW97322   9.623   9.186  10.130
65142SOL    HW197323   9.561   9.224  10.068
65142SOL    HW297324   9.577   9.183  10.213
65143SOL     OW97325  12.465   0.557   0.702
65143SOL    HW197326  12.448   0.651   0.714
65143SOL    HW297327  12.551   0.554   0.661
65144SOL     OW97328   5.858  14.024   3.493
65144SOL    HW197329   5.914  14.099   3.474
65144SOL    HW297330   5.886  13.996   3.581
65145SOL     OW97331   0.491  14.575  12.859
65145SOL    HW197332   0.581  14.609  12.863
65145SOL    HW297333   0.458  14.606  12.774
65146SOL     OW97334   1.008   2.536  12.339
65146SOL    HW197335   0.942   2.595  12.375
65146SOL    HW297336   0.982   2.523  12.248
65147SOL     OW97337   4.706   9.247   5.355
65147SOL    HW197338   4.732   9.183   5.288
65147SOL    HW297339   4.768   9.234   5.426
65148SOL     OW97340   3.320   8.343   0.317
65148SOL    HW197341   3.341   8.252   0.334
65148SOL    HW297342   3.364   8.391   0.387
65149SOL     OW97343   5.886   0.106   2.809
65149SOL    HW197344   5.861   0.125   2.899
65149SOL    HW297345   5.829   0.033   2.783
65150SOL     OW97346  11.346   2.532  10.368
65150SOL    HW197347  11.299   2.604  10.409
65150SOL    HW297348  11.386   2.571  10.290
65151SOL     OW97349  11.321   4.519   5.385
65151SOL    HW197350  11.409   4.516   5.349
65151SOL    HW297351  11.264   4.528   5.308
65152SOL     OW97352   4.460  12.061   5.087
65152SOL    HW197353   4.511  12.073   5.167
65152SOL    HW297354   4.401  11.989   5.106
65153SOL     OW97355  11.254   8.905  13.469
65153SOL    HW197356  11.327   8.843  13.465
65153SOL    HW297357  11.182   8.854  13.507
65154SOL     OW97358  14.269   4.095   1.683
65154SOL    HW197359  14.205   4.112   1.752
65154SOL    HW297360  14.303   4.007   1.703
65155SOL     OW97361   9.659  10.519   8.028
65155SOL    HW197362   9.651  10.425   8.009
65155SOL    HW297363   9.692  10.556   7.946
65156SOL     OW97364   9.272   4.967   9.808
65156SOL    HW197365   9.360   5.004   9.804
65156SOL    HW297366   9.220   5.025   9.751
65157SOL     OW97367  10.401   0.291   9.779
65157SOL    HW197368  10.453   0.293   9.698
65157SOL    HW297369  10.389   0.383   9.802
65158SOL     OW97370  12.867   2.376  14.626
65158SOL    HW197371  12.792   2.384  14.568
65158SOL    HW297372  12.927   2.317  14.580
65159SOL     OW97373  14.190   6.294   3.300
65159SOL    HW197374  14.255   6.243   3.348
65159SOL    HW297375  14.228   6.382   3.294
65160SOL     OW97376   6.568   3.030   4.992
65160SOL    HW197377   6.563   3.080   5.074
65160SOL    HW297378   6.496   3.065   4.939
65161SOL     OW97379   8.867   3.070   4.897
65161SOL    HW197380   8.843   3.030   4.981
65161SOL    HW297381   8.883   2.996   4.839
65162SOL     OW97382   2.282   3.489  13.558
65162SOL    HW197383   2.340   3.561  13.583
65162SOL    HW297384   2.267   3.503  13.464
65163SOL     OW97385  11.104  12.960   4.460
65163SOL    HW197386  11.071  12.941   4.373
65163SOL    HW297387  11.073  13.049   4.479
65164SOL     OW97388   7.965   5.539   1.997
65164SOL    HW197389   7.894   5.506   1.942
65164SOL    HW297390   7.991   5.464   2.050
65165SOL     OW97391   8.957   7.642   2.617
65165SOL    HW197392   8.993   7.577   2.677
65165SOL    HW297393   8.939   7.718   2.673
65166SOL     OW97394   0.125   4.849  10.167
65166SOL    HW197395   0.216   4.855  10.138
65166SOL    HW297396   0.128   4.870  10.260
65167SOL     OW97397   1.026   0.271   8.666
65167SOL    HW197398   0.967   0.201   8.637
65167SOL    HW297399   1.028   0.263   8.761
65168SOL     OW97400  12.592   4.756   6.272
65168SOL    HW197401  12.649   4.702   6.218
65168SOL    HW297402  12.604   4.845   6.238
65169SOL     OW97403  13.881   9.394   9.837
65169SOL    HW197404  13.959   9.354   9.799
65169SOL    HW297405  13.897   9.488   9.830
65170SOL     OW97406  11.953   2.795  13.181
65170SOL    HW197407  11.879   2.766  13.127
65170SOL    HW297408  12.030   2.758  13.139
65171SOL     OW97409   4.790   3.410  13.590
65171SOL    HW197410   4.738   3.484  13.623
65171SOL    HW297411   4.727   3.358  13.540
65172SOL     OW97412   4.139  11.870   1.796
65172SOL    HW197413   4.215  11.916   1.761
65172SOL    HW297414   4.143  11.783   1.757
65173SOL     OW97415  10.576   4.963   3.948
65173SOL    HW197416  10.585   4.961   4.044
65173SOL    HW297417  10.482   4.963   3.933
65174SOL     OW97418   9.626   4.862   3.720
65174SOL    HW197419   9.675   4.876   3.639
65174SOL    HW297420   9.628   4.767   3.733
65175SOL     OW97421  12.032   0.299  14.031
65175SOL    HW197422  12.011   0.266  13.944
65175SOL    HW297423  11.981   0.380  14.039
65176SOL     OW97424   5.919   5.713  11.135
65176SOL    HW197425   5.872   5.663  11.202
65176SOL    HW297426   5.985   5.762  11.184
65177SOL     OW97427   5.299   4.208  14.287
65177SOL    HW197428   5.384   4.199  14.329
65177SOL    HW297429   5.317   4.200  14.193
65178SOL     OW97430   5.571  11.192  12.006
65178SOL    HW197431   5.484  11.194  11.966
65178SOL    HW297432   5.555  11.185  12.100
65179SOL     OW97433   6.615   8.382   2.285
65179SOL    HW197434   6.595   8.453   2.224
65179SOL    HW297435   6.634   8.425   2.368
65180SOL     OW97436   8.263   9.458  10.089
65180SOL    HW197437   8.214   9.539  10.105
65180SOL    HW297438   8.344   9.469  10.140
65181SOL     OW97439   9.989   8.415  10.999
65181SOL    HW197440   9.973   8.492  11.054
65181SOL    HW297441  10.045   8.447  10.929
65182SOL     OW97442   4.950   1.522   3.121
65182SOL    HW197443   5.001   1.448   3.154
65182SOL    HW297444   4.973   1.595   3.178
65183SOL     OW97445  11.135   5.451   5.114
65183SOL    HW197446  11.189   5.477   5.190
65183SOL    HW297447  11.171   5.502   5.041
65184SOL     OW97448   0.783   5.499   8.979
65184SOL    HW197449   0.834   5.496   8.898
65184SOL    HW297450   0.779   5.592   9.001
65185SOL     OW97451   2.071   3.725  14.272
65185SOL    HW197452   2.014   3.650  14.288
65185SOL    HW297453   2.059   3.781  14.349
65186SOL     OW97454   4.300   3.879   5.262
65186SOL    HW197455   4.329   3.926   5.341
65186SOL    HW297456   4.242   3.810   5.295
65187SOL     OW97457   3.756   6.251  10.413
65187SOL    HW197458   3.706   6.220  10.338
65187SOL    HW297459   3.690   6.271  10.479
65188SOL     OW97460   7.979   7.838  11.214
65188SOL    HW197461   7.910   7.903  11.200
65188SOL    HW297462   8.060   7.888  11.214
65189SOL     OW97463   9.250   7.226   6.059
65189SOL    HW197464   9.193   7.203   5.985
65189SOL    HW297465   9.287   7.143   6.088
65190SOL     OW97466   2.010  14.002  13.168
65190SOL    HW197467   2.059  14.065  13.219
65190SOL    HW297468   1.996  14.045  13.083
65191SOL     OW97469   8.760  11.925   3.742
65191SOL    HW197470   8.678  11.920   3.694
65191SOL    HW297471   8.774  11.836   3.774
65192SOL     OW97472  10.628   6.067   7.704
65192SOL    HW197473  10.626   6.092   7.797
65192SOL    HW297474  10.661   5.977   7.705
65193SOL     OW97475   8.610  13.632   9.548
65193SOL    HW197476   8.604  13.726   9.533
65193SOL    HW297477   8.615  13.593   9.461
65194SOL     OW97478   3.833   3.616  10.953
65194SOL    HW197479   3.793   3.657  10.876
65194SOL    HW297480   3.811   3.675  11.025
65195SOL     OW97481   6.106   7.774   7.416
65195SOL    HW197482   6.200   7.769   7.430
65195SOL    HW297483   6.069   7.789   7.503
65196SOL     OW97484   9.135   0.657  13.665
65196SOL    HW197485   9.152   0.695  13.579
65196SOL    HW297486   9.195   0.703  13.724
65197SOL     OW97487   7.380   8.314   4.469
65197SOL    HW197488   7.394   8.409   4.473
65197SOL    HW297489   7.371   8.295   4.375
65198SOL     OW97490   7.166   1.478  13.821
65198SOL    HW197491   7.226   1.545  13.853
65198SOL    HW297492   7.179   1.479  13.726
65199SOL     OW97493  13.251  13.819  10.266
65199SOL    HW197494  13.223  13.906  10.294
65199SOL    HW297495  13.198  13.799  10.190
65200SOL     OW97496   8.130   0.912   8.845
65200SOL    HW197497   8.075   0.864   8.907
65200SOL    HW297498   8.212   0.925   8.892
65201SOL     OW97499   1.722  12.209   8.432
65201SOL    HW197500   1.650  12.267   8.455
65201SOL    HW297501   1.736  12.224   8.338
65202SOL     OW97502   3.020  10.315   8.126
65202SOL    HW197503   3.005  10.222   8.139
65202SOL    HW297504   3.047  10.323   8.035
65203SOL     OW97505   7.433   1.444  13.604
65203SOL    HW197506   7.488   1.516  13.573
65203SOL    HW297507   7.347   1.483  13.617
65204SOL     OW97508  13.714   8.891  12.061
65204SOL    HW197509  13.723   8.907  12.155
65204SOL    HW297510  13.631   8.932  12.037
65205SOL     OW97511   5.525   9.026   9.208
65205SOL    HW197512   5.472   8.975   9.146
65205SOL    HW297513   5.467   9.098   9.235
65206SOL     OW97514   0.822   8.814   5.782
65206SOL    HW197515   0.755   8.878   5.806
65206SOL    HW297516   0.773   8.732   5.769
65207SOL     OW97517  11.034   5.346   0.288
65207SOL    HW197518  10.970   5.292   0.242
65207SOL    HW297519  11.055   5.296   0.367
65208SOL     OW97520  11.074   2.394   6.266
65208SOL    HW197521  11.066   2.489   6.272
65208SOL    HW297522  10.995   2.366   6.220
65209SOL     OW97523   6.308   8.612   4.320
65209SOL    HW197524   6.246   8.589   4.389
65209SOL    HW297525   6.272   8.693   4.282
65210SOL     OW97526   4.761  13.476   0.213
65210SOL    HW197527   4.821  13.403   0.200
65210SOL    HW297528   4.815  13.554   0.201
65211SOL     OW97529   8.702   2.738   5.582
65211SOL    HW197530   8.687   2.734   5.676
65211SOL    HW297531   8.644   2.671   5.546
65212SOL     OW97532   8.302   1.006   2.847
65212SOL    HW197533   8.392   1.035   2.862
65212SOL    HW297534   8.296   0.922   2.894
65213SOL     OW97535   8.004   3.031   8.431
65213SOL    HW197536   8.057   3.082   8.371
65213SOL    HW297537   7.963   2.964   8.377
65214SOL     OW97538   8.231   1.543   7.389
65214SOL    HW197539   8.167   1.613   7.399
65214SOL    HW297540   8.257   1.521   7.478
65215SOL     OW97541  10.428  13.734  10.678
65215SOL    HW197542  10.388  13.679  10.745
65215SOL    HW297543  10.417  13.823  10.709
65216SOL     OW97544   3.805   9.609   7.168
65216SOL    HW197545   3.859   9.604   7.247
65216SOL    HW297546   3.813   9.523   7.127
65217SOL     OW97547   8.168   3.255   2.257
65217SOL    HW197548   8.095   3.303   2.295
65217SOL    HW297549   8.131   3.171   2.230
65218SOL     OW97550   3.375  11.345   0.984
65218SOL    HW197551   3.463  11.374   1.011
65218SOL    HW297552   3.329  11.426   0.960
65219SOL     OW97553   5.844   0.218   2.099
65219SOL    HW197554   5.870   0.129   2.077
65219SOL    HW297555   5.748   0.214   2.106
65220SOL     OW97556   4.772  14.736   9.844
65220SOL    HW197557   4.724  14.818   9.853
65220SOL    HW297558   4.843  14.756   9.783
65221SOL     OW97559   8.871  13.284  11.277
65221SOL    HW197560   8.931  13.292  11.351
65221SOL    HW297561   8.818  13.207  11.297
65222SOL     OW97562  12.256   4.226   4.264
65222SOL    HW197563  12.243   4.134   4.286
65222SOL    HW297564  12.323   4.256   4.325
65223SOL     OW97565   8.849   2.760  13.432
65223SOL    HW197566   8.840   2.832  13.369
65223SOL    HW297567   8.927   2.782  13.483
65224SOL     OW97568   4.344   0.887   9.018
65224SOL    HW197569   4.319   0.807   9.065
65224SOL    HW297570   4.319   0.958   9.077
65225SOL     OW97571   4.647   1.269  10.176
65225SOL    HW197572   4.725   1.214  10.179
65225SOL    HW297573   4.676   1.350  10.133
65226SOL     OW97574  14.826   6.787   8.997
65226SOL    HW197575  14.842   6.792   9.092
65226SOL    HW297576  14.801   6.876   8.973
65227SOL     OW97577   2.632   4.602   4.259
65227SOL    HW197578   2.602   4.693   4.262
65227SOL    HW297579   2.647   4.585   4.166
65228SOL     OW97580   3.389  13.788  10.718
65228SOL    HW197581   3.371  13.865  10.663
65228SOL    HW297582   3.381  13.821  10.807
65229SOL     OW97583   0.441  14.619   5.247
65229SOL    HW197584   0.516  14.640   5.302
65229SOL    HW297585   0.365  14.651   5.296
65230SOL     OW97586   3.774  12.063   2.348
65230SOL    HW197587   3.730  12.140   2.311
65230SOL    HW297588   3.864  12.070   2.317
65231SOL     OW97589  14.150   2.057   8.266
65231SOL    HW197590  14.075   2.043   8.209
65231SOL    HW297591  14.135   1.999   8.340
65232SOL     OW97592   9.719   9.628   2.161
65232SOL    HW197593   9.624   9.618   2.170
65232SOL    HW297594   9.746   9.671   2.242
65233SOL     OW97595   2.488   6.735   5.429
65233SOL    HW197596   2.397   6.726   5.401
65233SOL    HW297597   2.494   6.680   5.507
65234SOL     OW97598  14.423   4.828  12.970
65234SOL    HW197599  14.377   4.758  13.017
65234SOL    HW297600  14.514   4.801  12.969
65235SOL     OW97601  12.860  11.799   4.923
65235SOL    HW197602  12.771  11.768   4.907
65235SOL    HW297603  12.854  11.894   4.916
65236SOL     OW97604   3.884   4.607  12.201
65236SOL    HW197605   3.943   4.682  12.196
65236SOL    HW297606   3.836   4.619  12.282
65237SOL     OW97607   7.714  12.950   9.205
65237SOL    HW197608   7.713  13.023   9.268
65237SOL    HW297609   7.622  12.925   9.195
65238SOL     OW97610   1.141   0.741  12.728
65238SOL    HW197611   1.151   0.832  12.700
65238SOL    HW297612   1.231   0.709  12.736
65239SOL     OW97613   7.877  10.756  13.702
65239SOL    HW197614   7.972  10.764  13.709
65239SOL    HW297615   7.859  10.760  13.608
65240SOL     OW97616   1.832   5.061   9.055
65240SOL    HW197617   1.819   4.971   9.085
65240SOL    HW297618   1.884   5.102   9.124
65241SOL     OW97619  14.497   8.757   6.044
65241SOL    HW197620  14.489   8.808   6.124
65241SOL    HW297621  14.433   8.797   5.984
65242SOL     OW97622   6.592   7.711   8.891
65242SOL    HW197623   6.665   7.700   8.830
65242SOL    HW297624   6.548   7.626   8.892
65243SOL     OW97625  10.033  14.797  11.234
65243SOL    HW197626  10.088  14.813  11.311
65243SOL    HW297627   9.946  14.828  11.260
65244SOL     OW97628   6.207   3.551   8.836
65244SOL    HW197629   6.207   3.567   8.741
65244SOL    HW297630   6.160   3.468   8.846
65245SOL     OW97631   2.446  10.479  11.226
65245SOL    HW197632   2.457  10.434  11.142
65245SOL    HW297633   2.535  10.502  11.253
65246SOL     OW97634   0.739   4.558   3.633
65246SOL    HW197635   0.690   4.481   3.659
65246SOL    HW297636   0.760   4.602   3.716
65247SOL     OW97637   2.664   0.593   6.605
65247SOL    HW197638   2.736   0.541   6.643
65247SOL    HW297639   2.635   0.649   6.677
65248SOL     OW97640  13.744   8.575   8.380
65248SOL    HW197641  13.767   8.586   8.287
65248SOL    HW297642  13.719   8.663   8.409
65249SOL     OW97643  12.016   9.978   8.724
65249SOL    HW197644  11.922   9.969   8.736
65249SOL    HW297645  12.035  10.070   8.742
65250SOL     OW97646  10.481   9.717  13.691
65250SOL    HW197647  10.485   9.655  13.619
65250SOL    HW297648  10.387   9.726  13.709
65251SOL     OW97649   5.048   6.270  11.900
65251SOL    HW197650   5.114   6.211  11.936
65251SOL    HW297651   5.096   6.352  11.886
65252SOL     OW97652  13.528   4.918  10.910
65252SOL    HW197653  13.455   4.856  10.899
65252SOL    HW297654  13.584   4.877  10.976
65253SOL     OW97655   8.158   1.873   4.347
65253SOL    HW197656   8.188   1.950   4.298
65253SOL    HW297657   8.066   1.862   4.322
65254SOL     OW97658   5.126  11.212  14.660
65254SOL    HW197659   5.107  11.222  14.753
65254SOL    HW297660   5.105  11.121  14.640
65255SOL     OW97661  12.067   2.572   5.567
65255SOL    HW197662  12.049   2.659   5.602
65255SOL    HW297663  12.051   2.580   5.473
65256SOL     OW97664   3.956  12.565   2.604
65256SOL    HW197665   3.977  12.658   2.615
65256SOL    HW297666   3.932  12.556   2.511
65257SOL     OW97667  11.039   4.077  14.052
65257SOL    HW197668  10.949   4.052  14.073
65257SOL    HW297669  11.060   4.025  13.974
65258SOL     OW97670   2.873  10.690  13.069
65258SOL    HW197671   2.923  10.769  13.049
65258SOL    HW297672   2.930  10.639  13.127
65259SOL     OW97673  12.527  13.223  13.659
65259SOL    HW197674  12.608  13.195  13.617
65259SOL    HW297675  12.497  13.298  13.608
65260SOL     OW97676   6.983   5.870  10.229
65260SOL    HW197677   7.038   5.805  10.186
65260SOL    HW297678   7.015   5.955  10.198
65261SOL     OW97679   4.797  10.680  13.080
65261SOL    HW197680   4.777  10.690  13.173
65261SOL    HW297681   4.875  10.734  13.067
65262SOL     OW97682   3.425  11.349  10.100
65262SOL    HW197683   3.413  11.254  10.100
65262SOL    HW297684   3.339  11.384  10.075
65263SOL     OW97685   0.515  10.870  12.866
65263SOL    HW197686   0.461  10.941  12.833
65263SOL    HW297687   0.601  10.885  12.825
65264SOL     OW97688  13.050  10.514   9.256
65264SOL    HW197689  13.076  10.466   9.335
65264SOL    HW297690  13.075  10.456   9.184
65265SOL     OW97691  13.272   7.342   7.315
65265SOL    HW197692  13.306   7.427   7.342
65265SOL    HW297693  13.320   7.321   7.235
65266SOL     OW97694  10.915   1.426   2.054
65266SOL    HW197695  10.838   1.369   2.066
65266SOL    HW297696  10.896   1.503   2.107
65267SOL     OW97697   2.652   4.535   5.807
65267SOL    HW197698   2.707   4.490   5.871
65267SOL    HW297699   2.597   4.466   5.770
65268SOL     OW97700  14.874   3.966  13.375
65268SOL    HW197701  14.825   4.009  13.305
65268SOL    HW297702  14.806   3.931  13.433
65269SOL     OW97703   2.430   8.301  11.352
65269SOL    HW197704   2.356   8.357  11.328
65269SOL    HW297705   2.505   8.361  11.354
65270SOL     OW97706   4.382   6.658  11.143
65270SOL    HW197707   4.421   6.653  11.230
65270SOL    HW297708   4.290   6.635  11.156
65271SOL     OW97709   6.172   1.202   8.005
65271SOL    HW197710   6.211   1.219   8.091
65271SOL    HW297711   6.231   1.244   7.943
65272SOL     OW97712   8.497  14.763  11.057
65272SOL    HW197713   8.502  14.857  11.074
65272SOL    HW297714   8.580  14.729  11.090
65273SOL     OW97715   7.047   7.928   9.487
65273SOL    HW197716   6.956   7.905   9.506
65273SOL    HW297717   7.098   7.852   9.515
65274SOL     OW97718  11.737   7.278  12.458
65274SOL    HW197719  11.695   7.195  12.477
65274SOL    HW297720  11.691   7.312  12.382
65275SOL     OW97721   9.404   2.297   2.334
65275SOL    HW197722   9.418   2.391   2.346
65275SOL    HW297723   9.460   2.255   2.400
65276SOL     OW97724   8.179  13.421   0.174
65276SOL    HW197725   8.170  13.454   0.085
65276SOL    HW297726   8.134  13.336   0.173
65277SOL     OW97727   3.648   3.176   3.832
65277SOL    HW197728   3.734   3.160   3.872
65277SOL    HW297729   3.597   3.098   3.853
65278SOL     OW97730   5.671  13.260  11.648
65278SOL    HW197731   5.654  13.342  11.600
65278SOL    HW297732   5.612  13.264  11.723
65279SOL     OW97733   7.555   2.553   1.616
65279SOL    HW197734   7.510   2.618   1.563
65279SOL    HW297735   7.521   2.566   1.704
65280SOL     OW97736   3.400  11.887   3.134
65280SOL    HW197737   3.404  11.896   3.229
65280SOL    HW297738   3.330  11.824   3.119
65281SOL     OW97739   7.813   8.277   8.312
65281SOL    HW197740   7.850   8.190   8.327
65281SOL    HW297741   7.889   8.333   8.297
65282SOL     OW97742   8.932   6.702   4.198
65282SOL    HW197743   9.007   6.646   4.217
65282SOL    HW297744   8.971   6.787   4.176
65283SOL     OW97745   0.647   9.682   8.974
65283SOL    HW197746   0.595   9.698   8.896
65283SOL    HW297747   0.618   9.596   9.005
65284SOL     OW97748  13.376   2.320   1.392
65284SOL    HW197749  13.453   2.356   1.347
65284SOL    HW297750  13.319   2.289   1.322
65285SOL     OW97751   5.516   4.625   9.303
65285SOL    HW197752   5.510   4.626   9.398
65285SOL    HW297753   5.555   4.540   9.282
65286SOL     OW97754  13.479  12.506   2.706
65286SOL    HW197755  13.397  12.554   2.703
65286SOL    HW297756  13.466  12.442   2.777
65287SOL     OW97757  14.795   9.024   1.584
65287SOL    HW197758  14.875   8.974   1.599
65287SOL    HW297759  14.743   9.010   1.663
65288SOL     OW97760   7.356   1.534   8.522
65288SOL    HW197761   7.399   1.448   8.520
65288SOL    HW297762   7.375   1.568   8.610
65289SOL     OW97763   9.051   9.024   3.460
65289SOL    HW197764   9.078   9.110   3.493
65289SOL    HW297765   9.131   8.984   3.427
65290SOL     OW97766  14.837   2.306   4.924
65290SOL    HW197767  14.786   2.386   4.937
65290SOL    HW297768  14.799   2.266   4.846
65291SOL     OW97769   5.846   2.947   0.322
65291SOL    HW197770   5.917   2.967   0.261
65291SOL    HW297771   5.769   2.938   0.265
65292SOL     OW97772   4.748   1.790   1.641
65292SOL    HW197773   4.805   1.864   1.663
65292SOL    HW297774   4.798   1.712   1.666
65293SOL     OW97775   7.128   8.328   6.171
65293SOL    HW197776   7.088   8.255   6.125
65293SOL    HW297777   7.143   8.394   6.103
65294SOL     OW97778   7.904  11.666  14.147
65294SOL    HW197779   7.936  11.756  14.146
65294SOL    HW297780   7.971  11.616  14.101
65295SOL     OW97781   0.134   4.443   9.456
65295SOL    HW197782   0.144   4.538   9.451
65295SOL    HW297783   0.176   4.419   9.539
65296SOL     OW97784   1.427  12.177   1.633
65296SOL    HW197785   1.400  12.175   1.725
65296SOL    HW297786   1.405  12.090   1.600
65297SOL     OW97787   3.200   7.366  12.950
65297SOL    HW197788   3.112   7.401  12.959
65297SOL    HW297789   3.254   7.423  13.004
65298SOL     OW97790   3.243   8.612   9.443
65298SOL    HW197791   3.217   8.524   9.472
65298SOL    HW297792   3.225   8.667   9.519
65299SOL     OW97793   6.934  12.442   9.038
65299SOL    HW197794   6.920  12.497   8.961
65299SOL    HW297795   7.001  12.379   9.011
65300SOL     OW97796  14.431  12.821  13.280
65300SOL    HW197797  14.436  12.771  13.361
65300SOL    HW297798  14.463  12.761  13.212
65301SOL     OW97799   2.196  10.270   2.109
65301SOL    HW197800   2.177  10.198   2.170
65301SOL    HW297801   2.137  10.340   2.136
65302SOL     OW97802  10.605  13.838   5.263
65302SOL    HW197803  10.556  13.919   5.248
65302SOL    HW297804  10.678  13.865   5.318
65303SOL     OW97805   5.394   6.856  12.195
65303SOL    HW197806   5.303   6.833  12.214
65303SOL    HW297807   5.409   6.937  12.245
65304SOL     OW97808   8.606   8.958   1.859
65304SOL    HW197809   8.601   9.054   1.865
65304SOL    HW297810   8.560   8.926   1.936
65305SOL     OW97811   1.352   9.632  13.505
65305SOL    HW197812   1.267   9.676  13.504
65305SOL    HW297813   1.374   9.620  13.412
65306SOL     OW97814   7.488   4.053   3.756
65306SOL    HW197815   7.509   3.985   3.693
65306SOL    HW297816   7.398   4.079   3.735
65307SOL     OW97817   7.775  12.807  12.397
65307SOL    HW197818   7.688  12.821  12.359
65307SOL    HW297819   7.819  12.891  12.388
65308SOL     OW97820   4.387   5.529   8.170
65308SOL    HW197821   4.351   5.504   8.256
65308SOL    HW297822   4.382   5.449   8.118
65309SOL     OW97823   4.590  10.646   7.861
65309SOL    HW197824   4.618  10.561   7.893
65309SOL    HW297825   4.585  10.635   7.766
65310SOL     OW97826   5.586   8.687   7.916
65310SOL    HW197827   5.640   8.653   7.844
65310SOL    HW297828   5.550   8.769   7.882
65311SOL     OW97829   1.706   0.493   5.152
65311SOL    HW197830   1.699   0.553   5.226
65311SOL    HW297831   1.792   0.511   5.114
65312SOL     OW97832   4.445   4.856   3.416
65312SOL    HW197833   4.530   4.839   3.457
65312SOL    HW297834   4.459   4.937   3.367
65313SOL     OW97835   6.707   1.859   1.210
65313SOL    HW197836   6.724   1.952   1.223
65313SOL    HW297837   6.792   1.817   1.226
65314SOL     OW97838  12.925   7.095   4.908
65314SOL    HW197839  12.839   7.059   4.885
65314SOL    HW297840  12.951   7.146   4.832
65315SOL     OW97841   2.508   4.546   3.721
65315SOL    HW197842   2.533   4.555   3.813
65315SOL    HW297843   2.414   4.564   3.720
65316SOL     OW97844   9.224  14.083   7.813
65316SOL    HW197845   9.243  14.117   7.726
65316SOL    HW297846   9.283  14.008   7.823
65317SOL     OW97847  13.349   6.560   0.336
65317SOL    HW197848  13.337   6.565   0.241
65317SOL    HW297849  13.440   6.586   0.350
65318SOL     OW97850  14.766   0.896   3.945
65318SOL    HW197851  14.813   0.822   3.907
65318SOL    HW297852  14.754   0.872   4.037
65319SOL     OW97853   5.195   7.785   8.404
65319SOL    HW197854   5.223   7.697   8.430
65319SOL    HW297855   5.102   7.776   8.384
65320SOL     OW97856  12.804   3.704  11.487
65320SOL    HW197857  12.869   3.685  11.555
65320SOL    HW297858  12.721   3.673  11.523
65321SOL     OW97859   7.390   1.643  12.133
65321SOL    HW197860   7.361   1.727  12.099
65321SOL    HW297861   7.409   1.591  12.056
65322SOL     OW97862   2.098  11.156   7.914
65322SOL    HW197863   2.162  11.208   7.961
65322SOL    HW297864   2.127  11.065   7.926
65323SOL     OW97865   6.503   6.851   2.594
65323SOL    HW197866   6.533   6.883   2.680
65323SOL    HW297867   6.413   6.881   2.587
65324SOL     OW97868   1.777  10.483   1.937
65324SOL    HW197869   1.689  10.472   1.971
65324SOL    HW297870   1.834  10.454   2.007
65325SOL     OW97871   9.957   4.122  11.481
65325SOL    HW197872  10.005   4.050  11.441
65325SOL    HW297873   9.865   4.105  11.459
65326SOL     OW97874   1.602   4.639   0.298
65326SOL    HW197875   1.627   4.566   0.354
65326SOL    HW297876   1.657   4.630   0.221
65327SOL     OW97877   6.066   0.202   9.428
65327SOL    HW197878   5.973   0.188   9.412
65327SOL    HW297879   6.084   0.289   9.393
65328SOL     OW97880  11.023   6.740   4.786
65328SOL    HW197881  11.054   6.824   4.819
65328SOL    HW297882  10.930   6.738   4.807
65329SOL     OW97883   2.284   8.902  14.122
65329SOL    HW197884   2.285   8.975  14.185
65329SOL    HW297885   2.208   8.850  14.147
65330SOL     OW97886  14.756   1.399   1.779
65330SOL    HW197887  14.727   1.384   1.869
65330SOL    HW297888  14.697   1.346   1.725
65331SOL     OW97889   0.077   1.144   0.007
65331SOL    HW197890   0.064   1.229   0.048
65331SOL    HW297891   0.023   1.148  14.810
65332SOL     OW97892   5.350   3.577   6.065
65332SOL    HW197893   5.293   3.555   5.992
65332SOL    HW297894   5.300   3.553   6.143
65333SOL     OW97895  10.026  11.810  13.610
65333SOL    HW197896  10.024  11.885  13.550
65333SOL    HW297897   9.936  11.778  13.610
65334SOL     OW97898   0.084   4.139   0.048
65334SOL    HW197899   0.177   4.125   0.067
65334SOL    HW297900   0.046   4.168   0.131
65335SOL     OW97901   5.457  10.740  13.503
65335SOL    HW197902   5.523  10.783  13.558
65335SOL    HW297903   5.488  10.650  13.494
65336SOL     OW97904  10.538  12.285   4.475
65336SOL    HW197905  10.613  12.225   4.480
65336SOL    HW297906  10.500  12.269   4.389
65337SOL     OW97907   3.903   3.860   7.537
65337SOL    HW197908   3.870   3.793   7.597
65337SOL    HW297909   3.841   3.932   7.544
65338SOL     OW97910  11.581   8.504   4.069
65338SOL    HW197911  11.589   8.454   4.150
65338SOL    HW297912  11.575   8.438   4.000
65339SOL     OW97913  12.313   4.143   1.291
65339SOL    HW197914  12.325   4.063   1.341
65339SOL    HW297915  12.377   4.138   1.220
65340SOL     OW97916  10.947   6.686   8.360
65340SOL    HW197917  10.964   6.768   8.406
65340SOL    HW297918  11.003   6.622   8.404
65341SOL     OW97919   3.854  10.900   2.048
65341SOL    HW197920   3.900  10.931   1.970
65341SOL    HW297921   3.904  10.935   2.121
65342SOL     OW97922  12.443   6.577  13.725
65342SOL    HW197923  12.472   6.638  13.792
65342SOL    HW297924  12.518   6.519  13.711
65343SOL     OW97925   8.018   8.440   2.439
65343SOL    HW197926   8.001   8.505   2.370
65343SOL    HW297927   8.114   8.437   2.447
65344SOL     OW97928   0.031   3.571  11.271
65344SOL    HW197929   0.109   3.557  11.324
65344SOL    HW297930   0.023   3.491  11.219
65345SOL     OW97931  12.818   5.242   0.408
65345SOL    HW197932  12.812   5.277   0.497
65345SOL    HW297933  12.769   5.305   0.355
65346SOL     OW97934   3.806   6.013   2.971
65346SOL    HW197935   3.854   6.080   2.924
65346SOL    HW297936   3.770   5.957   2.903
65347SOL     OW97937  12.328   2.351   7.863
65347SOL    HW197938  12.308   2.321   7.951
65347SOL    HW297939  12.348   2.444   7.873
65348SOL     OW97940   0.929   3.895  11.828
65348SOL    HW197941   0.834   3.884  11.832
65348SOL    HW297942   0.954   3.915  11.919
65349SOL     OW97943   3.432   5.459   9.920
65349SOL    HW197944   3.493   5.459   9.994
65349SOL    HW297945   3.394   5.547   9.921
65350SOL     OW97946   7.480  13.841   8.564
65350SOL    HW197947   7.402  13.843   8.510
65350SOL    HW297948   7.493  13.748   8.584
65351SOL     OW97949   4.408   6.843  12.163
65351SOL    HW197950   4.378   6.927  12.128
65351SOL    HW297951   4.502   6.842  12.146
65352SOL     OW97952   3.592   9.690   9.985
65352SOL    HW197953   3.510   9.641   9.978
65352SOL    HW297954   3.567   9.781   9.972
65353SOL     OW97955   0.212   6.729  13.699
65353SOL    HW197956   0.208   6.647  13.747
65353SOL    HW297957   0.155   6.788  13.748
65354SOL     OW97958  14.190   3.142  12.092
65354SOL    HW197959  14.169   3.150  12.185
65354SOL    HW297960  14.194   3.048  12.076
65355SOL     OW97961   5.336   8.925   1.261
65355SOL    HW197962   5.363   8.979   1.187
65355SOL    HW297963   5.266   8.974   1.303
65356SOL     OW97964   5.834   4.674  12.427
65356SOL    HW197965   5.901   4.707  12.366
65356SOL    HW297966   5.846   4.727  12.506
65357SOL     OW97967  14.612   2.326   2.947
65357SOL    HW197968  14.580   2.245   2.987
65357SOL    HW297969  14.670   2.364   3.013
65358SOL     OW97970   1.124   6.254   2.603
65358SOL    HW197971   1.049   6.256   2.543
65358SOL    HW297972   1.175   6.332   2.581
65359SOL     OW97973  12.407  11.545  12.481
65359SOL    HW197974  12.483  11.596  12.454
65359SOL    HW297975  12.442  11.478  12.540
65360SOL     OW97976   1.247   1.193   2.074
65360SOL    HW197977   1.337   1.170   2.050
65360SOL    HW297978   1.257   1.244   2.155
65361SOL     OW97979   7.520  11.547   7.566
65361SOL    HW197980   7.544  11.637   7.589
65361SOL    HW297981   7.463  11.518   7.637
65362SOL     OW97982   1.631  10.217  10.970
65362SOL    HW197983   1.702  10.264  10.926
65362SOL    HW297984   1.557  10.278  10.967
65363SOL     OW97985   5.042   6.793   2.430
65363SOL    HW197986   5.085   6.709   2.448
65363SOL    HW297987   5.014   6.786   2.339
65364SOL     OW97988  10.070  11.469   0.634
65364SOL    HW197989  10.038  11.557   0.654
65364SOL    HW297990  10.138  11.453   0.699
65365SOL     OW97991   9.398  11.671  12.915
65365SOL    HW197992   9.307  11.678  12.887
65365SOL    HW297993   9.429  11.761  12.920
65366SOL     OW97994  10.531  10.207   5.539
65366SOL    HW197995  10.615  10.232   5.499
65366SOL    HW297996  10.482  10.166   5.468
65367SOL     OW97997   5.591   2.833  10.953
65367SOL    HW197998   5.496   2.834  10.967
65367SOL    HW297999   5.622   2.915  10.992
65368SOL     OW98000   7.718   1.126   8.911
65368SOL    HW198001   7.732   1.100   8.820
65368SOL    HW298002   7.805   1.152   8.942
65369SOL     OW98003  11.407   6.955  14.485
65369SOL    HW198004  11.332   6.895  14.493
65369SOL    HW298005  11.398   7.015  14.559
65370SOL     OW98006   5.446  10.615   6.880
65370SOL    HW198007   5.371  10.655   6.835
65370SOL    HW298008   5.516  10.678   6.871
65371SOL     OW98009   3.553   9.759   7.865
65371SOL    HW198010   3.603   9.824   7.817
65371SOL    HW298011   3.580   9.675   7.826
65372SOL     OW98012  13.978   5.287   3.640
65372SOL    HW198013  13.980   5.369   3.689
65372SOL    HW298014  13.916   5.303   3.569
65373SOL     OW98015   4.227   7.751   6.360
65373SOL    HW198016   4.242   7.663   6.396
65373SOL    HW298017   4.309   7.773   6.316
65374SOL     OW98018   4.986  13.367   6.408
65374SOL    HW198019   5.014  13.322   6.487
65374SOL    HW298020   5.028  13.319   6.336
65375SOL     OW98021   3.670  12.428  13.916
65375SOL    HW198022   3.624  12.443  13.834
65375SOL    HW298023   3.609  12.374  13.967
65376SOL     OW98024   5.843   4.589   7.148
65376SOL    HW198025   5.885   4.535   7.215
65376SOL    HW298026   5.810   4.527   7.083
65377SOL     OW98027  10.262   7.207   9.880
65377SOL    HW198028  10.283   7.294   9.848
65377SOL    HW298029  10.322   7.149   9.834
65378SOL     OW98030  14.062  13.993   9.453
65378SOL    HW198031  14.095  13.905   9.434
65378SOL    HW298032  13.967  13.985   9.447
65379SOL     OW98033   9.748   8.890   3.936
65379SOL    HW198034   9.770   8.798   3.925
65379SOL    HW298035   9.756   8.927   3.848
65380SOL     OW98036   8.589  11.539  14.180
65380SOL    HW198037   8.676  11.557  14.145
65380SOL    HW298038   8.530  11.547  14.104
65381SOL     OW98039   9.360  14.046  10.890
65381SOL    HW198040   9.360  14.024  10.983
65381SOL    HW298041   9.346  14.141  10.888
65382SOL     OW98042  14.074   6.697   4.582
65382SOL    HW198043  13.988   6.739   4.575
65382SOL    HW298044  14.069   6.623   4.522
65383SOL     OW98045   1.083   5.307   7.330
65383SOL    HW198046   1.024   5.285   7.257
65383SOL    HW298047   1.117   5.223   7.360
65384SOL     OW98048   1.578   8.275   0.840
65384SOL    HW198049   1.567   8.359   0.796
65384SOL    HW298050   1.663   8.281   0.884
65385SOL     OW98051   0.598   2.547   1.075
65385SOL    HW198052   0.693   2.546   1.070
65385SOL    HW298053   0.572   2.619   1.018
65386SOL     OW98054  10.146   0.873   8.975
65386SOL    HW198055  10.183   0.820   9.046
65386SOL    HW298056  10.124   0.956   9.016
65387SOL     OW98057  11.863   0.607   5.187
65387SOL    HW198058  11.914   0.618   5.107
65387SOL    HW298059  11.928   0.591   5.255
65388SOL     OW98060   3.371   2.177   0.159
65388SOL    HW198061   3.425   2.233   0.103
65388SOL    HW298062   3.403   2.195   0.248
65389SOL     OW98063  13.831   8.960   7.418
65389SOL    HW198064  13.864   9.039   7.374
65389SOL    HW298065  13.871   8.887   7.371
65390SOL     OW98066   6.528  13.390   7.949
65390SOL    HW198067   6.559  13.367   7.861
65390SOL    HW298068   6.459  13.455   7.933
65391SOL     OW98069  14.161  10.947  10.026
65391SOL    HW198070  14.081  10.930  10.077
65391SOL    HW298071  14.160  10.880   9.957
65392SOL     OW98072  12.809  13.904  11.209
65392SOL    HW198073  12.733  13.884  11.264
65392SOL    HW298074  12.780  13.884  11.120
65393SOL     OW98075  11.370   0.103   0.178
65393SOL    HW198076  11.287   0.061   0.156
65393SOL    HW298077  11.414   0.116   0.094
65394SOL     OW98078  11.972  13.149   5.301
65394SOL    HW198079  11.898  13.125   5.357
65394SOL    HW298080  11.950  13.112   5.215
65395SOL     OW98081   9.700   5.446   3.465
65395SOL    HW198082   9.636   5.516   3.477
65395SOL    HW298083   9.648   5.368   3.450
65396SOL     OW98084   2.478  13.149   0.169
65396SOL    HW198085   2.564  13.188   0.184
65396SOL    HW298086   2.488  13.057   0.191
65397SOL     OW98087   7.446   9.634   1.241
65397SOL    HW198088   7.433   9.694   1.314
65397SOL    HW298089   7.463   9.692   1.166
65398SOL     OW98090   3.778  14.287   9.052
65398SOL    HW198091   3.741  14.208   9.011
65398SOL    HW298092   3.859  14.257   9.094
65399SOL     OW98093   2.684   3.100   2.509
65399SOL    HW198094   2.707   3.177   2.562
65399SOL    HW298095   2.591   3.110   2.491
65400SOL     OW98096   3.074   5.279   1.501
65400SOL    HW198097   3.050   5.369   1.524
65400SOL    HW298098   3.009   5.225   1.546
65401SOL     OW98099   4.826   9.835   9.294
65401SOL    HW198100   4.916   9.800   9.294
65401SOL    HW298101   4.770   9.758   9.294
65402SOL     OW98102   0.617   3.309  14.275
65402SOL    HW198103   0.522   3.326  14.277
65402SOL    HW298104   0.631   3.265  14.190
65403SOL     OW98105   2.807   0.147   4.621
65403SOL    HW198106   2.840   0.186   4.540
65403SOL    HW298107   2.881   0.152   4.682
65404SOL     OW98108   7.143  13.410  14.303
65404SOL    HW198109   7.226  13.362  14.307
65404SOL    HW298110   7.130  13.428  14.210
65405SOL     OW98111  10.780  14.317  11.451
65405SOL    HW198112  10.722  14.388  11.480
65405SOL    HW298113  10.761  14.244  11.510
65406SOL     OW98114   5.627  11.499   0.728
65406SOL    HW198115   5.709  11.542   0.754
65406SOL    HW298116   5.635  11.488   0.633
65407SOL     OW98117  11.700  14.713   4.057
65407SOL    HW198118  11.710  14.619   4.068
65407SOL    HW298119  11.744  14.751   4.133
65408SOL     OW98120   5.632  13.525   9.700
65408SOL    HW198121   5.660  13.434   9.703
65408SOL    HW298122   5.540  13.523   9.727
65409SOL     OW98123   1.274   5.924   8.316
65409SOL    HW198124   1.239   5.998   8.267
65409SOL    HW298125   1.250   5.941   8.407
65410SOL     OW98126  12.098   1.972   2.742
65410SOL    HW198127  12.164   1.950   2.808
65410SOL    HW298128  12.137   1.943   2.659
65411SOL     OW98129  14.570   0.675   8.423
65411SOL    HW198130  14.634   0.723   8.370
65411SOL    HW298131  14.621   0.640   8.496
65412SOL     OW98132   4.974  11.984   3.454
65412SOL    HW198133   5.000  12.021   3.538
65412SOL    HW298134   4.887  11.946   3.470
65413SOL     OW98135  12.224   8.195  10.733
65413SOL    HW198136  12.206   8.151  10.816
65413SOL    HW298137  12.163   8.155  10.672
65414SOL     OW98138   7.646   9.357  13.806
65414SOL    HW198139   7.604   9.408  13.737
65414SOL    HW298140   7.580   9.293  13.834
65415SOL     OW98141   0.902  14.246   2.718
65415SOL    HW198142   0.850  14.166   2.721
65415SOL    HW298143   0.968  14.234   2.786
65416SOL     OW98144   8.906   9.464   7.840
65416SOL    HW198145   8.943   9.551   7.860
65416SOL    HW298146   8.818   9.482   7.807
65417SOL     OW98147   9.024   5.679   5.661
65417SOL    HW198148   8.930   5.675   5.674
65417SOL    HW298149   9.060   5.688   5.749
65418SOL     OW98150   4.186   7.604   0.877
65418SOL    HW198151   4.260   7.601   0.936
65418SOL    HW298152   4.215   7.556   0.799
65419SOL     OW98153   5.079   8.124  13.859
65419SOL    HW198154   5.116   8.157  13.777
65419SOL    HW298155   5.144   8.061  13.891
65420SOL     OW98156   7.390   6.269   5.284
65420SOL    HW198157   7.402   6.271   5.379
65420SOL    HW298158   7.295   6.271   5.272
65421SOL     OW98159  11.965   4.706  11.080
65421SOL    HW198160  12.001   4.645  11.144
65421SOL    HW298161  11.919   4.772  11.132
65422SOL     OW98162   9.529   9.881   1.755
65422SOL    HW198163   9.569   9.916   1.675
65422SOL    HW298164   9.602   9.836   1.800
65423SOL     OW98165   4.621   8.335   9.566
65423SOL    HW198166   4.623   8.336   9.470
65423SOL    HW298167   4.701   8.380   9.592
65424SOL     OW98168  13.693   4.205   0.268
65424SOL    HW198169  13.622   4.146   0.242
65424SOL    HW298170  13.772   4.166   0.229
65425SOL     OW98171   9.624   6.967   7.656
65425SOL    HW198172   9.581   6.919   7.727
65425SOL    HW298173   9.556   6.978   7.590
65426SOL     OW98174  14.813   8.173  12.724
65426SOL    HW198175  14.746   8.235  12.697
65426SOL    HW298176  14.863   8.220  12.792
65427SOL     OW98177   7.826  11.574   5.821
65427SOL    HW198178   7.802  11.551   5.911
65427SOL    HW298179   7.756  11.633   5.791
65428SOL     OW98180   6.897   2.266  14.158
65428SOL    HW198181   6.944   2.342  14.194
65428SOL    HW298182   6.941   2.248  14.075
65429SOL     OW98183   6.334   9.473  12.792
65429SOL    HW198184   6.291   9.513  12.716
65429SOL    HW298185   6.313   9.532  12.865
65430SOL     OW98186   8.713   5.507   9.554
65430SOL    HW198187   8.799   5.540   9.581
65430SOL    HW298188   8.684   5.453   9.627
65431SOL     OW98189  14.281   2.714   5.313
65431SOL    HW198190  14.260   2.764   5.234
65431SOL    HW298191  14.332   2.775   5.367
65432SOL     OW98192  14.503  14.334  12.653
65432SOL    HW198193  14.498  14.275  12.578
65432SOL    HW298194  14.576  14.300  12.705
65433SOL     OW98195  12.682   2.899   1.689
65433SOL    HW198196  12.625   2.829   1.722
65433SOL    HW298197  12.679   2.888   1.594
65434SOL     OW98198   8.968  12.326   0.464
65434SOL    HW198199   9.052  12.286   0.488
65434SOL    HW298200   8.947  12.288   0.379
65435SOL     OW98201   7.580   8.395  13.791
65435SOL    HW198202   7.523   8.423  13.862
65435SOL    HW298203   7.652   8.458  13.792
65436SOL     OW98204  12.413   2.318   9.330
65436SOL    HW198205  12.503   2.298   9.356
65436SOL    HW298206  12.371   2.232   9.323
65437SOL     OW98207   1.717   9.682   4.548
65437SOL    HW198208   1.685   9.627   4.620
65437SOL    HW298209   1.664   9.762   4.555
65438SOL     OW98210   7.839  12.395   0.782
65438SOL    HW198211   7.750  12.414   0.812
65438SOL    HW298212   7.884  12.360   0.860
65439SOL     OW98213  11.415  10.917   7.037
65439SOL    HW198214  11.411  10.983   7.105
65439SOL    HW298215  11.324  10.890   7.023
65440SOL     OW98216   2.130   6.699  10.150
65440SOL    HW198217   2.066   6.716  10.220
65440SOL    HW298218   2.165   6.785  10.128
65441SOL     OW98219   7.476   2.064   4.830
65441SOL    HW198220   7.515   2.151   4.829
65441SOL    HW298221   7.414   2.066   4.903
65442SOL     OW98222  11.043   9.452   2.399
65442SOL    HW198223  11.116   9.397   2.373
65442SOL    HW298224  11.081   9.515   2.461
65443SOL     OW98225   9.725  12.246   1.692
65443SOL    HW198226   9.643  12.197   1.680
65443SOL    HW298227   9.784  12.184   1.735
65444SOL     OW98228   0.372   6.941   0.821
65444SOL    HW198229   0.282   6.910   0.813
65444SOL    HW298230   0.419   6.897   0.750
65445SOL     OW98231   1.295   4.037  12.238
65445SOL    HW198232   1.349   4.040  12.317
65445SOL    HW298233   1.207   4.058  12.268
65446SOL     OW98234   9.831   5.782   3.527
65446SOL    HW198235   9.772   5.765   3.454
65446SOL    HW298236   9.780   5.836   3.587
65447SOL     OW98237  13.910  13.921  12.691
65447SOL    HW198238  13.973  13.854  12.716
65447SOL    HW298239  13.844  13.875  12.639
65448SOL     OW98240   8.048   8.039   4.863
65448SOL    HW198241   8.086   8.109   4.915
65448SOL    HW298242   8.056   8.068   4.773
65449SOL     OW98243   1.578   7.608   1.038
65449SOL    HW198244   1.564   7.669   1.110
65449SOL    HW298245   1.509   7.627   0.976
65450SOL     OW98246  10.524  10.322   6.955
65450SOL    HW198247  10.452  10.358   7.006
65450SOL    HW298248  10.523  10.371   6.873
65451SOL     OW98249   6.672   3.862   2.749
65451SOL    HW198250   6.745   3.860   2.811
65451SOL    HW298251   6.683   3.782   2.697
65452SOL     OW98252  14.288  14.762   4.336
65452SOL    HW198253  14.379  14.793   4.341
65452SOL    HW298254  14.295  14.667   4.324
65453SOL     OW98255   1.064   0.622   7.181
65453SOL    HW198256   1.025   0.586   7.261
65453SOL    HW298257   1.013   0.584   7.110
65454SOL     OW98258   4.890   9.890  13.770
65454SOL    HW198259   4.890   9.923  13.859
65454SOL    HW298260   4.934   9.958  13.719
65455SOL     OW98261   4.693   1.498  13.895
65455SOL    HW198262   4.766   1.560  13.886
65455SOL    HW298263   4.617   1.553  13.912
65456SOL     OW98264   3.487   7.261   3.274
65456SOL    HW198265   3.465   7.174   3.242
65456SOL    HW298266   3.426   7.275   3.347
65457SOL     OW98267   5.208  11.765  14.381
65457SOL    HW198268   5.197  11.860  14.383
65457SOL    HW298269   5.280  11.747  14.442
65458SOL     OW98270   5.712   4.126   7.986
65458SOL    HW198271   5.709   4.222   7.993
65458SOL    HW298272   5.632   4.096   8.030
65459SOL     OW98273  11.791   9.357   2.015
65459SOL    HW198274  11.761   9.267   2.023
65459SOL    HW298275  11.830   9.378   2.100
65460SOL     OW98276  12.715  10.511   7.743
65460SOL    HW198277  12.673  10.580   7.692
65460SOL    HW298278  12.743  10.446   7.679
65461SOL     OW98279   4.759   9.588  14.116
65461SOL    HW198280   4.747   9.682  14.101
65461SOL    HW298281   4.799   9.555  14.036
65462SOL     OW98282  10.929   9.205   9.034
65462SOL    HW198283  10.927   9.199   8.938
65462SOL    HW298284  10.991   9.138   9.061
65463SOL     OW98285   6.987  14.243   2.394
65463SOL    HW198286   7.055  14.176   2.388
65463SOL    HW298287   6.976  14.273   2.304
65464SOL     OW98288   3.630   4.885   7.613
65464SOL    HW198289   3.682   4.888   7.532
65464SOL    HW298290   3.684   4.928   7.678
65465SOL     OW98291  10.168   4.200   3.744
65465SOL    HW198292  10.212   4.224   3.826
65465SOL    HW298293  10.135   4.111   3.759
65466SOL     OW98294  12.145  13.462   9.634
65466SOL    HW198295  12.093  13.438   9.710
65466SOL    HW298296  12.153  13.557   9.639
65467SOL     OW98297   1.663   8.167   1.829
65467SOL    HW198298   1.663   8.136   1.738
65467SOL    HW298299   1.744   8.133   1.866
65468SOL     OW98300   7.730  12.882   5.967
65468SOL    HW198301   7.759  12.973   5.970
65468SOL    HW298302   7.693  12.871   5.880
65469SOL     OW98303  11.900   7.786  13.068
65469SOL    HW198304  11.808   7.774  13.091
65469SOL    HW298305  11.897   7.842  12.990
65470SOL     OW98306   7.402   5.913   0.595
65470SOL    HW198307   7.403   5.996   0.547
65470SOL    HW298308   7.339   5.927   0.666
65471SOL     OW98309  11.570   5.689  12.469
65471SOL    HW198310  11.605   5.764  12.518
65471SOL    HW298311  11.531   5.633  12.536
65472SOL     OW98312   0.587  10.451  13.132
65472SOL    HW198313   0.565  10.542  13.113
65472SOL    HW298314   0.514  10.419  13.185
65473SOL     OW98315  12.010   7.390   0.836
65473SOL    HW198316  11.958   7.426   0.764
65473SOL    HW298317  11.984   7.298   0.840
65474SOL     OW98318  10.543   8.717  12.802
65474SOL    HW198319  10.477   8.787  12.799
65474SOL    HW298320  10.615   8.755  12.851
65475SOL     OW98321   7.279  10.087   5.778
65475SOL    HW198322   7.259  10.147   5.706
65475SOL    HW298323   7.374  10.097   5.792
65476SOL     OW98324   5.729  13.725  14.283
65476SOL    HW198325   5.771  13.639  14.272
65476SOL    HW298326   5.728  13.762  14.195
65477SOL     OW98327  11.035  10.539   5.163
65477SOL    HW198328  10.976  10.508   5.095
65477SOL    HW298329  11.006  10.494   5.242
65478SOL     OW98330  13.729  10.703  12.956
65478SOL    HW198331  13.741  10.615  12.921
65478SOL    HW298332  13.657  10.694  13.019
65479SOL     OW98333  14.733   4.978   1.480
65479SOL    HW198334  14.708   4.894   1.442
65479SOL    HW298335  14.797   5.014   1.418
65480SOL     OW98336  14.348   2.123  12.508
65480SOL    HW198337  14.260   2.120  12.546
65480SOL    HW298338  14.336   2.173  12.427
65481SOL     OW98339   8.791   3.412   7.456
65481SOL    HW198340   8.808   3.450   7.542
65481SOL    HW298341   8.806   3.319   7.467
65482SOL     OW98342  12.698   1.103  11.945
65482SOL    HW198343  12.656   1.107  12.031
65482SOL    HW298344  12.783   1.144  11.957
65483SOL     OW98345   6.000   2.374  11.540
65483SOL    HW198346   5.976   2.354  11.630
65483SOL    HW298347   5.921   2.414  11.503
65484SOL     OW98348   4.194   5.064   8.551
65484SOL    HW198349   4.225   5.153   8.534
65484SOL    HW298350   4.272   5.016   8.577
65485SOL     OW98351   8.734   4.031   6.917
65485SOL    HW198352   8.782   4.095   6.969
65485SOL    HW298353   8.645   4.066   6.912
65486SOL     OW98354   0.303   4.530   5.432
65486SOL    HW198355   0.235   4.578   5.384
65486SOL    HW298356   0.345   4.597   5.486
65487SOL     OW98357   6.590   7.312   6.419
65487SOL    HW198358   6.557   7.395   6.452
65487SOL    HW298359   6.639   7.335   6.340
65488SOL     OW98360   0.786   3.052   9.482
65488SOL    HW198361   0.863   3.005   9.515
65488SOL    HW298362   0.720   2.984   9.469
65489SOL     OW98363  13.027  11.088   2.205
65489SOL    HW198364  12.986  11.164   2.247
65489SOL    HW298365  13.096  11.124   2.150
65490SOL     OW98366  14.475   2.561  11.723
65490SOL    HW198367  14.403   2.539  11.664
65490SOL    HW298368  14.438   2.551  11.811
65491SOL     OW98369   3.622  14.546   7.654
65491SOL    HW198370   3.703  14.576   7.696
65491SOL    HW298371   3.642  14.459   7.621
65492SOL     OW98372   2.756   3.968   3.293
65492SOL    HW198373   2.694   3.910   3.338
65492SOL    HW298374   2.714   4.054   3.297
65493SOL     OW98375   4.759   1.222   9.513
65493SOL    HW198376   4.778   1.128   9.522
65493SOL    HW298377   4.797   1.261   9.592
65494SOL     OW98378   5.949   3.693  12.102
65494SOL    HW198379   5.943   3.692  12.197
65494SOL    HW298380   5.918   3.607  12.075
65495SOL     OW98381   5.501   2.743  13.025
65495SOL    HW198382   5.431   2.739  13.090
65495SOL    HW298383   5.579   2.712  13.072
65496SOL     OW98384   7.007   7.852   5.772
65496SOL    HW198385   6.991   7.883   5.683
65496SOL    HW298386   7.103   7.851   5.780
65497SOL     OW98387   4.821  14.058  13.444
65497SOL    HW198388   4.759  14.083  13.513
65497SOL    HW298389   4.778  13.984  13.400
65498SOL     OW98390  13.905   0.552   2.647
65498SOL    HW198391  13.955   0.483   2.603
65498SOL    HW298392  13.821   0.510   2.668
65499SOL     OW98393  10.241   7.326   1.149
65499SOL    HW198394  10.234   7.299   1.057
65499SOL    HW298395  10.335   7.328   1.166
65500SOL     OW98396  13.059   0.074   6.510
65500SOL    HW198397  12.992   0.115   6.564
65500SOL    HW298398  13.071   0.134   6.436
65501SOL     OW98399   8.613   3.911   9.879
65501SOL    HW198400   8.707   3.893   9.872
65501SOL    HW298401   8.571   3.834   9.840
65502SOL     OW98402  13.547  14.250   8.771
65502SOL    HW198403  13.458  14.276   8.795
65502SOL    HW298404  13.539  14.218   8.682
65503SOL     OW98405   1.525  11.653  10.852
65503SOL    HW198406   1.552  11.562  10.851
65503SOL    HW298407   1.602  11.702  10.823
65504SOL     OW98408  12.027   3.353   0.047
65504SOL    HW198409  12.082   3.414  14.879
65504SOL    HW298410  12.068   3.267   0.034
65505SOL     OW98411  14.502  13.868   2.713
65505SOL    HW198412  14.564  13.841   2.645
65505SOL    HW298413  14.488  13.961   2.697
65506SOL     OW98414   4.620   0.242  12.244
65506SOL    HW198415   4.540   0.204  12.281
65506SOL    HW298416   4.670   0.271  12.320
65507SOL     OW98417  12.409   7.485   8.951
65507SOL    HW198418  12.319   7.518   8.946
65507SOL    HW298419  12.423   7.442   8.867
65508SOL     OW98420  14.663   8.082   6.266
65508SOL    HW198421  14.599   8.130   6.319
65508SOL    HW298422  14.671   8.134   6.186
65509SOL     OW98423   8.800  14.257   6.462
65509SOL    HW198424   8.856  14.246   6.385
65509SOL    HW298425   8.714  14.278   6.425
65510SOL     OW98426   6.613  13.176  12.174
65510SOL    HW198427   6.599  13.267  12.198
65510SOL    HW298428   6.639  13.133  12.256
65511SOL     OW98429   6.394   2.617  11.110
65511SOL    HW198430   6.356   2.677  11.174
65511SOL    HW298431   6.319   2.569  11.075
65512SOL     OW98432  13.848  10.294  11.701
65512SOL    HW198433  13.908  10.222  11.688
65512SOL    HW298434  13.904  10.372  11.705
65513SOL     OW98435   7.254   6.211  11.613
65513SOL    HW198436   7.230   6.225  11.521
65513SOL    HW298437   7.239   6.296  11.655
65514SOL     OW98438   2.696  10.350  11.888
65514SOL    HW198439   2.663  10.260  11.891
65514SOL    HW298440   2.626  10.402  11.926
65515SOL     OW98441  14.749   1.228   3.039
65515SOL    HW198442  14.789   1.143   3.059
65515SOL    HW298443  14.663   1.224   3.080
65516SOL     OW98444   3.062   3.023  11.066
65516SOL    HW198445   3.006   2.950  11.039
65516SOL    HW298446   3.081   3.006  11.158
65517SOL     OW98447   4.850   3.837   3.399
65517SOL    HW198448   4.854   3.742   3.385
65517SOL    HW298449   4.772   3.865   3.352
65518SOL     OW98450   0.296   3.758   3.444
65518SOL    HW198451   0.214   3.715   3.421
65518SOL    HW298452   0.284   3.849   3.414
65519SOL     OW98453  14.789   2.367  12.736
65519SOL    HW198454  14.773   2.273  12.743
65519SOL    HW298455  14.876   2.374  12.697
65520SOL     OW98456   8.504  12.812   8.718
65520SOL    HW198457   8.564  12.787   8.789
65520SOL    HW298458   8.417  12.795   8.754
65521SOL     OW98459   3.697   4.114  13.509
65521SOL    HW198460   3.697   4.210  13.515
65521SOL    HW298461   3.767   4.086  13.568
65522SOL     OW98462  13.002  11.439  12.310
65522SOL    HW198463  12.998  11.505  12.241
65522SOL    HW298464  13.071  11.379  12.282
65523SOL     OW98465   6.646   7.282   5.144
65523SOL    HW198466   6.677   7.239   5.064
65523SOL    HW298467   6.673   7.223   5.215
65524SOL     OW98468  10.211   7.930  13.938
65524SOL    HW198469  10.126   7.904  13.902
65524SOL    HW298470  10.258   7.847  13.949
65525SOL     OW98471   5.980  12.355   4.477
65525SOL    HW198472   6.051  12.326   4.420
65525SOL    HW298473   5.915  12.284   4.473
65526SOL     OW98474   9.217   6.452   5.592
65526SOL    HW198475   9.123   6.469   5.595
65526SOL    HW298476   9.237   6.446   5.499
65527SOL     OW98477  14.581   4.515   6.322
65527SOL    HW198478  14.580   4.451   6.393
65527SOL    HW298479  14.544   4.469   6.247
65528SOL     OW98480  14.226   3.253   3.505
65528SOL    HW198481  14.131   3.262   3.507
65528SOL    HW298482  14.240   3.159   3.495
65529SOL     OW98483   9.905  12.101   9.772
65529SOL    HW198484   9.992  12.090   9.810
65529SOL    HW298485   9.846  12.057   9.833
65530SOL     OW98486   9.688   4.333   9.474
65530SOL    HW198487   9.642   4.296   9.399
65530SOL    HW298488   9.696   4.261   9.536
65531SOL     OW98489   1.240   2.999  13.096
65531SOL    HW198490   1.292   2.980  13.174
65531SOL    HW298491   1.154   2.961  13.116
65532SOL     OW98492   0.703  10.666  14.205
65532SOL    HW198493   0.693  10.574  14.227
65532SOL    HW298494   0.716  10.667  14.110
65533SOL     OW98495  10.519   9.413   0.927
65533SOL    HW198496  10.560   9.344   0.875
65533SOL    HW298497  10.433   9.376   0.951
65534SOL     OW98498   9.129  10.070   2.751
65534SOL    HW198499   9.121  10.151   2.701
65534SOL    HW298500   9.105  10.094   2.841
65535SOL     OW98501   1.440   8.122   3.337
65535SOL    HW198502   1.452   8.072   3.417
65535SOL    HW298503   1.490   8.203   3.352
65536SOL     OW98504  13.554  14.654   2.197
65536SOL    HW198505  13.498  14.576   2.198
65536SOL    HW298506  13.643  14.619   2.203
65537SOL     OW98507  12.529   8.045   6.447
65537SOL    HW198508  12.569   8.029   6.532
65537SOL    HW298509  12.589   8.104   6.403
65538SOL     OW98510   6.364   0.038   3.215
65538SOL    HW198511   6.392  14.865   3.142
65538SOL    HW298512   6.421   0.114   3.211
65539SOL     OW98513   2.687   5.506  14.455
65539SOL    HW198514   2.633   5.479  14.529
65539SOL    HW298515   2.650   5.459  14.380
65540SOL     OW98516   8.579   9.123   4.028
65540SOL    HW198517   8.596   9.063   3.956
65540SOL    HW298518   8.510   9.080   4.079
65541SOL     OW98519  12.955   1.676  11.861
65541SOL    HW198520  13.017   1.728  11.811
65541SOL    HW298521  12.982   1.585  11.845
65542SOL     OW98522  14.321   3.536   8.606
65542SOL    HW198523  14.239   3.488   8.617
65542SOL    HW298524  14.301   3.605   8.544
65543SOL     OW98525   6.826   0.997   1.237
65543SOL    HW198526   6.818   1.035   1.149
65543SOL    HW298527   6.736   0.996   1.270
65544SOL     OW98528  10.557   9.611  11.108
65544SOL    HW198529  10.520   9.672  11.044
65544SOL    HW298530  10.552   9.525  11.066
65545SOL     OW98531  10.625   2.040   4.946
65545SOL    HW198532  10.594   2.075   5.030
65545SOL    HW298533  10.613   1.945   4.953
65546SOL     OW98534   7.477   2.000  10.622
65546SOL    HW198535   7.559   1.974  10.579
65546SOL    HW298536   7.409   1.951  10.576
65547SOL     OW98537   9.425  14.509  14.555
65547SOL    HW198538   9.459  14.591  14.517
65547SOL    HW298539   9.430  14.523  14.650
65548SOL     OW98540   0.838  13.263  12.932
65548SOL    HW198541   0.859  13.236  13.021
65548SOL    HW298542   0.762  13.321  12.941
65549SOL     OW98543   4.920  12.233   7.637
65549SOL    HW198544   4.883  12.289   7.568
65549SOL    HW298545   4.977  12.172   7.591
65550SOL     OW98546   3.692   4.213  12.809
65550SOL    HW198547   3.775   4.257  12.824
65550SOL    HW298548   3.676   4.222  12.715
65551SOL     OW98549   4.005   8.156   3.059
65551SOL    HW198550   4.063   8.084   3.085
65551SOL    HW298551   3.917   8.121   3.071
65552SOL     OW98552  12.306   8.489  12.353
65552SOL    HW198553  12.287   8.402  12.320
65552SOL    HW298554  12.399   8.501  12.337
65553SOL     OW98555   8.725   8.304   9.303
65553SOL    HW198556   8.751   8.290   9.394
65553SOL    HW298557   8.785   8.251   9.252
65554SOL     OW98558  13.966   3.693  13.476
65554SOL    HW198559  14.007   3.758  13.533
65554SOL    HW298560  13.883   3.672  13.518
65555SOL     OW98561   0.529  10.098   7.260
65555SOL    HW198562   0.476  10.083   7.338
65555SOL    HW298563   0.481  10.055   7.190
65556SOL     OW98564   0.486   4.446   1.491
65556SOL    HW198565   0.573   4.405   1.495
65556SOL    HW298566   0.435   4.401   1.558
65557SOL     OW98567  12.191   4.805  14.037
65557SOL    HW198568  12.199   4.774  14.127
65557SOL    HW298569  12.139   4.738  13.993
65558SOL     OW98570   2.998  11.003   2.929
65558SOL    HW198571   3.058  10.930   2.912
65558SOL    HW298572   2.923  10.963   2.972
65559SOL     OW98573   8.405   4.118  12.516
65559SOL    HW198574   8.444   4.205  12.507
65559SOL    HW298575   8.480   4.059  12.525
65560SOL     OW98576   5.069   1.873   3.897
65560SOL    HW198577   5.018   1.794   3.916
65560SOL    HW298578   5.021   1.943   3.942
65561SOL     OW98579  13.286   5.043  10.634
65561SOL    HW198580  13.267   5.029  10.726
65561SOL    HW298581  13.330   4.963  10.605
65562SOL     OW98582  12.500   6.775  13.911
65562SOL    HW198583  12.440   6.785  13.985
65562SOL    HW298584  12.531   6.864  13.893
65563SOL     OW98585   9.000   1.969   0.301
65563SOL    HW198586   9.032   2.035   0.240
65563SOL    HW298587   8.936   1.919   0.250
65564SOL     OW98588   4.008   3.991   9.068
65564SOL    HW198589   4.044   3.926   9.009
65564SOL    HW298590   3.919   4.006   9.036
65565SOL     OW98591   5.357  10.227  13.424
65565SOL    HW198592   5.267  10.210  13.396
65565SOL    HW298593   5.348  10.267  13.511
65566SOL     OW98594   0.517   4.464   6.277
65566SOL    HW198595   0.441   4.444   6.222
65566SOL    HW298596   0.502   4.554   6.307
65567SOL     OW98597  13.933   7.915   6.876
65567SOL    HW198598  13.855   7.871   6.907
65567SOL    HW298599  14.003   7.882   6.932
65568SOL     OW98600   5.910  11.502   2.539
65568SOL    HW198601   5.998  11.470   2.520
65568SOL    HW298602   5.901  11.580   2.485
65569SOL     OW98603   9.980   7.743  11.464
65569SOL    HW198604  10.054   7.691  11.432
65569SOL    HW298605   9.954   7.796  11.389
65570SOL     OW98606   0.321   1.696   3.872
65570SOL    HW198607   0.398   1.646   3.899
65570SOL    HW298608   0.305   1.757   3.944
65571SOL     OW98609   7.173   2.978   1.356
65571SOL    HW198610   7.137   3.024   1.280
65571SOL    HW298611   7.262   2.953   1.329
65572SOL     OW98612   6.349  14.281   1.887
65572SOL    HW198613   6.429  14.325   1.860
65572SOL    HW298614   6.376  14.227   1.962
65573SOL     OW98615   5.122   7.003   9.195
65573SOL    HW198616   5.047   7.057   9.168
65573SOL    HW298617   5.166   7.054   9.263
65574SOL     OW98618  10.728   7.368  11.781
65574SOL    HW198619  10.802   7.376  11.841
65574SOL    HW298620  10.699   7.458  11.768
65575SOL     OW98621   9.012   0.714   5.475
65575SOL    HW198622   9.106   0.723   5.457
65575SOL    HW298623   8.997   0.772   5.550
65576SOL     OW98624   8.060  12.819   3.616
65576SOL    HW198625   8.051  12.821   3.521
65576SOL    HW298626   8.123  12.749   3.632
65577SOL     OW98627   2.708  10.742   6.760
65577SOL    HW198628   2.682  10.785   6.679
65577SOL    HW298629   2.681  10.651   6.749
65578SOL     OW98630   4.333   0.704   9.737
65578SOL    HW198631   4.425   0.692   9.714
65578SOL    HW298632   4.288   0.628   9.700
65579SOL     OW98633   9.306   5.018  12.951
65579SOL    HW198634   9.323   5.110  12.967
65579SOL    HW298635   9.219   5.016  12.910
65580SOL     OW98636  10.512   7.413   6.330
65580SOL    HW198637  10.476   7.502   6.331
65580SOL    HW298638  10.529   7.393   6.422
65581SOL     OW98639  13.880   8.602   0.421
65581SOL    HW198640  13.849   8.534   0.361
65581SOL    HW298641  13.803   8.654   0.440
65582SOL     OW98642   3.044   3.517   4.047
65582SOL    HW198643   3.049   3.457   4.121
65582SOL    HW298644   3.053   3.604   4.086
65583SOL     OW98645  10.052   4.333   9.534
65583SOL    HW198646  10.031   4.425   9.519
65583SOL    HW298647   9.968   4.292   9.552
65584SOL     OW98648   8.693  14.256   7.249
65584SOL    HW198649   8.773  14.308   7.253
65584SOL    HW298650   8.622  14.322   7.251
65585SOL     OW98651   9.607   8.188   2.985
65585SOL    HW198652   9.560   8.261   2.944
65585SOL    HW298653   9.649   8.143   2.913
65586SOL     OW98654   0.304  14.210  10.617
65586SOL    HW198655   0.358  14.170  10.548
65586SOL    HW298656   0.217  14.217  10.578
65587SOL     OW98657   7.040   0.291  10.331
65587SOL    HW198658   6.956   0.262  10.368
65587SOL    HW298659   7.046   0.383  10.355
65588SOL     OW98660  14.362   1.814   6.791
65588SOL    HW198661  14.311   1.890   6.819
65588SOL    HW298662  14.449   1.828   6.829
65589SOL     OW98663   3.962   5.610   8.957
65589SOL    HW198664   3.878   5.567   8.969
65589SOL    HW298665   4.022   5.539   8.931
65590SOL     OW98666   8.687   8.053   0.496
65590SOL    HW198667   8.686   8.002   0.577
65590SOL    HW298668   8.728   7.995   0.432
65591SOL     OW98669   7.832   5.934   0.157
65591SOL    HW198670   7.829   5.995   0.230
65591SOL    HW298671   7.807   5.986   0.081
65592SOL     OW98672   3.094  14.737  14.520
65592SOL    HW198673   3.110  14.831  14.519
65592SOL    HW298674   3.087  14.712  14.428
65593SOL     OW98675  14.876   8.974   8.342
65593SOL    HW198676  14.800   8.924   8.373
65593SOL    HW298677   0.063   8.954   8.405
65594SOL     OW98678   8.293  12.059   6.869
65594SOL    HW198679   8.262  11.981   6.916
65594SOL    HW298680   8.327  12.116   6.937
65595SOL     OW98681   2.555   4.380   0.721
65595SOL    HW198682   2.614   4.454   0.731
65595SOL    HW298683   2.473   4.419   0.689
65596SOL     OW98684   4.956   5.587   4.876
65596SOL    HW198685   5.041   5.542   4.877
65596SOL    HW298686   4.929   5.586   4.784
65597SOL     OW98687   0.169   1.771   0.002
65597SOL    HW198688   0.228   1.749   0.074
65597SOL    HW298689   0.117   1.844   0.036
65598SOL     OW98690   8.390   6.865   5.092
65598SOL    HW198691   8.387   6.908   5.007
65598SOL    HW298692   8.316   6.901   5.140
65599SOL     OW98693   3.387  13.538  11.207
65599SOL    HW198694   3.367  13.533  11.300
65599SOL    HW298695   3.303  13.552  11.165
65600SOL     OW98696   7.327  13.972   7.136
65600SOL    HW198697   7.299  14.058   7.104
65600SOL    HW298698   7.257  13.944   7.195
65601SOL     OW98699   2.551   5.706  12.558
65601SOL    HW198700   2.557   5.623  12.605
65601SOL    HW298701   2.612   5.763  12.603
65602SOL     OW98702   5.306   5.721  13.807
65602SOL    HW198703   5.383   5.731  13.863
65602SOL    HW298704   5.294   5.806  13.765
65603SOL     OW98705  14.640   6.426   3.488
65603SOL    HW198706  14.731   6.433   3.519
65603SOL    HW298707  14.608   6.345   3.528
65604SOL     OW98708   8.751  11.641   3.785
65604SOL    HW198709   8.838  11.673   3.760
65604SOL    HW298710   8.768  11.580   3.857
65605SOL     OW98711  13.337  12.042   3.868
65605SOL    HW198712  13.356  12.015   3.778
65605SOL    HW298713  13.319  11.961   3.914
65606SOL     OW98714   1.737   8.844  12.903
65606SOL    HW198715   1.796   8.905  12.859
65606SOL    HW298716   1.756   8.855  12.996
65607SOL     OW98717   6.952   7.627   7.658
65607SOL    HW198718   6.864   7.601   7.686
65607SOL    HW298719   7.010   7.592   7.725
65608SOL     OW98720  10.754  13.947   8.294
65608SOL    HW198721  10.793  14.023   8.336
65608SOL    HW298722  10.819  13.920   8.229
65609SOL     OW98723  13.244  10.550  11.574
65609SOL    HW198724  13.311  10.548  11.643
65609SOL    HW298725  13.290  10.577  11.496
65610SOL     OW98726  13.153   6.062   4.958
65610SOL    HW198727  13.202   5.993   4.913
65610SOL    HW298728  13.169   6.141   4.907
65611SOL     OW98729   8.251   1.682   4.490
65611SOL    HW198730   8.173   1.642   4.528
65611SOL    HW298731   8.218   1.747   4.428
65612SOL     OW98732   1.498   1.501   9.724
65612SOL    HW198733   1.505   1.582   9.774
65612SOL    HW298734   1.561   1.442   9.765
65613SOL     OW98735  13.864   5.095  11.126
65613SOL    HW198736  13.806   5.168  11.104
65613SOL    HW298737  13.929   5.094  11.056
65614SOL     OW98738   9.412   0.524  12.549
65614SOL    HW198739   9.390   0.512  12.641
65614SOL    HW298740   9.504   0.551  12.550
65615SOL     OW98741   6.661  11.421  10.298
65615SOL    HW198742   6.615  11.420  10.382
65615SOL    HW298743   6.639  11.337  10.257
65616SOL     OW98744   3.651   5.508   2.716
65616SOL    HW198745   3.593   5.433   2.723
65616SOL    HW298746   3.710   5.500   2.791
65617SOL     OW98747  14.283   0.549  10.314
65617SOL    HW198748  14.357   0.511  10.266
65617SOL    HW298749  14.208   0.537  10.256
65618SOL     OW98750   0.111   5.791  13.869
65618SOL    HW198751   0.063   5.708  13.862
65618SOL    HW298752   0.111   5.811  13.963
65619SOL     OW98753   9.228   3.270  11.866
65619SOL    HW198754   9.292   3.218  11.915
65619SOL    HW298755   9.187   3.326  11.932
65620SOL     OW98756   3.760   3.781  11.180
65620SOL    HW198757   3.845   3.752  11.214
65620SOL    HW298758   3.716   3.817  11.257
65621SOL     OW98759  13.709   4.655   6.970
65621SOL    HW198760  13.717   4.725   7.035
65621SOL    HW298761  13.676   4.580   7.020
65622SOL     OW98762   6.135   5.853  11.236
65622SOL    HW198763   6.119   5.907  11.158
65622SOL    HW298764   6.196   5.786  11.206
65623SOL     OW98765   5.258   8.597  14.138
65623SOL    HW198766   5.221   8.509  14.137
65623SOL    HW298767   5.181   8.655  14.138
65624SOL     OW98768   2.474  10.611   6.896
65624SOL    HW198769   2.402  10.572   6.946
65624SOL    HW298770   2.459  10.705   6.903
65625SOL     OW98771   5.485  11.240   6.162
65625SOL    HW198772   5.493  11.306   6.092
65625SOL    HW298773   5.570  11.242   6.206
65626SOL     OW98774   3.564  14.313   7.898
65626SOL    HW198775   3.650  14.353   7.910
65626SOL    HW298776   3.567  14.232   7.948
65627SOL     OW98777   0.365   6.034  14.330
65627SOL    HW198778   0.284   6.085  14.339
65627SOL    HW298779   0.382   6.001  14.418
65628SOL     OW98780   2.682   2.950   2.969
65628SOL    HW198781   2.587   2.959   2.975
65628SOL    HW298782   2.696   2.879   2.906
65629SOL     OW98783  11.849  14.543   7.897
65629SOL    HW198784  11.931  14.592   7.901
65629SOL    HW298785  11.781  14.608   7.911
65630SOL     OW98786   5.688   5.307  11.030
65630SOL    HW198787   5.674   5.350  10.945
65630SOL    HW298788   5.763   5.250  11.015
65631SOL     OW98789  10.042  10.792   1.369
65631SOL    HW198790  10.022  10.846   1.445
65631SOL    HW298791  10.126  10.751   1.390
65632SOL     OW98792  12.777   8.652   5.918
65632SOL    HW198793  12.710   8.701   5.966
65632SOL    HW298794  12.776   8.565   5.957
65633SOL     OW98795  12.143   5.934   7.536
65633SOL    HW198796  12.061   5.914   7.490
65633SOL    HW298797  12.176   5.848   7.563
65634SOL     OW98798   8.377   0.471  10.002
65634SOL    HW198799   8.394   0.378   9.990
65634SOL    HW298800   8.289   0.484   9.967
65635SOL     OW98801   8.280   0.341   9.315
65635SOL    HW198802   8.275   0.248   9.335
65635SOL    HW298803   8.227   0.351   9.236
65636SOL     OW98804   6.660  14.346  10.512
65636SOL    HW198805   6.602  14.419  10.535
65636SOL    HW298806   6.715  14.335  10.590
65637SOL     OW98807   2.335   3.676  10.577
65637SOL    HW198808   2.278   3.625  10.520
65637SOL    HW298809   2.306   3.654  10.666
65638SOL     OW98810  14.659   6.376   7.068
65638SOL    HW198811  14.746   6.412   7.084
65638SOL    HW298812  14.674   6.305   7.006
65639SOL     OW98813   3.224   1.955  10.193
65639SOL    HW198814   3.264   1.981  10.110
65639SOL    HW298815   3.283   1.888  10.228
65640SOL     OW98816   0.767   0.092  10.687
65640SOL    HW198817   0.788   0.171  10.637
65640SOL    HW298818   0.721   0.036  10.624
65641SOL     OW98819   8.705  12.382   8.693
65641SOL    HW198820   8.675  12.463   8.651
65641SOL    HW298821   8.695  12.400   8.787
65642SOL     OW98822  14.097   4.643  13.030
65642SOL    HW198823  14.189   4.617  13.033
65642SOL    HW298824  14.051   4.574  13.078
65643SOL     OW98825   4.357   9.153   0.669
65643SOL    HW198826   4.386   9.117   0.585
65643SOL    HW298827   4.316   9.236   0.647
65644SOL     OW98828  12.553   6.143   3.786
65644SOL    HW198829  12.583   6.194   3.711
65644SOL    HW298830  12.460   6.164   3.794
65645SOL     OW98831   4.458   5.765   1.481
65645SOL    HW198832   4.424   5.678   1.502
65645SOL    HW298833   4.546   5.767   1.518
65646SOL     OW98834   9.683   3.098   5.407
65646SOL    HW198835   9.703   3.182   5.367
65646SOL    HW298836   9.589   3.100   5.423
65647SOL     OW98837   2.977   2.349   7.029
65647SOL    HW198838   2.888   2.362   6.998
65647SOL    HW298839   3.024   2.427   7.001
65648SOL     OW98840   9.991   9.979   4.998
65648SOL    HW198841   9.912   9.979   5.052
65648SOL    HW298842   9.959   9.969   4.908
65649SOL     OW98843  11.673  12.598  11.758
65649SOL    HW198844  11.589  12.587  11.712
65649SOL    HW298845  11.739  12.586  11.690
65650SOL     OW98846   4.031  12.614   7.917
65650SOL    HW198847   3.984  12.531   7.921
65650SOL    HW298848   3.962  12.680   7.913
65651SOL     OW98849  12.862  14.235   2.002
65651SOL    HW198850  12.918  14.299   1.960
65651SOL    HW298851  12.798  14.212   1.935
65652SOL     OW98852  10.921  14.362   2.348
65652SOL    HW198853  10.957  14.391   2.264
65652SOL    HW298854  10.891  14.442   2.390
65653SOL     OW98855   5.207   0.312  12.324
65653SOL    HW198856   5.176   0.319  12.414
65653SOL    HW298857   5.296   0.345  12.326
65654SOL     OW98858   5.919   8.354   4.259
65654SOL    HW198859   5.917   8.426   4.196
65654SOL    HW298860   5.959   8.393   4.337
65655SOL     OW98861  13.016   9.659  14.797
65655SOL    HW198862  12.980   9.644  14.709
65655SOL    HW298863  13.109   9.678  14.782
65656SOL     OW98864   3.770   6.164   8.491
65656SOL    HW198865   3.851   6.114   8.502
65656SOL    HW298866   3.701   6.097   8.492
65657SOL     OW98867   3.125   1.037   6.335
65657SOL    HW198868   3.205   0.999   6.370
65657SOL    HW298869   3.139   1.041   6.240
65658SOL     OW98870   6.293   4.538  12.310
65658SOL    HW198871   6.364   4.584  12.265
65658SOL    HW298872   6.279   4.458  12.260
65659SOL     OW98873   5.705   7.957   4.991
65659SOL    HW198874   5.777   8.014   5.018
65659SOL    HW298875   5.749   7.875   4.965
65660SOL     OW98876   7.551  11.759   9.425
65660SOL    HW198877   7.518  11.835   9.378
65660SOL    HW298878   7.633  11.789   9.464
65661SOL     OW98879  10.414   3.107   1.520
65661SOL    HW198880  10.490   3.165   1.529
65661SOL    HW298881  10.356   3.153   1.460
65662SOL     OW98882  12.290  11.976   8.470
65662SOL    HW198883  12.349  11.914   8.428
65662SOL    HW298884  12.209  11.927   8.484
65663SOL     OW98885   0.977  12.142  11.320
65663SOL    HW198886   0.918  12.136  11.395
65663SOL    HW298887   1.061  12.166  11.357
65664SOL     OW98888   4.144   9.495   0.790
65664SOL    HW198889   4.166   9.457   0.705
65664SOL    HW298890   4.176   9.431   0.853
65665SOL     OW98891  11.936   7.414   5.081
65665SOL    HW198892  11.878   7.489   5.068
65665SOL    HW298893  11.983   7.433   5.162
65666SOL     OW98894   4.278  13.395   3.964
65666SOL    HW198895   4.298  13.372   3.873
65666SOL    HW298896   4.302  13.318   4.015
65667SOL     OW98897   5.361   5.890   3.265
65667SOL    HW198898   5.325   5.932   3.344
65667SOL    HW298899   5.302   5.817   3.248
65668SOL     OW98900   7.404   3.180   9.904
65668SOL    HW198901   7.318   3.199   9.868
65668SOL    HW298902   7.390   3.171   9.998
65669SOL     OW98903  13.588  12.018   1.433
65669SOL    HW198904  13.648  12.053   1.367
65669SOL    HW298905  13.545  12.095   1.470
65670SOL     OW98906   4.060   9.786  14.704
65670SOL    HW198907   4.152   9.759  14.702
65670SOL    HW298908   4.062   9.878  14.731
65671SOL     OW98909  13.892   1.788  12.342
65671SOL    HW198910  13.884   1.729  12.417
65671SOL    HW298911  13.859   1.738  12.267
65672SOL     OW98912   5.958  14.128  14.871
65672SOL    HW198913   5.995  14.137  14.783
65672SOL    HW298914   5.981  14.210   0.033
65673SOL     OW98915   0.897  13.556   9.316
65673SOL    HW198916   0.806  13.556   9.347
65673SOL    HW298917   0.948  13.531   9.393
65674SOL     OW98918   4.049   5.572  13.357
65674SOL    HW198919   4.074   5.645  13.300
65674SOL    HW298920   4.043   5.496  13.299
65675SOL     OW98921   4.494   2.261   2.350
65675SOL    HW198922   4.445   2.283   2.271
65675SOL    HW298923   4.586   2.275   2.327
65676SOL     OW98924   6.855   7.380   3.923
65676SOL    HW198925   6.814   7.466   3.918
65676SOL    HW298926   6.913   7.385   3.999
65677SOL     OW98927  13.392   0.079  10.738
65677SOL    HW198928  13.421  14.872  10.754
65677SOL    HW298929  13.430   0.130  10.809
65678SOL     OW98930  11.408   9.564  12.996
65678SOL    HW198931  11.440   9.500  13.059
65678SOL    HW298932  11.487   9.599  12.955
65679SOL     OW98933   3.480  14.722   3.926
65679SOL    HW198934   3.481  14.707   4.021
65679SOL    HW298935   3.388  14.729   3.903
65680SOL     OW98936   8.708  12.383   1.373
65680SOL    HW198937   8.761  12.308   1.347
65680SOL    HW298938   8.624  12.345   1.399
65681SOL     OW98939   4.739   7.231  11.513
65681SOL    HW198940   4.795   7.229  11.435
65681SOL    HW298941   4.670   7.167  11.495
65682SOL     OW98942   0.846   5.597   1.884
65682SOL    HW198943   0.796   5.579   1.805
65682SOL    HW298944   0.934   5.621   1.852
65683SOL     OW98945   9.155  13.805  14.809
65683SOL    HW198946   9.086  13.799  14.875
65683SOL    HW298947   9.220  13.740  14.836
65684SOL     OW98948   3.005  13.964   7.012
65684SOL    HW198949   2.945  13.909   6.961
65684SOL    HW298950   2.975  14.053   6.995
65685SOL     OW98951   8.543  13.986   9.884
65685SOL    HW198952   8.487  14.037   9.943
65685SOL    HW298953   8.563  13.906   9.932
65686SOL     OW98954   0.106   5.490  12.569
65686SOL    HW198955   0.104   5.568  12.514
65686SOL    HW298956   0.015   5.471  12.588
65687SOL     OW98957   2.727   3.745   2.134
65687SOL    HW198958   2.796   3.728   2.069
65687SOL    HW298959   2.735   3.674   2.197
65688SOL     OW98960  10.968   5.250   0.938
65688SOL    HW198961  11.059   5.278   0.936
65688SOL    HW298962  10.968   5.169   0.989
65689SOL     OW98963  12.239  14.734  10.694
65689SOL    HW198964  12.164  14.793  10.689
65689SOL    HW298965  12.304  14.774  10.635
65690SOL     OW98966  14.773  11.966   6.658
65690SOL    HW198967  14.775  12.061   6.671
65690SOL    HW298968  14.683  11.940   6.678
65691SOL     OW98969   6.298  14.555  11.803
65691SOL    HW198970   6.310  14.617  11.875
65691SOL    HW298971   6.368  14.491  11.814
65692SOL     OW98972  10.081  12.288  14.834
65692SOL    HW198973  10.102  12.259   0.041
65692SOL    HW298974   9.986  12.293  14.832
65693SOL     OW98975   6.881   9.512   8.002
65693SOL    HW198976   6.831   9.580   7.956
65693SOL    HW298977   6.916   9.557   8.079
65694SOL     OW98978   4.668   7.684  12.440
65694SOL    HW198979   4.722   7.710  12.366
65694SOL    HW298980   4.678   7.589  12.445
65695SOL     OW98981  13.362   4.469   9.716
65695SOL    HW198982  13.291   4.488   9.776
65695SOL    HW298983  13.369   4.373   9.717
65696SOL     OW98984  10.193  14.200   9.547
65696SOL    HW198985  10.212  14.293   9.550
65696SOL    HW298986  10.206  14.169   9.636
65697SOL     OW98987  10.011   7.461  12.997
65697SOL    HW198988  10.003   7.540  13.051
65697SOL    HW298989  10.040   7.393  13.058
65698SOL     OW98990  12.336   7.353   4.426
65698SOL    HW198991  12.337   7.342   4.521
65698SOL    HW298992  12.427   7.370   4.402
65699SOL     OW98993   0.402   0.021   4.026
65699SOL    HW198994   0.432   0.033   3.936
65699SOL    HW298995   0.440   0.095   4.074
65700SOL     OW98996   4.071   6.103   9.457
65700SOL    HW198997   4.148   6.115   9.401
65700SOL    HW298998   3.997   6.129   9.403
65701SOL     OW98999  13.850  13.507   2.348
65701SOL    HW199000  13.780  13.452   2.381
65701SOL    HW299001  13.886  13.458   2.273
65702SOL     OW99002   2.571   6.148  11.471
65702SOL    HW199003   2.488   6.116  11.505
65702SOL    HW299004   2.564   6.243  11.474
65703SOL     OW99005   1.595   0.519   8.124
65703SOL    HW199006   1.662   0.481   8.067
65703SOL    HW299007   1.606   0.475   8.208
65704SOL     OW99008  12.366  12.197  10.460
65704SOL    HW199009  12.275  12.205  10.431
65704SOL    HW299010  12.385  12.280  10.504
65705SOL     OW99011  14.480  14.206  10.192
65705SOL    HW199012  14.485  14.110  10.195
65705SOL    HW299013  14.496  14.227  10.100
65706SOL     OW99014   2.526   6.037   3.758
65706SOL    HW199015   2.475   5.958   3.777
65706SOL    HW299016   2.563   6.063   3.843
65707SOL     OW99017   4.870   0.083   7.930
65707SOL    HW199018   4.918   0.013   7.885
65707SOL    HW299019   4.875   0.058   8.023
65708SOL     OW99020   1.492   7.780   3.199
65708SOL    HW199021   1.522   7.854   3.145
65708SOL    HW299022   1.572   7.729   3.215
65709SOL     OW99023   8.799   4.424   7.553
65709SOL    HW199024   8.801   4.471   7.470
65709SOL    HW299025   8.707   4.425   7.580
65710SOL     OW99026   8.957   8.087   7.111
65710SOL    HW199027   8.903   8.094   7.032
65710SOL    HW299028   8.924   8.157   7.168
65711SOL     OW99029   5.496   2.043   9.913
65711SOL    HW199030   5.503   1.961   9.864
65711SOL    HW299031   5.585   2.061   9.943
65712SOL     OW99032  14.654   8.675   2.935
65712SOL    HW199033  14.674   8.607   2.999
65712SOL    HW299034  14.619   8.747   2.987
65713SOL     OW99035  13.293  14.116   9.410
65713SOL    HW199036  13.332  14.049   9.353
65713SOL    HW299037  13.285  14.072   9.495
65714SOL     OW99038   7.600   2.649   2.447
65714SOL    HW199039   7.522   2.682   2.491
65714SOL    HW299040   7.571   2.571   2.400
65715SOL     OW99041   6.933   4.007   0.656
65715SOL    HW199042   6.871   3.934   0.652
65715SOL    HW299043   7.018   3.965   0.670
65716SOL     OW99044  12.454  11.083   6.454
65716SOL    HW199045  12.466  11.071   6.360
65716SOL    HW299046  12.543  11.084   6.490
65717SOL     OW99047  13.733   5.053   1.351
65717SOL    HW199048  13.701   4.971   1.389
65717SOL    HW299049  13.691   5.059   1.266
65718SOL     OW99050   6.139   9.211   2.998
65718SOL    HW199051   6.158   9.285   3.055
65718SOL    HW299052   6.205   9.216   2.929
65719SOL     OW99053   7.361   2.977   5.046
65719SOL    HW199054   7.351   2.900   4.990
65719SOL    HW299055   7.279   2.980   5.097
65720SOL     OW99056  13.026   2.458   3.572
65720SOL    HW199057  13.097   2.519   3.553
65720SOL    HW299058  13.017   2.406   3.492
65721SOL     OW99059   5.728   2.785   8.813
65721SOL    HW199060   5.747   2.850   8.881
65721SOL    HW299061   5.674   2.833   8.750
65722SOL     OW99062   3.529   6.180  14.414
65722SOL    HW199063   3.598   6.246  14.411
65722SOL    HW299064   3.512   6.166  14.507
65723SOL     OW99065   7.616  14.758   2.859
65723SOL    HW199066   7.535  14.769   2.908
65723SOL    HW299067   7.677  14.820   2.899
65724SOL     OW99068  11.354  12.260   5.796
65724SOL    HW199069  11.346  12.166   5.784
65724SOL    HW299070  11.392  12.291   5.714
65725SOL     OW99071   6.341   1.448   5.069
65725SOL    HW199072   6.268   1.485   5.019
65725SOL    HW299073   6.354   1.361   5.032
65726SOL     OW99074   0.743   2.465   7.311
65726SOL    HW199075   0.665   2.432   7.266
65726SOL    HW299076   0.816   2.420   7.268
65727SOL     OW99077   2.564  11.941   3.675
65727SOL    HW199078   2.609  11.890   3.742
65727SOL    HW299079   2.482  11.969   3.718
65728SOL     OW99080   6.148   7.370   5.352
65728SOL    HW199081   6.238   7.338   5.340
65728SOL    HW299082   6.104   7.301   5.401
65729SOL     OW99083  12.181   2.960   6.687
65729SOL    HW199084  12.112   2.990   6.628
65729SOL    HW299085  12.218   3.040   6.724
65730SOL     OW99086   7.069   4.920  14.063
65730SOL    HW199087   7.014   4.845  14.041
65730SOL    HW299088   7.061   4.930  14.158
65731SOL     OW99089   0.103  12.234   0.314
65731SOL    HW199090   0.020  12.236   0.361
65731SOL    HW299091   0.110  12.320   0.274
65732SOL     OW99092   6.851  10.051  10.003
65732SOL    HW199093   6.793  10.016   9.935
65732SOL    HW299094   6.862  10.143   9.980
65733SOL     OW99095  10.860  14.004   6.856
65733SOL    HW199096  10.929  14.018   6.790
65733SOL    HW299097  10.866  14.081   6.912
65734SOL     OW99098   8.972   2.225  10.673
65734SOL    HW199099   8.998   2.201  10.762
65734SOL    HW299100   9.039   2.286  10.643
65735SOL     OW99101  12.903   9.188   2.561
65735SOL    HW199102  12.870   9.131   2.492
65735SOL    HW299103  12.998   9.184   2.552
65736SOL     OW99104   1.969   8.221  12.160
65736SOL    HW199105   1.915   8.208  12.082
65736SOL    HW299106   1.926   8.291  12.208
65737SOL     OW99107   7.778   7.000  14.785
65737SOL    HW199108   7.690   7.035  14.771
65737SOL    HW299109   7.802   7.028  14.873
65738SOL     OW99110   1.076   9.645  10.637
65738SOL    HW199111   1.023   9.609  10.708
65738SOL    HW299112   1.022   9.634  10.558
65739SOL     OW99113   5.695   4.896  12.259
65739SOL    HW199114   5.643   4.949  12.319
65739SOL    HW299115   5.708   4.813  12.305
65740SOL     OW99116  13.380  13.234  14.523
65740SOL    HW199117  13.357  13.295  14.593
65740SOL    HW299118  13.418  13.290  14.455
65741SOL     OW99119   5.749   9.615  13.884
65741SOL    HW199120   5.676   9.601  13.823
65741SOL    HW299121   5.754   9.709  13.895
65742SOL     OW99122  13.626  12.904  13.512
65742SOL    HW199123  13.613  12.999  13.503
65742SOL    HW299124  13.706  12.886  13.463
65743SOL     OW99125  14.093  11.048   4.140
65743SOL    HW199126  14.159  11.084   4.200
65743SOL    HW299127  14.119  10.958   4.126
65744SOL     OW99128   8.646   0.988   6.111
65744SOL    HW199129   8.662   0.945   6.027
65744SOL    HW299130   8.692   1.071   6.105
65745SOL     OW99131   7.062   9.132   1.189
65745SOL    HW199132   7.155   9.118   1.169
65745SOL    HW299133   7.018   9.056   1.153
65746SOL     OW99134   0.294   3.727   6.844
65746SOL    HW199135   0.288   3.694   6.934
65746SOL    HW299136   0.211   3.701   6.804
65747SOL     OW99137   1.910  10.631   3.529
65747SOL    HW199138   1.920  10.586   3.613
65747SOL    HW299139   1.885  10.720   3.552
65748SOL     OW99140  14.218   0.747   9.254
65748SOL    HW199141  14.123   0.741   9.265
65748SOL    HW299142  14.233   0.721   9.163
65749SOL     OW99143   9.921  13.482   6.570
65749SOL    HW199144   9.866  13.527   6.506
65749SOL    HW299145   9.997  13.452   6.519
65750SOL     OW99146   9.016   6.262   6.641
65750SOL    HW199147   9.101   6.228   6.668
65750SOL    HW299148   9.035   6.351   6.610
65751SOL     OW99149   5.508   7.625   3.547
65751SOL    HW199150   5.425   7.583   3.522
65751SOL    HW299151   5.504   7.712   3.508
65752SOL     OW99152   5.979   7.810   7.164
65752SOL    HW199153   5.927   7.890   7.151
65752SOL    HW299154   6.003   7.813   7.257
65753SOL     OW99155   1.841   7.445   5.085
65753SOL    HW199156   1.895   7.478   5.013
65753SOL    HW299157   1.813   7.524   5.131
65754SOL     OW99158   4.830  12.404   1.807
65754SOL    HW199159   4.874  12.323   1.830
65754SOL    HW299160   4.898  12.457   1.764
65755SOL     OW99161   1.831   0.881   4.784
65755SOL    HW199162   1.866   0.967   4.809
65755SOL    HW299163   1.782   0.852   4.861
65756SOL     OW99164  12.283   5.349   4.090
65756SOL    HW199165  12.286   5.319   4.181
65756SOL    HW299166  12.372   5.335   4.058
65757SOL     OW99167  14.778   6.124   7.972
65757SOL    HW199168  14.730   6.099   8.051
65757SOL    HW299169  14.787   6.219   7.978
65758SOL     OW99170   4.071   7.052  12.259
65758SOL    HW199171   4.108   7.133  12.224
65758SOL    HW299172   4.113   6.983  12.209
65759SOL     OW99173  14.392   4.569  12.106
65759SOL    HW199174  14.342   4.579  12.187
65759SOL    HW299175  14.479   4.603  12.127
65760SOL     OW99176   9.974   3.134  12.968
65760SOL    HW199177   9.919   3.105  12.895
65760SOL    HW299178   9.983   3.228  12.955
65761SOL     OW99179  14.774  12.973  12.577
65761SOL    HW199180  14.822  13.046  12.615
65761SOL    HW299181  14.692  12.969  12.627
65762SOL     OW99182   4.826   2.818  13.798
65762SOL    HW199183   4.775   2.803  13.878
65762SOL    HW299184   4.908   2.772  13.813
65763SOL     OW99185  13.358   9.954   7.421
65763SOL    HW199186  13.276   9.942   7.469
65763SOL    HW299187  13.368   9.874   7.370
65764SOL     OW99188   3.572  13.003   7.041
65764SOL    HW199189   3.532  12.976   7.123
65764SOL    HW299190   3.542  13.092   7.027
65765SOL     OW99191   5.746   8.740   9.039
65765SOL    HW199192   5.749   8.783   9.124
65765SOL    HW299193   5.830   8.762   8.997
65766SOL     OW99194   7.748  12.764   6.224
65766SOL    HW199195   7.745  12.811   6.141
65766SOL    HW299196   7.832  12.719   6.224
65767SOL     OW99197   5.284   1.098   1.160
65767SOL    HW199198   5.358   1.159   1.161
65767SOL    HW299199   5.242   1.113   1.075
65768SOL     OW99200   1.129  10.173  10.475
65768SOL    HW199201   1.128  10.242  10.542
65768SOL    HW299202   1.110  10.220  10.393
65769SOL     OW99203   4.997  13.117   3.140
65769SOL    HW199204   4.922  13.154   3.186
65769SOL    HW299205   4.959  13.051   3.082
65770SOL     OW99206   8.276   5.103   1.760
65770SOL    HW199207   8.182   5.086   1.750
65770SOL    HW299208   8.313   5.018   1.785
65771SOL     OW99209  12.025  14.384  12.880
65771SOL    HW199210  11.946  14.331  12.873
65771SOL    HW299211  12.072  14.368  12.798
65772SOL     OW99212   6.595  10.057  10.366
65772SOL    HW199213   6.662  10.027  10.428
65772SOL    HW299214   6.643  10.111  10.303
65773SOL     OW99215  13.942   9.939   6.901
65773SOL    HW199216  13.896  10.021   6.919
65773SOL    HW299217  13.892   9.899   6.830
65774SOL     OW99218   9.859  14.532  12.047
65774SOL    HW199219   9.950  14.552  12.071
65774SOL    HW299220   9.866  14.462  11.983
65775SOL     OW99221   2.759  12.960   1.542
65775SOL    HW199222   2.672  12.982   1.506
65775SOL    HW299223   2.781  12.876   1.502
65776SOL     OW99224   9.045   2.431   2.819
65776SOL    HW199225   9.051   2.384   2.736
65776SOL    HW299226   9.135   2.457   2.838
65777SOL     OW99227   6.682  12.330  10.185
65777SOL    HW199228   6.734  12.408  10.165
65777SOL    HW299229   6.710  12.305  10.273
65778SOL     OW99230   3.084  13.308   6.849
65778SOL    HW199231   3.027  13.385   6.851
65778SOL    HW299232   3.101  13.289   6.941
65779SOL     OW99233   7.024   5.116  13.622
65779SOL    HW199234   6.993   5.206  13.613
65779SOL    HW299235   7.064   5.113  13.710
65780SOL     OW99236   0.496  14.409   9.911
65780SOL    HW199237   0.544  14.336   9.950
65780SOL    HW299238   0.490  14.387   9.818
65781SOL     OW99239   9.472   2.437   0.586
65781SOL    HW199240   9.549   2.477   0.544
65781SOL    HW299241   9.475   2.346   0.559
65782SOL     OW99242  13.468   5.479   0.635
65782SOL    HW199243  13.492   5.572   0.632
65782SOL    HW299244  13.415   5.466   0.557
65783SOL     OW99245   0.915  13.032  14.113
65783SOL    HW199246   0.901  13.021  14.019
65783SOL    HW299247   0.901  12.945  14.150
65784SOL     OW99248   9.009  11.747   3.730
65784SOL    HW199249   9.082  11.771   3.672
65784SOL    HW299250   9.036  11.664   3.768
65785SOL     OW99251  14.682  11.401   3.274
65785SOL    HW199252  14.600  11.352   3.283
65785SOL    HW299253  14.702  11.431   3.363
65786SOL     OW99254   9.926   4.572  10.849
65786SOL    HW199255   9.985   4.631  10.895
65786SOL    HW299256   9.935   4.597  10.757
65787SOL     OW99257  12.370  11.756   8.301
65787SOL    HW199258  12.416  11.739   8.219
65787SOL    HW299259  12.392  11.682   8.357
65788SOL     OW99260   7.266  13.893  13.449
65788SOL    HW199261   7.183  13.865  13.489
65788SOL    HW299262   7.254  13.876  13.355
65789SOL     OW99263   4.715   9.201   3.953
65789SOL    HW199264   4.638   9.147   3.935
65789SOL    HW299265   4.734   9.244   3.870
65790SOL     OW99266   6.698   8.537   4.527
65790SOL    HW199267   6.673   8.588   4.604
65790SOL    HW299268   6.731   8.602   4.465
65791SOL     OW99269   8.914   4.200   1.032
65791SOL    HW199270   8.833   4.170   1.073
65791SOL    HW299271   8.915   4.157   0.947
65792SOL     OW99272   6.570   0.162  12.535
65792SOL    HW199273   6.627   0.095  12.572
65792SOL    HW299274   6.582   0.154  12.440
65793SOL     OW99275   1.233   1.758   8.936
65793SOL    HW199276   1.169   1.743   9.006
65793SOL    HW299277   1.237   1.675   8.889
65794SOL     OW99278  14.162  10.833   4.404
65794SOL    HW199279  14.088  10.801   4.352
65794SOL    HW299280  14.236  10.832   4.343
65795SOL     OW99281  10.120   1.391  11.977
65795SOL    HW199282  10.105   1.485  11.968
65795SOL    HW299283  10.033   1.352  11.967
65796SOL     OW99284   8.461   7.847  11.019
65796SOL    HW199285   8.442   7.758  10.991
65796SOL    HW299286   8.507   7.886  10.945
65797SOL     OW99287  14.561   7.096  13.593
65797SOL    HW199288  14.652   7.088  13.564
65797SOL    HW299289  14.568   7.125  13.684
65798SOL     OW99290   5.715  11.937  13.025
65798SOL    HW199291   5.745  12.012  12.973
65798SOL    HW299292   5.763  11.944  13.107
65799SOL     OW99293   3.203   6.293  14.822
65799SOL    HW199294   3.202   6.367   0.001
65799SOL    HW299295   3.227   6.217  14.877
65800SOL     OW99296   6.467   8.911   4.802
65800SOL    HW199297   6.533   8.853   4.761
65800SOL    HW299298   6.385   8.862   4.794
65801SOL     OW99299   7.851  12.528  10.055
65801SOL    HW199300   7.832  12.480  10.136
65801SOL    HW299301   7.787  12.600  10.055
65802SOL     OW99302   8.883   3.241  13.441
65802SOL    HW199303   8.915   3.164  13.487
65802SOL    HW299304   8.955   3.266  13.383
65803SOL     OW99305   8.531   4.986   5.181
65803SOL    HW199306   8.436   4.996   5.189
65803SOL    HW299307   8.545   4.967   5.089
65804SOL     OW99308  14.204   5.769   3.404
65804SOL    HW199309  14.239   5.683   3.379
65804SOL    HW299310  14.212   5.772   3.499
65805SOL     OW99311  12.740   4.433   1.122
65805SOL    HW199312  12.736   4.513   1.174
65805SOL    HW299313  12.771   4.366   1.183
65806SOL     OW99314  14.577   9.495   6.112
65806SOL    HW199315  14.571   9.405   6.080
65806SOL    HW299316  14.487   9.528   6.105
65807SOL     OW99317   8.937   0.514   1.837
65807SOL    HW199318   8.964   0.445   1.776
65807SOL    HW299319   8.882   0.469   1.901
65808SOL     OW99320   5.151   6.613  11.250
65808SOL    HW199321   5.092   6.601  11.324
65808SOL    HW299322   5.106   6.675  11.193
65809SOL     OW99323   0.280   6.397   5.953
65809SOL    HW199324   0.242   6.450   5.883
65809SOL    HW299325   0.355   6.447   5.984
65810SOL     OW99326   8.528  10.520   2.515
65810SOL    HW199327   8.544  10.436   2.559
65810SOL    HW299328   8.604  10.573   2.537
65811SOL     OW99329   2.178   7.258  12.457
65811SOL    HW199330   2.190   7.169  12.424
65811SOL    HW299331   2.254   7.272  12.514
65812SOL     OW99332   3.875  12.214   3.890
65812SOL    HW199333   3.948  12.158   3.863
65812SOL    HW299334   3.912  12.302   3.894
65813SOL     OW99335   6.209   7.831   6.965
65813SOL    HW199336   6.272   7.772   7.006
65813SOL    HW299337   6.130   7.825   7.019
65814SOL     OW99338  10.944   5.734  14.444
65814SOL    HW199339  10.887   5.700  14.375
65814SOL    HW299340  10.914   5.823  14.458
65815SOL     OW99341   3.576   7.697   3.177
65815SOL    HW199342   3.493   7.733   3.210
65815SOL    HW299343   3.550   7.618   3.130
65816SOL     OW99344   4.452   1.099   4.366
65816SOL    HW199345   4.418   1.010   4.353
65816SOL    HW299346   4.405   1.132   4.443
65817SOL     OW99347  12.164  14.098   4.513
65817SOL    HW199348  12.151  14.134   4.601
65817SOL    HW299349  12.119  14.159   4.455
65818SOL     OW99350  14.460   0.374   9.181
65818SOL    HW199351  14.478   0.388   9.274
65818SOL    HW299352  14.543   0.392   9.137
65819SOL     OW99353   7.697  13.318   1.783
65819SOL    HW199354   7.697  13.262   1.706
65819SOL    HW299355   7.783  13.305   1.822
65820SOL     OW99356   7.609   1.105   3.464
65820SOL    HW199357   7.659   1.183   3.486
65820SOL    HW299358   7.576   1.121   3.375
65821SOL     OW99359   0.167   6.060   8.651
65821SOL    HW199360   0.116   6.133   8.615
65821SOL    HW299361   0.102   5.999   8.685
65822SOL     OW99362   6.630   6.751  11.673
65822SOL    HW199363   6.582   6.682  11.628
65822SOL    HW299364   6.714   6.712  11.694
65823SOL     OW99365   9.410  12.733  13.641
65823SOL    HW199366   9.436  12.792  13.712
65823SOL    HW299367   9.320  12.707  13.663
65824SOL     OW99368  11.768   7.496  10.369
65824SOL    HW199369  11.722   7.426  10.322
65824SOL    HW299370  11.698   7.546  10.410
65825SOL     OW99371  14.663   1.332   6.966
65825SOL    HW199372  14.574   1.340   6.930
65825SOL    HW299373  14.665   1.244   7.004
65826SOL     OW99374  13.337   3.741  13.830
65826SOL    HW199375  13.296   3.825  13.807
65826SOL    HW299376  13.264   3.684  13.854
65827SOL     OW99377   4.598   0.225   5.479
65827SOL    HW199378   4.662   0.187   5.540
65827SOL    HW299379   4.523   0.247   5.533
65828SOL     OW99380  12.127   4.043  13.090
65828SOL    HW199381  12.113   4.081  13.177
65828SOL    HW299382  12.042   4.053  13.047
65829SOL     OW99383   7.401   6.571  10.281
65829SOL    HW199384   7.483   6.540  10.240
65829SOL    HW299385   7.409   6.545  10.372
65830SOL     OW99386   5.864  14.457  14.318
65830SOL    HW199387   5.772  14.455  14.292
65830SOL    HW299388   5.862  14.469  14.412
65831SOL     OW99389   0.352  12.364   5.234
65831SOL    HW199390   0.439  12.327   5.251
65831SOL    HW299391   0.357  12.452   5.270
65832SOL     OW99392  10.818  13.607   9.169
65832SOL    HW199393  10.769  13.560   9.236
65832SOL    HW299394  10.781  13.576   9.086
65833SOL     OW99395   7.575   2.418  11.668
65833SOL    HW199396   7.632   2.456  11.735
65833SOL    HW299397   7.516   2.490  11.642
65834SOL     OW99398  14.716  13.079   9.321
65834SOL    HW199399  14.625  13.057   9.302
65834SOL    HW299400  14.726  13.169   9.290
65835SOL     OW99401   6.650  12.158   2.349
65835SOL    HW199402   6.663  12.143   2.443
65835SOL    HW299403   6.739  12.174   2.316
65836SOL     OW99404   5.554  12.491   2.285
65836SOL    HW199405   5.491  12.558   2.258
65836SOL    HW299406   5.635  12.539   2.300
65837SOL     OW99407  13.947   0.070  10.332
65837SOL    HW199408  13.886   0.030  10.269
65837SOL    HW299409  14.009   0.118  10.277
65838SOL     OW99410  11.600   9.312   0.753
65838SOL    HW199411  11.673   9.296   0.812
65838SOL    HW299412  11.522   9.298   0.808
65839SOL     OW99413   6.256   1.430  10.434
65839SOL    HW199414   6.166   1.453  10.413
65839SOL    HW299415   6.293   1.509  10.474
65840SOL     OW99416   9.755   5.708   0.952
65840SOL    HW199417   9.826   5.680   0.894
65840SOL    HW299418   9.771   5.802   0.966
65841SOL     OW99419   7.374   4.703   9.578
65841SOL    HW199420   7.450   4.702   9.636
65841SOL    HW299421   7.409   4.726   9.492
65842SOL     OW99422  13.652   4.109   7.869
65842SOL    HW199423  13.653   4.027   7.819
65842SOL    HW299424  13.744   4.126   7.888
65843SOL     OW99425   8.191   2.183  11.284
65843SOL    HW199426   8.162   2.144  11.367
65843SOL    HW299427   8.214   2.108  11.229
65844SOL     OW99428   2.401  11.372   5.760
65844SOL    HW199429   2.419  11.462   5.732
65844SOL    HW299430   2.479  11.323   5.734
65845SOL     OW99431   9.722   0.190  11.255
65845SOL    HW199432   9.671   0.202  11.175
65845SOL    HW299433   9.739   0.279  11.286
65846SOL     OW99434  12.775  10.392  13.772
65846SOL    HW199435  12.691  10.352  13.750
65846SOL    HW299436  12.837  10.319  13.778
65847SOL     OW99437  10.373   0.255   1.379
65847SOL    HW199438  10.314   0.261   1.305
65847SOL    HW299439  10.424   0.175   1.362
65848SOL     OW99440   3.744   3.028   5.331
65848SOL    HW199441   3.734   3.068   5.417
65848SOL    HW299442   3.713   3.094   5.269
65849SOL     OW99443   3.458   7.814  12.365
65849SOL    HW199444   3.543   7.771  12.353
65849SOL    HW299445   3.466   7.895  12.314
65850SOL     OW99446   6.240   0.319   8.755
65850SOL    HW199447   6.329   0.338   8.786
65850SOL    HW299448   6.183   0.369   8.813
65851SOL     OW99449   1.007   1.220   3.108
65851SOL    HW199450   1.036   1.283   3.174
65851SOL    HW299451   1.062   1.143   3.123
65852SOL     OW99452   5.813   7.248  13.228
65852SOL    HW199453   5.793   7.268  13.320
65852SOL    HW299454   5.744   7.188  13.201
65853SOL     OW99455  11.108  12.361   3.111
65853SOL    HW199456  11.097  12.267   3.124
65853SOL    HW299457  11.201  12.376   3.125
65854SOL     OW99458   7.172   8.560   6.983
65854SOL    HW199459   7.135   8.637   7.026
65854SOL    HW299460   7.267   8.567   6.999
65855SOL     OW99461   7.035   5.710  11.851
65855SOL    HW199462   6.997   5.627  11.878
65855SOL    HW299463   7.096   5.687  11.781
65856SOL     OW99464   9.123   1.167   6.168
65856SOL    HW199465   9.132   1.185   6.075
65856SOL    HW299466   9.084   1.080   6.172
65857SOL     OW99467   3.759   5.207  10.393
65857SOL    HW199468   3.786   5.293  10.359
65857SOL    HW299469   3.841   5.157  10.398
65858SOL     OW99470  11.326  11.462  14.377
65858SOL    HW199471  11.411  11.471  14.420
65858SOL    HW299472  11.263  11.458  14.449
65859SOL     OW99473  12.761  14.429  10.771
65859SOL    HW199474  12.749  14.464  10.859
65859SOL    HW299475  12.673  14.402  10.744
65860SOL     OW99476   2.455  12.803   6.340
65860SOL    HW199477   2.485  12.818   6.250
65860SOL    HW299478   2.398  12.878   6.358
65861SOL     OW99479   2.864   2.116  14.130
65861SOL    HW199480   2.861   2.062  14.051
65861SOL    HW299481   2.866   2.053  14.202
65862SOL     OW99482  14.182  13.016   6.857
65862SOL    HW199483  14.195  12.954   6.785
65862SOL    HW299484  14.264  13.012   6.907
65863SOL     OW99485  12.458   5.275   6.061
65863SOL    HW199486  12.550   5.267   6.038
65863SOL    HW299487  12.422   5.332   5.993
65864SOL     OW99488   0.478   8.123   6.233
65864SOL    HW199489   0.557   8.143   6.283
65864SOL    HW299490   0.408   8.119   6.299
65865SOL     OW99491   8.006   5.429  11.395
65865SOL    HW199492   7.918   5.411  11.430
65865SOL    HW299493   7.992   5.438  11.300
65866SOL     OW99494  10.103  13.535   4.999
65866SOL    HW199495  10.068  13.459   4.952
65866SOL    HW299496  10.086  13.609   4.941
65867SOL     OW99497   7.406   0.389   8.199
65867SOL    HW199498   7.485   0.378   8.146
65867SOL    HW299499   7.411   0.320   8.265
65868SOL     OW99500   4.699   6.001   9.228
65868SOL    HW199501   4.777   5.947   9.218
65868SOL    HW299502   4.715   6.052   9.307
65869SOL     OW99503   1.455  13.125   5.969
65869SOL    HW199504   1.452  13.213   5.932
65869SOL    HW299505   1.546  13.097   5.957
65870SOL     OW99506  13.653   9.631  11.486
65870SOL    HW199507  13.642   9.595  11.574
65870SOL    HW299508  13.565   9.628  11.448
65871SOL     OW99509   9.721   6.978   6.300
65871SOL    HW199510   9.809   6.962   6.266
65871SOL    HW299511   9.733   6.982   6.395
65872SOL     OW99512  14.374   4.106   5.559
65872SOL    HW199513  14.296   4.120   5.505
65872SOL    HW299514  14.343   4.055   5.634
65873SOL     OW99515   1.960   8.568  11.098
65873SOL    HW199516   1.915   8.574  11.182
65873SOL    HW299517   1.942   8.651  11.055
65874SOL     OW99518  13.198   5.709  11.052
65874SOL    HW199519  13.204   5.796  11.013
65874SOL    HW299520  13.118   5.712  11.105
65875SOL     OW99521   2.142  11.830   6.229
65875SOL    HW199522   2.194  11.752   6.210
65875SOL    HW299523   2.184  11.868   6.306
65876SOL     OW99524   5.677   9.765   8.123
65876SOL    HW199525   5.773   9.769   8.117
65876SOL    HW299526   5.647   9.813   8.046
65877SOL     OW99527  10.666   0.459   3.970
65877SOL    HW199528  10.667   0.492   3.880
65877SOL    HW299529  10.729   0.514   4.017
65878SOL     OW99530  14.261   0.447  12.608
65878SOL    HW199531  14.202   0.471  12.680
65878SOL    HW299532  14.204   0.408  12.542
65879SOL     OW99533   6.480   9.089  14.211
65879SOL    HW199534   6.461   9.174  14.171
65879SOL    HW299535   6.465   9.102  14.304
65880SOL     OW99536  11.666   4.962   7.339
65880SOL    HW199537  11.622   4.892   7.290
65880SOL    HW299538  11.604   4.985   7.408
65881SOL     OW99539   4.662   4.282  10.540
65881SOL    HW199540   4.715   4.343  10.488
65881SOL    HW299541   4.593   4.337  10.577
65882SOL     OW99542   7.750   7.813   9.047
65882SOL    HW199543   7.719   7.901   9.024
65882SOL    HW299544   7.677   7.776   9.097
65883SOL     OW99545   3.553   2.733  13.172
65883SOL    HW199546   3.502   2.787  13.232
65883SOL    HW299547   3.637   2.721  13.217
65884SOL     OW99548   0.742  11.101  10.838
65884SOL    HW199549   0.807  11.069  10.901
65884SOL    HW299550   0.677  11.145  10.892
65885SOL     OW99551   5.522   8.503  11.196
65885SOL    HW199552   5.506   8.409  11.207
65885SOL    HW299553   5.547   8.534  11.283
65886SOL     OW99554   2.716   0.286   6.074
65886SOL    HW199555   2.640   0.229   6.088
65886SOL    HW299556   2.791   0.226   6.076
65887SOL     OW99557  14.007  10.505  13.811
65887SOL    HW199558  14.035  10.496  13.902
65887SOL    HW299559  14.014  10.417  13.775
65888SOL     OW99560   4.784  10.814   5.826
65888SOL    HW199561   4.858  10.756   5.807
65888SOL    HW299562   4.820  10.882   5.882
65889SOL     OW99563  13.189   3.002  11.743
65889SOL    HW199564  13.164   3.094  11.741
65889SOL    HW299565  13.111   2.956  11.775
65890SOL     OW99566   8.294   1.825   0.028
65890SOL    HW199567   8.333   1.744   0.060
65890SOL    HW299568   8.201   1.816   0.044
65891SOL     OW99569  12.786   0.475   2.777
65891SOL    HW199570  12.814   0.431   2.858
65891SOL    HW299571  12.694   0.451   2.769
65892SOL     OW99572   1.442   4.871   5.357
65892SOL    HW199573   1.379   4.847   5.290
65892SOL    HW299574   1.432   4.966   5.366
65893SOL     OW99575  10.191  12.410   5.245
65893SOL    HW199576  10.137  12.440   5.318
65893SOL    HW299577  10.136  12.420   5.168
65894SOL     OW99578   1.353   8.806   4.738
65894SOL    HW199579   1.352   8.719   4.779
65894SOL    HW299580   1.439   8.812   4.696
65895SOL     OW99581   8.690   7.400   2.206
65895SOL    HW199582   8.696   7.309   2.178
65895SOL    HW299583   8.754   7.407   2.277
65896SOL     OW99584   3.728   7.490   4.878
65896SOL    HW199585   3.669   7.422   4.846
65896SOL    HW299586   3.723   7.484   4.973
65897SOL     OW99587  10.773   4.036  12.519
65897SOL    HW199588  10.765   3.997  12.606
65897SOL    HW299589  10.860   4.077  12.520
65898SOL     OW99590   3.613  10.885   5.491
65898SOL    HW199591   3.555  10.810   5.503
65898SOL    HW299592   3.617  10.926   5.578
65899SOL     OW99593   5.564   5.176   5.298
65899SOL    HW199594   5.497   5.124   5.254
65899SOL    HW299595   5.647   5.144   5.261
65900SOL     OW99596   0.168   6.133  13.642
65900SOL    HW199597   0.080   6.169  13.654
65900SOL    HW299598   0.162   6.083  13.560
65901SOL     OW99599   8.566   0.208  13.287
65901SOL    HW199600   8.476   0.179  13.273
65901SOL    HW299601   8.619   0.131  13.268
65902SOL     OW99602   3.736   0.547   4.891
65902SOL    HW199603   3.778   0.565   4.806
65902SOL    HW299604   3.677   0.474   4.874
65903SOL     OW99605  10.802   4.084   7.489
65903SOL    HW199606  10.744   4.059   7.417
65903SOL    HW299607  10.886   4.045   7.466
65904SOL     OW99608   5.782   0.500  12.428
65904SOL    HW199609   5.782   0.407  12.409
65904SOL    HW299610   5.839   0.510  12.503
65905SOL     OW99611  12.224   2.375   1.777
65905SOL    HW199612  12.246   2.335   1.693
65905SOL    HW299613  12.281   2.332   1.840
65906SOL     OW99614   8.139  10.404  14.826
65906SOL    HW199615   8.086  10.339  14.779
65906SOL    HW299616   8.229  10.387  14.798
65907SOL     OW99617   1.595   5.553  11.844
65907SOL    HW199618   1.590   5.587  11.755
65907SOL    HW299619   1.537   5.609  11.895
65908SOL     OW99620   5.463  13.578  14.538
65908SOL    HW199621   5.407  13.551  14.610
65908SOL    HW299622   5.432  13.528  14.463
65909SOL     OW99623   7.019   9.389   6.663
65909SOL    HW199624   7.103   9.354   6.692
65909SOL    HW299625   7.025   9.391   6.568
65910SOL     OW99626   9.197   6.025   1.750
65910SOL    HW199627   9.122   5.984   1.707
65910SOL    HW299628   9.207   6.109   1.705
65911SOL     OW99629  13.347   1.302  11.063
65911SOL    HW199630  13.289   1.259  11.000
65911SOL    HW299631  13.421   1.243  11.073
65912SOL     OW99632  12.932   7.772   7.394
65912SOL    HW199633  12.906   7.860   7.368
65912SOL    HW299634  12.875   7.750   7.468
65913SOL     OW99635  13.707   7.052  13.950
65913SOL    HW199636  13.616   7.022  13.954
65913SOL    HW299637  13.737   7.052  14.041
65914SOL     OW99638   2.524   9.845  11.399
65914SOL    HW199639   2.531   9.832  11.493
65914SOL    HW299640   2.614   9.862  11.371
65915SOL     OW99641   6.695   1.612   2.625
65915SOL    HW199642   6.664   1.568   2.704
65915SOL    HW299643   6.729   1.696   2.656
65916SOL     OW99644   2.523  14.257  12.392
65916SOL    HW199645   2.435  14.223  12.374
65916SOL    HW299646   2.575  14.234  12.315
65917SOL     OW99647   6.073  12.670  12.665
65917SOL    HW199648   6.161  12.652  12.631
65917SOL    HW299649   6.078  12.760  12.696
65918SOL     OW99650   1.320  14.797   1.634
65918SOL    HW199651   1.277  14.871   1.592
65918SOL    HW299652   1.250  14.752   1.680
65919SOL     OW99653   5.141   6.594  12.664
65919SOL    HW199654   5.226   6.572  12.628
65919SOL    HW299655   5.081   6.528  12.628
65920SOL     OW99656   6.568  11.745  10.648
65920SOL    HW199657   6.662  11.748  10.630
65920SOL    HW299658   6.529  11.799  10.580
65921SOL     OW99659  10.883  10.272   9.668
65921SOL    HW199660  10.878  10.361   9.703
65921SOL    HW299661  10.794  10.238   9.679
65922SOL     OW99662  11.431  12.775   2.355
65922SOL    HW199663  11.479  12.722   2.419
65922SOL    HW299664  11.384  12.711   2.301
65923SOL     OW99665   5.255   8.340   9.740
65923SOL    HW199666   5.209   8.369   9.819
65923SOL    HW299667   5.334   8.395   9.738
65924SOL     OW99668   6.289  14.700  12.060
65924SOL    HW199669   6.287  14.782  12.010
65924SOL    HW299670   6.224  14.712  12.128
65925SOL     OW99671   4.584   6.513   8.914
65925SOL    HW199672   4.611   6.604   8.929
65925SOL    HW299673   4.631   6.463   8.980
65926SOL     OW99674   0.484  13.632  14.100
65926SOL    HW199675   0.453  13.703  14.044
65926SOL    HW299676   0.579  13.633  14.090
65927SOL     OW99677   0.814   1.707   5.915
65927SOL    HW199678   0.896   1.754   5.899
65927SOL    HW299679   0.765   1.717   5.834
65928SOL     OW99680   3.500  13.018   2.995
65928SOL    HW199681   3.476  13.107   2.970
65928SOL    HW299682   3.417  12.970   2.994
65929SOL     OW99683   6.711  14.022   0.592
65929SOL    HW199684   6.657  14.054   0.664
65929SOL    HW299685   6.649  13.988   0.528
65930SOL     OW99686   0.113   3.862  14.425
65930SOL    HW199687   0.151   3.863  14.513
65930SOL    HW299688   0.171   3.805  14.375
65931SOL     OW99689  14.233   0.531   6.653
65931SOL    HW199690  14.319   0.557   6.620
65931SOL    HW299691  14.250   0.453   6.705
65932SOL     OW99692  10.632   5.869  13.868
65932SOL    HW199693  10.561   5.933  13.872
65932SOL    HW299694  10.589   5.785  13.882
65933SOL     OW99695   5.639   6.583  14.686
65933SOL    HW199696   5.631   6.504  14.632
65933SOL    HW299697   5.687   6.644  14.631
65934SOL     OW99698   0.963  13.654  10.788
65934SOL    HW199699   0.913  13.579  10.756
65934SOL    HW299700   0.900  13.727  10.787
65935SOL     OW99701   0.099  10.116   9.013
65935SOL    HW199702   0.185  10.121   8.971
65935SOL    HW299703   0.118  10.091   9.104
65936SOL     OW99704  13.565   9.755  14.557
65936SOL    HW199705  13.580   9.762  14.463
65936SOL    HW299706  13.522   9.670  14.567
65937SOL     OW99707   4.617   6.196   8.036
65937SOL    HW199708   4.548   6.220   8.098
65937SOL    HW299709   4.615   6.101   8.033
65938SOL     OW99710  10.115   5.968   1.099
65938SOL    HW199711  10.051   5.937   1.035
65938SOL    HW299712  10.063   6.016   1.163
65939SOL     OW99713  13.528   0.090   3.713
65939SOL    HW199714  13.591   0.160   3.696
65939SOL    HW299715  13.529   0.037   3.633
65940SOL     OW99716  14.839  12.651   5.550
65940SOL    HW199717  14.875  12.661   5.638
65940SOL    HW299718  14.749  12.622   5.564
65941SOL     OW99719   2.247   3.317  12.904
65941SOL    HW199720   2.246   3.354  12.816
65941SOL    HW299721   2.159   3.333  12.938
65942SOL     OW99722   9.457   1.700   2.257
65942SOL    HW199723   9.533   1.677   2.203
65942SOL    HW299724   9.385   1.710   2.194
65943SOL     OW99725  12.587   8.285   3.037
65943SOL    HW199726  12.576   8.354   3.102
65943SOL    HW299727  12.506   8.234   3.043
65944SOL     OW99728  13.086   5.160   7.028
65944SOL    HW199729  13.121   5.124   6.946
65944SOL    HW299730  13.122   5.103   7.096
65945SOL     OW99731   0.176  11.601   7.429
65945SOL    HW199732   0.088  11.637   7.432
65945SOL    HW299733   0.231  11.666   7.474
65946SOL     OW99734   2.928  12.942   5.040
65946SOL    HW199735   2.901  12.912   5.127
65946SOL    HW299736   3.017  12.975   5.053
65947SOL     OW99737   0.595   8.960   6.505
65947SOL    HW199738   0.670   8.944   6.563
65947SOL    HW299739   0.589   9.055   6.500
65948SOL     OW99740   0.559  12.211  13.071
65948SOL    HW199741   0.549  12.303  13.093
65948SOL    HW299742   0.476  12.171  13.097
65949SOL     OW99743  10.712   2.084   8.559
65949SOL    HW199744  10.678   2.023   8.493
65949SOL    HW299745  10.784   2.129   8.514
65950SOL     OW99746   6.826   1.337  13.236
65950SOL    HW199747   6.854   1.253  13.200
65950SOL    HW299748   6.870   1.402  13.182
65951SOL     OW99749   5.847   1.482   7.681
65951SOL    HW199750   5.755   1.493   7.702
65951SOL    HW299751   5.848   1.434   7.599
65952SOL     OW99752  10.417   0.398   3.720
65952SOL    HW199753  10.446   0.489   3.717
65952SOL    HW299754  10.400   0.381   3.812
65953SOL     OW99755  13.633  10.616  13.814
65953SOL    HW199756  13.677  10.544  13.860
65953SOL    HW299757  13.539  10.600  13.829
65954SOL     OW99758   0.008  12.680   1.325
65954SOL    HW199759   0.073  12.612   1.310
65954SOL    HW299760   0.057  12.762   1.320
65955SOL     OW99761   2.945   2.147  14.788
65955SOL    HW199762   3.017   2.187  14.838
65955SOL    HW299763   2.880   2.217  14.780
65956SOL     OW99764   8.926  10.546   5.086
65956SOL    HW199765   8.897  10.548   5.177
65956SOL    HW299766   9.009  10.593   5.086
65957SOL     OW99767  10.747   4.227   5.698
65957SOL    HW199768  10.825   4.253   5.748
65957SOL    HW299769  10.752   4.132   5.692
65958SOL     OW99770   6.846  11.546  12.243
65958SOL    HW199771   6.941  11.537  12.238
65958SOL    HW299772   6.813  11.472  12.192
65959SOL     OW99773   4.603  10.869   8.291
65959SOL    HW199774   4.577  10.856   8.200
65959SOL    HW299775   4.542  10.935   8.324
65960SOL     OW99776  12.119   7.309   0.355
65960SOL    HW199777  12.211   7.331   0.370
65960SOL    HW299778  12.114   7.215   0.369
65961SOL     OW99779  11.181   7.214   0.018
65961SOL    HW199780  11.184   7.125   0.053
65961SOL    HW299781  11.204   7.269   0.092
65962SOL     OW99782  14.713   5.038  13.168
65962SOL    HW199783  14.666   5.076  13.094
65962SOL    HW299784  14.652   4.974  13.205
65963SOL     OW99785   0.469   1.994   3.544
65963SOL    HW199786   0.435   2.005   3.633
65963SOL    HW299787   0.548   2.048   3.542
65964SOL     OW99788   2.445   6.421   0.350
65964SOL    HW199789   2.465   6.509   0.320
65964SOL    HW299790   2.360   6.429   0.393
65965SOL     OW99791  11.284   1.200   7.121
65965SOL    HW199792  11.372   1.238   7.117
65965SOL    HW299793  11.277   1.164   7.209
65966SOL     OW99794   3.197   9.494   4.415
65966SOL    HW199795   3.166   9.474   4.326
65966SOL    HW299796   3.125   9.544   4.454
65967SOL     OW99797  12.975   4.315  14.454
65967SOL    HW199798  12.962   4.259  14.531
65967SOL    HW299799  12.913   4.387  14.466
65968SOL     OW99800   7.181   7.745   4.268
65968SOL    HW199801   7.231   7.770   4.346
65968SOL    HW299802   7.149   7.828   4.233
65969SOL     OW99803  14.713  10.863   1.203
65969SOL    HW199804  14.761  10.799   1.152
65969SOL    HW299805  14.720  10.944   1.152
65970SOL     OW99806   2.569   9.031  13.566
65970SOL    HW199807   2.641   9.041  13.628
65970SOL    HW299808   2.509   9.102  13.588
65971SOL     OW99809  10.025   9.783   2.968
65971SOL    HW199810  10.095   9.843   2.993
65971SOL    HW299811   9.945   9.829   2.991
65972SOL     OW99812   6.019  13.904   7.515
65972SOL    HW199813   6.016  13.923   7.421
65972SOL    HW299814   6.012  13.990   7.557
65973SOL     OW99815   0.249   1.227   7.300
65973SOL    HW199816   0.326   1.199   7.349
65973SOL    HW299817   0.187   1.255   7.367
65974SOL     OW99818   3.356  12.304   9.963
65974SOL    HW199819   3.276  12.344   9.928
65974SOL    HW299820   3.414  12.378   9.981
65975SOL     OW99821   5.848   2.660   9.344
65975SOL    HW199822   5.873   2.570   9.323
65975SOL    HW299823   5.895   2.680   9.425
65976SOL     OW99824   5.741   5.783   0.065
65976SOL    HW199825   5.748   5.783  14.851
65976SOL    HW299826   5.747   5.875   0.090
65977SOL     OW99827   6.738   8.153   5.998
65977SOL    HW199828   6.730   8.109   6.083
65977SOL    HW299829   6.688   8.234   6.009
65978SOL     OW99830  10.119   9.619  10.068
65978SOL    HW199831  10.046   9.623  10.007
65978SOL    HW299832  10.183   9.561  10.027
65979SOL     OW99833   2.330  12.252  12.454
65979SOL    HW199834   2.413  12.206  12.466
65979SOL    HW299835   2.286  12.244  12.538
65980SOL     OW99836  11.675   3.939   1.615
65980SOL    HW199837  11.643   3.987   1.539
65980SOL    HW299838  11.626   3.856   1.612
65981SOL     OW99839   5.893   1.960   0.178
65981SOL    HW199840   5.865   1.869   0.189
65981SOL    HW299841   5.978   1.964   0.222
65982SOL     OW99842   2.677   2.511  13.401
65982SOL    HW199843   2.706   2.421  13.389
65982SOL    HW299844   2.634   2.511  13.486
65983SOL     OW99845   4.106  10.251   2.712
65983SOL    HW199846   4.194  10.241   2.749
65983SOL    HW299847   4.057  10.299   2.779
65984SOL     OW99848  14.245   8.629  12.782
65984SOL    HW199849  14.224   8.633  12.689
65984SOL    HW299850  14.310   8.698  12.795
65985SOL     OW99851  14.253   6.979   6.733
65985SOL    HW199852  14.179   7.018   6.687
65985SOL    HW299853  14.214   6.915   6.792
65986SOL     OW99854   9.697   9.128  12.078
65986SOL    HW199855   9.752   9.200  12.044
65986SOL    HW299856   9.608   9.164  12.077
65987SOL     OW99857   2.933  11.417   7.230
65987SOL    HW199858   2.942  11.417   7.325
65987SOL    HW299859   3.001  11.358   7.199
65988SOL     OW99860  11.766   6.012  12.563
65988SOL    HW199861  11.807   6.096  12.581
65988SOL    HW299862  11.733   6.020  12.473
65989SOL     OW99863   1.957   8.565  14.783
65989SOL    HW199864   1.892   8.494  14.784
65989SOL    HW299865   2.024   8.535  14.722
65990SOL     OW99866  14.083   3.649   2.300
65990SOL    HW199867  14.103   3.593   2.225
65990SOL    HW299868  13.994   3.681   2.283
65991SOL     OW99869   3.042   7.155   7.826
65991SOL    HW199870   3.022   7.084   7.765
65991SOL    HW299871   2.962   7.166   7.878
65992SOL     OW99872   4.188  14.388   4.685
65992SOL    HW199873   4.253  14.367   4.618
65992SOL    HW299874   4.113  14.332   4.664
65993SOL     OW99875  13.197  12.470   1.625
65993SOL    HW199876  13.142  12.393   1.615
65993SOL    HW299877  13.278  12.437   1.663
65994SOL     OW99878   6.853   8.982   1.064
65994SOL    HW199879   6.829   9.057   1.010
65994SOL    HW299880   6.838   8.906   1.008
65995SOL     OW99881  12.522  12.436  14.412
65995SOL    HW199882  12.598  12.493  14.428
65995SOL    HW299883  12.561  12.350  14.396
65996SOL     OW99884  14.428  13.117   5.405
65996SOL    HW199885  14.447  13.135   5.497
65996SOL    HW299886  14.484  13.179   5.357
65997SOL     OW99887   4.252   7.502   1.388
65997SOL    HW199888   4.264   7.407   1.397
65997SOL    HW299889   4.207   7.528   1.468
65998SOL     OW99890   8.386   5.367   3.256
65998SOL    HW199891   8.369   5.291   3.201
65998SOL    HW299892   8.473   5.352   3.292
65999SOL     OW99893   2.480   4.270  10.037
65999SOL    HW199894   2.566   4.298  10.069
65999SOL    HW299895   2.437   4.231  10.114
66000SOL     OW99896  12.884  14.172   2.858
66000SOL    HW199897  12.863  14.081   2.837
66000SOL    HW299898  12.847  14.186   2.945
66001SOL     OW99899   4.742   0.877  13.066
66001SOL    HW199900   4.688   0.916  13.134
66001SOL    HW299901   4.679   0.837  13.006
66002SOL     OW99902   5.698  10.833   8.545
66002SOL    HW199903   5.749  10.910   8.520
66002SOL    HW299904   5.677  10.847   8.637
66003SOL     OW99905   2.403   0.406   4.722
66003SOL    HW199906   2.466   0.437   4.657
66003SOL    HW299907   2.392   0.481   4.781
66004SOL     OW99908   8.389   5.131   3.659
66004SOL    HW199909   8.484   5.142   3.660
66004SOL    HW299910   8.370   5.086   3.741
66005SOL     OW99911   7.662  11.130  10.288
66005SOL    HW199912   7.593  11.125  10.221
66005SOL    HW299913   7.743  11.112  10.240
66006SOL     OW99914   4.759   8.633   3.177
66006SOL    HW199915   4.789   8.651   3.088
66006SOL    HW299916   4.825   8.674   3.233
66007SOL     OW99917   3.329   6.188   5.216
66007SOL    HW199918   3.250   6.214   5.263
66007SOL    HW299919   3.379   6.270   5.207
66008SOL     OW99920   3.550   3.109   1.723
66008SOL    HW199921   3.509   3.194   1.741
66008SOL    HW299922   3.518   3.086   1.635
66009SOL     OW99923   3.087   7.927   2.631
66009SOL    HW199924   3.021   7.892   2.572
66009SOL    HW299925   3.091   8.021   2.612
66010SOL     OW99926   8.758   1.942   6.763
66010SOL    HW199927   8.665   1.931   6.778
66010SOL    HW299928   8.764   2.023   6.711
66011SOL     OW99929   3.709  14.766   8.552
66011SOL    HW199930   3.802  14.773   8.532
66011SOL    HW299931   3.684  14.680   8.518
66012SOL     OW99932  13.123   4.246   3.625
66012SOL    HW199933  13.208   4.227   3.584
66012SOL    HW299934  13.078   4.162   3.629
66013SOL     OW99935   0.221   5.885   6.907
66013SOL    HW199936   0.172   5.823   6.961
66013SOL    HW299937   0.228   5.963   6.962
66014SOL     OW99938   9.182  12.550   5.691
66014SOL    HW199939   9.108  12.528   5.746
66014SOL    HW299940   9.155  12.524   5.603
66015SOL     OW99941   3.586   7.221   7.967
66015SOL    HW199942   3.661   7.220   8.026
66015SOL    HW299943   3.605   7.293   7.907
66016SOL     OW99944   8.462   2.257   6.564
66016SOL    HW199945   8.448   2.177   6.614
66016SOL    HW299946   8.374   2.285   6.540
66017SOL     OW99947  11.496  10.481  14.650
66017SOL    HW199948  11.536  10.443  14.728
66017SOL    HW299949  11.557  10.462  14.579
66018SOL     OW99950   9.331  14.439  12.514
66018SOL    HW199951   9.423  14.442  12.489
66018SOL    HW299952   9.325  14.372  12.581
66019SOL     OW99953  14.315   8.243  12.825
66019SOL    HW199954  14.279   8.259  12.738
66019SOL    HW299955  14.243   8.265  12.885
66020SOL     OW99956   2.846  11.758  11.814
66020SOL    HW199957   2.885  11.696  11.875
66020SOL    HW299958   2.913  11.825  11.801
66021SOL     OW99959  14.535  14.007   8.020
66021SOL    HW199960  14.563  13.953   8.094
66021SOL    HW299961  14.501  14.087   8.060
66022SOL     OW99962   5.475   9.397   5.616
66022SOL    HW199963   5.485   9.475   5.669
66022SOL    HW299964   5.520   9.417   5.534
66023SOL     OW99965   1.352   1.763  13.697
66023SOL    HW199966   1.395   1.799  13.774
66023SOL    HW299967   1.423   1.726  13.644
66024SOL     OW99968  11.408   2.199  13.049
66024SOL    HW199969  11.454   2.118  13.073
66024SOL    HW299970  11.372   2.231  13.132
66025SOL     OW99971   2.723  13.239   4.181
66025SOL    HW199972   2.688  13.170   4.238
66025SOL    HW299973   2.679  13.319   4.209
66026SOL     OW99974  12.634  11.251   7.468
66026SOL    HW199975  12.624  11.225   7.376
66026SOL    HW299976  12.680  11.177   7.508
66027SOL     OW99977   2.942  11.623   4.992
66027SOL    HW199978   2.986  11.625   5.077
66027SOL    HW299979   2.974  11.701   4.946
66028SOL     OW99980   1.288  13.764   3.600
66028SOL    HW199981   1.329  13.770   3.686
66028SOL    HW299982   1.210  13.820   3.606
66029SOL     OW99983   8.512  13.580  14.795
66029SOL    HW199984   8.480  13.660  14.839
66029SOL    HW299985   8.433  13.528  14.781
66030SOL     OW99986  10.815   1.995   6.269
66030SOL    HW199987  10.748   1.936   6.304
66030SOL    HW299988  10.829   2.060   6.338
66031SOL     OW99989  13.850   6.100   4.843
66031SOL    HW199990  13.944   6.089   4.854
66031SOL    HW299991  13.826   6.036   4.776
66032SOL     OW99992   8.346   8.736  14.082
66032SOL    HW199993   8.299   8.691  14.012
66032SOL    HW299994   8.367   8.822  14.046
66033SOL     OW99995   2.303   3.197  11.805
66033SOL    HW199996   2.303   3.194  11.901
66033SOL    HW299997   2.278   3.108  11.779
66034SOL     OW99998   5.600   4.937   1.060
66034SOL    HW199999   5.509   4.962   1.044
66034SOL    HW2    0   5.612   4.952   1.154
66035SOL     OW    1   0.021   3.127   0.712
66035SOL    HW1    2   0.005   3.047   0.761
66035SOL    HW2    3   0.068   3.098   0.634
66036SOL     OW    4  12.716   5.795   3.345
66036SOL    HW1    5  12.740   5.789   3.253
66036SOL    HW2    6  12.644   5.858   3.347
66037SOL     OW    7   8.505   8.548   7.567
66037SOL    HW1    8   8.449   8.625   7.554
66037SOL    HW2    9   8.446   8.482   7.604
66038SOL     OW   10   6.492  10.933   7.763
66038SOL    HW1   11   6.515  10.928   7.671
66038SOL    HW2   12   6.429  11.005   7.769
66039SOL     OW   13   9.581   5.890   0.119
66039SOL    HW1   14   9.676   5.897   0.119
66039SOL    HW2   15   9.554   5.918   0.031
66040SOL     OW   16   4.703   9.140   0.768
66040SOL    HW1   17   4.748   9.188   0.837
66040SOL    HW2   18   4.645   9.080   0.814
66041SOL     OW   19   9.175   3.047   9.675
66041SOL    HW1   20   9.268   3.064   9.693
66041SOL    HW2   21   9.155   3.101   9.599
66042SOL     OW   22  11.299  14.871   9.416
66042SOL    HW1   23  11.358   0.037   9.474
66042SOL    HW2   24  11.236  14.829   9.475
66043SOL     OW   25   4.949   2.745   9.245
66043SOL    HW1   26   5.018   2.770   9.306
66043SOL    HW2   27   4.870   2.740   9.298
66044SOL     OW   28  10.068   3.311   5.718
66044SOL    HW1   29  10.067   3.250   5.792
66044SOL    HW2   30  10.146   3.365   5.733
66045SOL     OW   31   9.415  10.166   8.444
66045SOL    HW1   32   9.376  10.251   8.465
66045SOL    HW2   33   9.428  10.124   8.529
66046SOL     OW   34  11.148  12.440  12.467
66046SOL    HW1   35  11.243  12.434  12.454
66046SOL    HW2   36  11.112  12.442  12.379
66047SOL     OW   37   7.429   0.586   9.608
66047SOL    HW1   38   7.516   0.550   9.627
66047SOL    HW2   39   7.422   0.662   9.667
66048SOL     OW   40   3.042   6.885   9.614
66048SOL    HW1   41   2.968   6.886   9.554
66048SOL    HW2   42   3.111   6.840   9.566
66049SOL     OW   43  14.847  14.764   6.414
66049SOL    HW1   44  14.860  14.670   6.411
66049SOL    HW2   45   0.046  14.799   6.452
66050SOL     OW   46   9.785   4.576   8.094
66050SOL    HW1   47   9.876   4.546   8.097
66050SOL    HW2   48   9.778   4.639   8.166
66051SOL     OW   49   2.449   2.431   9.366
66051SOL    HW1   50   2.487   2.389   9.288
66051SOL    HW2   51   2.518   2.489   9.398
66052SOL     OW   52  14.737   7.337   7.953
66052SOL    HW1   53  14.749   7.343   8.048
66052SOL    HW2   54  14.820   7.305   7.920
66053SOL     OW   55  10.669   8.321   4.715
66053SOL    HW1   56  10.663   8.261   4.641
66053SOL    HW2   57  10.628   8.402   4.684
66054SOL     OW   58   6.931   6.390  10.192
66054SOL    HW1   59   6.914   6.485  10.194
66054SOL    HW2   60   6.893   6.357  10.273
66055SOL     OW   61   8.329  11.247   1.299
66055SOL    HW1   62   8.297  11.320   1.351
66055SOL    HW2   63   8.383  11.196   1.359
66056SOL     OW   64  14.853   6.821  14.723
66056SOL    HW1   65  14.766   6.785  14.737
66056SOL    HW2   66  14.851   6.855  14.634
66057SOL     OW   67   0.312   1.081  13.035
66057SOL    HW1   68   0.276   1.169  13.048
66057SOL    HW2   69   0.282   1.055  12.948
66058SOL     OW   70   0.025   7.799   9.426
66058SOL    HW1   71   0.052   7.845   9.347
66058SOL    HW2   72   0.064   7.712   9.419
66059SOL     OW   73   3.137  12.517  14.502
66059SOL    HW1   74   3.055  12.559  14.528
66059SOL    HW2   75   3.150  12.447  14.566
66060SOL     OW   76   8.195   5.162  13.908
66060SOL    HW1   77   8.107   5.180  13.941
66060SOL    HW2   78   8.247   5.238  13.934
66061SOL     OW   79   7.074   3.359   3.431
66061SOL    HW1   80   7.012   3.287   3.416
66061SOL    HW2   81   7.150   3.336   3.377
66062SOL     OW   82   3.625  13.620   0.866
66062SOL    HW1   83   3.604  13.655   0.780
66062SOL    HW2   84   3.605  13.527   0.861
66063SOL     OW   85   5.864  11.687   5.166
66063SOL    HW1   86   5.952  11.687   5.128
66063SOL    HW2   87   5.867  11.617   5.231
66064SOL     OW   88   7.240  12.446   9.551
66064SOL    HW1   89   7.191  12.410   9.625
66064SOL    HW2   90   7.277  12.528   9.585
66065SOL     OW   91  12.725   8.617   1.158
66065SOL    HW1   92  12.817   8.642   1.151
66065SOL    HW2   93  12.704   8.629   1.251
66066SOL     OW   94   3.111   4.286   9.127
66066SOL    HW1   95   3.174   4.304   9.057
66066SOL    HW2   96   3.143   4.205   9.167
66067SOL     OW   97  12.146  10.337  12.614
66067SOL    HW1   98  12.232  10.369  12.639
66067SOL    HW2   99  12.149  10.332  12.518
66068SOL     OW  100   5.097   4.550  14.329
66068SOL    HW1  101   5.139   4.521  14.410
66068SOL    HW2  102   5.066   4.639  14.348
66069SOL     OW  103  11.533   4.332   9.297
66069SOL    HW1  104  11.475   4.360   9.227
66069SOL    HW2  105  11.530   4.403   9.361
66070SOL     OW  106   3.961   2.761   2.216
66070SOL    HW1  107   3.949   2.725   2.304
66070SOL    HW2  108   3.890   2.823   2.206
66071SOL     OW  109   3.928   2.435  12.564
66071SOL    HW1  110   3.959   2.462  12.651
66071SOL    HW2  111   3.860   2.370  12.582
66072SOL     OW  112   7.287  11.288  10.531
66072SOL    HW1  113   7.229  11.224  10.491
66072SOL    HW2  114   7.287  11.266  10.624
66073SOL     OW  115  13.697  12.025   1.021
66073SOL    HW1  116  13.631  11.990   0.961
66073SOL    HW2  117  13.775  12.035   0.966
66074SOL     OW  118  12.315   1.011   8.309
66074SOL    HW1  119  12.345   0.932   8.263
66074SOL    HW2  120  12.369   1.014   8.389
66075SOL     OW  121   7.632  11.173   2.075
66075SOL    HW1  122   7.578  11.140   2.147
66075SOL    HW2  123   7.690  11.237   2.117
66076SOL     OW  124   0.111  14.389  11.899
66076SOL    HW1  125   0.185  14.342  11.937
66076SOL    HW2  126   0.120  14.374  11.804
66077SOL     OW  127  12.770  14.075  11.463
66077SOL    HW1  128  12.782  14.152  11.519
66077SOL    HW2  129  12.783  14.107  11.374
66078SOL     OW  130   6.240   9.128   2.621
66078SOL    HW1  131   6.266   9.199   2.680
66078SOL    HW2  132   6.155   9.156   2.586
66079SOL     OW  133   1.182   9.811  11.669
66079SOL    HW1  134   1.262   9.803  11.721
66079SOL    HW2  135   1.119   9.753  11.712
66080SOL     OW  136  11.896   7.547  12.812
66080SOL    HW1  137  11.902   7.470  12.756
66080SOL    HW2  138  11.884   7.620  12.752
66081SOL     OW  139   4.089   2.965   9.448
66081SOL    HW1  140   4.063   3.045   9.494
66081SOL    HW2  141   4.059   2.979   9.358
66082SOL     OW  142   3.909   8.165   5.013
66082SOL    HW1  143   3.821   8.192   4.986
66082SOL    HW2  144   3.968   8.217   4.959
66083SOL     OW  145   2.371  10.284  11.844
66083SOL    HW1  146   2.288  10.322  11.818
66083SOL    HW2  147   2.398  10.333  11.921
66084SOL     OW  148   8.622  10.203   6.550
66084SOL    HW1  149   8.591  10.225   6.638
66084SOL    HW2  150   8.573  10.125   6.526
66085SOL     OW  151   5.232   5.533   6.261
66085SOL    HW1  152   5.166   5.582   6.310
66085SOL    HW2  153   5.313   5.581   6.276
66086SOL     OW  154   0.776  12.731   9.033
66086SOL    HW1  155   0.681  12.714   9.038
66086SOL    HW2  156   0.804  12.687   8.953
66087SOL     OW  157  11.081   2.086  10.239
66087SOL    HW1  158  11.091   2.129  10.154
66087SOL    HW2  159  11.126   2.144  10.301
66088SOL     OW  160  12.854   4.175   0.323
66088SOL    HW1  161  12.902   4.122   0.387
66088SOL    HW2  162  12.829   4.254   0.372
66089SOL     OW  163   0.466   2.364   8.338
66089SOL    HW1  164   0.517   2.285   8.318
66089SOL    HW2  165   0.532   2.429   8.362
66090SOL     OW  166  11.797  13.734   2.882
66090SOL    HW1  167  11.825  13.723   2.791
66090SOL    HW2  168  11.869  13.698   2.934
66091SOL     OW  169   8.368   1.129   9.444
66091SOL    HW1  170   8.380   1.199   9.508
66091SOL    HW2  171   8.455   1.114   9.408
66092SOL     OW  172  10.044   2.760   1.423
66092SOL    HW1  173  10.044   2.827   1.491
66092SOL    HW2  174   9.984   2.693   1.456
66093SOL     OW  175   3.117   6.670   2.131
66093SOL    HW1  176   3.142   6.731   2.201
66093SOL    HW2  177   3.136   6.583   2.167
66094SOL     OW  178  12.971   8.869  14.347
66094SOL    HW1  179  13.055   8.902  14.316
66094SOL    HW2  180  12.978   8.869  14.442
66095SOL     OW  181   4.604   7.622  12.865
66095SOL    HW1  182   4.514   7.652  12.878
66095SOL    HW2  183   4.639   7.681  12.798
66096SOL     OW  184  13.430  13.429  12.683
66096SOL    HW1  185  13.402  13.518  12.706
66096SOL    HW2  186  13.349  13.379  12.676
66097SOL     OW  187  10.919   8.024   3.811
66097SOL    HW1  188  10.868   8.059   3.738
66097SOL    HW2  189  10.939   7.934   3.784
66098SOL     OW  190   3.019  12.568   5.939
66098SOL    HW1  191   2.994  12.629   5.870
66098SOL    HW2  192   3.067  12.621   6.002
66099SOL     OW  193   5.845   4.414  11.186
66099SOL    HW1  194   5.882   4.498  11.212
66099SOL    HW2  195   5.775   4.436  11.125
66100SOL     OW  196   9.655   3.462   8.404
66100SOL    HW1  197   9.681   3.473   8.312
66100SOL    HW2  198   9.665   3.550   8.442
66101SOL     OW  199  14.294  11.750   1.111
66101SOL    HW1  200  14.368  11.752   1.171
66101SOL    HW2  201  14.254  11.664   1.125
66102SOL     OW  202  13.339   3.323   2.990
66102SOL    HW1  203  13.354   3.330   3.084
66102SOL    HW2  204  13.412   3.369   2.950
66103SOL     OW  205   3.713  14.492   9.649
66103SOL    HW1  206   3.705  14.586   9.662
66103SOL    HW2  207   3.794  14.468   9.694
66104SOL     OW  208   9.537   3.385   8.757
66104SOL    HW1  209   9.514   3.402   8.849
66104SOL    HW2  210   9.531   3.470   8.715
66105SOL     OW  211   9.403  14.533  13.372
66105SOL    HW1  212   9.368  14.448  13.401
66105SOL    HW2  213   9.490  14.538  13.411
66106SOL     OW  214   7.195   5.947  13.388
66106SOL    HW1  215   7.100   5.943  13.377
66106SOL    HW2  216   7.208   6.008  13.461
66107SOL     OW  217   5.414   6.195  10.269
66107SOL    HW1  218   5.408   6.108  10.230
66107SOL    HW2  219   5.382   6.183  10.359
66108SOL     OW  220   0.748   5.344   7.353
66108SOL    HW1  221   0.684   5.397   7.399
66108SOL    HW2  222   0.825   5.400   7.344
66109SOL     OW  223   8.779  12.109   6.367
66109SOL    HW1  224   8.785  12.030   6.420
66109SOL    HW2  225   8.808  12.179   6.425
66110SOL     OW  226  12.401   7.869   0.127
66110SOL    HW1  227  12.362   7.954   0.146
66110SOL    HW2  228  12.347   7.806   0.175
66111SOL     OW  229   1.153   6.880  13.829
66111SOL    HW1  230   1.082   6.938  13.799
66111SOL    HW2  231   1.154   6.808  13.766
66112SOL     OW  232  10.003   5.789   8.585
66112SOL    HW1  233  10.010   5.820   8.495
66112SOL    HW2  234  10.091   5.799   8.621
66113SOL     OW  235   3.198   1.738  14.390
66113SOL    HW1  236   3.256   1.738  14.466
66113SOL    HW2  237   3.118   1.695  14.420
66114SOL     OW  238   1.022   3.510   3.834
66114SOL    HW1  239   1.084   3.485   3.902
66114SOL    HW2  240   1.021   3.436   3.774
66115SOL     OW  241  14.724   1.925   2.385
66115SOL    HW1  242  14.719   2.011   2.344
66115SOL    HW2  243  14.666   1.870   2.331
66116SOL     OW  244  12.583  11.719   9.298
66116SOL    HW1  245  12.542  11.669   9.368
66116SOL    HW2  246  12.676  11.700   9.306
66117SOL     OW  247  11.386   0.838   7.959
66117SOL    HW1  248  11.450   0.909   7.965
66117SOL    HW2  249  11.431   0.761   7.993
66118SOL     OW  250   1.474   4.847  13.462
66118SOL    HW1  251   1.473   4.935  13.499
66118SOL    HW2  252   1.463   4.789  13.537
66119SOL     OW  253   8.229   4.560   3.920
66119SOL    HW1  254   8.188   4.489   3.870
66119SOL    HW2  255   8.323   4.548   3.906
66120SOL     OW  256   7.240  10.049   1.142
66120SOL    HW1  257   7.252  10.066   1.235
66120SOL    HW2  258   7.168   9.986   1.138
66121SOL     OW  259  12.175   3.180  14.693
66121SOL    HW1  260  12.221   3.226  14.623
66121SOL    HW2  261  12.240   3.171  14.763
66122SOL     OW  262  12.280   8.717   9.330
66122SOL    HW1  263  12.220   8.642   9.329
66122SOL    HW2  264  12.366   8.679   9.344
66123SOL     OW  265   9.638  13.594   3.189
66123SOL    HW1  266   9.627  13.689   3.193
66123SOL    HW2  267   9.729  13.582   3.161
66124SOL     OW  268  10.690   1.204  10.365
66124SOL    HW1  269  10.658   1.287  10.327
66124SOL    HW2  270  10.765   1.181  10.310
66125SOL     OW  271   8.371  10.904  12.033
66125SOL    HW1  272   8.399  10.983  11.988
66125SOL    HW2  273   8.303  10.866  11.976
66126SOL     OW  274   9.999   6.879  13.852
66126SOL    HW1  275  10.075   6.902  13.798
66126SOL    HW2  276   9.928   6.933  13.817
66127SOL     OW  277  11.597   0.746   2.464
66127SOL    HW1  278  11.554   0.826   2.433
66127SOL    HW2  279  11.527   0.681   2.465
66128SOL     OW  280   8.007   0.775  12.632
66128SOL    HW1  281   7.928   0.828  12.621
66128SOL    HW2  282   8.067   0.832  12.680
66129SOL     OW  283   8.274   9.980  13.022
66129SOL    HW1  284   8.229  10.037  13.084
66129SOL    HW2  285   8.276  10.031  12.940
66130SOL     OW  286  12.445   0.551   2.316
66130SOL    HW1  287  12.482   0.636   2.293
66130SOL    HW2  288  12.519   0.500   2.346
66131SOL     OW  289  14.770  11.743   4.022
66131SOL    HW1  290  14.761  11.769   3.930
66131SOL    HW2  291  14.860  11.709   4.028
66132SOL     OW  292  13.446   4.269   2.749
66132SOL    HW1  293  13.392   4.322   2.690
66132SOL    HW2  294  13.525   4.249   2.698
66133SOL     OW  295   8.726  12.298   3.559
66133SOL    HW1  296   8.794  12.360   3.536
66133SOL    HW2  297   8.768  12.237   3.620
66134SOL     OW  298   3.516  10.981   0.023
66134SOL    HW1  299   3.487  11.033   0.098
66134SOL    HW2  300   3.611  10.996   0.018
66135SOL     OW  301  10.973   5.294  12.789
66135SOL    HW1  302  10.943   5.373  12.832
66135SOL    HW2  303  10.981   5.229  12.859
66136SOL     OW  304   1.203  13.257  12.405
66136SOL    HW1  305   1.212  13.182  12.464
66136SOL    HW2  306   1.123  13.301  12.433
66137SOL     OW  307   7.352   3.413   8.720
66137SOL    HW1  308   7.357   3.324   8.754
66137SOL    HW2  309   7.412   3.414   8.645
66138SOL     OW  310  12.434   1.441  12.980
66138SOL    HW1  311  12.433   1.527  12.939
66138SOL    HW2  312  12.389   1.453  13.063
66139SOL     OW  313   5.449   4.673  11.048
66139SOL    HW1  314   5.476   4.645  11.136
66139SOL    HW2  315   5.513   4.633  10.989
66140SOL     OW  316   1.737   2.383   8.718
66140SOL    HW1  317   1.785   2.353   8.640
66140SOL    HW2  318   1.651   2.341   8.710
66141SOL     OW  319   5.335  14.510   4.932
66141SOL    HW1  320   5.422  14.478   4.954
66141SOL    HW2  321   5.348  14.601   4.906
66142SOL     OW  322   3.744  13.353   9.173
66142SOL    HW1  323   3.710  13.390   9.255
66142SOL    HW2  324   3.714  13.262   9.173
66143SOL     OW  325  11.989   4.557  14.401
66143SOL    HW1  326  12.027   4.581  14.486
66143SOL    HW2  327  12.059   4.509  14.356
66144SOL     OW  328   5.674  10.260   1.030
66144SOL    HW1  329   5.677  10.255   0.934
66144SOL    HW2  330   5.588  10.299   1.049
66145SOL     OW  331  14.253   4.765   7.165
66145SOL    HW1  332  14.218   4.787   7.251
66145SOL    HW2  333  14.220   4.676   7.147
66146SOL     OW  334   5.074   3.172  14.815
66146SOL    HW1  335   5.115   3.208   0.012
66146SOL    HW2  336   5.143   3.175  14.749
66147SOL     OW  337  11.295   5.271  11.449
66147SOL    HW1  338  11.351   5.222  11.388
66147SOL    HW2  339  11.298   5.220  11.530
66148SOL     OW  340   6.652   0.449  13.428
66148SOL    HW1  341   6.692   0.383  13.372
66148SOL    HW2  342   6.596   0.400  13.488
66149SOL     OW  343   7.701  14.871   3.331
66149SOL    HW1  344   7.726  14.857   3.240
66149SOL    HW2  345   7.677   0.081   3.336
66150SOL     OW  346   3.705   8.492  10.228
66150SOL    HW1  347   3.788   8.506  10.273
66150SOL    HW2  348   3.681   8.578  10.195
66151SOL     OW  349   7.939   2.129   9.360
66151SOL    HW1  350   7.895   2.144   9.276
66151SOL    HW2  351   7.867   2.111   9.422
66152SOL     OW  352   6.145  13.329  14.618
66152SOL    HW1  353   6.219  13.299  14.671
66152SOL    HW2  354   6.112  13.250  14.575
66153SOL     OW  355  13.092   2.276  13.931
66153SOL    HW1  356  13.023   2.218  13.899
66153SOL    HW2  357  13.132   2.311  13.851
66154SOL     OW  358   6.023   4.284   1.966
66154SOL    HW1  359   6.003   4.239   1.884
66154SOL    HW2  360   6.051   4.372   1.939
66155SOL     OW  361   3.913  11.268   0.286
66155SOL    HW1  362   3.933  11.202   0.219
66155SOL    HW2  363   3.994  11.279   0.334
66156SOL     OW  364  13.896  14.231   4.318
66156SOL    HW1  365  13.847  14.290   4.261
66156SOL    HW2  366  13.853  14.238   4.403
66157SOL     OW  367   8.045   0.691  12.366
66157SOL    HW1  368   8.062   0.597  12.370
66157SOL    HW2  369   8.039   0.718  12.458
66158SOL     OW  370   6.354   9.200  12.188
66158SOL    HW1  371   6.370   9.120  12.138
66158SOL    HW2  372   6.312   9.259  12.126
66159SOL     OW  373   0.848   3.650   9.881
66159SOL    HW1  374   0.803   3.715   9.935
66159SOL    HW2  375   0.871   3.580   9.942
66160SOL     OW  376   3.676   3.930   5.031
66160SOL    HW1  377   3.672   3.862   5.099
66160SOL    HW2  378   3.648   4.010   5.075
66161SOL     OW  379   7.321  12.883   6.360
66161SOL    HW1  380   7.248  12.934   6.392
66161SOL    HW2  381   7.398  12.939   6.373
66162SOL     OW  382   3.315   8.109   9.056
66162SOL    HW1  383   3.348   8.056   9.128
66162SOL    HW2  384   3.282   8.189   9.098
66163SOL     OW  385   7.135   8.955  12.478
66163SOL    HW1  386   7.172   8.964  12.390
66163SOL    HW2  387   7.072   9.027  12.484
66164SOL     OW  388   4.239   3.081  11.606
66164SOL    HW1  389   4.278   3.009  11.557
66164SOL    HW2  390   4.193   3.134  11.541
66165SOL     OW  391   7.782   4.339  12.445
66165SOL    HW1  392   7.738   4.296  12.372
66165SOL    HW2  393   7.783   4.274  12.515
66166SOL     OW  394   0.428   5.182   2.603
66166SOL    HW1  395   0.507   5.217   2.645
66166SOL    HW2  396   0.377   5.259   2.580
66167SOL     OW  397   7.005   5.288   6.469
66167SOL    HW1  398   6.970   5.365   6.514
66167SOL    HW2  399   7.001   5.311   6.376
66168SOL     OW  400   3.642   7.346   6.623
66168SOL    HW1  401   3.574   7.409   6.599
66168SOL    HW2  402   3.712   7.400   6.659
66169SOL     OW  403   3.148   0.533   0.732
66169SOL    HW1  404   3.170   0.486   0.812
66169SOL    HW2  405   3.069   0.582   0.755
66170SOL     OW  406   4.755  12.007   4.559
66170SOL    HW1  407   4.705  12.011   4.641
66170SOL    HW2  408   4.792  12.095   4.550
66171SOL     OW  409   1.008  10.332   1.500
66171SOL    HW1  410   1.044  10.270   1.564
66171SOL    HW2  411   0.942  10.282   1.453
66172SOL     OW  412   4.860   9.582   7.660
66172SOL    HW1  413   4.863   9.489   7.681
66172SOL    HW2  414   4.900   9.589   7.573
66173SOL     OW  415   2.914   0.199   4.304
66173SOL    HW1  416   3.005   0.223   4.288
66173SOL    HW2  417   2.890   0.143   4.231
66174SOL     OW  418  10.184  13.657   0.806
66174SOL    HW1  419  10.097  13.633   0.773
66174SOL    HW2  420  10.244  13.604   0.754
66175SOL     OW  421   2.313   1.895  14.150
66175SOL    HW1  422   2.343   1.971  14.098
66175SOL    HW2  423   2.261   1.933  14.220
66176SOL     OW  424  11.102   3.980   2.405
66176SOL    HW1  425  11.181   3.928   2.418
66176SOL    HW2  426  11.113   4.057   2.460
66177SOL     OW  427   9.706   3.322   2.560
66177SOL    HW1  428   9.755   3.350   2.483
66177SOL    HW2  429   9.766   3.266   2.608
66178SOL     OW  430  10.691  13.241  12.160
66178SOL    HW1  431  10.596  13.243  12.168
66178SOL    HW2  432  10.708  13.185  12.085
66179SOL     OW  433  11.312   2.417  12.328
66179SOL    HW1  434  11.347   2.328  12.332
66179SOL    HW2  435  11.229   2.412  12.374
66180SOL     OW  436   6.528   3.076  10.084
66180SOL    HW1  437   6.496   2.996  10.127
66180SOL    HW2  438   6.620   3.058  10.064
66181SOL     OW  439  10.880   3.628   6.320
66181SOL    HW1  440  10.862   3.561   6.386
66181SOL    HW2  441  10.963   3.602   6.281
66182SOL     OW  442   7.941  10.564   3.912
66182SOL    HW1  443   7.923  10.503   3.840
66182SOL    HW2  444   7.927  10.650   3.874
66183SOL     OW  445   3.842   3.042  12.511
66183SOL    HW1  446   3.882   3.049  12.425
66183SOL    HW2  447   3.748   3.052  12.495
66184SOL     OW  448  10.178   3.561   0.212
66184SOL    HW1  449  10.165   3.583   0.120
66184SOL    HW2  450  10.205   3.469   0.211
66185SOL     OW  451   1.583   0.825   2.541
66185SOL    HW1  452   1.492   0.796   2.529
66185SOL    HW2  453   1.588   0.848   2.634
66186SOL     OW  454   1.418  14.038   7.448
66186SOL    HW1  455   1.359  13.984   7.395
66186SOL    HW2  456   1.387  14.028   7.538
66187SOL     OW  457  13.836   3.069   5.657
66187SOL    HW1  458  13.804   3.112   5.736
66187SOL    HW2  459  13.824   2.976   5.674
66188SOL     OW  460  10.092   8.851  14.398
66188SOL    HW1  461  10.020   8.885  14.450
66188SOL    HW2  462  10.060   8.855  14.308
66189SOL     OW  463  12.304   8.763  11.927
66189SOL    HW1  464  12.258   8.679  11.925
66189SOL    HW2  465  12.238   8.828  11.903
66190SOL     OW  466   0.745   4.270   6.321
66190SOL    HW1  467   0.695   4.351   6.311
66190SOL    HW2  468   0.819   4.294   6.377
66191SOL     OW  469  13.191  10.074   2.745
66191SOL    HW1  470  13.275  10.108   2.716
66191SOL    HW2  471  13.162  10.017   2.673
66192SOL     OW  472   3.374   7.854   6.670
66192SOL    HW1  473   3.332   7.927   6.716
66192SOL    HW2  474   3.321   7.842   6.591
66193SOL     OW  475   2.834   2.930   1.235
66193SOL    HW1  476   2.826   2.871   1.160
66193SOL    HW2  477   2.922   2.913   1.270
66194SOL     OW  478   9.917   8.761  12.221
66194SOL    HW1  479   9.892   8.704  12.293
66194SOL    HW2  480   9.929   8.702  12.146
66195SOL     OW  481  14.685   2.150   9.132
66195SOL    HW1  482  14.595   2.149   9.164
66195SOL    HW2  483  14.704   2.242   9.116
66196SOL     OW  484   2.171  14.844   9.292
66196SOL    HW1  485   2.104  14.862   9.358
66196SOL    HW2  486   2.166   0.036   9.232
66197SOL     OW  487  14.302  10.004   1.391
66197SOL    HW1  488  14.237   9.933   1.389
66197SOL    HW2  489  14.318  10.019   1.484
66198SOL     OW  490   9.257   2.932   3.232
66198SOL    HW1  491   9.253   2.840   3.255
66198SOL    HW2  492   9.342   2.942   3.188
66199SOL     OW  493   5.988  11.197   3.466
66199SOL    HW1  494   6.055  11.244   3.515
66199SOL    HW2  495   6.006  11.218   3.375
66200SOL     OW  496   9.655   8.248  14.034
66200SOL    HW1  497   9.589   8.305  14.073
66200SOL    HW2  498   9.732   8.260  14.088
66201SOL     OW  499  12.404  11.904  13.405
66201SOL    HW1  500  12.382  11.923  13.496
66201SOL    HW2  501  12.461  11.976  13.379
66202SOL     OW  502   5.569   9.627   3.428
66202SOL    HW1  503   5.656   9.623   3.467
66202SOL    HW2  504   5.545   9.535   3.415
66203SOL     OW  505   0.075   9.783   4.036
66203SOL    HW1  506   0.036   9.815   3.955
66203SOL    HW2  507   0.145   9.725   4.008
66204SOL     OW  508   5.210  11.019  14.055
66204SOL    HW1  509   5.203  10.944  14.114
66204SOL    HW2  510   5.273  10.991  13.988
66205SOL     OW  511   1.560  13.455   1.876
66205SOL    HW1  512   1.484  13.494   1.831
66205SOL    HW2  513   1.569  13.507   1.956
66206SOL     OW  514  12.623  13.620  14.123
66206SOL    HW1  515  12.586  13.597  14.038
66206SOL    HW2  516  12.699  13.674  14.103
66207SOL     OW  517   7.471   9.391   7.817
66207SOL    HW1  518   7.439   9.300   7.821
66207SOL    HW2  519   7.507   9.407   7.904
66208SOL     OW  520   7.119   7.097   1.105
66208SOL    HW1  521   7.159   7.043   1.173
66208SOL    HW2  522   7.177   7.172   1.097
66209SOL     OW  523   1.491  12.834  14.387
66209SOL    HW1  524   1.524  12.913  14.430
66209SOL    HW2  525   1.548  12.764  14.419
66210SOL     OW  526   8.003   4.449   9.284
66210SOL    HW1  527   8.033   4.362   9.310
66210SOL    HW2  528   7.951   4.479   9.359
66211SOL     OW  529   4.068   0.458   6.824
66211SOL    HW1  530   4.015   0.394   6.872
66211SOL    HW2  531   4.150   0.462   6.874
66212SOL     OW  532   8.180   7.468  10.622
66212SOL    HW1  533   8.135   7.515  10.692
66212SOL    HW2  534   8.136   7.384  10.617
66213SOL     OW  535   2.140   7.641   9.355
66213SOL    HW1  536   2.127   7.688   9.272
66213SOL    HW2  537   2.229   7.607   9.349
66214SOL     OW  538  14.421   0.164  12.635
66214SOL    HW1  539  14.394   0.164  12.544
66214SOL    HW2  540  14.476   0.242  12.644
66215SOL     OW  541   7.714   1.099   1.308
66215SOL    HW1  542   7.809   1.094   1.292
66215SOL    HW2  543   7.706   1.100   1.404
66216SOL     OW  544  12.006   6.183   2.813
66216SOL    HW1  545  12.021   6.267   2.857
66216SOL    HW2  546  11.958   6.205   2.733
66217SOL     OW  547   4.707   9.271   2.090
66217SOL    HW1  548   4.775   9.243   2.029
66217SOL    HW2  549   4.636   9.209   2.077
66218SOL     OW  550   2.196  12.407   3.579
66218SOL    HW1  551   2.255  12.350   3.628
66218SOL    HW2  552   2.138  12.445   3.645
66219SOL     OW  553   1.503   3.984  10.963
66219SOL    HW1  554   1.437   3.915  10.958
66219SOL    HW2  555   1.454   4.065  10.945
66220SOL     OW  556  13.217  14.188  13.723
66220SOL    HW1  557  13.175  14.127  13.662
66220SOL    HW2  558  13.153  14.200  13.793
66221SOL     OW  559   6.809   6.569   2.832
66221SOL    HW1  560   6.792   6.627   2.906
66221SOL    HW2  561   6.736   6.585   2.771
66222SOL     OW  562  11.721   7.787   8.340
66222SOL    HW1  563  11.684   7.795   8.252
66222SOL    HW2  564  11.712   7.694   8.361
66223SOL     OW  565   2.727   4.943   4.863
66223SOL    HW1  566   2.682   4.967   4.782
66223SOL    HW2  567   2.685   4.861   4.890
66224SOL     OW  568   5.545   0.688  11.703
66224SOL    HW1  569   5.605   0.618  11.676
66224SOL    HW2  570   5.560   0.758  11.640
66225SOL     OW  571   1.930  12.643   0.762
66225SOL    HW1  572   2.026  12.649   0.766
66225SOL    HW2  573   1.906  12.593   0.840
66226SOL     OW  574   5.392  10.511  10.848
66226SOL    HW1  575   5.407  10.417  10.841
66226SOL    HW2  576   5.470  10.551  10.808
66227SOL     OW  577   9.457   1.075  10.226
66227SOL    HW1  578   9.546   1.072  10.259
66227SOL    HW2  579   9.464   1.052  10.133
66228SOL     OW  580  13.844   6.468   0.127
66228SOL    HW1  581  13.846   6.377   0.157
66228SOL    HW2  582  13.894   6.467   0.045
66229SOL     OW  583  11.264   6.136   6.532
66229SOL    HW1  584  11.266   6.099   6.444
66229SOL    HW2  585  11.203   6.079   6.580
66230SOL     OW  586   5.649   5.799   4.474
66230SOL    HW1  587   5.739   5.773   4.454
66230SOL    HW2  588   5.658   5.877   4.528
66231SOL     OW  589  11.271   6.133   3.399
66231SOL    HW1  590  11.276   6.191   3.323
66231SOL    HW2  591  11.185   6.152   3.438
66232SOL     OW  592  12.357  12.045   6.152
66232SOL    HW1  593  12.425  12.096   6.108
66232SOL    HW2  594  12.337  11.974   6.090
66233SOL     OW  595   2.475  12.514  11.749
66233SOL    HW1  596   2.444  12.502  11.839
66233SOL    HW2  597   2.477  12.609  11.736
66234SOL     OW  598   9.890   9.280  10.072
66234SOL    HW1  599   9.800   9.268  10.103
66234SOL    HW2  600   9.887   9.256   9.979
66235SOL     OW  601   5.637   2.607   1.948
66235SOL    HW1  602   5.702   2.663   1.990
66235SOL    HW2  603   5.672   2.519   1.957
66236SOL     OW  604   6.024   6.214   3.946
66236SOL    HW1  605   6.014   6.303   3.980
66236SOL    HW2  606   6.006   6.221   3.853
66237SOL     OW  607  10.148  13.338  12.201
66237SOL    HW1  608  10.170  13.328  12.108
66237SOL    HW2  609  10.059  13.301  12.208
66238SOL     OW  610  14.143  11.628   0.704
66238SOL    HW1  611  14.224  11.678   0.710
66238SOL    HW2  612  14.109  11.625   0.793
66239SOL     OW  613   4.670   1.642   4.633
66239SOL    HW1  614   4.591   1.592   4.610
66239SOL    HW2  615   4.718   1.649   4.551
66240SOL     OW  616   5.483   0.228   9.279
66240SOL    HW1  617   5.389   0.239   9.262
66240SOL    HW2  618   5.493   0.246   9.373
66241SOL     OW  619  10.741   2.479   4.746
66241SOL    HW1  620  10.796   2.552   4.775
66241SOL    HW2  621  10.663   2.484   4.802
66242SOL     OW  622  10.700  13.849  11.331
66242SOL    HW1  623  10.618  13.874  11.289
66242SOL    HW2  624  10.762  13.919  11.307
66243SOL     OW  625  13.441  11.611   0.479
66243SOL    HW1  626  13.535  11.611   0.492
66243SOL    HW2  627  13.419  11.521   0.456
66244SOL     OW  628  13.799  10.224   0.153
66244SOL    HW1  629  13.866  10.289   0.131
66244SOL    HW2  630  13.800  10.163   0.079
66245SOL     OW  631   7.796   4.909   8.278
66245SOL    HW1  632   7.749   4.830   8.253
66245SOL    HW2  633   7.737   4.981   8.254
66246SOL     OW  634  12.249  13.404   2.881
66246SOL    HW1  635  12.166  13.413   2.835
66246SOL    HW2  636  12.254  13.312   2.905
66247SOL     OW  637   1.965   0.814  12.564
66247SOL    HW1  638   2.060   0.802  12.563
66247SOL    HW2  639   1.940   0.806  12.656
66248SOL     OW  640   3.787   6.637  10.122
66248SOL    HW1  641   3.852   6.628  10.192
66248SOL    HW2  642   3.718   6.691  10.160
66249SOL     OW  643   9.299  14.745   9.828
66249SOL    HW1  644   9.210  14.764   9.798
66249SOL    HW2  645   9.335  14.687   9.761
66250SOL     OW  646  14.227  13.781   6.156
66250SOL    HW1  647  14.217  13.834   6.077
66250SOL    HW2  648  14.308  13.813   6.196
66251SOL     OW  649  11.841   8.770   1.725
66251SOL    HW1  650  11.867   8.704   1.661
66251SOL    HW2  651  11.775   8.727   1.779
66252SOL     OW  652   5.324   1.680   8.630
66252SOL    HW1  653   5.361   1.658   8.715
66252SOL    HW2  654   5.381   1.748   8.595
66253SOL     OW  655  13.975   7.225   3.752
66253SOL    HW1  656  13.927   7.218   3.835
66253SOL    HW2  657  14.067   7.227   3.777
66254SOL     OW  658   0.016   1.340   0.918
66254SOL    HW1  659   0.024   1.255   0.875
66254SOL    HW2  660  14.823   1.381   0.875
66255SOL     OW  661  12.346   5.130  12.125
66255SOL    HW1  662  12.364   5.042  12.090
66255SOL    HW2  663  12.283   5.116  12.195
66256SOL     OW  664   2.092  13.737  13.164
66256SOL    HW1  665   2.137  13.726  13.248
66256SOL    HW2  666   2.086  13.831  13.152
66257SOL     OW  667   3.473   0.791   0.038
66257SOL    HW1  668   3.382   0.810   0.061
66257SOL    HW2  669   3.522   0.868   0.066
66258SOL     OW  670   3.475  10.861  10.718
66258SOL    HW1  671   3.448  10.773  10.691
66258SOL    HW2  672   3.513  10.899  10.638
66259SOL     OW  673   7.910  12.385  14.339
66259SOL    HW1  674   7.914  12.439  14.260
66259SOL    HW2  675   7.982  12.416  14.393
66260SOL     OW  676   7.457  12.362  11.204
66260SOL    HW1  677   7.484  12.272  11.186
66260SOL    HW2  678   7.424  12.360  11.293
66261SOL     OW  679   6.551   9.394   6.424
66261SOL    HW1  680   6.571   9.323   6.484
66261SOL    HW2  681   6.474   9.364   6.376
66262SOL     OW  682   2.651  10.441  13.962
66262SOL    HW1  683   2.571  10.470  14.007
66262SOL    HW2  684   2.626  10.357  13.922
66263SOL     OW  685   5.023   2.522   0.142
66263SOL    HW1  686   5.006   2.563   0.227
66263SOL    HW2  687   4.983   2.436   0.149
66264SOL     OW  688   2.019   2.419   1.755
66264SOL    HW1  689   2.058   2.455   1.675
66264SOL    HW2  690   2.056   2.331   1.762
66265SOL     OW  691   9.967   9.008  12.071
66265SOL    HW1  692   9.964   8.922  12.115
66265SOL    HW2  693   9.878   9.041  12.077
66266SOL     OW  694   3.150  14.355  14.339
66266SOL    HW1  695   3.173  14.268  14.372
66266SOL    HW2  696   3.074  14.381  14.392
66267SOL     OW  697   8.966  10.184  13.337
66267SOL    HW1  698   8.949  10.236  13.415
66267SOL    HW2  699   8.879  10.164  13.302
66268SOL     OW  700   4.401  12.176  14.253
66268SOL    HW1  701   4.472  12.222  14.209
66268SOL    HW2  702   4.323  12.200  14.203
66269SOL     OW  703  12.578   9.975   0.031
66269SOL    HW1  704  12.567   9.880   0.034
66269SOL    HW2  705  12.651   9.989  14.854
66270SOL     OW  706   3.669   9.263   3.692
66270SOL    HW1  707   3.760   9.264   3.720
66270SOL    HW2  708   3.664   9.332   3.626
66271SOL     OW  709   2.843   5.735   3.847
66271SOL    HW1  710   2.828   5.806   3.910
66271SOL    HW2  711   2.783   5.665   3.875
66272SOL     OW  712  13.431  13.589   5.418
66272SOL    HW1  713  13.502  13.526   5.429
66272SOL    HW2  714  13.362  13.541   5.372
66273SOL     OW  715   4.974   9.976   4.459
66273SOL    HW1  716   5.037  10.048   4.460
66273SOL    HW2  717   5.025   9.899   4.484
66274SOL     OW  718   9.256   8.394   2.584
66274SOL    HW1  719   9.222   8.325   2.641
66274SOL    HW2  720   9.180   8.449   2.564
66275SOL     OW  721  13.648   9.737   4.780
66275SOL    HW1  722  13.674   9.816   4.827
66275SOL    HW2  723  13.723   9.677   4.788
66276SOL     OW  724   7.293   7.286   4.419
66276SOL    HW1  725   7.288   7.356   4.484
66276SOL    HW2  726   7.358   7.318   4.356
66277SOL     OW  727   7.425   8.933   0.531
66277SOL    HW1  728   7.480   8.987   0.474
66277SOL    HW2  729   7.474   8.925   0.613
66278SOL     OW  730   5.709  13.723   2.304
66278SOL    HW1  731   5.639  13.756   2.248
66278SOL    HW2  732   5.764  13.670   2.246
66279SOL     OW  733  14.133   6.840   1.619
66279SOL    HW1  734  14.130   6.766   1.558
66279SOL    HW2  735  14.226   6.860   1.628
66280SOL     OW  736   2.644   0.324  10.312
66280SOL    HW1  737   2.676   0.283  10.392
66280SOL    HW2  738   2.686   0.410  10.310
66281SOL     OW  739   0.882   1.021   1.572
66281SOL    HW1  740   0.819   1.071   1.521
66281SOL    HW2  741   0.956   1.006   1.513
66282SOL     OW  742   5.564  11.136   8.535
66282SOL    HW1  743   5.655  11.107   8.538
66282SOL    HW2  744   5.561  11.210   8.596
66283SOL     OW  745   5.796  10.959   7.655
66283SOL    HW1  746   5.846  11.020   7.602
66283SOL    HW2  747   5.705  10.982   7.639
66284SOL     OW  748   0.805   6.668  11.864
66284SOL    HW1  749   0.784   6.665  11.771
66284SOL    HW2  750   0.767   6.587  11.900
66285SOL     OW  751   8.089  10.522  10.655
66285SOL    HW1  752   8.118  10.485  10.572
66285SOL    HW2  753   8.001  10.554  10.638
66286SOL     OW  754   3.753   8.031   3.065
66286SOL    HW1  755   3.692   8.102   3.083
66286SOL    HW2  756   3.723   7.959   3.120
66287SOL     OW  757  14.798   7.135  13.459
66287SOL    HW1  758  14.829   7.098  13.376
66287SOL    HW2  759  14.877   7.143  13.513
66288SOL     OW  760   1.715  11.789   9.572
66288SOL    HW1  761   1.722  11.694   9.558
66288SOL    HW2  762   1.791  11.811   9.625
66289SOL     OW  763   6.947   2.872   6.068
66289SOL    HW1  764   6.970   2.897   6.157
66289SOL    HW2  765   6.965   2.950   6.016
66290SOL     OW  766   8.738   8.355  14.023
66290SOL    HW1  767   8.701   8.305  13.950
66290SOL    HW2  768   8.716   8.304  14.101
66291SOL     OW  769  11.547   0.541  13.663
66291SOL    HW1  770  11.468   0.496  13.632
66291SOL    HW2  771  11.551   0.521  13.756
66292SOL     OW  772   3.104   0.366   5.352
66292SOL    HW1  773   3.182   0.368   5.408
66292SOL    HW2  774   3.045   0.431   5.391
66293SOL     OW  775  10.861   4.747  11.416
66293SOL    HW1  776  10.863   4.668  11.363
66293SOL    HW2  777  10.804   4.807  11.369
66294SOL     OW  778   0.464   2.343   4.296
66294SOL    HW1  779   0.437   2.425   4.256
66294SOL    HW2  780   0.519   2.369   4.370
66295SOL     OW  781   5.071  11.077   5.184
66295SOL    HW1  782   5.002  11.034   5.135
66295SOL    HW2  783   5.071  11.033   5.269
66296SOL     OW  784   0.822   2.324  10.827
66296SOL    HW1  785   0.840   2.407  10.784
66296SOL    HW2  786   0.893   2.266  10.801
66297SOL     OW  787   1.424  13.517   8.118
66297SOL    HW1  788   1.342  13.468   8.128
66297SOL    HW2  789   1.439  13.521   8.023
66298SOL     OW  790   9.743   7.338   2.391
66298SOL    HW1  791   9.718   7.422   2.428
66298SOL    HW2  792   9.661   7.294   2.370
66299SOL     OW  793   3.123   9.662   7.596
66299SOL    HW1  794   3.151   9.745   7.635
66299SOL    HW2  795   3.041   9.641   7.641
66300SOL     OW  796   7.633  13.757   5.733
66300SOL    HW1  797   7.606  13.689   5.671
66300SOL    HW2  798   7.551  13.785   5.775
66301SOL     OW  799   5.684  11.369   1.865
66301SOL    HW1  800   5.734  11.439   1.823
66301SOL    HW2  801   5.598  11.407   1.881
66302SOL     OW  802  13.888   6.122   5.537
66302SOL    HW1  803  13.931   6.193   5.584
66302SOL    HW2  804  13.808   6.162   5.502
66303SOL     OW  805   6.852   5.992  11.450
66303SOL    HW1  806   6.933   5.985  11.501
66303SOL    HW2  807   6.844   5.907  11.406
66304SOL     OW  808   9.538  11.978   3.777
66304SOL    HW1  809   9.593  11.900   3.774
66304SOL    HW2  810   9.457  11.951   3.732
66305SOL     OW  811  13.188   9.841   1.699
66305SOL    HW1  812  13.118   9.892   1.740
66305SOL    HW2  813  13.142   9.770   1.654
66306SOL     OW  814  14.249  11.523   5.297
66306SOL    HW1  815  14.180  11.589   5.304
66306SOL    HW2  816  14.205  11.441   5.320
66307SOL     OW  817   0.102  12.987   7.958
66307SOL    HW1  818   0.171  12.950   8.014
66307SOL    HW2  819   0.122  12.954   7.871
66308SOL     OW  820   2.415   1.660  13.534
66308SOL    HW1  821   2.481   1.674  13.602
66308SOL    HW2  822   2.451   1.590  13.480
66309SOL     OW  823   2.241   1.603   0.685
66309SOL    HW1  824   2.295   1.542   0.635
66309SOL    HW2  825   2.302   1.669   0.718
66310SOL     OW  826   1.888   8.822  12.403
66310SOL    HW1  827   1.983   8.814  12.395
66310SOL    HW2  828   1.869   8.795  12.493
66311SOL     OW  829  13.432   9.842   0.162
66311SOL    HW1  830  13.382   9.858   0.082
66311SOL    HW2  831  13.387   9.894   0.229
66312SOL     OW  832   7.222  11.008   6.765
66312SOL    HW1  833   7.241  11.083   6.708
66312SOL    HW2  834   7.285  10.941   6.737
66313SOL     OW  835   8.428   4.396  12.639
66313SOL    HW1  836   8.357   4.448  12.603
66313SOL    HW2  837   8.408   4.391  12.733
66314SOL     OW  838   1.088   7.724  13.401
66314SOL    HW1  839   1.003   7.763  13.380
66314SOL    HW2  840   1.067   7.644  13.448
66315SOL     OW  841  13.591   0.551   5.603
66315SOL    HW1  842  13.564   0.459   5.597
66315SOL    HW2  843  13.680   0.548   5.638
66316SOL     OW  844   4.654   7.864   7.029
66316SOL    HW1  845   4.680   7.902   6.945
66316SOL    HW2  846   4.572   7.906   7.051
66317SOL     OW  847  14.525   5.843   3.338
66317SOL    HW1  848  14.562   5.828   3.425
66317SOL    HW2  849  14.459   5.773   3.328
66318SOL     OW  850  13.474   5.281   0.814
66318SOL    HW1  851  13.379   5.276   0.825
66318SOL    HW2  852  13.486   5.333   0.735
66319SOL     OW  853   0.442  11.070   6.455
66319SOL    HW1  854   0.454  11.071   6.360
66319SOL    HW2  855   0.521  11.113   6.489
66320SOL     OW  856   3.767   7.532   6.453
66320SOL    HW1  857   3.810   7.611   6.485
66320SOL    HW2  858   3.720   7.561   6.375
66321SOL     OW  859   3.010  14.663  13.297
66321SOL    HW1  860   2.980  14.752  13.280
66321SOL    HW2  861   3.090  14.674  13.349
66322SOL     OW  862   8.138   2.124   2.867
66322SOL    HW1  863   8.195   2.128   2.790
66322SOL    HW2  864   8.189   2.162   2.938
66323SOL     OW  865   8.867   8.087  14.862
66323SOL    HW1  866   8.826   8.146   0.043
66323SOL    HW2  867   8.933   8.040   0.032
66324SOL     OW  868  11.123   2.584   3.251
66324SOL    HW1  869  11.083   2.593   3.165
66324SOL    HW2  870  11.217   2.585   3.234
66325SOL     OW  871   2.964   7.237   9.359
66325SOL    HW1  872   2.945   7.226   9.452
66325SOL    HW2  873   3.035   7.176   9.342
66326SOL     OW  874   4.649   4.100  14.791
66326SOL    HW1  875   4.690   4.020  14.825
66326SOL    HW2  876   4.719   4.165  14.795
66327SOL     OW  877  12.315  11.760  13.059
66327SOL    HW1  878  12.391  11.786  13.007
66327SOL    HW2  879  12.263  11.705  12.999
66328SOL     OW  880  12.116   6.494  14.880
66328SOL    HW1  881  12.142   6.573  14.833
66328SOL    HW2  882  12.172   6.425  14.843
66329SOL     OW  883   3.215   1.839  10.784
66329SOL    HW1  884   3.307   1.848  10.810
66329SOL    HW2  885   3.209   1.888  10.701
66330SOL     OW  886  13.711  11.262   9.665
66330SOL    HW1  887  13.696  11.236   9.575
66330SOL    HW2  888  13.805  11.281   9.669
66331SOL     OW  889   9.108   2.369   1.906
66331SOL    HW1  890   9.110   2.343   1.998
66331SOL    HW2  891   9.188   2.421   1.894
66332SOL     OW  892  13.056   3.636   6.517
66332SOL    HW1  893  12.966   3.664   6.529
66332SOL    HW2  894  13.058   3.595   6.430
66333SOL     OW  895  11.648   8.183   6.896
66333SOL    HW1  896  11.595   8.263   6.893
66333SOL    HW2  897  11.604   8.122   6.837
66334SOL     OW  898   8.398   3.694   0.786
66334SOL    HW1  899   8.344   3.626   0.826
66334SOL    HW2  900   8.476   3.698   0.841
66335SOL     OW  901   3.015  13.461   9.738
66335SOL    HW1  902   2.975  13.519   9.673
66335SOL    HW2  903   3.088  13.512   9.773
66336SOL     OW  904   5.105   8.488   9.891
66336SOL    HW1  905   5.132   8.574   9.861
66336SOL    HW2  906   5.030   8.504   9.948
66337SOL     OW  907   7.897   0.753   8.098
66337SOL    HW1  908   7.811   0.765   8.140
66337SOL    HW2  909   7.876   0.730   8.007
66338SOL     OW  910  10.805   1.193  14.353
66338SOL    HW1  911  10.781   1.100  14.356
66338SOL    HW2  912  10.722   1.239  14.342
66339SOL     OW  913   9.404   5.390   5.701
66339SOL    HW1  914   9.430   5.439   5.780
66339SOL    HW2  915   9.448   5.306   5.710
66340SOL     OW  916   5.915   9.079   4.058
66340SOL    HW1  917   5.884   9.157   4.011
66340SOL    HW2  918   6.009   9.094   4.069
66341SOL     OW  919  11.102   5.987   8.453
66341SOL    HW1  920  11.128   6.056   8.392
66341SOL    HW2  921  11.170   5.987   8.520
66342SOL     OW  922   1.772   4.275   4.931
66342SOL    HW1  923   1.795   4.186   4.958
66342SOL    HW2  924   1.779   4.327   5.011
66343SOL     OW  925   3.295  13.640  13.366
66343SOL    HW1  926   3.275  13.612  13.456
66343SOL    HW2  927   3.338  13.565  13.327
66344SOL     OW  928   3.097   8.695   0.765
66344SOL    HW1  929   3.119   8.783   0.735
66344SOL    HW2  930   3.133   8.690   0.854
66345SOL     OW  931   3.339   7.512  11.565
66345SOL    HW1  932   3.385   7.452  11.624
66345SOL    HW2  933   3.409   7.560  11.520
66346SOL     OW  934   5.143   4.474   2.688
66346SOL    HW1  935   5.111   4.404   2.745
66346SOL    HW2  936   5.068   4.499   2.634
66347SOL     OW  937   8.212  12.888  14.744
66347SOL    HW1  938   8.254  12.848  14.820
66347SOL    HW2  939   8.167  12.815  14.701
66348SOL     OW  940   7.796  14.196   2.624
66348SOL    HW1  941   7.742  14.272   2.600
66348SOL    HW2  942   7.802  14.144   2.544
66349SOL     OW  943  11.509   2.787   2.089
66349SOL    HW1  944  11.568   2.860   2.112
66349SOL    HW2  945  11.546   2.750   2.009
66350SOL     OW  946  14.181  14.642  10.223
66350SOL    HW1  947  14.136  14.594  10.153
66350SOL    HW2  948  14.119  14.642  10.296
66351SOL     OW  949  14.880   5.494   9.803
66351SOL    HW1  950   0.022   5.434   9.874
66351SOL    HW2  951  14.804   5.541   9.837
66352SOL     OW  952   6.460   7.598   0.920
66352SOL    HW1  953   6.392   7.576   0.983
66352SOL    HW2  954   6.449   7.536   0.848
66353SOL     OW  955   0.304   4.000   3.368
66353SOL    HW1  956   0.357   4.075   3.393
66353SOL    HW2  957   0.213   4.028   3.384
66354SOL     OW  958   9.565   3.080   7.464
66354SOL    HW1  959   9.559   3.149   7.398
66354SOL    HW2  960   9.656   3.082   7.493
66355SOL     OW  961   6.186   9.715  11.967
66355SOL    HW1  962   6.234   9.636  11.943
66355SOL    HW2  963   6.132   9.688  12.041
66356SOL     OW  964   5.775   7.699   7.937
66356SOL    HW1  965   5.765   7.793   7.922
66356SOL    HW2  966   5.860   7.691   7.979
66357SOL     OW  967  11.863  13.930  10.948
66357SOL    HW1  968  11.781  13.957  10.908
66357SOL    HW2  969  11.838  13.882  11.027
66358SOL     OW  970   2.838   7.668  14.769
66358SOL    HW1  971   2.933   7.657  14.775
66358SOL    HW2  972   2.822   7.756  14.803
66359SOL     OW  973  13.739   6.342  12.490
66359SOL    HW1  974  13.668   6.322  12.551
66359SOL    HW2  975  13.808   6.381  12.544
66360SOL     OW  976   1.618   9.609  10.312
66360SOL    HW1  977   1.693   9.561  10.277
66360SOL    HW2  978   1.555   9.542  10.336
66361SOL     OW  979   4.194  12.401   1.186
66361SOL    HW1  980   4.187  12.307   1.166
66361SOL    HW2  981   4.280  12.411   1.225
66362SOL     OW  982  13.571   1.897   5.642
66362SOL    HW1  983  13.657   1.904   5.683
66362SOL    HW2  984  13.515   1.953   5.696
66363SOL     OW  985  12.628  14.476   0.558
66363SOL    HW1  986  12.538  14.508   0.549
66363SOL    HW2  987  12.620  14.400   0.615
66364SOL     OW  988   2.777  12.691   7.681
66364SOL    HW1  989   2.712  12.632   7.719
66364SOL    HW2  990   2.814  12.738   7.756
66365SOL     OW  991   1.843  11.730  14.829
66365SOL    HW1  992   1.884  11.758   0.028
66365SOL    HW2  993   1.913  11.736  14.763
66366SOL     OW  994  14.633   1.305  14.788
66366SOL    HW1  995  14.662   1.291  14.698
66366SOL    HW2  996  14.664   1.227  14.836
66367SOL     OW  997   1.395   7.140   4.250
66367SOL    HW1  998   1.461   7.128   4.318
66367SOL    HW2  999   1.433   7.097   4.173
66368SOL     OW 1000  10.027   7.584   4.685
66368SOL    HW1 1001  10.116   7.595   4.718
66368SOL    HW2 1002   9.971   7.629   4.748
66369SOL     OW 1003   7.526   2.330   3.432
66369SOL    HW1 1004   7.525   2.399   3.367
66369SOL    HW2 1005   7.604   2.348   3.485
66370SOL     OW 1006   8.388  12.676   7.537
66370SOL    HW1 1007   8.410  12.714   7.453
66370SOL    HW2 1008   8.460  12.617   7.557
66371SOL     OW 1009   2.586   6.046  13.460
66371SOL    HW1 1010   2.523   6.054  13.388
66371SOL    HW2 1011   2.536   6.007  13.532
66372SOL     OW 1012   4.013   3.930   8.334
66372SOL    HW1 1013   3.971   3.939   8.248
66372SOL    HW2 1014   3.943   3.898   8.391
66373SOL     OW 1015   9.686   0.570   2.863
66373SOL    HW1 1016   9.676   0.520   2.782
66373SOL    HW2 1017   9.752   0.521   2.913
66374SOL     OW 1018  12.158   2.915   3.522
66374SOL    HW1 1019  12.148   2.820   3.514
66374SOL    HW2 1020  12.080   2.951   3.479
66375SOL     OW 1021   0.260   9.958   4.321
66375SOL    HW1 1022   0.189   9.914   4.369
66375SOL    HW2 1023   0.262  10.046   4.357
66376SOL     OW 1024  10.592   0.727  11.571
66376SOL    HW1 1025  10.572   0.694  11.658
66376SOL    HW2 1026  10.628   0.815  11.585
66377SOL     OW 1027   0.099   5.559  14.642
66377SOL    HW1 1028   0.017   5.595  14.609
66377SOL    HW2 1029   0.133   5.505  14.571
66378SOL     OW 1030   7.990   6.346   4.017
66378SOL    HW1 1031   7.973   6.377   3.928
66378SOL    HW2 1032   8.051   6.410   4.053
66379SOL     OW 1033   4.694  14.210   6.046
66379SOL    HW1 1034   4.727  14.300   6.048
66379SOL    HW2 1035   4.635  14.204   6.120
66380SOL     OW 1036   4.023   2.569  12.781
66380SOL    HW1 1037   4.008   2.641  12.842
66380SOL    HW2 1038   4.058   2.499  12.836
66381SOL     OW 1039  13.605  14.694   9.478
66381SOL    HW1 1040  13.631  14.744   9.400
66381SOL    HW2 1041  13.616  14.603   9.453
66382SOL     OW 1042   9.967   2.713   7.823
66382SOL    HW1 1043  10.053   2.755   7.832
66382SOL    HW2 1044   9.987   2.623   7.796
66383SOL     OW 1045  12.786  13.131   7.829
66383SOL    HW1 1046  12.745  13.217   7.818
66383SOL    HW2 1047  12.811  13.128   7.922
66384SOL     OW 1048  14.249   4.207   8.776
66384SOL    HW1 1049  14.212   4.267   8.711
66384SOL    HW2 1050  14.294   4.263   8.838
66385SOL     OW 1051   0.570   8.249   8.132
66385SOL    HW1 1052   0.540   8.204   8.053
66385SOL    HW2 1053   0.557   8.185   8.202
66386SOL     OW 1054   3.388   5.977  14.879
66386SOL    HW1 1055   3.340   6.044   0.044
66386SOL    HW2 1056   3.344   5.895   0.018
66387SOL     OW 1057  13.918   5.724  13.659
66387SOL    HW1 1058  13.972   5.679  13.725
66387SOL    HW2 1059  13.883   5.655  13.604
66388SOL     OW 1060  13.622   3.946  14.647
66388SOL    HW1 1061  13.604   3.853  14.633
66388SOL    HW2 1062  13.643   3.953  14.740
66389SOL     OW 1063   4.405   3.272   8.598
66389SOL    HW1 1064   4.452   3.193   8.628
66389SOL    HW2 1065   4.324   3.272   8.649
66390SOL     OW 1066   8.180   3.126   4.886
66390SOL    HW1 1067   8.275   3.135   4.896
66390SOL    HW2 1068   8.154   3.066   4.956
66391SOL     OW 1069  10.731   7.957   5.088
66391SOL    HW1 1070  10.803   7.993   5.140
66391SOL    HW2 1071  10.712   8.025   5.023
66392SOL     OW 1072   3.101   8.022   3.276
66392SOL    HW1 1073   3.152   8.101   3.291
66392SOL    HW2 1074   3.124   7.964   3.348
66393SOL     OW 1075   9.135   0.959   1.437
66393SOL    HW1 1076   9.065   1.010   1.479
66393SOL    HW2 1077   9.116   0.868   1.461
66394SOL     OW 1078   6.855  11.788   2.539
66394SOL    HW1 1079   6.834  11.740   2.459
66394SOL    HW2 1080   6.841  11.724   2.609
66395SOL     OW 1081   2.685   2.304   0.312
66395SOL    HW1 1082   2.668   2.342   0.226
66395SOL    HW2 1083   2.598   2.292   0.350
66396SOL     OW 1084   4.420  10.576  10.054
66396SOL    HW1 1085   4.363  10.567  10.131
66396SOL    HW2 1086   4.475  10.652  10.075
66397SOL     OW 1087   9.545   8.054   9.368
66397SOL    HW1 1088   9.571   7.967   9.338
66397SOL    HW2 1089   9.605   8.114   9.322
66398SOL     OW 1090   5.818   7.259   1.119
66398SOL    HW1 1091   5.751   7.299   1.174
66398SOL    HW2 1092   5.883   7.328   1.105
66399SOL     OW 1093   2.515  10.222   3.334
66399SOL    HW1 1094   2.534  10.268   3.252
66399SOL    HW2 1095   2.600  10.187   3.362
66400SOL     OW 1096  10.935  14.413   2.797
66400SOL    HW1 1097  10.864  14.432   2.859
66400SOL    HW2 1098  11.007  14.470   2.824
66401SOL     OW 1099   7.673  10.431  12.379
66401SOL    HW1 1100   7.732  10.364  12.413
66401SOL    HW2 1101   7.656  10.405  12.288
66402SOL     OW 1102   4.537   3.487   2.202
66402SOL    HW1 1103   4.494   3.548   2.261
66402SOL    HW2 1104   4.467   3.427   2.175
66403SOL     OW 1105   9.444  12.072   7.864
66403SOL    HW1 1106   9.475  12.102   7.779
66403SOL    HW2 1107   9.467  12.142   7.925
66404SOL     OW 1108  14.216   7.133  14.085
66404SOL    HW1 1109  14.173   7.082  14.153
66404SOL    HW2 1110  14.172   7.106  14.004
66405SOL     OW 1111   4.032   8.945   2.546
66405SOL    HW1 1112   4.093   8.909   2.609
66405SOL    HW2 1113   4.087   8.991   2.482
66406SOL     OW 1114   3.771   7.672   8.581
66406SOL    HW1 1115   3.770   7.740   8.513
66406SOL    HW2 1116   3.723   7.599   8.543
66407SOL     OW 1117  11.755  11.230   9.051
66407SOL    HW1 1118  11.723  11.252   8.963
66407SOL    HW2 1119  11.836  11.280   9.060
66408SOL     OW 1120  13.759   0.140   5.654
66408SOL    HW1 1121  13.729   0.067   5.600
66408SOL    HW2 1122  13.701   0.213   5.630
66409SOL     OW 1123  10.743  13.197   0.235
66409SOL    HW1 1124  10.760  13.138   0.162
66409SOL    HW2 1125  10.655  13.174   0.266
66410SOL     OW 1126   9.784   7.040   5.123
66410SOL    HW1 1127   9.765   7.132   5.106
66410SOL    HW2 1128   9.704   6.994   5.097
66411SOL     OW 1129  10.739   6.615   1.953
66411SOL    HW1 1130  10.688   6.696   1.951
66411SOL    HW2 1131  10.815   6.637   2.008
66412SOL     OW 1132   2.401  11.632   2.673
66412SOL    HW1 1133   2.324  11.631   2.616
66412SOL    HW2 1134   2.369  11.668   2.756
66413SOL     OW 1135   5.546   9.177   2.654
66413SOL    HW1 1136   5.462   9.152   2.692
66413SOL    HW2 1137   5.581   9.242   2.715
66414SOL     OW 1138  13.030  11.663  12.135
66414SOL    HW1 1139  13.045  11.756  12.120
66414SOL    HW2 1140  13.118  11.625  12.135
66415SOL     OW 1141  10.363   1.279   2.378
66415SOL    HW1 1142  10.275   1.297   2.409
66415SOL    HW2 1143  10.399   1.217   2.442
66416SOL     OW 1144   3.376  12.163   3.212
66416SOL    HW1 1145   3.335  12.100   3.271
66416SOL    HW2 1146   3.411  12.110   3.141
66417SOL     OW 1147  13.422   5.101  12.472
66417SOL    HW1 1148  13.494   5.042  12.491
66417SOL    HW2 1149  13.363   5.051  12.415
66418SOL     OW 1150   7.098   4.199   7.185
66418SOL    HW1 1151   7.028   4.262   7.164
66418SOL    HW2 1152   7.152   4.197   7.106
66419SOL     OW 1153   4.466   2.815  13.089
66419SOL    HW1 1154   4.428   2.744  13.140
66419SOL    HW2 1155   4.545   2.778  13.050
66420SOL     OW 1156   6.621  11.307   9.655
66420SOL    HW1 1157   6.665  11.262   9.583
66420SOL    HW2 1158   6.553  11.360   9.612
66421SOL     OW 1159   8.101  11.920  11.991
66421SOL    HW1 1160   8.084  11.844  12.048
66421SOL    HW2 1161   8.057  11.898  11.909
66422SOL     OW 1162   2.894  12.188   6.095
66422SOL    HW1 1163   2.829  12.232   6.149
66422SOL    HW2 1164   2.962  12.160   6.157
66423SOL     OW 1165   3.444   6.950  14.303
66423SOL    HW1 1166   3.498   6.906  14.369
66423SOL    HW2 1167   3.354   6.930  14.328
66424SOL     OW 1168   2.768   0.819   1.924
66424SOL    HW1 1169   2.737   0.889   1.867
66424SOL    HW2 1170   2.863   0.827   1.924
66425SOL     OW 1171   8.714   3.423   5.938
66425SOL    HW1 1172   8.758   3.442   6.021
66425SOL    HW2 1173   8.774   3.364   5.892
66426SOL     OW 1174   0.755   6.621   9.102
66426SOL    HW1 1175   0.782   6.702   9.145
66426SOL    HW2 1176   0.824   6.603   9.038
66427SOL     OW 1177   6.718  11.548   0.844
66427SOL    HW1 1178   6.788  11.483   0.847
66427SOL    HW2 1179   6.723  11.592   0.929
66428SOL     OW 1180  11.213  11.967   1.440
66428SOL    HW1 1181  11.238  12.041   1.385
66428SOL    HW2 1182  11.229  11.890   1.385
66429SOL     OW 1183  10.612   8.027  10.128
66429SOL    HW1 1184  10.542   8.070  10.178
66429SOL    HW2 1185  10.629   8.086  10.055
66430SOL     OW 1186  13.682   8.251   9.608
66430SOL    HW1 1187  13.705   8.314   9.676
66430SOL    HW2 1188  13.591   8.227   9.627
66431SOL     OW 1189   3.058   8.891   8.084
66431SOL    HW1 1190   3.063   8.979   8.122
66431SOL    HW2 1191   2.965   8.878   8.065
66432SOL     OW 1192  11.449  12.702   6.321
66432SOL    HW1 1193  11.503  12.662   6.389
66432SOL    HW2 1194  11.501  12.693   6.241
66433SOL     OW 1195  11.882  12.095  10.273
66433SOL    HW1 1196  11.828  12.146  10.211
66433SOL    HW2 1197  11.906  12.159  10.340
66434SOL     OW 1198   1.596   6.558   1.857
66434SOL    HW1 1199   1.579   6.557   1.763
66434SOL    HW2 1200   1.689   6.581   1.864
66435SOL     OW 1201  10.305   8.378  14.606
66435SOL    HW1 1202  10.261   8.455  14.570
66435SOL    HW2 1203  10.358   8.412  14.678
66436SOL     OW 1204  12.224   5.568   4.459
66436SOL    HW1 1205  12.165   5.583   4.533
66436SOL    HW2 1206  12.312   5.575   4.497
66437SOL     OW 1207   7.981  10.787   8.295
66437SOL    HW1 1208   8.060  10.809   8.345
66437SOL    HW2 1209   7.919  10.857   8.318
66438SOL     OW 1210   4.034   3.428   5.901
66438SOL    HW1 1211   4.027   3.471   5.986
66438SOL    HW2 1212   4.111   3.466   5.860
66439SOL     OW 1213  14.513  14.673   7.772
66439SOL    HW1 1214  14.447  14.604   7.772
66439SOL    HW2 1215  14.595  14.628   7.791
66440SOL     OW 1216   3.636   2.472  13.262
66440SOL    HW1 1217   3.656   2.400  13.203
66440SOL    HW2 1218   3.544   2.494  13.245
66441SOL     OW 1219   8.919   1.331   2.690
66441SOL    HW1 1220   8.992   1.277   2.720
66441SOL    HW2 1221   8.944   1.420   2.713
66442SOL     OW 1222   2.318   2.165   5.296
66442SOL    HW1 1223   2.321   2.160   5.391
66442SOL    HW2 1224   2.401   2.126   5.267
66443SOL     OW 1225  12.203  12.042   4.444
66443SOL    HW1 1226  12.242  12.041   4.531
66443SOL    HW2 1227  12.110  12.057   4.460
66444SOL     OW 1228   6.975   5.549   6.552
66444SOL    HW1 1229   7.057   5.595   6.535
66444SOL    HW2 1230   6.972   5.541   6.648
66445SOL     OW 1231   3.361  10.170  12.852
66445SOL    HW1 1232   3.368  10.093  12.908
66445SOL    HW2 1233   3.368  10.244  12.912
66446SOL     OW 1234   4.447  12.841   1.261
66446SOL    HW1 1235   4.496  12.762   1.280
66446SOL    HW2 1236   4.364  12.830   1.308
66447SOL     OW 1237  14.513  13.664   9.007
66447SOL    HW1 1238  14.445  13.634   8.947
66447SOL    HW2 1239  14.490  13.755   9.027
66448SOL     OW 1240  10.714   0.274  13.923
66448SOL    HW1 1241  10.655   0.224  13.980
66448SOL    HW2 1242  10.776   0.209  13.890
66449SOL     OW 1243   2.796   7.061   5.978
66449SOL    HW1 1244   2.870   7.065   5.917
66449SOL    HW2 1245   2.766   7.151   5.984
66450SOL     OW 1246   1.553   9.422   6.647
66450SOL    HW1 1247   1.489   9.365   6.604
66450SOL    HW2 1248   1.637   9.378   6.632
66451SOL     OW 1249   8.870   6.176  13.239
66451SOL    HW1 1250   8.943   6.192  13.298
66451SOL    HW2 1251   8.857   6.260  13.194
66452SOL     OW 1252   0.911   5.841   6.257
66452SOL    HW1 1253   0.876   5.897   6.326
66452SOL    HW2 1254   1.005   5.841   6.271
66453SOL     OW 1255   9.182   5.384   3.834
66453SOL    HW1 1256   9.272   5.390   3.865
66453SOL    HW2 1257   9.189   5.361   3.741
66454SOL     OW 1258   6.840   0.114   8.644
66454SOL    HW1 1259   6.807   0.024   8.649
66454SOL    HW2 1260   6.777   0.159   8.588
66455SOL     OW 1261   3.860   5.033   2.861
66455SOL    HW1 1262   3.847   5.079   2.778
66455SOL    HW2 1263   3.925   4.965   2.841
66456SOL     OW 1264   5.005   0.564   6.526
66456SOL    HW1 1265   5.032   0.492   6.583
66456SOL    HW2 1266   4.915   0.543   6.501
66457SOL     OW 1267   3.574  10.065   0.607
66457SOL    HW1 1268   3.609  10.147   0.644
66457SOL    HW2 1269   3.487  10.088   0.576
66458SOL     OW 1270   7.600   4.215  12.236
66458SOL    HW1 1271   7.506   4.232  12.240
66458SOL    HW2 1272   7.623   4.228  12.144
66459SOL     OW 1273   5.274   9.355   9.753
66459SOL    HW1 1274   5.320   9.361   9.669
66459SOL    HW2 1275   5.306   9.430   9.803
66460SOL     OW 1276   9.992   8.530   0.297
66460SOL    HW1 1277   9.918   8.486   0.255
66460SOL    HW2 1278  10.026   8.588   0.230
66461SOL     OW 1279  11.834   6.608   2.775
66461SOL    HW1 1280  11.773   6.635   2.706
66461SOL    HW2 1281  11.908   6.668   2.765
66462SOL     OW 1282  12.813   1.376   2.890
66462SOL    HW1 1283  12.890   1.419   2.926
66462SOL    HW2 1284  12.755   1.448   2.864
66463SOL     OW 1285   8.758   0.214  12.662
66463SOL    HW1 1286   8.728   0.138  12.612
66463SOL    HW2 1287   8.703   0.215  12.740
66464SOL     OW 1288   6.954   0.847   5.999
66464SOL    HW1 1289   6.876   0.837   5.944
66464SOL    HW2 1290   7.026   0.823   5.941
66465SOL     OW 1291   3.840  12.714  11.307
66465SOL    HW1 1292   3.913  12.665  11.268
66465SOL    HW2 1293   3.827  12.672  11.392
66466SOL     OW 1294   3.780   1.019   5.583
66466SOL    HW1 1295   3.787   0.964   5.506
66466SOL    HW2 1296   3.852   1.081   5.575
66467SOL     OW 1297  14.796   1.924   3.261
66467SOL    HW1 1298  14.785   2.017   3.276
66467SOL    HW2 1299  14.833   1.918   3.173
66468SOL     OW 1300   5.676   3.552  14.440
66468SOL    HW1 1301   5.679   3.528  14.533
66468SOL    HW2 1302   5.634   3.638  14.439
66469SOL     OW 1303  10.691   0.961   4.781
66469SOL    HW1 1304  10.668   0.931   4.868
66469SOL    HW2 1305  10.787   0.968   4.782
66470SOL     OW 1306  13.524  10.026  12.385
66470SOL    HW1 1307  13.590   9.984  12.330
66470SOL    HW2 1308  13.523  10.117  12.356
66471SOL     OW 1309   1.033   0.591   8.713
66471SOL    HW1 1310   1.007   0.500   8.694
66471SOL    HW2 1311   1.129   0.588   8.715
66472SOL     OW 1312  13.908   9.869  12.753
66472SOL    HW1 1313  13.932   9.871  12.845
66472SOL    HW2 1314  13.823   9.914  12.749
66473SOL     OW 1315   9.716   3.790  12.004
66473SOL    HW1 1316   9.621   3.796  11.998
66473SOL    HW2 1317   9.746   3.879  11.986
66474SOL     OW 1318   8.536   0.474   3.861
66474SOL    HW1 1319   8.538   0.492   3.955
66474SOL    HW2 1320   8.447   0.498   3.835
66475SOL     OW 1321   1.615   5.369   7.830
66475SOL    HW1 1322   1.660   5.453   7.839
66475SOL    HW2 1323   1.611   5.335   7.919
66476SOL     OW 1324   8.122   2.404   3.895
66476SOL    HW1 1325   8.111   2.498   3.907
66476SOL    HW2 1326   8.037   2.367   3.914
66477SOL     OW 1327  13.501   9.441   9.077
66477SOL    HW1 1328  13.579   9.484   9.042
66477SOL    HW2 1329  13.430   9.474   9.023
66478SOL     OW 1330  13.985  13.429   1.497
66478SOL    HW1 1331  14.010  13.405   1.408
66478SOL    HW2 1332  14.039  13.373   1.553
66479SOL     OW 1333  10.174  13.061   8.550
66479SOL    HW1 1334  10.223  12.986   8.582
66479SOL    HW2 1335  10.222  13.089   8.472
66480SOL     OW 1336   4.317   9.462  13.859
66480SOL    HW1 1337   4.361   9.539  13.824
66480SOL    HW2 1338   4.357   9.447  13.944
66481SOL     OW 1339   2.474  13.238   8.648
66481SOL    HW1 1340   2.484  13.149   8.613
66481SOL    HW2 1341   2.546  13.287   8.609
66482SOL     OW 1342   1.270   9.724   8.346
66482SOL    HW1 1343   1.362   9.737   8.322
66482SOL    HW2 1344   1.227   9.807   8.321
66483SOL     OW 1345   0.618   2.612   4.682
66483SOL    HW1 1346   0.669   2.649   4.610
66483SOL    HW2 1347   0.600   2.686   4.740
66484SOL     OW 1348  13.393   0.236  12.966
66484SOL    HW1 1349  13.412   0.170  12.899
66484SOL    HW2 1350  13.468   0.232  13.025
66485SOL     OW 1351  11.312  11.757  10.077
66485SOL    HW1 1352  11.287  11.821  10.011
66485SOL    HW2 1353  11.229  11.729  10.116
66486SOL     OW 1354   5.265  11.140   8.042
66486SOL    HW1 1355   5.274  11.053   8.080
66486SOL    HW2 1356   5.202  11.130   7.971
66487SOL     OW 1357   9.460   3.126  14.049
66487SOL    HW1 1358   9.527   3.191  14.024
66487SOL    HW2 1359   9.469   3.056  13.984
66488SOL     OW 1360   6.186   1.997   0.242
66488SOL    HW1 1361   6.218   2.062   0.180
66488SOL    HW2 1362   6.264   1.956   0.277
66489SOL     OW 1363  13.659  10.907   1.628
66489SOL    HW1 1364  13.579  10.960   1.630
66489SOL    HW2 1365  13.725  10.964   1.589
66490SOL     OW 1366  10.733  10.053   9.295
66490SOL    HW1 1367  10.643  10.050   9.327
66490SOL    HW2 1368  10.777   9.980   9.340
66491SOL     OW 1369  13.181  10.790   5.698
66491SOL    HW1 1370  13.223  10.870   5.667
66491SOL    HW2 1371  13.117  10.769   5.629
66492SOL     OW 1372   1.740   8.535   9.719
66492SOL    HW1 1373   1.779   8.481   9.787
66492SOL    HW2 1374   1.790   8.515   9.640
66493SOL     OW 1375   1.765   8.315   4.421
66493SOL    HW1 1376   1.676   8.290   4.398
66493SOL    HW2 1377   1.757   8.406   4.452
66494SOL     OW 1378   8.142  13.550  13.972
66494SOL    HW1 1379   8.145  13.615  13.902
66494SOL    HW2 1380   8.185  13.472  13.935
66495SOL     OW 1381   8.962   2.523   1.743
66495SOL    HW1 1382   8.952   2.486   1.655
66495SOL    HW2 1383   8.990   2.449   1.797
66496SOL     OW 1384   1.677   0.317   1.559
66496SOL    HW1 1385   1.616   0.300   1.631
66496SOL    HW2 1386   1.705   0.408   1.572
66497SOL     OW 1387   5.562   7.479  11.034
66497SOL    HW1 1388   5.628   7.424  11.076
66497SOL    HW2 1389   5.608   7.561  11.014
66498SOL     OW 1390   4.459  12.061   8.770
66498SOL    HW1 1391   4.535  12.116   8.752
66498SOL    HW2 1392   4.391  12.093   8.712
66499SOL     OW 1393  13.862   8.830  10.492
66499SOL    HW1 1394  13.793   8.767  10.509
66499SOL    HW2 1395  13.868   8.835  10.397
66500SOL     OW 1396   2.932   5.331   0.684
66500SOL    HW1 1397   2.900   5.282   0.760
66500SOL    HW2 1398   2.893   5.418   0.693
66501SOL     OW 1399   7.206  12.087   5.032
66501SOL    HW1 1400   7.216  12.167   5.084
66501SOL    HW2 1401   7.172  12.022   5.093
66502SOL     OW 1402   0.116  10.361   1.967
66502SOL    HW1 1403   0.131  10.368   2.061
66502SOL    HW2 1404   0.203  10.373   1.929
66503SOL     OW 1405   8.021   7.393  11.720
66503SOL    HW1 1406   8.036   7.487  11.711
66503SOL    HW2 1407   8.076   7.366  11.793
66504SOL     OW 1408   6.941   4.329   4.770
66504SOL    HW1 1409   6.941   4.338   4.865
66504SOL    HW2 1410   6.850   4.346   4.744
66505SOL     OW 1411  11.159   4.878   2.823
66505SOL    HW1 1412  11.161   4.937   2.899
66505SOL    HW2 1413  11.068   4.881   2.793
66506SOL     OW 1414   1.461  12.176   7.631
66506SOL    HW1 1415   1.526  12.216   7.574
66506SOL    HW2 1416   1.512  12.125   7.694
66507SOL     OW 1417   7.434  14.555   2.368
66507SOL    HW1 1418   7.377  14.601   2.430
66507SOL    HW2 1419   7.515  14.606   2.368
66508SOL     OW 1420  11.561  10.818   6.218
66508SOL    HW1 1421  11.655  10.802   6.222
66508SOL    HW2 1422  11.550  10.884   6.150
66509SOL     OW 1423   5.005   0.650   1.408
66509SOL    HW1 1424   5.019   0.673   1.316
66509SOL    HW2 1425   4.913   0.672   1.424
66510SOL     OW 1426   1.881  10.043   4.173
66510SOL    HW1 1427   1.844  10.063   4.259
66510SOL    HW2 1428   1.932  10.121   4.151
66511SOL     OW 1429   1.889  13.965   3.894
66511SOL    HW1 1430   1.896  14.051   3.853
66511SOL    HW2 1431   1.795  13.952   3.906
66512SOL     OW 1432   1.365   8.379   6.259
66512SOL    HW1 1433   1.435   8.437   6.289
66512SOL    HW2 1434   1.299   8.384   6.328
66513SOL     OW 1435   2.904   8.131   6.465
66513SOL    HW1 1436   2.979   8.140   6.405
66513SOL    HW2 1437   2.867   8.046   6.443
66514SOL     OW 1438   5.416   5.934   2.257
66514SOL    HW1 1439   5.440   6.014   2.210
66514SOL    HW2 1440   5.465   5.938   2.339
66515SOL     OW 1441  12.754   6.998   6.160
66515SOL    HW1 1442  12.778   6.982   6.069
66515SOL    HW2 1443  12.815   7.066   6.189
66516SOL     OW 1444   2.529   4.717   9.478
66516SOL    HW1 1445   2.557   4.787   9.536
66516SOL    HW2 1446   2.459   4.672   9.527
66517SOL     OW 1447   9.134  12.480   2.485
66517SOL    HW1 1448   9.105  12.467   2.395
66517SOL    HW2 1449   9.195  12.553   2.482
66518SOL     OW 1450   2.812  13.655   7.220
66518SOL    HW1 1451   2.806  13.646   7.315
66518SOL    HW2 1452   2.726  13.686   7.193
66519SOL     OW 1453   9.498  12.600  14.705
66519SOL    HW1 1454   9.552  12.615  14.627
66519SOL    HW2 1455   9.453  12.518  14.688
66520SOL     OW 1456   3.552  12.568   1.727
66520SOL    HW1 1457   3.472  12.573   1.779
66520SOL    HW2 1458   3.526  12.522   1.647
66521SOL     OW 1459   8.538   6.929   5.337
66521SOL    HW1 1460   8.493   7.013   5.334
66521SOL    HW2 1461   8.527   6.893   5.249
66522SOL     OW 1462  11.300   6.922  14.169
66522SOL    HW1 1463  11.350   6.983  14.224
66522SOL    HW2 1464  11.366   6.873  14.121
66523SOL     OW 1465   3.990   8.247   3.638
66523SOL    HW1 1466   4.018   8.248   3.547
66523SOL    HW2 1467   4.043   8.178   3.679
66524SOL     OW 1468   3.911   7.949   0.299
66524SOL    HW1 1469   3.847   8.001   0.252
66524SOL    HW2 1470   3.995   7.993   0.284
66525SOL     OW 1471   9.656   2.654  12.579
66525SOL    HW1 1472   9.730   2.617  12.627
66525SOL    HW2 1473   9.688   2.737  12.545
66526SOL     OW 1474   6.666   5.095   6.268
66526SOL    HW1 1475   6.692   5.003   6.266
66526SOL    HW2 1476   6.589   5.097   6.325
66527SOL     OW 1477  14.698  11.161   6.394
66527SOL    HW1 1478  14.693  11.255   6.376
66527SOL    HW2 1479  14.754  11.126   6.324
66528SOL     OW 1480   4.867  10.670   1.844
66528SOL    HW1 1481   4.816  10.694   1.766
66528SOL    HW2 1482   4.826  10.719   1.915
66529SOL     OW 1483  11.598   7.572  14.323
66529SOL    HW1 1484  11.583   7.666  14.310
66529SOL    HW2 1485  11.566   7.532  14.243
66530SOL     OW 1486   4.083   9.364   7.919
66530SOL    HW1 1487   4.155   9.331   7.865
66530SOL    HW2 1488   4.056   9.445   7.876
66531SOL     OW 1489   7.979   4.119  10.320
66531SOL    HW1 1490   8.010   4.049  10.263
66531SOL    HW2 1491   7.954   4.189  10.261
66532SOL     OW 1492  10.294   4.161  13.022
66532SOL    HW1 1493  10.351   4.133  13.093
66532SOL    HW2 1494  10.352   4.170  12.946
66533SOL     OW 1495   3.574   8.828   6.324
66533SOL    HW1 1496   3.633   8.753   6.323
66533SOL    HW2 1497   3.522   8.820   6.244
66534SOL     OW 1498   0.815   1.349   8.753
66534SOL    HW1 1499   0.897   1.348   8.802
66534SOL    HW2 1500   0.807   1.438   8.721
66535SOL     OW 1501   0.736   7.749   8.223
66535SOL    HW1 1502   0.650   7.771   8.258
66535SOL    HW2 1503   0.785   7.832   8.224
66536SOL     OW 1504  10.824   4.551   3.753
66536SOL    HW1 1505  10.823   4.459   3.727
66536SOL    HW2 1506  10.885   4.556   3.826
66537SOL     OW 1507   5.473   3.569   7.148
66537SOL    HW1 1508   5.490   3.486   7.194
66537SOL    HW2 1509   5.384   3.593   7.176
66538SOL     OW 1510  13.554   3.375  12.440
66538SOL    HW1 1511  13.545   3.470  12.434
66538SOL    HW2 1512  13.502   3.350  12.516
66539SOL     OW 1513   0.170  11.789  14.380
66539SOL    HW1 1514   0.098  11.811  14.321
66539SOL    HW2 1515   0.127  11.768  14.463
66540SOL     OW 1516  12.909  10.083   8.577
66540SOL    HW1 1517  12.994  10.126   8.581
66540SOL    HW2 1518  12.920  10.002   8.628
66541SOL     OW 1519   9.082   6.361   8.939
66541SOL    HW1 1520   9.037   6.308   8.874
66541SOL    HW2 1521   9.174   6.356   8.914
66542SOL     OW 1522  10.015  10.948   4.291
66542SOL    HW1 1523   9.948  10.951   4.359
66542SOL    HW2 1524   9.969  10.913   4.214
66543SOL     OW 1525   2.630  12.292  10.034
66543SOL    HW1 1526   2.610  12.377   9.995
66543SOL    HW2 1527   2.665  12.240   9.961
66544SOL     OW 1528  13.755   5.499   2.156
66544SOL    HW1 1529  13.847   5.487   2.181
66544SOL    HW2 1530  13.758   5.570   2.092
66545SOL     OW 1531  13.970   8.982   0.413
66545SOL    HW1 1532  14.028   8.915   0.449
66545SOL    HW2 1533  14.029   9.051   0.384
66546SOL     OW 1534  12.562  10.061   7.686
66546SOL    HW1 1535  12.531  10.025   7.603
66546SOL    HW2 1536  12.507  10.138   7.700
66547SOL     OW 1537   7.894  14.773   6.283
66547SOL    HW1 1538   7.910  14.774   6.189
66547SOL    HW2 1539   7.808  14.730   6.292
66548SOL     OW 1540  11.648  12.978   3.122
66548SOL    HW1 1541  11.732  12.977   3.167
66548SOL    HW2 1542  11.646  13.061   3.075
66549SOL     OW 1543  14.316  12.625  12.470
66549SOL    HW1 1544  14.320  12.551  12.410
66549SOL    HW2 1545  14.392  12.614  12.527
66550SOL     OW 1546   1.628   2.472  12.744
66550SOL    HW1 1547   1.689   2.437  12.809
66550SOL    HW2 1548   1.570   2.528  12.795
66551SOL     OW 1549   9.664   0.800   4.237
66551SOL    HW1 1550   9.707   0.721   4.207
66551SOL    HW2 1551   9.613   0.772   4.313
66552SOL     OW 1552  11.408  12.199  13.610
66552SOL    HW1 1553  11.372  12.288  13.613
66552SOL    HW2 1554  11.432  12.181  13.701
66553SOL     OW 1555   6.410   9.231   9.289
66553SOL    HW1 1556   6.482   9.279   9.329
66553SOL    HW2 1557   6.450   9.150   9.257
66554SOL     OW 1558   8.145   3.166   8.236
66554SOL    HW1 1559   8.200   3.201   8.165
66554SOL    HW2 1560   8.184   3.203   8.316
66555SOL     OW 1561  10.770   9.615   5.319
66555SOL    HW1 1562  10.781   9.647   5.409
66555SOL    HW2 1563  10.680   9.638   5.296
66556SOL     OW 1564   1.847   0.865   7.258
66556SOL    HW1 1565   1.784   0.851   7.188
66556SOL    HW2 1566   1.825   0.950   7.294
66557SOL     OW 1567   0.953  13.996  14.020
66557SOL    HW1 1568   0.875  14.052  14.021
66557SOL    HW2 1569   1.025  14.056  14.002
66558SOL     OW 1570   1.406  11.251  11.922
66558SOL    HW1 1571   1.396  11.314  11.993
66558SOL    HW2 1572   1.331  11.192  11.933
66559SOL     OW 1573   8.395   7.091   3.246
66559SOL    HW1 1574   8.450   7.168   3.261
66559SOL    HW2 1575   8.346   7.080   3.327
66560SOL     OW 1576   7.287   5.036   5.925
66560SOL    HW1 1577   7.251   5.062   5.840
66560SOL    HW2 1578   7.368   4.990   5.903
66561SOL     OW 1579   5.945   3.736   4.938
66561SOL    HW1 1580   5.900   3.735   5.023
66561SOL    HW2 1581   5.880   3.702   4.877
66562SOL     OW 1582  10.802   1.775   8.800
66562SOL    HW1 1583  10.714   1.774   8.762
66562SOL    HW2 1584  10.806   1.696   8.854
66563SOL     OW 1585  14.865   2.817   9.624
66563SOL    HW1 1586  14.848   2.903   9.661
66563SOL    HW2 1587  14.863   2.758   9.700
66564SOL     OW 1588   4.627  11.802   2.437
66564SOL    HW1 1589   4.712  11.773   2.403
66564SOL    HW2 1590   4.615  11.751   2.517
66565SOL     OW 1591   7.399  10.664  10.331
66565SOL    HW1 1592   7.384  10.736  10.269
66565SOL    HW2 1593   7.332  10.599  10.309
66566SOL     OW 1594   7.896  14.380   9.497
66566SOL    HW1 1595   7.972  14.322   9.501
66566SOL    HW2 1596   7.919  14.444   9.429
66567SOL     OW 1597   1.762  11.053   4.761
66567SOL    HW1 1598   1.763  11.149   4.770
66567SOL    HW2 1599   1.851  11.031   4.733
66568SOL     OW 1600   1.151   0.854  14.681
66568SOL    HW1 1601   1.103   0.898  14.611
66568SOL    HW2 1602   1.138   0.761  14.664
66569SOL     OW 1603  11.774   9.722   9.641
66569SOL    HW1 1604  11.737   9.784   9.577
66569SOL    HW2 1605  11.842   9.676   9.592
66570SOL     OW 1606  14.874   0.284   1.831
66570SOL    HW1 1607  14.844   0.300   1.920
66570SOL    HW2 1608   0.058   0.351   1.816
66571SOL     OW 1609   4.780  10.030   3.850
66571SOL    HW1 1610   4.705   9.976   3.825
66571SOL    HW2 1611   4.779  10.030   3.945
66572SOL     OW 1612   2.787  14.355   5.585
66572SOL    HW1 1613   2.712  14.409   5.608
66572SOL    HW2 1614   2.794  14.363   5.489
66573SOL     OW 1615   7.189   6.227   9.096
66573SOL    HW1 1616   7.176   6.169   9.021
66573SOL    HW2 1617   7.194   6.169   9.171
66574SOL     OW 1618   2.275  10.321  12.801
66574SOL    HW1 1619   2.267  10.368  12.884
66574SOL    HW2 1620   2.219  10.244  12.812
66575SOL     OW 1621   8.050   6.067   2.772
66575SOL    HW1 1622   7.961   6.058   2.807
66575SOL    HW2 1623   8.046   6.024   2.686
66576SOL     OW 1624  13.301   0.562   0.817
66576SOL    HW1 1625  13.323   0.625   0.748
66576SOL    HW2 1626  13.345   0.481   0.790
66577SOL     OW 1627  10.935   3.782  10.468
66577SOL    HW1 1628  10.846   3.805  10.491
66577SOL    HW2 1629  10.990   3.841  10.520
66578SOL     OW 1630  13.169   8.147   4.003
66578SOL    HW1 1631  13.198   8.084   4.069
66578SOL    HW2 1632  13.229   8.221   4.013
66579SOL     OW 1633   5.680   1.697   3.967
66579SOL    HW1 1634   5.677   1.608   3.933
66579SOL    HW2 1635   5.652   1.689   4.058
66580SOL     OW 1636   5.355   8.848   8.991
66580SOL    HW1 1637   5.304   8.768   8.995
66580SOL    HW2 1638   5.439   8.822   8.953
66581SOL     OW 1639  12.384  11.755  11.015
66581SOL    HW1 1640  12.480  11.753  11.011
66581SOL    HW2 1641  12.358  11.810  10.941
66582SOL     OW 1642   4.793   0.834   5.386
66582SOL    HW1 1643   4.747   0.822   5.469
66582SOL    HW2 1644   4.874   0.879   5.410
66583SOL     OW 1645   6.179  11.636  13.862
66583SOL    HW1 1646   6.164  11.546  13.833
66583SOL    HW2 1647   6.214  11.680  13.785
66584SOL     OW 1648   9.882   7.162   7.448
66584SOL    HW1 1649   9.915   7.220   7.380
66584SOL    HW2 1650   9.891   7.212   7.529
66585SOL     OW 1651   8.957  13.835   3.198
66585SOL    HW1 1652   8.979  13.897   3.128
66585SOL    HW2 1653   8.909  13.766   3.154
66586SOL     OW 1654   4.418   3.873   9.130
66586SOL    HW1 1655   4.345   3.811   9.133
66586SOL    HW2 1656   4.470   3.845   9.055
66587SOL     OW 1657   9.164   4.637   0.109
66587SOL    HW1 1658   9.132   4.605   0.194
66587SOL    HW2 1659   9.145   4.566   0.048
66588SOL     OW 1660  13.153   9.614  10.296
66588SOL    HW1 1661  13.241   9.575  10.294
66588SOL    HW2 1662  13.169   9.707  10.316
66589SOL     OW 1663   1.149   5.339  13.548
66589SOL    HW1 1664   1.220   5.275  13.537
66589SOL    HW2 1665   1.069   5.286  13.553
66590SOL     OW 1666  12.619   7.829   6.702
66590SOL    HW1 1667  12.643   7.911   6.746
66590SOL    HW2 1668  12.533   7.808   6.735
66591SOL     OW 1669   3.362  11.895  14.323
66591SOL    HW1 1670   3.336  11.949  14.397
66591SOL    HW2 1671   3.356  11.954  14.247
66592SOL     OW 1672   5.524  11.953  11.051
66592SOL    HW1 1673   5.561  11.934  10.965
66592SOL    HW2 1674   5.472  11.876  11.073
66593SOL     OW 1675   7.434   6.725   2.728
66593SOL    HW1 1676   7.385   6.729   2.646
66593SOL    HW2 1677   7.488   6.804   2.728
66594SOL     OW 1678   5.147  12.321   6.024
66594SOL    HW1 1679   5.123  12.232   5.999
66594SOL    HW2 1680   5.149  12.369   5.941
66595SOL     OW 1681   4.178   3.881   2.745
66595SOL    HW1 1682   4.180   3.785   2.749
66595SOL    HW2 1683   4.097   3.901   2.698
66596SOL     OW 1684  11.564   7.308  11.399
66596SOL    HW1 1685  11.628   7.236  11.405
66596SOL    HW2 1686  11.539   7.310  11.306
66597SOL     OW 1687   7.257  13.561   1.547
66597SOL    HW1 1688   7.191  13.495   1.571
66597SOL    HW2 1689   7.207  13.643   1.543
66598SOL     OW 1690   0.231   8.959   0.404
66598SOL    HW1 1691   0.220   8.882   0.460
66598SOL    HW2 1692   0.148   8.967   0.358
66599SOL     OW 1693   1.462  14.296   5.860
66599SOL    HW1 1694   1.478  14.319   5.769
66599SOL    HW2 1695   1.390  14.233   5.857
66600SOL     OW 1696   5.294  13.681   1.455
66600SOL    HW1 1697   5.279  13.729   1.536
66600SOL    HW2 1698   5.367  13.622   1.475
66601SOL     OW 1699   0.786   5.832   2.223
66601SOL    HW1 1700   0.846   5.883   2.277
66601SOL    HW2 1701   0.811   5.741   2.237
66602SOL     OW 1702   6.992   0.078   0.406
66602SOL    HW1 1703   6.922   0.117   0.354
66602SOL    HW2 1704   7.017   0.146   0.468
66603SOL     OW 1705   5.372  12.387   6.389
66603SOL    HW1 1706   5.423  12.322   6.436
66603SOL    HW2 1707   5.398  12.376   6.297
66604SOL     OW 1708   9.233  12.284  13.921
66604SOL    HW1 1709   9.229  12.349  13.991
66604SOL    HW2 1710   9.173  12.215  13.949
66605SOL     OW 1711   7.609   6.783   7.302
66605SOL    HW1 1712   7.656   6.757   7.382
66605SOL    HW2 1713   7.518   6.791   7.330
66606SOL     OW 1714   9.561   8.279   4.292
66606SOL    HW1 1715   9.561   8.375   4.295
66606SOL    HW2 1716   9.654   8.256   4.287
66607SOL     OW 1717   3.454   7.236  12.306
66607SOL    HW1 1718   3.417   7.322  12.291
66607SOL    HW2 1719   3.378   7.177  12.308
66608SOL     OW 1720   6.046  12.537   2.017
66608SOL    HW1 1721   6.084  12.551   2.104
66608SOL    HW2 1722   6.088  12.603   1.962
66609SOL     OW 1723  11.494   6.663  11.252
66609SOL    HW1 1724  11.521   6.636  11.164
66609SOL    HW2 1725  11.518   6.589  11.308
66610SOL     OW 1726   5.609   8.287  13.993
66610SOL    HW1 1727   5.580   8.313  14.080
66610SOL    HW2 1728   5.645   8.199  14.006
66611SOL     OW 1729   8.430   6.338  14.855
66611SOL    HW1 1730   8.506   6.344  14.797
66611SOL    HW2 1731   8.457   6.385   0.052
66612SOL     OW 1732   3.730  12.480   4.010
66612SOL    HW1 1733   3.702  12.389   4.021
66612SOL    HW2 1734   3.707  12.502   3.919
66613SOL     OW 1735   2.032   4.129   9.440
66613SOL    HW1 1736   2.019   4.196   9.507
66613SOL    HW2 1737   2.124   4.136   9.416
66614SOL     OW 1738   1.621   1.058   5.002
66614SOL    HW1 1739   1.593   0.982   4.951
66614SOL    HW2 1740   1.539   1.097   5.033
66615SOL     OW 1741   7.676   3.924  11.283
66615SOL    HW1 1742   7.622   3.877  11.219
66615SOL    HW2 1743   7.735   3.858  11.319
66616SOL     OW 1744   6.258   6.655   0.968
66616SOL    HW1 1745   6.183   6.692   1.014
66616SOL    HW2 1746   6.227   6.644   0.877
66617SOL     OW 1747   9.924   7.160  10.896
66617SOL    HW1 1748   9.925   7.247  10.855
66617SOL    HW2 1749   9.954   7.177  10.986
66618SOL     OW 1750   5.636   9.693   7.254
66618SOL    HW1 1751   5.619   9.704   7.347
66618SOL    HW2 1752   5.650   9.599   7.243
66619SOL     OW 1753   3.145   3.651  12.866
66619SOL    HW1 1754   3.137   3.746  12.871
66619SOL    HW2 1755   3.132   3.630  12.773
66620SOL     OW 1756   1.242   8.832   4.436
66620SOL    HW1 1757   1.287   8.897   4.383
66620SOL    HW2 1758   1.272   8.849   4.526
66621SOL     OW 1759   7.378   8.514  10.009
66621SOL    HW1 1760   7.326   8.465  10.072
66621SOL    HW2 1761   7.454   8.543  10.058
66622SOL     OW 1762   0.498   2.209   5.449
66622SOL    HW1 1763   0.484   2.180   5.359
66622SOL    HW2 1764   0.411   2.237   5.479
66623SOL     OW 1765   1.325   2.406  13.210
66623SOL    HW1 1766   1.398   2.366  13.258
66623SOL    HW2 1767   1.249   2.353  13.234
66624SOL     OW 1768   7.396   9.142   9.881
66624SOL    HW1 1769   7.319   9.190   9.851
66624SOL    HW2 1770   7.470   9.188   9.840
66625SOL     OW 1771   9.601  13.725   5.094
66625SOL    HW1 1772   9.574  13.809   5.057
66625SOL    HW2 1773   9.631  13.747   5.183
66626SOL     OW 1774   2.065  13.301   5.902
66626SOL    HW1 1775   1.986  13.315   5.955
66626SOL    HW2 1776   2.047  13.347   5.820
66627SOL     OW 1777  11.890   8.046   2.234
66627SOL    HW1 1778  11.972   8.091   2.256
66627SOL    HW2 1779  11.824   8.116   2.235
66628SOL     OW 1780   9.852   7.140   7.925
66628SOL    HW1 1781   9.838   7.189   7.844
66628SOL    HW2 1782   9.764   7.123   7.958
66629SOL     OW 1783   4.579  12.314   5.021
66629SOL    HW1 1784   4.619  12.329   4.936
66629SOL    HW2 1785   4.552  12.222   5.019
66630SOL     OW 1786   0.840   2.791  10.351
66630SOL    HW1 1787   0.847   2.711  10.298
66630SOL    HW2 1788   0.869   2.861  10.292
66631SOL     OW 1789   1.490   4.343   4.867
66631SOL    HW1 1790   1.494   4.410   4.798
66631SOL    HW2 1791   1.582   4.318   4.881
66632SOL     OW 1792   4.012  11.509   1.033
66632SOL    HW1 1793   3.950  11.444   1.000
66632SOL    HW2 1794   4.055  11.543   0.954
66633SOL     OW 1795   1.268  12.096   0.071
66633SOL    HW1 1796   1.225  12.101  14.868
66633SOL    HW2 1797   1.340  12.159   0.066
66634SOL     OW 1798   4.385   3.115   3.423
66634SOL    HW1 1799   4.470   3.145   3.392
66634SOL    HW2 1800   4.362   3.177   3.492
66635SOL     OW 1801   4.156   4.807   5.580
66635SOL    HW1 1802   4.217   4.737   5.557
66635SOL    HW2 1803   4.130   4.787   5.670
66636SOL     OW 1804  11.312   1.848  10.898
66636SOL    HW1 1805  11.219   1.847  10.920
66636SOL    HW2 1806  11.321   1.919  10.835
66637SOL     OW 1807   4.918   2.283   0.108
66637SOL    HW1 1808   4.843   2.234   0.075
66637SOL    HW2 1809   4.912   2.274   0.203
66638SOL     OW 1810  13.392   2.138   8.685
66638SOL    HW1 1811  13.331   2.127   8.612
66638SOL    HW2 1812  13.431   2.224   8.671
66639SOL     OW 1813   6.286   8.205   3.758
66639SOL    HW1 1814   6.243   8.289   3.772
66639SOL    HW2 1815   6.374   8.217   3.794
66640SOL     OW 1816   9.376   9.680   2.288
66640SOL    HW1 1817   9.401   9.633   2.208
66640SOL    HW2 1818   9.365   9.612   2.354
66641SOL     OW 1819   0.441   3.648   2.504
66641SOL    HW1 1820   0.491   3.696   2.569
66641SOL    HW2 1821   0.366   3.612   2.552
66642SOL     OW 1822   1.231   9.802  10.191
66642SOL    HW1 1823   1.163   9.805  10.258
66642SOL    HW2 1824   1.274   9.887  10.197
66643SOL     OW 1825  14.015   3.305   4.537
66643SOL    HW1 1826  13.976   3.374   4.485
66643SOL    HW2 1827  14.105   3.298   4.504
66644SOL     OW 1828   0.143   3.858   7.314
66644SOL    HW1 1829   0.092   3.853   7.395
66644SOL    HW2 1830   0.188   3.942   7.320
66645SOL     OW 1831   7.116  13.724   7.059
66645SOL    HW1 1832   7.137  13.774   7.138
66645SOL    HW2 1833   7.199  13.686   7.031
66646SOL     OW 1834   9.162   7.544   8.996
66646SOL    HW1 1835   9.095   7.518   8.933
66646SOL    HW2 1836   9.244   7.514   8.957
66647SOL     OW 1837  11.446  13.292  11.978
66647SOL    HW1 1838  11.529  13.326  11.944
66647SOL    HW2 1839  11.471  13.246  12.059
66648SOL     OW 1840   0.191   5.875  14.119
66648SOL    HW1 1841   0.144   5.956  14.099
66648SOL    HW2 1842   0.278   5.904  14.147
66649SOL     OW 1843  12.645  12.924   1.441
66649SOL    HW1 1844  12.632  12.907   1.534
66649SOL    HW2 1845  12.647  12.837   1.400
66650SOL     OW 1846   0.912  12.500  11.052
66650SOL    HW1 1847   0.992  12.547  11.074
66650SOL    HW2 1848   0.846  12.568  11.042
66651SOL     OW 1849   9.653  13.171   8.083
66651SOL    HW1 1850   9.583  13.119   8.122
66651SOL    HW2 1851   9.714  13.106   8.048
66652SOL     OW 1852  11.524  12.996   7.273
66652SOL    HW1 1853  11.475  12.960   7.346
66652SOL    HW2 1854  11.595  12.932   7.259
66653SOL     OW 1855   1.761  13.071   3.373
66653SOL    HW1 1856   1.672  13.092   3.343
66653SOL    HW2 1857   1.794  13.153   3.410
66654SOL     OW 1858   1.608   5.267   5.382
66654SOL    HW1 1859   1.654   5.206   5.325
66654SOL    HW2 1860   1.634   5.241   5.471
66655SOL     OW 1861   9.021   1.765   0.755
66655SOL    HW1 1862   9.008   1.855   0.728
66655SOL    HW2 1863   8.991   1.713   0.681
66656SOL     OW 1864   8.296  11.652   0.736
66656SOL    HW1 1865   8.259  11.591   0.799
66656SOL    HW2 1866   8.220  11.686   0.689
66657SOL     OW 1867  14.453  13.213   6.236
66657SOL    HW1 1868  14.469  13.118   6.234
66657SOL    HW2 1869  14.404  13.230   6.155
66658SOL     OW 1870   0.638   3.208  14.521
66658SOL    HW1 1871   0.611   3.289  14.564
66658SOL    HW2 1872   0.640   3.230  14.428
66659SOL     OW 1873   6.956   1.890  13.607
66659SOL    HW1 1874   6.924   1.954  13.544
66659SOL    HW2 1875   7.033   1.932  13.646
66660SOL     OW 1876  14.332   7.970   8.523
66660SOL    HW1 1877  14.260   7.936   8.576
66660SOL    HW2 1878  14.290   8.000   8.442
66661SOL     OW 1879   7.168  11.114   9.510
66661SOL    HW1 1880   7.125  11.029   9.503
66661SOL    HW2 1881   7.096  11.177   9.513
66662SOL     OW 1882  12.814  14.195   3.614
66662SOL    HW1 1883  12.782  14.176   3.702
66662SOL    HW2 1884  12.864  14.117   3.589
66663SOL     OW 1885  11.976  12.289   6.913
66663SOL    HW1 1886  11.890  12.322   6.888
66663SOL    HW2 1887  12.037  12.335   6.854
66664SOL     OW 1888  14.605  14.872   0.890
66664SOL    HW1 1889  14.662   0.067   0.881
66664SOL    HW2 1890  14.634  14.830   0.971
66665SOL     OW 1891  10.172   0.299  13.509
66665SOL    HW1 1892  10.111   0.274  13.440
66665SOL    HW2 1893  10.255   0.257  13.484
66666SOL     OW 1894   3.161  14.193  10.410
66666SOL    HW1 1895   3.128  14.171  10.497
66666SOL    HW2 1896   3.104  14.264  10.380
66667SOL     OW 1897   6.091   0.291   3.033
66667SOL    HW1 1898   6.143   0.270   2.956
66667SOL    HW2 1899   6.042   0.370   3.009
66668SOL     OW 1900  12.134  11.436   7.285
66668SOL    HW1 1901  12.104  11.496   7.217
66668SOL    HW2 1902  12.197  11.379   7.240
66669SOL     OW 1903  12.045   3.968   4.090
66669SOL    HW1 1904  11.985   3.931   4.025
66669SOL    HW2 1905  12.021   4.061   4.094
66670SOL     OW 1906  11.734   0.923   5.793
66670SOL    HW1 1907  11.770   0.835   5.801
66670SOL    HW2 1908  11.690   0.923   5.708
66671SOL     OW 1909   1.532   7.339   3.182
66671SOL    HW1 1910   1.496   7.279   3.248
66671SOL    HW2 1911   1.458   7.362   3.127
66672SOL     OW 1912   2.315  12.898  10.351
66672SOL    HW1 1913   2.333  12.929  10.440
66672SOL    HW2 1914   2.336  12.805  10.353
66673SOL     OW 1915  11.006   8.103   2.221
66673SOL    HW1 1916  10.974   8.194   2.220
66673SOL    HW2 1917  11.042   8.092   2.309
66674SOL     OW 1918   5.082  12.718  10.398
66674SOL    HW1 1919   5.140  12.645  10.420
66674SOL    HW2 1920   5.000  12.699  10.444
66675SOL     OW 1921   4.536   5.735   9.142
66675SOL    HW1 1922   4.602   5.797   9.174
66675SOL    HW2 1923   4.466   5.790   9.108
66676SOL     OW 1924   3.352  12.426   7.498
66676SOL    HW1 1925   3.432  12.464   7.463
66676SOL    HW2 1926   3.297  12.409   7.422
66677SOL     OW 1927   3.335   5.699   6.903
66677SOL    HW1 1928   3.385   5.645   6.964
66677SOL    HW2 1929   3.285   5.759   6.958
66678SOL     OW 1930   5.713  14.305  12.312
66678SOL    HW1 1931   5.724  14.245  12.238
66678SOL    HW2 1932   5.688  14.388  12.271
66679SOL     OW 1933   2.090   1.681   2.229
66679SOL    HW1 1934   2.158   1.705   2.167
66679SOL    HW2 1935   2.133   1.620   2.289
66680SOL     OW 1936  14.776   3.530   7.936
66680SOL    HW1 1937  14.767   3.618   7.974
66680SOL    HW2 1938  14.848   3.490   7.985
66681SOL     OW 1939   0.307   6.010  10.237
66681SOL    HW1 1940   0.367   5.936  10.236
66681SOL    HW2 1941   0.285   6.024  10.145
66682SOL     OW 1942   0.186   5.651   5.383
66682SOL    HW1 1943   0.139   5.722   5.426
66682SOL    HW2 1944   0.125   5.578   5.384
66683SOL     OW 1945   0.266  10.203   6.567
66683SOL    HW1 1946   0.179  10.208   6.607
66683SOL    HW2 1947   0.250  10.191   6.474
66684SOL     OW 1948  10.881   4.206  12.119
66684SOL    HW1 1949  10.928   4.223  12.200
66684SOL    HW2 1950  10.828   4.128  12.138
66685SOL     OW 1951  11.576  14.602   5.856
66685SOL    HW1 1952  11.650  14.662   5.855
66685SOL    HW2 1953  11.518  14.637   5.924
66686SOL     OW 1954   5.609   3.772   5.338
66686SOL    HW1 1955   5.548   3.759   5.265
66686SOL    HW2 1956   5.669   3.839   5.307
66687SOL     OW 1957   0.449  10.420   4.797
66687SOL    HW1 1958   0.371  10.473   4.775
66687SOL    HW2 1959   0.519  10.458   4.743
66688SOL     OW 1960   8.514   1.238   3.355
66688SOL    HW1 1961   8.567   1.240   3.275
66688SOL    HW2 1962   8.547   1.163   3.404
66689SOL     OW 1963   8.046  12.040   5.028
66689SOL    HW1 1964   7.988  12.041   5.105
66689SOL    HW2 1965   7.993  12.077   4.958
66690SOL     OW 1966   1.136   3.055   4.353
66690SOL    HW1 1967   1.111   3.025   4.440
66690SOL    HW2 1968   1.173   3.142   4.367
66691SOL     OW 1969   6.659  14.519  13.861
66691SOL    HW1 1970   6.596  14.518  13.790
66691SOL    HW2 1971   6.661  14.429  13.894
66692SOL     OW 1972  10.071  10.756  12.471
66692SOL    HW1 1973  10.011  10.770  12.398
66692SOL    HW2 1974  10.144  10.816  12.453
66693SOL     OW 1975   8.818  11.844  10.824
66693SOL    HW1 1976   8.750  11.881  10.880
66693SOL    HW2 1977   8.852  11.770  10.875
66694SOL     OW 1978   3.062   9.095  10.278
66694SOL    HW1 1979   3.148   9.071  10.243
66694SOL    HW2 1980   3.017   9.011  10.288
66695SOL     OW 1981   0.750   9.399   3.031
66695SOL    HW1 1982   0.746   9.463   2.960
66695SOL    HW2 1983   0.686   9.430   3.095
66696SOL     OW 1984  12.074   4.278   7.269
66696SOL    HW1 1985  12.024   4.203   7.301
66696SOL    HW2 1986  12.081   4.336   7.345
66697SOL     OW 1987   2.798  11.381   8.365
66697SOL    HW1 1988   2.850  11.430   8.429
66697SOL    HW2 1989   2.846  11.392   8.283
66698SOL     OW 1990   9.201   8.402  12.043
66698SOL    HW1 1991   9.110   8.393  12.070
66698SOL    HW2 1992   9.242   8.452  12.114
66699SOL     OW 1993   5.303   1.274   6.525
66699SOL    HW1 1994   5.390   1.307   6.506
66699SOL    HW2 1995   5.245   1.349   6.513
66700SOL     OW 1996   4.889   5.096   1.179
66700SOL    HW1 1997   4.950   5.111   1.108
66700SOL    HW2 1998   4.839   5.177   1.186
66701SOL     OW 1999   1.983   2.545   5.014
66701SOL    HW1 2000   1.948   2.608   4.952
66701SOL    HW2 2001   2.074   2.533   4.988
66702SOL     OW 2002   3.734   7.967   0.920
66702SOL    HW1 2003   3.660   8.026   0.904
66702SOL    HW2 2004   3.798   7.991   0.853
66703SOL     OW 2005   1.729  13.642  14.875
66703SOL    HW1 2006   1.670  13.669   0.064
66703SOL    HW2 2007   1.725  13.713  14.812
66704SOL     OW 2008   2.465   6.837  11.110
66704SOL    HW1 2009   2.442   6.794  11.028
66704SOL    HW2 2010   2.387   6.887  11.134
66705SOL     OW 2011   1.224   8.695   0.595
66705SOL    HW1 2012   1.250   8.648   0.675
66705SOL    HW2 2013   1.223   8.627   0.527
66706SOL     OW 2014  12.091  11.810  14.461
66706SOL    HW1 2015  12.121  11.851  14.542
66706SOL    HW2 2016  12.152  11.842  14.394
66707SOL     OW 2017   9.377   5.804   5.209
66707SOL    HW1 2018   9.448   5.751   5.245
66707SOL    HW2 2019   9.298   5.754   5.228
66708SOL     OW 2020  11.609   4.147   8.705
66708SOL    HW1 2021  11.649   4.201   8.774
66708SOL    HW2 2022  11.682   4.096   8.671
66709SOL     OW 2023   8.660   7.679  11.456
66709SOL    HW1 2024   8.637   7.596  11.414
66709SOL    HW2 2025   8.603   7.744  11.415
66710SOL     OW 2026   6.106   8.084  12.887
66710SOL    HW1 2027   6.129   8.118  12.800
66710SOL    HW2 2028   6.011   8.080  12.887
66711SOL     OW 2029   2.995   4.331  14.584
66711SOL    HW1 2030   3.061   4.322  14.515
66711SOL    HW2 2031   2.957   4.244  14.593
66712SOL     OW 2032   7.599   4.470   3.102
66712SOL    HW1 2033   7.565   4.559   3.092
66712SOL    HW2 2034   7.521   4.415   3.111
66713SOL     OW 2035   9.857  11.465  11.239
66713SOL    HW1 2036   9.854  11.372  11.263
66713SOL    HW2 2037   9.895  11.509  11.315
66714SOL     OW 2038  12.809  10.382   1.648
66714SOL    HW1 2039  12.755  10.303   1.646
66714SOL    HW2 2040  12.748  10.453   1.667
66715SOL     OW 2041   1.433   6.702   1.123
66715SOL    HW1 2042   1.489   6.779   1.114
66715SOL    HW2 2043   1.494   6.628   1.123
66716SOL     OW 2044   7.545   2.906   5.329
66716SOL    HW1 2045   7.607   2.935   5.396
66716SOL    HW2 2046   7.518   2.987   5.285
66717SOL     OW 2047   0.954   6.740  11.534
66717SOL    HW1 2048   1.024   6.676  11.519
66717SOL    HW2 2049   0.878   6.703  11.487
66718SOL     OW 2050   5.084  10.237   4.489
66718SOL    HW1 2051   5.092  10.231   4.585
66718SOL    HW2 2052   5.160  10.288   4.462
66719SOL     OW 2053   9.907  10.235   7.000
66719SOL    HW1 2054   9.883  10.285   6.922
66719SOL    HW2 2055   9.942  10.152   6.966
66720SOL     OW 2056   8.523  10.621  11.740
66720SOL    HW1 2057   8.451  10.683  11.726
66720SOL    HW2 2058   8.516  10.596  11.832
66721SOL     OW 2059   1.351  10.698   4.079
66721SOL    HW1 2060   1.305  10.663   4.003
66721SOL    HW2 2061   1.411  10.629   4.105
66722SOL     OW 2062   6.679   6.227  11.487
66722SOL    HW1 2063   6.640   6.251  11.403
66722SOL    HW2 2064   6.706   6.136  11.476
66723SOL     OW 2065  14.152   1.389   6.224
66723SOL    HW1 2066  14.211   1.465   6.227
66723SOL    HW2 2067  14.067   1.424   6.249
66724SOL     OW 2068   2.900   7.605   0.646
66724SOL    HW1 2069   2.970   7.559   0.694
66724SOL    HW2 2070   2.821   7.589   0.698
66725SOL     OW 2071  12.562   8.179  13.294
66725SOL    HW1 2072  12.614   8.112  13.338
66725SOL    HW2 2073  12.545   8.143  13.207
66726SOL     OW 2074   9.642   2.481   3.169
66726SOL    HW1 2075   9.706   2.412   3.152
66726SOL    HW2 2076   9.692   2.550   3.213
66727SOL     OW 2077   6.061   0.320   8.026
66727SOL    HW1 2078   6.027   0.403   7.993
66727SOL    HW2 2079   6.104   0.279   7.950
66728SOL     OW 2080   9.814   3.263   1.515
66728SOL    HW1 2081   9.869   3.317   1.571
66728SOL    HW2 2082   9.725   3.294   1.531
66729SOL     OW 2083  13.228   8.504  11.622
66729SOL    HW1 2084  13.262   8.592  11.636
66729SOL    HW2 2085  13.200   8.504  11.530
66730SOL     OW 2086  12.866  10.630   1.176
66730SOL    HW1 2087  12.854  10.547   1.222
66730SOL    HW2 2088  12.947  10.666   1.213
66731SOL     OW 2089   5.594   8.592  13.095
66731SOL    HW1 2090   5.685   8.571  13.080
66731SOL    HW2 2091   5.569   8.540  13.172
66732SOL     OW 2092   0.648  14.763   4.056
66732SOL    HW1 2093   0.679  14.793   3.970
66732SOL    HW2 2094   0.583  14.828   4.082
66733SOL     OW 2095   0.592   0.575  13.411
66733SOL    HW1 2096   0.565   0.645  13.469
66733SOL    HW2 2097   0.519   0.563  13.351
66734SOL     OW 2098   9.426   9.170   1.971
66734SOL    HW1 2099   9.336   9.164   2.004
66734SOL    HW2 2100   9.445   9.082   1.938
66735SOL     OW 2101  13.797  11.839  11.876
66735SOL    HW1 2102  13.805  11.784  11.953
66735SOL    HW2 2103  13.766  11.923  11.910
66736SOL     OW 2104   4.363  12.832  14.733
66736SOL    HW1 2105   4.335  12.775  14.662
66736SOL    HW2 2106   4.390  12.772  14.803
66737SOL     OW 2107  10.873  12.366   3.749
66737SOL    HW1 2108  10.777  12.369   3.750
66737SOL    HW2 2109  10.896  12.373   3.657
66738SOL     OW 2110   8.451  14.623   5.957
66738SOL    HW1 2111   8.416  14.557   6.017
66738SOL    HW2 2112   8.539  14.640   5.989
66739SOL     OW 2113   8.547   6.339  12.486
66739SOL    HW1 2114   8.627   6.296  12.516
66739SOL    HW2 2115   8.518   6.391  12.561
66740SOL     OW 2116   3.365  12.517  13.925
66740SOL    HW1 2117   3.277  12.478  13.931
66740SOL    HW2 2118   3.358  12.598  13.976
66741SOL     OW 2119  10.315   6.828  10.902
66741SOL    HW1 2120  10.234   6.875  10.882
66741SOL    HW2 2121  10.306   6.801  10.993
66742SOL     OW 2122   9.435   5.978  11.032
66742SOL    HW1 2123   9.495   6.018  11.094
66742SOL    HW2 2124   9.420   6.045  10.966
66743SOL     OW 2125   6.270  14.276  10.959
66743SOL    HW1 2126   6.246  14.214  11.028
66743SOL    HW2 2127   6.215  14.353  10.977
66744SOL     OW 2128   7.082   5.839   3.974
66744SOL    HW1 2129   7.148   5.855   3.907
66744SOL    HW2 2130   7.003   5.882   3.940
66745SOL     OW 2131   2.140   9.672  14.362
66745SOL    HW1 2132   2.207   9.739  14.371
66745SOL    HW2 2133   2.075   9.711  14.303
66746SOL     OW 2134   9.625  13.783   6.236
66746SOL    HW1 2135   9.597  13.834   6.312
66746SOL    HW2 2136   9.562  13.805   6.168
66747SOL     OW 2137   6.445  13.812   3.178
66747SOL    HW1 2138   6.480  13.841   3.094
66747SOL    HW2 2139   6.398  13.887   3.212
66748SOL     OW 2140   7.597   4.946  11.163
66748SOL    HW1 2141   7.671   4.938  11.103
66748SOL    HW2 2142   7.562   4.857  11.170
66749SOL     OW 2143   9.563   9.884   9.755
66749SOL    HW1 2144   9.653   9.876   9.722
66749SOL    HW2 2145   9.559   9.825   9.830
66750SOL     OW 2146   2.976   2.911  14.498
66750SOL    HW1 2147   2.966   2.816  14.485
66750SOL    HW2 2148   2.897   2.937  14.545
66751SOL     OW 2149   7.026   5.006   6.478
66751SOL    HW1 2150   7.069   5.090   6.460
66751SOL    HW2 2151   7.049   4.950   6.404
66752SOL     OW 2152   0.141  11.320   9.137
66752SOL    HW1 2153   0.174  11.398   9.182
66752SOL    HW2 2154   0.166  11.247   9.194
66753SOL     OW 2155   7.838   8.980   2.852
66753SOL    HW1 2156   7.881   9.065   2.853
66753SOL    HW2 2157   7.767   8.989   2.789
66754SOL     OW 2158   5.213   3.882   0.370
66754SOL    HW1 2159   5.297   3.920   0.344
66754SOL    HW2 2160   5.150   3.916   0.306
66755SOL     OW 2161   9.318   3.506   0.337
66755SOL    HW1 2162   9.289   3.595   0.356
66755SOL    HW2 2163   9.359   3.476   0.418
66756SOL     OW 2164   0.123   7.997   6.181
66756SOL    HW1 2165   0.034   7.961   6.179
66756SOL    HW2 2166   0.114   8.084   6.143
66757SOL     OW 2167  12.820   1.732   3.831
66757SOL    HW1 2168  12.738   1.781   3.832
66757SOL    HW2 2169  12.822   1.691   3.745
66758SOL     OW 2170   9.848   6.523   6.494
66758SOL    HW1 2171   9.864   6.570   6.412
66758SOL    HW2 2172   9.931   6.528   6.541
66759SOL     OW 2173   4.618   7.427   9.198
66759SOL    HW1 2174   4.641   7.480   9.122
66759SOL    HW2 2175   4.656   7.341   9.181
66760SOL     OW 2176  10.493  12.898   2.278
66760SOL    HW1 2177  10.576  12.858   2.306
66760SOL    HW2 2178  10.514  12.991   2.267
66761SOL     OW 2179  10.710   3.224  13.465
66761SOL    HW1 2180  10.675   3.159  13.526
66761SOL    HW2 2181  10.786   3.181  13.426
66762SOL     OW 2182   2.549   4.510  14.545
66762SOL    HW1 2183   2.545   4.592  14.497
66762SOL    HW2 2184   2.623   4.521  14.605
66763SOL     OW 2185   0.650   6.490  13.738
66763SOL    HW1 2186   0.626   6.412  13.688
66763SOL    HW2 2187   0.587   6.492  13.811
66764SOL     OW 2188   7.265   5.300   6.529
66764SOL    HW1 2189   7.293   5.320   6.439
66764SOL    HW2 2190   7.170   5.310   6.528
66765SOL     OW 2191  12.340  11.291   7.142
66765SOL    HW1 2192  12.388  11.374   7.135
66765SOL    HW2 2193  12.336  11.258   7.053
66766SOL     OW 2194   9.993   4.439  11.202
66766SOL    HW1 2195  10.012   4.379  11.274
66766SOL    HW2 2196   9.925   4.394  11.151
66767SOL     OW 2197   2.112   3.059   3.144
66767SOL    HW1 2198   2.053   3.134   3.137
66767SOL    HW2 2199   2.199   3.096   3.134
66768SOL     OW 2200   2.377   9.837   4.443
66768SOL    HW1 2201   2.372   9.909   4.506
66768SOL    HW2 2202   2.455   9.789   4.469
66769SOL     OW 2203  13.340   7.062  10.275
66769SOL    HW1 2204  13.388   7.014  10.342
66769SOL    HW2 2205  13.370   7.153  10.284
66770SOL     OW 2206   6.629   9.487   0.983
66770SOL    HW1 2207   6.620   9.425   0.910
66770SOL    HW2 2208   6.722   9.484   1.005
66771SOL     OW 2209  13.893   5.676   4.278
66771SOL    HW1 2210  13.882   5.739   4.349
66771SOL    HW2 2211  13.825   5.700   4.214
66772SOL     OW 2212   1.861   0.079   5.176
66772SOL    HW1 2213   1.811   0.146   5.130
66772SOL    HW2 2214   1.796   0.026   5.221
66773SOL     OW 2215   8.405  11.848   8.753
66773SOL    HW1 2216   8.310  11.845   8.750
66773SOL    HW2 2217   8.425  11.932   8.794
66774SOL     OW 2218  10.672   3.456   8.964
66774SOL    HW1 2219  10.622   3.390   8.915
66774SOL    HW2 2220  10.704   3.516   8.897
66775SOL     OW 2221  14.089   1.723   5.127
66775SOL    HW1 2222  14.155   1.723   5.057
66775SOL    HW2 2223  14.101   1.639   5.171
66776SOL     OW 2224   4.018   7.651   7.528
66776SOL    HW1 2225   3.964   7.591   7.475
66776SOL    HW2 2226   4.075   7.593   7.578
66777SOL     OW 2227   5.156  14.825  14.405
66777SOL    HW1 2228   5.127  14.755  14.464
66777SOL    HW2 2229   5.252  14.819  14.405
66778SOL     OW 2230  12.105   8.811  10.688
66778SOL    HW1 2231  12.115   8.747  10.617
66778SOL    HW2 2232  12.082   8.892  10.642
66779SOL     OW 2233   0.038   0.342   5.013
66779SOL    HW1 2234   0.110   0.281   5.031
66779SOL    HW2 2235  14.874   0.303   4.939
66780SOL     OW 2236  10.412   3.445  14.417
66780SOL    HW1 2237  10.422   3.446  14.322
66780SOL    HW2 2238  10.393   3.354  14.439
66781SOL     OW 2239   5.780  11.914  10.916
66781SOL    HW1 2240   5.793  11.823  10.942
66781SOL    HW2 2241   5.852  11.961  10.957
66782SOL     OW 2242  14.882   9.734   5.319
66782SOL    HW1 2243   0.020   9.650   5.360
66782SOL    HW2 2244  14.796   9.721   5.279
66783SOL     OW 2245  13.194   3.025  10.197
66783SOL    HW1 2246  13.257   3.087  10.160
66783SOL    HW2 2247  13.150   3.074  10.267
66784SOL     OW 2248   6.666   8.000  13.862
66784SOL    HW1 2249   6.677   7.910  13.831
66784SOL    HW2 2250   6.742   8.047  13.828
66785SOL     OW 2251  12.226   9.665   3.610
66785SOL    HW1 2252  12.220   9.646   3.704
66785SOL    HW2 2253  12.251   9.582   3.570
66786SOL     OW 2254  13.514   0.910  12.761
66786SOL    HW1 2255  13.560   0.878  12.684
66786SOL    HW2 2256  13.431   0.944  12.727
66787SOL     OW 2257   1.646   1.358   5.386
66787SOL    HW1 2258   1.693   1.334   5.466
66787SOL    HW2 2259   1.636   1.276   5.339
66788SOL     OW 2260   8.729  10.756   3.481
66788SOL    HW1 2261   8.811  10.767   3.434
66788SOL    HW2 2262   8.738  10.809   3.560
66789SOL     OW 2263  11.417   9.455   2.149
66789SOL    HW1 2264  11.463   9.531   2.113
66789SOL    HW2 2265  11.486   9.394   2.174
66790SOL     OW 2266  14.454  11.797   4.900
66790SOL    HW1 2267  14.428  11.790   4.808
66790SOL    HW2 2268  14.441  11.889   4.922
66791SOL     OW 2269  13.810   7.130   0.902
66791SOL    HW1 2270  13.792   7.037   0.918
66791SOL    HW2 2271  13.902   7.141   0.925
66792SOL     OW 2272   7.626   3.182  11.895
66792SOL    HW1 2273   7.719   3.202  11.906
66792SOL    HW2 2274   7.583   3.237  11.960
66793SOL     OW 2275   4.902   9.211   3.401
66793SOL    HW1 2276   4.944   9.130   3.429
66793SOL    HW2 2277   4.925   9.275   3.468
66794SOL     OW 2278  10.642  11.874  10.439
66794SOL    HW1 2279  10.607  11.962  10.426
66794SOL    HW2 2280  10.566  11.822  10.466
66795SOL     OW 2281  12.610   9.214  14.681
66795SOL    HW1 2282  12.524   9.174  14.675
66795SOL    HW2 2283  12.593   9.308  14.676
66796SOL     OW 2284   6.784   5.064  11.416
66796SOL    HW1 2285   6.830   5.132  11.367
66796SOL    HW2 2286   6.809   4.983  11.373
66797SOL     OW 2287  11.895  13.598   6.046
66797SOL    HW1 2288  11.829  13.577   5.980
66797SOL    HW2 2289  11.869  13.548   6.123
66798SOL     OW 2290   6.168  14.853   9.313
66798SOL    HW1 2291   6.158   0.053   9.361
66798SOL    HW2 2292   6.226  14.799   9.367
66799SOL     OW 2293   3.912  13.927   7.603
66799SOL    HW1 2294   3.870  13.904   7.687
66799SOL    HW2 2295   3.958  14.009   7.621
66800SOL     OW 2296   6.509   1.833  11.590
66800SOL    HW1 2297   6.528   1.740  11.576
66800SOL    HW2 2298   6.417   1.834  11.617
66801SOL     OW 2299   1.149   7.895  14.344
66801SOL    HW1 2300   1.163   7.959  14.274
66801SOL    HW2 2301   1.172   7.941  14.425
66802SOL     OW 2302   0.536  12.705   9.342
66802SOL    HW1 2303   0.501  12.683   9.256
66802SOL    HW2 2304   0.544  12.621   9.387
66803SOL     OW 2305   2.191   1.548   8.272
66803SOL    HW1 2306   2.236   1.501   8.202
66803SOL    HW2 2307   2.106   1.505   8.279
66804SOL     OW 2308   6.237  11.348   3.495
66804SOL    HW1 2309   6.187  11.388   3.425
66804SOL    HW2 2310   6.328  11.375   3.479
66805SOL     OW 2311   4.810  10.638   4.421
66805SOL    HW1 2312   4.784  10.548   4.438
66805SOL    HW2 2313   4.776  10.658   4.334
66806SOL     OW 2314  14.633  10.483   3.486
66806SOL    HW1 2315  14.540  10.498   3.497
66806SOL    HW2 2316  14.641  10.388   3.475
66807SOL     OW 2317   4.560   3.608  11.035
66807SOL    HW1 2318   4.594   3.575  10.951
66807SOL    HW2 2319   4.493   3.544  11.060
66808SOL     OW 2320   4.785  10.125  12.023
66808SOL    HW1 2321   4.724  10.101  12.093
66808SOL    HW2 2322   4.749  10.083  11.945
66809SOL     OW 2323  10.162   2.085   4.847
66809SOL    HW1 2324  10.157   2.008   4.790
66809SOL    HW2 2325  10.071   2.112   4.858
66810SOL     OW 2326  12.140   4.006   0.757
66810SOL    HW1 2327  12.047   4.003   0.779
66810SOL    HW2 2328  12.176   4.076   0.812
66811SOL     OW 2329   9.233   4.749   2.952
66811SOL    HW1 2330   9.318   4.707   2.942
66811SOL    HW2 2331   9.202   4.762   2.863
66812SOL     OW 2332  12.586   6.003   0.579
66812SOL    HW1 2333  12.594   6.063   0.654
66812SOL    HW2 2334  12.502   6.026   0.539
66813SOL     OW 2335   7.755   9.120   8.232
66813SOL    HW1 2336   7.794   9.087   8.312
66813SOL    HW2 2337   7.814   9.091   8.162
66814SOL     OW 2338   1.998  12.071  14.064
66814SOL    HW1 2339   1.951  12.122  13.999
66814SOL    HW2 2340   2.048  12.135  14.115
66815SOL     OW 2341   0.934   4.187  12.735
66815SOL    HW1 2342   0.889   4.252  12.790
66815SOL    HW2 2343   0.965   4.121  12.796
66816SOL     OW 2344  13.043   7.588   8.914
66816SOL    HW1 2345  12.997   7.664   8.951
66816SOL    HW2 2346  13.081   7.544   8.990
66817SOL     OW 2347   0.187   2.638   0.240
66817SOL    HW1 2348   0.278   2.655   0.215
66817SOL    HW2 2349   0.180   2.543   0.242
66818SOL     OW 2350  13.358   9.548  14.027
66818SOL    HW1 2351  13.359   9.493  13.948
66818SOL    HW2 2352  13.293   9.507  14.084
66819SOL     OW 2353  11.894  13.060   7.035
66819SOL    HW1 2354  11.870  13.146   7.071
66819SOL    HW2 2355  11.978  13.040   7.077
66820SOL     OW 2356  11.066   7.100  11.655
66820SOL    HW1 2357  11.060   7.095  11.750
66820SOL    HW2 2358  10.982   7.136  11.627
66821SOL     OW 2359   4.782   9.134   8.115
66821SOL    HW1 2360   4.801   9.090   8.198
66821SOL    HW2 2361   4.798   9.067   8.048
66822SOL     OW 2362   4.232   8.854  10.347
66822SOL    HW1 2363   4.266   8.891  10.266
66822SOL    HW2 2364   4.210   8.764  10.325
66823SOL     OW 2365   0.986   4.083  13.436
66823SOL    HW1 2366   0.939   4.041  13.508
66823SOL    HW2 2367   0.929   4.155  13.409
66824SOL     OW 2368  12.637   5.071  11.667
66824SOL    HW1 2369  12.694   5.148  11.674
66824SOL    HW2 2370  12.618   5.047  11.758
66825SOL     OW 2371   0.460   3.947   4.692
66825SOL    HW1 2372   0.388   4.000   4.727
66825SOL    HW2 2373   0.433   3.928   4.602
66826SOL     OW 2374  11.508   3.013  14.349
66826SOL    HW1 2375  11.527   2.955  14.423
66826SOL    HW2 2376  11.592   3.053  14.329
66827SOL     OW 2377  14.040   9.526   6.770
66827SOL    HW1 2378  14.002   9.525   6.858
66827SOL    HW2 2379  14.032   9.436   6.740
66828SOL     OW 2380   0.420  10.356   8.960
66828SOL    HW1 2381   0.418  10.283   9.021
66828SOL    HW2 2382   0.329  10.387   8.955
66829SOL     OW 2383   4.597  13.265  14.567
66829SOL    HW1 2384   4.530  13.202  14.594
66829SOL    HW2 2385   4.637  13.294  14.649
66830SOL     OW 2386   6.923  10.248   1.115
66830SOL    HW1 2387   6.828  10.244   1.123
66830SOL    HW2 2388   6.944  10.185   1.046
66831SOL     OW 2389   7.025  10.151   2.804
66831SOL    HW1 2390   7.031  10.246   2.803
66831SOL    HW2 2391   7.107  10.121   2.765
66832SOL     OW 2392  12.615   8.786  10.936
66832SOL    HW1 2393  12.526   8.821  10.935
66832SOL    HW2 2394  12.627   8.748  10.849
66833SOL     OW 2395   5.372  12.783   6.390
66833SOL    HW1 2396   5.367  12.699   6.436
66833SOL    HW2 2397   5.448  12.774   6.333
66834SOL     OW 2398   7.220   2.373   9.108
66834SOL    HW1 2399   7.155   2.433   9.073
66834SOL    HW2 2400   7.305   2.412   9.086
66835SOL     OW 2401   5.869   3.701  10.580
66835SOL    HW1 2402   5.874   3.795  10.560
66835SOL    HW2 2403   5.940   3.685  10.641
66836SOL     OW 2404   9.470   7.326   2.321
66836SOL    HW1 2405   9.445   7.388   2.253
66836SOL    HW2 2406   9.415   7.350   2.396
66837SOL     OW 2407   3.725   9.003  13.238
66837SOL    HW1 2408   3.663   8.945  13.282
66837SOL    HW2 2409   3.772   9.045  13.310
66838SOL     OW 2410   4.079   2.604  13.143
66838SOL    HW1 2411   4.010   2.594  13.208
66838SOL    HW2 2412   4.118   2.690  13.162
66839SOL     OW 2413   5.004   9.644  12.079
66839SOL    HW1 2414   4.912   9.661  12.060
66839SOL    HW2 2415   5.029   9.714  12.139
66840SOL     OW 2416   6.660   3.995  14.220
66840SOL    HW1 2417   6.674   4.040  14.304
66840SOL    HW2 2418   6.718   3.919  14.224
66841SOL     OW 2419  13.834  10.071  14.813
66841SOL    HW1 2420  13.766  10.038  14.754
66841SOL    HW2 2421  13.909  10.014  14.798
66842SOL     OW 2422   3.002  12.048   1.156
66842SOL    HW1 2423   2.910  12.065   1.177
66842SOL    HW2 2424   3.009  12.068   1.063
66843SOL     OW 2425   4.728   6.637  12.978
66843SOL    HW1 2426   4.775   6.719  12.994
66843SOL    HW2 2427   4.724   6.629  12.883
66844SOL     OW 2428   0.238   5.939   3.134
66844SOL    HW1 2429   0.282   5.895   3.206
66844SOL    HW2 2430   0.173   5.875   3.104
66845SOL     OW 2431   7.888  11.704   5.031
66845SOL    HW1 2432   7.801  11.729   5.062
66845SOL    HW2 2433   7.873  11.668   4.944
66846SOL     OW 2434   2.994   8.958   6.401
66846SOL    HW1 2435   3.021   9.008   6.324
66846SOL    HW2 2436   2.962   9.023   6.463
66847SOL     OW 2437   4.221   9.729   7.717
66847SOL    HW1 2438   4.221   9.688   7.630
66847SOL    HW2 2439   4.128   9.745   7.735
66848SOL     OW 2440   1.875   9.047   3.652
66848SOL    HW1 2441   1.845   9.106   3.721
66848SOL    HW2 2442   1.945   8.997   3.693
66849SOL     OW 2443   6.594   2.892   6.903
66849SOL    HW1 2444   6.501   2.912   6.911
66849SOL    HW2 2445   6.634   2.974   6.874
66850SOL     OW 2446   4.512   4.286   5.493
66850SOL    HW1 2447   4.550   4.271   5.579
66850SOL    HW2 2448   4.445   4.354   5.508
66851SOL     OW 2449   6.342   9.306  14.108
66851SOL    HW1 2450   6.284   9.279  14.037
66851SOL    HW2 2451   6.411   9.357  14.066
66852SOL     OW 2452   6.537   6.663   8.398
66852SOL    HW1 2453   6.618   6.657   8.449
66852SOL    HW2 2454   6.499   6.747   8.424
66853SOL     OW 2455  11.685   9.845  13.968
66853SOL    HW1 2456  11.694   9.939  13.950
66853SOL    HW2 2457  11.652   9.842  14.058
66854SOL     OW 2458  11.191  10.847   6.715
66854SOL    HW1 2459  11.278  10.823   6.748
66854SOL    HW2 2460  11.133  10.836   6.790
66855SOL     OW 2461   0.906   7.189   8.924
66855SOL    HW1 2462   0.926   7.150   9.009
66855SOL    HW2 2463   0.879   7.278   8.944
66856SOL     OW 2464   4.155   6.497  13.423
66856SOL    HW1 2465   4.061   6.516  13.421
66856SOL    HW2 2466   4.181   6.493  13.331
66857SOL     OW 2467   9.967  13.112  11.912
66857SOL    HW1 2468   9.961  13.055  11.988
66857SOL    HW2 2469   9.877  13.145  11.899
66858SOL     OW 2470   9.727   9.612  10.815
66858SOL    HW1 2471   9.658   9.553  10.785
66858SOL    HW2 2472   9.764   9.647  10.734
66859SOL     OW 2473  12.254   6.070   0.852
66859SOL    HW1 2474  12.227   6.131   0.784
66859SOL    HW2 2475  12.211   6.102   0.932
66860SOL     OW 2476   6.025   0.138   6.576
66860SOL    HW1 2477   6.095   0.106   6.633
66860SOL    HW2 2478   6.008   0.227   6.607
66861SOL     OW 2479   8.665   2.597  10.547
66861SOL    HW1 2480   8.717   2.523  10.579
66861SOL    HW2 2481   8.709   2.674  10.584
66862SOL     OW 2482  12.737   8.515   6.276
66862SOL    HW1 2483  12.788   8.582   6.322
66862SOL    HW2 2484  12.648   8.549   6.276
66863SOL     OW 2485  14.475   3.996   1.099
66863SOL    HW1 2486  14.534   4.041   1.160
66863SOL    HW2 2487  14.423   3.938   1.155
66864SOL     OW 2488   4.848   2.732   9.587
66864SOL    HW1 2489   4.790   2.782   9.530
66864SOL    HW2 2490   4.936   2.749   9.553
66865SOL     OW 2491   6.127  10.973   7.656
66865SOL    HW1 2492   6.183  11.016   7.592
66865SOL    HW2 2493   6.104  10.889   7.616
66866SOL     OW 2494  12.682   2.748   0.089
66866SOL    HW1 2495  12.691   2.671   0.144
66866SOL    HW2 2496  12.768   2.789   0.090
66867SOL     OW 2497   9.288   6.078   9.299
66867SOL    HW1 2498   9.231   6.051   9.370
66867SOL    HW2 2499   9.372   6.036   9.319
66868SOL     OW 2500  12.514   2.523  13.882
66868SOL    HW1 2501  12.473   2.437  13.872
66868SOL    HW2 2502  12.456   2.583  13.835
66869SOL     OW 2503   3.605  12.441   3.510
66869SOL    HW1 2504   3.553  12.465   3.433
66869SOL    HW2 2505   3.694  12.470   3.488
66870SOL     OW 2506  10.743   2.438  14.751
66870SOL    HW1 2507  10.656   2.458  14.716
66870SOL    HW2 2508  10.782   2.379  14.687
66871SOL     OW 2509   1.229   4.798   6.073
66871SOL    HW1 2510   1.298   4.815   6.138
66871SOL    HW2 2511   1.157   4.856   6.099
66872SOL     OW 2512  12.892  12.809   1.069
66872SOL    HW1 2513  12.980  12.810   1.106
66872SOL    HW2 2514  12.852  12.729   1.104
66873SOL     OW 2515  11.131   2.274   6.978
66873SOL    HW1 2516  11.114   2.254   6.885
66873SOL    HW2 2517  11.044   2.280   7.017
66874SOL     OW 2518   1.666   5.845   0.785
66874SOL    HW1 2519   1.638   5.768   0.734
66874SOL    HW2 2520   1.599   5.853   0.853
66875SOL     OW 2521   8.527  13.581  13.168
66875SOL    HW1 2522   8.490  13.659  13.127
66875SOL    HW2 2523   8.475  13.509  13.135
66876SOL     OW 2524   3.528   9.246   2.757
66876SOL    HW1 2525   3.533   9.246   2.662
66876SOL    HW2 2526   3.564   9.331   2.783
66877SOL     OW 2527  11.495   0.750  12.429
66877SOL    HW1 2528  11.493   0.684  12.360
66877SOL    HW2 2529  11.561   0.719  12.490
66878SOL     OW 2530   5.445  13.975   4.581
66878SOL    HW1 2531   5.359  14.017   4.585
66878SOL    HW2 2532   5.444  13.912   4.653
66879SOL     OW 2533   3.487   8.308  12.747
66879SOL    HW1 2534   3.397   8.312  12.778
66879SOL    HW2 2535   3.513   8.217  12.763
66880SOL     OW 2536   0.699   9.038   1.112
66880SOL    HW1 2537   0.740   8.994   1.187
66880SOL    HW2 2538   0.615   9.068   1.145
66881SOL     OW 2539  12.612   5.962  10.336
66881SOL    HW1 2540  12.591   6.008  10.255
66881SOL    HW2 2541  12.633   5.873  10.309
66882SOL     OW 2542   6.168   7.471   0.074
66882SOL    HW1 2543   6.095   7.414   0.097
66882SOL    HW2 2544   6.211   7.490   0.157
66883SOL     OW 2545   5.822   2.410   3.900
66883SOL    HW1 2546   5.815   2.445   3.989
66883SOL    HW2 2547   5.735   2.425   3.862
66884SOL     OW 2548   9.131   4.956   2.563
66884SOL    HW1 2549   9.103   5.048   2.552
66884SOL    HW2 2550   9.049   4.907   2.566
66885SOL     OW 2551   8.261  14.614  11.916
66885SOL    HW1 2552   8.181  14.641  11.871
66885SOL    HW2 2553   8.280  14.686  11.976
66886SOL     OW 2554   7.694   8.824   8.127
66886SOL    HW1 2555   7.709   8.732   8.147
66886SOL    HW2 2556   7.778   8.866   8.147
66887SOL     OW 2557   9.947   9.878   0.815
66887SOL    HW1 2558   9.896   9.951   0.780
66887SOL    HW2 2559   9.977   9.907   0.901
66888SOL     OW 2560   9.160   8.043  12.352
66888SOL    HW1 2561   9.243   8.003  12.378
66888SOL    HW2 2562   9.096   8.009  12.414
66889SOL     OW 2563  11.720  14.126  10.104
66889SOL    HW1 2564  11.626  14.118  10.113
66889SOL    HW2 2565  11.733  14.208  10.056
66890SOL     OW 2566  11.143   5.922   0.355
66890SOL    HW1 2567  11.182   5.850   0.403
66890SOL    HW2 2568  11.149   5.997   0.415
66891SOL     OW 2569  10.123  11.308   6.470
66891SOL    HW1 2570  10.177  11.266   6.537
66891SOL    HW2 2571  10.042  11.257   6.469
66892SOL     OW 2572   0.220   7.973   3.045
66892SOL    HW1 2573   0.206   8.050   2.990
66892SOL    HW2 2574   0.182   7.900   2.995
66893SOL     OW 2575   2.213   3.148  12.301
66893SOL    HW1 2576   2.127   3.137  12.341
66893SOL    HW2 2577   2.271   3.170  12.374
66894SOL     OW 2578   2.292   7.062   4.494
66894SOL    HW1 2579   2.260   7.023   4.413
66894SOL    HW2 2580   2.234   7.135   4.511
66895SOL     OW 2581   1.406  12.827   3.356
66895SOL    HW1 2582   1.433  12.905   3.307
66895SOL    HW2 2583   1.412  12.756   3.292
66896SOL     OW 2584   8.064   7.443   5.063
66896SOL    HW1 2585   8.160   7.450   5.060
66896SOL    HW2 2586   8.034   7.498   4.990
66897SOL     OW 2587  10.858   0.193  14.218
66897SOL    HW1 2588  10.942   0.205  14.262
66897SOL    HW2 2589  10.801   0.261  14.255
66898SOL     OW 2590   1.573  13.506   6.780
66898SOL    HW1 2591   1.569  13.462   6.695
66898SOL    HW2 2592   1.581  13.435   6.844
66899SOL     OW 2593   3.932  11.804  13.722
66899SOL    HW1 2594   3.988  11.874  13.689
66899SOL    HW2 2595   3.924  11.821  13.816
66900SOL     OW 2596   4.247   0.737  10.010
66900SOL    HW1 2597   4.307   0.735   9.935
66900SOL    HW2 2598   4.292   0.789  10.076
66901SOL     OW 2599  11.548   9.977   2.272
66901SOL    HW1 2600  11.611  10.031   2.319
66901SOL    HW2 2601  11.601   9.912   2.225
66902SOL     OW 2602  12.400   6.196   3.415
66902SOL    HW1 2603  12.481   6.225   3.456
66902SOL    HW2 2604  12.417   6.106   3.387
66903SOL     OW 2605   3.442   9.223   0.878
66903SOL    HW1 2606   3.372   9.216   0.813
66903SOL    HW2 2607   3.499   9.293   0.845
66904SOL     OW 2608   8.189   7.903   9.083
66904SOL    HW1 2609   8.231   7.958   9.017
66904SOL    HW2 2610   8.120   7.958   9.120
66905SOL     OW 2611   1.350   7.178   5.288
66905SOL    HW1 2612   1.269   7.162   5.336
66905SOL    HW2 2613   1.336   7.262   5.245
66906SOL     OW 2614   3.685   9.469   1.337
66906SOL    HW1 2615   3.708   9.376   1.330
66906SOL    HW2 2616   3.609   9.479   1.279
66907SOL     OW 2617   0.199   9.193   5.976
66907SOL    HW1 2618   0.153   9.242   6.045
66907SOL    HW2 2619   0.132   9.134   5.941
66908SOL     OW 2620   4.820   3.876  14.875
66908SOL    HW1 2621   4.816   3.806   0.058
66908SOL    HW2 2622   4.825   3.830  14.791
66909SOL     OW 2623   9.568  10.467   0.884
66909SOL    HW1 2624   9.543  10.489   0.794
66909SOL    HW2 2625   9.488  10.483   0.935
66910SOL     OW 2626   1.981  14.275   5.513
66910SOL    HW1 2627   1.979  14.362   5.552
66910SOL    HW2 2628   1.892  14.242   5.522
66911SOL     OW 2629  11.804  11.599  10.986
66911SOL    HW1 2630  11.891  11.631  11.012
66911SOL    HW2 2631  11.816  11.570  10.896
66912SOL     OW 2632  10.396   5.714   6.541
66912SOL    HW1 2633  10.468   5.685   6.486
66912SOL    HW2 2634  10.342   5.770   6.484
66913SOL     OW 2635  11.367   9.295  11.764
66913SOL    HW1 2636  11.272   9.305  11.759
66913SOL    HW2 2637  11.382   9.206  11.732
66914SOL     OW 2638  13.745   6.827   2.796
66914SOL    HW1 2639  13.682   6.806   2.865
66914SOL    HW2 2640  13.830   6.812   2.836
66915SOL     OW 2641   5.195   0.676   3.343
66915SOL    HW1 2642   5.166   0.629   3.421
66915SOL    HW2 2643   5.138   0.753   3.338
66916SOL     OW 2644   6.804   2.044   1.423
66916SOL    HW1 2645   6.786   2.137   1.439
66916SOL    HW2 2646   6.900   2.037   1.428
66917SOL     OW 2647   8.214   9.644   7.213
66917SOL    HW1 2648   8.140   9.608   7.164
66917SOL    HW2 2649   8.291   9.601   7.175
66918SOL     OW 2650  12.061   3.060   9.860
66918SOL    HW1 2651  11.966   3.074   9.869
66918SOL    HW2 2652  12.068   2.988   9.797
66919SOL     OW 2653   7.131  12.350   3.401
66919SOL    HW1 2654   7.218  12.388   3.393
66919SOL    HW2 2655   7.134  12.271   3.347
66920SOL     OW 2656  13.853  13.820   6.846
66920SOL    HW1 2657  13.793  13.879   6.800
66920SOL    HW2 2658  13.839  13.840   6.939
66921SOL     OW 2659   2.243   1.549  11.089
66921SOL    HW1 2660   2.309   1.614  11.066
66921SOL    HW2 2661   2.280   1.466  11.060
66922SOL     OW 2662   3.164   1.294  10.043
66922SOL    HW1 2663   3.094   1.359  10.036
66922SOL    HW2 2664   3.144   1.245  10.122
66923SOL     OW 2665   9.458  11.777   3.453
66923SOL    HW1 2666   9.460  11.865   3.417
66923SOL    HW2 2667   9.527  11.730   3.406
66924SOL     OW 2668   0.022   9.025  14.645
66924SOL    HW1 2669   0.029   8.931  14.662
66924SOL    HW2 2670   0.067   9.038  14.561
66925SOL     OW 2671   6.724   8.093   8.344
66925SOL    HW1 2672   6.723   8.058   8.433
66925SOL    HW2 2673   6.706   8.017   8.288
66926SOL     OW 2674  12.654   5.039   0.642
66926SOL    HW1 2675  12.664   4.969   0.577
66926SOL    HW2 2676  12.590   5.098   0.603
66927SOL     OW 2677  12.519   1.330   6.656
66927SOL    HW1 2678  12.492   1.252   6.705
66927SOL    HW2 2679  12.461   1.400   6.688
66928SOL     OW 2680   0.416   1.129   5.106
66928SOL    HW1 2681   0.347   1.093   5.161
66928SOL    HW2 2682   0.381   1.213   5.076
66929SOL     OW 2683   8.941  11.736  12.656
66929SOL    HW1 2684   8.922  11.755  12.748
66929SOL    HW2 2685   8.896  11.806  12.607
66930SOL     OW 2686   0.499  10.710   6.184
66930SOL    HW1 2687   0.423  10.661   6.217
66930SOL    HW2 2688   0.509  10.681   6.093
66931SOL     OW 2689   2.142   6.758  11.360
66931SOL    HW1 2690   2.225   6.804  11.353
66931SOL    HW2 2691   2.076   6.823  11.336
66932SOL     OW 2692   0.669  10.424  12.191
66932SOL    HW1 2693   0.728  10.466  12.254
66932SOL    HW2 2694   0.623  10.357  12.242
66933SOL     OW 2695   9.547  13.190  13.705
66933SOL    HW1 2696   9.484  13.262  13.694
66933SOL    HW2 2697   9.548  13.146  13.620
66934SOL     OW 2698   7.329   5.884  12.713
66934SOL    HW1 2699   7.339   5.854  12.804
66934SOL    HW2 2700   7.361   5.810  12.661
66935SOL     OW 2701   6.776   3.072   8.104
66935SOL    HW1 2702   6.724   3.038   8.176
66935SOL    HW2 2703   6.753   3.017   8.029
66936SOL     OW 2704   0.845  12.701  12.451
66936SOL    HW1 2705   0.834  12.606  12.460
66936SOL    HW2 2706   0.788  12.738  12.519
66937SOL     OW 2707   6.120   9.190   2.131
66937SOL    HW1 2708   6.151   9.106   2.166
66937SOL    HW2 2709   6.025   9.184   2.134
66938SOL     OW 2710   9.923   9.134  11.020
66938SOL    HW1 2711   9.833   9.100  11.025
66938SOL    HW2 2712   9.934   9.156  10.927
66939SOL     OW 2713   6.889   6.431   6.021
66939SOL    HW1 2714   6.984   6.439   6.025
66939SOL    HW2 2715   6.873   6.342   5.989
66940SOL     OW 2716   7.744  10.323   4.110
66940SOL    HW1 2717   7.783  10.386   4.171
66940SOL    HW2 2718   7.674  10.281   4.159
66941SOL     OW 2719  11.540   9.982   9.315
66941SOL    HW1 2720  11.573  10.035   9.387
66941SOL    HW2 2721  11.558   9.892   9.341
66942SOL     OW 2722  10.646  11.733   6.138
66942SOL    HW1 2723  10.649  11.827   6.158
66942SOL    HW2 2724  10.615  11.692   6.219
66943SOL     OW 2725   0.755   1.414   1.215
66943SOL    HW1 2726   0.835   1.466   1.223
66943SOL    HW2 2727   0.689   1.464   1.262
66944SOL     OW 2728   4.055   0.231   0.895
66944SOL    HW1 2729   3.978   0.287   0.888
66944SOL    HW2 2730   4.020   0.142   0.894
66945SOL     OW 2731  13.407   5.788   9.079
66945SOL    HW1 2732  13.341   5.855   9.066
66945SOL    HW2 2733  13.361   5.716   9.122
66946SOL     OW 2734   0.964   1.469   5.989
66946SOL    HW1 2735   0.897   1.536   5.973
66946SOL    HW2 2736   0.956   1.410   5.914
66947SOL     OW 2737   2.731  13.484   9.122
66947SOL    HW1 2738   2.752  13.577   9.121
66947SOL    HW2 2739   2.637  13.481   9.142
66948SOL     OW 2740   6.951  13.561   6.101
66948SOL    HW1 2741   6.898  13.619   6.045
66948SOL    HW2 2742   6.889  13.527   6.166
66949SOL     OW 2743   0.303   8.333   1.878
66949SOL    HW1 2744   0.249   8.286   1.816
66949SOL    HW2 2745   0.382   8.279   1.887
66950SOL     OW 2746  13.880  11.548   6.823
66950SOL    HW1 2747  13.811  11.564   6.759
66950SOL    HW2 2748  13.936  11.482   6.781
66951SOL     OW 2749  10.638   9.564  10.350
66951SOL    HW1 2750  10.669   9.556  10.260
66951SOL    HW2 2751  10.645   9.476  10.386
66952SOL     OW 2752   3.357   0.140  11.135
66952SOL    HW1 2753   3.321   0.152  11.048
66952SOL    HW2 2754   3.432   0.198  11.139
66953SOL     OW 2755   2.330   5.852   5.504
66953SOL    HW1 2756   2.380   5.918   5.455
66953SOL    HW2 2757   2.354   5.769   5.465
66954SOL     OW 2758  11.965  14.048  12.753
66954SOL    HW1 2759  11.876  14.062  12.723
66954SOL    HW2 2760  12.020  14.084  12.684
66955SOL     OW 2761   7.717   4.722  14.663
66955SOL    HW1 2762   7.762   4.750  14.743
66955SOL    HW2 2763   7.641   4.673  14.694
66956SOL     OW 2764   6.308   4.311   2.221
66956SOL    HW1 2765   6.289   4.217   2.221
66956SOL    HW2 2766   6.317   4.334   2.313
66957SOL     OW 2767   9.550   0.948  13.416
66957SOL    HW1 2768   9.551   0.942  13.320
66957SOL    HW2 2769   9.479   0.890  13.443
66958SOL     OW 2770  11.049   0.391   1.423
66958SOL    HW1 2771  10.978   0.331   1.448
66958SOL    HW2 2772  11.084   0.353   1.342
66959SOL     OW 2773  13.603  13.543   4.051
66959SOL    HW1 2774  13.521  13.567   4.095
66959SOL    HW2 2775  13.606  13.448   4.055
66960SOL     OW 2776   9.246   5.143   1.186
66960SOL    HW1 2777   9.223   5.193   1.264
66960SOL    HW2 2778   9.340   5.128   1.193
66961SOL     OW 2779   0.280   5.617  10.035
66961SOL    HW1 2780   0.267   5.580   9.948
66961SOL    HW2 2781   0.196   5.659  10.057
66962SOL     OW 2782   1.799   3.476  11.703
66962SOL    HW1 2783   1.885   3.437  11.712
66962SOL    HW2 2784   1.739   3.402  11.702
66963SOL     OW 2785  12.242  10.332   8.268
66963SOL    HW1 2786  12.187  10.404   8.236
66963SOL    HW2 2787  12.330  10.352   8.235
66964SOL     OW 2788  12.199  12.449   1.312
66964SOL    HW1 2789  12.172  12.388   1.380
66964SOL    HW2 2790  12.252  12.397   1.252
66965SOL     OW 2791   3.766  11.784   3.897
66965SOL    HW1 2792   3.744  11.856   3.838
66965SOL    HW2 2793   3.854  11.757   3.869
66966SOL     OW 2794   1.527   4.721   8.831
66966SOL    HW1 2795   1.491   4.809   8.824
66966SOL    HW2 2796   1.564   4.717   8.919
66967SOL     OW 2797   6.545  11.240   4.896
66967SOL    HW1 2798   6.575  11.309   4.837
66967SOL    HW2 2799   6.624  11.192   4.919
66968SOL     OW 2800   8.234   0.331  11.761
66968SOL    HW1 2801   8.294   0.401  11.785
66968SOL    HW2 2802   8.286   0.251  11.766
66969SOL     OW 2803   3.412  13.884   0.832
66969SOL    HW1 2804   3.467  13.860   0.907
66969SOL    HW2 2805   3.461  13.854   0.755
66970SOL     OW 2806   5.792  12.494   8.670
66970SOL    HW1 2807   5.733  12.539   8.609
66970SOL    HW2 2808   5.773  12.532   8.755
66971SOL     OW 2809   3.858   3.438  10.547
66971SOL    HW1 2810   3.789   3.379  10.516
66971SOL    HW2 2811   3.873   3.498  10.474
66972SOL     OW 2812  10.123  10.635   8.981
66972SOL    HW1 2813  10.051  10.681   8.938
66972SOL    HW2 2814  10.187  10.622   8.911
66973SOL     OW 2815   1.338   2.007  11.012
66973SOL    HW1 2816   1.256   2.036  10.971
66973SOL    HW2 2817   1.399   1.999  10.939
66974SOL     OW 2818  13.585   2.081  10.458
66974SOL    HW1 2819  13.648   2.136  10.505
66974SOL    HW2 2820  13.501   2.125  10.472
66975SOL     OW 2821   8.635   4.535   6.649
66975SOL    HW1 2822   8.628   4.623   6.685
66975SOL    HW2 2823   8.700   4.491   6.704
66976SOL     OW 2824  13.616  11.263   3.570
66976SOL    HW1 2825  13.699  11.291   3.608
66976SOL    HW2 2826  13.633  11.256   3.476
66977SOL     OW 2827   6.332   2.357  10.464
66977SOL    HW1 2828   6.242   2.344  10.494
66977SOL    HW2 2829   6.364   2.432  10.514
66978SOL     OW 2830   0.703   3.733  14.515
66978SOL    HW1 2831   0.624   3.786  14.510
66978SOL    HW2 2832   0.703   3.682  14.434
66979SOL     OW 2833   4.971   6.786   0.418
66979SOL    HW1 2834   4.888   6.816   0.381
66979SOL    HW2 2835   4.946   6.742   0.499
66980SOL     OW 2836   3.445   2.072   9.010
66980SOL    HW1 2837   3.528   2.031   8.985
66980SOL    HW2 2838   3.387   2.055   8.936
66981SOL     OW 2839   6.393   7.160  10.591
66981SOL    HW1 2840   6.342   7.084  10.619
66981SOL    HW2 2841   6.426   7.136  10.504
66982SOL     OW 2842  11.021   8.645  13.902
66982SOL    HW1 2843  11.094   8.583  13.899
66982SOL    HW2 2844  10.986   8.645  13.813
66983SOL     OW 2845  11.752   8.321   3.768
66983SOL    HW1 2846  11.805   8.348   3.692
66983SOL    HW2 2847  11.662   8.339   3.741
66984SOL     OW 2848   7.932   2.799   5.218
66984SOL    HW1 2849   7.890   2.848   5.289
66984SOL    HW2 2850   7.861   2.781   5.156
66985SOL     OW 2851   1.226  12.511  14.844
66985SOL    HW1 2852   1.298  12.574  14.852
66985SOL    HW2 2853   1.269  12.428  14.825
66986SOL     OW 2854   6.924  14.625   1.704
66986SOL    HW1 2855   6.867  14.595   1.634
66986SOL    HW2 2856   6.985  14.553   1.718
66987SOL     OW 2857   9.694   0.382   9.629
66987SOL    HW1 2858   9.652   0.301   9.598
66987SOL    HW2 2859   9.630   0.421   9.688
66988SOL     OW 2860  10.326   5.287   7.897
66988SOL    HW1 2861  10.291   5.340   7.825
66988SOL    HW2 2862  10.395   5.234   7.857
66989SOL     OW 2863  12.735  13.632  11.052
66989SOL    HW1 2864  12.664  13.641  11.117
66989SOL    HW2 2865  12.696  13.664  10.971
66990SOL     OW 2866   6.513   5.594   6.358
66990SOL    HW1 2867   6.484   5.513   6.401
66990SOL    HW2 2868   6.607   5.596   6.372
66991SOL     OW 2869   7.984  11.232   5.250
66991SOL    HW1 2870   8.070  11.202   5.222
66991SOL    HW2 2871   7.976  11.320   5.214
66992SOL     OW 2872   3.703  10.119   6.212
66992SOL    HW1 2873   3.742  10.031   6.209
66992SOL    HW2 2874   3.715  10.147   6.302
66993SOL     OW 2875   2.380   6.233  11.917
66993SOL    HW1 2876   2.379   6.152  11.968
66993SOL    HW2 2877   2.472   6.253  11.904
66994SOL     OW 2878   3.510   6.136  14.131
66994SOL    HW1 2879   3.604   6.138  14.110
66994SOL    HW2 2880   3.488   6.043  14.131
66995SOL     OW 2881   8.144   3.773  10.325
66995SOL    HW1 2882   8.199   3.701  10.296
66995SOL    HW2 2883   8.137   3.761  10.420
66996SOL     OW 2884   5.113  13.280   6.630
66996SOL    HW1 2885   5.179  13.211   6.637
66996SOL    HW2 2886   5.164  13.361   6.624
66997SOL     OW 2887  10.930   3.015   6.141
66997SOL    HW1 2888  10.990   2.974   6.078
66997SOL    HW2 2889  10.879   2.943   6.176
66998SOL     OW 2890   6.770   8.694   6.471
66998SOL    HW1 2891   6.678   8.699   6.495
66998SOL    HW2 2892   6.816   8.723   6.550
66999SOL     OW 2893  10.448   3.858  12.508
66999SOL    HW1 2894  10.521   3.798  12.523
66999SOL    HW2 2895  10.477   3.913  12.436
67000SOL     OW 2896   9.579   2.097   6.459
67000SOL    HW1 2897   9.516   2.131   6.522
67000SOL    HW2 2898   9.559   2.003   6.453
67001SOL     OW 2899   1.852  11.901   8.227
67001SOL    HW1 2900   1.923  11.837   8.232
67001SOL    HW2 2901   1.851  11.943   8.313
67002SOL     OW 2902   5.055  13.814   6.102
67002SOL    HW1 2903   4.985  13.869   6.068
67002SOL    HW2 2904   5.134  13.868   6.095
67003SOL     OW 2905   4.657  14.465  13.350
67003SOL    HW1 2906   4.742  14.423  13.359
67003SOL    HW2 2907   4.594  14.392  13.355
67004SOL     OW 2908   7.136   8.430   2.973
67004SOL    HW1 2909   7.221   8.425   3.017
67004SOL    HW2 2910   7.114   8.523   2.974
67005SOL     OW 2911   2.986   5.307   2.718
67005SOL    HW1 2912   2.984   5.279   2.809
67005SOL    HW2 2913   3.075   5.285   2.688
67006SOL     OW 2914   2.589   9.748  12.640
67006SOL    HW1 2915   2.537   9.767  12.562
67006SOL    HW2 2916   2.665   9.700  12.608
67007SOL     OW 2917   5.681  11.175  11.697
67007SOL    HW1 2918   5.590  11.194  11.721
67007SOL    HW2 2919   5.733  11.217  11.766
67008SOL     OW 2920  11.901  11.782   0.777
67008SOL    HW1 2921  11.874  11.756   0.689
67008SOL    HW2 2922  11.890  11.702   0.830
67009SOL     OW 2923  14.300   8.769   9.385
67009SOL    HW1 2924  14.236   8.722   9.438
67009SOL    HW2 2925  14.251   8.795   9.307
67010SOL     OW 2926   6.919   0.219   9.673
67010SOL    HW1 2927   6.878   0.297   9.635
67010SOL    HW2 2928   6.978   0.254   9.740
67011SOL     OW 2929  12.495   1.691  13.219
67011SOL    HW1 2930  12.537   1.700  13.134
67011SOL    HW2 2931  12.497   1.597  13.237
67012SOL     OW 2932   5.893  12.860   2.644
67012SOL    HW1 2933   5.967  12.920   2.655
67012SOL    HW2 2934   5.829  12.888   2.710
67013SOL     OW 2935   6.263   8.968   9.067
67013SOL    HW1 2936   6.345   9.006   9.035
67013SOL    HW2 2937   6.210   8.956   8.988
67014SOL     OW 2938   0.120   7.055   1.203
67014SOL    HW1 2939   0.203   7.091   1.234
67014SOL    HW2 2940   0.140   6.966   1.176
67015SOL     OW 2941  12.725   9.581   9.572
67015SOL    HW1 2942  12.707   9.640   9.645
67015SOL    HW2 2943  12.718   9.493   9.610
67016SOL     OW 2944   4.861   4.093   5.365
67016SOL    HW1 2945   4.856   3.999   5.347
67016SOL    HW2 2946   4.947   4.106   5.404
67017SOL     OW 2947  10.145   7.954  12.487
67017SOL    HW1 2948  10.205   8.009  12.539
67017SOL    HW2 2949  10.061   7.999  12.492
67018SOL     OW 2950  11.534   3.835   0.738
67018SOL    HW1 2951  11.488   3.787   0.669
67018SOL    HW2 2952  11.466   3.891   0.777
67019SOL     OW 2953   7.098  11.744   5.554
67019SOL    HW1 2954   7.007  11.744   5.527
67019SOL    HW2 2955   7.133  11.661   5.522
67020SOL     OW 2956   0.102  12.745  13.534
67020SOL    HW1 2957   0.150  12.753  13.616
67020SOL    HW2 2958   0.164  12.703  13.474
67021SOL     OW 2959   8.606   3.462   8.891
67021SOL    HW1 2960   8.599   3.518   8.968
67021SOL    HW2 2961   8.695   3.477   8.858
67022SOL     OW 2962   7.505   4.725   5.927
67022SOL    HW1 2963   7.575   4.789   5.914
67022SOL    HW2 2964   7.546   4.654   5.975
67023SOL     OW 2965   7.350   2.215  12.374
67023SOL    HW1 2966   7.383   2.127  12.361
67023SOL    HW2 2967   7.365   2.259  12.290
67024SOL     OW 2968   1.618   2.050  12.065
67024SOL    HW1 2969   1.668   2.105  12.125
67024SOL    HW2 2970   1.662   1.965  12.068
67025SOL     OW 2971   6.513  12.015   6.107
67025SOL    HW1 2972   6.432  11.992   6.151
67025SOL    HW2 2973   6.578  11.953   6.141
67026SOL     OW 2974  14.601   2.387   9.025
67026SOL    HW1 2975  14.651   2.413   8.948
67026SOL    HW2 2976  14.629   2.449   9.093
67027SOL     OW 2977   9.432   1.378  12.600
67027SOL    HW1 2978   9.449   1.472  12.607
67027SOL    HW2 2979   9.345   1.367  12.638
67028SOL     OW 2980  14.175   4.383   4.396
67028SOL    HW1 2981  14.140   4.345   4.477
67028SOL    HW2 2982  14.119   4.348   4.327
67029SOL     OW 2983   9.267   7.761   6.721
67029SOL    HW1 2984   9.176   7.788   6.734
67029SOL    HW2 2985   9.311   7.838   6.685
67030SOL     OW 2986  11.427  12.092   5.013
67030SOL    HW1 2987  11.450  12.183   4.995
67030SOL    HW2 2988  11.340  12.096   5.051
67031SOL     OW 2989   2.437   8.866  12.758
67031SOL    HW1 2990   2.443   8.797  12.824
67031SOL    HW2 2991   2.417   8.819  12.676
67032SOL     OW 2992   5.961  14.625   4.481
67032SOL    HW1 2993   5.968  14.697   4.418
67032SOL    HW2 2994   5.994  14.549   4.434
67033SOL     OW 2995   0.385  13.222   2.337
67033SOL    HW1 2996   0.388  13.195   2.429
67033SOL    HW2 2997   0.396  13.140   2.288
67034SOL     OW 2998   7.757   2.488  11.869
67034SOL    HW1 2999   7.788   2.553  11.932
67034SOL    HW2 3000   7.814   2.412  11.883
67035SOL     OW 3001   8.472  13.157   7.698
67035SOL    HW1 3002   8.464  13.066   7.726
67035SOL    HW2 3003   8.567  13.174   7.700
67036SOL     OW 3004   1.464  11.963   0.541
67036SOL    HW1 3005   1.558  11.948   0.533
67036SOL    HW2 3006   1.424  11.879   0.516
67037SOL     OW 3007   7.848   8.945  13.139
67037SOL    HW1 3008   7.886   8.905  13.061
67037SOL    HW2 3009   7.899   8.909  13.212
67038SOL     OW 3010   8.159  13.092   3.628
67038SOL    HW1 3011   8.065  13.107   3.635
67038SOL    HW2 3012   8.171  13.054   3.541
67039SOL     OW 3013  13.314   6.619   0.050
67039SOL    HW1 3014  13.355   6.555  14.874
67039SOL    HW2 3015  13.222   6.620   0.024
67040SOL     OW 3016   3.384   3.871   1.703
67040SOL    HW1 3017   3.450   3.802   1.711
67040SOL    HW2 3018   3.388   3.899   1.612
67041SOL     OW 3019   8.153  10.213  12.493
67041SOL    HW1 3020   8.116  10.297  12.468
67041SOL    HW2 3021   8.247  10.223  12.479
67042SOL     OW 3022  13.357  14.332   5.180
67042SOL    HW1 3023  13.321  14.349   5.267
67042SOL    HW2 3024  13.444  14.294   5.196
67043SOL     OW 3025   4.861   8.036  14.005
67043SOL    HW1 3026   4.946   8.054  13.966
67043SOL    HW2 3027   4.798   8.050  13.934
67044SOL     OW 3028   1.047  13.712   5.825
67044SOL    HW1 3029   1.126  13.702   5.878
67044SOL    HW2 3030   1.077  13.755   5.745
67045SOL     OW 3031  10.824   4.433   9.421
67045SOL    HW1 3032  10.792   4.346   9.399
67045SOL    HW2 3033  10.753   4.473   9.471
67046SOL     OW 3034   6.145   3.114   1.456
67046SOL    HW1 3035   6.126   3.073   1.371
67046SOL    HW2 3036   6.109   3.053   1.521
67047SOL     OW 3037   7.088  11.467   3.163
67047SOL    HW1 3038   7.154  11.399   3.150
67047SOL    HW2 3039   7.028  11.457   3.090
67048SOL     OW 3040   2.412  10.399   6.243
67048SOL    HW1 3041   2.323  10.378   6.213
67048SOL    HW2 3042   2.459  10.317   6.236
67049SOL     OW 3043   9.959   3.012   0.552
67049SOL    HW1 3044   9.953   2.969   0.467
67049SOL    HW2 3045   9.962   3.105   0.533
67050SOL     OW 3046   2.401   0.746  11.588
67050SOL    HW1 3047   2.444   0.686  11.527
67050SOL    HW2 3048   2.385   0.694  11.666
67051SOL     OW 3049  11.139  11.208  11.285
67051SOL    HW1 3050  11.205  11.244  11.225
67051SOL    HW2 3051  11.075  11.279  11.295
67052SOL     OW 3052  10.994  10.940  12.809
67052SOL    HW1 3053  10.937  10.889  12.752
67052SOL    HW2 3054  10.935  10.976  12.876
67053SOL     OW 3055  13.870   6.601   7.400
67053SOL    HW1 3056  13.857   6.507   7.388
67053SOL    HW2 3057  13.886   6.611   7.494
67054SOL     OW 3058   7.629  10.570   5.599
67054SOL    HW1 3059   7.578  10.529   5.529
67054SOL    HW2 3060   7.577  10.554   5.678
67055SOL     OW 3061  12.828   0.852   3.664
67055SOL    HW1 3062  12.763   0.918   3.688
67055SOL    HW2 3063  12.843   0.867   3.571
67056SOL     OW 3064  14.365   4.531   3.121
67056SOL    HW1 3065  14.391   4.453   3.170
67056SOL    HW2 3066  14.317   4.584   3.185
67057SOL     OW 3067  12.323   4.405   5.030
67057SOL    HW1 3068  12.371   4.485   5.007
67057SOL    HW2 3069  12.287   4.374   4.947
67058SOL     OW 3070  12.710  12.996   1.888
67058SOL    HW1 3071  12.682  12.925   1.946
67058SOL    HW2 3072  12.803  13.006   1.906
67059SOL     OW 3073  11.518   4.985   4.784
67059SOL    HW1 3074  11.592   5.010   4.729
67059SOL    HW2 3075  11.450   4.957   4.722
67060SOL     OW 3076   4.842   8.847   9.473
67060SOL    HW1 3077   4.926   8.818   9.507
67060SOL    HW2 3078   4.848   8.942   9.469
67061SOL     OW 3079   4.198  14.146   1.267
67061SOL    HW1 3080   4.129  14.190   1.218
67061SOL    HW2 3081   4.168  14.149   1.358
67062SOL     OW 3082   4.498  12.724  11.138
67062SOL    HW1 3083   4.445  12.795  11.175
67062SOL    HW2 3084   4.450  12.697  11.060
67063SOL     OW 3085   8.870  13.081   2.532
67063SOL    HW1 3086   8.784  13.055   2.500
67063SOL    HW2 3087   8.866  13.066   2.627
67064SOL     OW 3088  11.404  11.939   8.053
67064SOL    HW1 3089  11.472  11.985   8.004
67064SOL    HW2 3090  11.328  11.997   8.049
67065SOL     OW 3091   1.912   4.599   5.504
67065SOL    HW1 3092   1.930   4.505   5.492
67065SOL    HW2 3093   1.816   4.606   5.499
67066SOL     OW 3094   1.387  13.527   6.509
67066SOL    HW1 3095   1.310  13.516   6.453
67066SOL    HW2 3096   1.427  13.609   6.479
67067SOL     OW 3097  11.214   5.448  11.215
67067SOL    HW1 3098  11.267   5.404  11.149
67067SOL    HW2 3099  11.240   5.407  11.298
67068SOL     OW 3100   5.331   6.535   6.685
67068SOL    HW1 3101   5.373   6.562   6.603
67068SOL    HW2 3102   5.394   6.560   6.753
67069SOL     OW 3103   6.701   6.357   9.964
67069SOL    HW1 3104   6.722   6.265   9.979
67069SOL    HW2 3105   6.764   6.385   9.898
67070SOL     OW 3106   3.341   1.347   9.663
67070SOL    HW1 3107   3.275   1.290   9.623
67070SOL    HW2 3108   3.413   1.347   9.600
67071SOL     OW 3109   4.310  13.781  14.825
67071SOL    HW1 3110   4.254  13.845  14.869
67071SOL    HW2 3111   4.257  13.701  14.821
67072SOL     OW 3112   7.267  12.111  12.106
67072SOL    HW1 3113   7.336  12.072  12.160
67072SOL    HW2 3114   7.233  12.183  12.159
67073SOL     OW 3115   9.981  12.014   7.289
67073SOL    HW1 3116   9.949  11.983   7.374
67073SOL    HW2 3117   9.928  12.091   7.271
67074SOL     OW 3118   4.351   4.900   4.462
67074SOL    HW1 3119   4.382   4.816   4.496
67074SOL    HW2 3120   4.391   4.909   4.376
67075SOL     OW 3121   8.771  11.934   5.177
67075SOL    HW1 3122   8.833  11.991   5.222
67075SOL    HW2 3123   8.820  11.854   5.159
67076SOL     OW 3124   5.685   3.794   7.524
67076SOL    HW1 3125   5.592   3.785   7.506
67076SOL    HW2 3126   5.728   3.735   7.462
67077SOL     OW 3127   3.781  14.007  12.774
67077SOL    HW1 3128   3.809  14.071  12.709
67077SOL    HW2 3129   3.764  14.059  12.853
67078SOL     OW 3130   4.609   8.453   6.520
67078SOL    HW1 3131   4.670   8.403   6.465
67078SOL    HW2 3132   4.526   8.449   6.474
67079SOL     OW 3133  13.075   3.283   1.349
67079SOL    HW1 3134  13.118   3.212   1.300
67079SOL    HW2 3135  13.065   3.353   1.285
67080SOL     OW 3136   7.282   4.562   9.142
67080SOL    HW1 3137   7.202   4.565   9.195
67080SOL    HW2 3138   7.317   4.473   9.156
67081SOL     OW 3139  14.659   1.130  11.234
67081SOL    HW1 3140  14.634   1.121  11.326
67081SOL    HW2 3141  14.640   1.221  11.213
67082SOL     OW 3142  12.293   8.898  14.786
67082SOL    HW1 3143  12.209   8.855  14.801
67082SOL    HW2 3144  12.348   8.831  14.745
67083SOL     OW 3145  10.267   5.029  14.340
67083SOL    HW1 3146  10.188   5.083  14.335
67083SOL    HW2 3147  10.237   4.946  14.375
67084SOL     OW 3148   6.856   2.910   9.359
67084SOL    HW1 3149   6.856   2.898   9.264
67084SOL    HW2 3150   6.777   2.962   9.376
67085SOL     OW 3151  14.377  12.896   3.307
67085SOL    HW1 3152  14.380  12.992   3.307
67085SOL    HW2 3153  14.417  12.871   3.390
67086SOL     OW 3154  12.664   4.937   4.080
67086SOL    HW1 3155  12.573   4.954   4.054
67086SOL    HW2 3156  12.696   4.874   4.015
67087SOL     OW 3157  12.239  13.836   9.167
67087SOL    HW1 3158  12.222  13.781   9.090
67087SOL    HW2 3159  12.331  13.821   9.186
67088SOL     OW 3160   5.669  13.516   5.957
67088SOL    HW1 3161   5.711  13.533   5.872
67088SOL    HW2 3162   5.738  13.530   6.021
67089SOL     OW 3163  10.577  12.300  13.106
67089SOL    HW1 3164  10.541  12.287  13.194
67089SOL    HW2 3165  10.505  12.274  13.048
67090SOL     OW 3166  10.550   0.871  13.938
67090SOL    HW1 3167  10.534   0.792  13.989
67090SOL    HW2 3168  10.566   0.940  14.003
67091SOL     OW 3169  14.303   4.646  13.691
67091SOL    HW1 3170  14.226   4.692  13.725
67091SOL    HW2 3171  14.342   4.604  13.768
67092SOL     OW 3172   1.422   4.735   6.728
67092SOL    HW1 3173   1.440   4.670   6.797
67092SOL    HW2 3174   1.350   4.696   6.678
67093SOL     OW 3175   2.999  14.579   0.979
67093SOL    HW1 3176   3.050  14.587   0.898
67093SOL    HW2 3177   3.033  14.500   1.021
67094SOL     OW 3178  10.789   7.531   1.262
67094SOL    HW1 3179  10.785   7.602   1.198
67094SOL    HW2 3180  10.879   7.497   1.255
67095SOL     OW 3181  14.596   8.847   5.182
67095SOL    HW1 3182  14.555   8.933   5.178
67095SOL    HW2 3183  14.690   8.864   5.180
67096SOL     OW 3184   8.005  10.836  11.044
67096SOL    HW1 3185   8.037  10.905  11.102
67096SOL    HW2 3186   8.077  10.773  11.041
67097SOL     OW 3187  12.972   0.856   3.171
67097SOL    HW1 3188  12.950   0.886   3.083
67097SOL    HW2 3189  13.067   0.868   3.177
67098SOL     OW 3190   9.206  14.813   5.783
67098SOL    HW1 3191   9.207   0.027   5.790
67098SOL    HW2 3192   9.114  14.791   5.766
67099SOL     OW 3193   3.819   1.188   6.961
67099SOL    HW1 3194   3.826   1.275   7.001
67099SOL    HW2 3195   3.752   1.144   7.014
67100SOL     OW 3196   1.952   0.605  12.272
67100SOL    HW1 3197   1.978   0.576  12.359
67100SOL    HW2 3198   1.861   0.576  12.263
67101SOL     OW 3199   0.905  10.030   5.002
67101SOL    HW1 3200   0.980   9.979   4.973
67101SOL    HW2 3201   0.938  10.082   5.075
67102SOL     OW 3202   6.123   6.917   0.850
67102SOL    HW1 3203   6.166   6.851   0.795
67102SOL    HW2 3204   6.045   6.873   0.884
67103SOL     OW 3205   2.276  14.802  11.234
67103SOL    HW1 3206   2.199  14.854  11.258
67103SOL    HW2 3207   2.350  14.860  11.250
67104SOL     OW 3208  12.958  13.516  11.793
67104SOL    HW1 3209  12.928  13.559  11.873
67104SOL    HW2 3210  12.944  13.581  11.725
67105SOL     OW 3211   1.833   7.099   3.728
67105SOL    HW1 3212   1.769   7.052   3.782
67105SOL    HW2 3213   1.819   7.191   3.751
67106SOL     OW 3214  13.421   2.500   0.641
67106SOL    HW1 3215  13.440   2.422   0.589
67106SOL    HW2 3216  13.502   2.551   0.638
67107SOL     OW 3217  12.201   4.812  13.099
67107SOL    HW1 3218  12.187   4.721  13.125
67107SOL    HW2 3219  12.223   4.808  13.006
67108SOL     OW 3220   0.300   6.086   7.097
67108SOL    HW1 3221   0.280   6.180   7.101
67108SOL    HW2 3222   0.390   6.082   7.063
67109SOL     OW 3223   1.362   6.766   9.788
67109SOL    HW1 3224   1.327   6.686   9.828
67109SOL    HW2 3225   1.315   6.837   9.831
67110SOL     OW 3226   5.573  11.273   7.446
67110SOL    HW1 3227   5.634  11.284   7.372
67110SOL    HW2 3228   5.618  11.314   7.520
67111SOL     OW 3229   5.226   2.654   4.192
67111SOL    HW1 3230   5.277   2.599   4.251
67111SOL    HW2 3231   5.292   2.694   4.134
67112SOL     OW 3232   6.763   6.626  11.172
67112SOL    HW1 3233   6.672   6.652  11.159
67112SOL    HW2 3234   6.797   6.690  11.234
67113SOL     OW 3235   1.947  11.654   6.497
67113SOL    HW1 3236   1.868  11.624   6.542
67113SOL    HW2 3237   1.914  11.705   6.423
67114SOL     OW 3238   9.817   0.064   0.657
67114SOL    HW1 3239   9.908   0.093   0.661
67114SOL    HW2 3240   9.821  14.851   0.665
67115SOL     OW 3241  14.849  11.411   5.350
67115SOL    HW1 3242   0.001  11.333   5.305
67115SOL    HW2 3243  14.781  11.444   5.291
67116SOL     OW 3244  11.442  11.327   7.477
67116SOL    HW1 3245  11.419  11.345   7.386
67116SOL    HW2 3246  11.373  11.267   7.507
67117SOL     OW 3247   8.292   1.878   3.356
67117SOL    HW1 3248   8.317   1.888   3.448
67117SOL    HW2 3249   8.363   1.918   3.306
67118SOL     OW 3250   3.703   6.709   1.352
67118SOL    HW1 3251   3.683   6.800   1.373
67118SOL    HW2 3252   3.775   6.686   1.410
67119SOL     OW 3253  12.565   1.397   2.633
67119SOL    HW1 3254  12.514   1.414   2.713
67119SOL    HW2 3255  12.589   1.304   2.640
67120SOL     OW 3256   8.513   1.368   0.211
67120SOL    HW1 3257   8.493   1.303   0.278
67120SOL    HW2 3258   8.490   1.326   0.128
67121SOL     OW 3259   2.458   5.830   0.378
67121SOL    HW1 3260   2.423   5.811   0.465
67121SOL    HW2 3261   2.403   5.901   0.345
67122SOL     OW 3262   1.464   8.126   2.019
67122SOL    HW1 3263   1.536   8.129   1.956
67122SOL    HW2 3264   1.446   8.032   2.029
67123SOL     OW 3265  12.981   4.834   6.065
67123SOL    HW1 3266  12.947   4.874   5.985
67123SOL    HW2 3267  13.054   4.779   6.035
67124SOL     OW 3268   2.132   0.629   2.141
67124SOL    HW1 3269   2.139   0.593   2.229
67124SOL    HW2 3270   2.216   0.608   2.100
67125SOL     OW 3271  13.223   1.097   9.898
67125SOL    HW1 3272  13.164   1.025   9.873
67125SOL    HW2 3273  13.306   1.053   9.919
67126SOL     OW 3274  12.847   0.024   5.780
67126SOL    HW1 3275  12.877   0.034   5.871
67126SOL    HW2 3276  12.902   0.085   5.730
67127SOL     OW 3277   6.636  11.452   8.588
67127SOL    HW1 3278   6.727  11.427   8.576
67127SOL    HW2 3279   6.621  11.521   8.524
67128SOL     OW 3280  10.229   2.559   0.785
67128SOL    HW1 3281  10.156   2.557   0.724
67128SOL    HW2 3282  10.272   2.643   0.769
67129SOL     OW 3283   5.718   6.924   7.199
67129SOL    HW1 3284   5.753   6.856   7.258
67129SOL    HW2 3285   5.795   6.973   7.171
67130SOL     OW 3286   8.329  10.458   0.711
67130SOL    HW1 3287   8.328  10.376   0.661
67130SOL    HW2 3288   8.411  10.454   0.760
67131SOL     OW 3289   6.472   6.145   3.684
67131SOL    HW1 3290   6.453   6.232   3.649
67131SOL    HW2 3291   6.545   6.158   3.744
67132SOL     OW 3292  13.008   7.296   1.897
67132SOL    HW1 3293  13.060   7.233   1.946
67132SOL    HW2 3294  13.069   7.368   1.879
67133SOL     OW 3295  14.086   3.415   8.553
67133SOL    HW1 3296  14.074   3.325   8.520
67133SOL    HW2 3297  13.998   3.442   8.581
67134SOL     OW 3298   3.362   1.007  10.716
67134SOL    HW1 3299   3.394   0.960  10.639
67134SOL    HW2 3300   3.291   0.953  10.749
67135SOL     OW 3301  12.191   0.440   5.122
67135SOL    HW1 3302  12.210   0.349   5.101
67135SOL    HW2 3303  12.210   0.488   5.041
67136SOL     OW 3304   7.522  13.181   1.408
67136SOL    HW1 3305   7.463  13.196   1.334
67136SOL    HW2 3306   7.588  13.250   1.399
67137SOL     OW 3307  13.319   8.649   0.822
67137SOL    HW1 3308  13.243   8.594   0.844
67137SOL    HW2 3309  13.377   8.591   0.774
67138SOL     OW 3310   9.659  13.379  14.506
67138SOL    HW1 3311   9.589  13.315  14.516
67138SOL    HW2 3312   9.633  13.453  14.561
67139SOL     OW 3313  10.145   4.045   9.766
67139SOL    HW1 3314  10.137   3.970   9.707
67139SOL    HW2 3315  10.058   4.056   9.804
67140SOL     OW 3316  11.029  10.554  11.368
67140SOL    HW1 3317  11.122  10.541  11.352
67140SOL    HW2 3318  10.997  10.469  11.397
67141SOL     OW 3319   3.252  13.925   8.239
67141SOL    HW1 3320   3.312  13.882   8.178
67141SOL    HW2 3321   3.209  13.852   8.284
67142SOL     OW 3322  11.592   4.273   5.849
67142SOL    HW1 3323  11.610   4.340   5.783
67142SOL    HW2 3324  11.575   4.193   5.798
67143SOL     OW 3325   7.655  12.094   9.065
67143SOL    HW1 3326   7.607  12.112   9.145
67143SOL    HW2 3327   7.588  12.090   8.997
67144SOL     OW 3328  11.966   8.303   3.971
67144SOL    HW1 3329  11.987   8.231   3.911
67144SOL    HW2 3330  11.979   8.382   3.919
67145SOL     OW 3331   6.834   2.760   9.098
67145SOL    HW1 3332   6.841   2.672   9.134
67145SOL    HW2 3333   6.784   2.749   9.017
67146SOL     OW 3334   0.496   9.636  12.124
67146SOL    HW1 3335   0.554   9.706  12.095
67146SOL    HW2 3336   0.478   9.656  12.216
67147SOL     OW 3337  12.563   3.728   6.098
67147SOL    HW1 3338  12.544   3.819   6.117
67147SOL    HW2 3339  12.648   3.730   6.053
67148SOL     OW 3340   1.789   3.059   3.286
67148SOL    HW1 3341   1.725   3.109   3.336
67148SOL    HW2 3342   1.859   3.041   3.348
67149SOL     OW 3343  10.886  11.794   8.773
67149SOL    HW1 3344  10.829  11.752   8.838
67149SOL    HW2 3345  10.974  11.766   8.796
67150SOL     OW 3346   3.727  12.747   7.423
67150SOL    HW1 3347   3.710  12.772   7.514
67150SOL    HW2 3348   3.720  12.828   7.374
67151SOL     OW 3349  13.958   3.011   3.914
67151SOL    HW1 3350  13.897   3.003   3.988
67151SOL    HW2 3351  13.976   2.921   3.888
67152SOL     OW 3352  12.329   6.965  10.018
67152SOL    HW1 3353  12.264   6.950  10.087
67152SOL    HW2 3354  12.280   6.961   9.936
67153SOL     OW 3355   8.598   6.744   7.215
67153SOL    HW1 3356   8.607   6.825   7.263
67153SOL    HW2 3357   8.588   6.771   7.123
67154SOL     OW 3358  11.825  12.132   9.493
67154SOL    HW1 3359  11.862  12.076   9.424
67154SOL    HW2 3360  11.901  12.157   9.546
67155SOL     OW 3361  14.178  14.443  13.960
67155SOL    HW1 3362  14.103  14.451  13.901
67155SOL    HW2 3363  14.149  14.483  14.042
67156SOL     OW 3364   3.259   2.386  11.314
67156SOL    HW1 3365   3.233   2.470  11.276
67156SOL    HW2 3366   3.262   2.403  11.408
67157SOL     OW 3367   8.650   1.463  12.715
67157SOL    HW1 3368   8.662   1.463  12.620
67157SOL    HW2 3369   8.557   1.443  12.728
67158SOL     OW 3370   4.027  12.535  12.275
67158SOL    HW1 3371   4.092  12.576  12.218
67158SOL    HW2 3372   4.031  12.442  12.253
67159SOL     OW 3373   4.395   4.045   6.906
67159SOL    HW1 3374   4.469   4.102   6.928
67159SOL    HW2 3375   4.339   4.099   6.851
67160SOL     OW 3376   8.214  13.400  12.712
67160SOL    HW1 3377   8.156  13.450  12.655
67160SOL    HW2 3378   8.289  13.377  12.657
67161SOL     OW 3379   8.386   1.470  12.450
67161SOL    HW1 3380   8.360   1.417  12.374
67161SOL    HW2 3381   8.327   1.545  12.447
67162SOL     OW 3382  14.408   1.116   2.590
67162SOL    HW1 3383  14.341   1.176   2.557
67162SOL    HW2 3384  14.442   1.072   2.512
67163SOL     OW 3385   2.648   1.969   2.923
67163SOL    HW1 3386   2.712   2.021   2.874
67163SOL    HW2 3387   2.635   1.891   2.868
67164SOL     OW 3388  14.708  11.177   4.770
67164SOL    HW1 3389  14.749  11.264   4.771
67164SOL    HW2 3390  14.651  11.178   4.693
67165SOL     OW 3391   6.291   7.380  11.608
67165SOL    HW1 3392   6.227   7.393  11.678
67165SOL    HW2 3393   6.366   7.433  11.635
67166SOL     OW 3394   8.793   1.416   6.261
67166SOL    HW1 3395   8.829   1.414   6.172
67166SOL    HW2 3396   8.825   1.336   6.301
67167SOL     OW 3397   7.425   5.079   9.828
67167SOL    HW1 3398   7.439   4.985   9.842
67167SOL    HW2 3399   7.367   5.105   9.900
67168SOL     OW 3400   2.086  11.754  14.710
67168SOL    HW1 3401   2.160  11.700  14.680
67168SOL    HW2 3402   2.086  11.743  14.805
67169SOL     OW 3403   0.933  12.028   6.971
67169SOL    HW1 3404   0.880  11.994   7.044
67169SOL    HW2 3405   0.986  11.954   6.943
67170SOL     OW 3406   8.398   4.720   8.741
67170SOL    HW1 3407   8.324   4.727   8.680
67170SOL    HW2 3408   8.362   4.671   8.816
67171SOL     OW 3409   9.361  13.604   7.689
67171SOL    HW1 3410   9.403  13.518   7.687
67171SOL    HW2 3411   9.277  13.588   7.733
67172SOL     OW 3412  12.815   2.775   7.189
67172SOL    HW1 3413  12.893   2.719   7.184
67172SOL    HW2 3414  12.746   2.717   7.220
67173SOL     OW 3415   7.143  13.694   1.842
67173SOL    HW1 3416   7.099  13.751   1.779
67173SOL    HW2 3417   7.092  13.613   1.841
67174SOL     OW 3418  14.680   1.017   6.613
67174SOL    HW1 3419  14.618   1.067   6.559
67174SOL    HW2 3420  14.646   0.928   6.612
67175SOL     OW 3421  11.880  12.183   3.313
67175SOL    HW1 3422  11.796  12.179   3.358
67175SOL    HW2 3423  11.858  12.173   3.220
67176SOL     OW 3424  11.238  10.528   6.645
67176SOL    HW1 3425  11.219  10.441   6.681
67176SOL    HW2 3426  11.166  10.583   6.676
67177SOL     OW 3427  10.749  12.388   1.582
67177SOL    HW1 3428  10.768  12.477   1.551
67177SOL    HW2 3429  10.679  12.399   1.646
67178SOL     OW 3430  11.474   5.723   5.644
67178SOL    HW1 3431  11.569   5.713   5.650
67178SOL    HW2 3432  11.454   5.711   5.551
67179SOL     OW 3433  11.143  11.490   1.902
67179SOL    HW1 3434  11.194  11.547   1.844
67179SOL    HW2 3435  11.206  11.426   1.934
67180SOL     OW 3436  12.333   0.210  12.393
67180SOL    HW1 3437  12.378   0.215  12.477
67180SOL    HW2 3438  12.287   0.126  12.396
67181SOL     OW 3439  12.993   7.158  13.123
67181SOL    HW1 3440  13.026   7.145  13.212
67181SOL    HW2 3441  12.908   7.200  13.135
67182SOL     OW 3442  13.138   3.659   5.073
67182SOL    HW1 3443  13.216   3.683   5.122
67182SOL    HW2 3444  13.128   3.727   5.008
67183SOL     OW 3445   3.391  14.264   7.640
67183SOL    HW1 3446   3.479  14.254   7.675
67183SOL    HW2 3447   3.383  14.357   7.620
67184SOL     OW 3448   2.042   9.795  13.770
67184SOL    HW1 3449   2.002   9.849  13.837
67184SOL    HW2 3450   1.987   9.716  13.767
67185SOL     OW 3451  13.972   6.806  12.078
67185SOL    HW1 3452  14.045   6.866  12.095
67185SOL    HW2 3453  14.008   6.719  12.095
67186SOL     OW 3454  14.701   3.101  12.759
67186SOL    HW1 3455  14.629   3.053  12.717
67186SOL    HW2 3456  14.659   3.153  12.828
67187SOL     OW 3457  13.341   4.432  14.868
67187SOL    HW1 3458  13.358   4.526  14.872
67187SOL    HW2 3459  13.315   4.416  14.777
67188SOL     OW 3460  13.870  14.527  12.568
67188SOL    HW1 3461  13.859  14.601  12.628
67188SOL    HW2 3462  13.835  14.559  12.484
67189SOL     OW 3463   4.151  12.924   5.697
67189SOL    HW1 3464   4.209  12.991   5.733
67189SOL    HW2 3465   4.137  12.951   5.606
67190SOL     OW 3466  12.161  10.259   8.563
67190SOL    HW1 3467  12.217  10.333   8.539
67190SOL    HW2 3468  12.188  10.188   8.504
67191SOL     OW 3469  12.477   2.126   9.921
67191SOL    HW1 3470  12.516   2.184   9.855
67191SOL    HW2 3471  12.446   2.051   9.870
67192SOL     OW 3472   0.588  13.372   6.813
67192SOL    HW1 3473   0.543  13.288   6.825
67192SOL    HW2 3474   0.667  13.365   6.867
67193SOL     OW 3475   3.287   7.876  12.591
67193SOL    HW1 3476   3.209   7.820  12.598
67193SOL    HW2 3477   3.340   7.833  12.524
67194SOL     OW 3478  14.032   0.778   1.246
67194SOL    HW1 3479  13.968   0.812   1.184
67194SOL    HW2 3480  14.069   0.701   1.202
67195SOL     OW 3481  11.382   5.289   8.999
67195SOL    HW1 3482  11.344   5.206   8.969
67195SOL    HW2 3483  11.465   5.295   8.952
67196SOL     OW 3484   3.743   7.865   6.028
67196SOL    HW1 3485   3.721   7.811   6.104
67196SOL    HW2 3486   3.837   7.856   6.018
67197SOL     OW 3487   8.085   3.458   8.419
67197SOL    HW1 3488   8.061   3.368   8.440
67197SOL    HW2 3489   8.173   3.452   8.380
67198SOL     OW 3490   5.499  13.805   5.653
67198SOL    HW1 3491   5.444  13.758   5.715
67198SOL    HW2 3492   5.440  13.866   5.609
67199SOL     OW 3493   1.580   5.350   2.691
67199SOL    HW1 3494   1.662   5.401   2.696
67199SOL    HW2 3495   1.519   5.398   2.747
67200SOL     OW 3496   5.431   6.605   5.806
67200SOL    HW1 3497   5.479   6.593   5.724
67200SOL    HW2 3498   5.439   6.698   5.826
67201SOL     OW 3499  12.211   6.962   5.901
67201SOL    HW1 3500  12.204   7.025   5.830
67201SOL    HW2 3501  12.285   6.907   5.877
67202SOL     OW 3502   4.591   2.467   7.487
67202SOL    HW1 3503   4.671   2.442   7.534
67202SOL    HW2 3504   4.533   2.392   7.497
67203SOL     OW 3505  12.613   9.346  13.068
67203SOL    HW1 3506  12.678   9.282  13.096
67203SOL    HW2 3507  12.646   9.430  13.100
67204SOL     OW 3508   4.827  14.213   4.484
67204SOL    HW1 3509   4.747  14.189   4.531
67204SOL    HW2 3510   4.835  14.146   4.415
67205SOL     OW 3511   1.928   7.749  11.417
67205SOL    HW1 3512   1.916   7.832  11.370
67205SOL    HW2 3513   1.914   7.771  11.509
67206SOL     OW 3514   7.633  13.515  12.840
67206SOL    HW1 3515   7.554  13.486  12.885
67206SOL    HW2 3516   7.684  13.435  12.827
67207SOL     OW 3517  10.363  11.080   8.890
67207SOL    HW1 3518  10.296  11.040   8.946
67207SOL    HW2 3519  10.316  11.146   8.839
67208SOL     OW 3520   1.564   6.433   5.967
67208SOL    HW1 3521   1.530   6.460   6.052
67208SOL    HW2 3522   1.559   6.338   5.968
67209SOL     OW 3523   4.087  14.519  10.048
67209SOL    HW1 3524   4.182  14.513  10.065
67209SOL    HW2 3525   4.052  14.436  10.081
67210SOL     OW 3526   3.381   2.037   5.911
67210SOL    HW1 3527   3.439   1.962   5.906
67210SOL    HW2 3528   3.362   2.047   6.005
67211SOL     OW 3529   8.832   7.513  13.291
67211SOL    HW1 3530   8.919   7.473  13.300
67211SOL    HW2 3531   8.800   7.520  13.381
67212SOL     OW 3532   2.026   7.669  14.046
67212SOL    HW1 3533   2.019   7.751  14.095
67212SOL    HW2 3534   1.967   7.609  14.091
67213SOL     OW 3535   9.795   7.140  11.867
67213SOL    HW1 3536   9.856   7.194  11.917
67213SOL    HW2 3537   9.748   7.089  11.933
67214SOL     OW 3538   6.378   2.794   4.300
67214SOL    HW1 3539   6.418   2.750   4.375
67214SOL    HW2 3540   6.365   2.884   4.329
67215SOL     OW 3541   0.190   4.874  12.734
67215SOL    HW1 3542   0.106   4.905  12.767
67215SOL    HW2 3543   0.198   4.912  12.647
67216SOL     OW 3544   3.878  13.988  10.917
67216SOL    HW1 3545   3.940  13.983  10.845
67216SOL    HW2 3546   3.860  13.896  10.940
67217SOL     OW 3547   6.494  10.376  14.492
67217SOL    HW1 3548   6.505  10.344  14.582
67217SOL    HW2 3549   6.531  10.306  14.438
67218SOL     OW 3550   9.268   1.750   8.723
67218SOL    HW1 3551   9.250   1.833   8.769
67218SOL    HW2 3552   9.361   1.735   8.737
67219SOL     OW 3553   2.147  11.577   3.595
67219SOL    HW1 3554   2.239  11.554   3.605
67219SOL    HW2 3555   2.121  11.539   3.511
67220SOL     OW 3556   2.470  12.152  11.329
67220SOL    HW1 3557   2.380  12.171  11.305
67220SOL    HW2 3558   2.498  12.227  11.381
67221SOL     OW 3559  12.499  13.122   0.219
67221SOL    HW1 3560  12.527  13.055   0.156
67221SOL    HW2 3561  12.581  13.153   0.259
67222SOL     OW 3562   4.703   9.746  13.668
67222SOL    HW1 3563   4.724   9.725  13.577
67222SOL    HW2 3564   4.780   9.792  13.700
67223SOL     OW 3565   7.935   2.114   7.377
67223SOL    HW1 3566   7.993   2.186   7.401
67223SOL    HW2 3567   7.995   2.041   7.357
67224SOL     OW 3568  14.825  14.628   5.247
67224SOL    HW1 3569  14.791  14.539   5.251
67224SOL    HW2 3570   0.021  14.627   5.301
67225SOL     OW 3571   7.349   6.262  14.392
67225SOL    HW1 3572   7.290   6.337  14.388
67225SOL    HW2 3573   7.340   6.220  14.307
67226SOL     OW 3574   2.407  11.160   7.518
67226SOL    HW1 3575   2.317  11.134   7.536
67226SOL    HW2 3576   2.456  11.129   7.594
67227SOL     OW 3577   6.978  11.751   5.213
67227SOL    HW1 3578   7.060  11.795   5.235
67227SOL    HW2 3579   6.987  11.664   5.252
67228SOL     OW 3580  13.150   3.913   7.615
67228SOL    HW1 3581  13.182   3.989   7.566
67228SOL    HW2 3582  13.065   3.940   7.648
67229SOL     OW 3583   0.367   5.279  11.372
67229SOL    HW1 3584   0.342   5.203  11.320
67229SOL    HW2 3585   0.284   5.313  11.405
67230SOL     OW 3586   1.618  13.981  10.608
67230SOL    HW1 3587   1.657  14.068  10.608
67230SOL    HW2 3588   1.533  13.993  10.651
67231SOL     OW 3589   0.150   2.571   8.687
67231SOL    HW1 3590   0.122   2.662   8.671
67231SOL    HW2 3591   0.181   2.541   8.602
67232SOL     OW 3592   7.042   6.295   3.037
67232SOL    HW1 3593   6.958   6.248   3.032
67232SOL    HW2 3594   7.030   6.357   3.108
67233SOL     OW 3595  12.338  13.590  11.502
67233SOL    HW1 3596  12.403  13.623  11.564
67233SOL    HW2 3597  12.311  13.506  11.539
67234SOL     OW 3598   6.885   4.175  12.654
67234SOL    HW1 3599   6.865   4.193  12.746
67234SOL    HW2 3600   6.853   4.253  12.607
67235SOL     OW 3601   5.621  11.592   6.890
67235SOL    HW1 3602   5.622  11.606   6.795
67235SOL    HW2 3603   5.528  11.588   6.913
67236SOL     OW 3604   9.391  13.044   4.611
67236SOL    HW1 3605   9.432  13.107   4.670
67236SOL    HW2 3606   9.444  13.049   4.531
67237SOL     OW 3607  10.350   3.437   9.526
67237SOL    HW1 3608  10.315   3.370   9.584
67237SOL    HW2 3609  10.404   3.390   9.463
67238SOL     OW 3610  14.815   9.642  12.135
67238SOL    HW1 3611  14.811   9.610  12.225
67238SOL    HW2 3612   0.027   9.652  12.118
67239SOL     OW 3613   7.716   3.190   8.746
67239SOL    HW1 3614   7.739   3.267   8.694
67239SOL    HW2 3615   7.680   3.128   8.683
67240SOL     OW 3616   1.129   8.565   3.866
67240SOL    HW1 3617   1.184   8.514   3.925
67240SOL    HW2 3618   1.179   8.645   3.850
67241SOL     OW 3619   5.883   5.860   3.972
67241SOL    HW1 3620   5.825   5.920   3.926
67241SOL    HW2 3621   5.843   5.773   3.958
67242SOL     OW 3622   6.877  10.017   0.991
67242SOL    HW1 3623   6.906   9.959   1.061
67242SOL    HW2 3624   6.787  10.038   1.013
67243SOL     OW 3625   3.600   0.333   4.783
67243SOL    HW1 3626   3.582   0.249   4.825
67243SOL    HW2 3627   3.518   0.356   4.739
67244SOL     OW 3628   5.611   6.095   7.178
67244SOL    HW1 3629   5.660   6.111   7.097
67244SOL    HW2 3630   5.676   6.064   7.240
67245SOL     OW 3631   1.089   4.202   7.859
67245SOL    HW1 3632   1.079   4.198   7.764
67245SOL    HW2 3633   1.158   4.267   7.873
67246SOL     OW 3634   3.640   4.572  14.471
67246SOL    HW1 3635   3.643   4.513  14.546
67246SOL    HW2 3636   3.584   4.645  14.499
67247SOL     OW 3637   0.980   2.699   2.355
67247SOL    HW1 3638   1.069   2.664   2.367
67247SOL    HW2 3639   0.948   2.654   2.277
67248SOL     OW 3640  12.946   1.098   8.443
67248SOL    HW1 3641  13.009   1.125   8.376
67248SOL    HW2 3642  12.937   1.004   8.430
67249SOL     OW 3643   5.309  14.554   2.863
67249SOL    HW1 3644   5.371  14.620   2.894
67249SOL    HW2 3645   5.364  14.483   2.831
67250SOL     OW 3646   7.064  11.094   1.413
67250SOL    HW1 3647   7.130  11.033   1.445
67250SOL    HW2 3648   7.110  11.148   1.349
67251SOL     OW 3649  13.116   3.182  13.141
67251SOL    HW1 3650  13.030   3.155  13.175
67251SOL    HW2 3651  13.170   3.193  13.219
67252SOL     OW 3652  13.663   8.583  11.850
67252SOL    HW1 3653  13.625   8.553  11.933
67252SOL    HW2 3654  13.689   8.674  11.867
67253SOL     OW 3655   6.801   7.339   8.986
67253SOL    HW1 3656   6.708   7.356   9.005
67253SOL    HW2 3657   6.799   7.271   8.919
67254SOL     OW 3658   3.477  10.717   5.714
67254SOL    HW1 3659   3.486  10.757   5.800
67254SOL    HW2 3660   3.538  10.643   5.715
67255SOL     OW 3661   1.152   6.920   0.441
67255SOL    HW1 3662   1.196   6.920   0.355
67255SOL    HW2 3663   1.114   7.007   0.448
67256SOL     OW 3664   2.268   2.545   1.110
67256SOL    HW1 3665   2.258   2.527   1.017
67256SOL    HW2 3666   2.338   2.486   1.139
67257SOL     OW 3667  11.584  13.282   4.015
67257SOL    HW1 3668  11.633  13.226   3.955
67257SOL    HW2 3669  11.498  13.292   3.973
67258SOL     OW 3670   2.637   9.291  12.707
67258SOL    HW1 3671   2.619   9.344  12.785
67258SOL    HW2 3672   2.628   9.201  12.737
67259SOL     OW 3673   9.063   6.452   1.043
67259SOL    HW1 3674   9.044   6.368   1.084
67259SOL    HW2 3675   8.982   6.475   0.997
67260SOL     OW 3676   5.585   6.471  13.628
67260SOL    HW1 3677   5.594   6.377  13.613
67260SOL    HW2 3678   5.568   6.508  13.542
67261SOL     OW 3679   3.021   6.340   6.367
67261SOL    HW1 3680   3.061   6.253   6.368
67261SOL    HW2 3681   2.966   6.342   6.445
67262SOL     OW 3682  11.215   7.812   7.274
67262SOL    HW1 3683  11.128   7.854   7.276
67262SOL    HW2 3684  11.211   7.746   7.343
67263SOL     OW 3685  13.495   1.188  13.323
67263SOL    HW1 3686  13.531   1.270  13.357
67263SOL    HW2 3687  13.556   1.121  13.354
67264SOL     OW 3688  11.784   2.628  13.572
67264SOL    HW1 3689  11.857   2.633  13.634
67264SOL    HW2 3690  11.805   2.553  13.516
67265SOL     OW 3691   4.168   9.601   0.189
67265SOL    HW1 3692   4.238   9.583   0.126
67265SOL    HW2 3693   4.154   9.696   0.181
67266SOL     OW 3694   8.440   0.184   2.466
67266SOL    HW1 3695   8.445   0.191   2.562
67266SOL    HW2 3696   8.362   0.132   2.450
67267SOL     OW 3697   1.515  14.590   0.822
67267SOL    HW1 3698   1.584  14.616   0.761
67267SOL    HW2 3699   1.533  14.497   0.840
67268SOL     OW 3700  10.522   3.427   6.192
67268SOL    HW1 3701  10.523   3.501   6.252
67268SOL    HW2 3702  10.530   3.466   6.105
67269SOL     OW 3703   6.012  13.677  12.152
67269SOL    HW1 3704   5.953  13.645  12.220
67269SOL    HW2 3705   6.059  13.750  12.193
67270SOL     OW 3706   6.992   1.836  14.625
67270SOL    HW1 3707   6.929   1.764  14.618
67270SOL    HW2 3708   7.041   1.817  14.705
67271SOL     OW 3709  10.844  12.414   8.959
67271SOL    HW1 3710  10.906  12.356   9.003
67271SOL    HW2 3711  10.896  12.491   8.935
67272SOL     OW 3712  13.698  12.097   6.300
67272SOL    HW1 3713  13.699  12.036   6.226
67272SOL    HW2 3714  13.787  12.134   6.301
67273SOL     OW 3715  10.067   9.300  14.488
67273SOL    HW1 3716  10.046   9.240  14.559
67273SOL    HW2 3717  10.138   9.256  14.440
67274SOL     OW 3718   1.087   9.267   6.356
67274SOL    HW1 3719   1.044   9.195   6.309
67274SOL    HW2 3720   1.018   9.306   6.409
67275SOL     OW 3721  10.812  10.300   6.172
67275SOL    HW1 3722  10.798  10.245   6.095
67275SOL    HW2 3723  10.834  10.239   6.242
67276SOL     OW 3724   9.647   6.592  11.117
67276SOL    HW1 3725   9.722   6.538  11.088
67276SOL    HW2 3726   9.686   6.676  11.140
67277SOL     OW 3727  11.895  13.955   9.149
67277SOL    HW1 3728  11.955  13.981   9.079
67277SOL    HW2 3729  11.941  13.886   9.196
67278SOL     OW 3730   9.466  14.021   1.307
67278SOL    HW1 3731   9.398  13.966   1.269
67278SOL    HW2 3732   9.443  14.027   1.400
67279SOL     OW 3733   2.470   0.671  13.327
67279SOL    HW1 3734   2.429   0.757  13.325
67279SOL    HW2 3735   2.563   0.688  13.316
67280SOL     OW 3736   0.511  14.710   2.021
67280SOL    HW1 3737   0.515  14.803   2.000
67280SOL    HW2 3738   0.559  14.702   2.103
67281SOL     OW 3739   8.318   7.086   7.128
67281SOL    HW1 3740   8.318   7.073   7.223
67281SOL    HW2 3741   8.348   7.176   7.115
67282SOL     OW 3742   2.146  11.844  11.041
67282SOL    HW1 3743   2.124  11.911  10.977
67282SOL    HW2 3744   2.240  11.854  11.056
67283SOL     OW 3745  11.039  14.383   9.329
67283SOL    HW1 3746  10.989  14.462   9.350
67283SOL    HW2 3747  11.014  14.361   9.239
67284SOL     OW 3748   5.005   8.535   6.964
67284SOL    HW1 3749   4.925   8.513   7.012
67284SOL    HW2 3750   5.071   8.475   6.999
67285SOL     OW 3751   0.906   6.589   7.765
67285SOL    HW1 3752   0.966   6.545   7.826
67285SOL    HW2 3753   0.954   6.590   7.682
67286SOL     OW 3754  14.681   7.556   4.795
67286SOL    HW1 3755  14.667   7.528   4.886
67286SOL    HW2 3756  14.771   7.587   4.793
67287SOL     OW 3757   5.155   1.154  14.722
67287SOL    HW1 3758   5.243   1.176  14.691
67287SOL    HW2 3759   5.168   1.074  14.774
67288SOL     OW 3760  14.146  14.597  12.831
67288SOL    HW1 3761  14.195  14.678  12.813
67288SOL    HW2 3762  14.149  14.549  12.748
67289SOL     OW 3763   6.474  11.898   7.034
67289SOL    HW1 3764   6.506  11.979   6.995
67289SOL    HW2 3765   6.455  11.841   6.960
67290SOL     OW 3766   2.409  11.099  11.929
67290SOL    HW1 3767   2.414  11.126  12.021
67290SOL    HW2 3768   2.487  11.139  11.889
67291SOL     OW 3769   2.337   7.833   7.224
67291SOL    HW1 3770   2.344   7.738   7.230
67291SOL    HW2 3771   2.289   7.859   7.303
67292SOL     OW 3772   3.394   9.223   3.197
67292SOL    HW1 3773   3.381   9.148   3.139
67292SOL    HW2 3774   3.394   9.186   3.285
67293SOL     OW 3775   6.288   8.361   2.352
67293SOL    HW1 3776   6.367   8.372   2.298
67293SOL    HW2 3777   6.289   8.436   2.411
67294SOL     OW 3778   1.824   8.320   2.704
67294SOL    HW1 3779   1.854   8.286   2.620
67294SOL    HW2 3780   1.735   8.285   2.713
67295SOL     OW 3781   6.997  14.874  13.319
67295SOL    HW1 3782   7.032  14.793  13.356
67295SOL    HW2 3783   6.939  14.845  13.249
67296SOL     OW 3784   2.413   3.169   7.730
67296SOL    HW1 3785   2.465   3.104   7.682
67296SOL    HW2 3786   2.334   3.121   7.755
67297SOL     OW 3787   7.953  11.729  13.486
67297SOL    HW1 3788   7.864  11.733  13.521
67297SOL    HW2 3789   7.978  11.820  13.472
67298SOL     OW 3790  14.415   7.856   0.899
67298SOL    HW1 3791  14.477   7.818   0.837
67298SOL    HW2 3792  14.329   7.834   0.862
67299SOL     OW 3793   8.027   0.989   4.412
67299SOL    HW1 3794   8.078   0.945   4.344
67299SOL    HW2 3795   8.086   1.055   4.448
67300SOL     OW 3796   4.966   2.391  11.863
67300SOL    HW1 3797   4.886   2.356  11.824
67300SOL    HW2 3798   4.950   2.485  11.872
67301SOL     OW 3799   2.083   3.745  11.217
67301SOL    HW1 3800   2.087   3.835  11.186
67301SOL    HW2 3801   2.014   3.746  11.284
67302SOL     OW 3802   1.618   0.308   5.733
67302SOL    HW1 3803   1.568   0.375   5.688
67302SOL    HW2 3804   1.561   0.279   5.804
67303SOL     OW 3805   4.191   5.185   6.923
67303SOL    HW1 3806   4.200   5.113   6.985
67303SOL    HW2 3807   4.268   5.177   6.866
67304SOL     OW 3808  13.779   0.228   1.918
67304SOL    HW1 3809  13.746   0.175   1.846
67304SOL    HW2 3810  13.868   0.253   1.890
67305SOL     OW 3811   0.069   9.211   8.034
67305SOL    HW1 3812   0.071   9.295   7.988
67305SOL    HW2 3813   0.131   9.156   7.986
67306SOL     OW 3814  12.012   3.365  12.378
67306SOL    HW1 3815  12.094   3.329  12.345
67306SOL    HW2 3816  12.013   3.344  12.472
67307SOL     OW 3817   4.449   9.333  11.069
67307SOL    HW1 3818   4.508   9.396  11.112
67307SOL    HW2 3819   4.392   9.302  11.139
67308SOL     OW 3820   5.060   7.537   9.967
67308SOL    HW1 3821   4.974   7.574   9.985
67308SOL    HW2 3822   5.089   7.583   9.888
67309SOL     OW 3823   5.347   5.605   7.937
67309SOL    HW1 3824   5.398   5.685   7.937
67309SOL    HW2 3825   5.320   5.593   8.028
67310SOL     OW 3826  10.735   1.645   8.534
67310SOL    HW1 3827  10.817   1.633   8.486
67310SOL    HW2 3828  10.667   1.643   8.467
67311SOL     OW 3829   1.985   6.888  13.835
67311SOL    HW1 3830   1.899   6.850  13.851
67311SOL    HW2 3831   1.970   6.955  13.769
67312SOL     OW 3832   4.588   8.565  12.760
67312SOL    HW1 3833   4.518   8.553  12.825
67312SOL    HW2 3834   4.637   8.483  12.764
67313SOL     OW 3835   1.846  11.963   7.964
67313SOL    HW1 3836   1.833  11.938   8.055
67313SOL    HW2 3837   1.796  12.044   7.954
67314SOL     OW 3838   9.969   7.714   3.469
67314SOL    HW1 3839   9.973   7.620   3.488
67314SOL    HW2 3840   9.875   7.731   3.455
67315SOL     OW 3841  11.030   3.725   2.775
67315SOL    HW1 3842  10.936   3.740   2.786
67315SOL    HW2 3843  11.036   3.640   2.733
67316SOL     OW 3844  12.946  10.448  10.201
67316SOL    HW1 3845  12.917  10.420  10.288
67316SOL    HW2 3846  12.868  10.438  10.146
67317SOL     OW 3847   0.372   5.998   7.639
67317SOL    HW1 3848   0.367   5.975   7.731
67317SOL    HW2 3849   0.444   6.060   7.633
67318SOL     OW 3850   6.229   8.607   0.330
67318SOL    HW1 3851   6.165   8.540   0.304
67318SOL    HW2 3852   6.264   8.575   0.413
67319SOL     OW 3853  11.068  12.423   0.306
67319SOL    HW1 3854  11.127  12.349   0.289
67319SOL    HW2 3855  11.116  12.479   0.366
67320SOL     OW 3856   9.724   4.818   0.763
67320SOL    HW1 3857   9.696   4.731   0.734
67320SOL    HW2 3858   9.678   4.830   0.847
67321SOL     OW 3859  12.302  14.754  14.093
67321SOL    HW1 3860  12.235  14.822  14.083
67321SOL    HW2 3861  12.286  14.694  14.020
67322SOL     OW 3862   7.861   5.367  13.935
67322SOL    HW1 3863   7.796   5.436  13.923
67322SOL    HW2 3864   7.942   5.404  13.899
67323SOL     OW 3865   1.042   7.369   9.456
67323SOL    HW1 3866   0.997   7.323   9.527
67323SOL    HW2 3867   1.071   7.299   9.397
67324SOL     OW 3868   9.998   5.734   2.888
67324SOL    HW1 3869   9.957   5.805   2.938
67324SOL    HW2 3870  10.059   5.778   2.828
67325SOL     OW 3871  10.366  11.836   4.112
67325SOL    HW1 3872  10.353  11.804   4.201
67325SOL    HW2 3873  10.289  11.891   4.095
67326SOL     OW 3874  13.132   0.653  14.539
67326SOL    HW1 3875  13.086   0.725  14.582
67326SOL    HW2 3876  13.212   0.641  14.590
67327SOL     OW 3877  14.848   3.745   1.689
67327SOL    HW1 3878   0.010   3.705   1.764
67327SOL    HW2 3879   0.038   3.773   1.632
67328SOL     OW 3880   9.005   4.713  12.581
67328SOL    HW1 3881   9.090   4.753  12.562
67328SOL    HW2 3882   9.009   4.693  12.675
67329SOL     OW 3883   0.219   0.899  10.355
67329SOL    HW1 3884   0.250   0.812  10.332
67329SOL    HW2 3885   0.269   0.922  10.434
67330SOL     OW 3886   8.839   2.286  13.247
67330SOL    HW1 3887   8.916   2.342  13.241
67330SOL    HW2 3888   8.836   2.239  13.164
67331SOL     OW 3889   9.824   2.968  10.850
67331SOL    HW1 3890   9.912   2.938  10.874
67331SOL    HW2 3891   9.840   3.031  10.779
67332SOL     OW 3892   0.295   7.299   9.359
67332SOL    HW1 3893   0.268   7.211   9.384
67332SOL    HW2 3894   0.337   7.334   9.437
67333SOL     OW 3895   6.915   7.007  12.608
67333SOL    HW1 3896   6.950   6.966  12.688
67333SOL    HW2 3897   6.825   6.973  12.602
67334SOL     OW 3898   9.899  14.599   7.289
67334SOL    HW1 3899   9.918  14.693   7.292
67334SOL    HW2 3900   9.935  14.564   7.370
67335SOL     OW 3901   0.768   5.572  13.411
67335SOL    HW1 3902   0.862   5.561  13.419
67335SOL    HW2 3903   0.757   5.628  13.333
67336SOL     OW 3904   1.350  14.076  10.697
67336SOL    HW1 3905   1.277  14.109  10.644
67336SOL    HW2 3906   1.380  14.152  10.746
67337SOL     OW 3907  10.078   5.543   4.573
67337SOL    HW1 3908  10.020   5.583   4.638
67337SOL    HW2 3909  10.125   5.617   4.535
67338SOL     OW 3910  13.367  12.596  13.165
67338SOL    HW1 3911  13.325  12.682  13.165
67338SOL    HW2 3912  13.461  12.616  13.176
67339SOL     OW 3913  12.444   3.286  14.025
67339SOL    HW1 3914  12.538   3.278  14.014
67339SOL    HW2 3915  12.426   3.379  14.012
67340SOL     OW 3916  13.048   3.158   7.356
67340SOL    HW1 3917  13.127   3.208   7.340
67340SOL    HW2 3918  12.982   3.198   7.298
67341SOL     OW 3919   6.790   3.764   0.653
67341SOL    HW1 3920   6.723   3.788   0.589
67341SOL    HW2 3921   6.741   3.726   0.726
67342SOL     OW 3922   0.693   6.159   9.022
67342SOL    HW1 3923   0.758   6.121   9.082
67342SOL    HW2 3924   0.652   6.083   8.980
67343SOL     OW 3925  13.610   4.823  12.784
67343SOL    HW1 3926  13.594   4.757  12.717
67343SOL    HW2 3927  13.683   4.875  12.750
67344SOL     OW 3928   8.710   7.683  13.805
67344SOL    HW1 3929   8.678   7.602  13.846
67344SOL    HW2 3930   8.690   7.751  13.869
67345SOL     OW 3931   9.033   2.610   7.567
67345SOL    HW1 3932   8.997   2.576   7.485
67345SOL    HW2 3933   8.959   2.611   7.628
67346SOL     OW 3934  11.314   3.157  14.524
67346SOL    HW1 3935  11.364   3.238  14.531
67346SOL    HW2 3936  11.365   3.101  14.465
67347SOL     OW 3937   9.054   4.757   8.788
67347SOL    HW1 3938   8.995   4.791   8.721
67347SOL    HW2 3939   9.040   4.814   8.863
67348SOL     OW 3940   7.813   2.306   0.791
67348SOL    HW1 3941   7.884   2.357   0.831
67348SOL    HW2 3942   7.798   2.349   0.706
67349SOL     OW 3943   5.530   7.156  14.153
67349SOL    HW1 3944   5.606   7.206  14.182
67349SOL    HW2 3945   5.525   7.171  14.059
67350SOL     OW 3946  13.764   6.066  10.871
67350SOL    HW1 3947  13.734   6.144  10.825
67350SOL    HW2 3948  13.703   6.057  10.945
67351SOL     OW 3949  10.626   8.830   4.754
67351SOL    HW1 3950  10.607   8.737   4.768
67351SOL    HW2 3951  10.709   8.830   4.705
67352SOL     OW 3952   9.973  12.689   6.319
67352SOL    HW1 3953   9.995  12.764   6.265
67352SOL    HW2 3954  10.056  12.665   6.361
67353SOL     OW 3955  14.688  10.277   2.192
67353SOL    HW1 3956  14.668  10.274   2.285
67353SOL    HW2 3957  14.661  10.365   2.165
67354SOL     OW 3958   1.418   2.927  11.318
67354SOL    HW1 3959   1.390   2.860  11.256
67354SOL    HW2 3960   1.476   2.984  11.267
67355SOL     OW 3961   6.599   1.825   9.253
67355SOL    HW1 3962   6.683   1.781   9.264
67355SOL    HW2 3963   6.561   1.785   9.175
67356SOL     OW 3964   6.335   0.485   2.989
67356SOL    HW1 3965   6.405   0.451   2.933
67356SOL    HW2 3966   6.314   0.413   3.048
67357SOL     OW 3967  11.184  12.465   3.448
67357SOL    HW1 3968  11.152  12.520   3.520
67357SOL    HW2 3969  11.241  12.524   3.397
67358SOL     OW 3970  13.655   3.737   8.844
67358SOL    HW1 3971  13.626   3.702   8.928
67358SOL    HW2 3972  13.576   3.742   8.790
67359SOL     OW 3973   1.771   3.265  11.160
67359SOL    HW1 3974   1.861   3.243  11.134
67359SOL    HW2 3975   1.772   3.360  11.170
67360SOL     OW 3976   6.252  14.061   8.101
67360SOL    HW1 3977   6.240  14.024   8.188
67360SOL    HW2 3978   6.347  14.064   8.088
67361SOL     OW 3979   5.328   7.409  13.471
67361SOL    HW1 3980   5.329   7.322  13.432
67361SOL    HW2 3981   5.409   7.413  13.523
67362SOL     OW 3982   5.100  11.891   6.765
67362SOL    HW1 3983   5.102  11.955   6.693
67362SOL    HW2 3984   5.030  11.922   6.822
67363SOL     OW 3985   6.161   9.711   5.008
67363SOL    HW1 3986   6.190   9.653   4.937
67363SOL    HW2 3987   6.188   9.799   4.979
67364SOL     OW 3988   6.374  14.774   4.299
67364SOL    HW1 3989   6.380  14.702   4.236
67364SOL    HW2 3990   6.386  14.733   4.384
67365SOL     OW 3991   7.174  14.476   7.905
67365SOL    HW1 3992   7.163  14.532   7.982
67365SOL    HW2 3993   7.257  14.432   7.919
67366SOL     OW 3994   9.426  10.821   7.154
67366SOL    HW1 3995   9.442  10.802   7.246
67366SOL    HW2 3996   9.345  10.773   7.134
67367SOL     OW 3997  13.365   6.623   2.069
67367SOL    HW1 3998  13.437   6.659   2.122
67367SOL    HW2 3999  13.365   6.677   1.989
67368SOL     OW 4000   2.149   2.279  14.642
67368SOL    HW1 4001   2.058   2.291  14.671
67368SOL    HW2 4002   2.140   2.258  14.549
67369SOL     OW 4003  13.467   3.788   0.216
67369SOL    HW1 4004  13.458   3.757   0.306
67369SOL    HW2 4005  13.439   3.713   0.162
67370SOL     OW 4006   7.333   2.857   8.888
67370SOL    HW1 4007   7.385   2.905   8.952
67370SOL    HW2 4008   7.243   2.882   8.907
67371SOL     OW 4009   6.850  10.831  11.193
67371SOL    HW1 4010   6.869  10.914  11.236
67371SOL    HW2 4011   6.830  10.854  11.103
67372SOL     OW 4012   0.149   7.378  13.247
67372SOL    HW1 4013   0.231   7.389  13.296
67372SOL    HW2 4014   0.160   7.296  13.199
67373SOL     OW 4015  14.630   0.173   0.601
67373SOL    HW1 4016  14.625   0.264   0.571
67373SOL    HW2 4017  14.680   0.177   0.682
67374SOL     OW 4018  11.678   6.100   7.731
67374SOL    HW1 4019  11.671   6.058   7.646
67374SOL    HW2 4020  11.645   6.035   7.793
67375SOL     OW 4021   7.146   5.745  14.638
67375SOL    HW1 4022   7.236   5.779  14.636
67375SOL    HW2 4023   7.141   5.696  14.721
67376SOL     OW 4024   6.853   5.802   7.350
67376SOL    HW1 4025   6.886   5.884   7.386
67376SOL    HW2 4026   6.808   5.760   7.424
67377SOL     OW 4027   3.747   2.952   8.162
67377SOL    HW1 4028   3.790   2.997   8.235
67377SOL    HW2 4029   3.769   2.860   8.173
67378SOL     OW 4030  11.540  13.731   6.078
67378SOL    HW1 4031  11.625  13.763   6.108
67378SOL    HW2 4032  11.528  13.771   5.993
67379SOL     OW 4033   9.440  13.480   6.813
67379SOL    HW1 4034   9.406  13.398   6.849
67379SOL    HW2 4035   9.442  13.465   6.718
67380SOL     OW 4036  13.594   2.934   1.389
67380SOL    HW1 4037  13.678   2.971   1.361
67380SOL    HW2 4038  13.612   2.902   1.478
67381SOL     OW 4039   4.381   5.242  10.576
67381SOL    HW1 4040   4.317   5.306  10.608
67381SOL    HW2 4041   4.466   5.283  10.590
67382SOL     OW 4042  12.889   1.221  12.464
67382SOL    HW1 4043  12.829   1.148  12.446
67382SOL    HW2 4044  12.863   1.252  12.550
67383SOL     OW 4045   0.252  14.457   3.062
67383SOL    HW1 4046   0.287  14.507   2.989
67383SOL    HW2 4047   0.281  14.367   3.046
67384SOL     OW 4048   8.441   4.436   3.090
67384SOL    HW1 4049   8.348   4.446   3.071
67384SOL    HW2 4050   8.444   4.378   3.166
67385SOL     OW 4051  13.508   5.172  10.535
67385SOL    HW1 4052  13.435   5.158  10.595
67385SOL    HW2 4053  13.574   5.109  10.564
67386SOL     OW 4054  14.553   3.369   0.164
67386SOL    HW1 4055  14.527   3.303   0.100
67386SOL    HW2 4056  14.578   3.319   0.242
67387SOL     OW 4057   3.788  13.204  10.453
67387SOL    HW1 4058   3.863  13.245  10.410
67387SOL    HW2 4059   3.789  13.240  10.542
67388SOL     OW 4060   9.386   0.741   0.229
67388SOL    HW1 4061   9.398   0.731   0.324
67388SOL    HW2 4062   9.292   0.754   0.218
67389SOL     OW 4063   5.472   6.783   3.909
67389SOL    HW1 4064   5.459   6.809   3.818
67389SOL    HW2 4065   5.475   6.866   3.957
67390SOL     OW 4066   8.282  13.395   2.134
67390SOL    HW1 4067   8.319  13.329   2.193
67390SOL    HW2 4068   8.352  13.460   2.123
67391SOL     OW 4069   9.056   3.629   6.417
67391SOL    HW1 4070   9.002   3.645   6.340
67391SOL    HW2 4071   9.140   3.670   6.396
67392SOL     OW 4072   6.545   2.827   0.161
67392SOL    HW1 4073   6.473   2.877   0.200
67392SOL    HW2 4074   6.611   2.822   0.230
67393SOL     OW 4075   3.008   0.520   3.560
67393SOL    HW1 4076   2.940   0.580   3.591
67393SOL    HW2 4077   3.023   0.545   3.469
67394SOL     OW 4078   6.927   4.104   7.552
67394SOL    HW1 4079   6.883   4.083   7.470
67394SOL    HW2 4080   6.972   4.186   7.536
67395SOL     OW 4081   6.257  13.316   8.271
67395SOL    HW1 4082   6.223  13.275   8.351
67395SOL    HW2 4083   6.351  13.319   8.283
67396SOL     OW 4084  12.981   9.964   9.878
67396SOL    HW1 4085  12.940   9.889   9.920
67396SOL    HW2 4086  12.908  10.014   9.842
67397SOL     OW 4087  11.099  13.943   0.946
67397SOL    HW1 4088  11.075  13.887   0.872
67397SOL    HW2 4089  11.194  13.937   0.951
67398SOL     OW 4090  11.824  12.256  11.361
67398SOL    HW1 4091  11.730  12.274  11.358
67398SOL    HW2 4092  11.830  12.160  11.366
67399SOL     OW 4093   6.406   2.091   0.536
67399SOL    HW1 4094   6.330   2.136   0.502
67399SOL    HW2 4095   6.470   2.094   0.465
67400SOL     OW 4096   6.763   2.127   9.773
67400SOL    HW1 4097   6.810   2.182   9.711
67400SOL    HW2 4098   6.828   2.104   9.839
67401SOL     OW 4099   6.168   2.567  13.136
67401SOL    HW1 4100   6.186   2.588  13.228
67401SOL    HW2 4101   6.247   2.520  13.107
67402SOL     OW 4102   0.121  14.160   9.401
67402SOL    HW1 4103   0.193  14.191   9.456
67402SOL    HW2 4104   0.057  14.126   9.462
67403SOL     OW 4105   1.724  11.620   0.461
67403SOL    HW1 4106   1.678  11.537   0.448
67403SOL    HW2 4107   1.725  11.661   0.374
67404SOL     OW 4108   3.863  10.450  12.775
67404SOL    HW1 4109   3.867  10.543  12.799
67404SOL    HW2 4110   3.797  10.413  12.834
67405SOL     OW 4111  14.615   1.219   9.380
67405SOL    HW1 4112  14.629   1.155   9.310
67405SOL    HW2 4113  14.692   1.276   9.375
67406SOL     OW 4114   6.680  13.021  13.375
67406SOL    HW1 4115   6.682  13.074  13.295
67406SOL    HW2 4116   6.711  13.079  13.444
67407SOL     OW 4117   5.061  12.660   4.318
67407SOL    HW1 4118   5.120  12.663   4.243
67407SOL    HW2 4119   5.116  12.683   4.393
67408SOL     OW 4120   1.024  12.307  12.428
67408SOL    HW1 4121   0.954  12.327  12.366
67408SOL    HW2 4122   1.027  12.384  12.486
67409SOL     OW 4123  10.316   0.992  11.658
67409SOL    HW1 4124  10.328   0.902  11.689
67409SOL    HW2 4125  10.373   1.044  11.715
67410SOL     OW 4126   8.561   0.124  12.093
67410SOL    HW1 4127   8.634   0.167  12.049
67410SOL    HW2 4128   8.563   0.034  12.060
67411SOL     OW 4129   8.303  12.110   0.008
67411SOL    HW1 4130   8.223  12.059   0.003
67411SOL    HW2 4131   8.373  12.046  14.879
67412SOL     OW 4132   8.921  14.769   7.686
67412SOL    HW1 4133   9.002  14.794   7.730
67412SOL    HW2 4134   8.885  14.851   7.653
67413SOL     OW 4135   8.997   9.970   4.953
67413SOL    HW1 4136   9.004   9.954   4.858
67413SOL    HW2 4137   8.913   9.933   4.977
67414SOL     OW 4138   9.490   5.273   3.308
67414SOL    HW1 4139   9.412   5.231   3.345
67414SOL    HW2 4140   9.514   5.218   3.233
67415SOL     OW 4141   1.856   1.141  14.812
67415SOL    HW1 4142   1.764   1.163  14.821
67415SOL    HW2 4143   1.873   1.082   0.004
67416SOL     OW 4144  11.963  12.386   5.693
67416SOL    HW1 4145  11.998  12.297   5.704
67416SOL    HW2 4146  11.892  12.391   5.757
67417SOL     OW 4147   4.710  10.414  10.912
67417SOL    HW1 4148   4.764  10.369  10.848
67417SOL    HW2 4149   4.628  10.434  10.866
67418SOL     OW 4150   5.850   9.182  10.248
67418SOL    HW1 4151   5.798   9.199  10.169
67418SOL    HW2 4152   5.880   9.268  10.276
67419SOL     OW 4153   7.177   9.545   2.509
67419SOL    HW1 4154   7.210   9.626   2.548
67419SOL    HW2 4155   7.081   9.552   2.517
67420SOL     OW 4156   9.295   6.171   7.690
67420SOL    HW1 4157   9.288   6.263   7.665
67420SOL    HW2 4158   9.267   6.169   7.781
67421SOL     OW 4159   5.459  14.357   2.752
67421SOL    HW1 4160   5.386  14.351   2.691
67421SOL    HW2 4161   5.533  14.321   2.704
67422SOL     OW 4162  12.312  13.103   1.601
67422SOL    HW1 4163  12.399  13.111   1.640
67422SOL    HW2 4164  12.263  13.050   1.663
67423SOL     OW 4165   8.955   0.475   9.808
67423SOL    HW1 4166   9.041   0.437   9.822
67423SOL    HW2 4167   8.961   0.519   9.723
67424SOL     OW 4168  11.880  11.975   7.633
67424SOL    HW1 4169  11.944  11.954   7.564
67424SOL    HW2 4170  11.933  12.015   7.702
67425SOL     OW 4171   2.247   6.701   2.554
67425SOL    HW1 4172   2.241   6.663   2.642
67425SOL    HW2 4173   2.253   6.795   2.569
67426SOL     OW 4174   6.179  13.294  10.682
67426SOL    HW1 4175   6.116  13.238  10.635
67426SOL    HW2 4176   6.209  13.240  10.755
67427SOL     OW 4177   5.444   6.249   6.267
67427SOL    HW1 4178   5.447   6.234   6.173
67427SOL    HW2 4179   5.352   6.237   6.291
67428SOL     OW 4180   6.941   4.369   7.437
67428SOL    HW1 4181   6.922   4.440   7.375
67428SOL    HW2 4182   6.876   4.380   7.506
67429SOL     OW 4183   3.010  10.797   0.942
67429SOL    HW1 4184   3.020  10.755   0.857
67429SOL    HW2 4185   2.970  10.882   0.923
67430SOL     OW 4186   8.937   9.670   0.551
67430SOL    HW1 4187   9.003   9.718   0.502
67430SOL    HW2 4188   8.854   9.711   0.526
67431SOL     OW 4189   0.730   7.749  10.438
67431SOL    HW1 4190   0.817   7.744  10.399
67431SOL    HW2 4191   0.670   7.735  10.365
67432SOL     OW 4192   5.730   4.876   0.244
67432SOL    HW1 4193   5.801   4.813   0.253
67432SOL    HW2 4194   5.744   4.917   0.158
67433SOL     OW 4195   6.022   1.573   2.463
67433SOL    HW1 4196   6.083   1.501   2.443
67433SOL    HW2 4197   5.967   1.580   2.385
67434SOL     OW 4198   7.016   5.121  13.887
67434SOL    HW1 4199   7.039   5.041  13.934
67434SOL    HW2 4200   7.006   5.188  13.954
67435SOL     OW 4201   7.183   9.747   5.347
67435SOL    HW1 4202   7.195   9.830   5.299
67435SOL    HW2 4203   7.099   9.714   5.316
67436SOL     OW 4204   4.654   4.497  14.688
67436SOL    HW1 4205   4.734   4.490  14.635
67436SOL    HW2 4206   4.677   4.558  14.757
67437SOL     OW 4207  13.655   9.107   4.554
67437SOL    HW1 4208  13.575   9.071   4.590
67437SOL    HW2 4209  13.635   9.126   4.463
67438SOL     OW 4210   1.671   1.580   1.427
67438SOL    HW1 4211   1.714   1.549   1.507
67438SOL    HW2 4212   1.620   1.656   1.456
67439SOL     OW 4213   3.987  11.210   0.758
67439SOL    HW1 4214   4.070  11.253   0.736
67439SOL    HW2 4215   3.964  11.246   0.843
67440SOL     OW 4216   6.201   7.894  10.818
67440SOL    HW1 4217   6.137   7.933  10.760
67440SOL    HW2 4218   6.282   7.941  10.800
67441SOL     OW 4219   1.491   6.158   0.857
67441SOL    HW1 4220   1.437   6.141   0.779
67441SOL    HW2 4221   1.488   6.253   0.867
67442SOL     OW 4222   4.828  11.884   5.678
67442SOL    HW1 4223   4.900  11.943   5.656
67442SOL    HW2 4224   4.806  11.841   5.595
67443SOL     OW 4225   7.717  11.463   2.003
67443SOL    HW1 4226   7.623  11.459   2.019
67443SOL    HW2 4227   7.734  11.555   1.981
67444SOL     OW 4228   3.762   1.659  12.313
67444SOL    HW1 4229   3.787   1.720  12.382
67444SOL    HW2 4230   3.748   1.576  12.358
67445SOL     OW 4231   0.529   6.791   0.642
67445SOL    HW1 4232   0.551   6.796   0.550
67445SOL    HW2 4233   0.578   6.717   0.675
67446SOL     OW 4234  11.165  13.861   0.335
67446SOL    HW1 4235  11.097  13.928   0.345
67446SOL    HW2 4236  11.239  13.895   0.385
67447SOL     OW 4237   7.634   0.156  11.928
67447SOL    HW1 4238   7.669   0.174  11.840
67447SOL    HW2 4239   7.574   0.228  11.945
67448SOL     OW 4240  14.072   8.865   9.679
67448SOL    HW1 4241  14.037   8.886   9.592
67448SOL    HW2 4242  14.157   8.908   9.682
67449SOL     OW 4243  10.993   9.575   9.686
67449SOL    HW1 4244  10.947   9.611   9.762
67449SOL    HW2 4245  11.044   9.502   9.722
67450SOL     OW 4246  14.617   4.087   0.602
67450SOL    HW1 4247  14.689   4.041   0.560
67450SOL    HW2 4248  14.637   4.083   0.695
67451SOL     OW 4249  10.458   3.924  14.226
67451SOL    HW1 4250  10.414   3.904  14.309
67451SOL    HW2 4251  10.528   3.985  14.250
67452SOL     OW 4252  12.573   9.815  11.646
67452SOL    HW1 4253  12.603   9.873  11.716
67452SOL    HW2 4254  12.478   9.814  11.654
67453SOL     OW 4255   4.777   7.452   4.410
67453SOL    HW1 4256   4.755   7.545   4.407
67453SOL    HW2 4257   4.800   7.436   4.502
67454SOL     OW 4258  10.369   0.633   0.729
67454SOL    HW1 4259  10.415   0.646   0.812
67454SOL    HW2 4260  10.281   0.667   0.745
67455SOL     OW 4261  10.374   2.394   0.228
67455SOL    HW1 4262  10.399   2.403   0.320
67455SOL    HW2 4263  10.349   2.302   0.219
67456SOL     OW 4264   6.803   9.815   1.930
67456SOL    HW1 4265   6.881   9.856   1.891
67456SOL    HW2 4266   6.817   9.824   2.025
67457SOL     OW 4267   8.283  11.063  12.696
67457SOL    HW1 4268   8.302  10.970  12.693
67457SOL    HW2 4269   8.220  11.076  12.625
67458SOL     OW 4270  14.758   1.392  12.131
67458SOL    HW1 4271  14.827   1.326  12.129
67458SOL    HW2 4272  14.804   1.475  12.141
67459SOL     OW 4273   9.517  11.902   4.215
67459SOL    HW1 4274   9.432  11.935   4.184
67459SOL    HW2 4275   9.498  11.867   4.302
67460SOL     OW 4276  13.369  12.899   0.930
67460SOL    HW1 4277  13.377  12.991   0.905
67460SOL    HW2 4278  13.281  12.893   0.969
67461SOL     OW 4279   6.260   0.500   5.765
67461SOL    HW1 4280   6.211   0.503   5.683
67461SOL    HW2 4281   6.319   0.425   5.755
67462SOL     OW 4282   3.623  13.102   9.182
67462SOL    HW1 4283   3.688  13.031   9.180
67462SOL    HW2 4284   3.568  13.086   9.105
67463SOL     OW 4285   9.175   2.684  11.326
67463SOL    HW1 4286   9.185   2.649  11.415
67463SOL    HW2 4287   9.200   2.612  11.269
67464SOL     OW 4288  14.343   8.047  13.428
67464SOL    HW1 4289  14.317   8.054  13.519
67464SOL    HW2 4290  14.361   7.953  13.415
67465SOL     OW 4291   2.145   7.236   4.943
67465SOL    HW1 4292   2.122   7.325   4.972
67465SOL    HW2 4293   2.169   7.245   4.851
67466SOL     OW 4294  14.594  14.518   4.520
67466SOL    HW1 4295  14.594  14.511   4.425
67466SOL    HW2 4296  14.502  14.522   4.544
67467SOL     OW 4297   1.007  13.401   8.557
67467SOL    HW1 4298   1.071  13.464   8.593
67467SOL    HW2 4299   1.028  13.397   8.464
67468SOL     OW 4300   3.522  13.753   7.337
67468SOL    HW1 4301   3.612  13.783   7.350
67468SOL    HW2 4302   3.521  13.716   7.249
67469SOL     OW 4303  12.060  11.901  13.649
67469SOL    HW1 4304  12.035  11.994  13.643
67469SOL    HW2 4305  12.004  11.865  13.718
67470SOL     OW 4306  14.171  10.779   3.628
67470SOL    HW1 4307  14.230  10.707   3.647
67470SOL    HW2 4308  14.083  10.741   3.633
67471SOL     OW 4309  11.306   9.202   2.903
67471SOL    HW1 4310  11.232   9.225   2.959
67471SOL    HW2 4311  11.265   9.172   2.822
67472SOL     OW 4312   7.111   9.091  11.056
67472SOL    HW1 4313   7.167   9.142  11.114
67472SOL    HW2 4314   7.071   9.156  10.998
67473SOL     OW 4315  10.036   0.487  12.071
67473SOL    HW1 4316  10.099   0.559  12.080
67473SOL    HW2 4317   9.952   0.526  12.097
67474SOL     OW 4318   8.126   8.182   0.001
67474SOL    HW1 4319   8.138   8.231   0.082
67474SOL    HW2 4320   8.040   8.142   0.009
67475SOL     OW 4321  10.674   8.911  13.831
67475SOL    HW1 4322  10.660   8.816  13.828
67475SOL    HW2 4323  10.711   8.933  13.745
67476SOL     OW 4324   9.451   1.279   1.296
67476SOL    HW1 4325   9.419   1.203   1.345
67476SOL    HW2 4326   9.396   1.352   1.325
67477SOL     OW 4327   0.586  11.408   1.808
67477SOL    HW1 4328   0.569  11.435   1.899
67477SOL    HW2 4329   0.608  11.489   1.763
67478SOL     OW 4330  12.265   4.918   8.049
67478SOL    HW1 4331  12.223   4.863   7.983
67478SOL    HW2 4332  12.192   4.949   8.103
67479SOL     OW 4333  10.768   8.962   5.881
67479SOL    HW1 4334  10.681   8.945   5.845
67479SOL    HW2 4335  10.757   8.949   5.976
67480SOL     OW 4336   4.294   0.022   8.817
67480SOL    HW1 4337   4.281  14.849   8.895
67480SOL    HW2 4338   4.205   0.037   8.784
67481SOL     OW 4339   3.150  12.843   4.329
67481SOL    HW1 4340   3.147  12.789   4.407
67481SOL    HW2 4341   3.181  12.784   4.260
67482SOL     OW 4342   2.187   0.499  13.055
67482SOL    HW1 4343   2.128   0.566  13.021
67482SOL    HW2 4344   2.135   0.419  13.054
67483SOL     OW 4345   7.054   8.849   2.214
67483SOL    HW1 4346   7.054   8.762   2.255
67483SOL    HW2 4347   7.146   8.865   2.192
67484SOL     OW 4348  12.743   6.096   1.615
67484SOL    HW1 4349  12.775   6.183   1.590
67484SOL    HW2 4350  12.755   6.043   1.536
67485SOL     OW 4351   6.520   9.143   5.723
67485SOL    HW1 4352   6.553   9.203   5.656
67485SOL    HW2 4353   6.585   9.147   5.793
67486SOL     OW 4354   1.496   5.936  10.094
67486SOL    HW1 4355   1.574   5.881  10.097
67486SOL    HW2 4356   1.473   5.939  10.001
67487SOL     OW 4357   0.501   6.447   1.740
67487SOL    HW1 4358   0.572   6.383   1.744
67487SOL    HW2 4359   0.422   6.395   1.724
67488SOL     OW 4360   5.619   3.800  12.310
67488SOL    HW1 4361   5.675   3.878  12.310
67488SOL    HW2 4362   5.658   3.743  12.377
67489SOL     OW 4363   9.103   6.677  10.759
67489SOL    HW1 4364   9.019   6.679  10.712
67489SOL    HW2 4365   9.083   6.713  10.845
67490SOL     OW 4366  14.481   3.011  10.265
67490SOL    HW1 4367  14.403   2.986  10.214
67490SOL    HW2 4368  14.551   2.956  10.230
67491SOL     OW 4369   5.565   8.560   7.244
67491SOL    HW1 4370   5.565   8.557   7.339
67491SOL    HW2 4371   5.609   8.642   7.222
67492SOL     OW 4372   1.812  13.056  11.149
67492SOL    HW1 4373   1.907  13.058  11.134
67492SOL    HW2 4374   1.801  13.090  11.238
67493SOL     OW 4375   4.567   8.953   3.184
67493SOL    HW1 4376   4.623   8.947   3.261
67493SOL    HW2 4377   4.625   8.984   3.114
67494SOL     OW 4378  12.879  13.947   9.127
67494SOL    HW1 4379  12.956  13.946   9.183
67494SOL    HW2 4380  12.911  13.918   9.042
67495SOL     OW 4381  10.235   6.320  10.107
67495SOL    HW1 4382  10.255   6.366  10.188
67495SOL    HW2 4383  10.310   6.263  10.092
67496SOL     OW 4384   6.056  12.475   6.433
67496SOL    HW1 4385   6.113  12.552   6.440
67496SOL    HW2 4386   6.043  12.463   6.339
67497SOL     OW 4387   5.006  11.708  11.295
67497SOL    HW1 4388   5.087  11.681  11.253
67497SOL    HW2 4389   5.034  11.766  11.366
67498SOL     OW 4390   1.896  12.382   8.573
67498SOL    HW1 4391   1.852  12.335   8.501
67498SOL    HW2 4392   1.858  12.470   8.571
67499SOL     OW 4393   0.394   6.609   4.416
67499SOL    HW1 4394   0.437   6.556   4.484
67499SOL    HW2 4395   0.303   6.616   4.446
67500SOL     OW 4396  12.179   0.005  12.451
67500SOL    HW1 4397  12.246  14.823  12.429
67500SOL    HW2 4398  12.185   0.015  12.546
67501SOL     OW 4399  13.956  10.789   9.624
67501SOL    HW1 4400  14.031  10.819   9.573
67501SOL    HW2 4401  13.980  10.700   9.650
67502SOL     OW 4402   7.558   1.849   4.597
67502SOL    HW1 4403   7.615   1.784   4.555
67502SOL    HW2 4404   7.612   1.888   4.666
67503SOL     OW 4405   9.220  14.278   7.259
67503SOL    HW1 4406   9.238  14.259   7.167
67503SOL    HW2 4407   9.172  14.201   7.290
67504SOL     OW 4408  10.045  12.886   4.291
67504SOL    HW1 4409  10.052  12.826   4.217
67504SOL    HW2 4410  10.125  12.939   4.287
67505SOL     OW 4411   8.287  12.269  11.234
67505SOL    HW1 4412   8.219  12.207  11.210
67505SOL    HW2 4413   8.241  12.351  11.249
67506SOL     OW 4414  10.023   5.748  10.543
67506SOL    HW1 4415   9.982   5.716  10.463
67506SOL    HW2 4416  10.113   5.770  10.517
67507SOL     OW 4417   6.885  13.636   4.186
67507SOL    HW1 4418   6.846  13.574   4.248
67507SOL    HW2 4419   6.904  13.713   4.239
67508SOL     OW 4420   3.565  10.501   0.708
67508SOL    HW1 4421   3.638  10.461   0.660
67508SOL    HW2 4422   3.521  10.557   0.644
67509SOL     OW 4423   4.159   8.995   3.550
67509SOL    HW1 4424   4.097   8.923   3.561
67509SOL    HW2 4425   4.174   9.000   3.456
67510SOL     OW 4426   6.771   4.133   7.276
67510SOL    HW1 4427   6.787   4.219   7.236
67510SOL    HW2 4428   6.683   4.140   7.313
67511SOL     OW 4429  11.923   6.969   5.015
67511SOL    HW1 4430  11.891   7.054   5.044
67511SOL    HW2 4431  11.995   6.988   4.956
67512SOL     OW 4432  14.034  11.773   1.771
67512SOL    HW1 4433  14.105  11.771   1.707
67512SOL    HW2 4434  13.970  11.833   1.733
67513SOL     OW 4435   0.932   8.452   4.837
67513SOL    HW1 4436   0.880   8.532   4.824
67513SOL    HW2 4437   1.023   8.484   4.844
67514SOL     OW 4438   6.459   2.192   3.611
67514SOL    HW1 4439   6.365   2.204   3.593
67514SOL    HW2 4440   6.473   2.239   3.693
67515SOL     OW 4441  11.368   8.986   7.773
67515SOL    HW1 4442  11.280   8.979   7.810
67515SOL    HW2 4443  11.414   8.908   7.805
67516SOL     OW 4444  11.773   7.100  11.852
67516SOL    HW1 4445  11.715   7.082  11.778
67516SOL    HW2 4446  11.773   7.196  11.859
67517SOL     OW 4447  11.706  13.719   0.323
67517SOL    HW1 4448  11.641  13.780   0.289
67517SOL    HW2 4449  11.705  13.645   0.262
67518SOL     OW 4450   1.042  11.927   1.610
67518SOL    HW1 4451   1.006  11.842   1.634
67518SOL    HW2 4452   0.971  11.969   1.560
67519SOL     OW 4453   5.692   6.954  10.911
67519SOL    HW1 4454   5.673   7.005  10.990
67519SOL    HW2 4455   5.693   7.020  10.841
67520SOL     OW 4456   7.556   5.960   2.508
67520SOL    HW1 4457   7.479   5.920   2.548
67520SOL    HW2 4458   7.599   6.006   2.580
67521SOL     OW 4459   4.295   1.456  12.843
67521SOL    HW1 4460   4.349   1.475  12.766
67521SOL    HW2 4461   4.345   1.491  12.917
67522SOL     OW 4462   0.979   0.751   3.064
67522SOL    HW1 4463   1.008   0.703   2.987
67522SOL    HW2 4464   0.928   0.687   3.114
67523SOL     OW 4465  10.444  14.318   1.002
67523SOL    HW1 4466  10.419  14.270   0.923
67523SOL    HW2 4467  10.482  14.400   0.970
67524SOL     OW 4468   2.288   4.374   0.590
67524SOL    HW1 4469   2.248   4.459   0.611
67524SOL    HW2 4470   2.216   4.311   0.597
67525SOL     OW 4471  13.521  10.817   1.282
67525SOL    HW1 4472  13.542  10.749   1.217
67525SOL    HW2 4473  13.448  10.781   1.332
67526SOL     OW 4474   1.689   7.462   7.064
67526SOL    HW1 4475   1.670   7.402   7.136
67526SOL    HW2 4476   1.656   7.418   6.986
67527SOL     OW 4477   6.877  10.956   4.691
67527SOL    HW1 4478   6.819  10.880   4.701
67527SOL    HW2 4479   6.848  10.997   4.609
67528SOL     OW 4480  11.773   0.033   1.573
67528SOL    HW1 4481  11.831  14.840   1.586
67528SOL    HW2 4482  11.691   0.008   1.617
67529SOL     OW 4483  14.088   2.298   3.100
67529SOL    HW1 4484  14.165   2.352   3.118
67529SOL    HW2 4485  14.016   2.343   3.145
67530SOL     OW 4486   6.283  10.329  12.231
67530SOL    HW1 4487   6.298  10.413  12.274
67530SOL    HW2 4488   6.242  10.352  12.147
67531SOL     OW 4489   0.992   0.342  14.669
67531SOL    HW1 4490   0.953   0.330  14.583
67531SOL    HW2 4491   1.040   0.261  14.686
67532SOL     OW 4492   2.300  12.313   3.366
67532SOL    HW1 4493   2.395  12.316   3.352
67532SOL    HW2 4494   2.287  12.361   3.448
67533SOL     OW 4495  13.757   4.317  14.769
67533SOL    HW1 4496  13.848   4.340  14.790
67533SOL    HW2 4497  13.733   4.252  14.836
67534SOL     OW 4498  12.085   2.405   4.481
67534SOL    HW1 4499  12.081   2.314   4.512
67534SOL    HW2 4500  12.178   2.426   4.481
67535SOL     OW 4501   7.504   7.473   4.345
67535SOL    HW1 4502   7.545   7.559   4.356
67535SOL    HW2 4503   7.575   7.410   4.360
67536SOL     OW 4504  11.562   0.156   1.258
67536SOL    HW1 4505  11.497   0.188   1.195
67536SOL    HW2 4506  11.552   0.060   1.254
67537SOL     OW 4507  10.092   6.917   1.295
67537SOL    HW1 4508  10.120   6.907   1.385
67537SOL    HW2 4509  10.082   7.012   1.283
67538SOL     OW 4510  14.777   1.251   2.189
67538SOL    HW1 4511  14.788   1.237   2.283
67538SOL    HW2 4512  14.860   1.224   2.151
67539SOL     OW 4513   5.493   2.034   7.078
67539SOL    HW1 4514   5.398   2.022   7.075
67539SOL    HW2 4515   5.527   1.949   7.104
67540SOL     OW 4516  13.232   2.320   5.512
67540SOL    HW1 4517  13.184   2.313   5.429
67540SOL    HW2 4518  13.212   2.239   5.558
67541SOL     OW 4519   5.922   3.890   8.735
67541SOL    HW1 4520   5.974   3.834   8.793
67541SOL    HW2 4521   5.938   3.856   8.647
67542SOL     OW 4522  12.170  14.198  14.211
67542SOL    HW1 4523  12.222  14.232  14.284
67542SOL    HW2 4524  12.162  14.273  14.151
67543SOL     OW 4525   8.955   1.463   1.333
67543SOL    HW1 4526   8.913   1.390   1.378
67543SOL    HW2 4527   8.953   1.438   1.241
67544SOL     OW 4528   1.105   8.141   0.005
67544SOL    HW1 4529   1.138   8.114   0.091
67544SOL    HW2 4530   1.082   8.233   0.016
67545SOL     OW 4531  11.704   1.513   8.818
67545SOL    HW1 4532  11.667   1.425   8.814
67545SOL    HW2 4533  11.688   1.543   8.907
67546SOL     OW 4534   6.711   8.185   9.586
67546SOL    HW1 4535   6.649   8.173   9.514
67546SOL    HW2 4536   6.734   8.278   9.583
67547SOL     OW 4537   6.864   1.903   4.334
67547SOL    HW1 4538   6.867   1.822   4.284
67547SOL    HW2 4539   6.859   1.875   4.425
67548SOL     OW 4540   9.298   3.690   4.532
67548SOL    HW1 4541   9.217   3.656   4.570
67548SOL    HW2 4542   9.269   3.759   4.471
67549SOL     OW 4543   9.211  12.034   2.528
67549SOL    HW1 4544   9.261  12.020   2.447
67549SOL    HW2 4545   9.120  12.016   2.503
67550SOL     OW 4546  13.999   2.601  10.527
67550SOL    HW1 4547  13.912   2.627  10.498
67550SOL    HW2 4548  14.059   2.643  10.465
67551SOL     OW 4549  12.194  14.366   1.313
67551SOL    HW1 4550  12.125  14.326   1.366
67551SOL    HW2 4551  12.187  14.460   1.333
67552SOL     OW 4552   1.472   1.297   7.377
67552SOL    HW1 4553   1.527   1.331   7.307
67552SOL    HW2 4554   1.392   1.266   7.333
67553SOL     OW 4555  10.938   6.380  13.811
67553SOL    HW1 4556  11.031   6.379  13.785
67553SOL    HW2 4557  10.904   6.295  13.782
67554SOL     OW 4558  14.178   8.208   0.386
67554SOL    HW1 4559  14.219   8.238   0.305
67554SOL    HW2 4560  14.203   8.274   0.451
67555SOL     OW 4561   9.289  11.911   7.226
67555SOL    HW1 4562   9.229  11.842   7.253
67555SOL    HW2 4563   9.285  11.975   7.298
67556SOL     OW 4564   9.106   3.044   3.642
67556SOL    HW1 4565   9.021   3.002   3.649
67556SOL    HW2 4566   9.125   3.077   3.730
67557SOL     OW 4567   0.731   8.821   9.849
67557SOL    HW1 4568   0.641   8.791   9.865
67557SOL    HW2 4569   0.720   8.905   9.804
67558SOL     OW 4570  10.107   5.359  10.509
67558SOL    HW1 4571  10.183   5.407  10.542
67558SOL    HW2 4572  10.069   5.417  10.443
67559SOL     OW 4573   6.973   6.606   5.285
67559SOL    HW1 4574   7.060   6.569   5.299
67559SOL    HW2 4575   6.988   6.699   5.268
67560SOL     OW 4576  11.102   3.540   7.881
67560SOL    HW1 4577  11.166   3.468   7.878
67560SOL    HW2 4578  11.097   3.571   7.791
67561SOL     OW 4579  14.380   3.556   0.087
67561SOL    HW1 4580  14.300   3.504   0.082
67561SOL    HW2 4581  14.449   3.491   0.099
67562SOL     OW 4582   3.475  12.123   4.483
67562SOL    HW1 4583   3.416  12.196   4.467
67562SOL    HW2 4584   3.535  12.155   4.550
67563SOL     OW 4585   4.162   4.514   7.423
67563SOL    HW1 4586   4.202   4.584   7.372
67563SOL    HW2 4587   4.097   4.558   7.478
67564SOL     OW 4588   4.646   4.151  12.703
67564SOL    HW1 4589   4.653   4.088  12.631
67564SOL    HW2 4590   4.737   4.172  12.726
67565SOL     OW 4591   9.931   8.429   3.339
67565SOL    HW1 4592  10.019   8.422   3.303
67565SOL    HW2 4593   9.900   8.514   3.309
67566SOL     OW 4594   9.421   5.728   3.902
67566SOL    HW1 4595   9.405   5.636   3.925
67566SOL    HW2 4596   9.337   5.759   3.869
67567SOL     OW 4597   8.709   0.638  12.239
67567SOL    HW1 4598   8.796   0.674  12.257
67567SOL    HW2 4599   8.704   0.559  12.293
67568SOL     OW 4600   3.344  13.350   3.173
67568SOL    HW1 4601   3.252  13.367   3.152
67568SOL    HW2 4602   3.381  13.318   3.091
67569SOL     OW 4603  14.704   4.795  10.135
67569SOL    HW1 4604  14.721   4.774  10.227
67569SOL    HW2 4605  14.781   4.763  10.088
67570SOL     OW 4606   6.366   8.904  13.296
67570SOL    HW1 4607   6.270   8.897  13.300
67570SOL    HW2 4608   6.398   8.840  13.359
67571SOL     OW 4609   1.590   4.622   7.846
67571SOL    HW1 4610   1.668   4.677   7.833
67571SOL    HW2 4611   1.584   4.612   7.941
67572SOL     OW 4612   9.536  12.041   0.698
67572SOL    HW1 4613   9.596  12.059   0.626
67572SOL    HW2 4614   9.485  11.965   0.668
67573SOL     OW 4615  11.251   1.710   1.762
67573SOL    HW1 4616  11.249   1.688   1.669
67573SOL    HW2 4617  11.161   1.734   1.783
67574SOL     OW 4618   3.642   0.362   7.051
67574SOL    HW1 4619   3.632   0.418   6.974
67574SOL    HW2 4620   3.735   0.368   7.073
67575SOL     OW 4621  12.789   4.303  11.493
67575SOL    HW1 4622  12.866   4.357  11.474
67575SOL    HW2 4623  12.728   4.324  11.422
67576SOL     OW 4624  13.144   8.564  11.374
67576SOL    HW1 4625  13.056   8.586  11.345
67576SOL    HW2 4626  13.187   8.528  11.296
67577SOL     OW 4627   6.946  10.745  10.399
67577SOL    HW1 4628   6.891  10.823  10.406
67577SOL    HW2 4629   6.889  10.679  10.359
67578SOL     OW 4630  13.839  14.358  10.708
67578SOL    HW1 4631  13.760  14.411  10.719
67578SOL    HW2 4632  13.882  14.396  10.631
67579SOL     OW 4633   6.530  10.181   7.605
67579SOL    HW1 4634   6.456  10.170   7.665
67579SOL    HW2 4635   6.557  10.091   7.584
67580SOL     OW 4636   4.786  11.501   3.810
67580SOL    HW1 4637   4.710  11.479   3.756
67580SOL    HW2 4638   4.856  11.520   3.747
67581SOL     OW 4639  12.576  14.688  10.907
67581SOL    HW1 4640  12.606  14.718  10.821
67581SOL    HW2 4641  12.590  14.763  10.965
67582SOL     OW 4642   5.769   9.589  11.514
67582SOL    HW1 4643   5.770   9.655  11.583
67582SOL    HW2 4644   5.721   9.515  11.552
67583SOL     OW 4645   2.601   6.298   1.842
67583SOL    HW1 4646   2.696   6.286   1.839
67583SOL    HW2 4647   2.565   6.214   1.815
67584SOL     OW 4648   7.769   2.099   7.155
67584SOL    HW1 4649   7.821   2.068   7.229
67584SOL    HW2 4650   7.826   2.162   7.110
67585SOL     OW 4651   9.839  12.965   7.992
67585SOL    HW1 4652   9.858  12.998   7.905
67585SOL    HW2 4653   9.831  12.870   7.980
67586SOL     OW 4654  13.700   8.907  12.347
67586SOL    HW1 4655  13.615   8.921  12.388
67586SOL    HW2 4656  13.743   8.992  12.351
67587SOL     OW 4657  11.763   4.377   6.289
67587SOL    HW1 4658  11.824   4.383   6.216
67587SOL    HW2 4659  11.689   4.327   6.255
67588SOL     OW 4660  11.250   6.423  12.280
67588SOL    HW1 4661  11.175   6.382  12.324
67588SOL    HW2 4662  11.215   6.455  12.197
67589SOL     OW 4663   9.818   0.583  12.193
67589SOL    HW1 4664   9.738   0.626  12.165
67589SOL    HW2 4665   9.790   0.497  12.224
67590SOL     OW 4666  13.532  11.162   4.663
67590SOL    HW1 4667  13.569  11.091   4.714
67590SOL    HW2 4668  13.465  11.200   4.720
67591SOL     OW 4669   3.064  11.334   4.719
67591SOL    HW1 4670   3.049  11.240   4.721
67591SOL    HW2 4671   3.124  11.351   4.792
67592SOL     OW 4672   8.689  12.037  10.978
67592SOL    HW1 4673   8.639  12.091  10.917
67592SOL    HW2 4674   8.694  12.089  11.058
67593SOL     OW 4675  12.321   3.336   4.108
67593SOL    HW1 4676  12.269   3.391   4.167
67593SOL    HW2 4677  12.407   3.331   4.150
67594SOL     OW 4678   5.918   5.062  13.989
67594SOL    HW1 4679   5.920   5.028  13.899
67594SOL    HW2 4680   5.863   5.140  13.984
67595SOL     OW 4681   8.407  10.750   4.698
67595SOL    HW1 4682   8.339  10.799   4.745
67595SOL    HW2 4683   8.433  10.681   4.758
67596SOL     OW 4684  11.718  10.417  12.631
67596SOL    HW1 4685  11.714  10.374  12.716
67596SOL    HW2 4686  11.808  10.447  12.623
67597SOL     OW 4687   7.095   0.867   9.868
67597SOL    HW1 4688   7.096   0.896   9.776
67597SOL    HW2 4689   7.034   0.927   9.911
67598SOL     OW 4690  10.786   1.345   6.478
67598SOL    HW1 4691  10.842   1.316   6.406
67598SOL    HW2 4692  10.781   1.440   6.467
67599SOL     OW 4693  12.414  11.527   8.452
67599SOL    HW1 4694  12.504  11.500   8.431
67599SOL    HW2 4695  12.362  11.448   8.439
67600SOL     OW 4696   8.178   9.983   3.300
67600SOL    HW1 4697   8.091   9.952   3.327
67600SOL    HW2 4698   8.167  10.077   3.288
67601SOL     OW 4699  10.783   8.951  11.293
67601SOL    HW1 4700  10.716   8.995  11.241
67601SOL    HW2 4701  10.745   8.866  11.316
67602SOL     OW 4702   8.846   1.162   2.318
67602SOL    HW1 4703   8.824   1.221   2.246
67602SOL    HW2 4704   8.792   1.191   2.391
67603SOL     OW 4705   5.414   9.477  10.274
67603SOL    HW1 4706   5.430   9.486  10.368
67603SOL    HW2 4707   5.386   9.386  10.263
67604SOL     OW 4708   1.236   1.856  11.586
67604SOL    HW1 4709   1.207   1.939  11.626
67604SOL    HW2 4710   1.174   1.841  11.515
67605SOL     OW 4711   6.195   2.321  10.811
67605SOL    HW1 4712   6.189   2.228  10.832
67605SOL    HW2 4713   6.143   2.332  10.732
67606SOL     OW 4714   1.243   5.491  10.771
67606SOL    HW1 4715   1.181   5.444  10.826
67606SOL    HW2 4716   1.314   5.517  10.830
67607SOL     OW 4717   3.297   9.819   1.627
67607SOL    HW1 4718   3.380   9.866   1.626
67607SOL    HW2 4719   3.300   9.766   1.707
67608SOL     OW 4720   0.620   7.105  14.133
67608SOL    HW1 4721   0.678   7.101  14.209
67608SOL    HW2 4722   0.533   7.119  14.169
67609SOL     OW 4723  13.331   5.686  10.698
67609SOL    HW1 4724  13.362   5.649  10.615
67609SOL    HW2 4725  13.291   5.770  10.672
67610SOL     OW 4726   9.137  14.811   0.265
67610SOL    HW1 4727   9.094  14.785   0.183
67610SOL    HW2 4728   9.230  14.811   0.244
67611SOL     OW 4729  10.109   7.949  10.207
67611SOL    HW1 4730  10.186   7.989  10.167
67611SOL    HW2 4731  10.054   8.024  10.234
67612SOL     OW 4732   8.434   6.728   2.703
67612SOL    HW1 4733   8.411   6.701   2.614
67612SOL    HW2 4734   8.502   6.794   2.691
67613SOL     OW 4735   7.642   8.429  10.686
67613SOL    HW1 4736   7.623   8.516  10.651
67613SOL    HW2 4737   7.728   8.438  10.727
67614SOL     OW 4738  13.804  11.566  10.176
67614SOL    HW1 4739  13.836  11.576  10.086
67614SOL    HW2 4740  13.802  11.472  10.190
67615SOL     OW 4741   7.558   6.374   2.514
67615SOL    HW1 4742   7.498   6.309   2.477
67615SOL    HW2 4743   7.525   6.390   2.602
67616SOL     OW 4744   4.718  12.931   0.995
67616SOL    HW1 4745   4.756  12.983   0.925
67616SOL    HW2 4746   4.737  12.981   1.075
67617SOL     OW 4747  11.474   9.457   3.692
67617SOL    HW1 4748  11.393   9.504   3.671
67617SOL    HW2 4749  11.500   9.416   3.610
67618SOL     OW 4750  11.020   9.329   7.823
67618SOL    HW1 4751  10.998   9.247   7.777
67618SOL    HW2 4752  10.985   9.317   7.911
67619SOL     OW 4753   0.128  10.783  14.680
67619SOL    HW1 4754   0.133  10.837  14.758
67619SOL    HW2 4755   0.136  10.845  14.607
67620SOL     OW 4756  10.600   6.556  10.536
67620SOL    HW1 4757  10.526   6.497  10.550
67620SOL    HW2 4758  10.603   6.568  10.441
67621SOL     OW 4759   7.708  10.407  11.817
67621SOL    HW1 4760   7.651  10.331  11.827
67621SOL    HW2 4761   7.649  10.483  11.823
67622SOL     OW 4762  12.237   1.093  13.788
67622SOL    HW1 4763  12.274   1.178  13.768
67622SOL    HW2 4764  12.210   1.098  13.879
67623SOL     OW 4765   0.781   4.357   2.479
67623SOL    HW1 4766   0.770   4.406   2.561
67623SOL    HW2 4767   0.758   4.267   2.502
67624SOL     OW 4768  13.603   0.026  10.354
67624SOL    HW1 4769  13.669   0.007  10.421
67624SOL    HW2 4770  13.588   0.121  10.361
67625SOL     OW 4771   7.388   1.921   6.609
67625SOL    HW1 4772   7.320   1.942   6.545
67625SOL    HW2 4773   7.375   1.984   6.679
67626SOL     OW 4774   9.478   3.487   3.740
67626SOL    HW1 4775   9.412   3.442   3.687
67626SOL    HW2 4776   9.438   3.572   3.759
67627SOL     OW 4777  11.198  11.179  13.655
67627SOL    HW1 4778  11.274  11.231  13.630
67627SOL    HW2 4779  11.232  11.116  13.718
67628SOL     OW 4780   7.340  13.545   5.714
67628SOL    HW1 4781   7.387  13.468   5.746
67628SOL    HW2 4782   7.253  13.536   5.751
67629SOL     OW 4783  14.562   8.875   4.203
67629SOL    HW1 4784  14.590   8.899   4.291
67629SOL    HW2 4785  14.466   8.875   4.207
67630SOL     OW 4786  13.973   2.253   1.647
67630SOL    HW1 4787  13.937   2.165   1.641
67630SOL    HW2 4788  13.900   2.306   1.680
67631SOL     OW 4789   7.234  11.363   8.822
67631SOL    HW1 4790   7.276  11.410   8.750
67631SOL    HW2 4791   7.140  11.381   8.811
67632SOL     OW 4792  10.417   8.086  13.232
67632SOL    HW1 4793  10.343   8.036  13.268
67632SOL    HW2 4794  10.494   8.034  13.256
67633SOL     OW 4795   4.981   3.026  10.738
67633SOL    HW1 4796   4.943   2.977  10.665
67633SOL    HW2 4797   5.074   3.035  10.715
67634SOL     OW 4798   6.992   8.678   9.927
67634SOL    HW1 4799   7.048   8.601   9.917
67634SOL    HW2 4800   6.904   8.646   9.908
67635SOL     OW 4801  12.804  10.141   9.457
67635SOL    HW1 4802  12.895  10.120   9.436
67635SOL    HW2 4803  12.768  10.059   9.489
67636SOL     OW 4804   6.596   1.611   5.708
67636SOL    HW1 4805   6.619   1.667   5.634
67636SOL    HW2 4806   6.670   1.617   5.768
67637SOL     OW 4807   4.971   4.758  14.674
67637SOL    HW1 4808   4.955   4.816  14.749
67637SOL    HW2 4809   4.955   4.670  14.708
67638SOL     OW 4810   2.304   9.944   3.935
67638SOL    HW1 4811   2.339   9.965   3.849
67638SOL    HW2 4812   2.349  10.004   3.995
67639SOL     OW 4813  10.097   8.201   9.726
67639SOL    HW1 4814  10.153   8.140   9.774
67639SOL    HW2 4815  10.015   8.154   9.713
67640SOL     OW 4816  12.764   3.300   0.018
67640SOL    HW1 4817  12.775   3.281   0.111
67640SOL    HW2 4818  12.790   3.392   0.009
67641SOL     OW 4819   9.867   3.671  14.182
67641SOL    HW1 4820   9.836   3.760  14.165
67641SOL    HW2 4821   9.832   3.650  14.268
67642SOL     OW 4822   4.216  14.848   5.730
67642SOL    HW1 4823   4.304  14.818   5.752
67642SOL    HW2 4824   4.218  14.861   5.635
67643SOL     OW 4825  14.175  11.346  11.905
67643SOL    HW1 4826  14.118  11.317  11.834
67643SOL    HW2 4827  14.207  11.432  11.876
67644SOL     OW 4828   1.762   7.007   1.416
67644SOL    HW1 4829   1.737   7.095   1.387
67644SOL    HW2 4830   1.857   7.004   1.405
67645SOL     OW 4831   3.382  12.488   6.114
67645SOL    HW1 4832   3.350  12.458   6.029
67645SOL    HW2 4833   3.318  12.555   6.141
67646SOL     OW 4834  14.503  12.674  12.909
67646SOL    HW1 4835  14.517  12.644  12.999
67646SOL    HW2 4836  14.438  12.613  12.874
67647SOL     OW 4837   8.565  14.504   4.572
67647SOL    HW1 4838   8.588  14.476   4.483
67647SOL    HW2 4839   8.502  14.439   4.602
67648SOL     OW 4840   2.602   6.058   3.496
67648SOL    HW1 4841   2.525   6.009   3.468
67648SOL    HW2 4842   2.594   6.063   3.591
67649SOL     OW 4843   5.970   8.831   6.813
67649SOL    HW1 4844   5.966   8.787   6.898
67649SOL    HW2 4845   5.971   8.925   6.835
67650SOL     OW 4846   3.937  10.814   9.372
67650SOL    HW1 4847   4.032  10.811   9.366
67650SOL    HW2 4848   3.919  10.871   9.447
67651SOL     OW 4849  11.958  11.737  13.177
67651SOL    HW1 4850  11.991  11.677  13.110
67651SOL    HW2 4851  12.036  11.773  13.218
67652SOL     OW 4852   0.876   7.442   8.958
67652SOL    HW1 4853   0.894   7.478   9.045
67652SOL    HW2 4854   0.852   7.518   8.905
67653SOL     OW 4855   1.583   3.800   8.317
67653SOL    HW1 4856   1.581   3.812   8.412
67653SOL    HW2 4857   1.508   3.744   8.299
67654SOL     OW 4858   3.257   1.240  11.530
67654SOL    HW1 4859   3.200   1.244  11.606
67654SOL    HW2 4860   3.250   1.326  11.490
67655SOL     OW 4861   0.560  14.424   0.242
67655SOL    HW1 4862   0.566  14.433   0.337
67655SOL    HW2 4863   0.484  14.368   0.228
67656SOL     OW 4864   7.005  10.512   1.414
67656SOL    HW1 4865   7.067  10.567   1.462
67656SOL    HW2 4866   6.922  10.523   1.459
67657SOL     OW 4867   4.455   5.247  14.160
67657SOL    HW1 4868   4.491   5.174  14.110
67657SOL    HW2 4869   4.420   5.208  14.240
67658SOL     OW 4870   6.799   9.399   7.625
67658SOL    HW1 4871   6.751   9.456   7.684
67658SOL    HW2 4872   6.731   9.345   7.583
67659SOL     OW 4873   7.630   6.321  11.269
67659SOL    HW1 4874   7.648   6.234  11.233
67659SOL    HW2 4875   7.709   6.342  11.319
67660SOL     OW 4876  12.006   3.821   5.778
67660SOL    HW1 4877  12.096   3.789   5.771
67660SOL    HW2 4878  11.976   3.829   5.687
67661SOL     OW 4879   1.216  14.845  14.450
67661SOL    HW1 4880   1.297  14.818  14.493
67661SOL    HW2 4881   1.146  14.810  14.505
67662SOL     OW 4882  14.509   9.192   9.632
67662SOL    HW1 4883  14.584   9.247   9.611
67662SOL    HW2 4884  14.492   9.142   9.552
67663SOL     OW 4885   9.871   9.278  13.027
67663SOL    HW1 4886   9.797   9.303  12.973
67663SOL    HW2 4887   9.835   9.217  13.092
67664SOL     OW 4888   4.199   4.180   1.075
67664SOL    HW1 4889   4.260   4.124   1.027
67664SOL    HW2 4890   4.150   4.226   1.007
67665SOL     OW 4891   7.227   2.709  10.175
67665SOL    HW1 4892   7.195   2.797  10.196
67665SOL    HW2 4893   7.259   2.716  10.086
67666SOL     OW 4894   0.631  10.461   2.741
67666SOL    HW1 4895   0.717  10.440   2.778
67666SOL    HW2 4896   0.600  10.378   2.705
67667SOL     OW 4897  14.354   0.800   6.954
67667SOL    HW1 4898  14.351   0.893   6.932
67667SOL    HW2 4899  14.270   0.782   6.996
67668SOL     OW 4900   3.999  14.075   7.074
67668SOL    HW1 4901   3.910  14.043   7.089
67668SOL    HW2 4902   4.047  13.999   7.043
67669SOL     OW 4903   8.462  12.995  10.146
67669SOL    HW1 4904   8.506  13.016  10.229
67669SOL    HW2 4905   8.520  13.028  10.078
67670SOL     OW 4906  13.482  12.539   8.969
67670SOL    HW1 4907  13.400  12.582   8.947
67670SOL    HW2 4908  13.503  12.487   8.892
67671SOL     OW 4909  12.387   5.804  10.454
67671SOL    HW1 4910  12.357   5.798  10.363
67671SOL    HW2 4911  12.473   5.847  10.448
67672SOL     OW 4912   5.644  13.723   0.652
67672SOL    HW1 4913   5.579  13.760   0.712
67672SOL    HW2 4914   5.601  13.722   0.567
67673SOL     OW 4915   0.267  14.152  12.258
67673SOL    HW1 4916   0.210  14.082  12.291
67673SOL    HW2 4917   0.268  14.139  12.163
67674SOL     OW 4918  12.587   6.247   2.946
67674SOL    HW1 4919  12.511   6.282   2.900
67674SOL    HW2 4920  12.610   6.315   3.009
67675SOL     OW 4921   4.955   3.129   5.139
67675SOL    HW1 4922   4.979   3.184   5.214
67675SOL    HW2 4923   4.878   3.174   5.101
67676SOL     OW 4924   6.641   8.409  10.549
67676SOL    HW1 4925   6.586   8.485  10.567
67676SOL    HW2 4926   6.587   8.334  10.571
67677SOL     OW 4927  10.905   4.595   9.212
67677SOL    HW1 4928  10.863   4.533   9.272
67677SOL    HW2 4929  10.948   4.540   9.147
67678SOL     OW 4930   0.784   2.731  11.760
67678SOL    HW1 4931   0.689   2.721  11.771
67678SOL    HW2 4932   0.795   2.823  11.735
67679SOL     OW 4933   0.087   7.084   4.718
67679SOL    HW1 4934   0.075   7.178   4.700
67679SOL    HW2 4935  14.880   7.052   4.734
67680SOL     OW 4936   8.688   9.516   4.387
67680SOL    HW1 4937   8.646   9.470   4.314
67680SOL    HW2 4938   8.650   9.604   4.384
67681SOL     OW 4939  14.734  11.838   3.770
67681SOL    HW1 4940  14.754  11.799   3.685
67681SOL    HW2 4941  14.738  11.932   3.754
67682SOL     OW 4942   4.740  10.377  13.109
67682SOL    HW1 4943   4.733  10.287  13.139
67682SOL    HW2 4944   4.814  10.377  13.048
67683SOL     OW 4945   7.810   1.162  10.272
67683SOL    HW1 4946   7.779   1.142  10.360
67683SOL    HW2 4947   7.890   1.110  10.262
67684SOL     OW 4948   4.314   2.930   5.048
67684SOL    HW1 4949   4.308   2.841   5.014
67684SOL    HW2 4950   4.399   2.934   5.090
67685SOL     OW 4951  14.857   7.534  13.735
67685SOL    HW1 4952  14.821   7.541  13.646
67685SOL    HW2 4953   0.060   7.578  13.730
67686SOL     OW 4954   3.224  13.482   8.833
67686SOL    HW1 4955   3.283  13.512   8.902
67686SOL    HW2 4956   3.156  13.433   8.879
67687SOL     OW 4957   0.631   5.119   1.079
67687SOL    HW1 4958   0.659   5.127   0.988
67687SOL    HW2 4959   0.703   5.157   1.130
67688SOL     OW 4960   8.480   6.189   3.224
67688SOL    HW1 4961   8.550   6.126   3.204
67688SOL    HW2 4962   8.431   6.197   3.142
67689SOL     OW 4963   0.107   7.094   8.142
67689SOL    HW1 4964   0.131   7.005   8.116
67689SOL    HW2 4965   0.084   7.087   8.234
67690SOL     OW 4966   3.730   3.752  12.723
67690SOL    HW1 4967   3.670   3.825  12.707
67690SOL    HW2 4968   3.750   3.718  12.636
67691SOL     OW 4969   2.456   5.719   1.450
67691SOL    HW1 4970   2.405   5.793   1.482
67691SOL    HW2 4971   2.400   5.643   1.467
67692SOL     OW 4972   7.901   2.002   5.987
67692SOL    HW1 4973   7.935   2.046   5.909
67692SOL    HW2 4974   7.823   1.956   5.957
67693SOL     OW 4975   4.930   2.091   6.688
67693SOL    HW1 4976   5.009   2.038   6.698
67693SOL    HW2 4977   4.945   2.167   6.744
67694SOL     OW 4978   7.227  14.379   2.588
67694SOL    HW1 4979   7.168  14.402   2.661
67694SOL    HW2 4980   7.315  14.388   2.625
67695SOL     OW 4981   7.774  11.644   4.791
67695SOL    HW1 4982   7.775  11.718   4.730
67695SOL    HW2 4983   7.685  11.609   4.785
67696SOL     OW 4984   6.305   4.018  10.038
67696SOL    HW1 4985   6.297   3.991  10.130
67696SOL    HW2 4986   6.400   4.017  10.022
67697SOL     OW 4987   4.135   3.673   0.190
67697SOL    HW1 4988   4.080   3.724   0.131
67697SOL    HW2 4989   4.083   3.596   0.212
67698SOL     OW 4990   4.391  13.038   9.167
67698SOL    HW1 4991   4.397  12.944   9.183
67698SOL    HW2 4992   4.324  13.046   9.099
67699SOL     OW 4993   2.907   4.640   1.073
67699SOL    HW1 4994   2.953   4.666   0.994
67699SOL    HW2 4995   2.956   4.681   1.145
67700SOL     OW 4996   0.996   8.754   8.478
67700SOL    HW1 4997   1.031   8.666   8.494
67700SOL    HW2 4998   0.985   8.791   8.565
67701SOL     OW 4999   7.822   9.582  10.892
67701SOL    HW1 5000   7.820   9.674  10.920
67701SOL    HW2 5001   7.906   9.571  10.849
67702SOL     OW 5002  12.531   5.919  13.817
67702SOL    HW1 5003  12.475   5.844  13.794
67702SOL    HW2 5004  12.578   5.890  13.896
67703SOL     OW 5005   8.348   8.172   4.794
67703SOL    HW1 5006   8.280   8.233   4.822
67703SOL    HW2 5007   8.385   8.138   4.875
67704SOL     OW 5008   9.947   6.729   3.542
67704SOL    HW1 5009  10.033   6.771   3.534
67704SOL    HW2 5010   9.948   6.659   3.477
67705SOL     OW 5011   9.869   1.927   4.802
67705SOL    HW1 5012   9.792   1.878   4.829
67705SOL    HW2 5013   9.903   1.879   4.727
67706SOL     OW 5014  12.204   9.097   5.255
67706SOL    HW1 5015  12.134   9.059   5.309
67706SOL    HW2 5016  12.213   9.187   5.287
67707SOL     OW 5017   7.425   8.936   4.519
67707SOL    HW1 5018   7.493   8.990   4.560
67707SOL    HW2 5019   7.345   8.988   4.526
67708SOL     OW 5020  12.753   9.649   5.603
67708SOL    HW1 5021  12.844   9.636   5.576
67708SOL    HW2 5022  12.730   9.568   5.648
67709SOL     OW 5023   9.241   2.297  12.917
67709SOL    HW1 5024   9.290   2.215  12.918
67709SOL    HW2 5025   9.191   2.297  12.999
67710SOL     OW 5026   8.789  13.830   8.622
67710SOL    HW1 5027   8.697  13.803   8.617
67710SOL    HW2 5028   8.820  13.824   8.531
67711SOL     OW 5029   2.091   2.944   0.684
67711SOL    HW1 5030   2.103   2.850   0.675
67711SOL    HW2 5031   2.018   2.964   0.625
67712SOL     OW 5032   8.275  11.134  14.173
67712SOL    HW1 5033   8.326  11.170  14.245
67712SOL    HW2 5034   8.188  11.119  14.210
67713SOL     OW 5035   5.576   4.185  12.792
67713SOL    HW1 5036   5.557   4.201  12.700
67713SOL    HW2 5037   5.541   4.098  12.809
67714SOL     OW 5038   7.025   7.972   9.192
67714SOL    HW1 5039   7.013   7.910   9.263
67714SOL    HW2 5040   7.110   8.012   9.208
67715SOL     OW 5041   8.616   4.748   7.871
67715SOL    HW1 5042   8.665   4.794   7.803
67715SOL    HW2 5043   8.647   4.785   7.953
67716SOL     OW 5044   6.106  11.279  12.279
67716SOL    HW1 5045   6.138  11.196  12.243
67716SOL    HW2 5046   6.110  11.268  12.373
67717SOL     OW 5047   9.882  12.021  10.685
67717SOL    HW1 5048   9.879  11.928  10.706
67717SOL    HW2 5049   9.961  12.054  10.727
67718SOL     OW 5050  13.063  14.665  12.195
67718SOL    HW1 5051  13.026  14.617  12.270
67718SOL    HW2 5052  13.017  14.749  12.196
67719SOL     OW 5053  11.114  12.144   8.859
67719SOL    HW1 5054  11.091  12.236   8.868
67719SOL    HW2 5055  11.181  12.129   8.926
67720SOL     OW 5056   8.400   7.718   3.974
67720SOL    HW1 5057   8.390   7.624   3.985
67720SOL    HW2 5058   8.485   7.738   4.012
67721SOL     OW 5059  11.176   7.811   7.001
67721SOL    HW1 5060  11.187   7.807   7.096
67721SOL    HW2 5061  11.264   7.798   6.967
67722SOL     OW 5062   2.930   3.665   3.630
67722SOL    HW1 5063   3.009   3.622   3.663
67722SOL    HW2 5064   2.929   3.750   3.675
67723SOL     OW 5065   2.167   7.086   2.009
67723SOL    HW1 5066   2.249   7.114   2.050
67723SOL    HW2 5067   2.110   7.162   2.016
67724SOL     OW 5068   9.130   8.476   6.302
67724SOL    HW1 5069   9.041   8.482   6.337
67724SOL    HW2 5070   9.121   8.504   6.211
67725SOL     OW 5071   2.096   9.207   0.569
67725SOL    HW1 5072   2.001   9.217   0.569
67725SOL    HW2 5073   2.111   9.119   0.535
67726SOL     OW 5074   4.697   8.066   2.727
67726SOL    HW1 5075   4.667   7.978   2.747
67726SOL    HW2 5076   4.752   8.090   2.802
67727SOL     OW 5077   2.724   4.049   7.867
67727SOL    HW1 5078   2.804   4.046   7.815
67727SOL    HW2 5079   2.660   4.092   7.810
67728SOL     OW 5080  14.344   5.075  13.891
67728SOL    HW1 5081  14.286   5.058  13.965
67728SOL    HW2 5082  14.420   5.020  13.907
67729SOL     OW 5083   1.380  14.425   9.666
67729SOL    HW1 5084   1.294  14.466   9.659
67729SOL    HW2 5085   1.363  14.338   9.701
67730SOL     OW 5086   2.740   9.586  10.664
67730SOL    HW1 5087   2.715   9.661  10.612
67730SOL    HW2 5088   2.789   9.623  10.738
67731SOL     OW 5089   0.324  13.431  14.355
67731SOL    HW1 5090   0.373  13.442  14.436
67731SOL    HW2 5091   0.291  13.342  14.358
67732SOL     OW 5092   5.964   6.521  11.964
67732SOL    HW1 5093   5.973   6.584  11.893
67732SOL    HW2 5094   5.907   6.453  11.929
67733SOL     OW 5095   6.271  11.803  10.034
67733SOL    HW1 5096   6.207  11.732  10.032
67733SOL    HW2 5097   6.222  11.881  10.006
67734SOL     OW 5098  10.297   6.012   2.165
67734SOL    HW1 5099  10.373   5.955   2.152
67734SOL    HW2 5100  10.289   6.022   2.260
67735SOL     OW 5101   8.784   1.235  13.827
67735SOL    HW1 5102   8.876   1.214  13.813
67735SOL    HW2 5103   8.739   1.194  13.753
67736SOL     OW 5104  10.033   0.111  13.251
67736SOL    HW1 5105   9.985   0.030  13.267
67736SOL    HW2 5106  10.080   0.095  13.169
67737SOL     OW 5107   7.269  10.117  13.878
67737SOL    HW1 5108   7.322  10.058  13.823
67737SOL    HW2 5109   7.332  10.158  13.937
67738SOL     OW 5110  11.850   9.735   0.662
67738SOL    HW1 5111  11.821   9.655   0.620
67738SOL    HW2 5112  11.788   9.802   0.632
67739SOL     OW 5113  11.702  10.213  11.326
67739SOL    HW1 5114  11.780  10.184  11.278
67739SOL    HW2 5115  11.715  10.307  11.338
67740SOL     OW 5116  13.880   9.080  10.601
67740SOL    HW1 5117  13.841   9.110  10.519
67740SOL    HW2 5118  13.866   8.985  10.602
67741SOL     OW 5119   5.583   3.901  14.786
67741SOL    HW1 5120   5.512   3.876  14.845
67741SOL    HW2 5121   5.592   3.995  14.799
67742SOL     OW 5122   1.423  10.384   7.027
67742SOL    HW1 5123   1.348  10.343   7.070
67742SOL    HW2 5124   1.475  10.420   7.099
67743SOL     OW 5125   0.527  13.613  10.882
67743SOL    HW1 5126   0.533  13.658  10.966
67743SOL    HW2 5127   0.497  13.680  10.821
67744SOL     OW 5128   1.038  12.469  11.780
67744SOL    HW1 5129   1.123  12.489  11.743
67744SOL    HW2 5130   0.982  12.543  11.756
67745SOL     OW 5131   8.552   0.895   2.043
67745SOL    HW1 5132   8.490   0.822   2.050
67745SOL    HW2 5133   8.500   0.968   2.010
67746SOL     OW 5134   1.735  12.771  14.013
67746SOL    HW1 5135   1.716  12.760  14.106
67746SOL    HW2 5136   1.820  12.729  14.002
67747SOL     OW 5137  14.146  12.009  14.268
67747SOL    HW1 5138  14.076  11.955  14.306
67747SOL    HW2 5139  14.137  12.093  14.312
67748SOL     OW 5140   3.290   1.242  12.834
67748SOL    HW1 5141   3.317   1.154  12.807
67748SOL    HW2 5142   3.319   1.299  12.763
67749SOL     OW 5143   5.002   1.561  10.057
67749SOL    HW1 5144   4.922   1.582  10.008
67749SOL    HW2 5145   4.971   1.526  10.140
67750SOL     OW 5146   1.967  13.748  11.286
67750SOL    HW1 5147   1.890  13.794  11.320
67750SOL    HW2 5148   2.012  13.716  11.364
67751SOL     OW 5149  10.111  11.183   8.042
67751SOL    HW1 5150  10.043  11.247   8.065
67751SOL    HW2 5151  10.093  11.162   7.950
67752SOL     OW 5152   3.306   5.785   3.854
67752SOL    HW1 5153   3.245   5.712   3.841
67752SOL    HW2 5154   3.393   5.745   3.853
67753SOL     OW 5155   0.561  13.059  12.894
67753SOL    HW1 5156   0.624  13.019  12.834
67753SOL    HW2 5157   0.502  12.988  12.918
67754SOL     OW 5158   4.512  13.938   5.751
67754SOL    HW1 5159   4.587  13.883   5.776
67754SOL    HW2 5160   4.549  14.026   5.740
67755SOL     OW 5161   2.133   4.992   3.728
67755SOL    HW1 5162   2.162   4.924   3.789
67755SOL    HW2 5163   2.195   4.986   3.655
67756SOL     OW 5164  10.621  10.791   9.878
67756SOL    HW1 5165  10.633  10.804   9.784
67756SOL    HW2 5166  10.708  10.771   9.911
67757SOL     OW 5167   1.058   3.420  11.584
67757SOL    HW1 5168   1.137   3.409  11.638
67757SOL    HW2 5169   1.069   3.358  11.512
67758SOL     OW 5170   6.499   9.206  12.993
67758SOL    HW1 5171   6.444   9.254  12.931
67758SOL    HW2 5172   6.455   9.121  13.003
67759SOL     OW 5173   0.782   7.517  12.091
67759SOL    HW1 5174   0.750   7.534  12.179
67759SOL    HW2 5175   0.812   7.426  12.094
67760SOL     OW 5176   0.973   7.969   5.789
67760SOL    HW1 5177   0.883   7.995   5.811
67760SOL    HW2 5178   0.963   7.884   5.746
67761SOL     OW 5179   1.535  11.162   7.797
67761SOL    HW1 5180   1.524  11.067   7.801
67761SOL    HW2 5181   1.555  11.187   7.887
67762SOL     OW 5182   7.192  12.808   7.737
67762SOL    HW1 5183   7.177  12.877   7.803
67762SOL    HW2 5184   7.113  12.810   7.683
67763SOL     OW 5185  10.533   1.137  11.814
67763SOL    HW1 5186  10.540   1.097  11.901
67763SOL    HW2 5187  10.503   1.226  11.831
67764SOL     OW 5188   7.742  12.977  14.779
67764SOL    HW1 5189   7.833  13.004  14.772
67764SOL    HW2 5190   7.718  12.998  14.870
67765SOL     OW 5191  10.178   1.822  10.539
67765SOL    HW1 5192  10.085   1.845  10.534
67765SOL    HW2 5193  10.215   1.886  10.600
67766SOL     OW 5194  11.201   0.064   1.361
67766SOL    HW1 5195  11.120   0.019   1.385
67766SOL    HW2 5196  11.181   0.105   1.277
67767SOL     OW 5197   0.007   1.009   3.152
67767SOL    HW1 5198   0.004   0.977   3.242
67767SOL    HW2 5199   0.089   0.975   3.117
67768SOL     OW 5200  14.578   2.725   9.830
67768SOL    HW1 5201  14.667   2.694   9.849
67768SOL    HW2 5202  14.531   2.647   9.801
67769SOL     OW 5203  12.531   9.909  11.311
67769SOL    HW1 5204  12.581   9.989  11.302
67769SOL    HW2 5205  12.454   9.933  11.363
67770SOL     OW 5206  10.094  11.351   0.388
67770SOL    HW1 5207  10.047  11.268   0.393
67770SOL    HW2 5208  10.067  11.400   0.466
67771SOL     OW 5209   9.346   8.591   0.377
67771SOL    HW1 5210   9.330   8.646   0.454
67771SOL    HW2 5211   9.314   8.643   0.303
67772SOL     OW 5212   4.209   6.031   0.155
67772SOL    HW1 5213   4.166   6.005   0.237
67772SOL    HW2 5214   4.300   6.045   0.179
67773SOL     OW 5215   5.296  14.762   8.868
67773SOL    HW1 5216   5.346  14.698   8.918
67773SOL    HW2 5217   5.204  14.737   8.880
67774SOL     OW 5218  14.348   2.361   7.418
67774SOL    HW1 5219  14.354   2.270   7.388
67774SOL    HW2 5220  14.255   2.376   7.434
67775SOL     OW 5221  12.292   2.290  13.654
67775SOL    HW1 5222  12.245   2.273  13.735
67775SOL    HW2 5223  12.224   2.312  13.590
67776SOL     OW 5224   7.771  11.488   1.226
67776SOL    HW1 5225   7.709  11.430   1.271
67776SOL    HW2 5226   7.813  11.537   1.296
67777SOL     OW 5227   7.836  10.304  10.675
67777SOL    HW1 5228   7.882  10.353  10.743
67777SOL    HW2 5229   7.748  10.342  10.672
67778SOL     OW 5230   1.045   4.639   7.461
67778SOL    HW1 5231   1.124   4.643   7.407
67778SOL    HW2 5232   1.075   4.653   7.550
67779SOL     OW 5233   8.062   0.846   9.864
67779SOL    HW1 5234   8.070   0.936   9.834
67779SOL    HW2 5235   8.131   0.799   9.818
67780SOL     OW 5236   1.359  12.420   5.663
67780SOL    HW1 5237   1.441  12.372   5.671
67780SOL    HW2 5238   1.338  12.446   5.753
67781SOL     OW 5239   4.993  11.030  11.090
67781SOL    HW1 5240   5.014  10.997  11.177
67781SOL    HW2 5241   4.999  10.954  11.033
67782SOL     OW 5242   8.304   7.198   1.630
67782SOL    HW1 5243   8.271   7.116   1.669
67782SOL    HW2 5244   8.266   7.199   1.542
67783SOL     OW 5245   8.209   2.934   8.008
67783SOL    HW1 5246   8.153   3.009   8.031
67783SOL    HW2 5247   8.286   2.974   7.967
67784SOL     OW 5248  12.616  10.924   6.855
67784SOL    HW1 5249  12.585  10.875   6.778
67784SOL    HW2 5250  12.679  10.866   6.897
67785SOL     OW 5251   9.276   5.219  12.751
67785SOL    HW1 5252   9.242   5.247  12.836
67785SOL    HW2 5253   9.199   5.217  12.694
67786SOL     OW 5254  14.652  13.230  10.779
67786SOL    HW1 5255  14.667  13.191  10.865
67786SOL    HW2 5256  14.724  13.292  10.767
67787SOL     OW 5257  10.078   5.212   7.176
67787SOL    HW1 5258  10.038   5.263   7.105
67787SOL    HW2 5259  10.048   5.254   7.256
67788SOL     OW 5260   5.409   9.389   3.308
67788SOL    HW1 5261   5.439   9.389   3.217
67788SOL    HW2 5262   5.329   9.441   3.307
67789SOL     OW 5263  13.738   5.306   3.426
67789SOL    HW1 5264  13.657   5.354   3.439
67789SOL    HW2 5265  13.783   5.352   3.355
67790SOL     OW 5266  12.507   8.403   2.153
67790SOL    HW1 5267  12.510   8.312   2.124
67790SOL    HW2 5268  12.553   8.403   2.237
67791SOL     OW 5269   9.988  10.482   9.173
67791SOL    HW1 5270  10.066  10.468   9.119
67791SOL    HW2 5271   9.988  10.575   9.193
67792SOL     OW 5272  10.462   6.959  12.791
67792SOL    HW1 5273  10.526   7.017  12.831
67792SOL    HW2 5274  10.473   6.972  12.697
67793SOL     OW 5275   5.455   3.926   4.980
67793SOL    HW1 5276   5.472   4.007   4.932
67793SOL    HW2 5277   5.482   3.946   5.070
67794SOL     OW 5278  13.089   5.062   6.628
67794SOL    HW1 5279  13.168   5.068   6.681
67794SOL    HW2 5280  13.027   5.014   6.683
67795SOL     OW 5281  10.661  14.284   3.877
67795SOL    HW1 5282  10.682  14.311   3.966
67795SOL    HW2 5283  10.676  14.189   3.876
67796SOL     OW 5284   9.955   4.367   4.877
67796SOL    HW1 5285   9.958   4.363   4.782
67796SOL    HW2 5286   9.865   4.390   4.898
67797SOL     OW 5287   8.354  10.832  13.756
67797SOL    HW1 5288   8.314  10.918  13.746
67797SOL    HW2 5289   8.448  10.850  13.762
67798SOL     OW 5290   2.862   2.587  14.548
67798SOL    HW1 5291   2.945   2.613  14.587
67798SOL    HW2 5292   2.811   2.668  14.544
67799SOL     OW 5293  12.993   8.581  14.293
67799SOL    HW1 5294  12.912   8.564  14.244
67799SOL    HW2 5295  12.978   8.664  14.337
67800SOL     OW 5296   2.068  11.644  10.273
67800SOL    HW1 5297   2.048  11.571  10.215
67800SOL    HW2 5298   2.149  11.618  10.318
67801SOL     OW 5299   8.244   5.632   3.832
67801SOL    HW1 5300   8.152   5.615   3.814
67801SOL    HW2 5301   8.263   5.713   3.785
67802SOL     OW 5302   7.560  12.932   4.552
67802SOL    HW1 5303   7.524  12.896   4.471
67802SOL    HW2 5304   7.634  12.985   4.525
67803SOL     OW 5305   8.906   8.771  13.554
67803SOL    HW1 5306   8.961   8.698  13.524
67803SOL    HW2 5307   8.966   8.828  13.602
67804SOL     OW 5308   9.022   4.856   0.042
67804SOL    HW1 5309   9.073   4.776   0.058
67804SOL    HW2 5310   9.079   4.927   0.072
67805SOL     OW 5311   5.523   3.879   2.340
67805SOL    HW1 5312   5.582   3.818   2.384
67805SOL    HW2 5313   5.571   3.962   2.338
67806SOL     OW 5314   7.227   4.496  11.307
67806SOL    HW1 5315   7.257   4.440  11.379
67806SOL    HW2 5316   7.229   4.439  11.231
67807SOL     OW 5317   9.406   5.841  13.791
67807SOL    HW1 5318   9.484   5.788  13.806
67807SOL    HW2 5319   9.426   5.926  13.829
67808SOL     OW 5320  14.762   7.541   1.771
67808SOL    HW1 5321  14.725   7.494   1.845
67808SOL    HW2 5322  14.698   7.610   1.752
67809SOL     OW 5323   0.946   8.117   1.702
67809SOL    HW1 5324   0.938   8.030   1.663
67809SOL    HW2 5325   0.889   8.173   1.648
67810SOL     OW 5326  11.162   6.067   7.232
67810SOL    HW1 5327  11.175   5.996   7.295
67810SOL    HW2 5328  11.102   6.031   7.167
67811SOL     OW 5329   7.933   5.675  12.264
67811SOL    HW1 5330   7.901   5.662  12.174
67811SOL    HW2 5331   7.932   5.770  12.276
67812SOL     OW 5332   1.862   2.079  13.219
67812SOL    HW1 5333   1.773   2.105  13.197
67812SOL    HW2 5334   1.917   2.151  13.186
67813SOL     OW 5335   8.298   0.910   8.308
67813SOL    HW1 5336   8.269   1.000   8.326
67813SOL    HW2 5337   8.253   0.886   8.227
67814SOL     OW 5338  11.557   8.957   6.344
67814SOL    HW1 5339  11.607   8.912   6.276
67814SOL    HW2 5340  11.614   8.956   6.421
67815SOL     OW 5341   1.130  13.824   6.779
67815SOL    HW1 5342   1.055  13.836   6.837
67815SOL    HW2 5343   1.138  13.730   6.769
67816SOL     OW 5344  14.655   8.740  11.239
67816SOL    HW1 5345  14.742   8.768  11.268
67816SOL    HW2 5346  14.619   8.817  11.195
67817SOL     OW 5347   2.733   6.832   6.775
67817SOL    HW1 5348   2.703   6.922   6.782
67817SOL    HW2 5349   2.743   6.818   6.680
67818SOL     OW 5350  10.374   2.974   3.477
67818SOL    HW1 5351  10.374   3.042   3.544
67818SOL    HW2 5352  10.282   2.967   3.451
67819SOL     OW 5353   3.672   0.949   6.013
67819SOL    HW1 5354   3.745   0.892   6.039
67819SOL    HW2 5355   3.657   0.928   5.921
67820SOL     OW 5356   5.790   5.192   1.511
67820SOL    HW1 5357   5.840   5.232   1.582
67820SOL    HW2 5358   5.735   5.262   1.477
67821SOL     OW 5359   7.238   0.744   4.785
67821SOL    HW1 5360   7.293   0.678   4.744
67821SOL    HW2 5361   7.186   0.781   4.712
67822SOL     OW 5362  12.689  13.541   1.665
67822SOL    HW1 5363  12.755  13.603   1.696
67822SOL    HW2 5364  12.713  13.458   1.705
67823SOL     OW 5365   6.483   1.099   1.222
67823SOL    HW1 5366   6.536   1.098   1.302
67823SOL    HW2 5367   6.544   1.127   1.153
67824SOL     OW 5368  12.184   8.893   6.210
67824SOL    HW1 5369  12.214   8.871   6.298
67824SOL    HW2 5370  12.162   8.809   6.170
67825SOL     OW 5371   2.799   2.027   4.746
67825SOL    HW1 5372   2.831   2.048   4.658
67825SOL    HW2 5373   2.748   1.947   4.735
67826SOL     OW 5374   4.750   3.850   8.831
67826SOL    HW1 5375   4.796   3.895   8.901
67826SOL    HW2 5376   4.690   3.915   8.796
67827SOL     OW 5377  13.817   8.717   6.271
67827SOL    HW1 5378  13.891   8.696   6.214
67827SOL    HW2 5379  13.760   8.771   6.217
67828SOL     OW 5380   2.175   0.198   4.525
67828SOL    HW1 5381   2.098   0.244   4.492
67828SOL    HW2 5382   2.155   0.181   4.618
67829SOL     OW 5383   6.598   1.933  10.653
67829SOL    HW1 5384   6.635   2.004  10.706
67829SOL    HW2 5385   6.595   1.859  10.713
67830SOL     OW 5386   9.992  12.587  10.317
67830SOL    HW1 5387  10.047  12.606  10.240
67830SOL    HW2 5388  10.022  12.649  10.383
67831SOL     OW 5389  10.005   2.517  10.822
67831SOL    HW1 5390  10.015   2.423  10.808
67831SOL    HW2 5391  10.056   2.535  10.902
67832SOL     OW 5392  12.835   8.359   5.638
67832SOL    HW1 5393  12.744   8.374   5.663
67832SOL    HW2 5394  12.878   8.332   5.719
67833SOL     OW 5395  13.750  11.927  14.223
67833SOL    HW1 5396  13.785  12.016  14.225
67833SOL    HW2 5397  13.780  11.892  14.139
67834SOL     OW 5398   7.514  12.193   3.631
67834SOL    HW1 5399   7.598  12.149   3.616
67834SOL    HW2 5400   7.537  12.285   3.643
67835SOL     OW 5401   8.622   1.480   4.017
67835SOL    HW1 5402   8.635   1.400   3.966
67835SOL    HW2 5403   8.614   1.549   3.951
67836SOL     OW 5404   8.316   0.408   2.710
67836SOL    HW1 5405   8.292   0.360   2.788
67836SOL    HW2 5406   8.236   0.410   2.657
67837SOL     OW 5407  11.214  14.520   5.264
67837SOL    HW1 5408  11.284  14.561   5.213
67837SOL    HW2 5409  11.140  14.516   5.204
67838SOL     OW 5410   0.197  11.947   6.398
67838SOL    HW1 5411   0.106  11.936   6.370
67838SOL    HW2 5412   0.191  11.969   6.491
67839SOL     OW 5413   7.992  14.410  12.358
67839SOL    HW1 5414   7.958  14.465  12.429
67839SOL    HW2 5415   8.053  14.468  12.310
67840SOL     OW 5416   6.127  10.241  14.540
67840SOL    HW1 5417   6.147  10.183  14.466
67840SOL    HW2 5418   6.055  10.296  14.508
67841SOL     OW 5419   4.245   9.754  12.800
67841SOL    HW1 5420   4.225   9.820  12.866
67841SOL    HW2 5421   4.339   9.762  12.786
67842SOL     OW 5422   4.967   9.604   3.143
67842SOL    HW1 5423   5.052   9.587   3.183
67842SOL    HW2 5424   4.918   9.523   3.156
67843SOL     OW 5425   6.161   0.159   0.259
67843SOL    HW1 5426   6.114   0.230   0.302
67843SOL    HW2 5427   6.174   0.189   0.169
67844SOL     OW 5428  14.112   8.621   5.395
67844SOL    HW1 5429  14.134   8.620   5.302
67844SOL    HW2 5430  14.104   8.714   5.416
67845SOL     OW 5431   5.331   3.653  12.926
67845SOL    HW1 5432   5.285   3.732  12.957
67845SOL    HW2 5433   5.343   3.601  13.006
67846SOL     OW 5434   3.570   5.578   7.978
67846SOL    HW1 5435   3.656   5.619   7.985
67846SOL    HW2 5436   3.580   5.494   8.024
67847SOL     OW 5437   0.974   0.792  10.366
67847SOL    HW1 5438   1.056   0.746  10.385
67847SOL    HW2 5439   0.943   0.753  10.284
67848SOL     OW 5440   1.913  13.731   6.964
67848SOL    HW1 5441   1.994  13.769   6.930
67848SOL    HW2 5442   1.865  13.703   6.886
67849SOL     OW 5443   0.246   9.014   0.118
67849SOL    HW1 5444   0.263   8.930   0.075
67849SOL    HW2 5445   0.277   9.001   0.208
67850SOL     OW 5446   5.939  13.137   2.145
67850SOL    HW1 5447   5.880  13.071   2.182
67850SOL    HW2 5448   5.887  13.180   2.078
67851SOL     OW 5449   3.838   0.800   1.983
67851SOL    HW1 5450   3.819   0.706   1.980
67851SOL    HW2 5451   3.846   0.825   1.891
67852SOL     OW 5452   7.783   4.605  10.751
67852SOL    HW1 5453   7.700   4.640  10.720
67852SOL    HW2 5454   7.772   4.596  10.845
67853SOL     OW 5455   4.183  12.449   1.661
67853SOL    HW1 5456   4.152  12.380   1.602
67853SOL    HW2 5457   4.231  12.509   1.605
67854SOL     OW 5458  14.051   6.267  10.955
67854SOL    HW1 5459  14.078   6.271  11.047
67854SOL    HW2 5460  14.008   6.181  10.946
67855SOL     OW 5461   5.693  12.218   4.277
67855SOL    HW1 5462   5.696  12.291   4.216
67855SOL    HW2 5463   5.614  12.170   4.253
67856SOL     OW 5464   9.111  12.953   4.811
67856SOL    HW1 5465   9.033  12.970   4.863
67856SOL    HW2 5466   9.169  13.027   4.830
67857SOL     OW 5467   6.746   6.356  11.092
67857SOL    HW1 5468   6.732   6.373  10.999
67857SOL    HW2 5469   6.766   6.442  11.129
67858SOL     OW 5470   7.887  11.361   8.794
67858SOL    HW1 5471   7.793  11.373   8.788
67858SOL    HW2 5472   7.902  11.327   8.882
67859SOL     OW 5473  11.036   3.379   4.855
67859SOL    HW1 5474  11.014   3.325   4.931
67859SOL    HW2 5475  11.093   3.323   4.802
67860SOL     OW 5476  13.713  11.528   2.970
67860SOL    HW1 5477  13.727  11.547   2.877
67860SOL    HW2 5478  13.799  11.540   3.010
67861SOL     OW 5479  10.384   4.778  14.125
67861SOL    HW1 5480  10.343   4.752  14.208
67861SOL    HW2 5481  10.325   4.844  14.089
67862SOL     OW 5482   2.170   5.868   0.190
67862SOL    HW1 5483   2.205   5.779   0.195
67862SOL    HW2 5484   2.141   5.887   0.280
67863SOL     OW 5485  12.699   8.565   1.410
67863SOL    HW1 5486  12.775   8.535   1.461
67863SOL    HW2 5487  12.637   8.597   1.476
67864SOL     OW 5488   9.633   2.059   4.073
67864SOL    HW1 5489   9.668   2.010   3.998
67864SOL    HW2 5490   9.543   2.026   4.082
67865SOL     OW 5491   4.638   9.976  11.847
67865SOL    HW1 5492   4.565   9.914  11.840
67865SOL    HW2 5493   4.677   9.978  11.760
67866SOL     OW 5494   1.293  11.512  14.832
67866SOL    HW1 5495   1.371  11.459  14.849
67866SOL    HW2 5496   1.221  11.463  14.872
67867SOL     OW 5497   5.340   7.655   2.814
67867SOL    HW1 5498   5.362   7.732   2.866
67867SOL    HW2 5499   5.422   7.605   2.808
67868SOL     OW 5500   8.149  14.732   3.208
67868SOL    HW1 5501   8.184  14.820   3.189
67868SOL    HW2 5502   8.197  14.674   3.150
67869SOL     OW 5503   7.496   2.330   9.387
67869SOL    HW1 5504   7.532   2.251   9.427
67869SOL    HW2 5505   7.405   2.308   9.369
67870SOL     OW 5506  12.444  11.593   3.857
67870SOL    HW1 5507  12.508  11.559   3.795
67870SOL    HW2 5508  12.362  11.549   3.835
67871SOL     OW 5509   9.478  10.453   5.141
67871SOL    HW1 5510   9.451  10.545   5.141
67871SOL    HW2 5511   9.514  10.438   5.228
67872SOL     OW 5512   0.759   1.671   1.532
67872SOL    HW1 5513   0.776   1.699   1.622
67872SOL    HW2 5514   0.774   1.576   1.533
67873SOL     OW 5515   0.746   9.171   3.272
67873SOL    HW1 5516   0.715   9.249   3.319
67873SOL    HW2 5517   0.842   9.180   3.272
67874SOL     OW 5518  12.550   9.186   1.120
67874SOL    HW1 5519  12.601   9.145   1.050
67874SOL    HW2 5520  12.559   9.127   1.195
67875SOL     OW 5521   3.884  10.702   0.674
67875SOL    HW1 5522   3.862  10.711   0.581
67875SOL    HW2 5523   3.943  10.775   0.692
67876SOL     OW 5524   3.477   0.914  14.223
67876SOL    HW1 5525   3.489   0.980  14.155
67876SOL    HW2 5526   3.390   0.878  14.205
67877SOL     OW 5527   8.456  11.720   3.389
67877SOL    HW1 5528   8.547  11.705   3.414
67877SOL    HW2 5529   8.405  11.678   3.458
67878SOL     OW 5530  10.862   2.077  11.611
67878SOL    HW1 5531  10.904   2.012  11.666
67878SOL    HW2 5532  10.791   2.112  11.665
67879SOL     OW 5533  14.229  14.018  11.192
67879SOL    HW1 5534  14.150  14.063  11.163
67879SOL    HW2 5535  14.229  14.027  11.287
67880SOL     OW 5536   5.901   6.033   3.719
67880SOL    HW1 5537   5.968   5.964   3.721
67880SOL    HW2 5538   5.829   5.995   3.668
67881SOL     OW 5539   3.844  13.641   6.935
67881SOL    HW1 5540   3.893  13.607   7.009
67881SOL    HW2 5541   3.791  13.712   6.971
67882SOL     OW 5542   5.678  10.171  10.759
67882SOL    HW1 5543   5.683  10.099  10.822
67882SOL    HW2 5544   5.738  10.237  10.794
67883SOL     OW 5545   2.186  14.563  10.589
67883SOL    HW1 5546   2.281  14.578  10.595
67883SOL    HW2 5547   2.147  14.642  10.625
67884SOL     OW 5548  12.775   1.974   0.273
67884SOL    HW1 5549  12.832   1.899   0.289
67884SOL    HW2 5550  12.769   1.981   0.178
67885SOL     OW 5551   7.316   2.096  11.099
67885SOL    HW1 5552   7.344   2.041  11.026
67885SOL    HW2 5553   7.299   2.182  11.059
67886SOL     OW 5554  12.803  12.844  10.046
67886SOL    HW1 5555  12.727  12.846   9.987
67886SOL    HW2 5556  12.824  12.751  10.055
67887SOL     OW 5557  13.644   7.766  14.413
67887SOL    HW1 5558  13.569   7.707  14.413
67887SOL    HW2 5559  13.688   7.748  14.330
67888SOL     OW 5560   1.811  12.495   9.156
67888SOL    HW1 5561   1.831  12.461   9.069
67888SOL    HW2 5562   1.791  12.416   9.208
67889SOL     OW 5563   8.032   4.925   1.427
67889SOL    HW1 5564   7.990   4.956   1.347
67889SOL    HW2 5565   7.962   4.880   1.474
67890SOL     OW 5566   9.422   3.745   8.082
67890SOL    HW1 5567   9.429   3.828   8.130
67890SOL    HW2 5568   9.331   3.742   8.054
67891SOL     OW 5569   4.866  11.588   0.593
67891SOL    HW1 5570   4.858  11.631   0.677
67891SOL    HW2 5571   4.819  11.505   0.604
67892SOL     OW 5572   7.584   9.370   0.219
67892SOL    HW1 5573   7.512   9.422   0.182
67892SOL    HW2 5574   7.605   9.306   0.151
67893SOL     OW 5575   2.699   5.747   1.791
67893SOL    HW1 5576   2.786   5.781   1.811
67893SOL    HW2 5577   2.639   5.804   1.838
67894SOL     OW 5578   6.293   4.970   5.991
67894SOL    HW1 5579   6.358   5.039   5.980
67894SOL    HW2 5580   6.228   5.008   6.051
67895SOL     OW 5581   2.011  12.815   5.098
67895SOL    HW1 5582   2.073  12.830   5.026
67895SOL    HW2 5583   1.976  12.901   5.118
67896SOL     OW 5584   4.703  14.600   1.434
67896SOL    HW1 5585   4.784  14.598   1.382
67896SOL    HW2 5586   4.634  14.578   1.371
67897SOL     OW 5587  14.872   1.396  12.427
67897SOL    HW1 5588  14.845   1.309  12.398
67897SOL    HW2 5589  14.801   1.425  12.484
67898SOL     OW 5590  12.108   5.505   7.169
67898SOL    HW1 5591  12.118   5.590   7.212
67898SOL    HW2 5592  12.188   5.457   7.193
67899SOL     OW 5593  12.705   4.110   5.654
67899SOL    HW1 5594  12.638   4.159   5.702
67899SOL    HW2 5595  12.785   4.161   5.665
67900SOL     OW 5596   3.167   2.063  14.524
67900SOL    HW1 5597   3.104   2.127  14.556
67900SOL    HW2 5598   3.140   1.980  14.564
67901SOL     OW 5599  10.312   6.015   8.447
67901SOL    HW1 5600  10.234   6.061   8.416
67901SOL    HW2 5601  10.359   6.080   8.501
67902SOL     OW 5602   1.312  11.417   8.678
67902SOL    HW1 5603   1.253  11.342   8.688
67902SOL    HW2 5604   1.400  11.378   8.673
67903SOL     OW 5605  13.437   6.398   9.004
67903SOL    HW1 5606  13.469   6.439   9.084
67903SOL    HW2 5607  13.430   6.305   9.025
67904SOL     OW 5608   8.881   9.751  12.247
67904SOL    HW1 5609   8.816   9.734  12.178
67904SOL    HW2 5610   8.962   9.768  12.200
67905SOL     OW 5611   5.288   0.958   6.852
67905SOL    HW1 5612   5.367   0.933   6.803
67905SOL    HW2 5613   5.277   1.051   6.833
67906SOL     OW 5614  10.416  12.293  12.723
67906SOL    HW1 5615  10.370  12.273  12.805
67906SOL    HW2 5616  10.468  12.371  12.744
67907SOL     OW 5617   6.869  12.774   0.311
67907SOL    HW1 5618   6.847  12.854   0.264
67907SOL    HW2 5619   6.927  12.802   0.382
67908SOL     OW 5620   4.581   4.425   0.672
67908SOL    HW1 5621   4.590   4.463   0.585
67908SOL    HW2 5622   4.532   4.344   0.658
67909SOL     OW 5623   4.868   0.542   8.524
67909SOL    HW1 5624   4.881   0.495   8.442
67909SOL    HW2 5625   4.920   0.493   8.588
67910SOL     OW 5626  11.011  11.154  13.466
67910SOL    HW1 5627  11.025  11.065  13.435
67910SOL    HW2 5628  11.077  11.167  13.533
67911SOL     OW 5629   6.379  13.185   4.906
67911SOL    HW1 5630   6.390  13.192   4.812
67911SOL    HW2 5631   6.463  13.213   4.942
67912SOL     OW 5632  14.390   8.840   8.440
67912SOL    HW1 5633  14.338   8.786   8.379
67912SOL    HW2 5634  14.394   8.926   8.397
67913SOL     OW 5635   4.104   8.897  13.969
67913SOL    HW1 5636   4.181   8.840  13.974
67913SOL    HW2 5637   4.042   8.849  13.914
67914SOL     OW 5638   4.963   4.513  14.824
67914SOL    HW1 5639   4.933   4.423  14.824
67914SOL    HW2 5640   5.029   4.516   0.011
67915SOL     OW 5641   6.101   4.840   6.893
67915SOL    HW1 5642   6.181   4.893   6.891
67915SOL    HW2 5643   6.079   4.835   6.986
67916SOL     OW 5644  11.894   7.506   3.363
67916SOL    HW1 5645  11.907   7.558   3.284
67916SOL    HW2 5646  11.832   7.556   3.415
67917SOL     OW 5647   3.800   1.329  13.653
67917SOL    HW1 5648   3.853   1.295  13.581
67917SOL    HW2 5649   3.747   1.254  13.681
67918SOL     OW 5650   9.939   7.487  11.219
67918SOL    HW1 5651   9.902   7.454  11.301
67918SOL    HW2 5652   9.863   7.495  11.161
67919SOL     OW 5653  13.534   4.693   4.909
67919SOL    HW1 5654  13.539   4.614   4.855
67919SOL    HW2 5655  13.607   4.747   4.879
67920SOL     OW 5656   9.866   5.063   3.647
67920SOL    HW1 5657   9.886   5.081   3.739
67920SOL    HW2 5658   9.809   5.135   3.621
67921SOL     OW 5659  13.086  12.056   5.517
67921SOL    HW1 5660  13.150  12.014   5.459
67921SOL    HW2 5661  13.098  12.150   5.503
67922SOL     OW 5662   8.169   4.604   8.613
67922SOL    HW1 5663   8.119   4.636   8.689
67922SOL    HW2 5664   8.193   4.514   8.637
67923SOL     OW 5665  14.027   3.660   9.585
67923SOL    HW1 5666  14.032   3.613   9.668
67923SOL    HW2 5667  13.947   3.628   9.544
67924SOL     OW 5668  10.959   4.638   6.214
67924SOL    HW1 5669  10.982   4.565   6.272
67924SOL    HW2 5670  11.037   4.652   6.161
67925SOL     OW 5671   6.480  10.557   9.063
67925SOL    HW1 5672   6.426  10.498   9.116
67925SOL    HW2 5673   6.472  10.642   9.105
67926SOL     OW 5674   7.951   1.359   4.380
67926SOL    HW1 5675   7.954   1.437   4.325
67926SOL    HW2 5676   8.042   1.343   4.403
67927SOL     OW 5677   3.914   0.788   2.551
67927SOL    HW1 5678   3.891   0.799   2.644
67927SOL    HW2 5679   3.991   0.844   2.539
67928SOL     OW 5680   2.364  10.254   8.776
67928SOL    HW1 5681   2.387  10.163   8.796
67928SOL    HW2 5682   2.374  10.261   8.681
67929SOL     OW 5683  10.632  12.427   7.753
67929SOL    HW1 5684  10.562  12.379   7.709
67929SOL    HW2 5685  10.691  12.454   7.682
67930SOL     OW 5686  13.247  14.781   7.369
67930SOL    HW1 5687  13.210  14.708   7.418
67930SOL    HW2 5688  13.339  14.758   7.357
67931SOL     OW 5689  14.270   3.828  12.207
67931SOL    HW1 5690  14.304   3.738  12.213
67931SOL    HW2 5691  14.266   3.858  12.298
67932SOL     OW 5692   1.657  14.017  11.614
67932SOL    HW1 5693   1.664  14.107  11.582
67932SOL    HW2 5694   1.729  14.008  11.676
67933SOL     OW 5695   3.781   8.436   8.111
67933SOL    HW1 5696   3.693   8.473   8.116
67933SOL    HW2 5697   3.781   8.384   8.031
67934SOL     OW 5698   6.852  12.798   2.998
67934SOL    HW1 5699   6.757  12.785   3.006
67934SOL    HW2 5700   6.881  12.818   3.086
67935SOL     OW 5701   3.332   6.292  13.361
67935SOL    HW1 5702   3.372   6.315  13.277
67935SOL    HW2 5703   3.374   6.210  13.386
67936SOL     OW 5704   4.153   2.273   0.663
67936SOL    HW1 5705   4.242   2.308   0.655
67936SOL    HW2 5706   4.101   2.348   0.691
67937SOL     OW 5707   5.358   0.246   0.641
67937SOL    HW1 5708   5.338   0.249   0.734
67937SOL    HW2 5709   5.406   0.164   0.629
67938SOL     OW 5710  14.707   9.356   9.513
67938SOL    HW1 5711  14.794   9.380   9.545
67938SOL    HW2 5712  14.724   9.294   9.442
67939SOL     OW 5713   2.120   1.377   5.796
67939SOL    HW1 5714   2.036   1.367   5.750
67939SOL    HW2 5715   2.173   1.303   5.766
67940SOL     OW 5716  14.243  14.016  13.076
67940SOL    HW1 5717  14.245  14.111  13.063
67940SOL    HW2 5718  14.169  13.986  13.024
67941SOL     OW 5719   7.181  13.041   6.968
67941SOL    HW1 5720   7.145  13.070   7.052
67941SOL    HW2 5721   7.115  13.068   6.903
67942SOL     OW 5722  13.382   3.926   2.811
67942SOL    HW1 5723  13.423   3.954   2.892
67942SOL    HW2 5724  13.396   3.831   2.808
67943SOL     OW 5725   9.888   7.215   3.938
67943SOL    HW1 5726   9.904   7.141   3.880
67943SOL    HW2 5727   9.963   7.272   3.926
67944SOL     OW 5728   6.912   7.936   3.300
67944SOL    HW1 5729   6.866   7.997   3.242
67944SOL    HW2 5730   6.920   7.982   3.383
67945SOL     OW 5731   6.330   9.280   1.006
67945SOL    HW1 5732   6.363   9.191   0.996
67945SOL    HW2 5733   6.370   9.311   1.087
67946SOL     OW 5734   5.090  11.039   7.497
67946SOL    HW1 5735   5.032  11.038   7.421
67946SOL    HW2 5736   5.088  11.129   7.528
67947SOL     OW 5737   8.354   7.041  12.242
67947SOL    HW1 5738   8.263   7.059  12.266
67947SOL    HW2 5739   8.374   6.958  12.284
67948SOL     OW 5740  10.597  14.729   9.920
67948SOL    HW1 5741  10.586  14.824   9.925
67948SOL    HW2 5742  10.597  14.709   9.827
67949SOL     OW 5743   7.498  14.025  13.308
67949SOL    HW1 5744   7.420  13.974  13.288
67949SOL    HW2 5745   7.531  13.988  13.390
67950SOL     OW 5746  10.977  10.933   0.314
67950SOL    HW1 5747  10.952  10.845   0.285
67950SOL    HW2 5748  10.902  10.988   0.291
67951SOL     OW 5749  10.401   5.327  10.367
67951SOL    HW1 5750  10.387   5.407  10.316
67951SOL    HW2 5751  10.433   5.263  10.303
67952SOL     OW 5752  13.125   2.340   4.572
67952SOL    HW1 5753  13.047   2.285   4.573
67952SOL    HW2 5754  13.096   2.423   4.610
67953SOL     OW 5755   3.289   5.209  12.758
67953SOL    HW1 5756   3.371   5.253  12.782
67953SOL    HW2 5757   3.233   5.279  12.727
67954SOL     OW 5758  14.806  11.240   1.123
67954SOL    HW1 5759  14.868  11.168   1.135
67954SOL    HW2 5760  14.751  11.212   1.051
67955SOL     OW 5761  14.044   8.243   6.026
67955SOL    HW1 5762  14.019   8.184   5.954
67955SOL    HW2 5763  14.103   8.307   5.986
67956SOL     OW 5764  13.926   5.972   0.477
67956SOL    HW1 5765  13.996   5.996   0.416
67956SOL    HW2 5766  13.939   5.878   0.492
67957SOL     OW 5767  13.900   7.175   4.960
67957SOL    HW1 5768  13.950   7.094   4.974
67957SOL    HW2 5769  13.880   7.174   4.866
67958SOL     OW 5770  11.598   1.432   9.971
67958SOL    HW1 5771  11.598   1.498  10.041
67958SOL    HW2 5772  11.510   1.395   9.973
67959SOL     OW 5773   6.856   6.757   8.189
67959SOL    HW1 5774   6.907   6.761   8.270
67959SOL    HW2 5775   6.801   6.679   8.199
67960SOL     OW 5776   1.246   9.625   2.815
67960SOL    HW1 5777   1.227   9.568   2.741
67960SOL    HW2 5778   1.268   9.709   2.775
67961SOL     OW 5779   4.095   7.254   7.235
67961SOL    HW1 5780   4.002   7.232   7.233
67961SOL    HW2 5781   4.139   7.173   7.259
67962SOL     OW 5782  11.425  12.782   4.397
67962SOL    HW1 5783  11.400  12.857   4.451
67962SOL    HW2 5784  11.502  12.746   4.441
67963SOL     OW 5785   1.306   6.711  12.524
67963SOL    HW1 5786   1.255   6.764  12.463
67963SOL    HW2 5787   1.345   6.774  12.584
67964SOL     OW 5788   1.533  14.091  10.332
67964SOL    HW1 5789   1.449  14.063  10.368
67964SOL    HW2 5790   1.540  14.183  10.358
67965SOL     OW 5791   0.660   3.015   6.117
67965SOL    HW1 5792   0.591   3.057   6.168
67965SOL    HW2 5793   0.618   2.995   6.033
67966SOL     OW 5794   9.301   0.695   7.379
67966SOL    HW1 5795   9.318   0.684   7.286
67966SOL    HW2 5796   9.211   0.727   7.383
67967SOL     OW 5797   4.829  13.114   1.787
67967SOL    HW1 5798   4.780  13.037   1.816
67967SOL    HW2 5799   4.777  13.188   1.817
67968SOL     OW 5800  14.129  11.064   2.431
67968SOL    HW1 5801  14.105  11.156   2.419
67968SOL    HW2 5802  14.154  11.059   2.524
67969SOL     OW 5803  14.713  10.746   6.244
67969SOL    HW1 5804  14.680  10.714   6.329
67969SOL    HW2 5805  14.658  10.701   6.179
67970SOL     OW 5806   3.469   9.117   3.450
67970SOL    HW1 5807   3.559   9.087   3.458
67970SOL    HW2 5808   3.418   9.058   3.505
67971SOL     OW 5809   2.861   8.783  10.666
67971SOL    HW1 5810   2.904   8.723  10.605
67971SOL    HW2 5811   2.798   8.831  10.612
67972SOL     OW 5812   7.046   5.718  10.899
67972SOL    HW1 5813   6.960   5.756  10.880
67972SOL    HW2 5814   7.108   5.787  10.876
67973SOL     OW 5815   4.315   2.190  13.842
67973SOL    HW1 5816   4.300   2.212  13.934
67973SOL    HW2 5817   4.405   2.218  13.826
67974SOL     OW 5818   4.715   8.889   6.026
67974SOL    HW1 5819   4.659   8.885   6.103
67974SOL    HW2 5820   4.654   8.884   5.952
67975SOL     OW 5821   2.884   9.584   8.190
67975SOL    HW1 5822   2.808   9.566   8.134
67975SOL    HW2 5823   2.953   9.609   8.129
67976SOL     OW 5824   0.256  12.649  14.284
67976SOL    HW1 5825   0.205  12.580  14.327
67976SOL    HW2 5826   0.191  12.695  14.230
67977SOL     OW 5827  13.200  11.776  13.191
67977SOL    HW1 5828  13.188  11.751  13.100
67977SOL    HW2 5829  13.116  11.814  13.217
67978SOL     OW 5830  10.760   9.217  14.299
67978SOL    HW1 5831  10.775   9.228  14.206
67978SOL    HW2 5832  10.699   9.143  14.305
67979SOL     OW 5833  14.264   9.899   6.371
67979SOL    HW1 5834  14.281   9.929   6.282
67979SOL    HW2 5835  14.310   9.815   6.377
67980SOL     OW 5836   1.771   0.399   3.847
67980SOL    HW1 5837   1.791   0.337   3.917
67980SOL    HW2 5838   1.775   0.347   3.767
67981SOL     OW 5839   7.761   6.965   2.288
67981SOL    HW1 5840   7.762   7.043   2.233
67981SOL    HW2 5841   7.715   6.992   2.367
67982SOL     OW 5842   8.656   2.168  14.335
67982SOL    HW1 5843   8.629   2.114  14.261
67982SOL    HW2 5844   8.624   2.121  14.412
67983SOL     OW 5845   9.123   1.496   8.232
67983SOL    HW1 5846   9.120   1.404   8.260
67983SOL    HW2 5847   9.189   1.537   8.287
67984SOL     OW 5848   0.071   3.437  11.670
67984SOL    HW1 5849   0.105   3.360  11.715
67984SOL    HW2 5850  14.874   3.461  11.719
67985SOL     OW 5851  13.613  14.342   6.884
67985SOL    HW1 5852  13.681  14.314   6.823
67985SOL    HW2 5853  13.654  14.413   6.934
67986SOL     OW 5854   5.759   6.232   7.416
67986SOL    HW1 5855   5.695   6.293   7.453
67986SOL    HW2 5856   5.844   6.270   7.440
67987SOL     OW 5857  13.127   4.105   8.604
67987SOL    HW1 5858  13.211   4.070   8.575
67987SOL    HW2 5859  13.150   4.169   8.673
67988SOL     OW 5860  13.043  10.622   0.804
67988SOL    HW1 5861  12.976  10.570   0.848
67988SOL    HW2 5862  13.076  10.565   0.735
67989SOL     OW 5863  10.275  11.724   8.341
67989SOL    HW1 5864  10.342  11.790   8.322
67989SOL    HW2 5865  10.211  11.770   8.396
67990SOL     OW 5866  10.999  11.171   5.800
67990SOL    HW1 5867  11.085  11.208   5.782
67990SOL    HW2 5868  10.962  11.227   5.868
67991SOL     OW 5869  12.000  14.057   2.088
67991SOL    HW1 5870  12.078  14.081   2.038
67991SOL    HW2 5871  11.948  14.005   2.027
67992SOL     OW 5872   0.035   7.621   3.773
67992SOL    HW1 5873   0.129   7.638   3.762
67992SOL    HW2 5874   0.017   7.647   3.864
67993SOL     OW 5875   2.201   0.737   8.599
67993SOL    HW1 5876   2.237   0.750   8.687
67993SOL    HW2 5877   2.273   0.760   8.540
67994SOL     OW 5878   5.553   2.183   7.323
67994SOL    HW1 5879   5.539   2.136   7.241
67994SOL    HW2 5880   5.467   2.218   7.345
67995SOL     OW 5881  11.394   1.548  14.603
67995SOL    HW1 5882  11.414   1.493  14.527
67995SOL    HW2 5883  11.343   1.491  14.661
67996SOL     OW 5884   6.518  10.940   8.515
67996SOL    HW1 5885   6.560  10.900   8.438
67996SOL    HW2 5886   6.425  10.944   8.492
67997SOL     OW 5887   8.106  13.166  11.277
67997SOL    HW1 5888   8.055  13.215  11.342
67997SOL    HW2 5889   8.049  13.093  11.253
67998SOL     OW 5890   3.531   7.482  11.169
67998SOL    HW1 5891   3.599   7.419  11.191
67998SOL    HW2 5892   3.551   7.509  11.079
67999SOL     OW 5893   8.619  13.912  10.216
67999SOL    HW1 5894   8.701  13.934  10.172
67999SOL    HW2 5895   8.640  13.835  10.269
68000SOL     OW 5896   4.346   4.506   5.456
68000SOL    HW1 5897   4.432   4.535   5.424
68000SOL    HW2 5898   4.283   4.555   5.402
68001SOL     OW 5899   6.885   9.150   1.897
68001SOL    HW1 5900   6.853   9.213   1.833
68001SOL    HW2 5901   6.887   9.067   1.851
68002SOL     OW 5902  13.462  13.515   3.018
68002SOL    HW1 5903  13.430  13.518   3.108
68002SOL    HW2 5904  13.429  13.595   2.978
68003SOL     OW 5905  11.502   0.536   3.282
68003SOL    HW1 5906  11.516   0.608   3.344
68003SOL    HW2 5907  11.546   0.565   3.202
68004SOL     OW 5908   6.801   6.928   2.770
68004SOL    HW1 5909   6.729   6.885   2.817
68004SOL    HW2 5910   6.846   6.857   2.725
68005SOL     OW 5911   8.430   3.348  12.868
68005SOL    HW1 5912   8.410   3.296  12.790
68005SOL    HW2 5913   8.378   3.428  12.858
68006SOL     OW 5914   7.417   1.846   9.987
68006SOL    HW1 5915   7.366   1.766   9.972
68006SOL    HW2 5916   7.395   1.872  10.076
68007SOL     OW 5917   1.790  10.979   8.726
68007SOL    HW1 5918   1.827  11.067   8.729
68007SOL    HW2 5919   1.827  10.940   8.646
68008SOL     OW 5920   4.938  14.152  14.059
68008SOL    HW1 5921   4.975  14.200  13.985
68008SOL    HW2 5922   4.847  14.181  14.063
68009SOL     OW 5923   6.453  12.585   9.822
68009SOL    HW1 5924   6.433  12.511   9.879
68009SOL    HW2 5925   6.479  12.655   9.881
68010SOL     OW 5926  11.993   3.331  10.589
68010SOL    HW1 5927  11.925   3.371  10.536
68010SOL    HW2 5928  12.046   3.405  10.620
68011SOL     OW 5929   4.194   1.486   0.297
68011SOL    HW1 5930   4.147   1.403   0.298
68011SOL    HW2 5931   4.286   1.462   0.292
68012SOL     OW 5932   3.558   8.140  10.290
68012SOL    HW1 5933   3.626   8.104  10.346
68012SOL    HW2 5934   3.605   8.182  10.218
68013SOL     OW 5935   2.851   3.317   5.880
68013SOL    HW1 5936   2.792   3.331   5.955
68013SOL    HW2 5937   2.915   3.388   5.887
68014SOL     OW 5938   3.230   4.185  11.173
68014SOL    HW1 5939   3.242   4.276  11.201
68014SOL    HW2 5940   3.217   4.136  11.254
68015SOL     OW 5941   6.407  11.806   7.911
68015SOL    HW1 5942   6.329  11.756   7.891
68015SOL    HW2 5943   6.426  11.856   7.832
68016SOL     OW 5944   8.340   5.291   4.870
68016SOL    HW1 5945   8.325   5.206   4.830
68016SOL    HW2 5946   8.383   5.343   4.802
68017SOL     OW 5947   7.616   7.203   6.543
68017SOL    HW1 5948   7.668   7.283   6.542
68017SOL    HW2 5949   7.552   7.218   6.614
68018SOL     OW 5950   8.549   2.655   6.600
68018SOL    HW1 5951   8.622   2.660   6.539
68018SOL    HW2 5952   8.574   2.713   6.672
68019SOL     OW 5953   4.882   3.344  11.374
68019SOL    HW1 5954   4.853   3.304  11.292
68019SOL    HW2 5955   4.977   3.348  11.366
68020SOL     OW 5956  13.417  11.789  12.109
68020SOL    HW1 5957  13.422  11.708  12.058
68020SOL    HW2 5958  13.471  11.851  12.061
68021SOL     OW 5959   1.152  12.159  12.237
68021SOL    HW1 5960   1.154  12.222  12.165
68021SOL    HW2 5961   1.144  12.213  12.316
68022SOL     OW 5962   2.088   8.299  13.440
68022SOL    HW1 5963   2.041   8.255  13.369
68022SOL    HW2 5964   2.157   8.237  13.465
68023SOL     OW 5965   6.227   2.383   9.453
68023SOL    HW1 5966   6.182   2.461   9.421
68023SOL    HW2 5967   6.160   2.334   9.499
68024SOL     OW 5968   4.654   3.572   7.381
68024SOL    HW1 5969   4.637   3.525   7.300
68024SOL    HW2 5970   4.579   3.630   7.391
68025SOL     OW 5971   2.117   3.037   6.502
68025SOL    HW1 5972   2.114   3.133   6.496
68025SOL    HW2 5973   2.047   3.008   6.443
68026SOL     OW 5974  10.747   6.362   6.517
68026SOL    HW1 5975  10.741   6.452   6.550
68026SOL    HW2 5976  10.779   6.311   6.592
68027SOL     OW 5977  11.899   7.788  13.865
68027SOL    HW1 5978  11.895   7.705  13.817
68027SOL    HW2 5979  11.987   7.790  13.903
68028SOL     OW 5980   0.644   6.304   1.152
68028SOL    HW1 5981   0.601   6.276   1.233
68028SOL    HW2 5982   0.572   6.326   1.093
68029SOL     OW 5983  14.740   7.134  12.680
68029SOL    HW1 5984  14.677   7.091  12.622
68029SOL    HW2 5985  14.823   7.128  12.632
68030SOL     OW 5986   4.974  12.395   6.387
68030SOL    HW1 5987   5.053  12.447   6.394
68030SOL    HW2 5988   4.904  12.452   6.420
68031SOL     OW 5989  11.053  13.609   9.921
68031SOL    HW1 5990  11.066  13.631  10.013
68031SOL    HW2 5991  10.985  13.669   9.891
68032SOL     OW 5992   3.766  11.752  11.893
68032SOL    HW1 5993   3.686  11.752  11.945
68032SOL    HW2 5994   3.763  11.835  11.844
68033SOL     OW 5995  14.650   3.189   8.516
68033SOL    HW1 5996  14.726   3.157   8.565
68033SOL    HW2 5997  14.575   3.170   8.573
68034SOL     OW 5998   1.154  14.431   8.752
68034SOL    HW1 5999   1.222  14.475   8.701
68034SOL    HW2 6000   1.201  14.367   8.805
68035SOL     OW 6001  10.534   4.563   3.841
68035SOL    HW1 6002  10.546   4.557   3.936
68035SOL    HW2 6003  10.623   4.564   3.805
68036SOL     OW 6004   7.601  14.287   4.616
68036SOL    HW1 6005   7.686  14.245   4.625
68036SOL    HW2 6006   7.615  14.378   4.643
68037SOL     OW 6007  12.002   5.448   2.214
68037SOL    HW1 6008  11.977   5.366   2.257
68037SOL    HW2 6009  12.093   5.436   2.188
68038SOL     OW 6010   7.835   1.011   7.848
68038SOL    HW1 6011   7.803   1.096   7.819
68038SOL    HW2 6012   7.765   0.950   7.827
68039SOL     OW 6013   0.257  13.266   8.072
68039SOL    HW1 6014   0.185  13.203   8.061
68039SOL    HW2 6015   0.285  13.287   7.983
68040SOL     OW 6016   9.541   9.121   7.364
68040SOL    HW1 6017   9.512   9.030   7.357
68040SOL    HW2 6018   9.518   9.160   7.279
68041SOL     OW 6019   9.964  13.988   9.182
68041SOL    HW1 6020   9.923  14.073   9.174
68041SOL    HW2 6021   9.913  13.941   9.248
68042SOL     OW 6022   9.746   5.981  14.787
68042SOL    HW1 6023   9.652   5.994  14.780
68042SOL    HW2 6024   9.764   5.902  14.737
68043SOL     OW 6025   9.910   3.453   5.021
68043SOL    HW1 6026   9.840   3.519   5.023
68043SOL    HW2 6027   9.990   3.504   5.016
68044SOL     OW 6028   5.823   7.796   9.631
68044SOL    HW1 6029   5.859   7.803   9.543
68044SOL    HW2 6030   5.894   7.762   9.685
68045SOL     OW 6031   8.433   2.264   1.938
68045SOL    HW1 6032   8.514   2.311   1.952
68045SOL    HW2 6033   8.411   2.281   1.846
68046SOL     OW 6034   0.603   3.188   3.424
68046SOL    HW1 6035   0.653   3.164   3.346
68046SOL    HW2 6036   0.615   3.283   3.433
68047SOL     OW 6037   6.598   0.516  14.659
68047SOL    HW1 6038   6.575   0.573  14.732
68047SOL    HW2 6039   6.632   0.436  14.700
68048SOL     OW 6040  13.272   6.359   6.675
68048SOL    HW1 6041  13.330   6.342   6.750
68048SOL    HW2 6042  13.185   6.334   6.706
68049SOL     OW 6043   6.203  11.039  12.682
68049SOL    HW1 6044   6.225  10.955  12.643
68049SOL    HW2 6045   6.107  11.044  12.675
68050SOL     OW 6046   2.000   5.166  14.348
68050SOL    HW1 6047   2.045   5.100  14.294
68050SOL    HW2 6048   2.071   5.217  14.387
68051SOL     OW 6049   2.695  12.757   9.767
68051SOL    HW1 6050   2.670  12.745   9.675
68051SOL    HW2 6051   2.662  12.843   9.790
68052SOL     OW 6052   4.583  11.332   8.250
68052SOL    HW1 6053   4.593  11.383   8.331
68052SOL    HW2 6054   4.528  11.387   8.194
68053SOL     OW 6055   3.940   9.370  13.834
68053SOL    HW1 6056   3.952   9.276  13.826
68053SOL    HW2 6057   3.954   9.388  13.927
68054SOL     OW 6058  14.452   8.615   3.779
68054SOL    HW1 6059  14.436   8.606   3.685
68054SOL    HW2 6060  14.440   8.708   3.797
68055SOL     OW 6061   0.592   2.059   7.308
68055SOL    HW1 6062   0.574   2.130   7.246
68055SOL    HW2 6063   0.688   2.055   7.311
68056SOL     OW 6064   5.958   1.835   7.514
68056SOL    HW1 6065   6.001   1.853   7.597
68056SOL    HW2 6066   5.944   1.921   7.474
68057SOL     OW 6067   6.457   8.896  12.176
68057SOL    HW1 6068   6.511   8.846  12.237
68057SOL    HW2 6069   6.520   8.932  12.113
68058SOL     OW 6070  13.321   2.360  13.637
68058SOL    HW1 6071  13.236   2.382  13.676
68058SOL    HW2 6072  13.300   2.323  13.551
68059SOL     OW 6073   7.603   7.085   2.534
68059SOL    HW1 6074   7.567   7.172   2.519
68059SOL    HW2 6075   7.568   7.057   2.618
68060SOL     OW 6076   0.801  13.143   0.521
68060SOL    HW1 6077   0.869  13.208   0.500
68060SOL    HW2 6078   0.847  13.059   0.523
68061SOL     OW 6079   4.334  14.524   5.537
68061SOL    HW1 6080   4.427  14.546   5.551
68061SOL    HW2 6081   4.336  14.453   5.473
68062SOL     OW 6082   4.173  13.006   9.978
68062SOL    HW1 6083   4.119  13.081   9.952
68062SOL    HW2 6084   4.180  13.013  10.073
68063SOL     OW 6085  13.552   4.327   5.369
68063SOL    HW1 6086  13.592   4.253   5.415
68063SOL    HW2 6087  13.542   4.394   5.436
68064SOL     OW 6088   5.713  14.544  12.478
68064SOL    HW1 6089   5.654  14.580  12.544
68064SOL    HW2 6090   5.699  14.450  12.482
68065SOL     OW 6091   0.984   0.123   8.312
68065SOL    HW1 6092   1.009   0.083   8.395
68065SOL    HW2 6093   1.065   0.125   8.261
68066SOL     OW 6094   3.974   5.628  10.145
68066SOL    HW1 6095   3.908   5.672  10.092
68066SOL    HW2 6096   4.022   5.699  10.187
68067SOL     OW 6097   7.678   1.077   4.637
68067SOL    HW1 6098   7.683   1.147   4.571
68067SOL    HW2 6099   7.769   1.057   4.658
68068SOL     OW 6100   5.483   7.874  10.604
68068SOL    HW1 6101   5.447   7.788  10.581
68068SOL    HW2 6102   5.419   7.936  10.571
68069SOL     OW 6103   1.309  14.476  13.203
68069SOL    HW1 6104   1.261  14.403  13.241
68069SOL    HW2 6105   1.252  14.508  13.133
68070SOL     OW 6106  13.304   6.771  12.127
68070SOL    HW1 6107  13.241   6.782  12.198
68070SOL    HW2 6108  13.380   6.729  12.167
68071SOL     OW 6109   2.822   1.561   4.604
68071SOL    HW1 6110   2.804   1.643   4.559
68071SOL    HW2 6111   2.761   1.559   4.678
68072SOL     OW 6112   1.683   2.559  13.501
68072SOL    HW1 6113   1.595   2.554  13.538
68072SOL    HW2 6114   1.741   2.542  13.575
68073SOL     OW 6115  12.494   4.196   6.264
68073SOL    HW1 6116  12.577   4.166   6.227
68073SOL    HW2 6117  12.515   4.280   6.305
68074SOL     OW 6118  10.943  12.908  12.583
68074SOL    HW1 6119  11.027  12.900  12.628
68074SOL    HW2 6120  10.958  12.976  12.517
68075SOL     OW 6121   5.116   8.791  10.202
68075SOL    HW1 6122   5.026   8.823  10.206
68075SOL    HW2 6123   5.126   8.758  10.113
68076SOL     OW 6124   4.681   7.811   5.742
68076SOL    HW1 6125   4.744   7.787   5.810
68076SOL    HW2 6126   4.673   7.732   5.688
68077SOL     OW 6127   0.698  14.509  12.498
68077SOL    HW1 6128   0.649  14.450  12.441
68077SOL    HW2 6129   0.719  14.456  12.575
68078SOL     OW 6130   0.916   0.224   4.542
68078SOL    HW1 6131   0.937   0.144   4.590
68078SOL    HW2 6132   0.821   0.232   4.548
68079SOL     OW 6133   4.320  10.498   6.628
68079SOL    HW1 6134   4.399  10.444   6.629
68079SOL    HW2 6135   4.262  10.457   6.692
68080SOL     OW 6136   4.943  13.733   4.425
68080SOL    HW1 6137   4.982  13.647   4.442
68080SOL    HW2 6138   4.883  13.718   4.351
68081SOL     OW 6139   5.382   0.263   0.126
68081SOL    HW1 6140   5.371   0.341   0.181
68081SOL    HW2 6141   5.294   0.244   0.094
68082SOL     OW 6142   2.614   3.659   4.646
68082SOL    HW1 6143   2.626   3.735   4.589
68082SOL    HW2 6144   2.696   3.650   4.694
68083SOL     OW 6145  10.118  13.704  12.709
68083SOL    HW1 6146  10.063  13.775  12.741
68083SOL    HW2 6147  10.142  13.730  12.620
68084SOL     OW 6148   8.762   7.118  11.645
68084SOL    HW1 6149   8.822   7.190  11.623
68084SOL    HW2 6150   8.679   7.144  11.605
68085SOL     OW 6151   8.282   5.950  13.522
68085SOL    HW1 6152   8.332   5.916  13.448
68085SOL    HW2 6153   8.274   5.876  13.582
68086SOL     OW 6154   6.736   5.772  11.137
68086SOL    HW1 6155   6.807   5.808  11.085
68086SOL    HW2 6156   6.661   5.829  11.119
68087SOL     OW 6157   4.821   7.533   6.391
68087SOL    HW1 6158   4.847   7.623   6.373
68087SOL    HW2 6159   4.867   7.510   6.472
68088SOL     OW 6160   0.859   1.614   0.161
68088SOL    HW1 6161   0.828   1.524   0.174
68088SOL    HW2 6162   0.928   1.625   0.226
68089SOL     OW 6163   3.109  10.204   0.227
68089SOL    HW1 6164   3.044  10.274   0.221
68089SOL    HW2 6165   3.079  10.150   0.300
68090SOL     OW 6166   9.507   7.544  14.247
68090SOL    HW1 6167   9.540   7.560  14.335
68090SOL    HW2 6168   9.555   7.467  14.216
68091SOL     OW 6169   1.337  10.631  11.577
68091SOL    HW1 6170   1.321  10.617  11.671
68091SOL    HW2 6171   1.416  10.581  11.558
68092SOL     OW 6172   0.349  10.327  12.270
68092SOL    HW1 6173   0.320  10.372  12.350
68092SOL    HW2 6174   0.328  10.389  12.200
68093SOL     OW 6175  13.421   9.999   8.366
68093SOL    HW1 6176  13.382  10.087   8.363
68093SOL    HW2 6177  13.513  10.014   8.388
68094SOL     OW 6178   0.172   6.689  13.367
68094SOL    HW1 6179   0.213   6.602  13.361
68094SOL    HW2 6180   0.146   6.696  13.459
68095SOL     OW 6181   3.265   3.449  11.884
68095SOL    HW1 6182   3.264   3.472  11.790
68095SOL    HW2 6183   3.357   3.458  11.909
68096SOL     OW 6184   4.543   1.719   3.612
68096SOL    HW1 6185   4.524   1.636   3.657
68096SOL    HW2 6186   4.622   1.700   3.561
68097SOL     OW 6187   5.198   8.667   4.041
68097SOL    HW1 6188   5.258   8.724   4.088
68097SOL    HW2 6189   5.162   8.609   4.108
68098SOL     OW 6190   6.660  12.654  11.874
68098SOL    HW1 6191   6.732  12.618  11.823
68098SOL    HW2 6192   6.610  12.707  11.812
68099SOL     OW 6193  13.840   9.633  12.626
68099SOL    HW1 6194  13.804   9.668  12.545
68099SOL    HW2 6195  13.871   9.711  12.674
68100SOL     OW 6196   2.518  14.432   1.563
68100SOL    HW1 6197   2.582  14.404   1.497
68100SOL    HW2 6198   2.571  14.448   1.641
68101SOL     OW 6199   6.805  12.463   1.633
68101SOL    HW1 6200   6.826  12.451   1.540
68101SOL    HW2 6201   6.874  12.418   1.680
68102SOL     OW 6202   0.972   3.425   9.996
68102SOL    HW1 6203   0.947   3.382   9.914
68102SOL    HW2 6204   1.009   3.354  10.050
68103SOL     OW 6205   3.493   8.671   5.206
68103SOL    HW1 6206   3.551   8.596   5.192
68103SOL    HW2 6207   3.418   8.635   5.253
68104SOL     OW 6208   2.543   7.501  14.853
68104SOL    HW1 6209   2.494   7.577  14.821
68104SOL    HW2 6210   2.589   7.533   0.048
68105SOL     OW 6211   7.455   4.958  10.480
68105SOL    HW1 6212   7.387   4.994  10.422
68105SOL    HW2 6213   7.407   4.903  10.542
68106SOL     OW 6214  12.201   9.981  11.149
68106SOL    HW1 6215  12.127   9.956  11.205
68106SOL    HW2 6216  12.234   9.899  11.113
68107SOL     OW 6217   8.680   5.219   2.706
68107SOL    HW1 6218   8.754   5.270   2.740
68107SOL    HW2 6219   8.695   5.131   2.739
68108SOL     OW 6220   2.565   5.552   4.997
68108SOL    HW1 6221   2.503   5.485   4.970
68108SOL    HW2 6222   2.597   5.522   5.083
68109SOL     OW 6223   8.769   9.590   1.496
68109SOL    HW1 6224   8.854   9.547   1.509
68109SOL    HW2 6225   8.756   9.640   1.577
68110SOL     OW 6226  10.684   0.377   3.384
68110SOL    HW1 6227  10.639   0.454   3.418
68110SOL    HW2 6228  10.651   0.367   3.295
68111SOL     OW 6229   5.790  11.327  11.899
68111SOL    HW1 6230   5.848  11.314  11.974
68111SOL    HW2 6231   5.702  11.318  11.935
68112SOL     OW 6232   3.744   1.069   3.539
68112SOL    HW1 6233   3.656   1.038   3.517
68112SOL    HW2 6234   3.735   1.163   3.552
68113SOL     OW 6235   5.441  11.395  13.758
68113SOL    HW1 6236   5.391  11.464  13.801
68113SOL    HW2 6237   5.377  11.350  13.702
68114SOL     OW 6238  13.555   5.333  13.201
68114SOL    HW1 6239  13.590   5.262  13.147
68114SOL    HW2 6240  13.574   5.307  13.291
68115SOL     OW 6241   6.450   6.846   1.040
68115SOL    HW1 6242   6.532   6.811   1.075
68115SOL    HW2 6243   6.398   6.768   1.018
68116SOL     OW 6244   7.071   4.257   9.396
68116SOL    HW1 6245   7.005   4.314   9.434
68116SOL    HW2 6246   7.059   4.173   9.439
68117SOL     OW 6247   2.839  11.026   8.127
68117SOL    HW1 6248   2.803  10.938   8.131
68117SOL    HW2 6249   2.922  11.016   8.081
68118SOL     OW 6250   0.440  10.024   0.385
68118SOL    HW1 6251   0.446  10.114   0.352
68118SOL    HW2 6252   0.346  10.009   0.394
68119SOL     OW 6253   0.616   7.577   5.288
68119SOL    HW1 6254   0.619   7.489   5.252
68119SOL    HW2 6255   0.695   7.584   5.341
68120SOL     OW 6256   8.043  13.587   0.796
68120SOL    HW1 6257   8.042  13.534   0.717
68120SOL    HW2 6258   8.090  13.666   0.772
68121SOL     OW 6259  12.539   7.630   3.476
68121SOL    HW1 6260  12.481   7.703   3.458
68121SOL    HW2 6261  12.543   7.626   3.572
68122SOL     OW 6262  10.498   5.742   6.302
68122SOL    HW1 6263  10.558   5.816   6.312
68122SOL    HW2 6264  10.459   5.755   6.216
68123SOL     OW 6265   3.738   9.039  10.548
68123SOL    HW1 6266   3.747   9.095  10.625
68123SOL    HW2 6267   3.826   9.006  10.531
68124SOL     OW 6268   2.308   2.583   8.385
68124SOL    HW1 6269   2.305   2.671   8.347
68124SOL    HW2 6270   2.344   2.597   8.473
68125SOL     OW 6271   2.830   0.602   7.804
68125SOL    HW1 6272   2.870   0.666   7.745
68125SOL    HW2 6273   2.845   0.518   7.762
68126SOL     OW 6274   5.053  13.928   1.946
68126SOL    HW1 6275   5.147  13.934   1.962
68126SOL    HW2 6276   5.013  13.933   2.033
68127SOL     OW 6277   6.182   1.780   8.179
68127SOL    HW1 6278   6.152   1.858   8.226
68127SOL    HW2 6279   6.102   1.744   8.140
68128SOL     OW 6280   9.306  10.571   3.745
68128SOL    HW1 6281   9.342  10.598   3.830
68128SOL    HW2 6282   9.261  10.488   3.763
68129SOL     OW 6283  12.746   2.700  13.924
68129SOL    HW1 6284  12.768   2.692  14.017
68129SOL    HW2 6285  12.662   2.655  13.916
68130SOL     OW 6286  12.412   8.997  11.165
68130SOL    HW1 6287  12.356   9.053  11.111
68130SOL    HW2 6288  12.356   8.922  11.187
68131SOL     OW 6289  10.576   2.598   8.328
68131SOL    HW1 6290  10.523   2.664   8.373
68131SOL    HW2 6291  10.614   2.644   8.254
68132SOL     OW 6292   6.698  11.116  13.019
68132SOL    HW1 6293   6.702  11.066  12.937
68132SOL    HW2 6294   6.772  11.084  13.070
68133SOL     OW 6295   4.797   1.534   5.243
68133SOL    HW1 6296   4.867   1.535   5.308
68133SOL    HW2 6297   4.821   1.603   5.181
68134SOL     OW 6298   0.554  10.195   4.352
68134SOL    HW1 6299   0.463  10.215   4.373
68134SOL    HW2 6300   0.585  10.144   4.427
68135SOL     OW 6301  14.541   9.990   6.490
68135SOL    HW1 6302  14.529   9.915   6.432
68135SOL    HW2 6303  14.548  10.065   6.430
68136SOL     OW 6304   9.753  10.887   1.758
68136SOL    HW1 6305   9.814  10.911   1.688
68136SOL    HW2 6306   9.736  10.794   1.744
68137SOL     OW 6307   8.776  10.589   2.596
68137SOL    HW1 6308   8.787  10.668   2.648
68137SOL    HW2 6309   8.861  10.577   2.552
68138SOL     OW 6310  14.625   5.948   9.415
68138SOL    HW1 6311  14.688   5.976   9.482
68138SOL    HW2 6312  14.567   6.024   9.404
68139SOL     OW 6313   3.549  10.696   3.325
68139SOL    HW1 6314   3.613  10.743   3.379
68139SOL    HW2 6315   3.483  10.665   3.388
68140SOL     OW 6316  10.786  12.065  12.414
68140SOL    HW1 6317  10.695  12.087  12.398
68140SOL    HW2 6318  10.787  12.026  12.501
68141SOL     OW 6319   1.413   8.618   1.460
68141SOL    HW1 6320   1.365   8.684   1.411
68141SOL    HW2 6321   1.444   8.557   1.394
68142SOL     OW 6322  11.687  14.691   9.525
68142SOL    HW1 6323  11.679  14.704   9.430
68142SOL    HW2 6324  11.697  14.596   9.535
68143SOL     OW 6325  10.019   3.319  12.612
68143SOL    HW1 6326  10.114   3.333  12.619
68143SOL    HW2 6327   9.984   3.405  12.592
68144SOL     OW 6328   4.585  13.945  10.347
68144SOL    HW1 6329   4.508  13.928  10.293
68144SOL    HW2 6330   4.651  13.884  10.314
68145SOL     OW 6331   8.793   3.498   1.484
68145SOL    HW1 6332   8.873   3.547   1.504
68145SOL    HW2 6333   8.817   3.406   1.500
68146SOL     OW 6334   1.111   3.213  14.339
68146SOL    HW1 6335   1.197   3.174  14.327
68146SOL    HW2 6336   1.103   3.226  14.433
68147SOL     OW 6337  10.966  14.658  10.522
68147SOL    HW1 6338  10.890  14.700  10.563
68147SOL    HW2 6339  10.934  14.625  10.438
68148SOL     OW 6340   4.972   0.019   7.433
68148SOL    HW1 6341   4.925   0.043   7.353
68148SOL    HW2 6342   4.909   0.037   7.503
68149SOL     OW 6343   4.745   3.525  12.297
68149SOL    HW1 6344   4.823   3.539  12.243
68149SOL    HW2 6345   4.672   3.550  12.241
68150SOL     OW 6346   9.466  12.368   3.868
68150SOL    HW1 6347   9.432  12.305   3.932
68150SOL    HW2 6348   9.534  12.416   3.916
68151SOL     OW 6349  10.020  14.685  14.567
68151SOL    HW1 6350   9.981  14.768  14.594
68151SOL    HW2 6351  10.060  14.650  14.647
68152SOL     OW 6352   6.482   3.655  13.388
68152SOL    HW1 6353   6.501   3.706  13.309
68152SOL    HW2 6354   6.503   3.564  13.364
68153SOL     OW 6355  14.064   9.023   4.612
68153SOL    HW1 6356  14.042   8.944   4.661
68153SOL    HW2 6357  13.998   9.087   4.639
68154SOL     OW 6358   1.111   7.313   2.901
68154SOL    HW1 6359   1.178   7.310   2.832
68154SOL    HW2 6360   1.113   7.403   2.933
68155SOL     OW 6361  13.053   0.976   5.225
68155SOL    HW1 6362  13.072   0.911   5.157
68155SOL    HW2 6363  13.115   1.047   5.208
68156SOL     OW 6364   6.478   8.417  10.890
68156SOL    HW1 6365   6.416   8.346  10.878
68156SOL    HW2 6366   6.559   8.374  10.919
68157SOL     OW 6367   7.123  11.490   7.441
68157SOL    HW1 6368   7.198  11.535   7.402
68157SOL    HW2 6369   7.052  11.503   7.379
68158SOL     OW 6370   2.838  11.521   2.070
68158SOL    HW1 6371   2.785  11.464   2.014
68158SOL    HW2 6372   2.905  11.557   2.012
68159SOL     OW 6373   2.055   3.218   2.106
68159SOL    HW1 6374   1.989   3.266   2.056
68159SOL    HW2 6375   2.118   3.285   2.134
68160SOL     OW 6376   4.996   3.469   8.001
68160SOL    HW1 6377   4.969   3.555   7.969
68160SOL    HW2 6378   5.077   3.451   7.954
68161SOL     OW 6379   2.306   7.329  11.477
68161SOL    HW1 6380   2.265   7.383  11.544
68161SOL    HW2 6381   2.396   7.316  11.509
68162SOL     OW 6382   5.931   1.292   0.187
68162SOL    HW1 6383   5.860   1.251   0.237
68162SOL    HW2 6384   5.993   1.322   0.254
68163SOL     OW 6385   0.496   1.982   8.803
68163SOL    HW1 6386   0.422   2.043   8.798
68163SOL    HW2 6387   0.461   1.900   8.769
68164SOL     OW 6388  13.349   7.515   6.936
68164SOL    HW1 6389  13.326   7.606   6.955
68164SOL    HW2 6390  13.321   7.500   6.846
68165SOL     OW 6391  11.433  11.938  14.463
68165SOL    HW1 6392  11.376  11.862  14.471
68165SOL    HW2 6393  11.440  11.953  14.369
68166SOL     OW 6394   6.712  12.015  11.997
68166SOL    HW1 6395   6.746  11.926  11.990
68166SOL    HW2 6396   6.765  12.055  12.066
68167SOL     OW 6397  10.092   2.113   8.415
68167SOL    HW1 6398  10.185   2.138   8.415
68167SOL    HW2 6399  10.047   2.188   8.453
68168SOL     OW 6400   8.971  13.654   4.211
68168SOL    HW1 6401   9.062  13.625   4.214
68168SOL    HW2 6402   8.926  13.596   4.273
68169SOL     OW 6403  13.472   8.105   3.011
68169SOL    HW1 6404  13.417   8.053   3.071
68169SOL    HW2 6405  13.549   8.128   3.063
68170SOL     OW 6406  13.209   9.274  14.644
68170SOL    HW1 6407  13.275   9.294  14.710
68170SOL    HW2 6408  13.231   9.186  14.614
68171SOL     OW 6409   1.880   0.502   3.516
68171SOL    HW1 6410   1.970   0.520   3.544
68171SOL    HW2 6411   1.859   0.418   3.558
68172SOL     OW 6412   5.350   9.569   9.887
68172SOL    HW1 6413   5.430   9.529   9.853
68172SOL    HW2 6414   5.371   9.662   9.894
68173SOL     OW 6415   9.641   2.467   5.930
68173SOL    HW1 6416   9.622   2.384   5.886
68173SOL    HW2 6417   9.734   2.461   5.952
68174SOL     OW 6418  14.647   8.621  12.804
68174SOL    HW1 6419  14.622   8.539  12.847
68174SOL    HW2 6420  14.573   8.642  12.748
68175SOL     OW 6421  11.588  13.977  12.197
68175SOL    HW1 6422  11.584  13.907  12.132
68175SOL    HW2 6423  11.575  13.932  12.281
68176SOL     OW 6424   5.773  11.907  14.253
68176SOL    HW1 6425   5.748  11.995  14.280
68176SOL    HW2 6426   5.764  11.854  14.332
68177SOL     OW 6427   3.404  13.622  11.997
68177SOL    HW1 6428   3.366  13.616  12.084
68177SOL    HW2 6429   3.456  13.702  11.999
68178SOL     OW 6430   7.188  11.531   5.444
68178SOL    HW1 6431   7.261  11.507   5.387
68178SOL    HW2 6432   7.121  11.465   5.426
68179SOL     OW 6433   7.629   6.574   6.860
68179SOL    HW1 6434   7.716   6.557   6.895
68179SOL    HW2 6435   7.593   6.644   6.914
68180SOL     OW 6436   2.849   7.602   4.548
68180SOL    HW1 6437   2.832   7.525   4.494
68180SOL    HW2 6438   2.915   7.652   4.499
68181SOL     OW 6439   4.173   0.536  12.398
68181SOL    HW1 6440   4.224   0.547  12.318
68181SOL    HW2 6441   4.091   0.497  12.369
68182SOL     OW 6442   4.469   4.387  11.808
68182SOL    HW1 6443   4.515   4.419  11.885
68182SOL    HW2 6444   4.378   4.376  11.836
68183SOL     OW 6445  14.421   1.748   1.143
68183SOL    HW1 6446  14.510   1.750   1.108
68183SOL    HW2 6447  14.417   1.823   1.202
68184SOL     OW 6448   7.180  13.894   8.068
68184SOL    HW1 6449   7.176  13.977   8.020
68184SOL    HW2 6450   7.109  13.899   8.132
68185SOL     OW 6451   4.777  12.608  10.714
68185SOL    HW1 6452   4.840  12.547  10.753
68185SOL    HW2 6453   4.741  12.657  10.788
68186SOL     OW 6454   4.179   2.173  10.634
68186SOL    HW1 6455   4.160   2.087  10.671
68186SOL    HW2 6456   4.199   2.156  10.542
68187SOL     OW 6457   8.699  11.049   4.988
68187SOL    HW1 6458   8.633  11.098   4.939
68187SOL    HW2 6459   8.665  10.960   4.992
68188SOL     OW 6460   5.322  12.518  11.545
68188SOL    HW1 6461   5.383  12.561  11.485
68188SOL    HW2 6462   5.374  12.504  11.625
68189SOL     OW 6463   1.583  14.680   9.792
68189SOL    HW1 6464   1.538  14.622   9.853
68189SOL    HW2 6465   1.559  14.647   9.705
68190SOL     OW 6466  11.284  14.090   4.231
68190SOL    HW1 6467  11.210  14.121   4.178
68190SOL    HW2 6468  11.338  14.040   4.169
68191SOL     OW 6469  14.860   1.400   8.702
68191SOL    HW1 6470  14.877   1.410   8.608
68191SOL    HW2 6471  14.798   1.470   8.722
68192SOL     OW 6472  13.400   9.438  10.360
68192SOL    HW1 6473  13.451   9.450  10.441
68192SOL    HW2 6474  13.449   9.486  10.294
68193SOL     OW 6475   4.921   9.112  10.010
68193SOL    HW1 6476   4.927   9.157  10.094
68193SOL    HW2 6477   5.012   9.096   9.985
68194SOL     OW 6478  10.756  14.810   3.900
68194SOL    HW1 6479  10.755  14.833   3.807
68194SOL    HW2 6480  10.752   0.012   3.946
68195SOL     OW 6481   2.787  13.819   4.138
68195SOL    HW1 6482   2.747  13.800   4.222
68195SOL    HW2 6483   2.789  13.735   4.092
68196SOL     OW 6484   7.709   7.928  14.870
68196SOL    HW1 6485   7.739   7.866  14.804
68196SOL    HW2 6486   7.727   7.886   0.071
68197SOL     OW 6487   3.960   7.193   5.946
68197SOL    HW1 6488   3.951   7.200   5.851
68197SOL    HW2 6489   3.895   7.127   5.971
68198SOL     OW 6490  14.185   2.754   7.737
68198SOL    HW1 6491  14.095   2.748   7.769
68198SOL    HW2 6492  14.201   2.670   7.693
68199SOL     OW 6493   1.351  13.873   4.823
68199SOL    HW1 6494   1.391  13.883   4.737
68199SOL    HW2 6495   1.424  13.877   4.885
68200SOL     OW 6496  14.723   5.111  11.729
68200SOL    HW1 6497  14.794   5.156  11.776
68200SOL    HW2 6498  14.649   5.114  11.789
68201SOL     OW 6499   6.219   3.394   1.139
68201SOL    HW1 6500   6.130   3.407   1.171
68201SOL    HW2 6501   6.270   3.372   1.217
68202SOL     OW 6502  10.896   6.728   7.887
68202SOL    HW1 6503  10.864   6.818   7.882
68202SOL    HW2 6504  10.991   6.736   7.887
68203SOL     OW 6505   0.629   0.680  14.206
68203SOL    HW1 6506   0.538   0.706  14.215
68203SOL    HW2 6507   0.635   0.598  14.255
68204SOL     OW 6508   7.835   9.099  12.157
68204SOL    HW1 6509   7.754   9.091  12.208
68204SOL    HW2 6510   7.808   9.143  12.076
68205SOL     OW 6511   3.975   6.939   7.281
68205SOL    HW1 6512   3.985   6.966   7.373
68205SOL    HW2 6513   3.917   7.005   7.243
68206SOL     OW 6514   3.742   0.006   4.222
68206SOL    HW1 6515   3.677  14.856   4.160
68206SOL    HW2 6516   3.776   0.087   4.183
68207SOL     OW 6517  10.307   4.691   8.917
68207SOL    HW1 6518  10.307   4.643   8.834
68207SOL    HW2 6519  10.273   4.628   8.980
68208SOL     OW 6520   0.098   8.192   5.250
68208SOL    HW1 6521   0.066   8.264   5.303
68208SOL    HW2 6522   0.024   8.169   5.194
68209SOL     OW 6523   5.906   1.939   8.236
68209SOL    HW1 6524   5.925   1.880   8.162
68209SOL    HW2 6525   5.969   2.010   8.226
68210SOL     OW 6526   0.089   4.435   8.816
68210SOL    HW1 6527   0.176   4.402   8.792
68210SOL    HW2 6528   0.028   4.373   8.776
68211SOL     OW 6529  10.987   2.459   9.568
68211SOL    HW1 6530  11.058   2.426   9.624
68211SOL    HW2 6531  10.986   2.400   9.493
68212SOL     OW 6532  13.055   4.406   9.345
68212SOL    HW1 6533  13.056   4.337   9.411
68212SOL    HW2 6534  13.097   4.481   9.387
68213SOL     OW 6535   6.157  10.110   2.583
68213SOL    HW1 6536   6.153  10.066   2.498
68213SOL    HW2 6537   6.119  10.196   2.568
68214SOL     OW 6538  14.863   3.052  11.246
68214SOL    HW1 6539  14.811   3.062  11.326
68214SOL    HW2 6540  14.816   2.986  11.195
68215SOL     OW 6541   1.186  11.833  13.664
68215SOL    HW1 6542   1.188  11.798  13.574
68215SOL    HW2 6543   1.275  11.819  13.697
68216SOL     OW 6544  11.107  11.887   7.326
68216SOL    HW1 6545  11.111  11.834   7.406
68216SOL    HW2 6546  11.050  11.837   7.267
68217SOL     OW 6547   8.425   5.725  11.836
68217SOL    HW1 6548   8.476   5.659  11.788
68217SOL    HW2 6549   8.399   5.682  11.917
68218SOL     OW 6550   0.838  13.214   1.317
68218SOL    HW1 6551   0.755  13.168   1.307
68218SOL    HW2 6552   0.902  13.157   1.274
68219SOL     OW 6553   6.431  13.798   7.457
68219SOL    HW1 6554   6.351  13.755   7.490
68219SOL    HW2 6555   6.502  13.740   7.485
68220SOL     OW 6556  10.448   5.280   8.159
68220SOL    HW1 6557  10.448   5.363   8.207
68220SOL    HW2 6558  10.401   5.298   8.078
68221SOL     OW 6559   5.150   1.783  11.868
68221SOL    HW1 6560   5.177   1.859  11.920
68221SOL    HW2 6561   5.231   1.737  11.848
68222SOL     OW 6562  13.699   1.967   4.015
68222SOL    HW1 6563  13.763   2.007   3.956
68222SOL    HW2 6564  13.619   2.017   3.999
68223SOL     OW 6565  12.752   1.255   3.534
68223SOL    HW1 6566  12.791   1.170   3.514
68223SOL    HW2 6567  12.797   1.284   3.613
68224SOL     OW 6568   3.831   8.205   9.035
68224SOL    HW1 6569   3.820   8.192   9.129
68224SOL    HW2 6570   3.850   8.299   9.025
68225SOL     OW 6571   1.830   2.688   7.894
68225SOL    HW1 6572   1.838   2.617   7.830
68225SOL    HW2 6573   1.773   2.753   7.851
68226SOL     OW 6574   4.007  11.917   6.278
68226SOL    HW1 6575   3.982  11.832   6.315
68226SOL    HW2 6576   4.077  11.948   6.335
68227SOL     OW 6577  14.557  10.712   9.126
68227SOL    HW1 6578  14.498  10.636   9.123
68227SOL    HW2 6579  14.570  10.735   9.034
68228SOL     OW 6580   2.827   8.033  13.905
68228SOL    HW1 6581   2.753   7.980  13.935
68228SOL    HW2 6582   2.869   8.064  13.986
68229SOL     OW 6583   0.604  14.012  13.210
68229SOL    HW1 6584   0.527  14.050  13.252
68229SOL    HW2 6585   0.676  14.027  13.271
68230SOL     OW 6586   5.070  13.982   6.778
68230SOL    HW1 6587   5.091  14.068   6.741
68230SOL    HW2 6588   5.149  13.955   6.825
68231SOL     OW 6589  12.432   9.925   9.002
68231SOL    HW1 6590  12.390   9.942   9.086
68231SOL    HW2 6591  12.380   9.973   8.938
68232SOL     OW 6592   7.488  12.381   6.265
68232SOL    HW1 6593   7.395  12.383   6.241
68232SOL    HW2 6594   7.508  12.471   6.288
68233SOL     OW 6595  14.486  11.835  10.174
68233SOL    HW1 6596  14.545  11.851  10.101
68233SOL    HW2 6597  14.399  11.851  10.137
68234SOL     OW 6598   6.155   0.254   0.951
68234SOL    HW1 6599   6.226   0.318   0.958
68234SOL    HW2 6600   6.087   0.287   1.010
68235SOL     OW 6601  11.956   5.940   1.017
68235SOL    HW1 6602  12.011   6.015   1.041
68235SOL    HW2 6603  12.007   5.863   1.042
68236SOL     OW 6604  11.080   2.632   2.967
68236SOL    HW1 6605  11.160   2.685   2.967
68236SOL    HW2 6606  11.092   2.570   2.895
68237SOL     OW 6607   9.991  12.006   6.357
68237SOL    HW1 6608   9.928  12.058   6.408
68237SOL    HW2 6609   9.992  12.048   6.271
68238SOL     OW 6610  10.276   1.564  11.450
68238SOL    HW1 6611  10.302   1.504  11.380
68238SOL    HW2 6612  10.231   1.508  11.514
68239SOL     OW 6613   5.977   5.796  14.293
68239SOL    HW1 6614   5.938   5.826  14.211
68239SOL    HW2 6615   6.064   5.836  14.294
68240SOL     OW 6616   6.837   0.369  12.844
68240SOL    HW1 6617   6.911   0.309  12.857
68240SOL    HW2 6618   6.851   0.406  12.757
68241SOL     OW 6619   9.196   9.452  14.250
68241SOL    HW1 6620   9.250   9.516  14.202
68241SOL    HW2 6621   9.179   9.383  14.186
68242SOL     OW 6622  11.777   8.620   2.159
68242SOL    HW1 6623  11.831   8.557   2.110
68242SOL    HW2 6624  11.784   8.701   2.109
68243SOL     OW 6625  12.604  10.242  13.516
68243SOL    HW1 6626  12.527  10.209  13.563
68243SOL    HW2 6627  12.591  10.214  13.426
68244SOL     OW 6628   6.441   1.177   2.464
68244SOL    HW1 6629   6.431   1.232   2.386
68244SOL    HW2 6630   6.376   1.211   2.526
68245SOL     OW 6631  10.590   3.494   5.716
68245SOL    HW1 6632  10.603   3.482   5.622
68245SOL    HW2 6633  10.597   3.405   5.752
68246SOL     OW 6634   4.906   1.378  12.521
68246SOL    HW1 6635   4.827   1.378  12.576
68246SOL    HW2 6636   4.957   1.452  12.553
68247SOL     OW 6637  11.975   1.511   3.095
68247SOL    HW1 6638  11.904   1.543   3.150
68247SOL    HW2 6639  11.931   1.479   3.016
68248SOL     OW 6640   2.113  10.545  10.459
68248SOL    HW1 6641   2.112  10.588  10.545
68248SOL    HW2 6642   2.077  10.610  10.399
68249SOL     OW 6643   7.335  14.714  13.697
68249SOL    HW1 6644   7.307  14.726  13.788
68249SOL    HW2 6645   7.312  14.797  13.655
68250SOL     OW 6646  13.753  13.561   3.050
68250SOL    HW1 6647  13.665  13.598   3.049
68250SOL    HW2 6648  13.778  13.560   3.143
68251SOL     OW 6649   8.916   5.729   0.160
68251SOL    HW1 6650   8.997   5.762   0.198
68251SOL    HW2 6651   8.865   5.808   0.141
68252SOL     OW 6652   4.019   0.370   1.482
68252SOL    HW1 6653   3.996   0.280   1.460
68252SOL    HW2 6654   3.984   0.422   1.409
68253SOL     OW 6655   4.442   5.037   4.118
68253SOL    HW1 6656   4.531   5.005   4.110
68253SOL    HW2 6657   4.388   4.968   4.080
68254SOL     OW 6658   8.842   9.696  10.569
68254SOL    HW1 6659   8.882   9.624  10.521
68254SOL    HW2 6660   8.779   9.654  10.628
68255SOL     OW 6661  10.926  10.236   0.440
68255SOL    HW1 6662  10.905  10.330   0.440
68255SOL    HW2 6663  10.893  10.205   0.524
68256SOL     OW 6664   0.497  11.942   1.935
68256SOL    HW1 6665   0.514  11.918   2.026
68256SOL    HW2 6666   0.473  11.860   1.892
68257SOL     OW 6667   4.408   3.812  13.392
68257SOL    HW1 6668   4.452   3.891  13.360
68257SOL    HW2 6669   4.349   3.844  13.461
68258SOL     OW 6670   1.357   2.592   7.472
68258SOL    HW1 6671   1.403   2.626   7.548
68258SOL    HW2 6672   1.264   2.605   7.492
68259SOL     OW 6673   7.104   3.741   6.796
68259SOL    HW1 6674   7.156   3.778   6.867
68259SOL    HW2 6675   7.018   3.725   6.835
68260SOL     OW 6676   9.842   0.759   1.236
68260SOL    HW1 6677   9.805   0.671   1.244
68260SOL    HW2 6678   9.782   0.815   1.285
68261SOL     OW 6679   3.893   8.180   5.433
68261SOL    HW1 6680   3.798   8.173   5.420
68261SOL    HW2 6681   3.904   8.172   5.528
68262SOL     OW 6682   4.365   0.230   4.590
68262SOL    HW1 6683   4.289   0.176   4.570
68262SOL    HW2 6684   4.330   0.304   4.639
68263SOL     OW 6685  11.142   9.159   2.690
68263SOL    HW1 6686  11.115   9.077   2.649
68263SOL    HW2 6687  11.062   9.211   2.695
68264SOL     OW 6688   4.300   4.637   5.928
68264SOL    HW1 6689   4.394   4.643   5.912
68264SOL    HW2 6690   4.271   4.564   5.872
68265SOL     OW 6691  12.987   0.847   9.152
68265SOL    HW1 6692  13.032   0.874   9.232
68265SOL    HW2 6693  13.047   0.873   9.082
68266SOL     OW 6694   8.924   0.630   9.574
68266SOL    HW1 6695   8.950   0.722   9.578
68266SOL    HW2 6696   8.969   0.596   9.497
68267SOL     OW 6697  10.683   8.562  11.613
68267SOL    HW1 6698  10.636   8.479  11.606
68267SOL    HW2 6699  10.692   8.593  11.523
68268SOL     OW 6700   7.476   5.031  13.825
68268SOL    HW1 6701   7.528   5.110  13.835
68268SOL    HW2 6702   7.422   5.047  13.748
68269SOL     OW 6703   3.770   6.609   7.007
68269SOL    HW1 6704   3.829   6.609   6.932
68269SOL    HW2 6705   3.753   6.702   7.024
68270SOL     OW 6706   5.246   4.837  13.415
68270SOL    HW1 6707   5.281   4.752  13.387
68270SOL    HW2 6708   5.284   4.900  13.355
68271SOL     OW 6709   4.872   9.989   5.093
68271SOL    HW1 6710   4.781  10.003   5.068
68271SOL    HW2 6711   4.890   9.898   5.070
68272SOL     OW 6712  11.231   5.087  11.664
68272SOL    HW1 6713  11.167   5.022  11.635
68272SOL    HW2 6714  11.178   5.158  11.701
68273SOL     OW 6715   4.140   5.498   3.262
68273SOL    HW1 6716   4.208   5.565   3.257
68273SOL    HW2 6717   4.064   5.538   3.219
68274SOL     OW 6718   8.170   0.900   6.630
68274SOL    HW1 6719   8.233   0.971   6.622
68274SOL    HW2 6720   8.184   0.847   6.551
68275SOL     OW 6721   2.954   9.285   7.356
68275SOL    HW1 6722   3.040   9.245   7.341
68275SOL    HW2 6723   2.903   9.262   7.277
68276SOL     OW 6724   9.847   6.685   8.659
68276SOL    HW1 6725   9.831   6.593   8.679
68276SOL    HW2 6726   9.776   6.732   8.703
68277SOL     OW 6727  11.006  14.104   8.648
68277SOL    HW1 6728  11.039  14.021   8.614
68277SOL    HW2 6729  11.009  14.094   8.743
68278SOL     OW 6730   1.358   3.825  14.159
68278SOL    HW1 6731   1.417   3.843  14.233
68278SOL    HW2 6732   1.271   3.847  14.192
68279SOL     OW 6733  14.271  11.021   3.863
68279SOL    HW1 6734  14.342  10.990   3.919
68279SOL    HW2 6735  14.215  10.944   3.850
68280SOL     OW 6736   5.150   3.697   8.679
68280SOL    HW1 6737   5.109   3.624   8.725
68280SOL    HW2 6738   5.086   3.767   8.684
68281SOL     OW 6739  12.491  10.269  14.441
68281SOL    HW1 6740  12.528  10.324  14.372
68281SOL    HW2 6741  12.432  10.209  14.394
68282SOL     OW 6742   5.667   7.508   8.500
68282SOL    HW1 6743   5.644   7.567   8.429
68282SOL    HW2 6744   5.753   7.537   8.529
68283SOL     OW 6745   6.236   6.930   2.674
68283SOL    HW1 6746   6.257   6.837   2.681
68283SOL    HW2 6747   6.144   6.932   2.646
68284SOL     OW 6748   3.312  10.160   4.609
68284SOL    HW1 6749   3.311  10.076   4.653
68284SOL    HW2 6750   3.270  10.220   4.671
68285SOL     OW 6751  14.578   8.295   0.316
68285SOL    HW1 6752  14.633   8.257   0.384
68285SOL    HW2 6753  14.635   8.358   0.272
68286SOL     OW 6754   1.324   2.672  13.236
68286SOL    HW1 6755   1.343   2.579  13.247
68286SOL    HW2 6756   1.307   2.683  13.143
68287SOL     OW 6757   2.058   5.403  11.656
68287SOL    HW1 6758   2.015   5.368  11.578
68287SOL    HW2 6759   2.000   5.378  11.729
68288SOL     OW 6760   4.456   0.053   5.335
68288SOL    HW1 6761   4.518   0.097   5.393
68288SOL    HW2 6762   4.511   0.010   5.270
68289SOL     OW 6763   6.003   1.676  12.818
68289SOL    HW1 6764   6.046   1.593  12.800
68289SOL    HW2 6765   5.918   1.669  12.774
68290SOL     OW 6766   9.194  11.353   0.698
68290SOL    HW1 6767   9.268  11.292   0.697
68290SOL    HW2 6768   9.217  11.417   0.765
68291SOL     OW 6769  14.247  12.319   2.510
68291SOL    HW1 6770  14.320  12.266   2.543
68291SOL    HW2 6771  14.290  12.392   2.464
68292SOL     OW 6772   5.692  10.671  11.707
68292SOL    HW1 6773   5.697  10.761  11.675
68292SOL    HW2 6774   5.781  10.650  11.735
68293SOL     OW 6775  11.022   0.716   1.106
68293SOL    HW1 6776  11.072   0.797   1.115
68293SOL    HW2 6777  10.946   0.730   1.163
68294SOL     OW 6778   0.987  11.912   6.262
68294SOL    HW1 6779   1.075  11.929   6.295
68294SOL    HW2 6780   0.994  11.828   6.217
68295SOL     OW 6781   9.863  13.126  13.536
68295SOL    HW1 6782   9.807  13.048  13.526
68295SOL    HW2 6783   9.847  13.176  13.456
68296SOL     OW 6784  10.352   3.531   8.888
68296SOL    HW1 6785  10.286   3.481   8.937
68296SOL    HW2 6786  10.391   3.467   8.829
68297SOL     OW 6787   2.488  12.292  12.780
68297SOL    HW1 6788   2.473  12.199  12.763
68297SOL    HW2 6789   2.430  12.313  12.853
68298SOL     OW 6790   8.763   9.143   0.582
68298SOL    HW1 6791   8.809   9.074   0.631
68298SOL    HW2 6792   8.824   9.216   0.580
68299SOL     OW 6793   7.873   6.932  12.874
68299SOL    HW1 6794   7.793   6.884  12.855
68299SOL    HW2 6795   7.844   7.021  12.893
68300SOL     OW 6796   6.266  13.650   6.218
68300SOL    HW1 6797   6.205  13.578   6.201
68300SOL    HW2 6798   6.222  13.728   6.183
68301SOL     OW 6799  12.009   5.651   8.190
68301SOL    HW1 6800  11.972   5.652   8.279
68301SOL    HW2 6801  11.962   5.719   8.143
68302SOL     OW 6802   6.214   4.216   5.918
68302SOL    HW1 6803   6.250   4.205   6.006
68302SOL    HW2 6804   6.221   4.310   5.900
68303SOL     OW 6805   9.806  10.077  13.202
68303SOL    HW1 6806   9.803  10.089  13.107
68303SOL    HW2 6807   9.833  10.163  13.235
68304SOL     OW 6808   5.122  14.170   3.234
68304SOL    HW1 6809   5.199  14.226   3.240
68304SOL    HW2 6810   5.099  14.170   3.141
68305SOL     OW 6811   2.330   5.033   2.561
68305SOL    HW1 6812   2.312   5.017   2.469
68305SOL    HW2 6813   2.276   4.970   2.608
68306SOL     OW 6814   6.414   1.080  13.438
68306SOL    HW1 6815   6.348   1.149  13.434
68306SOL    HW2 6816   6.450   1.086  13.526
68307SOL     OW 6817   4.688  14.258  14.045
68307SOL    HW1 6818   4.615  14.227  13.992
68307SOL    HW2 6819   4.710  14.343  14.007
68308SOL     OW 6820   1.244   9.676   0.352
68308SOL    HW1 6821   1.204   9.739   0.292
68308SOL    HW2 6822   1.335   9.671   0.325
68309SOL     OW 6823   2.377   3.109  11.042
68309SOL    HW1 6824   2.357   3.182  10.983
68309SOL    HW2 6825   2.385   3.150  11.129
68310SOL     OW 6826   6.885  12.868   3.557
68310SOL    HW1 6827   6.928  12.807   3.616
68310SOL    HW2 6828   6.815  12.906   3.609
68311SOL     OW 6829   9.072   0.249   8.933
68311SOL    HW1 6830   8.994   0.300   8.912
68311SOL    HW2 6831   9.145   0.307   8.912
68312SOL     OW 6832   5.442   1.535   7.394
68312SOL    HW1 6833   5.440   1.587   7.474
68312SOL    HW2 6834   5.386   1.459   7.414
68313SOL     OW 6835   2.530  12.081   6.127
68313SOL    HW1 6836   2.488  12.055   6.208
68313SOL    HW2 6837   2.561  12.170   6.143
68314SOL     OW 6838  11.928  10.386   3.956
68314SOL    HW1 6839  11.965  10.455   4.011
68314SOL    HW2 6840  11.923  10.309   4.013
68315SOL     OW 6841   9.125   6.220   2.655
68315SOL    HW1 6842   9.029   6.223   2.654
68315SOL    HW2 6843   9.147   6.147   2.597
68316SOL     OW 6844   7.958   6.221   0.063
68316SOL    HW1 6845   8.037   6.275   0.055
68316SOL    HW2 6846   7.886   6.285   0.066
68317SOL     OW 6847   0.747   3.858  10.033
68317SOL    HW1 6848   0.653   3.871  10.046
68317SOL    HW2 6849   0.787   3.891  10.113
68318SOL     OW 6850  10.070   0.028  10.978
68318SOL    HW1 6851  10.094  14.880  11.065
68318SOL    HW2 6852   9.994  14.857  10.953
68319SOL     OW 6853   9.670   0.164   6.302
68319SOL    HW1 6854   9.690   0.118   6.383
68319SOL    HW2 6855   9.751   0.158   6.251
68320SOL     OW 6856  14.706   2.010   4.783
68320SOL    HW1 6857  14.797   2.021   4.756
68320SOL    HW2 6858  14.707   2.028   4.877
68321SOL     OW 6859   0.973   9.359  14.225
68321SOL    HW1 6860   1.032   9.421  14.181
68321SOL    HW2 6861   0.980   9.382  14.318
68322SOL     OW 6862   5.423   2.323   5.131
68322SOL    HW1 6863   5.488   2.380   5.174
68322SOL    HW2 6864   5.373   2.382   5.075
68323SOL     OW 6865   1.051   9.635   7.062
68323SOL    HW1 6866   1.045   9.598   7.150
68323SOL    HW2 6867   0.966   9.677   7.047
68324SOL     OW 6868   2.578   6.089   9.384
68324SOL    HW1 6869   2.610   6.167   9.429
68324SOL    HW2 6870   2.601   6.017   9.442
68325SOL     OW 6871   9.450   0.253  10.409
68325SOL    HW1 6872   9.450   0.220  10.499
68325SOL    HW2 6873   9.378   0.206  10.366
68326SOL     OW 6874   0.745  10.666  13.931
68326SOL    HW1 6875   0.741  10.669  13.835
68326SOL    HW2 6876   0.833  10.696  13.952
68327SOL     OW 6877  14.466  12.470   1.589
68327SOL    HW1 6878  14.481  12.382   1.554
68327SOL    HW2 6879  14.552  12.511   1.586
68328SOL     OW 6880  10.408   8.952   4.664
68328SOL    HW1 6881  10.342   8.904   4.716
68328SOL    HW2 6882  10.489   8.903   4.679
68329SOL     OW 6883  12.271   1.385  14.653
68329SOL    HW1 6884  12.221   1.318  14.605
68329SOL    HW2 6885  12.357   1.385  14.611
68330SOL     OW 6886   9.298   5.831   0.110
68330SOL    HW1 6887   9.312   5.752   0.162
68330SOL    HW2 6888   9.383   5.877   0.112
68331SOL     OW 6889   1.432   7.052   1.789
68331SOL    HW1 6890   1.475   7.137   1.800
68331SOL    HW2 6891   1.376   7.043   1.866
68332SOL     OW 6892   0.397   1.416  10.446
68332SOL    HW1 6893   0.340   1.390  10.518
68332SOL    HW2 6894   0.361   1.370  10.370
68333SOL     OW 6895   4.485  13.346   4.574
68333SOL    HW1 6896   4.497  13.407   4.648
68333SOL    HW2 6897   4.392  13.351   4.554
68334SOL     OW 6898   7.471   3.418  14.734
68334SOL    HW1 6899   7.412   3.491  14.754
68334SOL    HW2 6900   7.541   3.457  14.682
68335SOL     OW 6901   9.893   4.454   9.203
68335SOL    HW1 6902   9.972   4.399   9.204
68335SOL    HW2 6903   9.821   4.393   9.218
68336SOL     OW 6904   6.311   3.932  14.370
68336SOL    HW1 6905   6.365   3.897  14.298
68336SOL    HW2 6906   6.320   3.867  14.440
68337SOL     OW 6907   0.629   9.460   6.139
68337SOL    HW1 6908   0.593   9.503   6.216
68337SOL    HW2 6909   0.694   9.523   6.106
68338SOL     OW 6910   0.261   0.853   8.154
68338SOL    HW1 6911   0.209   0.810   8.222
68338SOL    HW2 6912   0.349   0.859   8.191
68339SOL     OW 6913   0.842   1.396   9.091
68339SOL    HW1 6914   0.747   1.392   9.103
68339SOL    HW2 6915   0.853   1.428   9.002
68340SOL     OW 6916   2.706   8.183   7.217
68340SOL    HW1 6917   2.749   8.222   7.294
68340SOL    HW2 6918   2.765   8.114   7.189
68341SOL     OW 6919  12.107   7.270   3.298
68341SOL    HW1 6920  12.139   7.187   3.264
68341SOL    HW2 6921  12.011   7.264   3.291
68342SOL     OW 6922  12.799   5.322   5.770
68342SOL    HW1 6923  12.825   5.386   5.836
68342SOL    HW2 6924  12.704   5.315   5.778
68343SOL     OW 6925   9.426   3.185   5.419
68343SOL    HW1 6926   9.434   3.280   5.422
68343SOL    HW2 6927   9.332   3.169   5.408
68344SOL     OW 6928   2.636  10.055  12.130
68344SOL    HW1 6929   2.664   9.976  12.176
68344SOL    HW2 6930   2.611  10.115  12.199
68345SOL     OW 6931  14.303  13.525   4.461
68345SOL    HW1 6932  14.237  13.462   4.432
68345SOL    HW2 6933  14.380  13.505   4.408
68346SOL     OW 6934   2.175   9.397   5.589
68346SOL    HW1 6935   2.125   9.474   5.561
68346SOL    HW2 6936   2.164   9.395   5.684
68347SOL     OW 6937   0.790  12.119   0.080
68347SOL    HW1 6938   0.826  12.208   0.090
68347SOL    HW2 6939   0.717  12.130   0.019
68348SOL     OW 6940  12.353   7.899  10.836
68348SOL    HW1 6941  12.362   7.909  10.741
68348SOL    HW2 6942  12.440   7.921  10.871
68349SOL     OW 6943  10.130   9.181   2.713
68349SOL    HW1 6944  10.095   9.145   2.631
68349SOL    HW2 6945  10.093   9.269   2.717
68350SOL     OW 6946  10.278  10.677   0.419
68350SOL    HW1 6947  10.311  10.767   0.418
68350SOL    HW2 6948  10.195  10.681   0.372
68351SOL     OW 6949   4.446   2.757   3.752
68351SOL    HW1 6950   4.458   2.684   3.692
68351SOL    HW2 6951   4.434   2.715   3.838
68352SOL     OW 6952  14.773   7.921   8.466
68352SOL    HW1 6953  14.805   7.834   8.443
68352SOL    HW2 6954  14.704   7.905   8.530
68353SOL     OW 6955  13.549   6.848  13.499
68353SOL    HW1 6956  13.575   6.772  13.447
68353SOL    HW2 6957  13.495   6.901  13.441
68354SOL     OW 6958   6.066  14.616  12.285
68354SOL    HW1 6959   6.001  14.677  12.318
68354SOL    HW2 6960   6.133  14.612  12.353
68355SOL     OW 6961   8.647  11.787  11.951
68355SOL    HW1 6962   8.731  11.750  11.924
68355SOL    HW2 6963   8.670  11.861  12.007
68356SOL     OW 6964   6.453   0.495   0.412
68356SOL    HW1 6965   6.437   0.557   0.341
68356SOL    HW2 6966   6.480   0.414   0.368
68357SOL     OW 6967   4.687   0.041  12.509
68357SOL    HW1 6968   4.715   0.002  12.426
68357SOL    HW2 6969   4.760   0.023  12.569
68358SOL     OW 6970   0.296   0.436  13.960
68358SOL    HW1 6971   0.303   0.341  13.953
68358SOL    HW2 6972   0.278   0.466  13.871
68359SOL     OW 6973   7.414   3.885   6.585
68359SOL    HW1 6974   7.371   3.967   6.611
68359SOL    HW2 6975   7.404   3.882   6.490
68360SOL     OW 6976  12.180   9.495  14.266
68360SOL    HW1 6977  12.132   9.460  14.341
68360SOL    HW2 6978  12.201   9.585  14.290
68361SOL     OW 6979   3.542   8.202   3.638
68361SOL    HW1 6980   3.568   8.260   3.566
68361SOL    HW2 6981   3.621   8.195   3.692
68362SOL     OW 6982   0.415   9.057   6.072
68362SOL    HW1 6983   0.358   9.107   6.014
68362SOL    HW2 6984   0.491   9.114   6.085
68363SOL     OW 6985   1.528   4.063  14.298
68363SOL    HW1 6986   1.515   4.057  14.393
68363SOL    HW2 6987   1.622   4.072  14.287
68364SOL     OW 6988   3.317   9.739  12.731
68364SOL    HW1 6989   3.358   9.737  12.817
68364SOL    HW2 6990   3.272   9.655  12.723
68365SOL     OW 6991   8.671   3.041  12.368
68365SOL    HW1 6992   8.614   3.099  12.318
68365SOL    HW2 6993   8.719   2.991  12.301
68366SOL     OW 6994  11.765   0.008  14.856
68366SOL    HW1 6995  11.815   0.074   0.021
68366SOL    HW2 6996  11.781   0.027  14.763
68367SOL     OW 6997   1.757   1.288   4.053
68367SOL    HW1 6998   1.676   1.329   4.086
68367SOL    HW2 6999   1.802   1.359   4.007
68368SOL     OW 7000  13.573  10.279   4.076
68368SOL    HW1 7001  13.493  10.294   4.127
68368SOL    HW2 7002  13.541  10.250   3.991
68369SOL     OW 7003   5.345  13.493  13.697
68369SOL    HW1 7004   5.300  13.483  13.613
68369SOL    HW2 7005   5.288  13.450  13.761
68370SOL     OW 7006   0.299   6.748   8.530
68370SOL    HW1 7007   0.338   6.661   8.539
68370SOL    HW2 7008   0.258   6.765   8.614
68371SOL     OW 7009   1.525   1.263  13.848
68371SOL    HW1 7010   1.492   1.297  13.765
68371SOL    HW2 7011   1.446   1.244  13.899
68372SOL     OW 7012  10.920   7.151  12.103
68372SOL    HW1 7013  10.935   7.246  12.097
68372SOL    HW2 7014  10.915   7.134  12.197
68373SOL     OW 7015   1.610  13.169   4.855
68373SOL    HW1 7016   1.631  13.078   4.832
68373SOL    HW2 7017   1.619  13.217   4.772
68374SOL     OW 7018   6.997   8.377   7.243
68374SOL    HW1 7019   6.978   8.470   7.253
68374SOL    HW2 7020   7.086   8.374   7.209
68375SOL     OW 7021  11.012  14.876   3.717
68375SOL    HW1 7022  10.978  14.846   3.633
68375SOL    HW2 7023  11.054   0.078   3.697
68376SOL     OW 7024   5.804  10.681   6.637
68376SOL    HW1 7025   5.813  10.591   6.608
68376SOL    HW2 7026   5.893  10.708   6.660
68377SOL     OW 7027   3.561   0.891  12.158
68377SOL    HW1 7028   3.479   0.853  12.190
68377SOL    HW2 7029   3.614   0.903  12.237
68378SOL     OW 7030  14.433  14.340   0.952
68378SOL    HW1 7031  14.377  14.288   0.894
68378SOL    HW2 7032  14.468  14.409   0.895
68379SOL     OW 7033  14.422   3.087   2.036
68379SOL    HW1 7034  14.512   3.078   2.003
68379SOL    HW2 7035  14.373   3.018   1.991
68380SOL     OW 7036   4.826   7.541   3.015
68380SOL    HW1 7037   4.899   7.567   2.958
68380SOL    HW2 7038   4.820   7.611   3.080
68381SOL     OW 7039   0.400   2.780   5.287
68381SOL    HW1 7040   0.324   2.829   5.317
68381SOL    HW2 7041   0.473   2.816   5.336
68382SOL     OW 7042   8.733   7.322   2.677
68382SOL    HW1 7043   8.811   7.361   2.636
68382SOL    HW2 7044   8.713   7.381   2.750
68383SOL     OW 7045   4.990   5.352   3.407
68383SOL    HW1 7046   5.012   5.352   3.314
68383SOL    HW2 7047   5.034   5.274   3.442
68384SOL     OW 7048  10.457   4.618   0.629
68384SOL    HW1 7049  10.529   4.557   0.610
68384SOL    HW2 7050  10.384   4.585   0.578
68385SOL     OW 7051  12.828   5.868   9.141
68385SOL    HW1 7052  12.924   5.876   9.147
68385SOL    HW2 7053  12.810   5.777   9.166
68386SOL     OW 7054   4.945  11.670   6.150
68386SOL    HW1 7055   4.972  11.737   6.213
68386SOL    HW2 7056   4.958  11.711   6.065
68387SOL     OW 7057   5.250  13.321  12.693
68387SOL    HW1 7058   5.268  13.385  12.624
68387SOL    HW2 7059   5.264  13.236  12.651
68388SOL     OW 7060   2.721   8.450  14.766
68388SOL    HW1 7061   2.788   8.475  14.703
68388SOL    HW2 7062   2.770   8.410  14.838
68389SOL     OW 7063  13.188  11.298  12.752
68389SOL    HW1 7064  13.114  11.242  12.777
68389SOL    HW2 7065  13.151  11.361  12.691
68390SOL     OW 7066   3.762  12.940  13.369
68390SOL    HW1 7067   3.786  12.972  13.283
68390SOL    HW2 7068   3.839  12.893  13.401
68391SOL     OW 7069   2.608   8.106  10.866
68391SOL    HW1 7070   2.684   8.128  10.920
68391SOL    HW2 7071   2.574   8.190  10.837
68392SOL     OW 7072  11.795  14.632   6.541
68392SOL    HW1 7073  11.780  14.695   6.611
68392SOL    HW2 7074  11.855  14.676   6.481
68393SOL     OW 7075   1.568  11.073   6.816
68393SOL    HW1 7076   1.494  11.091   6.874
68393SOL    HW2 7077   1.530  11.076   6.728
68394SOL     OW 7078  10.122   6.759   4.748
68394SOL    HW1 7079  10.044   6.739   4.697
68394SOL    HW2 7080  10.136   6.681   4.801
68395SOL     OW 7081  12.241   4.088   6.716
68395SOL    HW1 7082  12.334   4.076   6.734
68395SOL    HW2 7083  12.213   4.005   6.677
68396SOL     OW 7084   9.363   9.393   5.799
68396SOL    HW1 7085   9.322   9.455   5.739
68396SOL    HW2 7086   9.452   9.383   5.764
68397SOL     OW 7087   4.635  14.507   5.584
68397SOL    HW1 7088   4.594  14.473   5.664
68397SOL    HW2 7089   4.659  14.428   5.535
68398SOL     OW 7090   6.266   0.269   3.615
68398SOL    HW1 7091   6.287   0.268   3.708
68398SOL    HW2 7092   6.177   0.302   3.610
68399SOL     OW 7093   8.559  11.763   5.281
68399SOL    HW1 7094   8.619  11.784   5.353
68399SOL    HW2 7095   8.577  11.831   5.215
68400SOL     OW 7096  14.853   1.576   3.857
68400SOL    HW1 7097   0.061   1.547   3.874
68400SOL    HW2 7098  14.863   1.658   3.810
68401SOL     OW 7099  11.892   0.924   2.198
68401SOL    HW1 7100  11.881   0.883   2.284
68401SOL    HW2 7101  11.890   0.850   2.136
68402SOL     OW 7102   7.271  11.701  13.065
68402SOL    HW1 7103   7.361  11.723  13.089
68402SOL    HW2 7104   7.242  11.641  13.134
68403SOL     OW 7105   0.152   9.145   1.970
68403SOL    HW1 7106   0.202   9.074   2.010
68403SOL    HW2 7107   0.168   9.221   2.026
68404SOL     OW 7108  14.622   9.694   2.306
68404SOL    HW1 7109  14.594   9.627   2.243
68404SOL    HW2 7110  14.620   9.650   2.391
68405SOL     OW 7111   8.106  11.491  12.781
68405SOL    HW1 7112   8.032  11.513  12.837
68405SOL    HW2 7113   8.183  11.514  12.833
68406SOL     OW 7114   7.628  11.927  12.766
68406SOL    HW1 7115   7.560  11.920  12.699
68406SOL    HW2 7116   7.695  11.864  12.738
68407SOL     OW 7117   7.352   2.735   9.904
68407SOL    HW1 7118   7.439   2.711   9.934
68407SOL    HW2 7119   7.362   2.822   9.866
68408SOL     OW 7120   4.477  10.102   0.583
68408SOL    HW1 7121   4.509  10.063   0.501
68408SOL    HW2 7122   4.482  10.197   0.568
68409SOL     OW 7123   2.305  10.555  10.872
68409SOL    HW1 7124   2.216  10.577  10.843
68409SOL    HW2 7125   2.362  10.597  10.808
68410SOL     OW 7126   2.019  13.754   9.470
68410SOL    HW1 7127   2.070  13.675   9.483
68410SOL    HW2 7128   1.929  13.728   9.488
68411SOL     OW 7129  10.661  13.771   5.701
68411SOL    HW1 7130  10.732  13.826   5.669
68411SOL    HW2 7131  10.644  13.710   5.629
68412SOL     OW 7132   1.722  12.331   2.163
68412SOL    HW1 7133   1.732  12.251   2.215
68412SOL    HW2 7134   1.810  12.365   2.153
68413SOL     OW 7135   0.582   2.813   7.560
68413SOL    HW1 7136   0.641   2.883   7.532
68413SOL    HW2 7137   0.510   2.858   7.605
68414SOL     OW 7138  13.691   9.721   3.025
68414SOL    HW1 7139  13.721   9.778   3.096
68414SOL    HW2 7140  13.763   9.659   3.012
68415SOL     OW 7141  11.638  13.528   2.925
68415SOL    HW1 7142  11.615  13.507   2.834
68415SOL    HW2 7143  11.695  13.604   2.918
68416SOL     OW 7144   8.091   6.479   2.629
68416SOL    HW1 7145   7.999   6.451   2.630
68416SOL    HW2 7146   8.140   6.398   2.613
68417SOL     OW 7147  11.366   3.342   7.089
68417SOL    HW1 7148  11.396   3.314   7.175
68417SOL    HW2 7149  11.272   3.326   7.090
68418SOL     OW 7150   1.670  11.390   8.700
68418SOL    HW1 7151   1.749  11.343   8.724
68418SOL    HW2 7152   1.634  11.343   8.625
68419SOL     OW 7153   4.404   1.345   8.002
68419SOL    HW1 7154   4.388   1.289   7.926
68419SOL    HW2 7155   4.480   1.306   8.046
68420SOL     OW 7156   8.014   8.607   2.118
68420SOL    HW1 7157   8.041   8.562   2.038
68420SOL    HW2 7158   7.963   8.682   2.088
68421SOL     OW 7159   3.576   0.160   1.844
68421SOL    HW1 7160   3.665   0.194   1.843
68421SOL    HW2 7161   3.541   0.180   1.757
68422SOL     OW 7162   1.686   0.754  12.468
68422SOL    HW1 7163   1.761   0.748  12.529
68422SOL    HW2 7164   1.682   0.667  12.428
68423SOL     OW 7165  10.553   1.591   2.270
68423SOL    HW1 7166  10.535   1.530   2.342
68423SOL    HW2 7167  10.467   1.625   2.246
68424SOL     OW 7168  10.629  10.586   8.264
68424SOL    HW1 7169  10.629  10.540   8.348
68424SOL    HW2 7170  10.610  10.518   8.199
68425SOL     OW 7171  13.829   9.285  14.199
68425SOL    HW1 7172  13.826   9.191  14.186
68425SOL    HW2 7173  13.772   9.321  14.131
68426SOL     OW 7174  12.567  13.390  12.771
68426SOL    HW1 7175  12.516  13.424  12.845
68426SOL    HW2 7176  12.511  13.324  12.731
68427SOL     OW 7177  12.549   6.320   4.368
68427SOL    HW1 7178  12.627   6.275   4.335
68427SOL    HW2 7179  12.546   6.402   4.318
68428SOL     OW 7180   0.772   5.689   5.187
68428SOL    HW1 7181   0.842   5.705   5.250
68428SOL    HW2 7182   0.692   5.689   5.240
68429SOL     OW 7183   0.563   3.138   5.007
68429SOL    HW1 7184   0.622   3.066   4.986
68429SOL    HW2 7185   0.591   3.168   5.093
68430SOL     OW 7186  13.069   3.593  13.782
68430SOL    HW1 7187  13.049   3.678  13.820
68430SOL    HW2 7188  13.028   3.529  13.841
68431SOL     OW 7189  12.644   8.589   6.988
68431SOL    HW1 7190  12.633   8.684   6.984
68431SOL    HW2 7191  12.561   8.554   6.958
68432SOL     OW 7192   9.004   0.347   1.573
68432SOL    HW1 7193   8.968   0.266   1.611
68432SOL    HW2 7194   8.957   0.358   1.491
68433SOL     OW 7195  11.330   8.480   6.088
68433SOL    HW1 7196  11.286   8.533   6.155
68433SOL    HW2 7197  11.281   8.498   6.008
68434SOL     OW 7198  14.590   1.022   3.555
68434SOL    HW1 7199  14.657   1.040   3.620
68434SOL    HW2 7200  14.639   0.995   3.477
68435SOL     OW 7201  11.863   0.913   0.840
68435SOL    HW1 7202  11.818   0.852   0.897
68435SOL    HW2 7203  11.859   0.873   0.753
68436SOL     OW 7204   4.405   9.222   8.265
68436SOL    HW1 7205   4.383   9.313   8.282
68436SOL    HW2 7206   4.326   9.186   8.224
68437SOL     OW 7207   6.218  13.463   9.924
68437SOL    HW1 7208   6.286  13.526   9.898
68437SOL    HW2 7209   6.158  13.514   9.978
68438SOL     OW 7210   3.011   9.368  12.478
68438SOL    HW1 7211   2.921   9.353  12.451
68438SOL    HW2 7212   3.011   9.455  12.517
68439SOL     OW 7213   9.777   9.534   6.386
68439SOL    HW1 7214   9.712   9.475   6.349
68439SOL    HW2 7215   9.765   9.617   6.338
68440SOL     OW 7216   6.632   5.645   0.210
68440SOL    HW1 7217   6.722   5.613   0.214
68440SOL    HW2 7218   6.584   5.578   0.160
68441SOL     OW 7219   3.310   1.566  14.216
68441SOL    HW1 7220   3.268   1.630  14.273
68441SOL    HW2 7221   3.377   1.525  14.271
68442SOL     OW 7222  11.621   6.635  12.607
68442SOL    HW1 7223  11.691   6.611  12.546
68442SOL    HW2 7224  11.545   6.584  12.578
68443SOL     OW 7225   9.643   4.720  10.797
68443SOL    HW1 7226   9.582   4.654  10.830
68443SOL    HW2 7227   9.726   4.673  10.788
68444SOL     OW 7228  10.164   7.140  10.763
68444SOL    HW1 7229  10.093   7.102  10.815
68444SOL    HW2 7230  10.120   7.206  10.709
68445SOL     OW 7231  10.072   0.308   0.447
68445SOL    HW1 7232  10.076   0.230   0.503
68445SOL    HW2 7233  10.128   0.372   0.491
68446SOL     OW 7234   4.696   8.718   7.097
68446SOL    HW1 7235   4.652   8.733   7.181
68446SOL    HW2 7236   4.766   8.783   7.095
68447SOL     OW 7237   3.735   0.262  14.260
68447SOL    HW1 7238   3.828   0.261  14.236
68447SOL    HW2 7239   3.694   0.198  14.202
68448SOL     OW 7240  12.305  11.603   2.579
68448SOL    HW1 7241  12.326  11.692   2.605
68448SOL    HW2 7242  12.241  11.574   2.644
68449SOL     OW 7243   2.575   0.665  13.943
68449SOL    HW1 7244   2.488   0.627  13.925
68449SOL    HW2 7245   2.604   0.620  14.022
68450SOL     OW 7246   2.209   2.747   4.936
68450SOL    HW1 7247   2.246   2.663   4.906
68450SOL    HW2 7248   2.232   2.809   4.867
68451SOL     OW 7249   7.078   2.922   8.998
68451SOL    HW1 7250   7.035   3.005   9.019
68451SOL    HW2 7251   7.009   2.857   9.010
68452SOL     OW 7252   0.751  12.779   4.118
68452SOL    HW1 7253   0.829  12.825   4.148
68452SOL    HW2 7254   0.785  12.708   4.063
68453SOL     OW 7255   0.945   9.435   9.140
68453SOL    HW1 7256   0.921   9.350   9.102
68453SOL    HW2 7257   0.881   9.449   9.209
68454SOL     OW 7258   4.202   6.546  12.776
68454SOL    HW1 7259   4.182   6.582  12.690
68454SOL    HW2 7260   4.283   6.591  12.803
68455SOL     OW 7261   5.658   5.342  10.730
68455SOL    HW1 7262   5.682   5.364  10.640
68455SOL    HW2 7263   5.565   5.320  10.725
68456SOL     OW 7264   5.439   1.292  12.943
68456SOL    HW1 7265   5.472   1.381  12.958
68456SOL    HW2 7266   5.518   1.240  12.925
68457SOL     OW 7267   0.896  12.356  13.922
68457SOL    HW1 7268   0.864  12.438  13.961
68457SOL    HW2 7269   0.968  12.384  13.865
68458SOL     OW 7270  11.232  13.502   9.505
68458SOL    HW1 7271  11.306  13.526   9.451
68458SOL    HW2 7272  11.155  13.515   9.449
68459SOL     OW 7273   9.129   9.018  14.444
68459SOL    HW1 7274   9.197   9.087  14.441
68459SOL    HW2 7275   9.174   8.942  14.480
68460SOL     OW 7276  13.391   3.886   2.275
68460SOL    HW1 7277  13.304   3.923   2.264
68460SOL    HW2 7278  13.423   3.923   2.356
68461SOL     OW 7279   8.684   9.682   1.195
68461SOL    HW1 7280   8.683   9.765   1.147
68461SOL    HW2 7281   8.668   9.706   1.286
68462SOL     OW 7282   1.575   3.385   3.567
68462SOL    HW1 7283   1.605   3.457   3.511
68462SOL    HW2 7284   1.482   3.403   3.581
68463SOL     OW 7285   6.984   5.251   4.699
68463SOL    HW1 7286   6.985   5.214   4.611
68463SOL    HW2 7287   7.044   5.325   4.694
68464SOL     OW 7288   0.666   0.164  13.066
68464SOL    HW1 7289   0.685   0.078  13.028
68464SOL    HW2 7290   0.598   0.148  13.131
68465SOL     OW 7291   6.852   1.337  12.896
68465SOL    HW1 7292   6.781   1.281  12.863
68465SOL    HW2 7293   6.888   1.379  12.818
68466SOL     OW 7294   1.224   5.563  14.478
68466SOL    HW1 7295   1.143   5.513  14.493
68466SOL    HW2 7296   1.201   5.624  14.408
68467SOL     OW 7297   6.855   5.844   1.940
68467SOL    HW1 7298   6.875   5.848   2.034
68467SOL    HW2 7299   6.818   5.930   1.920
68468SOL     OW 7300   4.461   5.525   1.231
68468SOL    HW1 7301   4.496   5.558   1.148
68468SOL    HW2 7302   4.529   5.545   1.295
68469SOL     OW 7303  12.921  11.618   2.434
68469SOL    HW1 7304  12.826  11.608   2.429
68469SOL    HW2 7305  12.934  11.691   2.495
68470SOL     OW 7306  12.040   7.174   6.670
68470SOL    HW1 7307  11.995   7.180   6.754
68470SOL    HW2 7308  12.101   7.248   6.671
68471SOL     OW 7309  11.295  12.141  11.382
68471SOL    HW1 7310  11.257  12.181  11.460
68471SOL    HW2 7311  11.230  12.077  11.353
68472SOL     OW 7312   0.608   3.322   7.593
68472SOL    HW1 7313   0.626   3.341   7.686
68472SOL    HW2 7314   0.516   3.344   7.582
68473SOL     OW 7315   3.374   6.574  10.028
68473SOL    HW1 7316   3.426   6.498  10.005
68473SOL    HW2 7317   3.303   6.540  10.082
68474SOL     OW 7318   2.788   8.147   0.380
68474SOL    HW1 7319   2.767   8.072   0.436
68474SOL    HW2 7320   2.775   8.224   0.437
68475SOL     OW 7321  10.875   6.132   0.714
68475SOL    HW1 7322  10.846   6.113   0.624
68475SOL    HW2 7323  10.969   6.117   0.713
68476SOL     OW 7324  13.396   2.545   5.394
68476SOL    HW1 7325  13.341   2.486   5.445
68476SOL    HW2 7326  13.448   2.487   5.338
68477SOL     OW 7327   9.370   2.139   4.311
68477SOL    HW1 7328   9.324   2.194   4.248
68477SOL    HW2 7329   9.336   2.167   4.396
68478SOL     OW 7330   9.385   9.754   7.661
68478SOL    HW1 7331   9.371   9.799   7.745
68478SOL    HW2 7332   9.330   9.803   7.599
68479SOL     OW 7333   0.492  10.700  13.065
68479SOL    HW1 7334   0.408  10.715  13.109
68479SOL    HW2 7335   0.498  10.770  13.001
68480SOL     OW 7336   9.643  14.560   4.489
68480SOL    HW1 7337   9.620  14.564   4.396
68480SOL    HW2 7338   9.570  14.604   4.533
68481SOL     OW 7339  10.829   4.556   5.709
68481SOL    HW1 7340  10.812   4.537   5.617
68481SOL    HW2 7341  10.924   4.561   5.716
68482SOL     OW 7342  11.815   1.363   3.866
68482SOL    HW1 7343  11.771   1.448   3.874
68482SOL    HW2 7344  11.869   1.356   3.945
68483SOL     OW 7345   3.219   7.985  14.777
68483SOL    HW1 7346   3.196   7.965  14.686
68483SOL    HW2 7347   3.299   8.037  14.771
68484SOL     OW 7348   9.978   4.053   7.863
68484SOL    HW1 7349   9.925   3.984   7.824
68484SOL    HW2 7350  10.030   4.087   7.791
68485SOL     OW 7351  13.209   0.230   6.121
68485SOL    HW1 7352  13.278   0.164   6.131
68485SOL    HW2 7353  13.153   0.218   6.197
68486SOL     OW 7354   8.037   3.728   6.062
68486SOL    HW1 7355   8.052   3.662   5.994
68486SOL    HW2 7356   8.097   3.704   6.133
68487SOL     OW 7357  14.174  10.859   9.456
68487SOL    HW1 7358  14.195  10.782   9.405
68487SOL    HW2 7359  14.111  10.907   9.403
68488SOL     OW 7360   7.951  14.101   1.898
68488SOL    HW1 7361   7.988  14.028   1.848
68488SOL    HW2 7362   7.897  14.148   1.835
68489SOL     OW 7363   0.233   3.378  12.901
68489SOL    HW1 7364   0.250   3.419  12.816
68489SOL    HW2 7365   0.211   3.288  12.880
68490SOL     OW 7366   0.204  12.818   8.517
68490SOL    HW1 7367   0.184  12.806   8.610
68490SOL    HW2 7368   0.272  12.885   8.515
68491SOL     OW 7369   0.957   4.474   8.820
68491SOL    HW1 7370   0.940   4.456   8.912
68491SOL    HW2 7371   0.872   4.463   8.778
68492SOL     OW 7372   1.313   5.438  12.825
68492SOL    HW1 7373   1.383   5.394  12.871
68492SOL    HW2 7374   1.233   5.395  12.854
68493SOL     OW 7375   7.787  14.180   3.813
68493SOL    HW1 7376   7.802  14.087   3.830
68493SOL    HW2 7377   7.852  14.224   3.868
68494SOL     OW 7378  10.932   1.951   5.167
68494SOL    HW1 7379  10.911   2.041   5.144
68494SOL    HW2 7380  10.899   1.899   5.094
68495SOL     OW 7381   8.108  13.509   6.526
68495SOL    HW1 7382   8.154  13.509   6.610
68495SOL    HW2 7383   8.101  13.417   6.502
68496SOL     OW 7384  10.077   6.222   9.380
68496SOL    HW1 7385  10.148   6.267   9.334
68496SOL    HW2 7386  10.122   6.163   9.441
68497SOL     OW 7387  14.730   8.348   6.533
68497SOL    HW1 7388  14.748   8.304   6.616
68497SOL    HW2 7389  14.814   8.352   6.488
68498SOL     OW 7390   3.186  13.666   9.838
68498SOL    HW1 7391   3.230  13.704   9.913
68498SOL    HW2 7392   3.154  13.742   9.788
68499SOL     OW 7393   7.366   1.374   1.495
68499SOL    HW1 7394   7.414   1.450   1.527
68499SOL    HW2 7395   7.335   1.400   1.408
68500SOL     OW 7396   2.221   4.188   6.146
68500SOL    HW1 7397   2.163   4.264   6.146
68500SOL    HW2 7398   2.298   4.217   6.196
68501SOL     OW 7399  14.830  14.265   1.025
68501SOL    HW1 7400   0.027  14.243   1.075
68501SOL    HW2 7401  14.758  14.235   1.079
68502SOL     OW 7402   6.778  12.796   3.965
68502SOL    HW1 7403   6.743  12.805   4.053
68502SOL    HW2 7404   6.798  12.703   3.956
68503SOL     OW 7405   1.106  13.247  14.044
68503SOL    HW1 7406   1.157  13.290  14.113
68503SOL    HW2 7407   1.043  13.193  14.091
68504SOL     OW 7408   5.320   1.763   1.444
68504SOL    HW1 7409   5.275   1.847   1.432
68504SOL    HW2 7410   5.298   1.737   1.533
68505SOL     OW 7411   6.317  11.262  11.999
68505SOL    HW1 7412   6.390  11.223  12.046
68505SOL    HW2 7413   6.305  11.348  12.040
68506SOL     OW 7414   9.471  13.089   1.387
68506SOL    HW1 7415   9.437  13.147   1.455
68506SOL    HW2 7416   9.566  13.093   1.396
68507SOL     OW 7417  13.097   8.492   0.878
68507SOL    HW1 7418  13.006   8.515   0.858
68507SOL    HW2 7419  13.091   8.416   0.936
68508SOL     OW 7420  11.687   1.438   1.403
68508SOL    HW1 7421  11.710   1.399   1.318
68508SOL    HW2 7422  11.728   1.381   1.468
68509SOL     OW 7423   0.762   5.540  14.123
68509SOL    HW1 7424   0.729   5.590  14.197
68509SOL    HW2 7425   0.736   5.450  14.141
68510SOL     OW 7426  10.613  10.475  10.277
68510SOL    HW1 7427  10.604  10.432  10.193
68510SOL    HW2 7428  10.614  10.569  10.256
68511SOL     OW 7429  12.213   5.907   7.116
68511SOL    HW1 7430  12.252   5.981   7.161
68511SOL    HW2 7431  12.128   5.940   7.086
68512SOL     OW 7432  13.070  10.356   9.483
68512SOL    HW1 7433  12.998  10.416   9.504
68512SOL    HW2 7434  13.120  10.350   9.564
68513SOL     OW 7435   0.574  13.507  12.359
68513SOL    HW1 7436   0.546  13.492  12.269
68513SOL    HW2 7437   0.649  13.449  12.371
68514SOL     OW 7438   0.539   4.280  11.060
68514SOL    HW1 7439   0.577   4.204  11.104
68514SOL    HW2 7440   0.450   4.252  11.037
68515SOL     OW 7441   7.256   0.787  11.503
68515SOL    HW1 7442   7.237   0.829  11.586
68515SOL    HW2 7443   7.344   0.751  11.513
68516SOL     OW 7444  14.795  13.695  10.650
68516SOL    HW1 7445  14.755  13.658  10.729
68516SOL    HW2 7446  14.788  13.789  10.662
68517SOL     OW 7447   8.660  11.713   3.009
68517SOL    HW1 7448   8.712  11.785   2.973
68517SOL    HW2 7449   8.571  11.728   2.975
68518SOL     OW 7450   2.753   3.584   7.724
68518SOL    HW1 7451   2.732   3.653   7.787
68518SOL    HW2 7452   2.771   3.507   7.779
68519SOL     OW 7453   0.579   4.778   6.390
68519SOL    HW1 7454   0.569   4.796   6.297
68519SOL    HW2 7455   0.633   4.849   6.423
68520SOL     OW 7456   9.478   0.955   9.007
68520SOL    HW1 7457   9.502   0.888   9.071
68520SOL    HW2 7458   9.422   1.016   9.055
68521SOL     OW 7459  14.816   4.351  14.128
68521SOL    HW1 7460  14.762   4.279  14.160
68521SOL    HW2 7461  14.784   4.368  14.039
68522SOL     OW 7462   5.847   8.524   6.744
68522SOL    HW1 7463   5.909   8.597   6.736
68522SOL    HW2 7464   5.840   8.509   6.838
68523SOL     OW 7465   3.174  13.516  11.004
68523SOL    HW1 7466   3.231  13.447  10.970
68523SOL    HW2 7467   3.162  13.576  10.930
68524SOL     OW 7468   6.671   2.151  14.023
68524SOL    HW1 7469   6.663   2.134  13.929
68524SOL    HW2 7470   6.751   2.203  14.031
68525SOL     OW 7471   1.918  11.847  11.529
68525SOL    HW1 7472   2.008  11.833  11.558
68525SOL    HW2 7473   1.906  11.785  11.457
68526SOL     OW 7474   1.517   6.208  13.160
68526SOL    HW1 7475   1.443   6.210  13.099
68526SOL    HW2 7476   1.585   6.159  13.115
68527SOL     OW 7477  11.905  10.065   9.047
68527SOL    HW1 7478  11.887   9.978   9.012
68527SOL    HW2 7479  11.840  10.121   9.005
68528SOL     OW 7480   3.058   4.031   1.963
68528SOL    HW1 7481   2.971   4.050   1.928
68528SOL    HW2 7482   3.117   4.047   1.889
68529SOL     OW 7483  10.863  10.412   4.310
68529SOL    HW1 7484  10.900  10.324   4.309
68529SOL    HW2 7485  10.781  10.403   4.262
68530SOL     OW 7486   4.484   8.333  12.061
68530SOL    HW1 7487   4.560   8.336  12.002
68530SOL    HW2 7488   4.521   8.314  12.147
68531SOL     OW 7489  11.117   1.251  10.541
68531SOL    HW1 7490  11.166   1.327  10.511
68531SOL    HW2 7491  11.137   1.183  10.476
68532SOL     OW 7492   1.569   0.737  14.205
68532SOL    HW1 7493   1.645   0.679  14.215
68532SOL    HW2 7494   1.497   0.692  14.249
68533SOL     OW 7495  13.010  11.618  11.106
68533SOL    HW1 7496  12.924  11.612  11.148
68533SOL    HW2 7497  12.996  11.587  11.017
68534SOL     OW 7498   8.667   3.722   0.931
68534SOL    HW1 7499   8.677   3.747   1.023
68534SOL    HW2 7500   8.756   3.697   0.904
68535SOL     OW 7501   6.192   3.626  12.534
68535SOL    HW1 7502   6.271   3.571  12.535
68535SOL    HW2 7503   6.186   3.661  12.623
68536SOL     OW 7504   8.943   6.620  12.408
68536SOL    HW1 7505   8.951   6.626  12.313
68536SOL    HW2 7506   9.020   6.570  12.436
68537SOL     OW 7507   1.969   1.636   9.802
68537SOL    HW1 7508   2.060   1.612   9.786
68537SOL    HW2 7509   1.927   1.554   9.828
68538SOL     OW 7510   8.310   5.479   4.022
68538SOL    HW1 7511   8.219   5.468   4.051
68538SOL    HW2 7512   8.303   5.531   3.941
68539SOL     OW 7513  14.482  14.751  11.717
68539SOL    HW1 7514  14.556  14.810  11.704
68539SOL    HW2 7515  14.473  14.704  11.634
68540SOL     OW 7516  11.617   4.568   9.015
68540SOL    HW1 7517  11.587   4.601   9.099
68540SOL    HW2 7518  11.678   4.635   8.983
68541SOL     OW 7519   0.047  13.890   8.238
68541SOL    HW1 7520  14.854  13.879   8.297
68541SOL    HW2 7521   0.046  13.982   8.214
68542SOL     OW 7522   6.467   1.416   8.294
68542SOL    HW1 7523   6.401   1.479   8.323
68542SOL    HW2 7524   6.457   1.342   8.354
68543SOL     OW 7525   3.488   0.191   9.892
68543SOL    HW1 7526   3.508   0.274   9.936
68543SOL    HW2 7527   3.519   0.124   9.952
68544SOL     OW 7528   8.427   7.387   7.389
68544SOL    HW1 7529   8.452   7.476   7.366
68544SOL    HW2 7530   8.471   7.371   7.473
68545SOL     OW 7531   4.892  12.911  12.018
68545SOL    HW1 7532   4.930  12.865  12.092
68545SOL    HW2 7533   4.803  12.877  12.011
68546SOL     OW 7534   3.195   4.784   5.973
68546SOL    HW1 7535   3.161   4.871   5.993
68546SOL    HW2 7536   3.273   4.801   5.920
68547SOL     OW 7537   8.298   4.924  11.238
68547SOL    HW1 7538   8.385   4.958  11.256
68547SOL    HW2 7539   8.239   4.997  11.255
68548SOL     OW 7540   7.027   8.697  14.734
68548SOL    HW1 7541   6.972   8.635  14.783
68548SOL    HW2 7542   6.974   8.776  14.727
68549SOL     OW 7543   5.794  11.073   7.897
68549SOL    HW1 7544   5.739  11.012   7.946
68549SOL    HW2 7545   5.788  11.043   7.806
68550SOL     OW 7546  10.487   7.794  13.458
68550SOL    HW1 7547  10.539   7.754  13.528
68550SOL    HW2 7548  10.550   7.844  13.406
68551SOL     OW 7549   9.420   9.722   4.556
68551SOL    HW1 7550   9.460   9.763   4.632
68551SOL    HW2 7551   9.333   9.695   4.587
68552SOL     OW 7552   6.333  13.408  12.073
68552SOL    HW1 7553   6.246  13.442  12.055
68552SOL    HW2 7554   6.335  13.322  12.030
68553SOL     OW 7555   5.251   2.385   1.081
68553SOL    HW1 7556   5.229   2.435   1.160
68553SOL    HW2 7557   5.331   2.338   1.103
68554SOL     OW 7558   4.489   9.356   6.092
68554SOL    HW1 7559   4.573   9.313   6.079
68554SOL    HW2 7560   4.469   9.398   6.008
68555SOL     OW 7561  13.762   5.343  11.955
68555SOL    HW1 7562  13.742   5.354  12.048
68555SOL    HW2 7563  13.857   5.348  11.950
68556SOL     OW 7564  11.723   6.406  14.207
68556SOL    HW1 7565  11.716   6.501  14.195
68556SOL    HW2 7566  11.653   6.370  14.153
68557SOL     OW 7567   0.598   7.781   2.395
68557SOL    HW1 7568   0.650   7.731   2.332
68557SOL    HW2 7569   0.508   7.756   2.377
68558SOL     OW 7570   0.201   5.583  13.095
68558SOL    HW1 7571   0.213   5.585  13.000
68558SOL    HW2 7572   0.154   5.502  13.112
68559SOL     OW 7573   0.972  10.198   9.122
68559SOL    HW1 7574   0.899  10.244   9.163
68559SOL    HW2 7575   0.941  10.176   9.035
68560SOL     OW 7576  10.542   0.660  12.133
68560SOL    HW1 7577  10.464   0.678  12.186
68560SOL    HW2 7578  10.592   0.742  12.135
68561SOL     OW 7579  13.568   9.462   1.668
68561SOL    HW1 7580  13.537   9.479   1.579
68561SOL    HW2 7581  13.655   9.501   1.671
68562SOL     OW 7582   6.532  10.178   6.539
68562SOL    HW1 7583   6.613  10.139   6.505
68562SOL    HW2 7584   6.521  10.258   6.487
68563SOL     OW 7585  11.367  11.697   2.920
68563SOL    HW1 7586  11.442  11.680   2.863
68563SOL    HW2 7587  11.405  11.704   3.008
68564SOL     OW 7588   8.402   1.631   9.146
68564SOL    HW1 7589   8.377   1.584   9.226
68564SOL    HW2 7590   8.328   1.689   9.128
68565SOL     OW 7591   1.929  10.979   3.200
68565SOL    HW1 7592   1.972  11.010   3.280
68565SOL    HW2 7593   1.845  11.025   3.198
68566SOL     OW 7594  12.273   5.802  14.595
68566SOL    HW1 7595  12.297   5.743  14.524
68566SOL    HW2 7596  12.356   5.820  14.639
68567SOL     OW 7597  12.669   7.501   3.882
68567SOL    HW1 7598  12.578   7.474   3.892
68567SOL    HW2 7599  12.710   7.482   3.966
68568SOL     OW 7600   3.194   1.194  13.353
68568SOL    HW1 7601   3.250   1.246  13.410
68568SOL    HW2 7602   3.120   1.169  13.408
68569SOL     OW 7603   9.409  11.875   2.366
68569SOL    HW1 7604   9.365  11.833   2.292
68569SOL    HW2 7605   9.405  11.810   2.436
68570SOL     OW 7606   0.372   2.134   2.272
68570SOL    HW1 7607   0.323   2.187   2.210
68570SOL    HW2 7608   0.327   2.049   2.272
68571SOL     OW 7609   2.026   2.958   1.560
68571SOL    HW1 7610   2.014   2.888   1.496
68571SOL    HW2 7611   2.062   2.914   1.637
68572SOL     OW 7612  12.674   0.487  10.651
68572SOL    HW1 7613  12.664   0.543  10.574
68572SOL    HW2 7614  12.610   0.522  10.714
68573SOL     OW 7615   0.297   0.687   6.800
68573SOL    HW1 7616   0.216   0.654   6.840
68573SOL    HW2 7617   0.353   0.708   6.874
68574SOL     OW 7618  12.653   6.258   0.417
68574SOL    HW1 7619  12.694   6.261   0.503
68574SOL    HW2 7620  12.585   6.191   0.425
68575SOL     OW 7621  12.570  13.328   5.501
68575SOL    HW1 7622  12.633  13.266   5.464
68575SOL    HW2 7623  12.583  13.321   5.596
68576SOL     OW 7624   5.215   2.361   6.607
68576SOL    HW1 7625   5.229   2.441   6.555
68576SOL    HW2 7626   5.147   2.386   6.670
68577SOL     OW 7627   8.810   1.498   5.263
68577SOL    HW1 7628   8.757   1.478   5.340
68577SOL    HW2 7629   8.789   1.589   5.243
68578SOL     OW 7630  13.117   1.713   6.819
68578SOL    HW1 7631  13.068   1.639   6.854
68578SOL    HW2 7632  13.194   1.674   6.779
68579SOL     OW 7633  11.843  14.644  12.693
68579SOL    HW1 7634  11.750  14.619  12.691
68579SOL    HW2 7635  11.890  14.563  12.673
68580SOL     OW 7636   7.159   4.052   3.685
68580SOL    HW1 7637   7.108   4.094   3.754
68580SOL    HW2 7638   7.149   4.109   3.609
68581SOL     OW 7639   3.070  10.568  10.774
68581SOL    HW1 7640   3.012  10.526  10.710
68581SOL    HW2 7641   3.056  10.519  10.855
68582SOL     OW 7642  14.248  12.361   8.488
68582SOL    HW1 7643  14.274  12.315   8.568
68582SOL    HW2 7644  14.160  12.394   8.505
68583SOL     OW 7645  11.142   9.865   1.652
68583SOL    HW1 7646  11.232   9.894   1.666
68583SOL    HW2 7647  11.144   9.770   1.666
68584SOL     OW 7648   4.195   4.650  10.769
68584SOL    HW1 7649   4.110   4.655  10.813
68584SOL    HW2 7650   4.259   4.664  10.838
68585SOL     OW 7651   8.321   0.473  12.245
68585SOL    HW1 7652   8.376   0.400  12.275
68585SOL    HW2 7653   8.350   0.547  12.297
68586SOL     OW 7654   1.669   6.991   6.006
68586SOL    HW1 7655   1.688   6.998   5.913
68586SOL    HW2 7656   1.649   7.080   6.034
68587SOL     OW 7657   0.770   3.703  14.111
68587SOL    HW1 7658   0.835   3.772  14.123
68587SOL    HW2 7659   0.686   3.749  14.109
68588SOL     OW 7660   3.559   7.806   9.339
68588SOL    HW1 7661   3.582   7.715   9.318
68588SOL    HW2 7662   3.545   7.806   9.433
68589SOL     OW 7663   4.131  10.836   0.344
68589SOL    HW1 7664   4.171  10.904   0.399
68589SOL    HW2 7665   4.164  10.854   0.256
68590SOL     OW 7666  10.345  14.722  14.505
68590SOL    HW1 7667  10.281  14.651  14.498
68590SOL    HW2 7668  10.397  14.700  14.582
68591SOL     OW 7669  12.554  14.261   3.422
68591SOL    HW1 7670  12.503  14.241   3.501
68591SOL    HW2 7671  12.642  14.278   3.454
68592SOL     OW 7672  11.099   1.778  10.128
68592SOL    HW1 7673  11.053   1.856  10.159
68592SOL    HW2 7674  11.189   1.789  10.159
68593SOL     OW 7675   0.083   5.511   6.482
68593SOL    HW1 7676   0.007   5.480   6.433
68593SOL    HW2 7677   0.079   5.606   6.475
68594SOL     OW 7678  13.813   3.553  11.869
68594SOL    HW1 7679  13.825   3.516  11.781
68594SOL    HW2 7680  13.901   3.579  11.897
68595SOL     OW 7681   9.154   4.978   3.573
68595SOL    HW1 7682   9.117   4.902   3.528
68595SOL    HW2 7683   9.078   5.026   3.606
68596SOL     OW 7684   2.815  12.852  10.443
68596SOL    HW1 7685   2.866  12.777  10.412
68596SOL    HW2 7686   2.747  12.814  10.498
68597SOL     OW 7687  11.661   5.292  13.032
68597SOL    HW1 7688  11.749   5.282  12.994
68597SOL    HW2 7689  11.616   5.211  13.011
68598SOL     OW 7690   2.893  10.720  12.225
68598SOL    HW1 7691   2.933  10.651  12.172
68598SOL    HW2 7692   2.913  10.801  12.178
68599SOL     OW 7693   5.964   2.513   8.332
68599SOL    HW1 7694   5.977   2.527   8.239
68599SOL    HW2 7695   5.879   2.469   8.339
68600SOL     OW 7696   2.454   0.983  12.310
68600SOL    HW1 7697   2.466   0.932  12.391
68600SOL    HW2 7698   2.406   0.925  12.252
68601SOL     OW 7699   6.880   6.660  14.807
68601SOL    HW1 7700   6.838   6.587  14.762
68601SOL    HW2 7701   6.849   6.738  14.760
68602SOL     OW 7702   7.659  12.965   7.271
68602SOL    HW1 7703   7.661  12.870   7.267
68602SOL    HW2 7704   7.750  12.992   7.257
68603SOL     OW 7705   3.636   6.765   4.351
68603SOL    HW1 7706   3.599   6.694   4.404
68603SOL    HW2 7707   3.653   6.835   4.414
68604SOL     OW 7708   3.410  14.549   7.873
68604SOL    HW1 7709   3.469  14.559   7.798
68604SOL    HW2 7710   3.449  14.478   7.924
68605SOL     OW 7711  11.406   8.678  13.365
68605SOL    HW1 7712  11.463   8.647  13.296
68605SOL    HW2 7713  11.381   8.599  13.414
68606SOL     OW 7714   9.538   7.039   0.872
68606SOL    HW1 7715   9.536   7.093   0.951
68606SOL    HW2 7716   9.619   6.988   0.879
68607SOL     OW 7717  12.257   9.816  12.282
68607SOL    HW1 7718  12.311   9.793  12.206
68607SOL    HW2 7719  12.174   9.772  12.266
68608SOL     OW 7720  10.916  10.177   2.790
68608SOL    HW1 7721  11.005  10.208   2.810
68608SOL    HW2 7722  10.924  10.132   2.707
68609SOL     OW 7723  14.099  11.192   9.264
68609SOL    HW1 7724  14.173  11.132   9.259
68609SOL    HW2 7725  14.055  11.183   9.180
68610SOL     OW 7726  10.176   1.730   7.557
68610SOL    HW1 7727  10.120   1.677   7.613
68610SOL    HW2 7728  10.117   1.767   7.491
68611SOL     OW 7729  13.218   5.719   0.322
68611SOL    HW1 7730  13.289   5.774   0.354
68611SOL    HW2 7731  13.164   5.702   0.399
68612SOL     OW 7732   4.709  14.239   4.100
68612SOL    HW1 7733   4.695  14.145   4.096
68612SOL    HW2 7734   4.803  14.249   4.113
68613SOL     OW 7735   3.661   4.423  14.255
68613SOL    HW1 7736   3.750   4.419  14.221
68613SOL    HW2 7737   3.664   4.487  14.326
68614SOL     OW 7738   5.416   8.676  11.782
68614SOL    HW1 7739   5.348   8.614  11.806
68614SOL    HW2 7740   5.392   8.706  11.694
68615SOL     OW 7741   3.122   3.124  10.250
68615SOL    HW1 7742   3.183   3.149  10.319
68615SOL    HW2 7743   3.129   3.193  10.184
68616SOL     OW 7744  11.314   2.902   2.249
68616SOL    HW1 7745  11.381   2.865   2.191
68616SOL    HW2 7746  11.276   2.826   2.293
68617SOL     OW 7747   1.338   0.999   3.959
68617SOL    HW1 7748   1.347   0.918   3.908
68617SOL    HW2 7749   1.426   1.036   3.961
68618SOL     OW 7750  11.253   3.970   6.975
68618SOL    HW1 7751  11.244   4.025   6.897
68618SOL    HW2 7752  11.347   3.971   6.994
68619SOL     OW 7753   0.817   0.689   8.877
68619SOL    HW1 7754   0.811   0.777   8.915
68619SOL    HW2 7755   0.905   0.684   8.841
68620SOL     OW 7756  12.019  10.932  11.042
68620SOL    HW1 7757  11.978  10.946  11.127
68620SOL    HW2 7758  11.955  10.964  10.978
68621SOL     OW 7759   0.029   2.138   5.651
68621SOL    HW1 7760   0.015   2.157   5.744
68621SOL    HW2 7761  14.823   2.137   5.613
68622SOL     OW 7762  10.182  11.333  13.227
68622SOL    HW1 7763  10.141  11.246  13.234
68622SOL    HW2 7764  10.131  11.378  13.160
68623SOL     OW 7765  12.040   7.390   6.997
68623SOL    HW1 7766  12.020   7.364   7.087
68623SOL    HW2 7767  11.955   7.413   6.959
68624SOL     OW 7768   8.989  12.788  12.353
68624SOL    HW1 7769   9.063  12.728  12.346
68624SOL    HW2 7770   9.029  12.874  12.362
68625SOL     OW 7771   9.456   6.049   0.350
68625SOL    HW1 7772   9.501   6.104   0.415
68625SOL    HW2 7773   9.492   5.961   0.364
68626SOL     OW 7774  12.417   2.133   1.151
68626SOL    HW1 7775  12.418   2.142   1.056
68626SOL    HW2 7776  12.370   2.051   1.166
68627SOL     OW 7777  12.757   1.543   4.975
68627SOL    HW1 7778  12.768   1.453   4.946
68627SOL    HW2 7779  12.846   1.576   4.989
68628SOL     OW 7780   5.046   0.935   7.488
68628SOL    HW1 7781   5.131   0.972   7.464
68628SOL    HW2 7782   4.986   0.966   7.421
68629SOL     OW 7783   6.660   0.056   7.905
68629SOL    HW1 7784   6.660  14.861   7.849
68629SOL    HW2 7785   6.651   0.021   7.994
68630SOL     OW 7786   7.289   2.605   0.325
68630SOL    HW1 7787   7.270   2.512   0.333
68630SOL    HW2 7788   7.314   2.617   0.233
68631SOL     OW 7789  11.352   0.846  13.553
68631SOL    HW1 7790  11.265   0.825  13.518
68631SOL    HW2 7791  11.410   0.782  13.513
68632SOL     OW 7792   2.287   8.298   4.978
68632SOL    HW1 7793   2.229   8.226   4.953
68632SOL    HW2 7794   2.365   8.286   4.924
68633SOL     OW 7795   1.592  10.683  12.492
68633SOL    HW1 7796   1.602  10.778  12.497
68633SOL    HW2 7797   1.530  10.661  12.562
68634SOL     OW 7798   5.608   7.069  11.122
68634SOL    HW1 7799   5.623   7.157  11.157
68634SOL    HW2 7800   5.549   7.027  11.184
68635SOL     OW 7801  13.985  10.072   1.636
68635SOL    HW1 7802  13.952  10.129   1.706
68635SOL    HW2 7803  14.036  10.130   1.579
68636SOL     OW 7804  12.958   2.454  14.108
68636SOL    HW1 7805  13.016   2.413  14.044
68636SOL    HW2 7806  12.909   2.381  14.146
68637SOL     OW 7807  11.982   4.466  10.283
68637SOL    HW1 7808  12.044   4.515  10.338
68637SOL    HW2 7809  11.938   4.406  10.344
68638SOL     OW 7810   3.607   2.112   6.852
68638SOL    HW1 7811   3.555   2.082   6.777
68638SOL    HW2 7812   3.623   2.032   6.903
68639SOL     OW 7813   8.963  14.360   7.569
68639SOL    HW1 7814   8.975  14.269   7.596
68639SOL    HW2 7815   8.989  14.411   7.646
68640SOL     OW 7816   2.689   3.435   1.119
68640SOL    HW1 7817   2.761   3.495   1.139
68640SOL    HW2 7818   2.725   3.348   1.138
68641SOL     OW 7819   9.407   0.077   5.327
68641SOL    HW1 7820   9.417  14.870   5.361
68641SOL    HW2 7821   9.497   0.110   5.320
68642SOL     OW 7822   2.250  14.146   5.723
68642SOL    HW1 7823   2.307  14.162   5.647
68642SOL    HW2 7824   2.294  14.190   5.796
68643SOL     OW 7825   7.771   4.542   4.453
68643SOL    HW1 7826   7.824   4.548   4.373
68643SOL    HW2 7827   7.833   4.512   4.520
68644SOL     OW 7828   6.144  10.793   9.508
68644SOL    HW1 7829   6.094  10.860   9.459
68644SOL    HW2 7830   6.174  10.732   9.441
68645SOL     OW 7831  13.598   0.315  10.271
68645SOL    HW1 7832  13.521   0.319  10.215
68645SOL    HW2 7833  13.563   0.315  10.360
68646SOL     OW 7834   3.103   2.307   8.749
68646SOL    HW1 7835   3.048   2.383   8.768
68646SOL    HW2 7836   3.183   2.323   8.800
68647SOL     OW 7837  11.595   2.396  11.156
68647SOL    HW1 7838  11.509   2.432  11.176
68647SOL    HW2 7839  11.577   2.313  11.112
68648SOL     OW 7840   4.634   0.591   6.967
68648SOL    HW1 7841   4.700   0.583   6.897
68648SOL    HW2 7842   4.673   0.545   7.041
68649SOL     OW 7843  12.016  10.341   9.081
68649SOL    HW1 7844  12.007  10.321   8.988
68649SOL    HW2 7845  12.024  10.256   9.124
68650SOL     OW 7846  12.208   8.242   5.896
68650SOL    HW1 7847  12.263   8.171   5.930
68650SOL    HW2 7848  12.128   8.238   5.949
68651SOL     OW 7849   5.706   6.927   0.259
68651SOL    HW1 7850   5.729   6.916   0.167
68651SOL    HW2 7851   5.789   6.943   0.303
68652SOL     OW 7852   8.650   6.063  10.253
68652SOL    HW1 7853   8.668   6.143  10.301
68652SOL    HW2 7854   8.573   6.083  10.200
68653SOL     OW 7855   0.272   5.549   8.267
68653SOL    HW1 7856   0.264   5.644   8.279
68653SOL    HW2 7857   0.342   5.539   8.202
68654SOL     OW 7858   4.089   7.132  12.847
68654SOL    HW1 7859   4.039   7.051  12.855
68654SOL    HW2 7860   4.112   7.155  12.938
68655SOL     OW 7861   9.245   9.462   8.386
68655SOL    HW1 7862   9.198   9.390   8.429
68655SOL    HW2 7863   9.283   9.512   8.457
68656SOL     OW 7864   8.028   4.196  12.021
68656SOL    HW1 7865   8.003   4.123  11.965
68656SOL    HW2 7866   8.076   4.255  11.963
68657SOL     OW 7867   7.997   2.820  12.205
68657SOL    HW1 7868   7.913   2.853  12.236
68657SOL    HW2 7869   8.045   2.796  12.284
68658SOL     OW 7870   5.620   0.971   2.024
68658SOL    HW1 7871   5.609   1.052   1.974
68658SOL    HW2 7872   5.533   0.953   2.060
68659SOL     OW 7873  14.307   1.790  12.417
68659SOL    HW1 7874  14.370   1.777  12.345
68659SOL    HW2 7875  14.251   1.712  12.413
68660SOL     OW 7876   0.428  12.730  13.243
68660SOL    HW1 7877   0.434  12.802  13.181
68660SOL    HW2 7878   0.457  12.767  13.326
68661SOL     OW 7879   6.034   0.940  12.842
68661SOL    HW1 7880   6.017   0.906  12.930
68661SOL    HW2 7881   6.118   0.986  12.849
68662SOL     OW 7882  12.925   3.308   2.133
68662SOL    HW1 7883  13.015   3.294   2.161
68662SOL    HW2 7884  12.880   3.342   2.211
68663SOL     OW 7885   6.932   1.221   5.979
68663SOL    HW1 7886   6.845   1.246   5.949
68663SOL    HW2 7887   6.935   1.249   6.070
68664SOL     OW 7888   8.487   2.424   2.219
68664SOL    HW1 7889   8.581   2.410   2.228
68664SOL    HW2 7890   8.475   2.517   2.241
68665SOL     OW 7891  10.520  14.421   6.251
68665SOL    HW1 7892  10.522  14.328   6.272
68665SOL    HW2 7893  10.482  14.463   6.328
68666SOL     OW 7894  12.660  10.467   4.059
68666SOL    HW1 7895  12.745  10.464   4.101
68666SOL    HW2 7896  12.605  10.408   4.112
68667SOL     OW 7897   0.630   6.731   7.517
68667SOL    HW1 7898   0.567   6.711   7.586
68667SOL    HW2 7899   0.678   6.650   7.504
68668SOL     OW 7900  10.119   1.558   5.247
68668SOL    HW1 7901  10.150   1.644   5.219
68668SOL    HW2 7902  10.190   1.498   5.226
68669SOL     OW 7903  14.476   2.521   9.522
68669SOL    HW1 7904  14.456   2.521   9.616
68669SOL    HW2 7905  14.392   2.543   9.480
68670SOL     OW 7906   9.191   0.725  11.789
68670SOL    HW1 7907   9.224   0.645  11.831
68670SOL    HW2 7908   9.150   0.773  11.861
68671SOL     OW 7909   0.817  10.962   9.345
68671SOL    HW1 7910   0.758  10.912   9.288
68671SOL    HW2 7911   0.892  10.982   9.289
68672SOL     OW 7912  14.430   7.361   7.363
68672SOL    HW1 7913  14.362   7.304   7.327
68672SOL    HW2 7914  14.390   7.448   7.365
68673SOL     OW 7915   9.077   7.079   5.325
68673SOL    HW1 7916   9.073   7.085   5.230
68673SOL    HW2 7917   8.985   7.086   5.353
68674SOL     OW 7918   8.608   9.030   1.352
68674SOL    HW1 7919   8.665   9.070   1.286
68674SOL    HW2 7920   8.648   8.945   1.369
68675SOL     OW 7921  14.550   2.081   4.545
68675SOL    HW1 7922  14.464   2.094   4.584
68675SOL    HW2 7923  14.604   2.045   4.616
68676SOL     OW 7924  10.736   9.686  13.793
68676SOL    HW1 7925  10.642   9.706  13.791
68676SOL    HW2 7926  10.745   9.608  13.739
68677SOL     OW 7927   7.989   1.654  13.743
68677SOL    HW1 7928   8.056   1.719  13.723
68677SOL    HW2 7929   7.923   1.703  13.792
68678SOL     OW 7930   6.977  13.259  11.660
68678SOL    HW1 7931   6.913  13.251  11.731
68678SOL    HW2 7932   7.034  13.183  11.671
68679SOL     OW 7933  13.235   1.880   7.313
68679SOL    HW1 7934  13.218   1.965   7.273
68679SOL    HW2 7935  13.283   1.832   7.247
68680SOL     OW 7936   4.370   8.685   6.755
68680SOL    HW1 7937   4.346   8.776   6.775
68680SOL    HW2 7938   4.300   8.653   6.699
68681SOL     OW 7939  12.747   4.159   8.113
68681SOL    HW1 7940  12.689   4.181   8.040
68681SOL    HW2 7941  12.705   4.196   8.190
68682SOL     OW 7942  12.133  12.280   8.890
68682SOL    HW1 7943  12.055  12.231   8.865
68682SOL    HW2 7944  12.155  12.249   8.978
68683SOL     OW 7945   7.451   9.234  11.325
68683SOL    HW1 7946   7.531   9.285  11.311
68683SOL    HW2 7947   7.415   9.222  11.237
68684SOL     OW 7948   3.235  11.652   6.275
68684SOL    HW1 7949   3.184  11.700   6.340
68684SOL    HW2 7950   3.216  11.560   6.292
68685SOL     OW 7951   5.596   8.907   1.647
68685SOL    HW1 7952   5.689   8.929   1.647
68685SOL    HW2 7953   5.557   8.968   1.584
68686SOL     OW 7954   9.102   3.744  11.027
68686SOL    HW1 7955   9.126   3.815  11.085
68686SOL    HW2 7956   9.184   3.715  10.988
68687SOL     OW 7957   6.137   4.067  10.777
68687SOL    HW1 7958   6.133   3.971  10.776
68687SOL    HW2 7959   6.200   4.089  10.709
68688SOL     OW 7960  13.316   5.771  13.832
68688SOL    HW1 7961  13.325   5.806  13.743
68688SOL    HW2 7962  13.290   5.680  13.819
68689SOL     OW 7963   2.936   9.861   5.088
68689SOL    HW1 7964   2.959   9.848   5.180
68689SOL    HW2 7965   2.952   9.775   5.048
68690SOL     OW 7966   9.986   0.710   1.903
68690SOL    HW1 7967  10.068   0.742   1.941
68690SOL    HW2 7968  10.013   0.638   1.846
68691SOL     OW 7969   2.607  10.380   8.877
68691SOL    HW1 7970   2.666  10.363   8.804
68691SOL    HW2 7971   2.526  10.334   8.854
68692SOL     OW 7972   9.669   8.819  14.226
68692SOL    HW1 7973   9.696   8.756  14.160
68692SOL    HW2 7974   9.589   8.859  14.191
68693SOL     OW 7975   7.934   6.267   0.711
68693SOL    HW1 7976   7.963   6.353   0.680
68693SOL    HW2 7977   7.992   6.205   0.666
68694SOL     OW 7978   3.622   7.053  12.411
68694SOL    HW1 7979   3.695   7.059  12.349
68694SOL    HW2 7980   3.556   7.114  12.378
68695SOL     OW 7981   5.936   7.987   2.019
68695SOL    HW1 7982   5.845   7.963   2.000
68695SOL    HW2 7983   5.986   7.906   2.004
68696SOL     OW 7984  13.374   8.921   8.176
68696SOL    HW1 7985  13.434   8.980   8.131
68696SOL    HW2 7986  13.295   8.919   8.121
68697SOL     OW 7987  11.890   3.913   7.815
68697SOL    HW1 7988  11.963   3.881   7.763
68697SOL    HW2 7989  11.857   3.989   7.768
68698SOL     OW 7990  14.707   9.623  14.633
68698SOL    HW1 7991  14.698   9.681  14.558
68698SOL    HW2 7992  14.739   9.541  14.595
68699SOL     OW 7993  12.911   5.257   4.438
68699SOL    HW1 7994  12.899   5.350   4.415
68699SOL    HW2 7995  12.977   5.226   4.376
68700SOL     OW 7996   3.853   5.226   4.931
68700SOL    HW1 7997   3.854   5.132   4.951
68700SOL    HW2 7998   3.770   5.240   4.885
68701SOL     OW 7999   5.330  11.176   9.773
68701SOL    HW1 8000   5.374  11.103   9.731
68701SOL    HW2 8001   5.364  11.254   9.728
68702SOL     OW 8002  10.240   1.406  11.682
68702SOL    HW1 8003  10.184   1.353  11.737
68702SOL    HW2 8004  10.258   1.485  11.734
68703SOL     OW 8005   0.211   5.711   6.730
68703SOL    HW1 8006   0.226   5.783   6.792
68703SOL    HW2 8007   0.144   5.743   6.670
68704SOL     OW 8008  13.358   7.608  12.834
68704SOL    HW1 8009  13.440   7.608  12.884
68704SOL    HW2 8010  13.302   7.670  12.882
68705SOL     OW 8011   8.479   1.961   6.369
68705SOL    HW1 8012   8.559   1.917   6.341
68705SOL    HW2 8013   8.475   2.040   6.316
68706SOL     OW 8014  10.457  13.642  14.793
68706SOL    HW1 8015  10.368  13.631  14.827
68706SOL    HW2 8016  10.465  13.736  14.776
68707SOL     OW 8017   5.868   5.611  10.170
68707SOL    HW1 8018   5.840   5.647  10.254
68707SOL    HW2 8019   5.867   5.685  10.110
68708SOL     OW 8020  12.656   6.444   3.101
68708SOL    HW1 8021  12.735   6.499   3.106
68708SOL    HW2 8022  12.594   6.486   3.160
68709SOL     OW 8023  14.612   6.413   1.968
68709SOL    HW1 8024  14.664   6.333   1.971
68709SOL    HW2 8025  14.530   6.391   2.013
68710SOL     OW 8026   1.730   5.971   6.351
68710SOL    HW1 8027   1.738   6.007   6.263
68710SOL    HW2 8028   1.735   6.048   6.409
68711SOL     OW 8029   5.685   3.388   4.223
68711SOL    HW1 8030   5.753   3.442   4.183
68711SOL    HW2 8031   5.691   3.304   4.178
68712SOL     OW 8032   1.155   9.242  13.866
68712SOL    HW1 8033   1.070   9.198  13.872
68712SOL    HW2 8034   1.212   9.193  13.924
68713SOL     OW 8035   8.806   8.467   9.852
68713SOL    HW1 8036   8.885   8.478   9.798
68713SOL    HW2 8037   8.750   8.540   9.829
68714SOL     OW 8038   9.995   8.251   8.695
68714SOL    HW1 8039   9.959   8.340   8.689
68714SOL    HW2 8040   9.919   8.194   8.682
68715SOL     OW 8041   9.570   4.360   7.459
68715SOL    HW1 8042   9.538   4.274   7.486
68715SOL    HW2 8043   9.625   4.343   7.383
68716SOL     OW 8044  10.060   2.756   3.091
68716SOL    HW1 8045  10.128   2.787   3.030
68716SOL    HW2 8046  10.106   2.748   3.175
68717SOL     OW 8047   9.019   0.366   2.913
68717SOL    HW1 8048   8.986   0.454   2.933
68717SOL    HW2 8049   8.975   0.341   2.832
68718SOL     OW 8050  10.170   9.617   4.931
68718SOL    HW1 8051  10.243   9.585   4.878
68718SOL    HW2 8052  10.199   9.702   4.964
68719SOL     OW 8053  13.405  10.073   9.354
68719SOL    HW1 8054  13.368  10.051   9.440
68719SOL    HW2 8055  13.407  10.169   9.353
68720SOL     OW 8056   8.563   7.190   7.984
68720SOL    HW1 8057   8.636   7.231   7.938
68720SOL    HW2 8058   8.488   7.247   7.965
68721SOL     OW 8059  10.367   2.405   4.282
68721SOL    HW1 8060  10.439   2.420   4.343
68721SOL    HW2 8061  10.295   2.374   4.336
68722SOL     OW 8062   3.279   7.882  14.231
68722SOL    HW1 8063   3.345   7.890  14.161
68722SOL    HW2 8064   3.234   7.800  14.211
68723SOL     OW 8065   1.050   8.325   2.762
68723SOL    HW1 8066   1.006   8.288   2.685
68723SOL    HW2 8067   1.032   8.418   2.758
68724SOL     OW 8068  14.355  11.703  12.283
68724SOL    HW1 8069  14.349  11.608  12.276
68724SOL    HW2 8070  14.448  11.721  12.297
68725SOL     OW 8071   8.880   0.448   3.201
68725SOL    HW1 8072   8.880   0.501   3.121
68725SOL    HW2 8073   8.904   0.360   3.172
68726SOL     OW 8074   9.579  13.945   0.837
68726SOL    HW1 8075   9.514  13.876   0.852
68726SOL    HW2 8076   9.660  13.908   0.872
68727SOL     OW 8077   2.530  12.395   2.680
68727SOL    HW1 8078   2.444  12.353   2.671
68727SOL    HW2 8079   2.586  12.327   2.716
68728SOL     OW 8080   8.690   0.189   6.477
68728SOL    HW1 8081   8.778   0.224   6.495
68728SOL    HW2 8082   8.639   0.214   6.554
68729SOL     OW 8083   6.402   1.710  12.922
68729SOL    HW1 8084   6.433   1.795  12.891
68729SOL    HW2 8085   6.364   1.669  12.844
68730SOL     OW 8086  13.446   4.704   0.247
68730SOL    HW1 8087  13.519   4.749   0.204
68730SOL    HW2 8088  13.386   4.683   0.176
68731SOL     OW 8089   2.544  14.196   2.919
68731SOL    HW1 8090   2.467  14.147   2.890
68731SOL    HW2 8091   2.610  14.178   2.852
68732SOL     OW 8092   1.377   5.057   9.110
68732SOL    HW1 8093   1.339   4.984   9.060
68732SOL    HW2 8094   1.436   5.100   9.048
68733SOL     OW 8095   7.536   7.677   0.043
68733SOL    HW1 8096   7.586   7.668   0.124
68733SOL    HW2 8097   7.458   7.622   0.056
68734SOL     OW 8098   9.632  11.022   7.167
68734SOL    HW1 8099   9.606  10.930   7.157
68734SOL    HW2 8100   9.663  11.048   7.080
68735SOL     OW 8101  13.764  12.667   5.506
68735SOL    HW1 8102  13.814  12.669   5.588
68735SOL    HW2 8103  13.806  12.599   5.454
68736SOL     OW 8104   4.319   6.554   0.592
68736SOL    HW1 8105   4.398   6.602   0.567
68736SOL    HW2 8106   4.320   6.556   0.688
68737SOL     OW 8107   6.795   9.191   9.642
68737SOL    HW1 8108   6.740   9.136   9.698
68737SOL    HW2 8109   6.759   9.179   9.554
68738SOL     OW 8110   4.634  11.174   8.039
68738SOL    HW1 8111   4.616  11.240   8.106
68738SOL    HW2 8112   4.547  11.143   8.011
68739SOL     OW 8113  11.629  11.463   0.058
68739SOL    HW1 8114  11.546  11.461   0.009
68739SOL    HW2 8115  11.676  11.385   0.028
68740SOL     OW 8116   6.704  10.063   6.104
68740SOL    HW1 8117   6.717  10.157   6.089
68740SOL    HW2 8118   6.766  10.021   6.044
68741SOL     OW 8119   8.819   4.418   6.821
68741SOL    HW1 8120   8.773   4.368   6.888
68741SOL    HW2 8121   8.900   4.369   6.806
68742SOL     OW 8122   0.436  10.852  13.438
68742SOL    HW1 8123   0.509  10.790  13.432
68742SOL    HW2 8124   0.423  10.863  13.532
68743SOL     OW 8125  12.131   7.835   3.014
68743SOL    HW1 8126  12.143   7.917   2.966
68743SOL    HW2 8127  12.115   7.769   2.947
68744SOL     OW 8128   9.955  13.559   9.412
68744SOL    HW1 8129   9.898  13.521   9.345
68744SOL    HW2 8130   9.916  13.644   9.431
68745SOL     OW 8131   9.854   9.095   7.427
68745SOL    HW1 8132   9.853   9.040   7.349
68745SOL    HW2 8133   9.918   9.055   7.485
68746SOL     OW 8134  11.365  12.084   7.111
68746SOL    HW1 8135  11.442  12.063   7.057
68746SOL    HW2 8136  11.293  12.037   7.070
68747SOL     OW 8137  10.802   8.118   6.813
68747SOL    HW1 8138  10.873   8.080   6.760
68747SOL    HW2 8139  10.846   8.181   6.870
68748SOL     OW 8140   3.891   2.911   6.604
68748SOL    HW1 8141   3.821   2.953   6.554
68748SOL    HW2 8142   3.911   2.831   6.555
68749SOL     OW 8143  13.420   3.863  10.243
68749SOL    HW1 8144  13.514   3.855  10.225
68749SOL    HW2 8145  13.411   3.830  10.333
68750SOL     OW 8146   1.547  10.186   8.635
68750SOL    HW1 8147   1.515  10.097   8.651
68750SOL    HW2 8148   1.502  10.240   8.699
68751SOL     OW 8149   4.663   6.824   1.519
68751SOL    HW1 8150   4.703   6.852   1.602
68751SOL    HW2 8151   4.644   6.731   1.532
68752SOL     OW 8152   9.989   4.750   6.257
68752SOL    HW1 8153  10.048   4.732   6.184
68752SOL    HW2 8154   9.997   4.845   6.271
68753SOL     OW 8155   1.036   4.762   9.147
68753SOL    HW1 8156   0.968   4.817   9.110
68753SOL    HW2 8157   0.993   4.719   9.222
68754SOL     OW 8158   0.081  13.272  11.909
68754SOL    HW1 8159   0.107  13.334  11.840
68754SOL    HW2 8160   0.053  13.194  11.862
68755SOL     OW 8161   5.189   5.843   9.732
68755SOL    HW1 8162   5.163   5.929   9.698
68755SOL    HW2 8163   5.285   5.845   9.733
68756SOL     OW 8164   6.351  11.453   2.813
68756SOL    HW1 8165   6.344  11.424   2.904
68756SOL    HW2 8166   6.370  11.547   2.820
68757SOL     OW 8167  13.967   8.450   2.114
68757SOL    HW1 8168  13.942   8.385   2.049
68757SOL    HW2 8169  14.048   8.416   2.153
68758SOL     OW 8170   8.670   6.436   4.125
68758SOL    HW1 8171   8.588   6.428   4.173
68758SOL    HW2 8172   8.644   6.451   4.034
68759SOL     OW 8173  12.896   5.892  14.031
68759SOL    HW1 8174  12.991   5.898  14.044
68759SOL    HW2 8175  12.878   5.952  13.959
68760SOL     OW 8176   6.650  14.768   9.261
68760SOL    HW1 8177   6.608  14.852   9.281
68760SOL    HW2 8178   6.580  14.716   9.222
68761SOL     OW 8179   7.927   4.459  12.806
68761SOL    HW1 8180   7.945   4.519  12.879
68761SOL    HW2 8181   7.985   4.385  12.822
68762SOL     OW 8182   4.775   2.454  12.270
68762SOL    HW1 8183   4.735   2.405  12.198
68762SOL    HW2 8184   4.746   2.544  12.257
68763SOL     OW 8185   2.326  11.156   4.198
68763SOL    HW1 8186   2.414  11.154   4.236
68763SOL    HW2 8187   2.338  11.129   4.107
68764SOL     OW 8188  12.910   0.296  12.990
68764SOL    HW1 8189  12.837   0.351  13.018
68764SOL    HW2 8190  12.988   0.347  13.013
68765SOL     OW 8191  10.528  12.888  10.153
68765SOL    HW1 8192  10.502  12.887  10.245
68765SOL    HW2 8193  10.596  12.956  10.148
68766SOL     OW 8194   5.603   4.408   0.143
68766SOL    HW1 8195   5.594   4.500   0.167
68766SOL    HW2 8196   5.516   4.371   0.154
68767SOL     OW 8197   4.984  11.153   9.921
68767SOL    HW1 8198   5.071  11.134   9.956
68767SOL    HW2 8199   4.980  11.249   9.920
68768SOL     OW 8200   7.763   1.152   3.835
68768SOL    HW1 8201   7.823   1.183   3.768
68768SOL    HW2 8202   7.720   1.231   3.867
68769SOL     OW 8203   0.772  14.327   1.049
68769SOL    HW1 8204   0.849  14.290   1.090
68769SOL    HW2 8205   0.706  14.258   1.055
68770SOL     OW 8206  14.840   0.545   7.574
68770SOL    HW1 8207   0.010   0.505   7.505
68770SOL    HW2 8208  14.807   0.626   7.536
68771SOL     OW 8209  10.202   6.799   6.008
68771SOL    HW1 8210  10.295   6.777   5.999
68771SOL    HW2 8211  10.178   6.836   5.923
68772SOL     OW 8212   5.514   5.674  11.318
68772SOL    HW1 8213   5.465   5.621  11.382
68772SOL    HW2 8214   5.567   5.610  11.271
68773SOL     OW 8215   3.641  11.551   1.985
68773SOL    HW1 8216   3.593  11.566   1.904
68773SOL    HW2 8217   3.678  11.463   1.975
68774SOL     OW 8218   1.408   9.010   6.647
68774SOL    HW1 8219   1.380   8.950   6.716
68774SOL    HW2 8220   1.408   8.957   6.568
68775SOL     OW 8221   3.740   4.511   0.545
68775SOL    HW1 8222   3.790   4.564   0.606
68775SOL    HW2 8223   3.775   4.534   0.459
68776SOL     OW 8224  11.272  10.640   2.038
68776SOL    HW1 8225  11.243  10.680   2.120
68776SOL    HW2 8226  11.367  10.653   2.037
68777SOL     OW 8227  14.727  12.820  13.876
68777SOL    HW1 8228  14.682  12.744  13.839
68777SOL    HW2 8229  14.800  12.836  13.816
68778SOL     OW 8230  13.143  10.305   3.438
68778SOL    HW1 8231  13.215  10.347   3.486
68778SOL    HW2 8232  13.065  10.332   3.486
68779SOL     OW 8233   2.427   3.591   7.345
68779SOL    HW1 8234   2.340   3.628   7.358
68779SOL    HW2 8235   2.474   3.608   7.426
68780SOL     OW 8236   1.060  13.121  14.497
68780SOL    HW1 8237   1.108  13.195  14.535
68780SOL    HW2 8238   1.126  13.053  14.486
68781SOL     OW 8239   2.532   7.798   8.464
68781SOL    HW1 8240   2.505   7.858   8.534
68781SOL    HW2 8241   2.499   7.713   8.492
68782SOL     OW 8242   5.260   6.611   7.911
68782SOL    HW1 8243   5.217   6.527   7.924
68782SOL    HW2 8244   5.245   6.658   7.994
68783SOL     OW 8245   4.318  14.817   7.137
68783SOL    HW1 8246   4.278   0.021   7.148
68783SOL    HW2 8247   4.340  14.812   7.044
68784SOL     OW 8248  13.797   6.370   0.680
68784SOL    HW1 8249  13.803   6.278   0.704
68784SOL    HW2 8250  13.828   6.374   0.589
68785SOL     OW 8251   4.184   7.259   6.322
68785SOL    HW1 8252   4.203   7.333   6.379
68785SOL    HW2 8253   4.160   7.299   6.238
68786SOL     OW 8254  13.525   7.791   1.611
68786SOL    HW1 8255  13.555   7.881   1.601
68786SOL    HW2 8256  13.605   7.741   1.626
68787SOL     OW 8257  10.257   2.367   7.402
68787SOL    HW1 8258  10.245   2.409   7.316
68787SOL    HW2 8259  10.168   2.350   7.432
68788SOL     OW 8260   4.064   6.507   1.012
68788SOL    HW1 8261   3.988   6.472   1.058
68788SOL    HW2 8262   4.090   6.437   0.953
68789SOL     OW 8263   1.481  11.329  11.638
68789SOL    HW1 8264   1.405  11.365  11.592
68789SOL    HW2 8265   1.461  11.341  11.731
68790SOL     OW 8266   2.015   4.544  13.846
68790SOL    HW1 8267   2.051   4.457  13.862
68790SOL    HW2 8268   1.954   4.532  13.773
68791SOL     OW 8269   5.045  14.017  11.385
68791SOL    HW1 8270   4.976  14.083  11.377
68791SOL    HW2 8271   5.126  14.067  11.386
68792SOL     OW 8272  11.530  11.091  13.431
68792SOL    HW1 8273  11.444  11.083  13.389
68792SOL    HW2 8274  11.572  11.006  13.416
68793SOL     OW 8275   2.374   7.937  10.992
68793SOL    HW1 8276   2.356   7.960  11.083
68793SOL    HW2 8277   2.442   7.998  10.964
68794SOL     OW 8278   3.286  10.347   1.026
68794SOL    HW1 8279   3.256  10.271   1.076
68794SOL    HW2 8280   3.349  10.312   0.964
68795SOL     OW 8281  10.949  11.965   6.742
68795SOL    HW1 8282  10.856  11.966   6.764
68795SOL    HW2 8283  10.964  12.050   6.700
68796SOL     OW 8284   4.881   7.996   8.172
68796SOL    HW1 8285   4.791   8.022   8.190
68796SOL    HW2 8286   4.932   8.076   8.188
68797SOL     OW 8287   6.880   7.119   3.582
68797SOL    HW1 8288   6.867   7.114   3.676
68797SOL    HW2 8289   6.827   7.193   3.554
68798SOL     OW 8290  13.530   3.589   6.145
68798SOL    HW1 8291  13.539   3.500   6.110
68798SOL    HW2 8292  13.488   3.638   6.075
68799SOL     OW 8293  13.785   5.372   1.858
68799SOL    HW1 8294  13.817   5.402   1.773
68799SOL    HW2 8295  13.864   5.365   1.912
68800SOL     OW 8296  12.045   7.460   2.158
68800SOL    HW1 8297  12.133   7.447   2.194
68800SOL    HW2 8298  11.988   7.407   2.215
68801SOL     OW 8299   9.241   2.682   3.333
68801SOL    HW1 8300   9.185   2.605   3.334
68801SOL    HW2 8301   9.330   2.647   3.338
68802SOL     OW 8302   7.639   2.970   7.444
68802SOL    HW1 8303   7.582   2.997   7.517
68802SOL    HW2 8304   7.727   2.987   7.475
68803SOL     OW 8305  12.898   6.177   4.482
68803SOL    HW1 8306  12.837   6.144   4.417
68803SOL    HW2 8307  12.858   6.156   4.566
68804SOL     OW 8308   8.981  13.823   1.249
68804SOL    HW1 8309   9.013  13.746   1.296
68804SOL    HW2 8310   8.961  13.887   1.318
68805SOL     OW 8311   6.252   5.173   8.518
68805SOL    HW1 8312   6.192   5.112   8.476
68805SOL    HW2 8313   6.198   5.223   8.579
68806SOL     OW 8314   8.931  12.578   9.436
68806SOL    HW1 8315   8.850  12.625   9.414
68806SOL    HW2 8316   8.996  12.612   9.375
68807SOL     OW 8317   6.160  10.391  10.019
68807SOL    HW1 8318   6.220  10.367   9.949
68807SOL    HW2 8319   6.194  10.348  10.097
68808SOL     OW 8320   2.936   7.537   2.418
68808SOL    HW1 8321   2.895   7.451   2.414
68808SOL    HW2 8322   3.027   7.519   2.444
68809SOL     OW 8323   3.782   3.376  12.644
68809SOL    HW1 8324   3.831   3.418  12.574
68809SOL    HW2 8325   3.841   3.308  12.678
68810SOL     OW 8326   2.266   2.184   9.123
68810SOL    HW1 8327   2.231   2.235   9.049
68810SOL    HW2 8328   2.353   2.221   9.138
68811SOL     OW 8329   8.938   0.183   3.134
68811SOL    HW1 8330   8.978   0.192   3.048
68811SOL    HW2 8331   8.856   0.135   3.118
68812SOL     OW 8332   4.222   4.077   3.860
68812SOL    HW1 8333   4.170   4.039   3.931
68812SOL    HW2 8334   4.179   4.047   3.780
68813SOL     OW 8335  13.790   0.442   4.905
68813SOL    HW1 8336  13.781   0.526   4.950
68813SOL    HW2 8337  13.877   0.445   4.865
68814SOL     OW 8338  10.033  10.807   5.461
68814SOL    HW1 8339   9.977  10.878   5.492
68814SOL    HW2 8340  10.121  10.843   5.463
68815SOL     OW 8341  12.946   1.820   3.293
68815SOL    HW1 8342  13.005   1.782   3.358
68815SOL    HW2 8343  12.937   1.912   3.318
68816SOL     OW 8344   1.933   7.790   9.186
68816SOL    HW1 8345   1.847   7.769   9.220
68816SOL    HW2 8346   1.937   7.886   9.188
68817SOL     OW 8347  10.767   1.729  13.844
68817SOL    HW1 8348  10.783   1.714  13.751
68817SOL    HW2 8349  10.711   1.657  13.871
68818SOL     OW 8350   2.817  13.779   1.711
68818SOL    HW1 8351   2.810  13.794   1.617
68818SOL    HW2 8352   2.735  13.813   1.747
68819SOL     OW 8353   2.671   3.770  13.778
68819SOL    HW1 8354   2.723   3.848  13.797
68819SOL    HW2 8355   2.718   3.726  13.707
68820SOL     OW 8356  14.514   5.992  10.226
68820SOL    HW1 8357  14.602   5.977  10.193
68820SOL    HW2 8358  14.522   6.069  10.282
68821SOL     OW 8359   1.018  14.622  13.535
68821SOL    HW1 8360   1.033  14.538  13.492
68821SOL    HW2 8361   1.090  14.631  13.598
68822SOL     OW 8362  12.507   9.569   8.481
68822SOL    HW1 8363  12.534   9.640   8.423
68822SOL    HW2 8364  12.514   9.490   8.426
68823SOL     OW 8365  10.081   7.352  14.186
68823SOL    HW1 8366  10.011   7.408  14.221
68823SOL    HW2 8367  10.038   7.297  14.120
68824SOL     OW 8368   7.478   2.734   7.634
68824SOL    HW1 8369   7.513   2.822   7.648
68824SOL    HW2 8370   7.387   2.748   7.607
68825SOL     OW 8371   6.116  13.320   5.203
68825SOL    HW1 8372   6.134  13.227   5.199
68825SOL    HW2 8373   6.062  13.338   5.126
68826SOL     OW 8374   1.286  11.907  14.485
68826SOL    HW1 8375   1.261  11.886  14.395
68826SOL    HW2 8376   1.309  11.822  14.523
68827SOL     OW 8377  14.663   8.355   5.838
68827SOL    HW1 8378  14.633   8.419   5.774
68827SOL    HW2 8379  14.638   8.392   5.923
68828SOL     OW 8380  12.276  14.831  12.119
68828SOL    HW1 8381  12.335  14.826  12.194
68828SOL    HW2 8382  12.286  14.747  12.074
68829SOL     OW 8383   4.825   1.762   5.080
68829SOL    HW1 8384   4.745   1.775   5.029
68829SOL    HW2 8385   4.891   1.736   5.016
68830SOL     OW 8386   6.533   4.909  14.470
68830SOL    HW1 8387   6.587   4.875  14.542
68830SOL    HW2 8388   6.564   4.999  14.458
68831SOL     OW 8389   2.582   7.398   4.582
68831SOL    HW1 8390   2.522   7.467   4.551
68831SOL    HW2 8391   2.648   7.390   4.514
68832SOL     OW 8392  10.178   0.576   1.239
68832SOL    HW1 8393  10.122   0.562   1.316
68832SOL    HW2 8394  10.133   0.644   1.189
68833SOL     OW 8395   3.698  14.734  13.046
68833SOL    HW1 8396   3.738  14.820  13.056
68833SOL    HW2 8397   3.709  14.692  13.132
68834SOL     OW 8398   4.800  14.611   4.806
68834SOL    HW1 8399   4.795  14.690   4.860
68834SOL    HW2 8400   4.888  14.576   4.823
68835SOL     OW 8401   2.035   3.908   5.490
68835SOL    HW1 8402   2.038   3.950   5.405
68835SOL    HW2 8403   2.126   3.884   5.509
68836SOL     OW 8404   3.038   3.024   3.839
68836SOL    HW1 8405   3.008   3.024   3.930
68836SOL    HW2 8406   3.122   2.977   3.842
68837SOL     OW 8407   0.645   7.867   6.798
68837SOL    HW1 8408   0.721   7.905   6.841
68837SOL    HW2 8409   0.676   7.785   6.761
68838SOL     OW 8410   8.760  13.550   2.655
68838SOL    HW1 8411   8.799  13.498   2.585
68838SOL    HW2 8412   8.731  13.485   2.719
68839SOL     OW 8413   2.190   5.853   6.452
68839SOL    HW1 8414   2.251   5.915   6.413
68839SOL    HW2 8415   2.179   5.884   6.542
68840SOL     OW 8416   2.908  14.266   5.289
68840SOL    HW1 8417   2.986  14.321   5.298
68840SOL    HW2 8418   2.859  14.306   5.217
68841SOL     OW 8419  12.526   0.520   7.032
68841SOL    HW1 8420  12.439   0.485   7.011
68841SOL    HW2 8421  12.534   0.599   6.978
68842SOL     OW 8422   2.319   3.735   3.086
68842SOL    HW1 8423   2.343   3.650   3.050
68842SOL    HW2 8424   2.321   3.794   3.011
68843SOL     OW 8425   0.426   9.093  12.368
68843SOL    HW1 8426   0.366   9.075  12.440
68843SOL    HW2 8427   0.411   9.022  12.306
68844SOL     OW 8428   2.961   7.695   4.068
68844SOL    HW1 8429   2.923   7.608   4.056
68844SOL    HW2 8430   2.962   7.734   3.981
68845SOL     OW 8431  12.941   7.843   9.977
68845SOL    HW1 8432  13.010   7.860   9.913
68845SOL    HW2 8433  12.864   7.888   9.942
68846SOL     OW 8434   0.761  14.476   9.913
68846SOL    HW1 8435   0.798  14.504   9.997
68846SOL    HW2 8436   0.667  14.471   9.929
68847SOL     OW 8437   8.760   6.780   6.650
68847SOL    HW1 8438   8.710   6.856   6.619
68847SOL    HW2 8439   8.833   6.816   6.699
68848SOL     OW 8440   6.929   8.641   7.284
68848SOL    HW1 8441   7.017   8.672   7.264
68848SOL    HW2 8442   6.916   8.663   7.376
68849SOL     OW 8443   3.075   7.703  12.602
68849SOL    HW1 8444   3.098   7.660  12.685
68849SOL    HW2 8445   2.981   7.720  12.610
68850SOL     OW 8446   7.428  12.198   6.974
68850SOL    HW1 8447   7.510  12.151   6.962
68850SOL    HW2 8448   7.425  12.262   6.903
68851SOL     OW 8449   4.037   4.497   9.360
68851SOL    HW1 8450   4.115   4.444   9.341
68851SOL    HW2 8451   4.059   4.545   9.440
68852SOL     OW 8452  10.464   7.045   9.732
68852SOL    HW1 8453  10.534   7.065   9.670
68852SOL    HW2 8454  10.506   6.990   9.798
68853SOL     OW 8455   6.877   3.478   2.594
68853SOL    HW1 8456   6.934   3.431   2.534
68853SOL    HW2 8457   6.799   3.424   2.601
68854SOL     OW 8458   1.113  14.200  10.838
68854SOL    HW1 8459   1.142  14.140  10.906
68854SOL    HW2 8460   1.105  14.146  10.760
68855SOL     OW 8461   9.882   1.895  10.462
68855SOL    HW1 8462   9.892   1.933  10.375
68855SOL    HW2 8463   9.871   1.971  10.520
68856SOL     OW 8464   5.241   9.566   8.540
68856SOL    HW1 8465   5.202   9.487   8.578
68856SOL    HW2 8466   5.330   9.569   8.575
68857SOL     OW 8467  11.335   5.893   3.038
68857SOL    HW1 8468  11.425   5.922   3.051
68857SOL    HW2 8469  11.343   5.810   2.991
68858SOL     OW 8470   0.821   0.613   0.033
68858SOL    HW1 8471   0.760   0.676  14.875
68858SOL    HW2 8472   0.814   0.629   0.127
68859SOL     OW 8473   9.448   5.400   6.776
68859SOL    HW1 8474   9.483   5.486   6.799
68859SOL    HW2 8475   9.394   5.416   6.699
68860SOL     OW 8476   0.009   5.256  10.196
68860SOL    HW1 8477  14.874   5.338  10.150
68860SOL    HW2 8478   0.010   5.190  10.128
68861SOL     OW 8479   7.255   7.032   4.588
68861SOL    HW1 8480   7.272   7.096   4.518
68861SOL    HW2 8481   7.341   6.999   4.612
68862SOL     OW 8482   5.082   0.364   1.276
68862SOL    HW1 8483   4.991   0.336   1.277
68862SOL    HW2 8484   5.081   0.452   1.315
68863SOL     OW 8485   5.495   5.514  14.791
68863SOL    HW1 8486   5.577   5.488  14.833
68863SOL    HW2 8487   5.522   5.578  14.724
68864SOL     OW 8488   5.855   6.019  11.508
68864SOL    HW1 8489   5.839   6.002  11.415
68864SOL    HW2 8490   5.943   5.983  11.524
68865SOL     OW 8491  14.079   5.781   1.291
68865SOL    HW1 8492  14.084   5.727   1.370
68865SOL    HW2 8493  14.031   5.728   1.228
68866SOL     OW 8494  10.017  12.117   8.553
68866SOL    HW1 8495  10.009  12.023   8.537
68866SOL    HW2 8496   9.950  12.135   8.619
68867SOL     OW 8497   4.603  10.836   9.602
68867SOL    HW1 8498   4.650  10.780   9.541
68867SOL    HW2 8499   4.604  10.788   9.685
68868SOL     OW 8500  13.523   9.756   3.282
68868SOL    HW1 8501  13.533   9.722   3.371
68868SOL    HW2 8502  13.476   9.687   3.235
68869SOL     OW 8503   3.440  11.639   9.230
68869SOL    HW1 8504   3.455  11.693   9.308
68869SOL    HW2 8505   3.371  11.578   9.256
68870SOL     OW 8506   0.453   1.197   5.861
68870SOL    HW1 8507   0.389   1.132   5.890
68870SOL    HW2 8508   0.433   1.275   5.912
68871SOL     OW 8509   9.389  11.124   6.269
68871SOL    HW1 8510   9.389  11.110   6.174
68871SOL    HW2 8511   9.338  11.050   6.304
68872SOL     OW 8512   2.551   2.430   8.552
68872SOL    HW1 8513   2.530   2.522   8.564
68872SOL    HW2 8514   2.596   2.405   8.633
68873SOL     OW 8515   3.267   8.017  11.723
68873SOL    HW1 8516   3.307   7.984  11.642
68873SOL    HW2 8517   3.200   8.078  11.694
68874SOL     OW 8518   1.565  12.958  10.196
68874SOL    HW1 8519   1.571  12.969  10.291
68874SOL    HW2 8520   1.528  13.041  10.165
68875SOL     OW 8521  12.400   6.379   1.432
68875SOL    HW1 8522  12.481   6.354   1.476
68875SOL    HW2 8523  12.333   6.378   1.500
68876SOL     OW 8524   9.399  10.172  10.428
68876SOL    HW1 8525   9.441  10.101  10.378
68876SOL    HW2 8526   9.436  10.164  10.516
68877SOL     OW 8527  13.432   4.968  13.906
68877SOL    HW1 8528  13.460   4.880  13.880
68877SOL    HW2 8529  13.339   4.970  13.883
68878SOL     OW 8530   7.259   7.049   2.735
68878SOL    HW1 8531   7.220   7.059   2.649
68878SOL    HW2 8532   7.219   7.118   2.788
68879SOL     OW 8533   8.234  10.922  11.406
68879SOL    HW1 8534   8.286  11.001  11.421
68879SOL    HW2 8535   8.282  10.853  11.451
68880SOL     OW 8536  11.631   1.926   0.829
68880SOL    HW1 8537  11.655   1.840   0.793
68880SOL    HW2 8538  11.557   1.954   0.775
68881SOL     OW 8539   1.108   6.812  13.122
68881SOL    HW1 8540   1.142   6.865  13.193
68881SOL    HW2 8541   1.098   6.724  13.160
68882SOL     OW 8542   2.582  10.928  13.743
68882SOL    HW1 8543   2.498  10.888  13.720
68882SOL    HW2 8544   2.624  10.866  13.802
68883SOL     OW 8545   1.438  14.847   6.288
68883SOL    HW1 8546   1.401  14.872   6.373
68883SOL    HW2 8547   1.495   0.038   6.264
68884SOL     OW 8548   7.414   8.444   8.050
68884SOL    HW1 8549   7.319   8.457   8.050
68884SOL    HW2 8550   7.440   8.461   7.959
68885SOL     OW 8551   3.279   4.871  14.764
68885SOL    HW1 8552   3.312   4.948  14.810
68885SOL    HW2 8553   3.215   4.905  14.702
68886SOL     OW 8554   0.918   1.354   6.225
68886SOL    HW1 8555   0.838   1.403   6.238
68886SOL    HW2 8556   0.952   1.384   6.141
68887SOL     OW 8557  11.749   5.720   7.589
68887SOL    HW1 8558  11.692   5.728   7.665
68887SOL    HW2 8559  11.837   5.710   7.627
68888SOL     OW 8560   2.016   3.108  10.795
68888SOL    HW1 8561   2.040   3.184  10.741
68888SOL    HW2 8562   2.062   3.123  10.878
68889SOL     OW 8563   0.355   8.411   3.327
68889SOL    HW1 8564   0.280   8.434   3.382
68889SOL    HW2 8565   0.367   8.317   3.342
68890SOL     OW 8566   5.906  11.821   3.887
68890SOL    HW1 8567   6.000  11.816   3.908
68890SOL    HW2 8568   5.891  11.913   3.866
68891SOL     OW 8569  12.574   8.728  12.398
68891SOL    HW1 8570  12.548   8.710  12.307
68891SOL    HW2 8571  12.565   8.643  12.442
68892SOL     OW 8572   5.645   8.175   4.448
68892SOL    HW1 8573   5.680   8.123   4.376
68892SOL    HW2 8574   5.659   8.121   4.526
68893SOL     OW 8575   2.408  11.987  13.295
68893SOL    HW1 8576   2.448  11.905  13.325
68893SOL    HW2 8577   2.417  12.047  13.369
68894SOL     OW 8578   0.288   7.067  12.783
68894SOL    HW1 8579   0.249   7.033  12.864
68894SOL    HW2 8580   0.356   7.003  12.761
68895SOL     OW 8581   2.808   9.048   5.000
68895SOL    HW1 8582   2.821   8.958   5.033
68895SOL    HW2 8583   2.825   9.041   4.906
68896SOL     OW 8584  14.329   3.741   0.810
68896SOL    HW1 8585  14.335   3.698   0.725
68896SOL    HW2 8586  14.277   3.680   0.863
68897SOL     OW 8587  14.844  11.909  12.767
68897SOL    HW1 8588   0.009  11.826  12.773
68897SOL    HW2 8589   0.029  11.975  12.750
68898SOL     OW 8590   0.105  12.205   9.416
68898SOL    HW1 8591   0.030  12.257   9.388
68898SOL    HW2 8592   0.180  12.246   9.374
68899SOL     OW 8593   8.965   5.955   5.558
68899SOL    HW1 8594   8.880   5.932   5.522
68899SOL    HW2 8595   9.013   5.872   5.559
68900SOL     OW 8596   9.774  13.226   9.650
68900SOL    HW1 8597   9.858  13.184   9.632
68900SOL    HW2 8598   9.786  13.271   9.734
68901SOL     OW 8599   0.792   2.039   4.489
68901SOL    HW1 8600   0.804   2.129   4.520
68901SOL    HW2 8601   0.775   2.048   4.395
68902SOL     OW 8602   4.768   1.901  14.102
68902SOL    HW1 8603   4.744   1.978  14.050
68902SOL    HW2 8604   4.779   1.831  14.037
68903SOL     OW 8605  13.631   2.425   1.353
68903SOL    HW1 8606  13.663   2.467   1.433
68903SOL    HW2 8607  13.707   2.378   1.318
68904SOL     OW 8608  13.302  10.724   1.596
68904SOL    HW1 8609  13.220  10.675   1.592
68904SOL    HW2 8610  13.370  10.657   1.607
68905SOL     OW 8611  12.481   5.245  10.982
68905SOL    HW1 8612  12.454   5.173  10.926
68905SOL    HW2 8613  12.502   5.205  11.066
68906SOL     OW 8614   9.023  11.992  10.961
68906SOL    HW1 8615   8.947  11.965  10.909
68906SOL    HW2 8616   9.003  12.081  10.988
68907SOL     OW 8617  13.443   7.219   9.927
68907SOL    HW1 8618  13.413   7.128   9.922
68907SOL    HW2 8619  13.491   7.232   9.845
68908SOL     OW 8620  12.246   4.785  11.110
68908SOL    HW1 8621  12.166   4.822  11.149
68908SOL    HW2 8622  12.305   4.859  11.100
68909SOL     OW 8623   2.406   9.199   0.216
68909SOL    HW1 8624   2.430   9.113   0.180
68909SOL    HW2 8625   2.403   9.185   0.311
68910SOL     OW 8626   8.263  14.542  14.267
68910SOL    HW1 8627   8.250  14.579  14.180
68910SOL    HW2 8628   8.188  14.484  14.280
68911SOL     OW 8629  11.192  12.719   9.416
68911SOL    HW1 8630  11.115  12.690   9.368
68911SOL    HW2 8631  11.162  12.792   9.470
68912SOL     OW 8632   9.872   8.985  14.642
68912SOL    HW1 8633   9.948   9.039  14.667
68912SOL    HW2 8634   9.799   9.022  14.692
68913SOL     OW 8635  10.253  12.196  11.322
68913SOL    HW1 8636  10.282  12.107  11.304
68913SOL    HW2 8637  10.302  12.222  11.401
68914SOL     OW 8638  10.314   8.102   5.898
68914SOL    HW1 8639  10.365   8.041   5.845
68914SOL    HW2 8640  10.361   8.185   5.891
68915SOL     OW 8641   6.364   2.813   5.052
68915SOL    HW1 8642   6.409   2.767   5.124
68915SOL    HW2 8643   6.412   2.895   5.043
68916SOL     OW 8644   9.446  12.285   8.887
68916SOL    HW1 8645   9.364  12.321   8.853
68916SOL    HW2 8646   9.432  12.190   8.887
68917SOL     OW 8647   5.866   3.025   7.091
68917SOL    HW1 8648   5.944   3.057   7.045
68917SOL    HW2 8649   5.800   3.093   7.076
68918SOL     OW 8650  12.679  13.115   8.747
68918SOL    HW1 8651  12.717  13.043   8.696
68918SOL    HW2 8652  12.632  13.071   8.819
68919SOL     OW 8653   6.132   6.902  10.361
68919SOL    HW1 8654   6.127   6.997  10.345
68919SOL    HW2 8655   6.099   6.863  10.280
68920SOL     OW 8656   0.389   0.547   9.664
68920SOL    HW1 8657   0.326   0.516   9.728
68920SOL    HW2 8658   0.447   0.606   9.712
68921SOL     OW 8659  14.771   2.272  13.610
68921SOL    HW1 8660  14.794   2.235  13.695
68921SOL    HW2 8661  14.808   2.212  13.546
68922SOL     OW 8662   5.319  13.056  12.289
68922SOL    HW1 8663   5.261  13.124  12.253
68922SOL    HW2 8664   5.399  13.064  12.238
68923SOL     OW 8665   0.020  11.609   2.087
68923SOL    HW1 8666  14.836  11.662   2.041
68923SOL    HW2 8667   0.002  11.520   2.058
68924SOL     OW 8668   3.550  13.741   5.808
68924SOL    HW1 8669   3.529  13.664   5.754
68924SOL    HW2 8670   3.628  13.715   5.857
68925SOL     OW 8671   4.053   8.023   2.361
68925SOL    HW1 8672   4.007   8.047   2.281
68925SOL    HW2 8673   4.146   8.026   2.337
68926SOL     OW 8674   6.687  14.467   4.785
68926SOL    HW1 8675   6.720  14.486   4.873
68926SOL    HW2 8676   6.592  14.469   4.794
68927SOL     OW 8677   4.109  10.722   7.751
68927SOL    HW1 8678   4.134  10.707   7.842
68927SOL    HW2 8679   4.180  10.776   7.715
68928SOL     OW 8680   8.537   5.517   4.676
68928SOL    HW1 8681   8.584   5.488   4.598
68928SOL    HW2 8682   8.451   5.544   4.644
68929SOL     OW 8683  12.941   9.275   4.076
68929SOL    HW1 8684  12.958   9.216   4.002
68929SOL    HW2 8685  13.027   9.308   4.101
68930SOL     OW 8686  13.131   4.736   7.496
68930SOL    HW1 8687  13.051   4.695   7.463
68930SOL    HW2 8688  13.100   4.803   7.557
68931SOL     OW 8689   9.948   6.971   2.549
68931SOL    HW1 8690   9.943   6.880   2.580
68931SOL    HW2 8691   9.863   7.008   2.574
68932SOL     OW 8692   2.686   0.325  13.986
68932SOL    HW1 8693   2.607   0.289  13.946
68932SOL    HW2 8694   2.691   0.284  14.072
68933SOL     OW 8695  13.819  14.457   3.847
68933SOL    HW1 8696  13.731  14.480   3.877
68933SOL    HW2 8697  13.864  14.541   3.837
68934SOL     OW 8698   7.310  11.899  10.099
68934SOL    HW1 8699   7.291  11.809  10.073
68934SOL    HW2 8700   7.276  11.953  10.028
68935SOL     OW 8701   5.283   4.485   6.378
68935SOL    HW1 8702   5.284   4.475   6.283
68935SOL    HW2 8703   5.285   4.580   6.392
68936SOL     OW 8704   6.565  13.283   2.085
68936SOL    HW1 8705   6.633  13.246   2.141
68936SOL    HW2 8706   6.612  13.319   2.010
68937SOL     OW 8707  11.096   3.731  12.325
68937SOL    HW1 8708  11.061   3.772  12.246
68937SOL    HW2 8709  11.166   3.675  12.293
68938SOL     OW 8710  12.078   9.961   3.989
68938SOL    HW1 8711  12.008   9.896   3.993
68938SOL    HW2 8712  12.034  10.044   4.011
68939SOL     OW 8713  13.018  11.923  14.514
68939SOL    HW1 8714  12.990  11.856  14.452
68939SOL    HW2 8715  12.987  11.892  14.599
68940SOL     OW 8716  12.423   7.700  13.129
68940SOL    HW1 8717  12.366   7.760  13.081
68940SOL    HW2 8718  12.380   7.688  13.214
68941SOL     OW 8719  12.471   3.950  12.316
68941SOL    HW1 8720  12.444   4.037  12.344
68941SOL    HW2 8721  12.456   3.949  12.221
68942SOL     OW 8722   6.075   4.133   7.771
68942SOL    HW1 8723   5.996   4.172   7.735
68942SOL    HW2 8724   6.142   4.149   7.706
68943SOL     OW 8725  11.100   4.748   9.331
68943SOL    HW1 8726  11.036   4.694   9.285
68943SOL    HW2 8727  11.120   4.819   9.271
68944SOL     OW 8728   2.975  10.602   4.634
68944SOL    HW1 8729   2.938  10.684   4.602
68944SOL    HW2 8730   2.973  10.610   4.729
68945SOL     OW 8731  13.305  10.541  13.235
68945SOL    HW1 8732  13.310  10.621  13.184
68945SOL    HW2 8733  13.275  10.474  13.172
68946SOL     OW 8734   7.226   0.072   1.857
68946SOL    HW1 8735   7.137   0.056   1.888
68946SOL    HW2 8736   7.252  14.872   1.814
68947SOL     OW 8737   6.015  11.246  10.669
68947SOL    HW1 8738   6.015  11.316  10.603
68947SOL    HW2 8739   6.088  11.268  10.726
68948SOL     OW 8740  11.841  12.536   2.101
68948SOL    HW1 8741  11.818  12.584   2.181
68948SOL    HW2 8742  11.935  12.550   2.091
68949SOL     OW 8743   0.899   0.652   7.486
68949SOL    HW1 8744   0.928   0.675   7.574
68949SOL    HW2 8745   0.821   0.599   7.499
68950SOL     OW 8746   5.218   9.582   9.498
68950SOL    HW1 8747   5.226   9.656   9.438
68950SOL    HW2 8748   5.308   9.561   9.521
68951SOL     OW 8749   6.085   3.174   7.330
68951SOL    HW1 8750   6.080   3.079   7.335
68951SOL    HW2 8751   6.117   3.192   7.241
68952SOL     OW 8752   8.729   7.678   0.495
68952SOL    HW1 8753   8.662   7.717   0.438
68952SOL    HW2 8754   8.692   7.683   0.583
68953SOL     OW 8755  11.913   5.027   8.483
68953SOL    HW1 8756  11.820   5.037   8.464
68953SOL    HW2 8757  11.946   5.117   8.486
68954SOL     OW 8758   1.515   8.495   1.819
68954SOL    HW1 8759   1.577   8.505   1.747
68954SOL    HW2 8760   1.544   8.557   1.885
68955SOL     OW 8761  12.783  12.260  11.296
68955SOL    HW1 8762  12.878  12.248  11.288
68955SOL    HW2 8763  12.769  12.277  11.389
68956SOL     OW 8764   6.905  10.553   0.359
68956SOL    HW1 8765   6.946  10.466   0.360
68956SOL    HW2 8766   6.899  10.577   0.452
68957SOL     OW 8767  14.479   5.860   4.307
68957SOL    HW1 8768  14.389   5.890   4.292
68957SOL    HW2 8769  14.494   5.875   4.401
68958SOL     OW 8770   2.216   7.826   1.630
68958SOL    HW1 8771   2.243   7.893   1.693
68958SOL    HW2 8772   2.298   7.798   1.589
68959SOL     OW 8773   0.018   6.206  10.252
68959SOL    HW1 8774   0.042   6.211  10.160
68959SOL    HW2 8775   0.045   6.290  10.289
68960SOL     OW 8776   6.013   3.806  14.050
68960SOL    HW1 8777   5.928   3.785  14.011
68960SOL    HW2 8778   6.024   3.741  14.119
68961SOL     OW 8779   6.496   7.298  14.322
68961SOL    HW1 8780   6.455   7.212  14.338
68961SOL    HW2 8781   6.538   7.289  14.237
68962SOL     OW 8782   7.330   9.730   8.900
68962SOL    HW1 8783   7.376   9.674   8.963
68962SOL    HW2 8784   7.367   9.817   8.913
68963SOL     OW 8785   3.393  11.590  11.025
68963SOL    HW1 8786   3.469  11.537  11.003
68963SOL    HW2 8787   3.327  11.528  11.055
68964SOL     OW 8788  14.631  10.741   3.250
68964SOL    HW1 8789  14.564  10.785   3.199
68964SOL    HW2 8790  14.583  10.696   3.319
68965SOL     OW 8791   0.163  12.271  11.489
68965SOL    HW1 8792   0.069  12.281  11.504
68965SOL    HW2 8793   0.172  12.266  11.394
68966SOL     OW 8794   6.472   2.470   4.751
68966SOL    HW1 8795   6.553   2.495   4.794
68966SOL    HW2 8796   6.413   2.544   4.765
68967SOL     OW 8797   5.075  11.072   3.854
68967SOL    HW1 8798   5.137  11.032   3.915
68967SOL    HW2 8799   5.107  11.161   3.842
68968SOL     OW 8800  10.540   2.136   7.896
68968SOL    HW1 8801  10.579   2.150   7.809
68968SOL    HW2 8802  10.452   2.103   7.877
68969SOL     OW 8803  12.403   9.747  12.057
68969SOL    HW1 8804  12.389   9.701  11.974
68969SOL    HW2 8805  12.498   9.759  12.062
68970SOL     OW 8806   0.275   3.683   9.033
68970SOL    HW1 8807   0.287   3.604   9.086
68970SOL    HW2 8808   0.324   3.666   8.952
68971SOL     OW 8809   3.601   8.243   0.075
68971SOL    HW1 8810   3.552   8.208   0.001
68971SOL    HW2 8811   3.575   8.336   0.079
68972SOL     OW 8812   1.604   0.212   3.268
68972SOL    HW1 8813   1.623   0.304   3.283
68972SOL    HW2 8814   1.532   0.213   3.205
68973SOL     OW 8815  13.947   1.762   5.494
68973SOL    HW1 8816  13.853   1.747   5.480
68973SOL    HW2 8817  13.984   1.675   5.507
68974SOL     OW 8818   8.802  10.478   7.859
68974SOL    HW1 8819   8.828  10.397   7.904
68974SOL    HW2 8820   8.879  10.503   7.809
68975SOL     OW 8821   0.550   7.881  14.273
68975SOL    HW1 8822   0.600   7.801  14.259
68975SOL    HW2 8823   0.615   7.947  14.298
68976SOL     OW 8824   3.384  10.912   0.621
68976SOL    HW1 8825   3.352  10.851   0.555
68976SOL    HW2 8826   3.307  10.962   0.647
68977SOL     OW 8827   6.409   7.046  14.355
68977SOL    HW1 8828   6.363   6.971  14.320
68977SOL    HW2 8829   6.412   7.031  14.449
68978SOL     OW 8830   6.595   5.576   9.608
68978SOL    HW1 8831   6.603   5.634   9.533
68978SOL    HW2 8832   6.504   5.582   9.635
68979SOL     OW 8833  14.628   8.028   9.880
68979SOL    HW1 8834  14.575   8.103   9.855
68979SOL    HW2 8835  14.714   8.064   9.900
68980SOL     OW 8836  10.672  14.226   2.326
68980SOL    HW1 8837  10.744  14.289   2.321
68980SOL    HW2 8838  10.620  14.242   2.247
68981SOL     OW 8839   6.681  10.178  13.747
68981SOL    HW1 8840   6.710  10.256  13.700
68981SOL    HW2 8841   6.721  10.105  13.699
68982SOL     OW 8842   7.748   4.970  10.132
68982SOL    HW1 8843   7.683   5.021  10.181
68982SOL    HW2 8844   7.798   4.924  10.200
68983SOL     OW 8845   8.337  12.914   9.182
68983SOL    HW1 8846   8.291  12.966   9.117
68983SOL    HW2 8847   8.332  12.824   9.150
68984SOL     OW 8848  12.197  13.182   5.497
68984SOL    HW1 8849  12.125  13.180   5.434
68984SOL    HW2 8850  12.265  13.234   5.454
68985SOL     OW 8851   0.895  13.007   9.365
68985SOL    HW1 8852   0.818  12.968   9.407
68985SOL    HW2 8853   0.880  13.101   9.371
68986SOL     OW 8854  11.173   7.469   2.746
68986SOL    HW1 8855  11.093   7.521   2.741
68986SOL    HW2 8856  11.143   7.379   2.760
68987SOL     OW 8857   5.152   6.349   7.983
68987SOL    HW1 8858   5.231   6.315   8.025
68987SOL    HW2 8859   5.124   6.279   7.924
68988SOL     OW 8860  14.522   7.552   8.230
68988SOL    HW1 8861  14.502   7.556   8.323
68988SOL    HW2 8862  14.558   7.464   8.217
68989SOL     OW 8863   0.983   8.743  12.183
68989SOL    HW1 8864   0.969   8.830  12.146
68989SOL    HW2 8865   1.069   8.717  12.151
68990SOL     OW 8866   0.840   6.637   2.956
68990SOL    HW1 8867   0.932   6.611   2.949
68990SOL    HW2 8868   0.812   6.604   3.042
68991SOL     OW 8869  13.898   1.277  10.429
68991SOL    HW1 8870  13.813   1.303  10.392
68991SOL    HW2 8871  13.939   1.226  10.359
68992SOL     OW 8872   0.012   7.625  12.755
68992SOL    HW1 8873   0.039   7.550  12.806
68992SOL    HW2 8874  14.882   7.591  12.666
68993SOL     OW 8875   1.470  13.220   7.765
68993SOL    HW1 8876   1.476  13.125   7.759
68993SOL    HW2 8877   1.416  13.236   7.843
68994SOL     OW 8878   1.154   3.252   3.228
68994SOL    HW1 8879   1.177   3.339   3.197
68994SOL    HW2 8880   1.063   3.260   3.257
68995SOL     OW 8881   1.167  11.841  14.773
68995SOL    HW1 8882   1.206  11.829  14.686
68995SOL    HW2 8883   1.073  11.836  14.758
68996SOL     OW 8884  12.637   7.258   9.048
68996SOL    HW1 8885  12.667   7.260   8.957
68996SOL    HW2 8886  12.711   7.223   9.098
68997SOL     OW 8887   9.316   3.147  11.247
68997SOL    HW1 8888   9.284   3.070  11.294
68997SOL    HW2 8889   9.237   3.188  11.211
68998SOL     OW 8890   7.847  10.578   9.214
68998SOL    HW1 8891   7.912  10.545   9.276
68998SOL    HW2 8892   7.773  10.518   9.223
68999SOL     OW 8893   5.456  14.459  11.717
68999SOL    HW1 8894   5.533  14.516  11.719
68999SOL    HW2 8895   5.473  14.394  11.785
69000SOL     OW 8896  14.179   3.294   1.677
69000SOL    HW1 8897  14.235   3.367   1.703
69000SOL    HW2 8898  14.236   3.239   1.622
69001SOL     OW 8899  13.269   7.044  14.631
69001SOL    HW1 8900  13.355   7.079  14.607
69001SOL    HW2 8901  13.215   7.121  14.646
69002SOL     OW 8902   8.525  14.275   5.925
69002SOL    HW1 8903   8.444  14.319   5.947
69002SOL    HW2 8904   8.590  14.312   5.984
69003SOL     OW 8905   0.916  12.405  14.682
69003SOL    HW1 8906   0.855  12.384  14.611
69003SOL    HW2 8907   0.982  12.335  14.677
69004SOL     OW 8908   1.221   6.106   2.239
69004SOL    HW1 8909   1.306   6.077   2.272
69004SOL    HW2 8910   1.239   6.192   2.199
69005SOL     OW 8911  13.835  11.030   4.244
69005SOL    HW1 8912  13.924  11.015   4.211
69005SOL    HW2 8913  13.784  11.051   4.165
69006SOL     OW 8914   0.345   2.669   2.193
69006SOL    HW1 8915   0.298   2.598   2.151
69006SOL    HW2 8916   0.435   2.660   2.162
69007SOL     OW 8917  14.284   6.931   1.231
69007SOL    HW1 8918  14.361   6.964   1.185
69007SOL    HW2 8919  14.318   6.902   1.316
69008SOL     OW 8920  10.559  11.341   5.719
69008SOL    HW1 8921  10.550  11.336   5.814
69008SOL    HW2 8922  10.568  11.250   5.691
69009SOL     OW 8923   0.802   8.120   0.056
69009SOL    HW1 8924   0.896   8.103   0.055
69009SOL    HW2 8925   0.793   8.202   0.104
69010SOL     OW 8926   0.724   8.198   7.847
69010SOL    HW1 8927   0.778   8.216   7.924
69010SOL    HW2 8928   0.707   8.104   7.852
69011SOL     OW 8929  10.186   4.153   2.239
69011SOL    HW1 8930  10.091   4.154   2.252
69011SOL    HW2 8931  10.214   4.241   2.266
69012SOL     OW 8932   7.865  12.673   8.908
69012SOL    HW1 8933   7.838  12.735   8.840
69012SOL    HW2 8934   7.956  12.697   8.928
69013SOL     OW 8935  14.220   7.365   2.959
69013SOL    HW1 8936  14.200   7.320   2.877
69013SOL    HW2 8937  14.268   7.444   2.932
69014SOL     OW 8938   6.077   5.435   5.509
69014SOL    HW1 8939   6.059   5.401   5.597
69014SOL    HW2 8940   6.158   5.392   5.483
69015SOL     OW 8941   3.218   8.147  10.140
69015SOL    HW1 8942   3.201   8.199  10.062
69015SOL    HW2 8943   3.259   8.209  10.201
69016SOL     OW 8944   6.808  11.061  14.581
69016SOL    HW1 8945   6.814  11.065  14.676
69016SOL    HW2 8946   6.761  11.141  14.556
69017SOL     OW 8947  11.126   5.830   2.411
69017SOL    HW1 8948  11.207   5.810   2.458
69017SOL    HW2 8949  11.106   5.920   2.436
69018SOL     OW 8950   1.939  13.478   0.040
69018SOL    HW1 8951   1.878  13.546   0.011
69018SOL    HW2 8952   1.947  13.492   0.134
69019SOL     OW 8953  11.888  12.118   7.345
69019SOL    HW1 8954  11.817  12.077   7.395
69019SOL    HW2 8955  11.889  12.209   7.375
69020SOL     OW 8956   7.880   5.710  13.581
69020SOL    HW1 8957   7.942   5.733  13.512
69020SOL    HW2 8958   7.793   5.719  13.540
69021SOL     OW 8959  14.430   5.504   4.669
69021SOL    HW1 8960  14.522   5.480   4.684
69021SOL    HW2 8961  14.385   5.422   4.653
69022SOL     OW 8962   4.227   4.436   5.761
69022SOL    HW1 8963   4.230   4.347   5.797
69022SOL    HW2 8964   4.264   4.427   5.673
69023SOL     OW 8965   4.359  14.562  14.122
69023SOL    HW1 8966   4.352  14.602  14.035
69023SOL    HW2 8967   4.274  14.577  14.162
69024SOL     OW 8968   6.679   8.853   6.062
69024SOL    HW1 8969   6.752   8.885   6.114
69024SOL    HW2 8970   6.602   8.896   6.099
69025SOL     OW 8971   2.455   6.591   5.680
69025SOL    HW1 8972   2.390   6.521   5.690
69025SOL    HW2 8973   2.501   6.593   5.764
69026SOL     OW 8974   7.380   6.039  10.035
69026SOL    HW1 8975   7.363   6.133  10.035
69026SOL    HW2 8976   7.300   6.000  10.000
69027SOL     OW 8977  12.488   8.085  14.703
69027SOL    HW1 8978  12.551   8.025  14.661
69027SOL    HW2 8979  12.455   8.036  14.778
69028SOL     OW 8980   7.610  13.586  13.430
69028SOL    HW1 8981   7.588  13.644  13.357
69028SOL    HW2 8982   7.655  13.512  13.389
69029SOL     OW 8983   4.454   7.838  13.792
69029SOL    HW1 8984   4.522   7.832  13.724
69029SOL    HW2 8985   4.482   7.912  13.846
69030SOL     OW 8986   0.855   8.232  13.649
69030SOL    HW1 8987   0.814   8.165  13.595
69030SOL    HW2 8988   0.896   8.183  13.720
69031SOL     OW 8989  11.870   4.198   4.755
69031SOL    HW1 8990  11.929   4.133   4.794
69031SOL    HW2 8991  11.908   4.216   4.669
69032SOL     OW 8992   0.299   8.352  13.139
69032SOL    HW1 8993   0.244   8.422  13.103
69032SOL    HW2 8994   0.361   8.332  13.069
69033SOL     OW 8995   5.539   2.507  14.503
69033SOL    HW1 8996   5.631   2.517  14.478
69033SOL    HW2 8997   5.505   2.596  14.503
69034SOL     OW 8998   3.255  14.645  11.219
69034SOL    HW1 8999   3.254  14.600  11.304
69034SOL    HW2 9000   3.329  14.606  11.173
69035SOL     OW 9001   9.194  13.121   0.605
69035SOL    HW1 9002   9.157  13.116   0.516
69035SOL    HW2 9003   9.251  13.044   0.610
69036SOL     OW 9004   8.057   0.828   2.655
69036SOL    HW1 9005   8.112   0.777   2.714
69036SOL    HW2 9006   7.993   0.766   2.621
69037SOL     OW 9007   8.627   6.996   2.018
69037SOL    HW1 9008   8.539   7.018   2.048
69037SOL    HW2 9009   8.685   7.048   2.073
69038SOL     OW 9010   3.849   8.328   0.388
69038SOL    HW1 9011   3.850   8.248   0.335
69038SOL    HW2 9012   3.922   8.317   0.450
69039SOL     OW 9013   0.968  13.684   7.198
69039SOL    HW1 9014   0.987  13.593   7.177
69039SOL    HW2 9015   0.986  13.692   7.292
69040SOL     OW 9016   5.391   3.820   8.745
69040SOL    HW1 9017   5.425   3.735   8.772
69040SOL    HW2 9018   5.308   3.800   8.702
69041SOL     OW 9019  14.345   6.495  10.902
69041SOL    HW1 9020  14.351   6.484  10.997
69041SOL    HW2 9021  14.299   6.417  10.871
69042SOL     OW 9022   3.728   4.913   3.545
69042SOL    HW1 9023   3.736   4.891   3.637
69042SOL    HW2 9024   3.686   4.836   3.505
69043SOL     OW 9025   6.759   7.441   2.933
69043SOL    HW1 9026   6.714   7.494   2.998
69043SOL    HW2 9027   6.841   7.415   2.975
69044SOL     OW 9028   8.717  14.033   4.128
69044SOL    HW1 9029   8.676  14.093   4.066
69044SOL    HW2 9030   8.705  13.946   4.089
69045SOL     OW 9031   6.004  14.701   3.020
69045SOL    HW1 9032   6.079  14.649   3.049
69045SOL    HW2 9033   6.020  14.789   3.054
69046SOL     OW 9034   3.668   7.376   3.471
69046SOL    HW1 9035   3.654   7.468   3.492
69046SOL    HW2 9036   3.587   7.349   3.427
69047SOL     OW 9037  10.211   5.116   4.040
69047SOL    HW1 9038  10.213   5.124   4.135
69047SOL    HW2 9039  10.230   5.024   4.022
69048SOL     OW 9040   5.817   9.875  10.905
69048SOL    HW1 9041   5.755   9.820  10.954
69048SOL    HW2 9042   5.860   9.929  10.971
69049SOL     OW 9043  10.704   3.697  14.285
69049SOL    HW1 9044  10.705   3.605  14.311
69049SOL    HW2 9045  10.643   3.699  14.211
69050SOL     OW 9046   8.335   2.778  13.556
69050SOL    HW1 9047   8.325   2.868  13.587
69050SOL    HW2 9048   8.426   2.755  13.578
69051SOL     OW 9049   4.459   8.953   4.686
69051SOL    HW1 9050   4.462   8.888   4.756
69051SOL    HW2 9051   4.485   8.905   4.608
69052SOL     OW 9052   5.411  11.089  13.204
69052SOL    HW1 9053   5.357  11.164  13.230
69052SOL    HW2 9054   5.359  11.013  13.227
69053SOL     OW 9055  13.283   1.829  14.067
69053SOL    HW1 9056  13.257   1.802  13.979
69053SOL    HW2 9057  13.331   1.911  14.055
69054SOL     OW 9058   5.910  10.135   0.517
69054SOL    HW1 9059   5.937  10.216   0.473
69054SOL    HW2 9060   5.953  10.139   0.603
69055SOL     OW 9061  12.727  12.327   5.671
69055SOL    HW1 9062  12.679  12.249   5.698
69055SOL    HW2 9063  12.754  12.309   5.581
69056SOL     OW 9064   1.024   9.000  12.903
69056SOL    HW1 9065   0.931   9.021  12.913
69056SOL    HW2 9066   1.029   8.953  12.820
69057SOL     OW 9067   1.819   3.218   3.559
69057SOL    HW1 9068   1.834   3.185   3.647
69057SOL    HW2 9069   1.733   3.261   3.564
69058SOL     OW 9070   7.861   4.994   4.294
69058SOL    HW1 9071   7.880   4.912   4.248
69058SOL    HW2 9072   7.860   4.969   4.387
69059SOL     OW 9073   2.731   9.367   6.303
69059SOL    HW1 9074   2.782   9.421   6.363
69059SOL    HW2 9075   2.785   9.363   6.223
69060SOL     OW 9076   7.247   8.864   2.548
69060SOL    HW1 9077   7.179   8.806   2.516
69060SOL    HW2 9078   7.225   8.949   2.511
69061SOL     OW 9079   0.963   6.076   6.709
69061SOL    HW1 9080   1.047   6.035   6.692
69061SOL    HW2 9081   0.901   6.028   6.654
69062SOL     OW 9082   5.031  12.950   0.644
69062SOL    HW1 9083   5.081  12.981   0.719
69062SOL    HW2 9084   5.075  12.989   0.568
69063SOL     OW 9085  11.049   7.141   1.571
69063SOL    HW1 9086  11.099   7.137   1.652
69063SOL    HW2 9087  10.974   7.084   1.587
69064SOL     OW 9088   7.490   4.068   3.164
69064SOL    HW1 9089   7.496   4.041   3.256
69064SOL    HW2 9090   7.581   4.072   3.135
69065SOL     OW 9091   9.302   2.780   4.009
69065SOL    HW1 9092   9.209   2.789   3.989
69065SOL    HW2 9093   9.336   2.721   3.941
69066SOL     OW 9094   3.699   7.673  12.279
69066SOL    HW1 9095   3.764   7.742  12.269
69066SOL    HW2 9096   3.746   7.592  12.261
69067SOL     OW 9097   5.860   8.823   2.111
69067SOL    HW1 9098   5.929   8.767   2.146
69067SOL    HW2 9099   5.784   8.766   2.101
69068SOL     OW 9100   1.860  10.437  13.817
69068SOL    HW1 9101   1.942  10.427  13.768
69068SOL    HW2 9102   1.833  10.527  13.799
69069SOL     OW 9103   0.419  12.328   0.161
69069SOL    HW1 9104   0.481  12.350   0.092
69069SOL    HW2 9105   0.368  12.255   0.125
69070SOL     OW 9106  10.029   7.713   1.677
69070SOL    HW1 9107  10.016   7.624   1.642
69070SOL    HW2 9108   9.969   7.718   1.752
69071SOL     OW 9109   2.877   8.164  10.975
69071SOL    HW1 9110   2.884   8.098  11.044
69071SOL    HW2 9111   2.964   8.166  10.935
69072SOL     OW 9112   1.752  13.448   0.422
69072SOL    HW1 9113   1.689  13.518   0.438
69072SOL    HW2 9114   1.701  13.379   0.379
69073SOL     OW 9115   1.337  11.719   0.513
69073SOL    HW1 9116   1.358  11.626   0.526
69073SOL    HW2 9117   1.251  11.730   0.554
69074SOL     OW 9118   8.112   3.625   7.482
69074SOL    HW1 9119   8.037   3.650   7.535
69074SOL    HW2 9120   8.175   3.697   7.493
69075SOL     OW 9121  10.018   5.870   1.459
69075SOL    HW1 9122   9.930   5.845   1.486
69075SOL    HW2 9123  10.005   5.939   1.394
69076SOL     OW 9124   6.706   3.734   2.201
69076SOL    HW1 9125   6.690   3.806   2.140
69076SOL    HW2 9126   6.794   3.703   2.179
69077SOL     OW 9127   4.797  12.773   7.138
69077SOL    HW1 9128   4.818  12.698   7.083
69077SOL    HW2 9129   4.851  12.762   7.216
69078SOL     OW 9130  12.539   2.025   8.936
69078SOL    HW1 9131  12.478   1.981   8.995
69078SOL    HW2 9132  12.511   2.116   8.937
69079SOL     OW 9133   8.184   6.024  10.632
69079SOL    HW1 9134   8.198   6.112  10.598
69079SOL    HW2 9135   8.272   5.987  10.641
69080SOL     OW 9136   4.901   2.540  13.324
69080SOL    HW1 9137   4.946   2.459  13.351
69080SOL    HW2 9138   4.882   2.585  13.405
69081SOL     OW 9139   2.754  11.539  14.470
69081SOL    HW1 9140   2.755  11.471  14.403
69081SOL    HW2 9141   2.743  11.620  14.421
69082SOL     OW 9142   2.736   5.042   3.208
69082SOL    HW1 9143   2.824   5.062   3.240
69082SOL    HW2 9144   2.684   5.029   3.288
69083SOL     OW 9145  11.827   5.733   9.000
69083SOL    HW1 9146  11.881   5.746   9.078
69083SOL    HW2 9147  11.758   5.673   9.028
69084SOL     OW 9148   9.123   2.400  13.158
69084SOL    HW1 9149   9.211   2.376  13.184
69084SOL    HW2 9150   9.104   2.481  13.206
69085SOL     OW 9151   6.810   5.917   5.330
69085SOL    HW1 9152   6.782   5.892   5.418
69085SOL    HW2 9153   6.773   6.005   5.317
69086SOL     OW 9154  11.282   6.508   1.241
69086SOL    HW1 9155  11.274   6.603   1.253
69086SOL    HW2 9156  11.289   6.473   1.330
69087SOL     OW 9157   1.255   9.699   5.123
69087SOL    HW1 9158   1.264   9.794   5.126
69087SOL    HW2 9159   1.189   9.679   5.189
69088SOL     OW 9160  11.232   4.824   3.948
69088SOL    HW1 9161  11.317   4.869   3.954
69088SOL    HW2 9162  11.169   4.894   3.931
69089SOL     OW 9163   6.169   8.723   2.887
69089SOL    HW1 9164   6.163   8.787   2.816
69089SOL    HW2 9165   6.230   8.762   2.950
69090SOL     OW 9166   1.316   8.563   6.001
69090SOL    HW1 9167   1.318   8.502   6.075
69090SOL    HW2 9168   1.247   8.530   5.944
69091SOL     OW 9169   4.247   4.348  11.350
69091SOL    HW1 9170   4.181   4.417  11.346
69091SOL    HW2 9171   4.317   4.385  11.405
69092SOL     OW 9172   4.592   1.965   5.216
69092SOL    HW1 9173   4.590   1.873   5.242
69092SOL    HW2 9174   4.664   1.971   5.154
69093SOL     OW 9175  12.127  10.047   3.621
69093SOL    HW1 9176  12.035  10.031   3.603
69093SOL    HW2 9177  12.129  10.132   3.665
69094SOL     OW 9178   1.148  10.392   9.215
69094SOL    HW1 9179   1.093  10.357   9.145
69094SOL    HW2 9180   1.188  10.314   9.254
69095SOL     OW 9181   9.693   2.430  12.962
69095SOL    HW1 9182   9.690   2.337  12.985
69095SOL    HW2 9183   9.627   2.439  12.893
69096SOL     OW 9184   5.972  14.226   2.341
69096SOL    HW1 9185   5.933  14.306   2.377
69096SOL    HW2 9186   6.051  14.255   2.297
69097SOL     OW 9187  13.301  12.748   8.554
69097SOL    HW1 9188  13.327  12.812   8.488
69097SOL    HW2 9189  13.351  12.669   8.531
69098SOL     OW 9190   3.944   6.759   9.901
69098SOL    HW1 9191   3.892   6.714   9.967
69098SOL    HW2 9192   3.997   6.822   9.950
69099SOL     OW 9193  12.610  14.508   6.535
69099SOL    HW1 9194  12.556  14.468   6.603
69099SOL    HW2 9195  12.636  14.434   6.479
69100SOL     OW 9196  10.575  12.688  13.356
69100SOL    HW1 9197  10.586  12.724  13.268
69100SOL    HW2 9198  10.652  12.633  13.370
69101SOL     OW 9199  13.847   3.639  11.092
69101SOL    HW1 9200  13.784   3.575  11.125
69101SOL    HW2 9201  13.807   3.674  11.012
69102SOL     OW 9202  12.239   5.035   7.226
69102SOL    HW1 9203  12.228   5.106   7.163
69102SOL    HW2 9204  12.156   4.987   7.223
69103SOL     OW 9205   8.629   3.894   9.515
69103SOL    HW1 9206   8.558   3.921   9.573
69103SOL    HW2 9207   8.628   3.958   9.444
69104SOL     OW 9208  10.785  12.650   3.334
69104SOL    HW1 9209  10.690  12.638   3.326
69104SOL    HW2 9210  10.821  12.618   3.251
69105SOL     OW 9211   6.298   5.293  14.876
69105SOL    HW1 9212   6.358   5.366   0.015
69105SOL    HW2 9213   6.282   5.302  14.782
69106SOL     OW 9214   6.965  13.662   2.633
69106SOL    HW1 9215   6.926  13.687   2.549
69106SOL    HW2 9216   6.901  13.691   2.698
69107SOL     OW 9217   9.278   2.739   6.707
69107SOL    HW1 9218   9.317   2.753   6.621
69107SOL    HW2 9219   9.274   2.826   6.747
69108SOL     OW 9220   6.411   0.808   9.660
69108SOL    HW1 9221   6.454   0.729   9.694
69108SOL    HW2 9222   6.466   0.835   9.586
69109SOL     OW 9223   1.845  14.534  13.857
69109SOL    HW1 9224   1.760  14.560  13.892
69109SOL    HW2 9225   1.861  14.595  13.785
69110SOL     OW 9226   9.486   4.329  13.488
69110SOL    HW1 9227   9.528   4.388  13.550
69110SOL    HW2 9228   9.559   4.282  13.447
69111SOL     OW 9229  10.412  12.086  14.775
69111SOL    HW1 9230  10.343  12.025  14.750
69111SOL    HW2 9231  10.478  12.078  14.707
69112SOL     OW 9232  11.763   1.253   7.797
69112SOL    HW1 9233  11.737   1.265   7.888
69112SOL    HW2 9234  11.791   1.161   7.792
69113SOL     OW 9235   6.813  11.577  14.111
69113SOL    HW1 9236   6.775  11.601  14.026
69113SOL    HW2 9237   6.768  11.631  14.174
69114SOL     OW 9238   7.382  14.544  13.011
69114SOL    HW1 9239   7.470  14.555  13.048
69114SOL    HW2 9240   7.376  14.609  12.942
69115SOL     OW 9241   4.032   8.746   4.255
69115SOL    HW1 9242   3.941   8.739   4.282
69115SOL    HW2 9243   4.058   8.657   4.233
69116SOL     OW 9244  10.828  10.767   1.460
69116SOL    HW1 9245  10.809  10.674   1.467
69116SOL    HW2 9246  10.840  10.782   1.366
69117SOL     OW 9247   2.696   3.861   4.453
69117SOL    HW1 9248   2.667   3.850   4.363
69117SOL    HW2 9249   2.779   3.909   4.446
69118SOL     OW 9250  13.786  10.752  11.790
69118SOL    HW1 9251  13.705  10.730  11.744
69118SOL    HW2 9252  13.758  10.791  11.872
69119SOL     OW 9253   2.510  12.211  11.086
69119SOL    HW1 9254   2.573  12.282  11.073
69119SOL    HW2 9255   2.507  12.198  11.181
69120SOL     OW 9256   7.832  11.272   9.078
69120SOL    HW1 9257   7.787  11.190   9.059
69120SOL    HW2 9258   7.768  11.324   9.127
69121SOL     OW 9259   7.655  12.262   1.879
69121SOL    HW1 9260   7.730  12.211   1.908
69121SOL    HW2 9261   7.592  12.254   1.951
69122SOL     OW 9262   7.407   8.758   2.729
69122SOL    HW1 9263   7.415   8.812   2.808
69122SOL    HW2 9264   7.340   8.801   2.677
69123SOL     OW 9265   3.400   7.440   2.853
69123SOL    HW1 9266   3.457   7.435   2.929
69123SOL    HW2 9267   3.347   7.518   2.868
69124SOL     OW 9268   7.201   7.228   5.570
69124SOL    HW1 9269   7.273   7.226   5.508
69124SOL    HW2 9270   7.148   7.303   5.542
69125SOL     OW 9271   3.624   0.292  12.477
69125SOL    HW1 9272   3.682   0.349  12.527
69125SOL    HW2 9273   3.680   0.222  12.445
69126SOL     OW 9274   5.899   8.026   5.258
69126SOL    HW1 9275   5.982   8.073   5.249
69126SOL    HW2 9276   5.838   8.091   5.292
69127SOL     OW 9277  12.114   1.696   6.909
69127SOL    HW1 9278  12.196   1.726   6.870
69127SOL    HW2 9279  12.140   1.659   6.993
69128SOL     OW 9280   6.200  12.921   9.601
69128SOL    HW1 9281   6.179  12.973   9.524
69128SOL    HW2 9282   6.269  12.861   9.571
69129SOL     OW 9283   6.396   9.812   2.318
69129SOL    HW1 9284   6.347   9.735   2.289
69129SOL    HW2 9285   6.405   9.801   2.413
69130SOL     OW 9286  10.479   7.635   5.679
69130SOL    HW1 9287  10.478   7.725   5.647
69130SOL    HW2 9288  10.524   7.641   5.764
69131SOL     OW 9289   1.440   8.351  11.548
69131SOL    HW1 9290   1.487   8.392  11.475
69131SOL    HW2 9291   1.364   8.310  11.508
69132SOL     OW 9292   5.964   5.630  12.932
69132SOL    HW1 9293   5.979   5.603  13.023
69132SOL    HW2 9294   5.958   5.725  12.937
69133SOL     OW 9295  11.192  13.466  12.924
69133SOL    HW1 9296  11.176  13.510  13.008
69133SOL    HW2 9297  11.223  13.379  12.949
69134SOL     OW 9298   5.947   3.563   0.902
69134SOL    HW1 9299   5.885   3.539   0.971
69134SOL    HW2 9300   6.001   3.631   0.941
69135SOL     OW 9301   4.951   1.646  12.048
69135SOL    HW1 9302   4.994   1.628  12.132
69135SOL    HW2 9303   5.017   1.693  11.997
69136SOL     OW 9304  13.073   6.299   1.123
69136SOL    HW1 9305  13.056   6.287   1.030
69136SOL    HW2 9306  13.169   6.308   1.128
69137SOL     OW 9307  11.145  14.699  11.580
69137SOL    HW1 9308  11.120  14.710  11.488
69137SOL    HW2 9309  11.104  14.773  11.625
69138SOL     OW 9310  12.184   0.648  11.964
69138SOL    HW1 9311  12.113   0.607  11.914
69138SOL    HW2 9312  12.154   0.646  12.055
69139SOL     OW 9313  14.311   4.812   4.645
69139SOL    HW1 9314  14.268   4.733   4.613
69139SOL    HW2 9315  14.345   4.855   4.566
69140SOL     OW 9316   4.533   8.904  14.689
69140SOL    HW1 9317   4.566   8.994  14.700
69140SOL    HW2 9318   4.612   8.850  14.680
69141SOL     OW 9319  10.857  12.149   3.389
69141SOL    HW1 9320  10.867  12.241   3.412
69141SOL    HW2 9321  10.928  12.132   3.328
69142SOL     OW 9322  10.706  13.457   7.575
69142SOL    HW1 9323  10.687  13.369   7.609
69142SOL    HW2 9324  10.638  13.512   7.614
69143SOL     OW 9325   6.053   3.759   6.704
69143SOL    HW1 9326   5.966   3.772   6.740
69143SOL    HW2 9327   6.059   3.665   6.686
69144SOL     OW 9328  10.309   9.897   7.252
69144SOL    HW1 9329  10.334   9.982   7.289
69144SOL    HW2 9330  10.343   9.833   7.315
69145SOL     OW 9331  13.588   3.301   1.210
69145SOL    HW1 9332  13.593   3.324   1.117
69145SOL    HW2 9333  13.650   3.360   1.252
69146SOL     OW 9334   8.447   0.423   6.549
69146SOL    HW1 9335   8.427   0.516   6.545
69146SOL    HW2 9336   8.504   0.413   6.625
69147SOL     OW 9337   7.078  13.111   1.748
69147SOL    HW1 9338   7.048  13.084   1.834
69147SOL    HW2 9339   7.173  13.111   1.754
69148SOL     OW 9340   9.983   2.782   3.546
69148SOL    HW1 9341  10.065   2.779   3.596
69148SOL    HW2 9342   9.914   2.785   3.613
69149SOL     OW 9343   7.728  12.850   7.834
69149SOL    HW1 9344   7.700  12.800   7.910
69149SOL    HW2 9345   7.691  12.802   7.759
69150SOL     OW 9346   8.364   5.121   7.691
69150SOL    HW1 9347   8.303   5.107   7.763
69150SOL    HW2 9348   8.354   5.044   7.635
69151SOL     OW 9349   6.825  12.407   0.652
69151SOL    HW1 9350   6.907  12.445   0.683
69151SOL    HW2 9351   6.807  12.335   0.712
69152SOL     OW 9352  11.831   1.336   5.305
69152SOL    HW1 9353  11.738   1.327   5.284
69152SOL    HW2 9354  11.870   1.377   5.228
69153SOL     OW 9355  14.726   8.772   6.639
69153SOL    HW1 9356  14.637   8.808   6.642
69153SOL    HW2 9357  14.782   8.843   6.671
69154SOL     OW 9358  14.478  13.165   3.397
69154SOL    HW1 9359  14.541  13.184   3.327
69154SOL    HW2 9360  14.531  13.161   3.476
69155SOL     OW 9361   9.151  12.969   8.074
69155SOL    HW1 9362   9.105  13.052   8.060
69155SOL    HW2 9363   9.235  12.994   8.113
69156SOL     OW 9364   5.304   4.870   0.060
69156SOL    HW1 9365   5.242   4.914   0.117
69156SOL    HW2 9366   5.281   4.899  14.854
69157SOL     OW 9367   6.359   5.726   2.995
69157SOL    HW1 9368   6.409   5.661   2.946
69157SOL    HW2 9369   6.289   5.753   2.936
69158SOL     OW 9370  10.706   1.227  12.678
69158SOL    HW1 9371  10.663   1.257  12.758
69158SOL    HW2 9372  10.656   1.269  12.608
69159SOL     OW 9373   3.036  11.556   1.895
69159SOL    HW1 9374   3.078  11.621   1.839
69159SOL    HW2 9375   3.109  11.513   1.941
69160SOL     OW 9376  10.987   7.884   5.987
69160SOL    HW1 9377  11.058   7.914   5.930
69160SOL    HW2 9378  10.992   7.941   6.063
69161SOL     OW 9379   7.633   2.330   0.975
69161SOL    HW1 9380   7.698   2.340   0.906
69161SOL    HW2 9381   7.645   2.240   1.007
69162SOL     OW 9382  12.730   2.075  11.678
69162SOL    HW1 9383  12.744   1.986  11.712
69162SOL    HW2 9384  12.772   2.132  11.743
69163SOL     OW 9385   1.117   7.260   3.884
69163SOL    HW1 9386   1.175   7.197   3.926
69163SOL    HW2 9387   1.038   7.259   3.938
69164SOL     OW 9388   6.186   0.513   7.192
69164SOL    HW1 9389   6.123   0.519   7.120
69164SOL    HW2 9390   6.271   0.529   7.151
69165SOL     OW 9391  12.350   2.821  10.432
69165SOL    HW1 9392  12.320   2.886  10.368
69165SOL    HW2 9393  12.304   2.845  10.513
69166SOL     OW 9394   1.481   5.804   9.004
69166SOL    HW1 9395   1.525   5.729   9.044
69166SOL    HW2 9396   1.528   5.820   8.922
69167SOL     OW 9397  13.545   0.296   6.484
69167SOL    HW1 9398  13.638   0.280   6.467
69167SOL    HW2 9399  13.530   0.259   6.571
69168SOL     OW 9400   4.839   0.948  14.408
69168SOL    HW1 9401   4.927   0.915  14.419
69168SOL    HW2 9402   4.825   0.950  14.313
69169SOL     OW 9403   8.950   6.870  13.233
69169SOL    HW1 9404   8.854   6.873  13.228
69169SOL    HW2 9405   8.977   6.839  13.147
69170SOL     OW 9406  14.584   6.668   8.964
69170SOL    HW1 9407  14.671   6.701   8.987
69170SOL    HW2 9408  14.574   6.688   8.871
69171SOL     OW 9409   8.832   9.425  12.168
69171SOL    HW1 9410   8.810   9.494  12.105
69171SOL    HW2 9411   8.840   9.346  12.115
69172SOL     OW 9412   0.658  11.696   4.402
69172SOL    HW1 9413   0.734  11.741   4.366
69172SOL    HW2 9414   0.585  11.722   4.344
69173SOL     OW 9415   4.100   2.347  11.469
69173SOL    HW1 9416   4.063   2.393  11.394
69173SOL    HW2 9417   4.025   2.312  11.516
69174SOL     OW 9418  11.405   1.725   9.297
69174SOL    HW1 9419  11.340   1.782   9.337
69174SOL    HW2 9420  11.435   1.773   9.219
69175SOL     OW 9421   2.186   3.674   7.850
69175SOL    HW1 9422   2.217   3.682   7.940
69175SOL    HW2 9423   2.197   3.581   7.829
69176SOL     OW 9424  13.350   2.999   8.704
69176SOL    HW1 9425  13.403   2.959   8.635
69176SOL    HW2 9426  13.375   2.953   8.784
69177SOL     OW 9427   0.214  10.617   8.738
69177SOL    HW1 9428   0.232  10.536   8.786
69177SOL    HW2 9429   0.294  10.668   8.746
69178SOL     OW 9430  14.810   5.361   9.556
69178SOL    HW1 9431  14.858   5.387   9.634
69178SOL    HW2 9432  14.718   5.366   9.581
69179SOL     OW 9433  10.072  14.117   7.598
69179SOL    HW1 9434  10.002  14.138   7.659
69179SOL    HW2 9435  10.108  14.202   7.573
69180SOL     OW 9436  12.069   8.996   9.477
69180SOL    HW1 9437  12.020   9.070   9.440
69180SOL    HW2 9438  12.028   8.919   9.439
69181SOL     OW 9439   4.771   8.225   1.738
69181SOL    HW1 9440   4.798   8.134   1.721
69181SOL    HW2 9441   4.723   8.220   1.820
69182SOL     OW 9442   7.957  10.226   7.882
69182SOL    HW1 9443   8.012  10.304   7.888
69182SOL    HW2 9444   7.953  10.192   7.972
69183SOL     OW 9445   3.999   0.009   9.379
69183SOL    HW1 9446   4.002  14.817   9.439
69183SOL    HW2 9447   4.065  14.871   9.313
69184SOL     OW 9448  12.340  11.625   4.454
69184SOL    HW1 9449  12.339  11.697   4.391
69184SOL    HW2 9450  12.332  11.546   4.401
69185SOL     OW 9451   2.887   7.029   8.058
69185SOL    HW1 9452   2.880   6.965   7.986
69185SOL    HW2 9453   2.815   7.008   8.116
69186SOL     OW 9454   4.291  11.574   2.944
69186SOL    HW1 9455   4.259  11.615   3.024
69186SOL    HW2 9456   4.371  11.622   2.923
69187SOL     OW 9457  12.530  13.628  11.712
69187SOL    HW1 9458  12.504  13.719  11.698
69187SOL    HW2 9459  12.623  13.626  11.688
69188SOL     OW 9460   0.502   1.395   1.973
69188SOL    HW1 9461   0.469   1.340   2.045
69188SOL    HW2 9462   0.502   1.484   2.010
69189SOL     OW 9463   5.999  10.956   6.958
69189SOL    HW1 9464   5.912  10.986   6.983
69189SOL    HW2 9465   6.057  10.992   7.024
69190SOL     OW 9466  12.443   4.968   5.822
69190SOL    HW1 9467  12.480   5.056   5.811
69190SOL    HW2 9468  12.520   4.911   5.826
69191SOL     OW 9469   6.633   6.541   5.392
69191SOL    HW1 9470   6.663   6.626   5.425
69191SOL    HW2 9471   6.690   6.477   5.435
69192SOL     OW 9472   8.310   7.419   6.922
69192SOL    HW1 9473   8.289   7.510   6.943
69192SOL    HW2 9474   8.262   7.403   6.840
69193SOL     OW 9475   6.105   0.375   5.003
69193SOL    HW1 9476   6.119   0.442   4.936
69193SOL    HW2 9477   6.160   0.301   4.976
69194SOL     OW 9478  12.647  11.852  14.485
69194SOL    HW1 9479  12.615  11.942  14.489
69194SOL    HW2 9480  12.669  11.838  14.393
69195SOL     OW 9481   6.847  10.219  12.488
69195SOL    HW1 9482   6.907  10.286  12.519
69195SOL    HW2 9483   6.889  10.182  12.411
69196SOL     OW 9484   5.319   7.014   1.460
69196SOL    HW1 9485   5.323   6.922   1.484
69196SOL    HW2 9486   5.236   7.023   1.413
69197SOL     OW 9487   2.621   0.139   6.408
69197SOL    HW1 9488   2.610   0.115   6.500
69197SOL    HW2 9489   2.600   0.232   6.405
69198SOL     OW 9490  10.146   0.062  10.247
69198SOL    HW1 9491  10.174   0.147  10.211
69198SOL    HW2 9492  10.055   0.055  10.220
69199SOL     OW 9493   4.413   2.182   0.265
69199SOL    HW1 9494   4.479   2.114   0.253
69199SOL    HW2 9495   4.351   2.169   0.194
69200SOL     OW 9496   9.190  12.825   7.538
69200SOL    HW1 9497   9.199  12.918   7.558
69200SOL    HW2 9498   9.191  12.781   7.623
69201SOL     OW 9499   4.234   3.606   0.647
69201SOL    HW1 9500   4.162   3.563   0.601
69201SOL    HW2 9501   4.191   3.658   0.715
69202SOL     OW 9502   1.145  12.276   9.492
69202SOL    HW1 9503   1.067  12.220   9.490
69202SOL    HW2 9504   1.129  12.337   9.565
69203SOL     OW 9505   6.597   0.526   5.625
69203SOL    HW1 9506   6.551   0.542   5.543
69203SOL    HW2 9507   6.568   0.595   5.683
69204SOL     OW 9508   8.700   8.855  10.782
69204SOL    HW1 9509   8.629   8.919  10.788
69204SOL    HW2 9510   8.692   8.818  10.695
69205SOL     OW 9511   0.901   0.739  13.791
69205SOL    HW1 9512   0.954   0.818  13.797
69205SOL    HW2 9513   0.905   0.701  13.879
69206SOL     OW 9514   6.291   1.601  13.664
69206SOL    HW1 9515   6.383   1.576  13.671
69206SOL    HW2 9516   6.278   1.623  13.572
69207SOL     OW 9517  13.282   6.610  13.037
69207SOL    HW1 9518  13.234   6.676  12.987
69207SOL    HW2 9519  13.367   6.650  13.055
69208SOL     OW 9520   8.795   4.667  14.235
69208SOL    HW1 9521   8.822   4.587  14.281
69208SOL    HW2 9522   8.768   4.727  14.305
69209SOL     OW 9523   2.474   7.191   6.605
69209SOL    HW1 9524   2.425   7.243   6.541
69209SOL    HW2 9525   2.498   7.111   6.558
69210SOL     OW 9526  12.266   1.846   5.796
69210SOL    HW1 9527  12.326   1.889   5.857
69210SOL    HW2 9528  12.281   1.889   5.712
69211SOL     OW 9529   3.828   6.358  13.003
69211SOL    HW1 9530   3.797   6.443  13.035
69211SOL    HW2 9531   3.753   6.299  13.017
69212SOL     OW 9532  10.473   5.342  12.300
69212SOL    HW1 9533  10.449   5.378  12.215
69212SOL    HW2 9534  10.448   5.250  12.295
69213SOL     OW 9535  11.898  12.450   3.081
69213SOL    HW1 9536  11.900  12.541   3.111
69213SOL    HW2 9537  11.983  12.415   3.108
69214SOL     OW 9538   2.720   3.508   4.310
69214SOL    HW1 9539   2.691   3.590   4.271
69214SOL    HW2 9540   2.649   3.483   4.369
69215SOL     OW 9541   0.148  12.051  11.123
69215SOL    HW1 9542   0.215  11.996  11.083
69215SOL    HW2 9543   0.072  12.042  11.065
69216SOL     OW 9544   7.432   1.070   1.300
69216SOL    HW1 9545   7.458   1.077   1.392
69216SOL    HW2 9546   7.515   1.066   1.253
69217SOL     OW 9547   3.420   5.329   2.388
69217SOL    HW1 9548   3.447   5.421   2.386
69217SOL    HW2 9549   3.347   5.326   2.451
69218SOL     OW 9550   3.131   3.044   5.696
69218SOL    HW1 9551   3.225   3.034   5.681
69218SOL    HW2 9552   3.090   2.990   5.628
69219SOL     OW 9553   1.242   2.416  12.059
69219SOL    HW1 9554   1.189   2.378  12.129
69219SOL    HW2 9555   1.278   2.340  12.013
69220SOL     OW 9556   5.834   9.740   6.026
69220SOL    HW1 9557   5.902   9.807   6.033
69220SOL    HW2 9558   5.759   9.787   5.990
69221SOL     OW 9559   8.775   5.426  12.135
69221SOL    HW1 9560   8.748   5.464  12.218
69221SOL    HW2 9561   8.795   5.501  12.079
69222SOL     OW 9562  14.405   8.607   1.899
69222SOL    HW1 9563  14.403   8.640   1.809
69222SOL    HW2 9564  14.479   8.653   1.940
69223SOL     OW 9565   7.404   6.932   3.579
69223SOL    HW1 9566   7.327   6.983   3.604
69223SOL    HW2 9567   7.369   6.857   3.530
69224SOL     OW 9568  10.837   2.117   8.821
69224SOL    HW1 9569  10.926   2.142   8.795
69224SOL    HW2 9570  10.790   2.104   8.739
69225SOL     OW 9571   4.180   1.091   7.441
69225SOL    HW1 9572   4.205   1.010   7.398
69225SOL    HW2 9573   4.263   1.135   7.461
69226SOL     OW 9574  11.769  13.292  10.216
69226SOL    HW1 9575  11.856  13.281  10.254
69226SOL    HW2 9576  11.715  13.226  10.260
69227SOL     OW 9577   5.974   6.219   1.927
69227SOL    HW1 9578   6.032   6.284   1.967
69227SOL    HW2 9579   5.957   6.252   1.839
69228SOL     OW 9580  13.596   8.506   6.067
69228SOL    HW1 9581  13.549   8.540   6.144
69228SOL    HW2 9582  13.669   8.456   6.104
69229SOL     OW 9583   8.975  11.999  14.633
69229SOL    HW1 9584   9.028  11.970  14.708
69229SOL    HW2 9585   8.969  11.921  14.577
69230SOL     OW 9586   1.005  14.853   1.662
69230SOL    HW1 9587   1.049  14.774   1.692
69230SOL    HW2 9588   0.988  14.837   1.570
69231SOL     OW 9589  14.587   8.366  14.764
69231SOL    HW1 9590  14.636   8.292  14.726
69231SOL    HW2 9591  14.651   8.437  14.766
69232SOL     OW 9592   7.686   3.841  13.292
69232SOL    HW1 9593   7.756   3.901  13.319
69232SOL    HW2 9594   7.626   3.896  13.243
69233SOL     OW 9595   4.713  11.069   6.593
69233SOL    HW1 9596   4.758  11.153   6.583
69233SOL    HW2 9597   4.782  11.004   6.581
69234SOL     OW 9598  14.036   9.679   2.974
69234SOL    HW1 9599  14.100   9.740   3.011
69234SOL    HW2 9600  14.085   9.627   2.910
69235SOL     OW 9601   0.621   9.330  10.349
69235SOL    HW1 9602   0.688   9.271  10.382
69235SOL    HW2 9603   0.668   9.391  10.292
69236SOL     OW 9604  11.618  10.787   3.259
69236SOL    HW1 9605  11.633  10.869   3.306
69236SOL    HW2 9606  11.527  10.793   3.230
69237SOL     OW 9607   9.952   6.630  12.580
69237SOL    HW1 9608   9.973   6.603  12.490
69237SOL    HW2 9609   9.934   6.723  12.573
69238SOL     OW 9610  12.140   8.539   1.377
69238SOL    HW1 9611  12.126   8.498   1.291
69238SOL    HW2 9612  12.188   8.474   1.428
69239SOL     OW 9613   4.788   8.403   0.230
69239SOL    HW1 9614   4.811   8.419   0.138
69239SOL    HW2 9615   4.850   8.336   0.259
69240SOL     OW 9616   1.681   2.619  11.647
69240SOL    HW1 9617   1.663   2.526  11.630
69240SOL    HW2 9618   1.723   2.620  11.734
69241SOL     OW 9619   2.943   5.110   4.860
69241SOL    HW1 9620   2.861   5.061   4.872
69241SOL    HW2 9621   2.977   5.080   4.776
69242SOL     OW 9622   7.628  10.065   7.095
69242SOL    HW1 9623   7.542  10.095   7.067
69242SOL    HW2 9624   7.666  10.025   7.017
69243SOL     OW 9625   6.053   4.562   8.583
69243SOL    HW1 9626   6.022   4.624   8.517
69243SOL    HW2 9627   6.034   4.605   8.666
69244SOL     OW 9628  12.021  10.241   8.793
69244SOL    HW1 9629  12.069  10.268   8.714
69244SOL    HW2 9630  11.967  10.316   8.814
69245SOL     OW 9631  10.190   7.972   1.096
69245SOL    HW1 9632  10.119   7.981   1.160
69245SOL    HW2 9633  10.239   7.895   1.126
69246SOL     OW 9634  10.902   8.863   1.413
69246SOL    HW1 9635  10.930   8.843   1.502
69246SOL    HW2 9636  10.982   8.886   1.366
69247SOL     OW 9637  10.568   4.995   0.163
69247SOL    HW1 9638  10.522   4.915   0.140
69247SOL    HW2 9639  10.622   4.971   0.238
69248SOL     OW 9640   1.045  13.168   2.852
69248SOL    HW1 9641   1.130  13.212   2.852
69248SOL    HW2 9642   1.066  13.075   2.840
69249SOL     OW 9643   9.234  11.964   4.163
69249SOL    HW1 9644   9.225  11.884   4.112
69249SOL    HW2 9645   9.147  11.981   4.198
69250SOL     OW 9646   8.172   6.800  11.994
69250SOL    HW1 9647   8.167   6.824  12.087
69250SOL    HW2 9648   8.087   6.828  11.958
69251SOL     OW 9649   5.186   4.137   8.520
69251SOL    HW1 9650   5.278   4.130   8.495
69251SOL    HW2 9651   5.143   4.172   8.443
69252SOL     OW 9652  12.325   1.129   9.039
69252SOL    HW1 9653  12.246   1.175   9.011
69252SOL    HW2 9654  12.395   1.169   8.987
69253SOL     OW 9655  14.724   1.105   4.587
69253SOL    HW1 9656  14.739   1.068   4.500
69253SOL    HW2 9657  14.633   1.084   4.606
69254SOL     OW 9658   8.540   1.000  12.000
69254SOL    HW1 9659   8.608   1.058  11.968
69254SOL    HW2 9660   8.538   1.013  12.094
69255SOL     OW 9661   7.315  12.587  11.774
69255SOL    HW1 9662   7.396  12.625  11.807
69255SOL    HW2 9663   7.311  12.501  11.816
69256SOL     OW 9664   8.486   6.016   6.591
69256SOL    HW1 9665   8.458   6.028   6.682
69256SOL    HW2 9666   8.547   6.088   6.575
69257SOL     OW 9667   1.048   4.775   9.868
69257SOL    HW1 9668   1.002   4.740   9.945
69257SOL    HW2 9669   1.045   4.869   9.880
69258SOL     OW 9670   1.560   7.248  14.405
69258SOL    HW1 9671   1.573   7.276  14.315
69258SOL    HW2 9672   1.580   7.154  14.404
69259SOL     OW 9673   6.830   2.424   3.123
69259SOL    HW1 9674   6.736   2.440   3.127
69259SOL    HW2 9675   6.851   2.434   3.030
69260SOL     OW 9676   7.451   8.232   1.010
69260SOL    HW1 9677   7.502   8.156   1.037
69260SOL    HW2 9678   7.480   8.250   0.920
69261SOL     OW 9679   1.290   7.660   1.237
69261SOL    HW1 9680   1.382   7.686   1.228
69261SOL    HW2 9681   1.255   7.666   1.148
69262SOL     OW 9682   6.266   9.208   0.644
69262SOL    HW1 9683   6.296   9.298   0.631
69262SOL    HW2 9684   6.172   9.217   0.664
69263SOL     OW 9685   6.843   3.187   3.544
69263SOL    HW1 9686   6.834   3.100   3.504
69263SOL    HW2 9687   6.753   3.215   3.561
69264SOL     OW 9688  10.852   1.605  14.821
69264SOL    HW1 9689  10.884   1.515  14.825
69264SOL    HW2 9690  10.759   1.599  14.839
69265SOL     OW 9691   8.064   1.118  12.951
69265SOL    HW1 9692   8.098   1.132  13.040
69265SOL    HW2 9693   8.014   1.036  12.957
69266SOL     OW 9694  12.987   5.442  11.253
69266SOL    HW1 9695  13.052   5.440  11.322
69266SOL    HW2 9696  13.037   5.433  11.172
69267SOL     OW 9697   8.679   3.789   4.648
69267SOL    HW1 9698   8.674   3.723   4.578
69267SOL    HW2 9699   8.720   3.865   4.605
69268SOL     OW 9700   7.005   3.779  11.097
69268SOL    HW1 9701   7.022   3.783  11.003
69268SOL    HW2 9702   6.910   3.763  11.103
69269SOL     OW 9703   7.339   6.993  13.751
69269SOL    HW1 9704   7.387   7.002  13.833
69269SOL    HW2 9705   7.367   7.068  13.698
69270SOL     OW 9706   0.343  14.217   0.232
69270SOL    HW1 9707   0.280  14.264   0.178
69270SOL    HW2 9708   0.320  14.125   0.220
69271SOL     OW 9709   9.630   7.620   2.479
69271SOL    HW1 9710   9.692   7.690   2.495
69271SOL    HW2 9711   9.589   7.641   2.395
69272SOL     OW 9712   1.568   1.841   5.888
69272SOL    HW1 9713   1.655   1.860   5.923
69272SOL    HW2 9714   1.582   1.768   5.827
69273SOL     OW 9715   4.212  14.680  10.340
69273SOL    HW1 9716   4.159  14.601  10.349
69273SOL    HW2 9717   4.149  14.748  10.315
69274SOL     OW 9718   0.174  12.856   6.110
69274SOL    HW1 9719   0.132  12.922   6.055
69274SOL    HW2 9720   0.163  12.774   6.062
69275SOL     OW 9721  13.991  13.711  11.248
69275SOL    HW1 9722  14.012  13.736  11.337
69275SOL    HW2 9723  13.926  13.641  11.257
69276SOL     OW 9724   8.456   5.240  11.631
69276SOL    HW1 9725   8.505   5.320  11.615
69276SOL    HW2 9726   8.374   5.251  11.583
69277SOL     OW 9727   1.871   2.720   8.912
69277SOL    HW1 9728   1.821   2.695   8.990
69277SOL    HW2 9729   1.925   2.643   8.892
69278SOL     OW 9730   9.626   0.472   5.053
69278SOL    HW1 9731   9.634   0.563   5.079
69278SOL    HW2 9732   9.717   0.441   5.047
69279SOL     OW 9733  11.450  13.318   9.621
69279SOL    HW1 9734  11.376  13.358   9.574
69279SOL    HW2 9735  11.439  13.224   9.606
69280SOL     OW 9736   6.167  13.226   3.295
69280SOL    HW1 9737   6.138  13.138   3.269
69280SOL    HW2 9738   6.143  13.282   3.221
69281SOL     OW 9739   7.828   2.060  14.094
69281SOL    HW1 9740   7.903   2.003  14.082
69281SOL    HW2 9741   7.860   2.130  14.151
69282SOL     OW 9742  11.579  13.161  14.151
69282SOL    HW1 9743  11.662  13.147  14.195
69282SOL    HW2 9744  11.583  13.251  14.119
69283SOL     OW 9745   7.486   1.266  12.303
69283SOL    HW1 9746   7.422   1.288  12.235
69283SOL    HW2 9747   7.544   1.342  12.306
69284SOL     OW 9748   9.210   0.277   5.421
69284SOL    HW1 9749   9.237   0.353   5.369
69284SOL    HW2 9750   9.282   0.215   5.411
69285SOL     OW 9751  12.785   8.541   8.098
69285SOL    HW1 9752  12.846   8.614   8.095
69285SOL    HW2 9753  12.717   8.569   8.159
69286SOL     OW 9754  13.110  12.793  13.572
69286SOL    HW1 9755  13.099  12.822  13.481
69286SOL    HW2 9756  13.184  12.733  13.569
69287SOL     OW 9757   1.098  10.134   4.044
69287SOL    HW1 9758   1.098  10.217   3.995
69287SOL    HW2 9759   1.046  10.075   3.990
69288SOL     OW 9760   3.859   3.339   8.807
69288SOL    HW1 9761   3.917   3.355   8.881
69288SOL    HW2 9762   3.776   3.381   8.831
69289SOL     OW 9763   5.781   7.917   0.746
69289SOL    HW1 9764   5.840   7.967   0.689
69289SOL    HW2 9765   5.832   7.841   0.771
69290SOL     OW 9766   6.118  12.595   7.204
69290SOL    HW1 9767   6.087  12.609   7.115
69290SOL    HW2 9768   6.112  12.501   7.218
69291SOL     OW 9769  11.345  12.623   1.118
69291SOL    HW1 9770  11.436  12.592   1.116
69291SOL    HW2 9771  11.293  12.548   1.091
69292SOL     OW 9772   4.850   4.989   5.807
69292SOL    HW1 9773   4.907   4.997   5.731
69292SOL    HW2 9774   4.909   4.970   5.880
69293SOL     OW 9775   0.027  11.580  11.679
69293SOL    HW1 9776   0.094  11.550  11.741
69293SOL    HW2 9777   0.065  11.563  11.593
69294SOL     OW 9778   0.806   5.096   3.111
69294SOL    HW1 9779   0.853   5.017   3.083
69294SOL    HW2 9780   0.752   5.066   3.185
69295SOL     OW 9781   0.735   5.642   6.560
69295SOL    HW1 9782   0.663   5.617   6.618
69295SOL    HW2 9783   0.700   5.630   6.472
69296SOL     OW 9784   7.931   9.427   8.750
69296SOL    HW1 9785   7.849   9.435   8.799
69296SOL    HW2 9786   7.904   9.396   8.663
69297SOL     OW 9787  14.692   4.008   3.561
69297SOL    HW1 9788  14.699   4.015   3.656
69297SOL    HW2 9789  14.598   4.011   3.543
69298SOL     OW 9790  12.876   8.814   4.692
69298SOL    HW1 9791  12.914   8.734   4.726
69298SOL    HW2 9792  12.795   8.785   4.648
69299SOL     OW 9793   9.893   4.799   1.282
69299SOL    HW1 9794   9.833   4.810   1.356
69299SOL    HW2 9795   9.972   4.847   1.307
69300SOL     OW 9796  14.654   9.057  10.609
69300SOL    HW1 9797  14.709   9.042  10.532
69300SOL    HW2 9798  14.602   8.977  10.617
69301SOL     OW 9799   9.649   8.653   8.985
69301SOL    HW1 9800   9.595   8.621   8.913
69301SOL    HW2 9801   9.589   8.655   9.060
69302SOL     OW 9802   6.847  12.268   7.802
69302SOL    HW1 9803   6.807  12.229   7.724
69302SOL    HW2 9804   6.906  12.201   7.836
69303SOL     OW 9805  11.460   2.990   5.545
69303SOL    HW1 9806  11.449   3.069   5.492
69303SOL    HW2 9807  11.537   3.008   5.599
69304SOL     OW 9808   4.223   4.026   7.344
69304SOL    HW1 9809   4.248   4.118   7.334
69304SOL    HW2 9810   4.129   4.025   7.329
69305SOL     OW 9811  11.996  10.710  11.471
69305SOL    HW1 9812  11.988  10.733  11.378
69305SOL    HW2 9813  11.928  10.762  11.514
69306SOL     OW 9814   9.239  11.878   7.927
69306SOL    HW1 9815   9.213  11.878   7.834
69306SOL    HW2 9816   9.316  11.934   7.930
69307SOL     OW 9817   1.339   4.301   7.980
69307SOL    HW1 9818   1.329   4.333   8.069
69307SOL    HW2 9819   1.376   4.213   7.990
69308SOL     OW 9820   2.956  14.044  10.234
69308SOL    HW1 9821   2.975  13.950  10.233
69308SOL    HW2 9822   3.030  14.082  10.282
69309SOL     OW 9823  14.089   6.016   3.646
69309SOL    HW1 9824  14.058   6.102   3.619
69309SOL    HW2 9825  14.022   5.983   3.705
69310SOL     OW 9826   3.546   6.218  12.130
69310SOL    HW1 9827   3.634   6.217  12.167
69310SOL    HW2 9828   3.491   6.181  12.199
69311SOL     OW 9829   6.457  11.754  12.642
69311SOL    HW1 9830   6.452  11.848  12.624
69311SOL    HW2 9831   6.551  11.735  12.646
69312SOL     OW 9832  11.500   6.206  12.470
69312SOL    HW1 9833  11.484   6.253  12.389
69312SOL    HW2 9834  11.523   6.117  12.443
69313SOL     OW 9835   8.031   1.430   8.317
69313SOL    HW1 9836   7.948   1.478   8.317
69313SOL    HW2 9837   8.054   1.421   8.225
69314SOL     OW 9838  11.183   6.072   8.037
69314SOL    HW1 9839  11.190   6.111   7.950
69314SOL    HW2 9840  11.143   5.987   8.022
69315SOL     OW 9841  13.117   7.660   3.011
69315SOL    HW1 9842  13.173   7.613   2.950
69315SOL    HW2 9843  13.048   7.698   2.957
69316SOL     OW 9844   3.213  14.774  10.074
69316SOL    HW1 9845   3.154  14.849  10.076
69316SOL    HW2 9846   3.194  14.726  10.155
69317SOL     OW 9847  11.101   9.277   0.145
69317SOL    HW1 9848  11.157   9.348   0.178
69317SOL    HW2 9849  11.143   9.248   0.064
69318SOL     OW 9850   3.667   1.679   4.878
69318SOL    HW1 9851   3.655   1.603   4.821
69318SOL    HW2 9852   3.591   1.677   4.937
69319SOL     OW 9853   0.577   8.135   4.409
69319SOL    HW1 9854   0.656   8.091   4.440
69319SOL    HW2 9855   0.521   8.141   4.487
69320SOL     OW 9856   8.799   0.554  14.650
69320SOL    HW1 9857   8.867   0.560  14.583
69320SOL    HW2 9858   8.724   0.600  14.612
69321SOL     OW 9859   9.628  11.441   2.806
69321SOL    HW1 9860   9.536  11.417   2.797
69321SOL    HW2 9861   9.647  11.429   2.899
69322SOL     OW 9862   9.452   2.171   3.142
69322SOL    HW1 9863   9.392   2.096   3.133
69322SOL    HW2 9864   9.436   2.223   3.063
69323SOL     OW 9865   4.137   6.730  10.868
69323SOL    HW1 9866   4.042   6.723  10.870
69323SOL    HW2 9867   4.169   6.646  10.901
69324SOL     OW 9868  13.851  12.387  12.179
69324SOL    HW1 9869  13.940  12.353  12.190
69324SOL    HW2 9870  13.857  12.478  12.208
69325SOL     OW 9871   7.809   0.427   3.958
69325SOL    HW1 9872   7.793   0.364   4.029
69325SOL    HW2 9873   7.722   0.447   3.924
69326SOL     OW 9874   9.307   0.364   8.904
69326SOL    HW1 9875   9.336   0.444   8.949
69326SOL    HW2 9876   9.384   0.335   8.855
69327SOL     OW 9877  10.155  14.216   2.745
69327SOL    HW1 9878  10.195  14.158   2.810
69327SOL    HW2 9879  10.224  14.232   2.681
69328SOL     OW 9880   6.991   9.116  13.164
69328SOL    HW1 9881   7.062   9.113  13.100
69328SOL    HW2 9882   6.912   9.101  13.112
69329SOL     OW 9883   0.992  12.652   9.932
69329SOL    HW1 9884   1.012  12.564   9.900
69329SOL    HW2 9885   1.073  12.682   9.973
69330SOL     OW 9886  10.809   2.795  12.183
69330SOL    HW1 9887  10.730   2.765  12.228
69330SOL    HW2 9888  10.869   2.720  12.187
69331SOL     OW 9889  12.237   8.025   6.833
69331SOL    HW1 9890  12.309   7.975   6.795
69331SOL    HW2 9891  12.190   7.961   6.888
69332SOL     OW 9892   9.480   9.085   3.983
69332SOL    HW1 9893   9.527   9.164   3.958
69332SOL    HW2 9894   9.544   9.015   3.971
69333SOL     OW 9895  14.765   5.091  12.329
69333SOL    HW1 9896  14.686   5.140  12.306
69333SOL    HW2 9897  14.828   5.158  12.358
69334SOL     OW 9898   7.811   7.212   2.994
69334SOL    HW1 9899   7.723   7.182   3.018
69334SOL    HW2 9900   7.797   7.299   2.957
69335SOL     OW 9901   1.818   5.876   4.619
69335SOL    HW1 9902   1.895   5.858   4.674
69335SOL    HW2 9903   1.777   5.791   4.606
69336SOL     OW 9904  14.375  13.331  13.326
69336SOL    HW1 9905  14.425  13.338  13.408
69336SOL    HW2 9906  14.393  13.243  13.295
69337SOL     OW 9907   4.896  10.405   0.943
69337SOL    HW1 9908   4.860  10.332   0.993
69337SOL    HW2 9909   4.967  10.366   0.892
69338SOL     OW 9910   8.897   6.517   9.099
69338SOL    HW1 9911   8.908   6.608   9.071
69338SOL    HW2 9912   8.966   6.469   9.052
69339SOL     OW 9913   1.620   0.255  10.310
69339SOL    HW1 9914   1.556   0.325  10.329
69339SOL    HW2 9915   1.700   0.302  10.285
69340SOL     OW 9916  10.278  10.688   5.035
69340SOL    HW1 9917  10.365  10.661   5.061
69340SOL    HW2 9918  10.220  10.655   5.104
69341SOL     OW 9919   7.520   8.574   6.526
69341SOL    HW1 9920   7.542   8.667   6.531
69341SOL    HW2 9921   7.603   8.530   6.506
69342SOL     OW 9922   1.847  14.682   4.721
69342SOL    HW1 9923   1.879  14.718   4.804
69342SOL    HW2 9924   1.772  14.628   4.746
69343SOL     OW 9925   4.170   3.945  11.417
69343SOL    HW1 9926   4.133   4.009  11.357
69343SOL    HW2 9927   4.100   3.927  11.480
69344SOL     OW 9928   2.771   5.911   4.028
69344SOL    HW1 9929   2.725   5.870   4.102
69344SOL    HW2 9930   2.787   6.001   4.057
69345SOL     OW 9931  12.841   2.502   6.016
69345SOL    HW1 9932  12.807   2.485   5.928
69345SOL    HW2 9933  12.932   2.472   6.012
69346SOL     OW 9934  12.633   4.073   5.395
69346SOL    HW1 9935  12.664   4.054   5.484
69346SOL    HW2 9936  12.589   4.157   5.402
69347SOL     OW 9937   0.278  10.268   7.007
69347SOL    HW1 9938   0.278  10.272   6.911
69347SOL    HW2 9939   0.185  10.268   7.031
69348SOL     OW 9940   2.904  13.594   8.077
69348SOL    HW1 9941   2.860  13.509   8.073
69348SOL    HW2 9942   2.882  13.628   8.163
69349SOL     OW 9943  11.949  10.693  11.182
69349SOL    HW1 9944  12.010  10.751  11.137
69349SOL    HW2 9945  11.924  10.628  11.117
69350SOL     OW 9946   4.016   9.448  14.446
69350SOL    HW1 9947   4.072   9.427  14.370
69350SOL    HW2 9948   3.939   9.393  14.433
69351SOL     OW 9949   5.989  14.039   6.908
69351SOL    HW1 9950   6.059  14.072   6.964
69351SOL    HW2 9951   6.025  13.959   6.869
69352SOL     OW 9952  12.948   6.457  11.834
69352SOL    HW1 9953  12.868   6.440  11.884
69352SOL    HW2 9954  13.016   6.467  11.901
69353SOL     OW 9955   9.377  12.384   6.447
69353SOL    HW1 9956   9.313  12.322   6.411
69353SOL    HW2 9957   9.329  12.431   6.515
69354SOL     OW 9958  13.991  10.481   5.268
69354SOL    HW1 9959  14.013  10.389   5.280
69354SOL    HW2 9960  13.916  10.481   5.209
69355SOL     OW 9961   2.127   3.187  13.989
69355SOL    HW1 9962   2.093   3.276  13.995
69355SOL    HW2 9963   2.064   3.141  13.933
69356SOL     OW 9964  13.111   6.885   8.212
69356SOL    HW1 9965  13.027   6.913   8.249
69356SOL    HW2 9966  13.090   6.807   8.161
69357SOL     OW 9967   4.594  13.046   3.589
69357SOL    HW1 9968   4.601  13.105   3.665
69357SOL    HW2 9969   4.676  12.998   3.588
69358SOL     OW 9970   6.490  12.655   3.994
69358SOL    HW1 9971   6.558  12.642   4.060
69358SOL    HW2 9972   6.445  12.570   3.990
69359SOL     OW 9973   1.794  12.796  13.442
69359SOL    HW1 9974   1.702  12.784  13.418
69359SOL    HW2 9975   1.795  12.790  13.538
69360SOL     OW 9976   3.671   9.570  11.441
69360SOL    HW1 9977   3.763   9.559  11.417
69360SOL    HW2 9978   3.673   9.614  11.526
69361SOL     OW 9979   1.390   3.901   5.721
69361SOL    HW1 9980   1.324   3.962   5.755
69361SOL    HW2 9981   1.341   3.841   5.666
69362SOL     OW 9982   2.375   6.394  11.240
69362SOL    HW1 9983   2.389   6.310  11.196
69362SOL    HW2 9984   2.458   6.413  11.283
69363SOL     OW 9985  11.832   4.003   5.199
69363SOL    HW1 9986  11.738   4.002   5.219
69363SOL    HW2 9987  11.866   4.077   5.249
69364SOL     OW 9988   6.355   2.093  13.921
69364SOL    HW1 9989   6.429   2.153  13.906
69364SOL    HW2 9990   6.339   2.097  14.015
69365SOL     OW 9991   3.451  11.688   8.941
69365SOL    HW1 9992   3.361  11.702   8.914
69365SOL    HW2 9993   3.446  11.675   9.036
69366SOL     OW 9994  10.970  10.138   3.559
69366SOL    HW1 9995  11.040  10.123   3.495
69366SOL    HW2 9996  10.998  10.089   3.637
69367SOL     OW 9997   5.390   6.650   3.441
69367SOL    HW1 9998   5.295   6.649   3.430
69367SOL    HW2 9999   5.425   6.672   3.355
69368SOL     OW10000   4.136   5.958  10.549
69368SOL    HW110001   4.074   6.026  10.575
69368SOL    HW210002   4.217   5.980  10.594
69369SOL     OW10003   0.749   1.502   6.707
69369SOL    HW110004   0.665   1.478   6.669
69369SOL    HW210005   0.728   1.566   6.775
69370SOL     OW10006   3.290   5.606   3.582
69370SOL    HW110007   3.280   5.537   3.647
69370SOL    HW210008   3.229   5.582   3.512
69371SOL     OW10009   3.362   6.417   2.376
69371SOL    HW110010   3.441   6.441   2.425
69371SOL    HW210011   3.390   6.346   2.318
69372SOL     OW10012   3.898   9.147  14.872
69372SOL    HW110013   3.864   9.206   0.057
69372SOL    HW210014   3.833   9.151  14.802
69373SOL     OW10015   0.584   4.573   2.844
69373SOL    HW110016   0.655   4.509   2.848
69373SOL    HW210017   0.599   4.630   2.920
69374SOL     OW10018   2.744  11.486   0.676
69374SOL    HW110019   2.700  11.465   0.758
69374SOL    HW210020   2.830  11.520   0.702
69375SOL     OW10021   0.831  10.271   7.423
69375SOL    HW110022   0.857  10.354   7.382
69375SOL    HW210023   0.914  10.226   7.441
69376SOL     OW10024   9.623  14.272  12.601
69376SOL    HW110025   9.624  14.354  12.651
69376SOL    HW210026   9.671  14.293  12.521
69377SOL     OW10027   9.671   5.188   2.246
69377SOL    HW110028   9.682   5.263   2.304
69377SOL    HW210029   9.639   5.226   2.164
69378SOL     OW10030  12.421  13.811   1.369
69378SOL    HW110031  12.510  13.840   1.389
69378SOL    HW210032  12.432  13.731   1.319
69379SOL     OW10033  12.099   4.536   2.943
69379SOL    HW110034  12.034   4.540   3.013
69379SOL    HW210035  12.073   4.460   2.891
69380SOL     OW10036  14.140   5.658  12.567
69380SOL    HW110037  14.115   5.607  12.644
69380SOL    HW210038  14.057   5.689  12.531
69381SOL     OW10039   6.660   5.860   3.099
69381SOL    HW110040   6.743   5.815   3.089
69381SOL    HW210041   6.597   5.790   3.116
69382SOL     OW10042   7.754  14.783   0.588
69382SOL    HW110043   7.797  14.700   0.611
69382SOL    HW210044   7.706  14.764   0.507
69383SOL     OW10045   3.398   2.745   6.576
69383SOL    HW110046   3.479   2.695   6.562
69383SOL    HW210047   3.347   2.692   6.637
69384SOL     OW10048   1.947  10.772  11.876
69384SOL    HW110049   2.026  10.760  11.927
69384SOL    HW210050   1.968  10.735  11.790
69385SOL     OW10051  13.345  13.909   2.298
69385SOL    HW110052  13.435  13.922   2.329
69385SOL    HW210053  13.347  13.940   2.207
69386SOL     OW10054   6.860   8.705  11.592
69386SOL    HW110055   6.951   8.693  11.618
69386SOL    HW210056   6.849   8.646  11.516
69387SOL     OW10057   5.821   2.432  13.840
69387SOL    HW110058   5.728   2.430  13.861
69387SOL    HW210059   5.863   2.458  13.922
69388SOL     OW10060   8.883  11.109  12.463
69388SOL    HW110061   8.870  11.017  12.483
69388SOL    HW210062   8.859  11.117  12.371
69389SOL     OW10063   8.772   9.460   4.852
69389SOL    HW110064   8.822   9.388   4.892
69389SOL    HW210065   8.735   9.507   4.927
69390SOL     OW10066  13.298   0.080  13.767
69390SOL    HW110067  13.344   0.079  13.683
69390SOL    HW210068  13.243   0.158  13.764
69391SOL     OW10069   1.885  12.873  13.095
69391SOL    HW110070   1.968  12.894  13.051
69391SOL    HW210071   1.845  12.959  13.111
69392SOL     OW10072  11.911   8.172  14.597
69392SOL    HW110073  11.866   8.257  14.603
69392SOL    HW210074  11.889   8.128  14.679
69393SOL     OW10075   0.137  13.200   8.904
69393SOL    HW110076   0.172  13.199   8.993
69393SOL    HW210077   0.072  13.270   8.904
69394SOL     OW10078   0.194   0.203   8.813
69394SOL    HW110079   0.261   0.270   8.826
69394SOL    HW210080   0.190   0.191   8.718
69395SOL     OW10081   7.822   4.744   2.102
69395SOL    HW110082   7.790   4.834   2.112
69395SOL    HW210083   7.883   4.732   2.175
69396SOL     OW10084   4.177   8.744   5.745
69396SOL    HW110085   4.190   8.785   5.831
69396SOL    HW210086   4.182   8.816   5.683
69397SOL     OW10087   7.523   4.577   1.309
69397SOL    HW110088   7.600   4.538   1.267
69397SOL    HW210089   7.491   4.509   1.369
69398SOL     OW10090  11.341   4.049   2.101
69398SOL    HW110091  11.366   4.058   2.009
69398SOL    HW210092  11.404   3.986   2.137
69399SOL     OW10093  12.714   7.126  14.038
69399SOL    HW110094  12.735   7.206  13.990
69399SOL    HW210095  12.756   7.136  14.123
69400SOL     OW10096  11.930   9.373   8.163
69400SOL    HW110097  11.898   9.436   8.227
69400SOL    HW210098  11.907   9.288   8.200
69401SOL     OW10099  11.277   3.820   8.051
69401SOL    HW110100  11.262   3.789   8.140
69401SOL    HW210101  11.191   3.848   8.021
69402SOL     OW10102  13.487   7.921   5.603
69402SOL    HW110103  13.422   7.851   5.601
69402SOL    HW210104  13.507   7.938   5.511
69403SOL     OW10105   7.879  10.290  12.149
69403SOL    HW110106   7.796  10.265  12.110
69403SOL    HW210107   7.910  10.210  12.192
69404SOL     OW10108   9.231   3.085   6.144
69404SOL    HW110109   9.274   3.141   6.079
69404SOL    HW210110   9.141   3.119   6.148
69405SOL     OW10111   4.950  14.813   2.813
69405SOL    HW110112   4.998   0.014   2.811
69405SOL    HW210113   4.876  14.826   2.753
69406SOL     OW10114  11.332   6.264   7.181
69406SOL    HW110115  11.252   6.211   7.185
69406SOL    HW210116  11.372   6.239   7.097
69407SOL     OW10117  12.342   7.368  10.760
69407SOL    HW110118  12.388   7.399  10.838
69407SOL    HW210119  12.322   7.276  10.779
69408SOL     OW10120   0.742  11.739   1.533
69408SOL    HW110121   0.699  11.654   1.525
69408SOL    HW210122   0.803  11.742   1.459
69409SOL     OW10123   6.789   1.678  10.572
69409SOL    HW110124   6.708   1.688  10.621
69409SOL    HW210125   6.842   1.754  10.597
69410SOL     OW10126   8.397   5.446  14.825
69410SOL    HW110127   8.468   5.467  14.765
69410SOL    HW210128   8.369   5.530  14.861
69411SOL     OW10129  11.370   1.960   8.674
69411SOL    HW110130  11.304   1.917   8.620
69411SOL    HW210131  11.426   1.889   8.705
69412SOL     OW10132  11.002   3.143   8.295
69412SOL    HW110133  11.057   3.096   8.358
69412SOL    HW210134  10.928   3.085   8.280
69413SOL     OW10135  10.846   1.133   6.722
69413SOL    HW110136  10.787   1.136   6.646
69413SOL    HW210137  10.788   1.144   6.798
69414SOL     OW10138  13.156   6.303   2.399
69414SOL    HW110139  13.190   6.288   2.310
69414SOL    HW210140  13.105   6.383   2.391
69415SOL     OW10141  13.595   1.046   3.098
69415SOL    HW110142  13.611   1.115   3.034
69415SOL    HW210143  13.682   1.013   3.120
69416SOL     OW10144   8.605   9.497  12.609
69416SOL    HW110145   8.510   9.489  12.620
69416SOL    HW210146   8.625   9.439  12.536
69417SOL     OW10147   2.336  12.576   9.689
69417SOL    HW110148   2.321  12.667   9.666
69417SOL    HW210149   2.411  12.550   9.636
69418SOL     OW10150  12.330  11.311  10.779
69418SOL    HW110151  12.237  11.332  10.787
69418SOL    HW210152  12.335  11.216  10.786
69419SOL     OW10153  12.173   0.144  10.298
69419SOL    HW110154  12.085   0.182  10.298
69419SOL    HW210155  12.181   0.101  10.383
69420SOL     OW10156  14.458   8.117   5.879
69420SOL    HW110157  14.434   8.122   5.971
69420SOL    HW210158  14.444   8.206   5.846
69421SOL     OW10159   2.740   5.648   2.760
69421SOL    HW110160   2.662   5.665   2.708
69421SOL    HW210161   2.756   5.554   2.748
69422SOL     OW10162   4.897   4.474  12.606
69422SOL    HW110163   4.873   4.478  12.699
69422SOL    HW210164   4.927   4.384  12.594
69423SOL     OW10165   7.517  12.724  11.858
69423SOL    HW110166   7.570  12.785  11.808
69423SOL    HW210167   7.573  12.698  11.931
69424SOL     OW10168  11.145   7.719   9.936
69424SOL    HW110169  11.175   7.662   9.865
69424SOL    HW210170  11.091   7.662   9.991
69425SOL     OW10171   5.281   6.888   7.108
69425SOL    HW110172   5.290   6.873   7.202
69425SOL    HW210173   5.226   6.966   7.101
69426SOL     OW10174   8.215   3.954   6.090
69426SOL    HW110175   8.270   3.968   6.013
69426SOL    HW210176   8.186   3.863   6.084
69427SOL     OW10177  12.899   5.147  10.088
69427SOL    HW110178  12.915   5.104  10.004
69427SOL    HW210179  12.984   5.183  10.113
69428SOL     OW10180   1.238  14.725   9.615
69428SOL    HW110181   1.217  14.647   9.667
69428SOL    HW210182   1.287  14.781   9.675
69429SOL     OW10183  12.078   5.544   8.534
69429SOL    HW110184  12.007   5.609   8.538
69429SOL    HW210185  12.150   5.585   8.581
69430SOL     OW10186  12.840  11.874   8.658
69430SOL    HW110187  12.761  11.908   8.616
69430SOL    HW210188  12.904  11.944   8.650
69431SOL     OW10189   9.939   9.929   9.865
69431SOL    HW110190  10.008   9.870   9.834
69431SOL    HW210191   9.987  10.008   9.894
69432SOL     OW10192   1.577  10.321   1.022
69432SOL    HW110193   1.646  10.290   1.081
69432SOL    HW210194   1.530  10.241   0.998
69433SOL     OW10195   5.056   3.052   9.339
69433SOL    HW110196   5.096   3.011   9.416
69433SOL    HW210197   4.994   3.115   9.376
69434SOL     OW10198  10.224   4.060   5.361
69434SOL    HW110199  10.149   4.103   5.319
69434SOL    HW210200  10.301   4.097   5.318
69435SOL     OW10201  13.424   3.763   8.743
69435SOL    HW110202  13.340   3.784   8.785
69435SOL    HW210203  13.408   3.678   8.702
69436SOL     OW10204   0.432  10.843   7.788
69436SOL    HW110205   0.471  10.833   7.701
69436SOL    HW210206   0.505  10.825   7.848
69437SOL     OW10207  11.017   0.131   3.973
69437SOL    HW110208  10.998   0.065   3.906
69437SOL    HW210209  10.933   0.174   3.989
69438SOL     OW10210   9.623   6.190  12.855
69438SOL    HW110211   9.574   6.267  12.827
69438SOL    HW210212   9.715   6.217  12.848
69439SOL     OW10213   9.130  12.722   3.069
69439SOL    HW110214   9.138  12.724   2.973
69439SOL    HW210215   9.179  12.644   3.095
69440SOL     OW10216   0.449   7.724  13.765
69440SOL    HW110217   0.415   7.653  13.820
69440SOL    HW210218   0.393   7.798  13.785
69441SOL     OW10219   3.706   6.669   2.277
69441SOL    HW110220   3.652   6.620   2.339
69441SOL    HW210221   3.758   6.602   2.233
69442SOL     OW10222  10.701  11.098   1.174
69442SOL    HW110223  10.693  11.011   1.135
69442SOL    HW210224  10.725  11.082   1.265
69443SOL     OW10225  14.014  14.668   6.379
69443SOL    HW110226  14.056  14.622   6.452
69443SOL    HW210227  13.926  14.630   6.373
69444SOL     OW10228   1.509   7.252  13.224
69444SOL    HW110229   1.453   7.252  13.302
69444SOL    HW210230   1.447   7.253  13.151
69445SOL     OW10231  12.440   9.159   0.689
69445SOL    HW110232  12.491   9.138   0.767
69445SOL    HW210233  12.352   9.177   0.722
69446SOL     OW10234  14.684   8.466   3.125
69446SOL    HW110235  14.624   8.453   3.199
69446SOL    HW210236  14.658   8.399   3.062
69447SOL     OW10237   3.911  12.925   5.252
69447SOL    HW110238   3.977  12.920   5.321
69447SOL    HW210239   3.946  12.872   5.181
69448SOL     OW10240   3.241   6.472   4.962
69448SOL    HW110241   3.196   6.528   5.025
69448SOL    HW210242   3.272   6.533   4.894
69449SOL     OW10243   9.804   9.934   7.543
69449SOL    HW110244   9.846  10.020   7.550
69449SOL    HW210245   9.836   9.899   7.459
69450SOL     OW10246   2.975  10.879  12.023
69450SOL    HW110247   2.977  10.801  11.966
69450SOL    HW210248   2.945  10.949  11.965
69451SOL     OW10249   5.603  11.883   4.981
69451SOL    HW110250   5.630  11.946   4.914
69451SOL    HW210251   5.510  11.869   4.965
69452SOL     OW10252   8.597   6.376   9.642
69452SOL    HW110253   8.647   6.343   9.717
69452SOL    HW210254   8.580   6.299   9.588
69453SOL     OW10255  10.271   9.196   6.716
69453SOL    HW110256  10.284   9.239   6.801
69453SOL    HW210257  10.337   9.126   6.714
69454SOL     OW10258  14.366   8.751  10.977
69454SOL    HW110259  14.337   8.727  10.889
69454SOL    HW210260  14.407   8.837  10.966
69455SOL     OW10261   6.933   3.540   6.625
69455SOL    HW110262   6.865   3.606   6.615
69455SOL    HW210263   7.006   3.572   6.573
69456SOL     OW10264   7.884  13.974  12.872
69456SOL    HW110265   7.824  13.982  12.946
69456SOL    HW210266   7.907  13.881  12.869
69457SOL     OW10267  10.761   9.529   3.268
69457SOL    HW110268  10.779   9.615   3.230
69457SOL    HW210269  10.677   9.539   3.312
69458SOL     OW10270   0.806   8.815  13.229
69458SOL    HW110271   0.737   8.854  13.175
69458SOL    HW210272   0.773   8.729  13.253
69459SOL     OW10273   8.661   6.556   2.440
69459SOL    HW110274   8.716   6.604   2.378
69459SOL    HW210275   8.579   6.604   2.442
69460SOL     OW10276   0.647  14.592   3.673
69460SOL    HW110277   0.553  14.586   3.655
69460SOL    HW210278   0.654  14.662   3.738
69461SOL     OW10279   8.557  12.719  11.819
69461SOL    HW110280   8.492  12.787  11.837
69461SOL    HW210281   8.591  12.740  11.733
69462SOL     OW10282   4.407   8.376  12.481
69462SOL    HW110283   4.313   8.366  12.465
69462SOL    HW210284   4.421   8.334  12.565
69463SOL     OW10285   5.485   0.916  10.698
69463SOL    HW110286   5.481   0.881  10.787
69463SOL    HW210287   5.497   1.010  10.709
69464SOL     OW10288   7.847   5.038   8.510
69464SOL    HW110289   7.775   5.027   8.572
69464SOL    HW210290   7.839   4.962   8.451
69465SOL     OW10291   0.235  14.061  10.124
69465SOL    HW110292   0.187  14.010  10.059
69465SOL    HW210293   0.186  14.143  10.132
69466SOL     OW10294   2.584   7.770   9.148
69466SOL    HW110295   2.510   7.828   9.133
69466SOL    HW210296   2.628   7.806   9.225
69467SOL     OW10297   9.942  10.386   1.161
69467SOL    HW110298   9.888  10.308   1.165
69467SOL    HW210299   9.895  10.446   1.103
69468SOL     OW10300   0.493   5.644  13.426
69468SOL    HW110301   0.453   5.679  13.346
69468SOL    HW210302   0.586   5.637  13.406
69469SOL     OW10303   5.724  13.442   2.569
69469SOL    HW110304   5.784  13.516   2.572
69469SOL    HW210305   5.779  13.366   2.550
69470SOL     OW10306  12.394   2.522  11.481
69470SOL    HW110307  12.339   2.498  11.406
69470SOL    HW210308  12.428   2.438  11.514
69471SOL     OW10309   9.465   4.559  10.914
69471SOL    HW110310   9.515   4.540  10.993
69471SOL    HW210311   9.442   4.473  10.878
69472SOL     OW10312   9.162   7.844   0.642
69472SOL    HW110313   9.094   7.910   0.651
69472SOL    HW210314   9.115   7.763   0.621
69473SOL     OW10315  10.597   9.829   8.456
69473SOL    HW110316  10.532   9.883   8.500
69473SOL    HW210317  10.594   9.745   8.501
69474SOL     OW10318   6.925   2.484   7.303
69474SOL    HW110319   6.863   2.413   7.313
69474SOL    HW210320   7.011   2.443   7.311
69475SOL     OW10321   5.198   2.356   1.542
69475SOL    HW110322   5.263   2.372   1.610
69475SOL    HW210323   5.117   2.393   1.577
69476SOL     OW10324  14.083   8.576   3.819
69476SOL    HW110325  14.162   8.588   3.873
69476SOL    HW210326  14.013   8.614   3.872
69477SOL     OW10327   9.926   2.505   3.074
69477SOL    HW110328   9.999   2.444   3.068
69477SOL    HW210329   9.964   2.585   3.112
69478SOL     OW10330  13.373   7.311   7.786
69478SOL    HW110331  13.403   7.221   7.781
69478SOL    HW210332  13.313   7.320   7.712
69479SOL     OW10333   8.634   0.634   9.557
69479SOL    HW110334   8.724   0.637   9.525
69479SOL    HW210335   8.621   0.543   9.585
69480SOL     OW10336   3.221   5.190   8.564
69480SOL    HW110337   3.161   5.264   8.575
69480SOL    HW210338   3.301   5.218   8.610
69481SOL     OW10339  11.564   7.831   8.086
69481SOL    HW110340  11.529   7.910   8.126
69481SOL    HW210341  11.573   7.853   7.993
69482SOL     OW10342   8.803  12.240   1.649
69482SOL    HW110343   8.799  12.259   1.743
69482SOL    HW210344   8.715  12.213   1.625
69483SOL     OW10345   2.800   2.921   0.103
69483SOL    HW110346   2.807   2.882   0.190
69483SOL    HW210347   2.817   3.014   0.117
69484SOL     OW10348  11.600   4.612   0.225
69484SOL    HW110349  11.596   4.648   0.136
69484SOL    HW210350  11.575   4.685   0.281
69485SOL     OW10351  12.863  11.662   8.214
69485SOL    HW110352  12.841  11.755   8.209
69485SOL    HW210353  12.847  11.629   8.125
69486SOL     OW10354   3.160  14.436   4.918
69486SOL    HW110355   3.214  14.417   4.994
69486SOL    HW210356   3.092  14.367   4.919
69487SOL     OW10357   7.917  13.949  10.478
69487SOL    HW110358   7.876  13.948  10.564
69487SOL    HW210359   7.986  13.883  10.483
69488SOL     OW10360   2.298  13.600   1.860
69488SOL    HW110361   2.282  13.568   1.772
69488SOL    HW210362   2.260  13.533   1.917
69489SOL     OW10363   0.875   3.660  12.278
69489SOL    HW110364   0.948   3.716  12.304
69489SOL    HW210365   0.864   3.598  12.350
69490SOL     OW10366   5.523  14.517   0.829
69490SOL    HW110367   5.578  14.593   0.808
69490SOL    HW210368   5.561  14.481   0.909
69491SOL     OW10369  13.228   1.384  10.719
69491SOL    HW110370  13.184   1.335  10.650
69491SOL    HW210371  13.209   1.335  10.799
69492SOL     OW10372  11.898  11.581   9.257
69492SOL    HW110373  11.922  11.620   9.173
69492SOL    HW210374  11.807  11.553   9.246
69493SOL     OW10375   9.825  12.045   2.376
69493SOL    HW110376   9.816  11.950   2.364
69493SOL    HW210377   9.801  12.060   2.468
69494SOL     OW10378   2.530   2.272   0.850
69494SOL    HW110379   2.548   2.180   0.870
69494SOL    HW210380   2.617   2.310   0.834
69495SOL     OW10381   2.045   5.643   1.134
69495SOL    HW110382   1.992   5.683   1.065
69495SOL    HW210383   2.066   5.714   1.193
69496SOL     OW10384  11.175  14.723   9.598
69496SOL    HW110385  11.189  14.638   9.556
69496SOL    HW210386  11.122  14.703   9.675
69497SOL     OW10387   7.847   6.057   5.929
69497SOL    HW110388   7.870   5.964   5.932
69497SOL    HW210389   7.825   6.073   5.837
69498SOL     OW10390  10.220   6.983  12.602
69498SOL    HW110391  10.295   7.029  12.564
69498SOL    HW210392  10.242   6.890  12.592
69499SOL     OW10393  10.291   2.847   9.156
69499SOL    HW110394  10.205   2.806   9.166
69499SOL    HW210395  10.271   2.937   9.129
69500SOL     OW10396   6.857  11.759  13.421
69500SOL    HW110397   6.796  11.759  13.495
69500SOL    HW210398   6.920  11.690  13.442
69501SOL     OW10399   2.953  14.880   6.789
69501SOL    HW110400   2.899  14.858   6.864
69501SOL    HW210401   2.892   0.002   6.715
69502SOL     OW10402  10.595   1.310   7.634
69502SOL    HW110403  10.638   1.383   7.590
69502SOL    HW210404  10.590   1.338   7.726
69503SOL     OW10405  11.516   3.560  13.009
69503SOL    HW110406  11.530   3.474  12.969
69503SOL    HW210407  11.592   3.573  13.066
69504SOL     OW10408   3.359   2.546  12.266
69504SOL    HW110409   3.300   2.557  12.191
69504SOL    HW210410   3.342   2.622  12.321
69505SOL     OW10411  14.112   2.081  12.632
69505SOL    HW110412  14.102   1.991  12.664
69505SOL    HW210413  14.034   2.096  12.578
69506SOL     OW10414  14.498   1.760  13.527
69506SOL    HW110415  14.590   1.748  13.550
69506SOL    HW210416  14.457   1.676  13.545
69507SOL     OW10417   4.808   9.702   1.607
69507SOL    HW110418   4.799   9.757   1.685
69507SOL    HW210419   4.721   9.702   1.568
69508SOL     OW10420  13.629   7.896   4.551
69508SOL    HW110421  13.667   7.809   4.564
69508SOL    HW210422  13.664   7.949   4.623
69509SOL     OW10423   3.295   9.566   0.543
69509SOL    HW110424   3.372   9.546   0.597
69509SOL    HW210425   3.283   9.490   0.487
69510SOL     OW10426   9.689   9.917   7.815
69510SOL    HW110427   9.596   9.921   7.790
69510SOL    HW210428   9.733   9.883   7.737
69511SOL     OW10429  12.780  10.033  14.746
69511SOL    HW110430  12.757  10.099  14.681
69511SOL    HW210431  12.876  10.033  14.748
69512SOL     OW10432   5.573   8.091  14.533
69512SOL    HW110433   5.624   8.038  14.472
69512SOL    HW210434   5.607   8.180  14.521
69513SOL     OW10435   7.325   4.001   2.039
69513SOL    HW110436   7.253   4.064   2.040
69513SOL    HW210437   7.360   4.005   1.950
69514SOL     OW10438   4.198   4.473  11.877
69514SOL    HW110439   4.167   4.562  11.862
69514SOL    HW210440   4.134   4.435  11.937
69515SOL     OW10441  11.988  14.349  10.052
69515SOL    HW110442  12.042  14.280  10.013
69515SOL    HW210443  11.906  14.346  10.003
69516SOL     OW10444  13.052   0.128   6.948
69516SOL    HW110445  12.963   0.109   6.976
69516SOL    HW210446  13.057   0.224   6.944
69517SOL     OW10447  14.712   5.501   8.433
69517SOL    HW110448  14.725   5.477   8.525
69517SOL    HW210449  14.791   5.469   8.389
69518SOL     OW10450  12.093  12.068  10.995
69518SOL    HW110451  12.149  12.043  10.922
69518SOL    HW210452  12.154  12.091  11.065
69519SOL     OW10453  13.586   1.110   3.655
69519SOL    HW110454  13.624   1.083   3.739
69519SOL    HW210455  13.609   1.039   3.595
69520SOL     OW10456  11.079   7.226   1.315
69520SOL    HW110457  11.072   7.321   1.319
69520SOL    HW210458  11.083   7.199   1.407
69521SOL     OW10459  12.283   3.450  14.399
69521SOL    HW110460  12.300   3.375  14.340
69521SOL    HW210461  12.199   3.430  14.439
69522SOL     OW10462   5.171   2.015   2.449
69522SOL    HW110463   5.147   1.971   2.530
69522SOL    HW210464   5.099   2.076   2.432
69523SOL     OW10465   8.505   3.180   0.788
69523SOL    HW110466   8.525   3.228   0.869
69523SOL    HW210467   8.536   3.091   0.805
69524SOL     OW10468   3.714  13.001   9.526
69524SOL    HW110469   3.792  12.981   9.578
69524SOL    HW210470   3.649  12.936   9.554
69525SOL     OW10471   2.892   2.627  14.275
69525SOL    HW110472   2.842   2.560  14.230
69525SOL    HW210473   2.887   2.603  14.368
69526SOL     OW10474   2.872  13.571   0.165
69526SOL    HW110475   2.889  13.578   0.259
69526SOL    HW210476   2.878  13.661   0.132
69527SOL     OW10477   6.817  12.144  12.814
69527SOL    HW110478   6.825  12.061  12.861
69527SOL    HW210479   6.901  12.187  12.826
69528SOL     OW10480   5.935   6.396  13.020
69528SOL    HW110481   5.864   6.445  12.979
69528SOL    HW210482   5.960   6.330  12.956
69529SOL     OW10483   4.938   2.812   8.475
69529SOL    HW110484   4.892   2.879   8.423
69529SOL    HW210485   4.868   2.767   8.522
69530SOL     OW10486   6.774  13.730   3.931
69530SOL    HW110487   6.783  13.711   4.024
69530SOL    HW210488   6.854  13.694   3.891
69531SOL     OW10489   1.502   4.251  12.516
69531SOL    HW110490   1.442   4.216  12.581
69531SOL    HW210491   1.539   4.174  12.473
69532SOL     OW10492  12.223   4.670   4.628
69532SOL    HW110493  12.256   4.586   4.661
69532SOL    HW210494  12.279   4.691   4.554
69533SOL     OW10495  12.130   9.587  12.604
69533SOL    HW110496  12.100   9.516  12.660
69533SOL    HW210497  12.161   9.543  12.525
69534SOL     OW10498  14.343   0.463   4.130
69534SOL    HW110499  14.396   0.499   4.059
69534SOL    HW210500  14.368   0.371   4.135
69535SOL     OW10501   2.579   7.214   9.436
69535SOL    HW110502   2.553   7.153   9.504
69535SOL    HW210503   2.591   7.297   9.482
69536SOL     OW10504   6.579   9.126   3.487
69536SOL    HW110505   6.634   9.056   3.523
69536SOL    HW210506   6.522   9.152   3.559
69537SOL     OW10507  11.459  14.692   2.711
69537SOL    HW110508  11.418  14.705   2.626
69537SOL    HW210509  11.457  14.597   2.724
69538SOL     OW10510   1.278   9.816   7.018
69538SOL    HW110511   1.194   9.791   7.055
69538SOL    HW210512   1.340   9.753   7.053
69539SOL     OW10513   3.471   7.916   1.666
69539SOL    HW110514   3.556   7.949   1.636
69539SOL    HW210515   3.457   7.961   1.750
69540SOL     OW10516  13.370  14.256  13.462
69540SOL    HW110517  13.343  14.292  13.546
69540SOL    HW210518  13.399  14.332  13.411
69541SOL     OW10519   3.044  10.856  14.329
69541SOL    HW110520   3.039  10.895  14.242
69541SOL    HW210521   3.003  10.920  14.386
69542SOL     OW10522   0.387  12.711   0.043
69542SOL    HW110523   0.406  12.796   0.003
69542SOL    HW210524   0.447  12.705   0.118
69543SOL     OW10525   7.959   7.000   8.448
69543SOL    HW110526   7.912   7.010   8.531
69543SOL    HW210527   8.045   7.037   8.464
69544SOL     OW10528  11.613  13.269   3.669
69544SOL    HW110529  11.695  13.264   3.719
69544SOL    HW210530  11.607  13.360   3.640
69545SOL     OW10531   2.138   8.342   1.812
69545SOL    HW110532   2.192   8.398   1.869
69545SOL    HW210533   2.053   8.385   1.812
69546SOL     OW10534   5.643   6.481   7.502
69546SOL    HW110535   5.559   6.527   7.507
69546SOL    HW210536   5.709   6.550   7.509
69547SOL     OW10537   8.094  14.798   5.648
69547SOL    HW110538   8.159  14.776   5.581
69547SOL    HW210539   8.104   0.010   5.660
69548SOL     OW10540   4.892  14.667   4.351
69548SOL    HW110541   4.891  14.582   4.396
69548SOL    HW210542   4.805  14.675   4.313
69549SOL     OW10543   4.954  12.580  14.311
69549SOL    HW110544   4.901  12.656  14.335
69549SOL    HW210545   4.957  12.582  14.216
69550SOL     OW10546   8.607   2.050  14.769
69550SOL    HW110547   8.664   2.104  14.824
69550SOL    HW210548   8.667   1.999  14.716
69551SOL     OW10549  11.434   3.052   5.041
69551SOL    HW110550  11.492   2.986   5.003
69551SOL    HW210551  11.491   3.124   5.067
69552SOL     OW10552   1.166   4.094   6.155
69552SOL    HW110553   1.131   4.059   6.237
69552SOL    HW210554   1.089   4.124   6.107
69553SOL     OW10555  14.710  10.722   2.899
69553SOL    HW110556  14.624  10.743   2.863
69553SOL    HW210557  14.725  10.787   2.967
69554SOL     OW10558   7.620   0.918  10.370
69554SOL    HW110559   7.679   0.892  10.299
69554SOL    HW210560   7.573   0.994  10.335
69555SOL     OW10561   6.585   1.683  14.417
69555SOL    HW110562   6.554   1.642  14.336
69555SOL    HW210563   6.678   1.698  14.402
69556SOL     OW10564   1.465  12.582  10.477
69556SOL    HW110565   1.392  12.550  10.530
69556SOL    HW210566   1.543  12.555  10.526
69557SOL     OW10567   5.427  10.997   0.743
69557SOL    HW110568   5.337  11.017   0.768
69557SOL    HW210569   5.451  11.067   0.682
69558SOL     OW10570   9.225   7.266   8.266
69558SOL    HW110571   9.178   7.296   8.189
69558SOL    HW210572   9.157   7.241   8.328
69559SOL     OW10573   1.608   8.981   2.280
69559SOL    HW110574   1.601   8.976   2.185
69559SOL    HW210575   1.554   8.909   2.312
69560SOL     OW10576   1.798   1.820  10.856
69560SOL    HW110577   1.884   1.813  10.897
69560SOL    HW210578   1.799   1.754  10.786
69561SOL     OW10579   5.806   4.332   8.910
69561SOL    HW110580   5.833   4.342   8.819
69561SOL    HW210581   5.807   4.237   8.925
69562SOL     OW10582   3.419  14.399   7.312
69562SOL    HW110583   3.380  14.314   7.332
69562SOL    HW210584   3.398  14.414   7.219
69563SOL     OW10585   6.468   9.932   1.235
69563SOL    HW110586   6.407   9.866   1.268
69563SOL    HW210587   6.416   9.983   1.173
69564SOL     OW10588   8.587   7.688  14.481
69564SOL    HW110589   8.498   7.704  14.514
69564SOL    HW210590   8.576   7.681  14.386
69565SOL     OW10591  13.609   7.472  12.648
69565SOL    HW110592  13.694   7.438  12.621
69565SOL    HW210593  13.623   7.566  12.658
69566SOL     OW10594  10.635  10.841  11.175
69566SOL    HW110595  10.566  10.831  11.110
69566SOL    HW210596  10.625  10.765  11.232
69567SOL     OW10597   3.229  13.833   5.273
69567SOL    HW110598   3.249  13.744   5.245
69567SOL    HW210599   3.266  13.840   5.361
69568SOL     OW10600   4.360  11.177  11.474
69568SOL    HW110601   4.402  11.247  11.423
69568SOL    HW210602   4.429  11.112  11.487
69569SOL     OW10603  11.878   6.782  12.689
69569SOL    HW110604  11.896   6.820  12.775
69569SOL    HW210605  11.811   6.716  12.706
69570SOL     OW10606  14.449  13.096  13.232
69570SOL    HW110607  14.403  13.110  13.150
69570SOL    HW210608  14.468  13.002  13.233
69571SOL     OW10609   0.926   0.260   2.366
69571SOL    HW110610   0.982   0.273   2.442
69571SOL    HW210611   0.876   0.181   2.387
69572SOL     OW10612   3.077  11.865   4.468
69572SOL    HW110613   3.122  11.786   4.437
69572SOL    HW210614   3.045  11.906   4.388
69573SOL     OW10615   1.192   2.729  14.579
69573SOL    HW110616   1.130   2.666  14.542
69573SOL    HW210617   1.217   2.692  14.663
69574SOL     OW10618   9.711   7.705   3.440
69574SOL    HW110619   9.645   7.768   3.412
69574SOL    HW210620   9.692   7.626   3.388
69575SOL     OW10621  13.445   5.625  10.932
69575SOL    HW110622  13.379   5.659  10.993
69575SOL    HW210623  13.411   5.648  10.846
69576SOL     OW10624  12.428   3.698   1.986
69576SOL    HW110625  12.473   3.741   1.914
69576SOL    HW210626  12.482   3.718   2.063
69577SOL     OW10627  13.915  10.157   7.055
69577SOL    HW110628  13.965  10.211   7.116
69577SOL    HW210629  13.835  10.206   7.038
69578SOL     OW10630   3.337   2.328   8.902
69578SOL    HW110631   3.397   2.268   8.947
69578SOL    HW210632   3.293   2.376   8.972
69579SOL     OW10633  11.620  12.158   7.983
69579SOL    HW110634  11.686  12.224   8.003
69579SOL    HW210635  11.631  12.141   7.889
69580SOL     OW10636   4.674   1.190  11.426
69580SOL    HW110637   4.721   1.112  11.396
69580SOL    HW210638   4.742   1.245  11.465
69581SOL     OW10639   6.736   3.690  11.189
69581SOL    HW110640   6.660   3.689  11.246
69581SOL    HW210641   6.808   3.656  11.243
69582SOL     OW10642  10.144   8.201  13.950
69582SOL    HW110643  10.171   8.110  13.957
69582SOL    HW210644  10.215   8.250  13.993
69583SOL     OW10645  10.275   3.845  14.783
69583SOL    HW110646  10.251   3.766  14.832
69583SOL    HW210647  10.356   3.821  14.738
69584SOL     OW10648   6.799   6.276   2.772
69584SOL    HW110649   6.863   6.298   2.705
69584SOL    HW210650   6.761   6.360   2.797
69585SOL     OW10651   5.417   0.633   5.275
69585SOL    HW110652   5.487   0.634   5.340
69585SOL    HW210653   5.341   0.670   5.321
69586SOL     OW10654  11.444   5.674  11.847
69586SOL    HW110655  11.400   5.692  11.930
69586SOL    HW210656  11.488   5.755  11.825
69587SOL     OW10657  13.571   1.372   6.063
69587SOL    HW110658  13.562   1.371   6.158
69587SOL    HW210659  13.486   1.405   6.032
69588SOL     OW10660   9.724  10.167  11.691
69588SOL    HW110661   9.787  10.227  11.652
69588SOL    HW210662   9.774  10.120  11.758
69589SOL     OW10663   7.792   0.470  11.546
69589SOL    HW110664   7.849   0.490  11.621
69589SOL    HW210665   7.818   0.533  11.479
69590SOL     OW10666  11.326   7.644   3.256
69590SOL    HW110667  11.365   7.561   3.283
69590SOL    HW210668  11.253   7.657   3.317
69591SOL     OW10669  14.030   7.174   0.242
69591SOL    HW110670  14.050   7.265   0.267
69591SOL    HW210671  13.982   7.139   0.318
69592SOL     OW10672  14.840  12.425   1.942
69592SOL    HW110673  14.867  12.368   2.014
69592SOL    HW210674  14.760  12.385   1.908
69593SOL     OW10675  14.445  13.221  10.940
69593SOL    HW110676  14.389  13.145  10.923
69593SOL    HW210677  14.449  13.267  10.857
69594SOL     OW10678  10.925   0.596   4.968
69594SOL    HW110679  10.864   0.598   5.042
69594SOL    HW210680  10.971   0.680   4.972
69595SOL     OW10681   8.748   2.316  10.095
69595SOL    HW110682   8.757   2.328  10.190
69595SOL    HW210683   8.656   2.337  10.077
69596SOL     OW10684  13.625   9.760  11.902
69596SOL    HW110685  13.552   9.821  11.898
69596SOL    HW210686  13.645   9.740  11.810
69597SOL     OW10687   2.723   5.312   6.606
69597SOL    HW110688   2.654   5.259   6.645
69597SOL    HW210689   2.745   5.267   6.524
69598SOL     OW10690   6.193  12.946   4.467
69598SOL    HW110691   6.214  13.038   4.484
69598SOL    HW210692   6.168  12.911   4.553
69599SOL     OW10693   6.909  13.247   3.022
69599SOL    HW110694   6.855  13.277   3.095
69599SOL    HW210695   6.918  13.324   2.966
69600SOL     OW10696   0.676   9.104   2.207
69600SOL    HW110697   0.765   9.125   2.178
69600SOL    HW210698   0.640   9.188   2.238
69601SOL     OW10699   9.941   3.561   5.335
69601SOL    HW110700   9.898   3.570   5.420
69601SOL    HW210701  10.032   3.541   5.356
69602SOL     OW10702   9.665   9.440   9.842
69602SOL    HW110703   9.586   9.468   9.889
69602SOL    HW210704   9.640   9.358   9.800
69603SOL     OW10705  14.384   0.158   5.877
69603SOL    HW110706  14.378   0.098   5.803
69603SOL    HW210707  14.478   0.170   5.891
69604SOL     OW10708  12.544   5.373  11.913
69604SOL    HW110709  12.476   5.321  11.868
69604SOL    HW210710  12.495   5.444  11.955
69605SOL     OW10711  12.826   6.480   4.790
69605SOL    HW110712  12.735   6.460   4.770
69605SOL    HW210713  12.854   6.412   4.851
69606SOL     OW10714   4.171   5.828   1.733
69606SOL    HW110715   4.249   5.868   1.696
69606SOL    HW210716   4.190   5.734   1.733
69607SOL     OW10717  13.645   9.624   6.561
69607SOL    HW110718  13.650   9.558   6.631
69607SOL    HW210719  13.562   9.606   6.517
69608SOL     OW10720   1.781   7.956  11.285
69608SOL    HW110721   1.826   8.014  11.346
69608SOL    HW210722   1.690   7.986  11.285
69609SOL     OW10723  14.376  12.206   5.127
69609SOL    HW110724  14.450  12.265   5.144
69609SOL    HW210725  14.301  12.253   5.164
69610SOL     OW10726  10.019   2.276   7.500
69610SOL    HW110727  10.000   2.287   7.593
69610SOL    HW210728  10.056   2.188   7.494
69611SOL     OW10729   6.781   1.173   7.384
69611SOL    HW110730   6.727   1.126   7.320
69611SOL    HW210731   6.734   1.255   7.398
69612SOL     OW10732  12.116   9.600  13.638
69612SOL    HW110733  12.088   9.627  13.550
69612SOL    HW210734  12.037   9.611  13.692
69613SOL     OW10735   9.205   5.551   4.883
69613SOL    HW110736   9.249   5.635   4.871
69613SOL    HW210737   9.227   5.525   4.973
69614SOL     OW10738   0.525  14.488  11.898
69614SOL    HW110739   0.608  14.492  11.947
69614SOL    HW210740   0.526  14.566  11.843
69615SOL     OW10741   7.390   6.420   0.780
69615SOL    HW110742   7.348   6.351   0.728
69615SOL    HW210743   7.483   6.401   0.775
69616SOL     OW10744  14.246  11.799   8.867
69616SOL    HW110745  14.270  11.746   8.791
69616SOL    HW210746  14.319  11.788   8.928
69617SOL     OW10747   5.362   1.092   8.818
69617SOL    HW110748   5.268   1.077   8.806
69617SOL    HW210749   5.403   1.017   8.774
69618SOL     OW10750   7.150  12.753   3.553
69618SOL    HW110751   7.130  12.794   3.637
69618SOL    HW210752   7.109  12.809   3.488
69619SOL     OW10753   6.551   5.458   2.522
69619SOL    HW110754   6.630   5.494   2.481
69619SOL    HW210755   6.508   5.409   2.452
69620SOL     OW10756   8.468   1.863  11.827
69620SOL    HW110757   8.552   1.847  11.783
69620SOL    HW210758   8.486   1.936  11.887
69621SOL     OW10759   2.165   3.115   0.208
69621SOL    HW110760   2.163   3.207   0.232
69621SOL    HW210761   2.075   3.096   0.181
69622SOL     OW10762   0.076   1.562   5.764
69622SOL    HW110763   0.127   1.504   5.707
69622SOL    HW210764   0.093   1.650   5.730
69623SOL     OW10765  10.471   8.124   5.261
69623SOL    HW110766  10.444   8.133   5.169
69623SOL    HW210767  10.557   8.166   5.264
69624SOL     OW10768   3.027  14.458  11.350
69624SOL    HW110769   2.977  14.378  11.365
69624SOL    HW210770   3.101  14.453  11.411
69625SOL     OW10771   9.879   2.836  14.705
69625SOL    HW110772   9.808   2.781  14.739
69625SOL    HW210773   9.951   2.775  14.689
69626SOL     OW10774   3.161  14.446  13.943
69626SOL    HW110775   3.194  14.379  13.884
69626SOL    HW210776   3.221  14.443  14.018
69627SOL     OW10777  10.278   6.399   8.771
69627SOL    HW110778  10.345   6.433   8.830
69627SOL    HW210779  10.197   6.402   8.823
69628SOL     OW10780  12.301   5.443   3.785
69628SOL    HW110781  12.323   5.393   3.706
69628SOL    HW210782  12.269   5.377   3.847
69629SOL     OW10783  13.620  12.066   4.023
69629SOL    HW110784  13.582  11.988   3.981
69629SOL    HW210785  13.576  12.139   3.979
69630SOL     OW10786   2.814   6.532   9.582
69630SOL    HW110787   2.756   6.595   9.624
69630SOL    HW210788   2.883   6.517   9.646
69631SOL     OW10789  12.077  10.718   7.311
69631SOL    HW110790  12.140  10.647   7.321
69631SOL    HW210791  12.042  10.733   7.399
69632SOL     OW10792  14.674  11.394  13.632
69632SOL    HW110793  14.663  11.326  13.699
69632SOL    HW210794  14.737  11.455  13.670
69633SOL     OW10795   2.912  10.784   0.388
69633SOL    HW110796   2.860  10.853   0.346
69633SOL    HW210797   2.969  10.831   0.449
69634SOL     OW10798  14.117   5.654  11.023
69634SOL    HW110799  14.204   5.638  10.986
69634SOL    HW210800  14.106   5.749  11.017
69635SOL     OW10801  12.197   6.588  11.105
69635SOL    HW110802  12.278   6.539  11.089
69635SOL    HW210803  12.225   6.666  11.151
69636SOL     OW10804  10.248  14.145  12.021
69636SOL    HW110805  10.154  14.147  12.007
69636SOL    HW210806  10.277  14.234  12.003
69637SOL     OW10807   0.892   2.950   7.906
69637SOL    HW110808   0.908   3.007   7.981
69637SOL    HW210809   0.899   3.008   7.830
69638SOL     OW10810  13.116   0.447   9.804
69638SOL    HW110811  13.060   0.375   9.776
69638SOL    HW210812  13.056   0.518   9.824
69639SOL     OW10813   6.222  14.277   5.692
69639SOL    HW110814   6.259  14.243   5.773
69639SOL    HW210815   6.248  14.213   5.625
69640SOL     OW10816   2.554   2.621  10.066
69640SOL    HW110817   2.502   2.556  10.019
69640SOL    HW210818   2.519   2.705  10.038
69641SOL     OW10819   8.221   0.393   9.039
69641SOL    HW110820   8.242   0.305   9.073
69641SOL    HW210821   8.254   0.392   8.949
69642SOL     OW10822   0.255   4.503  11.753
69642SOL    HW110823   0.184   4.561  11.726
69642SOL    HW210824   0.316   4.560  11.800
69643SOL     OW10825   3.218  10.638   7.319
69643SOL    HW110826   3.140  10.631   7.264
69643SOL    HW210827   3.186  10.624   7.408
69644SOL     OW10828   7.157   7.229   8.921
69644SOL    HW110829   7.194   7.192   8.840
69644SOL    HW210830   7.091   7.292   8.890
69645SOL     OW10831  12.409  10.290  10.639
69645SOL    HW110832  12.443  10.243  10.562
69645SOL    HW210833  12.438  10.237  10.713
69646SOL     OW10834  10.957  11.624   0.364
69646SOL    HW110835  10.954  11.565   0.440
69646SOL    HW210836  10.870  11.614   0.323
69647SOL     OW10837  11.984   1.384  12.475
69647SOL    HW110838  12.006   1.337  12.556
69647SOL    HW210839  12.068   1.413  12.441
69648SOL     OW10840   3.036   3.740   3.141
69648SOL    HW110841   3.039   3.653   3.103
69648SOL    HW210842   2.990   3.728   3.224
69649SOL     OW10843   7.104   4.607  12.093
69649SOL    HW110844   7.174   4.555  12.056
69649SOL    HW210845   7.130   4.698  12.077
69650SOL     OW10846   7.175   8.180  13.895
69650SOL    HW110847   7.121   8.188  13.974
69650SOL    HW210848   7.188   8.270  13.866
69651SOL     OW10849   3.675   3.018   7.830
69651SOL    HW110850   3.651   3.106   7.802
69651SOL    HW210851   3.752   3.030   7.884
69652SOL     OW10852  12.192   4.263   7.918
69652SOL    HW110853  12.210   4.211   7.996
69652SOL    HW210854  12.195   4.200   7.846
69653SOL     OW10855   7.438   6.433   3.818
69653SOL    HW110856   7.478   6.376   3.752
69653SOL    HW210857   7.437   6.520   3.778
69654SOL     OW10858   9.737  12.833  13.548
69654SOL    HW110859   9.798  12.816  13.476
69654SOL    HW210860   9.651  12.810  13.512
69655SOL     OW10861   9.396   4.896  10.654
69655SOL    HW110862   9.455   4.822  10.643
69655SOL    HW210863   9.401   4.944  10.572
69656SOL     OW10864   2.802   5.326   8.452
69656SOL    HW110865   2.793   5.260   8.383
69656SOL    HW210866   2.743   5.396   8.426
69657SOL     OW10867  10.693  11.503   4.687
69657SOL    HW110868  10.652  11.421   4.716
69657SOL    HW210869  10.758  11.476   4.623
69658SOL     OW10870  13.533   9.319   5.559
69658SOL    HW110871  13.547   9.262   5.484
69658SOL    HW210872  13.437   9.327   5.565
69659SOL     OW10873   1.550   4.968   7.311
69659SOL    HW110874   1.495   5.044   7.329
69659SOL    HW210875   1.515   4.899   7.368
69660SOL     OW10876   2.616  10.233  12.329
69660SOL    HW110877   2.603  10.240  12.424
69660SOL    HW210878   2.680  10.301  12.309
69661SOL     OW10879   3.385   1.343   6.393
69661SOL    HW110880   3.305   1.321   6.441
69661SOL    HW210881   3.368   1.315   6.303
69662SOL     OW10882  13.268   1.646  13.588
69662SOL    HW110883  13.223   1.678  13.666
69662SOL    HW210884  13.338   1.709  13.572
69663SOL     OW10885   1.928  13.889  10.061
69663SOL    HW110886   1.848  13.937  10.041
69663SOL    HW210887   1.994  13.926  10.003
69664SOL     OW10888   1.030   5.673   6.819
69664SOL    HW110889   1.045   5.624   6.738
69664SOL    HW210890   0.935   5.678   6.827
69665SOL     OW10891   6.142   5.635   1.473
69665SOL    HW110892   6.125   5.541   1.486
69665SOL    HW210893   6.055   5.675   1.477
69666SOL     OW10894  13.857  14.388   6.197
69666SOL    HW110895  13.781  14.442   6.176
69666SOL    HW210896  13.863  14.391   6.293
69667SOL     OW10897  10.152  11.340   0.969
69667SOL    HW110898  10.243  11.317   0.985
69667SOL    HW210899  10.155  11.428   0.932
69668SOL     OW10900  12.879   9.977   2.104
69668SOL    HW110901  12.941  10.048   2.086
69668SOL    HW210902  12.809   9.988   2.039
69669SOL     OW10903   3.655   3.305   7.762
69669SOL    HW110904   3.628   3.328   7.850
69669SOL    HW210905   3.748   3.285   7.770
69670SOL     OW10906  12.941   3.746   7.148
69670SOL    HW110907  12.931   3.700   7.065
69670SOL    HW210908  12.899   3.689   7.212
69671SOL     OW10909   4.749   0.033  13.029
69671SOL    HW110910   4.803   0.108  13.006
69671SOL    HW210911   4.798  14.871  13.099
69672SOL     OW10912   6.532   8.769  14.581
69672SOL    HW110913   6.523   8.864  14.567
69672SOL    HW210914   6.446   8.734  14.557
69673SOL     OW10915   4.396   7.152   4.532
69673SOL    HW110916   4.347   7.234   4.538
69673SOL    HW210917   4.404   7.135   4.439
69674SOL     OW10918  11.460  11.355   1.635
69674SOL    HW110919  11.506  11.327   1.555
69674SOL    HW210920  11.390  11.291   1.645
69675SOL     OW10921  13.098   8.926  11.533
69675SOL    HW110922  13.070   9.017  11.548
69675SOL    HW210923  13.097   8.916  11.438
69676SOL     OW10924  11.775   0.210   8.603
69676SOL    HW110925  11.819   0.287   8.568
69676SOL    HW210926  11.709   0.188   8.537
69677SOL     OW10927  10.547   8.052  10.751
69677SOL    HW110928  10.461   8.034  10.790
69677SOL    HW210929  10.528   8.085  10.664
69678SOL     OW10930   6.170   1.746   2.605
69678SOL    HW110931   6.214   1.808   2.548
69678SOL    HW210932   6.129   1.682   2.546
69679SOL     OW10933   2.610   3.077   8.329
69679SOL    HW110934   2.571   3.155   8.288
69679SOL    HW210935   2.623   3.016   8.257
69680SOL     OW10936  12.247   3.958   2.702
69680SOL    HW110937  12.275   4.050   2.696
69680SOL    HW210938  12.242   3.940   2.796
69681SOL     OW10939   8.484   6.575   5.027
69681SOL    HW110940   8.424   6.646   5.051
69681SOL    HW210941   8.566   6.619   5.008
69682SOL     OW10942   7.768   0.102   7.313
69682SOL    HW110943   7.701   0.041   7.345
69682SOL    HW210944   7.744   0.118   7.222
69683SOL     OW10945   7.254   9.988  12.277
69683SOL    HW110946   7.294  10.047  12.213
69683SOL    HW210947   7.323   9.976  12.343
69684SOL     OW10948   5.895   4.664  14.620
69684SOL    HW110949   5.814   4.656  14.670
69684SOL    HW210950   5.884   4.744  14.568
69685SOL     OW10951  10.557  10.151   8.538
69685SOL    HW110952  10.628  10.144   8.473
69685SOL    HW210953  10.577  10.082   8.602
69686SOL     OW10954  12.579   7.001  12.533
69686SOL    HW110955  12.508   7.056  12.499
69686SOL    HW210956  12.538   6.948  12.600
69687SOL     OW10957   7.681   5.273  14.661
69687SOL    HW110958   7.692   5.366  14.682
69687SOL    HW210959   7.747   5.229  14.715
69688SOL     OW10960  14.081   6.333  10.286
69688SOL    HW110961  13.990   6.306  10.300
69688SOL    HW210962  14.104   6.296  10.201
69689SOL     OW10963   8.793   6.943   7.895
69689SOL    HW110964   8.798   6.920   7.988
69689SOL    HW210965   8.700   6.945   7.875
69690SOL     OW10966   8.605  10.478   8.530
69690SOL    HW110967   8.621  10.395   8.576
69690SOL    HW210968   8.679  10.533   8.555
69691SOL     OW10969   0.593   9.171  14.357
69691SOL    HW110970   0.501   9.174  14.384
69691SOL    HW210971   0.594   9.215  14.272
69692SOL     OW10972   1.873   9.510  11.636
69692SOL    HW110973   1.917   9.544  11.558
69692SOL    HW210974   1.887   9.577  11.703
69693SOL     OW10975   4.196   9.695   8.878
69693SOL    HW110976   4.268   9.653   8.927
69693SOL    HW210977   4.234   9.716   8.794
69694SOL     OW10978  10.302   9.102  12.496
69694SOL    HW110979  10.249   9.176  12.468
69694SOL    HW210980  10.268   9.079  12.582
69695SOL     OW10981   6.487  13.691   8.826
69695SOL    HW110982   6.539  13.629   8.774
69695SOL    HW210983   6.510  13.777   8.791
69696SOL     OW10984   6.858   6.657  10.220
69696SOL    HW110985   6.782   6.715  10.220
69696SOL    HW210986   6.933   6.715  10.209
69697SOL     OW10987   3.499  11.821  10.710
69697SOL    HW110988   3.458  11.738  10.684
69697SOL    HW210989   3.431  11.887  10.697
69698SOL     OW10990   4.132   2.021  13.167
69698SOL    HW110991   4.044   1.998  13.195
69698SOL    HW210992   4.189   1.978  13.231
69699SOL     OW10993   4.589   5.794   6.520
69699SOL    HW110994   4.659   5.756   6.572
69699SOL    HW210995   4.551   5.721   6.472
69700SOL     OW10996   8.748   2.175   2.847
69700SOL    HW110997   8.840   2.149   2.851
69700SOL    HW210998   8.700   2.092   2.840
69701SOL     OW10999   1.005   2.429   1.251
69701SOL    HW111000   0.985   2.450   1.342
69701SOL    HW211001   1.097   2.452   1.241
69702SOL     OW11002   3.598   2.246   9.306
69702SOL    HW111003   3.571   2.335   9.283
69702SOL    HW211004   3.519   2.206   9.341
69703SOL     OW11005   3.024   0.625   4.957
69703SOL    HW111006   3.072   0.545   4.979
69703SOL    HW211007   2.970   0.643   5.033
69704SOL     OW11008   3.633   5.236   3.773
69704SOL    HW111009   3.656   5.329   3.769
69704SOL    HW211010   3.630   5.209   3.681
69705SOL     OW11011   5.367   1.543   5.457
69705SOL    HW111012   5.328   1.478   5.398
69705SOL    HW211013   5.424   1.595   5.400
69706SOL     OW11014  13.042   5.086   1.413
69706SOL    HW111015  13.098   5.009   1.421
69706SOL    HW211016  12.965   5.056   1.365
69707SOL     OW11017   9.900  14.385   3.275
69707SOL    HW111018   9.857  14.428   3.201
69707SOL    HW211019   9.987  14.425   3.278
69708SOL     OW11020   7.406   5.348  10.154
69708SOL    HW111021   7.430   5.383  10.068
69708SOL    HW211022   7.331   5.291  10.137
69709SOL     OW11023   1.345   7.904   6.323
69709SOL    HW111024   1.352   7.898   6.418
69709SOL    HW211025   1.435   7.917   6.293
69710SOL     OW11026   2.608   0.274   2.738
69710SOL    HW111027   2.647   0.188   2.721
69710SOL    HW211028   2.545   0.286   2.667
69711SOL     OW11029   7.815   1.063   7.521
69711SOL    HW111030   7.728   1.092   7.550
69711SOL    HW211031   7.800   0.976   7.485
69712SOL     OW11032   6.776   8.910   1.721
69712SOL    HW111033   6.699   8.965   1.735
69712SOL    HW211034   6.794   8.872   1.808
69713SOL     OW11035   8.078   6.344   7.175
69713SOL    HW111036   8.122   6.387   7.248
69713SOL    HW211037   8.148   6.330   7.110
69714SOL     OW11038  12.141  10.685   9.971
69714SOL    HW111039  12.142  10.626   9.896
69714SOL    HW211040  12.233  10.688  10.001
69715SOL     OW11041   1.830  11.115   7.961
69715SOL    HW111042   1.923  11.138   7.971
69715SOL    HW211043   1.784  11.197   7.976
69716SOL     OW11044  10.522   7.329  10.657
69716SOL    HW111045  10.442   7.378  10.642
69716SOL    HW211046  10.511   7.289  10.743
69717SOL     OW11047  13.943  14.660   8.132
69717SOL    HW111048  13.999  14.677   8.207
69717SOL    HW211049  13.877  14.598   8.163
69718SOL     OW11050   1.021   1.276   7.659
69718SOL    HW111051   1.081   1.203   7.644
69718SOL    HW211052   1.063   1.328   7.727
69719SOL     OW11053   4.610  13.399   3.372
69719SOL    HW111054   4.552  13.471   3.346
69719SOL    HW211055   4.668  13.438   3.438
69720SOL     OW11056   5.588  13.923   7.705
69720SOL    HW111057   5.527  13.902   7.775
69720SOL    HW211058   5.534  13.925   7.626
69721SOL     OW11059  14.134  14.268   7.335
69721SOL    HW111060  14.053  14.302   7.374
69721SOL    HW211061  14.163  14.339   7.277
69722SOL     OW11062   8.021   6.095  13.335
69722SOL    HW111063   8.085   6.155  13.297
69722SOL    HW211064   7.952   6.089  13.269
69723SOL     OW11065  10.723  11.711   8.976
69723SOL    HW111066  10.766  11.665   9.048
69723SOL    HW211067  10.629  11.700   8.993
69724SOL     OW11068  14.210  10.736   9.870
69724SOL    HW111069  14.289  10.683   9.873
69724SOL    HW211070  14.145  10.679   9.827
69725SOL     OW11071  11.756   1.467  10.487
69725SOL    HW111072  11.817   1.478  10.560
69725SOL    HW211073  11.808   1.482  10.409
69726SOL     OW11074   9.375   4.934  11.868
69726SOL    HW111075   9.440   4.939  11.938
69726SOL    HW211076   9.291   4.949  11.912
69727SOL     OW11077  12.464   2.444  14.278
69727SOL    HW111078  12.466   2.522  14.223
69727SOL    HW211079  12.509   2.470  14.358
69728SOL     OW11080   9.794   3.555   4.575
69728SOL    HW111081   9.782   3.502   4.654
69728SOL    HW211082   9.717   3.535   4.521
69729SOL     OW11083  10.691  14.855   3.635
69729SOL    HW111084  10.764  14.862   3.574
69729SOL    HW211085  10.630   0.042   3.607
69730SOL     OW11086  11.673  10.322   0.514
69730SOL    HW111087  11.637  10.234   0.514
69730SOL    HW211088  11.762  10.313   0.480
69731SOL     OW11089  13.861   9.829  11.481
69731SOL    HW111090  13.809   9.748  11.476
69731SOL    HW211091  13.803   9.897  11.447
69732SOL     OW11092   4.084   8.438   3.192
69732SOL    HW111093   4.000   8.463   3.154
69732SOL    HW211094   4.126   8.386   3.124
69733SOL     OW11095   0.661   8.761   0.216
69733SOL    HW111096   0.743   8.729   0.176
69733SOL    HW211097   0.674   8.749   0.310
69734SOL     OW11098   3.719   9.586  10.961
69734SOL    HW111099   3.804   9.576  10.919
69734SOL    HW211100   3.725   9.670  11.007
69735SOL     OW11101  12.795   4.327   1.626
69735SOL    HW111102  12.829   4.242   1.653
69735SOL    HW211103  12.847   4.351   1.550
69736SOL     OW11104  12.685   3.287  12.230
69736SOL    HW111105  12.737   3.234  12.292
69736SOL    HW211106  12.734   3.281  12.148
69737SOL     OW11107   6.958  12.055   8.307
69737SOL    HW111108   6.906  12.008   8.372
69737SOL    HW211109   7.048  12.050   8.340
69738SOL     OW11110  11.865   6.280   2.574
69738SOL    HW111111  11.785   6.238   2.543
69738SOL    HW211112  11.863   6.367   2.534
69739SOL     OW11113   0.267   7.726   6.978
69739SOL    HW111114   0.227   7.708   6.892
69739SOL    HW211115   0.225   7.662   7.036
69740SOL     OW11116   4.090  13.200   7.508
69740SOL    HW111117   4.097  13.178   7.416
69740SOL    HW211118   4.051  13.123   7.549
69741SOL     OW11119  12.792  14.811   3.515
69741SOL    HW111120  12.837  14.808   3.600
69741SOL    HW211121  12.767  14.721   3.498
69742SOL     OW11122  13.056   8.307  11.014
69742SOL    HW111123  13.088   8.392  11.045
69742SOL    HW211124  13.048   8.318  10.919
69743SOL     OW11125   6.756   0.240  13.277
69743SOL    HW111126   6.771   0.151  13.308
69743SOL    HW211127   6.670   0.236  13.234
69744SOL     OW11128  13.021   3.554  11.056
69744SOL    HW111129  13.063   3.516  10.979
69744SOL    HW211130  12.928   3.535  11.045
69745SOL     OW11131  13.532  13.035  14.594
69745SOL    HW111132  13.495  13.065  14.677
69745SOL    HW211133  13.517  13.109  14.534
69746SOL     OW11134   4.663   5.557  14.749
69746SOL    HW111135   4.686   5.604  14.829
69746SOL    HW211136   4.738   5.571  14.691
69747SOL     OW11137   7.541   1.910   6.372
69747SOL    HW111138   7.595   1.982   6.404
69747SOL    HW211139   7.484   1.889   6.446
69748SOL     OW11140  12.840   9.675  14.086
69748SOL    HW111141  12.853   9.613  14.157
69748SOL    HW211142  12.759   9.647  14.043
69749SOL     OW11143   8.781  14.567  13.758
69749SOL    HW111144   8.822  14.631  13.817
69749SOL    HW211145   8.807  14.482  13.794
69750SOL     OW11146   0.514   2.712  13.613
69750SOL    HW111147   0.480   2.650  13.678
69750SOL    HW211148   0.459   2.789  13.621
69751SOL     OW11149   5.625   9.356   9.066
69751SOL    HW111150   5.693   9.297   9.098
69751SOL    HW211151   5.656   9.386   8.981
69752SOL     OW11152   1.666   5.288   6.132
69752SOL    HW111153   1.597   5.278   6.198
69752SOL    HW211154   1.741   5.321   6.180
69753SOL     OW11155  10.652  11.716   9.943
69753SOL    HW111156  10.624  11.807   9.936
69753SOL    HW211157  10.596  11.669   9.880
69754SOL     OW11158   2.550   6.953   6.457
69754SOL    HW111159   2.597   6.992   6.384
69754SOL    HW211160   2.616   6.900   6.502
69755SOL     OW11161  11.331   8.960  12.832
69755SOL    HW111162  11.300   9.049  12.816
69755SOL    HW211163  11.367   8.932  12.748
69756SOL     OW11164  13.703  12.752   3.684
69756SOL    HW111165  13.740  12.688   3.745
69756SOL    HW211166  13.773  12.816   3.672
69757SOL     OW11167   8.144   3.425  14.084
69757SOL    HW111168   8.160   3.333  14.061
69757SOL    HW211169   8.153   3.472  14.001
69758SOL     OW11170  13.087   3.276  14.419
69758SOL    HW111171  13.097   3.368  14.443
69758SOL    HW211172  13.175   3.249  14.392
69759SOL     OW11173   1.808   7.334  11.025
69759SOL    HW111174   1.799   7.240  11.042
69759SOL    HW211175   1.902   7.349  11.021
69760SOL     OW11176   6.206   9.808   7.311
69760SOL    HW111177   6.117   9.843   7.319
69760SOL    HW211178   6.263   9.885   7.317
69761SOL     OW11179   5.297  11.586  13.530
69761SOL    HW111180   5.349  11.657  13.569
69761SOL    HW211181   5.320  11.587  13.437
69762SOL     OW11182  10.791   9.189   3.739
69762SOL    HW111183  10.698   9.209   3.727
69762SOL    HW211184  10.792   9.104   3.783
69763SOL     OW11185  13.006   0.455  14.696
69763SOL    HW111186  13.054   0.466  14.614
69763SOL    HW211187  12.967   0.541  14.712
69764SOL     OW11188  12.330   3.428   1.948
69764SOL    HW111189  12.408   3.483   1.942
69764SOL    HW211190  12.327   3.401   2.040
69765SOL     OW11191   9.496   0.996   4.188
69765SOL    HW111192   9.506   1.004   4.093
69765SOL    HW211193   9.550   0.921   4.212
69766SOL     OW11194  12.822   0.392  12.160
69766SOL    HW111195  12.816   0.304  12.197
69766SOL    HW211196  12.915   0.413  12.163
69767SOL     OW11197   9.983  13.123  11.536
69767SOL    HW111198   9.918  13.087  11.597
69767SOL    HW211199  10.040  13.048  11.516
69768SOL     OW11200   2.687  13.326  13.171
69768SOL    HW111201   2.763  13.375  13.140
69768SOL    HW211202   2.662  13.270  13.098
69769SOL     OW11203  14.032   9.183   0.702
69769SOL    HW111204  14.074   9.199   0.617
69769SOL    HW211205  14.074   9.103   0.735
69770SOL     OW11206   1.007   6.495   9.600
69770SOL    HW111207   1.075   6.495   9.532
69770SOL    HW211208   0.945   6.428   9.573
69771SOL     OW11209  13.209   5.807   6.708
69771SOL    HW111210  13.152   5.734   6.728
69771SOL    HW211211  13.237   5.791   6.618
69772SOL     OW11212   1.772   5.436   9.434
69772SOL    HW111213   1.768   5.409   9.342
69772SOL    HW211214   1.681   5.431   9.465
69773SOL     OW11215   8.129   4.042   7.314
69773SOL    HW111216   8.059   4.024   7.376
69773SOL    HW211217   8.163   3.955   7.290
69774SOL     OW11218  13.556  13.337   7.346
69774SOL    HW111219  13.553  13.265   7.283
69774SOL    HW211220  13.648  13.365   7.346
69775SOL     OW11221   3.835  11.299   3.097
69775SOL    HW111222   3.782  11.356   3.042
69775SOL    HW211223   3.920  11.295   3.054
69776SOL     OW11224   8.864   0.001   2.537
69776SOL    HW111225   8.820   0.057   2.474
69776SOL    HW211226   8.804  14.809   2.551
69777SOL     OW11227   7.268   1.100   1.048
69777SOL    HW111228   7.267   1.061   1.135
69777SOL    HW211229   7.361   1.105   1.025
69778SOL     OW11230  12.467   1.500   4.496
69778SOL    HW111231  12.495   1.463   4.412
69778SOL    HW211232  12.508   1.444   4.562
69779SOL     OW11233  13.254  10.062   6.696
69779SOL    HW111234  13.297  10.144   6.722
69779SOL    HW211235  13.325   9.999   6.689
69780SOL     OW11236  10.605  12.556  14.162
69780SOL    HW111237  10.541  12.561  14.091
69780SOL    HW211238  10.592  12.469  14.200
69781SOL     OW11239   0.251   3.976   5.236
69781SOL    HW111240   0.290   3.936   5.158
69781SOL    HW211241   0.322   3.976   5.301
69782SOL     OW11242  11.255   8.570   4.612
69782SOL    HW111243  11.292   8.619   4.538
69782SOL    HW211244  11.324   8.573   4.679
69783SOL     OW11245   3.902   2.768   3.593
69783SOL    HW111246   3.940   2.726   3.516
69783SOL    HW211247   3.940   2.856   3.595
69784SOL     OW11248  10.579   2.967  10.717
69784SOL    HW111249  10.644   2.925  10.661
69784SOL    HW211250  10.500   2.914  10.706
69785SOL     OW11251  11.764  11.882   7.880
69785SOL    HW111252  11.714  11.958   7.850
69785SOL    HW211253  11.841  11.881   7.824
69786SOL     OW11254   9.107  10.285   0.295
69786SOL    HW111255   9.138  10.242   0.375
69786SOL    HW211256   9.096  10.214   0.233
69787SOL     OW11257   1.677   6.262   7.750
69787SOL    HW111258   1.609   6.215   7.799
69787SOL    HW211259   1.742   6.286   7.816
69788SOL     OW11260   2.928   6.899   3.765
69788SOL    HW111261   3.009   6.855   3.736
69788SOL    HW211262   2.920   6.974   3.706
69789SOL     OW11263   1.220   5.951  11.878
69789SOL    HW111264   1.129   5.924  11.868
69789SOL    HW211265   1.216   6.026  11.938
69790SOL     OW11266  10.380  11.582   3.228
69790SOL    HW111267  10.404  11.589   3.320
69790SOL    HW211268  10.331  11.663   3.210
69791SOL     OW11269   7.941   3.247   7.844
69791SOL    HW111270   8.011   3.284   7.898
69791SOL    HW211271   7.930   3.310   7.772
69792SOL     OW11272  14.099   3.102  12.360
69792SOL    HW111273  14.122   3.032  12.421
69792SOL    HW211274  14.031   3.063  12.304
69793SOL     OW11275   3.790   8.486  11.147
69793SOL    HW111276   3.860   8.426  11.123
69793SOL    HW211277   3.715   8.430  11.165
69794SOL     OW11278  10.428   0.392   5.286
69794SOL    HW111279  10.491   0.355   5.224
69794SOL    HW211280  10.426   0.485   5.266
69795SOL     OW11281   2.639   5.239  14.646
69795SOL    HW111282   2.593   5.323  14.645
69795SOL    HW211283   2.603   5.193  14.722
69796SOL     OW11284  11.538   2.052   3.773
69796SOL    HW111285  11.538   2.052   3.868
69796SOL    HW211286  11.630   2.050   3.749
69797SOL     OW11287   9.082  12.098   5.958
69797SOL    HW111288   9.110  12.188   5.976
69797SOL    HW211289   9.065  12.060   6.044
69798SOL     OW11290   9.424   6.882   1.138
69798SOL    HW111291   9.433   6.828   1.060
69798SOL    HW211292   9.352   6.842   1.187
69799SOL     OW11293  12.031  11.825   8.554
69799SOL    HW111294  11.980  11.862   8.626
69799SOL    HW211295  11.966  11.790   8.494
69800SOL     OW11296   3.983   4.489   4.507
69800SOL    HW111297   3.937   4.411   4.537
69800SOL    HW211298   4.074   4.462   4.497
69801SOL     OW11299   7.231  11.294   3.033
69801SOL    HW111300   7.270  11.218   2.991
69801SOL    HW211301   7.289  11.367   3.010
69802SOL     OW11302   2.940  12.394   6.478
69802SOL    HW111303   2.849  12.387   6.505
69802SOL    HW211304   2.943  12.473   6.424
69803SOL     OW11305   1.222   8.438   6.474
69803SOL    HW111306   1.131   8.415   6.496
69803SOL    HW211307   1.227   8.533   6.489
69804SOL     OW11308   1.163   9.849   6.558
69804SOL    HW111309   1.119   9.907   6.620
69804SOL    HW211310   1.204   9.782   6.614
69805SOL     OW11311   9.231   4.256  14.569
69805SOL    HW111312   9.171   4.326  14.544
69805SOL    HW211313   9.230   4.256  14.664
69806SOL     OW11314   6.017   0.050   8.885
69806SOL    HW111315   5.959   0.118   8.852
69806SOL    HW211316   6.032   0.074   8.977
69807SOL     OW11317   9.432  14.486  14.124
69807SOL    HW111318   9.516  14.512  14.085
69807SOL    HW211319   9.387  14.440  14.053
69808SOL     OW11320   5.461   6.770   0.158
69808SOL    HW111321   5.389   6.742   0.213
69808SOL    HW211322   5.528   6.802   0.219
69809SOL     OW11323   7.092   7.314   8.170
69809SOL    HW111324   7.087   7.219   8.178
69809SOL    HW211325   7.186   7.334   8.167
69810SOL     OW11326   8.672  14.174  11.075
69810SOL    HW111327   8.751  14.165  11.022
69810SOL    HW211328   8.667  14.094  11.126
69811SOL     OW11329  13.881   1.226  10.705
69811SOL    HW111330  13.944   1.280  10.753
69811SOL    HW211331  13.903   1.241  10.613
69812SOL     OW11332   9.205  10.841   1.938
69812SOL    HW111333   9.145  10.793   1.881
69812SOL    HW211334   9.150  10.907   1.980
69813SOL     OW11335   8.304   1.857  10.096
69813SOL    HW111336   8.257   1.927  10.142
69813SOL    HW211337   8.374   1.831  10.156
69814SOL     OW11338   4.461   9.542   7.605
69814SOL    HW111339   4.437   9.632   7.628
69814SOL    HW211340   4.469   9.497   7.690
69815SOL     OW11341   3.630   1.670   7.626
69815SOL    HW111342   3.671   1.702   7.545
69815SOL    HW211343   3.703   1.646   7.683
69816SOL     OW11344  13.499   3.581  11.297
69816SOL    HW111345  13.535   3.549  11.215
69816SOL    HW211346  13.406   3.560  11.292
69817SOL     OW11347   2.231   6.915  10.548
69817SOL    HW111348   2.210   6.963  10.468
69817SOL    HW211349   2.241   6.983  10.614
69818SOL     OW11350   4.101  10.354   9.704
69818SOL    HW111351   4.112  10.402   9.787
69818SOL    HW211352   4.180  10.302   9.695
69819SOL     OW11353   2.170   7.921   5.005
69819SOL    HW111354   2.091   7.910   5.057
69819SOL    HW211355   2.157   8.003   4.958
69820SOL     OW11356   3.285  13.109  12.064
69820SOL    HW111357   3.305  13.186  12.117
69820SOL    HW211358   3.217  13.138  12.003
69821SOL     OW11359   5.258   1.824  12.226
69821SOL    HW111360   5.326   1.865  12.173
69821SOL    HW211361   5.177   1.868  12.199
69822SOL     OW11362   7.283   0.713   2.683
69822SOL    HW111363   7.191   0.715   2.657
69822SOL    HW211364   7.330   0.695   2.602
69823SOL     OW11365   2.306   8.509  13.318
69823SOL    HW111366   2.395   8.474  13.315
69823SOL    HW211367   2.296   8.542  13.407
69824SOL     OW11368   2.227   7.527  12.061
69824SOL    HW111369   2.160   7.527  12.130
69824SOL    HW211370   2.257   7.618  12.058
69825SOL     OW11371  12.411   8.213   8.627
69825SOL    HW111372  12.364   8.176   8.552
69825SOL    HW211373  12.353   8.199   8.701
69826SOL     OW11374   2.983   3.989  10.364
69826SOL    HW111375   2.898   4.029  10.385
69826SOL    HW211376   3.005   4.022  10.277
69827SOL     OW11377   9.274   8.005  13.410
69827SOL    HW111378   9.359   7.991  13.368
69827SOL    HW211379   9.280   7.956  13.492
69828SOL     OW11380  14.525   6.474  11.416
69828SOL    HW111381  14.524   6.564  11.447
69828SOL    HW211382  14.572   6.426  11.485
69829SOL     OW11383   7.984   2.767   2.989
69829SOL    HW111384   7.962   2.820   3.066
69829SOL    HW211385   8.041   2.698   3.023
69830SOL     OW11386   4.959   5.744   3.792
69830SOL    HW111387   4.883   5.719   3.844
69830SOL    HW211388   4.980   5.833   3.821
69831SOL     OW11389  13.141   7.490   0.722
69831SOL    HW111390  13.054   7.516   0.751
69831SOL    HW211391  13.179   7.444   0.797
69832SOL     OW11392  12.625   4.621   1.697
69832SOL    HW111393  12.633   4.652   1.607
69832SOL    HW211394  12.568   4.685   1.739
69833SOL     OW11395  12.912  13.446   7.075
69833SOL    HW111396  12.980  13.512   7.063
69833SOL    HW211397  12.835  13.496   7.100
69834SOL     OW11398  11.429  10.739  13.833
69834SOL    HW111399  11.422  10.831  13.858
69834SOL    HW211400  11.369  10.693  13.891
69835SOL     OW11401   8.975   9.688   4.040
69835SOL    HW111402   9.025   9.744   3.981
69835SOL    HW211403   8.907   9.745   4.076
69836SOL     OW11404   5.071   7.299   0.134
69836SOL    HW111405   5.020   7.226   0.100
69836SOL    HW211406   5.022   7.331   0.209
69837SOL     OW11407   8.887  13.641   8.975
69837SOL    HW111408   8.882  13.653   9.070
69837SOL    HW211409   8.972  13.598   8.961
69838SOL     OW11410   6.661  10.673   7.751
69838SOL    HW111411   6.600  10.743   7.727
69838SOL    HW211412   6.616  10.593   7.725
69839SOL     OW11413  13.605   0.999   6.282
69839SOL    HW111414  13.597   0.983   6.187
69839SOL    HW211415  13.674   0.939   6.310
69840SOL     OW11416   3.654  12.314   2.634
69840SOL    HW111417   3.574  12.268   2.609
69840SOL    HW211418   3.656  12.391   2.578
69841SOL     OW11419  11.644   0.456   5.222
69841SOL    HW111420  11.731   0.494   5.230
69841SOL    HW211421  11.658   0.362   5.217
69842SOL     OW11422  10.449  11.380   2.222
69842SOL    HW111423  10.518  11.445   2.238
69842SOL    HW211424  10.368  11.432   2.215
69843SOL     OW11425  10.116   7.118  13.028
69843SOL    HW111426  10.100   7.025  13.010
69843SOL    HW211427  10.115   7.160  12.942
69844SOL     OW11428  12.977   5.014   3.530
69844SOL    HW111429  12.904   4.955   3.550
69844SOL    HW211430  13.008   4.986   3.444
69845SOL     OW11431   8.328  13.405  14.726
69845SOL    HW111432   8.356  13.314  14.738
69845SOL    HW211433   8.234  13.399  14.710
69846SOL     OW11434   2.784   7.842   8.947
69846SOL    HW111435   2.729   7.828   9.024
69846SOL    HW211436   2.829   7.924   8.964
69847SOL     OW11437   6.666  13.771  13.954
69847SOL    HW111438   6.577  13.797  13.978
69847SOL    HW211439   6.705  13.741  14.036
69848SOL     OW11440  11.689  14.702   8.109
69848SOL    HW111441  11.690  14.751   8.191
69848SOL    HW211442  11.612  14.646   8.116
69849SOL     OW11443   8.344   8.631  10.264
69849SOL    HW111444   8.304   8.546  10.245
69849SOL    HW211445   8.431   8.611  10.297
69850SOL     OW11446   8.124   3.510  14.468
69850SOL    HW111447   8.087   3.534  14.383
69850SOL    HW211448   8.165   3.425  14.454
69851SOL     OW11449  11.459  13.854   8.497
69851SOL    HW111450  11.413  13.772   8.479
69851SOL    HW211451  11.389  13.919   8.510
69852SOL     OW11452   4.476   7.007   5.037
69852SOL    HW111453   4.522   7.062   4.974
69852SOL    HW211454   4.452   6.929   4.988
69853SOL     OW11455   8.546  12.086   7.446
69853SOL    HW111456   8.587  12.131   7.372
69853SOL    HW211457   8.504  12.010   7.407
69854SOL     OW11458  10.021   6.397   0.621
69854SOL    HW111459  10.058   6.381   0.535
69854SOL    HW211460  10.094   6.385   0.682
69855SOL     OW11461   8.071   7.396  14.769
69855SOL    HW111462   8.091   7.470  14.711
69855SOL    HW211463   7.977   7.382  14.757
69856SOL     OW11464   6.702   5.304   8.112
69856SOL    HW111465   6.775   5.360   8.084
69856SOL    HW211466   6.733   5.215   8.093
69857SOL     OW11467   3.701   4.678   4.808
69857SOL    HW111468   3.661   4.756   4.771
69857SOL    HW211469   3.784   4.669   4.761
69858SOL     OW11470  13.618   4.135   8.126
69858SOL    HW111471  13.615   4.046   8.161
69858SOL    HW211472  13.624   4.123   8.031
69859SOL     OW11473   2.996   6.074  11.477
69859SOL    HW111474   2.929   6.142  11.481
69859SOL    HW211475   3.075   6.120  11.451
69860SOL     OW11476   2.497   6.778   1.063
69860SOL    HW111477   2.424   6.785   1.125
69860SOL    HW211478   2.454   6.774   0.977
69861SOL     OW11479   9.208   8.851   9.304
69861SOL    HW111480   9.290   8.843   9.256
69861SOL    HW211481   9.203   8.772   9.358
69862SOL     OW11482   5.526   4.915   4.908
69862SOL    HW111483   5.525   4.880   4.819
69862SOL    HW211484   5.580   4.853   4.957
69863SOL     OW11485   1.666  11.075   3.514
69863SOL    HW111486   1.669  11.078   3.418
69863SOL    HW211487   1.572  11.073   3.534
69864SOL     OW11488   6.176  13.848   9.603
69864SOL    HW111489   6.147  13.764   9.567
69864SOL    HW211490   6.118  13.913   9.561
69865SOL     OW11491   7.000  12.196  14.166
69865SOL    HW111492   6.932  12.133  14.190
69865SOL    HW211493   7.012  12.250  14.244
69866SOL     OW11494   6.880   7.604   2.514
69866SOL    HW111495   6.934   7.679   2.488
69866SOL    HW211496   6.935   7.555   2.575
69867SOL     OW11497   1.600   0.523  13.214
69867SOL    HW111498   1.695   0.525  13.228
69867SOL    HW211499   1.570   0.444  13.258
69868SOL     OW11500  12.257   4.558   5.644
69868SOL    HW111501  12.217   4.539   5.729
69868SOL    HW211502  12.260   4.654   5.641
69869SOL     OW11503   2.916   5.720   8.313
69869SOL    HW111504   2.935   5.703   8.220
69869SOL    HW211505   2.977   5.790   8.337
69870SOL     OW11506  11.352   2.348   2.498
69870SOL    HW111507  11.270   2.311   2.467
69870SOL    HW211508  11.410   2.273   2.508
69871SOL     OW11509   4.666  12.184  13.095
69871SOL    HW111510   4.731  12.138  13.042
69871SOL    HW211511   4.707  12.268  13.115
69872SOL     OW11512   9.435   7.308   0.917
69872SOL    HW111513   9.517   7.281   0.957
69872SOL    HW211514   9.459   7.335   0.828
69873SOL     OW11515   2.027  10.985   4.774
69873SOL    HW111516   2.113  11.011   4.807
69873SOL    HW211517   1.990  10.932   4.844
69874SOL     OW11518  11.249   2.231   8.273
69874SOL    HW111519  11.217   2.311   8.313
69874SOL    HW211520  11.332   2.256   8.232
69875SOL     OW11521  10.886  10.789   1.201
69875SOL    HW111522  10.899  10.715   1.142
69875SOL    HW211523  10.968  10.839   1.195
69876SOL     OW11524   3.157   9.762   8.162
69876SOL    HW111525   3.141   9.691   8.100
69876SOL    HW211526   3.252   9.774   8.161
69877SOL     OW11527   5.332  12.547   5.892
69877SOL    HW111528   5.361  12.552   5.801
69877SOL    HW211529   5.249  12.595   5.893
69878SOL     OW11530   5.183  11.607   8.065
69878SOL    HW111531   5.131  11.592   8.144
69878SOL    HW211532   5.133  11.564   7.996
69879SOL     OW11533  14.550   3.506   4.302
69879SOL    HW111534  14.490   3.528   4.373
69879SOL    HW211535  14.610   3.441   4.340
69880SOL     OW11536   9.266  14.134   0.909
69880SOL    HW111537   9.246  14.180   0.990
69880SOL    HW211538   9.346  14.086   0.928
69881SOL     OW11539   3.466  11.881   3.932
69881SOL    HW111540   3.450  11.809   3.870
69881SOL    HW211541   3.406  11.950   3.904
69882SOL     OW11542   7.337   7.486   7.702
69882SOL    HW111543   7.420   7.456   7.664
69882SOL    HW211544   7.351   7.579   7.718
69883SOL     OW11545   4.451   3.865   9.780
69883SOL    HW111546   4.537   3.905   9.792
69883SOL    HW211547   4.416   3.853   9.868
69884SOL     OW11548  11.658  11.434   9.297
69884SOL    HW111549  11.629  11.460   9.210
69884SOL    HW211550  11.625  11.344   9.307
69885SOL     OW11551   5.726   5.866  10.348
69885SOL    HW111552   5.819   5.857  10.366
69885SOL    HW211553   5.718   5.949  10.301
69886SOL     OW11554   3.292  13.278   1.001
69886SOL    HW111555   3.272  13.271   1.094
69886SOL    HW211556   3.318  13.369   0.989
69887SOL     OW11557   2.386   1.865   4.578
69887SOL    HW111558   2.370   1.855   4.484
69887SOL    HW211559   2.299   1.876   4.617
69888SOL     OW11560   5.910   4.452   4.288
69888SOL    HW111561   5.928   4.544   4.308
69888SOL    HW211562   5.969   4.431   4.215
69889SOL     OW11563  12.929  13.684   5.933
69889SOL    HW111564  12.834  13.681   5.927
69889SOL    HW211565  12.951  13.775   5.913
69890SOL     OW11566   4.196  14.227   0.156
69890SOL    HW111567   4.157  14.149   0.117
69890SOL    HW211568   4.201  14.290   0.084
69891SOL     OW11569   4.055   2.250   1.582
69891SOL    HW111570   3.981   2.262   1.641
69891SOL    HW211571   4.074   2.156   1.585
69892SOL     OW11572  12.291   3.661   8.762
69892SOL    HW111573  12.296   3.573   8.800
69892SOL    HW211574  12.215   3.657   8.703
69893SOL     OW11575   7.403  11.363   1.283
69893SOL    HW111576   7.487  11.321   1.298
69893SOL    HW211577   7.422  11.434   1.221
69894SOL     OW11578   5.225   3.892  10.172
69894SOL    HW111579   5.180   3.871  10.254
69894SOL    HW211580   5.287   3.961  10.196
69895SOL     OW11581   7.745   3.099   1.247
69895SOL    HW111582   7.798   3.178   1.250
69895SOL    HW211583   7.802   3.031   1.284
69896SOL     OW11584   6.939  12.230   4.442
69896SOL    HW111585   6.994  12.250   4.365
69896SOL    HW211586   6.995  12.176   4.498
69897SOL     OW11587   6.618   4.838   8.882
69897SOL    HW111588   6.615   4.929   8.852
69897SOL    HW211589   6.530   4.804   8.864
69898SOL     OW11590  10.722   6.071  10.913
69898SOL    HW111591  10.737   5.991  10.863
69898SOL    HW211592  10.660   6.045  10.982
69899SOL     OW11593   9.649   7.214   6.138
69899SOL    HW111594   9.650   7.201   6.044
69899SOL    HW211595   9.626   7.128   6.174
69900SOL     OW11596   2.874   9.285  13.760
69900SOL    HW111597   2.855   9.202  13.717
69900SOL    HW211598   2.965   9.277  13.788
69901SOL     OW11599   2.856   2.365   7.794
69901SOL    HW111600   2.946   2.377   7.822
69901SOL    HW211601   2.860   2.370   7.698
69902SOL     OW11602   7.016   4.299  14.734
69902SOL    HW111603   7.018   4.245  14.655
69902SOL    HW211604   7.022   4.389  14.702
69903SOL     OW11605   2.364  11.715   7.160
69903SOL    HW111606   2.348  11.788   7.219
69903SOL    HW211607   2.385  11.642   7.217
69904SOL     OW11608   1.859  10.872  13.066
69904SOL    HW111609   1.884  10.784  13.038
69904SOL    HW211610   1.807  10.858  13.145
69905SOL     OW11611   8.287   3.959  11.127
69905SOL    HW111612   8.227   3.893  11.162
69905SOL    HW211613   8.229   4.022  11.083
69906SOL     OW11614   7.103   5.498   8.313
69906SOL    HW111615   7.053   5.423   8.347
69906SOL    HW211616   7.164   5.459   8.251
69907SOL     OW11617   7.152   3.808   1.195
69907SOL    HW111618   7.228   3.860   1.168
69907SOL    HW211619   7.082   3.836   1.135
69908SOL     OW11620   8.387   2.738  14.515
69908SOL    HW111621   8.480   2.723  14.503
69908SOL    HW211622   8.348   2.651  14.520
69909SOL     OW11623  11.644  12.336  10.896
69909SOL    HW111624  11.644  12.263  10.958
69909SOL    HW211625  11.670  12.412  10.948
69910SOL     OW11626   0.195   6.343   7.101
69910SOL    HW111627   0.129   6.407   7.075
69910SOL    HW211628   0.271   6.395   7.127
69911SOL     OW11629   9.352   4.991   6.351
69911SOL    HW111630   9.424   4.948   6.397
69911SOL    HW211631   9.280   4.928   6.353
69912SOL     OW11632   0.534   3.068   4.489
69912SOL    HW111633   0.602   3.005   4.465
69912SOL    HW211634   0.475   3.069   4.414
69913SOL     OW11635  12.593  12.477   9.843
69913SOL    HW111636  12.684  12.448   9.839
69913SOL    HW211637  12.592  12.558   9.791
69914SOL     OW11638   8.848   9.130   4.345
69914SOL    HW111639   8.847   9.223   4.324
69914SOL    HW211640   8.816   9.124   4.435
69915SOL     OW11641  10.991   9.224   1.276
69915SOL    HW111642  10.946   9.306   1.258
69915SOL    HW211643  10.931   9.156   1.247
69916SOL     OW11644   7.742  14.149   6.658
69916SOL    HW111645   7.793  14.167   6.579
69916SOL    HW211646   7.787  14.076   6.700
69917SOL     OW11647  11.772   7.294   5.716
69917SOL    HW111648  11.847   7.351   5.733
69917SOL    HW211649  11.718   7.302   5.795
69918SOL     OW11650   2.637   4.935   5.619
69918SOL    HW111651   2.698   4.938   5.545
69918SOL    HW211652   2.554   4.963   5.583
69919SOL     OW11653  12.551   2.403   0.455
69919SOL    HW111654  12.458   2.426   0.454
69919SOL    HW211655  12.556   2.316   0.415
69920SOL     OW11656   4.939  11.668  14.003
69920SOL    HW111657   4.987  11.650  14.084
69920SOL    HW211658   4.955  11.591  13.949
69921SOL     OW11659   2.354   1.891   9.140
69921SOL    HW111660   2.310   1.922   9.061
69921SOL    HW211661   2.378   1.970   9.187
69922SOL     OW11662   6.490   4.046   0.816
69922SOL    HW111663   6.495   4.041   0.720
69922SOL    HW211664   6.492   4.140   0.835
69923SOL     OW11665   9.147  10.752   9.376
69923SOL    HW111666   9.078  10.688   9.392
69923SOL    HW211667   9.103  10.826   9.334
69924SOL     OW11668  13.936  14.832   8.842
69924SOL    HW111669  13.897  14.850   8.927
69924SOL    HW211670  14.000   0.020   8.829
69925SOL     OW11671  10.142   1.939   4.257
69925SOL    HW111672  10.106   1.851   4.258
69925SOL    HW211673  10.099   1.984   4.330
69926SOL     OW11674  10.299   6.447  10.348
69926SOL    HW111675  10.347   6.414  10.424
69926SOL    HW211676  10.259   6.528  10.379
69927SOL     OW11677   1.868   3.175   1.662
69927SOL    HW111678   1.795   3.124   1.696
69927SOL    HW211679   1.919   3.113   1.611
69928SOL     OW11680  13.004  14.532   6.562
69928SOL    HW111681  12.955  14.613   6.546
69928SOL    HW211682  13.001  14.521   6.657
69929SOL     OW11683  12.532   1.704  12.929
69929SOL    HW111684  12.493   1.791  12.933
69929SOL    HW211685  12.593   1.708  12.855
69930SOL     OW11686   5.251  12.223   0.351
69930SOL    HW111687   5.203  12.224   0.433
69930SOL    HW211688   5.320  12.159   0.364
69931SOL     OW11689   5.622   0.428   1.865
69931SOL    HW111690   5.642   0.348   1.914
69931SOL    HW211691   5.571   0.482   1.925
69932SOL     OW11692   2.278  13.036  11.471
69932SOL    HW111693   2.218  12.962  11.475
69932SOL    HW211694   2.221  13.112  11.455
69933SOL     OW11695   9.130   6.813   2.094
69933SOL    HW111696   9.068   6.795   2.023
69933SOL    HW211697   9.174   6.893   2.068
69934SOL     OW11698   3.412   4.884  13.302
69934SOL    HW111699   3.446   4.882  13.391
69934SOL    HW211700   3.325   4.924  13.311
69935SOL     OW11701   2.360   9.191  12.117
69935SOL    HW111702   2.431   9.183  12.054
69935SOL    HW211703   2.297   9.250  12.074
69936SOL     OW11704   0.482   7.368   4.149
69936SOL    HW111705   0.440   7.435   4.203
69936SOL    HW211706   0.571   7.360   4.185
69937SOL     OW11707   7.080   1.275   3.188
69937SOL    HW111708   7.021   1.219   3.238
69937SOL    HW211709   7.125   1.328   3.253
69938SOL     OW11710   8.060   1.124   9.478
69938SOL    HW111711   7.977   1.118   9.526
69938SOL    HW211712   8.127   1.099   9.543
69939SOL     OW11713   2.230  14.591  14.393
69939SOL    HW111714   2.178  14.662  14.430
69939SOL    HW211715   2.201  14.513  14.439
69940SOL     OW11716  10.981   8.131  12.075
69940SOL    HW111717  10.964   8.064  12.009
69940SOL    HW211718  11.073   8.155  12.061
69941SOL     OW11719   8.736   2.677   0.235
69941SOL    HW111720   8.679   2.645   0.305
69941SOL    HW211721   8.738   2.772   0.247
69942SOL     OW11722   5.511  14.130   9.613
69942SOL    HW111723   5.447  14.059   9.617
69942SOL    HW211724   5.514  14.154   9.520
69943SOL     OW11725   7.264   4.580   9.893
69943SOL    HW111726   7.243   4.492   9.862
69943SOL    HW211727   7.359   4.586   9.884
69944SOL     OW11728   3.963  12.469   5.832
69944SOL    HW111729   4.027  12.541   5.831
69944SOL    HW211730   3.895  12.499   5.892
69945SOL     OW11731   4.045  11.731  11.988
69945SOL    HW111732   4.064  11.749  11.896
69945SOL    HW211733   3.949  11.724  11.992
69946SOL     OW11734   6.629   4.832   7.112
69946SOL    HW111735   6.584   4.753   7.142
69946SOL    HW211736   6.602   4.900   7.174
69947SOL     OW11737   8.727   0.258   2.857
69947SOL    HW111738   8.727   0.164   2.838
69947SOL    HW211739   8.688   0.265   2.944
69948SOL     OW11740  13.960   5.150  12.979
69948SOL    HW111741  14.043   5.104  12.993
69948SOL    HW211742  13.923   5.160  13.067
69949SOL     OW11743  13.237   6.304   0.850
69949SOL    HW111744  13.309   6.366   0.836
69949SOL    HW211745  13.171   6.330   0.786
69950SOL     OW11746   1.258   1.544   8.760
69950SOL    HW111747   1.260   1.582   8.672
69950SOL    HW211748   1.330   1.482   8.761
69951SOL     OW11749  12.165  11.158   9.343
69951SOL    HW111750  12.200  11.131   9.428
69951SOL    HW211751  12.077  11.192   9.363
69952SOL     OW11752  12.676   3.914  11.762
69952SOL    HW111753  12.711   3.921  11.673
69952SOL    HW211754  12.752   3.923  11.818
69953SOL     OW11755  11.572   6.655   2.354
69953SOL    HW111756  11.496   6.639   2.297
69953SOL    HW211757  11.594   6.747   2.340
69954SOL     OW11758   5.106   2.136  10.805
69954SOL    HW111759   5.102   2.227  10.837
69954SOL    HW211760   5.176   2.096  10.858
69955SOL     OW11761  13.984   8.807   6.885
69955SOL    HW111762  14.048   8.807   6.813
69955SOL    HW211763  13.925   8.735   6.864
69956SOL     OW11764  10.402   8.664   6.335
69956SOL    HW111765  10.333   8.606   6.366
69956SOL    HW211766  10.434   8.708   6.414
69957SOL     OW11767  13.893  13.330   3.207
69957SOL    HW111768  13.843  13.400   3.249
69957SOL    HW211769  13.841  13.251   3.223
69958SOL     OW11770   3.137   2.544   0.347
69958SOL    HW111771   3.146   2.473   0.410
69958SOL    HW211772   3.225   2.581   0.339
69959SOL     OW11773   7.477   4.400   4.632
69959SOL    HW111774   7.539   4.420   4.702
69959SOL    HW211775   7.394   4.382   4.677
69960SOL     OW11776   5.660   3.580   7.789
69960SOL    HW111777   5.579   3.616   7.755
69960SOL    HW211778   5.633   3.519   7.857
69961SOL     OW11779   5.098   1.568  14.193
69961SOL    HW111780   5.047   1.500  14.235
69961SOL    HW211781   5.071   1.649  14.236
69962SOL     OW11782  11.031   8.920   0.869
69962SOL    HW111783  10.987   8.917   0.784
69962SOL    HW211784  10.989   8.852   0.921
69963SOL     OW11785   6.024   5.357   5.806
69963SOL    HW111786   6.025   5.402   5.890
69963SOL    HW211787   6.115   5.336   5.788
69964SOL     OW11788  12.178  13.468  12.853
69964SOL    HW111789  12.148  13.383  12.822
69964SOL    HW211790  12.171  13.526  12.777
69965SOL     OW11791  10.478   0.867  13.552
69965SOL    HW111792  10.449   0.947  13.596
69965SOL    HW211793  10.573   0.871  13.555
69966SOL     OW11794  14.425   1.877  11.498
69966SOL    HW111795  14.426   1.790  11.538
69966SOL    HW211796  14.363   1.927  11.550
69967SOL     OW11797  12.396   0.172   4.792
69967SOL    HW111798  12.453   0.203   4.722
69967SOL    HW211799  12.324   0.128   4.748
69968SOL     OW11800  13.531   3.603   5.684
69968SOL    HW111801  13.545   3.674   5.747
69968SOL    HW211802  13.551   3.642   5.599
69969SOL     OW11803  13.501   1.575   4.466
69969SOL    HW111804  13.492   1.655   4.415
69969SOL    HW211805  13.448   1.510   4.420
69970SOL     OW11806   6.256   1.234   1.666
69970SOL    HW111807   6.324   1.252   1.601
69970SOL    HW211808   6.272   1.298   1.735
69971SOL     OW11809   0.849   1.587  12.155
69971SOL    HW111810   0.938   1.554  12.146
69971SOL    HW211811   0.858   1.669  12.204
69972SOL     OW11812   8.618   1.233   6.545
69972SOL    HW111813   8.581   1.249   6.632
69972SOL    HW211814   8.609   1.139   6.532
69973SOL     OW11815   3.539  10.281   0.990
69973SOL    HW111816   3.598  10.224   1.039
69973SOL    HW211817   3.596  10.345   0.949
69974SOL     OW11818  14.855   8.655   9.156
69974SOL    HW111819  14.794   8.589   9.189
69974SOL    HW211820   0.003   8.701   9.235
69975SOL     OW11821  12.790   2.997   4.649
69975SOL    HW111822  12.817   3.043   4.570
69975SOL    HW211823  12.808   3.059   4.720
69976SOL     OW11824  12.355   0.091  11.239
69976SOL    HW111825  12.271   0.133  11.260
69976SOL    HW211826  12.362   0.099  11.144
69977SOL     OW11827   9.240  12.509   1.522
69977SOL    HW111828   9.185  12.574   1.479
69977SOL    HW211829   9.190  12.428   1.516
69978SOL     OW11830  11.340   4.934   5.625
69978SOL    HW111831  11.274   5.004   5.627
69978SOL    HW211832  11.314   4.879   5.551
69979SOL     OW11833   8.542   3.455   1.845
69979SOL    HW111834   8.573   3.495   1.764
69979SOL    HW211835   8.573   3.365   1.842
69980SOL     OW11836   7.928  10.402  13.356
69980SOL    HW111837   7.893  10.407  13.445
69980SOL    HW211838   8.001  10.464  13.356
69981SOL     OW11839   7.179   1.844  14.364
69981SOL    HW111840   7.119   1.916  14.344
69981SOL    HW211841   7.124   1.775  14.400
69982SOL     OW11842   1.387   7.811  12.705
69982SOL    HW111843   1.306   7.825  12.657
69982SOL    HW211844   1.406   7.718  12.694
69983SOL     OW11845   4.922   7.136   2.150
69983SOL    HW111846   4.994   7.125   2.088
69983SOL    HW211847   4.845   7.104   2.102
69984SOL     OW11848   5.620   7.805   2.509
69984SOL    HW111849   5.580   7.862   2.574
69984SOL    HW211850   5.546   7.765   2.463
69985SOL     OW11851  12.337   1.341   7.422
69985SOL    HW111852  12.346   1.299   7.507
69985SOL    HW211853  12.252   1.384   7.425
69986SOL     OW11854   0.626   8.177  12.644
69986SOL    HW111855   0.561   8.243  12.620
69986SOL    HW211856   0.710   8.223  12.637
69987SOL     OW11857  12.636   0.068   3.336
69987SOL    HW111858  12.594  14.875   3.294
69987SOL    HW211859  12.707   0.029   3.387
69988SOL     OW11860   7.991  11.849   2.104
69988SOL    HW111861   7.964  11.892   2.185
69988SOL    HW211862   8.079  11.885   2.086
69989SOL     OW11863  13.124  11.999   2.568
69989SOL    HW111864  13.204  12.051   2.575
69989SOL    HW211865  13.094  12.014   2.478
69990SOL     OW11866   6.132   9.169   9.217
69990SOL    HW111867   6.199   9.231   9.246
69990SOL    HW211868   6.181   9.101   9.170
69991SOL     OW11869   8.928  10.640  10.482
69991SOL    HW111870   8.869  10.715  10.477
69991SOL    HW211871   8.873  10.564  10.460
69992SOL     OW11872   5.255   1.961   5.807
69992SOL    HW111873   5.192   2.011   5.859
69992SOL    HW211874   5.202   1.900   5.757
69993SOL     OW11875   8.562   7.244  13.422
69993SOL    HW111876   8.657   7.236  13.422
69993SOL    HW211877   8.543   7.306  13.492
69994SOL     OW11878   3.683  14.079   3.046
69994SOL    HW111879   3.671  14.172   3.067
69994SOL    HW211880   3.644  14.032   3.120
69995SOL     OW11881   6.370   2.738   2.316
69995SOL    HW111882   6.356   2.752   2.222
69995SOL    HW211883   6.463   2.755   2.329
69996SOL     OW11884   6.911   7.125   3.846
69996SOL    HW111885   6.876   7.210   3.869
69996SOL    HW211886   6.981   7.109   3.910
69997SOL     OW11887   9.181   6.347   3.062
69997SOL    HW111888   9.144   6.398   3.133
69997SOL    HW211889   9.274   6.338   3.084
69998SOL     OW11890   2.500  14.632  14.076
69998SOL    HW111891   2.405  14.647  14.079
69998SOL    HW211892   2.525  14.615  14.167
69999SOL     OW11893  14.705  11.777   5.222
69999SOL    HW111894  14.616  11.762   5.254
69999SOL    HW211895  14.703  11.747   5.131
70000SOL     OW11896  12.949   8.548   1.532
70000SOL    HW111897  12.906   8.566   1.615
70000SOL    HW211898  13.013   8.619   1.522
70001SOL     OW11899   2.991  10.115  13.843
70001SOL    HW111900   2.932  10.175  13.798
70001SOL    HW211901   2.936  10.065  13.902
70002SOL     OW11902  11.055   6.646   4.116
70002SOL    HW111903  11.045   6.553   4.096
70002SOL    HW211904  11.149   6.662   4.111
70003SOL     OW11905  10.969   9.553  12.540
70003SOL    HW111906  10.987   9.631  12.592
70003SOL    HW211907  10.880   9.567  12.506
70004SOL     OW11908  13.845  12.434   9.270
70004SOL    HW111909  13.876  12.457   9.182
70004SOL    HW211910  13.824  12.518   9.311
70005SOL     OW11911  11.364  14.166   0.101
70005SOL    HW111912  11.457  14.172   0.078
70005SOL    HW211913  11.323  14.128   0.023
70006SOL     OW11914   2.938   7.305   0.496
70006SOL    HW111915   3.025   7.319   0.533
70006SOL    HW211916   2.888   7.263   0.566
70007SOL     OW11917  12.312  14.238  11.549
70007SOL    HW111918  12.265  14.166  11.591
70007SOL    HW211919  12.251  14.312  11.552
70008SOL     OW11920  10.002   9.132  13.594
70008SOL    HW111921   9.966   9.092  13.515
70008SOL    HW211922  10.056   9.204  13.560
70009SOL     OW11923   6.060   1.630   7.781
70009SOL    HW111924   5.985   1.585   7.744
70009SOL    HW211925   6.117   1.561   7.815
70010SOL     OW11926   5.212   6.626   5.496
70010SOL    HW111927   5.151   6.672   5.553
70010SOL    HW211928   5.156   6.573   5.438
70011SOL     OW11929   1.383   1.321  10.510
70011SOL    HW111930   1.409   1.253  10.572
70011SOL    HW211931   1.308   1.364  10.552
70012SOL     OW11932   8.453   2.544   1.231
70012SOL    HW111933   8.366   2.511   1.205
70012SOL    HW211934   8.495   2.469   1.272
70013SOL     OW11935   4.097   6.481   7.340
70013SOL    HW111936   4.169   6.540   7.315
70013SOL    HW211937   4.137   6.419   7.400
70014SOL     OW11938  13.257   3.423   4.311
70014SOL    HW111939  13.287   3.513   4.328
70014SOL    HW211940  13.310   3.394   4.237
70015SOL     OW11941   8.736  11.513   0.973
70015SOL    HW111942   8.655  11.538   1.017
70015SOL    HW211943   8.722  11.539   0.882
70016SOL     OW11944   0.699   2.374   4.490
70016SOL    HW111945   0.747   2.343   4.567
70016SOL    HW211946   0.693   2.468   4.502
70017SOL     OW11947  12.752  12.891  11.576
70017SOL    HW111948  12.831  12.882  11.523
70017SOL    HW211949  12.782  12.882  11.666
70018SOL     OW11950   4.565   7.860  11.292
70018SOL    HW111951   4.610   7.775  11.286
70018SOL    HW211952   4.556   7.889  11.202
70019SOL     OW11953  11.025   5.866   7.981
70019SOL    HW111954  10.953   5.891   8.040
70019SOL    HW211955  10.981   5.835   7.902
70020SOL     OW11956  13.154   4.628   2.334
70020SOL    HW111957  13.178   4.681   2.257
70020SOL    HW211958  13.112   4.550   2.297
70021SOL     OW11959  12.773   6.525  14.263
70021SOL    HW111960  12.866   6.513  14.240
70021SOL    HW211961  12.731   6.550  14.181
70022SOL     OW11962   0.974   3.232   3.995
70022SOL    HW111963   0.906   3.182   3.950
70022SOL    HW211964   0.954   3.222   4.088
70023SOL     OW11965   0.837  13.499  11.646
70023SOL    HW111966   0.922  13.524  11.681
70023SOL    HW211967   0.857  13.437  11.576
70024SOL     OW11968  12.092  10.043   8.204
70024SOL    HW111969  12.121  10.132   8.224
70024SOL    HW211970  12.170   9.989   8.215
70025SOL     OW11971  11.440  12.576   7.156
70025SOL    HW111972  11.442  12.650   7.097
70025SOL    HW211973  11.532  12.552   7.167
70026SOL     OW11974  13.831  13.009  12.038
70026SOL    HW111975  13.789  13.028  11.955
70026SOL    HW211976  13.761  12.969  12.091
70027SOL     OW11977  11.124   5.579   9.128
70027SOL    HW111978  11.075   5.562   9.047
70027SOL    HW211979  11.117   5.498   9.178
70028SOL     OW11980  14.439   9.521   7.671
70028SOL    HW111981  14.515   9.462   7.670
70028SOL    HW211982  14.417   9.531   7.763
70029SOL     OW11983   0.210   3.794   6.476
70029SOL    HW111984   0.160   3.854   6.421
70029SOL    HW211985   0.289   3.774   6.425
70030SOL     OW11986   5.455   4.370   5.112
70030SOL    HW111987   5.461   4.295   5.053
70030SOL    HW211988   5.407   4.337   5.188
70031SOL     OW11989   8.378  12.722   2.913
70031SOL    HW111990   8.377  12.626   2.918
70031SOL    HW211991   8.466  12.746   2.940
70032SOL     OW11992  11.882   2.780   1.991
70032SOL    HW111993  11.923   2.695   2.005
70032SOL    HW211994  11.929   2.839   2.050
70033SOL     OW11995  12.657   5.449   0.884
70033SOL    HW111996  12.727   5.511   0.904
70033SOL    HW211997  12.578   5.492   0.917
70034SOL     OW11998   8.502   0.955   6.548
70034SOL    HW111999   8.476   0.863   6.538
70034SOL    HW212000   8.423   1.005   6.527
70035SOL     OW12001   2.191  10.675   3.880
70035SOL    HW112002   2.271  10.662   3.930
70035SOL    HW212003   2.190  10.769   3.860
70036SOL     OW12004   3.378   2.189   4.118
70036SOL    HW112005   3.315   2.225   4.055
70036SOL    HW212006   3.441   2.141   4.063
70037SOL     OW12007   1.477  13.052  11.875
70037SOL    HW112008   1.460  12.959  11.860
70037SOL    HW212009   1.571  13.062  11.860
70038SOL     OW12010  13.827   9.424   8.497
70038SOL    HW112011  13.793   9.459   8.579
70038SOL    HW212012  13.755   9.370   8.463
70039SOL     OW12013   6.335   7.827   5.394
70039SOL    HW112014   6.321   7.736   5.419
70039SOL    HW212015   6.386   7.822   5.314
70040SOL     OW12016   4.307  12.378   6.775
70040SOL    HW112017   4.391  12.335   6.793
70040SOL    HW212018   4.331  12.453   6.721
70041SOL     OW12019   0.366  14.668   9.676
70041SOL    HW112020   0.329  14.743   9.629
70041SOL    HW212021   0.452  14.656   9.637
70042SOL     OW12022   2.818   2.325   6.145
70042SOL    HW112023   2.764   2.404   6.140
70042SOL    HW212024   2.761   2.261   6.189
70043SOL     OW12025   2.683   7.470   3.329
70043SOL    HW112026   2.591   7.495   3.328
70043SOL    HW212027   2.691   7.406   3.258
70044SOL     OW12028   6.648  10.707   6.089
70044SOL    HW112029   6.724  10.682   6.036
70044SOL    HW212030   6.606  10.777   6.038
70045SOL     OW12031   5.620   7.984   9.716
70045SOL    HW112032   5.646   7.907   9.666
70045SOL    HW212033   5.699   8.038   9.720
70046SOL     OW12034  11.805  12.900   9.548
70046SOL    HW112035  11.877  12.961   9.530
70046SOL    HW212036  11.783  12.864   9.463
70047SOL     OW12037   2.098   0.889   6.931
70047SOL    HW112038   2.007   0.903   6.957
70047SOL    HW212039   2.130   0.821   6.990
70048SOL     OW12040  14.207   1.024   1.198
70048SOL    HW112041  14.119   1.005   1.163
70048SOL    HW212042  14.238   0.939   1.229
70049SOL     OW12043  13.308  14.131   6.800
70049SOL    HW112044  13.331  14.213   6.757
70049SOL    HW212045  13.277  14.158   6.887
70050SOL     OW12046  14.272  13.382   5.298
70050SOL    HW112047  14.285  13.312   5.234
70050SOL    HW212048  14.206  13.439   5.259
70051SOL     OW12049  14.321   2.208   6.089
70051SOL    HW112050  14.336   2.182   5.999
70051SOL    HW212051  14.356   2.297   6.095
70052SOL     OW12052   3.453   6.050  12.959
70052SOL    HW112053   3.399   5.978  12.992
70052SOL    HW212054   3.404   6.086  12.885
70053SOL     OW12055  14.314   9.607   1.178
70053SOL    HW112056  14.279   9.694   1.158
70053SOL    HW212057  14.237   9.553   1.194
70054SOL     OW12058  11.720   4.718  11.733
70054SOL    HW112059  11.629   4.747  11.728
70054SOL    HW212060  11.765   4.786  11.783
70055SOL     OW12061  14.702   4.466   6.794
70055SOL    HW112062  14.693   4.376   6.761
70055SOL    HW212063  14.788   4.468   6.834
70056SOL     OW12064  14.696   9.801  12.467
70056SOL    HW112065  14.658   9.731  12.415
70056SOL    HW212066  14.657   9.790  12.554
70057SOL     OW12067   7.496   4.260   0.079
70057SOL    HW112068   7.423   4.297   0.130
70057SOL    HW212069   7.453   4.204   0.014
70058SOL     OW12070  11.265   0.727  13.105
70058SOL    HW112071  11.254   0.656  13.168
70058SOL    HW212072  11.261   0.807  13.157
70059SOL     OW12073   7.225   9.800   1.830
70059SOL    HW112074   7.198   9.849   1.907
70059SOL    HW212075   7.320   9.810   1.827
70060SOL     OW12076   5.060   2.628   5.565
70060SOL    HW112077   5.114   2.645   5.642
70060SOL    HW212078   5.093   2.545   5.530
70061SOL     OW12079   5.072   5.902   9.400
70061SOL    HW112080   5.160   5.930   9.425
70061SOL    HW212081   5.024   5.983   9.388
70062SOL     OW12082   1.005   0.938  14.451
70062SOL    HW112083   0.998   0.964  14.359
70062SOL    HW212084   0.935   0.985  14.494
70063SOL     OW12085   4.516   3.507   9.192
70063SOL    HW112086   4.474   3.446   9.132
70063SOL    HW212087   4.540   3.582   9.137
70064SOL     OW12088   8.598  14.169  11.998
70064SOL    HW112089   8.509  14.148  11.969
70064SOL    HW212090   8.651  14.163  11.919
70065SOL     OW12091   2.054   9.318   0.180
70065SOL    HW112092   1.997   9.332   0.255
70065SOL    HW212093   2.115   9.250   0.208
70066SOL     OW12094   2.903   6.352   9.197
70066SOL    HW112095   2.948   6.433   9.220
70066SOL    HW212096   2.953   6.284   9.241
70067SOL     OW12097   3.969   2.891  14.184
70067SOL    HW112098   3.932   2.803  14.177
70067SOL    HW212099   3.894   2.946  14.205
70068SOL     OW12100  11.320   2.743   2.979
70068SOL    HW112101  11.396   2.789   2.944
70068SOL    HW212102  11.346   2.717   3.067
70069SOL     OW12103  12.675  10.799   7.076
70069SOL    HW112104  12.768  10.792   7.097
70069SOL    HW212105  12.656  10.722   7.023
70070SOL     OW12106   6.541   1.783  13.985
70070SOL    HW112107   6.600   1.760  14.056
70070SOL    HW212108   6.462   1.730  14.001
70071SOL     OW12109  10.413   3.049  14.802
70071SOL    HW112110  10.493   2.997  14.808
70071SOL    HW212111  10.342   2.987  14.817
70072SOL     OW12112   2.674  11.500   6.732
70072SOL    HW112113   2.674  11.482   6.826
70072SOL    HW212114   2.596  11.553   6.718
70073SOL     OW12115  11.899  10.796   0.657
70073SOL    HW112116  11.981  10.786   0.706
70073SOL    HW212117  11.920  10.858   0.587
70074SOL     OW12118   8.221   3.595   5.640
70074SOL    HW112119   8.247   3.503   5.634
70074SOL    HW212120   8.302   3.642   5.656
70075SOL     OW12121   1.851   7.558  13.872
70075SOL    HW112122   1.902   7.583  13.948
70075SOL    HW212123   1.860   7.462  13.867
70076SOL     OW12124  10.543   3.905   0.166
70076SOL    HW112125  10.476   3.874   0.226
70076SOL    HW212126  10.625   3.874   0.205
70077SOL     OW12127  13.168  14.489   4.678
70077SOL    HW112128  13.211  14.507   4.761
70077SOL    HW212129  13.075  14.483   4.699
70078SOL     OW12130   0.374   2.867   8.990
70078SOL    HW112131   0.389   2.941   9.049
70078SOL    HW212132   0.352   2.795   9.048
70079SOL     OW12133   6.817   8.412  12.662
70079SOL    HW112134   6.903   8.380  12.637
70079SOL    HW212135   6.756   8.363  12.607
70080SOL     OW12136   0.626   2.777   0.958
70080SOL    HW112137   0.612   2.789   0.864
70080SOL    HW212138   0.661   2.862   0.988
70081SOL     OW12139   0.612  10.491  14.852
70081SOL    HW112140   0.673  10.484   0.043
70081SOL    HW212141   0.667  10.495  14.774
70082SOL     OW12142   2.126   0.421   5.657
70082SOL    HW112143   2.184   0.353   5.691
70082SOL    HW212144   2.143   0.497   5.712
70083SOL     OW12145   6.681  11.225  12.691
70083SOL    HW112146   6.745  11.157  12.710
70083SOL    HW212147   6.616  11.216  12.761
70084SOL     OW12148  14.169  14.325   9.964
70084SOL    HW112149  14.109  14.398   9.951
70084SOL    HW212150  14.167  14.310  10.059
70085SOL     OW12151  10.802   2.706  14.455
70085SOL    HW112152  10.731   2.681  14.397
70085SOL    HW212153  10.763   2.703  14.543
70086SOL     OW12154  10.124   4.660  11.098
70086SOL    HW112155  10.141   4.709  11.178
70086SOL    HW212156  10.056   4.597  11.123
70087SOL     OW12157   4.359   7.753  12.846
70087SOL    HW112158   4.339   7.840  12.811
70087SOL    HW212159   4.377   7.768  12.938
70088SOL     OW12160  14.116   9.629   8.853
70088SOL    HW112161  14.203   9.643   8.815
70088SOL    HW212162  14.112   9.690   8.926
70089SOL     OW12163   1.909   0.624   6.810
70089SOL    HW112164   1.937   0.715   6.800
70089SOL    HW212165   1.938   0.600   6.898
70090SOL     OW12166   3.456   3.980   7.753
70090SOL    HW112167   3.380   4.035   7.775
70090SOL    HW212168   3.454   3.976   7.657
70091SOL     OW12169  12.383   5.458   5.870
70091SOL    HW112170  12.451   5.521   5.846
70091SOL    HW212171  12.301   5.504   5.855
70092SOL     OW12172   9.640   3.167  14.374
70092SOL    HW112173   9.633   3.111  14.452
70092SOL    HW212174   9.576   3.237  14.389
70093SOL     OW12175   4.125   0.276  14.660
70093SOL    HW112176   4.207   0.306  14.698
70093SOL    HW212177   4.067   0.263  14.735
70094SOL     OW12178   3.103  14.116  13.747
70094SOL    HW112179   3.023  14.095  13.794
70094SOL    HW212180   3.101  14.058  13.670
70095SOL     OW12181   6.374   0.825   3.892
70095SOL    HW112182   6.416   0.836   3.807
70095SOL    HW212183   6.440   0.855   3.955
70096SOL     OW12184   0.337  12.955   6.308
70096SOL    HW112185   0.288  12.976   6.387
70096SOL    HW212186   0.270  12.944   6.240
70097SOL     OW12187  11.757   9.101   6.809
70097SOL    HW112188  11.684   9.159   6.830
70097SOL    HW212189  11.788   9.070   6.894
70098SOL     OW12190  14.569  12.470   9.739
70098SOL    HW112191  14.527  12.461   9.825
70098SOL    HW212192  14.588  12.380   9.712
70099SOL     OW12193   5.231   6.545   8.800
70099SOL    HW112194   5.188   6.469   8.761
70099SOL    HW212195   5.244   6.605   8.726
70100SOL     OW12196  11.744   1.228   0.180
70100SOL    HW112197  11.717   1.190   0.096
70100SOL    HW212198  11.806   1.165   0.216
70101SOL     OW12199  14.052   1.740   0.409
70101SOL    HW112200  14.070   1.670   0.471
70101SOL    HW212201  13.997   1.802   0.456
70102SOL     OW12202  10.934  10.964  14.127
70102SOL    HW112203  10.900  10.970  14.216
70102SOL    HW212204  11.027  10.945  14.139
70103SOL     OW12205   5.537  12.473   5.290
70103SOL    HW112206   5.459  12.497   5.339
70103SOL    HW212207   5.609  12.519   5.333
70104SOL     OW12208   8.172   8.985   8.624
70104SOL    HW112209   8.261   8.951   8.607
70104SOL    HW212210   8.172   9.072   8.586
70105SOL     OW12211   3.174   7.487  10.539
70105SOL    HW112212   3.112   7.531  10.596
70105SOL    HW212213   3.127   7.474  10.457
70106SOL     OW12214   1.755  14.341   5.260
70106SOL    HW112215   1.780  14.281   5.190
70106SOL    HW212216   1.835  14.355   5.310
70107SOL     OW12217  11.842   7.342  13.425
70107SOL    HW112218  11.854   7.398  13.348
70107SOL    HW212219  11.805   7.401  13.491
70108SOL     OW12220   9.802   9.019  12.426
70108SOL    HW112221   9.787   9.030  12.332
70108SOL    HW212222   9.780   9.105  12.464
70109SOL     OW12223  11.102   1.959  14.171
70109SOL    HW112224  11.040   2.032  14.179
70109SOL    HW212225  11.103   1.938  14.078
70110SOL     OW12226   8.448   6.037  14.161
70110SOL    HW112227   8.423   6.021  14.069
70110SOL    HW212228   8.365   6.036  14.208
70111SOL     OW12229   2.125   7.305   9.431
70111SOL    HW112230   2.099   7.314   9.339
70111SOL    HW212231   2.207   7.255   9.428
70112SOL     OW12232   6.869  10.995  11.615
70112SOL    HW112233   6.855  11.013  11.522
70112SOL    HW212234   6.819  11.063  11.661
70113SOL     OW12235   5.428  11.718  14.621
70113SOL    HW112236   5.360  11.651  14.626
70113SOL    HW212237   5.509  11.672  14.642
70114SOL     OW12238  12.969  12.357  14.525
70114SOL    HW112239  13.017  12.292  14.577
70114SOL    HW212240  12.940  12.309  14.448
70115SOL     OW12241   6.810  12.050  13.856
70115SOL    HW112242   6.805  12.141  13.886
70115SOL    HW212243   6.886  12.014  13.902
70116SOL     OW12244   9.588  12.084   2.239
70116SOL    HW112245   9.518  12.035   2.283
70116SOL    HW212246   9.669  12.051   2.278
70117SOL     OW12247  14.830  12.098   5.844
70117SOL    HW112248  14.822  12.038   5.770
70117SOL    HW212249  14.864  12.043   5.915
70118SOL     OW12250  14.386   6.729  10.496
70118SOL    HW112251  14.307   6.740  10.549
70118SOL    HW212252  14.378   6.641  10.459
70119SOL     OW12253  12.713   8.295  12.929
70119SOL    HW112254  12.751   8.271  12.845
70119SOL    HW212255  12.788   8.330  12.979
70120SOL     OW12256   0.330   0.200   9.750
70120SOL    HW112257   0.292   0.124   9.706
70120SOL    HW212258   0.282   0.275   9.713
70121SOL     OW12259  11.345   7.088   3.035
70121SOL    HW112260  11.364   7.157   3.099
70121SOL    HW212261  11.333   7.009   3.088
70122SOL     OW12262  10.503   7.922  13.845
70122SOL    HW112263  10.422   7.974  13.851
70122SOL    HW212264  10.547   7.937  13.928
70123SOL     OW12265   5.823   6.419   4.906
70123SOL    HW112266   5.821   6.378   4.993
70123SOL    HW212267   5.818   6.345   4.845
70124SOL     OW12268  14.560  13.964   7.729
70124SOL    HW112269  14.554  13.973   7.825
70124SOL    HW212270  14.501  13.891   7.709
70125SOL     OW12271   6.828  11.180   7.235
70125SOL    HW112272   6.780  11.175   7.153
70125SOL    HW212273   6.795  11.107   7.288
70126SOL     OW12274   2.448   6.454  12.626
70126SOL    HW112275   2.360   6.416  12.626
70126SOL    HW212276   2.485   6.429  12.711
70127SOL     OW12277   1.685   0.619   5.861
70127SOL    HW112278   1.636   0.672   5.798
70127SOL    HW212279   1.755   0.580   5.810
70128SOL     OW12280   4.127   1.311   6.436
70128SOL    HW112281   4.121   1.365   6.357
70128SOL    HW212282   4.166   1.368   6.502
70129SOL     OW12283   5.269   1.095   7.398
70129SOL    HW112284   5.208   1.111   7.326
70129SOL    HW212285   5.293   1.182   7.429
70130SOL     OW12286   1.100   1.180   3.463
70130SOL    HW112287   1.128   1.255   3.411
70130SOL    HW212288   1.153   1.107   3.430
70131SOL     OW12289   8.605   1.789   9.055
70131SOL    HW112290   8.533   1.730   9.077
70131SOL    HW212291   8.680   1.731   9.040
70132SOL     OW12292   7.724  13.591   9.870
70132SOL    HW112293   7.762  13.557   9.789
70132SOL    HW212294   7.791  13.651   9.905
70133SOL     OW12295   6.809   8.145  10.025
70133SOL    HW112296   6.733   8.115  10.075
70133SOL    HW212297   6.793   8.116   9.936
70134SOL     OW12298   6.498  14.830   6.584
70134SOL    HW112299   6.429  14.789   6.636
70134SOL    HW212300   6.459  14.839   6.497
70135SOL     OW12301  10.550   4.564  14.658
70135SOL    HW112302  10.575   4.638  14.603
70135SOL    HW212303  10.469   4.531  14.618
70136SOL     OW12304   2.347   4.077  13.499
70136SOL    HW112305   2.253   4.089  13.486
70136SOL    HW212306   2.356   3.984  13.523
70137SOL     OW12307   9.072  11.407   9.601
70137SOL    HW112308   9.000  11.399   9.538
70137SOL    HW212309   9.150  11.416   9.547
70138SOL     OW12310   8.386   4.103   0.700
70138SOL    HW112311   8.424   4.104   0.612
70138SOL    HW212312   8.443   4.045   0.750
70139SOL     OW12313   3.747  11.945   1.219
70139SOL    HW112314   3.696  11.881   1.270
70139SOL    HW212315   3.808  11.892   1.169
70140SOL     OW12316   3.005   7.948  13.184
70140SOL    HW112317   3.060   7.876  13.215
70140SOL    HW212318   2.971   7.919  13.100
70141SOL     OW12319  10.225  13.790  10.224
70141SOL    HW112320  10.319  13.797  10.235
70141SOL    HW212321  10.200  13.712  10.274
70142SOL     OW12322   3.078  13.306  10.658
70142SOL    HW112323   3.147  13.333  10.719
70142SOL    HW212324   3.057  13.217  10.684
70143SOL     OW12325  13.336   8.257  13.119
70143SOL    HW112326  13.348   8.304  13.036
70143SOL    HW212327  13.262   8.199  13.103
70144SOL     OW12328   3.191   3.984   0.583
70144SOL    HW112329   3.128   3.912   0.578
70144SOL    HW212330   3.275   3.945   0.559
70145SOL     OW12331   0.260   4.916   6.246
70145SOL    HW112332   0.266   5.004   6.281
70145SOL    HW212333   0.350   4.882   6.249
70146SOL     OW12334   4.794  13.735   3.623
70146SOL    HW112335   4.844  13.664   3.583
70146SOL    HW212336   4.849  13.813   3.611
70147SOL     OW12337   7.600   1.121  11.330
70147SOL    HW112338   7.512   1.088  11.348
70147SOL    HW212339   7.655   1.082  11.398
70148SOL     OW12340   2.584   2.817  10.339
70148SOL    HW112341   2.630   2.847  10.417
70148SOL    HW212342   2.628   2.735  10.316
70149SOL     OW12343  10.278  10.671  12.108
70149SOL    HW112344  10.308  10.655  12.018
70149SOL    HW212345  10.285  10.766  12.119
70150SOL     OW12346   4.940   0.641   5.558
70150SOL    HW112347   4.941   0.612   5.467
70150SOL    HW212348   4.889   0.574   5.604
70151SOL     OW12349   9.030  11.932   0.043
70151SOL    HW112350   8.987  11.861   0.092
70151SOL    HW212351   9.121  11.929   0.071
70152SOL     OW12352  14.830  14.111  14.069
70152SOL    HW112353  14.787  14.072  13.993
70152SOL    HW212354   0.008  14.043  14.099
70153SOL     OW12355   0.351  12.100   3.340
70153SOL    HW112356   0.282  12.130   3.399
70153SOL    HW212357   0.305  12.081   3.258
70154SOL     OW12358   5.487  13.631  12.930
70154SOL    HW112359   5.480  13.537  12.915
70154SOL    HW212360   5.582  13.647  12.935
70155SOL     OW12361   1.078   9.863   8.668
70155SOL    HW112362   1.089   9.933   8.733
70155SOL    HW212363   1.167   9.832   8.651
70156SOL     OW12364  13.427   3.305   3.241
70156SOL    HW112365  13.500   3.248   3.264
70156SOL    HW212366  13.419   3.366   3.314
70157SOL     OW12367   4.477   4.862   7.900
70157SOL    HW112368   4.478   4.910   7.983
70157SOL    HW212369   4.517   4.923   7.837
70158SOL     OW12370   4.220   9.109   1.303
70158SOL    HW112371   4.160   9.088   1.231
70158SOL    HW212372   4.232   9.026   1.349
70159SOL     OW12373   9.739   7.997  14.823
70159SOL    HW112374   9.720   8.039   0.025
70159SOL    HW212375   9.813   7.939  14.841
70160SOL     OW12376  11.597   8.478   5.138
70160SOL    HW112377  11.550   8.410   5.090
70160SOL    HW212378  11.529   8.541   5.162
70161SOL     OW12379   2.823  10.344   2.976
70161SOL    HW112380   2.811  10.373   3.066
70161SOL    HW212381   2.915  10.318   2.972
70162SOL     OW12382   2.077   2.817   7.950
70162SOL    HW112383   1.993   2.779   7.923
70162SOL    HW212384   2.052   2.897   7.997
70163SOL     OW12385   8.363   9.591   1.734
70163SOL    HW112386   8.319   9.662   1.782
70163SOL    HW212387   8.455   9.618   1.731
70164SOL     OW12388   8.173   2.948   1.502
70164SOL    HW112389   8.233   2.893   1.452
70164SOL    HW212390   8.198   2.934   1.594
70165SOL     OW12391  13.249   4.326   7.685
70165SOL    HW112392  13.232   4.264   7.755
70165SOL    HW212393  13.342   4.347   7.695
70166SOL     OW12394   9.888   3.008   3.929
70166SOL    HW112395   9.908   3.057   4.009
70166SOL    HW212396   9.808   3.048   3.896
70167SOL     OW12397   1.064   8.694   4.642
70167SOL    HW112398   1.116   8.620   4.612
70167SOL    HW212399   1.067   8.756   4.569
70168SOL     OW12400   4.351  13.123   3.735
70168SOL    HW112401   4.392  13.124   3.649
70168SOL    HW212402   4.299  13.043   3.736
70169SOL     OW12403  10.950  12.954  13.293
70169SOL    HW112404  10.892  12.899  13.240
70169SOL    HW212405  11.034  12.909  13.290
70170SOL     OW12406   2.625   4.753   7.393
70170SOL    HW112407   2.607   4.825   7.333
70170SOL    HW212408   2.658   4.683   7.338
70171SOL     OW12409  13.079   5.322   8.240
70171SOL    HW112410  13.057   5.342   8.331
70171SOL    HW212411  13.173   5.339   8.234
70172SOL     OW12412   0.715  14.565   8.785
70172SOL    HW112413   0.809  14.566   8.766
70172SOL    HW212414   0.693  14.655   8.807
70173SOL     OW12415  14.789   6.060   9.622
70173SOL    HW112416  14.869   6.020   9.656
70173SOL    HW212417  14.751   6.106   9.696
70174SOL     OW12418  14.170   0.205   8.037
70174SOL    HW112419  14.254   0.214   7.991
70174SOL    HW212420  14.104   0.209   7.968
70175SOL     OW12421  12.988   4.124   2.712
70175SOL    HW112422  12.898   4.105   2.740
70175SOL    HW212423  13.018   4.044   2.670
70176SOL     OW12424   3.293   8.243   2.457
70176SOL    HW112425   3.346   8.315   2.490
70176SOL    HW212426   3.212   8.248   2.508
70177SOL     OW12427   6.154  14.643   8.608
70177SOL    HW112428   6.067  14.679   8.626
70177SOL    HW212429   6.136  14.561   8.561
70178SOL     OW12430  12.661   8.268   1.824
70178SOL    HW112431  12.711   8.261   1.906
70178SOL    HW212432  12.593   8.201   1.832
70179SOL     OW12433  10.121   2.486   2.627
70179SOL    HW112434  10.092   2.537   2.551
70179SOL    HW212435  10.081   2.530   2.702
70180SOL     OW12436  13.438   4.995   3.396
70180SOL    HW112437  13.460   5.073   3.345
70180SOL    HW212438  13.408   4.931   3.331
70181SOL     OW12439   4.305   2.352   9.355
70181SOL    HW112440   4.261   2.267   9.355
70181SOL    HW212441   4.356   2.354   9.275
70182SOL     OW12442   3.847   3.922  14.099
70182SOL    HW112443   3.876   3.995  14.045
70182SOL    HW212444   3.766   3.892  14.057
70183SOL     OW12445  10.265  12.719   1.345
70183SOL    HW112446  10.255  12.693   1.437
70183SOL    HW212447  10.354  12.753   1.340
70184SOL     OW12448   3.727  12.614   3.006
70184SOL    HW112449   3.788  12.561   2.954
70184SOL    HW212450   3.740  12.583   3.096
70185SOL     OW12451   6.225  12.503  10.609
70185SOL    HW112452   6.289  12.433  10.599
70185SOL    HW212453   6.276  12.584  10.599
70186SOL     OW12454   1.685  11.318  11.910
70186SOL    HW112455   1.597  11.285  11.889
70186SOL    HW212456   1.670  11.403  11.950
70187SOL     OW12457  13.129   8.092   6.897
70187SOL    HW112458  13.099   8.065   6.810
70187SOL    HW212459  13.070   8.163   6.921
70188SOL     OW12460  12.968  13.569  11.175
70188SOL    HW112461  12.999  13.638  11.234
70188SOL    HW212462  12.905  13.613  11.118
70189SOL     OW12463   7.017  12.219   3.079
70189SOL    HW112464   7.011  12.199   2.985
70189SOL    HW212465   6.969  12.147   3.121
70190SOL     OW12466   3.918  13.497   6.459
70190SOL    HW112467   3.903  13.577   6.509
70190SOL    HW212468   4.008  13.472   6.477
70191SOL     OW12469   3.187   9.144   7.313
70191SOL    HW112470   3.147   9.063   7.281
70191SOL    HW212471   3.231   9.118   7.395
70192SOL     OW12472   7.259  10.376  14.584
70192SOL    HW112473   7.204  10.448  14.551
70192SOL    HW212474   7.211  10.297  14.559
70193SOL     OW12475   9.693   2.548  11.337
70193SOL    HW112476   9.696   2.493  11.416
70193SOL    HW212477   9.704   2.637  11.371
70194SOL     OW12478   8.991  10.645  10.095
70194SOL    HW112479   9.051  10.634  10.168
70194SOL    HW212480   8.917  10.588  10.116
70195SOL     OW12481   5.145   5.880   1.376
70195SOL    HW112482   5.165   5.894   1.283
70195SOL    HW212483   5.193   5.949   1.421
70196SOL     OW12484  13.157   6.677   2.236
70196SOL    HW112485  13.171   6.771   2.247
70196SOL    HW212486  13.218   6.652   2.166
70197SOL     OW12487  12.815   6.355  12.653
70197SOL    HW112488  12.890   6.355  12.593
70197SOL    HW212489  12.816   6.268  12.693
70198SOL     OW12490   4.955  10.175   8.046
70198SOL    HW112491   4.955  10.094   7.994
70198SOL    HW212492   4.944  10.245   7.982
70199SOL     OW12493   2.990   1.086   4.641
70199SOL    HW112494   3.080   1.115   4.652
70199SOL    HW212495   2.986   1.001   4.683
70200SOL     OW12496   3.016   3.407   2.085
70200SOL    HW112497   2.989   3.472   2.151
70200SOL    HW212498   2.941   3.401   2.027
70201SOL     OW12499  13.550   8.077   4.038
70201SOL    HW112500  13.561   8.172   4.029
70201SOL    HW212501  13.477   8.067   4.099
70202SOL     OW12502   0.922   9.845   7.546
70202SOL    HW112503   0.831   9.872   7.559
70202SOL    HW212504   0.925   9.754   7.577
70203SOL     OW12505  12.307  14.442   0.058
70203SOL    HW112506  12.240  14.383   0.094
70203SOL    HW212507  12.261  14.492  14.873
70204SOL     OW12508  11.562  13.724   0.591
70204SOL    HW112509  11.616  13.676   0.528
70204SOL    HW212510  11.521  13.656   0.645
70205SOL     OW12511  13.822  14.475   5.691
70205SOL    HW112512  13.763  14.401   5.677
70205SOL    HW212513  13.858  14.460   5.779
70206SOL     OW12514   0.133   0.287   8.297
70206SOL    HW112515   0.219   0.248   8.312
70206SOL    HW212516   0.137   0.322   8.208
70207SOL     OW12517   1.988   1.612   5.699
70207SOL    HW112518   1.998   1.706   5.712
70207SOL    HW212519   2.061   1.573   5.747
70208SOL     OW12520  14.463   5.245   7.010
70208SOL    HW112521  14.500   5.298   6.939
70208SOL    HW212522  14.447   5.308   7.081
70209SOL     OW12523   1.197   5.716   9.682
70209SOL    HW112524   1.257   5.775   9.728
70209SOL    HW212525   1.182   5.644   9.744
70210SOL     OW12526   3.969   6.261   3.924
70210SOL    HW112527   3.894   6.258   3.864
70210SOL    HW212528   3.930   6.267   4.011
70211SOL     OW12529  11.876  10.657   9.927
70211SOL    HW112530  11.959  10.692   9.960
70211SOL    HW212531  11.871  10.690   9.837
70212SOL     OW12532  14.638   2.506   2.508
70212SOL    HW112533  14.687   2.519   2.427
70212SOL    HW212534  14.549   2.486   2.479
70213SOL     OW12535  12.447  10.908   9.961
70213SOL    HW112536  12.428  10.905   9.867
70213SOL    HW212537  12.482  10.996   9.976
70214SOL     OW12538   1.442  13.262  12.050
70214SOL    HW112539   1.348  13.273  12.061
70214SOL    HW212540   1.451  13.190  11.988
70215SOL     OW12541   0.277   8.814   7.669
70215SOL    HW112542   0.263   8.721   7.682
70215SOL    HW212543   0.366   8.830   7.700
70216SOL     OW12544  12.440  11.547   7.138
70216SOL    HW112545  12.410  11.607   7.206
70216SOL    HW212546  12.412  11.586   7.056
70217SOL     OW12547   4.590   7.129  14.770
70217SOL    HW112548   4.642   7.137  14.690
70217SOL    HW212549   4.613   7.207  14.820
70218SOL     OW12550  14.208  10.198  12.087
70218SOL    HW112551  14.236  10.217  11.998
70218SOL    HW212552  14.141  10.130  12.077
70219SOL     OW12553  11.872   6.931  12.458
70219SOL    HW112554  11.854   6.895  12.545
70219SOL    HW212555  11.791   6.975  12.433
70220SOL     OW12556   1.638  11.523  11.115
70220SOL    HW112557   1.623  11.491  11.026
70220SOL    HW212558   1.733  11.532  11.121
70221SOL     OW12559   9.235  12.528  14.417
70221SOL    HW112560   9.228  12.480  14.334
70221SOL    HW212561   9.206  12.465  14.483
70222SOL     OW12562   4.773   5.638   1.897
70222SOL    HW112563   4.800   5.547   1.904
70222SOL    HW212564   4.853   5.688   1.916
70223SOL     OW12565  12.813   2.144   7.944
70223SOL    HW112566  12.741   2.134   7.882
70223SOL    HW212567  12.776   2.197   8.015
70224SOL     OW12568   1.200   1.423   7.838
70224SOL    HW112569   1.243   1.443   7.756
70224SOL    HW212570   1.261   1.366   7.885
70225SOL     OW12571   3.037   4.004  10.731
70225SOL    HW112572   3.074   4.092  10.730
70225SOL    HW212573   2.942   4.018  10.726
70226SOL     OW12574  12.400   0.563   7.784
70226SOL    HW112575  12.319   0.550   7.734
70226SOL    HW212576  12.376   0.623   7.854
70227SOL     OW12577   3.703   0.154  11.325
70227SOL    HW112578   3.635   0.213  11.292
70227SOL    HW212579   3.748   0.123  11.246
70228SOL     OW12580   8.928   8.570   5.445
70228SOL    HW112581   9.012   8.525   5.449
70228SOL    HW212582   8.926   8.611   5.359
70229SOL     OW12583   1.774   5.371   9.149
70229SOL    HW112584   1.859   5.334   9.168
70229SOL    HW212585   1.760   5.354   9.056
70230SOL     OW12586  10.965  10.384  12.899
70230SOL    HW112587  11.020  10.317  12.940
70230SOL    HW212588  11.021  10.423  12.832
70231SOL     OW12589  14.314   0.572   1.633
70231SOL    HW112590  14.293   0.488   1.593
70231SOL    HW212591  14.408   0.568   1.652
70232SOL     OW12592   5.863   0.474  14.184
70232SOL    HW112593   5.836   0.425  14.261
70232SOL    HW212594   5.904   0.409  14.127
70233SOL     OW12595   7.307   5.466   7.008
70233SOL    HW112596   7.373   5.437   6.945
70233SOL    HW212597   7.350   5.537   7.056
70234SOL     OW12598   6.726   9.185   3.222
70234SOL    HW112599   6.764   9.120   3.281
70234SOL    HW212600   6.663   9.233   3.276
70235SOL     OW12601  10.600   0.933  10.316
70235SOL    HW112602  10.507   0.931  10.339
70235SOL    HW212603  10.630   1.019  10.347
70236SOL     OW12604  11.859   9.234  14.568
70236SOL    HW112605  11.792   9.211  14.503
70236SOL    HW212606  11.855   9.162  14.632
70237SOL     OW12607  13.842   9.489   2.988
70237SOL    HW112608  13.879   9.401   2.979
70237SOL    HW212609  13.913   9.548   2.965
70238SOL     OW12610   1.966   1.828  13.361
70238SOL    HW112611   1.922   1.895  13.308
70238SOL    HW212612   1.894   1.782  13.405
70239SOL     OW12613   7.436  11.128   0.861
70239SOL    HW112614   7.395  11.151   0.778
70239SOL    HW212615   7.430  11.032   0.865
70240SOL     OW12616   4.610   5.798  14.251
70240SOL    HW112617   4.565   5.850  14.185
70240SOL    HW212618   4.702   5.797  14.223
70241SOL     OW12619   4.934   5.916   4.266
70241SOL    HW112620   4.929   5.860   4.344
70241SOL    HW212621   4.921   6.005   4.299
70242SOL     OW12622   8.220  14.366  14.809
70242SOL    HW112623   8.192  14.362  14.718
70242SOL    HW212624   8.225  14.275  14.838
70243SOL     OW12625   0.797   9.289   1.362
70243SOL    HW112626   0.712   9.320   1.394
70243SOL    HW212627   0.799   9.197   1.386
70244SOL     OW12628   1.514   2.737  13.929
70244SOL    HW112629   1.503   2.669  13.862
70244SOL    HW212630   1.570   2.697  13.995
70245SOL     OW12631  14.836   6.881  13.081
70245SOL    HW112632  14.745   6.904  13.099
70245SOL    HW212633  14.846   6.794  13.120
70246SOL     OW12634   1.591   3.747  14.034
70246SOL    HW112635   1.663   3.792  14.078
70246SOL    HW212636   1.513   3.777  14.081
70247SOL     OW12637  11.028  10.089   4.783
70247SOL    HW112638  11.084  10.013   4.796
70247SOL    HW212639  11.032  10.106   4.689
70248SOL     OW12640   7.391   3.547   3.209
70248SOL    HW112641   7.486   3.543   3.196
70248SOL    HW212642   7.377   3.629   3.256
70249SOL     OW12643   9.100   2.801  13.819
70249SOL    HW112644   9.107   2.896  13.820
70249SOL    HW212645   9.068   2.780  13.732
70250SOL     OW12646  11.448   4.690   6.912
70250SOL    HW112647  11.371   4.732   6.874
70250SOL    HW212648  11.414   4.613   6.957
70251SOL     OW12649   3.383   8.869   3.239
70251SOL    HW112650   3.454   8.899   3.182
70251SOL    HW212651   3.303   8.886   3.188
70252SOL     OW12652  13.412  12.055   1.694
70252SOL    HW112653  13.453  12.129   1.648
70252SOL    HW212654  13.432  11.979   1.640
70253SOL     OW12655  10.128   8.160   2.826
70253SOL    HW112656  10.224   8.160   2.831
70253SOL    HW212657  10.101   8.111   2.904
70254SOL     OW12658   1.930  14.326   5.007
70254SOL    HW112659   1.939  14.281   4.923
70254SOL    HW212660   2.006  14.298   5.058
70255SOL     OW12661  10.543   7.859  11.743
70255SOL    HW112662  10.476   7.796  11.716
70255SOL    HW212663  10.575   7.825  11.827
70256SOL     OW12664   0.086   6.439   0.776
70256SOL    HW112665   0.140   6.413   0.850
70256SOL    HW212666   0.136   6.413   0.699
70257SOL     OW12667   0.511  13.765   1.238
70257SOL    HW112668   0.582  13.825   1.257
70257SOL    HW212669   0.541  13.680   1.271
70258SOL     OW12670   7.011  12.907   3.319
70258SOL    HW112671   6.977  12.866   3.399
70258SOL    HW212672   6.959  12.986   3.308
70259SOL     OW12673   3.242   5.519   4.391
70259SOL    HW112674   3.191   5.517   4.473
70259SOL    HW212675   3.226   5.607   4.355
70260SOL     OW12676   7.064   1.849  10.721
70260SOL    HW112677   7.060   1.917  10.788
70260SOL    HW212678   7.098   1.894  10.643
70261SOL     OW12679   8.421  10.570  11.378
70261SOL    HW112680   8.449  10.661  11.389
70261SOL    HW212681   8.475  10.520  11.439
70262SOL     OW12682  10.257   6.371   9.233
70262SOL    HW112683  10.304   6.310   9.176
70262SOL    HW212684  10.324   6.434   9.261
70263SOL     OW12685  12.515   8.816   2.995
70263SOL    HW112686  12.563   8.812   2.913
70263SOL    HW212687  12.436   8.866   2.974
70264SOL     OW12688   6.083   7.248   0.541
70264SOL    HW112689   6.064   7.268   0.633
70264SOL    HW212690   6.116   7.158   0.543
70265SOL     OW12691   7.695   8.971   3.329
70265SOL    HW112692   7.660   9.051   3.368
70265SOL    HW212693   7.676   8.903   3.394
70266SOL     OW12694   6.026   9.438   7.060
70266SOL    HW112695   6.081   9.479   6.993
70266SOL    HW212696   5.998   9.510   7.116
70267SOL     OW12697   9.481   2.519   2.962
70267SOL    HW112698   9.498   2.612   2.949
70267SOL    HW212699   9.538   2.494   3.034
70268SOL     OW12700   5.244   0.187  12.869
70268SOL    HW112701   5.233   0.263  12.927
70268SOL    HW212702   5.334   0.194  12.837
70269SOL     OW12703   2.428   0.819   0.596
70269SOL    HW112704   2.363   0.849   0.660
70269SOL    HW212705   2.378   0.807   0.516
70270SOL     OW12706   9.150   3.795   5.119
70270SOL    HW112707   9.237   3.836   5.124
70270SOL    HW212708   9.161   3.725   5.054
70271SOL     OW12709  13.822   1.459  14.477
70271SOL    HW112710  13.886   1.514  14.521
70271SOL    HW212711  13.832   1.373  14.517
70272SOL     OW12712   0.213  12.902   9.801
70272SOL    HW112713   0.218  12.996   9.819
70272SOL    HW212714   0.172  12.865   9.879
70273SOL     OW12715  13.680  10.221   5.624
70273SOL    HW112716  13.740  10.281   5.580
70273SOL    HW212717  13.711  10.134   5.599
70274SOL     OW12718   1.817   8.680  10.036
70274SOL    HW112719   1.865   8.752  10.075
70274SOL    HW212720   1.830   8.690   9.941
70275SOL     OW12721   3.023   2.649   9.209
70275SOL    HW112722   2.932   2.635   9.184
70275SOL    HW212723   3.020   2.717   9.276
70276SOL     OW12724   3.464   0.100   9.648
70276SOL    HW112725   3.371   0.076   9.645
70276SOL    HW212726   3.478   0.133   9.737
70277SOL     OW12727   5.537   7.866   4.597
70277SOL    HW112728   5.623   7.827   4.583
70277SOL    HW212729   5.480   7.793   4.619
70278SOL     OW12730   8.832   3.689   9.304
70278SOL    HW112731   8.838   3.599   9.336
70278SOL    HW212732   8.767   3.686   9.234
70279SOL     OW12733  14.212   4.996  11.021
70279SOL    HW112734  14.126   5.002  10.979
70279SOL    HW212735  14.274   4.998  10.948
70280SOL     OW12736   7.680   8.311   6.511
70280SOL    HW112737   7.741   8.238   6.501
70280SOL    HW212738   7.730   8.378   6.556
70281SOL     OW12739   1.974   9.825   4.557
70281SOL    HW112740   2.039   9.800   4.492
70281SOL    HW212741   1.912   9.752   4.557
70282SOL     OW12742   3.843  11.584   2.803
70282SOL    HW112743   3.917  11.636   2.774
70282SOL    HW212744   3.808  11.632   2.878
70283SOL     OW12745   9.768   8.676   1.543
70283SOL    HW112746   9.686   8.702   1.585
70283SOL    HW212747   9.752   8.687   1.449
70284SOL     OW12748  11.610  10.327   6.455
70284SOL    HW112749  11.527  10.288   6.482
70284SOL    HW212750  11.673  10.255   6.460
70285SOL     OW12751  12.444   3.698   3.537
70285SOL    HW112752  12.444   3.784   3.579
70285SOL    HW212753  12.490   3.641   3.599
70286SOL     OW12754   2.177  13.081   2.302
70286SOL    HW112755   2.212  13.082   2.391
70286SOL    HW212756   2.126  13.000   2.297
70287SOL     OW12757   3.440  14.227  11.284
70287SOL    HW112758   3.362  14.173  11.281
70287SOL    HW212759   3.505  14.175  11.331
70288SOL     OW12760   0.565   4.151   2.255
70288SOL    HW112761   0.639   4.132   2.313
70288SOL    HW212762   0.501   4.084   2.276
70289SOL     OW12763  12.110   5.203   1.189
70289SOL    HW112764  12.044   5.271   1.175
70289SOL    HW212765  12.190   5.239   1.151
70290SOL     OW12766   9.121  12.847  12.629
70290SOL    HW112767   9.128  12.902  12.551
70290SOL    HW212768   9.060  12.778  12.604
70291SOL     OW12769   5.101   3.494   4.195
70291SOL    HW112770   5.172   3.554   4.172
70291SOL    HW212771   5.143   3.408   4.201
70292SOL     OW12772   7.252   9.134   3.218
70292SOL    HW112773   7.242   9.102   3.308
70292SOL    HW212774   7.333   9.185   3.219
70293SOL     OW12775   1.036   3.314   3.649
70293SOL    HW112776   1.098   3.246   3.676
70293SOL    HW212777   0.950   3.276   3.668
70294SOL     OW12778  12.752  12.808   2.671
70294SOL    HW112779  12.747  12.830   2.578
70294SOL    HW212780  12.689  12.866   2.714
70295SOL     OW12781   8.737   4.906   5.619
70295SOL    HW112782   8.804   4.874   5.678
70295SOL    HW212783   8.776   4.982   5.576
70296SOL     OW12784  12.070   0.868  14.387
70296SOL    HW112785  12.110   0.950  14.360
70296SOL    HW212786  12.046   0.825  14.305
70297SOL     OW12787   9.035  13.618   0.311
70297SOL    HW112788   9.101  13.687   0.307
70297SOL    HW212789   9.081  13.543   0.347
70298SOL     OW12790   3.712  11.319   3.337
70298SOL    HW112791   3.782  11.291   3.397
70298SOL    HW212792   3.754  11.317   3.251
70299SOL     OW12793   9.531   9.451   8.239
70299SOL    HW112794   9.584   9.460   8.318
70299SOL    HW212795   9.455   9.400   8.267
70300SOL     OW12796  10.325   5.849   3.226
70300SOL    HW112797  10.358   5.913   3.164
70300SOL    HW212798  10.250   5.809   3.182
70301SOL     OW12799   0.769   3.141  13.457
70301SOL    HW112800   0.737   3.050  13.463
70301SOL    HW212801   0.689   3.194  13.463
70302SOL     OW12802   5.547   5.717   2.919
70302SOL    HW112803   5.531   5.630   2.954
70302SOL    HW212804   5.642   5.723   2.910
70303SOL     OW12805   3.081  11.758   6.933
70303SOL    HW112806   3.047  11.673   6.961
70303SOL    HW212807   3.157  11.738   6.879
70304SOL     OW12808  10.314  10.549  10.652
70304SOL    HW112809  10.409  10.560  10.650
70304SOL    HW212810  10.284  10.587  10.570
70305SOL     OW12811  13.283  12.652  11.155
70305SOL    HW112812  13.304  12.561  11.178
70305SOL    HW212813  13.189  12.660  11.169
70306SOL     OW12814  11.082  13.186  11.836
70306SOL    HW112815  11.134  13.107  11.848
70306SOL    HW212816  10.995  13.162  11.869
70307SOL     OW12817   0.508  11.923  13.003
70307SOL    HW112818   0.537  12.000  12.955
70307SOL    HW212819   0.574  11.856  12.985
70308SOL     OW12820   6.354   5.331   3.522
70308SOL    HW112821   6.431   5.346   3.467
70308SOL    HW212822   6.333   5.417   3.558
70309SOL     OW12823   1.348   2.725   5.147
70309SOL    HW112824   1.256   2.699   5.133
70309SOL    HW212825   1.371   2.687   5.231
70310SOL     OW12826   1.522   4.692  12.613
70310SOL    HW112827   1.506   4.703  12.707
70310SOL    HW212828   1.452   4.634  12.583
70311SOL     OW12829   6.304   5.933   2.488
70311SOL    HW112830   6.245   5.974   2.426
70311SOL    HW212831   6.336   6.005   2.543
70312SOL     OW12832   6.729   0.683   0.269
70312SOL    HW112833   6.821   0.705   0.280
70312SOL    HW212834   6.729   0.594   0.233
70313SOL     OW12835   1.616   5.906   4.312
70313SOL    HW112836   1.679   5.959   4.360
70313SOL    HW212837   1.667   5.864   4.243
70314SOL     OW12838  11.235   8.102   6.426
70314SOL    HW112839  11.161   8.142   6.472
70314SOL    HW212840  11.311   8.152   6.455
70315SOL     OW12841   2.596   8.399  10.185
70315SOL    HW112842   2.595   8.334  10.255
70315SOL    HW212843   2.515   8.449  10.199
70316SOL     OW12844  11.048   6.354   2.394
70316SOL    HW112845  11.064   6.263   2.368
70316SOL    HW212846  11.032   6.349   2.488
70317SOL     OW12847   0.190  11.574  12.308
70317SOL    HW112848   0.166  11.603  12.220
70317SOL    HW212849   0.161  11.645  12.365
70318SOL     OW12850  11.001   0.652   1.440
70318SOL    HW112851  10.993   0.557   1.432
70318SOL    HW212852  10.927   0.678   1.496
70319SOL     OW12853  10.329  10.443  13.024
70319SOL    HW112854  10.391  10.400  12.965
70319SOL    HW212855  10.328  10.386  13.102
70320SOL     OW12856   5.828  13.461   2.176
70320SOL    HW112857   5.919  13.475   2.203
70320SOL    HW212858   5.823  13.501   2.089
70321SOL     OW12859   3.946   1.708   1.417
70321SOL    HW112860   4.022   1.761   1.393
70321SOL    HW212861   3.930   1.730   1.509
70322SOL     OW12862  13.423   5.241  14.000
70322SOL    HW112863  13.381   5.256  14.084
70322SOL    HW212864  13.387   5.159  13.968
70323SOL     OW12865  13.223   9.863   7.974
70323SOL    HW112866  13.293   9.885   7.913
70323SOL    HW212867  13.171   9.944   7.981
70324SOL     OW12868   9.491   2.973   3.723
70324SOL    HW112869   9.458   3.012   3.804
70324SOL    HW212870   9.413   2.939   3.679
70325SOL     OW12871  11.914   1.461  10.700
70325SOL    HW112872  11.882   1.405  10.771
70325SOL    HW212873  11.997   1.496  10.733
70326SOL     OW12874   0.981  12.807  12.952
70326SOL    HW112875   0.923  12.784  12.880
70326SOL    HW212876   1.070  12.790  12.919
70327SOL     OW12877   3.314  10.096   0.502
70327SOL    HW112878   3.301  10.002   0.512
70327SOL    HW212879   3.265  10.135   0.574
70328SOL     OW12880   4.807   6.911   5.720
70328SOL    HW112881   4.736   6.848   5.705
70328SOL    HW212882   4.816   6.914   5.815
70329SOL     OW12883  11.676   6.311   0.860
70329SOL    HW112884  11.695   6.350   0.945
70329SOL    HW212885  11.583   6.327   0.846
70330SOL     OW12886   8.723   4.633   7.372
70330SOL    HW112887   8.778   4.689   7.318
70330SOL    HW212888   8.653   4.603   7.314
70331SOL     OW12889   1.540  10.206   1.721
70331SOL    HW112890   1.458  10.249   1.744
70331SOL    HW212891   1.606  10.275   1.726
70332SOL     OW12892   0.797  13.216   7.832
70332SOL    HW112893   0.708  13.224   7.799
70332SOL    HW212894   0.812  13.122   7.840
70333SOL     OW12895   4.058   1.005   1.581
70333SOL    HW112896   4.145   0.985   1.615
70333SOL    HW212897   4.066   1.092   1.543
70334SOL     OW12898  13.003   1.812   4.096
70334SOL    HW112899  13.076   1.800   4.034
70334SOL    HW212900  12.971   1.723   4.112
70335SOL     OW12901   1.801   4.101   6.520
70335SOL    HW112902   1.739   4.065   6.457
70335SOL    HW212903   1.780   4.057   6.602
70336SOL     OW12904   3.451   3.941   1.087
70336SOL    HW112905   3.496   3.860   1.108
70336SOL    HW212906   3.498   4.008   1.137
70337SOL     OW12907  13.394   8.404   6.577
70337SOL    HW112908  13.377   8.399   6.483
70337SOL    HW212909  13.363   8.491   6.602
70338SOL     OW12910   6.179   8.113   5.237
70338SOL    HW112911   6.242   8.085   5.170
70338SOL    HW212912   6.200   8.205   5.252
70339SOL     OW12913   2.879   6.856   9.365
70339SOL    HW112914   2.882   6.903   9.281
70339SOL    HW212915   2.787   6.832   9.376
70340SOL     OW12916  13.077  11.331  13.572
70340SOL    HW112917  13.030  11.391  13.629
70340SOL    HW212918  13.165  11.327  13.609
70341SOL     OW12919  14.817   4.906   8.291
70341SOL    HW112920  14.729   4.903   8.254
70341SOL    HW212921  14.875   4.880   8.220
70342SOL     OW12922   9.631   9.722   6.209
70342SOL    HW112923   9.542   9.694   6.186
70342SOL    HW212924   9.631   9.817   6.194
70343SOL     OW12925   4.020   8.787   8.972
70343SOL    HW112926   4.010   8.756   9.062
70343SOL    HW212927   4.085   8.728   8.934
70344SOL     OW12928   2.208   3.047  13.601
70344SOL    HW112929   2.148   3.059  13.527
70344SOL    HW212930   2.263   3.125  13.598
70345SOL     OW12931   3.635   7.452  11.755
70345SOL    HW112932   3.614   7.529  11.809
70345SOL    HW212933   3.668   7.488  11.673
70346SOL     OW12934   7.471   5.436   7.670
70346SOL    HW112935   7.547   5.387   7.640
70346SOL    HW212936   7.508   5.513   7.713
70347SOL     OW12937   3.199   5.825   9.061
70347SOL    HW112938   3.249   5.773   8.998
70347SOL    HW212939   3.131   5.765   9.093
70348SOL     OW12940   0.315   2.728   0.866
70348SOL    HW112941   0.310   2.807   0.919
70348SOL    HW212942   0.398   2.736   0.819
70349SOL     OW12943   5.906   7.834   3.235
70349SOL    HW112944   5.858   7.898   3.182
70349SOL    HW212945   5.885   7.859   3.325
70350SOL     OW12946  10.274  13.118   6.048
70350SOL    HW112947  10.320  13.171   6.113
70350SOL    HW212948  10.280  13.169   5.968
70351SOL     OW12949   4.587   7.857  14.867
70351SOL    HW112950   4.614   7.853  14.775
70351SOL    HW212951   4.501   7.814  14.868
70352SOL     OW12952  10.902  10.141   4.054
70352SOL    HW112953  10.986  10.177   4.083
70352SOL    HW212954  10.872  10.087   4.127
70353SOL     OW12955  10.571   4.879  12.918
70353SOL    HW112956  10.549   4.964  12.881
70353SOL    HW212957  10.602   4.899  13.007
70354SOL     OW12958   2.857   2.745  11.613
70354SOL    HW112959   2.828   2.697  11.536
70354SOL    HW212960   2.779   2.787  11.647
70355SOL     OW12961   9.519   0.072   1.097
70355SOL    HW112962   9.443   0.063   1.155
70355SOL    HW212963   9.486   0.052   1.010
70356SOL     OW12964   0.906  10.641  13.271
70356SOL    HW112965   0.881  10.623  13.180
70356SOL    HW212966   0.853  10.580  13.323
70357SOL     OW12967  11.274   4.930  11.005
70357SOL    HW112968  11.266   4.973  10.920
70357SOL    HW212969  11.213   4.978  11.062
70358SOL     OW12970  14.605   3.616   0.255
70358SOL    HW112971  14.606   3.522   0.274
70358SOL    HW212972  14.631   3.622   0.163
70359SOL     OW12973   8.972   0.338   2.444
70359SOL    HW112974   8.984   0.419   2.394
70359SOL    HW212975   8.956   0.368   2.533
70360SOL     OW12976   1.960   5.300   9.600
70360SOL    HW112977   2.037   5.279   9.546
70360SOL    HW212978   1.893   5.326   9.536
70361SOL     OW12979  13.341   2.948   5.787
70361SOL    HW112980  13.330   2.887   5.714
70361SOL    HW212981  13.263   3.004   5.785
70362SOL     OW12982   0.859   2.194   5.300
70362SOL    HW112983   0.926   2.175   5.233
70362SOL    HW212984   0.783   2.223   5.250
70363SOL     OW12985   1.703   4.312  10.581
70363SOL    HW112986   1.708   4.400  10.617
70363SOL    HW212987   1.700   4.325  10.486
70364SOL     OW12988  12.714  10.124  11.276
70364SOL    HW112989  12.725  10.193  11.211
70364SOL    HW212990  12.777  10.146  11.345
70365SOL     OW12991   0.143   2.343   0.135
70365SOL    HW112992   0.213   2.348   0.070
70365SOL    HW212993   0.185   2.307   0.213
70366SOL     OW12994   2.832  10.873   4.566
70366SOL    HW112995   2.785  10.906   4.489
70366SOL    HW212996   2.804  10.931   4.638
70367SOL     OW12997   9.757   7.753   3.697
70367SOL    HW112998   9.712   7.830   3.731
70367SOL    HW212999   9.743   7.758   3.602
70368SOL     OW13000   2.335   5.004   9.511
70368SOL    HW113001   2.420   5.029   9.475
70368SOL    HW213002   2.335   5.040   9.600
70369SOL     OW13003   9.905   3.936  11.084
70369SOL    HW113004   9.830   3.925  11.142
70369SOL    HW213005   9.951   4.012  11.119
70370SOL     OW13006   4.538  13.194  10.335
70370SOL    HW113007   4.606  13.239  10.284
70370SOL    HW213008   4.463  13.254  10.332
70371SOL     OW13009   5.300   5.484  12.738
70371SOL    HW113010   5.270   5.518  12.653
70371SOL    HW213011   5.219   5.463  12.786
70372SOL     OW13012  13.301   0.027   3.489
70372SOL    HW113013  13.235   0.096   3.488
70372SOL    HW213014  13.256  14.833   3.526
70373SOL     OW13015   1.359   8.215   8.451
70373SOL    HW113016   1.364   8.168   8.368
70373SOL    HW213017   1.386   8.304   8.429
70374SOL     OW13018   3.424   7.683  10.177
70374SOL    HW113019   3.496   7.745  10.177
70374SOL    HW213020   3.376   7.700  10.259
70375SOL     OW13021   3.685  10.302  11.817
70375SOL    HW113022   3.719  10.391  11.807
70375SOL    HW213023   3.725  10.253  11.746
70376SOL     OW13024   1.714   7.540   2.332
70376SOL    HW113025   1.728   7.475   2.401
70376SOL    HW213026   1.770   7.511   2.260
70377SOL     OW13027  12.703  11.735   0.892
70377SOL    HW113028  12.751  11.720   0.811
70377SOL    HW213029  12.770  11.766   0.954
70378SOL     OW13030   1.687   4.235   5.377
70378SOL    HW113031   1.758   4.237   5.441
70378SOL    HW213032   1.624   4.299   5.409
70379SOL     OW13033   0.995   1.896  11.971
70379SOL    HW113034   0.983   1.802  11.979
70379SOL    HW213035   0.941   1.922  11.896
70380SOL     OW13036   0.664   6.233   5.780
70380SOL    HW113037   0.627   6.285   5.851
70380SOL    HW213038   0.719   6.168   5.824
70381SOL     OW13039   9.929  12.141  11.851
70381SOL    HW113040   9.993  12.139  11.921
70381SOL    HW213041   9.907  12.234  11.841
70382SOL     OW13042   1.155  12.298  10.525
70382SOL    HW113043   1.074  12.274  10.479
70382SOL    HW213044   1.209  12.219  10.519
70383SOL     OW13045   8.555   0.861   8.296
70383SOL    HW113046   8.593   0.948   8.293
70383SOL    HW213047   8.463   0.876   8.318
70384SOL     OW13048   5.984  11.748   5.821
70384SOL    HW113049   6.020  11.750   5.910
70384SOL    HW213050   5.902  11.797   5.828
70385SOL     OW13051   1.846   9.310  11.983
70385SOL    HW113052   1.809   9.256  11.914
70385SOL    HW213053   1.847   9.253  12.060
70386SOL     OW13054  10.953   3.009  12.032
70386SOL    HW113055  10.923   2.969  12.114
70386SOL    HW213056  10.979   2.935  11.977
70387SOL     OW13057   6.778   3.234  14.460
70387SOL    HW113058   6.862   3.207  14.496
70387SOL    HW213059   6.733   3.152  14.439
70388SOL     OW13060  11.529   3.960   5.278
70388SOL    HW113061  11.552   4.047   5.243
70388SOL    HW213062  11.434   3.964   5.292
70389SOL     OW13063  13.435   3.073  13.849
70389SOL    HW113064  13.427   2.984  13.884
70389SOL    HW213065  13.440   3.129  13.926
70390SOL     OW13066   8.070   9.747   0.505
70390SOL    HW113067   8.078   9.693   0.583
70390SOL    HW213068   8.126   9.703   0.440
70391SOL     OW13069   9.244   1.985   2.161
70391SOL    HW113070   9.233   1.891   2.177
70391SOL    HW213071   9.332   1.993   2.125
70392SOL     OW13072   3.845   7.328   7.753
70392SOL    HW113073   3.840   7.233   7.761
70392SOL    HW213074   3.882   7.342   7.666
70393SOL     OW13075  14.564   5.682   7.265
70393SOL    HW113076  14.610   5.743   7.207
70393SOL    HW213077  14.551   5.732   7.346
70394SOL     OW13078   7.494   4.622  10.681
70394SOL    HW113079   7.424   4.581  10.630
70394SOL    HW213080   7.449   4.674  10.747
70395SOL     OW13081  12.483   4.944  14.361
70395SOL    HW113082  12.489   4.972  14.452
70395SOL    HW213083  12.574   4.929  14.335
70396SOL     OW13084   4.255   0.281  13.017
70396SOL    HW113085   4.224   0.236  13.096
70396SOL    HW213086   4.347   0.299  13.034
70397SOL     OW13087   7.955  10.686   8.017
70397SOL    HW113088   7.954  10.739   8.096
70397SOL    HW213089   7.873  10.636   8.020
70398SOL     OW13090   8.851   0.411   2.687
70398SOL    HW113091   8.797   0.427   2.610
70398SOL    HW213092   8.790   0.373   2.751
70399SOL     OW13093  14.422   0.156   1.577
70399SOL    HW113094  14.504   0.201   1.599
70399SOL    HW213095  14.442   0.107   1.497
70400SOL     OW13096   2.776   3.163   2.256
70400SOL    HW113097   2.861   3.206   2.256
70400SOL    HW213098   2.763   3.134   2.346
70401SOL     OW13099   3.299   4.095  13.777
70401SOL    HW113100   3.284   4.117  13.685
70401SOL    HW213101   3.376   4.038  13.776
70402SOL     OW13102   3.482   9.102   7.100
70402SOL    HW113103   3.545   9.110   7.028
70402SOL    HW213104   3.497   9.180   7.153
70403SOL     OW13105   5.720  14.427   3.910
70403SOL    HW113106   5.631  14.450   3.937
70403SOL    HW213107   5.712  14.340   3.872
70404SOL     OW13108   2.879  13.046   0.878
70404SOL    HW113109   2.843  13.115   0.821
70404SOL    HW213110   2.953  13.011   0.828
70405SOL     OW13111   3.785   6.988   8.578
70405SOL    HW113112   3.768   6.926   8.506
70405SOL    HW213113   3.864   6.954   8.620
70406SOL     OW13114  14.431   9.069   0.450
70406SOL    HW113115  14.454   9.092   0.541
70406SOL    HW213116  14.509   9.093   0.400
70407SOL     OW13117   3.178  13.332  11.806
70407SOL    HW113118   3.178  13.426  11.826
70407SOL    HW213119   3.126  13.292  11.876
70408SOL     OW13120   1.746   9.929   0.627
70408SOL    HW113121   1.792   9.846   0.639
70408SOL    HW213122   1.815   9.993   0.611
70409SOL     OW13123  12.751  11.826   1.161
70409SOL    HW113124  12.726  11.908   1.118
70409SOL    HW213125  12.721  11.837   1.251
70410SOL     OW13126   9.145  10.648   3.394
70410SOL    HW113127   9.128  10.587   3.323
70410SOL    HW213128   9.184  10.725   3.352
70411SOL     OW13129  14.824  11.516  14.575
70411SOL    HW113130  14.778  11.486  14.653
70411SOL    HW213131   0.014  11.569  14.608
70412SOL     OW13132   4.398  10.747   4.846
70412SOL    HW113133   4.483  10.790   4.853
70412SOL    HW213134   4.419  10.657   4.822
70413SOL     OW13135   6.304  11.372   1.724
70413SOL    HW113136   6.212  11.399   1.721
70413SOL    HW213137   6.329  11.358   1.633
70414SOL     OW13138  14.806   7.086   6.536
70414SOL    HW113139  14.794   7.149   6.607
70414SOL    HW213140   0.002   7.117   6.489
70415SOL     OW13141   4.613   4.901   3.872
70415SOL    HW113142   4.525   4.880   3.903
70415SOL    HW213143   4.656   4.816   3.859
70416SOL     OW13144   7.634   6.517  10.942
70416SOL    HW113145   7.681   6.571  11.005
70416SOL    HW213146   7.545   6.511  10.977
70417SOL     OW13147   2.316   7.990   1.833
70417SOL    HW113148   2.394   8.029   1.793
70417SOL    HW213149   2.272   8.063   1.876
70418SOL     OW13150   3.801   1.772   4.650
70418SOL    HW113151   3.742   1.775   4.726
70418SOL    HW213152   3.885   1.744   4.686
70419SOL     OW13153  11.877   3.465   2.854
70419SOL    HW113154  11.793   3.426   2.877
70419SOL    HW213155  11.935   3.389   2.838
70420SOL     OW13156  11.364   4.365  14.195
70420SOL    HW113157  11.337   4.457  14.207
70420SOL    HW213158  11.324   4.340  14.112
70421SOL     OW13159   7.690   3.677   6.797
70421SOL    HW113160   7.627   3.639   6.735
70421SOL    HW213161   7.649   3.759   6.826
70422SOL     OW13162  11.062   0.211  11.014
70422SOL    HW113163  11.095   0.192  11.102
70422SOL    HW213164  11.010   0.291  11.024
70423SOL     OW13165   7.384   5.670   8.938
70423SOL    HW113166   7.314   5.735   8.936
70423SOL    HW213167   7.343   5.592   8.977
70424SOL     OW13168   8.646   3.996   8.410
70424SOL    HW113169   8.723   4.019   8.463
70424SOL    HW213170   8.575   4.049   8.446
70425SOL     OW13171   3.613   0.390   3.633
70425SOL    HW113172   3.631   0.484   3.629
70425SOL    HW213173   3.598   0.365   3.542
70426SOL     OW13174  11.761  12.121   9.830
70426SOL    HW113175  11.745  12.133   9.736
70426SOL    HW213176  11.853  12.098   9.835
70427SOL     OW13177   5.108   2.205   8.800
70427SOL    HW113178   5.152   2.173   8.721
70427SOL    HW213179   5.156   2.165   8.872
70428SOL     OW13180   7.161   7.652  11.286
70428SOL    HW113181   7.076   7.649  11.242
70428SOL    HW213182   7.220   7.607  11.226
70429SOL     OW13183   7.601  10.440   8.595
70429SOL    HW113184   7.525  10.495   8.614
70429SOL    HW213185   7.668  10.502   8.564
70430SOL     OW13186   4.385   6.096   3.707
70430SOL    HW113187   4.355   6.153   3.778
70430SOL    HW213188   4.437   6.154   3.651
70431SOL     OW13189   9.794  10.583  11.493
70431SOL    HW113190   9.758  10.672  11.484
70431SOL    HW213191   9.751  10.533  11.424
70432SOL     OW13192  14.845   6.788  11.688
70432SOL    HW113193  14.840   6.842  11.609
70432SOL    HW213194  14.779   6.825  11.746
70433SOL     OW13195   4.708   2.630  11.573
70433SOL    HW113196   4.675   2.570  11.505
70433SOL    HW213197   4.716   2.575  11.651
70434SOL     OW13198  14.657   5.547   7.631
70434SOL    HW113199  14.689   5.459   7.613
70434SOL    HW213200  14.628   5.544   7.722
70435SOL     OW13201  11.273  10.422  14.386
70435SOL    HW113202  11.256  10.405  14.478
70435SOL    HW213203  11.348  10.481  14.385
70436SOL     OW13204   4.429  13.159  13.755
70436SOL    HW113205   4.507  13.122  13.795
70436SOL    HW213206   4.458  13.189  13.669
70437SOL     OW13207   2.341  13.585   5.101
70437SOL    HW113208   2.363  13.528   5.027
70437SOL    HW213209   2.395  13.551   5.173
70438SOL     OW13210   3.599  14.591   2.293
70438SOL    HW113211   3.662  14.530   2.332
70438SOL    HW213212   3.653  14.661   2.256
70439SOL     OW13213   4.612   8.038   0.192
70439SOL    HW113214   4.562   8.116   0.168
70439SOL    HW213215   4.586   7.972   0.128
70440SOL     OW13216   0.611   7.924   0.214
70440SOL    HW113217   0.696   7.881   0.224
70440SOL    HW213218   0.632   8.014   0.190
70441SOL     OW13219   4.992   4.811  12.209
70441SOL    HW113220   4.952   4.855  12.284
70441SOL    HW213221   5.030   4.881  12.157
70442SOL     OW13222   9.820  13.353   0.228
70442SOL    HW113223   9.883  13.400   0.173
70442SOL    HW213224   9.820  13.264   0.194
70443SOL     OW13225   8.595  10.869   4.057
70443SOL    HW113226   8.528  10.807   4.086
70443SOL    HW213227   8.671  10.850   4.112
70444SOL     OW13228   0.960  11.930  10.504
70444SOL    HW113229   0.912  11.999  10.458
70444SOL    HW213230   0.935  11.850  10.459
70445SOL     OW13231   1.414   3.696   8.056
70445SOL    HW113232   1.469   3.637   8.004
70445SOL    HW213233   1.382   3.761   7.993
70446SOL     OW13234   2.419   0.184   4.020
70446SOL    HW113235   2.424   0.097   3.980
70446SOL    HW213236   2.451   0.171   4.110
70447SOL     OW13237   7.810  13.879  13.355
70447SOL    HW113238   7.769  13.816  13.296
70447SOL    HW213239   7.904  13.870  13.337
70448SOL     OW13240  10.005   3.907   9.076
70448SOL    HW113241   9.988   3.959   9.154
70448SOL    HW213242  10.100   3.889   9.079
70449SOL     OW13243   0.365   9.683   7.670
70449SOL    HW113244   0.456   9.711   7.668
70449SOL    HW213245   0.362   9.615   7.738
70450SOL     OW13246  11.473   4.356   1.968
70450SOL    HW113247  11.381   4.331   1.971
70450SOL    HW213248  11.504   4.345   2.058
70451SOL     OW13249  10.243  12.115   0.121
70451SOL    HW113250  10.293  12.147   0.196
70451SOL    HW213251  10.308  12.076   0.063
70452SOL     OW13252   6.253   3.599   8.142
70452SOL    HW113253   6.197   3.603   8.219
70452SOL    HW213254   6.230   3.678   8.091
70453SOL     OW13255  14.820   2.474   9.479
70453SOL    HW113256  14.768   2.547   9.513
70453SOL    HW213257   0.028   2.496   9.502
70454SOL     OW13258   4.827   3.086  13.850
70454SOL    HW113259   4.801   2.996  13.831
70454SOL    HW213260   4.766   3.115  13.917
70455SOL     OW13261   7.014  10.386   9.605
70455SOL    HW113262   7.046  10.419   9.521
70455SOL    HW213263   7.041  10.294   9.605
70456SOL     OW13264   0.043   1.775   8.650
70456SOL    HW113265  14.876   1.725   8.715
70456SOL    HW213266  14.862   1.836   8.614
70457SOL     OW13267   9.377   7.795   2.613
70457SOL    HW113268   9.460   7.825   2.652
70457SOL    HW213269   9.353   7.865   2.552
70458SOL     OW13270  10.802  10.952   9.738
70458SOL    HW113271  10.733  10.995   9.789
70458SOL    HW213272  10.811  11.005   9.659
70459SOL     OW13273  13.189   4.896  10.837
70459SOL    HW113274  13.228   4.809  10.837
70459SOL    HW213275  13.095   4.881  10.836
70460SOL     OW13276   4.287   3.110  14.680
70460SOL    HW113277   4.224   3.122  14.609
70460SOL    HW213278   4.348   3.044  14.648
70461SOL     OW13279  11.690  13.483  11.245
70461SOL    HW113280  11.740  13.502  11.166
70461SOL    HW213281  11.705  13.390  11.262
70462SOL     OW13282  13.008   8.077   6.394
70462SOL    HW113283  12.945   8.096   6.463
70462SOL    HW213284  12.974   7.998   6.351
70463SOL     OW13285   0.485   7.389  14.841
70463SOL    HW113286   0.524   7.443   0.027
70463SOL    HW213287   0.524   7.302  14.854
70464SOL     OW13288   9.029  10.539  13.241
70464SOL    HW113289   9.092  10.592  13.193
70464SOL    HW213290   8.999  10.474  13.177
70465SOL     OW13291   4.945   9.051   0.146
70465SOL    HW113292   5.006   9.065   0.218
70465SOL    HW213293   4.984   9.099   0.073
70466SOL     OW13294  10.474  10.068   9.485
70466SOL    HW113295  10.540  10.024   9.539
70466SOL    HW213296  10.392  10.023   9.507
70467SOL     OW13297   3.263   2.022  11.627
70467SOL    HW113298   3.196   2.009  11.694
70467SOL    HW213299   3.279   1.935  11.591
70468SOL     OW13300   4.052   4.834   2.878
70468SOL    HW113301   4.109   4.865   2.949
70468SOL    HW213302   4.002   4.763   2.918
70469SOL     OW13303   4.792   7.687   4.901
70469SOL    HW113304   4.844   7.684   4.981
70469SOL    HW213305   4.710   7.729   4.927
70470SOL     OW13306   1.797  14.347   9.114
70470SOL    HW113307   1.767  14.372   9.202
70470SOL    HW213308   1.729  14.378   9.055
70471SOL     OW13309   1.967  12.507   7.123
70471SOL    HW113310   2.015  12.572   7.072
70471SOL    HW213311   1.934  12.445   7.059
70472SOL     OW13312   3.226  12.270   4.199
70472SOL    HW113313   3.247  12.274   4.293
70472SOL    HW213314   3.130  12.271   4.196
70473SOL     OW13315   1.967   1.303   7.481
70473SOL    HW113316   1.885   1.275   7.440
70473SOL    HW213317   1.992   1.383   7.434
70474SOL     OW13318   4.257  11.206   6.975
70474SOL    HW113319   4.279  11.257   6.898
70474SOL    HW213320   4.171  11.169   6.956
70475SOL     OW13321   2.802   6.697  12.186
70475SOL    HW113322   2.787   6.718  12.094
70475SOL    HW213323   2.719   6.717  12.229
70476SOL     OW13324   2.196  13.929   7.176
70476SOL    HW113325   2.147  13.872   7.235
70476SOL    HW213326   2.207  13.877   7.096
70477SOL     OW13327   3.726   9.136   7.909
70477SOL    HW113328   3.818   9.152   7.934
70477SOL    HW213329   3.699   9.216   7.865
70478SOL     OW13330  11.401  10.439   3.109
70478SOL    HW113331  11.460  10.474   3.176
70478SOL    HW213332  11.451  10.369   3.067
70479SOL     OW13333   6.856   5.470  10.013
70479SOL    HW113334   6.790   5.425   9.960
70479SOL    HW213335   6.821   5.559  10.024
70480SOL     OW13336   4.444   9.043   0.440
70480SOL    HW113337   4.388   9.078   0.371
70480SOL    HW213338   4.532   9.042   0.401
70481SOL     OW13339   2.450   1.666   6.680
70481SOL    HW113340   2.494   1.700   6.758
70481SOL    HW213341   2.434   1.744   6.626
70482SOL     OW13342  11.656   1.742   0.615
70482SOL    HW113343  11.650   1.807   0.545
70482SOL    HW213344  11.675   1.660   0.570
70483SOL     OW13345  14.719   3.412   5.571
70483SOL    HW113346  14.674   3.492   5.543
70483SOL    HW213347  14.660   3.342   5.544
70484SOL     OW13348   0.386   1.702   8.130
70484SOL    HW113349   0.413   1.784   8.090
70484SOL    HW213350   0.382   1.639   8.057
70485SOL     OW13351   9.659   3.425   6.560
70485SOL    HW113352   9.607   3.505   6.560
70485SOL    HW213353   9.599   3.358   6.527
70486SOL     OW13354   4.868   3.136  12.828
70486SOL    HW113355   4.785   3.090  12.819
70486SOL    HW213356   4.852   3.223  12.789
70487SOL     OW13357  12.214   2.094   8.779
70487SOL    HW113358  12.188   2.005   8.802
70487SOL    HW213359  12.219   2.139   8.863
70488SOL     OW13360  14.654   9.290   4.046
70488SOL    HW113361  14.615   9.377   4.047
70488SOL    HW213362  14.700   9.285   3.962
70489SOL     OW13363  10.139   9.431   6.871
70489SOL    HW113364  10.188   9.429   6.953
70489SOL    HW213365  10.193   9.484   6.812
70490SOL     OW13366   2.991   8.013   0.285
70490SOL    HW113367   2.910   8.056   0.312
70490SOL    HW213368   2.990   7.929   0.331
70491SOL     OW13369  12.518   1.643   1.559
70491SOL    HW113370  12.556   1.620   1.474
70491SOL    HW213371  12.542   1.570   1.616
70492SOL     OW13372  13.771  11.446  14.649
70492SOL    HW113373  13.690  11.398  14.634
70492SOL    HW213374  13.813  11.400  14.721
70493SOL     OW13375  11.208   0.489  12.083
70493SOL    HW113376  11.123   0.481  12.126
70493SOL    HW213377  11.245   0.401  12.085
70494SOL     OW13378  14.238   7.256  13.229
70494SOL    HW113379  14.280   7.294  13.151
70494SOL    HW213380  14.309   7.251  13.293
70495SOL     OW13381   3.272   1.157   4.981
70495SOL    HW113382   3.339   1.090   4.969
70495SOL    HW213383   3.281   1.215   4.905
70496SOL     OW13384  14.436  11.526  10.180
70496SOL    HW113385  14.459  11.477  10.258
70496SOL    HW213386  14.421  11.616  10.211
70497SOL     OW13387   0.476  12.864  13.487
70497SOL    HW113388   0.521  12.846  13.570
70497SOL    HW213389   0.405  12.923  13.510
70498SOL     OW13390   0.348   3.297   0.974
70498SOL    HW113391   0.292   3.291   0.896
70498SOL    HW213392   0.404   3.373   0.958
70499SOL     OW13393  10.999   3.228   3.267
70499SOL    HW113394  10.938   3.297   3.292
70499SOL    HW213395  10.951   3.147   3.281
70500SOL     OW13396  10.989  12.823   3.202
70500SOL    HW113397  11.046  12.766   3.253
70500SOL    HW213398  11.045  12.894   3.172
70501SOL     OW13399   4.353   0.817   0.323
70501SOL    HW113400   4.314   0.903   0.338
70501SOL    HW213401   4.294   0.755   0.367
70502SOL     OW13402   4.467  12.448  11.229
70502SOL    HW113403   4.529  12.447  11.301
70502SOL    HW213404   4.506  12.507  11.164
70503SOL     OW13405   7.130   2.977   5.879
70503SOL    HW113406   7.170   2.906   5.829
70503SOL    HW213407   7.194   2.999   5.946
70504SOL     OW13408   2.019   6.543   9.586
70504SOL    HW113409   1.996   6.457   9.621
70504SOL    HW213410   1.950   6.601   9.617
70505SOL     OW13411   0.627   7.900   9.511
70505SOL    HW113412   0.698   7.899   9.446
70505SOL    HW213413   0.672   7.892   9.595
70506SOL     OW13414   7.851   8.760  14.803
70506SOL    HW113415   7.758   8.779  14.795
70506SOL    HW213416   7.874   8.715  14.721
70507SOL     OW13417   1.588   3.359   9.794
70507SOL    HW113418   1.654   3.427   9.782
70507SOL    HW213419   1.622   3.283   9.747
70508SOL     OW13420   6.810  12.365   6.722
70508SOL    HW113421   6.739  12.414   6.763
70508SOL    HW213422   6.775  12.277   6.710
70509SOL     OW13423   3.360   0.459   2.679
70509SOL    HW113424   3.371   0.484   2.771
70509SOL    HW213425   3.309   0.378   2.682
70510SOL     OW13426  10.441   3.350   6.841
70510SOL    HW113427  10.479   3.344   6.928
70510SOL    HW213428  10.436   3.259   6.810
70511SOL     OW13429   6.206  12.820   5.754
70511SOL    HW113430   6.232  12.882   5.686
70511SOL    HW213431   6.285  12.809   5.808
70512SOL     OW13432   8.258  11.459   4.309
70512SOL    HW113433   8.272  11.481   4.401
70512SOL    HW213434   8.343  11.430   4.278
70513SOL     OW13435   2.378   2.081   8.833
70513SOL    HW113436   2.391   2.058   8.741
70513SOL    HW213437   2.440   2.153   8.849
70514SOL     OW13438  11.376   1.553   6.718
70514SOL    HW113439  11.357   1.488   6.650
70514SOL    HW213440  11.469   1.573   6.705
70515SOL     OW13441  14.209   1.799  14.018
70515SOL    HW113442  14.205   1.820  14.111
70515SOL    HW213443  14.118   1.809  13.987
70516SOL     OW13444   7.383   5.589   9.868
70516SOL    HW113445   7.308   5.541   9.903
70516SOL    HW213446   7.451   5.522   9.858
70517SOL     OW13447  10.164  11.935   2.602
70517SOL    HW113448  10.242  11.890   2.634
70517SOL    HW213449  10.149  11.898   2.515
70518SOL     OW13450  13.351   3.187   0.079
70518SOL    HW113451  13.277   3.226   0.032
70518SOL    HW213452  13.313   3.117   0.131
70519SOL     OW13453  11.166  10.775  12.962
70519SOL    HW113454  11.088  10.722  12.946
70519SOL    HW213455  11.150  10.857  12.914
70520SOL     OW13456   2.959  10.195  14.437
70520SOL    HW113457   2.905  10.159  14.507
70520SOL    HW213458   2.972  10.287  14.461
70521SOL     OW13459   1.251   5.651   6.027
70521SOL    HW113460   1.304   5.730   6.040
70521SOL    HW213461   1.314   5.585   5.998
70522SOL     OW13462   5.819   4.562   3.617
70522SOL    HW113463   5.899   4.541   3.666
70522SOL    HW213464   5.748   4.537   3.677
70523SOL     OW13465   2.052   8.242   5.620
70523SOL    HW113466   2.033   8.149   5.635
70523SOL    HW213467   1.965   8.282   5.608
70524SOL     OW13468   7.353  12.154  13.947
70524SOL    HW113469   7.445  12.163  13.924
70524SOL    HW213470   7.325  12.072  13.905
70525SOL     OW13471   7.123   5.450  10.814
70525SOL    HW113472   7.049   5.510  10.821
70525SOL    HW213473   7.185   5.495  10.756
70526SOL     OW13474  12.471   0.036   1.313
70526SOL    HW113475  12.381   0.067   1.318
70526SOL    HW213476  12.468  14.829   1.347
70527SOL     OW13477   0.959  13.846   6.969
70527SOL    HW113478   0.964  13.803   7.055
70527SOL    HW213479   0.921  13.932   6.988
70528SOL     OW13480   3.423   1.186  13.740
70528SOL    HW113481   3.373   1.105  13.746
70528SOL    HW213482   3.514   1.158  13.740
70529SOL     OW13483  13.731   4.839  11.799
70529SOL    HW113484  13.810   4.833  11.745
70529SOL    HW213485  13.733   4.760  11.853
70530SOL     OW13486   6.275   7.765   2.611
70530SOL    HW113487   6.224   7.784   2.689
70530SOL    HW213488   6.301   7.673   2.620
70531SOL     OW13489   3.879  10.336  14.229
70531SOL    HW113490   3.949  10.321  14.166
70531SOL    HW213491   3.819  10.261  14.218
70532SOL     OW13492   4.869  12.019   6.937
70532SOL    HW113493   4.779  12.000   6.963
70532SOL    HW213494   4.861  12.058   6.849
70533SOL     OW13495   3.144  11.826   3.772
70533SOL    HW113496   3.092  11.812   3.693
70533SOL    HW213497   3.223  11.871   3.742
70534SOL     OW13498   1.449   6.980   6.984
70534SOL    HW113499   1.390   7.033   7.037
70534SOL    HW213500   1.536   6.999   7.019
70535SOL     OW13501  11.646   0.738   9.435
70535SOL    HW113502  11.685   0.825   9.427
70535SOL    HW213503  11.607   0.720   9.350
70536SOL     OW13504   0.020   7.854  13.423
70536SOL    HW113505  14.868   7.890  13.505
70536SOL    HW213506   0.090   7.795  13.449
70537SOL     OW13507   3.590   8.283  13.021
70537SOL    HW113508   3.505   8.240  13.034
70537SOL    HW213509   3.621   8.249  12.937
70538SOL     OW13510   7.291   1.643   7.277
70538SOL    HW113511   7.315   1.561   7.234
70538SOL    HW213512   7.341   1.642   7.359
70539SOL     OW13513  12.000   6.430   3.961
70539SOL    HW113514  11.992   6.359   3.897
70539SOL    HW213515  12.003   6.510   3.908
70540SOL     OW13516  12.325   1.908  11.309
70540SOL    HW113517  12.373   1.828  11.329
70540SOL    HW213518  12.361   1.974  11.369
70541SOL     OW13519   3.376  10.533   8.345
70541SOL    HW113520   3.359  10.552   8.437
70541SOL    HW213521   3.353  10.441   8.335
70542SOL     OW13522  10.942  10.266  13.935
70542SOL    HW113523  11.022  10.241  13.981
70542SOL    HW213524  10.932  10.360  13.952
70543SOL     OW13525   0.632  10.478  14.561
70543SOL    HW113526   0.627  10.567  14.526
70543SOL    HW213527   0.553  10.436  14.529
70544SOL     OW13528   9.659  14.465   7.117
70544SOL    HW113529   9.741  14.490   7.158
70544SOL    HW213530   9.591  14.493   7.179
70545SOL     OW13531   0.743  10.200   0.491
70545SOL    HW113532   0.810  10.144   0.531
70545SOL    HW213533   0.698  10.142   0.429
70546SOL     OW13534   6.797   2.435   4.352
70546SOL    HW113535   6.794   2.342   4.375
70546SOL    HW213536   6.762   2.480   4.429
70547SOL     OW13537   6.365   7.765   6.194
70547SOL    HW113538   6.385   7.795   6.283
70547SOL    HW213539   6.432   7.699   6.176
70548SOL     OW13540  14.035   6.246   9.732
70548SOL    HW113541  14.112   6.293   9.763
70548SOL    HW213542  14.070   6.166   9.693
70549SOL     OW13543   1.686   4.787  10.412
70549SOL    HW113544   1.770   4.829  10.391
70549SOL    HW213545   1.642   4.778  10.328
70550SOL     OW13546  11.614   9.026   8.042
70550SOL    HW113547  11.560   8.949   8.024
70550SOL    HW213548  11.683   9.023   7.975
70551SOL     OW13549   5.249  10.511   7.687
70551SOL    HW113550   5.324  10.526   7.629
70551SOL    HW213551   5.253  10.417   7.707
70552SOL     OW13552  10.923   1.510   9.841
70552SOL    HW113553  11.011   1.500   9.876
70552SOL    HW213554  10.874   1.436   9.876
70553SOL     OW13555   7.321   5.254   4.803
70553SOL    HW113556   7.319   5.314   4.877
70553SOL    HW213557   7.281   5.174   4.836
70554SOL     OW13558  13.836   6.359   4.763
70554SOL    HW113559  13.819   6.273   4.800
70554SOL    HW213560  13.891   6.402   4.829
70555SOL     OW13561  10.866   4.289   1.727
70555SOL    HW113562  10.898   4.266   1.814
70555SOL    HW213563  10.774   4.313   1.741
70556SOL     OW13564   8.441  11.897   3.018
70556SOL    HW113565   8.432  11.886   3.112
70556SOL    HW213566   8.506  11.966   3.008
70557SOL     OW13567   5.493   3.423   5.441
70557SOL    HW113568   5.473   3.344   5.491
70557SOL    HW213569   5.495   3.493   5.506
70558SOL     OW13570  13.306   2.328   8.328
70558SOL    HW113571  13.258   2.311   8.409
70558SOL    HW213572  13.389   2.281   8.339
70559SOL     OW13573   1.866   7.220   8.407
70559SOL    HW113574   1.916   7.197   8.485
70559SOL    HW213575   1.785   7.169   8.414
70560SOL     OW13576  11.724   1.759   4.937
70560SOL    HW113577  11.687   1.671   4.932
70560SOL    HW213578  11.816   1.745   4.959
70561SOL     OW13579   7.357   7.933   2.635
70561SOL    HW113580   7.402   7.928   2.720
70561SOL    HW213581   7.297   7.858   2.636
70562SOL     OW13582  10.881   1.223  11.465
70562SOL    HW113583  10.812   1.279  11.430
70562SOL    HW213584  10.946   1.283  11.500
70563SOL     OW13585   1.345  14.085   4.242
70563SOL    HW113586   1.346  14.165   4.190
70563SOL    HW213587   1.431  14.083   4.285
70564SOL     OW13588   4.187   1.967   1.134
70564SOL    HW113589   4.265   1.975   1.078
70564SOL    HW213590   4.210   1.899   1.197
70565SOL     OW13591   8.072   0.035  11.626
70565SOL    HW113592   8.116   0.118  11.606
70565SOL    HW213593   7.979   0.055  11.619
70566SOL     OW13594  13.454   9.179  13.724
70566SOL    HW113595  13.420   9.268  13.731
70566SOL    HW213596  13.376   9.124  13.721
70567SOL     OW13597   3.445   3.754  12.234
70567SOL    HW113598   3.352   3.741  12.216
70567SOL    HW213599   3.474   3.818  12.170
70568SOL     OW13600  12.351   2.788   6.082
70568SOL    HW113601  12.310   2.746   6.157
70568SOL    HW213602  12.292   2.859   6.058
70569SOL     OW13603   6.917   1.603  12.144
70569SOL    HW113604   6.851   1.547  12.183
70569SOL    HW213605   6.996   1.588  12.197
70570SOL     OW13606  13.656   8.195  13.582
70570SOL    HW113607  13.605   8.156  13.653
70570SOL    HW213608  13.601   8.182  13.504
70571SOL     OW13609   5.528   7.581   5.816
70571SOL    HW113610   5.594   7.511   5.814
70571SOL    HW213611   5.565   7.647   5.875
70572SOL     OW13612   7.621  10.962  13.046
70572SOL    HW113613   7.591  11.022  12.978
70572SOL    HW213614   7.611  10.875  13.008
70573SOL     OW13615   6.361   0.426   2.642
70573SOL    HW113616   6.306   0.502   2.664
70573SOL    HW213617   6.420   0.417   2.716
70574SOL     OW13618   5.202   9.806   4.496
70574SOL    HW113619   5.163   9.721   4.516
70574SOL    HW213620   5.296   9.792   4.502
70575SOL     OW13621  12.043   6.089   2.378
70575SOL    HW113622  11.985   6.066   2.305
70575SOL    HW213623  12.074   6.177   2.357
70576SOL     OW13624  11.704   7.775   4.553
70576SOL    HW113625  11.788   7.793   4.511
70576SOL    HW213626  11.705   7.829   4.632
70577SOL     OW13627  12.069  12.667   1.384
70577SOL    HW113628  12.128  12.738   1.358
70577SOL    HW213629  12.114  12.587   1.356
70578SOL     OW13630   8.028  10.111   2.034
70578SOL    HW113631   7.965  10.050   1.996
70578SOL    HW213632   7.982  10.195   2.035
70579SOL     OW13633  14.263  12.011   4.351
70579SOL    HW113634  14.167  12.009   4.350
70579SOL    HW213635  14.288  12.017   4.259
70580SOL     OW13636  12.572   9.170  11.953
70580SOL    HW113637  12.633   9.096  11.952
70580SOL    HW213638  12.539   9.173  12.042
70581SOL     OW13639   2.645  13.137  13.964
70581SOL    HW113640   2.602  13.222  13.973
70581SOL    HW213641   2.575  13.073  13.979
70582SOL     OW13642   7.950   3.901  12.496
70582SOL    HW113643   8.006   3.979  12.496
70582SOL    HW213644   7.868   3.930  12.455
70583SOL     OW13645   9.220   7.490   6.014
70583SOL    HW113646   9.215   7.534   5.929
70583SOL    HW213647   9.276   7.415   5.998
70584SOL     OW13648  10.859  11.851   6.398
70584SOL    HW113649  10.809  11.924   6.434
70584SOL    HW213650  10.826  11.774   6.444
70585SOL     OW13651   3.628   2.380   1.280
70585SOL    HW113652   3.552   2.338   1.319
70585SOL    HW213653   3.702   2.345   1.328
70586SOL     OW13654  14.861   0.382   3.548
70586SOL    HW113655   0.034   0.461   3.554
70586SOL    HW213656  14.818   0.390   3.462
70587SOL     OW13657  10.751  11.020   3.910
70587SOL    HW113658  10.705  10.937   3.897
70587SOL    HW213659  10.827  11.015   3.852
70588SOL     OW13660  13.101   3.727  10.522
70588SOL    HW113661  13.115   3.767  10.436
70588SOL    HW213662  13.181   3.675  10.537
70589SOL     OW13663   7.270   1.451   1.231
70589SOL    HW113664   7.206   1.386   1.201
70589SOL    HW213665   7.216   1.524   1.264
70590SOL     OW13666  11.438   9.317  14.063
70590SOL    HW113667  11.534   9.316  14.064
70590SOL    HW213668  11.413   9.230  14.095
70591SOL     OW13669   0.027   0.121  13.887
70591SOL    HW113670   0.097   0.163  13.938
70591SOL    HW213671   0.053   0.132  13.796
70592SOL     OW13672   1.617   6.801  10.890
70592SOL    HW113673   1.662   6.817  10.973
70592SOL    HW213674   1.580   6.886  10.866
70593SOL     OW13675  10.936   3.760  13.710
70593SOL    HW113676  10.873   3.758  13.782
70593SOL    HW213677  10.994   3.685  13.726
70594SOL     OW13678   6.756  14.503  12.011
70594SOL    HW113679   6.773  14.432  11.948
70594SOL    HW213680   6.661  14.508  12.017
70595SOL     OW13681   0.982  11.312   6.361
70595SOL    HW113682   0.948  11.283   6.277
70595SOL    HW213683   0.961  11.405   6.365
70596SOL     OW13684  13.525   1.543   0.009
70596SOL    HW113685  13.567   1.493   0.078
70596SOL    HW213686  13.490   1.477  14.831
70597SOL     OW13687   8.048  13.985   0.953
70597SOL    HW113688   8.083  13.908   0.999
70597SOL    HW213689   7.959  13.995   0.988
70598SOL     OW13690   6.050   1.172   7.544
70598SOL    HW113691   6.038   1.182   7.638
70598SOL    HW213692   6.141   1.144   7.534
70599SOL     OW13693  12.162   0.600   7.668
70599SOL    HW113694  12.093   0.593   7.602
70599SOL    HW213695  12.168   0.694   7.686
70600SOL     OW13696   4.701   6.630   2.489
70600SOL    HW113697   4.621   6.659   2.445
70600SOL    HW213698   4.764   6.700   2.474
70601SOL     OW13699   6.429  12.997   2.637
70601SOL    HW113700   6.473  13.007   2.552
70601SOL    HW213701   6.431  12.903   2.653
70602SOL     OW13702  10.399   1.298   9.146
70602SOL    HW113703  10.464   1.294   9.077
70602SOL    HW213704  10.447   1.275   9.226
70603SOL     OW13705   0.031   1.213   8.862
70603SOL    HW113706   0.122   1.201   8.890
70603SOL    HW213707   0.034   1.291   8.806
70604SOL     OW13708   9.154   8.250   5.545
70604SOL    HW113709   9.075   8.265   5.494
70604SOL    HW213710   9.146   8.310   5.620
70605SOL     OW13711   9.108   2.706   8.190
70605SOL    HW113712   9.113   2.618   8.154
70605SOL    HW213713   9.106   2.763   8.114
70606SOL     OW13714   6.090  12.549  14.465
70606SOL    HW113715   6.030  12.618  14.439
70606SOL    HW213716   6.065  12.473  14.413
70607SOL     OW13717   3.389   6.285   2.680
70607SOL    HW113718   3.346   6.332   2.610
70607SOL    HW213719   3.418   6.353   2.741
70608SOL     OW13720   5.106   8.801  10.997
70608SOL    HW113721   5.025   8.762  11.030
70608SOL    HW213722   5.156   8.726  10.962
70609SOL     OW13723  11.926   6.393   7.121
70609SOL    HW113724  11.964   6.476   7.092
70609SOL    HW213725  11.963   6.379   7.208
70610SOL     OW13726   8.998  12.393  13.642
70610SOL    HW113727   9.036  12.426  13.723
70610SOL    HW213728   8.906  12.418  13.647
70611SOL     OW13729  14.088   9.250   7.012
70611SOL    HW113730  14.145   9.318   6.978
70611SOL    HW213731  14.115   9.238   7.103
70612SOL     OW13732   9.873   5.258   6.418
70612SOL    HW113733   9.878   5.339   6.367
70612SOL    HW213734   9.815   5.201   6.367
70613SOL     OW13735  12.385   5.738   6.505
70613SOL    HW113736  12.416   5.797   6.574
70613SOL    HW213737  12.324   5.679   6.549
70614SOL     OW13738   2.799   6.102  14.233
70614SOL    HW113739   2.828   6.192  14.218
70614SOL    HW213740   2.861   6.067  14.297
70615SOL     OW13741  14.656   4.233   0.918
70615SOL    HW113742  14.693   4.246   1.006
70615SOL    HW213743  14.562   4.245   0.930
70616SOL     OW13744  11.112   9.540   7.365
70616SOL    HW113745  11.082   9.624   7.399
70616SOL    HW213746  11.053   9.476   7.404
70617SOL     OW13747  13.991   6.653   9.153
70617SOL    HW113748  13.974   6.746   9.169
70617SOL    HW213749  13.966   6.610   9.234
70618SOL     OW13750   9.491   6.337   6.535
70618SOL    HW113751   9.543   6.376   6.605
70618SOL    HW213752   9.512   6.389   6.457
70619SOL     OW13753  14.369  10.896  10.870
70619SOL    HW113754  14.328  10.919  10.787
70619SOL    HW213755  14.296  10.886  10.931
70620SOL     OW13756   8.747   0.463  12.966
70620SOL    HW113757   8.750   0.504  13.053
70620SOL    HW213758   8.684   0.392  12.975
70621SOL     OW13759  10.951   6.402   7.892
70621SOL    HW113760  11.033   6.378   7.848
70621SOL    HW213761  10.932   6.490   7.862
70622SOL     OW13762  10.394   7.863   3.094
70622SOL    HW113763  10.410   7.955   3.116
70622SOL    HW213764  10.331   7.866   3.022
70623SOL     OW13765  11.074   5.621   1.636
70623SOL    HW113766  11.093   5.601   1.728
70623SOL    HW213767  11.012   5.553   1.609
70624SOL     OW13768   7.558   9.183   0.446
70624SOL    HW113769   7.570   9.254   0.383
70624SOL    HW213770   7.569   9.225   0.532
70625SOL     OW13771  14.825   4.260   0.256
70625SOL    HW113772  14.779   4.344   0.263
70625SOL    HW213773  14.758   4.194   0.271
70626SOL     OW13774  10.535  12.034   5.029
70626SOL    HW113775  10.576  12.024   4.944
70626SOL    HW213776  10.449  11.993   5.020
70627SOL     OW13777   8.334  13.924   0.190
70627SOL    HW113778   8.409  13.953   0.242
70627SOL    HW213779   8.283  13.870   0.249
70628SOL     OW13780   3.211   4.285   1.953
70628SOL    HW113781   3.216   4.370   1.909
70628SOL    HW213782   3.202   4.222   1.881
70629SOL     OW13783   5.564   9.121   8.807
70629SOL    HW113784   5.509   9.077   8.742
70629SOL    HW213785   5.582   9.207   8.769
70630SOL     OW13786  14.497   7.860   9.688
70630SOL    HW113787  14.536   7.887   9.771
70630SOL    HW213788  14.555   7.897   9.621
70631SOL     OW13789  10.027   0.230  11.866
70631SOL    HW113790  10.066   0.298  11.812
70631SOL    HW213791  10.043   0.258  11.956
70632SOL     OW13792  11.747  11.695  12.526
70632SOL    HW113793  11.665  11.744  12.525
70632SOL    HW213794  11.790  11.717  12.443
70633SOL     OW13795   5.945   0.276  13.209
70633SOL    HW113796   5.923   0.202  13.153
70633SOL    HW213797   5.861   0.317  13.230
70634SOL     OW13798  14.743  14.053  10.078
70634SOL    HW113799  14.648  14.043  10.064
70634SOL    HW213800  14.781  14.042   9.990
70635SOL     OW13801  10.960   7.492  14.306
70635SOL    HW113802  11.016   7.508  14.230
70635SOL    HW213803  10.878   7.458  14.270
70636SOL     OW13804  10.598   1.112  12.918
70636SOL    HW113805  10.661   1.041  12.928
70636SOL    HW213806  10.512   1.068  12.917
70637SOL     OW13807   4.611   3.563  12.564
70637SOL    HW113808   4.646   3.574  12.475
70637SOL    HW213809   4.679   3.514  12.610
70638SOL     OW13810   2.408  11.929  11.953
70638SOL    HW113811   2.447  11.966  11.873
70638SOL    HW213812   2.479  11.928  12.016
70639SOL     OW13813   0.790   7.974   0.550
70639SOL    HW113814   0.707   8.017   0.572
70639SOL    HW213815   0.854   8.044   0.547
70640SOL     OW13816  13.926  11.181   7.760
70640SOL    HW113817  13.919  11.225   7.675
70640SOL    HW213818  13.836  11.154   7.780
70641SOL     OW13819   6.945   2.446  10.811
70641SOL    HW113820   6.949   2.535  10.776
70641SOL    HW213821   6.970   2.390  10.737
70642SOL     OW13822   7.371   1.140   6.724
70642SOL    HW113823   7.411   1.226   6.737
70642SOL    HW213824   7.403   1.111   6.639
70643SOL     OW13825   7.673   2.703   8.921
70643SOL    HW113826   7.595   2.662   8.959
70643SOL    HW213827   7.718   2.743   8.996
70644SOL     OW13828   4.777  11.279   2.277
70644SOL    HW113829   4.744  11.291   2.365
70644SOL    HW213830   4.739  11.351   2.226
70645SOL     OW13831   2.504  12.617   8.825
70645SOL    HW113832   2.566  12.611   8.752
70645SOL    HW213833   2.554  12.589   8.902
70646SOL     OW13834   1.893   3.138  13.002
70646SOL    HW113835   1.946   3.085  12.942
70646SOL    HW213836   1.816   3.084  13.019
70647SOL     OW13837   9.389  14.177   4.206
70647SOL    HW113838   9.398  14.229   4.126
70647SOL    HW213839   9.368  14.241   4.274
70648SOL     OW13840   4.014  12.495   6.337
70648SOL    HW113841   3.973  12.433   6.276
70648SOL    HW213842   4.027  12.445   6.417
70649SOL     OW13843  10.118   0.752   1.623
70649SOL    HW113844  10.035   0.793   1.597
70649SOL    HW213845  10.162   0.819   1.675
70650SOL     OW13846  12.506  10.525  14.105
70650SOL    HW113847  12.511  10.599  14.165
70650SOL    HW213848  12.534  10.560  14.021
70651SOL     OW13849   8.943   8.338  14.265
70651SOL    HW113850   9.037   8.356  14.256
70651SOL    HW213851   8.908   8.345  14.177
70652SOL     OW13852  14.529   2.081   6.256
70652SOL    HW113853  14.473   2.138   6.203
70652SOL    HW213854  14.491   1.994   6.245
70653SOL     OW13855   2.181   6.914  14.107
70653SOL    HW113856   2.265   6.907  14.152
70653SOL    HW213857   2.152   7.004  14.123
70654SOL     OW13858  12.810  13.971   2.597
70654SOL    HW113859  12.893  13.935   2.565
70654SOL    HW213860  12.790  14.043   2.537
70655SOL     OW13861  13.998   9.082   3.486
70655SOL    HW113862  13.905   9.101   3.473
70655SOL    HW213863  14.012   9.097   3.580
70656SOL     OW13864   4.481   3.236   2.039
70656SOL    HW113865   4.401   3.238   2.091
70656SOL    HW213866   4.535   3.169   2.081
70657SOL     OW13867   7.491   3.340   2.998
70657SOL    HW113868   7.587   3.340   2.996
70657SOL    HW213869   7.469   3.314   3.087
70658SOL     OW13870   1.223  11.247   8.185
70658SOL    HW113871   1.203  11.322   8.241
70658SOL    HW213872   1.220  11.281   8.096
70659SOL     OW13873   9.342   7.365  13.714
70659SOL    HW113874   9.355   7.348  13.621
70659SOL    HW213875   9.282   7.439  13.717
70660SOL     OW13876  11.986   2.498  14.261
70660SOL    HW113877  11.967   2.404  14.259
70660SOL    HW213878  12.013   2.519  14.172
70661SOL     OW13879   1.203   4.453  11.763
70661SOL    HW113880   1.266   4.414  11.703
70661SOL    HW213881   1.158   4.519  11.711
70662SOL     OW13882  13.685   8.612   8.869
70662SOL    HW113883  13.621   8.648   8.808
70662SOL    HW213884  13.646   8.530   8.899
70663SOL     OW13885   0.138  14.273   6.541
70663SOL    HW113886   0.053  14.231   6.528
70663SOL    HW213887   0.127  14.325   6.620
70664SOL     OW13888   1.208   6.374  11.966
70664SOL    HW113889   1.296   6.389  11.999
70664SOL    HW213890   1.172   6.306  12.024
70665SOL     OW13891   7.055   3.972   6.684
70665SOL    HW113892   6.991   3.960   6.614
70665SOL    HW213893   7.071   3.884   6.718
70666SOL     OW13894   2.004   1.241   8.924
70666SOL    HW113895   1.918   1.199   8.925
70666SOL    HW213896   2.007   1.290   8.842
70667SOL     OW13897   4.548   0.074  10.986
70667SOL    HW113898   4.628   0.048  11.031
70667SOL    HW213899   4.482   0.012  11.015
70668SOL     OW13900   1.631   9.083   8.130
70668SOL    HW113901   1.641   9.004   8.184
70668SOL    HW213902   1.555   9.128   8.167
70669SOL     OW13903   6.128   6.916  13.039
70669SOL    HW113904   6.116   6.941  12.948
70669SOL    HW213905   6.136   6.821  13.037
70670SOL     OW13906   4.616   1.932   1.874
70670SOL    HW113907   4.650   1.862   1.929
70670SOL    HW213908   4.642   1.907   1.785
70671SOL     OW13909   0.774  12.558   9.577
70671SOL    HW113910   0.746  12.471   9.606
70671SOL    HW213911   0.783  12.609   9.657
70672SOL     OW13912   2.685   7.140   0.256
70672SOL    HW113913   2.607   7.145   0.312
70672SOL    HW213914   2.650   7.122   0.169
70673SOL     OW13915   9.228   6.592   9.054
70673SOL    HW113916   9.167   6.664   9.038
70673SOL    HW213917   9.199   6.554   9.137
70674SOL     OW13918   4.014   0.670   9.872
70674SOL    HW113919   4.082   0.720   9.917
70674SOL    HW213920   3.988   0.603   9.935
70675SOL     OW13921   1.246  12.490  14.221
70675SOL    HW113922   1.253  12.516  14.313
70675SOL    HW213923   1.300  12.553  14.173
70676SOL     OW13924   3.252   7.949   6.205
70676SOL    HW113925   3.255   8.043   6.218
70676SOL    HW213926   3.169   7.933   6.160
70677SOL     OW13927   3.894   9.207   0.663
70677SOL    HW113928   3.891   9.116   0.692
70677SOL    HW213929   3.941   9.203   0.579
70678SOL     OW13930   7.000  10.904   6.675
70678SOL    HW113931   6.947  10.893   6.754
70678SOL    HW213932   7.073  10.959   6.701
70679SOL     OW13933   5.200  14.440  12.092
70679SOL    HW113934   5.116  14.402  12.067
70679SOL    HW213935   5.207  14.520  12.039
70680SOL     OW13936   2.968   5.290   5.841
70680SOL    HW113937   3.044   5.346   5.856
70680SOL    HW213938   3.005   5.211   5.801
70681SOL     OW13939   5.591   0.031  12.378
70681SOL    HW113940   5.566   0.006  12.289
70681SOL    HW213941   5.527  14.869  12.434
70682SOL     OW13942  14.372  10.777   7.288
70682SOL    HW113943  14.464  10.800   7.278
70682SOL    HW213944  14.364  10.748   7.379
70683SOL     OW13945  10.326   4.549   9.888
70683SOL    HW113946  10.285   4.556   9.803
70683SOL    HW213947  10.387   4.623   9.892
70684SOL     OW13948   7.581   5.384   2.614
70684SOL    HW113949   7.559   5.449   2.547
70684SOL    HW213950   7.582   5.435   2.696
70685SOL     OW13951   3.947  10.255   3.268
70685SOL    HW113952   3.896  10.232   3.346
70685SOL    HW213953   3.967  10.348   3.280
70686SOL     OW13954  14.087  12.089  13.072
70686SOL    HW113955  14.167  12.142  13.072
70686SOL    HW213956  14.039  12.117  13.149
70687SOL     OW13957   3.978   0.354   2.745
70687SOL    HW113958   3.985   0.431   2.802
70687SOL    HW213959   4.002   0.387   2.658
70688SOL     OW13960  10.867   9.503  10.606
70688SOL    HW113961  10.815   9.580  10.582
70688SOL    HW213962  10.859   9.444  10.532
70689SOL     OW13963  11.376  12.101  12.259
70689SOL    HW113964  11.469  12.124  12.261
70689SOL    HW213965  11.374  12.007  12.245
70690SOL     OW13966   6.440  11.798   8.586
70690SOL    HW113967   6.421  11.826   8.497
70690SOL    HW213968   6.400  11.711   8.592
70691SOL     OW13969   4.501   6.213  10.356
70691SOL    HW113970   4.443   6.200  10.281
70691SOL    HW213971   4.462   6.160  10.426
70692SOL     OW13972   6.897   2.657  13.839
70692SOL    HW113973   6.827   2.715  13.872
70692SOL    HW213974   6.853   2.598  13.778
70693SOL     OW13975   2.247   2.925  11.424
70693SOL    HW113976   2.189   2.998  11.405
70693SOL    HW213977   2.209   2.882  11.501
70694SOL     OW13978  13.228  10.353   3.868
70694SOL    HW113979  13.265  10.265   3.857
70694SOL    HW213980  13.305  10.409   3.881
70695SOL     OW13981   3.025   1.574   6.112
70695SOL    HW113982   2.950   1.621   6.074
70695SOL    HW213983   2.988   1.490   6.140
70696SOL     OW13984   9.627  13.388   3.758
70696SOL    HW113985   9.544  13.342   3.776
70696SOL    HW213986   9.691  13.319   3.745
70697SOL     OW13987  10.507  10.592   4.584
70697SOL    HW113988  10.558  10.639   4.650
70697SOL    HW213989  10.453  10.659   4.543
70698SOL     OW13990   1.769   5.855   9.622
70698SOL    HW113991   1.741   5.838   9.531
70698SOL    HW213992   1.853   5.899   9.613
70699SOL     OW13993   5.478   8.684   6.300
70699SOL    HW113994   5.554   8.742   6.308
70699SOL    HW213995   5.440   8.707   6.215
70700SOL     OW13996   8.986   2.531  13.381
70700SOL    HW113997   8.924   2.601  13.398
70700SOL    HW213998   9.028   2.515  13.466
70701SOL     OW13999  10.060   4.544   8.120
70701SOL    HW114000  10.123   4.472   8.117
70701SOL    HW214001  10.082   4.592   8.199
70702SOL     OW14002   3.452   9.289  13.806
70702SOL    HW114003   3.436   9.200  13.777
70702SOL    HW214004   3.502   9.279  13.887
70703SOL     OW14005   6.168   4.216   1.290
70703SOL    HW114006   6.241   4.272   1.318
70703SOL    HW214007   6.098   4.234   1.353
70704SOL     OW14008   0.827   2.122   3.130
70704SOL    HW114009   0.749   2.157   3.086
70704SOL    HW214010   0.810   2.028   3.138
70705SOL     OW14011   1.536   8.452   7.875
70705SOL    HW114012   1.447   8.441   7.841
70705SOL    HW214013   1.593   8.428   7.803
70706SOL     OW14014   9.446   0.182  13.342
70706SOL    HW114015   9.436   0.121  13.415
70706SOL    HW214016   9.363   0.228  13.337
70707SOL     OW14017   7.816   7.997   6.339
70707SOL    HW114018   7.860   8.061   6.394
70707SOL    HW214019   7.885   7.934   6.315
70708SOL     OW14020   6.886  13.036   0.220
70708SOL    HW114021   6.792  13.055   0.217
70708SOL    HW214022   6.929  13.121   0.211
70709SOL     OW14023   5.337  11.889  12.374
70709SOL    HW114024   5.430  11.913  12.379
70709SOL    HW214025   5.317  11.890  12.280
70710SOL     OW14026   7.598   5.110   9.322
70710SOL    HW114027   7.562   5.078   9.404
70710SOL    HW214028   7.594   5.205   9.329
70711SOL     OW14029   4.380  10.090   0.930
70711SOL    HW114030   4.413  10.004   0.906
70711SOL    HW214031   4.284  10.082   0.924
70712SOL     OW14032   3.616   6.544   9.362
70712SOL    HW114033   3.657   6.545   9.276
70712SOL    HW214034   3.672   6.487   9.415
70713SOL     OW14035  12.634  10.898   0.568
70713SOL    HW114036  12.616  10.807   0.547
70713SOL    HW214037  12.695  10.894   0.641
70714SOL     OW14038   4.532   4.211   4.132
70714SOL    HW114039   4.575   4.221   4.217
70714SOL    HW214040   4.509   4.299   4.105
70715SOL     OW14041   2.236   4.243  13.104
70715SOL    HW114042   2.156   4.189  13.103
70715SOL    HW214043   2.268   4.241  13.014
70716SOL     OW14044   3.133   2.659   3.745
70716SOL    HW114045   3.111   2.697   3.830
70716SOL    HW214046   3.062   2.597   3.728
70717SOL     OW14047  13.408   9.088   8.749
70717SOL    HW114048  13.346   9.027   8.709
70717SOL    HW214049  13.353   9.154   8.791
70718SOL     OW14050   4.100  11.385   1.767
70718SOL    HW114051   4.028  11.448   1.763
70718SOL    HW214052   4.065  11.306   1.726
70719SOL     OW14053  13.551  11.317  14.854
70719SOL    HW114054  13.498  11.392  14.828
70719SOL    HW214055  13.537  11.252  14.786
70720SOL     OW14056   5.663   9.305   4.104
70720SOL    HW114057   5.706   9.301   4.190
70720SOL    HW214058   5.577   9.343   4.123
70721SOL     OW14059   9.735   1.827   2.353
70721SOL    HW114060   9.771   1.799   2.268
70721SOL    HW214061   9.740   1.922   2.350
70722SOL     OW14062   5.984  13.830   6.312
70722SOL    HW114063   5.925  13.904   6.322
70722SOL    HW214064   6.039  13.852   6.237
70723SOL     OW14065   6.340   0.212   5.309
70723SOL    HW114066   6.352   0.197   5.402
70723SOL    HW214067   6.401   0.151   5.267
70724SOL     OW14068   1.836  14.165   1.184
70724SOL    HW114069   1.771  14.100   1.213
70724SOL    HW214070   1.802  14.249   1.215
70725SOL     OW14071   8.351  13.257   1.775
70725SOL    HW114072   8.297  13.310   1.833
70725SOL    HW214073   8.417  13.218   1.832
70726SOL     OW14074   2.778   3.209   2.912
70726SOL    HW114075   2.737   3.126   2.937
70726SOL    HW214076   2.757   3.269   2.983
70727SOL     OW14077   4.291  10.388  11.780
70727SOL    HW114078   4.329  10.470  11.750
70727SOL    HW214079   4.366  10.334  11.806
70728SOL     OW14080   2.470  12.731   0.474
70728SOL    HW114081   2.403  12.755   0.537
70728SOL    HW214082   2.490  12.639   0.493
70729SOL     OW14083  11.711   7.440  12.975
70729SOL    HW114084  11.732   7.478  13.060
70729SOL    HW214085  11.768   7.487  12.913
70730SOL     OW14086   2.796   8.893   8.559
70730SOL    HW114087   2.830   8.949   8.489
70730SOL    HW214088   2.743   8.951   8.614
70731SOL     OW14089   0.324  10.689   1.548
70731SOL    HW114090   0.384  10.677   1.475
70731SOL    HW214091   0.363  10.759   1.601
70732SOL     OW14092  14.717   6.780  13.677
70732SOL    HW114093  14.719   6.866  13.719
70732SOL    HW214094  14.748   6.720  13.745
70733SOL     OW14095  12.588   0.819   5.394
70733SOL    HW114096  12.652   0.775   5.450
70733SOL    HW214097  12.511   0.832   5.450
70734SOL     OW14098  12.941  13.977  14.863
70734SOL    HW114099  12.929  13.942   0.069
70734SOL    HW214100  12.958  13.900  14.809
70735SOL     OW14101  13.261   8.773  11.712
70735SOL    HW114102  13.193   8.806  11.652
70735SOL    HW214103  13.282   8.848  11.768
70736SOL     OW14104   7.931  11.500   6.089
70736SOL    HW114105   8.016  11.495   6.046
70736SOL    HW214106   7.927  11.422   6.144
70737SOL     OW14107   2.257   4.601   3.666
70737SOL    HW114108   2.228   4.646   3.587
70737SOL    HW214109   2.176   4.569   3.706
70738SOL     OW14110   2.838   7.056   3.988
70738SOL    HW114111   2.861   7.004   3.911
70738SOL    HW214112   2.903   7.031   4.054
70739SOL     OW14113  13.685   4.789  11.093
70739SOL    HW114114  13.668   4.701  11.126
70739SOL    HW214115  13.768   4.814  11.134
70740SOL     OW14116   5.666  13.998   1.931
70740SOL    HW114117   5.709  14.045   2.003
70740SOL    HW214118   5.614  13.930   1.974
70741SOL     OW14119  13.782   4.569   6.296
70741SOL    HW114120  13.872   4.543   6.314
70741SOL    HW214121  13.736   4.555   6.379
70742SOL     OW14122   9.611  10.653   1.911
70742SOL    HW114123   9.690  10.699   1.881
70742SOL    HW214124   9.574  10.614   1.832
70743SOL     OW14125  10.902   3.056  12.337
70743SOL    HW114126  10.880   2.966  12.311
70743SOL    HW214127  10.995   3.053  12.358
70744SOL     OW14128   5.232   1.403   0.277
70744SOL    HW114129   5.278   1.375   0.198
70744SOL    HW214130   5.295   1.389   0.347
70745SOL     OW14131  12.725   1.601   8.524
70745SOL    HW114132  12.788   1.541   8.483
70745SOL    HW214133  12.694   1.555   8.602
70746SOL     OW14134   0.520  11.328  12.983
70746SOL    HW114135   0.457  11.364  12.920
70746SOL    HW214136   0.558  11.405  13.026
70747SOL     OW14137   6.337   7.786  13.578
70747SOL    HW114138   6.310   7.870  13.615
70747SOL    HW214139   6.354   7.805  13.486
70748SOL     OW14140   2.312   9.180   5.514
70748SOL    HW114141   2.257   9.253   5.542
70748SOL    HW214142   2.297   9.112   5.580
70749SOL     OW14143   7.042  11.666   1.935
70749SOL    HW114144   6.999  11.586   1.964
70749SOL    HW214145   7.054  11.654   1.841
70750SOL     OW14146  12.178   1.545  14.849
70750SOL    HW114147  12.111   1.502   0.019
70750SOL    HW214148  12.205   1.480  14.784
70751SOL     OW14149   2.748   7.189   0.686
70751SOL    HW114150   2.776   7.122   0.748
70751SOL    HW214151   2.663   7.158   0.654
70752SOL     OW14152   4.875  13.975  10.007
70752SOL    HW114153   4.900  13.893  10.050
70752SOL    HW214154   4.955  14.028  10.009
70753SOL     OW14155   6.223   3.734   6.022
70753SOL    HW114156   6.180   3.697   5.945
70753SOL    HW214157   6.162   3.717   6.094
70754SOL     OW14158   4.483   1.650   1.620
70754SOL    HW114159   4.507   1.588   1.552
70754SOL    HW214160   4.558   1.708   1.629
70755SOL     OW14161   1.864   5.074   4.969
70755SOL    HW114162   1.826   5.097   4.884
70755SOL    HW214163   1.834   4.984   4.984
70756SOL     OW14164   0.201   2.871   5.777
70756SOL    HW114165   0.278   2.911   5.818
70756SOL    HW214166   0.148   2.945   5.748
70757SOL     OW14167  14.400   6.826  10.143
70757SOL    HW114168  14.473   6.885  10.125
70757SOL    HW214169  14.440   6.753  10.192
70758SOL     OW14170   9.216   6.504   8.055
70758SOL    HW114171   9.278   6.482   8.125
70758SOL    HW214172   9.270   6.510   7.976
70759SOL     OW14173   6.995  10.339  13.085
70759SOL    HW114174   7.018  10.312  12.996
70759SOL    HW214175   6.911  10.384  13.076
70760SOL     OW14176   5.618   3.438   5.803
70760SOL    HW114177   5.618   3.496   5.879
70760SOL    HW214178   5.526   3.430   5.779
70761SOL     OW14179  10.043   1.043   6.765
70761SOL    HW114180  10.070   0.953   6.749
70761SOL    HW214181  10.124   1.090   6.783
70762SOL     OW14182   9.283   8.145   5.900
70762SOL    HW114183   9.276   8.149   5.995
70762SOL    HW214184   9.192   8.142   5.870
70763SOL     OW14185   4.443   6.406   6.640
70763SOL    HW114186   4.463   6.459   6.563
70763SOL    HW214187   4.431   6.470   6.710
70764SOL     OW14188   1.388   7.159   3.378
70764SOL    HW114189   1.309   7.106   3.383
70764SOL    HW214190   1.457   7.106   3.419
70765SOL     OW14191  12.405   6.626   3.909
70765SOL    HW114192  12.482   6.623   3.853
70765SOL    HW214193  12.335   6.589   3.855
70766SOL     OW14194   2.470   8.445   6.894
70766SOL    HW114195   2.507   8.529   6.923
70766SOL    HW214196   2.375   8.458   6.897
70767SOL     OW14197   3.893  10.486   2.112
70767SOL    HW114198   3.812  10.537   2.114
70767SOL    HW214199   3.886  10.433   2.033
70768SOL     OW14200   3.535   3.681   7.579
70768SOL    HW114201   3.547   3.721   7.493
70768SOL    HW214202   3.449   3.714   7.608
70769SOL     OW14203  10.526   1.911  14.218
70769SOL    HW114204  10.618   1.889  14.234
70769SOL    HW214205  10.527   2.003  14.194
70770SOL     OW14206   2.790   5.143   0.920
70770SOL    HW114207   2.700   5.147   0.888
70770SOL    HW214208   2.824   5.059   0.887
70771SOL     OW14209  12.647   5.612  14.294
70771SOL    HW114210  12.718   5.602  14.358
70771SOL    HW214211  12.642   5.528  14.250
70772SOL     OW14212   0.040  13.355  14.089
70772SOL    HW114213   0.041  13.316  14.177
70772SOL    HW214214   0.133  13.361  14.065
70773SOL     OW14215   6.974  14.084  12.663
70773SOL    HW114216   6.999  13.999  12.701
70773SOL    HW214217   6.996  14.076  12.570
70774SOL     OW14218   8.877  12.022   9.383
70774SOL    HW114219   8.889  11.977   9.467
70774SOL    HW214220   8.857  12.112   9.408
70775SOL     OW14221  10.690   7.130   2.257
70775SOL    HW114222  10.643   7.155   2.177
70775SOL    HW214223  10.774   7.175   2.249
70776SOL     OW14224   5.215  10.642   6.372
70776SOL    HW114225   5.189  10.725   6.413
70776SOL    HW214226   5.233  10.665   6.281
70777SOL     OW14227  14.676   5.711   9.874
70777SOL    HW114228  14.643   5.785   9.823
70777SOL    HW214229  14.598   5.662   9.898
70778SOL     OW14230  13.420   7.081   5.043
70778SOL    HW114231  13.454   6.993   5.059
70778SOL    HW214232  13.479   7.139   5.091
70779SOL     OW14233  12.778   6.277   9.030
70779SOL    HW114234  12.704   6.217   9.019
70779SOL    HW214235  12.745   6.361   8.996
70780SOL     OW14236   4.477  11.553   6.510
70780SOL    HW114237   4.442  11.637   6.478
70780SOL    HW214238   4.422  11.532   6.585
70781SOL     OW14239  10.359  12.552   2.539
70781SOL    HW114240  10.277  12.509   2.516
70781SOL    HW214241  10.335  12.644   2.549
70782SOL     OW14242   4.372  11.922   2.449
70782SOL    HW114243   4.338  11.961   2.368
70782SOL    HW214244   4.458  11.888   2.425
70783SOL     OW14245  10.929   1.018   2.254
70783SOL    HW114246  11.001   1.030   2.193
70783SOL    HW214247  10.970   0.979   2.332
70784SOL     OW14248   8.742  14.723   6.156
70784SOL    HW114249   8.675  14.782   6.192
70784SOL    HW214250   8.769  14.766   6.074
70785SOL     OW14251   2.892   4.335   1.855
70785SOL    HW114252   2.926   4.355   1.942
70785SOL    HW214253   2.863   4.244   1.861
70786SOL     OW14254   3.211  11.993  11.036
70786SOL    HW114255   3.272  11.923  11.061
70786SOL    HW214256   3.241  12.069  11.085
70787SOL     OW14257   7.727   1.606   0.568
70787SOL    HW114258   7.758   1.691   0.599
70787SOL    HW214259   7.755   1.544   0.636
70788SOL     OW14260   3.627  14.028   3.538
70788SOL    HW114261   3.542  13.984   3.534
70788SOL    HW214262   3.667  13.994   3.618
70789SOL     OW14263  13.709   6.812   6.768
70789SOL    HW114264  13.716   6.845   6.679
70789SOL    HW214265  13.671   6.725   6.759
70790SOL     OW14266   6.852   1.046   5.765
70790SOL    HW114267   6.910   1.074   5.836
70790SOL    HW214268   6.791   0.985   5.806
70791SOL     OW14269   4.027   4.481   6.923
70791SOL    HW114270   4.052   4.522   6.840
70791SOL    HW214271   3.936   4.507   6.937
70792SOL     OW14272   6.606   8.038  10.192
70792SOL    HW114273   6.530   8.093  10.171
70792SOL    HW214274   6.576   7.949  10.175
70793SOL     OW14275  13.369  12.527   9.405
70793SOL    HW114276  13.408  12.613   9.386
70793SOL    HW214277  13.420  12.466   9.352
70794SOL     OW14278   9.872   9.106   8.647
70794SOL    HW114279   9.832   9.025   8.614
70794SOL    HW214280   9.893   9.087   8.738
70795SOL     OW14281   6.634   8.452   5.322
70795SOL    HW114282   6.597   8.444   5.410
70795SOL    HW214283   6.728   8.461   5.336
70796SOL     OW14284   8.651   2.612   3.027
70796SOL    HW114285   8.576   2.671   3.018
70796SOL    HW214286   8.672   2.585   2.938
70797SOL     OW14287   5.781   8.999   8.678
70797SOL    HW114288   5.726   9.015   8.602
70797SOL    HW214289   5.734   9.041   8.751
70798SOL     OW14290   4.917  14.585   2.171
70798SOL    HW114291   4.941  14.566   2.262
70798SOL    HW214292   4.925  14.500   2.126
70799SOL     OW14293   1.233  10.575   2.934
70799SOL    HW114294   1.141  10.555   2.916
70799SOL    HW214295   1.281  10.497   2.907
70800SOL     OW14296   0.023   7.320   8.444
70800SOL    HW114297  14.878   7.228   8.438
70800SOL    HW214298   0.060   7.328   8.532
70801SOL     OW14299   1.474  14.365   0.347
70801SOL    HW114300   1.516  14.360   0.262
70801SOL    HW214301   1.436  14.452   0.351
70802SOL     OW14302   9.067   3.707   5.367
70802SOL    HW114303   9.096   3.762   5.294
70802SOL    HW214304   9.079   3.761   5.445
70803SOL     OW14305   8.358   2.223   4.462
70803SOL    HW114306   8.280   2.272   4.487
70803SOL    HW214307   8.392   2.271   4.386
70804SOL     OW14308   0.491   6.806   2.870
70804SOL    HW114309   0.581   6.809   2.838
70804SOL    HW214310   0.468   6.712   2.868
70805SOL     OW14311   6.343   1.079   8.645
70805SOL    HW114312   6.360   1.067   8.738
70805SOL    HW214313   6.345   0.991   8.608
70806SOL     OW14314   1.028  13.664   2.068
70806SOL    HW114315   1.081  13.711   2.132
70806SOL    HW214316   1.064  13.690   1.983
70807SOL     OW14317   7.984  11.376   7.451
70807SOL    HW114318   8.078  11.393   7.444
70807SOL    HW214319   7.971  11.350   7.543
70808SOL     OW14320   7.549   7.042   4.716
70808SOL    HW114321   7.624   7.100   4.702
70808SOL    HW214322   7.508   7.074   4.797
70809SOL     OW14323  11.977   9.161   4.010
70809SOL    HW114324  11.980   9.099   4.083
70809SOL    HW214325  12.024   9.118   3.939
70810SOL     OW14326  12.497   4.369   3.737
70810SOL    HW114327  12.486   4.309   3.663
70810SOL    HW214328  12.424   4.348   3.795
70811SOL     OW14329   5.159   8.638   5.938
70811SOL    HW114330   5.159   8.601   5.849
70811SOL    HW214331   5.114   8.722   5.928
70812SOL     OW14332  13.259   9.021  11.813
70812SOL    HW114333  13.163   9.027  11.814
70812SOL    HW214334  13.289   9.109  11.792
70813SOL     OW14335  11.796   2.571  11.126
70813SOL    HW114336  11.731   2.501  11.134
70813SOL    HW214337  11.745   2.648  11.103
70814SOL     OW14338   2.352   3.247   1.743
70814SOL    HW114339   2.319   3.160   1.721
70814SOL    HW214340   2.282   3.306   1.716
70815SOL     OW14341   8.403  10.174   4.290
70815SOL    HW114342   8.354  10.171   4.208
70815SOL    HW214343   8.417  10.082   4.314
70816SOL     OW14344  13.927   0.292   8.602
70816SOL    HW114345  13.906   0.268   8.692
70816SOL    HW214346  13.877   0.231   8.548
70817SOL     OW14347   8.541  12.679   5.245
70817SOL    HW114348   8.564  12.618   5.175
70817SOL    HW214349   8.619  12.681   5.301
70818SOL     OW14350  13.499   2.901   7.561
70818SOL    HW114351  13.413   2.868   7.586
70818SOL    HW214352  13.510   2.981   7.614
70819SOL     OW14353   2.421  10.897   6.224
70819SOL    HW114354   2.514  10.904   6.242
70819SOL    HW214355   2.408  10.944   6.142
70820SOL     OW14356   3.137   6.981  11.323
70820SOL    HW114357   3.138   6.983  11.418
70820SOL    HW214358   3.095   7.063  11.297
70821SOL     OW14359   4.690   5.267   5.811
70821SOL    HW114360   4.711   5.175   5.821
70821SOL    HW214361   4.757   5.301   5.751
70822SOL     OW14362   8.249   6.619   3.485
70822SOL    HW114363   8.237   6.692   3.547
70822SOL    HW214364   8.321   6.648   3.428
70823SOL     OW14365   3.457  14.659   4.535
70823SOL    HW114366   3.479  14.751   4.527
70823SOL    HW214367   3.380  14.658   4.592
70824SOL     OW14368  11.224  12.268  12.781
70824SOL    HW114369  11.163  12.295  12.850
70824SOL    HW214370  11.251  12.350  12.739
70825SOL     OW14371   2.266  12.241  10.919
70825SOL    HW114372   2.357  12.218  10.937
70825SOL    HW214373   2.270  12.303  10.846
70826SOL     OW14374   9.164   8.853   3.105
70826SOL    HW114375   9.145   8.820   3.017
70826SOL    HW214376   9.109   8.799   3.163
70827SOL     OW14377   7.699   2.890   2.636
70827SOL    HW114378   7.680   2.841   2.556
70827SOL    HW214379   7.740   2.826   2.694
70828SOL     OW14380  14.702  10.830  13.056
70828SOL    HW114381  14.706  10.774  13.133
70828SOL    HW214382  14.787  10.874  13.053
70829SOL     OW14383   3.158   9.856   5.719
70829SOL    HW114384   3.204   9.786   5.673
70829SOL    HW214385   3.200   9.937   5.688
70830SOL     OW14386   6.010  13.068   5.615
70830SOL    HW114387   6.080  13.057   5.550
70830SOL    HW214388   6.052  13.117   5.686
70831SOL     OW14389  10.229   4.169  12.428
70831SOL    HW114390  10.220   4.111  12.504
70831SOL    HW214391  10.320   4.199  12.431
70832SOL     OW14392   6.384   2.289   6.226
70832SOL    HW114393   6.408   2.315   6.315
70832SOL    HW214394   6.294   2.257   6.234
70833SOL     OW14395   1.915  10.728   6.493
70833SOL    HW114396   1.893  10.788   6.564
70833SOL    HW214397   1.842  10.666   6.490
70834SOL     OW14398   0.800  11.307   8.635
70834SOL    HW114399   0.799  11.262   8.719
70834SOL    HW214400   0.827  11.241   8.572
70835SOL     OW14401   6.961   9.310   7.848
70835SOL    HW114402   6.912   9.322   7.767
70835SOL    HW214403   6.921   9.371   7.910
70836SOL     OW14404   2.438   7.137   6.870
70836SOL    HW114405   2.379   7.066   6.848
70836SOL    HW214406   2.449   7.186   6.789
70837SOL     OW14407   3.088  10.267   3.329
70837SOL    HW114408   3.014  10.226   3.284
70837SOL    HW214409   3.057  10.356   3.348
70838SOL     OW14410  11.034   7.526   0.345
70838SOL    HW114411  10.941   7.507   0.360
70838SOL    HW214412  11.073   7.522   0.433
70839SOL     OW14413  12.010   3.639   0.780
70839SOL    HW114414  12.089   3.679   0.815
70839SOL    HW214415  12.040   3.591   0.703
70840SOL     OW14416  10.374  14.458  13.650
70840SOL    HW114417  10.387  14.549  13.621
70840SOL    HW214418  10.280  14.443  13.638
70841SOL     OW14419   3.149   5.557   8.027
70841SOL    HW114420   3.222   5.607   7.992
70841SOL    HW214421   3.073   5.615   8.020
70842SOL     OW14422   5.362   1.255  13.348
70842SOL    HW114423   5.451   1.230  13.372
70842SOL    HW214424   5.333   1.188  13.287
70843SOL     OW14425  10.178   2.296  10.721
70843SOL    HW114426  10.202   2.364  10.659
70843SOL    HW214427  10.261   2.268  10.760
70844SOL     OW14428  13.277  12.608  11.858
70844SOL    HW114429  13.202  12.556  11.886
70844SOL    HW214430  13.302  12.659  11.935
70845SOL     OW14431   7.986  11.297  10.776
70845SOL    HW114432   7.952  11.210  10.757
70845SOL    HW214433   7.970  11.348  10.697
70846SOL     OW14434   1.231   2.284   6.715
70846SOL    HW114435   1.304   2.222   6.706
70846SOL    HW214436   1.219   2.319   6.626
70847SOL     OW14437  10.806  13.675   4.054
70847SOL    HW114438  10.830  13.767   4.068
70847SOL    HW214439  10.842  13.653   3.969
70848SOL     OW14440   5.165   3.638   7.111
70848SOL    HW114441   5.114   3.577   7.165
70848SOL    HW214442   5.179   3.714   7.168
70849SOL     OW14443   9.490   4.062   7.121
70849SOL    HW114444   9.501   3.969   7.103
70849SOL    HW214445   9.397   4.079   7.104
70850SOL     OW14446   9.704   1.039  13.896
70850SOL    HW114447   9.733   0.994  13.817
70850SOL    HW214448   9.634   0.984  13.931
70851SOL     OW14449   5.501  10.946   3.405
70851SOL    HW114450   5.469  10.863   3.442
70851SOL    HW214451   5.488  11.010   3.475
70852SOL     OW14452   7.389   6.940  12.817
70852SOL    HW114453   7.415   6.858  12.774
70852SOL    HW214454   7.433   6.937  12.902
70853SOL     OW14455  12.869  11.944   7.800
70853SOL    HW114456  12.952  11.976   7.767
70853SOL    HW214457  12.864  11.853   7.772
70854SOL     OW14458   9.262  12.879   1.061
70854SOL    HW114459   9.339  12.895   1.116
70854SOL    HW214460   9.213  12.811   1.107
70855SOL     OW14461   7.427   0.449   1.344
70855SOL    HW114462   7.470   0.487   1.268
70855SOL    HW214463   7.374   0.377   1.309
70856SOL     OW14464   3.978   8.191   1.822
70856SOL    HW114465   3.991   8.276   1.780
70856SOL    HW214466   4.043   8.133   1.781
70857SOL     OW14467   1.199  10.314   8.520
70857SOL    HW114468   1.195  10.354   8.607
70857SOL    HW214469   1.209  10.388   8.460
70858SOL     OW14470   8.945   8.008   5.577
70858SOL    HW114471   8.994   8.056   5.644
70858SOL    HW214472   9.012   7.962   5.527
70859SOL     OW14473  10.180  13.309   5.279
70859SOL    HW114474  10.155  13.273   5.193
70859SOL    HW214475  10.108  13.367   5.302
70860SOL     OW14476   6.343   0.113  11.544
70860SOL    HW114477   6.258   0.151  11.568
70860SOL    HW214478   6.374   0.168  11.472
70861SOL     OW14479  13.109  10.668  12.301
70861SOL    HW114480  13.120  10.627  12.215
70861SOL    HW214481  13.173  10.739  12.302
70862SOL     OW14482   0.350  11.631   0.929
70862SOL    HW114483   0.287  11.648   0.860
70862SOL    HW214484   0.354  11.712   0.980
70863SOL     OW14485   1.816   5.821   1.829
70863SOL    HW114486   1.807   5.897   1.886
70863SOL    HW214487   1.727   5.803   1.798
70864SOL     OW14488   4.387  11.944   3.061
70864SOL    HW114489   4.370  12.029   3.020
70864SOL    HW214490   4.387  11.963   3.155
70865SOL     OW14491  10.137  14.666   3.015
70865SOL    HW114492  10.105  14.757   3.016
70865SOL    HW214493  10.224  14.672   2.976
70866SOL     OW14494  12.200   6.963  11.824
70866SOL    HW114495  12.154   6.924  11.898
70866SOL    HW214496  12.148   6.940  11.747
70867SOL     OW14497  10.091   1.282  14.693
70867SOL    HW114498  10.105   1.256  14.784
70867SOL    HW214499  10.001   1.253  14.674
70868SOL     OW14500  10.245   7.298  10.194
70868SOL    HW114501  10.249   7.227  10.131
70868SOL    HW214502  10.317   7.357  10.170
70869SOL     OW14503   7.117  12.374   9.787
70869SOL    HW114504   7.061  12.419   9.851
70869SOL    HW214505   7.114  12.282   9.813
70870SOL     OW14506   2.797   3.295   7.475
70870SOL    HW114507   2.739   3.268   7.546
70870SOL    HW214508   2.809   3.216   7.423
70871SOL     OW14509   2.128   4.693   8.469
70871SOL    HW114510   2.072   4.634   8.418
70871SOL    HW214511   2.211   4.646   8.477
70872SOL     OW14512   5.185  11.996  11.280
70872SOL    HW114513   5.276  11.978  11.256
70872SOL    HW214514   5.189  12.021  11.372
70873SOL     OW14515   4.703   1.490   1.939
70873SOL    HW114516   4.671   1.424   2.000
70873SOL    HW214517   4.642   1.486   1.865
70874SOL     OW14518  14.250  14.607  14.702
70874SOL    HW114519  14.286  14.599  14.790
70874SOL    HW214520  14.189  14.533  14.694
70875SOL     OW14521   3.940  13.306   6.195
70875SOL    HW114522   4.012  13.368   6.199
70875SOL    HW214523   3.870  13.347   6.246
70876SOL     OW14524   0.075   2.034  11.901
70876SOL    HW114525   0.117   2.039  11.987
70876SOL    HW214526   0.084   2.122  11.864
70877SOL     OW14527   2.028   6.292  10.041
70877SOL    HW114528   1.973   6.213  10.039
70877SOL    HW214529   2.060   6.295  10.132
70878SOL     OW14530   0.013   0.050   4.421
70878SOL    HW114531  14.851  14.877   4.486
70878SOL    HW214532   0.104   0.019   4.421
70879SOL     OW14533   4.929  11.455  13.816
70879SOL    HW114534   4.942  11.503  13.734
70879SOL    HW214535   4.965  11.368  13.799
70880SOL     OW14536   2.956  14.307  12.892
70880SOL    HW114537   2.973  14.331  12.801
70880SOL    HW214538   2.937  14.390  12.936
70881SOL     OW14539  14.605  12.479   6.212
70881SOL    HW114540  14.574  12.481   6.302
70881SOL    HW214541  14.651  12.395   6.204
70882SOL     OW14542  13.999   6.529   2.421
70882SOL    HW114543  13.969   6.620   2.416
70882SOL    HW214544  14.022   6.517   2.513
70883SOL     OW14545   3.102   9.200  13.452
70883SOL    HW114546   3.182   9.253  13.456
70883SOL    HW214547   3.031   9.264  13.444
70884SOL     OW14548   8.895   9.038   3.056
70884SOL    HW114549   8.879   9.044   3.151
70884SOL    HW214550   8.892   8.944   3.038
70885SOL     OW14551  10.468  13.723  10.322
70885SOL    HW114552  10.521  13.701  10.398
70885SOL    HW214553  10.397  13.659  10.323
70886SOL     OW14554  14.032   2.227   6.169
70886SOL    HW114555  14.122   2.220   6.138
70886SOL    HW214556  14.020   2.152   6.227
70887SOL     OW14557  12.410   8.756   4.306
70887SOL    HW114558  12.354   8.813   4.359
70887SOL    HW214559  12.402   8.670   4.348
70888SOL     OW14560   8.651   1.383  13.256
70888SOL    HW114561   8.638   1.294  13.222
70888SOL    HW214562   8.625   1.440  13.184
70889SOL     OW14563   2.638   1.407  14.255
70889SOL    HW114564   2.617   1.342  14.187
70889SOL    HW214565   2.695   1.360  14.316
70890SOL     OW14566   1.006   2.295  11.902
70890SOL    HW114567   0.937   2.338  11.953
70890SOL    HW214568   1.000   2.335  11.815
70891SOL     OW14569  13.486   1.684   7.414
70891SOL    HW114570  13.574   1.649   7.427
70891SOL    HW214571  13.495   1.747   7.342
70892SOL     OW14572   0.043   3.191  13.536
70892SOL    HW114573   0.011   3.163  13.450
70892SOL    HW214574   0.133   3.158  13.540
70893SOL     OW14575   6.091   2.268  10.568
70893SOL    HW114576   6.011   2.270  10.516
70893SOL    HW214577   6.112   2.175  10.577
70894SOL     OW14578   2.077   6.324  12.476
70894SOL    HW114579   2.103   6.359  12.562
70894SOL    HW214580   2.005   6.264  12.496
70895SOL     OW14581   2.083   5.119   7.560
70895SOL    HW114582   1.995   5.129   7.523
70895SOL    HW214583   2.069   5.083   7.647
70896SOL     OW14584  13.149   0.462   6.532
70896SOL    HW114585  13.076   0.515   6.563
70896SOL    HW214586  13.215   0.469   6.600
70897SOL     OW14587   8.939   3.377   8.284
70897SOL    HW114588   8.953   3.368   8.190
70897SOL    HW214589   8.865   3.319   8.303
70898SOL     OW14590   1.384   7.622  10.394
70898SOL    HW114591   1.459   7.681  10.389
70898SOL    HW214592   1.361   7.619  10.487
70899SOL     OW14593   0.761   1.856   8.524
70899SOL    HW114594   0.691   1.921   8.515
70899SOL    HW214595   0.839   1.901   8.494
70900SOL     OW14596   5.532   0.066  11.002
70900SOL    HW114597   5.440   0.062  10.977
70900SOL    HW214598   5.576   0.105  10.927
70901SOL     OW14599   4.031   3.182   8.193
70901SOL    HW114600   3.980   3.116   8.239
70901SOL    HW214601   4.105   3.201   8.251
70902SOL     OW14602  11.808   2.761   1.572
70902SOL    HW114603  11.866   2.688   1.547
70902SOL    HW214604  11.864   2.821   1.621
70903SOL     OW14605   7.430   1.222  11.888
70903SOL    HW114606   7.512   1.188  11.923
70903SOL    HW214607   7.435   1.204  11.794
70904SOL     OW14608  14.736   1.662  13.622
70904SOL    HW114609  14.717   1.570  13.637
70904SOL    HW214610  14.828   1.663  13.595
70905SOL     OW14611   2.377  14.385   9.572
70905SOL    HW114612   2.335  14.470   9.558
70905SOL    HW214613   2.409  14.389   9.662
70906SOL     OW14614  10.228   5.098  12.930
70906SOL    HW114615  10.143   5.071  12.894
70906SOL    HW214616  10.234   5.054  13.014
70907SOL     OW14617   3.935   3.220   4.904
70907SOL    HW114618   3.840   3.210   4.900
70907SOL    HW214619   3.951   3.262   4.989
70908SOL     OW14620   0.184   1.350   1.400
70908SOL    HW114621   0.196   1.368   1.307
70908SOL    HW214622   0.254   1.400   1.443
70909SOL     OW14623   7.413   8.318   3.714
70909SOL    HW114624   7.365   8.284   3.639
70909SOL    HW214625   7.501   8.281   3.706
70910SOL     OW14626  12.944   0.919  10.230
70910SOL    HW114627  12.885   0.920  10.305
70910SOL    HW214628  13.030   0.939  10.267
70911SOL     OW14629   4.852   9.336  12.368
70911SOL    HW114630   4.854   9.299  12.456
70911SOL    HW214631   4.762   9.367  12.357
70912SOL     OW14632   4.263   9.332   0.987
70912SOL    HW114633   4.211   9.380   1.051
70912SOL    HW214634   4.243   9.240   1.004
70913SOL     OW14635   6.276   4.863   2.713
70913SOL    HW114636   6.322   4.801   2.656
70913SOL    HW214637   6.283   4.947   2.668
70914SOL     OW14638  11.173  13.246   3.630
70914SOL    HW114639  11.231  13.240   3.554
70914SOL    HW214640  11.185  13.335   3.662
70915SOL     OW14641   3.459   7.243   9.527
70915SOL    HW114642   3.497   7.209   9.446
70915SOL    HW214643   3.531   7.244   9.589
70916SOL     OW14644   1.843   1.226   4.482
70916SOL    HW114645   1.778   1.178   4.533
70916SOL    HW214646   1.799   1.307   4.456
70917SOL     OW14647   4.833  11.273   2.993
70917SOL    HW114648   4.858  11.181   2.982
70917SOL    HW214649   4.822  11.306   2.904
70918SOL     OW14650  13.077   0.473   5.052
70918SOL    HW114651  13.010   0.409   5.076
70918SOL    HW214652  13.087   0.463   4.957
70919SOL     OW14653   7.577  10.733  11.289
70919SOL    HW114654   7.492  10.715  11.329
70919SOL    HW214655   7.640  10.691  11.347
70920SOL     OW14656   2.596  10.032   9.502
70920SOL    HW114657   2.596  10.007   9.595
70920SOL    HW214658   2.592   9.949   9.455
70921SOL     OW14659  11.505   7.747   2.983
70921SOL    HW114660  11.557   7.679   3.026
70921SOL    HW214661  11.429   7.701   2.948
70922SOL     OW14662   2.531  11.498   7.269
70922SOL    HW114663   2.596  11.484   7.338
70922SOL    HW214664   2.562  11.444   7.196
70923SOL     OW14665   9.303  11.838   0.787
70923SOL    HW114666   9.321  11.927   0.817
70923SOL    HW214667   9.270  11.850   0.697
70924SOL     OW14668   4.036   6.336   8.181
70924SOL    HW114669   4.040   6.247   8.146
70924SOL    HW214670   4.088   6.333   8.261
70925SOL     OW14671  11.632   1.267   8.768
70925SOL    HW114672  11.637   1.192   8.826
70925SOL    HW214673  11.555   1.251   8.714
70926SOL     OW14674  11.869   9.989   9.432
70926SOL    HW114675  11.801   9.963   9.371
70926SOL    HW214676  11.929   9.914   9.435
70927SOL     OW14677   5.287   2.644  11.274
70927SOL    HW114678   5.271   2.701  11.198
70927SOL    HW214679   5.200   2.625  11.308
70928SOL     OW14680  12.303   4.735   9.550
70928SOL    HW114681  12.341   4.815   9.514
70928SOL    HW214682  12.209   4.746   9.540
70929SOL     OW14683   8.467   1.118   0.888
70929SOL    HW114684   8.525   1.106   0.963
70929SOL    HW214685   8.379   1.103   0.923
70930SOL     OW14686   5.490   7.430  10.421
70930SOL    HW114687   5.502   7.366  10.351
70930SOL    HW214688   5.478   7.513  10.376
70931SOL     OW14689   5.830   4.900  14.466
70931SOL    HW114690   5.853   4.913  14.374
70931SOL    HW214691   5.790   4.983  14.492
70932SOL     OW14692   7.997  11.712  13.810
70932SOL    HW114693   8.057  11.679  13.743
70932SOL    HW214694   8.049  11.713  13.890
70933SOL     OW14695   8.751   4.905   4.445
70933SOL    HW114696   8.726   4.905   4.353
70933SOL    HW214697   8.745   4.813   4.472
70934SOL     OW14698   1.769  11.142   1.932
70934SOL    HW114699   1.834  11.139   1.863
70934SOL    HW214700   1.780  11.060   1.980
70935SOL     OW14701   5.347   0.515   3.674
70935SOL    HW114702   5.370   0.481   3.761
70935SOL    HW214703   5.395   0.598   3.668
70936SOL     OW14704   3.577   4.656  14.099
70936SOL    HW114705   3.489   4.620  14.085
70936SOL    HW214706   3.627   4.583  14.135
70937SOL     OW14707  14.738   7.420  12.349
70937SOL    HW114708  14.744   7.428  12.254
70937SOL    HW214709  14.650   7.386  12.364
70938SOL     OW14710   2.311   3.124  14.308
70938SOL    HW114711   2.229   3.095  14.268
70938SOL    HW214712   2.378   3.106  14.242
70939SOL     OW14713  10.736  14.260  11.786
70939SOL    HW114714  10.644  14.276  11.805
70939SOL    HW214715  10.765  14.202  11.857
70940SOL     OW14716   2.812   7.954   2.065
70940SOL    HW114717   2.786   7.863   2.078
70940SOL    HW214718   2.897   7.948   2.020
70941SOL     OW14719   8.512   2.705  10.777
70941SOL    HW114720   8.502   2.610  10.771
70941SOL    HW214721   8.602   2.722  10.748
70942SOL     OW14722  11.050   7.834   9.598
70942SOL    HW114723  10.982   7.863   9.537
70942SOL    HW214724  11.001   7.806   9.676
70943SOL     OW14725  10.044   7.462  11.844
70943SOL    HW114726   9.961   7.497  11.813
70943SOL    HW214727  10.091   7.537  11.879
70944SOL     OW14728   1.787   2.418  12.957
70944SOL    HW114729   1.836   2.337  12.940
70944SOL    HW214730   1.719   2.392  13.019
70945SOL     OW14731  12.771  11.821   6.075
70945SOL    HW114732  12.692  11.866   6.047
70945SOL    HW214733  12.803  11.776   5.997
70946SOL     OW14734   9.837  10.526  12.859
70946SOL    HW114735   9.815  10.488  12.774
70946SOL    HW214736   9.927  10.558  12.848
70947SOL     OW14737  10.105   9.704   6.685
70947SOL    HW114738  10.036   9.764   6.717
70947SOL    HW214739  10.058   9.640   6.632
70948SOL     OW14740   0.643   0.903  12.493
70948SOL    HW114741   0.684   0.936  12.573
70948SOL    HW214742   0.626   0.982  12.441
70949SOL     OW14743   0.062   0.516   4.338
70949SOL    HW114744   0.060   0.601   4.380
70949SOL    HW214745  14.879   0.463   4.385
70950SOL     OW14746   3.794   2.391   8.644
70950SOL    HW114747   3.799   2.371   8.550
70950SOL    HW214748   3.736   2.468   8.648
70951SOL     OW14749   6.866   0.851  14.283
70951SOL    HW114750   6.856   0.866  14.189
70951SOL    HW214751   6.955   0.816  14.292
70952SOL     OW14752   8.291   1.092   6.411
70952SOL    HW114753   8.196   1.084   6.411
70952SOL    HW214754   8.317   1.068   6.322
70953SOL     OW14755   1.297  11.187  12.385
70953SOL    HW114756   1.237  11.243  12.335
70953SOL    HW214757   1.370  11.245  12.407
70954SOL     OW14758   3.446  10.705   5.184
70954SOL    HW114759   3.470  10.661   5.102
70954SOL    HW214760   3.522  10.760   5.204
70955SOL     OW14761   2.107   2.368   3.441
70955SOL    HW114762   2.161   2.360   3.362
70955SOL    HW214763   2.045   2.438   3.420
70956SOL     OW14764  10.808   9.092  10.727
70956SOL    HW114765  10.813   9.187  10.715
70956SOL    HW214766  10.895   9.069  10.762
70957SOL     OW14767   6.699   2.919  12.258
70957SOL    HW114768   6.619   2.866  12.257
70957SOL    HW214769   6.671   3.004  12.293
70958SOL     OW14770   9.588  10.701  13.231
70958SOL    HW114771   9.682  10.714  13.221
70958SOL    HW214772   9.569  10.725  13.321
70959SOL     OW14773   1.553   4.085  14.572
70959SOL    HW114774   1.617   4.015  14.587
70959SOL    HW214775   1.484   4.068  14.636
70960SOL     OW14776  10.870  11.704  10.407
70960SOL    HW114777  10.850  11.627  10.460
70960SOL    HW214778  10.785  11.746  10.392
70961SOL     OW14779  14.162  10.592  14.268
70961SOL    HW114780  14.078  10.636  14.276
70961SOL    HW214781  14.224  10.662  14.245
70962SOL     OW14782   2.883   2.238   6.770
70962SOL    HW114783   2.829   2.298   6.822
70962SOL    HW214784   2.973   2.256   6.798
70963SOL     OW14785  10.767   5.065   8.783
70963SOL    HW114786  10.691   5.018   8.750
70963SOL    HW214787  10.755   5.067   8.878
70964SOL     OW14788   6.011   6.403   8.978
70964SOL    HW114789   6.058   6.326   9.010
70964SOL    HW214790   5.942   6.417   9.042
70965SOL     OW14791   6.486   0.184   6.097
70965SOL    HW114792   6.487   0.088   6.103
70965SOL    HW214793   6.421   0.203   6.030
70966SOL     OW14794   0.661   1.725   9.405
70966SOL    HW114795   0.610   1.782   9.463
70966SOL    HW214796   0.715   1.786   9.355
70967SOL     OW14797   3.428  10.567   3.727
70967SOL    HW114798   3.510  10.617   3.729
70967SOL    HW214799   3.452  10.481   3.762
70968SOL     OW14800   4.945   9.361   2.746
70968SOL    HW114801   4.851   9.349   2.757
70968SOL    HW214802   4.968   9.429   2.810
70969SOL     OW14803  14.229  10.793   8.563
70969SOL    HW114804  14.200  10.774   8.474
70969SOL    HW214805  14.271  10.712   8.592
70970SOL     OW14806   2.951   3.950   4.330
70970SOL    HW114807   2.968   3.988   4.244
70970SOL    HW214808   3.016   3.992   4.387
70971SOL     OW14809   2.188   1.580   3.542
70971SOL    HW114810   2.206   1.673   3.527
70971SOL    HW214811   2.218   1.537   3.463
70972SOL     OW14812  11.135   0.169   6.254
70972SOL    HW114813  11.062   0.229   6.238
70972SOL    HW214814  11.122   0.098   6.191
70973SOL     OW14815   5.599   1.405   6.966
70973SOL    HW114816   5.601   1.309   6.972
70973SOL    HW214817   5.507   1.425   6.944
70974SOL     OW14818   0.778  11.248   8.918
70974SOL    HW114819   0.814  11.325   8.961
70974SOL    HW214820   0.696  11.278   8.879
70975SOL     OW14821   7.552  10.668   0.054
70975SOL    HW114822   7.503  10.740   0.095
70975SOL    HW214823   7.642  10.699   0.052
70976SOL     OW14824  13.126   9.184   8.462
70976SOL    HW114825  13.103   9.211   8.373
70976SOL    HW214826  13.051   9.209   8.515
70977SOL     OW14827   4.307  13.702   8.517
70977SOL    HW114828   4.249  13.719   8.442
70977SOL    HW214829   4.358  13.626   8.491
70978SOL     OW14830   2.105   7.396   5.875
70978SOL    HW114831   2.071   7.454   5.805
70978SOL    HW214832   2.066   7.431   5.955
70979SOL     OW14833  13.105   0.702   5.808
70979SOL    HW114834  13.187   0.672   5.768
70979SOL    HW214835  13.124   0.791   5.838
70980SOL     OW14836   0.488   1.896   6.996
70980SOL    HW114837   0.487   1.942   7.080
70980SOL    HW214838   0.410   1.841   6.998
70981SOL     OW14839   9.384   9.226   9.981
70981SOL    HW114840   9.347   9.246  10.067
70981SOL    HW214841   9.308   9.203   9.927
70982SOL     OW14842   5.745   3.453   2.054
70982SOL    HW114843   5.667   3.399   2.040
70982SOL    HW214844   5.783   3.464   1.967
70983SOL     OW14845  12.467   0.827   9.224
70983SOL    HW114846  12.532   0.784   9.279
70983SOL    HW214847  12.478   0.788   9.138
70984SOL     OW14848   9.401   1.456   5.247
70984SOL    HW114849   9.440   1.484   5.330
70984SOL    HW214850   9.330   1.398   5.273
70985SOL     OW14851  13.213  14.156   3.727
70985SOL    HW114852  13.145  14.092   3.704
70985SOL    HW214853  13.174  14.209   3.796
70986SOL     OW14854  10.241   0.835   6.808
70986SOL    HW114855  10.322   0.857   6.853
70986SOL    HW214856  10.229   0.741   6.824
70987SOL     OW14857   0.321   8.247   8.434
70987SOL    HW114858   0.272   8.320   8.397
70987SOL    HW214859   0.374   8.286   8.504
70988SOL     OW14860   0.202   8.771  14.622
70988SOL    HW114861   0.255   8.826  14.680
70988SOL    HW214862   0.186   8.691  14.672
70989SOL     OW14863   2.803   2.748   9.084
70989SOL    HW114864   2.716   2.774   9.056
70989SOL    HW214865   2.858   2.824   9.065
70990SOL     OW14866  10.952   8.898  11.675
70990SOL    HW114867  10.862   8.899  11.644
70990SOL    HW214868  11.000   8.953  11.612
70991SOL     OW14869  13.192  11.987   9.295
70991SOL    HW114870  13.203  12.006   9.388
70991SOL    HW214871  13.108  11.940   9.290
70992SOL     OW14872   4.532   7.586   7.014
70992SOL    HW114873   4.485   7.666   6.988
70992SOL    HW214874   4.625   7.608   7.001
70993SOL     OW14875   1.654   3.263  10.115
70993SOL    HW114876   1.637   3.191  10.054
70993SOL    HW214877   1.709   3.323  10.065
70994SOL     OW14878   4.346   5.023   5.825
70994SOL    HW114879   4.363   5.041   5.733
70994SOL    HW214880   4.264   5.069   5.844
70995SOL     OW14881  13.139   9.557   1.951
70995SOL    HW114882  13.048   9.583   1.938
70995SOL    HW214883  13.179   9.632   1.996
70996SOL     OW14884  12.301   7.884   8.424
70996SOL    HW114885  12.284   7.972   8.457
70996SOL    HW214886  12.394   7.870   8.441
70997SOL     OW14887   6.392   0.494   8.357
70997SOL    HW114888   6.355   0.421   8.408
70997SOL    HW214889   6.391   0.568   8.418
70998SOL     OW14890   6.185   1.702   2.035
70998SOL    HW114891   6.272   1.666   2.018
70998SOL    HW214892   6.194   1.747   2.119
70999SOL     OW14893  14.811   8.324  10.124
70999SOL    HW114894  14.727   8.321  10.170
70999SOL    HW214895  14.875   8.344  10.191
71000SOL     OW14896   8.822   4.907   6.815
71000SOL    HW114897   8.732   4.883   6.793
71000SOL    HW214898   8.821   5.003   6.815
71001SOL     OW14899   1.884   3.715   5.319
71001SOL    HW114900   1.939   3.774   5.370
71001SOL    HW214901   1.796   3.754   5.323
71002SOL     OW14902   0.537   0.734   9.779
71002SOL    HW114903   0.534   0.789   9.858
71002SOL    HW214904   0.521   0.795   9.707
71003SOL     OW14905   7.013  12.364  14.407
71003SOL    HW114906   6.969  12.440  14.368
71003SOL    HW214907   6.957  12.339  14.480
71004SOL     OW14908   8.366   1.555   6.760
71004SOL    HW114909   8.374   1.634   6.708
71004SOL    HW214910   8.272   1.534   6.758
71005SOL     OW14911  10.201  10.015   2.308
71005SOL    HW114912  10.235  10.101   2.334
71005SOL    HW214913  10.107  10.031   2.294
71006SOL     OW14914  11.677   8.957   0.158
71006SOL    HW114915  11.626   8.996   0.087
71006SOL    HW214916  11.751   9.017   0.170
71007SOL     OW14917   0.385   1.108   8.713
71007SOL    HW114918   0.450   1.041   8.738
71007SOL    HW214919   0.330   1.118   8.791
71008SOL     OW14920   5.919  10.661   9.183
71008SOL    HW114921   5.860  10.737   9.184
71008SOL    HW214922   6.006  10.699   9.189
71009SOL     OW14923  13.340  12.433   4.887
71009SOL    HW114924  13.364  12.498   4.821
71009SOL    HW214925  13.333  12.351   4.838
71010SOL     OW14926   1.693   9.505   5.762
71010SOL    HW114927   1.758   9.450   5.718
71010SOL    HW214928   1.667   9.569   5.695
71011SOL     OW14929  13.695  12.574   6.147
71011SOL    HW114930  13.657  12.651   6.105
71011SOL    HW214931  13.679  12.588   6.240
71012SOL     OW14932  12.552  14.286   2.962
71012SOL    HW114933  12.604  14.244   3.031
71012SOL    HW214934  12.529  14.215   2.903
71013SOL     OW14935   5.475   8.598  14.331
71013SOL    HW114936   5.527   8.674  14.358
71013SOL    HW214937   5.425   8.628  14.255
71014SOL     OW14938   9.573   2.387  14.276
71014SOL    HW114939   9.626   2.442  14.219
71014SOL    HW214940   9.578   2.429  14.362
71015SOL     OW14941   1.767   9.194   8.727
71015SOL    HW114942   1.750   9.140   8.650
71015SOL    HW214943   1.714   9.272   8.714
71016SOL     OW14944   9.148   2.603   1.195
71016SOL    HW114945   9.169   2.640   1.110
71016SOL    HW214946   9.226   2.553   1.220
71017SOL     OW14947   9.732   0.288   9.338
71017SOL    HW114948   9.780   0.368   9.359
71017SOL    HW214949   9.654   0.319   9.292
71018SOL     OW14950   2.826  11.607  14.168
71018SOL    HW114951   2.911  11.646  14.189
71018SOL    HW214952   2.796  11.655  14.090
71019SOL     OW14953   4.891   4.195  12.297
71019SOL    HW114954   4.937   4.265  12.342
71019SOL    HW214955   4.884   4.224  12.206
71020SOL     OW14956   2.494  10.146  11.153
71020SOL    HW114957   2.445  10.068  11.177
71020SOL    HW214958   2.577  10.138  11.200
71021SOL     OW14959   0.297  11.808  11.044
71021SOL    HW114960   0.322  11.811  10.952
71021SOL    HW214961   0.359  11.748  11.085
71022SOL     OW14962   3.899   6.137   4.390
71022SOL    HW114963   3.862   6.193   4.458
71022SOL    HW214964   3.831   6.073   4.372
71023SOL     OW14965  12.846   2.673   8.822
71023SOL    HW114966  12.817   2.658   8.912
71023SOL    HW214967  12.767   2.704   8.777
71024SOL     OW14968   7.797   7.979  14.187
71024SOL    HW114969   7.858   7.907  14.174
71024SOL    HW214970   7.852   8.050  14.222
71025SOL     OW14971   0.591   0.150  14.019
71025SOL    HW114972   0.620   0.130  13.930
71025SOL    HW214973   0.635   0.232  14.041
71026SOL     OW14974   2.998   5.147   7.238
71026SOL    HW114975   2.924   5.184   7.285
71026SOL    HW214976   3.068   5.212   7.249
71027SOL     OW14977   7.258   8.400  14.559
71027SOL    HW114978   7.288   8.434  14.644
71027SOL    HW214979   7.243   8.307  14.575
71028SOL     OW14980   9.866   0.955   3.356
71028SOL    HW114981   9.784   0.967   3.309
71028SOL    HW214982   9.869   1.026   3.420
71029SOL     OW14983  11.937   2.619   6.236
71029SOL    HW114984  11.883   2.544   6.259
71029SOL    HW214985  11.917   2.637   6.144
71030SOL     OW14986   9.922   5.510   5.445
71030SOL    HW114987   9.868   5.586   5.422
71030SOL    HW214988  10.012   5.539   5.429
71031SOL     OW14989   8.997  13.821  14.078
71031SOL    HW114990   8.988  13.807  13.983
71031SOL    HW214991   8.928  13.884  14.099
71032SOL     OW14992   6.946   4.655  10.053
71032SOL    HW114993   7.003   4.619  10.121
71032SOL    HW214994   6.907   4.579  10.011
71033SOL     OW14995  12.752   8.065  11.171
71033SOL    HW114996  12.761   8.148  11.216
71033SOL    HW214997  12.832   8.058  11.118
71034SOL     OW14998   6.788   2.380   2.130
71034SOL    HW114999   6.830   2.402   2.047
71034SOL    HW215000   6.748   2.294   2.115
71035SOL     OW15001   6.817   9.070   6.194
71035SOL    HW115002   6.825   9.068   6.289
71035SOL    HW215003   6.771   9.152   6.175
71036SOL     OW15004   7.601   3.757  11.853
71036SOL    HW115005   7.661   3.682  11.854
71036SOL    HW215006   7.520   3.722  11.817
71037SOL     OW15007  14.077   8.619  11.686
71037SOL    HW115008  14.054   8.547  11.627
71037SOL    HW215009  13.994   8.663  11.703
71038SOL     OW15010   6.222   6.593  10.373
71038SOL    HW115011   6.216   6.498  10.375
71038SOL    HW215012   6.231   6.619  10.465
71039SOL     OW15013   4.982  12.696  12.846
71039SOL    HW115014   4.976  12.659  12.934
71039SOL    HW215015   4.892  12.700  12.815
71040SOL     OW15016   9.714   6.436   1.798
71040SOL    HW115017   9.653   6.509   1.804
71040SOL    HW215018   9.686   6.388   1.720
71041SOL     OW15019  10.328   2.381   2.242
71041SOL    HW115020  10.339   2.343   2.329
71041SOL    HW215021  10.237   2.361   2.218
71042SOL     OW15022   8.260   4.853   5.699
71042SOL    HW115023   8.327   4.786   5.682
71042SOL    HW215024   8.307   4.925   5.741
71043SOL     OW15025  13.950  12.485   7.124
71043SOL    HW115026  13.856  12.479   7.141
71043SOL    HW215027  13.959  12.563   7.070
71044SOL     OW15028   8.190   0.158   5.320
71044SOL    HW115029   8.114   0.184   5.373
71044SOL    HW215030   8.249   0.233   5.325
71045SOL     OW15031   2.059  12.243   2.669
71045SOL    HW115032   2.151  12.264   2.680
71045SOL    HW215033   2.052  12.210   2.579
71046SOL     OW15034  14.770   8.196   6.780
71046SOL    HW115035  14.799   8.266   6.838
71046SOL    HW215036  14.729   8.132   6.838
71047SOL     OW15037   0.737   7.659  14.293
71047SOL    HW115038   0.721   7.664  14.388
71047SOL    HW215039   0.815   7.604  14.285
71048SOL     OW15040   7.928   0.327  12.075
71048SOL    HW115041   7.968   0.394  12.020
71048SOL    HW215042   7.838   0.321  12.046
71049SOL     OW15043   0.527  12.073   6.713
71049SOL    HW115044   0.515  11.983   6.742
71049SOL    HW215045   0.536  12.067   6.618
71050SOL     OW15046   2.430   5.882  11.560
71050SOL    HW115047   2.420   5.815  11.628
71050SOL    HW215048   2.374   5.954  11.589
71051SOL     OW15049   5.076   7.395   7.173
71051SOL    HW115050   5.038   7.329   7.231
71051SOL    HW215051   5.119   7.457   7.232
71052SOL     OW15052  11.252   1.607  12.734
71052SOL    HW115053  11.339   1.640  12.756
71052SOL    HW215054  11.215   1.673  12.676
71053SOL     OW15055   8.028   7.629  13.111
71053SOL    HW115056   8.116   7.662  13.133
71053SOL    HW215057   7.980   7.706  13.083
71054SOL     OW15058   7.667   3.909   2.869
71054SOL    HW115059   7.704   3.985   2.915
71054SOL    HW215060   7.715   3.906   2.786
71055SOL     OW15061   1.187  13.672  12.923
71055SOL    HW115062   1.110  13.618  12.906
71055SOL    HW215063   1.253  13.640  12.862
71056SOL     OW15064   8.231   9.949  14.099
71056SOL    HW115065   8.188  10.011  14.158
71056SOL    HW215066   8.183   9.867  14.109
71057SOL     OW15067  14.121  13.770   6.958
71057SOL    HW115068  14.043  13.766   6.901
71057SOL    HW215069  14.174  13.695   6.930
71058SOL     OW15070   3.394   3.156   0.945
71058SOL    HW115071   3.368   3.084   1.002
71058SOL    HW215072   3.396   3.233   1.002
71059SOL     OW15073  13.190   9.155   1.792
71059SOL    HW115074  13.243   9.234   1.787
71059SOL    HW215075  13.252   9.083   1.778
71060SOL     OW15076  11.063   3.602   4.088
71060SOL    HW115077  11.020   3.675   4.042
71060SOL    HW215078  11.011   3.525   4.064
71061SOL     OW15079  12.026   8.121   3.353
71061SOL    HW115080  11.953   8.145   3.296
71061SOL    HW215081  12.098   8.178   3.325
71062SOL     OW15082   2.676   1.160   4.238
71062SOL    HW115083   2.764   1.124   4.249
71062SOL    HW215084   2.690   1.255   4.237
71063SOL     OW15085   8.450   4.272  12.107
71063SOL    HW115086   8.452   4.275  12.203
71063SOL    HW215087   8.393   4.345  12.082
71064SOL     OW15088   2.397   1.901   1.021
71064SOL    HW115089   2.424   1.958   0.949
71064SOL    HW215090   2.312   1.867   0.994
71065SOL     OW15091  14.231   6.193  10.507
71065SOL    HW115092  14.225   6.250  10.583
71065SOL    HW215093  14.168   6.228  10.445
71066SOL     OW15094  13.413   1.654   2.685
71066SOL    HW115095  13.409   1.749   2.701
71066SOL    HW215096  13.497   1.641   2.640
71067SOL     OW15097  10.223  10.417   1.693
71067SOL    HW115098  10.270  10.337   1.716
71067SOL    HW215099  10.159  10.389   1.626
71068SOL     OW15100   1.421  13.296   3.506
71068SOL    HW115101   1.365  13.357   3.554
71068SOL    HW215102   1.509  13.334   3.511
71069SOL     OW15103   3.542   9.953   6.378
71069SOL    HW115104   3.567   9.863   6.358
71069SOL    HW215105   3.555  10.000   6.295
71070SOL     OW15106  12.191  10.519   9.756
71070SOL    HW115107  12.267  10.483   9.802
71070SOL    HW215108  12.192  10.478   9.670
71071SOL     OW15109   3.211  10.414  10.100
71071SOL    HW115110   3.198  10.380  10.011
71071SOL    HW215111   3.202  10.338  10.157
71072SOL     OW15112   6.109   3.984   3.322
71072SOL    HW115113   6.060   4.065   3.312
71072SOL    HW215114   6.153   3.971   3.238
71073SOL     OW15115   4.265  12.347   4.436
71073SOL    HW115116   4.192  12.377   4.490
71073SOL    HW215117   4.259  12.400   4.356
71074SOL     OW15118  14.380   6.209   6.960
71074SOL    HW115119  14.410   6.123   6.989
71074SOL    HW215120  14.424   6.271   7.019
71075SOL     OW15121   6.871   8.487   1.683
71075SOL    HW115122   6.830   8.548   1.621
71075SOL    HW215123   6.806   8.477   1.753
71076SOL     OW15124  12.098   5.978  14.328
71076SOL    HW115125  12.025   6.024  14.370
71076SOL    HW215126  12.161   5.964  14.397
71077SOL     OW15127   1.217   4.269   5.937
71077SOL    HW115128   1.191   4.351   5.978
71077SOL    HW215129   1.213   4.204   6.008
71078SOL     OW15130   9.672   9.575  12.121
71078SOL    HW115131   9.602   9.615  12.070
71078SOL    HW215132   9.666   9.616  12.208
71079SOL     OW15133  14.618  10.902  10.744
71079SOL    HW115134  14.609  10.836  10.675
71079SOL    HW215135  14.545  10.885  10.803
71080SOL     OW15136   1.939  11.252  11.918
71080SOL    HW115137   1.952  11.303  11.838
71080SOL    HW215138   1.844  11.245  11.927
71081SOL     OW15139  12.883   8.139  12.763
71081SOL    HW115140  12.850   8.098  12.683
71081SOL    HW215141  12.869   8.073  12.831
71082SOL     OW15142  14.854   3.923   5.924
71082SOL    HW115143   0.028   4.000   5.937
71082SOL    HW215144  14.817   3.936   5.837
71083SOL     OW15145  10.224  14.542   5.748
71083SOL    HW115146  10.186  14.627   5.768
71083SOL    HW215147  10.169  14.479   5.795
71084SOL     OW15148  10.483  14.280  10.674
71084SOL    HW115149  10.428  14.305  10.600
71084SOL    HW215150  10.569  14.317  10.655
71085SOL     OW15151   8.684   7.808  13.547
71085SOL    HW115152   8.603   7.812  13.497
71085SOL    HW215153   8.656   7.781  13.635
71086SOL     OW15154   4.032  11.011   4.054
71086SOL    HW115155   4.027  10.954   3.977
71086SOL    HW215156   4.100  11.075   4.032
71087SOL     OW15157  10.846   1.928  10.253
71087SOL    HW115158  10.905   1.997  10.220
71087SOL    HW215159  10.858   1.931  10.348
71088SOL     OW15160   6.776  12.446   3.486
71088SOL    HW115161   6.718  12.474   3.557
71088SOL    HW215162   6.843  12.513   3.481
71089SOL     OW15163   0.301  13.887  13.034
71089SOL    HW115164   0.293  13.941  12.955
71089SOL    HW215165   0.307  13.950  13.105
71090SOL     OW15166   6.480  13.149   8.053
71090SOL    HW115167   6.485  13.153   8.148
71090SOL    HW215168   6.506  13.237   8.024
71091SOL     OW15169   6.407  11.070  10.761
71091SOL    HW115170   6.366  11.148  10.722
71091SOL    HW215171   6.367  11.062  10.847
71092SOL     OW15172   2.378  12.157   8.773
71092SOL    HW115173   2.447  12.181   8.711
71092SOL    HW215174   2.365  12.063   8.759
71093SOL     OW15175  12.220   1.627   7.147
71093SOL    HW115176  12.295   1.666   7.191
71093SOL    HW215177  12.222   1.535   7.173
71094SOL     OW15178   6.100   9.405   0.971
71094SOL    HW115179   6.103   9.460   1.050
71094SOL    HW215180   6.181   9.354   0.975
71095SOL     OW15181  12.788   6.134  13.556
71095SOL    HW115182  12.781   6.039  13.544
71095SOL    HW215183  12.699   6.163  13.573
71096SOL     OW15184  13.070   7.262  12.896
71096SOL    HW115185  13.011   7.336  12.908
71096SOL    HW215186  13.054   7.206  12.972
71097SOL     OW15187   2.340   1.255  12.758
71097SOL    HW115188   2.337   1.349  12.740
71097SOL    HW215189   2.277   1.242  12.829
71098SOL     OW15190   5.667   6.144  12.659
71098SOL    HW115191   5.610   6.173  12.587
71098SOL    HW215192   5.607   6.123  12.731
71099SOL     OW15193  11.159   7.131   8.483
71099SOL    HW115194  11.150   7.190   8.408
71099SOL    HW215195  11.169   7.190   8.558
71100SOL     OW15196   4.470   6.788   4.119
71100SOL    HW115197   4.448   6.712   4.172
71100SOL    HW215198   4.541   6.831   4.167
71101SOL     OW15199  10.220   3.014   2.527
71101SOL    HW115200  10.314   3.025   2.518
71101SOL    HW215201  10.192   3.087   2.582
71102SOL     OW15202   1.549   3.628  10.110
71102SOL    HW115203   1.565   3.572  10.186
71102SOL    HW215204   1.465   3.598  10.076
71103SOL     OW15205   2.544  12.863  11.409
71103SOL    HW115206   2.493  12.942  11.429
71103SOL    HW215207   2.629  12.897  11.379
71104SOL     OW15208   3.313  11.601  11.361
71104SOL    HW115209   3.296  11.573  11.450
71104SOL    HW215210   3.406  11.582  11.347
71105SOL     OW15211  10.842  14.493   3.774
71105SOL    HW115212  10.774  14.555   3.745
71105SOL    HW215213  10.801  14.407   3.763
71106SOL     OW15214   1.874   4.277  10.332
71106SOL    HW115215   1.818   4.261  10.256
71106SOL    HW215216   1.848   4.211  10.396
71107SOL     OW15217  10.518  10.846  14.649
71107SOL    HW115218  10.424  10.862  14.636
71107SOL    HW215219  10.548  10.813  14.565
71108SOL     OW15220   2.945   7.492   6.783
71108SOL    HW115221   2.881   7.426   6.756
71108SOL    HW215222   2.949   7.553   6.710
71109SOL     OW15223   0.647  10.823   3.898
71109SOL    HW115224   0.586  10.767   3.851
71109SOL    HW215225   0.730  10.776   3.896
71110SOL     OW15226   5.780  13.552   5.704
71110SOL    HW115227   5.853  13.526   5.647
71110SOL    HW215228   5.760  13.642   5.679
71111SOL     OW15229  10.663  12.123   0.640
71111SOL    HW115230  10.607  12.047   0.657
71111SOL    HW215231  10.691  12.112   0.549
71112SOL     OW15232   8.632   3.375   8.127
71112SOL    HW115233   8.632   3.470   8.128
71112SOL    HW215234   8.609   3.349   8.216
71113SOL     OW15235  12.459   0.412   6.656
71113SOL    HW115236  12.458   0.504   6.628
71113SOL    HW215237  12.548   0.397   6.687
71114SOL     OW15238   8.303   1.061   6.123
71114SOL    HW115239   8.352   1.040   6.044
71114SOL    HW215240   8.214   1.030   6.105
71115SOL     OW15241   5.268  11.238   3.231
71115SOL    HW115242   5.323  11.172   3.190
71115SOL    HW215243   5.223  11.280   3.157
71116SOL     OW15244  12.339  12.742  10.308
71116SOL    HW115245  12.269  12.720  10.370
71116SOL    HW215246  12.420  12.715  10.353
71117SOL     OW15247   8.222   6.121   2.289
71117SOL    HW115248   8.172   6.064   2.230
71117SOL    HW215249   8.244   6.197   2.235
71118SOL     OW15250   4.360   8.208   9.352
71118SOL    HW115251   4.270   8.236   9.337
71118SOL    HW215252   4.368   8.204   9.448
71119SOL     OW15253   8.514   3.210   5.361
71119SOL    HW115254   8.495   3.150   5.433
71119SOL    HW215255   8.479   3.167   5.284
71120SOL     OW15256   9.517   6.050   8.672
71120SOL    HW115257   9.467   5.968   8.671
71120SOL    HW215258   9.494   6.093   8.589
71121SOL     OW15259   3.981  13.509   0.846
71121SOL    HW115260   3.939  13.549   0.921
71121SOL    HW215261   4.075  13.520   0.863
71122SOL     OW15262   1.875  11.993   8.481
71122SOL    HW115263   1.934  12.063   8.510
71122SOL    HW215264   1.788  12.032   8.487
71123SOL     OW15265   5.674   7.726  11.001
71123SOL    HW115266   5.760   7.711  11.041
71123SOL    HW215267   5.627   7.780  11.065
71124SOL     OW15268  12.652   4.536  12.796
71124SOL    HW115269  12.685   4.496  12.877
71124SOL    HW215270  12.730   4.564  12.749
71125SOL     OW15271   1.196  14.474  10.168
71125SOL    HW115272   1.219  14.382  10.181
71125SOL    HW215273   1.200  14.487  10.073
71126SOL     OW15274   0.754   8.573   3.124
71126SOL    HW115275   0.699   8.515   3.177
71126SOL    HW215276   0.763   8.528   3.040
71127SOL     OW15277   3.828  10.911  13.873
71127SOL    HW115278   3.872  10.935  13.954
71127SOL    HW215279   3.874  10.832  13.844
71128SOL     OW15280   4.105   0.993   9.578
71128SOL    HW115281   4.183   1.013   9.630
71128SOL    HW215282   4.098   0.898   9.580
71129SOL     OW15283   3.885  11.215   1.712
71129SOL    HW115284   3.903  11.124   1.688
71129SOL    HW215285   3.799  11.212   1.752
71130SOL     OW15286   5.985   6.987   2.257
71130SOL    HW115287   6.038   7.062   2.231
71130SOL    HW215288   6.032   6.949   2.332
71131SOL     OW15289   9.480   2.437  10.334
71131SOL    HW115290   9.419   2.441  10.260
71131SOL    HW215291   9.476   2.524  10.373
71132SOL     OW15292   2.454   9.815  11.682
71132SOL    HW115293   2.394   9.887  11.701
71132SOL    HW215294   2.500   9.801  11.764
71133SOL     OW15295   7.677   1.649  11.436
71133SOL    HW115296   7.764   1.661  11.473
71133SOL    HW215297   7.655   1.558  11.455
71134SOL     OW15298  10.847   5.206   8.368
71134SOL    HW115299  10.881   5.292   8.391
71134SOL    HW215300  10.870   5.150   8.442
71135SOL     OW15301   2.277   7.349  14.455
71135SOL    HW115302   2.342   7.349  14.525
71135SOL    HW215303   2.316   7.404  14.387
71136SOL     OW15304   2.508  14.729   9.604
71136SOL    HW115305   2.564  14.673   9.658
71136SOL    HW215306   2.535  14.710   9.514
71137SOL     OW15307   9.665  13.552  14.874
71137SOL    HW115308   9.638  13.530   0.081
71137SOL    HW215309   9.760  13.561  14.879
71138SOL     OW15310   4.242  14.731  13.536
71138SOL    HW115311   4.327  14.756  13.572
71138SOL    HW215312   4.262  14.663  13.472
71139SOL     OW15313   1.940   9.222   2.601
71139SOL    HW115314   1.919   9.146   2.548
71139SOL    HW215315   1.864   9.234   2.658
71140SOL     OW15316   4.938  13.753  13.202
71140SOL    HW115317   5.004  13.784  13.263
71140SOL    HW215318   4.957  13.800  13.120
71141SOL     OW15319   3.063   7.496   8.501
71141SOL    HW115320   3.025   7.486   8.588
71141SOL    HW215321   3.013   7.438   8.445
71142SOL     OW15322   3.206   3.939   2.742
71142SOL    HW115323   3.185   3.987   2.823
71142SOL    HW215324   3.192   4.003   2.672
71143SOL     OW15325  12.731   7.538  11.892
71143SOL    HW115326  12.716   7.546  11.986
71143SOL    HW215327  12.645   7.514  11.856
71144SOL     OW15328  12.299   9.573  13.998
71144SOL    HW115329  12.215   9.610  13.971
71144SOL    HW215330  12.279   9.523  14.077
71145SOL     OW15331   5.709   1.623  12.291
71145SOL    HW115332   5.713   1.528  12.306
71145SOL    HW215333   5.616   1.645  12.301
71146SOL     OW15334   8.476   2.018  14.465
71146SOL    HW115335   8.410   1.989  14.528
71146SOL    HW215336   8.426   2.060  14.395
71147SOL     OW15337   8.142  10.900   0.312
71147SOL    HW115338   8.170  10.959   0.242
71147SOL    HW215339   8.182  10.816   0.289
71148SOL     OW15340   8.998  10.728   3.052
71148SOL    HW115341   9.007  10.682   3.136
71148SOL    HW215342   9.077  10.707   3.004
71149SOL     OW15343   5.716   1.841  11.356
71149SOL    HW115344   5.669   1.819  11.436
71149SOL    HW215345   5.732   1.935  11.362
71150SOL     OW15346  14.668  11.029   6.675
71150SOL    HW115347  14.670  11.084   6.596
71150SOL    HW215348  14.700  11.086   6.745
71151SOL     OW15349   3.591   3.306   7.270
71151SOL    HW115350   3.632   3.250   7.204
71151SOL    HW215351   3.657   3.372   7.289
71152SOL     OW15352  12.761   3.041   8.007
71152SOL    HW115353  12.691   3.072   7.948
71152SOL    HW215354  12.763   3.105   8.078
71153SOL     OW15355   0.503   1.330   6.655
71153SOL    HW115356   0.459   1.410   6.624
71153SOL    HW215357   0.432   1.268   6.671
71154SOL     OW15358   8.308   5.672  10.904
71154SOL    HW115359   8.216   5.699  10.896
71154SOL    HW215360   8.351   5.747  10.945
71155SOL     OW15361  13.361   2.260  14.308
71155SOL    HW115362  13.349   2.208  14.228
71155SOL    HW215363  13.294   2.328  14.303
71156SOL     OW15364   4.964   9.294   7.893
71156SOL    HW115365   4.880   9.340   7.888
71156SOL    HW215366   4.950   9.214   7.843
71157SOL     OW15367   5.817   2.044  12.726
71157SOL    HW115368   5.847   1.999  12.647
71157SOL    HW215369   5.723   2.032  12.727
71158SOL     OW15370  12.257  10.715  14.199
71158SOL    HW115371  12.227  10.629  14.170
71158SOL    HW215372  12.252  10.769  14.120
71159SOL     OW15373   2.932   0.610  10.605
71159SOL    HW115374   2.965   0.524  10.578
71159SOL    HW215375   2.845   0.615  10.565
71160SOL     OW15376   8.942  11.182  11.211
71160SOL    HW115377   8.861  11.152  11.169
71160SOL    HW215378   8.943  11.137  11.295
71161SOL     OW15379   5.480   1.521   1.172
71161SOL    HW115380   5.392   1.556   1.159
71161SOL    HW215381   5.535   1.597   1.188
71162SOL     OW15382  12.853   0.095   3.091
71162SOL    HW115383  12.846   0.018   3.035
71162SOL    HW215384  12.920   0.073   3.155
71163SOL     OW15385   9.790   5.383   3.729
71163SOL    HW115386   9.714   5.355   3.678
71163SOL    HW215387   9.861   5.388   3.664
71164SOL     OW15388  12.801   2.751   5.542
71164SOL    HW115389  12.798   2.714   5.454
71164SOL    HW215390  12.873   2.706   5.585
71165SOL     OW15391  13.587  11.924  10.171
71165SOL    HW115392  13.598  11.898  10.080
71165SOL    HW215393  13.669  11.968  10.194
71166SOL     OW15394   3.674   7.527   0.975
71166SOL    HW115395   3.627   7.450   1.007
71166SOL    HW215396   3.766   7.509   0.995
71167SOL     OW15397   5.280   9.945   4.804
71167SOL    HW115398   5.359   9.934   4.857
71167SOL    HW215399   5.304   9.908   4.719
71168SOL     OW15400   2.205  11.416   4.277
71168SOL    HW115401   2.287  11.422   4.325
71168SOL    HW215402   2.217  11.341   4.219
71169SOL     OW15403   3.140   1.776   2.643
71169SOL    HW115404   3.149   1.774   2.738
71169SOL    HW215405   3.094   1.695   2.621
71170SOL     OW15406  14.682  12.444   7.650
71170SOL    HW115407  14.613  12.506   7.671
71170SOL    HW215408  14.763  12.486   7.679
71171SOL     OW15409   0.432   5.989   1.133
71171SOL    HW115410   0.414   5.945   1.216
71171SOL    HW215411   0.358   6.047   1.119
71172SOL     OW15412   4.215   4.243  12.701
71172SOL    HW115413   4.245   4.174  12.642
71172SOL    HW215414   4.281   4.311  12.695
71173SOL     OW15415   7.438  11.085   1.136
71173SOL    HW115416   7.531  11.065   1.142
71173SOL    HW215417   7.426  11.119   1.048
71174SOL     OW15418   8.325  10.667   9.683
71174SOL    HW115419   8.262  10.699   9.747
71174SOL    HW215420   8.324  10.733   9.613
71175SOL     OW15421   0.570   5.244   4.855
71175SOL    HW115422   0.488   5.241   4.805
71175SOL    HW215423   0.555   5.313   4.920
71176SOL     OW15424   0.081   9.428   5.380
71176SOL    HW115425   0.143   9.418   5.308
71176SOL    HW215426   0.038   9.343   5.387
71177SOL     OW15427  10.746  12.356  14.674
71177SOL    HW115428  10.668  12.394  14.715
71177SOL    HW215429  10.796  12.431  14.642
71178SOL     OW15430  10.554  13.171   4.025
71178SOL    HW115431  10.635  13.222   4.032
71178SOL    HW215432  10.546  13.150   3.932
71179SOL     OW15433  12.158  14.305   8.443
71179SOL    HW115434  12.122  14.312   8.531
71179SOL    HW215435  12.234  14.363   8.443
71180SOL     OW15436   9.316  13.197   9.191
71180SOL    HW115437   9.387  13.254   9.219
71180SOL    HW215438   9.307  13.213   9.098
71181SOL     OW15439   2.029   1.808   8.128
71181SOL    HW115440   2.029   1.897   8.093
71181SOL    HW215441   2.121   1.783   8.130
71182SOL     OW15442  10.265   5.496   8.975
71182SOL    HW115443  10.189   5.443   8.948
71182SOL    HW215444  10.338   5.434   8.977
71183SOL     OW15445  11.591   1.810   9.793
71183SOL    HW115446  11.541   1.754   9.851
71183SOL    HW215447  11.636   1.871   9.852
71184SOL     OW15448   5.954   0.804   0.076
71184SOL    HW115449   6.015   0.757   0.019
71184SOL    HW215450   5.889   0.840   0.016
71185SOL     OW15451   9.671   3.787   6.113
71185SOL    HW115452   9.713   3.794   6.028
71185SOL    HW215453   9.734   3.737   6.166
71186SOL     OW15454   8.081  14.257   5.883
71186SOL    HW115455   8.134  14.267   5.804
71186SOL    HW215456   8.092  14.166   5.908
71187SOL     OW15457   7.399   8.034   7.627
71187SOL    HW115458   7.404   8.114   7.575
71187SOL    HW215459   7.426   7.964   7.567
71188SOL     OW15460   5.902   1.932  13.531
71188SOL    HW115461   5.826   1.938  13.589
71188SOL    HW215462   5.875   1.978  13.451
71189SOL     OW15463   7.944  14.102  14.407
71189SOL    HW115464   7.995  14.108  14.488
71189SOL    HW215465   7.866  14.053  14.431
71190SOL     OW15466   6.426  10.984   2.639
71190SOL    HW115467   6.435  11.018   2.728
71190SOL    HW215468   6.508  11.005   2.596
71191SOL     OW15469   2.640   7.610  13.882
71191SOL    HW115470   2.545   7.598  13.890
71191SOL    HW215471   2.654   7.703  13.897
71192SOL     OW15472  10.375  10.745  11.401
71192SOL    HW115473  10.316  10.670  11.396
71192SOL    HW215474  10.449  10.713  11.453
71193SOL     OW15475   2.085   9.388   2.188
71193SOL    HW115476   2.031   9.379   2.267
71193SOL    HW215477   2.064   9.310   2.136
71194SOL     OW15478  14.701   2.956   7.884
71194SOL    HW115479  14.719   2.908   7.804
71194SOL    HW215480  14.734   2.900   7.954
71195SOL     OW15481  12.604   2.742  14.697
71195SOL    HW115482  12.672   2.739  14.764
71195SOL    HW215483  12.528   2.700  14.736
71196SOL     OW15484   7.389  12.561   1.791
71196SOL    HW115485   7.336  12.482   1.782
71196SOL    HW215486   7.476  12.535   1.758
71197SOL     OW15487  12.524   1.167   8.034
71197SOL    HW115488  12.496   1.226   8.104
71197SOL    HW215489  12.455   1.101   8.029
71198SOL     OW15490   7.295   7.774  10.795
71198SOL    HW115491   7.369   7.769  10.734
71198SOL    HW215492   7.228   7.717  10.757
71199SOL     OW15493  14.254   3.973   5.790
71199SOL    HW115494  14.336   3.988   5.837
71199SOL    HW215495  14.226   3.886   5.818
71200SOL     OW15496  12.040  13.175   0.297
71200SOL    HW115497  12.114  13.196   0.239
71200SOL    HW215498  12.073  13.192   0.385
71201SOL     OW15499  12.165   9.373   5.415
71201SOL    HW115500  12.251   9.380   5.456
71201SOL    HW215501  12.114   9.444   5.456
71202SOL     OW15502   9.856  11.596  10.550
71202SOL    HW115503   9.846  11.532  10.620
71202SOL    HW215504   9.776  11.587  10.498
71203SOL     OW15505   3.774   0.723  13.578
71203SOL    HW115506   3.717   0.652  13.606
71203SOL    HW215507   3.742   0.747  13.491
71204SOL     OW15508   8.281  11.074  11.772
71204SOL    HW115509   8.332  11.129  11.713
71204SOL    HW215510   8.302  10.984  11.745
71205SOL     OW15511   9.362  14.205  12.313
71205SOL    HW115512   9.357  14.112  12.335
71205SOL    HW215513   9.272  14.236  12.318
71206SOL     OW15514   7.751   9.231   4.348
71206SOL    HW115515   7.708   9.262   4.269
71206SOL    HW215516   7.757   9.308   4.404
71207SOL     OW15517  14.214   3.733  11.128
71207SOL    HW115518  14.241   3.643  11.114
71207SOL    HW215519  14.176   3.734  11.216
71208SOL     OW15520   2.901   9.453   6.497
71208SOL    HW115521   2.977   9.435   6.441
71208SOL    HW215522   2.928   9.529   6.549
71209SOL     OW15523   4.166   0.766  11.349
71209SOL    HW115524   4.156   0.696  11.285
71209SOL    HW215525   4.258   0.790  11.345
71210SOL     OW15526  10.363  12.738   7.577
71210SOL    HW115527  10.278  12.765   7.545
71210SOL    HW215528  10.405  12.694   7.503
71211SOL     OW15529   8.459  10.320  14.175
71211SOL    HW115530   8.524  10.385  14.146
71211SOL    HW215531   8.377  10.348  14.134
71212SOL     OW15532  11.963   2.959  14.109
71212SOL    HW115533  12.021   3.021  14.064
71212SOL    HW215534  11.900   2.933  14.042
71213SOL     OW15535   6.879   9.043   6.772
71213SOL    HW115536   6.953   9.104   6.774
71213SOL    HW215537   6.821   9.074   6.842
71214SOL     OW15538   8.286  13.029   6.030
71214SOL    HW115539   8.224  13.076   6.085
71214SOL    HW215540   8.267  12.937   6.046
71215SOL     OW15541  10.917  14.558   4.476
71215SOL    HW115542  10.883  14.569   4.564
71215SOL    HW215543  10.993  14.615   4.472
71216SOL     OW15544   2.035   9.682  11.079
71216SOL    HW115545   1.943   9.676  11.056
71216SOL    HW215546   2.069   9.593  11.068
71217SOL     OW15547   9.714   1.372  13.284
71217SOL    HW115548   9.620   1.355  13.285
71217SOL    HW215549   9.755   1.290  13.311
71218SOL     OW15550   6.681   8.776   2.356
71218SOL    HW115551   6.749   8.796   2.421
71218SOL    HW215552   6.620   8.720   2.402
71219SOL     OW15553  10.638   3.620  13.490
71219SOL    HW115554  10.571   3.665  13.541
71219SOL    HW215555  10.702   3.590  13.554
71220SOL     OW15556   7.394   0.852   4.962
71220SOL    HW115557   7.455   0.910   4.916
71220SOL    HW215558   7.331   0.826   4.895
71221SOL     OW15559   0.889   0.406   8.401
71221SOL    HW115560   0.886   0.321   8.357
71221SOL    HW215561   0.836   0.394   8.480
71222SOL     OW15562  13.157  12.231  12.017
71222SOL    HW115563  13.247  12.220  11.985
71222SOL    HW215564  13.165  12.226  12.112
71223SOL     OW15565   5.404   2.603   2.314
71223SOL    HW115566   5.489   2.566   2.288
71223SOL    HW215567   5.342   2.530   2.301
71224SOL     OW15568  10.027   1.202  10.278
71224SOL    HW115569  10.023   1.297  10.291
71224SOL    HW215570   9.985   1.187  10.194
71225SOL     OW15571  14.447  14.287   2.909
71225SOL    HW115572  14.422  14.316   2.997
71225SOL    HW215573  14.542  14.272   2.915
71226SOL     OW15574   9.826   3.408   9.470
71226SOL    HW115575   9.911   3.450   9.485
71226SOL    HW215576   9.844   3.315   9.480
71227SOL     OW15577   1.270   1.612   4.248
71227SOL    HW115578   1.270   1.590   4.155
71227SOL    HW215579   1.212   1.547   4.288
71228SOL     OW15580   6.150   3.188  11.154
71228SOL    HW115581   6.164   3.103  11.196
71228SOL    HW215582   6.143   3.169  11.061
71229SOL     OW15583   0.286   4.562  10.156
71229SOL    HW115584   0.342   4.634  10.128
71229SOL    HW215585   0.289   4.564  10.251
71230SOL     OW15586   2.034   8.559  10.367
71230SOL    HW115587   2.012   8.475  10.406
71230SOL    HW215588   2.037   8.542  10.273
71231SOL     OW15589   8.109  14.438   1.674
71231SOL    HW115590   8.122  14.463   1.582
71231SOL    HW215591   8.025  14.476   1.698
71232SOL     OW15592   3.950  11.505   4.024
71232SOL    HW115593   3.918  11.576   4.081
71232SOL    HW215594   3.881  11.438   4.030
71233SOL     OW15595   5.610   5.060   9.510
71233SOL    HW115596   5.523   5.050   9.473
71233SOL    HW215597   5.646   5.138   9.468
71234SOL     OW15598   8.936   8.372   1.841
71234SOL    HW115599   8.863   8.330   1.888
71234SOL    HW215600   8.903   8.459   1.818
71235SOL     OW15601   0.125   5.572   2.663
71235SOL    HW115602   0.156   5.650   2.708
71235SOL    HW215603   0.035   5.593   2.636
71236SOL     OW15604   4.655   4.123   1.388
71236SOL    HW115605   4.738   4.120   1.435
71236SOL    HW215606   4.661   4.199   1.331
71237SOL     OW15607   5.551  13.940   8.267
71237SOL    HW115608   5.612  13.899   8.206
71237SOL    HW215609   5.469  13.893   8.253
71238SOL     OW15610   6.793  12.297  13.970
71238SOL    HW115611   6.838  12.297  13.885
71238SOL    HW215612   6.845  12.355  14.025
71239SOL     OW15613   4.950  12.165   5.081
71239SOL    HW115614   4.855  12.171   5.075
71239SOL    HW215615   4.969  12.165   5.174
71240SOL     OW15616  11.817   7.944   1.986
71240SOL    HW115617  11.862   7.862   1.963
71240SOL    HW215618  11.825   7.949   2.081
71241SOL     OW15619   5.546  14.811   5.280
71241SOL    HW115620   5.477  14.751   5.251
71241SOL    HW215621   5.594  14.832   5.200
71242SOL     OW15622   4.128   8.308  12.391
71242SOL    HW115623   4.106   8.217  12.410
71242SOL    HW215624   4.046   8.347  12.359
71243SOL     OW15625   2.574   7.946   0.764
71243SOL    HW115626   2.490   7.951   0.718
71243SOL    HW215627   2.561   7.996   0.844
71244SOL     OW15628   6.578   7.042   0.833
71244SOL    HW115629   6.609   6.957   0.803
71244SOL    HW215630   6.529   7.023   0.913
71245SOL     OW15631  11.938   4.358   6.088
71245SOL    HW115632  11.951   4.322   6.000
71245SOL    HW215633  12.024   4.350   6.130
71246SOL     OW15634   3.599   2.662   8.830
71246SOL    HW115635   3.532   2.600   8.803
71246SOL    HW215636   3.555   2.747   8.828
71247SOL     OW15637   6.938  10.135   1.930
71247SOL    HW115638   6.926  10.085   1.850
71247SOL    HW215639   6.851  10.140   1.969
71248SOL     OW15640  11.880   0.606   4.186
71248SOL    HW115641  11.816   0.575   4.122
71248SOL    HW215642  11.964   0.596   4.141
71249SOL     OW15643  10.759   1.220   3.020
71249SOL    HW115644  10.812   1.298   3.000
71249SOL    HW215645  10.769   1.208   3.114
71250SOL     OW15646  14.395  11.509  13.166
71250SOL    HW115647  14.393  11.545  13.255
71250SOL    HW215648  14.326  11.443  13.166
71251SOL     OW15649  10.223  13.716   7.989
71251SOL    HW115650  10.310  13.753   7.978
71251SOL    HW215651  10.180  13.729   7.904
71252SOL     OW15652   4.254   1.667  11.857
71252SOL    HW115653   4.180   1.680  11.916
71252SOL    HW215654   4.252   1.743  11.799
71253SOL     OW15655   2.074   9.045  10.407
71253SOL    HW115656   2.136   9.040  10.480
71253SOL    HW215657   2.091   9.130  10.367
71254SOL     OW15658   9.990   3.947  10.535
71254SOL    HW115659   9.997   4.022  10.476
71254SOL    HW215660  10.060   3.888  10.509
71255SOL     OW15661   4.492   6.291   9.708
71255SOL    HW115662   4.459   6.205   9.734
71255SOL    HW215663   4.572   6.303   9.759
71256SOL     OW15664   5.747   6.006   8.377
71256SOL    HW115665   5.661   6.023   8.339
71256SOL    HW215666   5.789   5.945   8.316
71257SOL     OW15667  11.261   6.726   2.854
71257SOL    HW115668  11.305   6.772   2.925
71257SOL    HW215669  11.256   6.635   2.883
71258SOL     OW15670   4.737   4.466   2.829
71258SOL    HW115671   4.773   4.391   2.782
71258SOL    HW215672   4.813   4.522   2.848
71259SOL     OW15673   5.239   3.199   9.640
71259SOL    HW115674   5.320   3.198   9.691
71259SOL    HW215675   5.205   3.288   9.650
71260SOL     OW15676   5.443   5.075   2.654
71260SOL    HW115677   5.465   4.985   2.678
71260SOL    HW215678   5.431   5.072   2.559
71261SOL     OW15679   6.711   9.215   1.230
71261SOL    HW115680   6.750   9.297   1.262
71261SOL    HW215681   6.769   9.187   1.159
71262SOL     OW15682   8.137   9.499   8.979
71262SOL    HW115683   8.178   9.426   9.025
71262SOL    HW215684   8.138   9.571   9.042
71263SOL     OW15685  11.865   3.794   7.432
71263SOL    HW115686  11.891   3.861   7.369
71263SOL    HW215687  11.946   3.746   7.451
71264SOL     OW15688   5.205   3.932   5.161
71264SOL    HW115689   5.119   3.896   5.139
71264SOL    HW215690   5.221   3.997   5.092
71265SOL     OW15691  10.813  13.785   6.990
71265SOL    HW115692  10.770  13.813   7.071
71265SOL    HW215693  10.839  13.866   6.947
71266SOL     OW15694   5.814  12.566   2.874
71266SOL    HW115695   5.876  12.622   2.920
71266SOL    HW215696   5.856  12.548   2.790
71267SOL     OW15697  11.429  14.862  11.707
71267SOL    HW115698  11.356   0.038  11.683
71267SOL    HW215699  11.495  14.878  11.640
71268SOL     OW15700  11.271   0.228  11.590
71268SOL    HW115701  11.252   0.307  11.539
71268SOL    HW215702  11.339   0.256  11.652
71269SOL     OW15703   3.076   9.797  11.344
71269SOL    HW115704   3.112   9.739  11.412
71269SOL    HW215705   3.095   9.752  11.262
71270SOL     OW15706   8.939   0.598   7.565
71270SOL    HW115707   8.880   0.570   7.494
71270SOL    HW215708   8.895   0.570   7.645
71271SOL     OW15709   9.602  10.557  11.804
71271SOL    HW115710   9.622  10.489  11.740
71271SOL    HW215711   9.556  10.625  11.754
71272SOL     OW15712   9.926   4.496   4.260
71272SOL    HW115713   9.937   4.538   4.345
71272SOL    HW215714   9.994   4.536   4.205
71273SOL     OW15715  11.479   1.786   5.370
71273SOL    HW115716  11.486   1.764   5.277
71273SOL    HW215717  11.451   1.878   5.370
71274SOL     OW15718   2.938   8.044   9.009
71274SOL    HW115719   2.998   8.080   8.943
71274SOL    HW215720   2.929   8.113   9.075
71275SOL     OW15721   8.990  14.299   7.008
71275SOL    HW115722   9.081  14.324   6.994
71275SOL    HW215723   8.981  14.292   7.103
71276SOL     OW15724   6.263   1.692  11.993
71276SOL    HW115725   6.308   1.774  11.972
71276SOL    HW215726   6.261   1.644  11.910
71277SOL     OW15727   0.183   1.145   3.844
71277SOL    HW115728   0.203   1.238   3.832
71277SOL    HW215729   0.105   1.131   3.790
71278SOL     OW15730   6.089   8.550   7.378
71278SOL    HW115731   6.014   8.513   7.423
71278SOL    HW215732   6.073   8.645   7.377
71279SOL     OW15733  13.221  10.526  14.218
71279SOL    HW115734  13.134  10.507  14.254
71279SOL    HW215735  13.272  10.558  14.293
71280SOL     OW15736   5.128  11.631   6.683
71280SOL    HW115737   5.126  11.597   6.594
71280SOL    HW215738   5.099  11.722   6.674
71281SOL     OW15739   4.051   1.243  10.625
71281SOL    HW115740   4.072   1.334  10.644
71281SOL    HW215741   4.027   1.243  10.532
71282SOL     OW15742  11.629  13.137  10.605
71282SOL    HW115743  11.591  13.224  10.592
71282SOL    HW215744  11.657  13.110  10.517
71283SOL     OW15745  14.366  10.344   2.527
71283SOL    HW115746  14.293  10.319   2.472
71283SOL    HW215747  14.326  10.380   2.606
71284SOL     OW15748  13.809   8.401  13.571
71284SOL    HW115749  13.746   8.328  13.576
71284SOL    HW215750  13.858   8.385  13.491
71285SOL     OW15751   9.211   5.948  13.150
71285SOL    HW115752   9.287   6.002  13.130
71285SOL    HW215753   9.245   5.859  13.156
71286SOL     OW15754  12.723   4.532  14.120
71286SOL    HW115755  12.740   4.624  14.104
71286SOL    HW215756  12.648   4.511  14.063
71287SOL     OW15757  14.432   6.742   5.141
71287SOL    HW115758  14.416   6.659   5.096
71287SOL    HW215759  14.422   6.808   5.073
71288SOL     OW15760  11.417   3.892  13.380
71288SOL    HW115761  11.373   3.859  13.302
71288SOL    HW215762  11.472   3.819  13.409
71289SOL     OW15763  10.632   1.276  11.094
71289SOL    HW115764  10.624   1.281  11.190
71289SOL    HW215765  10.679   1.356  11.070
71290SOL     OW15766  11.689  13.366  11.844
71290SOL    HW115767  11.745  13.382  11.920
71290SOL    HW215768  11.746  13.376  11.768
71291SOL     OW15769  14.503  11.287  13.419
71291SOL    HW115770  14.525  11.340  13.496
71291SOL    HW215771  14.428  11.331  13.380
71292SOL     OW15772  11.870  11.800   2.082
71292SOL    HW115773  11.877  11.739   2.155
71292SOL    HW215774  11.776  11.818   2.075
71293SOL     OW15775  12.637   2.090   5.668
71293SOL    HW115776  12.565   2.035   5.699
71293SOL    HW215777  12.638   2.077   5.573
71294SOL     OW15778   7.420   1.232  12.692
71294SOL    HW115779   7.453   1.243  12.781
71294SOL    HW215780   7.348   1.169  12.701
71295SOL     OW15781   4.338   5.491  12.391
71295SOL    HW115782   4.267   5.454  12.338
71295SOL    HW215783   4.370   5.417  12.443
71296SOL     OW15784   0.673  12.129   2.406
71296SOL    HW115785   0.722  12.097   2.331
71296SOL    HW215786   0.738  12.174   2.460
71297SOL     OW15787  10.066  14.230   6.666
71297SOL    HW115788  10.116  14.189   6.737
71297SOL    HW215789  10.132  14.276   6.614
71298SOL     OW15790   4.810   8.673   4.230
71298SOL    HW115791   4.805   8.646   4.321
71298SOL    HW215792   4.870   8.748   4.230
71299SOL     OW15793   3.003   3.723  10.419
71299SOL    HW115794   2.995   3.817  10.406
71299SOL    HW215795   3.008   3.713  10.514
71300SOL     OW15796   7.888   2.259  11.029
71300SOL    HW115797   7.801   2.221  11.013
71300SOL    HW215798   7.902   2.248  11.123
71301SOL     OW15799  11.449   4.507  13.848
71301SOL    HW115800  11.451   4.415  13.820
71301SOL    HW215801  11.515   4.550  13.793
71302SOL     OW15802   8.848   3.321   4.823
71302SOL    HW115803   8.865   3.233   4.858
71302SOL    HW215804   8.906   3.328   4.747
71303SOL     OW15805   5.752  12.993   3.114
71303SOL    HW115806   5.739  12.907   3.152
71303SOL    HW215807   5.724  13.054   3.182
71304SOL     OW15808   5.644   7.607   9.555
71304SOL    HW115809   5.710   7.569   9.498
71304SOL    HW215810   5.693   7.658   9.619
71305SOL     OW15811   5.621   5.613   9.799
71305SOL    HW115812   5.541   5.664   9.789
71305SOL    HW215813   5.691   5.675   9.778
71306SOL     OW15814   4.731   3.270   5.048
71306SOL    HW115815   4.690   3.210   4.986
71306SOL    HW215816   4.659   3.300   5.103
71307SOL     OW15817   4.771   1.650   3.465
71307SOL    HW115818   4.838   1.707   3.501
71307SOL    HW215819   4.777   1.663   3.370
71308SOL     OW15820  10.064  11.596   1.814
71308SOL    HW115821  10.116  11.569   1.739
71308SOL    HW215822  10.127  11.635   1.874
71309SOL     OW15823   9.513  10.767   3.838
71309SOL    HW115824   9.584  10.703   3.835
71309SOL    HW215825   9.531  10.826   3.764
71310SOL     OW15826   6.529  13.367   4.126
71310SOL    HW115827   6.592  13.389   4.194
71310SOL    HW215828   6.477  13.296   4.163
71311SOL     OW15829  10.328  13.406  14.247
71311SOL    HW115830  10.421  13.388  14.257
71311SOL    HW215831  10.305  13.369  14.162
71312SOL     OW15832   3.327  12.151   8.851
71312SOL    HW115833   3.333  12.062   8.886
71312SOL    HW215834   3.233  12.172   8.854
71313SOL     OW15835   1.022   8.727   6.962
71313SOL    HW115836   0.955   8.680   7.011
71313SOL    HW215837   0.998   8.819   6.971
71314SOL     OW15838   2.698  10.833   9.751
71314SOL    HW115839   2.664  10.836   9.662
71314SOL    HW215840   2.726  10.742   9.764
71315SOL     OW15841   3.031   0.225   7.445
71315SOL    HW115842   3.104   0.283   7.427
71315SOL    HW215843   3.070   0.148   7.486
71316SOL     OW15844   6.713   2.598   4.840
71316SOL    HW115845   6.732   2.630   4.929
71316SOL    HW215846   6.791   2.550   4.815
71317SOL     OW15847  11.325   0.633   4.547
71317SOL    HW115848  11.269   0.594   4.614
71317SOL    HW215849  11.411   0.592   4.560
71318SOL     OW15850   9.813  13.343   9.907
71318SOL    HW115851   9.793  13.390   9.988
71318SOL    HW215852   9.899  13.305   9.923
71319SOL     OW15853  14.399   2.486   8.190
71319SOL    HW115854  14.337   2.425   8.229
71319SOL    HW215855  14.353   2.523   8.115
71320SOL     OW15856  13.761  14.064   0.877
71320SOL    HW115857  13.676  14.109   0.868
71320SOL    HW215858  13.797  14.097   0.959
71321SOL     OW15859   7.269   6.992  12.564
71321SOL    HW115860   7.297   6.998  12.655
71321SOL    HW215861   7.293   7.077  12.526
71322SOL     OW15862   3.369  11.788  10.238
71322SOL    HW115863   3.427  11.802  10.313
71322SOL    HW215864   3.354  11.694  10.235
71323SOL     OW15865  10.276  12.869   3.653
71323SOL    HW115866  10.261  12.895   3.744
71323SOL    HW215867  10.193  12.888   3.609
71324SOL     OW15868   4.171   0.160   0.659
71324SOL    HW115869   4.257   0.201   0.667
71324SOL    HW215870   4.121   0.196   0.733
71325SOL     OW15871   6.511  13.688   0.249
71325SOL    HW115872   6.424  13.664   0.282
71325SOL    HW215873   6.492  13.750   0.177
71326SOL     OW15874   1.826   6.186   4.760
71326SOL    HW115875   1.893   6.141   4.708
71326SOL    HW215876   1.853   6.277   4.760
71327SOL     OW15877   9.609  11.627   7.493
71327SOL    HW115878   9.557  11.707   7.499
71327SOL    HW215879   9.657  11.635   7.410
71328SOL     OW15880   7.585   6.124  11.543
71328SOL    HW115881   7.543   6.118  11.457
71328SOL    HW215882   7.676   6.100  11.526
71329SOL     OW15883   6.274   0.116   1.644
71329SOL    HW115884   6.330   0.141   1.570
71329SOL    HW215885   6.188   0.101   1.604
71330SOL     OW15886  10.930  14.007  12.389
71330SOL    HW115887  10.951  14.090  12.345
71330SOL    HW215888  10.844  13.982  12.353
71331SOL     OW15889   2.392   9.885   2.346
71331SOL    HW115890   2.472   9.855   2.304
71331SOL    HW215891   2.383   9.977   2.320
71332SOL     OW15892   6.071   2.422   9.093
71332SOL    HW115893   6.033   2.347   9.046
71332SOL    HW215894   6.031   2.419   9.180
71333SOL     OW15895  13.960  11.735   6.110
71333SOL    HW115896  13.960  11.650   6.065
71333SOL    HW215897  13.905  11.791   6.055
71334SOL     OW15898   0.289   3.106   3.907
71334SOL    HW115899   0.243   3.025   3.928
71334SOL    HW215900   0.378   3.078   3.885
71335SOL     OW15901  12.144  11.116   2.254
71335SOL    HW115902  12.106  11.126   2.167
71335SOL    HW215903  12.235  11.091   2.238
71336SOL     OW15904   2.995   9.836   5.913
71336SOL    HW115905   3.022   9.897   5.981
71336SOL    HW215906   3.066   9.837   5.850
71337SOL     OW15907   6.150  11.046  14.239
71337SOL    HW115908   6.068  11.001  14.254
71337SOL    HW215909   6.209  11.014  14.307
71338SOL     OW15910  11.258   3.604   3.219
71338SOL    HW115911  11.305   3.686   3.233
71338SOL    HW215912  11.243   3.600   3.124
71339SOL     OW15913   9.535   6.259   6.850
71339SOL    HW115914   9.507   6.203   6.922
71339SOL    HW215915   9.520   6.207   6.771
71340SOL     OW15916  12.894   4.972  10.830
71340SOL    HW115917  12.928   5.054  10.796
71340SOL    HW215918  12.825   4.947  10.768
71341SOL     OW15919   8.860   5.252   9.467
71341SOL    HW115920   8.886   5.331   9.514
71341SOL    HW215921   8.785   5.278   9.415
71342SOL     OW15922   8.399   2.642   3.932
71342SOL    HW115923   8.439   2.558   3.952
71342SOL    HW215924   8.437   2.703   3.995
71343SOL     OW15925   6.847   3.341  13.389
71343SOL    HW115926   6.877   3.251  13.374
71343SOL    HW215927   6.927   3.393  13.393
71344SOL     OW15928   9.252   6.125  13.759
71344SOL    HW115929   9.265   6.106  13.666
71344SOL    HW215930   9.341   6.131  13.795
71345SOL     OW15931  11.257   4.464   7.683
71345SOL    HW115932  11.319   4.436   7.750
71345SOL    HW215933  11.230   4.382   7.641
71346SOL     OW15934   2.292   6.225   1.549
71346SOL    HW115935   2.308   6.297   1.610
71346SOL    HW215936   2.210   6.248   1.506
71347SOL     OW15937   5.423   1.951  11.532
71347SOL    HW115938   5.457   2.009  11.464
71347SOL    HW215939   5.340   1.918  11.496
71348SOL     OW15940   0.870  11.181   0.025
71348SOL    HW115941   0.782  11.216   0.037
71348SOL    HW215942   0.894  11.145   0.110
71349SOL     OW15943   4.903   0.650   3.539
71349SOL    HW115944   4.831   0.708   3.514
71349SOL    HW215945   4.898   0.578   3.476
71350SOL     OW15946   0.569   0.533  11.258
71350SOL    HW115947   0.582   0.514  11.351
71350SOL    HW215948   0.572   0.628  11.252
71351SOL     OW15949  12.960  13.519   1.570
71351SOL    HW115950  12.911  13.442   1.597
71351SOL    HW215951  13.005  13.549   1.649
71352SOL     OW15952  13.155   2.795  10.028
71352SOL    HW115953  13.073   2.746  10.034
71352SOL    HW215954  13.140   2.874  10.079
71353SOL     OW15955   2.104   7.175  13.920
71353SOL    HW115956   2.182   7.121  13.905
71353SOL    HW215957   2.035   7.132  13.871
71354SOL     OW15958  14.002  10.835   0.324
71354SOL    HW115959  13.979  10.870   0.238
71354SOL    HW215960  14.088  10.871   0.342
71355SOL     OW15961   3.786  13.415  12.311
71355SOL    HW115962   3.818  13.463  12.234
71355SOL    HW215963   3.865  13.379  12.351
71356SOL     OW15964  11.221  14.276   3.047
71356SOL    HW115965  11.158  14.327   3.098
71356SOL    HW215966  11.278  14.235   3.112
71357SOL     OW15967  10.015   7.568  13.715
71357SOL    HW115968   9.928   7.529  13.707
71357SOL    HW215969  10.076   7.494  13.706
71358SOL     OW15970   4.067  12.260   6.923
71358SOL    HW115971   4.144  12.306   6.890
71358SOL    HW215972   4.037  12.315   6.997
71359SOL     OW15973  13.405   8.342   5.450
71359SOL    HW115974  13.485   8.367   5.496
71359SOL    HW215975  13.336   8.390   5.495
71360SOL     OW15976   7.796   4.208  13.348
71360SOL    HW115977   7.730   4.247  13.291
71360SOL    HW215978   7.748   4.182  13.426
71361SOL     OW15979  10.949   4.568  12.360
71361SOL    HW115980  10.991   4.565  12.446
71361SOL    HW215981  10.869   4.517  12.371
71362SOL     OW15982   1.586   0.225   4.632
71362SOL    HW115983   1.665   0.222   4.687
71362SOL    HW215984   1.557   0.316   4.636
71363SOL     OW15985  12.981  12.100   6.368
71363SOL    HW115986  13.040  12.129   6.299
71363SOL    HW215987  12.916  12.170   6.376
71364SOL     OW15988  14.400   9.289   0.192
71364SOL    HW115989  14.457   9.366   0.195
71364SOL    HW215990  14.382   9.269   0.284
71365SOL     OW15991   8.629  11.346   9.758
71365SOL    HW115992   8.562  11.277   9.761
71365SOL    HW215993   8.697  11.310   9.701
71366SOL     OW15994  10.789   6.177  13.073
71366SOL    HW115995  10.814   6.124  13.148
71366SOL    HW215996  10.867   6.227  13.051
71367SOL     OW15997  14.491  11.666   7.077
71367SOL    HW115998  14.572  11.622   7.101
71367SOL    HW215999  14.452  11.692   7.160
71368SOL     OW16000   7.427   6.801  13.542
71368SOL    HW116001   7.373   6.846  13.607
71368SOL    HW216002   7.386   6.715  13.533
71369SOL     OW16003   2.928   0.521   2.237
71369SOL    HW116004   3.015   0.513   2.276
71369SOL    HW216005   2.886   0.437   2.255
71370SOL     OW16006   1.644   1.857   4.597
71370SOL    HW116007   1.610   1.820   4.679
71370SOL    HW216008   1.662   1.949   4.617
71371SOL     OW16009   4.079   4.860  11.035
71371SOL    HW116010   4.040   4.794  10.977
71371SOL    HW216011   4.134   4.809  11.095
71372SOL     OW16012  11.462  14.097  11.143
71372SOL    HW116013  11.450  14.023  11.204
71372SOL    HW216014  11.486  14.170  11.200
71373SOL     OW16015  13.887   8.610   4.018
71373SOL    HW116016  13.937   8.636   4.096
71373SOL    HW216017  13.806   8.574   4.053
71374SOL     OW16018   6.900   6.917  10.815
71374SOL    HW116019   6.924   6.832  10.780
71374SOL    HW216020   6.818   6.939  10.771
71375SOL     OW16021   1.723   4.130   5.795
71375SOL    HW116022   1.760   4.205   5.748
71375SOL    HW216023   1.657   4.168   5.853
71376SOL     OW16024   2.461   3.314  12.088
71376SOL    HW116025   2.528   3.310  12.021
71376SOL    HW216026   2.435   3.222  12.102
71377SOL     OW16027  12.378   4.356  11.318
71377SOL    HW116028  12.343   4.445  11.329
71377SOL    HW216029  12.454   4.367  11.261
71378SOL     OW16030   7.425   4.400   1.465
71378SOL    HW116031   7.381   4.327   1.420
71378SOL    HW216032   7.466   4.360   1.542
71379SOL     OW16033   3.687   3.140   5.601
71379SOL    HW116034   3.697   3.226   5.641
71379SOL    HW216035   3.774   3.100   5.609
71380SOL     OW16036   5.317   4.115  10.779
71380SOL    HW116037   5.256   4.139  10.849
71380SOL    HW216038   5.265   4.062  10.719
71381SOL     OW16039   9.055   8.359  14.786
71381SOL    HW116040   9.048   8.364  14.882
71381SOL    HW216041   9.083   8.270  14.768
71382SOL     OW16042  11.837   8.815   0.394
71382SOL    HW116043  11.874   8.902   0.413
71382SOL    HW216044  11.894   8.755   0.443
71383SOL     OW16045  12.867  13.359   2.686
71383SOL    HW116046  12.830  13.317   2.764
71383SOL    HW216047  12.960  13.336   2.688
71384SOL     OW16048   8.505   6.719  14.598
71384SOL    HW116049   8.478   6.773  14.524
71384SOL    HW216050   8.438   6.732  14.665
71385SOL     OW16051   5.020   2.099  12.592
71385SOL    HW116052   5.034   2.187  12.555
71385SOL    HW216053   5.007   2.115  12.685
71386SOL     OW16054  13.506  12.945  10.648
71386SOL    HW116055  13.571  12.923  10.582
71386SOL    HW216056  13.520  13.038  10.666
71387SOL     OW16057  11.691   3.856   6.189
71387SOL    HW116058  11.715   3.905   6.267
71387SOL    HW216059  11.772   3.852   6.137
71388SOL     OW16060   2.775   2.818  12.529
71388SOL    HW116061   2.837   2.796  12.599
71388SOL    HW216062   2.738   2.902  12.556
71389SOL     OW16063   7.499   9.911   8.126
71389SOL    HW116064   7.496   9.818   8.149
71389SOL    HW216065   7.567   9.947   8.182
71390SOL     OW16066  10.822  10.278   3.363
71390SOL    HW116067  10.773  10.233   3.295
71390SOL    HW216068  10.860  10.208   3.416
71391SOL     OW16069   5.113   5.903   0.045
71391SOL    HW116070   5.022   5.897   0.076
71391SOL    HW216071   5.105   5.909  14.832
71392SOL     OW16072   0.452   0.197  13.596
71392SOL    HW116073   0.483   0.264  13.657
71392SOL    HW216074   0.521   0.130  13.597
71393SOL     OW16075   6.208   8.062  11.464
71393SOL    HW116076   6.158   7.990  11.425
71393SOL    HW216077   6.145   8.110  11.517
71394SOL     OW16078  11.455  10.125  14.499
71394SOL    HW116079  11.439  10.113  14.405
71394SOL    HW216080  11.379  10.175  14.530
71395SOL     OW16081  12.784  14.081  12.285
71395SOL    HW116082  12.806  14.173  12.271
71395SOL    HW216083  12.764  14.075  12.379
71396SOL     OW16084   9.292  11.102   0.162
71396SOL    HW116085   9.269  11.084   0.253
71396SOL    HW216086   9.214  11.141   0.124
71397SOL     OW16087   3.820  14.586   0.905
71397SOL    HW116088   3.744  14.631   0.867
71397SOL    HW216089   3.887  14.590   0.837
71398SOL     OW16090  14.455   2.499   8.573
71398SOL    HW116091  14.476   2.565   8.638
71398SOL    HW216092  14.409   2.431   8.622
71399SOL     OW16093   7.080  14.595   1.068
71399SOL    HW116094   7.040  14.649   1.000
71399SOL    HW216095   7.157  14.645   1.096
71400SOL     OW16096   2.183  11.223   1.479
71400SOL    HW116097   2.120  11.162   1.441
71400SOL    HW216098   2.205  11.282   1.407
71401SOL     OW16099  14.860   4.523  11.329
71401SOL    HW116100  14.866   4.444  11.383
71401SOL    HW216101  14.877   4.493  11.240
71402SOL     OW16102  14.636  14.541   3.296
71402SOL    HW116103  14.680  14.457   3.307
71402SOL    HW216104  14.673  14.577   3.216
71403SOL     OW16105  12.960  13.049   4.393
71403SOL    HW116106  12.944  13.113   4.323
71403SOL    HW216107  12.962  12.965   4.348
71404SOL     OW16108  12.110  12.734   5.667
71404SOL    HW116109  12.085  12.719   5.758
71404SOL    HW216110  12.133  12.827   5.664
71405SOL     OW16111  14.687  13.212  14.017
71405SOL    HW116112  14.639  13.281  13.970
71405SOL    HW216113  14.761  13.258  14.058
71406SOL     OW16114  13.427   0.927   8.041
71406SOL    HW116115  13.447   0.834   8.028
71406SOL    HW216116  13.414   0.961   7.952
71407SOL     OW16117   7.881   9.235  13.675
71407SOL    HW116118   7.915   9.288  13.603
71407SOL    HW216119   7.797   9.275  13.697
71408SOL     OW16120   2.176  11.873  12.050
71408SOL    HW116121   2.193  11.858  12.144
71408SOL    HW216122   2.263  11.890  12.013
71409SOL     OW16123  11.966   1.543  11.874
71409SOL    HW116124  11.992   1.592  11.952
71409SOL    HW216125  11.959   1.452  11.904
71410SOL     OW16126   4.866   2.131   7.236
71410SOL    HW116127   4.799   2.138   7.167
71410SOL    HW216128   4.815   2.127   7.318
71411SOL     OW16129  13.077   3.557  14.520
71411SOL    HW116130  13.107   3.632  14.469
71411SOL    HW216131  12.993   3.585  14.557
71412SOL     OW16132   8.198  11.255   0.174
71412SOL    HW116133   8.165  11.345   0.176
71412SOL    HW216134   8.177  11.224   0.086
71413SOL     OW16135  10.355  14.162   8.400
71413SOL    HW116136  10.385  14.107   8.472
71413SOL    HW216137  10.344  14.249   8.439
71414SOL     OW16138  11.088   2.613   3.718
71414SOL    HW116139  11.031   2.673   3.766
71414SOL    HW216140  11.095   2.650   3.630
71415SOL     OW16141   6.019   7.568  14.312
71415SOL    HW116142   6.091   7.505  14.322
71415SOL    HW216143   5.995   7.591  14.402
71416SOL     OW16144   9.504   9.415  14.538
71416SOL    HW116145   9.434   9.480  14.536
71416SOL    HW216146   9.507   9.379  14.449
71417SOL     OW16147   3.032   6.717  11.911
71417SOL    HW116148   3.023   6.670  11.829
71417SOL    HW216149   2.946   6.755  11.927
71418SOL     OW16150   6.489  14.502  12.059
71418SOL    HW116151   6.444  14.420  12.077
71418SOL    HW216152   6.421  14.569  12.069
71419SOL     OW16153   1.378   1.582  11.353
71419SOL    HW116154   1.352   1.629  11.274
71419SOL    HW216155   1.320   1.506  11.356
71420SOL     OW16156   6.068   7.030   4.211
71420SOL    HW116157   6.104   7.102   4.159
71420SOL    HW216158   6.044   7.071   4.294
71421SOL     OW16159  10.320  11.737  13.724
71421SOL    HW116160  10.392  11.686  13.685
71421SOL    HW216161  10.243  11.713  13.673
71422SOL     OW16162  12.801  12.387   0.993
71422SOL    HW116163  12.739  12.367   0.924
71422SOL    HW216164  12.871  12.322   0.984
71423SOL     OW16165   6.250   9.853   7.995
71423SOL    HW116166   6.218   9.764   7.982
71423SOL    HW216167   6.308   9.848   8.070
71424SOL     OW16168   8.218   5.790   2.933
71424SOL    HW116169   8.239   5.872   2.887
71424SOL    HW216170   8.292   5.732   2.912
71425SOL     OW16171   5.293   3.240   8.221
71425SOL    HW116172   5.273   3.212   8.310
71425SOL    HW216173   5.307   3.335   8.229
71426SOL     OW16174   7.256  14.449   0.415
71426SOL    HW116175   7.168  14.483   0.402
71426SOL    HW216176   7.280  14.478   0.503
71427SOL     OW16177   8.796  13.484  10.243
71427SOL    HW116178   8.820  13.462  10.153
71427SOL    HW216179   8.830  13.412  10.295
71428SOL     OW16180   9.496   6.127   7.067
71428SOL    HW116181   9.576   6.077   7.082
71428SOL    HW216182   9.443   6.113   7.146
71429SOL     OW16183   7.216  12.765  13.692
71429SOL    HW116184   7.242  12.854  13.715
71429SOL    HW216185   7.146  12.743  13.754
71430SOL     OW16186   3.711   5.550   5.903
71430SOL    HW116187   3.759   5.596   5.834
71430SOL    HW216188   3.773   5.544   5.976
71431SOL     OW16189   5.921   8.016  11.105
71431SOL    HW116190   5.849   7.983  11.159
71431SOL    HW216191   5.881   8.034  11.020
71432SOL     OW16192   6.565  13.181  12.706
71432SOL    HW116193   6.621  13.206  12.633
71432SOL    HW216194   6.543  13.089  12.689
71433SOL     OW16195   5.946   1.379   0.968
71433SOL    HW116196   5.875   1.439   0.990
71433SOL    HW216197   5.904   1.312   0.913
71434SOL     OW16198   9.190   3.458   3.335
71434SOL    HW116199   9.203   3.553   3.338
71434SOL    HW216200   9.222   3.427   3.420
71435SOL     OW16201   1.627  12.004  10.986
71435SOL    HW116202   1.653  11.912  10.981
71435SOL    HW216203   1.558  12.013  10.920
71436SOL     OW16204   1.168   4.390  12.017
71436SOL    HW116205   1.196   4.402  11.927
71436SOL    HW216206   1.093   4.449  12.027
71437SOL     OW16207  13.621   3.150  14.336
71437SOL    HW116208  13.681   3.219  14.361
71437SOL    HW216209  13.677   3.082  14.298
71438SOL     OW16210   7.256  14.021   2.565
71438SOL    HW116211   7.345  14.023   2.599
71438SOL    HW216212   7.201  14.039   2.642
71439SOL     OW16213   7.976  13.279  10.357
71439SOL    HW116214   7.940  13.307  10.441
71439SOL    HW216215   7.917  13.316  10.292
71440SOL     OW16216  10.830   8.333   3.461
71440SOL    HW116217  10.776   8.405   3.429
71440SOL    HW216218  10.867   8.366   3.543
71441SOL     OW16219   1.684   3.940  11.945
71441SOL    HW116220   1.595   3.964  11.970
71441SOL    HW216221   1.675   3.895  11.862
71442SOL     OW16222   7.705   9.245   7.640
71442SOL    HW116223   7.634   9.292   7.596
71442SOL    HW216224   7.670   9.159   7.658
71443SOL     OW16225   8.951   6.290   0.341
71443SOL    HW116226   8.970   6.290   0.247
71443SOL    HW216227   9.030   6.254   0.381
71444SOL     OW16228   6.796   8.736  13.281
71444SOL    HW116229   6.772   8.646  13.303
71444SOL    HW216230   6.758   8.750  13.194
71445SOL     OW16231  11.892   1.906  12.826
71445SOL    HW116232  11.830   1.853  12.875
71445SOL    HW216233  11.909   1.982  12.882
71446SOL     OW16234  14.000   3.327   0.302
71446SOL    HW116235  14.050   3.363   0.375
71446SOL    HW216236  13.911   3.319   0.335
71447SOL     OW16237   6.191   3.072  14.822
71447SOL    HW116238   6.254   3.136  14.855
71447SOL    HW216239   6.218   2.989  14.862
71448SOL     OW16240   2.729   1.162   4.631
71448SOL    HW116241   2.764   1.229   4.690
71448SOL    HW216242   2.805   1.110   4.606
71449SOL     OW16243   8.014   4.635   1.640
71449SOL    HW116244   8.035   4.552   1.598
71449SOL    HW216245   8.087   4.693   1.618
71450SOL     OW16246   0.654  12.461  14.391
71450SOL    HW116247   0.687  12.536  14.341
71450SOL    HW216248   0.622  12.499  14.473
71451SOL     OW16249   3.334   1.252   8.047
71451SOL    HW116250   3.320   1.286   7.958
71451SOL    HW216251   3.246   1.235   8.081
71452SOL     OW16252  11.600  13.844  14.041
71452SOL    HW116253  11.545  13.768  14.024
71452SOL    HW216254  11.688  13.808  14.052
71453SOL     OW16255   6.946   8.079   8.540
71453SOL    HW116256   6.964   8.123   8.623
71453SOL    HW216257   7.013   8.113   8.480
71454SOL     OW16258   8.382   8.228   2.432
71454SOL    HW116259   8.453   8.293   2.434
71454SOL    HW216260   8.336   8.240   2.515
71455SOL     OW16261   2.478   1.792   8.122
71455SOL    HW116262   2.415   1.765   8.188
71455SOL    HW216263   2.454   1.882   8.101
71456SOL     OW16264  13.489   8.729   6.818
71456SOL    HW116265  13.539   8.784   6.877
71456SOL    HW216266  13.429   8.789   6.774
71457SOL     OW16267   7.931   1.202  13.359
71457SOL    HW116268   7.843   1.166  13.367
71457SOL    HW216269   7.920   1.296  13.376
71458SOL     OW16270   3.047  13.291  13.887
71458SOL    HW116271   2.962  13.276  13.847
71458SOL    HW216272   3.060  13.385  13.880
71459SOL     OW16273   9.685   1.570   2.132
71459SOL    HW116274   9.764   1.623   2.123
71459SOL    HW216275   9.717   1.480   2.133
71460SOL     OW16276   0.957   4.048   1.983
71460SOL    HW116277   1.015   4.033   1.908
71460SOL    HW216278   0.870   4.057   1.943
71461SOL     OW16279   4.963   6.066   8.808
71461SOL    HW116280   4.892   6.034   8.863
71461SOL    HW216281   4.920   6.099   8.729
71462SOL     OW16282   6.482   2.765  13.818
71462SOL    HW116283   6.501   2.856  13.794
71462SOL    HW216284   6.388   2.755  13.799
71463SOL     OW16285   2.160  14.783   8.943
71463SOL    HW116286   2.082  14.743   8.982
71463SOL    HW216287   2.151  14.876   8.963
71464SOL     OW16288   1.660   8.549   4.466
71464SOL    HW116289   1.748   8.588   4.466
71464SOL    HW216290   1.616   8.590   4.540
71465SOL     OW16291   8.123   2.108   3.736
71465SOL    HW116292   8.125   2.014   3.753
71465SOL    HW216293   8.183   2.145   3.801
71466SOL     OW16294   0.841   7.808  11.263
71466SOL    HW116295   0.817   7.741  11.199
71466SOL    HW216296   0.798   7.887  11.231
71467SOL     OW16297   5.975   8.483   9.991
71467SOL    HW116298   5.985   8.430  10.070
71467SOL    HW216299   6.034   8.441   9.928
71468SOL     OW16300   4.055  12.272   6.095
71468SOL    HW116301   3.988  12.225   6.045
71468SOL    HW216302   4.102  12.324   6.030
71469SOL     OW16303  14.609   8.253   8.779
71469SOL    HW116304  14.651   8.202   8.710
71469SOL    HW216305  14.641   8.342   8.767
71470SOL     OW16306   7.838   8.451   6.678
71470SOL    HW116307   7.883   8.533   6.658
71470SOL    HW216308   7.905   8.396   6.718
71471SOL     OW16309  14.178   0.943   6.600
71471SOL    HW116310  14.175   0.896   6.516
71471SOL    HW216311  14.120   1.018   6.587
71472SOL     OW16312  11.945   4.699   9.123
71472SOL    HW116313  11.918   4.609   9.142
71472SOL    HW216314  11.897   4.753   9.185
71473SOL     OW16315   8.133   5.039   8.632
71473SOL    HW116316   8.053   5.064   8.586
71473SOL    HW216317   8.106   5.023   8.722
71474SOL     OW16318   8.398   5.300   9.588
71474SOL    HW116319   8.430   5.279   9.676
71474SOL    HW216320   8.425   5.225   9.535
71475SOL     OW16321  14.225   9.186   9.909
71475SOL    HW116322  14.226   9.110   9.968
71475SOL    HW216323  14.309   9.228   9.924
71476SOL     OW16324   7.093  13.834   9.152
71476SOL    HW116325   7.051  13.765   9.102
71476SOL    HW216326   7.046  13.914   9.128
71477SOL     OW16327  13.605   9.307  12.997
71477SOL    HW116328  13.636   9.366  13.066
71477SOL    HW216329  13.655   9.332  12.920
71478SOL     OW16330  10.110  11.977  12.504
71478SOL    HW116331  10.153  11.892  12.500
71478SOL    HW216332  10.145  12.026  12.431
71479SOL     OW16333   3.347  12.045  12.971
71479SOL    HW116334   3.284  12.113  12.995
71479SOL    HW216335   3.311  11.965  13.010
71480SOL     OW16336   6.106   7.127   3.566
71480SOL    HW116337   6.078   7.145   3.655
71480SOL    HW216338   6.041   7.170   3.511
71481SOL     OW16339   1.439  11.718   4.139
71481SOL    HW116340   1.422  11.741   4.230
71481SOL    HW216341   1.534  11.709   4.133
71482SOL     OW16342  11.392  13.132   0.541
71482SOL    HW116343  11.387  13.078   0.462
71482SOL    HW216344  11.310  13.181   0.541
71483SOL     OW16345   3.357  12.993  13.955
71483SOL    HW116346   3.388  12.913  13.997
71483SOL    HW216347   3.281  13.020  14.006
71484SOL     OW16348   4.249   6.345  13.725
71484SOL    HW116349   4.185   6.305  13.666
71484SOL    HW216350   4.301   6.402  13.670
71485SOL     OW16351  10.656   9.768   5.521
71485SOL    HW116352  10.569   9.776   5.483
71485SOL    HW216353  10.642   9.724   5.605
71486SOL     OW16354   1.557   3.137   3.420
71486SOL    HW116355   1.481   3.088   3.390
71486SOL    HW216356   1.558   3.124   3.515
71487SOL     OW16357  11.091  10.179  13.063
71487SOL    HW116358  11.092  10.168  13.158
71487SOL    HW216359  11.183  10.168  13.037
71488SOL     OW16360   6.750   7.933  10.708
71488SOL    HW116361   6.830   7.927  10.761
71488SOL    HW216362   6.781   7.956  10.620
71489SOL     OW16363  11.620  12.298  12.653
71489SOL    HW116364  11.712  12.294  12.628
71489SOL    HW216365  11.617  12.360  12.726
71490SOL     OW16366   3.086   9.816  10.666
71490SOL    HW116367   3.019   9.765  10.712
71490SOL    HW216368   3.136   9.859  10.735
71491SOL     OW16369   4.409  13.439  12.704
71491SOL    HW116370   4.433  13.529  12.684
71491SOL    HW216371   4.335  13.446  12.765
71492SOL     OW16372  13.693   5.736   6.711
71492SOL    HW116373  13.629   5.781   6.767
71492SOL    HW216374  13.642   5.705   6.636
71493SOL     OW16375   2.361   4.641   1.881
71493SOL    HW116376   2.418   4.692   1.824
71493SOL    HW216377   2.279   4.691   1.883
71494SOL     OW16378  12.170   0.187   7.719
71494SOL    HW116379  12.184   0.233   7.801
71494SOL    HW216380  12.257   0.181   7.680
71495SOL     OW16381   2.084   5.370  10.493
71495SOL    HW116382   2.029   5.395  10.568
71495SOL    HW216383   2.033   5.397  10.416
71496SOL     OW16384   1.412   9.213  11.236
71496SOL    HW116385   1.453   9.198  11.322
71496SOL    HW216386   1.378   9.128  11.210
71497SOL     OW16387   7.177  10.686   7.548
71497SOL    HW116388   7.243  10.643   7.493
71497SOL    HW216389   7.098  10.633   7.537
71498SOL     OW16390   4.468  14.576  14.822
71498SOL    HW116391   4.472  14.648  14.760
71498SOL    HW216392   4.423  14.612   0.016
71499SOL     OW16393   9.021   9.166   0.171
71499SOL    HW116394   9.043   9.259   0.169
71499SOL    HW216395   9.000   9.144   0.080
71500SOL     OW16396  10.762   3.926   3.885
71500SOL    HW116397  10.853   3.901   3.903
71500SOL    HW216398  10.713   3.844   3.892
71501SOL     OW16399  12.806  11.920   7.334
71501SOL    HW116400  12.758  11.921   7.416
71501SOL    HW216401  12.748  11.963   7.271
71502SOL     OW16402  13.260   1.921  12.048
71502SOL    HW116403  13.288   2.011  12.034
71502SOL    HW216404  13.254   1.912  12.143
71503SOL     OW16405  14.674   0.781   2.655
71503SOL    HW116406  14.584   0.771   2.623
71503SOL    HW216407  14.694   0.697   2.696
71504SOL     OW16408  12.592   9.222   9.088
71504SOL    HW116409  12.687   9.205   9.084
71504SOL    HW216410  12.553   9.155   9.032
71505SOL     OW16411   0.174  12.180   5.281
71505SOL    HW116412   0.234  12.250   5.255
71505SOL    HW216413   0.161  12.193   5.375
71506SOL     OW16414  13.000   9.212   5.726
71506SOL    HW116415  12.946   9.140   5.758
71506SOL    HW216416  13.036   9.181   5.644
71507SOL     OW16417   8.456   8.457   5.205
71507SOL    HW116418   8.420   8.481   5.291
71507SOL    HW216419   8.464   8.540   5.159
71508SOL     OW16420   7.702   9.492  12.588
71508SOL    HW116421   7.745   9.577  12.576
71508SOL    HW216422   7.647   9.504  12.666
71509SOL     OW16423   6.839   9.451   4.180
71509SOL    HW116424   6.824   9.500   4.261
71509SOL    HW216425   6.904   9.502   4.132
71510SOL     OW16426   0.550   8.134   4.135
71510SOL    HW116427   0.580   8.130   4.225
71510SOL    HW216428   0.457   8.153   4.141
71511SOL     OW16429   5.742   8.852  13.519
71511SOL    HW116430   5.680   8.921  13.543
71511SOL    HW216431   5.817   8.866  13.577
71512SOL     OW16432   9.452   5.734   4.428
71512SOL    HW116433   9.497   5.778   4.356
71512SOL    HW216434   9.404   5.662   4.387
71513SOL     OW16435   6.684  13.111   4.239
71513SOL    HW116436   6.654  13.094   4.150
71513SOL    HW216437   6.689  13.024   4.280
71514SOL     OW16438   0.463   9.959   8.025
71514SOL    HW116439   0.530   9.982   8.090
71514SOL    HW216440   0.464   9.863   8.021
71515SOL     OW16441  14.763  13.208   4.597
71515SOL    HW116442  14.759  13.301   4.575
71515SOL    HW216443  14.752  13.205   4.692
71516SOL     OW16444  14.363  14.173  10.614
71516SOL    HW116445  14.408  14.093  10.641
71516SOL    HW216446  14.434  14.236  10.599
71517SOL     OW16447   6.389  10.670  10.050
71517SOL    HW116448   6.391  10.761  10.080
71517SOL    HW216449   6.330  10.670   9.975
71518SOL     OW16450   0.625   1.646   4.709
71518SOL    HW116451   0.664   1.559   4.711
71518SOL    HW216452   0.673   1.693   4.641
71519SOL     OW16453   5.157   1.908  10.357
71519SOL    HW116454   5.181   1.941  10.443
71519SOL    HW216455   5.096   1.836  10.374
71520SOL     OW16456   9.480   4.011   6.659
71520SOL    HW116457   9.385   4.019   6.661
71520SOL    HW216458   9.503   4.028   6.568
71521SOL     OW16459   7.924  11.340   6.909
71521SOL    HW116460   7.846  11.300   6.870
71521SOL    HW216461   7.917  11.321   7.002
71522SOL     OW16462  13.257   1.991   4.183
71522SOL    HW116463  13.184   1.978   4.122
71522SOL    HW216464  13.304   2.066   4.148
71523SOL     OW16465   3.748  11.266   2.790
71523SOL    HW116466   3.771  11.306   2.706
71523SOL    HW216467   3.728  11.340   2.847
71524SOL     OW16468   7.115   3.003   2.007
71524SOL    HW116469   7.091   2.951   2.083
71524SOL    HW216470   7.136   3.090   2.042
71525SOL     OW16471   3.550   1.661   1.077
71525SOL    HW116472   3.567   1.683   1.168
71525SOL    HW216473   3.636   1.635   1.042
71526SOL     OW16474   7.224  13.481   1.114
71526SOL    HW116475   7.289  13.485   1.185
71526SOL    HW216476   7.168  13.557   1.130
71527SOL     OW16477  10.788   1.538  12.311
71527SOL    HW116478  10.784   1.452  12.270
71527SOL    HW216479  10.870   1.538  12.359
71528SOL     OW16480   0.610  13.729   0.099
71528SOL    HW116481   0.697  13.745   0.063
71528SOL    HW216482   0.619  13.647   0.149
71529SOL     OW16483   4.464   3.592   9.816
71529SOL    HW116484   4.382   3.557   9.782
71529SOL    HW216485   4.460   3.686   9.797
71530SOL     OW16486  14.001   8.306   6.381
71530SOL    HW116487  14.043   8.229   6.419
71530SOL    HW216488  14.069   8.346   6.328
71531SOL     OW16489   0.455   4.561   9.782
71531SOL    HW116490   0.433   4.474   9.816
71531SOL    HW216491   0.548   4.573   9.802
71532SOL     OW16492  11.372   9.223   6.585
71532SOL    HW116493  11.346   9.211   6.676
71532SOL    HW216494  11.467   9.213   6.585
71533SOL     OW16495   5.853  12.202   3.580
71533SOL    HW116496   5.932  12.165   3.539
71533SOL    HW216497   5.876  12.294   3.597
71534SOL     OW16498   3.631   9.527  14.565
71534SOL    HW116499   3.665   9.606  14.607
71534SOL    HW216500   3.655   9.535  14.473
71535SOL     OW16501   8.908   8.270   4.468
71535SOL    HW116502   8.944   8.206   4.407
71535SOL    HW216503   8.983   8.324   4.494
71536SOL     OW16504   9.068   7.254   2.409
71536SOL    HW116505   9.069   7.288   2.320
71536SOL    HW216506   9.004   7.183   2.408
71537SOL     OW16507  12.676   1.460   6.006
71537SOL    HW116508  12.643   1.547   6.028
71537SOL    HW216509  12.758   1.476   5.961
71538SOL     OW16510  12.651   1.627  14.864
71538SOL    HW116511  12.600   1.545  14.859
71538SOL    HW216512  12.734   1.601   0.022
71539SOL     OW16513   4.388   7.064   4.254
71539SOL    HW116514   4.331   6.995   4.219
71539SOL    HW216515   4.331   7.139   4.269
71540SOL     OW16516   3.928  11.365  11.534
71540SOL    HW116517   3.905  11.379  11.442
71540SOL    HW216518   3.895  11.443  11.579
71541SOL     OW16519   2.215  11.980   2.728
71541SOL    HW116520   2.218  12.046   2.797
71541SOL    HW216521   2.130  11.937   2.740
71542SOL     OW16522   6.864   8.872   4.001
71542SOL    HW116523   6.886   8.896   3.911
71542SOL    HW216524   6.926   8.922   4.055
71543SOL     OW16525   8.803  10.245   9.262
71543SOL    HW116526   8.790  10.269   9.354
71543SOL    HW216527   8.727  10.279   9.216
71544SOL     OW16528   3.316   6.876   3.465
71544SOL    HW116529   3.356   6.949   3.513
71544SOL    HW216530   3.247   6.845   3.523
71545SOL     OW16531   2.115   6.316   1.385
71545SOL    HW116532   2.083   6.254   1.319
71545SOL    HW216533   2.090   6.402   1.351
71546SOL     OW16534   0.945   4.947   1.898
71546SOL    HW116535   1.028   4.987   1.924
71546SOL    HW216536   0.907   4.917   1.981
71547SOL     OW16537   1.153   0.033   3.080
71547SOL    HW116538   1.151   0.061   3.171
71547SOL    HW216539   1.107  14.831   3.080
71548SOL     OW16540   2.079  12.285   5.235
71548SOL    HW116541   2.072  12.378   5.258
71548SOL    HW216542   2.118  12.286   5.147
71549SOL     OW16543  13.565  14.499  12.616
71549SOL    HW116544  13.532  14.415  12.583
71549SOL    HW216545  13.642  14.517  12.562
71550SOL     OW16546   9.498  14.353   2.363
71550SOL    HW116547   9.485  14.303   2.282
71550SOL    HW216548   9.452  14.303   2.430
71551SOL     OW16549   1.563   3.947   0.031
71551SOL    HW116550   1.565   3.863   0.078
71551SOL    HW216551   1.652   3.958  14.880
71552SOL     OW16552   7.489  12.223   1.540
71552SOL    HW116553   7.523  12.311   1.550
71552SOL    HW216554   7.440  12.225   1.457
71553SOL     OW16555  11.096   9.143   4.820
71553SOL    HW116556  11.158   9.072   4.836
71553SOL    HW216557  11.107   9.202   4.895
71554SOL     OW16558   7.429  13.953  12.973
71554SOL    HW116559   7.493  14.004  12.925
71554SOL    HW216560   7.419  13.873  12.921
71555SOL     OW16561   9.866   3.645   9.182
71555SOL    HW116562   9.902   3.719   9.133
71555SOL    HW216563   9.943   3.604   9.223
71556SOL     OW16564   7.714  13.103   2.722
71556SOL    HW116565   7.633  13.110   2.772
71556SOL    HW216566   7.687  13.068   2.637
71557SOL     OW16567  13.499  11.963   7.044
71557SOL    HW116568  13.463  12.050   7.062
71557SOL    HW216569  13.449  11.904   7.101
71558SOL     OW16570   6.424   5.688   5.567
71558SOL    HW116571   6.504   5.732   5.537
71558SOL    HW216572   6.390   5.645   5.489
71559SOL     OW16573   5.066   1.107   6.946
71559SOL    HW116574   5.098   1.022   6.916
71559SOL    HW216575   5.048   1.155   6.865
71560SOL     OW16576   8.084   4.063  12.242
71560SOL    HW116577   8.055   4.124  12.173
71560SOL    HW216578   8.038   3.982  12.223
71561SOL     OW16579   8.112   7.322  13.733
71561SOL    HW116580   8.096   7.244  13.786
71561SOL    HW216581   8.164   7.379  13.790
71562SOL     OW16582  14.416   2.275   5.747
71562SOL    HW116583  14.478   2.254   5.677
71562SOL    HW216584  14.331   2.282   5.703
71563SOL     OW16585   1.520   7.529   6.534
71563SOL    HW116586   1.568   7.610   6.554
71563SOL    HW216587   1.499   7.537   6.441
71564SOL     OW16588   4.174   8.874   3.289
71564SOL    HW116589   4.213   8.787   3.297
71564SOL    HW216590   4.082   8.862   3.311
71565SOL     OW16591   2.567   6.556   6.232
71565SOL    HW116592   2.534   6.468   6.248
71565SOL    HW216593   2.605   6.583   6.315
71566SOL     OW16594   1.587   6.119   3.843
71566SOL    HW116595   1.566   6.177   3.917
71566SOL    HW216596   1.652   6.168   3.793
71567SOL     OW16597  13.978   8.765  11.064
71567SOL    HW116598  14.041   8.799  11.000
71567SOL    HW216599  14.002   8.808  11.146
71568SOL     OW16600   7.541   8.829   7.541
71568SOL    HW116601   7.605   8.830   7.612
71568SOL    HW216602   7.570   8.898   7.482
71569SOL     OW16603   1.067   0.409   4.721
71569SOL    HW116604   1.086   0.347   4.651
71569SOL    HW216605   1.002   0.365   4.775
71570SOL     OW16606   2.144   6.434  12.735
71570SOL    HW116607   2.196   6.445  12.815
71570SOL    HW216608   2.093   6.515  12.728
71571SOL     OW16609   5.523   3.418  11.145
71571SOL    HW116610   5.584   3.367  11.198
71571SOL    HW216611   5.560   3.415  11.057
71572SOL     OW16612   7.186   9.325   7.987
71572SOL    HW116613   7.257   9.270   7.954
71572SOL    HW216614   7.111   9.301   7.933
71573SOL     OW16615  10.282   2.014   5.102
71573SOL    HW116616  10.247   2.050   5.020
71573SOL    HW216617  10.348   2.077   5.129
71574SOL     OW16618   1.043   4.958   0.304
71574SOL    HW116619   0.989   4.888   0.341
71574SOL    HW216620   1.117   4.966   0.364
71575SOL     OW16621   6.977  10.077   5.080
71575SOL    HW116622   6.882  10.069   5.083
71575SOL    HW216623   6.999  10.129   5.158
71576SOL     OW16624   7.411  11.674   8.426
71576SOL    HW116625   7.328  11.707   8.462
71576SOL    HW216626   7.428  11.730   8.350
71577SOL     OW16627   1.385   3.757   5.126
71577SOL    HW116628   1.476   3.747   5.097
71577SOL    HW216629   1.375   3.851   5.141
71578SOL     OW16630   2.922   8.210   3.481
71578SOL    HW116631   2.896   8.124   3.514
71578SOL    HW216632   3.016   8.202   3.464
71579SOL     OW16633   4.166  12.375   9.151
71579SOL    HW116634   4.222  12.451   9.169
71579SOL    HW216635   4.078  12.412   9.143
71580SOL     OW16636   1.436   0.692   0.883
71580SOL    HW116637   1.510   0.640   0.852
71580SOL    HW216638   1.474   0.778   0.903
71581SOL     OW16639   6.851   4.182  12.944
71581SOL    HW116640   6.773   4.185  12.888
71581SOL    HW216641   6.839   4.104  12.997
71582SOL     OW16642   7.757   4.201   7.756
71582SOL    HW116643   7.804   4.246   7.826
71582SOL    HW216644   7.741   4.113   7.791
71583SOL     OW16645  11.529   7.388   1.005
71583SOL    HW116646  11.474   7.330   1.057
71583SOL    HW216647  11.614   7.388   1.050
71584SOL     OW16648   0.662   8.722   8.717
71584SOL    HW116649   0.741   8.776   8.714
71584SOL    HW216650   0.669   8.665   8.641
71585SOL     OW16651   8.799   0.980  11.699
71585SOL    HW116652   8.832   1.029  11.624
71585SOL    HW216653   8.706   1.005  11.704
71586SOL     OW16654   6.344  13.558  13.368
71586SOL    HW116655   6.346  13.556  13.272
71586SOL    HW216656   6.256  13.590  13.389
71587SOL     OW16657   4.493  12.769  10.551
71587SOL    HW116658   4.509  12.818  10.632
71587SOL    HW216659   4.530  12.682  10.568
71588SOL     OW16660   6.318  14.709  11.499
71588SOL    HW116661   6.324  14.801  11.524
71588SOL    HW216662   6.227  14.685  11.516
71589SOL     OW16663   8.799   8.043  14.608
71589SOL    HW116664   8.835   8.057  14.695
71589SOL    HW216665   8.843   7.964  14.576
71590SOL     OW16666   7.492   7.218  12.159
71590SOL    HW116667   7.568   7.245  12.108
71590SOL    HW216668   7.528   7.185  12.241
71591SOL     OW16669   1.316  10.395  11.332
71591SOL    HW116670   1.350  10.451  11.401
71591SOL    HW216671   1.221  10.396  11.345
71592SOL     OW16672   7.935   2.075   8.334
71592SOL    HW116673   7.965   2.134   8.265
71592SOL    HW216674   8.006   2.074   8.398
71593SOL     OW16675  12.681   8.570  11.152
71593SOL    HW116676  12.660   8.642  11.092
71593SOL    HW216677  12.613   8.573  11.218
71594SOL     OW16678  14.218   7.109   7.672
71594SOL    HW116679  14.229   7.015   7.684
71594SOL    HW216680  14.304   7.140   7.644
71595SOL     OW16681  10.870  13.512  10.587
71595SOL    HW116682  10.802  13.572  10.555
71595SOL    HW216683  10.951  13.547  10.550
71596SOL     OW16684   5.681   9.427  13.314
71596SOL    HW116685   5.636   9.506  13.283
71596SOL    HW216686   5.630   9.354  13.278
71597SOL     OW16687   5.501   5.500  13.585
71597SOL    HW116688   5.445   5.555  13.531
71597SOL    HW216689   5.451   5.418  13.594
71598SOL     OW16690  12.467   6.046   2.455
71598SOL    HW116691  12.502   5.970   2.408
71598SOL    HW216692  12.448   6.110   2.387
71599SOL     OW16693  10.500   2.249   7.391
71599SOL    HW116694  10.523   2.295   7.310
71599SOL    HW216695  10.421   2.293   7.421
71600SOL     OW16696   2.737   8.729   6.578
71600SOL    HW116697   2.651   8.766   6.558
71600SOL    HW216698   2.740   8.725   6.674
71601SOL     OW16699   1.887   2.500   7.682
71601SOL    HW116700   1.980   2.504   7.660
71601SOL    HW216701   1.860   2.412   7.656
71602SOL     OW16702   0.153  12.494  12.139
71602SOL    HW116703   0.226  12.538  12.182
71602SOL    HW216704   0.193  12.422  12.091
71603SOL     OW16705   8.202   3.786   6.847
71603SOL    HW116706   8.126   3.833   6.812
71603SOL    HW216707   8.274   3.849   6.838
71604SOL     OW16708   9.983  10.074  13.868
71604SOL    HW116709  10.050  10.017  13.906
71604SOL    HW216710   9.924  10.015  13.821
71605SOL     OW16711   2.092  12.376  10.347
71605SOL    HW116712   2.173  12.362  10.297
71605SOL    HW216713   2.075  12.470  10.337
71606SOL     OW16714  12.065   6.527   9.408
71606SOL    HW116715  12.001   6.594   9.431
71606SOL    HW216716  12.143   6.550   9.457
71607SOL     OW16717   5.873   6.485   2.836
71607SOL    HW116718   5.861   6.551   2.904
71607SOL    HW216719   5.884   6.535   2.755
71608SOL     OW16720   9.574   4.745   8.585
71608SOL    HW116721   9.542   4.775   8.670
71608SOL    HW216722   9.621   4.821   8.549
71609SOL     OW16723   7.881  10.063   7.466
71609SOL    HW116724   7.950  10.092   7.407
71609SOL    HW216725   7.914   9.979   7.501
71610SOL     OW16726   4.501   9.602   7.354
71610SOL    HW116727   4.494   9.586   7.448
71610SOL    HW216728   4.573   9.545   7.326
71611SOL     OW16729   8.378  10.994   2.928
71611SOL    HW116730   8.355  10.960   3.015
71611SOL    HW216731   8.294  11.009   2.886
71612SOL     OW16732  13.168   1.276   2.376
71612SOL    HW116733  13.175   1.366   2.344
71612SOL    HW216734  13.250   1.261   2.423
71613SOL     OW16735   4.614  10.875  13.658
71613SOL    HW116736   4.660  10.914  13.732
71613SOL    HW216737   4.678  10.875  13.587
71614SOL     OW16738   3.038  10.578   2.589
71614SOL    HW116739   3.063  10.641   2.658
71614SOL    HW216740   3.035  10.631   2.509
71615SOL     OW16741   3.172   7.892   3.492
71615SOL    HW116742   3.229   7.927   3.561
71615SOL    HW216743   3.134   7.813   3.531
71616SOL     OW16744  11.122   6.980   3.535
71616SOL    HW116745  11.053   7.043   3.554
71616SOL    HW216746  11.166   7.014   3.457
71617SOL     OW16747   4.502  10.008  14.496
71617SOL    HW116748   4.478  10.089  14.453
71617SOL    HW216749   4.524  10.034  14.586
71618SOL     OW16750   5.604  11.872  14.499
71618SOL    HW116751   5.525  11.842  14.544
71618SOL    HW216752   5.646  11.931  14.561
71619SOL     OW16753   4.292   3.418   3.097
71619SOL    HW116754   4.305   3.466   3.179
71619SOL    HW216755   4.244   3.480   3.041
71620SOL     OW16756  11.588   1.014   6.853
71620SOL    HW116757  11.522   1.043   6.790
71620SOL    HW216758  11.537   0.972   6.923
71621SOL     OW16759   2.427   2.528  12.566
71621SOL    HW116760   2.396   2.602  12.619
71621SOL    HW216761   2.439   2.457  12.629
71622SOL     OW16762   1.066   9.822   2.787
71622SOL    HW116763   1.026   9.738   2.765
71622SOL    HW216764   1.037   9.840   2.876
71623SOL     OW16765   7.721   2.082   6.545
71623SOL    HW116766   7.805   2.080   6.592
71623SOL    HW216767   7.668   2.145   6.594
71624SOL     OW16768   2.699   9.767   8.370
71624SOL    HW116769   2.780   9.750   8.322
71624SOL    HW216770   2.651   9.684   8.366
71625SOL     OW16771  10.646  13.437   8.989
71625SOL    HW116772  10.627  13.421   8.897
71625SOL    HW216773  10.662  13.351   9.027
71626SOL     OW16774   3.044  12.291  14.671
71626SOL    HW116775   3.045  12.312  14.764
71626SOL    HW216776   3.088  12.206  14.665
71627SOL     OW16777   4.625   2.519  11.089
71627SOL    HW116778   4.680   2.473  11.026
71627SOL    HW216779   4.549   2.546  11.039
71628SOL     OW16780  11.463   2.676   3.717
71628SOL    HW116781  11.461   2.772   3.709
71628SOL    HW216782  11.553   2.652   3.696
71629SOL     OW16783   5.664   9.811   3.714
71629SOL    HW116784   5.666   9.720   3.744
71629SOL    HW216785   5.688   9.863   3.791
71630SOL     OW16786   1.602  11.519   4.965
71630SOL    HW116787   1.684  11.567   4.962
71630SOL    HW216788   1.537  11.580   4.931
71631SOL     OW16789   1.753   9.150   6.450
71631SOL    HW116790   1.837   9.181   6.415
71631SOL    HW216791   1.707   9.115   6.374
71632SOL     OW16792   0.634   0.952   7.756
71632SOL    HW116793   0.672   0.947   7.844
71632SOL    HW216794   0.687   1.018   7.711
71633SOL     OW16795   4.526   4.653   9.481
71633SOL    HW116796   4.575   4.591   9.427
71633SOL    HW216797   4.443   4.666   9.433
71634SOL     OW16798  13.374  13.232   6.091
71634SOL    HW116799  13.410  13.312   6.052
71634SOL    HW216800  13.332  13.262   6.172
71635SOL     OW16801   5.568   6.665  12.705
71635SOL    HW116802   5.546   6.717  12.783
71635SOL    HW216803   5.616   6.726  12.649
71636SOL     OW16804  13.157   8.875   7.712
71636SOL    HW116805  13.201   8.936   7.771
71636SOL    HW216806  13.081   8.924   7.680
71637SOL     OW16807  10.431  10.275   3.980
71637SOL    HW116808  10.413  10.181   3.992
71637SOL    HW216809  10.385  10.297   3.899
71638SOL     OW16810  12.729   8.436   4.010
71638SOL    HW116811  12.789   8.362   4.021
71638SOL    HW216812  12.746   8.492   4.086
71639SOL     OW16813   9.598   0.999   7.291
71639SOL    HW116814   9.692   0.995   7.278
71639SOL    HW216815   9.588   1.015   7.385
71640SOL     OW16816   7.115  10.354   5.194
71640SOL    HW116817   7.064  10.426   5.158
71640SOL    HW216818   7.179  10.334   5.126
71641SOL     OW16819   7.021   6.385   6.542
71641SOL    HW116820   7.092   6.322   6.529
71641SOL    HW216821   7.042   6.457   6.483
71642SOL     OW16822   6.337  11.449   8.954
71642SOL    HW116823   6.315  11.394   9.029
71642SOL    HW216824   6.303  11.535   8.977
71643SOL     OW16825   3.677   1.209   8.547
71643SOL    HW116826   3.614   1.281   8.551
71643SOL    HW216827   3.651   1.150   8.617
71644SOL     OW16828  14.292  10.348  13.930
71644SOL    HW116829  14.340  10.270  13.900
71644SOL    HW216830  14.311  10.414  13.864
71645SOL     OW16831   7.298  10.128   9.967
71645SOL    HW116832   7.368  10.148   9.904
71645SOL    HW216833   7.275  10.037   9.948
71646SOL     OW16834   8.737   6.694   5.368
71646SOL    HW116835   8.664   6.633   5.372
71646SOL    HW216836   8.702   6.776   5.404
71647SOL     OW16837  14.517  14.493  12.877
71647SOL    HW116838  14.445  14.431  12.891
71647SOL    HW216839  14.565  14.458  12.802
71648SOL     OW16840  10.355   1.552   3.841
71648SOL    HW116841  10.445   1.585   3.842
71648SOL    HW216842  10.313   1.593   3.917
71649SOL     OW16843   1.387   8.531   2.992
71649SOL    HW116844   1.305   8.577   3.009
71649SOL    HW216845   1.444   8.554   3.066
71650SOL     OW16846   0.424   3.690   0.115
71650SOL    HW116847   0.436   3.604   0.074
71650SOL    HW216848   0.495   3.743   0.080
71651SOL     OW16849  14.573   5.598   7.894
71651SOL    HW116850  14.579   5.692   7.905
71651SOL    HW216851  14.648   5.563   7.941
71652SOL     OW16852   5.433   0.355   6.824
71652SOL    HW116853   5.420   0.294   6.751
71652SOL    HW216854   5.347   0.360   6.866
71653SOL     OW16855  13.231  10.783   8.709
71653SOL    HW116856  13.319  10.749   8.722
71653SOL    HW216857  13.236  10.835   8.629
71654SOL     OW16858  11.746  13.680   4.114
71654SOL    HW116859  11.738  13.773   4.137
71654SOL    HW216860  11.830  13.673   4.070
71655SOL     OW16861   5.198  13.349   3.861
71655SOL    HW116862   5.263  13.412   3.828
71655SOL    HW216863   5.242  13.307   3.935
71656SOL     OW16864   4.834   5.070   6.198
71656SOL    HW116865   4.816   5.022   6.279
71656SOL    HW216866   4.878   5.006   6.142
71657SOL     OW16867  13.495   9.996  11.049
71657SOL    HW116868  13.442   9.965  10.975
71657SOL    HW216869  13.573  10.033  11.009
71658SOL     OW16870  13.147   2.311   8.573
71658SOL    HW116871  13.167   2.279   8.661
71658SOL    HW216872  13.102   2.394   8.587
71659SOL     OW16873   5.105   0.280  12.581
71659SOL    HW116874   5.096   0.342  12.653
71659SOL    HW216875   5.156   0.207  12.618
71660SOL     OW16876   0.332   2.678   4.895
71660SOL    HW116877   0.266   2.647   4.834
71660SOL    HW216878   0.290   2.749   4.943
71661SOL     OW16879  10.845   5.602   6.761
71661SOL    HW116880  10.924   5.601   6.707
71661SOL    HW216881  10.777   5.564   6.704
71662SOL     OW16882  12.996  13.936  12.245
71662SOL    HW116883  12.942  14.001  12.290
71662SOL    HW216884  13.057  13.987  12.192
71663SOL     OW16885  14.787   9.863   2.433
71663SOL    HW116886  14.758   9.791   2.378
71663SOL    HW216887  14.713   9.880   2.491
71664SOL     OW16888   5.821  13.068   3.382
71664SOL    HW116889   5.856  13.157   3.371
71664SOL    HW216890   5.879  13.027   3.446
71665SOL     OW16891  10.958   6.876   2.406
71665SOL    HW116892  11.009   6.915   2.477
71665SOL    HW216893  10.869   6.906   2.422
71666SOL     OW16894   4.935   1.833   4.422
71666SOL    HW116895   5.022   1.816   4.458
71666SOL    HW216896   4.919   1.925   4.440
71667SOL     OW16897   9.784   5.029  14.080
71667SOL    HW116898   9.777   4.960  14.014
71667SOL    HW216899   9.752   5.108  14.035
71668SOL     OW16900   2.814   2.528   7.440
71668SOL    HW116901   2.847   2.601   7.388
71668SOL    HW216902   2.841   2.450   7.392
71669SOL     OW16903   3.354   4.430   7.182
71669SOL    HW116904   3.306   4.347   7.179
71669SOL    HW216905   3.332   4.468   7.266
71670SOL     OW16906   9.286   4.777  14.563
71670SOL    HW116907   9.295   4.831  14.641
71670SOL    HW216908   9.375   4.748  14.543
71671SOL     OW16909   8.932   7.474   5.926
71671SOL    HW116910   8.846   7.481   5.967
71671SOL    HW216911   8.991   7.516   5.989
71672SOL     OW16912  11.362   2.181  11.153
71672SOL    HW116913  11.381   2.257  11.207
71672SOL    HW216914  11.442   2.128  11.157
71673SOL     OW16915   3.439   2.202   0.905
71673SOL    HW116916   3.529   2.190   0.934
71673SOL    HW216917   3.390   2.132   0.948
71674SOL     OW16918  10.124  11.854  11.559
71674SOL    HW116919  10.089  11.943  11.570
71674SOL    HW216920  10.217  11.863  11.579
71675SOL     OW16921   0.708   6.329  14.781
71675SOL    HW116922   0.698   6.375  14.864
71675SOL    HW216923   0.645   6.372  14.722
71676SOL     OW16924   2.108   2.278   1.459
71676SOL    HW116925   2.114   2.373   1.454
71676SOL    HW216926   2.126   2.248   1.370
71677SOL     OW16927   4.921   3.470   1.659
71677SOL    HW116928   4.857   3.512   1.601
71677SOL    HW216929   4.921   3.378   1.632
71678SOL     OW16930   7.287   8.176   3.518
71678SOL    HW116931   7.212   8.116   3.517
71678SOL    HW216932   7.332   8.160   3.435
71679SOL     OW16933   9.422  11.606   7.841
71679SOL    HW116934   9.331  11.610   7.872
71679SOL    HW216935   9.421  11.539   7.772
71680SOL     OW16936   5.904  11.703   5.532
71680SOL    HW116937   5.963  11.739   5.598
71680SOL    HW216938   5.961  11.681   5.458
71681SOL     OW16939   8.834   1.116  12.915
71681SOL    HW116940   8.868   1.194  12.958
71681SOL    HW216941   8.892   1.045  12.943
71682SOL     OW16942   1.433   7.873   9.283
71682SOL    HW116943   1.484   7.942   9.325
71682SOL    HW216944   1.349   7.915   9.264
71683SOL     OW16945   0.543   5.089  13.664
71683SOL    HW116946   0.572   5.150  13.731
71683SOL    HW216947   0.551   5.002  13.705
71684SOL     OW16948  13.939   8.860   9.929
71684SOL    HW116949  13.846   8.838   9.924
71684SOL    HW216950  13.973   8.844   9.842
71685SOL     OW16951   8.382   3.117  11.810
71685SOL    HW116952   8.421   3.159  11.734
71685SOL    HW216953   8.383   3.185  11.878
71686SOL     OW16954   1.044   1.001  13.447
71686SOL    HW116955   1.075   0.944  13.376
71686SOL    HW216956   0.976   1.055  13.406
71687SOL     OW16957   2.095  13.346   9.488
71687SOL    HW116958   2.060  13.281   9.550
71687SOL    HW216959   2.090  13.429   9.536
71688SOL     OW16960   5.684   4.804   8.952
71688SOL    HW116961   5.739   4.754   9.012
71688SOL    HW216962   5.601   4.756   8.949
71689SOL     OW16963   4.676   0.324  10.094
71689SOL    HW116964   4.670   0.231  10.075
71689SOL    HW216965   4.585   0.353  10.100
71690SOL     OW16966   0.537  14.867   2.450
71690SOL    HW116967   0.526   0.017   2.361
71690SOL    HW216968   0.601   0.044   2.489
71691SOL     OW16969   8.555   3.640   4.466
71691SOL    HW116970   8.567   3.676   4.378
71691SOL    HW216971   8.496   3.702   4.509
71692SOL     OW16972  11.591   6.973   6.999
71692SOL    HW116973  11.595   6.881   7.026
71692SOL    HW216974  11.521   6.975   6.933
71693SOL     OW16975   8.529   1.509   6.285
71693SOL    HW116976   8.472   1.434   6.298
71693SOL    HW216977   8.617   1.472   6.280
71694SOL     OW16978   7.920   3.089   0.008
71694SOL    HW116979   7.833   3.051  14.880
71694SOL    HW216980   7.911   3.179  14.858
71695SOL     OW16981   1.670   8.113  13.878
71695SOL    HW116982   1.681   8.208  13.888
71695SOL    HW216983   1.644   8.102  13.786
71696SOL     OW16984   3.629  12.272   4.681
71696SOL    HW116985   3.639  12.199   4.742
71696SOL    HW216986   3.709  12.324   4.692
71697SOL     OW16987   3.311   8.554   5.379
71697SOL    HW116988   3.311   8.510   5.464
71697SOL    HW216989   3.297   8.646   5.399
71698SOL     OW16990   3.001   5.646   6.600
71698SOL    HW116991   2.937   5.696   6.550
71698SOL    HW216992   2.949   5.593   6.660
71699SOL     OW16993   7.410   4.757   9.289
71699SOL    HW116994   7.409   4.837   9.237
71699SOL    HW216995   7.340   4.703   9.251
71700SOL     OW16996   0.736   4.649   4.494
71700SOL    HW116997   0.827   4.620   4.495
71700SOL    HW216998   0.709   4.648   4.585
71701SOL     OW16999   2.949   8.806   5.026
71701SOL    HW117000   2.941   8.758   4.944
71701SOL    HW217001   3.024   8.864   5.013
71702SOL     OW17002  11.990  14.020   6.703
71702SOL    HW117003  11.904  13.979   6.701
71702SOL    HW217004  12.017  14.025   6.611
71703SOL     OW17005   4.095   9.810   1.350
71703SOL    HW117006   4.034   9.741   1.374
71703SOL    HW217007   4.119   9.791   1.259
71704SOL     OW17008   1.637   3.829   5.357
71704SOL    HW117009   1.601   3.902   5.307
71704SOL    HW217010   1.624   3.854   5.448
71705SOL     OW17011   4.965  10.032   9.660
71705SOL    HW117012   4.886   9.989   9.691
71705SOL    HW217013   5.037   9.985   9.703
71706SOL     OW17014   5.560   0.395  14.841
71706SOL    HW117015   5.496   0.330  14.870
71706SOL    HW217016   5.509   0.459  14.792
71707SOL     OW17017   2.225   0.487   7.839
71707SOL    HW117018   2.285   0.561   7.849
71707SOL    HW217019   2.138   0.528   7.834
71708SOL     OW17020  13.121   2.487   6.039
71708SOL    HW117021  13.173   2.538   5.977
71708SOL    HW217022  13.178   2.475   6.114
71709SOL     OW17023   0.099  13.001  10.674
71709SOL    HW117024   0.051  13.000  10.757
71709SOL    HW217025   0.102  12.909  10.647
71710SOL     OW17026   3.009  14.869   3.732
71710SOL    HW117027   2.932   0.044   3.731
71710SOL    HW217028   3.003  14.819   3.651
71711SOL     OW17029   7.019  13.076   6.776
71711SOL    HW117030   6.977  13.161   6.765
71711SOL    HW217031   6.950  13.013   6.752
71712SOL     OW17032   1.970   0.808   6.585
71712SOL    HW117033   2.045   0.867   6.598
71712SOL    HW217034   2.008   0.726   6.557
71713SOL     OW17035   2.221  13.129   3.010
71713SOL    HW117036   2.150  13.145   2.948
71713SOL    HW217037   2.300  13.152   2.962
71714SOL     OW17038  12.691   6.794   7.404
71714SOL    HW117039  12.672   6.750   7.321
71714SOL    HW217040  12.657   6.735   7.471
71715SOL     OW17041  13.172   9.541   3.024
71715SOL    HW117042  13.171   9.445   3.020
71715SOL    HW217043  13.221   9.567   2.946
71716SOL     OW17044   5.251  13.063   8.266
71716SOL    HW117045   5.216  13.048   8.178
71716SOL    HW217046   5.318  13.131   8.254
71717SOL     OW17047  13.149  13.013  12.076
71717SOL    HW117048  13.156  12.987  11.984
71717SOL    HW217049  13.101  12.942  12.118
71718SOL     OW17050   9.691   0.284   4.759
71718SOL    HW117051   9.650   0.212   4.711
71718SOL    HW217052   9.638   0.361   4.737
71719SOL     OW17053  14.186   5.368   7.020
71719SOL    HW117054  14.247   5.390   6.950
71719SOL    HW217055  14.241   5.349   7.096
71720SOL     OW17056  11.246   8.905   5.182
71720SOL    HW117057  11.274   8.902   5.274
71720SOL    HW217058  11.158   8.943   5.185
71721SOL     OW17059  12.408   8.486   0.354
71721SOL    HW117060  12.422   8.550   0.424
71721SOL    HW217061  12.321   8.506   0.320
71722SOL     OW17062  13.669   7.143  14.797
71722SOL    HW117063  13.710   7.229  14.803
71722SOL    HW217064  13.731   7.090  14.747
71723SOL     OW17065   7.066   9.865   9.568
71723SOL    HW117066   7.107   9.779   9.570
71723SOL    HW217067   7.030   9.877   9.656
71724SOL     OW17068   0.784  13.064   4.389
71724SOL    HW117069   0.737  13.145   4.411
71724SOL    HW217070   0.778  13.011   4.469
71725SOL     OW17071   3.064  13.118  10.031
71725SOL    HW117072   3.159  13.131  10.024
71725SOL    HW217073   3.037  13.176  10.102
71726SOL     OW17074  14.658   9.962   9.497
71726SOL    HW117075  14.654   9.880   9.546
71726SOL    HW217076  14.604   9.947   9.419
71727SOL     OW17077   5.742  14.240   9.692
71727SOL    HW117078   5.775  14.180   9.759
71727SOL    HW217079   5.654  14.207   9.672
71728SOL     OW17080  14.549   0.676   9.306
71728SOL    HW117081  14.577   0.586   9.287
71728SOL    HW217082  14.456   0.668   9.330
71729SOL     OW17083   0.806   3.615   2.434
71729SOL    HW117084   0.780   3.523   2.428
71729SOL    HW217085   0.803   3.635   2.527
71730SOL     OW17086  14.675  11.160  12.476
71730SOL    HW117087  14.620  11.221  12.525
71730SOL    HW217088  14.613  11.105  12.428
71731SOL     OW17089  10.791  14.714   8.306
71731SOL    HW117090  10.783  14.698   8.400
71731SOL    HW217091  10.881  14.742   8.294
71732SOL     OW17092   5.438   5.934  14.229
71732SOL    HW117093   5.528   5.905  14.221
71732SOL    HW217094   5.387   5.853  14.233
71733SOL     OW17095  11.503   7.915  10.689
71733SOL    HW117096  11.533   7.884  10.775
71733SOL    HW217097  11.439   7.850  10.661
71734SOL     OW17098   9.574  13.067  10.798
71734SOL    HW117099   9.507  13.007  10.766
71734SOL    HW217100   9.536  13.105  10.877
71735SOL     OW17101   4.548   7.331  12.758
71735SOL    HW117102   4.455   7.311  12.748
71735SOL    HW217103   4.550   7.420  12.794
71736SOL     OW17104   1.944  13.514   3.797
71736SOL    HW117105   2.008  13.584   3.810
71736SOL    HW217106   1.871  13.556   3.753
71737SOL     OW17107   3.114   5.959   0.823
71737SOL    HW117108   3.059   5.882   0.806
71737SOL    HW217109   3.162   5.937   0.903
71738SOL     OW17110   8.439   8.622   3.518
71738SOL    HW117111   8.374   8.669   3.571
71738SOL    HW217112   8.450   8.539   3.564
71739SOL     OW17113   5.352   7.066  10.836
71739SOL    HW117114   5.443   7.096  10.835
71739SOL    HW217115   5.334   7.037  10.747
71740SOL     OW17116   2.090  11.611  10.747
71740SOL    HW117117   2.182  11.596  10.768
71740SOL    HW217118   2.091  11.658  10.663
71741SOL     OW17119   8.268  10.770   6.254
71741SOL    HW117120   8.292  10.739   6.167
71741SOL    HW217121   8.191  10.718   6.278
71742SOL     OW17122  10.326   8.999  11.755
71742SOL    HW117123  10.339   9.001  11.850
71742SOL    HW217124  10.242   9.043  11.741
71743SOL     OW17125   3.716   6.080   3.668
71743SOL    HW117126   3.685   6.169   3.654
71743SOL    HW217127   3.654   6.025   3.620
71744SOL     OW17128   7.100   4.207   6.798
71744SOL    HW117129   7.080   4.119   6.766
71744SOL    HW217130   7.016   4.242   6.827
71745SOL     OW17131  13.041   3.878   2.585
71745SOL    HW117132  12.971   3.832   2.632
71745SOL    HW217133  13.038   3.844   2.496
71746SOL     OW17134   1.319   4.091   0.424
71746SOL    HW117135   1.401   4.112   0.379
71746SOL    HW217136   1.345   4.061   0.511
71747SOL     OW17137  11.473  10.153   0.439
71747SOL    HW117138  11.483  10.159   0.344
71747SOL    HW217139  11.380  10.130   0.452
71748SOL     OW17140  10.421   6.501   2.054
71748SOL    HW117141  10.395   6.495   1.963
71748SOL    HW217142  10.482   6.429   2.067
71749SOL     OW17143  10.694   7.989   2.845
71749SOL    HW117144  10.663   7.947   2.765
71749SOL    HW217145  10.691   7.920   2.911
71750SOL     OW17146   7.388  14.380   3.635
71750SOL    HW117147   7.400  14.319   3.708
71750SOL    HW217148   7.434  14.460   3.662
71751SOL     OW17149   1.195   4.018   9.541
71751SOL    HW117150   1.156   3.958   9.605
71751SOL    HW217151   1.131   4.088   9.531
71752SOL     OW17152   3.912  10.728  12.834
71752SOL    HW117153   3.820  10.755  12.826
71752SOL    HW217154   3.950  10.789  12.896
71753SOL     OW17155  14.005  12.770  10.194
71753SOL    HW117156  13.943  12.818  10.139
71753SOL    HW217157  14.045  12.837  10.249
71754SOL     OW17158   9.161   4.109  13.913
71754SOL    HW117159   9.085   4.102  13.855
71754SOL    HW217160   9.206   4.188  13.885
71755SOL     OW17161   8.087   5.748   4.190
71755SOL    HW117162   8.045   5.687   4.129
71755SOL    HW217163   8.049   5.727   4.275
71756SOL     OW17164   0.077  10.805   4.015
71756SOL    HW117165   0.163  10.826   4.049
71756SOL    HW217166   0.085  10.817   3.920
71757SOL     OW17167   7.186   2.405   7.326
71757SOL    HW117168   7.256   2.463   7.298
71757SOL    HW217169   7.228   2.319   7.333
71758SOL     OW17170  12.492  13.658   1.818
71758SOL    HW117171  12.420  13.603   1.786
71758SOL    HW217172  12.569  13.627   1.771
71759SOL     OW17173  10.641  13.837  10.150
71759SOL    HW117174  10.701  13.902  10.187
71759SOL    HW217175  10.563  13.842  10.206
71760SOL     OW17176   2.419   9.472   4.962
71760SOL    HW117177   2.405   9.381   4.938
71760SOL    HW217178   2.418   9.472   5.058
71761SOL     OW17179   2.208  12.740   3.405
71761SOL    HW117180   2.141  12.684   3.365
71761SOL    HW217181   2.264  12.766   3.332
71762SOL     OW17182  11.407  14.300   8.171
71762SOL    HW117183  11.371  14.275   8.256
71762SOL    HW217184  11.498  14.321   8.190
71763SOL     OW17185   3.671   8.429   2.100
71763SOL    HW117186   3.747   8.404   2.152
71763SOL    HW217187   3.604   8.449   2.165
71764SOL     OW17188   5.453   8.723   1.059
71764SOL    HW117189   5.485   8.729   1.149
71764SOL    HW217190   5.532   8.734   1.006
71765SOL     OW17191   3.295   1.340   5.902
71765SOL    HW117192   3.201   1.342   5.922
71765SOL    HW217193   3.304   1.275   5.832
71766SOL     OW17194   2.809  10.592   9.781
71766SOL    HW117195   2.810  10.547   9.696
71766SOL    HW217196   2.728  10.563   9.823
71767SOL     OW17197   3.043   8.585   7.816
71767SOL    HW117198   3.088   8.648   7.759
71767SOL    HW217199   3.093   8.585   7.897
71768SOL     OW17200  11.052   9.871   6.849
71768SOL    HW117201  10.984   9.806   6.834
71768SOL    HW217202  11.113   9.859   6.776
71769SOL     OW17203   8.150   2.634   5.152
71769SOL    HW117204   8.066   2.674   5.175
71769SOL    HW217205   8.166   2.662   5.062
71770SOL     OW17206   5.198   0.853  12.859
71770SOL    HW117207   5.189   0.945  12.834
71770SOL    HW217208   5.139   0.842  12.934
71771SOL     OW17209  10.565   1.940   1.871
71771SOL    HW117210  10.629   1.946   1.941
71771SOL    HW217211  10.616   1.945   1.790
71772SOL     OW17212   0.062  10.765  11.253
71772SOL    HW117213  14.854  10.766  11.285
71772SOL    HW217214   0.115  10.754  11.333
71773SOL     OW17215   5.021   5.891  12.577
71773SOL    HW117216   4.991   5.924  12.662
71773SOL    HW217217   4.940   5.875  12.528
71774SOL     OW17218   0.790   0.357   5.870
71774SOL    HW117219   0.707   0.404   5.867
71774SOL    HW217220   0.829   0.382   5.953
71775SOL     OW17221  13.721  13.298   5.625
71775SOL    HW117222  13.726  13.202   5.618
71775SOL    HW217223  13.719  13.314   5.719
71776SOL     OW17224  11.563  12.526  11.176
71776SOL    HW117225  11.537  12.582  11.103
71776SOL    HW217226  11.655  12.545  11.190
71777SOL     OW17227   9.440  10.479  10.682
71777SOL    HW117228   9.454  10.569  10.712
71777SOL    HW217229   9.439  10.428  10.763
71778SOL     OW17230   9.508   4.771   7.824
71778SOL    HW117231   9.531   4.684   7.791
71778SOL    HW217232   9.516   4.764   7.919
71779SOL     OW17233  12.908   7.369   5.127
71779SOL    HW117234  12.827   7.359   5.177
71779SOL    HW217235  12.935   7.279   5.106
71780SOL     OW17236   7.875   7.845   0.906
71780SOL    HW117237   7.893   7.910   0.839
71780SOL    HW217238   7.787   7.867   0.938
71781SOL     OW17239  12.364   6.919  11.485
71781SOL    HW117240  12.453   6.886  11.493
71781SOL    HW217241  12.314   6.874  11.553
71782SOL     OW17242   6.613   5.370   5.258
71782SOL    HW117243   6.520   5.394   5.258
71782SOL    HW217244   6.630   5.343   5.168
71783SOL     OW17245   5.519   8.248   6.147
71783SOL    HW117246   5.518   8.305   6.224
71783SOL    HW217247   5.488   8.304   6.076
71784SOL     OW17248   1.768   4.815   9.110
71784SOL    HW117249   1.687   4.780   9.147
71784SOL    HW217250   1.826   4.738   9.104
71785SOL     OW17251  13.076   5.482  14.709
71785SOL    HW117252  12.983   5.460  14.700
71785SOL    HW217253  13.089   5.490  14.804
71786SOL     OW17254   6.851  11.404  12.986
71786SOL    HW117255   6.804  11.331  12.947
71786SOL    HW217256   6.786  11.475  12.990
71787SOL     OW17257  12.603   8.918   3.627
71787SOL    HW117258  12.549   8.846   3.659
71787SOL    HW217259  12.602   8.982   3.698
71788SOL     OW17260  10.955   5.008  10.781
71788SOL    HW117261  10.948   5.002  10.686
71788SOL    HW217262  10.941   4.918  10.812
71789SOL     OW17263   3.957   6.141   0.646
71789SOL    HW117264   3.924   6.207   0.585
71789SOL    HW217265   4.019   6.089   0.594
71790SOL     OW17266   9.441   5.555   3.343
71790SOL    HW117267   9.459   5.461   3.334
71790SOL    HW217268   9.415   5.582   3.255
71791SOL     OW17269   1.706   2.800   9.581
71791SOL    HW117270   1.684   2.875   9.635
71791SOL    HW217271   1.774   2.753   9.630
71792SOL     OW17272   4.536   7.224  11.798
71792SOL    HW117273   4.621   7.182  11.785
71792SOL    HW217274   4.478   7.152  11.824
71793SOL     OW17275   6.728   2.540   7.575
71793SOL    HW117276   6.678   2.519   7.496
71793SOL    HW217277   6.799   2.476   7.577
71794SOL     OW17278   4.306   9.119   0.218
71794SOL    HW117279   4.317   9.214   0.221
71794SOL    HW217280   4.231   9.106   0.160
71795SOL     OW17281  13.387   7.637   0.693
71795SOL    HW117282  13.292   7.627   0.687
71795SOL    HW217283  13.409   7.695   0.620
71796SOL     OW17284   0.017   0.751  13.775
71796SOL    HW117285  14.823   0.769  13.719
71796SOL    HW217286  14.866   0.689  13.840
71797SOL     OW17287  11.364  11.655   9.729
71797SOL    HW117288  11.294  11.711   9.694
71797SOL    HW217289  11.325  11.616   9.808
71798SOL     OW17290  14.392   6.811   9.667
71798SOL    HW117291  14.299   6.813   9.644
71798SOL    HW217292  14.438   6.822   9.583
71799SOL     OW17293  12.934   6.516   7.833
71799SOL    HW117294  12.890   6.576   7.894
71799SOL    HW217295  12.898   6.539   7.747
71800SOL     OW17296   9.959   7.172   6.419
71800SOL    HW117297  10.030   7.152   6.480
71800SOL    HW217298   9.937   7.088   6.379
71801SOL     OW17299  13.782   8.097   7.113
71801SOL    HW117300  13.846   8.150   7.065
71801SOL    HW217301  13.722   8.066   7.046
71802SOL     OW17302  10.738   3.073  14.590
71802SOL    HW117303  10.782   3.064  14.675
71802SOL    HW217304  10.706   3.163  14.589
71803SOL     OW17305   9.276  12.294   8.163
71803SOL    HW117306   9.322  12.367   8.203
71803SOL    HW217307   9.306  12.217   8.213
71804SOL     OW17308   0.393   3.387   8.571
71804SOL    HW117309   0.484   3.363   8.557
71804SOL    HW217310   0.385   3.473   8.529
71805SOL     OW17311  12.517   8.576  12.654
71805SOL    HW117312  12.546   8.588  12.744
71805SOL    HW217313  12.527   8.483  12.637
71806SOL     OW17314  11.794   7.019   5.660
71806SOL    HW117315  11.758   7.097   5.618
71806SOL    HW217316  11.821   7.048   5.747
71807SOL     OW17317   7.662   1.399   3.866
71807SOL    HW117318   7.632   1.443   3.945
71807SOL    HW217319   7.582   1.370   3.823
71808SOL     OW17320   7.575   4.763  13.359
71808SOL    HW117321   7.555   4.736  13.448
71808SOL    HW217322   7.555   4.856  13.357
71809SOL     OW17323   7.302  10.257   5.016
71809SOL    HW117324   7.284  10.180   4.962
71809SOL    HW217325   7.314  10.328   4.954
71810SOL     OW17326   9.121   4.963  11.991
71810SOL    HW117327   9.067   5.027  12.037
71810SOL    HW217328   9.071   4.939  11.913
71811SOL     OW17329   0.503  14.566   7.035
71811SOL    HW117330   0.490  14.569   6.941
71811SOL    HW217331   0.456  14.488   7.064
71812SOL     OW17332   0.219   3.375   6.513
71812SOL    HW117333   0.178   3.330   6.439
71812SOL    HW217334   0.183   3.464   6.510
71813SOL     OW17335   1.639  13.740   2.705
71813SOL    HW117336   1.577  13.710   2.772
71813SOL    HW217337   1.719  13.759   2.753
71814SOL     OW17338  11.427  14.411   0.652
71814SOL    HW117339  11.456  14.497   0.684
71814SOL    HW217340  11.503  14.376   0.606
71815SOL     OW17341  14.359  11.042   9.788
71815SOL    HW117342  14.327  11.120   9.742
71815SOL    HW217343  14.419  11.076   9.854
71816SOL     OW17344  12.783  14.784  13.054
71816SOL    HW117345  12.829  14.822  13.130
71816SOL    HW217346  12.700  14.831  13.050
71817SOL     OW17347   2.539  11.643   5.745
71817SOL    HW117348   2.482  11.665   5.672
71817SOL    HW217349   2.627  11.642   5.707
71818SOL     OW17350  11.309  10.973   1.435
71818SOL    HW117351  11.273  11.044   1.381
71818SOL    HW217352  11.337  11.016   1.516
71819SOL     OW17353   0.309   8.474   8.261
71819SOL    HW117354   0.274   8.407   8.203
71819SOL    HW217355   0.275   8.557   8.226
71820SOL     OW17356   1.552  12.757  12.431
71820SOL    HW117357   1.540  12.851  12.417
71820SOL    HW217358   1.542  12.718  12.344
71821SOL     OW17359  14.310   9.341   0.661
71821SOL    HW117360  14.268   9.400   0.598
71821SOL    HW217361  14.282   9.373   0.747
71822SOL     OW17362   9.909   6.888   9.932
71822SOL    HW117363   9.861   6.857  10.009
71822SOL    HW217364   9.910   6.813   9.872
71823SOL     OW17365  12.372   8.939   9.218
71823SOL    HW117366  12.306   8.954   9.151
71823SOL    HW217367  12.348   8.856   9.258
71824SOL     OW17368   4.574   6.238  13.661
71824SOL    HW117369   4.563   6.322  13.705
71824SOL    HW217370   4.646   6.196  13.708
71825SOL     OW17371   3.656  11.359   0.238
71825SOL    HW117372   3.751  11.366   0.229
71825SOL    HW217373   3.643  11.286   0.298
71826SOL     OW17374   7.470   2.453  12.568
71826SOL    HW117375   7.560   2.442  12.598
71826SOL    HW217376   7.456   2.383  12.505
71827SOL     OW17377  14.719   2.740   5.878
71827SOL    HW117378  14.811   2.735   5.902
71827SOL    HW217379  14.672   2.744   5.961
71828SOL     OW17380   2.268   8.635   2.958
71828SOL    HW117381   2.255   8.617   3.052
71828SOL    HW217382   2.331   8.570   2.929
71829SOL     OW17383   7.176  13.109   3.511
71829SOL    HW117384   7.233  13.152   3.575
71829SOL    HW217385   7.229  13.102   3.432
71830SOL     OW17386   5.511   6.219  12.453
71830SOL    HW117387   5.586   6.242  12.398
71830SOL    HW217388   5.502   6.292  12.514
71831SOL     OW17389   5.158  14.487   7.244
71831SOL    HW117390   5.121  14.528   7.323
71831SOL    HW217391   5.251  14.508   7.248
71832SOL     OW17392  13.370   7.407   5.501
71832SOL    HW117393  13.326   7.334   5.544
71832SOL    HW217394  13.417   7.367   5.428
71833SOL     OW17395  14.631  12.248   8.315
71833SOL    HW117396  14.549  12.198   8.309
71833SOL    HW217397  14.603  12.338   8.334
71834SOL     OW17398   0.550  14.738   7.240
71834SOL    HW117399   0.519  14.685   7.167
71834SOL    HW217400   0.573  14.675   7.308
71835SOL     OW17401   6.580   1.332   4.334
71835SOL    HW117402   6.549   1.333   4.243
71835SOL    HW217403   6.640   1.406   4.339
71836SOL     OW17404  12.840   8.128   1.382
71836SOL    HW117405  12.877   8.216   1.385
71836SOL    HW217406  12.871   8.092   1.299
71837SOL     OW17407   4.100  12.968   0.196
71837SOL    HW117408   4.088  13.059   0.166
71837SOL    HW217409   4.014  12.944   0.231
71838SOL     OW17410  14.814   3.037  14.879
71838SOL    HW117411  14.845   2.992   0.076
71838SOL    HW217412  14.805   2.968  14.814
71839SOL     OW17413   0.666   8.852  12.627
71839SOL    HW117414   0.655   8.764  12.593
71839SOL    HW217415   0.686   8.906  12.551
71840SOL     OW17416   3.021   9.502  13.918
71840SOL    HW117417   3.115   9.503  13.899
71840SOL    HW217418   2.981   9.469  13.838
71841SOL     OW17419   2.777  14.153   2.606
71841SOL    HW117420   2.803  14.179   2.694
71841SOL    HW217421   2.767  14.058   2.610
71842SOL     OW17422   4.517   0.353   9.153
71842SOL    HW117423   4.600   0.359   9.199
71842SOL    HW217424   4.532   0.400   9.071
71843SOL     OW17425   0.736   2.941   9.779
71843SOL    HW117426   0.698   3.024   9.805
71843SOL    HW217427   0.827   2.961   9.758
71844SOL     OW17428   3.566   4.590   4.520
71844SOL    HW117429   3.572   4.515   4.580
71844SOL    HW217430   3.552   4.550   4.434
71845SOL     OW17431   7.935  14.813  13.185
71845SOL    HW117432   7.968   0.004  13.132
71845SOL    HW217433   7.914  14.851  13.270
71846SOL     OW17434   6.036   4.261   4.037
71846SOL    HW117435   6.106   4.304   4.087
71846SOL    HW217436   5.982   4.217   4.103
71847SOL     OW17437   4.729  10.014   2.329
71847SOL    HW117438   4.705  10.068   2.253
71847SOL    HW217439   4.815  10.047   2.355
71848SOL     OW17440  12.128   1.108   2.736
71848SOL    HW117441  12.157   1.123   2.826
71848SOL    HW217442  12.194   1.152   2.682
71849SOL     OW17443  14.106  10.478   8.480
71849SOL    HW117444  14.037  10.541   8.498
71849SOL    HW217445  14.168  10.525   8.425
71850SOL     OW17446   9.086  10.575  10.975
71850SOL    HW117447   9.077  10.638  10.904
71850SOL    HW217448   9.001  10.574  11.017
71851SOL     OW17449  13.577  13.246  13.094
71851SOL    HW117450  13.514  13.242  13.165
71851SOL    HW217451  13.605  13.156  13.081
71852SOL     OW17452  10.821  11.080  12.989
71852SOL    HW117453  10.749  11.136  12.959
71852SOL    HW217454  10.857  11.126  13.065
71853SOL     OW17455  14.712   8.130  11.346
71853SOL    HW117456  14.679   8.137  11.257
71853SOL    HW217457  14.699   8.217  11.383
71854SOL     OW17458   6.918   3.419   5.996
71854SOL    HW117459   6.854   3.467   6.049
71854SOL    HW217460   6.922   3.332   6.036
71855SOL     OW17461  14.130   0.135   4.335
71855SOL    HW117462  14.086   0.181   4.406
71855SOL    HW217463  14.166   0.057   4.376
71856SOL     OW17464   1.996   1.572   1.119
71856SOL    HW117465   1.986   1.591   1.213
71856SOL    HW217466   1.922   1.515   1.099
71857SOL     OW17467   9.717   5.260   7.352
71857SOL    HW117468   9.679   5.223   7.272
71857SOL    HW217469   9.738   5.183   7.405
71858SOL     OW17470  10.780   6.675   3.919
71858SOL    HW117471  10.687   6.651   3.921
71858SOL    HW217472  10.814   6.647   4.003
71859SOL     OW17473   4.419  10.164   4.502
71859SOL    HW117474   4.345  10.218   4.529
71859SOL    HW217475   4.462  10.216   4.433
71860SOL     OW17476   2.325   1.524  12.718
71860SOL    HW117477   2.310   1.545  12.626
71860SOL    HW217478   2.245   1.552  12.762
71861SOL     OW17479  12.725   1.899   6.276
71861SOL    HW117480  12.704   1.820   6.325
71861SOL    HW217481  12.793   1.943   6.328
71862SOL     OW17482   2.538   0.088  13.221
71862SOL    HW117483   2.454   0.096  13.175
71862SOL    HW217484   2.603   0.116  13.157
71863SOL     OW17485   2.945   1.448   9.925
71863SOL    HW117486   2.861   1.441   9.880
71863SOL    HW217487   3.011   1.446   9.856
71864SOL     OW17488   9.295   4.775   4.292
71864SOL    HW117489   9.260   4.708   4.350
71864SOL    HW217490   9.264   4.858   4.329
71865SOL     OW17491   4.912   9.750   0.378
71865SOL    HW117492   4.867   9.778   0.457
71865SOL    HW217493   4.924   9.830   0.327
71866SOL     OW17494  10.307   8.195   7.000
71866SOL    HW117495  10.284   8.258   7.069
71866SOL    HW217496  10.392   8.224   6.969
71867SOL     OW17497   5.301   0.763  12.475
71867SOL    HW117498   5.293   0.844  12.424
71867SOL    HW217499   5.218   0.756  12.522
71868SOL     OW17500   9.036   4.243   6.853
71868SOL    HW117501   9.073   4.211   6.935
71868SOL    HW217502   9.111   4.252   6.794
71869SOL     OW17503   0.031   2.231  10.655
71869SOL    HW117504   0.113   2.182  10.667
71869SOL    HW217505  14.856   2.171  10.607
71870SOL     OW17506   8.126   5.095   9.319
71870SOL    HW117507   8.100   5.146   9.242
71870SOL    HW217508   8.208   5.054   9.293
71871SOL     OW17509   2.653   8.877   3.453
71871SOL    HW117510   2.690   8.846   3.370
71871SOL    HW217511   2.657   8.972   3.447
71872SOL     OW17512   7.410  14.421  11.101
71872SOL    HW117513   7.465  14.427  11.179
71872SOL    HW217514   7.341  14.486  11.116
71873SOL     OW17515  13.950  14.665  14.024
71873SOL    HW117516  13.870  14.676  14.076
71873SOL    HW217517  14.018  14.645  14.088
71874SOL     OW17518   6.422   1.177   7.284
71874SOL    HW117519   6.338   1.158   7.241
71874SOL    HW217520   6.435   1.271   7.271
71875SOL     OW17521   1.992  13.662   9.904
71875SOL    HW117522   1.944  13.743   9.889
71875SOL    HW217523   1.980  13.644   9.997
71876SOL     OW17524   6.868   1.062   7.081
71876SOL    HW117525   6.957   1.083   7.110
71876SOL    HW217526   6.818   1.054   7.163
71877SOL     OW17527  10.781   4.961  13.593
71877SOL    HW117528  10.713   4.959  13.661
71877SOL    HW217529  10.778   5.050  13.559
71878SOL     OW17530  12.985   1.191   0.745
71878SOL    HW117531  13.080   1.199   0.756
71878SOL    HW217532  12.958   1.276   0.710
71879SOL     OW17533   4.450   1.713   2.456
71879SOL    HW117534   4.371   1.738   2.409
71879SOL    HW217535   4.501   1.664   2.392
71880SOL     OW17536   5.302  14.503   6.833
71880SOL    HW117537   5.330  14.539   6.749
71880SOL    HW217538   5.232  14.561   6.863
71881SOL     OW17539   7.510  11.114   6.389
71881SOL    HW117540   7.529  11.020   6.391
71881SOL    HW217541   7.417  11.120   6.409
71882SOL     OW17542  10.365   5.256   6.472
71882SOL    HW117543  10.458   5.248   6.495
71882SOL    HW217544  10.360   5.332   6.415
71883SOL     OW17545   7.670   8.135   2.323
71883SOL    HW117546   7.710   8.052   2.352
71883SOL    HW217547   7.739   8.178   2.272
71884SOL     OW17548   9.982   0.155   6.599
71884SOL    HW117549  10.072   0.136   6.572
71884SOL    HW217550   9.972   0.111   6.683
71885SOL     OW17551   0.076   2.697   3.038
71885SOL    HW117552   0.164   2.708   3.076
71885SOL    HW217553   0.019   2.750   3.095
71886SOL     OW17554   1.969   8.189   6.260
71886SOL    HW117555   2.026   8.170   6.186
71886SOL    HW217556   1.880   8.182   6.225
71887SOL     OW17557  10.925   2.991  10.835
71887SOL    HW117558  10.837   3.013  10.864
71887SOL    HW217559  10.913   2.947  10.752
71888SOL     OW17560   9.723   5.210  12.577
71888SOL    HW117561   9.695   5.289  12.531
71888SOL    HW217562   9.648   5.185  12.630
71889SOL     OW17563   2.920  13.581   9.508
71889SOL    HW117564   2.826  13.568   9.519
71889SOL    HW217565   2.930  13.612   9.418
71890SOL     OW17566   6.014   0.364   6.743
71890SOL    HW117567   6.009   0.440   6.685
71890SOL    HW217568   6.108   0.353   6.759
71891SOL     OW17569   3.104   9.210  12.721
71891SOL    HW117570   3.019   9.181  12.752
71891SOL    HW217571   3.088   9.239  12.631
71892SOL     OW17572   5.026   1.358  12.117
71892SOL    HW117573   4.988   1.371  12.030
71892SOL    HW217574   5.064   1.443  12.140
71893SOL     OW17575   0.031   6.004   4.324
71893SOL    HW117576   0.008   5.932   4.383
71893SOL    HW217577  14.831   6.024   4.278
71894SOL     OW17578   3.141   2.901  12.964
71894SOL    HW117579   3.235   2.916  12.952
71894SOL    HW217580   3.136   2.835  13.033
71895SOL     OW17581  13.487   4.362   7.821
71895SOL    HW117582  13.501   4.423   7.892
71895SOL    HW217583  13.515   4.277   7.856
71896SOL     OW17584   6.917  11.371   7.675
71896SOL    HW117585   6.912  11.279   7.701
71896SOL    HW217586   6.963  11.369   7.591
71897SOL     OW17587   8.337  12.653  13.955
71897SOL    HW117588   8.359  12.667  13.863
71897SOL    HW217589   8.304  12.737  13.985
71898SOL     OW17590  10.028  12.274   1.582
71898SOL    HW117591  10.045  12.309   1.494
71898SOL    HW217592   9.938  12.243   1.578
71899SOL     OW17593   4.413  11.696  12.590
71899SOL    HW117594   4.408  11.656  12.503
71899SOL    HW217595   4.434  11.788  12.573
71900SOL     OW17596  12.571   3.266   9.116
71900SOL    HW117597  12.509   3.326   9.157
71900SOL    HW217598  12.570   3.188   9.172
71901SOL     OW17599   7.865   4.436  12.128
71901SOL    HW117600   7.937   4.479  12.174
71901SOL    HW217601   7.902   4.353  12.099
71902SOL     OW17602  10.994   6.746  14.811
71902SOL    HW117603  11.084   6.725  14.835
71902SOL    HW217604  10.941   6.676  14.849
71903SOL     OW17605   7.471  14.534   8.387
71903SOL    HW117606   7.556  14.578   8.395
71903SOL    HW217607   7.490  14.455   8.336
71904SOL     OW17608   4.411   2.594   2.239
71904SOL    HW117609   4.385   2.686   2.244
71904SOL    HW217610   4.385   2.566   2.151
71905SOL     OW17611  14.056   2.493   9.025
71905SOL    HW117612  14.116   2.418   9.024
71905SOL    HW217613  14.020   2.495   8.936
71906SOL     OW17614   4.839   5.444  13.683
71906SOL    HW117615   4.928   5.473  13.701
71906SOL    HW217616   4.788   5.525  13.679
71907SOL     OW17617   7.709  13.561   6.433
71907SOL    HW117618   7.642  13.494   6.444
71907SOL    HW217619   7.676  13.617   6.363
71908SOL     OW17620  13.539  14.806  13.838
71908SOL    HW117621  13.468  14.870  13.839
71908SOL    HW217622  13.618  14.858  13.857
71909SOL     OW17623   9.969  13.832   4.359
71909SOL    HW117624   9.909  13.773   4.312
71909SOL    HW217625  10.049  13.830   4.308
71910SOL     OW17626   9.736  12.627   3.562
71910SOL    HW117627   9.755  12.699   3.501
71910SOL    HW217628   9.662  12.582   3.521
71911SOL     OW17629   0.659  11.793   5.569
71911SOL    HW117630   0.673  11.815   5.661
71911SOL    HW217631   0.572  11.827   5.550
71912SOL     OW17632   8.927  10.358   0.798
71912SOL    HW117633   8.917  10.426   0.864
71912SOL    HW217634   9.010  10.315   0.820
71913SOL     OW17635   5.810   1.881   1.514
71913SOL    HW117636   5.730   1.885   1.461
71913SOL    HW217637   5.833   1.973   1.528
71914SOL     OW17638  12.430  13.433  10.247
71914SOL    HW117639  12.491  13.494  10.289
71914SOL    HW217640  12.487  13.367  10.206
71915SOL     OW17641   3.131   3.304   8.952
71915SOL    HW117642   3.093   3.391   8.965
71915SOL    HW217643   3.123   3.288   8.858
71916SOL     OW17644   6.294   4.445  10.130
71916SOL    HW117645   6.347   4.431  10.052
71916SOL    HW217646   6.236   4.369  10.135
71917SOL     OW17647  10.027   9.548  11.939
71917SOL    HW117648  10.102   9.572  11.993
71917SOL    HW217649   9.961   9.615  11.959
71918SOL     OW17650   5.762  14.243   3.217
71918SOL    HW117651   5.705  14.202   3.281
71918SOL    HW217652   5.733  14.334   3.214
71919SOL     OW17653  14.697  12.628   3.383
71919SOL    HW117654  14.723  12.671   3.302
71919SOL    HW217655  14.757  12.663   3.449
71920SOL     OW17656  14.479  10.356  12.648
71920SOL    HW117657  14.470  10.286  12.584
71920SOL    HW217658  14.444  10.433  12.604
71921SOL     OW17659  13.388   2.068   5.820
71921SOL    HW117660  13.309   2.121   5.821
71921SOL    HW217661  13.455   2.125   5.781
71922SOL     OW17662  14.763   7.516   2.411
71922SOL    HW117663  14.762   7.577   2.485
71922SOL    HW217664  14.840   7.462   2.425
71923SOL     OW17665   1.949   3.276   9.140
71923SOL    HW117666   2.012   3.289   9.069
71923SOL    HW217667   1.985   3.203   9.191
71924SOL     OW17668  10.268   3.357  13.025
71924SOL    HW117669  10.288   3.428  13.085
71924SOL    HW217670  10.275   3.396  12.938
71925SOL     OW17671   8.382   2.538   7.452
71925SOL    HW117672   8.359   2.606   7.389
71925SOL    HW217673   8.463   2.568   7.492
71926SOL     OW17674   8.213   8.062   5.764
71926SOL    HW117675   8.170   8.083   5.847
71926SOL    HW217676   8.188   8.133   5.705
71927SOL     OW17677   2.805  14.753   1.196
71927SOL    HW117678   2.738  14.793   1.252
71927SOL    HW217679   2.797  14.799   1.113
71928SOL     OW17680   0.294   8.924   2.058
71928SOL    HW117681   0.220   8.869   2.083
71928SOL    HW217682   0.360   8.908   2.125
71929SOL     OW17683   7.133  14.215  13.294
71929SOL    HW117684   7.189  14.256  13.359
71929SOL    HW217685   7.096  14.289  13.245
71930SOL     OW17686  11.205   2.383   9.738
71930SOL    HW117687  11.153   2.306   9.760
71930SOL    HW217688  11.242   2.411   9.821
71931SOL     OW17689   1.304   2.158   3.744
71931SOL    HW117690   1.312   2.081   3.799
71931SOL    HW217691   1.315   2.125   3.654
71932SOL     OW17692   6.224   3.316   3.200
71932SOL    HW117693   6.177   3.315   3.283
71932SOL    HW217694   6.316   3.303   3.225
71933SOL     OW17695  10.247  12.932   3.944
71933SOL    HW117696  10.191  12.897   4.013
71933SOL    HW217697  10.250  13.026   3.962
71934SOL     OW17698  14.059  13.403   7.043
71934SOL    HW117699  14.141  13.448   7.062
71934SOL    HW217700  14.009  13.465   6.990
71935SOL     OW17701  12.699  12.493  12.341
71935SOL    HW117702  12.688  12.435  12.266
71935SOL    HW217703  12.669  12.578  12.310
71936SOL     OW17704   4.961  10.136  10.208
71936SOL    HW117705   5.026  10.192  10.252
71936SOL    HW217706   5.009  10.055  10.190
71937SOL     OW17707  12.170   2.550  14.043
71937SOL    HW117708  12.174   2.623  13.981
71937SOL    HW217709  12.235   2.572  14.110
71938SOL     OW17710  10.457   1.185   7.057
71938SOL    HW117711  10.364   1.202   7.077
71938SOL    HW217712  10.458   1.164   6.964
71939SOL     OW17713   9.932   1.877   2.836
71939SOL    HW117714   9.841   1.901   2.854
71939SOL    HW217715   9.928   1.783   2.818
71940SOL     OW17716  14.453   5.410  11.124
71940SOL    HW117717  14.537   5.364  11.128
71940SOL    HW217718  14.387   5.341  11.122
71941SOL     OW17719   5.006   7.792   8.056
71941SOL    HW117720   4.944   7.849   8.100
71941SOL    HW217721   5.023   7.722   8.120
71942SOL     OW17722   2.729   3.153   8.600
71942SOL    HW117723   2.700   3.096   8.529
71942SOL    HW217724   2.747   3.237   8.559
71943SOL     OW17725   1.383  10.235  13.630
71943SOL    HW117726   1.443  10.309  13.617
71943SOL    HW217727   1.339  10.254  13.713
71944SOL     OW17728   6.871  14.079  11.768
71944SOL    HW117729   6.776  14.078  11.768
71944SOL    HW217730   6.896  14.014  11.834
71945SOL     OW17731   7.529  13.781   4.554
71945SOL    HW117732   7.490  13.825   4.479
71945SOL    HW217733   7.617  13.757   4.524
71946SOL     OW17734   6.101  14.166  13.543
71946SOL    HW117735   6.129  14.080  13.574
71946SOL    HW217736   6.104  14.222  13.620
71947SOL     OW17737  12.575   2.433   2.116
71947SOL    HW117738  12.631   2.505   2.144
71947SOL    HW217739  12.558   2.384   2.196
71948SOL     OW17740   1.451   5.549   3.855
71948SOL    HW117741   1.384   5.494   3.817
71948SOL    HW217742   1.419   5.639   3.842
71949SOL     OW17743   3.236   5.772   0.465
71949SOL    HW117744   3.307   5.750   0.405
71949SOL    HW217745   3.279   5.818   0.538
71950SOL     OW17746   2.054   0.739   1.539
71950SOL    HW117747   2.024   0.812   1.485
71950SOL    HW217748   2.129   0.703   1.490
71951SOL     OW17749   7.561   0.827   6.901
71951SOL    HW117750   7.506   0.836   6.824
71951SOL    HW217751   7.587   0.917   6.923
71952SOL     OW17752   9.758   3.741   3.317
71952SOL    HW117753   9.821   3.672   3.337
71952SOL    HW217754   9.812   3.814   3.287
71953SOL     OW17755  13.258   2.124  10.130
71953SOL    HW117756  13.268   2.117  10.035
71953SOL    HW217757  13.325   2.188  10.156
71954SOL     OW17758  11.269   7.242  10.040
71954SOL    HW117759  11.198   7.204   9.989
71954SOL    HW217760  11.225   7.293  10.108
71955SOL     OW17761   5.659   4.092  13.818
71955SOL    HW117762   5.607   4.113  13.741
71955SOL    HW217763   5.712   4.170  13.833
71956SOL     OW17764  11.386   6.190   0.758
71956SOL    HW117765  11.459   6.140   0.722
71956SOL    HW217766  11.398   6.183   0.853
71957SOL     OW17767  10.510   3.239  10.609
71957SOL    HW117768  10.600   3.264  10.628
71957SOL    HW217769  10.507   3.145  10.627
71958SOL     OW17770  10.843   1.047   9.031
71958SOL    HW117771  10.847   1.089   8.945
71958SOL    HW217772  10.884   0.962   9.018
71959SOL     OW17773   6.150   9.188  14.318
71959SOL    HW117774   6.220   9.226  14.266
71959SOL    HW217775   6.081   9.254  14.317
71960SOL     OW17776   6.480   5.238  10.440
71960SOL    HW117777   6.512   5.308  10.384
71960SOL    HW217778   6.394   5.216  10.404
71961SOL     OW17779  11.463   8.205   4.729
71961SOL    HW117780  11.413   8.239   4.655
71961SOL    HW217781  11.465   8.110   4.714
71962SOL     OW17782  14.662  13.776   9.356
71962SOL    HW117783  14.595  13.834   9.391
71962SOL    HW217784  14.671  13.802   9.265
71963SOL     OW17785  14.101   6.172   4.755
71963SOL    HW117786  14.114   6.240   4.821
71963SOL    HW217787  14.174   6.111   4.770
71964SOL     OW17788  12.575  11.985   7.873
71964SOL    HW117789  12.511  11.916   7.856
71964SOL    HW217790  12.645  11.941   7.922
71965SOL     OW17791   1.361   3.541  14.120
71965SOL    HW117792   1.339   3.634  14.111
71965SOL    HW217793   1.345   3.505  14.033
71966SOL     OW17794  12.591   3.757   8.290
71966SOL    HW117795  12.663   3.698   8.268
71966SOL    HW217796  12.553   3.720   8.369
71967SOL     OW17797   1.768   7.436   7.884
71967SOL    HW117798   1.763   7.364   7.948
71967SOL    HW217799   1.677   7.461   7.868
71968SOL     OW17800   4.001   5.891   7.479
71968SOL    HW117801   4.054   5.947   7.536
71968SOL    HW217802   4.017   5.802   7.513
71969SOL     OW17803   3.986   9.678   8.484
71969SOL    HW117804   4.070   9.691   8.528
71969SOL    HW217805   3.963   9.765   8.451
71970SOL     OW17806   0.833  10.120   5.823
71970SOL    HW117807   0.929  10.119   5.825
71970SOL    HW217808   0.811  10.213   5.818
71971SOL     OW17809  13.532  10.946   8.414
71971SOL    HW117810  13.441  10.974   8.426
71971SOL    HW217811  13.526  10.859   8.374
71972SOL     OW17812  14.207   8.835   1.360
71972SOL    HW117813  14.295   8.841   1.397
71972SOL    HW217814  14.219   8.856   1.267
71973SOL     OW17815  10.560   2.541  10.536
71973SOL    HW117816  10.471   2.524  10.568
71973SOL    HW217817  10.548   2.599  10.461
71974SOL     OW17818   1.303   1.648  13.267
71974SOL    HW117819   1.329   1.568  13.221
71974SOL    HW217820   1.291   1.620  13.358
71975SOL     OW17821   3.519  13.252  14.455
71975SOL    HW117822   3.468  13.173  14.435
71975SOL    HW217823   3.475  13.322  14.405
71976SOL     OW17824   3.373   0.935   5.865
71976SOL    HW117825   3.329   0.861   5.825
71976SOL    HW217826   3.459   0.937   5.823
71977SOL     OW17827   3.095   6.301   3.754
71977SOL    HW117828   3.048   6.381   3.732
71977SOL    HW217829   3.147   6.281   3.676
71978SOL     OW17830   3.893   2.364  14.322
71978SOL    HW117831   3.944   2.442  14.300
71978SOL    HW217832   3.877   2.321  14.237
71979SOL     OW17833   5.867  10.984   0.321
71979SOL    HW117834   5.774  10.985   0.344
71979SOL    HW217835   5.869  10.945   0.233
71980SOL     OW17836  10.566   4.565   8.020
71980SOL    HW117837  10.517   4.521   8.089
71980SOL    HW217838  10.602   4.495   7.966
71981SOL     OW17839   0.421  14.758  12.608
71981SOL    HW117840   0.379  14.675  12.630
71981SOL    HW217841   0.431  14.755  12.512
71982SOL     OW17842  13.779  12.104  14.734
71982SOL    HW117843  13.832  12.132  14.809
71982SOL    HW217844  13.836  12.115  14.658
71983SOL     OW17845   7.667  12.597   5.931
71983SOL    HW117846   7.689  12.681   5.970
71983SOL    HW217847   7.751  12.555   5.915
71984SOL     OW17848  11.541  12.965   1.804
71984SOL    HW117849  11.512  12.879   1.771
71984SOL    HW217850  11.482  13.028   1.762
71985SOL     OW17851   3.571   0.116   2.114
71985SOL    HW117852   3.635   0.184   2.132
71985SOL    HW217853   3.553   0.124   2.021
71986SOL     OW17854   3.271   5.306   1.002
71986SOL    HW117855   3.332   5.360   0.951
71986SOL    HW217856   3.285   5.332   1.093
71987SOL     OW17857  12.588   5.023   9.702
71987SOL    HW117858  12.580   5.051   9.793
71987SOL    HW217859  12.652   5.084   9.664
71988SOL     OW17860   6.025   0.348  10.719
71988SOL    HW117861   5.980   0.431  10.734
71988SOL    HW217862   6.117   0.372  10.712
71989SOL     OW17863   2.339   4.345  10.965
71989SOL    HW117864   2.429   4.315  10.979
71989SOL    HW217865   2.316   4.312  10.878
71990SOL     OW17866  13.417   5.666   5.369
71990SOL    HW117867  13.378   5.653   5.283
71990SOL    HW217868  13.416   5.580   5.410
71991SOL     OW17869  10.385  14.304  14.541
71991SOL    HW117870  10.467  14.311  14.590
71991SOL    HW217871  10.405  14.344  14.456
71992SOL     OW17872   3.322   7.773   2.033
71992SOL    HW117873   3.272   7.759   2.114
71992SOL    HW217874   3.332   7.685   1.996
71993SOL     OW17875   8.541   1.403   4.916
71993SOL    HW117876   8.589   1.475   4.957
71993SOL    HW217877   8.604   1.332   4.909
71994SOL     OW17878  10.215   7.351   1.688
71994SOL    HW117879  10.226   7.272   1.635
71994SOL    HW217880  10.269   7.417   1.644
71995SOL     OW17881   3.218  10.645  12.911
71995SOL    HW117882   3.225  10.708  12.839
71995SOL    HW217883   3.200  10.699  12.989
71996SOL     OW17884   4.769   8.914  11.260
71996SOL    HW117885   4.776   8.866  11.342
71996SOL    HW217886   4.858   8.945  11.243
71997SOL     OW17887   2.259   7.013   8.839
71997SOL    HW117888   2.257   7.089   8.782
71997SOL    HW217889   2.298   7.045   8.921
71998SOL     OW17890   9.924   4.700  13.652
71998SOL    HW117891  10.005   4.695  13.701
71998SOL    HW217892   9.913   4.613  13.614
71999SOL     OW17893  11.221   0.297   2.835
71999SOL    HW117894  11.298   0.270   2.885
71999SOL    HW217895  11.198   0.383   2.870
72000SOL     OW17896   6.021   1.986   9.187
72000SOL    HW117897   6.014   2.059   9.126
72000SOL    HW217898   6.084   2.015   9.253
72001SOL     OW17899   6.750   3.227   8.792
72001SOL    HW117900   6.704   3.311   8.790
72001SOL    HW217901   6.822   3.238   8.729
72002SOL     OW17902   7.715   9.819  14.256
72002SOL    HW117903   7.702   9.902  14.302
72002SOL    HW217904   7.753   9.761  14.322
72003SOL     OW17905  10.063   5.835   0.175
72003SOL    HW117906  10.090   5.851   0.265
72003SOL    HW217907  10.095   5.911   0.127
72004SOL     OW17908   3.644   5.489   7.171
72004SOL    HW117909   3.690   5.488   7.254
72004SOL    HW217910   3.620   5.581   7.158
72005SOL     OW17911   1.996   9.802   6.536
72005SOL    HW117912   1.965   9.740   6.602
72005SOL    HW217913   2.036   9.873   6.587
72006SOL     OW17914   3.943   1.739   2.360
72006SOL    HW117915   3.932   1.776   2.448
72006SOL    HW217916   3.857   1.707   2.336
72007SOL     OW17917   0.901   4.177   6.106
72007SOL    HW117918   0.862   4.227   6.178
72007SOL    HW217919   0.841   4.104   6.092
72008SOL     OW17920  10.959  13.548   7.757
72008SOL    HW117921  10.895  13.515   7.820
72008SOL    HW217922  10.971  13.640   7.781
72009SOL     OW17923   0.829   5.209   1.231
72009SOL    HW117924   0.879   5.149   1.286
72009SOL    HW217925   0.807   5.282   1.288
72010SOL     OW17926   6.130  13.622  14.472
72010SOL    HW117927   6.162  13.562  14.540
72010SOL    HW217928   6.206  13.640  14.417
72011SOL     OW17929  10.301   1.602   1.479
72011SOL    HW117930  10.260   1.567   1.558
72011SOL    HW217931  10.394   1.581   1.488
72012SOL     OW17932  14.333   3.151   1.514
72012SOL    HW117933  14.414   3.202   1.512
72012SOL    HW217934  14.314   3.132   1.423
72013SOL     OW17935  12.457  13.591  13.268
72013SOL    HW117936  12.469  13.586  13.173
72013SOL    HW217937  12.490  13.677  13.292
72014SOL     OW17938  12.643   4.759   5.005
72014SOL    HW117939  12.604   4.772   5.091
72014SOL    HW217940  12.737   4.766   5.019
72015SOL     OW17941  11.687   3.904  13.159
72015SOL    HW117942  11.662   3.904  13.067
72015SOL    HW217943  11.614   3.945  13.204
72016SOL     OW17944   4.658   1.972   6.654
72016SOL    HW117945   4.706   1.890   6.641
72016SOL    HW217946   4.573   1.944   6.687
72017SOL     OW17947   9.870   7.882   6.703
72017SOL    HW117948   9.820   7.844   6.631
72017SOL    HW217949   9.841   7.834   6.780
72018SOL     OW17950   0.869  13.141  12.321
72018SOL    HW117951   0.794  13.132  12.380
72018SOL    HW217952   0.898  13.052  12.306
72019SOL     OW17953   3.399   6.882   5.294
72019SOL    HW117954   3.426   6.971   5.275
72019SOL    HW217955   3.423   6.867   5.385
72020SOL     OW17956   6.150   2.916   7.895
72020SOL    HW117957   6.148   2.961   7.810
72020SOL    HW217958   6.118   2.981   7.957
72021SOL     OW17959   7.588   9.913  12.063
72021SOL    HW117960   7.677   9.884  12.042
72021SOL    HW217961   7.576   9.888  12.154
72022SOL     OW17962   7.777  14.290   3.560
72022SOL    HW117963   7.775  14.274   3.654
72022SOL    HW217964   7.856  14.343   3.547
72023SOL     OW17965   8.903  11.506   1.705
72023SOL    HW117966   8.872  11.419   1.728
72023SOL    HW217967   8.954  11.494   1.625
72024SOL     OW17968   7.238   1.352   2.453
72024SOL    HW117969   7.312   1.412   2.450
72024SOL    HW217970   7.244   1.302   2.372
72025SOL     OW17971   3.971   9.126   7.979
72025SOL    HW117972   4.010   9.209   7.952
72025SOL    HW217973   3.985   9.122   8.074
72026SOL     OW17974  12.848   3.397   5.993
72026SOL    HW117975  12.840   3.491   6.005
72026SOL    HW217976  12.794   3.377   5.917
72027SOL     OW17977   0.566   5.121  10.883
72027SOL    HW117978   0.654   5.102  10.915
72027SOL    HW217979   0.576   5.121  10.788
72028SOL     OW17980   5.829   0.522   7.447
72028SOL    HW117981   5.879   0.602   7.435
72028SOL    HW217982   5.826   0.482   7.360
72029SOL     OW17983   0.296  13.594   3.935
72029SOL    HW117984   0.343  13.667   3.893
72029SOL    HW217985   0.322  13.600   4.027
72030SOL     OW17986   4.149   0.590  11.079
72030SOL    HW117987   4.232   0.585  11.032
72030SOL    HW217988   4.085   0.613  11.013
72031SOL     OW17989   0.606   8.399   1.721
72031SOL    HW117990   0.515   8.405   1.690
72031SOL    HW217991   0.600   8.346   1.800
72032SOL     OW17992  10.317  10.372   9.020
72032SOL    HW117993  10.325  10.311   9.093
72032SOL    HW217994  10.319  10.459   9.062
72033SOL     OW17995  13.042   8.043  11.125
72033SOL    HW117996  13.014   8.120  11.076
72033SOL    HW217997  13.036   8.070  11.217
72034SOL     OW17998  10.111   6.588   9.870
72034SOL    HW117999  10.192   6.559   9.828
72034SOL    HW218000  10.052   6.609   9.798
72035SOL     OW18001   1.956  14.808   8.126
72035SOL    HW118002   1.889  14.840   8.066
72035SOL    HW218003   1.934  14.848   8.211
72036SOL     OW18004  11.905  12.081   8.976
72036SOL    HW118005  11.824  12.122   9.005
72036SOL    HW218006  11.961  12.082   9.053
72037SOL     OW18007   2.845  13.398  11.815
72037SOL    HW118008   2.807  13.329  11.870
72037SOL    HW218009   2.876  13.353  11.737
72038SOL     OW18010   1.691   0.698   7.432
72038SOL    HW118011   1.601   0.726   7.445
72038SOL    HW218012   1.728   0.761   7.370
72039SOL     OW18013   5.318   5.255   1.199
72039SOL    HW118014   5.383   5.280   1.265
72039SOL    HW218015   5.253   5.205   1.247
72040SOL     OW18016   3.305   6.281   6.184
72040SOL    HW118017   3.250   6.205   6.166
72040SOL    HW218018   3.393   6.253   6.160
72041SOL     OW18019  11.531   5.420   5.681
72041SOL    HW118020  11.583   5.499   5.669
72041SOL    HW218021  11.568   5.357   5.619
72042SOL     OW18022   8.789   2.395   3.349
72042SOL    HW118023   8.820   2.317   3.304
72042SOL    HW218024   8.695   2.381   3.360
72043SOL     OW18025   9.412   3.052   3.968
72043SOL    HW118026   9.373   3.104   4.038
72043SOL    HW218027   9.388   2.962   3.988
72044SOL     OW18028   2.017   4.019   8.212
72044SOL    HW118029   2.090   3.978   8.258
72044SOL    HW218030   1.985   4.086   8.273
72045SOL     OW18031  12.311  12.276  10.724
72045SOL    HW118032  12.228  12.227  10.728
72045SOL    HW218033  12.351  12.261  10.810
72046SOL     OW18034   1.536   8.125   4.657
72046SOL    HW118035   1.536   8.192   4.588
72046SOL    HW218036   1.479   8.056   4.622
72047SOL     OW18037   1.427  10.684   9.914
72047SOL    HW118038   1.494  10.652   9.975
72047SOL    HW218039   1.344  10.654   9.951
72048SOL     OW18040   3.958   5.865   5.967
72048SOL    HW118041   4.017   5.832   5.900
72048SOL    HW218042   4.001   5.943   6.001
72049SOL     OW18043   7.395   7.573   4.118
72049SOL    HW118044   7.450   7.554   4.193
72049SOL    HW218045   7.322   7.623   4.154
72050SOL     OW18046  12.174   0.398   4.119
72050SOL    HW118047  12.245   0.437   4.068
72050SOL    HW218048  12.096   0.409   4.064
72051SOL     OW18049   6.462   4.663  12.146
72051SOL    HW118050   6.392   4.667  12.081
72051SOL    HW218051   6.535   4.710  12.106
72052SOL     OW18052   7.559  12.329  13.030
72052SOL    HW118053   7.596  12.241  13.026
72052SOL    HW218054   7.464  12.316  13.030
72053SOL     OW18055  13.498   0.419   0.621
72053SOL    HW118056  13.539   0.365   0.689
72053SOL    HW218057  13.549   0.500   0.620
72054SOL     OW18058  10.619  11.203   2.337
72054SOL    HW118059  10.660  11.257   2.405
72054SOL    HW218060  10.557  11.261   2.295
72055SOL     OW18061  12.949  10.590  12.697
72055SOL    HW118062  12.946  10.659  12.631
72055SOL    HW218063  12.946  10.637  12.781
72056SOL     OW18064   8.510   0.505   0.968
72056SOL    HW118065   8.472   0.417   0.972
72056SOL    HW218066   8.440   0.563   0.997
72057SOL     OW18067  11.904   2.079   4.356
72057SOL    HW118068  11.985   2.060   4.404
72057SOL    HW218069  11.913   2.170   4.329
72058SOL     OW18070  12.555  14.259  12.653
72058SOL    HW118071  12.463  14.234  12.666
72058SOL    HW218072  12.599  14.177  12.629
72059SOL     OW18073   4.750  10.118   2.942
72059SOL    HW118074   4.807  10.091   3.015
72059SOL    HW218075   4.792  10.081   2.864
72060SOL     OW18076   6.222   4.249   0.820
72060SOL    HW118077   6.227   4.189   0.894
72060SOL    HW218078   6.227   4.193   0.743
72061SOL     OW18079   2.961   5.236  10.056
72061SOL    HW118080   2.960   5.141  10.070
72061SOL    HW218081   3.054   5.259  10.056
72062SOL     OW18082   2.034   3.715   6.339
72062SOL    HW118083   2.011   3.710   6.246
72062SOL    HW218084   2.118   3.671   6.345
72063SOL     OW18085   8.584   3.646   0.332
72063SOL    HW118086   8.581   3.551   0.347
72063SOL    HW218087   8.652   3.657   0.265
72064SOL     OW18088   8.297   3.602  12.830
72064SOL    HW118089   8.285   3.689  12.792
72064SOL    HW218090   8.261   3.542  12.765
72065SOL     OW18091   0.905   2.047  13.962
72065SOL    HW118092   0.946   2.117  14.012
72065SOL    HW218093   0.830   2.088  13.919
72066SOL     OW18094   7.840  14.544  13.214
72066SOL    HW118095   7.891  14.473  13.253
72066SOL    HW218096   7.902  14.617  13.207
72067SOL     OW18097   3.483   6.811   9.948
72067SOL    HW118098   3.462   6.721   9.974
72067SOL    HW218099   3.508   6.805   9.856
72068SOL     OW18100   2.443   8.650  12.916
72068SOL    HW118101   2.509   8.629  12.982
72068SOL    HW218102   2.363   8.609  12.949
72069SOL     OW18103   3.983   4.087   6.309
72069SOL    HW118104   4.068   4.077   6.352
72069SOL    HW218105   3.935   4.149   6.364
72070SOL     OW18106   6.737  14.652   6.126
72070SOL    HW118107   6.689  14.655   6.208
72070SOL    HW218108   6.772  14.563   6.122
72071SOL     OW18109   0.218   4.150   6.320
72071SOL    HW118110   0.247   4.166   6.230
72071SOL    HW218111   0.128   4.182   6.322
72072SOL     OW18112   9.967  10.873   7.626
72072SOL    HW118113   9.955  10.875   7.721
72072SOL    HW218114  10.062  10.876   7.613
72073SOL     OW18115  11.838  12.213  10.750
72073SOL    HW118116  11.836  12.133  10.803
72073SOL    HW218117  11.758  12.260  10.775
72074SOL     OW18118   8.455   1.785  11.336
72074SOL    HW118119   8.373   1.791  11.386
72074SOL    HW218120   8.523   1.784  11.403
72075SOL     OW18121  14.662   5.408   3.763
72075SOL    HW118122  14.607   5.344   3.717
72075SOL    HW218123  14.710   5.453   3.694
72076SOL     OW18124  11.178   7.217   2.151
72076SOL    HW118125  11.141   7.254   2.071
72076SOL    HW218126  11.138   7.267   2.222
72077SOL     OW18127   9.294   5.225  11.228
72077SOL    HW118128   9.298   5.286  11.154
72077SOL    HW218129   9.340   5.269  11.298
72078SOL     OW18130   5.812   5.936  12.784
72078SOL    HW118131   5.757   6.006  12.748
72078SOL    HW218132   5.760   5.856  12.771
72079SOL     OW18133   1.737  14.870   2.011
72079SOL    HW118134   1.656  14.821   1.997
72079SOL    HW218135   1.734   0.012   2.104
72080SOL     OW18136   6.994  10.257   0.820
72080SOL    HW118137   6.901  10.249   0.803
72080SOL    HW218138   7.033  10.177   0.783
72081SOL     OW18139   0.625   9.780   7.749
72081SOL    HW118140   0.662   9.868   7.743
72081SOL    HW218141   0.579   9.779   7.833
72082SOL     OW18142   5.746  12.957   7.261
72082SOL    HW118143   5.767  12.988   7.349
72082SOL    HW218144   5.708  13.033   7.217
72083SOL     OW18145   4.067  11.575  13.305
72083SOL    HW118146   4.123  11.646  13.339
72083SOL    HW218147   4.099  11.559  13.217
72084SOL     OW18148  11.083   2.742   0.740
72084SOL    HW118149  11.161   2.757   0.686
72084SOL    HW218150  11.052   2.656   0.714
72085SOL     OW18151   9.061   6.675   7.624
72085SOL    HW118152   8.989   6.639   7.676
72085SOL    HW218153   9.110   6.730   7.685
72086SOL     OW18154   1.030   9.368  13.147
72086SOL    HW118155   1.086   9.290  13.135
72086SOL    HW218156   1.044   9.394  13.238
72087SOL     OW18157  12.695   7.411   2.739
72087SOL    HW118158  12.651   7.345   2.686
72087SOL    HW218159  12.666   7.395   2.829
72088SOL     OW18160   5.224   7.639   2.580
72088SOL    HW118161   5.132   7.662   2.574
72088SOL    HW218162   5.249   7.662   2.669
72089SOL     OW18163   7.548   9.084   3.086
72089SOL    HW118164   7.498   9.166   3.090
72089SOL    HW218165   7.582   9.073   3.175
72090SOL     OW18166   5.015  14.790   9.196
72090SOL    HW118167   4.975  14.857   9.141
72090SOL    HW218168   4.987  14.813   9.285
72091SOL     OW18169  12.902   9.569  10.194
72091SOL    HW118170  12.906   9.479  10.163
72091SOL    HW218171  12.991   9.590  10.221
72092SOL     OW18172  12.164  10.358  14.348
72092SOL    HW118173  12.198  10.274  14.379
72092SOL    HW218174  12.178  10.418  14.421
72093SOL     OW18175   7.207   6.141   6.878
72093SOL    HW118176   7.225   6.185   6.795
72093SOL    HW218177   7.147   6.070   6.855
72094SOL     OW18178  14.825   7.101  10.124
72094SOL    HW118179  14.807   7.191  10.097
72094SOL    HW218180  14.748   7.074  10.173
72095SOL     OW18181   8.861   9.975   9.465
72095SOL    HW118182   8.913   9.969   9.385
72095SOL    HW218183   8.924   9.998   9.533
72096SOL     OW18184   1.661   9.845  13.079
72096SOL    HW118185   1.671   9.937  13.102
72096SOL    HW218186   1.735   9.801  13.123
72097SOL     OW18187   7.454  14.091   1.960
72097SOL    HW118188   7.456  14.117   1.868
72097SOL    HW218189   7.485  14.000   1.959
72098SOL     OW18190  10.816   4.839   7.382
72098SOL    HW118191  10.831   4.916   7.328
72098SOL    HW218192  10.808   4.873   7.472
72099SOL     OW18193  12.917  10.749   9.826
72099SOL    HW118194  12.841  10.700   9.858
72099SOL    HW218195  12.913  10.832   9.872
72100SOL     OW18196   7.717   5.600  13.930
72100SOL    HW118197   7.659   5.630  14.000
72100SOL    HW218198   7.688   5.648  13.853
72101SOL     OW18199   1.933  12.798   4.361
72101SOL    HW118200   1.875  12.874   4.353
72101SOL    HW218201   2.020  12.835   4.370
72102SOL     OW18202   5.653   6.000   7.555
72102SOL    HW118203   5.697   6.075   7.514
72102SOL    HW218204   5.711   5.976   7.628
72103SOL     OW18205  13.605   5.679  11.345
72103SOL    HW118206  13.545   5.753  11.337
72103SOL    HW218207  13.632   5.660  11.255
72104SOL     OW18208  10.408   8.395   5.894
72104SOL    HW118209  10.431   8.394   5.987
72104SOL    HW218210  10.453   8.473   5.860
72105SOL     OW18211  13.142   3.382  13.493
72105SOL    HW118212  13.150   3.439  13.569
72105SOL    HW218213  13.215   3.408  13.437
72106SOL     OW18214   3.624   0.028   8.802
72106SOL    HW118215   3.675  14.868   8.871
72106SOL    HW218216   3.636  14.854   8.725
72107SOL     OW18217   7.578  13.852  14.853
72107SOL    HW118218   7.628  13.868   0.051
72107SOL    HW218219   7.536  13.935  14.834
72108SOL     OW18220  10.927  10.430   5.394
72108SOL    HW118221  10.867  10.361   5.368
72108SOL    HW218222  10.871  10.506   5.410
72109SOL     OW18223   3.365   1.066   9.139
72109SOL    HW118224   3.364   1.078   9.044
72109SOL    HW218225   3.406   0.980   9.152
72110SOL     OW18226   7.375   5.432  10.442
72110SOL    HW118227   7.302   5.383  10.403
72110SOL    HW218228   7.351   5.524  10.432
72111SOL     OW18229   6.161  10.728  10.804
72111SOL    HW118230   6.170  10.730  10.708
72111SOL    HW218231   6.073  10.695  10.819
72112SOL     OW18232   9.336   3.588  14.408
72112SOL    HW118233   9.343   3.682  14.426
72112SOL    HW218234   9.341   3.581  14.313
72113SOL     OW18235  13.831   7.052  12.530
72113SOL    HW118236  13.865   7.019  12.447
72113SOL    HW218237  13.737   7.061  12.516
72114SOL     OW18238   2.958   6.017   2.398
72114SOL    HW118239   3.033   6.064   2.434
72114SOL    HW218240   2.934   6.067   2.320
72115SOL     OW18241   9.487   0.160  12.828
72115SOL    HW118242   9.413   0.162  12.767
72115SOL    HW218243   9.534   0.241  12.811
72116SOL     OW18244   9.838   7.928  10.587
72116SOL    HW118245   9.773   7.909  10.655
72116SOL    HW218246   9.796   7.899  10.506
72117SOL     OW18247  11.304   2.800  14.763
72117SOL    HW118248  11.344   2.834  14.843
72117SOL    HW218249  11.358   2.835  14.692
72118SOL     OW18250   6.061  11.962   4.538
72118SOL    HW118251   5.979  12.009   4.525
72118SOL    HW218252   6.044  11.904   4.612
72119SOL     OW18253   1.840   8.631   5.550
72119SOL    HW118254   1.787   8.701   5.512
72119SOL    HW218255   1.881   8.670   5.627
72120SOL     OW18256   2.227  10.233   5.134
72120SOL    HW118257   2.282  10.272   5.066
72120SOL    HW218258   2.282  10.166   5.174
72121SOL     OW18259   7.574  11.304   3.358
72121SOL    HW118260   7.574  11.270   3.269
72121SOL    HW218261   7.667  11.314   3.380
72122SOL     OW18262  13.432  14.324   2.874
72122SOL    HW118263  13.361  14.270   2.908
72122SOL    HW218264  13.493  14.262   2.834
72123SOL     OW18265   3.503   3.762   5.184
72123SOL    HW118266   3.434   3.745   5.249
72123SOL    HW218267   3.502   3.685   5.127
72124SOL     OW18268   2.683   5.712   3.497
72124SOL    HW118269   2.693   5.755   3.412
72124SOL    HW218270   2.758   5.741   3.548
72125SOL     OW18271   0.746  14.150  11.937
72125SOL    HW118272   0.818  14.108  11.890
72125SOL    HW218273   0.779  14.237  11.960
72126SOL     OW18274   9.535  12.211  12.244
72126SOL    HW118275   9.500  12.276  12.184
72126SOL    HW218276   9.523  12.128  12.198
72127SOL     OW18277   0.727   3.607   2.011
72127SOL    HW118278   0.724   3.676   1.946
72127SOL    HW218279   0.696   3.648   2.092
72128SOL     OW18280  10.726   2.845  11.183
72128SOL    HW118281  10.712   2.857  11.277
72128SOL    HW218282  10.683   2.920  11.143
72129SOL     OW18283   9.753   7.757   6.901
72129SOL    HW118284   9.684   7.822   6.885
72129SOL    HW218285   9.706   7.678   6.928
72130SOL     OW18286   3.629  12.515   2.458
72130SOL    HW118287   3.626  12.606   2.430
72130SOL    HW218288   3.538  12.486   2.455
72131SOL     OW18289   2.198   3.891  13.180
72131SOL    HW118290   2.156   3.835  13.115
72131SOL    HW218291   2.233   3.830  13.245
72132SOL     OW18292   5.540   9.332   1.325
72132SOL    HW118293   5.454   9.301   1.356
72132SOL    HW218294   5.585   9.359   1.405
72133SOL     OW18295   6.161  11.836   3.975
72133SOL    HW118296   6.144  11.905   4.038
72133SOL    HW218297   6.218  11.876   3.909
72134SOL     OW18298  14.733  14.460   1.337
72134SOL    HW118299  14.689  14.536   1.375
72134SOL    HW218300  14.817  14.493   1.306
72135SOL     OW18301   2.962   5.233   2.969
72135SOL    HW118302   2.877   5.190   2.976
72135SOL    HW218303   3.025   5.161   2.966
72136SOL     OW18304  11.426   9.429  10.554
72136SOL    HW118305  11.427   9.333  10.551
72136SOL    HW218306  11.444   9.455  10.464
72137SOL     OW18307  13.024   5.114  13.192
72137SOL    HW118308  13.046   5.025  13.165
72137SOL    HW218309  13.105   5.149  13.230
72138SOL     OW18310  10.950   8.680  10.666
72138SOL    HW118311  11.018   8.730  10.621
72138SOL    HW218312  10.992   8.597  10.688
72139SOL     OW18313   9.149  12.201   7.684
72139SOL    HW118314   9.147  12.107   7.671
72139SOL    HW218315   9.206  12.214   7.760
72140SOL     OW18316   7.188   6.639  10.128
72140SOL    HW118317   7.244   6.600  10.196
72140SOL    HW218318   7.140   6.709  10.173
72141SOL     OW18319  12.520   1.233  13.707
72141SOL    HW118320  12.588   1.197  13.649
72141SOL    HW218321  12.553   1.215  13.795
72142SOL     OW18322   7.537   5.950   3.942
72142SOL    HW118323   7.535   5.964   4.036
72142SOL    HW218324   7.625   5.979   3.915
72143SOL     OW18325   1.478   8.002  11.052
72143SOL    HW118326   1.439   7.926  11.008
72143SOL    HW218327   1.572   7.991  11.040
72144SOL     OW18328   8.088   2.463   1.843
72144SOL    HW118329   8.075   2.376   1.881
72144SOL    HW218330   8.136   2.511   1.910
72145SOL     OW18331   2.950   0.693   7.585
72145SOL    HW118332   2.936   0.643   7.505
72145SOL    HW218333   3.000   0.634   7.642
72146SOL     OW18334  11.528  13.956  13.083
72146SOL    HW118335  11.607  13.963  13.031
72146SOL    HW218336  11.557  13.971  13.173
72147SOL     OW18337   6.481   8.332   3.237
72147SOL    HW118338   6.474   8.283   3.154
72147SOL    HW218339   6.569   8.312   3.269
72148SOL     OW18340  13.517   3.196   5.682
72148SOL    HW118341  13.555   3.259   5.743
72148SOL    HW218342  13.506   3.117   5.734
72149SOL     OW18343  10.985   2.085   1.883
72149SOL    HW118344  10.948   2.118   1.802
72149SOL    HW218345  11.066   2.134   1.895
72150SOL     OW18346   5.417  12.904   4.931
72150SOL    HW118347   5.402  12.813   4.957
72150SOL    HW218348   5.329  12.942   4.926
72151SOL     OW18349  11.281   1.009   6.013
72151SOL    HW118350  11.250   0.954   6.085
72151SOL    HW218351  11.290   0.949   5.939
72152SOL     OW18352   9.208   2.210   4.796
72152SOL    HW118353   9.115   2.230   4.800
72152SOL    HW218354   9.213   2.116   4.815
72153SOL     OW18355  10.337  13.981   5.305
72153SOL    HW118356  10.266  13.991   5.368
72153SOL    HW218357  10.391  14.059   5.317
72154SOL     OW18358  11.392  13.075   2.842
72154SOL    HW118359  11.465  13.135   2.853
72154SOL    HW218360  11.329  13.123   2.787
72155SOL     OW18361   3.733   7.687  11.990
72155SOL    HW118362   3.741   7.604  12.036
72155SOL    HW218363   3.692   7.746  12.054
72156SOL     OW18364   8.408  14.532  11.519
72156SOL    HW118365   8.426  14.542  11.426
72156SOL    HW218366   8.333  14.589  11.535
72157SOL     OW18367   8.334  13.527  13.465
72157SOL    HW118368   8.366  13.515  13.376
72157SOL    HW218369   8.250  13.572  13.454
72158SOL     OW18370   6.816   6.776   6.404
72158SOL    HW118371   6.788   6.687   6.381
72158SOL    HW218372   6.745   6.810   6.458
72159SOL     OW18373   9.601   8.312   1.426
72159SOL    HW118374   9.679   8.344   1.382
72159SOL    HW218375   9.588   8.223   1.392
72160SOL     OW18376   6.614  14.197  12.314
72160SOL    HW118377   6.623  14.161  12.402
72160SOL    HW218378   6.649  14.286  12.320
72161SOL     OW18379   9.786   8.784   2.903
72161SOL    HW118380   9.798   8.833   2.822
72161SOL    HW218381   9.840   8.831   2.967
72162SOL     OW18382  13.405   7.586   7.289
72162SOL    HW118383  13.423   7.633   7.207
72162SOL    HW218384  13.490   7.551   7.315
72163SOL     OW18385   8.891   6.900   9.479
72163SOL    HW118386   8.933   6.922   9.562
72163SOL    HW218387   8.799   6.884   9.501
72164SOL     OW18388   6.326   4.622   4.317
72164SOL    HW118389   6.393   4.669   4.267
72164SOL    HW218390   6.308   4.680   4.391
72165SOL     OW18391   3.562  11.157   8.559
72165SOL    HW118392   3.616  11.184   8.633
72165SOL    HW218393   3.623  11.146   8.487
72166SOL     OW18394   9.901  11.084   9.316
72166SOL    HW118395   9.942  11.100   9.400
72166SOL    HW218396   9.926  10.994   9.294
72167SOL     OW18397   5.484  13.666   6.427
72167SOL    HW118398   5.561  13.613   6.406
72167SOL    HW218399   5.431  13.664   6.348
72168SOL     OW18400   2.985  12.275   0.075
72168SOL    HW118401   2.975  12.346   0.139
72168SOL    HW218402   2.914  12.214   0.095
72169SOL     OW18403   4.992  11.093  10.500
72169SOL    HW118404   5.021  11.108  10.411
72169SOL    HW218405   4.963  11.002  10.501
72170SOL     OW18406   0.197   6.947  13.319
72170SOL    HW118407   0.245   6.972  13.398
72170SOL    HW218408   0.165   6.858  13.338
72171SOL     OW18409   7.104   7.241  12.192
72171SOL    HW118410   7.142   7.184  12.125
72171SOL    HW218411   7.058   7.181  12.251
72172SOL     OW18412  13.982  11.436  14.033
72172SOL    HW118413  13.975  11.350  14.075
72172SOL    HW218414  13.956  11.498  14.100
72173SOL     OW18415  13.863  11.289   6.137
72173SOL    HW118416  13.812  11.361   6.175
72173SOL    HW218417  13.805  11.213   6.144
72174SOL     OW18418   7.292   2.472  11.141
72174SOL    HW118419   7.305   2.565  11.118
72174SOL    HW218420   7.379   2.441  11.166
72175SOL     OW18421   4.110  12.098   4.982
72175SOL    HW118422   4.125  12.013   4.943
72175SOL    HW218423   4.195  12.123   5.019
72176SOL     OW18424  13.888   4.349   5.398
72176SOL    HW118425  13.845   4.427   5.362
72176SOL    HW218426  13.970   4.383   5.435
72177SOL     OW18427   3.334   8.790  13.402
72177SOL    HW118428   3.305   8.879  13.381
72177SOL    HW218429   3.397   8.768  13.333
72178SOL     OW18430   4.637  10.399   9.871
72178SOL    HW118431   4.705  10.336   9.896
72178SOL    HW218432   4.570  10.389   9.938
72179SOL     OW18433  11.133   8.484  14.798
72179SOL    HW118434  11.208   8.544  14.807
72179SOL    HW218435  11.147   8.441  14.713
72180SOL     OW18436   9.056   9.246   4.742
72180SOL    HW118437   9.149   9.257   4.719
72180SOL    HW218438   9.058   9.199   4.825
72181SOL     OW18439  11.867  10.518   1.423
72181SOL    HW118440  11.846  10.611   1.426
72181SOL    HW218441  11.939  10.512   1.360
72182SOL     OW18442  11.032   8.594   5.265
72182SOL    HW118443  11.026   8.677   5.311
72182SOL    HW218444  11.106   8.549   5.306
72183SOL     OW18445   0.668  13.457   4.128
72183SOL    HW118446   0.696  13.366   4.118
72183SOL    HW218447   0.750  13.506   4.131
72184SOL     OW18448   4.146   1.532  11.274
72184SOL    HW118449   4.059   1.548  11.311
72184SOL    HW218450   4.161   1.438  11.286
72185SOL     OW18451   7.357   1.088   4.266
72185SOL    HW118452   7.273   1.114   4.304
72185SOL    HW218453   7.334   1.047   4.183
72186SOL     OW18454   1.698   8.551   8.510
72186SOL    HW118455   1.689   8.586   8.598
72186SOL    HW218456   1.752   8.615   8.463
72187SOL     OW18457  11.997  11.219   9.647
72187SOL    HW118458  11.917  11.187   9.688
72187SOL    HW218459  11.967  11.286   9.586
72188SOL     OW18460   4.295   7.187  10.493
72188SOL    HW118461   4.275   7.104  10.450
72188SOL    HW218462   4.347   7.235  10.428
72189SOL     OW18463  13.450   5.813   0.455
72189SOL    HW118464  13.420   5.811   0.546
72189SOL    HW218465  13.532   5.863   0.458
72190SOL     OW18466   5.784   2.360   6.634
72190SOL    HW118467   5.821   2.341   6.720
72190SOL    HW218468   5.706   2.413   6.652
72191SOL     OW18469   4.132   9.430  14.700
72191SOL    HW118470   4.065   9.414  14.766
72191SOL    HW218471   4.083   9.432  14.617
72192SOL     OW18472   1.686   0.561  11.499
72192SOL    HW118473   1.780   0.558  11.485
72192SOL    HW218474   1.649   0.551  11.411
72193SOL     OW18475  14.136   2.564  14.295
72193SOL    HW118476  14.169   2.585  14.383
72193SOL    HW218477  14.046   2.534  14.309
72194SOL     OW18478  13.360   9.575  13.419
72194SOL    HW118479  13.333   9.665  13.440
72194SOL    HW218480  13.421   9.551  13.488
72195SOL     OW18481   6.140  14.002   0.626
72195SOL    HW118482   6.208  13.935   0.613
72195SOL    HW218483   6.059  13.952   0.638
72196SOL     OW18484   5.947  11.500  11.243
72196SOL    HW118485   5.989  11.418  11.220
72196SOL    HW218486   5.905  11.530  11.163
72197SOL     OW18487  10.641   7.259   2.609
72197SOL    HW118488  10.587   7.217   2.676
72197SOL    HW218489  10.706   7.192   2.586
72198SOL     OW18490  10.592   1.527   0.041
72198SOL    HW118491  10.537   1.491  14.854
72198SOL    HW218492  10.595   1.458   0.107
72199SOL     OW18493  10.930   3.574   1.508
72199SOL    HW118494  10.888   3.569   1.423
72199SOL    HW218495  10.955   3.484   1.529
72200SOL     OW18496  11.164   0.279   6.518
72200SOL    HW118497  11.110   0.255   6.442
72200SOL    HW218498  11.210   0.198   6.541
72201SOL     OW18499   0.954  13.750   1.328
72201SOL    HW118500   0.883  13.707   1.376
72201SOL    HW218501   0.977  13.688   1.258
72202SOL     OW18502   4.760   9.799   0.588
72202SOL    HW118503   4.839   9.764   0.630
72202SOL    HW218504   4.742   9.880   0.636
72203SOL     OW18505   1.999   1.511   4.572
72203SOL    HW118506   1.989   1.443   4.505
72203SOL    HW218507   2.069   1.479   4.629
72204SOL     OW18508   8.500  12.837  12.661
72204SOL    HW118509   8.479  12.744  12.664
72204SOL    HW218510   8.472  12.871  12.747
72205SOL     OW18511  10.243   5.718   1.877
72205SOL    HW118512  10.320   5.769   1.852
72205SOL    HW218513  10.202   5.694   1.794
72206SOL     OW18514   2.630   6.352   5.499
72206SOL    HW118515   2.708   6.361   5.445
72206SOL    HW218516   2.656   6.384   5.585
72207SOL     OW18517   4.097   4.535   0.704
72207SOL    HW118518   4.179   4.583   0.714
72207SOL    HW218519   4.086   4.524   0.610
72208SOL     OW18520   2.021   9.638   1.285
72208SOL    HW118521   2.038   9.696   1.360
72208SOL    HW218522   1.980   9.561   1.323
72209SOL     OW18523   4.736  10.425   9.012
72209SOL    HW118524   4.649  10.437   9.051
72209SOL    HW218525   4.789  10.391   9.084
72210SOL     OW18526   9.454   0.023   0.837
72210SOL    HW118527   9.467  14.837   0.771
72210SOL    HW218528   9.435   0.102   0.786
72211SOL     OW18529   0.742   1.751   2.107
72211SOL    HW118530   0.672   1.762   2.171
72211SOL    HW218531   0.804   1.690   2.149
72212SOL     OW18532  11.049   9.506  14.288
72212SOL    HW118533  11.038   9.509  14.192
72212SOL    HW218534  10.960   9.514  14.322
72213SOL     OW18535   6.735   9.840   5.844
72213SOL    HW118536   6.669   9.899   5.807
72213SOL    HW218537   6.704   9.753   5.821
72214SOL     OW18538   8.396  13.599  11.774
72214SOL    HW118539   8.358  13.684  11.797
72214SOL    HW218540   8.433  13.566  11.856
72215SOL     OW18541   0.953  11.376  10.451
72215SOL    HW118542   1.013  11.302  10.455
72215SOL    HW218543   0.896  11.365  10.527
72216SOL     OW18544   7.998   7.570   9.166
72216SOL    HW118545   8.033   7.486   9.197
72216SOL    HW218546   8.071   7.612   9.121
72217SOL     OW18547  13.477   6.657  10.124
72217SOL    HW118548  13.566   6.691  10.128
72217SOL    HW218549  13.441   6.692  10.043
72218SOL     OW18550   3.747   2.895   9.046
72218SOL    HW118551   3.792   2.818   9.012
72218SOL    HW218552   3.722   2.944   8.967
72219SOL     OW18553   8.592  10.971  13.821
72219SOL    HW118554   8.580  11.066  13.831
72219SOL    HW218555   8.551  10.934  13.899
72220SOL     OW18556   4.870   6.846  12.323
72220SOL    HW118557   4.847   6.773  12.380
72220SOL    HW218558   4.862   6.923  12.379
72221SOL     OW18559  11.523  13.124   0.786
72221SOL    HW118560  11.448  13.117   0.726
72221SOL    HW218561  11.599  13.130   0.729
72222SOL     OW18562   5.701  11.373   6.626
72222SOL    HW118563   5.630  11.433   6.605
72222SOL    HW218564   5.697  11.363   6.721
72223SOL     OW18565   1.660   5.419   5.876
72223SOL    HW118566   1.675   5.369   5.957
72223SOL    HW218567   1.568   5.443   5.880
72224SOL     OW18568   8.025   1.627  11.207
72224SOL    HW118569   7.943   1.643  11.160
72224SOL    HW218570   8.029   1.697  11.273
72225SOL     OW18571   9.614  13.912   9.208
72225SOL    HW118572   9.625  13.846   9.276
72225SOL    HW218573   9.618  13.996   9.254
72226SOL     OW18574  13.927   5.064  13.792
72226SOL    HW118575  13.944   5.118  13.714
72226SOL    HW218576  13.889   4.983  13.758
72227SOL     OW18577   1.205  13.070  10.983
72227SOL    HW118578   1.159  13.061  10.899
72227SOL    HW218579   1.291  13.103  10.960
72228SOL     OW18580   6.428   7.003   2.079
72228SOL    HW118581   6.517   7.016   2.110
72228SOL    HW218582   6.375   6.992   2.158
72229SOL     OW18583   4.825  12.793   4.301
72229SOL    HW118584   4.882  12.719   4.324
72229SOL    HW218585   4.789  12.823   4.385
72230SOL     OW18586  11.463   0.717   8.821
72230SOL    HW118587  11.559   0.717   8.815
72230SOL    HW218588  11.434   0.741   8.733
72231SOL     OW18589   7.976  13.121   0.834
72231SOL    HW118590   8.037  13.057   0.871
72231SOL    HW218591   8.009  13.138   0.746
72232SOL     OW18592   6.370   3.687   0.162
72232SOL    HW118593   6.413   3.708   0.245
72232SOL    HW218594   6.277   3.685   0.183
72233SOL     OW18595  12.053  11.036   1.367
72233SOL    HW118596  12.112  10.995   1.304
72233SOL    HW218597  12.082  11.127   1.372
72234SOL     OW18598   4.397   8.940  14.357
72234SOL    HW118599   4.400   8.891  14.439
72234SOL    HW218600   4.365   9.026  14.382
72235SOL     OW18601   8.599  12.720   9.626
72235SOL    HW118602   8.560  12.640   9.662
72235SOL    HW218603   8.530  12.761   9.575
72236SOL     OW18604  14.749  12.614  13.471
72236SOL    HW118605  14.818  12.669  13.507
72236SOL    HW218606  14.779  12.524  13.486
72237SOL     OW18607  12.817   5.065  10.487
72237SOL    HW118608  12.797   4.983  10.532
72237SOL    HW218609  12.910   5.058  10.464
72238SOL     OW18610   5.024   9.095   9.057
72238SOL    HW118611   5.026   9.045   9.139
72238SOL    HW218612   5.113   9.126   9.045
72239SOL     OW18613   0.781   3.165   3.654
72239SOL    HW118614   0.750   3.079   3.682
72239SOL    HW218615   0.726   3.187   3.579
72240SOL     OW18616   0.001   4.274   1.122
72240SOL    HW118617   0.069   4.277   1.056
72240SOL    HW218618   0.046   4.293   1.204
72241SOL     OW18619   0.673   5.686   2.644
72241SOL    HW118620   0.763   5.700   2.615
72241SOL    HW218621   0.623   5.758   2.605
72242SOL     OW18622   8.560   1.811   9.606
72242SOL    HW118623   8.473   1.838   9.579
72242SOL    HW218624   8.549   1.780   9.696
72243SOL     OW18625   4.936  13.644   3.429
72243SOL    HW118626   5.031  13.637   3.419
72243SOL    HW218627   4.904  13.665   3.341
72244SOL     OW18628   2.122   9.955   5.839
72244SOL    HW118629   2.054  10.022   5.848
72244SOL    HW218630   2.164   9.975   5.755
72245SOL     OW18631   8.327   2.866   2.248
72245SOL    HW118632   8.334   2.913   2.331
72245SOL    HW218633   8.345   2.775   2.269
72246SOL     OW18634   2.302   1.920  12.748
72246SOL    HW118635   2.396   1.933  12.735
72246SOL    HW218636   2.287   1.939  12.840
72247SOL     OW18637   5.848   4.571   4.769
72247SOL    HW118638   5.887   4.484   4.780
72247SOL    HW218639   5.892   4.625   4.836
72248SOL     OW18640   1.309   7.591   0.490
72248SOL    HW118641   1.229   7.563   0.535
72248SOL    HW218642   1.330   7.676   0.529
72249SOL     OW18643   3.173   0.494   2.346
72249SOL    HW118644   3.175   0.531   2.435
72249SOL    HW218645   3.206   0.405   2.358
72250SOL     OW18646   4.217   7.189   8.722
72250SOL    HW118647   4.196   7.243   8.646
72250SOL    HW218648   4.134   7.182   8.770
72251SOL     OW18649  14.231   8.285  12.571
72251SOL    HW118650  14.201   8.365  12.527
72251SOL    HW218651  14.288   8.242  12.508
72252SOL     OW18652   3.757   9.814   4.121
72252SOL    HW118653   3.753   9.757   4.044
72252SOL    HW218654   3.804   9.762   4.186
72253SOL     OW18655   0.746   6.261   1.698
72253SOL    HW118656   0.720   6.203   1.769
72253SOL    HW218657   0.794   6.332   1.741
72254SOL     OW18658  12.455   1.912   8.676
72254SOL    HW118659  12.375   1.958   8.702
72254SOL    HW218660  12.445   1.824   8.714
72255SOL     OW18661  11.679  10.513   7.311
72255SOL    HW118662  11.626  10.459   7.371
72255SOL    HW218663  11.768  10.482   7.324
72256SOL     OW18664   4.330  11.712   8.058
72256SOL    HW118665   4.352  11.804   8.072
72256SOL    HW218666   4.306  11.706   7.966
72257SOL     OW18667  14.788   6.691   0.746
72257SOL    HW118668  14.751   6.700   0.658
72257SOL    HW218669  14.815   6.599   0.751
72258SOL     OW18670   5.176  12.989   7.394
72258SOL    HW118671   5.168  12.917   7.332
72258SOL    HW218672   5.261  12.975   7.436
72259SOL     OW18673  10.876  13.902   6.547
72259SOL    HW118674  10.828  13.820   6.534
72259SOL    HW218675  10.959  13.875   6.586
72260SOL     OW18676   0.240  12.501   3.844
72260SOL    HW118677   0.177  12.560   3.885
72260SOL    HW218678   0.294  12.558   3.789
72261SOL     OW18679   0.311   6.561   4.856
72261SOL    HW118680   0.402   6.587   4.873
72261SOL    HW218681   0.275   6.540   4.942
72262SOL     OW18682  12.252   8.964   4.384
72262SOL    HW118683  12.293   9.028   4.326
72262SOL    HW218684  12.235   9.012   4.466
72263SOL     OW18685   8.472   7.287   6.740
72263SOL    HW118686   8.427   7.325   6.815
72263SOL    HW218687   8.555   7.333   6.736
72264SOL     OW18688   6.387   9.225   1.801
72264SOL    HW118689   6.468   9.211   1.850
72264SOL    HW218690   6.354   9.309   1.833
72265SOL     OW18691   8.440   6.146   6.318
72265SOL    HW118692   8.532   6.122   6.333
72265SOL    HW218693   8.390   6.083   6.371
72266SOL     OW18694   4.136   2.252   8.141
72266SOL    HW118695   4.098   2.338   8.121
72266SOL    HW218696   4.189   2.267   8.219
72267SOL     OW18697   2.799  13.277   9.768
72267SOL    HW118698   2.779  13.290   9.860
72267SOL    HW218699   2.869  13.340   9.750
72268SOL     OW18700  11.301   6.976   7.874
72268SOL    HW118701  11.283   7.006   7.963
72268SOL    HW218702  11.221   6.993   7.826
72269SOL     OW18703   4.470   0.949  13.509
72269SOL    HW118704   4.527   0.985  13.577
72269SOL    HW218705   4.528   0.937  13.433
72270SOL     OW18706   1.942  10.631   0.464
72270SOL    HW118707   1.917  10.720   0.489
72270SOL    HW218708   1.998  10.601   0.536
72271SOL     OW18709  11.846   3.326   6.019
72271SOL    HW118710  11.906   3.330   6.094
72271SOL    HW218711  11.840   3.233   5.998
72272SOL     OW18712   7.985   0.328   1.531
72272SOL    HW118713   8.057   0.381   1.497
72272SOL    HW218714   7.913   0.344   1.470
72273SOL     OW18715   5.010   1.805   1.454
72273SOL    HW118716   5.054   1.822   1.537
72273SOL    HW218717   4.921   1.779   1.478
72274SOL     OW18718   8.696   2.623   4.920
72274SOL    HW118719   8.715   2.540   4.962
72274SOL    HW218720   8.617   2.607   4.869
72275SOL     OW18721  12.946   0.329   7.646
72275SOL    HW118722  12.970   0.316   7.738
72275SOL    HW218723  12.962   0.243   7.606
72276SOL     OW18724   5.018   3.787  13.234
72276SOL    HW118725   4.982   3.722  13.295
72276SOL    HW218726   4.957   3.861  13.240
72277SOL     OW18727   8.936  11.631  10.945
72277SOL    HW118728   9.024  11.594  10.939
72277SOL    HW218729   8.899  11.592  11.024
72278SOL     OW18730   2.334   6.680   1.662
72278SOL    HW118731   2.400   6.711   1.723
72278SOL    HW218732   2.268   6.638   1.717
72279SOL     OW18733  14.668  12.061   5.328
72279SOL    HW118734  14.697  11.997   5.263
72279SOL    HW218735  14.597  12.017   5.375
72280SOL     OW18736  11.876   6.303   3.772
72280SOL    HW118737  11.783   6.323   3.782
72280SOL    HW218738  11.879   6.236   3.703
72281SOL     OW18739   6.985  13.309  12.759
72281SOL    HW118740   7.036  13.391  12.759
72281SOL    HW218741   6.961  13.296  12.668
72282SOL     OW18742   0.282   5.871   0.292
72282SOL    HW118743   0.193   5.879   0.327
72282SOL    HW218744   0.271   5.822   0.210
72283SOL     OW18745  14.534   7.347   3.350
72283SOL    HW118746  14.490   7.363   3.267
72283SOL    HW218747  14.484   7.276   3.390
72284SOL     OW18748  12.164   2.118   7.832
72284SOL    HW118749  12.211   2.130   7.915
72284SOL    HW218750  12.207   2.179   7.772
72285SOL     OW18751   7.804  13.943  14.615
72285SOL    HW118752   7.751  13.956  14.694
72285SOL    HW218753   7.750  13.888  14.559
72286SOL     OW18754   5.604   3.228   8.657
72286SOL    HW118755   5.544   3.269   8.595
72286SOL    HW218756   5.658   3.299   8.690
72287SOL     OW18757   6.597   9.931   7.989
72287SOL    HW118758   6.605   9.893   8.076
72287SOL    HW218759   6.654  10.008   7.991
72288SOL     OW18760  14.035   2.626   4.967
72288SOL    HW118761  14.015   2.576   5.046
72288SOL    HW218762  13.949   2.648   4.930
72289SOL     OW18763   2.934   8.721   9.276
72289SOL    HW118764   2.956   8.813   9.264
72289SOL    HW218765   3.003   8.673   9.230
72290SOL     OW18766   4.514  12.765   9.438
72290SOL    HW118767   4.421  12.782   9.454
72290SOL    HW218768   4.516  12.721   9.353
72291SOL     OW18769   1.546  11.931  12.213
72291SOL    HW118770   1.585  11.888  12.137
72291SOL    HW218771   1.621  11.957  12.267
72292SOL     OW18772   1.307   6.967   2.008
72292SOL    HW118773   1.355   6.885   2.018
72292SOL    HW218774   1.252   6.973   2.086
72293SOL     OW18775  11.754  10.344   1.605
72293SOL    HW118776  11.748  10.391   1.688
72293SOL    HW218777  11.766  10.413   1.540
72294SOL     OW18778   6.428  11.500   3.809
72294SOL    HW118779   6.419  11.573   3.749
72294SOL    HW218780   6.366  11.519   3.880
72295SOL     OW18781  12.357  10.392   4.733
72295SOL    HW118782  12.283  10.436   4.690
72295SOL    HW218783  12.323  10.368   4.820
72296SOL     OW18784  14.083   4.861   9.532
72296SOL    HW118785  14.043   4.829   9.613
72296SOL    HW218786  14.125   4.943   9.557
72297SOL     OW18787   1.975   2.123   8.109
72297SOL    HW118788   2.050   2.109   8.167
72297SOL    HW218789   1.927   2.196   8.149
72298SOL     OW18790  11.116   7.354  13.901
72298SOL    HW118791  11.094   7.393  13.817
72298SOL    HW218792  11.034   7.315  13.932
72299SOL     OW18793  10.547   6.819  11.844
72299SOL    HW118794  10.505   6.904  11.852
72299SOL    HW218795  10.609   6.829  11.772
72300SOL     OW18796   7.766   1.110   6.652
72300SOL    HW118797   7.745   1.203   6.660
72300SOL    HW218798   7.772   1.080   6.743
72301SOL     OW18799   2.433  11.518  11.090
72301SOL    HW118800   2.407  11.437  11.133
72301SOL    HW218801   2.517  11.540  11.130
72302SOL     OW18802   7.388  10.069   6.921
72302SOL    HW118803   7.301  10.073   6.881
72302SOL    HW218804   7.371  10.052   7.014
72303SOL     OW18805   2.531   8.562   1.029
72303SOL    HW118806   2.593   8.584   1.099
72303SOL    HW218807   2.455   8.527   1.075
72304SOL     OW18808   1.932  11.508  11.127
72304SOL    HW118809   1.949  11.439  11.191
72304SOL    HW218810   1.996  11.576  11.148
72305SOL     OW18811   8.100  11.916   1.499
72305SOL    HW118812   8.080  11.999   1.456
72305SOL    HW218813   8.085  11.933   1.592
72306SOL     OW18814   1.875   6.990  10.145
72306SOL    HW118815   1.932   6.940  10.085
72306SOL    HW218816   1.819   7.042  10.087
72307SOL     OW18817   7.216   0.035   7.153
72307SOL    HW118818   7.184   0.085   7.079
72307SOL    HW218819   7.302   0.072   7.173
72308SOL     OW18820   0.477   1.600   6.565
72308SOL    HW118821   0.427   1.681   6.579
72308SOL    HW218822   0.544   1.625   6.501
72309SOL     OW18823   7.847  13.536  13.574
72309SOL    HW118824   7.769  13.590  13.564
72309SOL    HW218825   7.837  13.467  13.509
72310SOL     OW18826   3.270   9.192   2.813
72310SOL    HW118827   3.365   9.189   2.826
72310SOL    HW218828   3.260   9.216   2.721
72311SOL     OW18829   8.720  11.524  10.239
72311SOL    HW118830   8.683  11.438  10.257
72311SOL    HW218831   8.694  11.543  10.149
72312SOL     OW18832   3.836   8.322  13.278
72312SOL    HW118833   3.749   8.330  13.317
72312SOL    HW218834   3.883   8.401  13.305
72313SOL     OW18835  14.589  10.157   7.699
72313SOL    HW118836  14.680  10.133   7.680
72313SOL    HW218837  14.583  10.154   7.795
72314SOL     OW18838   0.308   4.017  13.302
72314SOL    HW118839   0.217   4.045  13.292
72314SOL    HW218840   0.334   4.046  13.389
72315SOL     OW18841   9.959  10.556   5.574
72315SOL    HW118842   9.984  10.646   5.553
72315SOL    HW218843   9.910  10.526   5.497
72316SOL     OW18844   4.468  13.292   9.917
72316SOL    HW118845   4.380  13.261   9.892
72316SOL    HW218846   4.501  13.337   9.840
72317SOL     OW18847   7.579   0.428   2.753
72317SOL    HW118848   7.588   0.522   2.744
72317SOL    HW218849   7.619   0.392   2.673
72318SOL     OW18850  12.879   0.254   5.561
72318SOL    HW118851  12.887   0.296   5.475
72318SOL    HW218852  12.903   0.322   5.623
72319SOL     OW18853   7.074   3.558   1.583
72319SOL    HW118854   7.023   3.627   1.540
72319SOL    HW218855   7.110   3.506   1.511
72320SOL     OW18856   4.483   6.261  11.804
72320SOL    HW118857   4.426   6.310  11.864
72320SOL    HW218858   4.570   6.297  11.819
72321SOL     OW18859  14.046   9.667  10.299
72321SOL    HW118860  13.955   9.685  10.273
72321SOL    HW218861  14.083   9.620  10.224
72322SOL     OW18862   6.451  14.740   8.778
72322SOL    HW118863   6.408  14.656   8.764
72322SOL    HW218864   6.380  14.804   8.771
72323SOL     OW18865  13.462   6.856   1.385
72323SOL    HW118866  13.476   6.946   1.416
72323SOL    HW218867  13.426   6.867   1.297
72324SOL     OW18868  12.742   0.032   7.654
72324SOL    HW118869  12.741   0.079   7.738
72324SOL    HW218870  12.835   0.027   7.631
72325SOL     OW18871  11.045   8.037   1.922
72325SOL    HW118872  11.020   8.095   1.851
72325SOL    HW218873  10.986   8.059   1.994
72326SOL     OW18874   7.667  12.342   1.290
72326SOL    HW118875   7.627  12.426   1.311
72326SOL    HW218876   7.596  12.290   1.250
72327SOL     OW18877   0.788   0.959   8.002
72327SOL    HW118878   0.715   1.020   8.017
72327SOL    HW218879   0.840   0.964   8.082
72328SOL     OW18880  14.257   1.948   4.148
72328SOL    HW118881  14.181   1.903   4.186
72328SOL    HW218882  14.318   1.957   4.220
72329SOL     OW18883   4.644   9.804   5.763
72329SOL    HW118884   4.683   9.815   5.676
72329SOL    HW218885   4.670   9.883   5.811
72330SOL     OW18886   6.708  14.333  13.519
72330SOL    HW118887   6.733  14.416  13.478
72330SOL    HW218888   6.613  14.340  13.530
72331SOL     OW18889   3.479  11.164   3.307
72331SOL    HW118890   3.551  11.227   3.309
72331SOL    HW218891   3.404  11.215   3.277
72332SOL     OW18892   0.651   7.933  13.522
72332SOL    HW118893   0.643   8.027  13.507
72332SOL    HW218894   0.658   7.923  13.617
72333SOL     OW18895   4.171   6.687   6.441
72333SOL    HW118896   4.186   6.633   6.364
72333SOL    HW218897   4.079   6.712   6.435
72334SOL     OW18898  11.846   9.787   3.969
72334SOL    HW118899  11.886   9.767   3.884
72334SOL    HW218900  11.790   9.711   3.987
72335SOL     OW18901   0.255   1.755  13.947
72335SOL    HW118902   0.274   1.783  13.858
72335SOL    HW218903   0.333   1.707  13.974
72336SOL     OW18904   9.345   5.706   9.483
72336SOL    HW118905   9.439   5.687   9.476
72336SOL    HW218906   9.303   5.640   9.428
72337SOL     OW18907  10.274  11.708   5.422
72337SOL    HW118908  10.279  11.665   5.508
72337SOL    HW218909  10.255  11.799   5.443
72338SOL     OW18910   6.140   5.904   0.409
72338SOL    HW118911   6.225   5.875   0.377
72338SOL    HW218912   6.101   5.952   0.336
72339SOL     OW18913   5.832   2.063   8.578
72339SOL    HW118914   5.918   2.104   8.587
72339SOL    HW218915   5.780   2.126   8.527
72340SOL     OW18916   3.090   6.573   8.411
72340SOL    HW118917   3.162   6.610   8.463
72340SOL    HW218918   3.015   6.572   8.470
72341SOL     OW18919   3.182   5.628  13.729
72341SOL    HW118920   3.252   5.686  13.757
72341SOL    HW218921   3.134   5.607  13.809
72342SOL     OW18922   2.028  14.785  14.272
72342SOL    HW118923   1.939  14.772  14.304
72342SOL    HW218924   2.079  14.804  14.351
72343SOL     OW18925   7.518  13.494  10.099
72343SOL    HW118926   7.571  13.521  10.025
72343SOL    HW218927   7.527  13.566  10.162
72344SOL     OW18928   0.347   8.062   0.743
72344SOL    HW118929   0.254   8.065   0.721
72344SOL    HW218930   0.350   8.018   0.827
72345SOL     OW18931   2.539   5.467   7.392
72345SOL    HW118932   2.618   5.520   7.403
72345SOL    HW218933   2.568   5.391   7.342
72346SOL     OW18934   7.336   8.559   0.803
72346SOL    HW118935   7.265   8.512   0.847
72346SOL    HW218936   7.328   8.649   0.833
72347SOL     OW18937   6.688  14.279   9.910
72347SOL    HW118938   6.745  14.316   9.843
72347SOL    HW218939   6.715  14.322   9.991
72348SOL     OW18940   7.481   9.998   0.783
72348SOL    HW118941   7.484  10.073   0.843
72348SOL    HW218942   7.547   9.938   0.818
72349SOL     OW18943  10.182  12.115   5.296
72349SOL    HW118944  10.198  12.197   5.342
72349SOL    HW218945  10.120  12.138   5.227
72350SOL     OW18946   3.813   9.295   5.017
72350SOL    HW118947   3.826   9.388   4.998
72350SOL    HW218948   3.891   9.270   5.068
72351SOL     OW18949   6.809   9.587   7.044
72351SOL    HW118950   6.852   9.502   7.057
72351SOL    HW218951   6.853   9.646   7.105
72352SOL     OW18952  11.678   6.478   2.127
72352SOL    HW118953  11.602   6.492   2.071
72352SOL    HW218954  11.662   6.532   2.204
72353SOL     OW18955  12.886   1.859   7.746
72353SOL    HW118956  12.932   1.818   7.672
72353SOL    HW218957  12.907   1.803   7.821
72354SOL     OW18958   7.428   4.924   1.620
72354SOL    HW118959   7.417   4.892   1.530
72354SOL    HW218960   7.376   4.864   1.673
72355SOL     OW18961  13.733  11.514   9.234
72355SOL    HW118962  13.672  11.572   9.189
72355SOL    HW218963  13.733  11.543   9.325
72356SOL     OW18964   4.682  11.660  12.341
72356SOL    HW118965   4.595  11.655  12.301
72356SOL    HW218966   4.741  11.632  12.271
72357SOL     OW18967   2.820  14.394  11.728
72357SOL    HW118968   2.867  14.475  11.707
72357SOL    HW218969   2.788  14.362  11.644
72358SOL     OW18970   7.281   4.520   7.191
72358SOL    HW118971   7.315   4.484   7.109
72358SOL    HW218972   7.190   4.544   7.172
72359SOL     OW18973   5.115   8.684   1.187
72359SOL    HW118974   5.122   8.722   1.099
72359SOL    HW218975   5.195   8.712   1.232
72360SOL     OW18976   1.264   7.843  10.891
72360SOL    HW118977   1.219   7.782  10.949
72360SOL    HW218978   1.200   7.913  10.876
72361SOL     OW18979  14.170  10.988   5.037
72361SOL    HW118980  14.128  11.061   4.990
72361SOL    HW218981  14.264  11.002   5.023
72362SOL     OW18982   2.007  12.763   6.213
72362SOL    HW118983   2.033  12.855   6.214
72362SOL    HW218984   2.066  12.722   6.150
72363SOL     OW18985   6.863  10.799   0.229
72363SOL    HW118986   6.907  10.718   0.256
72363SOL    HW218987   6.914  10.869   0.269
72364SOL     OW18988   0.238   8.983  13.081
72364SOL    HW118989   0.231   8.926  13.004
72364SOL    HW218990   0.295   9.055  13.052
72365SOL     OW18991  11.913   5.858   1.873
72365SOL    HW118992  11.983   5.838   1.935
72365SOL    HW218993  11.950   5.839   1.787
72366SOL     OW18994   8.876   7.254   8.190
72366SOL    HW118995   8.908   7.226   8.276
72366SOL    HW218996   8.785   7.277   8.204
72367SOL     OW18997  10.193   3.811  10.398
72367SOL    HW118998  10.216   3.737  10.343
72367SOL    HW218999  10.269   3.825  10.454
72368SOL     OW19000   4.022  13.372  12.635
72368SOL    HW119001   3.938  13.367  12.681
72368SOL    HW219002   4.085  13.332  12.695
72369SOL     OW19003   2.394   3.241  11.287
72369SOL    HW119004   2.402   3.181  11.361
72369SOL    HW219005   2.360   3.322  11.326
72370SOL     OW19006   2.431   3.887   7.633
72370SOL    HW119007   2.401   3.921   7.717
72370SOL    HW219008   2.351   3.861   7.588
72371SOL     OW19009   7.330   9.707  10.504
72371SOL    HW119010   7.379   9.721  10.423
72371SOL    HW219011   7.360   9.777  10.563
72372SOL     OW19012   1.230  13.280  13.791
72372SOL    HW119013   1.162  13.269  13.858
72372SOL    HW219014   1.200  13.227  13.717
72373SOL     OW19015  12.441  13.897   6.036
72373SOL    HW119016  12.429  13.959   6.108
72373SOL    HW219017  12.385  13.931   5.966
72374SOL     OW19018   4.422   8.776  12.095
72374SOL    HW119019   4.342   8.825  12.117
72374SOL    HW219020   4.482   8.842  12.061
72375SOL     OW19021  14.495  11.563   7.620
72375SOL    HW119022  14.443  11.641   7.640
72375SOL    HW219023  14.451  11.493   7.668
72376SOL     OW19024  14.267  11.034   3.114
72376SOL    HW119025  14.329  10.962   3.107
72376SOL    HW219026  14.209  11.010   3.185
72377SOL     OW19027   7.733   0.299   0.773
72377SOL    HW119028   7.689   0.214   0.760
72377SOL    HW219029   7.721   0.345   0.690
72378SOL     OW19030   9.423  13.011  13.506
72378SOL    HW119031   9.487  12.988  13.438
72378SOL    HW219032   9.376  12.930  13.523
72379SOL     OW19033  10.099   4.971   7.291
72379SOL    HW119034  10.096   4.990   7.385
72379SOL    HW219035  10.097   5.057   7.249
72380SOL     OW19036  13.378   8.520   5.037
72380SOL    HW119037  13.364   8.428   5.014
72380SOL    HW219038  13.329   8.569   4.971
72381SOL     OW19039  13.078  13.182   6.062
72381SOL    HW119040  13.056  13.266   6.023
72381SOL    HW219041  13.173  13.177   6.059
72382SOL     OW19042  12.378   8.263   4.092
72382SOL    HW119043  12.398   8.276   3.999
72382SOL    HW219044  12.401   8.171   4.108
72383SOL     OW19045   6.687  11.667   8.403
72383SOL    HW119046   6.630  11.731   8.360
72383SOL    HW219047   6.756  11.650   8.340
72384SOL     OW19048   0.635  10.644   0.565
72384SOL    HW119049   0.668  10.554   0.562
72384SOL    HW219050   0.608  10.655   0.656
72385SOL     OW19051   5.316   3.696   1.138
72385SOL    HW119052   5.309   3.606   1.171
72385SOL    HW219053   5.270   3.748   1.204
72386SOL     OW19054  10.537   6.158   3.530
72386SOL    HW119055  10.595   6.114   3.467
72386SOL    HW219056  10.451   6.154   3.489
72387SOL     OW19057   8.198   5.437   0.306
72387SOL    HW119058   8.287   5.404   0.315
72387SOL    HW219059   8.176   5.470   0.393
72388SOL     OW19060   5.894   6.968   6.310
72388SOL    HW119061   5.811   6.922   6.304
72388SOL    HW219062   5.901   6.995   6.402
72389SOL     OW19063  11.796   0.308   6.328
72389SOL    HW119064  11.853   0.385   6.316
72389SOL    HW219065  11.709   0.345   6.339
72390SOL     OW19066  11.895   7.035   6.937
72390SOL    HW119067  11.811   7.020   6.980
72390SOL    HW219068  11.957   7.048   7.008
72391SOL     OW19069  14.037  10.410   4.624
72391SOL    HW119070  13.975  10.391   4.554
72391SOL    HW219071  13.988  10.397   4.705
72392SOL     OW19072   2.238   7.908  13.154
72392SOL    HW119073   2.244   7.992  13.109
72392SOL    HW219074   2.279   7.846  13.094
72393SOL     OW19075   7.402  11.515   2.985
72393SOL    HW119076   7.411  11.485   2.894
72393SOL    HW219077   7.331  11.580   2.982
72394SOL     OW19078   0.543  11.252  14.073
72394SOL    HW119079   0.511  11.326  14.124
72394SOL    HW219080   0.499  11.176  14.111
72395SOL     OW19081   7.636   5.762   0.576
72395SOL    HW119082   7.678   5.807   0.502
72395SOL    HW219083   7.568   5.822   0.605
72396SOL     OW19084   1.744   1.269  11.033
72396SOL    HW119085   1.683   1.264  10.960
72396SOL    HW219086   1.817   1.321  10.999
72397SOL     OW19087  14.078  10.266  14.599
72397SOL    HW119088  14.019  10.204  14.555
72397SOL    HW219089  14.163  10.222  14.599
72398SOL     OW19090  10.701   2.755  12.482
72398SOL    HW119091  10.772   2.722  12.537
72398SOL    HW219092  10.645   2.804  12.542
72399SOL     OW19093   8.896   3.339   8.908
72399SOL    HW119094   8.885   3.280   8.984
72399SOL    HW219095   8.989   3.332   8.887
72400SOL     OW19096   8.450  13.699   7.690
72400SOL    HW119097   8.495  13.653   7.619
72400SOL    HW219098   8.357  13.691   7.669
72401SOL     OW19099  10.258   0.116   8.675
72401SOL    HW119100  10.343   0.075   8.659
72401SOL    HW219101  10.202   0.043   8.704
72402SOL     OW19102   2.973   9.641   3.837
72402SOL    HW119103   2.895   9.659   3.785
72402SOL    HW219104   3.022   9.576   3.787
72403SOL     OW19105   1.282  12.313   5.405
72403SOL    HW119106   1.319  12.347   5.486
72403SOL    HW219107   1.356  12.310   5.344
72404SOL     OW19108   8.717  10.203   7.765
72404SOL    HW119109   8.763  10.188   7.848
72404SOL    HW219110   8.659  10.128   7.755
72405SOL     OW19111   5.533   0.296   2.708
72405SOL    HW119112   5.585   0.238   2.765
72405SOL    HW219113   5.529   0.249   2.624
72406SOL     OW19114  10.874   9.148   1.682
72406SOL    HW119115  10.941   9.085   1.711
72406SOL    HW219116  10.919   9.202   1.617
72407SOL     OW19117  11.638  14.073   9.758
72407SOL    HW119118  11.555  14.118   9.742
72407SOL    HW219119  11.671  14.050   9.671
72408SOL     OW19120  13.573  13.518   1.185
72408SOL    HW119121  13.500  13.460   1.207
72408SOL    HW219122  13.533  13.603   1.168
72409SOL     OW19123   2.981  14.119   4.708
72409SOL    HW119124   2.937  14.085   4.630
72409SOL    HW219125   2.986  14.044   4.767
72410SOL     OW19126   9.644   8.790   2.222
72410SOL    HW119127   9.677   8.830   2.142
72410SOL    HW219128   9.708   8.722   2.243
72411SOL     OW19129  14.000   6.540  11.530
72411SOL    HW119130  13.997   6.466  11.590
72411SOL    HW219131  14.055   6.605  11.574
72412SOL     OW19132   8.251   8.087   8.889
72412SOL    HW119133   8.181   8.110   8.828
72412SOL    HW219134   8.268   8.167   8.938
72413SOL     OW19135   3.915   5.063  14.661
72413SOL    HW119136   3.867   4.995  14.707
72413SOL    HW219137   3.849   5.129  14.639
72414SOL     OW19138   7.776   5.155   9.932
72414SOL    HW119139   7.779   5.091  10.003
72414SOL    HW219140   7.759   5.239   9.976
72415SOL     OW19141   1.852  11.631   8.094
72415SOL    HW119142   1.838  11.724   8.074
72415SOL    HW219143   1.855  11.588   8.008
72416SOL     OW19144  11.982  13.252  14.478
72416SOL    HW119145  12.065  13.298  14.467
72416SOL    HW219146  11.954  13.274  14.567
72417SOL     OW19147   4.298   6.278  10.718
72417SOL    HW119148   4.389   6.308  10.708
72417SOL    HW219149   4.303   6.183  10.711
72418SOL     OW19150  14.259   1.458  10.622
72418SOL    HW119151  14.191   1.522  10.642
72418SOL    HW219152  14.341   1.503  10.641
72419SOL     OW19153  14.197   3.738   8.370
72419SOL    HW119154  14.224   3.814   8.420
72419SOL    HW219155  14.105   3.755   8.347
72420SOL     OW19156   5.523  14.824   1.380
72420SOL    HW119157   5.549  14.735   1.403
72420SOL    HW219158   5.427  14.823   1.385
72421SOL     OW19159   0.991  11.122   1.846
72421SOL    HW119160   0.955  11.182   1.782
72421SOL    HW219161   0.921  11.110   1.910
72422SOL     OW19162   6.337   1.128   4.997
72422SOL    HW119163   6.352   1.142   4.903
72422SOL    HW219164   6.380   1.045   5.016
72423SOL     OW19165  14.427   0.190   7.054
72423SOL    HW119166  14.440   0.136   6.976
72423SOL    HW219167  14.375   0.265   7.023
72424SOL     OW19168   2.445  10.006   8.904
72424SOL    HW119169   2.499   9.949   8.848
72424SOL    HW219170   2.481   9.993   8.992
72425SOL     OW19171   2.467  12.197   5.139
72425SOL    HW119172   2.554  12.196   5.099
72425SOL    HW219173   2.462  12.115   5.187
72426SOL     OW19174   3.671   4.806   8.437
72426SOL    HW119175   3.685   4.897   8.464
72426SOL    HW219176   3.594   4.778   8.488
72427SOL     OW19177   0.753   6.786   0.011
72427SOL    HW119178   0.731   6.723   0.079
72427SOL    HW219179   0.699   6.863   0.030
72428SOL     OW19180   4.761   1.917   0.402
72428SOL    HW119181   4.767   1.821   0.406
72428SOL    HW219182   4.836   1.947   0.454
72429SOL     OW19183   2.579   8.763   6.243
72429SOL    HW119184   2.559   8.735   6.153
72429SOL    HW219185   2.670   8.792   6.239
72430SOL     OW19186   2.244   8.469  10.015
72430SOL    HW119187   2.178   8.455   9.947
72430SOL    HW219188   2.326   8.479   9.966
72431SOL     OW19189   1.112  10.964   6.134
72431SOL    HW119190   1.082  10.928   6.218
72431SOL    HW219191   1.041  11.023   6.108
72432SOL     OW19192   6.251   4.214   9.109
72432SOL    HW119193   6.208   4.283   9.058
72432SOL    HW219194   6.180   4.161   9.144
72433SOL     OW19195  10.899  12.433   3.443
72433SOL    HW119196  10.992  12.437   3.421
72433SOL    HW219197  10.866  12.520   3.423
72434SOL     OW19198   5.010   7.406   5.222
72434SOL    HW119199   4.962   7.482   5.258
72434SOL    HW219200   5.096   7.410   5.264
72435SOL     OW19201  12.634   6.240  11.271
72435SOL    HW119202  12.671   6.163  11.230
72435SOL    HW219203  12.697   6.310  11.254
72436SOL     OW19204   1.890   8.235   7.303
72436SOL    HW119205   1.976   8.273   7.319
72436SOL    HW219206   1.909   8.145   7.273
72437SOL     OW19207   3.172   1.503   2.134
72437SOL    HW119208   3.200   1.505   2.225
72437SOL    HW219209   3.234   1.443   2.091
72438SOL     OW19210  11.494   5.894   1.583
72438SOL    HW119211  11.442   5.938   1.650
72438SOL    HW219212  11.443   5.904   1.502
72439SOL     OW19213   2.327  10.555   1.589
72439SOL    HW119214   2.400  10.539   1.649
72439SOL    HW219215   2.353  10.633   1.541
72440SOL     OW19216  11.748  10.514   5.586
72440SOL    HW119217  11.819  10.477   5.639
72440SOL    HW219218  11.787  10.527   5.499
72441SOL     OW19219  11.797  11.896   3.090
72441SOL    HW119220  11.810  11.864   3.180
72441SOL    HW219221  11.845  11.979   3.088
72442SOL     OW19222  12.826   3.194   2.984
72442SOL    HW119223  12.884   3.125   3.018
72442SOL    HW219224  12.769   3.216   3.058
72443SOL     OW19225   5.352  11.588  13.260
72443SOL    HW119226   5.396  11.649  13.202
72443SOL    HW219227   5.265  11.576  13.221
72444SOL     OW19228  13.181  11.312  11.257
72444SOL    HW119229  13.252  11.347  11.202
72444SOL    HW219230  13.176  11.219  11.233
72445SOL     OW19231  10.232  12.440   4.844
72445SOL    HW119232  10.321  12.474   4.855
72445SOL    HW219233  10.240  12.368   4.782
72446SOL     OW19234   2.860  14.164   8.809
72446SOL    HW119235   2.822  14.217   8.738
72446SOL    HW219236   2.799  14.175   8.882
72447SOL     OW19237  13.043  14.795   3.263
72447SOL    HW119238  13.128  14.754   3.278
72447SOL    HW219239  13.017  14.829   3.349
72448SOL     OW19240  11.773  13.966  14.338
72448SOL    HW119241  11.818  13.962  14.253
72448SOL    HW219242  11.804  14.048  14.377
72449SOL     OW19243   3.341   8.974   9.235
72449SOL    HW119244   3.405   8.922   9.187
72449SOL    HW219245   3.257   8.949   9.198
72450SOL     OW19246   7.768  13.068   4.965
72450SOL    HW119247   7.720  13.106   5.038
72450SOL    HW219248   7.858  13.060   4.997
72451SOL     OW19249   3.114   3.050  13.266
72451SOL    HW119250   3.141   2.961  13.243
72451SOL    HW219251   3.141   3.103  13.191
72452SOL     OW19252   3.329  14.819   7.198
72452SOL    HW119253   3.266   0.004   7.224
72452SOL    HW219254   3.302  14.741   7.245
72453SOL     OW19255  10.827   0.893   9.555
72453SOL    HW119256  10.742   0.884   9.513
72453SOL    HW219257  10.859   0.804   9.565
72454SOL     OW19258   9.186   9.308   3.364
72454SOL    HW119259   9.170   9.270   3.277
72454SOL    HW219260   9.272   9.350   3.357
72455SOL     OW19261  10.115  10.448  12.760
72455SOL    HW119262  10.119  10.463  12.666
72455SOL    HW219263  10.139  10.356  12.770
72456SOL     OW19264   4.702   5.371   2.518
72456SOL    HW119265   4.728   5.418   2.597
72456SOL    HW219266   4.619   5.328   2.541
72457SOL     OW19267  10.850  11.971   5.894
72457SOL    HW119268  10.829  11.997   5.804
72457SOL    HW219269  10.873  11.878   5.888
72458SOL     OW19270  12.534   9.961   2.217
72458SOL    HW119271  12.501   9.928   2.133
72458SOL    HW219272  12.591   9.892   2.249
72459SOL     OW19273   9.919   1.718   2.148
72459SOL    HW119274   9.930   1.713   2.053
72459SOL    HW219275   9.969   1.644   2.182
72460SOL     OW19276   1.255  12.546   1.890
72460SOL    HW119277   1.339  12.504   1.872
72460SOL    HW219278   1.190  12.478   1.870
72461SOL     OW19279  11.117  14.476  10.227
72461SOL    HW119280  11.024  14.476  10.252
72461SOL    HW219281  11.163  14.457  10.309
72462SOL     OW19282   4.437   6.734  12.845
72462SOL    HW119283   4.473   6.786  12.774
72462SOL    HW219284   4.407   6.799  12.909
72463SOL     OW19285  12.251  10.678   5.368
72463SOL    HW119286  12.330  10.716   5.330
72463SOL    HW219287  12.188  10.750   5.370
72464SOL     OW19288   8.895   7.900  10.223
72464SOL    HW119289   8.882   7.976  10.166
72464SOL    HW219290   8.820   7.844  10.204
72465SOL     OW19291   7.723   0.273   1.637
72465SOL    HW119292   7.675   0.343   1.593
72465SOL    HW219293   7.721   0.199   1.575
72466SOL     OW19294   8.911  13.448   2.007
72466SOL    HW119295   8.977  13.491   1.953
72466SOL    HW219296   8.830  13.456   1.956
72467SOL     OW19297   5.513   3.883   5.759
72467SOL    HW119298   5.591   3.878   5.816
72467SOL    HW219299   5.515   3.802   5.709
72468SOL     OW19300  12.366   8.049  14.390
72468SOL    HW119301  12.387   8.079  14.479
72468SOL    HW219302  12.300   8.112  14.359
72469SOL     OW19303   0.942   9.401   4.743
72469SOL    HW119304   0.977   9.375   4.658
72469SOL    HW219305   0.906   9.488   4.729
72470SOL     OW19306   3.876   8.216   0.641
72470SOL    HW119307   3.792   8.181   0.612
72470SOL    HW219308   3.921   8.142   0.681
72471SOL     OW19309   2.351  14.233   3.285
72471SOL    HW119310   2.343  14.264   3.195
72471SOL    HW219311   2.310  14.301   3.338
72472SOL     OW19312   8.039  12.841   3.353
72472SOL    HW119313   8.127  12.828   3.317
72472SOL    HW219314   8.009  12.922   3.314
72473SOL     OW19315   1.527   0.719   2.145
72473SOL    HW119316   1.532   0.631   2.108
72473SOL    HW219317   1.584   0.772   2.089
72474SOL     OW19318   2.908   7.293   5.466
72474SOL    HW119319   2.925   7.199   5.470
72474SOL    HW219320   2.813   7.299   5.454
72475SOL     OW19321  11.721  14.199   9.344
72475SOL    HW119322  11.760  14.156   9.419
72475SOL    HW219323  11.795  14.224   9.289
72476SOL     OW19324  13.258  13.051   9.394
72476SOL    HW119325  13.279  13.105   9.470
72476SOL    HW219326  13.320  12.978   9.398
72477SOL     OW19327   5.982  12.845   3.526
72477SOL    HW119328   6.050  12.780   3.510
72477SOL    HW219329   5.938  12.815   3.605
72478SOL     OW19330   8.756  13.146  13.209
72478SOL    HW119331   8.826  13.189  13.159
72478SOL    HW219332   8.788  13.144  13.299
72479SOL     OW19333  14.770  14.223  13.377
72479SOL    HW119334  14.760  14.314  13.404
72479SOL    HW219335  14.693  14.178  13.412
72480SOL     OW19336   4.305   2.253   4.447
72480SOL    HW119337   4.269   2.242   4.359
72480SOL    HW219338   4.370   2.323   4.439
72481SOL     OW19339  11.780   1.521  13.666
72481SOL    HW119340  11.777   1.526  13.761
72481SOL    HW219341  11.871   1.502  13.646
72482SOL     OW19342  13.420   7.976   2.330
72482SOL    HW119343  13.489   7.967   2.264
72482SOL    HW219344  13.359   8.041   2.294
72483SOL     OW19345  10.932   2.163   9.118
72483SOL    HW119346  10.890   2.088   9.076
72483SOL    HW219347  10.917   2.236   9.058
72484SOL     OW19348   1.306   0.535   7.813
72484SOL    HW119349   1.282   0.547   7.905
72484SOL    HW219350   1.370   0.464   7.814
72485SOL     OW19351   8.359  12.838   4.091
72485SOL    HW119352   8.294  12.873   4.151
72485SOL    HW219353   8.351  12.893   4.013
72486SOL     OW19354  13.041  13.159   8.809
72486SOL    HW119355  13.024  13.065   8.807
72486SOL    HW219356  12.954  13.199   8.819
72487SOL     OW19357   9.543   0.009   9.281
72487SOL    HW119358   9.481   0.047   9.342
72487SOL    HW219359   9.584  14.819   9.329
72488SOL     OW19360   0.107   3.101   4.256
72488SOL    HW119361   0.040   3.037   4.279
72488SOL    HW219362   0.059   3.170   4.211
72489SOL     OW19363   9.997   3.344   2.008
72489SOL    HW119364   9.969   3.267   2.057
72489SOL    HW219365  10.087   3.326   1.982
72490SOL     OW19366   8.812  14.489   3.668
72490SOL    HW119367   8.852  14.504   3.582
72490SOL    HW219368   8.864  14.420   3.707
72491SOL     OW19369   6.923   8.894   8.711
72491SOL    HW119370   6.889   8.907   8.623
72491SOL    HW219371   6.909   8.801   8.729
72492SOL     OW19372   3.015   6.128  14.416
72492SOL    HW119373   3.090   6.140  14.357
72492SOL    HW219374   3.031   6.189  14.488
72493SOL     OW19375  11.922   9.397   3.715
72493SOL    HW119376  11.973   9.319   3.739
72493SOL    HW219377  11.837   9.384   3.756
72494SOL     OW19378  12.775  10.599   6.205
72494SOL    HW119379  12.816  10.662   6.146
72494SOL    HW219380  12.683  10.597   6.177
72495SOL     OW19381   2.420  12.229   9.328
72495SOL    HW119382   2.439  12.244   9.235
72495SOL    HW219383   2.332  12.265   9.341
72496SOL     OW19384   4.676   4.271  13.237
72496SOL    HW119385   4.654   4.280  13.144
72496SOL    HW219386   4.710   4.357  13.262
72497SOL     OW19387   7.305  11.932   3.192
72497SOL    HW119388   7.360  11.973   3.259
72497SOL    HW219389   7.310  11.838   3.212
72498SOL     OW19390  13.731   1.558   9.940
72498SOL    HW119391  13.703   1.532   9.852
72498SOL    HW219392  13.722   1.653   9.941
72499SOL     OW19393   0.596  12.075  11.411
72499SOL    HW119394   0.599  12.141  11.480
72499SOL    HW219395   0.659  12.009  11.439
72500SOL     OW19396   2.903   1.047   1.811
72500SOL    HW119397   2.939   1.073   1.726
72500SOL    HW219398   2.810   1.072   1.806
72501SOL     OW19399  14.718   0.754  13.557
72501SOL    HW119400  14.690   0.667  13.583
72501SOL    HW219401  14.648   0.812  13.588
72502SOL     OW19402   6.724   0.709   4.851
72502SOL    HW119403   6.755   0.739   4.766
72502SOL    HW219404   6.791   0.739   4.913
72503SOL     OW19405  11.855  11.745   0.514
72503SOL    HW119406  11.816  11.712   0.433
72503SOL    HW219407  11.926  11.803   0.484
72504SOL     OW19408   3.272   9.573  11.399
72504SOL    HW119409   3.265   9.516  11.476
72504SOL    HW219410   3.234   9.522  11.328
72505SOL     OW19411  13.015   7.787   2.020
72505SOL    HW119412  13.091   7.746   1.980
72505SOL    HW219413  13.043   7.806   2.110
72506SOL     OW19414   4.975   1.626  10.965
72506SOL    HW119415   4.912   1.566  10.924
72506SOL    HW219416   4.926   1.667  11.036
72507SOL     OW19417   5.485   1.980  10.390
72507SOL    HW119418   5.390   1.967  10.389
72507SOL    HW219419   5.497   2.074  10.374
72508SOL     OW19420   8.588   9.121   0.887
72508SOL    HW119421   8.642   9.176   0.831
72508SOL    HW219422   8.619   9.032   0.871
72509SOL     OW19423   0.436   6.861   6.181
72509SOL    HW119424   0.350   6.898   6.202
72509SOL    HW219425   0.495   6.901   6.245
72510SOL     OW19426  10.230   7.315   1.966
72510SOL    HW119427  10.245   7.309   1.872
72510SOL    HW219428  10.175   7.393   1.977
72511SOL     OW19429   1.903   3.746   0.592
72511SOL    HW119430   1.925   3.683   0.660
72511SOL    HW219431   1.810   3.730   0.574
72512SOL     OW19432   2.321   1.865  10.307
72512SOL    HW119433   2.354   1.937  10.360
72512SOL    HW219434   2.266   1.907  10.240
72513SOL     OW19435  13.547   4.002   3.892
72513SOL    HW119436  13.585   4.050   3.818
72513SOL    HW219437  13.519   4.071   3.953
72514SOL     OW19438   6.897   2.962   6.329
72514SOL    HW119439   6.956   2.927   6.395
72514SOL    HW219440   6.810   2.942   6.361
72515SOL     OW19441  13.298   8.395   8.616
72515SOL    HW119442  13.346   8.319   8.585
72515SOL    HW219443  13.304   8.458   8.545
72516SOL     OW19444   8.381  13.824  10.113
72516SOL    HW119445   8.416  13.737  10.132
72516SOL    HW219446   8.444  13.885  10.152
72517SOL     OW19447   0.574   1.744   3.363
72517SOL    HW119448   0.608   1.782   3.444
72517SOL    HW219449   0.505   1.804   3.334
72518SOL     OW19450   5.627   2.428   0.240
72518SOL    HW119451   5.659   2.339   0.255
72518SOL    HW219452   5.581   2.422   0.156
72519SOL     OW19453   9.076   8.794   5.994
72519SOL    HW119454   9.039   8.755   5.914
72519SOL    HW219455   9.104   8.882   5.967
72520SOL     OW19456  13.359   3.676   4.338
72520SOL    HW119457  13.402   3.711   4.416
72520SOL    HW219458  13.418   3.700   4.266
72521SOL     OW19459   7.839   7.077   3.285
72521SOL    HW119460   7.812   7.127   3.208
72521SOL    HW219461   7.767   7.017   3.301
72522SOL     OW19462   4.758  14.601   9.269
72522SOL    HW119463   4.792  14.554   9.192
72522SOL    HW219464   4.836  14.620   9.321
72523SOL     OW19465   5.641   3.027   2.003
72523SOL    HW119466   5.681   3.055   1.921
72523SOL    HW219467   5.597   3.106   2.036
72524SOL     OW19468   9.354   7.778   4.026
72524SOL    HW119469   9.306   7.842   3.973
72524SOL    HW219470   9.382   7.827   4.103
72525SOL     OW19471   2.136  10.478  13.917
72525SOL    HW119472   2.120  10.493  13.823
72525SOL    HW219473   2.154  10.385  13.923
72526SOL     OW19474   3.641  13.237   2.550
72526SOL    HW119475   3.567  13.275   2.596
72526SOL    HW219476   3.670  13.165   2.607
72527SOL     OW19477   7.825   5.445   9.971
72527SOL    HW119478   7.862   5.534   9.969
72527SOL    HW219479   7.847   5.413  10.059
72528SOL     OW19480   5.097   3.163  14.169
72528SOL    HW119481   5.087   3.133  14.079
72528SOL    HW219482   5.191   3.171  14.182
72529SOL     OW19483  10.191   0.302   9.249
72529SOL    HW119484  10.216   0.213   9.273
72529SOL    HW219485  10.105   0.292   9.206
72530SOL     OW19486  11.168  12.786  13.245
72530SOL    HW119487  11.256  12.812  13.269
72530SOL    HW219488  11.169  12.785  13.149
72531SOL     OW19489   6.400   4.619   9.094
72531SOL    HW119490   6.491   4.606   9.120
72531SOL    HW219491   6.398   4.593   9.001
72532SOL     OW19492   8.020  12.963   7.829
72532SOL    HW119493   7.934  12.951   7.789
72532SOL    HW219494   8.081  12.962   7.756
72533SOL     OW19495   7.054   7.360  13.710
72533SOL    HW119496   6.978   7.353  13.652
72533SOL    HW219497   7.022   7.325  13.794
72534SOL     OW19498   0.431   3.798   7.350
72534SOL    HW119499   0.431   3.750   7.267
72534SOL    HW219500   0.342   3.832   7.358
72535SOL     OW19501   0.974  12.701   2.348
72535SOL    HW119502   0.907  12.633   2.357
72535SOL    HW219503   1.039  12.663   2.289
72536SOL     OW19504   9.931   6.015   2.119
72536SOL    HW119505   9.895   6.101   2.098
72536SOL    HW219506   9.993   5.997   2.047
72537SOL     OW19507   9.359   2.493  12.292
72537SOL    HW119508   9.416   2.569  12.301
72537SOL    HW219509   9.394   2.428  12.353
72538SOL     OW19510  14.529   8.305   1.152
72538SOL    HW119511  14.589   8.267   1.216
72538SOL    HW219512  14.586   8.331   1.079
72539SOL     OW19513   4.232  13.568  10.522
72539SOL    HW119514   4.272  13.484  10.543
72539SOL    HW219515   4.305  13.623  10.493
72540SOL     OW19516  11.399  14.733  10.005
72540SOL    HW119517  11.465  14.800  10.024
72540SOL    HW219518  11.338  14.738  10.079
72541SOL     OW19519  11.174   2.032   0.264
72541SOL    HW119520  11.095   2.051   0.213
72541SOL    HW219521  11.160   1.944   0.298
72542SOL     OW19522   8.427   2.717   2.854
72542SOL    HW119523   8.463   2.783   2.794
72542SOL    HW219524   8.344   2.754   2.883
72543SOL     OW19525   6.258  10.888  11.350
72543SOL    HW119526   6.353  10.892  11.346
72543SOL    HW219527   6.235  10.815  11.292
72544SOL     OW19528   0.870   8.039   7.531
72544SOL    HW119529   0.786   8.057   7.490
72544SOL    HW219530   0.849   7.982   7.604
72545SOL     OW19531   0.661   7.245  13.471
72545SOL    HW119532   0.692   7.335  13.465
72545SOL    HW219533   0.664   7.225  13.565
72546SOL     OW19534   3.665   4.853   4.533
72546SOL    HW119535   3.616   4.771   4.521
72546SOL    HW219536   3.757   4.826   4.530
72547SOL     OW19537   8.006   1.504   2.260
72547SOL    HW119538   7.940   1.450   2.303
72547SOL    HW219539   8.089   1.472   2.294
72548SOL     OW19540   8.626   5.085   9.900
72548SOL    HW119541   8.547   5.034   9.921
72548SOL    HW219542   8.663   5.107   9.986
72549SOL     OW19543   4.835   2.393   9.676
72549SOL    HW119544   4.803   2.303   9.684
72549SOL    HW219545   4.755   2.446   9.667
72550SOL     OW19546   9.520   5.455  10.946
72550SOL    HW119547   9.521   5.548  10.969
72550SOL    HW219548   9.434   5.424  10.976
72551SOL     OW19549  10.242  13.438  13.034
72551SOL    HW119550  10.263  13.504  12.968
72551SOL    HW219551  10.154  13.409  13.011
72552SOL     OW19552  12.408   6.826   4.894
72552SOL    HW119553  12.324   6.781   4.885
72552SOL    HW219554  12.447   6.790   4.974
72553SOL     OW19555  14.795  12.293   6.106
72553SOL    HW119556  14.850  12.267   6.031
72553SOL    HW219557  14.839  12.255   6.182
72554SOL     OW19558   5.123   1.251   2.497
72554SOL    HW119559   5.045   1.197   2.485
72554SOL    HW219560   5.102   1.334   2.454
72555SOL     OW19561  10.612   7.176   1.716
72555SOL    HW119562  10.586   7.245   1.655
72555SOL    HW219563  10.530   7.134   1.741
72556SOL     OW19564   8.540   9.417  10.224
72556SOL    HW119565   8.503   9.377  10.302
72556SOL    HW219566   8.617   9.364  10.204
72557SOL     OW19567   1.987   6.171   6.214
72557SOL    HW119568   1.908   6.141   6.169
72557SOL    HW219569   2.045   6.095   6.215
72558SOL     OW19570  11.378  14.144   9.704
72558SOL    HW119571  11.339  14.175   9.622
72558SOL    HW219572  11.303  14.117   9.758
72559SOL     OW19573   6.648   0.668   1.213
72559SOL    HW119574   6.557   0.680   1.241
72559SOL    HW219575   6.699   0.673   1.293
72560SOL     OW19576  10.582  11.391  12.098
72560SOL    HW119577  10.550  11.368  12.185
72560SOL    HW219578  10.619  11.479  12.108
72561SOL     OW19579   2.623  12.039  13.946
72561SOL    HW119580   2.686  12.018  13.878
72561SOL    HW219581   2.661  12.113  13.992
72562SOL     OW19582   3.265   0.525   6.218
72562SOL    HW119583   3.238   0.435   6.234
72562SOL    HW219584   3.292   0.527   6.126
72563SOL     OW19585   9.440   9.914   7.381
72563SOL    HW119586   9.395   9.839   7.344
72563SOL    HW219587   9.533   9.898   7.364
72564SOL     OW19588  14.604   2.898   2.858
72564SOL    HW119589  14.650   2.960   2.915
72564SOL    HW219590  14.597   2.819   2.911
72565SOL     OW19591   8.737  13.650  10.640
72565SOL    HW119592   8.815  13.624  10.689
72565SOL    HW219593   8.664  13.633  10.700
72566SOL     OW19594   2.320   6.472   3.019
72566SOL    HW119595   2.261   6.413   2.972
72566SOL    HW219596   2.305   6.557   2.979
72567SOL     OW19597  13.488  10.967   0.539
72567SOL    HW119598  13.581  10.944   0.528
72567SOL    HW219599  13.446  10.884   0.564
72568SOL     OW19600   1.611   3.422   6.023
72568SOL    HW119601   1.555   3.360   5.977
72568SOL    HW219602   1.549   3.484   6.063
72569SOL     OW19603  13.711   8.203   0.016
72569SOL    HW119604  13.765   8.128   0.041
72569SOL    HW219605  13.775   8.272  14.876
72570SOL     OW19606   3.789   5.599   7.505
72570SOL    HW119607   3.722   5.531   7.493
72570SOL    HW219608   3.871   5.557   7.479
72571SOL     OW19609   8.426  10.096  11.493
72571SOL    HW119610   8.424  10.180  11.447
72571SOL    HW219611   8.440  10.119  11.584
72572SOL     OW19612  12.162  11.924  12.261
72572SOL    HW119613  12.235  11.866  12.238
72572SOL    HW219614  12.134  11.893  12.347
72573SOL     OW19615  14.832   4.483   7.315
72573SOL    HW119616  14.771   4.490   7.241
72573SOL    HW219617   0.008   4.559   7.305
72574SOL     OW19618   8.413  13.326   1.499
72574SOL    HW119619   8.397  13.319   1.594
72574SOL    HW219620   8.348  13.389   1.469
72575SOL     OW19621   7.600   1.349  11.150
72575SOL    HW119622   7.582   1.263  11.188
72575SOL    HW219623   7.686   1.372  11.185
72576SOL     OW19624   7.872  12.523  11.471
72576SOL    HW119625   7.792  12.548  11.425
72576SOL    HW219626   7.888  12.595  11.532
72577SOL     OW19627   2.160   6.866   7.535
72577SOL    HW119628   2.227   6.929   7.561
72577SOL    HW219629   2.116   6.906   7.461
72578SOL     OW19630  14.845  13.753  12.844
72578SOL    HW119631   0.013  13.713  12.915
72578SOL    HW219632   0.020  13.746  12.768
72579SOL     OW19633  10.965   4.123   9.832
72579SOL    HW119634  10.955   4.029   9.821
72579SOL    HW219635  10.907   4.161   9.767
72580SOL     OW19636   7.270   3.227   2.084
72580SOL    HW119637   7.292   3.320   2.090
72580SOL    HW219638   7.302   3.201   1.997
72581SOL     OW19639  12.277   7.751   2.052
72581SOL    HW119640  12.189   7.715   2.065
72581SOL    HW219641  12.319   7.689   1.991
72582SOL     OW19642  11.793   3.645  13.253
72582SOL    HW119643  11.758   3.734  13.247
72582SOL    HW219644  11.859   3.640  13.184
72583SOL     OW19645  12.326   0.756   5.509
72583SOL    HW119646  12.317   0.728   5.418
72583SOL    HW219647  12.289   0.685   5.560
72584SOL     OW19648   4.208   6.768  13.489
72584SOL    HW119649   4.217   6.672  13.491
72584SOL    HW219650   4.281   6.800  13.542
72585SOL     OW19651   9.885   8.404  10.687
72585SOL    HW119652   9.909   8.480  10.634
72585SOL    HW219653   9.885   8.331  10.624
72586SOL     OW19654   4.487   4.021   3.914
72586SOL    HW119655   4.402   4.026   3.871
72586SOL    HW219656   4.483   4.088   3.983
72587SOL     OW19657  11.135   3.674   9.005
72587SOL    HW119658  11.148   3.731   9.080
72587SOL    HW219659  11.096   3.594   9.042
72588SOL     OW19660   3.523   8.014   3.377
72588SOL    HW119661   3.590   7.981   3.437
72588SOL    HW219662   3.516   8.107   3.398
72589SOL     OW19663   6.395   4.880  13.666
72589SOL    HW119664   6.336   4.834  13.607
72589SOL    HW219665   6.477   4.831  13.662
72590SOL     OW19666   5.869   8.123   9.683
72590SOL    HW119667   5.926   8.199   9.666
72590SOL    HW219668   5.919   8.048   9.650
72591SOL     OW19669   5.153  11.023  11.687
72591SOL    HW119670   5.081  10.970  11.723
72591SOL    HW219671   5.226  11.008  11.748
72592SOL     OW19672  11.429  10.936   9.463
72592SOL    HW119673  11.335  10.921   9.453
72592SOL    HW219674  11.437  11.032   9.470
72593SOL     OW19675  10.735  12.439  12.602
72593SOL    HW119676  10.819  12.484  12.593
72593SOL    HW219677  10.693  12.448  12.516
72594SOL     OW19678   8.707  12.233  12.253
72594SOL    HW119679   8.787  12.286  12.244
72594SOL    HW219680   8.636  12.297  12.250
72595SOL     OW19681  11.854   8.482   9.237
72595SOL    HW119682  11.856   8.496   9.332
72595SOL    HW219683  11.907   8.404   9.223
72596SOL     OW19684   9.257  12.232  11.904
72596SOL    HW119685   9.261  12.141  11.934
72596SOL    HW219686   9.332  12.275  11.947
72597SOL     OW19687  13.620   2.178   6.345
72597SOL    HW119688  13.612   2.139   6.258
72597SOL    HW219689  13.615   2.273   6.330
72598SOL     OW19690  12.886   8.988   7.283
72598SOL    HW119691  12.938   9.067   7.303
72598SOL    HW219692  12.948   8.930   7.240
72599SOL     OW19693   2.194   2.248   9.659
72599SOL    HW119694   2.193   2.335   9.620
72599SOL    HW219695   2.133   2.196   9.607
72600SOL     OW19696  13.490   6.961   2.129
72600SOL    HW119697  13.502   6.946   2.223
72600SOL    HW219698  13.499   7.056   2.119
72601SOL     OW19699  14.264   7.092   0.127
72601SOL    HW119700  14.285   7.112   0.218
72601SOL    HW219701  14.169   7.097   0.122
72602SOL     OW19702   5.486   7.670  13.594
72602SOL    HW119703   5.427   7.703  13.525
72602SOL    HW219704   5.512   7.748  13.642
72603SOL     OW19705   7.139   0.098   5.089
72603SOL    HW119706   7.198   0.173   5.097
72603SOL    HW219707   7.114   0.078   5.179
72604SOL     OW19708   3.514   7.910   7.421
72604SOL    HW119709   3.447   7.953   7.473
72604SOL    HW219710   3.594   7.961   7.436
72605SOL     OW19711   5.325  13.787  12.755
72605SOL    HW119712   5.291  13.703  12.785
72605SOL    HW219713   5.419  13.782  12.770
72606SOL     OW19714   1.403   9.913   5.931
72606SOL    HW119715   1.393   9.972   6.005
72606SOL    HW219716   1.324   9.859   5.933
72607SOL     OW19717  12.209   8.622   8.977
72607SOL    HW119718  12.251   8.683   8.916
72607SOL    HW219719  12.161   8.678   9.038
72608SOL     OW19720   7.317  10.057   7.432
72608SOL    HW119721   7.404  10.093   7.413
72608SOL    HW219722   7.324  10.023   7.521
72609SOL     OW19723   8.540   9.252   1.776
72609SOL    HW119724   8.627   9.268   1.740
72609SOL    HW219725   8.544   9.285   1.865
72610SOL     OW19726   1.878   9.747   5.017
72610SOL    HW119727   1.875   9.733   4.923
72610SOL    HW219728   1.948   9.811   5.030
72611SOL     OW19729  11.551   6.169   1.208
72611SOL    HW119730  11.542   6.261   1.184
72611SOL    HW219731  11.555   6.123   1.123
72612SOL     OW19732   9.746   7.463   3.718
72612SOL    HW119733   9.706   7.544   3.688
72612SOL    HW219734   9.788   7.487   3.801
72613SOL     OW19735  14.676   7.094   9.198
72613SOL    HW119736  14.683   7.065   9.107
72613SOL    HW219737  14.765   7.122   9.221
72614SOL     OW19738  12.631  11.669   1.433
72614SOL    HW119739  12.641  11.744   1.491
72614SOL    HW219740  12.552  11.624   1.465
72615SOL     OW19741   9.481  12.029  13.187
72615SOL    HW119742   9.511  12.046  13.098
72615SOL    HW219743   9.389  12.056  13.187
72616SOL     OW19744   2.920   7.135   3.237
72616SOL    HW119745   2.872   7.117   3.317
72616SOL    HW219746   3.012   7.121   3.260
72617SOL     OW19747   6.159   7.794  11.061
72617SOL    HW119748   6.168   7.840  10.978
72617SOL    HW219749   6.068   7.809  11.087
72618SOL     OW19750   2.617   9.151  10.787
72618SOL    HW119751   2.647   9.191  10.706
72618SOL    HW219752   2.522   9.161  10.785
72619SOL     OW19753   8.031   4.238   3.029
72619SOL    HW119754   8.108   4.247   2.974
72619SOL    HW219755   8.065   4.242   3.119
72620SOL     OW19756   8.014   4.319  13.578
72620SOL    HW119757   8.025   4.403  13.623
72620SOL    HW219758   7.972   4.341  13.495
72621SOL     OW19759   0.250   9.573   7.390
72621SOL    HW119760   0.291   9.487   7.398
72621SOL    HW219761   0.236   9.602   7.480
72622SOL     OW19762   1.092   3.724   0.891
72622SOL    HW119763   1.125   3.785   0.957
72622SOL    HW219764   1.140   3.643   0.907
72623SOL     OW19765   0.914   2.115  13.360
72623SOL    HW119766   0.996   2.164  13.369
72623SOL    HW219767   0.939   2.023  13.370
72624SOL     OW19768   7.869   6.567   6.141
72624SOL    HW119769   7.937   6.511   6.103
72624SOL    HW219770   7.915   6.618   6.208
72625SOL     OW19771   5.427   8.627  13.560
72625SOL    HW119772   5.374   8.567  13.507
72625SOL    HW219773   5.432   8.707  13.508
72626SOL     OW19774  10.034   7.551   8.069
72626SOL    HW119775  10.115   7.537   8.118
72626SOL    HW219776  10.053   7.520   7.981
72627SOL     OW19777   8.954   5.265   0.869
72627SOL    HW119778   8.973   5.215   0.790
72627SOL    HW219779   9.028   5.246   0.928
72628SOL     OW19780   0.149  10.407   9.904
72628SOL    HW119781   0.099  10.470   9.851
72628SOL    HW219782   0.192  10.460   9.971
72629SOL     OW19783   0.148   1.717   8.277
72629SOL    HW119784   0.115   1.806   8.266
72629SOL    HW219785   0.213   1.706   8.207
72630SOL     OW19786   9.369   8.395  14.787
72630SOL    HW119787   9.359   8.441  14.703
72630SOL    HW219788   9.311   8.319  14.780
72631SOL     OW19789  12.333   4.263  12.100
72631SOL    HW119790  12.272   4.194  12.073
72631SOL    HW219791  12.380   4.286  12.020
72632SOL     OW19792  12.676   0.839   6.696
72632SOL    HW119793  12.725   0.884   6.627
72632SOL    HW219794  12.711   0.874   6.777
72633SOL     OW19795   4.565   0.690   9.403
72633SOL    HW119796   4.601   0.669   9.489
72633SOL    HW219797   4.471   0.700   9.417
72634SOL     OW19798  10.522   0.936   8.903
72634SOL    HW119799  10.533   0.970   8.992
72634SOL    HW219800  10.497   1.012   8.851
72635SOL     OW19801  10.145   4.636  12.726
72635SOL    HW119802  10.238   4.613  12.724
72635SOL    HW219803  10.100   4.553  12.739
72636SOL     OW19804   9.614   6.187  11.715
72636SOL    HW119805   9.567   6.252  11.767
72636SOL    HW219806   9.703   6.220  11.708
72637SOL     OW19807  12.920   5.935   9.626
72637SOL    HW119808  12.879   6.020   9.610
72637SOL    HW219809  12.850   5.871   9.609
72638SOL     OW19810   9.888  10.790   9.215
72638SOL    HW119811   9.803  10.807   9.257
72638SOL    HW219812   9.874  10.812   9.123
72639SOL     OW19813   0.604  11.070  13.585
72639SOL    HW119814   0.577  11.105  13.500
72639SOL    HW219815   0.522  11.044  13.627
72640SOL     OW19816   5.826  14.366   3.542
72640SOL    HW119817   5.756  14.419   3.504
72640SOL    HW219818   5.785  14.322   3.616
72641SOL     OW19819  11.633   9.455   8.478
72641SOL    HW119820  11.600   9.472   8.566
72641SOL    HW219821  11.555   9.442   8.425
72642SOL     OW19822   7.036   4.400  12.450
72642SOL    HW119823   6.943   4.394  12.472
72642SOL    HW219824   7.077   4.437  12.528
72643SOL     OW19825   4.925   0.460   0.971
72643SOL    HW119826   4.978   0.496   0.900
72643SOL    HW219827   4.987   0.448   1.043
72644SOL     OW19828   4.328   4.671  14.297
72644SOL    HW119829   4.379   4.604  14.253
72644SOL    HW219830   4.332   4.647  14.390
72645SOL     OW19831  14.686  12.004   2.317
72645SOL    HW119832  14.594  11.979   2.317
72645SOL    HW219833  14.733  11.921   2.328
72646SOL     OW19834   4.422  13.196   3.442
72646SOL    HW119835   4.481  13.254   3.393
72646SOL    HW219836   4.474  13.118   3.458
72647SOL     OW19837  14.010  11.738   1.212
72647SOL    HW119838  14.034  11.659   1.260
72647SOL    HW219839  14.007  11.807   1.279
72648SOL     OW19840  13.674   2.002   7.453
72648SOL    HW119841  13.595   2.039   7.492
72648SOL    HW219842  13.645   1.968   7.368
72649SOL     OW19843   9.116   4.157   3.232
72649SOL    HW119844   9.110   4.238   3.182
72649SOL    HW219845   9.166   4.098   3.176
72650SOL     OW19846   4.908  12.144   1.553
72650SOL    HW119847   4.878  12.076   1.614
72650SOL    HW219848   4.997  12.165   1.582
72651SOL     OW19849   5.295   1.118  11.521
72651SOL    HW119850   5.343   1.197  11.544
72651SOL    HW219851   5.224   1.148  11.465
72652SOL     OW19852   9.553   4.225   1.522
72652SOL    HW119853   9.644   4.196   1.516
72652SOL    HW219854   9.506   4.169   1.461
72653SOL     OW19855  14.171   4.446   5.269
72653SOL    HW119856  14.248   4.476   5.317
72653SOL    HW219857  14.157   4.356   5.299
72654SOL     OW19858  10.347  14.530   5.471
72654SOL    HW119859  10.259  14.543   5.507
72654SOL    HW219860  10.395  14.487   5.542
72655SOL     OW19861   4.902   4.405  14.161
72655SOL    HW119862   4.954   4.468  14.212
72655SOL    HW219863   4.839   4.369  14.223
72656SOL     OW19864  14.567   3.471   8.549
72656SOL    HW119865  14.480   3.485   8.584
72656SOL    HW219866  14.565   3.382   8.514
72657SOL     OW19867   3.876   5.452  10.329
72657SOL    HW119868   3.853   5.517  10.396
72657SOL    HW219869   3.907   5.505  10.255
72658SOL     OW19870   4.716   2.347  10.906
72658SOL    HW119871   4.683   2.259  10.925
72658SOL    HW219872   4.748   2.341  10.816
72659SOL     OW19873   1.019   3.272   0.505
72659SOL    HW119874   0.930   3.290   0.536
72659SOL    HW219875   1.072   3.271   0.585
72660SOL     OW19876   6.311   2.857   5.512
72660SOL    HW119877   6.354   2.942   5.519
72660SOL    HW219878   6.238   2.863   5.574
72661SOL     OW19879  14.000  11.686   9.598
72661SOL    HW119880  13.932  11.643   9.546
72661SOL    HW219881  13.977  11.779   9.597
72662SOL     OW19882   8.545   8.979   0.490
72662SOL    HW119883   8.626   9.018   0.523
72662SOL    HW219884   8.571   8.936   0.409
72663SOL     OW19885   5.272   4.792   9.173
72663SOL    HW119886   5.225   4.711   9.195
72663SOL    HW219887   5.355   4.784   9.221
72664SOL     OW19888   8.697  11.549   9.950
72664SOL    HW119889   8.790  11.542   9.926
72664SOL    HW219890   8.654  11.483   9.897
72665SOL     OW19891   5.916   9.805   9.612
72665SOL    HW119892   5.983   9.771   9.672
72665SOL    HW219893   5.952   9.888   9.581
72666SOL     OW19894   8.141   4.155   0.328
72666SOL    HW119895   8.160   4.119   0.415
72666SOL    HW219896   8.074   4.097   0.292
72667SOL     OW19897  10.920   5.106   5.956
72667SOL    HW119898  10.929   5.195   5.923
72667SOL    HW219899  11.010   5.078   5.973
72668SOL     OW19900   6.749   6.211   0.499
72668SOL    HW119901   6.712   6.249   0.579
72668SOL    HW219902   6.675   6.201   0.440
72669SOL     OW19903   1.831   6.030  11.589
72669SOL    HW119904   1.797   6.118  11.573
72669SOL    HW219905   1.759   5.972  11.564
72670SOL     OW19906   2.671   0.465   1.353
72670SOL    HW119907   2.664   0.374   1.323
72670SOL    HW219908   2.688   0.515   1.273
72671SOL     OW19909  12.817   4.652   9.164
72671SOL    HW119910  12.797   4.589   9.094
72671SOL    HW219911  12.800   4.603   9.244
72672SOL     OW19912   8.007   2.155   6.202
72672SOL    HW119913   8.090   2.167   6.154
72672SOL    HW219914   7.945   2.126   6.135
72673SOL     OW19915   7.202   6.214  13.130
72673SOL    HW119916   7.196   6.258  13.045
72673SOL    HW219917   7.163   6.128  13.116
72674SOL     OW19918  13.760   1.131   0.269
72674SOL    HW119919  13.823   1.082   0.321
72674SOL    HW219920  13.703   1.064   0.231
72675SOL     OW19921  10.541  13.214  13.816
72675SOL    HW119922  10.510  13.152  13.881
72675SOL    HW219923  10.624  13.177  13.785
72676SOL     OW19924   6.377   3.577   5.239
72676SOL    HW119925   6.392   3.572   5.333
72676SOL    HW219926   6.444   3.638   5.207
72677SOL     OW19927   1.269   4.138   5.587
72677SOL    HW119928   1.302   4.135   5.497
72677SOL    HW219929   1.215   4.059   5.595
72678SOL     OW19930  14.348   8.751   7.783
72678SOL    HW119931  14.270   8.778   7.734
72678SOL    HW219932  14.418   8.754   7.719
72679SOL     OW19933  12.150  12.516   1.776
72679SOL    HW119934  12.119  12.437   1.821
72679SOL    HW219935  12.085  12.531   1.707
72680SOL     OW19936   2.121   3.788   2.445
72680SOL    HW119937   2.147   3.766   2.534
72680SOL    HW219938   2.027   3.803   2.451
72681SOL     OW19939   2.773  11.085  11.947
72681SOL    HW119940   2.722  11.028  12.004
72681SOL    HW219941   2.715  11.159  11.929
72682SOL     OW19942  10.949   8.855   2.123
72682SOL    HW119943  10.869   8.906   2.108
72682SOL    HW219944  10.977   8.881   2.211
72683SOL     OW19945   8.837   8.051   8.166
72683SOL    HW119946   8.933   8.051   8.176
72683SOL    HW219947   8.820   8.123   8.105
72684SOL     OW19948   6.398   8.025   2.559
72684SOL    HW119949   6.345   8.065   2.490
72684SOL    HW219950   6.370   7.933   2.560
72685SOL     OW19951   2.320   5.060  10.808
72685SOL    HW119952   2.390   5.011  10.765
72685SOL    HW219953   2.363   5.137  10.845
72686SOL     OW19954   3.368   6.685  13.807
72686SOL    HW119955   3.338   6.770  13.773
72686SOL    HW219956   3.417   6.647  13.734
72687SOL     OW19957   8.938   7.450   8.862
72687SOL    HW119958   8.952   7.461   8.768
72687SOL    HW219959   8.873   7.379   8.868
72688SOL     OW19960  13.760  13.580  11.315
72688SOL    HW119961  13.735  13.625  11.396
72688SOL    HW219962  13.685  13.591  11.257
72689SOL     OW19963   2.385   7.598  13.914
72689SOL    HW119964   2.310   7.643  13.876
72689SOL    HW219965   2.347   7.537  13.977
72690SOL     OW19966  12.538   5.819   2.293
72690SOL    HW119967  12.483   5.795   2.218
72690SOL    HW219968  12.516   5.754   2.360
72691SOL     OW19969   5.815   3.897  12.874
72691SOL    HW119970   5.764   3.817  12.888
72691SOL    HW219971   5.784   3.958  12.942
72692SOL     OW19972   7.373  11.196   9.385
72692SOL    HW119973   7.298  11.161   9.433
72692SOL    HW219974   7.356  11.175   9.293
72693SOL     OW19975  10.046   4.876  10.400
72693SOL    HW119976  10.113   4.938  10.373
72693SOL    HW219977   9.994   4.923  10.465
72694SOL     OW19978   5.133   6.000   4.078
72694SOL    HW119979   5.048   5.971   4.113
72694SOL    HW219980   5.171   6.053   4.148
72695SOL     OW19981   7.050   0.429   3.695
72695SOL    HW119982   7.102   0.350   3.687
72695SOL    HW219983   7.039   0.442   3.789
72696SOL     OW19984  13.754   0.877   9.422
72696SOL    HW119985  13.660   0.869   9.437
72696SOL    HW219986  13.791   0.892   9.510
72697SOL     OW19987   7.202   8.057   1.106
72697SOL    HW119988   7.282   8.016   1.139
72697SOL    HW219989   7.177   8.120   1.174
72698SOL     OW19990  10.104  13.557   8.840
72698SOL    HW119991  10.109  13.482   8.899
72698SOL    HW219992  10.105  13.519   8.752
72699SOL     OW19993   8.164   7.379   2.518
72699SOL    HW119994   8.229   7.403   2.584
72699SOL    HW219995   8.096   7.333   2.567
72700SOL     OW19996  12.310   4.106   0.284
72700SOL    HW119997  12.225   4.108   0.328
72700SOL    HW219998  12.364   4.166   0.333
72701SOL     OW19999  11.005   2.891   9.661
72701SOL    HW120000  11.013   2.826   9.591
72701SOL    HW220001  10.953   2.961   9.622
72702SOL     OW20002   3.482  11.971   9.263
72702SOL    HW120003   3.577  11.959   9.272
72702SOL    HW220004   3.446  11.938   9.345
72703SOL     OW20005   8.727   5.325   7.513
72703SOL    HW120006   8.683   5.346   7.430
72703SOL    HW220007   8.657   5.327   7.578
72704SOL     OW20008  13.779  12.644   4.660
72704SOL    HW120009  13.844  12.671   4.725
72704SOL    HW220010  13.742  12.726   4.627
72705SOL     OW20011  11.370   7.243  13.946
72705SOL    HW120012  11.284   7.282  13.954
72705SOL    HW220013  11.363   7.160  13.994
72706SOL     OW20014  14.712   1.701  12.604
72706SOL    HW120015  14.686   1.627  12.549
72706SOL    HW220016  14.638   1.715  12.663
72707SOL     OW20017   7.341   8.117   0.716
72707SOL    HW120018   7.270   8.175   0.742
72707SOL    HW220019   7.419   8.173   0.717
72708SOL     OW20020   8.264   0.789   8.591
72708SOL    HW120021   8.252   0.812   8.499
72708SOL    HW220022   8.215   0.857   8.639
72709SOL     OW20023  10.685  10.262  11.569
72709SOL    HW120024  10.679  10.203  11.644
72709SOL    HW220025  10.703  10.203  11.495
72710SOL     OW20026  11.180   2.463   0.340
72710SOL    HW120027  11.241   2.399   0.377
72710SOL    HW220028  11.102   2.456   0.394
72711SOL     OW20029   4.710   7.644   4.117
72711SOL    HW120030   4.691   7.656   4.210
72711SOL    HW220031   4.773   7.712   4.097
72712SOL     OW20032  10.761   9.802   3.972
72712SOL    HW120033  10.856   9.790   3.982
72712SOL    HW220034  10.723   9.742   4.037
72713SOL     OW20035   2.394   0.291   8.718
72713SOL    HW120036   2.341   0.249   8.650
72713SOL    HW220037   2.483   0.292   8.683
72714SOL     OW20038  11.628   2.676  11.812
72714SOL    HW120039  11.634   2.768  11.838
72714SOL    HW220040  11.718   2.649  11.797
72715SOL     OW20041   0.074   1.228   4.656
72715SOL    HW120042   0.080   1.292   4.585
72715SOL    HW220043  14.863   1.209   4.664
72716SOL     OW20044  13.644   7.441  11.841
72716SOL    HW120045  13.641   7.535  11.857
72716SOL    HW220046  13.680   7.433  11.752
72717SOL     OW20047  13.086   3.232   0.553
72717SOL    HW120048  13.051   3.199   0.470
72717SOL    HW220049  13.034   3.309   0.573
72718SOL     OW20050  11.307   3.654   8.521
72718SOL    HW120051  11.303   3.658   8.617
72718SOL    HW220052  11.222   3.619   8.494
72719SOL     OW20053   4.658  11.231   9.619
72719SOL    HW120054   4.724  11.188   9.565
72719SOL    HW220055   4.680  11.208   9.709
72720SOL     OW20056   5.657   0.625   1.679
72720SOL    HW120057   5.677   0.711   1.718
72720SOL    HW220058   5.669   0.563   1.751
72721SOL     OW20059   1.821   1.662   5.911
72721SOL    HW120060   1.885   1.720   5.954
72721SOL    HW220061   1.866   1.631   5.833
72722SOL     OW20062   8.717   4.088  13.349
72722SOL    HW120063   8.683   3.998  13.348
72722SOL    HW220064   8.670   4.131  13.420
72723SOL     OW20065   8.253  13.678  12.608
72723SOL    HW120066   8.310  13.706  12.537
72723SOL    HW220067   8.268  13.741  12.678
72724SOL     OW20068   7.601   8.805  13.218
72724SOL    HW120069   7.614   8.752  13.297
72724SOL    HW220070   7.680   8.859  13.211
72725SOL     OW20071  10.193   0.171   6.182
72725SOL    HW120072  10.244   0.098   6.145
72725SOL    HW220073  10.197   0.239   6.114
72726SOL     OW20074   2.102  14.756  10.901
72726SOL    HW120075   2.150  14.839  10.904
72726SOL    HW220076   2.012  14.781  10.884
72727SOL     OW20077  14.251  14.504   2.748
72727SOL    HW120078  14.160  14.502   2.776
72727SOL    HW220079  14.295  14.437   2.800
72728SOL     OW20080  12.049   0.645   9.458
72728SOL    HW120081  11.976   0.706   9.444
72728SOL    HW220082  12.065   0.607   9.372
72729SOL     OW20083   0.153   1.382   2.181
72729SOL    HW120084   0.104   1.421   2.109
72729SOL    HW220085   0.134   1.438   2.257
72730SOL     OW20086   1.443   8.323   2.760
72730SOL    HW120087   1.460   8.384   2.689
72730SOL    HW220088   1.423   8.378   2.836
72731SOL     OW20089  11.227  10.728  11.541
72731SOL    HW120090  11.135  10.715  11.517
72731SOL    HW220091  11.274  10.719  11.458
72732SOL     OW20092   3.236  12.712  11.448
72732SOL    HW120093   3.226  12.726  11.542
72732SOL    HW220094   3.330  12.697  11.436
72733SOL     OW20095  14.611   5.305   5.225
72733SOL    HW120096  14.663   5.342   5.154
72733SOL    HW220097  14.537   5.263   5.182
72734SOL     OW20098  11.612  13.625  11.774
72734SOL    HW120099  11.567  13.610  11.691
72734SOL    HW220100  11.611  13.539  11.818
72735SOL     OW20101   8.936  11.857   2.616
72735SOL    HW120102   8.912  11.764   2.614
72735SOL    HW220103   8.922  11.887   2.526
72736SOL     OW20104   5.420   8.975   5.847
72736SOL    HW120105   5.373   9.016   5.774
72736SOL    HW220106   5.507   8.956   5.811
72737SOL     OW20107  10.268  11.404   4.908
72737SOL    HW120108  10.321  11.344   4.857
72737SOL    HW220109  10.303  11.398   4.997
72738SOL     OW20110  11.360  10.342  10.254
72738SOL    HW120111  11.424  10.285  10.211
72738SOL    HW220112  11.295  10.361  10.187
72739SOL     OW20113  11.043   1.419   8.818
72739SOL    HW120114  11.043   1.413   8.722
72739SOL    HW220115  11.125   1.463   8.839
72740SOL     OW20116   6.415  11.714   1.919
72740SOL    HW120117   6.443  11.622   1.925
72740SOL    HW220118   6.332  11.717   1.967
72741SOL     OW20119   9.405   9.230   1.660
72741SOL    HW120120   9.382   9.145   1.697
72741SOL    HW220121   9.331   9.252   1.603
72742SOL     OW20122   5.981   8.185   5.912
72742SOL    HW120123   5.893   8.146   5.917
72742SOL    HW220124   5.976   8.248   5.840
72743SOL     OW20125  13.839   5.219   4.473
72743SOL    HW120126  13.792   5.301   4.489
72743SOL    HW220127  13.773   5.150   4.485
72744SOL     OW20128   6.448   7.794  14.652
72744SOL    HW120129   6.408   7.827  14.732
72744SOL    HW220130   6.405   7.843  14.582
72745SOL     OW20131  10.795   9.476  14.418
72745SOL    HW120132  10.782   9.393  14.371
72745SOL    HW220133  10.829   9.451  14.503
72746SOL     OW20134  11.034  11.015   0.042
72746SOL    HW120135  10.966  10.949   0.052
72746SOL    HW220136  11.087  11.006   0.121
72747SOL     OW20137   8.258   1.258  12.244
72747SOL    HW120138   8.185   1.263  12.306
72747SOL    HW220139   8.244   1.176  12.197
72748SOL     OW20140  13.963  13.973   3.241
72748SOL    HW120141  14.045  13.925   3.228
72748SOL    HW220142  13.944  14.012   3.156
72749SOL     OW20143   3.741  14.499   8.865
72749SOL    HW120144   3.701  14.449   8.793
72749SOL    HW220145   3.726  14.445   8.942
72750SOL     OW20146   5.159   9.860   1.775
72750SOL    HW120147   5.104   9.781   1.775
72750SOL    HW220148   5.216   9.849   1.698
72751SOL     OW20149  13.188  10.158   9.823
72751SOL    HW120150  13.216  10.209   9.899
72751SOL    HW220151  13.104  10.121   9.850
72752SOL     OW20152  11.400   6.465   8.199
72752SOL    HW120153  11.384   6.555   8.226
72752SOL    HW220154  11.484   6.442   8.238
72753SOL     OW20155   8.484   2.503   6.361
72753SOL    HW120156   8.501   2.459   6.444
72753SOL    HW220157   8.406   2.556   6.377
72754SOL     OW20158   8.145   3.352  13.540
72754SOL    HW120159   8.111   3.276  13.586
72754SOL    HW220160   8.108   3.427  13.587
72755SOL     OW20161   9.673   7.028   9.774
72755SOL    HW120162   9.611   7.006   9.705
72755SOL    HW220163   9.685   6.946   9.822
72756SOL     OW20164   7.762  13.170   5.943
72756SOL    HW120165   7.771  13.194   6.035
72756SOL    HW220166   7.848  13.189   5.905
72757SOL     OW20167   0.292   1.532  11.445
72757SOL    HW120168   0.312   1.469  11.376
72757SOL    HW220169   0.347   1.607  11.426
72758SOL     OW20170  10.395  10.743  13.506
72758SOL    HW120171  10.475  10.741  13.454
72758SOL    HW220172  10.337  10.679  13.464
72759SOL     OW20173   0.915   8.169  12.901
72759SOL    HW120174   0.970   8.144  12.827
72759SOL    HW220175   0.937   8.260  12.919
72760SOL     OW20176   9.929   3.961  11.708
72760SOL    HW120177   9.946   4.051  11.679
72760SOL    HW220178   9.834   3.953  11.708
72761SOL     OW20179   7.904   6.463   9.346
72761SOL    HW120180   7.935   6.373   9.333
72761SOL    HW220181   7.976   6.506   9.393
72762SOL     OW20182  11.024   5.292   9.134
72762SOL    HW120183  11.014   5.343   9.054
72762SOL    HW220184  11.003   5.202   9.108
72763SOL     OW20185   0.381   4.610   3.190
72763SOL    HW120186   0.294   4.582   3.160
72763SOL    HW220187   0.364   4.660   3.270
72764SOL     OW20188  14.150   4.121   1.917
72764SOL    HW120189  14.104   4.064   1.979
72764SOL    HW220190  14.223   4.157   1.967
72765SOL     OW20191   9.866   8.526   8.377
72765SOL    HW120192   9.899   8.453   8.324
72765SOL    HW220193   9.894   8.604   8.329
72766SOL     OW20194  13.343   9.049  11.504
72766SOL    HW120195  13.353   9.124  11.563
72766SOL    HW220196  13.267   9.002  11.539
72767SOL     OW20197   8.831   8.587   3.581
72767SOL    HW120198   8.890   8.584   3.657
72767SOL    HW220199   8.798   8.497   3.573
72768SOL     OW20200   5.572   4.701  10.253
72768SOL    HW120201   5.598   4.616  10.217
72768SOL    HW220202   5.479   4.691  10.271
72769SOL     OW20203   6.681   2.968  14.444
72769SOL    HW120204   6.702   2.887  14.397
72769SOL    HW220205   6.687   2.945  14.537
72770SOL     OW20206  14.209   4.805  10.337
72770SOL    HW120207  14.136   4.836  10.391
72770SOL    HW220208  14.191   4.712  10.323
72771SOL     OW20209  13.211   6.936   2.237
72771SOL    HW120210  13.249   6.997   2.173
72771SOL    HW220211  13.202   6.988   2.317
72772SOL     OW20212   4.990  12.910  13.188
72772SOL    HW120213   4.953  12.936  13.272
72772SOL    HW220214   4.914  12.893  13.132
72773SOL     OW20215   8.707   0.738   3.411
72773SOL    HW120216   8.781   0.678   3.418
72773SOL    HW220217   8.678   0.750   3.502
72774SOL     OW20218   5.182  12.096   9.114
72774SOL    HW120219   5.102  12.043   9.114
72774SOL    HW220220   5.233  12.062   9.040
72775SOL     OW20221   7.081   7.389   0.847
72775SOL    HW120222   7.171   7.359   0.855
72775SOL    HW220223   7.049   7.392   0.937
72776SOL     OW20224   1.838  13.366  10.896
72776SOL    HW120225   1.835  13.460  10.912
72776SOL    HW220226   1.768  13.330  10.951
72777SOL     OW20227   0.473   8.609   1.421
72777SOL    HW120228   0.566   8.594   1.437
72777SOL    HW220229   0.468   8.646   1.333
72778SOL     OW20230   9.085   1.087   5.915
72778SOL    HW120231   9.153   1.025   5.890
72778SOL    HW220232   9.110   1.169   5.871
72779SOL     OW20233  10.728   2.230   6.412
72779SOL    HW120234  10.740   2.314   6.455
72779SOL    HW220235  10.692   2.252   6.326
72780SOL     OW20236   5.306   1.593   3.467
72780SOL    HW120237   5.358   1.633   3.537
72780SOL    HW220238   5.292   1.503   3.496
72781SOL     OW20239   8.618   5.504  12.347
72781SOL    HW120240   8.642   5.540  12.432
72781SOL    HW220241   8.554   5.565  12.311
72782SOL     OW20242   1.379   0.776   0.570
72782SOL    HW120243   1.320   0.715   0.614
72782SOL    HW220244   1.340   0.788   0.483
72783SOL     OW20245   0.982  12.787   3.675
72783SOL    HW120246   0.969  12.701   3.635
72783SOL    HW220247   1.075  12.807   3.659
72784SOL     OW20248   1.141   0.977   1.445
72784SOL    HW120249   1.216   0.919   1.427
72784SOL    HW220250   1.160   1.056   1.395
72785SOL     OW20251  10.271   9.942   1.020
72785SOL    HW120252  10.191   9.989   0.997
72785SOL    HW220253  10.243   9.851   1.031
72786SOL     OW20254   8.924   6.233   0.618
72786SOL    HW120255   8.940   6.242   0.524
72786SOL    HW220256   8.951   6.316   0.656
72787SOL     OW20257   2.561   6.254   8.814
72787SOL    HW120258   2.653   6.244   8.840
72787SOL    HW220259   2.516   6.181   8.855
72788SOL     OW20260   6.821  14.706  12.236
72788SOL    HW120261   6.891  14.731  12.297
72788SOL    HW220262   6.825  14.773  12.167
72789SOL     OW20263  12.321  12.497   6.338
72789SOL    HW120264  12.286  12.409   6.333
72789SOL    HW220265  12.271  12.539   6.408
72790SOL     OW20266  13.113   7.002   5.081
72790SOL    HW120267  13.052   7.008   5.008
72790SOL    HW220268  13.196   7.036   5.045
72791SOL     OW20269   0.200   0.981   1.611
72791SOL    HW120270   0.140   1.047   1.576
72791SOL    HW220271   0.244   1.024   1.684
72792SOL     OW20272   7.869   2.605  11.634
72792SOL    HW120273   7.954   2.604  11.679
72792SOL    HW220274   7.807   2.573  11.700
72793SOL     OW20275  14.107  14.830   2.493
72793SOL    HW120276  14.173  14.847   2.560
72793SOL    HW220277  14.074   0.035   2.468
72794SOL     OW20278   1.965   4.071   6.136
72794SOL    HW120279   1.946   4.004   6.069
72794SOL    HW220280   2.061   4.075   6.139
72795SOL     OW20281  10.094   2.986   6.413
72795SOL    HW120282  10.075   2.959   6.503
72795SOL    HW220283  10.028   2.941   6.360
72796SOL     OW20284   1.692   3.641   9.666
72796SOL    HW120285   1.761   3.656   9.731
72796SOL    HW220286   1.739   3.618   9.586
72797SOL     OW20287   4.799   1.096   6.106
72797SOL    HW120288   4.799   1.008   6.068
72797SOL    HW220289   4.798   1.082   6.200
72798SOL     OW20290  14.639  12.318   1.381
72798SOL    HW120291  14.658  12.379   1.309
72798SOL    HW220292  14.698  12.244   1.365
72799SOL     OW20293  12.212  10.677   8.737
72799SOL    HW120294  12.305  10.686   8.716
72799SOL    HW220295  12.195  10.745   8.802
72800SOL     OW20296   5.812  11.181   4.404
72800SOL    HW120297   5.849  11.199   4.317
72800SOL    HW220298   5.717  11.178   4.389
72801SOL     OW20299   8.353   7.549  12.009
72801SOL    HW120300   8.431   7.602  11.995
72801SOL    HW220301   8.324   7.573  12.097
72802SOL     OW20302   1.410  14.805  14.197
72802SOL    HW120303   1.452  14.822  14.113
72802SOL    HW220304   1.436  14.878  14.253
72803SOL     OW20305  12.140  10.694  13.526
72803SOL    HW120306  12.175  10.608  13.502
72803SOL    HW220307  12.213  10.739  13.568
72804SOL     OW20308   7.588   6.646  12.018
72804SOL    HW120309   7.676   6.625  11.988
72804SOL    HW220310   7.591   6.738  12.042
72805SOL     OW20311  12.850   9.990  11.073
72805SOL    HW120312  12.818   9.904  11.049
72805SOL    HW220313  12.803  10.013  11.153
72806SOL     OW20314   2.727   0.086  11.060
72806SOL    HW120315   2.805   0.060  11.012
72806SOL    HW220316   2.718   0.180  11.043
72807SOL     OW20317  12.913  13.707   0.976
72807SOL    HW120318  13.008  13.695   0.980
72807SOL    HW220319  12.901  13.780   0.915
72808SOL     OW20320   6.001  11.734   8.023
72808SOL    HW120321   6.052  11.813   8.008
72808SOL    HW220322   5.913  11.755   7.991
72809SOL     OW20323   0.491   4.465   7.448
72809SOL    HW120324   0.545   4.389   7.426
72809SOL    HW220325   0.436   4.478   7.371
72810SOL     OW20326   4.017  10.374   7.093
72810SOL    HW120327   4.028  10.389   7.187
72810SOL    HW220328   4.023  10.279   7.083
72811SOL     OW20329   0.063   4.616   2.456
72811SOL    HW120330   0.135   4.671   2.486
72811SOL    HW220331   0.060   4.545   2.520
72812SOL     OW20332  13.799  10.984  14.481
72812SOL    HW120333  13.778  10.963  14.390
72812SOL    HW220334  13.741  11.057  14.503
72813SOL     OW20335  11.676  13.244  13.002
72813SOL    HW120336  11.681  13.259  12.908
72813SOL    HW220337  11.718  13.159  13.016
72814SOL     OW20338   9.670   3.342   5.906
72814SOL    HW120339   9.722   3.337   5.826
72814SOL    HW220340   9.732   3.365   5.974
72815SOL     OW20341  12.456   4.912   3.349
72815SOL    HW120342  12.445   4.867   3.433
72815SOL    HW220343  12.544   4.950   3.354
72816SOL     OW20344   8.373   7.405   4.494
72816SOL    HW120345   8.410   7.485   4.533
72816SOL    HW220346   8.407   7.334   4.549
72817SOL     OW20347   9.377   7.699  11.063
72817SOL    HW120348   9.385   7.615  11.017
72817SOL    HW220349   9.282   7.711  11.073
72818SOL     OW20350  14.454   9.835   4.369
72818SOL    HW120351  14.497   9.920   4.378
72818SOL    HW220352  14.480   9.805   4.282
72819SOL     OW20353   7.533   7.730   9.199
72819SOL    HW120354   7.509   7.643   9.229
72819SOL    HW220355   7.453   7.765   9.160
72820SOL     OW20356   7.218   7.253   2.928
72820SOL    HW120357   7.304   7.288   2.949
72820SOL    HW220358   7.172   7.249   3.012
72821SOL     OW20359   9.640  12.980  14.413
72821SOL    HW120360   9.688  13.055  14.377
72821SOL    HW220361   9.704  12.933  14.466
72822SOL     OW20362   4.290   5.964   3.448
72822SOL    HW120363   4.220   6.014   3.406
72822SOL    HW220364   4.273   5.971   3.541
72823SOL     OW20365   5.278   5.541  12.146
72823SOL    HW120366   5.253   5.456  12.182
72823SOL    HW220367   5.303   5.593  12.222
72824SOL     OW20368   0.588  10.318   5.007
72824SOL    HW120369   0.550  10.341   4.922
72824SOL    HW220370   0.594  10.222   5.005
72825SOL     OW20371   4.209   8.798   5.195
72825SOL    HW120372   4.142   8.755   5.248
72825SOL    HW220373   4.222   8.740   5.120
72826SOL     OW20374  14.045   1.568   9.931
72826SOL    HW120375  13.952   1.549   9.938
72826SOL    HW220376  14.086   1.482   9.919
72827SOL     OW20377   8.977  11.746   4.634
72827SOL    HW120378   9.025  11.791   4.564
72827SOL    HW220379   9.023  11.662   4.644
72828SOL     OW20380   3.677   4.897  14.498
72828SOL    HW120381   3.756   4.849  14.523
72828SOL    HW220382   3.689   4.915  14.405
72829SOL     OW20383   4.798   8.871  14.064
72829SOL    HW120384   4.710   8.882  14.098
72829SOL    HW220385   4.804   8.935  13.992
72830SOL     OW20386  11.905   9.656  13.802
72830SOL    HW120387  11.847   9.617  13.867
72830SOL    HW220388  11.861   9.737  13.776
72831SOL     OW20389   9.581   3.584   6.992
72831SOL    HW120390   9.539   3.670   6.985
72831SOL    HW220391   9.662   3.593   6.942
72832SOL     OW20392   3.013  10.992   9.277
72832SOL    HW120393   2.926  10.979   9.240
72832SOL    HW220394   3.072  10.979   9.203
72833SOL     OW20395   5.430   4.050   0.349
72833SOL    HW120396   5.483   4.071   0.271
72833SOL    HW220397   5.495   4.033   0.417
72834SOL     OW20398  11.021   6.673  11.671
72834SOL    HW120399  11.087   6.689  11.738
72834SOL    HW220400  11.040   6.585  11.638
72835SOL     OW20401   6.709  13.869  13.527
72835SOL    HW120402   6.635  13.837  13.578
72835SOL    HW220403   6.733  13.794  13.471
72836SOL     OW20404   8.318   5.714  14.474
72836SOL    HW120405   8.287   5.685  14.560
72836SOL    HW220406   8.380   5.785  14.494
72837SOL     OW20407  10.804   4.039   0.576
72837SOL    HW120408  10.870   4.067   0.513
72837SOL    HW220409  10.723   4.080   0.545
72838SOL     OW20410   4.527   3.181   7.470
72838SOL    HW120411   4.485   3.115   7.415
72838SOL    HW220412   4.603   3.210   7.420
72839SOL     OW20413   0.864  14.675   0.999
72839SOL    HW120414   0.950  14.702   1.031
72839SOL    HW220415   0.875  14.583   0.976
72840SOL     OW20416   8.088   0.256   5.029
72840SOL    HW120417   8.109   0.331   5.084
72840SOL    HW220418   8.039   0.197   5.086
72841SOL     OW20419  14.397  10.368   1.139
72841SOL    HW120420  14.486  10.346   1.112
72841SOL    HW220421  14.407  10.400   1.228
72842SOL     OW20422  12.630  10.405   3.488
72842SOL    HW120423  12.570  10.333   3.511
72842SOL    HW220424  12.572  10.481   3.476
72843SOL     OW20425   1.637   8.017   7.476
72843SOL    HW120426   1.714   8.060   7.513
72843SOL    HW220427   1.656   8.010   7.382
72844SOL     OW20428   6.597   2.018   0.337
72844SOL    HW120429   6.590   2.071   0.258
72844SOL    HW220430   6.688   1.988   0.338
72845SOL     OW20431   0.630   8.225   5.049
72845SOL    HW120432   0.640   8.225   4.953
72845SOL    HW220433   0.537   8.240   5.063
72846SOL     OW20434   4.291   7.581   6.752
72846SOL    HW120435   4.254   7.632   6.825
72846SOL    HW220436   4.346   7.643   6.704
72847SOL     OW20437   1.860   0.885   6.348
72847SOL    HW120438   1.874   0.824   6.276
72847SOL    HW220439   1.886   0.838   6.427
72848SOL     OW20440   8.229   8.210  12.932
72848SOL    HW120441   8.214   8.116  12.922
72848SOL    HW220442   8.233   8.244  12.843
72849SOL     OW20443  11.494   5.528   0.954
72849SOL    HW120444  11.448   5.445   0.962
72849SOL    HW220445  11.543   5.536   1.036
72850SOL     OW20446  11.303   9.772  11.509
72850SOL    HW120447  11.393   9.750  11.535
72850SOL    HW220448  11.263   9.687  11.490
72851SOL     OW20449   5.863   1.432   6.132
72851SOL    HW120450   5.779   1.424   6.089
72851SOL    HW220451   5.848   1.398   6.220
72852SOL     OW20452   8.499   2.125   2.207
72852SOL    HW120453   8.512   2.211   2.247
72852SOL    HW220454   8.461   2.145   2.121
72853SOL     OW20455  14.015   1.266  11.481
72853SOL    HW120456  14.012   1.179  11.441
72853SOL    HW220457  14.044   1.323  11.410
72854SOL     OW20458  12.104   2.067   1.228
72854SOL    HW120459  12.010   2.082   1.220
72854SOL    HW220460  12.138   2.145   1.271
72855SOL     OW20461   8.122   1.387   1.759
72855SOL    HW120462   8.158   1.313   1.710
72855SOL    HW220463   8.123   1.358   1.850
72856SOL     OW20464  12.097   7.763  10.877
72856SOL    HW120465  12.174   7.814  10.851
72856SOL    HW220466  12.075   7.711  10.800
72857SOL     OW20467   3.337   3.870  13.220
72857SOL    HW120468   3.414   3.925  13.233
72857SOL    HW220469   3.349   3.832  13.133
72858SOL     OW20470   3.258   8.557   8.003
72858SOL    HW120471   3.241   8.480   8.058
72858SOL    HW220472   3.343   8.540   7.964
72859SOL     OW20473   1.243   5.258   4.733
72859SOL    HW120474   1.161   5.250   4.683
72859SOL    HW220475   1.238   5.345   4.773
72860SOL     OW20476  12.076  12.450   3.734
72860SOL    HW120477  12.096  12.359   3.716
72860SOL    HW220478  11.983  12.450   3.758
72861SOL     OW20479   4.072  12.298   6.552
72861SOL    HW120480   4.098  12.320   6.641
72861SOL    HW220481   3.985  12.258   6.561
72862SOL     OW20482   7.545   8.528  11.536
72862SOL    HW120483   7.491   8.553  11.460
72862SOL    HW220484   7.559   8.610  11.583
72863SOL     OW20485   4.082   7.906   1.448
72863SOL    HW120486   4.133   7.861   1.515
72863SOL    HW220487   4.147   7.954   1.396
72864SOL     OW20488   5.005   2.463   6.374
72864SOL    HW120489   5.008   2.558   6.386
72864SOL    HW220490   4.983   2.429   6.460
72865SOL     OW20491   9.292  12.864   5.174
72865SOL    HW120492   9.327  12.915   5.101
72865SOL    HW220493   9.238  12.796   5.133
72866SOL     OW20494   3.581  13.135  11.197
72866SOL    HW120495   3.628  13.098  11.122
72866SOL    HW220496   3.490  13.140  11.168
72867SOL     OW20497  11.108  12.181  12.548
72867SOL    HW120498  11.127  12.189  12.642
72867SOL    HW220499  11.109  12.271  12.515
72868SOL     OW20500  12.806   3.734   8.847
72868SOL    HW120501  12.742   3.697   8.786
72868SOL    HW220502  12.858   3.794   8.794
72869SOL     OW20503  14.572   6.891   8.094
72869SOL    HW120504  14.630   6.893   8.018
72869SOL    HW220505  14.599   6.965   8.148
72870SOL     OW20506  13.314   7.916  14.455
72870SOL    HW120507  13.243   7.912  14.519
72870SOL    HW220508  13.270   7.906  14.370
72871SOL     OW20509   0.883  12.605   0.053
72871SOL    HW120510   0.953  12.612  14.870
72871SOL    HW220511   0.806  12.640   0.009
72872SOL     OW20512  12.808   2.694  10.723
72872SOL    HW120513  12.721   2.733  10.722
72872SOL    HW220514  12.807   2.635  10.798
72873SOL     OW20515   1.900  12.426   4.980
72873SOL    HW120516   1.818  12.384   5.006
72873SOL    HW220517   1.923  12.481   5.055
72874SOL     OW20518   7.840   2.660   1.599
72874SOL    HW120519   7.752   2.624   1.584
72874SOL    HW220520   7.876   2.606   1.669
72875SOL     OW20521   8.522   7.506   2.016
72875SOL    HW120522   8.550   7.467   2.099
72875SOL    HW220523   8.600   7.505   1.961
72876SOL     OW20524   9.636  12.572   3.981
72876SOL    HW120525   9.590  12.655   3.984
72876SOL    HW220526   9.724  12.594   3.950
72877SOL     OW20527   8.955   1.986   2.434
72877SOL    HW120528   9.017   2.050   2.399
72877SOL    HW220529   8.887   1.979   2.367
72878SOL     OW20530   3.934   5.094   7.125
72878SOL    HW120531   3.901   5.162   7.183
72878SOL    HW220532   3.909   5.124   7.037
72879SOL     OW20533  10.728   0.516   0.261
72879SOL    HW120534  10.769   0.590   0.216
72879SOL    HW220535  10.638   0.543   0.275
72880SOL     OW20536   9.432   5.231   1.854
72880SOL    HW120537   9.438   5.315   1.808
72880SOL    HW220538   9.512   5.225   1.905
72881SOL     OW20539   3.960   4.556   6.030
72881SOL    HW120540   3.871   4.543   6.061
72881SOL    HW220541   4.002   4.608   6.099
72882SOL     OW20542   7.562   5.966   0.343
72882SOL    HW120543   7.485   6.022   0.349
72882SOL    HW220544   7.636   6.027   0.338
72883SOL     OW20545   3.963   6.096  12.739
72883SOL    HW120546   3.954   6.009  12.701
72883SOL    HW220547   3.959   6.082  12.834
72884SOL     OW20548   4.080   1.814  12.371
72884SOL    HW120549   4.009   1.810  12.435
72884SOL    HW220550   4.086   1.907  12.348
72885SOL     OW20551  13.994  12.470   8.585
72885SOL    HW120552  14.001  12.455   8.680
72885SOL    HW220553  13.981  12.564   8.576
72886SOL     OW20554  14.472   1.197  14.530
72886SOL    HW120555  14.476   1.126  14.594
72886SOL    HW220556  14.556   1.243  14.539
72887SOL     OW20557   5.482   3.953  12.915
72887SOL    HW120558   5.392   3.922  12.913
72887SOL    HW220559   5.509   3.943  13.007
72888SOL     OW20560  14.348   1.638  11.676
72888SOL    HW120561  14.266   1.613  11.718
72888SOL    HW220562  14.415   1.619  11.742
72889SOL     OW20563   8.223  14.724  10.026
72889SOL    HW120564   8.235  14.701   9.934
72889SOL    HW220565   8.132  14.699  10.045
72890SOL     OW20566   4.798  12.791  14.364
72890SOL    HW120567   4.790  12.751  14.450
72890SOL    HW220568   4.710  12.787  14.327
72891SOL     OW20569   2.421   4.988   0.420
72891SOL    HW120570   2.415   5.047   0.495
72891SOL    HW220571   2.497   5.020   0.371
72892SOL     OW20572   7.068  13.355   1.939
72892SOL    HW120573   7.117  13.368   2.020
72892SOL    HW220574   7.050  13.261   1.937
72893SOL     OW20575   7.446  12.738   1.429
72893SOL    HW120576   7.424  12.692   1.349
72893SOL    HW220577   7.522  12.792   1.406
72894SOL     OW20578   5.745   6.356  10.713
72894SOL    HW120579   5.752   6.310  10.629
72894SOL    HW220580   5.745   6.286  10.778
72895SOL     OW20581   0.988   6.085   8.951
72895SOL    HW120582   0.914   6.097   9.010
72895SOL    HW220583   0.985   5.993   8.926
72896SOL     OW20584   9.165  10.952   7.818
72896SOL    HW120585   9.139  10.878   7.763
72896SOL    HW220586   9.140  11.030   7.768
72897SOL     OW20587   2.278   0.210   1.962
72897SOL    HW120588   2.319   0.186   2.045
72897SOL    HW220589   2.196   0.253   1.986
72898SOL     OW20590   3.205   6.580  13.278
72898SOL    HW120591   3.187   6.527  13.356
72898SOL    HW220592   3.293   6.614  13.291
72899SOL     OW20593  10.691   3.905   0.838
72899SOL    HW120594  10.642   3.896   0.920
72899SOL    HW220595  10.625   3.929   0.773
72900SOL     OW20596  13.890   6.020  11.649
72900SOL    HW120597  13.856   5.942  11.604
72900SOL    HW220598  13.824   6.088  11.632
72901SOL     OW20599  12.263  10.150  14.713
72901SOL    HW120600  12.292  10.061  14.732
72901SOL    HW220601  12.327  10.206  14.758
72902SOL     OW20602  10.965  12.535  12.851
72902SOL    HW120603  11.017  12.471  12.901
72902SOL    HW220604  10.884  12.543  12.900
72903SOL     OW20605  12.727   7.925  14.867
72903SOL    HW120606  12.720   7.920  14.771
72903SOL    HW220607  12.700   7.838   0.015
72904SOL     OW20608   8.940  12.880   2.763
72904SOL    HW120609   9.017  12.824   2.772
72904SOL    HW220610   8.915  12.901   2.853
72905SOL     OW20611  11.130  12.394   5.355
72905SOL    HW120612  11.183  12.329   5.309
72905SOL    HW220613  11.093  12.346   5.429
72906SOL     OW20614   1.968   0.816   8.700
72906SOL    HW120615   2.050   0.783   8.663
72906SOL    HW220616   1.950   0.896   8.649
72907SOL     OW20617   3.995   4.103   5.790
72907SOL    HW120618   4.032   4.139   5.870
72907SOL    HW220619   4.072   4.080   5.737
72908SOL     OW20620   2.551   1.800  12.006
72908SOL    HW120621   2.510   1.724  12.047
72908SOL    HW220622   2.529   1.873  12.064
72909SOL     OW20623  13.359   1.707   9.147
72909SOL    HW120624  13.417   1.671   9.215
72909SOL    HW220625  13.393   1.795   9.130
72910SOL     OW20626   2.044   6.526   2.120
72910SOL    HW120627   2.059   6.514   2.214
72910SOL    HW220628   2.046   6.437   2.084
72911SOL     OW20629   0.057   7.112  14.163
72911SOL    HW120630  14.851   7.135  14.192
72911SOL    HW220631   0.071   7.023  14.196
72912SOL     OW20632  10.599  13.718   8.837
72912SOL    HW120633  10.684  13.759   8.818
72912SOL    HW220634  10.616  13.624   8.830
72913SOL     OW20635   8.928   1.511   8.027
72913SOL    HW120636   8.994   1.549   7.969
72913SOL    HW220637   8.960   1.530   8.115
72914SOL     OW20638  10.435   5.224  11.531
72914SOL    HW120639  10.405   5.301  11.483
72914SOL    HW220640  10.357   5.171  11.543
72915SOL     OW20641   4.672  10.484   7.234
72915SOL    HW120642   4.632  10.498   7.148
72915SOL    HW220643   4.600  10.455   7.290
72916SOL     OW20644   3.925  10.295   6.342
72916SOL    HW120645   4.020  10.299   6.352
72916SOL    HW220646   3.909  10.323   6.252
72917SOL     OW20647   0.835   5.303   6.444
72917SOL    HW120648   0.757   5.309   6.389
72917SOL    HW220649   0.905   5.338   6.389
72918SOL     OW20650   0.949  11.012  13.927
72918SOL    HW120651   1.044  11.005  13.922
72918SOL    HW220652   0.923  11.049  13.843
72919SOL     OW20653   5.318   5.046  10.284
72919SOL    HW120654   5.280   4.987  10.219
72919SOL    HW220655   5.266   5.032  10.363
72920SOL     OW20656   2.791  11.413   4.910
72920SOL    HW120657   2.726  11.426   4.978
72920SOL    HW220658   2.863  11.472   4.934
72921SOL     OW20659   6.745   9.584   9.302
72921SOL    HW120660   6.757   9.664   9.352
72921SOL    HW220661   6.829   9.538   9.309
72922SOL     OW20662  14.189  13.028  14.293
72922SOL    HW120663  14.259  13.094  14.286
72922SOL    HW220664  14.108  13.078  14.281
72923SOL     OW20665   1.507  13.513   7.829
72923SOL    HW120666   1.533  13.590   7.778
72923SOL    HW220667   1.590  13.469   7.850
72924SOL     OW20668   3.262   9.408   1.301
72924SOL    HW120669   3.195   9.406   1.370
72924SOL    HW220670   3.212   9.418   1.220
72925SOL     OW20671   2.387  12.477  12.292
72925SOL    HW120672   2.341  12.414  12.348
72925SOL    HW220673   2.477  12.446  12.291
72926SOL     OW20674   6.822   8.768  10.594
72926SOL    HW120675   6.869   8.762  10.677
72926SOL    HW220676   6.738   8.809  10.617
72927SOL     OW20677   8.546   1.059  11.644
72927SOL    HW120678   8.511   1.141  11.611
72927SOL    HW220679   8.524   0.994  11.577
72928SOL     OW20680  11.313  14.141   2.843
72928SOL    HW120681  11.285  14.194   2.768
72928SOL    HW220682  11.273  14.184   2.919
72929SOL     OW20683  12.688   6.508  12.441
72929SOL    HW120684  12.618   6.455  12.404
72929SOL    HW220685  12.717   6.459  12.518
72930SOL     OW20686   1.718   4.663   9.445
72930SOL    HW120687   1.756   4.576   9.460
72930SOL    HW220688   1.682   4.659   9.357
72931SOL     OW20689  12.119   7.327   8.766
72931SOL    HW120690  12.124   7.382   8.845
72931SOL    HW220691  12.100   7.389   8.695
72932SOL     OW20692   9.307   3.103   4.204
72932SOL    HW120693   9.337   3.163   4.272
72932SOL    HW220694   9.321   3.016   4.240
72933SOL     OW20695   5.954  14.861   6.939
72933SOL    HW120696   5.945  14.767   6.954
72933SOL    HW220697   6.007  14.868   6.859
72934SOL     OW20698   4.671   7.570   5.629
72934SOL    HW120699   4.618   7.507   5.580
72934SOL    HW220700   4.719   7.516   5.691
72935SOL     OW20701  12.239   8.858  12.952
72935SOL    HW120702  12.329   8.886  12.934
72935SOL    HW220703  12.205   8.831  12.866
72936SOL     OW20704   2.908  14.509   7.696
72936SOL    HW120705   2.996  14.476   7.712
72936SOL    HW220706   2.878  14.541   7.781
72937SOL     OW20707   9.568   0.948   1.818
72937SOL    HW120708   9.631   0.896   1.869
72937SOL    HW220709   9.505   0.979   1.883
72938SOL     OW20710   0.039  11.174  12.594
72938SOL    HW120711   0.085  11.236  12.538
72938SOL    HW220712  14.856  11.134  12.536
72939SOL     OW20713   6.978   1.602   7.518
72939SOL    HW120714   7.022   1.532   7.566
72939SOL    HW220715   6.910   1.633   7.577
72940SOL     OW20716   7.090  11.092   2.131
72940SOL    HW120717   7.005  11.065   2.166
72940SOL    HW220718   7.147  11.017   2.147
72941SOL     OW20719   6.393   0.156   5.774
72941SOL    HW120720   6.331   0.138   5.704
72941SOL    HW220721   6.397   0.075   5.824
72942SOL     OW20722  13.107   7.235   5.806
72942SOL    HW120723  13.036   7.174   5.826
72942SOL    HW220724  13.063   7.319   5.791
72943SOL     OW20725  14.620  10.268   2.442
72943SOL    HW120726  14.666  10.229   2.516
72943SOL    HW220727  14.532  10.288   2.476
72944SOL     OW20728   0.688   9.987   2.407
72944SOL    HW120729   0.593   9.989   2.400
72944SOL    HW220730   0.719  10.049   2.341
72945SOL     OW20731   6.161   1.909  13.627
72945SOL    HW120732   6.068   1.919  13.606
72945SOL    HW220733   6.180   1.817  13.611
72946SOL     OW20734   5.965   3.982  13.209
72946SOL    HW120735   5.886   3.937  13.178
72946SOL    HW220736   5.940   4.074  13.212
72947SOL     OW20737   6.734   1.555   4.096
72947SOL    HW120738   6.794   1.586   4.027
72947SOL    HW220739   6.669   1.625   4.104
72948SOL     OW20740   1.048  14.605   9.043
72948SOL    HW120741   1.107  14.533   9.022
72948SOL    HW220742   1.106  14.678   9.067
72949SOL     OW20743   5.859   1.979   5.818
72949SOL    HW120744   5.910   2.042   5.869
72949SOL    HW220745   5.798   1.940   5.881
72950SOL     OW20746   7.941   6.206   9.254
72950SOL    HW120747   7.847   6.197   9.266
72950SOL    HW220748   7.962   6.144   9.184
72951SOL     OW20749  10.050   4.828   3.604
72951SOL    HW120750  10.073   4.875   3.523
72951SOL    HW220751   9.969   4.870   3.633
72952SOL     OW20752   2.392   8.117   4.211
72952SOL    HW120753   2.323   8.174   4.245
72952SOL    HW220754   2.472   8.148   4.253
72953SOL     OW20755  14.372  10.381   4.833
72953SOL    HW120756  14.408  10.384   4.922
72953SOL    HW220757  14.291  10.430   4.838
72954SOL     OW20758   6.314   4.326  13.375
72954SOL    HW120759   6.286   4.256  13.434
72954SOL    HW220760   6.319   4.285  13.289
72955SOL     OW20761  14.174  14.657   6.125
72955SOL    HW120762  14.242  14.694   6.183
72955SOL    HW220763  14.102  14.634   6.183
72956SOL     OW20764  12.477   4.217   3.225
72956SOL    HW120765  12.387   4.243   3.247
72956SOL    HW220766  12.493   4.140   3.279
72957SOL     OW20767  11.624   1.838   5.651
72957SOL    HW120768  11.701   1.887   5.622
72957SOL    HW220769  11.559   1.850   5.582
72958SOL     OW20770   8.653   2.837   2.003
72958SOL    HW120771   8.713   2.793   2.062
72958SOL    HW220772   8.632   2.919   2.047
72959SOL     OW20773  10.020   8.221   9.086
72959SOL    HW120774   9.999   8.199   9.177
72959SOL    HW220775   9.966   8.297   9.067
72960SOL     OW20776   9.563   5.775   2.974
72960SOL    HW120777   9.550   5.721   2.896
72960SOL    HW220778   9.501   5.847   2.963
72961SOL     OW20779   3.732   7.664  12.969
72961SOL    HW120780   3.733   7.677  12.875
72961SOL    HW220781   3.741   7.569  12.981
72962SOL     OW20782   6.592  12.264   9.178
72962SOL    HW120783   6.559  12.352   9.193
72962SOL    HW220784   6.575  12.248   9.085
72963SOL     OW20785   4.578   4.026  10.537
72963SOL    HW120786   4.580   3.989  10.626
72963SOL    HW220787   4.605   4.117  10.549
72964SOL     OW20788   7.484   7.145   4.991
72964SOL    HW120789   7.538   7.215   5.027
72964SOL    HW220790   7.401   7.188   4.971
72965SOL     OW20791   1.214  14.123  14.037
72965SOL    HW120792   1.188  14.215  14.039
72965SOL    HW220793   1.204  14.093  14.128
72966SOL     OW20794   9.787   8.276   7.126
72966SOL    HW120795   9.711   8.287   7.069
72966SOL    HW220796   9.788   8.356   7.179
72967SOL     OW20797  11.585   5.147   0.305
72967SOL    HW120798  11.550   5.125   0.391
72967SOL    HW220799  11.633   5.229   0.319
72968SOL     OW20800   2.252   0.414   3.773
72968SOL    HW120801   2.325   0.383   3.719
72968SOL    HW220802   2.200   0.468   3.713
72969SOL     OW20803   1.892  13.065  13.386
72969SOL    HW120804   1.838  12.991  13.412
72969SOL    HW220805   1.952  13.078  13.460
72970SOL     OW20806   5.185   2.034   4.543
72970SOL    HW120807   5.243   1.964   4.514
72970SOL    HW220808   5.231   2.072   4.619
72971SOL     OW20809   9.811   5.094  10.185
72971SOL    HW120810   9.730   5.128  10.224
72971SOL    HW220811   9.806   5.121  10.093
72972SOL     OW20812   6.782   8.987   5.391
72972SOL    HW120813   6.753   8.957   5.477
72972SOL    HW220814   6.738   8.929   5.329
72973SOL     OW20815  12.818   6.375   6.509
72973SOL    HW120816  12.779   6.356   6.594
72973SOL    HW220817  12.851   6.465   6.518
72974SOL     OW20818   7.582  12.729   0.946
72974SOL    HW120819   7.676  12.715   0.933
72974SOL    HW220820   7.576  12.812   0.992
72975SOL     OW20821   1.259   4.796   2.759
72975SOL    HW120822   1.303   4.723   2.715
72975SOL    HW220823   1.167   4.772   2.759
72976SOL     OW20824   0.978  12.727   6.283
72976SOL    HW120825   0.896  12.691   6.318
72976SOL    HW220826   1.029  12.750   6.361
72977SOL     OW20827   8.633   7.093  10.579
72977SOL    HW120828   8.560   7.039  10.611
72977SOL    HW220829   8.711   7.041  10.597
72978SOL     OW20830   3.632  10.803  13.102
72978SOL    HW120831   3.617  10.774  13.012
72978SOL    HW220832   3.606  10.729  13.156
72979SOL     OW20833   2.651   8.069  13.610
72979SOL    HW120834   2.724   8.107  13.660
72979SOL    HW220835   2.691   8.038  13.529
72980SOL     OW20836   4.247   9.621   4.975
72980SOL    HW120837   4.217   9.563   4.905
72980SOL    HW220838   4.222   9.708   4.945
72981SOL     OW20839   4.200   6.384   4.314
72981SOL    HW120840   4.289   6.349   4.304
72981SOL    HW220841   4.163   6.336   4.387
72982SOL     OW20842   3.148   3.471   3.161
72982SOL    HW120843   3.062   3.431   3.175
72982SOL    HW220844   3.190   3.415   3.095
72983SOL     OW20845   7.867  10.411   1.136
72983SOL    HW120846   7.810  10.485   1.155
72983SOL    HW220847   7.873  10.364   1.220
72984SOL     OW20848   4.378   5.807   0.799
72984SOL    HW120849   4.434   5.832   0.873
72984SOL    HW220850   4.329   5.731   0.832
72985SOL     OW20851   9.477  11.930  12.888
72985SOL    HW120852   9.426  12.010  12.876
72985SOL    HW220853   9.557  11.959  12.931
72986SOL     OW20854   1.260   8.841   2.832
72986SOL    HW120855   1.235   8.928   2.862
72986SOL    HW220856   1.251   8.844   2.737
72987SOL     OW20857   1.524   9.930   0.803
72987SOL    HW120858   1.455   9.888   0.752
72987SOL    HW220859   1.602   9.925   0.747
72988SOL     OW20860  10.415   4.491  12.888
72988SOL    HW120861  10.456   4.514  12.805
72988SOL    HW220862  10.349   4.426  12.865
72989SOL     OW20863   1.857  12.545  14.839
72989SOL    HW120864   1.865  12.599   0.035
72989SOL    HW220865   1.795  12.476  14.864
72990SOL     OW20866   0.522  12.040   2.661
72990SOL    HW120867   0.585  12.069   2.595
72990SOL    HW220868   0.551  12.082   2.742
72991SOL     OW20869   7.668  13.551   1.419
72991SOL    HW120870   7.712  13.541   1.503
72991SOL    HW220871   7.711  13.626   1.378
72992SOL     OW20872   2.276   8.477   8.876
72992SOL    HW120873   2.265   8.413   8.806
72992SOL    HW220874   2.233   8.556   8.844
72993SOL     OW20875  11.159   5.430   9.938
72993SOL    HW120876  11.126   5.516   9.911
72993SOL    HW220877  11.152   5.430  10.034
72994SOL     OW20878   2.657   5.844   8.204
72994SOL    HW120879   2.582   5.800   8.244
72994SOL    HW220880   2.674   5.794   8.124
72995SOL     OW20881   4.302   6.990  14.514
72995SOL    HW120882   4.300   7.004  14.608
72995SOL    HW220883   4.210   6.989  14.488
72996SOL     OW20884   5.241   0.690  11.262
72996SOL    HW120885   5.208   0.601  11.274
72996SOL    HW220886   5.330   0.688  11.298
72997SOL     OW20887  11.979   4.496   9.736
72997SOL    HW120888  12.010   4.413   9.772
72997SOL    HW220889  11.896   4.513   9.781
72998SOL     OW20890   6.616   6.545   8.865
72998SOL    HW120891   6.694   6.543   8.921
72998SOL    HW220892   6.560   6.475   8.900
72999SOL     OW20893  13.781  12.959   3.332
72999SOL    HW120894  13.732  13.031   3.294
72999SOL    HW220895  13.834  12.925   3.260
73000SOL     OW20896   0.845   6.118   0.314
73000SOL    HW120897   0.791   6.093   0.240
73000SOL    HW220898   0.865   6.211   0.299
73001SOL     OW20899   5.108   4.393   7.785
73001SOL    HW120900   5.198   4.378   7.812
73001SOL    HW220901   5.064   4.309   7.800
73002SOL     OW20902   1.962   3.661   1.390
73002SOL    HW120903   1.933   3.581   1.433
73002SOL    HW220904   2.031   3.632   1.329
73003SOL     OW20905   6.075  12.039   8.828
73003SOL    HW120906   6.086  11.989   8.748
73003SOL    HW220907   6.123  12.120   8.812
73004SOL     OW20908   3.624   7.628   3.565
73004SOL    HW120909   3.621   7.682   3.486
73004SOL    HW220910   3.558   7.667   3.623
73005SOL     OW20911  12.124   1.042  12.009
73005SOL    HW120912  12.088   0.984  12.076
73005SOL    HW220913  12.130   0.988  11.930
73006SOL     OW20914  13.384   0.462  12.392
73006SOL    HW120915  13.416   0.412  12.318
73006SOL    HW220916  13.356   0.546  12.354
73007SOL     OW20917   9.390  13.331   9.581
73007SOL    HW120918   9.373  13.283   9.662
73007SOL    HW220919   9.423  13.265   9.520
73008SOL     OW20920   5.088  14.320  13.871
73008SOL    HW120921   5.050  14.266  13.801
73008SOL    HW220922   5.178  14.334  13.844
73009SOL     OW20923   0.589   8.847   9.151
73009SOL    HW120924   0.673   8.892   9.157
73009SOL    HW220925   0.590   8.783   9.222
73010SOL     OW20926  14.312   6.633   5.580
73010SOL    HW120927  14.356   6.558   5.540
73010SOL    HW220928  14.301   6.695   5.508
73011SOL     OW20929   0.696  14.075  14.020
73011SOL    HW120930   0.623  14.135  14.005
73011SOL    HW220931   0.705  14.072  14.115
73012SOL     OW20932   7.534   8.080   4.528
73012SOL    HW120933   7.483   8.147   4.484
73012SOL    HW220934   7.534   8.106   4.620
73013SOL     OW20935   9.383   1.238  10.585
73013SOL    HW120936   9.398   1.299  10.657
73013SOL    HW220937   9.433   1.273  10.512
73014SOL     OW20938   4.149   5.104  11.577
73014SOL    HW120939   4.149   5.195  11.545
73014SOL    HW220940   4.065   5.095  11.622
73015SOL     OW20941  13.749   5.270   0.873
73015SOL    HW120942  13.799   5.328   0.815
73015SOL    HW220943  13.658   5.285   0.849
73016SOL     OW20944   0.652   0.922  14.734
73016SOL    HW120945   0.695   0.931  14.819
73016SOL    HW220946   0.573   0.976  14.741
73017SOL     OW20947  13.443  10.184   7.022
73017SOL    HW120948  13.424  10.264   6.974
73017SOL    HW220949  13.510  10.210   7.086
73018SOL     OW20950   7.297   0.912  10.110
73018SOL    HW120951   7.289   0.827  10.065
73018SOL    HW220952   7.222   0.962  10.079
73019SOL     OW20953  12.082   2.796   6.875
73019SOL    HW120954  12.147   2.850   6.830
73019SOL    HW220955  12.007   2.855   6.888
73020SOL     OW20956   6.909   2.262   2.635
73020SOL    HW120957   6.955   2.310   2.566
73020SOL    HW220958   6.956   2.178   2.641
73021SOL     OW20959   7.008  13.640   9.957
73021SOL    HW120960   7.098  13.652   9.928
73021SOL    HW220961   6.955  13.672   9.883
73022SOL     OW20962   4.449   0.723   7.150
73022SOL    HW120963   4.494   0.683   7.075
73022SOL    HW220964   4.510   0.711   7.223
73023SOL     OW20965   5.496  10.074   2.532
73023SOL    HW120966   5.469  10.005   2.593
73023SOL    HW220967   5.422  10.081   2.471
73024SOL     OW20968   0.928   8.591   9.882
73024SOL    HW120969   0.865   8.655   9.849
73024SOL    HW220970   0.989   8.643   9.935
73025SOL     OW20971   4.093  11.345   6.670
73025SOL    HW120972   4.135  11.259   6.662
73025SOL    HW220973   4.165  11.404   6.691
73026SOL     OW20974  10.774  10.757  13.517
73026SOL    HW120975  10.704  10.693  13.515
73026SOL    HW220976  10.849  10.710  13.554
73027SOL     OW20977   4.360   7.852   7.169
73027SOL    HW120978   4.330   7.943   7.168
73027SOL    HW220979   4.304   7.808   7.105
73028SOL     OW20980   3.911   8.964   5.281
73028SOL    HW120981   3.862   8.966   5.198
73028SOL    HW220982   3.956   9.048   5.285
73029SOL     OW20983   9.168   7.568  13.750
73029SOL    HW120984   9.214   7.646  13.779
73029SOL    HW220985   9.106   7.599  13.685
73030SOL     OW20986   8.771   5.944   0.124
73030SOL    HW120987   8.753   6.019   0.181
73030SOL    HW220988   8.688   5.896   0.120
73031SOL     OW20989  14.457   2.944   4.110
73031SOL    HW120990  14.449   2.954   4.205
73031SOL    HW220991  14.470   2.851   4.096
73032SOL     OW20992  14.369   0.757   0.646
73032SOL    HW120993  14.394   0.665   0.646
73032SOL    HW220994  14.397   0.789   0.560
73033SOL     OW20995  10.317  13.992  10.898
73033SOL    HW120996  10.410  14.014  10.895
73033SOL    HW220997  10.281  14.054  10.962
73034SOL     OW20998   6.363  11.290   0.843
73034SOL    HW120999   6.308  11.279   0.921
73034SOL    HW221000   6.450  11.261   0.870
73035SOL     OW21001   7.375   0.203   8.404
73035SOL    HW121002   7.420   0.119   8.388
73035SOL    HW221003   7.288   0.178   8.433
73036SOL     OW21004   0.276   9.814   4.829
73036SOL    HW121005   0.212   9.859   4.884
73036SOL    HW221006   0.337   9.883   4.802
73037SOL     OW21007   2.399  13.610   2.177
73037SOL    HW121008   2.371  13.643   2.263
73037SOL    HW221009   2.320  13.572   2.139
73038SOL     OW21010   0.909  10.186  11.147
73038SOL    HW121011   0.869  10.105  11.178
73038SOL    HW221012   0.927  10.170  11.054
73039SOL     OW21013   6.019  12.185   0.026
73039SOL    HW121014   5.968  12.160  14.831
73039SOL    HW221015   6.059  12.268   0.002
73040SOL     OW21016   4.826   5.865  14.109
73040SOL    HW121017   4.897   5.928  14.121
73040SOL    HW221018   4.859   5.785  14.150
73041SOL     OW21019  11.759  12.950   8.666
73041SOL    HW121020  11.843  12.965   8.623
73041SOL    HW221021  11.695  12.990   8.608
73042SOL     OW21022   2.384   7.911   8.674
73042SOL    HW121023   2.382   7.889   8.767
73042SOL    HW221024   2.314   7.975   8.662
73043SOL     OW21025   4.679  14.520   2.482
73043SOL    HW121026   4.623  14.454   2.522
73043SOL    HW221027   4.629  14.551   2.406
73044SOL     OW21028  13.396   8.256  10.206
73044SOL    HW121029  13.368   8.345  10.184
73044SOL    HW221030  13.338   8.230  10.278
73045SOL     OW21031   6.134   5.716  14.609
73045SOL    HW121032   6.207   5.766  14.646
73045SOL    HW221033   6.155   5.711  14.515
73046SOL     OW21034  12.615   5.021   6.632
73046SOL    HW121035  12.601   5.036   6.539
73046SOL    HW221036  12.684   5.083   6.657
73047SOL     OW21037   4.688  11.965   3.671
73047SOL    HW121038   4.609  12.017   3.661
73047SOL    HW221039   4.720  11.984   3.759
73048SOL     OW21040  10.079  12.839  11.035
73048SOL    HW121041  10.056  12.891  10.959
73048SOL    HW221042  10.170  12.861  11.053
73049SOL     OW21043  12.665   7.837   4.026
73049SOL    HW121044  12.578   7.798   4.021
73049SOL    HW221045  12.698   7.835   3.936
73050SOL     OW21046  11.046  13.235   4.478
73050SOL    HW121047  11.043  13.303   4.410
73050SOL    HW221048  10.958  13.232   4.513
73051SOL     OW21049  10.654   0.640   6.661
73051SOL    HW121050  10.632   0.574   6.727
73051SOL    HW221051  10.699   0.709   6.710
73052SOL     OW21052   9.931   5.098  14.691
73052SOL    HW121053  10.022   5.128  14.685
73052SOL    HW221054   9.887   5.166  14.741
73053SOL     OW21055   9.644  10.921   3.139
73053SOL    HW121056   9.718  10.904   3.081
73053SOL    HW221057   9.588  10.843   3.129
73054SOL     OW21058  14.464  12.931   2.231
73054SOL    HW121059  14.462  13.025   2.214
73054SOL    HW221060  14.480  12.891   2.146
73055SOL     OW21061   9.258  14.618  10.721
73055SOL    HW121062   9.178  14.587  10.678
73055SOL    HW221063   9.328  14.597  10.659
73056SOL     OW21064  10.974   4.438   4.670
73056SOL    HW121065  10.915   4.404   4.737
73056SOL    HW221066  10.970   4.533   4.681
73057SOL     OW21067  14.021   3.747   4.082
73057SOL    HW121068  14.062   3.832   4.103
73057SOL    HW221069  13.955   3.768   4.016
73058SOL     OW21070   2.912  10.107   3.194
73058SOL    HW121071   2.953  10.022   3.211
73058SOL    HW221072   2.847  10.116   3.264
73059SOL     OW21073   0.004   6.243   3.371
73059SOL    HW121074  14.828   6.179   3.331
73059SOL    HW221075   0.083   6.241   3.316
73060SOL     OW21076   6.947   0.865  12.384
73060SOL    HW121077   6.990   0.786  12.351
73060SOL    HW221078   6.945   0.925  12.309
73061SOL     OW21079   6.331   5.776   4.122
73061SOL    HW121080   6.327   5.771   4.217
73061SOL    HW221081   6.422   5.757   4.101
73062SOL     OW21082   2.203   9.026   6.086
73062SOL    HW121083   2.269   8.995   6.147
73062SOL    HW221084   2.173   8.947   6.041
73063SOL     OW21085   9.262  14.557   8.488
73063SOL    HW121086   9.355  14.579   8.483
73063SOL    HW221087   9.261  14.466   8.516
73064SOL     OW21088   0.052   9.608  13.634
73064SOL    HW121089   0.134   9.647  13.602
73064SOL    HW221090  14.872   9.680  13.635
73065SOL     OW21091   4.023  12.925   3.177
73065SOL    HW121092   4.012  13.019   3.192
73065SOL    HW221093   3.933  12.892   3.165
73066SOL     OW21094   9.481  12.580  14.268
73066SOL    HW121095   9.392  12.558  14.295
73066SOL    HW221096   9.529  12.589  14.350
73067SOL     OW21097   9.147   7.376   5.408
73067SOL    HW121098   9.172   7.283   5.405
73067SOL    HW221099   9.217   7.418   5.457
73068SOL     OW21100  10.899   6.885   9.983
73068SOL    HW121101  10.808   6.900  10.007
73068SOL    HW221102  10.934   6.972   9.965
73069SOL     OW21103  10.608   6.746  14.270
73069SOL    HW121104  10.616   6.747  14.365
73069SOL    HW221105  10.519   6.777  14.253
73070SOL     OW21106   7.512   6.792   6.396
73070SOL    HW121107   7.542   6.725   6.457
73070SOL    HW221108   7.420   6.804   6.416
73071SOL     OW21109   9.334  13.926  13.845
73071SOL    HW121110   9.385  13.976  13.908
73071SOL    HW221111   9.252  13.976  13.836
73072SOL     OW21112   7.356   8.292   6.307
73072SOL    HW121113   7.422   8.332   6.251
73072SOL    HW221114   7.272   8.322   6.271
73073SOL     OW21115   8.824   8.142   5.025
73073SOL    HW121116   8.771   8.188   4.960
73073SOL    HW221117   8.888   8.207   5.053
73074SOL     OW21118   2.268   2.453   3.945
73074SOL    HW121119   2.230   2.441   3.858
73074SOL    HW221120   2.257   2.546   3.963
73075SOL     OW21121   8.885   6.381   2.286
73075SOL    HW121122   8.971   6.365   2.249
73075SOL    HW221123   8.884   6.474   2.308
73076SOL     OW21124   7.799   6.614   2.971
73076SOL    HW121125   7.848   6.686   3.011
73076SOL    HW221126   7.838   6.605   2.884
73077SOL     OW21127  10.408   0.355  11.981
73077SOL    HW121128  10.410   0.329  11.889
73077SOL    HW221129  10.446   0.281  12.028
73078SOL     OW21130   9.789   9.531  11.108
73078SOL    HW121131   9.765   9.555  11.019
73078SOL    HW221132   9.738   9.452  11.126
73079SOL     OW21133   2.815   1.741   4.397
73079SOL    HW121134   2.752   1.806   4.365
73079SOL    HW221135   2.875   1.728   4.323
73080SOL     OW21136   1.196   5.366   1.102
73080SOL    HW121137   1.266   5.400   1.046
73080SOL    HW221138   1.186   5.431   1.171
73081SOL     OW21139  11.903  11.789   7.138
73081SOL    HW121140  11.879  11.880   7.117
73081SOL    HW221141  11.854  11.771   7.219
73082SOL     OW21142   8.123   2.186   1.971
73082SOL    HW121143   8.158   2.134   1.898
73082SOL    HW221144   8.112   2.123   2.042
73083SOL     OW21145   5.376   6.263   3.967
73083SOL    HW121146   5.447   6.322   3.944
73083SOL    HW221147   5.420   6.185   4.002
73084SOL     OW21148  10.317   7.184  10.973
73084SOL    HW121149  10.278   7.170  10.887
73084SOL    HW221150  10.411   7.190  10.955
73085SOL     OW21151  10.670  14.656  14.050
73085SOL    HW121152  10.581  14.647  14.015
73085SOL    HW221153  10.693  14.748  14.034
73086SOL     OW21154   8.447  10.241   3.320
73086SOL    HW121155   8.464  10.300   3.393
73086SOL    HW221156   8.484  10.285   3.244
73087SOL     OW21157   5.791  12.250  10.438
73087SOL    HW121158   5.736  12.183  10.479
73087SOL    HW221159   5.816  12.308  10.509
73088SOL     OW21160   9.873   2.096   8.829
73088SOL    HW121161   9.934   2.122   8.899
73088SOL    HW221162   9.927   2.049   8.766
73089SOL     OW21163  12.437   1.255   3.863
73089SOL    HW121164  12.499   1.322   3.835
73089SOL    HW221165  12.378   1.301   3.923
73090SOL     OW21166   0.716   6.934  11.017
73090SOL    HW121167   0.763   7.015  11.034
73090SOL    HW221168   0.699   6.898  11.105
73091SOL     OW21169  12.677   8.066  11.581
73091SOL    HW121170  12.592   8.048  11.541
73091SOL    HW221171  12.722   7.982  11.581
73092SOL     OW21172   4.538   2.219   6.111
73092SOL    HW121173   4.591   2.278   6.164
73092SOL    HW221174   4.509   2.273   6.037
73093SOL     OW21175   7.665  10.755   8.088
73093SOL    HW121176   7.636  10.728   8.175
73093SOL    HW221177   7.624  10.692   8.029
73094SOL     OW21178   1.874   9.213   5.018
73094SOL    HW121179   1.813   9.163   5.072
73094SOL    HW221180   1.932   9.256   5.081
73095SOL     OW21181   6.416   6.509  11.063
73095SOL    HW121182   6.432   6.577  11.128
73095SOL    HW221183   6.322   6.493  11.066
73096SOL     OW21184  10.807   1.051   0.325
73096SOL    HW121185  10.890   1.046   0.373
73096SOL    HW221186  10.740   1.033   0.390
73097SOL     OW21187  14.389   2.323   0.443
73097SOL    HW121188  14.440   2.392   0.487
73097SOL    HW221189  14.304   2.363   0.427
73098SOL     OW21190   1.351  12.973   9.394
73098SOL    HW121191   1.305  12.890   9.382
73098SOL    HW221192   1.314  13.010   9.474
73099SOL     OW21193  14.774   7.261   5.030
73099SOL    HW121194  14.847   7.323   5.028
73099SOL    HW221195  14.696   7.315   5.034
73100SOL     OW21196   8.208   9.331   3.618
73100SOL    HW121197   8.220   9.245   3.660
73100SOL    HW221198   8.257   9.325   3.536
73101SOL     OW21199  12.562  14.477   0.196
73101SOL    HW121200  12.476  14.443   0.168
73101SOL    HW221201  12.541  14.547   0.258
73102SOL     OW21202  10.972  10.809   6.322
73102SOL    HW121203  11.001  10.878   6.262
73102SOL    HW221204  10.878  10.804   6.310
73103SOL     OW21205   4.957  10.140   6.793
73103SOL    HW121206   5.035  10.098   6.756
73103SOL    HW221207   4.884  10.088   6.761
73104SOL     OW21208  12.345  10.130   5.374
73104SOL    HW121209  12.259  10.170   5.385
73104SOL    HW221210  12.327  10.044   5.338
73105SOL     OW21211   3.023   4.973   4.209
73105SOL    HW121212   2.971   4.980   4.289
73105SOL    HW221213   3.049   4.880   4.206
73106SOL     OW21214   2.854   3.615   9.787
73106SOL    HW121215   2.943   3.649   9.780
73106SOL    HW221216   2.822   3.647   9.871
73107SOL     OW21217  12.498   4.331   8.494
73107SOL    HW121218  12.463   4.419   8.511
73107SOL    HW221219  12.522   4.333   8.401
73108SOL     OW21220   5.206   9.464   2.672
73108SOL    HW121221   5.164   9.520   2.737
73108SOL    HW221222   5.145   9.391   2.660
73109SOL     OW21223   7.792   4.426   4.891
73109SOL    HW121224   7.835   4.464   4.814
73109SOL    HW221225   7.768   4.338   4.864
73110SOL     OW21226   9.779   0.720   1.613
73110SOL    HW121227   9.795   0.707   1.707
73110SOL    HW221228   9.803   0.812   1.597
73111SOL     OW21229  11.387   5.240  14.141
73111SOL    HW121230  11.416   5.240  14.233
73111SOL    HW221231  11.294   5.263  14.146
73112SOL     OW21232   7.341  14.456   0.078
73112SOL    HW121233   7.305  14.455   0.167
73112SOL    HW221234   7.422  14.506   0.086
73113SOL     OW21235   4.205  10.014   4.773
73113SOL    HW121236   4.159  10.098   4.781
73113SOL    HW221237   4.288  10.027   4.819
73114SOL     OW21238   0.145   3.659   1.924
73114SOL    HW121239   0.148   3.749   1.956
73114SOL    HW221240   0.235   3.638   1.901
73115SOL     OW21241  12.915  13.125  12.008
73115SOL    HW121242  13.007  13.121  12.035
73115SOL    HW221243  12.866  13.094  12.085
73116SOL     OW21244   9.103  11.052  12.227
73116SOL    HW121245   9.146  11.104  12.296
73116SOL    HW221246   9.124  10.961  12.250
73117SOL     OW21247  10.887  11.756   5.646
73117SOL    HW121248  10.793  11.746   5.635
73117SOL    HW221249  10.920  11.666   5.655
73118SOL     OW21250   8.686   9.106   9.726
73118SOL    HW121251   8.611   9.067   9.771
73118SOL    HW221252   8.708   9.044   9.657
73119SOL     OW21253   0.496   7.437   3.307
73119SOL    HW121254   0.526   7.410   3.394
73119SOL    HW221255   0.573   7.428   3.251
73120SOL     OW21256   7.988  11.463  10.576
73120SOL    HW121257   7.898  11.495  10.580
73120SOL    HW221258   8.008  11.460  10.482
73121SOL     OW21259   0.250  14.144   7.006
73121SOL    HW121260   0.294  14.118   7.087
73121SOL    HW221261   0.301  14.101   6.936
73122SOL     OW21262   2.154  13.830   8.354
73122SOL    HW121263   2.237  13.842   8.308
73122SOL    HW221264   2.129  13.918   8.381
73123SOL     OW21265   0.572   4.115   1.297
73123SOL    HW121266   0.651   4.169   1.301
73123SOL    HW221267   0.549   4.101   1.389
73124SOL     OW21268   6.764   1.884   8.530
73124SOL    HW121269   6.773   1.889   8.625
73124SOL    HW221270   6.794   1.796   8.508
73125SOL     OW21271  14.405   4.762  10.059
73125SOL    HW121272  14.354   4.690  10.096
73125SOL    HW221273  14.469   4.784  10.127
73126SOL     OW21274   1.101   4.602   3.877
73126SOL    HW121275   1.069   4.671   3.818
73126SOL    HW221276   1.061   4.623   3.962
73127SOL     OW21277   7.727  13.664  11.960
73127SOL    HW121278   7.706  13.630  12.047
73127SOL    HW221279   7.814  13.629  11.940
73128SOL     OW21280  13.306   4.323  14.157
73128SOL    HW121281  13.352   4.384  14.099
73128SOL    HW221282  13.340   4.344  14.244
73129SOL     OW21283  12.701   2.160  10.086
73129SOL    HW121284  12.617   2.122  10.059
73129SOL    HW221285  12.762   2.133  10.018
73130SOL     OW21286   3.888   7.411  14.450
73130SOL    HW121287   3.802   7.447  14.471
73130SOL    HW221288   3.887   7.323  14.488
73131SOL     OW21289   7.805   6.081   8.875
73131SOL    HW121290   7.717   6.118   8.882
73131SOL    HW221291   7.828   6.093   8.783
73132SOL     OW21292  10.473   4.988   2.120
73132SOL    HW121293  10.502   5.068   2.164
73132SOL    HW221294  10.400   4.957   2.173
73133SOL     OW21295   8.402   1.169   3.932
73133SOL    HW121296   8.379   1.262   3.924
73133SOL    HW221297   8.332   1.123   3.885
73134SOL     OW21298   7.005   5.993   6.485
73134SOL    HW121299   7.015   6.028   6.574
73134SOL    HW221300   6.954   5.913   6.496
73135SOL     OW21301  13.358  11.100   3.911
73135SOL    HW121302  13.315  11.158   3.973
73135SOL    HW221303  13.430  11.152   3.875
73136SOL     OW21304   9.666   9.406   9.260
73136SOL    HW121305   9.655   9.478   9.198
73136SOL    HW221306   9.736   9.434   9.318
73137SOL     OW21307   0.309   4.236   7.067
73137SOL    HW121308   0.320   4.141   7.064
73137SOL    HW221309   0.358   4.268   6.991
73138SOL     OW21310   6.144   9.592   7.946
73138SOL    HW121311   6.099   9.508   7.939
73138SOL    HW221312   6.232   9.575   7.912
73139SOL     OW21313  11.091   0.735  12.889
73139SOL    HW121314  11.143   0.739  12.969
73139SOL    HW221315  11.142   0.784  12.825
73140SOL     OW21316   4.353   7.382   7.016
73140SOL    HW121317   4.399   7.465   7.002
73140SOL    HW221318   4.421   7.323   7.050
73141SOL     OW21319  13.996   8.131   2.526
73141SOL    HW121320  13.968   8.040   2.528
73141SOL    HW221321  14.060   8.134   2.454
73142SOL     OW21322   3.686   7.216   8.951
73142SOL    HW121323   3.714   7.159   9.023
73142SOL    HW221324   3.625   7.162   8.900
73143SOL     OW21325   5.281   6.457  13.959
73143SOL    HW121326   5.272   6.443  14.053
73143SOL    HW221327   5.203   6.417  13.921
73144SOL     OW21328   9.652  14.266  11.344
73144SOL    HW121329   9.590  14.201  11.377
73144SOL    HW221330   9.634  14.271  11.250
73145SOL     OW21331   8.081  10.053   2.686
73145SOL    HW121332   8.074  10.146   2.706
73145SOL    HW221333   8.098  10.011   2.770
73146SOL     OW21334  13.723   7.947   2.515
73146SOL    HW121335  13.802   7.938   2.462
73146SOL    HW221336  13.700   8.040   2.508
73147SOL     OW21337   1.605   8.316  14.134
73147SOL    HW121338   1.679   8.298  14.076
73147SOL    HW221339   1.585   8.232  14.174
73148SOL     OW21340   8.811   6.729  13.678
73148SOL    HW121341   8.775   6.641  13.689
73148SOL    HW221342   8.906   6.716  13.680
73149SOL     OW21343   2.197   0.721  12.190
73149SOL    HW121344   2.145   0.640  12.186
73149SOL    HW221345   2.274   0.702  12.136
73150SOL     OW21346   9.076  11.044   7.365
73150SOL    HW121347   8.991  11.012   7.394
73150SOL    HW221348   9.062  11.071   7.274
73151SOL     OW21349  12.410  12.549   1.024
73151SOL    HW121350  12.408  12.525   0.932
73151SOL    HW221351  12.443  12.471   1.069
73152SOL     OW21352   1.407   8.766   8.962
73152SOL    HW121353   1.380   8.722   9.042
73152SOL    HW221354   1.499   8.743   8.951
73153SOL     OW21355   6.703   6.107   7.604
73153SOL    HW121356   6.687   6.186   7.553
73153SOL    HW221357   6.779   6.128   7.658
73154SOL     OW21358   7.571   0.933   2.412
73154SOL    HW121359   7.649   0.937   2.467
73154SOL    HW221360   7.577   1.012   2.357
73155SOL     OW21361   1.867   9.745   4.217
73155SOL    HW121362   1.855   9.777   4.307
73155SOL    HW221363   1.912   9.816   4.172
73156SOL     OW21364   4.259  10.627   7.019
73156SOL    HW121365   4.214  10.709   6.998
73156SOL    HW221366   4.256  10.622   7.115
73157SOL     OW21367   1.778  13.889  11.409
73157SOL    HW121368   1.764  13.952  11.338
73157SOL    HW221369   1.721  13.919  11.480
73158SOL     OW21370  11.158   7.922  14.503
73158SOL    HW121371  11.071   7.908  14.540
73158SOL    HW221372  11.163   7.862  14.428
73159SOL     OW21373   7.258  10.950   1.520
73159SOL    HW121374   7.322  11.021   1.511
73159SOL    HW221375   7.296  10.877   1.472
73160SOL     OW21376   7.292   3.856   0.311
73160SOL    HW121377   7.220   3.796   0.327
73160SOL    HW221378   7.304   3.854   0.216
73161SOL     OW21379  11.532  10.195   1.548
73161SOL    HW121380  11.523  10.167   1.639
73161SOL    HW221381  11.620  10.232   1.543
73162SOL     OW21382   2.465   7.185   0.403
73162SOL    HW121383   2.423   7.268   0.379
73162SOL    HW221384   2.393   7.126   0.420
73163SOL     OW21385   5.087  12.403   9.391
73163SOL    HW121386   5.081  12.499   9.391
73163SOL    HW221387   4.996  12.374   9.402
73164SOL     OW21388   0.896   1.355  14.539
73164SOL    HW121389   0.839   1.425  14.572
73164SOL    HW221390   0.861   1.275  14.578
73165SOL     OW21391  12.653   1.241  13.007
73165SOL    HW121392  12.613   1.183  12.942
73165SOL    HW221393  12.590   1.312  13.018
73166SOL     OW21394   7.938   0.605  12.826
73166SOL    HW121395   8.029   0.601  12.855
73166SOL    HW221396   7.944   0.619  12.732
73167SOL     OW21397   5.065   9.096  14.800
73167SOL    HW121398   5.120   9.175  14.809
73167SOL    HW221399   5.125   9.028  14.771
73168SOL     OW21400  13.419  13.494  13.935
73168SOL    HW121401  13.377  13.530  14.013
73168SOL    HW221402  13.495  13.550  13.921
73169SOL     OW21403   1.762  13.856   1.548
73169SOL    HW121404   1.819  13.911   1.601
73169SOL    HW221405   1.673  13.875   1.579
73170SOL     OW21406  14.672   7.647  10.239
73170SOL    HW121407  14.722   7.614  10.164
73170SOL    HW221408  14.674   7.742  10.229
73171SOL     OW21409   0.615   9.879   8.671
73171SOL    HW121410   0.654   9.924   8.745
73171SOL    HW221411   0.686   9.829   8.632
73172SOL     OW21412  13.290   1.002   6.704
73172SOL    HW121413  13.375   1.030   6.670
73172SOL    HW221414  13.308   0.971   6.793
73173SOL     OW21415  13.691  10.201   6.103
73173SOL    HW121416  13.630  10.224   6.032
73173SOL    HW221417  13.735  10.283   6.124
73174SOL     OW21418  14.013   0.829  14.378
73174SOL    HW121419  13.931   0.825  14.328
73174SOL    HW221420  14.082   0.831  14.312
73175SOL     OW21421   4.912   1.885  12.461
73175SOL    HW121422   4.889   1.917  12.374
73175SOL    HW221423   4.921   1.964  12.514
73176SOL     OW21424   2.028   6.173   9.784
73176SOL    HW121425   2.051   6.230   9.858
73176SOL    HW221426   1.939   6.144   9.803
73177SOL     OW21427   4.460  10.240  14.376
73177SOL    HW121428   4.386  10.197  14.334
73177SOL    HW221429   4.531  10.234  14.311
73178SOL     OW21430   4.840   2.798  14.646
73178SOL    HW121431   4.850   2.722  14.704
73178SOL    HW221432   4.856   2.873  14.703
73179SOL     OW21433   0.582   4.265   4.089
73179SOL    HW121434   0.551   4.287   4.177
73179SOL    HW221435   0.594   4.170   4.091
73180SOL     OW21436   2.585   8.775   2.841
73180SOL    HW121437   2.643   8.714   2.887
73180SOL    HW221438   2.573   8.736   2.754
73181SOL     OW21439  14.810   9.349  10.442
73181SOL    HW121440  14.882   9.290  10.420
73181SOL    HW221441  14.851   9.423  10.487
73182SOL     OW21442  10.719   2.687  13.859
73182SOL    HW121443  10.670   2.770  13.866
73182SOL    HW221444  10.684   2.633  13.929
73183SOL     OW21445  14.449  14.600  12.571
73183SOL    HW121446  14.438  14.509  12.598
73183SOL    HW221447  14.473  14.646  12.651
73184SOL     OW21448   6.530  10.847  12.506
73184SOL    HW121449   6.453  10.827  12.559
73184SOL    HW221450   6.497  10.847  12.416
73185SOL     OW21451   0.139   8.716   0.074
73185SOL    HW121452   0.110   8.790   0.127
73185SOL    HW221453   0.234   8.715   0.084
73186SOL     OW21454   8.467   4.408   3.905
73186SOL    HW121455   8.441   4.337   3.847
73186SOL    HW221456   8.544   4.446   3.863
73187SOL     OW21457   8.269   1.325  14.510
73187SOL    HW121458   8.201   1.304  14.446
73187SOL    HW221459   8.236   1.403  14.555
73188SOL     OW21460  10.205  13.085   9.464
73188SOL    HW121461  10.239  13.151   9.404
73188SOL    HW221462  10.272  13.075   9.530
73189SOL     OW21463  12.596  13.972  12.090
73189SOL    HW121464  12.617  14.000  12.001
73189SOL    HW221465  12.663  14.013  12.145
73190SOL     OW21466   9.739   2.449   4.997
73190SOL    HW121467   9.712   2.537   4.970
73190SOL    HW221468   9.657   2.402   5.011
73191SOL     OW21469   7.897  12.265   4.811
73191SOL    HW121470   7.877  12.343   4.863
73191SOL    HW221471   7.975  12.289   4.761
73192SOL     OW21472  11.916   1.240   7.149
73192SOL    HW121473  11.991   1.256   7.091
73192SOL    HW221474  11.841   1.274   7.101
73193SOL     OW21475   3.259  11.899   0.429
73193SOL    HW121476   3.175  11.860   0.408
73193SOL    HW221477   3.313  11.886   0.351
73194SOL     OW21478   8.428  12.626  13.283
73194SOL    HW121479   8.424  12.691  13.353
73194SOL    HW221480   8.377  12.664  13.212
73195SOL     OW21481  12.632  12.313  12.532
73195SOL    HW121482  12.620  12.235  12.477
73195SOL    HW221483  12.640  12.385  12.469
73196SOL     OW21484  12.997   7.082  11.349
73196SOL    HW121485  13.058   7.023  11.392
73196SOL    HW221486  12.972   7.145  11.418
73197SOL     OW21487  11.379  10.925   7.534
73197SOL    HW121488  11.461  10.876   7.536
73197SOL    HW221489  11.322  10.879   7.596
73198SOL     OW21490  10.030   0.488   0.693
73198SOL    HW121491  10.020   0.581   0.714
73198SOL    HW221492  10.012   0.443   0.776
73199SOL     OW21493   3.089  12.272   8.941
73199SOL    HW121494   3.014  12.291   8.885
73199SOL    HW221495   3.134  12.356   8.951
73200SOL     OW21496  12.985   3.663   1.925
73200SOL    HW121497  12.956   3.610   1.851
73200SOL    HW221498  13.068   3.623   1.951
73201SOL     OW21499   2.614   8.123   5.747
73201SOL    HW121500   2.531   8.104   5.704
73201SOL    HW221501   2.659   8.039   5.751
73202SOL     OW21502  12.139   8.070  12.862
73202SOL    HW121503  12.181   8.096  12.780
73202SOL    HW221504  12.052   8.040  12.836
73203SOL     OW21505  10.282   4.619  13.339
73203SOL    HW121506  10.206   4.638  13.394
73203SOL    HW221507  10.331   4.553  13.388
73204SOL     OW21508  12.629   6.388   9.456
73204SOL    HW121509  12.653   6.428   9.540
73204SOL    HW221510  12.698   6.416   9.396
73205SOL     OW21511  14.213  10.815   2.735
73205SOL    HW121512  14.299  10.778   2.718
73205SOL    HW221513  14.226  10.875   2.808
73206SOL     OW21514  11.205   4.917   1.249
73206SOL    HW121515  11.114   4.946   1.240
73206SOL    HW221516  11.257   4.993   1.221
73207SOL     OW21517   1.868   4.541  11.484
73207SOL    HW121518   1.906   4.476  11.424
73207SOL    HW221519   1.870   4.498  11.570
73208SOL     OW21520   2.456   9.594   5.247
73208SOL    HW121521   2.475   9.506   5.279
73208SOL    HW221522   2.395   9.629   5.312
73209SOL     OW21523   1.000   0.865   3.863
73209SOL    HW121524   1.081   0.873   3.813
73209SOL    HW221525   0.957   0.788   3.826
73210SOL     OW21526   7.955  10.240   9.714
73210SOL    HW121527   8.005  10.317   9.741
73210SOL    HW221528   8.013  10.196   9.651
73211SOL     OW21529   0.966   7.546   9.192
73211SOL    HW121530   0.971   7.641   9.201
73211SOL    HW221531   0.972   7.514   9.282
73212SOL     OW21532  10.084   0.567  14.438
73212SOL    HW121533  10.122   0.490  14.480
73212SOL    HW221534  10.062   0.625  14.510
73213SOL     OW21535   6.451  11.672   9.791
73213SOL    HW121536   6.529  11.648   9.841
73213SOL    HW221537   6.394  11.715   9.855
73214SOL     OW21538   6.387  10.092   9.749
73214SOL    HW121539   6.443  10.092   9.827
73214SOL    HW221540   6.410  10.012   9.702
73215SOL     OW21541   3.785   8.009   9.282
73215SOL    HW121542   3.719   7.940   9.291
73215SOL    HW221543   3.773   8.064   9.359
73216SOL     OW21544   2.470   2.120  14.073
73216SOL    HW121545   2.475   2.203  14.121
73216SOL    HW221546   2.529   2.061  14.121
73217SOL     OW21547   1.209  10.741   1.879
73217SOL    HW121548   1.175  10.814   1.827
73217SOL    HW221549   1.304  10.748   1.871
73218SOL     OW21550   4.872  14.218   2.789
73218SOL    HW121551   4.832  14.140   2.828
73218SOL    HW221552   4.826  14.228   2.705
73219SOL     OW21553  14.281  11.764  14.197
73219SOL    HW121554  14.314  11.853  14.213
73219SOL    HW221555  14.192  11.766  14.232
73220SOL     OW21556  13.433  11.162  11.180
73220SOL    HW121557  13.353  11.117  11.208
73220SOL    HW221558  13.486  11.169  11.260
73221SOL     OW21559  13.602   1.805  14.609
73221SOL    HW121560  13.582   1.735  14.547
73221SOL    HW221561  13.536   1.795  14.679
73222SOL     OW21562   6.721   1.908   8.806
73222SOL    HW121563   6.816   1.910   8.814
73222SOL    HW221564   6.691   1.983   8.857
73223SOL     OW21565   0.223  11.633   6.154
73223SOL    HW121566   0.132  11.662   6.144
73223SOL    HW221567   0.218  11.557   6.211
73224SOL     OW21568   0.748   4.863   8.147
73224SOL    HW121569   0.774   4.782   8.192
73224SOL    HW221570   0.656   4.875   8.170
73225SOL     OW21571   2.294   9.157  14.282
73225SOL    HW121572   2.368   9.200  14.239
73225SOL    HW221573   2.220   9.216  14.270
73226SOL     OW21574   3.171  10.725   9.066
73226SOL    HW121575   3.102  10.659   9.053
73226SOL    HW221576   3.211  10.700   9.149
73227SOL     OW21577   1.631   1.348   8.053
73227SOL    HW121578   1.537   1.363   8.042
73227SOL    HW221579   1.669   1.369   7.967
73228SOL     OW21580  12.774   4.501  10.275
73228SOL    HW121581  12.744   4.410  10.280
73228SOL    HW221582  12.867   4.496  10.298
73229SOL     OW21583   8.636   3.589   3.943
73229SOL    HW121584   8.684   3.515   3.981
73229SOL    HW221585   8.565   3.549   3.894
73230SOL     OW21586   1.009   0.020   0.321
73230SOL    HW121587   1.061   0.063   0.388
73230SOL    HW221588   1.068   0.011   0.246
73231SOL     OW21589   7.216   3.506   2.469
73231SOL    HW121590   7.193   3.478   2.558
73231SOL    HW221591   7.311   3.494   2.465
73232SOL     OW21592   4.410   6.783   8.876
73232SOL    HW121593   4.459   6.837   8.938
73232SOL    HW221594   4.337   6.748   8.926
73233SOL     OW21595   2.218  10.737  14.006
73233SOL    HW121596   2.225  10.784  13.923
73233SOL    HW221597   2.176  10.654  13.983
73234SOL     OW21598   5.915  13.982   8.173
73234SOL    HW121599   5.943  13.995   8.082
73234SOL    HW221600   5.902  14.071   8.207
73235SOL     OW21601  13.739  13.759  12.962
73235SOL    HW121602  13.670  13.739  12.899
73235SOL    HW221603  13.700  13.823  13.021
73236SOL     OW21604   9.400  11.706  12.178
73236SOL    HW121605   9.478  11.665  12.139
73236SOL    HW221606   9.413  11.695  12.272
73237SOL     OW21607   6.814  10.670  12.099
73237SOL    HW121608   6.771  10.594  12.061
73237SOL    HW221609   6.840  10.723  12.024
73238SOL     OW21610   2.397   2.974   1.747
73238SOL    HW121611   2.465   3.014   1.692
73238SOL    HW221612   2.443   2.904   1.794
73239SOL     OW21613  12.366   9.539   8.925
73239SOL    HW121614  12.302   9.547   8.854
73239SOL    HW221615  12.393   9.629   8.944
73240SOL     OW21616  11.523   4.091  11.718
73240SOL    HW121617  11.553   4.077  11.808
73240SOL    HW221618  11.431   4.115  11.727
73241SOL     OW21619  10.750  14.232  12.220
73241SOL    HW121620  10.845  14.244  12.228
73241SOL    HW221621  10.738  14.197  12.132
73242SOL     OW21622   6.717   0.688   3.768
73242SOL    HW121623   6.721   0.639   3.685
73242SOL    HW221624   6.687   0.624   3.832
73243SOL     OW21625   1.293  13.136   0.007
73243SOL    HW121626   1.303  13.198   0.079
73243SOL    HW221627   1.333  13.180  14.814
73244SOL     OW21628   0.892  10.039  10.488
73244SOL    HW121629   0.824   9.995  10.539
73244SOL    HW221630   0.949  10.080  10.554
73245SOL     OW21631   1.623  11.940  12.939
73245SOL    HW121632   1.653  11.863  12.889
73245SOL    HW221633   1.657  12.015  12.890
73246SOL     OW21634   1.618   7.246  10.452
73246SOL    HW121635   1.688   7.182  10.439
73246SOL    HW221636   1.597   7.276  10.364
73247SOL     OW21637  10.242  13.335   9.760
73247SOL    HW121638  10.202  13.369   9.841
73247SOL    HW221639  10.204  13.388   9.690
73248SOL     OW21640   1.159  14.265   2.370
73248SOL    HW121641   1.178  14.197   2.435
73248SOL    HW221642   1.098  14.324   2.415
73249SOL     OW21643   8.251   2.809   8.789
73249SOL    HW121644   8.224   2.720   8.812
73249SOL    HW221645   8.171   2.852   8.761
73250SOL     OW21646   1.040   0.572   3.520
73250SOL    HW121647   1.135   0.581   3.519
73250SOL    HW221648   1.021   0.532   3.605
73251SOL     OW21649  14.793  12.457   3.760
73251SOL    HW121650  14.841  12.376   3.774
73251SOL    HW221651  14.846  12.506   3.698
73252SOL     OW21652  10.788   6.171   9.287
73252SOL    HW121653  10.746   6.091   9.255
73252SOL    HW221654  10.836   6.205   9.212
73253SOL     OW21655  10.268  12.792  12.179
73253SOL    HW121656  10.226  12.707  12.171
73253SOL    HW221657  10.332  12.794  12.108
73254SOL     OW21658   6.220  11.615   7.904
73254SOL    HW121659   6.198  11.522   7.913
73254SOL    HW221660   6.148  11.662   7.946
73255SOL     OW21661   7.998   9.941   0.339
73255SOL    HW121662   7.908   9.915   0.320
73255SOL    HW221663   8.026   9.882   0.409
73256SOL     OW21664  10.598   4.671   9.806
73256SOL    HW121665  10.587   4.741   9.741
73256SOL    HW221666  10.619   4.716   9.887
73257SOL     OW21667   3.925   3.044   0.895
73257SOL    HW121668   3.962   3.130   0.874
73257SOL    HW221669   3.833   3.060   0.912
73258SOL     OW21670   8.144   5.000   7.063
73258SOL    HW121671   8.136   4.973   6.971
73258SOL    HW221672   8.064   4.967   7.104
73259SOL     OW21673  11.034   7.441   8.871
73259SOL    HW121674  10.981   7.483   8.938
73259SOL    HW221675  11.060   7.357   8.909
73260SOL     OW21676  14.659   1.750   7.758
73260SOL    HW121677  14.670   1.812   7.830
73260SOL    HW221678  14.735   1.764   7.702
73261SOL     OW21679  14.225   8.935  14.600
73261SOL    HW121680  14.144   8.898  14.566
73261SOL    HW221681  14.242   9.012  14.545
73262SOL     OW21682  14.030   3.230   1.436
73262SOL    HW121683  14.091   3.271   1.375
73262SOL    HW221684  14.060   3.258   1.522
73263SOL     OW21685   9.968  11.416  10.116
73263SOL    HW121686   9.989  11.426  10.023
73263SOL    HW221687  10.048  11.445  10.161
73264SOL     OW21688  12.756  14.555   3.410
73264SOL    HW121689  12.814  14.502   3.464
73264SOL    HW221690  12.776  14.529   3.320
73265SOL     OW21691   9.123  10.034   1.129
73265SOL    HW121692   9.056  10.080   1.180
73265SOL    HW221693   9.202  10.039   1.183
73266SOL     OW21694   4.144  14.706  11.586
73266SOL    HW121695   4.080  14.639  11.560
73266SOL    HW221696   4.169  14.682  11.675
73267SOL     OW21697   0.050  10.994   2.799
73267SOL    HW121698   0.036  11.038   2.715
73267SOL    HW221699   0.079  10.906   2.775
73268SOL     OW21700   1.488  10.449  13.349
73268SOL    HW121701   1.471  10.364  13.309
73268SOL    HW221702   1.537  10.429  13.429
73269SOL     OW21703  12.885   6.017  12.864
73269SOL    HW121704  12.856   5.996  12.775
73269SOL    HW221705  12.815   6.072  12.899
73270SOL     OW21706  11.724  12.119  14.878
73270SOL    HW121707  11.737  12.189  14.814
73270SOL    HW221708  11.631  12.098  14.872
73271SOL     OW21709   7.089   4.324  13.967
73271SOL    HW121710   7.048   4.411  13.964
73271SOL    HW221711   7.169   4.338  14.017
73272SOL     OW21712   5.406   5.907   9.024
73272SOL    HW121713   5.413   5.993   9.066
73272SOL    HW221714   5.432   5.922   8.933
73273SOL     OW21715   5.746   4.203   9.199
73273SOL    HW121716   5.691   4.265   9.152
73273SOL    HW221717   5.768   4.247   9.281
73274SOL     OW21718   4.902   3.810   5.863
73274SOL    HW121719   4.989   3.815   5.901
73274SOL    HW221720   4.843   3.806   5.938
73275SOL     OW21721   4.163  13.608   4.267
73275SOL    HW121722   4.251  13.646   4.271
73275SOL    HW221723   4.127  13.637   4.183
73276SOL     OW21724   2.174  14.024   6.480
73276SOL    HW121725   2.128  14.108   6.480
73276SOL    HW221726   2.113  13.962   6.441
73277SOL     OW21727   4.644  12.037   8.168
73277SOL    HW121728   4.688  12.030   8.253
73277SOL    HW221729   4.626  12.131   8.159
73278SOL     OW21730  14.213   1.945   4.779
73278SOL    HW121731  14.265   1.886   4.725
73278SOL    HW221732  14.124   1.909   4.775
73279SOL     OW21733   2.768   5.005   5.838
73279SOL    HW121734   2.852   5.004   5.793
73279SOL    HW221735   2.705   4.976   5.772
73280SOL     OW21736  14.544   9.612   4.505
73280SOL    HW121737  14.514   9.691   4.460
73280SOL    HW221738  14.468   9.581   4.553
73281SOL     OW21739   8.072   8.498   0.972
73281SOL    HW121740   8.034   8.585   0.987
73281SOL    HW221741   8.041   8.473   0.885
73282SOL     OW21742   6.722  12.398  14.309
73282SOL    HW121743   6.669  12.320  14.291
73282SOL    HW221744   6.746  12.390  14.401
73283SOL     OW21745   8.780   5.163  12.585
73283SOL    HW121746   8.737   5.215  12.517
73283SOL    HW221747   8.832   5.098  12.536
73284SOL     OW21748   9.649  12.905  10.232
73284SOL    HW121749   9.614  12.907  10.143
73284SOL    HW221750   9.668  12.996  10.253
73285SOL     OW21751  13.535   4.821   5.194
73285SOL    HW121752  13.515   4.728   5.183
73285SOL    HW221753  13.468   4.867   5.144
73286SOL     OW21754   0.639  14.103   0.187
73286SOL    HW121755   0.577  14.030   0.179
73286SOL    HW221756   0.585  14.179   0.205
73287SOL     OW21757  14.359   8.193   6.164
73287SOL    HW121758  14.304   8.271   6.152
73287SOL    HW221759  14.395   8.202   6.252
73288SOL     OW21760   5.993   6.288   7.557
73288SOL    HW121761   6.014   6.340   7.479
73288SOL    HW221762   6.074   6.243   7.577
73289SOL     OW21763   0.829   6.857   9.181
73289SOL    HW121764   0.786   6.893   9.259
73289SOL    HW221765   0.862   6.934   9.134
73290SOL     OW21766   1.152   0.335   5.902
73290SOL    HW121767   1.158   0.299   5.990
73290SOL    HW221768   1.079   0.287   5.862
73291SOL     OW21769  11.194   0.344   8.067
73291SOL    HW121770  11.285   0.320   8.048
73291SOL    HW221771  11.142   0.279   8.020
73292SOL     OW21772  11.570   7.491   3.019
73292SOL    HW121773  11.648   7.448   2.983
73292SOL    HW221774  11.497   7.448   2.975
73293SOL     OW21775   0.637   6.431   8.396
73293SOL    HW121776   0.557   6.462   8.440
73293SOL    HW221777   0.626   6.459   8.305
73294SOL     OW21778   2.022  13.875   4.120
73294SOL    HW121779   1.964  13.875   4.196
73294SOL    HW221780   1.970  13.916   4.051
73295SOL     OW21781   8.859   5.715  10.298
73295SOL    HW121782   8.833   5.752  10.213
73295SOL    HW221783   8.810   5.633  10.304
73296SOL     OW21784   0.708   2.519   6.365
73296SOL    HW121785   0.696   2.609   6.396
73296SOL    HW221786   0.622   2.479   6.375
73297SOL     OW21787  14.031   4.994   4.388
73297SOL    HW121788  14.099   5.053   4.421
73297SOL    HW221789  14.019   5.021   4.296
73298SOL     OW21790   1.035   8.358  14.405
73298SOL    HW121791   0.998   8.279  14.446
73298SOL    HW221792   0.982   8.430  14.439
73299SOL     OW21793   0.493  13.311   3.888
73299SOL    HW121794   0.441  13.232   3.879
73299SOL    HW221795   0.428  13.380   3.907
73300SOL     OW21796   9.101   4.999  13.973
73300SOL    HW121797   9.142   5.075  14.014
73300SOL    HW221798   9.168   4.930  13.978
73301SOL     OW21799   6.098   0.395   1.794
73301SOL    HW121800   6.080   0.470   1.737
73301SOL    HW221801   6.183   0.416   1.834
73302SOL     OW21802   6.282   2.577   3.051
73302SOL    HW121803   6.245   2.535   3.128
73302SOL    HW221804   6.239   2.535   2.977
73303SOL     OW21805   3.910   8.136   7.373
73303SOL    HW121806   3.824   8.174   7.355
73303SOL    HW221807   3.971   8.209   7.363
73304SOL     OW21808  14.713   0.810  10.019
73304SOL    HW121809  14.741   0.824  10.109
73304SOL    HW221810  14.695   0.716  10.014
73305SOL     OW21811   9.480   0.968   6.630
73305SOL    HW121812   9.445   0.915   6.701
73305SOL    HW221813   9.572   0.981   6.653
73306SOL     OW21814   0.971  12.477  12.666
73306SOL    HW121815   0.890  12.523  12.690
73306SOL    HW221816   0.984  12.413  12.736
73307SOL     OW21817   3.115   8.465   5.905
73307SOL    HW121818   3.055   8.391   5.901
73307SOL    HW221819   3.202   8.426   5.896
73308SOL     OW21820   8.643   1.245   5.180
73308SOL    HW121821   8.709   1.294   5.131
73308SOL    HW221822   8.692   1.200   5.248
73309SOL     OW21823   5.608   2.638   7.229
73309SOL    HW121824   5.602   2.689   7.148
73309SOL    HW221825   5.525   2.655   7.274
73310SOL     OW21826   5.648  11.543  14.719
73310SOL    HW121827   5.702  11.605  14.767
73310SOL    HW221828   5.706  11.507  14.651
73311SOL     OW21829  12.717   1.991   8.602
73311SOL    HW121830  12.716   2.074   8.649
73311SOL    HW221831  12.638   1.946   8.631
73312SOL     OW21832   3.996   9.385   0.219
73312SOL    HW121833   3.983   9.376   0.125
73312SOL    HW221834   4.054   9.461   0.228
73313SOL     OW21835   0.563   6.689   4.921
73313SOL    HW121836   0.538   6.765   4.973
73313SOL    HW221837   0.629   6.644   4.974
73314SOL     OW21838  10.159   5.688   9.118
73314SOL    HW121839  10.205   5.625   9.063
73314SOL    HW221840  10.202   5.681   9.204
73315SOL     OW21841   9.667   6.722   0.056
73315SOL    HW121842   9.733   6.790   0.045
73315SOL    HW221843   9.713   6.640   0.040
73316SOL     OW21844  12.826   8.797  12.508
73316SOL    HW121845  12.812   8.789  12.602
73316SOL    HW221846  12.742   8.770  12.469
73317SOL     OW21847   3.718   7.012   0.162
73317SOL    HW121848   3.657   7.076   0.125
73317SOL    HW221849   3.722   6.942   0.098
73318SOL     OW21850  13.390   0.089   6.314
73318SOL    HW121851  13.372   0.183   6.312
73318SOL    HW221852  13.462   0.079   6.375
73319SOL     OW21853   8.212   2.866   2.859
73319SOL    HW121854   8.117   2.873   2.869
73319SOL    HW221855   8.226   2.872   2.764
73320SOL     OW21856   5.990   4.708   4.337
73320SOL    HW121857   6.000   4.802   4.324
73320SOL    HW221858   6.028   4.692   4.424
73321SOL     OW21859   3.320   9.218  10.569
73321SOL    HW121860   3.274   9.299  10.589
73321SOL    HW221861   3.320   9.214  10.473
73322SOL     OW21862   9.151   7.799   5.514
73322SOL    HW121863   9.190   7.732   5.457
73322SOL    HW221864   9.196   7.788   5.598
73323SOL     OW21865   2.167  10.889   7.530
73323SOL    HW121866   2.080  10.898   7.491
73323SOL    HW221867   2.181  10.972   7.575
73324SOL     OW21868   9.998  14.573   7.582
73324SOL    HW121869   9.948  14.586   7.663
73324SOL    HW221870  10.084  14.609   7.602
73325SOL     OW21871   6.411  10.777   1.413
73325SOL    HW121872   6.390  10.738   1.329
73325SOL    HW221873   6.326  10.800   1.451
73326SOL     OW21874   4.741   9.656  11.613
73326SOL    HW121875   4.673   9.712  11.575
73326SOL    HW221876   4.804   9.718  11.650
73327SOL     OW21877   9.318   0.500   2.260
73327SOL    HW121878   9.297   0.452   2.340
73327SOL    HW221879   9.395   0.455   2.225
73328SOL     OW21880   5.386   6.683   2.430
73328SOL    HW121881   5.317   6.618   2.417
73328SOL    HW221882   5.416   6.668   2.520
73329SOL     OW21883   7.882   5.067  14.231
73329SOL    HW121884   7.832   5.005  14.285
73329SOL    HW221885   7.951   5.014  14.191
73330SOL     OW21886  10.243  11.562  10.845
73330SOL    HW121887  10.180  11.579  10.916
73330SOL    HW221888  10.234  11.637  10.787
73331SOL     OW21889   7.747   4.250   8.099
73331SOL    HW121890   7.680   4.207   8.046
73331SOL    HW221891   7.778   4.182   8.158
73332SOL     OW21892   4.934  11.362  10.563
73332SOL    HW121893   4.957  11.274  10.534
73332SOL    HW221894   4.848  11.378  10.525
73333SOL     OW21895   4.840  10.228   9.967
73333SOL    HW121896   4.932  10.217   9.944
73333SOL    HW221897   4.838  10.225  10.062
73334SOL     OW21898   6.522   3.417   9.353
73334SOL    HW121899   6.473   3.440   9.274
73334SOL    HW221900   6.469   3.349   9.395
73335SOL     OW21901  10.693   4.470   4.412
73335SOL    HW121902  10.667   4.381   4.387
73335SOL    HW221903  10.786   4.475   4.388
73336SOL     OW21904  10.920   8.835   3.537
73336SOL    HW121905  10.935   8.926   3.514
73336SOL    HW221906  10.922   8.833   3.632
73337SOL     OW21907  13.481  11.606  10.909
73337SOL    HW121908  13.555  11.581  10.853
73337SOL    HW221909  13.512  11.685  10.955
73338SOL     OW21910   1.272  12.243   7.806
73338SOL    HW121911   1.318  12.208   7.730
73338SOL    HW221912   1.312  12.329   7.821
73339SOL     OW21913   7.143   0.136   2.814
73339SOL    HW121914   7.116   0.044   2.807
73339SOL    HW221915   7.220   0.134   2.870
73340SOL     OW21916  11.935   0.601   7.490
73340SOL    HW121917  11.978   0.545   7.425
73340SOL    HW221918  11.852   0.556   7.509
73341SOL     OW21919   1.005   8.268   6.149
73341SOL    HW121920   0.950   8.190   6.139
73341SOL    HW221921   0.955   8.337   6.107
73342SOL     OW21922   1.118   5.633   2.583
73342SOL    HW121923   1.078   5.561   2.631
73342SOL    HW221924   1.209   5.607   2.571
73343SOL     OW21925   6.906  13.820   4.382
73343SOL    HW121926   6.971  13.879   4.422
73343SOL    HW221927   6.852  13.791   4.456
73344SOL     OW21928  11.491  10.880  13.114
73344SOL    HW121929  11.496  10.838  13.028
73344SOL    HW221930  11.550  10.956  13.107
73345SOL     OW21931   1.436   4.933  13.048
73345SOL    HW121932   1.400   4.867  13.107
73345SOL    HW221933   1.518   4.960  13.089
73346SOL     OW21934   9.197  13.945   4.475
73346SOL    HW121935   9.213  13.940   4.570
73346SOL    HW221936   9.125  13.883   4.461
73347SOL     OW21937   4.279   1.091   0.395
73347SOL    HW121938   4.280   1.073   0.489
73347SOL    HW221939   4.217   1.164   0.386
73348SOL     OW21940   1.824  11.611  11.405
73348SOL    HW121941   1.845  11.521  11.429
73348SOL    HW221942   1.764  11.603  11.331
73349SOL     OW21943  10.168   9.503   6.135
73349SOL    HW121944  10.112   9.459   6.072
73349SOL    HW221945  10.243   9.445   6.146
73350SOL     OW21946   0.921   9.815  12.613
73350SOL    HW121947   0.950   9.772  12.533
73350SOL    HW221948   0.950   9.757  12.683
73351SOL     OW21949   5.319  13.831  14.476
73351SOL    HW121950   5.385  13.792  14.532
73351SOL    HW221951   5.236  13.817  14.523
73352SOL     OW21952  13.912   8.287   3.743
73352SOL    HW121953  13.956   8.327   3.818
73352SOL    HW221954  13.950   8.330   3.667
73353SOL     OW21955  13.311  11.215   2.390
73353SOL    HW121956  13.218  11.234   2.381
73353SOL    HW221957  13.316  11.124   2.417
73354SOL     OW21958   3.624   6.688   9.722
73354SOL    HW121959   3.565   6.631   9.673
73354SOL    HW221960   3.712   6.656   9.700
73355SOL     OW21961  12.517  14.448  11.314
73355SOL    HW121962  12.437  14.400  11.335
73355SOL    HW221963  12.488  14.538  11.298
73356SOL     OW21964  11.034  14.137  11.915
73356SOL    HW121965  11.064  14.076  11.847
73356SOL    HW221966  11.067  14.223  11.885
73357SOL     OW21967   1.559   9.534   4.218
73357SOL    HW121968   1.628   9.543   4.284
73357SOL    HW221969   1.592   9.580   4.142
73358SOL     OW21970  11.864  13.288   3.322
73358SOL    HW121971  11.884  13.194   3.320
73358SOL    HW221972  11.905  13.322   3.242
73359SOL     OW21973   7.993   6.708   7.286
73359SOL    HW121974   8.065   6.678   7.230
73359SOL    HW221975   7.986   6.802   7.267
73360SOL     OW21976   3.825  11.321   0.948
73360SOL    HW121977   3.762  11.367   1.003
73360SOL    HW221978   3.774  11.290   0.873
73361SOL     OW21979   4.448   6.303   4.724
73361SOL    HW121980   4.508   6.294   4.650
73361SOL    HW221981   4.405   6.388   4.709
73362SOL     OW21982   1.688  14.327  14.091
73362SOL    HW121983   1.637  14.397  14.132
73362SOL    HW221984   1.622  14.267  14.055
73363SOL     OW21985   4.347   1.358   9.707
73363SOL    HW121986   4.417   1.373   9.644
73363SOL    HW221987   4.372   1.277   9.752
73364SOL     OW21988   0.142   0.036  13.629
73364SOL    HW121989   0.226   0.042  13.584
73364SOL    HW221990   0.107  14.832  13.606
73365SOL     OW21991   9.425   1.018   3.410
73365SOL    HW121992   9.464   1.102   3.389
73365SOL    HW221993   9.428   1.013   3.505
73366SOL     OW21994   7.199   8.816  11.262
73366SOL    HW121995   7.113   8.775  11.258
73366SOL    HW221996   7.187   8.892  11.319
73367SOL     OW21997  11.697   7.016  12.109
73367SOL    HW121998  11.633   7.068  12.156
73367SOL    HW221999  11.697   7.052  12.020
73368SOL     OW22000   5.916  13.955   3.741
73368SOL    HW122001   5.841  13.968   3.798
73368SOL    HW222002   5.969  13.889   3.785
73369SOL     OW22003   4.382   8.016   5.428
73369SOL    HW122004   4.383   8.099   5.381
73369SOL    HW222005   4.335   8.035   5.509
73370SOL     OW22006  14.279   2.116   0.604
73370SOL    HW122007  14.317   2.197   0.570
73370SOL    HW222008  14.351   2.071   0.646
73371SOL     OW22009   2.505   0.124  10.897
73371SOL    HW122010   2.493   0.177  10.818
73371SOL    HW222011   2.555   0.179  10.957
73372SOL     OW22012   5.541   4.309   7.737
73372SOL    HW122013   5.614   4.319   7.798
73372SOL    HW222014   5.578   4.262   7.662
73373SOL     OW22015   0.294   7.378   1.615
73373SOL    HW122016   0.313   7.406   1.704
73373SOL    HW222017   0.217   7.321   1.623
73374SOL     OW22018   3.979  12.641   7.319
73374SOL    HW122019   3.893  12.680   7.337
73374SOL    HW222020   3.959  12.557   7.279
73375SOL     OW22021  13.058   2.279   4.265
73375SOL    HW122022  13.087   2.240   4.348
73375SOL    HW222023  12.962   2.272   4.268
73376SOL     OW22024   2.987   5.158   9.072
73376SOL    HW122025   2.956   5.076   9.034
73376SOL    HW222026   2.953   5.157   9.162
73377SOL     OW22027   6.287   3.134   9.415
73377SOL    HW122028   6.339   3.108   9.339
73377SOL    HW222029   6.322   3.081   9.487
73378SOL     OW22030   8.627   4.879  11.821
73378SOL    HW122031   8.596   4.832  11.898
73378SOL    HW222032   8.643   4.810  11.756
73379SOL     OW22033  13.176  11.868   2.910
73379SOL    HW122034  13.184  11.850   3.004
73379SOL    HW222035  13.229  11.800   2.868
73380SOL     OW22036  11.585   5.951   4.715
73380SOL    HW122037  11.671   5.974   4.680
73380SOL    HW222038  11.567   6.017   4.782
73381SOL     OW22039  11.706   9.391   6.871
73381SOL    HW122040  11.710   9.419   6.962
73381SOL    HW222041  11.768   9.448   6.825
73382SOL     OW22042   5.005   6.272  12.904
73382SOL    HW122043   5.028   6.270  12.811
73382SOL    HW222044   4.912   6.294  12.905
73383SOL     OW22045   3.215  14.811   9.680
73383SOL    HW122046   3.260  14.763   9.749
73383SOL    HW222047   3.123  14.812   9.707
73384SOL     OW22048   8.350   9.797   6.776
73384SOL    HW122049   8.276   9.837   6.731
73384SOL    HW222050   8.362   9.713   6.732
73385SOL     OW22051  10.728   0.919  10.992
73385SOL    HW122052  10.813   0.889  10.959
73385SOL    HW222053  10.751   0.974  11.067
73386SOL     OW22054   5.488   3.571   8.780
73386SOL    HW122055   5.418   3.525   8.827
73386SOL    HW222056   5.566   3.518   8.794
73387SOL     OW22057   2.237   4.730   5.161
73387SOL    HW122058   2.230   4.656   5.101
73387SOL    HW222059   2.150   4.737   5.200
73388SOL     OW22060   1.808   2.071   4.985
73388SOL    HW122061   1.816   2.146   4.926
73388SOL    HW222062   1.876   2.010   4.957
73389SOL     OW22063   2.263  10.768  12.278
73389SOL    HW122064   2.229  10.711  12.348
73389SOL    HW222065   2.338  10.812  12.318
73390SOL     OW22066   3.126   5.908   4.062
73390SOL    HW122067   3.123   5.998   4.031
73390SOL    HW222068   3.168   5.859   3.991
73391SOL     OW22069  13.787   0.800   0.812
73391SOL    HW122070  13.764   0.847   0.892
73391SOL    HW222071  13.855   0.853   0.771
73392SOL     OW22072  10.555   2.093   2.707
73392SOL    HW122073  10.558   2.145   2.787
73392SOL    HW222074  10.516   2.009   2.734
73393SOL     OW22075   8.858   9.090  10.490
73393SOL    HW122076   8.952   9.105  10.496
73393SOL    HW222077   8.848   8.995  10.493
73394SOL     OW22078   4.780   5.564   8.629
73394SOL    HW122079   4.791   5.507   8.553
73394SOL    HW222080   4.865   5.562   8.673
73395SOL     OW22081  12.266  10.483   7.304
73395SOL    HW122082  12.324  10.412   7.332
73395SOL    HW222083  12.313  10.525   7.232
73396SOL     OW22084   4.889   6.549   4.119
73396SOL    HW122085   4.933   6.486   4.061
73396SOL    HW222086   4.801   6.514   4.130
73397SOL     OW22087   4.404  11.346  10.410
73397SOL    HW122088   4.347  11.269  10.414
73397SOL    HW222089   4.473  11.329  10.474
73398SOL     OW22090   5.168   4.119   1.618
73398SOL    HW122091   5.214   4.146   1.697
73398SOL    HW222092   5.138   4.030   1.637
73399SOL     OW22093   3.226   5.866   6.369
73399SOL    HW122094   3.276   5.797   6.413
73399SOL    HW222095   3.215   5.934   6.435
73400SOL     OW22096  11.660   9.351   7.613
73400SOL    HW122097  11.749   9.316   7.601
73400SOL    HW222098  11.662   9.395   7.697
73401SOL     OW22099   6.106  12.341  12.760
73401SOL    HW122100   6.097  12.325  12.666
73401SOL    HW222101   6.199  12.361  12.772
73402SOL     OW22102  14.671   9.148   0.366
73402SOL    HW122103  14.742   9.096   0.403
73402SOL    HW222104  14.704   9.176   0.280
73403SOL     OW22105   1.298   6.610   5.124
73403SOL    HW122106   1.343   6.525   5.128
73403SOL    HW222107   1.231   6.604   5.191
73404SOL     OW22108   9.986   0.483  12.600
73404SOL    HW122109  10.004   0.555  12.540
73404SOL    HW222110   9.993   0.522  12.687
73405SOL     OW22111  10.641   3.704   2.245
73405SOL    HW122112  10.710   3.688   2.310
73405SOL    HW222113  10.663   3.790   2.208
73406SOL     OW22114  10.882   4.968  12.690
73406SOL    HW122115  10.887   5.005  12.778
73406SOL    HW222116  10.966   4.992  12.650
73407SOL     OW22117   8.876  13.487   7.013
73407SOL    HW122118   8.937  13.496   6.939
73407SOL    HW222119   8.860  13.578   7.040
73408SOL     OW22120   0.106   2.174  14.216
73408SOL    HW122121   0.039   2.226  14.170
73408SOL    HW222122   0.057   2.124  14.281
73409SOL     OW22123   9.379   1.453  13.147
73409SOL    HW122124   9.427   1.385  13.100
73409SOL    HW222125   9.416   1.535  13.115
73410SOL     OW22126  13.823   2.637   6.150
73410SOL    HW122127  13.749   2.698   6.146
73410SOL    HW222128  13.840   2.615   6.058
73411SOL     OW22129   3.958   9.139   6.316
73411SOL    HW122130   3.999   9.080   6.380
73411SOL    HW222131   3.914   9.081   6.254
73412SOL     OW22132  12.806  11.920   8.245
73412SOL    HW122133  12.895  11.955   8.245
73412SOL    HW222134  12.758  11.979   8.304
73413SOL     OW22135  14.800   3.975  11.835
73413SOL    HW122136  14.715   3.933  11.848
73413SOL    HW222137  14.807   4.038  11.906
73414SOL     OW22138   0.405   0.692   9.082
73414SOL    HW122139   0.430   0.641   9.159
73414SOL    HW222140   0.483   0.692   9.026
73415SOL     OW22141   8.754   5.642  11.976
73415SOL    HW122142   8.737   5.725  12.020
73415SOL    HW222143   8.720   5.653  11.888
73416SOL     OW22144   5.317  10.995   1.045
73416SOL    HW122145   5.321  11.083   1.008
73416SOL    HW222146   5.396  10.987   1.098
73417SOL     OW22147   6.544   7.867   6.459
73417SOL    HW122148   6.611   7.870   6.528
73417SOL    HW222149   6.589   7.830   6.383
73418SOL     OW22150   2.279   5.540  11.586
73418SOL    HW122151   2.363   5.501  11.611
73418SOL    HW222152   2.214   5.478  11.619
73419SOL     OW22153   5.480   2.237   3.686
73419SOL    HW122154   5.554   2.180   3.666
73419SOL    HW222155   5.405   2.178   3.694
73420SOL     OW22156   5.085   0.327   6.596
73420SOL    HW122157   5.041   0.299   6.676
73420SOL    HW222158   5.160   0.268   6.587
73421SOL     OW22159   6.579   2.437   0.374
73421SOL    HW122160   6.647   2.468   0.435
73421SOL    HW222161   6.628   2.409   0.296
73422SOL     OW22162   6.920   2.104  14.609
73422SOL    HW122163   6.826   2.099  14.628
73422SOL    HW222164   6.945   2.013  14.592
73423SOL     OW22165   4.582   1.740   7.620
73423SOL    HW122166   4.487   1.730   7.611
73423SOL    HW222167   4.594   1.825   7.661
73424SOL     OW22168   5.369   7.037   5.058
73424SOL    HW122169   5.339   6.946   5.047
73424SOL    HW222170   5.376   7.048   5.153
73425SOL     OW22171   8.635  12.437   4.548
73425SOL    HW122172   8.686  12.495   4.492
73425SOL    HW222173   8.649  12.469   4.636
73426SOL     OW22174   2.252   8.843   8.208
73426SOL    HW122175   2.197   8.888   8.272
73426SOL    HW222176   2.257   8.905   8.134
73427SOL     OW22177   5.385   6.087   7.780
73427SOL    HW122178   5.455   6.151   7.771
73427SOL    HW222179   5.318   6.116   7.718
73428SOL     OW22180  11.742  12.412   7.989
73428SOL    HW122181  11.798  12.439   8.062
73428SOL    HW222182  11.735  12.490   7.934
73429SOL     OW22183   9.560  10.366   5.397
73429SOL    HW122184   9.493  10.303   5.423
73429SOL    HW222185   9.530  10.449   5.434
73430SOL     OW22186  12.003   7.357  11.481
73430SOL    HW122187  11.986   7.267  11.453
73430SOL    HW222188  11.919   7.401  11.472
73431SOL     OW22189   7.091   6.881   4.836
73431SOL    HW122190   7.143   6.801   4.845
73431SOL    HW222191   7.070   6.907   4.926
73432SOL     OW22192   0.407   9.762   6.833
73432SOL    HW122193   0.314   9.761   6.809
73432SOL    HW222194   0.448   9.821   6.769
73433SOL     OW22195   4.808   0.579   5.287
73433SOL    HW122196   4.809   0.670   5.316
73433SOL    HW222197   4.752   0.579   5.210
73434SOL     OW22198   9.011   3.055   7.362
73434SOL    HW122199   9.079   3.017   7.418
73434SOL    HW222200   8.976   2.980   7.313
73435SOL     OW22201   8.637  11.512   3.183
73435SOL    HW122202   8.660  11.557   3.264
73435SOL    HW222203   8.646  11.579   3.115
73436SOL     OW22204  12.155   1.100   5.860
73436SOL    HW122205  12.091   1.167   5.885
73436SOL    HW222206  12.214   1.095   5.934
73437SOL     OW22207   1.747  12.057   7.548
73437SOL    HW122208   1.686  12.104   7.490
73437SOL    HW222209   1.811  12.123   7.573
73438SOL     OW22210  12.709   4.044   2.457
73438SOL    HW122211  12.728   4.043   2.551
73438SOL    HW222212  12.622   4.006   2.449
73439SOL     OW22213  11.926   6.521  11.874
73439SOL    HW122214  11.991   6.582  11.910
73439SOL    HW222215  11.973   6.437  11.870
73440SOL     OW22216   7.017   2.632   0.313
73440SOL    HW122217   7.111   2.619   0.303
73440SOL    HW222218   6.978   2.567   0.254
73441SOL     OW22219  13.774   1.229   8.096
73441SOL    HW122220  13.699   1.228   8.037
73441SOL    HW222221  13.792   1.137   8.113
73442SOL     OW22222   8.870   4.275   2.764
73442SOL    HW122223   8.782   4.239   2.768
73442SOL    HW222224   8.859   4.369   2.780
73443SOL     OW22225   2.597   0.974   6.075
73443SOL    HW122226   2.652   0.905   6.038
73443SOL    HW222227   2.571   1.027   6.000
73444SOL     OW22228   9.863   9.957  12.524
73444SOL    HW122229   9.921   9.972  12.450
73444SOL    HW222230   9.834  10.044  12.551
73445SOL     OW22231   3.366  12.237  13.709
73445SOL    HW122232   3.436  12.289  13.669
73445SOL    HW222233   3.396  12.147  13.702
73446SOL     OW22234   9.368   7.761   6.185
73446SOL    HW122235   9.275   7.739   6.197
73446SOL    HW222236   9.413   7.718   6.257
73447SOL     OW22237   2.655   8.449  11.326
73447SOL    HW122238   2.740   8.405  11.331
73447SOL    HW222239   2.647   8.496  11.408
73448SOL     OW22240   0.966  10.142   5.458
73448SOL    HW122241   1.002  10.217   5.411
73448SOL    HW222242   0.978  10.163   5.550
73449SOL     OW22243   8.376   7.395   2.746
73449SOL    HW122244   8.375   7.315   2.693
73449SOL    HW222245   8.461   7.394   2.789
73450SOL     OW22246   7.493   2.787   0.503
73450SOL    HW122247   7.399   2.776   0.517
73450SOL    HW222248   7.502   2.812   0.411
73451SOL     OW22249  10.152   2.996  11.197
73451SOL    HW122250  10.242   2.982  11.228
73451SOL    HW222251  10.102   2.926  11.239
73452SOL     OW22252   3.482  10.912   6.344
73452SOL    HW122253   3.525  10.827   6.348
73452SOL    HW222254   3.392  10.892   6.318
73453SOL     OW22255   1.220   3.107   1.862
73453SOL    HW122256   1.209   3.184   1.917
73453SOL    HW222257   1.156   3.117   1.792
73454SOL     OW22258   0.269   9.665  14.593
73454SOL    HW122259   0.201   9.693  14.656
73454SOL    HW222260   0.315   9.594  14.638
73455SOL     OW22261   0.671  14.234  13.067
73455SOL    HW122262   0.649  14.167  13.003
73455SOL    HW222263   0.670  14.188  13.151
73456SOL     OW22264  14.294   3.550  12.240
73456SOL    HW122265  14.349   3.478  12.209
73456SOL    HW222266  14.220   3.507  12.282
73457SOL     OW22267   3.891  10.987   4.778
73457SOL    HW122268   3.921  10.960   4.691
73457SOL    HW222269   3.795  10.978   4.773
73458SOL     OW22270   5.580   0.664   7.095
73458SOL    HW122271   5.597   0.636   7.005
73458SOL    HW222272   5.552   0.755   7.087
73459SOL     OW22273   1.293  14.092   3.442
73459SOL    HW122274   1.308  14.037   3.519
73459SOL    HW222275   1.342  14.173   3.460
73460SOL     OW22276   4.952  10.540   8.412
73460SOL    HW122277   4.946  10.445   8.421
73460SOL    HW222278   4.863  10.572   8.432
73461SOL     OW22279  12.546  11.769   2.122
73461SOL    HW122280  12.497  11.850   2.114
73461SOL    HW222281  12.580  11.753   2.033
73462SOL     OW22282  14.856   2.953   6.171
73462SOL    HW122283   0.060   2.913   6.162
73462SOL    HW222284  14.794   2.883   6.149
73463SOL     OW22285  14.656  11.063  13.303
73463SOL    HW122286  14.613  10.979  13.317
73463SOL    HW222287  14.599  11.127  13.347
73464SOL     OW22288  14.584  11.178   4.195
73464SOL    HW122289  14.489  11.181   4.202
73464SOL    HW222290  14.607  11.259   4.150
73465SOL     OW22291   5.830   4.600  11.563
73465SOL    HW122292   5.773   4.578  11.637
73465SOL    HW222293   5.790   4.679  11.526
73466SOL     OW22294  12.327   5.381   9.280
73466SOL    HW122295  12.357   5.293   9.257
73466SOL    HW222296  12.373   5.402   9.361
73467SOL     OW22297   3.767   0.137  13.895
73467SOL    HW122298   3.841   0.196  13.912
73467SOL    HW222299   3.736   0.163  13.808
73468SOL     OW22300  12.319   1.448   2.783
73468SOL    HW122301  12.310   1.417   2.874
73468SOL    HW222302  12.250   1.513   2.773
73469SOL     OW22303   4.829   8.367   3.268
73469SOL    HW122304   4.763   8.340   3.332
73469SOL    HW222305   4.806   8.458   3.247
73470SOL     OW22306   6.387  12.194   9.812
73470SOL    HW122307   6.418  12.114   9.770
73470SOL    HW222308   6.429  12.265   9.764
73471SOL     OW22309   4.778   3.687   2.863
73471SOL    HW122310   4.798   3.740   2.940
73471SOL    HW222311   4.735   3.749   2.803
73472SOL     OW22312   8.238   0.645   6.172
73472SOL    HW122313   8.256   0.655   6.079
73472SOL    HW222314   8.206   0.556   6.181
73473SOL     OW22315   9.545  11.214   0.928
73473SOL    HW122316   9.597  11.134   0.928
73473SOL    HW222317   9.483  11.203   0.856
73474SOL     OW22318   8.313   5.571  11.353
73474SOL    HW122319   8.337   5.486  11.317
73474SOL    HW222320   8.303   5.628  11.276
73475SOL     OW22321  10.127   1.691  13.268
73475SOL    HW122322  10.181   1.622  13.230
73475SOL    HW222323  10.056   1.644  13.311
73476SOL     OW22324   6.837   0.633  13.634
73476SOL    HW122325   6.770   0.674  13.580
73476SOL    HW222326   6.826   0.539  13.618
73477SOL     OW22327  13.809   7.297  12.299
73477SOL    HW122328  13.891   7.250  12.314
73477SOL    HW222329  13.827   7.352  12.223
73478SOL     OW22330  10.273   5.329   0.119
73478SOL    HW122331  10.201   5.309   0.179
73478SOL    HW222332  10.266   5.423   0.103
73479SOL     OW22333   9.216   1.497  14.063
73479SOL    HW122334   9.279   1.462  14.001
73479SOL    HW222335   9.216   1.434  14.136
73480SOL     OW22336   6.187   7.211  10.340
73480SOL    HW122337   6.281   7.197  10.347
73480SOL    HW222338   6.165   7.267  10.414
73481SOL     OW22339  13.077  11.931   8.266
73481SOL    HW122340  13.135  11.893   8.200
73481SOL    HW222341  13.133  11.992   8.315
73482SOL     OW22342  14.312  10.910   7.903
73482SOL    HW122343  14.366  10.923   7.826
73482SOL    HW222344  14.301  10.998   7.940
73483SOL     OW22345  10.541  14.199   2.034
73483SOL    HW122346  10.475  14.263   2.007
73483SOL    HW222347  10.496  14.142   2.096
73484SOL     OW22348   5.831  13.907   1.693
73484SOL    HW122349   5.905  13.967   1.697
73484SOL    HW222350   5.780  13.926   1.771
73485SOL     OW22351  12.761  14.472  11.036
73485SOL    HW122352  12.681  14.428  11.064
73485SOL    HW222353  12.795  14.512  11.116
73486SOL     OW22354   7.648  13.425   6.102
73486SOL    HW122355   7.622  13.503   6.151
73486SOL    HW222356   7.566  13.388   6.070
73487SOL     OW22357   4.191  11.264   0.411
73487SOL    HW122358   4.263  11.324   0.393
73487SOL    HW222359   4.230  11.176   0.406
73488SOL     OW22360  12.483   2.591  10.482
73488SOL    HW122361  12.554   2.634  10.531
73488SOL    HW222362  12.433   2.663  10.444
73489SOL     OW22363  11.916  10.715   8.331
73489SOL    HW122364  11.924  10.783   8.265
73489SOL    HW222365  12.005  10.702   8.364
73490SOL     OW22366   0.801   2.695   1.229
73490SOL    HW122367   0.715   2.698   1.188
73490SOL    HW222368   0.853   2.638   1.172
73491SOL     OW22369   2.162   2.457   3.691
73491SOL    HW122370   2.144   2.427   3.602
73491SOL    HW222371   2.213   2.537   3.679
73492SOL     OW22372   9.575   4.801   0.990
73492SOL    HW122373   9.591   4.732   1.055
73492SOL    HW222374   9.482   4.793   0.970
73493SOL     OW22375  12.183   7.394   6.627
73493SOL    HW122376  12.133   7.442   6.561
73493SOL    HW222377  12.273   7.427   6.616
73494SOL     OW22378   1.856  10.103  13.569
73494SOL    HW122379   1.827  10.045  13.499
73494SOL    HW222380   1.950  10.112  13.554
73495SOL     OW22381  13.951   6.518   9.921
73495SOL    HW122382  13.924   6.427   9.938
73495SOL    HW222383  13.907   6.569   9.989
73496SOL     OW22384   7.347   9.405  13.714
73496SOL    HW122385   7.351   9.318  13.754
73496SOL    HW222386   7.258   9.411  13.679
73497SOL     OW22387  12.992  12.392   7.907
73497SOL    HW122388  12.961  12.315   7.955
73497SOL    HW222389  12.933  12.399   7.832
73498SOL     OW22390  13.714   2.544   2.013
73498SOL    HW122391  13.627   2.521   2.048
73498SOL    HW222392  13.698   2.620   1.958
73499SOL     OW22393  11.252  11.150   9.047
73499SOL    HW122394  11.278  11.058   9.044
73499SOL    HW222395  11.183  11.154   9.113
73500SOL     OW22396   3.552   4.452  14.879
73500SOL    HW122397   3.567   4.437   0.090
73500SOL    HW222398   3.458   4.467  14.872
73501SOL     OW22399   1.371   9.806  12.687
73501SOL    HW122400   1.312   9.812  12.762
73501SOL    HW222401   1.397   9.713  12.684
73502SOL     OW22402   9.655   3.128  12.130
73502SOL    HW122403   9.566   3.113  12.159
73502SOL    HW222404   9.664   3.223  12.127
73503SOL     OW22405   7.676  12.711   7.402
73503SOL    HW122406   7.660  12.638   7.462
73503SOL    HW222407   7.749  12.759   7.441
73504SOL     OW22408   4.608   3.552   4.719
73504SOL    HW122409   4.542   3.485   4.705
73504SOL    HW222410   4.559   3.629   4.750
73505SOL     OW22411   2.024   7.635   5.546
73505SOL    HW122412   1.989   7.590   5.623
73505SOL    HW222413   2.067   7.712   5.582
73506SOL     OW22414   3.697  12.640  11.785
73506SOL    HW122415   3.696  12.736  11.790
73506SOL    HW222416   3.693  12.611  11.877
73507SOL     OW22417   6.472   0.609   4.896
73507SOL    HW122418   6.452   0.617   4.803
73507SOL    HW222419   6.567   0.623   4.902
73508SOL     OW22420  10.847   1.723   3.359
73508SOL    HW122421  10.795   1.794   3.397
73508SOL    HW222422  10.784   1.669   3.313
73509SOL     OW22423  10.157  10.073   6.104
73509SOL    HW122424  10.220  10.127   6.153
73509SOL    HW222425  10.210  10.032   6.035
73510SOL     OW22426   3.121  13.819   0.824
73510SOL    HW122427   3.207  13.816   0.865
73510SOL    HW222428   3.101  13.913   0.818
73511SOL     OW22429   2.259  11.379   7.892
73511SOL    HW122430   2.306  11.433   7.828
73511SOL    HW222431   2.219  11.442   7.952
73512SOL     OW22432  14.387   3.590   5.284
73512SOL    HW122433  14.409   3.607   5.192
73512SOL    HW222434  14.348   3.503   5.283
73513SOL     OW22435  10.884   0.756   6.102
73513SOL    HW122436  10.829   0.757   6.180
73513SOL    HW222437  10.964   0.711   6.129
73514SOL     OW22438  14.637   8.415   7.913
73514SOL    HW122439  14.720   8.369   7.919
73514SOL    HW222440  14.617   8.417   7.819
73515SOL     OW22441   4.283   8.864   5.460
73515SOL    HW122442   4.278   8.851   5.366
73515SOL    HW222443   4.375   8.884   5.476
73516SOL     OW22444   1.218  14.702   3.872
73516SOL    HW122445   1.154  14.654   3.820
73516SOL    HW222446   1.182  14.702   3.960
73517SOL     OW22447  14.248   9.746   0.182
73517SOL    HW122448  14.283   9.714   0.099
73517SOL    HW222449  14.204   9.828   0.159
73518SOL     OW22450   2.762   0.600  12.760
73518SOL    HW122451   2.820   0.674  12.741
73518SOL    HW222452   2.797   0.528  12.708
73519SOL     OW22453  12.010  13.301  12.709
73519SOL    HW122454  12.052  13.256  12.636
73519SOL    HW222455  11.943  13.356  12.667
73520SOL     OW22456   5.800  14.231  11.405
73520SOL    HW122457   5.815  14.315  11.448
73520SOL    HW222458   5.888  14.197  11.387
73521SOL     OW22459   4.942   9.069   8.799
73521SOL    HW122460   4.877   9.131   8.767
73521SOL    HW222461   4.947   9.086   8.893
73522SOL     OW22462  12.028  14.222  14.684
73522SOL    HW122463  12.017  14.314  14.660
73522SOL    HW222464  11.962  14.206  14.752
73523SOL     OW22465   0.853   6.202   2.918
73523SOL    HW122466   0.931   6.164   2.878
73523SOL    HW222467   0.780   6.151   2.884
73524SOL     OW22468   3.438  11.852   5.234
73524SOL    HW122469   3.355  11.807   5.246
73524SOL    HW222470   3.425  11.937   5.277
73525SOL     OW22471   1.434  14.546  11.448
73525SOL    HW122472   1.386  14.628  11.433
73525SOL    HW222473   1.513  14.573  11.495
73526SOL     OW22474   1.605   8.889   8.345
73526SOL    HW122475   1.516   8.902   8.376
73526SOL    HW222476   1.604   8.804   8.302
73527SOL     OW22477   3.113   6.037   7.296
73527SOL    HW122478   3.093   6.131   7.302
73527SOL    HW222479   3.166   6.018   7.373
73528SOL     OW22480   4.471  13.933  12.740
73528SOL    HW122481   4.460  13.979  12.657
73528SOL    HW222482   4.389  13.949  12.787
73529SOL     OW22483   9.925   7.408   5.390
73529SOL    HW122484   9.965   7.421   5.304
73529SOL    HW222485   9.960   7.324   5.421
73530SOL     OW22486  11.417  13.725  13.329
73530SOL    HW122487  11.365  13.743  13.408
73530SOL    HW222488  11.498  13.686  13.362
73531SOL     OW22489   3.260  13.129   1.620
73531SOL    HW122490   3.282  13.080   1.699
73531SOL    HW222491   3.169  13.106   1.601
73532SOL     OW22492   5.515  10.797   7.452
73532SOL    HW122493   5.537  10.782   7.361
73532SOL    HW222494   5.569  10.871   7.478
73533SOL     OW22495   4.436   2.990  14.089
73533SOL    HW122496   4.377   2.986  14.164
73533SOL    HW222497   4.378   2.980  14.013
73534SOL     OW22498   9.205   2.129   5.144
73534SOL    HW122499   9.287   2.168   5.116
73534SOL    HW222500   9.231   2.059   5.204
73535SOL     OW22501  10.615   3.743   5.420
73535SOL    HW122502  10.540   3.688   5.398
73535SOL    HW222503  10.580   3.811   5.478
73536SOL     OW22504   9.269  12.597   0.499
73536SOL    HW122505   9.340  12.659   0.518
73536SOL    HW222506   9.312  12.523   0.456
73537SOL     OW22507  11.558  11.695   9.208
73537SOL    HW122508  11.606  11.688   9.290
73537SOL    HW222509  11.527  11.786   9.206
73538SOL     OW22510  10.323   4.680   3.036
73538SOL    HW122511  10.324   4.707   3.128
73538SOL    HW222512  10.322   4.762   2.987
73539SOL     OW22513   9.182   8.919   4.849
73539SOL    HW122514   9.156   9.000   4.892
73539SOL    HW222515   9.277   8.913   4.861
73540SOL     OW22516   5.712   2.148   0.278
73540SOL    HW122517   5.766   2.093   0.221
73540SOL    HW222518   5.686   2.089   0.349
73541SOL     OW22519   0.060  12.071   4.401
73541SOL    HW122520   0.103  12.000   4.355
73541SOL    HW222521   0.024  12.127   4.332
73542SOL     OW22522  10.260  13.118   7.330
73542SOL    HW122523  10.284  13.026   7.337
73542SOL    HW222524  10.342  13.166   7.340
73543SOL     OW22525  14.795   9.225   5.272
73543SOL    HW122526  14.816   9.133   5.256
73543SOL    HW222527  14.720   9.222   5.332
73544SOL     OW22528   3.602   6.262   5.939
73544SOL    HW122529   3.652   6.203   5.883
73544SOL    HW222530   3.547   6.312   5.878
73545SOL     OW22531   5.637   2.866   9.874
73545SOL    HW122532   5.575   2.798   9.901
73545SOL    HW222533   5.723   2.828   9.890
73546SOL     OW22534   6.589  13.334   6.549
73546SOL    HW122535   6.521  13.398   6.529
73546SOL    HW222536   6.545  13.265   6.598
73547SOL     OW22537   0.647  11.964  10.609
73547SOL    HW122538   0.616  12.053  10.624
73547SOL    HW222539   0.709  11.973  10.536
73548SOL     OW22540   9.371  14.682  11.450
73548SOL    HW122541   9.425  14.703  11.526
73548SOL    HW222542   9.288  14.725  11.466
73549SOL     OW22543  14.552   1.201   7.942
73549SOL    HW122544  14.534   1.247   7.860
73549SOL    HW222545  14.475   1.220   7.997
73550SOL     OW22546   8.514   2.238  12.434
73550SOL    HW122547   8.585   2.184  12.467
73550SOL    HW222548   8.548   2.327  12.434
73551SOL     OW22549   2.008  10.942  12.243
73551SOL    HW122550   2.068  10.868  12.254
73551SOL    HW222551   1.937  10.924  12.305
73552SOL     OW22552   1.822   9.099  10.520
73552SOL    HW122553   1.753   9.033  10.524
73552SOL    HW222554   1.896   9.054  10.479
73553SOL     OW22555  11.798   5.131   4.764
73553SOL    HW122556  11.891   5.112   4.777
73553SOL    HW222557  11.775   5.085   4.683
73554SOL     OW22558   8.926   0.870   5.262
73554SOL    HW122559   8.838   0.833   5.256
73554SOL    HW222560   8.973   0.812   5.322
73555SOL     OW22561  13.492   2.652   3.343
73555SOL    HW122562  13.451   2.578   3.299
73555SOL    HW222563  13.468   2.728   3.289
73556SOL     OW22564   5.980   2.345  14.441
73556SOL    HW122565   5.889   2.341  14.411
73556SOL    HW222566   5.981   2.414  14.508
73557SOL     OW22567   5.607  12.252   8.841
73557SOL    HW122568   5.518  12.277   8.817
73557SOL    HW222569   5.649  12.335   8.864
73558SOL     OW22570   8.424   9.796   4.096
73558SOL    HW122571   8.428   9.839   4.182
73558SOL    HW222572   8.466   9.857   4.036
73559SOL     OW22573   3.299   1.950   9.544
73559SOL    HW122574   3.283   1.931   9.452
73559SOL    HW222575   3.356   2.026   9.544
73560SOL     OW22576   0.060   3.786  13.934
73560SOL    HW122577  14.873   3.721  13.922
73560SOL    HW222578   0.114   3.752  14.005
73561SOL     OW22579   6.176   8.972   3.788
73561SOL    HW122580   6.196   9.038   3.854
73561SOL    HW222581   6.235   8.899   3.808
73562SOL     OW22582  11.920   4.348   5.136
73562SOL    HW122583  11.878   4.347   5.222
73562SOL    HW222584  11.860   4.399   5.081
73563SOL     OW22585  13.336  13.569  13.383
73563SOL    HW122586  13.422  13.611  13.381
73563SOL    HW222587  13.289  13.606  13.309
73564SOL     OW22588  13.459  11.430  12.340
73564SOL    HW122589  13.472  11.406  12.432
73564SOL    HW222590  13.547  11.448  12.307
73565SOL     OW22591   4.936   6.241  13.262
73565SOL    HW122592   4.930   6.323  13.212
73565SOL    HW222593   4.849   6.231  13.301
73566SOL     OW22594   9.418   7.912  12.151
73566SOL    HW122595   9.356   7.921  12.079
73566SOL    HW222596   9.385   7.837  12.202
73567SOL     OW22597   5.314   6.198  12.113
73567SOL    HW122598   5.369   6.254  12.058
73567SOL    HW222599   5.262   6.259  12.166
73568SOL     OW22600  12.526  14.186   5.719
73568SOL    HW122601  12.464  14.257   5.734
73568SOL    HW222602  12.601  14.208   5.774
73569SOL     OW22603   3.961   3.452   0.214
73569SOL    HW122604   3.872   3.487   0.207
73569SOL    HW222605   3.953   3.374   0.269
73570SOL     OW22606  13.628   8.856  14.158
73570SOL    HW122607  13.596   8.800  14.087
73570SOL    HW222608  13.607   8.808  14.238
73571SOL     OW22609   0.205   5.128   4.808
73571SOL    HW122610   0.151   5.095   4.879
73571SOL    HW222611   0.181   5.075   4.732
73572SOL     OW22612   6.404  13.891   7.839
73572SOL    HW122613   6.389  13.874   7.932
73572SOL    HW222614   6.319  13.920   7.806
73573SOL     OW22615   4.599  11.665   8.679
73573SOL    HW122616   4.655  11.701   8.747
73573SOL    HW222617   4.532  11.614   8.726
73574SOL     OW22618  11.201   0.525   9.213
73574SOL    HW122619  11.239   0.504   9.298
73574SOL    HW222620  11.147   0.603   9.229
73575SOL     OW22621   9.429   4.276   1.783
73575SOL    HW122622   9.452   4.254   1.692
73575SOL    HW222623   9.423   4.191   1.827
73576SOL     OW22624   9.284  14.697   4.187
73576SOL    HW122625   9.279  14.696   4.283
73576SOL    HW222626   9.245  14.614   4.160
73577SOL     OW22627   7.850  13.862   7.418
73577SOL    HW122628   7.759  13.832   7.423
73577SOL    HW222629   7.866  13.903   7.503
73578SOL     OW22630   1.098  12.921  11.366
73578SOL    HW122631   1.062  13.003  11.333
73578SOL    HW222632   1.180  12.909  11.319
73579SOL     OW22633  14.693   0.015   3.674
73579SOL    HW122634  14.630   0.078   3.708
73579SOL    HW222635  14.778   0.060   3.679
73580SOL     OW22636  10.411   3.549   7.939
73580SOL    HW122637  10.414   3.644   7.947
73580SOL    HW222638  10.329   3.531   7.892
73581SOL     OW22639  14.607   0.156   9.403
73581SOL    HW122640  14.656   0.238   9.406
73581SOL    HW222641  14.675   0.088   9.408
73582SOL     OW22642   5.882  12.090  11.619
73582SOL    HW122643   5.927  12.007  11.605
73582SOL    HW222644   5.924  12.151  11.559
73583SOL     OW22645   0.891   6.173   7.190
73583SOL    HW122646   0.862   6.128   7.269
73583SOL    HW222647   0.891   6.105   7.122
73584SOL     OW22648  10.241   1.479   3.446
73584SOL    HW122649  10.153   1.516   3.457
73584SOL    HW222650  10.225   1.393   3.406
73585SOL     OW22651   6.498   8.638   0.228
73585SOL    HW122652   6.404   8.631   0.249
73585SOL    HW222653   6.501   8.681   0.143
73586SOL     OW22654  11.154   6.553   8.502
73586SOL    HW122655  11.199   6.605   8.436
73586SOL    HW222656  11.124   6.617   8.566
73587SOL     OW22657  10.860  10.174  11.904
73587SOL    HW122658  10.917  10.097  11.911
73587SOL    HW222659  10.905  10.232  11.843
73588SOL     OW22660  10.263   3.066   3.918
73588SOL    HW122661  10.357   3.081   3.914
73588SOL    HW222662  10.229   3.140   3.968
73589SOL     OW22663   8.017   7.921  14.695
73589SOL    HW122664   8.042   7.864  14.768
73589SOL    HW222665   7.994   7.861  14.624
73590SOL     OW22666  13.467   9.690   9.643
73590SOL    HW122667  13.398   9.704   9.708
73590SOL    HW222668  13.514   9.773   9.640
73591SOL     OW22669   3.858   0.002  12.103
73591SOL    HW122670   3.824   0.050  12.028
73591SOL    HW222671   3.945  14.856  12.076
73592SOL     OW22672  14.785  14.731   3.450
73592SOL    HW122673  14.735  14.779   3.516
73592SOL    HW222674  14.722  14.672   3.410
73593SOL     OW22675   9.273   4.468   9.577
73593SOL    HW122676   9.201   4.442   9.521
73593SOL    HW222677   9.247   4.553   9.612
73594SOL     OW22678  11.105   6.525  12.053
73594SOL    HW122679  11.038   6.588  12.025
73594SOL    HW222680  11.111   6.463  11.980
73595SOL     OW22681   0.531   3.477   5.424
73595SOL    HW122682   0.547   3.449   5.514
73595SOL    HW222683   0.598   3.545   5.408
73596SOL     OW22684   7.585   7.366   0.460
73596SOL    HW122685   7.593   7.372   0.555
73596SOL    HW222686   7.504   7.317   0.446
73597SOL     OW22687  10.706  14.208  11.030
73597SOL    HW122688  10.778  14.245  10.980
73597SOL    HW222689  10.669  14.281  11.079
73598SOL     OW22690  14.279  10.387   9.943
73598SOL    HW122691  14.332  10.464   9.925
73598SOL    HW222692  14.341  10.315   9.951
73599SOL     OW22693  10.716  11.058   2.869
73599SOL    HW122694  10.678  10.972   2.889
73599SOL    HW222695  10.645  11.107   2.829
73600SOL     OW22696   0.473   1.588  11.833
73600SOL    HW122697   0.503   1.613  11.920
73600SOL    HW222698   0.500   1.497  11.823
73601SOL     OW22699  12.424   5.382   9.547
73601SOL    HW122700  12.494   5.436   9.583
73601SOL    HW222701  12.358   5.379   9.616
73602SOL     OW22702  14.631   5.026  14.404
73602SOL    HW122703  14.591   5.073  14.477
73602SOL    HW222704  14.666   4.946  14.443
73603SOL     OW22705   4.518   4.197  14.524
73603SOL    HW122706   4.533   4.113  14.481
73603SOL    HW222707   4.529   4.178  14.617
73604SOL     OW22708   5.867  10.002   9.919
73604SOL    HW122709   5.874   9.963  10.007
73604SOL    HW222710   5.951  10.046   9.907
73605SOL     OW22711   7.540  11.453  10.044
73605SOL    HW122712   7.492  11.415  10.118
73605SOL    HW222713   7.622  11.485  10.082
73606SOL     OW22714  12.376  11.211   9.839
73606SOL    HW122715  12.303  11.149   9.851
73606SOL    HW222716  12.428  11.202   9.918
73607SOL     OW22717   4.115   0.879  13.673
73607SOL    HW122718   4.121   0.973  13.652
73607SOL    HW222719   4.204   0.847  13.659
73608SOL     OW22720   8.910  12.711  12.083
73608SOL    HW122721   8.935  12.765  12.158
73608SOL    HW222722   8.971  12.736  12.014
73609SOL     OW22723   5.020   2.583  11.326
73609SOL    HW122724   4.961   2.648  11.288
73609SOL    HW222725   4.963   2.514  11.359
73610SOL     OW22726   6.133   9.309   5.115
73610SOL    HW122727   6.100   9.387   5.160
73610SOL    HW222728   6.224   9.331   5.094
73611SOL     OW22729   3.129  12.020  13.587
73611SOL    HW122730   3.148  12.113  13.575
73611SOL    HW222731   3.216  11.979  13.593
73612SOL     OW22732   3.829   4.797  11.983
73612SOL    HW122733   3.774   4.849  11.925
73612SOL    HW222734   3.787   4.711  11.986
73613SOL     OW22735  11.014  10.591  11.901
73613SOL    HW122736  11.024  10.685  11.917
73613SOL    HW222737  11.104  10.557  11.900
73614SOL     OW22738  12.680   3.496   3.938
73614SOL    HW122739  12.671   3.400   3.940
73614SOL    HW222740  12.774   3.511   3.938
73615SOL     OW22741   2.414  13.909  12.536
73615SOL    HW122742   2.444  13.881  12.449
73615SOL    HW222743   2.360  13.836  12.567
73616SOL     OW22744   7.812  10.080   1.337
73616SOL    HW122745   7.739  10.076   1.399
73616SOL    HW222746   7.771  10.107   1.255
73617SOL     OW22747  13.247   3.342   7.637
73617SOL    HW122748  13.155   3.321   7.624
73617SOL    HW222749  13.283   3.353   7.549
73618SOL     OW22750   6.536  11.452   9.239
73618SOL    HW122751   6.445  11.429   9.221
73618SOL    HW222752   6.533  11.545   9.261
73619SOL     OW22753   9.517   2.136  10.697
73619SOL    HW122754   9.571   2.059  10.677
73619SOL    HW222755   9.573   2.210  10.674
73620SOL     OW22756   6.583  12.079  10.711
73620SOL    HW122757   6.572  12.030  10.792
73620SOL    HW222758   6.657  12.137  10.727
73621SOL     OW22759   7.928  10.532   5.288
73621SOL    HW122760   7.951  10.538   5.195
73621SOL    HW222761   7.844  10.487   5.290
73622SOL     OW22762   2.728   4.120  12.550
73622SOL    HW122763   2.802   4.064  12.575
73622SOL    HW222764   2.718   4.106  12.456
73623SOL     OW22765  13.611   3.686  14.643
73623SOL    HW122766  13.588   3.594  14.652
73623SOL    HW222767  13.702   3.691  14.671
73624SOL     OW22768   3.813  12.203   6.599
73624SOL    HW122769   3.763  12.162   6.530
73624SOL    HW222770   3.749  12.251   6.651
73625SOL     OW22771   5.308   7.676   6.077
73625SOL    HW122772   5.289   7.620   6.152
73625SOL    HW222773   5.384   7.728   6.103
73626SOL     OW22774   8.722   4.902   1.935
73626SOL    HW122775   8.681   4.819   1.913
73626SOL    HW222776   8.684   4.965   1.874
73627SOL     OW22777   3.332   8.018   8.600
73627SOL    HW122778   3.352   7.949   8.663
73627SOL    HW222779   3.306   8.093   8.653
73628SOL     OW22780   0.021   3.054   5.720
73628SOL    HW122781  14.873   3.092   5.637
73628SOL    HW222782  14.822   3.029   5.765
73629SOL     OW22783  11.643  14.366   3.727
73629SOL    HW122784  11.604  14.453   3.741
73629SOL    HW222785  11.616  14.315   3.803
73630SOL     OW22786   9.061   2.925   4.022
73630SOL    HW122787   9.047   2.910   4.115
73630SOL    HW222788   9.067   3.020   4.013
73631SOL     OW22789   0.296  10.928   2.593
73631SOL    HW122790   0.285  10.868   2.667
73631SOL    HW222791   0.252  10.884   2.520
73632SOL     OW22792  11.846   4.225   7.098
73632SOL    HW122793  11.887   4.286   7.159
73632SOL    HW222794  11.852   4.269   7.013
73633SOL     OW22795   5.210  13.569  11.604
73633SOL    HW122796   5.152  13.613  11.542
73633SOL    HW222797   5.288  13.624  11.607
73634SOL     OW22798  11.442   3.113   8.689
73634SOL    HW122799  11.456   3.028   8.646
73634SOL    HW222800  11.426   3.091   8.781
73635SOL     OW22801   2.536  11.457   2.793
73635SOL    HW122802   2.566  11.519   2.861
73635SOL    HW222803   2.483  11.510   2.734
73636SOL     OW22804   2.598  12.789   3.945
73636SOL    HW122805   2.549  12.783   4.027
73636SOL    HW222806   2.667  12.852   3.962
73637SOL     OW22807  12.297   0.132   5.628
73637SOL    HW122808  12.253   0.048   5.635
73637SOL    HW222809  12.282   0.175   5.712
73638SOL     OW22810   3.003   2.575   2.475
73638SOL    HW122811   3.072   2.512   2.455
73638SOL    HW222812   2.963   2.595   2.390
73639SOL     OW22813   3.637   0.889   5.764
73639SOL    HW122814   3.704   0.933   5.712
73639SOL    HW222815   3.602   0.821   5.706
73640SOL     OW22816   7.428  12.191   1.091
73640SOL    HW122817   7.393  12.251   1.156
73640SOL    HW222818   7.385  12.108   1.108
73641SOL     OW22819   7.449   0.943  14.878
73641SOL    HW122820   7.371   0.910   0.041
73641SOL    HW222821   7.427   1.033  14.854
73642SOL     OW22822   5.360   7.723  13.862
73642SOL    HW122823   5.374   7.629  13.856
73642SOL    HW222824   5.390   7.747  13.950
73643SOL     OW22825   5.435   9.042   7.479
73643SOL    HW122826   5.524   9.075   7.471
73643SOL    HW222827   5.405   9.031   7.389
73644SOL     OW22828  13.768  12.413   9.698
73644SOL    HW122829  13.810  12.358   9.764
73644SOL    HW222830  13.709  12.354   9.651
73645SOL     OW22831   6.114  14.467  14.162
73645SOL    HW122832   6.034  14.471  14.216
73645SOL    HW222833   6.107  14.542  14.103
73646SOL     OW22834   2.317  12.733  14.401
73646SOL    HW122835   2.383  12.797  14.427
73646SOL    HW222836   2.234  12.777  14.418
73647SOL     OW22837   1.143   6.275   7.532
73647SOL    HW122838   1.202   6.248   7.461
73647SOL    HW222839   1.200   6.283   7.609
73648SOL     OW22840   1.651   4.630  12.379
73648SOL    HW122841   1.727   4.595  12.426
73648SOL    HW222842   1.592   4.660  12.448
73649SOL     OW22843  11.624   2.409   5.810
73649SOL    HW122844  11.698   2.369   5.855
73649SOL    HW222845  11.625   2.370   5.722
73650SOL     OW22846   4.936   8.591  11.047
73650SOL    HW122847   4.926   8.523  10.980
73650SOL    HW222848   4.921   8.546  11.130
73651SOL     OW22849   5.387   1.600  13.651
73651SOL    HW122850   5.338   1.624  13.572
73651SOL    HW222851   5.447   1.673  13.665
73652SOL     OW22852  14.536   2.619  14.203
73652SOL    HW122853  14.458   2.674  14.191
73652SOL    HW222854  14.607   2.682  14.216
73653SOL     OW22855  13.810   6.919   2.131
73653SOL    HW122856  13.846   7.007   2.117
73653SOL    HW222857  13.815   6.907   2.226
73654SOL     OW22858  14.346   3.727  14.443
73654SOL    HW122859  14.264   3.688  14.476
73654SOL    HW222860  14.414   3.666  14.471
73655SOL     OW22861   9.599  14.379  10.242
73655SOL    HW122862   9.629  14.409  10.328
73655SOL    HW222863   9.667  14.318  10.212
73656SOL     OW22864   5.557  10.995   9.620
73656SOL    HW122865   5.515  10.910   9.608
73656SOL    HW222866   5.534  11.044   9.541
73657SOL     OW22867   0.058   1.934   8.928
73657SOL    HW122868   0.038   1.844   8.902
73657SOL    HW222869   0.006   1.949   9.007
73658SOL     OW22870   8.035   1.950   7.172
73658SOL    HW122871   8.002   1.868   7.135
73658SOL    HW222872   8.129   1.947   7.155
73659SOL     OW22873   6.801  10.009  10.563
73659SOL    HW122874   6.869  10.067  10.596
73659SOL    HW222875   6.793   9.941  10.631
73660SOL     OW22876   9.480   3.201   8.155
73660SOL    HW122877   9.428   3.121   8.166
73660SOL    HW222878   9.543   3.199   8.226
73661SOL     OW22879  14.455  14.503   8.427
73661SOL    HW122880  14.434  14.478   8.517
73661SOL    HW222881  14.431  14.427   8.374
73662SOL     OW22882   8.539  14.711   3.467
73662SOL    HW122883   8.623  14.744   3.498
73662SOL    HW222884   8.484  14.709   3.545
73663SOL     OW22885   7.081  12.997   9.386
73663SOL    HW122886   7.064  12.904   9.374
73663SOL    HW222887   7.154  13.016   9.326
73664SOL     OW22888   0.039  11.087  13.369
73664SOL    HW122889  14.838  11.066  13.325
73664SOL    HW222890   0.105  11.077  13.301
73665SOL     OW22891  12.500   0.705   8.966
73665SOL    HW122892  12.471   0.616   8.947
73665SOL    HW222893  12.590   0.696   8.998
73666SOL     OW22894   7.384   7.761  11.055
73666SOL    HW122895   7.358   7.795  10.969
73666SOL    HW222896   7.331   7.682  11.066
73667SOL     OW22897  14.294   4.420   8.168
73667SOL    HW122898  14.272   4.401   8.260
73667SOL    HW222899  14.383   4.388   8.158
73668SOL     OW22900   2.053   6.805   8.753
73668SOL    HW122901   2.130   6.856   8.775
73668SOL    HW222902   2.088   6.721   8.722
73669SOL     OW22903   8.568   1.691   6.516
73669SOL    HW122904   8.514   1.761   6.553
73669SOL    HW222905   8.510   1.645   6.456
73670SOL     OW22906   9.408  13.915  13.571
73670SOL    HW122907   9.381  13.915  13.663
73670SOL    HW222908   9.487  13.860  13.570
73671SOL     OW22909   8.228   5.464   8.820
73671SOL    HW122910   8.289   5.396   8.789
73671SOL    HW222911   8.170   5.480   8.746
73672SOL     OW22912   4.571   1.168   1.293
73672SOL    HW122913   4.573   1.229   1.220
73672SOL    HW222914   4.647   1.192   1.347
73673SOL     OW22915   7.064   8.005   3.565
73673SOL    HW122916   7.006   7.998   3.640
73673SOL    HW222917   7.134   7.941   3.582
73674SOL     OW22918  13.441   4.414  10.143
73674SOL    HW122919  13.483   4.337  10.105
73674SOL    HW222920  13.471   4.414  10.234
73675SOL     OW22921   9.440  10.769  11.701
73675SOL    HW122922   9.370  10.809  11.649
73675SOL    HW222923   9.455  10.830  11.773
73676SOL     OW22924   4.421  12.321   1.826
73676SOL    HW122925   4.499  12.342   1.775
73676SOL    HW222926   4.348  12.347   1.770
73677SOL     OW22927  13.299   2.605  10.950
73677SOL    HW122928  13.297   2.653  11.033
73677SOL    HW222929  13.386   2.563  10.950
73678SOL     OW22930  12.596   8.922   1.444
73678SOL    HW122931  12.678   8.891   1.482
73678SOL    HW222932  12.610   8.916   1.349
73679SOL     OW22933   6.587   2.847  11.243
73679SOL    HW122934   6.651   2.842  11.314
73679SOL    HW222935   6.637   2.820  11.165
73680SOL     OW22936   7.795   3.718   9.773
73680SOL    HW122937   7.727   3.665   9.731
73680SOL    HW222938   7.812   3.789   9.711
73681SOL     OW22939   5.558  14.103  12.395
73681SOL    HW122940   5.526  14.095  12.485
73681SOL    HW222941   5.612  14.182  12.396
73682SOL     OW22942   7.848   4.864  10.630
73682SOL    HW122943   7.926   4.896  10.676
73682SOL    HW222944   7.846   4.770  10.650
73683SOL     OW22945  14.790   3.988  13.796
73683SOL    HW122946  14.736   4.046  13.848
73683SOL    HW222947  14.852   3.950  13.859
73684SOL     OW22948   5.009  12.779   3.065
73684SOL    HW122949   4.943  12.813   3.005
73684SOL    HW222950   4.961  12.755   3.144
73685SOL     OW22951  10.587   7.842   3.302
73685SOL    HW122952  10.530   7.853   3.225
73685SOL    HW222953  10.574   7.751   3.328
73686SOL     OW22954  13.102  11.420   1.549
73686SOL    HW122955  13.028  11.470   1.516
73686SOL    HW222956  13.158  11.486   1.592
73687SOL     OW22957   7.173   9.762   7.033
73687SOL    HW122958   7.160   9.712   7.113
73687SOL    HW222959   7.267   9.777   7.029
73688SOL     OW22960  14.176   5.503   8.852
73688SOL    HW122961  14.266   5.472   8.840
73688SOL    HW222962  14.157   5.485   8.944
73689SOL     OW22963   8.602   9.724   1.717
73689SOL    HW122964   8.629   9.814   1.701
73689SOL    HW222965   8.622   9.708   1.809
73690SOL     OW22966   8.955  11.639   9.298
73690SOL    HW122967   8.882  11.699   9.310
73690SOL    HW222968   8.954  11.618   9.205
73691SOL     OW22969   0.782   7.507   7.803
73691SOL    HW122970   0.793   7.494   7.709
73691SOL    HW222971   0.824   7.431   7.843
73692SOL     OW22972   7.419   6.442   1.363
73692SOL    HW122973   7.452   6.484   1.284
73692SOL    HW222974   7.446   6.500   1.435
73693SOL     OW22975   6.217  13.138  12.563
73693SOL    HW122976   6.291  13.134  12.502
73693SOL    HW222977   6.159  13.204  12.526
73694SOL     OW22978   9.495   2.984   5.134
73694SOL    HW122979   9.430   2.975   5.204
73694SOL    HW222980   9.548   2.905   5.141
73695SOL     OW22981  11.882   4.664   5.655
73695SOL    HW122982  11.807   4.686   5.711
73695SOL    HW222983  11.910   4.748   5.619
73696SOL     OW22984  13.173   2.319  13.418
73696SOL    HW122985  13.207   2.330  13.330
73696SOL    HW222986  13.097   2.261  13.407
73697SOL     OW22987  10.167  12.890   6.715
73697SOL    HW122988  10.112  12.962   6.683
73697SOL    HW222989  10.143  12.816   6.660
73698SOL     OW22990   9.614  11.896  14.627
73698SOL    HW122991   9.545  11.910  14.693
73698SOL    HW222992   9.649  11.810  14.648
73699SOL     OW22993   5.050   0.125  10.006
73699SOL    HW122994   5.099   0.177  10.069
73699SOL    HW222995   5.036   0.183   9.931
73700SOL     OW22996   4.191   2.563   8.904
73700SOL    HW122997   4.278   2.525   8.887
73700SOL    HW222998   4.147   2.496   8.957
73701SOL     OW22999  13.684  13.995  11.165
73701SOL    HW123000  13.701  13.916  11.114
73701SOL    HW223001  13.652  13.963  11.249
73702SOL     OW23002   8.534   7.902  10.756
73702SOL    HW123003   8.592   7.927  10.684
73702SOL    HW223004   8.456   7.869  10.712
73703SOL     OW23005   8.075   1.873   8.700
73703SOL    HW123006   8.124   1.813   8.756
73703SOL    HW223007   8.040   1.817   8.630
73704SOL     OW23008  10.948  12.530  14.230
73704SOL    HW123009  11.010  12.596  14.260
73704SOL    HW223010  10.869  12.546  14.282
73705SOL     OW23011   3.154   5.977   3.670
73705SOL    HW123012   3.189   5.912   3.731
73705SOL    HW223013   3.061   5.956   3.662
73706SOL     OW23014  14.650  12.499   8.618
73706SOL    HW123015  14.683  12.488   8.708
73706SOL    HW223016  14.662  12.412   8.579
73707SOL     OW23017   3.677  14.247  12.102
73707SOL    HW123018   3.670  14.336  12.070
73707SOL    HW223019   3.747  14.250  12.168
73708SOL     OW23020   3.953   7.207  10.375
73708SOL    HW123021   3.887   7.276  10.384
73708SOL    HW223022   3.967   7.175  10.464
73709SOL     OW23023   1.260   0.129   6.091
73709SOL    HW123024   1.184   0.070   6.088
73709SOL    HW223025   1.321   0.087   6.151
73710SOL     OW23026   5.129  14.083   7.067
73710SOL    HW123027   5.068  14.152   7.043
73710SOL    HW223028   5.078  14.002   7.061
73711SOL     OW23029   6.564   8.268  12.922
73711SOL    HW123030   6.502   8.227  12.983
73711SOL    HW223031   6.648   8.262  12.967
73712SOL     OW23032   3.620  11.486   4.029
73712SOL    HW123033   3.592  11.547   4.098
73712SOL    HW223034   3.572  11.514   3.952
73713SOL     OW23035   6.464   4.098   5.785
73713SOL    HW123036   6.378   4.139   5.784
73713SOL    HW223037   6.456   4.025   5.847
73714SOL     OW23038   4.440   5.327  13.801
73714SOL    HW123039   4.350   5.301  13.779
73714SOL    HW223040   4.438   5.339  13.896
73715SOL     OW23041   3.790  13.025  14.519
73715SOL    HW123042   3.779  12.965  14.593
73715SOL    HW223043   3.752  13.108  14.549
73716SOL     OW23044  11.018  12.075  13.353
73716SOL    HW123045  11.062  12.000  13.394
73716SOL    HW223046  11.032  12.062  13.259
73717SOL     OW23047  13.051  11.579   5.625
73717SOL    HW123048  13.076  11.612   5.711
73717SOL    HW223049  12.976  11.633   5.600
73718SOL     OW23050  13.382  13.504  11.463
73718SOL    HW123051  13.376  13.525  11.557
73718SOL    HW223052  13.350  13.583  11.420
73719SOL     OW23053  10.357  13.056  10.557
73719SOL    HW123054  10.352  13.151  10.568
73719SOL    HW223055  10.334  13.021  10.643
73720SOL     OW23056   4.006  14.815   2.996
73720SOL    HW123057   3.974  14.756   2.927
73720SOL    HW223058   4.000  14.764   3.076
73721SOL     OW23059   2.747  14.745   8.046
73721SOL    HW123060   2.792  14.827   8.067
73721SOL    HW223061   2.783  14.682   8.108
73722SOL     OW23062   7.045   7.076   0.032
73722SOL    HW123063   6.957   7.111   0.015
73722SOL    HW223064   7.086   7.070  14.828
73723SOL     OW23065   4.387   1.444   2.130
73723SOL    HW123066   4.410   1.526   2.086
73723SOL    HW223067   4.470   1.397   2.137
73724SOL     OW23068  11.948  14.213   8.936
73724SOL    HW123069  12.019  14.150   8.953
73724SOL    HW223070  11.917  14.238   9.023
73725SOL     OW23071   6.332   7.023   1.349
73725SOL    HW123072   6.406   7.082   1.340
73725SOL    HW223073   6.340   6.963   1.275
73726SOL     OW23074   3.101   9.293   4.022
73726SOL    HW123075   3.175   9.353   4.022
73726SOL    HW223076   3.042   9.328   4.089
73727SOL     OW23077  12.144  12.254   1.516
73727SOL    HW123078  12.080  12.183   1.505
73727SOL    HW223079  12.222  12.211   1.551
73728SOL     OW23080   2.480   5.756  11.022
73728SOL    HW123081   2.572   5.779  11.007
73728SOL    HW223082   2.471   5.756  11.117
73729SOL     OW23083   8.864  10.794  12.817
73729SOL    HW123084   8.794  10.840  12.770
73729SOL    HW223085   8.923  10.864  12.847
73730SOL     OW23086   1.753  13.935   6.236
73730SOL    HW123087   1.771  14.019   6.278
73730SOL    HW223088   1.658  13.928   6.235
73731SOL     OW23089  10.506   0.164  14.059
73731SOL    HW123090  10.435   0.223  14.087
73731SOL    HW223091  10.492   0.085  14.111
73732SOL     OW23092  10.420   0.214  10.919
73732SOL    HW123093  10.368   0.167  10.854
73732SOL    HW223094  10.369   0.204  11.000
73733SOL     OW23095  10.815   3.968  12.826
73733SOL    HW123096  10.766   3.893  12.859
73733SOL    HW223097  10.871   3.995  12.899
73734SOL     OW23098   3.341   7.571   0.735
73734SOL    HW123099   3.387   7.489   0.749
73734SOL    HW223100   3.352   7.619   0.817
73735SOL     OW23101   4.044   6.001   3.250
73735SOL    HW123102   4.068   5.908   3.251
73735SOL    HW223103   4.107   6.041   3.191
73736SOL     OW23104   8.024   9.719   1.090
73736SOL    HW123105   7.984   9.681   1.012
73736SOL    HW223106   7.959   9.707   1.159
73737SOL     OW23107   8.465   3.764   8.912
73737SOL    HW123108   8.495   3.816   8.838
73737SOL    HW223109   8.545   3.744   8.961
73738SOL     OW23110   0.684   6.016   1.063
73738SOL    HW123111   0.705   6.109   1.066
73738SOL    HW223112   0.589   6.012   1.060
73739SOL     OW23113   5.194  10.600   6.654
73739SOL    HW123114   5.253  10.542   6.703
73739SOL    HW223115   5.216  10.582   6.562
73740SOL     OW23116   6.237   4.627   0.451
73740SOL    HW123117   6.176   4.649   0.522
73740SOL    HW223118   6.312   4.684   0.466
73741SOL     OW23119   6.876   1.755  13.830
73741SOL    HW123120   6.923   1.779  13.750
73741SOL    HW223121   6.791   1.798  13.822
73742SOL     OW23122  14.807   1.691   8.885
73742SOL    HW123123  14.741   1.760   8.886
73742SOL    HW223124  14.771   1.622   8.940
73743SOL     OW23125   8.683  13.263  10.967
73743SOL    HW123126   8.612  13.291  10.910
73743SOL    HW223127   8.666  13.308  11.050
73744SOL     OW23128   5.301   8.237   1.983
73744SOL    HW123129   5.382   8.287   1.992
73744SOL    HW223130   5.277   8.246   1.890
73745SOL     OW23131  11.174  13.299   0.500
73745SOL    HW123132  11.171  13.306   0.596
73745SOL    HW223133  11.095  13.250   0.477
73746SOL     OW23134   9.375   2.263  12.429
73746SOL    HW123135   9.346   2.229  12.513
73746SOL    HW223136   9.469   2.282  12.441
73747SOL     OW23137   8.926   2.743   0.558
73747SOL    HW123138   8.956   2.749   0.468
73747SOL    HW223139   8.907   2.650   0.572
73748SOL     OW23140   2.925   6.222   9.885
73748SOL    HW123141   2.846   6.170   9.871
73748SOL    HW223142   2.921   6.250   9.977
73749SOL     OW23143   8.044   4.110   6.244
73749SOL    HW123144   8.107   4.066   6.187
73749SOL    HW223145   8.013   4.184   6.192
73750SOL     OW23146   2.998   4.178   2.942
73750SOL    HW123147   2.949   4.183   2.860
73750SOL    HW223148   2.965   4.099   2.984
73751SOL     OW23149   3.324  10.145   9.429
73751SOL    HW123150   3.382  10.175   9.500
73751SOL    HW223151   3.381  10.139   9.352
73752SOL     OW23152   5.806  12.454   7.097
73752SOL    HW123153   5.735  12.435   7.159
73752SOL    HW223154   5.827  12.546   7.112
73753SOL     OW23155  12.279   6.390  13.575
73753SOL    HW123156  12.277   6.422  13.485
73753SOL    HW223157  12.338   6.450  13.620
73754SOL     OW23158   8.386   9.134   4.544
73754SOL    HW123159   8.361   9.100   4.458
73754SOL    HW223160   8.336   9.081   4.606
73755SOL     OW23161   8.125  10.057  13.244
73755SOL    HW123162   8.122  10.038  13.337
73755SOL    HW223163   8.045  10.108  13.227
73756SOL     OW23164   3.929   8.696   0.801
73756SOL    HW123165   3.891   8.667   0.884
73756SOL    HW223166   3.950   8.615   0.755
73757SOL     OW23167  12.876   2.163   5.769
73757SOL    HW123168  12.789   2.144   5.734
73757SOL    HW223169  12.888   2.257   5.753
73758SOL     OW23170  12.583   2.906   7.494
73758SOL    HW123171  12.534   2.981   7.459
73758SOL    HW223172  12.563   2.834   7.434
73759SOL     OW23173   2.679   0.638   1.133
73759SOL    HW123174   2.685   0.730   1.157
73759SOL    HW223175   2.613   0.635   1.063
73760SOL     OW23176  13.426  10.324   8.669
73760SOL    HW123177  13.486  10.366   8.607
73760SOL    HW223178  13.479  10.311   8.748
73761SOL     OW23179   3.955  10.805   1.025
73761SOL    HW123180   3.982  10.736   1.085
73761SOL    HW223181   3.880  10.847   1.069
73762SOL     OW23182   0.050  10.533   3.504
73762SOL    HW123183  14.845  10.501   3.530
73762SOL    HW223184   0.038  10.562   3.413
73763SOL     OW23185   9.885   2.018   6.928
73763SOL    HW123186   9.816   2.024   6.862
73763SOL    HW223187   9.884   1.926   6.955
73764SOL     OW23188   2.887   0.015  13.556
73764SOL    HW123189   2.796   0.035  13.536
73764SOL    HW223190   2.927   0.100  13.573
73765SOL     OW23191  14.453   2.477   6.593
73765SOL    HW123192  14.520   2.509   6.532
73765SOL    HW223193  14.411   2.404   6.546
73766SOL     OW23194   6.155   9.394  13.122
73766SOL    HW123195   6.069   9.413  13.159
73766SOL    HW223196   6.164   9.455  13.048
73767SOL     OW23197  13.854   0.206  13.081
73767SOL    HW123198  13.917   0.136  13.063
73767SOL    HW223199  13.908   0.282  13.101
73768SOL     OW23200   1.457   1.242   1.036
73768SOL    HW123201   1.410   1.236   1.120
73768SOL    HW223202   1.536   1.290   1.057
73769SOL     OW23203   8.812  13.737   7.178
73769SOL    HW123204   8.840  13.723   7.269
73769SOL    HW223205   8.735  13.793   7.186
73770SOL     OW23206   4.467   1.780   4.448
73770SOL    HW123207   4.413   1.739   4.516
73770SOL    HW223208   4.516   1.848   4.493
73771SOL     OW23209   3.622  14.732  10.280
73771SOL    HW123210   3.687  14.664  10.301
73771SOL    HW223211   3.557  14.687  10.226
73772SOL     OW23212   5.372   8.019  13.905
73772SOL    HW123213   5.399   8.106  13.875
73772SOL    HW223214   5.407   7.959  13.840
73773SOL     OW23215   9.477   9.066  13.193
73773SOL    HW123216   9.386   9.055  13.220
73773SOL    HW223217   9.528   9.047  13.272
73774SOL     OW23218   3.914   1.953  11.272
73774SOL    HW123219   3.870   1.927  11.191
73774SOL    HW223220   3.843   1.983  11.329
73775SOL     OW23221  12.149  12.759   8.482
73775SOL    HW123222  12.166  12.671   8.517
73775SOL    HW223223  12.104  12.804   8.553
73776SOL     OW23224  12.719  11.425   6.902
73776SOL    HW123225  12.726  11.473   6.819
73776SOL    HW223226  12.672  11.345   6.879
73777SOL     OW23227   4.189  13.991  12.628
73777SOL    HW123228   4.194  14.061  12.693
73777SOL    HW223229   4.187  14.036  12.544
73778SOL     OW23230   4.654   6.165   7.256
73778SOL    HW123231   4.702   6.112   7.192
73778SOL    HW223232   4.572   6.118   7.270
73779SOL     OW23233   2.201  13.056  14.859
73779SOL    HW123234   2.270  12.998   0.010
73779SOL    HW223235   2.194  13.035  14.766
73780SOL     OW23236   5.139  11.872   2.341
73780SOL    HW123237   5.145  11.963   2.315
73780SOL    HW223238   5.209  11.860   2.405
73781SOL     OW23239   3.513   9.270   7.447
73781SOL    HW123240   3.506   9.331   7.374
73781SOL    HW223241   3.450   9.201   7.426
73782SOL     OW23242   9.704   8.579  13.774
73782SOL    HW123243   9.715   8.487  13.799
73782SOL    HW223244   9.733   8.629  13.850
73783SOL     OW23245   8.809  11.631   2.657
73783SOL    HW123246   8.723  11.630   2.615
73783SOL    HW223247   8.842  11.542   2.645
73784SOL     OW23248   2.465   9.262  14.038
73784SOL    HW123249   2.530   9.277  13.969
73784SOL    HW223250   2.491   9.321  14.109
73785SOL     OW23251  10.715   6.977   2.492
73785SOL    HW123252  10.624   6.973   2.523
73785SOL    HW223253  10.711   7.033   2.414
73786SOL     OW23254  11.199   6.960   0.166
73786SOL    HW123255  11.231   6.880   0.209
73786SOL    HW223256  11.109   6.970   0.197
73787SOL     OW23257  13.851  13.784   3.424
73787SOL    HW123258  13.918  13.746   3.482
73787SOL    HW223259  13.901  13.818   3.350
73788SOL     OW23260   5.799   5.807   9.703
73788SOL    HW123261   5.796   5.757   9.622
73788SOL    HW223262   5.745   5.884   9.686
73789SOL     OW23263   0.674  13.157  13.126
73789SOL    HW123264   0.682  13.094  13.198
73789SOL    HW223265   0.644  13.105  13.052
73790SOL     OW23266  14.297   3.915  13.580
73790SOL    HW123267  14.219   3.967  13.565
73790SOL    HW223268  14.351   3.929  13.502
73791SOL     OW23269   4.833   4.392   9.717
73791SOL    HW123270   4.838   4.306   9.760
73791SOL    HW223271   4.748   4.392   9.675
73792SOL     OW23272   9.830   7.048   6.832
73792SOL    HW123273   9.740   7.078   6.816
73792SOL    HW223274   9.829   7.016   6.922
73793SOL     OW23275   3.147   0.511   7.745
73793SOL    HW123276   3.072   0.458   7.720
73793SOL    HW223277   3.215   0.490   7.681
73794SOL     OW23278   8.827   3.652   7.700
73794SOL    HW123279   8.777   3.708   7.759
73794SOL    HW223280   8.843   3.707   7.623
73795SOL     OW23281   8.582   3.807  14.474
73795SOL    HW123282   8.570   3.756  14.554
73795SOL    HW223283   8.510   3.779  14.417
73796SOL     OW23284   8.386  12.763  13.701
73796SOL    HW123285   8.307  12.730  13.658
73796SOL    HW223286   8.412  12.839  13.648
73797SOL     OW23287   0.027  10.042   6.395
73797SOL    HW123288   0.050  10.121   6.347
73797SOL    HW223289   0.002  10.073   6.482
73798SOL     OW23290   6.573  13.902   2.971
73798SOL    HW123291   6.618  13.909   2.887
73798SOL    HW223292   6.635  13.937   3.035
73799SOL     OW23293  10.765   8.112  10.975
73799SOL    HW123294  10.674   8.085  10.969
73799SOL    HW223295  10.770   8.192  10.921
73800SOL     OW23296   8.678  14.704   5.536
73800SOL    HW123297   8.752  14.736   5.484
73800SOL    HW223298   8.672  14.611   5.514
73801SOL     OW23299  10.302   2.223   7.119
73801SOL    HW123300  10.387   2.235   7.076
73801SOL    HW223301  10.254   2.303   7.099
73802SOL     OW23302   6.922   2.063   2.257
73802SOL    HW123303   6.971   2.050   2.176
73802SOL    HW223304   6.856   1.994   2.258
73803SOL     OW23305  13.753   3.539   3.640
73803SOL    HW123306  13.831   3.592   3.653
73803SOL    HW223307  13.762   3.467   3.703
73804SOL     OW23308  14.548   0.005   4.468
73804SOL    HW123309  14.526   0.061   4.543
73804SOL    HW223310  14.622  14.835   4.497
73805SOL     OW23311  11.642  12.128   7.727
73805SOL    HW123312  11.707  12.101   7.662
73805SOL    HW223313  11.573  12.170   7.675
73806SOL     OW23314   9.229   2.003   8.552
73806SOL    HW123315   9.166   2.034   8.618
73806SOL    HW223316   9.183   2.013   8.469
73807SOL     OW23317   2.313   9.647   1.287
73807SOL    HW123318   2.289   9.578   1.225
73807SOL    HW223319   2.232   9.668   1.333
73808SOL     OW23320   5.509   6.439   9.871
73808SOL    HW123321   5.496   6.533   9.863
73808SOL    HW223322   5.472   6.416   9.956
73809SOL     OW23323  13.470   2.314   6.793
73809SOL    HW123324  13.431   2.231   6.819
73809SOL    HW223325  13.428   2.379   6.848
73810SOL     OW23326   1.936   1.223   6.718
73810SOL    HW123327   1.901   1.306   6.687
73810SOL    HW223328   1.867   1.159   6.700
73811SOL     OW23329   1.338   4.138   3.218
73811SOL    HW123330   1.338   4.131   3.313
73811SOL    HW223331   1.383   4.221   3.200
73812SOL     OW23332  12.988   1.972   2.283
73812SOL    HW123333  12.983   1.996   2.190
73812SOL    HW223334  12.897   1.963   2.310
73813SOL     OW23335   0.068  10.555   7.163
73813SOL    HW123336   0.062  10.624   7.230
73813SOL    HW223337   0.094  10.601   7.083
73814SOL     OW23338   2.660  14.469   4.732
73814SOL    HW123339   2.600  14.396   4.744
73814SOL    HW223340   2.641  14.501   4.644
73815SOL     OW23341  13.028  11.182   3.471
73815SOL    HW123342  12.998  11.124   3.541
73815SOL    HW223343  13.123  11.178   3.476
73816SOL     OW23344   2.982   5.083   3.326
73816SOL    HW123345   2.985   5.174   3.356
73816SOL    HW223346   3.042   5.036   3.384
73817SOL     OW23347   6.782   8.225   7.317
73817SOL    HW123348   6.750   8.225   7.407
73817SOL    HW223349   6.850   8.293   7.316
73818SOL     OW23350   8.691   6.140   0.281
73818SOL    HW123351   8.599   6.126   0.300
73818SOL    HW223352   8.701   6.236   0.282
73819SOL     OW23353  14.632   6.201   1.408
73819SOL    HW123354  14.712   6.151   1.421
73819SOL    HW223355  14.584   6.193   1.490
73820SOL     OW23356  11.172   6.399  10.146
73820SOL    HW123357  11.081   6.406  10.176
73820SOL    HW223358  11.218   6.357  10.218
73821SOL     OW23359  11.433   3.454   4.734
73821SOL    HW123360  11.509   3.486   4.782
73821SOL    HW223361  11.464   3.378   4.686
73822SOL     OW23362   0.632  14.599   2.273
73822SOL    HW123363   0.693  14.525   2.269
73822SOL    HW223364   0.664  14.652   2.346
73823SOL     OW23365   4.970  12.489   3.072
73823SOL    HW123366   4.885  12.532   3.077
73823SOL    HW223367   5.001  12.486   3.163
73824SOL     OW23368   2.626   3.099  14.035
73824SOL    HW123369   2.610   3.085  14.128
73824SOL    HW223370   2.544   3.137  14.002
73825SOL     OW23371   3.003   2.722  10.499
73825SOL    HW123372   3.068   2.758  10.439
73825SOL    HW223373   3.048   2.716  10.583
73826SOL     OW23374   4.803   5.498   2.843
73826SOL    HW123375   4.741   5.571   2.845
73826SOL    HW223376   4.886   5.538   2.817
73827SOL     OW23377   6.801   8.452   3.201
73827SOL    HW123378   6.884   8.496   3.215
73827SOL    HW223379   6.765   8.438   3.288
73828SOL     OW23380   8.117  10.845  13.545
73828SOL    HW123381   8.189  10.865  13.605
73828SOL    HW223382   8.159  10.826  13.461
73829SOL     OW23383  13.529   6.573  10.975
73829SOL    HW123384  13.542   6.653  11.026
73829SOL    HW223385  13.501   6.604  10.889
73830SOL     OW23386  12.931  11.748   0.405
73830SOL    HW123387  12.862  11.726   0.342
73830SOL    HW223388  12.965  11.832   0.374
73831SOL     OW23389  14.122   6.035  11.810
73831SOL    HW123390  14.039   6.031  11.762
73831SOL    HW223391  14.098   6.017  11.900
73832SOL     OW23392   7.413   5.301   6.080
73832SOL    HW123393   7.507   5.302   6.099
73832SOL    HW223394   7.381   5.219   6.118
73833SOL     OW23395  12.538  12.139  12.113
73833SOL    HW123396  12.519  12.045  12.110
73833SOL    HW223397  12.459  12.181  12.080
73834SOL     OW23398   2.686   9.297   9.985
73834SOL    HW123399   2.670   9.248   9.904
73834SOL    HW223400   2.751   9.244  10.032
73835SOL     OW23401   7.814   3.552   5.679
73835SOL    HW123402   7.749   3.593   5.736
73835SOL    HW223403   7.793   3.585   5.591
73836SOL     OW23404   9.248   0.295   3.072
73836SOL    HW123405   9.211   0.301   3.160
73836SOL    HW223406   9.177   0.322   3.014
73837SOL     OW23407   2.920  14.798   1.831
73837SOL    HW123408   2.873  14.779   1.912
73837SOL    HW223409   3.003  14.751   1.840
73838SOL     OW23410   3.519   8.142   0.892
73838SOL    HW123411   3.454   8.140   0.822
73838SOL    HW223412   3.467   8.138   0.973
73839SOL     OW23413  10.090  14.626   5.470
73839SOL    HW123414  10.136  14.701   5.507
73839SOL    HW223415  10.014  14.615   5.526
73840SOL     OW23416  14.278  14.007   6.947
73840SOL    HW123417  14.309  14.001   7.037
73840SOL    HW223418  14.226  13.927   6.934
73841SOL     OW23419  14.668   8.684  12.242
73841SOL    HW123420  14.763   8.681  12.251
73841SOL    HW223421  14.635   8.690  12.332
73842SOL     OW23422   5.074   2.291   8.145
73842SOL    HW123423   5.000   2.339   8.183
73842SOL    HW223424   5.109   2.350   8.079
73843SOL     OW23425  10.475   4.279  11.915
73843SOL    HW123426  10.566   4.306  11.921
73843SOL    HW223427  10.476   4.200  11.860
73844SOL     OW23428   9.555   1.638   2.725
73844SOL    HW123429   9.610   1.580   2.777
73844SOL    HW223430   9.561   1.604   2.636
73845SOL     OW23431   0.325  10.929   0.949
73845SOL    HW123432   0.289  10.861   1.007
73845SOL    HW223433   0.380  10.982   1.006
73846SOL     OW23434   0.084   4.886  14.874
73846SOL    HW123435   0.033   4.872   0.071
73846SOL    HW223436   0.134   4.966   0.009
73847SOL     OW23437   6.917  14.364   9.052
73847SOL    HW123438   6.933  14.416   9.130
73847SOL    HW223439   7.002  14.363   9.006
73848SOL     OW23440   1.818   6.377   6.787
73848SOL    HW123441   1.853   6.465   6.800
73848SOL    HW223442   1.767   6.360   6.866
73849SOL     OW23443   1.896   4.879  14.842
73849SOL    HW123444   1.936   4.903  14.759
73849SOL    HW223445   1.838   4.953  14.863
73850SOL     OW23446  14.837   3.190   7.947
73850SOL    HW123447  14.770   3.249   7.981
73850SOL    HW223448  14.787   3.116   7.911
73851SOL     OW23449   3.533   4.727   3.431
73851SOL    HW123450   3.571   4.663   3.371
73851SOL    HW223451   3.541   4.811   3.384
73852SOL     OW23452   1.781  11.274  14.300
73852SOL    HW123453   1.771  11.300  14.208
73852SOL    HW223454   1.777  11.356  14.349
73853SOL     OW23455   0.489   0.304   0.250
73853SOL    HW123456   0.460   0.332   0.337
73853SOL    HW223457   0.584   0.313   0.253
73854SOL     OW23458  10.468  11.724   6.714
73854SOL    HW123459  10.383  11.712   6.673
73854SOL    HW223460  10.466  11.667   6.791
73855SOL     OW23461   0.094   4.309  11.473
73855SOL    HW123462   0.119   4.282  11.561
73855SOL    HW223463   0.033   4.242  11.443
73856SOL     OW23464   4.431   7.911   3.002
73856SOL    HW123465   4.430   7.963   2.922
73856SOL    HW223466   4.433   7.820   2.972
73857SOL     OW23467   8.845  11.512  11.787
73857SOL    HW123468   8.830  11.474  11.873
73857SOL    HW223469   8.871  11.603  11.804
73858SOL     OW23470   5.101   6.911  13.776
73858SOL    HW123471   5.159   6.859  13.831
73858SOL    HW223472   5.014   6.899  13.812
73859SOL     OW23473   0.020  12.478  13.731
73859SOL    HW123474   0.013  12.459  13.824
73859SOL    HW223475   0.083  12.549  13.725
73860SOL     OW23476   3.613   7.104   7.527
73860SOL    HW123477   3.558   7.034   7.562
73860SOL    HW223478   3.566   7.185   7.547
73861SOL     OW23479  14.137  10.907   8.191
73861SOL    HW123480  14.102  10.960   8.119
73861SOL    HW223481  14.060  10.878   8.240
73862SOL     OW23482   4.957   3.536   9.008
73862SOL    HW123483   4.925   3.571   8.925
73862SOL    HW223484   4.938   3.442   9.003
73863SOL     OW23485   0.133   1.640  13.566
73863SOL    HW123486   0.200   1.674  13.507
73863SOL    HW223487   0.169   1.558  13.599
73864SOL     OW23488  14.730   9.583   6.886
73864SOL    HW123489  14.741   9.557   6.977
73864SOL    HW223490  14.817   9.611   6.858
73865SOL     OW23491   3.172  11.132   8.357
73865SOL    HW123492   3.264  11.158   8.357
73865SOL    HW223493   3.144  11.145   8.266
73866SOL     OW23494   1.972  10.316   5.032
73866SOL    HW123495   2.054  10.280   5.066
73866SOL    HW223496   1.932  10.244   4.983
73867SOL     OW23497  11.136   6.559   0.238
73867SOL    HW123498  11.180   6.637   0.273
73867SOL    HW223499  11.198   6.522   0.176
73868SOL     OW23500  12.306  12.684   7.368
73868SOL    HW123501  12.226  12.731   7.394
73868SOL    HW223502  12.311  12.610   7.428
73869SOL     OW23503   1.209   4.924  12.698
73869SOL    HW123504   1.158   4.869  12.638
73869SOL    HW223505   1.254   4.986  12.641
73870SOL     OW23506  11.707   4.197   0.050
73870SOL    HW123507  11.761   4.254   0.106
73870SOL    HW223508  11.721   4.230  14.843
73871SOL     OW23509   4.604   3.254  11.609
73871SOL    HW123510   4.650   3.221  11.686
73871SOL    HW223511   4.591   3.177  11.553
73872SOL     OW23512   7.182  14.781  11.435
73872SOL    HW123513   7.217  14.693  11.448
73872SOL    HW223514   7.222  14.811  11.353
73873SOL     OW23515   2.147  13.821   6.857
73873SOL    HW123516   2.236  13.786   6.865
73873SOL    HW223517   2.127  13.814   6.763
73874SOL     OW23518   4.516   2.384  13.061
73874SOL    HW123519   4.438   2.330  13.077
73874SOL    HW223520   4.585   2.341  13.112
73875SOL     OW23521   1.044  10.114   7.486
73875SOL    HW123522   1.129  10.112   7.530
73875SOL    HW223523   1.007  10.027   7.502
73876SOL     OW23524   0.241   7.661  11.622
73876SOL    HW123525   0.217   7.752  11.639
73876SOL    HW223526   0.328   7.652  11.663
73877SOL     OW23527  13.085   1.431   8.406
73877SOL    HW123528  13.133   1.456   8.485
73877SOL    HW223529  12.999   1.403   8.438
73878SOL     OW23530   1.689   1.036  13.265
73878SOL    HW123531   1.671   1.029  13.171
73878SOL    HW223532   1.603   1.026  13.307
73879SOL     OW23533  13.260   8.961   7.016
73879SOL    HW123534  13.312   8.974   7.096
73879SOL    HW223535  13.188   8.904   7.044
73880SOL     OW23536   1.712   0.911  14.535
73880SOL    HW123537   1.715   0.961  14.617
73880SOL    HW223538   1.665   0.831  14.558
73881SOL     OW23539   5.899   3.208  14.732
73881SOL    HW123540   5.810   3.234  14.755
73881SOL    HW223541   5.919   3.258  14.653
73882SOL     OW23542   0.305   9.163   0.921
73882SOL    HW123543   0.278   9.238   0.974
73882SOL    HW223544   0.230   9.145   0.864
73883SOL     OW23545  14.061   9.222  11.017
73883SOL    HW123546  13.995   9.228  11.086
73883SOL    HW223547  14.138   9.266  11.054
73884SOL     OW23548   4.510  10.563   4.303
73884SOL    HW123549   4.483  10.538   4.392
73884SOL    HW223550   4.429  10.590   4.261
73885SOL     OW23551  12.668   6.465   9.718
73885SOL    HW123552  12.639   6.556   9.727
73885SOL    HW223553  12.725   6.450   9.793
73886SOL     OW23554   0.382  14.221   3.033
73886SOL    HW123555   0.421  14.185   3.113
73886SOL    HW223556   0.369  14.145   2.976
73887SOL     OW23557   0.971  12.302  13.206
73887SOL    HW123558   0.956  12.238  13.275
73887SOL    HW223559   1.058  12.283  13.174
73888SOL     OW23560  14.618   5.392   0.225
73888SOL    HW123561  14.665   5.310   0.213
73888SOL    HW223562  14.538   5.383   0.173
73889SOL     OW23563   3.844   3.672   0.483
73889SOL    HW123564   3.801   3.642   0.403
73889SOL    HW223565   3.774   3.710   0.536
73890SOL     OW23566   7.250  11.487  11.991
73890SOL    HW123567   7.163  11.501  11.953
73890SOL    HW223568   7.290  11.419  11.936
73891SOL     OW23569  11.620   3.382  14.543
73891SOL    HW123570  11.670   3.443  14.596
73891SOL    HW223571  11.664   3.298  14.555
73892SOL     OW23572   6.829  10.426   2.110
73892SOL    HW123573   6.773  10.468   2.175
73892SOL    HW223574   6.770  10.367   2.062
73893SOL     OW23575   1.512  10.172   3.055
73893SOL    HW123576   1.594  10.122   3.059
73893SOL    HW223577   1.512  10.223   3.136
73894SOL     OW23578   1.490   3.191  13.899
73894SOL    HW123579   1.503   3.184  13.994
73894SOL    HW223580   1.430   3.264  13.888
73895SOL     OW23581   5.140   0.915  14.146
73895SOL    HW123582   5.215   0.857  14.134
73895SOL    HW223583   5.121   0.910  14.240
73896SOL     OW23584   0.008   3.195   6.384
73896SOL    HW123585  14.850   3.149   6.458
73896SOL    HW223586  14.873   3.139   6.309
73897SOL     OW23587   8.801   0.702   2.223
73897SOL    HW123588   8.767   0.675   2.138
73897SOL    HW223589   8.735   0.764   2.256
73898SOL     OW23590   5.543   2.436   5.970
73898SOL    HW123591   5.535   2.374   6.042
73898SOL    HW223592   5.541   2.382   5.891
73899SOL     OW23593   3.568   7.180  12.006
73899SOL    HW123594   3.584   7.088  11.986
73899SOL    HW223595   3.525   7.178  12.092
73900SOL     OW23596  12.070  13.801   4.343
73900SOL    HW123597  12.055  13.887   4.304
73900SOL    HW223598  11.996  13.788   4.402
73901SOL     OW23599   5.855  10.593  13.552
73901SOL    HW123600   5.916  10.582  13.479
73901SOL    HW223601   5.823  10.683  13.543
73902SOL     OW23602   0.882  10.263   4.718
73902SOL    HW123603   0.913  10.289   4.805
73902SOL    HW223604   0.820  10.332   4.694
73903SOL     OW23605  13.578   5.918   4.958
73903SOL    HW123606  13.537   5.872   5.032
73903SOL    HW223607  13.561   6.010   4.975
73904SOL     OW23608   3.193   3.609   7.815
73904SOL    HW123609   3.279   3.568   7.823
73904SOL    HW223610   3.203   3.673   7.744
73905SOL     OW23611   8.711   6.671   4.914
73905SOL    HW123612   8.700   6.741   4.849
73905SOL    HW223613   8.768   6.708   4.980
73906SOL     OW23614   8.051  11.455   0.769
73906SOL    HW123615   7.971  11.505   0.752
73906SOL    HW223616   8.077  11.422   0.682
73907SOL     OW23617   3.795  11.610  13.276
73907SOL    HW123618   3.785  11.651  13.362
73907SOL    HW223619   3.890  11.609  13.261
73908SOL     OW23620   5.074  13.612   3.018
73908SOL    HW123621   5.149  13.659   3.055
73908SOL    HW223622   5.092  13.520   3.038
73909SOL     OW23623   9.221   8.795   8.604
73909SOL    HW123624   9.291   8.791   8.669
73909SOL    HW223625   9.207   8.704   8.578
73910SOL     OW23626  10.868  11.613   9.191
73910SOL    HW123627  10.948  11.629   9.141
73910SOL    HW223628  10.861  11.517   9.194
73911SOL     OW23629   1.555  12.570  14.493
73911SOL    HW123630   1.467  12.543  14.466
73911SOL    HW223631   1.586  12.498  14.550
73912SOL     OW23632   9.452  13.998   0.259
73912SOL    HW123633   9.542  14.004   0.291
73912SOL    HW223634   9.458  13.940   0.183
73913SOL     OW23635   7.759   8.658   9.602
73913SOL    HW123636   7.803   8.601   9.666
73913SOL    HW223637   7.716   8.724   9.656
73914SOL     OW23638   4.605   0.135   1.842
73914SOL    HW123639   4.578   0.177   1.923
73914SOL    HW223640   4.544   0.168   1.776
73915SOL     OW23641   7.421   7.209   8.448
73915SOL    HW123642   7.388   7.262   8.521
73915SOL    HW223643   7.425   7.269   8.374
73916SOL     OW23644   1.953   0.086  12.654
73916SOL    HW123645   2.036   0.106  12.611
73916SOL    HW223646   1.972   0.009  12.708
73917SOL     OW23647  13.114   2.917   3.687
73917SOL    HW123648  13.149   2.847   3.632
73917SOL    HW223649  13.183   2.983   3.688
73918SOL     OW23650   8.115   8.476   4.570
73918SOL    HW123651   8.040   8.515   4.614
73918SOL    HW223652   8.184   8.542   4.575
73919SOL     OW23653   7.168   3.633   6.531
73919SOL    HW123654   7.214   3.676   6.459
73919SOL    HW223655   7.186   3.688   6.607
73920SOL     OW23656   5.614   9.372  14.208
73920SOL    HW123657   5.566   9.424  14.272
73920SOL    HW223658   5.705   9.400  14.217
73921SOL     OW23659  12.707  11.216   5.834
73921SOL    HW123660  12.617  11.188   5.854
73921SOL    HW223661  12.760  11.178   5.904
73922SOL     OW23662   8.538  10.242   6.831
73922SOL    HW123663   8.443  10.246   6.831
73922SOL    HW223664   8.558  10.153   6.861
73923SOL     OW23665   6.752   9.804   8.188
73923SOL    HW123666   6.832   9.771   8.147
73923SOL    HW223667   6.784   9.864   8.256
73924SOL     OW23668   1.146  14.519   5.504
73924SOL    HW123669   1.182  14.539   5.591
73924SOL    HW223670   1.171  14.594   5.450
73925SOL     OW23671   9.652   5.572   8.888
73925SOL    HW123672   9.585   5.636   8.863
73925SOL    HW223673   9.728   5.594   8.834
73926SOL     OW23674   9.930  11.582   1.419
73926SOL    HW123675   9.926  11.534   1.502
73926SOL    HW223676   9.980  11.524   1.360
73927SOL     OW23677   7.516  11.527   4.796
73927SOL    HW123678   7.441  11.586   4.806
73927SOL    HW223679   7.483  11.442   4.826
73928SOL     OW23680   4.046  11.565  13.817
73928SOL    HW123681   3.989  11.638  13.793
73928SOL    HW223682   3.993  11.511  13.876
73929SOL     OW23683  12.164  13.001   7.025
73929SOL    HW123684  12.176  12.906   7.033
73929SOL    HW223685  12.231  13.038   7.082
73930SOL     OW23686   8.813  12.937   0.651
73930SOL    HW123687   8.865  12.856   0.649
73930SOL    HW223688   8.727  12.911   0.617
73931SOL     OW23689   9.646  12.631  10.037
73931SOL    HW123690   9.688  12.560  10.085
73931SOL    HW223691   9.708  12.653   9.967
73932SOL     OW23692   6.363   7.923   0.005
73932SOL    HW123693   6.357   8.004  14.836
73932SOL    HW223694   6.449   7.928   0.047
73933SOL     OW23695   2.103   7.600   4.716
73933SOL    HW123696   2.114   7.541   4.642
73933SOL    HW223697   2.181   7.656   4.715
73934SOL     OW23698  14.603   1.235   3.304
73934SOL    HW123699  14.640   1.261   3.388
73934SOL    HW223700  14.521   1.191   3.327
73935SOL     OW23701   4.553  11.151   1.905
73935SOL    HW123702   4.631  11.178   1.857
73935SOL    HW223703   4.495  11.227   1.903
73936SOL     OW23704   9.396   7.669   5.582
73936SOL    HW123705   9.453   7.745   5.596
73936SOL    HW223706   9.349   7.659   5.664
73937SOL     OW23707   6.955  11.163  12.001
73937SOL    HW123708   7.012  11.145  11.926
73937SOL    HW223709   7.009  11.144  12.078
73938SOL     OW23710   0.045   5.856   9.233
73938SOL    HW123711   0.086   5.877   9.149
73938SOL    HW223712  14.876   5.776   9.216
73939SOL     OW23713   7.547   4.347   8.764
73939SOL    HW123714   7.639   4.331   8.743
73939SOL    HW223715   7.502   4.268   8.736
73940SOL     OW23716   4.746   6.423   7.974
73940SOL    HW123717   4.798   6.450   8.050
73940SOL    HW223718   4.713   6.336   7.997
73941SOL     OW23719   5.162  10.466   2.127
73941SOL    HW123720   5.175  10.507   2.042
73941SOL    HW223721   5.079  10.420   2.120
73942SOL     OW23722  13.593   0.204   9.355
73942SOL    HW123723  13.567   0.292   9.381
73942SOL    HW223724  13.597   0.207   9.259
73943SOL     OW23725   1.819   2.658   3.620
73943SOL    HW123726   1.887   2.705   3.573
73943SOL    HW223727   1.858   2.638   3.705
73944SOL     OW23728  12.796   5.546  10.446
73944SOL    HW123729  12.880   5.523  10.486
73944SOL    HW223730  12.779   5.476  10.383
73945SOL     OW23731  11.739   3.204  13.185
73945SOL    HW123732  11.722   3.112  13.164
73945SOL    HW223733  11.778   3.240  13.105
73946SOL     OW23734   4.072  12.179   4.139
73946SOL    HW123735   3.992  12.147   4.182
73946SOL    HW223736   4.144  12.140   4.188
73947SOL     OW23737   2.526   0.380   6.409
73947SOL    HW123738   2.437   0.365   6.376
73947SOL    HW223739   2.543   0.473   6.393
73948SOL     OW23740   8.578   9.767  12.401
73948SOL    HW123741   8.534   9.728  12.477
73948SOL    HW223742   8.588   9.695  12.339
73949SOL     OW23743   9.763   4.676   7.416
73949SOL    HW123744   9.722   4.621   7.349
73949SOL    HW223745   9.856   4.659   7.407
73950SOL     OW23746   7.780   8.827   1.917
73950SOL    HW123747   7.848   8.771   1.881
73950SOL    HW223748   7.818   8.864   1.997
73951SOL     OW23749   0.028   6.934   7.379
73951SOL    HW123750  14.816   6.953   7.382
73951SOL    HW223751   0.033   6.839   7.370
73952SOL     OW23752   0.173  14.727   1.987
73952SOL    HW123753   0.264  14.700   1.976
73952SOL    HW223754   0.157  14.790   1.916
73953SOL     OW23755   7.701   7.729   1.099
73953SOL    HW123756   7.677   7.636   1.103
73953SOL    HW223757   7.774   7.738   1.161
73954SOL     OW23758  13.213   1.756   1.284
73954SOL    HW123759  13.244   1.734   1.372
73954SOL    HW223760  13.122   1.725   1.283
73955SOL     OW23761   2.668  11.497   0.947
73955SOL    HW123762   2.655  11.422   1.004
73955SOL    HW223763   2.589  11.550   0.958
73956SOL     OW23764   5.925   4.642  13.776
73956SOL    HW123765   5.829   4.641  13.780
73956SOL    HW223766   5.953   4.604  13.859
73957SOL     OW23767   6.783   0.889   2.211
73957SOL    HW123768   6.868   0.866   2.174
73957SOL    HW223769   6.776   0.835   2.290
73958SOL     OW23770  11.404   3.958  14.776
73958SOL    HW123771  11.490   3.964  14.817
73958SOL    HW223772  11.364   3.881  14.816
73959SOL     OW23773   4.370   2.344  13.532
73959SOL    HW123774   4.334   2.266  13.575
73959SOL    HW223775   4.307   2.363  13.463
73960SOL     OW23776   9.402   4.735  11.276
73960SOL    HW123777   9.421   4.795  11.204
73960SOL    HW223778   9.319   4.695  11.253
73961SOL     OW23779  11.543   0.411   2.878
73961SOL    HW123780  11.609   0.345   2.899
73961SOL    HW223781  11.463   0.380   2.922
73962SOL     OW23782  13.787   6.778  14.821
73962SOL    HW123783  13.724   6.707  14.806
73962SOL    HW223784  13.745   6.834   0.005
73963SOL     OW23785  14.473   7.672   2.427
73963SOL    HW123786  14.434   7.586   2.444
73963SOL    HW223787  14.567   7.658   2.435
73964SOL     OW23788   5.673   3.547  14.740
73964SOL    HW123789   5.661   3.462  14.783
73964SOL    HW223790   5.586   3.588  14.743
73965SOL     OW23791  10.809   6.544   9.442
73965SOL    HW123792  10.850   6.629   9.457
73965SOL    HW223793  10.813   6.500   9.527
73966SOL     OW23794   5.616   4.417  10.635
73966SOL    HW123795   5.689   4.358  10.650
73966SOL    HW223796   5.656   4.502  10.615
73967SOL     OW23797  12.304  14.666  11.013
73967SOL    HW123798  12.282  14.755  10.984
73967SOL    HW223799  12.396  14.655  10.989
73968SOL     OW23800  14.689  10.114  13.724
73968SOL    HW123801  14.688  10.173  13.649
73968SOL    HW223802  14.774  10.130  13.766
73969SOL     OW23803   0.721   0.561  13.167
73969SOL    HW123804   0.646   0.574  13.109
73969SOL    HW223805   0.683   0.548  13.254
73970SOL     OW23806   8.977   7.727   9.604
73970SOL    HW123807   8.957   7.796   9.668
73970SOL    HW223808   9.004   7.775   9.526
73971SOL     OW23809  12.081   7.410   1.386
73971SOL    HW123810  12.139   7.454   1.449
73971SOL    HW223811  12.125   7.421   1.302
73972SOL     OW23812   6.249  14.580  10.386
73972SOL    HW123813   6.233  14.650  10.323
73972SOL    HW223814   6.204  14.504  10.350
73973SOL     OW23815   3.020  12.787   7.055
73973SOL    HW123816   3.090  12.733   7.019
73973SOL    HW223817   3.061  12.871   7.074
73974SOL     OW23818  12.982   0.745  13.872
73974SOL    HW123819  13.050   0.768  13.935
73974SOL    HW223820  13.022   0.762  13.786
73975SOL     OW23821   6.289  12.958   5.508
73975SOL    HW123822   6.307  13.035   5.561
73975SOL    HW223823   6.337  12.973   5.426
73976SOL     OW23824   7.863   8.889  11.453
73976SOL    HW123825   7.792   8.947  11.479
73976SOL    HW223826   7.819   8.815  11.410
73977SOL     OW23827   8.040   6.404  14.514
73977SOL    HW123828   8.094   6.366  14.444
73977SOL    HW223829   8.037   6.336  14.581
73978SOL     OW23830  14.729   3.587  13.880
73978SOL    HW123831  14.742   3.558  13.790
73978SOL    HW223832  14.638   3.618  13.882
73979SOL     OW23833   8.025   7.671  14.276
73979SOL    HW123834   8.104   7.629  14.309
73979SOL    HW223835   8.016   7.638  14.187
73980SOL     OW23836   4.144  10.054   4.198
73980SOL    HW123837   4.083  10.116   4.158
73980SOL    HW223838   4.220  10.107   4.222
73981SOL     OW23839   9.795  10.198   9.784
73981SOL    HW123840   9.726  10.264   9.789
73981SOL    HW223841   9.781  10.143   9.861
73982SOL     OW23842   4.791  11.977  11.977
73982SOL    HW123843   4.754  11.898  12.018
73982SOL    HW223844   4.784  11.961  11.883
73983SOL     OW23845  14.248   1.111   4.687
73983SOL    HW123846  14.210   1.060   4.615
73983SOL    HW223847  14.224   1.201   4.667
73984SOL     OW23848   2.986   5.627   8.801
73984SOL    HW123849   2.894   5.646   8.819
73984SOL    HW223850   2.985   5.560   8.733
73985SOL     OW23851   4.276   7.843   0.303
73985SOL    HW123852   4.205   7.817   0.361
73985SOL    HW223853   4.247   7.926   0.265
73986SOL     OW23854   4.191  11.449  10.732
73986SOL    HW123855   4.173  11.522  10.792
73986SOL    HW223856   4.267  11.405  10.769
73987SOL     OW23857   9.094   0.318  10.093
73987SOL    HW123858   9.050   0.240  10.128
73987SOL    HW223859   9.139   0.356  10.168
73988SOL     OW23860   4.861  10.499   2.060
73988SOL    HW123861   4.801  10.559   2.104
73988SOL    HW223862   4.869  10.534   1.971
73989SOL     OW23863   0.118   9.172   9.921
73989SOL    HW123864   0.083   9.200   9.836
73989SOL    HW223865   0.201   9.219   9.930
73990SOL     OW23866   3.952  10.529   4.409
73990SOL    HW123867   3.941  10.434   4.400
73990SOL    HW223868   3.879  10.567   4.360
73991SOL     OW23869  10.933  10.065   2.540
73991SOL    HW123870  10.866  10.103   2.482
73991SOL    HW223871  10.918   9.971   2.534
73992SOL     OW23872  11.867   7.669  10.692
73992SOL    HW123873  11.909   7.616  10.625
73992SOL    HW223874  11.801   7.611  10.731
73993SOL     OW23875   1.101   9.281   4.276
73993SOL    HW123876   1.194   9.280   4.255
73993SOL    HW223877   1.097   9.317   4.365
73994SOL     OW23878  12.793   3.520   5.548
73994SOL    HW123879  12.739   3.509   5.470
73994SOL    HW223880  12.864   3.457   5.537
73995SOL     OW23881   7.410   9.328   4.273
73995SOL    HW123882   7.456   9.412   4.260
73995SOL    HW223883   7.480   9.264   4.283
73996SOL     OW23884  13.635  13.207   4.985
73996SOL    HW123885  13.601  13.295   5.001
73996SOL    HW223886  13.556  13.153   4.974
73997SOL     OW23887   7.569  13.463   2.704
73997SOL    HW123888   7.512  13.424   2.770
73997SOL    HW223889   7.639  13.503   2.754
73998SOL     OW23890   5.842  10.932  14.756
73998SOL    HW123891   5.900  10.993  14.801
73998SOL    HW223892   5.897  10.856  14.737
73999SOL     OW23893   3.673  11.331   8.929
73999SOL    HW123894   3.715  11.368   8.852
73999SOL    HW223895   3.581  11.320   8.904
74000SOL     OW23896   5.216   5.251   7.711
74000SOL    HW123897   5.195   5.343   7.700
74000SOL    HW223898   5.173   5.226   7.793
74001SOL     OW23899   0.342  14.657  10.562
74001SOL    HW123900   0.402  14.731  10.565
74001SOL    HW223901   0.267  14.689  10.511
74002SOL     OW23902   4.086   2.333   3.633
74002SOL    HW123903   4.130   2.250   3.614
74002SOL    HW223904   3.992   2.313   3.627
74003SOL     OW23905  14.804  14.860  11.311
74003SOL    HW123906  14.808   0.051  11.249
74003SOL    HW223907  14.718  14.869  11.352
74004SOL     OW23908   5.756  10.579   7.507
74004SOL    HW123909   5.812  10.622   7.442
74004SOL    HW223910   5.767  10.631   7.586
74005SOL     OW23911   1.667   7.101  14.689
74005SOL    HW123912   1.740   7.049  14.655
74005SOL    HW223913   1.620   7.041  14.747
74006SOL     OW23914   4.256  14.228   0.922
74006SOL    HW123915   4.213  14.292   0.866
74006SOL    HW223916   4.184  14.176   0.958
74007SOL     OW23917   6.041   6.309   0.908
74007SOL    HW123918   6.058   6.315   0.814
74007SOL    HW223919   6.057   6.217   0.930
74008SOL     OW23920   6.597   3.257  10.518
74008SOL    HW123921   6.553   3.188  10.567
74008SOL    HW223922   6.674   3.214  10.481
74009SOL     OW23923   4.816   4.876   2.730
74009SOL    HW123924   4.841   4.807   2.791
74009SOL    HW223925   4.842   4.843   2.644
74010SOL     OW23926   7.782   4.259   9.106
74010SOL    HW123927   7.874   4.288   9.110
74010SOL    HW223928   7.734   4.335   9.074
74011SOL     OW23929   7.212   3.145  12.264
74011SOL    HW123930   7.272   3.092  12.210
74011SOL    HW223931   7.180   3.084  12.330
74012SOL     OW23932   0.985   1.296  14.291
74012SOL    HW123933   0.911   1.333  14.242
74012SOL    HW223934   0.958   1.300  14.382
74013SOL     OW23935   2.672   3.337   7.151
74013SOL    HW123936   2.726   3.260   7.134
74013SOL    HW223937   2.659   3.377   7.065
74014SOL     OW23938  12.717   2.510   7.447
74014SOL    HW123939  12.626   2.522   7.474
74014SOL    HW223940  12.713   2.442   7.379
74015SOL     OW23941  12.104  14.825   7.416
74015SOL    HW123942  12.096  14.757   7.349
74015SOL    HW223943  12.053   0.016   7.382
74016SOL     OW23944   1.535  14.375  10.076
74016SOL    HW123945   1.602  14.393  10.010
74016SOL    HW223946   1.583  14.344  10.152
74017SOL     OW23947   4.123   0.226  10.462
74017SOL    HW123948   4.193   0.236  10.397
74017SOL    HW223949   4.143   0.291  10.529
74018SOL     OW23950   5.505   9.736   1.327
74018SOL    HW123951   5.476   9.817   1.370
74018SOL    HW223952   5.424   9.689   1.308
74019SOL     OW23953   3.791   3.730   7.245
74019SOL    HW123954   3.700   3.759   7.247
74019SOL    HW223955   3.838   3.800   7.201
74020SOL     OW23956  12.368  12.745   8.301
74020SOL    HW123957  12.313  12.739   8.380
74020SOL    HW223958  12.458  12.745   8.335
74021SOL     OW23959   1.003   6.518   2.737
74021SOL    HW123960   1.051   6.597   2.710
74021SOL    HW223961   1.068   6.464   2.781
74022SOL     OW23962  11.567  11.113   2.243
74022SOL    HW123963  11.622  11.190   2.257
74022SOL    HW223964  11.558  11.075   2.330
74023SOL     OW23965   5.337   1.260  10.520
74023SOL    HW123966   5.303   1.186  10.469
74023SOL    HW223967   5.264   1.322  10.521
74024SOL     OW23968   8.554   3.922   3.554
74024SOL    HW123969   8.606   3.969   3.619
74024SOL    HW223970   8.612   3.913   3.479
74025SOL     OW23971   2.939   1.589   3.189
74025SOL    HW123972   3.023   1.549   3.211
74025SOL    HW223973   2.889   1.588   3.271
74026SOL     OW23974   9.404   2.710  12.644
74026SOL    HW123975   9.422   2.802  12.665
74026SOL    HW223976   9.490   2.672  12.628
74027SOL     OW23977   3.578   1.015   9.936
74027SOL    HW123978   3.651   1.073   9.915
74027SOL    HW223979   3.533   1.058  10.008
74028SOL     OW23980   2.924   9.777  10.448
74028SOL    HW123981   2.969   9.714  10.392
74028SOL    HW223982   2.994   9.821  10.496
74029SOL     OW23983  11.719   6.799   4.954
74029SOL    HW123984  11.739   6.727   5.013
74029SOL    HW223985  11.788   6.864   4.970
74030SOL     OW23986   7.886   3.461   0.610
74030SOL    HW123987   7.970   3.418   0.622
74030SOL    HW223988   7.889   3.497   0.521
74031SOL     OW23989   7.277   9.366   5.739
74031SOL    HW123990   7.291   9.323   5.655
74031SOL    HW223991   7.184   9.388   5.740
74032SOL     OW23992   4.558   6.912   2.606
74032SOL    HW123993   4.543   7.006   2.594
74032SOL    HW223994   4.644   6.896   2.567
74033SOL     OW23995   8.270   7.619   0.095
74033SOL    HW123996   8.278   7.563   0.018
74033SOL    HW223997   8.240   7.561   0.164
74034SOL     OW23998   1.215   0.739  13.859
74034SOL    HW123999   1.305   0.740  13.826
74034SOL    HW224000   1.160   0.745  13.781
74035SOL     OW24001   1.758   4.621  10.931
74035SOL    HW124002   1.719   4.696  10.887
74035SOL    HW224003   1.755   4.643  11.024
74036SOL     OW24004  14.752   4.451  13.375
74036SOL    HW124005  14.799   4.396  13.438
74036SOL    HW224006  14.758   4.539  13.411
74037SOL     OW24007   5.732   8.887   9.294
74037SOL    HW124008   5.648   8.932   9.288
74037SOL    HW224009   5.791   8.951   9.335
74038SOL     OW24010   2.058   1.360  12.444
74038SOL    HW124011   2.012   1.299  12.386
74038SOL    HW224012   2.005   1.439  12.443
74039SOL     OW24013  12.254  10.880  10.260
74039SOL    HW124014  12.299  10.895  10.343
74039SOL    HW224015  12.273  10.958  10.208
74040SOL     OW24016   0.700   2.892   3.727
74040SOL    HW124017   0.755   2.816   3.743
74040SOL    HW224018   0.692   2.897   3.632
74041SOL     OW24019   1.358   9.287   9.498
74041SOL    HW124020   1.343   9.288   9.404
74041SOL    HW224021   1.452   9.270   9.508
74042SOL     OW24022   3.137  13.847  12.360
74042SOL    HW124023   3.066  13.903  12.328
74042SOL    HW224024   3.196  13.907  12.405
74043SOL     OW24025   3.655   7.029   4.931
74043SOL    HW124026   3.631   6.940   4.903
74043SOL    HW224027   3.701   7.016   5.014
74044SOL     OW24028   2.969  13.327   7.718
74044SOL    HW124029   2.946  13.367   7.634
74044SOL    HW224030   3.062  13.350   7.730
74045SOL     OW24031   8.209  13.106  12.194
74045SOL    HW124032   8.241  13.087  12.282
74045SOL    HW224033   8.229  13.199  12.181
74046SOL     OW24034   3.984   6.148   7.167
74046SOL    HW124035   4.047   6.161   7.096
74046SOL    HW224036   3.931   6.227   7.166
74047SOL     OW24037   8.911   9.464  14.456
74047SOL    HW124038   8.926   9.461  14.361
74047SOL    HW224039   8.953   9.546  14.484
74048SOL     OW24040   9.079   1.720  13.081
74048SOL    HW124041   9.125   1.670  13.013
74048SOL    HW224042   9.071   1.808  13.044
74049SOL     OW24043   0.891   8.453   9.539
74049SOL    HW124044   0.925   8.374   9.582
74049SOL    HW224045   0.806   8.468   9.581
74050SOL     OW24046  11.029   9.934  11.908
74050SOL    HW124047  11.028   9.900  11.998
74050SOL    HW224048  11.121   9.946  11.888
74051SOL     OW24049   9.818  14.320  14.653
74051SOL    HW124050   9.749  14.280  14.706
74051SOL    HW224051   9.879  14.249  14.635
74052SOL     OW24052   8.687   5.330   6.097
74052SOL    HW124053   8.629   5.291   6.163
74052SOL    HW224054   8.658   5.421   6.090
74053SOL     OW24055   7.312   8.863   1.373
74053SOL    HW124056   7.381   8.861   1.439
74053SOL    HW224057   7.358   8.849   1.290
74054SOL     OW24058   6.658  13.010   2.793
74054SOL    HW124059   6.722  12.969   2.735
74054SOL    HW224060   6.573  12.988   2.754
74055SOL     OW24061  12.718   6.193   3.239
74055SOL    HW124062  12.647   6.138   3.208
74055SOL    HW224063  12.688   6.283   3.222
74056SOL     OW24064   1.113   2.197  11.119
74056SOL    HW124065   1.063   2.220  11.197
74056SOL    HW224066   1.160   2.277  11.096
74057SOL     OW24067   8.329  10.402   7.405
74057SOL    HW124068   8.367  10.458   7.473
74057SOL    HW224069   8.386  10.324   7.404
74058SOL     OW24070   1.995   0.198  14.760
74058SOL    HW124071   1.912   0.244  14.774
74058SOL    HW224072   2.062   0.263  14.782
74059SOL     OW24073  14.855  14.176   7.000
74059SOL    HW124074  14.839  14.140   6.913
74059SOL    HW224075   0.060  14.146   7.023
74060SOL     OW24076   4.247  10.113   2.507
74060SOL    HW124077   4.291  10.180   2.454
74060SOL    HW224078   4.194  10.161   2.570
74061SOL     OW24079  12.114   8.795   5.820
74061SOL    HW124080  12.178   8.866   5.809
74061SOL    HW224081  12.152   8.738   5.887
74062SOL     OW24082   5.041   1.264  13.762
74062SOL    HW124083   5.081   1.224  13.839
74062SOL    HW224084   5.114   1.300  13.712
74063SOL     OW24085   3.262   9.648   9.564
74063SOL    HW124086   3.308   9.566   9.546
74063SOL    HW224087   3.332   9.713   9.574
74064SOL     OW24088  11.445  10.137   1.295
74064SOL    HW124089  11.454  10.218   1.244
74064SOL    HW224090  11.507  10.147   1.367
74065SOL     OW24091   0.453   5.081  10.011
74065SOL    HW124092   0.429   5.122  10.095
74065SOL    HW224093   0.453   5.154   9.949
74066SOL     OW24094  10.882   0.323   5.903
74066SOL    HW124095  10.835   0.240   5.898
74066SOL    HW224096  10.851   0.373   5.828
74067SOL     OW24097   3.784   7.064   9.142
74067SOL    HW124098   3.785   6.990   9.202
74067SOL    HW224099   3.875   7.073   9.113
74068SOL     OW24100   4.685   8.018   4.142
74068SOL    HW124101   4.773   7.984   4.132
74068SOL    HW224102   4.696   8.113   4.143
74069SOL     OW24103   9.730   6.684   0.556
74069SOL    HW124104   9.750   6.763   0.506
74069SOL    HW224105   9.762   6.703   0.644
74070SOL     OW24106   6.804  12.916   6.732
74070SOL    HW124107   6.713  12.940   6.749
74070SOL    HW224108   6.821  12.843   6.791
74071SOL     OW24109   5.020   9.210   7.300
74071SOL    HW124110   5.030   9.202   7.205
74071SOL    HW224111   5.104   9.244   7.330
74072SOL     OW24112   2.578   7.480   4.856
74072SOL    HW124113   2.586   7.445   4.767
74072SOL    HW224114   2.652   7.443   4.903
74073SOL     OW24115   6.252  12.842   9.900
74073SOL    HW124116   6.263  12.750   9.874
74073SOL    HW224117   6.191  12.878   9.837
74074SOL     OW24118   9.482   3.579  12.251
74074SOL    HW124119   9.501   3.568  12.345
74074SOL    HW224120   9.464   3.673  12.241
74075SOL     OW24121  10.917   4.626   1.200
74075SOL    HW124122  10.869   4.668   1.272
74075SOL    HW224123  10.927   4.535   1.228
74076SOL     OW24124   5.529  14.709  11.147
74076SOL    HW124125   5.529  14.778  11.080
74076SOL    HW224126   5.457  14.652  11.122
74077SOL     OW24127   2.403   5.212   6.681
74077SOL    HW124128   2.327   5.253   6.722
74077SOL    HW224129   2.430   5.274   6.613
74078SOL     OW24130   6.020   2.980   0.131
74078SOL    HW124131   6.067   3.034   0.067
74078SOL    HW224132   6.086   2.916   0.160
74079SOL     OW24133   1.395   8.711   9.986
74079SOL    HW124134   1.469   8.771   9.986
74079SOL    HW224135   1.430   8.629   9.951
74080SOL     OW24136   7.115   1.114   9.169
74080SOL    HW124137   7.166   1.189   9.197
74080SOL    HW224138   7.032   1.122   9.217
74081SOL     OW24139  13.350   6.795  13.678
74081SOL    HW124140  13.410   6.815  13.606
74081SOL    HW224141  13.371   6.859  13.745
74082SOL     OW24142   2.270   2.324   4.704
74082SOL    HW124143   2.235   2.298   4.619
74082SOL    HW224144   2.295   2.242   4.746
74083SOL     OW24145   4.837   1.839   6.007
74083SOL    HW124146   4.790   1.866   6.087
74083SOL    HW224147   4.786   1.877   5.936
74084SOL     OW24148   5.970   9.164   2.483
74084SOL    HW124149   6.025   9.102   2.434
74084SOL    HW224150   5.882   9.128   2.476
74085SOL     OW24151  13.481   8.526   9.849
74085SOL    HW124152  13.410   8.523   9.785
74085SOL    HW224153  13.436   8.526   9.934
74086SOL     OW24154   2.063  12.849   3.661
74086SOL    HW124155   2.145  12.849   3.611
74086SOL    HW224156   2.002  12.801   3.606
74087SOL     OW24157  11.704  10.734   5.798
74087SOL    HW124158  11.709  10.653   5.748
74087SOL    HW224159  11.626  10.725   5.853
74088SOL     OW24160   2.972   4.112   2.422
74088SOL    HW124161   3.065   4.102   2.442
74088SOL    HW224162   2.927   4.092   2.504
74089SOL     OW24163   8.875   5.333   8.349
74089SOL    HW124164   8.901   5.358   8.261
74089SOL    HW224165   8.955   5.297   8.388
74090SOL     OW24166   7.422  13.630   3.591
74090SOL    HW124167   7.358  13.635   3.520
74090SOL    HW224168   7.424  13.538   3.616
74091SOL     OW24169   9.777   1.631   3.112
74091SOL    HW124170   9.780   1.585   3.028
74091SOL    HW224171   9.698   1.685   3.106
74092SOL     OW24172  13.093   0.152   1.005
74092SOL    HW124173  13.046   0.218   0.955
74092SOL    HW224174  13.024   0.097   1.044
74093SOL     OW24175   2.329  10.751   8.413
74093SOL    HW124176   2.311  10.843   8.394
74093SOL    HW224177   2.363  10.716   8.332
74094SOL     OW24178  10.346   2.239  12.064
74094SOL    HW124179  10.330   2.208  11.975
74094SOL    HW224180  10.441   2.234  12.075
74095SOL     OW24181   9.521   1.255  13.034
74095SOL    HW124182   9.605   1.239  13.079
74095SOL    HW224183   9.519   1.189  12.965
74096SOL     OW24184  13.463  10.004   7.921
74096SOL    HW124185  13.400  10.052   7.975
74096SOL    HW224186  13.461  10.048   7.836
74097SOL     OW24187  10.967   1.288  13.971
74097SOL    HW124188  11.037   1.227  13.995
74097SOL    HW224189  10.886   1.241  13.993
74098SOL     OW24190   4.802  12.291   3.965
74098SOL    HW124191   4.894  12.272   3.981
74098SOL    HW224192   4.789  12.269   3.873
74099SOL     OW24193  14.740   5.928   2.445
74099SOL    HW124194  14.675   5.970   2.502
74099SOL    HW224195  14.758   5.993   2.377
74100SOL     OW24196   9.893   7.016   3.769
74100SOL    HW124197   9.899   6.925   3.797
74100SOL    HW224198   9.884   7.011   3.673
74101SOL     OW24199   3.029   8.852   6.791
74101SOL    HW124200   2.941   8.816   6.781
74101SOL    HW224201   3.085   8.775   6.799
74102SOL     OW24202   4.918   8.750   1.403
74102SOL    HW124203   4.988   8.720   1.346
74102SOL    HW224204   4.864   8.673   1.419
74103SOL     OW24205   5.591  10.348   7.942
74103SOL    HW124206   5.565  10.303   7.861
74103SOL    HW224207   5.604  10.439   7.916
74104SOL     OW24208  13.898   6.299   7.932
74104SOL    HW124209  13.805   6.279   7.935
74104SOL    HW224210  13.902   6.392   7.909
74105SOL     OW24211   0.218  14.448   0.100
74105SOL    HW124212   0.297  14.502   0.098
74105SOL    HW224213   0.146  14.510   0.093
74106SOL     OW24214  14.647  12.371   7.111
74106SOL    HW124215  14.729  12.382   7.063
74106SOL    HW224216  14.599  12.304   7.061
74107SOL     OW24217  10.366   0.679   5.307
74107SOL    HW124218  10.380   0.766   5.343
74107SOL    HW224219  10.297   0.690   5.242
74108SOL     OW24220   0.515   5.432  12.599
74108SOL    HW124221   0.523   5.399  12.688
74108SOL    HW224222   0.598   5.408  12.557
74109SOL     OW24223   5.751   2.659   0.261
74109SOL    HW124224   5.679   2.717   0.237
74109SOL    HW224225   5.712   2.572   0.267
74110SOL     OW24226  13.368   5.873  13.400
74110SOL    HW124227  13.419   5.836  13.328
74110SOL    HW224228  13.299   5.925  13.358
74111SOL     OW24229  11.881   9.759   1.270
74111SOL    HW124230  11.844   9.785   1.354
74111SOL    HW224231  11.974   9.746   1.288
74112SOL     OW24232  11.367  13.916   9.248
74112SOL    HW124233  11.399  13.907   9.338
74112SOL    HW224234  11.446  13.919   9.194
74113SOL     OW24235   3.728   4.232   3.078
74113SOL    HW124236   3.633   4.230   3.092
74113SOL    HW224237   3.738   4.248   2.984
74114SOL     OW24238   3.977   2.598   4.984
74114SOL    HW124239   4.023   2.525   5.025
74114SOL    HW224240   4.032   2.623   4.910
74115SOL     OW24241   9.764  12.713   6.528
74115SOL    HW124242   9.827  12.693   6.458
74115SOL    HW224243   9.679  12.691   6.489
74116SOL     OW24244   4.570   8.023   1.234
74116SOL    HW124245   4.519   8.025   1.153
74116SOL    HW224246   4.656   7.990   1.208
74117SOL     OW24247   4.024   3.247  12.043
74117SOL    HW124248   3.977   3.318  12.000
74117SOL    HW224249   4.052   3.190  11.972
74118SOL     OW24250  12.385   5.717   2.086
74118SOL    HW124251  12.453   5.714   2.018
74118SOL    HW224252  12.315   5.769   2.047
74119SOL     OW24253   6.781   1.284   0.318
74119SOL    HW124254   6.771   1.305   0.411
74119SOL    HW224255   6.763   1.367   0.273
74120SOL     OW24256  10.751   7.728  13.937
74120SOL    HW124257  10.677   7.697  13.989
74120SOL    HW224258  10.788   7.800  13.988
74121SOL     OW24259  11.955   6.048  10.630
74121SOL    HW124260  11.860   6.043  10.640
74121SOL    HW224261  11.988   5.971  10.677
74122SOL     OW24262   0.179  14.745   7.027
74122SOL    HW124263   0.142  14.776   7.110
74122SOL    HW224264   0.215  14.823   6.986
74123SOL     OW24265  12.445   8.732   5.375
74123SOL    HW124266  12.387   8.657   5.362
74123SOL    HW224267  12.454   8.738   5.470
74124SOL     OW24268   5.015   4.519   0.936
74124SOL    HW124269   4.935   4.469   0.919
74124SOL    HW224270   4.999   4.561   1.021
74125SOL     OW24271   5.519  13.163   7.282
74125SOL    HW124272   5.523  13.215   7.202
74125SOL    HW224273   5.468  13.217   7.343
74126SOL     OW24274  13.423  14.031  11.080
74126SOL    HW124275  13.419  14.070  10.993
74126SOL    HW224276  13.517  14.030  11.101
74127SOL     OW24277  11.954   9.753   2.703
74127SOL    HW124278  11.869   9.785   2.673
74127SOL    HW224279  11.970   9.800   2.785
74128SOL     OW24280   8.307   8.179   5.463
74128SOL    HW124281   8.355   8.185   5.546
74128SOL    HW224282   8.374   8.177   5.396
74129SOL     OW24283   9.534   0.035   7.006
74129SOL    HW124284   9.522   0.098   7.077
74129SOL    HW224285   9.449  14.876   6.996
74130SOL     OW24286  13.103   4.963   8.331
74130SOL    HW124287  13.033   4.938   8.271
74130SOL    HW224288  13.170   5.001   8.274
74131SOL     OW24289   4.600   9.867  12.470
74131SOL    HW124290   4.574   9.775  12.475
74131SOL    HW224291   4.562   9.908  12.547
74132SOL     OW24292   7.779   0.698  13.230
74132SOL    HW124293   7.717   0.771  13.236
74132SOL    HW224294   7.864   0.738  13.246
74133SOL     OW24295  11.045  13.643   8.221
74133SOL    HW124296  11.095  13.647   8.140
74133SOL    HW224297  10.987  13.568   8.210
74134SOL     OW24298  10.998   1.366  13.410
74134SOL    HW124299  11.069   1.424  13.384
74134SOL    HW224300  10.999   1.368  13.506
74135SOL     OW24301  13.146  10.843  10.573
74135SOL    HW124302  13.059  10.825  10.610
74135SOL    HW224303  13.205  10.838  10.648
74136SOL     OW24304   8.756  11.885   8.173
74136SOL    HW124305   8.837  11.882   8.121
74136SOL    HW224306   8.688  11.905   8.110
74137SOL     OW24307   3.685   7.552   2.510
74137SOL    HW124308   3.650   7.592   2.590
74137SOL    HW224309   3.758   7.499   2.541
74138SOL     OW24310   9.690   3.141   0.344
74138SOL    HW124311   9.661   3.180   0.262
74138SOL    HW224312   9.779   3.112   0.327
74139SOL     OW24313  14.123   2.760   3.255
74139SOL    HW124314  14.042   2.746   3.207
74139SOL    HW224315  14.138   2.678   3.302
74140SOL     OW24316   1.787   3.346  13.897
74140SOL    HW124317   1.737   3.396  13.962
74140SOL    HW224318   1.726   3.279  13.868
74141SOL     OW24319  13.863  10.251  14.103
74141SOL    HW124320  13.802  10.281  14.170
74141SOL    HW224321  13.931  10.318  14.100
74142SOL     OW24322   6.943  12.921   5.753
74142SOL    HW124323   7.031  12.882   5.758
74142SOL    HW224324   6.884  12.850   5.774
74143SOL     OW24325  11.410   2.217   6.635
74143SOL    HW124326  11.485   2.186   6.685
74143SOL    HW224327  11.424   2.312   6.626
74144SOL     OW24328   7.813   3.754   2.015
74144SOL    HW124329   7.807   3.697   2.092
74144SOL    HW224330   7.878   3.712   1.959
74145SOL     OW24331   8.003   8.571   0.095
74145SOL    HW124332   7.948   8.640   0.059
74145SOL    HW224333   8.079   8.567   0.036
74146SOL     OW24334   7.355   6.154  12.652
74146SOL    HW124335   7.363   6.148  12.557
74146SOL    HW224336   7.355   6.063  12.682
74147SOL     OW24337   8.240   8.770  12.920
74147SOL    HW124338   8.162   8.754  12.868
74147SOL    HW224339   8.299   8.698  12.898
74148SOL     OW24340   4.947   1.050   8.168
74148SOL    HW124341   4.992   0.990   8.227
74148SOL    HW224342   4.948   1.134   8.214
74149SOL     OW24343  14.575   7.253   0.671
74149SOL    HW124344  14.627   7.240   0.750
74149SOL    HW224345  14.573   7.347   0.657
74150SOL     OW24346  10.987   9.087  12.118
74150SOL    HW124347  10.966   9.004  12.161
74150SOL    HW224348  10.942   9.082  12.034
74151SOL     OW24349   5.518   2.723   5.471
74151SOL    HW124350   5.481   2.677   5.546
74151SOL    HW224351   5.580   2.786   5.510
74152SOL     OW24352  11.369  14.597   4.481
74152SOL    HW124353  11.445  14.596   4.422
74152SOL    HW224354  11.408  14.596   4.569
74153SOL     OW24355  12.014   4.897   5.588
74153SOL    HW124356  12.097   4.853   5.609
74153SOL    HW224357  12.030   4.989   5.610
74154SOL     OW24358   4.877   4.907  12.438
74154SOL    HW124359   4.843   4.817  12.443
74154SOL    HW224360   4.943   4.911  12.508
74155SOL     OW24361   1.814   0.288   2.888
74155SOL    HW124362   1.761   0.260   2.813
74155SOL    HW224363   1.770   0.368   2.919
74156SOL     OW24364  11.255  10.819   5.245
74156SOL    HW124365  11.297  10.799   5.328
74156SOL    HW224366  11.199  10.744   5.228
74157SOL     OW24367  11.651  13.922   7.924
74157SOL    HW124368  11.680  13.908   8.014
74157SOL    HW224369  11.722  13.973   7.884
74158SOL     OW24370  11.703  12.633  14.112
74158SOL    HW124371  11.743  12.717  14.132
74158SOL    HW224372  11.746  12.604  14.032
74159SOL     OW24373   9.003   8.283   5.316
74159SOL    HW124374   9.036   8.285   5.226
74159SOL    HW224375   8.909   8.300   5.308
74160SOL     OW24376   6.865  14.149   6.447
74160SOL    HW124377   6.950  14.172   6.409
74160SOL    HW224378   6.884  14.075   6.505
74161SOL     OW24379   0.804  14.833   4.273
74161SOL    HW124380   0.790   0.044   4.253
74161SOL    HW224381   0.757  14.787   4.204
74162SOL     OW24382   3.936  11.278  11.827
74162SOL    HW124383   3.866  11.318  11.878
74162SOL    HW224384   3.902  11.274  11.738
74163SOL     OW24385  14.689  11.050   9.143
74163SOL    HW124386  14.713  10.995   9.217
74163SOL    HW224387  14.713  11.139   9.170
74164SOL     OW24388   9.897  14.542   9.389
74164SOL    HW124389   9.954  14.470   9.416
74164SOL    HW224390   9.956  14.617   9.381
74165SOL     OW24391  13.584   9.074   3.841
74165SOL    HW124392  13.628   9.006   3.891
74165SOL    HW224393  13.652   9.140   3.825
74166SOL     OW24394   1.224   2.055   3.451
74166SOL    HW124395   1.264   2.135   3.417
74166SOL    HW224396   1.216   1.998   3.374
74167SOL     OW24397   3.607   8.089   2.137
74167SOL    HW124398   3.539   8.080   2.204
74167SOL    HW224399   3.567   8.148   2.072
74168SOL     OW24400  10.905   2.169   4.127
74168SOL    HW124401  10.832   2.126   4.082
74168SOL    HW224402  10.978   2.108   4.119
74169SOL     OW24403  12.978   2.936   7.489
74169SOL    HW124404  12.989   3.018   7.441
74169SOL    HW224405  13.061   2.926   7.536
74170SOL     OW24406   6.127   5.685   4.641
74170SOL    HW124407   6.132   5.658   4.550
74170SOL    HW224408   6.206   5.648   4.681
74171SOL     OW24409  10.470  11.337   9.628
74171SOL    HW124410  10.417  11.374   9.557
74171SOL    HW224411  10.446  11.244   9.630
74172SOL     OW24412   3.879  11.524  12.516
74172SOL    HW124413   3.796  11.487  12.485
74172SOL    HW224414   3.920  11.561  12.437
74173SOL     OW24415  13.331   5.674   4.872
74173SOL    HW124416  13.297   5.598   4.824
74173SOL    HW224417  13.425   5.657   4.881
74174SOL     OW24418   4.478   6.669  10.608
74174SOL    HW124419   4.449   6.725  10.681
74174SOL    HW224420   4.427   6.588  10.619
74175SOL     OW24421   8.480   8.516   8.117
74175SOL    HW124422   8.555   8.490   8.063
74175SOL    HW224423   8.504   8.602   8.151
74176SOL     OW24424   7.662  10.370   9.191
74176SOL    HW124425   7.707  10.287   9.171
74176SOL    HW224426   7.576  10.344   9.223
74177SOL     OW24427  13.538  12.266   1.540
74177SOL    HW124428  13.489  12.322   1.601
74177SOL    HW224429  13.597  12.325   1.494
74178SOL     OW24430   7.213   5.073   5.274
74178SOL    HW124431   7.293   5.097   5.226
74178SOL    HW224432   7.234   5.091   5.365
74179SOL     OW24433   3.280   1.656   5.553
74179SOL    HW124434   3.372   1.633   5.566
74179SOL    HW224435   3.248   1.678   5.640
74180SOL     OW24436   1.590   4.005  12.359
74180SOL    HW124437   1.574   3.913  12.342
74180SOL    HW224438   1.685   4.010  12.374
74181SOL     OW24439   6.264   4.540   2.914
74181SOL    HW124440   6.326   4.579   2.852
74181SOL    HW224441   6.184   4.591   2.902
74182SOL     OW24442   7.710   6.742  11.179
74182SOL    HW124443   7.708   6.800  11.256
74182SOL    HW224444   7.641   6.678  11.196
74183SOL     OW24445  12.080  11.801   1.187
74183SOL    HW124446  12.077  11.896   1.201
74183SOL    HW224447  11.999  11.769   1.225
74184SOL     OW24448   9.454   3.246   9.418
74184SOL    HW124449   9.394   3.226   9.346
74184SOL    HW224450   9.526   3.184   9.408
74185SOL     OW24451   2.266  13.498  11.025
74185SOL    HW124452   2.282  13.572  10.966
74185SOL    HW224453   2.173  13.479  11.013
74186SOL     OW24454   3.660   4.296  11.002
74186SOL    HW124455   3.617   4.224  11.049
74186SOL    HW224456   3.663   4.266  10.911
74187SOL     OW24457   8.719   9.794   9.194
74187SOL    HW124458   8.795   9.842   9.227
74187SOL    HW224459   8.700   9.729   9.262
74188SOL     OW24460   2.542   6.512  10.854
74188SOL    HW124461   2.554   6.428  10.897
74188SOL    HW224462   2.523   6.490  10.763
74189SOL     OW24463  13.902   3.758   3.583
74189SOL    HW124464  13.846   3.831   3.558
74189SOL    HW224465  13.974   3.760   3.520
74190SOL     OW24466  13.106   1.517   7.023
74190SOL    HW124467  13.188   1.533   7.070
74190SOL    HW224468  13.104   1.422   7.010
74191SOL     OW24469   7.854   8.790   6.376
74191SOL    HW124470   7.897   8.797   6.291
74191SOL    HW224471   7.811   8.875   6.388
74192SOL     OW24472  10.397   4.026   2.878
74192SOL    HW124473  10.367   4.116   2.888
74192SOL    HW224474  10.480   4.033   2.831
74193SOL     OW24475   0.486   1.607   9.179
74193SOL    HW124476   0.466   1.699   9.161
74193SOL    HW224477   0.574   1.609   9.217
74194SOL     OW24478  11.617   1.126  10.780
74194SOL    HW124479  11.607   1.065  10.853
74194SOL    HW224480  11.536   1.177  10.779
74195SOL     OW24481  11.973   4.780   5.084
74195SOL    HW124482  12.005   4.734   5.162
74195SOL    HW224483  12.044   4.774   5.021
74196SOL     OW24484  12.942   6.379   3.742
74196SOL    HW124485  12.914   6.445   3.679
74196SOL    HW224486  12.924   6.419   3.828
74197SOL     OW24487   6.804  13.573   7.623
74197SOL    HW124488   6.714  13.576   7.591
74197SOL    HW224489   6.800  13.612   7.710
74198SOL     OW24490  11.540   6.433   2.805
74198SOL    HW124491  11.635   6.435   2.790
74198SOL    HW224492  11.508   6.512   2.761
74199SOL     OW24493   8.444   5.910  12.235
74199SOL    HW124494   8.465   5.827  12.192
74199SOL    HW224495   8.389   5.886  12.309
74200SOL     OW24496  10.623  12.313  11.908
74200SOL    HW124497  10.618  12.373  11.983
74200SOL    HW224498  10.663  12.234  11.944
74201SOL     OW24499   9.829  10.132  14.848
74201SOL    HW124500   9.742  10.120  14.808
74201SOL    HW224501   9.870  10.046  14.843
74202SOL     OW24502   1.337  11.744  12.168
74202SOL    HW124503   1.390  11.822  12.186
74202SOL    HW224504   1.326  11.703  12.253
74203SOL     OW24505   0.614  13.531  13.753
74203SOL    HW124506   0.651  13.607  13.798
74203SOL    HW224507   0.682  13.506  13.689
74204SOL     OW24508   8.146  12.018   3.470
74204SOL    HW124509   8.233  12.053   3.492
74204SOL    HW224510   8.108  12.084   3.413
74205SOL     OW24511   5.994   6.534   7.093
74205SOL    HW124512   5.905   6.522   7.127
74205SOL    HW224513   5.987   6.612   7.037
74206SOL     OW24514  11.429   0.313  10.727
74206SOL    HW124515  11.455   0.352  10.643
74206SOL    HW224516  11.502   0.333  10.786
74207SOL     OW24517   7.898   6.060   4.592
74207SOL    HW124518   7.975   6.058   4.650
74207SOL    HW224519   7.934   6.048   4.504
74208SOL     OW24520   1.088  11.413  12.720
74208SOL    HW124521   1.096  11.369  12.805
74208SOL    HW224522   1.132  11.355  12.658
74209SOL     OW24523  10.010   6.148  13.379
74209SOL    HW124524   9.971   6.060  13.378
74209SOL    HW224525  10.039   6.162  13.288
74210SOL     OW24526   7.582  13.969   4.316
74210SOL    HW124527   7.603  13.980   4.224
74210SOL    HW224528   7.584  14.058   4.352
74211SOL     OW24529  14.225  11.263   4.962
74211SOL    HW124530  14.255  11.354   4.960
74211SOL    HW224531  14.305  11.212   4.968
74212SOL     OW24532   1.679  10.952  14.833
74212SOL    HW124533   1.691  10.882  14.770
74212SOL    HW224534   1.714  11.030  14.789
74213SOL     OW24535   9.749   1.256  13.704
74213SOL    HW124536   9.656   1.269  13.685
74213SOL    HW224537   9.749   1.188  13.772
74214SOL     OW24538  11.173  10.251   5.111
74214SOL    HW124539  11.109  10.191   5.150
74214SOL    HW224540  11.255  10.201   5.108
74215SOL     OW24541  14.519   7.247   8.335
74215SOL    HW124542  14.436   7.200   8.327
74215SOL    HW224543  14.548   7.230   8.425
74216SOL     OW24544  14.202  12.416   5.253
74216SOL    HW124545  14.187  12.397   5.161
74216SOL    HW224546  14.235  12.506   5.254
74217SOL     OW24547  13.217  12.959   0.670
74217SOL    HW124548  13.197  13.018   0.743
74217SOL    HW224549  13.311  12.967   0.657
74218SOL     OW24550  11.295   2.104  10.759
74218SOL    HW124551  11.256   2.191  10.755
74218SOL    HW224552  11.373   2.116  10.814
74219SOL     OW24553   3.851   8.508  12.639
74219SOL    HW124554   3.821   8.521  12.729
74219SOL    HW224555   3.940   8.542  12.638
74220SOL     OW24556  11.760   7.217   4.474
74220SOL    HW124557  11.758   7.280   4.401
74220SOL    HW224558  11.670   7.187   4.482
74221SOL     OW24559   3.775   1.564  12.646
74221SOL    HW124560   3.869   1.568  12.627
74221SOL    HW224561   3.741   1.495  12.590
74222SOL     OW24562  14.539   6.273   4.174
74222SOL    HW124563  14.553   6.343   4.238
74222SOL    HW224564  14.555   6.315   4.089
74223SOL     OW24565   0.870   1.438  13.848
74223SOL    HW124566   0.890   1.399  13.763
74223SOL    HW224567   0.845   1.528  13.827
74224SOL     OW24568  12.484  14.707   6.761
74224SOL    HW124569  12.577  14.698   6.779
74224SOL    HW224570  12.469  14.801   6.755
74225SOL     OW24571   5.094   6.819   8.615
74225SOL    HW124572   5.022   6.770   8.576
74225SOL    HW224573   5.113   6.888   8.551
74226SOL     OW24574   1.466  11.707   8.947
74226SOL    HW124575   1.411  11.710   8.869
74226SOL    HW224576   1.452  11.620   8.983
74227SOL     OW24577   6.977  10.620  12.301
74227SOL    HW124578   6.894  10.620  12.252
74227SOL    HW224579   6.976  10.538  12.350
74228SOL     OW24580   0.602   4.383   3.792
74228SOL    HW124581   0.686   4.337   3.789
74228SOL    HW224582   0.580   4.387   3.885
74229SOL     OW24583   2.951   4.472   5.596
74229SOL    HW124584   2.892   4.543   5.569
74229SOL    HW224585   2.959   4.482   5.691
74230SOL     OW24586   0.650  12.819  12.273
74230SOL    HW124587   0.613  12.877  12.340
74230SOL    HW224588   0.726  12.779  12.315
74231SOL     OW24589   1.700   4.655   5.239
74231SOL    HW124590   1.606   4.655   5.220
74231SOL    HW224591   1.707   4.698   5.325
74232SOL     OW24592  14.437   0.399   2.389
74232SOL    HW124593  14.398   0.443   2.465
74232SOL    HW224594  14.362   0.359   2.344
74233SOL     OW24595  11.088   7.188   8.951
74233SOL    HW124596  11.175   7.195   8.990
74233SOL    HW224597  11.082   7.098   8.919
74234SOL     OW24598   5.638   9.997   7.264
74234SOL    HW124599   5.647   9.914   7.217
74234SOL    HW224600   5.550  10.028   7.243
74235SOL     OW24601  14.374  13.727   4.652
74235SOL    HW124602  14.460  13.766   4.669
74235SOL    HW224603  14.387  13.673   4.574
74236SOL     OW24604   8.054   4.909  13.902
74236SOL    HW124605   7.975   4.905  13.849
74236SOL    HW224606   8.123   4.933  13.840
74237SOL     OW24607   3.627   7.403   1.498
74237SOL    HW124608   3.707   7.377   1.452
74237SOL    HW224609   3.558   7.394   1.432
74238SOL     OW24610  13.940   5.939  12.063
74238SOL    HW124611  13.977   5.850  12.064
74238SOL    HW224612  13.848   5.926  12.040
74239SOL     OW24613   6.291  13.406   0.586
74239SOL    HW124614   6.307  13.467   0.657
74239SOL    HW224615   6.218  13.352   0.617
74240SOL     OW24616   3.521   6.476  12.078
74240SOL    HW124617   3.515   6.384  12.106
74240SOL    HW224618   3.433   6.499  12.049
74241SOL     OW24619   4.674   1.387  10.976
74241SOL    HW124620   4.673   1.292  10.990
74241SOL    HW224621   4.629   1.423  11.053
74242SOL     OW24622   1.540  14.303   3.207
74242SOL    HW124623   1.584  14.220   3.187
74242SOL    HW224624   1.600  14.349   3.264
74243SOL     OW24625  12.970   5.939   4.248
74243SOL    HW124626  12.883   5.900   4.256
74243SOL    HW224627  13.017   5.883   4.187
74244SOL     OW24628   3.054   2.410   4.621
74244SOL    HW124629   3.116   2.481   4.610
74244SOL    HW224630   3.085   2.363   4.698
74245SOL     OW24631  11.982   4.149  10.647
74245SOL    HW124632  12.011   4.163  10.738
74245SOL    HW224633  12.043   4.084  10.613
74246SOL     OW24634  12.030   1.211  11.544
74246SOL    HW124635  11.935   1.221  11.549
74246SOL    HW224636  12.046   1.120  11.566
74247SOL     OW24637   9.745  12.715  13.798
74247SOL    HW124638   9.671  12.717  13.858
74247SOL    HW224639   9.712  12.755  13.717
74248SOL     OW24640   0.551  12.485  13.245
74248SOL    HW124641   0.486  12.428  13.285
74248SOL    HW224642   0.504  12.567  13.229
74249SOL     OW24643  14.593   2.275  11.821
74249SOL    HW124644  14.647   2.209  11.777
74249SOL    HW224645  14.554   2.325  11.750
74250SOL     OW24646  14.647  13.398   1.114
74250SOL    HW124647  14.566  13.434   1.076
74250SOL    HW224648  14.617  13.348   1.190
74251SOL     OW24649   8.051   7.675  13.672
74251SOL    HW124650   8.111   7.601  13.667
74251SOL    HW224651   8.002   7.673  13.590
74252SOL     OW24652  11.845   4.314  14.480
74252SOL    HW124653  11.884   4.397  14.451
74252SOL    HW224654  11.797   4.282  14.403
74253SOL     OW24655   5.740   1.600   7.972
74253SOL    HW124656   5.773   1.564   8.054
74253SOL    HW224657   5.730   1.524   7.914
74254SOL     OW24658   5.698   9.821   9.773
74254SOL    HW124659   5.689   9.883   9.845
74254SOL    HW224660   5.785   9.838   9.737
74255SOL     OW24661   7.887   9.843   9.585
74255SOL    HW124662   7.946   9.832   9.660
74255SOL    HW224663   7.824   9.909   9.614
74256SOL     OW24664   3.813   1.272   9.542
74256SOL    HW124665   3.857   1.356   9.540
74256SOL    HW224666   3.869   1.214   9.490
74257SOL     OW24667   0.690   5.553  11.634
74257SOL    HW124668   0.602   5.534  11.604
74257SOL    HW224669   0.731   5.467  11.644
74258SOL     OW24670   7.256   6.714   9.105
74258SOL    HW124671   7.266   6.796   9.152
74258SOL    HW224672   7.338   6.667   9.119
74259SOL     OW24673   1.797   5.186   4.351
74259SOL    HW124674   1.803   5.125   4.278
74259SOL    HW224675   1.703   5.198   4.365
74260SOL     OW24676   3.804  12.536  11.548
74260SOL    HW124677   3.778  12.559  11.637
74260SOL    HW224678   3.763  12.451  11.532
74261SOL     OW24679   9.540   9.142   4.756
74261SOL    HW124680   9.617   9.106   4.713
74261SOL    HW224681   9.576   9.201   4.823
74262SOL     OW24682   5.715  13.132   4.079
74262SOL    HW124683   5.785  13.139   4.014
74262SOL    HW224684   5.759  13.106   4.160
74263SOL     OW24685   2.073  11.063  12.647
74263SOL    HW124686   2.109  11.151  12.638
74263SOL    HW224687   2.052  11.055  12.740
74264SOL     OW24688  12.446   2.023   2.410
74264SOL    HW124689  12.393   1.946   2.431
74264SOL    HW224690  12.432   2.037   2.316
74265SOL     OW24691  10.431   2.578   7.135
74265SOL    HW124692  10.430   2.616   7.223
74265SOL    HW224693  10.349   2.607   7.095
74266SOL     OW24694   5.132   2.909   4.101
74266SOL    HW124695   5.066   2.953   4.048
74266SOL    HW224696   5.119   2.816   4.084
74267SOL     OW24697   0.367   3.077  14.585
74267SOL    HW124698   0.310   3.127  14.527
74267SOL    HW224699   0.455   3.113  14.569
74268SOL     OW24700  13.024  13.181   9.831
74268SOL    HW124701  13.048  13.164   9.740
74268SOL    HW224702  13.083  13.252   9.858
74269SOL     OW24703   7.868   0.699  10.457
74269SOL    HW124704   7.870   0.719  10.364
74269SOL    HW224705   7.917   0.770  10.498
74270SOL     OW24706  14.101   2.662  13.591
74270SOL    HW124707  14.083   2.674  13.684
74270SOL    HW224708  14.088   2.748  13.553
74271SOL     OW24709  12.402   1.401   8.704
74271SOL    HW124710  12.459   1.478   8.709
74271SOL    HW224711  12.411   1.359   8.789
74272SOL     OW24712   2.344   4.788   1.386
74272SOL    HW124713   2.315   4.749   1.304
74272SOL    HW224714   2.263   4.798   1.438
74273SOL     OW24715   7.267   5.445  12.597
74273SOL    HW124716   7.214   5.443  12.676
74273SOL    HW224717   7.204   5.444  12.525
74274SOL     OW24718   1.169   3.695   5.904
74274SOL    HW124719   1.156   3.729   5.993
74274SOL    HW224720   1.179   3.774   5.850
74275SOL     OW24721   9.659   7.577   0.466
74275SOL    HW124722   9.599   7.643   0.502
74275SOL    HW224723   9.676   7.606   0.377
74276SOL     OW24724   3.434  12.964  11.649
74276SOL    HW124725   3.485  13.029  11.602
74276SOL    HW224726   3.455  12.977  11.741
74277SOL     OW24727  12.010   2.779  12.047
74277SOL    HW124728  11.931   2.754  12.094
74277SOL    HW224729  12.022   2.872  12.066
74278SOL     OW24730  10.157   0.961   0.072
74278SOL    HW124731  10.151   1.018   0.149
74278SOL    HW224732  10.251   0.949   0.059
74279SOL     OW24733   5.740  13.961   9.505
74279SOL    HW124734   5.758  13.904   9.580
74279SOL    HW224735   5.677  13.913   9.452
74280SOL     OW24736  14.060  10.786   2.507
74280SOL    HW124737  14.083  10.874   2.476
74280SOL    HW224738  14.115  10.773   2.584
74281SOL     OW24739   8.806  13.460  14.148
74281SOL    HW124740   8.715  13.480  14.170
74281SOL    HW224741   8.854  13.474  14.229
74282SOL     OW24742  10.922  14.686   5.704
74282SOL    HW124743  10.891  14.601   5.673
74282SOL    HW224744  11.012  14.692   5.672
74283SOL     OW24745  10.443  11.219   7.490
74283SOL    HW124746  10.387  11.277   7.542
74283SOL    HW224747  10.527  11.219   7.537
74284SOL     OW24748   5.977   1.544   9.041
74284SOL    HW124749   5.948   1.596   9.115
74284SOL    HW224750   5.961   1.453   9.067
74285SOL     OW24751   3.329   6.322   3.890
74285SOL    HW124752   3.243   6.304   3.851
74285SOL    HW224753   3.308   6.366   3.973
74286SOL     OW24754  11.667  10.616   4.829
74286SOL    HW124755  11.694  10.541   4.882
74286SOL    HW224756  11.598  10.658   4.881
74287SOL     OW24757   0.617   6.626   9.876
74287SOL    HW124758   0.627   6.533   9.894
74287SOL    HW224759   0.637   6.669   9.960
74288SOL     OW24760   0.374   5.496   3.894
74288SOL    HW124761   0.335   5.579   3.921
74288SOL    HW224762   0.383   5.446   3.975
74289SOL     OW24763  10.869  12.130  14.754
74289SOL    HW124764  10.930  12.165  14.819
74289SOL    HW224765  10.824  12.207  14.720
74290SOL     OW24766   1.345   2.155   3.160
74290SOL    HW124767   1.439   2.156   3.175
74290SOL    HW224768   1.326   2.066   3.132
74291SOL     OW24769   7.270   6.476   7.267
74291SOL    HW124770   7.327   6.476   7.190
74291SOL    HW224771   7.208   6.547   7.251
74292SOL     OW24772   2.399   7.394  10.612
74292SOL    HW124773   2.421   7.347  10.692
74292SOL    HW224774   2.394   7.326  10.544
74293SOL     OW24775   4.025  13.221  11.617
74293SOL    HW124776   3.972  13.268  11.553
74293SOL    HW224777   3.967  13.152  11.650
74294SOL     OW24778   1.094   9.507   6.834
74294SOL    HW124779   1.024   9.546   6.783
74294SOL    HW224780   1.092   9.554   6.918
74295SOL     OW24781  14.732   7.509  12.066
74295SOL    HW124782  14.658   7.565  12.045
74295SOL    HW224783  14.787   7.511  11.988
74296SOL     OW24784   2.900  10.271   4.270
74296SOL    HW124785   2.879  10.201   4.332
74296SOL    HW224786   2.843  10.343   4.295
74297SOL     OW24787  13.607   7.812   3.442
74297SOL    HW124788  13.666   7.738   3.457
74297SOL    HW224789  13.598   7.853   3.528
74298SOL     OW24790  10.998   4.810  13.622
74298SOL    HW124791  11.019   4.794  13.714
74298SOL    HW224792  10.924   4.871  13.625
74299SOL     OW24793  11.241   9.235  13.187
74299SOL    HW124794  11.244   9.316  13.238
74299SOL    HW224795  11.148   9.225  13.164
74300SOL     OW24796   9.878   4.422   2.446
74300SOL    HW124797   9.897   4.502   2.496
74300SOL    HW224798   9.816   4.374   2.501
74301SOL     OW24799   9.770   7.736   7.318
74301SOL    HW124800   9.810   7.700   7.397
74301SOL    HW224801   9.840   7.788   7.278
74302SOL     OW24802   4.252   1.562  14.040
74302SOL    HW124803   4.317   1.556  14.109
74302SOL    HW224804   4.171   1.528  14.080
74303SOL     OW24805  12.834   2.092  11.435
74303SOL    HW124806  12.834   2.080  11.530
74303SOL    HW224807  12.798   2.010  11.401
74304SOL     OW24808  14.268   1.016   6.318
74304SOL    HW124809  14.283   0.926   6.289
74304SOL    HW224810  14.207   1.052   6.254
74305SOL     OW24811  13.003   5.362   3.649
74305SOL    HW124812  12.964   5.450   3.646
74305SOL    HW224813  13.030   5.345   3.559
74306SOL     OW24814  14.754  13.934   4.252
74306SOL    HW124815  14.738  14.028   4.244
74306SOL    HW224816  14.828  13.917   4.193
74307SOL     OW24817   1.611   5.297   0.442
74307SOL    HW124818   1.524   5.319   0.408
74307SOL    HW224819   1.662   5.376   0.430
74308SOL     OW24820  11.263   4.416   0.492
74308SOL    HW124821  11.256   4.447   0.582
74308SOL    HW224822  11.357   4.418   0.473
74309SOL     OW24823  11.854  13.515  13.563
74309SOL    HW124824  11.852  13.448  13.632
74309SOL    HW224825  11.841  13.598  13.610
74310SOL     OW24826  13.848  10.214   1.214
74310SOL    HW124827  13.877  10.272   1.144
74310SOL    HW224828  13.927  10.197   1.265
74311SOL     OW24829   0.651  11.296   5.631
74311SOL    HW124830   0.614  11.358   5.693
74311SOL    HW224831   0.693  11.350   5.564
74312SOL     OW24832   2.208  11.426   8.235
74312SOL    HW124833   2.184  11.485   8.163
74312SOL    HW224834   2.221  11.484   8.310
74313SOL     OW24835  10.082   2.492  11.791
74313SOL    HW124836  10.097   2.485  11.885
74313SOL    HW224837  10.168   2.474  11.752
74314SOL     OW24838  11.841   8.834  11.320
74314SOL    HW124839  11.899   8.776  11.270
74314SOL    HW224840  11.794   8.776  11.380
74315SOL     OW24841   5.355  14.262  14.221
74315SOL    HW124842   5.353  14.226  14.133
74315SOL    HW224843   5.392  14.192  14.275
74316SOL     OW24844  13.273   3.912   3.245
74316SOL    HW124845  13.181   3.928   3.222
74316SOL    HW224846  13.279   3.817   3.257
74317SOL     OW24847   8.626   9.716  13.099
74317SOL    HW124848   8.718   9.738  13.091
74317SOL    HW224849   8.613   9.697  13.192
74318SOL     OW24850   3.367   2.421   1.653
74318SOL    HW124851   3.397   2.354   1.714
74318SOL    HW224852   3.344   2.372   1.573
74319SOL     OW24853  14.214   6.415  11.845
74319SOL    HW124854  14.216   6.365  11.926
74319SOL    HW224855  14.144   6.374  11.793
74320SOL     OW24856   1.138   1.261   0.380
74320SOL    HW124857   1.184   1.341   0.355
74320SOL    HW224858   1.203   1.191   0.366
74321SOL     OW24859  14.028   0.701  10.904
74321SOL    HW124860  14.025   0.795  10.889
74321SOL    HW224861  14.120   0.677  10.890
74322SOL     OW24862   0.530   9.860   2.638
74322SOL    HW124863   0.485   9.838   2.557
74322SOL    HW224864   0.462   9.854   2.706
74323SOL     OW24865  12.805  13.437   3.983
74323SOL    HW124866  12.765  13.480   4.059
74323SOL    HW224867  12.886  13.487   3.968
74324SOL     OW24868   2.294   3.630   0.932
74324SOL    HW124869   2.389   3.626   0.922
74324SOL    HW224870   2.280   3.638   1.027
74325SOL     OW24871   2.329  11.321  14.405
74325SOL    HW124872   2.408  11.320  14.351
74325SOL    HW224873   2.266  11.268  14.355
74326SOL     OW24874   8.844   7.861   0.323
74326SOL    HW124875   8.819   7.777   0.360
74326SOL    HW224876   8.936   7.873   0.350
74327SOL     OW24877  11.392   2.473  11.789
74327SOL    HW124878  11.380   2.483  11.695
74327SOL    HW224879  11.456   2.541  11.812
74328SOL     OW24880  14.752  12.495   8.879
74328SOL    HW124881  14.823  12.476   8.940
74328SOL    HW224882  14.727  12.585   8.899
74329SOL     OW24883   2.326   5.716   5.000
74329SOL    HW124884   2.374   5.786   5.045
74329SOL    HW224885   2.390   5.645   4.991
74330SOL     OW24886   2.407   9.569  12.295
74330SOL    HW124887   2.339   9.506  12.322
74330SOL    HW224888   2.484   9.543  12.345
74331SOL     OW24889   0.245   5.635   1.452
74331SOL    HW124890   0.242   5.573   1.525
74331SOL    HW224891   0.154   5.663   1.441
74332SOL     OW24892   2.618  11.124   6.770
74332SOL    HW124893   2.640  11.201   6.822
74332SOL    HW224894   2.527  11.139   6.742
74333SOL     OW24895   3.911  12.518   2.336
74333SOL    HW124896   3.880  12.429   2.320
74333SOL    HW224897   3.831  12.570   2.342
74334SOL     OW24898  10.345   2.634   7.661
74334SOL    HW124899  10.267   2.589   7.695
74334SOL    HW224900  10.401   2.563   7.629
74335SOL     OW24901  10.911   5.016   6.827
74335SOL    HW124902  10.934   4.983   6.913
74335SOL    HW224903  10.835   4.964   6.801
74336SOL     OW24904   8.737  12.859   6.868
74336SOL    HW124905   8.743  12.923   6.798
74336SOL    HW224906   8.821  12.814   6.867
74337SOL     OW24907   9.919  12.457  14.368
74337SOL    HW124908   9.994  12.403  14.343
74337SOL    HW224909   9.944  12.545  14.342
74338SOL     OW24910  13.098   1.206  12.712
74338SOL    HW124911  13.004   1.221  12.710
74338SOL    HW224912  13.118   1.192  12.805
74339SOL     OW24913   9.420  13.269   6.311
74339SOL    HW124914   9.358  13.286   6.240
74339SOL    HW224915   9.385  13.191   6.354
74340SOL     OW24916   7.582   6.794  14.030
74340SOL    HW124917   7.555   6.704  14.011
74340SOL    HW224918   7.649   6.785  14.098
74341SOL     OW24919  12.890   0.568   6.657
74341SOL    HW124920  12.917   0.659   6.673
74341SOL    HW224921  12.816   0.574   6.597
74342SOL     OW24922   0.635  11.498   1.450
74342SOL    HW124923   0.677  11.413   1.463
74342SOL    HW224924   0.621  11.504   1.356
74343SOL     OW24925   4.372   7.651  11.532
74343SOL    HW124926   4.334   7.732  11.568
74343SOL    HW224927   4.412   7.678  11.450
74344SOL     OW24928   9.917   0.760   8.850
74344SOL    HW124929  10.003   0.793   8.878
74344SOL    HW224930   9.854   0.812   8.900
74345SOL     OW24931   0.227   3.455  11.430
74345SOL    HW124932   0.163   3.449  11.502
74345SOL    HW224933   0.312   3.456  11.474
74346SOL     OW24934   0.856   5.013   7.681
74346SOL    HW124935   0.877   4.951   7.750
74346SOL    HW224936   0.838   5.095   7.727
74347SOL     OW24937   4.088   4.033   4.138
74347SOL    HW124938   4.181   4.017   4.156
74347SOL    HW224939   4.073   4.122   4.172
74348SOL     OW24940  13.395   4.835  10.526
74348SOL    HW124941  13.319   4.778  10.514
74348SOL    HW224942  13.404   4.881  10.442
74349SOL     OW24943   3.302   9.532  13.877
74349SOL    HW124944   3.365   9.593  13.915
74349SOL    HW224945   3.353   9.453  13.858
74350SOL     OW24946  13.060   2.451  10.725
74350SOL    HW124947  13.039   2.398  10.649
74350SOL    HW224948  12.978   2.493  10.749
74351SOL     OW24949   9.008  12.209   2.207
74351SOL    HW124950   9.088  12.261   2.214
74351SOL    HW224951   8.938  12.272   2.224
74352SOL     OW24952   8.003   4.832   6.183
74352SOL    HW124953   8.094   4.851   6.206
74352SOL    HW224954   8.005   4.819   6.088
74353SOL     OW24955  12.774   7.367  12.705
74353SOL    HW124956  12.719   7.352  12.782
74353SOL    HW224957  12.782   7.281  12.664
74354SOL     OW24958   4.613  13.814   2.039
74354SOL    HW124959   4.649  13.866   2.111
74354SOL    HW224960   4.673  13.740   2.030
74355SOL     OW24961  14.771  14.611   7.824
74355SOL    HW124962  14.836  14.675   7.794
74355SOL    HW224963  14.798  14.590   7.913
74356SOL     OW24964   2.792   1.145   0.387
74356SOL    HW124965   2.734   1.095   0.445
74356SOL    HW224966   2.825   1.080   0.325
74357SOL     OW24967   7.251   8.412   2.683
74357SOL    HW124968   7.285   8.480   2.624
74357SOL    HW224969   7.229   8.459   2.764
74358SOL     OW24970   7.288   5.727  11.705
74358SOL    HW124971   7.346   5.710  11.630
74358SOL    HW224972   7.319   5.810  11.740
74359SOL     OW24973   6.413  13.627   4.836
74359SOL    HW124974   6.435  13.719   4.851
74359SOL    HW224975   6.482  13.595   4.778
74360SOL     OW24976   0.323  10.674  12.710
74360SOL    HW124977   0.373  10.731  12.768
74360SOL    HW224978   0.298  10.730  12.637
74361SOL     OW24979   2.960   7.124   6.289
74361SOL    HW124980   2.960   7.219   6.273
74361SOL    HW224981   2.911   7.113   6.370
74362SOL     OW24982  10.599  14.285  14.706
74362SOL    HW124983  10.667  14.272  14.640
74362SOL    HW224984  10.623  14.227  14.778
74363SOL     OW24985  14.099   7.846  14.261
74363SOL    HW124986  14.090   7.913  14.329
74363SOL    HW224987  14.172   7.877  14.207
74364SOL     OW24988   6.113  13.207   5.847
74364SOL    HW124989   6.101  13.299   5.823
74364SOL    HW224990   6.205  13.201   5.873
74365SOL     OW24991  10.077  13.590   5.261
74365SOL    HW124992  10.156  13.640   5.285
74365SOL    HW224993  10.087  13.575   5.167
74366SOL     OW24994   7.078   5.134  12.754
74366SOL    HW124995   7.041   5.215  12.719
74366SOL    HW224996   7.012   5.067  12.736
74367SOL     OW24997  12.932   0.875   1.189
74367SOL    HW124998  13.010   0.930   1.195
74367SOL    HW224999  12.946   0.805   1.253
74368SOL     OW25000   9.141   3.840   2.199
74368SOL    HW125001   9.097   3.811   2.279
74368SOL    HW225002   9.084   3.906   2.162
74369SOL     OW25003   8.191  10.922   7.152
74369SOL    HW125004   8.182  10.827   7.143
74369SOL    HW225005   8.132  10.944   7.224
74370SOL     OW25006  14.750  10.342  11.246
74370SOL    HW125007  14.655  10.330  11.256
74370SOL    HW225008  14.789  10.273  11.299
74371SOL     OW25009  13.769   6.353  11.859
74371SOL    HW125010  13.692   6.357  11.915
74371SOL    HW225011  13.834   6.306  11.911
74372SOL     OW25012   3.213   2.616   0.007
74372SOL    HW125013   3.195   2.575   0.092
74372SOL    HW225014   3.181   2.706   0.017
74373SOL     OW25015   9.874   9.883   5.829
74373SOL    HW125016   9.793   9.910   5.871
74373SOL    HW225017   9.893   9.797   5.867
74374SOL     OW25018  10.592   6.110  12.529
74374SOL    HW125019  10.593   6.053  12.452
74374SOL    HW225020  10.680   6.149  12.530
74375SOL     OW25021  11.726   7.011  12.906
74375SOL    HW125022  11.801   6.953  12.893
74375SOL    HW225023  11.656   6.972  12.854
74376SOL     OW25024  11.479   4.796   8.460
74376SOL    HW125025  11.394   4.811   8.418
74376SOL    HW225026  11.497   4.704   8.444
74377SOL     OW25027   9.742  11.635   2.635
74377SOL    HW125028   9.700  11.559   2.677
74377SOL    HW225029   9.768  11.603   2.549
74378SOL     OW25030   8.856   0.458   3.907
74378SOL    HW125031   8.871   0.515   3.982
74378SOL    HW225032   8.889   0.507   3.832
74379SOL     OW25033   2.601  12.246   9.604
74379SOL    HW125034   2.536  12.211   9.543
74379SOL    HW225035   2.680  12.194   9.588
74380SOL     OW25036  10.672  10.981   7.585
74380SOL    HW125037  10.647  10.930   7.662
74380SOL    HW225038  10.746  10.934   7.547
74381SOL     OW25039   7.338   5.730   5.196
74381SOL    HW125040   7.389   5.681   5.132
74381SOL    HW225041   7.266   5.769   5.145
74382SOL     OW25042   3.880   9.642   7.440
74382SOL    HW125043   3.969   9.677   7.448
74382SOL    HW225044   3.824   9.720   7.437
74383SOL     OW25045   2.308   2.045   0.721
74383SOL    HW125046   2.305   2.136   0.749
74383SOL    HW225047   2.238   2.038   0.656
74384SOL     OW25048   5.042  14.157  12.759
74384SOL    HW125049   5.046  14.066  12.730
74384SOL    HW225050   5.052  14.152  12.854
74385SOL     OW25051   2.581  11.182   2.720
74385SOL    HW125052   2.571  11.276   2.704
74385SOL    HW225053   2.674  11.171   2.739
74386SOL     OW25054   3.314   8.290  13.624
74386SOL    HW125055   3.395   8.317  13.666
74386SOL    HW225056   3.250   8.357  13.650
74387SOL     OW25057  11.582  11.435  10.865
74387SOL    HW125058  11.490  11.431  10.840
74387SOL    HW225059  11.591  11.520  10.908
74388SOL     OW25060  10.847   8.336   2.503
74388SOL    HW125061  10.816   8.395   2.572
74388SOL    HW225062  10.933   8.371   2.479
74389SOL     OW25063  11.471   7.949  13.360
74389SOL    HW125064  11.525   7.902  13.297
74389SOL    HW225065  11.382   7.940  13.326
74390SOL     OW25066   4.900   3.044  11.378
74390SOL    HW125067   4.813   3.010  11.399
74390SOL    HW225068   4.908   3.033  11.284
74391SOL     OW25069   2.150  11.344  12.644
74391SOL    HW125070   2.147  11.357  12.739
74391SOL    HW225071   2.067  11.379  12.612
74392SOL     OW25072   7.765   3.183   8.466
74392SOL    HW125073   7.807   3.122   8.405
74392SOL    HW225074   7.837   3.236   8.500
74393SOL     OW25075  11.611   1.507   5.485
74393SOL    HW125076  11.570   1.590   5.461
74393SOL    HW225077  11.577   1.487   5.572
74394SOL     OW25078   8.235  11.900   2.368
74394SOL    HW125079   8.271  11.834   2.309
74394SOL    HW225080   8.141  11.881   2.370
74395SOL     OW25081  13.577   5.115   3.651
74395SOL    HW125082  13.613   5.184   3.595
74395SOL    HW225083  13.532   5.056   3.590
74396SOL     OW25084   0.807   9.101   8.705
74396SOL    HW125085   0.837   9.137   8.622
74396SOL    HW225086   0.721   9.141   8.719
74397SOL     OW25087   2.040   7.839   4.277
74397SOL    HW125088   2.090   7.889   4.340
74397SOL    HW225089   2.101   7.772   4.245
74398SOL     OW25090   0.017   0.023   5.642
74398SOL    HW125091   0.039   0.113   5.667
74398SOL    HW225092  14.817   0.030   5.594
74399SOL     OW25093   9.456  14.428   5.587
74399SOL    HW125094   9.456  14.495   5.655
74399SOL    HW225095   9.523  14.365   5.614
74400SOL     OW25096   6.901   2.244  11.172
74400SOL    HW125097   6.898   2.324  11.224
74400SOL    HW225098   6.984   2.250  11.124
74401SOL     OW25099  14.529   3.788   3.295
74401SOL    HW125100  14.483   3.742   3.366
74401SOL    HW225101  14.513   3.881   3.312
74402SOL     OW25102   4.615  14.720   8.890
74402SOL    HW125103   4.673  14.795   8.905
74402SOL    HW225104   4.528  14.759   8.880
74403SOL     OW25105   4.549   2.821   1.944
74403SOL    HW125106   4.506   2.876   1.878
74403SOL    HW225107   4.558   2.879   2.020
74404SOL     OW25108  13.784  10.672  11.097
74404SOL    HW125109  13.698  10.628  11.098
74404SOL    HW225110  13.795  10.704  11.187
74405SOL     OW25111   6.671  12.981   5.119
74405SOL    HW125112   6.647  13.072   5.103
74405SOL    HW225113   6.755  12.986   5.165
74406SOL     OW25114   5.372  14.718   3.719
74406SOL    HW125115   5.462  14.721   3.752
74406SOL    HW225116   5.358  14.627   3.693
74407SOL     OW25117   0.461   1.028   2.125
74407SOL    HW125118   0.374   1.027   2.086
74407SOL    HW225119   0.471   1.116   2.161
74408SOL     OW25120  12.470  10.806   5.179
74408SOL    HW125121  12.377  10.827   5.183
74408SOL    HW225122  12.509  10.881   5.133
74409SOL     OW25123  13.237  10.242  14.135
74409SOL    HW125124  13.244  10.337  14.145
74409SOL    HW225125  13.143  10.226  14.126
74410SOL     OW25126   2.823   4.776  12.154
74410SOL    HW125127   2.873   4.857  12.143
74410SOL    HW225128   2.888   4.707  12.149
74411SOL     OW25129   9.519   8.827   2.808
74411SOL    HW125130   9.449   8.761   2.806
74411SOL    HW225131   9.559   8.817   2.894
74412SOL     OW25132  10.074  13.285   6.966
74412SOL    HW125133  10.055  13.285   6.872
74412SOL    HW225134  10.089  13.377   6.988
74413SOL     OW25135   8.314  12.602   8.265
74413SOL    HW125136   8.403  12.625   8.238
74413SOL    HW225137   8.298  12.655   8.343
74414SOL     OW25138  14.131  14.189   8.906
74414SOL    HW125139  14.049  14.144   8.925
74414SOL    HW225140  14.134  14.261   8.970
74415SOL     OW25141   1.680   4.631   2.406
74415SOL    HW125142   1.598   4.668   2.375
74415SOL    HW225143   1.702   4.564   2.340
74416SOL     OW25144   5.910   7.358   2.277
74416SOL    HW125145   5.996   7.315   2.273
74416SOL    HW225146   5.930   7.445   2.313
74417SOL     OW25147   5.153  13.487   9.416
74417SOL    HW125148   5.081  13.470   9.476
74417SOL    HW225149   5.208  13.409   9.421
74418SOL     OW25150  14.075   9.856   1.345
74418SOL    HW125151  14.109   9.856   1.255
74418SOL    HW225152  13.980   9.852   1.335
74419SOL     OW25153   3.373   1.193  12.071
74419SOL    HW125154   3.459   1.187  12.112
74419SOL    HW225155   3.389   1.238  11.988
74420SOL     OW25156  10.276  11.833   9.744
74420SOL    HW125157  10.279  11.738   9.729
74420SOL    HW225158  10.288  11.870   9.656
74421SOL     OW25159  11.848   5.467   5.485
74421SOL    HW125160  11.897   5.494   5.407
74421SOL    HW225161  11.915   5.440   5.547
74422SOL     OW25162   0.441   8.642   2.621
74422SOL    HW125163   0.506   8.701   2.582
74422SOL    HW225164   0.373   8.633   2.555
74423SOL     OW25165   4.731   3.121   2.544
74423SOL    HW125166   4.806   3.099   2.489
74423SOL    HW225167   4.735   3.058   2.616
74424SOL     OW25168  10.945   8.065   2.833
74424SOL    HW125169  10.915   8.156   2.837
74424SOL    HW225170  10.867   8.016   2.809
74425SOL     OW25171  14.600   6.460   6.731
74425SOL    HW125172  14.611   6.373   6.770
74425SOL    HW225173  14.605   6.444   6.637
74426SOL     OW25174  13.510  14.133  10.152
74426SOL    HW125175  13.513  14.087  10.236
74426SOL    HW225176  13.428  14.183  10.155
74427SOL     OW25177   7.430   0.648   8.806
74427SOL    HW125178   7.394   0.567   8.770
74427SOL    HW225179   7.367   0.715   8.783
74428SOL     OW25180   3.555   5.086  11.582
74428SOL    HW125181   3.594   5.074  11.495
74428SOL    HW225182   3.492   5.157  11.570
74429SOL     OW25183   8.121  11.778  13.065
74429SOL    HW125184   8.038  11.771  13.112
74429SOL    HW225185   8.180  11.717  13.110
74430SOL     OW25186   5.705   8.953   5.829
74430SOL    HW125187   5.709   8.913   5.915
74430SOL    HW225188   5.732   9.044   5.844
74431SOL     OW25189   7.435  10.306  10.392
74431SOL    HW125190   7.482  10.353  10.461
74431SOL    HW225191   7.363  10.262  10.437
74432SOL     OW25192  10.127   4.196   0.329
74432SOL    HW125193  10.043   4.162   0.359
74432SOL    HW225194  10.146   4.269   0.388
74433SOL     OW25195   0.155   5.348   7.551
74433SOL    HW125196   0.126   5.429   7.508
74433SOL    HW225197   0.171   5.287   7.478
74434SOL     OW25198  13.115   3.754   4.181
74434SOL    HW125199  13.168   3.730   4.257
74434SOL    HW225200  13.173   3.741   4.106
74435SOL     OW25201   5.530   1.404   2.959
74435SOL    HW125202   5.449   1.367   2.994
74435SOL    HW225203   5.577   1.437   3.035
74436SOL     OW25204   1.387   4.890   3.217
74436SOL    HW125205   1.454   4.957   3.229
74436SOL    HW225206   1.430   4.823   3.164
74437SOL     OW25207   1.026   7.672  12.014
74437SOL    HW125208   0.952   7.633  12.059
74437SOL    HW225209   1.081   7.598  11.988
74438SOL     OW25210   2.687   7.932   4.974
74438SOL    HW125211   2.748   7.901   5.041
74438SOL    HW225212   2.708   7.880   4.897
74439SOL     OW25213   8.135   3.338   0.665
74439SOL    HW125214   8.173   3.354   0.579
74439SOL    HW225215   8.131   3.243   0.673
74440SOL     OW25216   0.289   6.882   3.060
74440SOL    HW125217   0.356   6.862   2.995
74440SOL    HW225218   0.323   6.957   3.107
74441SOL     OW25219  12.454   3.440   5.871
74441SOL    HW125220  12.537   3.413   5.832
74441SOL    HW225221  12.390   3.430   5.801
74442SOL     OW25222  11.375   7.036   0.460
74442SOL    HW125223  11.427   7.059   0.537
74442SOL    HW225224  11.288   7.071   0.479
74443SOL     OW25225  10.399   1.908   3.083
74443SOL    HW125226  10.339   1.834   3.097
74443SOL    HW225227  10.385   1.933   2.992
74444SOL     OW25228  14.466   3.655  13.862
74444SOL    HW125229  14.446   3.747  13.879
74444SOL    HW225230  14.413   3.632  13.785
74445SOL     OW25231   0.383  10.579   0.845
74445SOL    HW125232   0.376  10.593   0.939
74445SOL    HW225233   0.468  10.616   0.822
74446SOL     OW25234   2.434  11.779  13.460
74446SOL    HW125235   2.506  11.788  13.521
74446SOL    HW225236   2.400  11.691  13.476
74447SOL     OW25237   0.267   0.058   2.266
74447SOL    HW125238   0.290   0.069   2.174
74447SOL    HW225239   0.346   0.082   2.314
74448SOL     OW25240  12.736   8.331  11.275
74448SOL    HW125241  12.715   8.343  11.368
74448SOL    HW225242  12.730   8.419  11.238
74449SOL     OW25243   3.866   3.094   0.584
74449SOL    HW125244   3.903   3.071   0.669
74449SOL    HW225245   3.785   3.042   0.578
74450SOL     OW25246   0.744  11.416   8.148
74450SOL    HW125247   0.753  11.405   8.053
74450SOL    HW225248   0.670  11.476   8.158
74451SOL     OW25249  12.100  11.142  14.721
74451SOL    HW125250  12.045  11.080  14.673
74451SOL    HW225251  12.121  11.097  14.803
74452SOL     OW25252  12.742   8.016   2.525
74452SOL    HW125253  12.678   7.969   2.471
74452SOL    HW225254  12.695   8.094   2.556
74453SOL     OW25255   3.007   8.940   3.409
74453SOL    HW125256   2.953   9.009   3.370
74453SOL    HW225257   2.996   8.952   3.503
74454SOL     OW25258  12.149  10.523  10.930
74454SOL    HW125259  12.056  10.544  10.940
74454SOL    HW225260  12.152  10.463  10.855
74455SOL     OW25261   5.816   4.583   9.059
74455SOL    HW125262   5.816   4.517   8.990
74455SOL    HW225263   5.877   4.550   9.125
74456SOL     OW25264  10.795   9.674   5.955
74456SOL    HW125265  10.714   9.717   5.982
74456SOL    HW225266  10.857   9.693   6.026
74457SOL     OW25267  12.316   4.983   0.076
74457SOL    HW125268  12.248   4.934   0.122
74457SOL    HW225269  12.271   5.018  14.881
74458SOL     OW25270  12.041   1.666  12.154
74458SOL    HW125271  12.123   1.649  12.201
74458SOL    HW225272  12.012   1.751  12.187
74459SOL     OW25273   5.223  14.600   7.874
74459SOL    HW125274   5.173  14.570   7.950
74459SOL    HW225275   5.311  14.615   7.907
74460SOL     OW25276   6.086   4.604   8.147
74460SOL    HW125277   6.016   4.660   8.113
74460SOL    HW225278   6.150   4.599   8.076
74461SOL     OW25279  13.378  14.232  13.023
74461SOL    HW125280  13.305  14.293  13.013
74461SOL    HW225281  13.453  14.276  12.982
74462SOL     OW25282  11.062   4.777  13.903
74462SOL    HW125283  11.156   4.791  13.914
74462SOL    HW225284  11.053   4.683  13.891
74463SOL     OW25285   3.937   9.594  13.534
74463SOL    HW125286   3.994   9.665  13.507
74463SOL    HW225287   3.938   9.597  13.630
74464SOL     OW25288   3.939   6.144  10.617
74464SOL    HW125289   3.936   6.223  10.670
74464SOL    HW225290   3.880   6.161  10.544
74465SOL     OW25291   8.851   6.198   1.539
74465SOL    HW125292   8.804   6.262   1.484
74465SOL    HW225293   8.784   6.166   1.600
74466SOL     OW25294   7.841  12.279   1.476
74466SOL    HW125295   7.791  12.286   1.394
74466SOL    HW225296   7.829  12.189   1.505
74467SOL     OW25297   1.401   6.480  13.104
74467SOL    HW125298   1.495   6.491  13.114
74467SOL    HW225299   1.387   6.385  13.108
74468SOL     OW25300   4.158   3.148   0.665
74468SOL    HW125301   4.241   3.172   0.624
74468SOL    HW225302   4.112   3.232   0.677
74469SOL     OW25303   7.897  10.811  12.823
74469SOL    HW125304   7.807  10.795  12.797
74469SOL    HW225305   7.919  10.739  12.882
74470SOL     OW25306   6.570  12.112  10.089
74470SOL    HW125307   6.602  12.197  10.121
74470SOL    HW225308   6.494  12.134  10.034
74471SOL     OW25309  13.906   5.570  14.808
74471SOL    HW125310  13.939   5.555   0.015
74471SOL    HW225311  13.942   5.498  14.757
74472SOL     OW25312  14.184  14.598   3.140
74472SOL    HW125313  14.217  14.681   3.175
74472SOL    HW225314  14.100  14.620   3.100
74473SOL     OW25315   1.834  11.122   6.287
74473SOL    HW125316   1.870  11.202   6.248
74473SOL    HW225317   1.746  11.148   6.316
74474SOL     OW25318  10.777   6.188  14.040
74474SOL    HW125319  10.822   6.268  14.065
74474SOL    HW225320  10.760   6.143  14.122
74475SOL     OW25321  14.875   9.220   1.382
74475SOL    HW125322  14.852   9.174   1.463
74475SOL    HW225323  14.865   9.313   1.403
74476SOL     OW25324  10.707   7.031  12.278
74476SOL    HW125325  10.773   6.962  12.273
74476SOL    HW225326  10.758   7.112  12.286
74477SOL     OW25327   9.028  10.626   1.302
74477SOL    HW125328   9.080  10.623   1.222
74477SOL    HW225329   9.090  10.607   1.372
74478SOL     OW25330  14.104   1.615   8.718
74478SOL    HW125331  14.018   1.588   8.751
74478SOL    HW225332  14.103   1.710   8.725
74479SOL     OW25333   2.496   4.085   1.276
74479SOL    HW125334   2.498   4.030   1.198
74479SOL    HW225335   2.490   4.022   1.349
74480SOL     OW25336   3.982   7.134   3.129
74480SOL    HW125337   3.904   7.155   3.180
74480SOL    HW225338   4.055   7.170   3.179
74481SOL     OW25339   1.045   2.176   9.123
74481SOL    HW125340   1.007   2.241   9.183
74481SOL    HW225341   1.038   2.093   9.170
74482SOL     OW25342  13.306  11.717   4.659
74482SOL    HW125343  13.255  11.710   4.740
74482SOL    HW225344  13.261  11.784   4.608
74483SOL     OW25345  10.973   5.630   0.549
74483SOL    HW125346  11.013   5.609   0.634
74483SOL    HW225347  10.933   5.716   0.562
74484SOL     OW25348   6.575  13.004   6.038
74484SOL    HW125349   6.611  13.092   6.047
74484SOL    HW225350   6.623  12.951   6.102
74485SOL     OW25351  13.691  10.321   7.032
74485SOL    HW125352  13.704  10.297   6.940
74485SOL    HW225353  13.629  10.394   7.029
74486SOL     OW25354   1.003   0.095   7.671
74486SOL    HW125355   0.952   0.164   7.713
74486SOL    HW225356   1.090   0.133   7.660
74487SOL     OW25357  10.472   6.249   6.519
74487SOL    HW125358  10.491   6.313   6.450
74487SOL    HW225359  10.525   6.173   6.496
74488SOL     OW25360  11.929   9.532   6.401
74488SOL    HW125361  11.932   9.535   6.305
74488SOL    HW225362  11.836   9.527   6.422
74489SOL     OW25363  13.418   6.218   5.883
74489SOL    HW125364  13.335   6.263   5.894
74489SOL    HW225365  13.484   6.284   5.905
74490SOL     OW25366   4.077  13.542  11.685
74490SOL    HW125367   4.120  13.552  11.770
74490SOL    HW225368   4.049  13.451  11.682
74491SOL     OW25369  10.203   3.009   5.132
74491SOL    HW125370  10.122   3.029   5.178
74491SOL    HW225371  10.178   3.007   5.040
74492SOL     OW25372   6.903   6.445   9.738
74492SOL    HW125373   6.963   6.478   9.806
74492SOL    HW225374   6.859   6.523   9.705
74493SOL     OW25375   8.365  10.692   1.498
74493SOL    HW125376   8.421  10.713   1.423
74493SOL    HW225377   8.371  10.597   1.506
74494SOL     OW25378   3.842  13.208   4.086
74494SOL    HW125379   3.873  13.256   4.163
74494SOL    HW225380   3.748  13.198   4.102
74495SOL     OW25381   7.035  10.906  10.171
74495SOL    HW125382   7.019  10.877  10.261
74495SOL    HW225383   6.948  10.918  10.133
74496SOL     OW25384  11.780   9.853   8.912
74496SOL    HW125385  11.779   9.792   8.838
74496SOL    HW225386  11.713   9.918   8.890
74497SOL     OW25387   9.580   5.778   4.127
74497SOL    HW125388   9.541   5.758   4.042
74497SOL    HW225389   9.530   5.852   4.160
74498SOL     OW25390  11.511  10.609   7.112
74498SOL    HW125391  11.549  10.586   7.197
74498SOL    HW225392  11.566  10.565   7.048
74499SOL     OW25393   8.325  14.385   3.642
74499SOL    HW125394   8.420  14.371   3.637
74499SOL    HW225395   8.314  14.479   3.630
74500SOL     OW25396   7.475   6.768   2.317
74500SOL    HW125397   7.552   6.734   2.271
74500SOL    HW225398   7.448   6.844   2.265
74501SOL     OW25399   9.980   1.904   9.727
74501SOL    HW125400  10.004   1.883   9.818
74501SOL    HW225401  10.064   1.902   9.680
74502SOL     OW25402   8.641   8.843  13.608
74502SOL    HW125403   8.649   8.782  13.682
74502SOL    HW225404   8.716   8.822  13.552
74503SOL     OW25405   3.136   3.208  14.751
74503SOL    HW125406   3.044   3.230  14.764
74503SOL    HW225407   3.183   3.258  14.818
74504SOL     OW25408   6.837   1.600  11.596
74504SOL    HW125409   6.742   1.585  11.600
74504SOL    HW225410   6.848   1.668  11.530
74505SOL     OW25411   7.231   2.915  14.460
74505SOL    HW125412   7.265   2.826  14.447
74505SOL    HW225413   7.265   2.964  14.385
74506SOL     OW25414   5.552  13.535  11.721
74506SOL    HW125415   5.615  13.606  11.706
74506SOL    HW225416   5.510  13.557  11.804
74507SOL     OW25417   1.989   2.850  10.770
74507SOL    HW125418   2.011   2.942  10.784
74507SOL    HW225419   2.059   2.801  10.812
74508SOL     OW25420  11.350   9.317  12.375
74508SOL    HW125421  11.319   9.247  12.318
74508SOL    HW225422  11.400   9.272  12.443
74509SOL     OW25423   0.988   6.900  12.146
74509SOL    HW125424   0.983   6.914  12.052
74509SOL    HW225425   0.906   6.937  12.180
74510SOL     OW25426   4.421  10.632   9.407
74510SOL    HW125427   4.462  10.597   9.487
74510SOL    HW225428   4.459  10.579   9.336
74511SOL     OW25429  10.113   2.874  12.968
74511SOL    HW125430  10.110   2.850  12.876
74511SOL    HW225431  10.045   2.940  12.978
74512SOL     OW25432   9.742  12.573   4.249
74512SOL    HW125433   9.696  12.571   4.165
74512SOL    HW225434   9.672  12.583   4.314
74513SOL     OW25435   5.528  11.585   7.829
74513SOL    HW125436   5.490  11.622   7.909
74513SOL    HW225437   5.521  11.491   7.840
74514SOL     OW25438  12.260   7.210   2.334
74514SOL    HW125439  12.348   7.183   2.358
74514SOL    HW225440  12.273   7.292   2.286
74515SOL     OW25441   2.847  13.129  14.309
74515SOL    HW125442   2.758  13.126  14.344
74515SOL    HW225443   2.843  13.077  14.228
74516SOL     OW25444   4.330   8.149   0.861
74516SOL    HW125445   4.421   8.175   0.848
74516SOL    HW225446   4.335   8.061   0.897
74517SOL     OW25447  11.516   2.613   0.092
74517SOL    HW125448  11.525   2.518   0.086
74517SOL    HW225449  11.449   2.635   0.028
74518SOL     OW25450   0.973   6.602   8.941
74518SOL    HW125451   0.920   6.538   8.894
74518SOL    HW225452   1.054   6.608   8.890
74519SOL     OW25453   1.131   0.264   1.116
74519SOL    HW125454   1.184   0.256   1.037
74519SOL    HW225455   1.148   0.353   1.148
74520SOL     OW25456   1.397   8.387  13.738
74520SOL    HW125457   1.370   8.442  13.664
74520SOL    HW225458   1.361   8.300  13.718
74521SOL     OW25459   6.081   4.997   4.635
74521SOL    HW125460   6.115   5.019   4.722
74521SOL    HW225461   6.017   4.928   4.650
74522SOL     OW25462   0.272  11.522   4.648
74522SOL    HW125463   0.280  11.610   4.612
74522SOL    HW225464   0.288  11.533   4.741
74523SOL     OW25465   4.984   7.073   3.036
74523SOL    HW125466   4.953   7.059   2.946
74523SOL    HW225467   4.952   7.161   3.059
74524SOL     OW25468   9.493  13.470   5.154
74524SOL    HW125469   9.551  13.432   5.220
74524SOL    HW225470   9.531  13.556   5.135
74525SOL     OW25471   5.203  14.870   8.088
74525SOL    HW125472   5.190   0.022   8.000
74525SOL    HW225473   5.293  14.836   8.088
74526SOL     OW25474  12.344   0.874  11.016
74526SOL    HW125475  12.395   0.854  11.094
74526SOL    HW225476  12.406   0.918  10.958
74527SOL     OW25477   0.175  10.509  12.424
74527SOL    HW125478   0.185  10.604  12.427
74527SOL    HW225479   0.080  10.496  12.432
74528SOL     OW25480  14.221  12.114   8.882
74528SOL    HW125481  14.195  12.105   8.973
74528SOL    HW225482  14.206  12.027   8.844
74529SOL     OW25483  10.600  13.939   5.939
74529SOL    HW125484  10.631  13.868   5.884
74529SOL    HW225485  10.519  13.968   5.899
74530SOL     OW25486   6.091   2.647  11.511
74530SOL    HW125487   6.056   2.563  11.539
74530SOL    HW225488   6.014   2.700  11.489
74531SOL     OW25489  13.665   3.122  11.482
74531SOL    HW125490  13.698   3.130  11.572
74531SOL    HW225491  13.644   3.211  11.456
74532SOL     OW25492   6.402  13.648  14.293
74532SOL    HW125493   6.405  13.553  14.303
74532SOL    HW225494   6.475  13.681  14.345
74533SOL     OW25495  11.000  10.223  10.486
74533SOL    HW125496  10.967  10.259  10.404
74533SOL    HW225497  11.060  10.154  10.460
74534SOL     OW25498   5.712   9.969  10.215
74534SOL    HW125499   5.668   9.999  10.136
74534SOL    HW225500   5.736   9.878  10.197
74535SOL     OW25501   6.116   8.061   9.839
74535SOL    HW125502   6.103   8.099   9.752
74535SOL    HW225503   6.036   8.083   9.887
74536SOL     OW25504   0.415   7.011  10.344
74536SOL    HW125505   0.405   7.101  10.312
74536SOL    HW225506   0.331   6.969  10.326
74537SOL     OW25507   8.591  10.179  13.857
74537SOL    HW125508   8.599  10.089  13.826
74537SOL    HW225509   8.514  10.178  13.913
74538SOL     OW25510   9.645   1.368  11.197
74538SOL    HW125511   9.657   1.305  11.126
74538SOL    HW225512   9.575   1.331  11.250
74539SOL     OW25513   3.004   5.095   0.173
74539SOL    HW125514   3.007   5.181   0.216
74539SOL    HW225515   2.971   5.113   0.085
74540SOL     OW25516  13.979  10.213   8.427
74540SOL    HW125517  14.033  10.152   8.477
74540SOL    HW225518  14.003  10.299   8.462
74541SOL     OW25519   8.576  11.797   9.214
74541SOL    HW125520   8.589  11.751   9.132
74541SOL    HW225521   8.524  11.737   9.268
74542SOL     OW25522  13.564   2.205   3.854
74542SOL    HW125523  13.607   2.228   3.772
74542SOL    HW225524  13.521   2.287   3.882
74543SOL     OW25525  10.955   1.897   4.229
74543SOL    HW125526  11.013   1.830   4.194
74543SOL    HW225527  10.867   1.863   4.213
74544SOL     OW25528   9.572   8.336   9.915
74544SOL    HW125529   9.609   8.306   9.998
74544SOL    HW225530   9.628   8.409   9.889
74545SOL     OW25531   8.393  11.443  12.565
74545SOL    HW125532   8.340  11.388  12.623
74545SOL    HW225533   8.470  11.391  12.545
74546SOL     OW25534   3.191   2.987  14.637
74546SOL    HW125535   3.181   3.076  14.671
74546SOL    HW225536   3.106   2.966  14.599
74547SOL     OW25537   1.885   5.916  10.656
74547SOL    HW125538   1.945   5.864  10.710
74547SOL    HW225539   1.881   6.001  10.699
74548SOL     OW25540   9.634   2.310   4.315
74548SOL    HW125541   9.558   2.269   4.354
74548SOL    HW225542   9.603   2.395   4.284
74549SOL     OW25543  14.672   0.486  10.588
74549SOL    HW125544  14.588   0.455  10.556
74549SOL    HW225545  14.663   0.582  10.589
74550SOL     OW25546   9.474   4.339   4.381
74550SOL    HW125547   9.538   4.404   4.409
74550SOL    HW225548   9.402   4.390   4.344
74551SOL     OW25549   5.017   0.445  10.559
74551SOL    HW125550   5.050   0.395  10.634
74551SOL    HW225551   4.922   0.435  10.564
74552SOL     OW25552   1.657   9.258  11.129
74552SOL    HW125553   1.656   9.301  11.043
74552SOL    HW225554   1.565   9.249  11.153
74553SOL     OW25555  12.143   8.180   3.656
74553SOL    HW125556  12.219   8.176   3.714
74553SOL    HW225557  12.178   8.163   3.569
74554SOL     OW25558  12.244   2.620   7.308
74554SOL    HW125559  12.266   2.651   7.220
74554SOL    HW225560  12.149   2.616   7.309
74555SOL     OW25561   9.423  11.679  14.295
74555SOL    HW125562   9.507  11.717  14.318
74555SOL    HW225563   9.365  11.703  14.367
74556SOL     OW25564   2.231   1.258   0.217
74556SOL    HW125565   2.246   1.176   0.169
74556SOL    HW225566   2.151   1.294   0.179
74557SOL     OW25567  10.002   5.293  11.227
74557SOL    HW125568   9.928   5.289  11.289
74557SOL    HW225569  10.042   5.378  11.243
74558SOL     OW25570  11.104  11.644  12.926
74558SOL    HW125571  11.091  11.704  12.852
74558SOL    HW225572  11.092  11.557  12.888
74559SOL     OW25573   8.976  13.445   0.999
74559SOL    HW125574   8.904  13.503   0.973
74559SOL    HW225575   9.017  13.420   0.917
74560SOL     OW25576   8.792  11.678  13.947
74560SOL    HW125577   8.738  11.756  13.937
74560SOL    HW225578   8.801  11.643  13.858
74561SOL     OW25579   5.195   8.824   1.562
74561SOL    HW125580   5.172   8.770   1.637
74561SOL    HW225581   5.125   8.808   1.498
74562SOL     OW25582   8.953   6.594   6.654
74562SOL    HW125583   8.902   6.674   6.664
74562SOL    HW225584   8.895   6.536   6.604
74563SOL     OW25585  10.935   8.325  10.262
74563SOL    HW125586  11.029   8.329  10.277
74563SOL    HW225587  10.924   8.265  10.189
74564SOL     OW25588  13.600  12.827  11.867
74564SOL    HW125589  13.566  12.833  11.957
74564SOL    HW225590  13.671  12.891  11.865
74565SOL     OW25591   6.843   1.260  11.125
74565SOL    HW125592   6.801   1.310  11.054
74565SOL    HW225593   6.772   1.237  11.184
74566SOL     OW25594   3.940  12.870   6.070
74566SOL    HW125595   4.031  12.853   6.094
74566SOL    HW225596   3.918  12.801   6.008
74567SOL     OW25597   2.723  14.106   3.533
74567SOL    HW125598   2.745  14.064   3.450
74567SOL    HW225599   2.688  14.191   3.508
74568SOL     OW25600   3.394   3.971   5.574
74568SOL    HW125601   3.301   3.949   5.571
74568SOL    HW225602   3.421   3.949   5.663
74569SOL     OW25603  14.786   4.616   8.811
74569SOL    HW125604  14.715   4.552   8.803
74569SOL    HW225605  14.862   4.564   8.838
74570SOL     OW25606  13.665   5.655  11.081
74570SOL    HW125607  13.597   5.639  11.015
74570SOL    HW225608  13.747   5.640  11.034
74571SOL     OW25609   6.254   6.190   8.398
74571SOL    HW125610   6.302   6.268   8.370
74571SOL    HW225611   6.302   6.159   8.476
74572SOL     OW25612  10.968   5.930   0.883
74572SOL    HW125613  10.913   5.896   0.812
74572SOL    HW225614  10.931   6.016   0.902
74573SOL     OW25615   2.122   9.909   7.788
74573SOL    HW125616   2.088   9.881   7.872
74573SOL    HW225617   2.047   9.946   7.742
74574SOL     OW25618   2.171   8.240  10.856
74574SOL    HW125619   2.161   8.243  10.951
74574SOL    HW225620   2.263   8.259  10.840
74575SOL     OW25621   3.253   1.622  12.081
74575SOL    HW125622   3.219   1.708  12.059
74575SOL    HW225623   3.262   1.576  11.998
74576SOL     OW25624   1.009  13.049   3.747
74576SOL    HW125625   0.922  13.069   3.782
74576SOL    HW225626   1.011  12.953   3.742
74577SOL     OW25627  12.004  13.581  12.216
74577SOL    HW125628  12.089  13.619  12.235
74577SOL    HW225629  11.980  13.534  12.296
74578SOL     OW25630   7.050  13.006   8.602
74578SOL    HW125631   7.013  12.929   8.644
74578SOL    HW225632   7.131  12.975   8.562
74579SOL     OW25633  14.846   8.506   0.146
74579SOL    HW125634   0.034   8.443   0.160
74579SOL    HW225635   0.007   8.583   0.110
74580SOL     OW25636  14.222   9.339  14.877
74580SOL    HW125637  14.258   9.330   0.083
74580SOL    HW225638  14.288   9.297  14.820
74581SOL     OW25639  13.286  10.872  11.329
74581SOL    HW125640  13.205  10.824  11.313
74581SOL    HW225641  13.346  10.841  11.261
74582SOL     OW25642   5.127   4.026  14.747
74582SOL    HW125643   5.185   4.066  14.813
74582SOL    HW225644   5.067   4.096  14.723
74583SOL     OW25645   2.015   2.934  11.153
74583SOL    HW125646   2.038   3.020  11.188
74583SOL    HW225647   2.099   2.894  11.130
74584SOL     OW25648   0.668   7.600   9.336
74584SOL    HW125649   0.713   7.672   9.380
74584SOL    HW225650   0.701   7.602   9.246
74585SOL     OW25651  10.584   1.781   6.864
74585SOL    HW125652  10.574   1.685   6.866
74585SOL    HW225653  10.676   1.795   6.887
74586SOL     OW25654   4.960   9.123   9.672
74586SOL    HW125655   4.932   9.143   9.583
74586SOL    HW225656   4.893   9.064   9.706
74587SOL     OW25657  10.317   6.861   7.013
74587SOL    HW125658  10.380   6.932   7.002
74587SOL    HW225659  10.266   6.886   7.090
74588SOL     OW25660  10.137  12.912  11.822
74588SOL    HW125661  10.094  12.878  11.744
74588SOL    HW225662  10.087  12.991  11.845
74589SOL     OW25663   4.757   9.680  13.408
74589SOL    HW125664   4.725   9.590  13.420
74589SOL    HW225665   4.851   9.674  13.427
74590SOL     OW25666   6.620   8.985  14.862
74590SOL    HW125667   6.560   9.036  14.808
74590SOL    HW225668   6.613   9.025   0.067
74591SOL     OW25669   0.535   2.290  10.767
74591SOL    HW125670   0.626   2.290  10.795
74591SOL    HW225671   0.537   2.335  10.682
74592SOL     OW25672   4.514   4.000  10.832
74592SOL    HW125673   4.556   4.082  10.807
74592SOL    HW225674   4.543   3.983  10.921
74593SOL     OW25675   5.212   0.918  10.771
74593SOL    HW125676   5.215   1.004  10.813
74593SOL    HW225677   5.297   0.910  10.727
74594SOL     OW25678  10.659   3.725  12.585
74594SOL    HW125679  10.667   3.667  12.509
74594SOL    HW225680  10.714   3.686  12.652
74595SOL     OW25681   6.241   3.684   4.183
74595SOL    HW125682   6.331   3.712   4.198
74595SOL    HW225683   6.214   3.730   4.103
74596SOL     OW25684  12.882   5.952  12.380
74596SOL    HW125685  12.907   5.942  12.289
74596SOL    HW225686  12.930   6.028  12.410
74597SOL     OW25687   4.740   3.058   9.666
74597SOL    HW125688   4.730   3.063   9.571
74597SOL    HW225689   4.706   2.971   9.689
74598SOL     OW25690  10.831   9.841  10.992
74598SOL    HW125691  10.762   9.831  10.927
74598SOL    HW225692  10.909   9.806  10.949
74599SOL     OW25693  13.271   8.101   1.347
74599SOL    HW125694  13.298   8.185   1.385
74599SOL    HW225695  13.348   8.072   1.298
74600SOL     OW25696   0.715  14.698  13.264
74600SOL    HW125697   0.737  14.606  13.277
74600SOL    HW225698   0.748  14.718  13.176
74601SOL     OW25699   0.035  11.971  13.158
74601SOL    HW125700   0.016  11.878  13.166
74601SOL    HW225701  14.842  12.007  13.110
74602SOL     OW25702   1.642   9.129   6.699
74602SOL    HW125703   1.555   9.094   6.681
74602SOL    HW225704   1.692   9.109   6.620
74603SOL     OW25705   6.710   1.858  12.175
74603SOL    HW125706   6.776   1.789  12.176
74603SOL    HW225707   6.694   1.873  12.082
74604SOL     OW25708   5.444   6.367  10.723
74604SOL    HW125709   5.413   6.283  10.758
74604SOL    HW225710   5.537   6.370  10.745
74605SOL     OW25711   5.222   9.471   0.953
74605SOL    HW125712   5.261   9.409   1.015
74605SOL    HW225713   5.265   9.554   0.972
74606SOL     OW25714  10.263  14.683  10.926
74606SOL    HW125715  10.253  14.669  10.832
74606SOL    HW225716  10.223  14.769  10.942
74607SOL     OW25717   5.265   2.813  10.322
74607SOL    HW125718   5.264   2.772  10.408
74607SOL    HW225719   5.220   2.751  10.265
74608SOL     OW25720   5.883  13.124   0.261
74608SOL    HW125721   5.853  13.137   0.171
74608SOL    HW225722   5.846  13.039   0.287
74609SOL     OW25723   6.506   4.769   2.142
74609SOL    HW125724   6.440   4.700   2.132
74609SOL    HW225725   6.456   4.846   2.166
74610SOL     OW25726  11.510   2.302   2.880
74610SOL    HW125727  11.538   2.364   2.948
74610SOL    HW225728  11.573   2.314   2.809
74611SOL     OW25729  11.612   7.141   7.242
74611SOL    HW125730  11.631   7.223   7.197
74611SOL    HW225731  11.610   7.075   7.173
74612SOL     OW25732  13.114   4.459   4.092
74612SOL    HW125733  13.056   4.384   4.084
74612SOL    HW225734  13.172   4.437   4.165
74613SOL     OW25735  13.207  12.323   5.557
74613SOL    HW125736  13.148  12.386   5.516
74613SOL    HW225737  13.232  12.364   5.640
74614SOL     OW25738  12.178   3.614   2.949
74614SOL    HW125739  12.232   3.691   2.968
74614SOL    HW225740  12.093   3.650   2.923
74615SOL     OW25741  10.798   8.335  12.884
74615SOL    HW125742  10.828   8.247  12.862
74615SOL    HW225743  10.794   8.336  12.979
74616SOL     OW25744   7.833   5.556   7.004
74616SOL    HW125745   7.890   5.571   7.079
74616SOL    HW225746   7.766   5.624   7.012
74617SOL     OW25747   8.532   2.983  11.030
74617SOL    HW125748   8.440   2.961  11.041
74617SOL    HW225749   8.533   3.047  10.959
74618SOL     OW25750   2.935  13.742  10.000
74618SOL    HW125751   2.895  13.672  10.052
74618SOL    HW225752   2.885  13.743   9.918
74619SOL     OW25753   8.544   6.156   0.980
74619SOL    HW125754   8.571   6.179   0.891
74619SOL    HW225755   8.510   6.238   1.016
74620SOL     OW25756   8.721   3.263  11.748
74620SOL    HW125757   8.811   3.232  11.756
74620SOL    HW225758   8.723   3.353  11.779
74621SOL     OW25759   4.841   9.480  10.700
74621SOL    HW125760   4.881   9.460  10.784
74621SOL    HW225761   4.783   9.554  10.717
74622SOL     OW25762   0.898   5.559  10.610
74622SOL    HW125763   0.874   5.471  10.582
74622SOL    HW225764   0.834   5.581  10.678
74623SOL     OW25765   2.893  12.143   3.331
74623SOL    HW125766   2.833  12.124   3.403
74623SOL    HW225767   2.980  12.130   3.369
74624SOL     OW25768   7.406   4.962  14.074
74624SOL    HW125769   7.320   5.003  14.079
74624SOL    HW225770   7.439   4.987  13.987
74625SOL     OW25771   9.752  14.836  10.511
74625SOL    HW125772   9.669  14.795  10.537
74625SOL    HW225773   9.733  14.878  10.428
74626SOL     OW25774  12.428  12.713   2.188
74626SOL    HW125775  12.337  12.693   2.210
74626SOL    HW225776  12.472  12.716   2.273
74627SOL     OW25777   3.313   5.634  12.065
74627SOL    HW125778   3.265   5.647  12.147
74627SOL    HW225779   3.297   5.543  12.042
74628SOL     OW25780   5.834   2.520   0.022
74628SOL    HW125781   5.816   2.557   0.109
74628SOL    HW225782   5.747   2.513  14.863
74629SOL     OW25783  14.804  11.780  10.594
74629SOL    HW125784  14.810  11.767  10.499
74629SOL    HW225785   0.013  11.777  10.624
74630SOL     OW25786  10.980   0.126   4.291
74630SOL    HW125787  11.070   0.095   4.280
74630SOL    HW225788  10.927   0.046   4.284
74631SOL     OW25789   9.272   5.336   3.121
74631SOL    HW125790   9.362   5.306   3.109
74631SOL    HW225791   9.268   5.419   3.073
74632SOL     OW25792  13.285  12.247   0.849
74632SOL    HW125793  13.327  12.171   0.890
74632SOL    HW225794  13.329  12.323   0.888
74633SOL     OW25795   9.872  11.898   9.551
74633SOL    HW125796   9.904  11.974   9.599
74633SOL    HW225797   9.945  11.871   9.496
74634SOL     OW25798  11.655   4.802  10.386
74634SOL    HW125799  11.691   4.795  10.474
74634SOL    HW225800  11.652   4.711  10.354
74635SOL     OW25801   9.207   3.877  10.554
74635SOL    HW125802   9.133   3.922  10.593
74635SOL    HW225803   9.284   3.918  10.593
74636SOL     OW25804   1.208  12.923  11.630
74636SOL    HW125805   1.123  12.916  11.586
74636SOL    HW225806   1.187  12.950  11.719
74637SOL     OW25807   7.642   2.396   9.157
74637SOL    HW125808   7.596   2.363   9.234
74637SOL    HW225809   7.575   2.442   9.107
74638SOL     OW25810  14.775  13.236   0.256
74638SOL    HW125811  14.791  13.245   0.350
74638SOL    HW225812  14.716  13.309   0.235
74639SOL     OW25813   0.289   8.642  12.133
74639SOL    HW125814   0.370   8.594  12.120
74639SOL    HW225815   0.226   8.598  12.076
74640SOL     OW25816  13.183  10.893  13.499
74640SOL    HW125817  13.098  10.937  13.495
74640SOL    HW225818  13.188  10.844  13.416
74641SOL     OW25819   8.261   6.846   3.188
74641SOL    HW125820   8.320   6.783   3.230
74641SOL    HW225821   8.309   6.929   3.191
74642SOL     OW25822   9.503  14.583   7.302
74642SOL    HW125823   9.510  14.652   7.367
74642SOL    HW225824   9.411  14.557   7.304
74643SOL     OW25825   8.835   6.174  14.419
74643SOL    HW125826   8.756   6.176  14.473
74643SOL    HW225827   8.824   6.096  14.365
74644SOL     OW25828  10.045   6.586   0.892
74644SOL    HW125829   9.954   6.611   0.878
74644SOL    HW225830  10.050   6.565   0.985
74645SOL     OW25831   0.865   7.117  14.623
74645SOL    HW125832   0.907   7.200  14.646
74645SOL    HW225833   0.938   7.059  14.599
74646SOL     OW25834   2.852   0.204   2.100
74646SOL    HW125835   2.910   0.151   2.156
74646SOL    HW225836   2.893   0.201   2.014
74647SOL     OW25837   4.500   6.181   4.070
74647SOL    HW125838   4.468   6.162   4.159
74647SOL    HW225839   4.424   6.219   4.026
74648SOL     OW25840   9.458   7.578   6.721
74648SOL    HW125841   9.404   7.650   6.752
74648SOL    HW225842   9.517   7.559   6.794
74649SOL     OW25843  14.741   8.557   5.564
74649SOL    HW125844  14.784   8.599   5.639
74649SOL    HW225845  14.687   8.626   5.525
74650SOL     OW25846   2.685   1.719   2.788
74650SOL    HW125847   2.687   1.714   2.692
74650SOL    HW225848   2.763   1.671   2.816
74651SOL     OW25849  14.057   1.007  12.603
74651SOL    HW125850  13.995   1.043  12.540
74651SOL    HW225851  14.002   0.966  12.670
74652SOL     OW25852   7.755   0.758   1.505
74652SOL    HW125853   7.761   0.746   1.410
74652SOL    HW225854   7.695   0.690   1.535
74653SOL     OW25855  10.905  13.409  13.557
74653SOL    HW125856  10.898  13.324  13.601
74653SOL    HW225857  10.891  13.388  13.464
74654SOL     OW25858   5.878   5.107   6.122
74654SOL    HW125859   5.970   5.091   6.145
74654SOL    HW225860   5.881   5.182   6.062
74655SOL     OW25861  13.561   5.624   2.312
74655SOL    HW125862  13.644   5.602   2.271
74655SOL    HW225863  13.495   5.584   2.256
74656SOL     OW25864   7.882  13.317   3.454
74656SOL    HW125865   7.962  13.309   3.402
74656SOL    HW225866   7.900  13.266   3.533
74657SOL     OW25867  14.650   8.673   9.879
74657SOL    HW125868  14.665   8.686   9.785
74657SOL    HW225869  14.568   8.719   9.897
74658SOL     OW25870   9.225   0.883   9.306
74658SOL    HW125871   9.202   0.803   9.258
74658SOL    HW225872   9.313   0.868   9.339
74659SOL     OW25873   5.192  12.109   2.128
74659SOL    HW125874   5.107  12.098   2.085
74659SOL    HW225875   5.179  12.182   2.188
74660SOL     OW25876   8.756  12.951   9.020
74660SOL    HW125877   8.839  12.943   8.973
74660SOL    HW225878   8.704  12.876   8.989
74661SOL     OW25879   0.811   0.681   6.220
74661SOL    HW125880   0.789   0.728   6.301
74661SOL    HW225881   0.735   0.693   6.163
74662SOL     OW25882  10.005   6.430   2.714
74662SOL    HW125883  10.073   6.383   2.665
74662SOL    HW225884   9.928   6.425   2.658
74663SOL     OW25885  11.411  11.452   8.202
74663SOL    HW125886  11.488  11.506   8.183
74663SOL    HW225887  11.353  11.466   8.127
74664SOL     OW25888   1.365  14.150  11.307
74664SOL    HW125889   1.324  14.080  11.257
74664SOL    HW225890   1.316  14.151  11.390
74665SOL     OW25891   8.249  10.468   5.264
74665SOL    HW125892   8.184  10.495   5.198
74665SOL    HW225893   8.197  10.449   5.342
74666SOL     OW25894   7.137   7.683   9.565
74666SOL    HW125895   7.067   7.630   9.603
74666SOL    HW225896   7.217   7.644   9.600
74667SOL     OW25897  14.329  14.725  12.334
74667SOL    HW125898  14.393  14.679  12.389
74667SOL    HW225899  14.300  14.660  12.270
74668SOL     OW25900   5.477   7.798  11.584
74668SOL    HW125901   5.390   7.763  11.604
74668SOL    HW225902   5.520   7.805  11.670
74669SOL     OW25903   7.790   6.008  12.868
74669SOL    HW125904   7.759   5.923  12.837
74669SOL    HW225905   7.800   6.060  12.788
74670SOL     OW25906   3.697  12.335   7.458
74670SOL    HW125907   3.739  12.259   7.498
74670SOL    HW225908   3.726  12.409   7.512
74671SOL     OW25909   0.124   3.303  12.048
74671SOL    HW125910   0.204   3.286  12.098
74671SOL    HW225911   0.083   3.377  12.093
74672SOL     OW25912   3.832  12.068   0.827
74672SOL    HW125913   3.744  12.096   0.801
74672SOL    HW225914   3.831  11.973   0.817
74673SOL     OW25915  10.871   1.438   9.218
74673SOL    HW125916  10.821   1.370   9.264
74673SOL    HW225917  10.955   1.397   9.199
74674SOL     OW25918   6.090  12.643   7.974
74674SOL    HW125919   6.012  12.625   8.026
74674SOL    HW225920   6.081  12.735   7.948
74675SOL     OW25921  13.862   6.587  13.743
74675SOL    HW125922  13.816   6.537  13.810
74675SOL    HW225923  13.805   6.583  13.666
74676SOL     OW25924   2.525   3.839   1.463
74676SOL    HW125925   2.532   3.867   1.554
74676SOL    HW225926   2.524   3.744   1.467
74677SOL     OW25927  12.805   2.482   0.529
74677SOL    HW125928  12.869   2.430   0.480
74677SOL    HW225929  12.720   2.453   0.496
74678SOL     OW25930   1.147   9.074   5.450
74678SOL    HW125931   1.113   9.136   5.385
74678SOL    HW225932   1.190   9.130   5.515
74679SOL     OW25933   7.720   0.055   3.041
74679SOL    HW125934   7.816   0.055   3.039
74679SOL    HW225935   7.696   0.147   3.032
74680SOL     OW25936   5.346   5.334   2.016
74680SOL    HW125937   5.422   5.375   1.975
74680SOL    HW225938   5.370   5.241   2.025
74681SOL     OW25939   8.728   1.474   0.399
74681SOL    HW125940   8.763   1.385   0.397
74681SOL    HW225941   8.686   1.485   0.313
74682SOL     OW25942   8.735   4.950   3.304
74682SOL    HW125943   8.643   4.927   3.310
74682SOL    HW225944   8.761   4.923   3.216
74683SOL     OW25945   4.756   1.426  13.197
74683SOL    HW125946   4.754   1.371  13.275
74683SOL    HW225947   4.772   1.514  13.231
74684SOL     OW25948   2.657   4.580   7.195
74684SOL    HW125949   2.567   4.572   7.164
74684SOL    HW225950   2.710   4.576   7.115
74685SOL     OW25951   0.811   6.021  14.516
74685SOL    HW125952   0.744   5.985  14.458
74685SOL    HW225953   0.846   5.945  14.563
74686SOL     OW25954  12.675   2.768  10.152
74686SOL    HW125955  12.684   2.861  10.168
74686SOL    HW225956  12.622   2.762  10.072
74687SOL     OW25957   5.012  14.405   4.854
74687SOL    HW125958   4.956  14.345   4.902
74687SOL    HW225959   5.092  14.412   4.907
74688SOL     OW25960  14.192   9.290  11.701
74688SOL    HW125961  14.160   9.351  11.768
74688SOL    HW225962  14.272   9.330  11.667
74689SOL     OW25963   6.850  11.664   9.776
74689SOL    HW125964   6.827  11.594   9.837
74689SOL    HW225965   6.833  11.627   9.689
74690SOL     OW25966  10.050   5.201   2.079
74690SOL    HW125967   9.972   5.241   2.043
74690SOL    HW225968  10.082   5.143   2.009
74691SOL     OW25969   0.635   8.116  12.915
74691SOL    HW125970   0.617   8.133  12.822
74691SOL    HW225971   0.724   8.150  12.929
74692SOL     OW25972   4.307   6.827   4.575
74692SOL    HW125973   4.216   6.856   4.583
74692SOL    HW225974   4.355   6.907   4.551
74693SOL     OW25975   9.434   7.250  11.028
74693SOL    HW125976   9.351   7.274  10.988
74693SOL    HW225977   9.486   7.215  10.956
74694SOL     OW25978   3.408   2.333  10.791
74694SOL    HW125979   3.325   2.378  10.780
74694SOL    HW225980   3.384   2.242  10.812
74695SOL     OW25981   1.497   3.082   1.930
74695SOL    HW125982   1.402   3.083   1.914
74695SOL    HW225983   1.528   3.167   1.901
74696SOL     OW25984   8.891   4.926   3.967
74696SOL    HW125985   8.969   4.872   3.949
74696SOL    HW225986   8.871   4.968   3.883
74697SOL     OW25987   8.292   7.058   0.271
74697SOL    HW125988   8.228   7.099   0.329
74697SOL    HW225989   8.261   7.077   0.182
74698SOL     OW25990   2.684  14.835   0.089
74698SOL    HW125991   2.614  14.772   0.107
74698SOL    HW225992   2.716  14.812   0.002
74699SOL     OW25993   0.475   1.556  13.189
74699SOL    HW125994   0.526   1.537  13.268
74699SOL    HW225995   0.496   1.647  13.169
74700SOL     OW25996  12.956  12.941   1.553
74700SOL    HW125997  12.902  12.953   1.475
74700SOL    HW225998  12.937  12.853   1.583
74701SOL     OW25999   1.688   5.425  14.433
74701SOL    HW126000   1.609   5.453  14.387
74701SOL    HW226001   1.759   5.446  14.372
74702SOL     OW26002  11.131   6.379  13.616
74702SOL    HW126003  11.095   6.308  13.562
74702SOL    HW226004  11.226   6.370  13.608
74703SOL     OW26005   9.650  14.212   1.208
74703SOL    HW126006   9.647  14.234   1.115
74703SOL    HW226007   9.600  14.131   1.216
74704SOL     OW26008   7.776   8.817  12.851
74704SOL    HW126009   7.708   8.879  12.877
74704SOL    HW226010   7.753   8.736  12.896
74705SOL     OW26011  12.403   1.454   9.296
74705SOL    HW126012  12.371   1.539   9.326
74705SOL    HW226013  12.356   1.391   9.351
74706SOL     OW26014   2.681   6.077   4.316
74706SOL    HW126015   2.695   6.169   4.292
74706SOL    HW226016   2.752   6.030   4.271
74707SOL     OW26017   8.239  10.830  13.306
74707SOL    HW126018   8.328  10.849  13.276
74707SOL    HW226019   8.184  10.895  13.263
74708SOL     OW26020   8.637  13.855  14.404
74708SOL    HW126021   8.680  13.920  14.460
74708SOL    HW226022   8.664  13.771  14.439
74709SOL     OW26023  12.495  11.991   0.300
74709SOL    HW126024  12.533  12.018   0.216
74709SOL    HW226025  12.569  11.961   0.351
74710SOL     OW26026  13.820   5.601   9.196
74710SOL    HW126027  13.762   5.594   9.120
74710SOL    HW226028  13.864   5.685   9.186
74711SOL     OW26029  14.750  14.802   1.098
74711SOL    HW126030  14.830  14.846   1.127
74711SOL    HW226031  14.755  14.715   1.137
74712SOL     OW26032   5.198  10.041  12.086
74712SOL    HW126033   5.156  10.127  12.083
74712SOL    HW226034   5.157   9.992  12.015
74713SOL     OW26035   6.076  14.628  13.192
74713SOL    HW126036   6.109  14.564  13.129
74713SOL    HW226037   6.010  14.580  13.242
74714SOL     OW26038   6.634   7.374   7.520
74714SOL    HW126039   6.724   7.395   7.546
74714SOL    HW226040   6.640   7.356   7.426
74715SOL     OW26041   2.117   7.974   3.729
74715SOL    HW126042   2.043   8.005   3.677
74715SOL    HW226043   2.079   7.908   3.787
74716SOL     OW26044   2.423  11.348  10.402
74716SOL    HW126045   2.340  11.314  10.434
74716SOL    HW226046   2.401  11.433  10.365
74717SOL     OW26047  10.609   9.019  10.548
74717SOL    HW126048  10.650   9.028  10.634
74717SOL    HW226049  10.602   8.925  10.535
74718SOL     OW26050   1.147  14.174  13.738
74718SOL    HW126051   1.113  14.236  13.803
74718SOL    HW226052   1.088  14.099  13.743
74719SOL     OW26053  10.515   9.543  11.599
74719SOL    HW126054  10.442   9.601  11.576
74719SOL    HW226055  10.478   9.455  11.595
74720SOL     OW26056   5.671   6.815   8.658
74720SOL    HW126057   5.681   6.836   8.565
74720SOL    HW226058   5.584   6.777   8.665
74721SOL     OW26059  14.708  10.248   8.319
74721SOL    HW126060  14.699  10.297   8.237
74721SOL    HW226061  14.797  10.269   8.349
74722SOL     OW26062   5.495   8.031   9.269
74722SOL    HW126063   5.552   7.954   9.261
74722SOL    HW226064   5.469   8.031   9.362
74723SOL     OW26065   9.711  13.476  13.178
74723SOL    HW126066   9.721  13.549  13.240
74723SOL    HW226067   9.787  13.483  13.121
74724SOL     OW26068  10.587   8.985  14.254
74724SOL    HW126069  10.505   8.991  14.206
74724SOL    HW226070  10.637   8.917  14.208
74725SOL     OW26071   5.880   0.305   3.453
74725SOL    HW126072   5.788   0.319   3.475
74725SOL    HW226073   5.929   0.351   3.521
74726SOL     OW26074   8.858  12.889  10.439
74726SOL    HW126075   8.923  12.874  10.508
74726SOL    HW226076   8.893  12.842  10.363
74727SOL     OW26077  11.711   5.848   9.664
74727SOL    HW126078  11.661   5.773   9.696
74727SOL    HW226079  11.654   5.923   9.680
74728SOL     OW26080   0.339   8.220   5.413
74728SOL    HW126081   0.382   8.136   5.423
74728SOL    HW226082   0.258   8.200   5.366
74729SOL     OW26083  12.792  11.900   6.682
74729SOL    HW126084  12.794  11.865   6.771
74729SOL    HW226085  12.705  11.876   6.649
74730SOL     OW26086  12.178   6.728  14.736
74730SOL    HW126087  12.120   6.750  14.662
74730SOL    HW226088  12.262   6.768  14.713
74731SOL     OW26089   2.812   8.417   6.574
74731SOL    HW126090   2.791   8.355   6.504
74731SOL    HW226091   2.745   8.485   6.567
74732SOL     OW26092   9.192   1.338   7.182
74732SOL    HW126093   9.143   1.410   7.142
74732SOL    HW226094   9.136   1.262   7.169
74733SOL     OW26095   5.143   4.131  12.142
74733SOL    HW126096   5.126   4.164  12.054
74733SOL    HW226097   5.186   4.047  12.129
74734SOL     OW26098   9.161   5.648   1.822
74734SOL    HW126099   9.167   5.556   1.794
74734SOL    HW226100   9.245   5.665   1.864
74735SOL     OW26101   2.608   5.406  10.603
74735SOL    HW126102   2.513   5.395  10.604
74735SOL    HW226103   2.642   5.319  10.580
74736SOL     OW26104   7.743   7.557   8.276
74736SOL    HW126105   7.771   7.471   8.310
74736SOL    HW226106   7.743   7.614   8.353
74737SOL     OW26107  10.273  13.866   3.301
74737SOL    HW126108  10.219  13.931   3.256
74737SOL    HW226109  10.213  13.820   3.359
74738SOL     OW26110   9.818   4.516   7.832
74738SOL    HW126111   9.745   4.530   7.771
74738SOL    HW226112   9.784   4.545   7.916
74739SOL     OW26113  12.886  11.058   4.161
74739SOL    HW126114  12.861  11.023   4.247
74739SOL    HW226115  12.945  11.130   4.181
74740SOL     OW26116   1.057   1.514  14.880
74740SOL    HW126117   1.038   1.449  14.812
74740SOL    HW226118   1.034   1.597  14.840
74741SOL     OW26119   4.124   2.581   7.842
74741SOL    HW126120   4.085   2.645   7.901
74741SOL    HW226121   4.180   2.634   7.784
74742SOL     OW26122   8.057   0.020  11.168
74742SOL    HW126123   8.064   0.028  11.073
74742SOL    HW226124   7.965   0.001  11.183
74743SOL     OW26125  14.323  10.523  10.364
74743SOL    HW126126  14.290  10.609  10.340
74743SOL    HW226127  14.246  10.474  10.392
74744SOL     OW26128   0.336   5.459   6.510
74744SOL    HW126129   0.241   5.464   6.496
74744SOL    HW226130   0.365   5.394   6.446
74745SOL     OW26131   0.146   6.939   8.350
74745SOL    HW126132   0.203   6.890   8.409
74745SOL    HW226133   0.064   6.948   8.399
74746SOL     OW26134   3.406  12.993   6.668
74746SOL    HW126135   3.431  13.085   6.664
74746SOL    HW226136   3.408  12.964   6.577
74747SOL     OW26137  14.297  14.622  11.282
74747SOL    HW126138  14.330  14.590  11.366
74747SOL    HW226139  14.274  14.542  11.234
74748SOL     OW26140   0.671   9.277   3.647
74748SOL    HW126141   0.582   9.302   3.670
74748SOL    HW226142   0.716   9.268   3.731
74749SOL     OW26143   9.872   9.314   0.950
74749SOL    HW126144   9.941   9.271   0.899
74749SOL    HW226145   9.792   9.268   0.924
74750SOL     OW26146   2.451   6.029   6.623
74750SOL    HW126147   2.471   5.951   6.571
74750SOL    HW226148   2.365   6.012   6.661
74751SOL     OW26149   0.913  13.414   3.252
74751SOL    HW126150   0.934  13.320   3.255
74751SOL    HW226151   0.845  13.420   3.185
74752SOL     OW26152   7.247  14.236   2.086
74752SOL    HW126153   7.310  14.179   2.042
74752SOL    HW226154   7.262  14.222   2.179
74753SOL     OW26155  14.019   9.546   5.919
74753SOL    HW126156  14.110   9.559   5.894
74753SOL    HW226157  14.013   9.583   6.007
74754SOL     OW26158   0.211  10.493   8.269
74754SOL    HW126159   0.243  10.447   8.191
74754SOL    HW226160   0.190  10.422   8.331
74755SOL     OW26161  11.423  11.938   3.703
74755SOL    HW126162  11.393  12.028   3.709
74755SOL    HW226163  11.409  11.914   3.611
74756SOL     OW26164   4.632  13.959   7.889
74756SOL    HW126165   4.592  13.912   7.817
74756SOL    HW226166   4.667  14.039   7.850
74757SOL     OW26167  14.072   0.980   4.831
74757SOL    HW126168  14.066   0.906   4.769
74757SOL    HW226169  14.141   1.035   4.795
74758SOL     OW26170   2.881   1.394   5.779
74758SOL    HW126171   2.804   1.405   5.835
74758SOL    HW226172   2.907   1.483   5.757
74759SOL     OW26173  13.505   7.768  13.080
74759SOL    HW126174  13.458   7.739  13.158
74759SOL    HW226175  13.561   7.839  13.111
74760SOL     OW26176  10.289   4.142   3.996
74760SOL    HW126177  10.235   4.105   4.066
74760SOL    HW226178  10.378   4.137   4.030
74761SOL     OW26179   7.493   6.051   6.710
74761SOL    HW126180   7.541   6.056   6.627
74761SOL    HW226181   7.542   6.108   6.769
74762SOL     OW26182   6.912  13.875  13.156
74762SOL    HW126183   6.890  13.951  13.210
74762SOL    HW226184   6.900  13.799  13.214
74763SOL     OW26185   2.167   4.787   6.129
74763SOL    HW126186   2.074   4.800   6.144
74763SOL    HW226187   2.193   4.862   6.075
74764SOL     OW26188   5.564   9.471   6.853
74764SOL    HW126189   5.483   9.498   6.895
74764SOL    HW226190   5.537   9.434   6.768
74765SOL     OW26191  10.842   4.300   2.421
74765SOL    HW126192  10.936   4.296   2.439
74765SOL    HW226193  10.802   4.322   2.505
74766SOL     OW26194   7.346  14.005   3.637
74766SOL    HW126195   7.412  13.941   3.608
74766SOL    HW226196   7.358  14.010   3.732
74767SOL     OW26197   8.152   2.721   7.379
74767SOL    HW126198   8.111   2.671   7.309
74767SOL    HW226199   8.130   2.673   7.459
74768SOL     OW26200   8.877   3.792   9.871
74768SOL    HW126201   8.828   3.722   9.914
74768SOL    HW226202   8.950   3.811   9.929
74769SOL     OW26203  11.191   5.198  13.720
74769SOL    HW126204  11.120   5.251  13.686
74769SOL    HW226205  11.182   5.114  13.675
74770SOL     OW26206   2.210  11.768   6.587
74770SOL    HW126207   2.145  11.724   6.532
74770SOL    HW226208   2.175  11.761   6.675
74771SOL     OW26209   8.501  12.414   3.840
74771SOL    HW126210   8.499  12.333   3.789
74771SOL    HW226211   8.424  12.409   3.896
74772SOL     OW26212   1.431   2.087   6.649
74772SOL    HW126213   1.393   2.030   6.717
74772SOL    HW226214   1.384   2.063   6.569
74773SOL     OW26215   5.685  11.072   5.866
74773SOL    HW126216   5.730  10.989   5.884
74773SOL    HW226217   5.606  11.069   5.920
74774SOL     OW26218   8.054   2.194   5.825
74774SOL    HW126219   7.981   2.235   5.777
74774SOL    HW226220   8.089   2.265   5.879
74775SOL     OW26221  11.571   3.180  12.445
74775SOL    HW126222  11.644   3.129  12.409
74775SOL    HW226223  11.609   3.265  12.466
74776SOL     OW26224   9.719  11.673   0.362
74776SOL    HW126225   9.779  11.735   0.403
74776SOL    HW226226   9.766  11.641   0.285
74777SOL     OW26227   6.806   8.222   8.041
74777SOL    HW126228   6.819   8.181   8.126
74777SOL    HW226229   6.887   8.204   7.993
74778SOL     OW26230   8.559   6.084   5.560
74778SOL    HW126231   8.588   6.173   5.538
74778SOL    HW226232   8.570   6.079   5.655
74779SOL     OW26233   4.007   7.370  11.936
74779SOL    HW126234   4.026   7.458  11.904
74779SOL    HW226235   3.913   7.369  11.951
74780SOL     OW26236   8.016   5.233  11.722
74780SOL    HW126237   7.944   5.275  11.675
74780SOL    HW226238   7.976   5.157  11.764
74781SOL     OW26239   5.337   6.250   6.639
74781SOL    HW126240   5.313   6.262   6.547
74781SOL    HW226241   5.341   6.338   6.675
74782SOL     OW26242   2.796  11.127   8.707
74782SOL    HW126243   2.707  11.091   8.708
74782SOL    HW226244   2.842  11.076   8.641
74783SOL     OW26245   3.590   4.298  12.321
74783SOL    HW126246   3.659   4.271  12.381
74783SOL    HW226247   3.513   4.308  12.377
74784SOL     OW26248   4.389  11.118   0.722
74784SOL    HW126249   4.482  11.128   0.699
74784SOL    HW226250   4.390  11.078   0.809
74785SOL     OW26251   1.037   1.942  11.393
74785SOL    HW126252   1.002   1.854  11.406
74785SOL    HW226253   0.984   1.998  11.451
74786SOL     OW26254  13.677  14.780   0.991
74786SOL    HW126255  13.708  14.855   0.940
74786SOL    HW226256  13.756  14.732   1.014
74787SOL     OW26257   9.024   1.806   3.390
74787SOL    HW126258   8.940   1.838   3.357
74787SOL    HW226259   9.066   1.884   3.426
74788SOL     OW26260   0.476   5.565   5.390
74788SOL    HW126261   0.392   5.611   5.385
74788SOL    HW226262   0.539   5.632   5.415
74789SOL     OW26263   4.328   9.791  13.995
74789SOL    HW126264   4.324   9.762  14.086
74789SOL    HW226265   4.249   9.843  13.983
74790SOL     OW26266   5.817  12.148   5.755
74790SOL    HW126267   5.856  12.235   5.767
74790SOL    HW226268   5.873  12.106   5.690
74791SOL     OW26269   3.928   4.945   4.977
74791SOL    HW126270   4.008   4.955   5.028
74791SOL    HW226271   3.959   4.924   4.888
74792SOL     OW26272  12.060   9.362   5.135
74792SOL    HW126273  11.980   9.412   5.117
74792SOL    HW226274  12.055   9.340   5.228
74793SOL     OW26275  14.458  11.710   4.400
74793SOL    HW126276  14.380  11.655   4.409
74793SOL    HW226277  14.460  11.733   4.307
74794SOL     OW26278  12.933   8.804   7.969
74794SOL    HW126279  12.945   8.758   7.886
74794SOL    HW226280  12.936   8.896   7.946
74795SOL     OW26281   8.638   0.928   7.723
74795SOL    HW126282   8.607   0.838   7.732
74795SOL    HW226283   8.673   0.933   7.634
74796SOL     OW26284   3.950   4.080  14.489
74796SOL    HW126285   4.036   4.112  14.516
74796SOL    HW226286   3.936   4.118  14.402
74797SOL     OW26287   8.883  14.785   4.976
74797SOL    HW126288   8.867  14.698   5.013
74797SOL    HW226289   8.897  14.841   5.053
74798SOL     OW26290   2.897   8.197   1.707
74798SOL    HW126291   2.905   8.281   1.752
74798SOL    HW226292   2.988   8.169   1.693
74799SOL     OW26293   5.862  12.775   7.106
74799SOL    HW126294   5.827  12.818   7.184
74799SOL    HW226295   5.811  12.812   7.034
74800SOL     OW26296   6.014   1.494   2.744
74800SOL    HW126297   5.981   1.527   2.660
74800SOL    HW226298   6.055   1.570   2.785
74801SOL     OW26299   0.825   4.547  14.425
74801SOL    HW126300   0.762   4.613  14.394
74801SOL    HW226301   0.884   4.596  14.482
74802SOL     OW26302   0.026   7.899   1.075
74802SOL    HW126303   0.052   7.849   1.153
74802SOL    HW226304  14.820   7.868   1.055
74803SOL     OW26305   2.803   9.772   9.713
74803SOL    HW126306   2.854   9.773   9.794
74803SOL    HW226307   2.719   9.810   9.737
74804SOL     OW26308  11.293   2.679   4.954
74804SOL    HW126309  11.213   2.730   4.968
74804SOL    HW226310  11.269   2.614   4.888
74805SOL     OW26311   1.289  12.874   5.206
74805SOL    HW126312   1.268  12.861   5.114
74805SOL    HW226313   1.207  12.902   5.246
74806SOL     OW26314   0.300   1.191   8.958
74806SOL    HW126315   0.279   1.275   8.997
74806SOL    HW226316   0.362   1.151   9.019
74807SOL     OW26317  13.210   6.703   4.512
74807SOL    HW126318  13.198   6.789   4.551
74807SOL    HW226319  13.152   6.702   4.437
74808SOL     OW26320  12.674   0.894   1.111
74808SOL    HW126321  12.752   0.915   1.162
74808SOL    HW226322  12.678   0.954   1.036
74809SOL     OW26323   8.877   0.995  12.110
74809SOL    HW126324   8.808   1.042  12.158
74809SOL    HW226325   8.895   1.050  12.034
74810SOL     OW26326   8.765  10.926  10.480
74810SOL    HW126327   8.838  10.988  10.485
74810SOL    HW226328   8.693  10.970  10.525
74811SOL     OW26329   6.143  11.609   5.347
74811SOL    HW126330   6.169  11.570   5.263
74811SOL    HW226331   6.213  11.670   5.368
74812SOL     OW26332  11.935  13.114   7.845
74812SOL    HW126333  11.858  13.112   7.790
74812SOL    HW226334  11.994  13.049   7.807
74813SOL     OW26335   0.764   7.855   3.505
74813SOL    HW126336   0.692   7.792   3.497
74813SOL    HW226337   0.733   7.919   3.569
74814SOL     OW26338   6.229   2.108   7.495
74814SOL    HW126339   6.184   2.176   7.445
74814SOL    HW226340   6.254   2.043   7.430
74815SOL     OW26341   0.043   8.679  12.302
74815SOL    HW126342   0.048   8.621  12.378
74815SOL    HW226343   0.105   8.642  12.239
74816SOL     OW26344  11.287   2.494  14.509
74816SOL    HW126345  11.256   2.570  14.459
74816SOL    HW226346  11.251   2.506  14.596
74817SOL     OW26347   9.545   6.567  10.162
74817SOL    HW126348   9.573   6.506  10.094
74817SOL    HW226349   9.453   6.584  10.142
74818SOL     OW26350   7.891   0.261   7.475
74818SOL    HW126351   7.834   0.203   7.425
74818SOL    HW226352   7.960   0.286   7.414
74819SOL     OW26353   1.284   5.191   3.479
74819SOL    HW126354   1.285   5.265   3.419
74819SOL    HW226355   1.345   5.216   3.549
74820SOL     OW26356  14.692   7.463  13.970
74820SOL    HW126357  14.676   7.554  13.997
74820SOL    HW226358  14.732   7.472  13.883
74821SOL     OW26359   6.282  14.555  12.912
74821SOL    HW126360   6.212  14.518  12.858
74821SOL    HW226361   6.281  14.648  12.892
74822SOL     OW26362   1.248  11.173   0.162
74822SOL    HW126363   1.311  11.145   0.096
74822SOL    HW226364   1.172  11.118   0.148
74823SOL     OW26365   0.823   7.984   2.233
74823SOL    HW126366   0.815   7.888   2.236
74823SOL    HW226367   0.897   8.003   2.291
74824SOL     OW26368   9.507  13.242   2.990
74824SOL    HW126369   9.568  13.192   3.045
74824SOL    HW226370   9.559  13.267   2.913
74825SOL     OW26371   9.400  12.461   2.756
74825SOL    HW126372   9.338  12.388   2.762
74825SOL    HW226373   9.479  12.422   2.717
74826SOL     OW26374   2.175   2.995   6.945
74826SOL    HW126375   2.171   3.043   7.028
74826SOL    HW226376   2.264   2.960   6.942
74827SOL     OW26377  13.306   9.640  10.637
74827SOL    HW126378  13.220   9.637  10.680
74827SOL    HW226379  13.307   9.723  10.590
74828SOL     OW26380   8.980   3.041   9.860
74828SOL    HW126381   8.920   2.969   9.841
74828SOL    HW226382   9.049   3.033   9.795
74829SOL     OW26383  10.658   6.163   7.963
74829SOL    HW126384  10.631   6.254   7.971
74829SOL    HW226385  10.743   6.159   8.008
74830SOL     OW26386   0.705   8.431   2.903
74830SOL    HW126387   0.638   8.413   2.838
74830SOL    HW226388   0.697   8.359   2.966
74831SOL     OW26389   9.829  12.391  10.680
74831SOL    HW126390   9.803  12.375  10.771
74831SOL    HW226391   9.848  12.305  10.645
74832SOL     OW26392   7.515   6.402   4.459
74832SOL    HW126393   7.556   6.316   4.471
74832SOL    HW226394   7.493   6.430   4.548
74833SOL     OW26395  11.585   5.236   3.096
74833SOL    HW126396  11.607   5.171   3.162
74833SOL    HW226397  11.666   5.248   3.046
74834SOL     OW26398   3.186   6.646   0.387
74834SOL    HW126399   3.114   6.604   0.434
74834SOL    HW226400   3.262   6.635   0.444
74835SOL     OW26401  14.642  12.219   9.598
74835SOL    HW126402  14.693  12.187   9.673
74835SOL    HW226403  14.559  12.173   9.604
74836SOL     OW26404   9.950   8.775   8.261
74836SOL    HW126405   9.994   8.860   8.266
74836SOL    HW226406   9.874   8.790   8.206
74837SOL     OW26407   1.428  13.518  14.459
74837SOL    HW126408   1.396  13.599  14.420
74837SOL    HW226409   1.474  13.546  14.538
74838SOL     OW26410   0.558   2.842  10.883
74838SOL    HW126411   0.552   2.791  10.802
74838SOL    HW226412   0.572   2.932  10.854
74839SOL     OW26413   4.814   5.760   4.018
74839SOL    HW126414   4.806   5.844   4.064
74839SOL    HW226415   4.724   5.737   3.994
74840SOL     OW26416   6.654   7.885   7.595
74840SOL    HW126417   6.666   7.933   7.513
74840SOL    HW226418   6.669   7.794   7.572
74841SOL     OW26419   0.845  11.387   9.353
74841SOL    HW126420   0.788  11.463   9.365
74841SOL    HW226421   0.792  11.325   9.302
74842SOL     OW26422  10.339  11.915  13.269
74842SOL    HW126423  10.416  11.940  13.320
74842SOL    HW226424  10.356  11.825  13.241
74843SOL     OW26425  12.031   1.993   9.845
74843SOL    HW126426  12.116   1.961   9.873
74843SOL    HW226427  12.042   2.012   9.751
74844SOL     OW26428   2.878   6.077  11.808
74844SOL    HW126429   2.967   6.108  11.796
74844SOL    HW226430   2.859   6.027  11.728
74845SOL     OW26431  13.585   7.112   7.472
74845SOL    HW126432  13.494   7.095   7.497
74845SOL    HW226433  13.635   7.101   7.553
74846SOL     OW26434   4.478   8.214   0.381
74846SOL    HW126435   4.551   8.259   0.425
74846SOL    HW226436   4.516   8.131   0.352
74847SOL     OW26437  12.918  11.492   6.033
74847SOL    HW126438  12.882  11.555   5.970
74847SOL    HW226439  12.907  11.407   5.991
74848SOL     OW26440  10.783  14.002   3.886
74848SOL    HW126441  10.819  13.986   3.974
74848SOL    HW226442  10.749  13.917   3.858
74849SOL     OW26443   7.728  13.404  10.300
74849SOL    HW126444   7.652  13.358  10.337
74849SOL    HW226445   7.692  13.481  10.258
74850SOL     OW26446   1.155   7.123   8.571
74850SOL    HW126447   1.092   7.092   8.506
74850SOL    HW226448   1.240   7.119   8.526
74851SOL     OW26449   5.836  11.522   3.170
74851SOL    HW126450   5.849  11.448   3.111
74851SOL    HW226451   5.764  11.495   3.227
74852SOL     OW26452  10.745   2.806  11.884
74852SOL    HW126453  10.769   2.776  11.971
74852SOL    HW226454  10.824   2.792  11.831
74853SOL     OW26455  10.130   1.070   5.828
74853SOL    HW126456  10.184   1.119   5.765
74853SOL    HW226457  10.180   1.075   5.910
74854SOL     OW26458   0.471  10.492   4.322
74854SOL    HW126459   0.516  10.408   4.333
74854SOL    HW226460   0.431  10.487   4.236
74855SOL     OW26461   1.244   8.485   2.203
74855SOL    HW126462   1.316   8.423   2.215
74855SOL    HW226463   1.228   8.521   2.290
74856SOL     OW26464   4.744  12.586  12.747
74856SOL    HW126465   4.676  12.560  12.809
74856SOL    HW226466   4.721  12.539  12.666
74857SOL     OW26467   2.583   4.854   3.072
74857SOL    HW126468   2.549   4.844   2.983
74857SOL    HW226469   2.636   4.933   3.068
74858SOL     OW26470   2.915   6.198   5.290
74858SOL    HW126471   2.970   6.228   5.362
74858SOL    HW226472   2.852   6.139   5.330
74859SOL     OW26473   7.410   3.861   9.570
74859SOL    HW126474   7.353   3.917   9.519
74859SOL    HW226475   7.437   3.915   9.645
74860SOL     OW26476  10.233   7.862   5.071
74860SOL    HW126477  10.235   7.927   5.001
74860SOL    HW226478  10.183   7.905   5.141
74861SOL     OW26479   3.459   6.451   2.893
74861SOL    HW126480   3.505   6.393   2.953
74861SOL    HW226481   3.374   6.467   2.934
74862SOL     OW26482  14.135   4.337   0.476
74862SOL    HW126483  14.086   4.303   0.551
74862SOL    HW226484  14.218   4.367   0.515
74863SOL     OW26485   3.863   9.586   4.765
74863SOL    HW126486   3.806   9.582   4.688
74863SOL    HW226487   3.929   9.652   4.744
74864SOL     OW26488   7.389  11.182   1.495
74864SOL    HW126489   7.403  11.214   1.406
74864SOL    HW226490   7.458  11.225   1.546
74865SOL     OW26491   9.822  12.114   2.654
74865SOL    HW126492   9.911  12.146   2.637
74865SOL    HW226493   9.835  12.026   2.690
74866SOL     OW26494  11.570   9.484   8.751
74866SOL    HW126495  11.659   9.504   8.780
74866SOL    HW226496  11.529   9.443   8.827
74867SOL     OW26497  14.868   7.372  10.826
74867SOL    HW126498   0.005   7.433  10.897
74867SOL    HW226499  14.795   7.412  10.779
74868SOL     OW26500  10.954  12.387   0.550
74868SOL    HW126501  10.943  12.294   0.533
74868SOL    HW226502  10.980  12.423   0.465
74869SOL     OW26503  11.492  14.372   4.059
74869SOL    HW126504  11.582  14.376   4.092
74869SOL    HW226505  11.488  14.291   4.008
74870SOL     OW26506  13.027   3.026  14.684
74870SOL    HW126507  12.933   3.030  14.670
74870SOL    HW226508  13.046   2.934  14.697
74871SOL     OW26509  10.931   9.579   8.277
74871SOL    HW126510  10.892   9.654   8.232
74871SOL    HW226511  10.912   9.593   8.369
74872SOL     OW26512   1.732   4.793   3.254
74872SOL    HW126513   1.799   4.793   3.322
74872SOL    HW226514   1.651   4.819   3.298
74873SOL     OW26515   6.013  13.507   5.577
74873SOL    HW126516   5.986  13.556   5.499
74873SOL    HW226517   6.085  13.452   5.546
74874SOL     OW26518   7.711  14.357   1.312
74874SOL    HW126519   7.723  14.352   1.407
74874SOL    HW226520   7.665  14.276   1.290
74875SOL     OW26521  13.630   4.752   3.829
74875SOL    HW126522  13.572   4.700   3.885
74875SOL    HW226523  13.696   4.787   3.890
74876SOL     OW26524  13.205   0.907   5.456
74876SOL    HW126525  13.124   0.893   5.406
74876SOL    HW226526  13.251   0.976   5.408
74877SOL     OW26527  12.933  11.925  11.492
74877SOL    HW126528  12.957  11.994  11.430
74877SOL    HW226529  12.972  11.952  11.575
74878SOL     OW26530   2.547   1.202   1.195
74878SOL    HW126531   2.529   1.223   1.287
74878SOL    HW226532   2.632   1.244   1.177
74879SOL     OW26533  12.604   9.007   7.761
74879SOL    HW126534  12.572   9.083   7.809
74879SOL    HW226535  12.556   8.933   7.799
74880SOL     OW26536  13.628   5.482  11.551
74880SOL    HW126537  13.690   5.414  11.526
74880SOL    HW226538  13.633   5.547  11.480
74881SOL     OW26539  14.835   2.743  10.965
74881SOL    HW126540  14.855   2.663  10.917
74881SOL    HW226541  14.754   2.775  10.927
74882SOL     OW26542  10.787  11.258   8.916
74882SOL    HW126543  10.817  11.253   9.007
74882SOL    HW226544  10.845  11.199   8.869
74883SOL     OW26545  10.406   0.250   0.993
74883SOL    HW126546  10.351   0.326   0.979
74883SOL    HW226547  10.491   0.274   0.956
74884SOL     OW26548  14.032  14.362   1.958
74884SOL    HW126549  14.051  14.393   2.046
74884SOL    HW226550  14.083  14.281   1.950
74885SOL     OW26551  14.665   8.673  11.968
74885SOL    HW126552  14.657   8.693  12.061
74885SOL    HW226553  14.740   8.613  11.963
74886SOL     OW26554   6.057   8.728  12.349
74886SOL    HW126555   5.993   8.714  12.280
74886SOL    HW226556   6.141   8.729  12.304
74887SOL     OW26557   6.170  13.221   4.487
74887SOL    HW126558   6.124  13.284   4.433
74887SOL    HW226559   6.183  13.266   4.571
74888SOL     OW26560  11.833   9.908  12.127
74888SOL    HW126561  11.829   9.985  12.070
74888SOL    HW226562  11.771   9.846  12.088
74889SOL     OW26563   9.286   7.243   1.365
74889SOL    HW126564   9.277   7.283   1.279
74889SOL    HW226565   9.205   7.264   1.410
74890SOL     OW26566   1.292   2.252   5.538
74890SOL    HW126567   1.256   2.339   5.522
74890SOL    HW226568   1.215   2.196   5.552
74891SOL     OW26569   1.996  10.089   4.659
74891SOL    HW126570   1.959  10.001   4.652
74891SOL    HW226571   2.033  10.106   4.573
74892SOL     OW26572   0.394   5.058   5.457
74892SOL    HW126573   0.448   5.136   5.447
74892SOL    HW226574   0.371   5.056   5.550
74893SOL     OW26575   9.963  14.752   6.986
74893SOL    HW126576   9.962  14.660   6.959
74893SOL    HW226577   9.884  14.789   6.946
74894SOL     OW26578   2.724   0.521   2.805
74894SOL    HW126579   2.680   0.445   2.766
74894SOL    HW226580   2.790   0.482   2.863
74895SOL     OW26581  13.766  11.444  12.926
74895SOL    HW126582  13.768  11.504  13.000
74895SOL    HW226583  13.707  11.484  12.863
74896SOL     OW26584   7.969  13.633   1.869
74896SOL    HW126585   7.908  13.612   1.799
74896SOL    HW226586   7.916  13.677   1.935
74897SOL     OW26587   3.025  12.220   3.066
74897SOL    HW126588   3.095  12.254   3.122
74897SOL    HW226589   2.963  12.180   3.127
74898SOL     OW26590   1.604   9.211   0.913
74898SOL    HW126591   1.554   9.246   0.987
74898SOL    HW226592   1.660   9.283   0.885
74899SOL     OW26593   0.540  10.420   8.263
74899SOL    HW126594   0.511  10.383   8.346
74899SOL    HW226595   0.460  10.452   8.222
74900SOL     OW26596  14.654   9.372   7.590
74900SOL    HW126597  14.583   9.359   7.527
74900SOL    HW226598  14.729   9.397   7.537
74901SOL     OW26599  14.024   3.023  14.759
74901SOL    HW126600  13.992   3.048  14.845
74901SOL    HW226601  14.119   3.017  14.769
74902SOL     OW26602   0.772  12.688  13.899
74902SOL    HW126603   0.717  12.677  13.821
74902SOL    HW226604   0.813  12.773  13.887
74903SOL     OW26605   4.703   5.196  10.186
74903SOL    HW126606   4.737   5.117  10.228
74903SOL    HW226607   4.610   5.197  10.207
74904SOL     OW26608  11.087   3.965  14.881
74904SOL    HW126609  11.105   3.952  14.788
74904SOL    HW226610  11.044   4.051   0.003
74905SOL     OW26611   9.039  10.093   9.920
74905SOL    HW126612   9.039   9.997   9.918
74905SOL    HW226613   9.115  10.116   9.972
74906SOL     OW26614   7.023   0.288   7.968
74906SOL    HW126615   6.959   0.230   7.928
74906SOL    HW226616   7.027   0.260   8.059
74907SOL     OW26617  14.539   1.000   2.797
74907SOL    HW126618  14.577   0.942   2.730
74907SOL    HW226619  14.517   1.080   2.750
74908SOL     OW26620   5.772  10.249   4.198
74908SOL    HW126621   5.831  10.323   4.187
74908SOL    HW226622   5.798  10.187   4.130
74909SOL     OW26623   3.630  13.157   2.058
74909SOL    HW126624   3.686  13.199   1.992
74909SOL    HW226625   3.631  13.217   2.132
74910SOL     OW26626   6.633   1.018   7.225
74910SOL    HW126627   6.588   0.934   7.226
74910SOL    HW226628   6.566   1.081   7.251
74911SOL     OW26629   2.830  14.788   2.879
74911SOL    HW126630   2.852  14.741   2.960
74911SOL    HW226631   2.852  14.727   2.809
74912SOL     OW26632   6.242  14.747  11.059
74912SOL    HW126633   6.151  14.723  11.073
74912SOL    HW226634   6.272  14.688  10.990
74913SOL     OW26635   0.378  13.495   1.642
74913SOL    HW126636   0.451  13.555   1.657
74913SOL    HW226637   0.419  13.417   1.604
74914SOL     OW26638  13.874   5.932   0.149
74914SOL    HW126639  13.812   5.935   0.077
74914SOL    HW226640  13.879   5.839   0.172
74915SOL     OW26641   7.073   0.168   8.191
74915SOL    HW126642   7.020   0.090   8.179
74915SOL    HW226643   7.120   0.153   8.273
74916SOL     OW26644   1.638   5.618  11.079
74916SOL    HW126645   1.560   5.668  11.104
74916SOL    HW226646   1.607   5.528  11.070
74917SOL     OW26647   8.882   0.596   2.945
74917SOL    HW126648   8.940   0.667   2.973
74917SOL    HW226649   8.795   0.635   2.943
74918SOL     OW26650   6.114   6.913   5.852
74918SOL    HW126651   6.107   7.005   5.879
74918SOL    HW226652   6.043   6.869   5.898
74919SOL     OW26653   8.691   9.680  14.164
74919SOL    HW126654   8.785   9.658  14.163
74919SOL    HW226655   8.689   9.774  14.181
74920SOL     OW26656  12.641   2.309  12.727
74920SOL    HW126657  12.568   2.249  12.707
74920SOL    HW226658  12.713   2.252  12.753
74921SOL     OW26659  12.951   8.779  10.605
74921SOL    HW126660  12.983   8.847  10.545
74921SOL    HW226661  13.031   8.736  10.636
74922SOL     OW26662  12.507  11.875   5.092
74922SOL    HW126663  12.480  11.957   5.051
74922SOL    HW226664  12.461  11.807   5.043
74923SOL     OW26665   6.940   6.411   8.532
74923SOL    HW126666   6.971   6.328   8.496
74923SOL    HW226667   7.011   6.441   8.589
74924SOL     OW26668   5.396  13.014   3.083
74924SOL    HW126669   5.473  13.029   3.137
74924SOL    HW226670   5.428  13.019   2.993
74925SOL     OW26671   8.094  14.598   5.860
74925SOL    HW126672   8.139  14.663   5.806
74925SOL    HW226673   8.090  14.520   5.805
74926SOL     OW26674  13.788  14.568  12.243
74926SOL    HW126675  13.876  14.537  12.220
74926SOL    HW226676  13.743  14.490  12.274
74927SOL     OW26677   1.423  10.109   0.991
74927SOL    HW126678   1.446  10.031   0.941
74927SOL    HW226679   1.427  10.080   1.083
74928SOL     OW26680   9.940  11.996   2.950
74928SOL    HW126681   9.884  11.957   3.018
74928SOL    HW226682   9.917  11.948   2.871
74929SOL     OW26683   4.680   4.693   2.272
74929SOL    HW126684   4.620   4.755   2.232
74929SOL    HW226685   4.750   4.747   2.308
74930SOL     OW26686   0.875   2.272   8.361
74930SOL    HW126687   0.833   2.249   8.278
74930SOL    HW226688   0.817   2.338   8.399
74931SOL     OW26689   3.914  14.005   1.347
74931SOL    HW126690   3.989  13.999   1.405
74931SOL    HW226691   3.908  14.098   1.324
74932SOL     OW26692   3.340  12.425   4.693
74932SOL    HW126693   3.358  12.516   4.714
74932SOL    HW226694   3.416  12.377   4.727
74933SOL     OW26695   5.247   3.179   4.535
74933SOL    HW126696   5.327   3.139   4.572
74933SOL    HW226697   5.214   3.113   4.474
74934SOL     OW26698   2.841  10.493   1.553
74934SOL    HW126699   2.917  10.490   1.611
74934SOL    HW226700   2.797  10.409   1.565
74935SOL     OW26701   3.491  10.148  14.822
74935SOL    HW126702   3.562  10.130  14.760
74935SOL    HW226703   3.421  10.186  14.769
74936SOL     OW26704  13.162   4.251   8.849
74936SOL    HW126705  13.200   4.332   8.883
74936SOL    HW226706  13.155   4.193   8.925
74937SOL     OW26707  14.847   0.383  14.170
74937SOL    HW126708   0.030   0.319  14.201
74937SOL    HW226709   0.017   0.452  14.129
74938SOL     OW26710   7.199  12.166   2.011
74938SOL    HW126711   7.153  12.239   2.051
74938SOL    HW226712   7.264  12.139   2.076
74939SOL     OW26713   3.337   3.811  10.443
74939SOL    HW126714   3.409   3.794  10.503
74939SOL    HW226715   3.258   3.796  10.495
74940SOL     OW26716  13.134   9.796   9.674
74940SOL    HW126717  13.066   9.859   9.700
74940SOL    HW226718  13.092   9.741   9.608
74941SOL     OW26719  13.496  14.248  12.557
74941SOL    HW126720  13.426  14.198  12.516
74941SOL    HW226721  13.553  14.182  12.597
74942SOL     OW26722  12.431   2.732   2.577
74942SOL    HW126723  12.456   2.728   2.484
74942SOL    HW226724  12.340   2.702   2.578
74943SOL     OW26725   7.411   1.523   2.864
74943SOL    HW126726   7.337   1.490   2.916
74943SOL    HW226727   7.391   1.495   2.774
74944SOL     OW26728  13.609   8.679   7.696
74944SOL    HW126729  13.534   8.654   7.643
74944SOL    HW226730  13.572   8.736   7.764
74945SOL     OW26731   4.066   8.644   9.177
74945SOL    HW126732   3.990   8.587   9.187
74945SOL    HW226733   4.139   8.592   9.211
74946SOL     OW26734   0.983   8.203   0.555
74946SOL    HW126735   0.943   8.229   0.638
74946SOL    HW226736   1.073   8.234   0.560
74947SOL     OW26737   1.017   2.757   0.373
74947SOL    HW126738   0.998   2.664   0.379
74947SOL    HW226739   1.105   2.766   0.408
74948SOL     OW26740   7.332  13.104   4.598
74948SOL    HW126741   7.292  13.098   4.512
74948SOL    HW226742   7.418  13.064   4.588
74949SOL     OW26743  13.375   6.921   1.143
74949SOL    HW126744  13.290   6.960   1.124
74949SOL    HW226745  13.434   6.961   1.080
74950SOL     OW26746  14.339   8.146   8.278
74950SOL    HW126747  14.314   8.135   8.186
74950SOL    HW226748  14.421   8.196   8.273
74951SOL     OW26749   2.742   4.416   1.649
74951SOL    HW126750   2.779   4.361   1.718
74951SOL    HW226751   2.705   4.353   1.586
74952SOL     OW26752   5.615   7.564   8.841
74952SOL    HW126753   5.645   7.652   8.818
74952SOL    HW226754   5.694   7.510   8.837
74953SOL     OW26755   5.910  11.420   8.470
74953SOL    HW126756   5.855  11.379   8.403
74953SOL    HW226757   5.876  11.509   8.478
74954SOL     OW26758   5.181  12.858   9.373
74954SOL    HW126759   5.174  12.880   9.466
74954SOL    HW226760   5.241  12.783   9.370
74955SOL     OW26761  14.340   9.690   0.786
74955SOL    HW126762  14.318   9.614   0.840
74955SOL    HW226763  14.258   9.739   0.780
74956SOL     OW26764   8.693   2.661   3.288
74956SOL    HW126765   8.689   2.661   3.193
74956SOL    HW226766   8.748   2.585   3.309
74957SOL     OW26767  14.001  11.835  13.067
74957SOL    HW126768  14.036  11.924  13.070
74957SOL    HW226769  14.078  11.779  13.073
74958SOL     OW26770   9.859   2.203   0.954
74958SOL    HW126771   9.874   2.235   0.865
74958SOL    HW226772   9.898   2.270   1.011
74959SOL     OW26773   4.039   0.801  12.331
74959SOL    HW126774   3.969   0.790  12.396
74959SOL    HW226775   4.106   0.737  12.357
74960SOL     OW26776  14.622  12.506  11.048
74960SOL    HW126777  14.555  12.572  11.065
74960SOL    HW226778  14.704  12.549  11.073
74961SOL     OW26779  12.974  12.807   4.281
74961SOL    HW126780  12.970  12.713   4.299
74961SOL    HW226781  13.039  12.816   4.212
74962SOL     OW26782   2.935   0.166   9.098
74962SOL    HW126783   2.935   0.253   9.140
74962SOL    HW226784   3.027   0.140   9.097
74963SOL     OW26785   8.737   3.928   3.347
74963SOL    HW126786   8.775   3.975   3.273
74963SOL    HW226787   8.766   3.837   3.335
74964SOL     OW26788   0.923   5.395   1.032
74964SOL    HW126789   0.878   5.369   1.112
74964SOL    HW226790   1.016   5.383   1.051
74965SOL     OW26791  14.492  12.531  14.255
74965SOL    HW126792  14.453  12.613  14.223
74965SOL    HW226793  14.559  12.509  14.191
74966SOL     OW26794   1.101   3.768  14.245
74966SOL    HW126795   1.058   3.805  14.322
74966SOL    HW226796   1.078   3.675  14.247
74967SOL     OW26797   7.691   4.570  12.721
74967SOL    HW126798   7.766   4.513  12.737
74967SOL    HW226799   7.673   4.611  12.806
74968SOL     OW26800   5.476  11.790   9.731
74968SOL    HW126801   5.496  11.709   9.684
74968SOL    HW226802   5.483  11.858   9.664
74969SOL     OW26803   9.196  11.612   6.420
74969SOL    HW126804   9.148  11.683   6.378
74969SOL    HW226805   9.243  11.569   6.349
74970SOL     OW26806   4.877   8.466   8.675
74970SOL    HW126807   4.959   8.427   8.707
74970SOL    HW226808   4.905   8.526   8.606
74971SOL     OW26809   9.433  11.471  10.734
74971SOL    HW126810   9.435  11.513  10.648
74971SOL    HW226811   9.413  11.543  10.794
74972SOL     OW26812   0.715  14.334   6.205
74972SOL    HW126813   0.715  14.240   6.227
74972SOL    HW226814   0.676  14.376   6.282
74973SOL     OW26815   5.056   8.908   6.638
74973SOL    HW126816   5.048   8.906   6.543
74973SOL    HW226817   5.042   8.817   6.665
74974SOL     OW26818  11.264  12.821  12.073
74974SOL    HW126819  11.309  12.743  12.108
74974SOL    HW226820  11.215  12.855  12.148
74975SOL     OW26821   8.136   1.464   4.648
74975SOL    HW126822   8.230   1.476   4.657
74975SOL    HW226823   8.098   1.536   4.698
74976SOL     OW26824   6.160  12.862   8.548
74976SOL    HW126825   6.074  12.850   8.589
74976SOL    HW226826   6.189  12.773   8.528
74977SOL     OW26827  14.718  10.847  10.215
74977SOL    HW126828  14.699  10.916  10.279
74977SOL    HW226829  14.763  10.893  10.144
74978SOL     OW26830   7.806   3.570  13.947
74978SOL    HW126831   7.713   3.576  13.926
74978SOL    HW226832   7.851   3.593  13.865
74979SOL     OW26833  13.897   5.640  11.836
74979SOL    HW126834  13.856   5.571  11.889
74979SOL    HW226835  13.824   5.692  11.803
74980SOL     OW26836  12.935  12.846   4.657
74980SOL    HW126837  12.907  12.761   4.690
74980SOL    HW226838  12.901  12.850   4.567
74981SOL     OW26839   7.008   1.760   0.588
74981SOL    HW126840   6.983   1.668   0.599
74981SOL    HW226841   7.097   1.758   0.553
74982SOL     OW26842   2.867   5.909   6.745
74982SOL    HW126843   2.787   5.915   6.797
74982SOL    HW226844   2.845   5.948   6.661
74983SOL     OW26845   0.030   1.860   3.857
74983SOL    HW126846   0.119   1.862   3.892
74983SOL    HW226847   0.037   1.901   3.771
74984SOL     OW26848   3.064   0.737   2.530
74984SOL    HW126849   3.128   0.780   2.473
74984SOL    HW226850   3.039   0.804   2.593
74985SOL     OW26851  10.234   2.065   1.053
74985SOL    HW126852  10.141   2.054   1.072
74985SOL    HW226853  10.238   2.137   0.990
74986SOL     OW26854   1.046   6.987   5.443
74986SOL    HW126855   1.001   6.970   5.526
74986SOL    HW226856   1.115   6.920   5.439
74987SOL     OW26857   0.614   7.083  14.738
74987SOL    HW126858   0.705   7.092  14.708
74987SOL    HW226859   0.567   7.055  14.660
74988SOL     OW26860   1.681   6.310  13.821
74988SOL    HW126861   1.734   6.246  13.773
74988SOL    HW226862   1.643   6.260  13.894
74989SOL     OW26863   9.370   5.184   5.324
74989SOL    HW126864   9.458   5.147   5.325
74989SOL    HW226865   9.356   5.209   5.232
74990SOL     OW26866  11.288  13.769  14.472
74990SOL    HW126867  11.290  13.753  14.378
74990SOL    HW226868  11.321  13.858  14.483
74991SOL     OW26869   5.530   5.243   2.861
74991SOL    HW126870   5.518   5.182   2.933
74991SOL    HW226871   5.507   5.192   2.783
74992SOL     OW26872   7.323   2.792   2.107
74992SOL    HW126873   7.320   2.844   2.026
74992SOL    HW226874   7.359   2.853   2.172
74993SOL     OW26875   8.111   1.856   4.740
74993SOL    HW126876   8.195   1.889   4.708
74993SOL    HW226877   8.109   1.883   4.832
74994SOL     OW26878  14.109   7.028   3.460
74994SOL    HW126879  14.121   6.936   3.434
74994SOL    HW226880  14.030   7.027   3.514
74995SOL     OW26881  10.171   2.425   3.823
74995SOL    HW126882  10.212   2.339   3.812
74995SOL    HW226883  10.201   2.455   3.909
74996SOL     OW26884   0.855  11.428  10.988
74996SOL    HW126885   0.803  11.508  10.999
74996SOL    HW226886   0.790  11.360  10.969
74997SOL     OW26887   6.710   5.578   3.266
74997SOL    HW126888   6.638   5.633   3.298
74997SOL    HW226889   6.672   5.528   3.194
74998SOL     OW26890   4.814   3.621   9.716
74998SOL    HW126891   4.895   3.611   9.766
74998SOL    HW226892   4.774   3.534   9.716
74999SOL     OW26893   7.915   5.214  13.388
74999SOL    HW126894   7.932   5.286  13.449
74999SOL    HW226895   7.889   5.257  13.307
75000SOL     OW26896   9.952  12.716   5.171
75000SOL    HW126897  10.036  12.704   5.126
75000SOL    HW226898   9.894  12.650   5.132
75001SOL     OW26899  10.511  10.870   5.462
75001SOL    HW126900  10.488  10.862   5.554
75001SOL    HW226901  10.510  10.781   5.428
75002SOL     OW26902   2.224   8.855   3.253
75002SOL    HW126903   2.207   8.761   3.255
75002SOL    HW226904   2.268   8.873   3.336
75003SOL     OW26905   7.697  11.398   9.280
75003SOL    HW126906   7.688  11.351   9.363
75003SOL    HW226907   7.776  11.451   9.291
75004SOL     OW26908   8.035   9.289  10.158
75004SOL    HW126909   8.111   9.277  10.102
75004SOL    HW226910   8.048   9.375  10.198
75005SOL     OW26911  10.941  14.848   1.390
75005SOL    HW126912  10.928   0.052   1.429
75005SOL    HW226913  10.854  14.808   1.390
75006SOL     OW26914  14.196   4.275   4.820
75006SOL    HW126915  14.168   4.343   4.882
75006SOL    HW226916  14.154   4.299   4.738
75007SOL     OW26917   2.773   1.780  10.747
75007SOL    HW126918   2.695   1.758  10.696
75007SOL    HW226919   2.741   1.842  10.813
75008SOL     OW26920  12.436   8.208   5.329
75008SOL    HW126921  12.369   8.140   5.319
75008SOL    HW226922  12.388   8.290   5.315
75009SOL     OW26923   1.626   4.891   6.247
75009SOL    HW126924   1.655   4.966   6.299
75009SOL    HW226925   1.555   4.851   6.298
75010SOL     OW26926   1.582  11.479   0.970
75010SOL    HW126927   1.653  11.543   0.967
75010SOL    HW226928   1.598  11.421   0.896
75011SOL     OW26929   2.364  10.388   2.780
75011SOL    HW126930   2.345  10.373   2.687
75011SOL    HW226931   2.459  10.384   2.786
75012SOL     OW26932   2.431   2.040   0.052
75012SOL    HW126933   2.405   1.971  14.873
75012SOL    HW226934   2.394   2.120   0.015
75013SOL     OW26935   5.472   1.123  14.350
75013SOL    HW126936   5.555   1.168  14.334
75013SOL    HW226937   5.494   1.030  14.347
75014SOL     OW26938   3.218  11.982  10.761
75014SOL    HW126939   3.222  11.978  10.856
75014SOL    HW226940   3.136  11.940  10.738
75015SOL     OW26941   1.757   9.743   8.139
75015SOL    HW126942   1.817   9.815   8.120
75015SOL    HW226943   1.793   9.668   8.091
75016SOL     OW26944   9.279  13.194   8.903
75016SOL    HW126945   9.237  13.116   8.866
75016SOL    HW226946   9.319  13.238   8.827
75017SOL     OW26947   7.258   3.451   9.422
75017SOL    HW126948   7.291   3.529   9.377
75017SOL    HW226949   7.334   3.393   9.427
75018SOL     OW26950   0.938   5.532   3.804
75018SOL    HW126951   0.890   5.529   3.721
75018SOL    HW226952   0.909   5.613   3.846
75019SOL     OW26953   8.521   4.825   5.988
75019SOL    HW126954   8.543   4.872   5.907
75019SOL    HW226955   8.531   4.890   6.057
75020SOL     OW26956   0.941   3.800   9.599
75020SOL    HW126957   0.913   3.768   9.685
75020SOL    HW226958   0.883   3.874   9.581
75021SOL     OW26959  14.448  10.818  12.940
75021SOL    HW126960  14.526  10.834  12.993
75021SOL    HW226961  14.411  10.905  12.924
75022SOL     OW26962   9.526   4.201  10.046
75022SOL    HW126963   9.530   4.237   9.958
75022SOL    HW226964   9.452   4.245  10.087
75023SOL     OW26965  10.876   5.358  11.217
75023SOL    HW126966  10.914   5.319  11.296
75023SOL    HW226967  10.796   5.400  11.246
75024SOL     OW26968  10.013   5.240   9.950
75024SOL    HW126969  10.065   5.308   9.907
75024SOL    HW226970   9.929   5.281   9.968
75025SOL     OW26971  12.327  14.289   9.668
75025SOL    HW126972  12.398  14.348   9.645
75025SOL    HW226973  12.344  14.210   9.616
75026SOL     OW26974  11.034   5.914   7.060
75026SOL    HW126975  10.968   5.930   7.127
75026SOL    HW226976  11.041   5.818   7.056
75027SOL     OW26977  10.382  14.175   8.687
75027SOL    HW126978  10.393  14.083   8.710
75027SOL    HW226979  10.404  14.222   8.767
75028SOL     OW26980  10.222  12.484   5.665
75028SOL    HW126981  10.264  12.401   5.690
75028SOL    HW226982  10.295  12.545   5.655
75029SOL     OW26983   8.677   7.489   5.362
75029SOL    HW126984   8.722   7.557   5.312
75029SOL    HW226985   8.695   7.408   5.315
75030SOL     OW26986  12.031   9.436  14.474
75030SOL    HW126987  11.991   9.360  14.516
75030SOL    HW226988  12.042   9.499  14.545
75031SOL     OW26989   2.498   3.475   4.082
75031SOL    HW126990   2.486   3.502   3.991
75031SOL    HW226991   2.575   3.418   4.080
75032SOL     OW26992   9.404   5.346   9.914
75032SOL    HW126993   9.446   5.394   9.842
75032SOL    HW226994   9.378   5.415   9.976
75033SOL     OW26995   6.599   1.884   1.525
75033SOL    HW126996   6.651   1.883   1.445
75033SOL    HW226997   6.611   1.972   1.560
75034SOL     OW26998   0.827   7.422  11.269
75034SOL    HW126999   0.827   7.512  11.236
75034SOL    HW227000   0.772   7.373  11.208
75035SOL     OW27001   9.062  14.309  14.126
75035SOL    HW127002   9.053  14.328  14.220
75035SOL    HW227003   9.156  14.316  14.110
75036SOL     OW27004   6.482   8.771   6.565
75036SOL    HW127005   6.458   8.679   6.549
75036SOL    HW227006   6.444   8.819   6.492
75037SOL     OW27007  14.446   3.597   2.436
75037SOL    HW127008  14.425   3.652   2.360
75037SOL    HW227009  14.521   3.639   2.476
75038SOL     OW27010   9.005   2.037  14.629
75038SOL    HW127011   8.968   2.111  14.678
75038SOL    HW227012   9.096   2.032  14.659
75039SOL     OW27013   3.721   6.972  14.734
75039SOL    HW127014   3.670   6.900  14.771
75039SOL    HW227015   3.729   6.950  14.641
75040SOL     OW27016   3.528  13.516  13.223
75040SOL    HW127017   3.470  13.562  13.162
75040SOL    HW227018   3.602  13.487  13.170
75041SOL     OW27019   9.987  12.868   5.764
75041SOL    HW127020  10.044  12.944   5.756
75041SOL    HW227021  10.032  12.810   5.825
75042SOL     OW27022   3.846   1.194   8.315
75042SOL    HW127023   3.771   1.227   8.366
75042SOL    HW227024   3.857   1.104   8.345
75043SOL     OW27025   1.156   6.003   6.342
75043SOL    HW127026   1.197   6.089   6.350
75043SOL    HW227027   1.221   5.942   6.378
75044SOL     OW27028   2.463  13.173  12.749
75044SOL    HW127029   2.537  13.129  12.791
75044SOL    HW227030   2.498  13.205  12.666
75045SOL     OW27031   5.043   5.619  13.664
75045SOL    HW127032   5.058   5.713  13.669
75045SOL    HW227033   5.130   5.580  13.675
75046SOL     OW27034   8.167   8.000   3.454
75046SOL    HW127035   8.140   8.081   3.411
75046SOL    HW227036   8.262   7.999   3.445
75047SOL     OW27037   8.304  14.283   9.272
75047SOL    HW127038   8.229  14.298   9.215
75047SOL    HW227039   8.295  14.348   9.342
75048SOL     OW27040   7.265  13.788  12.612
75048SOL    HW127041   7.257  13.868  12.665
75048SOL    HW227042   7.267  13.820  12.522
75049SOL     OW27043   1.784   9.015  11.882
75049SOL    HW127044   1.778   8.924  11.852
75049SOL    HW227045   1.703   9.030  11.930
75050SOL     OW27046  12.427  12.265  10.984
75050SOL    HW127047  12.380  12.244  11.064
75050SOL    HW227048  12.518  12.242  11.002
75051SOL     OW27049   7.733   0.924   2.976
75051SOL    HW127050   7.704   0.862   3.043
75051SOL    HW227051   7.763   1.000   3.026
75052SOL     OW27052   0.399   9.849   1.376
75052SOL    HW127053   0.413   9.943   1.374
75052SOL    HW227054   0.368   9.831   1.464
75053SOL     OW27055   1.416  13.849   1.907
75053SOL    HW127056   1.358  13.814   1.975
75053SOL    HW227057   1.503  13.822   1.935
75054SOL     OW27058   9.123   2.996   6.815
75054SOL    HW127059   9.216   3.005   6.798
75054SOL    HW227060   9.118   2.949   6.898
75055SOL     OW27061   8.879   8.447   6.398
75055SOL    HW127062   8.863   8.360   6.435
75055SOL    HW227063   8.794   8.491   6.402
75056SOL     OW27064   5.683  13.598   1.368
75056SOL    HW127065   5.714  13.509   1.355
75056SOL    HW227066   5.738  13.651   1.310
75057SOL     OW27067   0.473   3.371  11.589
75057SOL    HW127068   0.520   3.438  11.639
75057SOL    HW227069   0.406   3.340  11.649
75058SOL     OW27070   0.951   6.674   4.328
75058SOL    HW127071   0.932   6.609   4.396
75058SOL    HW227072   0.934   6.758   4.371
75059SOL     OW27073   1.394   4.555   2.705
75059SOL    HW127074   1.374   4.468   2.671
75059SOL    HW227075   1.392   4.544   2.800
75060SOL     OW27076  13.391   5.223   1.794
75060SOL    HW127077  13.467   5.172   1.824
75060SOL    HW227078  13.416   5.314   1.809
75061SOL     OW27079   3.958  12.876   6.853
75061SOL    HW127080   3.891  12.926   6.806
75061SOL    HW227081   4.040  12.924   6.836
75062SOL     OW27082  14.020   2.856   0.575
75062SOL    HW127083  14.002   2.762   0.571
75062SOL    HW227084  14.039   2.873   0.667
75063SOL     OW27085   1.013   0.118  14.338
75063SOL    HW127086   0.997   0.127  14.244
75063SOL    HW227087   1.097   0.071  14.343
75064SOL     OW27088   2.191   0.445   3.274
75064SOL    HW127089   2.228   0.499   3.343
75064SOL    HW227090   2.184   0.357   3.312
75065SOL     OW27091   6.159  14.874   0.610
75065SOL    HW127092   6.148   0.086   0.597
75065SOL    HW227093   6.196  14.866   0.698
75066SOL     OW27094   5.891  14.631  13.989
75066SOL    HW127095   5.815  14.673  13.951
75066SOL    HW227096   5.920  14.568  13.923
75067SOL     OW27097  10.504   6.890   2.242
75067SOL    HW127098  10.544   6.804   2.258
75067SOL    HW227099  10.565   6.952   2.282
75068SOL     OW27100   9.754   6.260  11.991
75068SOL    HW127101   9.829   6.214  11.954
75068SOL    HW227102   9.694   6.191  12.018
75069SOL     OW27103  10.637   9.264  10.366
75069SOL    HW127104  10.640   9.172  10.391
75069SOL    HW227105  10.726   9.296  10.381
75070SOL     OW27106  11.945  13.967  10.138
75070SOL    HW127107  11.898  14.049  10.146
75070SOL    HW227108  11.991  13.957  10.221
75071SOL     OW27109   9.944   0.598  12.869
75071SOL    HW127110   9.880   0.628  12.934
75071SOL    HW227111   9.946   0.503  12.880
75072SOL     OW27112   5.459   4.659   7.229
75072SOL    HW127113   5.525   4.684   7.164
75072SOL    HW227114   5.384   4.630   7.178
75073SOL     OW27115   1.139  10.967   1.077
75073SOL    HW127116   1.168  10.978   1.168
75073SOL    HW227117   1.086  10.888   1.078
75074SOL     OW27118  12.999  12.567   1.811
75074SOL    HW127119  13.049  12.566   1.893
75074SOL    HW227120  13.054  12.520   1.749
75075SOL     OW27121  12.504  14.258   3.903
75075SOL    HW127122  12.530  14.285   3.991
75075SOL    HW227123  12.546  14.323   3.845
75076SOL     OW27124   7.413   9.129   8.833
75076SOL    HW127125   7.456   9.119   8.748
75076SOL    HW227126   7.328   9.086   8.823
75077SOL     OW27127  13.514  10.122   3.672
75077SOL    HW127128  13.504  10.032   3.641
75077SOL    HW227129  13.460  10.126   3.751
75078SOL     OW27130   8.013   8.767   9.940
75078SOL    HW127131   7.934   8.716   9.955
75078SOL    HW227132   7.989   8.857   9.964
75079SOL     OW27133  14.183   5.315   9.626
75079SOL    HW127134  14.104   5.267   9.602
75079SOL    HW227135  14.226   5.260   9.691
75080SOL     OW27136   0.654   6.725   3.892
75080SOL    HW127137   0.614   6.808   3.920
75080SOL    HW227138   0.671   6.678   3.973
75081SOL     OW27139   8.455   7.350   6.204
75081SOL    HW127140   8.420   7.292   6.271
75081SOL    HW227141   8.423   7.437   6.229
75082SOL     OW27142  13.379   2.091  13.614
75082SOL    HW127143  13.385   2.182  13.641
75082SOL    HW227144  13.418   2.041  13.686
75083SOL     OW27145   5.643   0.140   5.456
75083SOL    HW127146   5.639   0.068   5.393
75083SOL    HW227147   5.552   0.157   5.478
75084SOL     OW27148   6.791  13.697  14.189
75084SOL    HW127149   6.884  13.720  14.189
75084SOL    HW227150   6.757  13.735  14.269
75085SOL     OW27151   3.859  14.157  12.533
75085SOL    HW127152   3.942  14.118  12.503
75085SOL    HW227153   3.880  14.249  12.547
75086SOL     OW27154   0.686   2.500   1.612
75086SOL    HW127155   0.720   2.589   1.627
75086SOL    HW227156   0.644   2.477   1.695
75087SOL     OW27157   6.886  12.932  11.759
75087SOL    HW127158   6.831  12.931  11.680
75087SOL    HW227159   6.823  12.928  11.831
75088SOL     OW27160   3.431  11.556   4.756
75088SOL    HW127161   3.432  11.652   4.759
75088SOL    HW227162   3.346  11.531   4.790
75089SOL     OW27163   7.214   6.163   4.822
75089SOL    HW127164   7.278   6.107   4.779
75089SOL    HW227165   7.266   6.234   4.859
75090SOL     OW27166   7.121   9.225  13.400
75090SOL    HW127167   7.056   9.214  13.470
75090SOL    HW227168   7.079   9.187  13.323
75091SOL     OW27169   3.521  14.139   8.872
75091SOL    HW127170   3.476  14.161   8.954
75091SOL    HW227171   3.520  14.044   8.868
75092SOL     OW27172  12.076   0.362  13.452
75092SOL    HW127173  12.031   0.446  13.455
75092SOL    HW227174  12.007   0.298  13.435
75093SOL     OW27175  12.054   0.965   8.973
75093SOL    HW127176  12.047   1.035   9.038
75093SOL    HW227177  11.982   0.906   8.993
75094SOL     OW27178   6.506  11.532   6.502
75094SOL    HW127179   6.496  11.494   6.590
75094SOL    HW227180   6.444  11.483   6.448
75095SOL     OW27181  11.985  14.557   4.240
75095SOL    HW127182  12.015  14.648   4.229
75095SOL    HW227183  12.006  14.515   4.157
75096SOL     OW27184   5.324   9.219  11.329
75096SOL    HW127185   5.334   9.308  11.363
75096SOL    HW227186   5.385   9.167  11.380
75097SOL     OW27187  10.433  14.524   3.251
75097SOL    HW127188  10.440  14.528   3.156
75097SOL    HW227189  10.449  14.614   3.281
75098SOL     OW27190   6.913  14.217   5.880
75098SOL    HW127191   6.938  14.145   5.938
75098SOL    HW227192   6.829  14.191   5.843
75099SOL     OW27193  13.141   0.184   3.151
75099SOL    HW127194  13.107   0.127   3.221
75099SOL    HW227195  13.194   0.126   3.097
75100SOL     OW27196   3.498  13.456  12.755
75100SOL    HW127197   3.437  13.518  12.795
75100SOL    HW227198   3.513  13.490  12.667
75101SOL     OW27199   9.721  11.379   6.969
75101SOL    HW127200   9.639  11.374   7.019
75101SOL    HW227201   9.784  11.331   7.022
75102SOL     OW27202   1.963  12.613   2.845
75102SOL    HW127203   2.012  12.653   2.917
75102SOL    HW227204   1.884  12.579   2.887
75103SOL     OW27205   1.962   1.858   6.945
75103SOL    HW127206   1.975   1.935   6.890
75103SOL    HW227207   2.050   1.820   6.955
75104SOL     OW27208   1.779   6.637  11.218
75104SOL    HW127209   1.736   6.594  11.145
75104SOL    HW227210   1.761   6.581  11.293
75105SOL     OW27211   6.128   2.780  12.213
75105SOL    HW127212   6.045   2.790  12.166
75105SOL    HW227213   6.140   2.685  12.222
75106SOL     OW27214   0.939   4.443   4.792
75106SOL    HW127215   0.979   4.448   4.879
75106SOL    HW227216   0.859   4.393   4.805
75107SOL     OW27217  11.577   5.138   2.313
75107SOL    HW127218  11.592   5.044   2.321
75107SOL    HW227219  11.640   5.177   2.374
75108SOL     OW27220   2.564   2.266  14.613
75108SOL    HW127221   2.559   2.173  14.590
75108SOL    HW227222   2.499   2.276  14.683
75109SOL     OW27223   2.166   5.947   9.392
75109SOL    HW127224   2.147   5.890   9.318
75109SOL    HW227225   2.106   5.917   9.461
75110SOL     OW27226   3.406   9.659   8.523
75110SOL    HW127227   3.460   9.609   8.462
75110SOL    HW227228   3.316   9.633   8.502
75111SOL     OW27229  13.686   2.104  14.035
75111SOL    HW127230  13.721   2.133  14.119
75111SOL    HW227231  13.763   2.082  13.983
75112SOL     OW27232  11.369   0.113  10.571
75112SOL    HW127233  11.376   0.181  10.638
75112SOL    HW227234  11.282   0.075  10.585
75113SOL     OW27235  12.181   1.890  10.417
75113SOL    HW127236  12.190   1.887  10.512
75113SOL    HW227237  12.214   1.976  10.393
75114SOL     OW27238   1.453  13.976   0.065
75114SOL    HW127239   1.485  14.028  14.873
75114SOL    HW227240   1.388  14.033   0.107
75115SOL     OW27241   2.887   3.489  11.829
75115SOL    HW127242   2.870   3.532  11.913
75115SOL    HW227243   2.814   3.515  11.774
75116SOL     OW27244   2.153   3.347   3.601
75116SOL    HW127245   2.166   3.413   3.670
75116SOL    HW227246   2.106   3.276   3.645
75117SOL     OW27247  13.302   7.701   9.333
75117SOL    HW127248  13.332   7.785   9.368
75117SOL    HW227249  13.234   7.723   9.270
75118SOL     OW27250   6.603  14.719   7.705
75118SOL    HW127251   6.666  14.653   7.677
75118SOL    HW227252   6.518  14.685   7.676
75119SOL     OW27253   2.195  13.866   5.171
75119SOL    HW127254   2.257  13.811   5.124
75119SOL    HW227255   2.235  13.879   5.257
75120SOL     OW27256   1.387   6.519   9.940
75120SOL    HW127257   1.445   6.509   9.864
75120SOL    HW227258   1.299   6.507   9.904
75121SOL     OW27259   9.671  12.014   6.855
75121SOL    HW127260   9.651  11.922   6.870
75121SOL    HW227261   9.660  12.055   6.941
75122SOL     OW27262   7.649   6.436  14.696
75122SOL    HW127263   7.672   6.398  14.781
75122SOL    HW227264   7.684   6.525  14.699
75123SOL     OW27265   0.269   9.220  14.699
75123SOL    HW127266   0.177   9.193  14.709
75123SOL    HW227267   0.314   9.177  14.772
75124SOL     OW27268   9.552   4.101  10.366
75124SOL    HW127269   9.509   4.023  10.330
75124SOL    HW227270   9.509   4.175  10.322
75125SOL     OW27271   1.821   1.426   9.644
75125SOL    HW127272   1.890   1.458   9.586
75125SOL    HW227273   1.740   1.461   9.606
75126SOL     OW27274  14.320  12.571   8.762
75126SOL    HW127275  14.254  12.551   8.828
75126SOL    HW227276  14.365  12.487   8.747
75127SOL     OW27277  14.528   1.909   3.658
75127SOL    HW127278  14.475   1.909   3.737
75127SOL    HW227279  14.610   1.867   3.684
75128SOL     OW27280   5.778  13.014   9.700
75128SOL    HW127281   5.849  13.077   9.694
75128SOL    HW227282   5.698  13.067   9.703
75129SOL     OW27283   5.397   8.923  12.462
75129SOL    HW127284   5.383   8.834  12.429
75129SOL    HW227285   5.352   8.924  12.547
75130SOL     OW27286   9.324   2.003   0.317
75130SOL    HW127287   9.243   2.013   0.266
75130SOL    HW227288   9.336   1.908   0.324
75131SOL     OW27289  13.615   5.910  10.010
75131SOL    HW127290  13.692   5.928  10.064
75131SOL    HW227291  13.646   5.847   9.945
75132SOL     OW27292   7.160   2.284  11.645
75132SOL    HW127293   7.106   2.205  11.652
75132SOL    HW227294   7.151   2.311  11.554
75133SOL     OW27295  11.001  13.405   4.300
75133SOL    HW127296  11.046  13.420   4.217
75133SOL    HW227297  10.930  13.470   4.301
75134SOL     OW27298   2.938  14.209  11.428
75134SOL    HW127299   2.854  14.223  11.471
75134SOL    HW227300   2.917  14.163  11.347
75135SOL     OW27301  14.760   4.326  12.185
75135SOL    HW127302  14.808   4.405  12.208
75135SOL    HW227303  14.719   4.346  12.101
75136SOL     OW27304  13.085  14.680   5.012
75136SOL    HW127305  12.996  14.684   4.977
75136SOL    HW227306  13.134  14.744   4.960
75137SOL     OW27307   2.059   3.449  14.735
75137SOL    HW127308   1.989   3.445  14.670
75137SOL    HW227309   2.138   3.426  14.686
75138SOL     OW27310   3.485   9.479   5.063
75138SOL    HW127311   3.510   9.390   5.038
75138SOL    HW227312   3.563   9.532   5.044
75139SOL     OW27313   6.685  14.292  13.997
75139SOL    HW127314   6.753  14.225  14.004
75139SOL    HW227315   6.604  14.245  14.019
75140SOL     OW27316  13.870   7.973   0.074
75140SOL    HW127317  13.835   7.884   0.082
75140SOL    HW227318  13.906   7.993   0.160
75141SOL     OW27319  13.656   5.963   6.423
75141SOL    HW127320  13.568   5.936   6.397
75141SOL    HW227321  13.704   5.969   6.340
75142SOL     OW27322   4.592  12.968   7.732
75142SOL    HW127323   4.576  12.992   7.823
75142SOL    HW227324   4.638  13.044   7.695
75143SOL     OW27325   0.369   3.593   8.807
75143SOL    HW127326   0.334   3.524   8.752
75143SOL    HW227327   0.449   3.557   8.845
75144SOL     OW27328   9.476   2.622   6.250
75144SOL    HW127329   9.499   2.701   6.202
75144SOL    HW227330   9.432   2.566   6.186
75145SOL     OW27331  14.620   1.128  12.268
75145SOL    HW127332  14.597   1.220  12.279
75145SOL    HW227333  14.541   1.087  12.232
75146SOL     OW27334  14.833   6.221   1.983
75146SOL    HW127335   0.046   6.221   1.979
75146SOL    HW227336  14.806   6.155   1.918
75147SOL     OW27337   6.990   7.705   3.924
75147SOL    HW127338   6.998   7.643   3.997
75147SOL    HW227339   7.080   7.723   3.898
75148SOL     OW27340   9.783  13.466   3.987
75148SOL    HW127341   9.741  13.458   3.901
75148SOL    HW227342   9.722  13.520   4.038
75149SOL     OW27343   8.894  10.699  14.525
75149SOL    HW127344   8.852  10.636  14.583
75149SOL    HW227345   8.988  10.688  14.543
75150SOL     OW27346  12.388   7.426   8.174
75150SOL    HW127347  12.327   7.407   8.245
75150SOL    HW227348  12.370   7.517   8.150
75151SOL     OW27349   8.940   7.623  13.592
75151SOL    HW127350   8.865   7.676  13.618
75151SOL    HW227351   8.904   7.538  13.570
75152SOL     OW27352  14.020   4.479   1.235
75152SOL    HW127353  14.105   4.438   1.215
75152SOL    HW227354  13.993   4.439   1.317
75153SOL     OW27355  10.912   5.490  14.787
75153SOL    HW127356  10.848   5.419  14.791
75153SOL    HW227357  10.860   5.570  14.799
75154SOL     OW27358   0.177   2.968   7.772
75154SOL    HW127359   0.098   2.951   7.721
75154SOL    HW227360   0.190   2.889   7.823
75155SOL     OW27361  13.985   2.037  10.575
75155SOL    HW127362  13.966   2.050  10.668
75155SOL    HW227363  13.982   2.125  10.537
75156SOL     OW27364   1.357   1.020   9.428
75156SOL    HW127365   1.435   1.006   9.481
75156SOL    HW227366   1.287   1.033   9.492
75157SOL     OW27367   0.352   9.461  13.848
75157SOL    HW127368   0.336   9.507  13.930
75157SOL    HW227369   0.393   9.527  13.791
75158SOL     OW27370   4.574   9.413   9.124
75158SOL    HW127371   4.606   9.349   9.060
75158SOL    HW227372   4.538   9.360   9.195
75159SOL     OW27373   5.476   0.606   2.076
75159SOL    HW127374   5.485   0.700   2.092
75159SOL    HW227375   5.490   0.565   2.161
75160SOL     OW27376   0.942   5.486   0.652
75160SOL    HW127377   0.884   5.559   0.630
75160SOL    HW227378   0.995   5.519   0.725
75161SOL     OW27379   4.904   2.074  14.593
75161SOL    HW127380   4.873   2.062  14.503
75161SOL    HW227381   4.998   2.061  14.588
75162SOL     OW27382   5.523   1.211   8.979
75162SOL    HW127383   5.598   1.220   8.921
75162SOL    HW227384   5.457   1.166   8.926
75163SOL     OW27385  12.419   5.881   6.789
75163SOL    HW127386  12.335   5.921   6.765
75163SOL    HW227387  12.430   5.902   6.882
75164SOL     OW27388   3.156   5.897  14.253
75164SOL    HW127389   3.197   5.874  14.336
75164SOL    HW227390   3.149   5.814  14.206
75165SOL     OW27391   4.378   8.361   7.569
75165SOL    HW127392   4.334   8.323   7.493
75165SOL    HW227393   4.384   8.289   7.632
75166SOL     OW27394   2.633   9.863   2.192
75166SOL    HW127395   2.728   9.867   2.181
75166SOL    HW227396   2.607   9.780   2.153
75167SOL     OW27397   4.742   3.280   1.329
75167SOL    HW127398   4.742   3.296   1.234
75167SOL    HW227399   4.691   3.200   1.339
75168SOL     OW27400   5.949   1.308  12.539
75168SOL    HW127401   6.000   1.277  12.614
75168SOL    HW227402   5.858   1.303  12.568
75169SOL     OW27403  13.313   6.854   9.345
75169SOL    HW127404  13.313   6.949   9.338
75169SOL    HW227405  13.267   6.836   9.427
75170SOL     OW27406   8.243  12.842   8.096
75170SOL    HW127407   8.268  12.754   8.125
75170SOL    HW227408   8.264  12.898   8.171
75171SOL     OW27409  14.638   7.578   2.803
75171SOL    HW127410  14.725   7.555   2.770
75171SOL    HW227411  14.655   7.639   2.875
75172SOL     OW27412   1.368  13.115   1.173
75172SOL    HW127413   1.374  13.179   1.244
75172SOL    HW227414   1.424  13.151   1.104
75173SOL     OW27415   3.164   2.556   7.599
75173SOL    HW127416   3.182   2.463   7.609
75173SOL    HW227417   3.247   2.599   7.620
75174SOL     OW27418  10.877  12.440   5.952
75174SOL    HW127419  10.854  12.491   6.029
75174SOL    HW227420  10.926  12.365   5.987
75175SOL     OW27421  12.631   3.388  14.221
75175SOL    HW127422  12.616   3.309  14.272
75175SOL    HW227423  12.708   3.429  14.261
75176SOL     OW27424  11.388   0.351  14.631
75176SOL    HW127425  11.395   0.359  14.727
75176SOL    HW227426  11.382   0.257  14.615
75177SOL     OW27427  11.135   4.736   0.673
75177SOL    HW127428  11.063   4.748   0.735
75177SOL    HW227429  11.152   4.642   0.673
75178SOL     OW27430   9.012   8.378  10.694
75178SOL    HW127431   9.053   8.412  10.615
75178SOL    HW227432   9.028   8.446  10.760
75179SOL     OW27433  13.327  13.201   2.220
75179SOL    HW127434  13.271  13.141   2.271
75179SOL    HW227435  13.386  13.143   2.172
75180SOL     OW27436   5.753  14.490   8.530
75180SOL    HW127437   5.846  14.465   8.535
75180SOL    HW227438   5.727  14.503   8.622
75181SOL     OW27439  11.528   7.163   4.136
75181SOL    HW127440  11.623   7.158   4.129
75181SOL    HW227441  11.513   7.223   4.209
75182SOL     OW27442  11.715   3.436   1.501
75182SOL    HW127443  11.709   3.348   1.463
75182SOL    HW227444  11.808   3.451   1.515
75183SOL     OW27445   8.460   9.060   1.578
75183SOL    HW127446   8.521   9.038   1.507
75183SOL    HW227447   8.499   9.137   1.619
75184SOL     OW27448   3.533  12.565   4.178
75184SOL    HW127449   3.569  12.495   4.232
75184SOL    HW227450   3.610  12.610   4.143
75185SOL     OW27451   3.471  13.828  12.563
75185SOL    HW127452   3.554  13.793  12.531
75185SOL    HW227453   3.411  13.817  12.489
75186SOL     OW27454  11.614  13.581  13.830
75186SOL    HW127455  11.589  13.547  13.744
75186SOL    HW227456  11.687  13.641  13.812
75187SOL     OW27457  10.896   4.111  11.184
75187SOL    HW127458  10.945   4.103  11.265
75187SOL    HW227459  10.824   4.047  11.193
75188SOL     OW27460   2.964   6.937   4.227
75188SOL    HW127461   3.034   6.917   4.288
75188SOL    HW227462   2.951   6.856   4.178
75189SOL     OW27463   1.929   4.195   8.407
75189SOL    HW127464   1.843   4.229   8.432
75189SOL    HW227465   1.962   4.154   8.487
75190SOL     OW27466   8.861   4.350   7.856
75190SOL    HW127467   8.865   4.416   7.787
75190SOL    HW227468   8.919   4.384   7.925
75191SOL     OW27469  13.511   6.223   3.477
75191SOL    HW127470  13.586   6.165   3.490
75191SOL    HW227471  13.457   6.212   3.555
75192SOL     OW27472   0.957   5.888  11.831
75192SOL    HW127473   0.930   5.832  11.904
75192SOL    HW227474   0.878   5.938  11.810
75193SOL     OW27475   3.928  11.736   4.194
75193SOL    HW127476   3.999  11.785   4.153
75193SOL    HW227477   3.850  11.790   4.180
75194SOL     OW27478   8.471   3.589  11.424
75194SOL    HW127479   8.380   3.619  11.415
75194SOL    HW227480   8.475   3.509  11.371
75195SOL     OW27481   0.726   9.248  12.638
75195SOL    HW127482   0.758   9.169  12.682
75195SOL    HW227483   0.791   9.265  12.569
75196SOL     OW27484   7.292   9.482   2.268
75196SOL    HW127485   7.376   9.514   2.300
75196SOL    HW227486   7.232   9.493   2.341
75197SOL     OW27487   4.528   2.121  13.331
75197SOL    HW127488   4.460   2.053  13.327
75197SOL    HW227489   4.481   2.200  13.361
75198SOL     OW27490   8.423  11.545  11.981
75198SOL    HW127491   8.506  11.580  12.012
75198SOL    HW227492   8.383  11.617  11.933
75199SOL     OW27493   0.698   4.348  14.572
75199SOL    HW127494   0.728   4.265  14.535
75199SOL    HW227495   0.754   4.414  14.532
75200SOL     OW27496   4.969  10.365   0.544
75200SOL    HW127497   4.911  10.408   0.607
75200SOL    HW227498   4.913  10.305   0.496
75201SOL     OW27499   6.150   1.354   9.737
75201SOL    HW127500   6.119   1.277   9.689
75201SOL    HW227501   6.084   1.368   9.804
75202SOL     OW27502  11.738   6.451   1.094
75202SOL    HW127503  11.764   6.382   1.155
75202SOL    HW227504  11.801   6.522   1.109
75203SOL     OW27505   7.278  11.114  11.483
75203SOL    HW127506   7.341  11.175  11.521
75203SOL    HW227507   7.231  11.166  11.417
75204SOL     OW27508   2.362  10.842  10.892
75204SOL    HW127509   2.365  10.795  10.809
75204SOL    HW227510   2.343  10.775  10.958
75205SOL     OW27511   1.238   4.491   9.781
75205SOL    HW127512   1.220   4.537   9.699
75205SOL    HW227513   1.316   4.439   9.763
75206SOL     OW27514   7.936  11.938   3.144
75206SOL    HW127515   7.986  11.893   3.212
75206SOL    HW227516   7.879  11.998   3.193
75207SOL     OW27517   0.015   0.531   8.062
75207SOL    HW127518  14.807   0.561   8.050
75207SOL    HW227519   0.053   0.595   8.122
75208SOL     OW27520   6.554   2.557   3.097
75208SOL    HW127521   6.564   2.569   3.192
75208SOL    HW227522   6.460   2.568   3.082
75209SOL     OW27523   5.338   2.435   8.696
75209SOL    HW127524   5.359   2.523   8.663
75209SOL    HW227525   5.274   2.450   8.765
75210SOL     OW27526   8.651   4.652   4.095
75210SOL    HW127527   8.582   4.586   4.092
75210SOL    HW227528   8.643   4.699   4.012
75211SOL     OW27529   6.605   6.463  12.138
75211SOL    HW127530   6.682   6.510  12.107
75211SOL    HW227531   6.639   6.401  12.203
75212SOL     OW27532   9.793  13.769   6.846
75212SOL    HW127533   9.813  13.793   6.937
75212SOL    HW227534   9.816  13.676   6.840
75213SOL     OW27535   7.009   1.280   6.247
75213SOL    HW127536   7.063   1.353   6.278
75213SOL    HW227537   6.922   1.318   6.233
75214SOL     OW27538   8.357   9.466  13.705
75214SOL    HW127539   8.419   9.525  13.662
75214SOL    HW227540   8.337   9.508  13.788
75215SOL     OW27541   4.737   3.679   3.857
75215SOL    HW127542   4.774   3.743   3.918
75215SOL    HW227543   4.806   3.613   3.848
75216SOL     OW27544   8.121   8.773   1.885
75216SOL    HW127545   8.168   8.824   1.952
75216SOL    HW227546   8.125   8.827   1.806
75217SOL     OW27547   1.249   9.060  11.606
75217SOL    HW127548   1.279   9.123  11.541
75217SOL    HW227549   1.227   9.113  11.683
75218SOL     OW27550   3.921   3.000  13.273
75218SOL    HW127551   3.891   3.027  13.186
75218SOL    HW227552   3.960   3.079  13.310
75219SOL     OW27553   6.029  11.198   3.204
75219SOL    HW127554   5.981  11.218   3.124
75219SOL    HW227555   6.073  11.280   3.227
75220SOL     OW27556  11.014  12.773   1.499
75220SOL    HW127557  11.017  12.868   1.514
75220SOL    HW227558  10.923  12.750   1.515
75221SOL     OW27559  13.832  10.480   2.974
75221SOL    HW127560  13.740  10.507   2.978
75221SOL    HW227561  13.859  10.476   3.066
75222SOL     OW27562   8.291   8.497  10.040
75222SOL    HW127563   8.228   8.470   9.973
75222SOL    HW227564   8.362   8.538   9.991
75223SOL     OW27565   9.789  14.282   4.284
75223SOL    HW127566   9.748  14.266   4.199
75223SOL    HW227567   9.784  14.198   4.329
75224SOL     OW27568   1.519   7.015  14.251
75224SOL    HW127569   1.601   6.966  14.257
75224SOL    HW227570   1.489   6.999  14.161
75225SOL     OW27571   2.145   0.577   3.586
75225SOL    HW127572   2.113   0.663   3.610
75225SOL    HW227573   2.225   0.594   3.536
75226SOL     OW27574  13.523   0.815   2.353
75226SOL    HW127575  13.470   0.750   2.399
75226SOL    HW227576  13.612   0.779   2.355
75227SOL     OW27577  12.176   8.686   6.647
75227SOL    HW127578  12.097   8.724   6.686
75227SOL    HW227579  12.158   8.592   6.642
75228SOL     OW27580   2.895   5.668  14.391
75228SOL    HW127581   2.971   5.611  14.381
75228SOL    HW227582   2.822   5.609  14.409
75229SOL     OW27583   5.283   5.119  10.939
75229SOL    HW127584   5.287   5.179  11.014
75229SOL    HW227585   5.355   5.058  10.953
75230SOL     OW27586   2.244  10.943  11.786
75230SOL    HW127587   2.214  10.871  11.842
75230SOL    HW227588   2.293  11.001  11.845
75231SOL     OW27589   8.032   4.195  12.788
75231SOL    HW127590   7.938   4.195  12.768
75231SOL    HW227591   8.074   4.174  12.705
75232SOL     OW27592   3.074  11.886   5.059
75232SOL    HW127593   3.060  11.932   5.142
75232SOL    HW227594   3.169  11.887   5.047
75233SOL     OW27595   5.121   5.628   6.593
75233SOL    HW127596   5.082   5.633   6.506
75233SOL    HW227597   5.128   5.719   6.622
75234SOL     OW27598   5.213   4.198  12.614
75234SOL    HW127599   5.141   4.228  12.559
75234SOL    HW227600   5.187   4.222  12.703
75235SOL     OW27601   8.050  13.346  14.740
75235SOL    HW127602   7.974  13.363  14.684
75235SOL    HW227603   8.055  13.251  14.746
75236SOL     OW27604   9.063   0.839   0.716
75236SOL    HW127605   9.119   0.915   0.733
75236SOL    HW227606   8.981   0.876   0.684
75237SOL     OW27607   5.896   1.496  13.878
75237SOL    HW127608   5.919   1.433  13.810
75237SOL    HW227609   5.968   1.492  13.940
75238SOL     OW27610   6.631   6.379   7.147
75238SOL    HW127611   6.685   6.436   7.093
75238SOL    HW227612   6.657   6.400   7.237
75239SOL     OW27613   3.166  14.135   1.593
75239SOL    HW127614   3.220  14.060   1.566
75239SOL    HW227615   3.124  14.105   1.673
75240SOL     OW27616  11.848   5.164  11.879
75240SOL    HW127617  11.867   5.118  11.961
75240SOL    HW227618  11.906   5.124  11.815
75241SOL     OW27619  11.411  13.038   0.299
75241SOL    HW127620  11.443  13.003   0.216
75241SOL    HW227621  11.334  13.089   0.276
75242SOL     OW27622  11.312  11.441  10.194
75242SOL    HW127623  11.225  11.466  10.227
75242SOL    HW227624  11.317  11.347  10.211
75243SOL     OW27625   7.202   2.778   1.558
75243SOL    HW127626   7.146   2.828   1.618
75243SOL    HW227627   7.168   2.800   1.471
75244SOL     OW27628   6.084  14.188   4.559
75244SOL    HW127629   6.108  14.207   4.468
75244SOL    HW227630   6.133  14.109   4.581
75245SOL     OW27631   4.542   1.908   9.089
75245SOL    HW127632   4.454   1.922   9.124
75245SOL    HW227633   4.549   1.971   9.017
75246SOL     OW27634   5.091   1.927  14.007
75246SOL    HW127635   5.063   1.959  14.093
75246SOL    HW227636   5.098   1.832  14.018
75247SOL     OW27637   4.456   4.870   2.197
75247SOL    HW127638   4.485   4.829   2.115
75247SOL    HW227639   4.415   4.798   2.245
75248SOL     OW27640   9.052   9.393  10.599
75248SOL    HW127641   9.042   9.418  10.507
75248SOL    HW227642   9.086   9.303  10.595
75249SOL     OW27643   0.601  11.298  10.965
75249SOL    HW127644   0.562  11.323  11.049
75249SOL    HW227645   0.541  11.333  10.899
75250SOL     OW27646   6.427   1.976  11.252
75250SOL    HW127647   6.476   1.894  11.248
75250SOL    HW227648   6.464   2.022  11.328
75251SOL     OW27649   8.474  14.357   5.666
75251SOL    HW127650   8.490  14.296   5.738
75251SOL    HW227651   8.508  14.441   5.698
75252SOL     OW27652  14.823   4.941  12.763
75252SOL    HW127653  14.782   5.027  12.763
75252SOL    HW227654  14.768   4.888  12.704
75253SOL     OW27655   7.410   1.990   4.203
75253SOL    HW127656   7.426   2.055   4.135
75253SOL    HW227657   7.367   2.039   4.273
75254SOL     OW27658  14.861   9.508   1.450
75254SOL    HW127659  14.851   9.581   1.512
75254SOL    HW227660   0.051   9.535   1.393
75255SOL     OW27661   3.223   2.829   0.636
75255SOL    HW127662   3.300   2.883   0.653
75255SOL    HW227663   3.191   2.805   0.723
75256SOL     OW27664   3.258   9.177   6.740
75256SOL    HW127665   3.203   9.237   6.791
75256SOL    HW227666   3.202   9.150   6.667
75257SOL     OW27667  14.534  11.201  14.630
75257SOL    HW127668  14.555  11.109  14.640
75257SOL    HW227669  14.553  11.221  14.539
75258SOL     OW27670   6.304   1.825   3.759
75258SOL    HW127671   6.346   1.852   3.677
75258SOL    HW227672   6.345   1.880   3.826
75259SOL     OW27673   7.607   7.571   9.535
75259SOL    HW127674   7.663   7.645   9.559
75259SOL    HW227675   7.645   7.538   9.454
75260SOL     OW27676   3.720   7.567   0.721
75260SOL    HW127677   3.656   7.505   0.686
75260SOL    HW227678   3.704   7.567   0.815
75261SOL     OW27679   5.662   6.058   5.022
75261SOL    HW127680   5.703   5.981   5.062
75261SOL    HW227681   5.735   6.104   4.979
75262SOL     OW27682   8.743  10.744   6.505
75262SOL    HW127683   8.695  10.779   6.430
75262SOL    HW227684   8.718  10.651   6.508
75263SOL     OW27685   1.121   0.555   2.912
75263SOL    HW127686   1.190   0.531   2.851
75263SOL    HW227687   1.149   0.519   2.996
75264SOL     OW27688   8.381  13.001   2.053
75264SOL    HW127689   8.409  13.089   2.078
75264SOL    HW227690   8.358  12.959   2.136
75265SOL     OW27691  14.383  12.460   7.881
75265SOL    HW127692  14.419  12.496   7.800
75265SOL    HW227693  14.460  12.438   7.933
75266SOL     OW27694   2.050   5.249   9.888
75266SOL    HW127695   2.042   5.285   9.800
75266SOL    HW227696   1.959   5.236   9.917
75267SOL     OW27697   0.811  13.060   8.507
75267SOL    HW127698   0.831  13.024   8.420
75267SOL    HW227699   0.771  12.987   8.554
75268SOL     OW27700   0.232  10.438   1.493
75268SOL    HW127701   0.260  10.521   1.532
75268SOL    HW227702   0.266  10.440   1.404
75269SOL     OW27703   6.277   3.378   0.647
75269SOL    HW127704   6.316   3.295   0.676
75269SOL    HW227705   6.187   3.374   0.680
75270SOL     OW27706   5.550  10.196   9.280
75270SOL    HW127707   5.539  10.182   9.374
75270SOL    HW227708   5.562  10.107   9.244
75271SOL     OW27709   0.837   8.615  11.020
75271SOL    HW127710   0.835   8.636  10.926
75271SOL    HW227711   0.749   8.581  11.038
75272SOL     OW27712   1.892   8.867   1.907
75272SOL    HW127713   1.988   8.872   1.903
75272SOL    HW227714   1.866   8.840   1.819
75273SOL     OW27715  13.384   0.817   9.216
75273SOL    HW127716  13.317   0.884   9.201
75273SOL    HW227717  13.390   0.770   9.133
75274SOL     OW27718   2.794   9.837   0.212
75274SOL    HW127719   2.718   9.830   0.155
75274SOL    HW227720   2.854   9.769   0.181
75275SOL     OW27721   4.239   9.137  12.582
75275SOL    HW127722   4.154   9.135  12.624
75275SOL    HW227723   4.283   9.057  12.612
75276SOL     OW27724   6.013   4.472  14.101
75276SOL    HW127725   5.999   4.468  14.195
75276SOL    HW227726   6.011   4.565  14.079
75277SOL     OW27727   2.806   2.348  12.174
75277SOL    HW127728   2.815   2.443  12.177
75277SOL    HW227729   2.865   2.316  12.243
75278SOL     OW27730  14.063   7.679   6.156
75278SOL    HW127731  14.051   7.637   6.071
75278SOL    HW227732  14.098   7.766   6.135
75279SOL     OW27733   1.679   6.831   0.402
75279SOL    HW127734   1.738   6.793   0.467
75279SOL    HW227735   1.691   6.776   0.324
75280SOL     OW27736   2.692  11.136   9.317
75280SOL    HW127737   2.724  11.052   9.285
75280SOL    HW227738   2.597  11.128   9.317
75281SOL     OW27739  11.609   6.115   6.254
75281SOL    HW127740  11.606   6.150   6.343
75281SOL    HW227741  11.518   6.109   6.227
75282SOL     OW27742   5.345   0.659  14.411
75282SOL    HW127743   5.268   0.714  14.393
75282SOL    HW227744   5.317   0.570  14.390
75283SOL     OW27745   9.010  14.104   7.343
75283SOL    HW127746   9.015  14.051   7.423
75283SOL    HW227747   8.925  14.149   7.349
75284SOL     OW27748  14.052   0.291   9.766
75284SOL    HW127749  14.062   0.274   9.859
75284SOL    HW227750  14.142   0.295   9.733
75285SOL     OW27751   7.864  10.500   7.082
75285SOL    HW127752   7.882  10.519   7.174
75285SOL    HW227753   7.877  10.406   7.073
75286SOL     OW27754   7.625  10.239   3.386
75286SOL    HW127755   7.647  10.208   3.474
75286SOL    HW227756   7.580  10.322   3.400
75287SOL     OW27757   9.701   2.180   3.219
75287SOL    HW127758   9.606   2.188   3.213
75287SOL    HW227759   9.716   2.147   3.308
75288SOL     OW27760   3.068  11.848   9.211
75288SOL    HW127761   3.029  11.900   9.282
75288SOL    HW227762   2.999  11.787   9.186
75289SOL     OW27763   5.449   1.540   5.826
75289SOL    HW127764   5.373   1.560   5.772
75289SOL    HW227765   5.424   1.462   5.876
75290SOL     OW27766   6.620  10.256  11.342
75290SOL    HW127767   6.588  10.266  11.252
75290SOL    HW227768   6.706  10.299  11.341
75291SOL     OW27769   7.619   9.940   8.477
75291SOL    HW127770   7.675  10.017   8.485
75291SOL    HW227771   7.610   9.907   8.567
75292SOL     OW27772   1.549  13.754  12.449
75292SOL    HW127773   1.453  13.760  12.453
75292SOL    HW227774   1.569  13.750  12.356
75293SOL     OW27775   5.254   9.605  11.983
75293SOL    HW127776   5.248   9.656  11.902
75293SOL    HW227777   5.167   9.567  11.994
75294SOL     OW27778   7.312   1.220   8.799
75294SOL    HW127779   7.351   1.160   8.736
75294SOL    HW227780   7.220   1.194   8.805
75295SOL     OW27781  11.705  10.277   2.754
75295SOL    HW127782  11.783  10.331   2.759
75295SOL    HW227783  11.669  10.294   2.666
75296SOL     OW27784   4.339  12.268   9.663
75296SOL    HW127785   4.367  12.234   9.748
75296SOL    HW227786   4.301  12.193   9.618
75297SOL     OW27787   4.171   5.322   2.223
75297SOL    HW127788   4.104   5.316   2.155
75297SOL    HW227789   4.211   5.235   2.227
75298SOL     OW27790  13.310   2.493   0.990
75298SOL    HW127791  13.386   2.456   0.945
75298SOL    HW227792  13.345   2.564   1.042
75299SOL     OW27793   2.200   1.338  13.789
75299SOL    HW127794   2.161   1.250  13.784
75299SOL    HW227795   2.293   1.322  13.804
75300SOL     OW27796  13.210   5.377  13.684
75300SOL    HW127797  13.287   5.355  13.630
75300SOL    HW227798  13.245   5.389  13.772
75301SOL     OW27799   0.882   1.049   6.147
75301SOL    HW127800   0.888   1.050   6.243
75301SOL    HW227801   0.788   1.044   6.129
75302SOL     OW27802   8.561  11.256   9.048
75302SOL    HW127803   8.509  11.195   9.101
75302SOL    HW227804   8.652  11.237   9.073
75303SOL     OW27805  10.297   4.709   9.640
75303SOL    HW127806  10.308   4.629   9.588
75303SOL    HW227807  10.306   4.780   9.577
75304SOL     OW27808   6.544   3.801   7.937
75304SOL    HW127809   6.461   3.815   7.982
75304SOL    HW227810   6.527   3.730   7.876
75305SOL     OW27811   0.543   7.702   3.429
75305SOL    HW127812   0.490   7.775   3.397
75305SOL    HW227813   0.542   7.638   3.358
75306SOL     OW27814   5.258  12.858   2.460
75306SOL    HW127815   5.272  12.766   2.484
75306SOL    HW227816   5.181  12.856   2.403
75307SOL     OW27817  13.874  13.719   9.617
75307SOL    HW127818  13.898  13.686   9.704
75307SOL    HW227819  13.942  13.684   9.559
75308SOL     OW27820  14.304   7.447  10.952
75308SOL    HW127821  14.291   7.431  10.859
75308SOL    HW227822  14.394   7.422  10.969
75309SOL     OW27823   1.305  10.041  14.598
75309SOL    HW127824   1.351  10.065  14.679
75309SOL    HW227825   1.231   9.989  14.627
75310SOL     OW27826   9.276   2.896  14.604
75310SOL    HW127827   9.298   2.974  14.655
75310SOL    HW227828   9.307   2.822  14.658
75311SOL     OW27829   3.167   5.168  14.228
75311SOL    HW127830   3.089   5.118  14.206
75311SOL    HW227831   3.209   5.117  14.298
75312SOL     OW27832   9.910  13.500   6.867
75312SOL    HW127833   9.982  13.534   6.920
75312SOL    HW227834   9.950  13.480   6.782
75313SOL     OW27835   8.231   7.238   3.925
75313SOL    HW127836   8.136   7.239   3.912
75313SOL    HW227837   8.266   7.284   3.849
75314SOL     OW27838   0.042  10.502  13.930
75314SOL    HW127839  14.850  10.537  13.880
75314SOL    HW227840   0.064  10.420  13.886
75315SOL     OW27841  13.413  12.133   5.652
75315SOL    HW127842  13.383  12.210   5.604
75315SOL    HW227843  13.423  12.066   5.585
75316SOL     OW27844   7.669   6.952   1.078
75316SOL    HW127845   7.720   6.990   1.150
75316SOL    HW227846   7.717   6.978   0.999
75317SOL     OW27847   3.717   7.778   7.188
75317SOL    HW127848   3.627   7.806   7.167
75317SOL    HW227849   3.772   7.851   7.159
75318SOL     OW27850  11.801   3.201   2.822
75318SOL    HW127851  11.845   3.220   2.740
75318SOL    HW227852  11.780   3.107   2.818
75319SOL     OW27853  13.159  12.886   6.106
75319SOL    HW127854  13.225  12.933   6.156
75319SOL    HW227855  13.085  12.947   6.102
75320SOL     OW27856   9.115   0.360   4.324
75320SOL    HW127857   9.085   0.280   4.367
75320SOL    HW227858   9.188   0.332   4.269
75321SOL     OW27859   1.132   9.359   8.236
75321SOL    HW127860   1.096   9.382   8.150
75321SOL    HW227861   1.179   9.277   8.221
75322SOL     OW27862   4.058   3.646   7.395
75322SOL    HW127863   3.997   3.713   7.365
75322SOL    HW227864   4.068   3.663   7.489
75323SOL     OW27865  12.567   4.485  11.925
75323SOL    HW127866  12.511   4.546  11.877
75323SOL    HW227867  12.656   4.515  11.906
75324SOL     OW27868  14.170   9.061   5.267
75324SOL    HW127869  14.159   9.003   5.343
75324SOL    HW227870  14.142   9.007   5.193
75325SOL     OW27871   4.647  13.686  11.675
75325SOL    HW127872   4.582  13.616  11.676
75325SOL    HW227873   4.607  13.754  11.621
75326SOL     OW27874   7.142  10.176   6.857
75326SOL    HW127875   7.072  10.206   6.799
75326SOL    HW227876   7.136  10.233   6.934
75327SOL     OW27877   4.639   9.223  13.934
75327SOL    HW127878   4.656   9.317  13.930
75327SOL    HW227879   4.725   9.183  13.934
75328SOL     OW27880   1.646   2.841   5.170
75328SOL    HW127881   1.628   2.922   5.122
75328SOL    HW227882   1.566   2.825   5.220
75329SOL     OW27883   4.043   9.485   8.714
75329SOL    HW127884   3.987   9.560   8.695
75329SOL    HW227885   4.122   9.523   8.752
75330SOL     OW27886   3.198   6.125   2.465
75330SOL    HW127887   3.261   6.175   2.516
75330SOL    HW227888   3.249   6.088   2.394
75331SOL     OW27889  14.215   3.288  13.404
75331SOL    HW127890  14.246   3.200  13.425
75331SOL    HW227891  14.127   3.291  13.441
75332SOL     OW27892   9.434   9.339  11.716
75332SOL    HW127893   9.487   9.300  11.647
75332SOL    HW227894   9.392   9.265  11.760
75333SOL     OW27895  13.464  11.265   5.865
75333SOL    HW127896  13.400  11.292   5.931
75333SOL    HW227897  13.450  11.324   5.792
75334SOL     OW27898   0.102   1.839  11.656
75334SOL    HW127899   0.121   1.869  11.745
75334SOL    HW227900   0.097   1.744  11.664
75335SOL     OW27901   6.672   8.690   4.069
75335SOL    HW127902   6.640   8.662   3.984
75335SOL    HW227903   6.734   8.761   4.049
75336SOL     OW27904  14.118   7.693   8.365
75336SOL    HW127905  14.087   7.781   8.387
75336SOL    HW227906  14.044   7.636   8.385
75337SOL     OW27907   3.043   0.174   4.751
75337SOL    HW127908   3.137   0.164   4.736
75337SOL    HW227909   3.032   0.159   4.844
75338SOL     OW27910   9.477   6.693  14.681
75338SOL    HW127911   9.537   6.686  14.756
75338SOL    HW227912   9.486   6.783  14.652
75339SOL     OW27913   4.986   9.580   0.731
75339SOL    HW127914   5.045   9.624   0.792
75339SOL    HW227915   4.901   9.579   0.776
75340SOL     OW27916   7.982  12.804  10.224
75340SOL    HW127917   8.035  12.823  10.147
75340SOL    HW227918   8.044  12.803  10.297
75341SOL     OW27919   5.716   1.918   3.125
75341SOL    HW127920   5.658   1.989   3.099
75341SOL    HW227921   5.708   1.853   3.055
75342SOL     OW27922  14.794   8.868   6.950
75342SOL    HW127923  14.849   8.846   6.875
75342SOL    HW227924  14.840   8.832   7.025
75343SOL     OW27925  12.435   7.362   8.713
75343SOL    HW127926  12.354   7.313   8.701
75343SOL    HW227927  12.501   7.312   8.665
75344SOL     OW27928   0.174   6.936   6.158
75344SOL    HW127929   0.122   7.008   6.122
75344SOL    HW227930   0.143   6.858   6.112
75345SOL     OW27931  11.711  14.809   8.371
75345SOL    HW127932  11.668   0.013   8.371
75345SOL    HW227933  11.736  14.794   8.462
75346SOL     OW27934   1.851   0.210  11.505
75346SOL    HW127935   1.859   0.300  11.474
75346SOL    HW227936   1.897   0.210  11.589
75347SOL     OW27937   8.057   6.050  10.873
75347SOL    HW127938   7.980   6.085  10.828
75347SOL    HW227939   8.117   6.025  10.802
75348SOL     OW27940   4.753   8.410   4.872
75348SOL    HW127941   4.830   8.466   4.879
75348SOL    HW227942   4.781   8.334   4.821
75349SOL     OW27943   3.244   5.722   9.344
75349SOL    HW127944   3.263   5.645   9.290
75349SOL    HW227945   3.281   5.796   9.295
75350SOL     OW27946  10.284  13.940   7.115
75350SOL    HW127947  10.208  13.989   7.147
75350SOL    HW227948  10.305  13.878   7.184
75351SOL     OW27949   6.356  10.077  10.673
75351SOL    HW127950   6.326  10.116  10.591
75351SOL    HW227951   6.438  10.121  10.692
75352SOL     OW27952   0.890   0.333  14.433
75352SOL    HW127953   0.921   0.382  14.357
75352SOL    HW227954   0.902   0.241  14.409
75353SOL     OW27955   4.630   9.628   9.254
75353SOL    HW127956   4.585   9.619   9.338
75353SOL    HW227957   4.622   9.542   9.213
75354SOL     OW27958   6.205   0.359   5.996
75354SOL    HW127959   6.228   0.431   6.055
75354SOL    HW227960   6.206   0.398   5.909
75355SOL     OW27961   1.596   2.168  13.008
75355SOL    HW127962   1.606   2.151  12.915
75355SOL    HW227963   1.551   2.091  13.042
75356SOL     OW27964  12.651   6.369   6.773
75356SOL    HW127965  12.613   6.282   6.757
75356SOL    HW227966  12.579   6.430   6.756
75357SOL     OW27967   8.076   3.553   6.775
75357SOL    HW127968   8.151   3.606   6.801
75357SOL    HW227969   8.039   3.599   6.699
75358SOL     OW27970  14.596   6.613  13.056
75358SOL    HW127971  14.639   6.676  13.113
75358SOL    HW227972  14.634   6.629  12.969
75359SOL     OW27973   7.780   1.450  14.377
75359SOL    HW127974   7.865   1.442  14.336
75359SOL    HW227975   7.780   1.539  14.414
75360SOL     OW27976  10.849   5.205   7.288
75360SOL    HW127977  10.773   5.264   7.291
75360SOL    HW227978  10.818   5.130   7.236
75361SOL     OW27979   9.565   0.760   9.966
75361SOL    HW127980   9.477   0.734   9.995
75361SOL    HW227981   9.561   0.856   9.964
75362SOL     OW27982  11.352   5.337  10.553
75362SOL    HW127983  11.359   5.250  10.513
75362SOL    HW227984  11.284   5.381  10.503
75363SOL     OW27985  10.166   9.315  12.599
75363SOL    HW127986  10.083   9.293  12.641
75363SOL    HW227987  10.170   9.411  12.602
75364SOL     OW27988  12.473   4.541   4.234
75364SOL    HW127989  12.550   4.565   4.183
75364SOL    HW227990  12.400   4.548   4.172
75365SOL     OW27991  12.731  14.347  14.727
75365SOL    HW127992  12.716  14.272  14.784
75365SOL    HW227993  12.655  14.349  14.669
75366SOL     OW27994  10.064   8.347  12.789
75366SOL    HW127995  10.036   8.438  12.796
75366SOL    HW227996  10.105   8.327  12.873
75367SOL     OW27997   5.354   2.674   0.055
75367SOL    HW127998   5.267   2.694   0.021
75367SOL    HW227999   5.357   2.717   0.140
75368SOL     OW28000  12.636   4.969   8.711
75368SOL    HW128001  12.540   4.974   8.718
75368SOL    HW228002  12.664   5.060   8.703
75369SOL     OW28003   5.940   7.033  12.556
75369SOL    HW128004   5.986   7.011  12.475
75369SOL    HW228005   5.871   6.968  12.563
75370SOL     OW28006   8.153  11.168   9.422
75370SOL    HW128007   8.135  11.125   9.339
75370SOL    HW228008   8.066  11.196   9.453
75371SOL     OW28009  11.050   1.514  14.086
75371SOL    HW128010  11.083   1.558  14.007
75371SOL    HW228011  10.994   1.444  14.052
75372SOL     OW28012   9.089  12.683   5.104
75372SOL    HW128013   9.055  12.669   5.192
75372SOL    HW228014   9.145  12.608   5.087
75373SOL     OW28015  14.007  10.773   5.005
75373SOL    HW128016  13.946  10.763   5.078
75373SOL    HW228017  14.046  10.860   5.018
75374SOL     OW28018   5.773   8.329   5.065
75374SOL    HW128019   5.763   8.318   5.159
75374SOL    HW228020   5.864   8.305   5.047
75375SOL     OW28021   2.841  14.678   9.086
75375SOL    HW128022   2.842  14.664   9.180
75375SOL    HW228023   2.761  14.634   9.056
75376SOL     OW28024   0.124   6.314   8.139
75376SOL    HW128025   0.215   6.320   8.110
75376SOL    HW228026   0.073   6.351   8.067
75377SOL     OW28027   5.872  13.497   8.629
75377SOL    HW128028   5.873  13.539   8.543
75377SOL    HW228029   5.786  13.457   8.636
75378SOL     OW28030   9.505   3.023  11.843
75378SOL    HW128031   9.594   3.045  11.816
75378SOL    HW228032   9.513   2.939  11.888
75379SOL     OW28033   1.372  10.965  14.484
75379SOL    HW128034   1.345  10.976  14.393
75379SOL    HW228035   1.308  11.015  14.535
75380SOL     OW28036  12.495  13.788   9.226
75380SOL    HW128037  12.466  13.755   9.311
75380SOL    HW228038  12.515  13.880   9.241
75381SOL     OW28039   2.876   2.887   3.633
75381SOL    HW128040   2.801   2.832   3.655
75381SOL    HW228041   2.905   2.856   3.548
75382SOL     OW28042   3.657   3.501   4.150
75382SOL    HW128043   3.564   3.521   4.161
75382SOL    HW228044   3.702   3.584   4.164
75383SOL     OW28045   8.962  10.507   9.088
75383SOL    HW128046   8.883  10.486   9.038
75383SOL    HW228047   8.929  10.533   9.174
75384SOL     OW28048   4.452   5.464   0.725
75384SOL    HW128049   4.485   5.375   0.733
75384SOL    HW228050   4.455   5.483   0.631
75385SOL     OW28051   4.365   9.577  14.867
75385SOL    HW128052   4.328   9.548  14.784
75385SOL    HW228053   4.427   9.646  14.843
75386SOL     OW28054   7.405   0.666   8.149
75386SOL    HW128055   7.386   0.670   8.055
75386SOL    HW228056   7.382   0.576   8.174
75387SOL     OW28057   5.686   4.040  13.103
75387SOL    HW128058   5.676   4.018  13.195
75387SOL    HW228059   5.669   4.135  13.099
75388SOL     OW28060  10.682   3.781  10.190
75388SOL    HW128061  10.603   3.769  10.138
75388SOL    HW228062  10.658   3.751  10.278
75389SOL     OW28063  13.342   7.206   4.503
75389SOL    HW128064  13.369   7.191   4.593
75389SOL    HW228065  13.353   7.300   4.490
75390SOL     OW28066   7.078   4.574  14.654
75390SOL    HW128067   7.141   4.595  14.584
75390SOL    HW228068   7.011   4.642  14.646
75391SOL     OW28069   6.467  11.396   5.324
75391SOL    HW128070   6.430  11.407   5.411
75391SOL    HW228071   6.410  11.332   5.281
75392SOL     OW28072   5.700  12.703   8.112
75392SOL    HW128073   5.762  12.752   8.058
75392SOL    HW228074   5.641  12.769   8.147
75393SOL     OW28075  14.608   3.795  12.323
75393SOL    HW128076  14.614   3.774  12.416
75393SOL    HW228077  14.560   3.878  12.320
75394SOL     OW28078   7.888   1.624   3.856
75394SOL    HW128079   7.894   1.635   3.761
75394SOL    HW228080   7.801   1.588   3.871
75395SOL     OW28081  14.242  10.145   1.073
75395SOL    HW128082  14.267  10.237   1.061
75395SOL    HW228083  14.309  10.109   1.131
75396SOL     OW28084   5.239  12.287   7.576
75396SOL    HW128085   5.292  12.237   7.638
75396SOL    HW228086   5.223  12.227   7.504
75397SOL     OW28087  12.973   9.422   7.981
75397SOL    HW128088  13.005   9.510   8.003
75397SOL    HW228089  13.011   9.403   7.896
75398SOL     OW28090  10.631   2.447  13.379
75398SOL    HW128091  10.628   2.471  13.472
75398SOL    HW228092  10.711   2.489  13.347
75399SOL     OW28093   9.158   3.650   0.919
75399SOL    HW128094   9.087   3.715   0.913
75399SOL    HW228095   9.235   3.696   0.884
75400SOL     OW28096  12.184   7.850   6.244
75400SOL    HW128097  12.198   7.830   6.336
75400SOL    HW228098  12.088   7.855   6.235
75401SOL     OW28099   1.708   1.337  11.571
75401SOL    HW128100   1.714   1.392  11.493
75401SOL    HW228101   1.768   1.264  11.554
75402SOL     OW28102   4.533  12.943   6.459
75402SOL    HW128103   4.495  12.872   6.406
75402SOL    HW228104   4.458  12.985   6.501
75403SOL     OW28105   2.750   4.534  12.603
75403SOL    HW128106   2.705   4.616  12.625
75403SOL    HW228107   2.684   4.481  12.559
75404SOL     OW28108   9.281   4.764   6.888
75404SOL    HW128109   9.333   4.826   6.838
75404SOL    HW228110   9.195   4.766   6.846
75405SOL     OW28111  13.974   1.609   3.119
75405SOL    HW128112  13.988   1.552   3.044
75405SOL    HW228113  14.061   1.643   3.141
75406SOL     OW28114  11.044   1.901  13.171
75406SOL    HW128115  11.041   1.991  13.138
75406SOL    HW228116  11.134   1.873  13.154
75407SOL     OW28117   4.904  14.856  12.661
75407SOL    HW128118   4.846  14.825  12.731
75407SOL    HW228119   4.987  14.872  12.705
75408SOL     OW28120   0.358  14.472  13.447
75408SOL    HW128121   0.365  14.545  13.509
75408SOL    HW228122   0.385  14.510  13.364
75409SOL     OW28123   3.726  13.992   6.170
75409SOL    HW128124   3.755  14.040   6.248
75409SOL    HW228125   3.739  13.900   6.194
75410SOL     OW28126   8.771   1.383   3.757
75410SOL    HW128127   8.808   1.457   3.709
75410SOL    HW228128   8.701   1.351   3.701
75411SOL     OW28129   7.973   8.221  10.272
75411SOL    HW128130   7.981   8.175  10.189
75411SOL    HW228131   7.904   8.175  10.319
75412SOL     OW28132   2.057   0.106  13.585
75412SOL    HW128133   2.115   0.084  13.658
75412SOL    HW228134   2.010   0.184  13.615
75413SOL     OW28135   5.487   4.287  10.422
75413SOL    HW128136   5.511   4.205  10.466
75413SOL    HW228137   5.494   4.353  10.491
75414SOL     OW28138   8.073   6.876   0.549
75414SOL    HW128139   8.092   6.819   0.475
75414SOL    HW228140   8.035   6.818   0.615
75415SOL     OW28141   7.269   2.826   0.123
75415SOL    HW128142   7.347   2.878   0.143
75415SOL    HW228143   7.248   2.848   0.032
75416SOL     OW28144  12.710   8.408   6.540
75416SOL    HW128145  12.623   8.369   6.555
75416SOL    HW228146  12.702   8.451   6.455
75417SOL     OW28147   3.225   3.929   8.644
75417SOL    HW128148   3.211   3.836   8.628
75417SOL    HW228149   3.283   3.957   8.573
75418SOL     OW28150   3.038   6.000  12.916
75418SOL    HW128151   2.944   6.000  12.900
75418SOL    HW228152   3.062   6.092  12.913
75419SOL     OW28153  14.650   9.602  11.934
75419SOL    HW128154  14.647   9.507  11.944
75419SOL    HW228155  14.712   9.632  12.000
75420SOL     OW28156   2.648  12.860   6.124
75420SOL    HW128157   2.674  12.770   6.106
75420SOL    HW228158   2.730  12.910   6.123
75421SOL     OW28159   4.474   1.441   1.789
75421SOL    HW128160   4.455   1.509   1.724
75421SOL    HW228161   4.452   1.480   1.873
75422SOL     OW28162  10.325   7.432   8.934
75422SOL    HW128163  10.407   7.481   8.929
75422SOL    HW228164  10.257   7.495   8.909
75423SOL     OW28165   7.974   9.119   7.634
75423SOL    HW128166   7.999   9.211   7.620
75423SOL    HW228167   7.888   9.124   7.675
75424SOL     OW28168   9.788   8.155   9.267
75424SOL    HW128169   9.844   8.090   9.309
75424SOL    HW228170   9.815   8.238   9.306
75425SOL     OW28171  12.868   0.365   3.015
75425SOL    HW128172  12.925   0.384   3.090
75425SOL    HW228173  12.845   0.273   3.025
75426SOL     OW28174   4.578  13.551  13.120
75426SOL    HW128175   4.527  13.619  13.163
75426SOL    HW228176   4.623  13.505  13.191
75427SOL     OW28177   8.927  12.701   3.241
75427SOL    HW128178   8.946  12.757   3.316
75427SOL    HW228179   9.003  12.714   3.183
75428SOL     OW28180   8.749   9.358  14.674
75428SOL    HW128181   8.668   9.355  14.623
75428SOL    HW228182   8.809   9.411  14.621
75429SOL     OW28183   1.707   3.534   1.333
75429SOL    HW128184   1.614   3.515   1.345
75429SOL    HW228185   1.708   3.602   1.265
75430SOL     OW28186  13.424  13.986   1.360
75430SOL    HW128187  13.460  13.956   1.444
75430SOL    HW228188  13.443  14.080   1.359
75431SOL     OW28189   1.599  12.913   0.564
75431SOL    HW128190   1.616  12.838   0.621
75431SOL    HW228191   1.510  12.940   0.586
75432SOL     OW28192   7.100   7.764  12.638
75432SOL    HW128193   7.175   7.717  12.602
75432SOL    HW228194   7.046   7.696  12.678
75433SOL     OW28195  13.842   6.839   3.183
75433SOL    HW128196  13.874   6.928   3.169
75433SOL    HW228197  13.757   6.837   3.140
75434SOL     OW28198   8.632   0.814  14.744
75434SOL    HW128199   8.609   0.805  14.651
75434SOL    HW228200   8.550   0.798  14.790
75435SOL     OW28201   9.327  14.180   6.994
75435SOL    HW128202   9.411  14.146   7.026
75435SOL    HW228203   9.352  14.244   6.926
75436SOL     OW28204  14.700   6.998   2.464
75436SOL    HW128205  14.766   6.950   2.414
75436SOL    HW228206  14.750   7.043   2.532
75437SOL     OW28207  10.837  10.117  11.018
75437SOL    HW128208  10.852  10.022  11.012
75437SOL    HW228209  10.803  10.141  10.932
75438SOL     OW28210   8.139   8.428   9.807
75438SOL    HW128211   8.044   8.430   9.799
75438SOL    HW228212   8.168   8.382   9.727
75439SOL     OW28213  13.566  10.426   2.638
75439SOL    HW128214  13.486  10.464   2.673
75439SOL    HW228215  13.569  10.455   2.547
75440SOL     OW28216   0.164   2.900   2.852
75440SOL    HW128217   0.146   2.833   2.918
75440SOL    HW228218   0.187   2.978   2.902
75441SOL     OW28219  12.932   9.348   3.043
75441SOL    HW128220  12.888   9.268   3.073
75441SOL    HW228221  12.943   9.400   3.123
75442SOL     OW28222   5.246  10.545   8.414
75442SOL    HW128223   5.150  10.541   8.414
75442SOL    HW228224   5.273  10.457   8.438
75443SOL     OW28225   8.761  13.251   7.720
75443SOL    HW128226   8.760  13.310   7.645
75443SOL    HW228227   8.735  13.306   7.794
75444SOL     OW28228  11.815  11.739   4.204
75444SOL    HW128229  11.867  11.766   4.279
75444SOL    HW228230  11.726  11.770   4.223
75445SOL     OW28231  14.505  14.072   9.920
75445SOL    HW128232  14.436  14.138   9.930
75445SOL    HW228233  14.567  14.111   9.859
75446SOL     OW28234   1.998   1.008   5.865
75446SOL    HW128235   1.981   0.929   5.814
75446SOL    HW228236   1.935   1.005   5.937
75447SOL     OW28237   3.027   9.985   6.707
75447SOL    HW128238   3.096   9.967   6.771
75447SOL    HW228239   2.947   9.985   6.758
75448SOL     OW28240   0.251   2.806   9.382
75448SOL    HW128241   0.278   2.736   9.322
75448SOL    HW228242   0.278   2.887   9.338
75449SOL     OW28243  11.577   0.611   7.127
75449SOL    HW128244  11.556   0.602   7.034
75449SOL    HW228245  11.608   0.701   7.136
75450SOL     OW28246  12.579   0.110   8.196
75450SOL    HW128247  12.598   0.086   8.287
75450SOL    HW228248  12.559   0.027   8.153
75451SOL     OW28249   3.514   3.384   5.322
75451SOL    HW128250   3.475   3.309   5.367
75451SOL    HW228251   3.598   3.352   5.289
75452SOL     OW28252   7.822  12.757   4.967
75452SOL    HW128253   7.883  12.830   4.971
75452SOL    HW228254   7.752  12.787   4.910
75453SOL     OW28255   8.340  10.454  12.525
75453SOL    HW128256   8.408  10.439  12.592
75453SOL    HW228257   8.376  10.524  12.471
75454SOL     OW28258  12.004  11.407  11.325
75454SOL    HW128259  11.922  11.360  11.340
75454SOL    HW228260  12.073  11.343  11.343
75455SOL     OW28261   4.486  12.604   9.682
75455SOL    HW128262   4.453  12.688   9.713
75455SOL    HW228263   4.549  12.627   9.613
75456SOL     OW28264   8.137  12.858  11.822
75456SOL    HW128265   8.179  12.774  11.801
75456SOL    HW228266   8.095  12.885  11.740
75457SOL     OW28267  11.207   5.383   6.858
75457SOL    HW128268  11.188   5.467   6.817
75457SOL    HW228269  11.141   5.374   6.927
75458SOL     OW28270  11.566   2.083   6.259
75458SOL    HW128271  11.527   2.004   6.223
75458SOL    HW228272  11.509   2.154   6.230
75459SOL     OW28273   7.253   2.767  12.190
75459SOL    HW128274   7.204   2.729  12.263
75459SOL    HW228275   7.188   2.779  12.121
75460SOL     OW28276   5.230   1.170   2.828
75460SOL    HW128277   5.158   1.232   2.823
75460SOL    HW228278   5.307   1.225   2.848
75461SOL     OW28279   2.726  12.208  11.548
75461SOL    HW128280   2.706  12.114  11.546
75461SOL    HW228281   2.641  12.250  11.536
75462SOL     OW28282   0.177   2.276   1.009
75462SOL    HW128283   0.163   2.368   0.985
75462SOL    HW228284   0.211   2.280   1.098
75463SOL     OW28285   6.456   1.369   5.714
75463SOL    HW128286   6.373   1.367   5.667
75463SOL    HW228287   6.494   1.454   5.692
75464SOL     OW28288  12.897   6.021  10.269
75464SOL    HW128289  12.808   5.997  10.295
75464SOL    HW228290  12.900   6.001  10.175
75465SOL     OW28291   1.074   6.624   6.350
75465SOL    HW128292   1.012   6.680   6.396
75465SOL    HW228293   1.159   6.663   6.367
75466SOL     OW28294  10.001   1.568   0.537
75466SOL    HW128295   9.914   1.546   0.504
75466SOL    HW228296  10.008   1.663   0.526
75467SOL     OW28297   4.890  12.604   8.757
75467SOL    HW128298   4.919  12.691   8.729
75467SOL    HW228299   4.800  12.617   8.787
75468SOL     OW28300  13.738  12.502  10.053
75468SOL    HW128301  13.654  12.459  10.037
75468SOL    HW228302  13.804  12.436  10.031
75469SOL     OW28303   0.573   8.984   3.910
75469SOL    HW128304   0.539   8.977   3.999
75469SOL    HW228305   0.496   9.006   3.857
75470SOL     OW28306  14.482  12.443  10.815
75470SOL    HW128307  14.409  12.388  10.844
75470SOL    HW228308  14.536  12.454  10.893
75471SOL     OW28309  14.791   0.232   3.997
75471SOL    HW128310  14.860   0.294   3.975
75471SOL    HW228311  14.736   0.229   3.919
75472SOL     OW28312   3.254   2.887   5.364
75472SOL    HW128313   3.290   2.816   5.310
75472SOL    HW228314   3.162   2.892   5.339
75473SOL     OW28315  12.736   2.323   5.520
75473SOL    HW128316  12.778   2.251   5.475
75473SOL    HW228317  12.650   2.288   5.546
75474SOL     OW28318  11.761   2.835  13.934
75474SOL    HW128319  11.691   2.843  13.869
75474SOL    HW228320  11.807   2.754  13.909
75475SOL     OW28321   8.759   3.629   6.391
75475SOL    HW128322   8.804   3.573   6.454
75475SOL    HW228323   8.771   3.717   6.425
75476SOL     OW28324   5.101   7.664   5.603
75476SOL    HW128325   5.130   7.615   5.526
75476SOL    HW228326   5.180   7.706   5.636
75477SOL     OW28327   5.134   1.194  14.027
75477SOL    HW128328   5.201   1.208  14.094
75477SOL    HW228329   5.118   1.100  14.028
75478SOL     OW28330   6.757   3.206   5.147
75478SOL    HW128331   6.721   3.269   5.210
75478SOL    HW228332   6.790   3.260   5.075
75479SOL     OW28333  10.261   0.914   1.433
75479SOL    HW128334  10.218   0.875   1.509
75479SOL    HW228335  10.310   0.988   1.468
75480SOL     OW28336   3.318   4.157  13.520
75480SOL    HW128337   3.378   4.193  13.454
75480SOL    HW228338   3.238   4.208  13.509
75481SOL     OW28339   1.595   5.284   1.836
75481SOL    HW128340   1.602   5.377   1.858
75481SOL    HW228341   1.585   5.240   1.920
75482SOL     OW28342   5.755   3.122   1.777
75482SOL    HW128343   5.698   3.174   1.721
75482SOL    HW228344   5.835   3.175   1.786
75483SOL     OW28345   0.905   8.734  11.542
75483SOL    HW128346   0.888   8.756  11.634
75483SOL    HW228347   0.853   8.656  11.526
75484SOL     OW28348  14.093  13.515   3.412
75484SOL    HW128349  14.078  13.575   3.338
75484SOL    HW228350  14.158  13.453   3.379
75485SOL     OW28351   8.171  13.068   4.633
75485SOL    HW128352   8.236  13.053   4.565
75485SOL    HW228353   8.193  13.006   4.703
75486SOL     OW28354  13.089   0.348  13.738
75486SOL    HW128355  13.137   0.425  13.708
75486SOL    HW228356  13.076   0.363  13.831
75487SOL     OW28357   8.183  12.309  13.044
75487SOL    HW128358   8.146  12.276  13.126
75487SOL    HW228359   8.166  12.240  12.980
75488SOL     OW28360   5.054   3.471   6.925
75488SOL    HW128361   4.971   3.484   6.971
75488SOL    HW228362   5.120   3.511   6.982
75489SOL     OW28363   6.032  10.520   3.871
75489SOL    HW128364   6.028  10.424   3.876
75489SOL    HW228365   6.070  10.546   3.955
75490SOL     OW28366   7.769   1.026   7.199
75490SOL    HW128367   7.850   0.977   7.214
75490SOL    HW228368   7.701   0.974   7.243
75491SOL     OW28369   2.651  14.555   9.946
75491SOL    HW128370   2.744  14.563   9.925
75491SOL    HW228371   2.623  14.645   9.964
75492SOL     OW28372   9.831   2.450   6.975
75492SOL    HW128373   9.766   2.437   7.043
75492SOL    HW228374   9.833   2.545   6.961
75493SOL     OW28375  11.106   7.356   8.331
75493SOL    HW128376  11.172   7.405   8.281
75493SOL    HW228377  11.095   7.406   8.412
75494SOL     OW28378   0.802   7.052   7.077
75494SOL    HW128379   0.807   6.975   7.134
75494SOL    HW228380   0.879   7.046   7.021
75495SOL     OW28381   9.698   9.555   5.282
75495SOL    HW128382   9.675   9.566   5.189
75495SOL    HW228383   9.626   9.597   5.329
75496SOL     OW28384   1.964   6.134   8.639
75496SOL    HW128385   1.869   6.143   8.652
75496SOL    HW228386   1.976   6.042   8.615
75497SOL     OW28387   2.793   9.259  14.129
75497SOL    HW128388   2.710   9.307  14.128
75497SOL    HW228389   2.769   9.171  14.100
75498SOL     OW28390   0.201   1.440  10.021
75498SOL    HW128391   0.127   1.382  10.000
75498SOL    HW228392   0.167   1.496  10.091
75499SOL     OW28393   0.801  11.426   7.898
75499SOL    HW128394   0.843  11.487   7.837
75499SOL    HW228395   0.708  11.429   7.874
75500SOL     OW28396   8.393  11.051  10.789
75500SOL    HW128397   8.463  11.035  10.725
75500SOL    HW228398   8.330  11.106  10.742
75501SOL     OW28399   0.835   8.519   4.531
75501SOL    HW128400   0.928   8.516   4.554
75501SOL    HW228401   0.792   8.560   4.606
75502SOL     OW28402   4.207   0.662   0.486
75502SOL    HW128403   4.293   0.642   0.524
75502SOL    HW228404   4.145   0.643   0.555
75503SOL     OW28405  13.981   5.013  10.878
75503SOL    HW128406  13.951   4.923  10.892
75503SOL    HW228407  13.984   5.022  10.783
75504SOL     OW28408   6.769  14.084   7.710
75504SOL    HW128409   6.706  14.146   7.748
75504SOL    HW228410   6.779  14.112   7.619
75505SOL     OW28411   6.805  10.683   9.446
75505SOL    HW128412   6.802  10.594   9.411
75505SOL    HW228413   6.715  10.702   9.473
75506SOL     OW28414   2.547  11.889   9.464
75506SOL    HW128415   2.461  11.892   9.423
75506SOL    HW228416   2.608  11.877   9.391
75507SOL     OW28417   3.973   3.974   7.305
75507SOL    HW128418   3.920   4.053   7.292
75507SOL    HW228419   3.962   3.953   7.398
75508SOL     OW28420   5.808   9.240   2.170
75508SOL    HW128421   5.765   9.215   2.252
75508SOL    HW228422   5.789   9.168   2.110
75509SOL     OW28423  13.541  13.362  12.277
75509SOL    HW128424  13.519  13.272  12.302
75509SOL    HW228425  13.462  13.395  12.234
75510SOL     OW28426  10.286  14.110  14.710
75510SOL    HW128427  10.244  14.170  14.772
75510SOL    HW228428  10.317  14.166  14.639
75511SOL     OW28429  11.000   8.969  10.130
75511SOL    HW128430  10.997   9.046  10.073
75511SOL    HW228431  11.093   8.952  10.142
75512SOL     OW28432   7.146  14.231  12.844
75512SOL    HW128433   7.066  14.191  12.808
75512SOL    HW228434   7.147  14.203  12.936
75513SOL     OW28435  12.565   6.886   1.039
75513SOL    HW128436  12.517   6.965   1.062
75513SOL    HW228437  12.644   6.889   1.094
75514SOL     OW28438  10.027   5.445   8.629
75514SOL    HW128439   9.984   5.378   8.577
75514SOL    HW228440  10.109   5.464   8.583
75515SOL     OW28441   9.322  14.436  10.202
75515SOL    HW128442   9.415  14.416  10.213
75515SOL    HW228443   9.303  14.412  10.111
75516SOL     OW28444  13.772   6.383   5.256
75516SOL    HW128445  13.759   6.371   5.350
75516SOL    HW228446  13.801   6.298   5.224
75517SOL     OW28447   9.257  11.729  14.826
75517SOL    HW128448   9.282  11.659   0.005
75517SOL    HW228449   9.303  11.806  14.858
75518SOL     OW28450   8.148   4.071   5.333
75518SOL    HW128451   8.205   4.025   5.394
75518SOL    HW228452   8.154   4.021   5.252
75519SOL     OW28453   7.378  11.951   9.250
75519SOL    HW128454   7.446  12.018   9.248
75519SOL    HW228455   7.296  12.000   9.255
75520SOL     OW28456  14.020   8.422   4.838
75520SOL    HW128457  14.096   8.459   4.883
75520SOL    HW228458  14.006   8.479   4.763
75521SOL     OW28459   8.324   9.175   0.530
75521SOL    HW128460   8.289   9.168   0.618
75521SOL    HW228461   8.398   9.114   0.528
75522SOL     OW28462   0.687  13.745   6.535
75522SOL    HW128463   0.642  13.742   6.619
75522SOL    HW228464   0.777  13.717   6.555
75523SOL     OW28465   0.982   0.693   8.356
75523SOL    HW128466   1.076   0.712   8.351
75523SOL    HW228467   0.966   0.675   8.449
75524SOL     OW28468  10.111   3.199   4.853
75524SOL    HW128469  10.153   3.149   4.783
75524SOL    HW228470  10.067   3.271   4.807
75525SOL     OW28471   4.050  14.091   0.980
75525SOL    HW128472   4.060  14.006   0.939
75525SOL    HW228473   3.956  14.099   0.997
75526SOL     OW28474  12.847   5.090  14.182
75526SOL    HW128475  12.858   4.999  14.156
75526SOL    HW228476  12.764   5.117  14.141
75527SOL     OW28477  10.269   4.639   3.833
75527SOL    HW128478  10.222   4.606   3.756
75527SOL    HW228479  10.360   4.612   3.818
75528SOL     OW28480   6.066  11.942  14.251
75528SOL    HW128481   5.974  11.915  14.250
75528SOL    HW228482   6.063  12.037  14.242
75529SOL     OW28483   3.867   4.170  10.561
75529SOL    HW128484   3.873   4.262  10.587
75529SOL    HW228485   3.798   4.168  10.495
75530SOL     OW28486  14.106   3.744  10.054
75530SOL    HW128487  14.070   3.826  10.019
75530SOL    HW228488  14.201   3.757  10.052
75531SOL     OW28489   7.868   3.910   6.233
75531SOL    HW128490   7.920   3.990   6.239
75531SOL    HW228491   7.907   3.862   6.160
75532SOL     OW28492   4.200   7.834   9.237
75532SOL    HW128493   4.214   7.810   9.145
75532SOL    HW228494   4.261   7.779   9.286
75533SOL     OW28495   7.110   2.395  10.591
75533SOL    HW128496   7.195   2.366  10.624
75533SOL    HW228497   7.130   2.439  10.508
75534SOL     OW28498  12.284   4.524   0.787
75534SOL    HW128499  12.262   4.600   0.733
75534SOL    HW228500  12.343   4.559   0.854
75535SOL     OW28501  10.860   2.286   4.585
75535SOL    HW128502  10.806   2.224   4.633
75535SOL    HW228503  10.839   2.371   4.624
75536SOL     OW28504  13.616   8.493  11.329
75536SOL    HW128505  13.614   8.549  11.406
75536SOL    HW228506  13.602   8.404  11.362
75537SOL     OW28507  10.946  12.320  11.850
75537SOL    HW128508  10.895  12.258  11.902
75537SOL    HW228509  10.989  12.377  11.914
75538SOL     OW28510   9.765  12.043   4.222
75538SOL    HW128511   9.684  11.994   4.240
75538SOL    HW228512   9.749  12.129   4.259
75539SOL     OW28513  13.542  11.755   6.238
75539SOL    HW128514  13.599  11.830   6.222
75539SOL    HW228515  13.480  11.786   6.303
75540SOL     OW28516   8.420   7.466   0.814
75540SOL    HW128517   8.437   7.507   0.898
75540SOL    HW228518   8.337   7.505   0.784
75541SOL     OW28519  14.260   2.958   4.591
75541SOL    HW128520  14.247   2.868   4.623
75541SOL    HW228521  14.278   3.009   4.669
75542SOL     OW28522  14.545   9.678   5.725
75542SOL    HW128523  14.537   9.618   5.650
75542SOL    HW228524  14.623   9.648   5.772
75543SOL     OW28525  14.344   1.391   4.290
75543SOL    HW128526  14.259   1.388   4.335
75543SOL    HW228527  14.339   1.470   4.236
75544SOL     OW28528  12.978  12.064   2.918
75544SOL    HW128529  13.050  12.001   2.911
75544SOL    HW228530  12.911  12.017   2.969
75545SOL     OW28531   7.675   9.864   9.348
75545SOL    HW128532   7.704   9.807   9.419
75545SOL    HW228533   7.581   9.873   9.362
75546SOL     OW28534   4.325   6.580   0.876
75546SOL    HW128535   4.378   6.581   0.956
75546SOL    HW228536   4.236   6.561   0.905
75547SOL     OW28537  14.670  10.270   8.907
75547SOL    HW128538  14.703  10.359   8.894
75547SOL    HW228539  14.679  10.254   9.001
75548SOL     OW28540   7.153  12.811   4.029
75548SOL    HW128541   7.092  12.874   4.066
75548SOL    HW228542   7.113  12.726   4.047
75549SOL     OW28543  10.478   7.746   5.109
75549SOL    HW128544  10.540   7.779   5.044
75549SOL    HW228545  10.398   7.795   5.092
75550SOL     OW28546  14.665   8.779   8.421
75550SOL    HW128547  14.671   8.695   8.376
75550SOL    HW228548  14.580   8.778   8.464
75551SOL     OW28549   4.398   6.692   1.935
75551SOL    HW128550   4.312   6.705   1.895
75551SOL    HW228551   4.389   6.611   1.985
75552SOL     OW28552   3.525   8.128   8.360
75552SOL    HW128553   3.520   8.036   8.384
75552SOL    HW228554   3.460   8.171   8.416
75553SOL     OW28555   4.071   3.042   3.560
75553SOL    HW128556   4.129   2.975   3.597
75553SOL    HW228557   4.110   3.064   3.475
75554SOL     OW28558   1.283  12.071  10.476
75554SOL    HW128559   1.268  11.979  10.456
75554SOL    HW228560   1.312  12.109  10.393
75555SOL     OW28561   6.252   8.632   8.078
75555SOL    HW128562   6.317   8.686   8.032
75555SOL    HW228563   6.234   8.560   8.018
75556SOL     OW28564  14.706   5.964   5.266
75556SOL    HW128565  14.670   5.875   5.267
75556SOL    HW228566  14.722   5.983   5.173
75557SOL     OW28567   1.046  12.353  12.054
75557SOL    HW128568   1.042  12.359  11.959
75557SOL    HW228569   1.007  12.434  12.085
75558SOL     OW28570   2.401   6.024  14.331
75558SOL    HW128571   2.416   5.930  14.327
75558SOL    HW228572   2.489   6.062  14.333
75559SOL     OW28573  10.768   0.205   3.998
75559SOL    HW128574  10.754   0.296   3.971
75559SOL    HW228575  10.703   0.192   4.068
75560SOL     OW28576   9.447  10.533   1.739
75560SOL    HW128577   9.391  10.502   1.810
75560SOL    HW228578   9.414  10.487   1.661
75561SOL     OW28579   9.609  11.087   6.508
75561SOL    HW128580   9.557  11.096   6.428
75561SOL    HW228581   9.552  11.119   6.578
75562SOL     OW28582  12.095   7.994   4.251
75562SOL    HW128583  12.077   8.088   4.245
75562SOL    HW228584  12.134   7.971   4.166
75563SOL     OW28585   8.847  11.959   0.456
75563SOL    HW128586   8.914  12.014   0.497
75563SOL    HW228587   8.852  11.875   0.503
75564SOL     OW28588  14.773  10.505   8.955
75564SOL    HW128589  14.791  10.578   8.896
75564SOL    HW228590  14.741  10.546   9.035
75565SOL     OW28591  10.731   9.738   6.872
75565SOL    HW128592  10.730   9.648   6.839
75565SOL    HW228593  10.651   9.745   6.925
75566SOL     OW28594   0.350   7.378  12.532
75566SOL    HW128595   0.267   7.332  12.521
75566SOL    HW228596   0.380   7.353  12.619
75567SOL     OW28597   2.065  11.409   5.026
75567SOL    HW128598   2.156  11.380   5.019
75567SOL    HW228599   2.062  11.491   4.978
75568SOL     OW28600   4.724   6.948  10.040
75568SOL    HW128601   4.770   6.917   9.962
75568SOL    HW228602   4.750   6.887  10.109
75569SOL     OW28603   3.911  13.078   2.891
75569SOL    HW128604   3.844  13.013   2.909
75569SOL    HW228605   3.943  13.104   2.977
75570SOL     OW28606   0.033   6.008   1.547
75570SOL    HW128607   0.022   5.959   1.465
75570SOL    HW228608   0.120   5.984   1.577
75571SOL     OW28609   4.278   1.387   7.384
75571SOL    HW128610   4.335   1.438   7.441
75571SOL    HW228611   4.321   1.302   7.377
75572SOL     OW28612  11.529   6.998   7.447
75572SOL    HW128613  11.558   7.055   7.376
75572SOL    HW228614  11.484   7.057   7.508
75573SOL     OW28615  10.597   5.874  14.472
75573SOL    HW128616  10.529   5.815  14.504
75573SOL    HW228617  10.550   5.948  14.435
75574SOL     OW28618   2.486   1.381   6.683
75574SOL    HW128619   2.402   1.347   6.653
75574SOL    HW228620   2.469   1.473   6.704
75575SOL     OW28621   7.598  14.296   2.284
75575SOL    HW128622   7.598  14.375   2.339
75575SOL    HW228623   7.512  14.257   2.298
75576SOL     OW28624   1.747   7.295  11.360
75576SOL    HW128625   1.816   7.362  11.356
75576SOL    HW228626   1.671   7.337  11.318
75577SOL     OW28627   4.886   6.869   4.140
75577SOL    HW128628   4.811   6.894   4.194
75577SOL    HW228629   4.871   6.776   4.120
75578SOL     OW28630   9.283  12.713  13.972
75578SOL    HW128631   9.376  12.691  13.976
75578SOL    HW228632   9.272  12.783  14.035
75579SOL     OW28633   7.022   8.351  11.249
75579SOL    HW128634   7.035   8.388  11.161
75579SOL    HW228635   7.062   8.264  11.245
75580SOL     OW28636  11.765  13.870   7.335
75580SOL    HW128637  11.851  13.854   7.373
75580SOL    HW228638  11.747  13.793   7.281
75581SOL     OW28639   2.693   4.210   3.922
75581SOL    HW128640   2.727   4.199   3.833
75581SOL    HW228641   2.754   4.163   3.977
75582SOL     OW28642   8.772   1.040   9.577
75582SOL    HW128643   8.812   1.063   9.661
75582SOL    HW228644   8.698   0.985   9.601
75583SOL     OW28645  11.486   3.730   7.866
75583SOL    HW128646  11.428   3.786   7.919
75583SOL    HW228647  11.436   3.712   7.787
75584SOL     OW28648   6.707   3.520   6.168
75584SOL    HW128649   6.611   3.517   6.167
75584SOL    HW228650   6.732   3.465   6.243
75585SOL     OW28651  12.874   8.230   5.859
75585SOL    HW128652  12.855   8.137   5.867
75585SOL    HW228653  12.894   8.258   5.949
75586SOL     OW28654   0.147   2.532   0.910
75586SOL    HW128655   0.072   2.568   0.863
75586SOL    HW228656   0.216   2.598   0.898
75587SOL     OW28657   0.741   8.252   9.046
75587SOL    HW128658   0.715   8.319   8.982
75587SOL    HW228659   0.738   8.298   9.130
75588SOL     OW28660   8.282   9.149   3.007
75588SOL    HW128661   8.226   9.100   2.946
75588SOL    HW228662   8.291   9.092   3.083
75589SOL     OW28663   4.162  14.815   7.776
75589SOL    HW128664   4.219  14.836   7.851
75589SOL    HW228665   4.215  14.836   7.699
75590SOL     OW28666   7.843   2.402   4.009
75590SOL    HW128667   7.871   2.446   4.089
75590SOL    HW228668   7.770   2.347   4.036
75591SOL     OW28669   7.460  13.369  11.894
75591SOL    HW128670   7.482  13.336  11.807
75591SOL    HW228671   7.435  13.461  11.879
75592SOL     OW28672  14.098   0.940  11.596
75592SOL    HW128673  14.050   0.867  11.557
75592SOL    HW228674  14.114   1.000  11.524
75593SOL     OW28675   3.247  12.323  13.025
75593SOL    HW128676   3.331  12.292  13.058
75593SOL    HW228677   3.193  12.336  13.103
75594SOL     OW28678   9.701   8.111   8.177
75594SOL    HW128679   9.670   8.021   8.180
75594SOL    HW228680   9.622   8.164   8.186
75595SOL     OW28681  11.290   1.960  13.374
75595SOL    HW128682  11.318   2.050  13.383
75595SOL    HW228683  11.194   1.965  13.367
75596SOL     OW28684   4.192   4.349   4.412
75596SOL    HW128685   4.164   4.335   4.321
75596SOL    HW228686   4.222   4.263   4.441
75597SOL     OW28687   9.743   0.598  11.688
75597SOL    HW128688   9.824   0.649  11.683
75597SOL    HW228689   9.753   0.545  11.767
75598SOL     OW28690  10.003  11.885   9.150
75598SOL    HW128691  10.055  11.910   9.073
75598SOL    HW228692  10.064  11.836   9.205
75599SOL     OW28693   3.595   4.618   5.669
75599SOL    HW128694   3.584   4.549   5.603
75599SOL    HW228695   3.670   4.669   5.638
75600SOL     OW28696   1.801   4.830   5.044
75600SOL    HW128697   1.807   4.768   4.971
75600SOL    HW228698   1.767   4.778   5.117
75601SOL     OW28699  13.780  12.887   5.361
75601SOL    HW128700  13.783  12.806   5.412
75601SOL    HW228701  13.713  12.870   5.294
75602SOL     OW28702   1.152  10.700   8.061
75602SOL    HW128703   1.121  10.660   8.142
75602SOL    HW228704   1.075  10.704   8.005
75603SOL     OW28705   8.675   5.354   0.070
75603SOL    HW128706   8.724   5.376   0.149
75603SOL    HW228707   8.650   5.262   0.083
75604SOL     OW28708   5.863   4.893  10.229
75604SOL    HW128709   5.918   4.869  10.154
75604SOL    HW228710   5.775   4.865  10.204
75605SOL     OW28711   7.378   1.441   7.129
75605SOL    HW128712   7.442   1.480   7.070
75605SOL    HW228713   7.376   1.349   7.104
75606SOL     OW28714   2.480   2.674   1.845
75606SOL    HW128715   2.543   2.705   1.911
75606SOL    HW228716   2.439   2.598   1.886
75607SOL     OW28717  12.803   5.164   6.781
75607SOL    HW128718  12.880   5.219   6.795
75607SOL    HW228719  12.819   5.087   6.834
75608SOL     OW28720   5.805  11.399   8.999
75608SOL    HW128721   5.817  11.396   8.904
75608SOL    HW228722   5.720  11.359   9.013
75609SOL     OW28723   1.251  13.253   8.245
75609SOL    HW128724   1.193  13.198   8.297
75609SOL    HW228725   1.210  13.340   8.247
75610SOL     OW28726   5.291   9.774   5.787
75610SOL    HW128727   5.284   9.866   5.762
75610SOL    HW228728   5.211   9.757   5.838
75611SOL     OW28729  10.026   3.555  13.646
75611SOL    HW128730  10.025   3.568  13.741
75611SOL    HW228731   9.958   3.613  13.613
75612SOL     OW28732   7.399  10.816   5.642
75612SOL    HW128733   7.465  10.885   5.643
75612SOL    HW228734   7.362  10.819   5.554
75613SOL     OW28735  13.378  14.248  11.722
75613SOL    HW128736  13.353  14.157  11.701
75613SOL    HW228737  13.299  14.299  11.703
75614SOL     OW28738  13.996  11.185  10.634
75614SOL    HW128739  13.924  11.143  10.682
75614SOL    HW228740  13.958  11.267  10.602
75615SOL     OW28741  10.879   4.643   0.506
75615SOL    HW128742  10.885   4.723   0.455
75615SOL    HW228743  10.938   4.657   0.580
75616SOL     OW28744   2.335   3.516  11.311
75616SOL    HW128745   2.275   3.538  11.239
75616SOL    HW228746   2.422   3.533  11.276
75617SOL     OW28747  10.891   2.498  13.302
75617SOL    HW128748  10.941   2.417  13.296
75617SOL    HW228749  10.865   2.517  13.212
75618SOL     OW28750   7.025   8.480  10.871
75618SOL    HW128751   6.974   8.472  10.790
75618SOL    HW228752   6.963   8.455  10.940
75619SOL     OW28753   7.914  11.443  11.893
75619SOL    HW128754   7.876  11.527  11.866
75619SOL    HW228755   7.888  11.382  11.824
75620SOL     OW28756   1.022  11.297   7.465
75620SOL    HW128757   1.028  11.327   7.556
75620SOL    HW228758   1.033  11.202   7.470
75621SOL     OW28759  14.739  13.563   5.404
75621SOL    HW128760  14.809  13.500   5.387
75621SOL    HW228761  14.776  13.647   5.380
75622SOL     OW28762   2.919   9.344   5.391
75622SOL    HW128763   2.905   9.262   5.344
75622SOL    HW228764   2.883   9.327   5.478
75623SOL     OW28765   7.789  10.793   9.041
75623SOL    HW128766   7.819  10.749   9.120
75623SOL    HW228767   7.734  10.865   9.072
75624SOL     OW28768   6.533   3.134   1.147
75624SOL    HW128769   6.603   3.187   1.187
75624SOL    HW228770   6.452   3.172   1.181
75625SOL     OW28771   8.094  10.017  14.748
75625SOL    HW128772   8.180  10.010  14.708
75625SOL    HW228773   8.107   9.990  14.839
75626SOL     OW28774   3.749   8.717   2.956
75626SOL    HW128775   3.661   8.755   2.959
75626SOL    HW228776   3.782   8.741   2.869
75627SOL     OW28777   3.988   2.892   0.417
75627SOL    HW128778   4.059   2.926   0.363
75627SOL    HW228779   3.984   2.953   0.491
75628SOL     OW28780  14.587   6.698  14.809
75628SOL    HW128781  14.538   6.755  14.867
75628SOL    HW228782  14.623   6.630  14.867
75629SOL     OW28783  10.204   1.604   2.756
75629SOL    HW128784  10.127   1.648   2.721
75629SOL    HW228785  10.213   1.637   2.846
75630SOL     OW28786  10.631   1.606   3.919
75630SOL    HW128787  10.634   1.557   4.001
75630SOL    HW228788  10.689   1.681   3.934
75631SOL     OW28789   4.290   7.360   5.129
75631SOL    HW128790   4.351   7.424   5.092
75631SOL    HW228791   4.222   7.413   5.171
75632SOL     OW28792  14.314   4.836  14.882
75632SOL    HW128793  14.269   4.762   0.041
75632SOL    HW228794  14.266   4.913   0.032
75633SOL     OW28795   0.518   7.611   6.836
75633SOL    HW128796   0.462   7.674   6.882
75633SOL    HW228797   0.504   7.528   6.881
75634SOL     OW28798   5.312   1.379   2.203
75634SOL    HW128799   5.344   1.290   2.215
75634SOL    HW228800   5.378   1.434   2.246
75635SOL     OW28801   9.246   6.340  10.245
75635SOL    HW128802   9.212   6.430  10.245
75635SOL    HW228803   9.329   6.346  10.197
75636SOL     OW28804  12.931   7.948   1.168
75636SOL    HW128805  13.016   7.904   1.172
75636SOL    HW228806  12.936   8.003   1.089
75637SOL     OW28807  10.406   7.650  13.213
75637SOL    HW128808  10.422   7.682  13.302
75637SOL    HW228809  10.370   7.562  13.225
75638SOL     OW28810   5.695  11.756   2.553
75638SOL    HW128811   5.633  11.738   2.624
75638SOL    HW228812   5.773  11.790   2.598
75639SOL     OW28813   0.455  14.305   9.222
75639SOL    HW128814   0.536  14.337   9.262
75639SOL    HW228815   0.467  14.211   9.215
75640SOL     OW28816   9.510   5.214   6.466
75640SOL    HW128817   9.581   5.160   6.499
75640SOL    HW228818   9.449   5.222   6.540
75641SOL     OW28819   7.836  11.096  14.778
75641SOL    HW128820   7.772  11.084  14.848
75641SOL    HW228821   7.786  11.129  14.704
75642SOL     OW28822   5.685  13.320  11.300
75642SOL    HW128823   5.736  13.256  11.348
75642SOL    HW228824   5.596  13.284  11.299
75643SOL     OW28825  12.206   2.936   3.190
75643SOL    HW128826  12.218   2.955   3.283
75643SOL    HW228827  12.177   3.019   3.152
75644SOL     OW28828   4.867  14.223  11.383
75644SOL    HW128829   4.786  14.273  11.397
75644SOL    HW228830   4.914  14.272  11.316
75645SOL     OW28831   7.788   5.979  11.762
75645SOL    HW128832   7.829   6.036  11.697
75645SOL    HW228833   7.722   6.035  11.804
75646SOL     OW28834  14.767   1.985   0.894
75646SOL    HW128835  14.752   1.960   0.985
75646SOL    HW228836  14.781   1.902   0.848
75647SOL     OW28837  12.454   7.685   4.057
75647SOL    HW128838  12.390   7.674   4.128
75647SOL    HW228839  12.441   7.608   4.002
75648SOL     OW28840   4.809  14.164   6.747
75648SOL    HW128841   4.835  14.103   6.679
75648SOL    HW228842   4.891  14.202   6.778
75649SOL     OW28843  11.619  14.284   7.873
75649SOL    HW128844  11.530  14.285   7.908
75649SOL    HW228845  11.646  14.376   7.875
75650SOL     OW28846  12.823   9.735  11.067
75650SOL    HW128847  12.850   9.698  11.151
75650SOL    HW228848  12.790   9.660  11.017
75651SOL     OW28849   7.018  12.339   1.014
75651SOL    HW128850   6.989  12.428   1.028
75651SOL    HW228851   7.016  12.328   0.919
75652SOL     OW28852  14.164   6.772   6.961
75652SOL    HW128853  14.096   6.741   6.901
75652SOL    HW228854  14.209   6.693   6.990
75653SOL     OW28855  10.638   8.378  11.273
75653SOL    HW128856  10.728   8.408  11.257
75653SOL    HW228857  10.583   8.452  11.248
75654SOL     OW28858  10.674  14.123   0.034
75654SOL    HW128859  10.675  14.028   0.047
75654SOL    HW228860  10.742  14.155   0.094
75655SOL     OW28861   5.500  11.248  12.288
75655SOL    HW128862   5.537  11.336  12.277
75655SOL    HW228863   5.548  11.212  12.362
75656SOL     OW28864   3.007   0.686   3.327
75656SOL    HW128865   2.964   0.704   3.243
75656SOL    HW228866   3.076   0.752   3.333
75657SOL     OW28867   4.637  14.032   0.055
75657SOL    HW128868   4.725  14.043   0.089
75657SOL    HW228869   4.588  14.107   0.089
75658SOL     OW28870  11.713   6.899   1.601
75658SOL    HW128871  11.702   6.864   1.513
75658SOL    HW228872  11.703   6.994   1.590
75659SOL     OW28873  12.468   8.816   7.875
75659SOL    HW128874  12.521   8.737   7.873
75659SOL    HW228875  12.379   8.786   7.855
75660SOL     OW28876   4.589   6.762   5.689
75660SOL    HW128877   4.618   6.681   5.731
75660SOL    HW228878   4.500   6.743   5.659
75661SOL     OW28879  11.839   5.760   5.900
75661SOL    HW128880  11.825   5.846   5.941
75661SOL    HW228881  11.908   5.719   5.952
75662SOL     OW28882   1.365   6.923  12.145
75662SOL    HW128883   1.401   7.009  12.124
75662SOL    HW228884   1.440   6.871  12.174
75663SOL     OW28885   4.184   4.205   8.605
75663SOL    HW128886   4.114   4.183   8.543
75663SOL    HW228887   4.155   4.169   8.688
75664SOL     OW28888   1.381   6.055  10.317
75664SOL    HW128889   1.409   5.993  10.383
75664SOL    HW228890   1.416   6.020  10.235
75665SOL     OW28891  13.448  12.302   1.239
75665SOL    HW128892  13.522  12.348   1.279
75665SOL    HW228893  13.468  12.210   1.251
75666SOL     OW28894  11.683   8.574  11.075
75666SOL    HW128895  11.672   8.584  10.981
75666SOL    HW228896  11.620   8.636  11.113
75667SOL     OW28897   8.390   3.807   1.617
75667SOL    HW128898   8.453   3.738   1.596
75667SOL    HW228899   8.429   3.854   1.691
75668SOL     OW28900   4.785  13.497   7.020
75668SOL    HW128901   4.879  13.488   7.004
75668SOL    HW228902   4.747  13.418   6.981
75669SOL     OW28903   9.177   5.571   6.355
75669SOL    HW128904   9.167   5.661   6.325
75669SOL    HW228905   9.094   5.529   6.335
75670SOL     OW28906   7.366  10.854  10.896
75670SOL    HW128907   7.280  10.822  10.923
75670SOL    HW228908   7.380  10.931  10.951
75671SOL     OW28909   1.638   5.551   0.043
75671SOL    HW128910   1.563   5.554   0.103
75671SOL    HW228911   1.600   5.529  14.840
75672SOL     OW28912  13.338   4.450   4.782
75672SOL    HW128913  13.293   4.503   4.716
75672SOL    HW228914  13.286   4.462   4.862
75673SOL     OW28915  11.860  13.972   1.025
75673SOL    HW128916  11.916  14.036   1.068
75673SOL    HW228917  11.916  13.896   1.011
75674SOL     OW28918  11.031   2.260   5.309
75674SOL    HW128919  11.014   2.189   5.371
75674SOL    HW228920  10.996   2.338   5.352
75675SOL     OW28921  14.744   2.827   4.095
75675SOL    HW128922  14.731   2.842   4.002
75675SOL    HW228923  14.708   2.740   4.111
75676SOL     OW28924   8.938  11.202   2.835
75676SOL    HW128925   8.876  11.134   2.862
75676SOL    HW228926   9.010  11.196   2.898
75677SOL     OW28927   6.379  14.405   5.204
75677SOL    HW128928   6.443  14.438   5.266
75677SOL    HW228929   6.400  14.450   5.122
75678SOL     OW28930   8.422   5.440  10.930
75678SOL    HW128931   8.386   5.529  10.923
75678SOL    HW228932   8.396   5.398  10.848
75679SOL     OW28933   7.808   6.802  14.598
75679SOL    HW128934   7.890   6.755  14.610
75679SOL    HW228935   7.801   6.859  14.674
75680SOL     OW28936   5.440   3.627  12.178
75680SOL    HW128937   5.495   3.679  12.236
75680SOL    HW228938   5.500   3.594  12.111
75681SOL     OW28939   4.795   9.801  10.392
75681SOL    HW128940   4.740   9.870  10.429
75681SOL    HW228941   4.884   9.837  10.395
75682SOL     OW28942   5.873   3.573   5.144
75682SOL    HW128943   5.881   3.502   5.081
75682SOL    HW228944   5.781   3.570   5.172
75683SOL     OW28945  11.153   1.566  13.806
75683SOL    HW128946  11.082   1.592  13.746
75683SOL    HW228947  11.202   1.500  13.758
75684SOL     OW28948   6.476  13.935   7.226
75684SOL    HW128949   6.541  13.866   7.214
75684SOL    HW228950   6.432  13.911   7.308
75685SOL     OW28951   6.486   1.913  10.977
75685SOL    HW128952   6.481   1.936  11.070
75685SOL    HW228953   6.562   1.962  10.944
75686SOL     OW28954   6.542   3.475   4.674
75686SOL    HW128955   6.616   3.517   4.716
75686SOL    HW228956   6.581   3.426   4.601
75687SOL     OW28957  11.851   6.352  11.190
75687SOL    HW128958  11.776   6.305  11.155
75687SOL    HW228959  11.854   6.326  11.283
75688SOL     OW28960  12.294   1.137   3.355
75688SOL    HW128961  12.322   1.082   3.282
75688SOL    HW228962  12.215   1.181   3.323
75689SOL     OW28963   7.617  10.429   0.231
75689SOL    HW128964   7.609  10.474   0.147
75689SOL    HW228965   7.607  10.337   0.210
75690SOL     OW28966   5.963   4.573   7.565
75690SOL    HW128967   5.872   4.553   7.546
75690SOL    HW228968   5.972   4.666   7.546
75691SOL     OW28969   1.256  11.350   9.696
75691SOL    HW128970   1.292  11.438   9.686
75691SOL    HW228971   1.263  11.331   9.790
75692SOL     OW28972  11.695   2.512   2.579
75692SOL    HW128973  11.663   2.482   2.494
75692SOL    HW228974  11.684   2.436   2.636
75693SOL     OW28975   0.317  13.870  12.030
75693SOL    HW128976   0.386  13.912  11.979
75693SOL    HW228977   0.363  13.821  12.097
75694SOL     OW28978   5.183  10.708  14.532
75694SOL    HW128979   5.200  10.794  14.495
75694SOL    HW228980   5.260  10.656  14.511
75695SOL     OW28981   4.568  13.621   7.451
75695SOL    HW128982   4.610  13.654   7.371
75695SOL    HW228983   4.618  13.660   7.522
75696SOL     OW28984   3.522   8.910   5.331
75696SOL    HW128985   3.602   8.889   5.379
75696SOL    HW228986   3.512   8.837   5.269
75697SOL     OW28987   7.358  11.232   3.507
75697SOL    HW128988   7.391  11.246   3.418
75697SOL    HW228989   7.293  11.162   3.498
75698SOL     OW28990  11.667   4.098   1.136
75698SOL    HW128991  11.698   4.156   1.205
75698SOL    HW228992  11.689   4.144   1.055
75699SOL     OW28993   9.439   5.744   8.352
75699SOL    HW128994   9.480   5.665   8.317
75699SOL    HW228995   9.449   5.735   8.447
75700SOL     OW28996   0.473   9.052  12.848
75700SOL    HW128997   0.436   9.071  12.762
75700SOL    HW228998   0.465   9.133  12.897
75701SOL     OW28999   1.507  12.898  13.962
75701SOL    HW129000   1.520  12.992  13.979
75701SOL    HW229001   1.593  12.859  13.979
75702SOL     OW29002  12.730  11.531   3.995
75702SOL    HW129003  12.693  11.597   4.054
75702SOL    HW229004  12.730  11.451   4.047
75703SOL     OW29005   7.009  11.522   7.875
75703SOL    HW129006   6.934  11.482   7.830
75703SOL    HW229007   7.059  11.447   7.908
75704SOL     OW29008  14.561   2.240  13.451
75704SOL    HW129009  14.582   2.155  13.411
75704SOL    HW229010  14.631   2.253  13.516
75705SOL     OW29011   1.299   0.703  12.334
75705SOL    HW129012   1.208   0.709  12.362
75705SOL    HW229013   1.350   0.697  12.415
75706SOL     OW29014  12.378  12.480  13.661
75706SOL    HW129015  12.466  12.511  13.683
75706SOL    HW229016  12.376  12.389  13.691
75707SOL     OW29017  11.530   7.977   0.427
75707SOL    HW129018  11.461   8.036   0.457
75707SOL    HW229019  11.484   7.904   0.386
75708SOL     OW29020   5.902   6.095   0.537
75708SOL    HW129021   5.898   6.046   0.620
75708SOL    HW229022   5.823   6.068   0.490
75709SOL     OW29023  10.154  11.572   4.701
75709SOL    HW129024  10.193  11.528   4.776
75709SOL    HW229025  10.212  11.550   4.628
75710SOL     OW29026   0.790   9.677   6.051
75710SOL    HW129027   0.852   9.633   6.109
75710SOL    HW229028   0.830   9.761   6.032
75711SOL     OW29029   0.798  14.366   3.684
75711SOL    HW129030   0.758  14.288   3.723
75711SOL    HW229031   0.725  14.425   3.667
75712SOL     OW29032   8.244   4.660   9.332
75712SOL    HW129033   8.193   4.658   9.413
75712SOL    HW229034   8.330   4.693   9.359
75713SOL     OW29035   6.849   1.960   5.531
75713SOL    HW129036   6.834   2.005   5.448
75713SOL    HW229037   6.830   2.025   5.598
75714SOL     OW29038  10.642   7.939   7.774
75714SOL    HW129039  10.624   7.898   7.690
75714SOL    HW229040  10.558   7.935   7.820
75715SOL     OW29041   4.180   5.525   4.790
75715SOL    HW129042   4.147   5.459   4.729
75715SOL    HW229043   4.115   5.595   4.786
75716SOL     OW29044   3.967   0.100   1.711
75716SOL    HW129045   4.053   0.137   1.734
75716SOL    HW229046   3.987   0.027   1.653
75717SOL     OW29047   7.163   2.833   3.348
75717SOL    HW129048   7.113   2.880   3.414
75717SOL    HW229049   7.195   2.901   3.289
75718SOL     OW29050  14.149   6.764   3.416
75718SOL    HW129051  14.231   6.765   3.465
75718SOL    HW229052  14.167   6.708   3.341
75719SOL     OW29053   0.914   7.691   6.650
75719SOL    HW129054   0.982   7.759   6.652
75719SOL    HW229055   0.865   7.707   6.570
75720SOL     OW29056  11.624   4.823  12.795
75720SOL    HW129057  11.696   4.781  12.841
75720SOL    HW229058  11.659   4.840  12.707
75721SOL     OW29059   5.491  10.897   9.166
75721SOL    HW129060   5.405  10.861   9.186
75721SOL    HW229061   5.474  10.968   9.105
75722SOL     OW29062   7.219   5.736   3.178
75722SOL    HW129063   7.230   5.816   3.230
75722SOL    HW229064   7.240   5.665   3.238
75723SOL     OW29065   5.793   5.749   6.002
75723SOL    HW129066   5.784   5.811   6.074
75723SOL    HW229067   5.714   5.695   6.006
75724SOL     OW29068  14.258  13.750   2.724
75724SOL    HW129069  14.349  13.779   2.717
75724SOL    HW229070  14.208  13.816   2.677
75725SOL     OW29071   9.402   0.251   2.835
75725SOL    HW129072   9.418   0.161   2.806
75725SOL    HW229073   9.377   0.243   2.927
75726SOL     OW29074   4.353   0.922  12.224
75726SOL    HW129075   4.413   0.905  12.151
75726SOL    HW229076   4.280   0.862  12.210
75727SOL     OW29077   6.982   1.771   3.230
75727SOL    HW129078   7.021   1.739   3.149
75727SOL    HW229079   7.054   1.815   3.275
75728SOL     OW29080   6.819  11.387   6.361
75728SOL    HW129081   6.782  11.467   6.322
75728SOL    HW229082   6.804  11.319   6.295
75729SOL     OW29083   8.122  11.155   1.724
75729SOL    HW129084   8.055  11.176   1.659
75729SOL    HW229085   8.183  11.098   1.677
75730SOL     OW29086  12.230   0.935   6.245
75730SOL    HW129087  12.173   1.009   6.221
75730SOL    HW229088  12.301   0.937   6.181
75731SOL     OW29089   9.414  10.246   4.010
75731SOL    HW129090   9.362  10.289   3.942
75731SOL    HW229091   9.355  10.178   4.045
75732SOL     OW29092   8.604  10.281   0.664
75732SOL    HW129093   8.645  10.203   0.700
75732SOL    HW229094   8.514  10.254   0.644
75733SOL     OW29095  10.054   9.448  10.618
75733SOL    HW129096   9.993   9.518  10.595
75733SOL    HW229097  10.112   9.442  10.542
75734SOL     OW29098  11.212   8.685   1.387
75734SOL    HW129099  11.299   8.722   1.404
75734SOL    HW229100  11.202   8.691   1.292
75735SOL     OW29101  14.449  12.068   3.174
75735SOL    HW129102  14.489  12.045   3.258
75735SOL    HW229103  14.424  11.984   3.136
75736SOL     OW29104   2.701   5.560   8.374
75736SOL    HW129105   2.775   5.615   8.347
75736SOL    HW229106   2.626   5.599   8.330
75737SOL     OW29107  11.066   6.549   6.581
75737SOL    HW129108  10.989   6.605   6.583
75737SOL    HW229109  11.125   6.585   6.647
75738SOL     OW29110   8.197  10.688  14.761
75738SOL    HW129111   8.152  10.687  14.677
75738SOL    HW229112   8.164  10.610  14.806
75739SOL     OW29113  14.544   8.897   1.418
75739SOL    HW129114  14.520   8.988   1.405
75739SOL    HW229115  14.623   8.900   1.472
75740SOL     OW29116   6.474   4.316   3.829
75740SOL    HW129117   6.516   4.349   3.908
75740SOL    HW229118   6.440   4.230   3.853
75741SOL     OW29119   6.736   1.245   9.190
75741SOL    HW129120   6.753   1.243   9.284
75741SOL    HW229121   6.694   1.161   9.171
75742SOL     OW29122   9.137   2.033  11.677
75742SOL    HW129123   9.097   1.959  11.631
75742SOL    HW229124   9.095   2.110  11.640
75743SOL     OW29125   2.820   6.526   0.269
75743SOL    HW129126   2.873   6.519   0.348
75743SOL    HW229127   2.799   6.435   0.247
75744SOL     OW29128  11.238   9.026   7.426
75744SOL    HW129129  11.327   9.003   7.451
75744SOL    HW229130  11.246   9.066   7.340
75745SOL     OW29131  13.889  10.743   9.926
75745SOL    HW129132  13.871  10.778   9.839
75745SOL    HW229133  13.803  10.719   9.961
75746SOL     OW29134  14.009   5.577   8.235
75746SOL    HW129135  14.072   5.509   8.212
75746SOL    HW229136  14.010   5.579   8.331
75747SOL     OW29137   1.358   9.034   8.998
75747SOL    HW129138   1.387   8.946   8.972
75747SOL    HW229139   1.277   9.019   9.046
75748SOL     OW29140   2.003   1.895   3.883
75748SOL    HW129141   1.963   1.913   3.969
75748SOL    HW229142   1.951   1.823   3.848
75749SOL     OW29143   3.690   5.011  13.886
75749SOL    HW129144   3.683   5.099  13.924
75749SOL    HW229145   3.697   4.953  13.962
75750SOL     OW29146  13.716  12.483   8.502
75750SOL    HW129147  13.771  12.562   8.507
75750SOL    HW229148  13.759  12.420   8.560
75751SOL     OW29149   7.157  10.523  13.248
75751SOL    HW129150   7.249  10.509  13.227
75751SOL    HW229151   7.109  10.470  13.184
75752SOL     OW29152   2.007  12.181   9.672
75752SOL    HW129153   1.934  12.196   9.731
75752SOL    HW229154   2.044  12.269   9.658
75753SOL     OW29155  14.354   3.341   2.292
75753SOL    HW129156  14.418   3.395   2.338
75753SOL    HW229157  14.389   3.252   2.298
75754SOL     OW29158  11.956  11.387   8.743
75754SOL    HW129159  11.947  11.292   8.749
75754SOL    HW229160  11.984  11.415   8.830
75755SOL     OW29161  10.001   3.843  11.452
75755SOL    HW129162   9.956   3.861  11.535
75755SOL    HW229163   9.940   3.787  11.403
75756SOL     OW29164  12.588  11.210   6.782
75756SOL    HW129165  12.619  11.146   6.846
75756SOL    HW229166  12.629  11.184   6.700
75757SOL     OW29167   6.633   1.797   5.515
75757SOL    HW129168   6.711   1.854   5.516
75757SOL    HW229169   6.597   1.808   5.427
75758SOL     OW29170   6.075   4.973   8.394
75758SOL    HW129171   6.010   5.017   8.449
75758SOL    HW229172   6.035   4.889   8.372
75759SOL     OW29173   2.315   1.733   2.005
75759SOL    HW129174   2.370   1.703   2.078
75759SOL    HW229175   2.376   1.741   1.932
75760SOL     OW29176   7.704   5.295  11.887
75760SOL    HW129177   7.767   5.230  11.920
75760SOL    HW229178   7.745   5.379  11.904
75761SOL     OW29179   4.841   8.133   0.065
75761SOL    HW129180   4.768   8.121   0.127
75761SOL    HW229181   4.808   8.098  14.864
75762SOL     OW29182   0.031   5.692   3.150
75762SOL    HW129183  14.864   5.744   3.086
75762SOL    HW229184  14.882   5.722   3.235
75763SOL     OW29185   6.812  12.644  12.350
75763SOL    HW129186   6.848  12.730  12.325
75763SOL    HW229187   6.797  12.599  12.267
75764SOL     OW29188   4.094   7.562  13.534
75764SOL    HW129189   4.019   7.619  13.518
75764SOL    HW229190   4.167   7.623  13.546
75765SOL     OW29191   0.725  10.825  12.652
75765SOL    HW129192   0.760  10.844  12.565
75765SOL    HW229193   0.800  10.795  12.703
75766SOL     OW29194  10.461   4.051  10.832
75766SOL    HW129195  10.486   3.996  10.905
75766SOL    HW229196  10.415   4.125  10.872
75767SOL     OW29197   4.547   3.598   5.751
75767SOL    HW129198   4.554   3.690   5.776
75767SOL    HW229199   4.607   3.589   5.677
75768SOL     OW29200   4.741   3.397   2.420
75768SOL    HW129201   4.647   3.415   2.410
75768SOL    HW229202   4.749   3.303   2.404
75769SOL     OW29203   2.129   1.739  10.453
75769SOL    HW129204   2.177   1.782  10.382
75769SOL    HW229205   2.083   1.811  10.497
75770SOL     OW29206  12.792   0.628   7.804
75770SOL    HW129207  12.876   0.657   7.770
75770SOL    HW229208  12.770   0.692   7.871
75771SOL     OW29209  12.419  12.968  13.371
75771SOL    HW129210  12.358  12.965  13.445
75771SOL    HW229211  12.390  13.043  13.319
75772SOL     OW29212  11.307  13.943  10.058
75772SOL    HW129213  11.243  13.940  10.129
75772SOL    HW229214  11.365  14.016  10.081
75773SOL     OW29215   9.523   3.373   9.024
75773SOL    HW129216   9.600   3.395   9.076
75773SOL    HW229217   9.470   3.453   9.025
75774SOL     OW29218   3.332   6.748   1.967
75774SOL    HW129219   3.253   6.797   1.941
75774SOL    HW229220   3.307   6.706   2.049
75775SOL     OW29221  10.667  11.075   0.785
75775SOL    HW129222  10.702  10.996   0.744
75775SOL    HW229223  10.575  11.054   0.802
75776SOL     OW29224   6.018   5.092   5.418
75776SOL    HW129225   5.970   5.101   5.500
75776SOL    HW229226   5.976   5.019   5.373
75777SOL     OW29227  14.211  14.220   5.265
75777SOL    HW129228  14.290  14.263   5.231
75777SOL    HW229229  14.212  14.240   5.359
75778SOL     OW29230   0.238  12.275  11.227
75778SOL    HW129231   0.208  12.193  11.188
75778SOL    HW229232   0.331  12.279  11.207
75779SOL     OW29233   4.152   1.501   8.375
75779SOL    HW129234   4.093   1.577   8.378
75779SOL    HW229235   4.226   1.530   8.322
75780SOL     OW29236   5.445   7.946   6.147
75780SOL    HW129237   5.470   8.038   6.136
75780SOL    HW229238   5.406   7.942   6.234
75781SOL     OW29239  13.212   0.474   0.051
75781SOL    HW129240  13.263   0.555   0.052
75781SOL    HW229241  13.137   0.494  14.877
75782SOL     OW29242  10.914   1.912   7.451
75782SOL    HW129243  10.936   1.860   7.529
75782SOL    HW229244  10.861   1.853   7.398
75783SOL     OW29245   8.626  11.455  14.662
75783SOL    HW129246   8.630  11.376  14.608
75783SOL    HW229247   8.639  11.527  14.600
75784SOL     OW29248   8.274   1.388   5.012
75784SOL    HW129249   8.354   1.413   4.965
75784SOL    HW229250   8.246   1.468   5.056
75785SOL     OW29251   2.051  10.481   6.830
75785SOL    HW129252   2.004  10.562   6.851
75785SOL    HW229253   2.025  10.461   6.740
75786SOL     OW29254   3.127  13.425   3.602
75786SOL    HW129255   3.125  13.521   3.598
75786SOL    HW229256   3.196  13.401   3.539
75787SOL     OW29257   8.611   4.511   9.496
75787SOL    HW129258   8.696   4.500   9.453
75787SOL    HW229259   8.614   4.450   9.570
75788SOL     OW29260   7.631   9.538  12.141
75788SOL    HW129261   7.680   9.492  12.210
75788SOL    HW229262   7.697   9.590  12.096
75789SOL     OW29263  11.903   1.350   7.559
75789SOL    HW129264  11.810   1.356   7.535
75789SOL    HW229265  11.903   1.354   7.655
75790SOL     OW29266   7.634  11.392   0.580
75790SOL    HW129267   7.690  11.321   0.550
75790SOL    HW229268   7.585  11.418   0.502
75791SOL     OW29269   7.856   4.615   3.073
75791SOL    HW129270   7.775   4.665   3.080
75791SOL    HW229271   7.834   4.528   3.106
75792SOL     OW29272  10.510   4.328   7.699
75792SOL    HW129273  10.552   4.393   7.643
75792SOL    HW229274  10.572   4.315   7.771
75793SOL     OW29275   5.849  13.590   8.389
75793SOL    HW129276   5.785  13.564   8.322
75793SOL    HW229277   5.841  13.685   8.394
75794SOL     OW29278   2.689  12.666   8.099
75794SOL    HW129279   2.711  12.583   8.142
75794SOL    HW229280   2.604  12.650   8.059
75795SOL     OW29281  10.553   2.870  14.549
75795SOL    HW129282  10.545   2.823  14.632
75795SOL    HW229283  10.613   2.943  14.568
75796SOL     OW29284   2.929   2.147  12.801
75796SOL    HW129285   2.918   2.227  12.749
75796SOL    HW229286   3.023   2.133  12.805
75797SOL     OW29287   2.392   1.563   3.781
75797SOL    HW129288   2.386   1.496   3.850
75797SOL    HW229289   2.340   1.527   3.709
75798SOL     OW29290   1.753   1.947   7.789
75798SOL    HW129291   1.758   1.858   7.825
75798SOL    HW229292   1.687   1.990   7.844
75799SOL     OW29293   7.181  10.976   1.076
75799SOL    HW129294   7.274  10.967   1.094
75799SOL    HW229295   7.138  10.914   1.135
75800SOL     OW29296   6.899  13.239   6.252
75800SOL    HW129297   6.913  13.168   6.314
75800SOL    HW229298   6.949  13.312   6.287
75801SOL     OW29299   6.538   1.479   2.837
75801SOL    HW129300   6.597   1.451   2.907
75801SOL    HW229301   6.501   1.398   2.802
75802SOL     OW29302   6.714   3.878  14.570
75802SOL    HW129303   6.778   3.912  14.633
75802SOL    HW229304   6.691   3.954  14.516
75803SOL     OW29305  10.451  11.527  13.581
75803SOL    HW129306  10.359  11.502  13.582
75803SOL    HW229307  10.497  11.449  13.553
75804SOL     OW29308   5.902  11.247  13.935
75804SOL    HW129309   5.893  11.170  13.880
75804SOL    HW229310   5.813  11.281  13.943
75805SOL     OW29311   4.521   3.853   1.076
75805SOL    HW129312   4.436   3.811   1.087
75805SOL    HW229313   4.562   3.848   1.162
75806SOL     OW29314   6.164   1.364   7.265
75806SOL    HW129315   6.177   1.270   7.257
75806SOL    HW229316   6.156   1.380   7.359
75807SOL     OW29317   1.727   4.435   6.881
75807SOL    HW129318   1.790   4.413   6.950
75807SOL    HW229319   1.766   4.398   6.801
75808SOL     OW29320   4.702  12.821  14.774
75808SOL    HW129321   4.731  12.770  14.697
75808SOL    HW229322   4.611  12.795  14.785
75809SOL     OW29323  11.966   9.565   5.452
75809SOL    HW129324  12.008   9.614   5.381
75809SOL    HW229325  11.968   9.625   5.526
75810SOL     OW29326   6.281   3.023  12.089
75810SOL    HW129327   6.262   2.949  12.032
75810SOL    HW229328   6.217   3.017  12.160
75811SOL     OW29329  10.630   1.413   5.038
75811SOL    HW129330  10.585   1.329   5.025
75811SOL    HW229331  10.643   1.446   4.949
75812SOL     OW29332  13.459   2.680   1.146
75812SOL    HW129333  13.396   2.746   1.118
75812SOL    HW229334  13.438   2.663   1.238
75813SOL     OW29335  14.566  12.853   3.078
75813SOL    HW129336  14.493  12.831   3.135
75813SOL    HW229337  14.569  12.783   3.013
75814SOL     OW29338  13.178   5.326   1.684
75814SOL    HW129339  13.184   5.418   1.710
75814SOL    HW229340  13.253   5.284   1.727
75815SOL     OW29341   9.764  12.735   2.580
75815SOL    HW129342   9.671  12.713   2.587
75815SOL    HW229343   9.795  12.684   2.505
75816SOL     OW29344   5.292  11.787  14.045
75816SOL    HW129345   5.321  11.877  14.061
75816SOL    HW229346   5.254  11.759  14.128
75817SOL     OW29347   7.940   5.050   8.862
75817SOL    HW129348   7.989   5.104   8.924
75817SOL    HW229349   7.932   4.965   8.904
75818SOL     OW29350   8.931   3.547   1.197
75818SOL    HW129351   9.024   3.531   1.186
75818SOL    HW229352   8.890   3.499   1.125
75819SOL     OW29353   1.463  14.743  10.337
75819SOL    HW129354   1.527  14.684  10.377
75819SOL    HW229355   1.420  14.786  10.412
75820SOL     OW29356   5.013   2.303   3.089
75820SOL    HW129357   4.998   2.357   3.012
75820SOL    HW229358   5.108   2.309   3.104
75821SOL     OW29359   7.330   7.736  12.926
75821SOL    HW129360   7.392   7.807  12.944
75821SOL    HW229361   7.245   7.779  12.925
75822SOL     OW29362   0.944   8.077   9.712
75822SOL    HW129363   1.024   8.077   9.765
75822SOL    HW229364   0.911   8.166   9.718
75823SOL     OW29365   5.383  12.409  12.209
75823SOL    HW129366   5.334  12.381  12.287
75823SOL    HW229367   5.399  12.329  12.160
75824SOL     OW29368  12.324   0.561  14.472
75824SOL    HW129369  12.404   0.564  14.420
75824SOL    HW229370  12.257   0.529  14.413
75825SOL     OW29371   7.960   6.118   3.077
75825SOL    HW129372   7.883   6.110   3.133
75825SOL    HW229373   7.973   6.213   3.067
75826SOL     OW29374   0.529  12.786   0.291
75826SOL    HW129375   0.486  12.825   0.367
75826SOL    HW229376   0.572  12.707   0.325
75827SOL     OW29377  14.603   4.703   6.681
75827SOL    HW129378  14.630   4.613   6.698
75827SOL    HW229379  14.612   4.747   6.766
75828SOL     OW29380  14.370   3.575  12.880
75828SOL    HW129381  14.333   3.505  12.827
75828SOL    HW229382  14.428   3.530  12.942
75829SOL     OW29383   1.477   9.176  12.840
75829SOL    HW129384   1.526   9.225  12.774
75829SOL    HW229385   1.394   9.223  12.848
75830SOL     OW29386   6.504   0.034   0.988
75830SOL    HW129387   6.531   0.107   1.044
75830SOL    HW229388   6.565  14.846   1.010
75831SOL     OW29389  12.906   4.950   0.822
75831SOL    HW129390  12.826   4.938   0.770
75831SOL    HW229391  12.896   4.890   0.896
75832SOL     OW29392   3.793   4.934   0.311
75832SOL    HW129393   3.714   4.973   0.348
75832SOL    HW229394   3.760   4.865   0.253
75833SOL     OW29395   4.772   4.522   7.056
75833SOL    HW129396   4.764   4.549   6.964
75833SOL    HW229397   4.832   4.587   7.094
75834SOL     OW29398   0.100   8.113  14.096
75834SOL    HW129399   0.093   8.096  14.002
75834SOL    HW229400   0.022   8.073  14.134
75835SOL     OW29401   3.846   3.476  14.750
75835SOL    HW129402   3.888   3.542  14.806
75835SOL    HW229403   3.910   3.458  14.681
75836SOL     OW29404  14.036   4.655   9.048
75836SOL    HW129405  14.043   4.738   9.001
75836SOL    HW229406  14.047   4.589   8.981
75837SOL     OW29407   3.709   0.896   4.785
75837SOL    HW129408   3.759   0.977   4.798
75837SOL    HW229409   3.776   0.828   4.773
75838SOL     OW29410  12.985  13.783   4.041
75838SOL    HW129411  13.037  13.858   4.071
75838SOL    HW229412  12.901  13.793   4.087
75839SOL     OW29413   9.011   6.449   5.346
75839SOL    HW129414   9.029   6.362   5.380
75839SOL    HW229415   8.944   6.484   5.404
75840SOL     OW29416   4.183   9.325  13.539
75840SOL    HW129417   4.116   9.382  13.577
75840SOL    HW229418   4.198   9.258  13.605
75841SOL     OW29419   8.872   1.924   3.844
75841SOL    HW129420   8.841   1.850   3.791
75841SOL    HW229421   8.809   1.994   3.827
75842SOL     OW29422   1.864   9.687  10.587
75842SOL    HW129423   1.773   9.669  10.609
75842SOL    HW229424   1.886   9.764  10.640
75843SOL     OW29425   0.832  13.664   0.317
75843SOL    HW129426   0.796  13.752   0.329
75843SOL    HW229427   0.811  13.617   0.398
75844SOL     OW29428   2.371   1.129   2.615
75844SOL    HW129429   2.339   1.039   2.609
75844SOL    HW229430   2.410   1.136   2.702
75845SOL     OW29431   0.389  13.179  10.929
75845SOL    HW129432   0.358  13.109  10.987
75845SOL    HW229433   0.376  13.260  10.979
75846SOL     OW29434   7.070   6.509   8.177
75846SOL    HW129435   7.118   6.524   8.258
75846SOL    HW229436   6.985   6.474   8.205
75847SOL     OW29437  12.227   2.734   8.837
75847SOL    HW129438  12.213   2.810   8.780
75847SOL    HW229439  12.157   2.673   8.813
75848SOL     OW29440  11.239   5.674  13.284
75848SOL    HW129441  11.208   5.584  13.286
75848SOL    HW229442  11.272   5.686  13.194
75849SOL     OW29443  13.724  12.078   8.352
75849SOL    HW129444  13.786  12.096   8.281
75849SOL    HW229445  13.723  11.982   8.360
75850SOL     OW29446  12.351   3.725   4.318
75850SOL    HW129447  12.426   3.750   4.263
75850SOL    HW229448  12.307   3.656   4.269
75851SOL     OW29449   9.598   8.682  11.442
75851SOL    HW129450   9.685   8.674  11.483
75851SOL    HW229451   9.615   8.672  11.349
75852SOL     OW29452  11.292  10.466  11.672
75852SOL    HW129453  11.266  10.551  11.635
75852SOL    HW229454  11.297  10.408  11.596
75853SOL     OW29455   0.837  13.421  12.375
75853SOL    HW129456   0.847  13.332  12.343
75853SOL    HW229457   0.914  13.435  12.430
75854SOL     OW29458   8.765   7.921  12.100
75854SOL    HW129459   8.780   7.976  12.176
75854SOL    HW229460   8.762   7.982  12.026
75855SOL     OW29461   6.336   3.374   7.062
75855SOL    HW129462   6.334   3.469   7.057
75855SOL    HW229463   6.417   3.354   7.108
75856SOL     OW29464  10.163  14.426   8.403
75856SOL    HW129465  10.199  14.436   8.315
75856SOL    HW229466  10.200  14.498   8.453
75857SOL     OW29467   8.548   4.969  11.313
75857SOL    HW129468   8.639   4.994  11.329
75857SOL    HW229469   8.515   4.939  11.398
75858SOL     OW29470   6.975   7.935   1.798
75858SOL    HW129471   6.981   8.030   1.792
75858SOL    HW229472   6.941   7.919   1.887
75859SOL     OW29473   5.195   7.486  12.652
75859SOL    HW129474   5.285   7.482  12.619
75859SOL    HW229475   5.153   7.409  12.615
75860SOL     OW29476   9.859  10.190   9.480
75860SOL    HW129477   9.910  10.191   9.562
75860SOL    HW229478   9.789  10.126   9.496
75861SOL     OW29479  11.330  13.814  13.587
75861SOL    HW129480  11.322  13.741  13.648
75861SOL    HW229481  11.294  13.890  13.634
75862SOL     OW29482   5.043   5.286   1.780
75862SOL    HW129483   5.015   5.299   1.871
75862SOL    HW229484   5.119   5.228   1.787
75863SOL     OW29485   5.853   3.447  10.708
75863SOL    HW129486   5.811   3.381  10.653
75863SOL    HW229487   5.842   3.529  10.659
75864SOL     OW29488   6.490   4.320  12.585
75864SOL    HW129489   6.406   4.322  12.631
75864SOL    HW229490   6.468   4.286  12.498
75865SOL     OW29491   1.144   8.934   7.688
75865SOL    HW129492   1.109   8.937   7.600
75865SOL    HW229493   1.095   8.863   7.731
75866SOL     OW29494   2.247  11.869  10.071
75866SOL    HW129495   2.168  11.923  10.072
75866SOL    HW229496   2.313  11.922  10.115
75867SOL     OW29497   0.573   7.193   7.322
75867SOL    HW129498   0.529   7.108   7.324
75867SOL    HW229499   0.660   7.177   7.357
75868SOL     OW29500   3.043  12.550   9.589
75868SOL    HW129501   3.039  12.454   9.585
75868SOL    HW229502   3.067  12.576   9.500
75869SOL     OW29503   5.205   2.533  12.619
75869SOL    HW129504   5.241   2.517  12.531
75869SOL    HW229505   5.253   2.473  12.676
75870SOL     OW29506   1.977  13.636   7.856
75870SOL    HW129507   1.898  13.593   7.821
75870SOL    HW229508   1.970  13.624   7.951
75871SOL     OW29509   5.789   8.279   7.176
75871SOL    HW129510   5.708   8.255   7.132
75871SOL    HW229511   5.762   8.331   7.251
75872SOL     OW29512   2.418   6.746  13.332
75872SOL    HW129513   2.375   6.790  13.259
75872SOL    HW229514   2.489   6.696  13.291
75873SOL     OW29515   8.948   1.972   5.118
75873SOL    HW129516   8.994   2.056   5.122
75873SOL    HW229517   8.856   1.996   5.104
75874SOL     OW29518  12.806   5.789   0.873
75874SOL    HW129519  12.750   5.841   0.931
75874SOL    HW229520  12.751   5.771   0.797
75875SOL     OW29521  11.412   8.510   7.171
75875SOL    HW129522  11.449   8.424   7.191
75875SOL    HW229523  11.344   8.523   7.237
75876SOL     OW29524   4.073  10.961   1.856
75876SOL    HW129525   4.099  10.871   1.837
75876SOL    HW229526   4.154  11.004   1.884
75877SOL     OW29527   3.831  14.012   2.823
75877SOL    HW129528   3.762  13.981   2.766
75877SOL    HW229529   3.786  14.042   2.902
75878SOL     OW29530  12.241   5.953   8.823
75878SOL    HW129531  12.250   5.972   8.917
75878SOL    HW229532  12.298   6.017   8.780
75879SOL     OW29533   5.423   4.379   9.895
75879SOL    HW129534   5.462   4.342   9.974
75879SOL    HW229535   5.465   4.464   9.884
75880SOL     OW29536   3.754  13.832  12.239
75880SOL    HW129537   3.799  13.829  12.323
75880SOL    HW229538   3.820  13.862  12.177
75881SOL     OW29539   7.321   5.309  13.146
75881SOL    HW129540   7.397   5.252  13.136
75881SOL    HW229541   7.359   5.395  13.167
75882SOL     OW29542   6.118   0.236  11.576
75882SOL    HW129543   6.031   0.234  11.535
75882SOL    HW229544   6.134   0.329  11.591
75883SOL     OW29545  10.106  12.569   4.276
75883SOL    HW129546  10.062  12.489   4.247
75883SOL    HW229547  10.105  12.627   4.200
75884SOL     OW29548  11.166   2.918   8.973
75884SOL    HW129549  11.201   2.830   8.984
75884SOL    HW229550  11.207   2.968   9.044
75885SOL     OW29551  14.713   2.451   8.449
75885SOL    HW129552  14.730   2.544   8.439
75885SOL    HW229553  14.626   2.447   8.490
75886SOL     OW29554  12.443  11.445  14.876
75886SOL    HW129555  12.481  11.399  14.802
75886SOL    HW229556  12.443  11.538  14.850
75887SOL     OW29557   8.480  14.370  14.228
75887SOL    HW129558   8.469  14.345  14.136
75887SOL    HW229559   8.405  14.426  14.247
75888SOL     OW29560  11.830   0.827   6.156
75888SOL    HW129561  11.741   0.861   6.147
75888SOL    HW229562  11.885   0.893   6.114
75889SOL     OW29563  13.354   4.198   9.614
75889SOL    HW129564  13.400   4.217   9.532
75889SOL    HW229565  13.407   4.130   9.656
75890SOL     OW29566   1.292   2.075  14.015
75890SOL    HW129567   1.321   2.079  13.924
75890SOL    HW229568   1.305   1.984  14.041
75891SOL     OW29569   7.309   4.267  13.132
75891SOL    HW129570   7.355   4.185  13.148
75891SOL    HW229571   7.248   4.276  13.206
75892SOL     OW29572   3.580   4.081  14.080
75892SOL    HW129573   3.591   3.990  14.053
75892SOL    HW229574   3.558   4.077  14.173
75893SOL     OW29575   7.973  13.351  12.246
75893SOL    HW129576   8.060  13.362  12.285
75893SOL    HW229577   7.990  13.347  12.152
75894SOL     OW29578   2.507   9.817   7.392
75894SOL    HW129579   2.582   9.786   7.444
75894SOL    HW229580   2.523   9.783   7.304
75895SOL     OW29581   2.631   0.795  13.688
75895SOL    HW129582   2.545   0.799  13.646
75895SOL    HW229583   2.621   0.728  13.756
75896SOL     OW29584  13.265  13.434   8.186
75896SOL    HW129585  13.309  13.358   8.223
75896SOL    HW229586  13.217  13.472   8.259
75897SOL     OW29587  12.774  13.015  12.234
75897SOL    HW129588  12.793  12.989  12.324
75897SOL    HW229589  12.681  13.037  12.235
75898SOL     OW29590   5.651  13.343   2.828
75898SOL    HW129591   5.662  13.263   2.777
75898SOL    HW229592   5.653  13.414   2.763
75899SOL     OW29593   2.961   0.227   3.464
75899SOL    HW129594   2.965   0.310   3.511
75899SOL    HW229595   3.052   0.201   3.453
75900SOL     OW29596   8.177  14.794   6.260
75900SOL    HW129597   8.158  14.710   6.219
75900SOL    HW229598   8.094  14.822   6.299
75901SOL     OW29599   0.830   9.178   7.426
75901SOL    HW129600   0.904   9.229   7.459
75901SOL    HW229601   0.755   9.237   7.436
75902SOL     OW29602  10.751  10.078  13.989
75902SOL    HW129603  10.825  10.138  13.998
75902SOL    HW229604  10.790   9.991  13.995
75903SOL     OW29605  12.006   3.713  12.450
75903SOL    HW129606  12.052   3.642  12.405
75903SOL    HW229607  11.974   3.769  12.379
75904SOL     OW29608   2.041   9.342  14.628
75904SOL    HW129609   1.991   9.373  14.552
75904SOL    HW229610   1.982   9.355  14.702
75905SOL     OW29611   1.294   0.430  13.928
75905SOL    HW129612   1.300   0.429  13.832
75905SOL    HW229613   1.259   0.517  13.949
75906SOL     OW29614   0.627  14.501   6.412
75906SOL    HW129615   0.699  14.488   6.473
75906SOL    HW229616   0.548  14.478   6.461
75907SOL     OW29617  10.490   2.109   1.163
75907SOL    HW129618  10.572   2.109   1.114
75907SOL    HW229619  10.427   2.067   1.104
75908SOL     OW29620  13.400  12.188  14.563
75908SOL    HW129621  13.441  12.116  14.514
75908SOL    HW229622  13.438  12.267  14.524
75909SOL     OW29623  12.005   7.536   4.412
75909SOL    HW129624  11.973   7.625   4.427
75909SOL    HW229625  12.099   7.541   4.428
75910SOL     OW29626   7.007   2.133   4.847
75910SOL    HW129627   7.033   2.051   4.805
75910SOL    HW229628   7.076   2.151   4.911
75911SOL     OW29629   8.853  12.621   8.562
75911SOL    HW129630   8.877  12.633   8.654
75911SOL    HW229631   8.758  12.634   8.561
75912SOL     OW29632  14.815   3.365  13.112
75912SOL    HW129633  14.858   3.302  13.055
75912SOL    HW229634  14.807   3.444  13.058
75913SOL     OW29635  12.298   7.842   1.554
75913SOL    HW129636  12.220   7.892   1.576
75913SOL    HW229637  12.371   7.903   1.571
75914SOL     OW29638   3.820  14.234  10.949
75914SOL    HW129639   3.846  14.144  10.932
75914SOL    HW229640   3.807  14.237  11.044
75915SOL     OW29641   7.743   8.770   8.690
75915SOL    HW129642   7.710   8.708   8.625
75915SOL    HW229643   7.837   8.754   8.693
75916SOL     OW29644   6.731   3.664   8.373
75916SOL    HW129645   6.715   3.644   8.465
75916SOL    HW229646   6.804   3.607   8.349
75917SOL     OW29647   6.072   0.403   2.367
75917SOL    HW129648   5.996   0.437   2.319
75917SOL    HW229649   6.034   0.363   2.445
75918SOL     OW29650   9.895   9.286   8.282
75918SOL    HW129651   9.860   9.209   8.237
75918SOL    HW229652   9.836   9.299   8.356
75919SOL     OW29653  14.812  14.612   7.439
75919SOL    HW129654  14.809  14.521   7.411
75919SOL    HW229655  14.721  14.641   7.436
75920SOL     OW29656   1.097  12.095  10.237
75920SOL    HW129657   1.021  12.039  10.252
75920SOL    HW229658   1.147  12.050  10.169
75921SOL     OW29659  12.516   5.186   2.361
75921SOL    HW129660  12.494   5.111   2.417
75921SOL    HW229661  12.456   5.255   2.388
75922SOL     OW29662   7.655   4.351   1.681
75922SOL    HW129663   7.612   4.435   1.695
75922SOL    HW229664   7.720   4.345   1.751
75923SOL     OW29665   8.245   1.185   8.386
75923SOL    HW129666   8.312   1.183   8.454
75923SOL    HW229667   8.164   1.207   8.433
75924SOL     OW29668  14.694  10.642   4.613
75924SOL    HW129669  14.622  10.685   4.660
75924SOL    HW229670  14.767  10.643   4.674
75925SOL     OW29671  11.713   7.497   0.423
75925SOL    HW129672  11.714   7.453   0.338
75925SOL    HW229673  11.621   7.498   0.449
75926SOL     OW29674   4.206  12.541   2.371
75926SOL    HW129675   4.111  12.550   2.383
75926SOL    HW229676   4.223  12.448   2.384
75927SOL     OW29677  11.853   3.253  13.626
75927SOL    HW129678  11.851   3.289  13.538
75927SOL    HW229679  11.892   3.166  13.617
75928SOL     OW29680  11.404  10.536   4.009
75928SOL    HW129681  11.350  10.615   4.002
75928SOL    HW229682  11.370  10.477   3.943
75929SOL     OW29683  10.265   1.993  12.205
75929SOL    HW129684  10.189   2.049  12.222
75929SOL    HW229685  10.315   2.040  12.138
75930SOL     OW29686   0.672   0.022   4.771
75930SOL    HW129687   0.608   0.071   4.822
75930SOL    HW229688   0.673  14.817   4.811
75931SOL     OW29689   7.333  11.812   7.572
75931SOL    HW129690   7.279  11.747   7.616
75931SOL    HW229691   7.276  11.849   7.504
75932SOL     OW29692   9.949   2.938   0.271
75932SOL    HW129693   9.862   2.912   0.241
75932SOL    HW229694   9.984   2.990   0.199
75933SOL     OW29695  13.770   4.402   4.057
75933SOL    HW129696  13.680   4.389   4.026
75933SOL    HW229697  13.767   4.486   4.103
75934SOL     OW29698   3.523   4.138   3.481
75934SOL    HW129699   3.596   4.134   3.418
75934SOL    HW229700   3.487   4.049   3.480
75935SOL     OW29701   5.564  12.088  10.129
75935SOL    HW129702   5.573  12.130  10.214
75935SOL    HW229703   5.507  12.013  10.144
75936SOL     OW29704   4.259  10.346   2.369
75936SOL    HW129705   4.307  10.381   2.294
75936SOL    HW229706   4.220  10.423   2.411
75937SOL     OW29707  14.193  14.121   9.786
75937SOL    HW129708  14.196  14.194   9.847
75937SOL    HW229709  14.132  14.150   9.717
75938SOL     OW29710  12.696   2.095   9.217
75938SOL    HW129711  12.681   2.122   9.308
75938SOL    HW229712  12.740   2.010   9.224
75939SOL     OW29713  12.864   4.982   7.592
75939SOL    HW129714  12.863   4.976   7.496
75939SOL    HW229715  12.838   5.072   7.611
75940SOL     OW29716   8.214   9.598   8.630
75940SOL    HW129717   8.283   9.656   8.663
75940SOL    HW229718   8.241   9.579   8.540
75941SOL     OW29719   8.495  11.129   1.971
75941SOL    HW129720   8.535  11.112   2.057
75941SOL    HW229721   8.419  11.183   1.990
75942SOL     OW29722   2.508   6.545   4.999
75942SOL    HW129723   2.460   6.463   4.990
75942SOL    HW229724   2.495   6.589   4.914
75943SOL     OW29725  10.715   4.127   4.726
75943SOL    HW129726  10.802   4.095   4.703
75943SOL    HW229727  10.666   4.048   4.748
75944SOL     OW29728   5.713   2.873   2.550
75944SOL    HW129729   5.665   2.855   2.468
75944SOL    HW229730   5.696   2.796   2.604
75945SOL     OW29731  10.707   9.611   6.340
75945SOL    HW129732  10.751   9.536   6.381
75945SOL    HW229733  10.775   9.651   6.285
75946SOL     OW29734   2.091   8.130   6.018
75946SOL    HW129735   2.149   8.189   5.970
75946SOL    HW229736   2.005   8.141   5.976
75947SOL     OW29737   0.450  11.808  10.802
75947SOL    HW129738   0.504  11.743  10.847
75947SOL    HW229739   0.504  11.887  10.798
75948SOL     OW29740   0.709   0.753   4.517
75948SOL    HW129741   0.740   0.684   4.459
75948SOL    HW229742   0.761   0.742   4.597
75949SOL     OW29743   7.307   0.502  10.234
75949SOL    HW129744   7.231   0.554  10.259
75949SOL    HW229745   7.319   0.440  10.306
75950SOL     OW29746  10.723   2.134  12.322
75950SOL    HW129747  10.647   2.157  12.375
75950SOL    HW229748  10.779   2.083  12.380
75951SOL     OW29749   9.833   3.370   7.883
75951SOL    HW129750   9.848   3.312   7.957
75951SOL    HW229751   9.891   3.336   7.814
75952SOL     OW29752   5.803  13.763  11.930
75952SOL    HW129753   5.833  13.700  11.996
75952SOL    HW229754   5.813  13.848  11.972
75953SOL     OW29755  10.171  14.553   4.901
75953SOL    HW129756  10.089  14.506   4.918
75953SOL    HW229757  10.222  14.542   4.982
75954SOL     OW29758  13.077   5.772   4.813
75954SOL    HW129759  13.148   5.713   4.838
75954SOL    HW229760  13.103   5.806   4.727
75955SOL     OW29761   2.222   2.896   9.589
75955SOL    HW129762   2.187   2.973   9.544
75955SOL    HW229763   2.151   2.832   9.586
75956SOL     OW29764   6.068   8.278   8.801
75956SOL    HW129765   6.098   8.345   8.740
75956SOL    HW229766   5.990   8.316   8.842
75957SOL     OW29767   2.531   7.703  13.578
75957SOL    HW129768   2.607   7.737  13.531
75957SOL    HW229769   2.474   7.779  13.590
75958SOL     OW29770  10.117  14.520   3.250
75958SOL    HW129771  10.118  14.562   3.164
75958SOL    HW229772  10.205  14.534   3.285
75959SOL     OW29773   5.072   7.408   3.517
75959SOL    HW129774   5.065   7.329   3.570
75959SOL    HW229775   5.037   7.384   3.432
75960SOL     OW29776  12.848   3.401   6.779
75960SOL    HW129777  12.814   3.324   6.824
75960SOL    HW229778  12.893   3.366   6.702
75961SOL     OW29779  13.858   1.061  14.081
75961SOL    HW129780  13.781   1.109  14.052
75961SOL    HW229781  13.840   0.970  14.056
75962SOL     OW29782   6.606   2.089  13.299
75962SOL    HW129783   6.546   2.059  13.367
75962SOL    HW229784   6.600   2.022  13.231
75963SOL     OW29785  12.892  11.469   2.029
75963SOL    HW129786  12.966  11.481   2.089
75963SOL    HW229787  12.927  11.490   1.943
75964SOL     OW29788   6.151   8.264   6.520
75964SOL    HW129789   6.166   8.343   6.573
75964SOL    HW229790   6.237   8.220   6.519
75965SOL     OW29791   5.524  13.201   5.027
75965SOL    HW129792   5.487  13.114   5.048
75965SOL    HW229793   5.497  13.256   5.101
75966SOL     OW29794  11.724   2.526   8.810
75966SOL    HW129795  11.692   2.544   8.898
75966SOL    HW229796  11.689   2.598   8.757
75967SOL     OW29797   0.589   0.078   5.377
75967SOL    HW129798   0.599   0.172   5.366
75967SOL    HW229799   0.566   0.046   5.290
75968SOL     OW29800  10.019   4.688  11.944
75968SOL    HW129801  10.043   4.780  11.956
75968SOL    HW229802   9.996   4.658  12.032
75969SOL     OW29803   3.369   2.733   3.674
75969SOL    HW129804   3.294   2.676   3.684
75969SOL    HW229805   3.431   2.704   3.741
75970SOL     OW29806   4.528   6.595  12.333
75970SOL    HW129807   4.436   6.621  12.341
75970SOL    HW229808   4.572   6.673  12.298
75971SOL     OW29809   8.157  12.476  14.478
75971SOL    HW129810   8.128  12.538  14.545
75971SOL    HW229811   8.168  12.529  14.399
75972SOL     OW29812   0.451   3.759  13.291
75972SOL    HW129813   0.439   3.854  13.290
75972SOL    HW229814   0.363   3.724  13.303
75973SOL     OW29815   4.276   6.800  12.415
75973SOL    HW129816   4.322   6.796  12.331
75973SOL    HW229817   4.231   6.885  12.413
75974SOL     OW29818   7.097  13.728   1.148
75974SOL    HW129819   7.078  13.742   1.055
75974SOL    HW229820   7.026  13.773   1.194
75975SOL     OW29821   6.983  11.957  11.643
75975SOL    HW129822   6.893  11.938  11.671
75975SOL    HW229823   6.981  11.946  11.548
75976SOL     OW29824   8.188  12.135   8.772
75976SOL    HW129825   8.147  12.091   8.847
75976SOL    HW229826   8.274  12.162   8.805
75977SOL     OW29827   7.702   3.650   9.356
75977SOL    HW129828   7.677   3.644   9.264
75977SOL    HW229829   7.715   3.744   9.371
75978SOL     OW29830  11.846   5.134   9.316
75978SOL    HW129831  11.842   5.105   9.407
75978SOL    HW229832  11.762   5.178   9.301
75979SOL     OW29833  14.604   2.027  10.026
75979SOL    HW129834  14.576   2.067   9.944
75979SOL    HW229835  14.663   2.091  10.065
75980SOL     OW29836   7.739   3.407   5.248
75980SOL    HW129837   7.743   3.430   5.155
75980SOL    HW229838   7.808   3.342   5.260
75981SOL     OW29839   0.848   2.618   0.771
75981SOL    HW129840   0.756   2.604   0.747
75981SOL    HW229841   0.858   2.575   0.856
75982SOL     OW29842   8.795   1.583   8.485
75982SOL    HW129843   8.879   1.625   8.505
75982SOL    HW229844   8.746   1.587   8.567
75983SOL     OW29845  12.197   2.147   0.605
75983SOL    HW129846  12.193   2.234   0.564
75983SOL    HW229847  12.108   2.133   0.638
75984SOL     OW29848  12.686   4.158   0.079
75984SOL    HW129849  12.764   4.179   0.130
75984SOL    HW229850  12.644   4.087   0.126
75985SOL     OW29851  11.500   4.618   6.032
75985SOL    HW129852  11.486   4.536   6.080
75985SOL    HW229853  11.479   4.686   6.096
75986SOL     OW29854   1.676   8.928  14.396
75986SOL    HW129855   1.719   8.936  14.481
75986SOL    HW229856   1.584   8.913  14.417
75987SOL     OW29857   7.769   0.167  13.626
75987SOL    HW129858   7.724   0.235  13.676
75987SOL    HW229859   7.799   0.105  13.691
75988SOL     OW29860   0.375   6.394  13.410
75988SOL    HW129861   0.319   6.319  13.391
75988SOL    HW229862   0.422   6.410  13.329
75989SOL     OW29863  11.476   2.869   4.070
75989SOL    HW129864  11.471   2.798   4.133
75989SOL    HW229865  11.386   2.881   4.039
75990SOL     OW29866   4.898   1.448   4.475
75990SOL    HW129867   4.854   1.529   4.448
75990SOL    HW229868   4.988   1.458   4.445
75991SOL     OW29869   7.350   1.756  10.265
75991SOL    HW129870   7.339   1.723  10.354
75991SOL    HW229871   7.436   1.725  10.238
75992SOL     OW29872  14.320  14.861   3.297
75992SOL    HW129873  14.320   0.072   3.273
75992SOL    HW229874  14.371  14.819   3.228
75993SOL     OW29875  13.714  11.128   9.303
75993SOL    HW129876  13.677  11.044   9.331
75993SOL    HW229877  13.789  11.141   9.361
75994SOL     OW29878  12.716   6.066   6.163
75994SOL    HW129879  12.644   6.129   6.153
75994SOL    HW229880  12.794   6.114   6.136
75995SOL     OW29881   2.099   9.596   6.075
75995SOL    HW129882   2.093   9.625   6.166
75995SOL    HW229883   2.027   9.640   6.031
75996SOL     OW29884   5.854   9.776   5.608
75996SOL    HW129885   5.889   9.724   5.680
75996SOL    HW229886   5.760   9.759   5.609
75997SOL     OW29887   9.400   5.278   6.193
75997SOL    HW129888   9.364   5.211   6.135
75997SOL    HW229889   9.440   5.228   6.265
75998SOL     OW29890   8.623   9.861  12.791
75998SOL    HW129891   8.622   9.808  12.870
75998SOL    HW229892   8.556   9.822  12.734
75999SOL     OW29893   5.124  10.206   4.091
75999SOL    HW129894   5.211  10.235   4.064
75999SOL    HW229895   5.140  10.141   4.159
76000SOL     OW29896   0.314   6.853   5.787
76000SOL    HW129897   0.320   6.769   5.742
76000SOL    HW229898   0.247   6.840   5.854
76001SOL     OW29899  10.523   1.633   6.585
76001SOL    HW129900  10.575   1.713   6.593
76001SOL    HW229901  10.551   1.578   6.657
76002SOL     OW29902   6.975  11.387   8.805
76002SOL    HW129903   6.977  11.435   8.888
76002SOL    HW229904   6.921  11.441   8.747
76003SOL     OW29905   7.338   2.577  11.841
76003SOL    HW129906   7.340   2.486  11.812
76003SOL    HW229907   7.369   2.574  11.932
76004SOL     OW29908   3.547   4.224   2.581
76004SOL    HW129909   3.505   4.309   2.571
76004SOL    HW229910   3.527   4.177   2.500
76005SOL     OW29911  12.597  13.495  14.596
76005SOL    HW129912  12.563  13.415  14.637
76005SOL    HW229913  12.689  13.498  14.621
76006SOL     OW29914   6.494   4.711   2.502
76006SOL    HW129915   6.511   4.626   2.461
76006SOL    HW229916   6.581   4.743   2.528
76007SOL     OW29917   4.126  11.812   9.322
76007SOL    HW129918   4.103  11.835   9.232
76007SOL    HW229919   4.045  11.824   9.371
76008SOL     OW29920  11.127   2.087   0.803
76008SOL    HW129921  11.071   2.010   0.810
76008SOL    HW229922  11.076   2.158   0.842
76009SOL     OW29923   8.637   6.289   6.703
76009SOL    HW129924   8.562   6.348   6.711
76009SOL    HW229925   8.677   6.290   6.790
76010SOL     OW29926   7.546   5.358   9.862
76010SOL    HW129927   7.523   5.267   9.840
76010SOL    HW229928   7.641   5.357   9.872
76011SOL     OW29929  13.706   2.283  12.761
76011SOL    HW129930  13.714   2.252  12.851
76011SOL    HW229931  13.787   2.330  12.744
76012SOL     OW29932  11.128   2.674   5.726
76012SOL    HW129933  11.157   2.592   5.685
76012SOL    HW229934  11.114   2.734   5.653
76013SOL     OW29935   4.061   3.139   6.623
76013SOL    HW129936   3.993   3.178   6.679
76013SOL    HW229937   4.024   3.056   6.594
76014SOL     OW29938   2.377   7.274  13.036
76014SOL    HW129939   2.341   7.363  13.038
76014SOL    HW229940   2.442   7.276  12.966
76015SOL     OW29941   0.884   9.902   1.801
76015SOL    HW129942   0.896   9.942   1.887
76015SOL    HW229943   0.960   9.845   1.790
76016SOL     OW29944   0.554   6.954  11.743
76016SOL    HW129945   0.536   7.043  11.773
76016SOL    HW229946   0.474   6.905  11.762
76017SOL     OW29947  14.215  14.025  13.436
76017SOL    HW129948  14.237  13.938  13.404
76017SOL    HW229949  14.167  14.066  13.364
76018SOL     OW29950   2.076   6.234  10.594
76018SOL    HW129951   2.145   6.266  10.652
76018SOL    HW229952   1.996   6.275  10.628
76019SOL     OW29953   5.326  12.113   5.513
76019SOL    HW129954   5.420  12.102   5.501
76019SOL    HW229955   5.318  12.166   5.592
76020SOL     OW29956   6.768   5.570   8.605
76020SOL    HW129957   6.853   5.578   8.648
76020SOL    HW229958   6.789   5.557   8.512
76021SOL     OW29959  12.930   0.212   3.657
76021SOL    HW129960  12.961   0.132   3.698
76021SOL    HW229961  12.883   0.258   3.726
76022SOL     OW29962  11.203   2.502   2.058
76022SOL    HW129963  11.183   2.586   2.098
76022SOL    HW229964  11.119   2.457   2.051
76023SOL     OW29965  13.568   4.997   9.795
76023SOL    HW129966  13.483   4.974   9.757
76023SOL    HW229967  13.561   4.972   9.887
76024SOL     OW29968  10.450  13.874   0.128
76024SOL    HW129969  10.421  13.959   0.097
76024SOL    HW229970  10.471  13.825   0.048
76025SOL     OW29971   8.420  13.517  12.337
76025SOL    HW129972   8.412  13.610  12.359
76025SOL    HW229973   8.512  13.496  12.357
76026SOL     OW29974   9.477   0.339   9.234
76026SOL    HW129975   9.430   0.388   9.167
76026SOL    HW229976   9.410   0.317   9.299
76027SOL     OW29977  12.752   1.769   8.845
76027SOL    HW129978  12.777   1.849   8.893
76027SOL    HW229979  12.825   1.709   8.859
76028SOL     OW29980  10.160   5.285   3.205
76028SOL    HW129981  10.187   5.269   3.295
76028SOL    HW229982  10.071   5.320   3.212
76029SOL     OW29983  11.050  10.593  12.368
76029SOL    HW129984  11.055  10.500  12.393
76029SOL    HW229985  11.088  10.639  12.443
76030SOL     OW29986   5.803   6.757   8.213
76030SOL    HW129987   5.888   6.800   8.228
76030SOL    HW229988   5.774   6.791   8.129
76031SOL     OW29989   4.385   6.706   3.351
76031SOL    HW129990   4.435   6.769   3.403
76031SOL    HW229991   4.435   6.698   3.269
76032SOL     OW29992  14.322   4.299  13.018
76032SOL    HW129993  14.413   4.297  12.989
76032SOL    HW229994  14.274   4.254  12.948
76033SOL     OW29995  13.479   4.514  11.716
76033SOL    HW129996  13.440   4.438  11.672
76033SOL    HW229997  13.515   4.567  11.646
76034SOL     OW29998   1.094  10.045   9.984
76034SOL    HW129999   1.034  10.001   9.923
76034SOL    HW230000   1.059  10.025  10.071
76035SOL     OW30001  12.983   1.914   6.477
76035SOL    HW130002  13.068   1.951   6.454
76035SOL    HW230003  12.994   1.820   6.467
76036SOL     OW30004  10.960   5.650   8.438
76036SOL    HW130005  10.907   5.720   8.399
76036SOL    HW230006  10.897   5.593   8.480
76037SOL     OW30007   1.903  10.383   7.070
76037SOL    HW130008   1.831  10.355   7.014
76037SOL    HW230009   1.979  10.335   7.037
76038SOL     OW30010  13.261  11.847   7.886
76038SOL    HW130011  13.263  11.922   7.828
76038SOL    HW230012  13.282  11.882   7.973
76039SOL     OW30013   3.200   2.613   6.135
76039SOL    HW130014   3.283   2.593   6.178
76039SOL    HW230015   3.165   2.528   6.108
76040SOL     OW30016   8.715   8.399  13.178
76040SOL    HW130017   8.765   8.377  13.099
76040SOL    HW230018   8.769   8.466  13.222
76041SOL     OW30019   4.891   4.770   4.455
76041SOL    HW130020   4.933   4.807   4.533
76041SOL    HW230021   4.802   4.805   4.457
76042SOL     OW30022  12.273   9.496   6.172
76042SOL    HW130023  12.298   9.408   6.145
76042SOL    HW230024  12.182   9.488   6.200
76043SOL     OW30025  12.932  12.923  12.833
76043SOL    HW130026  12.979  13.001  12.861
76043SOL    HW230027  12.967  12.904  12.746
76044SOL     OW30028   2.364   4.374   0.195
76044SOL    HW130029   2.388   4.362   0.103
76044SOL    HW230030   2.301   4.305   0.214
76045SOL     OW30031   4.959   5.451   1.580
76045SOL    HW130032   4.985   5.395   1.653
76045SOL    HW230033   5.001   5.535   1.598
76046SOL     OW30034   0.690   9.354  13.619
76046SOL    HW130035   0.606   9.328  13.656
76046SOL    HW230036   0.684   9.331  13.526
76047SOL     OW30037   9.671   9.226   2.077
76047SOL    HW130038   9.730   9.206   2.005
76047SOL    HW230039   9.596   9.168   2.063
76048SOL     OW30040   4.413   8.727   8.701
76048SOL    HW130041   4.348   8.706   8.767
76048SOL    HW230042   4.485   8.667   8.717
76049SOL     OW30043   7.642   0.738   6.355
76049SOL    HW130044   7.719   0.780   6.394
76049SOL    HW230045   7.569   0.769   6.408
76050SOL     OW30046   9.344   5.933   6.853
76050SOL    HW130047   9.302   6.007   6.808
76050SOL    HW230048   9.417   5.909   6.797
76051SOL     OW30049   5.143  10.306   5.157
76051SOL    HW130050   5.198  10.382   5.176
76051SOL    HW230051   5.165  10.242   5.225
76052SOL     OW30052   6.463   1.978  13.505
76052SOL    HW130053   6.460   1.926  13.585
76052SOL    HW230054   6.371   1.998  13.486
76053SOL     OW30055   5.233   9.493   7.004
76053SOL    HW130056   5.210   9.554   7.074
76053SOL    HW230057   5.206   9.538   6.924
76054SOL     OW30058  13.429   1.838   9.544
76054SOL    HW130059  13.401   1.885   9.622
76054SOL    HW230060  13.525   1.840   9.547
76055SOL     OW30061  12.781   2.466  10.881
76055SOL    HW130062  12.720   2.406  10.838
76055SOL    HW230063  12.813   2.417  10.957
76056SOL     OW30064   1.351   8.720  13.075
76056SOL    HW130065   1.386   8.792  13.022
76056SOL    HW230066   1.265   8.751  13.104
76057SOL     OW30067   6.469   1.071   7.765
76057SOL    HW130068   6.450   1.036   7.678
76057SOL    HW230069   6.461   1.166   7.755
76058SOL     OW30070   5.862  11.639  12.469
76058SOL    HW130071   5.914  11.589  12.532
76058SOL    HW230072   5.851  11.725  12.509
76059SOL     OW30073  12.971   6.764  13.389
76059SOL    HW130074  13.066   6.758  13.383
76059SOL    HW230075  12.954   6.790  13.479
76060SOL     OW30076  11.479   9.653   1.452
76060SOL    HW130077  11.490   9.608   1.368
76060SOL    HW230078  11.534   9.603   1.513
76061SOL     OW30079   4.959   7.340  13.751
76061SOL    HW130080   4.877   7.375  13.786
76061SOL    HW230081   5.003   7.416  13.713
76062SOL     OW30082   8.377   4.067   7.801
76062SOL    HW130083   8.409   3.981   7.828
76062SOL    HW230084   8.456   4.116   7.779
76063SOL     OW30085   6.934  14.188   0.838
76063SOL    HW130086   6.851  14.234   0.823
76063SOL    HW230087   6.981  14.197   0.756
76064SOL     OW30088   7.750   3.765  14.853
76064SOL    HW130089   7.754   3.857  14.827
76064SOL    HW230090   7.657   3.747  14.864
76065SOL     OW30091  10.554   1.937   8.791
76065SOL    HW130092  10.605   1.964   8.715
76065SOL    HW230093  10.556   2.013   8.849
76066SOL     OW30094   8.791   5.162  10.804
76066SOL    HW130095   8.781   5.200  10.891
76066SOL    HW230096   8.722   5.201  10.751
76067SOL     OW30097   8.972   6.353   5.818
76067SOL    HW130098   9.029   6.278   5.838
76067SOL    HW230099   8.967   6.401   5.900
76068SOL     OW30100   5.410   4.759   8.922
76068SOL    HW130101   5.358   4.803   8.855
76068SOL    HW230102   5.355   4.762   9.000
76069SOL     OW30103   1.478  12.454   7.888
76069SOL    HW130104   1.568  12.473   7.860
76069SOL    HW230105   1.443  12.539   7.913
76070SOL     OW30106   9.502  14.317   6.816
76070SOL    HW130107   9.595  14.305   6.832
76070SOL    HW230108   9.497  14.393   6.758
76071SOL     OW30109  12.380   9.928   8.203
76071SOL    HW130110  12.401   9.932   8.109
76071SOL    HW230111  12.378   9.835   8.223
76072SOL     OW30112   1.988   5.539   4.802
76072SOL    HW130113   1.932   5.529   4.878
76072SOL    HW230114   2.009   5.450   4.775
76073SOL     OW30115   2.668  13.165   2.458
76073SOL    HW130116   2.681  13.141   2.367
76073SOL    HW230117   2.683  13.084   2.507
76074SOL     OW30118   2.776   9.906   7.970
76074SOL    HW130119   2.723   9.827   7.986
76074SOL    HW230120   2.783   9.911   7.875
76075SOL     OW30121   4.335   9.199   5.787
76075SOL    HW130122   4.269   9.151   5.737
76075SOL    HW230123   4.285   9.247   5.853
76076SOL     OW30124   8.316   9.652  14.157
76076SOL    HW130125   8.361   9.734  14.177
76076SOL    HW230126   8.364   9.585  14.205
76077SOL     OW30127   4.342  13.079   8.422
76077SOL    HW130128   4.281  13.113   8.487
76077SOL    HW230129   4.320  13.126   8.342
76078SOL     OW30130   3.472  13.650   6.822
76078SOL    HW130131   3.416  13.693   6.758
76078SOL    HW230132   3.485  13.561   6.787
76079SOL     OW30133   7.101   4.331  12.966
76079SOL    HW130134   7.181   4.304  13.011
76079SOL    HW230135   7.040   4.259  12.979
76080SOL     OW30136   2.506   8.536   6.377
76080SOL    HW130137   2.582   8.486   6.346
76080SOL    HW230138   2.536   8.627   6.374
76081SOL     OW30139  11.664   1.277   5.936
76081SOL    HW130140  11.634   1.251   6.023
76081SOL    HW230141  11.585   1.271   5.882
76082SOL     OW30142  11.729   5.062   3.706
76082SOL    HW130143  11.635   5.081   3.706
76082SOL    HW230144  11.734   4.968   3.722
76083SOL     OW30145   2.755   1.388   9.121
76083SOL    HW130146   2.696   1.320   9.089
76083SOL    HW230147   2.767   1.367   9.214
76084SOL     OW30148  14.564  11.670  13.784
76084SOL    HW130149  14.518  11.732  13.841
76084SOL    HW230150  14.512  11.590  13.788
76085SOL     OW30151   0.157   2.520  11.836
76085SOL    HW130152   0.176   2.607  11.801
76085SOL    HW230153   0.131   2.468  11.759
76086SOL     OW30154   3.952   2.455   8.152
76086SOL    HW130155   3.860   2.472   8.171
76086SOL    HW230156   3.994   2.541   8.158
76087SOL     OW30157   1.730   8.968   7.823
76087SOL    HW130158   1.689   8.975   7.737
76087SOL    HW230159   1.672   9.018   7.881
76088SOL     OW30160   1.432  13.088   8.099
76088SOL    HW130161   1.377  13.042   8.036
76088SOL    HW230162   1.371  13.141   8.150
76089SOL     OW30163   0.929   5.855   0.783
76089SOL    HW130164   0.929   5.833   0.690
76089SOL    HW230165   0.838   5.846   0.810
76090SOL     OW30166   8.487  11.310  13.143
76090SOL    HW130167   8.546  11.376  13.107
76090SOL    HW230168   8.461  11.258  13.067
76091SOL     OW30169  12.903   7.355   0.231
76091SOL    HW130170  12.966   7.309   0.286
76091SOL    HW230171  12.936   7.344   0.142
76092SOL     OW30172   2.039  13.676   3.306
76092SOL    HW130173   2.114  13.733   3.285
76092SOL    HW230174   2.004  13.713   3.387
76093SOL     OW30175   8.051   7.984   2.100
76093SOL    HW130176   8.044   7.893   2.073
76093SOL    HW230177   8.066   8.033   2.019
76094SOL     OW30178  10.680   0.591   0.697
76094SOL    HW130179  10.642   0.569   0.782
76094SOL    HW230180  10.690   0.686   0.699
76095SOL     OW30181  14.684   6.063   3.300
76095SOL    HW130182  14.613   6.127   3.291
76095SOL    HW230183  14.641   5.978   3.294
76096SOL     OW30184   9.688  10.846   0.302
76096SOL    HW130185   9.718  10.897   0.227
76096SOL    HW230186   9.752  10.864   0.371
76097SOL     OW30187  11.588   9.903  13.648
76097SOL    HW130188  11.603   9.918  13.741
76097SOL    HW230189  11.566   9.810  13.642
76098SOL     OW30190   5.763  13.329  14.512
76098SOL    HW130191   5.686  13.276  14.495
76098SOL    HW230192   5.829  13.267  14.542
76099SOL     OW30193   7.935   6.258   2.163
76099SOL    HW130194   7.847   6.276   2.129
76099SOL    HW230195   7.919   6.208   2.243
76100SOL     OW30196   2.538   3.869  10.543
76100SOL    HW130197   2.459   3.819  10.525
76100SOL    HW230198   2.512   3.928  10.614
76101SOL     OW30199   5.997  13.924   9.802
76101SOL    HW130200   6.066  13.882   9.750
76101SOL    HW230201   5.919  13.870   9.787
76102SOL     OW30202   5.968   4.657   3.262
76102SOL    HW130203   5.952   4.714   3.337
76102SOL    HW230204   5.928   4.574   3.286
76103SOL     OW30205  11.143  14.613  11.216
76103SOL    HW130206  11.111  14.692  11.261
76103SOL    HW230207  11.074  14.548  11.230
76104SOL     OW30208  10.367  13.284   8.689
76104SOL    HW130209  10.376  13.236   8.607
76104SOL    HW230210  10.287  13.335   8.678
76105SOL     OW30211   0.245   1.481   9.344
76105SOL    HW130212   0.185   1.544   9.384
76105SOL    HW230213   0.328   1.529   9.337
76106SOL     OW30214   0.788   6.269   4.224
76106SOL    HW130215   0.868   6.316   4.247
76106SOL    HW230216   0.751   6.319   4.151
76107SOL     OW30217  13.844   6.886   4.713
76107SOL    HW130218  13.919   6.864   4.768
76107SOL    HW230219  13.853   6.980   4.696
76108SOL     OW30220   8.967  10.496   4.247
76108SOL    HW130221   8.942  10.466   4.334
76108SOL    HW230222   8.970  10.417   4.194
76109SOL     OW30223   1.287  13.866  13.997
76109SOL    HW130224   1.250  13.950  14.022
76109SOL    HW230225   1.227  13.831  13.931
76110SOL     OW30226   6.217  12.693   3.520
76110SOL    HW130227   6.260  12.611   3.543
76110SOL    HW230228   6.270  12.761   3.561
76111SOL     OW30229   1.242  12.825   9.915
76111SOL    HW130230   1.230  12.909   9.960
76111SOL    HW230231   1.169  12.819   9.854
76112SOL     OW30232   0.791  14.846   3.520
76112SOL    HW130233   0.833  14.770   3.480
76112SOL    HW230234   0.768   0.020   3.445
76113SOL     OW30235  10.974   6.790   1.486
76113SOL    HW130236  10.945   6.862   1.542
76113SOL    HW230237  10.924   6.714   1.517
76114SOL     OW30238   3.443   6.998   9.087
76114SOL    HW130239   3.487   6.917   9.113
76114SOL    HW230240   3.476   7.017   9.000
76115SOL     OW30241  12.527  10.238  11.889
76115SOL    HW130242  12.477  10.201  11.962
76115SOL    HW230243  12.586  10.301  11.930
76116SOL     OW30244  14.214   8.070  12.275
76116SOL    HW130245  14.174   7.984  12.266
76116SOL    HW230246  14.174   8.123  12.206
76117SOL     OW30247  11.162  11.385   2.838
76117SOL    HW130248  11.193  11.385   2.929
76117SOL    HW230249  11.241  11.403   2.787
76118SOL     OW30250   1.128   4.778   5.061
76118SOL    HW130251   1.145   4.762   4.969
76118SOL    HW230252   1.041   4.819   5.062
76119SOL     OW30253   9.622   5.665  13.813
76119SOL    HW130254   9.654   5.583  13.777
76119SOL    HW230255   9.687   5.690  13.879
76120SOL     OW30256   1.188  14.142   3.205
76120SOL    HW130257   1.150  14.063   3.166
76120SOL    HW230258   1.220  14.113   3.291
76121SOL     OW30259   1.485  14.384   8.390
76121SOL    HW130260   1.488  14.317   8.321
76121SOL    HW230261   1.563  14.438   8.374
76122SOL     OW30262   3.282   0.562   2.066
76122SOL    HW130263   3.235   0.582   2.147
76122SOL    HW230264   3.286   0.466   2.064
76123SOL     OW30265   5.449  10.446   1.092
76123SOL    HW130266   5.358  10.476   1.094
76123SOL    HW230267   5.495  10.512   1.041
76124SOL     OW30268   2.688   3.254  10.696
76124SOL    HW130269   2.676   3.347  10.679
76124SOL    HW230270   2.715   3.249  10.787
76125SOL     OW30271   0.807   9.433   9.395
76125SOL    HW130272   0.716   9.457   9.413
76125SOL    HW230273   0.853   9.517   9.389
76126SOL     OW30274   8.822   2.055  12.033
76126SOL    HW130275   8.735   2.077  11.999
76126SOL    HW230276   8.853   2.137  12.073
76127SOL     OW30277  13.262   4.715  13.867
76127SOL    HW130278  13.247   4.795  13.817
76127SOL    HW230279  13.180   4.700  13.914
76128SOL     OW30280   3.906   2.355   6.817
76128SOL    HW130281   3.894   2.408   6.896
76128SOL    HW230282   3.959   2.281   6.847
76129SOL     OW30283  12.855   8.448  12.106
76129SOL    HW130284  12.886   8.441  12.016
76129SOL    HW230285  12.924   8.408  12.158
76130SOL     OW30286  14.845   2.871  12.393
76130SOL    HW130287  14.816   2.912  12.312
76130SOL    HW230288   0.008   2.791  12.364
76131SOL     OW30289   7.451  12.649   0.719
76131SOL    HW130290   7.436  12.555   0.723
76131SOL    HW230291   7.513  12.668   0.789
76132SOL     OW30292   8.095   6.803   4.677
76132SOL    HW130293   8.008   6.767   4.693
76132SOL    HW230294   8.088   6.848   4.593
76133SOL     OW30295   8.139   6.817   1.139
76133SOL    HW130296   8.211   6.845   1.195
76133SOL    HW230297   8.170   6.736   1.099
76134SOL     OW30298   0.686   6.272   3.682
76134SOL    HW130299   0.648   6.211   3.744
76134SOL    HW230300   0.651   6.358   3.708
76135SOL     OW30301  10.630   9.321  13.685
76135SOL    HW130302  10.623   9.344  13.777
76135SOL    HW230303  10.722   9.295  13.673
76136SOL     OW30304   7.788   2.302   9.970
76136SOL    HW130305   7.825   2.387   9.946
76136SOL    HW230306   7.827   2.241   9.908
76137SOL     OW30307   3.376   6.505  10.489
76137SOL    HW130308   3.467   6.533  10.496
76137SOL    HW230309   3.374   6.418  10.529
76138SOL     OW30310   5.899  13.495  14.319
76138SOL    HW130311   5.873  13.438  14.391
76138SOL    HW230312   5.979  13.538  14.350
76139SOL     OW30313   7.083  11.297   6.166
76139SOL    HW130314   7.106  11.367   6.105
76139SOL    HW230315   6.998  11.266   6.135
76140SOL     OW30316  13.553   4.957   8.054
76140SOL    HW130317  13.539   4.921   7.966
76140SOL    HW230318  13.532   4.886   8.113
76141SOL     OW30319  14.635  10.497  13.060
76141SOL    HW130320  14.699  10.438  13.020
76141SOL    HW230321  14.649  10.581  13.017
76142SOL     OW30322  10.011   5.266   6.654
76142SOL    HW130323  10.030   5.356   6.680
76142SOL    HW230324   9.974   5.273   6.566
76143SOL     OW30325   4.837   6.137  12.697
76143SOL    HW130326   4.821   6.174  12.610
76143SOL    HW230327   4.793   6.198  12.757
76144SOL     OW30328   4.084   2.827   3.053
76144SOL    HW130329   4.049   2.888   2.987
76144SOL    HW230330   4.011   2.815   3.114
76145SOL     OW30331   4.873   6.083  11.451
76145SOL    HW130332   4.819   6.041  11.518
76145SOL    HW230333   4.819   6.082  11.372
76146SOL     OW30334  11.163   0.433   4.286
76146SOL    HW130335  11.152   0.417   4.192
76146SOL    HW230336  11.214   0.514   4.290
76147SOL     OW30337   9.895   7.364   0.733
76147SOL    HW130338   9.923   7.383   0.822
76147SOL    HW230339   9.909   7.446   0.686
76148SOL     OW30340  11.331  10.033   0.201
76148SOL    HW130341  11.358   9.942   0.212
76148SOL    HW230342  11.241  10.036   0.235
76149SOL     OW30343  11.204  13.780   4.118
76149SOL    HW130344  11.292  13.770   4.154
76149SOL    HW230345  11.147  13.793   4.194
76150SOL     OW30346   4.321  10.517   0.580
76150SOL    HW130347   4.343  10.482   0.666
76150SOL    HW230348   4.311  10.611   0.594
76151SOL     OW30349   1.634   1.977   0.290
76151SOL    HW130350   1.691   2.037   0.338
76151SOL    HW230351   1.663   1.890   0.318
76152SOL     OW30352  11.526   6.175  10.207
76152SOL    HW130353  11.447   6.194  10.258
76152SOL    HW230354  11.598   6.196  10.266
76153SOL     OW30355   4.884   6.874  12.925
76153SOL    HW130356   4.877   6.918  12.841
76153SOL    HW230357   4.848   6.937  12.988
76154SOL     OW30358  13.775   3.149  13.671
76154SOL    HW130359  13.863   3.176  13.646
76154SOL    HW230360  13.726   3.231  13.681
76155SOL     OW30361  11.898  10.077   7.290
76155SOL    HW130362  11.849  10.103   7.368
76155SOL    HW230363  11.832  10.045   7.229
76156SOL     OW30364  10.949  11.291   1.299
76156SOL    HW130365  10.971  11.343   1.377
76156SOL    HW230366  10.894  11.220   1.332
76157SOL     OW30367   4.628  12.453   5.294
76157SOL    HW130368   4.692  12.511   5.251
76157SOL    HW230369   4.604  12.390   5.227
76158SOL     OW30370   2.674  11.736  13.607
76158SOL    HW130371   2.738  11.763  13.542
76158SOL    HW230372   2.716  11.663  13.653
76159SOL     OW30373   0.242  13.207   4.030
76159SOL    HW130374   0.315  13.212   4.091
76159SOL    HW230375   0.276  13.159   3.955
76160SOL     OW30376  11.985  13.371   8.940
76160SOL    HW130377  11.919  13.349   8.874
76160SOL    HW230378  11.962  13.459   8.970
76161SOL     OW30379  12.077   7.229   6.287
76161SOL    HW130380  12.150   7.200   6.342
76161SOL    HW230381  12.110   7.222   6.197
76162SOL     OW30382   6.936  13.771   9.723
76162SOL    HW130383   6.937  13.697   9.662
76162SOL    HW230384   6.967  13.845   9.671
76163SOL     OW30385   0.811   3.445  12.453
76163SOL    HW130386   0.891   3.421  12.500
76163SOL    HW230387   0.757   3.489  12.518
76164SOL     OW30388  14.610   6.745  11.867
76164SOL    HW130389  14.667   6.676  11.902
76164SOL    HW230390  14.545   6.759  11.936
76165SOL     OW30391   9.423   5.116   3.062
76165SOL    HW130392   9.487   5.054   3.027
76165SOL    HW230393   9.339   5.072   3.053
76166SOL     OW30394   7.465   3.095   4.755
76166SOL    HW130395   7.484   3.065   4.844
76166SOL    HW230396   7.413   3.175   4.767
76167SOL     OW30397   4.372   0.873   6.447
76167SOL    HW130398   4.433   0.926   6.497
76167SOL    HW230399   4.324   0.823   6.513
76168SOL     OW30400   4.828  10.826   0.252
76168SOL    HW130401   4.746  10.791   0.217
76168SOL    HW230402   4.866  10.754   0.301
76169SOL     OW30403   1.509   3.759   1.753
76169SOL    HW130404   1.420   3.792   1.744
76169SOL    HW230405   1.556   3.828   1.800
76170SOL     OW30406  12.361   3.677   7.039
76170SOL    HW130407  12.318   3.656   6.956
76170SOL    HW230408  12.454   3.688   7.016
76171SOL     OW30409  12.289   8.610   8.362
76171SOL    HW130410  12.227   8.564   8.419
76171SOL    HW230411  12.279   8.702   8.385
76172SOL     OW30412  13.535   5.051  11.851
76172SOL    HW130413  13.621   5.045  11.810
76172SOL    HW230414  13.498   4.963  11.844
76173SOL     OW30415   4.400   2.657   3.999
76173SOL    HW130416   4.446   2.730   4.040
76173SOL    HW230417   4.357   2.612   4.071
76174SOL     OW30418   0.277   5.911   3.693
76174SOL    HW130419   0.201   5.911   3.752
76174SOL    HW230420   0.244   5.872   3.612
76175SOL     OW30421   8.976  11.499   9.868
76175SOL    HW130422   9.031  11.451   9.930
76175SOL    HW230423   9.008  11.474   9.782
76176SOL     OW30424  11.689  11.922  12.084
76176SOL    HW130425  11.741  11.913  12.004
76176SOL    HW230426  11.601  11.942  12.053
76177SOL     OW30427   8.260  14.536   7.339
76177SOL    HW130428   8.179  14.494   7.369
76177SOL    HW230429   8.268  14.509   7.247
76178SOL     OW30430   6.218   8.789  10.158
76178SOL    HW130431   6.223   8.716  10.219
76178SOL    HW230432   6.308   8.800  10.126
76179SOL     OW30433  12.517  13.847   3.798
76179SOL    HW130434  12.565  13.929   3.792
76179SOL    HW230435  12.471  13.853   3.882
76180SOL     OW30436   1.760   5.010   4.583
76180SOL    HW130437   1.711   5.054   4.652
76180SOL    HW230438   1.824   5.075   4.554
76181SOL     OW30439   7.964   1.477  11.870
76181SOL    HW130440   7.967   1.381  11.871
76181SOL    HW230441   8.054   1.503  11.848
76182SOL     OW30442  10.076  13.039  14.357
76182SOL    HW130443  10.028  13.114  14.393
76182SOL    HW230444  10.168  13.057  14.376
76183SOL     OW30445  11.129  14.285  13.791
76183SOL    HW130446  11.198  14.347  13.766
76183SOL    HW230447  11.153  14.258  13.880
76184SOL     OW30448   6.637  11.917  11.318
76184SOL    HW130449   6.555  11.919  11.366
76184SOL    HW230450   6.615  11.874  11.235
76185SOL     OW30451   6.608  13.489   1.821
76185SOL    HW130452   6.645  13.522   1.903
76185SOL    HW230453   6.665  13.416   1.796
76186SOL     OW30454   6.221   4.222  14.364
76186SOL    HW130455   6.261   4.245  14.280
76186SOL    HW230456   6.233   4.128  14.371
76187SOL     OW30457   2.594   6.752   9.437
76187SOL    HW130458   2.631   6.747   9.525
76187SOL    HW230459   2.579   6.661   9.412
76188SOL     OW30460  13.162   6.633  14.339
76188SOL    HW130461  13.116   6.571  14.282
76188SOL    HW230462  13.199   6.578  14.408
76189SOL     OW30463   4.030   4.999   9.989
76189SOL    HW130464   3.954   5.028   9.939
76189SOL    HW230465   4.105   5.030   9.938
76190SOL     OW30466   2.432   5.955   8.083
76190SOL    HW130467   2.414   6.032   8.137
76190SOL    HW230468   2.369   5.890   8.113
76191SOL     OW30469   3.880   1.433  14.548
76191SOL    HW130470   3.784   1.430  14.545
76191SOL    HW230471   3.903   1.506  14.491
76192SOL     OW30472   7.908   7.221   7.381
76192SOL    HW130473   7.965   7.286   7.421
76192SOL    HW230474   7.822   7.239   7.418
76193SOL     OW30475  14.560  10.081   0.002
76193SOL    HW130476  14.647  10.104  14.852
76193SOL    HW230477  14.537  10.001  14.837
76194SOL     OW30478   7.880   9.386   8.432
76194SOL    HW130479   7.886   9.398   8.338
76194SOL    HW230480   7.935   9.310   8.451
76195SOL     OW30481   7.593   9.379  10.799
76195SOL    HW130482   7.670   9.367  10.744
76195SOL    HW230483   7.623   9.361  10.888
76196SOL     OW30484   6.756   2.716   5.105
76196SOL    HW130485   6.748   2.798   5.153
76196SOL    HW230486   6.787   2.653   5.170
76197SOL     OW30487   9.525   5.353   5.078
76197SOL    HW130488   9.553   5.414   5.145
76197SOL    HW230489   9.433   5.373   5.063
76198SOL     OW30490   0.861   9.071   2.706
76198SOL    HW130491   0.783   9.105   2.661
76198SOL    HW230492   0.852   9.102   2.796
76199SOL     OW30493   7.404   8.259   7.443
76199SOL    HW130494   7.498   8.243   7.448
76199SOL    HW230495   7.373   8.201   7.373
76200SOL     OW30496   3.800  11.949   9.006
76200SOL    HW130497   3.710  11.956   8.976
76200SOL    HW230498   3.794  11.947   9.101
76201SOL     OW30499   4.675   3.975   7.419
76201SOL    HW130500   4.635   4.061   7.424
76201SOL    HW230501   4.605   3.917   7.387
76202SOL     OW30502  11.586   0.010   0.353
76202SOL    HW130503  11.512   0.028   0.294
76202SOL    HW230504  11.625   0.096   0.370
76203SOL     OW30505   7.537  11.581  12.617
76203SOL    HW130506   7.555  11.636  12.541
76203SOL    HW230507   7.448  11.550  12.603
76204SOL     OW30508   4.640   4.231   9.526
76204SOL    HW130509   4.623   4.137   9.530
76204SOL    HW230510   4.585   4.268   9.595
76205SOL     OW30511   4.085   0.099  13.190
76205SOL    HW130512   4.112   0.009  13.172
76205SOL    HW230513   4.133   0.124  13.269
76206SOL     OW30514  11.135   0.735  10.391
76206SOL    HW130515  11.168   0.714  10.304
76206SOL    HW230516  11.106   0.826  10.384
76207SOL     OW30517   4.656   7.489   9.684
76207SOL    HW130518   4.684   7.468   9.595
76207SOL    HW230519   4.729   7.538   9.721
76208SOL     OW30520  10.904   8.768   5.769
76208SOL    HW130521  10.837   8.724   5.716
76208SOL    HW230522  10.856   8.833   5.820
76209SOL     OW30523   1.973   8.279   0.240
76209SOL    HW130524   2.046   8.309   0.186
76209SOL    HW230525   2.009   8.209   0.293
76210SOL     OW30526   7.680   5.732   5.416
76210SOL    HW130527   7.668   5.736   5.510
76210SOL    HW230528   7.645   5.815   5.383
76211SOL     OW30529   3.282  10.552   0.004
76211SOL    HW130530   3.255  10.466   0.038
76211SOL    HW230531   3.201  10.602   0.002
76212SOL     OW30532   0.891   1.932  11.686
76212SOL    HW130533   0.973   1.981  11.684
76212SOL    HW230534   0.918   1.840  11.684
76213SOL     OW30535  10.905   0.906   1.838
76213SOL    HW130536  10.997   0.882   1.849
76213SOL    HW230537  10.877   0.936   1.924
76214SOL     OW30538  11.873   8.814   7.285
76214SOL    HW130539  11.868   8.861   7.202
76214SOL    HW230540  11.783   8.813   7.318
76215SOL     OW30541   1.269   7.115   2.349
76215SOL    HW130542   1.240   7.177   2.417
76215SOL    HW230543   1.299   7.038   2.398
76216SOL     OW30544   7.048   4.871   7.983
76216SOL    HW130545   6.972   4.819   8.008
76216SOL    HW230546   7.024   4.909   7.898
76217SOL     OW30547  11.705  14.207   3.136
76217SOL    HW130548  11.717  14.274   3.069
76217SOL    HW230549  11.732  14.126   3.095
76218SOL     OW30550   5.889   6.803   2.096
76218SOL    HW130551   5.948   6.795   2.021
76218SOL    HW230552   5.936   6.861   2.156
76219SOL     OW30553  11.288   8.491  11.343
76219SOL    HW130554  11.254   8.475  11.431
76219SOL    HW230555  11.254   8.418  11.291
76220SOL     OW30556   1.926   5.774   6.430
76220SOL    HW130557   1.872   5.848   6.400
76220SOL    HW230558   2.015   5.807   6.430
76221SOL     OW30559   4.934   7.596   1.934
76221SOL    HW130560   4.855   7.642   1.907
76221SOL    HW230561   4.909   7.504   1.936
76222SOL     OW30562   3.526   5.161  10.289
76222SOL    HW130563   3.521   5.086  10.349
76222SOL    HW230564   3.610   5.202  10.309
76223SOL     OW30565   8.891   2.764   9.053
76223SOL    HW130566   8.909   2.831   8.986
76223SOL    HW230567   8.804   2.788   9.086
76224SOL     OW30568  10.095   9.276   0.756
76224SOL    HW130569  10.081   9.352   0.700
76224SOL    HW230570  10.186   9.250   0.738
76225SOL     OW30571   4.232   8.396  14.164
76225SOL    HW130572   4.185   8.397  14.248
76225SOL    HW230573   4.174   8.442  14.103
76226SOL     OW30574   7.267   7.322   1.109
76226SOL    HW130575   7.290   7.343   1.200
76226SOL    HW230576   7.351   7.317   1.064
76227SOL     OW30577   0.251  13.354  10.079
76227SOL    HW130578   0.253  13.449  10.079
76227SOL    HW230579   0.248  13.329  10.171
76228SOL     OW30580   6.797  14.822   7.463
76228SOL    HW130581   6.789  14.754   7.529
76228SOL    HW230582   6.892  14.837   7.457
76229SOL     OW30583   5.223   4.409   9.440
76229SOL    HW130584   5.143   4.360   9.461
76229SOL    HW230585   5.243   4.383   9.350
76230SOL     OW30586   5.249   6.813  14.020
76230SOL    HW130587   5.317   6.779  14.077
76230SOL    HW230588   5.247   6.907  14.039
76231SOL     OW30589   0.407   2.017  13.421
76231SOL    HW130590   0.368   2.059  13.345
76231SOL    HW230591   0.501   2.034  13.413
76232SOL     OW30592   0.266   2.123   8.895
76232SOL    HW130593   0.231   2.208   8.873
76232SOL    HW230594   0.190   2.064   8.896
76233SOL     OW30595  11.010   7.166   9.907
76233SOL    HW130596  10.929   7.203   9.872
76233SOL    HW230597  11.050   7.122   9.832
76234SOL     OW30598   9.006  14.604  13.275
76234SOL    HW130599   9.001  14.508  13.273
76234SOL    HW230600   8.944  14.629  13.344
76235SOL     OW30601   2.941   8.351   5.363
76235SOL    HW130602   3.001   8.286   5.400
76235SOL    HW230603   2.979   8.374   5.278
76236SOL     OW30604   2.685   2.814   4.131
76236SOL    HW130605   2.659   2.776   4.214
76236SOL    HW230606   2.642   2.760   4.065
76237SOL     OW30607   1.729   0.939   4.163
76237SOL    HW130608   1.793   0.877   4.197
76237SOL    HW230609   1.727   1.009   4.228
76238SOL     OW30610  10.738   8.096  11.688
76238SOL    HW130611  10.646   8.087  11.715
76238SOL    HW230612  10.747   8.188  11.664
76239SOL     OW30613   2.142   1.920   9.584
76239SOL    HW130614   2.126   1.976   9.508
76239SOL    HW230615   2.210   1.859   9.555
76240SOL     OW30616  14.692  11.627   0.523
76240SOL    HW130617  14.626  11.612   0.456
76240SOL    HW230618  14.718  11.540   0.551
76241SOL     OW30619  10.040   2.913   2.759
76241SOL    HW130620  10.006   2.826   2.780
76241SOL    HW230621  10.132   2.899   2.737
76242SOL     OW30622   8.590   8.987  12.295
76242SOL    HW130623   8.682   9.009  12.279
76242SOL    HW230624   8.547   9.005  12.211
76243SOL     OW30625   4.756   7.876  14.567
76243SOL    HW130626   4.833   7.901  14.619
76243SOL    HW230627   4.786   7.803  14.513
76244SOL     OW30628   0.865   5.216   4.976
76244SOL    HW130629   0.803   5.152   5.010
76244SOL    HW230630   0.898   5.262   5.054
76245SOL     OW30631  11.865  12.798   0.765
76245SOL    HW130632  11.902  12.880   0.731
76245SOL    HW230633  11.816  12.825   0.843
76246SOL     OW30634   7.360   9.917  13.707
76246SOL    HW130635   7.374   9.825  13.687
76246SOL    HW230636   7.448   9.955  13.711
76247SOL     OW30637   2.853   0.756  12.122
76247SOL    HW130638   2.935   0.792  12.091
76247SOL    HW230639   2.793   0.831  12.125
76248SOL     OW30640  10.708   0.140  11.828
76248SOL    HW130641  10.661   0.111  11.907
76248SOL    HW230642  10.641   0.142  11.760
76249SOL     OW30643   9.188   3.685   5.911
76249SOL    HW130644   9.280   3.680   5.887
76249SOL    HW230645   9.185   3.656   6.002
76250SOL     OW30646   5.476   2.554  13.428
76250SOL    HW130647   5.453   2.512  13.510
76250SOL    HW230648   5.416   2.628  13.421
76251SOL     OW30649   7.673  13.254  13.715
76251SOL    HW130650   7.760  13.217  13.726
76251SOL    HW230651   7.684  13.347  13.737
76252SOL     OW30652   4.507   7.074   6.731
76252SOL    HW130653   4.499   6.990   6.685
76252SOL    HW230654   4.597   7.101   6.715
76253SOL     OW30655  12.550   2.413   4.667
76253SOL    HW130656  12.578   2.480   4.730
76253SOL    HW230657  12.584   2.331   4.703
76254SOL     OW30658  14.325   8.628  10.726
76254SOL    HW130659  14.259   8.559  10.740
76254SOL    HW230660  14.291   8.678  10.652
76255SOL     OW30661   6.361  14.266  13.445
76255SOL    HW130662   6.275  14.255  13.485
76255SOL    HW230663   6.408  14.186  13.470
76256SOL     OW30664  12.585  11.799   8.090
76256SOL    HW130665  12.646  11.839   8.151
76256SOL    HW230666  12.635  11.727   8.050
76257SOL     OW30667  11.973  13.534  14.386
76257SOL    HW130668  11.989  13.569  14.298
76257SOL    HW230669  12.053  13.554  14.434
76258SOL     OW30670  13.138   4.923   9.263
76258SOL    HW130671  13.105   4.913   9.174
76258SOL    HW230672  13.231   4.945   9.252
76259SOL     OW30673   9.369   1.021   1.366
76259SOL    HW130674   9.275   1.010   1.380
76259SOL    HW230675   9.388   0.968   1.289
76260SOL     OW30676   6.533   3.914  10.352
76260SOL    HW130677   6.615   3.893  10.308
76260SOL    HW230678   6.473   3.845  10.324
76261SOL     OW30679   0.196   1.698  11.971
76261SOL    HW130680   0.198   1.647  11.890
76261SOL    HW230681   0.288   1.706  11.996
76262SOL     OW30682   2.178  13.104  12.494
76262SOL    HW130683   2.231  13.180  12.470
76262SOL    HW230684   2.095  13.142  12.524
76263SOL     OW30685   1.174  13.939  12.951
76263SOL    HW130686   1.080  13.959  12.958
76263SOL    HW230687   1.178  13.843  12.956
76264SOL     OW30688  12.199   1.150   4.222
76264SOL    HW130689  12.122   1.129   4.169
76264SOL    HW230690  12.263   1.183   4.160
76265SOL     OW30691   5.748   5.910  13.413
76265SOL    HW130692   5.719   5.911  13.504
76265SOL    HW230693   5.669   5.888  13.363
76266SOL     OW30694  14.690  11.412  11.685
76266SOL    HW130695  14.763  11.471  11.703
76266SOL    HW230696  14.635  11.460  11.622
76267SOL     OW30697   4.432   2.915   0.779
76267SOL    HW130698   4.399   2.921   0.690
76267SOL    HW230699   4.371   2.858   0.824
76268SOL     OW30700  11.407   7.872   9.762
76268SOL    HW130701  11.406   7.786   9.804
76268SOL    HW230702  11.486   7.914   9.796
76269SOL     OW30703   5.419   9.973  14.216
76269SOL    HW130704   5.335  10.006  14.183
76269SOL    HW230705   5.481   9.990  14.144
76270SOL     OW30706   9.052   7.627   3.867
76270SOL    HW130707   8.991   7.696   3.894
76270SOL    HW230708   9.107   7.670   3.801
76271SOL     OW30709  13.090  11.197   1.360
76271SOL    HW130710  13.107  11.245   1.279
76271SOL    HW230711  13.090  11.264   1.429
76272SOL     OW30712   9.194   2.312   5.750
76272SOL    HW130713   9.219   2.222   5.732
76272SOL    HW230714   9.244   2.364   5.687
76273SOL     OW30715  12.600  11.939   1.541
76273SOL    HW130716  12.635  11.977   1.622
76273SOL    HW230717  12.509  11.967   1.538
76274SOL     OW30718  13.605   7.750   1.067
76274SOL    HW130719  13.649   7.690   1.127
76274SOL    HW230720  13.648   7.834   1.083
76275SOL     OW30721   3.067  10.712   6.166
76275SOL    HW130722   3.113  10.777   6.219
76275SOL    HW230723   3.061  10.751   6.079
76276SOL     OW30724  12.295  10.269   4.990
76276SOL    HW130725  12.276  10.297   5.079
76276SOL    HW230726  12.381  10.228   4.995
76277SOL     OW30727  11.068   5.697  11.475
76277SOL    HW130728  11.088   5.611  11.437
76277SOL    HW230729  10.972   5.702  11.473
76278SOL     OW30730  10.296   4.386   3.286
76278SOL    HW130731  10.362   4.456   3.284
76278SOL    HW230732  10.261   4.388   3.375
76279SOL     OW30733   8.401   1.429   7.974
76279SOL    HW130734   8.348   1.349   7.979
76279SOL    HW230735   8.358   1.491   8.033
76280SOL     OW30736   8.236   0.048   2.356
76280SOL    HW130737   8.270  14.841   2.367
76280SOL    HW230738   8.141   0.038   2.352
76281SOL     OW30739   9.551   8.504   9.375
76281SOL    HW130740   9.606   8.452   9.433
76281SOL    HW230741   9.607   8.575   9.345
76282SOL     OW30742  13.363   4.186  12.373
76282SOL    HW130743  13.295   4.162  12.309
76282SOL    HW230744  13.425   4.239  12.323
76283SOL     OW30745  14.174   4.398  10.544
76283SOL    HW130746  14.178   4.331  10.612
76283SOL    HW230747  14.080   4.415  10.532
76284SOL     OW30748   4.613  14.503  10.115
76284SOL    HW130749   4.632  14.424  10.065
76284SOL    HW230750   4.687  14.561  10.096
76285SOL     OW30751   1.517   0.942   0.934
76285SOL    HW130752   1.592   0.961   0.878
76285SOL    HW230753   1.511   1.017   0.993
76286SOL     OW30754  13.567   6.794   0.573
76286SOL    HW130755  13.565   6.859   0.503
76286SOL    HW230756  13.507   6.828   0.639
76287SOL     OW30757  12.567  10.270  14.143
76287SOL    HW130758  12.549  10.364  14.133
76287SOL    HW230759  12.594  10.241  14.056
76288SOL     OW30760   5.034   0.703  13.714
76288SOL    HW130761   5.091   0.768  13.756
76288SOL    HW230762   5.044   0.624  13.768
76289SOL     OW30763  13.229   0.428   3.148
76289SOL    HW130764  13.191   0.341   3.160
76289SOL    HW230765  13.156   0.488   3.165
76290SOL     OW30766   4.797   7.304   1.656
76290SOL    HW130767   4.844   7.223   1.637
76290SOL    HW230768   4.751   7.325   1.575
76291SOL     OW30769  10.400   6.787   3.323
76291SOL    HW130770  10.442   6.701   3.317
76291SOL    HW230771  10.327   6.783   3.260
76292SOL     OW30772   2.996   9.617   1.952
76292SOL    HW130773   2.916   9.595   1.998
76292SOL    HW230774   2.989   9.711   1.935
76293SOL     OW30775  14.470  12.118  13.852
76293SOL    HW130776  14.420  12.043  13.821
76293SOL    HW230777  14.552  12.081  13.886
76294SOL     OW30778  11.860  12.310  13.309
76294SOL    HW130779  11.908  12.231  13.283
76294SOL    HW230780  11.875  12.317  13.403
76295SOL     OW30781   4.688   9.137  11.087
76295SOL    HW130782   4.729   9.191  11.155
76295SOL    HW230783   4.702   9.047  11.116
76296SOL     OW30784   0.996  13.453  12.052
76296SOL    HW130785   0.997  13.539  12.093
76296SOL    HW230786   0.909  13.447  12.011
76297SOL     OW30787  14.332   8.716   5.573
76297SOL    HW130788  14.313   8.639   5.521
76297SOL    HW230789  14.250   8.736   5.618
76298SOL     OW30790   5.000  12.446   5.762
76298SOL    HW130791   4.961  12.488   5.838
76298SOL    HW230792   5.047  12.516   5.717
76299SOL     OW30793   9.494   7.899  13.292
76299SOL    HW130794   9.539   7.826  13.334
76299SOL    HW230795   9.549   7.975  13.310
76300SOL     OW30796   0.869  14.561   5.922
76300SOL    HW130797   0.934  14.509   5.875
76300SOL    HW230798   0.802  14.580   5.856
76301SOL     OW30799   2.027   9.789   2.532
76301SOL    HW130800   2.085   9.718   2.504
76301SOL    HW230801   1.950   9.781   2.476
76302SOL     OW30802   2.399   4.155   2.325
76302SOL    HW130803   2.321   4.130   2.275
76302SOL    HW230804   2.450   4.210   2.265
76303SOL     OW30805   5.359   0.758   6.000
76303SOL    HW130806   5.431   0.817   6.019
76303SOL    HW230807   5.363   0.743   5.906
76304SOL     OW30808   2.504   9.343   0.996
76304SOL    HW130809   2.527   9.349   1.089
76304SOL    HW230810   2.583   9.373   0.951
76305SOL     OW30811  11.701  12.223  10.085
76305SOL    HW130812  11.610  12.246  10.068
76305SOL    HW230813  11.727  12.169  10.010
76306SOL     OW30814   7.454   5.752   0.192
76306SOL    HW130815   7.512   5.740   0.117
76306SOL    HW230816   7.488   5.830   0.237
76307SOL     OW30817   9.599   0.062  12.127
76307SOL    HW130818   9.617  14.852  12.146
76307SOL    HW230819   9.594   0.067  12.032
76308SOL     OW30820  11.885  10.448   0.099
76308SOL    HW130821  11.856  10.401   0.021
76308SOL    HW230822  11.938  10.520   0.066
76309SOL     OW30823   5.062  10.764  10.071
76309SOL    HW130824   4.982  10.717  10.096
76309SOL    HW230825   5.088  10.723   9.989
76310SOL     OW30826  12.471   0.965  10.808
76310SOL    HW130827  12.447   0.881  10.770
76310SOL    HW230828  12.459   1.028  10.736
76311SOL     OW30829  13.165   8.514   7.144
76311SOL    HW130830  13.169   8.550   7.233
76311SOL    HW230831  13.215   8.432   7.149
76312SOL     OW30832   8.563  12.586   8.544
76312SOL    HW130833   8.560  12.631   8.459
76312SOL    HW230834   8.529  12.650   8.606
76313SOL     OW30835   4.183   8.173  11.034
76313SOL    HW130836   4.178   8.129  11.118
76313SOL    HW230837   4.277   8.185  11.019
76314SOL     OW30838  10.165   4.592   5.529
76314SOL    HW130839  10.123   4.506   5.525
76314SOL    HW230840  10.202   4.604   5.441
76315SOL     OW30841   9.378  12.369  13.423
76315SOL    HW130842   9.468  12.388  13.395
76315SOL    HW230843   9.385  12.354  13.517
76316SOL     OW30844  10.869   7.721   9.760
76316SOL    HW130845  10.841   7.749   9.847
76316SOL    HW230846  10.866   7.626   9.764
76317SOL     OW30847   2.206   6.272   8.042
76317SOL    HW130848   2.178   6.190   8.001
76317SOL    HW230849   2.237   6.246   8.128
76318SOL     OW30850   2.369  12.221   3.987
76318SOL    HW130851   2.285  12.180   4.007
76318SOL    HW230852   2.365  12.241   3.894
76319SOL     OW30853   2.150   9.489   9.257
76319SOL    HW130854   2.189   9.483   9.170
76319SOL    HW230855   2.110   9.576   9.259
76320SOL     OW30856   2.046   0.904  11.081
76320SOL    HW130857   2.115   0.882  11.143
76320SOL    HW230858   2.079   0.980  11.033
76321SOL     OW30859   7.078   8.000  10.995
76321SOL    HW130860   6.993   7.956  11.005
76321SOL    HW230861   7.097   8.034  11.083
76322SOL     OW30862   7.691  11.715   4.356
76322SOL    HW130863   7.741  11.650   4.306
76322SOL    HW230864   7.605  11.675   4.368
76323SOL     OW30865   7.931  10.754  12.152
76323SOL    HW130866   7.886  10.681  12.110
76323SOL    HW230867   7.883  10.832  12.123
76324SOL     OW30868   9.458  14.166   9.810
76324SOL    HW130869   9.519  14.137   9.878
76324SOL    HW230870   9.412  14.086   9.785
76325SOL     OW30871   6.488  12.218  14.228
76325SOL    HW130872   6.451  12.201  14.142
76325SOL    HW230873   6.455  12.148  14.284
76326SOL     OW30874  14.432   6.977   2.459
76326SOL    HW130875  14.371   6.918   2.503
76326SOL    HW230876  14.517   6.934   2.465
76327SOL     OW30877  11.380  12.663   9.189
76327SOL    HW130878  11.404  12.738   9.135
76327SOL    HW230879  11.350  12.701   9.272
76328SOL     OW30880   2.411   6.006  12.106
76328SOL    HW130881   2.437   6.045  12.189
76328SOL    HW230882   2.332   5.957  12.126
76329SOL     OW30883   8.296   9.457  10.820
76329SOL    HW130884   8.367   9.454  10.756
76329SOL    HW230885   8.331   9.512  10.891
76330SOL     OW30886   0.680   0.704   1.760
76330SOL    HW130887   0.636   0.731   1.840
76330SOL    HW230888   0.633   0.750   1.690
76331SOL     OW30889  13.439   4.529   8.669
76331SOL    HW130890  13.424   4.464   8.600
76331SOL    HW230891  13.498   4.593   8.629
76332SOL     OW30892   4.951  14.171   7.594
76332SOL    HW130893   5.046  14.161   7.588
76332SOL    HW230894   4.920  14.163   7.504
76333SOL     OW30895   7.106   5.221  14.662
76333SOL    HW130896   7.152   5.146  14.624
76333SOL    HW230897   7.087   5.195  14.752
76334SOL     OW30898   9.652   1.683   0.159
76334SOL    HW130899   9.701   1.738   0.098
76334SOL    HW230900   9.566   1.725   0.166
76335SOL     OW30901  12.669   1.098   9.598
76335SOL    HW130902  12.684   1.192   9.594
76335SOL    HW230903  12.610   1.086   9.672
76336SOL     OW30904   6.407  13.126   2.345
76336SOL    HW130905   6.353  13.137   2.266
76336SOL    HW230906   6.485  13.081   2.314
76337SOL     OW30907   0.141   4.247  10.503
76337SOL    HW130908   0.118   4.337  10.477
76337SOL    HW230909   0.060   4.197  10.489
76338SOL     OW30910   6.084   2.922  13.567
76338SOL    HW130911   6.037   2.982  13.509
76338SOL    HW230912   6.039   2.838  13.556
76339SOL     OW30913   4.058   6.018   6.830
76339SOL    HW130914   4.085   5.952   6.894
76339SOL    HW230915   4.125   6.015   6.762
76340SOL     OW30916  12.818   4.927   8.224
76340SOL    HW130917  12.877   4.861   8.188
76340SOL    HW230918  12.771   4.961   8.148
76341SOL     OW30919   9.208   1.108  13.248
76341SOL    HW130920   9.191   1.195  13.282
76341SOL    HW230921   9.221   1.121  13.154
76342SOL     OW30922  12.588  10.676  13.157
76342SOL    HW130923  12.502  10.634  13.161
76342SOL    HW230924  12.573  10.764  13.190
76343SOL     OW30925   1.705   8.566   0.170
76343SOL    HW130926   1.794   8.601   0.169
76343SOL    HW230927   1.705   8.498   0.102
76344SOL     OW30928  14.801   9.720   1.623
76344SOL    HW130929  14.809   9.812   1.651
76344SOL    HW230930  14.708   9.709   1.606
76345SOL     OW30931   0.820   4.167   9.660
76345SOL    HW130932   0.857   4.131   9.741
76345SOL    HW230933   0.881   4.236   9.634
76346SOL     OW30934  11.117  11.173   2.280
76346SOL    HW130935  11.183  11.237   2.306
76346SOL    HW230936  11.157  11.125   2.208
76347SOL     OW30937  10.718  10.995   3.204
76347SOL    HW130938  10.759  10.911   3.222
76347SOL    HW230939  10.783  11.060   3.228
76348SOL     OW30940  13.911  12.765  13.417
76348SOL    HW130941  13.909  12.782  13.323
76348SOL    HW230942  13.906  12.669  13.424
76349SOL     OW30943   1.273   3.301  11.297
76349SOL    HW130944   1.345   3.357  11.326
76349SOL    HW230945   1.313   3.243  11.233
76350SOL     OW30946   9.464   2.627   9.234
76350SOL    HW130947   9.400   2.619   9.163
76350SOL    HW230948   9.412   2.617   9.314
76351SOL     OW30949   0.914  14.394   2.000
76351SOL    HW130950   0.959  14.465   2.045
76351SOL    HW230951   0.917  14.420   1.907
76352SOL     OW30952   2.077   5.825  12.975
76352SOL    HW130953   2.172   5.813  12.963
76352SOL    HW230954   2.061   5.915  12.948
76353SOL     OW30955   8.496   5.837   3.837
76353SOL    HW130956   8.438   5.811   3.909
76353SOL    HW230957   8.447   5.901   3.787
76354SOL     OW30958   0.652   1.848   0.453
76354SOL    HW130959   0.742   1.839   0.422
76354SOL    HW230960   0.610   1.905   0.389
76355SOL     OW30961   4.463  10.461   5.563
76355SOL    HW130962   4.400  10.424   5.501
76355SOL    HW230963   4.518  10.518   5.510
76356SOL     OW30964   2.637  13.233   6.029
76356SOL    HW130965   2.609  13.174   6.098
76356SOL    HW230966   2.556  13.265   5.990
76357SOL     OW30967  12.826   5.366  14.798
76357SOL    HW130968  12.870   5.303  14.856
76357SOL    HW230969  12.747   5.390  14.846
76358SOL     OW30970   0.852   6.238  14.354
76358SOL    HW130971   0.760   6.255  14.334
76358SOL    HW230972   0.850   6.187  14.435
76359SOL     OW30973  13.078   6.139   1.595
76359SOL    HW130974  13.030   6.220   1.580
76359SOL    HW230975  13.165   6.168   1.622
76360SOL     OW30976   3.945   7.992   6.727
76360SOL    HW130977   4.038   8.003   6.708
76360SOL    HW230978   3.902   8.060   6.675
76361SOL     OW30979   4.766   2.410   0.609
76361SOL    HW130980   4.849   2.441   0.646
76361SOL    HW230981   4.744   2.333   0.661
76362SOL     OW30982   3.708   3.197   1.925
76362SOL    HW130983   3.804   3.194   1.919
76362SOL    HW230984   3.678   3.168   1.839
76363SOL     OW30985   5.720   6.273  11.900
76363SOL    HW130986   5.791   6.264  11.836
76363SOL    HW230987   5.744   6.212  11.970
76364SOL     OW30988  13.205   2.700   3.974
76364SOL    HW130989  13.174   2.727   4.061
76364SOL    HW230990  13.191   2.606   3.972
76365SOL     OW30991  11.255   1.870  10.365
76365SOL    HW130992  11.185   1.924  10.400
76365SOL    HW230993  11.294   1.923  10.296
76366SOL     OW30994   6.956   1.030  11.040
76366SOL    HW130995   6.937   1.057  10.949
76366SOL    HW230996   6.958   1.113  11.089
76367SOL     OW30997   4.667  12.061   0.279
76367SOL    HW130998   4.706  12.146   0.297
76367SOL    HW230999   4.665  12.016   0.364
76368SOL     OW31000   9.465   2.894  13.914
76368SOL    HW131001   9.504   2.872  13.829
76368SOL    HW231002   9.376   2.859  13.909
76369SOL     OW31003   9.631   8.735   9.255
76369SOL    HW131004   9.543   8.751   9.222
76369SOL    HW231005   9.689   8.772   9.188
76370SOL     OW31006   7.035   2.971   0.144
76370SOL    HW131007   7.101   2.909   0.175
76370SOL    HW231008   6.996   3.005   0.224
76371SOL     OW31009   2.929   5.928   4.914
76371SOL    HW131010   2.886   5.944   4.830
76371SOL    HW231011   2.877   5.857   4.954
76372SOL     OW31012   4.879   1.078   2.438
76372SOL    HW131013   4.834   1.042   2.362
76372SOL    HW231014   4.828   1.047   2.513
76373SOL     OW31015   7.061  12.197  14.650
76373SOL    HW131016   7.152  12.227  14.644
76373SOL    HW231017   7.026  12.243  14.726
76374SOL     OW31018   6.981   6.769   2.632
76374SOL    HW131019   6.932   6.764   2.550
76374SOL    HW231020   7.071   6.784   2.605
76375SOL     OW31021   1.690   0.666   3.843
76375SOL    HW131022   1.712   0.573   3.838
76375SOL    HW231023   1.680   0.694   3.752
76376SOL     OW31024   9.662   7.670   4.549
76376SOL    HW131025   9.667   7.634   4.637
76376SOL    HW231026   9.653   7.594   4.492
76377SOL     OW31027   6.069   9.865   1.077
76377SOL    HW131028   5.986   9.895   1.039
76377SOL    HW231029   6.084   9.924   1.151
76378SOL     OW31030  11.537   2.788   4.923
76378SOL    HW131031  11.447   2.757   4.935
76378SOL    HW231032  11.590   2.709   4.923
76379SOL     OW31033   2.862   1.936  13.226
76379SOL    HW131034   2.768   1.949  13.238
76379SOL    HW231035   2.872   1.923  13.132
76380SOL     OW31036  13.472   5.129  11.569
76380SOL    HW131037  13.376   5.125  11.563
76380SOL    HW231038  13.498   5.038  11.581
76381SOL     OW31039   7.241   3.499   6.774
76381SOL    HW131040   7.213   3.424   6.826
76381SOL    HW231041   7.173   3.565   6.788
76382SOL     OW31042   3.972   8.851  10.969
76382SOL    HW131043   3.907   8.787  10.996
76382SOL    HW231044   3.983   8.835  10.875
76383SOL     OW31045   5.993   3.590   5.874
76383SOL    HW131046   5.975   3.549   5.789
76383SOL    HW231047   5.908   3.625   5.902
76384SOL     OW31048  14.560   6.551   4.660
76384SOL    HW131049  14.504   6.534   4.584
76384SOL    HW231050  14.605   6.633   4.639
76385SOL     OW31051  10.208   8.733  13.267
76385SOL    HW131052  10.201   8.716  13.173
76385SOL    HW231053  10.140   8.678  13.306
76386SOL     OW31054   6.828  13.625   5.579
76386SOL    HW131055   6.870  13.694   5.527
76386SOL    HW231056   6.799  13.561   5.515
76387SOL     OW31057   0.165   6.014  10.482
76387SOL    HW131058   0.205   6.032  10.396
76387SOL    HW231059   0.226   5.954  10.525
76388SOL     OW31060   0.331   4.104  11.573
76388SOL    HW131061   0.244   4.068  11.587
76388SOL    HW231062   0.388   4.027  11.565
76389SOL     OW31063   1.258   2.070  12.884
76389SOL    HW131064   1.164   2.077  12.873
76389SOL    HW231065   1.276   2.118  12.966
76390SOL     OW31066   1.297   7.352   0.375
76390SOL    HW131067   1.205   7.370   0.355
76390SOL    HW231068   1.327   7.431   0.420
76391SOL     OW31069   6.178   2.112   3.851
76391SOL    HW131070   6.206   2.021   3.846
76391SOL    HW231071   6.219   2.145   3.931
76392SOL     OW31072   5.677   0.107  12.647
76392SOL    HW131073   5.772   0.101  12.641
76392SOL    HW231074   5.646   0.086  12.559
76393SOL     OW31075   6.730   6.188   3.801
76393SOL    HW131076   6.763   6.238   3.726
76393SOL    HW231077   6.764   6.234   3.877
76394SOL     OW31078   5.261   7.353   0.919
76394SOL    HW131079   5.233   7.441   0.894
76394SOL    HW231080   5.284   7.311   0.836
76395SOL     OW31081   5.450  11.243  10.553
76395SOL    HW131082   5.450  11.322  10.498
76395SOL    HW231083   5.518  11.260  10.618
76396SOL     OW31084   1.718   9.914   9.509
76396SOL    HW131085   1.751   9.875   9.590
76396SOL    HW231086   1.630   9.877   9.498
76397SOL     OW31087   3.244   4.417  12.023
76397SOL    HW131088   3.244   4.386  11.933
76397SOL    HW231089   3.191   4.352  12.070
76398SOL     OW31090   3.937   7.913   8.860
76398SOL    HW131091   3.896   7.829   8.881
76398SOL    HW231092   3.947   7.958   8.944
76399SOL     OW31093  12.118  10.246   9.806
76399SOL    HW131094  12.179  10.257   9.734
76399SOL    HW231095  12.066  10.327   9.806
76400SOL     OW31096   1.379   5.978  14.625
76400SOL    HW131097   1.418   5.947  14.543
76400SOL    HW231098   1.448   6.031  14.666
76401SOL     OW31099   8.262  14.803   7.296
76401SOL    HW131100   8.249  14.708   7.299
76401SOL    HW231101   8.178  14.838   7.267
76402SOL     OW31102   4.321  10.573  10.310
76402SOL    HW131103   4.379  10.643  10.341
76402SOL    HW231104   4.339  10.499  10.367
76403SOL     OW31105   1.013   6.544   0.219
76403SOL    HW131106   0.966   6.557   0.137
76403SOL    HW231107   0.949   6.504   0.278
76404SOL     OW31108  13.569   8.685  13.928
76404SOL    HW131109  13.505   8.673  13.858
76404SOL    HW231110  13.631   8.613  13.916
76405SOL     OW31111   5.425   5.399   7.354
76405SOL    HW131112   5.501   5.432   7.306
76405SOL    HW231113   5.401   5.469   7.414
76406SOL     OW31114  10.686   9.770  11.503
76406SOL    HW131115  10.643   9.691  11.536
76406SOL    HW231116  10.696   9.754  11.409
76407SOL     OW31117   5.107   9.124  11.804
76407SOL    HW131118   5.183   9.175  11.830
76407SOL    HW231119   5.078   9.164  11.722
76408SOL     OW31120   0.092  12.482  12.430
76408SOL    HW131121   0.058  12.563  12.468
76408SOL    HW231122   0.093  12.499  12.336
76409SOL     OW31123   4.715   3.804  12.703
76409SOL    HW131124   4.642   3.744  12.690
76409SOL    HW231125   4.781   3.776  12.640
76410SOL     OW31126   3.858   4.707   0.695
76410SOL    HW131127   3.889   4.693   0.784
76410SOL    HW231128   3.846   4.802   0.688
76411SOL     OW31129  12.282   7.623  13.407
76411SOL    HW131130  12.211   7.686  13.409
76411SOL    HW231131  12.259   7.558  13.474
76412SOL     OW31132  13.749  11.686   1.178
76412SOL    HW131133  13.838  11.711   1.154
76412SOL    HW231134  13.719  11.631   1.106
76413SOL     OW31135   0.736  10.284   4.188
76413SOL    HW131136   0.665  10.248   4.240
76413SOL    HW231137   0.696  10.305   4.103
76414SOL     OW31138   8.872   7.326  14.233
76414SOL    HW131139   8.954   7.374  14.226
76414SOL    HW231140   8.848   7.334  14.326
76415SOL     OW31141  11.568   2.642  10.212
76415SOL    HW131142  11.616   2.722  10.229
76415SOL    HW231143  11.625   2.572  10.243
76416SOL     OW31144   9.930   3.593  12.547
76416SOL    HW131145  10.010   3.624  12.503
76416SOL    HW231146   9.866   3.662  12.530
76417SOL     OW31147   9.180  11.872   7.659
76417SOL    HW131148   9.109  11.808   7.649
76417SOL    HW231149   9.251  11.838   7.605
76418SOL     OW31150  10.516   9.305  14.442
76418SOL    HW131151  10.608   9.324  14.462
76418SOL    HW231152  10.482   9.264  14.522
76419SOL     OW31153   3.745   1.742   4.370
76419SOL    HW131154   3.743   1.807   4.441
76419SOL    HW231155   3.783   1.664   4.410
76420SOL     OW31156  13.402   4.854  12.058
76420SOL    HW131157  13.372   4.934  12.101
76420SOL    HW231158  13.338   4.840  11.988
76421SOL     OW31159  11.677   3.418  14.855
76421SOL    HW131160  11.595   3.420   0.022
76421SOL    HW231161  11.745   3.409   0.039
76422SOL     OW31162   8.994  14.584  11.323
76422SOL    HW131163   8.903  14.563  11.301
76422SOL    HW231164   9.001  14.679  11.311
76423SOL     OW31165   3.807   9.643   0.537
76423SOL    HW131166   3.747   9.709   0.505
76423SOL    HW231167   3.894   9.679   0.519
76424SOL     OW31168   5.756   9.008   0.978
76424SOL    HW131169   5.793   8.941   1.035
76424SOL    HW231170   5.685   9.047   1.030
76425SOL     OW31171  11.139   1.474   4.276
76425SOL    HW131172  11.057   1.490   4.323
76425SOL    HW231173  11.170   1.390   4.310
76426SOL     OW31174  11.977   3.053   0.548
76426SOL    HW131175  12.071   3.037   0.546
76426SOL    HW231176  11.963   3.122   0.484
76427SOL     OW31177  13.538   1.518  13.445
76427SOL    HW131178  13.481   1.465  13.502
76427SOL    HW231179  13.571   1.587  13.502
76428SOL     OW31180   8.178   0.346  14.820
76428SOL    HW131181   8.126   0.413  14.865
76428SOL    HW231182   8.113   0.291  14.776
76429SOL     OW31183   1.822  14.241  11.329
76429SOL    HW131184   1.830  14.264  11.422
76429SOL    HW231185   1.734  14.271  11.305
76430SOL     OW31186   7.548  12.850   0.166
76430SOL    HW131187   7.556  12.756   0.184
76430SOL    HW231188   7.462  12.859   0.126
76431SOL     OW31189  12.519   5.884  10.766
76431SOL    HW131190  12.473   5.805  10.792
76431SOL    HW231191  12.588   5.854  10.707
76432SOL     OW31192   5.516  11.899   1.318
76432SOL    HW131193   5.433  11.946   1.306
76432SOL    HW231194   5.489  11.809   1.340
76433SOL     OW31195  14.046   3.428   5.774
76433SOL    HW131196  13.957   3.431   5.739
76433SOL    HW231197  14.039   3.467   5.861
76434SOL     OW31198   5.260   7.560   7.289
76434SOL    HW131199   5.296   7.643   7.319
76434SOL    HW231200   5.325   7.527   7.226
76435SOL     OW31201   4.209   2.900   2.489
76435SOL    HW131202   4.221   2.824   2.546
76435SOL    HW231203   4.292   2.947   2.494
76436SOL     OW31204   9.288  11.233   9.865
76436SOL    HW131205   9.256  11.213   9.953
76436SOL    HW231206   9.236  11.308   9.836
76437SOL     OW31207   0.475   7.036  13.113
76437SOL    HW131208   0.405   6.977  13.087
76437SOL    HW231209   0.497   7.010  13.202
76438SOL     OW31210   5.453   7.882   4.139
76438SOL    HW131211   5.385   7.829   4.183
76438SOL    HW231212   5.453   7.849   4.049
76439SOL     OW31213   1.452   1.918  12.427
76439SOL    HW131214   1.542   1.896  12.404
76439SOL    HW231215   1.440   2.008  12.396
76440SOL     OW31216  13.858   0.085  14.859
76440SOL    HW131217  13.876  14.879  14.827
76440SOL    HW231218  13.788   0.117  14.802
76441SOL     OW31219   0.595  14.551  14.565
76441SOL    HW131220   0.547  14.628  14.534
76441SOL    HW231221   0.555  14.530  14.649
76442SOL     OW31222  13.464   0.798  11.396
76442SOL    HW131223  13.460   0.804  11.492
76442SOL    HW231224  13.550   0.758  11.379
76443SOL     OW31225   4.891   0.999   3.723
76443SOL    HW131226   4.961   1.004   3.659
76443SOL    HW231227   4.906   0.916   3.769
76444SOL     OW31228   2.622   1.078   1.834
76444SOL    HW131229   2.635   1.171   1.819
76444SOL    HW231230   2.532   1.071   1.864
76445SOL     OW31231   4.711  10.011   9.884
76445SOL    HW131232   4.743  10.098   9.911
76445SOL    HW231233   4.646   9.989   9.950
76446SOL     OW31234   7.054   3.819  10.844
76446SOL    HW131235   7.053   3.784  10.754
76446SOL    HW231236   7.040   3.913  10.833
76447SOL     OW31237   3.585   2.857   4.312
76447SOL    HW131238   3.626   2.778   4.276
76447SOL    HW231239   3.657   2.907   4.350
76448SOL     OW31240   6.505   3.962  12.881
76448SOL    HW131241   6.552   4.042  12.859
76448SOL    HW231242   6.510   3.956  12.976
76449SOL     OW31243  11.024  12.285   9.125
76449SOL    HW131244  11.002  12.330   9.206
76449SOL    HW231245  11.075  12.349   9.075
76450SOL     OW31246   5.615   9.214  14.786
76450SOL    HW131247   5.615   9.285  14.722
76450SOL    HW231248   5.654   9.139  14.740
76451SOL     OW31249   2.789  12.043  14.674
76451SOL    HW131250   2.768  11.950  14.681
76451SOL    HW231251   2.802  12.072  14.765
76452SOL     OW31252   9.578  14.718   5.926
76452SOL    HW131253   9.523  14.796   5.934
76452SOL    HW231254   9.650  14.733   5.987
76453SOL     OW31255   0.398  11.212   0.588
76453SOL    HW131256   0.379  11.282   0.525
76453SOL    HW231257   0.390  11.254   0.674
76454SOL     OW31258   9.930   9.722   8.072
76454SOL    HW131259   9.920   9.671   8.153
76454SOL    HW231260  10.022   9.712   8.048
76455SOL     OW31261   7.772  10.787   7.735
76455SOL    HW131262   7.721  10.748   7.664
76455SOL    HW231263   7.863  10.774   7.709
76456SOL     OW31264  14.108   3.699   2.018
76456SOL    HW131265  14.157   3.776   1.990
76456SOL    HW231266  14.028   3.702   1.964
76457SOL     OW31267  12.341   4.980   1.066
76457SOL    HW131268  12.265   4.946   1.115
76457SOL    HW231269  12.374   4.904   1.018
76458SOL     OW31270  12.641   5.625  13.496
76458SOL    HW131271  12.551   5.650  13.517
76458SOL    HW231272  12.678   5.599  13.580
76459SOL     OW31273  14.151  14.321   3.233
76459SOL    HW131274  14.143  14.415   3.248
76459SOL    HW231275  14.115  14.281   3.312
76460SOL     OW31276   4.067   9.231   4.803
76460SOL    HW131277   3.986   9.224   4.753
76460SOL    HW231278   4.108   9.145   4.796
76461SOL     OW31279   2.746  13.619   3.956
76461SOL    HW131280   2.802  13.634   3.880
76461SOL    HW231281   2.657  13.622   3.922
76462SOL     OW31282   7.483  11.748  14.875
76462SOL    HW131283   7.396  11.765   0.029
76462SOL    HW231284   7.542  11.756   0.067
76463SOL     OW31285   9.388   9.107  12.730
76463SOL    HW131286   9.417   9.049  12.801
76463SOL    HW231287   9.441   9.186  12.740
76464SOL     OW31288   5.299  14.252   3.901
76464SOL    HW131289   5.323  14.224   3.990
76464SOL    HW231290   5.254  14.176   3.864
76465SOL     OW31291   8.676   3.481   2.569
76465SOL    HW131292   8.755   3.440   2.604
76465SOL    HW231293   8.692   3.575   2.579
76466SOL     OW31294   2.672   1.029   9.807
76466SOL    HW131295   2.635   1.097   9.751
76466SOL    HW231296   2.697   1.075   9.887
76467SOL     OW31297   2.903  12.343   0.876
76467SOL    HW131298   2.987  12.377   0.905
76467SOL    HW231299   2.912  12.333   0.781
76468SOL     OW31300  11.671   8.799  13.778
76468SOL    HW131301  11.660   8.722  13.834
76468SOL    HW231302  11.607   8.788  13.708
76469SOL     OW31303   9.047  11.929  11.333
76469SOL    HW131304   9.016  11.884  11.254
76469SOL    HW231305   9.123  11.979  11.304
76470SOL     OW31306   1.495  14.155   9.076
76470SOL    HW131307   1.547  14.140   9.155
76470SOL    HW231308   1.425  14.090   9.081
76471SOL     OW31309   0.929  10.600   8.278
76471SOL    HW131310   0.925  10.692   8.305
76471SOL    HW231311   0.837  10.576   8.265
76472SOL     OW31312  10.934  14.800   5.946
76472SOL    HW131313  10.931  14.766   5.856
76472SOL    HW231314  11.016  14.850   5.950
76473SOL     OW31315   3.483  11.610   1.460
76473SOL    HW131316   3.461  11.611   1.367
76473SOL    HW231317   3.452  11.524   1.490
76474SOL     OW31318   3.748   2.418   6.286
76474SOL    HW131319   3.774   2.436   6.195
76474SOL    HW231320   3.828   2.389   6.328
76475SOL     OW31321   8.425   2.317   9.531
76475SOL    HW131322   8.367   2.294   9.459
76475SOL    HW231323   8.449   2.409   9.514
76476SOL     OW31324  10.502   0.031   6.428
76476SOL    HW131325  10.559  14.865   6.370
76476SOL    HW231326  10.551   0.041   6.509
76477SOL     OW31327   3.051   5.389  13.765
76477SOL    HW131328   3.087   5.415  13.849
76477SOL    HW231329   3.096   5.444  13.701
76478SOL     OW31330   6.233   1.805   2.280
76478SOL    HW131331   6.327   1.795   2.288
76478SOL    HW231332   6.215   1.892   2.314
76479SOL     OW31333   3.461  12.563   1.040
76479SOL    HW131334   3.556  12.571   1.028
76479SOL    HW231335   3.438  12.482   0.995
76480SOL     OW31336   7.513   2.759  12.491
76480SOL    HW131337   7.495   2.665  12.501
76480SOL    HW231338   7.538   2.788  12.579
76481SOL     OW31339   5.063   6.075  13.088
76481SOL    HW131340   5.063   6.128  13.008
76481SOL    HW231341   5.016   6.127  13.152
76482SOL     OW31342   6.374   2.317   4.986
76482SOL    HW131343   6.404   2.359   4.905
76482SOL    HW231344   6.375   2.223   4.966
76483SOL     OW31345  10.684   6.616   8.028
76483SOL    HW131346  10.761   6.653   7.985
76483SOL    HW231347  10.682   6.658   8.114
76484SOL     OW31348   0.431   2.811   0.379
76484SOL    HW131349   0.446   2.733   0.325
76484SOL    HW231350   0.478   2.881   0.334
76485SOL     OW31351   0.005   8.421  10.753
76485SOL    HW131352   0.021   8.475  10.831
76485SOL    HW231353  14.801   8.449  10.722
76486SOL     OW31354   1.976  14.217   0.384
76486SOL    HW131355   1.924  14.189   0.459
76486SOL    HW231356   2.062  14.176   0.397
76487SOL     OW31357   4.261  10.707   9.107
76487SOL    HW131358   4.337  10.760   9.081
76487SOL    HW231359   4.214  10.762   9.170
76488SOL     OW31360  13.120   3.741   0.021
76488SOL    HW131361  13.154   3.830   0.031
76488SOL    HW231362  13.079   3.740  14.817
76489SOL     OW31363   6.738   1.436   7.145
76489SOL    HW131364   6.813   1.450   7.204
76489SOL    HW231365   6.776   1.393   7.069
76490SOL     OW31366   0.181  10.054   9.257
76490SOL    HW131367   0.204  10.115   9.328
76490SOL    HW231368   0.264  10.012   9.234
76491SOL     OW31369   5.093  11.289   9.545
76491SOL    HW131370   5.175  11.282   9.595
76491SOL    HW231371   5.035  11.225   9.586
76492SOL     OW31372   3.125  14.000   2.667
76492SOL    HW131373   3.190  13.930   2.665
76492SOL    HW231374   3.043  13.956   2.689
76493SOL     OW31375   2.448  13.791   4.886
76493SOL    HW131376   2.467  13.849   4.960
76493SOL    HW231377   2.478  13.705   4.916
76494SOL     OW31378  10.177   5.228   9.547
76494SOL    HW131379  10.263   5.266   9.564
76494SOL    HW231380  10.149   5.194   9.632
76495SOL     OW31381   5.366  12.867   6.010
76495SOL    HW131382   5.426  12.804   6.049
76495SOL    HW231383   5.397  12.952   6.041
76496SOL     OW31384   1.717  14.651   7.027
76496SOL    HW131385   1.731  14.662   7.121
76496SOL    HW231386   1.729  14.738   6.990
76497SOL     OW31387   2.004  12.807   8.926
76497SOL    HW131388   2.047  12.724   8.946
76497SOL    HW231389   1.975  12.840   9.012
76498SOL     OW31390  11.533   7.808  13.932
76498SOL    HW131391  11.578   7.731  13.966
76498SOL    HW231392  11.445   7.802  13.968
76499SOL     OW31393   4.005   6.861   5.412
76499SOL    HW131394   3.993   6.885   5.504
76499SOL    HW231395   4.063   6.929   5.377
76500SOL     OW31396  12.052  11.968   0.401
76500SOL    HW131397  11.962  11.999   0.406
76500SOL    HW231398  12.082  11.965   0.492
76501SOL     OW31399   2.044   4.238  12.472
76501SOL    HW131400   2.056   4.156  12.519
76501SOL    HW231401   1.950   4.245  12.459
76502SOL     OW31402   0.420  13.287  12.836
76502SOL    HW131403   0.444  13.289  12.743
76502SOL    HW231404   0.481  13.225  12.875
76503SOL     OW31405  10.555   9.818   1.801
76503SOL    HW131406  10.568   9.806   1.707
76503SOL    HW231407  10.601   9.899   1.822
76504SOL     OW31408  11.694   2.107   1.934
76504SOL    HW131409  11.718   2.016   1.918
76504SOL    HW231410  11.704   2.118   2.029
76505SOL     OW31411   8.964   0.273   6.160
76505SOL    HW131412   8.972   0.345   6.223
76505SOL    HW231413   8.957   0.195   6.215
76506SOL     OW31414  10.184   1.464   4.429
76506SOL    HW131415  10.124   1.434   4.498
76506SOL    HW231416  10.215   1.383   4.388
76507SOL     OW31417   4.348   9.523   5.217
76507SOL    HW131418   4.309   9.564   5.294
76507SOL    HW231419   4.294   9.552   5.144
76508SOL     OW31420   6.917   7.263  11.696
76508SOL    HW131421   6.913   7.246  11.602
76508SOL    HW231422   7.002   7.304  11.710
76509SOL     OW31423   6.780   7.021  13.575
76509SOL    HW131424   6.873   7.021  13.600
76509SOL    HW231425   6.733   7.019  13.658
76510SOL     OW31426   5.938   3.420   5.663
76510SOL    HW131427   5.868   3.366   5.627
76510SOL    HW231428   5.965   3.475   5.589
76511SOL     OW31429   3.814   1.855  12.921
76511SOL    HW131430   3.834   1.761  12.910
76511SOL    HW231431   3.891   1.899  12.885
76512SOL     OW31432   7.190   5.515   9.064
76512SOL    HW131433   7.214   5.462   9.140
76512SOL    HW231434   7.095   5.517   9.065
76513SOL     OW31435   5.380  13.808  11.388
76513SOL    HW131436   5.376  13.857  11.470
76513SOL    HW231437   5.464  13.762  11.391
76514SOL     OW31438   1.661   9.491   2.133
76514SOL    HW131439   1.665   9.581   2.099
76514SOL    HW231440   1.669   9.502   2.228
76515SOL     OW31441   9.667  11.715   5.747
76515SOL    HW131442   9.594  11.776   5.760
76515SOL    HW231443   9.666  11.661   5.826
76516SOL     OW31444   3.689  13.323  10.702
76516SOL    HW131445   3.598  13.348  10.689
76516SOL    HW231446   3.703  13.334  10.797
76517SOL     OW31447   4.916   4.054  13.320
76517SOL    HW131448   4.940   4.139  13.284
76517SOL    HW231449   4.822   4.060  13.336
76518SOL     OW31450  11.379  11.238  14.635
76518SOL    HW131451  11.436  11.167  14.606
76518SOL    HW231452  11.415  11.316  14.592
76519SOL     OW31453   5.585   4.197   1.628
76519SOL    HW131454   5.669   4.181   1.672
76519SOL    HW231455   5.548   4.110   1.616
76520SOL     OW31456  10.430  12.752   9.443
76520SOL    HW131457  10.404  12.802   9.365
76520SOL    HW231458  10.486  12.812   9.492
76521SOL     OW31459   5.708   0.748   5.778
76521SOL    HW131460   5.714   0.726   5.871
76521SOL    HW231461   5.788   0.712   5.741
76522SOL     OW31462   7.818   1.008   2.487
76522SOL    HW131463   7.837   1.033   2.577
76522SOL    HW231464   7.877   1.061   2.434
76523SOL     OW31465   8.458   1.265   1.386
76523SOL    HW131466   8.534   1.322   1.369
76523SOL    HW231467   8.424   1.244   1.299
76524SOL     OW31468   7.594   0.819  11.692
76524SOL    HW131469   7.523   0.824  11.756
76524SOL    HW231470   7.585   0.733  11.651
76525SOL     OW31471   8.168   6.258  14.315
76525SOL    HW131472   8.176   6.166  14.289
76525SOL    HW231473   8.085   6.287  14.276
76526SOL     OW31474  14.822  11.387   1.917
76526SOL    HW131475  14.753  11.322   1.924
76526SOL    HW231476   0.014  11.340   1.878
76527SOL     OW31477   5.549   5.902  13.214
76527SOL    HW131478   5.560   5.980  13.160
76527SOL    HW231479   5.488   5.846  13.165
76528SOL     OW31480   8.459   6.278   5.075
76528SOL    HW131481   8.474   6.372   5.068
76528SOL    HW231482   8.423   6.266   5.163
76529SOL     OW31483  13.168   0.235   1.713
76529SOL    HW131484  13.131   0.176   1.779
76529SOL    HW231485  13.111   0.224   1.637
76530SOL     OW31486  11.472  14.801   3.401
76530SOL    HW131487  11.534  14.788   3.472
76530SOL    HW231488  11.427  14.717   3.392
76531SOL     OW31489  10.310  12.998  13.497
76531SOL    HW131490  10.294  13.056  13.572
76531SOL    HW231491  10.339  12.916  13.535
76532SOL     OW31492   1.876   0.831   1.134
76532SOL    HW131493   1.871   0.927   1.137
76532SOL    HW231494   1.879   0.810   1.041
76533SOL     OW31495  10.589  10.508  10.537
76533SOL    HW131496  10.582  10.508  10.442
76533SOL    HW231497  10.672  10.552  10.555
76534SOL     OW31498   1.126   0.242  12.771
76534SOL    HW131499   1.055   0.204  12.720
76534SOL    HW231500   1.122   0.197  12.855
76535SOL     OW31501  13.708   6.543   3.722
76535SOL    HW131502  13.757   6.623   3.704
76535SOL    HW231503  13.708   6.535   3.817
76536SOL     OW31504   8.070  10.274   8.976
76536SOL    HW131505   8.080  10.320   8.892
76536SOL    HW231506   8.116  10.329   9.039
76537SOL     OW31507   8.934   8.490   8.459
76537SOL    HW131508   8.893   8.501   8.373
76537SOL    HW231509   8.907   8.567   8.509
76538SOL     OW31510  11.783   1.318  12.295
76538SOL    HW131511  11.859   1.324  12.353
76538SOL    HW231512  11.772   1.406  12.260
76539SOL     OW31513   1.408   1.027  13.551
76539SOL    HW131514   1.341   0.959  13.561
76539SOL    HW231515   1.486   0.990  13.594
76540SOL     OW31516   9.922   5.510  12.415
76540SOL    HW131517   9.936   5.427  12.369
76540SOL    HW231518   9.851   5.492  12.477
76541SOL     OW31519   2.281   7.373   4.250
76541SOL    HW131520   2.300   7.316   4.175
76541SOL    HW231521   2.367   7.391   4.288
76542SOL     OW31522  12.920   3.482  11.342
76542SOL    HW131523  12.963   3.502  11.259
76542SOL    HW231524  12.899   3.568  11.380
76543SOL     OW31525   0.908   4.348   1.001
76543SOL    HW131526   0.965   4.424   1.013
76543SOL    HW231527   0.819   4.384   1.006
76544SOL     OW31528  13.573   8.064   5.803
76544SOL    HW131529  13.657   8.021   5.820
76544SOL    HW231530  13.552   8.039   5.713
76545SOL     OW31531   9.492   2.512   4.175
76545SOL    HW131532   9.501   2.448   4.105
76545SOL    HW231533   9.404   2.549   4.163
76546SOL     OW31534  12.557   7.845   2.434
76546SOL    HW131535  12.567   7.798   2.350
76546SOL    HW231536  12.505   7.785   2.488
76547SOL     OW31537   4.824   6.785   9.794
76547SOL    HW131538   4.745   6.816   9.750
76547SOL    HW231539   4.831   6.692   9.769
76548SOL     OW31540   4.116   2.891   0.750
76548SOL    HW131541   4.053   2.900   0.821
76548SOL    HW231542   4.135   2.981   0.724
76549SOL     OW31543   4.115  10.513  11.014
76549SOL    HW131544   4.166  10.561  11.079
76549SOL    HW231545   4.090  10.432  11.058
76550SOL     OW31546   2.596   2.127   6.755
76550SOL    HW131547   2.675   2.174   6.730
76550SOL    HW231548   2.529   2.159   6.695
76551SOL     OW31549   5.684   0.100   6.307
76551SOL    HW131550   5.695   0.042   6.382
76551SOL    HW231551   5.714   0.048   6.232
76552SOL     OW31552  14.689   5.486   3.008
76552SOL    HW131553  14.777   5.512   3.034
76552SOL    HW231554  14.657   5.431   3.079
76553SOL     OW31555   8.293   9.094   2.560
76553SOL    HW131556   8.226   9.026   2.556
76553SOL    HW231557   8.246   9.172   2.590
76554SOL     OW31558   8.412  13.908  10.691
76554SOL    HW131559   8.390  13.989  10.645
76554SOL    HW231560   8.506  13.916  10.708
76555SOL     OW31561   7.728  11.133   6.556
76555SOL    HW131562   7.643  11.124   6.514
76555SOL    HW231563   7.789  11.087   6.498
76556SOL     OW31564   7.808   2.628   0.893
76556SOL    HW131565   7.865   2.592   0.825
76556SOL    HW231566   7.852   2.606   0.976
76557SOL     OW31567   9.712  12.218  14.333
76557SOL    HW131568   9.674  12.195  14.248
76557SOL    HW231569   9.773  12.289  14.313
76558SOL     OW31570   3.093   8.982   1.165
76558SOL    HW131571   3.131   9.000   1.079
76558SOL    HW231572   3.142   9.038   1.225
76559SOL     OW31573   0.759  13.197  11.799
76559SOL    HW131574   0.780  13.174  11.890
76559SOL    HW231575   0.819  13.268  11.778
76560SOL     OW31576   2.706   8.901  13.787
76560SOL    HW131577   2.624   8.918  13.833
76560SOL    HW231578   2.710   8.806  13.779
76561SOL     OW31579   7.648   7.094  12.378
76561SOL    HW131580   7.627   7.085  12.471
76561SOL    HW231581   7.734   7.137  12.377
76562SOL     OW31582   6.987  14.475   9.293
76562SOL    HW131583   7.004  14.395   9.342
76562SOL    HW231584   6.929  14.526   9.350
76563SOL     OW31585   0.913   3.229   5.030
76563SOL    HW131586   0.867   3.158   5.074
76563SOL    HW231587   0.955   3.278   5.101
76564SOL     OW31588   4.706  10.673  10.333
76564SOL    HW131589   4.679  10.735  10.266
76564SOL    HW231590   4.669  10.707  10.414
76565SOL     OW31591   3.527  10.812   5.951
76565SOL    HW131592   3.573  10.772   6.025
76565SOL    HW231593   3.536  10.906   5.965
76566SOL     OW31594  11.759   8.400  12.463
76566SOL    HW131595  11.832   8.348  12.430
76566SOL    HW231596  11.763   8.482  12.415
76567SOL     OW31597  14.326   4.765   6.690
76567SOL    HW131598  14.352   4.721   6.770
76567SOL    HW231599  14.237   4.794   6.706
76568SOL     OW31600  11.959   7.805   2.327
76568SOL    HW131601  11.970   7.764   2.241
76568SOL    HW231602  11.908   7.884   2.310
76569SOL     OW31603   1.725   1.401  11.851
76569SOL    HW131604   1.727   1.390  11.756
76569SOL    HW231605   1.672   1.328  11.883
76570SOL     OW31606   8.249  14.186  13.316
76570SOL    HW131607   8.173  14.221  13.269
76570SOL    HW231608   8.247  14.092  13.298
76571SOL     OW31609  13.702   4.681   0.651
76571SOL    HW131610  13.631   4.656   0.592
76571SOL    HW231611  13.696   4.617   0.722
76572SOL     OW31612   8.128   6.818   9.553
76572SOL    HW131613   8.128   6.873   9.474
76572SOL    HW231614   8.196   6.856   9.609
76573SOL     OW31615   6.293   0.313   6.874
76573SOL    HW131616   6.292   0.366   6.954
76573SOL    HW231617   6.373   0.260   6.881
76574SOL     OW31618   4.988  11.506   7.902
76574SOL    HW131619   4.981  11.447   7.977
76574SOL    HW231620   4.902  11.548   7.897
76575SOL     OW31621   4.434  10.295  10.293
76575SOL    HW131622   4.486  10.284  10.373
76575SOL    HW231623   4.357  10.240  10.306
76576SOL     OW31624   5.593  12.359   0.960
76576SOL    HW131625   5.679  12.400   0.956
76576SOL    HW231626   5.565  12.372   1.051
76577SOL     OW31627  12.021   3.652   6.201
76577SOL    HW131628  12.074   3.692   6.270
76577SOL    HW231629  12.068   3.572   6.177
76578SOL     OW31630   0.219  13.354   9.227
76578SOL    HW131631   0.287  13.421   9.230
76578SOL    HW231632   0.258  13.282   9.179
76579SOL     OW31633   6.947   7.074  13.362
76579SOL    HW131634   6.957   6.980  13.375
76579SOL    HW231635   6.880   7.100  13.424
76580SOL     OW31636  10.252  14.533   0.353
76580SOL    HW131637  10.296  14.545   0.268
76580SOL    HW231638  10.195  14.457   0.340
76581SOL     OW31639   4.501  10.584   8.915
76581SOL    HW131640   4.418  10.537   8.909
76581SOL    HW231641   4.515  10.596   9.009
76582SOL     OW31642   7.750   8.570   7.191
76582SOL    HW131643   7.789   8.503   7.135
76582SOL    HW231644   7.675   8.526   7.232
76583SOL     OW31645   4.148   8.122   0.286
76583SOL    HW131646   4.107   8.200   0.247
76583SOL    HW231647   4.153   8.142   0.379
76584SOL     OW31648   2.608   4.000  14.434
76584SOL    HW131649   2.527   3.991  14.385
76584SOL    HW231650   2.601   3.937  14.505
76585SOL     OW31651   9.909  13.730   8.437
76585SOL    HW131652   9.908  13.754   8.344
76585SOL    HW231653   9.870  13.643   8.440
76586SOL     OW31654   4.557  11.460  13.079
76586SOL    HW131655   4.612  11.536  13.060
76586SOL    HW231656   4.617  11.394  13.114
76587SOL     OW31657  10.171   2.999   9.487
76587SOL    HW131658  10.079   2.975   9.502
76587SOL    HW231659  10.216   2.915   9.479
76588SOL     OW31660  10.531  10.740   7.013
76588SOL    HW131661  10.607  10.753   6.956
76588SOL    HW231662  10.456  10.743   6.953
76589SOL     OW31663  12.645   5.218  12.999
76589SOL    HW131664  12.589   5.276  12.947
76589SOL    HW231665  12.600   5.208  13.082
76590SOL     OW31666   1.879  13.474   2.202
76590SOL    HW131667   1.798  13.437   2.168
76590SOL    HW231668   1.945  13.407   2.184
76591SOL     OW31669  14.657   6.794   3.877
76591SOL    HW131670  14.607   6.732   3.823
76591SOL    HW231671  14.748   6.779   3.853
76592SOL     OW31672  14.123   6.518   3.712
76592SOL    HW131673  14.153   6.575   3.641
76592SOL    HW231674  14.177   6.440   3.705
76593SOL     OW31675   8.200   8.739   1.183
76593SOL    HW131676   8.183   8.814   1.239
76593SOL    HW231677   8.182   8.771   1.094
76594SOL     OW31678   2.319   6.132  11.614
76594SOL    HW131679   2.229   6.164  11.608
76594SOL    HW231680   2.353   6.171  11.695
76595SOL     OW31681   9.282   5.187   6.604
76595SOL    HW131682   9.237   5.235   6.535
76595SOL    HW231683   9.257   5.096   6.591
76596SOL     OW31684  11.820  10.081  11.915
76596SOL    HW131685  11.758  10.072  11.843
76596SOL    HW231686  11.890  10.136  11.880
76597SOL     OW31687  11.368   3.349  12.170
76597SOL    HW131688  11.323   3.275  12.127
76597SOL    HW231689  11.459   3.342  12.141
76598SOL     OW31690  11.116   4.574   3.892
76598SOL    HW131691  11.068   4.565   3.974
76598SOL    HW231692  11.149   4.664   3.893
76599SOL     OW31693   0.437   7.668  11.824
76599SOL    HW131694   0.363   7.654  11.882
76599SOL    HW231695   0.509   7.694  11.882
76600SOL     OW31696   9.757   0.645  14.701
76600SOL    HW131697   9.760   0.726  14.649
76600SOL    HW231698   9.681   0.656  14.758
76601SOL     OW31699  12.723   1.528  11.184
76601SOL    HW131700  12.812   1.548  11.155
76601SOL    HW231701  12.686   1.612  11.211
76602SOL     OW31702   7.322  11.950   1.334
76602SOL    HW131703   7.415  11.955   1.355
76602SOL    HW231704   7.280  11.924   1.415
76603SOL     OW31705   8.147   1.070   8.627
76603SOL    HW131706   8.151   1.018   8.708
76603SOL    HW231707   8.058   1.058   8.596
76604SOL     OW31708   6.470   0.716  11.668
76604SOL    HW131709   6.463   0.812  11.674
76604SOL    HW231710   6.415   0.683  11.738
76605SOL     OW31711   3.631   8.490  13.176
76605SOL    HW131712   3.592   8.440  13.248
76605SOL    HW231713   3.633   8.429  13.102
76606SOL     OW31714  10.802  13.547   1.489
76606SOL    HW131715  10.870  13.534   1.423
76606SOL    HW231716  10.721  13.520   1.445
76607SOL     OW31717  12.379   6.636  13.433
76607SOL    HW131718  12.457   6.582  13.445
76607SOL    HW231719  12.361   6.672  13.520
76608SOL     OW31720   4.643   4.127   4.383
76608SOL    HW131721   4.706   4.063   4.351
76608SOL    HW231722   4.698   4.197   4.419
76609SOL     OW31723  10.194   5.024   6.391
76609SOL    HW131724  10.271   4.972   6.415
76609SOL    HW231725  10.206   5.107   6.438
76610SOL     OW31726  13.482   7.782   7.086
76610SOL    HW131727  13.514   7.873   7.092
76610SOL    HW231728  13.536   7.743   7.018
76611SOL     OW31729   7.828   0.439   1.360
76611SOL    HW131730   7.746   0.474   1.394
76611SOL    HW231731   7.839   0.481   1.275
76612SOL     OW31732   0.572  14.351   5.941
76612SOL    HW131733   0.654  14.358   5.989
76612SOL    HW231734   0.527  14.276   5.982
76613SOL     OW31735   8.857  12.153  12.785
76613SOL    HW131736   8.884  12.234  12.740
76613SOL    HW231737   8.761  12.155  12.782
76614SOL     OW31738  10.998   9.480   4.106
76614SOL    HW131739  10.935   9.423   4.150
76614SOL    HW231740  11.004   9.445   4.017
76615SOL     OW31741   6.043   1.426   4.853
76615SOL    HW131742   6.002   1.460   4.773
76615SOL    HW231743   6.103   1.358   4.822
76616SOL     OW31744  11.912   8.666   0.169
76616SOL    HW131745  11.995   8.627   0.196
76616SOL    HW231746  11.872   8.697   0.251
76617SOL     OW31747  12.702  10.057   1.841
76617SOL    HW131748  12.707  10.147   1.875
76617SOL    HW231749  12.658  10.066   1.757
76618SOL     OW31750   3.216  10.617   2.129
76618SOL    HW131751   3.124  10.626   2.102
76618SOL    HW231752   3.245  10.536   2.088
76619SOL     OW31753  13.518   9.487   7.227
76619SOL    HW131754  13.570   9.482   7.147
76619SOL    HW231755  13.581   9.508   7.295
76620SOL     OW31756  11.572  14.338  13.275
76620SOL    HW131757  11.554  14.363  13.185
76620SOL    HW231758  11.486  14.334  13.317
76621SOL     OW31759   3.151   2.842   4.028
76621SOL    HW131760   3.171   2.768   4.085
76621SOL    HW231761   3.230   2.895   4.028
76622SOL     OW31762   7.350   0.021   9.640
76622SOL    HW131763   7.289   0.058   9.577
76622SOL    HW231764   7.434   0.020   9.593
76623SOL     OW31765  14.874  10.771  11.830
76623SOL    HW131766   0.004  10.686  11.873
76623SOL    HW231767   0.077  10.789  11.790
76624SOL     OW31768   9.441  14.106   8.527
76624SOL    HW131769   9.400  14.087   8.612
76624SOL    HW231770   9.387  14.175   8.490
76625SOL     OW31771   4.543  14.235   7.207
76625SOL    HW131772   4.479  14.230   7.136
76625SOL    HW231773   4.506  14.299   7.268
76626SOL     OW31774   3.492   6.269   5.478
76626SOL    HW131775   3.546   6.288   5.401
76626SOL    HW231776   3.515   6.179   5.502
76627SOL     OW31777   4.327   5.643   9.857
76627SOL    HW131778   4.300   5.734   9.863
76627SOL    HW231779   4.256   5.594   9.898
76628SOL     OW31780   1.199   5.379   4.049
76628SOL    HW131781   1.181   5.353   3.959
76628SOL    HW231782   1.140   5.326   4.102
76629SOL     OW31783   5.996  14.750   4.246
76629SOL    HW131784   5.974  14.714   4.160
76629SOL    HW231785   6.009  14.844   4.230
76630SOL     OW31786  14.350   4.695   6.155
76630SOL    HW131787  14.382   4.777   6.117
76630SOL    HW231788  14.362   4.707   6.250
76631SOL     OW31789   7.517  12.672   3.585
76631SOL    HW131790   7.495  12.765   3.591
76631SOL    HW231791   7.457  12.637   3.519
76632SOL     OW31792  13.290   5.002   2.161
76632SOL    HW131793  13.324   5.041   2.242
76632SOL    HW231794  13.367   4.984   2.108
76633SOL     OW31795  11.082   4.578   6.645
76633SOL    HW131796  11.070   4.491   6.682
76633SOL    HW231797  11.064   4.566   6.551
76634SOL     OW31798   9.318  11.586   2.768
76634SOL    HW131799   9.300  11.521   2.699
76634SOL    HW231800   9.340  11.533   2.845
76635SOL     OW31801  10.402   8.165   4.438
76635SOL    HW131802  10.484   8.212   4.453
76635SOL    HW231803  10.425   8.093   4.380
76636SOL     OW31804   2.959   8.469  11.087
76636SOL    HW131805   2.958   8.513  11.002
76636SOL    HW231806   2.996   8.382  11.069
76637SOL     OW31807   8.087  11.676  12.451
76637SOL    HW131808   8.168  11.711  12.488
76637SOL    HW231809   8.107  11.584  12.431
76638SOL     OW31810  13.710  12.956   2.877
76638SOL    HW131811  13.800  12.982   2.855
76638SOL    HW231812  13.719  12.906   2.958
76639SOL     OW31813   3.614  12.610   8.798
76639SOL    HW131814   3.525  12.615   8.763
76639SOL    HW231815   3.669  12.594   8.722
76640SOL     OW31816   0.073   0.726   1.261
76640SOL    HW131817   0.166   0.724   1.282
76640SOL    HW231818   0.029   0.718   1.345
76641SOL     OW31819   4.956  11.001   5.927
76641SOL    HW131820   4.952  11.088   5.966
76641SOL    HW231821   5.050  10.987   5.911
76642SOL     OW31822  11.716   7.773  11.507
76642SOL    HW131823  11.784   7.810  11.564
76642SOL    HW231824  11.723   7.823  11.426
76643SOL     OW31825   5.529   7.036   5.597
76643SOL    HW131826   5.538   6.986   5.678
76643SOL    HW231827   5.542   7.127   5.624
76644SOL     OW31828   3.597   6.858   2.020
76644SOL    HW131829   3.518   6.813   1.989
76644SOL    HW231830   3.637   6.797   2.082
76645SOL     OW31831   9.042  12.576  11.655
76645SOL    HW131832   9.055  12.504  11.717
76645SOL    HW231833   9.098  12.554  11.580
76646SOL     OW31834   0.818  14.462  13.316
76646SOL    HW131835   0.837  14.409  13.393
76646SOL    HW231836   0.766  14.404  13.259
76647SOL     OW31837   5.511  10.832   4.902
76647SOL    HW131838   5.417  10.842   4.887
76647SOL    HW231839   5.541  10.776   4.829
76648SOL     OW31840   2.046   2.424   2.195
76648SOL    HW131841   1.999   2.485   2.138
76648SOL    HW231842   1.986   2.408   2.268
76649SOL     OW31843  14.191   1.172  12.004
76649SOL    HW131844  14.163   1.241  11.943
76649SOL    HW231845  14.232   1.107  11.948
76650SOL     OW31846   0.738  10.628  10.984
76650SOL    HW131847   0.827  10.663  10.982
76650SOL    HW231848   0.746  10.543  11.025
76651SOL     OW31849   1.963  12.073   4.268
76651SOL    HW131850   1.994  12.094   4.357
76651SOL    HW231851   1.878  12.116   4.261
76652SOL     OW31852   0.047   4.612   9.981
76652SOL    HW131853   0.068   4.657   9.900
76652SOL    HW231854   0.130   4.609  10.029
76653SOL     OW31855  14.061   8.360   4.353
76653SOL    HW131856  14.153   8.385   4.347
76653SOL    HW231857  14.047   8.300   4.280
76654SOL     OW31858   8.796   3.129   8.325
76654SOL    HW131859   8.767   3.038   8.328
76654SOL    HW231860   8.892   3.124   8.324
76655SOL     OW31861  13.355   8.317   9.097
76655SOL    HW131862  13.301   8.361   9.162
76655SOL    HW231863  13.311   8.234   9.081
76656SOL     OW31864   0.881   1.608   3.941
76656SOL    HW131865   0.823   1.564   3.879
76656SOL    HW231866   0.845   1.586   4.027
76657SOL     OW31867   3.660  13.166   0.281
76657SOL    HW131868   3.615  13.250   0.270
76657SOL    HW231869   3.734  13.171   0.220
76658SOL     OW31870  13.929  11.367   3.884
76658SOL    HW131871  13.876  11.366   3.964
76658SOL    HW231872  14.016  11.339   3.913
76659SOL     OW31873  10.147   4.739   4.626
76659SOL    HW131874  10.231   4.783   4.614
76659SOL    HW231875  10.170   4.647   4.642
76660SOL     OW31876  13.626   7.797   4.098
76660SOL    HW131877  13.611   7.750   4.181
76660SOL    HW231878  13.604   7.888   4.119
76661SOL     OW31879  11.608  11.297   5.130
76661SOL    HW131880  11.681  11.281   5.071
76661SOL    HW231881  11.602  11.219   5.185
76662SOL     OW31882   8.544   9.971   6.862
76662SOL    HW131883   8.476   9.925   6.813
76662SOL    HW231884   8.625   9.929   6.835
76663SOL     OW31885  13.247  14.510  13.710
76663SOL    HW131886  13.251  14.439  13.774
76663SOL    HW231887  13.337  14.518  13.677
76664SOL     OW31888   3.458  14.070  14.120
76664SOL    HW131889   3.484  14.018  14.044
76664SOL    HW231890   3.364  14.056  14.128
76665SOL     OW31891  14.067  11.269  12.717
76665SOL    HW131892  13.995  11.220  12.678
76665SOL    HW231893  14.042  11.282  12.808
76666SOL     OW31894   1.251   0.481   3.228
76666SOL    HW131895   1.311   0.526   3.169
76666SOL    HW231896   1.282   0.390   3.228
76667SOL     OW31897   5.618  10.204   1.668
76667SOL    HW131898   5.621  10.292   1.703
76667SOL    HW231899   5.582  10.151   1.739
76668SOL     OW31900   1.594  12.307  14.672
76668SOL    HW131901   1.589  12.290  14.766
76668SOL    HW231902   1.587  12.220  14.632
76669SOL     OW31903   1.655   6.827   9.274
76669SOL    HW131904   1.723   6.766   9.303
76669SOL    HW231905   1.585   6.817   9.338
76670SOL     OW31906  11.925   0.150   7.579
76670SOL    HW131907  11.943   0.171   7.487
76670SOL    HW231908  12.000   0.184   7.627
76671SOL     OW31909   4.559   2.540   6.024
76671SOL    HW131910   4.585   2.526   5.933
76671SOL    HW231911   4.476   2.494   6.032
76672SOL     OW31912   1.281   8.969  11.243
76672SOL    HW131913   1.233   8.961  11.325
76672SOL    HW231914   1.212   8.971  11.176
76673SOL     OW31915   6.219   6.551   3.736
76673SOL    HW131916   6.147   6.613   3.734
76673SOL    HW231917   6.238   6.532   3.645
76674SOL     OW31918  13.049   8.592   0.025
76674SOL    HW131919  13.072   8.672   0.072
76674SOL    HW231920  13.000   8.540   0.089
76675SOL     OW31921   4.376   4.025   4.199
76675SOL    HW131922   4.441   3.976   4.250
76675SOL    HW231923   4.427   4.090   4.151
76676SOL     OW31924  11.637   3.914  12.837
76676SOL    HW131925  11.600   4.000  12.816
76676SOL    HW231926  11.563   3.854  12.832
76677SOL     OW31927  14.610   8.583  11.696
76677SOL    HW131928  14.617   8.606  11.789
76677SOL    HW231929  14.517   8.586  11.677
76678SOL     OW31930   7.091  10.035   0.477
76678SOL    HW131931   7.148   9.971   0.435
76678SOL    HW231932   7.062   9.992   0.557
76679SOL     OW31933  10.564  12.615  14.531
76679SOL    HW131934  10.633  12.634  14.595
76679SOL    HW231935  10.611  12.581  14.455
76680SOL     OW31936  12.109  10.253   0.867
76680SOL    HW131937  12.046  10.315   0.904
76680SOL    HW231938  12.057  10.174   0.848
76681SOL     OW31939  10.418   7.840   7.885
76681SOL    HW131940  10.327   7.840   7.916
76681SOL    HW231941  10.418   7.778   7.812
76682SOL     OW31942   3.739  12.683  14.589
76682SOL    HW131943   3.789  12.744  14.644
76682SOL    HW231944   3.756  12.597  14.628
76683SOL     OW31945   1.074  10.900  10.287
76683SOL    HW131946   1.009  10.935  10.348
76683SOL    HW231947   1.026  10.890  10.205
76684SOL     OW31948   2.032  11.041   5.445
76684SOL    HW131949   2.047  10.946   5.444
76684SOL    HW231950   2.088  11.073   5.515
76685SOL     OW31951   5.135   2.802   5.999
76685SOL    HW131952   5.120   2.894   6.023
76685SOL    HW231953   5.047   2.766   5.987
76686SOL     OW31954   4.730  10.457   0.317
76686SOL    HW131955   4.791  10.528   0.336
76686SOL    HW231956   4.781  10.394   0.267
76687SOL     OW31957   2.564   7.121   7.401
76687SOL    HW131958   2.627   7.070   7.351
76687SOL    HW231959   2.537   7.064   7.473
76688SOL     OW31960  10.913   6.873  14.327
76688SOL    HW131961  10.906   6.967  14.316
76688SOL    HW231962  10.894   6.858  14.420
76689SOL     OW31963  14.565   8.535   0.903
76689SOL    HW131964  14.618   8.491   0.970
76689SOL    HW231965  14.561   8.473   0.831
76690SOL     OW31966   9.721   4.584   4.691
76690SOL    HW131967   9.632   4.618   4.698
76690SOL    HW231968   9.775   4.661   4.673
76691SOL     OW31969   1.954   7.846   6.381
76691SOL    HW131970   1.894   7.920   6.396
76691SOL    HW231971   1.923   7.778   6.440
76692SOL     OW31972   0.184   5.192   6.310
76692SOL    HW131973   0.199   5.201   6.216
76692SOL    HW231974   0.107   5.246   6.327
76693SOL     OW31975  13.750   4.529   5.211
76693SOL    HW131976  13.658   4.528   5.184
76693SOL    HW231977  13.787   4.606   5.167
76694SOL     OW31978   9.469  12.716   1.847
76694SOL    HW131979   9.478  12.636   1.795
76694SOL    HW231980   9.378  12.714   1.877
76695SOL     OW31981  13.867  11.516  13.371
76695SOL    HW131982  13.836  11.516  13.281
76695SOL    HW231983  13.933  11.447  13.374
76696SOL     OW31984  11.852   2.414   0.762
76696SOL    HW131985  11.822   2.352   0.829
76696SOL    HW231986  11.773   2.432   0.710
76697SOL     OW31987   8.305   2.078  10.616
76697SOL    HW131988   8.395   2.078  10.647
76697SOL    HW231989   8.279   1.986  10.616
76698SOL     OW31990   9.435   7.449   5.102
76698SOL    HW131991   9.445   7.423   5.194
76698SOL    HW231992   9.461   7.371   5.052
76699SOL     OW31993  10.749   9.035   8.298
76699SOL    HW131994  10.694   9.029   8.220
76699SOL    HW231995  10.700   8.988   8.366
76700SOL     OW31996   6.233   1.081  12.071
76700SOL    HW131997   6.272   1.024  12.004
76700SOL    HW231998   6.199   1.021  12.137
76701SOL     OW31999   8.800   3.388  10.632
76701SOL    HW132000   8.868   3.333  10.671
76701SOL    HW232001   8.818   3.476  10.664
76702SOL     OW32002   1.916   3.996  12.368
76702SOL    HW132003   1.886   3.934  12.302
76702SOL    HW232004   1.926   4.079  12.321
76703SOL     OW32005  14.648  14.278   1.820
76703SOL    HW132006  14.714  14.340   1.851
76703SOL    HW232007  14.677  14.255   1.731
76704SOL     OW32008   4.362  13.947  12.293
76704SOL    HW132009   4.432  13.986  12.241
76704SOL    HW232010   4.341  14.014  12.358
76705SOL     OW32011  13.781  13.501  11.867
76705SOL    HW132012  13.817  13.515  11.955
76705SOL    HW232013  13.688  13.521  11.876
76706SOL     OW32014   4.287   7.246  12.684
76706SOL    HW132015   4.214   7.194  12.716
76706SOL    HW232016   4.247   7.321  12.641
76707SOL     OW32017   0.827  13.460  13.537
76707SOL    HW132018   0.909  13.496  13.501
76707SOL    HW232019   0.818  13.374  13.495
76708SOL     OW32020  10.739   7.928   7.068
76708SOL    HW132021  10.731   8.016   7.032
76708SOL    HW232022  10.701   7.935   7.156
76709SOL     OW32023   4.231  14.652   8.414
76709SOL    HW132024   4.266  14.737   8.442
76709SOL    HW232025   4.207  14.666   8.323
76710SOL     OW32026   5.635   7.154   8.815
76710SOL    HW132027   5.678   7.082   8.770
76710SOL    HW232028   5.680   7.160   8.900
76711SOL     OW32029   9.915   3.655   2.129
76711SOL    HW132030   9.911   3.600   2.207
76711SOL    HW232031  10.008   3.658   2.106
76712SOL     OW32032   8.665   2.611  10.127
76712SOL    HW132033   8.667   2.703  10.156
76712SOL    HW232034   8.674   2.561  10.208
76713SOL     OW32035   7.390   9.541   6.750
76713SOL    HW132036   7.365   9.567   6.662
76713SOL    HW232037   7.405   9.623   6.797
76714SOL     OW32038   8.827   1.738  12.533
76714SOL    HW132039   8.813   1.653  12.492
76714SOL    HW232040   8.759   1.794  12.495
76715SOL     OW32041   3.095  12.126   6.272
76715SOL    HW132042   3.125  12.156   6.358
76715SOL    HW232043   3.174  12.126   6.218
76716SOL     OW32044   4.631   2.310  12.088
76716SOL    HW132045   4.610   2.217  12.095
76716SOL    HW232046   4.546   2.353  12.075
76717SOL     OW32047   8.229  12.683   0.701
76717SOL    HW132048   8.205  12.774   0.682
76717SOL    HW232049   8.261  12.685   0.791
76718SOL     OW32050   8.929  13.262  10.335
76718SOL    HW132051   8.987  13.232  10.405
76718SOL    HW232052   8.840  13.247  10.370
76719SOL     OW32053  12.009   7.959   3.762
76719SOL    HW132054  11.939   7.937   3.700
76719SOL    HW232055  12.036   8.047   3.738
76720SOL     OW32056   3.524   3.603   1.831
76720SOL    HW132057   3.478   3.664   1.889
76720SOL    HW232058   3.587   3.559   1.887
76721SOL     OW32059   8.570   9.896  10.040
76721SOL    HW132060   8.627   9.821  10.056
76721SOL    HW232061   8.628   9.964  10.007
76722SOL     OW32062   8.091   4.862   0.153
76722SOL    HW132063   8.162   4.810   0.190
76722SOL    HW232064   8.094   4.945   0.201
76723SOL     OW32065  10.050   2.841   8.889
76723SOL    HW132066  10.074   2.797   8.970
76723SOL    HW232067   9.959   2.817   8.874
76724SOL     OW32068   8.948   5.261   2.018
76724SOL    HW132069   8.914   5.185   2.065
76724SOL    HW232070   9.039   5.239   1.999
76725SOL     OW32071   3.583  14.113   5.202
76725SOL    HW132072   3.544  14.178   5.260
76725SOL    HW232073   3.630  14.165   5.136
76726SOL     OW32074   4.014  10.262   7.877
76726SOL    HW132075   4.069  10.308   7.940
76726SOL    HW232076   3.929  10.307   7.882
76727SOL     OW32077   2.783   1.085   5.508
76727SOL    HW132078   2.867   1.040   5.500
76727SOL    HW232079   2.802   1.177   5.489
76728SOL     OW32080  13.818   9.082   5.002
76728SOL    HW132081  13.841   9.164   5.045
76728SOL    HW232082  13.735   9.056   5.043
76729SOL     OW32083   1.409   4.725   1.674
76729SOL    HW132084   1.472   4.686   1.612
76729SOL    HW232085   1.351   4.654   1.697
76730SOL     OW32086  12.075   4.158   9.074
76730SOL    HW132087  12.117   4.171   9.159
76730SOL    HW232088  11.983   4.141   9.095
76731SOL     OW32089   2.473   1.144  14.814
76731SOL    HW132090   2.543   1.177  14.870
76731SOL    HW232091   2.401   1.125  14.874
76732SOL     OW32092   4.727   9.680  10.144
76732SOL    HW132093   4.821   9.663  10.133
76732SOL    HW232094   4.723   9.749  10.210
76733SOL     OW32095   7.416   0.269  12.290
76733SOL    HW132096   7.467   0.190  12.307
76733SOL    HW232097   7.328   0.237  12.272
76734SOL     OW32098  13.788   1.198   6.031
76734SOL    HW132099  13.723   1.262   6.001
76734SOL    HW232100  13.762   1.116   5.990
76735SOL     OW32101  13.579   3.454  11.073
76735SOL    HW132102  13.547   3.466  10.984
76735SOL    HW232103  13.603   3.361  11.078
76736SOL     OW32104   6.759   4.365  12.511
76736SOL    HW132105   6.672   4.365  12.552
76736SOL    HW232106   6.744   4.395  12.422
76737SOL     OW32107   7.323  12.072  11.641
76737SOL    HW132108   7.352  12.047  11.728
76737SOL    HW232109   7.334  12.167  11.637
76738SOL     OW32110   6.053   4.877   0.415
76738SOL    HW132111   6.034   4.816   0.486
76738SOL    HW232112   6.039   4.825   0.335
76739SOL     OW32113   4.347   8.584   8.030
76739SOL    HW132114   4.327   8.611   7.941
76739SOL    HW232115   4.307   8.651   8.085
76740SOL     OW32116   6.776  10.209  14.002
76740SOL    HW132117   6.708  10.229  14.066
76740SOL    HW232118   6.730  10.204  13.919
76741SOL     OW32119  10.155  11.710  14.079
76741SOL    HW132120  10.115  11.681  14.162
76741SOL    HW232121  10.111  11.658  14.012
76742SOL     OW32122   1.685   7.182   2.016
76742SOL    HW132123   1.749   7.114   2.037
76742SOL    HW232124   1.626   7.184   2.091
76743SOL     OW32125  11.562   5.993   0.997
76743SOL    HW132126  11.606   5.960   0.919
76743SOL    HW232127  11.496   5.927   1.018
76744SOL     OW32128  14.406   9.824   4.706
76744SOL    HW132129  14.480   9.776   4.743
76744SOL    HW232130  14.447   9.889   4.649
76745SOL     OW32131  13.766  11.116  13.325
76745SOL    HW132132  13.687  11.170  13.318
76745SOL    HW232133  13.818  11.158  13.394
76746SOL     OW32134  11.061   7.370   8.037
76746SOL    HW132135  11.036   7.440   7.976
76746SOL    HW232136  11.017   7.392   8.118
76747SOL     OW32137   6.179   7.924   3.869
76747SOL    HW132138   6.275   7.924   3.867
76747SOL    HW232139   6.154   7.982   3.797
76748SOL     OW32140   7.538  12.079   4.486
76748SOL    HW132141   7.549  12.159   4.539
76748SOL    HW232142   7.477  12.026   4.537
76749SOL     OW32143   8.387   2.523  14.180
76749SOL    HW132144   8.352   2.565  14.258
76749SOL    HW232145   8.319   2.462  14.153
76750SOL     OW32146   6.270   3.283   5.950
76750SOL    HW132147   6.176   3.262   5.953
76750SOL    HW232148   6.287   3.301   5.858
76751SOL     OW32149  13.627   1.280   0.060
76751SOL    HW132150  13.534   1.258   0.065
76751SOL    HW232151  13.666   1.232   0.133
76752SOL     OW32152  11.806   6.701  14.147
76752SOL    HW132153  11.755   6.753  14.209
76752SOL    HW232154  11.897   6.713  14.175
76753SOL     OW32155  12.102   5.062   0.602
76753SOL    HW132156  12.165   5.018   0.658
76753SOL    HW232157  12.020   5.014   0.615
76754SOL     OW32158  14.638   2.017   8.274
76754SOL    HW132159  14.631   2.112   8.263
76754SOL    HW232160  14.547   1.987   8.279
76755SOL     OW32161   8.405  11.768  10.432
76755SOL    HW132162   8.323  11.742  10.473
76755SOL    HW232163   8.386  11.769  10.338
76756SOL     OW32164   6.367   3.619  14.235
76756SOL    HW132165   6.301   3.551  14.222
76756SOL    HW232166   6.328   3.698  14.197
76757SOL     OW32167  11.996  12.257   2.148
76757SOL    HW132168  12.000  12.268   2.053
76757SOL    HW232169  11.905  12.275   2.171
76758SOL     OW32170   9.762   7.700  14.700
76758SOL    HW132171   9.809   7.663  14.624
76758SOL    HW232172   9.721   7.780  14.666
76759SOL     OW32173  10.189  10.137  13.661
76759SOL    HW132174  10.224  10.223  13.684
76759SOL    HW232175  10.097  10.140  13.686
76760SOL     OW32176   8.303  12.272   1.306
76760SOL    HW132177   8.306  12.366   1.320
76760SOL    HW232178   8.370  12.255   1.239
76761SOL     OW32179  11.519   4.732   6.259
76761SOL    HW132180  11.455   4.783   6.307
76761SOL    HW232181  11.584   4.707   6.326
76762SOL     OW32182  12.893   7.141  12.274
76762SOL    HW132183  12.853   7.150  12.187
76762SOL    HW232184  12.987   7.139  12.258
76763SOL     OW32185  10.894   9.170   9.535
76763SOL    HW132186  10.890   9.206   9.446
76763SOL    HW232187  10.986   9.174   9.559
76764SOL     OW32188   6.803  12.474   3.902
76764SOL    HW132189   6.802  12.388   3.944
76764SOL    HW232190   6.739  12.466   3.831
76765SOL     OW32191   0.403  10.202   5.995
76765SOL    HW132192   0.445  10.129   6.041
76765SOL    HW232193   0.335  10.161   5.942
76766SOL     OW32194   7.081   4.406  11.736
76766SOL    HW132195   7.041   4.352  11.804
76766SOL    HW232196   7.011   4.421  11.673
76767SOL     OW32197   9.788   8.004   3.390
76767SOL    HW132198   9.850   8.076   3.391
76767SOL    HW232199   9.726   8.027   3.321
76768SOL     OW32200   3.950  10.011   1.260
76768SOL    HW132201   3.903   9.981   1.338
76768SOL    HW232202   4.024   9.951   1.252
76769SOL     OW32203   6.926  13.695   8.657
76769SOL    HW132204   6.991  13.650   8.603
76769SOL    HW232205   6.860  13.628   8.677
76770SOL     OW32206   8.665  12.900   2.319
76770SOL    HW132207   8.682  12.850   2.399
76770SOL    HW232208   8.570  12.896   2.308
76771SOL     OW32209   4.189   6.128   8.969
76771SOL    HW132210   4.257   6.135   8.902
76771SOL    HW232211   4.152   6.216   8.974
76772SOL     OW32212   4.443   1.879  12.767
76772SOL    HW132213   4.532   1.914  12.771
76772SOL    HW232214   4.435   1.825  12.846
76773SOL     OW32215  13.469   3.240   9.787
76773SOL    HW132216  13.392   3.227   9.732
76773SOL    HW232217  13.469   3.166   9.847
76774SOL     OW32218  12.247   8.739   9.708
76774SOL    HW132219  12.326   8.719   9.759
76774SOL    HW232220  12.279   8.753   9.619
76775SOL     OW32221  14.674  10.375  14.748
76775SOL    HW132222  14.749  10.431  14.764
76775SOL    HW232223  14.706  10.286  14.764
76776SOL     OW32224   0.766  13.195   5.093
76776SOL    HW132225   0.693  13.179   5.034
76776SOL    HW232226   0.792  13.108   5.124
76777SOL     OW32227  13.210   9.302   2.882
76777SOL    HW132228  13.273   9.299   2.810
76777SOL    HW232229  13.168   9.216   2.880
76778SOL     OW32230   8.543   6.677   7.950
76778SOL    HW132231   8.572   6.587   7.937
76778SOL    HW232232   8.448   6.671   7.960
76779SOL     OW32233  11.926  12.840   7.238
76779SOL    HW132234  11.837  12.808   7.231
76779SOL    HW232235  11.960  12.834   7.148
76780SOL     OW32236   0.464   2.893  12.369
76780SOL    HW132237   0.526   2.878  12.440
76780SOL    HW232238   0.382   2.916  12.412
76781SOL     OW32239  11.704   9.656  12.900
76781SOL    HW132240  11.674   9.581  12.849
76781SOL    HW232241  11.776   9.692  12.850
76782SOL     OW32242   9.160   5.752  11.809
76782SOL    HW132243   9.178   5.747  11.715
76782SOL    HW232244   9.117   5.669  11.830
76783SOL     OW32245   1.257   7.983   3.217
76783SOL    HW132246   1.307   8.048   3.266
76783SOL    HW232247   1.320   7.912   3.200
76784SOL     OW32248   7.461   5.164   3.763
76784SOL    HW132249   7.437   5.083   3.808
76784SOL    HW232250   7.382   5.218   3.768
76785SOL     OW32251   3.714  14.396  13.103
76785SOL    HW132252   3.688  14.468  13.045
76785SOL    HW232253   3.654  14.401  13.177
76786SOL     OW32254   8.091  14.611  10.990
76786SOL    HW132255   8.069  14.664  10.913
76786SOL    HW232256   8.026  14.635  11.055
76787SOL     OW32257   3.508   3.114   6.629
76787SOL    HW132258   3.585   3.076   6.586
76787SOL    HW232259   3.475   3.177   6.566
76788SOL     OW32260  13.377  12.339   6.490
76788SOL    HW132261  13.392  12.248   6.516
76788SOL    HW232262  13.452  12.386   6.526
76789SOL     OW32263  13.858   5.375   8.062
76789SOL    HW132264  13.843   5.439   7.993
76789SOL    HW232265  13.949   5.349   8.052
76790SOL     OW32266   7.972   8.455  12.930
76790SOL    HW132267   7.934   8.380  12.884
76790SOL    HW232268   8.016   8.506  12.862
76791SOL     OW32269   7.968  12.432  12.831
76791SOL    HW132270   7.883  12.449  12.870
76791SOL    HW232271   7.977  12.337  12.833
76792SOL     OW32272  14.829   0.644   6.078
76792SOL    HW132273  14.849   0.661   6.170
76792SOL    HW232274  14.809   0.731   6.042
76793SOL     OW32275   5.386   2.719   7.341
76793SOL    HW132276   5.344   2.642   7.301
76793SOL    HW232277   5.347   2.793   7.295
76794SOL     OW32278  10.931  10.629  12.984
76794SOL    HW132279  10.941  10.541  12.949
76794SOL    HW232280  10.836  10.637  13.000
76795SOL     OW32281  14.469   4.928   5.110
76795SOL    HW132282  14.513   4.913   5.026
76795SOL    HW232283  14.442   5.020   5.107
76796SOL     OW32284  12.680  11.885  10.687
76796SOL    HW132285  12.590  11.909  10.665
76796SOL    HW232286  12.713  11.960  10.736
76797SOL     OW32287   9.866   9.880   5.508
76797SOL    HW132288   9.864   9.975   5.508
76797SOL    HW232289   9.794   9.854   5.565
76798SOL     OW32290   8.036   0.701   7.027
76798SOL    HW132291   8.082   0.657   6.955
76798SOL    HW232292   7.943   0.687   7.008
76799SOL     OW32293   4.152   9.125  14.770
76799SOL    HW132294   4.070   9.137  14.819
76799SOL    HW232295   4.194   9.050  14.813
76800SOL     OW32296   1.038   2.464   4.582
76800SOL    HW132297   1.089   2.385   4.560
76800SOL    HW232298   1.026   2.509   4.498
76801SOL     OW32299   4.094   1.286   3.521
76801SOL    HW132300   4.182   1.299   3.487
76801SOL    HW232301   4.036   1.327   3.457
76802SOL     OW32302  12.528   2.653   6.905
76802SOL    HW132303  12.590   2.726   6.913
76802SOL    HW232304  12.486   2.667   6.820
76803SOL     OW32305   6.277   2.719   8.425
76803SOL    HW132306   6.209   2.702   8.490
76803SOL    HW232307   6.230   2.749   8.347
76804SOL     OW32308  10.755  11.410   2.093
76804SOL    HW132309  10.797  11.324   2.104
76804SOL    HW232310  10.792  11.445   2.012
76805SOL     OW32311   2.584   5.677   5.717
76805SOL    HW132312   2.542   5.591   5.711
76805SOL    HW232313   2.655   5.674   5.654
76806SOL     OW32314   7.930  13.167   9.940
76806SOL    HW132315   7.904  13.077   9.920
76806SOL    HW232316   8.023  13.171   9.916
76807SOL     OW32317   7.277   7.893  11.379
76807SOL    HW132318   7.247   7.818  11.328
76807SOL    HW232319   7.247   7.876  11.468
76808SOL     OW32320   0.812   2.232   1.136
76808SOL    HW132321   0.833   2.263   1.224
76808SOL    HW232322   0.897   2.217   1.095
76809SOL     OW32323  13.909   8.188  10.569
76809SOL    HW132324  13.881   8.274  10.538
76809SOL    HW232325  13.860   8.126  10.514
76810SOL     OW32326  13.278   7.843  13.696
76810SOL    HW132327  13.250   7.931  13.672
76810SOL    HW232328  13.222   7.819  13.770
76811SOL     OW32329   1.247   6.935   4.375
76811SOL    HW132330   1.275   6.942   4.466
76811SOL    HW232331   1.297   7.003   4.329
76812SOL     OW32332   5.316   6.845   7.523
76812SOL    HW132333   5.399   6.884   7.496
76812SOL    HW232334   5.280   6.907   7.587
76813SOL     OW32335   3.559   5.378   1.353
76813SOL    HW132336   3.652   5.354   1.354
76813SOL    HW232337   3.558   5.469   1.383
76814SOL     OW32338   4.592  12.022   4.790
76814SOL    HW132339   4.570  12.000   4.881
76814SOL    HW232340   4.566  11.946   4.739
76815SOL     OW32341   4.897  14.217   5.004
76815SOL    HW132342   4.880  14.180   5.090
76815SOL    HW232343   4.912  14.141   4.947
76816SOL     OW32344   6.645   5.499  12.479
76816SOL    HW132345   6.723   5.516  12.426
76816SOL    HW232346   6.604   5.423  12.438
76817SOL     OW32347   2.543  10.656   2.837
76817SOL    HW132348   2.577  10.686   2.752
76817SOL    HW232349   2.547  10.561   2.832
76818SOL     OW32350   1.461   9.373   0.189
76818SOL    HW132351   1.428   9.376   0.099
76818SOL    HW232352   1.494   9.461   0.205
76819SOL     OW32353   2.335   6.904   8.130
76819SOL    HW132354   2.309   6.937   8.044
76819SOL    HW232355   2.297   6.817   8.135
76820SOL     OW32356  14.321   6.209   4.311
76820SOL    HW132357  14.287   6.143   4.250
76820SOL    HW232358  14.406   6.233   4.274
76821SOL     OW32359   2.189  12.717   0.814
76821SOL    HW132360   2.178  12.751   0.902
76821SOL    HW232361   2.281  12.691   0.810
76822SOL     OW32362   9.980   6.038   5.824
76822SOL    HW132363   9.973   6.046   5.729
76822SOL    HW232364   9.947   5.951   5.844
76823SOL     OW32365  13.730  14.495   6.484
76823SOL    HW132366  13.640  14.518   6.462
76823SOL    HW232367  13.742  14.526   6.574
76824SOL     OW32368  12.710   1.520   4.003
76824SOL    HW132369  12.753   1.604   3.984
76824SOL    HW232370  12.672   1.493   3.920
76825SOL     OW32371  14.025   4.565  14.839
76825SOL    HW132372  14.094   4.563   0.024
76825SOL    HW232373  14.060   4.622  14.770
76826SOL     OW32374   7.035   2.648   6.766
76826SOL    HW132375   7.055   2.592   6.841
76826SOL    HW232376   7.047   2.737   6.800
76827SOL     OW32377   3.113  14.124   3.368
76827SOL    HW132378   3.112  14.182   3.444
76827SOL    HW232379   3.205  14.122   3.340
76828SOL     OW32380   7.770   6.481   9.084
76828SOL    HW132381   7.811   6.397   9.065
76828SOL    HW232382   7.802   6.505   9.171
76829SOL     OW32383   2.198   3.028   7.731
76829SOL    HW132384   2.160   3.045   7.645
76829SOL    HW232385   2.155   2.948   7.761
76830SOL     OW32386   2.899   4.886  13.197
76830SOL    HW132387   2.914   4.796  13.226
76830SOL    HW232388   2.836   4.920  13.260
76831SOL     OW32389  11.376   4.798   2.425
76831SOL    HW132390  11.307   4.854   2.388
76831SOL    HW232391  11.351   4.709   2.400
76832SOL     OW32392   3.836  10.757   0.029
76832SOL    HW132393   3.911  10.726   0.081
76832SOL    HW232394   3.774  10.685   0.032
76833SOL     OW32395   0.580   7.863   9.100
76833SOL    HW132396   0.578   7.927   9.029
76833SOL    HW232397   0.536   7.907   9.173
76834SOL     OW32398  12.338   3.700   4.587
76834SOL    HW132399  12.363   3.714   4.496
76834SOL    HW232400  12.305   3.611   4.590
76835SOL     OW32401   5.339   5.338   4.272
76835SOL    HW132402   5.324   5.400   4.200
76835SOL    HW232403   5.434   5.338   4.284
76836SOL     OW32404   8.106  10.691  12.669
76836SOL    HW132405   8.035  10.728  12.722
76836SOL    HW232406   8.067  10.679  12.583
76837SOL     OW32407   4.703   6.182  14.001
76837SOL    HW132408   4.658   6.213  14.080
76837SOL    HW232409   4.697   6.087  14.005
76838SOL     OW32410   9.822   7.283   1.286
76838SOL    HW132411   9.817   7.216   1.354
76838SOL    HW232412   9.741   7.333   1.297
76839SOL     OW32413   7.421   3.781  12.982
76839SOL    HW132414   7.395   3.866  12.947
76839SOL    HW232415   7.393   3.783  13.074
76840SOL     OW32416   2.410   8.338  10.757
76840SOL    HW132417   2.460   8.357  10.837
76840SOL    HW232418   2.404   8.422  10.712
76841SOL     OW32419  13.752   2.372   1.782
76841SOL    HW132420  13.740   2.406   1.871
76841SOL    HW232421  13.672   2.322   1.765
76842SOL     OW32422   3.788   0.996  12.306
76842SOL    HW132423   3.839   0.915  12.298
76842SOL    HW232424   3.837   1.048  12.370
76843SOL     OW32425   9.217  12.353   6.051
76843SOL    HW132426   9.236  12.312   6.136
76843SOL    HW232427   9.291  12.411   6.035
76844SOL     OW32428   4.712   4.743  14.504
76844SOL    HW132429   4.706   4.823  14.556
76844SOL    HW232430   4.739   4.676  14.567
76845SOL     OW32431  13.538  14.706   9.835
76845SOL    HW132432  13.493  14.641   9.781
76845SOL    HW232433  13.472  14.731   9.900
76846SOL     OW32434  12.608   3.792   2.178
76846SOL    HW132435  12.704   3.789   2.184
76846SOL    HW232436  12.579   3.794   2.269
76847SOL     OW32437   4.159   6.025   6.081
76847SOL    HW132438   4.141   6.082   6.155
76847SOL    HW232439   4.208   6.080   6.020
76848SOL     OW32440   7.526   9.967   0.510
76848SOL    HW132441   7.495   9.991   0.597
76848SOL    HW232442   7.601   9.909   0.526
76849SOL     OW32443   6.347   4.417   9.700
76849SOL    HW132444   6.434   4.452   9.681
76849SOL    HW232445   6.359   4.361   9.776
76850SOL     OW32446   4.092  10.569   5.333
76850SOL    HW132447   4.132  10.583   5.247
76850SOL    HW232448   4.155  10.514   5.380
76851SOL     OW32449   8.549  11.010   8.039
76851SOL    HW132450   8.616  11.006   7.971
76851SOL    HW232451   8.476  11.057   7.999
76852SOL     OW32452   7.942   8.074  10.034
76852SOL    HW132453   7.857   8.113  10.014
76852SOL    HW232454   7.982   8.058   9.948
76853SOL     OW32455   3.051   3.352  12.036
76853SOL    HW132456   2.975   3.371  11.981
76853SOL    HW232457   3.123   3.398  11.993
76854SOL     OW32458  14.524   2.056   3.081
76854SOL    HW132459  14.504   1.988   3.146
76854SOL    HW232460  14.539   2.134   3.134
76855SOL     OW32461   7.233   2.164   3.863
76855SOL    HW132462   7.234   2.179   3.768
76855SOL    HW232463   7.145   2.190   3.890
76856SOL     OW32464   9.512  14.849  13.548
76856SOL    HW132465   9.427  14.827  13.585
76856SOL    HW232466   9.549  14.766  13.519
76857SOL     OW32467   2.940   5.443   0.308
76857SOL    HW132468   3.026   5.408   0.331
76857SOL    HW232469   2.903   5.473   0.391
76858SOL     OW32470  11.262   8.075   2.764
76858SOL    HW132471  11.283   7.982   2.765
76858SOL    HW232472  11.169   8.079   2.783
76859SOL     OW32473   7.768  13.967   7.651
76859SOL    HW132474   7.798  13.969   7.742
76859SOL    HW232475   7.698  13.902   7.650
76860SOL     OW32476  13.303   3.106  14.659
76860SOL    HW132477  13.222   3.075  14.618
76860SOL    HW232478  13.279   3.189  14.700
76861SOL     OW32479   5.468  12.832   3.809
76861SOL    HW132480   5.470  12.753   3.756
76861SOL    HW232481   5.385  12.826   3.857
76862SOL     OW32482   3.713   7.776   1.098
76862SOL    HW132483   3.729   7.854   1.045
76862SOL    HW232484   3.684   7.710   1.034
76863SOL     OW32485   7.987   6.867   8.715
76863SOL    HW132486   8.040   6.846   8.792
76863SOL    HW232487   7.979   6.785   8.667
76864SOL     OW32488   7.666   0.164  10.329
76864SOL    HW132489   7.701   0.093  10.383
76864SOL    HW232490   7.573   0.143  10.319
76865SOL     OW32491   0.020   2.751   5.066
76865SOL    HW132492   0.091   2.805   5.030
76865SOL    HW232493  14.863   2.804   5.134
76866SOL     OW32494  13.724  12.491   2.553
76866SOL    HW132495  13.638  12.480   2.592
76866SOL    HW232496  13.707  12.500   2.459
76867SOL     OW32497   3.970  12.453  11.195
76867SOL    HW132498   4.009  12.406  11.270
76867SOL    HW232499   4.042  12.460  11.132
76868SOL     OW32500  10.675   8.982   7.655
76868SOL    HW132501  10.709   8.919   7.719
76868SOL    HW232502  10.581   8.984   7.672
76869SOL     OW32503  11.382   2.881  14.134
76869SOL    HW132504  11.302   2.933  14.130
76869SOL    HW232505  11.432   2.921  14.205
76870SOL     OW32506  13.052  14.685   8.125
76870SOL    HW132507  13.111  14.668   8.052
76870SOL    HW232508  13.085  14.766   8.164
76871SOL     OW32509   9.715   9.869   8.828
76871SOL    HW132510   9.730   9.856   8.734
76871SOL    HW232511   9.740   9.786   8.868
76872SOL     OW32512   9.674  13.454  11.243
76872SOL    HW132513   9.767  13.469  11.232
76872SOL    HW232514   9.655  13.481  11.333
76873SOL     OW32515  13.585   0.939   0.183
76873SOL    HW132516  13.497   0.936   0.145
76873SOL    HW232517  13.601   0.849   0.212
76874SOL     OW32518  12.788   3.005  11.086
76874SOL    HW132519  12.835   2.956  11.154
76874SOL    HW232520  12.711   3.039  11.131
76875SOL     OW32521  14.360   2.625   7.345
76875SOL    HW132522  14.379   2.532   7.357
76875SOL    HW232523  14.436   2.671   7.380
76876SOL     OW32524   0.968  10.476   2.824
76876SOL    HW132525   1.037  10.431   2.777
76876SOL    HW232526   0.955  10.425   2.904
76877SOL     OW32527   6.716   2.579   6.467
76877SOL    HW132528   6.748   2.666   6.490
76877SOL    HW232529   6.763   2.519   6.525
76878SOL     OW32530   6.352  11.023   4.996
76878SOL    HW132531   6.346  10.934   5.030
76878SOL    HW232532   6.442  11.031   4.967
76879SOL     OW32533   3.681   5.350   9.445
76879SOL    HW132534   3.648   5.263   9.422
76879SOL    HW232535   3.615   5.386   9.504
76880SOL     OW32536   3.821  14.030   4.504
76880SOL    HW132537   3.800  14.089   4.431
76880SOL    HW232538   3.871  13.959   4.464
76881SOL     OW32539   9.555   6.777   6.249
76881SOL    HW132540   9.619   6.843   6.273
76881SOL    HW232541   9.589   6.738   6.168
76882SOL     OW32542   5.403   0.862   2.160
76882SOL    HW132543   5.337   0.875   2.092
76882SOL    HW232544   5.359   0.807   2.225
76883SOL     OW32545   5.112   4.576  12.294
76883SOL    HW132546   5.103   4.591  12.388
76883SOL    HW232547   5.045   4.632  12.254
76884SOL     OW32548  14.399   7.714  11.262
76884SOL    HW132549  14.455   7.756  11.327
76884SOL    HW232550  14.376   7.629  11.301
76885SOL     OW32551   4.289   2.518  11.593
76885SOL    HW132552   4.290   2.572  11.514
76885SOL    HW232553   4.230   2.446  11.572
76886SOL     OW32554   0.365   3.479   3.471
76886SOL    HW132555   0.283   3.529   3.474
76886SOL    HW232556   0.355   3.413   3.539
76887SOL     OW32557   7.023   8.155   0.409
76887SOL    HW132558   7.059   8.224   0.465
76887SOL    HW232559   7.092   8.089   0.406
76888SOL     OW32560   0.745   4.065  13.561
76888SOL    HW132561   0.764   3.981  13.602
76888SOL    HW232562   0.702   4.117  13.629
76889SOL     OW32563  13.484   3.935   3.453
76889SOL    HW132564  13.518   3.874   3.519
76889SOL    HW232565  13.412   3.887   3.411
76890SOL     OW32566   1.082   8.401  14.832
76890SOL    HW132567   1.121   8.459   0.016
76890SOL    HW232568   1.064   8.458  14.758
76891SOL     OW32569   4.011   5.822   9.627
76891SOL    HW132570   4.077   5.829   9.695
76891SOL    HW232571   4.023   5.901   9.573
76892SOL     OW32572   5.913   6.927  11.050
76892SOL    HW132573   5.841   6.940  10.989
76892SOL    HW232574   5.893   6.845  11.094
76893SOL     OW32575   2.377   9.468   9.735
76893SOL    HW132576   2.363   9.434   9.646
76893SOL    HW232577   2.352   9.396   9.792
76894SOL     OW32578   3.597   4.382   8.343
76894SOL    HW132579   3.663   4.410   8.406
76894SOL    HW232580   3.528   4.448   8.349
76895SOL     OW32581   9.909   1.071   7.892
76895SOL    HW132582   9.876   1.001   7.949
76895SOL    HW232583   9.908   1.149   7.948
76896SOL     OW32584   0.656  11.463   2.788
76896SOL    HW132585   0.565  11.443   2.765
76896SOL    HW232586   0.683  11.390   2.843
76897SOL     OW32587   7.046   4.025  13.112
76897SOL    HW132588   7.010   4.081  13.181
76897SOL    HW232589   6.987   3.950  13.109
76898SOL     OW32590  11.612   8.070   8.619
76898SOL    HW132591  11.526   8.100   8.591
76898SOL    HW232592  11.605   7.975   8.619
76899SOL     OW32593   4.763   2.554  14.059
76899SOL    HW132594   4.798   2.484  14.114
76899SOL    HW232595   4.835   2.577  14.000
76900SOL     OW32596   1.219  11.375   6.606
76900SOL    HW132597   1.160  11.387   6.531
76900SOL    HW232598   1.195  11.445   6.667
76901SOL     OW32599   7.432  11.546   3.422
76901SOL    HW132600   7.474  11.460   3.424
76901SOL    HW232601   7.395  11.558   3.509
76902SOL     OW32602   1.661   1.868   2.757
76902SOL    HW132603   1.599   1.923   2.805
76902SOL    HW232604   1.618   1.852   2.673
76903SOL     OW32605  12.683   9.763  12.047
76903SOL    HW132606  12.725   9.688  12.006
76903SOL    HW232607  12.684   9.831  11.980
76904SOL     OW32608  12.021   1.734  13.507
76904SOL    HW132609  12.105   1.779  13.505
76904SOL    HW232610  11.999   1.729  13.601
76905SOL     OW32611   8.133   5.147  11.237
76905SOL    HW132612   8.039   5.168  11.236
76905SOL    HW232613   8.167   5.183  11.156
76906SOL     OW32614   7.778   9.581   2.002
76906SOL    HW132615   7.726   9.629   2.066
76906SOL    HW232616   7.864   9.622   2.004
76907SOL     OW32617   9.152   4.092   9.072
76907SOL    HW132618   9.193   4.106   9.157
76907SOL    HW232619   9.060   4.116   9.086
76908SOL     OW32620  11.294   5.900   4.212
76908SOL    HW132621  11.341   5.858   4.139
76908SOL    HW232622  11.301   5.994   4.195
76909SOL     OW32623   3.586  10.334   2.522
76909SOL    HW132624   3.557  10.315   2.433
76909SOL    HW232625   3.618  10.250   2.555
76910SOL     OW32626   8.862   3.318  10.373
76910SOL    HW132627   8.894   3.403  10.343
76910SOL    HW232628   8.817   3.337  10.455
76911SOL     OW32629   4.310   6.103  13.069
76911SOL    HW132630   4.258   6.032  13.033
76911SOL    HW232631   4.250   6.178  13.070
76912SOL     OW32632   9.313   3.317   1.868
76912SOL    HW132633   9.257   3.393   1.856
76912SOL    HW232634   9.309   3.271   1.784
76913SOL     OW32635   0.416   3.744  12.846
76913SOL    HW132636   0.370   3.714  12.767
76913SOL    HW232637   0.361   3.714  12.918
76914SOL     OW32638   3.685  14.489   3.319
76914SOL    HW132639   3.689  14.578   3.353
76914SOL    HW232640   3.685  14.434   3.397
76915SOL     OW32641  10.648   8.951   5.531
76915SOL    HW132642  10.682   9.020   5.587
76915SOL    HW232643  10.621   8.996   5.451
76916SOL     OW32644   8.780   6.659   6.954
76916SOL    HW132645   8.787   6.747   6.991
76916SOL    HW232646   8.786   6.672   6.859
76917SOL     OW32647   0.473   4.303   6.848
76917SOL    HW132648   0.533   4.374   6.869
76917SOL    HW232649   0.497   4.278   6.758
76918SOL     OW32650  12.510   8.953  12.925
76918SOL    HW132651  12.598   8.914  12.926
76918SOL    HW232652  12.522   9.038  12.884
76919SOL     OW32653  12.352  10.524   0.554
76919SOL    HW132654  12.446  10.522   0.536
76919SOL    HW232655  12.326  10.615   0.540
76920SOL     OW32656   1.318  14.074   6.116
76920SOL    HW132657   1.242  14.069   6.174
76920SOL    HW232658   1.281  14.079   6.028
76921SOL     OW32659   9.722  13.979  14.279
76921SOL    HW132660   9.799  14.008  14.230
76921SOL    HW232661   9.758  13.928  14.351
76922SOL     OW32662   8.387  13.218   2.316
76922SOL    HW132663   8.319  13.163   2.354
76922SOL    HW232664   8.395  13.292   2.376
76923SOL     OW32665   5.690   0.881  13.565
76923SOL    HW132666   5.734   0.841  13.640
76923SOL    HW232667   5.709   0.975  13.574
76924SOL     OW32668  13.903   3.681   2.563
76924SOL    HW132669  13.997   3.664   2.570
76924SOL    HW232670  13.863   3.594   2.558
76925SOL     OW32671   2.368  12.157   7.902
76925SOL    HW132672   2.370  12.110   7.986
76925SOL    HW232673   2.327  12.241   7.923
76926SOL     OW32674  14.458  10.025   8.988
76926SOL    HW132675  14.485  10.057   8.902
76926SOL    HW232676  14.538  10.026   9.041
76927SOL     OW32677  14.360  12.061   4.900
76927SOL    HW132678  14.351  12.071   4.995
76927SOL    HW232679  14.402  12.142   4.871
76928SOL     OW32680  14.548   7.865   8.114
76928SOL    HW132681  14.550   7.837   8.022
76928SOL    HW232682  14.462   7.838   8.145
76929SOL     OW32683   7.099   8.209  13.593
76929SOL    HW132684   7.186   8.169  13.587
76929SOL    HW232685   7.083   8.244  13.506
76930SOL     OW32686   6.914   1.824  13.007
76930SOL    HW132687   6.869   1.773  12.938
76930SOL    HW232688   6.931   1.909  12.966
76931SOL     OW32689   5.191   1.189  10.810
76931SOL    HW132690   5.234   1.209  10.727
76931SOL    HW232691   5.256   1.213  10.876
76932SOL     OW32692  14.110   2.702   3.685
76932SOL    HW132693  14.041   2.746   3.635
76932SOL    HW232694  14.080   2.706   3.776
76933SOL     OW32695   6.802  14.157  13.706
76933SOL    HW132696   6.752  14.176  13.627
76933SOL    HW232697   6.830  14.243  13.737
76934SOL     OW32698   0.534  14.187  11.485
76934SOL    HW132699   0.532  14.217  11.576
76934SOL    HW232700   0.626  14.194  11.459
76935SOL     OW32701   7.506   1.822   2.669
76935SOL    HW132702   7.584   1.859   2.709
76935SOL    HW232703   7.447   1.896   2.656
76936SOL     OW32704  10.538   7.370   1.206
76936SOL    HW132705  10.508   7.439   1.146
76936SOL    HW232706  10.623   7.401   1.236
76937SOL     OW32707   1.934   1.309   7.796
76937SOL    HW132708   1.926   1.404   7.808
76937SOL    HW232709   1.990   1.300   7.719
76938SOL     OW32710   0.746   5.716   5.774
76938SOL    HW132711   0.777   5.672   5.854
76938SOL    HW232712   0.792   5.672   5.703
76939SOL     OW32713   3.045  11.444   6.837
76939SOL    HW132714   3.114  11.431   6.772
76939SOL    HW232715   3.090  11.474   6.915
76940SOL     OW32716  14.418   3.143   9.446
76940SOL    HW132717  14.415   3.063   9.499
76940SOL    HW232718  14.390   3.114   9.359
76941SOL     OW32719  10.787  11.620   6.631
76941SOL    HW132720  10.716  11.677   6.662
76941SOL    HW232721  10.852  11.622   6.701
76942SOL     OW32722  12.245   5.864   3.198
76942SOL    HW132723  12.260   5.803   3.271
76942SOL    HW232724  12.168   5.829   3.153
76943SOL     OW32725   3.996   9.458  12.144
76943SOL    HW132726   3.918   9.470  12.199
76943SOL    HW232727   3.986   9.523  12.075
76944SOL     OW32728  12.086  13.049   3.551
76944SOL    HW132729  12.155  12.998   3.592
76944SOL    HW232730  12.005  13.015   3.589
76945SOL     OW32731   7.920  13.112  10.881
76945SOL    HW132732   7.880  13.088  10.798
76945SOL    HW232733   7.968  13.193  10.862
76946SOL     OW32734   3.987  13.236   8.656
76946SOL    HW132735   3.935  13.241   8.736
76946SOL    HW232736   4.041  13.315   8.658
76947SOL     OW32737   5.802  10.583   3.057
76947SOL    HW132738   5.889  10.620   3.039
76947SOL    HW232739   5.767  10.640   3.125
76948SOL     OW32740  10.455   7.403  13.903
76948SOL    HW132741  10.448   7.443  13.816
76948SOL    HW232742  10.430   7.312  13.890
76949SOL     OW32743   1.334   5.941   7.577
76949SOL    HW132744   1.293   5.943   7.663
76949SOL    HW232745   1.365   6.031   7.563
76950SOL     OW32746  12.865  14.600   3.859
76950SOL    HW132747  12.881  14.660   3.786
76950SOL    HW232748  12.947  14.600   3.908
76951SOL     OW32749   8.247   0.269  11.466
76951SOL    HW132750   8.249   0.339  11.401
76951SOL    HW232751   8.254   0.314  11.551
76952SOL     OW32752   9.232   9.060   6.745
76952SOL    HW132753   9.186   9.064   6.660
76952SOL    HW232754   9.226   8.968   6.770
76953SOL     OW32755  13.206   0.385   7.587
76953SOL    HW132756  13.143   0.452   7.561
76953SOL    HW232757  13.158   0.328   7.647
76954SOL     OW32758   1.377  13.761  12.064
76954SOL    HW132759   1.394  13.717  11.981
76954SOL    HW232760   1.438  13.720  12.126
76955SOL     OW32761  12.903   8.712   3.370
76955SOL    HW132762  12.924   8.793   3.323
76955SOL    HW232763  12.980   8.657   3.357
76956SOL     OW32764  10.032  11.494   2.666
76956SOL    HW132765  10.070  11.525   2.584
76956SOL    HW232766   9.989  11.411   2.643
76957SOL     OW32767  12.010   7.600   4.019
76957SOL    HW132768  11.935   7.659   4.015
76957SOL    HW232769  12.026   7.575   3.928
76958SOL     OW32770   9.559   1.914   6.926
76958SOL    HW132771   9.606   1.940   6.847
76958SOL    HW232772   9.538   1.821   6.913
76959SOL     OW32773  10.400  12.106   9.531
76959SOL    HW132774  10.315  12.149   9.522
76959SOL    HW232775  10.395  12.031   9.471
76960SOL     OW32776  12.441  10.680  10.114
76960SOL    HW132777  12.451  10.768  10.077
76960SOL    HW232778  12.447  10.692  10.208
76961SOL     OW32779   4.528   6.923   6.957
76961SOL    HW132780   4.445   6.877   6.971
76961SOL    HW232781   4.514   6.971   6.875
76962SOL     OW32782  10.804   3.077  11.582
76962SOL    HW132783  10.747   3.145  11.619
76962SOL    HW232784  10.839   3.031  11.659
76963SOL     OW32785   0.696   2.496   2.272
76963SOL    HW132786   0.624   2.440   2.299
76963SOL    HW232787   0.775   2.443   2.287
76964SOL     OW32788   9.321  10.839   9.799
76964SOL    HW132789   9.348  10.931   9.793
76964SOL    HW232790   9.302  10.826   9.892
76965SOL     OW32791  10.187   6.506   0.082
76965SOL    HW132792  10.162   6.433   0.025
76965SOL    HW232793  10.271   6.537   0.047
76966SOL     OW32794   8.481   2.811   4.165
76966SOL    HW132795   8.400   2.786   4.210
76966SOL    HW232796   8.524   2.872   4.225
76967SOL     OW32797   2.352   8.975   5.714
76967SOL    HW132798   2.391   8.896   5.676
76967SOL    HW232799   2.272   8.943   5.756
76968SOL     OW32800   4.717  14.701  12.855
76968SOL    HW132801   4.740  14.780  12.903
76968SOL    HW232802   4.774  14.633  12.893
76969SOL     OW32803   1.613   9.765   5.102
76969SOL    HW132804   1.594   9.686   5.152
76969SOL    HW232805   1.696   9.745   5.058
76970SOL     OW32806   1.003   7.333   0.365
76970SOL    HW132807   0.972   7.304   0.451
76970SOL    HW232808   0.955   7.278   0.303
76971SOL     OW32809  10.340   7.335  14.439
76971SOL    HW132810  10.373   7.247  14.457
76971SOL    HW232811  10.379   7.358  14.355
76972SOL     OW32812   5.538  10.687   2.218
76972SOL    HW132813   5.619  10.731   2.193
76972SOL    HW232814   5.474  10.714   2.152
76973SOL     OW32815   4.086   7.953   4.580
76973SOL    HW132816   4.170   7.986   4.612
76973SOL    HW232817   4.073   7.998   4.496
76974SOL     OW32818   4.107   5.290  10.424
76974SOL    HW132819   4.030   5.334  10.389
76974SOL    HW232820   4.143   5.241  10.351
76975SOL     OW32821   4.888  12.500   6.027
76975SOL    HW132822   4.910  12.590   6.050
76975SOL    HW232823   4.964  12.448   6.055
76976SOL     OW32824   0.059   1.887   5.203
76976SOL    HW132825   0.048   1.981   5.190
76976SOL    HW232826   0.121   1.860   5.136
76977SOL     OW32827  14.586   7.402   9.876
76977SOL    HW132828  14.545   7.479   9.838
76977SOL    HW232829  14.560   7.330   9.819
76978SOL     OW32830   3.135  13.873  11.284
76978SOL    HW132831   3.153  13.876  11.190
76978SOL    HW232832   3.074  13.800  11.294
76979SOL     OW32833  14.857   8.178   9.908
76979SOL    HW132834  14.870   8.257   9.855
76979SOL    HW232835  14.835   8.212   9.996
76980SOL     OW32836   2.829  11.306   8.000
76980SOL    HW132837   2.899  11.332   8.060
76980SOL    HW232838   2.799  11.222   8.033
76981SOL     OW32839  11.047   2.722   7.336
76981SOL    HW132840  10.986   2.650   7.351
76981SOL    HW232841  11.099   2.694   7.261
76982SOL     OW32842   2.857   9.969   8.519
76982SOL    HW132843   2.799   9.916   8.464
76982SOL    HW232844   2.900   9.906   8.577
76983SOL     OW32845  13.374   5.601   9.489
76983SOL    HW132846  13.451   5.548   9.509
76983SOL    HW232847  13.394   5.643   9.406
76984SOL     OW32848   0.137   0.454   9.753
76984SOL    HW132849   0.076   0.527   9.752
76984SOL    HW232850   0.160   0.442   9.660
76985SOL     OW32851  14.157   1.768   6.433
76985SOL    HW132852  14.221   1.702   6.408
76985SOL    HW232853  14.118   1.734   6.513
76986SOL     OW32854  13.868   5.554   8.504
76986SOL    HW132855  13.860   5.643   8.538
76986SOL    HW232856  13.905   5.503   8.576
76987SOL     OW32857   0.524  13.157   7.157
76987SOL    HW132858   0.565  13.072   7.142
76987SOL    HW232859   0.516  13.163   7.252
76988SOL     OW32860   4.036  13.217   3.174
76988SOL    HW132861   4.079  13.239   3.257
76988SOL    HW232862   4.087  13.263   3.107
76989SOL     OW32863   1.735  10.028   2.181
76989SOL    HW132864   1.708  10.052   2.270
76989SOL    HW232865   1.815   9.978   2.193
76990SOL     OW32866  13.606   2.676   2.984
76990SOL    HW132867  13.643   2.764   2.979
76990SOL    HW232868  13.513   2.688   2.967
76991SOL     OW32869   4.383  11.978   8.116
76991SOL    HW132870   4.475  12.001   8.127
76991SOL    HW232871   4.357  11.942   8.201
76992SOL     OW32872   2.279  10.460  10.161
76992SOL    HW132873   2.276  10.550  10.195
76992SOL    HW232874   2.218  10.411  10.217
76993SOL     OW32875   8.810   5.277  14.516
76993SOL    HW132876   8.805   5.302  14.423
76993SOL    HW232877   8.901   5.251  14.529
76994SOL     OW32878   1.793  11.518   3.529
76994SOL    HW132879   1.873  11.567   3.509
76994SOL    HW232880   1.810  11.431   3.492
76995SOL     OW32881  14.430  12.031   5.654
76995SOL    HW132882  14.461  11.962   5.713
76995SOL    HW232883  14.416  12.106   5.711
76996SOL     OW32884   5.397  14.651   6.611
76996SOL    HW132885   5.457  14.708   6.659
76996SOL    HW232886   5.346  14.710   6.556
76997SOL     OW32887  13.887  11.352   8.007
76997SOL    HW132888  13.880  11.280   7.945
76997SOL    HW232889  13.926  11.313   8.085
76998SOL     OW32890   7.423  13.433  10.443
76998SOL    HW132891   7.381  13.351  10.468
76998SOL    HW232892   7.370  13.466  10.370
76999SOL     OW32893   3.104   9.147   8.185
76999SOL    HW132894   3.054   9.214   8.138
76999SOL    HW232895   3.189   9.187   8.201
77000SOL     OW32896   0.748   7.226   8.013
77000SOL    HW132897   0.678   7.288   8.029
77000SOL    HW232898   0.828   7.279   8.012
77001SOL     OW32899  10.107  12.437   7.000
77001SOL    HW132900  10.103  12.524   6.960
77001SOL    HW232901  10.019  12.401   6.989
77002SOL     OW32902   8.282  10.189   8.621
77002SOL    HW132903   8.368  10.208   8.584
77002SOL    HW232904   8.301  10.147   8.705
77003SOL     OW32905   3.662   2.997  14.283
77003SOL    HW132906   3.655   3.044  14.365
77003SOL    HW232907   3.624   2.910  14.302
77004SOL     OW32908  14.086  11.075   6.101
77004SOL    HW132909  14.078  11.044   6.191
77004SOL    HW232910  14.131  11.160   6.110
77005SOL     OW32911   6.046   2.079  11.756
77005SOL    HW132912   5.978   2.127  11.708
77005SOL    HW232913   6.057   2.128  11.837
77006SOL     OW32914   6.248  12.664   2.961
77006SOL    HW132915   6.293  12.592   3.004
77006SOL    HW232916   6.236  12.635   2.870
77007SOL     OW32917   8.094   5.985   2.083
77007SOL    HW132918   8.006   5.985   2.047
77007SOL    HW232919   8.132   5.902   2.053
77008SOL     OW32920  13.121   2.884   8.128
77008SOL    HW132921  13.042   2.854   8.174
77008SOL    HW232922  13.143   2.966   8.171
77009SOL     OW32923   3.005   6.263   4.889
77009SOL    HW132924   3.011   6.357   4.905
77009SOL    HW232925   3.094   6.231   4.899
77010SOL     OW32926  10.905  12.411   2.736
77010SOL    HW132927  10.822  12.459   2.738
77010SOL    HW232928  10.958  12.459   2.672
77011SOL     OW32929   8.539  13.525   3.516
77011SOL    HW132930   8.443  13.533   3.519
77011SOL    HW232931   8.570  13.586   3.583
77012SOL     OW32932   9.815  14.613   3.691
77012SOL    HW132933   9.867  14.538   3.718
77012SOL    HW232934   9.836  14.625   3.599
77013SOL     OW32935   0.294  13.895   6.575
77013SOL    HW132936   0.329  13.905   6.664
77013SOL    HW232937   0.199  13.897   6.587
77014SOL     OW32938   3.188   0.856   0.565
77014SOL    HW132939   3.149   0.912   0.632
77014SOL    HW232940   3.119   0.844   0.500
77015SOL     OW32941   3.844   9.311   2.055
77015SOL    HW132942   3.785   9.260   2.000
77015SOL    HW232943   3.825   9.282   2.145
77016SOL     OW32944   7.156   3.186   0.897
77016SOL    HW132945   7.194   3.237   0.969
77016SOL    HW232946   7.229   3.168   0.839
77017SOL     OW32947  10.134  12.364   1.832
77017SOL    HW132948  10.141  12.340   1.739
77017SOL    HW232949  10.189  12.442   1.840
77018SOL     OW32950  11.520   9.061  12.096
77018SOL    HW132951  11.451   9.040  12.159
77018SOL    HW232952  11.489   9.140  12.052
77019SOL     OW32953   8.170   6.735   4.933
77019SOL    HW132954   8.181   6.763   4.842
77019SOL    HW232955   8.243   6.776   4.979
77020SOL     OW32956   3.053   3.197   7.595
77020SOL    HW132957   3.115   3.264   7.569
77020SOL    HW232958   2.967   3.234   7.575
77021SOL     OW32959   0.941   3.393   9.160
77021SOL    HW132960   0.890   3.313   9.150
77021SOL    HW232961   1.028   3.362   9.188
77022SOL     OW32962   4.746   7.474   3.718
77022SOL    HW132963   4.712   7.388   3.693
77022SOL    HW232964   4.792   7.459   3.801
77023SOL     OW32965   6.047   3.966   0.339
77023SOL    HW132966   6.035   4.060   0.328
77023SOL    HW232967   6.010   3.927   0.260
77024SOL     OW32968   9.590   4.065  12.117
77024SOL    HW132969   9.683   4.060  12.141
77024SOL    HW232970   9.591   4.084  12.023
77025SOL     OW32971  10.567  11.852   4.610
77025SOL    HW132972  10.635  11.835   4.675
77025SOL    HW232973  10.544  11.765   4.576
77026SOL     OW32974   0.458  13.451  10.644
77026SOL    HW132975   0.452  13.496  10.728
77026SOL    HW232976   0.401  13.374  10.653
77027SOL     OW32977  14.512   2.729   2.264
77027SOL    HW132978  14.605   2.747   2.254
77027SOL    HW232979  14.489   2.678   2.186
77028SOL     OW32980   1.946   5.482   7.718
77028SOL    HW132981   1.970   5.404   7.767
77028SOL    HW232982   1.860   5.507   7.752
77029SOL     OW32983  14.826   5.716   6.022
77029SOL    HW132984   0.007   5.763   5.968
77029SOL    HW232985  14.853   5.624   6.016
77030SOL     OW32986   4.567  14.858   2.865
77030SOL    HW132987   4.539  14.850   2.956
77030SOL    HW232988   4.629   0.049   2.866
77031SOL     OW32989   8.484   0.993   4.876
77031SOL    HW132990   8.573   0.985   4.912
77031SOL    HW232991   8.436   1.043   4.942
77032SOL     OW32992   2.766   4.140   6.007
77032SOL    HW132993   2.748   4.097   5.923
77032SOL    HW232994   2.708   4.096   6.069
77033SOL     OW32995  13.170  10.714   6.280
77033SOL    HW132996  13.130  10.627   6.277
77033SOL    HW232997  13.259  10.701   6.247
77034SOL     OW32998   9.268   9.958  14.231
77034SOL    HW132999   9.260  10.007  14.313
77034SOL    HW233000   9.353   9.914  14.238
77035SOL     OW33001   7.744   5.328   1.538
77035SOL    HW133002   7.838   5.329   1.556
77035SOL    HW233003   7.738   5.306   1.445
77036SOL     OW33004   7.915  13.666  12.376
77036SOL    HW133005   7.978  13.712  12.320
77036SOL    HW233006   7.835  13.718  12.369
77037SOL     OW33007  12.963   9.671  12.448
77037SOL    HW133008  12.940   9.580  12.426
77037SOL    HW233009  12.886   9.722  12.423
77038SOL     OW33010   0.320  10.615   3.185
77038SOL    HW133011   0.248  10.650   3.237
77038SOL    HW233012   0.336  10.682   3.119
77039SOL     OW33013   0.163   3.227   7.736
77039SOL    HW133014   0.199   3.144   7.768
77039SOL    HW233015   0.110   3.260   7.808
77040SOL     OW33016   3.865   3.843   5.755
77040SOL    HW133017   3.796   3.831   5.821
77040SOL    HW233018   3.903   3.928   5.776
77041SOL     OW33019   2.248   6.484   5.132
77041SOL    HW133020   2.167   6.434   5.136
77041SOL    HW233021   2.223   6.567   5.092
77042SOL     OW33022   9.415  13.209  11.566
77042SOL    HW133023   9.347  13.142  11.553
77042SOL    HW233024   9.495  13.159  11.579
77043SOL     OW33025   9.641  13.506   9.549
77043SOL    HW133026   9.660  13.414   9.566
77043SOL    HW233027   9.636  13.546   9.636
77044SOL     OW33028   3.893   5.871  13.232
77044SOL    HW133029   3.909   5.875  13.327
77044SOL    HW233030   3.799   5.889  13.224
77045SOL     OW33031   4.641   8.665  13.855
77045SOL    HW133032   4.605   8.714  13.782
77045SOL    HW233033   4.603   8.577  13.846
77046SOL     OW33034   8.718   0.286  10.083
77046SOL    HW133035   8.713   0.205  10.135
77046SOL    HW233036   8.742   0.354  10.146
77047SOL     OW33037  10.288   8.091  11.997
77047SOL    HW133038  10.296   8.053  12.084
77047SOL    HW233039  10.363   8.058  11.949
77048SOL     OW33040   5.884   5.692   6.334
77048SOL    HW133041   5.872   5.784   6.307
77048SOL    HW233042   5.970   5.668   6.302
77049SOL     OW33043   8.992   5.558  11.869
77049SOL    HW133044   8.906   5.585  11.901
77049SOL    HW233045   8.981   5.466  11.844
77050SOL     OW33046  11.182   7.134  13.068
77050SOL    HW133047  11.136   7.057  13.102
77050SOL    HW233048  11.271   7.125  13.101
77051SOL     OW33049  11.124   6.868  12.745
77051SOL    HW133050  11.165   6.949  12.713
77051SOL    HW233051  11.153   6.861  12.836
77052SOL     OW33052   2.205   1.789   4.970
77052SOL    HW133053   2.206   1.730   4.895
77052SOL    HW233054   2.118   1.779   5.008
77053SOL     OW33055  11.424   3.128  13.152
77053SOL    HW133056  11.508   3.084  13.162
77053SOL    HW233057  11.367   3.062  13.113
77054SOL     OW33058  13.945  10.428   7.822
77054SOL    HW133059  14.030  10.438   7.779
77054SOL    HW233060  13.884  10.407   7.752
77055SOL     OW33061   1.280   1.449  12.385
77055SOL    HW133062   1.305   1.532  12.426
77055SOL    HW233063   1.326   1.449  12.301
77056SOL     OW33064   9.656   9.255  11.545
77056SOL    HW133065   9.691   9.168  11.524
77056SOL    HW233066   9.724   9.297  11.596
77057SOL     OW33067   7.446   0.151   4.437
77057SOL    HW133068   7.514   0.210   4.469
77057SOL    HW233069   7.365   0.200   4.444
77058SOL     OW33070   6.997  14.004   6.021
77058SOL    HW133071   7.075  14.024   6.072
77058SOL    HW233072   7.029  13.958   5.944
77059SOL     OW33073  10.246   5.584  13.858
77059SOL    HW133074  10.202   5.607  13.940
77059SOL    HW233075  10.185   5.611  13.789
77060SOL     OW33076   0.095  13.927   5.654
77060SOL    HW133077   0.123  14.018   5.667
77060SOL    HW233078   0.005  13.924   5.688
77061SOL     OW33079  13.387   5.959  14.188
77061SOL    HW133080  13.345   5.929  14.269
77061SOL    HW233081  13.480   5.944  14.203
77062SOL     OW33082   4.110   4.888   7.165
77062SOL    HW133083   4.044   4.820   7.179
77062SOL    HW233084   4.060   4.967   7.146
77063SOL     OW33085   9.778  14.477  13.348
77063SOL    HW133086   9.762  14.506  13.258
77063SOL    HW233087   9.753  14.385  13.348
77064SOL     OW33088  10.216  14.846   5.566
77064SOL    HW133089  10.197   0.037   5.506
77064SOL    HW233090  10.256   0.006   5.643
77065SOL     OW33091   2.171   1.122   2.323
77065SOL    HW133092   2.110   1.134   2.396
77065SOL    HW233093   2.255   1.152   2.356
77066SOL     OW33094  12.126   8.759  13.193
77066SOL    HW133095  12.164   8.799  13.114
77066SOL    HW233096  12.034   8.744  13.170
77067SOL     OW33097   2.586   9.638   2.522
77067SOL    HW133098   2.635   9.720   2.513
77067SOL    HW233099   2.497   9.665   2.545
77068SOL     OW33100   3.564  11.174   9.731
77068SOL    HW133101   3.484  11.124   9.747
77068SOL    HW233102   3.550  11.213   9.644
77069SOL     OW33103  12.798   1.068   5.703
77069SOL    HW133104  12.782   0.983   5.661
77069SOL    HW233105  12.716   1.116   5.691
77070SOL     OW33106   7.267   3.817  12.054
77070SOL    HW133107   7.328   3.872  12.005
77070SOL    HW233108   7.197   3.877  12.081
77071SOL     OW33109   0.454   0.447   0.811
77071SOL    HW133110   0.445   0.378   0.876
77071SOL    HW233111   0.380   0.435   0.751
77072SOL     OW33112   9.868   7.382   4.193
77072SOL    HW133113   9.912   7.377   4.108
77072SOL    HW233114   9.873   7.293   4.228
77073SOL     OW33115  12.500   6.321  10.558
77073SOL    HW133116  12.501   6.338  10.463
77073SOL    HW233117  12.589   6.289  10.577
77074SOL     OW33118  14.671   8.453  13.987
77074SOL    HW133119  14.586   8.491  13.967
77074SOL    HW233120  14.682   8.466  14.081
77075SOL     OW33121   0.006   2.539   2.796
77075SOL    HW133122  14.843   2.592   2.730
77075SOL    HW233123   0.036   2.603   2.861
77076SOL     OW33124   6.387   6.416  10.744
77076SOL    HW133125   6.425   6.383  10.662
77076SOL    HW233126   6.417   6.507  10.750
77077SOL     OW33127  13.640   9.743   4.488
77077SOL    HW133128  13.685   9.824   4.465
77077SOL    HW233129  13.649   9.736   4.583
77078SOL     OW33130   3.585   9.493  12.540
77078SOL    HW133131   3.530   9.570  12.526
77078SOL    HW233132   3.605   9.494  12.634
77079SOL     OW33133   6.004   2.662   2.800
77079SOL    HW133134   6.096   2.675   2.777
77079SOL    HW233135   5.986   2.731   2.865
77080SOL     OW33136  13.897  13.496   2.827
77080SOL    HW133137  13.959  13.566   2.845
77080SOL    HW233138  13.856  13.478   2.912
77081SOL     OW33139  10.679  13.528  10.198
77081SOL    HW133140  10.605  13.486  10.154
77081SOL    HW233141  10.642  13.606  10.238
77082SOL     OW33142   8.648   3.005   9.985
77082SOL    HW133143   8.567   3.046   9.955
77082SOL    HW233144   8.694   3.075  10.031
77083SOL     OW33145   4.337   2.508   3.420
77083SOL    HW133146   4.255   2.527   3.374
77083SOL    HW233147   4.311   2.447   3.490
77084SOL     OW33148   3.870  13.389   7.965
77084SOL    HW133149   3.901  13.369   7.877
77084SOL    HW233150   3.943  13.365   8.022
77085SOL     OW33151  14.817  13.573   3.595
77085SOL    HW133152  14.879  13.637   3.630
77085SOL    HW233153  14.756  13.625   3.543
77086SOL     OW33154   1.407   5.878   9.356
77086SOL    HW133155   1.354   5.929   9.417
77086SOL    HW233156   1.355   5.877   9.275
77087SOL     OW33157   4.770  14.220   1.937
77087SOL    HW133158   4.806  14.171   1.864
77087SOL    HW233159   4.738  14.154   1.999
77088SOL     OW33160  10.792   5.248   1.908
77088SOL    HW133161  10.834   5.222   1.826
77088SOL    HW233162  10.725   5.311   1.881
77089SOL     OW33163   8.270   3.653   9.075
77089SOL    HW133164   8.336   3.671   9.007
77089SOL    HW233165   8.279   3.725   9.137
77090SOL     OW33166  13.505  13.284   8.521
77090SOL    HW133167  13.421  13.238   8.523
77090SOL    HW233168  13.556  13.237   8.455
77091SOL     OW33169  13.940  10.736   3.969
77091SOL    HW133170  13.928  10.831   3.976
77091SOL    HW233171  14.030  10.721   3.999
77092SOL     OW33172   6.419   7.990   0.901
77092SOL    HW133173   6.504   8.015   0.938
77092SOL    HW233174   6.357   8.006   0.972
77093SOL     OW33175  13.035   6.128   6.126
77093SOL    HW133176  13.118   6.098   6.091
77093SOL    HW233177  13.052   6.144   6.219
77094SOL     OW33178   4.227  14.054   6.015
77094SOL    HW133179   4.235  13.961   5.991
77094SOL    HW233180   4.171  14.053   6.093
77095SOL     OW33181   7.547  10.508   4.699
77095SOL    HW133182   7.568  10.530   4.608
77095SOL    HW233183   7.569  10.415   4.706
77096SOL     OW33184  11.722  12.260   2.256
77096SOL    HW133185  11.630  12.247   2.281
77096SOL    HW233186  11.772  12.218   2.326
77097SOL     OW33187   9.927   8.901  10.200
77097SOL    HW133188   9.987   8.942  10.137
77097SOL    HW233189   9.974   8.825  10.233
77098SOL     OW33190   7.361   7.334   0.807
77098SOL    HW133191   7.417   7.278   0.860
77098SOL    HW233192   7.403   7.337   0.721
77099SOL     OW33193   0.642  10.510   9.069
77099SOL    HW133194   0.629  10.533   9.161
77099SOL    HW233195   0.559  10.471   9.042
77100SOL     OW33196  12.509  10.936   8.201
77100SOL    HW133197  12.509  11.009   8.139
77100SOL    HW233198  12.555  10.970   8.278
77101SOL     OW33199   4.765  14.070   8.680
77101SOL    HW133200   4.678  14.102   8.656
77101SOL    HW233201   4.772  13.985   8.637
77102SOL     OW33202   1.604  10.132   1.291
77102SOL    HW133203   1.509  10.124   1.288
77102SOL    HW233204   1.634  10.046   1.319
77103SOL     OW33205   1.039   0.039  11.594
77103SOL    HW133206   0.951   0.002  11.586
77103SOL    HW233207   1.076  14.879  11.671
77104SOL     OW33208   8.815  10.852  14.120
77104SOL    HW133209   8.900  10.809  14.115
77104SOL    HW233210   8.793  10.874  14.030
77105SOL     OW33211  14.834  10.934  14.102
77105SOL    HW133212  14.820  10.959  14.011
77105SOL    HW233213  14.760  10.877  14.123
77106SOL     OW33214   0.591   3.635   2.259
77106SOL    HW133215   0.533   3.650   2.334
77106SOL    HW233216   0.675   3.615   2.298
77107SOL     OW33217   0.175  13.455   4.268
77107SOL    HW133218   0.266  13.461   4.241
77107SOL    HW233219   0.127  13.433   4.188
77108SOL     OW33220   1.420   5.139   5.077
77108SOL    HW133221   1.499   5.191   5.067
77108SOL    HW233222   1.446   5.064   5.131
77109SOL     OW33223   4.727   8.002  12.346
77109SOL    HW133224   4.758   8.082  12.302
77109SOL    HW233225   4.796   7.938  12.331
77110SOL     OW33226   1.813   3.511  11.253
77110SOL    HW133227   1.844   3.599  11.231
77110SOL    HW233228   1.863   3.487  11.331
77111SOL     OW33229  13.162   7.461   9.113
77111SOL    HW133230  13.217   7.509   9.175
77111SOL    HW233231  13.221   7.401   9.068
77112SOL     OW33232   9.650   4.695   3.263
77112SOL    HW133233   9.607   4.610   3.252
77112SOL    HW233234   9.735   4.684   3.220
77113SOL     OW33235  14.306   4.938  11.737
77113SOL    HW133236  14.250   4.996  11.684
77113SOL    HW233237  14.392   4.945  11.697
77114SOL     OW33238  11.136  13.805   6.671
77114SOL    HW133239  11.170  13.741   6.608
77114SOL    HW233240  11.213  13.858   6.695
77115SOL     OW33241   7.758   6.439  10.715
77115SOL    HW133242   7.844   6.449  10.758
77115SOL    HW233243   7.696   6.475  10.778
77116SOL     OW33244   3.892  13.103  11.306
77116SOL    HW133245   3.973  13.072  11.347
77116SOL    HW233246   3.887  13.196  11.329
77117SOL     OW33247   5.060   0.909   3.335
77117SOL    HW133248   5.098   0.961   3.264
77117SOL    HW233249   4.985   0.865   3.295
77118SOL     OW33250   7.190  14.067  13.059
77118SOL    HW133251   7.284  14.051  13.066
77118SOL    HW233252   7.157  14.062  13.148
77119SOL     OW33253   1.934   8.583  10.766
77119SOL    HW133254   1.899   8.667  10.734
77119SOL    HW233255   1.860   8.542  10.810
77120SOL     OW33256   5.548   9.123   1.117
77120SOL    HW133257   5.500   9.111   1.035
77120SOL    HW233258   5.558   9.217   1.126
77121SOL     OW33259   6.060   3.037   7.613
77121SOL    HW133260   5.991   3.047   7.548
77121SOL    HW233261   6.116   3.114   7.601
77122SOL     OW33262   2.507   5.096   8.773
77122SOL    HW133263   2.493   5.144   8.691
77122SOL    HW233264   2.578   5.143   8.816
77123SOL     OW33265   4.089  13.698   8.328
77123SOL    HW133266   4.081  13.791   8.309
77123SOL    HW233267   4.005  13.673   8.365
77124SOL     OW33268  14.044  10.543   9.711
77124SOL    HW133269  14.080  10.516   9.627
77124SOL    HW233270  14.025  10.461   9.757
77125SOL     OW33271  11.105  11.668   1.119
77125SOL    HW133272  11.037  11.603   1.100
77125SOL    HW233273  11.166  11.661   1.046
77126SOL     OW33274  12.590   2.219   7.823
77126SOL    HW133275  12.500   2.252   7.818
77126SOL    HW233276  12.585   2.130   7.789
77127SOL     OW33277  12.567   6.614  11.335
77127SOL    HW133278  12.627   6.653  11.271
77127SOL    HW233279  12.528   6.539  11.289
77128SOL     OW33280  10.077   0.203  13.774
77128SOL    HW133281  10.102   0.237  13.688
77128SOL    HW233282   9.981   0.197  13.770
77129SOL     OW33283  12.319   6.536   8.083
77129SOL    HW133284  12.284   6.562   7.999
77129SOL    HW233285  12.335   6.442   8.074
77130SOL     OW33286   2.105   8.058   2.103
77130SOL    HW133287   2.158   8.138   2.111
77130SOL    HW233288   2.098   8.044   2.009
77131SOL     OW33289  14.306   1.533   7.500
77131SOL    HW133290  14.279   1.571   7.416
77131SOL    HW233291  14.362   1.599   7.540
77132SOL     OW33292  11.272   9.778   0.532
77132SOL    HW133293  11.304   9.755   0.445
77132SOL    HW233294  11.298   9.705   0.588
77133SOL     OW33295  13.636   5.480   2.957
77133SOL    HW133296  13.661   5.438   2.875
77133SOL    HW233297  13.554   5.437   2.982
77134SOL     OW33298   6.611   7.889   2.139
77134SOL    HW133299   6.629   7.879   2.233
77134SOL    HW233300   6.565   7.973   2.133
77135SOL     OW33301   2.601   1.340  13.846
77135SOL    HW133302   2.670   1.297  13.898
77135SOL    HW233303   2.532   1.360  13.910
77136SOL     OW33304   4.952  12.484  13.821
77136SOL    HW133305   4.886  12.430  13.778
77136SOL    HW233306   4.994  12.425  13.884
77137SOL     OW33307   6.010   7.481   1.136
77137SOL    HW133308   5.968   7.540   1.199
77137SOL    HW233309   6.036   7.405   1.187
77138SOL     OW33310   9.364  13.754  14.658
77138SOL    HW133311   9.286  13.803  14.682
77138SOL    HW233312   9.435  13.819  14.660
77139SOL     OW33313   7.862   9.633  11.414
77139SOL    HW133314   7.949   9.660  11.443
77139SOL    HW233315   7.869   9.539  11.399
77140SOL     OW33316  13.971   0.257  13.522
77140SOL    HW133317  14.010   0.263  13.609
77140SOL    HW233318  13.931   0.170  13.520
77141SOL     OW33319  13.431  12.268  10.332
77141SOL    HW133320  13.372  12.194  10.317
77141SOL    HW233321  13.391  12.316  10.404
77142SOL     OW33322   1.847   1.631   4.320
77142SOL    HW133323   1.939   1.606   4.315
77142SOL    HW233324   1.803   1.557   4.361
77143SOL     OW33325   3.349   9.138  10.830
77143SOL    HW133326   3.284   9.093  10.884
77143SOL    HW233327   3.309   9.142  10.743
77144SOL     OW33328  10.404  11.957   6.302
77144SOL    HW133329  10.377  11.981   6.213
77144SOL    HW233330  10.416  11.862   6.299
77145SOL     OW33331   8.957  11.607   7.081
77145SOL    HW133332   8.994  11.558   7.007
77145SOL    HW233333   8.875  11.562   7.101
77146SOL     OW33334   3.252  13.165  12.485
77146SOL    HW133335   3.314  13.227  12.523
77146SOL    HW233336   3.305  13.090  12.459
77147SOL     OW33337   6.081  13.470  12.012
77147SOL    HW133338   6.067  13.565  12.008
77147SOL    HW233339   5.993  13.433  12.014
77148SOL     OW33340   0.871   6.882  12.973
77148SOL    HW133341   0.922   6.961  12.957
77148SOL    HW233342   0.932   6.822  13.016
77149SOL     OW33343   8.744  10.880   2.040
77149SOL    HW133344   8.826  10.840   2.070
77149SOL    HW233345   8.721  10.833   1.961
77150SOL     OW33346  13.974  10.849  12.997
77150SOL    HW133347  13.943  10.928  13.041
77150SOL    HW233348  13.898  10.791  12.994
77151SOL     OW33349   5.489   6.438   2.912
77151SOL    HW133350   5.407   6.436   2.863
77151SOL    HW233351   5.536   6.514   2.877
77152SOL     OW33352  13.203  11.377   3.007
77152SOL    HW133353  13.256  11.352   3.082
77152SOL    HW233354  13.172  11.294   2.971
77153SOL     OW33355   2.716  14.722   5.941
77153SOL    HW133356   2.675  14.764   6.017
77153SOL    HW233357   2.758  14.644   5.977
77154SOL     OW33358   1.125   2.236   8.427
77154SOL    HW133359   1.033   2.246   8.405
77154SOL    HW233360   1.165   2.319   8.402
77155SOL     OW33361  14.330   3.836   1.267
77155SOL    HW133362  14.248   3.837   1.317
77155SOL    HW233363  14.357   3.744   1.268
77156SOL     OW33364  11.458   0.749   5.929
77156SOL    HW133365  11.412   0.812   5.874
77156SOL    HW233366  11.544   0.739   5.888
77157SOL     OW33367  14.204   6.050   7.827
77157SOL    HW133368  14.197   6.085   7.915
77157SOL    HW233369  14.114   6.054   7.793
77158SOL     OW33370  13.284  11.488  11.066
77158SOL    HW133371  13.354  11.533  11.019
77158SOL    HW233372  13.230  11.559  11.102
77159SOL     OW33373   8.872   6.601   7.778
77159SOL    HW133374   8.920   6.629   7.855
77159SOL    HW233375   8.810   6.535   7.810
77160SOL     OW33376   4.558   3.183   7.068
77160SOL    HW133377   4.484   3.210   7.013
77160SOL    HW233378   4.523   3.111   7.120
77161SOL     OW33379   1.327  14.701  13.712
77161SOL    HW133380   1.320  14.671  13.621
77161SOL    HW233381   1.411  14.667  13.742
77162SOL     OW33382   3.015   1.792   3.635
77162SOL    HW133383   2.981   1.703   3.630
77162SOL    HW233384   3.093   1.791   3.579
77163SOL     OW33385  11.347  14.753   1.579
77163SOL    HW133386  11.294  14.673   1.575
77163SOL    HW233387  11.337  14.793   1.493
77164SOL     OW33388  12.045  10.897   6.668
77164SOL    HW133389  12.138  10.917   6.658
77164SOL    HW233390  12.022  10.933   6.754
77165SOL     OW33391   7.043  11.597   3.741
77165SOL    HW133392   7.125  11.551   3.727
77165SOL    HW233393   7.021  11.633   3.655
77166SOL     OW33394   2.849   9.344   6.061
77166SOL    HW133395   2.858   9.432   6.026
77166SOL    HW233396   2.792   9.299   5.999
77167SOL     OW33397   2.106  12.156   0.312
77167SOL    HW133398   2.051  12.184   0.240
77167SOL    HW233399   2.090  12.220   0.382
77168SOL     OW33400  10.512   0.828   9.222
77168SOL    HW133401  10.431   0.785   9.196
77168SOL    HW233402  10.484   0.914   9.254
77169SOL     OW33403   4.056   8.022  14.430
77169SOL    HW133404   4.074   7.979  14.347
77169SOL    HW233405   3.962   8.006  14.445
77170SOL     OW33406   9.879   8.950   0.204
77170SOL    HW133407   9.863   8.942   0.298
77170SOL    HW233408   9.826   9.025   0.177
77171SOL     OW33409  11.445  10.383  11.090
77171SOL    HW133410  11.482  10.469  11.073
77171SOL    HW233411  11.427  10.346  11.003
77172SOL     OW33412   8.370  12.226  12.815
77172SOL    HW133413   8.330  12.151  12.859
77172SOL    HW233414   8.377  12.293  12.883
77173SOL     OW33415   2.844   9.171   4.515
77173SOL    HW133416   2.853   9.259   4.552
77173SOL    HW233417   2.904   9.171   4.440
77174SOL     OW33418   7.034  10.523  10.709
77174SOL    HW133419   7.091  10.467  10.763
77174SOL    HW233420   7.025  10.476  10.626
77175SOL     OW33421  13.905   7.680   3.341
77175SOL    HW133422  13.849   7.609   3.309
77175SOL    HW233423  13.897   7.677   3.436
77176SOL     OW33424  12.007  12.704  12.106
77176SOL    HW133425  11.952  12.661  12.040
77176SOL    HW233426  12.051  12.774  12.058
77177SOL     OW33427   8.716  14.574  14.504
77177SOL    HW133428   8.634  14.579  14.454
77177SOL    HW233429   8.728  14.663  14.539
77178SOL     OW33430   0.139   8.057   8.697
77178SOL    HW133431   0.221   8.019   8.727
77178SOL    HW233432   0.073   8.022   8.756
77179SOL     OW33433  13.195  12.224  13.010
77179SOL    HW133434  13.146  12.294  12.967
77179SOL    HW233435  13.224  12.168  12.938
77180SOL     OW33436   4.674   6.857  10.584
77180SOL    HW133437   4.621   6.783  10.614
77180SOL    HW233438   4.703   6.900  10.664
77181SOL     OW33439   8.474   3.464   8.658
77181SOL    HW133440   8.509   3.467   8.747
77181SOL    HW233441   8.384   3.495   8.666
77182SOL     OW33442   1.286   6.138   0.493
77182SOL    HW133443   1.319   6.210   0.547
77182SOL    HW233444   1.191   6.144   0.499
77183SOL     OW33445   1.035  11.349  11.302
77183SOL    HW133446   1.061  11.357  11.211
77183SOL    HW233447   0.991  11.432  11.322
77184SOL     OW33448   1.777  14.837  11.685
77184SOL    HW133449   1.847  14.787  11.727
77184SOL    HW233450   1.815   0.040  11.667
77185SOL     OW33451   4.038  10.469  13.478
77185SOL    HW133452   3.981  10.395  13.456
77185SOL    HW233453   4.126  10.431  13.481
77186SOL     OW33454  12.912   3.631   1.495
77186SOL    HW133455  12.855   3.642   1.571
77186SOL    HW233456  12.985   3.578   1.527
77187SOL     OW33457   6.427   7.597   4.852
77187SOL    HW133458   6.370   7.670   4.826
77187SOL    HW233459   6.380   7.554   4.923
77188SOL     OW33460   8.278  11.862  10.162
77188SOL    HW133461   8.227  11.783  10.148
77188SOL    HW233462   8.332  11.871  10.084
77189SOL     OW33463   2.716   9.900  10.014
77189SOL    HW133464   2.798   9.921  10.059
77189SOL    HW233465   2.714   9.805  10.009
77190SOL     OW33466   7.196   7.914   3.119
77190SOL    HW133467   7.110   7.907   3.161
77190SOL    HW233468   7.257   7.881   3.184
77191SOL     OW33469   3.164   2.091   9.889
77191SOL    HW133470   3.141   2.143   9.812
77191SOL    HW233471   3.175   2.002   9.855
77192SOL     OW33472   3.640  13.603  14.582
77192SOL    HW133473   3.654  13.512  14.610
77192SOL    HW233474   3.547  13.618  14.596
77193SOL     OW33475   9.854  11.285   0.721
77193SOL    HW133476   9.931  11.335   0.694
77193SOL    HW233477   9.780  11.331   0.681
77194SOL     OW33478  13.150  14.459   5.915
77194SOL    HW133479  13.069  14.498   5.883
77194SOL    HW233480  13.137  14.364   5.904
77195SOL     OW33481  14.579   5.233   3.158
77195SOL    HW133482  14.537   5.203   3.078
77195SOL    HW233483  14.653   5.174   3.169
77196SOL     OW33484   7.921   9.848  13.283
77196SOL    HW133485   7.979   9.888  13.349
77196SOL    HW233486   7.833   9.861  13.319
77197SOL     OW33487   3.309   8.223   0.727
77197SOL    HW133488   3.258   8.193   0.652
77197SOL    HW233489   3.298   8.318   0.728
77198SOL     OW33490   4.428   1.719  14.534
77198SOL    HW133491   4.451   1.747  14.622
77198SOL    HW233492   4.442   1.796  14.479
77199SOL     OW33493  14.293   3.304   4.483
77199SOL    HW133494  14.315   3.371   4.419
77199SOL    HW233495  14.329   3.223   4.446
77200SOL     OW33496  14.489   1.463  13.903
77200SOL    HW133497  14.398   1.487  13.920
77200SOL    HW233498  14.520   1.531  13.843
77201SOL     OW33499   9.988   9.594   4.704
77201SOL    HW133500  10.057   9.589   4.638
77201SOL    HW233501  10.030   9.637   4.779
77202SOL     OW33502   6.637  13.726   1.655
77202SOL    HW133503   6.560  13.770   1.692
77202SOL    HW233504   6.639  13.641   1.699
77203SOL     OW33505   4.433  12.631   2.172
77203SOL    HW133506   4.355  12.617   2.226
77203SOL    HW233507   4.448  12.725   2.175
77204SOL     OW33508  14.772   6.072   7.631
77204SOL    HW133509  14.726   6.036   7.707
77204SOL    HW233510  14.853   6.022   7.625
77205SOL     OW33511  12.652   8.279   7.608
77205SOL    HW133512  12.587   8.299   7.676
77205SOL    HW233513  12.649   8.353   7.548
77206SOL     OW33514   1.867   5.941   1.142
77206SOL    HW133515   1.831   5.959   1.229
77206SOL    HW233516   1.833   5.854   1.120
77207SOL     OW33517   2.123   8.448   3.520
77207SOL    HW133518   2.203   8.479   3.477
77207SOL    HW233519   2.113   8.505   3.597
77208SOL     OW33520  12.668  10.366   3.074
77208SOL    HW133521  12.727  10.344   3.146
77208SOL    HW233522  12.649  10.282   3.032
77209SOL     OW33523   7.245  11.267  10.798
77209SOL    HW133524   7.205  11.182  10.817
77209SOL    HW233525   7.314  11.276  10.865
77210SOL     OW33526   5.357  14.457   0.498
77210SOL    HW133527   5.359  14.372   0.542
77210SOL    HW233528   5.441  14.497   0.518
77211SOL     OW33529   1.176  14.168  12.057
77211SOL    HW133530   1.216  14.177  11.970
77211SOL    HW233531   1.120  14.244  12.065
77212SOL     OW33532  11.462   6.667   5.146
77212SOL    HW133533  11.478   6.658   5.240
77212SOL    HW233534  11.455   6.576   5.115
77213SOL     OW33535  10.847   0.129   0.613
77213SOL    HW133536  10.822   0.213   0.573
77213SOL    HW233537  10.781   0.067   0.582
77214SOL     OW33538   4.592   3.365   3.584
77214SOL    HW133539   4.551   3.421   3.649
77214SOL    HW233540   4.683   3.395   3.580
77215SOL     OW33541  12.229   3.382   4.687
77215SOL    HW133542  12.192   3.411   4.771
77215SOL    HW233543  12.289   3.311   4.711
77216SOL     OW33544  10.460   8.614  11.251
77216SOL    HW133545  10.387   8.629  11.311
77216SOL    HW233546  10.427   8.642  11.165
77217SOL     OW33547   7.498   6.202  14.629
77217SOL    HW133548   7.551   6.278  14.650
77217SOL    HW233549   7.489   6.204  14.534
77218SOL     OW33550  12.060   4.991   8.197
77218SOL    HW133551  12.076   4.997   8.291
77218SOL    HW233552  12.012   5.071   8.176
77219SOL     OW33553   1.069   6.965  14.545
77219SOL    HW133554   1.143   7.015  14.509
77219SOL    HW233555   1.095   6.873  14.534
77220SOL     OW33556  13.686  12.603  13.713
77220SOL    HW133557  13.779  12.588  13.693
77220SOL    HW233558  13.687  12.666  13.785
77221SOL     OW33559   6.611   4.449  13.194
77221SOL    HW133560   6.614   4.480  13.104
77221SOL    HW233561   6.575   4.522  13.244
77222SOL     OW33562   7.018   5.538  11.397
77222SOL    HW133563   7.052   5.586  11.321
77222SOL    HW233564   6.962   5.601  11.442
77223SOL     OW33565   0.160  14.067  11.478
77223SOL    HW133566   0.140  14.124  11.404
77223SOL    HW233567   0.076  14.049  11.518
77224SOL     OW33568  13.489   4.815   1.115
77224SOL    HW133569  13.560   4.852   1.064
77224SOL    HW233570  13.480   4.874   1.190
77225SOL     OW33571  10.706  10.965   6.486
77225SOL    HW133572  10.659  10.932   6.409
77225SOL    HW233573  10.741  11.050   6.459
77226SOL     OW33574   4.373   6.556  13.619
77226SOL    HW133575   4.365   6.646  13.654
77226SOL    HW233576   4.446   6.560  13.558
77227SOL     OW33577   8.737   6.307   2.067
77227SOL    HW133578   8.644   6.305   2.092
77227SOL    HW233579   8.783   6.324   2.150
77228SOL     OW33580   7.845  14.253   6.428
77228SOL    HW133581   7.781  14.280   6.362
77228SOL    HW233582   7.906  14.327   6.434
77229SOL     OW33583  14.474  14.869   7.594
77229SOL    HW133584  14.486  14.800   7.659
77229SOL    HW233585  14.494  14.827   7.511
77230SOL     OW33586   1.471   4.130   3.463
77230SOL    HW133587   1.529   4.191   3.416
77230SOL    HW233588   1.527   4.055   3.484
77231SOL     OW33589  11.145  10.093   1.366
77231SOL    HW133590  11.228  10.139   1.379
77231SOL    HW233591  11.108  10.086   1.454
77232SOL     OW33592  11.889   0.787  13.627
77232SOL    HW133593  11.849   0.819  13.707
77232SOL    HW233594  11.981   0.771  13.650
77233SOL     OW33595   7.533  11.525   1.624
77233SOL    HW133596   7.598  11.471   1.668
77233SOL    HW233597   7.531  11.492   1.535
77234SOL     OW33598  10.834   1.624   6.427
77234SOL    HW133599  10.929   1.626   6.424
77234SOL    HW233600  10.807   1.645   6.337
77235SOL     OW33601  12.736   7.232   9.360
77235SOL    HW133602  12.685   7.312   9.342
77235SOL    HW233603  12.671   7.162   9.358
77236SOL     OW33604   2.192  11.875  11.717
77236SOL    HW133605   2.196  11.783  11.745
77236SOL    HW233606   2.261  11.884  11.652
77237SOL     OW33607   5.678  12.916   9.052
77237SOL    HW133608   5.596  12.931   9.005
77237SOL    HW233609   5.739  12.979   9.014
77238SOL     OW33610  13.858   8.955   8.344
77238SOL    HW133611  13.945   8.926   8.316
77238SOL    HW233612  13.871   8.984   8.435
77239SOL     OW33613   8.140   0.575   7.511
77239SOL    HW133614   8.152   0.572   7.416
77239SOL    HW233615   8.147   0.484   7.540
77240SOL     OW33616  14.507  11.383   5.544
77240SOL    HW133617  14.550  11.307   5.506
77240SOL    HW233618  14.419  11.352   5.567
77241SOL     OW33619   0.163   0.722  12.639
77241SOL    HW133620   0.169   0.699  12.547
77241SOL    HW233621   0.233   0.671  12.681
77242SOL     OW33622   3.946   8.847  10.425
77242SOL    HW133623   3.914   8.766  10.385
77242SOL    HW233624   4.039   8.850  10.401
77243SOL     OW33625   6.898   4.379   7.073
77243SOL    HW133626   6.825   4.440   7.086
77243SOL    HW233627   6.883   4.342   6.986
77244SOL     OW33628   4.339   4.474   8.294
77244SOL    HW133629   4.393   4.509   8.223
77244SOL    HW233630   4.397   4.416   8.343
77245SOL     OW33631   3.390   4.480   2.612
77245SOL    HW133632   3.318   4.422   2.586
77245SOL    HW233633   3.354   4.533   2.683
77246SOL     OW33634   2.199   7.253   7.120
77246SOL    HW133635   2.183   7.209   7.036
77246SOL    HW233636   2.115   7.294   7.142
77247SOL     OW33637   1.377  14.657   4.211
77247SOL    HW133638   1.355  14.745   4.182
77247SOL    HW233639   1.387  14.664   4.306
77248SOL     OW33640  14.816  10.922   3.384
77248SOL    HW133641  14.786  11.001   3.338
77248SOL    HW233642  14.804  10.851   3.321
77249SOL     OW33643   6.383  13.234   6.192
77249SOL    HW133644   6.443  13.204   6.261
77249SOL    HW233645   6.419  13.318   6.164
77250SOL     OW33646  14.173  13.282   7.950
77250SOL    HW133647  14.093  13.331   7.967
77250SOL    HW233648  14.243  13.340   7.981
77251SOL     OW33649   4.358   4.887   0.329
77251SOL    HW133650   4.404   4.839   0.398
77251SOL    HW233651   4.279   4.836   0.313
77252SOL     OW33652   9.302   0.772   5.403
77252SOL    HW133653   9.323   0.865   5.419
77252SOL    HW233654   9.375   0.724   5.443
77253SOL     OW33655   8.942   2.370   6.165
77253SOL    HW133656   8.957   2.450   6.217
77253SOL    HW233657   9.028   2.350   6.128
77254SOL     OW33658   5.474   7.845   0.102
77254SOL    HW133659   5.402   7.878   0.155
77254SOL    HW233660   5.527   7.922   0.081
77255SOL     OW33661  10.623   2.212  12.074
77255SOL    HW133662  10.654   2.303  12.076
77255SOL    HW233663  10.661   2.172  12.153
77256SOL     OW33664   6.971   9.197   5.841
77256SOL    HW133665   6.958   9.274   5.897
77256SOL    HW233666   6.959   9.230   5.752
77257SOL     OW33667   4.325  11.527   2.277
77257SOL    HW133668   4.364  11.476   2.349
77257SOL    HW233669   4.400  11.573   2.239
77258SOL     OW33670   7.017  14.317  12.095
77258SOL    HW133671   7.018  14.234  12.047
77258SOL    HW233672   6.992  14.383  12.030
77259SOL     OW33673   7.015   1.168  13.126
77259SOL    HW133674   6.993   1.171  13.033
77259SOL    HW233675   6.991   1.079  13.153
77260SOL     OW33676   8.651  11.475   4.569
77260SOL    HW133677   8.604  11.467   4.652
77260SOL    HW233678   8.647  11.568   4.548
77261SOL     OW33679  14.280  14.711   4.978
77261SOL    HW133680  14.275  14.688   5.071
77261SOL    HW233681  14.361  14.670   4.948
77262SOL     OW33682  10.479   3.045   5.192
77262SOL    HW133683  10.470   3.099   5.270
77262SOL    HW233684  10.389   3.020   5.170
77263SOL     OW33685  11.217   7.817   5.600
77263SOL    HW133686  11.224   7.739   5.654
77263SOL    HW233687  11.188   7.886   5.660
77264SOL     OW33688   2.121   1.168  12.632
77264SOL    HW133689   2.092   1.230  12.564
77264SOL    HW233690   2.207   1.201  12.658
77265SOL     OW33691   8.447   5.880  10.668
77265SOL    HW133692   8.476   5.805  10.720
77265SOL    HW233693   8.517   5.893  10.604
77266SOL     OW33694   5.599   0.173   2.435
77266SOL    HW133695   5.549   0.094   2.415
77266SOL    HW233696   5.596   0.224   2.354
77267SOL     OW33697   3.322   0.117   0.440
77267SOL    HW133698   3.331   0.046   0.503
77267SOL    HW233699   3.356   0.194   0.485
77268SOL     OW33700   6.035  13.129   6.208
77268SOL    HW133701   5.990  13.079   6.139
77268SOL    HW233702   6.115  13.079   6.225
77269SOL     OW33703  13.794   9.746  14.784
77269SOL    HW133704  13.779   9.830  14.739
77269SOL    HW233705  13.814   9.685  14.714
77270SOL     OW33706   8.901   3.639  10.629
77270SOL    HW133707   8.877   3.652  10.721
77270SOL    HW233708   8.834   3.685  10.580
77271SOL     OW33709   0.520  13.273   1.557
77271SOL    HW133710   0.519  13.263   1.462
77271SOL    HW233711   0.558  13.191   1.589
77272SOL     OW33712   5.947  11.217   4.166
77272SOL    HW133713   5.931  11.301   4.123
77272SOL    HW233714   6.041  11.203   4.159
77273SOL     OW33715   7.199  10.000  11.603
77273SOL    HW133716   7.111  10.039  11.603
77273SOL    HW233717   7.250  10.057  11.545
77274SOL     OW33718  12.801   2.445   5.764
77274SOL    HW133719  12.775   2.419   5.676
77274SOL    HW233720  12.856   2.522   5.751
77275SOL     OW33721   4.265   1.528  11.046
77275SOL    HW133722   4.281   1.438  11.017
77275SOL    HW233723   4.222   1.519  11.131
77276SOL     OW33724  13.182   1.862   2.530
77276SOL    HW133725  13.115   1.870   2.461
77276SOL    HW233726  13.260   1.831   2.484
77277SOL     OW33727   4.571  11.953   6.964
77277SOL    HW133728   4.486  11.934   7.004
77277SOL    HW233729   4.579  11.888   6.894
77278SOL     OW33730   4.852   3.924   8.258
77278SOL    HW133731   4.854   3.883   8.344
77278SOL    HW233732   4.765   3.963   8.252
77279SOL     OW33733  14.627   2.361   5.875
77279SOL    HW133734  14.601   2.442   5.919
77279SOL    HW233735  14.546   2.326   5.838
77280SOL     OW33736   2.569   3.407   6.331
77280SOL    HW133737   2.544   3.496   6.307
77280SOL    HW233738   2.511   3.385   6.404
77281SOL     OW33739  10.831   1.569   8.967
77281SOL    HW133740  10.786   1.530   9.042
77281SOL    HW233741  10.874   1.496   8.923
77282SOL     OW33742   1.502   3.068   7.222
77282SOL    HW133743   1.537   3.075   7.133
77282SOL    HW233744   1.548   2.992   7.259
77283SOL     OW33745   9.685   8.198  10.260
77283SOL    HW133746   9.613   8.261  10.274
77283SOL    HW233747   9.642   8.123  10.218
77284SOL     OW33748  13.345   4.519   7.458
77284SOL    HW133749  13.289   4.588   7.494
77284SOL    HW233750  13.310   4.438   7.496
77285SOL     OW33751  14.824  11.763   6.985
77285SOL    HW133752   0.020  11.736   6.937
77285SOL    HW233753  14.796  11.684   7.031
77286SOL     OW33754   9.683   1.775  11.635
77286SOL    HW133755   9.690   1.698  11.578
77286SOL    HW233756   9.606   1.822  11.603
77287SOL     OW33757   0.082   7.455   0.913
77287SOL    HW133758   0.059   7.547   0.900
77287SOL    HW233759   0.125   7.429   0.831
77288SOL     OW33760   7.213   8.674  11.603
77288SOL    HW133761   7.162   8.599  11.573
77288SOL    HW233762   7.267   8.698  11.527
77289SOL     OW33763  12.476   5.542   0.317
77289SOL    HW133764  12.401   5.486   0.296
77289SOL    HW233765  12.492   5.527   0.410
77290SOL     OW33766   2.407  10.337  12.566
77290SOL    HW133767   2.479  10.288  12.605
77290SOL    HW233768   2.346  10.352  12.639
77291SOL     OW33769   5.004   4.671   0.349
77291SOL    HW133770   5.007   4.587   0.395
77291SOL    HW233771   5.053   4.656   0.268
77292SOL     OW33772   9.687   3.096   5.687
77292SOL    HW133773   9.700   3.115   5.594
77292SOL    HW233774   9.593   3.075   5.694
77293SOL     OW33775   9.185   7.597   6.354
77293SOL    HW133776   9.256   7.609   6.418
77293SOL    HW233777   9.125   7.670   6.372
77294SOL     OW33778   8.409   8.088   0.243
77294SOL    HW133779   8.479   8.044   0.193
77294SOL    HW233780   8.386   8.025   0.311
77295SOL     OW33781   9.057   3.512   8.500
77295SOL    HW133782   9.117   3.582   8.472
77295SOL    HW233783   9.032   3.469   8.418
77296SOL     OW33784  11.737  12.589   5.573
77296SOL    HW133785  11.822  12.553   5.596
77296SOL    HW233786  11.688  12.591   5.655
77297SOL     OW33787  11.576   1.434  11.086
77297SOL    HW133788  11.545   1.475  11.006
77297SOL    HW233789  11.653   1.384  11.059
77298SOL     OW33790   5.096   3.319  12.169
77298SOL    HW133791   5.168   3.363  12.212
77298SOL    HW233792   5.135   3.238  12.134
77299SOL     OW33793  14.079   9.057   2.944
77299SOL    HW133794  14.002   9.017   2.985
77299SOL    HW233795  14.106   8.995   2.877
77300SOL     OW33796   7.007   1.580   1.058
77300SOL    HW133797   7.048   1.632   0.987
77300SOL    HW233798   7.020   1.489   1.031
77301SOL     OW33799   7.447  14.111   8.047
77301SOL    HW133800   7.485  14.023   8.048
77301SOL    HW233801   7.403  14.118   7.962
77302SOL     OW33802  13.946   9.617  13.369
77302SOL    HW133803  13.903   9.701  13.386
77302SOL    HW233804  14.030   9.624  13.415
77303SOL     OW33805   2.106   1.628  12.189
77303SOL    HW133806   2.057   1.629  12.272
77303SOL    HW233807   2.053   1.575  12.130
77304SOL     OW33808   9.102   3.973   3.461
77304SOL    HW133809   9.122   3.891   3.416
77304SOL    HW233810   9.134   4.041   3.402
77305SOL     OW33811   5.336  13.289   9.424
77305SOL    HW133812   5.379  13.309   9.341
77305SOL    HW233813   5.347  13.194   9.435
77306SOL     OW33814   6.548   6.366   0.647
77306SOL    HW133815   6.482   6.396   0.584
77306SOL    HW233816   6.590   6.446   0.678
77307SOL     OW33817  12.078  12.943  10.371
77307SOL    HW133818  12.101  13.007  10.303
77307SOL    HW233819  12.004  12.895  10.333
77308SOL     OW33820   4.338  10.290   5.764
77308SOL    HW133821   4.285  10.222   5.722
77308SOL    HW233822   4.381  10.335   5.691
77309SOL     OW33823   1.025   6.424  14.643
77309SOL    HW133824   1.059   6.367  14.574
77309SOL    HW233825   1.055   6.385  14.725
77310SOL     OW33826   2.238   2.343   0.830
77310SOL    HW133827   2.330   2.347   0.806
77310SOL    HW233828   2.197   2.416   0.784
77311SOL     OW33829   1.155   1.517  13.945
77311SOL    HW133830   1.206   1.469  14.010
77311SOL    HW233831   1.066   1.484  13.954
77312SOL     OW33832   5.374   7.367   1.352
77312SOL    HW133833   5.330   7.312   1.288
77312SOL    HW233834   5.438   7.309   1.394
77313SOL     OW33835   0.649   0.726   3.603
77313SOL    HW133836   0.618   0.809   3.567
77313SOL    HW233837   0.593   0.659   3.563
77314SOL     OW33838   1.314   4.056   6.672
77314SOL    HW133839   1.332   3.969   6.636
77314SOL    HW233840   1.224   4.051   6.703
77315SOL     OW33841  13.879   2.520  14.855
77315SOL    HW133842  13.886   2.615  14.854
77315SOL    HW233843  13.833   2.498  14.774
77316SOL     OW33844   5.734  13.436  11.949
77316SOL    HW133845   5.716  13.445  11.856
77316SOL    HW233846   5.661  13.480  11.992
77317SOL     OW33847   4.364   3.512  12.766
77317SOL    HW133848   4.304   3.451  12.808
77317SOL    HW233849   4.367   3.483  12.675
77318SOL     OW33850   3.405   3.072  13.197
77318SOL    HW133851   3.479   3.071  13.136
77318SOL    HW233852   3.342   3.132  13.158
77319SOL     OW33853   3.137   0.687  11.670
77319SOL    HW133854   3.166   0.773  11.701
77319SOL    HW233855   3.112   0.702  11.578
77320SOL     OW33856   5.188   2.542   0.568
77320SOL    HW133857   5.121   2.599   0.605
77320SOL    HW233858   5.209   2.481   0.639
77321SOL     OW33859   5.065  11.985   5.566
77321SOL    HW133860   5.148  12.008   5.525
77321SOL    HW233861   5.067  11.889   5.574
77322SOL     OW33862  12.616   3.227   6.976
77322SOL    HW133863  12.569   3.146   6.996
77322SOL    HW233864  12.585   3.290   7.041
77323SOL     OW33865   8.081   1.036  13.533
77323SOL    HW133866   8.170   1.059  13.504
77323SOL    HW233867   8.025   1.099  13.488
77324SOL     OW33868   8.575   6.606   4.561
77324SOL    HW133869   8.491   6.638   4.596
77324SOL    HW233870   8.551   6.527   4.512
77325SOL     OW33871  14.617  11.944   2.605
77325SOL    HW133872  14.576  11.861   2.581
77325SOL    HW233873  14.710  11.929   2.593
77326SOL     OW33874   3.994   1.815   1.881
77326SOL    HW133875   4.027   1.900   1.911
77326SOL    HW233876   4.063   1.753   1.907
77327SOL     OW33877  11.982   6.822   8.368
77327SOL    HW133878  11.953   6.833   8.459
77327SOL    HW233879  12.070   6.785   8.376
77328SOL     OW33880  12.725  14.468   4.397
77328SOL    HW133881  12.717  14.529   4.323
77328SOL    HW233882  12.813  14.431   4.387
77329SOL     OW33883  12.342   5.325   8.856
77329SOL    HW133884  12.296   5.284   8.783
77329SOL    HW233885  12.409   5.261   8.881
77330SOL     OW33886   2.891   0.192   5.015
77330SOL    HW133887   2.844   0.274   4.997
77330SOL    HW233888   2.909   0.195   5.109
77331SOL     OW33889   0.888   4.504   2.046
77331SOL    HW133890   0.859   4.568   1.981
77331SOL    HW233891   0.826   4.512   2.118
77332SOL     OW33892   7.726   2.840   8.677
77332SOL    HW133893   7.714   2.781   8.603
77332SOL    HW233894   7.668   2.805   8.745
77333SOL     OW33895  10.076  13.941  13.625
77333SOL    HW133896  10.097  14.029  13.595
77333SOL    HW233897  10.160  13.896  13.630
77334SOL     OW33898   1.910   2.879   6.778
77334SOL    HW133899   1.869   2.810   6.831
77334SOL    HW233900   2.002   2.877   6.803
77335SOL     OW33901  11.090   0.861   0.263
77335SOL    HW133902  11.075   0.905   0.347
77335SOL    HW233903  11.155   0.916   0.219
77336SOL     OW33904   1.771   2.637   6.858
77336SOL    HW133905   1.728   2.660   6.940
77336SOL    HW233906   1.702   2.645   6.791
77337SOL     OW33907  10.772   8.674  12.979
77337SOL    HW133908  10.780   8.682  13.074
77337SOL    HW233909  10.801   8.758  12.945
77338SOL     OW33910   7.134   0.594   0.741
77338SOL    HW133911   7.080   0.626   0.813
77338SOL    HW233912   7.201   0.540   0.782
77339SOL     OW33913  14.105   6.277  13.113
77339SOL    HW133914  14.010   6.262  13.106
77339SOL    HW233915  14.128   6.250  13.201
77340SOL     OW33916   8.075   5.455   1.360
77340SOL    HW133917   8.110   5.543   1.350
77340SOL    HW233918   8.122   5.418   1.434
77341SOL     OW33919   3.105   8.596   4.583
77341SOL    HW133920   3.031   8.643   4.546
77341SOL    HW233921   3.068   8.549   4.658
77342SOL     OW33922  11.649   9.308   5.965
77342SOL    HW133923  11.609   9.259   6.036
77342SOL    HW233924  11.584   9.307   5.895
77343SOL     OW33925   9.479   4.183  13.965
77343SOL    HW133926   9.514   4.176  13.876
77343SOL    HW233927   9.449   4.095  13.986
77344SOL     OW33928   6.906  12.965  10.872
77344SOL    HW133929   6.969  13.022  10.829
77344SOL    HW233930   6.822  13.007  10.858
77345SOL     OW33931   5.941  12.390   1.520
77345SOL    HW133932   5.972  12.316   1.571
77345SOL    HW233933   5.898  12.447   1.585
77346SOL     OW33934   0.137   6.883   7.122
77346SOL    HW133935   0.062   6.843   7.166
77346SOL    HW233936   0.101   6.963   7.084
77347SOL     OW33937  10.149  12.619  11.824
77347SOL    HW133938  10.125  12.628  11.732
77347SOL    HW233939  10.219  12.683  11.837
77348SOL     OW33940   9.008   0.779   8.579
77348SOL    HW133941   8.994   0.869   8.609
77348SOL    HW233942   8.972   0.777   8.491
77349SOL     OW33943   1.697   6.138   7.390
77349SOL    HW133944   1.680   6.054   7.347
77349SOL    HW233945   1.611   6.179   7.396
77350SOL     OW33946  13.875   1.687   7.828
77350SOL    HW133947  13.896   1.745   7.755
77350SOL    HW233948  13.783   1.665   7.816
77351SOL     OW33949   3.643   5.903  13.796
77351SOL    HW133950   3.684   5.828  13.840
77351SOL    HW233951   3.710   5.971  13.797
77352SOL     OW33952   4.652  13.200   7.211
77352SOL    HW133953   4.745  13.224   7.221
77352SOL    HW233954   4.654  13.117   7.164
77353SOL     OW33955   1.251   0.342  14.313
77353SOL    HW133956   1.195   0.280  14.360
77353SOL    HW233957   1.319   0.287  14.274
77354SOL     OW33958   7.212  12.765   7.036
77354SOL    HW133959   7.193  12.858   7.025
77354SOL    HW233960   7.158  12.738   7.110
77355SOL     OW33961   3.858  12.006  14.593
77355SOL    HW133962   3.891  12.094  14.609
77355SOL    HW233963   3.935  11.957  14.564
77356SOL     OW33964   0.088   3.820   2.856
77356SOL    HW133965   0.165   3.845   2.806
77356SOL    HW233966   0.097   3.866   2.940
77357SOL     OW33967   3.618   3.894   2.081
77357SOL    HW133968   3.602   3.968   2.022
77357SOL    HW233969   3.537   3.843   2.078
77358SOL     OW33970   6.684  12.357  13.096
77358SOL    HW133971   6.680  12.392  13.007
77358SOL    HW233972   6.774  12.328  13.107
77359SOL     OW33973  11.786  14.366   2.014
77359SOL    HW133974  11.837  14.422   2.072
77359SOL    HW233975  11.844  14.348   1.940
77360SOL     OW33976   2.920   4.888   8.062
77360SOL    HW133977   2.934   4.929   8.147
77360SOL    HW233978   2.986   4.820   8.057
77361SOL     OW33979   5.878   4.481   0.102
77361SOL    HW133980   5.799   4.429   0.118
77361SOL    HW233981   5.903   4.460   0.013
77362SOL     OW33982   7.773   1.845   2.184
77362SOL    HW133983   7.684   1.827   2.153
77362SOL    HW233984   7.828   1.788   2.131
77363SOL     OW33985   6.300  14.809   6.327
77363SOL    HW133986   6.233  14.767   6.273
77363SOL    HW233987   6.370  14.831   6.265
77364SOL     OW33988  12.112   4.921   4.216
77364SOL    HW133989  12.073   4.877   4.140
77364SOL    HW233990  12.200   4.884   4.221
77365SOL     OW33991   3.845   6.674   3.514
77365SOL    HW133992   3.819   6.624   3.592
77365SOL    HW233993   3.917   6.624   3.476
77366SOL     OW33994   1.533   6.943  11.598
77366SOL    HW133995   1.533   7.034  11.570
77366SOL    HW233996   1.440   6.922  11.614
77367SOL     OW33997   1.469   8.334   9.080
77367SOL    HW133998   1.409   8.298   9.145
77367SOL    HW233999   1.493   8.259   9.026
77368SOL     OW34000   6.121   3.924  11.338
77368SOL    HW134001   6.091   3.849  11.389
77368SOL    HW234002   6.103   3.900  11.247
77369SOL     OW34003   2.740  12.057   1.478
77369SOL    HW134004   2.785  12.131   1.518
77369SOL    HW234005   2.736  11.991   1.547
77370SOL     OW34006   6.356   2.999   0.287
77370SOL    HW134007   6.305   2.930   0.331
77370SOL    HW234008   6.303   3.078   0.298
77371SOL     OW34009   7.280   8.985   6.870
77371SOL    HW134010   7.340   8.911   6.861
77371SOL    HW234011   7.208   8.951   6.922
77372SOL     OW34012   0.100  10.596  10.604
77372SOL    HW134013   0.072  10.509  10.573
77372SOL    HW234014   0.026  10.653  10.584
77373SOL     OW34015  14.396   0.285   7.869
77373SOL    HW134016  14.340   0.356   7.839
77373SOL    HW234017  14.481   0.302   7.828
77374SOL     OW34018   1.773   6.245   0.033
77374SOL    HW134019   1.679   6.251   0.017
77374SOL    HW234020   1.784   6.168   0.089
77375SOL     OW34021   3.025   9.347   3.760
77375SOL    HW134022   3.051   9.304   3.842
77375SOL    HW234023   2.934   9.318   3.746
77376SOL     OW34024   7.749  11.995   5.772
77376SOL    HW134025   7.837  11.985   5.736
77376SOL    HW234026   7.758  12.063   5.839
77377SOL     OW34027   4.267  10.462   8.538
77377SOL    HW134028   4.236  10.479   8.450
77377SOL    HW234029   4.194  10.416   8.581
77378SOL     OW34030  11.845  11.244   3.675
77378SOL    HW134031  11.886  11.328   3.656
77378SOL    HW234032  11.918  11.186   3.698
77379SOL     OW34033  11.059  10.288  11.080
77379SOL    HW134034  10.991  10.222  11.066
77379SOL    HW234035  11.131  10.240  11.121
77380SOL     OW34036  12.744   8.804  12.997
77380SOL    HW134037  12.827   8.780  12.955
77380SOL    HW234038  12.685   8.731  12.977
77381SOL     OW34039  12.275   0.123   8.702
77381SOL    HW134040  12.326   0.067   8.643
77381SOL    HW234041  12.195   0.074   8.719
77382SOL     OW34042  10.045   2.857  13.737
77382SOL    HW134043   9.987   2.835  13.810
77382SOL    HW234044   9.986   2.868  13.662
77383SOL     OW34045   9.411   2.991   6.788
77383SOL    HW134046   9.489   2.955   6.830
77383SOL    HW234047   9.442   3.069   6.742
77384SOL     OW34048  12.481   5.557   2.433
77384SOL    HW134049  12.409   5.536   2.374
77384SOL    HW234050  12.462   5.509   2.514
77385SOL     OW34051   6.308   4.339  12.130
77385SOL    HW134052   6.238   4.298  12.080
77385SOL    HW234053   6.387   4.324  12.078
77386SOL     OW34054  12.683  10.345   0.760
77386SOL    HW134055  12.601  10.298   0.775
77386SOL    HW234056  12.672  10.387   0.674
77387SOL     OW34057   8.361  13.931   7.910
77387SOL    HW134058   8.379  14.003   7.971
77387SOL    HW234059   8.448  13.894   7.892
77388SOL     OW34060   9.119   4.738  11.152
77388SOL    HW134061   9.162   4.734  11.067
77388SOL    HW234062   9.031   4.703  11.137
77389SOL     OW34063   0.671  11.222   9.217
77389SOL    HW134064   0.670  11.139   9.169
77389SOL    HW234065   0.635  11.200   9.303
77390SOL     OW34066   9.303  14.105   4.992
77390SOL    HW134067   9.328  14.198   4.997
77390SOL    HW234068   9.210  14.103   5.015
77391SOL     OW34069   3.536   3.689  11.625
77391SOL    HW134070   3.630   3.670  11.626
77391SOL    HW234071   3.504   3.646  11.546
77392SOL     OW34072   7.714   8.905   9.335
77392SOL    HW134073   7.749   8.979   9.385
77392SOL    HW234074   7.773   8.897   9.260
77393SOL     OW34075  10.539   0.224   0.610
77393SOL    HW134076  10.594   0.287   0.656
77393SOL    HW234077  10.476   0.277   0.562
77394SOL     OW34078   9.194   1.341   5.847
77394SOL    HW134079   9.283   1.370   5.869
77394SOL    HW234080   9.173   1.388   5.766
77395SOL     OW34081  13.710   6.034   2.096
77395SOL    HW134082  13.716   6.060   2.004
77395SOL    HW234083  13.653   6.100   2.136
77396SOL     OW34084   8.372   1.390   5.380
77396SOL    HW134085   8.396   1.392   5.472
77396SOL    HW234086   8.280   1.417   5.379
77397SOL     OW34087  14.406   8.464   7.436
77397SOL    HW134088  14.342   8.500   7.498
77397SOL    HW234089  14.389   8.370   7.436
77398SOL     OW34090   0.719   8.011  11.138
77398SOL    HW134091   0.759   8.097  11.125
77398SOL    HW234092   0.668   7.997  11.058
77399SOL     OW34093  12.862  10.940  11.161
77399SOL    HW134094  12.867  11.035  11.167
77399SOL    HW234095  12.838  10.922  11.071
77400SOL     OW34096  11.887  13.309   4.089
77400SOL    HW134097  11.968  13.300   4.139
77400SOL    HW234098  11.825  13.250   4.131
77401SOL     OW34099  13.590   1.001   9.128
77401SOL    HW134100  13.549   0.918   9.151
77401SOL    HW234101  13.660   0.978   9.067
77402SOL     OW34102   8.320  14.690   7.782
77402SOL    HW134103   8.239  14.718   7.740
77402SOL    HW234104   8.356  14.770   7.821
77403SOL     OW34105   8.243  13.559  10.745
77403SOL    HW134106   8.182  13.632  10.755
77403SOL    HW234107   8.275  13.566  10.655
77404SOL     OW34108   5.727  14.044   4.222
77404SOL    HW134109   5.823  14.039   4.218
77404SOL    HW234110   5.710  14.109   4.291
77405SOL     OW34111  10.210  14.149   6.154
77405SOL    HW134112  10.147  14.093   6.110
77405SOL    HW234113  10.217  14.113   6.242
77406SOL     OW34114  14.261   8.174   1.888
77406SOL    HW134115  14.324   8.222   1.833
77406SOL    HW234116  14.266   8.217   1.973
77407SOL     OW34117  14.076   9.309   1.691
77407SOL    HW134118  14.063   9.366   1.615
77407SOL    HW234119  14.036   9.226   1.666
77408SOL     OW34120   6.799  14.834   3.578
77408SOL    HW134121   6.714  14.819   3.537
77408SOL    HW234122   6.809  14.760   3.638
77409SOL     OW34123  10.484  12.676   2.121
77409SOL    HW134124  10.474  12.753   2.177
77409SOL    HW234125  10.501  12.604   2.182
77410SOL     OW34126  13.049   6.976   9.738
77410SOL    HW134127  12.960   6.953   9.763
77410SOL    HW234128  13.064   7.062   9.777
77411SOL     OW34129   0.997   4.718  14.522
77411SOL    HW134130   1.065   4.656  14.497
77411SOL    HW234131   1.044   4.794  14.556
77412SOL     OW34132  13.459   1.233   5.023
77412SOL    HW134133  13.503   1.283   4.954
77412SOL    HW234134  13.448   1.145   4.986
77413SOL     OW34135   7.635   7.599  11.055
77413SOL    HW134136   7.659   7.577  11.145
77413SOL    HW234137   7.553   7.646  11.063
77414SOL     OW34138  14.191   9.241   7.835
77414SOL    HW134139  14.170   9.159   7.879
77414SOL    HW234140  14.217   9.216   7.747
77415SOL     OW34141   4.860   8.518   2.588
77415SOL    HW134142   4.811   8.452   2.539
77415SOL    HW234143   4.844   8.600   2.541
77416SOL     OW34144   3.565   8.849   2.070
77416SOL    HW134145   3.521   8.899   2.138
77416SOL    HW234146   3.498   8.787   2.040
77417SOL     OW34147  13.573  11.712   4.211
77417SOL    HW134148  13.646  11.737   4.154
77417SOL    HW234149  13.572  11.616   4.207
77418SOL     OW34150  13.998  13.548   1.867
77418SOL    HW134151  13.926  13.571   1.807
77418SOL    HW234152  14.061  13.503   1.812
77419SOL     OW34153  10.021   9.004   3.115
77419SOL    HW134154  10.068   9.006   3.032
77419SOL    HW234155  10.006   9.096   3.137
77420SOL     OW34156   1.012  11.341  14.474
77420SOL    HW134157   0.995  11.263  14.527
77420SOL    HW234158   1.081  11.314  14.413
77421SOL     OW34159   9.631   2.385  10.605
77421SOL    HW134160   9.607   2.367  10.514
77421SOL    HW234161   9.715   2.431  10.599
77422SOL     OW34162   1.637   8.340   0.003
77422SOL    HW134163   1.685   8.260   0.026
77422SOL    HW234164   1.628   8.337  14.790
77423SOL     OW34165  13.569   0.245   7.885
77423SOL    HW134166  13.494   0.275   7.937
77423SOL    HW234167  13.551   0.277   7.796
77424SOL     OW34168   0.338   9.891   1.891
77424SOL    HW134169   0.397   9.948   1.940
77424SOL    HW234170   0.314   9.822   1.953
77425SOL     OW34171   2.221   5.164   8.872
77425SOL    HW134172   2.188   5.077   8.849
77425SOL    HW234173   2.314   5.161   8.852
77426SOL     OW34174   4.876  11.981   4.288
77426SOL    HW134175   4.849  12.008   4.375
77426SOL    HW234176   4.953  12.035   4.269
77427SOL     OW34177  12.727   5.771   9.495
77427SOL    HW134178  12.673   5.777   9.417
77427SOL    HW234179  12.800   5.714   9.469
77428SOL     OW34180   3.277   3.688   6.908
77428SOL    HW134181   3.320   3.615   6.954
77428SOL    HW234182   3.348   3.751   6.892
77429SOL     OW34183  11.462   3.884   2.663
77429SOL    HW134184  11.471   3.971   2.625
77429SOL    HW234185  11.427   3.898   2.750
77430SOL     OW34186   7.099   5.182   2.102
77430SOL    HW134187   7.054   5.100   2.124
77430SOL    HW234188   7.029   5.247   2.095
77431SOL     OW34189  11.772   8.120  12.287
77431SOL    HW134190  11.816   8.036  12.274
77431SOL    HW234191  11.736   8.141  12.200
77432SOL     OW34192   5.053   5.362   3.141
77432SOL    HW134193   5.113   5.433   3.114
77432SOL    HW234194   5.069   5.292   3.077
77433SOL     OW34195   1.007  11.357   0.611
77433SOL    HW134196   1.024  11.398   0.526
77433SOL    HW234197   0.982  11.267   0.590
77434SOL     OW34198   4.230   9.836  11.045
77434SOL    HW134199   4.179   9.778  10.989
77434SOL    HW234200   4.321   9.809  11.031
77435SOL     OW34201   2.949  13.828   3.793
77435SOL    HW134202   2.997  13.829   3.876
77435SOL    HW234203   2.936  13.920   3.771
77436SOL     OW34204   2.487   5.246   2.612
77436SOL    HW134205   2.529   5.191   2.678
77436SOL    HW234206   2.406   5.198   2.590
77437SOL     OW34207   9.434   5.462  12.267
77437SOL    HW134208   9.362   5.436  12.210
77437SOL    HW234209   9.416   5.418  12.350
77438SOL     OW34210   6.895   6.900   5.990
77438SOL    HW134211   6.962   6.850   6.037
77438SOL    HW234212   6.848   6.835   5.938
77439SOL     OW34213   3.076  13.442  12.754
77439SOL    HW134214   3.059  13.403  12.668
77439SOL    HW234215   3.038  13.380  12.816
77440SOL     OW34216   2.845   3.211   1.673
77440SOL    HW134217   2.753   3.183   1.679
77440SOL    HW234218   2.885   3.149   1.612
77441SOL     OW34219  12.949   8.925   2.033
77441SOL    HW134220  12.890   8.856   2.065
77441SOL    HW234221  12.892   9.002   2.024
77442SOL     OW34222   9.731  14.551   8.302
77442SOL    HW134223   9.776  14.625   8.260
77442SOL    HW234224   9.803  14.498   8.338
77443SOL     OW34225  14.787   9.549   7.146
77443SOL    HW134226  14.712   9.597   7.179
77443SOL    HW234227  14.856   9.615   7.138
77444SOL     OW34228   7.418   2.532   7.253
77444SOL    HW134229   7.450   2.620   7.274
77444SOL    HW234230   7.490   2.474   7.276
77445SOL     OW34231  11.748   0.824   8.749
77445SOL    HW134232  11.764   0.857   8.838
77445SOL    HW234233  11.829   0.777   8.727
77446SOL     OW34234   0.404   5.721   9.265
77446SOL    HW134235   0.375   5.812   9.257
77446SOL    HW234236   0.329   5.670   9.235
77447SOL     OW34237   3.825   3.876   6.230
77447SOL    HW134238   3.872   3.830   6.300
77447SOL    HW234239   3.871   3.959   6.222
77448SOL     OW34240   2.889  14.113  12.514
77448SOL    HW134241   2.800  14.096  12.547
77448SOL    HW234242   2.915  14.194  12.559
77449SOL     OW34243   9.977  13.855   1.130
77449SOL    HW134244  10.059  13.817   1.160
77449SOL    HW234245   9.934  13.886   1.209
77450SOL     OW34246   5.578  12.210   5.879
77450SOL    HW134247   5.669  12.194   5.854
77450SOL    HW234248   5.554  12.135   5.933
77451SOL     OW34249  11.428   7.840  11.846
77451SOL    HW134250  11.416   7.921  11.796
77451SOL    HW234251  11.443   7.773  11.779
77452SOL     OW34252   5.951   5.173  12.385
77452SOL    HW134253   5.859   5.201  12.394
77452SOL    HW234254   6.002   5.253  12.402
77453SOL     OW34255   4.056   7.604   8.712
77453SOL    HW134256   4.105   7.595   8.794
77453SOL    HW234257   3.965   7.612   8.740
77454SOL     OW34258   1.539   3.361   0.504
77454SOL    HW134259   1.507   3.271   0.511
77454SOL    HW234260   1.604   3.368   0.573
77455SOL     OW34261   0.325   1.168   9.394
77455SOL    HW134262   0.293   1.258   9.385
77455SOL    HW234263   0.273   1.119   9.330
77456SOL     OW34264  13.946   3.180  10.591
77456SOL    HW134265  13.854   3.160  10.609
77456SOL    HW234266  13.943   3.248  10.525
77457SOL     OW34267   0.217   1.277   8.452
77457SOL    HW134268   0.304   1.261   8.488
77457SOL    HW234269   0.200   1.370   8.468
77458SOL     OW34270   4.889   7.446   6.035
77458SOL    HW134271   4.915   7.531   6.070
77458SOL    HW234272   4.899   7.455   5.940
77459SOL     OW34273   0.619  11.318   5.245
77459SOL    HW134274   0.549  11.300   5.308
77459SOL    HW234275   0.630  11.413   5.248
77460SOL     OW34276  13.407   5.037   4.173
77460SOL    HW134277  13.361   5.041   4.089
77460SOL    HW234278  13.495   5.067   4.153
77461SOL     OW34279  10.732   4.222  10.454
77461SOL    HW134280  10.815   4.233  10.499
77461SOL    HW234281  10.668   4.266  10.511
77462SOL     OW34282   6.955  13.052  14.712
77462SOL    HW134283   6.884  13.076  14.772
77462SOL    HW234284   6.954  13.120  14.645
77463SOL     OW34285  14.774  13.252  12.270
77463SOL    HW134286  14.687  13.214  12.276
77463SOL    HW234287  14.773  13.323  12.334
77464SOL     OW34288   2.776  13.344   3.314
77464SOL    HW134289   2.820  13.425   3.339
77464SOL    HW234290   2.844  13.277   3.318
77465SOL     OW34291  13.145  13.393  11.050
77465SOL    HW134292  13.181  13.465  10.999
77465SOL    HW234293  13.080  13.434  11.107
77466SOL     OW34294  11.724  14.802   6.733
77466SOL    HW134295  11.693  14.797   6.823
77466SOL    HW234296  11.669  14.869   6.692
77467SOL     OW34297  13.902  11.452   4.152
77467SOL    HW134298  13.939  11.408   4.228
77467SOL    HW234299  13.813  11.475   4.179
77468SOL     OW34300   7.998  14.728   8.635
77468SOL    HW134301   7.929  14.662   8.630
77468SOL    HW234302   7.956  14.808   8.603
77469SOL     OW34303  13.042   8.644   9.307
77469SOL    HW134304  13.017   8.710   9.372
77469SOL    HW234305  12.992   8.669   9.229
77470SOL     OW34306   4.982   0.281   2.067
77470SOL    HW134307   4.969   0.288   1.972
77470SOL    HW234308   4.922   0.211   2.093
77471SOL     OW34309   8.117   4.399   8.179
77471SOL    HW134310   8.131   4.330   8.244
77471SOL    HW234311   8.031   4.435   8.200
77472SOL     OW34312   2.392  12.232  10.246
77472SOL    HW134313   2.333  12.255  10.175
77472SOL    HW234314   2.470  12.285  10.232
77473SOL     OW34315   7.466   5.511   5.068
77473SOL    HW134316   7.503   5.470   4.990
77473SOL    HW234317   7.533   5.498   5.136
77474SOL     OW34318   1.486   9.652   0.238
77474SOL    HW134319   1.473   9.720   0.172
77474SOL    HW234320   1.525   9.698   0.313
77475SOL     OW34321   4.211   5.025   5.240
77475SOL    HW134322   4.294   4.984   5.260
77475SOL    HW234323   4.207   5.026   5.144
77476SOL     OW34324   1.220   6.650  13.608
77476SOL    HW134325   1.204   6.602  13.689
77476SOL    HW234326   1.190   6.590  13.539
77477SOL     OW34327  14.835   9.510   4.015
77477SOL    HW134328   0.005   9.456   4.075
77477SOL    HW234329  14.814   9.588   4.066
77478SOL     OW34330  12.800  14.103   8.283
77478SOL    HW134331  12.881  14.084   8.331
77478SOL    HW234332  12.792  14.032   8.219
77479SOL     OW34333   6.302  12.028   5.011
77479SOL    HW134334   6.293  12.102   5.071
77479SOL    HW234335   6.394  12.028   4.986
77480SOL     OW34336  11.017   1.605   0.707
77480SOL    HW134337  11.060   1.565   0.631
77480SOL    HW234338  10.950   1.542   0.733
77481SOL     OW34339   1.500   5.070   6.047
77481SOL    HW134340   1.585   5.111   6.032
77481SOL    HW234341   1.511   5.019   6.127
77482SOL     OW34342   5.508  14.492  14.721
77482SOL    HW134343   5.426  14.499  14.673
77482SOL    HW234344   5.482  14.459  14.807
77483SOL     OW34345   0.744   1.359   1.612
77483SOL    HW134346   0.678   1.410   1.659
77483SOL    HW234347   0.809   1.336   1.679
77484SOL     OW34348   7.940  14.006  11.206
77484SOL    HW134349   7.984  14.060  11.271
77484SOL    HW234350   7.982  14.029  11.123
77485SOL     OW34351  11.047   7.378  12.654
77485SOL    HW134352  11.119   7.378  12.592
77485SOL    HW234353  11.021   7.286  12.661
77486SOL     OW34354   2.559   1.208  13.575
77486SOL    HW134355   2.541   1.229  13.667
77486SOL    HW234356   2.633   1.264  13.551
77487SOL     OW34357   8.775  10.918   5.710
77487SOL    HW134358   8.791  10.856   5.639
77487SOL    HW234359   8.761  10.864   5.787
77488SOL     OW34360   5.520   9.668   7.543
77488SOL    HW134361   5.559   9.639   7.626
77488SOL    HW234362   5.521   9.764   7.549
77489SOL     OW34363   5.007  14.631   6.103
77489SOL    HW134364   5.081  14.620   6.163
77489SOL    HW234365   5.036  14.698   6.042
77490SOL     OW34366   0.392   4.857  11.278
77490SOL    HW134367   0.365   4.939  11.236
77490SOL    HW234368   0.316   4.831  11.330
77491SOL     OW34369   5.310   6.536  13.674
77491SOL    HW134370   5.398   6.546  13.639
77491SOL    HW234371   5.322   6.530  13.769
77492SOL     OW34372   6.727  13.508   2.335
77492SOL    HW134373   6.788  13.436   2.322
77492SOL    HW234374   6.651  13.468   2.379
77493SOL     OW34375   1.505  11.517   2.564
77493SOL    HW134376   1.545  11.534   2.479
77493SOL    HW234377   1.542  11.432   2.591
77494SOL     OW34378   9.003   3.723   3.890
77494SOL    HW134379   9.065   3.719   3.817
77494SOL    HW234380   9.031   3.652   3.948
77495SOL     OW34381   2.294   0.170   7.151
77495SOL    HW134382   2.255   0.196   7.068
77495SOL    HW234383   2.367   0.231   7.164
77496SOL     OW34384   0.124   7.500  10.587
77496SOL    HW134385   0.123   7.424  10.645
77496SOL    HW234386   0.069   7.475  10.513
77497SOL     OW34387  11.871  12.496   4.356
77497SOL    HW134388  11.869  12.561   4.425
77497SOL    HW234389  11.962  12.468   4.351
77498SOL     OW34390   7.138   1.985   3.315
77498SOL    HW134391   7.056   2.013   3.275
77498SOL    HW234392   7.127   2.004   3.408
77499SOL     OW34393  11.674   4.195   0.469
77499SOL    HW134394  11.593   4.237   0.440
77499SOL    HW234395  11.704   4.250   0.541
77500SOL     OW34396   2.917  13.517  12.471
77500SOL    HW134397   2.974  13.555  12.404
77500SOL    HW234398   2.829  13.548  12.449
77501SOL     OW34399   2.870   8.437  11.880
77501SOL    HW134400   2.826   8.475  11.956
77501SOL    HW234401   2.963   8.450  11.898
77502SOL     OW34402   2.189   0.270   6.902
77502SOL    HW134403   2.112   0.216   6.920
77502SOL    HW234404   2.158   0.334   6.838
77503SOL     OW34405  14.254   6.320   2.432
77503SOL    HW134406  14.171   6.331   2.386
77503SOL    HW234407  14.303   6.400   2.412
77504SOL     OW34408   6.613   2.042   4.227
77504SOL    HW134409   6.694   2.007   4.263
77504SOL    HW234410   6.571   2.086   4.302
77505SOL     OW34411  13.198   2.662   3.642
77505SOL    HW134412  13.185   2.692   3.732
77505SOL    HW234413  13.264   2.593   3.649
77506SOL     OW34414   4.904   2.354   4.644
77506SOL    HW134415   4.871   2.404   4.719
77506SOL    HW234416   4.847   2.380   4.571
77507SOL     OW34417  11.313  12.544  12.720
77507SOL    HW134418  11.340  12.615  12.778
77507SOL    HW234419  11.335  12.575  12.632
77508SOL     OW34420  14.041   1.676   8.196
77508SOL    HW134421  13.986   1.606   8.162
77508SOL    HW234422  14.098   1.633   8.260
77509SOL     OW34423   7.157  13.831   8.841
77509SOL    HW134424   7.133  13.920   8.816
77509SOL    HW234425   7.080  13.778   8.819
77510SOL     OW34426  13.881   1.672   9.414
77510SOL    HW134427  13.922   1.587   9.429
77510SOL    HW234428  13.885   1.685   9.319
77511SOL     OW34429  13.075   9.062   8.856
77511SOL    HW134430  13.099   9.117   8.931
77511SOL    HW234431  13.090   8.973   8.886
77512SOL     OW34432   2.090  14.471  13.401
77512SOL    HW134433   2.023  14.534  13.374
77512SOL    HW234434   2.173  14.515  13.383
77513SOL     OW34435   1.870  13.054   7.445
77513SOL    HW134436   1.822  13.038   7.526
77513SOL    HW234437   1.957  13.080   7.474
77514SOL     OW34438  11.158   1.484   8.045
77514SOL    HW134439  11.137   1.559   7.989
77514SOL    HW234440  11.142   1.407   7.990
77515SOL     OW34441   5.956   2.552  10.542
77515SOL    HW134442   5.928   2.521  10.628
77515SOL    HW234443   5.931   2.482  10.482
77516SOL     OW34444  14.113   4.175   3.749
77516SOL    HW134445  14.127   4.124   3.829
77516SOL    HW234446  14.116   4.111   3.678
77517SOL     OW34447   6.633  10.886   5.813
77517SOL    HW134448   6.668  10.903   5.725
77517SOL    HW234449   6.561  10.948   5.822
77518SOL     OW34450  11.611   4.629  11.054
77518SOL    HW134451  11.657   4.612  11.136
77518SOL    HW234452  11.566   4.712  11.067
77519SOL     OW34453  13.470   5.540  13.030
77519SOL    HW134454  13.552   5.550  12.981
77519SOL    HW234455  13.495   5.489  13.107
77520SOL     OW34456   2.516  11.039  13.164
77520SOL    HW134457   2.563  11.049  13.247
77520SOL    HW234458   2.438  10.987  13.187
77521SOL     OW34459   3.729   4.624   6.571
77521SOL    HW134460   3.721   4.539   6.615
77521SOL    HW234461   3.646   4.636   6.526
77522SOL     OW34462   8.360  13.567   8.872
77522SOL    HW134463   8.432  13.514   8.838
77522SOL    HW234464   8.395  13.606   8.952
77523SOL     OW34465   6.433  12.736   2.674
77523SOL    HW134466   6.491  12.724   2.599
77523SOL    HW234467   6.403  12.648   2.696
77524SOL     OW34468   9.533   6.200  11.175
77524SOL    HW134469   9.488   6.283  11.161
77524SOL    HW234470   9.543   6.193  11.270
77525SOL     OW34471   6.968   2.009   3.556
77525SOL    HW134472   6.973   2.000   3.651
77525SOL    HW234473   6.911   2.084   3.541
77526SOL     OW34474   7.855   5.545   5.840
77526SOL    HW134475   7.901   5.617   5.883
77526SOL    HW234476   7.884   5.548   5.749
77527SOL     OW34477   8.889  14.348  13.898
77527SOL    HW134478   8.832  14.273  13.915
77527SOL    HW234479   8.947  14.352  13.974
77528SOL     OW34480   6.495   0.326   6.342
77528SOL    HW134481   6.472   0.268   6.270
77528SOL    HW234482   6.412   0.362   6.372
77529SOL     OW34483   9.788   4.654   1.830
77529SOL    HW134484   9.756   4.711   1.760
77529SOL    HW234485   9.709   4.627   1.877
77530SOL     OW34486   5.197   4.665   7.535
77530SOL    HW134487   5.235   4.577   7.531
77530SOL    HW234488   5.272   4.723   7.545
77531SOL     OW34489   2.032   3.864   2.082
77531SOL    HW134490   1.974   3.798   2.119
77531SOL    HW234491   2.002   3.875   1.992
77532SOL     OW34492   4.874   0.789  10.006
77532SOL    HW134493   4.873   0.872  10.052
77532SOL    HW234494   4.865   0.723  10.074
77533SOL     OW34495   0.898   0.659  14.065
77533SOL    HW134496   0.855   0.575  14.049
77533SOL    HW234497   0.826   0.721  14.075
77534SOL     OW34498   7.656   0.076  12.963
77534SOL    HW134499   7.643  14.868  12.990
77534SOL    HW234500   7.570   0.105  12.934
77535SOL     OW34501  11.897   6.294  13.263
77535SOL    HW134502  11.820   6.350  13.257
77535SOL    HW234503  11.915   6.288  13.356
77536SOL     OW34504   7.055  12.379  12.590
77536SOL    HW134505   7.047  12.344  12.678
77536SOL    HW234506   7.137  12.429  12.591
77537SOL     OW34507  10.357   3.644  10.586
77537SOL    HW134508  10.432   3.618  10.640
77537SOL    HW234509  10.311   3.562  10.567
77538SOL     OW34510  12.391   0.687  14.700
77538SOL    HW134511  12.455   0.647  14.758
77538SOL    HW234512  12.422   0.665  14.612
77539SOL     OW34513  12.127   7.755  12.623
77539SOL    HW134514  12.175   7.758  12.540
77539SOL    HW234515  12.178   7.695  12.678
77540SOL     OW34516   3.559   0.292   0.282
77540SOL    HW134517   3.485   0.283   0.343
77540SOL    HW234518   3.529   0.358   0.219
77541SOL     OW34519  13.674  11.794   8.400
77541SOL    HW134520  13.648  11.749   8.480
77541SOL    HW234521  13.623  11.750   8.331
77542SOL     OW34522   7.766  13.785   8.281
77542SOL    HW134523   7.674  13.806   8.292
77542SOL    HW234524   7.799  13.851   8.220
77543SOL     OW34525   5.790   6.302   9.854
77543SOL    HW134526   5.845   6.226   9.836
77543SOL    HW234527   5.782   6.304   9.950
77544SOL     OW34528   0.956   9.781   2.112
77544SOL    HW134529   0.949   9.865   2.067
77544SOL    HW234530   1.038   9.743   2.079
77545SOL     OW34531  11.526   1.516   9.374
77545SOL    HW134532  11.466   1.582   9.339
77545SOL    HW234533  11.532   1.536   9.467
77546SOL     OW34534   2.135   1.293  10.554
77546SOL    HW134535   2.224   1.323  10.573
77546SOL    HW234536   2.092   1.289  10.640
77547SOL     OW34537   8.725   9.334   1.402
77547SOL    HW134538   8.633   9.336   1.374
77547SOL    HW234539   8.732   9.408   1.462
77548SOL     OW34540   2.241   3.279   2.722
77548SOL    HW134541   2.256   3.233   2.639
77548SOL    HW234542   2.240   3.210   2.788
77549SOL     OW34543   3.467   2.973   6.904
77549SOL    HW134544   3.408   2.905   6.872
77549SOL    HW234545   3.513   3.005   6.826
77550SOL     OW34546   3.081   6.972  13.196
77550SOL    HW134547   3.108   7.036  13.130
77550SOL    HW234548   3.152   6.973  13.261
77551SOL     OW34549  13.979  13.662   2.580
77551SOL    HW134550  14.039  13.621   2.642
77551SOL    HW234551  13.951  13.590   2.523
77552SOL     OW34552   9.771  10.803   4.764
77552SOL    HW134553   9.858  10.776   4.793
77552SOL    HW234554   9.715  10.727   4.781
77553SOL     OW34555   3.221   4.124   2.532
77553SOL    HW134556   3.295   4.126   2.471
77553SOL    HW234557   3.210   4.215   2.559
77554SOL     OW34558   0.497   8.877  13.346
77554SOL    HW134559   0.498   8.813  13.417
77554SOL    HW234560   0.430   8.940  13.372
77555SOL     OW34561  10.279   6.869  11.600
77555SOL    HW134562  10.254   6.848  11.510
77555SOL    HW234563  10.264   6.963  11.607
77556SOL     OW34564   9.258  13.034   6.369
77556SOL    HW134565   9.282  12.974   6.440
77556SOL    HW234566   9.244  12.977   6.294
77557SOL     OW34567   1.693   0.677   4.526
77557SOL    HW134568   1.630   0.605   4.526
77557SOL    HW234569   1.640   0.755   4.537
77558SOL     OW34570   3.228   1.379   4.384
77558SOL    HW134571   3.151   1.333   4.417
77558SOL    HW234572   3.296   1.312   4.381
77559SOL     OW34573   0.643  13.820  12.152
77559SOL    HW134574   0.674  13.904  12.188
77559SOL    HW234575   0.669  13.822  12.060
77560SOL     OW34576   5.339   3.592   0.417
77560SOL    HW134577   5.335   3.669   0.474
77560SOL    HW234578   5.284   3.615   0.342
77561SOL     OW34579   4.584   7.177   2.384
77561SOL    HW134580   4.542   7.233   2.450
77561SOL    HW234581   4.511   7.142   2.333
77562SOL     OW34582  11.364   7.835  12.577
77562SOL    HW134583  11.399   7.923  12.593
77562SOL    HW234584  11.274   7.851  12.548
77563SOL     OW34585   4.526   9.377  11.528
77563SOL    HW134586   4.622   9.385  11.528
77563SOL    HW234587   4.509   9.289  11.494
77564SOL     OW34588   2.314   1.417   4.535
77564SOL    HW134589   2.271   1.332   4.525
77564SOL    HW234590   2.405   1.401   4.509
77565SOL     OW34591   2.741  10.632   5.964
77565SOL    HW134592   2.698  10.678   6.036
77565SOL    HW234593   2.708  10.675   5.885
77566SOL     OW34594   5.526   7.091   8.323
77566SOL    HW134595   5.608   7.111   8.278
77566SOL    HW234596   5.505   7.171   8.372
77567SOL     OW34597   8.214  14.103   8.575
77567SOL    HW134598   8.294  14.080   8.621
77567SOL    HW234599   8.146  14.105   8.643
77568SOL     OW34600   2.505   4.916   6.272
77568SOL    HW134601   2.422   4.869   6.271
77568SOL    HW234602   2.552   4.882   6.195
77569SOL     OW34603   0.628  12.963  10.565
77569SOL    HW134604   0.557  13.027  10.561
77569SOL    HW234605   0.655  12.951  10.474
77570SOL     OW34606   0.478   8.773   1.205
77570SOL    HW134607   0.502   8.729   1.123
77570SOL    HW234608   0.562   8.804   1.241
77571SOL     OW34609  13.574  11.582   3.597
77571SOL    HW134610  13.626  11.529   3.537
77571SOL    HW234611  13.495  11.603   3.548
77572SOL     OW34612   3.296  13.924   6.773
77572SOL    HW134613   3.292  13.856   6.705
77572SOL    HW234614   3.389  13.933   6.792
77573SOL     OW34615   2.539  13.186   9.908
77573SOL    HW134616   2.456  13.214   9.947
77573SOL    HW234617   2.606  13.230   9.960
77574SOL     OW34618  13.162   8.079   7.864
77574SOL    HW134619  13.219   8.003   7.866
77574SOL    HW234620  13.073   8.043   7.856
77575SOL     OW34621   8.495  13.021   1.092
77575SOL    HW134622   8.443  13.036   1.013
77575SOL    HW234623   8.488  13.103   1.140
77576SOL     OW34624  10.691   6.243   7.070
77576SOL    HW134625  10.746   6.238   7.148
77576SOL    HW234626  10.679   6.152   7.042
77577SOL     OW34627  11.169  11.196  13.131
77577SOL    HW134628  11.244  11.206  13.072
77577SOL    HW234629  11.153  11.284  13.164
77578SOL     OW34630   8.283   8.945   4.048
77578SOL    HW134631   8.207   8.903   4.008
77578SOL    HW234632   8.270   9.038   4.030
77579SOL     OW34633   7.722   1.011  11.540
77579SOL    HW134634   7.672   0.945  11.589
77579SOL    HW234635   7.808   0.972  11.529
77580SOL     OW34636   1.994   3.389   5.884
77580SOL    HW134637   1.924   3.455   5.881
77580SOL    HW234638   1.968   3.322   5.822
77581SOL     OW34639  11.679   3.535   8.242
77581SOL    HW134640  11.681   3.576   8.329
77581SOL    HW234641  11.769   3.543   8.210
77582SOL     OW34642  11.474   4.239  10.568
77582SOL    HW134643  11.549   4.266  10.620
77582SOL    HW234644  11.477   4.144  10.568
77583SOL     OW34645   5.331   9.817   7.773
77583SOL    HW134646   5.303   9.877   7.842
77583SOL    HW234647   5.345   9.734   7.818
77584SOL     OW34648   8.468  11.468   4.028
77584SOL    HW134649   8.545  11.446   3.975
77584SOL    HW234650   8.488  11.435   4.115
77585SOL     OW34651   2.625   1.729  10.050
77585SOL    HW134652   2.713   1.755  10.027
77585SOL    HW234653   2.568   1.796  10.012
77586SOL     OW34654   5.163   0.086   9.489
77586SOL    HW134655   5.153   0.142   9.413
77586SOL    HW234656   5.257   0.069   9.495
77587SOL     OW34657   2.884   9.582   5.939
77587SOL    HW134658   2.906   9.676   5.936
77587SOL    HW234659   2.837   9.567   5.857
77588SOL     OW34660  13.162   1.327  10.041
77588SOL    HW134661  13.119   1.390   9.983
77588SOL    HW234662  13.195   1.260   9.982
77589SOL     OW34663  10.624  14.595   9.202
77589SOL    HW134664  10.555  14.642   9.154
77589SOL    HW234665  10.580  14.519   9.240
77590SOL     OW34666   5.820  13.048  11.154
77590SOL    HW134667   5.794  13.061  11.245
77590SOL    HW234668   5.848  12.956  11.150
77591SOL     OW34669   5.369  11.818  12.754
77591SOL    HW134670   5.425  11.894  12.763
77591SOL    HW234671   5.282  11.854  12.737
77592SOL     OW34672   7.801  13.881   3.885
77592SOL    HW134673   7.868  13.892   3.817
77592SOL    HW234674   7.805  13.788   3.908
77593SOL     OW34675  10.576  14.582   1.957
77593SOL    HW134676  10.504  14.581   1.894
77593SOL    HW234677  10.533  14.568   2.042
77594SOL     OW34678  12.832   5.369   5.047
77594SOL    HW134679  12.741   5.389   5.068
77594SOL    HW234680  12.828   5.285   5.002
77595SOL     OW34681   5.422   3.108  10.409
77595SOL    HW134682   5.405   3.065  10.325
77595SOL    HW234683   5.335   3.130  10.443
77596SOL     OW34684   6.752   5.411  13.806
77596SOL    HW134685   6.720   5.407  13.896
77596SOL    HW234686   6.674   5.399  13.752
77597SOL     OW34687   7.752   5.372  12.916
77597SOL    HW134688   7.758   5.290  12.867
77597SOL    HW234689   7.675   5.416  12.881
77598SOL     OW34690  13.231   8.944  13.920
77598SOL    HW134691  13.288   9.008  13.962
77598SOL    HW234692  13.221   8.976  13.830
77599SOL     OW34693  10.604   9.051  12.655
77599SOL    HW134694  10.523   9.013  12.691
77599SOL    HW234695  10.587   9.145  12.653
77600SOL     OW34696   1.145   8.793  11.801
77600SOL    HW134697   1.205   8.726  11.834
77600SOL    HW234698   1.160   8.794  11.706
77601SOL     OW34699   1.877  12.257  10.510
77601SOL    HW134700   1.936  12.296  10.446
77601SOL    HW234701   1.790  12.285  10.482
77602SOL     OW34702   1.973  14.515   2.328
77602SOL    HW134703   2.060  14.477   2.343
77602SOL    HW234704   1.978  14.550   2.239
77603SOL     OW34705   8.823   6.239   7.449
77603SOL    HW134706   8.767   6.292   7.392
77603SOL    HW234707   8.765   6.168   7.479
77604SOL     OW34708   1.692  14.653   1.077
77604SOL    HW134709   1.709  14.728   1.133
77604SOL    HW234710   1.768  14.649   1.019
77605SOL     OW34711   5.545  12.240   9.242
77605SOL    HW134712   5.536  12.193   9.159
77605SOL    HW234713   5.464  12.224   9.288
77606SOL     OW34714  10.884   8.853   4.594
77606SOL    HW134715  10.970   8.884   4.564
77606SOL    HW234716  10.901   8.767   4.632
77607SOL     OW34717   5.050  11.492  12.201
77607SOL    HW134718   5.138  11.528  12.202
77607SOL    HW234719   5.041  11.447  12.285
77608SOL     OW34720   6.097   0.798   5.419
77608SOL    HW134721   6.112   0.888   5.447
77608SOL    HW234722   6.113   0.800   5.324
77609SOL     OW34723   2.659  10.748   6.236
77609SOL    HW134724   2.693  10.683   6.298
77609SOL    HW234725   2.577  10.709   6.203
77610SOL     OW34726  11.743   1.452   6.989
77610SOL    HW134727  11.709   1.412   6.909
77610SOL    HW234728  11.765   1.541   6.964
77611SOL     OW34729   1.784   4.012   3.217
77611SOL    HW134730   1.824   3.944   3.163
77611SOL    HW234731   1.795   3.981   3.307
77612SOL     OW34732   3.301  10.068   5.631
77612SOL    HW134733   3.374  10.055   5.571
77612SOL    HW234734   3.332  10.134   5.693
77613SOL     OW34735   9.858   9.396  14.201
77613SOL    HW134736   9.763   9.402  14.212
77613SOL    HW234737   9.871   9.323  14.140
77614SOL     OW34738  13.276   6.520   6.345
77614SOL    HW134739  13.276   6.454   6.275
77614SOL    HW234740  13.261   6.469   6.425
77615SOL     OW34741   0.247   3.028  11.374
77615SOL    HW134742   0.213   3.031  11.464
77615SOL    HW234743   0.169   3.033  11.319
77616SOL     OW34744   6.807  11.205   6.133
77616SOL    HW134745   6.733  11.262   6.112
77616SOL    HW234746   6.767  11.120   6.151
77617SOL     OW34747  14.601   6.658  10.207
77617SOL    HW134748  14.664   6.665  10.135
77617SOL    HW234749  14.643   6.702  10.280
77618SOL     OW34750  13.152   2.647  12.296
77618SOL    HW134751  13.196   2.567  12.324
77618SOL    HW234752  13.198   2.717  12.342
77619SOL     OW34753   2.337   3.363   7.534
77619SOL    HW134754   2.420   3.409   7.520
77619SOL    HW234755   2.361   3.288   7.589
77620SOL     OW34756  12.742  13.954  13.839
77620SOL    HW134757  12.653  13.945  13.804
77620SOL    HW234758  12.729  13.991  13.927
77621SOL     OW34759  12.906  12.633  11.645
77621SOL    HW134760  12.813  12.631  11.667
77621SOL    HW234761  12.945  12.689  11.712
77622SOL     OW34762   5.015   4.566   9.995
77622SOL    HW134763   5.055   4.486   9.959
77622SOL    HW234764   5.086   4.607  10.045
77623SOL     OW34765   0.160  12.403   5.014
77623SOL    HW134766   0.241  12.410   5.065
77623SOL    HW234767   0.115  12.327   5.051
77624SOL     OW34768   3.767   6.872  10.694
77624SOL    HW134769   3.701   6.864  10.625
77624SOL    HW234770   3.846   6.835  10.656
77625SOL     OW34771   0.213  10.302   3.850
77625SOL    HW134772   0.183  10.263   3.932
77625SOL    HW234773   0.303  10.271   3.840
77626SOL     OW34774  14.824   5.757  14.535
77626SOL    HW134775  14.820   5.796  14.622
77626SOL    HW234776  14.844   5.830  14.477
77627SOL     OW34777   1.439  10.349   2.804
77627SOL    HW134778   1.506  10.413   2.827
77627SOL    HW234779   1.442  10.285   2.876
77628SOL     OW34780   2.161  12.674   4.903
77628SOL    HW134781   2.102  12.633   4.840
77628SOL    HW234782   2.221  12.605   4.929
77629SOL     OW34783  14.853   8.931   6.350
77629SOL    HW134784   0.052   8.945   6.300
77629SOL    HW234785  14.864   8.844   6.388
77630SOL     OW34786   3.990  14.257   4.129
77630SOL    HW134787   4.059  14.298   4.077
77630SOL    HW234788   3.912  14.261   4.074
77631SOL     OW34789   3.346   2.546  13.124
77631SOL    HW134790   3.411   2.616  13.119
77631SOL    HW234791   3.262   2.592  13.122
77632SOL     OW34792   4.482  12.942  10.773
77632SOL    HW134793   4.467  13.036  10.779
77632SOL    HW234794   4.569  12.929  10.811
77633SOL     OW34795   7.933   3.793   7.684
77633SOL    HW134796   7.840   3.770   7.691
77633SOL    HW234797   7.934   3.880   7.644
77634SOL     OW34798  10.544   9.600  10.024
77634SOL    HW134799  10.525   9.518  10.069
77634SOL    HW234800  10.506   9.588   9.937
77635SOL     OW34801   5.525  10.038   1.464
77635SOL    HW134802   5.569  10.085   1.535
77635SOL    HW234803   5.586  10.044   1.391
77636SOL     OW34804   4.666   7.461   5.155
77636SOL    HW134805   4.672   7.546   5.200
77636SOL    HW234806   4.583   7.466   5.107
77637SOL     OW34807   6.788   4.047  11.793
77637SOL    HW134808   6.744   4.132  11.794
77637SOL    HW234809   6.752   4.001  11.717
77638SOL     OW34810   1.645   7.183   6.901
77638SOL    HW134811   1.670   7.138   6.820
77638SOL    HW234812   1.667   7.121   6.970
77639SOL     OW34813  14.518  13.871   1.694
77639SOL    HW134814  14.430  13.888   1.660
77639SOL    HW234815  14.577  13.917   1.634
77640SOL     OW34816  12.738   7.473   5.713
77640SOL    HW134817  12.832   7.474   5.733
77640SOL    HW234818  12.704   7.552   5.754
77641SOL     OW34819   1.343   1.897   4.282
77641SOL    HW134820   1.328   1.803   4.287
77641SOL    HW234821   1.433   1.909   4.310
77642SOL     OW34822  14.255  11.162   6.988
77642SOL    HW134823  14.295  11.246   6.966
77642SOL    HW234824  14.165  11.184   7.012
77643SOL     OW34825  10.468  10.871  14.059
77643SOL    HW134826  10.446  10.782  14.086
77643SOL    HW234827  10.561  10.868  14.037
77644SOL     OW34828   4.554   3.965  11.087
77644SOL    HW134829   4.483   3.947  11.148
77644SOL    HW234830   4.623   3.904  11.112
77645SOL     OW34831   5.428   2.784   4.600
77645SOL    HW134832   5.479   2.711   4.565
77645SOL    HW234833   5.437   2.853   4.534
77646SOL     OW34834   7.305   7.621  12.528
77646SOL    HW134835   7.350   7.537  12.520
77646SOL    HW234836   7.309   7.659  12.440
77647SOL     OW34837  11.723   9.018   2.379
77647SOL    HW134838  11.681   8.966   2.311
77647SOL    HW234839  11.810   9.037   2.344
77648SOL     OW34840   7.306  14.855   7.987
77648SOL    HW134841   7.281   0.065   7.997
77648SOL    HW234842   7.401  14.855   8.001
77649SOL     OW34843  10.040  13.225   6.212
77649SOL    HW134844  10.126  13.247   6.174
77649SOL    HW234845  10.031  13.285   6.286
77650SOL     OW34846   9.488   2.262   5.373
77650SOL    HW134847   9.497   2.219   5.288
77650SOL    HW234848   9.469   2.353   5.352
77651SOL     OW34849  12.666   3.386   9.817
77651SOL    HW134850  12.608   3.437   9.761
77651SOL    HW234851  12.722   3.338   9.756
77652SOL     OW34852  10.074   6.126   9.846
77652SOL    HW134853  10.059   6.220   9.836
77652SOL    HW234854  10.166   6.114   9.825
77653SOL     OW34855   8.318   5.430  13.587
77653SOL    HW134856   8.323   5.412  13.493
77653SOL    HW234857   8.403   5.402  13.621
77654SOL     OW34858   7.839   0.112   7.800
77654SOL    HW134859   7.810   0.193   7.759
77654SOL    HW234860   7.881   0.140   7.881
77655SOL     OW34861   3.894   4.145  13.950
77655SOL    HW134862   3.964   4.198  13.912
77655SOL    HW234863   3.816   4.168  13.900
77656SOL     OW34864   7.869   5.222   6.554
77656SOL    HW134865   7.958   5.222   6.521
77656SOL    HW234866   7.865   5.147   6.613
77657SOL     OW34867   1.347  10.430   6.764
77657SOL    HW134868   1.401  10.423   6.842
77657SOL    HW234869   1.266  10.470   6.794
77658SOL     OW34870  11.728   7.590   6.633
77658SOL    HW134871  11.723   7.585   6.537
77658SOL    HW234872  11.738   7.684   6.651
77659SOL     OW34873  13.586   7.273   9.703
77659SOL    HW134874  13.613   7.364   9.702
77659SOL    HW234875  13.649   7.229   9.761
77660SOL     OW34876   0.921  14.262  13.515
77660SOL    HW134877   0.873  14.259  13.598
77660SOL    HW234878   1.013  14.273  13.541
77661SOL     OW34879   6.265  11.358   4.967
77661SOL    HW134880   6.288  11.423   5.033
77661SOL    HW234881   6.344  11.306   4.956
77662SOL     OW34882  13.523   4.814   4.376
77662SOL    HW134883  13.452   4.861   4.332
77662SOL    HW234884  13.478   4.757   4.439
77663SOL     OW34885  14.252   7.137   7.316
77663SOL    HW134886  14.197   7.077   7.266
77663SOL    HW234887  14.203   7.152   7.397
77664SOL     OW34888   9.287  14.290  13.445
77664SOL    HW134889   9.227  14.318  13.514
77664SOL    HW234890   9.232  14.242  13.383
77665SOL     OW34891  14.346  10.473   6.707
77665SOL    HW134892  14.292  10.426   6.643
77665SOL    HW234893  14.432  10.430   6.702
77666SOL     OW34894  12.580   5.902   7.614
77666SOL    HW134895  12.639   5.870   7.683
77666SOL    HW234896  12.563   5.825   7.560
77667SOL     OW34897   8.482   3.197  13.937
77667SOL    HW134898   8.475   3.255  13.861
77667SOL    HW234899   8.438   3.116  13.910
77668SOL     OW34900   5.368   8.058  12.693
77668SOL    HW134901   5.344   8.106  12.613
77668SOL    HW234902   5.330   8.110  12.764
77669SOL     OW34903   9.548   4.715  14.480
77669SOL    HW134904   9.618   4.730  14.543
77669SOL    HW234905   9.555   4.622  14.458
77670SOL     OW34906   8.532  11.181   4.776
77670SOL    HW134907   8.578  11.157   4.695
77670SOL    HW234908   8.445  11.142   4.767
77671SOL     OW34909   8.055   9.993   1.025
77671SOL    HW134910   8.064   9.902   1.055
77671SOL    HW234911   8.074  10.046   1.103
77672SOL     OW34912   1.178  11.408   7.285
77672SOL    HW134913   1.209  11.331   7.238
77672SOL    HW234914   1.136  11.374   7.364
77673SOL     OW34915   0.881   9.559   1.488
77673SOL    HW134916   0.820   9.578   1.559
77673SOL    HW234917   0.886   9.463   1.486
77674SOL     OW34918  14.214   3.336   9.394
77674SOL    HW134919  14.296   3.287   9.392
77674SOL    HW234920  14.241   3.428   9.385
77675SOL     OW34921   0.366  14.378  11.441
77675SOL    HW134922   0.424  14.309  11.473
77675SOL    HW234923   0.425  14.445  11.407
77676SOL     OW34924   5.517   0.965   5.790
77676SOL    HW134925   5.582   0.901   5.761
77676SOL    HW234926   5.505   0.947   5.883
77677SOL     OW34927   1.595   3.204  14.701
77677SOL    HW134928   1.613   3.298  14.703
77677SOL    HW234929   1.500   3.197  14.709
77678SOL     OW34930   3.138  11.416   8.764
77678SOL    HW134931   3.160  11.326   8.740
77678SOL    HW234932   3.049  11.429   8.732
77679SOL     OW34933   7.553   0.983   9.062
77679SOL    HW134934   7.607   1.044   9.012
77679SOL    HW234935   7.463   1.004   9.037
77680SOL     OW34936  14.262   1.381   7.739
77680SOL    HW134937  14.281   1.429   7.658
77680SOL    HW234938  14.349   1.358   7.773
77681SOL     OW34939   3.935   3.079  12.248
77681SOL    HW134940   4.019   3.034  12.259
77681SOL    HW234941   3.957   3.156  12.195
77682SOL     OW34942   4.506   8.868   1.866
77682SOL    HW134943   4.451   8.917   1.805
77682SOL    HW234944   4.538   8.794   1.815
77683SOL     OW34945   0.602  12.164   5.017
77683SOL    HW134946   0.633  12.098   4.955
77683SOL    HW234947   0.681  12.192   5.064
77684SOL     OW34948  10.677   5.258   0.074
77684SOL    HW134949  10.768   5.256   0.106
77684SOL    HW234950  10.656   5.165   0.060
77685SOL     OW34951   5.485  12.745  11.120
77685SOL    HW134952   5.496  12.704  11.206
77685SOL    HW234953   5.527  12.684  11.059
77686SOL     OW34954   4.589   3.584  12.081
77686SOL    HW134955   4.574   3.492  12.060
77686SOL    HW234956   4.610   3.625  11.997
77687SOL     OW34957   4.505   1.798  11.231
77687SOL    HW134958   4.525   1.705  11.243
77687SOL    HW234959   4.589   1.838  11.209
77688SOL     OW34960   3.841   8.761   3.864
77688SOL    HW134961   3.781   8.782   3.935
77688SOL    HW234962   3.832   8.666   3.852
77689SOL     OW34963  14.068   5.719   7.920
77689SOL    HW134964  14.126   5.773   7.974
77689SOL    HW234965  13.984   5.720   7.965
77690SOL     OW34966   8.316   2.940  12.842
77690SOL    HW134967   8.300   2.864  12.898
77690SOL    HW234968   8.242   2.998  12.858
77691SOL     OW34969   1.277   7.391   7.910
77691SOL    HW134970   1.314   7.475   7.939
77691SOL    HW234971   1.344   7.327   7.934
77692SOL     OW34972  10.443   6.445  14.540
77692SOL    HW134973  10.482   6.530  14.520
77692SOL    HW234974  10.436   6.401  14.455
77693SOL     OW34975   3.634  10.487   5.762
77693SOL    HW134976   3.568  10.420   5.780
77693SOL    HW234977   3.718  10.440   5.765
77694SOL     OW34978   8.550   8.290   1.450
77694SOL    HW134979   8.629   8.261   1.496
77694SOL    HW234980   8.540   8.382   1.475
77695SOL     OW34981   5.368  12.252  10.645
77695SOL    HW134982   5.331  12.260  10.733
77695SOL    HW234983   5.292  12.257  10.587
77696SOL     OW34984   8.562   3.843  13.315
77696SOL    HW134985   8.472   3.867  13.293
77696SOL    HW234986   8.563   3.747  13.312
77697SOL     OW34987   0.449   9.864   5.772
77697SOL    HW134988   0.368   9.874   5.723
77697SOL    HW234989   0.473   9.772   5.760
77698SOL     OW34990  14.349   7.956  12.741
77698SOL    HW134991  14.404   7.957  12.819
77698SOL    HW234992  14.314   8.045  12.734
77699SOL     OW34993   9.491   7.427   4.376
77699SOL    HW134994   9.432   7.502   4.381
77699SOL    HW234995   9.532   7.435   4.289
77700SOL     OW34996   2.131  11.926   7.060
77700SOL    HW134997   2.149  11.940   7.153
77700SOL    HW234998   2.205  11.873   7.029
77701SOL     OW34999   9.793  14.391  10.747
77701SOL    HW135000   9.869  14.448  10.755
77701SOL    HW235001   9.803  14.327  10.817
77702SOL     OW35002  10.659   5.402   7.249
77702SOL    HW135003  10.707   5.481   7.275
77702SOL    HW235004  10.621   5.425   7.164
77703SOL     OW35005   9.129   6.304  13.038
77703SOL    HW135006   9.106   6.213  13.057
77703SOL    HW235007   9.173   6.334  13.118
77704SOL     OW35008  10.400  11.328   3.073
77704SOL    HW135009  10.366  11.394   3.133
77704SOL    HW235010  10.410  11.249   3.127
77705SOL     OW35011   5.493   8.798  11.367
77705SOL    HW135012   5.530   8.731  11.425
77705SOL    HW235013   5.569   8.834  11.321
77706SOL     OW35014  14.698   4.924   6.519
77706SOL    HW135015  14.643   4.851   6.548
77706SOL    HW235016  14.673   4.938   6.428
77707SOL     OW35017  12.028   6.658   3.747
77707SOL    HW135018  11.962   6.697   3.804
77707SOL    HW235019  12.012   6.697   3.661
77708SOL     OW35020   2.106   8.791   5.964
77708SOL    HW135021   2.032   8.787   5.903
77708SOL    HW235022   2.136   8.701   5.971
77709SOL     OW35023   5.334  11.461   3.481
77709SOL    HW135024   5.360  11.375   3.514
77709SOL    HW235025   5.241  11.453   3.463
77710SOL     OW35026   6.594  11.438   8.871
77710SOL    HW135027   6.503  11.461   8.888
77710SOL    HW235028   6.605  11.455   8.777
77711SOL     OW35029  14.850  12.641   8.383
77711SOL    HW135030  14.783  12.593   8.334
77711SOL    HW235031  14.801  12.696   8.443
77712SOL     OW35032   6.087   6.126   1.704
77712SOL    HW135033   6.160   6.096   1.649
77712SOL    HW235034   6.129   6.163   1.782
77713SOL     OW35035  12.459   1.078   3.084
77713SOL    HW135036  12.492   1.000   3.039
77713SOL    HW235037  12.538   1.127   3.108
77714SOL     OW35038   9.227   8.182   7.168
77714SOL    HW135039   9.137   8.153   7.154
77714SOL    HW235040   9.225   8.276   7.156
77715SOL     OW35041   3.755  13.531   4.987
77715SOL    HW135042   3.737  13.522   5.080
77715SOL    HW235043   3.696  13.601   4.957
77716SOL     OW35044  14.800   0.946  10.700
77716SOL    HW135045  14.757   0.902  10.626
77716SOL    HW235046  14.823   0.875  10.760
77717SOL     OW35047  12.433  13.646   3.637
77717SOL    HW135048  12.369  13.596   3.687
77717SOL    HW235049  12.458  13.718   3.695
77718SOL     OW35050  14.131   8.560   7.925
77718SOL    HW135051  14.213   8.595   7.961
77718SOL    HW235052  14.157   8.516   7.845
77719SOL     OW35053   6.911   8.989   3.325
77719SOL    HW135054   6.959   9.024   3.400
77719SOL    HW235055   6.976   8.939   3.275
77720SOL     OW35056   9.822   2.737   1.256
77720SOL    HW135057   9.909   2.776   1.262
77720SOL    HW235058   9.786   2.772   1.174
77721SOL     OW35059   7.993   9.697  11.120
77721SOL    HW135060   8.073   9.681  11.169
77721SOL    HW235061   8.017   9.682  11.029
77722SOL     OW35062  12.297   2.015  14.436
77722SOL    HW135063  12.219   1.992  14.487
77722SOL    HW235064  12.303   2.110  14.443
77723SOL     OW35065  10.657  12.609   3.010
77723SOL    HW135066  10.722  12.590   3.078
77723SOL    HW235067  10.602  12.531   3.006
77724SOL     OW35068   6.721   3.487   0.231
77724SOL    HW135069   6.631   3.455   0.221
77724SOL    HW235070   6.721   3.572   0.186
77725SOL     OW35071   4.972   0.367   3.937
77725SOL    HW135072   5.029   0.428   3.982
77725SOL    HW235073   5.017   0.282   3.945
77726SOL     OW35074  12.952   7.373   1.598
77726SOL    HW135075  12.944   7.280   1.619
77726SOL    HW235076  12.999   7.411   1.672
77727SOL     OW35077   7.895   0.330   4.759
77727SOL    HW135078   7.940   0.378   4.689
77727SOL    HW235079   7.949   0.344   4.836
77728SOL     OW35080   9.254  10.123  10.112
77728SOL    HW135081   9.195  10.140  10.185
77728SOL    HW235082   9.319  10.193  10.117
77729SOL     OW35083   5.906   6.156  12.065
77729SOL    HW135084   5.926   6.085  12.127
77729SOL    HW235085   5.978   6.153  12.003
77730SOL     OW35086   7.310   4.580  13.009
77730SOL    HW135087   7.324   4.627  13.091
77730SOL    HW235088   7.248   4.510  13.031
77731SOL     OW35089   0.296   7.751   0.545
77731SOL    HW135090   0.333   7.828   0.502
77731SOL    HW235091   0.203   7.772   0.554
77732SOL     OW35092   9.781   0.983  14.384
77732SOL    HW135093   9.803   0.968  14.476
77732SOL    HW235094   9.856   0.949  14.335
77733SOL     OW35095   3.879   4.280   0.967
77733SOL    HW135096   3.895   4.319   1.053
77733SOL    HW235097   3.960   4.297   0.918
77734SOL     OW35098   8.777   1.733   8.024
77734SOL    HW135099   8.688   1.703   8.042
77734SOL    HW235100   8.828   1.653   8.016
77735SOL     OW35101   1.061  13.726  13.852
77735SOL    HW135102   1.129  13.690  13.795
77735SOL    HW235103   1.047  13.658  13.918
77736SOL     OW35104  12.819   4.922  13.497
77736SOL    HW135105  12.814   4.954  13.407
77736SOL    HW235106  12.825   4.827  13.489
77737SOL     OW35107   1.133   4.085  12.487
77737SOL    HW135108   1.101   3.996  12.503
77737SOL    HW235109   1.056   4.140  12.492
77738SOL     OW35110   4.543   5.567   3.702
77738SOL    HW135111   4.587   5.482   3.709
77738SOL    HW235112   4.504   5.566   3.615
77739SOL     OW35113  11.404   5.944   8.183
77739SOL    HW135114  11.318   5.945   8.142
77739SOL    HW235115  11.465   5.923   8.112
77740SOL     OW35116   4.351   4.663   7.298
77740SOL    HW135117   4.297   4.711   7.234
77740SOL    HW235118   4.424   4.629   7.246
77741SOL     OW35119   0.200   3.966  11.139
77741SOL    HW135120   0.220   3.895  11.079
77741SOL    HW235121   0.169   3.923  11.219
77742SOL     OW35122  10.926   8.680  14.754
77742SOL    HW135123  11.005   8.625  14.760
77742SOL    HW235124  10.916   8.716  14.842
77743SOL     OW35125   3.238   3.274   3.001
77743SOL    HW135126   3.327   3.275   2.965
77743SOL    HW235127   3.238   3.198   3.060
77744SOL     OW35128  14.032  13.078   4.044
77744SOL    HW135129  14.013  13.021   4.119
77744SOL    HW235130  14.114  13.044   4.009
77745SOL     OW35131  14.038   2.829   9.572
77745SOL    HW135132  13.968   2.804   9.512
77745SOL    HW235133  14.118   2.822   9.520
77746SOL     OW35134   9.559  13.681  12.304
77746SOL    HW135135   9.629  13.743  12.285
77746SOL    HW235136   9.605  13.602  12.334
77747SOL     OW35137  11.936   8.836   8.865
77747SOL    HW135138  11.940   8.930   8.845
77747SOL    HW235139  11.843   8.815   8.863
77748SOL     OW35140  13.176   2.236   0.635
77748SOL    HW135141  13.222   2.242   0.719
77748SOL    HW235142  13.159   2.142   0.623
77749SOL     OW35143   8.599   2.690   7.545
77749SOL    HW135144   8.649   2.610   7.564
77749SOL    HW235145   8.558   2.712   7.629
77750SOL     OW35146  10.957  13.432   5.764
77750SOL    HW135147  10.906  13.353   5.776
77750SOL    HW235148  11.007  13.441   5.845
77751SOL     OW35149  10.135   7.888   5.916
77751SOL    HW135150  10.049   7.895   5.875
77751SOL    HW235151  10.173   7.976   5.907
77752SOL     OW35152   9.565  14.761  10.991
77752SOL    HW135153   9.472  14.748  10.968
77752SOL    HW235154   9.573  14.720  11.078
77753SOL     OW35155   0.457   8.862  10.088
77753SOL    HW135156   0.501   8.927  10.143
77753SOL    HW235157   0.455   8.783  10.141
77754SOL     OW35158   3.376  11.413   3.775
77754SOL    HW135159   3.420  11.329   3.789
77754SOL    HW235160   3.438  11.478   3.809
77755SOL     OW35161   3.393   0.533  11.217
77755SOL    HW135162   3.312   0.581  11.201
77755SOL    HW235163   3.461   0.590  11.181
77756SOL     OW35164   2.116  13.294  14.339
77756SOL    HW135165   2.054  13.278  14.411
77756SOL    HW235166   2.190  13.338  14.381
77757SOL     OW35167   8.720   5.637   3.961
77757SOL    HW135168   8.674   5.689   3.895
77757SOL    HW235169   8.813   5.643   3.937
77758SOL     OW35170  11.848   9.719  10.292
77758SOL    HW135171  11.773   9.692  10.239
77758SOL    HW235172  11.920   9.727  10.229
77759SOL     OW35173   2.916   1.592   9.128
77759SOL    HW135174   2.994   1.558   9.171
77759SOL    HW235175   2.862   1.516   9.110
77760SOL     OW35176   3.936  11.660   9.033
77760SOL    HW135177   3.870  11.696   8.974
77760SOL    HW235178   3.993  11.734   9.053
77761SOL     OW35179   7.275   6.967  13.293
77761SOL    HW135180   7.364   6.935  13.309
77761SOL    HW235181   7.275   7.055  13.330
77762SOL     OW35182  13.543  14.739   2.908
77762SOL    HW135183  13.517  14.697   2.826
77762SOL    HW235184  13.574  14.667   2.963
77763SOL     OW35185  13.579   3.735   2.982
77763SOL    HW135186  13.627   3.752   2.902
77763SOL    HW235187  13.568   3.820   3.023
77764SOL     OW35188  11.003  13.688   3.000
77764SOL    HW135189  10.915  13.696   3.036
77764SOL    HW235190  11.045  13.771   3.022
77765SOL     OW35191   5.579  12.729   6.201
77765SOL    HW135192   5.618  12.805   6.244
77765SOL    HW235193   5.647  12.663   6.201
77766SOL     OW35194  14.408  12.001   2.241
77766SOL    HW135195  14.404  11.986   2.147
77766SOL    HW235196  14.319  12.027   2.265
77767SOL     OW35197  13.444  10.524   3.856
77767SOL    HW135198  13.394  10.605   3.850
77767SOL    HW235199  13.527  10.551   3.898
77768SOL     OW35200   4.746  10.361   5.750
77768SOL    HW135201   4.792  10.402   5.676
77768SOL    HW235202   4.658  10.398   5.746
77769SOL     OW35203   1.571   5.816  12.062
77769SOL    HW135204   1.623   5.872  12.004
77769SOL    HW235205   1.499   5.786  12.007
77770SOL     OW35206   9.261  12.203   6.270
77770SOL    HW135207   9.355  12.204   6.252
77770SOL    HW235208   9.227  12.133   6.214
77771SOL     OW35209   9.466   7.506   0.242
77771SOL    HW135210   9.548   7.490   0.194
77771SOL    HW235211   9.406   7.540   0.176
77772SOL     OW35212   7.888  14.374   6.762
77772SOL    HW135213   7.834  14.302   6.727
77772SOL    HW235214   7.940  14.403   6.687
77773SOL     OW35215  14.187   5.363   4.981
77773SOL    HW135216  14.259   5.426   4.978
77773SOL    HW235217  14.122   5.398   4.921
77774SOL     OW35218   1.041   5.404   8.039
77774SOL    HW135219   1.024   5.346   8.114
77774SOL    HW235220   1.134   5.423   8.045
77775SOL     OW35221  14.492  11.178   1.169
77775SOL    HW135222  14.409  11.132   1.184
77775SOL    HW235223  14.526  11.195   1.257
77776SOL     OW35224  10.657   1.754   7.875
77776SOL    HW135225  10.591   1.719   7.815
77776SOL    HW235226  10.706   1.677   7.904
77777SOL     OW35227  13.269   9.932   3.732
77777SOL    HW135228  13.225   9.983   3.664
77777SOL    HW235229  13.344   9.893   3.687
77778SOL     OW35230   4.579   7.345  14.268
77778SOL    HW135231   4.608   7.336  14.177
77778SOL    HW235232   4.485   7.326  14.265
77779SOL     OW35233   7.009   2.976   7.716
77779SOL    HW135234   7.018   2.886   7.747
77779SOL    HW235235   6.992   3.027   7.796
77780SOL     OW35236  11.761   4.794   3.467
77780SOL    HW135237  11.826   4.830   3.407
77780SOL    HW235238  11.755   4.701   3.443
77781SOL     OW35239   2.251   3.730   2.218
77781SOL    HW135240   2.206   3.740   2.302
77781SOL    HW235241   2.193   3.773   2.155
77782SOL     OW35242   3.271   8.126   4.824
77782SOL    HW135243   3.228   8.041   4.831
77782SOL    HW235244   3.287   8.153   4.915
77783SOL     OW35245  10.385   7.343   3.472
77783SOL    HW135246  10.375   7.267   3.416
77783SOL    HW235247  10.298   7.383   3.475
77784SOL     OW35248   2.113   4.378   6.727
77784SOL    HW135249   2.116   4.328   6.645
77784SOL    HW235250   2.020   4.398   6.740
77785SOL     OW35251  10.558   5.219   9.317
77785SOL    HW135252  10.590   5.302   9.283
77785SOL    HW235253  10.472   5.208   9.277
77786SOL     OW35254   3.181  10.595   4.364
77786SOL    HW135255   3.233  10.631   4.291
77786SOL    HW235256   3.245  10.581   4.433
77787SOL     OW35257   7.686   6.887   9.737
77787SOL    HW135258   7.630   6.822   9.779
77787SOL    HW235259   7.758   6.836   9.700
77788SOL     OW35260  13.353  14.350  12.204
77788SOL    HW135261  13.435  14.316  12.239
77788SOL    HW235262  13.345  14.437  12.242
77789SOL     OW35263  12.569  13.258  10.082
77789SOL    HW135264  12.633  13.214  10.027
77789SOL    HW235265  12.497  13.196  10.089
77790SOL     OW35266   6.268  11.067   3.732
77790SOL    HW135267   6.175  11.078   3.747
77790SOL    HW235268   6.281  10.972   3.730
77791SOL     OW35269   7.950   2.709  13.235
77791SOL    HW135270   7.972   2.619  13.259
77791SOL    HW235271   8.010   2.763  13.287
77792SOL     OW35272   1.513   4.369  10.345
77792SOL    HW135273   1.468   4.444  10.306
77792SOL    HW235274   1.445   4.302  10.353
77793SOL     OW35275   9.193   7.082   0.565
77793SOL    HW135276   9.182   7.086   0.660
77793SOL    HW235277   9.103   7.079   0.531
77794SOL     OW35278  13.547   2.835  11.459
77794SOL    HW135279  13.599   2.913  11.440
77794SOL    HW235280  13.580   2.769  11.397
77795SOL     OW35281   0.384   0.007  11.203
77795SOL    HW135282   0.359  14.855  11.117
77795SOL    HW235283   0.317  14.855  11.263
77796SOL     OW35284  12.509  10.874   7.808
77796SOL    HW135285  12.494  10.867   7.714
77796SOL    HW235286  12.470  10.794   7.844
77797SOL     OW35287   0.939  10.011  13.782
77797SOL    HW135288   0.954   9.918  13.765
77797SOL    HW235289   0.851  10.027  13.750
77798SOL     OW35290   9.661  13.018   2.468
77798SOL    HW135291   9.708  12.950   2.517
77798SOL    HW235292   9.573  13.019   2.506
77799SOL     OW35293   3.814   7.974   4.700
77799SOL    HW135294   3.883   7.951   4.638
77799SOL    HW235295   3.775   7.890   4.724
77800SOL     OW35296   5.662   8.218   8.404
77800SOL    HW135297   5.757   8.229   8.404
77800SOL    HW235298   5.627   8.306   8.420
77801SOL     OW35299   8.640   3.984   2.414
77801SOL    HW135300   8.609   4.029   2.335
77801SOL    HW235301   8.570   3.922   2.435
77802SOL     OW35302   5.666   7.419   1.275
77802SOL    HW135303   5.686   7.361   1.348
77802SOL    HW235304   5.587   7.466   1.303
77803SOL     OW35305   1.635   5.893   2.686
77803SOL    HW135306   1.546   5.925   2.668
77803SOL    HW235307   1.654   5.833   2.614
77804SOL     OW35308   0.379   2.673   7.410
77804SOL    HW135309   0.361   2.768   7.411
77804SOL    HW235310   0.433   2.659   7.487
77805SOL     OW35311   3.942  10.491   8.145
77805SOL    HW135312   4.027  10.498   8.101
77805SOL    HW235313   3.882  10.540   8.088
77806SOL     OW35314   8.717   6.571   8.193
77806SOL    HW135315   8.786   6.517   8.153
77806SOL    HW235316   8.748   6.661   8.182
77807SOL     OW35317   9.937   0.646   3.356
77807SOL    HW135318   9.899   0.658   3.269
77807SOL    HW235319   9.938   0.733   3.394
77808SOL     OW35320   0.107  13.689   1.427
77808SOL    HW135321   0.048  13.616   1.408
77808SOL    HW235322   0.076  13.724   1.510
77809SOL     OW35323  10.809   0.040  10.693
77809SOL    HW135324  10.820   0.131  10.666
77809SOL    HW235325  10.885   0.022  10.749
77810SOL     OW35326   6.429   3.238  10.296
77810SOL    HW135327   6.457   3.196  10.214
77810SOL    HW235328   6.505   3.232  10.354
77811SOL     OW35329   1.860  12.036   6.460
77811SOL    HW135330   1.790  12.018   6.523
77811SOL    HW235331   1.929  12.078   6.512
77812SOL     OW35332   1.738   7.621   9.914
77812SOL    HW135333   1.697   7.638   9.829
77812SOL    HW235334   1.828   7.596   9.893
77813SOL     OW35335   4.018   3.632  12.204
77813SOL    HW135336   4.058   3.667  12.124
77813SOL    HW235337   4.084   3.574  12.240
77814SOL     OW35338  11.087  12.328   7.504
77814SOL    HW135339  11.150  12.288   7.445
77814SOL    HW235340  11.123  12.415   7.521
77815SOL     OW35341  12.635  13.114   6.296
77815SOL    HW135342  12.705  13.153   6.349
77815SOL    HW235343  12.656  13.141   6.206
77816SOL     OW35344   3.662   2.997   6.433
77816SOL    HW135345   3.696   3.034   6.352
77816SOL    HW235346   3.577   2.960   6.408
77817SOL     OW35347  11.443  10.743   1.320
77817SOL    HW135348  11.367  10.795   1.346
77817SOL    HW235349  11.512  10.768   1.382
77818SOL     OW35350  10.282   2.213  14.099
77818SOL    HW135351  10.222   2.141  14.116
77818SOL    HW235352  10.363   2.188  14.143
77819SOL     OW35353   2.886   5.820   0.090
77819SOL    HW135354   2.918   5.899   0.046
77819SOL    HW235355   2.941   5.750   0.056
77820SOL     OW35356   9.462   4.626  13.966
77820SOL    HW135357   9.486   4.718  13.976
77820SOL    HW235358   9.367   4.624  13.981
77821SOL     OW35359  11.261  13.528   2.121
77821SOL    HW135360  11.271  13.542   2.215
77821SOL    HW235361  11.334  13.471   2.097
77822SOL     OW35362  14.250   8.405   0.630
77822SOL    HW135363  14.177   8.464   0.649
77822SOL    HW235364  14.279   8.374   0.716
77823SOL     OW35365   7.660   8.341  14.591
77823SOL    HW135366   7.754   8.354  14.603
77823SOL    HW235367   7.632   8.294  14.670
77824SOL     OW35368  13.993   4.707   3.471
77824SOL    HW135369  13.924   4.773   3.462
77824SOL    HW235370  14.072   4.750   3.438
77825SOL     OW35371   1.666   2.606   9.074
77825SOL    HW135372   1.665   2.666   9.149
77825SOL    HW235373   1.623   2.527   9.106
77826SOL     OW35374   3.973  14.709   9.558
77826SOL    HW135375   3.927  14.657   9.492
77826SOL    HW235376   4.021  14.644   9.610
77827SOL     OW35377   9.785   8.582  10.017
77827SOL    HW135378   9.726   8.594  10.092
77827SOL    HW235379   9.839   8.661  10.017
77828SOL     OW35380  12.051   4.465  13.178
77828SOL    HW135381  12.096   4.479  13.095
77828SOL    HW235382  11.976   4.411  13.156
77829SOL     OW35383   1.770   9.035   4.770
77829SOL    HW135384   1.762   9.030   4.675
77829SOL    HW235385   1.722   9.115   4.794
77830SOL     OW35386   0.539   8.352   7.641
77830SOL    HW135387   0.530   8.432   7.695
77830SOL    HW235388   0.625   8.318   7.664
77831SOL     OW35389  12.967   4.641   6.959
77831SOL    HW135390  12.936   4.701   7.027
77831SOL    HW235391  12.891   4.587   6.939
77832SOL     OW35392   5.232  14.224   3.517
77832SOL    HW135393   5.226  14.215   3.422
77832SOL    HW235394   5.146  14.256   3.545
77833SOL     OW35395  10.222  13.398  11.693
77833SOL    HW135396  10.270  13.454  11.631
77833SOL    HW235397  10.134  13.392  11.656
77834SOL     OW35398   1.086   0.587  14.709
77834SOL    HW135399   1.054   0.585  14.799
77834SOL    HW235400   1.068   0.500  14.674
77835SOL     OW35401  11.333  11.200   9.439
77835SOL    HW135402  11.338  11.234   9.528
77835SOL    HW235403  11.319  11.278   9.384
77836SOL     OW35404  11.458   7.940   4.624
77836SOL    HW135405  11.376   7.936   4.575
77836SOL    HW235406  11.472   7.850   4.654
77837SOL     OW35407  11.094   7.567   3.823
77837SOL    HW135408  11.031   7.523   3.880
77837SOL    HW235409  11.045   7.640   3.786
77838SOL     OW35410   9.018   5.330   4.059
77838SOL    HW135411   8.934   5.350   4.018
77838SOL    HW235412   9.083   5.340   3.989
77839SOL     OW35413   1.885  10.735   0.153
77839SOL    HW135414   1.808  10.700   0.109
77839SOL    HW235415   1.878  10.703   0.243
77840SOL     OW35416   6.135   4.703   3.597
77840SOL    HW135417   6.073   4.776   3.608
77840SOL    HW235418   6.209   4.726   3.654
77841SOL     OW35419  12.415  10.132  11.122
77841SOL    HW135420  12.341  10.071  11.121
77841SOL    HW235421  12.473  10.099  11.190
77842SOL     OW35422   1.989   0.554   5.127
77842SOL    HW135423   1.995   0.630   5.070
77842SOL    HW235424   2.048   0.574   5.200
77843SOL     OW35425  14.231   6.867   4.725
77843SOL    HW135426  14.253   6.942   4.669
77843SOL    HW235427  14.171   6.815   4.673
77844SOL     OW35428  12.598   7.194   4.095
77844SOL    HW135429  12.566   7.274   4.137
77844SOL    HW235430  12.551   7.124   4.140
77845SOL     OW35431   3.163  12.500   9.896
77845SOL    HW135432   3.085  12.488   9.844
77845SOL    HW235433   3.201  12.582   9.864
77846SOL     OW35434  14.754  13.291   7.780
77846SOL    HW135435  14.689  13.234   7.737
77846SOL    HW235436  14.821  13.230   7.812
77847SOL     OW35437   5.635   1.222  14.068
77847SOL    HW135438   5.700   1.290  14.086
77847SOL    HW235439   5.550   1.264  14.083
77848SOL     OW35440  10.011  14.727  10.487
77848SOL    HW135441  10.062  14.806  10.505
77848SOL    HW235442   9.920  14.756  10.492
77849SOL     OW35443  13.390  11.522  13.596
77849SOL    HW135444  13.386  11.452  13.661
77849SOL    HW235445  13.299  11.550  13.586
77850SOL     OW35446   6.940   9.267   8.831
77850SOL    HW135447   7.012   9.295   8.774
77850SOL    HW235448   6.980   9.260   8.918
77851SOL     OW35449  11.256   1.132   7.381
77851SOL    HW135450  11.166   1.157   7.401
77851SOL    HW235451  11.262   1.040   7.409
77852SOL     OW35452  10.321   0.114  14.484
77852SOL    HW135453  10.305   0.020  14.492
77852SOL    HW235454  10.296   0.135  14.394
77853SOL     OW35455   4.553   2.575   3.228
77853SOL    HW135456   4.481   2.580   3.292
77853SOL    HW235457   4.605   2.500   3.257
77854SOL     OW35458  12.266   5.975   1.993
77854SOL    HW135459  12.249   5.990   2.086
77854SOL    HW235460  12.327   6.045   1.968
77855SOL     OW35461   9.822   1.738  12.666
77855SOL    HW135462   9.870   1.656  12.674
77855SOL    HW235463   9.734   1.712  12.640
77856SOL     OW35464   1.440   5.185  12.951
77856SOL    HW135465   1.531   5.175  12.922
77856SOL    HW235466   1.419   5.102  12.993
77857SOL     OW35467   7.828   1.274   0.649
77857SOL    HW135468   7.797   1.183   0.649
77857SOL    HW235469   7.762   1.321   0.597
77858SOL     OW35470   1.158  13.665   4.104
77858SOL    HW135471   1.188  13.579   4.076
77858SOL    HW235472   1.145  13.714   4.022
77859SOL     OW35473   2.562  12.770   5.490
77859SOL    HW135474   2.554  12.779   5.395
77859SOL    HW235475   2.637  12.825   5.513
77860SOL     OW35476   3.208   2.118   1.761
77860SOL    HW135477   3.174   2.157   1.680
77860SOL    HW235478   3.255   2.189   1.804
77861SOL     OW35479   4.036   3.715  11.226
77861SOL    HW135480   4.116   3.752  11.265
77861SOL    HW235481   4.057   3.706  11.133
77862SOL     OW35482   4.206   3.345   0.105
77862SOL    HW135483   4.195   3.406   0.032
77862SOL    HW235484   4.133   3.365   0.164
77863SOL     OW35485   4.798  11.103  14.294
77863SOL    HW135486   4.755  11.068  14.372
77863SOL    HW235487   4.865  11.162  14.328
77864SOL     OW35488  10.921   4.986   2.209
77864SOL    HW135489  10.928   5.074   2.173
77864SOL    HW235490  10.869   4.997   2.289
77865SOL     OW35491   7.628  11.632  13.275
77865SOL    HW135492   7.611  11.538  13.272
77865SOL    HW235493   7.582  11.663  13.353
77866SOL     OW35494   6.846  11.191   9.185
77866SOL    HW135495   6.783  11.122   9.169
77866SOL    HW235496   6.823  11.260   9.122
77867SOL     OW35497   9.815   6.749   2.301
77867SOL    HW135498   9.750   6.734   2.233
77867SOL    HW235499   9.879   6.808   2.261
77868SOL     OW35500  14.826   6.669  13.239
77868SOL    HW135501   0.024   6.675  13.291
77868SOL    HW235502  14.811   6.575  13.229
77869SOL     OW35503   4.617  12.915   2.359
77869SOL    HW135504   4.651  12.898   2.447
77869SOL    HW235505   4.652  12.844   2.306
77870SOL     OW35506  11.362   3.216  12.738
77870SOL    HW135507  11.387   3.280  12.671
77870SOL    HW235508  11.373   3.131  12.696
77871SOL     OW35509  13.263   7.009   2.794
77871SOL    HW135510  13.296   6.950   2.862
77871SOL    HW235511  13.342   7.036   2.746
77872SOL     OW35512  13.512   6.316   8.282
77872SOL    HW135513  13.601   6.308   8.248
77872SOL    HW235514  13.516   6.275   8.369
77873SOL     OW35515   5.050  13.758  10.022
77873SOL    HW135516   5.058  13.740   9.928
77873SOL    HW235517   5.139  13.778  10.050
77874SOL     OW35518   0.332   1.639   8.900
77874SOL    HW135519   0.307   1.696   8.827
77874SOL    HW235520   0.369   1.561   8.858
77875SOL     OW35521   1.531   3.248   2.699
77875SOL    HW135522   1.527   3.152   2.689
77875SOL    HW235523   1.623   3.266   2.719
77876SOL     OW35524   2.787  10.224   6.734
77876SOL    HW135525   2.763  10.295   6.793
77876SOL    HW235526   2.748  10.146   6.772
77877SOL     OW35527   9.199   1.208   2.916
77877SOL    HW135528   9.227   1.299   2.918
77877SOL    HW235529   9.185   1.184   3.007
77878SOL     OW35530   0.350  11.605  10.449
77878SOL    HW135531   0.343  11.510  10.438
77878SOL    HW235532   0.443  11.623  10.440
77879SOL     OW35533  11.522  14.699  10.823
77879SOL    HW135534  11.581  14.760  10.867
77879SOL    HW235535  11.567  14.677  10.741
77880SOL     OW35536  12.169  14.154   5.287
77880SOL    HW135537  12.168  14.117   5.199
77880SOL    HW235538  12.079  14.182   5.303
77881SOL     OW35539   5.593   2.052   9.387
77881SOL    HW135540   5.670   1.996   9.375
77881SOL    HW235541   5.624   2.140   9.366
77882SOL     OW35542   9.970   4.275   1.201
77882SOL    HW135543  10.061   4.248   1.208
77882SOL    HW235544   9.969   4.366   1.231
77883SOL     OW35545   0.752   9.475   7.358
77883SOL    HW135546   0.745   9.571   7.362
77883SOL    HW235547   0.669   9.446   7.320
77884SOL     OW35548   7.252   5.145  11.027
77884SOL    HW135549   7.166   5.186  11.040
77884SOL    HW235550   7.246   5.105  10.940
77885SOL     OW35551   1.353   1.295   2.949
77885SOL    HW135552   1.354   1.213   2.999
77885SOL    HW235553   1.262   1.324   2.951
77886SOL     OW35554   7.587  14.031  13.603
77886SOL    HW135555   7.555  14.078  13.681
77886SOL    HW235556   7.568  13.939  13.622
77887SOL     OW35557  13.912   1.486   6.751
77887SOL    HW135558  13.963   1.555   6.710
77887SOL    HW235559  13.864   1.445   6.680
77888SOL     OW35560  11.577   6.018   0.074
77888SOL    HW135561  11.672   6.017   0.074
77888SOL    HW235562  11.552   5.962   0.148
77889SOL     OW35563   2.173   4.902   2.209
77889SOL    HW135564   2.233   4.831   2.232
77889SOL    HW235565   2.094   4.857   2.178
77890SOL     OW35566   8.875   4.270   8.493
77890SOL    HW135567   8.885   4.229   8.407
77890SOL    HW235568   8.782   4.262   8.512
77891SOL     OW35569  11.019   4.866   5.451
77891SOL    HW135570  10.965   4.911   5.386
77891SOL    HW235571  11.109   4.886   5.426
77892SOL     OW35572   1.938   3.135  12.415
77892SOL    HW135573   1.912   3.043  12.420
77892SOL    HW235574   1.938   3.164  12.506
77893SOL     OW35575   7.653  10.070   2.039
77893SOL    HW135576   7.624  10.161   2.036
77893SOL    HW235577   7.622  10.037   2.123
77894SOL     OW35578   5.182  11.569   2.242
77894SOL    HW135579   5.264  11.591   2.198
77894SOL    HW235580   5.131  11.650   2.241
77895SOL     OW35581   5.531   5.310   6.386
77895SOL    HW135582   5.551   5.255   6.310
77895SOL    HW235583   5.578   5.392   6.368
77896SOL     OW35584   9.917  10.309  10.618
77896SOL    HW135585   9.925  10.223  10.659
77896SOL    HW235586   9.890  10.367  10.689
77897SOL     OW35587   4.893   8.412  10.324
77897SOL    HW135588   4.836   8.382  10.395
77897SOL    HW235589   4.906   8.334  10.269
77898SOL     OW35590  10.899   3.134   4.331
77898SOL    HW135591  10.967   3.200   4.314
77898SOL    HW235592  10.906   3.073   4.258
77899SOL     OW35593   0.613  14.137   6.875
77899SOL    HW135594   0.641  14.146   6.784
77899SOL    HW235595   0.694  14.142   6.925
77900SOL     OW35596   8.329   7.193  11.665
77900SOL    HW135597   8.252   7.150  11.702
77900SOL    HW235598   8.358   7.253  11.734
77901SOL     OW35599  11.378   8.263  12.875
77901SOL    HW135600  11.366   8.338  12.816
77901SOL    HW235601  11.402   8.191  12.816
77902SOL     OW35602   4.928   3.648   2.414
77902SOL    HW135603   4.874   3.573   2.390
77902SOL    HW235604   4.865   3.719   2.431
77903SOL     OW35605   9.756   6.290  13.374
77903SOL    HW135606   9.821   6.357  13.355
77903SOL    HW235607   9.789   6.211  13.331
77904SOL     OW35608  11.907   1.866   5.256
77904SOL    HW135609  11.966   1.868   5.331
77904SOL    HW235610  11.847   1.793   5.273
77905SOL     OW35611  13.301   4.548   0.712
77905SOL    HW135612  13.352   4.582   0.785
77905SOL    HW235613  13.362   4.550   0.638
77906SOL     OW35614  10.516   4.749   2.001
77906SOL    HW135615  10.531   4.834   2.042
77906SOL    HW235616  10.483   4.694   2.072
77907SOL     OW35617  11.354   6.247   8.705
77907SOL    HW135618  11.308   6.326   8.734
77907SOL    HW235619  11.397   6.214   8.784
77908SOL     OW35620   5.243   1.743   6.830
77908SOL    HW135621   5.273   1.832   6.847
77908SOL    HW235622   5.172   1.754   6.765
77909SOL     OW35623   3.071  10.707   8.558
77909SOL    HW135624   3.114  10.622   8.556
77909SOL    HW235625   3.044  10.723   8.468
77910SOL     OW35626   3.566   4.900   8.210
77910SOL    HW135627   3.604   4.839   8.273
77910SOL    HW235628   3.505   4.953   8.261
77911SOL     OW35629   7.650  12.378  12.209
77911SOL    HW135630   7.736  12.375  12.251
77911SOL    HW235631   7.665  12.347  12.120
77912SOL     OW35632  13.923  12.494   5.354
77912SOL    HW135633  14.009  12.467   5.320
77912SOL    HW235634  13.860  12.451   5.297
77913SOL     OW35635  13.186   1.662  10.790
77913SOL    HW135636  13.185   1.581  10.740
77913SOL    HW235637  13.227   1.727  10.733
77914SOL     OW35638  11.258   5.162  12.805
77914SOL    HW135639  11.326   5.104  12.772
77914SOL    HW235640  11.201   5.178  12.730
77915SOL     OW35641   3.208   0.951   1.370
77915SOL    HW135642   3.122   0.982   1.340
77915SOL    HW235643   3.242   0.899   1.298
77916SOL     OW35644   3.638   0.762   1.036
77916SOL    HW135645   3.589   0.819   0.977
77916SOL    HW235646   3.701   0.718   0.980
77917SOL     OW35647   2.778   6.331   0.061
77917SOL    HW135648   2.691   6.289   0.065
77917SOL    HW235649   2.802   6.326  14.850
77918SOL     OW35650   4.977   5.976  12.276
77918SOL    HW135651   4.920   5.900  12.266
77918SOL    HW235652   5.060   5.951  12.236
77919SOL     OW35653  10.759   8.804  14.104
77919SOL    HW135654  10.731   8.776  14.017
77919SOL    HW235655  10.852   8.823  14.095
77920SOL     OW35656  14.542  13.999  10.696
77920SOL    HW135657  14.550  14.006  10.791
77920SOL    HW235658  14.633  14.001  10.664
77921SOL     OW35659  11.934   5.673  13.968
77921SOL    HW135660  12.022   5.711  13.967
77921SOL    HW235661  11.888   5.721  14.036
77922SOL     OW35662  10.465   0.125   1.790
77922SOL    HW135663  10.560   0.117   1.780
77922SOL    HW235664  10.440   0.189   1.724
77923SOL     OW35665   9.393   2.845   0.784
77923SOL    HW135666   9.311   2.862   0.738
77923SOL    HW235667   9.442   2.927   0.778
77924SOL     OW35668  12.624   7.012   5.111
77924SOL    HW135669  12.541   6.994   5.156
77924SOL    HW235670  12.682   7.044   5.180
77925SOL     OW35671  12.040   6.517  11.299
77925SOL    HW135672  11.975   6.458  11.261
77925SOL    HW235673  12.100   6.537  11.227
77926SOL     OW35674   2.279   6.949   3.455
77926SOL    HW135675   2.318   6.961   3.541
77926SOL    HW235676   2.197   6.998   3.458
77927SOL     OW35677   2.134   5.636   4.463
77927SOL    HW135678   2.053   5.605   4.504
77927SOL    HW235679   2.112   5.724   4.432
77928SOL     OW35680   1.531   2.334   9.569
77928SOL    HW135681   1.438   2.322   9.587
77928SOL    HW235682   1.537   2.332   9.473
77929SOL     OW35683   8.147   4.192   1.865
77929SOL    HW135684   8.231   4.146   1.866
77929SOL    HW235685   8.104   4.166   1.946
77930SOL     OW35686  11.801  13.464   1.198
77930SOL    HW135687  11.854  13.538   1.227
77930SOL    HW235688  11.795  13.475   1.103
77931SOL     OW35689   6.743  10.281   2.886
77931SOL    HW135690   6.800  10.245   2.819
77931SOL    HW235691   6.802  10.325   2.947
77932SOL     OW35692   6.017   8.000  13.588
77932SOL    HW135693   5.971   8.054  13.525
77932SOL    HW235694   6.002   7.910  13.559
77933SOL     OW35695  13.129   1.241   6.829
77933SOL    HW135696  13.201   1.301   6.843
77933SOL    HW235697  13.117   1.240   6.734
77934SOL     OW35698   9.300  14.715   0.547
77934SOL    HW135699   9.299  14.810   0.535
77934SOL    HW235700   9.381  14.697   0.595
77935SOL     OW35701   1.876   6.108   0.297
77935SOL    HW135702   1.828   6.174   0.348
77935SOL    HW235703   1.863   6.026   0.345
77936SOL     OW35704   8.542   7.980  12.535
77936SOL    HW135705   8.452   7.988  12.503
77936SOL    HW235706   8.532   7.960  12.628
77937SOL     OW35707   2.429  12.514  14.285
77937SOL    HW135708   2.449  12.531  14.193
77937SOL    HW235709   2.388  12.595  14.316
77938SOL     OW35710   2.399  14.404   0.129
77938SOL    HW135711   2.415  14.331   0.188
77938SOL    HW235712   2.304  14.412   0.125
77939SOL     OW35713   0.456   9.089  11.261
77939SOL    HW135714   0.422   9.115  11.176
77939SOL    HW235715   0.514   9.015  11.242
77940SOL     OW35716   8.529  10.556  14.590
77940SOL    HW135717   8.529  10.640  14.546
77940SOL    HW235718   8.502  10.493  14.523
77941SOL     OW35719  11.466   6.415   9.363
77941SOL    HW135720  11.416   6.469   9.424
77941SOL    HW235721  11.507   6.478   9.304
77942SOL     OW35722  13.171   9.498   2.600
77942SOL    HW135723  13.206   9.561   2.538
77942SOL    HW235724  13.171   9.415   2.553
77943SOL     OW35725   8.160   2.088   4.869
77943SOL    HW135726   8.191   2.178   4.884
77943SOL    HW235727   8.076   2.100   4.822
77944SOL     OW35728   2.527   7.548  12.756
77944SOL    HW135729   2.545   7.457  12.780
77944SOL    HW235730   2.434   7.548  12.733
77945SOL     OW35731  13.208  14.283   1.712
77945SOL    HW135732  13.171  14.307   1.627
77945SOL    HW235733  13.211  14.365   1.761
77946SOL     OW35734   4.752   4.187   3.068
77946SOL    HW135735   4.701   4.268   3.072
77946SOL    HW235736   4.690   4.122   3.035
77947SOL     OW35737   9.439   2.571   0.813
77947SOL    HW135738   9.416   2.663   0.801
77947SOL    HW235739   9.456   2.538   0.725
77948SOL     OW35740  13.781   2.355  13.862
77948SOL    HW135741  13.689   2.337  13.882
77948SOL    HW235742  13.822   2.269  13.854
77949SOL     OW35743  11.639   1.011   2.893
77949SOL    HW135744  11.724   1.027   2.853
77949SOL    HW235745  11.647   1.047   2.981
77950SOL     OW35746   1.691   5.610  12.887
77950SOL    HW135747   1.776   5.642  12.858
77950SOL    HW235748   1.686   5.521  12.852
77951SOL     OW35749   6.188  11.240   2.051
77951SOL    HW135750   6.108  11.259   2.001
77951SOL    HW235751   6.216  11.326   2.083
77952SOL     OW35752  12.581   0.069   5.063
77952SOL    HW135753  12.550   0.147   5.109
77952SOL    HW235754  12.509   0.045   5.004
77953SOL     OW35755   3.649  12.326  12.821
77953SOL    HW135756   3.680  12.416  12.836
77953SOL    HW235757   3.659  12.313  12.727
77954SOL     OW35758   3.909   9.209   3.545
77954SOL    HW135759   3.993   9.167   3.530
77954SOL    HW235760   3.904   9.218   3.641
77955SOL     OW35761  13.303  14.347   1.185
77955SOL    HW135762  13.386  14.329   1.228
77955SOL    HW235763  13.307  14.439   1.161
77956SOL     OW35764   6.702  12.169   7.613
77956SOL    HW135765   6.723  12.127   7.529
77956SOL    HW235766   6.634  12.113   7.651
77957SOL     OW35767   7.560   1.423  13.911
77957SOL    HW135768   7.626   1.415  13.842
77957SOL    HW235769   7.486   1.466  13.868
77958SOL     OW35770   7.653   4.356  14.372
77958SOL    HW135771   7.632   4.317  14.287
77958SOL    HW235772   7.600   4.435  14.377
77959SOL     OW35773   1.596  11.675   6.909
77959SOL    HW135774   1.519  11.719   6.945
77959SOL    HW235775   1.670  11.713   6.958
77960SOL     OW35776   3.625   7.707   1.364
77960SOL    HW135777   3.534   7.705   1.393
77960SOL    HW235778   3.621   7.750   1.278
77961SOL     OW35779   3.161   2.413  10.774
77961SOL    HW135780   3.079   2.455  10.800
77961SOL    HW235781   3.144   2.381  10.685
77962SOL     OW35782   0.919  11.190   0.315
77962SOL    HW135783   0.932  11.284   0.305
77962SOL    HW235784   0.918  11.174   0.409
77963SOL     OW35785   0.488  14.134  10.027
77963SOL    HW135786   0.411  14.097  10.071
77963SOL    HW235787   0.535  14.181  10.096
77964SOL     OW35788  11.040   7.988   8.560
77964SOL    HW135789  11.094   7.922   8.605
77964SOL    HW235790  11.051   8.068   8.612
77965SOL     OW35791   0.624  11.171  14.336
77965SOL    HW135792   0.689  11.229  14.295
77965SOL    HW235793   0.545  11.225  14.342
77966SOL     OW35794  14.474  10.477   5.461
77966SOL    HW135795  14.550  10.511   5.509
77966SOL    HW235796  14.401  10.530   5.492
77967SOL     OW35797   4.282  13.379   0.754
77967SOL    HW135798   4.237  13.427   0.684
77967SOL    HW235799   4.278  13.439   0.829
77968SOL     OW35800  13.536   9.837   3.638
77968SOL    HW135801  13.556   9.760   3.584
77968SOL    HW235802  13.619   9.860   3.678
77969SOL     OW35803   1.389  10.059   6.791
77969SOL    HW135804   1.300  10.092   6.803
77969SOL    HW235805   1.424  10.052   6.880
77970SOL     OW35806   3.744   3.688   0.819
77970SOL    HW135807   3.830   3.651   0.836
77970SOL    HW235808   3.762   3.770   0.773
77971SOL     OW35809   2.384   0.340   8.994
77971SOL    HW135810   2.330   0.358   8.916
77971SOL    HW235811   2.451   0.279   8.962
77972SOL     OW35812   9.559  13.395   1.608
77972SOL    HW135813   9.579  13.344   1.686
77972SOL    HW235814   9.644  13.429   1.579
77973SOL     OW35815   0.432   2.763   2.455
77973SOL    HW135816   0.375   2.822   2.406
77973SOL    HW235817   0.509   2.753   2.399
77974SOL     OW35818   2.962   2.103   0.701
77974SOL    HW135819   3.010   2.078   0.780
77974SOL    HW235820   3.019   2.077   0.629
77975SOL     OW35821   3.040  11.786   0.856
77975SOL    HW135822   3.026  11.879   0.873
77975SOL    HW235823   2.958  11.744   0.883
77976SOL     OW35824   4.468  11.031   8.591
77976SOL    HW135825   4.476  10.960   8.655
77976SOL    HW235826   4.552  11.077   8.596
77977SOL     OW35827   8.835   1.827  13.747
77977SOL    HW135828   8.812   1.873  13.666
77977SOL    HW235829   8.801   1.882  13.817
77978SOL     OW35830  12.628   1.117   1.675
77978SOL    HW135831  12.658   1.091   1.588
77978SOL    HW235832  12.619   1.035   1.723
77979SOL     OW35833   1.328  10.081   1.285
77979SOL    HW135834   1.255  10.073   1.346
77979SOL    HW235835   1.325  10.000   1.234
77980SOL     OW35836   8.771  14.757   0.905
77980SOL    HW135837   8.811  14.731   0.822
77980SOL    HW235838   8.703  14.692   0.921
77981SOL     OW35839  11.514   7.100   9.254
77981SOL    HW135840  11.537   7.167   9.319
77981SOL    HW235841  11.459   7.146   9.191
77982SOL     OW35842   2.060   0.194   3.751
77982SOL    HW135843   2.028   0.168   3.837
77982SOL    HW235844   2.108   0.275   3.766
77983SOL     OW35845   4.122   4.061  10.304
77983SOL    HW135846   4.114   3.975  10.344
77983SOL    HW235847   4.214   4.070  10.281
77984SOL     OW35848   9.499  14.081  11.425
77984SOL    HW135849   9.404  14.083  11.411
77984SOL    HW235850   9.510  14.044  11.512
77985SOL     OW35851   7.428   5.782   4.382
77985SOL    HW135852   7.406   5.873   4.361
77985SOL    HW235853   7.500   5.789   4.444
77986SOL     OW35854   5.844   7.660   0.853
77986SOL    HW135855   5.908   7.589   0.855
77986SOL    HW235856   5.764   7.620   0.819
77987SOL     OW35857  12.503  11.300   7.701
77987SOL    HW135858  12.583  11.319   7.750
77987SOL    HW235859  12.533  11.279   7.613
77988SOL     OW35860  13.501   3.208   6.255
77988SOL    HW135861  13.430   3.156   6.217
77988SOL    HW235862  13.473   3.224   6.345
77989SOL     OW35863   1.384   6.589   0.552
77989SOL    HW135864   1.446   6.563   0.484
77989SOL    HW235865   1.374   6.683   0.541
77990SOL     OW35866  12.021   0.192   5.873
77990SOL    HW135867  12.052   0.226   5.956
77990SOL    HW235868  12.041   0.098   5.876
77991SOL     OW35869   3.339   2.497   9.362
77991SOL    HW135870   3.408   2.563   9.367
77991SOL    HW235871   3.356   2.439   9.436
77992SOL     OW35872   9.332   7.876   9.107
77992SOL    HW135873   9.374   7.957   9.080
77992SOL    HW235874   9.243   7.882   9.073
77993SOL     OW35875  10.188   2.819   6.049
77993SOL    HW135876  10.170   2.911   6.070
77993SOL    HW235877  10.187   2.815   5.954
77994SOL     OW35878  11.581   1.599  11.921
77994SOL    HW135879  11.529   1.590  11.841
77994SOL    HW235880  11.589   1.694  11.934
77995SOL     OW35881  12.988   6.406  12.337
77995SOL    HW135882  12.927   6.479  12.343
77995SOL    HW235883  13.059   6.439  12.282
77996SOL     OW35884  11.950  14.634   0.808
77996SOL    HW135885  11.978  14.704   0.868
77996SOL    HW235886  11.912  14.567   0.865
77997SOL     OW35887   3.305  11.028  14.732
77997SOL    HW135888   3.355  11.101  14.697
77997SOL    HW235889   3.354  11.002  14.811
77998SOL     OW35890   6.776   8.101  12.734
77998SOL    HW135891   6.782   8.144  12.819
77998SOL    HW235892   6.858   8.052  12.725
77999SOL     OW35893  13.742  10.369   5.097
77999SOL    HW135894  13.651  10.361   5.124
77999SOL    HW235895  13.787  10.298   5.144
78000SOL     OW35896   3.834   3.594   2.335
78000SOL    HW135897   3.812   3.687   2.329
78000SOL    HW235898   3.914   3.592   2.387
78001SOL     OW35899   4.356   7.750   1.308
78001SOL    HW135900   4.328   7.674   1.358
78001SOL    HW235901   4.301   7.822   1.340
78002SOL     OW35902  13.609   1.478  12.184
78002SOL    HW135903  13.542   1.422  12.222
78002SOL    HW235904  13.601   1.464  12.089
78003SOL     OW35905   9.196   4.393   7.612
78003SOL    HW135906   9.138   4.447   7.558
78003SOL    HW235907   9.266   4.453   7.638
78004SOL     OW35908   1.309   0.236   6.372
78004SOL    HW135909   1.261   0.261   6.293
78004SOL    HW235910   1.243   0.195   6.428
78005SOL     OW35911   1.813   2.062   1.423
78005SOL    HW135912   1.804   2.143   1.474
78005SOL    HW235913   1.783   1.993   1.482
78006SOL     OW35914   4.376   5.815   2.029
78006SOL    HW135915   4.296   5.780   1.990
78006SOL    HW235916   4.442   5.747   2.012
78007SOL     OW35917   1.526   0.914  11.523
78007SOL    HW135918   1.558   0.847  11.583
78007SOL    HW235919   1.587   0.911  11.449
78008SOL     OW35920  14.327   9.369  12.093
78008SOL    HW135921  14.294   9.282  12.116
78008SOL    HW235922  14.400   9.351  12.033
78009SOL     OW35923   8.773   4.853  12.549
78009SOL    HW135924   8.828   4.782  12.579
78009SOL    HW235925   8.819   4.890  12.473
78010SOL     OW35926   6.875  10.898   1.737
78010SOL    HW135927   6.799  10.951   1.762
78010SOL    HW235928   6.853  10.809   1.763
78011SOL     OW35929  13.859   7.097  12.941
78011SOL    HW135930  13.777   7.147  12.944
78011SOL    HW235931  13.921   7.149  12.991
78012SOL     OW35932  10.207  11.155  11.708
78012SOL    HW135933  10.147  11.085  11.684
78012SOL    HW235934  10.256  11.120  11.782
78013SOL     OW35935  12.719   7.990  13.405
78013SOL    HW135936  12.744   7.900  13.427
78013SOL    HW235937  12.801   8.039  13.411
78014SOL     OW35938   3.040   1.623  10.081
78014SOL    HW135939   3.019   1.557  10.015
78014SOL    HW235940   3.136   1.620  10.089
78015SOL     OW35941   3.087   5.559   1.631
78015SOL    HW135942   3.182   5.549   1.634
78015SOL    HW235943   3.072   5.638   1.580
78016SOL     OW35944  13.343   5.644   3.110
78016SOL    HW135945  13.331   5.724   3.059
78016SOL    HW235946  13.399   5.671   3.183
78017SOL     OW35947   6.046   2.174   2.768
78017SOL    HW135948   5.952   2.179   2.756
78017SOL    HW235949   6.083   2.207   2.685
78018SOL     OW35950   3.150   8.849   1.522
78018SOL    HW135951   3.175   8.941   1.514
78018SOL    HW235952   3.199   8.805   1.452
78019SOL     OW35953  14.176   6.657   7.378
78019SOL    HW135954  14.200   6.597   7.307
78019SOL    HW235955  14.090   6.627   7.407
78020SOL     OW35956   8.964   5.355  10.619
78020SOL    HW135957   8.886   5.304  10.599
78020SOL    HW235958   8.942   5.445  10.594
78021SOL     OW35959   1.559   0.893  13.953
78021SOL    HW135960   1.522   0.836  14.020
78021SOL    HW235961   1.597   0.966  14.002
78022SOL     OW35962  10.398   2.280   9.447
78022SOL    HW135963  10.309   2.245   9.457
78022SOL    HW235964  10.433   2.283   9.536
78023SOL     OW35965   7.987   7.592   4.838
78023SOL    HW135966   7.957   7.677   4.806
78023SOL    HW235967   8.054   7.565   4.776
78024SOL     OW35968   8.226   3.790   7.251
78024SOL    HW135969   8.279   3.824   7.179
78024SOL    HW235970   8.289   3.744   7.307
78025SOL     OW35971   8.966  12.693   0.380
78025SOL    HW135972   9.028  12.644   0.327
78025SOL    HW235973   8.881  12.655   0.359
78026SOL     OW35974   8.660   7.935   5.551
78026SOL    HW135975   8.745   7.979   5.558
78026SOL    HW235976   8.666   7.860   5.609
78027SOL     OW35977   4.798   4.432   7.693
78027SOL    HW135978   4.805   4.342   7.723
78027SOL    HW235979   4.706   4.454   7.702
78028SOL     OW35980   2.000   6.201   6.709
78028SOL    HW135981   2.060   6.238   6.774
78028SOL    HW235982   1.916   6.243   6.727
78029SOL     OW35983   7.599   3.662   9.585
78029SOL    HW135984   7.628   3.656   9.494
78029SOL    HW235985   7.522   3.719   9.582
78030SOL     OW35986   5.904   5.895   1.699
78030SOL    HW135987   5.919   5.864   1.609
78030SOL    HW235988   5.953   5.977   1.704
78031SOL     OW35989  13.629   7.480  10.026
78031SOL    HW135990  13.543   7.441  10.037
78031SOL    HW235991  13.642   7.483   9.931
78032SOL     OW35992  12.585  13.963  14.307
78032SOL    HW135993  12.591  13.869  14.321
78032SOL    HW235994  12.630  14.001  14.382
78033SOL     OW35995  12.466   7.480  11.825
78033SOL    HW135996  12.464   7.568  11.786
78033SOL    HW235997  12.417   7.425  11.763
78034SOL     OW35998   6.612   6.016   0.924
78034SOL    HW135999   6.532   5.970   0.949
78034SOL    HW236000   6.581   6.094   0.878
78035SOL     OW36001   7.980   7.389   0.641
78035SOL    HW136002   7.922   7.452   0.683
78035SOL    HW236003   7.940   7.304   0.659
78036SOL     OW36004   5.014   4.816   5.381
78036SOL    HW136005   5.053   4.809   5.294
78036SOL    HW236006   4.921   4.835   5.364
78037SOL     OW36007   2.429  10.577   3.471
78037SOL    HW136008   2.466  10.525   3.542
78037SOL    HW236009   2.344  10.607   3.504
78038SOL     OW36010  11.213   4.241  13.327
78038SOL    HW136011  11.202   4.321  13.377
78038SOL    HW236012  11.186   4.171  13.387
78039SOL     OW36013   4.908   2.880   0.605
78039SOL    HW136014   4.911   2.975   0.616
78039SOL    HW236015   4.817   2.862   0.581
78040SOL     OW36016   1.189   1.531   0.992
78040SOL    HW136017   1.195   1.435   0.990
78040SOL    HW236018   1.229   1.556   1.075
78041SOL     OW36019   6.900  10.655   5.743
78041SOL    HW136020   6.849  10.592   5.692
78041SOL    HW236021   6.907  10.732   5.687
78042SOL     OW36022   5.748   6.057   0.226
78042SOL    HW136023   5.670   6.110   0.241
78042SOL    HW236024   5.817   6.121   0.210
78043SOL     OW36025   3.174   5.482   2.485
78043SOL    HW136026   3.111   5.553   2.503
78043SOL    HW236027   3.133   5.431   2.416
78044SOL     OW36028   5.537   0.525   2.477
78044SOL    HW136029   5.595   0.568   2.414
78044SOL    HW236030   5.455   0.512   2.429
78045SOL     OW36031   0.033   2.341   5.921
78045SOL    HW136032   0.066   2.323   6.008
78045SOL    HW236033  14.820   2.339   5.930
78046SOL     OW36034  12.250   1.675  12.750
78046SOL    HW136035  12.340   1.686  12.717
78046SOL    HW236036  12.203   1.751  12.715
78047SOL     OW36037   3.758   4.387  10.130
78047SOL    HW136038   3.686   4.425  10.180
78047SOL    HW236039   3.826   4.455  10.128
78048SOL     OW36040   5.515  10.730   5.941
78048SOL    HW136041   5.478  10.814   5.969
78048SOL    HW236042   5.548  10.746   5.853
78049SOL     OW36043   7.295   9.000  12.737
78049SOL    HW136044   7.365   8.936  12.747
78049SOL    HW236045   7.230   8.957  12.682
78050SOL     OW36046  13.135   4.429   5.569
78050SOL    HW136047  13.085   4.399   5.493
78050SOL    HW236048  13.107   4.371   5.640
78051SOL     OW36049  12.186   4.421  14.258
78051SOL    HW136050  12.281   4.426  14.250
78051SOL    HW236051  12.165   4.329  14.242
78052SOL     OW36052   5.414   9.289  12.721
78052SOL    HW136053   5.420   9.253  12.809
78052SOL    HW236054   5.326   9.265  12.691
78053SOL     OW36055   6.137   1.821   8.878
78053SOL    HW136056   6.170   1.733   8.861
78053SOL    HW236057   6.131   1.825   8.974
78054SOL     OW36058   1.142   3.940   0.250
78054SOL    HW136059   1.218   3.977   0.294
78054SOL    HW236060   1.074   3.939   0.316
78055SOL     OW36061  12.622   8.848   7.056
78055SOL    HW136062  12.620   8.932   7.102
78055SOL    HW236063  12.547   8.852   6.997
78056SOL     OW36064  10.004   5.866  13.284
78056SOL    HW136065  10.003   5.834  13.194
78056SOL    HW236066  10.096   5.865  13.309
78057SOL     OW36067   7.231   6.173   4.514
78057SOL    HW136068   7.234   6.108   4.443
78057SOL    HW236069   7.175   6.243   4.480
78058SOL     OW36070  10.090   9.254  10.268
78058SOL    HW136071  10.154   9.214  10.210
78058SOL    HW236072  10.025   9.292  10.209
78059SOL     OW36073  10.808   7.496   2.795
78059SOL    HW136074  10.730   7.531   2.839
78059SOL    HW236075  10.801   7.401   2.808
78060SOL     OW36076   4.487  11.614   4.469
78060SOL    HW136077   4.396  11.587   4.470
78060SOL    HW236078   4.523  11.575   4.389
78061SOL     OW36079   6.776   3.730   4.338
78061SOL    HW136080   6.847   3.699   4.394
78061SOL    HW236081   6.820   3.776   4.267
78062SOL     OW36082  13.674   5.997  13.480
78062SOL    HW136083  13.761   6.023  13.512
78062SOL    HW236084  13.691   5.961  13.393
78063SOL     OW36085   6.879  14.643   5.531
78063SOL    HW136086   6.974  14.637   5.530
78063SOL    HW236087   6.860  14.732   5.503
78064SOL     OW36088   4.110  13.321  10.961
78064SOL    HW136089   4.144  13.237  10.932
78064SOL    HW236090   4.136  13.328  11.053
78065SOL     OW36091  14.661   1.381   6.454
78065SOL    HW136092  14.682   1.290   6.434
78065SOL    HW236093  14.686   1.430   6.376
78066SOL     OW36094   2.926   4.434   7.219
78066SOL    HW136095   2.933   4.491   7.143
78066SOL    HW236096   2.856   4.471   7.272
78067SOL     OW36097  14.148   3.447  11.425
78067SOL    HW136098  14.217   3.508  11.453
78067SOL    HW236099  14.067   3.485  11.459
78068SOL     OW36100   8.484  10.206   1.600
78068SOL    HW136101   8.427  10.180   1.672
78068SOL    HW236102   8.496  10.126   1.548
78069SOL     OW36103  14.336   8.652   0.971
78069SOL    HW136104  14.419   8.618   0.938
78069SOL    HW236105  14.282   8.665   0.893
78070SOL     OW36106  10.150   2.668  13.351
78070SOL    HW136107  10.171   2.646  13.441
78070SOL    HW236108  10.210   2.740  13.329
78071SOL     OW36109   1.457   3.503  11.622
78071SOL    HW136110   1.449   3.442  11.696
78071SOL    HW236111   1.433   3.588  11.659
78072SOL     OW36112   0.738   4.664   1.269
78072SOL    HW136113   0.827   4.701   1.272
78072SOL    HW236114   0.684   4.729   1.314
78073SOL     OW36115  10.858   5.516   5.020
78073SOL    HW136116  10.822   5.449   4.961
78073SOL    HW236117  10.943   5.482   5.047
78074SOL     OW36118   1.574   8.786   7.946
78074SOL    HW136119   1.641   8.829   7.892
78074SOL    HW236120   1.507   8.757   7.884
78075SOL     OW36121   6.010  11.900   9.211
78075SOL    HW136122   5.953  11.830   9.179
78075SOL    HW236123   6.091  11.891   9.160
78076SOL     OW36124   2.476   1.144   5.453
78076SOL    HW136125   2.546   1.108   5.399
78076SOL    HW236126   2.503   1.124   5.543
78077SOL     OW36127   6.413   1.418   1.257
78077SOL    HW136128   6.405   1.323   1.258
78077SOL    HW236129   6.338   1.450   1.307
78078SOL     OW36130   4.611  11.442   5.998
78078SOL    HW136131   4.598  11.419   6.090
78078SOL    HW236132   4.645  11.531   6.000
78079SOL     OW36133   3.373   0.943   2.808
78079SOL    HW136134   3.395   0.887   2.733
78079SOL    HW236135   3.347   1.027   2.769
78080SOL     OW36136   5.544  13.931  12.159
78080SOL    HW136137   5.534  13.992  12.086
78080SOL    HW236138   5.571  13.987  12.233
78081SOL     OW36139   1.875   3.917   5.911
78081SOL    HW136140   1.811   3.846   5.915
78081SOL    HW236141   1.826   3.991   5.875
78082SOL     OW36142   4.517  13.456   0.333
78082SOL    HW136143   4.599  13.461   0.283
78082SOL    HW236144   4.502  13.362   0.343
78083SOL     OW36145  10.547   3.909   4.612
78083SOL    HW136146  10.633   3.935   4.578
78083SOL    HW236147  10.531   3.823   4.572
78084SOL     OW36148  13.964  12.060   3.726
78084SOL    HW136149  13.873  12.062   3.754
78084SOL    HW236150  13.968  12.117   3.649
78085SOL     OW36151   6.535  13.237   9.239
78085SOL    HW136152   6.621  13.268   9.266
78085SOL    HW236153   6.480  13.246   9.317
78086SOL     OW36154   5.041   0.599   0.741
78086SOL    HW136155   5.051   0.658   0.666
78086SOL    HW236156   5.126   0.602   0.785
78087SOL     OW36157   0.426  14.227  13.579
78087SOL    HW136158   0.512  14.190  13.561
78087SOL    HW236159   0.416  14.297  13.514
78088SOL     OW36160   0.684   9.951  11.442
78088SOL    HW136161   0.650   9.879  11.496
78088SOL    HW236162   0.608   9.985  11.396
78089SOL     OW36163   4.255  14.408  11.358
78089SOL    HW136164   4.188  14.405  11.426
78089SOL    HW236165   4.301  14.324  11.366
78090SOL     OW36166   1.773   8.248  11.139
78090SOL    HW136167   1.765   8.341  11.118
78090SOL    HW236168   1.866   8.228  11.129
78091SOL     OW36169   7.739  11.189   9.949
78091SOL    HW136170   7.685  11.250   9.999
78091SOL    HW236171   7.691  11.107   9.952
78092SOL     OW36172   3.666   6.486  10.894
78092SOL    HW136173   3.610   6.564  10.897
78092SOL    HW236174   3.749   6.518  10.857
78093SOL     OW36175   0.016   3.281   4.860
78093SOL    HW136176  14.858   3.267   4.774
78093SOL    HW236177   0.027   3.376   4.866
78094SOL     OW36178   3.907   4.745   4.608
78094SOL    HW136179   3.932   4.657   4.582
78094SOL    HW236180   3.988   4.786   4.638
78095SOL     OW36181   9.147  13.604  14.111
78095SOL    HW136182   9.089  13.679  14.114
78095SOL    HW236183   9.198  13.608  14.192
78096SOL     OW36184  11.747   7.113  10.139
78096SOL    HW136185  11.706   7.113  10.053
78096SOL    HW236186  11.674   7.117  10.201
78097SOL     OW36187  12.204  12.012   5.198
78097SOL    HW136188  12.284  12.024   5.249
78097SOL    HW236189  12.148  11.958   5.255
78098SOL     OW36190   6.346  14.055  12.605
78098SOL    HW136191   6.420  14.116  12.604
78098SOL    HW236192   6.373  13.983  12.547
78099SOL     OW36193  13.225   0.096   7.201
78099SOL    HW136194  13.219   0.023   7.262
78099SOL    HW236195  13.150   0.086   7.143
78100SOL     OW36196   0.916  11.370  13.630
78100SOL    HW136197   0.933  11.452  13.676
78100SOL    HW236198   0.862  11.396  13.555
78101SOL     OW36199   8.542  12.120   8.111
78101SOL    HW136200   8.468  12.103   8.169
78101SOL    HW236201   8.608  12.159   8.168
78102SOL     OW36202  10.771   6.438  11.482
78102SOL    HW136203  10.818   6.501  11.428
78102SOL    HW236204  10.701   6.406  11.426
78103SOL     OW36205  10.300   0.401  13.117
78103SOL    HW136206  10.344   0.391  13.202
78103SOL    HW236207  10.221   0.450  13.136
78104SOL     OW36208   3.396  11.446   1.802
78104SOL    HW136209   3.411  11.381   1.871
78104SOL    HW236210   3.378  11.527   1.850
78105SOL     OW36211   2.522   0.564   3.682
78105SOL    HW136212   2.610   0.569   3.646
78105SOL    HW236213   2.530   0.507   3.758
78106SOL     OW36214   5.228  12.710  13.245
78106SOL    HW136215   5.174  12.785  13.221
78106SOL    HW236216   5.305  12.748  13.287
78107SOL     OW36217  11.078   3.905   1.905
78107SOL    HW136218  11.153   3.919   1.846
78107SOL    HW236219  11.017   3.853   1.853
78108SOL     OW36220   3.293   2.598  10.929
78108SOL    HW136221   3.228   2.529  10.917
78108SOL    HW236222   3.285   2.623  11.021
78109SOL     OW36223   3.298  13.712  14.031
78109SOL    HW136224   3.372  13.718  14.092
78109SOL    HW236225   3.261  13.800  14.030
78110SOL     OW36226   7.787   6.179   0.360
78110SOL    HW136227   7.839   6.218   0.289
78110SOL    HW236228   7.701   6.221   0.352
78111SOL     OW36229   1.647   4.528   1.817
78111SOL    HW136230   1.593   4.495   1.889
78111SOL    HW236231   1.641   4.623   1.824
78112SOL     OW36232   8.362   3.736  14.332
78112SOL    HW136233   8.268   3.743  14.350
78112SOL    HW236234   8.379   3.804  14.267
78113SOL     OW36235   8.684   3.362   7.769
78113SOL    HW136236   8.775   3.379   7.749
78113SOL    HW236237   8.682   3.351   7.864
78114SOL     OW36238   9.201  11.841  10.735
78114SOL    HW136239   9.117  11.875  10.767
78114SOL    HW236240   9.266  11.905  10.763
78115SOL     OW36241   1.215   4.648   1.948
78115SOL    HW136242   1.230   4.554   1.950
78115SOL    HW236243   1.146   4.663   2.012
78116SOL     OW36244  14.227  11.585   4.402
78116SOL    HW136245  14.146  11.538   4.419
78116SOL    HW236246  14.208  11.676   4.424
78117SOL     OW36247   6.558  11.903   8.257
78117SOL    HW136248   6.607  11.961   8.316
78117SOL    HW236249   6.516  11.963   8.196
78118SOL     OW36250   4.273   4.106  12.941
78118SOL    HW136251   4.254   4.155  12.861
78118SOL    HW236252   4.312   4.171  12.999
78119SOL     OW36253   8.338   1.693   7.161
78119SOL    HW136254   8.330   1.617   7.218
78119SOL    HW236255   8.402   1.667   7.094
78120SOL     OW36256   6.519  13.039   2.001
78120SOL    HW136257   6.507  13.129   2.031
78120SOL    HW236258   6.601  13.041   1.951
78121SOL     OW36259   9.256   3.586   7.651
78121SOL    HW136260   9.210   3.538   7.719
78121SOL    HW236261   9.237   3.678   7.669
78122SOL     OW36262   5.999   6.630  11.699
78122SOL    HW136263   6.051   6.710  11.689
78122SOL    HW236264   5.908   6.660  11.696
78123SOL     OW36265  10.164  10.012   3.594
78123SOL    HW136266  10.120  10.088   3.631
78123SOL    HW236267  10.252  10.013   3.634
78124SOL     OW36268  10.587  10.174  14.213
78124SOL    HW136269  10.644  10.150  14.140
78124SOL    HW236270  10.632  10.139  14.290
78125SOL     OW36271  11.138  14.580   7.682
78125SOL    HW136272  11.142  14.673   7.659
78125SOL    HW236273  11.139  14.535   7.598
78126SOL     OW36274  12.410   0.154   7.624
78126SOL    HW136275  12.437   0.111   7.542
78126SOL    HW236276  12.437   0.093   7.692
78127SOL     OW36277   8.811   3.407   4.068
78127SOL    HW136278   8.898   3.378   4.042
78127SOL    HW236279   8.814   3.412   4.163
78128SOL     OW36280   7.836   1.248  12.592
78128SOL    HW136281   7.747   1.221  12.614
78128SOL    HW236282   7.826   1.331  12.546
78129SOL     OW36283   0.446   3.426   1.323
78129SOL    HW136284   0.518   3.381   1.278
78129SOL    HW236285   0.417   3.365   1.390
78130SOL     OW36286   6.591   1.575  12.510
78130SOL    HW136287   6.621   1.556  12.421
78130SOL    HW236288   6.669   1.606  12.555
78131SOL     OW36289  10.941   7.235   3.339
78131SOL    HW136290  10.846   7.225   3.332
78131SOL    HW236291  10.959   7.220   3.432
78132SOL     OW36292  10.374   1.630   3.212
78132SOL    HW136293  10.334   1.604   3.295
78132SOL    HW236294  10.445   1.688   3.237
78133SOL     OW36295  10.778   8.920  12.839
78133SOL    HW136296  10.730   8.962  12.910
78133SOL    HW236297  10.749   8.966  12.760
78134SOL     OW36298   4.924   4.066  12.928
78134SOL    HW136299   4.976   4.014  12.989
78134SOL    HW236300   4.956   4.041  12.841
78135SOL     OW36301   9.529  12.638   4.421
78135SOL    HW136302   9.447  12.678   4.392
78135SOL    HW236303   9.536  12.661   4.513
78136SOL     OW36304  10.161   9.588   0.845
78136SOL    HW136305  10.073   9.558   0.823
78136SOL    HW236306  10.178   9.661   0.786
78137SOL     OW36307   7.789  14.598  13.475
78137SOL    HW136308   7.804  14.586  13.382
78137SOL    HW236309   7.853  14.664  13.502
78138SOL     OW36310   3.793   4.744  11.409
78138SOL    HW136311   3.807   4.697  11.491
78138SOL    HW236312   3.876   4.789  11.393
78139SOL     OW36313   7.047   7.408  14.809
78139SOL    HW136314   7.075   7.319  14.828
78139SOL    HW236315   7.061   7.419  14.715
78140SOL     OW36316   1.131   2.574   6.996
78140SOL    HW136317   1.068   2.549   6.928
78140SOL    HW236318   1.205   2.515   6.982
78141SOL     OW36319   0.314   7.593   8.371
78141SOL    HW136320   0.239   7.554   8.327
78141SOL    HW236321   0.339   7.527   8.436
78142SOL     OW36322   2.230  12.167  13.197
78142SOL    HW136323   2.138  12.142  13.191
78142SOL    HW236324   2.275  12.087  13.221
78143SOL     OW36325   7.156  11.348   8.437
78143SOL    HW136326   7.176  11.284   8.505
78143SOL    HW236327   7.205  11.318   8.360
78144SOL     OW36328   3.985  13.535   9.979
78144SOL    HW136329   3.953  13.614   9.935
78144SOL    HW236330   4.069  13.561  10.017
78145SOL     OW36331   8.081   6.020  12.504
78145SOL    HW136332   8.093   6.023  12.409
78145SOL    HW236333   8.006   5.962  12.516
78146SOL     OW36334   0.301   7.842  12.012
78146SOL    HW136335   0.246   7.764  12.004
78146SOL    HW236336   0.354   7.843  11.932
78147SOL     OW36337   6.560   9.436  12.044
78147SOL    HW136338   6.563   9.358  12.100
78147SOL    HW236339   6.651   9.448  12.016
78148SOL     OW36340  13.233  13.020   6.475
78148SOL    HW136341  13.167  13.034   6.543
78148SOL    HW236342  13.209  12.937   6.435
78149SOL     OW36343  14.043  11.598  11.339
78149SOL    HW136344  14.121  11.567  11.293
78149SOL    HW236345  13.978  11.528  11.327
78150SOL     OW36346  10.834  14.198   4.168
78150SOL    HW136347  10.909  14.234   4.121
78150SOL    HW236348  10.800  14.271   4.219
78151SOL     OW36349   4.691   3.905   0.857
78151SOL    HW136350   4.657   3.913   0.946
78151SOL    HW236351   4.619   3.862   0.809
78152SOL     OW36352   2.171  10.745  12.006
78152SOL    HW136353   2.210  10.807  12.068
78152SOL    HW236354   2.224  10.666  12.016
78153SOL     OW36355   0.580  13.656   1.760
78153SOL    HW136356   0.616  13.745   1.754
78153SOL    HW236357   0.555  13.646   1.852
78154SOL     OW36358  12.952  10.057   6.775
78154SOL    HW136359  12.955  10.145   6.736
78154SOL    HW236360  13.041  10.023   6.765
78155SOL     OW36361   1.792   4.052  12.623
78155SOL    HW136362   1.831   3.986  12.567
78155SOL    HW236363   1.745   4.110  12.564
78156SOL     OW36364  10.406  11.742  12.045
78156SOL    HW136365  10.333  11.740  12.107
78156SOL    HW236366  10.370  11.708  11.964
78157SOL     OW36367  14.566  11.366  13.005
78157SOL    HW136368  14.513  11.411  13.070
78157SOL    HW236369  14.551  11.273  13.022
78158SOL     OW36370   2.074   0.668  11.786
78158SOL    HW136371   2.138   0.639  11.721
78158SOL    HW236372   2.066   0.762  11.772
78159SOL     OW36373   2.893   5.471  11.755
78159SOL    HW136374   2.975   5.423  11.765
78159SOL    HW236375   2.894   5.535  11.826
78160SOL     OW36376   2.411  11.316   1.963
78160SOL    HW136377   2.426  11.322   1.868
78160SOL    HW236378   2.497  11.297   1.999
78161SOL     OW36379   1.574   1.943  14.157
78161SOL    HW136380   1.485   1.978  14.161
78161SOL    HW236381   1.567   1.854  14.192
78162SOL     OW36382   5.864  12.089   6.337
78162SOL    HW136383   5.819  12.154   6.283
78162SOL    HW236384   5.837  12.005   6.300
78163SOL     OW36385  12.401   5.099  11.547
78163SOL    HW136386  12.477   5.096  11.606
78163SOL    HW236387  12.338   5.156  11.592
78164SOL     OW36388   9.000   9.822   1.470
78164SOL    HW136389   9.067   9.828   1.538
78164SOL    HW236390   9.043   9.778   1.397
78165SOL     OW36391   5.324  10.521   5.152
78165SOL    HW136392   5.385  10.595   5.158
78165SOL    HW236393   5.362  10.465   5.084
78166SOL     OW36394   0.069  14.850   3.934
78166SOL    HW136395   0.034  14.834   4.022
78166SOL    HW236396   0.061   0.063   3.922
78167SOL     OW36397  13.284   7.658   5.121
78167SOL    HW136398  13.287   7.570   5.160
78167SOL    HW236399  13.370   7.695   5.139
78168SOL     OW36400   7.436   5.166  14.248
78168SOL    HW136401   7.499   5.207  14.189
78168SOL    HW236402   7.415   5.082  14.207
78169SOL     OW36403   7.603   0.730  14.319
78169SOL    HW136404   7.601   0.634  14.316
78169SOL    HW236405   7.592   0.757  14.228
78170SOL     OW36406   0.424  13.206   0.198
78170SOL    HW136407   0.352  13.200   0.260
78170SOL    HW236408   0.476  13.282   0.227
78171SOL     OW36409  12.931   2.743  11.573
78171SOL    HW136410  12.861   2.777  11.517
78171SOL    HW236411  12.891   2.671  11.621
78172SOL     OW36412   8.107  14.107   4.793
78172SOL    HW136413   8.046  14.177   4.816
78172SOL    HW236414   8.094  14.094   4.699
78173SOL     OW36415   8.263   6.568   5.668
78173SOL    HW136416   8.298   6.643   5.620
78173SOL    HW236417   8.311   6.567   5.750
78174SOL     OW36418   8.373   8.607   0.720
78174SOL    HW136419   8.357   8.542   0.651
78174SOL    HW236420   8.297   8.665   0.716
78175SOL     OW36421   7.787  10.364   1.883
78175SOL    HW136422   7.858  10.420   1.855
78175SOL    HW236423   7.815  10.329   1.968
78176SOL     OW36424  13.164   2.759   9.740
78176SOL    HW136425  13.175   2.798   9.826
78176SOL    HW236426  13.108   2.821   9.693
78177SOL     OW36427  12.249   1.158  13.251
78177SOL    HW136428  12.283   1.178  13.164
78177SOL    HW236429  12.290   1.074  13.274
78178SOL     OW36430   9.216   3.797  13.113
78178SOL    HW136431   9.186   3.886  13.095
78178SOL    HW236432   9.235   3.760  13.027
78179SOL     OW36433   1.689   9.990   1.781
78179SOL    HW136434   1.701   9.985   1.686
78179SOL    HW236435   1.638  10.069   1.795
78180SOL     OW36436   3.754   7.744   0.449
78180SOL    HW136437   3.743   7.757   0.543
78180SOL    HW236438   3.827   7.800   0.425
78181SOL     OW36439  10.431   1.136  10.455
78181SOL    HW136440  10.373   1.160  10.383
78181SOL    HW236441  10.514   1.180  10.435
78182SOL     OW36442   7.946   0.133   6.391
78182SOL    HW136443   7.979   0.138   6.481
78182SOL    HW236444   7.915   0.043   6.383
78183SOL     OW36445   5.778   7.001   0.571
78183SOL    HW136446   5.690   7.028   0.595
78183SOL    HW236447   5.808   7.067   0.509
78184SOL     OW36448   9.237  14.306   5.444
78184SOL    HW136449   9.300  14.360   5.492
78184SOL    HW236450   9.270  14.217   5.452
78185SOL     OW36451   4.364   8.657  12.518
78185SOL    HW136452   4.371   8.570  12.478
78185SOL    HW236453   4.454   8.691  12.515
78186SOL     OW36454   4.005   5.790  14.848
78186SOL    HW136455   4.071   5.722  14.833
78186SOL    HW236456   4.052   5.872  14.833
78187SOL     OW36457  11.029   5.939   1.157
78187SOL    HW136458  11.029   5.938   1.061
78187SOL    HW236459  10.950   5.986   1.181
78188SOL     OW36460  12.816   6.788   9.558
78188SOL    HW136461  12.744   6.833   9.602
78188SOL    HW236462  12.780   6.765   9.472
78189SOL     OW36463   9.263   8.105   1.387
78189SOL    HW136464   9.257   8.100   1.482
78189SOL    HW236465   9.353   8.082   1.366
78190SOL     OW36466  10.671   5.486   6.572
78190SOL    HW136467  10.678   5.394   6.548
78190SOL    HW236468  10.631   5.528   6.495
78191SOL     OW36469   4.523   0.751   5.836
78191SOL    HW136470   4.480   0.758   5.922
78191SOL    HW236471   4.568   0.666   5.838
78192SOL     OW36472   9.720  11.572   4.955
78192SOL    HW136473   9.673  11.569   5.039
78192SOL    HW236474   9.796  11.626   4.972
78193SOL     OW36475   0.458  11.683   5.766
78193SOL    HW136476   0.369  11.657   5.790
78193SOL    HW236477   0.469  11.648   5.677
78194SOL     OW36478   9.547   0.349   6.789
78194SOL    HW136479   9.484   0.277   6.794
78194SOL    HW236480   9.604   0.326   6.716
78195SOL     OW36481  14.539  11.066   7.127
78195SOL    HW136482  14.611  11.124   7.151
78195SOL    HW236483  14.467  11.092   7.184
78196SOL     OW36484  11.887   9.677  11.059
78196SOL    HW136485  11.891   9.772  11.063
78196SOL    HW236486  11.930   9.655  10.976
78197SOL     OW36487  12.081   5.242  10.146
78197SOL    HW136488  12.071   5.156  10.186
78197SOL    HW236489  12.172   5.242  10.114
78198SOL     OW36490   6.169   0.230  14.320
78198SOL    HW136491   6.173   0.287  14.397
78198SOL    HW236492   6.150   0.143  14.356
78199SOL     OW36493   1.380  11.798   6.622
78199SOL    HW136494   1.364  11.878   6.671
78199SOL    HW236495   1.402  11.733   6.689
78200SOL     OW36496   4.568   0.765   4.541
78200SOL    HW136497   4.593   0.796   4.454
78200SOL    HW236498   4.516   0.837   4.578
78201SOL     OW36499  12.121   8.021  11.823
78201SOL    HW136500  12.189   8.088  11.816
78201SOL    HW236501  12.045   8.067  11.857
78202SOL     OW36502   2.885  12.616   0.695
78202SOL    HW136503   2.864  12.692   0.641
78202SOL    HW236504   2.827  12.547   0.663
78203SOL     OW36505   6.396  13.799   0.554
78203SOL    HW136506   6.373  13.715   0.514
78203SOL    HW236507   6.437  13.849   0.483
78204SOL     OW36508   6.339   5.451   9.958
78204SOL    HW136509   6.433   5.440   9.968
78204SOL    HW236510   6.305   5.447  10.048
78205SOL     OW36511   3.296  12.544  13.491
78205SOL    HW136512   3.265  12.625  13.450
78205SOL    HW236513   3.365  12.572  13.551
78206SOL     OW36514   2.238   2.484   9.532
78206SOL    HW136515   2.160   2.493   9.476
78206SOL    HW236516   2.307   2.455   9.472
78207SOL     OW36517   9.756   7.640   7.926
78207SOL    HW136518   9.823   7.666   7.863
78207SOL    HW236519   9.793   7.666   8.011
78208SOL     OW36520   7.638   9.843   9.922
78208SOL    HW136521   7.562   9.828   9.977
78208SOL    HW236522   7.653   9.758   9.880
78209SOL     OW36523   6.136   9.026  14.564
78209SOL    HW136524   6.144   9.118  14.537
78209SOL    HW236525   6.166   8.976  14.488
78210SOL     OW36526   1.671  11.739   3.451
78210SOL    HW136527   1.703  11.650   3.467
78210SOL    HW236528   1.748  11.794   3.457
78211SOL     OW36529   5.249  14.379  10.704
78211SOL    HW136530   5.205  14.355  10.786
78211SOL    HW236531   5.342  14.363  10.722
78212SOL     OW36532   4.968   1.960  11.529
78212SOL    HW136533   4.916   1.970  11.609
78212SOL    HW236534   4.905   1.930  11.464
78213SOL     OW36535   2.221   1.244  10.054
78213SOL    HW136536   2.246   1.197   9.974
78213SOL    HW236537   2.294   1.304  10.070
78214SOL     OW36538   5.371  13.834   1.680
78214SOL    HW136539   5.418  13.916   1.695
78214SOL    HW236540   5.279  13.858   1.685
78215SOL     OW36541   9.824  12.188   3.991
78215SOL    HW136542   9.856  12.134   3.919
78215SOL    HW236543   9.782  12.126   4.050
78216SOL     OW36544  13.441  14.035   6.117
78216SOL    HW136545  13.448  13.959   6.175
78216SOL    HW236546  13.508  14.095   6.147
78217SOL     OW36547   2.675  10.804   8.233
78217SOL    HW136548   2.685  10.733   8.296
78217SOL    HW236549   2.590  10.788   8.192
78218SOL     OW36550  13.974   4.957  10.121
78218SOL    HW136551  13.943   5.047  10.121
78218SOL    HW236552  14.057   4.960  10.072
78219SOL     OW36553   0.774   1.843   0.074
78219SOL    HW136554   0.798   1.760   0.115
78219SOL    HW236555   0.683   1.832   0.048
78220SOL     OW36556  11.793   7.174  14.650
78220SOL    HW136557  11.823   7.144  14.565
78220SOL    HW236558  11.797   7.095  14.705
78221SOL     OW36559   5.601  10.734   1.606
78221SOL    HW136560   5.643  10.713   1.523
78221SOL    HW236561   5.585  10.648   1.646
78222SOL     OW36562   2.942   8.966   2.948
78222SOL    HW136563   3.033   8.978   2.974
78222SOL    HW236564   2.899   8.929   3.025
78223SOL     OW36565   1.907   7.820  11.664
78223SOL    HW136566   1.936   7.803  11.753
78223SOL    HW236567   1.812   7.831  11.671
78224SOL     OW36568  12.752  11.442   7.652
78224SOL    HW136569  12.719  11.386   7.581
78224SOL    HW236570  12.783  11.381   7.719
78225SOL     OW36571  14.152   5.601  10.487
78225SOL    HW136572  14.243   5.612  10.457
78225SOL    HW236573  14.099   5.636  10.416
78226SOL     OW36574  12.511   8.982   2.731
78226SOL    HW136575  12.423   8.955   2.756
78226SOL    HW236576  12.511   8.977   2.635
78227SOL     OW36577  10.958   0.349   3.688
78227SOL    HW136578  11.035   0.300   3.716
78227SOL    HW236579  10.919   0.295   3.619
78228SOL     OW36580   6.065   2.955  11.301
78228SOL    HW136581   6.030   3.022  11.359
78228SOL    HW236582   6.010   2.878  11.318
78229SOL     OW36583   0.052   8.983   3.882
78229SOL    HW136584   0.053   8.933   3.801
78229SOL    HW236585   0.052   9.074   3.854
78230SOL     OW36586   2.904   7.481  13.954
78230SOL    HW136587   2.886   7.530  13.874
78230SOL    HW236588   2.921   7.392  13.924
78231SOL     OW36589   2.422  14.313   4.073
78231SOL    HW136590   2.450  14.399   4.103
78231SOL    HW236591   2.327  14.313   4.084
78232SOL     OW36592  14.532  12.611  11.493
78232SOL    HW136593  14.508  12.519  11.505
78232SOL    HW236594  14.600  12.609  11.426
78233SOL     OW36595   8.299   5.767   6.285
78233SOL    HW136596   8.248   5.759   6.366
78233SOL    HW236597   8.257   5.706   6.224
78234SOL     OW36598  13.206  11.635   5.836
78234SOL    HW136599  13.264  11.706   5.807
78234SOL    HW236600  13.158  11.673   5.910
78235SOL     OW36601   4.507   3.320  12.078
78235SOL    HW136602   4.413   3.324  12.061
78235SOL    HW236603   4.516   3.254  12.147
78236SOL     OW36604   4.342  12.694  10.220
78236SOL    HW136605   4.420  12.683  10.165
78236SOL    HW236606   4.362  12.768  10.276
78237SOL     OW36607   9.120   1.710  11.957
78237SOL    HW136608   9.196   1.713  11.899
78237SOL    HW236609   9.099   1.802  11.974
78238SOL     OW36610   0.798  10.403   5.181
78238SOL    HW136611   0.738  10.390   5.108
78238SOL    HW236612   0.795  10.321   5.231
78239SOL     OW36613   1.843  11.010   5.092
78239SOL    HW136614   1.754  11.003   5.058
78239SOL    HW236615   1.832  11.034   5.184
78240SOL     OW36616  11.480   5.647   6.400
78240SOL    HW136617  11.509   5.568   6.355
78240SOL    HW236618  11.553   5.670   6.457
78241SOL     OW36619  14.795  11.135   3.189
78241SOL    HW136620  14.710  11.180   3.187
78241SOL    HW236621  14.839  11.165   3.110
78242SOL     OW36622  12.680   3.564  13.533
78242SOL    HW136623  12.607   3.625  13.523
78242SOL    HW236624  12.644   3.492  13.586
78243SOL     OW36625  13.289   8.735   8.895
78243SOL    HW136626  13.313   8.739   8.802
78243SOL    HW236627  13.348   8.796   8.938
78244SOL     OW36628   7.985  14.213  11.937
78244SOL    HW136629   8.010  14.167  11.857
78244SOL    HW236630   8.061  14.206  11.994
78245SOL     OW36631   4.530  10.852  13.157
78245SOL    HW136632   4.457  10.792  13.174
78245SOL    HW236633   4.554  10.885  13.244
78246SOL     OW36634  13.224   8.459   0.425
78246SOL    HW136635  13.246   8.404   0.349
78246SOL    HW236636  13.131   8.445   0.439
78247SOL     OW36637  12.371  11.771   7.872
78247SOL    HW136638  12.302  11.810   7.927
78247SOL    HW236639  12.385  11.684   7.909
78248SOL     OW36640   3.641  14.416   9.259
78248SOL    HW136641   3.711  14.453   9.314
78248SOL    HW236642   3.687  14.377   9.185
78249SOL     OW36643  11.518   7.252   4.896
78249SOL    HW136644  11.567   7.212   4.967
78249SOL    HW236645  11.583   7.301   4.846
78250SOL     OW36646   3.148   2.467  10.016
78250SOL    HW136647   3.100   2.512  10.086
78250SOL    HW236648   3.177   2.385  10.056
78251SOL     OW36649   8.323   2.321   0.008
78251SOL    HW136650   8.362   2.373   0.078
78251SOL    HW236651   8.394   2.308  14.828
78252SOL     OW36652  10.119   8.158   4.495
78252SOL    HW136653  10.134   8.072   4.534
78252SOL    HW236654  10.207   8.192   4.478
78253SOL     OW36655   6.815  12.321   5.192
78253SOL    HW136656   6.724  12.298   5.209
78253SOL    HW236657   6.859  12.238   5.177
78254SOL     OW36658   3.738   6.364   9.535
78254SOL    HW136659   3.729   6.273   9.564
78254SOL    HW236660   3.741   6.415   9.616
78255SOL     OW36661  11.273  12.135   9.099
78255SOL    HW136662  11.230  12.134   9.185
78255SOL    HW236663  11.318  12.219   9.096
78256SOL     OW36664   3.839   5.110   4.308
78256SOL    HW136665   3.857   5.079   4.219
78256SOL    HW236666   3.758   5.064   4.333
78257SOL     OW36667  13.260   3.531  11.189
78257SOL    HW136668  13.168   3.543  11.164
78257SOL    HW236669  13.287   3.451  11.145
78258SOL     OW36670   6.220   8.756   5.366
78258SOL    HW136671   6.161   8.815   5.413
78258SOL    HW236672   6.170   8.675   5.356
78259SOL     OW36673  13.375   7.324   0.229
78259SOL    HW136674  13.304   7.317   0.293
78259SOL    HW236675  13.449   7.356   0.280
78260SOL     OW36676   6.530   5.352   4.430
78260SOL    HW136677   6.563   5.344   4.340
78260SOL    HW236678   6.510   5.445   4.440
78261SOL     OW36679  14.532   0.125   4.718
78261SOL    HW136680  14.508   0.091   4.804
78261SOL    HW236681  14.452   0.169   4.687
78262SOL     OW36682   8.228   0.490   9.601
78262SOL    HW136683   8.193   0.499   9.512
78262SOL    HW236684   8.316   0.455   9.588
78263SOL     OW36685   6.389  14.563  13.372
78263SOL    HW136686   6.361  14.651  13.344
78263SOL    HW236687   6.422  14.522  13.292
78264SOL     OW36688   7.182   2.066  13.340
78264SOL    HW136689   7.249   2.009  13.377
78264SOL    HW236690   7.230   2.141  13.306
78265SOL     OW36691   3.418   0.362   8.156
78265SOL    HW136692   3.443   0.453   8.173
78265SOL    HW236693   3.378   0.332   8.238
78266SOL     OW36694  10.825  13.094  13.847
78266SOL    HW136695  10.829  13.024  13.782
78266SOL    HW236696  10.914  13.129  13.850
78267SOL     OW36697   8.966   0.755  13.439
78267SOL    HW136698   8.899   0.769  13.506
78267SOL    HW236699   8.960   0.661  13.419
78268SOL     OW36700   7.279   3.311   4.808
78268SOL    HW136701   7.363   3.343   4.841
78268SOL    HW236702   7.215   3.335   4.876
78269SOL     OW36703   7.157   6.084  13.837
78269SOL    HW136704   7.118   6.170  13.851
78269SOL    HW236705   7.083   6.025  13.826
78270SOL     OW36706   7.729   4.824  13.773
78270SOL    HW136707   7.747   4.881  13.698
78270SOL    HW236708   7.705   4.884  13.843
78271SOL     OW36709   7.227  13.564   2.846
78271SOL    HW136710   7.250  13.515   2.767
78271SOL    HW236711   7.188  13.645   2.813
78272SOL     OW36712   7.925   2.725   8.159
78272SOL    HW136713   7.972   2.676   8.225
78272SOL    HW236714   7.984   2.725   8.083
78273SOL     OW36715   1.272   1.348   9.384
78273SOL    HW136716   1.353   1.351   9.435
78273SOL    HW236717   1.255   1.255   9.371
78274SOL     OW36718   9.778   3.539   6.833
78274SOL    HW136719   9.858   3.528   6.885
78274SOL    HW236720   9.794   3.488   6.754
78275SOL     OW36721   0.710   1.458   3.708
78275SOL    HW136722   0.634   1.412   3.672
78275SOL    HW236723   0.769   1.467   3.633
78276SOL     OW36724   5.804  13.374  10.923
78276SOL    HW136725   5.855  13.434  10.868
78276SOL    HW236726   5.746  13.431  10.974
78277SOL     OW36727   7.587   9.027   7.382
78277SOL    HW136728   7.581   9.112   7.425
78277SOL    HW236729   7.653   9.039   7.313
78278SOL     OW36730   9.876   7.637   0.612
78278SOL    HW136731   9.789   7.610   0.584
78278SOL    HW236732   9.877   7.732   0.599
78279SOL     OW36733   7.622  11.249   1.637
78279SOL    HW136734   7.688  11.287   1.695
78279SOL    HW236735   7.591  11.171   1.683
78280SOL     OW36736  12.612  10.110   2.441
78280SOL    HW136737  12.568  10.047   2.385
78280SOL    HW236738  12.611  10.071   2.528
78281SOL     OW36739  12.764  11.231  12.919
78281SOL    HW136740  12.727  11.144  12.902
78281SOL    HW236741  12.856  11.223  12.893
78282SOL     OW36742   9.161   2.559   2.328
78282SOL    HW136743   9.214   2.583   2.252
78282SOL    HW236744   9.216   2.578   2.404
78283SOL     OW36745   6.136   8.453  10.270
78283SOL    HW136746   6.209   8.391  10.269
78283SOL    HW236747   6.170   8.528  10.318
78284SOL     OW36748   3.369  14.784   4.937
78284SOL    HW136749   3.313  14.730   4.880
78284SOL    HW236750   3.378  14.731   5.016
78285SOL     OW36751   1.438   2.221   4.287
78285SOL    HW136752   1.517   2.176   4.258
78285SOL    HW236753   1.436   2.301   4.236
78286SOL     OW36754   0.868  13.752   8.781
78286SOL    HW136755   0.794  13.692   8.792
78286SOL    HW236756   0.944  13.703   8.809
78287SOL     OW36757  13.131   1.197  12.974
78287SOL    HW136758  13.204   1.204  13.035
78287SOL    HW236759  13.113   1.103  12.969
78288SOL     OW36760   4.478   9.922   0.103
78288SOL    HW136761   4.494   9.844   0.050
78288SOL    HW236762   4.384   9.935   0.098
78289SOL     OW36763   5.697   9.934   1.796
78289SOL    HW136764   5.627   9.980   1.841
78289SOL    HW236765   5.774   9.989   1.809
78290SOL     OW36766   7.632   6.157   9.177
78290SOL    HW136767   7.576   6.127   9.106
78290SOL    HW236768   7.598   6.112   9.255
78291SOL     OW36769  12.724   1.538   1.754
78291SOL    HW136770  12.726   1.599   1.826
78291SOL    HW236771  12.713   1.452   1.795
78292SOL     OW36772  13.746   7.454   3.204
78292SOL    HW136773  13.729   7.410   3.121
78292SOL    HW236774  13.664   7.443   3.253
78293SOL     OW36775  12.992   2.063  14.225
78293SOL    HW136776  13.013   2.020  14.142
78293SOL    HW236777  12.908   2.105  14.210
78294SOL     OW36778   9.584   1.522  11.976
78294SOL    HW136779   9.530   1.585  11.929
78294SOL    HW236780   9.531   1.494  12.051
78295SOL     OW36781   2.742  13.249   6.653
78295SOL    HW136782   2.754  13.343   6.671
78295SOL    HW236783   2.749  13.207   6.739
78296SOL     OW36784   3.559   3.618   1.043
78296SOL    HW136785   3.606   3.613   1.126
78296SOL    HW236786   3.611   3.677   0.989
78297SOL     OW36787   3.346   7.261  10.393
78297SOL    HW136788   3.288   7.309  10.452
78297SOL    HW236789   3.348   7.314  10.313
78298SOL     OW36790   5.892   5.461   1.343
78298SOL    HW136791   5.923   5.541   1.301
78298SOL    HW236792   5.912   5.392   1.280
78299SOL     OW36793  10.106  14.371  13.625
78299SOL    HW136794  10.027  14.370  13.570
78299SOL    HW236795  10.139  14.281  13.620
78300SOL     OW36796   3.695   4.763   9.442
78300SOL    HW136797   3.756   4.809   9.498
78300SOL    HW236798   3.703   4.671   9.466
78301SOL     OW36799  10.706   7.814   6.334
78301SOL    HW136800  10.624   7.786   6.293
78301SOL    HW236801  10.685   7.821   6.427
78302SOL     OW36802   1.994   5.289   5.053
78302SOL    HW136803   1.943   5.211   5.035
78302SOL    HW236804   1.931   5.361   5.050
78303SOL     OW36805   1.843   9.102   2.382
78303SOL    HW136806   1.897   9.107   2.304
78303SOL    HW236807   1.755   9.084   2.349
78304SOL     OW36808   2.847   1.479   8.205
78304SOL    HW136809   2.833   1.449   8.294
78304SOL    HW236810   2.759   1.497   8.171
78305SOL     OW36811   7.147  12.572   5.532
78305SOL    HW136812   7.077  12.531   5.481
78305SOL    HW236813   7.217  12.587   5.469
78306SOL     OW36814   6.796   6.765   3.040
78306SOL    HW136815   6.829   6.854   3.024
78306SOL    HW236816   6.818   6.747   3.131
78307SOL     OW36817  11.473  10.418  14.184
78307SOL    HW136818  11.396  10.365  14.207
78307SOL    HW236819  11.525  10.361  14.127
78308SOL     OW36820   9.349   3.243  10.845
78308SOL    HW136821   9.369   3.159  10.887
78308SOL    HW236822   9.435   3.277  10.818
78309SOL     OW36823  14.361   7.406   2.092
78309SOL    HW136824  14.281   7.401   2.145
78309SOL    HW236825  14.411   7.329   2.117
78310SOL     OW36826   2.644   1.904  10.946
78310SOL    HW136827   2.644   1.880  11.038
78310SOL    HW236828   2.594   1.986  10.942
78311SOL     OW36829   4.547  12.959  12.894
78311SOL    HW136830   4.508  12.894  12.836
78311SOL    HW236831   4.606  13.009  12.838
78312SOL     OW36832  11.906   7.484   8.631
78312SOL    HW136833  11.909   7.520   8.542
78312SOL    HW236834  11.913   7.560   8.688
78313SOL     OW36835   9.657   7.241   6.559
78313SOL    HW136836   9.693   7.308   6.618
78313SOL    HW236837   9.733   7.192   6.529
78314SOL     OW36838   1.332   7.366   5.866
78314SOL    HW136839   1.411   7.325   5.829
78314SOL    HW236840   1.328   7.452   5.825
78315SOL     OW36841   8.515   0.676  13.105
78315SOL    HW136842   8.559   0.632  13.032
78315SOL    HW236843   8.490   0.605  13.164
78316SOL     OW36844   9.384  13.682   9.114
78316SOL    HW136845   9.466  13.732   9.124
78316SOL    HW236846   9.409  13.605   9.064
78317SOL     OW36847   4.149   7.835   8.660
78317SOL    HW136848   4.069   7.880   8.688
78317SOL    HW236849   4.128   7.742   8.668
78318SOL     OW36850  13.027  10.708  10.216
78318SOL    HW136851  13.023  10.613  10.204
78318SOL    HW236852  13.088  10.721  10.288
78319SOL     OW36853  13.391   4.956  12.860
78319SOL    HW136854  13.416   5.035  12.812
78319SOL    HW236855  13.461   4.893  12.839
78320SOL     OW36856   3.251   8.917   6.531
78320SOL    HW136857   3.156   8.928   6.532
78320SOL    HW236858   3.266   8.828   6.562
78321SOL     OW36859   2.489  14.552   3.373
78321SOL    HW136860   2.435  14.580   3.299
78321SOL    HW236861   2.532  14.632   3.402
78322SOL     OW36862   2.516   5.567   6.049
78322SOL    HW136863   2.549   5.657   6.043
78322SOL    HW236864   2.559   5.521   5.977
78323SOL     OW36865   4.016   6.775   3.703
78323SOL    HW136866   4.085   6.747   3.643
78323SOL    HW236867   3.943   6.798   3.645
78324SOL     OW36868   2.227   9.530  10.329
78324SOL    HW136869   2.140   9.562  10.305
78324SOL    HW236870   2.242   9.566  10.417
78325SOL     OW36871  12.649  13.490   9.343
78325SOL    HW136872  12.595  13.565   9.317
78325SOL    HW236873  12.687  13.516   9.427
78326SOL     OW36874  10.134  11.589   3.502
78326SOL    HW136875  10.059  11.540   3.535
78326SOL    HW236876  10.103  11.630   3.422
78327SOL     OW36877   4.379   7.654   5.872
78327SOL    HW136878   4.398   7.748   5.876
78327SOL    HW236879   4.312   7.641   5.939
78328SOL     OW36880   7.594   0.421   4.495
78328SOL    HW136881   7.574   0.456   4.408
78328SOL    HW236882   7.690   0.419   4.498
78329SOL     OW36883   9.042   9.618  11.822
78329SOL    HW136884   9.035   9.522  11.824
78329SOL    HW236885   9.134   9.634  11.801
78330SOL     OW36886  11.697   4.246   4.093
78330SOL    HW136887  11.670   4.244   4.185
78330SOL    HW236888  11.641   4.183   4.050
78331SOL     OW36889  12.119   0.195  11.270
78331SOL    HW136890  12.066   0.240  11.204
78331SOL    HW236891  12.076   0.217  11.353
78332SOL     OW36892  11.595   4.553  14.505
78332SOL    HW136893  11.576   4.644  14.483
78332SOL    HW236894  11.582   4.506  14.422
78333SOL     OW36895  12.353   4.358  10.287
78333SOL    HW136896  12.375   4.372  10.379
78333SOL    HW236897  12.426   4.307  10.252
78334SOL     OW36898  14.211   6.263  11.191
78334SOL    HW136899  14.243   6.332  11.249
78334SOL    HW236900  14.138   6.223  11.239
78335SOL     OW36901   6.548   7.938  12.685
78335SOL    HW136902   6.620   8.000  12.698
78335SOL    HW236903   6.555   7.878  12.759
78336SOL     OW36904   5.558  13.800  13.261
78336SOL    HW136905   5.497  13.856  13.308
78336SOL    HW236906   5.550  13.715  13.303
78337SOL     OW36907   5.360  13.603   7.762
78337SOL    HW136908   5.401  13.637   7.841
78337SOL    HW236909   5.272  13.641   7.763
78338SOL     OW36910   2.603   9.703   6.083
78338SOL    HW136911   2.698   9.704   6.098
78338SOL    HW236912   2.593   9.676   5.992
78339SOL     OW36913  13.860   0.151   9.425
78339SOL    HW136914  13.872   0.238   9.464
78339SOL    HW236915  13.768   0.150   9.397
78340SOL     OW36916   2.463   5.128  14.252
78340SOL    HW136917   2.437   5.041  14.223
78340SOL    HW236918   2.395   5.155  14.314
78341SOL     OW36919  14.407   4.591   8.953
78341SOL    HW136920  14.374   4.578   9.042
78341SOL    HW236921  14.330   4.586   8.898
78342SOL     OW36922   8.202   1.128  11.349
78342SOL    HW136923   8.254   1.071  11.405
78342SOL    HW236924   8.262   1.155  11.279
78343SOL     OW36925  13.706   3.409  10.158
78343SOL    HW136926  13.787   3.367  10.129
78343SOL    HW236927  13.686   3.473  10.090
78344SOL     OW36928  14.091   4.282  14.038
78344SOL    HW136929  14.147   4.228  14.094
78344SOL    HW236930  14.064   4.223  13.968
78345SOL     OW36931   0.506   8.978   1.863
78345SOL    HW136932   0.501   8.907   1.799
78345SOL    HW236933   0.429   8.967   1.919
78346SOL     OW36934   9.541   2.040   8.242
78346SOL    HW136935   9.583   1.999   8.167
78346SOL    HW236936   9.552   2.134   8.227
78347SOL     OW36937   2.999   5.717   0.828
78347SOL    HW136938   3.063   5.647   0.817
78347SOL    HW236939   2.960   5.701   0.914
78348SOL     OW36940  12.799  13.370  11.413
78348SOL    HW136941  12.790  13.351  11.319
78348SOL    HW236942  12.711  13.362  11.447
78349SOL     OW36943   1.917  11.903  11.970
78349SOL    HW136944   1.942  11.886  11.879
78349SOL    HW236945   1.993  11.874  12.021
78350SOL     OW36946   2.827   0.596   2.567
78350SOL    HW136947   2.902   0.654   2.572
78350SOL    HW236948   2.793   0.593   2.656
78351SOL     OW36949  10.085   2.392   8.229
78351SOL    HW136950  10.160   2.426   8.277
78351SOL    HW236951  10.045   2.469   8.190
78352SOL     OW36952   4.304   6.975   7.945
78352SOL    HW136953   4.261   6.893   7.920
78352SOL    HW236954   4.392   6.968   7.908
78353SOL     OW36955   0.447  12.824   7.080
78353SOL    HW136956   0.506  12.773   7.024
78353SOL    HW236957   0.498  12.841   7.159
78354SOL     OW36958   0.038   1.915  13.540
78354SOL    HW136959   0.082   1.844  13.586
78354SOL    HW236960  14.844   1.937  13.594
78355SOL     OW36961   2.926   3.472   4.535
78355SOL    HW136962   2.997   3.411   4.517
78355SOL    HW236963   2.879   3.480   4.451
78356SOL     OW36964   1.977  10.313   1.734
78356SOL    HW136965   1.887  10.341   1.714
78356SOL    HW236966   1.966  10.229   1.777
78357SOL     OW36967  14.706   6.187  14.623
78357SOL    HW136968  14.613   6.169  14.640
78357SOL    HW236969  14.708   6.222  14.534
78358SOL     OW36970   3.249   3.937   3.936
78358SOL    HW136971   3.312   3.867   3.947
78358SOL    HW236972   3.276   3.982   3.856
78359SOL     OW36973   9.005   6.963   9.232
78359SOL    HW136974   9.034   7.052   9.213
78359SOL    HW236975   8.974   6.967   9.323
78360SOL     OW36976   3.342  11.863   7.152
78360SOL    HW136977   3.388  11.816   7.082
78360SOL    HW236978   3.271  11.803   7.177
78361SOL     OW36979   1.599   7.184   1.111
78361SOL    HW136980   1.597   7.202   1.017
78361SOL    HW236981   1.515   7.217   1.143
78362SOL     OW36982   3.875  14.642  14.102
78362SOL    HW136983   3.969  14.650  14.091
78362SOL    HW236984   3.838  14.673  14.018
78363SOL     OW36985  11.213   5.143   8.184
78363SOL    HW136986  11.300   5.179   8.167
78363SOL    HW236987  11.230   5.052   8.211
78364SOL     OW36988  13.048  11.340   9.431
78364SOL    HW136989  13.073  11.426   9.396
78364SOL    HW236990  13.131  11.298   9.454
78365SOL     OW36991   6.674   8.034   9.811
78365SOL    HW136992   6.579   8.035   9.825
78365SOL    HW236993   6.689   8.102   9.746
78366SOL     OW36994   2.292  13.406   4.632
78366SOL    HW136995   2.365  13.463   4.609
78366SOL    HW236996   2.223  13.427   4.569
78367SOL     OW36997  12.758  11.232   2.104
78367SOL    HW136998  12.803  11.316   2.113
78367SOL    HW236999  12.762  11.193   2.191
78368SOL     OW37000   3.767   1.215   7.989
78368SOL    HW137001   3.690   1.159   7.973
78368SOL    HW237002   3.777   1.213   8.085
78369SOL     OW37003   9.943  10.678   1.943
78369SOL    HW137004   9.968  10.588   1.967
78369SOL    HW237005   9.924  10.721   2.026
78370SOL     OW37006   5.930   8.128  13.375
78370SOL    HW137007   5.900   8.103  13.288
78370SOL    HW237008   6.016   8.167  13.361
78371SOL     OW37009  12.572   2.692   5.943
78371SOL    HW137010  12.571   2.742   5.861
78371SOL    HW237011  12.502   2.731   5.995
78372SOL     OW37012   1.508   9.798  12.067
78372SOL    HW137013   1.460   9.869  12.109
78372SOL    HW237014   1.598   9.829  12.061
78373SOL     OW37015  14.080   7.171   1.140
78373SOL    HW137016  14.006   7.142   1.194
78373SOL    HW237017  14.155   7.167   1.198
78374SOL     OW37018   9.794   7.342  12.082
78374SOL    HW137019   9.819   7.427  12.046
78374SOL    HW237020   9.699   7.343  12.083
78375SOL     OW37021   3.663  10.281   7.565
78375SOL    HW137022   3.688  10.312   7.478
78375SOL    HW237023   3.592  10.339   7.593
78376SOL     OW37024   2.791  10.811  12.474
78376SOL    HW137025   2.722  10.745  12.475
78376SOL    HW237026   2.830  10.804  12.387
78377SOL     OW37027   7.516  10.834   6.375
78377SOL    HW137028   7.470  10.793   6.302
78377SOL    HW237029   7.459  10.822   6.451
78378SOL     OW37030   3.830  10.647   7.705
78378SOL    HW137031   3.925  10.639   7.709
78378SOL    HW237032   3.812  10.683   7.618
78379SOL     OW37033   6.928   8.351  11.980
78379SOL    HW137034   6.992   8.347  12.052
78379SOL    HW237035   6.955   8.281  11.921
78380SOL     OW37036   5.326   0.028   5.005
78380SOL    HW137037   5.376   0.103   5.037
78380SOL    HW237038   5.393  14.844   4.983
78381SOL     OW37039  12.602   9.768   9.303
78381SOL    HW137040  12.609   9.815   9.220
78381SOL    HW237041  12.621   9.677   9.281
78382SOL     OW37042  10.852  11.627  10.783
78382SOL    HW137043  10.874  11.652  10.872
78382SOL    HW237044  10.821  11.708  10.742
78383SOL     OW37045   6.120   5.484  13.154
78383SOL    HW137046   6.194   5.429  13.179
78383SOL    HW237047   6.144   5.572  13.185
78384SOL     OW37048   6.015  10.897  10.170
78384SOL    HW137049   5.935  10.905  10.117
78384SOL    HW237050   6.025  10.803  10.183
78385SOL     OW37051   4.314   5.736   3.268
78385SOL    HW137052   4.362   5.757   3.188
78385SOL    HW237053   4.315   5.817   3.318
78386SOL     OW37054   7.769  12.340  13.363
78386SOL    HW137055   7.678  12.312  13.377
78386SOL    HW237056   7.792  12.387  13.443
78387SOL     OW37057  13.667   3.967   0.509
78387SOL    HW137058  13.616   3.930   0.438
78387SOL    HW237059  13.616   4.042   0.540
78388SOL     OW37060  11.008   9.082   3.553
78388SOL    HW137061  11.078   9.128   3.507
78388SOL    HW237062  10.962   9.150   3.601
78389SOL     OW37063   1.251   7.823   5.220
78389SOL    HW137064   1.262   7.918   5.221
78389SOL    HW237065   1.181   7.808   5.156
78390SOL     OW37066  14.005  10.560   0.368
78390SOL    HW137067  14.089  10.537   0.408
78390SOL    HW237068  14.011  10.655   0.355
78391SOL     OW37069  13.689   7.647   7.382
78391SOL    HW137070  13.782   7.666   7.368
78391SOL    HW237071  13.683   7.552   7.370
78392SOL     OW37072   0.908   4.648   6.052
78392SOL    HW137073   0.918   4.738   6.084
78392SOL    HW237074   0.886   4.597   6.130
78393SOL     OW37075   9.330  10.009   9.373
78393SOL    HW137076   9.268   9.938   9.358
78393SOL    HW237077   9.335  10.018   9.468
78394SOL     OW37078   8.576   1.674   2.684
78394SOL    HW137079   8.481   1.684   2.674
78394SOL    HW237080   8.611   1.683   2.595
78395SOL     OW37081   3.494   4.937   3.967
78395SOL    HW137082   3.419   4.995   3.957
78395SOL    HW237083   3.493   4.913   4.060
78396SOL     OW37084  10.507  12.359   3.031
78396SOL    HW137085  10.527  12.265   3.032
78396SOL    HW237086  10.413  12.363   3.011
78397SOL     OW37087  13.483  12.128   1.949
78397SOL    HW137088  13.439  12.085   2.023
78397SOL    HW237089  13.442  12.089   1.871
78398SOL     OW37090   4.871   8.436   9.507
78398SOL    HW137091   4.847   8.468   9.420
78398SOL    HW237092   4.962   8.463   9.519
78399SOL     OW37093   4.102  14.377   8.929
78399SOL    HW137094   4.078  14.294   8.888
78399SOL    HW237095   4.170  14.412   8.872
78400SOL     OW37096   4.721   5.759   3.042
78400SOL    HW137097   4.791   5.738   3.105
78400SOL    HW237098   4.754   5.834   2.993
78401SOL     OW37099  12.939   4.165   2.329
78401SOL    HW137100  12.966   4.087   2.281
78401SOL    HW237101  12.853   4.143   2.365
78402SOL     OW37102   0.333  13.385   2.125
78402SOL    HW137103   0.399  13.348   2.183
78402SOL    HW237104   0.358  13.477   2.116
78403SOL     OW37105   7.683  13.809   1.290
78403SOL    HW137106   7.758  13.823   1.348
78403SOL    HW237107   7.636  13.893   1.291
78404SOL     OW37108  11.587   9.837  12.669
78404SOL    HW137109  11.643   9.915  12.678
78404SOL    HW237110  11.585   9.799  12.757
78405SOL     OW37111   5.015   7.338  12.857
78405SOL    HW137112   5.040   7.365  12.945
78405SOL    HW237113   5.092   7.292  12.824
78406SOL     OW37114  10.259   3.846  11.986
78406SOL    HW137115  10.239   3.900  12.063
78406SOL    HW237116  10.175   3.833  11.944
78407SOL     OW37117   4.728   9.817   7.442
78407SOL    HW137118   4.762   9.742   7.393
78407SOL    HW237119   4.672   9.778   7.509
78408SOL     OW37120  14.002   5.332   0.138
78408SOL    HW137121  13.980   5.238   0.138
78408SOL    HW237122  13.928   5.374   0.182
78409SOL     OW37123  10.541  12.128  14.112
78409SOL    HW137124  10.582  12.210  14.140
78409SOL    HW237125  10.464  12.120  14.168
78410SOL     OW37126   8.396   7.147   2.062
78410SOL    HW137127   8.353   7.219   2.109
78410SOL    HW237128   8.334   7.075   2.069
78411SOL     OW37129  12.537   4.565   3.294
78411SOL    HW137130  12.482   4.565   3.372
78411SOL    HW237131  12.481   4.530   3.225
78412SOL     OW37132   9.631   8.957   1.775
78412SOL    HW137133   9.569   8.901   1.729
78412SOL    HW237134   9.674   9.008   1.706
78413SOL     OW37135   2.998   1.888   3.190
78413SOL    HW137136   2.967   1.978   3.176
78413SOL    HW237137   2.922   1.833   3.176
78414SOL     OW37138  11.458  11.417   3.798
78414SOL    HW137139  11.383  11.391   3.852
78414SOL    HW237140  11.483  11.337   3.752
78415SOL     OW37141   7.859   8.680   2.661
78415SOL    HW137142   7.830   8.719   2.579
78415SOL    HW237143   7.790   8.618   2.685
78416SOL     OW37144   0.609   6.668  11.642
78416SOL    HW137145   0.629   6.624  11.560
78416SOL    HW237146   0.551   6.740  11.617
78417SOL     OW37147   6.883   2.186  12.280
78417SOL    HW137148   6.821   2.213  12.347
78417SOL    HW237149   6.962   2.237  12.298
78418SOL     OW37150   2.076  10.679   1.530
78418SOL    HW137151   2.168  10.653   1.539
78418SOL    HW237152   2.039  10.616   1.468
78419SOL     OW37153  10.136   6.032   8.697
78419SOL    HW137154  10.058   5.979   8.683
78419SOL    HW237155  10.120   6.112   8.648
78420SOL     OW37156   0.619   3.269   2.671
78420SOL    HW137157   0.596   3.353   2.712
78420SOL    HW237158   0.535   3.231   2.645
78421SOL     OW37159   5.211  12.845  12.097
78421SOL    HW137160   5.209  12.787  12.020
78421SOL    HW237161   5.279  12.807  12.153
78422SOL     OW37162  12.978   0.742   1.431
78422SOL    HW137163  13.041   0.676   1.459
78422SOL    HW237164  12.958   0.792   1.510
78423SOL     OW37165   4.804   4.983   9.789
78423SOL    HW137166   4.718   4.970   9.829
78423SOL    HW237167   4.790   4.966   9.696
78424SOL     OW37168   2.567   4.465   8.478
78424SOL    HW137169   2.630   4.410   8.524
78424SOL    HW237170   2.614   4.546   8.460
78425SOL     OW37171   0.336   7.579   1.428
78425SOL    HW137172   0.252   7.572   1.384
78425SOL    HW237173   0.335   7.508   1.492
78426SOL     OW37174  14.075  11.008   3.306
78426SOL    HW137175  14.116  11.006   3.392
78426SOL    HW237176  13.982  10.994   3.323
78427SOL     OW37177   2.874   9.161   9.020
78427SOL    HW137178   2.946   9.223   9.008
78427SOL    HW237179   2.803   9.199   8.968
78428SOL     OW37180  10.381   2.529  13.794
78428SOL    HW137181  10.338   2.598  13.845
78428SOL    HW237182  10.321   2.512  13.722
78429SOL     OW37183   4.937   0.555   8.224
78429SOL    HW137184   4.926   0.508   8.142
78429SOL    HW237185   5.003   0.505   8.272
78430SOL     OW37186   9.837   9.336  12.447
78430SOL    HW137187   9.911   9.354  12.389
78430SOL    HW237188   9.873   9.341  12.535
78431SOL     OW37189  12.628   9.963   4.741
78431SOL    HW137190  12.645   9.933   4.651
78431SOL    HW237191  12.613  10.057   4.732
78432SOL     OW37192   5.456   9.632  11.305
78432SOL    HW137193   5.478   9.671  11.390
78432SOL    HW237194   5.398   9.559  11.327
78433SOL     OW37195  13.642   2.800   1.967
78433SOL    HW137196  13.562   2.824   2.013
78433SOL    HW237197  13.693   2.881   1.965
78434SOL     OW37198   2.896   3.593  13.938
78434SOL    HW137199   2.876   3.678  13.976
78434SOL    HW237200   2.892   3.607  13.843
78435SOL     OW37201   2.911  10.387  13.978
78435SOL    HW137202   2.927  10.470  14.022
78435SOL    HW237203   2.818  10.387  13.959
78436SOL     OW37204  10.095   3.291   2.585
78436SOL    HW137205  10.123   3.315   2.497
78436SOL    HW237206  10.166   3.320   2.642
78437SOL     OW37207   8.429  12.172   1.882
78437SOL    HW137208   8.456  12.156   1.973
78437SOL    HW237209   8.333  12.175   1.886
78438SOL     OW37210   2.006  12.441  11.167
78438SOL    HW137211   2.075  12.390  11.209
78438SOL    HW237212   1.924  12.400  11.196
78439SOL     OW37213   6.923  11.313  10.205
78439SOL    HW137214   6.968  11.348  10.128
78439SOL    HW237215   6.832  11.343  10.195
78440SOL     OW37216   6.312   8.265   7.527
78440SOL    HW137217   6.328   8.324   7.453
78440SOL    HW237218   6.223   8.233   7.514
78441SOL     OW37219  11.472   0.342  13.284
78441SOL    HW137220  11.423   0.262  13.266
78441SOL    HW237221  11.558   0.311  13.312
78442SOL     OW37222   0.448   6.433   3.735
78442SOL    HW137223   0.412   6.346   3.716
78442SOL    HW237224   0.393   6.467   3.805
78443SOL     OW37225   5.780   7.101   6.596
78443SOL    HW137226   5.786   7.081   6.689
78443SOL    HW237227   5.857   7.156   6.578
78444SOL     OW37228   3.207   0.389   7.367
78444SOL    HW137229   3.269   0.439   7.421
78444SOL    HW237230   3.185   0.448   7.295
78445SOL     OW37231   3.839   4.192  14.240
78445SOL    HW137232   3.748   4.216  14.226
78445SOL    HW237233   3.874   4.175  14.153
78446SOL     OW37234   5.923  14.466  13.327
78446SOL    HW137235   5.927  14.375  13.299
78446SOL    HW237236   5.989  14.473  13.396
78447SOL     OW37237   6.196   5.738  13.519
78447SOL    HW137238   6.259   5.781  13.577
78447SOL    HW237239   6.123   5.799  13.514
78448SOL     OW37240   7.836   2.978   4.678
78448SOL    HW137241   7.791   3.052   4.718
78448SOL    HW237242   7.798   2.970   4.591
78449SOL     OW37243   0.187   0.736   3.305
78449SOL    HW137244   0.257   0.794   3.275
78449SOL    HW237245   0.192   0.660   3.247
78450SOL     OW37246   4.346   7.723  10.417
78450SOL    HW137247   4.263   7.705  10.372
78450SOL    HW237248   4.412   7.682  10.362
78451SOL     OW37249   2.049   9.788   8.512
78451SOL    HW137250   1.977   9.850   8.501
78451SOL    HW237251   2.010   9.713   8.557
78452SOL     OW37252  10.698  14.500   6.691
78452SOL    HW137253  10.772  14.455   6.652
78452SOL    HW237254  10.737  14.576   6.736
78453SOL     OW37255   7.651  13.861   9.468
78453SOL    HW137256   7.614  13.922   9.532
78453SOL    HW237257   7.578  13.841   9.410
78454SOL     OW37258  12.828   5.582   5.248
78454SOL    HW137259  12.797   5.584   5.338
78454SOL    HW237260  12.761   5.534   5.200
78455SOL     OW37261   1.441   7.550   3.041
78455SOL    HW137262   1.532   7.520   3.038
78455SOL    HW237263   1.446   7.633   3.089
78456SOL     OW37264   3.801  11.470   5.625
78456SOL    HW137265   3.835  11.414   5.695
78456SOL    HW237266   3.707  11.475   5.641
78457SOL     OW37267  12.159  12.125  14.444
78457SOL    HW137268  12.236  12.170  14.479
78457SOL    HW237269  12.087  12.156  14.498
78458SOL     OW37270  14.759   7.311   5.473
78458SOL    HW137271  14.807   7.228   5.477
78458SOL    HW237272  14.827   7.377   5.459
78459SOL     OW37273   6.964   1.758   9.252
78459SOL    HW137274   7.048   1.804   9.253
78459SOL    HW237275   6.915   1.796   9.325
78460SOL     OW37276   1.515   7.543   7.738
78460SOL    HW137277   1.496   7.577   7.825
78460SOL    HW237278   1.536   7.621   7.686
78461SOL     OW37279   3.166   8.848   9.049
78461SOL    HW137280   3.097   8.892   9.099
78461SOL    HW237281   3.196   8.915   8.987
78462SOL     OW37282   2.012  13.527   9.670
78462SOL    HW137283   2.039  13.610   9.709
78462SOL    HW237284   1.925  13.510   9.707
78463SOL     OW37285   9.211  10.968  11.642
78463SOL    HW137286   9.125  10.925  11.643
78463SOL    HW237287   9.197  11.049  11.594
78464SOL     OW37288   8.048  12.110   3.849
78464SOL    HW137289   8.045  12.021   3.813
78464SOL    HW237290   8.066  12.098   3.942
78465SOL     OW37291   9.598  12.135   7.637
78465SOL    HW137292   9.641  12.056   7.670
78465SOL    HW237293   9.670  12.197   7.624
78466SOL     OW37294  12.745   9.747  11.430
78466SOL    HW137295  12.779   9.781  11.513
78466SOL    HW237296  12.686   9.815  11.399
78467SOL     OW37297   6.896  13.589   4.816
78467SOL    HW137298   6.980  13.586   4.770
78467SOL    HW237299   6.843  13.522   4.772
78468SOL     OW37300  11.258  10.041   8.782
78468SOL    HW137301  11.233  10.033   8.874
78468SOL    HW237302  11.227   9.960   8.742
78469SOL     OW37303   5.983   3.947   1.974
78469SOL    HW137304   5.958   3.856   1.990
78469SOL    HW237305   6.038   3.944   1.896
78470SOL     OW37306   1.154   6.753   2.709
78470SOL    HW137307   1.193   6.780   2.793
78470SOL    HW237308   1.090   6.821   2.690
78471SOL     OW37309  12.541   9.294  13.979
78471SOL    HW137310  12.590   9.219  14.013
78471SOL    HW237311  12.453   9.259  13.963
78472SOL     OW37312   2.393  13.960   4.456
78472SOL    HW137313   2.476  14.007   4.462
78472SOL    HW237314   2.332  14.024   4.419
78473SOL     OW37315   6.190   8.870   4.453
78473SOL    HW137316   6.108   8.878   4.404
78473SOL    HW237317   6.251   8.928   4.406
78474SOL     OW37318   7.605   4.770   3.144
78474SOL    HW137319   7.534   4.806   3.091
78474SOL    HW237320   7.654   4.847   3.174
78475SOL     OW37321   2.474   8.165   3.076
78475SOL    HW137322   2.462   8.251   3.118
78475SOL    HW237323   2.563   8.140   3.098
78476SOL     OW37324   2.951   2.220   0.329
78476SOL    HW137325   2.864   2.253   0.306
78476SOL    HW237326   2.955   2.134   0.287
78477SOL     OW37327  13.948   8.721   2.241
78477SOL    HW137328  13.868   8.702   2.289
78477SOL    HW237329  13.956   8.649   2.178
78478SOL     OW37330   1.376   0.033   3.836
78478SOL    HW137331   1.329  14.835   3.862
78478SOL    HW237332   1.425   0.058   3.914
78479SOL     OW37333   2.146   9.714   4.358
78479SOL    HW137334   2.144   9.626   4.396
78479SOL    HW237335   2.232   9.748   4.382
78480SOL     OW37336   1.260   1.881   5.047
78480SOL    HW137337   1.171   1.903   5.021
78480SOL    HW237338   1.288   1.956   5.100
78481SOL     OW37339   9.911  12.688   9.580
78481SOL    HW137340   9.916  12.758   9.515
78481SOL    HW237341   9.999  12.684   9.617
78482SOL     OW37342  10.294  10.401  12.191
78482SOL    HW137343  10.287  10.497  12.191
78482SOL    HW237344  10.360  10.382  12.124
78483SOL     OW37345   4.564  12.084   7.513
78483SOL    HW137346   4.644  12.098   7.464
78483SOL    HW237347   4.587  12.105   7.604
78484SOL     OW37348   3.310   3.222   6.834
78484SOL    HW137349   3.352   3.193   6.753
78484SOL    HW237350   3.342   3.160   6.901
78485SOL     OW37351   2.757   4.045  14.179
78485SOL    HW137352   2.804   4.129  14.185
78485SOL    HW237353   2.707   4.041  14.261
78486SOL     OW37354  14.397   2.491  11.982
78486SOL    HW137355  14.462   2.452  12.041
78486SOL    HW237356  14.340   2.418  11.957
78487SOL     OW37357  13.807  10.145   0.794
78487SOL    HW137358  13.791  10.240   0.790
78487SOL    HW237359  13.768  10.110   0.714
78488SOL     OW37360  14.517  12.911  11.134
78488SOL    HW137361  14.551  12.971  11.068
78488SOL    HW237362  14.487  12.968  11.205
78489SOL     OW37363  13.390   5.506   5.724
78489SOL    HW137364  13.389   5.466   5.637
78489SOL    HW237365  13.428   5.438   5.780
78490SOL     OW37366  10.725  13.936  12.218
78490SOL    HW137367  10.635  13.966  12.226
78490SOL    HW237368  10.747  13.947  12.126
78491SOL     OW37369   0.583   2.334  14.133
78491SOL    HW137370   0.489   2.332  14.117
78491SOL    HW237371   0.622   2.343  14.046
78492SOL     OW37372  13.825   1.358   7.697
78492SOL    HW137373  13.881   1.418   7.647
78492SOL    HW237374  13.748   1.411   7.719
78493SOL     OW37375  10.042   6.997   6.663
78493SOL    HW137376  10.115   6.944   6.694
78493SOL    HW237377  10.009   7.041   6.742
78494SOL     OW37378  13.523   0.284   5.606
78494SOL    HW137379  13.468   0.234   5.666
78494SOL    HW237380  13.470   0.291   5.526
78495SOL     OW37381  13.931   5.095   5.320
78495SOL    HW137382  13.967   5.057   5.400
78495SOL    HW237383  14.006   5.102   5.261
78496SOL     OW37384   4.218   7.807  13.602
78496SOL    HW137385   4.296   7.817  13.657
78496SOL    HW237386   4.205   7.893  13.562
78497SOL     OW37387   1.644  14.043  13.289
78497SOL    HW137388   1.624  14.133  13.317
78497SOL    HW237389   1.572  14.020  13.230
78498SOL     OW37390   5.577   0.011   7.709
78498SOL    HW137391   5.629   0.078   7.752
78498SOL    HW237392   5.635  14.857   7.642
78499SOL     OW37393  13.793   9.970   8.739
78499SOL    HW137394  13.707   9.951   8.776
78499SOL    HW237395  13.783   9.952   8.645
78500SOL     OW37396   3.984   6.176   2.536
78500SOL    HW137397   4.022   6.089   2.525
78500SOL    HW237398   3.977   6.187   2.631
78501SOL     OW37399  11.228   5.649   0.442
78501SOL    HW137400  11.259   5.563   0.412
78501SOL    HW237401  11.143   5.631   0.482
78502SOL     OW37402  10.570  13.913   4.259
78502SOL    HW137403  10.623  13.989   4.283
78502SOL    HW237404  10.559  13.864   4.340
78503SOL     OW37405  12.960   0.166  14.507
78503SOL    HW137406  12.957   0.190  14.600
78503SOL    HW237407  12.879   0.201  14.471
78504SOL     OW37408  12.838   3.316  14.550
78504SOL    HW137409  12.867   3.349  14.636
78504SOL    HW237410  12.919   3.302  14.501
78505SOL     OW37411   2.407   6.749  14.791
78505SOL    HW137412   2.425   6.664  14.751
78505SOL    HW237413   2.440   6.813  14.729
78506SOL     OW37414  12.802   3.334   7.360
78506SOL    HW137415  12.783   3.271   7.429
78506SOL    HW237416  12.825   3.280   7.284
78507SOL     OW37417   0.487  12.799   4.539
78507SOL    HW137418   0.421  12.868   4.534
78507SOL    HW237419   0.567  12.843   4.567
78508SOL     OW37420   7.002   5.687   3.639
78508SOL    HW137421   6.963   5.690   3.552
78508SOL    HW237422   7.091   5.654   3.624
78509SOL     OW37423   1.347   2.321  13.590
78509SOL    HW137424   1.365   2.251  13.653
78509SOL    HW237425   1.252   2.328  13.589
78510SOL     OW37426   3.647   5.797   0.836
78510SOL    HW137427   3.701   5.858   0.886
78510SOL    HW237428   3.559   5.834   0.840
78511SOL     OW37429  12.186   2.144  11.593
78511SOL    HW137430  12.159   2.063  11.635
78511SOL    HW237431  12.104   2.190  11.576
78512SOL     OW37432  13.364  11.157   6.663
78512SOL    HW137433  13.334  11.222   6.599
78512SOL    HW237434  13.295  11.091   6.666
78513SOL     OW37435   0.108   1.532   8.505
78513SOL    HW137436   0.117   1.584   8.425
78513SOL    HW237437   0.112   1.596   8.576
78514SOL     OW37438   7.187   9.524  11.579
78514SOL    HW137439   7.234   9.605  11.597
78514SOL    HW237440   7.249   9.455  11.603
78515SOL     OW37441  10.491   3.700   4.452
78515SOL    HW137442  10.499   3.743   4.367
78515SOL    HW237443  10.396   3.686   4.463
78516SOL     OW37444   1.879   4.783   9.722
78516SOL    HW137445   1.796   4.736   9.733
78516SOL    HW237446   1.858   4.854   9.662
78517SOL     OW37447  13.861   4.321   9.642
78517SOL    HW137448  13.795   4.362   9.585
78517SOL    HW237449  13.922   4.391   9.664
78518SOL     OW37450   1.987   2.011   8.795
78518SOL    HW137451   1.916   2.064   8.758
78518SOL    HW237452   1.947   1.963   8.867
78519SOL     OW37453  12.009  13.407   6.975
78519SOL    HW137454  12.102  13.418   6.956
78519SOL    HW237455  11.964  13.454   6.904
78520SOL     OW37456   7.121   5.517  12.333
78520SOL    HW137457   7.140   5.596  12.282
78520SOL    HW237458   7.026   5.513  12.336
78521SOL     OW37459   4.963   5.662   2.297
78521SOL    HW137460   4.980   5.726   2.366
78521SOL    HW237461   5.028   5.682   2.229
78522SOL     OW37462  10.209  11.386  14.322
78522SOL    HW137463  10.275  11.366  14.256
78522SOL    HW237464  10.161  11.303  14.334
78523SOL     OW37465   0.548   9.335   1.448
78523SOL    HW137466   0.505   9.325   1.533
78523SOL    HW237467   0.507   9.412   1.410
78524SOL     OW37468  12.937   6.663   3.724
78524SOL    HW137469  13.025   6.628   3.729
78524SOL    HW237470  12.949   6.757   3.712
78525SOL     OW37471   7.302   8.489   5.540
78525SOL    HW137472   7.272   8.546   5.611
78525SOL    HW237473   7.389   8.460   5.567
78526SOL     OW37474  12.341  13.153  14.184
78526SOL    HW137475  12.314  13.061  14.176
78526SOL    HW237476  12.382  13.173  14.100
78527SOL     OW37477   5.277   3.539   0.887
78527SOL    HW137478   5.293   3.571   0.976
78527SOL    HW237479   5.189   3.569   0.867
78528SOL     OW37480   2.858   1.697   5.663
78528SOL    HW137481   2.925   1.764   5.676
78528SOL    HW237482   2.883   1.655   5.580
78529SOL     OW37483   5.767   0.245  12.296
78529SOL    HW137484   5.855   0.217  12.273
78529SOL    HW237485   5.711   0.171  12.273
78530SOL     OW37486   7.658   0.731   1.882
78530SOL    HW137487   7.744   0.762   1.908
78530SOL    HW237488   7.615   0.809   1.845
78531SOL     OW37489  11.750   0.893   6.692
78531SOL    HW137490  11.664   0.931   6.712
78531SOL    HW237491  11.739   0.799   6.706
78532SOL     OW37492   3.327   9.947   7.463
78532SOL    HW137493   3.380   9.994   7.527
78532SOL    HW237494   3.364   9.971   7.378
78533SOL     OW37495   8.505   5.108   9.423
78533SOL    HW137496   8.464   5.050   9.358
78533SOL    HW237497   8.531   5.049   9.494
78534SOL     OW37498   7.279  13.309   9.241
78534SOL    HW137499   7.195  13.348   9.217
78534SOL    HW237500   7.343  13.376   9.219
78535SOL     OW37501   1.984   7.889  14.207
78535SOL    HW137502   1.919   7.872  14.275
78535SOL    HW237503   1.949   7.963  14.158
78536SOL     OW37504  13.127  14.011   4.125
78536SOL    HW137505  13.127  14.093   4.077
78536SOL    HW237506  13.195  14.021   4.192
78537SOL     OW37507   6.871   2.693   4.285
78537SOL    HW137508   6.932   2.709   4.213
78537SOL    HW237509   6.867   2.597   4.292
78538SOL     OW37510   0.004  10.387   1.151
78538SOL    HW137511   0.027  10.324   1.083
78538SOL    HW237512   0.022  10.341   1.233
78539SOL     OW37513  11.951  14.584   2.177
78539SOL    HW137514  12.024  14.629   2.220
78539SOL    HW237515  11.958  14.494   2.208
78540SOL     OW37516   2.478   7.118   9.028
78540SOL    HW137517   2.503   7.205   8.997
78540SOL    HW237518   2.526   7.106   9.110
78541SOL     OW37519   2.429   3.348  11.631
78541SOL    HW137520   2.386   3.313  11.709
78541SOL    HW237521   2.502   3.288  11.615
78542SOL     OW37522   5.999   9.238   4.679
78542SOL    HW137523   5.920   9.266   4.632
78542SOL    HW237524   6.014   9.148   4.650
78543SOL     OW37525  11.754   6.362  10.114
78543SOL    HW137526  11.713   6.440  10.076
78543SOL    HW237527  11.778   6.389  10.203
78544SOL     OW37528  11.500   2.087   2.472
78544SOL    HW137529  11.472   1.995   2.478
78544SOL    HW237530  11.585   2.083   2.428
78545SOL     OW37531   5.961   7.745   9.128
78545SOL    HW137532   6.031   7.681   9.110
78545SOL    HW237533   5.915   7.753   9.045
78546SOL     OW37534  13.014   1.717   7.561
78546SOL    HW137535  13.105   1.690   7.555
78546SOL    HW237536  12.990   1.742   7.471
78547SOL     OW37537   3.764   2.268  13.121
78547SOL    HW137538   3.741   2.214  13.045
78547SOL    HW237539   3.844   2.314  13.094
78548SOL     OW37540   5.288   5.144  11.222
78548SOL    HW137541   5.207   5.094  11.211
78548SOL    HW237542   5.287   5.171  11.314
78549SOL     OW37543   7.455  11.903  12.554
78549SOL    HW137544   7.430  11.975  12.496
78549SOL    HW237545   7.380  11.843  12.552
78550SOL     OW37546  14.418   3.804   7.029
78550SOL    HW137547  14.399   3.824   7.121
78550SOL    HW237548  14.465   3.881   6.997
78551SOL     OW37549   7.305   0.062   6.480
78551SOL    HW137550   7.256   0.116   6.419
78551SOL    HW237551   7.256   0.067   6.562
78552SOL     OW37552   0.691   5.245  11.635
78552SOL    HW137553   0.727   5.157  11.648
78552SOL    HW237554   0.727   5.296  11.708
78553SOL     OW37555  11.752  12.678   8.725
78553SOL    HW137556  11.838  12.647   8.698
78553SOL    HW237557  11.759  12.773   8.725
78554SOL     OW37558   4.207   4.011  13.876
78554SOL    HW137559   4.272   3.978  13.938
78554SOL    HW237560   4.185   4.098  13.908
78555SOL     OW37561   1.747  10.000   3.414
78555SOL    HW137562   1.795  10.016   3.333
78555SOL    HW237563   1.797  10.047   3.481
78556SOL     OW37564   8.126  12.434   8.448
78556SOL    HW137565   8.219  12.416   8.435
78556SOL    HW237566   8.083  12.395   8.372
78557SOL     OW37567  10.132   9.114   3.369
78557SOL    HW137568  10.129   9.208   3.389
78557SOL    HW237569  10.209   9.105   3.312
78558SOL     OW37570   3.682  11.855   4.176
78558SOL    HW137571   3.670  11.845   4.081
78558SOL    HW237572   3.623  11.791   4.215
78559SOL     OW37573  10.742   5.101   9.473
78559SOL    HW137574  10.679   5.149   9.420
78559SOL    HW237575  10.821   5.097   9.418
78560SOL     OW37576  11.165   5.966  13.393
78560SOL    HW137577  11.168   5.881  13.350
78560SOL    HW237578  11.150   6.029  13.323
78561SOL     OW37579   0.831   5.027   0.136
78561SOL    HW137580   0.889   5.071   0.197
78561SOL    HW237581   0.878   4.948   0.108
78562SOL     OW37582   3.831   7.759  10.533
78562SOL    HW137583   3.910   7.737  10.583
78562SOL    HW237584   3.857   7.753  10.442
78563SOL     OW37585   6.362   9.128   7.432
78563SOL    HW137586   6.445   9.083   7.417
78563SOL    HW237587   6.342   9.170   7.349
78564SOL     OW37588  10.217   5.820   4.595
78564SOL    HW137589  10.125   5.825   4.569
78564SOL    HW237590  10.223   5.875   4.673
78565SOL     OW37591  10.089  14.731   4.210
78565SOL    HW137592  10.068  14.750   4.302
78565SOL    HW237593  10.008  14.696   4.173
78566SOL     OW37594   6.879   7.678   1.004
78566SOL    HW137595   6.806   7.735   0.981
78566SOL    HW237596   6.873   7.606   0.941
78567SOL     OW37597   1.169  11.303  14.224
78567SOL    HW137598   1.246  11.359  14.237
78567SOL    HW237599   1.151  11.308  14.131
78568SOL     OW37600  10.183   4.608   1.800
78568SOL    HW137601  10.122   4.617   1.727
78568SOL    HW237602  10.266   4.639   1.766
78569SOL     OW37603  11.992   4.627   4.174
78569SOL    HW137604  11.967   4.654   4.086
78569SOL    HW237605  12.062   4.563   4.161
78570SOL     OW37606  12.712   5.542   7.879
78570SOL    HW137607  12.764   5.505   7.951
78570SOL    HW237608  12.660   5.468   7.847
78571SOL     OW37609   1.582  13.657   2.217
78571SOL    HW137610   1.631  13.689   2.142
78571SOL    HW237611   1.597  13.562   2.217
78572SOL     OW37612   9.308  14.672  11.035
78572SOL    HW137613   9.361  14.606  11.079
78572SOL    HW237614   9.223  14.631  11.023
78573SOL     OW37615   9.165  14.156   2.695
78573SOL    HW137616   9.116  14.158   2.777
78573SOL    HW237617   9.116  14.096   2.639
78574SOL     OW37618   2.186  11.468   1.011
78574SOL    HW137619   2.191  11.422   0.927
78574SOL    HW237620   2.112  11.528   1.002
78575SOL     OW37621   5.358   5.796  13.063
78575SOL    HW137622   5.335   5.829  12.976
78575SOL    HW237623   5.365   5.701  13.051
78576SOL     OW37624  13.163   5.629   7.027
78576SOL    HW137625  13.225   5.691   7.065
78576SOL    HW237626  13.196   5.543   7.052
78577SOL     OW37627   3.030  11.451   5.920
78577SOL    HW137628   3.071  11.537   5.925
78577SOL    HW237629   2.936  11.469   5.918
78578SOL     OW37630   4.225  12.262   5.880
78578SOL    HW137631   4.208  12.312   5.800
78578SOL    HW237632   4.320  12.250   5.881
78579SOL     OW37633   0.697   7.005  12.089
78579SOL    HW137634   0.639   7.077  12.114
78579SOL    HW237635   0.637   6.936  12.061
78580SOL     OW37636   0.244   8.578  10.853
78580SOL    HW137637   0.261   8.514  10.921
78580SOL    HW237638   0.289   8.657  10.882
78581SOL     OW37639   6.102  11.659   3.645
78581SOL    HW137640   6.097  11.579   3.696
78581SOL    HW237641   6.195  11.672   3.629
78582SOL     OW37642  10.976   0.063   6.955
78582SOL    HW137643  11.012  14.874   6.902
78582SOL    HW237644  10.932   0.120   6.892
78583SOL     OW37645   6.830  11.149   4.460
78583SOL    HW137646   6.905  11.145   4.400
78583SOL    HW237647   6.833  11.238   4.496
78584SOL     OW37648   9.387   4.124   0.662
78584SOL    HW137649   9.352   4.104   0.576
78584SOL    HW237650   9.479   4.097   0.657
78585SOL     OW37651   9.994   6.450   7.083
78585SOL    HW137652  10.043   6.367   7.089
78585SOL    HW237653   9.930   6.434   7.014
78586SOL     OW37654   8.948   8.870   2.234
78586SOL    HW137655   9.030   8.907   2.265
78586SOL    HW237656   8.889   8.945   2.224
78587SOL     OW37657  11.693   9.509   1.589
78587SOL    HW137658  11.750   9.445   1.631
78587SOL    HW237659  11.604   9.480   1.610
78588SOL     OW37660  10.348   8.406  11.699
78588SOL    HW137661  10.389   8.339  11.645
78588SOL    HW237662  10.360   8.375  11.789
78589SOL     OW37663  13.797   7.018  14.591
78589SOL    HW137664  13.883   7.053  14.568
78589SOL    HW237665  13.814   6.929  14.621
78590SOL     OW37666  13.179   0.824  11.363
78590SOL    HW137667  13.171   0.919  11.359
78590SOL    HW237668  13.273   0.809  11.373
78591SOL     OW37669   9.142  13.743  12.549
78591SOL    HW137670   9.126  13.750  12.455
78591SOL    HW237671   9.196  13.665  12.559
78592SOL     OW37672   2.594   3.555  11.203
78592SOL    HW137673   2.659   3.497  11.242
78592SOL    HW237674   2.638   3.639  11.195
78593SOL     OW37675   8.947  14.823   5.412
78593SOL    HW137676   8.946   0.009   5.479
78593SOL    HW237677   8.914  14.867   5.333
78594SOL     OW37678   5.178  10.472   8.162
78594SOL    HW137679   5.153  10.518   8.082
78594SOL    HW237680   5.215  10.540   8.218
78595SOL     OW37681  10.725  10.778  10.820
78595SOL    HW137682  10.796  10.838  10.842
78595SOL    HW237683  10.741  10.701  10.875
78596SOL     OW37684  10.907   7.165   5.500
78596SOL    HW137685  10.900   7.070   5.498
78596SOL    HW237686  10.949   7.185   5.583
78597SOL     OW37687   0.936   7.780   5.587
78597SOL    HW137688   0.968   7.838   5.518
78597SOL    HW237689   0.885   7.713   5.540
78598SOL     OW37690   2.860   1.378   7.949
78598SOL    HW137691   2.854   1.382   8.044
78598SOL    HW237692   2.922   1.448   7.926
78599SOL     OW37693  11.879  13.015  12.534
78599SOL    HW137694  11.965  13.029  12.494
78599SOL    HW237695  11.880  12.923  12.561
78600SOL     OW37696  13.490   0.116  14.585
78600SOL    HW137697  13.480   0.052  14.515
78600SOL    HW237698  13.438   0.192  14.556
78601SOL     OW37699   6.126   6.647  10.655
78601SOL    HW137700   6.168   6.658  10.740
78601SOL    HW237701   6.035   6.628  10.675
78602SOL     OW37702   6.813   0.220   0.266
78602SOL    HW137703   6.830   0.216   0.172
78602SOL    HW237704   6.718   0.210   0.274
78603SOL     OW37705   2.925  10.621   8.051
78603SOL    HW137706   2.995  10.556   8.063
78603SOL    HW237707   2.944  10.689   8.116
78604SOL     OW37708  12.240   6.945   2.874
78604SOL    HW137709  12.261   7.038   2.871
78604SOL    HW237710  12.324   6.901   2.861
78605SOL     OW37711   4.967  11.805   8.893
78605SOL    HW137712   4.920  11.872   8.844
78605SOL    HW237713   4.987  11.846   8.977
78606SOL     OW37714   9.650   3.818   2.918
78606SOL    HW137715   9.571   3.869   2.938
78606SOL    HW237716   9.722   3.880   2.931
78607SOL     OW37717  12.904   9.012   5.855
78607SOL    HW137718  12.936   8.958   5.927
78607SOL    HW237719  12.811   9.023   5.873
78608SOL     OW37720   9.595   9.418  14.235
78608SOL    HW137721   9.587   9.332  14.194
78608SOL    HW237722   9.525   9.470  14.195
78609SOL     OW37723  11.416   2.162  12.398
78609SOL    HW137724  11.455   2.199  12.477
78609SOL    HW237725  11.489   2.121  12.352
78610SOL     OW37726   1.363   4.276   6.499
78610SOL    HW137727   1.343   4.188   6.531
78610SOL    HW237728   1.394   4.262   6.410
78611SOL     OW37729   8.606   8.310   2.992
78611SOL    HW137730   8.675   8.356   2.943
78611SOL    HW237731   8.531   8.369   2.990
78612SOL     OW37732   2.783   2.299   9.734
78612SOL    HW137733   2.774   2.284   9.828
78612SOL    HW237734   2.767   2.393   9.723
78613SOL     OW37735   0.726   3.851  11.591
78613SOL    HW137736   0.711   3.903  11.670
78613SOL    HW237737   0.639   3.834  11.556
78614SOL     OW37738   1.808   1.632  10.632
78614SOL    HW137739   1.836   1.621  10.542
78614SOL    HW237740   1.728   1.579  10.639
78615SOL     OW37741   2.786   9.072   1.768
78615SOL    HW137742   2.758   9.057   1.677
78615SOL    HW237743   2.843   8.998   1.788
78616SOL     OW37744  11.762   4.345  10.127
78616SOL    HW137745  11.852   4.377  10.121
78616SOL    HW237746  11.752   4.286  10.052
78617SOL     OW37747   7.032   0.538   1.538
78617SOL    HW137748   7.057   0.490   1.458
78617SOL    HW237749   7.012   0.469   1.601
78618SOL     OW37750   2.108   6.944   9.646
78618SOL    HW137751   2.039   6.966   9.709
78618SOL    HW237752   2.094   7.004   9.573
78619SOL     OW37753   0.864   5.117  13.833
78619SOL    HW137754   0.781   5.144  13.872
78619SOL    HW237755   0.840   5.051  13.768
78620SOL     OW37756   9.093   5.648   3.007
78620SOL    HW137757   9.045   5.678   2.930
78620SOL    HW237758   9.081   5.718   3.072
78621SOL     OW37759   5.305  13.132  10.959
78621SOL    HW137760   5.309  13.079  11.038
78621SOL    HW237761   5.274  13.217  10.988
78622SOL     OW37762   0.597  12.202   9.847
78622SOL    HW137763   0.618  12.160   9.930
78622SOL    HW237764   0.592  12.295   9.868
78623SOL     OW37765   8.412   9.309  12.262
78623SOL    HW137766   8.363   9.314  12.343
78623SOL    HW237767   8.447   9.220  12.260
78624SOL     OW37768   7.210   3.936   8.752
78624SOL    HW137769   7.226   4.030   8.747
78624SOL    HW237770   7.125   3.928   8.796
78625SOL     OW37771   3.893   9.374   7.608
78625SOL    HW137772   3.886   9.416   7.694
78625SOL    HW237773   3.871   9.442   7.545
78626SOL     OW37774  13.882   7.952   8.860
78626SOL    HW137775  13.845   7.867   8.883
78626SOL    HW237776  13.831   7.980   8.783
78627SOL     OW37777   4.814   2.075  14.330
78627SOL    HW137778   4.814   2.000  14.272
78627SOL    HW237779   4.840   2.149  14.275
78628SOL     OW37780   5.386   8.546  13.815
78628SOL    HW137781   5.405   8.579  13.727
78628SOL    HW237782   5.411   8.617  13.873
78629SOL     OW37783   2.711   3.828  12.798
78629SOL    HW137784   2.760   3.854  12.877
78629SOL    HW237785   2.665   3.749  12.824
78630SOL     OW37786   5.462   6.160   2.127
78630SOL    HW137787   5.557   6.167   2.115
78630SOL    HW237788   5.432   6.250   2.139
78631SOL     OW37789   4.095   5.291   2.718
78631SOL    HW137790   4.115   5.292   2.811
78631SOL    HW237791   4.027   5.357   2.708
78632SOL     OW37792   5.334  14.643   3.256
78632SOL    HW137793   5.239  14.646   3.269
78632SOL    HW237794   5.370  14.687   3.333
78633SOL     OW37795  12.666   0.207   9.793
78633SOL    HW137796  12.625   0.244   9.715
78633SOL    HW237797  12.747   0.256   9.804
78634SOL     OW37798   1.896  11.477   3.182
78634SOL    HW137799   1.886  11.509   3.092
78634SOL    HW237800   1.807  11.451   3.207
78635SOL     OW37801  12.970   6.052   1.285
78635SOL    HW137802  13.027   6.066   1.360
78635SOL    HW237803  13.002   6.113   1.218
78636SOL     OW37804   3.779   5.981   9.383
78636SOL    HW137805   3.854   5.957   9.330
78636SOL    HW237806   3.704   5.974   9.324
78637SOL     OW37807  11.577   5.378   3.977
78637SOL    HW137808  11.574   5.464   3.937
78637SOL    HW237809  11.593   5.395   4.070
78638SOL     OW37810   2.756  12.393  14.559
78638SOL    HW137811   2.844  12.362  14.541
78638SOL    HW237812   2.699  12.319  14.536
78639SOL     OW37813  13.220   0.649   0.405
78639SOL    HW137814  13.246   0.565   0.444
78639SOL    HW237815  13.129   0.638   0.380
78640SOL     OW37816   8.816   0.329  11.691
78640SOL    HW137817   8.888   0.391  11.705
78640SOL    HW237818   8.740   0.384  11.675
78641SOL     OW37819   6.868   2.609   2.629
78641SOL    HW137820   6.922   2.679   2.666
78641SOL    HW237821   6.866   2.541   2.697
78642SOL     OW37822  11.643  12.717  12.117
78642SOL    HW137823  11.550  12.725  12.141
78642SOL    HW237824  11.684  12.681  12.195
78643SOL     OW37825   3.602  13.539   8.857
78643SOL    HW137826   3.562  13.461   8.819
78643SOL    HW237827   3.550  13.558   8.935
78644SOL     OW37828  12.608   6.662   5.088
78644SOL    HW137829  12.561   6.636   5.167
78644SOL    HW237830  12.693   6.694   5.120
78645SOL     OW37831   0.772   7.294   4.518
78645SOL    HW137832   0.783   7.341   4.601
78645SOL    HW237833   0.846   7.233   4.515
78646SOL     OW37834  11.734   7.600   4.999
78646SOL    HW137835  11.726   7.514   4.958
78646SOL    HW237836  11.643   7.628   5.013
78647SOL     OW37837   5.321   4.415   4.718
78647SOL    HW137838   5.407   4.450   4.741
78647SOL    HW237839   5.261   4.459   4.777
78648SOL     OW37840  14.595   9.151  11.696
78648SOL    HW137841  14.534   9.095  11.647
78648SOL    HW237842  14.654   9.089  11.740
78649SOL     OW37843   7.604   5.789   7.407
78649SOL    HW137844   7.650   5.850   7.349
78649SOL    HW237845   7.599   5.835   7.491
78650SOL     OW37846   3.115  11.457  12.142
78650SOL    HW137847   3.104  11.362  12.139
78650SOL    HW237848   3.139  11.475  12.233
78651SOL     OW37849  12.617  14.502   5.699
78651SOL    HW137850  12.652  14.573   5.645
78651SOL    HW237851  12.684  14.434   5.696
78652SOL     OW37852   0.255   0.218   5.626
78652SOL    HW137853   0.280   0.126   5.627
78652SOL    HW237854   0.234   0.235   5.534
78653SOL     OW37855   6.433   0.759  13.773
78653SOL    HW137856   6.395   0.844  13.796
78653SOL    HW237857   6.524   0.765  13.802
78654SOL     OW37858   6.416   1.614   1.937
78654SOL    HW137859   6.471   1.672   1.884
78654SOL    HW237860   6.478   1.549   1.972
78655SOL     OW37861  13.408   6.279   3.062
78655SOL    HW137862  13.473   6.334   3.105
78655SOL    HW237863  13.414   6.195   3.107
78656SOL     OW37864  13.718   4.784  13.310
78656SOL    HW137865  13.625   4.791  13.332
78656SOL    HW237866  13.719   4.748  13.221
78657SOL     OW37867  14.292   5.323   0.496
78657SOL    HW137868  14.256   5.317   0.408
78657SOL    HW237869  14.322   5.235   0.516
78658SOL     OW37870   7.748   7.636   5.489
78658SOL    HW137871   7.690   7.710   5.508
78658SOL    HW237872   7.827   7.677   5.454
78659SOL     OW37873  12.840  13.838   2.147
78659SOL    HW137874  12.869  13.925   2.173
78659SOL    HW237875  12.917  13.782   2.157
78660SOL     OW37876  12.638  13.606   2.956
78660SOL    HW137877  12.546  13.608   2.931
78660SOL    HW237878  12.685  13.636   2.878
78661SOL     OW37879  14.539  12.079   6.359
78661SOL    HW137880  14.484  12.066   6.437
78661SOL    HW237881  14.555  12.173   6.356
78662SOL     OW37882  14.407   2.908   8.108
78662SOL    HW137883  14.433   2.979   8.049
78662SOL    HW237884  14.311   2.912   8.110
78663SOL     OW37885  10.556  14.298   0.563
78663SOL    HW137886  10.609  14.245   0.622
78663SOL    HW237887  10.580  14.268   0.475
78664SOL     OW37888   8.628   9.115   9.371
78664SOL    HW137889   8.688   9.051   9.334
78664SOL    HW237890   8.547   9.067   9.387
78665SOL     OW37891  14.631  10.818   9.461
78665SOL    HW137892  14.541  10.846   9.448
78665SOL    HW237893  14.647  10.831   9.555
78666SOL     OW37894   8.189   4.316   5.470
78666SOL    HW137895   8.172   4.231   5.429
78666SOL    HW237896   8.207   4.295   5.562
78667SOL     OW37897  11.502  11.066   0.892
78667SOL    HW137898  11.508  11.124   0.968
78667SOL    HW237899  11.496  10.979   0.929
78668SOL     OW37900   3.152   2.628   9.547
78668SOL    HW137901   3.121   2.707   9.504
78668SOL    HW237902   3.208   2.585   9.482
78669SOL     OW37903   6.408   9.127  14.745
78669SOL    HW137904   6.316   9.127  14.715
78669SOL    HW237905   6.411   9.193  14.813
78670SOL     OW37906   2.330   5.634  13.808
78670SOL    HW137907   2.293   5.572  13.870
78670SOL    HW237908   2.265   5.705  13.803
78671SOL     OW37909   2.533  13.975   5.071
78671SOL    HW137910   2.496  14.054   5.111
78671SOL    HW237911   2.610  14.006   5.024
78672SOL     OW37912   4.558   1.368  12.949
78672SOL    HW137913   4.520   1.282  12.967
78672SOL    HW237914   4.611   1.388  13.026
78673SOL     OW37915  10.320  10.750   6.837
78673SOL    HW137916  10.277  10.704   6.765
78673SOL    HW237917  10.250  10.768   6.900
78674SOL     OW37918   6.552   1.242   8.662
78674SOL    HW137919   6.627   1.188   8.636
78674SOL    HW237920   6.475   1.190   8.637
78675SOL     OW37921   7.185   1.655   8.138
78675SOL    HW137922   7.187   1.709   8.216
78675SOL    HW237923   7.251   1.587   8.155
78676SOL     OW37924  12.915   5.669   8.484
78676SOL    HW137925  12.916   5.574   8.478
78676SOL    HW237926  12.829   5.694   8.451
78677SOL     OW37927  10.321   6.551   9.701
78677SOL    HW137928  10.291   6.634   9.664
78677SOL    HW237929  10.267   6.484   9.659
78678SOL     OW37930   7.964   2.742  12.807
78678SOL    HW137931   7.897   2.738  12.876
78678SOL    HW237932   7.993   2.834  12.808
78679SOL     OW37933   1.811   7.309   9.435
78679SOL    HW137934   1.842   7.399   9.426
78679SOL    HW237935   1.742   7.300   9.370
78680SOL     OW37936  10.260   1.617  12.803
78680SOL    HW137937  10.271   1.536  12.853
78680SOL    HW237938  10.349   1.647  12.784
78681SOL     OW37939  11.964  13.382   7.883
78681SOL    HW137940  12.060  13.382   7.881
78681SOL    HW237941  11.940  13.291   7.866
78682SOL     OW37942   4.574   1.035   0.291
78682SOL    HW137943   4.495   0.988   0.265
78682SOL    HW237944   4.637   1.020   0.221
78683SOL     OW37945  11.136  11.061  10.450
78683SOL    HW137946  11.204  11.035  10.387
78683SOL    HW237947  11.148  11.155  10.461
78684SOL     OW37948  10.850   9.299   0.978
78684SOL    HW137949  10.802   9.334   1.054
78684SOL    HW237950  10.783   9.290   0.910
78685SOL     OW37951   0.090   6.082   6.338
78685SOL    HW137952   0.009   6.072   6.388
78685SOL    HW237953   0.084   6.169   6.299
78686SOL     OW37954  14.350  12.998   3.739
78686SOL    HW137955  14.275  12.971   3.685
78686SOL    HW237956  14.315  13.001   3.828
78687SOL     OW37957   1.724   7.556  10.373
78687SOL    HW137958   1.706   7.599  10.457
78687SOL    HW237959   1.797   7.497  10.391
78688SOL     OW37960   2.253  14.774   2.153
78688SOL    HW137961   2.279  14.862   2.182
78688SOL    HW237962   2.199  14.788   2.076
78689SOL     OW37963   6.674   8.044  14.816
78689SOL    HW137964   6.635   8.131  14.814
78689SOL    HW237965   6.664   8.014   0.024
78690SOL     OW37966   5.978  12.149  13.716
78690SOL    HW137967   5.955  12.059  13.694
78690SOL    HW237968   5.898  12.199  13.698
78691SOL     OW37969   9.015   4.128  13.390
78691SOL    HW137970   9.041   4.220  13.393
78691SOL    HW237971   8.921   4.130  13.371
78692SOL     OW37972   9.349   5.149  11.574
78692SOL    HW137973   9.288   5.145  11.648
78692SOL    HW237974   9.360   5.058  11.547
78693SOL     OW37975   1.949   6.707   8.406
78693SOL    HW137976   1.901   6.653   8.468
78693SOL    HW237977   1.943   6.796   8.442
78694SOL     OW37978   5.802   3.105   4.794
78694SOL    HW137979   5.762   3.192   4.796
78694SOL    HW237980   5.798   3.075   4.885
78695SOL     OW37981  14.808  10.986   1.475
78695SOL    HW137982  14.857  10.914   1.514
78695SOL    HW237983  14.801  10.963   1.382
78696SOL     OW37984   1.115  11.074   9.409
78696SOL    HW137985   1.183  11.018   9.447
78696SOL    HW237986   1.064  11.104   9.484
78697SOL     OW37987   5.924   2.466   5.204
78697SOL    HW137988   6.019   2.459   5.206
78697SOL    HW237989   5.893   2.394   5.259
78698SOL     OW37990  12.268   3.167   6.819
78698SOL    HW137991  12.247   3.254   6.854
78698SOL    HW237992  12.306   3.120   6.893
78699SOL     OW37993   5.318   8.395  11.796
78699SOL    HW137994   5.365   8.401  11.879
78699SOL    HW237995   5.372   8.337  11.742
78700SOL     OW37996   5.094   0.540   2.125
78700SOL    HW137997   5.087   0.480   2.051
78700SOL    HW237998   5.058   0.491   2.199
78701SOL     OW37999   8.026   1.484  13.955
78701SOL    HW138000   7.947   1.437  13.984
78701SOL    HW238001   7.999   1.528  13.875
78702SOL     OW38002   4.605   7.440   0.343
78702SOL    HW138003   4.684   7.493   0.349
78702SOL    HW238004   4.637   7.351   0.331
78703SOL     OW38005  13.459   0.909   9.466
78703SOL    HW138006  13.429   0.891   9.377
78703SOL    HW238007  13.402   0.856   9.522
78704SOL     OW38008   7.013   8.794   0.523
78704SOL    HW138009   7.085   8.741   0.558
78704SOL    HW238010   7.055   8.854   0.462
78705SOL     OW38011   5.584   0.595  14.189
78705SOL    HW138012   5.674   0.621  14.210
78705SOL    HW238013   5.594   0.519  14.132
78706SOL     OW38014  12.918  13.098  11.150
78706SOL    HW138015  13.001  13.105  11.103
78706SOL    HW238016  12.888  13.189  11.157
78707SOL     OW38017  10.156   1.843   5.494
78707SOL    HW138018  10.178   1.816   5.405
78707SOL    HW238019  10.171   1.938   5.494
78708SOL     OW38020   0.071   4.417  14.477
78708SOL    HW138021   0.137   4.449  14.416
78708SOL    HW238022   0.060   4.324  14.454
78709SOL     OW38023   8.897   5.689   6.950
78709SOL    HW138024   8.835   5.656   6.885
78709SOL    HW238025   8.910   5.781   6.926
78710SOL     OW38026   5.127  11.534   6.427
78710SOL    HW138027   5.219  11.515   6.409
78710SOL    HW238028   5.082  11.453   6.405
78711SOL     OW38029  14.665  14.362   7.941
78711SOL    HW138030  14.678  14.356   7.847
78711SOL    HW238031  14.753  14.376   7.977
78712SOL     OW38032   3.044  10.687   3.573
78712SOL    HW138033   3.082  10.677   3.660
78712SOL    HW238034   2.975  10.752   3.584
78713SOL     OW38035  14.140   9.086  10.583
78713SOL    HW138036  14.047   9.109  10.582
78713SOL    HW238037  14.164   9.090  10.676
78714SOL     OW38038   8.957   5.678   5.064
78714SOL    HW138039   8.963   5.765   5.025
78714SOL    HW238040   8.901   5.629   5.004
78715SOL     OW38041  12.610   4.966   9.984
78715SOL    HW138042  12.684   4.923  10.027
78715SOL    HW238043  12.533   4.918  10.014
78716SOL     OW38044  11.142   4.034   8.460
78716SOL    HW138045  11.196   4.101   8.502
78716SOL    HW238046  11.089   3.997   8.531
78717SOL     OW38047  10.529   9.523   7.023
78717SOL    HW138048  10.574   9.481   7.096
78717SOL    HW238049  10.456   9.463   7.003
78718SOL     OW38050  13.133   1.376   8.706
78718SOL    HW138051  13.085   1.447   8.749
78718SOL    HW238052  13.175   1.329   8.778
78719SOL     OW38053   1.240  13.565   7.858
78719SOL    HW138054   1.189  13.485   7.869
78719SOL    HW238055   1.328  13.534   7.835
78720SOL     OW38056   8.088  14.616   7.057
78720SOL    HW138057   8.038  14.661   7.125
78720SOL    HW238058   8.076  14.523   7.077
78721SOL     OW38059   6.924   7.296  12.539
78721SOL    HW138060   6.959   7.376  12.580
78721SOL    HW238061   6.985   7.227  12.566
78722SOL     OW38062   9.230   3.290  11.597
78722SOL    HW138063   9.274   3.210  11.571
78722SOL    HW238064   9.224   3.285  11.692
78723SOL     OW38065   0.446   3.357   3.179
78723SOL    HW138066   0.420   3.393   3.264
78723SOL    HW238067   0.385   3.397   3.117
78724SOL     OW38068   1.490  13.432   9.413
78724SOL    HW138069   1.471  13.451   9.321
78724SOL    HW238070   1.459  13.342   9.425
78725SOL     OW38071   5.093   3.432  14.174
78725SOL    HW138072   5.059   3.343  14.167
78725SOL    HW238073   5.023   3.487  14.140
78726SOL     OW38074  14.556  12.446  12.436
78726SOL    HW138075  14.562  12.499  12.516
78726SOL    HW238076  14.489  12.380  12.455
78727SOL     OW38077  11.728  12.064   1.718
78727SOL    HW138078  11.795  11.998   1.699
78727SOL    HW238079  11.777  12.146   1.728
78728SOL     OW38080   7.143   1.428   6.943
78728SOL    HW138081   7.226   1.404   6.902
78728SOL    HW238082   7.159   1.419   7.037
78729SOL     OW38083   1.507  13.707  12.873
78729SOL    HW138084   1.559  13.650  12.816
78729SOL    HW238085   1.452  13.758  12.813
78730SOL     OW38086   7.214  10.953   8.592
78730SOL    HW138087   7.157  11.010   8.645
78730SOL    HW238088   7.162  10.874   8.578
78731SOL     OW38089  10.331   5.185   7.062
78731SOL    HW138090  10.363   5.228   7.141
78731SOL    HW238091  10.238   5.173   7.078
78732SOL     OW38092   0.800   3.671   6.848
78732SOL    HW138093   0.895   3.669   6.834
78732SOL    HW238094   0.764   3.621   6.775
78733SOL     OW38095  10.194   7.211   7.585
78733SOL    HW138096  10.197   7.220   7.490
78733SOL    HW238097  10.273   7.161   7.607
78734SOL     OW38098   2.368  14.863   0.420
78734SOL    HW138099   2.326  14.819   0.347
78734SOL    HW238100   2.412  14.793   0.468
78735SOL     OW38101   6.536   0.756  12.633
78735SOL    HW138102   6.445   0.731  12.647
78735SOL    HW238103   6.572   0.764  12.722
78736SOL     OW38104   8.293  11.078   3.365
78736SOL    HW138105   8.320  11.031   3.444
78736SOL    HW238106   8.336  11.164   3.373
78737SOL     OW38107   6.392   1.663   9.468
78737SOL    HW138108   6.471   1.709   9.498
78737SOL    HW238109   6.425   1.582   9.429
78738SOL     OW38110   4.966  10.825   6.214
78738SOL    HW138111   4.985  10.785   6.130
78738SOL    HW238112   5.053  10.844   6.251
78739SOL     OW38113  12.159   0.675  10.974
78739SOL    HW138114  12.243   0.720  10.982
78739SOL    HW238115  12.114   0.719  10.902
78740SOL     OW38116   2.608   7.518   8.102
78740SOL    HW138117   2.667   7.443   8.096
78740SOL    HW238118   2.634   7.562   8.183
78741SOL     OW38119   9.828   4.197  11.876
78741SOL    HW138120   9.759   4.186  11.811
78741SOL    HW238121   9.872   4.278  11.850
78742SOL     OW38122   3.200   2.796   8.462
78742SOL    HW138123   3.205   2.820   8.555
78742SOL    HW238124   3.151   2.714   8.461
78743SOL     OW38125   5.649  10.878   3.149
78743SOL    HW138126   5.609  10.893   3.234
78743SOL    HW238127   5.737  10.914   3.157
78744SOL     OW38128   1.000   2.005   1.840
78744SOL    HW138129   1.011   2.097   1.817
78744SOL    HW238130   0.951   2.008   1.923
78745SOL     OW38131   2.437   7.234  10.414
78745SOL    HW138132   2.503   7.165  10.414
78745SOL    HW238133   2.478   7.306  10.365
78746SOL     OW38134   8.673  11.939   4.115
78746SOL    HW138135   8.759  11.915   4.081
78746SOL    HW238136   8.628  11.856   4.128
78747SOL     OW38137   0.526   2.278   7.113
78747SOL    HW138138   0.486   2.303   7.196
78747SOL    HW238139   0.452   2.256   7.056
78748SOL     OW38140   7.270   9.284   0.141
78748SOL    HW138141   7.307   9.367   0.172
78748SOL    HW238142   7.194   9.270   0.198
78749SOL     OW38143   5.933   4.733   8.388
78749SOL    HW138144   5.933   4.754   8.295
78749SOL    HW238145   5.860   4.672   8.399
78750SOL     OW38146   1.771   5.902  14.143
78750SOL    HW138147   1.726   5.827  14.105
78750SOL    HW238148   1.778   5.882  14.236
78751SOL     OW38149  14.791  12.943   6.870
78751SOL    HW138150   0.003  12.963   6.868
78751SOL    HW238151  14.787  12.853   6.902
78752SOL     OW38152   0.572   1.286  13.478
78752SOL    HW138153   0.488   1.248  13.452
78752SOL    HW238154   0.637   1.220  13.454
78753SOL     OW38155  13.606   3.844   8.162
78753SOL    HW138156  13.632   3.754   8.182
78753SOL    HW238157  13.511   3.844   8.169
78754SOL     OW38158   2.693   0.513   7.235
78754SOL    HW138159   2.627   0.544   7.173
78754SOL    HW238160   2.699   0.583   7.300
78755SOL     OW38161  13.723   8.703  11.153
78755SOL    HW138162  13.796   8.714  11.092
78755SOL    HW238163  13.761   8.724  11.239
78756SOL     OW38164   5.871   5.463   5.347
78756SOL    HW138165   5.900   5.478   5.258
78756SOL    HW238166   5.951   5.450   5.397
78757SOL     OW38167   4.425  10.435   7.309
78757SOL    HW138168   4.377  10.361   7.271
78757SOL    HW238169   4.356  10.494   7.341
78758SOL     OW38170   2.350   7.212   8.032
78758SOL    HW138171   2.318   7.237   8.118
78758SOL    HW238172   2.420   7.149   8.049
78759SOL     OW38173   8.112  13.150   6.954
78759SOL    HW138174   8.080  13.158   7.044
78759SOL    HW238175   8.042  13.105   6.907
78760SOL     OW38176   8.497   2.342  13.838
78760SOL    HW138177   8.524   2.349  13.930
78760SOL    HW238178   8.512   2.251  13.815
78761SOL     OW38179   6.479  10.254  14.797
78761SOL    HW138180   6.395  10.223  14.762
78761SOL    HW238181   6.455  10.313  14.868
78762SOL     OW38182  10.710  14.375  13.947
78762SOL    HW138183  10.620  14.364  13.915
78762SOL    HW238184  10.715  14.467  13.973
78763SOL     OW38185   6.812  11.911   4.267
78763SOL    HW138186   6.849  11.930   4.181
78763SOL    HW238187   6.885  11.922   4.328
78764SOL     OW38188   3.374   6.615   4.753
78764SOL    HW138189   3.443   6.675   4.781
78764SOL    HW238190   3.411   6.570   4.676
78765SOL     OW38191   6.929   2.092  13.413
78765SOL    HW138192   6.888   2.027  13.357
78765SOL    HW238193   7.022   2.086  13.394
78766SOL     OW38194   2.859   2.345   8.378
78766SOL    HW138195   2.788   2.314   8.322
78766SOL    HW238196   2.848   2.299   8.460
78767SOL     OW38197   3.011  12.629   1.088
78767SOL    HW138198   3.037  12.685   1.161
78767SOL    HW238199   3.079  12.643   1.022
78768SOL     OW38200   8.662  13.830   8.900
78768SOL    HW138201   8.583  13.780   8.881
78768SOL    HW238202   8.734  13.769   8.882
78769SOL     OW38203   8.408  10.558   8.698
78769SOL    HW138204   8.486  10.546   8.645
78769SOL    HW238205   8.336  10.559   8.635
78770SOL     OW38206   3.355   8.016   1.900
78770SOL    HW138207   3.347   7.940   1.957
78770SOL    HW238208   3.393   8.084   1.957
78771SOL     OW38209  12.409   2.470  12.389
78771SOL    HW138210  12.493   2.470  12.435
78771SOL    HW238211  12.431   2.452  12.298
78772SOL     OW38212   3.140   1.786   2.928
78772SOL    HW138213   3.058   1.825   2.959
78772SOL    HW238214   3.159   1.717   2.992
78773SOL     OW38215  12.565   2.814   5.660
78773SOL    HW138216  12.644   2.790   5.611
78773SOL    HW238217  12.505   2.741   5.648
78774SOL     OW38218  12.708  14.572  14.869
78774SOL    HW138219  12.739  14.494  14.824
78774SOL    HW238220  12.645  14.539   0.052
78775SOL     OW38221   2.250   0.034  12.132
78775SOL    HW138222   2.180   0.041  12.196
78775SOL    HW238223   2.318  14.865  12.176
78776SOL     OW38224  10.683  14.557   7.587
78776SOL    HW138225  10.725  14.559   7.673
78776SOL    HW238226  10.667  14.649   7.565
78777SOL     OW38227  12.537   1.736  11.134
78777SOL    HW138228  12.597   1.721  11.062
78777SOL    HW238229  12.570   1.815  11.178
78778SOL     OW38230  12.137   2.811   7.792
78778SOL    HW138231  12.145   2.775   7.704
78778SOL    HW238232  12.046   2.840   7.798
78779SOL     OW38233   2.684   5.927  11.635
78779SOL    HW138234   2.696   5.879  11.717
78779SOL    HW238235   2.596   5.903  11.606
78780SOL     OW38236  13.004   8.613   5.664
78780SOL    HW138237  12.921   8.571   5.641
78780SOL    HW238238  12.984   8.707   5.661
78781SOL     OW38239   0.888   3.017   0.402
78781SOL    HW138240   0.938   3.089   0.441
78781SOL    HW238241   0.949   2.943   0.400
78782SOL     OW38242  13.601   3.286   1.825
78782SOL    HW138243  13.687   3.318   1.799
78782SOL    HW238244  13.565   3.246   1.746
78783SOL     OW38245   9.937   6.720   2.701
78783SOL    HW138246   9.982   6.648   2.656
78783SOL    HW238247   9.854   6.680   2.731
78784SOL     OW38248   3.228  11.206   8.045
78784SOL    HW138249   3.309  11.155   8.051
78784SOL    HW238250   3.251  11.281   7.991
78785SOL     OW38251   5.411   4.235   3.439
78785SOL    HW138252   5.409   4.299   3.510
78785SOL    HW238253   5.360   4.275   3.369
78786SOL     OW38254   5.839   6.912   6.789
78786SOL    HW138255   5.884   6.891   6.707
78786SOL    HW238256   5.768   6.848   6.794
78787SOL     OW38257   9.194   3.895   4.255
78787SOL    HW138258   9.287   3.871   4.258
78787SOL    HW238259   9.188   3.971   4.313
78788SOL     OW38260   6.082  13.098  14.211
78788SOL    HW138261   6.115  13.008  14.220
78788SOL    HW238262   6.009  13.090  14.149
78789SOL     OW38263  13.443   6.885   4.341
78789SOL    HW138264  13.510   6.855   4.402
78789SOL    HW238265  13.362   6.845   4.371
78790SOL     OW38266   7.023   8.676   3.434
78790SOL    HW138267   7.051   8.735   3.364
78790SOL    HW238268   7.072   8.595   3.419
78791SOL     OW38269  11.031   8.355   5.098
78791SOL    HW138270  10.959   8.362   5.036
78791SOL    HW238271  11.023   8.433   5.152
78792SOL     OW38272   0.994  13.474  12.847
78792SOL    HW138273   0.929  13.526  12.894
78792SOL    HW238274   0.958  13.385  12.850
78793SOL     OW38275   0.303  13.609  10.064
78793SOL    HW138276   0.239  13.668  10.104
78793SOL    HW238277   0.387  13.639  10.099
78794SOL     OW38278   8.761   2.077   7.176
78794SOL    HW138279   8.815   2.091   7.098
78794SOL    HW238280   8.720   1.992   7.162
78795SOL     OW38281   1.553   2.418  14.863
78795SOL    HW138282   1.559   2.345   0.042
78795SOL    HW238283   1.521   2.379  14.782
78796SOL     OW38284   0.128   7.260  11.314
78796SOL    HW138285   0.074   7.338  11.303
78796SOL    HW238286   0.182   7.257  11.236
78797SOL     OW38287   9.024   5.213   2.580
78797SOL    HW138288   9.033   5.241   2.671
78797SOL    HW238289   9.004   5.294   2.532
78798SOL     OW38290   9.661   3.760   3.767
78798SOL    HW138291   9.713   3.829   3.727
78798SOL    HW238292   9.722   3.689   3.782
78799SOL     OW38293   4.298   6.800  14.033
78799SOL    HW138294   4.294   6.864  13.962
78799SOL    HW238295   4.276   6.717  13.991
78800SOL     OW38296   3.439  10.204  14.087
78800SOL    HW138297   3.446  10.298  14.072
78800SOL    HW238298   3.365  10.195  14.148
78801SOL     OW38299   5.892   1.102  13.463
78801SOL    HW138300   5.916   1.126  13.373
78801SOL    HW238301   5.965   1.049  13.494
78802SOL     OW38302  12.471  11.579  12.169
78802SOL    HW138303  12.557  11.558  12.205
78802SOL    HW238304  12.432  11.494  12.149
78803SOL     OW38305  13.933   6.506  12.587
78803SOL    HW138306  14.011   6.537  12.632
78803SOL    HW238307  13.885   6.586  12.565
78804SOL     OW38308   3.450   5.144  14.692
78804SOL    HW138309   3.489   5.125  14.777
78804SOL    HW238310   3.443   5.240  14.690
78805SOL     OW38311   6.296  12.312   7.907
78805SOL    HW138312   6.383  12.324   7.869
78805SOL    HW238313   6.235  12.342   7.839
78806SOL     OW38314   4.750   3.240  11.098
78806SOL    HW138315   4.831   3.228  11.049
78806SOL    HW238316   4.683   3.250  11.031
78807SOL     OW38317   9.148   6.305   6.187
78807SOL    HW138318   9.121   6.377   6.244
78807SOL    HW238319   9.172   6.234   6.246
78808SOL     OW38320   2.927  13.395  14.840
78808SOL    HW138321   3.008  13.357  14.872
78808SOL    HW238322   2.913  13.473   0.012
78809SOL     OW38323   2.987  10.457   6.030
78809SOL    HW138324   2.898  10.480   6.004
78809SOL    HW238325   3.011  10.522   6.096
78810SOL     OW38326  13.906   7.641  14.225
78810SOL    HW138327  13.905   7.597  14.140
78810SOL    HW238328  13.969   7.712  14.214
78811SOL     OW38329  11.388  11.375  12.638
78811SOL    HW138330  11.471  11.421  12.651
78811SOL    HW238331  11.411  11.295  12.591
78812SOL     OW38332   4.246   8.163  13.032
78812SOL    HW138333   4.319   8.185  13.090
78812SOL    HW238334   4.209   8.083  13.070
78813SOL     OW38335  10.215   4.209   1.189
78813SOL    HW138336  10.240   4.119   1.208
78813SOL    HW238337  10.266   4.262   1.251
78814SOL     OW38338   7.534  10.595   9.091
78814SOL    HW138339   7.530  10.555   9.004
78814SOL    HW238340   7.627  10.590   9.116
78815SOL     OW38341   7.562  11.434  11.788
78815SOL    HW138342   7.536  11.524  11.808
78815SOL    HW238343   7.647  11.442  11.745
78816SOL     OW38344   4.393  12.858   9.833
78816SOL    HW138345   4.324  12.823   9.777
78816SOL    HW238346   4.348  12.915   9.895
78817SOL     OW38347   1.378   2.603  14.140
78817SOL    HW138348   1.465   2.591  14.178
78817SOL    HW238349   1.388   2.677  14.080
78818SOL     OW38350   6.644   1.067   1.449
78818SOL    HW138351   6.647   0.996   1.513
78818SOL    HW238352   6.680   1.143   1.495
78819SOL     OW38353   7.985   6.157   5.191
78819SOL    HW138354   7.965   6.149   5.098
78819SOL    HW238355   8.008   6.249   5.204
78820SOL     OW38356   5.228   9.900  13.539
78820SOL    HW138357   5.175   9.945  13.604
78820SOL    HW238358   5.308   9.875  13.585
78821SOL     OW38359   6.484   2.589  14.101
78821SOL    HW138360   6.538   2.513  14.122
78821SOL    HW238361   6.545   2.652  14.063
78822SOL     OW38362  14.301  12.791  10.185
78822SOL    HW138363  14.240  12.728  10.147
78822SOL    HW238364  14.384  12.775  10.140
78823SOL     OW38365   4.379  14.712   4.866
78823SOL    HW138366   4.357  14.742   4.954
78823SOL    HW238367   4.415  14.790   4.822
78824SOL     OW38368   7.729   7.585   4.937
78824SOL    HW138369   7.703   7.677   4.942
78824SOL    HW238370   7.814   7.586   4.894
78825SOL     OW38371   9.151   1.581   7.887
78825SOL    HW138372   9.198   1.514   7.937
78825SOL    HW238373   9.209   1.602   7.814
78826SOL     OW38374   8.140   5.976   0.038
78826SOL    HW138375   8.126   5.896   0.090
78826SOL    HW238376   8.074   6.037   0.070
78827SOL     OW38377   0.095  14.509   4.657
78827SOL    HW138378   0.111  14.538   4.567
78827SOL    HW238379   0.175  14.463   4.683
78828SOL     OW38380  11.560   2.437   9.708
78828SOL    HW138381  11.610   2.476   9.780
78828SOL    HW238382  11.512   2.510   9.670
78829SOL     OW38383  14.251  10.237  11.022
78829SOL    HW138384  14.256  10.256  10.928
78829SOL    HW238385  14.296  10.310  11.064
78830SOL     OW38386   0.651   6.962   5.691
78830SOL    HW138387   0.560   6.951   5.721
78830SOL    HW238388   0.677   7.047   5.724
78831SOL     OW38389   2.239   1.894   2.561
78831SOL    HW138390   2.261   1.927   2.648
78831SOL    HW238391   2.250   1.800   2.567
78832SOL     OW38392   4.955   5.065  10.475
78832SOL    HW138393   4.880   5.006  10.465
78832SOL    HW238394   4.935   5.116  10.554
78833SOL     OW38395  10.334   1.097   3.559
78833SOL    HW138396  10.293   1.126   3.478
78833SOL    HW238397  10.330   1.174   3.617
78834SOL     OW38398  12.441  11.018   1.592
78834SOL    HW138399  12.430  11.054   1.504
78834SOL    HW238400  12.360  11.043   1.637
78835SOL     OW38401   0.932   5.421   3.283
78835SOL    HW138402   0.958   5.370   3.360
78835SOL    HW238403   1.015   5.439   3.237
78836SOL     OW38404  13.991   6.511   5.367
78836SOL    HW138405  14.067   6.490   5.313
78836SOL    HW238406  13.916   6.487   5.313
78837SOL     OW38407  10.023  12.458   6.108
78837SOL    HW138408   9.981  12.541   6.086
78837SOL    HW238409  10.063  12.474   6.194
78838SOL     OW38410   8.621  11.136   5.557
78838SOL    HW138411   8.672  11.164   5.481
78838SOL    HW238412   8.666  11.056   5.587
78839SOL     OW38413   1.487  12.766  11.878
78839SOL    HW138414   1.442  12.685  11.902
78839SOL    HW238415   1.566  12.737  11.832
78840SOL     OW38416  11.991   8.556   8.228
78840SOL    HW138417  11.969   8.528   8.317
78840SOL    HW238418  12.074   8.602   8.237
78841SOL     OW38419   4.529   2.036  12.175
78841SOL    HW138420   4.463   2.083  12.226
78841SOL    HW238421   4.555   1.963  12.231
78842SOL     OW38422  13.521  12.287   6.218
78842SOL    HW138423  13.585  12.229   6.259
78842SOL    HW238424  13.477  12.330   6.292
78843SOL     OW38425   2.617  13.775   3.287
78843SOL    HW138426   2.640  13.780   3.380
78843SOL    HW238427   2.547  13.710   3.283
78844SOL     OW38428  14.042  12.181   6.832
78844SOL    HW138429  14.121  12.159   6.783
78844SOL    HW238430  14.059  12.148   6.920
78845SOL     OW38431   5.622   5.294  11.515
78845SOL    HW138432   5.614   5.321  11.423
78845SOL    HW238433   5.620   5.376  11.564
78846SOL     OW38434  12.369   0.592   4.335
78846SOL    HW138435  12.324   0.516   4.296
78846SOL    HW238436  12.396   0.645   4.260
78847SOL     OW38437   7.514   7.965  14.226
78847SOL    HW138438   7.606   7.990  14.211
78847SOL    HW238439   7.487   8.020  14.300
78848SOL     OW38440   6.131   2.950  12.451
78848SOL    HW138441   6.050   2.927  12.497
78848SOL    HW238442   6.173   2.866  12.433
78849SOL     OW38443   6.572   2.475   8.968
78849SOL    HW138444   6.594   2.450   8.878
78849SOL    HW238445   6.477   2.466   8.973
78850SOL     OW38446   2.660  10.752   2.601
78850SOL    HW138447   2.744  10.789   2.627
78850SOL    HW238448   2.679  10.705   2.520
78851SOL     OW38449  12.154  14.261   0.818
78851SOL    HW138450  12.173  14.309   0.737
78851SOL    HW238451  12.226  14.199   0.826
78852SOL     OW38452  10.924  14.144   5.713
78852SOL    HW138453  10.959  14.211   5.772
78852SOL    HW238454  10.975  14.065   5.732
78853SOL     OW38455  12.435   4.090  11.190
78853SOL    HW138456  12.485   4.034  11.249
78853SOL    HW238457  12.343   4.074  11.213
78854SOL     OW38458  14.879   8.665   2.608
78854SOL    HW138459  14.828   8.719   2.547
78854SOL    HW238460   0.051   8.728   2.655
78855SOL     OW38461   9.291  12.639   3.953
78855SOL    HW138462   9.350  12.714   3.957
78855SOL    HW238463   9.348  12.563   3.963
78856SOL     OW38464   1.089   9.319  11.839
78856SOL    HW138465   1.158   9.253  11.850
78856SOL    HW238466   1.047   9.323  11.925
78857SOL     OW38467   1.586   9.654  10.661
78857SOL    HW138468   1.497   9.672  10.694
78857SOL    HW238469   1.575   9.643  10.567
78858SOL     OW38470  10.276  10.214  11.317
78858SOL    HW138471  10.208  10.188  11.378
78858SOL    HW238472  10.317  10.132  11.290
78859SOL     OW38473  10.821  11.506   5.400
78859SOL    HW138474  10.890  11.476   5.342
78859SOL    HW238475  10.847  11.476   5.487
78860SOL     OW38476   8.148  13.803  10.476
78860SOL    HW138477   8.136  13.755  10.394
78860SOL    HW238478   8.237  13.783  10.502
78861SOL     OW38479   4.095  11.298  10.168
78861SOL    HW138480   4.117  11.369  10.228
78861SOL    HW238481   4.021  11.331  10.118
78862SOL     OW38482   9.050  13.913   8.551
78862SOL    HW138483   9.001  13.911   8.469
78862SOL    HW238484   8.983  13.910   8.619
78863SOL     OW38485   0.537   1.727  13.758
78863SOL    HW138486   0.498   1.640  13.766
78863SOL    HW238487   0.479   1.784  13.808
78864SOL     OW38488  14.027   0.386   3.112
78864SOL    HW138489  14.014   0.325   3.184
78864SOL    HW238490  13.954   0.369   3.052
78865SOL     OW38491  13.568  14.307   9.820
78865SOL    HW138492  13.516  14.371   9.773
78865SOL    HW238493  13.504  14.243   9.853
78866SOL     OW38494   2.254  13.106  14.595
78866SOL    HW138495   2.329  13.046  14.586
78866SOL    HW238496   2.293  13.189  14.621
78867SOL     OW38497   4.562   3.308  13.887
78867SOL    HW138498   4.629   3.375  13.869
78867SOL    HW238499   4.610   3.240  13.934
78868SOL     OW38500   7.082   4.750  10.985
78868SOL    HW138501   7.028   4.828  10.966
78868SOL    HW238502   7.025   4.695  11.038
78869SOL     OW38503   3.478  10.018   7.206
78869SOL    HW138504   3.556  10.065   7.236
78869SOL    HW238505   3.504   9.926   7.207
78870SOL     OW38506  14.306   3.101   4.808
78870SOL    HW138507  14.376   3.145   4.856
78870SOL    HW238508  14.236   3.166   4.803
78871SOL     OW38509  12.111  12.645  13.294
78871SOL    HW138510  12.024  12.624  13.328
78871SOL    HW238511  12.139  12.565  13.249
78872SOL     OW38512  12.350   9.622   7.322
78872SOL    HW138513  12.313   9.696   7.274
78872SOL    HW238514  12.390   9.661   7.400
78873SOL     OW38515   1.832   3.123   7.373
78873SOL    HW138516   1.751   3.126   7.423
78873SOL    HW238517   1.815   3.059   7.304
78874SOL     OW38518   1.403   0.835  12.109
78874SOL    HW138519   1.386   0.812  12.200
78874SOL    HW238520   1.497   0.853  12.106
78875SOL     OW38521   9.478   6.679   4.918
78875SOL    HW138522   9.406   6.699   4.858
78875SOL    HW238523   9.457   6.591   4.952
78876SOL     OW38524   9.419   8.045  10.481
78876SOL    HW138525   9.462   8.112  10.428
78876SOL    HW238526   9.336   8.029  10.436
78877SOL     OW38527   9.370  13.118  10.238
78877SOL    HW138528   9.423  13.102  10.161
78877SOL    HW238529   9.369  13.214  10.247
78878SOL     OW38530   9.258  14.874  10.836
78878SOL    HW138531   9.293  14.801  10.784
78878SOL    HW238532   9.282  14.853  10.926
78879SOL     OW38533   4.494   2.967   7.194
78879SOL    HW138534   4.553   2.892   7.189
78879SOL    HW238535   4.406   2.930   7.181
78880SOL     OW38536   9.635   3.983   4.609
78880SOL    HW138537   9.628   4.076   4.631
78880SOL    HW238538   9.677   3.982   4.523
78881SOL     OW38539   8.436   6.734   8.796
78881SOL    HW138540   8.523   6.696   8.806
78881SOL    HW238541   8.451   6.829   8.796
78882SOL     OW38542  14.397  12.539  10.582
78882SOL    HW138543  14.424  12.464  10.529
78882SOL    HW238544  14.411  12.510  10.672
78883SOL     OW38545   5.878  11.697   6.373
78883SOL    HW138546   5.830  11.692   6.456
78883SOL    HW238547   5.939  11.623   6.376
78884SOL     OW38548  13.934   1.401   4.914
78884SOL    HW138549  14.025   1.430   4.907
78884SOL    HW238550  13.932   1.317   4.869
78885SOL     OW38551   3.479  11.931  10.959
78885SOL    HW138552   3.473  11.890  10.872
78885SOL    HW238553   3.490  12.024  10.941
78886SOL     OW38554  11.364   6.434   7.735
78886SOL    HW138555  11.340   6.524   7.758
78886SOL    HW238556  11.373   6.436   7.640
78887SOL     OW38557   7.546   0.612  13.784
78887SOL    HW138558   7.485   0.610  13.711
78887SOL    HW238559   7.572   0.704  13.791
78888SOL     OW38560  12.486  13.844   8.091
78888SOL    HW138561  12.437  13.840   8.009
78888SOL    HW238562  12.447  13.775   8.145
78889SOL     OW38563  13.811   2.490   5.900
78889SOL    HW138564  13.811   2.411   5.955
78889SOL    HW238565  13.900   2.494   5.864
78890SOL     OW38566   9.556   0.273   5.808
78890SOL    HW138567   9.502   0.331   5.754
78890SOL    HW238568   9.605   0.220   5.745
78891SOL     OW38569   5.147   3.391  13.031
78891SOL    HW138570   5.093   3.314  13.046
78891SOL    HW238571   5.213   3.388  13.100
78892SOL     OW38572  11.020   7.845   4.062
78892SOL    HW138573  10.989   7.908   4.127
78892SOL    HW238574  11.102   7.881   4.030
78893SOL     OW38575  13.681  13.704   9.149
78893SOL    HW138576  13.679  13.636   9.216
78893SOL    HW238577  13.648  13.661   9.070
78894SOL     OW38578   9.348   0.403   5.638
78894SOL    HW138579   9.369   0.490   5.604
78894SOL    HW238580   9.298   0.361   5.568
78895SOL     OW38581   3.745  14.492   1.168
78895SOL    HW138582   3.725  14.533   1.252
78895SOL    HW238583   3.777  14.563   1.113
78896SOL     OW38584   9.322   0.964   9.768
78896SOL    HW138585   9.267   1.042   9.768
78896SOL    HW238586   9.368   0.967   9.684
78897SOL     OW38587   4.518   9.881  12.741
78897SOL    HW138588   4.560   9.812  12.791
78897SOL    HW238589   4.561   9.962  12.770
78898SOL     OW38590   9.677   0.576   0.873
78898SOL    HW138591   9.713   0.494   0.840
78898SOL    HW238592   9.731   0.644   0.833
78899SOL     OW38593   8.616  14.802  12.671
78899SOL    HW138594   8.537  14.838  12.631
78899SOL    HW238595   8.660  14.757  12.599
78900SOL     OW38596  13.147   3.982   2.094
78900SOL    HW138597  13.094   4.035   2.035
78900SOL    HW238598  13.235   3.983   2.055
78901SOL     OW38599   6.545   6.751   6.197
78901SOL    HW138600   6.495   6.690   6.142
78901SOL    HW238601   6.548   6.832   6.146
78902SOL     OW38602   4.399   8.628   4.426
78902SOL    HW138603   4.449   8.699   4.464
78902SOL    HW238604   4.439   8.548   4.461
78903SOL     OW38605   0.242   7.132   0.079
78903SOL    HW138606   0.176   7.079   0.124
78903SOL    HW238607   0.309   7.149   0.145
78904SOL     OW38608  13.363  11.739   5.154
78904SOL    HW138609  13.434  11.733   5.217
78904SOL    HW238610  13.401  11.786   5.079
78905SOL     OW38611  10.433  14.415  14.299
78905SOL    HW138612  10.443  14.357  14.223
78905SOL    HW238613  10.470  14.499  14.270
78906SOL     OW38614   5.159   4.891  14.003
78906SOL    HW138615   5.244   4.858  14.031
78906SOL    HW238616   5.168   4.986  14.006
78907SOL     OW38617   3.982  12.456  11.966
78907SOL    HW138618   3.944  12.543  11.970
78907SOL    HW238619   4.076  12.471  11.963
78908SOL     OW38620  14.187  10.369   6.524
78908SOL    HW138621  14.145  10.421   6.455
78908SOL    HW238622  14.151  10.281   6.513
78909SOL     OW38623   4.283   3.401  11.958
78909SOL    HW138624   4.219   3.471  11.946
78909SOL    HW238625   4.317   3.385  11.870
78910SOL     OW38626   9.784   1.367   6.203
78910SOL    HW138627   9.828   1.448   6.227
78910SOL    HW238628   9.849   1.318   6.152
78911SOL     OW38629   6.527   7.600   2.131
78911SOL    HW138630   6.550   7.590   2.224
78911SOL    HW238631   6.572   7.680   2.104
78912SOL     OW38632  10.793   0.930  13.757
78912SOL    HW138633  10.700   0.911  13.758
78912SOL    HW238634  10.821   0.924  13.848
78913SOL     OW38635   7.474  14.034  14.109
78913SOL    HW138636   7.385  13.999  14.099
78913SOL    HW238637   7.500  14.060  14.021
78914SOL     OW38638  13.328  13.384   8.957
78914SOL    HW138639  13.346  13.303   8.910
78914SOL    HW238640  13.304  13.355   9.045
78915SOL     OW38641  10.408   6.032   3.019
78915SOL    HW138642  10.414   6.126   3.036
78915SOL    HW238643  10.494   6.008   2.983
78916SOL     OW38644   1.621   2.718   0.598
78916SOL    HW138645   1.584   2.704   0.685
78916SOL    HW238646   1.595   2.807   0.575
78917SOL     OW38647   2.858  13.241   3.036
78917SOL    HW138648   2.897  13.164   3.077
78917SOL    HW238649   2.769  13.243   3.071
78918SOL     OW38650  11.609  12.112   0.527
78918SOL    HW138651  11.542  12.061   0.574
78918SOL    HW238652  11.560  12.156   0.458
78919SOL     OW38653  10.300  12.338  12.458
78919SOL    HW138654  10.349  12.317  12.538
78919SOL    HW238655  10.302  12.433  12.453
78920SOL     OW38656   5.152   5.387   0.376
78920SOL    HW138657   5.114   5.459   0.325
78920SOL    HW238658   5.079   5.353   0.427
78921SOL     OW38659   9.497   5.302   1.482
78921SOL    HW138660   9.514   5.364   1.553
78921SOL    HW238661   9.540   5.340   1.406
78922SOL     OW38662   0.241  11.070   3.112
78922SOL    HW138663   0.254  11.081   3.206
78922SOL    HW238664   0.179  11.139   3.088
78923SOL     OW38665   2.283   8.188   3.658
78923SOL    HW138666   2.288   8.182   3.563
78923SOL    HW238667   2.244   8.106   3.686
78924SOL     OW38668   8.888  11.459   1.177
78924SOL    HW138669   8.833  11.495   1.107
78924SOL    HW238670   8.832  11.460   1.254
78925SOL     OW38671  14.063   5.022   5.554
78925SOL    HW138672  14.151   5.059   5.551
78925SOL    HW238673  14.077   4.927   5.559
78926SOL     OW38674   5.026   8.314  14.612
78926SOL    HW138675   4.956   8.359  14.566
78926SOL    HW238676   5.051   8.242  14.554
78927SOL     OW38677   0.151   1.300  14.447
78927SOL    HW138678   0.233   1.285  14.400
78927SOL    HW238679   0.083   1.293  14.379
78928SOL     OW38680   6.155   6.666  13.489
78928SOL    HW138681   6.097   6.653  13.414
78928SOL    HW238682   6.143   6.589  13.543
78929SOL     OW38683   6.309   0.960   1.701
78929SOL    HW138684   6.298   1.052   1.725
78929SOL    HW238685   6.401   0.941   1.721
78930SOL     OW38686   4.382   8.241   2.129
78930SOL    HW138687   4.350   8.163   2.174
78930SOL    HW238688   4.303   8.282   2.094
78931SOL     OW38689   2.758   5.850   2.959
78931SOL    HW138690   2.718   5.931   2.925
78931SOL    HW238691   2.721   5.781   2.904
78932SOL     OW38692   8.012   6.899  11.496
78932SOL    HW138693   8.008   6.803  11.491
78932SOL    HW238694   7.921   6.926  11.506
78933SOL     OW38695   0.622  12.229   5.434
78933SOL    HW138696   0.709  12.265   5.416
78933SOL    HW238697   0.611  12.160   5.369
78934SOL     OW38698   4.478   5.680   7.674
78934SOL    HW138699   4.419   5.745   7.636
78934SOL    HW238700   4.566   5.712   7.652
78935SOL     OW38701   9.486   5.131   9.475
78935SOL    HW138702   9.442   5.122   9.559
78935SOL    HW238703   9.578   5.144   9.497
78936SOL     OW38704  10.952  12.899   3.748
78936SOL    HW138705  11.030  12.949   3.771
78936SOL    HW238706  10.918  12.868   3.832
78937SOL     OW38707   8.522   3.414   5.053
78937SOL    HW138708   8.525   3.359   5.132
78937SOL    HW238709   8.613   3.441   5.039
78938SOL     OW38710  12.323   9.366   1.832
78938SOL    HW138711  12.337   9.285   1.783
78938SOL    HW238712  12.231   9.362   1.859
78939SOL     OW38713   2.342  14.287  10.922
78939SOL    HW138714   2.340  14.307  10.829
78939SOL    HW238715   2.302  14.363  10.964
78940SOL     OW38716  12.804   0.692   4.583
78940SOL    HW138717  12.892   0.672   4.553
78940SOL    HW238718  12.752   0.616   4.556
78941SOL     OW38719  14.047   9.466   9.191
78941SOL    HW138720  14.084   9.552   9.173
78941SOL    HW238721  13.962   9.484   9.231
78942SOL     OW38722   3.030  14.394   6.358
78942SOL    HW138723   2.997  14.473   6.401
78942SOL    HW238724   2.957  14.364   6.304
78943SOL     OW38725  14.284  12.086   5.921
78943SOL    HW138726  14.233  12.011   5.889
78943SOL    HW238727  14.337  12.050   5.992
78944SOL     OW38728  13.414   6.678   9.837
78944SOL    HW138729  13.404   6.583   9.836
78944SOL    HW238730  13.324   6.711   9.833
78945SOL     OW38731   7.456   2.805   8.425
78945SOL    HW138732   7.550   2.790   8.411
78945SOL    HW238733   7.417   2.792   8.339
78946SOL     OW38734   1.694  12.365  11.903
78946SOL    HW138735   1.629  12.296  11.914
78946SOL    HW238736   1.773  12.331  11.944
78947SOL     OW38737  11.352   3.690   4.141
78947SOL    HW138738  11.368   3.634   4.066
78947SOL    HW238739  11.261   3.672   4.165
78948SOL     OW38740  10.952  13.680  13.662
78948SOL    HW138741  10.970  13.619  13.590
78948SOL    HW238742  10.863  13.659  13.689
78949SOL     OW38743   5.666   7.486   3.720
78949SOL    HW138744   5.619   7.541   3.656
78949SOL    HW238745   5.687   7.406   3.671
78950SOL     OW38746   5.126   0.734   1.174
78950SOL    HW138747   5.096   0.753   1.085
78950SOL    HW238748   5.127   0.819   1.217
78951SOL     OW38749   1.415   2.107   2.041
78951SOL    HW138750   1.425   2.194   2.003
78951SOL    HW238751   1.498   2.063   2.022
78952SOL     OW38752   2.871   2.154  11.303
78952SOL    HW138753   2.931   2.175  11.232
78952SOL    HW238754   2.836   2.239  11.331
78953SOL     OW38755   5.342  14.325  12.765
78953SOL    HW138756   5.316  14.276  12.686
78953SOL    HW238757   5.324  14.265  12.837
78954SOL     OW38758   1.458   8.773   2.361
78954SOL    HW138759   1.411   8.802   2.439
78954SOL    HW238760   1.390   8.756   2.296
78955SOL     OW38761   0.843  11.271   1.132
78955SOL    HW138762   0.813  11.238   1.047
78955SOL    HW238763   0.934  11.296   1.117
78956SOL     OW38764   1.266   8.082   4.472
78956SOL    HW138765   1.188   8.121   4.432
78956SOL    HW238766   1.306   8.030   4.403
78957SOL     OW38767   9.555   7.580   2.893
78957SOL    HW138768   9.622   7.543   2.950
78957SOL    HW238769   9.572   7.540   2.807
78958SOL     OW38770  14.161   0.605   5.907
78958SOL    HW138771  14.086   0.604   5.966
78958SOL    HW238772  14.171   0.514   5.879
78959SOL     OW38773  11.755   0.439   8.007
78959SOL    HW138774  11.826   0.498   7.984
78959SOL    HW238775  11.773   0.360   7.957
78960SOL     OW38776  14.240  11.077  11.990
78960SOL    HW138777  14.260  11.149  11.929
78960SOL    HW238778  14.145  11.075  11.995
78961SOL     OW38779   4.767  13.295  11.661
78961SOL    HW138780   4.715  13.250  11.595
78961SOL    HW238781   4.815  13.225  11.705
78962SOL     OW38782   3.311  11.118   1.586
78962SOL    HW138783   3.246  11.050   1.605
78962SOL    HW238784   3.395  11.071   1.585
78963SOL     OW38785   0.429   3.656  10.671
78963SOL    HW138786   0.487   3.582  10.690
78963SOL    HW238787   0.341   3.617  10.670
78964SOL     OW38788   0.484  13.456  10.278
78964SOL    HW138789   0.440  13.517  10.337
78964SOL    HW238790   0.438  13.373  10.291
78965SOL     OW38791   4.771   2.607  10.156
78965SOL    HW138792   4.802   2.689  10.193
78965SOL    HW238793   4.829   2.541  10.193
78966SOL     OW38794  10.611  10.949   1.918
78966SOL    HW138795  10.674  10.990   1.858
78966SOL    HW238796  10.577  10.875   1.869
78967SOL     OW38797   8.901   4.049   3.655
78967SOL    HW138798   8.951   4.023   3.577
78967SOL    HW238799   8.892   3.969   3.706
78968SOL     OW38800   4.505   9.831  10.541
78968SOL    HW138801   4.545   9.918  10.545
78968SOL    HW238802   4.411   9.847  10.543
78969SOL     OW38803  10.600   6.686   5.169
78969SOL    HW138804  10.646   6.609   5.136
78969SOL    HW238805  10.589   6.743   5.093
78970SOL     OW38806   1.077  13.027  11.880
78970SOL    HW138807   1.142  13.077  11.930
78970SOL    HW238808   1.038  13.091  11.820
78971SOL     OW38809  11.043  12.743  10.739
78971SOL    HW138810  11.051  12.676  10.807
78971SOL    HW238811  11.133  12.770  10.721
78972SOL     OW38812  13.220   6.254  14.699
78972SOL    HW138813  13.153   6.259  14.631
78972SOL    HW238814  13.174   6.275  14.781
78973SOL     OW38815  10.265  11.197  10.006
78973SOL    HW138816  10.232  11.287  10.013
78973SOL    HW238817  10.210  11.148  10.067
78974SOL     OW38818  10.936  10.513   3.441
78974SOL    HW138819  10.893  10.429   3.422
78974SOL    HW238820  10.870  10.579   3.420
78975SOL     OW38821  13.351   0.307   6.734
78975SOL    HW138822  13.273   0.262   6.765
78975SOL    HW238823  13.422   0.244   6.747
78976SOL     OW38824   3.728   9.593   4.998
78976SOL    HW138825   3.796   9.636   5.050
78976SOL    HW238826   3.757   9.604   4.907
78977SOL     OW38827   4.176  14.502   9.650
78977SOL    HW138828   4.238  14.527   9.719
78977SOL    HW238829   4.231  14.489   9.572
78978SOL     OW38830   5.963   0.659  12.610
78978SOL    HW138831   6.004   0.733  12.655
78978SOL    HW238832   6.022   0.640  12.537
78979SOL     OW38833   2.244   9.206   8.918
78979SOL    HW138834   2.305   9.273   8.890
78979SOL    HW238835   2.289   9.160   8.989
78980SOL     OW38836   4.336  13.066   1.036
78980SOL    HW138837   4.356  13.159   1.032
78980SOL    HW238838   4.358  13.040   1.125
78981SOL     OW38839  13.801   3.880   7.737
78981SOL    HW138840  13.794   3.818   7.810
78981SOL    HW238841  13.891   3.913   7.743
78982SOL     OW38842   7.278  10.730   4.898
78982SOL    HW138843   7.183  10.735   4.905
78982SOL    HW238844   7.307  10.821   4.896
78983SOL     OW38845  12.598   5.725   3.044
78983SOL    HW138846  12.510   5.690   3.028
78983SOL    HW238847  12.605   5.800   2.984
78984SOL     OW38848   8.371   1.001   0.117
78984SOL    HW138849   8.348   1.033   0.030
78984SOL    HW238850   8.459   1.034   0.133
78985SOL     OW38851   1.416  10.656   8.711
78985SOL    HW138852   1.457  10.589   8.656
78985SOL    HW238853   1.443  10.634   8.800
78986SOL     OW38854   0.317   5.519   2.162
78986SOL    HW138855   0.331   5.611   2.140
78986SOL    HW238856   0.251   5.520   2.231
78987SOL     OW38857  10.793   0.564   5.761
78987SOL    HW138858  10.714   0.518   5.733
78987SOL    HW238859  10.769   0.603   5.845
78988SOL     OW38860   3.207  13.482   6.193
78988SOL    HW138861   3.206  13.573   6.162
78988SOL    HW238862   3.218  13.431   6.113
78989SOL     OW38863   9.971   9.376   7.685
78989SOL    HW138864   9.883   9.375   7.648
78989SOL    HW238865  10.006   9.288   7.669
78990SOL     OW38866  14.085   5.788  10.054
78990SOL    HW138867  14.103   5.749   9.968
78990SOL    HW238868  14.109   5.721  10.117
78991SOL     OW38869   0.708   8.399   9.275
78991SOL    HW138870   0.804   8.391   9.275
78991SOL    HW238871   0.681   8.371   9.362
78992SOL     OW38872  12.849   0.547   8.779
78992SOL    HW138873  12.906   0.476   8.747
78992SOL    HW238874  12.767   0.535   8.731
78993SOL     OW38875  13.098   1.518   6.106
78993SOL    HW138876  13.031   1.526   6.038
78993SOL    HW238877  13.063   1.569   6.180
78994SOL     OW38878   1.756   2.314   6.700
78994SOL    HW138879   1.728   2.352   6.617
78994SOL    HW238880   1.817   2.377   6.737
78995SOL     OW38881   4.132   4.824  10.510
78995SOL    HW138882   4.126   4.784  10.596
78995SOL    HW238883   4.132   4.918  10.527
78996SOL     OW38884   6.144   6.714   6.858
78996SOL    HW138885   6.110   6.772   6.926
78996SOL    HW238886   6.128   6.760   6.776
78997SOL     OW38887  11.489   9.587   4.309
78997SOL    HW138888  11.532   9.664   4.348
78997SOL    HW238889  11.404   9.582   4.353
78998SOL     OW38890  13.927   3.533   7.765
78998SOL    HW138891  13.883   3.478   7.700
78998SOL    HW238892  14.014   3.495   7.774
78999SOL     OW38893   9.641   6.969   7.336
78999SOL    HW138894   9.679   7.003   7.417
78999SOL    HW238895   9.548   6.959   7.355
79000SOL     OW38896  11.377  10.337  13.789
79000SOL    HW138897  11.345  10.364  13.703
79000SOL    HW238898  11.468  10.368  13.792
79001SOL     OW38899  14.337  14.344   2.061
79001SOL    HW138900  14.428  14.362   2.085
79001SOL    HW238901  14.342  14.308   1.972
79002SOL     OW38902   3.194  13.297  11.214
79002SOL    HW138903   3.206  13.213  11.171
79002SOL    HW238904   3.178  13.358  11.141
79003SOL     OW38905  11.830   5.911   4.934
79003SOL    HW138906  11.836   5.944   5.024
79003SOL    HW238907  11.855   5.986   4.879
79004SOL     OW38908   6.260  14.092   3.657
79004SOL    HW138909   6.333  14.121   3.711
79004SOL    HW238910   6.231  14.011   3.698
79005SOL     OW38911   0.797  13.393  10.933
79005SOL    HW138912   0.892  13.385  10.937
79005SOL    HW238913   0.779  13.482  10.964
79006SOL     OW38914  13.526   1.309  11.342
79006SOL    HW138915  13.531   1.400  11.313
79006SOL    HW238916  13.610   1.292  11.384
79007SOL     OW38917   0.348  13.540   0.814
79007SOL    HW138918   0.356  13.613   0.876
79007SOL    HW238919   0.276  13.488   0.849
79008SOL     OW38920   9.307   9.517   7.525
79008SOL    HW138921   9.354   9.441   7.559
79008SOL    HW238922   9.340   9.591   7.576
79009SOL     OW38923   7.793   9.408  13.431
79009SOL    HW138924   7.762   9.347  13.364
79009SOL    HW238925   7.873   9.445  13.394
79010SOL     OW38926   0.912  12.965   9.086
79010SOL    HW138927   0.876  12.884   9.050
79010SOL    HW238928   0.897  12.958   9.181
79011SOL     OW38929   6.702   4.328   8.413
79011SOL    HW138930   6.694   4.256   8.351
79011SOL    HW238931   6.759   4.294   8.482
79012SOL     OW38932   5.034  12.766   0.963
79012SOL    HW138933   5.073  12.846   0.927
79012SOL    HW238934   5.064  12.696   0.904
79013SOL     OW38935  13.700  10.858   9.512
79013SOL    HW138936  13.782  10.858   9.560
79013SOL    HW238937  13.632  10.866   9.579
79014SOL     OW38938   8.511   1.550  11.168
79014SOL    HW138939   8.467   1.617  11.221
79014SOL    HW238940   8.441   1.494  11.136
79015SOL     OW38941  11.700   2.099   4.551
79015SOL    HW138942  11.639   2.148   4.496
79015SOL    HW238943  11.769   2.070   4.492
79016SOL     OW38944   5.594  12.332  12.902
79016SOL    HW138945   5.638  12.404  12.856
79016SOL    HW238946   5.501  12.347  12.888
79017SOL     OW38947   3.545   3.992  13.682
79017SOL    HW138948   3.605   3.979  13.755
79017SOL    HW238949   3.602   4.004  13.606
79018SOL     OW38950  14.520   2.162   8.788
79018SOL    HW138951  14.563   2.154   8.873
79018SOL    HW238952  14.559   2.241   8.749
79019SOL     OW38953  13.680   4.327  13.468
79019SOL    HW138954  13.733   4.406  13.483
79019SOL    HW238955  13.741   4.265  13.428
79020SOL     OW38956  10.758  13.986   4.832
79020SOL    HW138957  10.773  13.921   4.901
79020SOL    HW238958  10.751  13.934   4.752
79021SOL     OW38959   7.234   4.629   5.524
79021SOL    HW138960   7.231   4.685   5.602
79021SOL    HW238961   7.196   4.546   5.552
79022SOL     OW38962   3.824  10.896  10.529
79022SOL    HW138963   3.873  10.899  10.447
79022SOL    HW238964   3.733  10.912  10.504
79023SOL     OW38965  12.800  13.643   0.051
79023SOL    HW138966  12.720  13.670   0.006
79023SOL    HW238967  12.793  13.684   0.138
79024SOL     OW38968   1.476  14.338   4.846
79024SOL    HW138969   1.471  14.266   4.909
79024SOL    HW238970   1.463  14.295   4.761
79025SOL     OW38971   5.751   9.960   0.727
79025SOL    HW138972   5.665   9.934   0.694
79025SOL    HW238973   5.811   9.895   0.691
79026SOL     OW38974  11.441   6.172   4.246
79026SOL    HW138975  11.441   6.265   4.225
79026SOL    HW238976  11.487   6.131   4.173
79027SOL     OW38977   1.366   9.680   0.757
79027SOL    HW138978   1.379   9.606   0.699
79027SOL    HW238979   1.410   9.655   0.838
79028SOL     OW38980   2.690   7.432   7.304
79028SOL    HW138981   2.729   7.345   7.295
79028SOL    HW238982   2.597   7.415   7.322
79029SOL     OW38983  12.776   3.791   1.056
79029SOL    HW138984  12.803   3.718   1.112
79029SOL    HW238985  12.743   3.749   0.976
79030SOL     OW38986  10.051   5.393   1.273
79030SOL    HW138987  10.011   5.374   1.187
79030SOL    HW238988  10.144   5.399   1.255
79031SOL     OW38989  10.280   5.460   1.503
79031SOL    HW138990  10.298   5.367   1.513
79031SOL    HW238991  10.358   5.496   1.461
79032SOL     OW38992  12.899   2.758   0.504
79032SOL    HW138993  12.849   2.676   0.495
79032SOL    HW238994  12.987   2.730   0.528
79033SOL     OW38995  12.120  13.211  12.191
79033SOL    HW138996  12.155  13.159  12.263
79033SOL    HW238997  12.169  13.294  12.196
79034SOL     OW38998  11.674   9.268  12.905
79034SOL    HW138999  11.627   9.225  12.834
79034SOL    HW239000  11.606   9.293  12.968
79035SOL     OW39001   6.698   7.397   3.243
79035SOL    HW139002   6.741   7.386   3.327
79035SOL    HW239003   6.605   7.382   3.260
79036SOL     OW39004   9.624   9.346   6.250
79036SOL    HW139005   9.576   9.264   6.259
79036SOL    HW239006   9.586   9.388   6.173
79037SOL     OW39007   6.485   0.072  14.320
79037SOL    HW139008   6.559   0.052  14.377
79037SOL    HW239009   6.496   0.164  14.297
79038SOL     OW39010  12.900   0.257   5.107
79038SOL    HW139011  12.873   0.166   5.098
79038SOL    HW239012  12.866   0.284   5.192
79039SOL     OW39013   9.854   5.924   4.354
79039SOL    HW139014   9.838   5.834   4.384
79039SOL    HW239015   9.944   5.923   4.322
79040SOL     OW39016   3.466  11.900  11.681
79040SOL    HW139017   3.394  11.842  11.706
79040SOL    HW239018   3.523  11.845  11.627
79041SOL     OW39019   0.892  11.570   2.329
79041SOL    HW139020   0.906  11.479   2.302
79041SOL    HW239021   0.887  11.566   2.425
79042SOL     OW39022  14.869  14.318   7.597
79042SOL    HW139023  14.783  14.310   7.640
79042SOL    HW239024  14.848  14.335   7.505
79043SOL     OW39025   7.013   2.039  14.293
79043SOL    HW139026   7.005   1.972  14.225
79043SOL    HW239027   6.988   2.120  14.248
79044SOL     OW39028   9.183   5.695   3.803
79044SOL    HW139029   9.094   5.661   3.817
79044SOL    HW239030   9.206   5.664   3.716
79045SOL     OW39031   9.611   5.029  13.708
79045SOL    HW139032   9.643   5.092  13.644
79045SOL    HW239033   9.568   5.082  13.775
79046SOL     OW39034  13.569   4.448   7.085
79046SOL    HW139035  13.592   4.461   7.177
79046SOL    HW239036  13.506   4.377   7.086
79047SOL     OW39037  10.710  10.441  11.954
79047SOL    HW139038  10.765  10.395  11.891
79047SOL    HW239039  10.770  10.473  12.021
79048SOL     OW39040   9.357   3.609   1.759
79048SOL    HW139041   9.424   3.574   1.700
79048SOL    HW239042   9.398   3.605   1.845
79049SOL     OW39043   9.251  13.065   9.500
79049SOL    HW139044   9.225  12.981   9.463
79049SOL    HW239045   9.285  13.115   9.426
79050SOL     OW39046   8.713   0.570   9.949
79050SOL    HW139047   8.673   0.485   9.966
79050SOL    HW239048   8.798   0.549   9.910
79051SOL     OW39049   4.496  10.465   4.815
79051SOL    HW139050   4.580  10.443   4.855
79051SOL    HW239051   4.435  10.402   4.852
79052SOL     OW39052  14.498  11.648  11.226
79052SOL    HW139053  14.571  11.595  11.196
79052SOL    HW239054  14.527  11.686  11.309
79053SOL     OW39055  10.928   6.915  12.544
79053SOL    HW139056  10.833   6.908  12.553
79053SOL    HW239057  10.961   6.830  12.572
79054SOL     OW39058  12.016   9.763   0.042
79054SOL    HW139059  12.055   9.811   0.115
79054SOL    HW239060  11.939   9.721   0.080
79055SOL     OW39061   0.801   5.151  12.914
79055SOL    HW139062   0.769   5.082  12.856
79055SOL    HW239063   0.822   5.106  12.996
79056SOL     OW39064   3.127  11.174   8.615
79056SOL    HW139065   3.156  11.174   8.524
79056SOL    HW239066   3.045  11.125   8.614
79057SOL     OW39067   3.018   7.670  11.135
79057SOL    HW139068   2.993   7.644  11.224
79057SOL    HW239069   3.031   7.587  11.089
79058SOL     OW39070  11.424   3.475   6.018
79058SOL    HW139071  11.375   3.440   6.093
79058SOL    HW239072  11.493   3.529   6.057
79059SOL     OW39073   8.896   8.909   1.167
79059SOL    HW139074   8.826   8.959   1.125
79059SOL    HW239075   8.897   8.941   1.257
79060SOL     OW39076   6.633   9.626  11.683
79060SOL    HW139077   6.646   9.534  11.703
79060SOL    HW239078   6.661   9.636  11.592
79061SOL     OW39079   9.818  12.879  12.923
79061SOL    HW139080   9.819  12.791  12.960
79061SOL    HW239081   9.910  12.907  12.924
79062SOL     OW39082   9.371  13.228   6.953
79062SOL    HW139083   9.443  13.165   6.950
79062SOL    HW239084   9.293  13.176   6.933
79063SOL     OW39085   7.428   0.257  13.876
79063SOL    HW139086   7.337   0.275  13.901
79063SOL    HW239087   7.466   0.213  13.953
79064SOL     OW39088  10.802   4.994  14.218
79064SOL    HW139089  10.718   4.956  14.192
79064SOL    HW239090  10.821   4.953  14.302
79065SOL     OW39091   6.956   3.341   6.934
79065SOL    HW139092   7.016   3.270   6.955
79065SOL    HW239093   6.921   3.318   6.847
79066SOL     OW39094  13.425  13.018   2.894
79066SOL    HW139095  13.433  13.101   2.942
79066SOL    HW239096  13.514  12.994   2.871
79067SOL     OW39097   6.310   5.372   2.881
79067SOL    HW139098   6.222   5.387   2.847
79067SOL    HW239099   6.296   5.341   2.971
79068SOL     OW39100   0.112   5.288   4.342
79068SOL    HW139101   0.125   5.362   4.282
79068SOL    HW239102   0.020   5.294   4.367
79069SOL     OW39103  13.450   9.998  11.569
79069SOL    HW139104  13.430  10.078  11.619
79069SOL    HW239105  13.430  10.022  11.478
79070SOL     OW39106   2.471  12.746   7.214
79070SOL    HW139107   2.382  12.711   7.218
79070SOL    HW239108   2.466  12.831   7.257
79071SOL     OW39109  12.701   3.549  13.235
79071SOL    HW139110  12.766   3.604  13.191
79071SOL    HW239111  12.735   3.540  13.325
79072SOL     OW39112  10.110  11.939   0.289
79072SOL    HW139113  10.147  11.985   0.213
79072SOL    HW239114  10.164  11.861   0.298
79073SOL     OW39115   8.250   0.881   9.523
79073SOL    HW139116   8.314   0.950   9.506
79073SOL    HW239117   8.273   0.847   9.610
79074SOL     OW39118   3.108   4.177   0.747
79074SOL    HW139119   3.054   4.130   0.812
79074SOL    HW239120   3.130   4.110   0.682
79075SOL     OW39121  10.766  14.375   0.823
79075SOL    HW139122  10.768  14.378   0.919
79075SOL    HW239123  10.730  14.288   0.803
79076SOL     OW39124  14.540   4.197   3.893
79076SOL    HW139125  14.465   4.189   3.952
79076SOL    HW239126  14.517   4.268   3.833
79077SOL     OW39127  11.367   1.964   1.776
79077SOL    HW139128  11.426   1.963   1.700
79077SOL    HW239129  11.330   1.876   1.779
79078SOL     OW39130   0.622   2.956  11.238
79078SOL    HW139131   0.599   3.015  11.310
79078SOL    HW239132   0.546   2.958  11.180
79079SOL     OW39133   6.506   5.811  10.070
79079SOL    HW139134   6.420   5.796  10.030
79079SOL    HW239135   6.508   5.904  10.089
79080SOL     OW39136  13.834   3.506   6.478
79080SOL    HW139137  13.922   3.467   6.474
79080SOL    HW239138  13.835   3.559   6.558
79081SOL     OW39139   9.501   8.842  10.887
79081SOL    HW139140   9.472   8.870  10.973
79081SOL    HW239141   9.533   8.753  10.900
79082SOL     OW39142   0.395   2.292   6.004
79082SOL    HW139143   0.374   2.375   6.047
79082SOL    HW239144   0.449   2.318   5.929
79083SOL     OW39145   0.984  11.870   5.124
79083SOL    HW139146   0.920  11.825   5.179
79083SOL    HW239147   1.029  11.929   5.184
79084SOL     OW39148   1.000   8.452   1.657
79084SOL    HW139149   1.092   8.478   1.661
79084SOL    HW239150   0.970   8.454   1.747
79085SOL     OW39151   3.614   8.951   3.745
79085SOL    HW139152   3.700   8.913   3.762
79085SOL    HW239153   3.633   9.040   3.715
79086SOL     OW39154   4.196   6.301   6.643
79086SOL    HW139155   4.232   6.217   6.673
79086SOL    HW239156   4.273   6.354   6.623
79087SOL     OW39157   6.801  14.258  12.758
79087SOL    HW139158   6.783  14.240  12.850
79087SOL    HW239159   6.851  14.182  12.728
79088SOL     OW39160  11.532  12.458   6.497
79088SOL    HW139161  11.516  12.367   6.519
79088SOL    HW239162  11.573  12.455   6.410
79089SOL     OW39163   0.072  11.272   0.774
79089SOL    HW139164   0.100  11.182   0.755
79089SOL    HW239165  14.870  11.261   0.820
79090SOL     OW39166   9.740   6.930   7.085
79090SOL    HW139167   9.783   6.845   7.084
79090SOL    HW239168   9.722   6.946   7.178
79091SOL     OW39169   8.122   7.399   7.488
79091SOL    HW139170   8.188   7.376   7.422
79091SOL    HW239171   8.092   7.486   7.462
79092SOL     OW39172   9.312   1.219   2.147
79092SOL    HW139173   9.240   1.277   2.171
79092SOL    HW239174   9.293   1.137   2.191
79093SOL     OW39175  14.560  12.575   8.120
79093SOL    HW139176  14.486  12.626   8.088
79093SOL    HW239177  14.531  12.540   8.204
79094SOL     OW39178  11.208   1.227   4.362
79094SOL    HW139179  11.205   1.206   4.268
79094SOL    HW239180  11.221   1.143   4.405
79095SOL     OW39181   0.454   3.549   0.903
79095SOL    HW139182   0.443   3.553   0.808
79095SOL    HW239183   0.382   3.602   0.937
79096SOL     OW39184   2.308   8.452   4.285
79096SOL    HW139185   2.294   8.542   4.316
79096SOL    HW239186   2.341   8.462   4.196
79097SOL     OW39187  13.289   4.093  11.681
79097SOL    HW139188  13.294   4.043  11.599
79097SOL    HW239189  13.299   4.027  11.750
79098SOL     OW39190  10.759   1.556   4.424
79098SOL    HW139191  10.664   1.547   4.433
79098SOL    HW239192  10.794   1.539   4.511
79099SOL     OW39193   1.106   1.909   9.246
79099SOL    HW139194   1.173   1.922   9.313
79099SOL    HW239195   1.099   1.813   9.238
79100SOL     OW39196   6.149   8.702  11.526
79100SOL    HW139197   6.152   8.798  11.517
79100SOL    HW239198   6.165   8.686  11.619
79101SOL     OW39199   8.406   6.402  12.751
79101SOL    HW139200   8.366   6.314  12.756
79101SOL    HW239201   8.460   6.408  12.829
79102SOL     OW39202   3.729   6.991   5.388
79102SOL    HW139203   3.667   6.988   5.316
79102SOL    HW239204   3.737   6.900   5.417
79103SOL     OW39205   5.735   2.809   5.221
79103SOL    HW139206   5.790   2.816   5.299
79103SOL    HW239207   5.796   2.817   5.147
79104SOL     OW39208   5.199   8.787   9.842
79104SOL    HW139209   5.283   8.813   9.880
79104SOL    HW239210   5.157   8.869   9.819
79105SOL     OW39211   0.731  11.759   5.210
79105SOL    HW139212   0.649  11.713   5.192
79105SOL    HW239213   0.755  11.733   5.299
79106SOL     OW39214   7.868   5.071   5.685
79106SOL    HW139215   7.853   5.098   5.594
79106SOL    HW239216   7.921   4.991   5.678
79107SOL     OW39217   5.549   6.480   3.938
79107SOL    HW139218   5.518   6.570   3.929
79107SOL    HW239219   5.623   6.474   3.877
79108SOL     OW39220   1.164   1.398  10.633
79108SOL    HW139221   1.158   1.311  10.672
79108SOL    HW239222   1.074   1.425  10.618
79109SOL     OW39223   6.128  10.024   0.245
79109SOL    HW139224   6.097   9.966   0.315
79109SOL    HW239225   6.202  10.071   0.285
79110SOL     OW39226   3.680   7.508   0.098
79110SOL    HW139227   3.708   7.586   0.050
79110SOL    HW239228   3.585   7.517   0.104
79111SOL     OW39229  11.658   7.078  10.438
79111SOL    HW139230  11.617   7.150  10.390
79111SOL    HW239231  11.663   7.109  10.528
79112SOL     OW39232   6.528   5.367  13.658
79112SOL    HW139233   6.454   5.326  13.702
79112SOL    HW239234   6.535   5.322  13.574
79113SOL     OW39235   9.166   7.209   4.080
79113SOL    HW139236   9.183   7.303   4.079
79113SOL    HW239237   9.247   7.170   4.114
79114SOL     OW39238   3.628   5.786   1.837
79114SOL    HW139239   3.635   5.845   1.762
79114SOL    HW239240   3.628   5.844   1.913
79115SOL     OW39241  12.468   6.738   8.120
79115SOL    HW139242  12.408   6.804   8.155
79115SOL    HW239243  12.414   6.660   8.108
79116SOL     OW39244  11.913   2.281   5.810
79116SOL    HW139245  11.906   2.348   5.878
79116SOL    HW239246  11.990   2.307   5.759
79117SOL     OW39247   4.103   9.187   9.542
79117SOL    HW139248   4.104   9.275   9.505
79117SOL    HW239249   4.055   9.196   9.624
79118SOL     OW39250  11.566   0.105   6.592
79118SOL    HW139251  11.556   0.154   6.510
79118SOL    HW239252  11.602   0.169   6.653
79119SOL     OW39253   4.613   4.048   8.133
79119SOL    HW139254   4.579   3.973   8.084
79119SOL    HW239255   4.618   4.118   8.068
79120SOL     OW39256   2.752   9.697   0.697
79120SOL    HW139257   2.846   9.708   0.681
79120SOL    HW239258   2.712   9.705   0.610
79121SOL     OW39259   4.455   6.541   7.543
79121SOL    HW139260   4.492   6.519   7.629
79121SOL    HW239261   4.524   6.519   7.481
79122SOL     OW39262   2.541   7.579   5.691
79122SOL    HW139263   2.486   7.558   5.766
79122SOL    HW239264   2.481   7.576   5.616
79123SOL     OW39265  13.024   5.832   3.943
79123SOL    HW139266  13.020   5.740   3.971
79123SOL    HW239267  12.934   5.854   3.921
79124SOL     OW39268   5.578   0.459   0.618
79124SOL    HW139269   5.630   0.396   0.668
79124SOL    HW239270   5.489   0.423   0.619
79125SOL     OW39271  14.766   9.028   9.991
79125SOL    HW139272  14.846   9.051   9.944
79125SOL    HW239273  14.797   8.988  10.073
79126SOL     OW39274  12.028   6.578  13.648
79126SOL    HW139275  12.045   6.515  13.717
79126SOL    HW239276  12.102   6.639  13.652
79127SOL     OW39277   5.253   9.391   5.852
79127SOL    HW139278   5.248   9.405   5.757
79127SOL    HW239279   5.282   9.301   5.862
79128SOL     OW39280   0.864   6.477   4.532
79128SOL    HW139281   0.834   6.475   4.623
79128SOL    HW239282   0.898   6.389   4.517
79129SOL     OW39283   7.739   6.365   5.201
79129SOL    HW139284   7.746   6.439   5.261
79129SOL    HW239285   7.723   6.404   5.115
79130SOL     OW39286  14.263   9.512  13.233
79130SOL    HW139287  14.321   9.588  13.223
79130SOL    HW239288  14.255   9.501  13.328
79131SOL     OW39289  14.591  12.711  14.744
79131SOL    HW139290  14.580  12.654  14.668
79131SOL    HW239291  14.619  12.652  14.814
79132SOL     OW39292   2.614   5.917   2.694
79132SOL    HW139293   2.668   5.994   2.680
79132SOL    HW239294   2.526   5.951   2.707
79133SOL     OW39295   9.640  10.160   3.869
79133SOL    HW139296   9.569  10.198   3.920
79133SOL    HW239297   9.596  10.102   3.806
79134SOL     OW39298  10.382  13.445  12.605
79134SOL    HW139299  10.430  13.364  12.588
79134SOL    HW239300  10.366  13.482  12.518
79135SOL     OW39301  14.821   4.374   0.671
79135SOL    HW139302   0.003   4.307   0.646
79135SOL    HW239303  14.783   4.342   0.753
79136SOL     OW39304  10.773   4.642   6.914
79136SOL    HW139305  10.860   4.613   6.885
79136SOL    HW239306  10.764   4.607   7.002
79137SOL     OW39307   7.008   5.469  12.736
79137SOL    HW139308   6.964   5.552  12.754
79137SOL    HW239309   7.045   5.444  12.821
79138SOL     OW39310   4.322   5.514   5.684
79138SOL    HW139311   4.340   5.553   5.770
79138SOL    HW239312   4.290   5.426   5.705
79139SOL     OW39313   1.159   9.072   2.973
79139SOL    HW139314   1.073   9.114   2.977
79139SOL    HW239315   1.221   9.145   2.977
79140SOL     OW39316   2.109   1.036  10.407
79140SOL    HW139317   2.052   1.037  10.330
79140SOL    HW239318   2.105   1.126  10.441
79141SOL     OW39319  12.225   5.709  10.632
79141SOL    HW139320  12.278   5.748  10.562
79141SOL    HW239321  12.274   5.631  10.657
79142SOL     OW39322   7.761   2.875  13.661
79142SOL    HW139323   7.798   2.958  13.692
79142SOL    HW239324   7.824   2.809  13.688
79143SOL     OW39325   7.743   6.635   9.491
79143SOL    HW139326   7.791   6.589   9.422
79143SOL    HW239327   7.664   6.668   9.448
79144SOL     OW39328   0.118   6.790   1.053
79144SOL    HW139329   0.182   6.742   1.000
79144SOL    HW239330   0.082   6.855   0.992
79145SOL     OW39331   9.077   4.490   9.957
79145SOL    HW139332   9.167   4.461   9.970
79145SOL    HW239333   9.076   4.579   9.993
79146SOL     OW39334   4.470  13.214   7.387
79146SOL    HW139335   4.467  13.307   7.412
79146SOL    HW239336   4.530  13.211   7.313
79147SOL     OW39337  13.312   8.530   7.900
79147SOL    HW139338  13.262   8.452   7.877
79147SOL    HW239339  13.251   8.582   7.953
79148SOL     OW39340   7.767   9.899   0.200
79148SOL    HW139341   7.741   9.820   0.246
79148SOL    HW239342   7.691   9.921   0.145
79149SOL     OW39343   0.796  14.286   0.452
79149SOL    HW139344   0.817  14.275   0.545
79149SOL    HW239345   0.713  14.334   0.452
79150SOL     OW39346   0.987   4.294   8.350
79150SOL    HW139347   0.995   4.269   8.442
79150SOL    HW239348   1.050   4.366   8.340
79151SOL     OW39349   2.380   1.698  14.522
79151SOL    HW139350   2.326   1.620  14.507
79151SOL    HW239351   2.431   1.707  14.442
79152SOL     OW39352   1.605  11.206  13.748
79152SOL    HW139353   1.525  11.204  13.801
79152SOL    HW239354   1.676  11.213  13.813
79153SOL     OW39355   2.077  10.480   3.332
79153SOL    HW139356   2.006  10.523   3.379
79153SOL    HW239357   2.108  10.545   3.270
79154SOL     OW39358  10.527  14.268   8.181
79154SOL    HW139359  10.546  14.209   8.253
79154SOL    HW239360  10.454  14.321   8.213
79155SOL     OW39361   5.371   8.839   7.004
79155SOL    HW139362   5.341   8.920   6.961
79155SOL    HW239363   5.448   8.812   6.954
79156SOL     OW39364   2.416   7.953  13.589
79156SOL    HW139365   2.373   7.972  13.672
79156SOL    HW239366   2.503   7.990  13.598
79157SOL     OW39367  14.616  14.876  13.133
79157SOL    HW139368  14.622  14.781  13.147
79157SOL    HW239369  14.541   0.004  13.074
79158SOL     OW39370   5.097  14.104   5.556
79158SOL    HW139371   5.043  14.177   5.525
79158SOL    HW239372   5.034  14.042   5.594
79159SOL     OW39373  13.430   0.521   6.901
79159SOL    HW139374  13.350   0.565   6.872
79159SOL    HW239375  13.406   0.428   6.905
79160SOL     OW39376  11.277  11.008   6.280
79160SOL    HW139377  11.285  10.913   6.292
79160SOL    HW239378  11.233  11.038   6.359
79161SOL     OW39379  14.476   5.945  14.748
79161SOL    HW139380  14.448   5.855  14.763
79161SOL    HW239381  14.449   5.964  14.659
79162SOL     OW39382   2.531  12.285   4.180
79162SOL    HW139383   2.604  12.341   4.152
79162SOL    HW239384   2.486  12.262   4.098
79163SOL     OW39385   1.314   7.479   4.897
79163SOL    HW139386   1.305   7.384   4.890
79163SOL    HW239387   1.378   7.502   4.830
79164SOL     OW39388   4.153   7.900  13.071
79164SOL    HW139389   4.233   7.855  13.098
79164SOL    HW239390   4.090   7.829  13.054
79165SOL     OW39391   4.866   4.897   3.504
79165SOL    HW139392   4.807   4.821   3.502
79165SOL    HW239393   4.818   4.963   3.554
79166SOL     OW39394   8.318   9.440   8.382
79166SOL    HW139395   8.407   9.411   8.401
79166SOL    HW239396   8.325   9.485   8.298
79167SOL     OW39397   1.696  13.606  11.177
79167SOL    HW139398   1.739  13.594  11.093
79167SOL    HW239399   1.744  13.679  11.218
79168SOL     OW39400   5.091   8.664   2.917
79168SOL    HW139401   5.002   8.629   2.916
79168SOL    HW239402   5.105   8.698   2.829
79169SOL     OW39403   1.134  10.085  14.871
79169SOL    HW139404   1.072  10.156   0.006
79169SOL    HW239405   1.216  10.129  14.848
79170SOL     OW39406   6.070   9.708   7.650
79170SOL    HW139407   6.099   9.657   7.573
79170SOL    HW239408   6.143   9.702   7.712
79171SOL     OW39409   5.080  12.657  11.753
79171SOL    HW139410   5.098  12.578  11.701
79171SOL    HW239411   5.105  12.634  11.842
79172SOL     OW39412   2.891   2.459   1.263
79172SOL    HW139413   2.926   2.507   1.187
79172SOL    HW239414   2.797   2.454   1.247
79173SOL     OW39415  13.065   2.195   6.139
79173SOL    HW139416  13.015   2.188   6.221
79173SOL    HW239417  13.133   2.260   6.158
79174SOL     OW39418  11.268   6.927   5.485
79174SOL    HW139419  11.302   6.940   5.396
79174SOL    HW239420  11.176   6.903   5.471
79175SOL     OW39421   5.512   7.451   9.232
79175SOL    HW139422   5.485   7.521   9.172
79175SOL    HW239423   5.483   7.481   9.318
79176SOL     OW39424  11.852  14.630   5.594
79176SOL    HW139425  11.881  14.612   5.505
79176SOL    HW239426  11.775  14.685   5.584
79177SOL     OW39427  11.511   8.740  11.235
79177SOL    HW139428  11.451   8.784  11.175
79177SOL    HW239429  11.457   8.719  11.311
79178SOL     OW39430   1.445  11.405  10.700
79178SOL    HW139431   1.437  11.310  10.706
79178SOL    HW239432   1.512  11.427  10.764
79179SOL     OW39433   1.503  11.704  12.746
79179SOL    HW139434   1.580  11.732  12.695
79179SOL    HW239435   1.503  11.609  12.738
79180SOL     OW39436  14.227   8.732   6.695
79180SOL    HW139437  14.163   8.693   6.634
79180SOL    HW239438  14.281   8.658   6.723
79181SOL     OW39439  10.451   2.733  11.541
79181SOL    HW139440  10.384   2.666  11.540
79181SOL    HW239441  10.448   2.768  11.630
79182SOL     OW39442   7.051   3.444  14.305
79182SOL    HW139443   6.975   3.501  14.294
79182SOL    HW239444   7.122   3.491  14.262
79183SOL     OW39445   9.393   4.660   5.535
79183SOL    HW139446   9.472   4.649   5.482
79183SOL    HW239447   9.337   4.587   5.511
79184SOL     OW39448   6.696   0.366   0.769
79184SOL    HW139449   6.731   0.376   0.858
79184SOL    HW239450   6.719   0.448   0.726
79185SOL     OW39451   0.559   0.499   7.214
79185SOL    HW139452   0.623   0.445   7.168
79185SOL    HW239453   0.596   0.587   7.214
79186SOL     OW39454   7.345   4.740  10.887
79186SOL    HW139455   7.341   4.833  10.865
79186SOL    HW239456   7.265   4.723  10.936
79187SOL     OW39457  13.826  14.844   2.225
79187SOL    HW139458  13.820  14.749   2.220
79187SOL    HW239459  13.741  14.875   2.195
79188SOL     OW39460   4.959   0.116   6.130
79188SOL    HW139461   4.891   0.176   6.100
79188SOL    HW239462   4.985   0.068   6.052
79189SOL     OW39463   2.861   5.160   6.991
79189SOL    HW139464   2.900   5.122   7.070
79189SOL    HW239465   2.839   5.085   6.936
79190SOL     OW39466  12.299   4.619  11.305
79190SOL    HW139467  12.283   4.681  11.233
79190SOL    HW239468  12.343   4.671  11.372
79191SOL     OW39469  14.016   4.248   0.988
79191SOL    HW139470  14.054   4.186   1.051
79191SOL    HW239471  13.931   4.271   1.026
79192SOL     OW39472  10.739   6.056  14.259
79192SOL    HW139473  10.648   6.062  14.287
79192SOL    HW239474  10.789   6.092  14.333
79193SOL     OW39475   3.651  10.834   6.603
79193SOL    HW139476   3.583  10.798   6.546
79193SOL    HW239477   3.695  10.758   6.640
79194SOL     OW39478   6.993  11.687   4.941
79194SOL    HW139479   6.972  11.596   4.961
79194SOL    HW239480   6.993  11.731   5.026
79195SOL     OW39481   8.549   1.838   5.869
79195SOL    HW139482   8.585   1.819   5.955
79195SOL    HW239483   8.605   1.908   5.834
79196SOL     OW39484  10.682   3.718  11.992
79196SOL    HW139485  10.760   3.667  12.013
79196SOL    HW239486  10.660   3.693  11.902
79197SOL     OW39487   2.062   4.689   7.934
79197SOL    HW139488   2.139   4.661   7.983
79197SOL    HW239489   2.011   4.609   7.921
79198SOL     OW39490   8.314  10.479  12.149
79198SOL    HW139491   8.280  10.390  12.158
79198SOL    HW239492   8.333  10.508  12.238
79199SOL     OW39493   4.246  12.453  11.967
79199SOL    HW139494   4.307  12.526  11.962
79199SOL    HW239495   4.295  12.378  11.933
79200SOL     OW39496   9.623   9.302  11.089
79200SOL    HW139497   9.555   9.254  11.135
79200SOL    HW239498   9.661   9.238  11.028
79201SOL     OW39499  11.444  13.786   2.926
79201SOL    HW139500  11.467  13.867   2.972
79201SOL    HW239501  11.510  13.778   2.858
79202SOL     OW39502   9.130   5.008   4.966
79202SOL    HW139503   9.157   5.031   4.877
79202SOL    HW239504   9.041   5.043   4.974
79203SOL     OW39505  14.296  11.008   2.211
79203SOL    HW139506  14.223  11.032   2.155
79203SOL    HW239507  14.257  10.986   2.295
79204SOL     OW39508   9.701  10.222  10.945
79204SOL    HW139509   9.792  10.194  10.939
79204SOL    HW239510   9.654  10.144  10.974
79205SOL     OW39511   0.401   0.855  13.305
79205SOL    HW139512   0.319   0.894  13.275
79205SOL    HW239513   0.443   0.822  13.226
79206SOL     OW39514   5.739   1.015  13.928
79206SOL    HW139515   5.719   1.075  13.999
79206SOL    HW239516   5.831   0.992  13.940
79207SOL     OW39517   7.976   8.544   9.445
79207SOL    HW139518   7.944   8.628   9.478
79207SOL    HW239519   7.919   8.479   9.485
79208SOL     OW39520   4.962  13.441  14.456
79208SOL    HW139521   4.993  13.516  14.405
79208SOL    HW239522   4.889  13.476  14.508
79209SOL     OW39523   6.645  11.691  11.707
79209SOL    HW139524   6.670  11.782  11.689
79209SOL    HW239525   6.701  11.639  11.648
79210SOL     OW39526   0.173  10.053  12.811
79210SOL    HW139527   0.232  10.053  12.886
79210SOL    HW239528   0.170  10.144  12.783
79211SOL     OW39529   0.496   7.774  14.866
79211SOL    HW139530   0.554   7.824   0.041
79211SOL    HW239531   0.525   7.683  14.874
79212SOL     OW39532  10.557   5.468  14.807
79212SOL    HW139533  10.550   5.549  14.857
79212SOL    HW239534  10.590   5.404  14.869
79213SOL     OW39535   3.343  14.414   4.455
79213SOL    HW139536   3.358  14.503   4.488
79213SOL    HW239537   3.317  14.364   4.532
79214SOL     OW39538   0.277   9.915   9.744
79214SOL    HW139539   0.269   9.825   9.776
79214SOL    HW239540   0.299   9.905   9.652
79215SOL     OW39541  10.508   1.997  11.491
79215SOL    HW139542  10.590   2.021  11.448
79215SOL    HW239543  10.514   1.903  11.503
79216SOL     OW39544   3.840   1.255  11.159
79216SOL    HW139545   3.819   1.163  11.167
79216SOL    HW239546   3.889   1.262  11.076
79217SOL     OW39547   6.004  14.010   4.255
79217SOL    HW139548   6.036  13.926   4.288
79217SOL    HW239549   6.078  14.069   4.264
79218SOL     OW39550   0.515   3.952   8.094
79218SOL    HW139551   0.578   3.893   8.053
79218SOL    HW239552   0.519   3.930   8.187
79219SOL     OW39553  10.378  10.757   2.663
79219SOL    HW139554  10.351  10.666   2.646
79219SOL    HW239555  10.388  10.796   2.576
79220SOL     OW39556   0.419   0.548   6.603
79220SOL    HW139557   0.362   0.472   6.614
79220SOL    HW239558   0.374   0.618   6.651
79221SOL     OW39559   3.485  11.968   8.626
79221SOL    HW139560   3.534  11.902   8.576
79221SOL    HW239561   3.488  12.046   8.572
79222SOL     OW39562   0.447   0.705  12.579
79222SOL    HW139563   0.462   0.800  12.580
79222SOL    HW239564   0.497   0.673  12.504
79223SOL     OW39565   1.660   0.509   1.942
79223SOL    HW139566   1.638   0.421   1.975
79223SOL    HW239567   1.737   0.535   1.991
79224SOL     OW39568  12.329   6.262   8.049
79224SOL    HW139569  12.362   6.174   8.066
79224SOL    HW239570  12.296   6.257   7.959
79225SOL     OW39571   7.803  12.633   0.651
79225SOL    HW139572   7.818  12.644   0.557
79225SOL    HW239573   7.781  12.540   0.661
79226SOL     OW39574   3.764   1.884   8.487
79226SOL    HW139575   3.726   1.909   8.571
79226SOL    HW239576   3.699   1.824   8.449
79227SOL     OW39577  11.203  12.405   1.067
79227SOL    HW139578  11.204  12.402   0.971
79227SOL    HW239579  11.116  12.437   1.089
79228SOL     OW39580  13.484   6.194  13.331
79228SOL    HW139581  13.398   6.152  13.334
79228SOL    HW239582  13.542   6.132  13.375
79229SOL     OW39583   7.986   3.573   4.713
79229SOL    HW139584   7.976   3.497   4.770
79229SOL    HW239585   8.065   3.616   4.745
79230SOL     OW39586   6.458   5.254   2.376
79230SOL    HW139587   6.430   5.245   2.285
79230SOL    HW239588   6.534   5.197   2.384
79231SOL     OW39589   1.967   4.520  10.630
79231SOL    HW139590   2.002   4.526  10.541
79231SOL    HW239591   1.878   4.554  10.623
79232SOL     OW39592   9.639   7.211   3.830
79232SOL    HW139593   9.721   7.202   3.877
79232SOL    HW239594   9.647   7.294   3.782
79233SOL     OW39595   8.720   1.644  13.081
79233SOL    HW139596   8.764   1.615  13.001
79233SOL    HW239597   8.787   1.637  13.149
79234SOL     OW39598  14.355   7.931  10.195
79234SOL    HW139599  14.320   7.985  10.267
79234SOL    HW239600  14.332   7.979  10.116
79235SOL     OW39601  13.499  11.162   1.831
79235SOL    HW139602  13.443  11.140   1.757
79235SOL    HW239603  13.454  11.233   1.876
79236SOL     OW39604  14.344  14.007   3.494
79236SOL    HW139605  14.370  14.097   3.512
79236SOL    HW239606  14.253  14.002   3.525
79237SOL     OW39607   6.722  10.464   4.923
79237SOL    HW139608   6.763  10.477   4.838
79237SOL    HW239609   6.786  10.412   4.973
79238SOL     OW39610  12.107   0.636   2.428
79238SOL    HW139611  12.128   0.632   2.335
79238SOL    HW239612  12.044   0.708   2.436
79239SOL     OW39613   6.800  13.043   7.390
79239SOL    HW139614   6.750  12.962   7.391
79239SOL    HW239615   6.875  13.025   7.334
79240SOL     OW39616  10.797   5.345  10.587
79240SOL    HW139617  10.860   5.316  10.653
79240SOL    HW239618  10.771   5.266  10.541
79241SOL     OW39619  11.356   2.527   3.478
79241SOL    HW139620  11.352   2.581   3.557
79241SOL    HW239621  11.380   2.439   3.510
79242SOL     OW39622   3.454  12.786  14.126
79242SOL    HW139623   3.515  12.739  14.069
79242SOL    HW239624   3.510  12.825  14.193
79243SOL     OW39625   2.815  13.798  13.633
79243SOL    HW139626   2.907  13.802  13.608
79243SOL    HW239627   2.772  13.862  13.576
79244SOL     OW39628   9.052   6.817  12.984
79244SOL    HW139629   8.985   6.815  12.916
79244SOL    HW239630   9.126   6.861  12.942
79245SOL     OW39631   4.398   0.199  10.363
79245SOL    HW139632   4.421   0.141  10.435
79245SOL    HW239633   4.411   0.147  10.284
79246SOL     OW39634  13.189   2.499  14.347
79246SOL    HW139635  13.155   2.515  14.435
79246SOL    HW239636  13.122   2.534  14.289
79247SOL     OW39637   1.457   7.470  13.671
79247SOL    HW139638   1.376   7.521  13.671
79247SOL    HW239639   1.455   7.422  13.753
79248SOL     OW39640  14.541   0.258   5.331
79248SOL    HW139641  14.572   0.290   5.246
79248SOL    HW239642  14.460   0.212   5.311
79249SOL     OW39643   3.659   2.748   7.835
79249SOL    HW139644   3.714   2.729   7.759
79249SOL    HW239645   3.667   2.843   7.846
79250SOL     OW39646   3.747   0.565  10.254
79250SOL    HW139647   3.826   0.533  10.209
79250SOL    HW239648   3.735   0.654  10.220
79251SOL     OW39649   6.209   0.046   3.464
79251SOL    HW139650   6.264   0.088   3.398
79251SOL    HW239651   6.185   0.117   3.524
79252SOL     OW39652   3.150  12.953   1.279
79252SOL    HW139653   3.069  12.976   1.234
79252SOL    HW239654   3.133  12.866   1.316
79253SOL     OW39655  10.039   3.812   1.854
79253SOL    HW139656  10.064   3.724   1.824
79253SOL    HW239657  10.118   3.848   1.892
79254SOL     OW39658  12.223   4.862  11.482
79254SOL    HW139659  12.300   4.812  11.510
79254SOL    HW239660  12.258   4.947  11.455
79255SOL     OW39661  14.296   8.978   9.649
79255SOL    HW139662  14.330   9.036   9.718
79255SOL    HW239663  14.337   9.010   9.569
79256SOL     OW39664   9.066   1.456  14.846
79256SOL    HW139665   8.999   1.388  14.846
79256SOL    HW239666   9.039   1.516   0.034
79257SOL     OW39667   8.200   8.291  11.263
79257SOL    HW139668   8.150   8.212  11.283
79257SOL    HW239669   8.283   8.258  11.226
79258SOL     OW39670   0.383   9.872   2.952
79258SOL    HW139671   0.410   9.832   3.034
79258SOL    HW239672   0.423   9.959   2.953
79259SOL     OW39673   1.948   7.606   6.005
79259SOL    HW139674   1.994   7.678   6.048
79259SOL    HW239675   1.918   7.642   5.922
79260SOL     OW39676  12.244  12.882   7.934
79260SOL    HW139677  12.166  12.827   7.925
79260SOL    HW239678  12.230  12.954   7.873
79261SOL     OW39679   8.417   5.606   3.586
79261SOL    HW139680   8.350   5.538   3.589
79261SOL    HW239681   8.368   5.689   3.589
79262SOL     OW39682   6.113  11.593   6.718
79262SOL    HW139683   6.020  11.611   6.728
79262SOL    HW239684   6.157  11.671   6.753
79263SOL     OW39685   0.340   1.574   5.644
79263SOL    HW139686   0.382   1.660   5.632
79263SOL    HW239687   0.331   1.566   5.739
79264SOL     OW39688   9.693  12.110   4.895
79264SOL    HW139689   9.660  12.030   4.936
79264SOL    HW239690   9.788  12.097   4.891
79265SOL     OW39691   8.468   9.564   3.945
79265SOL    HW139692   8.448   9.640   3.999
79265SOL    HW239693   8.392   9.506   3.955
79266SOL     OW39694   8.797   9.631  11.973
79266SOL    HW139695   8.759   9.628  11.885
79266SOL    HW239696   8.891   9.642  11.957
79267SOL     OW39697  13.860   9.760   5.280
79267SOL    HW139698  13.785   9.758   5.340
79267SOL    HW239699  13.827   9.720   5.200
79268SOL     OW39700  14.332   2.088   3.918
79268SOL    HW139701  14.418   2.128   3.932
79268SOL    HW239702  14.330   2.012   3.976
79269SOL     OW39703   0.298   0.225   4.679
79269SOL    HW139704   0.350   0.275   4.742
79269SOL    HW239705   0.262   0.152   4.730
79270SOL     OW39706   1.201  11.879  12.534
79270SOL    HW139707   1.211  11.878  12.629
79270SOL    HW239708   1.117  11.923  12.519
79271SOL     OW39709   6.560   3.832  14.860
79271SOL    HW139710   6.570   3.926  14.872
79271SOL    HW239711   6.474   3.813   0.015
79272SOL     OW39712  12.433  10.540   3.776
79272SOL    HW139713  12.399  10.457   3.744
79272SOL    HW239714  12.528  10.533   3.767
79273SOL     OW39715  13.132   0.389  13.143
79273SOL    HW139716  13.222   0.359  13.130
79273SOL    HW239717  13.132   0.427  13.231
79274SOL     OW39718  12.131   7.569   3.515
79274SOL    HW139719  12.137   7.479   3.546
79274SOL    HW239720  12.073   7.565   3.439
79275SOL     OW39721   8.944  11.953   2.342
79275SOL    HW139722   8.979  11.876   2.298
79275SOL    HW239723   8.975  12.027   2.290
79276SOL     OW39724  11.580   6.767   0.300
79276SOL    HW139725  11.630   6.842   0.267
79276SOL    HW239726  11.598   6.697   0.237
79277SOL     OW39727   3.765   0.214  14.519
79277SOL    HW139728   3.758   0.229  14.424
79277SOL    HW239729   3.775   0.301  14.556
79278SOL     OW39730   8.028   8.504   1.534
79278SOL    HW139731   7.942   8.541   1.513
79278SOL    HW239732   8.061   8.471   1.450
79279SOL     OW39733  11.496  13.218  12.265
79279SOL    HW139734  11.536  13.207  12.351
79279SOL    HW239735  11.523  13.140  12.216
79280SOL     OW39736   9.589   7.585   7.662
79280SOL    HW139737   9.660   7.568   7.600
79280SOL    HW239738   9.632   7.584   7.748
79281SOL     OW39739  12.565   2.923   8.944
79281SOL    HW139740  12.480   2.962   8.964
79281SOL    HW239741  12.619   2.997   8.914
79282SOL     OW39742  14.617  14.062   3.894
79282SOL    HW139743  14.556  14.062   3.820
79282SOL    HW239744  14.598  14.144   3.940
79283SOL     OW39745  10.437   5.580  12.803
79283SOL    HW139746  10.422   5.637  12.879
79283SOL    HW239747  10.413   5.493  12.835
79284SOL     OW39748  13.032   8.632   6.911
79284SOL    HW139749  12.980   8.564   6.868
79284SOL    HW239750  13.066   8.590   6.990
79285SOL     OW39751  11.256   4.984   7.241
79285SOL    HW139752  11.181   5.016   7.292
79285SOL    HW239753  11.329   5.039   7.269
79286SOL     OW39754   5.282   0.020  12.288
79286SOL    HW139755   5.209  14.846  12.313
79286SOL    HW239756   5.249   0.109  12.299
79287SOL     OW39757   7.122   3.572   6.231
79287SOL    HW139758   7.201   3.548   6.183
79287SOL    HW239759   7.139   3.542   6.320
79288SOL     OW39760   7.580   4.068   4.288
79288SOL    HW139761   7.651   4.012   4.320
79288SOL    HW239762   7.581   4.055   4.193
79289SOL     OW39763   3.546   0.739  12.506
79289SOL    HW139764   3.578   0.750  12.596
79289SOL    HW239765   3.471   0.799  12.501
79290SOL     OW39766  14.785   8.166   0.450
79290SOL    HW139767  14.831   8.186   0.369
79290SOL    HW239768  14.844   8.196   0.519
79291SOL     OW39769  14.287  11.190   7.984
79291SOL    HW139770  14.215  11.192   8.048
79291SOL    HW239771  14.316  11.281   7.979
79292SOL     OW39772   5.334   4.843   6.586
79292SOL    HW139773   5.391   4.918   6.604
79292SOL    HW239774   5.345   4.785   6.661
79293SOL     OW39775   9.863   0.061  12.954
79293SOL    HW139776   9.833   0.077  13.043
79293SOL    HW239777   9.876   0.148  12.917
79294SOL     OW39778  11.103   1.680  12.336
79294SOL    HW139779  11.134   1.634  12.414
79294SOL    HW239780  11.088   1.611  12.271
79295SOL     OW39781  13.901  11.670   4.517
79295SOL    HW139782  13.845  11.664   4.440
79295SOL    HW239783  13.981  11.712   4.486
79296SOL     OW39784  14.154  13.511   8.167
79296SOL    HW139785  14.162  13.565   8.088
79296SOL    HW239786  14.115  13.570   8.231
79297SOL     OW39787  12.394   1.359  12.544
79297SOL    HW139788  12.353   1.383  12.627
79297SOL    HW239789  12.355   1.418  12.480
79298SOL     OW39790   0.209  13.646  11.908
79298SOL    HW139791   0.249  13.708  11.969
79298SOL    HW239792   0.271  13.573  11.903
79299SOL     OW39793   2.453   4.139  13.255
79299SOL    HW139794   2.375   4.177  13.215
79299SOL    HW239795   2.424   4.108  13.340
79300SOL     OW39796   5.290   5.031   8.611
79300SOL    HW139797   5.256   4.942   8.617
79300SOL    HW239798   5.245   5.079   8.680
79301SOL     OW39799   4.272   0.684   7.921
79301SOL    HW139800   4.194   0.680   7.866
79301SOL    HW239801   4.337   0.730   7.867
79302SOL     OW39802   7.715  11.755   2.900
79302SOL    HW139803   7.691  11.718   2.815
79302SOL    HW239804   7.810  11.744   2.905
79303SOL     OW39805   5.891   6.933  12.021
79303SOL    HW139806   5.806   6.938  12.065
79303SOL    HW239807   5.927   7.022  12.029
79304SOL     OW39808  13.537   3.645   2.632
79304SOL    HW139809  13.567   3.581   2.696
79304SOL    HW239810  13.563   3.730   2.668
79305SOL     OW39811   2.617   8.868   9.873
79305SOL    HW139812   2.536   8.913   9.896
79305SOL    HW239813   2.608   8.781   9.911
79306SOL     OW39814   2.655   4.573   1.246
79306SOL    HW139815   2.565   4.598   1.227
79306SOL    HW239816   2.702   4.590   1.164
79307SOL     OW39817   8.116  10.544   6.603
79307SOL    HW139818   8.197  10.496   6.585
79307SOL    HW239819   8.049  10.497   6.552
79308SOL     OW39820   5.524   2.784   7.582
79308SOL    HW139821   5.516   2.737   7.499
79308SOL    HW239822   5.490   2.872   7.564
79309SOL     OW39823   3.031   7.585   8.974
79309SOL    HW139824   2.998   7.665   9.013
79309SOL    HW239825   3.006   7.516   9.035
79310SOL     OW39826   3.574  10.592   9.759
79310SOL    HW139827   3.540  10.533   9.827
79310SOL    HW239828   3.541  10.555   9.677
79311SOL     OW39829   1.730  14.132  12.190
79311SOL    HW139830   1.725  14.224  12.163
79311SOL    HW239831   1.646  14.095  12.163
79312SOL     OW39832  11.792   4.552  11.989
79312SOL    HW139833  11.716   4.531  12.044
79312SOL    HW239834  11.777   4.642  11.961
79313SOL     OW39835   3.290  11.674   6.780
79313SOL    HW139836   3.315  11.613   6.711
79313SOL    HW239837   3.370  11.688   6.831
79314SOL     OW39838   8.505  13.433   5.690
79314SOL    HW139839   8.540  13.507   5.738
79314SOL    HW239840   8.418  13.462   5.662
79315SOL     OW39841   5.230   6.404   5.864
79315SOL    HW139842   5.263   6.337   5.804
79315SOL    HW239843   5.299   6.470   5.866
79316SOL     OW39844   6.682   8.786  12.344
79316SOL    HW139845   6.768   8.806  12.383
79316SOL    HW239846   6.670   8.693  12.360
79317SOL     OW39847  14.081  12.716  11.715
79317SOL    HW139848  14.020  12.667  11.771
79317SOL    HW239849  14.149  12.653  11.692
79318SOL     OW39850   4.267   0.901   4.309
79318SOL    HW139851   4.231   0.845   4.241
79318SOL    HW239852   4.204   0.896   4.381
79319SOL     OW39853   9.784   5.341   8.958
79319SOL    HW139854   9.720   5.270   8.954
79319SOL    HW239855   9.738   5.417   8.923
79320SOL     OW39856   0.120  10.685   4.276
79320SOL    HW139857   0.083  10.722   4.196
79320SOL    HW239858   0.044  10.659   4.328
79321SOL     OW39859   7.843   5.022  11.506
79321SOL    HW139860   7.922   5.047  11.554
79321SOL    HW239861   7.847   4.926  11.501
79322SOL     OW39862   6.455  14.839  12.324
79322SOL    HW139863   6.543  14.862  12.293
79322SOL    HW239864   6.455  14.743  12.325
79323SOL     OW39865   8.498   8.543   1.806
79323SOL    HW139866   8.438   8.476   1.839
79323SOL    HW239867   8.494   8.612   1.872
79324SOL     OW39868  12.509   3.499   6.795
79324SOL    HW139869  12.581   3.467   6.850
79324SOL    HW239870  12.430   3.475   6.842
79325SOL     OW39871   9.599   1.244   6.830
79325SOL    HW139872   9.684   1.277   6.860
79325SOL    HW239873   9.620   1.192   6.752
79326SOL     OW39874   0.814  13.567   3.000
79326SOL    HW139875   0.816  13.639   2.937
79326SOL    HW239876   0.816  13.611   3.086
79327SOL     OW39877   7.752   0.939  14.674
79327SOL    HW139878   7.748   1.034  14.666
79327SOL    HW239879   7.791   0.922  14.760
79328SOL     OW39880   3.687   5.201  12.605
79328SOL    HW139881   3.623   5.145  12.648
79328SOL    HW239882   3.772   5.168  12.635
79329SOL     OW39883  11.898   4.204   1.978
79329SOL    HW139884  11.852   4.286   1.958
79329SOL    HW239885  11.909   4.162   1.893
79330SOL     OW39886  11.472  13.150   6.154
79330SOL    HW139887  11.539  13.130   6.219
79330SOL    HW239888  11.513  13.130   6.070
79331SOL     OW39889  14.273   1.201   4.966
79331SOL    HW139890  14.330   1.203   5.043
79331SOL    HW239891  14.298   1.121   4.920
79332SOL     OW39892  14.312   4.821  11.419
79332SOL    HW139893  14.394   4.842  11.464
79332SOL    HW239894  14.273   4.752  11.473
79333SOL     OW39895   8.687  11.622  13.279
79333SOL    HW139896   8.674  11.704  13.326
79333SOL    HW239897   8.780  11.622  13.255
79334SOL     OW39898  11.536   6.158   0.382
79334SOL    HW139899  11.472   6.222   0.351
79334SOL    HW239900  11.519   6.151   0.476
79335SOL     OW39901   0.528   2.938   2.897
79335SOL    HW139902   0.482   2.965   2.977
79335SOL    HW239903   0.471   2.965   2.826
79336SOL     OW39904   2.376   4.861  13.896
79336SOL    HW139905   2.302   4.836  13.841
79336SOL    HW239906   2.420   4.779  13.918
79337SOL     OW39907  12.779   5.078  13.282
79337SOL    HW139908  12.863   5.110  13.250
79337SOL    HW239909  12.729   5.157  13.302
79338SOL     OW39910   1.120   9.479  13.712
79338SOL    HW139911   1.122   9.407  13.774
79338SOL    HW239912   1.201   9.527  13.729
79339SOL     OW39913   4.707  14.167   9.037
79339SOL    HW139914   4.642  14.109   8.998
79339SOL    HW239915   4.788  14.147   8.990
79340SOL     OW39916  10.255   8.375   0.314
79340SOL    HW139917  10.178   8.410   0.360
79340SOL    HW239918  10.218   8.310   0.254
79341SOL     OW39919   5.849   2.063  13.304
79341SOL    HW139920   5.802   2.056  13.221
79341SOL    HW239921   5.906   2.140  13.292
79342SOL     OW39922  11.950   5.933   6.587
79342SOL    HW139923  12.038   5.966   6.605
79342SOL    HW239924  11.928   5.967   6.501
79343SOL     OW39925   8.209   2.524  12.154
79343SOL    HW139926   8.214   2.430  12.132
79343SOL    HW239927   8.169   2.526  12.241
79344SOL     OW39928   2.849  10.120   2.216
79344SOL    HW139929   2.755  10.108   2.202
79344SOL    HW239930   2.878  10.037   2.253
79345SOL     OW39931   1.351   6.194  12.440
79345SOL    HW139932   1.370   6.271  12.493
79345SOL    HW239933   1.432   6.176  12.393
79346SOL     OW39934   2.160   7.124  11.361
79346SOL    HW139935   2.209   7.195  11.403
79346SOL    HW239936   2.070   7.135  11.392
79347SOL     OW39937  11.485   7.465   9.621
79347SOL    HW139938  11.523   7.421   9.697
79347SOL    HW239939  11.541   7.542   9.607
79348SOL     OW39940   5.308   9.579   7.432
79348SOL    HW139941   5.395   9.586   7.471
79348SOL    HW239942   5.262   9.659   7.461
79349SOL     OW39943   9.920  11.854   2.720
79349SOL    HW139944  10.009  11.832   2.695
79349SOL    HW239945   9.865  11.793   2.671
79350SOL     OW39946  11.763  11.926   9.241
79350SOL    HW139947  11.739  11.863   9.309
79350SOL    HW239948  11.857  11.916   9.230
79351SOL     OW39949  12.464   7.312   6.255
79351SOL    HW139950  12.470   7.294   6.161
79351SOL    HW239951  12.421   7.235   6.291
79352SOL     OW39952   6.576   2.678   6.230
79352SOL    HW139953   6.600   2.638   6.313
79352SOL    HW239954   6.657   2.676   6.178
79353SOL     OW39955   2.255   1.370   8.822
79353SOL    HW139956   2.335   1.401   8.779
79353SOL    HW239957   2.185   1.388   8.759
79354SOL     OW39958   4.586   0.422   2.321
79354SOL    HW139959   4.665   0.395   2.369
79354SOL    HW239960   4.517   0.424   2.388
79355SOL     OW39961   5.535   4.831   2.792
79355SOL    HW139962   5.495   4.760   2.742
79355SOL    HW239963   5.610   4.790   2.836
79356SOL     OW39964   7.347  14.082  11.627
79356SOL    HW139965   7.364  14.020  11.556
79356SOL    HW239966   7.253  14.102  11.619
79357SOL     OW39967   6.940  13.200   3.641
79357SOL    HW139968   7.014  13.139   3.633
79357SOL    HW239969   6.874  13.151   3.689
79358SOL     OW39970  10.244   0.535   8.710
79358SOL    HW139971  10.210   0.535   8.799
79358SOL    HW239972  10.180   0.484   8.660
79359SOL     OW39973  11.366   8.258   6.666
79359SOL    HW139974  11.411   8.331   6.709
79359SOL    HW239975  11.281   8.294   6.641
79360SOL     OW39976   9.123  11.510   3.850
79360SOL    HW139977   9.181  11.455   3.798
79360SOL    HW239978   9.104  11.457   3.928
79361SOL     OW39979   0.989   8.888   8.734
79361SOL    HW139980   0.934   8.967   8.739
79361SOL    HW239981   0.979   8.848   8.821
79362SOL     OW39982   7.035   4.260   9.714
79362SOL    HW139983   7.126   4.286   9.729
79362SOL    HW239984   7.001   4.327   9.655
79363SOL     OW39985   8.332   5.744   9.200
79363SOL    HW139986   8.404   5.746   9.262
79363SOL    HW239987   8.374   5.734   9.114
79364SOL     OW39988   3.342  11.396   6.335
79364SOL    HW139989   3.329  11.306   6.365
79364SOL    HW239990   3.354  11.388   6.240
79365SOL     OW39991  14.645   8.560   3.963
79365SOL    HW139992  14.588   8.585   3.890
79365SOL    HW239993  14.685   8.642   3.991
79366SOL     OW39994   2.804   9.515   1.674
79366SOL    HW139995   2.718   9.554   1.657
79366SOL    HW239996   2.862   9.555   1.608
79367SOL     OW39997   1.871   9.846  13.256
79367SOL    HW139998   1.836   9.802  13.333
79367SOL    HW239999   1.966   9.840  13.266
79368SOL     OW40000  10.621  14.195   4.430
79368SOL    HW140001  10.661  14.244   4.359
79368SOL    HW240002  10.692  14.143   4.467
79369SOL     OW40003   6.530   5.535  10.173
79369SOL    HW140004   6.508   5.625  10.148
79369SOL    HW240005   6.591   5.544  10.246
79370SOL     OW40006   3.455  14.589   5.105
79370SOL    HW140007   3.403  14.515   5.135
79370SOL    HW240008   3.497  14.622   5.184
79371SOL     OW40009   5.855   7.253  13.901
79371SOL    HW140010   5.891   7.169  13.931
79371SOL    HW240011   5.897   7.318  13.956
79372SOL     OW40012  11.734   7.314   3.894
79372SOL    HW140013  11.789   7.277   3.963
79372SOL    HW240014  11.781   7.392   3.866
79373SOL     OW40015   3.345   2.638   2.013
79373SOL    HW140016   3.357   2.720   1.966
79373SOL    HW240017   3.369   2.658   2.103
79374SOL     OW40018   9.142   9.795  12.177
79374SOL    HW140019   9.177   9.707  12.165
79374SOL    HW240020   9.207   9.840  12.231
79375SOL     OW40021   5.861  12.075   2.489
79375SOL    HW140022   5.869  12.170   2.497
79375SOL    HW240023   5.933  12.040   2.542
79376SOL     OW40024   2.245   7.333  11.848
79376SOL    HW140025   2.228   7.385  11.927
79376SOL    HW240026   2.203   7.383  11.778
79377SOL     OW40027  13.510   8.025   6.382
79377SOL    HW140028  13.487   8.072   6.462
79377SOL    HW240029  13.524   8.093   6.317
79378SOL     OW40030   4.967   1.911  13.237
79378SOL    HW140031   4.908   1.839  13.260
79378SOL    HW240032   5.037   1.870  13.186
79379SOL     OW40033  11.522  12.063  11.577
79379SOL    HW140034  11.474  12.117  11.515
79379SOL    HW240035  11.595  12.028  11.527
79380SOL     OW40036  12.268   1.814   9.890
79380SOL    HW140037  12.349   1.801   9.839
79380SOL    HW240038  12.212   1.741   9.864
79381SOL     OW40039   6.220   8.380   5.324
79381SOL    HW140040   6.270   8.443   5.377
79381SOL    HW240041   6.136   8.423   5.309
79382SOL     OW40042   3.913   9.892  11.247
79382SOL    HW140043   3.982   9.827  11.263
79382SOL    HW240044   3.941   9.970  11.295
79383SOL     OW40045  10.907   0.600  10.459
79383SOL    HW140046  10.930   0.602  10.552
79383SOL    HW240047  10.977   0.651  10.417
79384SOL     OW40048  14.349   4.912  12.695
79384SOL    HW140049  14.351   4.873  12.782
79384SOL    HW240050  14.257   4.933  12.680
79385SOL     OW40051   7.941  10.671   6.855
79385SOL    HW140052   7.909  10.631   6.936
79385SOL    HW240053   7.965  10.596   6.799
79386SOL     OW40054  12.730  11.393  10.095
79386SOL    HW140055  12.798  11.418  10.032
79386SOL    HW240056  12.778  11.351  10.166
79387SOL     OW40057   2.637   0.236   0.707
79387SOL    HW140058   2.711   0.245   0.768
79387SOL    HW240059   2.640   0.144   0.680
79388SOL     OW40060   2.502   6.512   9.343
79388SOL    HW140061   2.420   6.507   9.393
79388SOL    HW240062   2.496   6.440   9.279
79389SOL     OW40063   2.302   5.737   6.135
79389SOL    HW140064   2.315   5.753   6.041
79389SOL    HW240065   2.373   5.678   6.159
79390SOL     OW40066  11.587  12.039  12.757
79390SOL    HW140067  11.536  12.001  12.685
79390SOL    HW240068  11.603  12.129  12.729
79391SOL     OW40069   1.310   9.848  13.170
79391SOL    HW140070   1.236   9.806  13.213
79391SOL    HW240071   1.376   9.855  13.239
79392SOL     OW40072   0.419   4.707  11.854
79392SOL    HW140073   0.452   4.732  11.767
79392SOL    HW240074   0.417   4.788  11.904
79393SOL     OW40075   1.646   4.369   2.277
79393SOL    HW140076   1.564   4.320   2.273
79393SOL    HW240077   1.693   4.331   2.351
79394SOL     OW40078   3.935   7.366   7.498
79394SOL    HW140079   4.020   7.330   7.470
79394SOL    HW240080   3.875   7.341   7.428
79395SOL     OW40081  12.544   4.140   5.865
79395SOL    HW140082  12.505   4.221   5.900
79395SOL    HW240083  12.469   4.087   5.838
79396SOL     OW40084   0.942  11.972  11.657
79396SOL    HW140085   1.016  12.032  11.662
79396SOL    HW240086   0.895  11.985  11.739
79397SOL     OW40087   3.761   4.009   8.922
79397SOL    HW140088   3.741   4.038   8.833
79397SOL    HW240089   3.724   3.921   8.928
79398SOL     OW40090   2.777   3.113   3.720
79398SOL    HW140091   2.818   3.029   3.701
79398SOL    HW240092   2.849   3.171   3.745
79399SOL     OW40093   4.293   2.530   1.979
79399SOL    HW140094   4.322   2.620   1.960
79399SOL    HW240095   4.238   2.506   1.904
79400SOL     OW40096  10.125   6.319   8.029
79400SOL    HW140097  10.198   6.258   8.016
79400SOL    HW240098  10.048   6.272   7.999
79401SOL     OW40099   6.641   0.554  12.469
79401SOL    HW140100   6.603   0.627  12.517
79401SOL    HW240101   6.579   0.482  12.481
79402SOL     OW40102   8.664   1.683  14.775
79402SOL    HW140103   8.692   1.615  14.714
79402SOL    HW240104   8.694   1.765  14.735
79403SOL     OW40105  10.709   7.096  10.032
79403SOL    HW140106  10.727   7.161   9.965
79403SOL    HW240107  10.650   7.034   9.990
79404SOL     OW40108  14.632   8.538   8.791
79404SOL    HW140109  14.696   8.592   8.744
79404SOL    HW240110  14.555   8.537   8.735
79405SOL     OW40111  10.221   3.712   4.199
79405SOL    HW140112  10.177   3.688   4.117
79405SOL    HW240113  10.206   3.637   4.256
79406SOL     OW40114   3.849   1.794  10.255
79406SOL    HW140115   3.792   1.850  10.202
79406SOL    HW240116   3.808   1.708  10.251
79407SOL     OW40117   1.966   9.282   6.116
79407SOL    HW140118   2.058   9.300   6.136
79407SOL    HW240119   1.932   9.366   6.086
79408SOL     OW40120  10.867  12.875   4.934
79408SOL    HW140121  10.776  12.874   4.903
79408SOL    HW240122  10.919  12.851   4.857
79409SOL     OW40123  11.794   1.127   5.047
79409SOL    HW140124  11.736   1.200   5.027
79409SOL    HW240125  11.740   1.049   5.033
79410SOL     OW40126  12.819  12.508  12.888
79410SOL    HW140127  12.730  12.540  12.901
79410SOL    HW240128  12.875  12.585  12.902
79411SOL     OW40129   5.497   8.475   5.046
79411SOL    HW140130   5.566   8.422   5.005
79411SOL    HW240131   5.485   8.435   5.132
79412SOL     OW40132   0.324  14.805   9.238
79412SOL    HW140133   0.397  14.751   9.208
79412SOL    HW240134   0.340   0.009   9.200
79413SOL     OW40135  11.876   0.465  14.795
79413SOL    HW140136  11.853   0.536  14.854
79413SOL    HW240137  11.835   0.387  14.834
79414SOL     OW40138   9.842   3.545  11.777
79414SOL    HW140139   9.896   3.511  11.706
79414SOL    HW240140   9.752   3.525  11.751
79415SOL     OW40141  11.395   1.600   7.229
79415SOL    HW140142  11.391   1.555   7.145
79415SOL    HW240143  11.369   1.690   7.210
79416SOL     OW40144   7.148  14.689  10.050
79416SOL    HW140145   7.104  14.717  10.130
79416SOL    HW240146   7.177  14.770  10.008
79417SOL     OW40147   7.273  12.284   1.748
79417SOL    HW140148   7.307  12.233   1.674
79417SOL    HW240149   7.267  12.221   1.820
79418SOL     OW40150  11.436   4.398  12.319
79418SOL    HW140151  11.480   4.397  12.404
79418SOL    HW240152  11.344   4.381  12.340
79419SOL     OW40153  10.937   0.680   3.570
79419SOL    HW140154  10.957   0.748   3.506
79419SOL    HW240155  10.967   0.599   3.530
79420SOL     OW40156   4.376   5.218   9.214
79420SOL    HW140157   4.346   5.309   9.212
79420SOL    HW240158   4.318   5.174   9.276
79421SOL     OW40159  12.006   3.553  13.604
79421SOL    HW140160  11.989   3.496  13.529
79421SOL    HW240161  11.958   3.512  13.677
79422SOL     OW40162   3.351  14.866   8.449
79422SOL    HW140163   3.407  14.796   8.482
79422SOL    HW240164   3.269  14.856   8.498
79423SOL     OW40165   7.099   8.764   5.481
79423SOL    HW140166   7.172   8.752   5.420
79423SOL    HW240167   7.118   8.848   5.524
79424SOL     OW40168   3.512   9.819   2.257
79424SOL    HW140169   3.583   9.808   2.321
79424SOL    HW240170   3.557   9.838   2.175
79425SOL     OW40171   9.532  12.334   4.965
79425SOL    HW140172   9.517  12.392   4.890
79425SOL    HW240173   9.601  12.275   4.936
79426SOL     OW40174   2.632  11.594   0.126
79426SOL    HW140175   2.579  11.522   0.159
79426SOL    HW240176   2.722  11.562   0.130
79427SOL     OW40177  10.002   3.652   4.418
79427SOL    HW140178  10.073   3.694   4.466
79427SOL    HW240179   9.950   3.608   4.485
79428SOL     OW40180   0.797   3.707   8.090
79428SOL    HW140181   0.858   3.642   8.057
79428SOL    HW240182   0.732   3.717   8.020
79429SOL     OW40183   2.738   2.639   6.645
79429SOL    HW140184   2.662   2.678   6.601
79429SOL    HW240185   2.758   2.561   6.594
79430SOL     OW40186  10.750   6.884   5.261
79430SOL    HW140187  10.806   6.878   5.184
79430SOL    HW240188  10.676   6.826   5.241
79431SOL     OW40189  13.944  11.780   0.561
79431SOL    HW140190  14.009  11.836   0.518
79431SOL    HW240191  13.995  11.717   0.611
79432SOL     OW40192   8.336   3.019  14.461
79432SOL    HW140193   8.386   3.040  14.383
79432SOL    HW240194   8.352   2.926  14.476
79433SOL     OW40195  13.325   5.706   7.270
79433SOL    HW140196  13.373   5.786   7.292
79433SOL    HW240197  13.330   5.653   7.350
79434SOL     OW40198   0.473   6.301   9.545
79434SOL    HW140199   0.431   6.312   9.460
79434SOL    HW240200   0.487   6.390   9.577
79435SOL     OW40201   2.383   5.854   5.847
79435SOL    HW140202   2.312   5.913   5.821
79435SOL    HW240203   2.412   5.815   5.764
79436SOL     OW40204   2.770  12.085   5.399
79436SOL    HW140205   2.727  12.099   5.315
79436SOL    HW240206   2.725  12.144   5.459
79437SOL     OW40207   2.313   3.910   6.992
79437SOL    HW140208   2.377   3.904   7.063
79437SOL    HW240209   2.277   3.999   7.000
79438SOL     OW40210  10.851   7.931  10.765
79438SOL    HW140211  10.888   7.985  10.695
79438SOL    HW240212  10.821   7.994  10.830
79439SOL     OW40213  14.065   3.204   9.601
79439SOL    HW140214  14.089   3.228   9.512
79439SOL    HW240215  14.001   3.133   9.590
79440SOL     OW40216   2.346   6.155  13.772
79440SOL    HW140217   2.367   6.099  13.696
79440SOL    HW240218   2.362   6.099  13.848
79441SOL     OW40219  14.302   5.657   3.617
79441SOL    HW140220  14.304   5.564   3.593
79441SOL    HW240221  14.378   5.669   3.673
79442SOL     OW40222   3.784   7.017  10.208
79442SOL    HW140223   3.809   7.076  10.279
79442SOL    HW240224   3.856   7.024  10.145
79443SOL     OW40225  13.789   2.129  10.288
79443SOL    HW140226  13.843   2.050  10.283
79443SOL    HW240227  13.704   2.097  10.317
79444SOL     OW40228   0.668   5.730   4.068
79444SOL    HW140229   0.587   5.727   4.017
79444SOL    HW240230   0.654   5.800   4.131
79445SOL     OW40231   4.870   6.474   1.328
79445SOL    HW140232   4.857   6.459   1.421
79445SOL    HW240233   4.899   6.390   1.293
79446SOL     OW40234   8.438   9.334   3.429
79446SOL    HW140235   8.504   9.401   3.414
79446SOL    HW240236   8.400   9.317   3.343
79447SOL     OW40237   2.577  14.687  11.413
79447SOL    HW140238   2.580  14.673  11.319
79447SOL    HW240239   2.669  14.685  11.441
79448SOL     OW40240  10.789   4.133  13.174
79448SOL    HW140241  10.835   4.207  13.213
79448SOL    HW240242  10.854   4.062  13.174
79449SOL     OW40243  11.870   6.866   0.984
79449SOL    HW140244  11.888   6.803   0.914
79449SOL    HW240245  11.775   6.877   0.981
79450SOL     OW40246   6.253   1.644   4.124
79450SOL    HW140247   6.200   1.715   4.087
79450SOL    HW240248   6.255   1.662   4.218
79451SOL     OW40249  11.602   8.050   3.582
79451SOL    HW140250  11.557   8.108   3.644
79451SOL    HW240251  11.539   8.038   3.511
79452SOL     OW40252   6.604  11.126   9.852
79452SOL    HW140253   6.606  11.189   9.780
79452SOL    HW240254   6.666  11.058   9.826
79453SOL     OW40255   0.340   0.647   4.880
79453SOL    HW140256   0.262   0.651   4.936
79453SOL    HW240257   0.308   0.666   4.792
79454SOL     OW40258   2.137   5.874   2.531
79454SOL    HW140259   2.152   5.829   2.447
79454SOL    HW240260   2.198   5.832   2.591
79455SOL     OW40261  12.078   6.981   2.403
79455SOL    HW140262  12.162   7.023   2.385
79455SOL    HW240263  12.043   6.960   2.316
79456SOL     OW40264  14.768   7.233   3.394
79456SOL    HW140265  14.691   7.285   3.370
79456SOL    HW240266  14.818   7.226   3.312
79457SOL     OW40267   8.696  14.248   3.908
79457SOL    HW140268   8.787  14.232   3.880
79457SOL    HW240269   8.643  14.197   3.847
79458SOL     OW40270   2.400   7.487   8.400
79458SOL    HW140271   2.356   7.505   8.483
79458SOL    HW240272   2.484   7.449   8.425
79459SOL     OW40273   4.774  12.857  11.330
79459SOL    HW140274   4.730  12.861  11.415
79459SOL    HW240275   4.718  12.908  11.271
79460SOL     OW40276  12.337   1.768   6.270
79460SOL    HW140277  12.298   1.818   6.198
79460SOL    HW240278  12.299   1.807   6.349
79461SOL     OW40279   2.116   4.645  13.472
79461SOL    HW140280   2.067   4.664  13.392
79461SOL    HW240281   2.191   4.593  13.443
79462SOL     OW40282   7.281   4.326  10.562
79462SOL    HW140283   7.296   4.356  10.652
79462SOL    HW240284   7.304   4.402  10.507
79463SOL     OW40285   7.647   4.640  11.398
79463SOL    HW140286   7.595   4.694  11.457
79463SOL    HW240287   7.609   4.654  11.311
79464SOL     OW40288   0.581   0.041  11.992
79464SOL    HW140289   0.516   0.058  12.060
79464SOL    HW240290   0.613   0.128  11.967
79465SOL     OW40291  14.441   5.677  11.893
79465SOL    HW140292  14.434   5.756  11.839
79465SOL    HW240293  14.357   5.632  11.880
79466SOL     OW40294   6.617   0.375  14.069
79466SOL    HW140295   6.710   0.388  14.052
79466SOL    HW240296   6.613   0.342  14.159
79467SOL     OW40297   6.118  13.647  10.196
79467SOL    HW140298   6.205  13.637  10.234
79467SOL    HW240299   6.096  13.739  10.211
79468SOL     OW40300  12.651   3.226   3.929
79468SOL    HW140301  12.588   3.166   3.890
79468SOL    HW240302  12.688   3.178   4.003
79469SOL     OW40303  11.100  13.597   4.771
79469SOL    HW140304  11.087  13.672   4.714
79469SOL    HW240305  11.193  13.576   4.763
79470SOL     OW40306   2.762   0.047   2.376
79470SOL    HW140307   2.782   0.139   2.359
79470SOL    HW240308   2.739   0.044   2.469
79471SOL     OW40309   2.942   0.374   7.666
79471SOL    HW140310   2.960   0.346   7.576
79471SOL    HW240311   2.904   0.297   7.709
79472SOL     OW40312  14.706   6.536   0.443
79472SOL    HW140313  14.633   6.578   0.397
79472SOL    HW240314  14.784   6.561   0.393
79473SOL     OW40315   7.284   4.313   9.808
79473SOL    HW140316   7.320   4.226   9.824
79473SOL    HW240317   7.339   4.350   9.740
79474SOL     OW40318   3.403  13.547   1.063
79474SOL    HW140319   3.450  13.628   1.046
79474SOL    HW240320   3.471  13.485   1.091
79475SOL     OW40321  11.596   6.487   1.875
79475SOL    HW140322  11.665   6.537   1.831
79475SOL    HW240323  11.613   6.396   1.849
79476SOL     OW40324   4.091   3.766   3.083
79476SOL    HW140325   4.068   3.848   3.038
79476SOL    HW240326   4.089   3.788   3.176
79477SOL     OW40327   8.563  10.565   6.735
79477SOL    HW140328   8.610  10.565   6.819
79477SOL    HW240329   8.558  10.657   6.710
79478SOL     OW40330  13.671   8.868   0.945
79478SOL    HW140331  13.580   8.880   0.918
79478SOL    HW240332  13.712   8.953   0.931
79479SOL     OW40333  13.807  12.731   2.167
79479SOL    HW140334  13.882  12.672   2.163
79479SOL    HW240335  13.802  12.757   2.260
79480SOL     OW40336   4.595   3.017   5.975
79480SOL    HW140337   4.553   3.097   6.007
79480SOL    HW240338   4.667   3.048   5.920
79481SOL     OW40339   7.028   4.148  14.494
79481SOL    HW140340   7.066   4.229  14.458
79481SOL    HW240341   7.070   4.078  14.445
79482SOL     OW40342   8.641   7.361   8.266
79482SOL    HW140343   8.705   7.431   8.253
79482SOL    HW240344   8.571   7.402   8.318
79483SOL     OW40345   6.112   6.102  10.174
79483SOL    HW140346   6.162   6.163  10.119
79483SOL    HW240347   6.032   6.086  10.124
79484SOL     OW40348   8.683   7.138   9.440
79484SOL    HW140349   8.770   7.157   9.405
79484SOL    HW240350   8.698   7.101   9.526
79485SOL     OW40351   2.487   6.426   4.075
79485SOL    HW140352   2.544   6.442   4.000
79485SOL    HW240353   2.432   6.503   4.081
79486SOL     OW40354   8.814  14.546  10.170
79486SOL    HW140355   8.779  14.543  10.080
79486SOL    HW240356   8.891  14.490  10.166
79487SOL     OW40357  12.645   6.315   6.289
79487SOL    HW140358  12.581   6.288   6.355
79487SOL    HW240359  12.720   6.345   6.340
79488SOL     OW40360   4.250  10.830   0.096
79488SOL    HW140361   4.280  10.741   0.080
79488SOL    HW240362   4.169  10.838   0.045
79489SOL     OW40363  12.327  10.858   6.564
79489SOL    HW140364  12.405  10.802   6.567
79489SOL    HW240365  12.360  10.943   6.534
79490SOL     OW40366   6.352   7.744  12.407
79490SOL    HW140367   6.376   7.668  12.461
79490SOL    HW240368   6.348   7.710  12.318
79491SOL     OW40369  10.802   2.670   2.961
79491SOL    HW140370  10.897   2.663   2.959
79491SOL    HW240371  10.778   2.654   3.053
79492SOL     OW40372   8.870   8.019   4.124
79492SOL    HW140373   8.893   8.112   4.119
79492SOL    HW240374   8.825   8.010   4.208
79493SOL     OW40375   0.165  13.486   2.706
79493SOL    HW140376   0.074  13.463   2.725
79493SOL    HW240377   0.163  13.518   2.616
79494SOL     OW40378   8.709   3.601   9.548
79494SOL    HW140379   8.705   3.666   9.478
79494SOL    HW240380   8.707   3.653   9.629
79495SOL     OW40381  11.508   0.899   7.563
79495SOL    HW140382  11.518   0.820   7.509
79495SOL    HW240383  11.526   0.971   7.502
79496SOL     OW40384   1.578   7.503   1.673
79496SOL    HW140385   1.667   7.471   1.665
79496SOL    HW240386   1.587   7.598   1.685
79497SOL     OW40387   2.299   2.595   9.221
79497SOL    HW140388   2.349   2.642   9.287
79497SOL    HW240389   2.327   2.504   9.229
79498SOL     OW40390   6.000   0.204   6.089
79498SOL    HW140391   6.013   0.158   6.172
79498SOL    HW240392   6.083   0.248   6.073
79499SOL     OW40393   7.340  10.798   4.374
79499SOL    HW140394   7.325  10.888   4.345
79499SOL    HW240395   7.263  10.777   4.427
79500SOL     OW40396   7.705   3.656   5.459
79500SOL    HW140397   7.707   3.568   5.421
79500SOL    HW240398   7.774   3.704   5.414
79501SOL     OW40399  10.005   6.180   6.296
79501SOL    HW140400   9.987   6.093   6.259
79501SOL    HW240401   9.957   6.240   6.240
79502SOL     OW40402   9.427  10.799   7.730
79502SOL    HW140403   9.516  10.825   7.754
79502SOL    HW240404   9.384  10.779   7.814
79503SOL     OW40405   7.083  13.680  12.154
79503SOL    HW140406   7.169  13.642  12.174
79503SOL    HW240407   7.051  13.629  12.080
79504SOL     OW40408   2.231   0.115   1.192
79504SOL    HW140409   2.264   0.204   1.202
79504SOL    HW240410   2.305   0.059   1.211
79505SOL     OW40411  10.723  11.176  11.981
79505SOL    HW140412  10.684  11.248  12.030
79505SOL    HW240413  10.651  11.116  11.964
79506SOL     OW40414  14.693   7.294   2.255
79506SOL    HW140415  14.688   7.352   2.331
79506SOL    HW240416  14.612   7.241   2.260
79507SOL     OW40417  10.573   5.703   1.129
79507SOL    HW140418  10.489   5.750   1.125
79507SOL    HW240419  10.634   5.767   1.165
79508SOL     OW40420  12.395   7.557   6.519
79508SOL    HW140421  12.356   7.543   6.433
79508SOL    HW240422  12.489   7.549   6.504
79509SOL     OW40423   5.180   4.110   8.053
79509SOL    HW140424   5.236   4.184   8.028
79509SOL    HW240425   5.240   4.036   8.062
79510SOL     OW40426   9.691   6.592  13.799
79510SOL    HW140427   9.684   6.650  13.723
79510SOL    HW240428   9.785   6.584  13.814
79511SOL     OW40429  11.173   0.444   3.508
79511SOL    HW140430  11.219   0.516   3.551
79511SOL    HW240431  11.153   0.383   3.578
79512SOL     OW40432   6.580  13.451  12.153
79512SOL    HW140433   6.567  13.505  12.231
79512SOL    HW240434   6.492  13.440  12.117
79513SOL     OW40435  11.080   1.822   5.805
79513SOL    HW140436  11.062   1.774   5.886
79513SOL    HW240437  11.023   1.781   5.740
79514SOL     OW40438  13.778  14.496   1.911
79514SOL    HW140439  13.698  14.468   1.867
79514SOL    HW240440  13.823  14.414   1.933
79515SOL     OW40441   5.400   4.744   6.824
79515SOL    HW140442   5.493   4.729   6.842
79515SOL    HW240443   5.368   4.790   6.901
79516SOL     OW40444   4.677   3.159   0.505
79516SOL    HW140445   4.719   3.177   0.589
79516SOL    HW240446   4.686   3.064   0.493
79517SOL     OW40447   1.224   1.428  13.444
79517SOL    HW140448   1.230   1.419  13.539
79517SOL    HW240449   1.280   1.358  13.411
79518SOL     OW40450  13.854  11.465   9.915
79518SOL    HW140451  13.807  11.476   9.832
79518SOL    HW240452  13.843  11.373   9.938
79519SOL     OW40453  12.208   0.629   3.139
79519SOL    HW140454  12.131   0.652   3.191
79519SOL    HW240455  12.282   0.656   3.194
79520SOL     OW40456   1.742   6.686   7.754
79520SOL    HW140457   1.780   6.623   7.815
79520SOL    HW240458   1.800   6.762   7.760
79521SOL     OW40459   4.434   2.232   7.526
79521SOL    HW140460   4.394   2.301   7.579
79521SOL    HW240461   4.425   2.153   7.579
79522SOL     OW40462   6.749   2.662   8.403
79522SOL    HW140463   6.697   2.582   8.409
79522SOL    HW240464   6.736   2.694   8.314
79523SOL     OW40465   0.961   1.505   2.132
79523SOL    HW140466   0.971   1.443   2.059
79523SOL    HW240467   1.013   1.581   2.106
79524SOL     OW40468   1.154   1.784   4.487
79524SOL    HW140469   1.232   1.805   4.537
79524SOL    HW240470   1.101   1.864   4.490
79525SOL     OW40471   2.985   6.737   5.936
79525SOL    HW140472   2.901   6.728   5.981
79525SOL    HW240473   3.044   6.677   5.981
79526SOL     OW40474   9.473   6.811   9.207
79526SOL    HW140475   9.429   6.890   9.238
79526SOL    HW240476   9.402   6.747   9.198
79527SOL     OW40477   5.675  11.706   7.621
79527SOL    HW140478   5.621  11.653   7.679
79527SOL    HW240479   5.630  11.791   7.618
79528SOL     OW40480  14.017   4.463   1.569
79528SOL    HW140481  13.970   4.475   1.651
79528SOL    HW240482  14.108   4.480   1.591
79529SOL     OW40483   7.777   0.342  10.800
79529SOL    HW140484   7.693   0.370  10.834
79529SOL    HW240485   7.762   0.253  10.768
79530SOL     OW40486  10.777   8.779   2.423
79530SOL    HW140487  10.710   8.775   2.355
79530SOL    HW240488  10.760   8.702   2.477
79531SOL     OW40489  13.272   5.530   8.231
79531SOL    HW140490  13.345   5.479   8.266
79531SOL    HW240491  13.305   5.620   8.230
79532SOL     OW40492   6.411   0.888   2.461
79532SOL    HW140493   6.448   0.974   2.483
79532SOL    HW240494   6.341   0.907   2.399
79533SOL     OW40495   0.833   8.383  11.813
79533SOL    HW140496   0.816   8.290  11.798
79533SOL    HW240497   0.917   8.399  11.770
79534SOL     OW40498  10.968   4.386   1.320
79534SOL    HW140499  10.955   4.297   1.289
79534SOL    HW240500  11.062   4.393   1.337
79535SOL     OW40501  11.015  12.574   6.646
79535SOL    HW140502  11.076  12.615   6.585
79535SOL    HW240503  10.959  12.520   6.591
79536SOL     OW40504   3.763   9.520   3.568
79536SOL    HW140505   3.805   9.599   3.603
79536SOL    HW240506   3.768   9.530   3.473
79537SOL     OW40507  11.017  14.702   3.224
79537SOL    HW140508  10.942  14.746   3.186
79537SOL    HW240509  11.089  14.721   3.164
79538SOL     OW40510  13.152   7.124   6.969
79538SOL    HW140511  13.084   7.144   7.034
79538SOL    HW240512  13.222   7.188   6.987
79539SOL     OW40513  12.967  10.076   7.517
79539SOL    HW140514  12.929  10.070   7.430
79539SOL    HW240515  13.018   9.996   7.527
79540SOL     OW40516   5.350   6.969  11.889
79540SOL    HW140517   5.267   6.985  11.934
79540SOL    HW240518   5.412   6.949  11.959
79541SOL     OW40519   9.161  12.668   2.799
79541SOL    HW140520   9.224  12.599   2.779
79541SOL    HW240521   9.076  12.629   2.778
79542SOL     OW40522   9.381   1.362   6.957
79542SOL    HW140523   9.409   1.446   6.994
79542SOL    HW240524   9.459   1.328   6.913
79543SOL     OW40525   9.366  14.343   3.729
79543SOL    HW140526   9.407  14.328   3.644
79543SOL    HW240527   9.413  14.286   3.789
79544SOL     OW40528  10.163  14.130   3.347
79544SOL    HW140529  10.235  14.114   3.409
79544SOL    HW240530  10.203  14.179   3.275
79545SOL     OW40531   1.634   8.308  11.756
79545SOL    HW140532   1.719   8.345  11.734
79545SOL    HW240533   1.590   8.299  11.671
79546SOL     OW40534   6.761  13.468   5.077
79546SOL    HW140535   6.788  13.554   5.111
79546SOL    HW240536   6.840  13.434   5.034
79547SOL     OW40537   2.383  13.565  12.778
79547SOL    HW140538   2.457  13.557  12.717
79547SOL    HW240539   2.308  13.580  12.721
79548SOL     OW40540   3.369   5.322   3.687
79548SOL    HW140541   3.418   5.312   3.769
79548SOL    HW240542   3.424   5.280   3.621
79549SOL     OW40543  13.419   8.727  11.342
79549SOL    HW140544  13.463   8.771  11.414
79549SOL    HW240545  13.348   8.678  11.384
79550SOL     OW40546   9.657   1.707   5.681
79550SOL    HW140547   9.663   1.718   5.776
79550SOL    HW240548   9.724   1.764   5.645
79551SOL     OW40549  13.784  14.232  13.854
79551SOL    HW140550  13.854  14.287  13.821
79551SOL    HW240551  13.803  14.145  13.819
79552SOL     OW40552  14.744   0.263   0.855
79552SOL    HW140553  14.703   0.348   0.869
79552SOL    HW240554  14.834   0.275   0.888
79553SOL     OW40555  11.737   0.628   5.800
79553SOL    HW140556  11.706   0.552   5.751
79553SOL    HW240557  11.787   0.591   5.873
79554SOL     OW40558  13.391   9.583   4.975
79554SOL    HW140559  13.300   9.557   4.965
79554SOL    HW240560  13.419   9.609   4.887
79555SOL     OW40561  11.067   0.803   3.333
79555SOL    HW140562  11.138   0.744   3.307
79555SOL    HW240563  10.989   0.766   3.291
79556SOL     OW40564  11.677  12.760   9.763
79556SOL    HW140565  11.723  12.801   9.836
79556SOL    HW240566  11.735  12.772   9.688
79557SOL     OW40567   0.775   9.027   1.507
79557SOL    HW140568   0.696   9.047   1.556
79557SOL    HW240569   0.845   9.027   1.572
79558SOL     OW40570   5.333  10.134   2.119
79558SOL    HW140571   5.307  10.182   2.198
79558SOL    HW240572   5.388  10.195   2.070
79559SOL     OW40573   9.793   9.370  12.004
79559SOL    HW140574   9.858   9.426  11.962
79559SOL    HW240575   9.732   9.431  12.046
79560SOL     OW40576  10.459   3.671  14.669
79560SOL    HW140577  10.548   3.654  14.638
79560SOL    HW240578  10.403   3.626  14.605
79561SOL     OW40579   8.942   5.408  11.214
79561SOL    HW140580   8.962   5.458  11.135
79561SOL    HW240581   8.848   5.417  11.225
79562SOL     OW40582  11.075  13.418   5.995
79562SOL    HW140583  11.021  13.472   6.053
79562SOL    HW240584  11.049  13.328   6.015
79563SOL     OW40585  12.142   6.101   1.146
79563SOL    HW140586  12.206   6.064   1.207
79563SOL    HW240587  12.122   6.187   1.182
79564SOL     OW40588  13.190   2.760   6.947
79564SOL    HW140589  13.104   2.737   6.984
79564SOL    HW240590  13.244   2.782   7.023
79565SOL     OW40591   0.429  11.425   4.117
79565SOL    HW140592   0.379  11.351   4.153
79565SOL    HW240593   0.505  11.385   4.076
79566SOL     OW40594   3.193   3.094   9.891
79566SOL    HW140595   3.148   3.178   9.888
79566SOL    HW240596   3.285   3.115   9.900
79567SOL     OW40597  14.337   4.434  14.262
79567SOL    HW140598  14.409   4.481  14.304
79567SOL    HW240599  14.378   4.354  14.228
79568SOL     OW40600   5.364   5.596   7.546
79568SOL    HW140601   5.274   5.611   7.519
79568SOL    HW240602   5.382   5.666   7.609
79569SOL     OW40603   6.196   8.369   6.047
79569SOL    HW140604   6.152   8.405   5.970
79569SOL    HW240605   6.146   8.402   6.121
79570SOL     OW40606   7.742  10.318  13.945
79570SOL    HW140607   7.804  10.378  13.985
79570SOL    HW240608   7.660  10.369  13.939
79571SOL     OW40609   6.028   7.163  12.030
79571SOL    HW140610   6.028   7.201  11.942
79571SOL    HW240611   6.119   7.168  12.058
79572SOL     OW40612  13.484   5.563   8.525
79572SOL    HW140613  13.407   5.539   8.576
79572SOL    HW240614  13.470   5.522   8.440
79573SOL     OW40615   4.348   7.644   9.360
79573SOL    HW140616   4.430   7.679   9.324
79573SOL    HW240617   4.374   7.602   9.442
79574SOL     OW40618  11.631  12.506   1.415
79574SOL    HW140619  11.601  12.597   1.414
79574SOL    HW240620  11.595  12.471   1.496
79575SOL     OW40621   6.428  13.762   9.085
79575SOL    HW140622   6.438  13.778   8.991
79575SOL    HW240623   6.444  13.668   9.095
79576SOL     OW40624  11.799   9.786   6.990
79576SOL    HW140625  11.763   9.865   7.029
79576SOL    HW240626  11.767   9.715   7.047
79577SOL     OW40627  11.240  14.133  12.125
79577SOL    HW140628  11.210  14.152  12.036
79577SOL    HW240629  11.200  14.049  12.146
79578SOL     OW40630  10.236   3.829   5.182
79578SOL    HW140631  10.304   3.868   5.127
79578SOL    HW240632  10.241   3.876   5.265
79579SOL     OW40633   8.349  11.827   9.595
79579SOL    HW140634   8.401  11.754   9.626
79579SOL    HW240635   8.279  11.787   9.544
79580SOL     OW40636   8.040   3.821   3.402
79580SOL    HW140637   8.069   3.851   3.488
79580SOL    HW240638   8.077   3.883   3.340
79581SOL     OW40639  10.099   2.917  10.926
79581SOL    HW140640  10.132   2.827  10.924
79581SOL    HW240641  10.113   2.946  11.016
79582SOL     OW40642  11.644  14.431  13.743
79582SOL    HW140643  11.611  14.363  13.685
79582SOL    HW240644  11.624  14.400  13.831
79583SOL     OW40645   9.716  10.961  11.055
79583SOL    HW140646   9.708  10.974  10.960
79583SOL    HW240647   9.632  10.990  11.090
79584SOL     OW40648   0.751  12.748   5.992
79584SOL    HW140649   0.795  12.690   6.053
79584SOL    HW240650   0.659  12.742   6.014
79585SOL     OW40651  11.247   1.425   7.561
79585SOL    HW140652  11.244   1.396   7.470
79585SOL    HW240653  11.297   1.506   7.559
79586SOL     OW40654  14.241  14.595  11.822
79586SOL    HW140655  14.317  14.547  11.790
79586SOL    HW240656  14.220  14.657  11.752
79587SOL     OW40657   0.594  10.313   5.493
79587SOL    HW140658   0.607  10.247   5.425
79587SOL    HW240659   0.673  10.309   5.546
79588SOL     OW40660   2.432   1.724   5.154
79588SOL    HW140661   2.355   1.743   5.101
79588SOL    HW240662   2.438   1.628   5.156
79589SOL     OW40663   2.692   7.925   1.524
79589SOL    HW140664   2.626   7.861   1.497
79589SOL    HW240665   2.661   7.956   1.609
79590SOL     OW40666   2.797  12.127  12.616
79590SOL    HW140667   2.840  12.102  12.698
79590SOL    HW240668   2.745  12.051  12.591
79591SOL     OW40669  12.413   3.089   8.490
79591SOL    HW140670  12.407   3.046   8.404
79591SOL    HW240671  12.448   3.176   8.471
79592SOL     OW40672   6.079  13.207   2.978
79592SOL    HW140673   6.129  13.288   2.979
79592SOL    HW240674   6.145  13.138   2.974
79593SOL     OW40675   5.192   8.689   8.004
79593SOL    HW140676   5.131   8.627   7.963
79593SOL    HW240677   5.265   8.634   8.034
79594SOL     OW40678   8.832   7.179  13.402
79594SOL    HW140679   8.890   7.255  13.407
79594SOL    HW240680   8.880   7.109  13.446
79595SOL     OW40681  13.167   4.252  10.017
79595SOL    HW140682  13.218   4.174   9.996
79595SOL    HW240683  13.232   4.319  10.037
79596SOL     OW40684   2.359  12.047  14.791
79596SOL    HW140685   2.437  12.085  14.832
79596SOL    HW240686   2.393  11.991  14.721
79597SOL     OW40687   1.918   6.205  14.497
79597SOL    HW140688   1.941   6.139  14.563
79597SOL    HW240689   1.916   6.287  14.546
79598SOL     OW40690   1.495  14.877   8.061
79598SOL    HW140691   1.533  14.795   8.091
79598SOL    HW240692   1.552   0.063   8.096
79599SOL     OW40693   4.929   4.036   9.766
79599SOL    HW140694   4.958   4.051   9.856
79599SOL    HW240695   5.002   4.064   9.712
79600SOL     OW40696   5.673  11.827   1.672
79600SOL    HW140697   5.642  11.856   1.587
79600SOL    HW240698   5.745  11.886   1.693
79601SOL     OW40699   4.721   4.178   2.651
79601SOL    HW140700   4.635   4.219   2.661
79601SOL    HW240701   4.738   4.181   2.557
79602SOL     OW40702   0.045   6.902   2.367
79602SOL    HW140703   0.037   6.893   2.272
79602SOL    HW240704   0.135   6.930   2.381
79603SOL     OW40705   5.362  14.010   6.875
79603SOL    HW140706   5.332  14.071   6.941
79603SOL    HW240707   5.340  13.924   6.910
79604SOL     OW40708  10.048  11.183   8.740
79604SOL    HW140709  10.108  11.251   8.770
79604SOL    HW240710  10.105  11.109   8.716
79605SOL     OW40711   8.541  12.534   2.417
79605SOL    HW140712   8.521  12.545   2.324
79605SOL    HW240713   8.472  12.583   2.462
79606SOL     OW40714  11.799   6.996   3.141
79606SOL    HW140715  11.844   7.011   3.058
79606SOL    HW240716  11.795   7.083   3.182
79607SOL     OW40717   1.788  10.274   1.430
79607SOL    HW140718   1.715  10.243   1.376
79607SOL    HW240719   1.746  10.310   1.509
79608SOL     OW40720  13.452  10.688   5.695
79608SOL    HW140721  13.456  10.595   5.672
79608SOL    HW240722  13.364  10.715   5.668
79609SOL     OW40723  10.195   9.602  13.539
79609SOL    HW140724  10.206   9.688  13.579
79609SOL    HW240725  10.187   9.620  13.445
79610SOL     OW40726   5.181   7.399  11.655
79610SOL    HW140727   5.118   7.332  11.679
79610SOL    HW240728   5.168   7.412  11.561
79611SOL     OW40729   0.920   7.534  11.605
79611SOL    HW140730   0.936   7.446  11.570
79611SOL    HW240731   0.964   7.593  11.544
79612SOL     OW40732   9.387   0.131   1.478
79612SOL    HW140733   9.473   0.106   1.514
79612SOL    HW240734   9.331   0.140   1.556
79613SOL     OW40735  12.992   5.015  11.308
79613SOL    HW140736  13.057   5.030  11.239
79613SOL    HW240737  12.957   4.928  11.289
79614SOL     OW40738   5.947   9.117   6.810
79614SOL    HW140739   5.962   9.199   6.763
79614SOL    HW240740   5.978   9.133   6.899
79615SOL     OW40741   2.289   4.760   0.497
79615SOL    HW140742   2.222   4.759   0.428
79615SOL    HW240743   2.344   4.835   0.476
79616SOL     OW40744   9.624  13.664   9.324
79616SOL    HW140745   9.670  13.593   9.281
79616SOL    HW240746   9.589  13.625   9.404
79617SOL     OW40747   3.721  10.183   5.289
79617SOL    HW140748   3.775  10.142   5.222
79617SOL    HW240749   3.719  10.276   5.266
79618SOL     OW40750   5.061   1.043  11.835
79618SOL    HW140751   5.066   0.993  11.916
79618SOL    HW240752   5.150   1.041  11.800
79619SOL     OW40753   7.964  14.758   0.311
79619SOL    HW140754   8.017  14.836   0.295
79619SOL    HW240755   7.885  14.771   0.257
79620SOL     OW40756  13.909  14.378   5.919
79620SOL    HW140757  13.876  14.398   6.007
79620SOL    HW240758  13.980  14.316   5.934
79621SOL     OW40759   8.936   7.716   6.378
79621SOL    HW140760   8.998   7.787   6.395
79621SOL    HW240761   8.851   7.751   6.406
79622SOL     OW40762   6.023   2.578  10.055
79622SOL    HW140763   6.034   2.531   9.972
79622SOL    HW240764   6.078   2.531  10.117
79623SOL     OW40765  10.193   4.365   3.527
79623SOL    HW140766  10.215   4.308   3.601
79623SOL    HW240767  10.147   4.439   3.568
79624SOL     OW40768   2.427   8.658   5.400
79624SOL    HW140769   2.449   8.732   5.344
79624SOL    HW240770   2.431   8.582   5.343
79625SOL     OW40771   7.832   0.020  14.192
79625SOL    HW140772   7.846  14.814  14.228
79625SOL    HW240773   7.919   0.060  14.192
79626SOL     OW40774  11.844   0.498  13.706
79626SOL    HW140775  11.748   0.501  13.703
79626SOL    HW240776  11.872   0.557  13.636
79627SOL     OW40777  13.059  13.513   3.121
79627SOL    HW140778  13.016  13.512   3.036
79627SOL    HW240779  13.092  13.603   3.130
79628SOL     OW40780   6.470  13.023   1.693
79628SOL    HW140781   6.390  12.972   1.685
79628SOL    HW240782   6.478  13.041   1.786
79629SOL     OW40783  11.222  13.356   9.868
79629SOL    HW140784  11.209  13.278   9.813
79629SOL    HW240785  11.283  13.411   9.818
79630SOL     OW40786   4.232   8.213  12.770
79630SOL    HW140787   4.156   8.272  12.768
79630SOL    HW240788   4.231   8.177  12.859
79631SOL     OW40789   9.735   9.752   4.685
79631SOL    HW140790   9.664   9.723   4.742
79631SOL    HW240791   9.791   9.675   4.675
79632SOL     OW40792  11.422  12.801   7.469
79632SOL    HW140793  11.418  12.814   7.564
79632SOL    HW240794  11.330  12.801   7.441
79633SOL     OW40795   8.424   7.225   3.636
79633SOL    HW140796   8.405   7.312   3.599
79633SOL    HW240797   8.518   7.229   3.657
79634SOL     OW40798  11.721  14.090   1.393
79634SOL    HW140799  11.668  14.017   1.360
79634SOL    HW240800  11.668  14.128   1.463
79635SOL     OW40801   4.678   2.703   1.453
79635SOL    HW140802   4.682   2.651   1.373
79635SOL    HW240803   4.627   2.649   1.514
79636SOL     OW40804   3.890   8.374  11.512
79636SOL    HW140805   3.900   8.458  11.467
79636SOL    HW240806   3.851   8.317  11.446
79637SOL     OW40807   9.840  13.018  10.849
79637SOL    HW140808   9.754  13.052  10.824
79637SOL    HW240809   9.847  12.935  10.802
79638SOL     OW40810  10.809   2.317  14.191
79638SOL    HW140811  10.862   2.238  14.184
79638SOL    HW240812  10.853   2.369  14.259
79639SOL     OW40813   0.537  10.971   6.838
79639SOL    HW140814   0.444  10.991   6.840
79639SOL    HW240815   0.574  11.032   6.774
79640SOL     OW40816   9.089   4.041   8.371
79640SOL    HW140817   9.159   4.050   8.437
79640SOL    HW240818   9.093   4.122   8.321
79641SOL     OW40819  12.522   3.266  14.736
79641SOL    HW140820  12.603   3.264  14.787
79641SOL    HW240821  12.509   3.174  14.710
79642SOL     OW40822  10.837   1.737  13.067
79642SOL    HW140823  10.889   1.798  13.119
79642SOL    HW240824  10.762   1.716  13.123
79643SOL     OW40825  11.179  12.881   7.075
79643SOL    HW140826  11.272  12.887   7.055
79643SOL    HW240827  11.141  12.834   7.001
79644SOL     OW40828  10.928  12.651  12.091
79644SOL    HW140829  10.956  12.728  12.042
79644SOL    HW240830  10.942  12.675  12.183
79645SOL     OW40831   7.504   2.866  13.922
79645SOL    HW140832   7.483   2.900  14.009
79645SOL    HW240833   7.509   2.943  13.867
79646SOL     OW40834   3.453  14.224   1.199
79646SOL    HW140835   3.406  14.147   1.169
79646SOL    HW240836   3.523  14.236   1.135
79647SOL     OW40837   0.407  10.162   3.038
79647SOL    HW140838   0.458  10.242   3.027
79647SOL    HW240839   0.374  10.166   3.128
79648SOL     OW40840  13.983   7.750   7.230
79648SOL    HW140841  14.055   7.787   7.180
79648SOL    HW240842  13.929   7.825   7.254
79649SOL     OW40843  12.210   6.194   7.500
79649SOL    HW140844  12.128   6.225   7.463
79649SOL    HW240845  12.189   6.109   7.539
79650SOL     OW40846   0.231   1.367   5.336
79650SOL    HW140847   0.252   1.460   5.341
79650SOL    HW240848   0.180   1.357   5.256
79651SOL     OW40849  10.751  10.446   6.751
79651SOL    HW140850  10.656  10.451   6.741
79651SOL    HW240851  10.779  10.383   6.686
79652SOL     OW40852   4.409   4.532   2.033
79652SOL    HW140853   4.350   4.520   2.108
79652SOL    HW240854   4.367   4.600   1.980
79653SOL     OW40855   0.864   3.611  11.360
79653SOL    HW140856   0.846   3.640  11.271
79653SOL    HW240857   0.960   3.609  11.365
79654SOL     OW40858  10.816  12.126  11.994
79654SOL    HW140859  10.790  12.060  11.931
79654SOL    HW240860  10.838  12.077  12.073
79655SOL     OW40861   3.127   1.349   1.678
79655SOL    HW140862   3.201   1.305   1.720
79655SOL    HW240863   3.064   1.363   1.748
79656SOL     OW40864   8.004   1.052   6.333
79656SOL    HW140865   7.946   1.005   6.394
79656SOL    HW240866   8.026   0.988   6.266
79657SOL     OW40867   0.650   9.061   9.705
79657SOL    HW140868   0.579   9.061   9.640
79657SOL    HW240869   0.718   9.115   9.665
79658SOL     OW40870   9.751   1.993   4.334
79658SOL    HW140871   9.675   2.025   4.383
79658SOL    HW240872   9.734   2.018   4.244
79659SOL     OW40873   0.416   1.045   1.479
79659SOL    HW140874   0.329   1.020   1.512
79659SOL    HW240875   0.408   1.038   1.384
79660SOL     OW40876   3.309   9.374  13.388
79660SOL    HW140877   3.271   9.444  13.442
79660SOL    HW240878   3.323   9.415  13.303
79661SOL     OW40879   9.245   2.540   7.314
79661SOL    HW140880   9.178   2.605   7.294
79661SOL    HW240881   9.268   2.557   7.406
79662SOL     OW40882   4.875   2.335  14.251
79662SOL    HW140883   4.866   2.390  14.328
79662SOL    HW240884   4.960   2.293  14.261
79663SOL     OW40885   9.634   1.242  14.107
79663SOL    HW140886   9.664   1.330  14.082
79663SOL    HW240887   9.664   1.186  14.036
79664SOL     OW40888   2.191   3.485   2.382
79664SOL    HW140889   2.279   3.499   2.416
79664SOL    HW240890   2.181   3.552   2.314
79665SOL     OW40891   3.101   3.224   8.695
79665SOL    HW140892   3.179   3.252   8.648
79665SOL    HW240893   3.104   3.128   8.690
79666SOL     OW40894   6.131   3.230   9.065
79666SOL    HW140895   6.190   3.294   9.104
79666SOL    HW240896   6.188   3.177   9.009
79667SOL     OW40897   8.056   3.931   8.260
79667SOL    HW140898   7.999   3.951   8.334
79667SOL    HW240899   7.999   3.886   8.197
79668SOL     OW40900   3.787  12.876  13.841
79668SOL    HW140901   3.848  12.928  13.893
79668SOL    HW240902   3.728  12.939  13.801
79669SOL     OW40903   0.227   3.040  10.060
79669SOL    HW140904   0.133   3.021  10.056
79669SOL    HW240905   0.264   2.966  10.107
79670SOL     OW40906   3.199   1.740   5.829
79670SOL    HW140907   3.147   1.785   5.762
79670SOL    HW240908   3.173   1.781   5.911
79671SOL     OW40909   7.254   8.613   0.543
79671SOL    HW140910   7.259   8.571   0.629
79671SOL    HW240911   7.342   8.648   0.529
79672SOL     OW40912  13.458  13.423   9.662
79672SOL    HW140913  13.513  13.472   9.601
79672SOL    HW240914  13.518  13.387   9.727
79673SOL     OW40915   5.816   2.518  11.706
79673SOL    HW140916   5.736   2.556  11.669
79673SOL    HW240917   5.785   2.453  11.768
79674SOL     OW40918   5.312   4.761   6.345
79674SOL    HW140919   5.326   4.815   6.423
79674SOL    HW240920   5.287   4.824   6.277
79675SOL     OW40921   3.862   5.217   0.673
79675SOL    HW140922   3.806   5.225   0.595
79675SOL    HW240923   3.809   5.253   0.744
79676SOL     OW40924   7.437   1.646   6.741
79676SOL    HW140925   7.468   1.727   6.699
79676SOL    HW240926   7.363   1.618   6.688
79677SOL     OW40927   3.067   8.790  11.505
79677SOL    HW140928   3.151   8.761  11.540
79677SOL    HW240929   3.035   8.716  11.453
79678SOL     OW40930   5.058  12.970  12.839
79678SOL    HW140931   4.982  13.002  12.887
79678SOL    HW240932   5.041  12.877  12.825
79679SOL     OW40933   6.567  13.042   6.730
79679SOL    HW140934   6.511  12.991   6.789
79679SOL    HW240935   6.565  13.130   6.766
79680SOL     OW40936   0.731  10.503   1.135
79680SOL    HW140937   0.766  10.513   1.224
79680SOL    HW240938   0.658  10.565   1.130
79681SOL     OW40939  12.870   2.105   6.868
79681SOL    HW140940  12.824   2.058   6.937
79681SOL    HW240941  12.802   2.149   6.818
79682SOL     OW40942  14.544   3.435  12.613
79682SOL    HW140943  14.631   3.466  12.636
79682SOL    HW240944  14.557   3.375  12.541
79683SOL     OW40945   2.688  11.865   6.066
79683SOL    HW140946   2.769  11.888   6.112
79683SOL    HW240947   2.625  11.932   6.096
79684SOL     OW40948  13.281   0.344  14.598
79684SOL    HW140949  13.310   0.428  14.635
79684SOL    HW240950  13.241   0.367  14.514
79685SOL     OW40951   5.079   9.618  14.783
79685SOL    HW140952   5.049   9.696  14.735
79685SOL    HW240953   5.173   9.630  14.792
79686SOL     OW40954  11.569   5.037  10.806
79686SOL    HW140955  11.588   5.031  10.713
79686SOL    HW240956  11.474   5.028  10.812
79687SOL     OW40957   2.496   5.030   6.872
79687SOL    HW140958   2.474   5.069   6.956
79687SOL    HW240959   2.447   5.082   6.808
79688SOL     OW40960  13.012   5.423   6.858
79688SOL    HW140961  13.069   5.498   6.877
79688SOL    HW240962  13.050   5.351   6.908
79689SOL     OW40963   5.278   7.903   0.271
79689SOL    HW140964   5.269   7.836   0.339
79689SOL    HW240965   5.188   7.932   0.255
79690SOL     OW40966   9.557   2.974  10.867
79690SOL    HW140967   9.542   3.035  10.940
79690SOL    HW240968   9.651   2.959  10.868
79691SOL     OW40969   8.934   8.488   1.512
79691SOL    HW140970   8.880   8.487   1.433
79691SOL    HW240971   8.921   8.402   1.551
79692SOL     OW40972   9.105   5.299   0.191
79692SOL    HW140973   9.030   5.356   0.174
79692SOL    HW240974   9.156   5.302   0.110
79693SOL     OW40975  12.279   9.160  13.956
79693SOL    HW140976  12.227   9.161  14.037
79693SOL    HW240977  12.227   9.211  13.894
79694SOL     OW40978   2.008   7.016  14.765
79694SOL    HW140979   2.094   7.057  14.759
79694SOL    HW240980   1.973   7.020  14.676
79695SOL     OW40981   3.150   4.791  10.059
79695SOL    HW140982   3.109   4.749   9.983
79695SOL    HW240983   3.204   4.722  10.097
79696SOL     OW40984  12.022   6.268  11.886
79696SOL    HW140985  12.044   6.262  11.793
79696SOL    HW240986  11.994   6.179  11.910
79697SOL     OW40987   1.069   7.639   3.285
79697SOL    HW140988   0.989   7.685   3.258
79697SOL    HW240989   1.069   7.559   3.232
79698SOL     OW40990   8.029   6.695   5.638
79698SOL    HW140991   8.107   6.640   5.648
79698SOL    HW240992   7.994   6.704   5.727
79699SOL     OW40993   5.103  11.834  10.575
79699SOL    HW140994   5.084  11.864  10.486
79699SOL    HW240995   5.139  11.911  10.619
79700SOL     OW40996   6.170  14.512   3.133
79700SOL    HW140997   6.238  14.445   3.141
79700SOL    HW240998   6.115  14.498   3.210
79701SOL     OW40999   1.134  14.463   0.022
79701SOL    HW141000   1.064  14.484   0.084
79701SOL    HW241001   1.090  14.460  14.819
79702SOL     OW41002  11.425  11.350   9.046
79702SOL    HW141003  11.358  11.282   9.043
79702SOL    HW241004  11.392  11.414   9.109
79703SOL     OW41005   4.769   5.351  13.045
79703SOL    HW141006   4.727   5.430  13.013
79703SOL    HW241007   4.702   5.283  13.036
79704SOL     OW41008   2.639   7.751   2.361
79704SOL    HW141009   2.716   7.798   2.394
79704SOL    HW241010   2.666   7.718   2.276
79705SOL     OW41011   9.584   2.738   2.522
79705SOL    HW141012   9.676   2.764   2.523
79705SOL    HW241013   9.575   2.688   2.441
79706SOL     OW41014   5.860  10.457   5.337
79706SOL    HW141015   5.802  10.471   5.262
79706SOL    HW241016   5.843  10.366   5.363
79707SOL     OW41017   0.500   0.580   8.355
79707SOL    HW141018   0.489   0.547   8.444
79707SOL    HW241019   0.542   0.665   8.366
79708SOL     OW41020  11.474  11.422  11.366
79708SOL    HW141021  11.480  11.387  11.277
79708SOL    HW241022  11.387  11.462  11.370
79709SOL     OW41023   9.833   8.637  13.521
79709SOL    HW141024   9.789   8.635  13.606
79709SOL    HW241025   9.837   8.730  13.498
79710SOL     OW41026   1.992   1.324  11.486
79710SOL    HW141027   2.084   1.341  11.508
79710SOL    HW241028   1.965   1.400  11.435
79711SOL     OW41029   8.541   8.926  14.406
79711SOL    HW141030   8.477   8.878  14.353
79711SOL    HW241031   8.578   8.860  14.464
79712SOL     OW41032   7.574   5.730   5.963
79712SOL    HW141033   7.530   5.790   6.023
79712SOL    HW241034   7.652   5.702   6.010
79713SOL     OW41035   5.951   1.644   1.463
79713SOL    HW141036   5.900   1.725   1.460
79713SOL    HW241037   5.930   1.599   1.381
79714SOL     OW41038   6.973   3.678   3.481
79714SOL    HW141039   6.884   3.682   3.515
79714SOL    HW241040   6.990   3.584   3.468
79715SOL     OW41041   3.608  13.796   1.041
79715SOL    HW141042   3.643  13.740   0.971
79715SOL    HW241043   3.664  13.776   1.117
79716SOL     OW41044   6.971   3.767   7.543
79716SOL    HW141045   7.014   3.850   7.525
79716SOL    HW241046   7.007   3.707   7.477
79717SOL     OW41047   9.508  14.188   7.371
79717SOL    HW141048   9.570  14.176   7.299
79717SOL    HW241049   9.529  14.275   7.406
79718SOL     OW41050   4.018   6.355  10.794
79718SOL    HW141051   4.019   6.371  10.889
79718SOL    HW241052   4.097   6.305  10.777
79719SOL     OW41053   5.434  12.319  14.252
79719SOL    HW141054   5.480  12.237  14.270
79719SOL    HW241055   5.385  12.301  14.172
79720SOL     OW41056   0.673   9.411   3.416
79720SOL    HW141057   0.638   9.497   3.442
79720SOL    HW241058   0.679   9.362   3.497
79721SOL     OW41059  10.664   5.956   6.345
79721SOL    HW141060  10.704   6.031   6.301
79721SOL    HW241061  10.717   5.944   6.424
79722SOL     OW41062   2.504   9.429   3.752
79722SOL    HW141063   2.514   9.438   3.847
79722SOL    HW241064   2.414   9.456   3.734
79723SOL     OW41065   9.077   5.028  12.819
79723SOL    HW141066   8.988   5.061  12.817
79723SOL    HW241067   9.097   5.007  12.728
79724SOL     OW41068   0.557   4.874   1.891
79724SOL    HW141069   0.485   4.875   1.955
79724SOL    HW241070   0.538   4.949   1.834
79725SOL     OW41071   7.973   8.090   9.741
79725SOL    HW141072   7.969   8.103   9.647
79725SOL    HW241073   7.887   8.116   9.773
79726SOL     OW41074   8.337   7.787  10.590
79726SOL    HW141075   8.249   7.812  10.617
79726SOL    HW241076   8.347   7.823  10.503
79727SOL     OW41077   8.095   4.205  11.292
79727SOL    HW141078   8.098   4.137  11.359
79727SOL    HW241079   8.034   4.270  11.327
79728SOL     OW41080  13.250   0.721  11.962
79728SOL    HW141081  13.344   0.718  11.980
79728SOL    HW241082  13.215   0.641  12.000
79729SOL     OW41083   3.679   4.613   3.855
79729SOL    HW141084   3.767   4.646   3.841
79729SOL    HW241085   3.663   4.627   3.949
79730SOL     OW41086   4.381   6.035  13.659
79730SOL    HW141087   4.417   6.123  13.643
79730SOL    HW241088   4.437   5.977  13.609
79731SOL     OW41089   4.976   6.795   2.136
79731SOL    HW141090   5.039   6.828   2.072
79731SOL    HW241091   4.906   6.860   2.138
79732SOL     OW41092   8.233   5.265  11.023
79732SOL    HW141093   8.158   5.303  10.977
79732SOL    HW241094   8.305   5.327  11.006
79733SOL     OW41095   2.026  13.209   2.828
79733SOL    HW141096   1.998  13.137   2.772
79733SOL    HW241097   1.966  13.281   2.808
79734SOL     OW41098   7.700   9.481  14.751
79734SOL    HW141099   7.794   9.484  14.765
79734SOL    HW241100   7.673   9.573  14.747
79735SOL     OW41101   1.599   3.952   6.697
79735SOL    HW141102   1.573   3.898   6.622
79735SOL    HW241103   1.534   4.023   6.699
79736SOL     OW41104  11.014   1.888   4.512
79736SOL    HW141105  10.931   1.915   4.550
79736SOL    HW241106  10.999   1.890   4.418
79737SOL     OW41107   8.147   8.511  10.972
79737SOL    HW141108   8.221   8.451  10.964
79737SOL    HW241109   8.169   8.583  10.913
79738SOL     OW41110  12.731   5.455   8.700
79738SOL    HW141111  12.804   5.516   8.705
79738SOL    HW241112  12.722   5.421   8.789
79739SOL     OW41113  11.083   7.014  14.056
79739SOL    HW141114  11.149   6.958  14.097
79739SOL    HW241115  11.047   7.066  14.128
79740SOL     OW41116   8.611   2.628   6.134
79740SOL    HW141117   8.618   2.718   6.165
79740SOL    HW241118   8.576   2.579   6.208
79741SOL     OW41119  14.220  11.071   6.730
79741SOL    HW141120  14.254  10.982   6.735
79741SOL    HW241121  14.232  11.107   6.818
79742SOL     OW41122   9.508   5.245  10.608
79742SOL    HW141123   9.450   5.220  10.537
79742SOL    HW241124   9.454   5.237  10.687
79743SOL     OW41125   6.926  11.250   4.047
79743SOL    HW141126   6.971  11.221   4.126
79743SOL    HW241127   6.910  11.344   4.061
79744SOL     OW41128   0.730  14.019  14.675
79744SOL    HW141129   0.698  13.942  14.627
79744SOL    HW241130   0.729  13.991  14.767
79745SOL     OW41131   1.773   6.345   0.418
79745SOL    HW141132   1.730   6.325   0.501
79745SOL    HW241133   1.851   6.394   0.442
79746SOL     OW41134   2.037  13.317   3.967
79746SOL    HW141135   2.114  13.290   3.917
79746SOL    HW241136   1.982  13.364   3.905
79747SOL     OW41137   5.331   3.077   4.032
79747SOL    HW141138   5.281   2.999   4.057
79747SOL    HW241139   5.305   3.143   4.096
79748SOL     OW41140   7.898   0.072   8.329
79748SOL    HW141141   7.822   0.114   8.289
79748SOL    HW241142   7.883   0.079   8.423
79749SOL     OW41143   5.664   9.107   6.444
79749SOL    HW141144   5.720   9.162   6.389
79749SOL    HW241145   5.724   9.046   6.486
79750SOL     OW41146   8.260  11.534  13.165
79750SOL    HW141147   8.234  11.444  13.188
79750SOL    HW241148   8.297  11.526  13.077
79751SOL     OW41149   4.613   4.124  11.383
79751SOL    HW141150   4.604   4.137  11.478
79751SOL    HW241151   4.544   4.061  11.361
79752SOL     OW41152   6.251  14.112   9.347
79752SOL    HW141153   6.269  14.028   9.304
79752SOL    HW241154   6.160  14.105   9.376
79753SOL     OW41155  11.477   1.972   1.513
79753SOL    HW141156  11.386   1.967   1.482
79753SOL    HW241157  11.515   2.044   1.462
79754SOL     OW41158   4.888  11.761   2.328
79754SOL    HW141159   4.976  11.788   2.305
79754SOL    HW241160   4.899  11.684   2.383
79755SOL     OW41161  13.484  14.281   2.189
79755SOL    HW141162  13.430  14.322   2.121
79755SOL    HW241163  13.423  14.227   2.238
79756SOL     OW41164   0.420   5.529   9.497
79756SOL    HW141165   0.506   5.494   9.476
79756SOL    HW241166   0.415   5.612   9.448
79757SOL     OW41167   2.695   3.814   5.038
79757SOL    HW141168   2.687   3.874   4.964
79757SOL    HW241169   2.788   3.792   5.041
79758SOL     OW41170   5.734  10.036   4.775
79758SOL    HW141171   5.816  10.077   4.746
79758SOL    HW241172   5.759   9.947   4.798
79759SOL     OW41173  11.663  10.044  10.866
79759SOL    HW141174  11.665   9.974  10.801
79759SOL    HW241175  11.571  10.048  10.894
79760SOL     OW41176  10.488  13.362   2.078
79760SOL    HW141177  10.451  13.392   2.161
79760SOL    HW241178  10.571  13.409   2.071
79761SOL     OW41179  12.132   8.224  11.448
79761SOL    HW141180  12.149   8.153  11.510
79761SOL    HW241181  12.215   8.236  11.401
79762SOL     OW41182   2.527  11.840   9.851
79762SOL    HW141183   2.584  11.801   9.785
79762SOL    HW241184   2.587  11.885   9.911
79763SOL     OW41185   8.436   5.252  14.391
79763SOL    HW141186   8.530   5.252  14.374
79763SOL    HW241187   8.425   5.194  14.466
79764SOL     OW41188   6.098   1.615   0.258
79764SOL    HW141189   6.120   1.663   0.338
79764SOL    HW241190   6.019   1.659   0.225
79765SOL     OW41191   5.612  12.544   0.223
79765SOL    HW141192   5.526  12.534   0.264
79765SOL    HW241193   5.673  12.509   0.288
79766SOL     OW41194  13.507   1.844   5.956
79766SOL    HW141195  13.447   1.915   5.934
79766SOL    HW241196  13.488   1.776   5.892
79767SOL     OW41197   1.682  13.185   6.345
79767SOL    HW141198   1.741  13.222   6.279
79767SOL    HW241199   1.655  13.101   6.308
79768SOL     OW41200  11.906   7.825   6.289
79768SOL    HW141201  11.874   7.742   6.323
79768SOL    HW241202  11.878   7.890   6.354
79769SOL     OW41203   1.344  12.735  14.147
79769SOL    HW141204   1.371  12.792  14.075
79769SOL    HW241205   1.396  12.766  14.222
79770SOL     OW41206   0.676   7.220   9.473
79770SOL    HW141207   0.609   7.225   9.542
79770SOL    HW241208   0.747   7.277   9.505
79771SOL     OW41209   4.705   9.494  14.402
79771SOL    HW141210   4.737   9.507  14.313
79771SOL    HW241211   4.718   9.401  14.419
79772SOL     OW41212   8.049   0.187   3.927
79772SOL    HW141213   7.984   0.195   3.857
79772SOL    HW241214   8.006   0.136   3.995
79773SOL     OW41215   1.016   2.490  14.547
79773SOL    HW141216   0.924   2.518  14.538
79773SOL    HW241217   1.015   2.397  14.523
79774SOL     OW41218   9.449   3.787  11.870
79774SOL    HW141219   9.354   3.799  11.872
79774SOL    HW241220   9.462   3.702  11.828
79775SOL     OW41221   9.504  13.157   5.490
79775SOL    HW141222   9.471  13.165   5.580
79775SOL    HW241223   9.434  13.114   5.442
79776SOL     OW41224   2.481   9.899   7.852
79776SOL    HW141225   2.552   9.937   7.904
79776SOL    HW241226   2.523   9.870   7.771
79777SOL     OW41227   0.522   7.523   7.825
79777SOL    HW141228   0.616   7.541   7.824
79777SOL    HW241229   0.507   7.468   7.748
79778SOL     OW41230  12.890  10.280   4.710
79778SOL    HW141231  12.882  10.204   4.767
79778SOL    HW241232  12.806  10.325   4.719
79779SOL     OW41233  14.153  10.831  12.676
79779SOL    HW141234  14.222  10.897  12.679
79779SOL    HW241235  14.155  10.790  12.763
79780SOL     OW41236  13.730   6.183   8.164
79780SOL    HW141237  13.776   6.248   8.217
79780SOL    HW241238  13.755   6.099   8.202
79781SOL     OW41239   2.343   7.926  12.722
79781SOL    HW141240   2.312   8.007  12.762
79781SOL    HW241241   2.291   7.917  12.642
79782SOL     OW41242   3.632   3.835  13.947
79782SOL    HW141243   3.555   3.788  13.979
79782SOL    HW241244   3.670   3.776  13.880
79783SOL     OW41245   4.662   5.689  10.355
79783SOL    HW141246   4.629   5.674  10.266
79783SOL    HW241247   4.588   5.666  10.411
79784SOL     OW41248   8.422   4.415   6.776
79784SOL    HW141249   8.393   4.347   6.715
79784SOL    HW241250   8.507   4.442   6.742
79785SOL     OW41251  12.320   2.658   7.941
79785SOL    HW141252  12.407   2.697   7.935
79785SOL    HW241253  12.264   2.715   7.888
79786SOL     OW41254   4.293   3.757   1.214
79786SOL    HW141255   4.220   3.818   1.208
79786SOL    HW241256   4.321   3.763   1.306
79787SOL     OW41257  14.587   7.748  13.734
79787SOL    HW141258  14.496   7.731  13.707
79787SOL    HW241259  14.585   7.744  13.829
79788SOL     OW41260   3.726  12.299  10.701
79788SOL    HW141261   3.747  12.211  10.670
79788SOL    HW241262   3.797  12.322  10.761
79789SOL     OW41263  13.404  12.791   9.686
79789SOL    HW141264  13.489  12.771   9.723
79789SOL    HW241265  13.360  12.843   9.754
79790SOL     OW41266  13.359   0.475   5.195
79790SOL    HW141267  13.282   0.495   5.143
79790SOL    HW241268  13.363   0.545   5.260
79791SOL     OW41269  10.443  12.710   4.948
79791SOL    HW141270  10.491  12.747   5.022
79791SOL    HW241271  10.442  12.616   4.963
79792SOL     OW41272  14.343   1.393   0.839
79792SOL    HW141273  14.340   1.335   0.916
79792SOL    HW241274  14.271   1.455   0.853
79793SOL     OW41275   6.344   0.094   7.031
79793SOL    HW141276   6.346   0.019   7.091
79793SOL    HW241277   6.425   0.142   7.051
79794SOL     OW41278   7.079   1.178   7.488
79794SOL    HW141279   7.092   1.180   7.393
79794SOL    HW241280   6.986   1.197   7.500
79795SOL     OW41281   2.780  14.037  11.238
79795SOL    HW141282   2.699  14.084  11.218
79795SOL    HW241283   2.765  13.999  11.325
79796SOL     OW41284   1.903   3.530  10.826
79796SOL    HW141285   1.888   3.466  10.756
79796SOL    HW241286   1.918   3.613  10.780
79797SOL     OW41287   6.900   8.993   9.911
79797SOL    HW141288   6.974   9.043   9.878
79797SOL    HW241289   6.896   8.916   9.854
79798SOL     OW41290   5.763   8.508  13.994
79798SOL    HW141291   5.761   8.580  13.931
79798SOL    HW241292   5.705   8.442  13.956
79799SOL     OW41293   4.229   5.658  10.867
79799SOL    HW141294   4.261   5.748  10.876
79799SOL    HW241295   4.148   5.656  10.917
79800SOL     OW41296   0.309   8.504  10.578
79800SOL    HW141297   0.280   8.568  10.513
79800SOL    HW241298   0.282   8.541  10.662
79801SOL     OW41299   5.082  14.879  14.727
79801SOL    HW141300   5.007  14.873  14.786
79801SOL    HW241301   5.059  14.821  14.655
79802SOL     OW41302   0.134  10.709   6.963
79802SOL    HW141303   0.078  10.782   6.937
79802SOL    HW241304   0.203  10.706   6.896
79803SOL     OW41305   5.701   0.852   6.511
79803SOL    HW141306   5.628   0.890   6.463
79803SOL    HW241307   5.701   0.759   6.486
79804SOL     OW41308  14.340   5.305   7.785
79804SOL    HW141309  14.253   5.280   7.819
79804SOL    HW241310  14.343   5.400   7.795
79805SOL     OW41311   3.887  12.143   7.557
79805SOL    HW141312   3.898  12.057   7.517
79805SOL    HW241313   3.836  12.127   7.636
79806SOL     OW41314  11.915  11.674   9.005
79806SOL    HW141315  12.008  11.685   8.984
79806SOL    HW241316  11.872  11.664   8.921
79807SOL     OW41317  13.768  10.871  14.736
79807SOL    HW141318  13.751  10.888  14.644
79807SOL    HW241319  13.759  10.776  14.746
79808SOL     OW41320   7.324   6.131   0.255
79808SOL    HW141321   7.303   6.214   0.211
79808SOL    HW241322   7.325   6.066   0.185
79809SOL     OW41323   7.961   9.218   2.883
79809SOL    HW141324   7.944   9.176   2.968
79809SOL    HW241325   7.919   9.304   2.890
79810SOL     OW41326   8.631   2.241  11.233
79810SOL    HW141327   8.680   2.315  11.268
79810SOL    HW241328   8.541   2.273  11.226
79811SOL     OW41329   1.118   0.277   7.093
79811SOL    HW141330   1.181   0.342   7.064
79811SOL    HW241331   1.080   0.315   7.173
79812SOL     OW41332   2.297  12.618   6.624
79812SOL    HW141333   2.249  12.699   6.609
79812SOL    HW241334   2.387  12.638   6.599
79813SOL     OW41335   7.136   7.650   4.990
79813SOL    HW141336   7.097   7.641   5.077
79813SOL    HW241337   7.062   7.667   4.932
79814SOL     OW41338  12.497   7.245  10.995
79814SOL    HW141339  12.454   7.283  11.072
79814SOL    HW241340  12.444   7.169  10.973
79815SOL     OW41341   4.202   8.578  11.538
79815SOL    HW141342   4.283   8.610  11.577
79815SOL    HW241343   4.210   8.483  11.539
79816SOL     OW41344  10.385  13.691  11.119
79816SOL    HW141345  10.416  13.766  11.169
79816SOL    HW241346  10.425  13.615  11.162
79817SOL     OW41347   2.086   6.126   5.547
79817SOL    HW141348   2.140   6.204   5.559
79817SOL    HW241349   2.026   6.150   5.476
79818SOL     OW41350   2.880   9.949  10.247
79818SOL    HW141351   2.862   9.916  10.335
79818SOL    HW241352   2.946   9.889  10.212
79819SOL     OW41353  14.344   2.686   6.707
79819SOL    HW141354  14.281   2.713   6.640
79819SOL    HW241355  14.369   2.597   6.683
79820SOL     OW41356  12.911  11.385  11.011
79820SOL    HW141357  12.907  11.329  11.089
79820SOL    HW241358  12.997  11.366  10.973
79821SOL     OW41359  11.938   9.511  11.613
79821SOL    HW141360  11.886   9.566  11.555
79821SOL    HW241361  11.875   9.450  11.651
79822SOL     OW41362  12.187   4.531   0.107
79822SOL    HW141363  12.148   4.470   0.170
79822SOL    HW241364  12.280   4.531   0.128
79823SOL     OW41365   4.162   6.916   1.945
79823SOL    HW141366   4.127   6.894   2.031
79823SOL    HW241367   4.154   6.835   1.894
79824SOL     OW41368   9.756  11.772   9.764
79824SOL    HW141369   9.801  11.691   9.789
79824SOL    HW241370   9.804  11.802   9.687
79825SOL     OW41371   5.210   2.176  12.963
79825SOL    HW141372   5.143   2.166  13.031
79825SOL    HW241373   5.214   2.270  12.947
79826SOL     OW41374   3.838   4.458  11.498
79826SOL    HW141375   3.889   4.407  11.560
79826SOL    HW241376   3.755   4.412  11.492
79827SOL     OW41377   0.231  14.392   2.152
79827SOL    HW141378   0.226  14.299   2.128
79827SOL    HW241379   0.300  14.427   2.095
79828SOL     OW41380   8.417   0.269   7.699
79828SOL    HW141381   8.388   0.352   7.735
79828SOL    HW241382   8.355   0.251   7.627
79829SOL     OW41383   8.564   2.134   3.486
79829SOL    HW141384   8.520   2.182   3.416
79829SOL    HW241385   8.515   2.156   3.565
79830SOL     OW41386  14.454  13.698   0.403
79830SOL    HW141387  14.388  13.654   0.349
79830SOL    HW241388  14.515  13.735   0.339
79831SOL     OW41389  11.840   0.780   0.613
79831SOL    HW141390  11.890   0.755   0.535
79831SOL    HW241391  11.765   0.827   0.578
79832SOL     OW41392   8.153  14.882  10.414
79832SOL    HW141393   8.075   0.010  10.359
79832SOL    HW241394   8.143   0.066  10.483
79833SOL     OW41395  12.789   0.856   8.011
79833SOL    HW141396  12.732   0.903   7.951
79833SOL    HW241397  12.853   0.921   8.040
79834SOL     OW41398   7.882   0.561   8.854
79834SOL    HW141399   7.903   0.636   8.911
79834SOL    HW241400   7.794   0.535   8.880
79835SOL     OW41401   5.810   5.040   8.856
79835SOL    HW141402   5.858   5.078   8.929
79835SOL    HW241403   5.769   4.961   8.893
79836SOL     OW41404  13.297   5.950   4.126
79836SOL    HW141405  13.369   6.004   4.093
79836SOL    HW241406  13.311   5.949   4.221
79837SOL     OW41407   9.099   1.205   3.175
79837SOL    HW141408   9.058   1.130   3.220
79837SOL    HW241409   9.026   1.265   3.160
79838SOL     OW41410   0.218   1.316   1.136
79838SOL    HW141411   0.241   1.401   1.098
79838SOL    HW241412   0.297   1.263   1.124
79839SOL     OW41413   5.942   5.360   0.678
79839SOL    HW141414   5.856   5.372   0.719
79839SOL    HW241415   5.949   5.265   0.666
79840SOL     OW41416   7.263   9.567   1.506
79840SOL    HW141417   7.283   9.660   1.501
79840SOL    HW241418   7.336   9.524   1.461
79841SOL     OW41419  12.733   1.551   9.548
79841SOL    HW141420  12.700   1.495   9.478
79841SOL    HW241421  12.734   1.494   9.626
79842SOL     OW41422   1.460   7.500  11.635
79842SOL    HW141423   1.523   7.550  11.688
79842SOL    HW241424   1.515   7.443  11.581
79843SOL     OW41425   0.455  12.127  12.776
79843SOL    HW141426   0.548  12.103  12.782
79843SOL    HW241427   0.455  12.223  12.778
79844SOL     OW41428   4.245  14.035   2.559
79844SOL    HW141429   4.198  13.957   2.528
79844SOL    HW241430   4.265  14.016   2.651
79845SOL     OW41431  11.432   2.740   0.946
79845SOL    HW141432  11.479   2.743   1.030
79845SOL    HW241433  11.382   2.822   0.944
79846SOL     OW41434   0.652   1.180   8.066
79846SOL    HW141435   0.568   1.160   8.024
79846SOL    HW241436   0.629   1.217   8.151
79847SOL     OW41437   0.216  13.671  14.869
79847SOL    HW141438   0.287  13.718  14.825
79847SOL    HW241439   0.259  13.601   0.035
79848SOL     OW41440   3.888   0.517   8.793
79848SOL    HW141441   3.813   0.576   8.797
79848SOL    HW241442   3.876   0.457   8.866
79849SOL     OW41443   8.359   6.899   4.789
79849SOL    HW141444   8.414   6.973   4.764
79849SOL    HW241445   8.374   6.834   4.721
79850SOL     OW41446  14.425   1.058   1.479
79850SOL    HW141447  14.368   1.129   1.509
79850SOL    HW241448  14.365   0.993   1.443
79851SOL     OW41449   9.138   9.436   9.865
79851SOL    HW141450   9.156   9.408   9.776
79851SOL    HW241451   9.213   9.490   9.890
79852SOL     OW41452  11.333   8.770  14.127
79852SOL    HW141453  11.347   8.683  14.163
79852SOL    HW241454  11.292   8.819  14.199
79853SOL     OW41455  10.871   1.021   7.519
79853SOL    HW141456  10.776   1.009   7.521
79853SOL    HW241457  10.902   0.981   7.600
79854SOL     OW41458   5.113   1.996   1.228
79854SOL    HW141459   5.202   2.012   1.257
79854SOL    HW241460   5.084   1.921   1.279
79855SOL     OW41461   9.274  11.384   2.568
79855SOL    HW141462   9.338  11.319   2.538
79855SOL    HW241463   9.196  11.333   2.588
79856SOL     OW41464   1.980   0.768   9.847
79856SOL    HW141465   1.955   0.821   9.771
79856SOL    HW241466   1.974   0.678   9.815
79857SOL     OW41467   7.213   8.526   2.079
79857SOL    HW141468   7.130   8.543   2.034
79857SOL    HW241469   7.197   8.556   2.169
79858SOL     OW41470  14.259  13.709   9.953
79858SOL    HW141471  14.214  13.780   9.908
79858SOL    HW241472  14.241  13.724  10.046
79859SOL     OW41473  10.603  13.795  14.124
79859SOL    HW141474  10.612  13.885  14.093
79859SOL    HW241475  10.624  13.799  14.217
79860SOL     OW41476   6.350   2.119  10.351
79860SOL    HW141477   6.423   2.117  10.288
79860SOL    HW241478   6.356   2.206  10.391
79861SOL     OW41479  12.252   2.585  11.001
79861SOL    HW141480  12.299   2.583  10.917
79861SOL    HW241481  12.280   2.667  11.042
79862SOL     OW41482   3.464   4.672   1.374
79862SOL    HW141483   3.396   4.604   1.369
79862SOL    HW241484   3.441   4.733   1.303
79863SOL     OW41485   8.024   9.064   0.315
79863SOL    HW141486   7.936   9.038   0.340
79863SOL    HW241487   8.032   9.037   0.223
79864SOL     OW41488   5.297  12.236   9.350
79864SOL    HW141489   5.247  12.309   9.387
79864SOL    HW241490   5.234  12.188   9.296
79865SOL     OW41491   0.191  14.219   0.569
79865SOL    HW141492   0.156  14.211   0.480
79865SOL    HW241493   0.114  14.208   0.625
79866SOL     OW41494   3.950   9.980   2.805
79866SOL    HW141495   3.998  10.003   2.885
79866SOL    HW241496   3.960  10.056   2.748
79867SOL     OW41497   1.198   1.175  14.748
79867SOL    HW141498   1.190   1.263  14.785
79867SOL    HW241499   1.211   1.118  14.824
79868SOL     OW41500   8.607   7.050   4.516
79868SOL    HW141501   8.542   7.055   4.445
79868SOL    HW241502   8.691   7.039   4.471
79869SOL     OW41503  13.570   2.552   4.199
79869SOL    HW141504  13.548   2.644   4.187
79869SOL    HW241505  13.600   2.523   4.112
79870SOL     OW41506  11.513   4.671   9.242
79870SOL    HW141507  11.558   4.753   9.264
79870SOL    HW241508  11.438   4.669   9.302
79871SOL     OW41509  13.292   4.656  10.130
79871SOL    HW141510  13.346   4.579  10.146
79871SOL    HW241511  13.302   4.673  10.036
79872SOL     OW41512  14.325   9.768   2.261
79872SOL    HW141513  14.371   9.686   2.241
79872SOL    HW241514  14.387   9.836   2.233
79873SOL     OW41515   3.155   3.295  12.302
79873SOL    HW141516   3.102   3.300  12.223
79873SOL    HW241517   3.226   3.236  12.280
79874SOL     OW41518   7.930  10.983   4.121
79874SOL    HW141519   7.860  10.965   4.184
79874SOL    HW241520   7.886  10.983   4.036
79875SOL     OW41521  13.811  14.449  11.623
79875SOL    HW141522  13.772  14.398  11.552
79875SOL    HW241523  13.905  14.432  11.618
79876SOL     OW41524   1.507  11.065   5.203
79876SOL    HW141525   1.566  11.134   5.173
79876SOL    HW241526   1.523  10.992   5.144
79877SOL     OW41527  14.238   8.994  11.272
79877SOL    HW141528  14.266   8.989  11.180
79877SOL    HW241529  14.314   9.029  11.318
79878SOL     OW41530  12.866   6.737   8.469
79878SOL    HW141531  12.845   6.817   8.421
79878SOL    HW241532  12.946   6.705   8.427
79879SOL     OW41533   5.327   0.996   6.522
79879SOL    HW141534   5.377   0.968   6.445
79879SOL    HW241535   5.333   1.092   6.520
79880SOL     OW41536   4.292   8.879   9.121
79880SOL    HW141537   4.220   8.819   9.143
79880SOL    HW241538   4.255   8.936   9.053
79881SOL     OW41539   2.580   3.146   1.611
79881SOL    HW141540   2.607   3.130   1.521
79881SOL    HW241541   2.504   3.203   1.605
79882SOL     OW41542   4.505  12.094   9.804
79882SOL    HW141543   4.569  12.157   9.839
79882SOL    HW241544   4.559  12.026   9.763
79883SOL     OW41545   0.992   7.801  12.704
79883SOL    HW141546   1.044   7.859  12.648
79883SOL    HW241547   1.057   7.757  12.759
79884SOL     OW41548   4.952   0.791   8.660
79884SOL    HW141549   4.893   0.804   8.735
79884SOL    HW241550   4.903   0.737   8.599
79885SOL     OW41551   8.167   3.271   8.778
79885SOL    HW141552   8.175   3.336   8.848
79885SOL    HW241553   8.159   3.187   8.823
79886SOL     OW41554   9.380   1.809   8.223
79886SOL    HW141555   9.427   1.726   8.210
79886SOL    HW241556   9.450   1.874   8.228
79887SOL     OW41557   7.990  11.767  11.753
79887SOL    HW141558   7.996  11.824  11.677
79887SOL    HW241559   7.897  11.746  11.760
79888SOL     OW41560  11.479   6.944   4.906
79888SOL    HW141561  11.571   6.921   4.919
79888SOL    HW241562  11.467   6.944   4.811
79889SOL     OW41563   4.911   3.192   4.413
79889SOL    HW141564   4.975   3.138   4.459
79889SOL    HW241565   4.827   3.168   4.452
79890SOL     OW41566  12.358   4.611   6.075
79890SOL    HW141567  12.288   4.577   6.130
79890SOL    HW241568  12.371   4.701   6.105
79891SOL     OW41569  14.301  13.268   5.059
79891SOL    HW141570  14.236  13.309   5.002
79891SOL    HW241571  14.383  13.273   5.010
79892SOL     OW41572  12.695   8.904  13.387
79892SOL    HW141573  12.628   8.843  13.357
79892SOL    HW241574  12.705   8.886  13.481
79893SOL     OW41575   0.319   0.953  12.334
79893SOL    HW141576   0.393   1.000  12.295
79893SOL    HW241577   0.248   1.018  12.338
79894SOL     OW41578   2.668  14.338   1.338
79894SOL    HW141579   2.690  14.245   1.343
79894SOL    HW241580   2.753  14.382   1.331
79895SOL     OW41581   5.286  14.459  14.584
79895SOL    HW141582   5.206  14.512  14.594
79895SOL    HW241583   5.254  14.369  14.585
79896SOL     OW41584   5.187   8.361   7.678
79896SOL    HW141585   5.107   8.308   7.678
79896SOL    HW241586   5.159   8.447   7.709
79897SOL     OW41587   9.752   7.660  14.080
79897SOL    HW141588   9.657   7.645  14.087
79897SOL    HW241589   9.762   7.754  14.099
79898SOL     OW41590   3.398   8.079   5.446
79898SOL    HW141591   3.306   8.095   5.426
79898SOL    HW241592   3.418   8.138   5.518
79899SOL     OW41593   5.210   8.061  13.625
79899SOL    HW141594   5.158   8.069  13.545
79899SOL    HW241595   5.294   8.101  13.603
79900SOL     OW41596   0.625   5.232  13.886
79900SOL    HW141597   0.656   5.236  13.976
79900SOL    HW241598   0.544   5.283  13.886
79901SOL     OW41599   8.417   6.658   3.009
79901SOL    HW141600   8.329   6.622   3.006
79901SOL    HW241601   8.414   6.735   2.953
79902SOL     OW41602   2.885   6.992   1.679
79902SOL    HW141603   2.828   7.028   1.612
79902SOL    HW241604   2.837   6.916   1.713
79903SOL     OW41605   3.519  14.674   5.821
79903SOL    HW141606   3.457  14.676   5.748
79903SOL    HW241607   3.488  14.602   5.876
79904SOL     OW41608  13.519  12.281   8.294
79904SOL    HW141609  13.487  12.322   8.374
79904SOL    HW241610  13.565  12.203   8.324
79905SOL     OW41611   2.328   9.097   4.579
79905SOL    HW141612   2.340   9.026   4.642
79905SOL    HW241613   2.399   9.085   4.516
79906SOL     OW41614  11.437  14.685   0.134
79906SOL    HW141615  11.437  14.658   0.226
79906SOL    HW241616  11.348  14.717   0.119
79907SOL     OW41617   5.194  10.623   9.682
79907SOL    HW141618   5.171  10.713   9.658
79907SOL    HW241619   5.132  10.569   9.633
79908SOL     OW41620  13.101   4.980   3.222
79908SOL    HW141621  13.037   4.946   3.160
79908SOL    HW241622  13.180   4.927   3.208
79909SOL     OW41623   6.473  14.537  12.549
79909SOL    HW141624   6.504  14.570  12.464
79909SOL    HW241625   6.516  14.594  12.613
79910SOL     OW41626   1.784   9.031   7.100
79910SOL    HW141627   1.741   8.958   7.054
79910SOL    HW241628   1.769   9.107   7.043
79911SOL     OW41629   8.617   6.011   6.058
79911SOL    HW141630   8.698   5.995   6.009
79911SOL    HW241631   8.646   6.033   6.147
79912SOL     OW41632   1.441   0.341   7.503
79912SOL    HW141633   1.506   0.396   7.545
79912SOL    HW241634   1.426   0.383   7.418
79913SOL     OW41635   7.302  12.928  11.862
79913SOL    HW141636   7.348  12.994  11.914
79913SOL    HW241637   7.359  12.852  11.865
79914SOL     OW41638   2.443   2.409   9.932
79914SOL    HW141639   2.438   2.442   9.842
79914SOL    HW241640   2.353   2.393   9.957
79915SOL     OW41641   6.685   6.602   4.483
79915SOL    HW141642   6.670   6.645   4.399
79915SOL    HW241643   6.617   6.535   4.489
79916SOL     OW41644   2.653   4.790   6.962
79916SOL    HW141645   2.632   4.868   6.910
79916SOL    HW241646   2.724   4.819   7.020
79917SOL     OW41647   9.974   2.757   9.694
79917SOL    HW141648   9.885   2.751   9.729
79917SOL    HW241649   9.963   2.749   9.599
79918SOL     OW41650   4.868   8.666   2.353
79918SOL    HW141651   4.877   8.748   2.304
79918SOL    HW241652   4.848   8.601   2.286
79919SOL     OW41653   4.648  12.133   3.266
79919SOL    HW141654   4.693  12.212   3.297
79919SOL    HW241655   4.558  12.162   3.250
79920SOL     OW41656  10.597  11.291  12.909
79920SOL    HW141657  10.643  11.374  12.902
79920SOL    HW241658  10.528  11.307  12.974
79921SOL     OW41659   9.027   6.465   0.698
79921SOL    HW141660   9.067   6.521   0.632
79921SOL    HW241661   9.100   6.419   0.739
79922SOL     OW41662   5.998  13.070   7.868
79922SOL    HW141663   5.996  13.132   7.795
79922SOL    HW241664   6.074  13.097   7.919
79923SOL     OW41665  13.547  11.877  11.015
79923SOL    HW141666  13.593  11.960  11.032
79923SOL    HW241667  13.459  11.903  10.989
79924SOL     OW41668   3.184   8.511   4.244
79924SOL    HW141669   3.218   8.536   4.330
79924SOL    HW241670   3.157   8.420   4.254
79925SOL     OW41671   0.579   9.235   6.499
79925SOL    HW141672   0.489   9.267   6.492
79925SOL    HW241673   0.632   9.301   6.455
79926SOL     OW41674  10.821   2.902   6.761
79926SOL    HW141675  10.896   2.923   6.817
79926SOL    HW241676  10.790   2.816   6.793
79927SOL     OW41677  12.980   9.614   5.839
79927SOL    HW141678  12.960   9.707   5.828
79927SOL    HW241679  12.987   9.580   5.750
79928SOL     OW41680  11.632   6.901   0.583
79928SOL    HW141681  11.604   6.989   0.608
79928SOL    HW241682  11.670   6.912   0.496
79929SOL     OW41683   4.454   7.909   7.963
79929SOL    HW141684   4.456   7.820   7.928
79929SOL    HW241685   4.361   7.933   7.964
79930SOL     OW41686  14.138   9.764  10.520
79930SOL    HW141687  14.113   9.726  10.436
79930SOL    HW241688  14.145   9.689  10.579
79931SOL     OW41689  14.186  12.147   9.609
79931SOL    HW141690  14.261  12.089   9.620
79931SOL    HW241691  14.223  12.226   9.569
79932SOL     OW41692   9.650   7.801   8.247
79932SOL    HW141693   9.584   7.806   8.178
79932SOL    HW241694   9.680   7.710   8.245
79933SOL     OW41695  12.850   5.956   6.619
79933SOL    HW141696  12.853   5.975   6.526
79933SOL    HW241697  12.871   5.863   6.625
79934SOL     OW41698  12.905  11.460   0.597
79934SOL    HW141699  12.862  11.537   0.561
79934SOL    HW241700  12.968  11.496   0.660
79935SOL     OW41701   9.640   4.141   8.885
79935SOL    HW141702   9.604   4.053   8.894
79935SOL    HW241703   9.735   4.127   8.877
79936SOL     OW41704   0.961   8.516   6.501
79936SOL    HW141705   0.922   8.496   6.417
79936SOL    HW241706   0.951   8.610   6.511
79937SOL     OW41707  10.494   6.043   2.697
79937SOL    HW141708  10.564   6.062   2.634
79937SOL    HW241709  10.539   6.029   2.780
79938SOL     OW41710   5.389   9.093   7.216
79938SOL    HW141711   5.388   9.052   7.130
79938SOL    HW241712   5.389   9.187   7.198
79939SOL     OW41713   1.735   1.248   5.799
79939SOL    HW141714   1.794   1.292   5.737
79939SOL    HW241715   1.730   1.158   5.767
79940SOL     OW41716   4.733  10.414  12.770
79940SOL    HW141717   4.804  10.477  12.784
79940SOL    HW241718   4.663  10.465  12.729
79941SOL     OW41719   0.291  12.421   6.315
79941SOL    HW141720   0.322  12.435   6.225
79941SOL    HW241721   0.200  12.392   6.305
79942SOL     OW41722  10.201  10.147  11.635
79942SOL    HW141723  10.268  10.083  11.613
79942SOL    HW241724  10.245  10.210  11.692
79943SOL     OW41725  11.912   5.042  12.119
79943SOL    HW141726  11.979   4.992  12.166
79943SOL    HW241727  11.887   5.112  12.179
79944SOL     OW41728   8.292   2.237  12.064
79944SOL    HW141729   8.309   2.195  12.149
79944SOL    HW241730   8.246   2.170  12.013
79945SOL     OW41731   5.156   3.498   7.738
79945SOL    HW141732   5.227   3.469   7.795
79945SOL    HW241733   5.178   3.589   7.716
79946SOL     OW41734   3.472   6.648   4.189
79946SOL    HW141735   3.512   6.705   4.254
79946SOL    HW241736   3.512   6.674   4.105
79947SOL     OW41737   6.529  12.252   3.573
79947SOL    HW141738   6.539  12.217   3.484
79947SOL    HW241739   6.562  12.183   3.630
79948SOL     OW41740   3.356   3.084  14.435
79948SOL    HW141741   3.322   3.027  14.504
79948SOL    HW241742   3.336   3.038  14.353
79949SOL     OW41743   1.592   6.644  12.878
79949SOL    HW141744   1.574   6.730  12.918
79949SOL    HW241745   1.514   6.592  12.898
79950SOL     OW41746  11.900   4.617  12.682
79950SOL    HW141747  11.925   4.540  12.734
79950SOL    HW241748  11.869   4.580  12.599
79951SOL     OW41749  10.179  12.757   5.461
79951SOL    HW141750  10.155  12.816   5.390
79951SOL    HW241751  10.111  12.689   5.460
79952SOL     OW41752   7.838   6.411  13.929
79952SOL    HW141753   7.828   6.322  13.895
79952SOL    HW241754   7.932   6.423  13.937
79953SOL     OW41755   9.846   2.878   5.437
79953SOL    HW141756   9.812   2.838   5.518
79953SOL    HW241757   9.780   2.944   5.414
79954SOL     OW41758   8.856   1.992   4.561
79954SOL    HW141759   8.821   1.922   4.617
79954SOL    HW241760   8.947   1.968   4.546
79955SOL     OW41761   4.142   8.671   4.543
79955SOL    HW141762   4.217   8.700   4.492
79955SOL    HW241763   4.066   8.709   4.498
79956SOL     OW41764   0.410   5.319  13.052
79956SOL    HW141765   0.441   5.336  12.963
79956SOL    HW241766   0.487   5.286  13.099
79957SOL     OW41767   5.260   2.724   7.989
79957SOL    HW141768   5.256   2.802   7.934
79957SOL    HW241769   5.202   2.743   8.063
79958SOL     OW41770   1.314   4.438  13.027
79958SOL    HW141771   1.378   4.478  12.967
79958SOL    HW241772   1.278   4.365  12.977
79959SOL     OW41773  14.178   2.674  10.837
79959SOL    HW141774  14.129   2.592  10.847
79959SOL    HW241775  14.218   2.688  10.923
79960SOL     OW41776   9.351   3.565   3.031
79960SOL    HW141777   9.414   3.591   3.098
79960SOL    HW241778   9.312   3.484   3.065
79961SOL     OW41779  10.948   9.284  14.785
79961SOL    HW141780  11.010   9.230  14.736
79961SOL    HW241781  10.974   9.273  14.877
79962SOL     OW41782   4.234   9.600   1.871
79962SOL    HW141783   4.187   9.651   1.805
79962SOL    HW241784   4.166   9.570   1.931
79963SOL     OW41785   8.282   3.978  10.225
79963SOL    HW141786   8.249   3.901  10.270
79963SOL    HW241787   8.291   3.951  10.133
79964SOL     OW41788   1.075   8.156   2.154
79964SOL    HW141789   1.067   8.113   2.239
79964SOL    HW241790   1.090   8.248   2.175
79965SOL     OW41791   8.256   9.984  11.274
79965SOL    HW141792   8.324  10.019  11.331
79965SOL    HW241793   8.266   9.889  11.279
79966SOL     OW41794  14.352   1.514   8.758
79966SOL    HW141795  14.330   1.422   8.770
79966SOL    HW241796  14.267   1.558   8.752
79967SOL     OW41797   4.013  12.997   4.232
79967SOL    HW141798   3.921  13.017   4.217
79967SOL    HW241799   4.043  13.065   4.293
79968SOL     OW41800  12.684   5.338   3.735
79968SOL    HW141801  12.657   5.403   3.800
79968SOL    HW241802  12.780   5.344   3.734
79969SOL     OW41803   1.569   6.568   3.223
79969SOL    HW141804   1.497   6.549   3.283
79969SOL    HW241805   1.647   6.536   3.268
79970SOL     OW41806   7.643  12.909  11.710
79970SOL    HW141807   7.727  12.875  11.680
79970SOL    HW241808   7.667  12.985  11.764
79971SOL     OW41809  12.721  11.992   3.983
79971SOL    HW141810  12.769  12.025   3.907
79971SOL    HW241811  12.651  11.939   3.946
79972SOL     OW41812  10.057   8.808   9.687
79972SOL    HW141813  10.042   8.737   9.625
79972SOL    HW241814  10.137   8.851   9.655
79973SOL     OW41815   3.838   7.687  13.505
79973SOL    HW141816   3.850   7.754  13.438
79973SOL    HW241817   3.756   7.710  13.549
79974SOL     OW41818   2.633   4.443   9.481
79974SOL    HW141819   2.655   4.433   9.389
79974SOL    HW241820   2.623   4.537   9.494
79975SOL     OW41821   7.206   2.195  14.387
79975SOL    HW141822   7.120   2.153  14.384
79975SOL    HW241823   7.233   2.188  14.479
79976SOL     OW41824   7.649   4.112   8.440
79976SOL    HW141825   7.619   4.057   8.512
79976SOL    HW241826   7.575   4.117   8.380
79977SOL     OW41827   2.595  11.662   2.081
79977SOL    HW141828   2.669  11.606   2.102
79977SOL    HW241829   2.625  11.751   2.102
79978SOL     OW41830  12.160  14.786   4.189
79978SOL    HW141831  12.151  14.806   4.096
79978SOL    HW241832  12.213  14.857   4.224
79979SOL     OW41833   5.748   9.652   4.523
79979SOL    HW141834   5.822   9.598   4.497
79979SOL    HW241835   5.684   9.640   4.453
79980SOL     OW41836   5.665   6.017  11.703
79980SOL    HW141837   5.587   6.060  11.668
79980SOL    HW241838   5.738   6.062  11.660
79981SOL     OW41839  10.132  11.601   7.453
79981SOL    HW141840  10.178  11.526   7.417
79981SOL    HW241841  10.188  11.676   7.432
79982SOL     OW41842   3.006  13.552  11.520
79982SOL    HW141843   3.083  13.496  11.532
79982SOL    HW241844   3.029  13.607  11.444
79983SOL     OW41845   0.471  11.179   1.720
79983SOL    HW141846   0.385  11.198   1.756
79983SOL    HW241847   0.530  11.238   1.767
79984SOL     OW41848   0.862  10.539  12.333
79984SOL    HW141849   0.910  10.508  12.410
79984SOL    HW241850   0.930  10.575  12.275
79985SOL     OW41851   0.314   9.026  12.615
79985SOL    HW141852   0.258   9.091  12.656
79985SOL    HW241853   0.259   8.948  12.607
79986SOL     OW41854  13.697  12.373   5.773
79986SOL    HW141855  13.646  12.368   5.693
79986SOL    HW241856  13.698  12.466   5.795
79987SOL     OW41857   9.541   6.987   0.588
79987SOL    HW141858   9.451   6.971   0.558
79987SOL    HW241859   9.531   7.019   0.677
79988SOL     OW41860   4.957   7.108   4.552
79988SOL    HW141861   4.911   7.130   4.471
79988SOL    HW241862   4.895   7.130   4.621
79989SOL     OW41863   4.557  12.440  12.884
79989SOL    HW141864   4.472  12.483  12.888
79989SOL    HW241865   4.538  12.350  12.859
79990SOL     OW41866   4.067  10.849  13.250
79990SOL    HW141867   4.029  10.795  13.181
79990SOL    HW241868   4.099  10.927  13.204
79991SOL     OW41869   7.821   7.385  10.978
79991SOL    HW141870   7.903   7.433  10.981
79991SOL    HW241871   7.755   7.446  11.011
79992SOL     OW41872  14.752   0.126   0.361
79992SOL    HW141873  14.848   0.125   0.362
79992SOL    HW241874  14.727   0.105   0.451
79993SOL     OW41875   5.888   7.431   2.799
79993SOL    HW141876   5.939   7.453   2.721
79993SOL    HW241877   5.881   7.514   2.846
79994SOL     OW41878   7.494   7.936  11.216
79994SOL    HW141879   7.432   7.908  11.283
79994SOL    HW241880   7.486   7.871  11.146
79995SOL     OW41881   5.247   9.426  11.727
79995SOL    HW141882   5.187   9.499  11.716
79995SOL    HW241883   5.244   9.406  11.820
79996SOL     OW41884   5.947   9.202   3.512
79996SOL    HW141885   6.026   9.240   3.551
79996SOL    HW241886   5.880   9.269   3.523
79997SOL     OW41887   3.942   3.276   7.214
79997SOL    HW141888   3.965   3.340   7.147
79997SOL    HW241889   3.874   3.318   7.266
79998SOL     OW41890   7.051   2.082   4.167
79998SOL    HW141891   7.000   2.035   4.233
79998SOL    HW241892   7.134   2.101   4.209
79999SOL     OW41893   5.780  12.366   9.858
79999SOL    HW141894   5.870  12.342   9.881
79999SOL    HW241895   5.781  12.462   9.856
80000SOL     OW41896   0.240   6.493   5.387
80000SOL    HW141897   0.305   6.425   5.406
80000SOL    HW241898   0.174   6.448   5.334
80001SOL     OW41899   2.506   1.696   9.015
80001SOL    HW141900   2.556   1.765   8.972
80001SOL    HW241901   2.447   1.742   9.074
80002SOL     OW41902   6.671  14.160  13.195
80002SOL    HW141903   6.587  14.151  13.241
80002SOL    HW241904   6.736  14.127  13.257
80003SOL     OW41905  10.602  12.328   2.731
80003SOL    HW141906  10.596  12.233   2.731
80003SOL    HW241907  10.539  12.356   2.797
80004SOL     OW41908  12.298   4.079  14.105
80004SOL    HW141909  12.233   4.088  14.175
80004SOL    HW241910  12.245   4.070  14.025
80005SOL     OW41911   3.584   4.357   5.515
80005SOL    HW141912   3.504   4.325   5.475
80005SOL    HW241913   3.610   4.287   5.575
80006SOL     OW41914   6.722   1.186  10.038
80006SOL    HW141915   6.716   1.279  10.059
80006SOL    HW241916   6.692   1.141  10.117
80007SOL     OW41917  11.460   9.359   3.303
80007SOL    HW141918  11.483   9.366   3.210
80007SOL    HW241919  11.431   9.446   3.328
80008SOL     OW41920  12.539   8.029  12.820
80008SOL    HW141921  12.518   7.942  12.786
80008SOL    HW241922  12.518   8.024  12.914
80009SOL     OW41923   3.801   9.025   6.578
80009SOL    HW141924   3.821   8.952   6.520
80009SOL    HW241925   3.715   9.057   6.548
80010SOL     OW41926   7.167   6.958  14.429
80010SOL    HW141927   7.171   7.005  14.346
80010SOL    HW241928   7.213   6.876  14.413
80011SOL     OW41929  13.943  12.482   0.405
80011SOL    HW141930  13.952  12.570   0.368
80011SOL    HW241931  13.887  12.494   0.482
80012SOL     OW41932   3.874   5.560  13.592
80012SOL    HW141933   3.959   5.591  13.623
80012SOL    HW241934   3.859   5.607  13.511
80013SOL     OW41935   4.626   6.881   7.347
80013SOL    HW141936   4.534   6.854   7.340
80013SOL    HW241937   4.622   6.970   7.381
80014SOL     OW41938   2.456   9.823   7.064
80014SOL    HW141939   2.472   9.779   6.981
80014SOL    HW241940   2.506   9.904   7.059
80015SOL     OW41941   4.872  13.773   1.784
80015SOL    HW141942   4.823  13.814   1.713
80015SOL    HW241943   4.939  13.837   1.809
80016SOL     OW41944   6.402  14.173   1.048
80016SOL    HW141945   6.445  14.237   0.992
80016SOL    HW241946   6.455  14.170   1.128
80017SOL     OW41947   1.166   4.537   0.762
80017SOL    HW141948   1.083   4.583   0.769
80017SOL    HW241949   1.154   4.475   0.690
80018SOL     OW41950   0.103  12.223  12.963
80018SOL    HW141951   0.090  12.314  12.936
80018SOL    HW241952   0.118  12.176  12.882
80019SOL     OW41953   2.027   2.844   2.417
80019SOL    HW141954   2.017   2.939   2.420
80019SOL    HW241955   2.077   2.827   2.337
80020SOL     OW41956   5.248   3.201  14.618
80020SOL    HW141957   5.337   3.230  14.637
80020SOL    HW241958   5.218   3.259  14.548
80021SOL     OW41959   0.517  13.060   7.782
80021SOL    HW141960   0.471  12.992   7.831
80021SOL    HW241961   0.454  13.132   7.776
80022SOL     OW41962   9.586   9.975  10.491
80022SOL    HW141963   9.620  10.057  10.454
80022SOL    HW241964   9.620   9.907  10.433
80023SOL     OW41965  14.509  10.650   1.256
80023SOL    HW141966  14.564  10.729   1.260
80023SOL    HW241967  14.429  10.680   1.213
80024SOL     OW41968   9.668   0.928   1.025
80024SOL    HW141969   9.690   0.892   1.111
80024SOL    HW241970   9.753   0.956   0.989
80025SOL     OW41971  14.354  12.202   0.983
80025SOL    HW141972  14.370  12.257   1.060
80025SOL    HW241973  14.405  12.123   0.999
80026SOL     OW41974   0.800  11.235   5.056
80026SOL    HW141975   0.733  11.273   5.113
80026SOL    HW241976   0.856  11.309   5.032
80027SOL     OW41977  11.088   3.358   6.493
80027SOL    HW141978  11.058   3.289   6.433
80027SOL    HW241979  11.163   3.397   6.449
80028SOL     OW41980   5.356   8.484   9.007
80028SOL    HW141981   5.321   8.488   8.918
80028SOL    HW241982   5.376   8.392   9.021
80029SOL     OW41983   0.602  13.229  14.165
80029SOL    HW141984   0.693  13.245  14.187
80029SOL    HW241985   0.590  13.273  14.081
80030SOL     OW41986   8.664  10.715   9.222
80030SOL    HW141987   8.619  10.781   9.275
80030SOL    HW241988   8.644  10.740   9.131
80031SOL     OW41989  13.664   9.884   6.976
80031SOL    HW141990  13.673   9.979   6.986
80031SOL    HW241991  13.667   9.850   7.066
80032SOL     OW41992   5.900   5.794   4.403
80032SOL    HW141993   5.936   5.858   4.465
80032SOL    HW241994   5.974   5.772   4.346
80033SOL     OW41995   2.516   0.103  13.891
80033SOL    HW141996   2.492   0.018  13.928
80033SOL    HW241997   2.600   0.087  13.848
80034SOL     OW41998   1.390  14.836   6.983
80034SOL    HW141999   1.405  14.807   7.073
80034SOL    HW242000   1.398   0.050   6.987
80035SOL     OW42001   0.700  11.498   7.362
80035SOL    HW142002   0.617  11.543   7.347
80035SOL    HW242003   0.675  11.406   7.376
80036SOL     OW42004  12.074  13.097   5.982
80036SOL    HW142005  12.122  13.169   5.941
80036SOL    HW242006  12.093  13.106   6.075
80037SOL     OW42007  14.287   2.923   1.834
80037SOL    HW142008  14.339   2.897   1.758
80037SOL    HW242009  14.255   2.840   1.871
80038SOL     OW42010   6.040   0.401  11.104
80038SOL    HW142011   6.100   0.330  11.079
80038SOL    HW242012   6.094   0.460  11.157
80039SOL     OW42013   6.248  11.391  11.392
80039SOL    HW142014   6.304  11.314  11.404
80039SOL    HW242015   6.215  11.409  11.480
80040SOL     OW42016   2.508  14.000  13.854
80040SOL    HW142017   2.422  14.015  13.892
80040SOL    HW242018   2.503  14.039  13.766
80041SOL     OW42019   7.347   9.664   6.082
80041SOL    HW142020   7.357   9.687   6.175
80041SOL    HW242021   7.367   9.744   6.035
80042SOL     OW42022   0.460   0.108   6.759
80042SOL    HW142023   0.455   0.014   6.740
80042SOL    HW242024   0.550   0.132   6.738
80043SOL     OW42025   2.826   5.528   4.827
80043SOL    HW142026   2.748   5.570   4.863
80043SOL    HW242027   2.800   5.437   4.815
80044SOL     OW42028   9.083  10.189   1.649
80044SOL    HW142029   9.062  10.238   1.728
80044SOL    HW242030   9.000  10.149   1.623
80045SOL     OW42031  14.553  12.021   1.667
80045SOL    HW142032  14.547  12.002   1.761
80045SOL    HW242033  14.464  12.047   1.642
80046SOL     OW42034  12.135  12.622  10.441
80046SOL    HW142035  12.102  12.711  10.441
80046SOL    HW242036  12.084  12.578  10.372
80047SOL     OW42037   1.063   8.794  10.305
80047SOL    HW142038   1.151   8.778  10.271
80047SOL    HW242039   1.059   8.888  10.319
80048SOL     OW42040  10.816   7.944  14.880
80048SOL    HW142041  10.853   7.871  14.831
80048SOL    HW242042  10.815   7.915   0.089
80049SOL     OW42043  12.789   3.684   2.703
80049SOL    HW142044  12.724   3.696   2.634
80049SOL    HW242045  12.773   3.596   2.737
80050SOL     OW42046   4.233   5.113   4.975
80050SOL    HW142047   4.199   5.105   4.886
80050SOL    HW242048   4.186   5.189   5.012
80051SOL     OW42049  10.115  14.576  10.084
80051SOL    HW142050  10.067  14.524  10.019
80051SOL    HW242051  10.092  14.667  10.064
80052SOL     OW42052  10.655   8.199  14.674
80052SOL    HW142053  10.588   8.205  14.742
80052SOL    HW242054  10.737   8.213  14.720
80053SOL     OW42055   8.591  13.249  14.540
80053SOL    HW142056   8.680  13.224  14.566
80053SOL    HW242057   8.536  13.219  14.612
80054SOL     OW42058  14.652   4.155   9.021
80054SOL    HW142059  14.661   4.250   9.009
80054SOL    HW242060  14.705   4.135   9.098
80055SOL     OW42061   2.447   5.406  12.014
80055SOL    HW142062   2.465   5.340  11.948
80055SOL    HW242063   2.512   5.391  12.082
80056SOL     OW42064   4.467  10.785   0.621
80056SOL    HW142065   4.546  10.742   0.655
80056SOL    HW242066   4.496  10.827   0.540
80057SOL     OW42067   4.848   0.000   7.168
80057SOL    HW142068   4.766   0.003   7.118
80057SOL    HW242069   4.915   0.028   7.105
80058SOL     OW42070   6.426   1.559  13.163
80058SOL    HW142071   6.443   1.610  13.084
80058SOL    HW242072   6.332   1.539  13.158
80059SOL     OW42073  13.641  11.504   4.504
80059SOL    HW142074  13.554  11.475   4.475
80059SOL    HW242075  13.682  11.426   4.540
80060SOL     OW42076  13.139   2.994   1.617
80060SOL    HW142077  13.047   3.018   1.631
80060SOL    HW242078  13.180   3.074   1.584
80061SOL     OW42079   4.191   0.066   0.418
80061SOL    HW142080   4.186   0.117   0.499
80061SOL    HW242081   4.100   0.046   0.397
80062SOL     OW42082   5.096   3.084  10.344
80062SOL    HW142083   5.041   3.109  10.270
80062SOL    HW242084   5.150   3.012  10.310
80063SOL     OW42085  14.824   2.366  13.316
80063SOL    HW142086  14.759   2.321  13.371
80063SOL    HW242087  14.847   2.445  13.365
80064SOL     OW42088   5.494   3.362   3.287
80064SOL    HW142089   5.571   3.307   3.303
80064SOL    HW242090   5.511   3.441   3.338
80065SOL     OW42091   1.965   6.981   4.271
80065SOL    HW142092   1.952   6.892   4.237
80065SOL    HW242093   1.927   7.038   4.205
80066SOL     OW42094   9.063   7.097   3.395
80066SOL    HW142095   9.093   7.187   3.381
80066SOL    HW242096   9.143   7.047   3.413
80067SOL     OW42097   9.538  12.353   0.662
80067SOL    HW142098   9.617  12.326   0.709
80067SOL    HW242099   9.474  12.373   0.730
80068SOL     OW42100   5.136  14.105   9.976
80068SOL    HW142101   5.204  14.038   9.979
80068SOL    HW242102   5.183  14.187   9.991
80069SOL     OW42103   7.110   8.348   3.726
80069SOL    HW142104   7.110   8.355   3.630
80069SOL    HW242105   7.202   8.334   3.749
80070SOL     OW42106  11.745   0.233   2.987
80070SOL    HW142107  11.774   0.242   3.077
80070SOL    HW242108  11.727   0.140   2.976
80071SOL     OW42109   2.971   3.756   8.470
80071SOL    HW142110   2.906   3.697   8.510
80071SOL    HW242111   3.051   3.703   8.467
80072SOL     OW42112   8.323   4.835   6.239
80072SOL    HW142113   8.378   4.848   6.161
80072SOL    HW242114   8.346   4.747   6.269
80073SOL     OW42115   8.025  10.843  10.544
80073SOL    HW142116   8.050  10.893  10.622
80073SOL    HW242117   7.977  10.767  10.579
80074SOL     OW42118   8.016  14.822   9.698
80074SOL    HW142119   8.022   0.025   9.654
80074SOL    HW242120   7.965  14.839   9.777
80075SOL     OW42121  11.285   7.395   7.891
80075SOL    HW142122  11.223   7.408   7.963
80075SOL    HW242123  11.230   7.388   7.813
80076SOL     OW42124  14.723   4.078   1.498
80076SOL    HW142125  14.708   4.091   1.404
80076SOL    HW242126  14.778   4.152   1.523
80077SOL     OW42127   6.163  12.027   8.345
80077SOL    HW142128   6.218  12.078   8.285
80077SOL    HW242129   6.174  11.936   8.317
80078SOL     OW42130   8.949   3.959   9.649
80078SOL    HW142131   8.942   3.901   9.725
80078SOL    HW242132   8.974   4.044   9.686
80079SOL     OW42133   7.025   8.673  12.215
80079SOL    HW142134   7.018   8.578  12.224
80079SOL    HW242135   7.021   8.706  12.305
80080SOL     OW42136   4.861   2.158   1.853
80080SOL    HW142137   4.781   2.106   1.850
80080SOL    HW242138   4.910   2.123   1.927
80081SOL     OW42139   9.934   4.248   8.269
80081SOL    HW142140   9.895   4.324   8.313
80081SOL    HW242141   9.906   4.257   8.178
80082SOL     OW42142   2.642   2.099   1.511
80082SOL    HW142143   2.590   2.173   1.542
80082SOL    HW242144   2.583   2.024   1.517
80083SOL     OW42145  13.563   2.248   8.370
80083SOL    HW142146  13.607   2.164   8.359
80083SOL    HW242147  13.627   2.313   8.343
80084SOL     OW42148   9.096  13.979   1.786
80084SOL    HW142149   9.106  14.066   1.826
80084SOL    HW242150   9.005  13.956   1.805
80085SOL     OW42151   1.021   9.059   6.845
80085SOL    HW142152   1.039   9.088   6.934
80085SOL    HW242153   1.011   9.140   6.794
80086SOL     OW42154   4.456   7.633   7.526
80086SOL    HW142155   4.474   7.658   7.436
80086SOL    HW242156   4.364   7.607   7.526
80087SOL     OW42157   3.536   1.186  12.464
80087SOL    HW142158   3.578   1.192  12.378
80087SOL    HW242159   3.455   1.237  12.455
80088SOL     OW42160   3.979  10.420   2.884
80088SOL    HW142161   3.894  10.407   2.842
80088SOL    HW242162   3.958  10.451   2.972
80089SOL     OW42163   6.576   4.055   7.818
80089SOL    HW142164   6.583   3.961   7.835
80089SOL    HW242165   6.659   4.091   7.850
80090SOL     OW42166   5.683   7.358   2.438
80090SOL    HW142167   5.753   7.356   2.372
80090SOL    HW242168   5.604   7.382   2.389
80091SOL     OW42169   6.541  12.509  13.297
80091SOL    HW142170   6.556  12.451  13.372
80091SOL    HW242171   6.616  12.494  13.240
80092SOL     OW42172   1.932   3.207   8.646
80092SOL    HW142173   2.022   3.214   8.614
80092SOL    HW242174   1.922   3.116   8.672
80093SOL     OW42175   3.214  11.333   9.732
80093SOL    HW142176   3.128  11.296   9.714
80093SOL    HW242177   3.197  11.425   9.753
80094SOL     OW42178   0.889   7.473   8.245
80094SOL    HW142179   0.841   7.554   8.261
80094SOL    HW242180   0.829   7.404   8.272
80095SOL     OW42181   5.224   2.347  14.224
80095SOL    HW142182   5.198   2.438  14.226
80095SOL    HW242183   5.290   2.339  14.293
80096SOL     OW42184   8.545   8.158  13.903
80096SOL    HW142185   8.497   8.241  13.903
80096SOL    HW242186   8.489   8.098  13.954
80097SOL     OW42187   9.373   1.362   0.163
80097SOL    HW142188   9.374   1.424   0.235
80097SOL    HW242189   9.452   1.310   0.176
80098SOL     OW42190   2.782  11.330   1.857
80098SOL    HW142191   2.871  11.296   1.850
80098SOL    HW242192   2.763  11.366   1.771
80099SOL     OW42193   4.534   8.577  10.294
80099SOL    HW142194   4.541   8.631  10.215
80099SOL    HW242195   4.572   8.631  10.363
80100SOL     OW42196   3.728   9.697  14.354
80100SOL    HW142197   3.677   9.763  14.402
80100SOL    HW242198   3.819   9.725  14.363
80101SOL     OW42199  10.475  11.632   1.456
80101SOL    HW142200  10.559  11.602   1.491
80101SOL    HW242201  10.488  11.726   1.443
80102SOL     OW42202  12.490   0.091  13.339
80102SOL    HW142203  12.475   0.058  13.428
80102SOL    HW242204  12.584   0.104  13.334
80103SOL     OW42205   4.288   4.387   2.753
80103SOL    HW142206   4.348   4.432   2.813
80103SOL    HW242207   4.258   4.311   2.803
80104SOL     OW42208   2.816   9.866   6.258
80104SOL    HW142209   2.760   9.941   6.239
80104SOL    HW242210   2.813   9.857   6.353
80105SOL     OW42211   8.897   0.398  11.331
80105SOL    HW142212   8.990   0.394  11.312
80105SOL    HW242213   8.887   0.476  11.386
80106SOL     OW42214   6.912   9.628  12.843
80106SOL    HW142215   6.824   9.636  12.806
80106SOL    HW242216   6.917   9.537  12.873
80107SOL     OW42217   3.817  10.259  13.453
80107SOL    HW142218   3.835  10.205  13.530
80107SOL    HW242219   3.756  10.207  13.400
80108SOL     OW42220   1.207   1.977  12.591
80108SOL    HW142221   1.291   1.980  12.546
80108SOL    HW242222   1.230   1.963  12.683
80109SOL     OW42223   9.723   9.195   6.874
80109SOL    HW142224   9.817   9.213   6.878
80109SOL    HW242225   9.712   9.144   6.794
80110SOL     OW42226   3.192  12.372   3.261
80110SOL    HW142227   3.263  12.310   3.240
80110SOL    HW242228   3.234  12.438   3.316
80111SOL     OW42229  10.289   1.229  13.148
80111SOL    HW142230  10.256   1.154  13.198
80111SOL    HW242231  10.306   1.194  13.061
80112SOL     OW42232   2.510  12.542  13.991
80112SOL    HW142233   2.584  12.499  13.948
80112SOL    HW242234   2.506  12.628  13.949
80113SOL     OW42235   1.905   0.237   4.495
80113SOL    HW142236   1.892   0.147   4.466
80113SOL    HW242237   1.881   0.236   4.587
80114SOL     OW42238   9.604   9.575  11.754
80114SOL    HW142239   9.562   9.490  11.763
80114SOL    HW242240   9.556   9.619  11.684
80115SOL     OW42241   4.784  13.322   7.830
80115SOL    HW142242   4.876  13.343   7.815
80115SOL    HW242243   4.751  13.295   7.745
80116SOL     OW42244  14.516   8.582   2.316
80116SOL    HW142245  14.434   8.615   2.278
80116SOL    HW242246  14.489   8.505   2.367
80117SOL     OW42247   1.879  10.173   0.598
80117SOL    HW142248   1.841  10.231   0.664
80117SOL    HW242249   1.974  10.180   0.611
80118SOL     OW42250   3.317   2.301   1.971
80118SOL    HW142251   3.378   2.269   2.038
80118SOL    HW242252   3.298   2.391   1.996
80119SOL     OW42253   2.380  13.304   5.917
80119SOL    HW142254   2.358  13.228   5.862
80119SOL    HW242255   2.316  13.301   5.988
80120SOL     OW42256   2.777   7.495   1.190
80120SOL    HW142257   2.734   7.490   1.105
80120SOL    HW242258   2.866   7.464   1.173
80121SOL     OW42259  14.693   9.063   3.717
80121SOL    HW142260  14.748   9.066   3.639
80121SOL    HW242261  14.678   9.156   3.739
80122SOL     OW42262   5.841   5.749  12.185
80122SOL    HW142263   5.803   5.682  12.128
80122SOL    HW242264   5.793   5.741  12.268
80123SOL     OW42265  14.094   8.423   1.269
80123SOL    HW142266  14.169   8.476   1.243
80123SOL    HW242267  14.089   8.433   1.364
80124SOL     OW42268  13.948   4.482   8.183
80124SOL    HW142269  13.987   4.547   8.241
80124SOL    HW242270  13.983   4.503   8.096
80125SOL     OW42271   0.735   6.390   3.424
80125SOL    HW142272   0.750   6.374   3.517
80125SOL    HW242273   0.785   6.321   3.379
80126SOL     OW42274  14.416  12.170  11.755
80126SOL    HW142275  14.339  12.135  11.710
80126SOL    HW242276  14.402  12.148  11.847
80127SOL     OW42277   9.222   1.252   7.541
80127SOL    HW142278   9.131   1.231   7.521
80127SOL    HW242279   9.272   1.177   7.507
80128SOL     OW42280  10.717   8.377   5.538
80128SOL    HW142281  10.631   8.343   5.563
80128SOL    HW242282  10.765   8.386   5.620
80129SOL     OW42283   2.951   2.512   8.824
80129SOL    HW142284   2.980   2.559   8.901
80129SOL    HW242285   2.920   2.580   8.764
80130SOL     OW42286   2.900   3.202   9.202
80130SOL    HW142287   2.884   3.293   9.228
80130SOL    HW242288   2.977   3.207   9.145
80131SOL     OW42289   8.158   8.608   8.040
80131SOL    HW142290   8.131   8.630   7.951
80131SOL    HW242291   8.253   8.624   8.041
80132SOL     OW42292   1.846   5.103   3.152
80132SOL    HW142293   1.776   5.039   3.140
80132SOL    HW242294   1.805   5.187   3.132
80133SOL     OW42295   5.671   6.716   4.815
80133SOL    HW142296   5.675   6.728   4.720
80133SOL    HW242297   5.761   6.725   4.844
80134SOL     OW42298   5.033   7.263  12.189
80134SOL    HW142299   4.975   7.222  12.125
80134SOL    HW242300   5.052   7.349  12.152
80135SOL     OW42301   7.533   6.941   9.497
80135SOL    HW142302   7.551   6.927   9.590
80135SOL    HW242303   7.533   6.854   9.458
80136SOL     OW42304   8.808   0.977   1.908
80136SOL    HW142305   8.725   0.945   1.942
80136SOL    HW242306   8.873   0.913   1.938
80137SOL     OW42307  12.842  13.928   4.480
80137SOL    HW142308  12.816  13.904   4.391
80137SOL    HW242309  12.915  13.870   4.501
80138SOL     OW42310  13.614   7.882   0.796
80138SOL    HW142311  13.571   7.834   0.866
80138SOL    HW242312  13.580   7.971   0.803
80139SOL     OW42313   6.669   6.481   3.849
80139SOL    HW142314   6.749   6.433   3.872
80139SOL    HW242315   6.599   6.432   3.892
80140SOL     OW42316   5.727   6.549   0.082
80140SOL    HW142317   5.803   6.607   0.087
80140SOL    HW242318   5.700   6.552  14.872
80141SOL     OW42319  12.370  12.197   1.815
80141SOL    HW142320  12.409  12.120   1.773
80141SOL    HW242321  12.404  12.271   1.765
80142SOL     OW42322   8.398  10.202   7.594
80142SOL    HW142323   8.421  10.144   7.521
80142SOL    HW242324   8.359  10.143   7.659
80143SOL     OW42325   2.659  13.811   8.610
80143SOL    HW142326   2.713  13.890   8.607
80143SOL    HW242327   2.710  13.746   8.561
80144SOL     OW42328  10.751   2.426   9.296
80144SOL    HW142329  10.767   2.505   9.245
80144SOL    HW242330  10.705   2.456   9.374
80145SOL     OW42331   3.819   1.473   0.724
80145SOL    HW142332   3.879   1.428   0.665
80145SOL    HW242333   3.744   1.495   0.669
80146SOL     OW42334   4.356  10.806   3.917
80146SOL    HW142335   4.406  10.860   3.855
80146SOL    HW242336   4.387  10.834   4.003
80147SOL     OW42337   8.580   9.067  13.773
80147SOL    HW142338   8.526   9.108  13.706
80147SOL    HW242339   8.618   8.990  13.730
80148SOL     OW42340   8.474   4.588   4.492
80148SOL    HW142341   8.435   4.502   4.475
80148SOL    HW242342   8.568   4.571   4.492
80149SOL     OW42343   6.266   9.770   3.105
80149SOL    HW142344   6.286   9.690   3.155
80149SOL    HW242345   6.263   9.839   3.172
80150SOL     OW42346   8.219  14.867   1.131
80150SOL    HW142347   8.272  14.877   1.052
80150SOL    HW242348   8.171  14.785   1.118
80151SOL     OW42349   5.917   3.569  13.773
80151SOL    HW142350   5.880   3.600  13.855
80151SOL    HW242351   6.003   3.535  13.796
80152SOL     OW42352  11.398   1.634  14.043
80152SOL    HW142353  11.372   1.682  13.964
80152SOL    HW242354  11.365   1.545  14.030
80153SOL     OW42355   2.054   8.076   1.841
80153SOL    HW142356   1.976   8.053   1.790
80153SOL    HW242357   2.082   8.159   1.804
80154SOL     OW42358   8.529   3.637  14.699
80154SOL    HW142359   8.541   3.700  14.771
80154SOL    HW242360   8.440   3.652  14.668
80155SOL     OW42361   8.075   6.009   3.475
80155SOL    HW142362   8.039   5.935   3.426
80155SOL    HW242363   8.114   6.066   3.408
80156SOL     OW42364   1.443  14.658   3.247
80156SOL    HW142365   1.368  14.622   3.201
80156SOL    HW242366   1.410  14.678   3.335
80157SOL     OW42367   0.968   2.550   8.818
80157SOL    HW142368   1.057   2.570   8.787
80157SOL    HW242369   0.953   2.459   8.790
80158SOL     OW42370  13.575  11.180  13.739
80158SOL    HW142371  13.610  11.214  13.821
80158SOL    HW242372  13.623  11.228  13.671
80159SOL     OW42373  11.380   0.524  12.751
80159SOL    HW142374  11.393   0.611  12.788
80159SOL    HW242375  11.286   0.518  12.737
80160SOL     OW42376   6.382   6.683   7.494
80160SOL    HW142377   6.449   6.621   7.520
80160SOL    HW242378   6.393   6.757   7.554
80161SOL     OW42379  11.454   3.634  14.661
80161SOL    HW142380  11.514   3.601  14.594
80161SOL    HW242381  11.376   3.661  14.613
80162SOL     OW42382  14.479  11.393  11.922
80162SOL    HW142383  14.388  11.422  11.912
80162SOL    HW242384  14.520  11.413  11.838
80163SOL     OW42385  14.159   1.934   3.053
80163SOL    HW142386  14.076   1.953   3.096
80163SOL    HW242387  14.178   2.013   3.001
80164SOL     OW42388   1.099  11.175   4.413
80164SOL    HW142389   1.107  11.181   4.318
80164SOL    HW242390   1.150  11.249   4.446
80165SOL     OW42391   9.271  12.576   8.903
80165SOL    HW142392   9.337  12.613   8.960
80165SOL    HW242393   9.303  12.593   8.814
80166SOL     OW42394  12.300   5.582   8.927
80166SOL    HW142395  12.278   5.643   8.857
80166SOL    HW242396  12.334   5.505   8.882
80167SOL     OW42397  14.253  14.259  11.413
80167SOL    HW142398  14.231  14.168  11.435
80167SOL    HW242399  14.334  14.252  11.362
80168SOL     OW42400   5.189  10.655   7.902
80168SOL    HW142401   5.274  10.678   7.940
80168SOL    HW242402   5.209  10.611   7.820
80169SOL     OW42403   3.608   6.395   0.126
80169SOL    HW142404   3.699   6.364   0.131
80169SOL    HW242405   3.597   6.420   0.035
80170SOL     OW42406   9.141  13.444   6.866
80170SOL    HW142407   9.194  13.485   6.934
80170SOL    HW242408   9.134  13.511   6.797
80171SOL     OW42409   7.520  11.295  14.642
80171SOL    HW142410   7.588  11.241  14.602
80171SOL    HW242411   7.556  11.384  14.643
80172SOL     OW42412  10.390  10.952  12.097
80172SOL    HW142413  10.386  11.037  12.054
80172SOL    HW242414  10.472  10.913  12.067
80173SOL     OW42415  11.296   2.997   0.901
80173SOL    HW142416  11.208   2.992   0.863
80173SOL    HW242417  11.322   3.088   0.889
80174SOL     OW42418   5.837  10.138   8.412
80174SOL    HW142419   5.909  10.194   8.384
80174SOL    HW242420   5.764  10.163   8.355
80175SOL     OW42421   5.449  13.212  11.270
80175SOL    HW142422   5.373  13.256  11.232
80175SOL    HW242423   5.450  13.126  11.227
80176SOL     OW42424   1.532  12.381   8.535
80176SOL    HW142425   1.442  12.363   8.561
80176SOL    HW242426   1.527  12.463   8.486
80177SOL     OW42427  14.688   4.064  12.104
80177SOL    HW142428  14.728   4.142  12.143
80177SOL    HW242429  14.595   4.086  12.097
80178SOL     OW42430  14.527   6.013   2.203
80178SOL    HW142431  14.474   6.082   2.242
80178SOL    HW242432  14.616   6.030   2.234
80179SOL     OW42433   9.239   5.656   7.690
80179SOL    HW142434   9.233   5.623   7.780
80179SOL    HW242435   9.148   5.661   7.660
80180SOL     OW42436   4.087   1.414   4.479
80180SOL    HW142437   4.169   1.387   4.438
80180SOL    HW242438   4.098   1.392   4.572
80181SOL     OW42439  11.329  11.675   2.122
80181SOL    HW142440  11.423  11.673   2.136
80181SOL    HW242441  11.308  11.587   2.089
80182SOL     OW42442  11.693   3.638   9.926
80182SOL    HW142443  11.626   3.706   9.915
80182SOL    HW242444  11.774   3.686   9.943
80183SOL     OW42445   1.626  14.159   6.000
80183SOL    HW142446   1.562  14.220   5.963
80183SOL    HW242447   1.573  14.090   6.040
80184SOL     OW42448   1.721  12.256  13.491
80184SOL    HW142449   1.790  12.292  13.435
80184SOL    HW242450   1.674  12.333  13.522
80185SOL     OW42451  13.579   2.024   1.987
80185SOL    HW142452  13.667   2.018   2.024
80185SOL    HW242453  13.524   2.055   2.059
80186SOL     OW42454  11.780  11.807   2.841
80186SOL    HW142455  11.821  11.804   2.927
80186SOL    HW242456  11.749  11.897   2.833
80187SOL     OW42457  14.751  13.103  11.012
80187SOL    HW142458  14.844  13.106  11.036
80187SOL    HW242459  14.749  13.042  10.938
80188SOL     OW42460   2.874  13.011   6.085
80188SOL    HW142461   2.860  12.984   5.995
80188SOL    HW242462   2.957  12.970   6.110
80189SOL     OW42463  13.696  10.372  13.902
80189SOL    HW142464  13.622  10.314  13.917
80189SOL    HW242465  13.763  10.341  13.964
80190SOL     OW42466  12.988   2.791   2.732
80190SOL    HW142467  13.054   2.811   2.666
80190SOL    HW242468  12.965   2.700   2.716
80191SOL     OW42469  10.336   3.730   6.397
80191SOL    HW142470  10.426   3.700   6.386
80191SOL    HW242471  10.331   3.812   6.348
80192SOL     OW42472  10.007  11.638  11.414
80192SOL    HW142473  10.087  11.667  11.457
80192SOL    HW242474   9.957  11.718  11.401
80193SOL     OW42475   9.912   1.768  13.672
80193SOL    HW142476   9.853   1.694  13.655
80193SOL    HW242477   9.999   1.730  13.670
80194SOL     OW42478   7.927   6.855   4.945
80194SOL    HW142479   7.864   6.785   4.963
80194SOL    HW242480   8.009   6.809   4.927
80195SOL     OW42481   3.313   8.187   7.346
80195SOL    HW142482   3.233   8.142   7.318
80195SOL    HW242483   3.341   8.139   7.424
80196SOL     OW42484  11.171   6.800  13.286
80196SOL    HW142485  11.137   6.710  13.286
80196SOL    HW242486  11.115   6.846  13.223
80197SOL     OW42487   7.014   0.265   5.528
80197SOL    HW142488   6.953   0.330   5.563
80197SOL    HW242489   7.045   0.218   5.606
80198SOL     OW42490   6.118  11.142   5.552
80198SOL    HW142491   6.066  11.194   5.491
80198SOL    HW242492   6.133  11.059   5.506
80199SOL     OW42493   5.062   1.919   2.682
80199SOL    HW142494   4.977   1.962   2.697
80199SOL    HW242495   5.042   1.826   2.682
80200SOL     OW42496   6.922   5.273   7.642
80200SOL    HW142497   6.831   5.299   7.630
80200SOL    HW242498   6.947   5.231   7.560
80201SOL     OW42499  14.308   9.549   5.839
80201SOL    HW142500  14.365   9.620   5.811
80201SOL    HW242501  14.328   9.537   5.932
80202SOL     OW42502  13.257   3.566   3.650
80202SOL    HW142503  13.208   3.621   3.711
80202SOL    HW242504  13.218   3.479   3.660
80203SOL     OW42505   7.944   8.091   1.268
80203SOL    HW142506   7.886   8.156   1.308
80203SOL    HW242507   8.009   8.072   1.336
80204SOL     OW42508  11.884   4.309   5.815
80204SOL    HW142509  11.795   4.279   5.833
80204SOL    HW242510  11.879   4.404   5.820
80205SOL     OW42511  10.464   4.683   4.402
80205SOL    HW142512  10.430   4.736   4.475
80205SOL    HW242513  10.536   4.633   4.440
80206SOL     OW42514   7.546   7.820   4.103
80206SOL    HW142515   7.483   7.749   4.113
80206SOL    HW242516   7.532   7.876   4.180
80207SOL     OW42517   6.017   2.469   8.067
80207SOL    HW142518   6.080   2.521   8.017
80207SOL    HW242519   5.934   2.482   8.022
80208SOL     OW42520  14.111   9.783   1.669
80208SOL    HW142521  14.057   9.831   1.606
80208SOL    HW242522  14.069   9.799   1.754
80209SOL     OW42523  11.811  11.834   3.405
80209SOL    HW142524  11.791  11.889   3.481
80209SOL    HW242525  11.880  11.776   3.435
80210SOL     OW42526  11.142   7.563  14.091
80210SOL    HW142527  11.124   7.635  14.029
80210SOL    HW242528  11.158   7.487  14.035
80211SOL     OW42529  10.827  11.834  12.894
80211SOL    HW142530  10.870  11.900  12.949
80211SOL    HW242531  10.794  11.769  12.956
80212SOL     OW42532   9.143   6.001  10.633
80212SOL    HW142533   9.054   5.987  10.602
80212SOL    HW242534   9.148   6.095  10.653
80213SOL     OW42535   4.045   6.250  13.583
80213SOL    HW142536   4.015   6.215  13.499
80213SOL    HW242537   4.024   6.343  13.579
80214SOL     OW42538   9.786   4.151   1.413
80214SOL    HW142539   9.781   4.216   1.343
80214SOL    HW242540   9.859   4.179   1.467
80215SOL     OW42541   0.823   2.661  14.875
80215SOL    HW142542   0.769   2.641  14.799
80215SOL    HW242543   0.886   2.726  14.844
80216SOL     OW42544   0.514   3.569   8.241
80216SOL    HW142545   0.594   3.608   8.276
80216SOL    HW242546   0.448   3.582   8.310
80217SOL     OW42547   6.898   6.436   1.901
80217SOL    HW142548   6.964   6.505   1.903
80217SOL    HW242549   6.915   6.389   1.820
80218SOL     OW42550   4.167   1.009  10.406
80218SOL    HW142551   4.247   1.026  10.356
80218SOL    HW242552   4.118   1.091  10.402
80219SOL     OW42553   0.725   1.601   7.991
80219SOL    HW142554   0.720   1.601   8.087
80219SOL    HW242555   0.635   1.586   7.963
80220SOL     OW42556   9.474   7.720   5.251
80220SOL    HW142557   9.405   7.710   5.185
80220SOL    HW242558   9.467   7.642   5.305
80221SOL     OW42559   9.707   9.229   8.457
80221SOL    HW142560   9.625   9.187   8.481
80221SOL    HW242561   9.773   9.187   8.513
80222SOL     OW42562  12.442  12.780   8.669
80222SOL    HW142563  12.365  12.742   8.711
80222SOL    HW242564  12.410  12.863   8.632
80223SOL     OW42565   6.929  13.260   8.859
80223SOL    HW142566   6.989  13.333   8.875
80223SOL    HW242567   6.854  13.277   8.917
80224SOL     OW42568   0.666  11.808   9.983
80224SOL    HW142569   0.696  11.781  10.070
80224SOL    HW242570   0.618  11.731   9.951
80225SOL     OW42571  14.866  12.618   9.434
80225SOL    HW142572  14.828  12.538   9.397
80225SOL    HW242573  14.794  12.660   9.480
80226SOL     OW42574   4.868  10.184   5.306
80226SOL    HW142575   4.804  10.127   5.349
80226SOL    HW242576   4.889  10.139   5.224
80227SOL     OW42577   9.958   5.653   0.798
80227SOL    HW142578  10.003   5.682   0.718
80227SOL    HW242579  10.023   5.662   0.867
80228SOL     OW42580   2.981   5.448   8.588
80228SOL    HW142581   2.916   5.425   8.522
80228SOL    HW242582   3.039   5.510   8.544
80229SOL     OW42583   6.719   0.516   3.521
80229SOL    HW142584   6.812   0.506   3.499
80229SOL    HW242585   6.680   0.555   3.443
80230SOL     OW42586  10.045   3.133   8.756
80230SOL    HW142587   9.994   3.054   8.778
80230SOL    HW242588  10.032   3.144   8.662
80231SOL     OW42589  14.106   0.361   7.486
80231SOL    HW142590  14.014   0.359   7.513
80231SOL    HW242591  14.131   0.454   7.493
80232SOL     OW42592  14.753  13.246   8.063
80232SOL    HW142593  14.717  13.166   8.024
80232SOL    HW242594  14.737  13.314   7.997
80233SOL     OW42595   6.339   4.150   7.680
80233SOL    HW142596   6.410   4.099   7.717
80233SOL    HW242597   6.360   4.241   7.703
80234SOL     OW42598   0.626   2.207  14.659
80234SOL    HW142599   0.567   2.178  14.729
80234SOL    HW242600   0.589   2.291  14.630
80235SOL     OW42601  12.259   7.602   6.204
80235SOL    HW142602  12.270   7.697   6.194
80235SOL    HW242603  12.222   7.573   6.121
80236SOL     OW42604   0.711   5.844  14.814
80236SOL    HW142605   0.801   5.871  14.795
80236SOL    HW242606   0.658   5.921  14.793
80237SOL     OW42607  10.232   9.156  11.422
80237SOL    HW142608  10.318   9.197  11.415
80237SOL    HW242609  10.185   9.187  11.345
80238SOL     OW42610  12.914  11.342   5.091
80238SOL    HW142611  12.866  11.369   5.013
80238SOL    HW242612  12.963  11.421   5.116
80239SOL     OW42613  12.621   1.093   4.365
80239SOL    HW142614  12.609   1.079   4.459
80239SOL    HW242615  12.554   1.039   4.324
80240SOL     OW42616   6.735   2.882   2.657
80240SOL    HW142617   6.730   2.807   2.716
80240SOL    HW242618   6.740   2.958   2.714
80241SOL     OW42619   2.864  14.231   0.129
80241SOL    HW142620   2.857  14.309   0.184
80241SOL    HW242621   2.852  14.263   0.040
80242SOL     OW42622   1.643   4.958  12.706
80242SOL    HW142623   1.603   4.875  12.679
80242SOL    HW242624   1.663   4.946  12.799
80243SOL     OW42625  12.070  12.341   9.989
80243SOL    HW142626  12.074  12.418  10.045
80243SOL    HW242627  12.090  12.268  10.047
80244SOL     OW42628  14.795   9.649   4.604
80244SOL    HW142629  14.785   9.637   4.699
80244SOL    HW242630  14.706   9.643   4.569
80245SOL     OW42631   4.761   4.913   5.307
80245SOL    HW142632   4.677   4.898   5.351
80245SOL    HW242633   4.753   5.002   5.272
80246SOL     OW42634   9.019  14.085   5.039
80246SOL    HW142635   9.038  14.172   5.004
80246SOL    HW242636   8.959  14.101   5.112
80247SOL     OW42637   9.104   0.369  14.074
80247SOL    HW142638   9.115   0.301  14.141
80247SOL    HW242639   9.025   0.342  14.027
80248SOL     OW42640   1.087   7.864  11.728
80248SOL    HW142641   1.132   7.787  11.762
80248SOL    HW242642   1.068   7.842  11.636
80249SOL     OW42643  10.718   4.389   8.659
80249SOL    HW142644  10.778   4.342   8.602
80249SOL    HW242645  10.643   4.330   8.669
80250SOL     OW42646   5.971   2.361   7.685
80250SOL    HW142647   5.915   2.330   7.615
80250SOL    HW242648   5.911   2.385   7.756
80251SOL     OW42649   7.750   2.797  13.382
80251SOL    HW142650   7.769   2.812  13.474
80251SOL    HW242651   7.832   2.763  13.346
80252SOL     OW42652   4.091   0.353   6.429
80252SOL    HW142653   4.137   0.419   6.480
80252SOL    HW242654   4.143   0.273   6.442
80253SOL     OW42655  11.490   2.316  14.676
80253SOL    HW142656  11.458   2.350  14.592
80253SOL    HW242657  11.480   2.221  14.668
80254SOL     OW42658   8.075   1.310   9.862
80254SOL    HW142659   7.981   1.326   9.877
80254SOL    HW242660   8.107   1.393   9.826
80255SOL     OW42661   2.794   2.076   2.696
80255SOL    HW142662   2.804   2.170   2.710
80255SOL    HW242663   2.883   2.044   2.682
80256SOL     OW42664   3.192   8.681   0.370
80256SOL    HW142665   3.148   8.618   0.427
80256SOL    HW242666   3.143   8.679   0.288
80257SOL     OW42667   1.143   2.286  12.285
80257SOL    HW142668   1.112   2.363  12.333
80257SOL    HW242669   1.096   2.212  12.325
80258SOL     OW42670   3.881   4.294   2.541
80258SOL    HW142671   3.850   4.377   2.505
80258SOL    HW242672   3.973   4.290   2.515
80259SOL     OW42673  14.571   7.514   1.222
80259SOL    HW142674  14.484   7.474   1.214
80259SOL    HW242675  14.593   7.540   1.133
80260SOL     OW42676   9.516   7.715  11.838
80260SOL    HW142677   9.504   7.659  11.915
80260SOL    HW242678   9.466   7.794  11.857
80261SOL     OW42679   8.646   0.119   1.249
80261SOL    HW142680   8.653   0.173   1.171
80261SOL    HW242681   8.629   0.031   1.216
80262SOL     OW42682   5.979   5.831   2.381
80262SOL    HW142683   5.913   5.763   2.369
80262SOL    HW242684   5.930   5.908   2.412
80263SOL     OW42685   0.463  10.312  12.679
80263SOL    HW142686   0.501  10.399  12.666
80263SOL    HW242687   0.486  10.288  12.769
80264SOL     OW42688  14.407   9.757   8.301
80264SOL    HW142689  14.313   9.750   8.288
80264SOL    HW242690  14.438   9.667   8.304
80265SOL     OW42691   4.557   9.093  10.375
80265SOL    HW142692   4.629   9.114  10.435
80265SOL    HW242693   4.479   9.091  10.431
80266SOL     OW42694   2.500   5.740  10.387
80266SOL    HW142695   2.435   5.809  10.375
80266SOL    HW242696   2.471   5.669  10.330
80267SOL     OW42697  10.820   3.580   1.020
80267SOL    HW142698  10.890   3.517   1.039
80267SOL    HW242699  10.865   3.663   1.009
80268SOL     OW42700   1.441  11.430   4.060
80268SOL    HW142701   1.486  11.408   3.979
80268SOL    HW242702   1.404  11.517   4.043
80269SOL     OW42703   1.177   4.266   1.775
80269SOL    HW142704   1.164   4.287   1.867
80269SOL    HW242705   1.197   4.350   1.733
80270SOL     OW42706   8.336   7.094   7.400
80270SOL    HW142707   8.339   7.006   7.438
80270SOL    HW242708   8.343   7.152   7.475
80271SOL     OW42709  12.653   1.782   6.050
80271SOL    HW142710  12.620   1.851   5.994
80271SOL    HW242711  12.670   1.825   6.134
80272SOL     OW42712   6.315   1.978   8.736
80272SOL    HW142713   6.360   1.900   8.702
80272SOL    HW242714   6.250   1.943   8.797
80273SOL     OW42715   1.558   8.682   9.495
80273SOL    HW142716   1.647   8.682   9.530
80273SOL    HW242717   1.520   8.765   9.526
80274SOL     OW42718   0.468   7.042   2.244
80274SOL    HW142719   0.420   7.015   2.167
80274SOL    HW242720   0.494   6.961   2.287
80275SOL     OW42721  13.024   2.462  12.684
80275SOL    HW142722  12.977   2.531  12.637
80275SOL    HW242723  13.114   2.493  12.689
80276SOL     OW42724  10.602  12.718   1.881
80276SOL    HW142725  10.566  12.680   1.961
80276SOL    HW242726  10.582  12.812   1.888
80277SOL     OW42727   0.912   8.147  14.560
80277SOL    HW142728   0.973   8.080  14.591
80277SOL    HW242729   0.826   8.116  14.589
80278SOL     OW42730  14.274   2.468  11.583
80278SOL    HW142731  14.202   2.518  11.544
80278SOL    HW242732  14.238   2.381  11.599
80279SOL     OW42733   1.660   7.921   9.640
80279SOL    HW142734   1.749   7.889   9.626
80279SOL    HW242735   1.609   7.842   9.658
80280SOL     OW42736   6.935  14.022   9.045
80280SOL    HW142737   6.888  14.082   9.103
80280SOL    HW242738   6.867  13.966   9.008
80281SOL     OW42739   3.207   7.295   7.002
80281SOL    HW142740   3.205   7.204   7.033
80281SOL    HW242741   3.289   7.330   7.038
80282SOL     OW42742  11.407   6.412   0.415
80282SOL    HW142743  11.475   6.447   0.473
80282SOL    HW242744  11.326   6.425   0.463
80283SOL     OW42745   4.199  13.244   6.403
80283SOL    HW142746   4.198  13.324   6.455
80283SOL    HW242747   4.114  13.243   6.360
80284SOL     OW42748   3.261   9.010  10.104
80284SOL    HW142749   3.234   9.002  10.013
80284SOL    HW242750   3.352   8.980  10.105
80285SOL     OW42751   9.874  10.507   9.715
80285SOL    HW142752   9.795  10.464   9.746
80285SOL    HW242753   9.888  10.578   9.778
80286SOL     OW42754   9.058   1.890   6.175
80286SOL    HW142755   8.980   1.848   6.140
80286SOL    HW242756   9.110   1.913   6.097
80287SOL     OW42757   2.584  14.430   6.905
80287SOL    HW142758   2.562  14.394   6.820
80287SOL    HW242759   2.536  14.512   6.911
80288SOL     OW42760   4.444  13.857   6.713
80288SOL    HW142761   4.391  13.792   6.758
80288SOL    HW242762   4.509  13.806   6.665
80289SOL     OW42763   9.497   8.337   6.248
80289SOL    HW142764   9.588   8.358   6.269
80289SOL    HW242765   9.460   8.308   6.331
80290SOL     OW42766  13.313  12.002   9.699
80290SOL    HW142767  13.271  12.011   9.613
80290SOL    HW242768  13.297  12.085   9.742
80291SOL     OW42769   3.088  11.014   7.728
80291SOL    HW142770   3.009  10.996   7.677
80291SOL    HW242771   3.083  11.107   7.749
80292SOL     OW42772   8.730  12.248  13.292
80292SOL    HW142773   8.730  12.265  13.386
80292SOL    HW242774   8.760  12.330  13.253
80293SOL     OW42775   2.005   8.984   7.793
80293SOL    HW142776   2.037   8.900   7.826
80293SOL    HW242777   1.915   8.967   7.767
80294SOL     OW42778   5.301  13.844   3.799
80294SOL    HW142779   5.234  13.877   3.739
80294SOL    HW242780   5.271  13.871   3.886
80295SOL     OW42781   8.270  10.916   1.607
80295SOL    HW142782   8.311  10.858   1.544
80295SOL    HW242783   8.200  10.960   1.558
80296SOL     OW42784   2.529   8.387   9.278
80296SOL    HW142785   2.589   8.377   9.203
80296SOL    HW242786   2.443   8.401   9.238
80297SOL     OW42787   5.302   6.773   4.959
80297SOL    HW142788   5.230   6.724   4.998
80297SOL    HW242789   5.283   6.772   4.865
80298SOL     OW42790  10.859  13.075   6.026
80298SOL    HW142791  10.834  13.153   6.076
80298SOL    HW242792  10.776  13.042   5.990
80299SOL     OW42793   5.275   7.688  14.479
80299SOL    HW142794   5.351   7.646  14.438
80299SOL    HW242795   5.267   7.644  14.564
80300SOL     OW42796   3.315  10.052   2.699
80300SOL    HW142797   3.314  10.048   2.604
80300SOL    HW242798   3.383   9.990   2.726
80301SOL     OW42799   1.665   6.922   8.095
80301SOL    HW142800   1.741   6.869   8.069
80301SOL    HW242801   1.640   6.888   8.181
80302SOL     OW42802  13.359   1.445   9.735
80302SOL    HW142803  13.439   1.394   9.750
80302SOL    HW242804  13.373   1.526   9.784
80303SOL     OW42805  14.599  11.798   8.606
80303SOL    HW142806  14.584  11.806   8.512
80303SOL    HW242807  14.673  11.737   8.613
80304SOL     OW42808   1.594   6.035   0.234
80304SOL    HW142809   1.569   6.124   0.209
80304SOL    HW242810   1.607   6.040   0.329
80305SOL     OW42811   7.762  12.766  13.833
80305SOL    HW142812   7.836  12.736  13.885
80305SOL    HW242813   7.710  12.819  13.893
80306SOL     OW42814   8.944   8.307   2.498
80306SOL    HW142815   8.931   8.294   2.592
80306SOL    HW242816   8.968   8.400   2.489
80307SOL     OW42817  14.720   5.864   7.151
80307SOL    HW142818  14.789   5.848   7.215
80307SOL    HW242819  14.706   5.958   7.153
80308SOL     OW42820   3.356   3.440  12.434
80308SOL    HW142821   3.333   3.452  12.526
80308SOL    HW242822   3.276   3.407  12.393
80309SOL     OW42823   2.876   7.451   3.503
80309SOL    HW142824   2.855   7.395   3.577
80309SOL    HW242825   2.797   7.450   3.448
80310SOL     OW42826  11.074   0.870  14.648
80310SOL    HW142827  11.034   0.956  14.638
80310SOL    HW242828  11.028   0.814  14.585
80311SOL     OW42829  14.361   2.167   0.904
80311SOL    HW142830  14.413   2.096   0.865
80311SOL    HW242831  14.294   2.122   0.956
80312SOL     OW42832   6.829   4.120   7.962
80312SOL    HW142833   6.912   4.155   7.994
80312SOL    HW242834   6.839   4.025   7.969
80313SOL     OW42835   8.888   9.117   6.519
80313SOL    HW142836   8.850   9.059   6.585
80313SOL    HW242837   8.904   9.199   6.566
80314SOL     OW42838  11.564  10.729   2.560
80314SOL    HW142839  11.556  10.821   2.534
80314SOL    HW242840  11.637  10.728   2.622
80315SOL     OW42841   5.393   5.007   2.110
80315SOL    HW142842   5.327   4.974   2.050
80315SOL    HW242843   5.474   5.006   2.060
80316SOL     OW42844   6.164   7.074   3.817
80316SOL    HW142845   6.139   7.140   3.880
80316SOL    HW242846   6.259   7.081   3.811
80317SOL     OW42847   5.623  13.543  11.053
80317SOL    HW142848   5.586  13.481  11.117
80317SOL    HW242849   5.583  13.627  11.075
80318SOL     OW42850  13.123  12.965   5.656
80318SOL    HW142851  13.048  12.994   5.708
80318SOL    HW242852  13.142  13.039   5.598
80319SOL     OW42853  13.579   1.818   4.682
80319SOL    HW142854  13.581   1.722   4.675
80319SOL    HW242855  13.642   1.848   4.617
80320SOL     OW42856   6.530   8.424   9.031
80320SOL    HW142857   6.457   8.381   8.985
80320SOL    HW242858   6.488   8.493   9.083
80321SOL     OW42859   4.327   4.658   2.323
80321SOL    HW142860   4.380   4.578   2.332
80321SOL    HW242861   4.309   4.685   2.413
80322SOL     OW42862  10.473   3.331   7.303
80322SOL    HW142863  10.506   3.292   7.223
80322SOL    HW242864  10.517   3.283   7.373
80323SOL     OW42865  13.837   7.395   1.390
80323SOL    HW142866  13.829   7.316   1.338
80323SOL    HW242867  13.759   7.395   1.446
80324SOL     OW42868   4.472  11.562   7.318
80324SOL    HW142869   4.544  11.552   7.256
80324SOL    HW242870   4.394  11.536   7.268
80325SOL     OW42871  12.050   6.885   2.108
80325SOL    HW142872  12.092   6.907   2.025
80325SOL    HW242873  12.032   6.791   2.101
80326SOL     OW42874  10.318   8.954   2.507
80326SOL    HW142875  10.247   9.010   2.474
80326SOL    HW242876  10.386   9.015   2.534
80327SOL     OW42877  14.772  12.097   1.256
80327SOL    HW142878  14.845  12.052   1.213
80327SOL    HW242879  14.752  12.042   1.333
80328SOL     OW42880   0.549   6.785   2.470
80328SOL    HW142881   0.582   6.831   2.547
80328SOL    HW242882   0.627   6.763   2.420
80329SOL     OW42883  13.129   4.236   1.044
80329SOL    HW142884  13.212   4.260   1.002
80329SOL    HW242885  13.062   4.275   0.988
80330SOL     OW42886   7.655  10.951  10.515
80330SOL    HW142887   7.663  11.011  10.441
80330SOL    HW242888   7.575  10.977  10.559
80331SOL     OW42889  12.987   2.931   9.617
80331SOL    HW142890  12.913   2.954   9.673
80331SOL    HW242891  13.005   3.011   9.567
80332SOL     OW42892   9.882   1.959  11.231
80332SOL    HW142893   9.935   1.997  11.162
80332SOL    HW242894   9.945   1.914  11.288
80333SOL     OW42895  13.792  12.086   1.262
80333SOL    HW142896  13.834  12.169   1.239
80333SOL    HW242897  13.769  12.047   1.177
80334SOL     OW42898   8.805   9.438   2.598
80334SOL    HW142899   8.833   9.481   2.679
80334SOL    HW242900   8.712   9.421   2.611
80335SOL     OW42901  14.068   2.155   2.296
80335SOL    HW142902  14.108   2.129   2.213
80335SOL    HW242903  13.987   2.199   2.271
80336SOL     OW42904  10.954  12.219   8.140
80336SOL    HW142905  11.028  12.189   8.087
80336SOL    HW242906  10.901  12.272   8.080
80337SOL     OW42907  12.836   8.246   2.056
80337SOL    HW142908  12.827   8.162   2.101
80337SOL    HW242909  12.923   8.243   2.017
80338SOL     OW42910   1.412   9.747  11.803
80338SOL    HW142911   1.453   9.663  11.782
80338SOL    HW242912   1.452   9.773  11.886
80339SOL     OW42913  13.495   8.378   0.596
80339SOL    HW142914  13.413   8.328   0.596
80339SOL    HW242915  13.483   8.445   0.529
80340SOL     OW42916   3.561   9.673   4.528
80340SOL    HW142917   3.502   9.710   4.462
80340SOL    HW242918   3.633   9.636   4.478
80341SOL     OW42919  10.717   9.043   8.769
80341SOL    HW142920  10.692   9.011   8.683
80341SOL    HW242921  10.796   9.095   8.753
80342SOL     OW42922   2.740   6.033  10.806
80342SOL    HW142923   2.648   6.037  10.782
80342SOL    HW242924   2.743   5.970  10.879
80343SOL     OW42925   0.762  10.713   5.447
80343SOL    HW142926   0.782  10.807   5.442
80343SOL    HW242927   0.758  10.684   5.356
80344SOL     OW42928   6.163  10.399   0.121
80344SOL    HW142929   6.218  10.364   0.191
80344SOL    HW242930   6.177  10.339   0.048
80345SOL     OW42931  12.205   6.927   6.177
80345SOL    HW142932  12.186   6.845   6.222
80345SOL    HW242933  12.195   6.905   6.084
80346SOL     OW42934   9.384  13.053  12.583
80346SOL    HW142935   9.315  12.990  12.562
80346SOL    HW242936   9.456  13.000  12.615
80347SOL     OW42937  13.979  12.439   1.351
80347SOL    HW142938  14.015  12.527   1.348
80347SOL    HW242939  14.030  12.389   1.288
80348SOL     OW42940   7.825   0.778  10.170
80348SOL    HW142941   7.763   0.805  10.102
80348SOL    HW242942   7.865   0.698  10.135
80349SOL     OW42943   8.444  14.354  13.418
80349SOL    HW142944   8.448  14.428  13.358
80349SOL    HW242945   8.381  14.294  13.378
80350SOL     OW42946  13.003   3.179  12.679
80350SOL    HW142947  12.917   3.187  12.720
80350SOL    HW242948  13.064   3.213  12.745
80351SOL     OW42949   2.433  13.120   7.475
80351SOL    HW142950   2.482  13.203   7.468
80351SOL    HW242951   2.501  13.054   7.486
80352SOL     OW42952   2.490   1.627   2.229
80352SOL    HW142953   2.548   1.553   2.248
80352SOL    HW242954   2.548   1.698   2.202
80353SOL     OW42955   5.433   8.085   8.860
80353SOL    HW142956   5.417   8.108   8.769
80353SOL    HW242957   5.525   8.110   8.875
80354SOL     OW42958   9.059  10.435   9.464
80354SOL    HW142959   8.981  10.436   9.408
80354SOL    HW242960   9.116  10.370   9.426
80355SOL     OW42961  10.164  14.455   7.187
80355SOL    HW142962  10.076  14.492   7.178
80355SOL    HW242963  10.190  14.436   7.097
80356SOL     OW42964   1.083   7.837  13.941
80356SOL    HW142965   1.107   7.882  14.022
80356SOL    HW242966   1.118   7.748  13.952
80357SOL     OW42967   6.499   2.731   9.050
80357SOL    HW142968   6.528   2.651   9.007
80357SOL    HW242969   6.555   2.800   9.015
80358SOL     OW42970   8.244   0.298   4.089
80358SOL    HW142971   8.208   0.210   4.080
80358SOL    HW242972   8.203   0.349   4.019
80359SOL     OW42973   6.224   2.989  13.806
80359SOL    HW142974   6.170   2.962  13.731
80359SOL    HW242975   6.161   3.004  13.876
80360SOL     OW42976   2.196  14.744  13.522
80360SOL    HW142977   2.251  14.708  13.453
80360SOL    HW242978   2.195  14.838  13.505
80361SOL     OW42979  14.598  14.444   2.109
80361SOL    HW142980  14.623  14.422   2.198
80361SOL    HW242981  14.678  14.431   2.057
80362SOL     OW42982   7.476  13.117  11.983
80362SOL    HW142983   7.566  13.108  12.015
80362SOL    HW242984   7.471  13.206  11.950
80363SOL     OW42985  14.526  11.707   0.307
80363SOL    HW142986  14.441  11.679   0.271
80363SOL    HW242987  14.555  11.777   0.248
80364SOL     OW42988   5.785   4.694   0.653
80364SOL    HW142989   5.771   4.695   0.748
80364SOL    HW242990   5.700   4.668   0.617
80365SOL     OW42991  12.274  12.163  11.178
80365SOL    HW142992  12.212  12.200  11.240
80365SOL    HW242993  12.332  12.108  11.232
80366SOL     OW42994   8.027   3.397   1.038
80366SOL    HW142995   7.978   3.321   1.008
80366SOL    HW242996   7.960   3.462   1.059
80367SOL     OW42997  10.297  13.552   4.495
80367SOL    HW142998  10.300  13.508   4.410
80367SOL    HW242999  10.363  13.621   4.489
80368SOL     OW43000   8.448   4.508   5.048
80368SOL    HW143001   8.535   4.542   5.025
80368SOL    HW243002   8.390   4.585   5.041
80369SOL     OW43003   5.913   1.438   1.272
80369SOL    HW143004   5.944   1.350   1.252
80369SOL    HW243005   5.842   1.425   1.334
80370SOL     OW43006   4.941   4.755   1.873
80370SOL    HW143007   4.855   4.728   1.905
80370SOL    HW243008   4.991   4.674   1.862
80371SOL     OW43009  13.559   2.109  13.403
80371SOL    HW143010  13.558   2.037  13.339
80371SOL    HW243011  13.495   2.083  13.469
80372SOL     OW43012   2.758   1.455   9.724
80372SOL    HW143013   2.750   1.550   9.723
80372SOL    HW243014   2.814   1.434   9.649
80373SOL     OW43015   6.097   4.565  13.453
80373SOL    HW143016   6.059   4.508  13.519
80373SOL    HW243017   6.068   4.653  13.478
80374SOL     OW43018   9.840  10.948   0.500
80374SOL    HW143019   9.917  10.943   0.557
80374SOL    HW243020   9.856  11.025   0.445
80375SOL     OW43021   4.910   2.827   6.605
80375SOL    HW143022   4.887   2.919   6.617
80375SOL    HW243023   5.005   2.828   6.593
80376SOL     OW43024   9.434   9.778   9.473
80376SOL    HW143025   9.433   9.749   9.565
80376SOL    HW243026   9.508   9.730   9.434
80377SOL     OW43027  11.849   4.298   6.545
80377SOL    HW143028  11.922   4.253   6.502
80377SOL    HW243029  11.815   4.358   6.478
80378SOL     OW43030  12.191   1.313   8.549
80378SOL    HW143031  12.272   1.333   8.596
80378SOL    HW243032  12.130   1.283   8.617
80379SOL     OW43033   0.612  12.534   0.515
80379SOL    HW143034   0.536  12.498   0.471
80379SOL    HW243035   0.577  12.577   0.593
80380SOL     OW43036   3.546   2.459  12.607
80380SOL    HW143037   3.553   2.555  12.603
80380SOL    HW243038   3.462   2.443  12.650
80381SOL     OW43039  10.873  12.799   0.082
80381SOL    HW143040  10.966  12.824   0.083
80381SOL    HW243041  10.868  12.723   0.140
80382SOL     OW43042  13.944  11.269  14.434
80382SOL    HW143043  13.946  11.199  14.499
80382SOL    HW243044  14.030  11.309  14.439
80383SOL     OW43045  11.413  10.516   7.955
80383SOL    HW143046  11.423  10.558   8.040
80383SOL    HW243047  11.431  10.423   7.972
80384SOL     OW43048   8.265   3.413  11.229
80384SOL    HW143049   8.349   3.369  11.239
80384SOL    HW243050   8.282   3.504  11.255
80385SOL     OW43051  10.159   4.048  12.655
80385SOL    HW143052  10.210   3.969  12.670
80385SOL    HW243053  10.078   4.018  12.613
80386SOL     OW43054   8.484   2.509  12.739
80386SOL    HW143055   8.518   2.442  12.799
80386SOL    HW243056   8.519   2.591  12.773
80387SOL     OW43057   6.406  10.393   1.188
80387SOL    HW143058   6.430  10.300   1.184
80387SOL    HW243059   6.406  10.414   1.281
80388SOL     OW43060   9.160   7.817   8.908
80388SOL    HW143061   9.150   7.732   8.950
80388SOL    HW243062   9.231   7.804   8.844
80389SOL     OW43063  12.335  13.961   5.775
80389SOL    HW143064  12.307  14.000   5.692
80389SOL    HW243065  12.430  13.962   5.772
80390SOL     OW43066   0.851  10.543   2.002
80390SOL    HW143067   0.928  10.600   2.010
80390SOL    HW243068   0.814  10.564   1.916
80391SOL     OW43069   6.290   7.502   7.389
80391SOL    HW143070   6.219   7.485   7.327
80391SOL    HW243071   6.347   7.425   7.382
80392SOL     OW43072   1.811   6.509   8.566
80392SOL    HW143073   1.864   6.429   8.573
80392SOL    HW243074   1.722   6.480   8.587
80393SOL     OW43075   4.363   0.174  10.813
80393SOL    HW143076   4.425   0.136  10.875
80393SOL    HW243077   4.382   0.130  10.730
80394SOL     OW43078  11.822   3.740   0.101
80394SOL    HW143079  11.839   3.668   0.162
80394SOL    HW243080  11.875   3.720   0.024
80395SOL     OW43081  11.034  10.981  13.209
80395SOL    HW143082  11.078  11.062  13.186
80395SOL    HW243083  11.088  10.912  13.170
80396SOL     OW43084   0.151   0.971   0.181
80396SOL    HW143085   0.125   1.026   0.106
80396SOL    HW243086   0.114   0.885   0.161
80397SOL     OW43087   4.658  11.757  13.949
80397SOL    HW143088   4.750  11.761  13.974
80397SOL    HW243089   4.657  11.784  13.857
80398SOL     OW43090  10.369   9.928   1.490
80398SOL    HW143091  10.310   9.880   1.549
80398SOL    HW243092  10.447   9.872   1.484
80399SOL     OW43093   6.555   9.260  11.171
80399SOL    HW143094   6.507   9.323  11.117
80399SOL    HW243095   6.634   9.241  11.122
80400SOL     OW43096  11.498   3.755  14.216
80400SOL    HW143097  11.405   3.760  14.197
80400SOL    HW243098  11.526   3.672  14.177
80401SOL     OW43099   7.146   5.408   9.893
80401SOL    HW143100   7.143   5.346   9.966
80401SOL    HW243101   7.056   5.415   9.864
80402SOL     OW43102  10.002  10.818  13.721
80402SOL    HW143103  10.054  10.885  13.764
80402SOL    HW243104  10.009  10.839  13.627
80403SOL     OW43105   5.540   9.348   3.086
80403SOL    HW143106   5.599   9.419   3.063
80403SOL    HW243107   5.581   9.270   3.048
80404SOL     OW43108   2.510   1.124  10.252
80404SOL    HW143109   2.447   1.189  10.223
80404SOL    HW243110   2.556   1.167  10.325
80405SOL     OW43111  12.796  10.965   4.413
80405SOL    HW143112  12.701  10.953   4.408
80405SOL    HW243113  12.825  10.895   4.472
80406SOL     OW43114   0.202  12.596   3.510
80406SOL    HW143115   0.185  12.690   3.511
80406SOL    HW243116   0.296  12.588   3.528
80407SOL     OW43117   5.778   9.449  13.555
80407SOL    HW143118   5.764   9.455  13.461
80407SOL    HW243119   5.843   9.516  13.574
80408SOL     OW43120  13.103   8.475  12.860
80408SOL    HW143121  13.066   8.413  12.923
80408SOL    HW243122  13.182   8.509  12.904
80409SOL     OW43123  10.144   9.880   4.099
80409SOL    HW143124  10.125   9.944   4.167
80409SOL    HW243125  10.071   9.886   4.038
80410SOL     OW43126   1.088   6.978   2.190
80410SOL    HW143127   1.023   7.042   2.160
80410SOL    HW243128   1.144   7.028   2.250
80411SOL     OW43129  11.878  10.763   1.788
80411SOL    HW143130  11.892  10.669   1.783
80411SOL    HW243131  11.782  10.773   1.786
80412SOL     OW43132  13.664   5.771   4.126
80412SOL    HW143133  13.628   5.855   4.098
80412SOL    HW243134  13.596   5.733   4.181
80413SOL     OW43135   8.977   6.206   1.115
80413SOL    HW143136   8.919   6.155   1.057
80413SOL    HW243137   9.033   6.140   1.157
80414SOL     OW43138   0.066   7.559   4.841
80414SOL    HW143139   0.131   7.520   4.783
80414SOL    HW243140   0.089   7.527   4.928
80415SOL     OW43141   2.291  12.630  11.447
80415SOL    HW143142   2.236  12.583  11.509
80415SOL    HW243143   2.349  12.563  11.411
80416SOL     OW43144  12.708  11.646  12.452
80416SOL    HW143145  12.789  11.676  12.410
80416SOL    HW243146  12.728  11.557  12.480
80417SOL     OW43147   3.113   2.859  10.270
80417SOL    HW143148   3.177   2.849  10.200
80417SOL    HW243149   3.102   2.954  10.279
80418SOL     OW43150  10.360   4.991   8.222
80418SOL    HW143151  10.367   5.085   8.232
80418SOL    HW243152  10.442   4.965   8.180
80419SOL     OW43153  12.278  11.833  10.763
80419SOL    HW143154  12.202  11.890  10.752
80419SOL    HW243155  12.336  11.858  10.691
80420SOL     OW43156   7.719   2.058  13.421
80420SOL    HW143157   7.782   1.999  13.461
80420SOL    HW243158   7.758   2.081  13.337
80421SOL     OW43159   9.988   7.237  10.039
80421SOL    HW143160  10.002   7.221  10.132
80421SOL    HW243161  10.042   7.313  10.018
80422SOL     OW43162   3.305  14.594   0.043
80422SOL    HW143163   3.365  14.564   0.112
80422SOL    HW243164   3.363  14.625  14.856
80423SOL     OW43165   4.996   3.947  12.681
80423SOL    HW143166   5.075   3.917  12.637
80423SOL    HW243167   4.958   3.868  12.719
80424SOL     OW43168  13.506  11.601   7.937
80424SOL    HW143169  13.593  11.586   7.975
80424SOL    HW243170  13.497  11.696   7.933
80425SOL     OW43171   0.232   8.244   3.101
80425SOL    HW143172   0.293   8.240   3.174
80425SOL    HW243173   0.154   8.286   3.137
80426SOL     OW43174   8.645  13.143   2.211
80426SOL    HW143175   8.569  13.175   2.259
80426SOL    HW243176   8.678  13.071   2.265
80427SOL     OW43177  14.170   2.243  12.334
80427SOL    HW143178  14.238   2.257  12.268
80427SOL    HW243179  14.159   2.148  12.338
80428SOL     OW43180   2.500   9.677   9.821
80428SOL    HW143181   2.455   9.605   9.778
80428SOL    HW243182   2.436   9.710   9.885
80429SOL     OW43183  11.135  14.482  14.790
80429SOL    HW143184  11.170  14.439  14.712
80429SOL    HW243185  11.195  14.555  14.806
80430SOL     OW43186  10.966  13.143   0.403
80430SOL    HW143187  10.926  13.114   0.485
80430SOL    HW243188  10.894  13.183   0.354
80431SOL     OW43189   0.057   7.856  11.120
80431SOL    HW143190   0.010   7.820  11.195
80431SOL    HW243191   0.148   7.860  11.149
80432SOL     OW43192   2.314   0.962   7.875
80432SOL    HW143193   2.261   0.936   7.799
80432SOL    HW243194   2.282   1.049   7.898
80433SOL     OW43195   2.752   0.939   2.531
80433SOL    HW143196   2.672   0.886   2.528
80433SOL    HW243197   2.755   0.973   2.620
80434SOL     OW43198  10.624  10.791   2.838
80434SOL    HW143199  10.553  10.796   2.775
80434SOL    HW243200  10.584  10.755   2.917
80435SOL     OW43201   5.053  12.347   9.107
80435SOL    HW143202   5.079  12.394   9.187
80435SOL    HW243203   5.096  12.262   9.115
80436SOL     OW43204   3.132   0.804  12.412
80436SOL    HW143205   3.077   0.820  12.489
80436SOL    HW243206   3.077   0.750  12.355
80437SOL     OW43207   8.072   4.538  14.814
80437SOL    HW143208   8.068   4.578   0.019
80437SOL    HW243209   8.150   4.483  14.816
80438SOL     OW43210  11.735   9.841   2.564
80438SOL    HW143211  11.736   9.908   2.496
80438SOL    HW243212  11.722   9.889   2.646
80439SOL     OW43213  12.881   9.837   2.523
80439SOL    HW143214  12.944   9.900   2.559
80439SOL    HW243215  12.890   9.846   2.428
80440SOL     OW43216   6.000  11.103   3.727
80440SOL    HW143217   5.998  11.108   3.631
80440SOL    HW243218   5.926  11.156   3.755
80441SOL     OW43219  10.177   6.590   1.497
80441SOL    HW143220  10.245   6.627   1.440
80441SOL    HW243221  10.154   6.506   1.457
80442SOL     OW43222   6.142   4.682   1.482
80442SOL    HW143223   6.191   4.753   1.441
80442SOL    HW243224   6.098   4.638   1.409
80443SOL     OW43225   0.059   4.121   3.435
80443SOL    HW143226  14.846   4.113   3.436
80443SOL    HW243227   0.081   4.154   3.522
80444SOL     OW43228   8.561   0.653   7.686
80444SOL    HW143229   8.594   0.564   7.678
80444SOL    HW243230   8.573   0.691   7.599
80445SOL     OW43231   6.239   6.305   5.896
80445SOL    HW143232   6.300   6.327   5.966
80445SOL    HW243233   6.284   6.239   5.844
80446SOL     OW43234   8.944   2.291   5.420
80446SOL    HW143235   9.033   2.257   5.430
80446SOL    HW243236   8.930   2.343   5.500
80447SOL     OW43237   6.940  13.291  13.044
80447SOL    HW143238   6.943  13.307  12.949
80447SOL    HW243239   7.006  13.223  13.059
80448SOL     OW43240   5.568   2.288   6.191
80448SOL    HW143241   5.622   2.224   6.238
80448SOL    HW243242   5.488   2.239   6.169
80449SOL     OW43243  10.788   3.817   0.351
80449SOL    HW143244  10.812   3.871   0.426
80449SOL    HW243245  10.816   3.728   0.375
80450SOL     OW43246   9.988   1.537  11.246
80450SOL    HW143247  10.015   1.510  11.158
80450SOL    HW243248  10.041   1.483  11.304
80451SOL     OW43249   4.932   2.589  10.773
80451SOL    HW143250   4.874   2.513  10.770
80451SOL    HW243251   4.886   2.656  10.721
80452SOL     OW43252   2.579   5.028  13.829
80452SOL    HW143253   2.506   4.974  13.857
80452SOL    HW243254   2.619   4.979  13.757
80453SOL     OW43255   2.960   7.058   7.472
80453SOL    HW143256   3.023   7.016   7.530
80453SOL    HW243257   2.883   7.001   7.473
80454SOL     OW43258   6.451   2.027   4.961
80454SOL    HW143259   6.487   2.036   5.049
80454SOL    HW243260   6.368   1.982   4.974
80455SOL     OW43261   4.100   5.678   6.922
80455SOL    HW143262   4.007   5.666   6.905
80455SOL    HW243263   4.143   5.610   6.871
80456SOL     OW43264  11.763   1.701   7.506
80456SOL    HW143265  11.702   1.774   7.512
80456SOL    HW243266  11.816   1.707   7.586
80457SOL     OW43267   2.512   5.140  10.099
80457SOL    HW143268   2.565   5.180  10.169
80457SOL    HW243269   2.472   5.063  10.141
80458SOL     OW43270   8.963  11.731  10.054
80458SOL    HW143271   8.941  11.666  10.120
80458SOL    HW243272   9.002  11.680   9.982
80459SOL     OW43273   9.402  11.397   5.840
80459SOL    HW143274   9.474  11.337   5.857
80459SOL    HW243275   9.393  11.399   5.745
80460SOL     OW43276  11.415   0.420   9.663
80460SOL    HW143277  11.407   0.372   9.745
80460SOL    HW243278  11.504   0.455   9.664
80461SOL     OW43279   4.926  10.113   9.186
80461SOL    HW143280   4.965  10.082   9.104
80461SOL    HW243281   4.856  10.050   9.205
80462SOL     OW43282  11.866   4.278  13.086
80462SOL    HW143283  11.796   4.328  13.045
80462SOL    HW243284  11.869   4.196  13.036
80463SOL     OW43285  13.487   1.995   1.429
80463SOL    HW143286  13.405   2.031   1.393
80463SOL    HW243287  13.468   1.902   1.441
80464SOL     OW43288   6.196  11.060  12.976
80464SOL    HW143289   6.164  11.057  12.886
80464SOL    HW243290   6.189  11.152  13.001
80465SOL     OW43291   8.762   8.628  12.091
80465SOL    HW143292   8.723   8.671  12.015
80465SOL    HW243293   8.831   8.688  12.120
80466SOL     OW43294   0.012   7.089  10.813
80466SOL    HW143295   0.013   7.058  10.903
80466SOL    HW243296   0.033   7.182  10.818
80467SOL     OW43297   1.637   4.838   6.587
80467SOL    HW143298   1.564   4.800   6.636
80467SOL    HW243299   1.709   4.777   6.601
80468SOL     OW43300   8.208   4.315  10.207
80468SOL    HW143301   8.271   4.292  10.274
80468SOL    HW243302   8.219   4.409  10.195
80469SOL     OW43303   0.941   8.752   7.769
80469SOL    HW143304   0.904   8.688   7.830
80469SOL    HW243305   0.898   8.733   7.686
80470SOL     OW43306   9.474   5.627   6.611
80470SOL    HW143307   9.537   5.696   6.630
80470SOL    HW243308   9.527   5.555   6.577
80471SOL     OW43309   4.075   9.747   2.671
80471SOL    HW143310   4.123   9.735   2.753
80471SOL    HW243311   4.022   9.825   2.686
80472SOL     OW43312   0.743   9.758  14.400
80472SOL    HW143313   0.696   9.696  14.345
80472SOL    HW243314   0.818   9.786  14.347
80473SOL     OW43315  13.336   6.580  10.643
80473SOL    HW143316  13.418   6.604  10.601
80473SOL    HW243317  13.300   6.663  10.676
80474SOL     OW43318   0.054   0.395  10.550
80474SOL    HW143319   0.114   0.459  10.590
80474SOL    HW243320  14.849   0.433  10.561
80475SOL     OW43321   0.467  14.149   0.846
80475SOL    HW143322   0.517  14.141   0.927
80475SOL    HW243323   0.399  14.082   0.853
80476SOL     OW43324   1.388   5.396   7.610
80476SOL    HW143325   1.470   5.422   7.652
80476SOL    HW243326   1.335   5.476   7.609
80477SOL     OW43327   8.458   8.007   4.970
80477SOL    HW143328   8.526   7.952   5.008
80477SOL    HW243329   8.376   7.970   5.003
80478SOL     OW43330  10.274   5.778  11.038
80478SOL    HW143331  10.298   5.706  10.979
80478SOL    HW243332  10.179   5.769  11.049
80479SOL     OW43333   5.569  14.451   3.475
80479SOL    HW143334   5.536  14.372   3.431
80479SOL    HW243335   5.501  14.472   3.539
80480SOL     OW43336  11.539   8.032   6.672
80480SOL    HW143337  11.482   7.961   6.641
80480SOL    HW243338  11.495   8.112   6.645
80481SOL     OW43339   7.926   0.866   1.707
80481SOL    HW143340   7.859   0.825   1.653
80481SOL    HW243341   7.997   0.886   1.646
80482SOL     OW43342  13.788   4.867   3.374
80482SOL    HW143343  13.736   4.850   3.453
80482SOL    HW243344  13.725   4.863   3.302
80483SOL     OW43345  11.892  13.963   5.622
80483SOL    HW143346  11.815  14.000   5.665
80483SOL    HW243347  11.921  14.032   5.562
80484SOL     OW43348   5.601   6.937  13.749
80484SOL    HW143349   5.573   6.880  13.678
80484SOL    HW243350   5.690   6.964  13.724
80485SOL     OW43351   3.921   3.839   2.569
80485SOL    HW143352   3.872   3.913   2.534
80485SOL    HW243353   3.860   3.796   2.629
80486SOL     OW43354  14.159   8.634  10.128
80486SOL    HW143355  14.101   8.710  10.127
80486SOL    HW243356  14.176   8.616  10.036
80487SOL     OW43357   7.809  10.043   0.898
80487SOL    HW143358   7.764   9.959   0.899
80487SOL    HW243359   7.895  10.025   0.936
80488SOL     OW43360  10.500   1.806  14.548
80488SOL    HW143361  10.441   1.763  14.485
80488SOL    HW243362  10.566   1.739  14.568
80489SOL     OW43363   6.998  11.413  10.760
80489SOL    HW143364   7.080  11.366  10.775
80489SOL    HW243365   7.019  11.505  10.779
80490SOL     OW43366  14.322   3.634   4.409
80490SOL    HW143367  14.309   3.577   4.333
80490SOL    HW243368  14.302   3.722   4.377
80491SOL     OW43369   6.859  12.687   2.364
80491SOL    HW143370   6.792  12.702   2.298
80491SOL    HW243371   6.901  12.773   2.376
80492SOL     OW43372   4.469  11.841  14.741
80492SOL    HW143373   4.480  11.778  14.813
80492SOL    HW243374   4.528  11.913  14.763
80493SOL     OW43375   6.284  10.057   6.925
80493SOL    HW143376   6.191  10.071   6.907
80493SOL    HW243377   6.303   9.972   6.885
80494SOL     OW43378   9.425  10.398   5.759
80494SOL    HW143379   9.515  10.425   5.771
80494SOL    HW243380   9.398  10.363   5.844
80495SOL     OW43381   1.391  13.164   3.810
80495SOL    HW143382   1.317  13.127   3.858
80495SOL    HW243383   1.395  13.114   3.729
80496SOL     OW43384   2.688   9.922   0.459
80496SOL    HW143385   2.737   9.945   0.379
80496SOL    HW243386   2.596   9.929   0.434
80497SOL     OW43387   5.426   7.124  14.499
80497SOL    HW143388   5.395   7.189  14.436
80497SOL    HW243389   5.458   7.175  14.573
80498SOL     OW43390  12.643   9.696   2.561
80498SOL    HW143391  12.698   9.619   2.578
80498SOL    HW243392  12.703   9.770   2.568
80499SOL     OW43393  14.330  13.606   0.171
80499SOL    HW143394  14.354  13.516   0.193
80499SOL    HW243395  14.379  13.624   0.090
80500SOL     OW43396   5.078  10.183   7.501
80500SOL    HW143397   5.004  10.223   7.456
80500SOL    HW243398   5.053  10.092   7.513
80501SOL     OW43399  12.798   1.515   5.335
80501SOL    HW143400  12.873   1.571   5.316
80501SOL    HW243401  12.817   1.480   5.422
80502SOL     OW43402   6.393   6.871   7.015
80502SOL    HW143403   6.303   6.844   7.029
80502SOL    HW243404   6.441   6.842   7.092
80503SOL     OW43405  12.226  14.803   2.074
80503SOL    HW143406  12.243  14.713   2.103
80503SOL    HW243407  12.175  14.842   2.145
80504SOL     OW43408  11.122   8.952   0.229
80504SOL    HW143409  11.135   9.030   0.284
80504SOL    HW243410  11.086   8.887   0.289
80505SOL     OW43411  13.008   5.689   6.279
80505SOL    HW143412  12.999   5.597   6.304
80505SOL    HW243413  13.077   5.689   6.212
80506SOL     OW43414   0.092   5.727  10.355
80506SOL    HW143415   0.079   5.741  10.262
80506SOL    HW243416   0.055   5.805  10.397
80507SOL     OW43417   4.707  11.480   8.466
80507SOL    HW143418   4.737  11.542   8.399
80507SOL    HW243419   4.691  11.534   8.543
80508SOL     OW43420   0.083   0.964   2.242
80508SOL    HW143421   0.158   0.948   2.300
80508SOL    HW243422   0.119   1.018   2.172
80509SOL     OW43423  10.137   1.687  13.940
80509SOL    HW143424  10.093   1.704  14.023
80509SOL    HW243425  10.112   1.761  13.884
80510SOL     OW43426  10.162   4.322  13.720
80510SOL    HW143427  10.079   4.355  13.684
80510SOL    HW243428  10.206   4.281  13.646
80511SOL     OW43429   9.084   4.847  13.564
80511SOL    HW143430   9.161   4.824  13.616
80511SOL    HW243431   9.028   4.894  13.626
80512SOL     OW43432   1.803   7.517  11.773
80512SOL    HW143433   1.731   7.518  11.835
80512SOL    HW243434   1.846   7.602  11.784
80513SOL     OW43435   4.710   7.144  13.769
80513SOL    HW143436   4.656   7.098  13.833
80513SOL    HW243437   4.688   7.236  13.781
80514SOL     OW43438   0.393   6.208   8.776
80514SOL    HW143439   0.319   6.154   8.751
80514SOL    HW243440   0.469   6.165   8.737
80515SOL     OW43441   5.217   3.835   1.373
80515SOL    HW143442   5.244   3.926   1.366
80515SOL    HW243443   5.121   3.839   1.380
80516SOL     OW43444  11.467   1.575   0.820
80516SOL    HW143445  11.536   1.540   0.876
80516SOL    HW243446  11.514   1.620   0.749
80517SOL     OW43447  14.185   7.745   9.472
80517SOL    HW143448  14.183   7.748   9.376
80517SOL    HW243449  14.264   7.696   9.493
80518SOL     OW43450   3.883  12.847   7.842
80518SOL    HW143451   3.821  12.834   7.913
80518SOL    HW243452   3.829  12.856   7.763
80519SOL     OW43453   2.371   0.691   4.043
80519SOL    HW143454   2.360   0.682   4.137
80519SOL    HW243455   2.367   0.601   4.010
80520SOL     OW43456   1.066   5.051  11.212
80520SOL    HW143457   1.016   5.042  11.293
80520SOL    HW243458   1.020   4.995  11.149
80521SOL     OW43459   6.320   7.814   8.134
80521SOL    HW143460   6.373   7.792   8.210
80521SOL    HW243461   6.280   7.898   8.156
80522SOL     OW43462   9.132  12.642   2.060
80522SOL    HW143463   9.040  12.620   2.075
80522SOL    HW243464   9.152  12.603   1.975
80523SOL     OW43465   6.946   3.818  11.823
80523SOL    HW143466   6.914   3.769  11.899
80523SOL    HW243467   6.894   3.898  11.822
80524SOL     OW43468   6.330   7.209   6.765
80524SOL    HW143469   6.283   7.159   6.831
80524SOL    HW243470   6.342   7.296   6.804
80525SOL     OW43471   8.081   2.505  12.777
80525SOL    HW143472   8.052   2.467  12.860
80525SOL    HW243473   8.044   2.593  12.777
80526SOL     OW43474   2.776  12.379  13.355
80526SOL    HW143475   2.800  12.467  13.326
80526SOL    HW243476   2.710  12.349  13.293
80527SOL     OW43477   2.133  14.344   0.175
80527SOL    HW143478   2.070  14.302   0.233
80527SOL    HW243479   2.080  14.400   0.118
80528SOL     OW43480  13.058  12.206   7.442
80528SOL    HW143481  12.978  12.259   7.444
80528SOL    HW243482  13.116  12.252   7.382
80529SOL     OW43483   8.682  10.824   6.261
80529SOL    HW143484   8.651  10.893   6.203
80529SOL    HW243485   8.648  10.743   6.223
80530SOL     OW43486   8.733   2.063  12.438
80530SOL    HW143487   8.735   1.993  12.373
80530SOL    HW243488   8.825   2.089  12.449
80531SOL     OW43489   4.887   6.197   7.112
80531SOL    HW143490   4.924   6.223   7.196
80531SOL    HW243491   4.895   6.275   7.057
80532SOL     OW43492   4.078   3.665  11.685
80532SOL    HW143493   4.084   3.759  11.668
80532SOL    HW243494   4.150   3.627  11.633
80533SOL     OW43495  13.102  11.473  12.570
80533SOL    HW143496  13.152  11.554  12.574
80533SOL    HW243497  13.049  11.482  12.491
80534SOL     OW43498  12.067   0.945  10.892
80534SOL    HW143499  12.020   0.980  10.968
80534SOL    HW243500  12.157   0.935  10.922
80535SOL     OW43501   6.379   8.995   6.389
80535SOL    HW143502   6.432   9.070   6.417
80535SOL    HW243503   6.425   8.960   6.313
80536SOL     OW43504   8.526   8.328  14.842
80536SOL    HW143505   8.527   8.236  14.867
80536SOL    HW243506   8.560   8.374   0.037
80537SOL     OW43507   9.045  14.497  10.329
80537SOL    HW143508   9.033  14.539  10.414
80537SOL    HW243509   9.140  14.493  10.318
80538SOL     OW43510  14.603   0.608   2.316
80538SOL    HW143511  14.547   0.532   2.302
80538SOL    HW243512  14.553   0.664   2.376
80539SOL     OW43513   2.043  14.253   6.455
80539SOL    HW143514   2.040  14.309   6.532
80539SOL    HW243515   2.082  14.308   6.387
80540SOL     OW43516   9.038  11.931  13.820
80540SOL    HW143517   9.054  11.836  13.823
80540SOL    HW243518   9.021  11.950  13.728
80541SOL     OW43519   0.886   7.828  12.965
80541SOL    HW143520   0.818   7.892  12.946
80541SOL    HW243521   0.897   7.778  12.884
80542SOL     OW43522   7.743   4.885   6.513
80542SOL    HW143523   7.746   4.800   6.469
80542SOL    HW243524   7.797   4.942   6.457
80543SOL     OW43525   3.878  14.374  12.786
80543SOL    HW143526   3.898  14.319  12.862
80543SOL    HW243527   3.939  14.447  12.792
80544SOL     OW43528   4.214   2.005   1.591
80544SOL    HW143529   4.130   2.006   1.545
80544SOL    HW243530   4.279   1.997   1.521
80545SOL     OW43531   2.289   0.816   8.892
80545SOL    HW143532   2.279   0.910   8.885
80545SOL    HW243533   2.233   0.791   8.965
80546SOL     OW43534  12.981  13.587   5.168
80546SOL    HW143535  12.954  13.537   5.091
80546SOL    HW243536  12.957  13.678   5.148
80547SOL     OW43537  12.251  13.193   1.357
80547SOL    HW143538  12.326  13.144   1.323
80547SOL    HW243539  12.257  13.183   1.452
80548SOL     OW43540  13.890   9.280   1.924
80548SOL    HW143541  13.924   9.283   1.835
80548SOL    HW243542  13.795   9.290   1.915
80549SOL     OW43543   6.382  12.854   7.650
80549SOL    HW143544   6.368  12.760   7.640
80549SOL    HW243545   6.340  12.893   7.574
80550SOL     OW43546   6.923  12.640   6.895
80550SOL    HW143547   7.015  12.644   6.871
80550SOL    HW243548   6.900  12.547   6.889
80551SOL     OW43549   3.061   0.628   6.757
80551SOL    HW143550   3.006   0.627   6.835
80551SOL    HW243551   3.043   0.713   6.716
80552SOL     OW43552   8.898  14.364   2.105
80552SOL    HW143553   8.814  14.398   2.135
80552SOL    HW243554   8.922  14.421   2.032
80553SOL     OW43555  13.439   5.544  10.449
80553SOL    HW143556  13.494   5.614  10.416
80553SOL    HW243557  13.501   5.479  10.483
80554SOL     OW43558   8.172   7.766  10.180
80554SOL    HW143559   8.116   7.733  10.110
80554SOL    HW243560   8.146   7.716  10.257
80555SOL     OW43561  11.331   9.437   0.366
80555SOL    HW143562  11.358   9.345   0.367
80555SOL    HW243563  11.320   9.459   0.459
80556SOL     OW43564   9.317  13.658  13.836
80556SOL    HW143565   9.231  13.637  13.874
80556SOL    HW243566   9.320  13.754  13.837
80557SOL     OW43567   9.708   6.503   5.151
80557SOL    HW143568   9.737   6.465   5.068
80557SOL    HW243569   9.761   6.582   5.161
80558SOL     OW43570   0.720  10.198  10.734
80558SOL    HW143571   0.677  10.152  10.662
80558SOL    HW243572   0.699  10.290  10.720
80559SOL     OW43573   2.872   9.566   8.901
80559SOL    HW143574   2.860   9.590   8.809
80559SOL    HW243575   2.956   9.605   8.925
80560SOL     OW43576  11.848  11.575  10.515
80560SOL    HW143577  11.761  11.556  10.481
80560SOL    HW243578  11.908  11.536  10.451
80561SOL     OW43579  10.793   6.418  11.180
80561SOL    HW143580  10.787   6.461  11.095
80561SOL    HW243581  10.870   6.458  11.221
80562SOL     OW43582  11.773   5.756   4.463
80562SOL    HW143583  11.707   5.707   4.414
80562SOL    HW243584  11.787   5.705   4.543
80563SOL     OW43585   2.872   7.973   7.112
80563SOL    HW143586   2.822   7.993   7.033
80563SOL    HW243587   2.878   7.878   7.113
80564SOL     OW43588   0.669   9.334   5.141
80564SOL    HW143589   0.657   9.427   5.120
80564SOL    HW243590   0.664   9.329   5.236
80565SOL     OW43591  13.815   2.693   0.822
80565SOL    HW143592  13.758   2.650   0.885
80565SOL    HW243593  13.827   2.781   0.855
80566SOL     OW43594   0.992   3.876   4.116
80566SOL    HW143595   1.024   3.957   4.077
80566SOL    HW243596   1.070   3.834   4.152
80567SOL     OW43597  10.277   9.145   2.170
80567SOL    HW143598  10.279   9.231   2.211
80567SOL    HW243599  10.306   9.161   2.080
80568SOL     OW43600   8.594  12.992   4.153
80568SOL    HW143601   8.595  12.900   4.128
80568SOL    HW243602   8.502  13.010   4.175
80569SOL     OW43603   1.039   0.528  12.940
80569SOL    HW143604   1.030   0.566  12.853
80569SOL    HW243605   0.978   0.455  12.941
80570SOL     OW43606   7.050   2.051  10.905
80570SOL    HW143607   7.078   2.133  10.947
80570SOL    HW243608   7.009   2.080  10.823
80571SOL     OW43609   6.912   6.860   7.557
80571SOL    HW143610   6.965   6.877   7.635
80571SOL    HW243611   6.842   6.802   7.586
80572SOL     OW43612   4.939   1.861   6.362
80572SOL    HW143613   4.860   1.916   6.364
80572SOL    HW243614   4.905   1.771   6.360
80573SOL     OW43615   6.982   5.793   4.697
80573SOL    HW143616   6.973   5.889   4.700
80573SOL    HW243617   6.948   5.763   4.781
80574SOL     OW43618  11.828   6.878  13.500
80574SOL    HW143619  11.916   6.913  13.502
80574SOL    HW243620  11.778   6.939  13.447
80575SOL     OW43621  12.220  13.651   1.155
80575SOL    HW143622  12.288  13.686   1.097
80575SOL    HW243623  12.268  13.613   1.228
80576SOL     OW43624  12.556   4.153   1.124
80576SOL    HW143625  12.611   4.216   1.171
80576SOL    HW243626  12.597   4.144   1.038
80577SOL     OW43627  11.263   7.160   5.269
80577SOL    HW143628  11.304   7.232   5.222
80577SOL    HW243629  11.303   7.081   5.232
80578SOL     OW43630   3.040   7.173  14.454
80578SOL    HW143631   3.099   7.236  14.495
80578SOL    HW243632   2.961   7.175  14.507
80579SOL     OW43633   7.823   6.241   1.059
80579SOL    HW143634   7.771   6.217   1.136
80579SOL    HW243635   7.875   6.162   1.040
80580SOL     OW43636   2.664   9.376  13.885
80580SOL    HW143637   2.614   9.403  13.808
80580SOL    HW243638   2.748   9.346  13.851
80581SOL     OW43639  10.801   1.644  10.331
80581SOL    HW143640  10.740   1.603  10.270
80581SOL    HW243641  10.821   1.729  10.290
80582SOL     OW43642   5.585  14.377   1.054
80582SOL    HW143643   5.506  14.395   1.105
80582SOL    HW243644   5.640  14.325   1.112
80583SOL     OW43645  10.753   1.506   9.602
80583SOL    HW143646  10.833   1.552   9.577
80583SOL    HW243647  10.778   1.454   9.679
80584SOL     OW43648   9.438   0.116  10.643
80584SOL    HW143649   9.392   0.102  10.726
80584SOL    HW243650   9.471   0.030  10.619
80585SOL     OW43651   4.341   6.951   2.913
80585SOL    HW143652   4.429   6.932   2.944
80585SOL    HW243653   4.314   6.870   2.868
80586SOL     OW43654  14.346   0.049   5.633
80586SOL    HW143655  14.260   0.085   5.654
80586SOL    HW243656  14.328  14.853   5.582
80587SOL     OW43657   4.994   9.682  10.118
80587SOL    HW143658   5.027   9.750  10.177
80587SOL    HW243659   5.065   9.617  10.114
80588SOL     OW43660   5.635  10.876   8.052
80588SOL    HW143661   5.576  10.874   8.128
80588SOL    HW243662   5.702  10.811   8.072
80589SOL     OW43663   5.446   4.690   3.052
80589SOL    HW143664   5.474   4.599   3.060
80589SOL    HW243665   5.523   4.742   3.076
80590SOL     OW43666   2.569   1.304   2.200
80590SOL    HW143667   2.540   1.252   2.125
80590SOL    HW243668   2.558   1.247   2.275
80591SOL     OW43669   0.598   2.877  10.446
80591SOL    HW143670   0.560   2.790  10.439
80591SOL    HW243671   0.685   2.869  10.405
80592SOL     OW43672   1.803   5.769  13.824
80592SOL    HW143673   1.870   5.815  13.875
80592SOL    HW243674   1.769   5.702  13.883
80593SOL     OW43675  13.475   1.559   5.109
80593SOL    HW143676  13.556   1.515   5.135
80593SOL    HW243677  13.497   1.652   5.111
80594SOL     OW43678  14.183   2.751  14.115
80594SOL    HW143679  14.159   2.694  14.188
80594SOL    HW243680  14.166   2.698  14.037
80595SOL     OW43681   6.636   7.231  11.091
80595SOL    HW143682   6.592   7.233  11.006
80595SOL    HW243683   6.670   7.320  11.101
80596SOL     OW43684   9.962   2.176   2.136
80596SOL    HW143685   9.933   2.111   2.072
80596SOL    HW243686  10.041   2.215   2.096
80597SOL     OW43687   6.070   9.177   1.708
80597SOL    HW143688   6.161   9.188   1.735
80597SOL    HW243689   6.059   9.237   1.635
80598SOL     OW43690  13.387   3.287   8.213
80598SOL    HW143691  13.426   3.237   8.140
80598SOL    HW243692  13.459   3.298   8.275
80599SOL     OW43693  13.239  13.296   4.280
80599SOL    HW143694  13.173  13.320   4.345
80599SOL    HW243695  13.287  13.223   4.319
80600SOL     OW43696   1.763   7.782   5.835
80600SOL    HW143697   1.751   7.834   5.755
80600SOL    HW243698   1.684   7.728   5.841
80601SOL     OW43699  11.939   3.556  14.085
80601SOL    HW143700  11.958   3.579  14.176
80601SOL    HW243701  11.988   3.620  14.033
80602SOL     OW43702   2.324   2.847  11.164
80602SOL    HW143703   2.308   2.865  11.257
80602SOL    HW243704   2.356   2.930  11.129
80603SOL     OW43705  12.370  10.317   1.804
80603SOL    HW143706  12.384  10.374   1.880
80603SOL    HW243707  12.365  10.229   1.842
80604SOL     OW43708   0.028   7.174   5.976
80604SOL    HW143709   0.058   7.106   5.916
80604SOL    HW243710  14.823   7.197   5.945
80605SOL     OW43711   9.250  12.107  14.632
80605SOL    HW143712   9.231  12.068  14.547
80605SOL    HW243713   9.186  12.178  14.641
80606SOL     OW43714   5.034   8.076   0.482
80606SOL    HW143715   5.021   8.025   0.402
80606SOL    HW243716   5.000   8.163   0.460
80607SOL     OW43717   6.673   4.883   2.621
80607SOL    HW143718   6.647   4.908   2.709
80607SOL    HW243719   6.763   4.852   2.631
80608SOL     OW43720  14.572  13.624   2.915
80608SOL    HW143721  14.578  13.704   2.863
80608SOL    HW243722  14.541  13.558   2.854
80609SOL     OW43723  11.858   9.049   1.148
80609SOL    HW143724  11.858   9.029   1.242
80609SOL    HW243725  11.909   8.979   1.108
80610SOL     OW43726  11.750  10.583  12.964
80610SOL    HW143727  11.709  10.498  12.948
80610SOL    HW243728  11.841  10.562  12.986
80611SOL     OW43729  11.412  13.512   5.679
80611SOL    HW143730  11.463  13.471   5.750
80611SOL    HW243731  11.324  13.521   5.715
80612SOL     OW43732  12.011  10.691   6.865
80612SOL    HW143733  11.931  10.714   6.913
80612SOL    HW243734  12.082  10.718   6.922
80613SOL     OW43735   7.753   8.147   6.084
80613SOL    HW143736   7.788   8.086   6.149
80613SOL    HW243737   7.786   8.114   6.000
80614SOL     OW43738   4.666   3.582   1.221
80614SOL    HW143739   4.574   3.560   1.208
80614SOL    HW243740   4.665   3.675   1.245
80615SOL     OW43741   6.814   2.131   6.354
80615SOL    HW143742   6.775   2.147   6.440
80615SOL    HW243743   6.805   2.214   6.308
80616SOL     OW43744   2.355   6.423  13.785
80616SOL    HW143745   2.360   6.328  13.774
80616SOL    HW243746   2.364   6.436  13.880
80617SOL     OW43747  11.159  14.158  11.272
80617SOL    HW143748  11.249  14.154  11.304
80617SOL    HW243749  11.167  14.179  11.179
80618SOL     OW43750   1.254   0.047   8.991
80618SOL    HW143751   1.287   0.137   8.988
80618SOL    HW243752   1.330  14.875   8.966
80619SOL     OW43753  11.776  10.533   8.003
80619SOL    HW143754  11.734  10.553   8.086
80619SOL    HW243755  11.833  10.458   8.022
80620SOL     OW43756   2.105   3.141  11.358
80620SOL    HW143757   2.132   3.214  11.302
80620SOL    HW243758   2.014   3.159  11.380
80621SOL     OW43759   6.737   0.185   0.581
80621SOL    HW143760   6.704   0.166   0.493
80621SOL    HW243761   6.721   0.278   0.593
80622SOL     OW43762   8.351  10.171  10.129
80622SOL    HW143763   8.390  10.136  10.049
80622SOL    HW243764   8.426  10.192  10.185
80623SOL     OW43765   4.011  13.377   5.021
80623SOL    HW143766   3.960  13.307   5.062
80623SOL    HW243767   3.946  13.430   4.975
80624SOL     OW43768  13.643  12.487  10.904
80624SOL    HW143769  13.708  12.491  10.975
80624SOL    HW243770  13.616  12.578  10.891
80625SOL     OW43771   1.998  12.806   1.618
80625SOL    HW143772   1.931  12.761   1.567
80625SOL    HW243773   2.076  12.804   1.562
80626SOL     OW43774   9.440  10.328  10.912
80626SOL    HW143775   9.529  10.292  10.913
80626SOL    HW243776   9.383  10.251  10.920
80627SOL     OW43777  12.726   2.103   1.681
80627SOL    HW143778  12.802   2.093   1.624
80627SOL    HW243779  12.696   2.013   1.696
80628SOL     OW43780  12.837   8.961   9.740
80628SOL    HW143781  12.888   9.030   9.698
80628SOL    HW243782  12.881   8.946   9.824
80629SOL     OW43783   5.610   4.540   9.598
80629SOL    HW143784   5.525   4.581   9.585
80629SOL    HW243785   5.591   4.446   9.606
80630SOL     OW43786   9.948   5.407   8.039
80630SOL    HW143787   9.952   5.443   7.951
80630SOL    HW243788   9.931   5.483   8.095
80631SOL     OW43789  11.855   0.837   7.575
80631SOL    HW143790  11.873   0.754   7.532
80631SOL    HW243791  11.815   0.891   7.506
80632SOL     OW43792   2.253   1.497   2.328
80632SOL    HW143793   2.320   1.538   2.273
80632SOL    HW243794   2.302   1.459   2.400
80633SOL     OW43795   0.111   9.425  14.239
80633SOL    HW143796   0.169   9.463  14.173
80633SOL    HW243797   0.165   9.362  14.286
80634SOL     OW43798  11.606  13.085   5.928
80634SOL    HW143799  11.682  13.049   5.974
80634SOL    HW243800  11.635  13.172   5.900
80635SOL     OW43801  12.479   3.099   3.369
80635SOL    HW143802  12.490   3.148   3.450
80635SOL    HW243803  12.548   3.133   3.312
80636SOL     OW43804   5.672   9.272  12.664
80636SOL    HW143805   5.688   9.252  12.756
80636SOL    HW243806   5.579   9.296  12.661
80637SOL     OW43807  13.314   7.011   8.865
80637SOL    HW143808  13.246   6.962   8.818
80637SOL    HW243809  13.376   7.038   8.797
80638SOL     OW43810  11.385  14.783   3.738
80638SOL    HW143811  11.470  14.741   3.726
80638SOL    HW243812  11.334  14.721   3.790
80639SOL     OW43813   9.700   4.300   6.948
80639SOL    HW143814   9.685   4.394   6.958
80639SOL    HW243815   9.638   4.273   6.881
80640SOL     OW43816  14.170   0.488  14.172
80640SOL    HW143817  14.252   0.494  14.122
80640SOL    HW243818  14.198   0.461  14.259
80641SOL     OW43819  14.609   4.505  12.417
80641SOL    HW143820  14.614   4.444  12.344
80641SOL    HW243821  14.622   4.451  12.495
80642SOL     OW43822   9.157   4.212  12.768
80642SOL    HW143823   9.078   4.209  12.822
80642SOL    HW243824   9.229   4.203  12.831
80643SOL     OW43825  13.328   0.107  12.117
80643SOL    HW143826  13.386   0.036  12.144
80643SOL    HW243827  13.286   0.076  12.038
80644SOL     OW43828   3.372  12.055  14.094
80644SOL    HW143829   3.278  12.073  14.103
80644SOL    HW243830   3.411  12.142  14.080
80645SOL     OW43831   1.168   7.067  14.095
80645SOL    HW143832   1.191   7.110  14.178
80645SOL    HW243833   1.182   6.974  14.112
80646SOL     OW43834   3.646   0.031   5.386
80646SOL    HW143835   3.638   0.004   5.477
80646SOL    HW243836   3.570   0.087   5.371
80647SOL     OW43837   5.979   7.888   5.890
80647SOL    HW143838   5.924   7.818   5.925
80647SOL    HW243839   6.001   7.941   5.966
80648SOL     OW43840   1.133  12.720  10.764
80648SOL    HW143841   1.043  12.711  10.734
80648SOL    HW243842   1.136  12.804  10.808
80649SOL     OW43843   8.990   3.400   2.944
80649SOL    HW143844   9.021   3.491   2.950
80649SOL    HW243845   9.069   3.347   2.955
80650SOL     OW43846   9.788   0.062  13.498
80650SOL    HW143847   9.827   0.013  13.426
80650SOL    HW243848   9.698   0.031  13.504
80651SOL     OW43849   2.206   8.278   6.677
80651SOL    HW143850   2.196   8.330   6.757
80651SOL    HW243851   2.129   8.300   6.624
80652SOL     OW43852   4.404   7.664   1.821
80652SOL    HW143853   4.432   7.724   1.891
80652SOL    HW243854   4.356   7.595   1.868
80653SOL     OW43855   9.863   7.582  10.855
80653SOL    HW143856   9.815   7.609  10.933
80653SOL    HW243857   9.806   7.520  10.811
80654SOL     OW43858   9.369  14.301   8.934
80654SOL    HW143859   9.402  14.231   8.877
80654SOL    HW243860   9.305  14.257   8.990
80655SOL     OW43861   1.436  14.766   7.233
80655SOL    HW143862   1.371  14.818   7.280
80655SOL    HW243863   1.488  14.724   7.301
80656SOL     OW43864   7.085   6.038  10.880
80656SOL    HW143865   7.004   6.046  10.930
80656SOL    HW243866   7.066   6.078  10.795
80657SOL     OW43867  12.084   8.282  12.338
80657SOL    HW143868  12.080   8.317  12.249
80657SOL    HW243869  12.073   8.188  12.328
80658SOL     OW43870  10.261   6.844   6.734
80658SOL    HW143871  10.278   6.841   6.828
80658SOL    HW243872  10.336   6.798   6.695
80659SOL     OW43873   8.891  12.945   4.025
80659SOL    HW143874   8.964  12.884   4.032
80659SOL    HW243875   8.814  12.889   4.012
80660SOL     OW43876  11.850  13.342   0.374
80660SOL    HW143877  11.762  13.306   0.384
80660SOL    HW243878  11.900  13.272   0.332
80661SOL     OW43879   8.975   6.030  11.365
80661SOL    HW143880   8.899   6.075  11.402
80661SOL    HW243881   8.938   5.965  11.306
80662SOL     OW43882  13.993  14.299   8.198
80662SOL    HW143883  14.060  14.292   8.130
80662SOL    HW243884  13.957  14.211   8.205
80663SOL     OW43885   9.340  11.381   8.091
80663SOL    HW143886   9.307  11.296   8.063
80663SOL    HW243887   9.292  11.444   8.036
80664SOL     OW43888   0.258   4.494  11.129
80664SOL    HW143889   0.342   4.462  11.096
80664SOL    HW243890   0.254   4.462  11.219
80665SOL     OW43891  11.635   5.640  10.935
80665SOL    HW143892  11.602   5.723  10.903
80665SOL    HW243893  11.635   5.649  11.031
80666SOL     OW43894   0.250  10.994  14.848
80666SOL    HW143895   0.316  10.990  14.779
80666SOL    HW243896   0.213  11.081  14.841
80667SOL     OW43897   6.596   9.313   4.112
80667SOL    HW143898   6.613   9.231   4.158
80667SOL    HW243899   6.680   9.359   4.113
80668SOL     OW43900   2.993  12.090   9.393
80668SOL    HW143901   3.047  12.168   9.390
80668SOL    HW243902   2.903  12.123   9.389
80669SOL     OW43903  12.947  14.074  10.388
80669SOL    HW143904  12.912  14.046  10.473
80669SOL    HW243905  12.869  14.100  10.338
80670SOL     OW43906   7.272   1.022   8.062
80670SOL    HW143907   7.230   0.996   7.980
80670SOL    HW243908   7.343   0.959   8.074
80671SOL     OW43909  10.539   6.154  11.376
80671SOL    HW143910  10.627   6.171  11.341
80671SOL    HW243911  10.493   6.238  11.365
80672SOL     OW43912   0.482   1.656   5.930
80672SOL    HW143913   0.459   1.749   5.939
80672SOL    HW243914   0.533   1.652   5.849
80673SOL     OW43915  13.376  10.487  11.804
80673SOL    HW143916  13.449  10.547  11.787
80673SOL    HW243917  13.365  10.489  11.899
80674SOL     OW43918  12.459  11.199   8.978
80674SOL    HW143919  12.499  11.249   8.906
80674SOL    HW243920  12.495  11.111   8.969
80675SOL     OW43921   1.630   1.636   2.001
80675SOL    HW143922   1.706   1.694   1.987
80675SOL    HW243923   1.645   1.598   2.088
80676SOL     OW43924   4.017   7.974   3.456
80676SOL    HW143925   4.095   7.931   3.422
80676SOL    HW243926   4.016   8.059   3.412
80677SOL     OW43927  10.588   4.904  13.210
80677SOL    HW143928  10.528   4.832  13.192
80677SOL    HW243929  10.665   4.862  13.249
80678SOL     OW43930   2.218   5.291   9.422
80678SOL    HW143931   2.239   5.198   9.412
80678SOL    HW243932   2.299   5.330   9.455
80679SOL     OW43933  11.073   8.282  13.256
80679SOL    HW143934  11.067   8.358  13.314
80679SOL    HW243935  11.144   8.303  13.195
80680SOL     OW43936   9.188  12.548  12.049
80680SOL    HW143937   9.096  12.576  12.041
80680SOL    HW243938   9.234  12.598  11.981
80681SOL     OW43939  14.822   5.894  11.973
80681SOL    HW143940  14.820   5.952  11.897
80681SOL    HW243941  14.881   5.938  12.034
80682SOL     OW43942   5.124   9.359   6.361
80682SOL    HW143943   5.055   9.397   6.308
80682SOL    HW243944   5.144   9.275   6.319
80683SOL     OW43945   8.429   8.407  13.865
80683SOL    HW143946   8.362   8.370  13.808
80683SOL    HW243947   8.435   8.499  13.839
80684SOL     OW43948   1.033   9.299   3.317
80684SOL    HW143949   1.016   9.296   3.411
80684SOL    HW243950   1.065   9.212   3.295
80685SOL     OW43951   3.507   2.804   7.110
80685SOL    HW143952   3.420   2.765   7.118
80685SOL    HW243953   3.499   2.867   7.038
80686SOL     OW43954   8.859   3.754   0.189
80686SOL    HW143955   8.817   3.709   0.116
80686SOL    HW243956   8.940   3.790   0.152
80687SOL     OW43957   8.084  11.148   3.852
80687SOL    HW143958   8.094  11.056   3.874
80687SOL    HW243959   8.158  11.192   3.894
80688SOL     OW43960  14.102   9.696   2.572
80688SOL    HW143961  14.068   9.782   2.596
80688SOL    HW243962  14.191   9.714   2.539
80689SOL     OW43963   2.048   6.272   1.750
80689SOL    HW143964   1.979   6.321   1.706
80689SOL    HW243965   2.126   6.327   1.742
80690SOL     OW43966  12.451   1.754   1.929
80690SOL    HW143967  12.467   1.675   1.980
80690SOL    HW243968  12.361   1.745   1.899
80691SOL     OW43969   3.832   5.759   6.941
80691SOL    HW143970   3.873   5.808   7.012
80691SOL    HW243971   3.749   5.729   6.977
80692SOL     OW43972  10.335   0.289  12.687
80692SOL    HW143973  10.315   0.337  12.607
80692SOL    HW243974  10.427   0.265  12.679
80693SOL     OW43975   3.609   6.899   6.036
80693SOL    HW143976   3.661   6.872   6.112
80693SOL    HW243977   3.529   6.936   6.074
80694SOL     OW43978   2.231   5.604   0.193
80694SOL    HW143979   2.180   5.530   0.225
80694SOL    HW243980   2.321   5.585   0.220
80695SOL     OW43981  10.467   6.804  13.031
80695SOL    HW143982  10.466   6.839  12.942
80695SOL    HW243983  10.452   6.710  13.020
80696SOL     OW43984   8.183   3.507   3.302
80696SOL    HW143985   8.261   3.488   3.353
80696SOL    HW243986   8.133   3.568   3.356
80697SOL     OW43987   4.781   2.591   6.525
80697SOL    HW143988   4.730   2.626   6.452
80697SOL    HW243989   4.834   2.665   6.555
80698SOL     OW43990   4.226   2.951  11.343
80698SOL    HW143991   4.146   2.947  11.289
80698SOL    HW243992   4.295   2.974  11.281
80699SOL     OW43993   0.238   2.925  14.821
80699SOL    HW143994   0.311   2.983  14.797
80699SOL    HW243995   0.213   2.955   0.027
80700SOL     OW43996   1.196  12.195   1.247
80700SOL    HW143997   1.127  12.130   1.259
80700SOL    HW243998   1.195  12.215   1.154
80701SOL     OW43999   1.861   7.684  13.637
80701SOL    HW144000   1.872   7.646  13.724
80701SOL    HW244001   1.774   7.723  13.639
80702SOL     OW44002   2.002   7.088   2.431
80702SOL    HW144003   2.026   6.998   2.409
80702SOL    HW244004   2.081   7.139   2.413
80703SOL     OW44005  10.282   6.740  11.157
80703SOL    HW144006  10.236   6.756  11.240
80703SOL    HW244007  10.370   6.713  11.183
80704SOL     OW44008  10.850   9.931   7.557
80704SOL    HW144009  10.844  10.015   7.602
80704SOL    HW244010  10.859   9.954   7.464
80705SOL     OW44011   4.020  10.087   7.123
80705SOL    HW144012   4.097  10.033   7.103
80705SOL    HW244013   3.966  10.081   7.044
80706SOL     OW44014   7.203   0.186  14.409
80706SOL    HW144015   7.205   0.123  14.338
80706SOL    HW244016   7.201   0.272  14.365
80707SOL     OW44017   6.818   3.813   6.496
80707SOL    HW144018   6.743   3.871   6.487
80707SOL    HW244019   6.887   3.853   6.443
80708SOL     OW44020   4.769   9.411   5.095
80708SOL    HW144021   4.692   9.416   5.152
80708SOL    HW244022   4.732   9.408   5.006
80709SOL     OW44023   2.063   2.732   6.551
80709SOL    HW144024   1.994   2.784   6.593
80709SOL    HW244025   2.072   2.769   6.464
80710SOL     OW44026   2.898   6.787   4.890
80710SOL    HW144027   2.873   6.828   4.974
80710SOL    HW244028   2.967   6.844   4.856
80711SOL     OW44029  13.674   8.164   1.413
80711SOL    HW144030  13.736   8.237   1.411
80711SOL    HW244031  13.608   8.186   1.347
80712SOL     OW44032   8.667   8.255   1.940
80712SOL    HW144033   8.661   8.161   1.955
80712SOL    HW244034   8.578   8.281   1.915
80713SOL     OW44035  11.188   4.751   4.658
80713SOL    HW144036  11.094   4.765   4.648
80713SOL    HW244037  11.201   4.746   4.753
80714SOL     OW44038  14.332   3.497   7.409
80714SOL    HW144039  14.376   3.582   7.416
80714SOL    HW244040  14.348   3.455   7.494
80715SOL     OW44041   3.910   2.050   1.060
80715SOL    HW144042   3.995   2.063   1.101
80715SOL    HW244043   3.930   2.022   0.971
80716SOL     OW44044   6.848   4.381  10.733
80716SOL    HW144045   6.924   4.436  10.750
80716SOL    HW244046   6.773   4.435  10.758
80717SOL     OW44047   5.578   2.921   6.397
80717SOL    HW144048   5.608   2.830   6.397
80717SOL    HW244049   5.487   2.917   6.367
80718SOL     OW44050  10.604   1.941  10.115
80718SOL    HW144051  10.616   1.848  10.096
80718SOL    HW244052  10.687   1.968  10.154
80719SOL     OW44053   4.484   6.357   2.616
80719SOL    HW144054   4.406   6.345   2.670
80719SOL    HW244055   4.457   6.416   2.546
80720SOL     OW44056   1.703  10.471  12.351
80720SOL    HW144057   1.662  10.555  12.374
80720SOL    HW244058   1.647  10.435  12.282
80721SOL     OW44059  14.553   9.417  12.595
80721SOL    HW144060  14.608   9.362  12.651
80721SOL    HW244061  14.484   9.448  12.654
80722SOL     OW44062   2.497   6.599  12.927
80722SOL    HW144063   2.479   6.505  12.932
80722SOL    HW244064   2.420   6.636  12.884
80723SOL     OW44065   3.427   1.649   2.001
80723SOL    HW144066   3.446   1.556   2.011
80723SOL    HW244067   3.341   1.661   2.041
80724SOL     OW44068  11.789  10.915  11.495
80724SOL    HW144069  11.699  10.890  11.473
80724SOL    HW244070  11.780  10.988  11.556
80725SOL     OW44071   4.621  10.467  14.767
80725SOL    HW144072   4.609  10.435  14.677
80725SOL    HW244073   4.578  10.553  14.767
80726SOL     OW44074  10.327   0.513   4.804
80726SOL    HW144075  10.232   0.506   4.816
80726SOL    HW244076  10.356   0.422   4.799
80727SOL     OW44077   3.101   9.407   2.881
80727SOL    HW144078   3.161   9.333   2.872
80727SOL    HW244079   3.090   9.440   2.791
80728SOL     OW44080  13.119  10.605   3.848
80728SOL    HW144081  13.170  10.530   3.878
80728SOL    HW244082  13.122  10.598   3.752
80729SOL     OW44083  11.591   9.225   3.499
80729SOL    HW144084  11.557   9.267   3.420
80729SOL    HW244085  11.524   9.160   3.522
80730SOL     OW44086   6.625  14.517   7.950
80730SOL    HW144087   6.605  14.534   7.858
80730SOL    HW244088   6.645  14.423   7.953
80731SOL     OW44089   3.383   7.745   0.979
80731SOL    HW144090   3.407   7.837   0.987
80731SOL    HW244091   3.322   7.729   1.051
80732SOL     OW44092   2.000  14.441   7.344
80732SOL    HW144093   1.973  14.365   7.292
80732SOL    HW244094   2.096  14.441   7.338
80733SOL     OW44095   5.948   6.704   4.907
80733SOL    HW144096   5.978   6.633   4.964
80733SOL    HW244097   5.948   6.666   4.819
80734SOL     OW44098  14.443   3.261  10.033
80734SOL    HW144099  14.375   3.193  10.026
80734SOL    HW244100  14.394   3.343  10.041
80735SOL     OW44101  13.432  11.819   5.862
80735SOL    HW144102  13.458  11.823   5.770
80735SOL    HW244103  13.485  11.748   5.898
80736SOL     OW44104   6.530   0.740  14.788
80736SOL    HW144105   6.603   0.788  14.827
80736SOL    HW244106   6.485   0.805  14.734
80737SOL     OW44107   6.374   9.337   5.372
80737SOL    HW144108   6.466   9.363   5.382
80737SOL    HW244109   6.366   9.315   5.279
80738SOL     OW44110   6.838   8.772  14.082
80738SOL    HW144111   6.791   8.848  14.117
80738SOL    HW244112   6.927   8.804  14.068
80739SOL     OW44113   3.738   2.420   0.801
80739SOL    HW144114   3.736   2.342   0.856
80739SOL    HW244115   3.696   2.488   0.853
80740SOL     OW44116   5.972   2.226  10.202
80740SOL    HW144117   6.032   2.153  10.214
80740SOL    HW244118   5.967   2.239  10.108
80741SOL     OW44119   3.234   4.434  14.742
80741SOL    HW144120   3.191   4.469  14.664
80741SOL    HW244121   3.163   4.396  14.793
80742SOL     OW44122   7.023   6.705   1.861
80742SOL    HW144123   7.046   6.726   1.770
80742SOL    HW244124   7.102   6.664   1.896
80743SOL     OW44125   2.327   6.028  10.245
80743SOL    HW144126   2.234   6.048  10.253
80743SOL    HW244127   2.363   6.048  10.332
80744SOL     OW44128  14.880   3.842   7.097
80744SOL    HW144129   0.021   3.903   7.027
80744SOL    HW244130   0.065   3.856   7.164
80745SOL     OW44131  10.157   7.898   4.618
80745SOL    HW144132  10.074   7.855   4.641
80745SOL    HW244133  10.199   7.838   4.557
80746SOL     OW44134  11.196  13.312   0.760
80746SOL    HW144135  11.254  13.276   0.826
80746SOL    HW244136  11.132  13.364   0.810
80747SOL     OW44137   4.839   8.131   1.328
80747SOL    HW144138   4.816   8.125   1.235
80747SOL    HW244139   4.755   8.139   1.373
80748SOL     OW44140   0.160   9.053   9.292
80748SOL    HW144141   0.215   9.046   9.214
80748SOL    HW244142   0.182   9.138   9.330
80749SOL     OW44143   2.378   0.818   7.491
80749SOL    HW144144   2.429   0.740   7.515
80749SOL    HW244145   2.305   0.819   7.553
80750SOL     OW44146   3.597   9.162   9.601
80750SOL    HW144147   3.673   9.184   9.549
80750SOL    HW244148   3.525   9.209   9.560
80751SOL     OW44149   7.250   0.696  14.625
80751SOL    HW144150   7.331   0.742  14.647
80751SOL    HW244151   7.187   0.766  14.609
80752SOL     OW44152   4.092  10.329  14.065
80752SOL    HW144153   4.141  10.411  14.076
80752SOL    HW244154   4.075  10.324  13.972
80753SOL     OW44155   8.862   3.664   8.351
80753SOL    HW144156   8.912   3.600   8.301
80753SOL    HW244157   8.814   3.611   8.416
80754SOL     OW44158  11.821   5.446  11.597
80754SOL    HW144159  11.748   5.431  11.536
80754SOL    HW244160  11.779   5.483  11.675
80755SOL     OW44161   7.809  12.415   6.988
80755SOL    HW144162   7.894  12.405   7.032
80755SOL    HW244163   7.745  12.388   7.053
80756SOL     OW44164  13.466   4.330   8.216
80756SOL    HW144165  13.396   4.323   8.152
80756SOL    HW244166  13.522   4.254   8.198
80757SOL     OW44167  11.668   2.494   3.879
80757SOL    HW144168  11.762   2.478   3.882
80757SOL    HW244169  11.639   2.488   3.970
80758SOL     OW44170   2.610  12.401   1.391
80758SOL    HW144171   2.531  12.454   1.401
80758SOL    HW244172   2.640  12.386   1.480
80759SOL     OW44173   2.722  13.909   5.582
80759SOL    HW144174   2.672  13.862   5.516
80759SOL    HW244175   2.770  13.976   5.533
80760SOL     OW44176   9.424   6.820   3.823
80760SOL    HW144177   9.455   6.738   3.783
80760SOL    HW244178   9.473   6.889   3.776
80761SOL     OW44179   7.452   5.951   6.074
80761SOL    HW144180   7.360   5.975   6.059
80761SOL    HW244181   7.501   6.030   6.048
80762SOL     OW44182   7.447  11.534   1.093
80762SOL    HW144183   7.511  11.522   1.023
80762SOL    HW244184   7.466  11.620   1.129
80763SOL     OW44185   9.032   0.237   7.084
80763SOL    HW144186   9.081   0.230   7.003
80763SOL    HW244187   9.058   0.321   7.122
80764SOL     OW44188   0.936  10.856   9.809
80764SOL    HW144189   1.023  10.895   9.806
80764SOL    HW244190   0.924  10.817   9.722
80765SOL     OW44191  14.364  11.723   7.300
80765SOL    HW144192  14.269  11.727   7.311
80765SOL    HW244193  14.399  11.786   7.363
80766SOL     OW44194   4.503  11.741   3.737
80766SOL    HW144195   4.503  11.836   3.728
80766SOL    HW244196   4.546  11.724   3.821
80767SOL     OW44197  12.622   6.580  14.050
80767SOL    HW144198  12.593   6.644  13.986
80767SOL    HW244199  12.691   6.531  14.006
80768SOL     OW44200   7.846   1.416  11.256
80768SOL    HW144201   7.903   1.483  11.219
80768SOL    HW244202   7.903   1.366  11.315
80769SOL     OW44203   0.188  13.756  11.659
80769SOL    HW144204   0.202  13.720  11.746
80769SOL    HW244205   0.113  13.707  11.624
80770SOL     OW44206   2.479   2.528  10.532
80770SOL    HW144207   2.560   2.531  10.480
80770SOL    HW244208   2.509   2.510  10.621
80771SOL     OW44209  12.002  10.203   2.925
80771SOL    HW144210  11.958  10.286   2.940
80771SOL    HW244211  11.983  10.152   3.004
80772SOL     OW44212   1.991   4.797   4.766
80772SOL    HW144213   2.038   4.720   4.798
80772SOL    HW244214   1.901   4.766   4.755
80773SOL     OW44215   2.387  10.304  14.514
80773SOL    HW144216   2.293  10.307  14.527
80773SOL    HW244217   2.414  10.396  14.508
80774SOL     OW44218   3.028   0.273   8.371
80774SOL    HW144219   2.959   0.318   8.322
80774SOL    HW244220   2.982   0.201   8.415
80775SOL     OW44221   3.883   3.643  13.254
80775SOL    HW144222   3.817   3.587  13.212
80775SOL    HW244223   3.883   3.617  13.346
80776SOL     OW44224   3.287  10.845   0.273
80776SOL    HW144225   3.227  10.882   0.208
80776SOL    HW244226   3.361  10.906   0.276
80777SOL     OW44227  13.837   1.668  12.575
80777SOL    HW144228  13.835   1.577  12.604
80777SOL    HW244229  13.810   1.719  12.651
80778SOL     OW44230   6.786   8.848   6.978
80778SOL    HW144231   6.809   8.915   7.042
80778SOL    HW244232   6.709   8.805   7.016
80779SOL     OW44233   6.641  14.549  10.897
80779SOL    HW144234   6.597  14.517  10.976
80779SOL    HW244235   6.733  14.526  10.909
80780SOL     OW44236   6.844   9.954   6.750
80780SOL    HW144237   6.893   9.999   6.681
80780SOL    HW244238   6.853   9.861   6.730
80781SOL     OW44239   1.904  14.524   3.620
80781SOL    HW144240   1.872  14.555   3.704
80781SOL    HW244241   1.978  14.582   3.600
80782SOL     OW44242  11.658   6.838  11.362
80782SOL    HW144243  11.738   6.791  11.383
80782SOL    HW244244  11.592   6.770  11.351
80783SOL     OW44245  13.257  11.294   9.132
80783SOL    HW144246  13.266  11.220   9.072
80783SOL    HW244247  13.199  11.261   9.202
80784SOL     OW44248  14.777   1.656  11.656
80784SOL    HW144249  14.744   1.718  11.720
80784SOL    HW244250  14.795   1.576  11.706
80785SOL     OW44251  10.173   5.347   2.696
80785SOL    HW144252  10.145   5.262   2.731
80785SOL    HW244253  10.095   5.402   2.703
80786SOL     OW44254  11.203   4.188   0.743
80786SOL    HW144255  11.222   4.151   0.656
80786SOL    HW244256  11.273   4.155   0.799
80787SOL     OW44257   0.828  11.097   6.228
80787SOL    HW144258   0.790  11.013   6.252
80787SOL    HW244259   0.820  11.101   6.133
80788SOL     OW44260   2.074  10.368   5.778
80788SOL    HW144261   2.151  10.323   5.744
80788SOL    HW244262   2.028  10.399   5.700
80789SOL     OW44263  12.434   0.509  10.838
80789SOL    HW144264  12.396   0.432  10.881
80789SOL    HW244265  12.442   0.574  10.908
80790SOL     OW44266   7.223   8.557  12.518
80790SOL    HW144267   7.211   8.609  12.598
80790SOL    HW244268   7.263   8.618  12.456
80791SOL     OW44269  12.476  11.068   8.638
80791SOL    HW144270  12.522  11.034   8.561
80791SOL    HW244271  12.386  11.037   8.627
80792SOL     OW44272  12.946  11.326   9.893
80792SOL    HW144273  12.918  11.416   9.874
80792SOL    HW244274  12.872  11.272   9.869
80793SOL     OW44275   4.483  13.185   0.424
80793SOL    HW144276   4.493  13.091   0.440
80793SOL    HW244277   4.504  13.226   0.508
80794SOL     OW44278  14.084   2.998  10.949
80794SOL    HW144279  14.117   3.032  10.866
80794SOL    HW244280  13.992   2.976  10.931
80795SOL     OW44281   2.133  11.062   4.417
80795SOL    HW144282   2.136  11.110   4.334
80795SOL    HW244283   2.222  11.029   4.428
80796SOL     OW44284   8.603   2.052  10.123
80796SOL    HW144285   8.535   2.117  10.104
80796SOL    HW244286   8.660   2.095  10.186
80797SOL     OW44287   3.910   2.827  11.437
80797SOL    HW144288   3.943   2.836  11.348
80797SOL    HW244289   3.868   2.741  11.439
80798SOL     OW44290  12.150   2.165  13.270
80798SOL    HW144291  12.146   2.166  13.365
80798SOL    HW244292  12.169   2.255  13.245
80799SOL     OW44293  12.072   1.207   5.201
80799SOL    HW144294  12.025   1.190   5.120
80799SOL    HW244295  12.003   1.229   5.264
80800SOL     OW44296   7.326   5.668   0.948
80800SOL    HW144297   7.396   5.628   0.895
80800SOL    HW244298   7.340   5.762   0.938
80801SOL     OW44299  14.804  11.938   6.317
80801SOL    HW144300  14.725  11.917   6.366
80801SOL    HW244301  14.773  11.984   6.239
80802SOL     OW44302   4.464   8.200  13.203
80802SOL    HW144303   4.543   8.173  13.250
80802SOL    HW244304   4.479   8.292  13.182
80803SOL     OW44305   4.942   4.412   1.730
80803SOL    HW144306   4.852   4.429   1.756
80803SOL    HW244307   4.955   4.319   1.746
80804SOL     OW44308   4.229   8.283  11.469
80804SOL    HW144309   4.315   8.244  11.450
80804SOL    HW244310   4.176   8.209  11.502
80805SOL     OW44311   4.214  11.407   8.348
80805SOL    HW144312   4.194  11.332   8.404
80805SOL    HW244313   4.190  11.378   8.260
80806SOL     OW44314   2.929   2.557   8.104
80806SOL    HW144315   2.984   2.533   8.030
80806SOL    HW244316   2.981   2.620   8.154
80807SOL     OW44317  12.749   6.578   9.260
80807SOL    HW144318  12.721   6.584   9.169
80807SOL    HW244319  12.831   6.528   9.257
80808SOL     OW44320   6.966   4.823   3.448
80808SOL    HW144321   6.969   4.741   3.497
80808SOL    HW244322   6.993   4.890   3.510
80809SOL     OW44323  13.325   1.599   6.687
80809SOL    HW144324  13.418   1.578   6.679
80809SOL    HW244325  13.312   1.670   6.623
80810SOL     OW44326   3.747   7.590   2.234
80810SOL    HW144327   3.703   7.588   2.319
80810SOL    HW244328   3.698   7.654   2.183
80811SOL     OW44329   8.465  14.495  10.020
80811SOL    HW144330   8.404  14.427  10.049
80811SOL    HW244331   8.413  14.551   9.963
80812SOL     OW44332   1.309   4.665   9.309
80812SOL    HW144333   1.353   4.709   9.236
80812SOL    HW244334   1.346   4.706   9.387
80813SOL     OW44335   9.076   7.409   8.067
80813SOL    HW144336   8.988   7.387   8.096
80813SOL    HW244337   9.071   7.502   8.045
80814SOL     OW44338  10.165   3.462   6.058
80814SOL    HW144339  10.212   3.430   6.135
80814SOL    HW244340  10.205   3.547   6.038
80815SOL     OW44341  10.672  12.084   3.821
80815SOL    HW144342  10.641  12.158   3.768
80815SOL    HW244343  10.717  12.027   3.759
80816SOL     OW44344   2.205  14.033   3.501
80816SOL    HW144345   2.228  14.012   3.411
80816SOL    HW244346   2.285  14.016   3.551
80817SOL     OW44347   5.636  13.651   6.799
80817SOL    HW144348   5.668  13.698   6.876
80817SOL    HW244349   5.645  13.714   6.727
80818SOL     OW44350   4.566   8.508   2.916
80818SOL    HW144351   4.531   8.455   2.844
80818SOL    HW244352   4.493   8.516   2.977
80819SOL     OW44353   2.312   9.577  12.700
80819SOL    HW144354   2.353   9.534  12.776
80819SOL    HW244355   2.383   9.629  12.662
80820SOL     OW44356  13.435  14.102  10.796
80820SOL    HW144357  13.341  14.099  10.782
80820SOL    HW244358  13.460  14.192  10.775
80821SOL     OW44359   5.585  11.517   5.507
80821SOL    HW144360   5.616  11.512   5.598
80821SOL    HW244361   5.492  11.498   5.512
80822SOL     OW44362   9.561   8.576  10.941
80822SOL    HW144363   9.466   8.567  10.936
80822SOL    HW244364   9.595   8.518  10.874
80823SOL     OW44365  10.937  12.784   5.175
80823SOL    HW144366  10.912  12.816   5.088
80823SOL    HW244367  10.967  12.694   5.159
80824SOL     OW44368   8.112   4.236  11.611
80824SOL    HW144369   8.177   4.283  11.559
80824SOL    HW244370   8.126   4.144  11.591
80825SOL     OW44371   7.619   3.458  12.068
80825SOL    HW144372   7.545   3.400  12.046
80825SOL    HW244373   7.623   3.454  12.164
80826SOL     OW44374  12.242   3.771   3.785
80826SOL    HW144375  12.153   3.742   3.765
80826SOL    HW244376  12.268   3.718   3.861
80827SOL     OW44377   3.234  10.258  12.229
80827SOL    HW144378   3.165  10.192  12.230
80827SOL    HW244379   3.315  10.207  12.221
80828SOL     OW44380  10.535   0.607   3.466
80828SOL    HW144381  10.447   0.621   3.432
80828SOL    HW244382  10.582   0.689   3.447
80829SOL     OW44383  11.037   6.033   1.675
80829SOL    HW144384  10.971   5.963   1.680
80829SOL    HW244385  10.999   6.097   1.616
80830SOL     OW44386  11.258   6.155  12.098
80830SOL    HW144387  11.354   6.156  12.093
80830SOL    HW244388  11.239   6.154  12.192
80831SOL     OW44389   0.646  13.826   5.245
80831SOL    HW144390   0.606  13.761   5.302
80831SOL    HW244391   0.701  13.879   5.304
80832SOL     OW44392   9.462   3.250   6.679
80832SOL    HW144393   9.447   3.281   6.768
80832SOL    HW244394   9.380   3.265   6.634
80833SOL     OW44395  12.097  11.664   8.151
80833SOL    HW144396  12.085  11.571   8.170
80833SOL    HW244397  12.159  11.694   8.218
80834SOL     OW44398   8.155  14.107   2.427
80834SOL    HW144399   8.172  14.048   2.500
80834SOL    HW244400   8.169  14.195   2.463
80835SOL     OW44401  11.212   4.400  13.693
80835SOL    HW144402  11.218   4.461  13.767
80835SOL    HW244403  11.265   4.325  13.719
80836SOL     OW44404   0.484   9.163   7.803
80836SOL    HW144405   0.545   9.192   7.872
80836SOL    HW244406   0.518   9.203   7.723
80837SOL     OW44407  10.680   4.033   2.845
80837SOL    HW144408  10.659   4.095   2.915
80837SOL    HW244409  10.753   4.073   2.798
80838SOL     OW44410  14.347  10.179  10.472
80838SOL    HW144411  14.401  10.100  10.461
80838SOL    HW244412  14.387  10.243  10.413
80839SOL     OW44413   8.445   8.262  10.072
80839SOL    HW144414   8.415   8.350  10.049
80839SOL    HW244415   8.376   8.204  10.040
80840SOL     OW44416   8.354  13.255   9.527
80840SOL    HW144417   8.436  13.253   9.479
80840SOL    HW244418   8.297  13.194   9.481
80841SOL     OW44419   5.865   4.720  13.297
80841SOL    HW144420   5.815   4.798  13.322
80841SOL    HW244421   5.812   4.646  13.328
80842SOL     OW44422  10.437  14.596  13.930
80842SOL    HW144423  10.358  14.541  13.932
80842SOL    HW244424  10.404  14.683  13.904
80843SOL     OW44425   3.723   4.296   9.877
80843SOL    HW144426   3.804   4.280   9.828
80843SOL    HW244427   3.749   4.292   9.969
80844SOL     OW44428   7.531  13.025   5.682
80844SOL    HW144429   7.590  12.953   5.660
80844SOL    HW244430   7.477  12.992   5.753
80845SOL     OW44431   5.393   6.945   2.492
80845SOL    HW144432   5.370   6.890   2.567
80845SOL    HW244433   5.391   6.885   2.417
80846SOL     OW44434   8.481   7.548  10.209
80846SOL    HW144435   8.512   7.461  10.187
80846SOL    HW244436   8.454   7.586  10.126
80847SOL     OW44437   4.203   1.963  11.363
80847SOL    HW144438   4.108   1.953  11.363
80847SOL    HW244439   4.236   1.878  11.392
80848SOL     OW44440   2.323   7.430   1.504
80848SOL    HW144441   2.411   7.415   1.469
80848SOL    HW244442   2.272   7.461   1.430
80849SOL     OW44443   8.882   6.806   1.972
80849SOL    HW144444   8.844   6.782   1.888
80849SOL    HW244445   8.874   6.901   1.976
80850SOL     OW44446   2.481   3.874   2.334
80850SOL    HW144447   2.501   3.967   2.344
80850SOL    HW244448   2.405   3.872   2.277
80851SOL     OW44449   2.860   1.914  14.300
80851SOL    HW144450   2.900   1.958  14.375
80851SOL    HW244451   2.899   1.827  14.301
80852SOL     OW44452   2.751   6.491   1.634
80852SOL    HW144453   2.679   6.429   1.631
80852SOL    HW244454   2.828   6.438   1.656
80853SOL     OW44455   8.926   6.543   5.589
80853SOL    HW144456   8.913   6.474   5.655
80853SOL    HW244457   8.956   6.619   5.640
80854SOL     OW44458   6.539   1.310   7.653
80854SOL    HW144459   6.569   1.293   7.564
80854SOL    HW244460   6.613   1.355   7.694
80855SOL     OW44461   9.455  11.351   7.081
80855SOL    HW144462   9.456  11.446   7.082
80855SOL    HW244463   9.365  11.328   7.060
80856SOL     OW44464  14.728   4.752  12.972
80856SOL    HW144465  14.768   4.823  12.923
80856SOL    HW244466  14.792   4.681  12.967
80857SOL     OW44467   3.894   1.467   9.047
80857SOL    HW144468   3.926   1.556   9.031
80857SOL    HW244469   3.924   1.416   8.972
80858SOL     OW44470   0.725  12.769  14.769
80858SOL    HW144471   0.718  12.763  14.674
80858SOL    HW244472   0.694  12.857  14.790
80859SOL     OW44473  13.673   2.553   4.474
80859SOL    HW144474  13.640   2.465   4.494
80859SOL    HW244475  13.648   2.567   4.383
80860SOL     OW44476  14.723  11.524  11.074
80860SOL    HW144477  14.771  11.599  11.039
80860SOL    HW244478  14.730  11.457  11.007
80861SOL     OW44479   3.970   3.740   6.417
80861SOL    HW144480   3.970   3.686   6.496
80861SOL    HW244481   4.051   3.791   6.423
80862SOL     OW44482  14.783   6.749   3.484
80862SOL    HW144483  14.742   6.762   3.570
80862SOL    HW244484  14.752   6.823   3.432
80863SOL     OW44485   4.675   5.050   0.039
80863SOL    HW144486   4.581   5.039   0.027
80863SOL    HW244487   4.689   5.044   0.133
80864SOL     OW44488   8.255   7.609   5.726
80864SOL    HW144489   8.312   7.581   5.654
80864SOL    HW244490   8.211   7.528   5.754
80865SOL     OW44491   3.090  10.931   7.118
80865SOL    HW144492   3.092  10.969   7.030
80865SOL    HW244493   3.076  10.837   7.104
80866SOL     OW44494  11.835   9.598   8.330
80866SOL    HW144495  11.787   9.677   8.307
80866SOL    HW244496  11.771   9.543   8.376
80867SOL     OW44497  10.059  10.275   2.534
80867SOL    HW144498  10.039  10.360   2.496
80867SOL    HW244499   9.974  10.237   2.555
80868SOL     OW44500   1.052   5.409   5.675
80868SOL    HW144501   1.119   5.349   5.708
80868SOL    HW244502   1.090   5.496   5.687
80869SOL     OW44503  12.337   2.776  11.545
80869SOL    HW144504  12.389   2.822  11.478
80869SOL    HW244505  12.357   2.684  11.531
80870SOL     OW44506   8.391   4.977   2.150
80870SOL    HW144507   8.296   4.989   2.148
80870SOL    HW244508   8.408   4.916   2.078
80871SOL     OW44509  10.534  14.348   2.542
80871SOL    HW144510  10.546  14.442   2.534
80871SOL    HW244511  10.601  14.310   2.485
80872SOL     OW44512   0.733  13.109   3.798
80872SOL    HW144513   0.696  13.035   3.847
80872SOL    HW244514   0.684  13.185   3.830
80873SOL     OW44515   2.481  13.347   4.023
80873SOL    HW144516   2.466  13.435   3.987
80873SOL    HW244517   2.561  13.317   3.979
80874SOL     OW44518   5.026  12.869   0.120
80874SOL    HW144519   5.090  12.939   0.132
80874SOL    HW244520   5.054  12.824   0.040
80875SOL     OW44521   3.850   8.645  11.428
80875SOL    HW144522   3.832   8.647  11.334
80875SOL    HW244523   3.837   8.735  11.457
80876SOL     OW44524  11.370   1.696   9.953
80876SOL    HW144525  11.302   1.629   9.958
80876SOL    HW244526  11.333   1.761   9.892
80877SOL     OW44527   4.077   9.818   3.522
80877SOL    HW144528   4.170   9.795   3.526
80877SOL    HW244529   4.075   9.907   3.488
80878SOL     OW44530   3.277  10.858  12.418
80878SOL    HW144531   3.346  10.828  12.359
80878SOL    HW244532   3.205  10.797  12.402
80879SOL     OW44533  14.796   8.076  11.003
80879SOL    HW144534  14.812   8.160  11.047
80879SOL    HW244535  14.860   8.016  11.040
80880SOL     OW44536  13.747   7.516  10.834
80880SOL    HW144537  13.810   7.564  10.889
80880SOL    HW244538  13.793   7.435  10.811
80881SOL     OW44539   7.939  10.549  13.884
80881SOL    HW144540   7.875  10.597  13.831
80881SOL    HW244541   8.023  10.586  13.860
80882SOL     OW44542  10.234   5.064  11.573
80882SOL    HW144543  10.146   5.093  11.598
80882SOL    HW244544  10.234   4.970  11.590
80883SOL     OW44545   4.008   5.299  13.224
80883SOL    HW144546   4.021   5.281  13.317
80883SOL    HW244547   3.932   5.246  13.200
80884SOL     OW44548  13.551   9.543   0.458
80884SOL    HW144549  13.642   9.541   0.488
80884SOL    HW244550  13.521   9.632   0.478
80885SOL     OW44551   1.060   0.601   6.463
80885SOL    HW144552   1.026   0.671   6.519
80885SOL    HW244553   1.144   0.634   6.431
80886SOL     OW44554   2.530   9.303  11.576
80886SOL    HW144555   2.526   9.248  11.655
80886SOL    HW244556   2.586   9.255  11.516
80887SOL     OW44557   5.578  13.969   3.625
80887SOL    HW144558   5.530  13.933   3.700
80887SOL    HW244559   5.578  13.898   3.560
80888SOL     OW44560   7.797   8.010   3.994
80888SOL    HW144561   7.858   8.047   4.058
80888SOL    HW244562   7.719   7.988   4.044
80889SOL     OW44563   5.534  11.769   1.917
80889SOL    HW144564   5.516  11.785   1.824
80889SOL    HW244565   5.616  11.815   1.934
80890SOL     OW44566   9.163   9.188   2.044
80890SOL    HW144567   9.136   9.272   2.007
80890SOL    HW244568   9.207   9.210   2.126
80891SOL     OW44569  14.258  12.591   7.582
80891SOL    HW144570  14.295  12.554   7.501
80891SOL    HW244571  14.174  12.627   7.555
80892SOL     OW44572  13.905  13.711   9.888
80892SOL    HW144573  13.962  13.787   9.900
80892SOL    HW244574  13.913  13.661   9.969
80893SOL     OW44575  14.651   0.979  10.413
80893SOL    HW144576  14.724   0.938  10.367
80893SOL    HW244577  14.623   1.050  10.356
80894SOL     OW44578  10.306   9.954   8.209
80894SOL    HW144579  10.259   9.907   8.279
80894SOL    HW244580  10.308   9.892   8.136
80895SOL     OW44581   7.908  12.476  12.318
80895SOL    HW144582   7.898  12.569  12.338
80895SOL    HW244583   7.952  12.440  12.395
80896SOL     OW44584   2.237  13.044   3.252
80896SOL    HW144585   2.237  13.064   3.158
80896SOL    HW244586   2.321  12.999   3.266
80897SOL     OW44587  10.663   4.051  14.330
80897SOL    HW144588  10.713   4.132  14.319
80897SOL    HW244589  10.692   4.015  14.414
80898SOL     OW44590  10.602  14.544   7.057
80898SOL    HW144591  10.560  14.540   7.143
80898SOL    HW244592  10.563  14.471   7.009
80899SOL     OW44593   3.717   5.231   6.513
80899SOL    HW144594   3.738   5.287   6.439
80899SOL    HW244595   3.655   5.283   6.566
80900SOL     OW44596   4.179   2.611   4.738
80900SOL    HW144597   4.205   2.647   4.653
80900SOL    HW244598   4.187   2.516   4.727
80901SOL     OW44599   8.653   3.194   1.821
80901SOL    HW144600   8.600   3.130   1.774
80901SOL    HW244601   8.739   3.188   1.780
80902SOL     OW44602   4.334  12.942   0.739
80902SOL    HW144603   4.386  12.933   0.819
80902SOL    HW244604   4.288  13.025   0.750
80903SOL     OW44605   3.101   1.684  14.007
80903SOL    HW144606   3.012   1.677  14.041
80903SOL    HW244607   3.155   1.640  14.073
80904SOL     OW44608   1.176   8.379  10.262
80904SOL    HW144609   1.146   8.289  10.272
80904SOL    HW244610   1.266   8.372  10.232
80905SOL     OW44611   9.952   3.120   2.201
80905SOL    HW144612   9.989   3.034   2.181
80905SOL    HW244613   9.865   3.102   2.236
80906SOL     OW44614   3.177  12.730   1.755
80906SOL    HW144615   3.159  12.715   1.663
80906SOL    HW244616   3.241  12.663   1.779
80907SOL     OW44617  13.932  14.580   5.320
80907SOL    HW144618  13.872  14.521   5.274
80907SOL    HW244619  13.980  14.625   5.250
80908SOL     OW44620   0.695   4.057  14.535
80908SOL    HW144621   0.774   4.056  14.481
80908SOL    HW244622   0.728   4.066  14.625
80909SOL     OW44623   4.611   7.498   2.058
80909SOL    HW144624   4.681   7.445   2.020
80909SOL    HW244625   4.619   7.583   2.015
80910SOL     OW44626   8.257   5.744   8.668
80910SOL    HW144627   8.331   5.761   8.611
80910SOL    HW244628   8.227   5.657   8.643
80911SOL     OW44629   7.079   9.579   6.149
80911SOL    HW144630   7.013   9.634   6.192
80911SOL    HW244631   7.133   9.641   6.100
80912SOL     OW44632   4.802  14.742   6.235
80912SOL    HW144633   4.869  14.716   6.172
80912SOL    HW244634   4.829  14.828   6.265
80913SOL     OW44635  10.750  13.184   2.827
80913SOL    HW144636  10.791  13.188   2.741
80913SOL    HW244637  10.724  13.092   2.837
80914SOL     OW44638   2.691   2.069   0.615
80914SOL    HW144639   2.783   2.095   0.619
80914SOL    HW244640   2.667   2.049   0.705
80915SOL     OW44641  13.841   7.837   8.192
80915SOL    HW144642  13.753   7.802   8.208
80915SOL    HW244643  13.890   7.818   8.272
80916SOL     OW44644  14.294   0.546   2.643
80916SOL    HW144645  14.288   0.461   2.687
80916SOL    HW244646  14.237   0.603   2.694
80917SOL     OW44647   0.127  10.791   5.310
80917SOL    HW144648   0.210  10.746   5.327
80917SOL    HW244649   0.079  10.732   5.253
80918SOL     OW44650   6.791  10.619   9.116
80918SOL    HW144651   6.848  10.631   9.040
80918SOL    HW244652   6.751  10.705   9.130
80919SOL     OW44653  14.718   7.964   9.509
80919SOL    HW144654  14.724   8.017   9.429
80919SOL    HW244655  14.776   7.889   9.493
80920SOL     OW44656   4.430   7.495   2.264
80920SOL    HW144657   4.402   7.403   2.263
80920SOL    HW244658   4.510   7.496   2.212
80921SOL     OW44659  13.512  11.825   1.226
80921SOL    HW144660  13.548  11.883   1.294
80921SOL    HW244661  13.582  11.763   1.208
80922SOL     OW44662   3.173  13.967   8.940
80922SOL    HW144663   3.103  13.939   8.882
80922SOL    HW244664   3.188  14.059   8.917
80923SOL     OW44665  14.533   1.521   3.946
80923SOL    HW144666  14.462   1.538   4.007
80923SOL    HW244667  14.555   1.607   3.910
80924SOL     OW44668   3.374   1.970  14.759
80924SOL    HW144669   3.413   1.984  14.673
80924SOL    HW244670   3.293   2.020  14.756
80925SOL     OW44671  13.059   6.070  14.373
80925SOL    HW144672  13.033   6.117  14.452
80925SOL    HW244673  12.992   6.003  14.362
80926SOL     OW44674   5.781  13.891  11.038
80926SOL    HW144675   5.783  13.815  11.096
80926SOL    HW244676   5.845  13.870  10.969
80927SOL     OW44677   6.998  13.980   2.746
80927SOL    HW144678   6.974  13.975   2.654
80927SOL    HW244679   6.950  14.056   2.779
80928SOL     OW44680   6.424   3.473  12.414
80928SOL    HW144681   6.475   3.553  12.397
80928SOL    HW244682   6.446   3.450  12.505
80929SOL     OW44683   1.289   0.864   5.903
80929SOL    HW144684   1.243   0.829   5.979
80929SOL    HW244685   1.251   0.951   5.889
80930SOL     OW44686  10.990   7.413  12.043
80930SOL    HW144687  10.982   7.492  12.097
80930SOL    HW244688  11.038   7.442  11.966
80931SOL     OW44689  13.420  10.445   6.982
80931SOL    HW144690  13.427  10.523   7.037
80931SOL    HW244691  13.337  10.456   6.935
80932SOL     OW44692   8.942   9.416   3.452
80932SOL    HW144693   9.028   9.390   3.419
80932SOL    HW244694   8.879   9.371   3.395
80933SOL     OW44695  11.240   9.972  13.842
80933SOL    HW144696  11.291  10.035  13.893
80933SOL    HW244697  11.212  10.021  13.764
80934SOL     OW44698  13.626  13.347   2.386
80934SOL    HW144699  13.593  13.377   2.302
80934SOL    HW244700  13.548  13.324   2.437
80935SOL     OW44701  12.295  10.087   3.256
80935SOL    HW144702  12.328  10.066   3.169
80935SOL    HW244703  12.271  10.003   3.294
80936SOL     OW44704   7.627  12.022   2.975
80936SOL    HW144705   7.644  12.042   2.882
80936SOL    HW244706   7.687  11.950   2.995
80937SOL     OW44707   8.464  10.921  13.066
80937SOL    HW144708   8.494  10.969  12.989
80937SOL    HW244709   8.515  10.959  13.138
80938SOL     OW44710   2.401  11.308  12.532
80938SOL    HW144711   2.321  11.311  12.585
80938SOL    HW244712   2.383  11.243  12.464
80939SOL     OW44713  12.295   9.719   5.989
80939SOL    HW144714  12.279   9.651   6.055
80939SOL    HW244715  12.214   9.770   5.988
80940SOL     OW44716   9.432   4.921   7.603
80940SOL    HW144717   9.343   4.949   7.625
80940SOL    HW244718   9.463   4.876   7.682
80941SOL     OW44719  11.230  11.983   5.372
80941SOL    HW144720  11.150  11.963   5.421
80941SOL    HW244721  11.284  11.904   5.381
80942SOL     OW44722  14.425  10.257  11.899
80942SOL    HW144723  14.472  10.187  11.944
80942SOL    HW244724  14.378  10.212  11.828
80943SOL     OW44725   1.509  14.082   8.791
80943SOL    HW144726   1.529  14.093   8.883
80943SOL    HW244727   1.508  13.987   8.777
80944SOL     OW44728  12.360   6.943  14.699
80944SOL    HW144729  12.302   7.007  14.658
80944SOL    HW244730  12.448   6.969  14.672
80945SOL     OW44731  10.798  11.259   6.982
80945SOL    HW144732  10.760  11.206   6.913
80945SOL    HW244733  10.862  11.202   7.024
80946SOL     OW44734  13.852  12.273   1.680
80946SOL    HW144735  13.770  12.289   1.635
80946SOL    HW244736  13.827  12.252   1.770
80947SOL     OW44737   3.598   6.563   8.386
80947SOL    HW144738   3.636   6.647   8.414
80947SOL    HW244739   3.672   6.504   8.381
80948SOL     OW44740   7.177   3.910   0.758
80948SOL    HW144741   7.131   3.849   0.816
80948SOL    HW244742   7.191   3.860   0.678
80949SOL     OW44743  13.945   8.670  12.848
80949SOL    HW144744  14.035   8.652  12.821
80949SOL    HW244745  13.954   8.710  12.935
80950SOL     OW44746  13.414   1.688   3.495
80950SOL    HW144747  13.470   1.765   3.483
80950SOL    HW244748  13.394   1.688   3.589
80951SOL     OW44749   7.923  11.047   2.994
80951SOL    HW144750   7.989  11.076   3.057
80951SOL    HW244751   7.903  10.957   3.020
80952SOL     OW44752   3.059  14.032   1.839
80952SOL    HW144753   3.102  13.948   1.855
80952SOL    HW244754   2.966  14.012   1.836
80953SOL     OW44755   0.521  13.662   5.425
80953SOL    HW144756   0.487  13.577   5.395
80953SOL    HW244757   0.444  13.707   5.459
80954SOL     OW44758  13.033   3.986   7.081
80954SOL    HW144759  12.962   4.041   7.048
80954SOL    HW244760  12.992   3.902   7.100
80955SOL     OW44761   1.922  14.006  13.456
80955SOL    HW144762   1.986  14.067  13.420
80955SOL    HW244763   1.905  13.944  13.385
80956SOL     OW44764   8.240   0.953  10.950
80956SOL    HW144765   8.164   0.896  10.932
80956SOL    HW244766   8.258   0.995  10.866
80957SOL     OW44767  12.140  14.021  13.248
80957SOL    HW144768  12.198  14.010  13.172
80957SOL    HW244769  12.160  13.946  13.305
80958SOL     OW44770   3.181   2.280   0.448
80958SOL    HW144771   3.098   2.269   0.401
80958SOL    HW244772   3.246   2.235   0.395
80959SOL     OW44773  10.905  13.109  11.320
80959SOL    HW144774  10.948  13.141  11.240
80959SOL    HW244775  10.971  13.120  11.388
80960SOL     OW44776  11.334   1.132  12.032
80960SOL    HW144777  11.331   1.149  12.126
80960SOL    HW244778  11.422   1.159  12.005
80961SOL     OW44779  14.850   5.092   3.682
80961SOL    HW144780  14.838   4.997   3.682
80961SOL    HW244781  14.879   5.112   3.594
80962SOL     OW44782  14.464   9.129   0.751
80962SOL    HW144783  14.463   9.224   0.738
80962SOL    HW244784  14.496   9.117   0.840
80963SOL     OW44785   7.771   5.854  13.818
80963SOL    HW144786   7.817   5.789  13.766
80963SOL    HW244787   7.794   5.832  13.909
80964SOL     OW44788  12.742   7.151   5.313
80964SOL    HW144789  12.702   7.221   5.364
80964SOL    HW244790  12.805   7.111   5.373
80965SOL     OW44791  14.781   8.468   9.546
80965SOL    HW144792  14.743   8.464   9.458
80965SOL    HW244793  14.745   8.392   9.591
80966SOL     OW44794  11.069   8.167   9.621
80966SOL    HW144795  11.021   8.233   9.671
80966SOL    HW244796  11.080   8.206   9.534
80967SOL     OW44797   0.506   8.622  10.242
80967SOL    HW144798   0.480   8.660  10.326
80967SOL    HW244799   0.510   8.528  10.259
80968SOL     OW44800   3.013   3.987   4.957
80968SOL    HW144801   2.928   3.954   4.928
80968SOL    HW244802   3.062   3.910   4.984
80969SOL     OW44803  14.214   0.406  14.446
80969SOL    HW144804  14.216   0.484  14.502
80969SOL    HW244805  14.147   0.350  14.485
80970SOL     OW44806   6.350   9.170  10.204
80970SOL    HW144807   6.430   9.207  10.167
80970SOL    HW244808   6.376   9.135  10.289
80971SOL     OW44809  12.981   7.924   0.779
80971SOL    HW144810  12.944   7.907   0.692
80971SOL    HW244811  12.966   8.017   0.794
80972SOL     OW44812  10.093  11.244  13.909
80972SOL    HW144813  10.172  11.299  13.911
80972SOL    HW244814  10.089  11.211  13.820
80973SOL     OW44815   5.382   4.001   5.528
80973SOL    HW144816   5.418   3.974   5.613
80973SOL    HW244817   5.307   3.943   5.514
80974SOL     OW44818   0.031  11.708   0.984
80974SOL    HW144819   0.077  11.624   0.981
80974SOL    HW244820  14.820  11.684   0.984
80975SOL     OW44821   1.032   7.358  12.677
80975SOL    HW144822   0.941   7.341  12.703
80975SOL    HW244823   1.026   7.390  12.587
80976SOL     OW44824   8.466  10.036  14.177
80976SOL    HW144825   8.472  10.131  14.176
80976SOL    HW244826   8.386  10.017  14.129
80977SOL     OW44827   8.411   4.877  14.831
80977SOL    HW144828   8.436   4.835   0.031
80977SOL    HW244829   8.325   4.916  14.849
80978SOL     OW44830   4.635   9.432   1.305
80978SOL    HW144831   4.544   9.406   1.294
80978SOL    HW244832   4.685   9.371   1.251
80979SOL     OW44833  12.228  14.638   3.765
80979SOL    HW144834  12.161  14.643   3.833
80979SOL    HW244835  12.234  14.545   3.744
80980SOL     OW44836   8.996   1.586   2.740
80980SOL    HW144837   9.060   1.625   2.799
80980SOL    HW244838   9.003   1.638   2.660
80981SOL     OW44839   0.787  10.870  13.470
80981SOL    HW144840   0.724  10.942  13.470
80981SOL    HW244841   0.733  10.792  13.483
80982SOL     OW44842   9.209  10.326   6.113
80982SOL    HW144843   9.116  10.314   6.130
80982SOL    HW244844   9.236  10.396   6.173
80983SOL     OW44845  13.297  13.381   0.091
80983SOL    HW144846  13.383  13.384   0.133
80983SOL    HW244847  13.266  13.292   0.105
80984SOL     OW44848   9.143   3.766   8.261
80984SOL    HW144849   9.100   3.851   8.254
80984SOL    HW244850   9.079   3.704   8.228
80985SOL     OW44851   3.220   4.360   8.523
80985SOL    HW144852   3.175   4.432   8.479
80985SOL    HW244853   3.233   4.295   8.454
80986SOL     OW44854   1.713   5.399   8.583
80986SOL    HW144855   1.802   5.428   8.601
80986SOL    HW244856   1.663   5.424   8.660
80987SOL     OW44857   2.430   3.718  13.635
80987SOL    HW144858   2.500   3.718  13.700
80987SOL    HW244859   2.364   3.776  13.672
80988SOL     OW44860   3.626  13.792   0.210
80988SOL    HW144861   3.562  13.862   0.199
80988SOL    HW244862   3.684  13.823   0.280
80989SOL     OW44863   5.574   0.308   5.779
80989SOL    HW144864   5.641   0.254   5.821
80989SOL    HW244865   5.543   0.255   5.706
80990SOL     OW44866  11.029  10.555   3.142
80990SOL    HW144867  10.935  10.547   3.127
80990SOL    HW244868  11.056  10.467   3.166
80991SOL     OW44869   3.074  13.082   2.002
80991SOL    HW144870   3.129  13.148   2.044
80991SOL    HW244871   3.136  13.023   1.960
80992SOL     OW44872   1.788   8.213   3.155
80992SOL    HW144873   1.852   8.153   3.116
80992SOL    HW244874   1.803   8.296   3.109
80993SOL     OW44875  12.558  12.557   6.398
80993SOL    HW144876  12.549  12.565   6.493
80993SOL    HW244877  12.469  12.538   6.367
80994SOL     OW44878  10.384  14.634   4.748
80994SOL    HW144879  10.396  14.569   4.680
80994SOL    HW244880  10.304  14.608   4.793
80995SOL     OW44881   2.306  12.358  13.408
80995SOL    HW144882   2.362  12.404  13.346
80995SOL    HW244883   2.244  12.309  13.353
80996SOL     OW44884   5.516   9.813  13.646
80996SOL    HW144885   5.559   9.868  13.581
80996SOL    HW244886   5.556   9.727  13.635
80997SOL     OW44887  10.405  13.334   6.508
80997SOL    HW144888  10.405  13.264   6.574
80997SOL    HW244889  10.429  13.413   6.556
80998SOL     OW44890  11.234  13.198   1.931
80998SOL    HW144891  11.268  13.273   1.882
80998SOL    HW244892  11.236  13.125   1.868
80999SOL     OW44893   4.317  11.928   9.940
80999SOL    HW144894   4.297  11.854   9.997
80999SOL    HW244895   4.383  11.895   9.879
81000SOL     OW44896  13.652  14.849   0.205
81000SOL    HW144897  13.684  14.787   0.271
81000SOL    HW244898  13.671  14.806   0.122
81001SOL     OW44899   6.183   8.473  12.284
81001SOL    HW144900   6.196   8.558  12.241
81001SOL    HW244901   6.253   8.468  12.349
81002SOL     OW44902   8.664   5.292   1.974
81002SOL    HW144903   8.625   5.217   2.019
81002SOL    HW244904   8.757   5.288   1.997
81003SOL     OW44905   8.584   1.832   4.094
81003SOL    HW144906   8.494   1.852   4.120
81003SOL    HW244907   8.577   1.796   4.006
81004SOL     OW44908  11.502   6.061   7.485
81004SOL    HW144909  11.499   5.968   7.510
81004SOL    HW244910  11.430   6.101   7.534
81005SOL     OW44911  12.798   1.045   6.001
81005SOL    HW144912  12.724   1.041   5.941
81005SOL    HW244913  12.873   1.019   5.948
81006SOL     OW44914   0.820  10.508   7.641
81006SOL    HW144915   0.830  10.432   7.698
81006SOL    HW244916   0.877  10.490   7.567
81007SOL     OW44917  14.880  12.248   9.944
81007SOL    HW144918  14.836  12.190   9.882
81007SOL    HW244919   0.073  12.283   9.896
81008SOL     OW44920   0.814   4.283  11.721
81008SOL    HW144921   0.726   4.281  11.758
81008SOL    HW244922   0.873   4.277  11.797
81009SOL     OW44923   5.697  12.777  14.282
81009SOL    HW144924   5.712  12.868  14.258
81009SOL    HW244925   5.698  12.729  14.199
81010SOL     OW44926   8.857  13.275   3.290
81010SOL    HW144927   8.871  13.289   3.196
81010SOL    HW244928   8.809  13.193   3.296
81011SOL     OW44929   1.729  13.705   6.470
81011SOL    HW144930   1.774  13.774   6.520
81011SOL    HW244931   1.673  13.753   6.408
81012SOL     OW44932  11.985   6.208   3.207
81012SOL    HW144933  12.078   6.193   3.192
81012SOL    HW244934  11.976   6.212   3.302
81013SOL     OW44935   5.131   6.503   0.267
81013SOL    HW144936   5.154   6.413   0.291
81013SOL    HW244937   5.121   6.501   0.172
81014SOL     OW44938  10.954   4.463  12.953
81014SOL    HW144939  10.870   4.423  12.929
81014SOL    HW244940  10.959   4.453  13.048
81015SOL     OW44941   1.221   6.949   3.491
81015SOL    HW144942   1.172   6.910   3.418
81015SOL    HW244943   1.155   6.990   3.546
81016SOL     OW44944   4.590  13.655  10.824
81016SOL    HW144945   4.515  13.619  10.871
81016SOL    HW244946   4.571  13.749  10.817
81017SOL     OW44947   3.369   0.650   9.178
81017SOL    HW144948   3.339   0.626   9.090
81017SOL    HW244949   3.310   0.603   9.237
81018SOL     OW44950   8.275   1.295   1.099
81018SOL    HW144951   8.278   1.200   1.099
81018SOL    HW244952   8.255   1.319   1.009
81019SOL     OW44953   6.323  12.497   9.593
81019SOL    HW144954   6.352  12.551   9.520
81019SOL    HW244955   6.370  12.532   9.669
81020SOL     OW44956   9.257  12.974   2.735
81020SOL    HW144957   9.251  13.029   2.813
81020SOL    HW244958   9.182  12.914   2.742
81021SOL     OW44959  12.569   3.763   7.476
81021SOL    HW144960  12.628   3.818   7.424
81021SOL    HW244961  12.498   3.821   7.501
81022SOL     OW44962  14.604   5.877   4.565
81022SOL    HW144963  14.642   5.840   4.645
81022SOL    HW244964  14.652   5.959   4.552
81023SOL     OW44965  10.285   1.706   6.152
81023SOL    HW144966  10.224   1.727   6.223
81023SOL    HW244967  10.367   1.749   6.177
81024SOL     OW44968   7.242  10.475  11.196
81024SOL    HW144969   7.258  10.532  11.271
81024SOL    HW244970   7.322  10.423  11.189
81025SOL     OW44971   2.320   3.791   0.717
81025SOL    HW144972   2.294   3.747   0.798
81025SOL    HW244973   2.416   3.799   0.723
81026SOL     OW44974   9.786   3.201   6.673
81026SOL    HW144975   9.739   3.279   6.643
81026SOL    HW244976   9.778   3.139   6.600
81027SOL     OW44977   8.341   4.045   9.826
81027SOL    HW144978   8.347   3.972   9.887
81027SOL    HW244979   8.310   4.118   9.879
81028SOL     OW44980   3.820   2.446   2.577
81028SOL    HW144981   3.729   2.435   2.548
81028SOL    HW244982   3.869   2.454   2.495
81029SOL     OW44983  10.709   6.751  12.481
81029SOL    HW144984  10.671   6.688  12.542
81029SOL    HW244985  10.651   6.751  12.405
81030SOL     OW44986   7.268   7.876   8.032
81030SOL    HW144987   7.190   7.865   8.086
81030SOL    HW244988   7.331   7.919   8.089
81031SOL     OW44989   5.102   5.909   2.746
81031SOL    HW144990   5.126   5.945   2.831
81031SOL    HW244991   5.171   5.940   2.687
81032SOL     OW44992  12.834   3.611   7.338
81032SOL    HW144993  12.800   3.523   7.351
81032SOL    HW244994  12.876   3.634   7.421
81033SOL     OW44995   6.507  14.432   1.182
81033SOL    HW144996   6.554  14.408   1.262
81033SOL    HW244997   6.416  14.407   1.200
81034SOL     OW44998   4.951  13.977   2.460
81034SOL    HW144999   5.016  13.970   2.530
81034SOL    HW245000   4.873  13.936   2.496
81035SOL     OW45001   8.048   0.442   2.901
81035SOL    HW145002   8.106   0.367   2.915
81035SOL    HW245003   7.966   0.404   2.869
81036SOL     OW45004   5.458   0.402   8.716
81036SOL    HW145005   5.409   0.322   8.738
81036SOL    HW245006   5.548   0.383   8.745
81037SOL     OW45007   2.049  11.242   3.097
81037SOL    HW145008   1.996  11.321   3.090
81037SOL    HW245009   2.005  11.177   3.042
81038SOL     OW45010  12.151   7.334   3.625
81038SOL    HW145011  12.107   7.267   3.571
81038SOL    HW245012  12.085   7.360   3.689
81039SOL     OW45013  12.031   3.455   2.479
81039SOL    HW145014  11.979   3.534   2.462
81039SOL    HW245015  12.115   3.473   2.437
81040SOL     OW45016  14.775   0.534  11.656
81040SOL    HW145017  14.753   0.457  11.604
81040SOL    HW245018  14.833   0.502  11.724
81041SOL     OW45019  13.467  10.541   1.433
81041SOL    HW145020  13.512  10.466   1.395
81041SOL    HW245021  13.385  10.546   1.385
81042SOL     OW45022  13.394   7.793   0.101
81042SOL    HW145023  13.365   7.721   0.044
81042SOL    HW245024  13.318   7.851   0.106
81043SOL     OW45025   0.530  12.442  10.012
81043SOL    HW145026   0.532  12.525   9.965
81043SOL    HW245027   0.565  12.462  10.099
81044SOL     OW45028  12.932  14.760   2.910
81044SOL    HW145029  13.019  14.797   2.896
81044SOL    HW245030  12.913  14.714   2.829
81045SOL     OW45031   2.966  13.374   5.603
81045SOL    HW145032   2.990  13.461   5.635
81045SOL    HW245033   2.984  13.378   5.509
81046SOL     OW45034   8.036  13.300   4.772
81046SOL    HW145035   8.098  13.316   4.843
81046SOL    HW245036   8.061  13.213   4.738
81047SOL     OW45037   3.189   1.089   7.737
81047SOL    HW145038   3.122   1.073   7.804
81047SOL    HW245039   3.158   1.167   7.690
81048SOL     OW45040  12.915   2.210   4.843
81048SOL    HW145041  12.876   2.287   4.884
81048SOL    HW245042  12.903   2.224   4.749
81049SOL     OW45043  12.608   6.296   3.555
81049SOL    HW145044  12.619   6.391   3.548
81049SOL    HW245045  12.684   6.260   3.510
81050SOL     OW45046  13.370   7.833   3.743
81050SOL    HW145047  13.402   7.857   3.656
81050SOL    HW245048  13.404   7.901   3.801
81051SOL     OW45049  12.404   1.096  12.534
81051SOL    HW145050  12.405   1.190  12.514
81051SOL    HW245051  12.379   1.054  12.452
81052SOL     OW45052   5.262   9.935   6.477
81052SOL    HW145053   5.247   9.846   6.446
81052SOL    HW245054   5.238   9.990   6.402
81053SOL     OW45055   0.728   1.500   5.309
81053SOL    HW145056   0.669   1.508   5.235
81053SOL    HW245057   0.690   1.556   5.377
81054SOL     OW45058   7.823   7.428   7.674
81054SOL    HW145059   7.890   7.438   7.743
81054SOL    HW245060   7.847   7.493   7.608
81055SOL     OW45061   6.252   7.079   1.043
81055SOL    HW145062   6.342   7.056   1.066
81055SOL    HW245063   6.225   7.013   0.979
81056SOL     OW45064  10.122  10.119   8.284
81056SOL    HW145065  10.184  10.055   8.247
81056SOL    HW245066  10.176  10.196   8.302
81057SOL     OW45067   6.229   6.324  14.514
81057SOL    HW145068   6.199   6.412  14.538
81057SOL    HW245069   6.208   6.270  14.591
81058SOL     OW45070   1.945  11.076  14.665
81058SOL    HW145071   1.872  11.133  14.689
81058SOL    HW245072   1.913  11.027  14.589
81059SOL     OW45073  11.713   3.841   1.189
81059SOL    HW145074  11.714   3.937   1.179
81059SOL    HW245075  11.704   3.808   1.100
81060SOL     OW45076   4.364  12.849   0.232
81060SOL    HW145077   4.276  12.886   0.223
81060SOL    HW245078   4.351  12.754   0.228
81061SOL     OW45079   2.988   9.747   9.924
81061SOL    HW145080   3.028   9.763  10.009
81061SOL    HW245081   3.045   9.682   9.882
81062SOL     OW45082  14.776   4.966   2.591
81062SOL    HW145083  14.869   4.963   2.614
81062SOL    HW245084  14.761   5.057   2.565
81063SOL     OW45085   9.964  10.350   0.065
81063SOL    HW145086   9.902  10.410   0.107
81063SOL    HW245087   9.912  10.273   0.043
81064SOL     OW45088   7.200   7.749  13.271
81064SOL    HW145089   7.260   7.823  13.266
81064SOL    HW245090   7.257   7.672  13.265
81065SOL     OW45091  11.550   9.074   5.390
81065SOL    HW145092  11.618   9.006   5.393
81065SOL    HW245093  11.500   9.060   5.470
81066SOL     OW45094   6.637   5.765   4.668
81066SOL    HW145095   6.683   5.731   4.745
81066SOL    HW245096   6.587   5.840   4.701
81067SOL     OW45097   8.122   4.716  12.703
81067SOL    HW145098   8.187   4.786  12.702
81067SOL    HW245099   8.104   4.701  12.796
81068SOL     OW45100  13.240  14.433  12.770
81068SOL    HW145101  13.335  14.431  12.780
81068SOL    HW245102  13.221  14.521  12.738
81069SOL     OW45103   3.733  10.924   2.729
81069SOL    HW145104   3.712  10.832   2.745
81069SOL    HW245105   3.741  10.962   2.817
81070SOL     OW45106  13.832   9.256   5.265
81070SOL    HW145107  13.739   9.279   5.271
81070SOL    HW245108  13.833   9.161   5.277
81071SOL     OW45109   7.699   9.746  14.720
81071SOL    HW145110   7.628   9.794  14.763
81071SOL    HW245111   7.757   9.815  14.688
81072SOL     OW45112  11.576   9.014  14.764
81072SOL    HW145113  11.525   8.957  14.707
81072SOL    HW245114  11.524   9.094  14.771
81073SOL     OW45115   9.653   0.952   7.590
81073SOL    HW145116   9.748   0.955   7.597
81073SOL    HW245117   9.626   0.887   7.655
81074SOL     OW45118  12.316  14.136   3.593
81074SOL    HW145119  12.362  14.057   3.567
81074SOL    HW245120  12.223  14.113   3.585
81075SOL     OW45121  13.329   8.490   3.496
81075SOL    HW145122  13.367   8.545   3.565
81075SOL    HW245123  13.246   8.533   3.475
81076SOL     OW45124  11.312   9.582  13.742
81076SOL    HW145125  11.314   9.537  13.826
81076SOL    HW245126  11.398   9.623  13.734
81077SOL     OW45127   3.041   8.544   2.620
81077SOL    HW145128   3.028   8.624   2.671
81077SOL    HW245129   3.043   8.574   2.529
81078SOL     OW45130   3.646   2.981   8.644
81078SOL    HW145131   3.711   2.933   8.594
81078SOL    HW245132   3.608   3.043   8.582
81079SOL     OW45133  10.214   3.935   1.214
81079SOL    HW145134  10.225   3.840   1.214
81079SOL    HW245135  10.132   3.950   1.259
81080SOL     OW45136   5.951   2.995   4.002
81080SOL    HW145137   6.011   3.018   3.931
81080SOL    HW245138   5.908   2.914   3.972
81081SOL     OW45139   1.982   2.647  12.052
81081SOL    HW145140   2.065   2.599  12.050
81081SOL    HW245141   2.006   2.736  12.024
81082SOL     OW45142   3.916   1.679   2.772
81082SOL    HW145143   3.879   1.767   2.768
81082SOL    HW245144   3.999   1.685   2.725
81083SOL     OW45145  14.543   5.774   6.267
81083SOL    HW145146  14.487   5.696   6.274
81083SOL    HW245147  14.484   5.843   6.237
81084SOL     OW45148   2.869   9.730   9.247
81084SOL    HW145149   2.917   9.754   9.327
81084SOL    HW245150   2.926   9.758   9.175
81085SOL     OW45151   8.629   5.227   1.430
81085SOL    HW145152   8.689   5.295   1.402
81085SOL    HW245153   8.588   5.262   1.509
81086SOL     OW45154   4.926   8.012   6.003
81086SOL    HW145155   4.935   8.002   6.097
81086SOL    HW245156   4.929   7.923   5.968
81087SOL     OW45157   8.356   4.989   9.212
81087SOL    HW145158   8.368   4.999   9.118
81087SOL    HW245159   8.404   4.910   9.235
81088SOL     OW45160   2.169  11.267   3.905
81088SOL    HW145161   2.100  11.200   3.903
81088SOL    HW245162   2.122  11.350   3.894
81089SOL     OW45163   1.211   2.344   2.403
81089SOL    HW145164   1.267   2.276   2.441
81089SOL    HW245165   1.135   2.347   2.462
81090SOL     OW45166  13.645  13.529   8.324
81090SOL    HW145167  13.708  13.499   8.259
81090SOL    HW245168  13.698  13.543   8.403
81091SOL     OW45169   9.662  13.299  13.927
81091SOL    HW145170   9.626  13.246  13.855
81091SOL    HW245171   9.685  13.382  13.887
81092SOL     OW45172   2.008   4.078   8.670
81092SOL    HW145173   2.068   4.146   8.701
81092SOL    HW245174   2.047   3.996   8.701
81093SOL     OW45175  10.581   6.502   0.728
81093SOL    HW145176  10.499   6.487   0.681
81093SOL    HW245177  10.646   6.519   0.660
81094SOL     OW45178  12.660   5.849   5.218
81094SOL    HW145179  12.721   5.801   5.162
81094SOL    HW245180  12.716   5.894   5.281
81095SOL     OW45181  11.633  13.265   6.502
81095SOL    HW145182  11.582  13.184   6.497
81095SOL    HW245183  11.580  13.330   6.456
81096SOL     OW45184   7.299   6.809   8.287
81096SOL    HW145185   7.386   6.790   8.322
81096SOL    HW245186   7.309   6.801   8.192
81097SOL     OW45187  12.116   6.752   5.687
81097SOL    HW145188  12.099   6.834   5.734
81097SOL    HW245189  12.112   6.684   5.755
81098SOL     OW45190   0.385   7.720   5.613
81098SOL    HW145191   0.430   7.713   5.530
81098SOL    HW245192   0.327   7.796   5.603
81099SOL     OW45193  14.701  10.048   9.106
81099SOL    HW145194  14.716  10.068   9.199
81099SOL    HW245195  14.783  10.073   9.063
81100SOL     OW45196   3.875  14.663  14.834
81100SOL    HW145197   3.829  14.581  14.852
81100SOL    HW245198   3.846  14.688  14.746
81101SOL     OW45199   5.677   8.228   1.726
81101SOL    HW145200   5.768   8.235   1.754
81101SOL    HW245201   5.661   8.307   1.675
81102SOL     OW45202   2.371   1.575  10.758
81102SOL    HW145203   2.281   1.603  10.740
81102SOL    HW245204   2.398   1.630  10.832
81103SOL     OW45205  14.534   9.795  12.116
81103SOL    HW145206  14.559   9.724  12.057
81103SOL    HW245207  14.543   9.757  12.204
81104SOL     OW45208   7.528   2.156   5.823
81104SOL    HW145209   7.558   2.191   5.739
81104SOL    HW245210   7.445   2.112   5.802
81105SOL     OW45211   3.430   5.062   7.675
81105SOL    HW145212   3.523   5.052   7.655
81105SOL    HW245213   3.386   5.048   7.591
81106SOL     OW45214  12.686   7.719  13.683
81106SOL    HW145215  12.712   7.810  13.687
81106SOL    HW245216  12.610   7.713  13.741
81107SOL     OW45217   9.710   4.671   2.782
81107SOL    HW145218   9.790   4.619   2.791
81107SOL    HW245219   9.723   4.723   2.703
81108SOL     OW45220   3.624   5.289   4.070
81108SOL    HW145221   3.608   5.258   3.981
81108SOL    HW245222   3.645   5.382   4.060
81109SOL     OW45223  11.774   7.987   3.252
81109SOL    HW145224  11.746   8.024   3.168
81109SOL    HW245225  11.699   7.935   3.281
81110SOL     OW45226   2.948  10.757   8.307
81110SOL    HW145227   2.868  10.811   8.308
81110SOL    HW245228   2.918  10.668   8.322
81111SOL     OW45229   6.069  12.008   7.975
81111SOL    HW145230   6.143  12.047   8.022
81111SOL    HW245231   5.994  12.063   7.999
81112SOL     OW45232   4.741  11.159  11.032
81112SOL    HW145233   4.708  11.181  10.945
81112SOL    HW245234   4.826  11.118  11.016
81113SOL     OW45235   8.215  12.882  10.125
81113SOL    HW145236   8.249  12.794  10.106
81113SOL    HW245237   8.292  12.933  10.149
81114SOL     OW45238   1.259   3.806   1.735
81114SOL    HW145239   1.217   3.889   1.712
81114SOL    HW245240   1.193   3.759   1.786
81115SOL     OW45241   7.070   4.423   1.986
81115SOL    HW145242   6.990   4.436   1.936
81115SOL    HW245243   7.109   4.510   1.993
81116SOL     OW45244   6.152   5.061  12.996
81116SOL    HW145245   6.083   5.108  13.044
81116SOL    HW245246   6.143   4.970  13.024
81117SOL     OW45247   8.501   7.697   7.651
81117SOL    HW145248   8.480   7.615   7.607
81117SOL    HW245249   8.595   7.692   7.669
81118SOL     OW45250   0.898  11.741  12.307
81118SOL    HW145251   0.862  11.696  12.384
81118SOL    HW245252   0.940  11.819  12.343
81119SOL     OW45253  14.269   3.653   7.849
81119SOL    HW145254  14.181   3.677   7.880
81119SOL    HW245255  14.271   3.558   7.855
81120SOL     OW45256  10.209   0.260   8.924
81120SOL    HW145257  10.255   0.265   8.840
81120SOL    HW245258  10.185   0.168   8.933
81121SOL     OW45259   8.938  12.284   9.443
81121SOL    HW145260   8.976  12.255   9.526
81121SOL    HW245261   8.949  12.379   9.444
81122SOL     OW45262   6.851   5.673  13.912
81122SOL    HW145263   6.940   5.659  13.944
81122SOL    HW245264   6.832   5.595  13.859
81123SOL     OW45265   4.193  13.371   8.463
81123SOL    HW145266   4.233  13.350   8.548
81123SOL    HW245267   4.256  13.429   8.421
81124SOL     OW45268   1.841   0.221   4.762
81124SOL    HW145269   1.811   0.190   4.848
81124SOL    HW245270   1.902   0.292   4.783
81125SOL     OW45271  14.666   5.569  10.772
81125SOL    HW145272  14.682   5.659  10.801
81125SOL    HW245273  14.752   5.527  10.778
81126SOL     OW45274   8.546   6.942  11.112
81126SOL    HW145275   8.502   6.962  11.195
81126SOL    HW245276   8.593   6.861  11.129
81127SOL     OW45277   1.773   8.008   6.479
81127SOL    HW145278   1.708   7.972   6.539
81127SOL    HW245279   1.788   8.097   6.511
81128SOL     OW45280  13.891   2.722   6.422
81128SOL    HW145281  13.866   2.735   6.331
81128SOL    HW245282  13.902   2.811   6.456
81129SOL     OW45283   1.225  13.743  14.546
81129SOL    HW145284   1.316  13.741  14.577
81129SOL    HW245285   1.233  13.747  14.450
81130SOL     OW45286   0.044   0.310   2.149
81130SOL    HW145287  14.867   0.317   2.224
81130SOL    HW245288   0.023   0.225   2.110
81131SOL     OW45289  10.645   6.854   3.161
81131SOL    HW145290  10.671   6.877   3.250
81131SOL    HW245291  10.549   6.858   3.162
81132SOL     OW45292  12.330   7.436   9.355
81132SOL    HW145293  12.317   7.495   9.430
81132SOL    HW245294  12.248   7.389   9.347
81133SOL     OW45295   4.088   4.142   2.838
81133SOL    HW145296   4.031   4.087   2.892
81133SOL    HW245297   4.156   4.083   2.806
81134SOL     OW45298  10.597  14.329   6.873
81134SOL    HW145299  10.614  14.391   6.802
81134SOL    HW245300  10.679  14.282   6.884
81135SOL     OW45301   8.386   0.947  11.438
81135SOL    HW145302   8.348   0.860  11.452
81135SOL    HW245303   8.427   0.941  11.352
81136SOL     OW45304   9.257   0.194  12.670
81136SOL    HW145305   9.167   0.199  12.704
81136SOL    HW245306   9.246   0.166  12.579
81137SOL     OW45307   7.927  11.789   5.354
81137SOL    HW145308   7.847  11.736   5.364
81137SOL    HW245309   7.998  11.727   5.367
81138SOL     OW45310   6.130  10.007   5.147
81138SOL    HW145311   6.219  10.042   5.147
81138SOL    HW245312   6.133   9.933   5.207
81139SOL     OW45313   0.329  13.010  11.128
81139SOL    HW145314   0.303  13.047  11.212
81139SOL    HW245315   0.302  12.919  11.133
81140SOL     OW45316   8.382   8.049   1.620
81140SOL    HW145317   8.464   8.001   1.624
81140SOL    HW245318   8.405   8.134   1.582
81141SOL     OW45319   4.509   6.046  14.154
81141SOL    HW145320   4.451   6.096  14.211
81141SOL    HW245321   4.458   6.031  14.074
81142SOL     OW45322   6.653   8.279  13.467
81142SOL    HW145323   6.558   8.266  13.473
81142SOL    HW245324   6.690   8.196  13.496
81143SOL     OW45325  11.000   1.322   5.107
81143SOL    HW145326  10.922   1.377   5.099
81143SOL    HW245327  11.073   1.383   5.098
81144SOL     OW45328   8.473   0.205  10.940
81144SOL    HW145329   8.398   0.260  10.921
81144SOL    HW245330   8.469   0.190  11.034
81145SOL     OW45331   4.395   0.858  11.312
81145SOL    HW145332   4.407   0.937  11.364
81145SOL    HW245333   4.468   0.801  11.337
81146SOL     OW45334   5.537   6.233   0.205
81146SOL    HW145335   5.549   6.316   0.251
81146SOL    HW245336   5.510   6.258   0.117
81147SOL     OW45337   0.246   0.042   4.869
81147SOL    HW145338   0.184   0.071   4.935
81147SOL    HW245339   0.256  14.830   4.885
81148SOL     OW45340  13.493   7.788  10.047
81148SOL    HW145341  13.490   7.693  10.053
81148SOL    HW245342  13.541   7.806   9.967
81149SOL     OW45343  10.438   3.308  14.774
81149SOL    HW145344  10.508   3.310  14.710
81149SOL    HW245345  10.432   3.216  14.800
81150SOL     OW45346   3.200  13.233   5.941
81150SOL    HW145347   3.141  13.167   5.978
81150SOL    HW245348   3.287  13.193   5.947
81151SOL     OW45349   3.343   6.751   5.792
81151SOL    HW145350   3.325   6.821   5.854
81151SOL    HW245351   3.259   6.705   5.783
81152SOL     OW45352   2.704   2.431   0.059
81152SOL    HW145353   2.713   2.393  14.854
81152SOL    HW245354   2.782   2.487   0.069
81153SOL     OW45355  13.806  10.367   7.563
81153SOL    HW145356  13.767  10.426   7.499
81153SOL    HW245357  13.818  10.285   7.515
81154SOL     OW45358   4.986   0.607  14.405
81154SOL    HW145359   5.042   0.530  14.393
81154SOL    HW245360   4.948   0.625  14.319
81155SOL     OW45361  11.918   4.402   4.322
81155SOL    HW145362  11.849   4.403   4.387
81155SOL    HW245363  11.923   4.492   4.291
81156SOL     OW45364   9.037  12.823  13.594
81156SOL    HW145365   9.058  12.757  13.528
81156SOL    HW245366   9.066  12.906  13.555
81157SOL     OW45367   9.963   7.152   3.072
81157SOL    HW145368   9.905   7.213   3.026
81157SOL    HW245369   9.937   7.066   3.039
81158SOL     OW45370   3.658   3.123   0.864
81158SOL    HW145371   3.617   3.088   0.785
81158SOL    HW245372   3.588   3.170   0.908
81159SOL     OW45373  10.738   9.542   8.682
81159SOL    HW145374  10.652   9.561   8.645
81159SOL    HW245375  10.736   9.448   8.701
81160SOL     OW45376   0.674   7.316   8.282
81160SOL    HW145377   0.604   7.337   8.219
81160SOL    HW245378   0.644   7.237   8.326
81161SOL     OW45379   7.788  13.987  13.948
81161SOL    HW145380   7.754  14.076  13.953
81161SOL    HW245381   7.857  13.984  14.014
81162SOL     OW45382   8.162  11.710  10.566
81162SOL    HW145383   8.127  11.797  10.581
81162SOL    HW245384   8.086  11.652  10.566
81163SOL     OW45385  12.517   0.266   9.569
81163SOL    HW145386  12.506   0.175   9.544
81163SOL    HW245387  12.434   0.308   9.546
81164SOL     OW45388   3.331  11.482  13.082
81164SOL    HW145389   3.420  11.517  13.092
81164SOL    HW245390   3.310  11.445  13.168
81165SOL     OW45391   3.634   1.058   8.769
81165SOL    HW145392   3.610   0.969   8.744
81165SOL    HW245393   3.729   1.061   8.762
81166SOL     OW45394  12.649  10.939  11.963
81166SOL    HW145395  12.717  10.872  11.964
81166SOL    HW245396  12.683  11.008  12.020
81167SOL     OW45397  14.410  13.130   2.810
81167SOL    HW145398  14.372  13.042   2.810
81167SOL    HW245399  14.334  13.189   2.808
81168SOL     OW45400   7.321   9.476  12.522
81168SOL    HW145401   7.248   9.524  12.562
81168SOL    HW245402   7.362   9.539  12.463
81169SOL     OW45403   2.844  11.047   1.033
81169SOL    HW145404   2.750  11.063   1.023
81169SOL    HW245405   2.856  11.031   1.127
81170SOL     OW45406  11.459   4.948  13.715
81170SOL    HW145407  11.388   4.960  13.652
81170SOL    HW245408  11.431   4.997  13.793
81171SOL     OW45409   2.500   5.740  14.486
81171SOL    HW145410   2.581   5.703  14.451
81171SOL    HW245411   2.525   5.779  14.569
81172SOL     OW45412   3.003   4.259   3.510
81172SOL    HW145413   3.094   4.264   3.539
81172SOL    HW245414   2.996   4.173   3.468
81173SOL     OW45415   3.076  14.030   7.570
81173SOL    HW145416   3.007  14.051   7.507
81173SOL    HW245417   3.029  13.997   7.647
81174SOL     OW45418  12.674  13.144   7.342
81174SOL    HW145419  12.632  13.227   7.321
81174SOL    HW245420  12.642  13.122   7.430
81175SOL     OW45421   3.284  14.396   6.666
81175SOL    HW145422   3.243  14.482   6.673
81175SOL    HW245423   3.211  14.334   6.673
81176SOL     OW45424   4.181  10.200  12.337
81176SOL    HW145425   4.164  10.106  12.346
81176SOL    HW245426   4.208  10.211  12.246
81177SOL     OW45427   3.461   2.479   8.712
81177SOL    HW145428   3.419   2.424   8.777
81177SOL    HW245429   3.471   2.423   8.635
81178SOL     OW45430   3.283   3.950   6.015
81178SOL    HW145431   3.192   3.957   6.041
81178SOL    HW245432   3.292   4.010   5.941
81179SOL     OW45433   4.956   7.621   8.265
81179SOL    HW145434   4.972   7.578   8.349
81179SOL    HW245435   4.896   7.561   8.219
81180SOL     OW45436  10.191  14.784   2.047
81180SOL    HW145437  10.219  14.778   1.956
81180SOL    HW245438  10.118  14.722   2.054
81181SOL     OW45439   2.801  10.839   3.036
81181SOL    HW145440   2.705  10.842   3.042
81181SOL    HW245441   2.831  10.852   3.126
81182SOL     OW45442  14.415   3.086   6.298
81182SOL    HW145443  14.411   3.004   6.347
81182SOL    HW245444  14.404   3.154   6.364
81183SOL     OW45445   2.409  10.632  12.874
81183SOL    HW145446   2.384  10.566  12.939
81183SOL    HW245447   2.327  10.677  12.854
81184SOL     OW45448   7.351  13.092   7.648
81184SOL    HW145449   7.388  13.008   7.621
81184SOL    HW245450   7.300  13.071   7.727
81185SOL     OW45451   2.421   6.190   4.399
81185SOL    HW145452   2.410   6.196   4.494
81185SOL    HW245453   2.495   6.131   4.387
81186SOL     OW45454   4.249  10.773   2.368
81186SOL    HW145455   4.333  10.738   2.338
81186SOL    HW245456   4.259  10.783   2.462
81187SOL     OW45457  14.472   7.692   6.168
81187SOL    HW145458  14.379   7.714   6.162
81187SOL    HW245459  14.504   7.746   6.240
81188SOL     OW45460   7.518   5.669  14.118
81188SOL    HW145461   7.560   5.606  14.177
81188SOL    HW245462   7.424   5.651  14.127
81189SOL     OW45463   8.723  14.778   6.879
81189SOL    HW145464   8.758  14.724   6.950
81189SOL    HW245465   8.635  14.802   6.908
81190SOL     OW45466  12.388   8.573  10.237
81190SOL    HW145467  12.304   8.528  10.235
81190SOL    HW245468  12.417   8.567  10.328
81191SOL     OW45469   0.722  10.872   1.876
81191SOL    HW145470   0.642  10.889   1.827
81191SOL    HW245471   0.770  10.808   1.824
81192SOL     OW45472  12.917   8.925   4.947
81192SOL    HW145473  12.914   8.888   4.859
81192SOL    HW245474  12.912   8.849   5.005
81193SOL     OW45475   4.085  13.103  11.904
81193SOL    HW145476   4.053  13.180  11.858
81193SOL    HW245477   4.025  13.092  11.977
81194SOL     OW45478   5.724  13.806   5.942
81194SOL    HW145479   5.660  13.738   5.921
81194SOL    HW245480   5.681  13.861   6.008
81195SOL     OW45481  11.360   5.463   9.692
81195SOL    HW145482  11.407   5.418   9.762
81195SOL    HW245483  11.267   5.455   9.717
81196SOL     OW45484   2.405   4.516  13.035
81196SOL    HW145485   2.464   4.588  13.057
81196SOL    HW245486   2.463   4.441  13.020
81197SOL     OW45487   9.120  10.225  14.242
81197SOL    HW145488   9.135  10.145  14.192
81197SOL    HW245489   9.060  10.276  14.188
81198SOL     OW45490  12.253  14.611   2.277
81198SOL    HW145491  12.332  14.649   2.314
81198SOL    HW245492  12.283  14.529   2.238
81199SOL     OW45493   3.845   3.259  14.242
81199SOL    HW145494   3.777   3.191  14.239
81199SOL    HW245495   3.800   3.339  14.214
81200SOL     OW45496   6.152   6.508   2.572
81200SOL    HW145497   6.098   6.435   2.541
81200SOL    HW245498   6.236   6.495   2.530
81201SOL     OW45499  13.397  12.594   9.936
81201SOL    HW145500  13.363  12.553   9.856
81201SOL    HW245501  13.453  12.527   9.975
81202SOL     OW45502  11.410  12.080  10.178
81202SOL    HW145503  11.419  12.173  10.156
81202SOL    HW245504  11.319  12.059  10.157
81203SOL     OW45505   4.060  11.197  12.062
81203SOL    HW145506   4.044  11.103  12.050
81203SOL    HW245507   4.033  11.237  11.980
81204SOL     OW45508   3.253  14.748   3.744
81204SOL    HW145509   3.293  14.833   3.726
81204SOL    HW245510   3.161  14.767   3.761
81205SOL     OW45511   8.847   7.982   8.622
81205SOL    HW145512   8.900   8.056   8.593
81205SOL    HW245513   8.770   7.984   8.565
81206SOL     OW45514  13.800  13.030   5.611
81206SOL    HW145515  13.798  12.965   5.541
81206SOL    HW245516  13.734  13.000   5.673
81207SOL     OW45517  11.273  12.016   4.781
81207SOL    HW145518  11.296  12.107   4.800
81207SOL    HW245519  11.205  12.023   4.713
81208SOL     OW45520  10.235   0.565   3.406
81208SOL    HW145521  10.214   0.637   3.465
81208SOL    HW245522  10.219   0.486   3.458
81209SOL     OW45523   1.263   6.384  12.774
81209SOL    HW145524   1.312   6.409  12.695
81209SOL    HW245525   1.241   6.467  12.816
81210SOL     OW45526   3.823  10.001   5.104
81210SOL    HW145527   3.791  10.006   5.014
81210SOL    HW245528   3.895   9.938   5.100
81211SOL     OW45529  11.400   6.235   8.003
81211SOL    HW145530  11.311   6.211   8.032
81211SOL    HW245531  11.409   6.327   8.029
81212SOL     OW45532   3.882  12.119   9.429
81212SOL    HW145533   3.922  12.166   9.503
81212SOL    HW245534   3.939  12.140   9.355
81213SOL     OW45535   9.510  11.248   4.376
81213SOL    HW145536   9.514  11.337   4.411
81213SOL    HW245537   9.432  11.247   4.321
81214SOL     OW45538  10.519   0.977   7.290
81214SOL    HW145539  10.543   0.975   7.383
81214SOL    HW245540  10.602   0.991   7.245
81215SOL     OW45541   3.286   6.148  13.841
81215SOL    HW145542   3.205   6.123  13.886
81215SOL    HW245543   3.353   6.148  13.910
81216SOL     OW45544   3.343   9.270  12.843
81216SOL    HW145545   3.267   9.233  12.889
81216SOL    HW245546   3.416   9.256  12.902
81217SOL     OW45547  12.414   7.099  11.857
81217SOL    HW145548  12.399   7.149  11.938
81217SOL    HW245549  12.331   7.053  11.842
81218SOL     OW45550   1.763   1.181   9.802
81218SOL    HW145551   1.753   1.220   9.888
81218SOL    HW245552   1.857   1.187   9.784
81219SOL     OW45553   5.381  12.885  14.855
81219SOL    HW145554   5.291  12.859  14.836
81219SOL    HW245555   5.435  12.814  14.818
81220SOL     OW45556   4.215   9.629  13.256
81220SOL    HW145557   4.199   9.723  13.248
81220SOL    HW245558   4.131   9.593  13.284
81221SOL     OW45559   8.325   1.804   8.434
81221SOL    HW145560   8.283   1.858   8.501
81221SOL    HW245561   8.294   1.715   8.452
81222SOL     OW45562   7.983   4.024   2.749
81222SOL    HW145563   7.968   3.942   2.702
81222SOL    HW245564   8.037   4.076   2.689
81223SOL     OW45565   0.996  12.059   9.865
81223SOL    HW145566   0.952  12.133   9.907
81223SOL    HW245567   0.951  11.982   9.898
81224SOL     OW45568   3.999   1.823   3.825
81224SOL    HW145569   4.026   1.802   3.735
81224SOL    HW245570   4.021   1.915   3.836
81225SOL     OW45571  14.486   3.024  11.797
81225SOL    HW145572  14.509   2.950  11.853
81225SOL    HW245573  14.514   3.101  11.847
81226SOL     OW45574   9.315   8.490   9.759
81226SOL    HW145575   9.314   8.504   9.854
81226SOL    HW245576   9.397   8.530   9.730
81227SOL     OW45577  12.731   0.366   7.103
81227SOL    HW145578  12.759   0.414   7.181
81227SOL    HW245579  12.657   0.417   7.069
81228SOL     OW45580  13.247   1.148  10.867
81228SOL    HW145581  13.247   1.082  10.937
81228SOL    HW245582  13.256   1.098  10.786
81229SOL     OW45583   0.854   7.797   9.365
81229SOL    HW145584   0.858   7.873   9.306
81229SOL    HW245585   0.941   7.791   9.403
81230SOL     OW45586  11.386  12.119   2.650
81230SOL    HW145587  11.370  12.060   2.724
81230SOL    HW245588  11.299  12.148   2.623
81231SOL     OW45589   5.231   3.972   7.690
81231SOL    HW145590   5.217   4.064   7.667
81231SOL    HW245591   5.210   3.923   7.611
81232SOL     OW45592  11.764   4.551   9.931
81232SOL    HW145593  11.721   4.511  10.007
81232SOL    HW245594  11.854   4.567   9.960
81233SOL     OW45595   3.616   7.475   8.466
81233SOL    HW145596   3.628   7.535   8.393
81233SOL    HW245597   3.521   7.471   8.479
81234SOL     OW45598   0.038  10.074   1.597
81234SOL    HW145599   0.118  10.074   1.650
81234SOL    HW245600  14.851  10.048   1.658
81235SOL     OW45601   9.545  13.541  11.012
81235SOL    HW145602   9.588  13.488  11.078
81235SOL    HW245603   9.616  13.590  10.970
81236SOL     OW45604  13.785   1.374   9.077
81236SOL    HW145605  13.728   1.410   9.009
81236SOL    HW245606  13.728   1.314   9.126
81237SOL     OW45607   9.430   0.406  11.428
81237SOL    HW145608   9.493   0.354  11.478
81237SOL    HW245609   9.460   0.496  11.439
81238SOL     OW45610   5.891   5.975   5.854
81238SOL    HW145611   5.852   5.897   5.893
81238SOL    HW245612   5.904   6.035   5.928
81239SOL     OW45613  11.596   5.208   1.384
81239SOL    HW145614  11.518   5.161   1.414
81239SOL    HW245615  11.605   5.281   1.446
81240SOL     OW45616   4.912   9.329   6.544
81240SOL    HW145617   4.971   9.334   6.468
81240SOL    HW245618   4.851   9.260   6.522
81241SOL     OW45619   2.941  13.504   7.503
81241SOL    HW145620   2.971  13.459   7.424
81241SOL    HW245621   3.021  13.532   7.547
81242SOL     OW45622   9.155   2.903  11.881
81242SOL    HW145623   9.117   2.958  11.950
81242SOL    HW245624   9.141   2.813  11.911
81243SOL     OW45625   4.169  12.296   7.882
81243SOL    HW145626   4.244  12.348   7.853
81243SOL    HW245627   4.180  12.211   7.838
81244SOL     OW45628   8.703   0.855   7.435
81244SOL    HW145629   8.623   0.825   7.392
81244SOL    HW245630   8.721   0.940   7.396
81245SOL     OW45631   4.712  10.858   6.944
81245SOL    HW145632   4.679  10.877   7.031
81245SOL    HW245633   4.647  10.897   6.885
81246SOL     OW45634  12.409   2.915  12.281
81246SOL    HW145635  12.376   2.897  12.192
81246SOL    HW245636  12.504   2.920  12.271
81247SOL     OW45637  14.582   3.810   9.714
81247SOL    HW145638  14.551   3.724   9.686
81247SOL    HW245639  14.558   3.870   9.643
81248SOL     OW45640  11.583   5.453   6.224
81248SOL    HW145641  11.529   5.433   6.147
81248SOL    HW245642  11.573   5.376   6.280
81249SOL     OW45643  12.679  11.752   5.279
81249SOL    HW145644  12.615  11.771   5.211
81249SOL    HW245645  12.645  11.674   5.323
81250SOL     OW45646  12.545  12.078  14.581
81250SOL    HW145647  12.472  12.133  14.610
81250SOL    HW245648  12.621  12.114  14.626
81251SOL     OW45649  10.240   9.187   3.957
81251SOL    HW145650  10.288   9.188   4.039
81251SOL    HW245651  10.307   9.182   3.889
81252SOL     OW45652   8.927   3.604   8.958
81252SOL    HW145653   8.986   3.604   8.882
81252SOL    HW245654   8.903   3.512   8.969
81253SOL     OW45655   7.451   7.414  10.147
81253SOL    HW145656   7.464   7.319  10.152
81253SOL    HW245657   7.473   7.436  10.057
81254SOL     OW45658   0.112   3.704  13.298
81254SOL    HW145659   0.068   3.782  13.331
81254SOL    HW245660   0.099   3.638  13.366
81255SOL     OW45661   4.436   0.225   8.778
81255SOL    HW145662   4.496   0.193   8.710
81255SOL    HW245663   4.388   0.147   8.806
81256SOL     OW45664   7.524  13.854   6.622
81256SOL    HW145665   7.580  13.784   6.656
81256SOL    HW245666   7.487  13.895   6.700
81257SOL     OW45667   5.307  14.121  11.450
81257SOL    HW145668   5.351  14.178  11.512
81257SOL    HW245669   5.373  14.054  11.428
81258SOL     OW45670   7.524   3.503  11.708
81258SOL    HW145671   7.582   3.436  11.672
81258SOL    HW245672   7.437   3.465  11.703
81259SOL     OW45673  14.853   9.604   7.522
81259SOL    HW145674  14.855   9.688   7.476
81259SOL    HW245675  14.807   9.622   7.604
81260SOL     OW45676  14.347  14.402  11.122
81260SOL    HW145677  14.438  14.375  11.134
81260SOL    HW245678  14.329  14.385  11.030
81261SOL     OW45679  11.535   2.938   3.090
81261SOL    HW145680  11.562   3.013   3.038
81261SOL    HW245681  11.474   2.974   3.154
81262SOL     OW45682  10.461  12.436   9.716
81262SOL    HW145683  10.450  12.520   9.670
81262SOL    HW245684  10.374  12.395   9.711
81263SOL     OW45685   0.891   6.191   7.790
81263SOL    HW145686   0.949   6.116   7.799
81263SOL    HW245687   0.884   6.227   7.878
81264SOL     OW45688   0.619  10.101   3.654
81264SOL    HW145689   0.651  10.014   3.676
81264SOL    HW245690   0.658  10.121   3.569
81265SOL     OW45691  12.909  10.328  11.886
81265SOL    HW145692  13.001  10.344  11.908
81265SOL    HW245693  12.863  10.330  11.970
81266SOL     OW45694  10.223  10.904  10.779
81266SOL    HW145695  10.130  10.925  10.771
81266SOL    HW245696  10.255  10.963  10.847
81267SOL     OW45697   9.134  13.061  13.524
81267SOL    HW145698   9.156  13.115  13.599
81267SOL    HW245699   9.218  13.028  13.491
81268SOL     OW45700   1.443   4.336   5.655
81268SOL    HW145701   1.396   4.254   5.641
81268SOL    HW245702   1.375   4.403   5.658
81269SOL     OW45703   6.744   3.603   7.590
81269SOL    HW145704   6.687   3.620   7.515
81269SOL    HW245705   6.822   3.657   7.573
81270SOL     OW45706   7.196   0.661   5.359
81270SOL    HW145707   7.156   0.731   5.308
81270SOL    HW245708   7.287   0.687   5.370
81271SOL     OW45709  14.600   3.326   5.168
81271SOL    HW145710  14.626   3.280   5.247
81271SOL    HW245711  14.674   3.382   5.146
81272SOL     OW45712  12.967   4.440   2.023
81272SOL    HW145713  12.936   4.510   1.966
81272SOL    HW245714  12.999   4.372   1.963
81273SOL     OW45715   4.572   6.348   5.203
81273SOL    HW145716   4.481   6.359   5.176
81273SOL    HW245717   4.568   6.282   5.272
81274SOL     OW45718   8.570   4.680   1.907
81274SOL    HW145719   8.550   4.635   1.989
81274SOL    HW245720   8.589   4.610   1.845
81275SOL     OW45721   1.242   6.146  14.320
81275SOL    HW145722   1.283   6.105  14.244
81275SOL    HW245723   1.284   6.231  14.327
81276SOL     OW45724   2.120  10.200  13.880
81276SOL    HW145725   2.189  10.134  13.882
81276SOL    HW245726   2.054  10.169  13.942
81277SOL     OW45727   1.935   0.298  12.342
81277SOL    HW145728   1.978   0.343  12.269
81277SOL    HW245729   1.963   0.346  12.419
81278SOL     OW45730   1.986   4.493   1.611
81278SOL    HW145731   1.917   4.468   1.673
81278SOL    HW245732   2.014   4.411   1.571
81279SOL     OW45733  13.320   6.294  12.156
81279SOL    HW145734  13.338   6.374  12.205
81279SOL    HW245735  13.396   6.238  12.174
81280SOL     OW45736   5.330  12.209   4.533
81280SOL    HW145737   5.318  12.134   4.474
81280SOL    HW245738   5.335  12.285   4.474
81281SOL     OW45739   3.631  10.470  13.460
81281SOL    HW145740   3.682  10.390  13.444
81281SOL    HW245741   3.567  10.444  13.526
81282SOL     OW45742   7.341   8.730   7.954
81282SOL    HW145743   7.273   8.774   8.004
81282SOL    HW245744   7.330   8.637   7.975
81283SOL     OW45745  12.274  10.083   8.867
81283SOL    HW145746  12.244  10.070   8.777
81283SOL    HW245747  12.228  10.161   8.897
81284SOL     OW45748   8.601  12.168  12.701
81284SOL    HW145749   8.606  12.263  12.708
81284SOL    HW245750   8.514  12.147  12.734
81285SOL     OW45751   3.952   5.340  12.336
81285SOL    HW145752   3.977   5.417  12.287
81285SOL    HW245753   3.960   5.366  12.428
81286SOL     OW45754   5.413   0.911   3.230
81286SOL    HW145755   5.328   0.940   3.198
81286SOL    HW245756   5.473   0.983   3.209
81287SOL     OW45757   3.270   4.947  10.975
81287SOL    HW145758   3.184   4.974  10.944
81287SOL    HW245759   3.258   4.933  11.069
81288SOL     OW45760  10.364   7.025   5.843
81288SOL    HW145761  10.456   7.046   5.828
81288SOL    HW245762  10.318   7.062   5.768
81289SOL     OW45763   4.152  12.355   2.060
81289SOL    HW145764   4.146  12.445   2.026
81289SOL    HW245765   4.200  12.364   2.142
81290SOL     OW45766  13.431   7.002  13.828
81290SOL    HW145767  13.436   7.029  13.736
81290SOL    HW245768  13.380   7.071  13.871
81291SOL     OW45769  14.101  12.295   0.263
81291SOL    HW145770  14.180  12.332   0.302
81291SOL    HW245771  14.031  12.357   0.286
81292SOL     OW45772   2.328   0.473  10.118
81292SOL    HW145773   2.264   0.442  10.181
81292SOL    HW245774   2.281   0.534  10.062
81293SOL     OW45775   8.657   5.205   5.727
81293SOL    HW145776   8.750   5.186   5.740
81293SOL    HW245777   8.640   5.282   5.781
81294SOL     OW45778   1.658  12.731   1.928
81294SOL    HW145779   1.739  12.685   1.906
81294SOL    HW245780   1.590  12.681   1.881
81295SOL     OW45781   1.359   7.122   2.773
81295SOL    HW145782   1.401   7.051   2.724
81295SOL    HW245783   1.349   7.088   2.862
81296SOL     OW45784   1.863   9.599  13.856
81296SOL    HW145785   1.829   9.540  13.789
81296SOL    HW245786   1.787   9.648  13.887
81297SOL     OW45787   3.810   1.456   4.471
81297SOL    HW145788   3.904   1.445   4.457
81297SOL    HW245789   3.772   1.371   4.452
81298SOL     OW45790  11.507   5.745  14.337
81298SOL    HW145791  11.414   5.761  14.349
81298SOL    HW245792  11.517   5.727  14.244
81299SOL     OW45793   2.767   0.338  13.508
81299SOL    HW145794   2.683   0.339  13.463
81299SOL    HW245795   2.753   0.389  13.588
81300SOL     OW45796   7.001   8.247   8.781
81300SOL    HW145797   7.043   8.326   8.815
81300SOL    HW245798   6.963   8.205   8.859
81301SOL     OW45799   1.981   9.082   1.487
81301SOL    HW145800   2.020   8.996   1.505
81301SOL    HW245801   1.887   9.065   1.481
81302SOL     OW45802   4.940   4.004  14.530
81302SOL    HW145803   5.035   4.004  14.518
81302SOL    HW245804   4.915   4.097  14.524
81303SOL     OW45805  10.418   5.361   0.937
81303SOL    HW145806  10.413   5.315   0.853
81303SOL    HW245807  10.510   5.354   0.962
81304SOL     OW45808  10.631  10.360   4.161
81304SOL    HW145809  10.578  10.436   4.183
81304SOL    HW245810  10.597  10.331   4.076
81305SOL     OW45811   3.054   7.277  12.550
81305SOL    HW145812   3.141   7.317  12.557
81305SOL    HW245813   2.999   7.329  12.608
81306SOL     OW45814  14.116   6.729  13.837
81306SOL    HW145815  14.040   6.707  13.784
81306SOL    HW245816  14.095   6.813  13.877
81307SOL     OW45817   9.913   0.300  12.841
81307SOL    HW145818  10.006   0.321  12.844
81307SOL    HW245819   9.888   0.310  12.749
81308SOL     OW45820  11.324  10.020   6.271
81308SOL    HW145821  11.361  10.061   6.349
81308SOL    HW245822  11.336  10.084   6.202
81309SOL     OW45823   8.788  10.922   3.685
81309SOL    HW145824   8.745  10.973   3.616
81309SOL    HW245825   8.878  10.955   3.687
81310SOL     OW45826  10.039   2.045  11.925
81310SOL    HW145827  10.088   1.969  11.957
81310SOL    HW245828  10.106   2.107  11.898
81311SOL     OW45829  10.581   4.631   9.075
81311SOL    HW145830  10.547   4.585   9.152
81311SOL    HW245831  10.503   4.662   9.029
81312SOL     OW45832  13.780   1.517   8.040
81312SOL    HW145833  13.840   1.444   8.022
81312SOL    HW245834  13.803   1.583   7.975
81313SOL     OW45835   1.448   4.304   4.111
81313SOL    HW145836   1.493   4.248   4.175
81313SOL    HW245837   1.359   4.312   4.146
81314SOL     OW45838  10.682   1.408   5.461
81314SOL    HW145839  10.745   1.338   5.478
81314SOL    HW245840  10.606   1.364   5.423
81315SOL     OW45841   7.980   2.247   0.198
81315SOL    HW145842   7.979   2.286   0.286
81315SOL    HW245843   7.888   2.246   0.171
81316SOL     OW45844  10.621   0.403   1.820
81316SOL    HW145845  10.574   0.359   1.890
81316SOL    HW245846  10.569   0.384   1.741
81317SOL     OW45847   3.114   9.949  12.285
81317SOL    HW145848   3.137   9.992  12.368
81317SOL    HW245849   3.049  10.007  12.245
81318SOL     OW45850   7.212   8.579  14.093
81318SOL    HW145851   7.203   8.654  14.152
81318SOL    HW245852   7.236   8.506  14.150
81319SOL     OW45853  11.162   6.620  10.943
81319SOL    HW145854  11.068   6.603  10.952
81319SOL    HW245855  11.181   6.601  10.851
81320SOL     OW45856   2.333   0.180   2.850
81320SOL    HW145857   2.286   0.153   2.771
81320SOL    HW245858   2.337   0.275   2.844
81321SOL     OW45859   6.324  14.241   7.905
81321SOL    HW145860   6.396  14.204   7.955
81321SOL    HW245861   6.260  14.267   7.971
81322SOL     OW45862   5.707   2.147   1.871
81322SOL    HW145863   5.764   2.194   1.811
81322SOL    HW245864   5.746   2.059   1.876
81323SOL     OW45865  10.626   8.082   8.375
81323SOL    HW145866  10.604   8.009   8.433
81323SOL    HW245867  10.546   8.096   8.324
81324SOL     OW45868  11.166  14.058   9.848
81324SOL    HW145869  11.090  14.080   9.903
81324SOL    HW245870  11.223  14.008   9.906
81325SOL     OW45871  10.056  13.003  13.274
81325SOL    HW145872  10.064  13.097  13.290
81325SOL    HW245873  10.061  12.963  13.360
81326SOL     OW45874   6.451  10.411   0.443
81326SOL    HW145875   6.524  10.427   0.502
81326SOL    HW245876   6.373  10.432   0.494
81327SOL     OW45877   8.080  13.538   6.942
81327SOL    HW145878   8.119  13.625   6.934
81327SOL    HW245879   8.097  13.512   7.032
81328SOL     OW45880  10.098   9.840   5.668
81328SOL    HW145881  10.044   9.833   5.747
81328SOL    HW245882  10.035   9.832   5.595
81329SOL     OW45883   8.299   3.997  10.701
81329SOL    HW145884   8.304   4.079  10.749
81329SOL    HW245885   8.285   4.024  10.610
81330SOL     OW45886   3.064   0.225   6.998
81330SOL    HW145887   3.112   0.214   7.080
81330SOL    HW245888   3.095   0.309   6.963
81331SOL     OW45889   6.685   2.150   2.510
81331SOL    HW145890   6.758   2.199   2.547
81331SOL    HW245891   6.651   2.206   2.440
81332SOL     OW45892   4.496  11.269   3.356
81332SOL    HW145893   4.584  11.295   3.328
81332SOL    HW245894   4.480  11.186   3.310
81333SOL     OW45895  14.652   8.365   8.454
81333SOL    HW145896  14.707   8.304   8.504
81333SOL    HW245897  14.715   8.426   8.414
81334SOL     OW45898   4.003  12.124   1.338
81334SOL    HW145899   3.951  12.190   1.292
81334SOL    HW245900   3.953  12.043   1.328
81335SOL     OW45901   6.274   8.704  12.179
81335SOL    HW145902   6.298   8.681  12.089
81335SOL    HW245903   6.322   8.784  12.198
81336SOL     OW45904  14.083   7.476  10.207
81336SOL    HW145905  13.991   7.449  10.210
81336SOL    HW245906  14.085   7.560  10.253
81337SOL     OW45907   4.982   5.236   9.641
81337SOL    HW145908   5.053   5.294   9.669
81337SOL    HW245909   4.919   5.295   9.600
81338SOL     OW45910   9.840  11.787   8.806
81338SOL    HW145911   9.876  11.819   8.724
81338SOL    HW245912   9.896  11.714   8.831
81339SOL     OW45913   0.949   1.460   9.378
81339SOL    HW145914   0.898   1.462   9.297
81339SOL    HW245915   1.021   1.400   9.359
81340SOL     OW45916   0.709   9.478   0.501
81340SOL    HW145917   0.690   9.388   0.527
81340SOL    HW245918   0.804   9.479   0.489
81341SOL     OW45919  13.488  13.164   0.382
81341SOL    HW145920  13.567  13.181   0.332
81341SOL    HW245921  13.492  13.071   0.403
81342SOL     OW45922   6.613  11.589   4.101
81342SOL    HW145923   6.590  11.668   4.052
81342SOL    HW245924   6.530  11.546   4.119
81343SOL     OW45925   7.619   1.569   3.481
81343SOL    HW145926   7.594   1.606   3.566
81343SOL    HW245927   7.650   1.644   3.430
81344SOL     OW45928   3.469   0.340   2.452
81344SOL    HW145929   3.442   0.394   2.526
81344SOL    HW245930   3.508   0.401   2.391
81345SOL     OW45931  12.696   0.053  11.192
81345SOL    HW145932  12.755   0.029  11.121
81345SOL    HW245933  12.648   0.129  11.159
81346SOL     OW45934   3.255   9.619   9.204
81346SOL    HW145935   3.311   9.544   9.186
81346SOL    HW245936   3.166   9.588   9.189
81347SOL     OW45937  12.427   3.732   2.791
81347SOL    HW145938  12.379   3.668   2.738
81347SOL    HW245939  12.492   3.680   2.838
81348SOL     OW45940   7.986  10.523  10.260
81348SOL    HW145941   7.954  10.595  10.205
81348SOL    HW245942   7.908  10.491  10.305
81349SOL     OW45943  10.352   7.787   8.785
81349SOL    HW145944  10.432   7.800   8.836
81349SOL    HW245945  10.378   7.724   8.717
81350SOL     OW45946  11.635   2.446   0.588
81350SOL    HW145947  11.628   2.506   0.514
81350SOL    HW245948  11.572   2.479   0.652
81351SOL     OW45949   6.672  12.515   4.562
81351SOL    HW145950   6.581  12.540   4.552
81351SOL    HW245951   6.718  12.598   4.579
81352SOL     OW45952   4.830  12.592   5.168
81352SOL    HW145953   4.894  12.658   5.193
81352SOL    HW245954   4.781  12.631   5.096
81353SOL     OW45955   0.097   8.639  11.845
81353SOL    HW145956   0.096   8.590  11.763
81353SOL    HW245957   0.135   8.578  11.909
81354SOL     OW45958  10.349   1.749   4.843
81354SOL    HW145959  10.292   1.816   4.805
81354SOL    HW245960  10.322   1.667   4.801
81355SOL     OW45961   8.685   3.869   2.104
81355SOL    HW145962   8.682   3.785   2.148
81355SOL    HW245963   8.616   3.921   2.146
81356SOL     OW45964   6.852   7.203  14.325
81356SOL    HW145965   6.776   7.215  14.268
81356SOL    HW245966   6.923   7.179  14.265
81357SOL     OW45967  10.791   1.910  12.804
81357SOL    HW145968  10.816   1.864  12.884
81357SOL    HW245969  10.810   1.848  12.734
81358SOL     OW45970   2.079   5.919   4.340
81358SOL    HW145971   2.037   5.944   4.258
81358SOL    HW245972   2.060   5.991   4.400
81359SOL     OW45973   5.450  10.136   6.008
81359SOL    HW145974   5.493  10.221   6.003
81359SOL    HW245975   5.429  10.125   6.101
81360SOL     OW45976   4.044  10.482   1.668
81360SOL    HW145977   4.096  10.416   1.622
81360SOL    HW245978   4.068  10.565   1.625
81361SOL     OW45979  11.515   6.506   4.564
81361SOL    HW145980  11.588   6.512   4.502
81361SOL    HW245981  11.545   6.555   4.641
81362SOL     OW45982  12.756   6.668   1.137
81362SOL    HW145983  12.846   6.683   1.106
81362SOL    HW245984  12.732   6.584   1.100
81363SOL     OW45985   1.779   7.419   0.942
81363SOL    HW145986   1.704   7.472   0.972
81363SOL    HW245987   1.810   7.465   0.864
81364SOL     OW45988   2.339   5.715  13.362
81364SOL    HW145989   2.314   5.781  13.426
81364SOL    HW245990   2.284   5.639  13.382
81365SOL     OW45991   4.836  12.254   4.540
81365SOL    HW145992   4.926  12.242   4.570
81365SOL    HW245993   4.841  12.323   4.474
81366SOL     OW45994  10.538   8.752  10.616
81366SOL    HW145995  10.604   8.682  10.618
81366SOL    HW245996  10.527   8.777  10.708
81367SOL     OW45997   9.520   2.711   6.900
81367SOL    HW145998   9.567   2.653   6.841
81367SOL    HW245999   9.437   2.729   6.856
81368SOL     OW46000   9.429   9.138  12.049
81368SOL    HW146001   9.411   9.118  11.957
81368SOL    HW246002   9.353   9.187  12.079
81369SOL     OW46003   5.612  12.103   5.566
81369SOL    HW146004   5.656  12.136   5.645
81369SOL    HW246005   5.631  12.009   5.567
81370SOL     OW46006   1.359   7.074   0.312
81370SOL    HW146007   1.367   7.162   0.349
81370SOL    HW246008   1.449   7.049   0.290
81371SOL     OW46009   8.232   5.628   2.167
81371SOL    HW146010   8.317   5.656   2.201
81371SOL    HW246011   8.244   5.624   2.072
81372SOL     OW46012   3.480   8.302   1.952
81372SOL    HW146013   3.564   8.338   1.979
81372SOL    HW246014   3.417   8.372   1.965
81373SOL     OW46015   4.143   6.435  10.136
81373SOL    HW146016   4.075   6.436  10.069
81373SOL    HW246017   4.208   6.498  10.105
81374SOL     OW46018   3.985  10.642  13.088
81374SOL    HW146019   3.954  10.642  12.997
81374SOL    HW246020   3.945  10.565  13.127
81375SOL     OW46021  10.130   9.711   6.991
81375SOL    HW146022  10.102   9.801   6.972
81375SOL    HW246023  10.120   9.664   6.908
81376SOL     OW46024   3.445  12.349   8.210
81376SOL    HW146025   3.369  12.399   8.180
81376SOL    HW246026   3.506  12.351   8.136
81377SOL     OW46027  14.478   7.026   2.058
81377SOL    HW146028  14.512   7.028   1.969
81377SOL    HW246029  14.487   6.935   2.086
81378SOL     OW46030   0.041   2.109  11.527
81378SOL    HW146031   0.115   2.059  11.492
81378SOL    HW246032  14.847   2.054  11.510
81379SOL     OW46033   7.289   4.419   3.207
81379SOL    HW146034   7.301   4.354   3.138
81379SOL    HW246035   7.258   4.368   3.282
81380SOL     OW46036   7.065   6.518   9.267
81380SOL    HW146037   7.082   6.424   9.255
81380SOL    HW246038   7.151   6.556   9.284
81381SOL     OW46039   6.911   0.960   6.805
81381SOL    HW146040   6.894   0.970   6.899
81381SOL    HW246041   7.006   0.946   6.800
81382SOL     OW46042   5.094   8.672   3.565
81382SOL    HW146043   5.043   8.654   3.644
81382SOL    HW246044   5.165   8.608   3.567
81383SOL     OW46045   8.060  12.254  13.278
81383SOL    HW146046   8.017  12.176  13.241
81383SOL    HW246047   7.988  12.313  13.301
81384SOL     OW46048   7.682   5.282  12.524
81384SOL    HW146049   7.619   5.340  12.482
81384SOL    HW246050   7.743   5.258  12.454
81385SOL     OW46051   2.485   0.144   4.712
81385SOL    HW146052   2.578   0.144   4.691
81385SOL    HW246053   2.455   0.232   4.688
81386SOL     OW46054  10.063   9.961   1.693
81386SOL    HW146055  10.078   9.933   1.602
81386SOL    HW246056  10.121   9.906   1.745
81387SOL     OW46057   6.794   6.271  10.415
81387SOL    HW146058   6.770   6.273  10.508
81387SOL    HW246059   6.799   6.178  10.393
81388SOL     OW46060   5.252   4.447   3.549
81388SOL    HW146061   5.302   4.511   3.599
81388SOL    HW246062   5.160   4.471   3.565
81389SOL     OW46063   7.285   9.706   5.599
81389SOL    HW146064   7.253   9.736   5.514
81389SOL    HW246065   7.211   9.658   5.637
81390SOL     OW46066   7.907  13.798   5.304
81390SOL    HW146067   7.828  13.843   5.274
81390SOL    HW246068   7.887  13.773   5.395
81391SOL     OW46069   5.451   3.458   0.196
81391SOL    HW146070   5.445   3.487   0.286
81391SOL    HW246071   5.493   3.372   0.201
81392SOL     OW46072   1.464   0.829   9.021
81392SOL    HW146073   1.476   0.840   8.927
81392SOL    HW246074   1.409   0.751   9.030
81393SOL     OW46075   2.337  13.513   9.618
81393SOL    HW146076   2.393  13.437   9.602
81393SOL    HW246077   2.371  13.581   9.559
81394SOL     OW46078   4.260   1.546   9.862
81394SOL    HW146079   4.202   1.579   9.794
81394SOL    HW246080   4.298   1.467   9.825
81395SOL     OW46081  13.775  13.806  11.777
81395SOL    HW146082  13.739  13.729  11.821
81395SOL    HW246083  13.859  13.821  11.820
81396SOL     OW46084  12.582   2.803   8.020
81396SOL    HW146085  12.516   2.828   8.085
81396SOL    HW246086  12.631   2.884   8.005
81397SOL     OW46087  10.503   3.161   3.092
81397SOL    HW146088  10.451   3.101   3.039
81397SOL    HW246089  10.585   3.171   3.043
81398SOL     OW46090   7.798   2.311   5.720
81398SOL    HW146091   7.854   2.384   5.693
81398SOL    HW246092   7.786   2.259   5.641
81399SOL     OW46093   3.693  14.044   9.594
81399SOL    HW146094   3.688  14.063   9.687
81399SOL    HW246095   3.664  14.125   9.551
81400SOL     OW46096   9.507   2.543   5.169
81400SOL    HW146097   9.585   2.580   5.211
81400SOL    HW246098   9.499   2.591   5.086
81401SOL     OW46099   6.497   9.410   2.142
81401SOL    HW146100   6.429   9.348   2.167
81401SOL    HW246101   6.464   9.495   2.170
81402SOL     OW46102   9.593  12.408   5.389
81402SOL    HW146103   9.605  12.480   5.327
81402SOL    HW246104   9.665  12.348   5.370
81403SOL     OW46105  14.369   1.937   8.175
81403SOL    HW146106  14.369   1.844   8.196
81403SOL    HW246107  14.288   1.971   8.212
81404SOL     OW46108  11.087   6.511  10.424
81404SOL    HW146109  11.028   6.532  10.352
81404SOL    HW246110  11.036   6.456  10.483
81405SOL     OW46111  14.206   3.374   1.264
81405SOL    HW146112  14.285   3.420   1.290
81405SOL    HW246113  14.236   3.289   1.232
81406SOL     OW46114   1.507  11.095  13.325
81406SOL    HW146115   1.512  11.042  13.405
81406SOL    HW246116   1.428  11.062  13.281
81407SOL     OW46117   5.716   2.268  14.444
81407SOL    HW146118   5.695   2.253  14.536
81407SOL    HW246119   5.632   2.260  14.399
81408SOL     OW46120  13.024   3.037   8.728
81408SOL    HW146121  13.116   3.019   8.711
81408SOL    HW246122  13.018   3.051   8.822
81409SOL     OW46123   3.053   5.657  14.835
81409SOL    HW146124   3.148   5.657  14.823
81409SOL    HW246125   3.030   5.565  14.845
81410SOL     OW46126  14.727  11.362   0.574
81410SOL    HW146127  14.811  11.360   0.619
81410SOL    HW246128  14.740  11.310   0.495
81411SOL     OW46129   0.777   4.385   1.554
81411SOL    HW146130   0.791   4.324   1.626
81411SOL    HW246131   0.825   4.464   1.579
81412SOL     OW46132  12.039  11.322   6.984
81412SOL    HW146133  12.096  11.399   6.996
81412SOL    HW246134  11.980  11.324   7.060
81413SOL     OW46135  11.557   6.699   4.271
81413SOL    HW146136  11.647   6.678   4.297
81413SOL    HW246137  11.526   6.756   4.341
81414SOL     OW46138  14.405   0.608   4.989
81414SOL    HW146139  14.465   0.538   5.015
81414SOL    HW246140  14.340   0.610   5.059
81415SOL     OW46141   5.380   0.389   1.210
81415SOL    HW146142   5.435   0.324   1.254
81415SOL    HW246143   5.291   0.367   1.238
81416SOL     OW46144  14.787   7.814   5.786
81416SOL    HW146145  14.845   7.739   5.799
81416SOL    HW246146  14.835   7.871   5.726
81417SOL     OW46147   5.922   4.231  11.792
81417SOL    HW146148   5.944   4.287  11.717
81417SOL    HW246149   5.864   4.164  11.756
81418SOL     OW46150   9.239   0.330   6.404
81418SOL    HW146151   9.282   0.297   6.326
81418SOL    HW246152   9.150   0.353   6.375
81419SOL     OW46153  10.798   9.167   5.450
81419SOL    HW146154  10.814   9.165   5.544
81419SOL    HW246155  10.815   9.257   5.424
81420SOL     OW46156   0.394  13.920   0.191
81420SOL    HW146157   0.451  13.844   0.197
81420SOL    HW246158   0.307  13.883   0.173
81421SOL     OW46159  11.289  12.414  11.137
81421SOL    HW146160  11.294  12.369  11.221
81421SOL    HW246161  11.377  12.450  11.124
81422SOL     OW46162  14.230  12.832   1.655
81422SOL    HW146163  14.160  12.768   1.643
81422SOL    HW246164  14.184  12.913   1.678
81423SOL     OW46165   8.106  13.412   3.935
81423SOL    HW146166   8.127  13.457   4.017
81423SOL    HW246167   8.039  13.467   3.894
81424SOL     OW46168  10.417   2.339   1.719
81424SOL    HW146169  10.350   2.311   1.656
81424SOL    HW246170  10.402   2.284   1.796
81425SOL     OW46171   0.703  11.468   4.856
81425SOL    HW146172   0.724  11.558   4.883
81425SOL    HW246173   0.730  11.463   4.765
81426SOL     OW46174  12.372   9.963   2.634
81426SOL    HW146175  12.459   9.952   2.672
81426SOL    HW246176  12.320  10.003   2.703
81427SOL     OW46177  10.582  11.558  13.980
81427SOL    HW146178  10.592  11.650  13.954
81427SOL    HW246179  10.630  11.509  13.913
81428SOL     OW46180   8.577   5.334  11.919
81428SOL    HW146181   8.556   5.289  11.837
81428SOL    HW246182   8.591   5.264  11.982
81429SOL     OW46183   3.754  12.672  10.856
81429SOL    HW146184   3.811  12.616  10.909
81429SOL    HW246185   3.797  12.757  10.858
81430SOL     OW46186   2.078   1.214   8.524
81430SOL    HW146187   2.046   1.300   8.548
81430SOL    HW246188   2.162   1.231   8.480
81431SOL     OW46189   1.083   5.976   8.512
81431SOL    HW146190   1.101   6.067   8.490
81431SOL    HW246191   0.997   5.978   8.555
81432SOL     OW46192   8.226   0.390   5.932
81432SOL    HW146193   8.284   0.464   5.951
81432SOL    HW246194   8.204   0.353   6.018
81433SOL     OW46195  12.003   0.900   9.395
81433SOL    HW146196  12.078   0.899   9.336
81433SOL    HW246197  12.034   0.949   9.471
81434SOL     OW46198  13.749  12.649   1.001
81434SOL    HW146199  13.733  12.556   0.988
81434SOL    HW246200  13.814  12.673   0.935
81435SOL     OW46201   8.928   5.641   7.240
81435SOL    HW146202   8.967   5.724   7.265
81435SOL    HW246203   8.913   5.648   7.146
81436SOL     OW46204  12.194   9.675   4.687
81436SOL    HW146205  12.156   9.707   4.605
81436SOL    HW246206  12.250   9.747   4.717
81437SOL     OW46207  12.562  13.057  14.825
81437SOL    HW146208  12.522  13.071  14.739
81437SOL    HW246209  12.651  13.093  14.817
81438SOL     OW46210   7.858  12.329   8.274
81438SOL    HW146211   7.791  12.288   8.220
81438SOL    HW246212   7.923  12.361   8.211
81439SOL     OW46213   7.863  13.011   9.677
81439SOL    HW146214   7.842  12.990   9.768
81439SOL    HW246215   7.828  12.937   9.627
81440SOL     OW46216  11.939   8.306   4.245
81440SOL    HW146217  11.853   8.347   4.247
81440SOL    HW246218  11.960   8.296   4.152
81441SOL     OW46219  12.365   7.202  13.408
81441SOL    HW146220  12.287   7.251  13.431
81441SOL    HW246221  12.334   7.131  13.352
81442SOL     OW46222  11.799  11.743   8.427
81442SOL    HW146223  11.718  11.793   8.442
81442SOL    HW246224  11.806  11.738   8.332
81443SOL     OW46225   3.453   8.893  14.280
81443SOL    HW146226   3.485   8.856  14.362
81443SOL    HW246227   3.379   8.948  14.306
81444SOL     OW46228   1.423   6.407   2.558
81444SOL    HW146229   1.397   6.471   2.492
81444SOL    HW246230   1.484   6.455   2.615
81445SOL     OW46231   3.270   4.664   0.045
81445SOL    HW146232   3.234   4.601  14.865
81445SOL    HW246233   3.259   4.749   0.002
81446SOL     OW46234  14.142  11.149   5.714
81446SOL    HW146235  14.219  11.154   5.771
81446SOL    HW246236  14.070  11.127   5.772
81447SOL     OW46237   0.157   9.195  12.794
81447SOL    HW146238   0.203   9.279  12.800
81447SOL    HW246239   0.073   9.211  12.837
81448SOL     OW46240   9.434   5.186   9.219
81448SOL    HW146241   9.464   5.156   9.305
81448SOL    HW246242   9.500   5.152   9.158
81449SOL     OW46243   9.723  14.189   7.981
81449SOL    HW146244   9.786  14.180   8.052
81449SOL    HW246245   9.638  14.196   8.025
81450SOL     OW46246   8.877   0.277  13.957
81450SOL    HW146247   8.841   0.319  13.879
81450SOL    HW246248   8.829   0.195  13.964
81451SOL     OW46249   6.966   6.899   0.242
81451SOL    HW146250   7.015   6.940   0.171
81451SOL    HW246251   6.888   6.954   0.252
81452SOL     OW46252   2.102  11.182  14.858
81452SOL    HW146253   2.053  11.150  14.782
81452SOL    HW246254   2.190  11.147  14.846
81453SOL     OW46255   7.782   3.590   8.864
81453SOL    HW146256   7.874   3.583   8.889
81453SOL    HW246257   7.782   3.643   8.784
81454SOL     OW46258   9.042   1.376  10.764
81454SOL    HW146259   9.049   1.460  10.809
81454SOL    HW246260   9.106   1.320  10.808
81455SOL     OW46261   7.296   9.513  10.793
81455SOL    HW146262   7.358   9.470  10.733
81455SOL    HW246263   7.351   9.562  10.854
81456SOL     OW46264  12.251   7.598   6.955
81456SOL    HW146265  12.170   7.547   6.964
81456SOL    HW246266  12.263   7.640   7.040
81457SOL     OW46267  14.552   2.303  14.630
81457SOL    HW146268  14.495   2.357  14.684
81457SOL    HW246269  14.575   2.359  14.556
81458SOL     OW46270  10.427  11.066   5.857
81458SOL    HW146271  10.488  11.055   5.784
81458SOL    HW246272  10.466  11.136   5.910
81459SOL     OW46273   3.057   4.256   0.276
81459SOL    HW146274   3.004   4.314   0.332
81459SOL    HW246275   3.137   4.242   0.325
81460SOL     OW46276   5.655   8.942   2.789
81460SOL    HW146277   5.594   8.870   2.800
81460SOL    HW246278   5.600   9.017   2.764
81461SOL     OW46279  10.813   1.259  12.256
81461SOL    HW146280  10.826   1.175  12.301
81461SOL    HW246281  10.888   1.267  12.198
81462SOL     OW46282  14.763  12.687  11.325
81462SOL    HW146283  14.843  12.641  11.300
81462SOL    HW246284  14.769  12.695  11.420
81463SOL     OW46285   4.022   3.217   0.370
81463SOL    HW146286   3.971   3.185   0.445
81463SOL    HW246287   4.023   3.143   0.309
81464SOL     OW46288   0.005  13.438  11.321
81464SOL    HW146289   0.006  13.511  11.384
81464SOL    HW246290  14.817  13.381  11.353
81465SOL     OW46291  14.258   6.231  10.083
81465SOL    HW146292  14.251   6.236   9.988
81465SOL    HW246293  14.351   6.248  10.101
81466SOL     OW46294  11.064   2.772   0.123
81466SOL    HW146295  11.110   2.853   0.101
81466SOL    HW246296  10.988   2.801   0.173
81467SOL     OW46297   4.798   5.061  12.025
81467SOL    HW146298   4.887   5.029  12.007
81467SOL    HW246299   4.761   5.077  11.938
81468SOL     OW46300  10.945  11.511  11.225
81468SOL    HW146301  10.909  11.428  11.195
81468SOL    HW246302  10.958  11.562  11.146
81469SOL     OW46303   4.247  14.253  10.953
81469SOL    HW146304   4.279  14.271  10.865
81469SOL    HW246305   4.314  14.197  10.992
81470SOL     OW46306   0.408   1.289   2.204
81470SOL    HW146307   0.320   1.321   2.188
81470SOL    HW246308   0.406   1.258   2.294
81471SOL     OW46309   6.568   1.568  11.545
81471SOL    HW146310   6.557   1.576  11.450
81471SOL    HW246311   6.494   1.515  11.573
81472SOL     OW46312  11.345   7.628  13.651
81472SOL    HW146313  11.303   7.678  13.581
81472SOL    HW246314  11.433   7.664  13.656
81473SOL     OW46315  10.533   5.680   2.228
81473SOL    HW146316  10.570   5.735   2.297
81473SOL    HW246317  10.601   5.615   2.210
81474SOL     OW46318  13.512  13.467   5.927
81474SOL    HW146319  13.449  13.520   5.976
81474SOL    HW246320  13.546  13.527   5.860
81475SOL     OW46321  13.925   5.407   4.143
81475SOL    HW146322  13.898   5.401   4.051
81475SOL    HW246323  13.898   5.494   4.170
81476SOL     OW46324  14.441   1.489   9.607
81476SOL    HW146325  14.468   1.553   9.541
81476SOL    HW246326  14.367   1.530   9.652
81477SOL     OW46327  13.581   5.590   1.054
81477SOL    HW146328  13.578   5.642   1.134
81477SOL    HW246329  13.507   5.621   1.002
81478SOL     OW46330   4.746  10.034   6.386
81478SOL    HW146331   4.797  10.115   6.384
81478SOL    HW246332   4.725  10.016   6.294
81479SOL     OW46333   7.874   0.481   5.221
81479SOL    HW146334   7.859   0.394   5.183
81479SOL    HW246335   7.953   0.512   5.177
81480SOL     OW46336   2.408   0.354  10.740
81480SOL    HW146337   2.330   0.410  10.742
81480SOL    HW246338   2.479   0.413  10.716
81481SOL     OW46339   4.150   1.500  10.717
81481SOL    HW146340   4.148   1.521  10.810
81481SOL    HW246341   4.089   1.562  10.676
81482SOL     OW46342  14.738   7.883   0.389
81482SOL    HW146343  14.757   7.880   0.295
81482SOL    HW246344  14.743   7.976   0.411
81483SOL     OW46345  14.685   0.862   3.044
81483SOL    HW146346  14.765   0.912   3.064
81483SOL    HW246347  14.654   0.898   2.961
81484SOL     OW46348   9.093   8.856   5.648
81484SOL    HW146349   9.182   8.870   5.680
81484SOL    HW246350   9.089   8.904   5.566
81485SOL     OW46351  11.891   4.429  10.874
81485SOL    HW146352  11.926   4.511  10.907
81485SOL    HW246353  11.968   4.376  10.853
81486SOL     OW46354   5.549   5.087   3.466
81486SOL    HW146355   5.620   5.057   3.410
81486SOL    HW246356   5.502   5.152   3.413
81487SOL     OW46357   0.019   7.414   9.507
81487SOL    HW146358   0.060   7.453   9.430
81487SOL    HW246359  14.809   7.402   9.482
81488SOL     OW46360   2.696  10.217  10.168
81488SOL    HW146361   2.709  10.125  10.144
81488SOL    HW246362   2.610  10.219  10.209
81489SOL     OW46363   1.856  11.829  11.100
81489SOL    HW146364   1.921  11.886  11.059
81489SOL    HW246365   1.891  11.813  11.188
81490SOL     OW46366   7.356   7.090   7.470
81490SOL    HW146367   7.359   7.170   7.417
81490SOL    HW246368   7.275   7.046   7.443
81491SOL     OW46369   6.531   2.418   4.206
81491SOL    HW146370   6.528   2.431   4.111
81491SOL    HW246371   6.624   2.425   4.228
81492SOL     OW46372  14.695   2.794  10.232
81492SOL    HW146373  14.669   2.720  10.178
81492SOL    HW246374  14.742   2.754  10.306
81493SOL     OW46375  13.684  14.594   7.391
81493SOL    HW146376  13.655  14.583   7.300
81493SOL    HW246377  13.766  14.643   7.384
81494SOL     OW46378   4.621   4.846   1.407
81494SOL    HW146379   4.640   4.891   1.490
81494SOL    HW246380   4.565   4.906   1.359
81495SOL     OW46381   6.334   5.279  12.336
81495SOL    HW146382   6.272   5.330  12.389
81495SOL    HW246383   6.389   5.346  12.295
81496SOL     OW46384   8.507  13.742   8.612
81496SOL    HW146385   8.480  13.650   8.610
81496SOL    HW246386   8.447  13.786   8.553
81497SOL     OW46387   0.242   1.194   6.609
81497SOL    HW146388   0.265   1.188   6.516
81497SOL    HW246389   0.168   1.135   6.619
81498SOL     OW46390   0.586   2.157   6.193
81498SOL    HW146391   0.569   2.197   6.108
81498SOL    HW246392   0.679   2.134   6.190
81499SOL     OW46393   9.396  14.766  13.953
81499SOL    HW146394   9.484  14.772  13.990
81499SOL    HW246395   9.401  14.816  13.871
81500SOL     OW46396  13.526   1.631   9.350
81500SOL    HW146397  13.492   1.687   9.420
81500SOL    HW246398  13.618   1.656   9.343
81501SOL     OW46399  11.722   8.669  14.134
81501SOL    HW146400  11.682   8.631  14.056
81501SOL    HW246401  11.675   8.751  14.147
81502SOL     OW46402  13.836   7.514   2.357
81502SOL    HW146403  13.787   7.596   2.360
81502SOL    HW246404  13.847   7.496   2.263
81503SOL     OW46405   5.911   3.460   3.208
81503SOL    HW146406   5.964   3.392   3.250
81503SOL    HW246407   5.955   3.542   3.234
81504SOL     OW46408  13.293   1.252  12.544
81504SOL    HW146409  13.319   1.170  12.587
81504SOL    HW246410  13.206   1.270  12.578
81505SOL     OW46411  10.487   5.056   7.841
81505SOL    HW146412  10.525   5.038   7.927
81505SOL    HW246413  10.499   4.975   7.792
81506SOL     OW46414   3.147   1.064   4.160
81506SOL    HW146415   3.171   0.979   4.123
81506SOL    HW246416   3.229   1.113   4.163
81507SOL     OW46417  11.866   1.172   0.791
81507SOL    HW146418  11.926   1.225   0.844
81507SOL    HW246419  11.889   1.081   0.813
81508SOL     OW46420   5.761   3.756   4.243
81508SOL    HW146421   5.768   3.677   4.189
81508SOL    HW246422   5.849   3.794   4.242
81509SOL     OW46423  12.742   1.460  12.270
81509SOL    HW146424  12.697   1.529  12.318
81509SOL    HW246425  12.814   1.434  12.326
81510SOL     OW46426   2.017   4.719   3.951
81510SOL    HW146427   2.009   4.700   4.044
81510SOL    HW246428   2.106   4.753   3.940
81511SOL     OW46429   3.448   7.128   7.098
81511SOL    HW146430   3.459   7.220   7.123
81511SOL    HW246431   3.506   7.116   7.023
81512SOL     OW46432   6.377   3.703   6.811
81512SOL    HW146433   6.292   3.676   6.777
81512SOL    HW246434   6.365   3.708   6.906
81513SOL     OW46435   8.708  10.662  10.751
81513SOL    HW146436   8.721  10.570  10.776
81513SOL    HW246437   8.617  10.666  10.723
81514SOL     OW46438   9.962   5.548   6.755
81514SOL    HW146439  10.028   5.616   6.738
81514SOL    HW246440   9.882   5.597   6.776
81515SOL     OW46441   4.529   1.406   9.473
81515SOL    HW146442   4.525   1.412   9.377
81515SOL    HW246443   4.614   1.366   9.490
81516SOL     OW46444  12.328  10.709   2.230
81516SOL    HW146445  12.356  10.738   2.316
81516SOL    HW246446  12.404  10.665   2.193
81517SOL     OW46447  14.212   3.979   8.191
81517SOL    HW146448  14.205   3.884   8.179
81517SOL    HW246449  14.275   3.989   8.262
81518SOL     OW46450   4.375   0.281   5.672
81518SOL    HW146451   4.348   0.215   5.736
81518SOL    HW246452   4.295   0.329   5.652
81519SOL     OW46453   3.579   7.269   1.047
81519SOL    HW146454   3.543   7.294   1.132
81519SOL    HW246455   3.600   7.176   1.057
81520SOL     OW46456   1.929  11.846  13.816
81520SOL    HW146457   2.005  11.791  13.834
81520SOL    HW246458   1.952  11.932  13.849
81521SOL     OW46459   5.681  14.733   0.865
81521SOL    HW146460   5.760  14.703   0.910
81521SOL    HW246461   5.656  14.813   0.912
81522SOL     OW46462   1.987   6.542   2.943
81522SOL    HW146463   2.033   6.460   2.928
81522SOL    HW246464   2.049   6.610   2.913
81523SOL     OW46465   6.987  12.725   6.420
81523SOL    HW146466   6.930  12.801   6.431
81523SOL    HW246467   6.932  12.649   6.441
81524SOL     OW46468  10.777   9.780   7.817
81524SOL    HW146469  10.803   9.826   7.737
81524SOL    HW246470  10.712   9.838   7.857
81525SOL     OW46471   1.407   5.153   2.586
81525SOL    HW146472   1.360   5.101   2.650
81525SOL    HW246473   1.473   5.200   2.636
81526SOL     OW46474   1.685  14.365   0.972
81526SOL    HW146475   1.774  14.331   0.963
81526SOL    HW246476   1.693  14.459   0.956
81527SOL     OW46477   0.849  14.310   9.022
81527SOL    HW146478   0.881  14.350   8.942
81527SOL    HW246479   0.754  14.319   9.018
81528SOL     OW46480   4.881  10.919   8.905
81528SOL    HW146481   4.853  10.827   8.903
81528SOL    HW246482   4.859  10.948   8.994
81529SOL     OW46483   5.451   0.838   7.420
81529SOL    HW146484   5.408   0.923   7.427
81529SOL    HW246485   5.379   0.776   7.410
81530SOL     OW46486  10.820   9.780   2.484
81530SOL    HW146487  10.740   9.818   2.448
81530SOL    HW246488  10.880   9.776   2.409
81531SOL     OW46489   5.375   3.826  13.749
81531SOL    HW146490   5.336   3.765  13.687
81531SOL    HW246491   5.302   3.855  13.803
81532SOL     OW46492   4.141   9.644  13.736
81532SOL    HW146493   4.203   9.572  13.739
81532SOL    HW246494   4.085   9.632  13.813
81533SOL     OW46495   5.990   6.597   4.668
81533SOL    HW146496   6.044   6.649   4.609
81533SOL    HW246497   5.919   6.564   4.613
81534SOL     OW46498  11.042   5.475   7.399
81534SOL    HW146499  11.127   5.449   7.434
81534SOL    HW246500  10.978   5.432   7.456
81535SOL     OW46501   5.644   7.366   0.043
81535SOL    HW146502   5.621   7.308   0.116
81535SOL    HW246503   5.569   7.362  14.867
81536SOL     OW46504  11.934   5.107  11.185
81536SOL    HW146505  11.955   5.164  11.259
81536SOL    HW246506  11.937   5.019  11.221
81537SOL     OW46507   9.545   2.848  14.197
81537SOL    HW146508   9.502   2.881  14.118
81537SOL    HW246509   9.473   2.834  14.259
81538SOL     OW46510   0.332   9.167  14.406
81538SOL    HW146511   0.310   9.228  14.477
81538SOL    HW246512   0.250   9.154  14.359
81539SOL     OW46513  12.506   0.143   5.897
81539SOL    HW146514  12.528   0.075   5.833
81539SOL    HW246515  12.519   0.100   5.982
81540SOL     OW46516   4.345   7.353   0.408
81540SOL    HW146517   4.390   7.284   0.458
81540SOL    HW246518   4.416   7.398   0.361
81541SOL     OW46519  11.963  13.823   3.227
81541SOL    HW146520  11.962  13.867   3.312
81541SOL    HW246521  11.899  13.753   3.235
81542SOL     OW46522   7.500   2.875  13.590
81542SOL    HW146523   7.592   2.860  13.612
81542SOL    HW246524   7.451   2.815  13.647
81543SOL     OW46525   5.685  13.703  12.235
81543SOL    HW146526   5.620  13.633  12.243
81543SOL    HW246527   5.643  13.768  12.178
81544SOL     OW46528   6.289   2.387  11.467
81544SOL    HW146529   6.223   2.414  11.531
81544SOL    HW246530   6.297   2.292  11.479
81545SOL     OW46531  11.348   3.024  12.555
81545SOL    HW146532  11.376   2.936  12.529
81545SOL    HW246533  11.407   3.083  12.509
81546SOL     OW46534   2.187   9.429   1.098
81546SOL    HW146535   2.148   9.357   1.147
81546SOL    HW246536   2.264   9.391   1.056
81547SOL     OW46537  10.984   5.581   2.341
81547SOL    HW146538  10.954   5.598   2.252
81547SOL    HW246539  11.021   5.664   2.371
81548SOL     OW46540   2.065   0.195   8.749
81548SOL    HW146541   2.005   0.150   8.808
81548SOL    HW246542   2.065   0.286   8.779
81549SOL     OW46543   9.067   8.438   7.177
81549SOL    HW146544   9.157   8.430   7.145
81549SOL    HW246545   9.045   8.530   7.165
81550SOL     OW46546   5.723   0.722  12.298
81550SOL    HW146547   5.748   0.789  12.362
81550SOL    HW246548   5.757   0.640  12.334
81551SOL     OW46549   9.010  13.599   6.418
81551SOL    HW146550   9.004  13.694   6.407
81551SOL    HW246551   9.101  13.583   6.441
81552SOL     OW46552   3.937  12.890   1.698
81552SOL    HW146553   3.959  12.848   1.615
81552SOL    HW246554   4.019  12.931   1.727
81553SOL     OW46555   6.004  13.759   5.911
81553SOL    HW146556   5.911  13.741   5.925
81553SOL    HW246557   6.039  13.678   5.874
81554SOL     OW46558   1.287   4.392  13.288
81554SOL    HW146559   1.309   4.423  13.200
81554SOL    HW246560   1.310   4.299  13.286
81555SOL     OW46561   3.666  11.701   3.042
81555SOL    HW146562   3.731  11.759   3.082
81555SOL    HW246563   3.589  11.756   3.030
81556SOL     OW46564   3.735   9.525   8.506
81556SOL    HW146565   3.766   9.442   8.542
81556SOL    HW246566   3.808   9.586   8.518
81557SOL     OW46567  12.732   9.288   7.982
81557SOL    HW146568  12.702   9.290   8.073
81557SOL    HW246569  12.796   9.359   7.976
81558SOL     OW46570  11.189   4.088   5.648
81558SOL    HW146571  11.210   4.134   5.567
81558SOL    HW246572  11.209   3.997   5.630
81559SOL     OW46573   5.370   4.605   7.955
81559SOL    HW146574   5.326   4.654   8.025
81559SOL    HW246575   5.444   4.660   7.930
81560SOL     OW46576   0.350   0.434  12.552
81560SOL    HW146577   0.328   0.528  12.554
81560SOL    HW246578   0.441   0.430  12.581
81561SOL     OW46579   7.511   3.062   8.239
81561SOL    HW146580   7.490   3.039   8.149
81561SOL    HW246581   7.426   3.062   8.284
81562SOL     OW46582   6.829  14.624   8.473
81562SOL    HW146583   6.904  14.676   8.444
81562SOL    HW246584   6.774  14.686   8.522
81563SOL     OW46585   6.117  13.631   7.789
81563SOL    HW146586   6.139  13.621   7.696
81563SOL    HW246587   6.030  13.592   7.797
81564SOL     OW46588  10.912   6.575  10.230
81564SOL    HW146589  10.968   6.602  10.157
81564SOL    HW246590  10.835   6.537  10.189
81565SOL     OW46591   6.239   8.452   1.254
81565SOL    HW146592   6.163   8.442   1.197
81565SOL    HW246593   6.227   8.387   1.323
81566SOL     OW46594   8.992  13.646  13.383
81566SOL    HW146595   8.971  13.691  13.301
81566SOL    HW246596   8.919  13.587  13.398
81567SOL     OW46597   1.577   6.414  10.806
81567SOL    HW146598   1.539   6.488  10.759
81567SOL    HW246599   1.506   6.350  10.813
81568SOL     OW46600  11.814   9.118   8.247
81568SOL    HW146601  11.761   9.114   8.327
81568SOL    HW246602  11.753   9.092   8.178
81569SOL     OW46603  11.501   3.516   0.713
81569SOL    HW146604  11.485   3.574   0.639
81569SOL    HW246605  11.449   3.553   0.785
81570SOL     OW46606   1.670  13.175   2.541
81570SOL    HW146607   1.738  13.160   2.475
81570SOL    HW246608   1.683  13.105   2.604
81571SOL     OW46609  14.687   1.469   8.024
81571SOL    HW146610  14.692   1.557   8.062
81571SOL    HW246611  14.728   1.412   8.089
81572SOL     OW46612   4.838   5.419   2.294
81572SOL    HW146613   4.783   5.425   2.371
81572SOL    HW246614   4.866   5.509   2.277
81573SOL     OW46615   8.449  14.818   5.591
81573SOL    HW146616   8.449  14.821   5.687
81573SOL    HW246617   8.529  14.772   5.569
81574SOL     OW46618   4.378   2.521   2.501
81574SOL    HW146619   4.467   2.489   2.516
81574SOL    HW246620   4.372   2.530   2.406
81575SOL     OW46621  13.962  12.660   9.408
81575SOL    HW146622  13.976  12.684   9.317
81575SOL    HW246623  14.050  12.652   9.445
81576SOL     OW46624   9.912   5.723   2.511
81576SOL    HW146625   9.899   5.728   2.416
81576SOL    HW246626   9.995   5.677   2.521
81577SOL     OW46627  12.085   2.538   8.040
81577SOL    HW146628  12.167   2.575   8.008
81577SOL    HW246629  12.081   2.564   8.132
81578SOL     OW46630  14.727   6.097   2.891
81578SOL    HW146631  14.657   6.140   2.940
81578SOL    HW246632  14.794   6.166   2.879
81579SOL     OW46633   0.095   3.854   7.841
81579SOL    HW146634   0.076   3.929   7.898
81579SOL    HW246635   0.147   3.795   7.896
81580SOL     OW46636  14.759   8.671   1.581
81580SOL    HW146637  14.681   8.714   1.617
81580SOL    HW246638  14.832   8.724   1.611
81581SOL     OW46639   4.536   1.692  14.019
81581SOL    HW146640   4.537   1.783  13.992
81581SOL    HW246641   4.546   1.694  14.114
81582SOL     OW46642   3.525   2.822  10.706
81582SOL    HW146643   3.455   2.818  10.772
81582SOL    HW246644   3.492   2.771  10.633
81583SOL     OW46645  13.099  12.564   2.320
81583SOL    HW146646  13.045  12.638   2.345
81583SOL    HW246647  13.188  12.588   2.348
81584SOL     OW46648   4.468   5.612  10.555
81584SOL    HW146649   4.459   5.609  10.650
81584SOL    HW246650   4.386   5.576  10.522
81585SOL     OW46651   7.562   8.144   1.667
81585SOL    HW146652   7.495   8.104   1.722
81585SOL    HW246653   7.514   8.173   1.589
81586SOL     OW46654   0.152   7.050   0.343
81586SOL    HW146655   0.248   7.046   0.347
81586SOL    HW246656   0.125   6.961   0.322
81587SOL     OW46657   6.686   6.383  11.744
81587SOL    HW146658   6.778   6.407  11.743
81587SOL    HW246659   6.679   6.311  11.681
81588SOL     OW46660  13.429  12.496   1.969
81588SOL    HW146661  13.467  12.583   1.983
81588SOL    HW246662  13.418  12.460   2.057
81589SOL     OW46663  13.473  14.698   7.962
81589SOL    HW146664  13.452  14.759   8.033
81589SOL    HW246665  13.543  14.644   7.998
81590SOL     OW46666   1.977  13.551   8.106
81590SOL    HW146667   1.944  13.464   8.085
81590SOL    HW246668   1.999  13.546   8.200
81591SOL     OW46669  13.257   1.494  12.936
81591SOL    HW146670  13.290   1.420  12.987
81591SOL    HW246671  13.164   1.477  12.925
81592SOL     OW46672   3.532   0.336  12.229
81592SOL    HW146673   3.564   0.313  12.316
81592SOL    HW246674   3.610   0.367  12.182
81593SOL     OW46675   5.757   1.875  11.777
81593SOL    HW146676   5.847   1.844  11.790
81593SOL    HW246677   5.713   1.856  11.860
81594SOL     OW46678   3.867   5.643  13.088
81594SOL    HW146679   3.886   5.716  13.146
81594SOL    HW246680   3.790   5.670  13.039
81595SOL     OW46681   0.344   2.870  10.252
81595SOL    HW146682   0.276   2.840  10.312
81595SOL    HW246683   0.386   2.943  10.298
81596SOL     OW46684   0.763  12.946   7.787
81596SOL    HW146685   0.676  12.974   7.761
81596SOL    HW246686   0.748  12.886   7.861
81597SOL     OW46687   7.980  10.592   2.443
81597SOL    HW146688   8.062  10.589   2.492
81597SOL    HW246689   7.917  10.547   2.500
81598SOL     OW46690  14.020  10.036   2.397
81598SOL    HW146691  14.035   9.990   2.479
81598SOL    HW246692  13.936  10.081   2.410
81599SOL     OW46693  13.198  10.414   1.372
81599SOL    HW146694  13.138  10.473   1.419
81599SOL    HW246695  13.205  10.338   1.429
81600SOL     OW46696   0.163   3.356   2.767
81600SOL    HW146697   0.215   3.292   2.718
81600SOL    HW246698   0.072   3.327   2.754
81601SOL     OW46699   0.020  11.874  14.083
81601SOL    HW146700   0.109  11.899  14.060
81601SOL    HW246701   0.024  11.779  14.094
81602SOL     OW46702   7.303   6.540   7.853
81602SOL    HW146703   7.365   6.471   7.828
81602SOL    HW246704   7.274   6.578   7.770
81603SOL     OW46705   2.184   2.810   1.757
81603SOL    HW146706   2.198   2.760   1.837
81603SOL    HW246707   2.267   2.855   1.741
81604SOL     OW46708  14.525  11.247  12.720
81604SOL    HW146709  14.500  11.303  12.646
81604SOL    HW246710  14.549  11.309  12.788
81605SOL     OW46711   3.159  12.931  10.537
81605SOL    HW146712   3.112  12.957  10.616
81605SOL    HW246713   3.240  12.982  10.540
81606SOL     OW46714   7.541   0.495  13.243
81606SOL    HW146715   7.629   0.530  13.232
81606SOL    HW246716   7.554   0.403  13.268
81607SOL     OW46717   2.292  11.819  12.295
81607SOL    HW146718   2.360  11.858  12.351
81607SOL    HW246719   2.315  11.726  12.290
81608SOL     OW46720   2.938  11.318  10.065
81608SOL    HW146721   2.972  11.231  10.087
81608SOL    HW246722   2.881  11.303   9.989
81609SOL     OW46723  11.646   3.194   5.596
81609SOL    HW146724  11.598   3.210   5.678
81609SOL    HW246725  11.676   3.281   5.569
81610SOL     OW46726   5.404   9.239   9.310
81610SOL    HW146727   5.313   9.261   9.328
81610SOL    HW246728   5.445   9.323   9.291
81611SOL     OW46729   2.175   1.420  13.369
81611SOL    HW146730   2.150   1.410  13.277
81611SOL    HW246731   2.245   1.355  13.381
81612SOL     OW46732   1.575  11.239   8.062
81612SOL    HW146733   1.506  11.305   8.055
81612SOL    HW246734   1.629  11.268   8.136
81613SOL     OW46735  14.239   1.356   4.563
81613SOL    HW146736  14.212   1.418   4.631
81613SOL    HW246737  14.183   1.378   4.488
81614SOL     OW46738   6.658   6.326   8.664
81614SOL    HW146739   6.650   6.403   8.720
81614SOL    HW246740   6.749   6.297   8.676
81615SOL     OW46741  11.906   8.506  14.611
81615SOL    HW146742  11.870   8.539  14.693
81615SOL    HW246743  11.988   8.463  14.636
81616SOL     OW46744   3.481   8.950  11.890
81616SOL    HW146745   3.522   8.941  11.804
81616SOL    HW246746   3.547   8.993  11.944
81617SOL     OW46747  12.507   0.121   3.572
81617SOL    HW146748  12.541   0.122   3.482
81617SOL    HW246749  12.454   0.041   3.576
81618SOL     OW46750  14.757  10.294  14.259
81618SOL    HW146751  14.752  10.201  14.237
81618SOL    HW246752  14.705  10.302  14.339
81619SOL     OW46753  11.103   4.251  12.302
81619SOL    HW146754  11.037   4.265  12.369
81619SOL    HW246755  11.128   4.160  12.312
81620SOL     OW46756   2.087   3.888   0.320
81620SOL    HW146757   2.088   3.920   0.410
81620SOL    HW246758   1.995   3.872   0.302
81621SOL     OW46759  12.143  13.496   4.099
81621SOL    HW146760  12.065  13.547   4.077
81621SOL    HW246761  12.147  13.429   4.031
81622SOL     OW46762  10.088   6.711  11.794
81622SOL    HW146763  10.011   6.708  11.737
81622SOL    HW246764  10.146   6.773  11.751
81623SOL     OW46765   1.148   7.883   6.650
81623SOL    HW146766   1.101   7.956   6.690
81623SOL    HW246767   1.240   7.907   6.656
81624SOL     OW46768   4.851   7.367  10.320
81624SOL    HW146769   4.809   7.289  10.355
81624SOL    HW246770   4.802   7.386  10.240
81625SOL     OW46771   1.472   1.582   7.189
81625SOL    HW146772   1.483   1.672   7.220
81625SOL    HW246773   1.383   1.579   7.154
81626SOL     OW46774   7.923   2.332   2.138
81626SOL    HW146775   7.892   2.245   2.111
81626SOL    HW246776   8.017   2.328   2.124
81627SOL     OW46777  11.373  11.186   5.849
81627SOL    HW146778  11.374  11.130   5.772
81627SOL    HW246779  11.453  11.238   5.843
81628SOL     OW46780   8.820   1.000   8.003
81628SOL    HW146781   8.730   1.029   7.987
81628SOL    HW246782   8.873   1.059   7.950
81629SOL     OW46783  12.186  11.639  11.950
81629SOL    HW146784  12.103  11.627  11.996
81629SOL    HW246785  12.242  11.570  11.983
81630SOL     OW46786   3.438   9.240   3.881
81630SOL    HW146787   3.427   9.333   3.897
81630SOL    HW246788   3.509   9.234   3.818
81631SOL     OW46789  12.739   6.735   1.716
81631SOL    HW146790  12.814   6.695   1.760
81631SOL    HW246791  12.717   6.811   1.770
81632SOL     OW46792   4.847   7.759  13.792
81632SOL    HW146793   4.937   7.785  13.772
81632SOL    HW246794   4.856   7.682  13.847
81633SOL     OW46795  14.624  10.789   8.878
81633SOL    HW146796  14.585  10.828   8.800
81633SOL    HW246797  14.712  10.766   8.851
81634SOL     OW46798   0.167   0.136   5.920
81634SOL    HW146799   0.248   0.180   5.897
81634SOL    HW246800   0.102   0.206   5.926
81635SOL     OW46801  12.451   4.747   7.132
81635SOL    HW146802  12.445   4.826   7.078
81635SOL    HW246803  12.501   4.685   7.079
81636SOL     OW46804   3.905   7.084  14.415
81636SOL    HW146805   3.955   7.132  14.480
81636SOL    HW246806   3.966   7.071  14.342
81637SOL     OW46807   1.795   2.573  10.762
81637SOL    HW146808   1.766   2.651  10.714
81637SOL    HW246809   1.878   2.600  10.801
81638SOL     OW46810   2.349  14.421   0.604
81638SOL    HW146811   2.402  14.357   0.557
81638SOL    HW246812   2.300  14.369   0.668
81639SOL     OW46813   3.190   1.471   3.856
81639SOL    HW146814   3.120   1.519   3.812
81639SOL    HW246815   3.177   1.489   3.949
81640SOL     OW46816  10.800  14.394  13.018
81640SOL    HW146817  10.706  14.378  13.007
81640SOL    HW246818  10.815  14.479  12.977
81641SOL     OW46819  11.483   6.811   8.216
81641SOL    HW146820  11.524   6.806   8.130
81641SOL    HW246821  11.527   6.742   8.267
81642SOL     OW46822   5.226   0.027  10.969
81642SOL    HW146823   5.250  14.836  10.911
81642SOL    HW246824   5.138   0.005  10.999
81643SOL     OW46825   5.207  14.743  11.227
81643SOL    HW146826   5.159  14.819  11.262
81643SOL    HW246827   5.295  14.752  11.264
81644SOL     OW46828   4.792  11.557  12.100
81644SOL    HW146829   4.881  11.526  12.079
81644SOL    HW246830   4.738  11.524  12.029
81645SOL     OW46831  12.288   4.808  13.478
81645SOL    HW146832  12.304   4.725  13.434
81645SOL    HW246833  12.254   4.783  13.564
81646SOL     OW46834   8.557   1.887   8.298
81646SOL    HW146835   8.474   1.896   8.344
81646SOL    HW246836   8.553   1.799   8.260
81647SOL     OW46837   2.438   0.667   6.031
81647SOL    HW146838   2.467   0.758   6.022
81647SOL    HW246839   2.410   0.659   6.122
81648SOL     OW46840  13.127   4.363   5.929
81648SOL    HW146841  13.089   4.385   6.014
81648SOL    HW246842  13.201   4.423   5.919
81649SOL     OW46843   8.697  11.251  14.448
81649SOL    HW146844   8.743  11.316  14.396
81649SOL    HW246845   8.766  11.203  14.494
81650SOL     OW46846  12.288  11.631   7.621
81650SOL    HW146847  12.372  11.622   7.577
81650SOL    HW246848  12.310  11.656   7.711
81651SOL     OW46849   3.010   4.965  12.131
81651SOL    HW146850   3.041   5.056  12.127
81651SOL    HW246851   3.075   4.921  12.187
81652SOL     OW46852   5.752   3.255  11.539
81652SOL    HW146853   5.734   3.303  11.619
81652SOL    HW246854   5.816   3.189  11.565
81653SOL     OW46855  11.869  11.908   8.776
81653SOL    HW146856  11.774  11.913   8.784
81653SOL    HW246857  11.903  11.948   8.856
81654SOL     OW46858   9.227   1.493  11.140
81654SOL    HW146859   9.273   1.440  11.074
81654SOL    HW246860   9.234   1.583  11.107
81655SOL     OW46861   8.065  13.733   6.368
81655SOL    HW146862   8.073  13.655   6.423
81655SOL    HW246863   8.138  13.725   6.306
81656SOL     OW46864  12.031  12.554  11.746
81656SOL    HW146865  12.000  12.638  11.712
81656SOL    HW246866  11.980  12.540  11.826
81657SOL     OW46867   5.959   0.849   7.001
81657SOL    HW146868   5.894   0.841   7.071
81657SOL    HW246869   5.964   0.943   6.984
81658SOL     OW46870   5.997  10.995   1.857
81658SOL    HW146871   5.976  10.914   1.809
81658SOL    HW246872   6.065  10.969   1.918
81659SOL     OW46873   1.084   7.363   1.195
81659SOL    HW146874   1.072   7.451   1.229
81659SOL    HW246875   1.010   7.351   1.134
81660SOL     OW46876   1.574   0.616  11.962
81660SOL    HW146877   1.530   0.572  12.034
81660SOL    HW246878   1.592   0.704  11.994
81661SOL     OW46879  14.246   7.105   9.894
81661SOL    HW146880  14.246   7.132   9.802
81661SOL    HW246881  14.250   7.188   9.943
81662SOL     OW46882   9.222   9.507  14.760
81662SOL    HW146883   9.269   9.512  14.677
81662SOL    HW246884   9.138   9.551  14.744
81663SOL     OW46885   3.668  14.696  13.597
81663SOL    HW146886   3.671  14.603  13.575
81663SOL    HW246887   3.760  14.721  13.610
81664SOL     OW46888   9.456   7.399  13.182
81664SOL    HW146889   9.406   7.466  13.135
81664SOL    HW246890   9.466   7.328  13.119
81665SOL     OW46891  13.329   3.479   5.875
81665SOL    HW146892  13.393   3.421   5.916
81665SOL    HW246893  13.381   3.546   5.832
81666SOL     OW46894   9.881   3.527   5.611
81666SOL    HW146895   9.948   3.593   5.627
81666SOL    HW246896   9.908   3.452   5.663
81667SOL     OW46897  14.821  13.279   0.545
81667SOL    HW146898  14.771  13.342   0.598
81667SOL    HW246899   0.024  13.273   0.590
81668SOL     OW46900  11.943   5.699  12.356
81668SOL    HW146901  11.947   5.795  12.355
81668SOL    HW246902  11.977   5.673  12.271
81669SOL     OW46903   4.940   2.512   3.274
81669SOL    HW146904   4.845   2.520   3.265
81669SOL    HW246905   4.962   2.432   3.227
81670SOL     OW46906  12.795   1.296   7.429
81670SOL    HW146907  12.856   1.370   7.425
81670SOL    HW246908  12.814   1.256   7.514
81671SOL     OW46909   0.908   7.399  14.601
81671SOL    HW146910   0.834   7.451  14.570
81671SOL    HW246911   0.903   7.404  14.696
81672SOL     OW46912  13.204   5.398   9.923
81672SOL    HW146913  13.291   5.357   9.922
81672SOL    HW246914  13.193   5.431   9.833
81673SOL     OW46915   7.954   0.885  11.198
81673SOL    HW146916   7.973   0.975  11.173
81673SOL    HW246917   7.894   0.853  11.131
81674SOL     OW46918  14.414   1.682  14.595
81674SOL    HW146919  14.341   1.742  14.613
81674SOL    HW246920  14.472   1.733  14.538
81675SOL     OW46921  12.565   9.014   6.529
81675SOL    HW146922  12.563   9.105   6.560
81675SOL    HW246923  12.643   8.977   6.570
81676SOL     OW46924  13.539   0.660  14.059
81676SOL    HW146925  13.589   0.684  13.981
81676SOL    HW246926  13.491   0.581  14.034
81677SOL     OW46927   8.725   4.382   0.819
81677SOL    HW146928   8.656   4.360   0.881
81677SOL    HW246929   8.799   4.410   0.873
81678SOL     OW46930  11.670   3.740   5.381
81678SOL    HW146931  11.602   3.802   5.351
81678SOL    HW246932  11.701   3.777   5.463
81679SOL     OW46933   4.660  11.731   9.014
81679SOL    HW146934   4.579  11.746   9.062
81679SOL    HW246935   4.728  11.732   9.081
81680SOL     OW46936   1.579   8.667  10.361
81680SOL    HW146937   1.626   8.616  10.427
81680SOL    HW246938   1.573   8.610  10.285
81681SOL     OW46939   8.371   6.417  11.080
81681SOL    HW146940   8.331   6.479  11.019
81681SOL    HW246941   8.385   6.338  11.027
81682SOL     OW46942   6.372   4.190   6.450
81682SOL    HW146943   6.378   4.101   6.415
81682SOL    HW246944   6.307   4.184   6.520
81683SOL     OW46945   7.809   7.572   6.092
81683SOL    HW146946   7.904   7.566   6.085
81683SOL    HW246947   7.778   7.485   6.065
81684SOL     OW46948   1.355  11.103   2.082
81684SOL    HW146949   1.290  11.136   2.019
81684SOL    HW246950   1.394  11.182   2.119
81685SOL     OW46951   9.299   2.441   8.451
81685SOL    HW146952   9.213   2.403   8.433
81685SOL    HW246953   9.294   2.471   8.542
81686SOL     OW46954  13.815   0.029   7.649
81686SOL    HW146955  13.741  14.875   7.699
81686SOL    HW246956  13.883   0.045   7.715
81687SOL     OW46957  11.492   4.864   3.996
81687SOL    HW146958  11.507   4.820   4.079
81687SOL    HW246959  11.565   4.836   3.940
81688SOL     OW46960  13.133   0.055  12.994
81688SOL    HW146961  13.202   0.116  12.970
81688SOL    HW246962  13.053   0.108  12.991
81689SOL     OW46963   3.913  12.597   6.852
81689SOL    HW146964   3.894  12.691   6.861
81689SOL    HW246965   3.975  12.578   6.923
81690SOL     OW46966   3.615  12.897   1.082
81690SOL    HW146967   3.614  12.922   0.990
81690SOL    HW246968   3.526  12.867   1.100
81691SOL     OW46969   6.624   2.580   9.584
81691SOL    HW146970   6.716   2.578   9.557
81691SOL    HW246971   6.576   2.589   9.502
81692SOL     OW46972   4.229   0.595  14.378
81692SOL    HW146973   4.141   0.630  14.362
81692SOL    HW246974   4.287   0.654  14.330
81693SOL     OW46975   0.946  12.786  13.235
81693SOL    HW146976   0.945  12.800  13.140
81693SOL    HW246977   0.918  12.695  13.246
81694SOL     OW46978  14.425  12.021   9.689
81694SOL    HW146979  14.468  11.938   9.707
81694SOL    HW246980  14.421  12.065   9.773
81695SOL     OW46981   5.737   3.795   1.071
81695SOL    HW146982   5.762   3.884   1.046
81695SOL    HW246983   5.705   3.755   0.991
81696SOL     OW46984  10.741   4.452  12.748
81696SOL    HW146985  10.683   4.425  12.819
81696SOL    HW246986  10.756   4.546  12.763
81697SOL     OW46987   4.615   9.004   8.796
81697SOL    HW146988   4.548   8.987   8.730
81697SOL    HW246989   4.654   8.919   8.812
81698SOL     OW46990   9.113  11.821   3.123
81698SOL    HW146991   9.104  11.835   3.028
81698SOL    HW246992   9.206  11.806   3.136
81699SOL     OW46993  14.710   8.908   2.563
81699SOL    HW146994  14.628   8.864   2.586
81699SOL    HW246995  14.727   8.968   2.636
81700SOL     OW46996   6.013   2.673   3.645
81700SOL    HW146997   5.961   2.626   3.579
81700SOL    HW246998   6.045   2.605   3.703
81701SOL     OW46999   9.220  14.465   9.206
81701SOL    HW147000   9.145  14.524   9.210
81701SOL    HW247001   9.187  14.387   9.160
81702SOL     OW47002   8.827  12.609  14.556
81702SOL    HW147003   8.803  12.675  14.491
81702SOL    HW247004   8.852  12.532  14.504
81703SOL     OW47005  12.735  13.426   2.217
81703SOL    HW147006  12.779  13.497   2.266
81703SOL    HW247007  12.672  13.472   2.161
81704SOL     OW47008   4.297   5.288   7.532
81704SOL    HW147009   4.317   5.357   7.469
81704SOL    HW247010   4.207   5.262   7.511
81705SOL     OW47011  11.421   6.089   1.990
81705SOL    HW147012  11.501   6.094   1.938
81705SOL    HW247013  11.352   6.067   1.928
81706SOL     OW47014   3.235   3.386  12.692
81706SOL    HW147015   3.265   3.295  12.697
81706SOL    HW247016   3.283   3.431  12.762
81707SOL     OW47017   0.599   6.494   8.103
81707SOL    HW147018   0.677   6.444   8.077
81707SOL    HW247019   0.604   6.575   8.052
81708SOL     OW47020   7.538  13.808   7.140
81708SOL    HW147021   7.588  13.868   7.195
81708SOL    HW247022   7.456  13.854   7.122
81709SOL     OW47023   7.304  14.780   7.682
81709SOL    HW147024   7.374  14.721   7.656
81709SOL    HW247025   7.320  14.799   7.774
81710SOL     OW47026   8.675  11.901   6.154
81710SOL    HW147027   8.639  11.949   6.228
81710SOL    HW247028   8.606  11.839   6.130
81711SOL     OW47029  11.735   4.571  11.288
81711SOL    HW147030  11.774   4.624  11.357
81711SOL    HW247031  11.659   4.530  11.328
81712SOL     OW47032   5.664  11.424   1.038
81712SOL    HW147033   5.711  11.502   1.066
81712SOL    HW247034   5.648  11.437   0.945
81713SOL     OW47035   2.031   5.768   3.273
81713SOL    HW147036   2.049   5.768   3.179
81713SOL    HW247037   2.052   5.857   3.302
81714SOL     OW47038  11.430   5.744   1.179
81714SOL    HW147039  11.363   5.720   1.114
81714SOL    HW247040  11.461   5.661   1.214
81715SOL     OW47041   8.249  14.745   0.161
81715SOL    HW147042   8.270  14.838   0.161
81715SOL    HW247043   8.211  14.729   0.247
81716SOL     OW47044  12.092   8.056   0.655
81716SOL    HW147045  12.130   8.143   0.640
81716SOL    HW247046  11.999   8.067   0.637
81717SOL     OW47047   2.263   1.757  11.901
81717SOL    HW147048   2.311   1.685  11.942
81717SOL    HW247049   2.307   1.836  11.934
81718SOL     OW47050  11.556  12.753  10.287
81718SOL    HW147051  11.493  12.807  10.239
81718SOL    HW247052  11.508  12.672  10.307
81719SOL     OW47053   9.127   5.592   9.336
81719SOL    HW147054   9.159   5.557   9.253
81719SOL    HW247055   9.032   5.601   9.323
81720SOL     OW47056   3.634   3.417   5.749
81720SOL    HW147057   3.573   3.488   5.769
81720SOL    HW247058   3.695   3.454   5.685
81721SOL     OW47059  11.517  11.700  10.641
81721SOL    HW147060  11.480  11.686  10.554
81721SOL    HW247061  11.486  11.786  10.667
81722SOL     OW47062   5.881  13.994   1.373
81722SOL    HW147063   5.801  13.951   1.402
81722SOL    HW247064   5.901  13.954   1.289
81723SOL     OW47065  10.456   6.960   7.898
81723SOL    HW147066  10.372   6.980   7.938
81723SOL    HW247067  10.452   6.867   7.877
81724SOL     OW47068   5.436   1.473   8.425
81724SOL    HW147069   5.391   1.461   8.509
81724SOL    HW247070   5.416   1.563   8.401
81725SOL     OW47071   8.886  10.504  12.706
81725SOL    HW147072   8.837  10.583  12.729
81725SOL    HW247073   8.971  10.536  12.675
81726SOL     OW47074   5.747   3.358   7.643
81726SOL    HW147075   5.716   3.437   7.688
81726SOL    HW247076   5.669   3.321   7.602
81727SOL     OW47077   1.967  10.753   5.092
81727SOL    HW147078   1.980  10.845   5.115
81727SOL    HW247079   1.885  10.728   5.136
81728SOL     OW47080   2.088   6.113   5.897
81728SOL    HW147081   2.174   6.150   5.875
81728SOL    HW247082   2.103   6.066   5.979
81729SOL     OW47083   5.094   9.363   8.648
81729SOL    HW147084   5.080   9.351   8.742
81729SOL    HW247085   5.007   9.387   8.614
81730SOL     OW47086  10.996  10.120   8.381
81730SOL    HW147087  11.071  10.131   8.322
81730SOL    HW247088  10.923  10.160   8.335
81731SOL     OW47089   2.153   8.209   7.918
81731SOL    HW147090   2.173   8.230   8.009
81731SOL    HW247091   2.238   8.194   7.877
81732SOL     OW47092   1.295  10.881   0.865
81732SOL    HW147093   1.240  10.903   0.941
81732SOL    HW247094   1.251  10.807   0.824
81733SOL     OW47095   8.354   5.193  14.783
81733SOL    HW147096   8.443   5.173  14.752
81733SOL    HW247097   8.359   5.284  14.812
81734SOL     OW47098  14.207  11.756  14.554
81734SOL    HW147099  14.220  11.685  14.618
81734SOL    HW247100  14.296  11.785  14.532
81735SOL     OW47101   0.549   0.724  14.559
81735SOL    HW147102   0.606   0.784  14.606
81735SOL    HW247103   0.595   0.640  14.560
81736SOL     OW47104  14.473   9.701  10.680
81736SOL    HW147105  14.563   9.690  10.708
81736SOL    HW247106  14.438   9.612  10.676
81737SOL     OW47107  13.783   0.941  11.493
81737SOL    HW147108  13.802   0.994  11.571
81737SOL    HW247109  13.777   1.005  11.422
81738SOL     OW47110  12.874  12.615   5.652
81738SOL    HW147111  12.817  12.568   5.713
81738SOL    HW247112  12.851  12.707   5.664
81739SOL     OW47113  13.108   0.614   7.452
81739SOL    HW147114  13.182   0.655   7.407
81739SOL    HW247115  13.060   0.568   7.383
81740SOL     OW47116   3.561  13.301  13.933
81740SOL    HW147117   3.574  13.393  13.908
81740SOL    HW247118   3.507  13.266  13.862
81741SOL     OW47119  11.724   2.828  11.041
81741SOL    HW147120  11.724   2.881  10.961
81741SOL    HW247121  11.655   2.867  11.095
81742SOL     OW47122  14.388   2.422  14.805
81742SOL    HW147123  14.299   2.419  14.840
81742SOL    HW247124  14.441   2.382  14.874
81743SOL     OW47125   3.989  10.817   5.746
81743SOL    HW147126   4.076  10.785   5.724
81743SOL    HW247127   3.984  10.903   5.705
81744SOL     OW47128   7.957   4.611  10.493
81744SOL    HW147129   7.888   4.545  10.504
81744SOL    HW247130   8.025   4.584  10.554
81745SOL     OW47131   8.450   2.351   8.158
81745SOL    HW147132   8.446   2.390   8.245
81745SOL    HW247133   8.513   2.278   8.166
81746SOL     OW47134   9.107   3.781   9.140
81746SOL    HW147135   9.076   3.840   9.071
81746SOL    HW247136   9.027   3.753   9.185
81747SOL     OW47137   6.134   0.947   0.876
81747SOL    HW147138   6.064   0.999   0.913
81747SOL    HW247139   6.211   0.970   0.927
81748SOL     OW47140   0.943   4.990   5.681
81748SOL    HW147141   0.979   4.992   5.592
81748SOL    HW247142   0.986   4.915   5.722
81749SOL     OW47143   8.509   4.241   0.007
81749SOL    HW147144   8.590   4.193   0.025
81749SOL    HW247145   8.485   4.280   0.091
81750SOL     OW47146  12.341  14.814   5.130
81750SOL    HW147147  12.358  14.799   5.223
81750SOL    HW247148  12.417  14.777   5.085
81751SOL     OW47149   1.183   4.925   5.547
81751SOL    HW147150   1.191   4.848   5.490
81751SOL    HW247151   1.238   4.905   5.622
81752SOL     OW47152  14.460   5.572   9.931
81752SOL    HW147153  14.412   5.577   9.849
81752SOL    HW247154  14.406   5.619   9.994
81753SOL     OW47155   8.053  11.246   2.282
81753SOL    HW147156   8.135  11.295   2.291
81753SOL    HW247157   8.069  11.186   2.209
81754SOL     OW47158  13.099   6.468   0.234
81754SOL    HW147159  13.136   6.528   0.299
81754SOL    HW247160  13.009   6.455   0.262
81755SOL     OW47161   7.371   4.337   4.370
81755SOL    HW147162   7.328   4.417   4.338
81755SOL    HW247163   7.395   4.358   4.460
81756SOL     OW47164   8.399   2.778   4.701
81756SOL    HW147165   8.443   2.694   4.718
81756SOL    HW247166   8.469   2.836   4.671
81757SOL     OW47167  11.429   7.416   2.215
81757SOL    HW147168  11.434   7.489   2.277
81757SOL    HW247169  11.377   7.349   2.260
81758SOL     OW47170   3.962   9.524  13.270
81758SOL    HW147171   3.920   9.541  13.354
81758SOL    HW247172   3.895   9.480  13.218
81759SOL     OW47173   0.200   3.159   1.151
81759SOL    HW147174   0.268   3.118   1.205
81759SOL    HW247175   0.248   3.219   1.094
81760SOL     OW47176   8.062   9.949   3.901
81760SOL    HW147177   7.982   9.968   3.951
81760SOL    HW247178   8.086  10.033   3.862
81761SOL     OW47179   4.933  11.976   0.874
81761SOL    HW147180   4.954  12.038   0.944
81761SOL    HW247181   4.882  11.907   0.918
81762SOL     OW47182   3.737   7.059   1.261
81762SOL    HW147183   3.771   7.137   1.305
81762SOL    HW247184   3.672   7.024   1.322
81763SOL     OW47185  10.658   0.094   9.152
81763SOL    HW147186  10.692   0.041   9.080
81763SOL    HW247187  10.594   0.152   9.111
81764SOL     OW47188   4.831   4.267   8.223
81764SOL    HW147189   4.864   4.357   8.232
81764SOL    HW247190   4.777   4.269   8.144
81765SOL     OW47191   4.856   0.637   4.054
81765SOL    HW147192   4.912   0.626   4.131
81765SOL    HW247193   4.795   0.563   4.058
81766SOL     OW47194   2.542   1.429   6.204
81766SOL    HW147195   2.498   1.477   6.274
81766SOL    HW247196   2.471   1.389   6.154
81767SOL     OW47197   7.476   8.017   6.928
81767SOL    HW147198   7.520   7.981   6.850
81767SOL    HW247199   7.490   7.951   6.996
81768SOL     OW47200   0.947   8.319   9.235
81768SOL    HW147201   0.998   8.310   9.154
81768SOL    HW247202   1.011   8.348   9.300
81769SOL     OW47203  11.130   1.717  14.811
81769SOL    HW147204  11.168   1.661  14.742
81769SOL    HW247205  11.043   1.680  14.827
81770SOL     OW47206   6.616   8.081   3.509
81770SOL    HW147207   6.661   8.117   3.586
81770SOL    HW247208   6.644   7.990   3.505
81771SOL     OW47209  13.674   1.340   0.475
81771SOL    HW147210  13.599   1.285   0.452
81771SOL    HW247211  13.743   1.311   0.416
81772SOL     OW47212   9.494   3.645  14.736
81772SOL    HW147213   9.454   3.695  14.665
81772SOL    HW247214   9.426   3.641  14.803
81773SOL     OW47215   9.574   9.521  10.165
81773SOL    HW147216   9.570   9.426  10.158
81773SOL    HW247217   9.613   9.538  10.251
81774SOL     OW47218  11.547   4.526   9.560
81774SOL    HW147219  11.617   4.590   9.573
81774SOL    HW247220  11.476   4.575   9.519
81775SOL     OW47221   5.896   0.430  11.898
81775SOL    HW147222   5.804   0.407  11.888
81775SOL    HW247223   5.943   0.348  11.880
81776SOL     OW47224   2.377   3.468   5.314
81776SOL    HW147225   2.443   3.532   5.287
81776SOL    HW247226   2.427   3.392   5.343
81777SOL     OW47227   1.868   4.418  13.232
81777SOL    HW147228   1.894   4.510  13.238
81777SOL    HW247229   1.826   4.400  13.316
81778SOL     OW47230   3.926  11.044   5.272
81778SOL    HW147231   4.014  11.067   5.303
81778SOL    HW247232   3.912  11.100   5.196
81779SOL     OW47233   7.482   0.316   0.425
81779SOL    HW147234   7.548   0.383   0.407
81779SOL    HW247235   7.435   0.305   0.343
81780SOL     OW47236   6.306   5.604   5.350
81780SOL    HW147237   6.319   5.533   5.286
81780SOL    HW247238   6.213   5.602   5.369
81781SOL     OW47239  12.100   3.599   5.575
81781SOL    HW147240  12.094   3.539   5.650
81781SOL    HW247241  12.190   3.592   5.546
81782SOL     OW47242  14.011   1.854   2.568
81782SOL    HW147243  14.035   1.798   2.642
81782SOL    HW247244  13.996   1.793   2.496
81783SOL     OW47245   3.769   8.934   0.358
81783SOL    HW147246   3.841   8.971   0.306
81783SOL    HW247247   3.805   8.854   0.394
81784SOL     OW47248   6.301  10.859   5.528
81784SOL    HW147249   6.359  10.842   5.454
81784SOL    HW247250   6.356  10.905   5.592
81785SOL     OW47251   6.420  14.504   6.466
81785SOL    HW147252   6.340  14.556   6.466
81785SOL    HW247253   6.421  14.462   6.379
81786SOL     OW47254   3.818   6.340  14.259
81786SOL    HW147255   3.780   6.273  14.203
81786SOL    HW247256   3.909   6.347  14.230
81787SOL     OW47257   6.700   7.199  10.100
81787SOL    HW147258   6.734   7.239  10.021
81787SOL    HW247259   6.704   7.105  10.083
81788SOL     OW47260   7.902  12.267  14.676
81788SOL    HW147261   7.925  12.228  14.591
81788SOL    HW247262   7.987  12.290  14.715
81789SOL     OW47263  13.108   0.813  11.737
81789SOL    HW147264  13.141   0.768  11.815
81789SOL    HW247265  13.178   0.875  11.714
81790SOL     OW47266   3.199   9.929  14.567
81790SOL    HW147267   3.127   9.887  14.520
81790SOL    HW247268   3.157   9.980  14.636
81791SOL     OW47269   2.069   8.729   9.443
81791SOL    HW147270   2.093   8.793   9.376
81791SOL    HW247271   2.097   8.769   9.525
81792SOL     OW47272   8.865   8.844  10.989
81792SOL    HW147273   8.855   8.760  11.035
81792SOL    HW247274   8.817   8.832  10.907
81793SOL     OW47275   5.561   7.814  11.835
81793SOL    HW147276   5.565   7.909  11.849
81793SOL    HW247277   5.497   7.783  11.900
81794SOL     OW47278  10.633  10.482  13.117
81794SOL    HW147279  10.669  10.394  13.105
81794SOL    HW247280  10.592  10.502  13.033
81795SOL     OW47281   9.967  13.922   8.872
81795SOL    HW147282   9.902  13.950   8.936
81795SOL    HW247283   9.916  13.894   8.796
81796SOL     OW47284   5.732   4.320  14.213
81796SOL    HW147285   5.637   4.323  14.204
81796SOL    HW247286   5.764   4.302  14.125
81797SOL     OW47287   2.094  11.132   0.397
81797SOL    HW147288   2.183  11.100   0.410
81797SOL    HW247289   2.054  11.071   0.335
81798SOL     OW47290   3.793   7.883  11.601
81798SOL    HW147291   3.757   7.808  11.553
81798SOL    HW247292   3.726   7.951  11.592
81799SOL     OW47293  14.064   2.485   6.143
81799SOL    HW147294  14.061   2.394   6.171
81799SOL    HW247295  13.987   2.525   6.184
81800SOL     OW47296   0.853  14.774  12.062
81800SOL    HW147297   0.775  14.829  12.066
81800SOL    HW247298   0.880  14.765  12.154
81801SOL     OW47299   0.757   2.366   6.975
81801SOL    HW147300   0.682   2.320   7.012
81801SOL    HW247301   0.784   2.312   6.900
81802SOL     OW47302   1.601   1.066   7.515
81802SOL    HW147303   1.567   1.142   7.468
81802SOL    HW247304   1.567   0.991   7.466
81803SOL     OW47305   4.587   8.466  13.497
81803SOL    HW147306   4.515   8.524  13.521
81803SOL    HW247307   4.564   8.433  13.410
81804SOL     OW47308   9.438   3.374   2.224
81804SOL    HW147309   9.368   3.399   2.284
81804SOL    HW247310   9.506   3.441   2.237
81805SOL     OW47311   5.744   0.138   6.804
81805SOL    HW147312   5.718   0.203   6.868
81805SOL    HW247313   5.813   0.087   6.847
81806SOL     OW47314   9.766   4.881   1.510
81806SOL    HW147315   9.758   4.967   1.552
81806SOL    HW247316   9.697   4.828   1.549
81807SOL     OW47317  14.764  11.930  10.942
81807SOL    HW147318  14.704  11.923  11.016
81807SOL    HW247319  14.826  11.859  10.954
81808SOL     OW47320   6.638   7.118   9.709
81808SOL    HW147321   6.722   7.080   9.736
81808SOL    HW247322   6.607   7.058   9.641
81809SOL     OW47323  11.614   7.878  13.049
81809SOL    HW147324  11.597   7.959  13.001
81809SOL    HW247325  11.565   7.811  13.001
81810SOL     OW47326  10.090  13.387   8.593
81810SOL    HW147327  10.023  13.318   8.591
81810SOL    HW247328  10.097  13.416   8.502
81811SOL     OW47329  10.884   0.499   6.550
81811SOL    HW147330  10.833   0.534   6.622
81811SOL    HW247331  10.973   0.530   6.566
81812SOL     OW47332   3.455   8.385  14.034
81812SOL    HW147333   3.517   8.351  14.099
81812SOL    HW247334   3.480   8.477  14.024
81813SOL     OW47335  10.186   9.688  13.908
81813SOL    HW147336  10.260   9.635  13.940
81813SOL    HW247337  10.113   9.662  13.964
81814SOL     OW47338   7.317   0.715   3.993
81814SOL    HW147339   7.248   0.779   3.979
81814SOL    HW247340   7.284   0.658   4.062
81815SOL     OW47341   1.185  11.638  10.007
81815SOL    HW147342   1.209  11.572  10.072
81815SOL    HW247343   1.261  11.695  10.000
81816SOL     OW47344  11.076  13.875  13.394
81816SOL    HW147345  11.098  13.815  13.465
81816SOL    HW247346  11.006  13.830  13.346
81817SOL     OW47347   3.994  11.150   2.468
81817SOL    HW147348   3.919  11.208   2.455
81817SOL    HW247349   4.029  11.176   2.553
81818SOL     OW47350   5.170   9.134   9.840
81818SOL    HW147351   5.113   9.119   9.764
81818SOL    HW247352   5.192   9.227   9.835
81819SOL     OW47353   0.919   7.752   1.145
81819SOL    HW147354   0.875   7.808   1.081
81819SOL    HW247355   0.860   7.678   1.157
81820SOL     OW47356  10.309   3.135   8.688
81820SOL    HW147357  10.220   3.170   8.700
81820SOL    HW247358  10.298   3.040   8.695
81821SOL     OW47359   7.969  13.991   1.277
81821SOL    HW147360   7.980  14.062   1.340
81821SOL    HW247361   7.907  14.024   1.213
81822SOL     OW47362   6.305   1.572   4.657
81822SOL    HW147363   6.363   1.619   4.598
81822SOL    HW247364   6.335   1.598   4.745
81823SOL     OW47365  12.477   3.980  11.908
81823SOL    HW147366  12.483   4.075  11.911
81823SOL    HW247367  12.547   3.953  11.849
81824SOL     OW47368   6.821  14.729  14.204
81824SOL    HW147369   6.769  14.657  14.240
81824SOL    HW247370   6.785  14.742  14.116
81825SOL     OW47371   9.836   9.186   6.384
81825SOL    HW147372   9.777   9.261   6.397
81825SOL    HW247373   9.908   9.202   6.445
81826SOL     OW47374   0.723   5.684  11.139
81826SOL    HW147375   0.770   5.620  11.086
81826SOL    HW247376   0.656   5.633  11.184
81827SOL     OW47377   4.369  14.340   5.317
81827SOL    HW147378   4.439  14.291   5.275
81827SOL    HW247379   4.316  14.373   5.245
81828SOL     OW47380   6.130   3.341  14.717
81828SOL    HW147381   6.060   3.288  14.756
81828SOL    HW247382   6.204   3.330  14.777
81829SOL     OW47383   3.158   6.042   6.150
81829SOL    HW147384   3.182   5.985   6.222
81829SOL    HW247385   3.119   5.984   6.085
81830SOL     OW47386  11.355   7.906  12.091
81830SOL    HW147387  11.317   7.994  12.088
81830SOL    HW247388  11.373   7.885  12.000
81831SOL     OW47389  11.460   8.791   5.728
81831SOL    HW147390  11.551   8.775   5.752
81831SOL    HW247391  11.414   8.795   5.812
81832SOL     OW47392   4.739   2.767   6.900
81832SOL    HW147393   4.781   2.816   6.830
81832SOL    HW247394   4.645   2.776   6.884
81833SOL     OW47395  13.807   2.085   8.400
81833SOL    HW147396  13.736   2.027   8.427
81833SOL    HW247397  13.867   2.029   8.350
81834SOL     OW47398  10.874   9.719   8.499
81834SOL    HW147399  10.838   9.672   8.574
81834SOL    HW247400  10.825   9.802   8.497
81835SOL     OW47401   4.125   5.657  13.669
81835SOL    HW147402   4.168   5.741  13.656
81835SOL    HW247403   4.168   5.598  13.607
81836SOL     OW47404   7.577   9.134  11.941
81836SOL    HW147405   7.563   9.172  12.027
81836SOL    HW247406   7.580   9.039  11.956
81837SOL     OW47407  12.454   5.769   4.223
81837SOL    HW147408  12.374   5.784   4.274
81837SOL    HW247409  12.422   5.746   4.135
81838SOL     OW47410  14.452   9.156   6.173
81838SOL    HW147411  14.503   9.122   6.247
81838SOL    HW247412  14.518   9.190   6.112
81839SOL     OW47413  11.347   4.888   8.235
81839SOL    HW147414  11.424   4.848   8.193
81839SOL    HW247415  11.273   4.836   8.203
81840SOL     OW47416  10.104   0.154   1.301
81840SOL    HW147417  10.083   0.099   1.377
81840SOL    HW247418  10.110   0.092   1.229
81841SOL     OW47419   9.375   9.503   9.422
81841SOL    HW147420   9.342   9.462   9.341
81841SOL    HW247421   9.469   9.511   9.408
81842SOL     OW47422  11.652  13.495   0.204
81842SOL    HW147423  11.718  13.435   0.240
81842SOL    HW247424  11.572  13.474   0.253
81843SOL     OW47425   9.748   4.537   8.634
81843SOL    HW147426   9.685   4.477   8.672
81843SOL    HW247427   9.695   4.605   8.592
81844SOL     OW47428   3.741   2.341   5.351
81844SOL    HW147429   3.789   2.353   5.269
81844SOL    HW247430   3.700   2.255   5.342
81845SOL     OW47431   0.768   2.947   1.573
81845SOL    HW147432   0.850   2.902   1.552
81845SOL    HW247433   0.738   2.982   1.490
81846SOL     OW47434   1.556   7.512   5.183
81846SOL    HW147435   1.561   7.532   5.276
81846SOL    HW247436   1.593   7.588   5.139
81847SOL     OW47437   4.174  13.029   2.831
81847SOL    HW147438   4.133  13.116   2.829
81847SOL    HW247439   4.101  12.968   2.826
81848SOL     OW47440   3.978  12.313   3.445
81848SOL    HW147441   4.008  12.235   3.492
81848SOL    HW247442   4.031  12.384   3.480
81849SOL     OW47443  11.519   2.516   1.459
81849SOL    HW147444  11.435   2.562   1.458
81849SOL    HW247445  11.554   2.530   1.547
81850SOL     OW47446   0.814  11.308  12.478
81850SOL    HW147447   0.850  11.262  12.554
81850SOL    HW247448   0.776  11.239  12.424
81851SOL     OW47449   5.481   1.721   0.156
81851SOL    HW147450   5.518   1.656   0.096
81851SOL    HW247451   5.404   1.755   0.110
81852SOL     OW47452  12.754   5.375   4.668
81852SOL    HW147453  12.811   5.447   4.640
81852SOL    HW247454  12.810   5.319   4.721
81853SOL     OW47455   5.466  12.597  14.258
81853SOL    HW147456   5.482  12.503  14.259
81853SOL    HW247457   5.552  12.636  14.273
81854SOL     OW47458   9.097   6.018   5.819
81854SOL    HW147459   9.098   6.096   5.875
81854SOL    HW247460   9.057   6.048   5.737
81855SOL     OW47461  12.659   8.943   8.199
81855SOL    HW147462  12.672   8.941   8.104
81855SOL    HW247463  12.747   8.955   8.235
81856SOL     OW47464  13.213   1.445   4.125
81856SOL    HW147465  13.240   1.494   4.203
81856SOL    HW247466  13.178   1.362   4.159
81857SOL     OW47467   2.086   7.273   2.849
81857SOL    HW147468   2.068   7.308   2.936
81857SOL    HW247469   2.171   7.310   2.825
81858SOL     OW47470  11.128   7.565   0.673
81858SOL    HW147471  11.163   7.518   0.748
81858SOL    HW247472  11.040   7.590   0.700
81859SOL     OW47473  10.822   4.280  14.335
81859SOL    HW147474  10.765   4.309  14.407
81859SOL    HW247475  10.893   4.344  14.334
81860SOL     OW47476   0.221  10.798  10.283
81860SOL    HW147477   0.187  10.749  10.208
81860SOL    HW247478   0.264  10.732  10.337
81861SOL     OW47479  13.170   0.460  14.375
81861SOL    HW147480  13.121   0.535  14.409
81861SOL    HW247481  13.204   0.490  14.291
81862SOL     OW47482  12.419   4.614   4.884
81862SOL    HW147483  12.420   4.649   4.795
81862SOL    HW247484  12.478   4.672   4.932
81863SOL     OW47485   0.095   8.549   8.584
81863SOL    HW147486   0.079   8.521   8.494
81863SOL    HW247487   0.093   8.468   8.634
81864SOL     OW47488  12.133   5.012   6.515
81864SOL    HW147489  12.208   5.010   6.574
81864SOL    HW247490  12.138   5.098   6.473
81865SOL     OW47491   0.194   5.536  13.726
81865SOL    HW147492   0.159   5.447  13.714
81865SOL    HW247493   0.144   5.590  13.665
81866SOL     OW47494   7.927  14.639   3.042
81866SOL    HW147495   7.955  14.730   3.034
81866SOL    HW247496   7.993  14.599   3.099
81867SOL     OW47497   4.481  13.040  14.129
81867SOL    HW147498   4.508  13.073  14.043
81867SOL    HW247499   4.528  13.096  14.192
81868SOL     OW47500  11.286  10.512  11.329
81868SOL    HW147501  11.294  10.480  11.240
81868SOL    HW247502  11.373  10.500  11.367
81869SOL     OW47503   6.584  14.015   1.837
81869SOL    HW147504   6.638  14.034   1.914
81869SOL    HW247505   6.630  14.058   1.765
81870SOL     OW47506   7.790  14.815  11.689
81870SOL    HW147507   7.751   0.020  11.702
81870SOL    HW247508   7.724  14.754  11.719
81871SOL     OW47509  13.572   7.229   3.619
81871SOL    HW147510  13.485   7.197   3.595
81871SOL    HW247511  13.577   7.216   3.714
81872SOL     OW47512   3.390   8.900   1.749
81872SOL    HW147513   3.486   8.896   1.749
81872SOL    HW247514   3.363   8.819   1.706
81873SOL     OW47515   1.446   1.355   3.781
81873SOL    HW147516   1.354   1.368   3.758
81873SOL    HW247517   1.481   1.443   3.791
81874SOL     OW47518   1.700   3.390   4.317
81874SOL    HW147519   1.715   3.377   4.411
81874SOL    HW247520   1.608   3.368   4.304
81875SOL     OW47521   8.698  13.988   7.222
81875SOL    HW147522   8.626  13.971   7.162
81875SOL    HW247523   8.691  14.082   7.242
81876SOL     OW47524   3.205   8.871   1.968
81876SOL    HW147525   3.270   8.891   1.901
81876SOL    HW247526   3.183   8.955   2.007
81877SOL     OW47527   1.916  14.483  12.288
81877SOL    HW147528   1.938  14.423  12.359
81877SOL    HW247529   1.999  14.501  12.244
81878SOL     OW47530   9.187   3.035   0.519
81878SOL    HW147531   9.155   3.057   0.432
81878SOL    HW247532   9.282   3.025   0.508
81879SOL     OW47533  14.061   8.084  13.916
81879SOL    HW147534  14.121   8.146  13.958
81879SOL    HW247535  13.980   8.091  13.966
81880SOL     OW47536   3.268  11.470  11.637
81880SOL    HW147537   3.336  11.402  11.634
81880SOL    HW247538   3.244  11.475  11.729
81881SOL     OW47539  13.628   1.240   9.261
81881SOL    HW147540  13.552   1.298   9.257
81881SOL    HW247541  13.603   1.163   9.211
81882SOL     OW47542  12.426  11.891  12.671
81882SOL    HW147543  12.388  11.881  12.584
81882SOL    HW247544  12.510  11.935  12.656
81883SOL     OW47545   0.315   1.213   4.515
81883SOL    HW147546   0.235   1.178   4.475
81883SOL    HW247547   0.342   1.146   4.577
81884SOL     OW47548   4.437  13.464  12.385
81884SOL    HW147549   4.479  13.479  12.301
81884SOL    HW247550   4.376  13.537  12.395
81885SOL     OW47551  10.261   0.553   6.881
81885SOL    HW147552  10.289   0.510   6.799
81885SOL    HW247553  10.211   0.485   6.927
81886SOL     OW47554  13.693   2.132   2.578
81886SOL    HW147555  13.776   2.155   2.535
81886SOL    HW247556  13.688   2.192   2.653
81887SOL     OW47557   5.564   0.968   5.388
81887SOL    HW147558   5.560   0.895   5.450
81887SOL    HW247559   5.577   1.045   5.443
81888SOL     OW47560  13.934   2.164  14.720
81888SOL    HW147561  13.933   2.243  14.774
81888SOL    HW247562  13.849   2.124  14.735
81889SOL     OW47563  10.565  14.417   5.262
81889SOL    HW147564  10.607  14.485   5.315
81889SOL    HW247565  10.555  14.456   5.176
81890SOL     OW47566   4.738  14.087   0.951
81890SOL    HW147567   4.662  14.091   1.009
81890SOL    HW247568   4.728  14.003   0.905
81891SOL     OW47569   7.477   2.189  13.427
81891SOL    HW147570   7.432   2.228  13.352
81891SOL    HW247571   7.566   2.172  13.395
81892SOL     OW47572   9.235   2.001  12.177
81892SOL    HW147573   9.192   2.012  12.092
81892SOL    HW247574   9.167   1.964  12.233
81893SOL     OW47575   1.904  10.852   9.026
81893SOL    HW147576   1.932  10.907   9.100
81893SOL    HW247577   1.920  10.905   8.949
81894SOL     OW47578   0.699  10.827   2.870
81894SOL    HW147579   0.663  10.900   2.820
81894SOL    HW247580   0.791  10.822   2.843
81895SOL     OW47581   2.816   2.570   5.769
81895SOL    HW147582   2.899   2.596   5.728
81895SOL    HW247583   2.755   2.639   5.744
81896SOL     OW47584  13.267   7.678   4.078
81896SOL    HW147585  13.314   7.760   4.093
81896SOL    HW247586  13.190   7.703   4.027
81897SOL     OW47587   4.927   2.605   3.514
81897SOL    HW147588   5.013   2.583   3.550
81897SOL    HW247589   4.931   2.572   3.424
81898SOL     OW47590   4.055  13.791  12.307
81898SOL    HW147591   4.131  13.745  12.341
81898SOL    HW247592   4.073  13.801  12.213
81899SOL     OW47593   8.539   2.878  11.418
81899SOL    HW147594   8.562   2.785  11.413
81899SOL    HW247595   8.444   2.880  11.426
81900SOL     OW47596   5.349   8.934  10.222
81900SOL    HW147597   5.263   8.893  10.215
81900SOL    HW247598   5.411   8.864  10.202
81901SOL     OW47599   3.071   8.234   7.581
81901SOL    HW147600   2.987   8.251   7.537
81901SOL    HW247601   3.053   8.159   7.638
81902SOL     OW47602   7.469   5.636  12.640
81902SOL    HW147603   7.405   5.564  12.646
81902SOL    HW247604   7.529   5.608  12.571
81903SOL     OW47605   8.116   4.769   2.182
81903SOL    HW147606   8.108   4.863   2.168
81903SOL    HW247607   8.107   4.731   2.094
81904SOL     OW47608   4.014  12.596   5.058
81904SOL    HW147609   3.997  12.537   5.131
81904SOL    HW247610   4.013  12.684   5.097
81905SOL     OW47611   9.058  13.343   2.236
81905SOL    HW147612   9.141  13.387   2.252
81905SOL    HW247613   9.032  13.372   2.149
81906SOL     OW47614   9.667   5.393   2.851
81906SOL    HW147615   9.593   5.452   2.833
81906SOL    HW247616   9.640   5.310   2.810
81907SOL     OW47617  14.703  14.041   7.182
81907SOL    HW147618  14.784  14.001   7.213
81907SOL    HW247619  14.730  14.096   7.108
81908SOL     OW47620   7.803  10.801   0.005
81908SOL    HW147621   7.837  10.838   0.086
81908SOL    HW247622   7.859  10.725  14.871
81909SOL     OW47623  11.885  11.958  10.858
81909SOL    HW147624  11.894  11.917  10.943
81909SOL    HW247625  11.844  11.891  10.803
81910SOL     OW47626   7.175   7.334  11.726
81910SOL    HW147627   7.224   7.386  11.790
81910SOL    HW247628   7.214   7.247  11.731
81911SOL     OW47629   2.683   0.968  12.180
81911SOL    HW147630   2.696   1.059  12.155
81911SOL    HW247631   2.598   0.966  12.223
81912SOL     OW47632   4.827   8.976  11.759
81912SOL    HW147633   4.892   8.991  11.690
81912SOL    HW247634   4.810   9.063  11.795
81913SOL     OW47635   0.656   5.943  14.186
81913SOL    HW147636   0.662   5.849  14.203
81913SOL    HW247637   0.588   5.951  14.119
81914SOL     OW47638   1.880   4.061   6.963
81914SOL    HW147639   1.807   4.002   6.982
81914SOL    HW247640   1.850   4.146   6.996
81915SOL     OW47641   0.359  10.839   8.789
81915SOL    HW147642   0.440  10.860   8.835
81915SOL    HW247643   0.340  10.916   8.735
81916SOL     OW47644  11.613   8.228  14.052
81916SOL    HW147645  11.702   8.205  14.027
81916SOL    HW247646  11.566   8.238  13.969
81917SOL     OW47647   0.184   6.014   6.093
81917SOL    HW147648   0.128   6.091   6.081
81917SOL    HW247649   0.162   5.981   6.180
81918SOL     OW47650   7.847   9.162   1.179
81918SOL    HW147651   7.863   9.090   1.119
81918SOL    HW247652   7.900   9.235   1.145
81919SOL     OW47653  10.645  10.609   5.905
81919SOL    HW147654  10.721  10.653   5.943
81919SOL    HW247655  10.681  10.530   5.864
81920SOL     OW47656   1.387  13.861  13.659
81920SOL    HW147657   1.470  13.885  13.617
81920SOL    HW247658   1.384  13.916  13.738
81921SOL     OW47659   3.999   3.726   5.997
81921SOL    HW147660   3.946   3.751   6.072
81921SOL    HW247661   3.950   3.758   5.921
81922SOL     OW47662   0.669   6.963   6.040
81922SOL    HW147663   0.653   7.058   6.039
81922SOL    HW247664   0.582   6.925   6.050
81923SOL     OW47665   0.365   2.650   4.577
81923SOL    HW147666   0.459   2.661   4.589
81923SOL    HW247667   0.336   2.732   4.537
81924SOL     OW47668  11.434   5.843  13.379
81924SOL    HW147669  11.375   5.772  13.352
81924SOL    HW247670  11.499   5.799  13.435
81925SOL     OW47671   0.880   9.216  14.000
81925SOL    HW147672   0.897   9.278  13.929
81925SOL    HW247673   0.917   9.259  14.078
81926SOL     OW47674  10.518   7.789  12.804
81926SOL    HW147675  10.583   7.719  12.803
81926SOL    HW247676  10.568   7.868  12.822
81927SOL     OW47677   5.518   5.754   3.803
81927SOL    HW147678   5.453   5.796   3.859
81927SOL    HW247679   5.474   5.739   3.720
81928SOL     OW47680  12.791  14.456  10.466
81928SOL    HW147681  12.804  14.447  10.560
81928SOL    HW247682  12.746  14.540  10.456
81929SOL     OW47683  10.604  13.944   1.893
81929SOL    HW147684  10.596  14.034   1.925
81929SOL    HW247685  10.563  13.947   1.806
81930SOL     OW47686  14.559   5.377   5.730
81930SOL    HW147687  14.527   5.330   5.653
81930SOL    HW247688  14.482   5.422   5.765
81931SOL     OW47689  13.636  14.395   9.484
81931SOL    HW147690  13.671  14.365   9.568
81931SOL    HW247691  13.712  14.394   9.425
81932SOL     OW47692  10.109   2.533  12.887
81932SOL    HW147693  10.181   2.595  12.901
81932SOL    HW247694  10.138   2.452  12.929
81933SOL     OW47695   5.108  11.980   0.632
81933SOL    HW147696   5.022  11.996   0.592
81933SOL    HW247697   5.087  11.950   0.721
81934SOL     OW47698   8.844  11.424   0.399
81934SOL    HW147699   8.878  11.387   0.480
81934SOL    HW247700   8.912  11.484   0.369
81935SOL     OW47701  12.822   8.989   6.622
81935SOL    HW147702  12.829   8.945   6.707
81935SOL    HW247703  12.912   9.014   6.601
81936SOL     OW47704   2.403   3.307   9.653
81936SOL    HW147705   2.496   3.285   9.645
81936SOL    HW247706   2.372   3.313   9.563
81937SOL     OW47707   6.072   3.436   1.516
81937SOL    HW147708   6.161   3.471   1.523
81937SOL    HW247709   6.017   3.513   1.505
81938SOL     OW47710   6.900   2.819  12.999
81938SOL    HW147711   6.990   2.820  12.965
81938SOL    HW247712   6.911   2.802  13.093
81939SOL     OW47713   5.365   5.322  10.770
81939SOL    HW147714   5.318   5.243  10.796
81939SOL    HW247715   5.353   5.326  10.675
81940SOL     OW47716  14.746   4.318   9.504
81940SOL    HW147717  14.822   4.376   9.491
81940SOL    HW247718  14.713   4.342   9.590
81941SOL     OW47719  10.664  12.609   5.302
81941SOL    HW147720  10.596  12.664   5.341
81941SOL    HW247721  10.618  12.557   5.236
81942SOL     OW47722   4.106   4.312   0.837
81942SOL    HW147723   4.104   4.281   0.746
81942SOL    HW247724   4.105   4.407   0.829
81943SOL     OW47725   7.681   0.512   5.751
81943SOL    HW147726   7.698   0.494   5.659
81943SOL    HW247727   7.767   0.518   5.792
81944SOL     OW47728  10.754  14.820  14.406
81944SOL    HW147729  10.764  14.739  14.356
81944SOL    HW247730  10.713  14.881  14.346
81945SOL     OW47731  12.835   4.980   0.021
81945SOL    HW147732  12.782   5.044   0.068
81945SOL    HW247733  12.837   4.904   0.078
81946SOL     OW47734  13.686   3.980   5.975
81946SOL    HW147735  13.749   3.913   6.005
81946SOL    HW247736  13.739   4.060   5.967
81947SOL     OW47737   8.517   9.471  14.213
81947SOL    HW147738   8.585   9.536  14.195
81947SOL    HW247739   8.530   9.404  14.145
81948SOL     OW47740   9.741  14.739   4.870
81948SOL    HW147741   9.671  14.783   4.918
81948SOL    HW247742   9.695  14.672   4.818
81949SOL     OW47743   3.702   2.250   1.037
81949SOL    HW147744   3.782   2.203   1.059
81949SOL    HW247745   3.672   2.287   1.120
81950SOL     OW47746   7.028   1.644   3.544
81950SOL    HW147747   7.090   1.640   3.471
81950SOL    HW247748   7.065   1.709   3.603
81951SOL     OW47749   7.607   2.775   9.753
81951SOL    HW147750   7.623   2.682   9.734
81951SOL    HW247751   7.641   2.787   9.841
81952SOL     OW47752  10.463   3.306   0.358
81952SOL    HW147753  10.552   3.279   0.333
81952SOL    HW247754  10.471   3.401   0.373
81953SOL     OW47755   7.126   0.934   0.882
81953SOL    HW147756   7.094   0.851   0.917
81953SOL    HW247757   7.167   0.978   0.957
81954SOL     OW47758  10.487   5.110  12.825
81954SOL    HW147759  10.393   5.096  12.838
81954SOL    HW247760  10.502   5.200  12.854
81955SOL     OW47761   1.760   6.289   3.726
81955SOL    HW147762   1.763   6.383   3.711
81955SOL    HW247763   1.846   6.268   3.764
81956SOL     OW47764   7.785   1.319   2.348
81956SOL    HW147765   7.706   1.290   2.395
81956SOL    HW247766   7.824   1.239   2.314
81957SOL     OW47767   7.373   1.986   3.136
81957SOL    HW147768   7.295   2.038   3.119
81957SOL    HW247769   7.366   1.961   3.228
81958SOL     OW47770  11.310  14.082   8.437
81958SOL    HW147771  11.271  14.165   8.410
81958SOL    HW247772  11.386  14.107   8.488
81959SOL     OW47773   6.855  11.480   7.331
81959SOL    HW147774   6.852  11.384   7.331
81959SOL    HW247775   6.799  11.505   7.258
81960SOL     OW47776   9.706   4.353  13.255
81960SOL    HW147777   9.667   4.301  13.185
81960SOL    HW247778   9.722   4.439  13.214
81961SOL     OW47779  10.213   2.788  10.213
81961SOL    HW147780  10.259   2.835  10.144
81961SOL    HW247781  10.257   2.703  10.218
81962SOL     OW47782   2.049   7.639   9.900
81962SOL    HW147783   2.118   7.636   9.834
81962SOL    HW247784   2.032   7.732   9.913
81963SOL     OW47785  12.322   1.223   2.597
81963SOL    HW147786  12.375   1.253   2.523
81963SOL    HW247787  12.270   1.299   2.622
81964SOL     OW47788   9.176  11.292  11.156
81964SOL    HW147789   9.230  11.276  11.234
81964SOL    HW247790   9.088  11.265  11.182
81965SOL     OW47791   9.055   9.928  13.745
81965SOL    HW147792   9.091   9.997  13.689
81965SOL    HW247793   9.049   9.969  13.832
81966SOL     OW47794  12.553   0.057   9.188
81966SOL    HW147795  12.609  14.870   9.152
81966SOL    HW247796  12.590   0.075   9.274
81967SOL     OW47797   3.330   8.296  11.026
81967SOL    HW147798   3.361   8.379  11.061
81967SOL    HW247799   3.406   8.257  10.984
81968SOL     OW47800   3.360   7.639   1.380
81968SOL    HW147801   3.307   7.660   1.303
81968SOL    HW247802   3.297   7.633   1.452
81969SOL     OW47803   7.280   6.234   0.611
81969SOL    HW147804   7.249   6.285   0.536
81969SOL    HW247805   7.206   6.236   0.672
81970SOL     OW47806   3.153   4.013   9.924
81970SOL    HW147807   3.202   4.075   9.871
81970SOL    HW247808   3.063   4.023   9.896
81971SOL     OW47809   0.768   0.091   2.887
81971SOL    HW147810   0.787   0.128   2.974
81971SOL    HW247811   0.689   0.038   2.901
81972SOL     OW47812  10.914   8.502   6.642
81972SOL    HW147813  10.833   8.539   6.605
81972SOL    HW247814  10.923   8.546   6.727
81973SOL     OW47815  11.027   9.315   6.496
81973SOL    HW147816  10.936   9.345   6.506
81973SOL    HW247817  11.022   9.220   6.506
81974SOL     OW47818  11.535  11.000  11.921
81974SOL    HW147819  11.486  10.953  11.988
81974SOL    HW247820  11.503  10.964  11.838
81975SOL     OW47821   3.457   9.443   0.057
81975SOL    HW147822   3.486   9.518   0.108
81975SOL    HW247823   3.471   9.368   0.114
81976SOL     OW47824   4.863   9.068   4.855
81976SOL    HW147825   4.842   9.032   4.769
81976SOL    HW247826   4.955   9.047   4.868
81977SOL     OW47827   8.593  11.329   9.323
81977SOL    HW147828   8.525  11.275   9.283
81977SOL    HW247829   8.557  11.357   9.407
81978SOL     OW47830   9.214   3.437   7.884
81978SOL    HW147831   9.231   3.472   7.971
81978SOL    HW247832   9.226   3.342   7.894
81979SOL     OW47833  11.430   3.765   8.782
81979SOL    HW147834  11.456   3.681   8.818
81979SOL    HW247835  11.376   3.805   8.851
81980SOL     OW47836   4.799   6.958  13.360
81980SOL    HW147837   4.835   6.962  13.449
81980SOL    HW247838   4.818   6.869  13.330
81981SOL     OW47839   3.123   2.076   7.396
81981SOL    HW147840   3.210   2.098   7.363
81981SOL    HW247841   3.063   2.127   7.342
81982SOL     OW47842   1.692   4.943   9.474
81982SOL    HW147843   1.696   4.850   9.453
81982SOL    HW247844   1.756   4.984   9.416
81983SOL     OW47845   5.629   8.097   0.901
81983SOL    HW147846   5.567   8.156   0.858
81983SOL    HW247847   5.677   8.057   0.828
81984SOL     OW47848   8.518  12.061   8.874
81984SOL    HW147849   8.602  12.091   8.840
81984SOL    HW247850   8.476  12.140   8.908
81985SOL     OW47851  12.280   6.611   7.114
81985SOL    HW147852  12.304   6.518   7.112
81985SOL    HW247853  12.331   6.647   7.186
81986SOL     OW47854  14.021   9.168  11.537
81986SOL    HW147855  14.071   9.225  11.596
81986SOL    HW247856  13.961   9.227  11.491
81987SOL     OW47857  10.048  12.920   0.105
81987SOL    HW147858  10.051  12.845   0.045
81987SOL    HW247859  10.101  12.987   0.062
81988SOL     OW47860  13.615  10.850  12.146
81988SOL    HW147861  13.611  10.764  12.189
81988SOL    HW247862  13.687  10.843  12.084
81989SOL     OW47863  10.851   6.376   1.979
81989SOL    HW147864  10.825   6.466   1.958
81989SOL    HW247865  10.818   6.324   1.905
81990SOL     OW47866  12.202   5.672   7.595
81990SOL    HW147867  12.285   5.657   7.639
81990SOL    HW247868  12.137   5.669   7.665
81991SOL     OW47869   6.204   8.997  11.990
81991SOL    HW147870   6.269   8.935  12.022
81991SOL    HW247871   6.122   8.947  11.990
81992SOL     OW47872   1.756   4.616   4.891
81992SOL    HW147873   1.681   4.589   4.944
81992SOL    HW247874   1.734   4.589   4.802
81993SOL     OW47875  12.801  11.135   5.246
81993SOL    HW147876  12.816  11.202   5.180
81993SOL    HW247877  12.839  11.171   5.326
81994SOL     OW47878   4.760   2.741  11.231
81994SOL    HW147879   4.731   2.654  11.203
81994SOL    HW247880   4.701   2.764  11.303
81995SOL     OW47881  10.434   0.058   1.202
81995SOL    HW147882  10.517   0.022   1.171
81995SOL    HW247883  10.402   0.111   1.130
81996SOL     OW47884  11.313  12.896   3.962
81996SOL    HW147885  11.256  12.964   3.999
81996SOL    HW247886  11.319  12.918   3.869
81997SOL     OW47887   3.208   2.122  12.186
81997SOL    HW147888   3.122   2.083  12.199
81997SOL    HW247889   3.190   2.207  12.146
81998SOL     OW47890   6.660  14.482   2.928
81998SOL    HW147891   6.616  14.414   2.877
81998SOL    HW247892   6.601  14.498   3.002
81999SOL     OW47893  10.819  13.141  10.875
81999SOL    HW147894  10.849  13.148  10.784
81999SOL    HW247895  10.801  13.048  10.887
82000SOL     OW47896   4.574   7.020  13.556
82000SOL    HW147897   4.622   7.092  13.596
82000SOL    HW247898   4.631   6.989  13.485
82001SOL     OW47899   9.767   3.987   9.519
82001SOL    HW147900   9.758   3.896   9.493
82001SOL    HW247901   9.693   4.003   9.577
82002SOL     OW47902  10.400   0.553   9.875
82002SOL    HW147903  10.478   0.558   9.930
82002SOL    HW247904  10.327   0.568   9.934
82003SOL     OW47905   7.432  10.935  13.874
82003SOL    HW147906   7.508  10.981  13.837
82003SOL    HW247907   7.463  10.904  13.959
82004SOL     OW47908   3.939   1.927  13.370
82004SOL    HW147909   3.864   1.890  13.324
82004SOL    HW247910   3.909   1.938  13.460
82005SOL     OW47911   2.867   2.228  11.920
82005SOL    HW147912   2.781   2.243  11.879
82005SOL    HW247913   2.857   2.260  12.009
82006SOL     OW47914  13.733   1.908   0.213
82006SOL    HW147915  13.654   1.857   0.230
82006SOL    HW247916  13.800   1.842   0.192
82007SOL     OW47917  13.974  12.880   4.290
82007SOL    HW147918  14.042  12.848   4.350
82007SOL    HW247919  13.897  12.892   4.346
82008SOL     OW47920  13.926   5.214   7.423
82008SOL    HW147921  13.992   5.273   7.459
82008SOL    HW247922  13.894   5.258   7.344
82009SOL     OW47923   6.162   0.769   7.742
82009SOL    HW147924   6.098   0.801   7.678
82009SOL    HW247925   6.209   0.700   7.696
82010SOL     OW47926  13.107  10.237   9.125
82010SOL    HW147927  13.016  10.222   9.152
82010SOL    HW247928  13.152  10.156   9.150
82011SOL     OW47929   9.270   9.881  10.036
82011SOL    HW147930   9.244   9.966  10.070
82011SOL    HW247931   9.191   9.848   9.992
82012SOL     OW47932   0.263   7.100   9.566
82012SOL    HW147933   0.224   7.168   9.622
82012SOL    HW247934   0.241   7.018   9.609
82013SOL     OW47935   5.013   1.857   9.007
82013SOL    HW147936   5.067   1.894   8.937
82013SOL    HW247937   5.039   1.765   9.011
82014SOL     OW47938   8.495   4.778  14.038
82014SOL    HW147939   8.579   4.775  13.992
82014SOL    HW247940   8.502   4.855  14.094
82015SOL     OW47941   1.110   2.854  11.984
82015SOL    HW147942   1.141   2.779  11.933
82015SOL    HW247943   1.020   2.833  12.007
82016SOL     OW47944   8.162  10.255  12.154
82016SOL    HW147945   8.083  10.257  12.100
82016SOL    HW247946   8.198  10.167  12.140
82017SOL     OW47947   9.567   5.443  13.396
82017SOL    HW147948   9.502   5.424  13.463
82017SOL    HW247949   9.561   5.538  13.383
82018SOL     OW47950   4.270  11.190   8.526
82018SOL    HW147951   4.319  11.127   8.579
82018SOL    HW247952   4.220  11.240   8.590
82019SOL     OW47953  14.428   7.231   6.017
82019SOL    HW147954  14.523   7.232   6.022
82019SOL    HW247955  14.403   7.145   6.050
82020SOL     OW47956   5.432   3.598  10.654
82020SOL    HW147957   5.393   3.517  10.685
82020SOL    HW247958   5.358   3.660  10.651
82021SOL     OW47959   1.896   2.070  12.440
82021SOL    HW147960   1.931   2.148  12.396
82021SOL    HW247961   1.886   2.006  12.370
82022SOL     OW47962  11.487   8.883   4.087
82022SOL    HW147963  11.529   8.913   4.006
82022SOL    HW247964  11.400   8.922   4.084
82023SOL     OW47965   2.871   6.839   0.495
82023SOL    HW147966   2.917   6.916   0.460
82023SOL    HW247967   2.838   6.794   0.417
82024SOL     OW47968   1.272  13.827  11.427
82024SOL    HW147969   1.286  13.872  11.510
82024SOL    HW247970   1.350  13.773  11.416
82025SOL     OW47971   2.346  12.215   3.688
82025SOL    HW147972   2.343  12.140   3.748
82025SOL    HW247973   2.399  12.185   3.614
82026SOL     OW47974   1.068   2.069   5.125
82026SOL    HW147975   1.152   2.070   5.172
82026SOL    HW247976   1.021   1.994   5.161
82027SOL     OW47977   4.129   2.844  12.571
82027SOL    HW147978   4.167   2.890  12.645
82027SOL    HW247979   4.035   2.858  12.579
82028SOL     OW47980   1.421   7.194   8.775
82028SOL    HW147981   1.351   7.216   8.837
82028SOL    HW247982   1.413   7.100   8.761
82029SOL     OW47983  13.775   3.930   3.432
82029SOL    HW147984  13.833   3.944   3.358
82029SOL    HW247985  13.687   3.931   3.394
82030SOL     OW47986  12.974   2.926   3.053
82030SOL    HW147987  12.971   2.883   2.968
82030SOL    HW247988  12.890   2.906   3.094
82031SOL     OW47989   4.929   9.277  11.228
82031SOL    HW147990   4.900   9.332  11.301
82031SOL    HW247991   4.979   9.207  11.270
82032SOL     OW47992  10.105   7.852  10.638
82032SOL    HW147993  10.030   7.887  10.590
82032SOL    HW247994  10.182   7.886  10.591
82033SOL     OW47995   7.040   1.211  11.911
82033SOL    HW147996   7.029   1.174  11.824
82033SOL    HW247997   7.019   1.304  11.901
82034SOL     OW47998  10.731  11.416  10.646
82034SOL    HW147999  10.763  11.490  10.697
82034SOL    HW248000  10.637  11.416  10.659
82035SOL     OW48001   6.116  10.005   1.317
82035SOL    HW148002   6.165  10.075   1.362
82035SOL    HW248003   6.174   9.929   1.320
82036SOL     OW48004  13.986   8.769  10.735
82036SOL    HW148005  13.939   8.811  10.662
82036SOL    HW248006  14.045   8.837  10.767
82037SOL     OW48007   6.983  12.112   3.535
82037SOL    HW148008   7.000  12.026   3.496
82037SOL    HW248009   7.034  12.112   3.616
82038SOL     OW48010   0.829  12.335   0.509
82038SOL    HW148011   0.759  12.397   0.531
82038SOL    HW248012   0.824  12.325   0.414
82039SOL     OW48013   1.821   4.319   1.876
82039SOL    HW148014   1.780   4.294   1.959
82039SOL    HW248015   1.761   4.385   1.839
82040SOL     OW48016  13.567   7.171   1.210
82040SOL    HW148017  13.521   7.154   1.292
82040SOL    HW248018  13.653   7.132   1.221
82041SOL     OW48019  10.324   6.694   2.637
82041SOL    HW148020  10.284   6.613   2.607
82041SOL    HW248021  10.270   6.763   2.598
82042SOL     OW48022   5.008   7.374  14.704
82042SOL    HW148023   4.927   7.389  14.753
82042SOL    HW248024   5.032   7.284  14.724
82043SOL     OW48025  10.659  12.353   2.082
82043SOL    HW148026  10.626  12.301   2.008
82043SOL    HW248027  10.587  12.353   2.145
82044SOL     OW48028   1.989  12.656   6.674
82044SOL    HW148029   2.058  12.592   6.690
82044SOL    HW248030   1.965  12.643   6.582
82045SOL     OW48031  14.047  13.135   7.116
82045SOL    HW148032  14.075  13.216   7.072
82045SOL    HW248033  14.086  13.065   7.063
82046SOL     OW48034  10.526  12.144   7.687
82046SOL    HW148035  10.620  12.136   7.672
82046SOL    HW248036  10.516  12.138   7.782
82047SOL     OW48037   3.048   3.280   3.427
82047SOL    HW148038   2.967   3.299   3.381
82047SOL    HW248039   3.117   3.297   3.363
82048SOL     OW48040  10.438  11.893  11.032
82048SOL    HW148041  10.374  11.939  10.978
82048SOL    HW248042  10.523  11.916  10.994
82049SOL     OW48043   9.561  14.319  11.066
82049SOL    HW148044   9.521  14.337  10.981
82049SOL    HW248045   9.497  14.353  11.130
82050SOL     OW48046   8.748   3.757   3.000
82050SOL    HW148047   8.738   3.814   2.924
82050SOL    HW248048   8.727   3.669   2.966
82051SOL     OW48049   7.318   8.347   0.409
82051SOL    HW148050   7.338   8.376   0.498
82051SOL    HW248051   7.316   8.428   0.358
82052SOL     OW48052  10.500   5.851   8.281
82052SOL    HW148053  10.575   5.856   8.341
82052SOL    HW248054  10.424   5.864   8.337
82053SOL     OW48055   7.210   1.953  12.380
82053SOL    HW148056   7.270   2.000  12.321
82053SOL    HW248057   7.225   1.861  12.360
82054SOL     OW48058   3.106   4.710  12.912
82054SOL    HW148059   3.044   4.752  12.852
82054SOL    HW248060   3.116   4.621  12.878
82055SOL     OW48061   9.524  12.021   1.361
82055SOL    HW148062   9.600  11.996   1.413
82055SOL    HW248063   9.450  11.980   1.406
82056SOL     OW48064  14.451   6.677   4.224
82056SOL    HW148065  14.459   6.772   4.222
82056SOL    HW248066  14.373   6.658   4.173
82057SOL     OW48067   0.991  11.672  13.205
82057SOL    HW148068   0.957  11.612  13.140
82057SOL    HW248069   0.914  11.715  13.242
82058SOL     OW48070   0.374   6.351  13.129
82058SOL    HW148071   0.457   6.313  13.159
82058SOL    HW248072   0.307   6.305  13.180
82059SOL     OW48073   5.801  11.046   2.035
82059SOL    HW148074   5.833  11.134   2.057
82059SOL    HW248075   5.841  11.026   1.951
82060SOL     OW48076  10.343   1.632   4.128
82060SOL    HW148077  10.282   1.665   4.193
82060SOL    HW248078  10.373   1.710   4.081
82061SOL     OW48079  10.810   4.255  11.692
82061SOL    HW148080  10.733   4.258  11.635
82061SOL    HW248081  10.779   4.288  11.776
82062SOL     OW48082   1.886   6.296   5.878
82062SOL    HW148083   1.804   6.254   5.901
82062SOL    HW248084   1.952   6.227   5.887
82063SOL     OW48085   9.305  14.113   6.161
82063SOL    HW148086   9.312  14.208   6.161
82063SOL    HW248087   9.376  14.083   6.103
82064SOL     OW48088  13.380   4.259   0.936
82064SOL    HW148089  13.462   4.211   0.950
82064SOL    HW248090  13.405   4.331   0.878
82065SOL     OW48091  11.007   3.948   6.580
82065SOL    HW148092  10.961   3.917   6.658
82065SOL    HW248093  11.072   3.880   6.562
82066SOL     OW48094  11.972   9.012  13.165
82066SOL    HW148095  12.055   8.983  13.202
82066SOL    HW248096  11.957   9.099  13.202
82067SOL     OW48097   9.949   6.052   5.544
82067SOL    HW148098  10.025   6.088   5.499
82067SOL    HW248099   9.874   6.088   5.498
82068SOL     OW48100  12.686   4.321  10.629
82068SOL    HW148101  12.649   4.330  10.717
82068SOL    HW248102  12.697   4.411  10.598
82069SOL     OW48103   7.612  11.744   7.786
82069SOL    HW148104   7.667  11.770   7.860
82069SOL    HW248105   7.532  11.711   7.826
82070SOL     OW48106  14.134   3.493   5.025
82070SOL    HW148107  14.204   3.432   5.045
82070SOL    HW248108  14.076   3.444   4.966
82071SOL     OW48109   1.736   3.940  10.854
82071SOL    HW148110   1.795   3.890  10.911
82071SOL    HW248111   1.655   3.946  10.904
82072SOL     OW48112   7.154  10.311  13.506
82072SOL    HW148113   7.216  10.345  13.442
82072SOL    HW248114   7.156  10.375  13.578
82073SOL     OW48115   1.734   3.657  13.827
82073SOL    HW148116   1.684   3.701  13.895
82073SOL    HW248117   1.687   3.575  13.812
82074SOL     OW48118  12.094   5.816   5.194
82074SOL    HW148119  12.088   5.865   5.112
82074SOL    HW248120  12.187   5.820   5.218
82075SOL     OW48121  14.801  14.157   2.519
82075SOL    HW148122  14.782  14.081   2.465
82075SOL    HW248123  14.875  14.130   2.573
82076SOL     OW48124   3.855   8.342  10.790
82076SOL    HW148125   3.764   8.355  10.815
82076SOL    HW248126   3.864   8.390  10.708
82077SOL     OW48127   0.363   8.181   3.639
82077SOL    HW148128   0.306   8.208   3.711
82077SOL    HW248129   0.451   8.193   3.673
82078SOL     OW48130   4.716  10.026   7.261
82078SOL    HW148131   4.782  10.094   7.276
82078SOL    HW248132   4.715   9.975   7.341
82079SOL     OW48133   1.396  12.550   5.899
82079SOL    HW148134   1.364  12.586   5.982
82079SOL    HW248135   1.471  12.604   5.876
82080SOL     OW48136   5.661   3.314   2.838
82080SOL    HW148137   5.661   3.387   2.900
82080SOL    HW248138   5.611   3.346   2.763
82081SOL     OW48139  12.863   9.288   5.974
82081SOL    HW148140  12.891   9.269   5.884
82081SOL    HW248141  12.927   9.352   6.005
82082SOL     OW48142   7.706  13.093  14.495
82082SOL    HW148143   7.618  13.087  14.458
82082SOL    HW248144   7.695  13.071  14.587
82083SOL     OW48145   2.894   3.070   9.780
82083SOL    HW148146   2.962   3.080   9.714
82083SOL    HW248147   2.914   3.136   9.846
82084SOL     OW48148   9.257   4.852  14.245
82084SOL    HW148149   9.268   4.832  14.338
82084SOL    HW248150   9.216   4.938  14.243
82085SOL     OW48151   9.750   4.639   3.520
82085SOL    HW148152   9.670   4.658   3.471
82085SOL    HW248153   9.818   4.634   3.454
82086SOL     OW48154   5.697   7.374  14.162
82086SOL    HW148155   5.785   7.388  14.128
82086SOL    HW248156   5.708   7.374  14.257
82087SOL     OW48157  12.199  13.550   3.746
82087SOL    HW148158  12.121  13.545   3.690
82087SOL    HW248159  12.183  13.486   3.815
82088SOL     OW48160   5.603  11.402  10.248
82088SOL    HW148161   5.645  11.423  10.332
82088SOL    HW248162   5.564  11.485  10.220
82089SOL     OW48163  13.844   6.092   5.121
82089SOL    HW148164  13.840   6.099   5.026
82089SOL    HW248165  13.758   6.056   5.146
82090SOL     OW48166   5.012   2.641   4.059
82090SOL    HW148167   5.042   2.598   3.980
82090SOL    HW248168   5.085   2.635   4.120
82091SOL     OW48169   3.207   0.164   6.720
82091SOL    HW148170   3.221   0.253   6.752
82091SOL    HW248171   3.127   0.136   6.763
82092SOL     OW48172  13.261   0.226   4.789
82092SOL    HW148173  13.238   0.146   4.742
82092SOL    HW248174  13.289   0.196   4.875
82093SOL     OW48175   8.903  12.613   2.642
82093SOL    HW148176   8.847  12.688   2.620
82093SOL    HW248177   8.899  12.556   2.566
82094SOL     OW48178  12.430   3.366  11.319
82094SOL    HW148179  12.386   3.448  11.296
82094SOL    HW248180  12.520   3.378  11.287
82095SOL     OW48181   8.423  10.673  12.345
82095SOL    HW148182   8.505  10.719  12.363
82095SOL    HW248183   8.367  10.739  12.304
82096SOL     OW48184   3.025  13.448   4.692
82096SOL    HW148185   2.934  13.431   4.666
82096SOL    HW248186   3.033  13.543   4.690
82097SOL     OW48187   3.608  14.468   6.044
82097SOL    HW148188   3.621  14.443   6.135
82097SOL    HW248189   3.523  14.431   6.021
82098SOL     OW48190  14.647   2.419   3.708
82098SOL    HW148191  14.591   2.458   3.641
82098SOL    HW248192  14.587   2.365   3.760
82099SOL     OW48193  11.889   9.543  11.958
82099SOL    HW148194  11.955   9.485  11.996
82099SOL    HW248195  11.846   9.489  11.891
82100SOL     OW48196  10.918   7.754   8.406
82100SOL    HW148197  10.990   7.692   8.414
82100SOL    HW248198  10.960   7.840   8.409
82101SOL     OW48199   6.925  14.015  10.656
82101SOL    HW148200   6.962  13.985  10.573
82101SOL    HW248201   6.994  13.999  10.721
82102SOL     OW48202   9.388  13.465   2.055
82102SOL    HW148203   9.331  13.488   2.129
82102SOL    HW248204   9.437  13.545   2.038
82103SOL     OW48205  10.939   9.779   6.255
82103SOL    HW148206  10.956   9.814   6.343
82103SOL    HW248207  11.025   9.780   6.213
82104SOL     OW48208  13.951   0.961   1.832
82104SOL    HW148209  13.888   0.902   1.875
82104SOL    HW248210  14.024   0.905   1.808
82105SOL     OW48211   6.723  12.323   0.925
82105SOL    HW148212   6.737  12.233   0.895
82105SOL    HW248213   6.771  12.328   1.008
82106SOL     OW48214   1.537   7.716   7.125
82106SOL    HW148215   1.519   7.692   7.215
82106SOL    HW248216   1.589   7.644   7.090
82107SOL     OW48217  13.648   6.384   1.307
82107SOL    HW148218  13.614   6.359   1.393
82107SOL    HW248219  13.655   6.479   1.311
82108SOL     OW48220  14.126  10.098   6.500
82108SOL    HW148221  14.038  10.066   6.481
82108SOL    HW248222  14.184  10.030   6.465
82109SOL     OW48223   6.472   8.204  13.941
82109SOL    HW148224   6.518   8.156  13.872
82109SOL    HW248225   6.386   8.224  13.903
82110SOL     OW48226  14.807   5.722   6.296
82110SOL    HW148227  14.821   5.693   6.206
82110SOL    HW248228  14.714   5.743   6.300
82111SOL     OW48229   3.411   9.399   9.192
82111SOL    HW148230   3.440   9.323   9.242
82111SOL    HW248231   3.390   9.364   9.106
82112SOL     OW48232   1.222   8.448   7.491
82112SOL    HW148233   1.198   8.455   7.584
82112SOL    HW248234   1.272   8.366   7.486
82113SOL     OW48235   5.037   5.355   9.960
82113SOL    HW148236   4.957   5.343   9.910
82113SOL    HW248237   5.010   5.347  10.052
82114SOL     OW48238  13.594  13.108   9.728
82114SOL    HW148239  13.643  13.187   9.753
82114SOL    HW248240  13.562  13.127   9.640
82115SOL     OW48241  11.285   1.745  10.603
82115SOL    HW148242  11.364   1.786  10.638
82115SOL    HW248243  11.276   1.781  10.515
82116SOL     OW48244   2.449  10.661  11.891
82116SOL    HW148245   2.475  10.679  11.800
82116SOL    HW248246   2.507  10.717  11.943
82117SOL     OW48247  14.299  13.869  11.827
82117SOL    HW148248  14.306  13.962  11.852
82117SOL    HW248249  14.389  13.838  11.824
82118SOL     OW48250   5.580   5.155   3.852
82118SOL    HW148251   5.571   5.129   3.761
82118SOL    HW248252   5.602   5.073   3.898
82119SOL     OW48253   1.872   2.721  10.401
82119SOL    HW148254   1.802   2.702  10.339
82119SOL    HW248255   1.944   2.663  10.374
82120SOL     OW48256   4.682   0.841   1.575
82120SOL    HW148257   4.591   0.813   1.583
82120SOL    HW248258   4.703   0.829   1.483
82121SOL     OW48259   7.268   5.789   0.410
82121SOL    HW148260   7.323   5.838   0.471
82121SOL    HW248261   7.326   5.768   0.338
82122SOL     OW48262   4.833   1.780   9.891
82122SOL    HW148263   4.826   1.872   9.864
82122SOL    HW248264   4.871   1.784   9.979
82123SOL     OW48265   0.616  14.137  11.021
82123SOL    HW148266   0.678  14.205  10.995
82123SOL    HW248267   0.665  14.083  11.082
82124SOL     OW48268   3.230   5.149   6.555
82124SOL    HW148269   3.157   5.207   6.533
82124SOL    HW248270   3.295   5.206   6.596
82125SOL     OW48271  10.737   0.623   4.756
82125SOL    HW148272  10.787   0.617   4.674
82125SOL    HW248273  10.802   0.604   4.824
82126SOL     OW48274   6.784   1.453   6.252
82126SOL    HW148275   6.794   1.526   6.191
82126SOL    HW248276   6.772   1.494   6.337
82127SOL     OW48277  10.786   6.786  12.792
82127SOL    HW148278  10.790   6.732  12.713
82127SOL    HW248279  10.783   6.722  12.864
82128SOL     OW48280  10.294  14.034   5.863
82128SOL    HW148281  10.279  14.015   5.770
82128SOL    HW248282  10.246  13.966   5.910
82129SOL     OW48283   9.254   1.703  11.373
82129SOL    HW148284   9.300   1.770  11.322
82129SOL    HW248285   9.171   1.691  11.328
82130SOL     OW48286  12.946   0.254   9.785
82130SOL    HW148287  12.969   0.190   9.853
82130SOL    HW248288  12.946   0.203   9.704
82131SOL     OW48289   7.433   4.506  10.157
82131SOL    HW148290   7.487   4.461  10.091
82131SOL    HW248291   7.468   4.595  10.160
82132SOL     OW48292   4.730   6.484   0.037
82132SOL    HW148293   4.741   6.566  14.870
82132SOL    HW248294   4.635   6.474   0.045
82133SOL     OW48295   1.283  12.729   7.116
82133SOL    HW148296   1.217  12.741   7.184
82133SOL    HW248297   1.332  12.811   7.115
82134SOL     OW48298   2.689   9.534   7.990
82134SOL    HW148299   2.630   9.550   8.064
82134SOL    HW248300   2.630   9.517   7.917
82135SOL     OW48301   0.175   4.564   8.342
82135SOL    HW148302   0.158   4.477   8.306
82135SOL    HW248303   0.144   4.624   8.275
82136SOL     OW48304  12.669  14.052   8.809
82136SOL    HW148305  12.594  13.992   8.809
82136SOL    HW248306  12.664  14.096   8.894
82137SOL     OW48307  12.608   6.044  12.344
82137SOL    HW148308  12.629   6.018  12.254
82137SOL    HW248309  12.684   6.017  12.395
82138SOL     OW48310   6.131  12.243   6.578
82138SOL    HW148311   6.202  12.215   6.521
82138SOL    HW248312   6.083  12.308   6.526
82139SOL     OW48313   1.167   6.839  12.325
82139SOL    HW148314   1.095   6.853  12.263
82139SOL    HW248315   1.244   6.876  12.282
82140SOL     OW48316   2.448   6.884  12.197
82140SOL    HW148317   2.426   6.976  12.210
82140SOL    HW248318   2.393   6.857  12.123
82141SOL     OW48319   6.602  14.032  11.856
82141SOL    HW148320   6.545  13.960  11.828
82141SOL    HW248321   6.571  14.055  11.944
82142SOL     OW48322   3.142   1.479   9.212
82142SOL    HW148323   3.203   1.456   9.142
82142SOL    HW248324   3.191   1.537   9.270
82143SOL     OW48325   0.048   9.887   7.402
82143SOL    HW148326  14.836   9.902   7.413
82143SOL    HW248327   0.085   9.899   7.490
82144SOL     OW48328  13.947   6.127   7.719
82144SOL    HW148329  13.977   6.195   7.660
82144SOL    HW248330  13.879   6.169   7.771
82145SOL     OW48331   6.428   8.961   9.830
82145SOL    HW148332   6.409   9.053   9.846
82145SOL    HW248333   6.343   8.921   9.813
82146SOL     OW48334   5.431  10.777   7.741
82146SOL    HW148335   5.463  10.781   7.651
82146SOL    HW248336   5.359  10.841   7.743
82147SOL     OW48337  14.491   0.794   0.406
82147SOL    HW148338  14.446   0.805   0.322
82147SOL    HW248339  14.545   0.872   0.415
82148SOL     OW48340   1.799  14.122  13.025
82148SOL    HW148341   1.775  14.110  13.117
82148SOL    HW248342   1.731  14.076  12.976
82149SOL     OW48343  11.546   5.105   5.849
82149SOL    HW148344  11.493   5.185   5.839
82149SOL    HW248345  11.542   5.085   5.942
82150SOL     OW48346   1.657  11.321  13.031
82150SOL    HW148347   1.695  11.348  12.947
82150SOL    HW248348   1.564  11.311  13.014
82151SOL     OW48349  13.443   5.238   6.201
82151SOL    HW148350  13.492   5.231   6.119
82151SOL    HW248351  13.422   5.148   6.224
82152SOL     OW48352  12.869  14.350   9.514
82152SOL    HW148353  12.923  14.294   9.458
82152SOL    HW248354  12.894  14.439   9.491
82153SOL     OW48355   9.045  13.841   8.842
82153SOL    HW148356   8.974  13.785   8.808
82153SOL    HW248357   9.124  13.787   8.833
82154SOL     OW48358  14.588   6.483   7.827
82154SOL    HW148359  14.543   6.565   7.808
82154SOL    HW248360  14.531   6.438   7.890
82155SOL     OW48361  13.105   0.096   1.948
82155SOL    HW148362  13.116   0.100   2.043
82155SOL    HW248363  13.105   0.003   1.928
82156SOL     OW48364   6.734   2.906   7.872
82156SOL    HW148365   6.747   2.811   7.875
82156SOL    HW248366   6.651   2.918   7.825
82157SOL     OW48367   3.457   4.382   1.172
82157SOL    HW148368   3.472   4.379   1.078
82157SOL    HW248369   3.393   4.451   1.185
82158SOL     OW48370   1.551   0.825   5.234
82158SOL    HW148371   1.606   0.807   5.157
82158SOL    HW248372   1.595   0.779   5.306
82159SOL     OW48373   7.337   0.369   8.940
82159SOL    HW148374   7.335   0.328   8.854
82159SOL    HW248375   7.277   0.443   8.934
82160SOL     OW48376   9.130   1.863   9.275
82160SOL    HW148377   9.104   1.850   9.184
82160SOL    HW248378   9.048   1.865   9.324
82161SOL     OW48379   5.774  12.841   3.723
82161SOL    HW148380   5.687  12.846   3.682
82161SOL    HW248381   5.796  12.932   3.743
82162SOL     OW48382   3.218  14.645   3.341
82162SOL    HW148383   3.198  14.590   3.265
82162SOL    HW248384   3.282  14.594   3.391
82163SOL     OW48385   8.932   5.156  12.082
82163SOL    HW148386   8.892   5.157  11.995
82163SOL    HW248387   8.899   5.234  12.126
82164SOL     OW48388  14.685  10.585  10.095
82164SOL    HW148389  14.685  10.622  10.006
82164SOL    HW248390  14.692  10.661  10.153
82165SOL     OW48391   1.921  11.261   7.524
82165SOL    HW148392   1.862  11.245   7.450
82165SOL    HW248393   1.910  11.354   7.544
82166SOL     OW48394  14.725   0.230  13.406
82166SOL    HW148395  14.755   0.310  13.363
82166SOL    HW248396  14.630   0.233  13.399
82167SOL     OW48397  14.031   2.298   0.541
82167SOL    HW148398  14.028   2.242   0.464
82167SOL    HW248399  14.019   2.238   0.615
82168SOL     OW48400   3.498   3.125  13.482
82168SOL    HW148401   3.414   3.159  13.513
82168SOL    HW248402   3.478   3.091  13.394
82169SOL     OW48403   2.115   9.212   1.251
82169SOL    HW148404   2.037   9.183   1.297
82169SOL    HW248405   2.187   9.166   1.293
82170SOL     OW48406  14.103   0.521   8.088
82170SOL    HW148407  14.035   0.454   8.093
82170SOL    HW248408  14.151   0.514   8.171
82171SOL     OW48409   0.058   4.176   9.081
82171SOL    HW148410   0.035   4.188   8.989
82171SOL    HW248411   0.128   4.110   9.079
82172SOL     OW48412   9.153  11.925   8.760
82172SOL    HW148413   9.090  11.980   8.807
82172SOL    HW248414   9.133  11.939   8.667
82173SOL     OW48415   3.395   2.066   3.314
82173SOL    HW148416   3.396   2.154   3.352
82173SOL    HW248417   3.471   2.065   3.255
82174SOL     OW48418   0.191   6.763   0.290
82174SOL    HW148419   0.169   6.734   0.378
82174SOL    HW248420   0.281   6.732   0.276
82175SOL     OW48421  11.613   3.662  10.829
82175SOL    HW148422  11.651   3.734  10.881
82175SOL    HW248423  11.619   3.586  10.887
82176SOL     OW48424  14.746   5.261   9.933
82176SOL    HW148425  14.802   5.184   9.930
82176SOL    HW248426  14.662   5.229   9.966
82177SOL     OW48427   2.396  12.328   9.817
82177SOL    HW148428   2.378  12.411   9.772
82177SOL    HW248429   2.491  12.324   9.822
82178SOL     OW48430   0.665  10.485   6.361
82178SOL    HW148431   0.725  10.533   6.417
82178SOL    HW248432   0.584  10.536   6.363
82179SOL     OW48433   5.347  11.805   4.895
82179SOL    HW148434   5.363  11.714   4.869
82179SOL    HW248435   5.254  11.818   4.877
82180SOL     OW48436   1.592   4.359  14.524
82180SOL    HW148437   1.613   4.266  14.534
82180SOL    HW248438   1.505   4.360  14.483
82181SOL     OW48439  10.358   5.429   3.645
82181SOL    HW148440  10.437   5.463   3.688
82181SOL    HW248441  10.327   5.359   3.703
82182SOL     OW48442  11.035  12.810  13.991
82182SOL    HW148443  10.951  12.776  13.960
82182SOL    HW248444  11.013  12.885  14.045
82183SOL     OW48445  14.330   8.136   1.335
82183SOL    HW148446  14.404   8.196   1.326
82183SOL    HW248447  14.317   8.100   1.247
82184SOL     OW48448   5.752   7.110  13.482
82184SOL    HW148449   5.688   7.148  13.542
82184SOL    HW248450   5.837   7.135  13.517
82185SOL     OW48451  14.289   4.694   3.932
82185SOL    HW148452  14.317   4.743   3.854
82185SOL    HW248453  14.359   4.709   3.996
82186SOL     OW48454   0.099  11.583   5.170
82186SOL    HW148455   0.038  11.610   5.239
82186SOL    HW248456   0.179  11.558   5.217
82187SOL     OW48457   4.631   2.971   3.756
82187SOL    HW148458   4.692   2.926   3.697
82187SOL    HW248459   4.560   2.909   3.768
82188SOL     OW48460   5.907   2.987   9.335
82188SOL    HW148461   5.974   2.979   9.403
82188SOL    HW248462   5.838   2.926   9.362
82189SOL     OW48463  13.103   9.740   4.926
82189SOL    HW148464  13.050   9.689   4.864
82189SOL    HW248465  13.076   9.709   5.012
82190SOL     OW48466   1.815   5.338   2.973
82190SOL    HW148467   1.816   5.389   2.892
82190SOL    HW248468   1.893   5.284   2.969
82191SOL     OW48469   4.893   1.143   0.767
82191SOL    HW148470   4.944   1.202   0.712
82191SOL    HW248471   4.825   1.108   0.710
82192SOL     OW48472   6.069   9.177  12.928
82192SOL    HW148473   5.982   9.214  12.942
82192SOL    HW248474   6.122   9.212  12.999
82193SOL     OW48475   0.080   0.589   2.747
82193SOL    HW148476   0.092   0.604   2.654
82193SOL    HW248477  14.868   0.575   2.758
82194SOL     OW48478   2.263   4.142   5.009
82194SOL    HW148479   2.172   4.126   4.984
82194SOL    HW248480   2.302   4.054   5.016
82195SOL     OW48481  14.441   9.655   3.861
82195SOL    HW148482  14.456   9.599   3.937
82195SOL    HW248483  14.487   9.736   3.882
82196SOL     OW48484  14.024   1.273   0.636
82196SOL    HW148485  14.003   1.193   0.587
82196SOL    HW248486  14.108   1.253   0.679
82197SOL     OW48487  11.140  11.880  13.533
82197SOL    HW148488  11.230  11.912  13.530
82197SOL    HW248489  11.110  11.903  13.621
82198SOL     OW48490   8.883  11.275   4.952
82198SOL    HW148491   8.970  11.237   4.949
82198SOL    HW248492   8.826  11.209   4.912
82199SOL     OW48493   0.040   6.383   2.396
82199SOL    HW148494   0.101   6.322   2.356
82199SOL    HW248495   0.091   6.424   2.467
82200SOL     OW48496  10.637  13.630   2.072
82200SOL    HW148497  10.560  13.678   2.100
82200SOL    HW248498  10.711  13.678   2.110
82201SOL     OW48499   9.090  12.783   8.538
82201SOL    HW148500   9.021  12.730   8.500
82201SOL    HW248501   9.115  12.736   8.618
82202SOL     OW48502   7.134   8.717   2.925
82202SOL    HW148503   7.225   8.744   2.917
82202SOL    HW248504   7.086   8.779   2.870
82203SOL     OW48505  11.592   7.058  12.449
82203SOL    HW148506  11.522   7.022  12.503
82203SOL    HW248507  11.547   7.113  12.384
82204SOL     OW48508   3.731  12.493   7.852
82204SOL    HW148509   3.798  12.443   7.899
82204SOL    HW248510   3.747  12.474   7.760
82205SOL     OW48511   1.622  14.604   5.564
82205SOL    HW148512   1.701  14.648   5.596
82205SOL    HW248513   1.550  14.656   5.600
82206SOL     OW48514  11.429   6.459  10.798
82206SOL    HW148515  11.392   6.539  10.761
82206SOL    HW248516  11.369   6.389  10.772
82207SOL     OW48517   4.037   0.591   8.359
82207SOL    HW148518   4.130   0.576   8.338
82207SOL    HW248519   4.014   0.670   8.309
82208SOL     OW48520   2.229   2.423   0.358
82208SOL    HW148521   2.258   2.335   0.334
82208SOL    HW248522   2.305   2.479   0.340
82209SOL     OW48523   5.409   2.221   8.540
82209SOL    HW148524   5.382   2.296   8.592
82209SOL    HW248525   5.377   2.145   8.589
82210SOL     OW48526   9.472   0.813   9.421
82210SOL    HW148527   9.505   0.884   9.477
82210SOL    HW248528   9.449   0.743   9.481
82211SOL     OW48529   0.085  12.724  12.023
82211SOL    HW148530  14.882  12.700  11.985
82211SOL    HW248531   0.109  12.648  12.077
82212SOL     OW48532  12.155   2.670  12.764
82212SOL    HW148533  12.181   2.754  12.726
82212SOL    HW248534  12.184   2.675  12.855
82213SOL     OW48535  11.836   3.761   9.197
82213SOL    HW148536  11.867   3.747   9.108
82213SOL    HW248537  11.741   3.770   9.188
82214SOL     OW48538   8.961  13.929   3.456
82214SOL    HW148539   8.953  13.887   3.370
82214SOL    HW248540   9.031  13.993   3.445
82215SOL     OW48541   0.848   4.368   4.041
82215SOL    HW148542   0.836   4.317   3.961
82215SOL    HW248543   0.760   4.376   4.078
82216SOL     OW48544  10.282  14.118   6.885
82216SOL    HW148545  10.312  14.090   6.971
82216SOL    HW248546  10.288  14.214   6.887
82217SOL     OW48547   1.757  14.129   3.172
82217SOL    HW148548   1.717  14.089   3.095
82217SOL    HW248549   1.844  14.155   3.143
82218SOL     OW48550  14.122   1.594   2.109
82218SOL    HW148551  14.139   1.500   2.111
82218SOL    HW248552  14.186   1.628   2.046
82219SOL     OW48553   8.328   2.897   6.893
82219SOL    HW148554   8.329   2.840   6.971
82219SOL    HW248555   8.236   2.900   6.867
82220SOL     OW48556   1.703   0.144  13.651
82220SOL    HW148557   1.679   0.134  13.743
82220SOL    HW248558   1.769   0.213  13.651
82221SOL     OW48559   8.104  12.598   6.888
82221SOL    HW148560   8.159  12.653   6.833
82221SOL    HW248561   8.048  12.660   6.935
82222SOL     OW48562  14.109   9.363  10.390
82222SOL    HW148563  14.071   9.405  10.467
82222SOL    HW248564  14.159   9.289  10.426
82223SOL     OW48565   9.973   4.287   3.393
82223SOL    HW148566   9.907   4.262   3.458
82223SOL    HW248567  10.041   4.331   3.444
82224SOL     OW48568  11.258   4.381   4.706
82224SOL    HW148569  11.262   4.300   4.655
82224SOL    HW248570  11.166   4.391   4.729
82225SOL     OW48571   8.582  14.062   8.341
82225SOL    HW148572   8.615  14.138   8.293
82225SOL    HW248573   8.660  14.009   8.358
82226SOL     OW48574  14.121  11.685   2.096
82226SOL    HW148575  14.122  11.622   2.024
82226SOL    HW248576  14.166  11.762   2.061
82227SOL     OW48577  13.306  10.371   2.914
82227SOL    HW148578  13.218  10.372   2.951
82227SOL    HW248579  13.353  10.305   2.965
82228SOL     OW48580  10.937   4.547  11.972
82228SOL    HW148581  10.971   4.580  11.889
82228SOL    HW248582  11.005   4.489  12.005
82229SOL     OW48583  12.806   3.512   1.283
82229SOL    HW148584  12.710   3.514   1.291
82229SOL    HW248585  12.838   3.562   1.358
82230SOL     OW48586  13.503  13.384   2.650
82230SOL    HW148587  13.416  13.416   2.627
82230SOL    HW248588  13.557  13.463   2.656
82231SOL     OW48589   2.329   2.839  10.255
82231SOL    HW148590   2.410   2.844  10.305
82231SOL    HW248591   2.351   2.876  10.170
82232SOL     OW48592  12.492   3.330   8.422
82232SOL    HW148593  12.453   3.380   8.494
82232SOL    HW248594  12.580   3.366   8.413
82233SOL     OW48595   0.621   0.227   3.097
82233SOL    HW148596   0.624   0.313   3.054
82233SOL    HW248597   0.532   0.220   3.131
82234SOL     OW48598  13.251  10.797   4.297
82234SOL    HW148599  13.185  10.753   4.351
82234SOL    HW248600  13.204  10.825   4.219
82235SOL     OW48601  14.038   1.009  11.314
82235SOL    HW148602  14.070   1.031  11.227
82235SOL    HW248603  14.072   0.921  11.331
82236SOL     OW48604   8.161   7.559   4.158
82236SOL    HW148605   8.144   7.558   4.064
82236SOL    HW248606   8.155   7.651   4.183
82237SOL     OW48607  10.565   3.548  10.693
82237SOL    HW148608  10.633   3.488  10.662
82237SOL    HW248609  10.612   3.627  10.718
82238SOL     OW48610   0.101  13.685  14.049
82238SOL    HW148611   0.013  13.646  14.051
82238SOL    HW248612   0.160  13.609  14.053
82239SOL     OW48613  14.831  10.185   3.352
82239SOL    HW148614  14.872  10.206   3.268
82239SOL    HW248615  14.737  10.182   3.333
82240SOL     OW48616  11.217   5.102  12.079
82240SOL    HW148617  11.285   5.121  12.015
82240SOL    HW248618  11.166   5.183  12.084
82241SOL     OW48619  10.072  13.180   5.044
82241SOL    HW148620   9.999  13.120   5.062
82241SOL    HW248621  10.054  13.214   4.957
82242SOL     OW48622   9.054   4.435  14.520
82242SOL    HW148623   9.022   4.522  14.495
82242SOL    HW248624   8.992   4.406  14.588
82243SOL     OW48625  14.120  13.884   2.123
82243SOL    HW148626  14.037  13.865   2.081
82243SOL    HW248627  14.108  13.858   2.214
82244SOL     OW48628  12.767   2.382   3.668
82244SOL    HW148629  12.857   2.405   3.643
82244SOL    HW248630  12.719   2.465   3.661
82245SOL     OW48631   3.567   7.859   0.669
82245SOL    HW148632   3.501   7.809   0.620
82245SOL    HW248633   3.604   7.795   0.731
82246SOL     OW48634   0.916   6.075   5.060
82246SOL    HW148635   0.871   5.992   5.048
82246SOL    HW248636   0.941   6.076   5.153
82247SOL     OW48637   0.079  12.773   6.680
82247SOL    HW148638   0.090  12.853   6.629
82247SOL    HW248639  14.874  12.741   6.657
82248SOL     OW48640  11.084   3.431  13.693
82248SOL    HW148641  11.076   3.375  13.616
82248SOL    HW248642  11.112   3.372  13.763
82249SOL     OW48643  14.758   5.008  10.947
82249SOL    HW148644  14.786   4.985  10.858
82249SOL    HW248645  14.747   4.924  10.991
82250SOL     OW48646   1.265   1.889   7.170
82250SOL    HW148647   1.247   1.797   7.188
82250SOL    HW248648   1.354   1.904   7.202
82251SOL     OW48649  13.589  10.942   6.360
82251SOL    HW148650  13.502  10.925   6.397
82251SOL    HW248651  13.596  11.038   6.359
82252SOL     OW48652  10.499   1.779  12.757
82252SOL    HW148653  10.455   1.831  12.690
82252SOL    HW248654  10.592   1.799  12.747
82253SOL     OW48655   9.001  13.479   3.009
82253SOL    HW148656   9.049  13.486   3.092
82253SOL    HW248657   8.940  13.553   3.011
82254SOL     OW48658  11.208  11.734   0.387
82254SOL    HW148659  11.150  11.660   0.368
82254SOL    HW248660  11.274  11.730   0.319
82255SOL     OW48661   8.903   3.461  14.067
82255SOL    HW148662   8.839   3.489  14.132
82255SOL    HW248663   8.880   3.370  14.048
82256SOL     OW48664   5.146   3.690   4.589
82256SOL    HW148665   5.239   3.713   4.581
82256SOL    HW248666   5.111   3.703   4.501
82257SOL     OW48667   8.883   6.720   0.566
82257SOL    HW148668   8.915   6.804   0.534
82257SOL    HW248669   8.944   6.696   0.636
82258SOL     OW48670  12.487   8.126   2.167
82258SOL    HW148671  12.578   8.101   2.179
82258SOL    HW248672  12.457   8.148   2.255
82259SOL     OW48673   9.196   5.550   6.633
82259SOL    HW148674   9.289   5.571   6.633
82259SOL    HW248675   9.175   5.533   6.541
82260SOL     OW48676  13.956   6.054  13.485
82260SOL    HW148677  13.972   6.089  13.573
82260SOL    HW248678  13.996   6.118  13.426
82261SOL     OW48679  14.227   0.760   0.914
82261SOL    HW148680  14.186   0.846   0.912
82261SOL    HW248681  14.241   0.737   0.822
82262SOL     OW48682   3.434  14.318   3.820
82262SOL    HW148683   3.354  14.362   3.792
82262SOL    HW248684   3.407  14.228   3.840
82263SOL     OW48685  11.129  11.986  10.094
82263SOL    HW148686  11.066  12.010  10.162
82263SOL    HW248687  11.075  11.954  10.021
82264SOL     OW48688   3.759   0.518  13.798
82264SOL    HW148689   3.780   0.457  13.727
82264SOL    HW248690   3.670   0.494  13.823
82265SOL     OW48691   8.610   5.060   1.765
82265SOL    HW148692   8.589   5.148   1.733
82265SOL    HW248693   8.557   5.002   1.711
82266SOL     OW48694  10.865   5.864   5.234
82266SOL    HW148695  10.809   5.792   5.262
82266SOL    HW248696  10.933   5.823   5.181
82267SOL     OW48697  10.982   2.673   6.266
82267SOL    HW148698  10.891   2.646   6.248
82267SOL    HW248699  11.007   2.723   6.188
82268SOL     OW48700  14.778   6.038   5.688
82268SOL    HW148701  14.769   6.086   5.771
82268SOL    HW248702  14.873   6.026   5.678
82269SOL     OW48703   7.155  11.676  10.370
82269SOL    HW148704   7.118  11.684  10.282
82269SOL    HW248705   7.116  11.595  10.405
82270SOL     OW48706   4.966   0.783  11.665
82270SOL    HW148707   5.001   0.802  11.578
82270SOL    HW248708   5.043   0.780  11.722
82271SOL     OW48709   8.503  10.818  11.414
82271SOL    HW148710   8.562  10.835  11.487
82271SOL    HW248711   8.494  10.902  11.370
82272SOL     OW48712   8.784   7.097   0.863
82272SOL    HW148713   8.813   7.107   0.772
82272SOL    HW248714   8.860   7.063   0.909
82273SOL     OW48715  14.748   9.423   3.149
82273SOL    HW148716  14.709   9.344   3.111
82273SOL    HW248717  14.840   9.419   3.123
82274SOL     OW48718   2.867   1.674   6.479
82274SOL    HW148719   2.797   1.734   6.506
82274SOL    HW248720   2.832   1.630   6.401
82275SOL     OW48721   9.376   8.488  10.029
82275SOL    HW148722   9.458   8.440  10.016
82275SOL    HW248723   9.404   8.580  10.036
82276SOL     OW48724   6.248   5.216   5.346
82276SOL    HW148725   6.312   5.163   5.392
82276SOL    HW248726   6.163   5.185   5.378
82277SOL     OW48727   4.438   4.600  13.478
82277SOL    HW148728   4.480   4.613  13.393
82277SOL    HW248729   4.420   4.688  13.510
82278SOL     OW48730   1.582   6.486   8.054
82278SOL    HW148731   1.593   6.432   8.132
82278SOL    HW248732   1.659   6.466   8.000
82279SOL     OW48733   8.277   5.405   9.092
82279SOL    HW148734   8.261   5.430   9.001
82279SOL    HW248735   8.370   5.420   9.105
82280SOL     OW48736  10.763   8.904  12.456
82280SOL    HW148737  10.724   8.955  12.526
82280SOL    HW248738  10.693   8.893  12.392
82281SOL     OW48739   2.369  10.412  12.287
82281SOL    HW148740   2.274  10.401  12.289
82281SOL    HW248741   2.398  10.397  12.377
82282SOL     OW48742   4.507   2.381   1.471
82282SOL    HW148743   4.597   2.381   1.439
82282SOL    HW248744   4.502   2.457   1.530
82283SOL     OW48745   5.448   9.411   4.233
82283SOL    HW148746   5.368   9.457   4.207
82283SOL    HW248747   5.452   9.421   4.328
82284SOL     OW48748  13.035   0.158   9.546
82284SOL    HW148749  13.024   0.252   9.532
82284SOL    HW248750  13.130   0.145   9.548
82285SOL     OW48751   0.783   8.430   8.142
82285SOL    HW148752   0.845   8.378   8.091
82285SOL    HW248753   0.698   8.392   8.121
82286SOL     OW48754  13.385   0.454  10.842
82286SOL    HW148755  13.350   0.499  10.765
82286SOL    HW248756  13.440   0.520  10.885
82287SOL     OW48757  11.509   2.013   8.407
82287SOL    HW148758  11.436   2.070   8.431
82287SOL    HW248759  11.470   1.925   8.404
82288SOL     OW48760   6.924   2.779  10.022
82288SOL    HW148761   6.857   2.779  10.091
82288SOL    HW248762   6.976   2.701  10.039
82289SOL     OW48763  11.520   8.133   1.051
82289SOL    HW148764  11.593   8.080   1.017
82289SOL    HW248765  11.517   8.111   1.144
82290SOL     OW48766   2.521  13.269   1.544
82290SOL    HW148767   2.533  13.180   1.509
82290SOL    HW248768   2.548  13.262   1.635
82291SOL     OW48769   4.753   0.411   0.380
82291SOL    HW148770   4.823   0.346   0.388
82291SOL    HW248771   4.740   0.421   0.286
82292SOL     OW48772   1.811  10.870   3.624
82292SOL    HW148773   1.761  10.951   3.607
82292SOL    HW248774   1.767  10.830   3.698
82293SOL     OW48775   9.817   3.626   1.666
82293SOL    HW148776   9.882   3.648   1.599
82293SOL    HW248777   9.802   3.709   1.713
82294SOL     OW48778  12.411   5.266   6.356
82294SOL    HW148779  12.452   5.291   6.274
82294SOL    HW248780  12.473   5.205   6.396
82295SOL     OW48781   9.564   7.093   6.926
82295SOL    HW148782   9.533   7.168   6.977
82295SOL    HW248783   9.601   7.034   6.991
82296SOL     OW48784   1.384   2.367  10.332
82296SOL    HW148785   1.470   2.338  10.302
82296SOL    HW248786   1.402   2.447  10.382
82297SOL     OW48787   9.372   3.806   9.230
82297SOL    HW148788   9.361   3.849   9.314
82297SOL    HW248789   9.283   3.785   9.202
82298SOL     OW48790   6.754   2.402  11.438
82298SOL    HW148791   6.680   2.435  11.387
82298SOL    HW248792   6.777   2.474  11.497
82299SOL     OW48793   6.679  13.899   9.399
82299SOL    HW148794   6.602  13.846   9.422
82299SOL    HW248795   6.705  13.941   9.481
82300SOL     OW48796   0.848  10.999  12.965
82300SOL    HW148797   0.790  10.972  13.036
82300SOL    HW248798   0.929  10.950  12.980
82301SOL     OW48799  14.396  12.268   1.259
82301SOL    HW148800  14.484  12.293   1.287
82301SOL    HW248801  14.347  12.259   1.341
82302SOL     OW48802   7.471   9.654   8.209
82302SOL    HW148803   7.521   9.614   8.138
82302SOL    HW248804   7.509   9.616   8.289
82303SOL     OW48805  11.978   9.507   9.456
82303SOL    HW148806  11.956   9.500   9.363
82303SOL    HW248807  11.916   9.448   9.500
82304SOL     OW48808   9.125   9.744   1.739
82304SOL    HW148809   9.085   9.741   1.826
82304SOL    HW248810   9.180   9.822   1.739
82305SOL     OW48811   7.562   3.871   5.041
82305SOL    HW148812   7.587   3.803   4.978
82305SOL    HW248813   7.471   3.891   5.019
82306SOL     OW48814   4.836  12.622   6.515
82306SOL    HW148815   4.745  12.604   6.491
82306SOL    HW248816   4.833  12.710   6.553
82307SOL     OW48817  14.306  14.826  12.698
82307SOL    HW148818  14.357   0.021  12.671
82307SOL    HW248819  14.246  14.810  12.626
82308SOL     OW48820   3.117  10.606  13.197
82308SOL    HW148821   3.128  10.512  13.212
82308SOL    HW248822   3.187  10.647  13.249
82309SOL     OW48823   8.707  10.982   9.137
82309SOL    HW148824   8.674  10.931   9.063
82309SOL    HW248825   8.783  11.029   9.102
82310SOL     OW48826   4.424   4.026   5.463
82310SOL    HW148827   4.454   4.116   5.451
82310SOL    HW248828   4.497   3.982   5.507
82311SOL     OW48829  14.010   3.575  12.556
82311SOL    HW148830  14.055   3.580  12.472
82311SOL    HW248831  13.986   3.483  12.565
82312SOL     OW48832   9.924   3.475  12.225
82312SOL    HW148833   9.858   3.427  12.175
82312SOL    HW248834   9.890   3.475  12.315
82313SOL     OW48835   8.216   0.615  14.605
82313SOL    HW148836   8.160   0.663  14.667
82313SOL    HW248837   8.162   0.605  14.527
82314SOL     OW48838   2.488  10.448  12.035
82314SOL    HW148839   2.434  10.436  12.113
82314SOL    HW248840   2.452  10.526  11.993
82315SOL     OW48841  13.581   2.860   4.325
82315SOL    HW148842  13.553   2.840   4.414
82315SOL    HW248843  13.585   2.955   4.321
82316SOL     OW48844  12.861   1.535   1.515
82316SOL    HW148845  12.807   1.504   1.588
82316SOL    HW248846  12.801   1.585   1.460
82317SOL     OW48847   9.007  12.603   1.394
82317SOL    HW148848   8.956  12.683   1.395
82317SOL    HW248849   8.982  12.559   1.313
82318SOL     OW48850  10.422   2.782  11.058
82318SOL    HW148851  10.404   2.705  11.113
82318SOL    HW248852  10.478   2.750  10.988
82319SOL     OW48853  11.366   8.647   0.488
82319SOL    HW148854  11.408   8.706   0.425
82319SOL    HW248855  11.341   8.571   0.436
82320SOL     OW48856  10.629   7.117   0.434
82320SOL    HW148857  10.581   7.166   0.501
82320SOL    HW248858  10.690   7.062   0.483
82321SOL     OW48859  10.521   9.764   5.774
82321SOL    HW148860  10.458   9.725   5.834
82321SOL    HW248861  10.472   9.833   5.729
82322SOL     OW48862   0.473  14.807  12.286
82322SOL    HW148863   0.524   0.004  12.268
82322SOL    HW248864   0.393  14.817  12.235
82323SOL     OW48865   4.531   5.078   3.028
82323SOL    HW148866   4.526   4.983   3.017
82323SOL    HW248867   4.594   5.091   3.099
82324SOL     OW48868  13.257   8.604   6.684
82324SOL    HW148869  13.290   8.693   6.699
82324SOL    HW248870  13.192   8.591   6.753
82325SOL     OW48871   8.384  13.366   8.233
82325SOL    HW148872   8.375  13.443   8.177
82325SOL    HW248873   8.327  13.384   8.308
82326SOL     OW48874   8.978   7.599  13.934
82326SOL    HW148875   9.045   7.563  13.876
82326SOL    HW248876   8.901   7.610  13.878
82327SOL     OW48877   9.412   7.474   5.391
82327SOL    HW148878   9.411   7.541   5.460
82327SOL    HW248879   9.484   7.416   5.417
82328SOL     OW48880   8.344   3.613   5.108
82328SOL    HW148881   8.402   3.539   5.090
82328SOL    HW248882   8.361   3.634   5.199
82329SOL     OW48883  10.627   1.933   8.067
82329SOL    HW148884  10.605   2.021   8.038
82329SOL    HW248885  10.643   1.884   7.986
82330SOL     OW48886  11.414  12.845   8.641
82330SOL    HW148887  11.416  12.879   8.730
82330SOL    HW248888  11.477  12.899   8.593
82331SOL     OW48889   9.588  13.710  14.191
82331SOL    HW148890   9.498  13.739  14.206
82331SOL    HW248891   9.642  13.772  14.240
82332SOL     OW48892   0.107   5.405  14.382
82332SOL    HW148893   0.042   5.418  14.313
82332SOL    HW248894   0.093   5.315  14.412
82333SOL     OW48895   6.433  10.105   4.190
82333SOL    HW148896   6.447  10.020   4.231
82333SOL    HW248897   6.521  10.131   4.161
82334SOL     OW48898   2.071   9.608  12.355
82334SOL    HW148899   2.053   9.676  12.291
82334SOL    HW248900   1.986   9.590  12.395
82335SOL     OW48901  13.719   5.331  11.108
82335SOL    HW148902  13.641   5.293  11.069
82335SOL    HW248903  13.731   5.415  11.063
82336SOL     OW48904   0.452   6.281   1.347
82336SOL    HW148905   0.379   6.249   1.399
82336SOL    HW248906   0.429   6.372   1.326
82337SOL     OW48907   0.377   8.155  11.164
82337SOL    HW148908   0.391   8.138  11.071
82337SOL    HW248909   0.429   8.234  11.182
82338SOL     OW48910   9.007   5.332   8.945
82338SOL    HW148911   9.021   5.347   8.851
82338SOL    HW248912   9.081   5.376   8.987
82339SOL     OW48913   5.074   0.884  11.428
82339SOL    HW148914   5.162   0.865  11.396
82339SOL    HW248915   5.071   0.980  11.436
82340SOL     OW48916   4.941   4.698   8.439
82340SOL    HW148917   5.026   4.686   8.397
82340SOL    HW248918   4.962   4.717   8.531
82341SOL     OW48919  14.704  12.445  12.741
82341SOL    HW148920  14.768  12.504  12.782
82341SOL    HW248921  14.742  12.424  12.656
82342SOL     OW48922  12.184   7.106  14.300
82342SOL    HW148923  12.278   7.103  14.279
82342SOL    HW248924  12.140   7.094  14.216
82343SOL     OW48925   2.118  12.767  11.132
82343SOL    HW148926   2.102  12.777  11.038
82343SOL    HW248927   2.091  12.677  11.151
82344SOL     OW48928   8.294  11.664  14.731
82344SOL    HW148929   8.342  11.615  14.665
82344SOL    HW248930   8.236  11.721  14.680
82345SOL     OW48931  10.367  12.192  10.164
82345SOL    HW148932  10.431  12.205  10.094
82345SOL    HW248933  10.291  12.244  10.137
82346SOL     OW48934  11.718   0.312  11.275
82346SOL    HW148935  11.652   0.319  11.206
82346SOL    HW248936  11.799   0.340  11.232
82347SOL     OW48937   9.179   9.041  11.082
82347SOL    HW148938   9.102   9.046  11.025
82347SOL    HW248939   9.248   9.085  11.032
82348SOL     OW48940  12.623  13.171  10.789
82348SOL    HW148941  12.626  13.083  10.753
82348SOL    HW248942  12.714  13.197  10.796
82349SOL     OW48943   2.676   4.577   2.946
82349SOL    HW148944   2.636   4.569   3.033
82349SOL    HW248945   2.755   4.630   2.961
82350SOL     OW48946  11.329   3.857   5.564
82350SOL    HW148947  11.396   3.792   5.587
82350SOL    HW248948  11.309   3.839   5.472
82351SOL     OW48949  10.391   8.157   2.814
82351SOL    HW148950  10.461   8.137   2.876
82351SOL    HW248951  10.426   8.227   2.759
82352SOL     OW48952   2.202   4.133   0.214
82352SOL    HW148953   2.184   4.049   0.255
82352SOL    HW248954   2.122   4.155   0.167
82353SOL     OW48955  14.785   2.751   1.089
82353SOL    HW148956  14.773   2.689   1.161
82353SOL    HW248957  14.698   2.790   1.077
82354SOL     OW48958   3.732   4.647  10.529
82354SOL    HW148959   3.777   4.731  10.519
82354SOL    HW248960   3.692   4.651  10.616
82355SOL     OW48961   6.191   5.366   1.096
82355SOL    HW148962   6.279   5.351   1.061
82355SOL    HW248963   6.205   5.380   1.190
82356SOL     OW48964  10.649   7.084   8.308
82356SOL    HW148965  10.610   7.088   8.221
82356SOL    HW248966  10.680   7.173   8.325
82357SOL     OW48967   3.201  10.582   5.486
82357SOL    HW148968   3.254  10.502   5.490
82357SOL    HW248969   3.141  10.575   5.560
82358SOL     OW48970   5.299   6.563   7.197
82358SOL    HW148971   5.349   6.482   7.200
82358SOL    HW248972   5.284   6.579   7.104
82359SOL     OW48973   4.641   5.226   2.215
82359SOL    HW148974   4.703   5.294   2.240
82359SOL    HW248975   4.639   5.167   2.291
82360SOL     OW48976   0.309  13.137   9.099
82360SOL    HW148977   0.379  13.165   9.041
82360SOL    HW248978   0.344  13.061   9.145
82361SOL     OW48979   0.624   1.161   9.329
82361SOL    HW148980   0.647   1.247   9.365
82361SOL    HW248981   0.560   1.126   9.391
82362SOL     OW48982   6.639  12.365  12.813
82362SOL    HW148983   6.686  12.282  12.822
82362SOL    HW248984   6.665  12.397  12.726
82363SOL     OW48985  11.196  10.452  13.290
82363SOL    HW148986  11.103  10.467  13.307
82363SOL    HW248987  11.230  10.538  13.263
82364SOL     OW48988  13.296   5.088  12.147
82364SOL    HW148989  13.270   5.124  12.062
82364SOL    HW248990  13.254   5.146  12.211
82365SOL     OW48991   7.426   4.195   1.710
82365SOL    HW148992   7.520   4.212   1.705
82365SOL    HW248993   7.396   4.251   1.782
82366SOL     OW48994   1.154   3.979   5.836
82366SOL    HW148995   1.161   4.071   5.864
82366SOL    HW248996   1.067   3.974   5.795
82367SOL     OW48997   6.316   0.212  12.816
82367SOL    HW148998   6.254   0.216  12.744
82367SOL    HW248999   6.393   0.261  12.785
82368SOL     OW49000  10.959  14.867   1.888
82368SOL    HW149001  10.945   0.063   1.942
82368SOL    HW249002  11.052  14.870   1.865
82369SOL     OW49003  12.574  10.242   4.705
82369SOL    HW149004  12.489  10.287   4.697
82369SOL    HW249005  12.624  10.296   4.766
82370SOL     OW49006   7.795   8.570   5.351
82370SOL    HW149007   7.753   8.484   5.344
82370SOL    HW249008   7.765   8.619   5.275
82371SOL     OW49009  10.865  10.279  14.547
82371SOL    HW149010  10.878  10.321  14.462
82371SOL    HW249011  10.860  10.352  14.609
82372SOL     OW49012  12.410   8.579   2.977
82372SOL    HW149013  12.463   8.643   3.024
82372SOL    HW249014  12.443   8.582   2.887
82373SOL     OW49015   9.919  13.008   8.970
82373SOL    HW149016   9.862  12.934   8.950
82373SOL    HW249017   9.896  13.074   8.904
82374SOL     OW49018   3.446  10.342   9.002
82374SOL    HW149019   3.377  10.399   8.970
82374SOL    HW249020   3.528  10.384   8.976
82375SOL     OW49021   6.990   5.149   9.980
82375SOL    HW149022   6.943   5.175  10.059
82375SOL    HW249023   6.942   5.073   9.947
82376SOL     OW49024   5.924  11.020  12.748
82376SOL    HW149025   5.881  10.977  12.822
82376SOL    HW249026   5.879  11.104  12.741
82377SOL     OW49027   8.288   2.502   3.308
82377SOL    HW149028   8.257   2.573   3.364
82377SOL    HW249029   8.229   2.503   3.233
82378SOL     OW49030  10.069   8.018   6.405
82378SOL    HW149031   9.987   8.066   6.414
82378SOL    HW249032  10.052   7.953   6.337
82379SOL     OW49033   4.270   2.316  13.272
82379SOL    HW149034   4.261   2.290  13.180
82379SOL    HW249035   4.185   2.295  13.311
82380SOL     OW49036   2.740   5.118   4.597
82380SOL    HW149037   2.644   5.118   4.598
82380SOL    HW249038   2.764   5.195   4.545
82381SOL     OW49039  12.862   4.788   8.731
82381SOL    HW149040  12.811   4.850   8.679
82381SOL    HW249041  12.864   4.825   8.819
82382SOL     OW49042   5.197   1.178  12.923
82382SOL    HW149043   5.282   1.214  12.945
82382SOL    HW249044   5.150   1.251  12.882
82383SOL     OW49045   9.025  13.069   8.510
82383SOL    HW149046   8.949  13.108   8.467
82383SOL    HW249047   9.026  12.978   8.480
82384SOL     OW49048   5.725   6.299  12.290
82384SOL    HW149049   5.741   6.393  12.283
82384SOL    HW249050   5.762   6.262  12.210
82385SOL     OW49051   8.066   2.341   7.842
82385SOL    HW149052   8.000   2.374   7.781
82385SOL    HW249053   8.149   2.376   7.809
82386SOL     OW49054  13.557  11.156   2.223
82386SOL    HW149055  13.476  11.105   2.223
82386SOL    HW249056  13.533  11.242   2.190
82387SOL     OW49057   8.923   4.964   0.715
82387SOL    HW149058   8.933   5.033   0.650
82387SOL    HW249059   8.836   4.926   0.698
82388SOL     OW49060  14.653   4.424   7.972
82388SOL    HW149061  14.604   4.389   8.047
82388SOL    HW249062  14.659   4.350   7.911
82389SOL     OW49063   9.931   7.007  13.316
82389SOL    HW149064   9.909   6.981  13.227
82389SOL    HW249065   9.862   7.068  13.341
82390SOL     OW49066  13.889   3.967   1.382
82390SOL    HW149067  13.892   4.053   1.339
82390SOL    HW249068  13.797   3.955   1.404
82391SOL     OW49069   0.774  11.392  14.296
82391SOL    HW149070   0.845  11.383  14.359
82391SOL    HW249071   0.728  11.471  14.323
82392SOL     OW49072   8.376  11.550  13.977
82392SOL    HW149073   8.288  11.586  13.986
82392SOL    HW249074   8.371  11.493  13.901
82393SOL     OW49075   3.198   2.738   1.003
82393SOL    HW149076   3.265   2.670   1.008
82393SOL    HW249077   3.145   2.714   0.927
82394SOL     OW49078  14.606  12.063   4.753
82394SOL    HW149079  14.596  12.132   4.687
82394SOL    HW249080  14.560  11.988   4.717
82395SOL     OW49081  12.777   6.496  11.584
82395SOL    HW149082  12.837   6.492  11.658
82395SOL    HW249083  12.781   6.586  11.553
82396SOL     OW49084   1.170   5.350   2.926
82396SOL    HW149085   1.224   5.294   2.982
82396SOL    HW249086   1.089   5.363   2.975
82397SOL     OW49087   9.535  12.109   4.643
82397SOL    HW149088   9.589  12.140   4.716
82397SOL    HW249089   9.467  12.176   4.634
82398SOL     OW49090   9.718   3.099   7.790
82398SOL    HW149091   9.727   3.010   7.756
82398SOL    HW249092   9.792   3.147   7.752
82399SOL     OW49093   7.728  13.505   5.278
82399SOL    HW149094   7.699  13.569   5.213
82399SOL    HW249095   7.720  13.421   5.234
82400SOL     OW49096   6.187  14.637   4.647
82400SOL    HW149097   6.111  14.635   4.590
82400SOL    HW249098   6.150  14.651   4.735
82401SOL     OW49099   7.946   9.184   9.122
82401SOL    HW149100   8.000   9.111   9.090
82401SOL    HW249101   8.004   9.233   9.180
82402SOL     OW49102   9.927   6.982   5.564
82402SOL    HW149103   9.853   7.022   5.517
82402SOL    HW249104   9.921   6.889   5.543
82403SOL     OW49105  10.055   0.495   5.304
82403SOL    HW149106  10.087   0.462   5.220
82403SOL    HW249107   9.966   0.460   5.312
82404SOL     OW49108  12.207   6.036   6.648
82404SOL    HW149109  12.236   6.039   6.557
82404SOL    HW249110  12.204   6.128   6.675
82405SOL     OW49111   8.968  14.542   9.003
82405SOL    HW149112   9.014  14.586   8.932
82405SOL    HW249113   8.940  14.458   8.964
82406SOL     OW49114   0.652  11.332   6.895
82406SOL    HW149115   0.608  11.400   6.946
82406SOL    HW249116   0.690  11.273   6.961
82407SOL     OW49117   0.106   7.309  13.815
82407SOL    HW149118   0.056   7.391  13.818
82407SOL    HW249119   0.086   7.272  13.730
82408SOL     OW49120   0.633  12.807   2.489
82408SOL    HW149121   0.684  12.888   2.484
82408SOL    HW249122   0.621  12.780   2.398
82409SOL     OW49123  10.255  11.730   5.122
82409SOL    HW149124  10.264  11.708   5.215
82409SOL    HW249125  10.168  11.699   5.098
82410SOL     OW49126   1.063   0.824  10.915
82410SOL    HW149127   1.159   0.821  10.906
82410SOL    HW249128   1.045   0.911  10.951
82411SOL     OW49129   0.158  14.012   6.170
82411SOL    HW149130   0.105  14.006   6.250
82411SOL    HW249131   0.235  14.062   6.196
82412SOL     OW49132   5.958  12.883  11.774
82412SOL    HW149133   5.948  12.787  11.771
82412SOL    HW249134   5.900  12.911  11.844
82413SOL     OW49135  10.198  10.448   6.047
82413SOL    HW149136  10.262  10.380   6.026
82413SOL    HW249137  10.136  10.447   5.974
82414SOL     OW49138   6.799   4.218   6.360
82414SOL    HW149139   6.887   4.217   6.398
82414SOL    HW249140   6.746   4.263   6.425
82415SOL     OW49141  11.128   3.282  12.871
82415SOL    HW149142  11.208   3.253  12.828
82415SOL    HW249143  11.060   3.274  12.804
82416SOL     OW49144   5.482   1.247   5.774
82416SOL    HW149145   5.491   1.153   5.764
82416SOL    HW249146   5.440   1.258   5.859
82417SOL     OW49147  13.255   7.947   0.710
82417SOL    HW149148  13.313   7.923   0.783
82417SOL    HW249149  13.169   7.915   0.737
82418SOL     OW49150   8.984   6.579  13.110
82418SOL    HW149151   9.018   6.501  13.067
82418SOL    HW249152   9.036   6.651  13.074
82419SOL     OW49153  10.791   1.714   1.297
82419SOL    HW149154  10.740   1.637   1.275
82419SOL    HW249155  10.737   1.788   1.268
82420SOL     OW49156   7.584   0.797   4.612
82420SOL    HW149157   7.537   0.820   4.532
82420SOL    HW249158   7.617   0.881   4.646
82421SOL     OW49159  12.064  10.573  11.703
82421SOL    HW149160  12.029  10.594  11.616
82421SOL    HW249161  12.156  10.599  11.699
82422SOL     OW49162   7.673   4.088   6.951
82422SOL    HW149163   7.731   4.061   7.022
82422SOL    HW249164   7.630   4.007   6.923
82423SOL     OW49165  13.190  11.841  14.086
82423SOL    HW149166  13.213  11.748  14.078
82423SOL    HW249167  13.133  11.857  14.011
82424SOL     OW49168   0.000   6.409   3.600
82424SOL    HW149169   0.062   6.482   3.594
82424SOL    HW249170   0.041   6.340   3.547
82425SOL     OW49171   1.090  10.938   0.366
82425SOL    HW149172   1.063  10.982   0.285
82425SOL    HW249173   1.052  10.850   0.359
82426SOL     OW49174   0.458  12.596   6.787
82426SOL    HW149175   0.534  12.602   6.844
82426SOL    HW249176   0.482  12.529   6.722
82427SOL     OW49177  12.366   6.746  12.025
82427SOL    HW149178  12.283   6.788  12.047
82427SOL    HW249179  12.393   6.703  12.106
82428SOL     OW49180   6.081   0.955   3.536
82428SOL    HW149181   6.025   0.919   3.468
82428SOL    HW249182   6.027   1.019   3.581
82429SOL     OW49183  11.758   5.261   2.156
82429SOL    HW149184  11.721   5.344   2.184
82429SOL    HW249185  11.700   5.195   2.194
82430SOL     OW49186   5.116  13.212   6.184
82430SOL    HW149187   5.057  13.210   6.109
82430SOL    HW249188   5.112  13.123   6.220
82431SOL     OW49189   0.812   2.563  10.172
82431SOL    HW149190   0.804   2.629  10.104
82431SOL    HW249191   0.872   2.498  10.135
82432SOL     OW49192  13.576   2.766   8.255
82432SOL    HW149193  13.527   2.685   8.240
82432SOL    HW249194  13.583   2.806   8.168
82433SOL     OW49195   4.350   5.770   2.807
82433SOL    HW149196   4.263   5.729   2.811
82433SOL    HW249197   4.393   5.728   2.733
82434SOL     OW49198   0.801   6.307   9.540
82434SOL    HW149199   0.719   6.350   9.518
82434SOL    HW249200   0.779   6.249   9.613
82435SOL     OW49201   6.701   2.049  11.107
82435SOL    HW149202   6.707   1.965  11.153
82435SOL    HW249203   6.779   2.097  11.134
82436SOL     OW49204   4.269   3.893   8.397
82436SOL    HW149205   4.185   3.930   8.372
82436SOL    HW249206   4.306   3.957   8.458
82437SOL     OW49207   8.206   9.109   3.763
82437SOL    HW149208   8.223   9.138   3.853
82437SOL    HW249209   8.119   9.070   3.767
82438SOL     OW49210   6.844  13.227   6.585
82438SOL    HW149211   6.902  13.303   6.593
82438SOL    HW249212   6.756  13.263   6.596
82439SOL     OW49213   8.161   9.938   2.441
82439SOL    HW149214   8.153   9.971   2.530
82439SOL    HW249215   8.154  10.016   2.386
82440SOL     OW49216   3.011   6.178   2.017
82440SOL    HW149217   3.055   6.100   2.052
82440SOL    HW249218   3.082   6.238   1.995
82441SOL     OW49219  12.646   7.031  14.732
82441SOL    HW149220  12.599   7.096  14.680
82441SOL    HW249221  12.676   6.966  14.667
82442SOL     OW49222   1.913   5.916   3.582
82442SOL    HW149223   1.996   5.963   3.576
82442SOL    HW249224   1.857   5.957   3.517
82443SOL     OW49225  10.214   4.784  11.329
82443SOL    HW149226  10.212   4.776  11.425
82443SOL    HW249227  10.222   4.878  11.313
82444SOL     OW49228   5.783   0.204   7.825
82444SOL    HW149229   5.847   0.270   7.798
82444SOL    HW249230   5.773   0.217   7.919
82445SOL     OW49231   5.356   4.170   1.824
82445SOL    HW149232   5.392   4.087   1.794
82445SOL    HW249233   5.399   4.186   1.908
82446SOL     OW49234   5.895   3.464   2.549
82446SOL    HW149235   5.807   3.466   2.512
82446SOL    HW249236   5.894   3.533   2.615
82447SOL     OW49237   5.014   4.991  13.801
82447SOL    HW149238   4.922   4.968  13.816
82447SOL    HW249239   5.062   4.942  13.867
82448SOL     OW49240   5.235   5.184   3.932
82448SOL    HW149241   5.281   5.266   3.916
82448SOL    HW249242   5.295   5.132   3.985
82449SOL     OW49243   0.147   3.440   0.091
82449SOL    HW149244   0.141   3.399   0.178
82449SOL    HW249245   0.091   3.386   0.035
82450SOL     OW49246  13.098   5.038   6.195
82450SOL    HW149247  13.172   4.993   6.235
82450SOL    HW249248  13.061   4.973   6.134
82451SOL     OW49249   6.013   2.292   1.940
82451SOL    HW149250   6.069   2.219   1.914
82451SOL    HW249251   6.048   2.367   1.891
82452SOL     OW49252   9.779   1.825   7.249
82452SOL    HW149253   9.821   1.832   7.335
82452SOL    HW249254   9.693   1.865   7.260
82453SOL     OW49255  14.732   2.555  14.552
82453SOL    HW149256  14.767   2.491  14.613
82453SOL    HW249257  14.783   2.543  14.472
82454SOL     OW49258  14.438  10.885   4.081
82454SOL    HW149259  14.519  10.884   4.030
82454SOL    HW249260  14.466  10.903   4.170
82455SOL     OW49261   9.983  11.394   1.204
82455SOL    HW149262   9.894  11.385   1.170
82455SOL    HW249263  10.039  11.363   1.133
82456SOL     OW49264  12.983   6.540   4.571
82456SOL    HW149265  13.026   6.626   4.579
82456SOL    HW249266  12.915   6.542   4.638
82457SOL     OW49267  12.241  11.668   8.657
82457SOL    HW149268  12.166  11.720   8.626
82457SOL    HW249269  12.266  11.615   8.582
82458SOL     OW49270   2.715   3.239   6.691
82458SOL    HW149271   2.729   3.291   6.770
82458SOL    HW249272   2.619   3.233   6.683
82459SOL     OW49273   0.456   5.775  10.248
82459SOL    HW149274   0.408   5.697  10.222
82459SOL    HW249275   0.546   5.759  10.219
82460SOL     OW49276   9.929   0.636   8.178
82460SOL    HW149277   9.947   0.640   8.272
82460SOL    HW249278   9.833   0.641   8.172
82461SOL     OW49279   2.032   3.565  12.341
82461SOL    HW149280   2.093   3.516  12.286
82461SOL    HW249281   1.950   3.567  12.292
82462SOL     OW49282   3.917  10.679   2.629
82462SOL    HW149283   3.865  10.675   2.710
82462SOL    HW249284   3.971  10.757   2.639
82463SOL     OW49285   6.334   5.002  12.272
82463SOL    HW149286   6.343   5.097  12.273
82463SOL    HW249287   6.424   4.970  12.279
82464SOL     OW49288   8.225  13.737   9.502
82464SOL    HW149289   8.208  13.643   9.511
82464SOL    HW249290   8.250  13.748   9.411
82465SOL     OW49291  14.005   5.645   0.530
82465SOL    HW149292  13.951   5.691   0.594
82465SOL    HW249293  13.949   5.577   0.494
82466SOL     OW49294  11.692   2.532   8.282
82466SOL    HW149295  11.596   2.531   8.279
82466SOL    HW249296  11.712   2.565   8.370
82467SOL     OW49297   1.537   3.411   5.376
82467SOL    HW149298   1.559   3.419   5.283
82467SOL    HW249299   1.555   3.320   5.398
82468SOL     OW49300   3.303   5.069   7.438
82468SOL    HW149301   3.288   5.156   7.400
82468SOL    HW249302   3.284   5.009   7.366
82469SOL     OW49303   9.805   5.605   8.391
82469SOL    HW149304   9.802   5.636   8.481
82469SOL    HW249305   9.888   5.556   8.385
82470SOL     OW49306   7.577  10.865   1.966
82470SOL    HW149307   7.542  10.861   2.055
82470SOL    HW249308   7.620  10.781   1.954
82471SOL     OW49309  14.129  13.431  13.331
82471SOL    HW149310  14.210  13.383  13.349
82471SOL    HW249311  14.081  13.374  13.271
82472SOL     OW49312   9.458   0.813   8.233
82472SOL    HW149313   9.389   0.786   8.293
82472SOL    HW249314   9.465   0.908   8.246
82473SOL     OW49315  12.036   8.171  10.195
82473SOL    HW149316  12.085   8.146  10.273
82473SOL    HW249317  12.025   8.090  10.146
82474SOL     OW49318  12.723   4.299  12.079
82474SOL    HW149319  12.672   4.375  12.052
82474SOL    HW249320  12.670   4.224  12.054
82475SOL     OW49321   3.132  12.266   1.883
82475SOL    HW149322   3.142  12.181   1.925
82475SOL    HW249323   3.037  12.280   1.879
82476SOL     OW49324   9.650   4.129  13.068
82476SOL    HW149325   9.657   4.052  13.125
82476SOL    HW249326   9.648   4.093  12.979
82477SOL     OW49327   9.071  10.192  10.300
82477SOL    HW149328   9.074  10.193  10.395
82477SOL    HW249329   8.981  10.166  10.279
82478SOL     OW49330   2.903   3.421   0.818
82478SOL    HW149331   2.928   3.504   0.859
82478SOL    HW249332   2.878   3.365   0.892
82479SOL     OW49333  14.638  10.045  12.000
82479SOL    HW149334  14.676  10.083  12.080
82479SOL    HW249335  14.594   9.966  12.030
82480SOL     OW49336  13.380   1.558  10.937
82480SOL    HW149337  13.346   1.489  10.994
82480SOL    HW249338  13.304   1.587  10.886
82481SOL     OW49339   0.745  11.260  11.265
82481SOL    HW149340   0.840  11.261  11.255
82481SOL    HW249341   0.727  11.328  11.330
82482SOL     OW49342   3.804   7.945  13.693
82482SOL    HW149343   3.776   7.916  13.779
82482SOL    HW249344   3.897   7.921  13.688
82483SOL     OW49345   4.714   8.474   7.002
82483SOL    HW149346   4.659   8.482   6.924
82483SOL    HW249347   4.722   8.563   7.036
82484SOL     OW49348   7.114  11.153   3.214
82484SOL    HW149349   7.140  11.219   3.150
82484SOL    HW249350   7.193  11.103   3.232
82485SOL     OW49351   3.831   2.626   9.398
82485SOL    HW149352   3.918   2.602   9.367
82485SOL    HW249353   3.771   2.577   9.342
82486SOL     OW49354   9.588  14.707  11.713
82486SOL    HW149355   9.661  14.685  11.655
82486SOL    HW249356   9.615  14.787  11.758
82487SOL     OW49357  13.477   5.073   7.442
82487SOL    HW149358  13.390   5.106   7.466
82487SOL    HW249359  13.530   5.089   7.521
82488SOL     OW49360   8.286   1.494   7.645
82488SOL    HW149361   8.207   1.470   7.695
82488SOL    HW249362   8.330   1.560   7.699
82489SOL     OW49363   9.575  14.332   0.149
82489SOL    HW149364   9.490  14.331   0.193
82489SOL    HW249365   9.556  14.304   0.060
82490SOL     OW49366   4.642   5.590  12.949
82490SOL    HW149367   4.567   5.615  12.896
82490SOL    HW249368   4.667   5.670  12.996
82491SOL     OW49369   2.702  11.891   9.229
82491SOL    HW149370   2.617  11.872   9.190
82491SOL    HW249371   2.766  11.860   9.164
82492SOL     OW49372   7.142   1.864   8.816
82492SOL    HW149373   7.118   1.791   8.873
82492SOL    HW249374   7.175   1.931   8.876
82493SOL     OW49375  14.684  12.128  10.128
82493SOL    HW149376  14.751  12.197  10.122
82493SOL    HW249377  14.602  12.175  10.139
82494SOL     OW49378   0.529   6.034  12.393
82494SOL    HW149379   0.476   5.954  12.384
82494SOL    HW249380   0.619   6.004  12.376
82495SOL     OW49381   3.190   2.943  12.220
82495SOL    HW149382   3.123   2.941  12.288
82495SOL    HW249383   3.263   2.892  12.256
82496SOL     OW49384  12.540   2.071   3.615
82496SOL    HW149385  12.552   2.109   3.702
82496SOL    HW249386  12.627   2.074   3.575
82497SOL     OW49387  14.586  14.798   6.505
82497SOL    HW149388  14.624  14.841   6.582
82497SOL    HW249389  14.660  14.784   6.446
82498SOL     OW49390   0.263   5.164   3.538
82498SOL    HW149391   0.325   5.093   3.521
82498SOL    HW249392   0.267   5.177   3.633
82499SOL     OW49393   1.894   8.284  12.499
82499SOL    HW149394   1.869   8.357  12.442
82499SOL    HW249395   1.836   8.292  12.575
82500SOL     OW49396  10.203   3.710  12.464
82500SOL    HW149397  10.276   3.768  12.486
82500SOL    HW249398  10.211   3.696  12.369
82501SOL     OW49399   4.609   3.748   9.396
82501SOL    HW149400   4.677   3.685   9.422
82501SOL    HW249401   4.583   3.721   9.309
82502SOL     OW49402   3.382  13.873  14.435
82502SOL    HW149403   3.363  13.785  14.465
82502SOL    HW249404   3.468  13.867  14.394
82503SOL     OW49405   1.314  10.142  14.190
82503SOL    HW149406   1.265  10.224  14.182
82503SOL    HW249407   1.251  10.080  14.227
82504SOL     OW49408  10.605   5.349   0.361
82504SOL    HW149409  10.619   5.329   0.269
82504SOL    HW249410  10.526   5.300   0.384
82505SOL     OW49411   4.617   8.191   3.849
82505SOL    HW149412   4.647   8.223   3.935
82505SOL    HW249413   4.688   8.135   3.819
82506SOL     OW49414   7.887   5.705  10.036
82506SOL    HW149415   7.979   5.713  10.013
82506SOL    HW249416   7.852   5.794  10.026
82507SOL     OW49417   8.398  10.476   9.886
82507SOL    HW149418   8.487  10.448   9.863
82507SOL    HW249419   8.381  10.551   9.828
82508SOL     OW49420  13.230   2.955  13.596
82508SOL    HW149421  13.217   3.014  13.671
82508SOL    HW249422  13.144   2.915  13.583
82509SOL     OW49423  12.605  11.956   8.482
82509SOL    HW149424  12.588  11.874   8.527
82509SOL    HW249425  12.518  11.989   8.459
82510SOL     OW49426   2.843  11.351   1.571
82510SOL    HW149427   2.893  11.315   1.497
82510SOL    HW249428   2.757  11.310   1.564
82511SOL     OW49429  13.458   3.061   2.959
82511SOL    HW149430  13.433   3.135   3.014
82511SOL    HW249431  13.379   3.043   2.907
82512SOL     OW49432   3.056   2.030  11.837
82512SOL    HW149433   2.981   1.988  11.794
82512SOL    HW249434   3.017   2.094  11.896
82513SOL     OW49435  14.687   9.439  13.863
82513SOL    HW149436  14.714   9.529  13.882
82513SOL    HW249437  14.725   9.387  13.934
82514SOL     OW49438   8.633  12.608   0.057
82514SOL    HW149439   8.584  12.534   0.021
82514SOL    HW249440   8.692  12.634  14.869
82515SOL     OW49441   4.950  14.110  14.812
82515SOL    HW149442   5.032  14.073  14.844
82515SOL    HW249443   4.908  14.037  14.765
82516SOL     OW49444   2.802   1.703   0.517
82516SOL    HW149445   2.760   1.676   0.435
82516SOL    HW249446   2.759   1.651   0.584
82517SOL     OW49447   4.043   8.665   2.306
82517SOL    HW149448   4.042   8.615   2.224
82517SOL    HW249449   4.094   8.743   2.285
82518SOL     OW49450   8.460  12.302   1.043
82518SOL    HW149451   8.510  12.382   1.060
82518SOL    HW249452   8.522  12.242   1.003
82519SOL     OW49453   0.284   6.972   2.439
82519SOL    HW149454   0.302   6.969   2.533
82519SOL    HW249455   0.331   7.049   2.407
82520SOL     OW49456   7.139   2.414  11.370
82520SOL    HW149457   7.158   2.422  11.277
82520SOL    HW249458   7.192   2.483  11.411
82521SOL     OW49459   2.298   6.917   6.752
82521SOL    HW149460   2.351   6.841   6.731
82521SOL    HW249461   2.257   6.941   6.669
82522SOL     OW49462   4.938   5.104  14.428
82522SOL    HW149463   4.995   5.157  14.371
82522SOL    HW249464   4.851   5.113  14.389
82523SOL     OW49465  14.366   6.061   3.403
82523SOL    HW149466  14.421   6.005   3.348
82523SOL    HW249467  14.284   6.012   3.412
82524SOL     OW49468  11.816   0.219  10.833
82524SOL    HW149469  11.786   0.207  10.743
82524SOL    HW249470  11.799   0.134  10.875
82525SOL     OW49471  12.947  12.936   8.675
82525SOL    HW149472  12.990  12.873   8.732
82525SOL    HW249473  12.864  12.895   8.650
82526SOL     OW49474   4.169  14.084  11.627
82526SOL    HW149475   4.221  14.084  11.707
82526SOL    HW249476   4.230  14.059  11.558
82527SOL     OW49477  12.655   3.182   0.741
82527SOL    HW149478  12.650   3.107   0.801
82527SOL    HW249479  12.748   3.187   0.718
82528SOL     OW49480  12.203   8.164   2.589
82528SOL    HW149481  12.177   8.079   2.556
82528SOL    HW249482  12.121   8.207   2.613
82529SOL     OW49483  10.446  12.548   4.167
82529SOL    HW149484  10.411  12.556   4.079
82529SOL    HW249485  10.449  12.454   4.183
82530SOL     OW49486  12.066   0.283   2.567
82530SOL    HW149487  12.065   0.235   2.484
82530SOL    HW249488  11.973   0.299   2.586
82531SOL     OW49489   4.165  13.332   2.325
82531SOL    HW149490   4.218  13.409   2.304
82531SOL    HW249491   4.101  13.328   2.254
82532SOL     OW49492  11.372  12.733  12.909
82532SOL    HW149493  11.279  12.732  12.933
82532SOL    HW249494  11.417  12.709  12.990
82533SOL     OW49495  11.444   6.555   3.028
82533SOL    HW149496  11.521   6.608   3.048
82533SOL    HW249497  11.472   6.500   2.954
82534SOL     OW49498   1.699  10.380  11.740
82534SOL    HW149499   1.760  10.321  11.786
82534SOL    HW249500   1.686  10.452  11.801
82535SOL     OW49501   7.324  12.109   7.362
82535SOL    HW149502   7.267  12.083   7.435
82535SOL    HW249503   7.288  12.192   7.333
82536SOL     OW49504   5.005  10.822   6.646
82536SOL    HW149505   5.070  10.753   6.659
82536SOL    HW249506   4.994  10.862   6.732
82537SOL     OW49507   5.855   1.286   8.591
82537SOL    HW149508   5.819   1.274   8.678
82537SOL    HW249509   5.867   1.197   8.557
82538SOL     OW49510   7.284  11.417  14.634
82538SOL    HW149511   7.298  11.508  14.658
82538SOL    HW249512   7.363  11.371  14.665
82539SOL     OW49513   7.348   7.823   4.482
82539SOL    HW149514   7.296   7.874   4.545
82539SOL    HW249515   7.426   7.876   4.467
82540SOL     OW49516   9.835   4.317   2.951
82540SOL    HW149517   9.864   4.386   3.011
82540SOL    HW249518   9.747   4.345   2.924
82541SOL     OW49519   5.081   7.755   7.048
82541SOL    HW149520   5.139   7.724   7.117
82541SOL    HW249521   5.054   7.843   7.076
82542SOL     OW49522   2.093   4.824   9.452
82542SOL    HW149523   2.175   4.868   9.428
82542SOL    HW249524   2.091   4.828   9.548
82543SOL     OW49525  11.252   6.365  14.569
82543SOL    HW149526  11.284   6.277  14.587
82543SOL    HW249527  11.224   6.362  14.478
82544SOL     OW49528   5.427   9.863   8.679
82544SOL    HW149529   5.499   9.926   8.667
82544SOL    HW249530   5.410   9.864   8.773
82545SOL     OW49531  10.450   1.706   1.938
82545SOL    HW149532  10.357   1.697   1.919
82545SOL    HW249533  10.477   1.783   1.888
82546SOL     OW49534  13.613   5.381   8.733
82546SOL    HW149535  13.531   5.331   8.726
82546SOL    HW249536  13.612   5.439   8.657
82547SOL     OW49537   5.784   0.926   3.357
82547SOL    HW149538   5.853   0.867   3.326
82547SOL    HW249539   5.703   0.879   3.336
82548SOL     OW49540   2.856   1.808   5.302
82548SOL    HW149541   2.843   1.822   5.209
82548SOL    HW249542   2.910   1.881   5.331
82549SOL     OW49543   5.326   9.588  13.171
82549SOL    HW149544   5.373   9.644  13.233
82549SOL    HW249545   5.289   9.648  13.106
82550SOL     OW49546  14.181   1.432   5.197
82550SOL    HW149547  14.236   1.355   5.210
82550SOL    HW249548  14.152   1.455   5.286
82551SOL     OW49549  10.007   9.012  12.955
82551SOL    HW149550   9.996   8.952  13.030
82551SOL    HW249551   9.948   9.085  12.974
82552SOL     OW49552   8.776   4.107  13.997
82552SOL    HW149553   8.727   4.028  13.977
82552SOL    HW249554   8.756   4.167  13.925
82553SOL     OW49555   8.467   1.560   5.818
82553SOL    HW149556   8.482   1.516   5.902
82553SOL    HW249557   8.474   1.653   5.838
82554SOL     OW49558   2.698   5.729   0.927
82554SOL    HW149559   2.609   5.726   0.963
82554SOL    HW249560   2.705   5.814   0.885
82555SOL     OW49561   2.840   4.961   4.408
82555SOL    HW149562   2.804   4.873   4.395
82555SOL    HW249563   2.791   4.997   4.482
82556SOL     OW49564   5.673   1.932   9.069
82556SOL    HW149565   5.702   1.841   9.076
82556SOL    HW249566   5.741   1.976   9.017
82557SOL     OW49567   6.319   3.123   6.932
82557SOL    HW149568   6.239   3.070   6.933
82557SOL    HW249569   6.303   3.191   6.998
82558SOL     OW49570  12.702  12.174   2.012
82558SOL    HW149571  12.648  12.236   2.060
82558SOL    HW249572  12.760  12.228   1.958
82559SOL     OW49573  13.899  12.617  11.482
82559SOL    HW149574  13.933  12.705  11.498
82559SOL    HW249575  13.867  12.588  11.568
82560SOL     OW49576   4.489   7.935   0.973
82560SOL    HW149577   4.443   7.853   0.987
82560SOL    HW249578   4.561   7.912   0.914
82561SOL     OW49579   9.203  10.180  13.837
82561SOL    HW149580   9.262  10.200  13.910
82561SOL    HW249581   9.245  10.218  13.761
82562SOL     OW49582   7.685   5.875   5.055
82562SOL    HW149583   7.760   5.924   5.020
82562SOL    HW249584   7.618   5.883   4.988
82563SOL     OW49585   0.530  10.300   0.630
82563SOL    HW149586   0.553  10.315   0.721
82563SOL    HW249587   0.609  10.263   0.590
82564SOL     OW49588   1.683  13.434   5.313
82564SOL    HW149589   1.763  13.384   5.299
82564SOL    HW249590   1.635  13.384   5.379
82565SOL     OW49591   5.802  11.091  11.117
82565SOL    HW149592   5.829  11.024  11.180
82565SOL    HW249593   5.713  11.066  11.092
82566SOL     OW49594   7.200  11.867   1.548
82566SOL    HW149595   7.233  11.782   1.576
82566SOL    HW249596   7.189  11.917   1.629
82567SOL     OW49597   8.807   5.101   5.989
82567SOL    HW149598   8.756   5.175   6.019
82567SOL    HW249599   8.865   5.137   5.922
82568SOL     OW49600  13.508   0.677   7.947
82568SOL    HW149601  13.599   0.696   7.973
82568SOL    HW249602  13.496   0.585   7.969
82569SOL     OW49603   9.518   5.751   6.101
82569SOL    HW149604   9.511   5.671   6.152
82569SOL    HW249605   9.444   5.804   6.128
82570SOL     OW49606  12.600   5.188   4.561
82570SOL    HW149607  12.653   5.256   4.603
82570SOL    HW249608  12.662   5.142   4.504
82571SOL     OW49609  12.882   0.166  11.868
82571SOL    HW149610  12.829   0.121  11.802
82571SOL    HW249611  12.866   0.118  11.949
82572SOL     OW49612   1.490   3.394  14.475
82572SOL    HW149613   1.450   3.392  14.562
82572SOL    HW249614   1.463   3.311  14.434
82573SOL     OW49615   7.313  11.550   6.868
82573SOL    HW149616   7.365  11.502   6.804
82573SOL    HW249617   7.252  11.485   6.903
82574SOL     OW49618   2.973   0.235  12.132
82574SOL    HW149619   3.053   0.230  12.183
82574SOL    HW249620   2.958   0.328  12.118
82575SOL     OW49621  11.330   3.725  13.160
82575SOL    HW149622  11.356   3.656  13.099
82575SOL    HW249623  11.237   3.708  13.177
82576SOL     OW49624   6.486  13.867   8.161
82576SOL    HW149625   6.517  13.957   8.162
82576SOL    HW249626   6.560  13.817   8.125
82577SOL     OW49627   3.121  11.215   7.173
82577SOL    HW149628   3.074  11.136   7.147
82577SOL    HW249629   3.148  11.197   7.263
82578SOL     OW49630  11.322   6.845   2.455
82578SOL    HW149631  11.257   6.905   2.492
82578SOL    HW249632  11.275   6.763   2.441
82579SOL     OW49633  11.820  10.746   6.593
82579SOL    HW149634  11.850  10.655   6.599
82579SOL    HW249635  11.893  10.798   6.628
82580SOL     OW49636   5.828   3.031   7.804
82580SOL    HW149637   5.892   3.057   7.738
82580SOL    HW249638   5.787   3.113   7.831
82581SOL     OW49639  10.072   3.388  10.358
82581SOL    HW149640  10.017   3.382  10.281
82581SOL    HW249641  10.016   3.426  10.426
82582SOL     OW49642  13.406  12.893  13.049
82582SOL    HW149643  13.337  12.851  13.101
82582SOL    HW249644  13.395  12.987  13.069
82583SOL     OW49645  10.609   2.481   6.765
82583SOL    HW149646  10.607   2.574   6.790
82583SOL    HW249647  10.517   2.455   6.763
82584SOL     OW49648   9.092   4.543   6.817
82584SOL    HW149649   9.076   4.519   6.909
82584SOL    HW249650   9.181   4.513   6.800
82585SOL     OW49651  14.082   7.910   8.669
82585SOL    HW149652  14.073   7.826   8.715
82585SOL    HW249653  14.063   7.976   8.736
82586SOL     OW49654   8.097   7.505   3.916
82586SOL    HW149655   8.104   7.518   3.822
82586SOL    HW249656   8.038   7.430   3.925
82587SOL     OW49657   8.437  13.079   2.926
82587SOL    HW149658   8.433  12.997   2.876
82587SOL    HW249659   8.367  13.133   2.888
82588SOL     OW49660   0.924  13.691  12.382
82588SOL    HW149661   0.970  13.673  12.301
82588SOL    HW249662   0.858  13.622  12.389
82589SOL     OW49663   8.304   6.414   2.835
82589SOL    HW149664   8.249   6.449   2.765
82589SOL    HW249665   8.381   6.471   2.836
82590SOL     OW49666   8.184   4.269   0.723
82590SOL    HW149667   8.249   4.201   0.710
82590SOL    HW249668   8.201   4.333   0.654
82591SOL     OW49669  11.329   1.646   4.339
82591SOL    HW149670  11.266   1.578   4.317
82591SOL    HW249671  11.314   1.664   4.432
82592SOL     OW49672   5.437  12.748   9.788
82592SOL    HW149673   5.451  12.738   9.882
82592SOL    HW249674   5.407  12.662   9.759
82593SOL     OW49675   2.007  13.744  13.639
82593SOL    HW149676   2.048  13.690  13.706
82593SOL    HW249677   2.064  13.735  13.563
82594SOL     OW49678   6.302   0.640   8.831
82594SOL    HW149679   6.292   0.710   8.896
82594SOL    HW249680   6.270   0.562   8.876
82595SOL     OW49681   1.717   9.299   4.570
82595SOL    HW149682   1.796   9.333   4.528
82595SOL    HW249683   1.680   9.238   4.505
82596SOL     OW49684   3.720   9.178   3.170
82596SOL    HW149685   3.730   9.265   3.210
82596SOL    HW249686   3.797   9.168   3.114
82597SOL     OW49687  14.051   2.344  13.548
82597SOL    HW149688  14.028   2.437  13.556
82597SOL    HW249689  14.021   2.320  13.460
82598SOL     OW49690   3.837  14.306  11.594
82598SOL    HW149691   3.863  14.214  11.596
82598SOL    HW249692   3.754  14.309  11.643
82599SOL     OW49693  10.334  10.075   7.511
82599SOL    HW149694  10.398  10.135   7.473
82599SOL    HW249695  10.262  10.131   7.539
82600SOL     OW49696  14.034   5.987   6.356
82600SOL    HW149697  13.977   5.937   6.415
82600SOL    HW249698  14.098   5.922   6.325
82601SOL     OW49699   8.376   8.089   6.183
82601SOL    HW149700   8.418   8.160   6.231
82601SOL    HW249701   8.357   8.023   6.250
82602SOL     OW49702  10.129   6.163  10.377
82602SOL    HW149703  10.142   6.102  10.450
82602SOL    HW249704  10.215   6.171  10.336
82603SOL     OW49705   3.741   9.948   8.128
82603SOL    HW149706   3.769  10.033   8.096
82603SOL    HW249707   3.735   9.958   8.223
82604SOL     OW49708   5.545   4.207  14.466
82604SOL    HW149709   5.617   4.154  14.433
82604SOL    HW249710   5.537   4.183  14.558
82605SOL     OW49711   9.958   4.384   6.207
82605SOL    HW149712  10.037   4.419   6.249
82605SOL    HW249713   9.974   4.291   6.197
82606SOL     OW49714   9.678   7.812   3.040
82606SOL    HW149715   9.636   7.730   3.016
82606SOL    HW249716   9.746   7.787   3.102
82607SOL     OW49717  14.025   7.352  13.410
82607SOL    HW149718  13.980   7.270  13.386
82607SOL    HW249719  14.095   7.361  13.345
82608SOL     OW49720  10.089   4.233  10.069
82608SOL    HW149721  10.053   4.258   9.984
82608SOL    HW249722  10.184   4.230  10.055
82609SOL     OW49723  13.463   9.851   2.931
82609SOL    HW149724  13.542   9.806   2.961
82609SOL    HW249725  13.426   9.792   2.865
82610SOL     OW49726  11.560   2.431  10.518
82610SOL    HW149727  11.609   2.510  10.540
82610SOL    HW249728  11.486   2.463  10.466
82611SOL     OW49729  11.350   3.968   0.891
82611SOL    HW149730  11.355   3.999   0.982
82611SOL    HW249731  11.302   3.886   0.897
82612SOL     OW49732   1.416   6.093   8.918
82612SOL    HW149733   1.348   6.160   8.926
82612SOL    HW249734   1.480   6.115   8.985
82613SOL     OW49735  13.705   0.627   6.297
82613SOL    HW149736  13.671   0.547   6.337
82613SOL    HW249737  13.711   0.689   6.370
82614SOL     OW49738  11.796   9.111  11.850
82614SOL    HW149739  11.730   9.049  11.820
82614SOL    HW249740  11.875   9.087  11.801
82615SOL     OW49741  12.577  10.251  12.335
82615SOL    HW149742  12.601  10.333  12.291
82615SOL    HW249743  12.531  10.200  12.268
82616SOL     OW49744   1.294   1.420   2.602
82616SOL    HW149745   1.216   1.453   2.648
82616SOL    HW249746   1.328   1.496   2.555
82617SOL     OW49747   0.834   8.559   2.625
82617SOL    HW149748   0.781   8.599   2.695
82617SOL    HW249749   0.823   8.465   2.638
82618SOL     OW49750  14.263   6.265   6.107
82618SOL    HW149751  14.197   6.290   6.172
82618SOL    HW249752  14.315   6.198   6.151
82619SOL     OW49753   6.156   2.363   3.577
82619SOL    HW149754   6.078   2.337   3.529
82619SOL    HW249755   6.126   2.376   3.667
82620SOL     OW49756   9.763  11.447  13.631
82620SOL    HW149757   9.841  11.446  13.576
82620SOL    HW249758   9.690  11.438  13.570
82621SOL     OW49759  11.882   6.345   5.853
82621SOL    HW149760  11.849   6.350   5.942
82621SOL    HW249761  11.815   6.298   5.804
82622SOL     OW49762  12.111   1.465   4.167
82622SOL    HW149763  12.062   1.386   4.145
82622SOL    HW249764  12.044   1.530   4.189
82623SOL     OW49765  11.270   0.881   9.894
82623SOL    HW149766  11.297   0.918   9.810
82623SOL    HW249767  11.223   0.801   9.872
82624SOL     OW49768   8.166   7.916   8.549
82624SOL    HW149769   8.247   7.927   8.599
82624SOL    HW249770   8.128   7.835   8.582
82625SOL     OW49771  14.747  14.103   5.496
82625SOL    HW149772  14.661  14.100   5.454
82625SOL    HW249773  14.793  14.026   5.463
82626SOL     OW49774  14.430   4.985   4.046
82626SOL    HW149775  14.359   5.050   4.055
82626SOL    HW249776  14.489   5.022   3.981
82627SOL     OW49777   6.583   5.096   7.610
82627SOL    HW149778   6.624   5.158   7.671
82627SOL    HW249779   6.622   5.117   7.525
82628SOL     OW49780   6.787   0.560   7.915
82628SOL    HW149781   6.785   0.480   7.861
82628SOL    HW249782   6.695   0.584   7.925
82629SOL     OW49783   6.704   5.825   3.879
82629SOL    HW149784   6.696   5.860   3.791
82629SOL    HW249785   6.770   5.756   3.871
82630SOL     OW49786   8.978   7.158  12.654
82630SOL    HW149787   8.994   7.069  12.622
82630SOL    HW249788   8.884   7.160  12.672
82631SOL     OW49789   4.335   3.786   7.047
82631SOL    HW149790   4.392   3.807   6.973
82631SOL    HW249791   4.297   3.869   7.073
82632SOL     OW49792   6.813   5.275   2.804
82632SOL    HW149793   6.740   5.225   2.768
82632SOL    HW249794   6.888   5.216   2.798
82633SOL     OW49795   5.026  12.716   4.723
82633SOL    HW149796   4.998  12.806   4.705
82633SOL    HW249797   4.950  12.674   4.763
82634SOL     OW49798   0.586   7.088   4.891
82634SOL    HW149799   0.668   7.132   4.913
82634SOL    HW249800   0.582   7.013   4.951
82635SOL     OW49801   1.975   1.727   5.096
82635SOL    HW149802   1.929   1.656   5.139
82635SOL    HW249803   1.953   1.805   5.148
82636SOL     OW49804  10.216   2.278   5.310
82636SOL    HW149805  10.289   2.236   5.356
82636SOL    HW249806  10.145   2.215   5.315
82637SOL     OW49807  13.559   9.827  11.240
82637SOL    HW149808  13.535   9.873  11.160
82637SOL    HW249809  13.653   9.844  11.250
82638SOL     OW49810   4.432  13.744   5.357
82638SOL    HW149811   4.388  13.790   5.429
82638SOL    HW249812   4.509  13.704   5.398
82639SOL     OW49813   3.054   3.295   4.228
82639SOL    HW149814   3.006   3.214   4.210
82639SOL    HW249815   3.081   3.287   4.320
82640SOL     OW49816   9.400  12.328  13.671
82640SOL    HW149817   9.447  12.245  13.665
82640SOL    HW249818   9.368  12.331  13.761
82641SOL     OW49819   6.894  14.075  13.335
82641SOL    HW149820   6.973  14.129  13.323
82641SOL    HW249821   6.898  14.047  13.426
82642SOL     OW49822   4.154   6.335  14.556
82642SOL    HW149823   4.221   6.294  14.501
82642SOL    HW249824   4.139   6.420  14.515
82643SOL     OW49825   2.810   0.207   9.935
82643SOL    HW149826   2.803   0.294   9.973
82643SOL    HW249827   2.763   0.213   9.852
82644SOL     OW49828   5.704   2.079   5.598
82644SOL    HW149829   5.762   2.052   5.669
82644SOL    HW249830   5.723   2.019   5.526
82645SOL     OW49831   5.937   6.713  12.774
82645SOL    HW149832   5.999   6.785  12.787
82645SOL    HW249833   5.962   6.675  12.690
82646SOL     OW49834  12.312  11.264   8.351
82646SOL    HW149835  12.311  11.263   8.447
82646SOL    HW249836  12.273  11.180   8.326
82647SOL     OW49837  12.711   1.843  11.380
82647SOL    HW149838  12.630   1.826  11.427
82647SOL    HW249839  12.780   1.802  11.433
82648SOL     OW49840  14.730  14.723   4.965
82648SOL    HW149841  14.760  14.648   5.016
82648SOL    HW249842  14.661  14.687   4.908
82649SOL     OW49843   5.642   2.242  10.118
82649SOL    HW149844   5.586   2.234  10.196
82649SOL    HW249845   5.604   2.315  10.069
82650SOL     OW49846  13.895   8.737  14.668
82650SOL    HW149847  13.866   8.648  14.686
82650SOL    HW249848  13.904   8.778  14.754
82651SOL     OW49849   9.329  13.655   0.089
82651SOL    HW149850   9.329  13.684   0.180
82651SOL    HW249851   9.295  13.566   0.093
82652SOL     OW49852   4.283   8.215   8.010
82652SOL    HW149853   4.242   8.301   8.003
82652SOL    HW249854   4.210   8.155   8.025
82653SOL     OW49855   2.264   5.089  13.070
82653SOL    HW149856   2.228   5.145  13.002
82653SOL    HW249857   2.194   5.083  13.135
82654SOL     OW49858   8.371   0.345   7.091
82654SOL    HW149859   8.286   0.339   7.048
82654SOL    HW249860   8.353   0.326   7.183
82655SOL     OW49861   2.195   6.770   5.094
82655SOL    HW149862   2.122   6.832   5.099
82655SOL    HW249863   2.231   6.768   5.183
82656SOL     OW49864   5.064  12.660   2.171
82656SOL    HW149865   5.118  12.720   2.119
82656SOL    HW249866   5.010  12.614   2.106
82657SOL     OW49867   5.903   2.070   7.376
82657SOL    HW149868   5.847   2.138   7.415
82657SOL    HW249869   5.972   2.118   7.331
82658SOL     OW49870  11.144   3.557  14.487
82658SOL    HW149871  11.223   3.536  14.437
82658SOL    HW249872  11.116   3.642  14.454
82659SOL     OW49873  13.150   3.268   3.513
82659SOL    HW149874  13.147   3.202   3.581
82659SOL    HW249875  13.243   3.289   3.504
82660SOL     OW49876   4.404   1.692   0.896
82660SOL    HW149877   4.453   1.743   0.833
82660SOL    HW249878   4.465   1.680   0.970
82661SOL     OW49879   1.655   8.908  10.464
82661SOL    HW149880   1.621   8.822  10.441
82661SOL    HW249881   1.653   8.958  10.382
82662SOL     OW49882  14.816   5.542   3.593
82662SOL    HW149883   0.001   5.492   3.545
82662SOL    HW249884  14.816   5.628   3.551
82663SOL     OW49885   5.100   4.637  12.548
82663SOL    HW149886   5.021   4.588  12.571
82663SOL    HW249887   5.147   4.647  12.630
82664SOL     OW49888   9.186   3.365   7.026
82664SOL    HW149889   9.124   3.434   7.048
82664SOL    HW249890   9.184   3.306   7.101
82665SOL     OW49891   9.978  11.102   7.465
82665SOL    HW149892  10.037  11.081   7.392
82665SOL    HW249893   9.966  11.018   7.510
82666SOL     OW49894   7.801   3.129   4.987
82666SOL    HW149895   7.866   3.174   5.040
82666SOL    HW249896   7.725   3.120   5.045
82667SOL     OW49897   0.379   3.574   3.790
82667SOL    HW149898   0.460   3.590   3.837
82667SOL    HW249899   0.334   3.507   3.841
82668SOL     OW49900  11.700   9.722   1.771
82668SOL    HW149901  11.676   9.663   1.699
82668SOL    HW249902  11.720   9.805   1.728
82669SOL     OW49903   9.276   3.497  12.072
82669SOL    HW149904   9.286   3.577  12.021
82669SOL    HW249905   9.335   3.509  12.147
82670SOL     OW49906   9.452   7.021  12.711
82670SOL    HW149907   9.462   7.042  12.618
82670SOL    HW249908   9.522   6.958  12.728
82671SOL     OW49909  12.769   0.035  12.197
82671SOL    HW149910  12.845   0.059  12.250
82671SOL    HW249911  12.696   0.085  12.235
82672SOL     OW49912   8.559   5.917   3.430
82672SOL    HW149913   8.614   5.978   3.381
82672SOL    HW249914   8.511   5.869   3.363
82673SOL     OW49915   1.255   0.615   4.492
82673SOL    HW149916   1.266   0.633   4.398
82673SOL    HW249917   1.165   0.584   4.499
82674SOL     OW49918  10.510  12.662   4.590
82674SOL    HW149919  10.492  12.675   4.497
82674SOL    HW249920  10.427  12.680   4.634
82675SOL     OW49921   9.856   5.659   0.219
82675SOL    HW149922   9.862   5.650   0.314
82675SOL    HW249923   9.925   5.722   0.197
82676SOL     OW49924   3.462   1.562   3.609
82676SOL    HW149925   3.412   1.644   3.605
82676SOL    HW249926   3.500   1.562   3.697
82677SOL     OW49927   2.791   8.395  13.421
82677SOL    HW149928   2.754   8.353  13.343
82677SOL    HW249929   2.806   8.486  13.394
82678SOL     OW49930  14.548   7.106   6.470
82678SOL    HW149931  14.644   7.105   6.476
82678SOL    HW249932  14.530   7.165   6.397
82679SOL     OW49933   3.329   5.726   1.918
82679SOL    HW149934   3.258   5.721   1.854
82679SOL    HW249935   3.408   5.704   1.867
82680SOL     OW49936  11.796   2.514   8.016
82680SOL    HW149937  11.869   2.576   8.014
82680SOL    HW249938  11.763   2.520   8.106
82681SOL     OW49939   2.184   8.331   5.833
82681SOL    HW149940   2.259   8.272   5.842
82681SOL    HW249941   2.127   8.290   5.768
82682SOL     OW49942   7.828   5.164  11.255
82682SOL    HW149943   7.816   5.087  11.201
82682SOL    HW249944   7.840   5.129  11.344
82683SOL     OW49945   9.497   4.527  10.613
82683SOL    HW149946   9.555   4.595  10.579
82683SOL    HW249947   9.554   4.470  10.665
82684SOL     OW49948  10.950  11.789   7.130
82684SOL    HW149949  10.857  11.787   7.151
82684SOL    HW249950  10.960  11.729   7.056
82685SOL     OW49951   3.628   5.133   4.563
82685SOL    HW149952   3.603   5.176   4.481
82685SOL    HW249953   3.643   5.042   4.540
82686SOL     OW49954   7.223   0.987   8.544
82686SOL    HW149955   7.241   0.931   8.469
82686SOL    HW249956   7.145   0.948   8.585
82687SOL     OW49957   3.884  14.709   2.786
82687SOL    HW149958   3.806  14.712   2.731
82687SOL    HW249959   3.956  14.728   2.726
82688SOL     OW49960  13.767   9.748   9.180
82688SOL    HW149961  13.785   9.680   9.245
82688SOL    HW249962  13.682   9.784   9.204
82689SOL     OW49963   2.798  14.487  10.866
82689SOL    HW149964   2.872  14.476  10.926
82689SOL    HW249965   2.817  14.568  10.819
82690SOL     OW49966   8.147   5.930  14.652
82690SOL    HW149967   8.179   5.840  14.653
82690SOL    HW249968   8.172   5.966  14.737
82691SOL     OW49969  11.773  11.084   1.251
82691SOL    HW149970  11.798  11.009   1.196
82691SOL    HW249971  11.856  11.120   1.281
82692SOL     OW49972   5.732   0.311   6.519
82692SOL    HW149973   5.765   0.271   6.439
82692SOL    HW249974   5.772   0.260   6.589
82693SOL     OW49975  12.428  13.983  12.328
82693SOL    HW149976  12.366  14.056  12.324
82693SOL    HW249977  12.455  13.970  12.237
82694SOL     OW49978   8.791   3.136   6.128
82694SOL    HW149979   8.732   3.196   6.173
82694SOL    HW249980   8.783   3.053   6.175
82695SOL     OW49981   6.279   4.205  10.532
82695SOL    HW149982   6.366   4.166  10.525
82695SOL    HW249983   6.293   4.287  10.580
82696SOL     OW49984   4.763   8.747   4.758
82696SOL    HW149985   4.692   8.781   4.813
82696SOL    HW249986   4.743   8.781   4.670
82697SOL     OW49987  10.089   5.288  13.490
82697SOL    HW149988  10.088   5.224  13.561
82697SOL    HW249989  10.142   5.246  13.422
82698SOL     OW49990   0.532  11.142   9.508
82698SOL    HW149991   0.613  11.123   9.555
82698SOL    HW249992   0.548  11.227   9.466
82699SOL     OW49993   1.915   4.967  11.778
82699SOL    HW149994   1.860   5.044  11.764
82699SOL    HW249995   1.913   4.921  11.694
82700SOL     OW49996   6.291  11.404   6.653
82700SOL    HW149997   6.223  11.373   6.594
82700SOL    HW249998   6.257  11.487   6.688
82701SOL     OW49999   1.467   7.629   7.991
82701SOL    HW150000   1.414   7.586   8.058
82701SOL    HW250001   1.477   7.719   8.022
82702SOL     OW50002   2.796   6.655  10.445
82702SOL    HW150003   2.876   6.683  10.400
82702SOL    HW250004   2.828   6.603  10.519
82703SOL     OW50005   1.951   4.551   0.441
82703SOL    HW150006   1.929   4.639   0.410
82703SOL    HW250007   2.045   4.543   0.425
82704SOL     OW50008   3.482   3.217   2.894
82704SOL    HW150009   3.561   3.205   2.947
82704SOL    HW250010   3.499   3.168   2.814
82705SOL     OW50011  13.680  13.369   8.702
82705SOL    HW150012  13.611  13.330   8.648
82705SOL    HW250013  13.731  13.423   8.642
82706SOL     OW50014  13.998  14.651   2.020
82706SOL    HW150015  14.091  14.635   2.035
82706SOL    HW250016  13.953  14.604   2.091
82707SOL     OW50017   8.000   2.146   6.660
82707SOL    HW150018   7.980   2.225   6.610
82707SOL    HW250019   8.064   2.099   6.605
82708SOL     OW50020  11.341   2.229   8.720
82708SOL    HW150021  11.347   2.135   8.736
82708SOL    HW250022  11.250   2.244   8.697
82709SOL     OW50023  13.897   4.656  12.838
82709SOL    HW150024  13.979   4.689  12.874
82709SOL    HW250025  13.835   4.664  12.911
82710SOL     OW50026  11.868   2.745   9.119
82710SOL    HW150027  11.885   2.652   9.130
82710SOL    HW250028  11.772   2.752   9.113
82711SOL     OW50029   1.787   5.089   6.374
82711SOL    HW150030   1.817   5.153   6.309
82711SOL    HW250031   1.868   5.057   6.415
82712SOL     OW50032   9.043   4.820   4.578
82712SOL    HW150033   8.979   4.751   4.564
82712SOL    HW250034   9.066   4.850   4.490
82713SOL     OW50035   3.271   2.431   0.942
82713SOL    HW150036   3.266   2.439   1.037
82713SOL    HW250037   3.354   2.385   0.926
82714SOL     OW50038   1.748  13.973   6.598
82714SOL    HW150039   1.754  14.025   6.679
82714SOL    HW250040   1.788  14.028   6.531
82715SOL     OW50041   0.982  11.492  10.727
82715SOL    HW150042   1.060  11.486  10.671
82715SOL    HW250043   1.015  11.515  10.813
82716SOL     OW50044  13.969   2.398   4.611
82716SOL    HW150045  14.028   2.347   4.667
82716SOL    HW250046  13.896   2.339   4.593
82717SOL     OW50047  12.140   9.376   7.304
82717SOL    HW150048  12.229   9.410   7.297
82717SOL    HW250049  12.118   9.387   7.397
82718SOL     OW50050   4.018   5.928   1.947
82718SOL    HW150051   4.049   5.907   1.859
82718SOL    HW250052   4.045   6.019   1.960
82719SOL     OW50053   0.394   5.844  11.757
82719SOL    HW150054   0.424   5.859  11.668
82719SOL    HW250055   0.337   5.768  11.751
82720SOL     OW50056   2.758  14.852   4.922
82720SOL    HW150057   2.739   0.025   4.846
82720SOL    HW250058   2.802   0.028   4.984
82721SOL     OW50059  11.309   5.153   0.950
82721SOL    HW150060  11.310   5.247   0.967
82721SOL    HW250061  11.394   5.122   0.982
82722SOL     OW50062   0.272   0.173   5.328
82722SOL    HW150063   0.196   0.130   5.289
82722SOL    HW250064   0.345   0.113   5.314
82723SOL     OW50065   6.223   5.226   9.460
82723SOL    HW150066   6.217   5.170   9.382
82723SOL    HW250067   6.309   5.267   9.452
82724SOL     OW50068   8.620   4.951   6.230
82724SOL    HW150069   8.702   4.921   6.190
82724SOL    HW250070   8.639   4.954   6.324
82725SOL     OW50071   4.964   0.737   9.463
82725SOL    HW150072   4.900   0.800   9.496
82725SOL    HW250073   4.942   0.727   9.371
82726SOL     OW50074  10.067   1.002  10.464
82726SOL    HW150075   9.991   0.956  10.429
82726SOL    HW250076  10.046   1.095  10.452
82727SOL     OW50077   4.054   2.082  12.328
82727SOL    HW150078   3.960   2.096  12.316
82727SOL    HW250079   4.078   2.142  12.399
82728SOL     OW50080  10.402  10.158   1.173
82728SOL    HW150081  10.452  10.204   1.107
82728SOL    HW250082  10.361  10.085   1.126
82729SOL     OW50083   3.298   3.092   3.214
82729SOL    HW150084   3.220   3.036   3.213
82729SOL    HW250085   3.360   3.045   3.270
82730SOL     OW50086  12.096  11.954   6.397
82730SOL    HW150087  12.017  11.906   6.375
82730SOL    HW250088  12.152  11.889   6.440
82731SOL     OW50089   6.207   5.778  10.684
82731SOL    HW150090   6.158   5.713  10.734
82731SOL    HW250091   6.294   5.740  10.674
82732SOL     OW50092   2.309  12.875   8.407
82732SOL    HW150093   2.304  12.822   8.487
82732SOL    HW250094   2.303  12.812   8.336
82733SOL     OW50095  12.679   3.437   3.410
82733SOL    HW150096  12.766   3.458   3.442
82733SOL    HW250097  12.629   3.416   3.489
82734SOL     OW50098   3.079   6.389   1.690
82734SOL    HW150099   3.101   6.343   1.610
82734SOL    HW250100   3.162   6.428   1.719
82735SOL     OW50101   4.596   2.955   3.191
82735SOL    HW150102   4.684   2.955   3.155
82735SOL    HW250103   4.565   3.044   3.178
82736SOL     OW50104   5.278   0.930   1.726
82736SOL    HW150105   5.342   0.963   1.664
82736SOL    HW250106   5.196   0.925   1.677
82737SOL     OW50107   6.141   5.134   3.915
82737SOL    HW150108   6.162   5.157   4.006
82737SOL    HW250109   6.210   5.175   3.863
82738SOL     OW50110  10.959  10.903  10.875
82738SOL    HW150111  10.954  10.977  10.814
82738SOL    HW250112  11.049  10.871  10.866
82739SOL     OW50113  12.221  12.982   0.832
82739SOL    HW150114  12.241  13.043   0.762
82739SOL    HW250115  12.234  13.033   0.912
82740SOL     OW50116  10.144   7.670   4.440
82740SOL    HW150117  10.068   7.649   4.385
82740SOL    HW250118  10.129   7.622   4.521
82741SOL     OW50119   0.736   3.567  12.704
82741SOL    HW150120   0.818   3.592  12.747
82741SOL    HW250121   0.691   3.511  12.768
82742SOL     OW50122  10.203   8.641  14.205
82742SOL    HW150123  10.216   8.711  14.268
82742SOL    HW250124  10.288   8.631  14.161
82743SOL     OW50125  13.470   6.267  10.664
82743SOL    HW150126  13.407   6.325  10.707
82743SOL    HW250127  13.554   6.291  10.704
82744SOL     OW50128   7.124   0.702   1.176
82744SOL    HW150129   7.107   0.794   1.195
82744SOL    HW250130   7.215   0.689   1.201
82745SOL     OW50131  14.419   4.964   4.444
82745SOL    HW150132  14.406   5.029   4.375
82745SOL    HW250133  14.514   4.957   4.453
82746SOL     OW50134   6.941   6.133  12.249
82746SOL    HW150135   6.866   6.180  12.286
82746SOL    HW250136   6.929   6.138  12.154
82747SOL     OW50137   7.572  14.596   3.386
82747SOL    HW150138   7.491  14.569   3.342
82747SOL    HW250139   7.565  14.691   3.393
82748SOL     OW50140   4.676   2.420   7.868
82748SOL    HW150141   4.620   2.492   7.898
82748SOL    HW250142   4.756   2.462   7.838
82749SOL     OW50143   5.958  10.638   0.702
82749SOL    HW150144   5.899  10.662   0.630
82749SOL    HW250145   5.994  10.721   0.732
82750SOL     OW50146  10.947   6.442   8.848
82750SOL    HW150147  10.936   6.387   8.770
82750SOL    HW250148  10.861   6.482   8.861
82751SOL     OW50149   6.459   2.155   5.282
82751SOL    HW150150   6.418   2.207   5.214
82751SOL    HW250151   6.495   2.219   5.343
82752SOL     OW50152   1.313   8.784   1.254
82752SOL    HW150153   1.333   8.854   1.192
82752SOL    HW250154   1.242   8.820   1.308
82753SOL     OW50155   3.748  11.289   4.147
82753SOL    HW150156   3.692  11.349   4.099
82753SOL    HW250157   3.734  11.312   4.239
82754SOL     OW50158  14.499  11.000  14.101
82754SOL    HW150159  14.532  10.932  14.041
82754SOL    HW250160  14.518  11.082  14.057
82755SOL     OW50161   0.063  12.497   0.220
82755SOL    HW150162   0.008  12.568   0.187
82755SOL    HW250163   0.117  12.538   0.287
82756SOL     OW50164  11.991  13.915   7.709
82756SOL    HW150165  11.948  14.000   7.712
82756SOL    HW250166  12.061  13.925   7.645
82757SOL     OW50167   7.554   7.910   6.709
82757SOL    HW150168   7.646   7.883   6.714
82757SOL    HW250169   7.546   7.949   6.622
82758SOL     OW50170   3.277   4.611  13.674
82758SOL    HW150171   3.267   4.672  13.601
82758SOL    HW250172   3.188   4.578  13.690
82759SOL     OW50173  10.006   7.072   0.220
82759SOL    HW150174  10.007   7.094   0.313
82759SOL    HW250175  10.093   7.095   0.189
82760SOL     OW50176  12.113   5.252  14.363
82760SOL    HW150177  12.119   5.239  14.268
82760SOL    HW250178  12.037   5.310  14.374
82761SOL     OW50179  11.907  12.000   6.062
82761SOL    HW150180  11.963  12.077   6.052
82761SOL    HW250181  11.929  11.965   6.148
82762SOL     OW50182   9.082  14.801  14.763
82762SOL    HW150183   9.069  14.751  14.682
82762SOL    HW250184   9.173  14.831  14.758
82763SOL     OW50185   8.995   7.945   1.151
82763SOL    HW150186   8.988   7.936   1.056
82763SOL    HW250187   9.057   7.877   1.177
82764SOL     OW50188   4.949   7.309   4.945
82764SOL    HW150189   4.980   7.219   4.940
82764SOL    HW250190   4.966   7.335   5.035
82765SOL     OW50191  14.048   9.726  14.241
82765SOL    HW150192  14.109   9.685  14.179
82765SOL    HW250193  13.962   9.690  14.218
82766SOL     OW50194   8.228   4.302  14.769
82766SOL    HW150195   8.271   4.219  14.749
82766SOL    HW250196   8.270   4.365  14.710
82767SOL     OW50197   3.152   0.267  13.725
82767SOL    HW150198   3.121   0.262  13.635
82767SOL    HW250199   3.183   0.178  13.744
82768SOL     OW50200  10.009  10.429   7.206
82768SOL    HW150201  10.006  10.491   7.133
82768SOL    HW250202  10.041  10.481   7.280
82769SOL     OW50203   7.600  13.546  10.969
82769SOL    HW150204   7.575  13.542  11.061
82769SOL    HW250205   7.569  13.631  10.939
82770SOL     OW50206   9.284  10.435   8.336
82770SOL    HW150207   9.222  10.372   8.299
82770SOL    HW250208   9.243  10.465   8.417
82771SOL     OW50209   3.637   9.159   4.816
82771SOL    HW150210   3.687   9.212   4.878
82771SOL    HW250211   3.686   9.165   4.734
82772SOL     OW50212   7.102   4.298   4.126
82772SOL    HW150213   7.096   4.265   4.216
82772SOL    HW250214   7.188   4.269   4.096
82773SOL     OW50215   9.783   5.669  13.406
82773SOL    HW150216   9.779   5.743  13.466
82773SOL    HW250217   9.872   5.635  13.414
82774SOL     OW50218   1.953   3.589   5.069
82774SOL    HW150219   1.898   3.604   5.145
82774SOL    HW250220   2.030   3.543   5.103
82775SOL     OW50221   5.841   0.459  13.589
82775SOL    HW150222   5.775   0.484  13.655
82775SOL    HW250223   5.790   0.437  13.511
82776SOL     OW50224  13.348  14.528   5.421
82776SOL    HW150225  13.359  14.618   5.453
82776SOL    HW250226  13.287  14.536   5.347
82777SOL     OW50227  11.545   1.164   7.408
82777SOL    HW150228  11.566   1.252   7.439
82777SOL    HW250229  11.450   1.162   7.404
82778SOL     OW50230  13.865   5.679  13.087
82778SOL    HW150231  13.820   5.629  13.019
82778SOL    HW250232  13.929   5.732  13.040
82779SOL     OW50233  11.160   6.153  13.878
82779SOL    HW150234  11.065   6.144  13.868
82779SOL    HW250235  11.196   6.083  13.824
82780SOL     OW50236   0.956   3.465   6.562
82780SOL    HW150237   1.040   3.441   6.522
82780SOL    HW250238   0.926   3.386   6.606
82781SOL     OW50239   8.639   8.605  11.640
82781SOL    HW150240   8.570   8.629  11.702
82781SOL    HW250241   8.710   8.573  11.695
82782SOL     OW50242   5.014  12.342  10.667
82782SOL    HW150243   5.057  12.264  10.703
82782SOL    HW250244   4.926  12.311  10.643
82783SOL     OW50245  12.845   8.673   2.337
82783SOL    HW150246  12.938   8.669   2.358
82783SOL    HW250247  12.824   8.587   2.301
82784SOL     OW50248   3.262   7.924  13.912
82784SOL    HW150249   3.180   7.944  13.868
82784SOL    HW250250   3.291   8.007  13.950
82785SOL     OW50251   6.039  14.374   4.066
82785SOL    HW150252   6.056  14.353   3.974
82785SOL    HW250253   6.109  14.329   4.114
82786SOL     OW50254   8.149   7.290  13.457
82786SOL    HW150255   8.101   7.371  13.438
82786SOL    HW250256   8.134   7.275  13.551
82787SOL     OW50257   6.912  14.679   4.457
82787SOL    HW150258   6.909  14.715   4.368
82787SOL    HW250259   6.959  14.596   4.448
82788SOL     OW50260  14.807   9.653  10.203
82788SOL    HW150261  14.825   9.650  10.110
82788SOL    HW250262  14.755   9.732  10.216
82789SOL     OW50263  14.275  12.727  14.535
82789SOL    HW150264  14.264  12.807  14.588
82789SOL    HW250265  14.264  12.757  14.445
82790SOL     OW50266  12.038   1.328   3.306
82790SOL    HW150267  11.981   1.368   3.241
82790SOL    HW250268  12.114   1.385   3.310
82791SOL     OW50269   9.054   2.995   2.361
82791SOL    HW150270   9.105   3.042   2.427
82791SOL    HW250271   8.981   3.054   2.340
82792SOL     OW50272   8.733   2.978  11.922
82792SOL    HW150273   8.698   2.893  11.894
82792SOL    HW250274   8.720   3.036  11.847
82793SOL     OW50275   8.274   0.110   9.513
82793SOL    HW150276   8.251   0.035   9.459
82793SOL    HW250277   8.369   0.106   9.521
82794SOL     OW50278   1.991  11.031   1.442
82794SOL    HW150279   1.901  11.046   1.414
82794SOL    HW250280   2.008  10.939   1.420
82795SOL     OW50281   5.515  14.185  13.748
82795SOL    HW150282   5.600  14.229  13.753
82795SOL    HW250283   5.522  14.129  13.670
82796SOL     OW50284  12.274  13.235  13.373
82796SOL    HW150285  12.335  13.282  13.430
82796SOL    HW250286  12.259  13.294  13.299
82797SOL     OW50287  12.291   2.429   0.422
82797SOL    HW150288  12.290   2.399   0.331
82797SOL    HW250289  12.199   2.431   0.448
82798SOL     OW50290   9.873  13.305   5.505
82798SOL    HW150291   9.899  13.213   5.491
82798SOL    HW250292   9.890  13.321   5.598
82799SOL     OW50293   4.292  14.403   7.595
82799SOL    HW150294   4.214  14.446   7.631
82799SOL    HW250295   4.262  14.315   7.571
82800SOL     OW50296   2.003   7.977   4.673
82800SOL    HW150297   2.066   7.945   4.609
82800SOL    HW250298   2.046   8.053   4.713
82801SOL     OW50299   5.672  12.769  12.272
82801SOL    HW150300   5.739  12.747  12.337
82801SOL    HW250301   5.720  12.778  12.190
82802SOL     OW50302  14.718  13.870   9.818
82802SOL    HW150303  14.758  13.856   9.732
82802SOL    HW250304  14.774  13.822   9.878
82803SOL     OW50305   3.393   6.025   1.774
82803SOL    HW150306   3.421   5.968   1.702
82803SOL    HW250307   3.461   6.092   1.779
82804SOL     OW50308   5.278   2.887   7.086
82804SOL    HW150309   5.235   2.957   7.037
82804SOL    HW250310   5.369   2.890   7.057
82805SOL     OW50311   7.989   9.685   6.081
82805SOL    HW150312   7.945   9.676   5.996
82805SOL    HW250313   8.030   9.771   6.077
82806SOL     OW50314   5.749   9.468   2.953
82806SOL    HW150315   5.781   9.385   2.919
82806SOL    HW250316   5.828   9.515   2.980
82807SOL     OW50317   9.552  11.044   8.056
82807SOL    HW150318   9.570  10.953   8.078
82807SOL    HW250319   9.484  11.040   7.989
82808SOL     OW50320  13.571   3.000   1.126
82808SOL    HW150321  13.549   2.948   1.203
82808SOL    HW250322  13.556   3.090   1.153
82809SOL     OW50323   8.775   5.692   1.864
82809SOL    HW150324   8.835   5.670   1.935
82809SOL    HW250325   8.819   5.660   1.785
82810SOL     OW50326   3.337   9.601   2.338
82810SOL    HW150327   3.422   9.568   2.369
82810SOL    HW250328   3.359   9.664   2.270
82811SOL     OW50329   5.667   0.161  13.235
82811SOL    HW150330   5.573   0.163  13.220
82811SOL    HW250331   5.705   0.154  13.147
82812SOL     OW50332  13.003   6.248   7.502
82812SOL    HW150333  12.965   6.170   7.544
82812SOL    HW250334  12.965   6.248   7.414
82813SOL     OW50335   2.263   7.282   8.287
82813SOL    HW150336   2.276   7.229   8.366
82813SOL    HW250337   2.317   7.360   8.300
82814SOL     OW50338   1.214   7.166   6.033
82814SOL    HW150339   1.253   7.237   5.982
82814SOL    HW250340   1.224   7.088   5.979
82815SOL     OW50341  12.116   4.547   2.475
82815SOL    HW150342  12.086   4.624   2.524
82815SOL    HW250343  12.212   4.548   2.486
82816SOL     OW50344  12.979   1.769   7.291
82816SOL    HW150345  12.925   1.808   7.223
82816SOL    HW250346  13.069   1.783   7.261
82817SOL     OW50347  13.074   1.273   7.925
82817SOL    HW150348  13.020   1.280   8.004
82817SOL    HW250349  13.079   1.178   7.908
82818SOL     OW50350   5.458  14.811  14.754
82818SOL    HW150351   5.474  14.776  14.841
82818SOL    HW250352   5.525  14.771  14.699
82819SOL     OW50353   3.967   8.229   7.036
82819SOL    HW150354   3.928   8.274   6.961
82819SOL    HW250355   3.957   8.289   7.109
82820SOL     OW50356   1.154   8.489   1.182
82820SOL    HW150357   1.200   8.443   1.252
82820SOL    HW250358   1.085   8.538   1.226
82821SOL     OW50359   9.415   2.100  13.027
82821SOL    HW150360   9.500   2.133  12.999
82821SOL    HW250361   9.433   2.013  13.062
82822SOL     OW50362   5.836   8.565   3.275
82822SOL    HW150363   5.859   8.650   3.314
82822SOL    HW250364   5.774   8.586   3.205
82823SOL     OW50365   4.182   2.400   3.884
82823SOL    HW150366   4.148   2.485   3.911
82823SOL    HW250367   4.135   2.380   3.803
82824SOL     OW50368   8.544   3.862  12.136
82824SOL    HW150369   8.588   3.897  12.213
82824SOL    HW250370   8.453   3.893  12.144
82825SOL     OW50371   3.800   5.762   1.416
82825SOL    HW150372   3.820   5.683   1.366
82825SOL    HW250373   3.809   5.834   1.353
82826SOL     OW50374  10.596  12.098   9.150
82826SOL    HW150375  10.619  12.159   9.220
82826SOL    HW250376  10.676  12.092   9.097
82827SOL     OW50377   4.132   3.362  10.282
82827SOL    HW150378   4.097   3.279  10.250
82827SOL    HW250379   4.170   3.403  10.204
82828SOL     OW50380  11.921   8.187   0.411
82828SOL    HW150381  11.871   8.125   0.358
82828SOL    HW250382  12.001   8.202   0.361
82829SOL     OW50383  10.271  11.265  10.952
82829SOL    HW150384  10.306  11.351  10.926
82829SOL    HW250385  10.191  11.255  10.900
82830SOL     OW50386   3.097   2.300   6.088
82830SOL    HW150387   3.118   2.264   6.174
82830SOL    HW250388   3.002   2.302   6.086
82831SOL     OW50389   0.096  13.379   0.077
82831SOL    HW150390   0.003  13.365   0.096
82831SOL    HW250391   0.100  13.382  14.863
82832SOL     OW50392  13.560  13.314   0.610
82832SOL    HW150393  13.627  13.363   0.562
82832SOL    HW250394  13.526  13.251   0.546
82833SOL     OW50395  12.492   5.089   7.359
82833SOL    HW150396  12.545   5.016   7.328
82833SOL    HW250397  12.406   5.076   7.317
82834SOL     OW50398  10.161   0.856  14.155
82834SOL    HW150399  10.255   0.865  14.170
82834SOL    HW250400  10.134   0.941  14.121
82835SOL     OW50401   6.005   8.363  12.798
82835SOL    HW150402   5.911   8.371  12.782
82835SOL    HW250403   6.034   8.291  12.742
82836SOL     OW50404   3.368   6.229   8.402
82836SOL    HW150405   3.386   6.301   8.462
82836SOL    HW250406   3.277   6.204   8.422
82837SOL     OW50407   4.496   5.013  12.638
82837SOL    HW150408   4.526   4.925  12.616
82837SOL    HW250409   4.572   5.053  12.681
82838SOL     OW50410   4.799   5.707   6.656
82838SOL    HW150411   4.833   5.786   6.697
82838SOL    HW250412   4.871   5.674   6.603
82839SOL     OW50413   8.144  11.791   5.095
82839SOL    HW150414   8.065  11.737   5.090
82839SOL    HW250415   8.120  11.874   5.054
82840SOL     OW50416   6.860  12.137   1.571
82840SOL    HW150417   6.872  12.189   1.492
82840SOL    HW250418   6.776  12.093   1.558
82841SOL     OW50419   6.687   5.670   8.864
82841SOL    HW150420   6.697   5.674   8.769
82841SOL    HW250421   6.595   5.690   8.880
82842SOL     OW50422  14.098   4.100   6.540
82842SOL    HW150423  14.158   4.046   6.591
82842SOL    HW250424  14.153   4.167   6.500
82843SOL     OW50425  11.576   9.470   6.305
82843SOL    HW150426  11.583   9.376   6.287
82843SOL    HW250427  11.514   9.475   6.378
82844SOL     OW50428   2.711   1.781   1.440
82844SOL    HW150429   2.788   1.832   1.463
82844SOL    HW250430   2.708   1.785   1.344
82845SOL     OW50431  12.642   4.797   7.333
82845SOL    HW150432  12.576   4.789   7.264
82845SOL    HW250433  12.723   4.768   7.292
82846SOL     OW50434   0.375   5.995  10.798
82846SOL    HW150435   0.284   6.016  10.774
82846SOL    HW250436   0.374   5.988  10.893
82847SOL     OW50437   5.006   5.042  11.223
82847SOL    HW150438   4.917   5.054  11.255
82847SOL    HW250439   4.998   4.979  11.151
82848SOL     OW50440   6.509   6.604   2.065
82848SOL    HW150441   6.585   6.645   2.107
82848SOL    HW250442   6.546   6.536   2.009
82849SOL     OW50443   0.511   7.800  10.705
82849SOL    HW150444   0.523   7.719  10.656
82849SOL    HW250445   0.434   7.784  10.759
82850SOL     OW50446  14.496  11.334   0.101
82850SOL    HW150447  14.475  11.366   0.189
82850SOL    HW250448  14.411  11.325   0.058
82851SOL     OW50449   5.141   4.325   8.742
82851SOL    HW150450   5.108   4.281   8.820
82851SOL    HW250451   5.146   4.256   8.675
82852SOL     OW50452   7.290  11.449  12.510
82852SOL    HW150453   7.265  11.359  12.530
82852SOL    HW250454   7.323  11.446  12.421
82853SOL     OW50455  11.633  10.851   1.506
82853SOL    HW150456  11.607  10.833   1.597
82853SOL    HW250457  11.728  10.850   1.509
82854SOL     OW50458   2.181   8.872   9.253
82854SOL    HW150459   2.197   8.817   9.177
82854SOL    HW250460   2.263   8.871   9.301
82855SOL     OW50461  13.497   9.274  11.965
82855SOL    HW150462  13.535   9.362  11.956
82855SOL    HW250463  13.468   9.270  12.056
82856SOL     OW50464  13.627   6.296   3.945
82856SOL    HW150465  13.713   6.327   3.971
82856SOL    HW250466  13.566   6.363   3.977
82857SOL     OW50467   9.474  13.200  14.576
82857SOL    HW150468   9.382  13.184  14.553
82857SOL    HW250469   9.480  13.177  14.668
82858SOL     OW50470   6.234  11.563  10.496
82858SOL    HW150471   6.164  11.498  10.498
82858SOL    HW250472   6.274  11.551  10.410
82859SOL     OW50473  12.501   4.560   9.439
82859SOL    HW150474  12.443   4.598   9.506
82859SOL    HW250475  12.457   4.579   9.356
82860SOL     OW50476   9.682  11.283  14.622
82860SOL    HW150477   9.700  11.372  14.592
82860SOL    HW250478   9.700  11.228  14.545
82861SOL     OW50479   6.584  12.687   2.922
82861SOL    HW150480   6.543  12.731   2.847
82861SOL    HW250481   6.518  12.624   2.952
82862SOL     OW50482   9.414   6.355  12.291
82862SOL    HW150483   9.435   6.324  12.379
82862SOL    HW250484   9.465   6.436  12.281
82863SOL     OW50485  13.804   3.037  13.256
82863SOL    HW150486  13.748   3.000  13.188
82863SOL    HW250487  13.760   3.015  13.338
82864SOL     OW50488   6.992   7.882   6.954
82864SOL    HW150489   7.066   7.929   6.915
82864SOL    HW250490   6.948   7.947   7.009
82865SOL     OW50491  10.345   4.497   5.745
82865SOL    HW150492  10.436   4.484   5.720
82865SOL    HW250493  10.306   4.545   5.672
82866SOL     OW50494   7.634   4.542   7.823
82866SOL    HW150495   7.697   4.471   7.821
82866SOL    HW250496   7.634   4.577   7.734
82867SOL     OW50497   9.566   6.992   3.674
82867SOL    HW150498   9.628   6.968   3.606
82867SOL    HW250499   9.608   7.063   3.722
82868SOL     OW50500   5.434  13.525   2.148
82868SOL    HW150501   5.476  13.484   2.223
82868SOL    HW250502   5.438  13.460   2.078
82869SOL     OW50503  11.173   9.366   1.779
82869SOL    HW150504  11.183   9.314   1.699
82869SOL    HW250505  11.169   9.301   1.849
82870SOL     OW50506  11.282   0.276   8.828
82870SOL    HW150507  11.268   0.368   8.852
82870SOL    HW250508  11.375   0.270   8.809
82871SOL     OW50509   2.372   6.564   7.040
82871SOL    HW150510   2.324   6.501   6.986
82871SOL    HW250511   2.456   6.522   7.056
82872SOL     OW50512   0.480   3.109  11.856
82872SOL    HW150513   0.451   3.027  11.896
82872SOL    HW250514   0.527   3.082  11.777
82873SOL     OW50515   9.719   2.047  12.177
82873SOL    HW150516   9.690   1.990  12.248
82873SOL    HW250517   9.690   2.134  12.203
82874SOL     OW50518   1.814  10.962   2.745
82874SOL    HW150519   1.904  10.994   2.755
82874SOL    HW250520   1.819  10.869   2.766
82875SOL     OW50521   8.917   4.374  13.153
82875SOL    HW150522   8.957   4.371  13.066
82875SOL    HW250523   8.990   4.394  13.212
82876SOL     OW50524   6.927  11.346   1.228
82876SOL    HW150525   6.986  11.409   1.186
82876SOL    HW250526   6.967  11.261   1.210
82877SOL     OW50527   5.690   8.577  11.497
82877SOL    HW150528   5.783   8.556  11.482
82877SOL    HW250529   5.684   8.595  11.590
82878SOL     OW50530  14.312   6.911   8.011
82878SOL    HW150531  14.292   7.005   8.009
82878SOL    HW250532  14.402   6.906   8.044
82879SOL     OW50533   4.108  14.321   3.452
82879SOL    HW150534   4.033  14.345   3.397
82879SOL    HW250535   4.162  14.266   3.396
82880SOL     OW50536  10.851  11.148   2.161
82880SOL    HW150537  10.782  11.157   2.227
82880SOL    HW250538  10.933  11.161   2.210
82881SOL     OW50539   6.436   7.244   9.828
82881SOL    HW150540   6.501   7.174   9.819
82881SOL    HW250541   6.373   7.227   9.758
82882SOL     OW50542   5.720  11.843   4.619
82882SOL    HW150543   5.759  11.925   4.648
82882SOL    HW250544   5.782  11.775   4.649
82883SOL     OW50545  11.322  14.587   3.343
82883SOL    HW150546  11.238  14.607   3.302
82883SOL    HW250547  11.299  14.527   3.414
82884SOL     OW50548   2.016  10.270   8.153
82884SOL    HW150549   1.948  10.336   8.144
82884SOL    HW250550   1.982  10.210   8.220
82885SOL     OW50551  13.904   0.857   0.270
82885SOL    HW150552  13.994   0.824   0.272
82885SOL    HW250553  13.881   0.856   0.177
82886SOL     OW50554  10.214   6.550   8.522
82886SOL    HW150555  10.168   6.634   8.513
82886SOL    HW250556  10.233   6.543   8.616
82887SOL     OW50557   4.693   9.476   0.066
82887SOL    HW150558   4.743   9.506   0.141
82887SOL    HW250559   4.759   9.452   0.001
82888SOL     OW50560   7.994   5.774   3.368
82888SOL    HW150561   7.971   5.791   3.277
82888SOL    HW250562   7.958   5.688   3.387
82889SOL     OW50563   1.469   8.717   2.722
82889SOL    HW150564   1.399   8.748   2.779
82889SOL    HW250565   1.539   8.690   2.782
82890SOL     OW50566   0.136   6.636  12.892
82890SOL    HW150567   0.080   6.646  12.815
82890SOL    HW250568   0.111   6.552  12.930
82891SOL     OW50569   9.345   5.062   4.337
82891SOL    HW150570   9.372   5.062   4.245
82891SOL    HW250571   9.250   5.071   4.333
82892SOL     OW50572   3.763  12.681  13.631
82892SOL    HW150573   3.772  12.736  13.709
82892SOL    HW250574   3.670  12.661  13.626
82893SOL     OW50575   7.113  12.322   6.373
82893SOL    HW150576   7.122  12.337   6.468
82893SOL    HW250577   7.108  12.227   6.365
82894SOL     OW50578   4.457  12.127   3.556
82894SOL    HW150579   4.406  12.135   3.476
82894SOL    HW250580   4.509  12.207   3.560
82895SOL     OW50581   2.203   9.315  10.003
82895SOL    HW150582   2.129   9.259  10.024
82895SOL    HW250583   2.164   9.400   9.981
82896SOL     OW50584  12.398  14.266   9.016
82896SOL    HW150585  12.353  14.234   8.938
82896SOL    HW250586  12.467  14.323   8.981
82897SOL     OW50587  10.880   2.313   7.049
82897SOL    HW150588  10.867   2.318   6.954
82897SOL    HW250589  10.797   2.341   7.086
82898SOL     OW50590   5.057  10.000   2.177
82898SOL    HW150591   5.117  10.022   2.106
82898SOL    HW250592   4.989  10.067   2.173
82899SOL     OW50593   5.036   4.158   5.876
82899SOL    HW150594   4.997   4.157   5.964
82899SOL    HW250595   5.118   4.109   5.886
82900SOL     OW50596   6.055   3.620   0.293
82900SOL    HW150597   6.054   3.548   0.356
82900SOL    HW250598   5.963   3.643   0.281
82901SOL     OW50599   4.206  13.650  10.130
82901SOL    HW150600   4.284  13.695  10.098
82901SOL    HW250601   4.240  13.570  10.170
82902SOL     OW50602  13.400   9.075   4.215
82902SOL    HW150603  13.334   9.103   4.279
82902SOL    HW250604  13.359   9.090   4.130
82903SOL     OW50605   1.932  13.196   1.732
82903SOL    HW150606   1.965  13.108   1.711
82903SOL    HW250607   1.922  13.195   1.828
82904SOL     OW50608   6.488   6.436  12.627
82904SOL    HW150609   6.504   6.347  12.595
82904SOL    HW250610   6.504   6.492  12.551
82905SOL     OW50611   6.225   6.884   2.369
82905SOL    HW150612   6.274   6.828   2.309
82905SOL    HW250613   6.276   6.965   2.374
82906SOL     OW50614   1.065  12.656   6.938
82906SOL    HW150615   1.144  12.693   6.976
82906SOL    HW250616   1.027  12.602   7.008
82907SOL     OW50617   9.641  11.023   2.542
82907SOL    HW150618   9.677  10.955   2.600
82907SOL    HW250619   9.714  11.048   2.486
82908SOL     OW50620   6.062   2.601   8.569
82908SOL    HW150621   6.037   2.552   8.490
82908SOL    HW250622   5.982   2.604   8.622
82909SOL     OW50623  10.587   9.708   5.013
82909SOL    HW150624  10.540   9.662   5.083
82909SOL    HW250625  10.568   9.800   5.027
82910SOL     OW50626   1.003  11.770   7.364
82910SOL    HW150627   1.061  11.821   7.308
82910SOL    HW250628   1.060  11.735   7.433
82911SOL     OW50629   9.135  14.186  12.020
82911SOL    HW150630   9.224  14.151  12.029
82911SOL    HW250631   9.108  14.205  12.110
82912SOL     OW50632  10.502   6.299  14.778
82912SOL    HW150633  10.590   6.291  14.813
82912SOL    HW250634  10.513   6.339  14.692
82913SOL     OW50635  14.004   4.002   0.402
82913SOL    HW150636  14.001   4.034   0.311
82913SOL    HW250637  14.097   3.997   0.422
82914SOL     OW50638   2.980   8.248  14.563
82914SOL    HW150639   2.969   8.162  14.523
82914SOL    HW250640   3.074   8.266  14.558
82915SOL     OW50641   0.552   1.066   7.168
82915SOL    HW150642   0.527   1.150   7.128
82915SOL    HW250643   0.469   1.021   7.183
82916SOL     OW50644   4.073  10.215  13.037
82916SOL    HW150645   4.075  10.308  13.060
82916SOL    HW250646   3.980  10.195  13.027
82917SOL     OW50647   9.430  10.226   1.755
82917SOL    HW150648   9.521  10.225   1.782
82917SOL    HW250649   9.381  10.206   1.835
82918SOL     OW50650   8.676   5.665  11.386
82918SOL    HW150651   8.762   5.660  11.429
82918SOL    HW250652   8.656   5.758  11.383
82919SOL     OW50653  11.657   8.791   3.743
82919SOL    HW150654  11.686   8.823   3.657
82919SOL    HW250655  11.659   8.869   3.799
82920SOL     OW50656   9.619   7.512   6.951
82920SOL    HW150657   9.690   7.464   6.909
82920SOL    HW250658   9.578   7.448   7.009
82921SOL     OW50659   7.224   3.206   8.327
82921SOL    HW150660   7.194   3.171   8.411
82921SOL    HW250661   7.148   3.200   8.270
82922SOL     OW50662   2.972   9.870  14.437
82922SOL    HW150663   2.884   9.907  14.436
82922SOL    HW250664   3.010   9.896  14.353
82923SOL     OW50665  11.627  10.609  11.525
82923SOL    HW150666  11.648  10.560  11.604
82923SOL    HW250667  11.679  10.566  11.456
82924SOL     OW50668  14.091  13.258   0.231
82924SOL    HW150669  14.186  13.270   0.233
82924SOL    HW250670  14.076  13.179   0.283
82925SOL     OW50671  12.655   5.175   2.925
82925SOL    HW150672  12.608   5.124   2.859
82925SOL    HW250673  12.623   5.141   3.009
82926SOL     OW50674  10.580   5.485   2.544
82926SOL    HW150675  10.627   5.541   2.606
82926SOL    HW250676  10.489   5.513   2.550
82927SOL     OW50677   1.750   2.425   0.862
82927SOL    HW150678   1.799   2.444   0.782
82927SOL    HW250679   1.758   2.505   0.915
82928SOL     OW50680   5.283   0.499  10.929
82928SOL    HW150681   5.310   0.432  10.990
82928SOL    HW250682   5.312   0.468  10.843
82929SOL     OW50683  14.870  12.591   4.207
82929SOL    HW150684   0.014  12.663   4.264
82929SOL    HW250685   0.068  12.540   4.195
82930SOL     OW50686   2.228   7.017  12.336
82930SOL    HW150687   2.212   6.944  12.396
82930SOL    HW250688   2.142   7.040  12.302
82931SOL     OW50689   9.267  11.696   5.010
82931SOL    HW150690   9.293  11.786   4.993
82931SOL    HW250691   9.171  11.698   5.009
82932SOL     OW50692   1.481   0.242   0.629
82932SOL    HW150693   1.413   0.266   0.691
82932SOL    HW250694   1.563   0.268   0.670
82933SOL     OW50695   6.994   5.771   7.673
82933SOL    HW150696   6.933   5.755   7.745
82933SOL    HW250697   6.946   5.829   7.614
82934SOL     OW50698   6.653   1.926   0.755
82934SOL    HW150699   6.598   1.888   0.824
82934SOL    HW250700   6.742   1.919   0.789
82935SOL     OW50701   4.640  13.999   3.974
82935SOL    HW150702   4.643  14.046   3.891
82935SOL    HW250703   4.551  14.013   4.006
82936SOL     OW50704   5.681   2.416   8.130
82936SOL    HW150705   5.667   2.330   8.171
82936SOL    HW250706   5.593   2.449   8.115
82937SOL     OW50707   7.341   1.188   8.331
82937SOL    HW150708   7.255   1.176   8.372
82937SOL    HW250709   7.403   1.184   8.404
82938SOL     OW50710  10.161  11.892   3.765
82938SOL    HW150711  10.116  11.865   3.684
82938SOL    HW250712  10.245  11.847   3.762
82939SOL     OW50713   3.258   3.928   6.496
82939SOL    HW150714   3.210   3.866   6.550
82939SOL    HW250715   3.213   3.926   6.412
82940SOL     OW50716   9.399  11.137   0.704
82940SOL    HW150717   9.359  11.051   0.711
82940SOL    HW250718   9.412  11.149   0.610
82941SOL     OW50719   6.025  10.013  12.022
82941SOL    HW150720   6.072  10.084  11.978
82941SOL    HW250721   6.080   9.936  12.007
82942SOL     OW50722   5.495  11.747   2.738
82942SOL    HW150723   5.462  11.830   2.771
82942SOL    HW250724   5.512  11.695   2.816
82943SOL     OW50725   5.967  13.291   7.196
82943SOL    HW150726   5.880  13.313   7.228
82943SOL    HW250727   5.967  13.195   7.193
82944SOL     OW50728   5.171  12.329   1.903
82944SOL    HW150729   5.217  12.374   1.974
82944SOL    HW250730   5.091  12.295   1.943
82945SOL     OW50731  14.415   6.891   0.798
82945SOL    HW150732  14.502   6.858   0.823
82945SOL    HW250733  14.354   6.833   0.843
82946SOL     OW50734   8.095  12.467   8.162
82946SOL    HW150735   8.160  12.527   8.197
82946SOL    HW250736   8.073  12.503   8.076
82947SOL     OW50737   8.781   5.103   8.467
82947SOL    HW150738   8.773   5.024   8.413
82947SOL    HW250739   8.783   5.175   8.405
82948SOL     OW50740   4.043   7.764   4.289
82948SOL    HW150741   4.131   7.794   4.266
82948SOL    HW250742   3.995   7.844   4.312
82949SOL     OW50743  11.917   3.739   1.684
82949SOL    HW150744  11.872   3.675   1.739
82949SOL    HW250745  11.977   3.687   1.630
82950SOL     OW50746  11.060   1.097   4.946
82950SOL    HW150747  11.016   1.156   5.007
82950SOL    HW250748  10.992   1.036   4.918
82951SOL     OW50749   4.395  12.664   7.108
82951SOL    HW150750   4.374  12.591   7.166
82951SOL    HW250751   4.432  12.731   7.165
82952SOL     OW50752  10.441   0.704   1.309
82952SOL    HW150753  10.366   0.648   1.289
82952SOL    HW250754  10.406   0.773   1.364
82953SOL     OW50755   0.996   6.698   8.324
82953SOL    HW150756   0.957   6.660   8.403
82953SOL    HW250757   0.923   6.703   8.262
82954SOL     OW50758   2.859   8.417   1.303
82954SOL    HW150759   2.953   8.407   1.312
82954SOL    HW250760   2.822   8.357   1.368
82955SOL     OW50761   5.359   6.847   4.320
82955SOL    HW150762   5.307   6.768   4.337
82955SOL    HW250763   5.295   6.915   4.300
82956SOL     OW50764   3.010   8.913  12.909
82956SOL    HW150765   2.984   9.004  12.927
82956SOL    HW250766   3.096   8.921  12.867
82957SOL     OW50767   5.733   2.227   1.093
82957SOL    HW150768   5.811   2.247   1.041
82957SOL    HW250769   5.680   2.170   1.037
82958SOL     OW50770   2.281  10.131   0.889
82958SOL    HW150771   2.371  10.148   0.858
82958SOL    HW250772   2.292  10.097   0.977
82959SOL     OW50773  14.208   5.045  12.422
82959SOL    HW150774  14.144   5.068  12.355
82959SOL    HW250775  14.268   5.120  12.424
82960SOL     OW50776  13.186   4.431   9.109
82960SOL    HW150777  13.224   4.382   9.182
82960SOL    HW250778  13.093   4.440   9.132
82961SOL     OW50779  13.455   0.697   4.608
82961SOL    HW150780  13.501   0.648   4.540
82961SOL    HW250781  13.513   0.770   4.628
82962SOL     OW50782   3.865  12.604  12.697
82962SOL    HW150783   3.955  12.609  12.729
82962SOL    HW250784   3.870  12.633  12.606
82963SOL     OW50785  10.102   8.853   0.984
82963SOL    HW150786  10.082   8.798   0.908
82963SOL    HW250787  10.031   8.917   0.987
82964SOL     OW50788   3.259   9.069   8.896
82964SOL    HW150789   3.339   9.120   8.908
82964SOL    HW250790   3.270   9.027   8.810
82965SOL     OW50791  13.323   3.712  11.572
82965SOL    HW150792  13.396   3.775  11.576
82965SOL    HW250793  13.356   3.641  11.516
82966SOL     OW50794   5.466   7.504  12.281
82966SOL    HW150795   5.517   7.423  12.277
82966SOL    HW250796   5.457   7.531  12.190
82967SOL     OW50797  12.324  13.566  13.708
82967SOL    HW150798  12.253  13.616  13.667
82967SOL    HW250799  12.341  13.612  13.790
82968SOL     OW50800   8.881   8.530   8.882
82968SOL    HW150801   8.913   8.477   8.955
82968SOL    HW250802   8.802   8.484   8.852
82969SOL     OW50803   1.828   2.104   3.985
82969SOL    HW150804   1.889   2.176   3.999
82969SOL    HW250805   1.807   2.073   4.073
82970SOL     OW50806  10.405  13.011   2.670
82970SOL    HW150807  10.406  13.106   2.654
82970SOL    HW250808  10.497  12.986   2.670
82971SOL     OW50809   8.126   4.522  13.726
82971SOL    HW150810   8.050   4.580  13.731
82971SOL    HW250811   8.201   4.580  13.718
82972SOL     OW50812   9.810   8.840   6.071
82972SOL    HW150813   9.803   8.746   6.050
82972SOL    HW250814   9.884   8.845   6.132
82973SOL     OW50815   4.023   7.937   2.780
82973SOL    HW150816   3.973   7.958   2.859
82973SOL    HW250817   3.956   7.925   2.712
82974SOL     OW50818   1.574  12.294   7.161
82974SOL    HW150819   1.568  12.219   7.102
82974SOL    HW250820   1.553  12.370   7.106
82975SOL     OW50821   6.494   5.869   0.493
82975SOL    HW150822   6.545   5.936   0.447
82975SOL    HW250823   6.494   5.795   0.433
82976SOL     OW50824  10.129   1.317   0.093
82976SOL    HW150825  10.090   1.402   0.111
82976SOL    HW250826  10.185   1.299   0.169
82977SOL     OW50827   8.782   4.885   7.690
82977SOL    HW150828   8.855   4.944   7.713
82977SOL    HW250829   8.720   4.941   7.644
82978SOL     OW50830   6.051   0.218  12.239
82978SOL    HW150831   6.069   0.302  12.197
82978SOL    HW250832   6.135   0.190  12.274
82979SOL     OW50833   8.678   3.164   3.563
82979SOL    HW150834   8.711   3.086   3.519
82979SOL    HW250835   8.659   3.226   3.493
82980SOL     OW50836  13.242   4.989   7.856
82980SOL    HW150837  13.263   5.070   7.903
82980SOL    HW250838  13.154   4.967   7.886
82981SOL     OW50839   7.006   2.004   8.094
82981SOL    HW150840   6.983   2.044   8.178
82981SOL    HW250841   7.101   1.995   8.097
82982SOL     OW50842  12.427   6.124  14.002
82982SOL    HW150843  12.336   6.101  14.019
82982SOL    HW250844  12.448   6.080  13.920
82983SOL     OW50845   5.360   3.142   3.103
82983SOL    HW150846   5.341   3.233   3.123
82983SOL    HW250847   5.282   3.110   3.058
82984SOL     OW50848  12.823   6.002   7.325
82984SOL    HW150849  12.863   6.085   7.300
82984SOL    HW250850  12.864   5.938   7.267
82985SOL     OW50851   9.050  12.097  12.980
82985SOL    HW150852   8.962  12.126  12.959
82985SOL    HW250853   9.092  12.084  12.895
82986SOL     OW50854  10.525  10.752   5.717
82986SOL    HW150855  10.448  10.773   5.770
82986SOL    HW250856  10.587  10.713   5.779
82987SOL     OW50857   0.412  12.998   8.507
82987SOL    HW150858   0.501  12.966   8.521
82987SOL    HW250859   0.423  13.084   8.467
82988SOL     OW50860  10.747   3.120   1.152
82988SOL    HW150861  10.661   3.161   1.156
82988SOL    HW250862  10.730   3.031   1.122
82989SOL     OW50863  13.542   3.253   5.111
82989SOL    HW150864  13.637   3.265   5.122
82989SOL    HW250865  13.504   3.304   5.183
82990SOL     OW50866   2.619   7.061  12.431
82990SOL    HW150867   2.648   7.150  12.449
82990SOL    HW250868   2.665   7.007  12.496
82991SOL     OW50869  10.350   6.620  11.785
82991SOL    HW150870  10.265   6.652  11.814
82991SOL    HW250871  10.408   6.696  11.791
82992SOL     OW50872   2.621   0.204   8.555
82992SOL    HW150873   2.682   0.188   8.483
82992SOL    HW250874   2.568   0.124   8.559
82993SOL     OW50875   9.523   5.927   1.249
82993SOL    HW150876   9.565   5.860   1.195
82993SOL    HW250877   9.441   5.946   1.204
82994SOL     OW50878   1.931  14.353   8.289
82994SOL    HW150879   1.897  14.275   8.245
82994SOL    HW250880   1.945  14.326   8.379
82995SOL     OW50881   2.236   5.639  14.543
82995SOL    HW150882   2.244   5.592  14.625
82995SOL    HW250883   2.317   5.690  14.536
82996SOL     OW50884   1.568   8.158   4.128
82996SOL    HW150885   1.601   8.184   4.042
82996SOL    HW250886   1.473   8.158   4.119
82997SOL     OW50887   9.000   8.081  12.771
82997SOL    HW150888   8.958   8.160  12.804
82997SOL    HW250889   9.040   8.041  12.848
82998SOL     OW50890   6.759   4.538  14.178
82998SOL    HW150891   6.674   4.538  14.135
82998SOL    HW250892   6.743   4.579  14.263
82999SOL     OW50893   3.490   6.947   2.754
82999SOL    HW150894   3.498   6.912   2.843
82999SOL    HW250895   3.576   6.985   2.735
83000SOL     OW50896  13.641   0.254  14.751
83000SOL    HW150897  13.592   0.294  14.822
83000SOL    HW250898  13.575   0.212  14.696
83001SOL     OW50899   9.235   2.274   7.273
83001SOL    HW150900   9.274   2.237   7.352
83001SOL    HW250901   9.226   2.368   7.293
83002SOL     OW50902  10.080   2.408   9.261
83002SOL    HW150903  10.161   2.455   9.280
83002SOL    HW250904  10.041   2.393   9.347
83003SOL     OW50905  13.883   6.452   3.529
83003SOL    HW150906  13.850   6.523   3.475
83003SOL    HW250907  13.856   6.475   3.618
83004SOL     OW50908  10.737   6.763  11.151
83004SOL    HW150909  10.777   6.806  11.226
83004SOL    HW250910  10.689   6.833  11.106
83005SOL     OW50911   4.844  10.771   1.131
83005SOL    HW150912   4.914  10.836   1.136
83005SOL    HW250913   4.886  10.689   1.159
83006SOL     OW50914   1.280   0.901  11.617
83006SOL    HW150915   1.368   0.916  11.582
83006SOL    HW250916   1.255   0.815  11.583
83007SOL     OW50917   5.223   5.161   5.296
83007SOL    HW150918   5.260   5.136   5.211
83007SOL    HW250919   5.129   5.155   5.283
83008SOL     OW50920   4.655  13.233  14.276
83008SOL    HW150921   4.656  13.235  14.372
83008SOL    HW250922   4.748  13.240  14.251
83009SOL     OW50923   8.313  13.204   4.056
83009SOL    HW150924   8.331  13.173   3.967
83009SOL    HW250925   8.256  13.280   4.044
83010SOL     OW50926   8.797   9.979   1.804
83010SOL    HW150927   8.877   9.941   1.841
83010SOL    HW250928   8.764  10.036   1.874
83011SOL     OW50929  14.200   9.485   1.992
83011SOL    HW150930  14.148   9.545   2.045
83011SOL    HW250931  14.276   9.465   2.046
83012SOL     OW50932   2.501   3.749  14.133
83012SOL    HW150933   2.578   3.729  14.187
83012SOL    HW250934   2.512   3.841  14.109
83013SOL     OW50935  14.631  10.333   0.187
83013SOL    HW150936  14.581  10.346   0.268
83013SOL    HW250937  14.603  10.247   0.156
83014SOL     OW50938  12.997   3.664   7.541
83014SOL    HW150939  13.047   3.584   7.556
83014SOL    HW250940  13.055   3.735   7.568
83015SOL     OW50941   0.049  10.526  14.742
83015SOL    HW150942   0.050  10.610  14.696
83015SOL    HW250943   0.138  10.516  14.776
83016SOL     OW50944   6.697   1.728   7.215
83016SOL    HW150945   6.685   1.720   7.120
83016SOL    HW250946   6.761   1.661   7.237
83017SOL     OW50947   2.851   1.563   3.690
83017SOL    HW150948   2.820   1.548   3.600
83017SOL    HW250949   2.788   1.626   3.727
83018SOL     OW50950   3.128   0.569   0.465
83018SOL    HW150951   3.150   0.583   0.557
83018SOL    HW250952   3.095   0.479   0.462
83019SOL     OW50953   0.524   2.276   0.511
83019SOL    HW150954   0.516   2.369   0.530
83019SOL    HW250955   0.549   2.237   0.595
83020SOL     OW50956   4.724  13.192  11.376
83020SOL    HW150957   4.747  13.285  11.376
83020SOL    HW250958   4.807  13.146  11.388
83021SOL     OW50959   9.916   6.120   7.944
83021SOL    HW150960   9.861   6.170   7.884
83021SOL    HW250961   9.871   6.126   8.028
83022SOL     OW50962   3.504   0.517  11.447
83022SOL    HW150963   3.448   0.519  11.370
83022SOL    HW250964   3.452   0.471  11.513
83023SOL     OW50965   0.501  14.323   4.903
83023SOL    HW150966   0.465  14.280   4.981
83023SOL    HW250967   0.562  14.259   4.867
83024SOL     OW50968   8.749   8.368   2.185
83024SOL    HW150969   8.761   8.462   2.170
83024SOL    HW250970   8.679   8.342   2.125
83025SOL     OW50971  14.133  13.272   6.443
83025SOL    HW150972  14.154  13.364   6.460
83025SOL    HW250973  14.216  13.232   6.416
83026SOL     OW50974   5.076   3.612   2.758
83026SOL    HW150975   4.984   3.584   2.758
83026SOL    HW250976   5.112   3.575   2.678
83027SOL     OW50977  13.573   0.434   7.330
83027SOL    HW150978  13.514   0.504   7.301
83027SOL    HW250979  13.516   0.358   7.342
83028SOL     OW50980   7.866   9.936  11.133
83028SOL    HW150981   7.899   9.847  11.129
83028SOL    HW250982   7.824   9.950  11.048
83029SOL     OW50983   1.033   5.137   8.287
83029SOL    HW150984   1.091   5.213   8.292
83029SOL    HW250985   0.945   5.174   8.290
83030SOL     OW50986  12.849  14.690   4.868
83030SOL    HW150987  12.845  14.727   4.780
83030SOL    HW250988  12.816  14.601   4.857
83031SOL     OW50989   3.985   8.425   7.222
83031SOL    HW150990   4.060   8.478   7.250
83031SOL    HW250991   3.909   8.476   7.249
83032SOL     OW50992   4.427   6.508   0.081
83032SOL    HW150993   4.414   6.486   0.173
83032SOL    HW250994   4.412   6.425   0.034
83033SOL     OW50995   9.137   9.477   0.490
83033SOL    HW150996   9.129   9.510   0.579
83033SOL    HW250997   9.052   9.496   0.450
83034SOL     OW50998  10.837   4.861   8.060
83034SOL    HW150999  10.879   4.939   8.094
83034SOL    HW251000  10.827   4.804   8.136
83035SOL     OW51001   0.242  12.664   9.681
83035SOL    HW151002   0.254  12.754   9.712
83035SOL    HW251003   0.148  12.654   9.672
83036SOL     OW51004  12.753   6.036   0.195
83036SOL    HW151005  12.681   5.977   0.171
83036SOL    HW251006  12.710   6.120   0.212
83037SOL     OW51007  10.482   9.835   6.678
83037SOL    HW151008  10.486   9.930   6.690
83037SOL    HW251009  10.569   9.811   6.645
83038SOL     OW51010   0.439   6.156   1.645
83038SOL    HW151011   0.429   6.072   1.690
83038SOL    HW251012   0.360   6.165   1.593
83039SOL     OW51013   4.656  12.966  11.575
83039SOL    HW151014   4.587  12.949  11.639
83039SOL    HW251015   4.736  12.932  11.615
83040SOL     OW51016  11.876  13.725   6.512
83040SOL    HW151017  11.888  13.673   6.433
83040SOL    HW251018  11.952  13.782   6.515
83041SOL     OW51019   0.793  12.954   8.237
83041SOL    HW151020   0.709  12.921   8.267
83041SOL    HW251021   0.821  12.892   8.169
83042SOL     OW51022   2.184   8.863   9.680
83042SOL    HW151023   2.172   8.957   9.689
83042SOL    HW251024   2.147   8.826   9.760
83043SOL     OW51025   0.851   2.094   0.181
83043SOL    HW151026   0.852   2.087   0.277
83043SOL    HW251027   0.842   2.003   0.152
83044SOL     OW51028   6.413   4.620  10.630
83044SOL    HW151029   6.482   4.685  10.641
83044SOL    HW251030   6.415   4.598  10.537
83045SOL     OW51031  13.036  11.234  11.835
83045SOL    HW151032  12.977  11.191  11.775
83045SOL    HW251033  12.982  11.298  11.881
83046SOL     OW51034   5.202   3.315   2.563
83046SOL    HW151035   5.273   3.262   2.529
83046SOL    HW251036   5.212   3.400   2.520
83047SOL     OW51037  11.667   9.991  14.825
83047SOL    HW151038  11.642  10.069  14.876
83047SOL    HW251039  11.739  10.020  14.770
83048SOL     OW51040   7.223  11.021   5.184
83048SOL    HW151041   7.277  11.013   5.105
83048SOL    HW251042   7.187  11.109   5.179
83049SOL     OW51043  12.230   5.221   7.012
83049SOL    HW151044  12.141   5.232   6.977
83049SOL    HW251045  12.282   5.287   6.967
83050SOL     OW51046  12.682  14.808  10.692
83050SOL    HW151047  12.768  14.835  10.662
83050SOL    HW251048  12.633  14.791  10.611
83051SOL     OW51049   3.175   1.509   8.058
83051SOL    HW151050   3.104   1.567   8.086
83051SOL    HW251051   3.252   1.540   8.106
83052SOL     OW51052   7.743   0.766   7.577
83052SOL    HW151053   7.748   0.799   7.666
83052SOL    HW251054   7.656   0.725   7.571
83053SOL     OW51055  12.888   1.933   8.140
83053SOL    HW151056  12.869   2.025   8.122
83053SOL    HW251057  12.839   1.914   8.220
83054SOL     OW51058   8.786  13.100   6.991
83054SOL    HW151059   8.857  13.094   7.055
83054SOL    HW251060   8.765  13.009   6.970
83055SOL     OW51061  10.731  12.949  11.741
83055SOL    HW151062  10.780  12.985  11.814
83055SOL    HW251063  10.689  12.871  11.776
83056SOL     OW51064   9.372  13.298   8.656
83056SOL    HW151065   9.458  13.341   8.650
83056SOL    HW251066   9.312  13.360   8.615
83057SOL     OW51067   8.554   1.295   0.703
83057SOL    HW151068   8.509   1.238   0.765
83057SOL    HW251069   8.592   1.364   0.757
83058SOL     OW51070   5.425   9.332  13.130
83058SOL    HW151071   5.383   9.418  13.129
83058SOL    HW251072   5.373   9.279  13.190
83059SOL     OW51073  13.859  14.389   4.914
83059SOL    HW151074  13.902  14.343   4.985
83059SOL    HW251075  13.815  14.320   4.864
83060SOL     OW51076  14.011   6.804  14.546
83060SOL    HW151077  14.049   6.793  14.633
83060SOL    HW251078  14.084   6.790  14.486
83061SOL     OW51079  11.995   8.509   7.205
83061SOL    HW151080  12.030   8.591   7.242
83061SOL    HW251081  11.926   8.537   7.145
83062SOL     OW51082   2.881  14.879  12.063
83062SOL    HW151083   2.906   0.087  12.086
83062SOL    HW251084   2.871  14.835  12.147
83063SOL     OW51085   0.880  13.785   2.356
83063SOL    HW151086   0.856  13.877   2.345
83063SOL    HW251087   0.828  13.738   2.291
83064SOL     OW51088   3.654   2.917   0.622
83064SOL    HW151089   3.690   2.854   0.685
83064SOL    HW251090   3.576   2.951   0.666
83065SOL     OW51091   4.237  13.265   0.486
83065SOL    HW151092   4.314  13.246   0.433
83065SOL    HW251093   4.233  13.193   0.549
83066SOL     OW51094  13.086   5.022   2.527
83066SOL    HW151095  13.006   5.030   2.578
83066SOL    HW251096  13.131   5.106   2.539
83067SOL     OW51097   1.559   9.441  13.901
83067SOL    HW151098   1.568   9.350  13.872
83067SOL    HW251099   1.497   9.481  13.840
83068SOL     OW51100   9.895   0.191  14.426
83068SOL    HW151101   9.805   0.210  14.450
83068SOL    HW251102   9.947   0.226  14.498
83069SOL     OW51103   7.607   0.702  12.317
83069SOL    HW151104   7.686   0.680  12.267
83069SOL    HW251105   7.537   0.654  12.272
83070SOL     OW51106   3.049   9.374   9.489
83070SOL    HW151107   2.981   9.407   9.547
83070SOL    HW251108   3.040   9.425   9.408
83071SOL     OW51109  13.384   0.700  13.031
83071SOL    HW151110  13.442   0.626  13.012
83071SOL    HW251111  13.309   0.688  12.973
83072SOL     OW51112  12.205  13.180   2.036
83072SOL    HW151113  12.170  13.268   2.025
83072SOL    HW251114  12.132  13.123   2.010
83073SOL     OW51115  11.325   6.892  11.901
83073SOL    HW151116  11.279   6.964  11.859
83073SOL    HW251117  11.274   6.873  11.979
83074SOL     OW51118   1.279  11.738   5.425
83074SOL    HW151119   1.297  11.820   5.472
83074SOL    HW251120   1.334  11.744   5.346
83075SOL     OW51121  12.958   9.560   3.948
83075SOL    HW151122  12.988   9.470   3.939
83075SOL    HW251123  13.039   9.611   3.959
83076SOL     OW51124   4.706  14.492   6.316
83076SOL    HW151125   4.769  14.475   6.386
83076SOL    HW251126   4.728  14.580   6.285
83077SOL     OW51127   9.032   0.548   2.239
83077SOL    HW151128   8.998   0.637   2.225
83077SOL    HW251129   9.127   0.559   2.239
83078SOL     OW51130   0.267   3.423   9.175
83078SOL    HW151131   0.352   3.457   9.202
83078SOL    HW251132   0.288   3.342   9.128
83079SOL     OW51133   9.099   7.370  12.961
83079SOL    HW151134   9.133   7.433  13.025
83079SOL    HW251135   9.044   7.312  13.013
83080SOL     OW51136   7.404   6.284   6.233
83080SOL    HW151137   7.486   6.332   6.231
83080SOL    HW251138   7.429   6.193   6.219
83081SOL     OW51139  12.122   2.992   2.817
83081SOL    HW151140  12.084   3.071   2.854
83081SOL    HW251141  12.210   2.988   2.854
83082SOL     OW51142   2.742   4.202   7.553
83082SOL    HW151143   2.668   4.190   7.493
83082SOL    HW251144   2.816   4.160   7.509
83083SOL     OW51145   3.962   0.787   7.807
83083SOL    HW151146   3.916   0.704   7.817
83083SOL    HW251147   3.924   0.826   7.728
83084SOL     OW51148   0.090  11.062  10.109
83084SOL    HW151149   0.169  11.116  10.110
83084SOL    HW251150   0.046  11.084  10.191
83085SOL     OW51151  11.062  13.792   0.726
83085SOL    HW151152  11.118  13.759   0.655
83085SOL    HW251153  10.974  13.790   0.689
83086SOL     OW51154  14.250   7.260   8.216
83086SOL    HW151155  14.327   7.315   8.203
83086SOL    HW251156  14.219   7.283   8.304
83087SOL     OW51157  13.409  12.981   6.178
83087SOL    HW151158  13.457  12.935   6.109
83087SOL    HW251159  13.398  13.069   6.145
83088SOL     OW51160   1.693  14.695   8.933
83088SOL    HW151161   1.654  14.615   8.969
83088SOL    HW251162   1.644  14.710   8.852
83089SOL     OW51163   9.655   4.339   2.575
83089SOL    HW151164   9.586   4.403   2.594
83089SOL    HW251165   9.670   4.296   2.659
83090SOL     OW51166  10.299   8.239   4.971
83090SOL    HW151167  10.305   8.158   4.921
83090SOL    HW251168  10.210   8.238   5.007
83091SOL     OW51169  11.984   0.518   6.556
83091SOL    HW151170  11.950   0.552   6.474
83091SOL    HW251171  12.079   0.510   6.542
83092SOL     OW51172   4.400  14.024   1.572
83092SOL    HW151173   4.431  14.037   1.662
83092SOL    HW251174   4.387  14.112   1.538
83093SOL     OW51175  13.401   1.376   8.967
83093SOL    HW151176  13.349   1.298   8.945
83093SOL    HW251177  13.395   1.383   9.062
83094SOL     OW51178   6.771  13.245   1.730
83094SOL    HW151179   6.861  13.267   1.703
83094SOL    HW251180   6.731  13.210   1.650
83095SOL     OW51181  10.046   9.981  10.290
83095SOL    HW151182  10.113   9.936  10.239
83095SOL    HW251183  10.077  10.071  10.296
83096SOL     OW51184   5.626   1.157   1.364
83096SOL    HW151185   5.686   1.232   1.369
83096SOL    HW251186   5.664   1.093   1.424
83097SOL     OW51187  13.799  13.094   3.893
83097SOL    HW151188  13.881  13.106   3.941
83097SOL    HW251189  13.826  13.076   3.803
83098SOL     OW51190  10.855  13.681   4.851
83098SOL    HW151191  10.803  13.604   4.877
83098SOL    HW251192  10.944  13.646   4.840
83099SOL     OW51193  13.632  14.159  14.346
83099SOL    HW151194  13.710  14.199  14.385
83099SOL    HW251195  13.561  14.181  14.407
83100SOL     OW51196   6.147   7.633   0.696
83100SOL    HW151197   6.127   7.719   0.731
83100SOL    HW251198   6.104   7.572   0.757
83101SOL     OW51199   8.413   5.024   7.193
83101SOL    HW151200   8.412   5.097   7.255
83101SOL    HW251201   8.321   5.015   7.166
83102SOL     OW51202   0.828  14.464   8.493
83102SOL    HW151203   0.873  14.401   8.549
83102SOL    HW251204   0.735  14.443   8.503
83103SOL     OW51205   8.543  11.964   9.452
83103SOL    HW151206   8.471  11.909   9.481
83103SOL    HW251207   8.581  11.917   9.377
83104SOL     OW51208  13.573   0.475   2.960
83104SOL    HW151209  13.522   0.464   2.880
83104SOL    HW251210  13.556   0.396   3.011
83105SOL     OW51211   7.425   9.963  12.537
83105SOL    HW151212   7.487   9.967  12.610
83105SOL    HW251213   7.340   9.983  12.576
83106SOL     OW51214   6.074  11.968   2.621
83106SOL    HW151215   6.117  11.886   2.645
83106SOL    HW251216   6.138  12.014   2.566
83107SOL     OW51217  14.021   5.446   6.244
83107SOL    HW151218  14.028   5.357   6.280
83107SOL    HW251219  13.946   5.484   6.289
83108SOL     OW51220   1.081   6.553  13.233
83108SOL    HW151221   1.142   6.496  13.281
83108SOL    HW251222   1.034   6.493  13.175
83109SOL     OW51223  12.390  10.938   1.015
83109SOL    HW151224  12.435  11.006   1.065
83109SOL    HW251225  12.403  10.963   0.923
83110SOL     OW51226  10.936  13.366   9.782
83110SOL    HW151227  11.006  13.403   9.836
83110SOL    HW251228  10.860  13.421   9.801
83111SOL     OW51229  14.853   9.005   6.679
83111SOL    HW151230  14.856   9.091   6.721
83111SOL    HW251231  14.843   9.025   6.586
83112SOL     OW51232   6.958   4.880   2.168
83112SOL    HW151233   7.010   4.820   2.222
83112SOL    HW251234   6.890   4.825   2.129
83113SOL     OW51235  11.402  11.465   4.843
83113SOL    HW151236  11.386  11.378   4.880
83113SOL    HW251237  11.315  11.503   4.834
83114SOL     OW51238   8.298  14.443  10.969
83114SOL    HW151239   8.283  14.411  10.880
83114SOL    HW251240   8.222  14.498  10.988
83115SOL     OW51241  12.368  11.590  13.923
83115SOL    HW151242  12.378  11.599  13.828
83115SOL    HW251243  12.415  11.510  13.944
83116SOL     OW51244   7.777   0.220   5.680
83116SOL    HW151245   7.713   0.150   5.670
83116SOL    HW251246   7.763   0.253   5.768
83117SOL     OW51247   0.743   5.146   0.495
83117SOL    HW151248   0.729   5.113   0.583
83117SOL    HW251249   0.838   5.148   0.485
83118SOL     OW51250   5.114   0.843  14.422
83118SOL    HW151251   5.056   0.775  14.387
83118SOL    HW251252   5.106   0.833  14.517
83119SOL     OW51253  11.168   9.167   1.990
83119SOL    HW151254  11.207   9.192   2.073
83119SOL    HW251255  11.075   9.154   2.010
83120SOL     OW51256   3.296   5.714   9.934
83120SOL    HW151257   3.321   5.774  10.005
83120SOL    HW251258   3.242   5.767   9.876
83121SOL     OW51259   7.570   3.601  13.811
83121SOL    HW151260   7.568   3.669  13.743
83121SOL    HW251261   7.481   3.600  13.846
83122SOL     OW51262   1.989   8.591   1.701
83122SOL    HW151263   1.933   8.609   1.625
83122SOL    HW251264   1.936   8.532   1.756
83123SOL     OW51265   5.937  10.320  11.390
83123SOL    HW151266   5.898  10.395  11.436
83123SOL    HW251267   5.867  10.288  11.333
83124SOL     OW51268   3.240   6.068  10.518
83124SOL    HW151269   3.254   5.980  10.553
83124SOL    HW251270   3.167   6.058  10.457
83125SOL     OW51271   6.783   7.282  10.392
83125SOL    HW151272   6.817   7.357  10.440
83125SOL    HW251273   6.743   7.319  10.314
83126SOL     OW51274   0.239   8.448   4.292
83126SOL    HW151275   0.284   8.504   4.355
83126SOL    HW251276   0.191   8.385   4.346
83127SOL     OW51277   4.294  11.359   1.945
83127SOL    HW151278   4.306  11.453   1.962
83127SOL    HW251279   4.219  11.355   1.886
83128SOL     OW51280   6.776  12.498  12.578
83128SOL    HW151281   6.794  12.542  12.495
83128SOL    HW251282   6.858  12.453  12.599
83129SOL     OW51283   4.081   4.377  13.241
83129SOL    HW151284   4.022   4.412  13.173
83129SOL    HW251285   4.165   4.367  13.197
83130SOL     OW51286   9.538  12.167   0.942
83130SOL    HW151287   9.568  12.115   0.868
83130SOL    HW251288   9.487  12.105   0.995
83131SOL     OW51289   5.022   9.707  13.484
83131SOL    HW151290   5.101   9.761  13.474
83131SOL    HW251291   5.045   9.624  13.443
83132SOL     OW51292   6.238  10.171  13.213
83132SOL    HW151293   6.309  10.131  13.264
83132SOL    HW251294   6.212  10.248  13.264
83133SOL     OW51295   3.282   7.705   5.608
83133SOL    HW151296   3.236   7.789   5.603
83133SOL    HW251297   3.327   7.697   5.525
83134SOL     OW51298   6.555  13.093  14.625
83134SOL    HW151299   6.522  13.151  14.694
83134SOL    HW251300   6.571  13.009  14.670
83135SOL     OW51301  10.848   1.329   7.873
83135SOL    HW151302  10.858   1.234   7.882
83135SOL    HW251303  10.918   1.355   7.813
83136SOL     OW51304   9.667   6.318   8.452
83136SOL    HW151305   9.633   6.403   8.423
83136SOL    HW251306   9.592   6.258   8.446
83137SOL     OW51307   5.026   9.080   2.706
83137SOL    HW151308   5.087   9.118   2.642
83137SOL    HW251309   5.003   9.153   2.764
83138SOL     OW51310  13.840  12.355   4.461
83138SOL    HW151311  13.760  12.304   4.453
83138SOL    HW251312  13.811  12.446   4.472
83139SOL     OW51313   9.546   0.587   7.628
83139SOL    HW151314   9.555   0.649   7.700
83139SOL    HW251315   9.566   0.638   7.550
83140SOL     OW51316   1.085  11.877  14.004
83140SOL    HW151317   1.140  11.903  14.078
83140SOL    HW251318   1.055  11.959  13.966
83141SOL     OW51319  12.241   0.846  11.813
83141SOL    HW151320  12.219   0.769  11.866
83141SOL    HW251321  12.277   0.810  11.732
83142SOL     OW51322   4.439   0.546   1.212
83142SOL    HW151323   4.458   0.462   1.254
83142SOL    HW251324   4.517   0.565   1.159
83143SOL     OW51325   3.581   4.933   4.816
83143SOL    HW151326   3.658   4.988   4.832
83143SOL    HW251327   3.558   4.949   4.724
83144SOL     OW51328   0.815   9.709   9.243
83144SOL    HW151329   0.789   9.713   9.151
83144SOL    HW251330   0.903   9.745   9.245
83145SOL     OW51331  11.390   6.656   1.808
83145SOL    HW151332  11.369   6.694   1.893
83145SOL    HW251333  11.440   6.577   1.828
83146SOL     OW51334  12.712   6.565   2.814
83146SOL    HW151335  12.686   6.553   2.905
83146SOL    HW251336  12.774   6.638   2.817
83147SOL     OW51337   6.568   0.951   4.035
83147SOL    HW151338   6.659   0.980   4.027
83147SOL    HW251339   6.552   0.947   4.129
83148SOL     OW51340  13.680   3.806   7.285
83148SOL    HW151341  13.693   3.871   7.216
83148SOL    HW251342  13.604   3.756   7.257
83149SOL     OW51343  14.101   3.188   6.907
83149SOL    HW151344  14.091   3.093   6.914
83149SOL    HW251345  14.012   3.222   6.914
83150SOL     OW51346  14.198   4.011   4.598
83150SOL    HW151347  14.249   3.974   4.670
83150SOL    HW251348  14.133   4.067   4.640
83151SOL     OW51349   9.167   6.513  12.557
83151SOL    HW151350   9.126   6.491  12.640
83151SOL    HW251351   9.234   6.445  12.543
83152SOL     OW51352  14.794   2.917   7.618
83152SOL    HW151353  14.743   2.998   7.609
83152SOL    HW251354  14.789   2.876   7.532
83153SOL     OW51355  14.825  11.920  12.456
83153SOL    HW151356   0.036  11.908  12.476
83153SOL    HW251357  14.780  11.890  12.534
83154SOL     OW51358   3.028  12.949   5.529
83154SOL    HW151359   3.084  12.878   5.560
83154SOL    HW251360   3.070  13.029   5.562
83155SOL     OW51361   2.021  12.477  10.045
83155SOL    HW151362   2.015  12.505   9.954
83155SOL    HW251363   2.095  12.417  10.047
83156SOL     OW51364  12.516   6.574   9.994
83156SOL    HW151365  12.577   6.515  10.038
83156SOL    HW251366  12.504   6.647  10.055
83157SOL     OW51367   9.920   7.128   9.714
83157SOL    HW151368   9.927   7.206   9.660
83157SOL    HW251369   9.841   7.084   9.685
83158SOL     OW51370   1.562  10.967  12.526
83158SOL    HW151371   1.520  11.030  12.583
83158SOL    HW251372   1.638  11.013  12.491
83159SOL     OW51373   7.469   1.594  14.374
83159SOL    HW151374   7.472   1.565  14.465
83159SOL    HW251375   7.377   1.585  14.350
83160SOL     OW51376   4.371   4.893   1.667
83160SOL    HW151377   4.458   4.914   1.631
83160SOL    HW251378   4.309   4.932   1.606
83161SOL     OW51379  10.659  13.192  11.610
83161SOL    HW151380  10.571  13.176  11.576
83161SOL    HW251381  10.682  13.112  11.656
83162SOL     OW51382   0.859   1.997   2.085
83162SOL    HW151383   0.822   2.037   2.165
83162SOL    HW251384   0.835   1.905   2.091
83163SOL     OW51385  14.197   2.771   2.240
83163SOL    HW151386  14.281   2.794   2.280
83163SOL    HW251387  14.133   2.780   2.311
83164SOL     OW51388  14.254  13.815   8.472
83164SOL    HW151389  14.187  13.881   8.452
83164SOL    HW251390  14.230  13.740   8.417
83165SOL     OW51391  10.853   2.989   2.930
83165SOL    HW151392  10.869   2.976   3.023
83165SOL    HW251393  10.938   2.972   2.888
83166SOL     OW51394   8.125  11.024   0.805
83166SOL    HW151395   8.220  11.012   0.801
83166SOL    HW251396   8.093  10.989   0.722
83167SOL     OW51397   4.832  10.569  11.544
83167SOL    HW151398   4.810  10.535  11.457
83167SOL    HW251399   4.750  10.606  11.576
83168SOL     OW51400  14.328   2.225  11.292
83168SOL    HW151401  14.239   2.260  11.299
83168SOL    HW251402  14.371   2.283  11.229
83169SOL     OW51403  11.673   4.706   0.998
83169SOL    HW151404  11.741   4.762   1.036
83169SOL    HW251405  11.591   4.743   1.031
83170SOL     OW51406  14.585  11.194   1.436
83170SOL    HW151407  14.677  11.171   1.443
83170SOL    HW251408  14.570  11.255   1.508
83171SOL     OW51409   2.699  10.494  14.297
83171SOL    HW151410   2.672  10.417  14.348
83171SOL    HW251411   2.675  10.471  14.207
83172SOL     OW51412  10.320   7.441   5.576
83172SOL    HW151413  10.372   7.506   5.622
83172SOL    HW251414  10.291   7.485   5.496
83173SOL     OW51415   1.233   3.256  12.970
83173SOL    HW151416   1.253   3.174  13.015
83173SOL    HW251417   1.300   3.317  13.000
83174SOL     OW51418   0.374   6.820   6.525
83174SOL    HW151419   0.315   6.878   6.572
83174SOL    HW251420   0.317   6.769   6.468
83175SOL     OW51421   1.158  13.545   0.556
83175SOL    HW151422   1.150  13.614   0.491
83175SOL    HW251423   1.218  13.581   0.621
83176SOL     OW51424   0.751   6.933  13.321
83176SOL    HW151425   0.807   7.006  13.347
83176SOL    HW251426   0.806   6.855  13.337
83177SOL     OW51427   5.834  10.827   9.669
83177SOL    HW151428   5.842  10.869   9.583
83177SOL    HW251429   5.759  10.870   9.709
83178SOL     OW51430   8.430   3.811   7.854
83178SOL    HW151431   8.451   3.745   7.788
83178SOL    HW251432   8.435   3.763   7.938
83179SOL     OW51433   0.326   2.670  12.535
83179SOL    HW151434   0.266   2.714  12.595
83179SOL    HW251435   0.336   2.730  12.462
83180SOL     OW51436   0.774  14.166   1.736
83180SOL    HW151437   0.760  14.156   1.830
83180SOL    HW251438   0.723  14.243   1.712
83181SOL     OW51439  14.055   6.237   0.872
83181SOL    HW151440  14.007   6.279   0.943
83181SOL    HW251441  13.989   6.189   0.823
83182SOL     OW51442   3.464  11.501  12.703
83182SOL    HW151443   3.527  11.518  12.773
83182SOL    HW251444   3.484  11.413  12.673
83183SOL     OW51445  12.133  10.886  14.378
83183SOL    HW151446  12.166  10.823  14.314
83183SOL    HW251447  12.127  10.969  14.330
83184SOL     OW51448   0.953   9.615   6.255
83184SOL    HW151449   1.030   9.560   6.262
83184SOL    HW251450   0.982   9.701   6.285
83185SOL     OW51451   8.272   9.011  12.760
83185SOL    HW151452   8.187   8.984  12.726
83185SOL    HW251453   8.329   9.013  12.682
83186SOL     OW51454  13.967  11.912   1.419
83186SOL    HW151455  13.922  11.928   1.502
83186SOL    HW251456  13.906  11.943   1.352
83187SOL     OW51457   8.485   0.148   8.426
83187SOL    HW151458   8.567   0.196   8.440
83187SOL    HW251459   8.444   0.146   8.512
83188SOL     OW51460  10.185   1.239   7.049
83188SOL    HW151461  10.110   1.180   7.044
83188SOL    HW251462  10.179   1.279   7.135
83189SOL     OW51463   6.667   4.036   6.837
83189SOL    HW151464   6.661   3.974   6.909
83189SOL    HW251465   6.603   4.005   6.773
83190SOL     OW51466  11.805   7.504   6.894
83190SOL    HW151467  11.712   7.527   6.890
83190SOL    HW251468  11.836   7.512   6.804
83191SOL     OW51469  11.483   0.598   9.901
83191SOL    HW151470  11.399   0.606   9.854
83191SOL    HW251471  11.482   0.670   9.963
83192SOL     OW51472   6.267   8.855   7.201
83192SOL    HW151473   6.328   8.821   7.266
83192SOL    HW251474   6.322   8.902   7.139
83193SOL     OW51475   2.146   4.873  12.582
83193SOL    HW151476   2.075   4.812  12.563
83193SOL    HW251477   2.122   4.952  12.533
83194SOL     OW51478  14.273   3.446   0.716
83194SOL    HW151479  14.308   3.513   0.657
83194SOL    HW251480  14.179   3.445   0.698
83195SOL     OW51481   6.012   0.822   2.778
83195SOL    HW151482   5.934   0.769   2.764
83195SOL    HW251483   6.066   0.770   2.837
83196SOL     OW51484   1.437   3.529   6.607
83196SOL    HW151485   1.486   3.589   6.551
83196SOL    HW251486   1.420   3.579   6.687
83197SOL     OW51487  14.160   8.591   5.123
83197SOL    HW151488  14.082   8.540   5.102
83197SOL    HW251489  14.214   8.586   5.044
83198SOL     OW51490   7.009   3.633  13.580
83198SOL    HW151491   7.054   3.558  13.541
83198SOL    HW251492   6.917   3.607  13.581
83199SOL     OW51493   8.817   0.454   6.878
83199SOL    HW151494   8.821   0.453   6.974
83199SOL    HW251495   8.869   0.530   6.853
83200SOL     OW51496   6.511  13.990   9.195
83200SOL    HW151497   6.578  13.941   9.242
83200SOL    HW251498   6.457  13.924   9.153
83201SOL     OW51499  13.131  13.249   4.031
83201SOL    HW151500  13.180  13.280   4.107
83201SOL    HW251501  13.092  13.329   3.994
83202SOL     OW51502  11.566  14.431  11.943
83202SOL    HW151503  11.491  14.488  11.961
83202SOL    HW251504  11.530  14.359  11.892
83203SOL     OW51505   6.431  12.586   4.539
83203SOL    HW151506   6.392  12.660   4.493
83203SOL    HW251507   6.366  12.562   4.605
83204SOL     OW51508   3.540   2.360   6.126
83204SOL    HW151509   3.460   2.392   6.168
83204SOL    HW251510   3.605   2.360   6.197
83205SOL     OW51511   0.730  13.349   4.640
83205SOL    HW151512   0.757  13.441   4.634
83205SOL    HW251513   0.812  13.301   4.647
83206SOL     OW51514   7.373   3.485  10.595
83206SOL    HW151515   7.425   3.410  10.566
83206SOL    HW251516   7.398   3.555  10.536
83207SOL     OW51517   6.154  10.794   9.184
83207SOL    HW151518   6.247  10.818   9.183
83207SOL    HW251519   6.129  10.792   9.092
83208SOL     OW51520   6.625   5.954  14.630
83208SOL    HW151521   6.613   5.964  14.536
83208SOL    HW251522   6.709   5.910  14.640
83209SOL     OW51523   9.327   5.624  12.724
83209SOL    HW151524   9.353   5.616  12.816
83209SOL    HW251525   9.236   5.652  12.727
83210SOL     OW51526   6.767   8.472   3.720
83210SOL    HW151527   6.847   8.523   3.731
83210SOL    HW251528   6.789   8.385   3.752
83211SOL     OW51529  13.912   4.015   4.703
83211SOL    HW151530  13.826   3.981   4.678
83211SOL    HW251531  13.900   4.049   4.792
83212SOL     OW51532   5.440   6.056   4.686
83212SOL    HW151533   5.520   6.030   4.731
83212SOL    HW251534   5.412   6.135   4.732
83213SOL     OW51535   4.144   9.469   1.214
83213SOL    HW151536   4.139   9.486   1.308
83213SOL    HW251537   4.062   9.504   1.179
83214SOL     OW51538   8.633  13.435   9.748
83214SOL    HW151539   8.554  13.467   9.792
83214SOL    HW251540   8.653  13.502   9.682
83215SOL     OW51541   3.309   7.493   9.012
83215SOL    HW151542   3.275   7.405   8.998
83215SOL    HW251543   3.233   7.550   8.998
83216SOL     OW51544  14.438  12.629   9.400
83216SOL    HW151545  14.520  12.640   9.448
83216SOL    HW251546  14.452  12.674   9.316
83217SOL     OW51547  12.987   9.178  14.303
83217SOL    HW151548  13.061   9.119  14.319
83217SOL    HW251549  12.932   9.170  14.380
83218SOL     OW51550   7.458  10.688   5.180
83218SOL    HW151551   7.425  10.714   5.094
83218SOL    HW251552   7.494  10.769   5.217
83219SOL     OW51553   4.114   7.594   5.833
83219SOL    HW151554   4.207   7.575   5.822
83219SOL    HW251555   4.070   7.514   5.804
83220SOL     OW51556   2.993  10.500   0.374
83220SOL    HW151557   3.070  10.482   0.428
83220SOL    HW251558   2.998  10.594   0.357
83221SOL     OW51559   7.501   8.126  14.493
83221SOL    HW151560   7.559   8.187  14.539
83221SOL    HW251561   7.452   8.083  14.563
83222SOL     OW51562  13.621   6.249  14.207
83222SOL    HW151563  13.708   6.235  14.170
83222SOL    HW251564  13.598   6.165  14.247
83223SOL     OW51565   8.345   2.842   0.197
83223SOL    HW151566   8.408   2.805   0.135
83223SOL    HW251567   8.356   2.937   0.189
83224SOL     OW51568   8.404  10.329   7.097
83224SOL    HW151569   8.493  10.346   7.127
83224SOL    HW251570   8.404  10.237   7.070
83225SOL     OW51571  13.212   9.751   6.765
83225SOL    HW151572  13.207   9.751   6.669
83225SOL    HW251573  13.120   9.758   6.793
83226SOL     OW51574  11.892  11.226   7.388
83226SOL    HW151575  11.945  11.266   7.319
83226SOL    HW251576  11.897  11.132   7.370
83227SOL     OW51577  11.688   7.414   7.704
83227SOL    HW151578  11.686   7.328   7.746
83227SOL    HW251579  11.727   7.397   7.618
83228SOL     OW51580  10.765  14.105   6.094
83228SOL    HW151581  10.717  14.039   6.045
83228SOL    HW251582  10.753  14.081   6.186
83229SOL     OW51583  13.556   8.277   0.994
83229SOL    HW151584  13.649   8.297   0.988
83229SOL    HW251585  13.539   8.220   0.918
83230SOL     OW51586   8.873   0.718   8.066
83230SOL    HW151587   8.952   0.703   8.015
83230SOL    HW251588   8.845   0.806   8.042
83231SOL     OW51589  11.057   4.369  11.678
83231SOL    HW151590  10.978   4.314  11.681
83231SOL    HW251591  11.129   4.307  11.683
83232SOL     OW51592   5.520   7.033   0.704
83232SOL    HW151593   5.489   6.951   0.666
83232SOL    HW251594   5.441   7.082   0.725
83233SOL     OW51595  11.819  14.452   1.588
83233SOL    HW151596  11.853  14.541   1.580
83233SOL    HW251597  11.729  14.463   1.620
83234SOL     OW51598  14.178   9.545   7.046
83234SOL    HW151599  14.197   9.624   6.995
83234SOL    HW251600  14.082   9.541   7.047
83235SOL     OW51601   9.986   9.593   8.559
83235SOL    HW151602  10.074   9.593   8.596
83235SOL    HW251603   9.946   9.513   8.594
83236SOL     OW51604   1.245   3.211   7.273
83236SOL    HW151605   1.223   3.195   7.365
83236SOL    HW251606   1.328   3.165   7.260
83237SOL     OW51607   7.950   5.571   2.777
83237SOL    HW151608   7.976   5.560   2.868
83237SOL    HW251609   7.974   5.489   2.735
83238SOL     OW51610   0.870   1.229  12.818
83238SOL    HW151611   0.857   1.279  12.899
83238SOL    HW251612   0.946   1.270  12.777
83239SOL     OW51613   4.160   0.686   9.100
83239SOL    HW151614   4.148   0.662   9.008
83239SOL    HW251615   4.074   0.715   9.129
83240SOL     OW51616   8.874   7.812   3.966
83240SOL    HW151617   8.779   7.799   3.956
83240SOL    HW251618   8.882   7.883   4.029
83241SOL     OW51619   2.937   6.248  13.304
83241SOL    HW151620   3.015   6.249  13.248
83241SOL    HW251621   2.971   6.259  13.393
83242SOL     OW51622   8.695   0.205   7.729
83242SOL    HW151623   8.614   0.187   7.681
83242SOL    HW251624   8.758   0.143   7.694
83243SOL     OW51625   5.245  13.438  10.905
83243SOL    HW151626   5.182  13.490  10.855
83243SOL    HW251627   5.328  13.484  10.893
83244SOL     OW51628   3.034   7.301   1.459
83244SOL    HW151629   2.949   7.315   1.502
83244SOL    HW251630   3.096   7.350   1.513
83245SOL     OW51631   8.808   6.937   3.983
83245SOL    HW151632   8.810   6.856   3.932
83245SOL    HW251633   8.852   7.001   3.927
83246SOL     OW51634  13.532   2.351   2.290
83246SOL    HW151635  13.557   2.387   2.375
83246SOL    HW251636  13.505   2.428   2.239
83247SOL     OW51637   3.025   3.039   0.275
83247SOL    HW151638   2.982   3.124   0.286
83247SOL    HW251639   3.021   3.000   0.362
83248SOL     OW51640   1.372  12.675  13.274
83248SOL    HW151641   1.433  12.690  13.347
83248SOL    HW251642   1.340  12.762  13.251
83249SOL     OW51643   6.268   5.360   6.218
83249SOL    HW151644   6.359   5.332   6.204
83249SOL    HW251645   6.266   5.391   6.308
83250SOL     OW51646  10.654   4.531  10.429
83250SOL    HW151647  10.712   4.541  10.505
83250SOL    HW251648  10.603   4.452  10.448
83251SOL     OW51649   3.825   5.746   6.454
83251SOL    HW151650   3.817   5.794   6.537
83251SOL    HW251651   3.748   5.771   6.404
83252SOL     OW51652  13.658   4.261  11.357
83252SOL    HW151653  13.588   4.261  11.423
83252SOL    HW251654  13.725   4.320  11.393
83253SOL     OW51655  12.774   0.709   8.992
83253SOL    HW151656  12.842   0.753   9.044
83253SOL    HW251657  12.817   0.631   8.958
83254SOL     OW51658   1.030  13.963  12.217
83254SOL    HW151659   1.028  13.970  12.312
83254SOL    HW251660   0.946  13.999  12.188
83255SOL     OW51661  12.801   6.529  10.806
83255SOL    HW151662  12.872   6.563  10.860
83255SOL    HW251663  12.766   6.456  10.856
83256SOL     OW51664   2.358   9.833  13.763
83256SOL    HW151665   2.275   9.863  13.727
83256SOL    HW251666   2.343   9.741  13.785
83257SOL     OW51667  10.804  11.581   2.304
83257SOL    HW151668  10.896  11.571   2.326
83257SOL    HW251669  10.786  11.511   2.241
83258SOL     OW51670  14.642   0.245   5.766
83258SOL    HW151671  14.729   0.282   5.778
83258SOL    HW251672  14.585   0.321   5.751
83259SOL     OW51673  12.743  14.581   8.782
83259SOL    HW151674  12.789  14.560   8.700
83259SOL    HW251675  12.777  14.668   8.807
83260SOL     OW51676  12.912  11.297   3.880
83260SOL    HW151677  12.827  11.277   3.841
83260SOL    HW251678  12.968  11.224   3.853
83261SOL     OW51679  10.739  14.143   9.273
83261SOL    HW151680  10.827  14.178   9.260
83261SOL    HW251681  10.748  14.049   9.252
83262SOL     OW51682   5.110   2.777   1.548
83262SOL    HW151683   5.087   2.869   1.556
83262SOL    HW251684   5.148   2.755   1.633
83263SOL     OW51685   9.832  12.006   5.534
83263SOL    HW151686   9.877  11.943   5.591
83263SOL    HW251687   9.781  12.060   5.594
83264SOL     OW51688  10.603   7.218   0.733
83264SOL    HW151689  10.596   7.310   0.709
83264SOL    HW251690  10.694   7.206   0.758
83265SOL     OW51691  14.717   8.007   7.438
83265SOL    HW151692  14.655   8.046   7.500
83265SOL    HW251693  14.777   8.078   7.416
83266SOL     OW51694   4.170   2.001   7.139
83266SOL    HW151695   4.234   2.067   7.114
83266SOL    HW251696   4.157   1.949   7.059
83267SOL     OW51697   1.336   8.945   5.766
83267SOL    HW151698   1.247   8.924   5.735
83267SOL    HW251699   1.345   9.039   5.748
83268SOL     OW51700   3.608  11.479   6.368
83268SOL    HW151701   3.627  11.529   6.288
83268SOL    HW251702   3.513  11.482   6.376
83269SOL     OW51703   8.428  11.493   5.888
83269SOL    HW151704   8.478  11.445   5.823
83269SOL    HW251705   8.386  11.564   5.839
83270SOL     OW51706  14.754   5.283   7.570
83270SOL    HW151707  14.845   5.308   7.587
83270SOL    HW251708  14.742   5.203   7.621
83271SOL     OW51709  10.489  10.772  14.383
83271SOL    HW151710  10.415  10.832  14.374
83271SOL    HW251711  10.475  10.706  14.316
83272SOL     OW51712  11.568   1.792   8.760
83272SOL    HW151713  11.605   1.704   8.767
83272SOL    HW251714  11.645   1.850   8.758
83273SOL     OW51715  14.141  12.891   3.193
83273SOL    HW151716  14.113  12.981   3.209
83273SOL    HW251717  14.229  12.886   3.231
83274SOL     OW51718   2.021   8.444   9.864
83274SOL    HW151719   1.947   8.442   9.924
83274SOL    HW251720   2.031   8.354   9.835
83275SOL     OW51721   3.126  12.442  10.478
83275SOL    HW151722   3.210  12.438  10.432
83275SOL    HW251723   3.093  12.352  10.476
83276SOL     OW51724   9.817   7.273   1.792
83276SOL    HW151725   9.781   7.315   1.870
83276SOL    HW251726   9.770   7.189   1.787
83277SOL     OW51727   7.744   0.822   5.252
83277SOL    HW151728   7.816   0.833   5.190
83277SOL    HW251729   7.691   0.752   5.215
83278SOL     OW51730   6.487  13.391  14.371
83278SOL    HW151731   6.532  13.366  14.452
83278SOL    HW251732   6.557  13.415  14.311
83279SOL     OW51733   9.601  10.221  14.202
83279SOL    HW151734   9.670  10.155  14.209
83279SOL    HW251735   9.604  10.267  14.286
83280SOL     OW51736   6.632   4.241   2.296
83280SOL    HW151737   6.715   4.204   2.325
83280SOL    HW251738   6.566   4.187   2.340
83281SOL     OW51739   1.409   8.156   6.121
83281SOL    HW151740   1.417   8.082   6.181
83281SOL    HW251741   1.381   8.228   6.176
83282SOL     OW51742   8.186  10.239   3.023
83282SOL    HW151743   8.134  10.239   3.104
83282SOL    HW251744   8.120  10.238   2.953
83283SOL     OW51745   0.993   1.038  14.196
83283SOL    HW151746   1.057   1.020  14.127
83283SOL    HW251747   1.003   1.132  14.214
83284SOL     OW51748   8.022  12.461   3.512
83284SOL    HW151749   8.100  12.516   3.503
83284SOL    HW251750   8.035  12.413   3.594
83285SOL     OW51751  13.299  14.392   8.777
83285SOL    HW151752  13.260  14.351   8.700
83285SOL    HW251753  13.234  14.380   8.846
83286SOL     OW51754   3.758   0.899  10.885
83286SOL    HW151755   3.700   0.973  10.904
83286SOL    HW251756   3.801   0.880  10.969
83287SOL     OW51757   3.607   0.624   6.000
83287SOL    HW151758   3.639   0.596   6.086
83287SOL    HW251759   3.574   0.712   6.014
83288SOL     OW51760   8.614   7.987  10.434
83288SOL    HW151761   8.579   7.908  10.394
83288SOL    HW251762   8.556   8.057  10.403
83289SOL     OW51763   4.734   0.528   6.478
83289SOL    HW151764   4.692   0.450   6.515
83289SOL    HW251765   4.661   0.588   6.460
83290SOL     OW51766   2.864   7.681  13.690
83290SOL    HW151767   2.773   7.658  13.711
83290SOL    HW251768   2.861   7.709  13.599
83291SOL     OW51769   8.931   5.069   5.468
83291SOL    HW151770   8.902   5.031   5.385
83291SOL    HW251771   9.004   5.126   5.444
83292SOL     OW51772   5.586   9.547   0.001
83292SOL    HW151773   5.608   9.497  14.804
83292SOL    HW251774   5.610   9.490   0.073
83293SOL     OW51775  11.039   0.657  11.157
83293SOL    HW151776  11.084   0.590  11.207
83293SOL    HW251777  11.076   0.740  11.189
83294SOL     OW51778   4.601   0.035   4.479
83294SOL    HW151779   4.601   0.113   4.423
83294SOL    HW251780   4.551  14.852   4.430
83295SOL     OW51781  11.006  10.014   3.830
83295SOL    HW151782  10.947  10.054   3.893
83295SOL    HW251783  11.093  10.043   3.856
83296SOL     OW51784   8.893  13.601  10.860
83296SOL    HW151785   8.920  13.540  10.929
83296SOL    HW251786   8.843  13.668  10.906
83297SOL     OW51787   2.882   4.998   3.955
83297SOL    HW151788   2.938   4.973   4.028
83297SOL    HW251789   2.927   4.965   3.877
83298SOL     OW51790   9.412   2.345   0.287
83298SOL    HW151791   9.466   2.406   0.338
83298SOL    HW251792   9.342   2.319   0.348
83299SOL     OW51793  12.727  10.749   3.581
83299SOL    HW151794  12.688  10.831   3.609
83299SOL    HW251795  12.720  10.691   3.656
83300SOL     OW51796  10.534  12.438  14.857
83300SOL    HW151797  10.516  12.532  14.864
83300SOL    HW251798  10.456  12.402  14.813
83301SOL     OW51799   5.055   0.361   5.945
83301SOL    HW151800   5.055   0.446   5.900
83301SOL    HW251801   4.965   0.350   5.976
83302SOL     OW51802   4.152  14.823   9.185
83302SOL    HW151803   4.244  14.809   9.162
83302SOL    HW251804   4.103  14.798   9.107
83303SOL     OW51805   6.007   4.319  14.507
83303SOL    HW151806   6.010   4.400  14.456
83303SOL    HW251807   6.090   4.275  14.486
83304SOL     OW51808  14.322   9.374   9.385
83304SOL    HW151809  14.392   9.426   9.426
83304SOL    HW251810  14.359   9.350   9.300
83305SOL     OW51811   5.289  11.036  11.275
83305SOL    HW151812   5.287  11.081  11.191
83305SOL    HW251813   5.378  11.003  11.283
83306SOL     OW51814   0.455   9.021   9.499
83306SOL    HW151815   0.443   8.927   9.483
83306SOL    HW251816   0.396   9.063   9.436
83307SOL     OW51817   1.544   9.854  13.646
83307SOL    HW151818   1.596   9.904  13.709
83307SOL    HW251819   1.456   9.852  13.684
83308SOL     OW51820   5.995  12.637   7.494
83308SOL    HW151821   6.008  12.705   7.560
83308SOL    HW251822   6.038  12.671   7.416
83309SOL     OW51823  11.341   3.138  13.491
83309SOL    HW151824  11.375   3.226  13.474
83309SOL    HW251825  11.253   3.153  13.527
83310SOL     OW51826   4.344   5.671   0.188
83310SOL    HW151827   4.420   5.729   0.181
83310SOL    HW251828   4.324   5.647   0.098
83311SOL     OW51829   4.862  12.985  14.137
83311SOL    HW151830   4.842  13.066  14.183
83311SOL    HW251831   4.847  12.916  14.202
83312SOL     OW51832   2.058   2.273   3.989
83312SOL    HW151833   2.075   2.367   3.995
83312SOL    HW251834   2.144   2.233   3.998
83313SOL     OW51835   4.530  14.290   9.184
83313SOL    HW151836   4.454  14.241   9.152
83313SOL    HW251837   4.603  14.258   9.132
83314SOL     OW51838  11.764   9.350  11.752
83314SOL    HW151839  11.789   9.259  11.771
83314SOL    HW251840  11.673   9.356  11.780
83315SOL     OW51841   0.353   1.185  13.288
83315SOL    HW151842   0.271   1.137  13.301
83315SOL    HW251843   0.403   1.130  13.228
83316SOL     OW51844  11.087   4.764   8.908
83316SOL    HW151845  11.167   4.718   8.931
83316SOL    HW251846  11.090   4.771   8.812
83317SOL     OW51847   5.386   3.197   5.104
83317SOL    HW151848   5.392   3.288   5.074
83317SOL    HW251849   5.295   3.174   5.091
83318SOL     OW51850   5.490   8.408   2.515
83318SOL    HW151851   5.521   8.328   2.473
83318SOL    HW251852   5.407   8.428   2.471
83319SOL     OW51853  10.219  13.169   3.090
83319SOL    HW151854  10.294  13.131   3.043
83319SOL    HW251855  10.255  13.192   3.176
83320SOL     OW51856  14.649   6.166   9.889
83320SOL    HW151857  14.691   6.109   9.954
83320SOL    HW251858  14.646   6.252   9.932
83321SOL     OW51859   9.277   4.001   6.437
83321SOL    HW151860   9.360   4.032   6.403
83321SOL    HW251861   9.282   3.906   6.431
83322SOL     OW51862  14.216   3.963  10.417
83322SOL    HW151863  14.289   3.912  10.382
83322SOL    HW251864  14.224   4.048  10.374
83323SOL     OW51865   3.423   4.376  13.813
83323SOL    HW151866   3.382   4.294  13.787
83323SOL    HW251867   3.373   4.443  13.766
83324SOL     OW51868  11.367   1.846   7.107
83324SOL    HW151869  11.316   1.924   7.126
83324SOL    HW251870  11.348   1.826   7.015
83325SOL     OW51871   6.366   5.622  11.713
83325SOL    HW151872   6.331   5.707  11.684
83325SOL    HW251873   6.403   5.639  11.799
83326SOL     OW51874   2.628  11.916   8.202
83326SOL    HW151875   2.585  11.855   8.143
83326SOL    HW251876   2.719  11.885   8.207
83327SOL     OW51877   4.298   3.447   6.803
83327SOL    HW151878   4.356   3.373   6.789
83327SOL    HW251879   4.331   3.515   6.744
83328SOL     OW51880  10.192  13.624   2.430
83328SOL    HW151881  10.248  13.694   2.465
83328SOL    HW251882  10.166  13.575   2.508
83329SOL     OW51883   7.586   1.804   0.823
83329SOL    HW151884   7.559   1.880   0.772
83329SOL    HW251885   7.559   1.824   0.913
83330SOL     OW51886   5.596   3.423   0.432
83330SOL    HW151887   5.595   3.358   0.502
83330SOL    HW251888   5.557   3.501   0.472
83331SOL     OW51889   2.835  14.270  14.750
83331SOL    HW151890   2.857  14.180  14.724
83331SOL    HW251891   2.758  14.292  14.697
83332SOL     OW51892   6.894   4.251   2.734
83332SOL    HW151893   6.803   4.224   2.719
83332SOL    HW251894   6.925   4.278   2.648
83333SOL     OW51895   3.520   3.144   7.536
83333SOL    HW151896   3.541   3.204   7.607
83333SOL    HW251897   3.543   3.193   7.456
83334SOL     OW51898   3.554  14.038  13.241
83334SOL    HW151899   3.479  14.068  13.292
83334SOL    HW251900   3.518  13.968  13.186
83335SOL     OW51901  12.971   1.627  10.985
83335SOL    HW151902  13.062   1.632  10.954
83335SOL    HW251903  12.933   1.553  10.936
83336SOL     OW51904   4.386   7.394   5.809
83336SOL    HW151905   4.407   7.363   5.897
83336SOL    HW251906   4.393   7.489   5.814
83337SOL     OW51907  10.103   3.593  14.837
83337SOL    HW151908  10.132   3.617  14.749
83337SOL    HW251909  10.018   3.551  14.823
83338SOL     OW51910   8.798   9.373   1.042
83338SOL    HW151911   8.854   9.443   1.077
83338SOL    HW251912   8.712   9.415   1.031
83339SOL     OW51913  13.272   9.377   6.229
83339SOL    HW151914  13.208   9.389   6.298
83339SOL    HW251915  13.226   9.400   6.149
83340SOL     OW51916   3.648  12.870   6.345
83340SOL    HW151917   3.613  12.795   6.298
83340SOL    HW251918   3.733  12.887   6.304
83341SOL     OW51919  12.538   6.172  13.652
83341SOL    HW151920  12.446   6.190  13.634
83341SOL    HW251921  12.537   6.096  13.710
83342SOL     OW51922   3.417   2.516   5.871
83342SOL    HW151923   3.355   2.443   5.858
83342SOL    HW251924   3.472   2.488   5.945
83343SOL     OW51925  12.577   4.989   6.096
83343SOL    HW151926  12.520   5.043   6.042
83343SOL    HW251927  12.625   4.935   6.034
83344SOL     OW51928   8.097   9.593   8.192
83344SOL    HW151929   8.186   9.584   8.158
83344SOL    HW251930   8.095   9.680   8.233
83345SOL     OW51931   0.694   6.984   8.180
83345SOL    HW151932   0.729   7.053   8.123
83345SOL    HW251933   0.608   7.016   8.207
83346SOL     OW51934   0.094   4.365   5.512
83346SOL    HW151935   0.078   4.394   5.422
83346SOL    HW251936   0.189   4.372   5.522
83347SOL     OW51937   3.568   5.057   0.080
83347SOL    HW151938   3.477   5.047   0.105
83347SOL    HW251939   3.595   5.139   0.123
83348SOL     OW51940   5.248  11.271   1.600
83348SOL    HW151941   5.242  11.178   1.620
83348SOL    HW251942   5.311  11.276   1.527
83349SOL     OW51943   6.824   7.253   5.638
83349SOL    HW151944   6.846   7.345   5.624
83349SOL    HW251945   6.875   7.228   5.715
83350SOL     OW51946  13.586  13.736   7.265
83350SOL    HW151947  13.637  13.692   7.333
83350SOL    HW251948  13.650  13.754   7.196
83351SOL     OW51949  10.905   8.702   4.982
83351SOL    HW151950  10.930   8.685   4.891
83351SOL    HW251951  10.868   8.619   5.013
83352SOL     OW51952   3.642   6.855  11.893
83352SOL    HW151953   3.624   6.761  11.895
83352SOL    HW251954   3.563   6.895  11.929
83353SOL     OW51955   5.977   5.897   6.628
83353SOL    HW151956   5.908   5.832   6.616
83353SOL    HW251957   6.057   5.851   6.603
83354SOL     OW51958  11.907  14.422   2.883
83354SOL    HW151959  11.978  14.370   2.843
83354SOL    HW251960  11.876  14.479   2.813
83355SOL     OW51961   7.510  12.176   5.237
83355SOL    HW151962   7.547  12.233   5.305
83355SOL    HW251963   7.548  12.208   5.155
83356SOL     OW51964   6.541   8.709   1.645
83356SOL    HW151965   6.539   8.714   1.550
83356SOL    HW251966   6.511   8.794   1.675
83357SOL     OW51967   8.567   7.724  12.038
83357SOL    HW151968   8.496   7.782  12.064
83357SOL    HW251969   8.646   7.777  12.051
83358SOL     OW51970  13.676  13.746  11.028
83358SOL    HW151971  13.628  13.680  11.080
83358SOL    HW251972  13.627  13.751  10.946
83359SOL     OW51973   6.406  13.653  10.298
83359SOL    HW151974   6.377  13.579  10.351
83359SOL    HW251975   6.395  13.729  10.356
83360SOL     OW51976   5.680   1.622   5.657
83360SOL    HW151977   5.635   1.704   5.674
83360SOL    HW251978   5.632   1.557   5.708
83361SOL     OW51979   4.797   0.983   3.442
83361SOL    HW151980   4.877   1.004   3.395
83361SOL    HW251981   4.818   0.997   3.534
83362SOL     OW51982  14.266  13.423   5.599
83362SOL    HW151983  14.172  13.432   5.618
83362SOL    HW251984  14.269  13.408   5.504
83363SOL     OW51985   9.825   0.130  12.495
83363SOL    HW151986   9.825   0.223  12.474
83363SOL    HW251987   9.734   0.102  12.480
83364SOL     OW51988   2.736   8.496   8.727
83364SOL    HW151989   2.711   8.412   8.689
83364SOL    HW251990   2.673   8.558   8.690
83365SOL     OW51991  10.202   6.040   4.775
83365SOL    HW151992  10.264   6.082   4.715
83365SOL    HW251993  10.115   6.063   4.741
83366SOL     OW51994  12.740   4.305   7.207
83366SOL    HW151995  12.661   4.350   7.237
83366SOL    HW251996  12.795   4.299   7.285
83367SOL     OW51997   8.877  12.834  11.617
83367SOL    HW151998   8.945  12.799  11.560
83367SOL    HW251999   8.825  12.758  11.642
83368SOL     OW52000  12.247   0.148  11.847
83368SOL    HW152001  12.273   0.211  11.915
83368SOL    HW252002  12.205   0.202  11.780
83369SOL     OW52003   0.657   8.427  13.074
83369SOL    HW152004   0.579   8.384  13.037
83369SOL    HW252005   0.669   8.505  13.020
83370SOL     OW52006   8.921   0.302  13.264
83370SOL    HW152007   8.976   0.365  13.217
83370SOL    HW252008   8.926   0.222  13.212
83371SOL     OW52009  13.281   7.148   5.610
83371SOL    HW152010  13.228   7.189   5.678
83371SOL    HW252011  13.222   7.140   5.535
83372SOL     OW52012  12.636   5.819   9.865
83372SOL    HW152013  12.701   5.752   9.846
83372SOL    HW252014  12.658   5.891   9.806
83373SOL     OW52015   1.849   8.726   8.346
83373SOL    HW152016   1.797   8.807   8.352
83373SOL    HW252017   1.905   8.740   8.270
83374SOL     OW52018   1.711  10.782  14.635
83374SOL    HW152019   1.689  10.839  14.562
83374SOL    HW252020   1.663  10.701  14.617
83375SOL     OW52021   2.553   4.952   3.459
83375SOL    HW152022   2.502   4.946   3.540
83375SOL    HW252023   2.617   4.881   3.466
83376SOL     OW52024   6.333   4.368  10.732
83376SOL    HW152025   6.401   4.341  10.794
83376SOL    HW252026   6.375   4.435  10.678
83377SOL     OW52027   0.122  12.706   2.107
83377SOL    HW152028   0.073  12.657   2.174
83377SOL    HW252029   0.206  12.660   2.101
83378SOL     OW52030   3.584   9.235  11.506
83378SOL    HW152031   3.490   9.220  11.497
83378SOL    HW252032   3.597   9.326  11.480
83379SOL     OW52033   0.876   5.770   8.896
83379SOL    HW152034   0.880   5.756   8.801
83379SOL    HW252035   0.810   5.839   8.907
83380SOL     OW52036   3.083  10.632  11.193
83380SOL    HW152037   3.156  10.578  11.221
83380SOL    HW252038   3.050  10.588  11.114
83381SOL     OW52039   6.916  12.909   2.691
83381SOL    HW152040   6.966  12.944   2.764
83381SOL    HW252041   6.981  12.870   2.633
83382SOL     OW52042   4.377  13.722  12.097
83382SOL    HW152043   4.455  13.668  12.113
83382SOL    HW252044   4.380  13.790  12.164
83383SOL     OW52045   3.878   5.950  10.188
83383SOL    HW152046   3.823   6.028  10.178
83383SOL    HW252047   3.817   5.882  10.216
83384SOL     OW52048   5.359   7.506   6.573
83384SOL    HW152049   5.448   7.541   6.568
83384SOL    HW252050   5.361   7.445   6.646
83385SOL     OW52051   3.043   1.150   7.939
83385SOL    HW152052   3.029   1.141   8.033
83385SOL    HW252053   2.998   1.231   7.915
83386SOL     OW52054   6.463   6.550  13.113
83386SOL    HW152055   6.512   6.516  13.039
83386SOL    HW252056   6.523   6.609  13.158
83387SOL     OW52057  10.694   8.301   1.593
83387SOL    HW152058  10.672   8.208   1.598
83387SOL    HW252059  10.616   8.346   1.626
83388SOL     OW52060   2.561   4.835   1.989
83388SOL    HW152061   2.572   4.824   2.084
83388SOL    HW252062   2.623   4.774   1.950
83389SOL     OW52063  13.367  11.909  13.756
83389SOL    HW152064  13.398  11.884  13.669
83389SOL    HW252065  13.280  11.946  13.740
83390SOL     OW52066  10.129   6.965  10.086
83390SOL    HW152067  10.069   6.905  10.131
83390SOL    HW252068  10.216   6.936  10.113
83391SOL     OW52069   3.392   7.311  10.913
83391SOL    HW152070   3.340   7.322  10.993
83391SOL    HW252071   3.426   7.398  10.894
83392SOL     OW52072  11.419   2.074   1.205
83392SOL    HW152073  11.429   2.132   1.280
83392SOL    HW252074  11.325   2.057   1.200
83393SOL     OW52075   1.540  12.482   1.848
83393SOL    HW152076   1.570  12.544   1.781
83393SOL    HW252077   1.558  12.396   1.810
83394SOL     OW52078  13.804  10.170   9.783
83394SOL    HW152079  13.743  10.207   9.719
83394SOL    HW252080  13.881  10.227   9.778
83395SOL     OW52081   8.894   0.093  13.081
83395SOL    HW152082   8.913   0.123  12.993
83395SOL    HW252083   8.967   0.035  13.104
83396SOL     OW52084   9.219   4.071  11.871
83396SOL    HW152085   9.150   4.070  11.804
83396SOL    HW252086   9.212   3.985  11.913
83397SOL     OW52087   8.131  10.019   9.979
83397SOL    HW152088   8.131  10.109   9.947
83397SOL    HW252089   8.040   9.992   9.974
83398SOL     OW52090   6.261  10.788   6.861
83398SOL    HW152091   6.183  10.830   6.825
83398SOL    HW252092   6.227  10.719   6.919
83399SOL     OW52093   1.062   6.985   1.077
83399SOL    HW152094   1.097   6.963   1.163
83399SOL    HW252095   1.139   6.985   1.019
83400SOL     OW52096   7.275   8.309   5.796
83400SOL    HW152097   7.231   8.242   5.743
83400SOL    HW252098   7.364   8.277   5.806
83401SOL     OW52099   8.065  12.139   9.225
83401SOL    HW152100   7.993  12.187   9.186
83401SOL    HW252101   8.107  12.095   9.151
83402SOL     OW52102   3.687  13.037   0.526
83402SOL    HW152103   3.678  13.102   0.457
83402SOL    HW252104   3.713  12.957   0.481
83403SOL     OW52105   1.440  11.110  14.861
83403SOL    HW152106   1.523  11.063  14.849
83403SOL    HW252107   1.465  11.202  14.858
83404SOL     OW52108  14.172   6.133   8.485
83404SOL    HW152109  14.227   6.174   8.418
83404SOL    HW252110  14.096   6.191   8.493
83405SOL     OW52111  13.094   5.241  10.347
83405SOL    HW152112  13.138   5.303  10.405
83405SOL    HW252113  13.106   5.277  10.259
83406SOL     OW52114   9.900  12.728   4.457
83406SOL    HW152115   9.929  12.808   4.412
83406SOL    HW252116   9.855  12.678   4.389
83407SOL     OW52117  11.100   3.988  12.424
83407SOL    HW152118  11.102   3.906  12.375
83407SOL    HW252119  11.087   3.962  12.515
83408SOL     OW52120   7.196  11.145   7.530
83408SOL    HW152121   7.197  11.240   7.539
83408SOL    HW252122   7.206  11.129   7.436
83409SOL     OW52123   0.314   1.232   1.787
83409SOL    HW152124   0.385   1.221   1.723
83409SOL    HW252125   0.346   1.300   1.846
83410SOL     OW52126   7.032   9.106   9.555
83410SOL    HW152127   7.050   9.029   9.609
83410SOL    HW252128   6.973   9.159   9.609
83411SOL     OW52129  13.094   3.603   9.715
83411SOL    HW152130  13.051   3.638   9.637
83411SOL    HW252131  13.119   3.681   9.764
83412SOL     OW52132   7.373   9.431   3.462
83412SOL    HW152133   7.373   9.511   3.410
83412SOL    HW252134   7.281   9.404   3.464
83413SOL     OW52135   7.469   1.247   0.867
83413SOL    HW152136   7.465   1.336   0.902
83413SOL    HW252137   7.408   1.247   0.794
83414SOL     OW52138  11.478  14.123   7.145
83414SOL    HW152139  11.473  14.086   7.233
83414SOL    HW252140  11.534  14.200   7.154
83415SOL     OW52141   1.748  11.750  10.620
83415SOL    HW152142   1.800  11.725  10.696
83415SOL    HW252143   1.780  11.838  10.597
83416SOL     OW52144   7.940  14.243  12.877
83416SOL    HW152145   7.932  14.147  12.872
83416SOL    HW252146   7.850  14.274  12.881
83417SOL     OW52147   3.546  12.948   0.789
83417SOL    HW152148   3.479  13.011   0.761
83417SOL    HW252149   3.597  12.931   0.710
83418SOL     OW52150   9.010  13.304  11.594
83418SOL    HW152151   9.018  13.289  11.688
83418SOL    HW252152   9.050  13.226  11.554
83419SOL     OW52153  10.747  11.823   4.822
83419SOL    HW152154  10.820  11.872   4.861
83419SOL    HW252155  10.760  11.733   4.852
83420SOL     OW52156   1.795  11.546  14.334
83420SOL    HW152157   1.756  11.591  14.410
83420SOL    HW252158   1.887  11.574  14.334
83421SOL     OW52159   8.678   3.090   8.001
83421SOL    HW152160   8.720   3.112   8.084
83421SOL    HW252161   8.750   3.070   7.941
83422SOL     OW52162   4.708   5.553  10.820
83422SOL    HW152163   4.666   5.507  10.893
83422SOL    HW252164   4.688   5.499  10.743
83423SOL     OW52165  10.785   4.353   0.739
83423SOL    HW152166  10.870   4.310   0.753
83423SOL    HW252167  10.768   4.400   0.820
83424SOL     OW52168   0.336   9.414  12.815
83424SOL    HW152169   0.344   9.391  12.723
83424SOL    HW252170   0.279   9.491  12.815
83425SOL     OW52171   0.028   1.039  11.452
83425SOL    HW152172   0.007   0.946  11.456
83425SOL    HW252173   0.102   1.050  11.510
83426SOL     OW52174   9.216  12.949  13.037
83426SOL    HW152175   9.176  12.965  12.951
83426SOL    HW252176   9.224  13.036  13.076
83427SOL     OW52177   8.984   5.632   8.340
83427SOL    HW152178   8.910   5.658   8.395
83427SOL    HW252179   8.945   5.579   8.270
83428SOL     OW52180  12.101  14.533  11.141
83428SOL    HW152181  12.149  14.563  11.064
83428SOL    HW252182  12.163  14.542  11.213
83429SOL     OW52183   1.117   5.564  11.843
83429SOL    HW152184   1.066   5.595  11.769
83429SOL    HW252185   1.057   5.509  11.893
83430SOL     OW52186  11.821   7.730   0.973
83430SOL    HW152187  11.903   7.770   0.944
83430SOL    HW252188  11.847   7.648   1.015
83431SOL     OW52189   5.901  14.211   0.629
83431SOL    HW152190   5.992  14.212   0.658
83431SOL    HW252191   5.865  14.295   0.658
83432SOL     OW52192   1.800   8.863   0.315
83432SOL    HW152193   1.852   8.794   0.275
83432SOL    HW252194   1.710   8.846   0.285
83433SOL     OW52195   0.188   7.612   7.424
83433SOL    HW152196   0.280   7.597   7.446
83433SOL    HW252197   0.177   7.575   7.337
83434SOL     OW52198   5.947   9.064   7.413
83434SOL    HW152199   5.977   9.133   7.473
83434SOL    HW252200   5.852   9.075   7.411
83435SOL     OW52201  10.755   1.137  14.025
83435SOL    HW152202  10.806   1.056  14.034
83435SOL    HW252203  10.670   1.116  14.064
83436SOL     OW52204   0.326   3.562   1.692
83436SOL    HW152205   0.413   3.534   1.663
83436SOL    HW252206   0.267   3.493   1.663
83437SOL     OW52207   9.031  12.338   0.758
83437SOL    HW152208   8.993  12.328   0.671
83437SOL    HW252209   8.957  12.365   0.813
83438SOL     OW52210   3.112   7.679  12.868
83438SOL    HW152211   3.179   7.654  12.932
83438SOL    HW252212   3.033   7.634  12.898
83439SOL     OW52213   8.948   4.521   9.519
83439SOL    HW152214   8.914   4.561   9.599
83439SOL    HW252215   8.947   4.592   9.454
83440SOL     OW52216   6.618   2.494  14.765
83440SOL    HW152217   6.669   2.445  14.701
83440SOL    HW252218   6.533   2.508  14.724
83441SOL     OW52219   5.664   6.338   5.359
83441SOL    HW152220   5.713   6.319   5.439
83441SOL    HW252221   5.592   6.395   5.387
83442SOL     OW52222   7.913   1.182   9.261
83442SOL    HW152223   7.853   1.253   9.286
83442SOL    HW252224   7.989   1.193   9.318
83443SOL     OW52225  13.523   8.102   1.610
83443SOL    HW152226  13.601   8.116   1.556
83443SOL    HW252227  13.468   8.178   1.593
83444SOL     OW52228  14.381   5.671   9.027
83444SOL    HW152229  14.342   5.751   9.063
83444SOL    HW252230  14.412   5.623   9.104
83445SOL     OW52231   8.307  13.749  14.262
83445SOL    HW152232   8.278  13.831  14.222
83445SOL    HW252233   8.333  13.773  14.351
83446SOL     OW52234   2.081   3.731   3.300
83446SOL    HW152235   2.142   3.688   3.241
83446SOL    HW252236   2.136   3.780   3.361
83447SOL     OW52237  11.915   9.765  12.718
83447SOL    HW152238  11.882   9.784  12.631
83447SOL    HW252239  11.995   9.714  12.703
83448SOL     OW52240   5.922   0.531  10.895
83448SOL    HW152241   5.957   0.487  10.972
83448SOL    HW252242   5.827   0.524  10.905
83449SOL     OW52243   9.083   5.521  14.861
83449SOL    HW152244   8.992   5.492  14.862
83449SOL    HW252245   9.079   5.608  14.821
83450SOL     OW52246  12.216  13.859   8.743
83450SOL    HW152247  12.151  13.814   8.689
83450SOL    HW252248  12.223  13.946   8.704
83451SOL     OW52249  11.229   6.429   0.622
83451SOL    HW152250  11.165   6.435   0.692
83451SOL    HW252251  11.303   6.382   0.661
83452SOL     OW52252  13.742   1.867   9.575
83452SOL    HW152253  13.809   1.814   9.532
83452SOL    HW252254  13.710   1.925   9.506
83453SOL     OW52255   0.978   4.099   3.770
83453SOL    HW152256   1.045   4.072   3.707
83453SOL    HW252257   0.975   4.194   3.763
83454SOL     OW52258   5.299  11.614  12.448
83454SOL    HW152259   5.286  11.579  12.536
83454SOL    HW252260   5.296  11.709  12.460
83455SOL     OW52261  11.170  10.330   8.617
83455SOL    HW152262  11.180  10.240   8.649
83455SOL    HW252263  11.202  10.384   8.689
83456SOL     OW52264  14.259   6.387   9.806
83456SOL    HW152265  14.309   6.379   9.724
83456SOL    HW252266  14.241   6.481   9.814
83457SOL     OW52267   4.450  13.910  11.504
83457SOL    HW152268   4.543  13.920  11.526
83457SOL    HW252269   4.427  13.991  11.460
83458SOL     OW52270   4.589   0.968  13.954
83458SOL    HW152271   4.589   1.063  13.964
83458SOL    HW252272   4.518   0.938  14.012
83459SOL     OW52273   1.396   5.490  13.728
83459SOL    HW152274   1.316   5.541  13.742
83459SOL    HW252275   1.440   5.535  13.656
83460SOL     OW52276   6.621   4.710  11.521
83460SOL    HW152277   6.587   4.755  11.598
83460SOL    HW252278   6.550   4.653  11.493
83461SOL     OW52279  14.614   0.492  14.652
83461SOL    HW152280  14.568   0.412  14.677
83461SOL    HW252281  14.691   0.461  14.603
83462SOL     OW52282   5.704   3.881   6.133
83462SOL    HW152283   5.617   3.921   6.145
83462SOL    HW252284   5.728   3.902   6.043
83463SOL     OW52285  10.623   6.708  14.543
83463SOL    HW152286  10.623   6.761  14.623
83463SOL    HW252287  10.712   6.674  14.538
83464SOL     OW52288   5.439   7.557   3.926
83464SOL    HW152289   5.493   7.627   3.890
83464SOL    HW252290   5.355   7.565   3.881
83465SOL     OW52291   1.620   1.841   2.473
83465SOL    HW152292   1.632   1.936   2.475
83465SOL    HW252293   1.596   1.822   2.382
83466SOL     OW52294   1.321   9.642   8.767
83466SOL    HW152295   1.234   9.610   8.789
83466SOL    HW252296   1.355   9.576   8.705
83467SOL     OW52297  12.470   8.830  14.015
83467SOL    HW152298  12.501   8.893  14.080
83467SOL    HW252299  12.375   8.842  14.014
83468SOL     OW52300   3.357   1.484   8.299
83468SOL    HW152301   3.385   1.459   8.387
83468SOL    HW252302   3.432   1.461   8.243
83469SOL     OW52303  10.349   0.377  10.708
83469SOL    HW152304  10.385   0.401  10.793
83469SOL    HW252305  10.255   0.394  10.716
83470SOL     OW52306   5.666   7.463   0.720
83470SOL    HW152307   5.692   7.457   0.628
83470SOL    HW252308   5.693   7.380   0.759
83471SOL     OW52309  12.720   1.079   2.452
83471SOL    HW152310  12.686   1.087   2.541
83471SOL    HW252311  12.790   1.143   2.447
83472SOL     OW52312   7.821   5.396   4.405
83472SOL    HW152313   7.735   5.437   4.416
83472SOL    HW252314   7.823   5.369   4.313
83473SOL     OW52315   6.927   5.439   8.043
83473SOL    HW152316   6.959   5.427   7.954
83473SOL    HW252317   7.000   5.412   8.099
83474SOL     OW52318   9.293   4.192   9.699
83474SOL    HW152319   9.333   4.246   9.631
83474SOL    HW252320   9.243   4.253   9.753
83475SOL     OW52321   3.869   3.766   4.973
83475SOL    HW152322   3.782   3.807   4.981
83475SOL    HW252323   3.902   3.765   5.063
83476SOL     OW52324   2.986   3.439  13.377
83476SOL    HW152325   3.063   3.492  13.358
83476SOL    HW252326   2.993   3.419  13.470
83477SOL     OW52327   5.314   2.529   5.024
83477SOL    HW152328   5.300   2.579   5.105
83477SOL    HW252329   5.268   2.579   4.957
83478SOL     OW52330   4.232  14.703   0.296
83478SOL    HW152331   4.327  14.692   0.294
83478SOL    HW252332   4.219  14.787   0.340
83479SOL     OW52333  14.613   3.817   8.666
83479SOL    HW152334  14.539   3.803   8.726
83479SOL    HW252335  14.682   3.853   8.722
83480SOL     OW52336   8.048  13.347   9.327
83480SOL    HW152337   8.108  13.375   9.396
83480SOL    HW252338   7.974  13.307   9.375
83481SOL     OW52339   5.384  12.685  12.677
83481SOL    HW152340   5.362  12.729  12.760
83481SOL    HW252341   5.473  12.654  12.689
83482SOL     OW52342   1.891   0.035  12.978
83482SOL    HW152343   1.820   0.049  13.041
83482SOL    HW252344   1.910  14.823  12.984
83483SOL     OW52345   2.931  14.594   2.729
83483SOL    HW152346   2.876  14.515   2.736
83483SOL    HW252347   2.960  14.594   2.638
83484SOL     OW52348   2.040   8.306  11.142
83484SOL    HW152349   2.024   8.398  11.121
83484SOL    HW252350   2.071   8.306  11.233
83485SOL     OW52351   3.496   5.381   6.296
83485SOL    HW152352   3.589   5.403   6.305
83485SOL    HW252353   3.451   5.440   6.357
83486SOL     OW52354   7.473  14.492  12.639
83486SOL    HW152355   7.434  14.419  12.688
83486SOL    HW252356   7.559  14.460  12.612
83487SOL     OW52357   2.623  11.068  13.983
83487SOL    HW152358   2.544  11.063  14.037
83487SOL    HW252359   2.592  11.054  13.894
83488SOL     OW52360   8.217   3.539  12.113
83488SOL    HW152361   8.236   3.575  12.200
83488SOL    HW252362   8.139   3.484  12.127
83489SOL     OW52363  10.320   9.247  14.015
83489SOL    HW152364  10.337   9.164  13.969
83489SOL    HW252365  10.235   9.274  13.981
83490SOL     OW52366   0.269  11.221   6.224
83490SOL    HW152367   0.300  11.131   6.229
83490SOL    HW252368   0.296  11.260   6.307
83491SOL     OW52369   4.838  13.237  13.668
83491SOL    HW152370   4.859  13.186  13.746
83491SOL    HW252371   4.800  13.174  13.607
83492SOL     OW52372  14.067   2.070   9.824
83492SOL    HW152373  14.154   2.088   9.788
83492SOL    HW252374  14.084   2.016   9.902
83493SOL     OW52375   9.528  12.455  10.818
83493SOL    HW152376   9.506  12.532  10.766
83493SOL    HW252377   9.457  12.449  10.882
83494SOL     OW52378   1.343  11.982   3.599
83494SOL    HW152379   1.262  11.944   3.635
83494SOL    HW252380   1.313  12.041   3.531
83495SOL     OW52381   9.622  14.334  10.531
83495SOL    HW152382   9.695  14.366  10.584
83495SOL    HW252383   9.599  14.249  10.569
83496SOL     OW52384   5.793  14.834   6.105
83496SOL    HW152385   5.876  14.826   6.152
83496SOL    HW252386   5.816  14.824   6.013
83497SOL     OW52387  10.374  12.384   0.321
83497SOL    HW152388  10.291  12.423   0.292
83497SOL    HW252389  10.436  12.458   0.320
83498SOL     OW52390   4.892   2.653   1.036
83498SOL    HW152391   4.816   2.598   1.054
83498SOL    HW252392   4.876   2.733   1.087
83499SOL     OW52393   2.171   6.611  13.692
83499SOL    HW152394   2.236   6.551  13.728
83499SOL    HW252395   2.089   6.587  13.736
83500SOL     OW52396  13.923   4.100  13.034
83500SOL    HW152397  14.002   4.114  12.982
83500SOL    HW252398  13.945   4.028  13.093
83501SOL     OW52399   6.602   7.083   5.636
83501SOL    HW152400   6.551   7.143   5.691
83501SOL    HW252401   6.683   7.131   5.617
83502SOL     OW52402   5.872  11.321   2.984
83502SOL    HW152403   5.809  11.355   2.922
83502SOL    HW252404   5.925  11.260   2.934
83503SOL     OW52405   8.738   5.439   4.847
83503SOL    HW152406   8.699   5.420   4.933
83503SOL    HW252407   8.663   5.465   4.793
83504SOL     OW52408  10.681   0.369   6.371
83504SOL    HW152409  10.663   0.285   6.412
83504SOL    HW252410  10.753   0.406   6.422
83505SOL     OW52411   0.477  13.201   8.361
83505SOL    HW152412   0.557  13.250   8.378
83505SOL    HW252413   0.465  13.206   8.266
83506SOL     OW52414   0.815  11.836  14.070
83506SOL    HW152415   0.769  11.780  14.007
83506SOL    HW252416   0.904  11.800  14.073
83507SOL     OW52417   9.547  11.725  13.195
83507SOL    HW152418   9.492  11.693  13.124
83507SOL    HW252419   9.519  11.815  13.209
83508SOL     OW52420  14.847   4.827  13.979
83508SOL    HW152421  14.840   4.768  14.054
83508SOL    HW252422  14.870   4.770  13.905
83509SOL     OW52423  10.645  14.245   1.730
83509SOL    HW152424  10.589  14.256   1.653
83509SOL    HW252425  10.596  14.286   1.801
83510SOL     OW52426   5.769  13.810   5.673
83510SOL    HW152427   5.686  13.841   5.636
83510SOL    HW252428   5.762  13.831   5.767
83511SOL     OW52429   9.374  11.452  14.186
83511SOL    HW152430   9.402  11.540  14.213
83511SOL    HW252431   9.395  11.447  14.093
83512SOL     OW52432   0.200   8.002   8.434
83512SOL    HW152433   0.254   8.078   8.453
83512SOL    HW252434   0.149   7.989   8.514
83513SOL     OW52435   1.614   2.743  12.843
83513SOL    HW152436   1.631   2.806  12.773
83513SOL    HW252437   1.522   2.756  12.866
83514SOL     OW52438  10.456   0.257   0.295
83514SOL    HW152439  10.466   0.320   0.366
83514SOL    HW252440  10.524   0.281   0.232
83515SOL     OW52441  12.079  10.525   8.115
83515SOL    HW152442  12.021  10.451   8.096
83515SOL    HW252443  12.035  10.572   8.186
83516SOL     OW52444   9.693  11.155   2.178
83516SOL    HW152445   9.745  11.147   2.258
83516SOL    HW252446   9.704  11.070   2.134
83517SOL     OW52447   2.620   9.244   4.718
83517SOL    HW152448   2.680   9.250   4.792
83517SOL    HW252449   2.595   9.152   4.714
83518SOL     OW52450   0.780   4.365   2.819
83518SOL    HW152451   0.792   4.274   2.845
83518SOL    HW252452   0.843   4.414   2.872
83519SOL     OW52453   5.971  14.857  12.141
83519SOL    HW152454   5.946  14.848  12.233
83519SOL    HW252455   5.984   0.069  12.130
83520SOL     OW52456  13.454  12.462   1.717
83520SOL    HW152457  13.428  12.466   1.809
83520SOL    HW252458  13.490  12.549   1.698
83521SOL     OW52459   0.419  14.045  10.858
83521SOL    HW152460   0.336  14.087  10.878
83521SOL    HW252461   0.478  14.073  10.928
83522SOL     OW52462  11.794   1.384   6.260
83522SOL    HW152463  11.725   1.327   6.226
83522SOL    HW252464  11.873   1.356   6.215
83523SOL     OW52465   3.943   5.137  11.734
83523SOL    HW152466   3.856   5.130  11.773
83523SOL    HW252467   3.973   5.225  11.756
83524SOL     OW52468   9.508   1.587   1.415
83524SOL    HW152469   9.418   1.557   1.406
83524SOL    HW252470   9.534   1.613   1.326
83525SOL     OW52471   0.098   0.572   6.939
83525SOL    HW152472   0.068   0.483   6.953
83525SOL    HW252473   0.044   0.625   6.997
83526SOL     OW52474  13.589  10.764   3.160
83526SOL    HW152475  13.589  10.669   3.162
83526SOL    HW252476  13.615  10.787   3.071
83527SOL     OW52477   9.481   8.966  13.542
83527SOL    HW152478   9.520   8.935  13.624
83527SOL    HW252479   9.396   8.922  13.538
83528SOL     OW52480   6.525  14.777  10.199
83528SOL    HW152481   6.514  14.692  10.157
83528SOL    HW252482   6.585  14.825  10.141
83529SOL     OW52483   8.488  11.845   6.991
83529SOL    HW152484   8.538  11.898   6.929
83529SOL    HW252485   8.426  11.796   6.937
83530SOL     OW52486   8.274  14.786  12.136
83530SOL    HW152487   8.347  14.788  12.199
83530SOL    HW252488   8.196  14.798  12.190
83531SOL     OW52489   1.169   1.868   9.790
83531SOL    HW152490   1.085   1.903   9.818
83531SOL    HW252491   1.226   1.944   9.782
83532SOL     OW52492   6.992  14.385   4.988
83532SOL    HW152493   6.922  14.322   5.007
83532SOL    HW252494   6.948  14.459   4.946
83533SOL     OW52495  12.687  14.031  12.611
83533SOL    HW152496  12.746  13.985  12.671
83533SOL    HW252497  12.644  13.961  12.562
83534SOL     OW52498   8.271   8.328   8.119
83534SOL    HW152499   8.322   8.406   8.136
83534SOL    HW252500   8.240   8.338   8.029
83535SOL     OW52501   6.869   0.841   9.609
83535SOL    HW152502   6.860   0.746   9.609
83535SOL    HW252503   6.955   0.857   9.570
83536SOL     OW52504   2.432  11.639   0.984
83536SOL    HW152505   2.361  11.591   1.027
83536SOL    HW252506   2.393  11.673   0.904
83537SOL     OW52507   4.091   9.462   2.096
83537SOL    HW152508   4.062   9.511   2.173
83537SOL    HW252509   4.015   9.410   2.071
83538SOL     OW52510   4.466   2.971   9.532
83538SOL    HW152511   4.386   2.934   9.495
83538SOL    HW252512   4.537   2.927   9.483
83539SOL     OW52513  12.574  13.224  10.524
83539SOL    HW152514  12.649  13.170  10.547
83539SOL    HW252515  12.535  13.179  10.449
83540SOL     OW52516   7.127  10.189  14.459
83540SOL    HW152517   7.173  10.105  14.469
83540SOL    HW252518   7.137  10.210  14.366
83541SOL     OW52519   5.598   8.903  13.089
83541SOL    HW152520   5.668   8.896  13.024
83541SOL    HW252521   5.584   8.813  13.118
83542SOL     OW52522   2.811  11.893   7.944
83542SOL    HW152523   2.826  11.986   7.923
83542SOL    HW252524   2.839  11.846   7.865
83543SOL     OW52525   6.787  13.856   6.174
83543SOL    HW152526   6.873  13.896   6.162
83543SOL    HW252527   6.753  13.845   6.085
83544SOL     OW52528  10.713  10.148  10.296
83544SOL    HW152529  10.760  10.227  10.321
83544SOL    HW252530  10.639  10.179  10.244
83545SOL     OW52531   6.217   4.611  14.729
83545SOL    HW152532   6.168   4.533  14.755
83545SOL    HW252533   6.242   4.652  14.812
83546SOL     OW52534   0.151   0.093   3.384
83546SOL    HW152535   0.107   0.092   3.469
83546SOL    HW252536   0.176   0.002   3.369
83547SOL     OW52537   6.030  11.180   0.911
83547SOL    HW152538   6.030  11.104   0.968
83547SOL    HW252539   6.099  11.162   0.847
83548SOL     OW52540  13.997   1.870   1.243
83548SOL    HW152541  13.967   1.786   1.278
83548SOL    HW252542  13.996   1.858   1.148
83549SOL     OW52543   8.101   7.257   1.921
83549SOL    HW152544   8.183   7.307   1.922
83549SOL    HW252545   8.069   7.262   2.011
83550SOL     OW52546   2.620   2.995   4.882
83550SOL    HW152547   2.572   2.922   4.844
83550SOL    HW252548   2.634   3.056   4.810
83551SOL     OW52549   9.820   2.119   0.041
83551SOL    HW152550   9.776   2.037   0.018
83551SOL    HW252551   9.836   2.112   0.135
83552SOL     OW52552  12.201   4.510  12.032
83552SOL    HW152553  12.225   4.431  12.080
83552SOL    HW252554  12.125   4.485  11.980
83553SOL     OW52555   9.816  10.951   0.064
83553SOL    HW152556   9.870  11.001   0.126
83553SOL    HW252557   9.821  11.002  14.865
83554SOL     OW52558  10.292  10.709   1.386
83554SOL    HW152559  10.377  10.750   1.401
83554SOL    HW252560  10.273  10.725   1.294
83555SOL     OW52561  12.188   2.391  12.580
83555SOL    HW152562  12.265   2.395  12.524
83555SOL    HW252563  12.181   2.479  12.616
83556SOL     OW52564   7.526   4.203  11.749
83556SOL    HW152565   7.567   4.151  11.681
83556SOL    HW252566   7.537   4.294  11.720
83557SOL     OW52567  14.012   5.907   6.883
83557SOL    HW152568  14.030   5.922   6.976
83557SOL    HW252569  13.918   5.926   6.874
83558SOL     OW52570   7.965  10.994   8.925
83558SOL    HW152571   7.924  10.908   8.916
83558SOL    HW252572   8.012  11.008   8.843
83559SOL     OW52573  10.648  11.477  11.377
83559SOL    HW152574  10.686  11.535  11.310
83559SOL    HW252575  10.585  11.423  11.329
83560SOL     OW52576   2.543   9.433  12.905
83560SOL    HW152577   2.546   9.513  12.958
83560SOL    HW252578   2.459   9.393  12.928
83561SOL     OW52579  13.052   2.484   9.490
83561SOL    HW152580  13.135   2.524   9.516
83561SOL    HW252581  12.991   2.557   9.487
83562SOL     OW52582   8.895  11.545   4.916
83562SOL    HW152583   8.886  11.452   4.934
83562SOL    HW252584   8.805  11.578   4.915
83563SOL     OW52585   2.686   1.018  14.732
83563SOL    HW152586   2.614   1.062  14.777
83563SOL    HW252587   2.659   1.015  14.640
83564SOL     OW52588   1.177   3.127   9.514
83564SOL    HW152589   1.241   3.132   9.443
83564SOL    HW252590   1.183   3.211   9.559
83565SOL     OW52591   2.141  10.307   4.760
83565SOL    HW152592   2.093  10.229   4.736
83565SOL    HW252593   2.074  10.370   4.787
83566SOL     OW52594  12.223   3.141   8.899
83566SOL    HW152595  12.222   3.091   8.817
83566SOL    HW252596  12.239   3.075   8.966
83567SOL     OW52597   1.128   8.676  14.754
83567SOL    HW152598   1.141   8.770  14.759
83567SOL    HW252599   1.217   8.639  14.759
83568SOL     OW52600  10.740   8.454  13.431
83568SOL    HW152601  10.762   8.362  13.448
83568SOL    HW252602  10.645   8.458  13.443
83569SOL     OW52603   8.156   2.169   1.169
83569SOL    HW152604   8.179   2.111   1.096
83569SOL    HW252605   8.229   2.161   1.230
83570SOL     OW52606   1.145   3.151  12.177
83570SOL    HW152607   1.226   3.101  12.171
83570SOL    HW252608   1.081   3.088  12.210
83571SOL     OW52609   9.668   0.661   6.618
83571SOL    HW152610   9.653   0.584   6.673
83571SOL    HW252611   9.757   0.689   6.641
83572SOL     OW52612   3.784   0.329   5.427
83572SOL    HW152613   3.854   0.273   5.460
83572SOL    HW252614   3.803   0.416   5.464
83573SOL     OW52615  13.079   6.388   0.641
83573SOL    HW152616  13.068   6.336   0.562
83573SOL    HW252617  12.999   6.439   0.648
83574SOL     OW52618   1.900   1.911  12.225
83574SOL    HW152619   1.913   1.960  12.144
83574SOL    HW252620   1.818   1.864  12.212
83575SOL     OW52621   7.920   3.602   3.486
83575SOL    HW152622   7.959   3.683   3.454
83575SOL    HW252623   7.947   3.596   3.577
83576SOL     OW52624   3.945  11.095   5.641
83576SOL    HW152625   3.951  11.166   5.704
83576SOL    HW252626   3.983  11.130   5.561
83577SOL     OW52627   0.573   4.805   9.307
83577SOL    HW152628   0.480   4.829   9.315
83577SOL    HW252629   0.598   4.778   9.396
83578SOL     OW52630  11.051   0.689  14.054
83578SOL    HW152631  11.085   0.737  13.979
83578SOL    HW252632  10.973   0.644  14.022
83579SOL     OW52633   4.935   6.687   3.559
83579SOL    HW152634   4.979   6.643   3.632
83579SOL    HW252635   4.958   6.779   3.568
83580SOL     OW52636   7.380  11.131  14.078
83580SOL    HW152637   7.319  11.198  14.049
83580SOL    HW252638   7.462  11.152  14.034
83581SOL     OW52639   5.071   1.127   0.296
83581SOL    HW152640   5.145   1.072   0.321
83581SOL    HW252641   5.109   1.210   0.269
83582SOL     OW52642   6.611   4.701  13.565
83582SOL    HW152643   6.526   4.661  13.547
83582SOL    HW252644   6.674   4.645  13.519
83583SOL     OW52645   9.753  14.850   2.200
83583SOL    HW152646   9.713  14.853   2.113
83583SOL    HW252647   9.846  14.835   2.183
83584SOL     OW52648   7.519  14.515  14.580
83584SOL    HW152649   7.590  14.529  14.643
83584SOL    HW252650   7.562  14.519  14.494
83585SOL     OW52651   0.717   8.984  13.503
83585SOL    HW152652   0.761   8.901  13.520
83585SOL    HW252653   0.631   8.958  13.469
83586SOL     OW52654  11.089   5.613  10.801
83586SOL    HW152655  11.060   5.620  10.892
83586SOL    HW252656  11.126   5.525  10.794
83587SOL     OW52657  10.819  14.843   2.830
83587SOL    HW152658  10.746  14.876   2.883
83587SOL    HW252659  10.781  14.830   2.743
83588SOL     OW52660   6.590  11.791   3.327
83588SOL    HW152661   6.646  11.740   3.269
83588SOL    HW252662   6.501  11.767   3.301
83589SOL     OW52663  14.663   5.664   6.636
83589SOL    HW152664  14.652   5.573   6.663
83589SOL    HW252665  14.574   5.700   6.637
83590SOL     OW52666  11.266   7.869  13.209
83590SOL    HW152667  11.228   7.932  13.148
83590SOL    HW252668  11.294   7.795  13.155
83591SOL     OW52669  12.728   7.226   2.261
83591SOL    HW152670  12.814   7.205   2.224
83591SOL    HW252671  12.748   7.253   2.351
83592SOL     OW52672   7.309   6.560   2.326
83592SOL    HW152673   7.372   6.488   2.328
83592SOL    HW252674   7.364   6.639   2.328
83593SOL     OW52675   6.331   6.292  10.151
83593SOL    HW152676   6.369   6.374  10.122
83593SOL    HW252677   6.297   6.311  10.239
83594SOL     OW52678  14.530   4.784  11.946
83594SOL    HW152679  14.572   4.745  12.022
83594SOL    HW252680  14.455   4.831  11.981
83595SOL     OW52681   3.396   0.888   6.844
83595SOL    HW152682   3.468   0.948   6.860
83595SOL    HW252683   3.354   0.921   6.765
83596SOL     OW52684   2.538   2.063   1.941
83596SOL    HW152685   2.477   2.093   2.009
83596SOL    HW252686   2.609   2.126   1.942
83597SOL     OW52687   8.203   2.833   2.593
83597SOL    HW152688   8.188   2.738   2.595
83597SOL    HW252689   8.126   2.868   2.548
83598SOL     OW52690   7.587   7.980  12.487
83598SOL    HW152691   7.499   7.955  12.460
83598SOL    HW252692   7.610   8.052  12.428
83599SOL     OW52693   1.062   3.726  11.658
83599SOL    HW152694   0.999   3.660  11.630
83599SOL    HW252695   1.011   3.786  11.712
83600SOL     OW52696   5.582  11.108   1.844
83600SOL    HW152697   5.614  11.197   1.853
83600SOL    HW252698   5.626  11.059   1.913
83601SOL     OW52699   6.721   5.211   7.410
83601SOL    HW152700   6.813   5.199   7.386
83601SOL    HW252701   6.675   5.220   7.327
83602SOL     OW52702  13.559   4.220   8.688
83602SOL    HW152703  13.550   4.294   8.628
83602SOL    HW252704  13.619   4.160   8.644
83603SOL     OW52705   9.731  11.898   4.565
83603SOL    HW152706   9.643  11.878   4.597
83603SOL    HW252707   9.739  11.993   4.575
83604SOL     OW52708   9.648   5.982  12.035
83604SOL    HW152709   9.721   5.930  12.000
83604SOL    HW252710   9.626   5.940  12.118
83605SOL     OW52711  12.718   1.090   5.128
83605SOL    HW152712  12.644   1.093   5.188
83605SOL    HW252713  12.695   1.023   5.064
83606SOL     OW52714  13.886   7.149  10.896
83606SOL    HW152715  13.969   7.130  10.940
83606SOL    HW252716  13.836   7.199  10.960
83607SOL     OW52717   2.712   4.814  12.419
83607SOL    HW152718   2.717   4.768  12.335
83607SOL    HW252719   2.620   4.838  12.428
83608SOL     OW52720   0.104   4.613   9.025
83608SOL    HW152721   0.112   4.538   8.967
83608SOL    HW252722   0.064   4.578   9.105
83609SOL     OW52723   6.945  13.973   4.692
83609SOL    HW152724   6.989  13.971   4.607
83609SOL    HW252725   7.009  14.013   4.751
83610SOL     OW52726   7.867  11.741  12.570
83610SOL    HW152727   7.943  11.704  12.525
83610SOL    HW252728   7.896  11.753  12.661
83611SOL     OW52729  11.804   3.041   4.293
83611SOL    HW152730  11.883   3.093   4.308
83611SOL    HW252731  11.834   2.963   4.247
83612SOL     OW52732   0.649  10.929  10.200
83612SOL    HW152733   0.561  10.957  10.222
83612SOL    HW252734   0.706  10.980  10.258
83613SOL     OW52735  13.911   7.510   8.451
83613SOL    HW152736  13.968   7.450   8.498
83613SOL    HW252737  13.835   7.458   8.426
83614SOL     OW52738   8.730  13.898  13.816
83614SOL    HW152739   8.726  13.982  13.862
83614SOL    HW252740   8.701  13.834  13.881
83615SOL     OW52741   8.631   9.589  11.736
83615SOL    HW152742   8.559   9.552  11.685
83615SOL    HW252743   8.652   9.671  11.692
83616SOL     OW52744  12.765   7.729   1.172
83616SOL    HW152745  12.823   7.805   1.168
83616SOL    HW252746  12.752   7.713   1.265
83617SOL     OW52747  11.249   2.089   6.406
83617SOL    HW152748  11.190   2.149   6.453
83617SOL    HW252749  11.321   2.145   6.376
83618SOL     OW52750  12.953   1.704  10.193
83618SOL    HW152751  12.954   1.640  10.121
83618SOL    HW252752  13.002   1.779  10.160
83619SOL     OW52753   7.853   4.024  12.992
83619SOL    HW152754   7.819   3.937  12.970
83619SOL    HW252755   7.792   4.085  12.952
83620SOL     OW52756   9.660   4.558  11.125
83620SOL    HW152757   9.716   4.488  11.091
83620SOL    HW252758   9.718   4.635  11.126
83621SOL     OW52759  14.179   7.195   7.961
83621SOL    HW152760  14.232   7.260   7.915
83621SOL    HW252761  14.197   7.210   8.054
83622SOL     OW52762  11.600   1.097   4.345
83622SOL    HW152763  11.596   1.139   4.431
83622SOL    HW252764  11.615   1.005   4.363
83623SOL     OW52765  12.369  11.452  11.115
83623SOL    HW152766  12.447  11.400  11.096
83623SOL    HW252767  12.378  11.530  11.059
83624SOL     OW52768   6.914   7.635   0.044
83624SOL    HW152769   6.867   7.666  14.848
83624SOL    HW252770   6.973   7.567   0.011
83625SOL     OW52771   8.383   3.120   0.197
83625SOL    HW152772   8.298   3.154   0.226
83625SOL    HW252773   8.446   3.184   0.230
83626SOL     OW52774  13.705   7.059   3.053
83626SOL    HW152775  13.788   7.095   3.084
83626SOL    HW252776  13.692   7.098   2.967
83627SOL     OW52777   4.481   4.435   2.403
83627SOL    HW152778   4.572   4.443   2.373
83627SOL    HW252779   4.488   4.392   2.488
83628SOL     OW52780   6.767  11.431   9.094
83628SOL    HW152781   6.716  11.451   9.016
83628SOL    HW252782   6.702  11.430   9.165
83629SOL     OW52783   1.208   3.041   8.540
83629SOL    HW152784   1.147   3.013   8.607
83629SOL    HW252785   1.260   3.110   8.582
83630SOL     OW52786  13.416   6.477  12.300
83630SOL    HW152787  13.402   6.460  12.393
83630SOL    HW252788  13.510   6.497  12.293
83631SOL     OW52789  10.320   1.401   5.680
83631SOL    HW152790  10.291   1.491   5.698
83631SOL    HW252791  10.386   1.384   5.747
83632SOL     OW52792  10.934  12.782   3.996
83632SOL    HW152793  10.861  12.734   4.035
83632SOL    HW252794  10.985  12.715   3.951
83633SOL     OW52795   2.310   6.444  14.295
83633SOL    HW152796   2.294   6.374  14.232
83633SOL    HW252797   2.396   6.479  14.271
83634SOL     OW52798   0.613   2.707  12.013
83634SOL    HW152799   0.578   2.632  12.062
83634SOL    HW252800   0.541   2.737  11.959
83635SOL     OW52801   7.181   5.659   0.153
83635SOL    HW152802   7.139   5.743   0.171
83635SOL    HW252803   7.275   5.678   0.153
83636SOL     OW52804   1.967  14.326   4.511
83636SOL    HW152805   1.955  14.372   4.427
83636SOL    HW252806   1.880  14.320   4.549
83637SOL     OW52807   2.526   5.107  12.576
83637SOL    HW152808   2.530   5.096  12.481
83637SOL    HW252809   2.434   5.127  12.594
83638SOL     OW52810   0.444  13.114   6.856
83638SOL    HW152811   0.455  13.115   6.951
83638SOL    HW252812   0.439  13.021   6.834
83639SOL     OW52813  10.406   1.192  11.405
83639SOL    HW152814  10.346   1.233  11.467
83639SOL    HW252815  10.410   1.100  11.433
83640SOL     OW52816   1.507  11.022   2.464
83640SOL    HW152817   1.467  11.109   2.465
83640SOL    HW252818   1.486  10.985   2.551
83641SOL     OW52819   6.880   8.869  14.443
83641SOL    HW152820   6.943   8.889  14.374
83641SOL    HW252821   6.797   8.858  14.398
83642SOL     OW52822   3.255  14.614   1.528
83642SOL    HW152823   3.310  14.611   1.606
83642SOL    HW252824   3.309  14.658   1.462
83643SOL     OW52825  10.716   8.227  12.159
83643SOL    HW152826  10.811   8.235  12.148
83643SOL    HW252827  10.700   8.249  12.250
83644SOL     OW52828   4.852  11.426   6.269
83644SOL    HW152829   4.762  11.457   6.277
83644SOL    HW252830   4.900  11.499   6.230
83645SOL     OW52831   9.296   5.596   1.523
83645SOL    HW152832   9.239   5.568   1.594
83645SOL    HW252833   9.384   5.573   1.552
83646SOL     OW52834   9.627   0.187  14.470
83646SOL    HW152835   9.611   0.246  14.544
83646SOL    HW252836   9.601   0.237  14.393
83647SOL     OW52837   1.131  13.726  10.130
83647SOL    HW152838   1.201  13.791  10.134
83647SOL    HW252839   1.157  13.658  10.192
83648SOL     OW52840   2.342   8.261   9.445
83648SOL    HW152841   2.416   8.304   9.403
83648SOL    HW252842   2.305   8.328   9.503
83649SOL     OW52843  10.449   0.408  11.269
83649SOL    HW152844  10.514   0.470  11.233
83649SOL    HW252845  10.425   0.445  11.353
83650SOL     OW52846   1.354  10.623   6.099
83650SOL    HW152847   1.366  10.528   6.093
83650SOL    HW252848   1.284  10.633   6.164
83651SOL     OW52849  12.294  11.802   0.363
83651SOL    HW152850  12.379  11.846   0.375
83651SOL    HW252851  12.230  11.865   0.395
83652SOL     OW52852   3.850  13.181   5.141
83652SOL    HW152853   3.775  13.128   5.115
83652SOL    HW252854   3.914  13.117   5.175
83653SOL     OW52855   0.185   2.978   6.990
83653SOL    HW152856   0.110   2.958   7.046
83653SOL    HW252857   0.150   2.969   6.901
83654SOL     OW52858   1.990  14.454  11.002
83654SOL    HW152859   1.910  14.505  10.992
83654SOL    HW252860   2.046  14.507  11.059
83655SOL     OW52861   9.429   6.134  11.992
83655SOL    HW152862   9.512   6.088  11.997
83655SOL    HW252863   9.391   6.125  12.080
83656SOL     OW52864   6.508  14.874  11.083
83656SOL    HW152865   6.538  14.806  11.144
83656SOL    HW252866   6.418  14.849  11.062
83657SOL     OW52867  13.359   2.343  12.510
83657SOL    HW152868  13.278   2.305  12.475
83657SOL    HW252869  13.329   2.410  12.571
83658SOL     OW52870   6.060  10.763  11.106
83658SOL    HW152871   5.987  10.702  11.092
83658SOL    HW252872   6.060  10.818  11.028
83659SOL     OW52873   2.048  12.323   1.283
83659SOL    HW152874   2.107  12.387   1.243
83659SOL    HW252875   2.031  12.259   1.214
83660SOL     OW52876   6.672   2.760  10.987
83660SOL    HW152877   6.678   2.666  11.000
83660SOL    HW252878   6.588   2.774  10.943
83661SOL     OW52879   2.078   0.617   9.514
83661SOL    HW152880   2.150   0.555   9.501
83661SOL    HW252881   2.018   0.571   9.572
83662SOL     OW52882  14.169   7.934   5.559
83662SOL    HW152883  14.214   7.905   5.480
83662SOL    HW252884  14.232   7.918   5.629
83663SOL     OW52885  10.082  10.755  12.749
83663SOL    HW152886  10.067  10.753  12.655
83663SOL    HW252887  10.159  10.699  12.762
83664SOL     OW52888  11.367   1.768   8.440
83664SOL    HW152889  11.320   1.754   8.358
83664SOL    HW252890  11.378   1.680   8.477
83665SOL     OW52891   6.040   5.360  11.218
83665SOL    HW152892   6.074   5.333  11.303
83665SOL    HW252893   6.115   5.398  11.173
83666SOL     OW52894   3.574   4.003  13.268
83666SOL    HW152895   3.617   4.089  13.274
83666SOL    HW252896   3.633   3.943  13.313
83667SOL     OW52897  12.539  11.722   8.618
83667SOL    HW152898  12.486  11.656   8.573
83667SOL    HW252899  12.561  11.681   8.702
83668SOL     OW52900   1.055   8.214   5.874
83668SOL    HW152901   1.036   8.124   5.849
83668SOL    HW252902   1.017   8.224   5.961
83669SOL     OW52903   7.885  14.633   1.729
83669SOL    HW152904   7.858  14.617   1.639
83669SOL    HW252905   7.899  14.728   1.734
83670SOL     OW52906   3.436   3.434  13.510
83670SOL    HW152907   3.384   3.362  13.476
83670SOL    HW252908   3.408   3.443  13.601
83671SOL     OW52909   4.508  14.095   7.479
83671SOL    HW152910   4.520  14.166   7.416
83671SOL    HW252911   4.530  14.134   7.564
83672SOL     OW52912   5.384   5.922   0.007
83672SOL    HW152913   5.291   5.923   0.032
83672SOL    HW252914   5.426   5.980   0.071
83673SOL     OW52915  13.607   6.345   4.585
83673SOL    HW152916  13.662   6.378   4.656
83673SOL    HW252917  13.553   6.420   4.560
83674SOL     OW52918  13.300   7.511  11.932
83674SOL    HW152919  13.323   7.520  11.839
83674SOL    HW252920  13.358   7.572  11.977
83675SOL     OW52921   0.326  11.422  14.581
83675SOL    HW152922   0.334  11.340  14.532
83675SOL    HW252923   0.350  11.490  14.518
83676SOL     OW52924   4.625  11.507  11.860
83676SOL    HW152925   4.666  11.443  11.801
83676SOL    HW252926   4.572  11.453  11.919
83677SOL     OW52927  10.612  14.479  11.597
83677SOL    HW152928  10.639  14.458  11.687
83677SOL    HW252929  10.544  14.546  11.607
83678SOL     OW52930   5.329   5.983  13.622
83678SOL    HW152931   5.340   6.001  13.529
83678SOL    HW252932   5.344   6.067  13.665
83679SOL     OW52933   7.547   9.378  13.188
83679SOL    HW152934   7.530   9.308  13.251
83679SOL    HW252935   7.467   9.380  13.135
83680SOL     OW52936   5.775   1.538  11.533
83680SOL    HW152937   5.694   1.587  11.550
83680SOL    HW252938   5.785   1.540  11.438
83681SOL     OW52939   2.113   7.159   6.893
83681SOL    HW152940   2.053   7.234   6.895
83681SOL    HW252941   2.110   7.129   6.802
83682SOL     OW52942   8.960   2.853   6.153
83682SOL    HW152943   8.909   2.800   6.092
83682SOL    HW252944   8.984   2.930   6.102
83683SOL     OW52945   1.364   5.983   4.437
83683SOL    HW152946   1.315   5.938   4.369
83683SOL    HW252947   1.453   5.951   4.428
83684SOL     OW52948   1.682  13.859  14.692
83684SOL    HW152949   1.726  13.894  14.614
83684SOL    HW252950   1.663  13.937  14.745
83685SOL     OW52951  12.844   3.163   7.165
83685SOL    HW152952  12.903   3.105   7.116
83685SOL    HW252953  12.775   3.185   7.103
83686SOL     OW52954  14.166   8.757   2.420
83686SOL    HW152955  14.167   8.663   2.440
83686SOL    HW252956  14.109   8.764   2.343
83687SOL     OW52957   5.042   0.839  14.721
83687SOL    HW152958   5.078   0.758  14.757
83687SOL    HW252959   5.039   0.899  14.796
83688SOL     OW52960  11.285   8.681   3.709
83688SOL    HW152961  11.363   8.626   3.703
83688SOL    HW252962  11.283   8.729   3.626
83689SOL     OW52963   6.562  14.147   4.621
83689SOL    HW152964   6.526  14.195   4.547
83689SOL    HW252965   6.523  14.188   4.698
83690SOL     OW52966  13.108   4.059   3.949
83690SOL    HW152967  13.125   4.153   3.937
83690SOL    HW252968  13.014   4.049   3.936
83691SOL     OW52969  11.082  12.658   2.414
83691SOL    HW152970  11.161  12.712   2.411
83691SOL    HW252971  11.042  12.669   2.328
83692SOL     OW52972   9.947   7.069   8.411
83692SOL    HW152973   9.988   7.085   8.326
83692SOL    HW252974   9.918   6.978   8.408
83693SOL     OW52975   9.410  12.717   3.242
83693SOL    HW152976   9.458  12.695   3.162
83693SOL    HW252977   9.349  12.643   3.254
83694SOL     OW52978   8.328   2.064  13.630
83694SOL    HW152979   8.292   2.134  13.684
83694SOL    HW252980   8.419   2.056  13.659
83695SOL     OW52981   7.189   2.817   8.535
83695SOL    HW152982   7.268   2.827   8.480
83695SOL    HW252983   7.177   2.904   8.574
83696SOL     OW52984   4.488   3.674  14.082
83696SOL    HW152985   4.441   3.598  14.049
83696SOL    HW252986   4.579   3.646  14.088
83697SOL     OW52987   5.765   8.277   9.429
83697SOL    HW152988   5.819   8.342   9.473
83697SOL    HW252989   5.757   8.206   9.492
83698SOL     OW52990  10.981  10.537   9.211
83698SOL    HW152991  10.916  10.508   9.147
83698SOL    HW252992  10.956  10.494   9.293
83699SOL     OW52993  12.026  14.739  10.097
83699SOL    HW152994  12.009  14.832  10.079
83699SOL    HW252995  12.051  14.702  10.012
83700SOL     OW52996   5.316   6.079  10.031
83700SOL    HW152997   5.306   6.060   9.938
83700SOL    HW252998   5.285   6.000  10.075
83701SOL     OW52999   3.136  10.650   6.955
83701SOL    HW153000   3.175  10.564   6.941
83701SOL    HW253001   3.100  10.674   6.870
83702SOL     OW53002   8.289   1.333   6.071
83702SOL    HW153003   8.383   1.313   6.065
83702SOL    HW253004   8.252   1.260   6.119
83703SOL     OW53005   3.263   9.480   3.266
83703SOL    HW153006   3.306   9.408   3.220
83703SOL    HW253007   3.210   9.523   3.199
83704SOL     OW53008   5.560   2.555  10.958
83704SOL    HW153009   5.611   2.475  10.972
83704SOL    HW253010   5.618   2.626  10.984
83705SOL     OW53011  11.619  12.235   1.064
83705SOL    HW153012  11.530  12.226   1.097
83705SOL    HW253013  11.612  12.292   0.988
83706SOL     OW53014   5.386  14.860   0.953
83706SOL    HW153015   5.456  14.856   1.018
83706SOL    HW253016   5.343  14.775   0.960
83707SOL     OW53017  12.651   6.670   5.745
83707SOL    HW153018  12.684   6.692   5.658
83707SOL    HW253019  12.595   6.594   5.732
83708SOL     OW53020   1.580  10.664  13.154
83708SOL    HW153021   1.522  10.634  13.224
83708SOL    HW253022   1.666  10.675  13.196
83709SOL     OW53023   6.022   4.442  14.746
83709SOL    HW153024   6.031   4.377  14.676
83709SOL    HW253025   5.995   4.522  14.700
83710SOL     OW53026   0.692   1.035  13.387
83710SOL    HW153027   0.682   0.988  13.470
83710SOL    HW253028   0.699   0.965  13.322
83711SOL     OW53029  11.235   4.120   0.462
83711SOL    HW153030  11.252   4.212   0.481
83711SOL    HW253031  11.302   4.095   0.399
83712SOL     OW53032   1.840   6.432   5.045
83712SOL    HW153033   1.798   6.516   5.025
83712SOL    HW253034   1.769   6.368   5.036
83713SOL     OW53035  10.588   5.487   0.600
83713SOL    HW153036  10.668   5.445   0.631
83713SOL    HW253037  10.585   5.466   0.507
83714SOL     OW53038  13.201  12.594   7.312
83714SOL    HW153039  13.142  12.623   7.381
83714SOL    HW253040  13.182  12.653   7.238
83715SOL     OW53041  12.405   8.666   3.442
83715SOL    HW153042  12.384   8.757   3.424
83715SOL    HW253043  12.329   8.617   3.413
83716SOL     OW53044   3.655   6.593  10.501
83716SOL    HW153045   3.676   6.678  10.462
83716SOL    HW253046   3.734   6.568  10.549
83717SOL     OW53047  11.107   0.842   2.428
83717SOL    HW153048  11.197   0.816   2.409
83717SOL    HW253049  11.110   0.878   2.516
83718SOL     OW53050   8.092   7.115   6.331
83718SOL    HW153051   8.172   7.143   6.375
83718SOL    HW253052   8.023   7.126   6.396
83719SOL     OW53053   5.332   3.399   5.771
83719SOL    HW153054   5.272   3.465   5.807
83719SOL    HW253055   5.341   3.333   5.840
83720SOL     OW53056   3.459   4.477  12.767
83720SOL    HW153057   3.451   4.476  12.862
83720SOL    HW253058   3.539   4.426  12.749
83721SOL     OW53059   0.488  13.124   7.439
83721SOL    HW153060   0.540  13.199   7.468
83721SOL    HW253061   0.478  13.070   7.518
83722SOL     OW53062   0.662  10.855   4.415
83722SOL    HW153063   0.570  10.855   4.440
83722SOL    HW253064   0.663  10.885   4.324
83723SOL     OW53065  14.435  12.865  12.317
83723SOL    HW153066  14.418  12.786  12.369
83723SOL    HW253067  14.371  12.861  12.246
83724SOL     OW53068  14.205   8.511  13.007
83724SOL    HW153069  14.202   8.545  12.917
83724SOL    HW253070  14.158   8.575  13.059
83725SOL     OW53071   0.162  12.044  10.329
83725SOL    HW153072   0.157  12.133  10.293
83725SOL    HW253073   0.223  12.050  10.402
83726SOL     OW53074  12.572   9.551  14.072
83726SOL    HW153075  12.584   9.462  14.037
83726SOL    HW253076  12.480   9.571  14.055
83727SOL     OW53077   8.866   2.783   2.163
83727SOL    HW153078   8.844   2.752   2.251
83727SOL    HW253079   8.929   2.853   2.177
83728SOL     OW53080   0.472   1.854   4.861
83728SOL    HW153081   0.550   1.871   4.807
83728SOL    HW253082   0.423   1.789   4.812
83729SOL     OW53083   9.654   5.866   7.779
83729SOL    HW153084   9.582   5.853   7.717
83729SOL    HW253085   9.731   5.876   7.724
83730SOL     OW53086   2.806   8.874   0.039
83730SOL    HW153087   2.867   8.899   0.108
83730SOL    HW253088   2.746   8.948   0.031
83731SOL     OW53089   6.202  14.714  14.062
83731SOL    HW153090   6.240  14.677  13.983
83731SOL    HW253091   6.276  14.722  14.123
83732SOL     OW53092  12.603   7.040   8.707
83732SOL    HW153093  12.651   7.116   8.742
83732SOL    HW253094  12.672   6.977   8.684
83733SOL     OW53095   9.207  10.350  11.392
83733SOL    HW153096   9.185  10.439  11.417
83733SOL    HW253097   9.200  10.349  11.297
83734SOL     OW53098  10.069  11.258   4.289
83734SOL    HW153099  10.120  11.184   4.257
83734SOL    HW253100  10.021  11.289   4.213
83735SOL     OW53101   1.829   6.401   6.267
83735SOL    HW153102   1.916   6.412   6.230
83735SOL    HW253103   1.839   6.331   6.332
83736SOL     OW53104  14.463   0.561   4.431
83736SOL    HW153105  14.384   0.528   4.388
83736SOL    HW253106  14.434   0.641   4.475
83737SOL     OW53107   1.038  13.784   3.859
83737SOL    HW153108   0.983  13.722   3.811
83737SOL    HW253109   1.072  13.843   3.791
83738SOL     OW53110  11.651  10.443   2.198
83738SOL    HW153111  11.735  10.427   2.240
83738SOL    HW253112  11.602  10.495   2.262
83739SOL     OW53113   5.335  13.077   7.060
83739SOL    HW153114   5.401  13.026   7.014
83739SOL    HW253115   5.371  13.165   7.065
83740SOL     OW53116   4.950  14.658   8.356
83740SOL    HW153117   4.873  14.663   8.298
83740SOL    HW253118   4.913  14.649   8.444
83741SOL     OW53119   9.366  10.209  13.313
83741SOL    HW153120   9.309  10.211  13.236
83741SOL    HW253121   9.424  10.134  13.298
83742SOL     OW53122  13.525   5.879   9.525
83742SOL    HW153123  13.442   5.852   9.487
83742SOL    HW253124  13.504   5.956   9.577
83743SOL     OW53125   9.169  13.818   2.555
83743SOL    HW153126   9.165  13.860   2.469
83743SOL    HW253127   9.262  13.798   2.567
83744SOL     OW53128  10.195   4.770   8.212
83744SOL    HW153129  10.201   4.750   8.118
83744SOL    HW253130  10.243   4.852   8.222
83745SOL     OW53131   0.839  10.284   6.747
83745SOL    HW153132   0.746  10.262   6.751
83745SOL    HW253133   0.847  10.365   6.797
83746SOL     OW53134  10.074   8.904  11.183
83746SOL    HW153135  10.076   8.996  11.211
83746SOL    HW253136  10.155   8.893  11.133
83747SOL     OW53137   4.597  14.570   9.676
83747SOL    HW153138   4.588  14.640   9.612
83747SOL    HW253139   4.644  14.610   9.749
83748SOL     OW53140  14.386  13.365  13.043
83748SOL    HW153141  14.323  13.428  13.008
83748SOL    HW253142  14.380  13.375  13.138
83749SOL     OW53143   2.334  11.340   6.270
83749SOL    HW153144   2.334  11.248   6.295
83749SOL    HW253145   2.262  11.378   6.320
83750SOL     OW53146   1.428   3.916   3.069
83750SOL    HW153147   1.407   4.000   3.111
83750SOL    HW253148   1.473   3.866   3.138
83751SOL     OW53149  10.978  11.505  14.071
83751SOL    HW153150  11.009  11.414  14.075
83751SOL    HW253151  10.990  11.531  13.980
83752SOL     OW53152   3.980   6.999  10.021
83752SOL    HW153153   3.937   7.060   9.960
83752SOL    HW253154   4.055   7.047  10.054
83753SOL     OW53155   4.597  11.155   6.349
83753SOL    HW153156   4.676  11.125   6.304
83753SOL    HW253157   4.611  11.130   6.440
83754SOL     OW53158  13.924   7.623   9.716
83754SOL    HW153159  13.957   7.711   9.736
83754SOL    HW253160  13.981   7.565   9.766
83755SOL     OW53161   9.408   3.832   6.140
83755SOL    HW153162   9.407   3.879   6.056
83755SOL    HW253163   9.500   3.813   6.155
83756SOL     OW53164   9.447  11.717   4.439
83756SOL    HW153165   9.458  11.761   4.523
83756SOL    HW253166   9.530  11.671   4.425
83757SOL     OW53167  13.982  13.733  10.982
83757SOL    HW153168  14.023  13.730  11.069
83757SOL    HW253169  13.893  13.763  10.998
83758SOL     OW53170   7.291   4.177   7.383
83758SOL    HW153171   7.220   4.202   7.323
83758SOL    HW253172   7.370   4.209   7.341
83759SOL     OW53173   0.036   2.069  13.767
83759SOL    HW153174   0.046   2.011  13.842
83759SOL    HW253175   0.112   2.127  13.770
83760SOL     OW53176   5.537   8.454  13.313
83760SOL    HW153177   5.466   8.390  13.319
83760SOL    HW253178   5.594   8.433  13.387
83761SOL     OW53179   6.952   8.308   9.808
83761SOL    HW153180   6.979   8.338   9.721
83761SOL    HW253181   7.024   8.254   9.839
83762SOL     OW53182  10.036  14.129   8.010
83762SOL    HW153183  10.099  14.170   7.951
83762SOL    HW253184   9.985  14.071   7.952
83763SOL     OW53185   7.187  12.625  14.808
83763SOL    HW153186   7.101  12.664  14.823
83763SOL    HW253187   7.195  12.620  14.713
83764SOL     OW53188   1.702  13.297   4.106
83764SOL    HW153189   1.785  13.251   4.094
83764SOL    HW253190   1.662  13.298   4.019
83765SOL     OW53191  10.533   9.364  10.977
83765SOL    HW153192  10.561   9.420  10.905
83765SOL    HW253193  10.454   9.320  10.944
83766SOL     OW53194  14.501  14.583  11.493
83766SOL    HW153195  14.536  14.527  11.424
83766SOL    HW253196  14.523  14.672  11.464
83767SOL     OW53197   7.958   7.885   2.799
83767SOL    HW153198   8.025   7.910   2.862
83767SOL    HW253199   7.887   7.947   2.813
83768SOL     OW53200   5.444  12.678   4.199
83768SOL    HW153201   5.487  12.697   4.282
83768SOL    HW253202   5.490  12.733   4.135
83769SOL     OW53203  12.858   2.895   6.824
83769SOL    HW153204  12.839   2.834   6.753
83769SOL    HW253205  12.953   2.908   6.820
83770SOL     OW53206   8.534   5.815   6.434
83770SOL    HW153207   8.448   5.775   6.420
83770SOL    HW253208   8.519   5.880   6.503
83771SOL     OW53209   1.276  13.747  14.265
83771SOL    HW153210   1.354  13.720  14.217
83771SOL    HW253211   1.203  13.721  14.210
83772SOL     OW53212   4.850   3.299  13.223
83772SOL    HW153213   4.818   3.210  13.238
83772SOL    HW253214   4.916   3.289  13.155
83773SOL     OW53215   2.595   0.524   5.171
83773SOL    HW153216   2.661   0.585   5.140
83773SOL    HW253217   2.554   0.568   5.246
83774SOL     OW53218  12.605   1.352   4.677
83774SOL    HW153219  12.551   1.372   4.753
83774SOL    HW253220  12.682   1.307   4.714
83775SOL     OW53221  13.812  11.342  11.540
83775SOL    HW153222  13.810  11.319  11.447
83775SOL    HW253223  13.780  11.432  11.544
83776SOL     OW53224  12.395   6.612   2.746
83776SOL    HW153225  12.460   6.559   2.699
83776SOL    HW253226  12.341   6.649   2.677
83777SOL     OW53227   9.118  10.311   7.057
83777SOL    HW153228   9.132  10.220   7.032
83777SOL    HW253229   9.110  10.358   6.974
83778SOL     OW53230  11.781   6.345   3.078
83778SOL    HW153231  11.714   6.283   3.050
83778SOL    HW253232  11.847   6.292   3.122
83779SOL     OW53233   5.870   6.058  14.403
83779SOL    HW153234   5.927   5.982  14.393
83779SOL    HW253235   5.810   6.053  14.328
83780SOL     OW53236  10.836   6.418   4.847
83780SOL    HW153237  10.889   6.360   4.902
83780SOL    HW253238  10.831   6.372   4.763
83781SOL     OW53239   4.419   7.604   9.647
83781SOL    HW153240   4.357   7.531   9.641
83781SOL    HW253241   4.496   7.566   9.689
83782SOL     OW53242   4.213  11.967  10.849
83782SOL    HW153243   4.278  11.913  10.893
83782SOL    HW253244   4.254  12.053  10.842
83783SOL     OW53245   0.949  11.826  10.916
83783SOL    HW153246   0.900  11.885  10.973
83783SOL    HW253247   0.997  11.884  10.857
83784SOL     OW53248  14.204   4.120   7.782
83784SOL    HW153249  14.187   4.143   7.873
83784SOL    HW253250  14.265   4.186   7.750
83785SOL     OW53251  11.583   3.661   8.476
83785SOL    HW153252  11.488   3.662   8.481
83785SOL    HW253253  11.610   3.594   8.539
83786SOL     OW53254   1.660  10.768   3.951
83786SOL    HW153255   1.711  10.800   4.026
83786SOL    HW253256   1.642  10.677   3.972
83787SOL     OW53257  14.503  11.080   0.831
83787SOL    HW153258  14.504  11.152   0.769
83787SOL    HW253259  14.443  11.108   0.901
83788SOL     OW53260   5.161  14.013  11.763
83788SOL    HW153261   5.124  14.088  11.716
83788SOL    HW253262   5.101  13.941  11.745
83789SOL     OW53263   3.622  11.742   0.082
83789SOL    HW153264   3.680  11.802   0.037
83789SOL    HW253265   3.667  11.721   0.164
83790SOL     OW53266  11.016   2.564   2.315
83790SOL    HW153267  10.986   2.521   2.235
83790SOL    HW253268  10.960   2.529   2.384
83791SOL     OW53269  12.466   0.704   4.086
83791SOL    HW153270  12.419   0.760   4.025
83791SOL    HW253271  12.465   0.617   4.045
83792SOL     OW53272   4.812  14.450   5.957
83792SOL    HW153273   4.893  14.466   6.005
83792SOL    HW253274   4.778  14.538   5.938
83793SOL     OW53275   3.548  10.069  11.118
83793SOL    HW153276   3.549  10.119  11.037
83793SOL    HW253277   3.623  10.010  11.111
83794SOL     OW53278   5.873   0.436  10.007
83794SOL    HW153279   5.945   0.474   9.956
83794SOL    HW253280   5.913   0.365  10.056
83795SOL     OW53281  10.451   0.883  10.953
83795SOL    HW153282  10.430   0.886  10.859
83795SOL    HW253283  10.542   0.853  10.956
83796SOL     OW53284   6.909   5.775   9.788
83796SOL    HW153285   6.870   5.752   9.873
83796SOL    HW253286   6.869   5.714   9.726
83797SOL     OW53287  13.095   6.777  11.282
83797SOL    HW153288  13.155   6.709  11.253
83797SOL    HW253289  13.140   6.859  11.263
83798SOL     OW53290   4.053  14.674   2.570
83798SOL    HW153291   3.980  14.722   2.530
83798SOL    HW253292   4.089  14.621   2.499
83799SOL     OW53293   6.255   7.796   9.814
83799SOL    HW153294   6.182   7.742   9.784
83799SOL    HW253295   6.225   7.886   9.802
83800SOL     OW53296   1.913   6.962   4.747
83800SOL    HW153297   2.002   6.928   4.738
83800SOL    HW253298   1.917   7.051   4.712
83801SOL     OW53299  11.043   2.407   7.683
83801SOL    HW153300  11.132   2.422   7.651
83801SOL    HW253301  11.024   2.317   7.657
83802SOL     OW53302   2.876   5.237   4.178
83802SOL    HW153303   2.916   5.314   4.137
83802SOL    HW253304   2.950   5.187   4.213
83803SOL     OW53305   4.918   2.441  12.652
83803SOL    HW153306   4.978   2.473  12.585
83803SOL    HW253307   4.832   2.468  12.622
83804SOL     OW53308  12.141  13.391   2.328
83804SOL    HW153309  12.209  13.408   2.394
83804SOL    HW253310  12.137  13.296   2.322
83805SOL     OW53311   4.399   7.328   6.066
83805SOL    HW153312   4.477   7.294   6.109
83805SOL    HW253313   4.340   7.252   6.061
83806SOL     OW53314  10.180   5.128   1.744
83806SOL    HW153315  10.166   5.041   1.781
83806SOL    HW253316  10.273   5.146   1.759
83807SOL     OW53317   4.260   1.710   8.852
83807SOL    HW153318   4.216   1.724   8.768
83807SOL    HW253319   4.353   1.722   8.833
83808SOL     OW53320   6.639   7.908   7.244
83808SOL    HW153321   6.689   7.944   7.171
83808SOL    HW253322   6.701   7.852   7.290
83809SOL     OW53323  10.712  12.603   2.738
83809SOL    HW153324  10.696  12.631   2.829
83809SOL    HW253325  10.635  12.552   2.715
83810SOL     OW53326  10.901   5.249   2.160
83810SOL    HW153327  10.830   5.295   2.205
83810SOL    HW253328  10.867   5.235   2.071
83811SOL     OW53329  10.807  12.008   0.858
83811SOL    HW153330  10.773  12.062   0.786
83811SOL    HW253331  10.892  11.978   0.827
83812SOL     OW53332   1.399   6.358   3.725
83812SOL    HW153333   1.371   6.444   3.692
83812SOL    HW253334   1.436   6.377   3.811
83813SOL     OW53335  10.652   7.471   6.599
83813SOL    HW153336  10.661   7.487   6.693
83813SOL    HW253337  10.643   7.558   6.560
83814SOL     OW53338  13.026   3.330   5.548
83814SOL    HW153339  13.119   3.324   5.571
83814SOL    HW253340  12.989   3.247   5.575
83815SOL     OW53341  12.028   5.628  10.468
83815SOL    HW153342  12.005   5.538  10.492
83815SOL    HW253343  12.102   5.649  10.524
83816SOL     OW53344   0.777   7.639   8.755
83816SOL    HW153345   0.711   7.707   8.768
83816SOL    HW253346   0.753   7.597   8.673
83817SOL     OW53347   4.816   9.176   1.299
83817SOL    HW153348   4.865   9.111   1.351
83817SOL    HW253349   4.725   9.145   1.302
83818SOL     OW53350   0.939   0.744   7.728
83818SOL    HW153351   0.971   0.775   7.813
83818SOL    HW253352   0.860   0.695   7.749
83819SOL     OW53353   6.621  14.241   3.977
83819SOL    HW153354   6.686  14.171   3.973
83819SOL    HW253355   6.584  14.234   4.065
83820SOL     OW53356   6.232   1.417   3.992
83820SOL    HW153357   6.250   1.505   4.025
83820SOL    HW253358   6.229   1.427   3.897
83821SOL     OW53359  10.327   3.722   8.200
83821SOL    HW153360  10.339   3.814   8.178
83821SOL    HW253361  10.245   3.697   8.157
83822SOL     OW53362   5.587  12.344   8.349
83822SOL    HW153363   5.500  12.358   8.311
83822SOL    HW253364   5.601  12.419   8.406
83823SOL     OW53365  12.834  14.527   2.126
83823SOL    HW153366  12.834  14.436   2.094
83823SOL    HW253367  12.850  14.580   2.048
83824SOL     OW53368   7.510   5.493   8.274
83824SOL    HW153369   7.485   5.413   8.318
83824SOL    HW253370   7.544   5.550   8.343
83825SOL     OW53371  11.954   8.347  12.011
83825SOL    HW153372  11.864   8.377  12.022
83825SOL    HW253373  11.949   8.252  12.020
83826SOL     OW53374  14.187   0.150  13.338
83826SOL    HW153375  14.131   0.176  13.412
83826SOL    HW253376  14.160   0.208  13.267
83827SOL     OW53377   0.622   9.087   6.910
83827SOL    HW153378   0.624   9.061   7.002
83827SOL    HW253379   0.666   9.016   6.864
83828SOL     OW53380   9.434   6.067  13.058
83828SOL    HW153381   9.455   6.020  12.977
83828SOL    HW253382   9.468   6.155  13.045
83829SOL     OW53383   1.321   6.955   7.436
83829SOL    HW153384   1.368   6.964   7.353
83829SOL    HW253385   1.358   6.876   7.476
83830SOL     OW53386   0.197   3.652   5.614
83830SOL    HW153387   0.185   3.562   5.645
83830SOL    HW253388   0.226   3.700   5.692
83831SOL     OW53389  11.359  11.502   8.465
83831SOL    HW153390  11.366  11.494   8.370
83831SOL    HW253391  11.291  11.440   8.490
83832SOL     OW53392   4.411  12.151  12.944
83832SOL    HW153393   4.469  12.179  13.015
83832SOL    HW253394   4.465  12.158  12.865
83833SOL     OW53395   8.214  10.557   0.324
83833SOL    HW153396   8.223  10.623   0.394
83833SOL    HW253397   8.302  10.524   0.311
83834SOL     OW53398  12.063   9.633   0.323
83834SOL    HW153399  12.044   9.710   0.377
83834SOL    HW253400  12.142   9.596   0.363
83835SOL     OW53401   0.533   4.251   5.261
83835SOL    HW153402   0.500   4.166   5.289
83835SOL    HW253403   0.476   4.276   5.187
83836SOL     OW53404  12.398   7.398   0.123
83836SOL    HW153405  12.484   7.373   0.154
83836SOL    HW253406  12.360   7.317   0.089
83837SOL     OW53407   7.628   1.681   8.047
83837SOL    HW153408   7.575   1.757   8.022
83837SOL    HW253409   7.596   1.656   8.134
83838SOL     OW53410   1.514   6.939   0.780
83838SOL    HW153411   1.480   6.911   0.695
83838SOL    HW253412   1.595   6.889   0.791
83839SOL     OW53413   8.960   8.366   3.218
83839SOL    HW153414   8.983   8.369   3.311
83839SOL    HW253415   8.885   8.306   3.214
83840SOL     OW53416   9.884  11.536   7.947
83840SOL    HW153417   9.887  11.462   8.008
83840SOL    HW253418   9.919  11.501   7.865
83841SOL     OW53419   0.946   4.845   7.885
83841SOL    HW153420   1.005   4.886   7.948
83841SOL    HW253421   1.003   4.785   7.835
83842SOL     OW53422   1.252   5.895   9.094
83842SOL    HW153423   1.292   5.980   9.075
83842SOL    HW253424   1.320   5.831   9.074
83843SOL     OW53425   8.184  14.386   7.930
83843SOL    HW153426   8.106  14.406   7.878
83843SOL    HW253427   8.237  14.331   7.873
83844SOL     OW53428   8.131  14.611   5.012
83844SOL    HW153429   8.055  14.654   4.972
83844SOL    HW253430   8.169  14.558   4.942
83845SOL     OW53431   4.861   9.633   4.655
83845SOL    HW153432   4.892   9.596   4.738
83845SOL    HW253433   4.807   9.565   4.617
83846SOL     OW53434   7.402  10.210   9.421
83846SOL    HW153435   7.494  10.202   9.446
83846SOL    HW253436   7.371  10.287   9.468
83847SOL     OW53437  12.711  12.402  10.917
83847SOL    HW153438  12.699  12.469  10.849
83847SOL    HW253439  12.684  12.445  10.998
83848SOL     OW53440   1.349   0.740   4.792
83848SOL    HW153441   1.351   0.726   4.697
83848SOL    HW253442   1.263   0.779   4.808
83849SOL     OW53443   2.567  10.010   1.965
83849SOL    HW153444   2.578   9.929   2.014
83849SOL    HW253445   2.583  10.080   2.028
83850SOL     OW53446   9.959   0.139   4.447
83850SOL    HW153447   9.892   0.133   4.379
83850SOL    HW253448   9.967   0.049   4.479
83851SOL     OW53449   3.144   2.241   1.518
83851SOL    HW153450   3.100   2.219   1.436
83851SOL    HW253451   3.141   2.336   1.522
83852SOL     OW53452   7.249  14.815   0.556
83852SOL    HW153453   7.179  14.853   0.503
83852SOL    HW253454   7.298   0.008   0.589
83853SOL     OW53455   6.822   6.695   0.384
83853SOL    HW153456   6.839   6.788   0.367
83853SOL    HW253457   6.877   6.649   0.322
83854SOL     OW53458   4.653   9.127  14.799
83854SOL    HW153459   4.715   9.092  14.863
83854SOL    HW253460   4.689   9.214  14.778
83855SOL     OW53461   6.632   6.816  10.346
83855SOL    HW153462   6.563   6.750  10.350
83855SOL    HW253463   6.588   6.899  10.368
83856SOL     OW53464   5.665   7.107  12.054
83856SOL    HW153465   5.694   7.169  12.120
83856SOL    HW253466   5.645   7.160  11.977
83857SOL     OW53467   5.528   3.969   1.449
83857SOL    HW153468   5.509   3.921   1.369
83857SOL    HW253469   5.456   4.031   1.458
83858SOL     OW53470   5.361   3.005   8.077
83858SOL    HW153471   5.413   2.954   8.138
83858SOL    HW253472   5.325   3.076   8.130
83859SOL     OW53473   7.876   8.451  10.942
83859SOL    HW153474   7.971   8.459  10.945
83859SOL    HW253475   7.844   8.515  11.006
83860SOL     OW53476   9.257   9.038  12.506
83860SOL    HW153477   9.169   9.016  12.537
83860SOL    HW253478   9.302   9.074  12.582
83861SOL     OW53479   2.567   0.524   2.432
83861SOL    HW153480   2.656   0.488   2.432
83861SOL    HW253481   2.575   0.604   2.380
83862SOL     OW53482  14.376   5.566   0.355
83862SOL    HW153483  14.361   5.508   0.430
83862SOL    HW253484  14.353   5.513   0.278
83863SOL     OW53485  13.904   4.435  10.615
83863SOL    HW153486  13.833   4.491  10.583
83863SOL    HW253487  13.868   4.394  10.694
83864SOL     OW53488  12.776   3.845   1.869
83864SOL    HW153489  12.744   3.776   1.811
83864SOL    HW253490  12.833   3.799   1.931
83865SOL     OW53491   7.895   0.245   3.472
83865SOL    HW153492   7.827   0.251   3.539
83865SOL    HW253493   7.855   0.282   3.394
83866SOL     OW53494   4.722   9.482  11.828
83866SOL    HW153495   4.727   9.528  11.744
83866SOL    HW253496   4.732   9.551  11.894
83867SOL     OW53497   0.522   9.492  14.861
83867SOL    HW153498   0.497   9.553   0.049
83867SOL    HW253499   0.599   9.446   0.014
83868SOL     OW53500   4.527   1.445   2.578
83868SOL    HW153501   4.453   1.505   2.569
83868SOL    HW253502   4.528   1.395   2.497
83869SOL     OW53503   1.107  12.804   6.495
83869SOL    HW153504   1.126  12.728   6.549
83869SOL    HW253505   1.138  12.879   6.546
83870SOL     OW53506   1.664  14.400   9.836
83870SOL    HW153507   1.597  14.433   9.775
83870SOL    HW253508   1.731  14.363   9.779
83871SOL     OW53509  12.022   3.294   6.215
83871SOL    HW153510  12.098   3.332   6.259
83871SOL    HW253511  12.035   3.199   6.222
83872SOL     OW53512   9.186  10.671  14.541
83872SOL    HW153513   9.179  10.582  14.508
83872SOL    HW253514   9.267  10.705  14.504
83873SOL     OW53515   2.704   4.548   5.510
83873SOL    HW153516   2.680   4.513   5.596
83873SOL    HW253517   2.624   4.591   5.479
83874SOL     OW53518   4.577   0.517  12.184
83874SOL    HW153519   4.623   0.560  12.256
83874SOL    HW253520   4.604   0.425  12.190
83875SOL     OW53521  11.250   0.238   4.648
83875SOL    HW153522  11.270   0.261   4.558
83875SOL    HW253523  11.162   0.201   4.645
83876SOL     OW53524   3.636  11.435   2.981
83876SOL    HW153525   3.541  11.425   2.994
83876SOL    HW253526   3.653  11.527   3.002
83877SOL     OW53527   4.441   8.244   9.030
83877SOL    HW153528   4.363   8.193   9.007
83877SOL    HW253529   4.407   8.329   9.058
83878SOL     OW53530  10.424  11.141   7.231
83878SOL    HW153531  10.440  11.138   7.325
83878SOL    HW253532  10.494  11.196   7.196
83879SOL     OW53533  13.617  11.574   0.715
83879SOL    HW153534  13.664  11.630   0.655
83879SOL    HW253535  13.526  11.602   0.708
83880SOL     OW53536   5.553   9.663  12.945
83880SOL    HW153537   5.481   9.663  12.882
83880SOL    HW253538   5.578   9.571  12.954
83881SOL     OW53539  11.437  12.798  14.656
83881SOL    HW153540  11.420  12.855  14.731
83881SOL    HW253541  11.350  12.771  14.627
83882SOL     OW53542   6.551  14.192   7.112
83882SOL    HW153543   6.497  14.255   7.159
83882SOL    HW253544   6.541  14.110   7.160
83883SOL     OW53545   3.387   8.820  11.504
83883SOL    HW153546   3.456   8.873  11.543
83883SOL    HW253547   3.376   8.746  11.564
83884SOL     OW53548   1.040   2.322   3.005
83884SOL    HW153549   0.968   2.295   2.947
83884SOL    HW253550   1.015   2.289   3.091
83885SOL     OW53551   5.501   7.584  13.267
83885SOL    HW153552   5.463   7.531  13.337
83885SOL    HW253553   5.447   7.567  13.190
83886SOL     OW53554   1.932   4.691  13.242
83886SOL    HW153555   1.865   4.752  13.274
83886SOL    HW253556   1.967   4.734  13.164
83887SOL     OW53557   1.294   3.430   7.779
83887SOL    HW153558   1.243   3.417   7.699
83887SOL    HW253559   1.292   3.525   7.793
83888SOL     OW53560   7.870   9.122  11.245
83888SOL    HW153561   7.881   9.052  11.310
83888SOL    HW253562   7.792   9.096  11.195
83889SOL     OW53563   5.801   3.060   7.459
83889SOL    HW153564   5.719   3.046   7.506
83889SOL    HW253565   5.802   2.991   7.393
83890SOL     OW53566   4.049  10.024  10.142
83890SOL    HW153567   4.098   9.954  10.099
83890SOL    HW253568   4.031  10.087  10.072
83891SOL     OW53569  12.575   8.464   3.324
83891SOL    HW153570  12.615   8.524   3.261
83891SOL    HW253571  12.497   8.510   3.354
83892SOL     OW53572   9.721   1.390   9.076
83892SOL    HW153573   9.630   1.400   9.047
83892SOL    HW253574   9.761   1.475   9.060
83893SOL     OW53575   1.208   9.903   0.702
83893SOL    HW153576   1.189   9.921   0.794
83893SOL    HW253577   1.238   9.813   0.702
83894SOL     OW53578  10.956   8.405  12.564
83894SOL    HW153579  10.977   8.497  12.549
83894SOL    HW253580  10.948   8.396  12.659
83895SOL     OW53581  14.809  14.186  14.668
83895SOL    HW153582  14.853  14.161  14.587
83895SOL    HW253583  14.880  14.198  14.732
83896SOL     OW53584   4.203   4.265   7.741
83896SOL    HW153585   4.167   4.247   7.654
83896SOL    HW253586   4.144   4.331   7.778
83897SOL     OW53587  13.316   4.594   7.148
83897SOL    HW153588  13.399   4.547   7.139
83897SOL    HW253589  13.292   4.583   7.240
83898SOL     OW53590   8.594   2.742   1.111
83898SOL    HW153591   8.634   2.775   1.192
83898SOL    HW253592   8.566   2.653   1.133
83899SOL     OW53593   6.191   0.126   5.614
83899SOL    HW153594   6.202   0.037   5.582
83899SOL    HW253595   6.096   0.140   5.614
83900SOL     OW53596   6.382   6.664  14.501
83900SOL    HW153597   6.337   6.617  14.431
83900SOL    HW253598   6.315   6.722  14.538
83901SOL     OW53599   4.548  10.234  10.695
83901SOL    HW153600   4.477  10.174  10.715
83901SOL    HW253601   4.514  10.320  10.719
83902SOL     OW53602  11.980   4.927  10.709
83902SOL    HW153603  11.975   4.996  10.642
83902SOL    HW253604  12.013   4.972  10.786
83903SOL     OW53605  10.756   5.298  10.982
83903SOL    HW153606  10.704   5.219  10.990
83903SOL    HW253607  10.791   5.314  11.070
83904SOL     OW53608   8.126   0.538   5.115
83904SOL    HW153609   8.166   0.606   5.168
83904SOL    HW253610   8.194   0.513   5.052
83905SOL     OW53611  11.879   4.233   5.434
83905SOL    HW153612  11.951   4.289   5.462
83905SOL    HW253613  11.802   4.289   5.436
83906SOL     OW53614  10.964   8.535   0.367
83906SOL    HW153615  10.876   8.525   0.403
83906SOL    HW253616  10.961   8.495   0.280
83907SOL     OW53617   5.920   3.660   7.065
83907SOL    HW153618   6.007   3.656   7.104
83907SOL    HW253619   5.888   3.570   7.068
83908SOL     OW53620   6.122   5.200  13.594
83908SOL    HW153621   6.131   5.185  13.500
83908SOL    HW253622   6.143   5.293  13.606
83909SOL     OW53623   5.330   1.482  14.682
83909SOL    HW153624   5.256   1.452  14.736
83909SOL    HW253625   5.348   1.409  14.623
83910SOL     OW53626  11.995   8.995   5.379
83910SOL    HW153627  11.955   9.082   5.387
83910SOL    HW253628  11.923   8.934   5.395
83911SOL     OW53629   6.585  11.328   6.132
83911SOL    HW153630   6.619  11.391   6.070
83911SOL    HW253631   6.508  11.370   6.170
83912SOL     OW53632   1.153  11.291  12.143
83912SOL    HW153633   1.122  11.243  12.066
83912SOL    HW253634   1.222  11.348  12.109
83913SOL     OW53635   1.565   6.543   9.134
83913SOL    HW153636   1.646   6.593   9.147
83913SOL    HW253637   1.496   6.602   9.163
83914SOL     OW53638   8.429  13.134  14.730
83914SOL    HW153639   8.369  13.070  14.692
83914SOL    HW253640   8.497  13.081  14.771
83915SOL     OW53641  12.306  12.449  14.766
83915SOL    HW153642  12.339  12.382  14.826
83915SOL    HW253643  12.260  12.511  14.823
83916SOL     OW53644   2.672   5.795  11.857
83916SOL    HW153645   2.693   5.869  11.914
83916SOL    HW253646   2.736   5.728  11.880
83917SOL     OW53647  11.890   5.323   6.522
83917SOL    HW153648  11.901   5.312   6.428
83917SOL    HW253649  11.837   5.402   6.531
83918SOL     OW53650   6.930   6.583   6.751
83918SOL    HW153651   6.968   6.519   6.690
83918SOL    HW253652   7.006   6.627   6.789
83919SOL     OW53653  12.544   5.340   7.942
83919SOL    HW153654  12.530   5.415   8.000
83919SOL    HW253655  12.461   5.292   7.945
83920SOL     OW53656   9.472  12.083   1.721
83920SOL    HW153657   9.387  12.127   1.719
83920SOL    HW253658   9.499  12.088   1.813
83921SOL     OW53659  14.391  13.600  13.515
83921SOL    HW153660  14.385  13.640  13.602
83921SOL    HW253661  14.458  13.532  13.524
83922SOL     OW53662   5.616   1.761  11.596
83922SOL    HW153663   5.544   1.823  11.603
83922SOL    HW253664   5.684   1.797  11.652
83923SOL     OW53665   8.434  12.428   8.019
83923SOL    HW153666   8.456  12.339   7.993
83923SOL    HW253667   8.396  12.467   7.941
83924SOL     OW53668  14.154   8.327   5.418
83924SOL    HW153669  14.109   8.287   5.344
83924SOL    HW253670  14.135   8.421   5.410
83925SOL     OW53671   0.659   2.567   5.183
83925SOL    HW153672   0.646   2.662   5.181
83925SOL    HW253673   0.748   2.554   5.153
83926SOL     OW53674  12.973  13.875   8.870
83926SOL    HW153675  12.913  13.835   8.807
83926SOL    HW253676  13.056  13.880   8.823
83927SOL     OW53677   4.318   7.465   0.683
83927SOL    HW153678   4.309   7.437   0.592
83927SOL    HW253679   4.411   7.484   0.693
83928SOL     OW53680   5.128   3.982  13.629
83928SOL    HW153681   5.038   3.980  13.598
83928SOL    HW253682   5.167   3.901  13.594
83929SOL     OW53683   9.650   3.250   9.709
83929SOL    HW153684   9.599   3.294   9.641
83929SOL    HW253685   9.702   3.320   9.749
83930SOL     OW53686  14.750   1.805   9.551
83930SOL    HW153687  14.667   1.760   9.538
83930SOL    HW253688  14.744   1.883   9.495
83931SOL     OW53689   5.752   7.767   7.578
83931SOL    HW153690   5.729   7.717   7.500
83931SOL    HW253691   5.669   7.777   7.624
83932SOL     OW53692   7.604   7.522   1.439
83932SOL    HW153693   7.621   7.616   1.435
83932SOL    HW253694   7.519   7.514   1.483
83933SOL     OW53695   6.128   0.348   3.950
83933SOL    HW153696   6.051   0.389   3.990
83933SOL    HW253697   6.194   0.417   3.949
83934SOL     OW53698   4.094   1.624  13.362
83934SOL    HW153699   4.010   1.590  13.332
83934SOL    HW253700   4.075   1.670  13.443
83935SOL     OW53701  11.504  13.380   7.953
83935SOL    HW153702  11.454  13.391   7.873
83935SOL    HW253703  11.588  13.422   7.935
83936SOL     OW53704   7.327  12.169  12.496
83936SOL    HW153705   7.307  12.226  12.571
83936SOL    HW253706   7.310  12.224  12.419
83937SOL     OW53707   4.630   4.598  12.244
83937SOL    HW153708   4.652   4.684  12.206
83937SOL    HW253709   4.617   4.541  12.168
83938SOL     OW53710  10.199   4.526   2.715
83938SOL    HW153711  10.286   4.563   2.702
83938SOL    HW253712  10.211   4.461   2.784
83939SOL     OW53713   7.129  12.392   1.501
83939SOL    HW153714   7.131  12.487   1.508
83939SOL    HW253715   7.124  12.361   1.592
83940SOL     OW53716   5.975   4.713  12.099
83940SOL    HW153717   5.971   4.808  12.089
83940SOL    HW253718   6.031   4.699  12.175
83941SOL     OW53719   3.165  12.085  12.652
83941SOL    HW153720   3.159  12.005  12.599
83941SOL    HW253721   3.114  12.150  12.602
83942SOL     OW53722   4.316  11.592  10.485
83942SOL    HW153723   4.303  11.570  10.577
83942SOL    HW253724   4.367  11.519  10.450
83943SOL     OW53725  10.213   1.048   6.319
83943SOL    HW153726  10.274   1.047   6.392
83943SOL    HW253727  10.128   1.068   6.359
83944SOL     OW53728  13.804   9.164  12.350
83944SOL    HW153729  13.882   9.169  12.294
83944SOL    HW253730  13.789   9.254  12.378
83945SOL     OW53731   3.521   4.789   3.022
83945SOL    HW153732   3.549   4.833   3.102
83945SOL    HW253733   3.512   4.697   3.048
83946SOL     OW53734  14.598  14.503  11.253
83946SOL    HW153735  14.685  14.537  11.232
83946SOL    HW253736  14.539  14.550  11.194
83947SOL     OW53737  14.089   5.751   1.620
83947SOL    HW153738  14.053   5.669   1.655
83947SOL    HW253739  14.137   5.789   1.693
83948SOL     OW53740  14.198  12.065   6.380
83948SOL    HW153741  14.171  12.032   6.466
83948SOL    HW253742  14.206  11.987   6.326
83949SOL     OW53743   4.643   5.557   5.822
83949SOL    HW153744   4.691   5.581   5.743
83949SOL    HW253745   4.568   5.507   5.790
83950SOL     OW53746  11.850   4.737   8.215
83950SOL    HW153747  11.872   4.689   8.135
83950SOL    HW253748  11.864   4.829   8.192
83951SOL     OW53749   7.400  14.619   6.766
83951SOL    HW153750   7.422  14.705   6.732
83951SOL    HW253751   7.350  14.637   6.846
83952SOL     OW53752   4.033   4.375   9.926
83952SOL    HW153753   4.001   4.295   9.968
83952SOL    HW253754   4.021   4.443   9.992
83953SOL     OW53755  12.405   4.170   8.695
83953SOL    HW153756  12.433   4.216   8.616
83953SOL    HW253757  12.309   4.168   8.689
83954SOL     OW53758   6.253  11.076   9.601
83954SOL    HW153759   6.177  11.106   9.550
83954SOL    HW253760   6.323  11.137   9.578
83955SOL     OW53761   3.222   3.404   7.496
83955SOL    HW153762   3.265   3.435   7.416
83955SOL    HW253763   3.290   3.409   7.563
83956SOL     OW53764   2.007  10.755  13.813
83956SOL    HW153765   2.023  10.829  13.754
83956SOL    HW253766   1.921  10.722  13.786
83957SOL     OW53767   9.861  14.423  12.722
83957SOL    HW153768   9.868  14.390  12.633
83957SOL    HW253769   9.880  14.348  12.777
83958SOL     OW53770   4.568   6.597   2.819
83958SOL    HW153771   4.639   6.551   2.864
83958SOL    HW253772   4.567   6.559   2.732
83959SOL     OW53773  10.534   5.663   8.871
83959SOL    HW153774  10.553   5.570   8.886
83959SOL    HW253775  10.439   5.670   8.882
83960SOL     OW53776   0.856   8.922   3.581
83960SOL    HW153777   0.841   8.827   3.578
83960SOL    HW253778   0.776   8.957   3.621
83961SOL     OW53779   2.593   6.610   6.508
83961SOL    HW153780   2.586   6.575   6.597
83961SOL    HW253781   2.653   6.684   6.517
83962SOL     OW53782   4.389   6.578   4.614
83962SOL    HW153783   4.354   6.668   4.614
83962SOL    HW253784   4.467   6.583   4.670
83963SOL     OW53785   0.567   1.087   4.587
83963SOL    HW153786   0.574   1.007   4.638
83963SOL    HW253787   0.572   1.057   4.496
83964SOL     OW53788   4.021   4.488   3.387
83964SOL    HW153789   4.090   4.535   3.341
83964SOL    HW253790   4.028   4.518   3.478
83965SOL     OW53791   1.547  11.886   3.223
83965SOL    HW153792   1.560  11.800   3.184
83965SOL    HW253793   1.573  11.875   3.314
83966SOL     OW53794   9.415   4.073  12.582
83966SOL    HW153795   9.461   4.148  12.621
83966SOL    HW253796   9.338   4.112  12.540
83967SOL     OW53797   9.125   0.836   1.062
83967SOL    HW153798   9.195   0.805   1.120
83967SOL    HW253799   9.162   0.914   1.020
83968SOL     OW53800  13.505  14.233   3.809
83968SOL    HW153801  13.558  14.219   3.730
83968SOL    HW253802  13.418  14.203   3.785
83969SOL     OW53803  14.614   0.571   0.489
83969SOL    HW153804  14.589   0.494   0.438
83969SOL    HW253805  14.592   0.645   0.432
83970SOL     OW53806  12.826  11.042   0.283
83970SOL    HW153807  12.904  11.018   0.332
83970SOL    HW253808  12.793  11.121   0.326
83971SOL     OW53809   2.905   6.528   6.725
83971SOL    HW153810   2.821   6.508   6.767
83971SOL    HW253811   2.971   6.505   6.791
83972SOL     OW53812   2.493  14.670   7.059
83972SOL    HW153813   2.516  14.724   7.134
83972SOL    HW253814   2.399  14.652   7.068
83973SOL     OW53815   2.384   6.865  11.508
83973SOL    HW153816   2.472   6.884  11.475
83973SOL    HW253817   2.369   6.931  11.575
83974SOL     OW53818  11.210   2.557  13.089
83974SOL    HW153819  11.169   2.474  13.112
83974SOL    HW253820  11.297   2.533  13.058
83975SOL     OW53821   3.910   7.723   6.569
83975SOL    HW153822   3.918   7.752   6.478
83975SOL    HW253823   3.946   7.795   6.620
83976SOL     OW53824   1.539   5.826   5.509
83976SOL    HW153825   1.577   5.810   5.423
83976SOL    HW253826   1.571   5.913   5.534
83977SOL     OW53827   4.797   1.768  10.164
83977SOL    HW153828   4.733   1.807  10.223
83977SOL    HW253829   4.875   1.755  10.218
83978SOL     OW53830   1.374   7.189   4.925
83978SOL    HW153831   1.428   7.111   4.916
83978SOL    HW253832   1.334   7.182   5.012
83979SOL     OW53833   5.122  14.624  10.679
83979SOL    HW153834   5.092  14.617  10.770
83979SOL    HW253835   5.182  14.550  10.668
83980SOL     OW53836   9.341   4.419   9.953
83980SOL    HW153837   9.408   4.462  10.006
83980SOL    HW253838   9.378   4.420   9.864
83981SOL     OW53839   4.049   8.122  13.353
83981SOL    HW153840   4.019   8.032  13.338
83981SOL    HW253841   3.972   8.176  13.334
83982SOL     OW53842   6.011   0.200   7.130
83982SOL    HW153843   6.058   0.233   7.054
83982SOL    HW253844   5.965   0.122   7.098
83983SOL     OW53845   0.299   1.584   1.021
83983SOL    HW153846   0.376   1.637   0.999
83983SOL    HW253847   0.251   1.576   0.939
83984SOL     OW53848   4.594   6.092   1.587
83984SOL    HW153849   4.620   6.116   1.498
83984SOL    HW253850   4.671   6.047   1.623
83985SOL     OW53851   0.461   4.805   8.540
83985SOL    HW153852   0.517   4.866   8.493
83985SOL    HW253853   0.420   4.752   8.472
83986SOL     OW53854   0.220   3.289   1.541
83986SOL    HW153855   0.151   3.234   1.504
83986SOL    HW253856   0.277   3.229   1.588
83987SOL     OW53857   0.405   5.853   8.793
83987SOL    HW153858   0.317   5.815   8.788
83987SOL    HW253859   0.457   5.787   8.838
83988SOL     OW53860  12.593  13.702  10.812
83988SOL    HW153861  12.612  13.759  10.737
83988SOL    HW253862  12.555  13.623  10.774
83989SOL     OW53863   9.878   1.150   4.787
83989SOL    HW153864   9.826   1.175   4.711
83989SOL    HW253865   9.880   1.230   4.841
83990SOL     OW53866   0.450  11.632   7.258
83990SOL    HW153867   0.405  11.707   7.218
83990SOL    HW253868   0.389  11.602   7.326
83991SOL     OW53869  11.410   1.781  13.820
83991SOL    HW153870  11.349   1.781  13.747
83991SOL    HW253871  11.486   1.733  13.787
83992SOL     OW53872   3.782   9.713  14.714
83992SOL    HW153873   3.871   9.702  14.683
83992SOL    HW253874   3.790   9.725  14.808
83993SOL     OW53875   0.733   8.257  10.983
83993SOL    HW153876   0.697   8.224  10.901
83993SOL    HW253877   0.661   8.309  11.021
83994SOL     OW53878   1.075  13.712   2.874
83994SOL    HW153879   1.114  13.625   2.885
83994SOL    HW253880   1.093  13.736   2.783
83995SOL     OW53881   5.453   6.548  13.396
83995SOL    HW153882   5.433   6.615  13.330
83995SOL    HW253883   5.402   6.472  13.369
83996SOL     OW53884  10.831  10.163   9.095
83996SOL    HW153885  10.795  10.133   9.178
83996SOL    HW253886  10.858  10.084   9.050
83997SOL     OW53887   7.587   8.197  13.351
83997SOL    HW153888   7.543   8.186  13.266
83997SOL    HW253889   7.520   8.233  13.408
83998SOL     OW53890   6.038   8.910   1.960
83998SOL    HW153891   6.017   8.903   1.867
83998SOL    HW253892   5.954   8.901   2.004
83999SOL     OW53893   5.899  14.609   4.017
83999SOL    HW153894   5.962  14.551   4.059
83999SOL    HW253895   5.829  14.551   3.989
84000SOL     OW53896   7.252  11.675   3.251
84000SOL    HW153897   7.187  11.611   3.221
84000SOL    HW253898   7.319  11.622   3.295
84001SOL     OW53899   9.442   7.925   3.461
84001SOL    HW153900   9.485   7.954   3.381
84001SOL    HW253901   9.429   8.005   3.512
84002SOL     OW53902   2.047   1.359   6.374
84002SOL    HW153903   1.977   1.299   6.348
84002SOL    HW253904   2.044   1.429   6.309
84003SOL     OW53905  12.991   0.327   0.808
84003SOL    HW153906  12.900   0.304   0.795
84003SOL    HW253907  13.028   0.332   0.720
84004SOL     OW53908   5.929   8.167   3.324
84004SOL    HW153909   6.004   8.171   3.383
84004SOL    HW253910   5.966   8.144   3.239
84005SOL     OW53911   2.831   3.457   3.888
84005SOL    HW153912   2.882   3.418   3.816
84005SOL    HW253913   2.897   3.480   3.954
84006SOL     OW53914   6.997   6.933   9.220
84006SOL    HW153915   7.088   6.954   9.198
84006SOL    HW253916   6.949   6.948   9.139
84007SOL     OW53917   6.963   5.027   8.612
84007SOL    HW153918   6.872   5.044   8.588
84007SOL    HW253919   6.981   4.940   8.576
84008SOL     OW53920  12.402  13.654   9.456
84008SOL    HW153921  12.402  13.563   9.484
84008SOL    HW253922  12.311  13.683   9.469
84009SOL     OW53923   2.904   9.891  14.016
84009SOL    HW153924   2.885   9.969  14.068
84009SOL    HW253925   2.831   9.831  14.035
84010SOL     OW53926   5.554  14.803  13.153
84010SOL    HW153927   5.596  14.722  13.124
84010SOL    HW253928   5.461  14.781  13.159
84011SOL     OW53929   3.506   8.603   9.517
84011SOL    HW153930   3.417   8.608   9.483
84011SOL    HW253931   3.544   8.688   9.497
84012SOL     OW53932   7.975   4.884   5.131
84012SOL    HW153933   7.975   4.814   5.197
84012SOL    HW253934   8.054   4.935   5.150
84013SOL     OW53935   5.663  11.066   1.570
84013SOL    HW153936   5.707  10.981   1.560
84013SOL    HW253937   5.624  11.062   1.657
84014SOL     OW53938   3.942   4.603   2.035
84014SOL    HW153939   3.946   4.582   2.129
84014SOL    HW253940   4.033   4.618   2.010
84015SOL     OW53941   3.574   4.128   1.238
84015SOL    HW153942   3.613   4.129   1.325
84015SOL    HW253943   3.541   4.216   1.224
84016SOL     OW53944   6.965   9.374   7.078
84016SOL    HW153945   6.984   9.298   7.023
84016SOL    HW253946   7.042   9.382   7.135
84017SOL     OW53947  13.712   2.265   7.914
84017SOL    HW153948  13.647   2.240   7.979
84017SOL    HW253949  13.793   2.276   7.964
84018SOL     OW53950   8.183   3.969   3.220
84018SOL    HW153951   8.181   4.021   3.140
84018SOL    HW253952   8.262   3.999   3.266
84019SOL     OW53953   4.298   0.665  14.660
84019SOL    HW153954   4.253   0.671  14.576
84019SOL    HW253955   4.315   0.756  14.684
84020SOL     OW53956   9.492   8.582   5.582
84020SOL    HW153957   9.468   8.509   5.526
84020SOL    HW253958   9.468   8.554   5.670
84021SOL     OW53959  12.989   9.736   2.742
84021SOL    HW153960  12.958   9.646   2.753
84021SOL    HW253961  12.941   9.769   2.666
84022SOL     OW53962   9.843   3.834  13.283
84022SOL    HW153963   9.827   3.820  13.376
84022SOL    HW253964   9.857   3.928  13.274
84023SOL     OW53965   1.240   8.566   0.128
84023SOL    HW153966   1.321   8.584   0.080
84023SOL    HW253967   1.259   8.589   0.219
84024SOL     OW53968  10.617  11.024   0.490
84024SOL    HW153969  10.642  11.113   0.464
84024SOL    HW253970  10.700  10.979   0.508
84025SOL     OW53971   9.682   9.255   4.965
84025SOL    HW153972   9.642   9.296   5.042
84025SOL    HW253973   9.729   9.327   4.922
84026SOL     OW53974   4.852  11.672   7.491
84026SOL    HW153975   4.861  11.684   7.397
84026SOL    HW253976   4.929  11.621   7.516
84027SOL     OW53977   8.680   3.691  10.798
84027SOL    HW153978   8.640   3.775  10.821
84027SOL    HW253979   8.709   3.654  10.881
84028SOL     OW53980   3.607   5.454  12.210
84028SOL    HW153981   3.648   5.533  12.247
84028SOL    HW253982   3.546   5.425  12.278
84029SOL     OW53983   3.483   4.583   6.457
84029SOL    HW153984   3.486   4.568   6.363
84029SOL    HW253985   3.475   4.495   6.495
84030SOL     OW53986   9.206   8.970   1.462
84030SOL    HW153987   9.171   8.881   1.451
84030SOL    HW253988   9.284   8.972   1.408
84031SOL     OW53989   4.686   5.991   4.711
84031SOL    HW153990   4.637   5.968   4.632
84031SOL    HW253991   4.664   5.923   4.775
84032SOL     OW53992   5.613   7.973   5.647
84032SOL    HW153993   5.693   8.025   5.649
84032SOL    HW253994   5.608   7.932   5.733
84033SOL     OW53995  13.283   5.623  14.591
84033SOL    HW153996  13.191   5.602  14.604
84033SOL    HW253997  13.306   5.677  14.666
84034SOL     OW53998   8.852   1.782   2.238
84034SOL    HW153999   8.862   1.864   2.190
84034SOL    HW254000   8.848   1.715   2.170
84035SOL     OW54001   4.011  12.713  12.490
84035SOL    HW154002   4.039  12.656  12.419
84035SOL    HW254003   4.093  12.744  12.529
84036SOL     OW54004   5.558   1.216   4.085
84036SOL    HW154005   5.630   1.191   4.026
84036SOL    HW254006   5.493   1.147   4.073
84037SOL     OW54007  12.850  12.850  10.333
84037SOL    HW154008  12.806  12.879  10.253
84037SOL    HW254009  12.940  12.833  10.305
84038SOL     OW54010  13.241  11.754   0.240
84038SOL    HW154011  13.319  11.732   0.290
84038SOL    HW254012  13.206  11.670   0.210
84039SOL     OW54013  12.184   9.417  11.201
84039SOL    HW154014  12.093   9.391  11.187
84039SOL    HW254015  12.227   9.402  11.116
84040SOL     OW54016   7.024   2.882   8.017
84040SOL    HW154017   7.053   2.802   8.060
84040SOL    HW254018   6.938   2.900   8.054
84041SOL     OW54019   2.711  13.101  12.012
84041SOL    HW154020   2.717  13.011  11.979
84041SOL    HW254021   2.662  13.148  11.945
84042SOL     OW54022  13.566   7.273   5.200
84042SOL    HW154023  13.660   7.253   5.200
84042SOL    HW254024  13.563   7.369   5.193
84043SOL     OW54025  14.647  10.977   5.789
84043SOL    HW154026  14.614  10.887   5.781
84043SOL    HW254027  14.568  11.029   5.806
84044SOL     OW54028   0.641   0.281  11.126
84044SOL    HW154029   0.601   0.362  11.156
84044SOL    HW254030   0.641   0.224  11.204
84045SOL     OW54031   2.066   7.677   3.786
84045SOL    HW154032   2.021   7.725   3.856
84045SOL    HW254033   2.121   7.614   3.832
84046SOL     OW54034   7.991  12.115   7.052
84046SOL    HW154035   8.051  12.190   7.050
84046SOL    HW254036   7.928  12.137   7.120
84047SOL     OW54037   1.460   1.445  13.202
84047SOL    HW154038   1.531   1.430  13.140
84047SOL    HW254039   1.435   1.358  13.231
84048SOL     OW54040   5.689  12.233   6.198
84048SOL    HW154041   5.695  12.327   6.177
84048SOL    HW254042   5.596  12.217   6.210
84049SOL     OW54043  13.756   1.434  13.210
84049SOL    HW154044  13.711   1.469  13.287
84049SOL    HW254045  13.844   1.472  13.215
84050SOL     OW54046   4.388   3.526  13.271
84050SOL    HW154047   4.373   3.464  13.342
84050SOL    HW254048   4.434   3.476  13.204
84051SOL     OW54049  10.673   8.844  11.678
84051SOL    HW154050  10.656   8.776  11.743
84051SOL    HW254051  10.619   8.819  11.602
84052SOL     OW54052   5.971  10.925   2.382
84052SOL    HW154053   5.902  10.925   2.449
84052SOL    HW254054   5.978  11.016   2.354
84053SOL     OW54055  13.275  12.640   6.172
84053SOL    HW154056  13.260  12.724   6.127
84053SOL    HW254057  13.278  12.576   6.101
84054SOL     OW54058   5.689  12.500  14.827
84054SOL    HW154059   5.678  12.512   0.039
84054SOL    HW254060   5.760  12.561  14.804
84055SOL     OW54061   6.769   7.508   0.787
84055SOL    HW154062   6.755   7.599   0.760
84055SOL    HW254063   6.681   7.472   0.797
84056SOL     OW54064   5.691   4.520   5.539
84056SOL    HW154065   5.638   4.449   5.574
84056SOL    HW254066   5.727   4.563   5.616
84057SOL     OW54067   6.796  14.876  12.584
84057SOL    HW154068   6.847   0.025  12.660
84057SOL    HW254069   6.744  14.804  12.618
84058SOL     OW54070  10.066   2.613  14.634
84058SOL    HW154071  10.157   2.639  14.651
84058SOL    HW254072  10.067   2.577  14.546
84059SOL     OW54073   8.813  10.928   8.137
84059SOL    HW154074   8.720  10.905   8.147
84059SOL    HW254075   8.814  10.994   8.068
84060SOL     OW54076   2.911   2.018   3.742
84060SOL    HW154077   2.958   1.946   3.699
84060SOL    HW254078   2.943   2.016   3.833
84061SOL     OW54079   8.113  10.415   5.487
84061SOL    HW154080   8.029  10.462   5.487
84061SOL    HW254081   8.142  10.416   5.578
84062SOL     OW54082   2.812   4.509  14.664
84062SOL    HW154083   2.808   4.578  14.598
84062SOL    HW254084   2.889   4.457  14.640
84063SOL     OW54085  11.052   1.345   1.364
84063SOL    HW154086  10.978   1.351   1.304
84063SOL    HW254087  11.020   1.291   1.436
84064SOL     OW54088   8.159  12.012  11.126
84064SOL    HW154089   8.241  11.972  11.155
84064SOL    HW254090   8.124  11.953  11.060
84065SOL     OW54091   0.968   8.559   5.610
84065SOL    HW154092   1.001   8.619   5.542
84065SOL    HW254093   0.889   8.601   5.643
84066SOL     OW54094  12.316   1.369   3.638
84066SOL    HW154095  12.374   1.383   3.563
84066SOL    HW254096  12.365   1.311   3.696
84067SOL     OW54097   8.069  10.114  11.899
84067SOL    HW154098   8.143  10.053  11.899
84067SOL    HW254099   8.096  10.183  11.838
84068SOL     OW54100  12.721   6.114  12.095
84068SOL    HW154101  12.641   6.141  12.051
84068SOL    HW254102  12.787   6.178  12.068
84069SOL     OW54103  10.501   8.729   2.574
84069SOL    HW154104  10.439   8.787   2.529
84069SOL    HW254105  10.451   8.694   2.648
84070SOL     OW54106  13.691   6.571   1.066
84070SOL    HW154107  13.639   6.598   1.142
84070SOL    HW254108  13.642   6.605   0.991
84071SOL     OW54109  10.253  10.003   0.451
84071SOL    HW154110  10.330   9.945   0.445
84071SOL    HW254111  10.216  10.003   0.363
84072SOL     OW54112   0.176   8.349   0.845
84072SOL    HW154113   0.113   8.378   0.779
84072SOL    HW254114   0.167   8.254   0.846
84073SOL     OW54115   6.333   2.675  14.319
84073SOL    HW154116   6.253   2.722  14.295
84073SOL    HW254117   6.386   2.677  14.239
84074SOL     OW54118  13.961  11.355   3.269
84074SOL    HW154119  14.019  11.343   3.345
84074SOL    HW254120  13.964  11.271   3.223
84075SOL     OW54121   5.820   7.300  10.897
84075SOL    HW154122   5.849   7.373  10.842
84075SOL    HW254123   5.746   7.262  10.850
84076SOL     OW54124   7.446   7.658   2.980
84076SOL    HW154125   7.364   7.662   2.932
84076SOL    HW254126   7.509   7.706   2.926
84077SOL     OW54127   1.425  11.442   8.947
84077SOL    HW154128   1.434  11.363   9.000
84077SOL    HW254129   1.384  11.412   8.866
84078SOL     OW54130   1.620   3.463   9.364
84078SOL    HW154131   1.669   3.545   9.362
84078SOL    HW254132   1.564   3.466   9.286
84079SOL     OW54133  12.358   2.091   4.701
84079SOL    HW154134  12.366   1.996   4.714
84079SOL    HW254135  12.447   2.125   4.713
84080SOL     OW54136   6.951   2.274   9.632
84080SOL    HW154137   6.988   2.216   9.565
84080SOL    HW254138   6.907   2.342   9.582
84081SOL     OW54139   0.264   5.450   0.276
84081SOL    HW154140   0.239   5.358   0.281
84081SOL    HW254141   0.183   5.497   0.259
84082SOL     OW54142   9.065  11.226   0.046
84082SOL    HW154143   9.111  11.296  14.881
84082SOL    HW254144   8.975  11.232   0.015
84083SOL     OW54145  10.650  10.585  11.275
84083SOL    HW154146  10.717  10.517  11.267
84083SOL    HW254147  10.570  10.544  11.241
84084SOL     OW54148   0.370   5.774  13.187
84084SOL    HW154149   0.426   5.823  13.127
84084SOL    HW254150   0.363   5.687  13.148
84085SOL     OW54151   1.286  14.483   8.151
84085SOL    HW154152   1.221  14.521   8.092
84085SOL    HW254153   1.359  14.458   8.094
84086SOL     OW54154  11.268   1.037   8.489
84086SOL    HW154155  11.306   0.967   8.541
84086SOL    HW254156  11.219   0.991   8.420
84087SOL     OW54157   2.749   7.306   6.017
84087SOL    HW154158   2.780   7.317   5.927
84087SOL    HW254159   2.793   7.375   6.066
84088SOL     OW54160   9.459  11.122  11.853
84088SOL    HW154161   9.536  11.153  11.806
84088SOL    HW254162   9.388  11.180  11.824
84089SOL     OW54163   7.224   5.590   3.954
84089SOL    HW154164   7.297   5.592   4.017
84089SOL    HW254165   7.176   5.671   3.971
84090SOL     OW54166  12.358  11.705  11.293
84090SOL    HW154167  12.264  11.719  11.300
84090SOL    HW254168  12.374  11.696  11.199
84091SOL     OW54169   9.011   4.866  12.300
84091SOL    HW154170   9.037   4.775  12.315
84091SOL    HW254171   9.052   4.890  12.217
84092SOL     OW54172  13.170  13.086   4.893
84092SOL    HW154173  13.093  13.124   4.851
84092SOL    HW254174  13.140  13.060   4.980
84093SOL     OW54175  14.280   0.743   6.269
84093SOL    HW154176  14.319   0.748   6.182
84093SOL    HW254177  14.208   0.682   6.260
84094SOL     OW54178   4.245  10.642   8.084
84094SOL    HW154179   4.333  10.679   8.094
84094SOL    HW254180   4.192  10.690   8.148
84095SOL     OW54181   6.965   3.105  13.301
84095SOL    HW154182   6.961   3.133  13.209
84095SOL    HW254183   6.895   3.040  13.309
84096SOL     OW54184   8.619   5.937  11.308
84096SOL    HW154185   8.649   5.995  11.238
84096SOL    HW254186   8.669   5.964  11.385
84097SOL     OW54187  10.152   9.744   1.528
84097SOL    HW154188  10.144   9.668   1.585
84097SOL    HW254189  10.117   9.715   1.443
84098SOL     OW54190  14.844   2.024  14.383
84098SOL    HW154191   0.019   1.948  14.395
84098SOL    HW254192  14.769   2.006  14.439
84099SOL     OW54193   2.164  12.933   6.569
84099SOL    HW154194   2.081  12.950   6.524
84099SOL    HW254195   2.231  12.966   6.509
84100SOL     OW54196   7.796  12.351  10.289
84100SOL    HW154197   7.718  12.305  10.257
84100SOL    HW254198   7.853  12.282  10.322
84101SOL     OW54199  10.244   6.425  13.166
84101SOL    HW154200  10.265   6.451  13.256
84101SOL    HW254201  10.180   6.355  13.176
84102SOL     OW54202   8.793   3.864   5.364
84102SOL    HW154203   8.744   3.784   5.384
84102SOL    HW254204   8.880   3.833   5.337
84103SOL     OW54205  12.554   8.880   5.115
84103SOL    HW154206  12.535   8.837   5.198
84103SOL    HW254207  12.560   8.809   5.052
84104SOL     OW54208   9.968  13.512   0.010
84104SOL    HW154209  10.009  13.597  14.874
84104SOL    HW254210  10.041  13.454   0.031
84105SOL     OW54211   3.834   9.864   6.275
84105SOL    HW154212   3.753   9.815   6.262
84105SOL    HW254213   3.856   9.852   6.367
84106SOL     OW54214  11.945   4.149   8.766
84106SOL    HW154215  11.957   4.190   8.680
84106SOL    HW254216  11.956   4.221   8.828
84107SOL     OW54217   5.214   5.533   2.169
84107SOL    HW154218   5.280   5.465   2.158
84107SOL    HW254219   5.208   5.547   2.264
84108SOL     OW54220  10.552   6.937  11.036
84108SOL    HW154221  10.488   6.910  10.970
84108SOL    HW254222  10.624   6.975  10.986
84109SOL     OW54223  11.121   4.025   1.434
84109SOL    HW154224  11.088   4.055   1.349
84109SOL    HW254225  11.057   3.959   1.461
84110SOL     OW54226   0.739   2.638  11.389
84110SOL    HW154227   0.769   2.604  11.304
84110SOL    HW254228   0.804   2.606  11.452
84111SOL     OW54229   6.366   8.047   6.868
84111SOL    HW154230   6.304   7.975   6.879
84111SOL    HW254231   6.320   8.123   6.905
84112SOL     OW54232   3.283   3.456   5.886
84112SOL    HW154233   3.259   3.385   5.944
84112SOL    HW254234   3.244   3.534   5.926
84113SOL     OW54235   4.411   2.133  10.435
84113SOL    HW154236   4.402   2.188  10.357
84113SOL    HW254237   4.445   2.192  10.503
84114SOL     OW54238   0.839  11.634   0.665
84114SOL    HW154239   0.899  11.591   0.725
84114SOL    HW254240   0.763  11.577   0.661
84115SOL     OW54241   5.975   9.698   6.583
84115SOL    HW154242   5.966   9.641   6.507
84115SOL    HW254243   6.061   9.738   6.572
84116SOL     OW54244   6.621  11.457   1.467
84116SOL    HW154245   6.700  11.500   1.499
84116SOL    HW254246   6.551  11.521   1.479
84117SOL     OW54247  12.208   2.609  12.024
84117SOL    HW154248  12.269   2.627  11.952
84117SOL    HW254249  12.138   2.673  12.012
84118SOL     OW54250   6.002  14.236  14.634
84118SOL    HW154251   6.024  14.202  14.548
84118SOL    HW254252   6.004  14.331  14.624
84119SOL     OW54253   1.776   8.152  11.958
84119SOL    HW154254   1.737   8.178  12.042
84119SOL    HW254255   1.730   8.205  11.893
84120SOL     OW54256   5.719   5.641  13.657
84120SOL    HW154257   5.707   5.735  13.644
84120SOL    HW254258   5.631   5.604  13.654
84121SOL     OW54259   2.176   9.101  12.386
84121SOL    HW154260   2.247   9.164  12.378
84121SOL    HW254261   2.129   9.127  12.465
84122SOL     OW54262  11.786   8.732   8.011
84122SOL    HW154263  11.692   8.741   7.997
84122SOL    HW254264  11.797   8.749   8.105
84123SOL     OW54265  13.225  11.409   0.597
84123SOL    HW154266  13.172  11.367   0.665
84123SOL    HW254267  13.277  11.475   0.643
84124SOL     OW54268  10.026   4.621   7.722
84124SOL    HW154269   9.947   4.593   7.768
84124SOL    HW254270  10.081   4.661   7.790
84125SOL     OW54271   0.021   2.680   8.904
84125SOL    HW154272   0.077   2.634   8.842
84125SOL    HW254273   0.017   2.769   8.870
84126SOL     OW54274   0.052   4.865   6.662
84126SOL    HW154275  14.852   4.884   6.617
84126SOL    HW254276   0.086   4.787   6.619
84127SOL     OW54277   7.285  12.855   8.835
84127SOL    HW154278   7.240  12.938   8.849
84127SOL    HW254279   7.235  12.792   8.886
84128SOL     OW54280  12.805   9.465   2.507
84128SOL    HW154281  12.756   9.455   2.426
84128SOL    HW254282  12.836   9.377   2.528
84129SOL     OW54283   2.739   4.312   4.449
84129SOL    HW154284   2.772   4.358   4.371
84129SOL    HW254285   2.771   4.365   4.522
84130SOL     OW54286   6.276   7.199   2.718
84130SOL    HW154287   6.251   7.107   2.714
84130SOL    HW254288   6.288   7.217   2.811
84131SOL     OW54289  12.273   2.729   0.138
84131SOL    HW154290  12.313   2.708   0.054
84131SOL    HW254291  12.212   2.656   0.154
84132SOL     OW54292   5.630   7.798   8.694
84132SOL    HW154293   5.607   7.890   8.682
84132SOL    HW254294   5.599   7.755   8.615
84133SOL     OW54295  10.069   6.785   0.718
84133SOL    HW154296   9.984   6.772   0.675
84133SOL    HW254297  10.065   6.732   0.797
84134SOL     OW54298  14.780  12.275  11.535
84134SOL    HW154299  14.693  12.308  11.559
84134SOL    HW254300  14.763  12.189  11.496
84135SOL     OW54301   3.908  12.050   6.831
84135SOL    HW154302   3.963  12.122   6.862
84135SOL    HW254303   3.885  12.074   6.741
84136SOL     OW54304   6.228  13.709   2.567
84136SOL    HW154305   6.298  13.663   2.521
84136SOL    HW254306   6.191  13.643   2.626
84137SOL     OW54307  11.226   3.753   4.993
84137SOL    HW154308  11.236   3.848   4.988
84137SOL    HW254309  11.224   3.724   4.902
84138SOL     OW54310   8.641   3.752  10.524
84138SOL    HW154311   8.643   3.694  10.600
84138SOL    HW254312   8.602   3.833  10.556
84139SOL     OW54313   0.950   6.589   7.328
84139SOL    HW154314   0.864   6.563   7.364
84139SOL    HW254315   1.012   6.565   7.397
84140SOL     OW54316  10.230  13.476   7.586
84140SOL    HW154317  10.185  13.446   7.665
84140SOL    HW254318  10.162  13.475   7.519
84141SOL     OW54319   0.310  12.346  13.322
84141SOL    HW154320   0.216  12.332  13.310
84141SOL    HW254321   0.340  12.266  13.365
84142SOL     OW54322   2.788   9.301   2.045
84142SOL    HW154323   2.832   9.265   2.122
84142SOL    HW254324   2.787   9.228   1.982
84143SOL     OW54325  11.216  14.215   2.039
84143SOL    HW154326  11.292  14.166   2.006
84143SOL    HW254327  11.231  14.304   2.009
84144SOL     OW54328  12.656  12.198  14.026
84144SOL    HW154329  12.568  12.211  14.061
84144SOL    HW254330  12.694  12.130  14.083
84145SOL     OW54331   8.147   2.745   0.937
84145SOL    HW154332   8.084   2.713   1.002
84145SOL    HW254333   8.205   2.802   0.986
84146SOL     OW54334   6.110  12.461   3.360
84146SOL    HW154335   6.114  12.531   3.425
84146SOL    HW254336   6.200  12.427   3.355
84147SOL     OW54337   0.362   7.649   2.364
84147SOL    HW154338   0.287   7.589   2.366
84147SOL    HW254339   0.429   7.607   2.417
84148SOL     OW54340   7.702   3.294  12.522
84148SOL    HW154341   7.629   3.233  12.535
84148SOL    HW254342   7.676   3.347  12.448
84149SOL     OW54343   0.578   7.381   0.926
84149SOL    HW154344   0.592   7.322   0.999
84149SOL    HW254345   0.545   7.461   0.966
84150SOL     OW54346  14.681   4.897   5.357
84150SOL    HW154347  14.629   4.859   5.287
84150SOL    HW254348  14.753   4.834   5.370
84151SOL     OW54349  11.067   3.586   8.410
84151SOL    HW154350  11.096   3.553   8.325
84151SOL    HW254351  11.003   3.654   8.388
84152SOL     OW54352   9.667  11.771  12.355
84152SOL    HW154353   9.633  11.700  12.410
84152SOL    HW254354   9.602  11.841  12.365
84153SOL     OW54355   5.749   1.584  11.277
84153SOL    HW154356   5.770   1.676  11.289
84153SOL    HW254357   5.693   1.582  11.199
84154SOL     OW54358   1.242   2.560   7.870
84154SOL    HW154359   1.182   2.503   7.917
84154SOL    HW254360   1.193   2.641   7.856
84155SOL     OW54361   9.685   2.641  14.842
84155SOL    HW154362   9.744   2.655   0.034
84155SOL    HW254363   9.597   2.651  14.879
84156SOL     OW54364   7.598   0.525   6.189
84156SOL    HW154365   7.615   0.600   6.246
84156SOL    HW254366   7.675   0.469   6.198
84157SOL     OW54367  14.596  11.661  14.871
84157SOL    HW154368  14.508  11.697  14.875
84157SOL    HW254369  14.587  11.580  14.821
84158SOL     OW54370   8.233   7.232   2.324
84158SOL    HW154371   8.319   7.235   2.366
84158SOL    HW254372   8.184   7.302   2.366
84159SOL     OW54373  11.039   2.126  13.043
84159SOL    HW154374  11.095   2.116  12.966
84159SOL    HW254375  10.967   2.181  13.014
84160SOL     OW54376  10.713   3.084  10.188
84160SOL    HW154377  10.655   3.044  10.124
84160SOL    HW254378  10.660   3.153  10.229
84161SOL     OW54379   3.781   8.376  14.138
84161SOL    HW154380   3.833   8.380  14.058
84161SOL    HW254381   3.806   8.454  14.187
84162SOL     OW54382  13.703   8.475  11.592
84162SOL    HW154383  13.785   8.521  11.572
84162SOL    HW254384  13.675   8.512  11.676
84163SOL     OW54385   9.432   6.607  12.547
84163SOL    HW154386   9.341   6.616  12.520
84163SOL    HW254387   9.479   6.588  12.465
84164SOL     OW54388   3.528   8.566   8.280
84164SOL    HW154389   3.449   8.620   8.276
84164SOL    HW254390   3.504   8.486   8.232
84165SOL     OW54391   1.452   2.538   4.951
84165SOL    HW154392   1.501   2.614   4.921
84165SOL    HW254393   1.419   2.564   5.037
84166SOL     OW54394  14.677  14.733  10.753
84166SOL    HW154395  14.712  14.774  10.673
84166SOL    HW254396  14.661  14.807  10.812
84167SOL     OW54397   9.074   1.912   4.330
84167SOL    HW154398   9.079   1.904   4.235
84167SOL    HW254399   9.066   2.007   4.345
84168SOL     OW54400  11.111  13.556  11.881
84168SOL    HW154401  11.119  13.632  11.939
84168SOL    HW254402  11.180  13.497  11.910
84169SOL     OW54403   8.536   6.910   7.768
84169SOL    HW154404   8.538   6.868   7.683
84169SOL    HW254405   8.534   6.838   7.831
84170SOL     OW54406  14.881   7.894   5.312
84170SOL    HW154407  14.842   7.865   5.395
84170SOL    HW254408  14.872   7.989   5.313
84171SOL     OW54409  10.915   2.742   5.307
84171SOL    HW154410  10.992   2.701   5.268
84171SOL    HW254411  10.907   2.826   5.262
84172SOL     OW54412  10.522  10.764  13.221
84172SOL    HW154413  10.554  10.675  13.206
84172SOL    HW254414  10.601  10.814  13.243
84173SOL     OW54415   0.007   5.710  12.897
84173SOL    HW154416   0.088   5.666  12.872
84173SOL    HW254417   0.030   5.803  12.899
84174SOL     OW54418   9.996   9.189   6.820
84174SOL    HW154419   9.993   9.201   6.725
84174SOL    HW254420  10.051   9.261   6.851
84175SOL     OW54421   4.661   7.192   9.932
84175SOL    HW154422   4.666   7.113   9.985
84175SOL    HW254423   4.703   7.168   9.849
84176SOL     OW54424   6.992  13.651   0.526
84176SOL    HW154425   6.992  13.671   0.433
84176SOL    HW254426   6.979  13.735   0.569
84177SOL     OW54427   2.888  12.554  10.317
84177SOL    HW154428   2.827  12.571  10.245
84177SOL    HW254429   2.972  12.586  10.286
84178SOL     OW54430  14.219   3.456   8.253
84178SOL    HW154431  14.175   3.524   8.303
84178SOL    HW254432  14.150   3.394   8.231
84179SOL     OW54433  14.247   7.640   8.602
84179SOL    HW154434  14.185   7.641   8.675
84179SOL    HW254435  14.194   7.666   8.526
84180SOL     OW54436   6.931   9.592  13.370
84180SOL    HW154437   6.897   9.541  13.444
84180SOL    HW254438   7.023   9.566  13.362
84181SOL     OW54439  10.791  11.791   1.744
84181SOL    HW154440  10.758  11.866   1.794
84181SOL    HW254441  10.880  11.815   1.721
84182SOL     OW54442  14.206   0.356   5.785
84182SOL    HW154443  14.136   0.299   5.815
84182SOL    HW254444  14.286   0.315   5.816
84183SOL     OW54445   3.428  11.354   1.546
84183SOL    HW154446   3.388  11.270   1.568
84183SOL    HW254447   3.427  11.403   1.628
84184SOL     OW54448   0.000   4.741   0.268
84184SOL    HW154449  14.838   4.757   0.351
84184SOL    HW254450   0.018   4.647   0.268
84185SOL     OW54451  11.542  14.242   2.377
84185SOL    HW154452  11.559  14.301   2.303
84185SOL    HW254453  11.475  14.287   2.428
84186SOL     OW54454   1.803   4.323   9.934
84186SOL    HW154455   1.737   4.293   9.997
84186SOL    HW254456   1.753   4.371   9.868
84187SOL     OW54457  12.457   4.949   2.498
84187SOL    HW154458  12.363   4.933   2.488
84187SOL    HW254459  12.495   4.863   2.513
84188SOL     OW54460  10.764  10.983  13.694
84188SOL    HW154461  10.800  10.910  13.645
84188SOL    HW254462  10.683  11.005  13.648
84189SOL     OW54463  10.655   9.627   4.155
84189SOL    HW154464  10.640   9.636   4.249
84189SOL    HW254465  10.666   9.533   4.141
84190SOL     OW54466   0.786   1.435  13.208
84190SOL    HW154467   0.820   1.509  13.158
84190SOL    HW254468   0.740   1.381  13.144
84191SOL     OW54469  13.220  13.267   6.678
84191SOL    HW154470  13.276  13.192   6.691
84191SOL    HW254471  13.267  13.340   6.717
84192SOL     OW54472   0.973   4.443  14.841
84192SOL    HW154473   0.899   4.383  14.844
84192SOL    HW254474   0.941   4.522   0.002
84193SOL     OW54475   2.565   6.969   1.459
84193SOL    HW154476   2.651   7.008   1.444
84193SOL    HW254477   2.508   7.011   1.394
84194SOL     OW54478   0.935   7.743   3.064
84194SOL    HW154479   0.878   7.721   2.990
84194SOL    HW254480   0.985   7.819   3.034
84195SOL     OW54481  13.284   3.718   6.261
84195SOL    HW154482  13.316   3.750   6.345
84195SOL    HW254483  13.363   3.692   6.214
84196SOL     OW54484   1.235   5.782   1.235
84196SOL    HW154485   1.165   5.724   1.203
84196SOL    HW254486   1.196   5.826   1.311
84197SOL     OW54487   7.319   5.372   1.005
84197SOL    HW154488   7.413   5.362   0.986
84197SOL    HW254489   7.292   5.448   0.954
84198SOL     OW54490   0.013   4.089   1.792
84198SOL    HW154491   0.044   4.027   1.726
84198SOL    HW254492  14.801   4.096   1.775
84199SOL     OW54493   0.603   0.224   4.986
84199SOL    HW154494   0.640   0.262   5.066
84199SOL    HW254495   0.573   0.300   4.936
84200SOL     OW54496   8.523   8.181  14.550
84200SOL    HW154497   8.550   8.272  14.555
84200SOL    HW254498   8.601   8.131  14.577
84201SOL     OW54499  10.102   8.717   6.179
84201SOL    HW154500  10.146   8.668   6.249
84201SOL    HW254501  10.071   8.797   6.222
84202SOL     OW54502   5.739   5.008  13.206
84202SOL    HW154503   5.671   5.068  13.239
84202SOL    HW254504   5.804   5.005  13.276
84203SOL     OW54505  10.088   1.030   7.341
84203SOL    HW154506  10.169   0.979   7.337
84203SOL    HW254507  10.116   1.120   7.321
84204SOL     OW54508  13.083  11.474   2.587
84204SOL    HW154509  13.014  11.528   2.549
84204SOL    HW254510  13.037  11.399   2.624
84205SOL     OW54511   1.034   4.555   8.101
84205SOL    HW154512   1.072   4.599   8.024
84205SOL    HW254513   1.105   4.500   8.134
84206SOL     OW54514   9.497   5.901   7.984
84206SOL    HW154515   9.550   5.908   7.904
84206SOL    HW254516   9.502   5.808   8.007
84207SOL     OW54517   6.818  10.501  14.503
84207SOL    HW154518   6.752  10.536  14.562
84207SOL    HW254519   6.839  10.415  14.539
84208SOL     OW54520   7.068  12.098   1.148
84208SOL    HW154521   6.975  12.092   1.168
84208SOL    HW254522   7.074  12.167   1.082
84209SOL     OW54523   5.838   3.407   6.803
84209SOL    HW154524   5.760   3.431   6.853
84209SOL    HW254525   5.826   3.450   6.719
84210SOL     OW54526   4.088   7.582   5.136
84210SOL    HW154527   4.078   7.674   5.112
84210SOL    HW254528   4.068   7.534   5.056
84211SOL     OW54529  10.746   7.695  11.647
84211SOL    HW154530  10.784   7.724  11.564
84211SOL    HW254531  10.697   7.772  11.678
84212SOL     OW54532  11.774  11.082   8.506
84212SOL    HW154533  11.745  11.008   8.560
84212SOL    HW254534  11.867  11.091   8.524
84213SOL     OW54535  11.593   2.580   9.951
84213SOL    HW154536  11.586   2.615  10.040
84213SOL    HW254537  11.588   2.657   9.894
84214SOL     OW54538   6.255   2.468  13.922
84214SOL    HW154539   6.315   2.486  13.994
84214SOL    HW254540   6.254   2.373  13.915
84215SOL     OW54541   8.083  12.081   4.110
84215SOL    HW154542   8.041  11.996   4.113
84215SOL    HW254543   8.172  12.065   4.142
84216SOL     OW54544   8.449   3.903   2.792
84216SOL    HW154545   8.439   3.909   2.697
84216SOL    HW254546   8.408   3.819   2.814
84217SOL     OW54547   3.547  11.594   2.424
84217SOL    HW154548   3.551  11.586   2.520
84217SOL    HW254549   3.635  11.622   2.399
84218SOL     OW54550   7.416   4.706   2.264
84218SOL    HW154551   7.464   4.655   2.199
84218SOL    HW254552   7.387   4.784   2.217
84219SOL     OW54553  12.758   6.872  14.563
84219SOL    HW154554  12.729   6.855  14.473
84219SOL    HW254555  12.853   6.871  14.558
84220SOL     OW54556   3.556  11.168   2.300
84220SOL    HW154557   3.605  11.116   2.363
84220SOL    HW254558   3.480  11.200   2.348
84221SOL     OW54559   5.742   4.828   6.669
84221SOL    HW154560   5.698   4.849   6.587
84221SOL    HW254561   5.835   4.844   6.652
84222SOL     OW54562   4.583  10.929   9.955
84222SOL    HW154563   4.666  10.885   9.938
84222SOL    HW254564   4.605  11.022   9.954
84223SOL     OW54565  14.382   3.628   5.019
84223SOL    HW154566  14.405   3.684   4.945
84223SOL    HW254567  14.299   3.587   4.992
84224SOL     OW54568  14.032  14.202   3.441
84224SOL    HW154569  14.009  14.150   3.365
84224SOL    HW254570  14.049  14.138   3.510
84225SOL     OW54571  13.505   0.935   0.459
84225SOL    HW154572  13.535   0.948   0.370
84225SOL    HW254573  13.409   0.940   0.453
84226SOL     OW54574   5.070  12.074   7.471
84226SOL    HW154575   5.073  12.052   7.378
84226SOL    HW254576   5.082  11.991   7.516
84227SOL     OW54577   6.381  14.263  12.006
84227SOL    HW154578   6.424  14.190  12.050
84227SOL    HW254579   6.418  14.263  11.917
84228SOL     OW54580  10.041  13.078   1.300
84228SOL    HW154581  10.029  13.131   1.221
84228SOL    HW254582  10.135  13.078   1.315
84229SOL     OW54583  14.683  13.609  10.895
84229SOL    HW154584  14.723  13.541  10.948
84229SOL    HW254585  14.589  13.588  10.895
84230SOL     OW54586  11.156   2.834   6.764
84230SOL    HW154587  11.143   2.925   6.791
84230SOL    HW254588  11.139   2.833   6.670
84231SOL     OW54589  11.279  12.496   9.972
84231SOL    HW154590  11.235  12.550  10.037
84231SOL    HW254591  11.233  12.513   9.890
84232SOL     OW54592  13.440  14.818   8.206
84232SOL    HW154593  13.414  14.740   8.255
84232SOL    HW254594  13.361  14.873   8.206
84233SOL     OW54595   2.779   8.650   7.093
84233SOL    HW154596   2.816   8.708   7.026
84233SOL    HW254597   2.850   8.637   7.156
84234SOL     OW54598   7.284   1.762  13.574
84234SOL    HW154599   7.365   1.809  13.554
84234SOL    HW254600   7.226   1.829  13.610
84235SOL     OW54601  11.080   8.014   7.545
84235SOL    HW154602  11.097   8.082   7.480
84235SOL    HW254603  11.098   8.056   7.629
84236SOL     OW54604   1.270  12.425  13.378
84236SOL    HW154605   1.277  12.492  13.310
84236SOL    HW254606   1.340  12.363  13.356
84237SOL     OW54607   9.458   4.083   1.300
84237SOL    HW154608   9.505   4.121   1.225
84237SOL    HW254609   9.366   4.092   1.278
84238SOL     OW54610   5.587  11.484  12.927
84238SOL    HW154611   5.572  11.568  12.971
84238SOL    HW254612   5.611  11.424  12.998
84239SOL     OW54613   0.019   1.644  13.878
84239SOL    HW154614   0.067   1.603  13.806
84239SOL    HW254615   0.088   1.682  13.933
84240SOL     OW54616   5.414   0.314   2.272
84240SOL    HW154617   5.342   0.254   2.254
84240SOL    HW254618   5.395   0.350   2.359
84241SOL     OW54619  11.915   4.415  12.457
84241SOL    HW154620  11.931   4.324  12.431
84241SOL    HW254621  11.915   4.464  12.375
84242SOL     OW54622   6.453   8.122   9.446
84242SOL    HW154623   6.420   8.033   9.454
84242SOL    HW254624   6.478   8.131   9.354
84243SOL     OW54625   2.212  14.087  12.592
84243SOL    HW154626   2.276  14.015  12.595
84243SOL    HW254627   2.224  14.134  12.674
84244SOL     OW54628  12.886   9.666   7.580
84244SOL    HW154629  12.877   9.753   7.620
84244SOL    HW254630  12.963   9.628   7.622
84245SOL     OW54631  13.191  14.403  10.817
84245SOL    HW154632  13.282  14.417  10.792
84245SOL    HW254633  13.144  14.478  10.781
84246SOL     OW54634   1.612   9.544   6.409
84246SOL    HW154635   1.612   9.501   6.495
84246SOL    HW254636   1.653   9.480   6.351
84247SOL     OW54637   1.898  11.861   3.530
84247SOL    HW154638   1.925  11.953   3.538
84247SOL    HW254639   1.881  11.833   3.620
84248SOL     OW54640  11.050   8.743  13.551
84248SOL    HW154641  10.989   8.814  13.531
84248SOL    HW254642  10.995   8.673  13.584
84249SOL     OW54643  14.012   9.106   6.278
84249SOL    HW154644  13.917   9.095   6.280
84249SOL    HW254645  14.033   9.151   6.361
84250SOL     OW54646   9.214   6.339   9.244
84250SOL    HW154647   9.209   6.344   9.149
84250SOL    HW254648   9.204   6.246   9.264
84251SOL     OW54649   8.761   6.839   5.803
84251SOL    HW154650   8.740   6.929   5.776
84251SOL    HW254651   8.723   6.831   5.891
84252SOL     OW54652  10.168   8.886   5.095
84252SOL    HW154653  10.121   8.834   5.030
84252SOL    HW254654  10.177   8.826   5.170
84253SOL     OW54655   3.447   5.228   8.687
84253SOL    HW154656   3.466   5.219   8.780
84253SOL    HW254657   3.508   5.169   8.643
84254SOL     OW54658   6.213   6.378  13.719
84254SOL    HW154659   6.269   6.440  13.671
84254SOL    HW254660   6.274   6.310  13.749
84255SOL     OW54661   4.763   0.271   8.751
84255SOL    HW154662   4.777   0.329   8.825
84255SOL    HW254663   4.847   0.271   8.705
84256SOL     OW54664   4.732   7.934   1.821
84256SOL    HW154665   4.791   7.951   1.895
84256SOL    HW254666   4.711   7.841   1.828
84257SOL     OW54667   5.639   8.546  10.545
84257SOL    HW154668   5.672   8.599  10.617
84257SOL    HW254669   5.544   8.556  10.550
84258SOL     OW54670   4.728  12.392  12.300
84258SOL    HW154671   4.718  12.328  12.231
84258SOL    HW254672   4.763  12.343  12.374
84259SOL     OW54673   8.043   2.203   8.098
84259SOL    HW154674   8.034   2.235   8.008
84259SOL    HW254675   8.108   2.260   8.138
84260SOL     OW54676  10.972  11.731  14.861
84260SOL    HW154677  10.909  11.802  14.873
84260SOL    HW254678  10.934  11.676  14.793
84261SOL     OW54679  13.004   7.965   1.730
84261SOL    HW154680  12.956   7.946   1.649
84261SOL    HW254681  13.096   7.959   1.706
84262SOL     OW54682   6.298  12.794   6.124
84262SOL    HW154683   6.356  12.870   6.121
84262SOL    HW254684   6.210  12.830   6.117
84263SOL     OW54685   4.413  12.437   7.284
84263SOL    HW154686   4.478  12.395   7.227
84263SOL    HW254687   4.341  12.375   7.287
84264SOL     OW54688  13.880   9.233   4.658
84264SOL    HW154689  13.800   9.185   4.632
84264SOL    HW254690  13.870   9.319   4.618
84265SOL     OW54691   3.546  10.284   8.535
84265SOL    HW154692   3.517  10.302   8.446
84265SOL    HW254693   3.468  10.256   8.582
84266SOL     OW54694   9.366   4.638  12.791
84266SOL    HW154695   9.363   4.690  12.871
84266SOL    HW254696   9.405   4.698  12.726
84267SOL     OW54697   2.947   3.579   1.213
84267SOL    HW154698   2.989   3.616   1.290
84267SOL    HW254699   3.013   3.522   1.174
84268SOL     OW54700  14.010  12.682   4.076
84268SOL    HW154701  13.979  12.756   4.128
84268SOL    HW254702  14.075  12.639   4.133
84269SOL     OW54703   2.814   7.261  10.584
84269SOL    HW154704   2.750   7.200  10.619
84269SOL    HW254705   2.848   7.218  10.506
84270SOL     OW54706   5.544   7.290   2.914
84270SOL    HW154707   5.560   7.368   2.966
84270SOL    HW254708   5.506   7.323   2.832
84271SOL     OW54709   1.356  11.549   1.835
84271SOL    HW154710   1.424  11.525   1.898
84271SOL    HW254711   1.344  11.643   1.848
84272SOL     OW54712  12.161   1.103   3.892
84272SOL    HW154713  12.166   1.131   3.801
84272SOL    HW254714  12.149   1.008   3.889
84273SOL     OW54715   8.174   1.561   8.510
84273SOL    HW154716   8.133   1.511   8.439
84273SOL    HW254717   8.241   1.503   8.545
84274SOL     OW54718   3.334   1.803   4.249
84274SOL    HW154719   3.345   1.744   4.324
84274SOL    HW254720   3.375   1.885   4.277
84275SOL     OW54721   7.788  14.457   9.723
84275SOL    HW154722   7.817  14.393   9.788
84275SOL    HW254723   7.835  14.434   9.643
84276SOL     OW54724   9.966  12.008  14.694
84276SOL    HW154725   9.971  11.918  14.661
84276SOL    HW254726  10.053  12.044  14.680
84277SOL     OW54727  10.683   8.664   4.224
84277SOL    HW154728  10.594   8.698   4.232
84277SOL    HW254729  10.738   8.741   4.215
84278SOL     OW54730   3.797   2.650  12.368
84278SOL    HW154731   3.821   2.722  12.426
84278SOL    HW254732   3.858   2.580  12.389
84279SOL     OW54733   7.269  10.810   1.792
84279SOL    HW154734   7.285  10.903   1.806
84279SOL    HW254735   7.253  10.802   1.698
84280SOL     OW54736   9.898  13.343   2.314
84280SOL    HW154737   9.963  13.276   2.294
84280SOL    HW254738   9.946  13.426   2.305
84281SOL     OW54739  12.347   9.404   2.150
84281SOL    HW154740  12.367   9.498   2.156
84281SOL    HW254741  12.338   9.387   2.056
84282SOL     OW54742  12.107   9.325  14.813
84282SOL    HW154743  12.084   9.418  14.806
84282SOL    HW254744  12.097   9.304   0.024
84283SOL     OW54745   5.845   0.799  10.214
84283SOL    HW154746   5.804   0.884  10.197
84283SOL    HW254747   5.779   0.735  10.187
84284SOL     OW54748  13.002   7.396  10.935
84284SOL    HW154749  13.012   7.472  10.876
84284SOL    HW254750  12.910   7.398  10.961
84285SOL     OW54751   1.623   9.271  14.711
84285SOL    HW154752   1.672   9.266  14.629
84285SOL    HW254753   1.675   9.220  14.773
84286SOL     OW54754   0.933   7.193   2.710
84286SOL    HW154755   0.965   7.253   2.777
84286SOL    HW254756   0.908   7.250   2.636
84287SOL     OW54757   7.679   8.768   2.470
84287SOL    HW154758   7.666   8.678   2.440
84287SOL    HW254759   7.654   8.822   2.395
84288SOL     OW54760   7.531   2.347  11.251
84288SOL    HW154761   7.534   2.260  11.291
84288SOL    HW254762   7.562   2.406  11.320
84289SOL     OW54763   4.346  12.500  13.716
84289SOL    HW154764   4.270  12.521  13.662
84289SOL    HW254765   4.340  12.406  13.731
84290SOL     OW54766   1.103  13.827  13.527
84290SOL    HW154767   1.065  13.879  13.597
84290SOL    HW254768   1.166  13.770  13.570
84291SOL     OW54769   5.052   4.818   1.611
84291SOL    HW154770   4.976   4.795   1.664
84291SOL    HW254771   5.016   4.863   1.535
84292SOL     OW54772   1.402  12.051   2.522
84292SOL    HW154773   1.487  12.095   2.521
84292SOL    HW254774   1.373  12.052   2.431
84293SOL     OW54775  11.392   0.927   2.812
84293SOL    HW154776  11.475   0.972   2.827
84293SOL    HW254777  11.365   0.898   2.899
84294SOL     OW54778   6.614   2.084   9.177
84294SOL    HW154779   6.599   1.996   9.213
84294SOL    HW254780   6.542   2.137   9.214
84295SOL     OW54781  10.260   4.893  14.876
84295SOL    HW154782  10.316   4.969  14.860
84295SOL    HW254783  10.301   4.848   0.067
84296SOL     OW54784   0.897  10.956   2.452
84296SOL    HW154785   0.948  10.938   2.373
84296SOL    HW254786   0.948  10.918   2.523
84297SOL     OW54787   7.458   9.979   7.665
84297SOL    HW154788   7.460   9.885   7.686
84297SOL    HW254789   7.541   9.995   7.620
84298SOL     OW54790   3.753   5.876   3.209
84298SOL    HW154791   3.670   5.916   3.182
84298SOL    HW254792   3.818   5.915   3.150
84299SOL     OW54793  12.213   9.077   7.874
84299SOL    HW154794  12.158   9.001   7.895
84299SOL    HW254795  12.200   9.091   7.780
84300SOL     OW54796   3.860  13.719   6.625
84300SOL    HW154797   3.916  13.793   6.603
84300SOL    HW254798   3.835  13.733   6.717
84301SOL     OW54799  14.602   2.497   0.599
84301SOL    HW154800  14.665   2.441   0.553
84301SOL    HW254801  14.653   2.573   0.626
84302SOL     OW54802  10.737  10.612   3.090
84302SOL    HW154803  10.685  10.593   3.168
84302SOL    HW254804  10.758  10.705   3.097
84303SOL     OW54805   0.077   4.132  12.268
84303SOL    HW154806   0.026   4.197  12.219
84303SOL    HW254807   0.164   4.136  12.229
84304SOL     OW54808   6.028   4.554  14.380
84304SOL    HW154809   5.948   4.575  14.430
84304SOL    HW254810   6.086   4.628  14.396
84305SOL     OW54811  11.027  10.797  13.673
84305SOL    HW154812  11.081  10.801  13.594
84305SOL    HW254813  11.061  10.867  13.729
84306SOL     OW54814  13.559   2.016   7.786
84306SOL    HW154815  13.506   2.055   7.717
84306SOL    HW254816  13.536   2.067   7.865
84307SOL     OW54817   5.852   0.550   9.723
84307SOL    HW154818   5.934   0.576   9.765
84307SOL    HW254819   5.813   0.632   9.693
84308SOL     OW54820   4.781   4.028   3.969
84308SOL    HW154821   4.693   4.066   3.960
84308SOL    HW254822   4.839   4.092   3.929
84309SOL     OW54823   2.240  10.357   4.000
84309SOL    HW154824   2.259  10.450   3.989
84309SOL    HW254825   2.192  10.333   3.920
84310SOL     OW54826  10.776  12.172  10.004
84310SOL    HW154827  10.828  12.250  10.024
84310SOL    HW254828  10.834  12.098  10.023
84311SOL     OW54829  11.873   9.362   1.720
84311SOL    HW154830  11.938   9.292   1.735
84311SOL    HW254831  11.843   9.386   1.807
84312SOL     OW54832   8.232   4.752   4.121
84312SOL    HW154833   8.245   4.679   4.060
84312SOL    HW254834   8.318   4.765   4.161
84313SOL     OW54835   1.180  11.998   8.120
84313SOL    HW154836   1.135  12.071   8.162
84313SOL    HW254837   1.208  11.942   8.192
84314SOL     OW54838   7.308  12.278   5.526
84314SOL    HW154839   7.291  12.370   5.508
84314SOL    HW254840   7.397  12.275   5.560
84315SOL     OW54841  13.794   7.184   9.847
84315SOL    HW154842  13.848   7.167   9.924
84315SOL    HW254843  13.856   7.215   9.780
84316SOL     OW54844  10.262   9.870   4.999
84316SOL    HW154845  10.316   9.879   5.077
84316SOL    HW254846  10.180   9.915   5.021
84317SOL     OW54847   7.340   2.701   2.608
84317SOL    HW154848   7.298   2.615   2.600
84317SOL    HW254849   7.274   2.762   2.575
84318SOL     OW54850  13.637  13.171   5.304
84318SOL    HW154851  13.715  13.116   5.313
84318SOL    HW254852  13.656  13.229   5.231
84319SOL     OW54853  11.998   2.587  10.915
84319SOL    HW154854  12.086   2.587  10.953
84319SOL    HW254855  11.940   2.569  10.990
84320SOL     OW54856   9.361   6.929   8.326
84320SOL    HW154857   9.413   6.870   8.382
84320SOL    HW254858   9.414   7.008   8.319
84321SOL     OW54859  11.500   1.321  14.431
84321SOL    HW154860  11.448   1.242  14.417
84321SOL    HW254861  11.554   1.330  14.353
84322SOL     OW54862   3.660   1.997  11.357
84322SOL    HW154863   3.597   1.925  11.360
84322SOL    HW254864   3.632   2.057  11.426
84323SOL     OW54865  12.448   0.044   0.618
84323SOL    HW154866  12.354   0.046   0.635
84323SOL    HW254867  12.481   0.125   0.658
84324SOL     OW54868   3.372   4.397   0.424
84324SOL    HW154869   3.395   4.305   0.410
84324SOL    HW254870   3.276   4.398   0.428
84325SOL     OW54871   7.301   4.714   6.105
84325SOL    HW154872   7.382   4.717   6.156
84325SOL    HW254873   7.315   4.776   6.033
84326SOL     OW54874  13.296  14.683  13.303
84326SOL    HW154875  13.341  14.706  13.221
84326SOL    HW254876  13.358  14.627  13.349
84327SOL     OW54877   0.326  12.494   6.055
84327SOL    HW154878   0.339  12.410   6.011
84327SOL    HW254879   0.249  12.532   6.012
84328SOL     OW54880  13.792   2.206   4.560
84328SOL    HW154881  13.804   2.149   4.636
84328SOL    HW254882  13.761   2.148   4.491
84329SOL     OW54883   4.387   5.188  13.535
84329SOL    HW154884   4.396   5.101  13.498
84329SOL    HW254885   4.477   5.220  13.543
84330SOL     OW54886  12.071   2.917  11.468
84330SOL    HW154887  12.080   2.828  11.501
84330SOL    HW254888  12.159   2.954  11.473
84331SOL     OW54889   8.667  12.153   8.506
84331SOL    HW154890   8.639  12.224   8.565
84331SOL    HW254891   8.663  12.074   8.559
84332SOL     OW54892  14.634  13.790   0.216
84332SOL    HW154893  14.726  13.770   0.201
84332SOL    HW254894  14.612  13.855   0.149
84333SOL     OW54895   0.831   4.695   2.570
84333SOL    HW154896   0.781   4.647   2.505
84333SOL    HW254897   0.923   4.679   2.546
84334SOL     OW54898   9.033   5.536   4.229
84334SOL    HW154899   9.039   5.455   4.178
84334SOL    HW254900   8.972   5.515   4.300
84335SOL     OW54901   4.523   7.790   0.394
84335SOL    HW154902   4.439   7.823   0.363
84335SOL    HW254903   4.556   7.858   0.453
84336SOL     OW54904   6.731   3.027   6.603
84336SOL    HW154905   6.641   3.014   6.633
84336SOL    HW254906   6.744   3.121   6.607
84337SOL     OW54907   1.334  14.534   6.033
84337SOL    HW154908   1.247  14.537   6.073
84337SOL    HW254909   1.394  14.541   6.107
84338SOL     OW54910   3.181   3.011   2.658
84338SOL    HW154911   3.210   2.920   2.660
84338SOL    HW254912   3.249   3.057   2.610
84339SOL     OW54913   5.601  12.585  10.950
84339SOL    HW154914   5.672  12.548  11.003
84339SOL    HW254915   5.645  12.620  10.872
84340SOL     OW54916   9.365   2.682   5.348
84340SOL    HW154917   9.406   2.624   5.285
84340SOL    HW254918   9.434   2.703   5.410
84341SOL     OW54919  10.229   4.226  11.345
84341SOL    HW154920  10.257   4.318  11.352
84341SOL    HW254921  10.209   4.201  11.435
84342SOL     OW54922   1.189  10.185  11.026
84342SOL    HW154923   1.172  10.107  11.079
84342SOL    HW254924   1.127  10.250  11.058
84343SOL     OW54925   6.229   3.226   0.923
84343SOL    HW154926   6.142   3.186   0.919
84343SOL    HW254927   6.225   3.286   0.997
84344SOL     OW54928   4.867   3.152   0.719
84344SOL    HW154929   4.888   3.110   0.802
84344SOL    HW254930   4.933   3.221   0.709
84345SOL     OW54931   4.566   5.843  11.739
84345SOL    HW154932   4.474   5.866  11.753
84345SOL    HW254933   4.571   5.816  11.648
84346SOL     OW54934  14.771  12.428   0.748
84346SOL    HW154935  14.857  12.432   0.705
84346SOL    HW254936  14.761  12.336   0.774
84347SOL     OW54937   2.745  11.704   0.514
84347SOL    HW154938   2.718  11.627   0.565
84347SOL    HW254939   2.798  11.668   0.443
84348SOL     OW54940   6.341   3.313  13.379
84348SOL    HW154941   6.328   3.226  13.416
84348SOL    HW254942   6.400   3.356  13.441
84349SOL     OW54943   4.874   9.807   5.606
84349SOL    HW154944   4.930   9.881   5.582
84349SOL    HW254945   4.898   9.787   5.697
84350SOL     OW54946  12.316   9.539   7.878
84350SOL    HW154947  12.239   9.493   7.914
84350SOL    HW254948  12.333   9.610   7.939
84351SOL     OW54949  10.511   6.849  13.649
84351SOL    HW154950  10.521   6.822  13.558
84351SOL    HW254951  10.590   6.815  13.693
84352SOL     OW54952   7.156   7.190   4.879
84352SOL    HW154953   7.133   7.273   4.836
84352SOL    HW254954   7.148   7.125   4.809
84353SOL     OW54955  11.513  14.337   9.208
84353SOL    HW154956  11.568  14.286   9.268
84353SOL    HW254957  11.447  14.377   9.265
84354SOL     OW54958   9.613   6.310   7.974
84354SOL    HW154959   9.661   6.296   7.892
84354SOL    HW254960   9.642   6.239   8.031
84355SOL     OW54961   3.443  14.809  13.559
84355SOL    HW154962   3.523  14.769  13.592
84355SOL    HW254963   3.372  14.758  13.599
84356SOL     OW54964   4.245   6.462  10.495
84356SOL    HW154965   4.179   6.430  10.434
84356SOL    HW254966   4.222   6.423  10.579
84357SOL     OW54967   8.056   4.723   5.353
84357SOL    HW154968   8.151   4.717   5.364
84357SOL    HW254969   8.031   4.639   5.316
84358SOL     OW54970  13.800   8.349   6.183
84358SOL    HW154971  13.835   8.349   6.272
84358SOL    HW254972  13.876   8.357   6.127
84359SOL     OW54973   7.529   8.565   4.851
84359SOL    HW154974   7.550   8.657   4.870
84359SOL    HW254975   7.452   8.570   4.794
84360SOL     OW54976   8.476   4.941  10.782
84360SOL    HW154977   8.408   4.981  10.837
84360SOL    HW254978   8.557   4.984  10.809
84361SOL     OW54979   2.520   3.061   5.760
84361SOL    HW154980   2.518   3.156   5.772
84361SOL    HW254981   2.461   3.026   5.827
84362SOL     OW54982  10.756  11.930   0.072
84362SOL    HW154983  10.673  11.908   0.030
84362SOL    HW254984  10.796  11.994   0.013
84363SOL     OW54985   4.933   5.339  10.212
84363SOL    HW154986   4.895   5.424  10.189
84363SOL    HW254987   4.859   5.278  10.207
84364SOL     OW54988  11.239   4.002   4.940
84364SOL    HW154989  11.219   4.085   4.984
84364SOL    HW254990  11.286   4.028   4.860
84365SOL     OW54991  13.712   2.256  10.837
84365SOL    HW154992  13.680   2.281  10.750
84365SOL    HW254993  13.690   2.163  10.846
84366SOL     OW54994   9.720   8.536   2.810
84366SOL    HW154995   9.675   8.513   2.892
84366SOL    HW254996   9.748   8.627   2.822
84367SOL     OW54997   8.815   6.262  12.877
84367SOL    HW154998   8.746   6.286  12.939
84367SOL    HW254999   8.830   6.169  12.893
84368SOL     OW55000   4.892   9.707   2.316
84368SOL    HW155001   4.967   9.692   2.374
84368SOL    HW255002   4.841   9.775   2.360
84369SOL     OW55003   5.973  11.774   2.338
84369SOL    HW155004   6.055  11.806   2.377
84369SOL    HW255005   5.929  11.853   2.306
84370SOL     OW55006   3.471   8.788   6.079
84370SOL    HW155007   3.462   8.780   5.984
84370SOL    HW255008   3.402   8.731   6.114
84371SOL     OW55009   8.945  14.786   9.920
84371SOL    HW155010   8.954  14.793   9.825
84371SOL    HW255011   8.984  14.702   9.943
84372SOL     OW55012   6.904   7.500   5.658
84372SOL    HW155013   6.983   7.504   5.605
84372SOL    HW255014   6.930   7.536   5.743
84373SOL     OW55015   1.850   4.224  14.814
84373SOL    HW155016   1.904   4.266  14.747
84373SOL    HW255017   1.823   4.141  14.776
84374SOL     OW55018  11.849   4.278   9.476
84374SOL    HW155019  11.939   4.284   9.510
84374SOL    HW255020  11.793   4.292   9.552
84375SOL     OW55021   4.141  12.260   7.530
84375SOL    HW155022   4.053  12.227   7.548
84375SOL    HW255023   4.150  12.337   7.586
84376SOL     OW55024   8.688   7.595   7.994
84376SOL    HW155025   8.724   7.683   7.982
84376SOL    HW255026   8.739   7.558   8.067
84377SOL     OW55027   9.925   6.643   9.007
84377SOL    HW155028   9.857   6.604   8.952
84377SOL    HW255029   9.971   6.569   9.046
84378SOL     OW55030  12.356   3.296   0.271
84378SOL    HW155031  12.385   3.383   0.243
84378SOL    HW255032  12.437   3.246   0.279
84379SOL     OW55033   3.931  12.106   4.532
84379SOL    HW155034   3.867  12.091   4.462
84379SOL    HW255035   3.957  12.197   4.522
84380SOL     OW55036   3.739   6.628   1.744
84380SOL    HW155037   3.751   6.716   1.708
84380SOL    HW255038   3.781   6.570   1.681
84381SOL     OW55039   0.173   2.826  12.056
84381SOL    HW155040   0.198   2.734  12.068
84381SOL    HW255041   0.121   2.826  11.976
84382SOL     OW55042  11.836   4.925   1.030
84382SOL    HW155043  11.820   4.952   1.120
84382SOL    HW255044  11.930   4.937   1.017
84383SOL     OW55045  10.346  11.382   5.377
84383SOL    HW155046  10.342  11.441   5.302
84383SOL    HW255047  10.275  11.320   5.364
84384SOL     OW55048   2.338   7.183  11.034
84384SOL    HW155049   2.286   7.129  11.094
84384SOL    HW255050   2.341   7.133  10.953
84385SOL     OW55051  13.683   0.312   3.701
84385SOL    HW155052  13.615   0.362   3.656
84385SOL    HW255053  13.758   0.314   3.641
84386SOL     OW55054  12.675   5.546   1.982
84386SOL    HW155055  12.768   5.541   1.961
84386SOL    HW255056  12.648   5.633   1.951
84387SOL     OW55057  10.434  13.065   2.976
84387SOL    HW155058  10.394  13.023   2.899
84387SOL    HW255059  10.511  13.012   2.994
84388SOL     OW55060   2.064   3.245  11.075
84388SOL    HW155061   2.030   3.318  11.024
84388SOL    HW255062   2.157   3.239  11.051
84389SOL     OW55063   5.870  11.746   6.671
84389SOL    HW155064   5.852  11.756   6.765
84389SOL    HW255065   5.932  11.816   6.651
84390SOL     OW55066   1.295   9.111   7.435
84390SOL    HW155067   1.291   9.027   7.388
84390SOL    HW255068   1.370   9.102   7.493
84391SOL     OW55069  13.431   3.271   4.857
84391SOL    HW155070  13.343   3.294   4.887
84391SOL    HW255071  13.485   3.273   4.936
84392SOL     OW55072  11.171   7.414   0.897
84392SOL    HW155073  11.155   7.500   0.936
84392SOL    HW255074  11.219   7.366   0.964
84393SOL     OW55075   4.328   2.204   7.057
84393SOL    HW155076   4.238   2.224   7.032
84393SOL    HW255077   4.380   2.274   7.019
84394SOL     OW55078  11.422   1.442   6.040
84394SOL    HW155079  11.408   1.468   6.132
84394SOL    HW255080  11.415   1.525   5.992
84395SOL     OW55081   7.290  14.425   6.562
84395SOL    HW155082   7.320  14.456   6.647
84395SOL    HW255083   7.358  14.364   6.534
84396SOL     OW55084   4.282   0.328  11.630
84396SOL    HW155085   4.297   0.254  11.571
84396SOL    HW255086   4.329   0.305  11.709
84397SOL     OW55087   7.838   1.546   2.824
84397SOL    HW155088   7.926   1.550   2.785
84397SOL    HW255089   7.797   1.628   2.796
84398SOL     OW55090  13.615   7.299   2.362
84398SOL    HW155091  13.690   7.355   2.343
84398SOL    HW255092  13.640   7.250   2.440
84399SOL     OW55093  12.090  11.138   3.415
84399SOL    HW155094  12.097  11.195   3.338
84399SOL    HW255095  12.095  11.197   3.490
84400SOL     OW55096   5.501   3.022   1.147
84400SOL    HW155097   5.437   3.071   1.096
84400SOL    HW255098   5.469   3.026   1.237
84401SOL     OW55099   8.168  11.627   8.250
84401SOL    HW155100   8.187  11.692   8.318
84401SOL    HW255101   8.073  11.625   8.245
84402SOL     OW55102   7.803   3.068   8.962
84402SOL    HW155103   7.765   3.124   8.894
84402SOL    HW255104   7.778   2.979   8.937
84403SOL     OW55105   4.119   9.196   4.270
84403SOL    HW155106   4.165   9.254   4.331
84403SOL    HW255107   4.187   9.168   4.209
84404SOL     OW55108   6.251  10.275  10.447
84404SOL    HW155109   6.267  10.369  10.451
84404SOL    HW255110   6.184  10.259  10.513
84405SOL     OW55111  10.565   7.353  10.094
84405SOL    HW155112  10.605   7.275  10.132
84405SOL    HW255113  10.631   7.388  10.034
84406SOL     OW55114   1.045   0.386  10.777
84406SOL    HW155115   0.964   0.347  10.810
84406SOL    HW255116   1.114   0.328  10.809
84407SOL     OW55117   0.315   7.904   0.960
84407SOL    HW155118   0.317   7.825   0.906
84407SOL    HW255119   0.265   7.878   1.038
84408SOL     OW55120   9.177  12.084   2.846
84408SOL    HW155121   9.183  12.150   2.777
84408SOL    HW255122   9.192  12.001   2.802
84409SOL     OW55123   4.468  12.775   8.880
84409SOL    HW155124   4.540  12.838   8.874
84409SOL    HW255125   4.391  12.824   8.850
84410SOL     OW55126   9.852  14.072   4.002
84410SOL    HW155127   9.783  14.064   4.068
84410SOL    HW255128   9.810  14.047   3.920
84411SOL     OW55129   9.046   6.648   2.581
84411SOL    HW155130   9.014   6.626   2.493
84411SOL    HW255131   9.140   6.662   2.569
84412SOL     OW55132  11.193   1.868  11.636
84412SOL    HW155133  11.105   1.876  11.671
84412SOL    HW255134  11.183   1.883  11.542
84413SOL     OW55135   8.690   1.071   4.019
84413SOL    HW155136   8.610   1.083   3.967
84413SOL    HW255137   8.659   1.047   4.106
84414SOL     OW55138  12.543  12.619   3.475
84414SOL    HW155139  12.506  12.565   3.545
84414SOL    HW255140  12.631  12.641   3.505
84415SOL     OW55141   5.823  12.709   4.684
84415SOL    HW155142   5.774  12.778   4.728
84415SOL    HW255143   5.778  12.628   4.710
84416SOL     OW55144  14.358   2.908   7.150
84416SOL    HW155145  14.294   2.840   7.129
84416SOL    HW255146  14.441   2.861   7.155
84417SOL     OW55147  11.757   8.886   5.468
84417SOL    HW155148  11.690   8.817   5.472
84417SOL    HW255149  11.799   8.883   5.555
84418SOL     OW55150   6.158   9.338  14.702
84418SOL    HW155151   6.103   9.303  14.772
84418SOL    HW255152   6.217   9.399  14.746
84419SOL     OW55153   5.921   4.679  11.231
84419SOL    HW155154   5.857   4.692  11.302
84419SOL    HW255155   5.993   4.738  11.254
84420SOL     OW55156   9.126   5.250   8.406
84420SOL    HW155157   9.124   5.154   8.405
84420SOL    HW255158   9.188   5.273   8.337
84421SOL     OW55159   2.382  11.932   3.223
84421SOL    HW155160   2.418  11.906   3.308
84421SOL    HW255161   2.381  11.851   3.172
84422SOL     OW55162  12.998  13.071   9.349
84422SOL    HW155163  13.084  13.051   9.385
84422SOL    HW255164  12.936  13.042   9.417
84423SOL     OW55165   1.935   3.753   8.916
84423SOL    HW155166   1.940   3.681   8.979
84423SOL    HW255167   1.956   3.712   8.832
84424SOL     OW55168  10.923   6.859  10.532
84424SOL    HW155169  10.834   6.873  10.500
84424SOL    HW255170  10.969   6.941  10.513
84425SOL     OW55171  10.017   0.635   9.692
84425SOL    HW155172   9.967   0.635   9.610
84425SOL    HW255173   9.951   0.627   9.760
84426SOL     OW55174  14.583   7.281  11.019
84426SOL    HW155175  14.592   7.368  10.981
84426SOL    HW255176  14.598   7.294  11.113
84427SOL     OW55177  13.107   8.026   8.764
84427SOL    HW155178  13.134   7.945   8.721
84427SOL    HW255179  13.045   8.066   8.702
84428SOL     OW55180   7.375   7.311  12.988
84428SOL    HW155181   7.422   7.391  12.962
84428SOL    HW255182   7.429   7.272  13.056
84429SOL     OW55183   6.919   3.014   8.429
84429SOL    HW155184   6.832   3.012   8.388
84429SOL    HW255185   6.954   2.927   8.415
84430SOL     OW55186   3.283  14.688   2.138
84430SOL    HW155187   3.355  14.632   2.109
84430SOL    HW255188   3.294  14.769   2.088
84431SOL     OW55189   8.586   5.960   7.276
84431SOL    HW155190   8.524   5.992   7.342
84431SOL    HW255191   8.605   5.870   7.303
84432SOL     OW55192   4.567   0.984   9.237
84432SOL    HW155193   4.645   0.939   9.266
84432SOL    HW255194   4.537   0.935   9.161
84433SOL     OW55195  11.989   3.817   1.945
84433SOL    HW155196  11.957   3.778   1.864
84433SOL    HW255197  12.040   3.893   1.917
84434SOL     OW55198  11.480  11.642   3.633
84434SOL    HW155199  11.557  11.693   3.655
84434SOL    HW255200  11.482  11.568   3.694
84435SOL     OW55201   1.438  13.024   0.888
84435SOL    HW155202   1.429  13.014   0.793
84435SOL    HW255203   1.348  13.040   0.919
84436SOL     OW55204  10.664  14.429   9.796
84436SOL    HW155205  10.614  14.494   9.746
84436SOL    HW255206  10.641  14.446   9.887
84437SOL     OW55207   6.027   3.006  14.005
84437SOL    HW155208   6.029   3.099  13.985
84437SOL    HW255209   5.934   2.983  14.002
84438SOL     OW55210   1.066   1.287   8.248
84438SOL    HW155211   1.049   1.222   8.180
84438SOL    HW255212   1.160   1.280   8.265
84439SOL     OW55213   8.075   5.854   7.652
84439SOL    HW155214   8.162   5.816   7.645
84439SOL    HW255215   8.043   5.859   7.562
84440SOL     OW55216   9.270  10.927  10.889
84440SOL    HW155217   9.271  10.886  10.976
84440SOL    HW255218   9.227  11.012  10.904
84441SOL     OW55219   1.007  14.790   9.440
84441SOL    HW155220   0.973  14.840   9.514
84441SOL    HW255221   1.096  14.766   9.467
84442SOL     OW55222  13.584   6.375  12.038
84442SOL    HW155223  13.623   6.324  12.109
84442SOL    HW255224  13.531   6.441  12.082
84443SOL     OW55225   0.505   7.507   2.533
84443SOL    HW155226   0.548   7.431   2.495
84443SOL    HW255227   0.569   7.542   2.595
84444SOL     OW55228   6.454   3.075   1.633
84444SOL    HW155229   6.520   3.082   1.564
84444SOL    HW255230   6.425   2.984   1.630
84445SOL     OW55231  13.220  13.213   0.406
84445SOL    HW155232  13.315  13.211   0.423
84445SOL    HW255233  13.211  13.175   0.318
84446SOL     OW55234   0.398   6.726  14.299
84446SOL    HW155235   0.348   6.687  14.227
84446SOL    HW255236   0.461   6.658  14.324
84447SOL     OW55237   4.482   3.563   8.704
84447SOL    HW155238   4.489   3.649   8.664
84447SOL    HW255239   4.510   3.502   8.636
84448SOL     OW55240  13.292   4.089  14.662
84448SOL    HW155241  13.383   4.058  14.661
84448SOL    HW255242  13.267   4.093  14.570
84449SOL     OW55243   7.589   2.015   8.654
84449SOL    HW155244   7.621   2.076   8.587
84449SOL    HW255245   7.587   2.067   8.734
84450SOL     OW55246   0.078   1.684   6.186
84450SOL    HW155247   0.068   1.630   6.107
84450SOL    HW255248   0.167   1.665   6.217
84451SOL     OW55249   8.617  13.457   7.118
84451SOL    HW155250   8.585  13.538   7.078
84451SOL    HW255251   8.710  13.454   7.096
84452SOL     OW55252   5.135   4.324   9.915
84452SOL    HW155253   5.130   4.232   9.889
84452SOL    HW255254   5.226   4.349   9.899
84453SOL     OW55255  12.255  10.593   4.344
84453SOL    HW155256  12.306  10.529   4.294
84453SOL    HW255257  12.291  10.678   4.318
84454SOL     OW55258  10.832   9.194   4.691
84454SOL    HW155259  10.921   9.163   4.673
84454SOL    HW255260  10.819   9.180   4.784
84455SOL     OW55261   9.318   7.909   9.739
84455SOL    HW155262   9.400   7.918   9.691
84455SOL    HW255263   9.319   7.819   9.772
84456SOL     OW55264   0.762   2.115  12.751
84456SOL    HW155265   0.715   2.032  12.755
84456SOL    HW255266   0.775   2.131  12.658
84457SOL     OW55267   2.975   1.084  11.988
84457SOL    HW155268   2.916   1.130  12.048
84457SOL    HW255269   3.038   1.040  12.045
84458SOL     OW55270   6.957   3.719   3.214
84458SOL    HW155271   6.954   3.744   3.306
84458SOL    HW255272   7.045   3.744   3.186
84459SOL     OW55273  12.051   3.594   3.758
84459SOL    HW155274  12.079   3.517   3.808
84459SOL    HW255275  12.004   3.557   3.683
84460SOL     OW55276   0.243  14.001   9.795
84460SOL    HW155277   0.290  13.957   9.724
84460SOL    HW255278   0.201  13.929   9.842
84461SOL     OW55279   0.339   5.665  14.352
84461SOL    HW155280   0.331   5.733  14.418
84461SOL    HW255281   0.248   5.639  14.333
84462SOL     OW55282   0.225   2.414  14.425
84462SOL    HW155283   0.251   2.322  14.420
84462SOL    HW255284   0.133   2.416  14.400
84463SOL     OW55285   9.756   3.195  13.185
84463SOL    HW155286   9.801   3.157  13.110
84463SOL    HW255287   9.786   3.286  13.188
84464SOL     OW55288   5.134   4.961   0.314
84464SOL    HW155289   5.215   5.004   0.343
84464SOL    HW255290   5.118   4.893   0.380
84465SOL     OW55291   2.865   1.637  11.583
84465SOL    HW155292   2.918   1.683  11.649
84465SOL    HW255293   2.876   1.544  11.604
84466SOL     OW55294   8.166   8.980   8.284
84466SOL    HW155295   8.219   8.907   8.317
84466SOL    HW255296   8.225   9.029   8.227
84467SOL     OW55297   1.118  13.716   0.338
84467SOL    HW155298   1.026  13.688   0.330
84467SOL    HW255299   1.116  13.809   0.315
84468SOL     OW55300  10.971   9.185  13.125
84468SOL    HW155301  10.954   9.133  13.203
84468SOL    HW255302  10.885   9.195  13.083
84469SOL     OW55303  12.282   6.334   4.072
84469SOL    HW155304  12.320   6.265   4.126
84469SOL    HW255305  12.209   6.368   4.124
84470SOL     OW55306   5.747   4.342   2.116
84470SOL    HW155307   5.749   4.248   2.099
84470SOL    HW255308   5.813   4.356   2.183
84471SOL     OW55309  13.021   2.310   3.349
84471SOL    HW155310  13.108   2.281   3.321
84471SOL    HW255311  12.970   2.313   3.268
84472SOL     OW55312  13.808   0.005   4.964
84472SOL    HW155313  13.885   0.022   4.910
84472SOL    HW255314  13.840  14.832   5.035
84473SOL     OW55315   4.955   9.183   1.977
84473SOL    HW155316   4.960   9.277   1.992
84473SOL    HW255317   4.932   9.146   2.062
84474SOL     OW55318   3.078  12.884   0.348
84474SOL    HW155319   3.051  12.898   0.257
84474SOL    HW255320   3.034  12.954   0.396
84475SOL     OW55321  14.393   6.533   4.880
84475SOL    HW155322  14.322   6.566   4.825
84475SOL    HW255323  14.470   6.535   4.823
84476SOL     OW55324   8.621   8.889   0.248
84476SOL    HW155325   8.692   8.855   0.195
84476SOL    HW255326   8.599   8.973   0.208
84477SOL     OW55327   0.394  11.921  14.306
84477SOL    HW155328   0.308  11.888  14.333
84477SOL    HW255329   0.410  11.996  14.364
84478SOL     OW55330  14.039   7.651  14.766
84478SOL    HW155331  14.025   7.595  14.842
84478SOL    HW255332  13.951   7.685  14.745
84479SOL     OW55333   8.328   1.792  11.027
84479SOL    HW155334   8.241   1.807  10.990
84479SOL    HW255335   8.346   1.870  11.079
84480SOL     OW55336   2.900   7.247   8.969
84480SOL    HW155337   2.841   7.172   8.964
84480SOL    HW255338   2.981   7.217   8.927
84481SOL     OW55339   8.336   5.740  13.721
84481SOL    HW155340   8.408   5.678  13.729
84481SOL    HW255341   8.300   5.745  13.810
84482SOL     OW55342   7.442   6.143  12.940
84482SOL    HW155343   7.525   6.135  12.894
84482SOL    HW255344   7.382   6.183  12.877
84483SOL     OW55345   3.554   9.321   4.435
84483SOL    HW155346   3.621   9.254   4.421
84483SOL    HW255347   3.597   9.404   4.412
84484SOL     OW55348   4.204   8.025   1.794
84484SOL    HW155349   4.208   7.936   1.759
84484SOL    HW255350   4.295   8.046   1.816
84485SOL     OW55351   4.121   5.267   8.196
84485SOL    HW155352   4.122   5.316   8.114
84485SOL    HW255353   4.208   5.227   8.201
84486SOL     OW55354  10.889   3.069   8.798
84486SOL    HW155355  10.983   3.082   8.782
84486SOL    HW255356  10.848   3.145   8.756
84487SOL     OW55357   0.532   0.553  11.855
84487SOL    HW155358   0.450   0.587  11.819
84487SOL    HW255359   0.546   0.604  11.934
84488SOL     OW55360   1.920   1.764   4.647
84488SOL    HW155361   1.930   1.672   4.620
84488SOL    HW255362   1.828   1.785   4.629
84489SOL     OW55363   9.127   7.891   6.440
84489SOL    HW155364   9.208   7.889   6.491
84489SOL    HW255365   9.109   7.984   6.426
84490SOL     OW55366   2.974   1.296  11.275
84490SOL    HW155367   2.981   1.381  11.232
84490SOL    HW255368   2.928   1.315  11.357
84491SOL     OW55369  12.023   8.492   7.545
84491SOL    HW155370  12.034   8.443   7.463
84491SOL    HW255371  12.112   8.502   7.580
84492SOL     OW55372  12.332   1.696  14.178
84492SOL    HW155373  12.371   1.763  14.233
84492SOL    HW255374  12.282   1.641  14.238
84493SOL     OW55375   5.264   8.689   5.137
84493SOL    HW155376   5.296   8.645   5.058
84493SOL    HW255377   5.324   8.661   5.206
84494SOL     OW55378   8.892  11.468   2.904
84494SOL    HW155379   8.806  11.464   2.863
84494SOL    HW255380   8.933  11.546   2.867
84495SOL     OW55381   2.479   3.925   1.062
84495SOL    HW155382   2.555   3.888   1.108
84495SOL    HW255383   2.512   3.944   0.974
84496SOL     OW55384  10.455  10.665   6.530
84496SOL    HW155385  10.371  10.620   6.531
84496SOL    HW255386  10.432  10.757   6.517
84497SOL     OW55387  12.895   1.821  12.337
84497SOL    HW155388  12.940   1.776  12.265
84497SOL    HW255389  12.823   1.762  12.360
84498SOL     OW55390   0.885   7.039   0.516
84498SOL    HW155391   0.791   7.035   0.533
84498SOL    HW255392   0.916   7.111   0.571
84499SOL     OW55393  10.744  11.350   1.756
84499SOL    HW155394  10.782  11.348   1.668
84499SOL    HW255395  10.743  11.442   1.780
84500SOL     OW55396  12.106  14.638   2.618
84500SOL    HW155397  12.047  14.637   2.542
84500SOL    HW255398  12.142  14.726   2.619
84501SOL     OW55399   8.179   5.303  10.292
84501SOL    HW155400   8.252   5.272  10.238
84501SOL    HW255401   8.125   5.226  10.305
84502SOL     OW55402   3.924   6.305   7.544
84502SOL    HW155403   4.019   6.297   7.553
84502SOL    HW255404   3.898   6.364   7.615
84503SOL     OW55405   8.068   2.451   5.914
84503SOL    HW155406   8.097   2.538   5.885
84503SOL    HW255407   8.025   2.467   5.998
84504SOL     OW55408  12.087   3.422   3.099
84504SOL    HW155409  12.051   3.459   3.180
84504SOL    HW255410  12.125   3.497   3.053
84505SOL     OW55411  11.773   2.007   5.072
84505SOL    HW155412  11.835   1.948   5.112
84505SOL    HW255413  11.711   1.950   5.027
84506SOL     OW55414  11.721  13.149  11.445
84506SOL    HW155415  11.644  13.115  11.399
84506SOL    HW255416  11.770  13.196  11.378
84507SOL     OW55417   2.309   0.345  12.319
84507SOL    HW155418   2.254   0.335  12.242
84507SOL    HW255419   2.380   0.404  12.291
84508SOL     OW55420  13.380  11.991   2.167
84508SOL    HW155421  13.287  11.978   2.147
84508SOL    HW255422  13.380  12.054   2.239
84509SOL     OW55423   4.081  11.138  11.471
84509SOL    HW155424   4.047  11.224  11.494
84509SOL    HW255425   4.176  11.148  11.472
84510SOL     OW55426   0.627   0.063   8.322
84510SOL    HW155427   0.699   0.001   8.334
84510SOL    HW255428   0.575   0.026   8.251
84511SOL     OW55429   4.066   8.318  10.144
84511SOL    HW155430   4.071   8.226  10.169
84511SOL    HW255431   4.157   8.347  10.138
84512SOL     OW55432   2.463   5.705   7.165
84512SOL    HW155433   2.494   5.626   7.120
84512SOL    HW255434   2.466   5.683   7.258
84513SOL     OW55435   6.047   0.609   1.627
84513SOL    HW155436   5.975   0.614   1.565
84513SOL    HW255437   6.117   0.563   1.580
84514SOL     OW55438  13.929  10.465  10.776
84514SOL    HW155439  13.870  10.414  10.719
84514SOL    HW255440  13.874  10.536  10.808
84515SOL     OW55441   3.881   3.928   0.313
84515SOL    HW155442   3.914   3.875   0.386
84515SOL    HW255443   3.939   4.004   0.310
84516SOL     OW55444  10.051  12.771   0.313
84516SOL    HW155445  10.057  12.814   0.228
84516SOL    HW255446  10.141  12.760   0.342
84517SOL     OW55447   4.759   1.853   3.016
84517SOL    HW155448   4.788   1.901   2.938
84517SOL    HW255449   4.802   1.897   3.089
84518SOL     OW55450   5.081  14.551   1.367
84518SOL    HW155451   5.131  14.484   1.321
84518SOL    HW255452   5.124  14.633   1.344
84519SOL     OW55453   2.921   4.703   0.400
84519SOL    HW155454   2.983   4.765   0.363
84519SOL    HW255455   2.927   4.717   0.495
84520SOL     OW55456  13.845   5.409   6.656
84520SOL    HW155457  13.782   5.447   6.594
84520SOL    HW255458  13.895   5.483   6.689
84521SOL     OW55459   8.997   9.510   1.608
84521SOL    HW155460   9.023   9.589   1.655
84521SOL    HW255461   9.075   9.484   1.559
84522SOL     OW55462   0.457   3.210  11.359
84522SOL    HW155463   0.370   3.173  11.377
84522SOL    HW255464   0.454   3.298  11.395
84523SOL     OW55465   1.091  10.196   4.566
84523SOL    HW155466   1.029  10.175   4.496
84523SOL    HW255467   1.043  10.255   4.624
84524SOL     OW55468   9.323   7.849  12.762
84524SOL    HW155469   9.327   7.844  12.858
84524SOL    HW255470   9.297   7.939  12.744
84525SOL     OW55471   4.618   1.193   0.564
84525SOL    HW155472   4.635   1.177   0.471
84525SOL    HW255473   4.573   1.114   0.594
84526SOL     OW55474  14.742   7.730   2.997
84526SOL    HW155475  14.746   7.823   2.974
84526SOL    HW255476  14.830   7.708   3.028
84527SOL     OW55477  11.259   1.763  13.567
84527SOL    HW155478  11.178   1.806  13.540
84527SOL    HW255479  11.298   1.731  13.486
84528SOL     OW55480   7.305   7.406   1.366
84528SOL    HW155481   7.320   7.324   1.413
84528SOL    HW255482   7.244   7.455   1.421
84529SOL     OW55483  12.173   9.206  13.635
84529SOL    HW155484  12.184   9.236  13.545
84529SOL    HW255485  12.159   9.286  13.686
84530SOL     OW55486   8.903  14.174  11.860
84530SOL    HW155487   8.865  14.258  11.833
84530SOL    HW255488   8.982  14.198  11.909
84531SOL     OW55489   0.046   1.969   8.277
84531SOL    HW155490   0.081   2.050   8.242
84531SOL    HW255491  14.833   1.978   8.268
84532SOL     OW55492   3.768   9.238   8.585
84532SOL    HW155493   3.797   9.183   8.658
84532SOL    HW255494   3.780   9.183   8.507
84533SOL     OW55495   0.098   3.627   5.343
84533SOL    HW155496   0.173   3.662   5.294
84533SOL    HW255497   0.129   3.624   5.434
84534SOL     OW55498  11.445  12.173   6.213
84534SOL    HW155499  11.540  12.173   6.207
84534SOL    HW255500  11.417  12.251   6.165
84535SOL     OW55501  14.270   2.027  11.710
84535SOL    HW155502  14.314   2.044  11.793
84535SOL    HW255503  14.217   2.105  11.694
84536SOL     OW55504  12.339   6.119   7.253
84536SOL    HW155505  12.427   6.098   7.283
84536SOL    HW255506  12.295   6.154   7.330
84537SOL     OW55507   1.542  12.177   6.581
84537SOL    HW155508   1.544  12.111   6.511
84537SOL    HW255509   1.633  12.182   6.612
84538SOL     OW55510  11.466  13.836   4.259
84538SOL    HW155511  11.546  13.888   4.260
84538SOL    HW255512  11.469  13.786   4.340
84539SOL     OW55513   9.206  10.682   9.636
84539SOL    HW155514   9.264  10.741   9.684
84539SOL    HW255515   9.193  10.726   9.552
84540SOL     OW55516   6.082   9.622   8.842
84540SOL    HW155517   6.063   9.554   8.907
84540SOL    HW255518   6.101   9.700   8.894
84541SOL     OW55519   4.301   8.604   3.893
84541SOL    HW155520   4.253   8.676   3.853
84541SOL    HW255521   4.393   8.622   3.871
84542SOL     OW55522   4.436   2.584  10.612
84542SOL    HW155523   4.378   2.553  10.542
84542SOL    HW255524   4.432   2.679  10.606
84543SOL     OW55525   8.918  13.337  12.143
84543SOL    HW155526   8.893  13.261  12.195
84543SOL    HW255527   8.997  13.370  12.186
84544SOL     OW55528   6.733   6.154   2.349
84544SOL    HW155529   6.818   6.121   2.380
84544SOL    HW255530   6.673   6.139   2.422
84545SOL     OW55531   6.525  14.348   0.891
84545SOL    HW155532   6.538  14.406   0.966
84545SOL    HW255533   6.504  14.406   0.819
84546SOL     OW55534   7.901  10.522   8.272
84546SOL    HW155535   7.843  10.495   8.201
84546SOL    HW255536   7.914  10.615   8.258
84547SOL     OW55537  14.608   0.808  13.849
84547SOL    HW155538  14.543   0.832  13.784
84547SOL    HW255539  14.584   0.720  13.876
84548SOL     OW55540  13.175  14.863   8.924
84548SOL    HW155541  13.243  14.859   8.992
84548SOL    HW255542  13.135  14.776   8.924
84549SOL     OW55543  12.628   0.412   2.473
84549SOL    HW155544  12.599   0.357   2.546
84549SOL    HW255545  12.724   0.414   2.481
84550SOL     OW55546   1.705   8.747   8.965
84550SOL    HW155547   1.711   8.843   8.961
84550SOL    HW255548   1.730   8.725   9.054
84551SOL     OW55549  10.492   2.586   1.162
84551SOL    HW155550  10.452   2.628   1.238
84551SOL    HW255551  10.423   2.583   1.096
84552SOL     OW55552   2.087   8.838   4.457
84552SOL    HW155553   2.117   8.925   4.481
84552SOL    HW255554   2.045   8.850   4.371
84553SOL     OW55555   0.330  14.871  13.096
84553SOL    HW155556   0.268  14.816  13.049
84553SOL    HW255557   0.334   0.070  13.045
84554SOL     OW55558   2.415   7.912   3.079
84554SOL    HW155559   2.413   8.003   3.048
84554SOL    HW255560   2.324   7.894   3.105
84555SOL     OW55561   3.740  12.076   5.393
84555SOL    HW155562   3.654  12.039   5.412
84555SOL    HW255563   3.781  12.014   5.333
84556SOL     OW55564  11.521  13.428   1.750
84556SOL    HW155565  11.485  13.406   1.664
84556SOL    HW255566  11.504  13.522   1.759
84557SOL     OW55567   1.571  12.094  12.654
84557SOL    HW155568   1.503  12.113  12.590
84557SOL    HW255569   1.551  12.153  12.728
84558SOL     OW55570   4.540  11.812   6.699
84558SOL    HW155571   4.586  11.858   6.628
84558SOL    HW255572   4.449  11.810   6.670
84559SOL     OW55573   9.797   2.869  13.604
84559SOL    HW155574   9.808   2.938  13.538
84559SOL    HW255575   9.779   2.916  13.685
84560SOL     OW55576  12.829   0.896   2.299
84560SOL    HW155577  12.790   0.962   2.357
84560SOL    HW255578  12.921   0.895   2.324
84561SOL     OW55579   1.860   4.759   6.904
84561SOL    HW155580   1.795   4.771   6.973
84561SOL    HW255581   1.825   4.689   6.849
84562SOL     OW55582   2.093   1.590  12.871
84562SOL    HW155583   2.082   1.617  12.962
84562SOL    HW255584   2.023   1.635  12.824
84563SOL     OW55585   9.283   1.664  12.862
84563SOL    HW155586   9.248   1.597  12.802
84563SOL    HW255587   9.330   1.724  12.805
84564SOL     OW55588   0.719  11.899   8.546
84564SOL    HW155589   0.741  11.809   8.571
84564SOL    HW255590   0.711  11.896   8.451
84565SOL     OW55591   2.694  11.805   2.793
84565SOL    HW155592   2.732  11.743   2.731
84565SOL    HW255593   2.628  11.853   2.742
84566SOL     OW55594   5.137   6.107   9.611
84566SOL    HW155595   5.100   6.142   9.692
84566SOL    HW255596   5.089   6.152   9.541
84567SOL     OW55597   6.121   8.323   5.705
84567SOL    HW155598   6.181   8.298   5.634
84567SOL    HW255599   6.099   8.414   5.687
84568SOL     OW55600  12.583  13.452   4.652
84568SOL    HW155601  12.644  13.408   4.593
84568SOL    HW255602  12.632  13.526   4.686
84569SOL     OW55603   7.843   6.917   6.256
84569SOL    HW155604   7.783   6.904   6.330
84569SOL    HW255605   7.918   6.862   6.276
84570SOL     OW55606   4.143  14.653   0.022
84570SOL    HW155607   4.124  14.668   0.115
84570SOL    HW255608   4.057  14.642  14.864
84571SOL     OW55609  14.702   0.097   7.733
84571SOL    HW155610  14.666   0.179   7.768
84571SOL    HW255611  14.630   0.059   7.683
84572SOL     OW55612  10.926   4.703   4.734
84572SOL    HW155613  10.833   4.705   4.714
84572SOL    HW255614  10.931   4.688   4.828
84573SOL     OW55615  14.183   2.376   0.826
84573SOL    HW155616  14.254   2.317   0.852
84573SOL    HW255617  14.108   2.348   0.879
84574SOL     OW55618   2.463   6.155   2.912
84574SOL    HW155619   2.455   6.223   2.844
84574SOL    HW255620   2.557   6.138   2.917
84575SOL     OW55621   4.724   7.591   1.760
84575SOL    HW155622   4.788   7.536   1.716
84575SOL    HW255623   4.641   7.570   1.717
84576SOL     OW55624   0.200   0.337   1.363
84576SOL    HW155625   0.110   0.362   1.386
84576SOL    HW255626   0.253   0.372   1.435
84577SOL     OW55627   2.570   3.397   4.992
84577SOL    HW155628   2.504   3.331   5.013
84577SOL    HW255629   2.599   3.375   4.903
84578SOL     OW55630  12.244   8.654   7.877
84578SOL    HW155631  12.266   8.629   7.966
84578SOL    HW255632  12.152   8.680   7.881
84579SOL     OW55633   5.956   5.977  12.507
84579SOL    HW155634   6.042   5.937  12.519
84579SOL    HW255635   5.896   5.921  12.556
84580SOL     OW55636   4.681   7.445  13.759
84580SOL    HW155637   4.663   7.539  13.759
84580SOL    HW255638   4.682   7.421  13.667
84581SOL     OW55639   4.053   0.573   4.742
84581SOL    HW155640   4.135   0.550   4.698
84581SOL    HW255641   3.999   0.494   4.735
84582SOL     OW55642  12.001   5.101   3.154
84582SOL    HW155643  12.043   5.156   3.088
84582SOL    HW255644  12.072   5.073   3.211
84583SOL     OW55645   6.983   9.999   5.359
84583SOL    HW155646   6.962   9.933   5.292
84583SOL    HW255647   7.021   9.948   5.431
84584SOL     OW55648   2.551   4.249   2.793
84584SOL    HW155649   2.488   4.217   2.729
84584SOL    HW255650   2.610   4.305   2.743
84585SOL     OW55651   0.243   4.341   4.162
84585SOL    HW155652   0.199   4.260   4.190
84585SOL    HW255653   0.281   4.319   4.077
84586SOL     OW55654   5.826   6.234  13.683
84586SOL    HW155655   5.889   6.300  13.714
84586SOL    HW255656   5.871   6.151  13.695
84587SOL     OW55657  10.332  11.404  13.886
84587SOL    HW155658  10.401  11.339  13.902
84587SOL    HW255659  10.378  11.485  13.866
84588SOL     OW55660   6.911   4.865   2.846
84588SOL    HW155661   6.977   4.922   2.806
84588SOL    HW255662   6.883   4.912   2.924
84589SOL     OW55663   9.786  10.943  10.006
84589SOL    HW155664   9.825  10.935  10.093
84589SOL    HW255665   9.727  10.869   9.999
84590SOL     OW55666   9.117  14.563   9.924
84590SOL    HW155667   9.153  14.482   9.887
84590SOL    HW255668   9.193  14.607   9.963
84591SOL     OW55669   6.182   3.634   2.663
84591SOL    HW155670   6.220   3.579   2.594
84591SOL    HW255671   6.185   3.723   2.628
84592SOL     OW55672  13.688  11.503   0.974
84592SOL    HW155673  13.681  11.548   0.889
84592SOL    HW255674  13.606  11.455   0.983
84593SOL     OW55675   8.653   3.250  12.595
84593SOL    HW155676   8.734   3.293  12.622
84593SOL    HW255677   8.681   3.184  12.531
84594SOL     OW55678   3.254   1.047   6.652
84594SOL    HW155679   3.272   1.001   6.571
84594SOL    HW255680   3.252   1.140   6.627
84595SOL     OW55681   0.654   2.993   0.560
84595SOL    HW155682   0.716   2.988   0.487
84595SOL    HW255683   0.693   3.057   0.620
84596SOL     OW55684   1.791  11.403   0.130
84596SOL    HW155685   1.760  11.319   0.163
84596SOL    HW255686   1.794  11.459   0.208
84597SOL     OW55687  11.862  12.368  10.484
84597SOL    HW155688  11.848  12.324  10.568
84597SOL    HW255689  11.785  12.423  10.472
84598SOL     OW55690  12.304   6.180   9.475
84598SOL    HW155691  12.361   6.108   9.450
84598SOL    HW255692  12.353   6.259   9.451
84599SOL     OW55693   0.987   4.302   7.347
84599SOL    HW155694   0.939   4.238   7.400
84599SOL    HW255695   0.956   4.387   7.379
84600SOL     OW55696  12.057  11.442   9.995
84600SOL    HW155697  12.151  11.429   9.980
84600SOL    HW255698  12.023  11.471   9.910
84601SOL     OW55699   1.941   9.385   1.466
84601SOL    HW155700   1.860   9.401   1.514
84601SOL    HW255701   1.967   9.296   1.492
84602SOL     OW55702   2.750  14.063   4.027
84602SOL    HW155703   2.761  13.970   4.049
84602SOL    HW255704   2.781  14.070   3.937
84603SOL     OW55705  10.833  10.405   1.244
84603SOL    HW155706  10.821  10.454   1.162
84603SOL    HW255707  10.928  10.397   1.253
84604SOL     OW55708   3.529   3.790   4.145
84604SOL    HW155709   3.493   3.721   4.201
84604SOL    HW255710   3.549   3.862   4.205
84605SOL     OW55711   7.356   2.868   4.020
84605SOL    HW155712   7.274   2.895   3.977
84605SOL    HW255713   7.383   2.945   4.069
84606SOL     OW55714  10.442  13.791   9.811
84606SOL    HW155715  10.536  13.776   9.821
84606SOL    HW255716  10.430  13.806   9.717
84607SOL     OW55717   0.158   4.722  11.011
84607SOL    HW155718   0.198   4.658  11.069
84607SOL    HW255719   0.226   4.788  10.997
84608SOL     OW55720  14.674   5.647  12.016
84608SOL    HW155721  14.692   5.737  12.043
84608SOL    HW255722  14.593   5.654  11.965
84609SOL     OW55723  10.140   9.595   1.826
84609SOL    HW155724  10.198   9.560   1.894
84609SOL    HW255725  10.159   9.689   1.825
84610SOL     OW55726   2.225   9.351  11.947
84610SOL    HW155727   2.213   9.315  11.859
84610SOL    HW255728   2.187   9.439  11.942
84611SOL     OW55729  13.643   9.106   2.622
84611SOL    HW155730  13.632   9.052   2.543
84611SOL    HW255731  13.658   9.043   2.692
84612SOL     OW55732   2.913   5.711   8.001
84612SOL    HW155733   2.828   5.669   7.988
84612SOL    HW255734   2.898   5.803   7.976
84613SOL     OW55735  14.469   8.585   0.492
84613SOL    HW155736  14.502   8.569   0.404
84613SOL    HW255737  14.437   8.500   0.522
84614SOL     OW55738  12.603   7.809   4.697
84614SOL    HW155739  12.557   7.744   4.751
84614SOL    HW255740  12.534   7.852   4.647
84615SOL     OW55741   1.852   7.590   5.316
84615SOL    HW155742   1.768   7.582   5.361
84615SOL    HW255743   1.916   7.596   5.386
84616SOL     OW55744   0.721   4.518  10.197
84616SOL    HW155745   0.796   4.576  10.212
84616SOL    HW255746   0.745   4.436  10.241
84617SOL     OW55747  13.703  10.608  14.276
84617SOL    HW155748  13.629  10.561  14.313
84617SOL    HW255749  13.766  10.540  14.253
84618SOL     OW55750   8.702  13.068   3.353
84618SOL    HW155751   8.748  12.993   3.389
84618SOL    HW255752   8.638  13.092   3.420
84619SOL     OW55753   0.251   4.805   2.493
84619SOL    HW155754   0.331   4.857   2.483
84619SOL    HW255755   0.204   4.847   2.564
84620SOL     OW55756   5.805   4.195   7.033
84620SOL    HW155757   5.856   4.122   7.067
84620SOL    HW255758   5.716   4.161   7.027
84621SOL     OW55759  14.539   3.401   2.732
84621SOL    HW155760  14.522   3.480   2.680
84621SOL    HW255761  14.522   3.428   2.822
84622SOL     OW55762   7.118  10.772  11.816
84622SOL    HW155763   7.022  10.766  11.820
84622SOL    HW255764   7.148  10.734  11.899
84623SOL     OW55765  10.953  14.742   7.201
84623SOL    HW155766  10.915  14.823   7.234
84623SOL    HW255767  10.983  14.764   7.112
84624SOL     OW55768  11.168   9.624   9.155
84624SOL    HW155769  11.249   9.581   9.129
84624SOL    HW255770  11.158   9.604   9.248
84625SOL     OW55771   8.922   8.938  10.088
84625SOL    HW155772   8.887   9.026  10.072
84625SOL    HW255773   8.996   8.951  10.147
84626SOL     OW55774   9.961   3.942   4.855
84626SOL    HW155775   9.884   3.885   4.850
84626SOL    HW255776   9.938   4.009   4.920
84627SOL     OW55777   6.536   1.711   9.025
84627SOL    HW155778   6.567   1.630   8.984
84627SOL    HW255779   6.501   1.763   8.953
84628SOL     OW55780   8.956  10.732   5.539
84628SOL    HW155781   8.922  10.668   5.476
84628SOL    HW255782   9.013  10.788   5.486
84629SOL     OW55783  14.791   8.913  13.564
84629SOL    HW155784  14.744   8.857  13.627
84629SOL    HW255785  14.842   8.973  13.619
84630SOL     OW55786   3.371   4.666   0.301
84630SOL    HW155787   3.329   4.654   0.216
84630SOL    HW255788   3.360   4.582   0.346
84631SOL     OW55789   2.644   6.688   9.716
84631SOL    HW155790   2.659   6.753   9.784
84631SOL    HW255791   2.553   6.661   9.729
84632SOL     OW55792   2.194   3.581   2.688
84632SOL    HW155793   2.172   3.489   2.698
84632SOL    HW255794   2.273   3.582   2.634
84633SOL     OW55795  14.775   7.176   6.800
84633SOL    HW155796  14.681   7.166   6.818
84633SOL    HW255797  14.819   7.123   6.866
84634SOL     OW55798  12.119   8.503   2.516
84634SOL    HW155799  12.043   8.559   2.533
84634SOL    HW255800  12.113   8.434   2.583
84635SOL     OW55801   0.179   8.431  11.979
84635SOL    HW155802   0.202   8.341  11.953
84635SOL    HW255803   0.087   8.426  12.002
84636SOL     OW55804   0.216  12.592   9.187
84636SOL    HW155805   0.210  12.663   9.122
84636SOL    HW255806   0.200  12.635   9.271
84637SOL     OW55807  14.687   4.968   1.778
84637SOL    HW155808  14.684   4.964   1.683
84637SOL    HW255809  14.774   4.935   1.802
84638SOL     OW55810   1.315   0.719   5.159
84638SOL    HW155811   1.400   0.763   5.168
84638SOL    HW255812   1.261   0.782   5.110
84639SOL     OW55813   3.555   3.583   4.996
84639SOL    HW155814   3.501   3.513   4.960
84639SOL    HW255815   3.644   3.562   4.968
84640SOL     OW55816  14.569   0.494   5.475
84640SOL    HW155817  14.560   0.409   5.434
84640SOL    HW255818  14.496   0.546   5.441
84641SOL     OW55819  13.619   1.320  10.387
84641SOL    HW155820  13.617   1.296  10.480
84641SOL    HW255821  13.528   1.315  10.359
84642SOL     OW55822  12.716  14.728   7.976
84642SOL    HW155823  12.740  14.636   7.989
84642SOL    HW255824  12.624  14.725   7.950
84643SOL     OW55825   3.360   2.167   6.656
84643SOL    HW155826   3.408   2.216   6.589
84643SOL    HW255827   3.374   2.075   6.634
84644SOL     OW55828  13.332  10.785  11.977
84644SOL    HW155829  13.395  10.844  11.934
84644SOL    HW255830  13.260  10.779  11.914
84645SOL     OW55831  10.360   7.142   5.206
84645SOL    HW155832  10.366   7.068   5.267
84645SOL    HW255833  10.274   7.180   5.221
84646SOL     OW55834   8.828   0.910   9.162
84646SOL    HW155835   8.865   0.976   9.104
84646SOL    HW255836   8.872   0.924   9.246
84647SOL     OW55837   0.192  13.582  11.163
84647SOL    HW155838   0.147  13.655  11.205
84647SOL    HW255839   0.132  13.508  11.172
84648SOL     OW55840   6.213   1.900   3.313
84648SOL    HW155841   6.224   1.841   3.239
84648SOL    HW255842   6.122   1.927   3.310
84649SOL     OW55843   5.752   7.436   5.502
84649SOL    HW155844   5.835   7.421   5.458
84649SOL    HW255845   5.711   7.507   5.452
84650SOL     OW55846   4.106  11.148  13.106
84650SOL    HW155847   4.092  11.217  13.041
84650SOL    HW255848   4.020  11.133  13.144
84651SOL     OW55849  11.154  10.560   5.762
84651SOL    HW155850  11.101  10.487   5.794
84651SOL    HW255851  11.148  10.627   5.831
84652SOL     OW55852   1.038   0.759   7.976
84652SOL    HW155853   1.122   0.747   8.019
84652SOL    HW255854   0.975   0.717   8.034
84653SOL     OW55855   7.950   1.435   7.625
84653SOL    HW155856   7.896   1.465   7.552
84653SOL    HW255857   7.988   1.515   7.661
84654SOL     OW55858  13.168  13.781   5.433
84654SOL    HW155859  13.225  13.768   5.357
84654SOL    HW255860  13.084  13.810   5.395
84655SOL     OW55861  12.117   8.640  12.232
84655SOL    HW155862  12.076   8.679  12.309
84655SOL    HW255863  12.195   8.596  12.266
84656SOL     OW55864  11.366  14.479  10.895
84656SOL    HW155865  11.299  14.447  10.835
84656SOL    HW255866  11.408  14.551  10.848
84657SOL     OW55867  13.675  13.206   8.303
84657SOL    HW155868  13.714  13.285   8.265
84657SOL    HW255869  13.603  13.185   8.243
84658SOL     OW55870   3.944   6.741   8.888
84658SOL    HW155871   3.850   6.742   8.870
84658SOL    HW255872   3.985   6.770   8.807
84659SOL     OW55873   5.553  14.744   5.001
84659SOL    HW155874   5.629  14.801   5.013
84659SOL    HW255875   5.589  14.655   5.005
84660SOL     OW55876  12.946   4.753   2.122
84660SOL    HW155877  12.863   4.794   2.146
84660SOL    HW255878  12.922   4.662   2.101
84661SOL     OW55879   7.605   8.710  12.535
84661SOL    HW155880   7.565   8.730  12.620
84661SOL    HW255881   7.580   8.619  12.517
84662SOL     OW55882  11.051  11.663   8.208
84662SOL    HW155883  11.088  11.698   8.289
84662SOL    HW255884  10.956  11.672   8.219
84663SOL     OW55885  10.885  13.212  10.630
84663SOL    HW155886  10.870  13.306  10.620
84663SOL    HW255887  10.813  13.171  10.584
84664SOL     OW55888  12.029   9.233   1.265
84664SOL    HW155889  11.968   9.159   1.257
84664SOL    HW255890  11.979   9.300   1.311
84665SOL     OW55891   9.927   9.371   8.756
84665SOL    HW155892   9.978   9.300   8.795
84665SOL    HW255893   9.837   9.338   8.753
84666SOL     OW55894   8.800   3.077   4.310
84666SOL    HW155895   8.718   3.038   4.341
84666SOL    HW255896   8.798   3.167   4.342
84667SOL     OW55897   8.305   1.371   6.429
84667SOL    HW155898   8.312   1.276   6.420
84667SOL    HW255899   8.255   1.384   6.510
84668SOL     OW55900   0.356   3.690  12.557
84668SOL    HW155901   0.429   3.658  12.504
84668SOL    HW255902   0.325   3.768  12.512
84669SOL     OW55903  14.856  12.718   3.142
84669SOL    HW155904  14.784  12.689   3.085
84669SOL    HW255905   0.051  12.718   3.085
84670SOL     OW55906   1.079  10.405  14.073
84670SOL    HW155907   1.017  10.399  14.146
84670SOL    HW255908   1.126  10.487  14.089
84671SOL     OW55909  10.200   3.007   6.861
84671SOL    HW155910  10.176   3.099   6.871
84671SOL    HW255911  10.274   2.995   6.920
84672SOL     OW55912  14.423   6.970   2.917
84672SOL    HW155913  14.496   6.961   2.855
84672SOL    HW255914  14.357   6.909   2.885
84673SOL     OW55915   5.872   2.724  12.052
84673SOL    HW155916   5.785   2.696  12.079
84673SOL    HW255917   5.857   2.802  11.999
84674SOL     OW55918   7.258  14.331  10.669
84674SOL    HW155919   7.203  14.407  10.649
84674SOL    HW255920   7.271  14.288  10.584
84675SOL     OW55921  11.711   2.285  12.514
84675SOL    HW155922  11.677   2.351  12.453
84675SOL    HW255923  11.796   2.319  12.540
84676SOL     OW55924  13.310   0.509   8.242
84676SOL    HW155925  13.389   0.471   8.281
84676SOL    HW255926  13.328   0.603   8.241
84677SOL     OW55927   7.633   6.497  12.649
84677SOL    HW155928   7.660   6.407  12.670
84677SOL    HW255929   7.640   6.503  12.554
84678SOL     OW55930  12.735   2.852   3.718
84678SOL    HW155931  12.643   2.829   3.710
84678SOL    HW255932  12.770   2.846   3.629
84679SOL     OW55933   9.539   2.766  11.580
84679SOL    HW155934   9.470   2.832  11.583
84679SOL    HW255935   9.573   2.770  11.491
84680SOL     OW55936   8.534   1.223  10.846
84680SOL    HW155937   8.573   1.254  10.928
84680SOL    HW255938   8.442   1.249  10.852
84681SOL     OW55939   1.548   9.782   0.469
84681SOL    HW155940   1.515   9.870   0.448
84681SOL    HW255941   1.636   9.798   0.504
84682SOL     OW55942   7.383   3.346  12.032
84682SOL    HW155943   7.334   3.349  11.950
84682SOL    HW255944   7.316   3.340  12.100
84683SOL     OW55945  10.337   5.498   4.108
84683SOL    HW155946  10.411   5.458   4.061
84683SOL    HW255947  10.266   5.500   4.044
84684SOL     OW55948   9.153  10.117   5.738
84684SOL    HW155949   9.076  10.098   5.792
84684SOL    HW255950   9.213  10.162   5.798
84685SOL     OW55951   8.551  10.559  12.020
84685SOL    HW155952   8.601  10.502  12.078
84685SOL    HW255953   8.461  10.550  12.050
84686SOL     OW55954   2.539  10.589  10.251
84686SOL    HW155955   2.590  10.663  10.217
84686SOL    HW255956   2.448  10.613  10.233
84687SOL     OW55957  13.074  13.548   6.365
84687SOL    HW155958  13.148  13.548   6.425
84687SOL    HW255959  13.085  13.468   6.314
84688SOL     OW55960   0.509  14.865  10.538
84688SOL    HW155961   0.566  14.872  10.461
84688SOL    HW255962   0.497   0.073  10.568
84689SOL     OW55963   6.951   7.398  10.937
84689SOL    HW155964   6.897   7.458  10.885
84689SOL    HW255965   6.983   7.334  10.874
84690SOL     OW55966  13.367   4.429   2.476
84690SOL    HW155967  13.417   4.481   2.413
84690SOL    HW255968  13.332   4.356   2.425
84691SOL     OW55969   8.874  10.135  11.322
84691SOL    HW155970   8.882  10.180  11.406
84691SOL    HW255971   8.943  10.069  11.323
84692SOL     OW55972   7.158  14.667  14.074
84692SOL    HW155973   7.115  14.623  14.147
84692SOL    HW255974   7.097  14.658  14.001
84693SOL     OW55975  10.612  13.887   6.737
84693SOL    HW155976  10.680  13.947   6.767
84693SOL    HW255977  10.660  13.809   6.709
84694SOL     OW55978  11.037  11.397  12.809
84694SOL    HW155979  11.119  11.348  12.813
84694SOL    HW255980  10.976  11.338  12.765
84695SOL     OW55981   9.426  11.967  14.816
84695SOL    HW155982   9.384  11.972   0.019
84695SOL    HW255983   9.373  12.025  14.760
84696SOL     OW55984   6.165   6.409  14.118
84696SOL    HW155985   6.100   6.406  14.047
84696SOL    HW255986   6.136   6.341  14.180
84697SOL     OW55987   9.527  14.502  12.748
84697SOL    HW155988   9.534  14.509  12.653
84697SOL    HW255989   9.543  14.591  12.781
84698SOL     OW55990   3.465   3.955  12.024
84698SOL    HW155991   3.458   3.933  11.931
84698SOL    HW255992   3.465   4.051  12.026
84699SOL     OW55993   3.952   0.252   2.312
84699SOL    HW155994   3.865   0.241   2.350
84699SOL    HW255995   4.012   0.224   2.380
84700SOL     OW55996   1.198   4.370   2.631
84700SOL    HW155997   1.243   4.286   2.628
84700SOL    HW255998   1.142   4.365   2.708
84701SOL     OW55999  13.931   6.811   5.348
84701SOL    HW156000  13.954   6.889   5.399
84701SOL    HW256001  13.976   6.740   5.392
84702SOL     OW56002   4.498  13.372   2.653
84702SOL    HW156003   4.412  13.412   2.663
84702SOL    HW256004   4.489  13.315   2.577
84703SOL     OW56005   2.768   9.829   0.962
84703SOL    HW156006   2.678   9.824   0.994
84703SOL    HW256007   2.762   9.810   0.869
84704SOL     OW56008   7.924   8.584  10.583
84704SOL    HW156009   7.884   8.535  10.511
84704SOL    HW256010   7.851   8.630  10.624
84705SOL     OW56011  11.764   7.881   6.671
84705SOL    HW156012  11.688   7.934   6.649
84705SOL    HW256013  11.756   7.864   6.765
84706SOL     OW56014  14.000  10.269   9.404
84706SOL    HW156015  13.916  10.310   9.424
84706SOL    HW256016  14.065  10.331   9.435
84707SOL     OW56017   1.370  14.846   9.827
84707SOL    HW156018   1.368  14.867   9.921
84707SOL    HW256019   1.462  14.824   9.810
84708SOL     OW56020   3.380  11.379   3.004
84708SOL    HW156021   3.352  11.292   3.032
84708SOL    HW256022   3.300  11.424   2.980
84709SOL     OW56023   8.245   2.178   9.363
84709SOL    HW156024   8.176   2.131   9.411
84709SOL    HW256025   8.199   2.220   9.290
84710SOL     OW56026   8.118   8.264   4.981
84710SOL    HW156027   8.200   8.268   5.030
84710SOL    HW256028   8.094   8.355   4.967
84711SOL     OW56029  12.413  12.924  12.842
84711SOL    HW156030  12.486  12.963  12.794
84711SOL    HW256031  12.385  12.850  12.788
84712SOL     OW56032   8.619   0.901   1.273
84712SOL    HW156033   8.682   0.902   1.345
84712SOL    HW256034   8.645   0.825   1.220
84713SOL     OW56035   6.916  13.123   9.184
84713SOL    HW156036   6.944  13.214   9.183
84713SOL    HW256037   6.899  13.103   9.276
84714SOL     OW56038   8.985  11.951   6.611
84714SOL    HW156039   8.953  11.938   6.700
84714SOL    HW256040   8.981  11.863   6.571
84715SOL     OW56041   4.749   4.530   8.305
84715SOL    HW156042   4.730   4.506   8.396
84715SOL    HW256043   4.821   4.594   8.311
84716SOL     OW56044   2.951  13.550   7.008
84716SOL    HW156045   3.008  13.602   6.951
84716SOL    HW256046   2.921  13.612   7.074
84717SOL     OW56047   9.974   6.978   6.226
84717SOL    HW156048  10.014   7.027   6.154
84717SOL    HW256049  10.045   6.926   6.262
84718SOL     OW56050   2.268   2.942   4.739
84718SOL    HW156051   2.188   2.895   4.717
84718SOL    HW256052   2.327   2.924   4.665
84719SOL     OW56053   0.271   9.183   7.142
84719SOL    HW156054   0.181   9.172   7.112
84719SOL    HW256055   0.305   9.255   7.089
84720SOL     OW56056   1.751   3.585   3.462
84720SOL    HW156057   1.806   3.520   3.419
84720SOL    HW256058   1.813   3.645   3.503
84721SOL     OW56059   6.283   6.725   2.145
84721SOL    HW156060   6.352   6.711   2.080
84721SOL    HW256061   6.222   6.785   2.102
84722SOL     OW56062   9.296   5.993   8.139
84722SOL    HW156063   9.372   5.995   8.080
84722SOL    HW256064   9.292   5.903   8.171
84723SOL     OW56065  13.631   5.418   9.497
84723SOL    HW156066  13.626   5.339   9.443
84723SOL    HW256067  13.570   5.402   9.568
84724SOL     OW56068  14.736   7.508  13.072
84724SOL    HW156069  14.713   7.597  13.044
84724SOL    HW256070  14.814   7.520  13.126
84725SOL     OW56071   4.021   6.322   9.885
84725SOL    HW156072   4.021   6.235   9.926
84725SOL    HW256073   4.067   6.309   9.802
84726SOL     OW56074   1.351   8.220  13.145
84726SOL    HW156075   1.351   8.150  13.080
84726SOL    HW256076   1.391   8.295  13.101
84727SOL     OW56077   8.515   6.117  10.792
84727SOL    HW156078   8.497   6.030  10.755
84727SOL    HW256079   8.600   6.142  10.755
84728SOL     OW56080  13.320   7.670   5.566
84728SOL    HW156081  13.311   7.713   5.481
84728SOL    HW256082  13.296   7.579   5.549
84729SOL     OW56083  14.473  10.858   3.034
84729SOL    HW156084  14.456  10.903   2.951
84729SOL    HW256085  14.448  10.767   3.017
84730SOL     OW56086  10.440   8.707  13.405
84730SOL    HW156087  10.487   8.781  13.365
84730SOL    HW256088  10.358   8.702  13.356
84731SOL     OW56089   6.043   8.345   6.273
84731SOL    HW156090   6.081   8.304   6.351
84731SOL    HW256091   5.955   8.309   6.267
84732SOL     OW56092   9.719   6.065   7.415
84732SOL    HW156093   9.655   6.099   7.477
84732SOL    HW256094   9.694   5.973   7.401
84733SOL     OW56095   5.348   7.999   2.498
84733SOL    HW156096   5.427   8.034   2.456
84733SOL    HW256097   5.370   7.994   2.591
84734SOL     OW56098  13.321   5.908   1.768
84734SOL    HW156099  13.230   5.887   1.750
84734SOL    HW256100  13.368   5.879   1.690
84735SOL     OW56101  10.044   0.889   2.688
84735SOL    HW156102  10.018   0.810   2.640
84735SOL    HW256103   9.983   0.893   2.762
84736SOL     OW56104   5.996   8.525   2.882
84736SOL    HW156105   6.070   8.584   2.868
84736SOL    HW256106   5.922   8.582   2.902
84737SOL     OW56107   7.873   2.885   5.634
84737SOL    HW156108   7.828   2.869   5.717
84737SOL    HW256109   7.964   2.861   5.651
84738SOL     OW56110   8.428   3.312  13.674
84738SOL    HW156111   8.509   3.335  13.629
84738SOL    HW256112   8.374   3.391  13.668
84739SOL     OW56113   9.711  14.204   5.280
84739SOL    HW156114   9.695  14.268   5.349
84739SOL    HW256115   9.803  14.218   5.256
84740SOL     OW56116  11.150   5.760   7.461
84740SOL    HW156117  11.244   5.773   7.448
84740SOL    HW256118  11.131   5.677   7.418
84741SOL     OW56119  13.164  11.598   3.185
84741SOL    HW156120  13.151  11.526   3.124
84741SOL    HW256121  13.238  11.648   3.150
84742SOL     OW56122  13.207   7.499   9.730
84742SOL    HW156123  13.140   7.478   9.664
84742SOL    HW256124  13.205   7.594   9.737
84743SOL     OW56125   1.620  10.612   6.495
84743SOL    HW156126   1.614  10.594   6.589
84743SOL    HW256127   1.664  10.535   6.458
84744SOL     OW56128   7.491   7.464  13.314
84744SOL    HW156129   7.561   7.459  13.250
84744SOL    HW256130   7.508   7.545  13.362
84745SOL     OW56131  10.594   3.277   0.858
84745SOL    HW156132  10.510   3.303   0.822
84745SOL    HW256133  10.588   3.297   0.951
84746SOL     OW56134  12.546   8.576  14.150
84746SOL    HW156135  12.608   8.555  14.220
84746SOL    HW256136  12.566   8.667  14.128
84747SOL     OW56137   3.275   2.101   7.881
84747SOL    HW156138   3.237   2.014   7.877
84747SOL    HW256139   3.354   2.090   7.935
84748SOL     OW56140  10.079  11.594   5.623
84748SOL    HW156141  10.016  11.551   5.564
84748SOL    HW256142  10.139  11.524   5.650
84749SOL     OW56143   1.996  11.710  12.993
84749SOL    HW156144   2.044  11.758  13.062
84749SOL    HW256145   1.984  11.622  13.029
84750SOL     OW56146  12.230  13.360  10.065
84750SOL    HW156147  12.288  13.337   9.992
84750SOL    HW256148  12.280  13.422  10.117
84751SOL     OW56149   6.185   3.266   2.310
84751SOL    HW156150   6.255   3.262   2.245
84751SOL    HW256151   6.104   3.269   2.258
84752SOL     OW56152  13.105  14.684   2.008
84752SOL    HW156153  13.106  14.694   2.103
84752SOL    HW256154  13.012  14.681   1.985
84753SOL     OW56155  10.893  10.610   7.238
84753SOL    HW156156  10.942  10.687   7.207
84753SOL    HW256157  10.875  10.560   7.158
84754SOL     OW56158   6.891   7.036   1.757
84754SOL    HW156159   6.800   7.008   1.748
84754SOL    HW256160   6.942   6.956   1.745
84755SOL     OW56161   5.734   7.940  10.577
84755SOL    HW156162   5.649   7.897  10.583
84755SOL    HW256163   5.771   7.909  10.494
84756SOL     OW56164   6.015   1.039  10.934
84756SOL    HW156165   6.028   0.944  10.940
84756SOL    HW256166   6.098   1.072  10.899
84757SOL     OW56167  14.162   2.301   3.550
84757SOL    HW156168  14.128   2.282   3.637
84757SOL    HW256169  14.179   2.215   3.511
84758SOL     OW56170   5.343   5.150   6.554
84758SOL    HW156171   5.411   5.172   6.490
84758SOL    HW256172   5.272   5.211   6.535
84759SOL     OW56173   6.131   7.588   9.002
84759SOL    HW156174   6.158   7.673   8.966
84759SOL    HW256175   6.119   7.532   8.925
84760SOL     OW56176   9.346  12.149  12.964
84760SOL    HW156177   9.261  12.188  12.943
84760SOL    HW256178   9.398  12.222  12.998
84761SOL     OW56179  12.127   4.638   6.211
84761SOL    HW156180  12.032   4.629   6.198
84761SOL    HW256181  12.136   4.703   6.281
84762SOL     OW56182   0.332   2.227   9.830
84762SOL    HW156183   0.354   2.315   9.860
84762SOL    HW256184   0.332   2.174   9.909
84763SOL     OW56185   4.691   1.109   5.530
84763SOL    HW156186   4.705   1.037   5.590
84763SOL    HW256187   4.608   1.089   5.487
84764SOL     OW56188  13.129   2.536   4.935
84764SOL    HW156189  13.197   2.576   4.990
84764SOL    HW256190  13.155   2.444   4.928
84765SOL     OW56191   2.762   3.684  13.319
84765SOL    HW156192   2.840   3.711  13.272
84765SOL    HW256193   2.689   3.709  13.261
84766SOL     OW56194   6.317   4.565  14.239
84766SOL    HW156195   6.315   4.525  14.327
84766SOL    HW256196   6.329   4.491  14.180
84767SOL     OW56197   5.921   0.486   5.952
84767SOL    HW156198   5.878   0.467   5.869
84767SOL    HW256199   6.005   0.440   5.948
84768SOL     OW56200   5.951   8.023   5.646
84768SOL    HW156201   5.957   7.961   5.718
84768SOL    HW256202   6.040   8.026   5.610
84769SOL     OW56203   9.514  13.559   5.614
84769SOL    HW156204   9.511  13.654   5.623
84769SOL    HW256205   9.604  13.536   5.638
84770SOL     OW56206  13.027   6.897   0.417
84770SOL    HW156207  13.037   6.907   0.322
84770SOL    HW256208  12.947   6.845   0.426
84771SOL     OW56209  13.137   9.812  12.768
84771SOL    HW156210  13.121   9.718  12.761
84771SOL    HW256211  13.073   9.852  12.710
84772SOL     OW56212   7.241   8.022   6.563
84772SOL    HW156213   7.240   8.024   6.659
84772SOL    HW256214   7.330   8.047   6.539
84773SOL     OW56215  12.661  10.899  11.358
84773SOL    HW156216  12.706  10.814  11.355
84773SOL    HW256217  12.730  10.963  11.338
84774SOL     OW56218   9.879  11.346   9.247
84774SOL    HW156219   9.898  11.257   9.277
84774SOL    HW256220   9.787  11.360   9.268
84775SOL     OW56221   2.959   8.498   3.482
84775SOL    HW156222   3.037   8.446   3.503
84775SOL    HW256223   2.886   8.438   3.498
84776SOL     OW56224   4.322   9.112   4.091
84776SOL    HW156225   4.399   9.156   4.056
84776SOL    HW256226   4.263   9.104   4.016
84777SOL     OW56227   4.914   7.803   9.700
84777SOL    HW156228   4.935   7.710   9.687
84777SOL    HW256229   4.939   7.845   9.618
84778SOL     OW56230   7.249  11.366   5.710
84778SOL    HW156231   7.317  11.433   5.706
84778SOL    HW256232   7.235  11.341   5.618
84779SOL     OW56233   9.919   5.075   3.909
84779SOL    HW156234   9.859   5.016   3.955
84779SOL    HW256235   9.984   5.098   3.974
84780SOL     OW56236   3.190   9.786   6.841
84780SOL    HW156237   3.166   9.765   6.932
84780SOL    HW256238   3.285   9.773   6.838
84781SOL     OW56239  13.932  11.104  14.728
84781SOL    HW156240  13.884  11.021  14.722
84781SOL    HW256241  14.021  11.078  14.750
84782SOL     OW56242  12.430  13.186  14.574
84782SOL    HW156243  12.390  13.110  14.531
84782SOL    HW256244  12.491  13.221  14.509
84783SOL     OW56245   0.387  11.402   2.805
84783SOL    HW156246   0.325  11.475   2.798
84783SOL    HW256247   0.342  11.328   2.764
84784SOL     OW56248  13.326   3.504   8.389
84784SOL    HW156249  13.334   3.435   8.323
84784SOL    HW256250  13.416   3.525   8.413
84785SOL     OW56251   3.483   2.343  11.112
84785SOL    HW156252   3.403   2.315  11.156
84785SOL    HW256253   3.454   2.404  11.045
84786SOL     OW56254   4.938  11.942  13.979
84786SOL    HW156255   4.944  11.850  13.952
84786SOL    HW256256   4.958  11.992  13.900
84787SOL     OW56257  14.149  13.154   8.414
84787SOL    HW156258  14.204  13.077   8.424
84787SOL    HW256259  14.062  13.119   8.391
84788SOL     OW56260   0.782   5.007  11.687
84788SOL    HW156261   0.761   4.922  11.725
84788SOL    HW256262   0.817   5.058  11.761
84789SOL     OW56263   1.839   6.471   7.926
84789SOL    HW156264   1.885   6.451   7.844
84789SOL    HW256265   1.907   6.466   7.993
84790SOL     OW56266   1.349   8.943   8.425
84790SOL    HW156267   1.281   8.888   8.387
84790SOL    HW256268   1.308   8.983   8.502
84791SOL     OW56269   5.554   7.238  13.603
84791SOL    HW156270   5.608   7.317  13.600
84791SOL    HW256271   5.507   7.244  13.686
84792SOL     OW56272   7.894  11.009   2.141
84792SOL    HW156273   7.861  11.037   2.226
84792SOL    HW256274   7.821  11.023   2.081
84793SOL     OW56275  13.628   5.967   9.081
84793SOL    HW156276  13.708   5.921   9.106
84793SOL    HW256277  13.557   5.910   9.111
84794SOL     OW56278  11.730   3.887   2.051
84794SOL    HW156279  11.824   3.882   2.037
84794SOL    HW256280  11.692   3.870   1.965
84795SOL     OW56281   2.265   7.666   8.609
84795SOL    HW156282   2.201   7.714   8.556
84795SOL    HW256283   2.311   7.734   8.658
84796SOL     OW56284   2.472   6.285  13.247
84796SOL    HW156285   2.553   6.318  13.286
84796SOL    HW256286   2.404   6.346  13.276
84797SOL     OW56287   8.781   6.374  11.761
84797SOL    HW156288   8.851   6.327  11.715
84797SOL    HW256289   8.816   6.388  11.848
84798SOL     OW56290   9.175   3.346   6.752
84798SOL    HW156291   9.143   3.258   6.736
84798SOL    HW256292   9.182   3.352   6.848
84799SOL     OW56293   2.415  11.641   1.695
84799SOL    HW156294   2.503  11.674   1.715
84799SOL    HW256295   2.419  11.617   1.603
84800SOL     OW56296  11.070   7.165   5.015
84800SOL    HW156297  11.133   7.214   5.068
84800SOL    HW256298  10.986   7.178   5.059
84801SOL     OW56299   3.250   0.003  11.381
84801SOL    HW156300   3.269  14.798  11.347
84801SOL    HW256301   3.300   0.062  11.324
84802SOL     OW56302  13.816   7.381   3.580
84802SOL    HW156303  13.883   7.327   3.622
84802SOL    HW256304  13.741   7.322   3.569
84803SOL     OW56305  10.353   3.105   0.225
84803SOL    HW156306  10.306   3.138   0.149
84803SOL    HW256307  10.359   3.179   0.284
84804SOL     OW56308   8.136   2.658   0.165
84804SOL    HW156309   8.161   2.596   0.096
84804SOL    HW256310   8.213   2.712   0.178
84805SOL     OW56311  11.395   4.064   1.495
84805SOL    HW156312  11.308   4.046   1.461
84805SOL    HW256313  11.397   4.159   1.508
84806SOL     OW56314   0.345   9.071   2.920
84806SOL    HW156315   0.342   8.976   2.933
84806SOL    HW256316   0.393   9.104   2.996
84807SOL     OW56317  10.135  13.152   7.581
84807SOL    HW156318  10.166  13.170   7.492
84807SOL    HW256319  10.211  13.164   7.637
84808SOL     OW56320   3.613   7.163  11.539
84808SOL    HW156321   3.635   7.107  11.465
84808SOL    HW256322   3.678   7.141  11.606
84809SOL     OW56323   3.927   1.577  10.546
84809SOL    HW156324   3.928   1.533  10.461
84809SOL    HW256325   3.939   1.669  10.526
84810SOL     OW56326   7.968   5.536   3.851
84810SOL    HW156327   8.010   5.500   3.929
84810SOL    HW256328   7.901   5.471   3.827
84811SOL     OW56329   3.548   2.650   8.491
84811SOL    HW156330   3.507   2.735   8.471
84811SOL    HW256331   3.519   2.630   8.580
84812SOL     OW56332  10.556  12.734  13.053
84812SOL    HW156333  10.552  12.786  12.973
84812SOL    HW256334  10.465  12.712  13.073
84813SOL     OW56335   2.423  13.998   8.805
84813SOL    HW156336   2.468  13.931   8.856
84813SOL    HW256337   2.332  13.968   8.801
84814SOL     OW56338   9.619  14.042   3.312
84814SOL    HW156339   9.569  14.104   3.259
84814SOL    HW256340   9.708  14.075   3.309
84815SOL     OW56341   0.629   1.943  11.802
84815SOL    HW156342   0.713   1.953  11.757
84815SOL    HW256343   0.583   2.025  11.784
84816SOL     OW56344   1.571   0.100   9.022
84816SOL    HW156345   1.540   0.155   8.950
84816SOL    HW256346   1.644   0.149   9.060
84817SOL     OW56347  12.902  14.794   9.561
84817SOL    HW156348  12.945  14.879   9.549
84817SOL    HW256349  12.949  14.735   9.503
84818SOL     OW56350   6.362   6.260   8.089
84818SOL    HW156351   6.401   6.276   8.175
84818SOL    HW256352   6.278   6.306   8.091
84819SOL     OW56353   1.692   3.473   8.845
84819SOL    HW156354   1.613   3.522   8.868
84819SOL    HW256355   1.688   3.466   8.749
84820SOL     OW56356   7.221   4.795   8.517
84820SOL    HW156357   7.127   4.791   8.501
84820SOL    HW256358   7.253   4.707   8.496
84821SOL     OW56359   4.714  11.937  14.312
84821SOL    HW156360   4.674  11.852  14.291
84821SOL    HW256361   4.651  11.979  14.371
84822SOL     OW56362   6.834   1.917   4.601
84822SOL    HW156363   6.879   1.899   4.684
84822SOL    HW256364   6.741   1.923   4.626
84823SOL     OW56365  14.674   1.914   2.668
84823SOL    HW156366  14.631   1.999   2.676
84823SOL    HW256367  14.709   1.913   2.578
84824SOL     OW56368  12.332   0.479  10.013
84824SOL    HW156369  12.284   0.510  10.090
84824SOL    HW256370  12.375   0.399  10.042
84825SOL     OW56371  14.796   0.504   2.023
84825SOL    HW156372  14.832   0.588   2.050
84825SOL    HW256373  14.841   0.440   2.079
84826SOL     OW56374   3.850   1.450  12.036
84826SOL    HW156375   3.833   1.520  11.973
84826SOL    HW256376   3.886   1.494  12.112
84827SOL     OW56377  13.099   8.365  14.638
84827SOL    HW156378  13.149   8.415  14.702
84827SOL    HW256379  13.012   8.404  14.639
84828SOL     OW56380   5.097  11.556  14.226
84828SOL    HW156381   5.175  11.502  14.240
84828SOL    HW256382   5.103  11.625  14.292
84829SOL     OW56383  11.135  10.434   1.078
84829SOL    HW156384  11.142  10.486   1.158
84829SOL    HW256385  11.125  10.499   1.009
84830SOL     OW56386   4.263   6.477  10.906
84830SOL    HW156387   4.308   6.443  10.983
84830SOL    HW256388   4.255   6.401  10.848
84831SOL     OW56389   1.880   2.809   1.834
84831SOL    HW156390   1.932   2.874   1.881
84831SOL    HW256391   1.812   2.860   1.790
84832SOL     OW56392   2.485   9.169   9.832
84832SOL    HW156393   2.457   9.114   9.905
84832SOL    HW256394   2.415   9.164   9.768
84833SOL     OW56395  10.202   0.513   7.602
84833SOL    HW156396  10.185   0.577   7.671
84833SOL    HW256397  10.115   0.487   7.571
84834SOL     OW56398   1.290   2.014  13.408
84834SOL    HW156399   1.374   1.970  13.424
84834SOL    HW256400   1.234   1.946  13.372
84835SOL     OW56401   6.867   1.544  14.824
84835SOL    HW156402   6.855   1.456  14.787
84835SOL    HW256403   6.845   1.603  14.752
84836SOL     OW56404  10.331   9.477   4.752
84836SOL    HW156405  10.271   9.478   4.677
84836SOL    HW256406  10.332   9.386   4.780
84837SOL     OW56407  12.694   5.370   2.426
84837SOL    HW156408  12.635   5.445   2.427
84837SOL    HW256409  12.653   5.307   2.368
84838SOL     OW56410  11.064  12.351  13.031
84838SOL    HW156411  11.141  12.353  13.087
84838SOL    HW256412  10.993  12.324  13.089
84839SOL     OW56413   4.437   1.683   1.981
84839SOL    HW156414   4.363   1.729   1.940
84839SOL    HW256415   4.510   1.744   1.974
84840SOL     OW56416   9.377   0.800   7.962
84840SOL    HW156417   9.417   0.816   8.047
84840SOL    HW256418   9.286   0.827   7.972
84841SOL     OW56419  13.189   5.935  11.990
84841SOL    HW156420  13.169   5.845  11.966
84841SOL    HW256421  13.238   5.970  11.916
84842SOL     OW56422   3.098  14.140   2.930
84842SOL    HW156423   3.006  14.126   2.912
84842SOL    HW256424   3.138  14.151   2.844
84843SOL     OW56425  10.202   6.079  13.566
84843SOL    HW156426  10.250   6.161  13.567
84843SOL    HW256427  10.123   6.098  13.515
84844SOL     OW56428  13.760   7.983  13.103
84844SOL    HW156429  13.836   8.042  13.107
84844SOL    HW256430  13.763   7.946  13.015
84845SOL     OW56431  11.962  11.039   4.478
84845SOL    HW156432  12.054  11.050   4.501
84845SOL    HW256433  11.918  11.026   4.561
84846SOL     OW56434   4.895  10.285  13.589
84846SOL    HW156435   4.821  10.325  13.634
84846SOL    HW256436   4.888  10.318  13.499
84847SOL     OW56437   3.109   9.459   8.702
84847SOL    HW156438   3.048   9.491   8.635
84847SOL    HW256439   3.190   9.444   8.654
84848SOL     OW56440   4.288   4.120  10.003
84848SOL    HW156441   4.365   4.161  10.042
84848SOL    HW256442   4.253   4.186   9.943
84849SOL     OW56443   0.526   5.648   4.851
84849SOL    HW156444   0.460   5.710   4.883
84849SOL    HW256445   0.519   5.573   4.909
84850SOL     OW56446   5.381   6.020   4.365
84850SOL    HW156447   5.382   6.105   4.321
84850SOL    HW256448   5.388   6.042   4.458
84851SOL     OW56449  11.708  11.154   6.821
84851SOL    HW156450  11.622  11.115   6.802
84851SOL    HW256451  11.759  11.083   6.859
84852SOL     OW56452   5.330  14.107   2.812
84852SOL    HW156453   5.355  14.199   2.824
84852SOL    HW256454   5.410  14.058   2.833
84853SOL     OW56455   5.460   1.271   0.876
84853SOL    HW156456   5.366   1.261   0.894
84853SOL    HW256457   5.503   1.239   0.956
84854SOL     OW56458  10.847  10.564   9.694
84854SOL    HW156459  10.812  10.607   9.615
84854SOL    HW256460  10.773  10.513   9.728
84855SOL     OW56461   8.230   5.733   1.387
84855SOL    HW156462   8.237   5.761   1.479
84855SOL    HW256463   8.301   5.668   1.377
84856SOL     OW56464  13.879  11.640   8.270
84856SOL    HW156465  13.788  11.618   8.254
84856SOL    HW256466  13.876  11.710   8.335
84857SOL     OW56467   3.114   5.079   1.052
84857SOL    HW156468   3.023   5.110   1.047
84857SOL    HW256469   3.166   5.154   1.023
84858SOL     OW56470   7.269  10.653  12.024
84858SOL    HW156471   7.258  10.691  12.111
84858SOL    HW256472   7.360  10.670  12.002
84859SOL     OW56473   7.767   3.805   0.698
84859SOL    HW156474   7.790   3.881   0.752
84859SOL    HW256475   7.787   3.832   0.609
84860SOL     OW56476   2.842  14.311   5.891
84860SOL    HW156477   2.837  14.296   5.797
84860SOL    HW256478   2.831  14.224   5.929
84861SOL     OW56479   5.914   7.615  14.579
84861SOL    HW156480   5.947   7.569  14.656
84861SOL    HW256481   5.819   7.603  14.583
84862SOL     OW56482   6.285   5.201  11.022
84862SOL    HW156483   6.265   5.200  11.115
84862SOL    HW256484   6.212   5.155  10.981
84863SOL     OW56485   8.263   0.253   2.940
84863SOL    HW156486   8.299   0.297   3.017
84863SOL    HW256487   8.319   0.177   2.928
84864SOL     OW56488  14.319   6.002   1.407
84864SOL    HW156489  14.275   5.920   1.385
84864SOL    HW256490  14.273   6.034   1.485
84865SOL     OW56491   3.784  11.835   7.146
84865SOL    HW156492   3.745  11.774   7.209
84865SOL    HW256493   3.856  11.785   7.107
84866SOL     OW56494   0.450   7.839   2.125
84866SOL    HW156495   0.496   7.914   2.161
84866SOL    HW256496   0.407   7.798   2.200
84867SOL     OW56497   4.706   1.463   8.053
84867SOL    HW156498   4.797   1.479   8.078
84867SOL    HW256499   4.689   1.529   7.985
84868SOL     OW56500  13.927   5.188   1.508
84868SOL    HW156501  13.948   5.258   1.446
84868SOL    HW256502  13.857   5.138   1.467
84869SOL     OW56503   1.882  13.092   2.385
84869SOL    HW156504   1.949  13.159   2.396
84869SOL    HW256505   1.908  13.022   2.444
84870SOL     OW56506   5.025  14.500  14.693
84870SOL    HW156507   5.061  14.478  14.779
84870SOL    HW256508   4.960  14.432  14.676
84871SOL     OW56509   5.270   0.139   4.308
84871SOL    HW156510   5.213   0.067   4.333
84871SOL    HW256511   5.352   0.097   4.281
84872SOL     OW56512   6.152   9.852   8.965
84872SOL    HW156513   6.089   9.921   8.988
84872SOL    HW256514   6.226   9.868   9.023
84873SOL     OW56515  12.726   4.221   3.782
84873SOL    HW156516  12.751   4.211   3.691
84873SOL    HW256517  12.658   4.287   3.782
84874SOL     OW56518   1.435   6.515  12.059
84874SOL    HW156519   1.486   6.573  12.003
84874SOL    HW256520   1.495   6.494  12.131
84875SOL     OW56521   1.846  13.478  13.534
84875SOL    HW156522   1.904  13.496  13.461
84875SOL    HW256523   1.781  13.548  13.531
84876SOL     OW56524   5.086   2.926  14.456
84876SOL    HW156525   5.133   2.956  14.378
84876SOL    HW256526   5.067   2.834  14.438
84877SOL     OW56527  12.178   3.077  13.060
84877SOL    HW156528  12.145   3.139  13.125
84877SOL    HW256529  12.271   3.096  13.053
84878SOL     OW56530  13.195   2.041   5.562
84878SOL    HW156531  13.251   1.966   5.580
84878SOL    HW256532  13.127   2.007   5.503
84879SOL     OW56533  13.007   4.162   0.659
84879SOL    HW156534  12.979   4.215   0.733
84879SOL    HW256535  12.940   4.094   0.651
84880SOL     OW56536  12.937   0.941   0.649
84880SOL    HW156537  12.956   0.898   0.732
84880SOL    HW256538  12.926   1.033   0.671
84881SOL     OW56539   5.897  11.720   8.780
84881SOL    HW156540   5.884  11.814   8.789
84881SOL    HW256541   5.840  11.680   8.845
84882SOL     OW56542   7.132   7.223   1.739
84882SOL    HW156543   7.097   7.307   1.770
84882SOL    HW256544   7.054   7.170   1.722
84883SOL     OW56545  11.263   3.607   5.206
84883SOL    HW156546  11.332   3.543   5.188
84883SOL    HW256547  11.263   3.665   5.130
84884SOL     OW56548  12.412   3.059   1.117
84884SOL    HW156549  12.484   3.012   1.159
84884SOL    HW256550  12.406   3.142   1.165
84885SOL     OW56551   1.571   5.927   2.001
84885SOL    HW156552   1.572   5.997   2.066
84885SOL    HW256553   1.594   5.848   2.050
84886SOL     OW56554  13.429   0.297   1.751
84886SOL    HW156555  13.334   0.299   1.762
84886SOL    HW256556  13.444   0.340   1.667
84887SOL     OW56557   9.293   6.137  12.220
84887SOL    HW156558   9.198   6.146  12.230
84887SOL    HW256559   9.328   6.225  12.239
84888SOL     OW56560  14.829   0.267   5.549
84888SOL    HW156561   0.023   0.303   5.594
84888SOL    HW256562  14.776   0.344   5.527
84889SOL     OW56563   3.901   7.294  13.178
84889SOL    HW156564   3.879   7.308  13.270
84889SOL    HW256565   3.854   7.214  13.154
84890SOL     OW56566   6.604   8.728   8.244
84890SOL    HW156567   6.654   8.729   8.325
84890SOL    HW256568   6.542   8.656   8.255
84891SOL     OW56569   3.886  12.925  10.602
84891SOL    HW156570   3.878  13.002  10.545
84891SOL    HW256571   3.863  12.957  10.689
84892SOL     OW56572  11.138  10.066   3.332
84892SOL    HW156573  11.157   9.995   3.270
84892SOL    HW256574  11.215  10.070   3.388
84893SOL     OW56575   8.079   5.140   0.598
84893SOL    HW156576   8.166   5.112   0.628
84893SOL    HW256577   8.019   5.086   0.649
84894SOL     OW56578   8.489  14.399   6.573
84894SOL    HW156579   8.407  14.418   6.529
84894SOL    HW256580   8.538  14.482   6.569
84895SOL     OW56581   0.571  12.381   8.870
84895SOL    HW156582   0.632  12.330   8.817
84895SOL    HW256583   0.523  12.316   8.922
84896SOL     OW56584  13.169   1.382   6.321
84896SOL    HW156585  13.081   1.366   6.355
84896SOL    HW256586  13.155   1.413   6.231
84897SOL     OW56587   6.755  12.484  11.148
84897SOL    HW156588   6.837  12.491  11.099
84897SOL    HW256589   6.774  12.524  11.233
84898SOL     OW56590  13.423   8.017   3.485
84898SOL    HW156591  13.514   8.047   3.478
84898SOL    HW256592  13.371   8.097   3.475
84899SOL     OW56593  11.553   2.203   0.250
84899SOL    HW156594  11.531   2.261   0.177
84899SOL    HW256595  11.552   2.115   0.212
84900SOL     OW56596  11.174  10.649   9.053
84900SOL    HW156597  11.109  10.664   8.984
84900SOL    HW256598  11.125  10.602   9.121
84901SOL     OW56599   0.838   1.812   6.180
84901SOL    HW156600   0.821   1.896   6.139
84901SOL    HW256601   0.816   1.747   6.114
84902SOL     OW56602   7.327  11.541   3.652
84902SOL    HW156603   7.332  11.453   3.689
84902SOL    HW256604   7.409  11.583   3.678
84903SOL     OW56605   4.954   3.709   6.230
84903SOL    HW156606   5.036   3.662   6.211
84903SOL    HW256607   4.962   3.733   6.323
84904SOL     OW56608   6.492  12.926   4.142
84904SOL    HW156609   6.476  12.839   4.177
84904SOL    HW256610   6.474  12.918   4.049
84905SOL     OW56611   0.560   8.094   0.570
84905SOL    HW156612   0.517   8.147   0.503
84905SOL    HW256613   0.493   8.083   0.638
84906SOL     OW56614  11.783  14.418   7.415
84906SOL    HW156615  11.814  14.353   7.478
84906SOL    HW256616  11.738  14.484   7.467
84907SOL     OW56617  13.737   0.151  13.901
84907SOL    HW156618  13.823   0.112  13.884
84907SOL    HW256619  13.746   0.243  13.876
84908SOL     OW56620   1.063  10.385   3.948
84908SOL    HW156621   0.971  10.385   3.921
84908SOL    HW256622   1.066  10.442   4.024
84909SOL     OW56623   5.196   3.978   7.276
84909SOL    HW156624   5.117   4.006   7.322
84909SOL    HW256625   5.170   3.974   7.184
84910SOL     OW56626  12.546   9.914   7.449
84910SOL    HW156627  12.556   9.825   7.482
84910SOL    HW256628  12.595   9.915   7.367
84911SOL     OW56629   2.367   0.029   4.389
84911SOL    HW156630   2.436   0.095   4.385
84911SOL    HW256631   2.292   0.074   4.427
84912SOL     OW56632  10.873  12.895   7.065
84912SOL    HW156633  10.878  12.908   7.159
84912SOL    HW256634  10.944  12.834   7.045
84913SOL     OW56635   0.053   6.085   6.718
84913SOL    HW156636   0.131   6.136   6.698
84913SOL    HW256637   0.087   6.002   6.751
84914SOL     OW56638   3.115  11.734   5.869
84914SOL    HW156639   3.103  11.805   5.933
84914SOL    HW256640   3.066  11.763   5.792
84915SOL     OW56641  11.432  12.873   1.222
84915SOL    HW156642  11.492  12.855   1.295
84915SOL    HW256643  11.424  12.790   1.176
84916SOL     OW56644  10.523   7.955   4.867
84916SOL    HW156645  10.460   7.970   4.797
84916SOL    HW256646  10.555   8.042   4.890
84917SOL     OW56647   6.723   8.773   9.837
84917SOL    HW156648   6.642   8.818   9.812
84917SOL    HW256649   6.693   8.688   9.870
84918SOL     OW56650  11.529  11.523   6.814
84918SOL    HW156651  11.608  11.489   6.772
84918SOL    HW256652  11.561  11.570   6.891
84919SOL     OW56653  13.001   1.609   6.579
84919SOL    HW156654  12.945   1.539   6.610
84919SOL    HW256655  13.025   1.657   6.658
84920SOL     OW56656   5.377   0.563   0.244
84920SOL    HW156657   5.450   0.626   0.241
84920SOL    HW256658   5.310   0.608   0.295
84921SOL     OW56659   3.010  13.274  10.390
84921SOL    HW156660   2.931  13.221  10.399
84921SOL    HW256661   3.048  13.276  10.478
84922SOL     OW56662   8.724   0.196   2.409
84922SOL    HW156663   8.779   0.272   2.424
84922SOL    HW256664   8.634   0.229   2.412
84923SOL     OW56665   3.174  12.958   6.011
84923SOL    HW156666   3.237  12.887   5.998
84923SOL    HW256667   3.126  12.963   5.928
84924SOL     OW56668   8.910   7.502   2.376
84924SOL    HW156669   8.921   7.551   2.458
84924SOL    HW256670   8.965   7.424   2.388
84925SOL     OW56671   1.469   8.989   3.537
84925SOL    HW156672   1.376   8.965   3.529
84925SOL    HW256673   1.468   9.085   3.537
84926SOL     OW56674   8.318  14.000   2.700
84926SOL    HW156675   8.309  14.064   2.771
84926SOL    HW256676   8.387  14.036   2.645
84927SOL     OW56677  13.709   2.591   7.677
84927SOL    HW156678  13.762   2.513   7.689
84927SOL    HW256679  13.620   2.558   7.667
84928SOL     OW56680   6.653  13.838   8.546
84928SOL    HW156681   6.584  13.876   8.492
84928SOL    HW256682   6.702  13.913   8.579
84929SOL     OW56683  12.286   9.343   7.637
84929SOL    HW156684  12.357   9.329   7.699
84929SOL    HW256685  12.260   9.434   7.651
84930SOL     OW56686  13.983   1.369   2.627
84930SOL    HW156687  13.967   1.367   2.532
84930SOL    HW256688  13.980   1.277   2.653
84931SOL     OW56689   5.258  13.959   5.036
84931SOL    HW156690   5.266  13.888   5.100
84931SOL    HW256691   5.168  13.953   5.005
84932SOL     OW56692   8.423   0.787   2.716
84932SOL    HW156693   8.372   0.868   2.724
84932SOL    HW256694   8.358   0.717   2.715
84933SOL     OW56695   9.447  11.965   1.082
84933SOL    HW156696   9.535  11.947   1.048
84933SOL    HW256697   9.456  11.959   1.177
84934SOL     OW56698   5.755  12.687  10.757
84934SOL    HW156699   5.754  12.695  10.662
84934SOL    HW256700   5.702  12.760  10.788
84935SOL     OW56701  14.503   7.608   6.982
84935SOL    HW156702  14.597   7.598   6.968
84935SOL    HW256703  14.472   7.519   7.002
84936SOL     OW56704  14.382   4.322   7.677
84936SOL    HW156705  14.421   4.408   7.663
84936SOL    HW256706  14.451   4.271   7.720
84937SOL     OW56707   8.396   1.192  11.108
84937SOL    HW156708   8.480   1.238  11.107
84937SOL    HW256709   8.419   1.101  11.131
84938SOL     OW56710  11.414   1.921   6.586
84938SOL    HW156711  11.350   1.963   6.528
84938SOL    HW256712  11.468   1.993   6.618
84939SOL     OW56713   1.971  10.501   7.574
84939SOL    HW156714   1.982  10.421   7.522
84939SOL    HW256715   1.996  10.475   7.663
84940SOL     OW56716   0.138  11.205   7.038
84940SOL    HW156717   0.206  11.235   6.978
84940SOL    HW256718   0.161  11.244   7.122
84941SOL     OW56719  14.020   6.667  14.133
84941SOL    HW156720  13.929   6.690  14.115
84941SOL    HW256721  14.068   6.693  14.054
84942SOL     OW56722  11.876   2.813   0.613
84942SOL    HW156723  11.891   2.907   0.606
84942SOL    HW256724  11.783   2.802   0.595
84943SOL     OW56725   1.508   2.258   0.207
84943SOL    HW156726   1.485   2.166   0.222
84943SOL    HW256727   1.426   2.306   0.218
84944SOL     OW56728   7.689   9.295  10.203
84944SOL    HW156729   7.741   9.354  10.148
84944SOL    HW256730   7.751   9.228  10.232
84945SOL     OW56731  11.415   8.364   6.330
84945SOL    HW156732  11.391   8.392   6.242
84945SOL    HW256733  11.370   8.425   6.388
84946SOL     OW56734   3.267   4.526   5.579
84946SOL    HW156735   3.184   4.481   5.561
84946SOL    HW256736   3.294   4.492   5.664
84947SOL     OW56737   8.250   6.924  10.188
84947SOL    HW156738   8.211   6.925  10.276
84947SOL    HW256739   8.302   7.004  10.184
84948SOL     OW56740   1.504  13.727   2.957
84948SOL    HW156741   1.579  13.668   2.944
84948SOL    HW256742   1.453  13.686   3.027
84949SOL     OW56743   4.666   1.538   2.248
84949SOL    HW156744   4.721   1.613   2.271
84949SOL    HW256745   4.701   1.466   2.301
84950SOL     OW56746  10.214  14.818  11.428
84950SOL    HW156747  10.273   0.012  11.427
84950SOL    HW256748  10.235  14.772  11.509
84951SOL     OW56749   2.911  14.650  10.020
84951SOL    HW156750   2.876  14.712  10.084
84951SOL    HW256751   3.002  14.638  10.046
84952SOL     OW56752   7.298   7.077   3.866
84952SOL    HW156753   7.225   7.113   3.917
84952SOL    HW256754   7.256   7.038   3.789
84953SOL     OW56755   2.273   3.322   0.584
84953SOL    HW156756   2.224   3.357   0.509
84953SOL    HW256757   2.225   3.353   0.661
84954SOL     OW56758   4.402  12.640   1.542
84954SOL    HW156759   4.448  12.622   1.460
84954SOL    HW256760   4.456  12.600   1.609
84955SOL     OW56761  13.398   4.572   1.895
84955SOL    HW156762  13.392   4.601   1.804
84955SOL    HW256763  13.346   4.636   1.945
84956SOL     OW56764  11.659   3.786   3.014
84956SOL    HW156765  11.668   3.862   2.957
84956SOL    HW256766  11.606   3.817   3.088
84957SOL     OW56767   9.075  13.921   4.821
84957SOL    HW156768   9.162  13.894   4.793
84957SOL    HW256769   9.087  13.950   4.911
84958SOL     OW56770   4.191   6.351   7.564
84958SOL    HW156771   4.190   6.287   7.635
84958SOL    HW256772   4.282   6.382   7.560
84959SOL     OW56773   9.686  14.826  13.950
84959SOL    HW156774   9.716  14.812  13.860
84959SOL    HW256775   9.763  14.809  14.004
84960SOL     OW56776   7.316   3.341  12.810
84960SOL    HW156777   7.344   3.365  12.721
84960SOL    HW256778   7.306   3.424  12.856
84961SOL     OW56779   1.930   3.142   4.466
84961SOL    HW156780   2.022   3.168   4.472
84961SOL    HW256781   1.927   3.056   4.508
84962SOL     OW56782   8.185  12.529   1.483
84962SOL    HW156783   8.259  12.522   1.423
84962SOL    HW256784   8.194  12.615   1.523
84963SOL     OW56785   5.472  10.611   9.317
84963SOL    HW156786   5.444  10.664   9.242
84963SOL    HW256787   5.423  10.529   9.307
84964SOL     OW56788  11.416  12.431  14.156
84964SOL    HW156789  11.478  12.491  14.198
84964SOL    HW256790  11.354  12.488  14.111
84965SOL     OW56791  11.789   4.799   0.746
84965SOL    HW156792  11.786   4.819   0.840
84965SOL    HW256793  11.706   4.756   0.729
84966SOL     OW56794  10.414  13.923   8.757
84966SOL    HW156795  10.332  13.911   8.805
84966SOL    HW256796  10.458  13.839   8.763
84967SOL     OW56797  10.991   1.819   8.103
84967SOL    HW156798  10.931   1.758   8.059
84967SOL    HW256799  11.067   1.824   8.045
84968SOL     OW56800   3.112   5.319   4.848
84968SOL    HW156801   3.101   5.349   4.938
84968SOL    HW256802   3.038   5.260   4.833
84969SOL     OW56803   1.093   6.951  12.754
84969SOL    HW156804   1.073   6.937  12.846
84969SOL    HW256805   1.158   7.021  12.754
84970SOL     OW56806   8.815  11.947   2.843
84970SOL    HW156807   8.740  11.962   2.785
84970SOL    HW256808   8.886  11.920   2.784
84971SOL     OW56809   6.430   7.968   0.601
84971SOL    HW156810   6.455   7.938   0.689
84971SOL    HW256811   6.400   7.890   0.556
84972SOL     OW56812   5.737  14.285   4.508
84972SOL    HW156813   5.668  14.335   4.464
84972SOL    HW256814   5.691  14.236   4.576
84973SOL     OW56815   5.593  10.193  14.033
84973SOL    HW156816   5.647  10.117  14.054
84973SOL    HW256817   5.528  10.160  13.971
84974SOL     OW56818  13.695   0.448  13.470
84974SOL    HW156819  13.784   0.450  13.433
84974SOL    HW256820  13.681   0.356  13.492
84975SOL     OW56821   8.932   7.668  11.869
84975SOL    HW156822   8.876   7.728  11.819
84975SOL    HW256823   9.003   7.646  11.808
84976SOL     OW56824   1.256  13.927  11.185
84976SOL    HW156825   1.241  13.906  11.277
84976SOL    HW256826   1.192  13.873  11.137
84977SOL     OW56827  11.842  13.692   7.768
84977SOL    HW156828  11.856  13.654   7.681
84977SOL    HW256829  11.899  13.769   7.771
84978SOL     OW56830  12.033   6.768  14.515
84978SOL    HW156831  12.004   6.837  14.456
84978SOL    HW256832  11.955   6.713  14.527
84979SOL     OW56833   5.493   8.455   3.114
84979SOL    HW156834   5.430   8.486   3.049
84979SOL    HW256835   5.485   8.516   3.186
84980SOL     OW56836   2.772   3.316   2.664
84980SOL    HW156837   2.858   3.294   2.627
84980SOL    HW256838   2.780   3.295   2.757
84981SOL     OW56839  14.065   3.840  14.230
84981SOL    HW156840  14.041   3.874  14.316
84981SOL    HW256841  13.984   3.801  14.196
84982SOL     OW56842   5.046  10.417  13.748
84982SOL    HW156843   5.131  10.381  13.721
84982SOL    HW256844   4.982  10.361  13.705
84983SOL     OW56845   6.588   4.464   9.426
84983SOL    HW156846   6.544   4.387   9.391
84983SOL    HW256847   6.606   4.519   9.350
84984SOL     OW56848  14.002   2.811   5.618
84984SOL    HW156849  14.059   2.757   5.563
84984SOL    HW256850  13.981   2.887   5.564
84985SOL     OW56851   7.449   0.911   6.009
84985SOL    HW156852   7.522   0.850   6.007
84985SOL    HW256853   7.371   0.856   5.999
84986SOL     OW56854   6.572  10.221  12.076
84986SOL    HW156855   6.606  10.180  11.996
84986SOL    HW256856   6.558  10.148  12.136
84987SOL     OW56857   8.286  13.840   3.313
84987SOL    HW156858   8.366  13.826   3.263
84987SOL    HW256859   8.225  13.879   3.251
84988SOL     OW56860   7.333  13.950   8.997
84988SOL    HW156861   7.262  13.904   8.952
84988SOL    HW256862   7.288  14.005   9.061
84989SOL     OW56863   2.563  11.450   5.113
84989SOL    HW156864   2.593  11.373   5.163
84989SOL    HW256865   2.605  11.524   5.158
84990SOL     OW56866   2.697   9.423  10.912
84990SOL    HW156867   2.705   9.346  10.855
84990SOL    HW256868   2.780   9.469  10.901
84991SOL     OW56869   0.160   2.941   5.438
84991SOL    HW156870   0.108   2.978   5.509
84991SOL    HW256871   0.175   2.850   5.465
84992SOL     OW56872   9.904   5.674   3.773
84992SOL    HW156873   9.871   5.588   3.796
84992SOL    HW256874   9.891   5.681   3.678
84993SOL     OW56875   1.483   9.984  10.607
84993SOL    HW156876   1.478  10.020  10.696
84993SOL    HW256877   1.404   9.931  10.598
84994SOL     OW56878   9.590  10.419  12.048
84994SOL    HW156879   9.590  10.447  11.957
84994SOL    HW256880   9.525  10.475  12.091
84995SOL     OW56881   6.581   6.329   1.228
84995SOL    HW156882   6.608   6.290   1.145
84995SOL    HW256883   6.657   6.320   1.285
84996SOL     OW56884   4.215  13.579  12.995
84996SOL    HW156885   4.237  13.497  13.041
84996SOL    HW256886   4.131  13.604  13.031
84997SOL     OW56887   7.712  11.383   7.408
84997SOL    HW156888   7.655  11.437   7.463
84997SOL    HW256889   7.801  11.405   7.438
84998SOL     OW56890  12.432  13.732   7.318
84998SOL    HW156891  12.355  13.699   7.271
84998SOL    HW256892  12.411  13.824   7.336
84999SOL     OW56893   8.095   8.484   1.271
84999SOL    HW156894   8.093   8.459   1.179
84999SOL    HW256895   8.147   8.565   1.272
85000SOL     OW56896   3.961   9.330  11.618
85000SOL    HW156897   3.928   9.289  11.538
85000SOL    HW256898   3.882   9.350  11.670
85001SOL     OW56899   7.867   4.588   5.622
85001SOL    HW156900   7.897   4.678   5.610
85001SOL    HW256901   7.853   4.555   5.533
85002SOL     OW56902   2.251   1.641   9.275
85002SOL    HW156903   2.205   1.575   9.222
85002SOL    HW256904   2.271   1.711   9.212
85003SOL     OW56905  14.078  11.360   0.622
85003SOL    HW156906  14.044  11.398   0.541
85003SOL    HW256907  14.125  11.432   0.665
85004SOL     OW56908  13.858   4.295   1.404
85004SOL    HW156909  13.771   4.288   1.443
85004SOL    HW256910  13.915   4.324   1.475
85005SOL     OW56911   1.840  10.483   8.407
85005SOL    HW156912   1.861  10.411   8.466
85005SOL    HW256913   1.870  10.562   8.452
85006SOL     OW56914   3.374  14.811   5.296
85006SOL    HW156915   3.468  14.797   5.303
85006SOL    HW256916   3.364   0.018   5.264
85007SOL     OW56917   1.964   2.115   6.384
85007SOL    HW156918   1.906   2.190   6.378
85007SOL    HW256919   1.919   2.045   6.336
85008SOL     OW56920   1.791  13.009   5.787
85008SOL    HW156921   1.872  13.000   5.835
85008SOL    HW256922   1.766  12.919   5.765
85009SOL     OW56923   4.715   5.391   0.281
85009SOL    HW156924   4.766   5.383   0.201
85009SOL    HW256925   4.780   5.381   0.351
85010SOL     OW56926  11.903  14.314   9.195
85010SOL    HW156927  11.987  14.280   9.228
85010SOL    HW256928  11.910  14.409   9.206
85011SOL     OW56929  11.419  10.119  14.233
85011SOL    HW156930  11.354  10.052  14.250
85011SOL    HW256931  11.416  10.133  14.138
85012SOL     OW56932   0.891  12.282  10.033
85012SOL    HW156933   0.821  12.238  10.082
85012SOL    HW256934   0.954  12.308  10.100
85013SOL     OW56935   7.377   1.533  11.160
85013SOL    HW156936   7.375   1.581  11.242
85013SOL    HW256937   7.431   1.456  11.179
85014SOL     OW56938  10.134   9.734   6.292
85014SOL    HW156939  10.117   9.677   6.217
85014SOL    HW256940  10.214   9.781   6.269
85015SOL     OW56941   1.961   0.661  13.001
85015SOL    HW156942   1.915   0.622  13.075
85015SOL    HW256943   1.968   0.754  13.022
85016SOL     OW56944   7.957  13.970   3.675
85016SOL    HW156945   8.030  13.992   3.617
85016SOL    HW256946   7.879  13.993   3.625
85017SOL     OW56947  13.324  13.108  13.653
85017SOL    HW156948  13.396  13.130  13.594
85017SOL    HW256949  13.313  13.186  13.708
85018SOL     OW56950  11.078   6.492   2.166
85018SOL    HW156951  11.132   6.452   2.234
85018SOL    HW256952  11.125   6.475   2.085
85019SOL     OW56953  13.959  11.293   5.083
85019SOL    HW156954  13.937  11.222   5.024
85019SOL    HW256955  14.055  11.288   5.093
85020SOL     OW56956   4.602   1.559   1.044
85020SOL    HW156957   4.632   1.562   0.953
85020SOL    HW256958   4.586   1.466   1.061
85021SOL     OW56959   7.352   0.068   4.870
85021SOL    HW156960   7.384   0.103   4.787
85021SOL    HW256961   7.304   0.141   4.910
85022SOL     OW56962   1.516  13.261  14.341
85022SOL    HW156963   1.428  13.246  14.305
85022SOL    HW256964   1.507  13.342  14.392
85023SOL     OW56965   9.995   0.706  12.453
85023SOL    HW156966  10.003   0.687  12.359
85023SOL    HW256967   9.929   0.775  12.458
85024SOL     OW56968   8.208  11.439  12.365
85024SOL    HW156969   8.301  11.449  12.386
85024SOL    HW256970   8.206  11.425  12.271
85025SOL     OW56971   9.070   9.856   5.242
85025SOL    HW156972   9.001   9.791   5.259
85025SOL    HW256973   9.111   9.826   5.161
85026SOL     OW56974   9.255   3.189  14.245
85026SOL    HW156975   9.320   3.119  14.251
85026SOL    HW256976   9.171   3.145  14.258
85027SOL     OW56977   1.985   7.964   7.244
85027SOL    HW156978   1.985   7.902   7.317
85027SOL    HW256979   2.070   8.009   7.251
85028SOL     OW56980   0.565  12.086   6.436
85028SOL    HW156981   0.574  12.066   6.343
85028SOL    HW256982   0.579  12.181   6.441
85029SOL     OW56983   8.611   7.044   8.215
85029SOL    HW156984   8.594   7.108   8.147
85029SOL    HW256985   8.597   7.092   8.297
85030SOL     OW56986  11.409   0.214   6.309
85030SOL    HW156987  11.336   0.171   6.264
85030SOL    HW256988  11.381   0.305   6.318
85031SOL     OW56989   8.348   2.711  10.441
85031SOL    HW156990   8.270   2.664  10.471
85031SOL    HW256991   8.421   2.662  10.479
85032SOL     OW56992   9.178   5.301   9.772
85032SOL    HW156993   9.181   5.259   9.686
85032SOL    HW256994   9.268   5.294   9.805
85033SOL     OW56995   9.472  11.420   1.852
85033SOL    HW156996   9.420  11.351   1.891
85033SOL    HW256997   9.551  11.425   1.906
85034SOL     OW56998   5.481  10.600  14.795
85034SOL    HW156999   5.397  10.603  14.840
85034SOL    HW257000   5.515  10.689  14.800
85035SOL     OW57001   7.185   3.492   5.357
85035SOL    HW157002   7.181   3.407   5.313
85035SOL    HW257003   7.192   3.470   5.450
85036SOL     OW57004   1.177  11.808   0.994
85036SOL    HW157005   1.225  11.726   0.980
85036SOL    HW257006   1.190  11.828   1.087
85037SOL     OW57007   4.543   8.304   2.683
85037SOL    HW157008   4.582   8.344   2.605
85037SOL    HW257009   4.593   8.224   2.696
85038SOL     OW57010   8.093   2.082   8.878
85038SOL    HW157011   8.087   2.015   8.810
85038SOL    HW257012   8.128   2.035   8.954
85039SOL     OW57013  11.677   2.261  12.064
85039SOL    HW157014  11.631   2.260  11.980
85039SOL    HW257015  11.659   2.175  12.102
85040SOL     OW57016   2.013   1.474  14.224
85040SOL    HW157017   1.950   1.525  14.274
85040SOL    HW257018   2.097   1.488  14.268
85041SOL     OW57019   8.119   7.323   8.257
85041SOL    HW157020   8.024   7.312   8.253
85041SOL    HW257021   8.138   7.390   8.192
85042SOL     OW57022   8.098   5.158  13.622
85042SOL    HW157023   8.052   5.238  13.597
85042SOL    HW257024   8.130   5.175  13.710
85043SOL     OW57025  10.016   0.852   9.835
85043SOL    HW157026  10.010   0.765   9.795
85043SOL    HW257027  10.025   0.912   9.761
85044SOL     OW57028  14.076   7.737   7.582
85044SOL    HW157029  14.035   7.708   7.663
85044SOL    HW257030  14.014   7.715   7.513
85045SOL     OW57031   7.436   2.854   2.793
85045SOL    HW157032   7.400   2.783   2.740
85045SOL    HW257033   7.522   2.871   2.755
85046SOL     OW57034   7.825   1.302  14.050
85046SOL    HW157035   7.750   1.360  14.061
85046SOL    HW257036   7.791   1.227  14.001
85047SOL     OW57037   5.150   1.559   6.289
85047SOL    HW157038   5.205   1.612   6.346
85047SOL    HW257039   5.143   1.610   6.208
85048SOL     OW57040  12.764   4.537   9.402
85048SOL    HW157041  12.672   4.562   9.407
85048SOL    HW257042  12.763   4.441   9.400
85049SOL     OW57043  14.525  10.853   7.685
85049SOL    HW157044  14.617  10.860   7.660
85049SOL    HW257045  14.478  10.899   7.616
85050SOL     OW57046  14.172   4.471   7.125
85050SOL    HW157047  14.161   4.376   7.130
85050SOL    HW257048  14.151   4.494   7.035
85051SOL     OW57049   6.770   8.436  13.285
85051SOL    HW157050   6.711   8.433  13.210
85051SOL    HW257051   6.734   8.372  13.347
85052SOL     OW57052   0.813  14.298   8.085
85052SOL    HW157053   0.752  14.259   8.147
85052SOL    HW257054   0.788  14.391   8.081
85053SOL     OW57055   7.155  12.550   7.539
85053SOL    HW157056   7.080  12.589   7.494
85053SOL    HW257057   7.116  12.491   7.603
85054SOL     OW57058   2.782   1.441   2.070
85054SOL    HW157059   2.725   1.403   2.137
85054SOL    HW257060   2.782   1.535   2.089
85055SOL     OW57061  13.333  12.260   4.361
85055SOL    HW157062  13.379  12.289   4.282
85055SOL    HW257063  13.345  12.165   4.362
85056SOL     OW57064  12.896   5.793   4.999
85056SOL    HW157065  12.964   5.806   4.933
85056SOL    HW257066  12.936   5.734   5.063
85057SOL     OW57067   3.837   2.668  14.505
85057SOL    HW157068   3.837   2.763  14.509
85057SOL    HW257069   3.748   2.643  14.531
85058SOL     OW57070   5.933   5.566  10.573
85058SOL    HW157071   5.878   5.493  10.545
85058SOL    HW257072   5.922   5.569  10.668
85059SOL     OW57073   8.068  12.806  11.364
85059SOL    HW157074   8.093  12.804  11.271
85059SOL    HW257075   8.007  12.734  11.374
85060SOL     OW57076   4.701   1.620   2.737
85060SOL    HW157077   4.711   1.584   2.826
85060SOL    HW257078   4.664   1.547   2.687
85061SOL     OW57079   0.772   9.744  10.810
85061SOL    HW157080   0.837   9.812  10.794
85061SOL    HW257081   0.715   9.780  10.878
85062SOL     OW57082  13.029   4.474   5.186
85062SOL    HW157083  13.028   4.397   5.129
85062SOL    HW257084  13.022   4.438   5.274
85063SOL     OW57085   1.418   8.706  12.622
85063SOL    HW157086   1.510   8.680  12.620
85063SOL    HW257087   1.421   8.802  12.631
85064SOL     OW57088  10.024   1.952   6.100
85064SOL    HW157089   9.953   1.904   6.142
85064SOL    HW257090  10.060   2.007   6.169
85065SOL     OW57091   2.844   0.654   8.672
85065SOL    HW157092   2.815   0.744   8.686
85065SOL    HW257093   2.792   0.624   8.597
85066SOL     OW57094   6.064  12.971   3.947
85066SOL    HW157095   6.057  12.980   4.042
85066SOL    HW257096   6.100  12.884   3.933
85067SOL     OW57097   8.977  11.063   6.619
85067SOL    HW157098   8.906  11.033   6.562
85067SOL    HW257099   8.933  11.105   6.693
85068SOL     OW57100  12.428  13.106   5.280
85068SOL    HW157101  12.385  13.191   5.274
85068SOL    HW257102  12.368  13.045   5.239
85069SOL     OW57103   8.888   7.060   0.565
85069SOL    HW157104   8.930   7.030   0.484
85069SOL    HW257105   8.797   7.073   0.541
85070SOL     OW57106   0.549   7.924   1.086
85070SOL    HW157107   0.534   8.004   1.137
85070SOL    HW257108   0.475   7.920   1.026
85071SOL     OW57109   8.256   7.534  13.864
85071SOL    HW157110   8.314   7.460  13.883
85071SOL    HW257111   8.300   7.580  13.791
85072SOL     OW57112   2.150  12.415   4.295
85072SOL    HW157113   2.104  12.438   4.214
85072SOL    HW257114   2.084  12.423   4.363
85073SOL     OW57115   2.873   9.682   8.634
85073SOL    HW157116   2.966   9.706   8.628
85073SOL    HW257117   2.861   9.615   8.566
85074SOL     OW57118  13.890  11.106   5.557
85074SOL    HW157119  13.965  11.125   5.614
85074SOL    HW257120  13.826  11.174   5.579
85075SOL     OW57121   5.612  12.747   2.795
85075SOL    HW157122   5.680  12.686   2.825
85075SOL    HW257123   5.620  12.747   2.700
85076SOL     OW57124   5.702  14.778  13.888
85076SOL    HW157125   5.645  14.818  13.953
85076SOL    HW257126   5.720  14.848  13.825
85077SOL     OW57127   8.950  14.017  13.130
85077SOL    HW157128   8.955  13.922  13.140
85077SOL    HW257129   8.927  14.030  13.038
85078SOL     OW57130   4.661   2.291   8.358
85078SOL    HW157131   4.604   2.284   8.282
85078SOL    HW257132   4.677   2.200   8.384
85079SOL     OW57133   9.517  12.569   2.999
85079SOL    HW157134   9.479  12.484   2.980
85079SOL    HW257135   9.530  12.610   2.913
85080SOL     OW57136  11.259   9.926   9.076
85080SOL    HW157137  11.222   9.905   9.162
85080SOL    HW257138  11.314   9.851   9.055
85081SOL     OW57139   5.623   5.736   3.376
85081SOL    HW157140   5.534   5.736   3.412
85081SOL    HW257141   5.638   5.646   3.349
85082SOL     OW57142  14.367   8.637  10.384
85082SOL    HW157143  14.391   8.546  10.402
85082SOL    HW257144  14.359   8.641  10.288
85083SOL     OW57145   1.102   3.827  12.325
85083SOL    HW157146   1.144   3.817  12.411
85083SOL    HW257147   1.167   3.798  12.262
85084SOL     OW57148  12.907  12.658  11.323
85084SOL    HW157149  12.901  12.753  11.312
85084SOL    HW257150  12.933  12.646  11.415
85085SOL     OW57151  11.555   0.198  12.201
85085SOL    HW157152  11.505   0.252  12.262
85085SOL    HW257153  11.641   0.240  12.197
85086SOL     OW57154  13.199   6.260   2.150
85086SOL    HW157155  13.156   6.175   2.132
85086SOL    HW257156  13.205   6.302   2.065
85087SOL     OW57157   0.939   5.659  11.667
85087SOL    HW157158   0.851   5.625  11.654
85087SOL    HW257159   0.927   5.738  11.719
85088SOL     OW57160   8.587   7.970   3.751
85088SOL    HW157161   8.500   7.931   3.754
85088SOL    HW257162   8.588   8.032   3.824
85089SOL     OW57163   2.584  13.203   5.204
85089SOL    HW157164   2.663  13.191   5.257
85089SOL    HW257165   2.614  13.247   5.125
85090SOL     OW57166  14.400  14.558   1.376
85090SOL    HW157167  14.375  14.508   1.453
85090SOL    HW257168  14.343  14.525   1.307
85091SOL     OW57169  10.173  12.116  13.212
85091SOL    HW157170  10.223  12.039  13.240
85091SOL    HW257171  10.157  12.165  13.293
85092SOL     OW57172   7.262   2.117   0.499
85092SOL    HW157173   7.251   2.208   0.527
85092SOL    HW257174   7.205   2.067   0.558
85093SOL     OW57175  13.853  11.092   6.564
85093SOL    HW157176  13.854  11.171   6.618
85093SOL    HW257177  13.770  11.095   6.518
85094SOL     OW57178  10.403  10.473   1.362
85094SOL    HW157179  10.350  10.528   1.420
85094SOL    HW257180  10.353  10.468   1.281
85095SOL     OW57181  14.815  12.913   5.464
85095SOL    HW157182  14.721  12.906   5.449
85095SOL    HW257183  14.839  12.830   5.505
85096SOL     OW57184  13.944   2.033  11.348
85096SOL    HW157185  13.859   2.000  11.378
85096SOL    HW257186  14.008   1.992  11.408
85097SOL     OW57187   5.994  13.065   0.733
85097SOL    HW157188   6.074  13.012   0.724
85097SOL    HW257189   6.023  13.155   0.719
85098SOL     OW57190   6.207   8.625   4.606
85098SOL    HW157191   6.220   8.701   4.549
85098SOL    HW257192   6.240   8.653   4.691
85099SOL     OW57193  14.774   4.290   8.704
85099SOL    HW157194  14.793   4.319   8.615
85099SOL    HW257195  14.691   4.332   8.726
85100SOL     OW57196   9.336   2.408   2.748
85100SOL    HW157197   9.358   2.450   2.831
85100SOL    HW257198   9.402   2.340   2.738
85101SOL     OW57199   4.498   6.241   0.577
85101SOL    HW157200   4.496   6.293   0.657
85101SOL    HW257201   4.407   6.213   0.565
85102SOL     OW57202   0.354  12.158   8.568
85102SOL    HW157203   0.425  12.142   8.630
85102SOL    HW257204   0.323  12.071   8.544
85103SOL     OW57205  12.021   1.709   9.400
85103SOL    HW157206  11.938   1.739   9.436
85103SOL    HW257207  12.020   1.739   9.309
85104SOL     OW57208   0.877   9.686   4.706
85104SOL    HW157209   0.808   9.675   4.641
85104SOL    HW257210   0.926   9.763   4.675
85105SOL     OW57211  14.145   6.936   8.947
85105SOL    HW157212  14.071   6.963   9.000
85105SOL    HW257213  14.185   6.864   8.996
85106SOL     OW57214   4.937  14.251   5.367
85106SOL    HW157215   4.873  14.188   5.400
85106SOL    HW257216   4.888  14.333   5.360
85107SOL     OW57217   3.416   3.105  14.045
85107SOL    HW157218   3.463   3.179  14.084
85107SOL    HW257219   3.424   3.118  13.950
85108SOL     OW57220   6.510   3.287  14.251
85108SOL    HW157221   6.460   3.249  14.178
85108SOL    HW257222   6.459   3.266  14.329
85109SOL     OW57223   3.866   1.372   4.066
85109SOL    HW157224   3.909   1.307   4.122
85109SOL    HW257225   3.931   1.393   4.000
85110SOL     OW57226   0.236   9.825  14.147
85110SOL    HW157227   0.189   9.834  14.230
85110SOL    HW257228   0.203   9.896  14.093
85111SOL     OW57229  10.829   1.581   5.131
85111SOL    HW157230  10.768   1.517   5.093
85111SOL    HW257231  10.860   1.632   5.056
85112SOL     OW57232   7.651   2.696   6.207
85112SOL    HW157233   7.645   2.604   6.183
85112SOL    HW257234   7.583   2.708   6.274
85113SOL     OW57235   9.225   5.240  10.724
85113SOL    HW157236   9.215   5.146  10.741
85113SOL    HW257237   9.145   5.265  10.678
85114SOL     OW57238  13.743  14.106   1.989
85114SOL    HW157239  13.790  14.130   2.069
85114SOL    HW257240  13.662  14.158   1.993
85115SOL     OW57241   7.776   1.971  10.060
85115SOL    HW157242   7.859   2.011  10.034
85115SOL    HW257243   7.734   1.947   9.977
85116SOL     OW57244   9.579   5.512   8.281
85116SOL    HW157245   9.588   5.515   8.185
85116SOL    HW257246   9.669   5.517   8.313
85117SOL     OW57247   1.707   1.786  12.458
85117SOL    HW157248   1.667   1.703  12.483
85117SOL    HW257249   1.700   1.841  12.536
85118SOL     OW57250   5.141  13.080  14.346
85118SOL    HW157251   5.142  13.001  14.399
85118SOL    HW257252   5.227  13.083  14.304
85119SOL     OW57253  11.313   9.692   0.879
85119SOL    HW157254  11.221   9.668   0.868
85119SOL    HW257255  11.311   9.778   0.920
85120SOL     OW57256   9.174   3.590   2.068
85120SOL    HW157257   9.150   3.670   2.115
85120SOL    HW257258   9.267   3.601   2.048
85121SOL     OW57259   5.784   4.965   2.027
85121SOL    HW157260   5.774   4.888   1.970
85121SOL    HW257261   5.831   5.028   1.972
85122SOL     OW57262   7.036  11.766  14.156
85122SOL    HW157263   7.031  11.810  14.241
85122SOL    HW257264   6.967  11.700  14.159
85123SOL     OW57265  14.493  12.985   5.717
85123SOL    HW157266  14.579  12.946   5.733
85123SOL    HW257267  14.512  13.074   5.688
85124SOL     OW57268  12.008   6.766   4.156
85124SOL    HW157269  12.083   6.821   4.135
85124SOL    HW257270  11.954   6.820   4.214
85125SOL     OW57271   6.947   3.674  13.305
85125SOL    HW157272   6.976   3.696  13.394
85125SOL    HW257273   7.017   3.621  13.268
85126SOL     OW57274   1.801   4.992   4.157
85126SOL    HW157275   1.733   4.925   4.148
85126SOL    HW257276   1.811   5.028   4.069
85127SOL     OW57277  10.950   0.172   3.088
85127SOL    HW157278  11.027   0.125   3.121
85127SOL    HW257279  10.875   0.122   3.120
85128SOL     OW57280   2.934   2.606   0.205
85128SOL    HW157281   2.886   2.669   0.259
85128SOL    HW257282   3.019   2.596   0.249
85129SOL     OW57283   0.548   7.217   5.445
85129SOL    HW157284   0.541   7.122   5.445
85129SOL    HW257285   0.590   7.238   5.361
85130SOL     OW57286   8.818   4.079  14.646
85130SOL    HW157287   8.745   4.084  14.584
85130SOL    HW257288   8.785   4.027  14.719
85131SOL     OW57289   9.995  11.558  14.266
85131SOL    HW157290  10.053  11.491  14.304
85131SOL    HW257291   9.917  11.510  14.240
85132SOL     OW57292   5.224   3.909   2.073
85132SOL    HW157293   5.302   3.956   2.044
85132SOL    HW257294   5.256   3.821   2.095
85133SOL     OW57295   9.023  13.750   4.482
85133SOL    HW157296   8.961  13.740   4.555
85133SOL    HW257297   8.972  13.731   4.404
85134SOL     OW57298   5.678   0.735   9.477
85134SOL    HW157299   5.711   0.778   9.556
85134SOL    HW257300   5.682   0.642   9.496
85135SOL     OW57301   3.786   8.734   6.742
85135SOL    HW157302   3.697   8.757   6.715
85135SOL    HW257303   3.838   8.743   6.662
85136SOL     OW57304   2.395   9.749   9.540
85136SOL    HW157305   2.446   9.741   9.621
85136SOL    HW257306   2.459   9.729   9.471
85137SOL     OW57307   7.434   2.588  12.099
85137SOL    HW157308   7.512   2.597  12.154
85137SOL    HW257309   7.381   2.665  12.118
85138SOL     OW57310   2.705  14.441   2.723
85138SOL    HW157311   2.668  14.469   2.806
85138SOL    HW257312   2.660  14.493   2.657
85139SOL     OW57313  12.502   1.208  14.428
85139SOL    HW157314  12.501   1.286  14.484
85139SOL    HW257315  12.589   1.171  14.440
85140SOL     OW57316   4.101   9.858   9.863
85140SOL    HW157317   4.038   9.829   9.798
85140SOL    HW257318   4.181   9.876   9.814
85141SOL     OW57319   9.443   4.419   6.287
85141SOL    HW157320   9.369   4.365   6.259
85141SOL    HW257321   9.517   4.358   6.291
85142SOL     OW57322   2.150  13.676   0.472
85142SOL    HW157323   2.170  13.702   0.562
85142SOL    HW257324   2.232  13.689   0.424
85143SOL     OW57325  12.399  11.320   8.110
85143SOL    HW157326  12.384  11.232   8.078
85143SOL    HW257327  12.380  11.316   8.204
85144SOL     OW57328  13.579   9.520   4.065
85144SOL    HW157329  13.537   9.567   4.138
85144SOL    HW257330  13.524   9.539   3.989
85145SOL     OW57331   9.047   0.459  12.047
85145SOL    HW157332   9.139   0.440  12.025
85145SOL    HW257333   9.009   0.490  11.965
85146SOL     OW57334   3.870   5.573   1.796
85146SOL    HW157335   3.813   5.544   1.867
85146SOL    HW257336   3.901   5.659   1.824
85147SOL     OW57337   1.467   0.925  12.587
85147SOL    HW157338   1.558   0.955  12.593
85147SOL    HW257339   1.472   0.830  12.599
85148SOL     OW57340   9.731  13.474  12.645
85148SOL    HW157341   9.703  13.565  12.653
85148SOL    HW257342   9.652  13.423  12.665
85149SOL     OW57343  13.375  11.542   9.407
85149SOL    HW157344  13.418  11.459   9.427
85149SOL    HW257345  13.389  11.596   9.486
85150SOL     OW57346   6.901   3.132  14.832
85150SOL    HW157347   6.939   3.071   0.013
85150SOL    HW257348   6.966   3.202  14.825
85151SOL     OW57349   6.992  11.096  10.426
85151SOL    HW157350   6.926  11.152  10.466
85151SOL    HW257351   7.023  11.145  10.350
85152SOL     OW57352   6.304  14.807  10.662
85152SOL    HW157353   6.219  14.844  10.687
85152SOL    HW257354   6.342  14.777  10.745
85153SOL     OW57355   8.529   2.920   3.222
85153SOL    HW157356   8.562   2.837   3.257
85153SOL    HW257357   8.603   2.958   3.175
85154SOL     OW57358  11.622   2.068   6.754
85154SOL    HW157359  11.667   2.088   6.835
85154SOL    HW257360  11.681   2.010   6.706
85155SOL     OW57361  12.157   1.689   0.184
85155SOL    HW157362  12.248   1.668   0.204
85155SOL    HW257363  12.137   1.637   0.106
85156SOL     OW57364   4.833   9.379   6.270
85156SOL    HW157365   4.820   9.394   6.364
85156SOL    HW257366   4.792   9.454   6.228
85157SOL     OW57367   4.702  11.852   7.978
85157SOL    HW157368   4.674  11.902   8.054
85157SOL    HW257369   4.731  11.918   7.915
85158SOL     OW57370   5.585   6.100  10.058
85158SOL    HW157371   5.498   6.083  10.024
85158SOL    HW257372   5.571   6.163  10.129
85159SOL     OW57373   5.632   1.376   3.359
85159SOL    HW157374   5.694   1.303   3.355
85159SOL    HW257375   5.549   1.335   3.381
85160SOL     OW57376  13.256  11.689  12.524
85160SOL    HW157377  13.242  11.784  12.527
85160SOL    HW257378  13.351  11.680  12.510
85161SOL     OW57379   3.398   7.511   1.908
85161SOL    HW157380   3.355   7.441   1.857
85161SOL    HW257381   3.488   7.479   1.920
85162SOL     OW57382   9.657  14.878   1.925
85162SOL    HW157383   9.629  14.800   1.877
85162SOL    HW257384   9.663   0.064   1.857
85163SOL     OW57385   5.222  14.261  13.415
85163SOL    HW157386   5.292  14.224  13.362
85163SOL    HW257387   5.207  14.197  13.485
85164SOL     OW57388   9.516   8.727   1.669
85164SOL    HW157389   9.467   8.732   1.751
85164SOL    HW257390   9.474   8.656   1.620
85165SOL     OW57391   4.744  12.996   6.266
85165SOL    HW157392   4.833  12.983   6.300
85165SOL    HW257393   4.689  13.001   6.344
85166SOL     OW57394  12.741   9.338   7.064
85166SOL    HW157395  12.725   9.261   7.118
85166SOL    HW257396  12.804   9.308   6.998
85167SOL     OW57397   8.779   4.780  13.969
85167SOL    HW157398   8.784   4.723  14.046
85167SOL    HW257399   8.840   4.742  13.907
85168SOL     OW57400   0.405  13.206  12.227
85168SOL    HW157401   0.469  13.265  12.188
85168SOL    HW257402   0.321  13.252  12.221
85169SOL     OW57403   4.008   8.569   2.592
85169SOL    HW157404   3.995   8.602   2.503
85169SOL    HW257405   3.991   8.475   2.586
85170SOL     OW57406  14.828   4.114  11.028
85170SOL    HW157407  14.827   4.020  11.009
85170SOL    HW257408  14.879   4.121  11.109
85171SOL     OW57409   7.132  13.250   2.541
85171SOL    HW157410   7.154  13.167   2.498
85171SOL    HW257411   7.067  13.226   2.607
85172SOL     OW57412  10.704   3.143   6.835
85172SOL    HW157413  10.642   3.139   6.761
85172SOL    HW257414  10.758   3.065   6.824
85173SOL     OW57415  10.015   2.235   2.543
85173SOL    HW157416  10.077   2.300   2.578
85173SOL    HW257417   9.934   2.284   2.532
85174SOL     OW57418  12.385   3.607   0.245
85174SOL    HW157419  12.467   3.647   0.219
85174SOL    HW257420  12.323   3.680   0.250
85175SOL     OW57421   4.569   2.121  11.730
85175SOL    HW157422   4.536   2.035  11.756
85175SOL    HW257423   4.496   2.181  11.746
85176SOL     OW57424  12.039   2.382   2.521
85176SOL    HW157425  11.986   2.331   2.582
85176SOL    HW257426  12.084   2.446   2.576
85177SOL     OW57427  12.180   0.518  14.246
85177SOL    HW157428  12.096   0.518  14.292
85177SOL    HW257429  12.172   0.447  14.182
85178SOL     OW57430   1.830  11.289   5.031
85178SOL    HW157431   1.852  11.197   5.045
85178SOL    HW257432   1.913  11.330   5.007
85179SOL     OW57433   5.644  12.345  11.984
85179SOL    HW157434   5.587  12.279  12.024
85179SOL    HW257435   5.705  12.370  12.054
85180SOL     OW57436   8.036  13.778  14.636
85180SOL    HW157437   8.044  13.789  14.731
85180SOL    HW257438   7.967  13.838  14.610
85181SOL     OW57439   6.112  11.705   6.076
85181SOL    HW157440   6.092  11.613   6.092
85181SOL    HW257441   6.205  11.714   6.098
85182SOL     OW57442  14.304  14.480   4.288
85182SOL    HW157443  14.304  14.416   4.359
85182SOL    HW257444  14.232  14.454   4.231
85183SOL     OW57445   8.539   0.302  13.050
85183SOL    HW157446   8.571   0.221  13.011
85183SOL    HW257447   8.528   0.281  13.143
85184SOL     OW57448   7.698   6.401   4.937
85184SOL    HW157449   7.751   6.385   4.859
85184SOL    HW257450   7.611   6.369   4.914
85185SOL     OW57451  11.021   0.079  10.290
85185SOL    HW157452  10.933   0.116  10.284
85185SOL    HW257453  11.071   0.145  10.339
85186SOL     OW57454   7.027   7.227   3.135
85186SOL    HW157455   7.036   7.202   3.227
85186SOL    HW257456   6.994   7.149   3.092
85187SOL     OW57457   3.502   7.453  14.126
85187SOL    HW157458   3.500   7.415  14.038
85187SOL    HW257459   3.482   7.380  14.184
85188SOL     OW57460   2.733   9.428   0.564
85188SOL    HW157461   2.800   9.419   0.631
85188SOL    HW257462   2.664   9.368   0.591
85189SOL     OW57463   9.892   9.642   0.403
85189SOL    HW157464   9.837   9.694   0.344
85189SOL    HW257465   9.976   9.688   0.404
85190SOL     OW57466   0.783   3.427  10.212
85190SOL    HW157467   0.821   3.386  10.135
85190SOL    HW257468   0.858   3.463  10.260
85191SOL     OW57469   3.357   3.350   4.957
85191SOL    HW157470   3.305   3.406   5.014
85191SOL    HW257471   3.363   3.267   5.005
85192SOL     OW57472   4.968   6.822  11.104
85192SOL    HW157473   4.932   6.903  11.141
85192SOL    HW257474   5.056   6.846  11.075
85193SOL     OW57475   9.038   1.880  12.330
85193SOL    HW157476   9.025   1.952  12.391
85193SOL    HW257477   8.949   1.853  12.306
85194SOL     OW57478  14.249   5.571  14.711
85194SOL    HW157479  14.206   5.580  14.626
85194SOL    HW257480  14.295   5.487  14.706
85195SOL     OW57481   5.313  11.207   8.716
85195SOL    HW157482   5.351  11.161   8.641
85195SOL    HW257483   5.236  11.251   8.681
85196SOL     OW57484   0.881   2.081   6.017
85196SOL    HW157485   0.975   2.090   6.004
85196SOL    HW257486   0.842   2.143   5.956
85197SOL     OW57487   9.235   3.210   2.106
85197SOL    HW157488   9.256   3.288   2.156
85197SOL    HW257489   9.279   3.223   2.022
85198SOL     OW57490   1.393   5.726   5.732
85198SOL    HW157491   1.427   5.755   5.648
85198SOL    HW257492   1.467   5.738   5.793
85199SOL     OW57493   9.469  10.294  11.342
85199SOL    HW157494   9.387  10.341  11.331
85199SOL    HW257495   9.452  10.207  11.306
85200SOL     OW57496   9.927   6.000   9.216
85200SOL    HW157497   9.875   6.070   9.176
85200SOL    HW257498  10.018   6.028   9.203
85201SOL     OW57499   7.096   6.828   4.473
85201SOL    HW157500   7.027   6.884   4.439
85201SOL    HW257501   7.144   6.883   4.534
85202SOL     OW57502   4.129   3.552  13.448
85202SOL    HW157503   4.084   3.617  13.503
85202SOL    HW257504   4.117   3.469  13.495
85203SOL     OW57505   1.074   3.765   3.701
85203SOL    HW157506   0.986   3.795   3.720
85203SOL    HW257507   1.084   3.685   3.753
85204SOL     OW57508   4.278  11.015   4.848
85204SOL    HW157509   4.294  11.024   4.942
85204SOL    HW257510   4.326  10.936   4.823
85205SOL     OW57511   3.951  10.670  13.813
85205SOL    HW157512   4.045  10.663  13.793
85205SOL    HW257513   3.908  10.661  13.728
85206SOL     OW57514   7.898  11.699  10.182
85206SOL    HW157515   7.865  11.776  10.229
85206SOL    HW257516   7.918  11.731  10.095
85207SOL     OW57517   4.865   0.321  11.907
85207SOL    HW157518   4.887   0.352  11.819
85207SOL    HW257519   4.896   0.390  11.966
85208SOL     OW57520  11.575   1.732   6.447
85208SOL    HW157521  11.587   1.771   6.360
85208SOL    HW257522  11.526   1.799   6.496
85209SOL     OW57523   0.854  14.667   0.031
85209SOL    HW157524   0.864  14.599  14.845
85209SOL    HW257525   0.919  14.643   0.097
85210SOL     OW57526   5.021   2.378   2.668
85210SOL    HW157527   4.979   2.392   2.753
85210SOL    HW257528   5.092   2.316   2.686
85211SOL     OW57529  12.141   4.556   5.884
85211SOL    HW157530  12.220   4.578   5.934
85211SOL    HW257531  12.070   4.597   5.933
85212SOL     OW57532   4.299  10.432  13.427
85212SOL    HW157533   4.321  10.363  13.488
85212SOL    HW257534   4.348  10.411  13.348
85213SOL     OW57535   8.205   7.740   6.570
85213SOL    HW157536   8.157   7.657   6.566
85213SOL    HW257537   8.280   7.723   6.626
85214SOL     OW57538   0.264   1.606   2.639
85214SOL    HW157539   0.195   1.633   2.579
85214SOL    HW257540   0.339   1.587   2.582
85215SOL     OW57541  12.382   2.210   8.604
85215SOL    HW157542  12.465   2.165   8.624
85215SOL    HW257543  12.319   2.172   8.666
85216SOL     OW57544   5.771   4.457  12.746
85216SOL    HW157545   5.821   4.510  12.807
85216SOL    HW257546   5.708   4.518  12.707
85217SOL     OW57547   7.232   5.319   3.228
85217SOL    HW157548   7.174   5.358   3.293
85217SOL    HW257549   7.195   5.232   3.210
85218SOL     OW57550   2.904   8.153   4.800
85218SOL    HW157551   2.963   8.150   4.875
85218SOL    HW257552   2.827   8.200   4.833
85219SOL     OW57553   0.004   3.411   7.008
85219SOL    HW157554   0.061   3.374   7.075
85219SOL    HW257555  14.837   3.479   7.054
85220SOL     OW57556   1.082   5.545   9.876
85220SOL    HW157557   1.095   5.480   9.945
85220SOL    HW257558   1.016   5.605   9.911
85221SOL     OW57559   2.010   8.192   8.870
85221SOL    HW157560   1.924   8.152   8.859
85221SOL    HW257561   1.995   8.285   8.855
85222SOL     OW57562   3.101   4.131   7.013
85222SOL    HW157563   3.114   4.084   6.930
85222SOL    HW257564   3.121   4.222   6.992
85223SOL     OW57565   5.023   8.835   7.020
85223SOL    HW157566   4.999   8.747   6.990
85223SOL    HW257567   5.116   8.829   7.039
85224SOL     OW57568   8.570  13.876   9.466
85224SOL    HW157569   8.634  13.936   9.428
85224SOL    HW257570   8.489  13.926   9.470
85225SOL     OW57571  14.151   8.817  14.026
85225SOL    HW157572  14.063   8.780  14.018
85225SOL    HW257573  14.170   8.854  13.940
85226SOL     OW57574  11.305   6.321   3.922
85226SOL    HW157575  11.353   6.358   3.997
85226SOL    HW257576  11.297   6.395   3.862
85227SOL     OW57577  12.119   7.918  11.436
85227SOL    HW157578  12.162   7.846  11.390
85227SOL    HW257579  12.070   7.963  11.368
85228SOL     OW57580   1.060   2.651   9.880
85228SOL    HW157581   1.018   2.664   9.795
85228SOL    HW257582   1.027   2.723   9.934
85229SOL     OW57583   7.864   7.203   8.260
85229SOL    HW157584   7.768   7.194   8.259
85229SOL    HW257585   7.894   7.123   8.303
85230SOL     OW57586   8.796  10.043   3.062
85230SOL    HW157587   8.701  10.054   3.066
85230SOL    HW257588   8.813   9.964   3.114
85231SOL     OW57589  14.729   6.385   5.576
85231SOL    HW157590  14.686   6.337   5.647
85231SOL    HW257591  14.746   6.318   5.509
85232SOL     OW57592  10.436   2.477  11.144
85232SOL    HW157593  10.473   2.397  11.107
85232SOL    HW257594  10.456   2.472  11.237
85233SOL     OW57595   0.876   4.334   3.460
85233SOL    HW157596   0.837   4.415   3.491
85233SOL    HW257597   0.839   4.321   3.373
85234SOL     OW57598   7.621  10.330   7.327
85234SOL    HW157599   7.604  10.268   7.397
85234SOL    HW257600   7.702  10.298   7.285
85235SOL     OW57601   1.032  10.033  11.809
85235SOL    HW157602   0.950  10.008  11.765
85235SOL    HW257603   1.095   9.968  11.780
85236SOL     OW57604  13.011   9.147   7.614
85236SOL    HW157605  13.008   9.230   7.567
85236SOL    HW257606  12.934   9.100   7.585
85237SOL     OW57607  11.178   4.506  12.787
85237SOL    HW157608  11.122   4.458  12.848
85237SOL    HW257609  11.117   4.555  12.731
85238SOL     OW57610   9.830  14.623   1.679
85238SOL    HW157611   9.739  14.624   1.708
85238SOL    HW257612   9.825  14.652   1.587
85239SOL     OW57613  10.287  10.175   7.834
85239SOL    HW157614  10.304  10.236   7.906
85239SOL    HW257615  10.351  10.105   7.848
85240SOL     OW57616   0.439   2.073   1.363
85240SOL    HW157617   0.406   1.986   1.339
85240SOL    HW257618   0.489   2.102   1.287
85241SOL     OW57619  12.210  11.302   1.961
85241SOL    HW157620  12.136  11.253   1.997
85241SOL    HW257621  12.174  11.389   1.942
85242SOL     OW57622   1.516   5.929   8.726
85242SOL    HW157623   1.441   5.874   8.704
85242SOL    HW257624   1.479   5.998   8.782
85243SOL     OW57625  11.373   9.104   1.210
85243SOL    HW157626  11.440   9.156   1.254
85243SOL    HW257627  11.422   9.042   1.156
85244SOL     OW57628   9.340  11.460  14.571
85244SOL    HW157629   9.372  11.410  14.647
85244SOL    HW257630   9.346  11.399  14.498
85245SOL     OW57631   4.979   3.256  13.712
85245SOL    HW157632   4.939   3.308  13.642
85245SOL    HW257633   4.904   3.213  13.754
85246SOL     OW57634   6.325   5.348   7.324
85246SOL    HW157635   6.324   5.439   7.353
85246SOL    HW257636   6.277   5.348   7.242
85247SOL     OW57637  12.030   8.345   4.665
85247SOL    HW157638  11.956   8.405   4.671
85247SOL    HW257639  11.995   8.268   4.620
85248SOL     OW57640   2.164   4.604  14.370
85248SOL    HW157641   2.158   4.621  14.276
85248SOL    HW257642   2.205   4.683  14.406
85249SOL     OW57643   7.869   5.158  12.065
85249SOL    HW157644   7.959   5.128  12.075
85249SOL    HW257645   7.817   5.078  12.056
85250SOL     OW57646   2.494   2.724   4.318
85250SOL    HW157647   2.531   2.783   4.384
85250SOL    HW257648   2.449   2.656   4.369
85251SOL     OW57649   2.161  10.946  13.392
85251SOL    HW157650   2.216  10.907  13.323
85251SOL    HW257651   2.121  11.022  13.350
85252SOL     OW57652   3.304   0.031   1.971
85252SOL    HW157653   3.310   0.025   1.876
85252SOL    HW257654   3.253   0.110   1.987
85253SOL     OW57655   9.270  14.777  13.361
85253SOL    HW157656   9.195  14.719  13.357
85253SOL    HW257657   9.346  14.719  13.347
85254SOL     OW57658   1.889   9.728  14.194
85254SOL    HW157659   1.904   9.664  14.124
85254SOL    HW257660   1.798   9.713  14.221
85255SOL     OW57661  11.086  13.871   4.670
85255SOL    HW157662  11.100  13.946   4.612
85255SOL    HW257663  11.148  13.883   4.741
85256SOL     OW57664   2.596   8.668  10.083
85256SOL    HW157665   2.517   8.628  10.045
85256SOL    HW257666   2.642   8.596  10.124
85257SOL     OW57667   3.171   1.044   6.088
85257SOL    HW157668   3.131   1.102   6.022
85257SOL    HW257669   3.257   1.022   6.051
85258SOL     OW57670   7.049   5.539   8.728
85258SOL    HW157671   7.032   5.445   8.734
85258SOL    HW257672   7.124   5.546   8.669
85259SOL     OW57673   2.612   5.819   6.011
85259SOL    HW157674   2.685   5.881   6.008
85259SOL    HW257675   2.559   5.841   5.933
85260SOL     OW57676   1.743  12.815   7.051
85260SOL    HW157677   1.703  12.750   6.993
85260SOL    HW257678   1.834  12.821   7.022
85261SOL     OW57679   5.452   6.485   5.397
85261SOL    HW157680   5.410   6.460   5.314
85261SOL    HW257681   5.386   6.537   5.442
85262SOL     OW57682   3.033  13.331   5.317
85262SOL    HW157683   3.073  13.404   5.269
85262SOL    HW257684   3.101  13.263   5.319
85263SOL     OW57685   4.761   8.742   5.444
85263SOL    HW157686   4.760   8.726   5.349
85263SOL    HW257687   4.838   8.797   5.459
85264SOL     OW57688   4.853   3.467   4.293
85264SOL    HW157689   4.873   3.415   4.370
85264SOL    HW257690   4.938   3.480   4.250
85265SOL     OW57691   5.479   0.619   4.176
85265SOL    HW157692   5.447   0.585   4.259
85265SOL    HW257693   5.547   0.557   4.150
85266SOL     OW57694   0.541   8.867   7.749
85266SOL    HW157695   0.583   8.942   7.709
85266SOL    HW257696   0.516   8.896   7.836
85267SOL     OW57697   1.422  11.666   5.181
85267SOL    HW157698   1.358  11.614   5.133
85267SOL    HW257699   1.498  11.670   5.123
85268SOL     OW57700   2.584  14.563   9.061
85268SOL    HW157701   2.530  14.494   9.023
85268SOL    HW257702   2.525  14.609   9.121
85269SOL     OW57703   9.657   6.707   1.246
85269SOL    HW157704   9.695   6.793   1.267
85269SOL    HW257705   9.577   6.728   1.198
85270SOL     OW57706  10.774   6.780   6.135
85270SOL    HW157707  10.739   6.773   6.224
85270SOL    HW257708  10.849   6.721   6.134
85271SOL     OW57709   4.228   5.423  14.522
85271SOL    HW157710   4.237   5.448  14.430
85271SOL    HW257711   4.283   5.485  14.569
85272SOL     OW57712   1.386   9.328   5.352
85272SOL    HW157713   1.364   9.318   5.260
85272SOL    HW257714   1.426   9.245   5.377
85273SOL     OW57715   2.742   4.407   3.264
85273SOL    HW157716   2.688   4.486   3.271
85273SOL    HW257717   2.832   4.439   3.264
85274SOL     OW57718   7.568  11.918   6.046
85274SOL    HW157719   7.633  11.866   6.095
85274SOL    HW257720   7.554  11.994   6.102
85275SOL     OW57721   2.465   6.570   8.211
85275SOL    HW157722   2.383   6.532   8.243
85275SOL    HW257723   2.503   6.613   8.288
85276SOL     OW57724   2.548  10.981   8.689
85276SOL    HW157725   2.476  10.957   8.748
85276SOL    HW257726   2.517  11.060   8.645
85277SOL     OW57727  14.462   1.066  13.290
85277SOL    HW157728  14.536   1.009  13.270
85277SOL    HW257729  14.486   1.151  13.253
85278SOL     OW57730  12.734   9.414   4.206
85278SOL    HW157731  12.712   9.507   4.198
85278SOL    HW257732  12.803   9.400   4.141
85279SOL     OW57733   0.713  12.825   0.755
85279SOL    HW157734   0.769  12.758   0.794
85279SOL    HW257735   0.743  12.833   0.665
85280SOL     OW57736  12.258   5.330  14.625
85280SOL    HW157737  12.208   5.322  14.544
85280SOL    HW257738  12.191   5.348  14.692
85281SOL     OW57739   5.417   4.583   0.709
85281SOL    HW157740   5.462   4.529   0.774
85281SOL    HW257741   5.346   4.625   0.756
85282SOL     OW57742   9.994  13.607   2.258
85282SOL    HW157743  10.060  13.613   2.327
85282SOL    HW257744  10.044  13.613   2.177
85283SOL     OW57745  12.068  10.212   1.840
85283SOL    HW157746  12.092  10.272   1.770
85283SOL    HW257747  11.972  10.214   1.841
85284SOL     OW57748   8.348   5.089   0.173
85284SOL    HW157749   8.314   5.142   0.101
85284SOL    HW257750   8.436   5.064   0.145
85285SOL     OW57751  14.108   3.855  13.943
85285SOL    HW157752  14.199   3.827  13.935
85285SOL    HW257753  14.094   3.867  14.037
85286SOL     OW57754   6.290   0.787  14.060
85286SOL    HW157755   6.374   0.808  14.102
85286SOL    HW257756   6.293   0.692  14.047
85287SOL     OW57757   9.773   4.408   0.005
85287SOL    HW157758   9.841   4.346   0.034
85287SOL    HW257759   9.816   4.460  14.820
85288SOL     OW57760   3.765  10.258  10.275
85288SOL    HW157761   3.808  10.173  10.274
85288SOL    HW257762   3.758  10.283  10.183
85289SOL     OW57763   7.029  13.274   4.490
85289SOL    HW157764   7.082  13.258   4.412
85289SOL    HW257765   7.088  13.319   4.550
85290SOL     OW57766   1.312   9.271   3.000
85290SOL    HW157767   1.397   9.315   2.992
85290SOL    HW257768   1.267   9.318   3.071
85291SOL     OW57769   5.059   1.420  11.166
85291SOL    HW157770   5.052   1.456  11.077
85291SOL    HW257771   4.997   1.348  11.168
85292SOL     OW57772   4.076  12.197  10.208
85292SOL    HW157773   4.078  12.165  10.118
85292SOL    HW257774   4.168  12.201  10.234
85293SOL     OW57775   9.178  10.383  10.667
85293SOL    HW157776   9.166  10.457  10.726
85293SOL    HW257777   9.267  10.393  10.633
85294SOL     OW57778   2.171   0.526  14.015
85294SOL    HW157779   2.252   0.475  14.008
85294SOL    HW257780   2.191   0.609  13.972
85295SOL     OW57781   2.143   1.245   2.066
85295SOL    HW157782   2.143   1.204   2.152
85295SOL    HW257783   2.234   1.242   2.038
85296SOL     OW57784   0.992  14.636   8.383
85296SOL    HW157785   0.918  14.603   8.435
85296SOL    HW257786   1.056  14.565   8.386
85297SOL     OW57787   6.814   4.421   0.580
85297SOL    HW157788   6.857   4.412   0.665
85297SOL    HW257789   6.886   4.422   0.517
85298SOL     OW57790  14.535   2.573   7.800
85298SOL    HW157791  14.509   2.658   7.766
85298SOL    HW257792  14.475   2.557   7.873
85299SOL     OW57793   1.629   8.806   4.030
85299SOL    HW157794   1.658   8.895   4.010
85299SOL    HW257795   1.540   8.801   3.995
85300SOL     OW57796   8.933   3.592  10.364
85300SOL    HW157797   8.942   3.586  10.459
85300SOL    HW257798   9.005   3.649  10.336
85301SOL     OW57799  11.518   8.986   2.595
85301SOL    HW157800  11.601   9.035   2.595
85301SOL    HW257801  11.520   8.934   2.515
85302SOL     OW57802   4.832  13.004  10.523
85302SOL    HW157803   4.880  13.086  10.507
85302SOL    HW257804   4.884  12.959  10.589
85303SOL     OW57805   0.262   7.882  11.298
85303SOL    HW157806   0.210   7.871  11.377
85303SOL    HW257807   0.348   7.847  11.321
85304SOL     OW57808   4.781   6.021   5.962
85304SOL    HW157809   4.727   6.092   5.996
85304SOL    HW257810   4.830   6.062   5.890
85305SOL     OW57811   8.312   2.946   9.018
85305SOL    HW157812   8.300   2.900   8.935
85305SOL    HW257813   8.234   3.001   9.026
85306SOL     OW57814  10.636  14.073   7.533
85306SOL    HW157815  10.604  13.989   7.500
85306SOL    HW257816  10.660  14.123   7.454
85307SOL     OW57817   6.619   7.064   4.649
85307SOL    HW157818   6.704   7.083   4.690
85307SOL    HW257819   6.610   6.969   4.655
85308SOL     OW57820   9.956  11.714   6.606
85308SOL    HW157821   9.943  11.722   6.512
85308SOL    HW257822   9.908  11.635   6.631
85309SOL     OW57823  14.210  12.013   1.420
85309SOL    HW157824  14.205  12.022   1.325
85309SOL    HW257825  14.121  11.991   1.447
85310SOL     OW57826  10.835   8.119   1.065
85310SOL    HW157827  10.897   8.046   1.069
85310SOL    HW257828  10.832   8.153   1.154
85311SOL     OW57829   4.516   0.267   2.084
85311SOL    HW157830   4.427   0.235   2.096
85311SOL    HW257831   4.534   0.320   2.161
85312SOL     OW57832   6.301  13.094   1.335
85312SOL    HW157833   6.395  13.079   1.328
85312SOL    HW257834   6.293  13.187   1.355
85313SOL     OW57835  11.616   0.972   9.985
85313SOL    HW157836  11.689   0.911   9.990
85313SOL    HW257837  11.655   1.058  10.005
85314SOL     OW57838   9.163  12.579   1.783
85314SOL    HW157839   9.190  12.562   1.693
85314SOL    HW257840   9.106  12.506   1.805
85315SOL     OW57841   3.929   7.715  13.144
85315SOL    HW157842   3.853   7.714  13.086
85315SOL    HW257843   3.971   7.631  13.130
85316SOL     OW57844  12.441   0.823   0.767
85316SOL    HW157845  12.421   0.829   0.861
85316SOL    HW257846  12.437   0.914   0.736
85317SOL     OW57847   3.094   0.809   1.953
85317SOL    HW157848   3.108   0.890   2.002
85317SOL    HW257849   3.135   0.741   2.007
85318SOL     OW57850   3.595   4.224   9.336
85318SOL    HW157851   3.561   4.312   9.352
85318SOL    HW257852   3.659   4.236   9.265
85319SOL     OW57853  11.788  14.405   4.088
85319SOL    HW157854  11.810  14.378   4.177
85319SOL    HW257855  11.872  14.408   4.042
85320SOL     OW57856  11.051   9.901   6.470
85320SOL    HW157857  11.068   9.995   6.459
85320SOL    HW257858  11.123   9.869   6.524
85321SOL     OW57859   2.533   2.630   0.067
85321SOL    HW157860   2.602   2.565   0.055
85321SOL    HW257861   2.462   2.600   0.010
85322SOL     OW57862   6.144  10.082   3.145
85322SOL    HW157863   6.112  10.157   3.195
85322SOL    HW257864   6.154  10.114   3.056
85323SOL     OW57865   2.405  10.171   4.080
85323SOL    HW157866   2.343  10.227   4.034
85323SOL    HW257867   2.436  10.225   4.153
85324SOL     OW57868  12.475   3.937  10.082
85324SOL    HW157869  12.491   4.023  10.121
85324SOL    HW257870  12.499   3.947   9.990
85325SOL     OW57871   8.819  14.800   3.486
85325SOL    HW157872   8.862  14.810   3.570
85325SOL    HW257873   8.886  14.825   3.421
85326SOL     OW57874   3.250  13.164  10.266
85326SOL    HW157875   3.312  13.143  10.335
85326SOL    HW257876   3.168  13.181  10.312
85327SOL     OW57877   5.427   4.426  12.037
85327SOL    HW157878   5.355   4.419  11.974
85327SOL    HW257879   5.504   4.394  11.989
85328SOL     OW57880  12.285   9.641   5.566
85328SOL    HW157881  12.339   9.668   5.492
85328SOL    HW257882  12.271   9.722   5.616
85329SOL     OW57883   2.917  12.723   2.836
85329SOL    HW157884   2.972  12.646   2.820
85329SOL    HW257885   2.831  12.698   2.802
85330SOL     OW57886   2.593   1.481   7.802
85330SOL    HW157887   2.565   1.471   7.711
85330SOL    HW257888   2.635   1.397   7.824
85331SOL     OW57889   8.459  11.724   2.593
85331SOL    HW157890   8.434  11.666   2.665
85331SOL    HW257891   8.388  11.788   2.587
85332SOL     OW57892  13.334  13.724  11.983
85332SOL    HW157893  13.264  13.734  12.048
85332SOL    HW257894  13.291  13.742  11.899
85333SOL     OW57895   8.963   7.982  12.522
85333SOL    HW157896   8.962   8.033  12.603
85333SOL    HW257897   8.947   7.892  12.549
85334SOL     OW57898   4.375   8.572   1.264
85334SOL    HW157899   4.414   8.497   1.308
85334SOL    HW257900   4.300   8.537   1.217
85335SOL     OW57901  11.728   0.121   2.604
85335SOL    HW157902  11.653   0.118   2.663
85335SOL    HW257903  11.804   0.108   2.661
85336SOL     OW57904  11.956   7.845   4.434
85336SOL    HW157905  11.994   7.869   4.349
85336SOL    HW257906  12.014   7.885   4.499
85337SOL     OW57907   1.325   5.248   7.144
85337SOL    HW157908   1.257   5.299   7.100
85337SOL    HW257909   1.407   5.277   7.104
85338SOL     OW57910   6.082   1.684   4.363
85338SOL    HW157911   6.060   1.648   4.449
85338SOL    HW257912   5.998   1.701   4.321
85339SOL     OW57913   9.968   0.856  12.784
85339SOL    HW157914   9.969   0.771  12.828
85339SOL    HW257915  10.039   0.851  12.720
85340SOL     OW57916  12.370   2.718   0.376
85340SOL    HW157917  12.347   2.728   0.283
85340SOL    HW257918  12.289   2.687   0.417
85341SOL     OW57919  13.914  10.063   5.874
85341SOL    HW157920  13.865  10.035   5.797
85341SOL    HW257921  13.860  10.034   5.948
85342SOL     OW57922  10.501   3.650  10.020
85342SOL    HW157923  10.475   3.558  10.031
85342SOL    HW257924  10.419   3.697  10.007
85343SOL     OW57925   5.413   9.392   4.516
85343SOL    HW157926   5.326   9.387   4.555
85343SOL    HW257927   5.456   9.463   4.564
85344SOL     OW57928   8.105   0.665  14.361
85344SOL    HW157929   8.179   0.700  14.311
85344SOL    HW257930   8.082   0.584  14.314
85345SOL     OW57931   6.583   6.182  13.183
85345SOL    HW157932   6.659   6.228  13.148
85345SOL    HW257933   6.514   6.248  13.187
85346SOL     OW57934   9.066   0.595   7.919
85346SOL    HW157935   9.024   0.520   7.961
85346SOL    HW257936   9.157   0.590   7.945
85347SOL     OW57937  14.371  10.116   8.509
85347SOL    HW157938  14.412  10.183   8.454
85347SOL    HW257939  14.436  10.097   8.576
85348SOL     OW57940  14.261  13.215   5.976
85348SOL    HW157941  14.268  13.120   5.965
85348SOL    HW257942  14.171  13.229   6.006
85349SOL     OW57943   3.230  14.851  14.787
85349SOL    HW157944   3.179  14.858  14.707
85349SOL    HW257945   3.213   0.051  14.833
85350SOL     OW57946  14.390  12.317   2.881
85350SOL    HW157947  14.454  12.322   2.952
85350SOL    HW257948  14.403  12.398   2.832
85351SOL     OW57949  14.700   1.589  11.136
85351SOL    HW157950  14.728   1.614  11.224
85351SOL    HW257951  14.643   1.513  11.149
85352SOL     OW57952   0.045   4.524   4.258
85352SOL    HW157953   0.085   4.600   4.300
85352SOL    HW257954   0.120   4.473   4.226
85353SOL     OW57955  13.825   1.034  12.850
85353SOL    HW157956  13.899   1.014  12.907
85353SOL    HW257957  13.765   1.084  12.905
85354SOL     OW57958   0.150  11.271  14.053
85354SOL    HW157959   0.242  11.288  14.071
85354SOL    HW257960   0.131  11.190  14.100
85355SOL     OW57961  11.836  13.593   0.524
85355SOL    HW157962  11.787  13.624   0.448
85355SOL    HW257963  11.874  13.510   0.496
85356SOL     OW57964   0.903  10.911  10.065
85356SOL    HW157965   0.904  10.852   9.990
85356SOL    HW257966   0.811  10.914  10.091
85357SOL     OW57967  12.463   0.521   9.741
85357SOL    HW157968  12.433   0.464   9.670
85357SOL    HW257969  12.430   0.480   9.821
85358SOL     OW57970   0.133  14.837   2.694
85358SOL    HW157971   0.124   0.007   2.614
85358SOL    HW257972   0.150  14.748   2.663
85359SOL     OW57973   1.586  14.515   9.498
85359SOL    HW157974   1.560  14.607   9.510
85359SOL    HW257975   1.511  14.464   9.527
85360SOL     OW57976   8.615  12.832   2.684
85360SOL    HW157977   8.648  12.746   2.659
85360SOL    HW257978   8.616  12.832   2.780
85361SOL     OW57979  11.099  11.568   5.278
85361SOL    HW157980  11.150  11.623   5.337
85361SOL    HW257981  11.118  11.602   5.191
85362SOL     OW57982  11.716   2.808   3.924
85362SOL    HW157983  11.635   2.791   3.972
85362SOL    HW257984  11.692   2.801   3.832
85363SOL     OW57985  13.423  10.319  11.433
85363SOL    HW157986  13.369  10.379  11.381
85363SOL    HW257987  13.461  10.259  11.368
85364SOL     OW57988   4.700   0.711   2.597
85364SOL    HW157989   4.638   0.713   2.670
85364SOL    HW257990   4.662   0.649   2.535
85365SOL     OW57991   1.020   5.613   6.548
85365SOL    HW157992   1.065   5.580   6.470
85365SOL    HW257993   0.927   5.593   6.532
85366SOL     OW57994  14.104   8.785  11.383
85366SOL    HW157995  14.148   8.865  11.353
85366SOL    HW257996  14.173   8.737  11.430
85367SOL     OW57997   3.524   8.575   3.252
85367SOL    HW157998   3.432   8.579   3.227
85367SOL    HW257999   3.543   8.661   3.289
85368SOL     OW58000   2.318  10.071   4.605
85368SOL    HW158001   2.287  10.081   4.695
85368SOL    HW258002   2.276  10.143   4.558
85369SOL     OW58003   3.385   6.456   0.960
85369SOL    HW158004   3.352   6.380   1.009
85369SOL    HW258005   3.444   6.500   1.021
85370SOL     OW58006   3.365  11.638  10.546
85370SOL    HW158007   3.447  11.597  10.571
85370SOL    HW258008   3.342  11.596  10.463
85371SOL     OW58009   3.111  13.561  14.473
85371SOL    HW158010   3.050  13.634  14.465
85371SOL    HW258011   3.072  13.491  14.422
85372SOL     OW58012   9.444  13.912   3.976
85372SOL    HW158013   9.359  13.942   3.945
85372SOL    HW258014   9.447  13.819   3.954
85373SOL     OW58015  13.118   9.764  11.104
85373SOL    HW158016  13.113   9.732  11.194
85373SOL    HW258017  13.039   9.729  11.062
85374SOL     OW58018   4.475  12.270  12.477
85374SOL    HW158019   4.391  12.241  12.440
85374SOL    HW258020   4.528  12.294  12.400
85375SOL     OW58021   9.569   1.640  13.252
85375SOL    HW158022   9.551   1.690  13.332
85375SOL    HW258023   9.573   1.549  13.281
85376SOL     OW58024   1.832   7.177   4.010
85376SOL    HW158025   1.798   7.240   3.946
85376SOL    HW258026   1.805   7.213   4.095
85377SOL     OW58027   9.023   2.155   2.961
85377SOL    HW158028   9.038   2.249   2.973
85377SOL    HW258029   9.074   2.132   2.883
85378SOL     OW58030   3.182  14.605  11.746
85378SOL    HW158031   3.205  14.698  11.741
85378SOL    HW258032   3.098  14.599  11.701
85379SOL     OW58033   7.326   9.083   1.133
85379SOL    HW158034   7.336   9.003   1.081
85379SOL    HW258035   7.415   9.105   1.161
85380SOL     OW58036   0.585   3.458  13.337
85380SOL    HW158037   0.540   3.501  13.265
85380SOL    HW258038   0.618   3.530  13.391
85381SOL     OW58039   4.537   9.925  11.341
85381SOL    HW158040   4.584   9.975  11.408
85381SOL    HW258041   4.450   9.965  11.337
85382SOL     OW58042   3.583   5.715   6.306
85382SOL    HW158043   3.648   5.745   6.243
85382SOL    HW258044   3.500   5.712   6.257
85383SOL     OW58045   7.372   4.113   7.014
85383SOL    HW158046   7.443   4.138   7.072
85383SOL    HW258047   7.368   4.185   6.950
85384SOL     OW58048   1.339   7.523   2.590
85384SOL    HW158049   1.410   7.488   2.643
85384SOL    HW258050   1.344   7.618   2.602
85385SOL     OW58051   8.175  12.892  10.668
85385SOL    HW158052   8.102  12.873  10.609
85385SOL    HW258053   8.167  12.827  10.738
85386SOL     OW58054   2.108  14.677  10.307
85386SOL    HW158055   2.018  14.709  10.307
85386SOL    HW258056   2.135  14.681  10.399
85387SOL     OW58057   5.033   0.427  12.133
85387SOL    HW158058   5.100   0.379  12.182
85387SOL    HW258059   5.023   0.510  12.181
85388SOL     OW58060  12.221   4.062  13.493
85388SOL    HW158061  12.215   4.085  13.586
85388SOL    HW258062  12.175   4.133  13.448
85389SOL     OW58063   4.348   8.331   3.877
85389SOL    HW158064   4.352   8.425   3.896
85389SOL    HW258065   4.436   8.309   3.846
85390SOL     OW58066   3.017   1.251   5.049
85390SOL    HW158067   3.041   1.294   5.131
85390SOL    HW258068   3.097   1.209   5.018
85391SOL     OW58069   1.839   5.132   0.546
85391SOL    HW158070   1.752   5.168   0.524
85391SOL    HW258071   1.854   5.160   0.636
85392SOL     OW58072   9.976   1.060   9.558
85392SOL    HW158073   9.934   1.147   9.557
85392SOL    HW258074  10.065   1.077   9.586
85393SOL     OW58075   8.460   0.706   6.769
85393SOL    HW158076   8.506   0.789   6.761
85393SOL    HW258077   8.499   0.664   6.846
85394SOL     OW58078   0.153   5.817  10.781
85394SOL    HW158079   0.122   5.743  10.833
85394SOL    HW258080   0.182   5.779  10.698
85395SOL     OW58081   7.088   2.251   6.369
85395SOL    HW158082   6.995   2.263   6.350
85395SOL    HW258083   7.101   2.296   6.452
85396SOL     OW58084   8.370  11.308   6.431
85396SOL    HW158085   8.355  11.249   6.505
85396SOL    HW258086   8.379  11.250   6.356
85397SOL     OW58087  13.622  11.204   8.387
85397SOL    HW158088  13.607  11.114   8.359
85397SOL    HW258089  13.701  11.201   8.441
85398SOL     OW58090  14.806  13.116   3.833
85398SOL    HW158091  14.839  13.027   3.846
85398SOL    HW258092  14.839  13.165   3.908
85399SOL     OW58093   2.973  11.188  13.536
85399SOL    HW158094   2.951  11.252  13.469
85399SOL    HW258095   3.058  11.153  13.510
85400SOL     OW58096   0.060   8.407  14.029
85400SOL    HW158097  14.859   8.360  14.027
85400SOL    HW258098   0.126   8.339  14.043
85401SOL     OW58099   7.199  10.943  14.554
85401SOL    HW158100   7.188  10.966  14.462
85401SOL    HW258101   7.294  10.947  14.568
85402SOL     OW58102   5.110  11.248   8.468
85402SOL    HW158103   5.153  11.281   8.389
85402SOL    HW258104   5.110  11.153   8.457
85403SOL     OW58105  12.020   9.925  10.378
85403SOL    HW158106  11.997   9.964  10.462
85403SOL    HW258107  11.944   9.872  10.354
85404SOL     OW58108  13.571   6.639  10.531
85404SOL    HW158109  13.643   6.636  10.467
85404SOL    HW258110  13.612   6.669  10.612
85405SOL     OW58111  11.562   7.882   4.300
85405SOL    HW158112  11.616   7.872   4.378
85405SOL    HW258113  11.574   7.801   4.252
85406SOL     OW58114   9.307  14.394  11.145
85406SOL    HW158115   9.228  14.380  11.091
85406SOL    HW258116   9.274  14.397  11.235
85407SOL     OW58117   2.180   0.320  12.071
85407SOL    HW158118   2.266   0.303  12.033
85407SOL    HW258119   2.126   0.347  11.998
85408SOL     OW58120   9.925  12.354   9.315
85408SOL    HW158121   9.969  12.341   9.231
85408SOL    HW258122   9.837  12.319   9.301
85409SOL     OW58123   1.927   2.796   2.714
85409SOL    HW158124   1.949   2.712   2.754
85409SOL    HW258125   1.954   2.787   2.623
85410SOL     OW58126   5.384  13.137  10.271
85410SOL    HW158127   5.304  13.087  10.253
85410SOL    HW258128   5.454  13.085  10.232
85411SOL     OW58129   8.276   0.411  10.916
85411SOL    HW158130   8.356   0.460  10.935
85411SOL    HW258131   8.221   0.473  10.868
85412SOL     OW58132   8.219   7.587  10.391
85412SOL    HW158133   8.194   7.556  10.478
85412SOL    HW258134   8.307   7.553  10.378
85413SOL     OW58135  14.444   7.258   9.129
85413SOL    HW158136  14.408   7.331   9.180
85413SOL    HW258137  14.427   7.181   9.184
85414SOL     OW58138   2.173   8.233   3.927
85414SOL    HW158139   2.241   8.209   3.864
85414SOL    HW258140   2.109   8.162   3.922
85415SOL     OW58141   3.257   6.107  11.315
85415SOL    HW158142   3.177   6.153  11.290
85415SOL    HW258143   3.271   6.044  11.244
85416SOL     OW58144   6.974  12.014  10.375
85416SOL    HW158145   7.067  11.991  10.367
85416SOL    HW258146   6.939  11.951  10.437
85417SOL     OW58147  11.191   7.580  10.842
85417SOL    HW158148  11.266   7.583  10.782
85417SOL    HW258149  11.227   7.608  10.927
85418SOL     OW58150   7.397  14.035   0.995
85418SOL    HW158151   7.316  14.083   0.978
85418SOL    HW258152   7.401  13.970   0.925
85419SOL     OW58153   3.903  14.705  10.096
85419SOL    HW158154   3.864  14.678  10.179
85419SOL    HW258155   3.965  14.636  10.074
85420SOL     OW58156   7.246   1.209   2.238
85420SOL    HW158157   7.160   1.168   2.248
85420SOL    HW258158   7.292   1.153   2.176
85421SOL     OW58159   1.794  11.223   2.938
85421SOL    HW158160   1.799  11.165   2.862
85421SOL    HW258161   1.810  11.310   2.902
85422SOL     OW58162  14.243   3.653   4.644
85422SOL    HW158163  14.257   3.623   4.555
85422SOL    HW258164  14.303   3.727   4.655
85423SOL     OW58165   3.288  13.785   7.431
85423SOL    HW158166   3.373  13.771   7.390
85423SOL    HW258167   3.231  13.815   7.360
85424SOL     OW58168   1.469   5.652   2.310
85424SOL    HW158169   1.419   5.726   2.342
85424SOL    HW258170   1.423   5.575   2.343
85425SOL     OW58171   7.534   4.382   3.967
85425SOL    HW158172   7.485   4.300   3.975
85425SOL    HW258173   7.568   4.398   4.055
85426SOL     OW58174  11.919   5.451   5.880
85426SOL    HW158175  11.873   5.368   5.897
85426SOL    HW258176  11.882   5.512   5.943
85427SOL     OW58177   9.700   5.713   1.224
85427SOL    HW158178   9.707   5.682   1.134
85427SOL    HW258179   9.716   5.635   1.278
85428SOL     OW58180   0.333  10.612   0.237
85428SOL    HW158181   0.333  10.676   0.165
85428SOL    HW258182   0.241  10.584   0.243
85429SOL     OW58183  14.361   5.146   7.578
85429SOL    HW158184  14.349   5.184   7.665
85429SOL    HW258185  14.314   5.063   7.581
85430SOL     OW58186   4.288   7.858   8.929
85430SOL    HW158187   4.221   7.847   8.862
85430SOL    HW258188   4.355   7.793   8.907
85431SOL     OW58189   3.628  11.467   1.073
85431SOL    HW158190   3.652  11.552   1.038
85431SOL    HW258191   3.615  11.482   1.167
85432SOL     OW58192   3.672   2.985   0.323
85432SOL    HW158193   3.639   2.954   0.407
85432SOL    HW258194   3.622   3.065   0.306
85433SOL     OW58195  13.069   4.584  14.044
85433SOL    HW158196  13.048   4.544  14.128
85433SOL    HW258197  13.045   4.518  13.979
85434SOL     OW58198  13.896  10.786   4.760
85434SOL    HW158199  13.948  10.775   4.839
85434SOL    HW258200  13.950  10.749   4.690
85435SOL     OW58201   6.418  11.858   0.249
85435SOL    HW158202   6.429  11.906   0.331
85435SOL    HW258203   6.502  11.814   0.235
85436SOL     OW58204   6.231   2.604   6.502
85436SOL    HW158205   6.201   2.513   6.507
85436SOL    HW258206   6.258   2.615   6.411
85437SOL     OW58207  14.533  12.112   3.988
85437SOL    HW158208  14.445  12.079   4.010
85437SOL    HW258209  14.528  12.206   4.005
85438SOL     OW58210   5.649   1.408  13.228
85438SOL    HW158211   5.670   1.447  13.313
85438SOL    HW258212   5.619   1.320  13.249
85439SOL     OW58213   8.560   0.705  14.492
85439SOL    HW158214   8.487   0.762  14.518
85439SOL    HW258215   8.561   0.711  14.396
85440SOL     OW58216   4.586   2.591   2.772
85440SOL    HW158217   4.599   2.664   2.833
85440SOL    HW258218   4.561   2.632   2.690
85441SOL     OW58219   3.102   7.669   6.030
85441SOL    HW158220   3.081   7.760   6.052
85441SOL    HW258221   3.088   7.663   5.936
85442SOL     OW58222   0.495   0.465  10.265
85442SOL    HW158223   0.589   0.451  10.278
85442SOL    HW258224   0.459   0.377  10.253
85443SOL     OW58225   7.793   8.092   5.063
85443SOL    HW158226   7.823   8.182   5.048
85443SOL    HW258227   7.857   8.038   5.018
85444SOL     OW58228  13.086   9.578  10.820
85444SOL    HW158229  13.046   9.541  10.741
85444SOL    HW258230  13.074   9.672  10.811
85445SOL     OW58231   5.610   0.698  11.960
85445SOL    HW158232   5.571   0.677  11.875
85445SOL    HW258233   5.593   0.621  12.014
85446SOL     OW58234  10.738   4.220   9.693
85446SOL    HW158235  10.725   4.287   9.626
85446SOL    HW258236  10.687   4.145   9.661
85447SOL     OW58237   6.000  10.671  14.709
85447SOL    HW158238   5.980  10.648  14.800
85447SOL    HW258239   6.064  10.606  14.681
85448SOL     OW58240   7.268   6.123  13.581
85448SOL    HW158241   7.218   6.202  13.559
85448SOL    HW258242   7.253   6.111  13.675
85449SOL     OW58243   5.169   8.916  12.683
85449SOL    HW158244   5.139   8.837  12.637
85449SOL    HW258245   5.229   8.882  12.749
85450SOL     OW58246   8.962   7.562  12.833
85450SOL    HW158247   9.049   7.587  12.801
85450SOL    HW258248   8.976   7.482  12.882
85451SOL     OW58249   3.853   5.918   4.964
85451SOL    HW158250   3.800   5.881   5.036
85451SOL    HW258251   3.870   5.843   4.907
85452SOL     OW58252   5.989   7.386   0.298
85452SOL    HW158253   6.029   7.345   0.375
85452SOL    HW258254   5.998   7.480   0.313
85453SOL     OW58255  10.868   0.709   3.178
85453SOL    HW158256  10.825   0.717   3.093
85453SOL    HW258257  10.928   0.635   3.167
85454SOL     OW58258   1.321   3.241   4.525
85454SOL    HW158259   1.309   3.151   4.556
85454SOL    HW258260   1.258   3.292   4.576
85455SOL     OW58261   6.949   7.204  13.890
85455SOL    HW158262   6.939   7.109  13.898
85455SOL    HW258263   6.866   7.234  13.854
85456SOL     OW58264  12.834   1.120   9.117
85456SOL    HW158265  12.897   1.062   9.160
85456SOL    HW258266  12.757   1.118   9.174
85457SOL     OW58267   6.073   5.679   4.211
85457SOL    HW158268   6.104   5.589   4.218
85457SOL    HW258269   6.145   5.727   4.170
85458SOL     OW58270   9.078  14.136  12.590
85458SOL    HW158271   9.123  14.092  12.662
85458SOL    HW258272   9.092  14.229  12.607
85459SOL     OW58273   7.833   9.018   0.658
85459SOL    HW158274   7.750   9.041   0.616
85459SOL    HW258275   7.866   8.945   0.607
85460SOL     OW58276   7.924   3.554  11.737
85460SOL    HW158277   7.963   3.496  11.803
85460SOL    HW258278   7.892   3.629  11.787
85461SOL     OW58279  13.542   6.846  12.693
85461SOL    HW158280  13.510   6.863  12.781
85461SOL    HW258281  13.547   6.932  12.652
85462SOL     OW58282   7.582  13.189  12.519
85462SOL    HW158283   7.647  13.243  12.473
85462SOL    HW258284   7.632  13.150  12.592
85463SOL     OW58285  12.666   9.534   1.841
85463SOL    HW158286  12.641   9.473   1.911
85463SOL    HW258287  12.677   9.478   1.764
85464SOL     OW58288   9.291   2.809   3.613
85464SOL    HW158289   9.231   2.882   3.628
85464SOL    HW258290   9.282   2.790   3.520
85465SOL     OW58291  11.723   5.309   9.602
85465SOL    HW158292  11.658   5.361   9.553
85465SOL    HW258293  11.754   5.367   9.670
85466SOL     OW58294   9.251   5.591   3.564
85466SOL    HW158295   9.270   5.625   3.477
85466SOL    HW258296   9.268   5.497   3.557
85467SOL     OW58297   5.120   6.950   3.232
85467SOL    HW158298   5.103   6.855   3.234
85467SOL    HW258299   5.070   6.981   3.156
85468SOL     OW58300  12.132  12.679  14.312
85468SOL    HW158301  12.074  12.656  14.384
85468SOL    HW258302  12.218  12.688  14.353
85469SOL     OW58303   5.567   8.374  14.486
85469SOL    HW158304   5.662   8.365  14.475
85469SOL    HW258305   5.542   8.444  14.425
85470SOL     OW58306   5.202   2.878   0.477
85470SOL    HW158307   5.250   2.859   0.558
85470SOL    HW258308   5.116   2.839   0.490
85471SOL     OW58309   5.910   8.585   6.333
85471SOL    HW158310   5.923   8.535   6.252
85471SOL    HW258311   5.975   8.548   6.393
85472SOL     OW58312  10.812   0.737   6.413
85472SOL    HW158313  10.797   0.645   6.437
85472SOL    HW258314  10.735   0.783   6.446
85473SOL     OW58315   7.191   9.843  14.423
85473SOL    HW158316   7.112   9.830  14.370
85473SOL    HW258317   7.239   9.761  14.415
85474SOL     OW58318   7.846   4.275   5.598
85474SOL    HW158319   7.808   4.212   5.538
85474SOL    HW258320   7.821   4.360   5.564
85475SOL     OW58321   6.818   5.304   3.103
85475SOL    HW158322   6.829   5.259   3.020
85475SOL    HW258323   6.899   5.353   3.116
85476SOL     OW58324  13.539  13.591  11.179
85476SOL    HW158325  13.483  13.519  11.150
85476SOL    HW258326  13.477  13.662  11.200
85477SOL     OW58327  13.191   4.938   8.650
85477SOL    HW158328  13.176   4.971   8.561
85477SOL    HW258329  13.236   4.854   8.638
85478SOL     OW58330   2.231   2.226   6.506
85478SOL    HW158331   2.218   2.217   6.600
85478SOL    HW258332   2.182   2.305   6.483
85479SOL     OW58333   3.416   1.726  12.810
85479SOL    HW158334   3.506   1.700  12.792
85479SOL    HW258335   3.405   1.711  12.904
85480SOL     OW58336   9.801  12.799   3.373
85480SOL    HW158337   9.736  12.870   3.370
85480SOL    HW258338   9.769  12.735   3.309
85481SOL     OW58339   2.982   9.619   0.960
85481SOL    HW158340   2.917   9.686   0.980
85481SOL    HW258341   3.025   9.650   0.880
85482SOL     OW58342   6.020   2.237   3.126
85482SOL    HW158343   6.007   2.294   3.050
85482SOL    HW258344   6.115   2.229   3.134
85483SOL     OW58345   5.756  10.495  14.829
85483SOL    HW158346   5.813  10.551  14.882
85483SOL    HW258347   5.672  10.540  14.829
85484SOL     OW58348  13.570   5.107  11.286
85484SOL    HW158349  13.656   5.089  11.249
85484SOL    HW258350  13.585   5.120  11.379
85485SOL     OW58351   6.276   7.540   1.120
85485SOL    HW158352   6.182   7.552   1.130
85485SOL    HW258353   6.314   7.579   1.199
85486SOL     OW58354   3.473   8.313   1.653
85486SOL    HW158355   3.468   8.321   1.748
85486SOL    HW258356   3.544   8.252   1.638
85487SOL     OW58357   3.062   4.955   9.667
85487SOL    HW158358   3.133   4.900   9.699
85487SOL    HW258359   3.054   4.932   9.574
85488SOL     OW58360   0.786   6.863  10.757
85488SOL    HW158361   0.721   6.867  10.688
85488SOL    HW258362   0.752   6.919  10.826
85489SOL     OW58363   8.147   7.937   1.719
85489SOL    HW158364   8.169   7.861   1.772
85489SOL    HW258365   8.232   7.975   1.695
85490SOL     OW58366   6.674  14.642   4.990
85490SOL    HW158367   6.736  14.687   4.933
85490SOL    HW258368   6.687  14.684   5.076
85491SOL     OW58369  14.580   1.685   2.533
85491SOL    HW158370  14.573   1.599   2.573
85491SOL    HW258371  14.623   1.740   2.599
85492SOL     OW58372   0.834  10.504  12.804
85492SOL    HW158373   0.904  10.564  12.781
85492SOL    HW258374   0.766  10.520  12.739
85493SOL     OW58375   0.033   1.825   7.642
85493SOL    HW158376   0.047   1.889   7.712
85493SOL    HW258377   0.105   1.839   7.581
85494SOL     OW58378   1.802  11.444   1.493
85494SOL    HW158379   1.881  11.430   1.545
85494SOL    HW258380   1.745  11.370   1.516
85495SOL     OW58381  14.667   4.446  14.440
85495SOL    HW158382  14.638   4.523  14.391
85495SOL    HW258383  14.744   4.476  14.488
85496SOL     OW58384   4.301   3.951   0.516
85496SOL    HW158385   4.321   3.912   0.431
85496SOL    HW258386   4.211   3.923   0.535
85497SOL     OW58387   5.270   7.873   1.413
85497SOL    HW158388   5.244   7.785   1.384
85497SOL    HW258389   5.335   7.857   1.481
85498SOL     OW58390   3.636   1.090  12.710
85498SOL    HW158391   3.594   1.117  12.628
85498SOL    HW258392   3.579   1.021  12.744
85499SOL     OW58393   0.175   7.540   7.161
85499SOL    HW158394   0.116   7.466   7.148
85499SOL    HW258395   0.263   7.502   7.155
85500SOL     OW58396   7.849   8.345   7.036
85500SOL    HW158397   7.841   8.299   7.119
85500SOL    HW258398   7.937   8.324   7.005
85501SOL     OW58399  12.750   8.154   2.828
85501SOL    HW158400  12.721   8.188   2.913
85501SOL    HW258401  12.769   8.232   2.776
85502SOL     OW58402  14.775   6.271   9.057
85502SOL    HW158403  14.818   6.353   9.033
85502SOL    HW258404  14.683   6.295   9.071
85503SOL     OW58405   6.560   3.380  13.529
85503SOL    HW158406   6.642   3.367  13.482
85503SOL    HW258407   6.585   3.396  13.619
85504SOL     OW58408   7.815  12.271   9.193
85504SOL    HW158409   7.755  12.209   9.151
85504SOL    HW258410   7.820  12.345   9.132
85505SOL     OW58411  12.782   3.230  12.812
85505SOL    HW158412  12.703   3.277  12.785
85505SOL    HW258413  12.782   3.237  12.907
85506SOL     OW58414  10.131  11.901   6.968
85506SOL    HW158415  10.124  11.818   6.920
85506SOL    HW258416  10.139  11.874   7.060
85507SOL     OW58417   5.342   3.430   2.784
85507SOL    HW158418   5.250   3.425   2.758
85507SOL    HW258419   5.343   3.402   2.876
85508SOL     OW58420  12.734   8.052   2.194
85508SOL    HW158421  12.720   7.981   2.131
85508SOL    HW258422  12.794   8.015   2.259
85509SOL     OW58423   5.074  13.550   1.756
85509SOL    HW158424   5.010  13.620   1.750
85509SOL    HW258425   5.105  13.553   1.847
85510SOL     OW58426   9.974  14.112  14.562
85510SOL    HW158427   9.952  14.140  14.473
85510SOL    HW258428  10.068  14.095  14.559
85511SOL     OW58429  12.084  11.363   5.175
85511SOL    HW158430  12.026  11.289   5.159
85511SOL    HW258431  12.070  11.385   5.267
85512SOL     OW58432   8.123   1.912   0.592
85512SOL    HW158433   8.195   1.905   0.530
85512SOL    HW258434   8.148   1.855   0.664
85513SOL     OW58435  11.186  10.015  11.477
85513SOL    HW158436  11.219   9.927  11.492
85513SOL    HW258437  11.187  10.025  11.382
85514SOL     OW58438   9.493   4.768   9.041
85514SOL    HW158439   9.477   4.674   9.032
85514SOL    HW258440   9.473   4.787   9.133
85515SOL     OW58441   7.714  13.053  12.164
85515SOL    HW158442   7.748  13.052  12.074
85515SOL    HW258443   7.792  13.048  12.219
85516SOL     OW58444   7.890   1.222   5.039
85516SOL    HW158445   7.857   1.281   4.972
85516SOL    HW258446   7.832   1.236   5.114
85517SOL     OW58447   6.707   1.483   7.765
85517SOL    HW158448   6.759   1.562   7.751
85517SOL    HW258449   6.668   1.494   7.851
85518SOL     OW58450   5.444   2.776  13.952
85518SOL    HW158451   5.479   2.731  14.029
85518SOL    HW258452   5.503   2.750  13.881
85519SOL     OW58453   3.804  11.016  14.877
85519SOL    HW158454   3.869  11.056   0.053
85519SOL    HW258455   3.831  10.925  14.870
85520SOL     OW58456   1.576   9.105   7.352
85520SOL    HW158457   1.531   9.186   7.328
85520SOL    HW258458   1.604   9.068   7.268
85521SOL     OW58459   1.951   2.397  14.343
85521SOL    HW158460   1.883   2.361  14.400
85521SOL    HW258461   1.934   2.357  14.258
85522SOL     OW58462   4.115  10.193  14.789
85522SOL    HW158463   4.085  10.193  14.699
85522SOL    HW258464   4.103  10.284  14.818
85523SOL     OW58465   5.389   5.228  14.628
85523SOL    HW158466   5.321   5.162  14.637
85523SOL    HW258467   5.435   5.226  14.712
85524SOL     OW58468   5.155   1.710  14.708
85524SOL    HW158469   5.187   1.620  14.722
85524SOL    HW258470   5.077   1.699  14.653
85525SOL     OW58471   2.686  13.873   2.575
85525SOL    HW158472   2.601  13.914   2.589
85525SOL    HW258473   2.671  13.807   2.507
85526SOL     OW58474  14.565  13.109   7.705
85526SOL    HW158475  14.594  13.049   7.774
85526SOL    HW258476  14.586  13.063   7.623
85527SOL     OW58477   9.929   3.307   0.241
85527SOL    HW158478   9.962   3.305   0.331
85527SOL    HW258479  10.003   3.279   0.187
85528SOL     OW58480   4.586  13.001  12.498
85528SOL    HW158481   4.656  12.935  12.498
85528SOL    HW258482   4.608  13.059  12.426
85529SOL     OW58483   0.750  11.364  13.392
85529SOL    HW158484   0.766  11.369  13.297
85529SOL    HW258485   0.656  11.348  13.400
85530SOL     OW58486  13.144   5.436  11.767
85530SOL    HW158487  13.146   5.340  11.765
85530SOL    HW258488  13.115   5.461  11.679
85531SOL     OW58489   4.060  10.898   0.780
85531SOL    HW158490   4.015  10.854   0.852
85531SOL    HW258491   4.061  10.990   0.805
85532SOL     OW58492   9.240  12.880  13.296
85532SOL    HW158493   9.287  12.890  13.213
85532SOL    HW258494   9.148  12.876  13.272
85533SOL     OW58495   6.897   6.341   4.443
85533SOL    HW158496   6.972   6.388   4.407
85533SOL    HW258497   6.853   6.405   4.499
85534SOL     OW58498  12.246  10.074   7.880
85534SOL    HW158499  12.262  10.160   7.919
85534SOL    HW258500  12.317  10.019   7.913
85535SOL     OW58501   1.929   4.904  10.385
85535SOL    HW158502   2.020   4.877  10.373
85535SOL    HW258503   1.928   4.997  10.361
85536SOL     OW58504  14.077  13.156  14.673
85536SOL    HW158505  14.123  13.072  14.683
85536SOL    HW258506  14.000  13.148  14.729
85537SOL     OW58507   9.067   1.125   5.559
85537SOL    HW158508   9.090   1.216   5.542
85537SOL    HW258509   9.141   1.090   5.609
85538SOL     OW58510   6.607   1.094   9.804
85538SOL    HW158511   6.615   1.122   9.895
85538SOL    HW258512   6.512   1.093   9.788
85539SOL     OW58513   0.684   3.998   4.171
85539SOL    HW158514   0.623   3.931   4.138
85539SOL    HW258515   0.771   3.964   4.150
85540SOL     OW58516   7.681  14.673   2.328
85540SOL    HW158517   7.739  14.610   2.371
85540SOL    HW258518   7.696  14.659   2.234
85541SOL     OW58519  13.758   3.847  13.662
85541SOL    HW158520  13.801   3.790  13.726
85541SOL    HW258521  13.689   3.891  13.712
85542SOL     OW58522   1.024  12.253   7.589
85542SOL    HW158523   0.962  12.264   7.517
85542SOL    HW258524   1.089  12.192   7.556
85543SOL     OW58525  13.206   2.589   6.735
85543SOL    HW158526  13.203   2.634   6.819
85543SOL    HW258527  13.300   2.579   6.716
85544SOL     OW58528   7.959   1.683   2.039
85544SOL    HW158529   7.973   1.631   2.118
85544SOL    HW258530   8.047   1.709   2.012
85545SOL     OW58531   2.002   9.184   5.808
85545SOL    HW158532   2.089   9.200   5.845
85545SOL    HW258533   1.945   9.177   5.885
85546SOL     OW58534  13.254   0.149  14.854
85546SOL    HW158535  13.319   0.143   0.041
85546SOL    HW258536  13.268   0.236  14.815
85547SOL     OW58537   4.048   6.398   7.009
85547SOL    HW158538   3.997   6.348   6.946
85547SOL    HW258539   4.125   6.344   7.027
85548SOL     OW58540   1.381   4.497  12.501
85548SOL    HW158541   1.423   4.411  12.494
85548SOL    HW258542   1.320   4.499  12.427
85549SOL     OW58543   7.086   3.601   3.887
85549SOL    HW158544   7.145   3.677   3.878
85549SOL    HW258545   6.998   3.638   3.874
85550SOL     OW58546   4.377  12.363   8.933
85550SOL    HW158547   4.312  12.331   8.995
85550SOL    HW258548   4.404  12.286   8.883
85551SOL     OW58549   3.051  13.871   9.557
85551SOL    HW158550   3.014  13.935   9.497
85551SOL    HW258551   3.085  13.801   9.500
85552SOL     OW58552   4.958   1.735  10.374
85552SOL    HW158553   4.953   1.639  10.376
85552SOL    HW258554   4.935   1.762  10.462
85553SOL     OW58555   7.889  14.775   6.015
85553SOL    HW158556   7.883  14.842   5.948
85553SOL    HW258557   7.916  14.696   5.968
85554SOL     OW58558   1.280  14.512   2.850
85554SOL    HW158559   1.251  14.489   2.938
85554SOL    HW258560   1.334  14.590   2.862
85555SOL     OW58561   4.784   8.976   4.134
85555SOL    HW158562   4.756   9.056   4.089
85555SOL    HW258563   4.870   8.957   4.097
85556SOL     OW58564  13.618   1.431   6.837
85556SOL    HW158565  13.686   1.365   6.824
85556SOL    HW258566  13.645   1.504   6.781
85557SOL     OW58567  14.161  14.578   0.675
85557SOL    HW158568  14.232  14.560   0.613
85557SOL    HW258569  14.104  14.501   0.668
85558SOL     OW58570  11.094   5.175  10.329
85558SOL    HW158571  11.029   5.192  10.260
85558SOL    HW258572  11.129   5.262  10.349
85559SOL     OW58573   3.637  11.245   7.487
85559SOL    HW158574   3.630  11.163   7.437
85559SOL    HW258575   3.578  11.233   7.561
85560SOL     OW58576  12.592   9.990   1.236
85560SOL    HW158577  12.638  10.015   1.316
85560SOL    HW258578  12.649  10.020   1.165
85561SOL     OW58579  11.402   6.133  14.588
85561SOL    HW158580  11.442   6.052  14.619
85561SOL    HW258581  11.451   6.155  14.509
85562SOL     OW58582   4.368   7.725  12.346
85562SOL    HW158583   4.451   7.738  12.392
85562SOL    HW258584   4.363   7.798  12.284
85563SOL     OW58585  12.041   3.387   0.686
85563SOL    HW158586  12.078   3.339   0.612
85563SOL    HW258587  12.094   3.360   0.761
85564SOL     OW58588   9.387   2.022  13.591
85564SOL    HW158589   9.311   2.079  13.599
85564SOL    HW258590   9.430   2.051  13.511
85565SOL     OW58591   8.768  12.078  11.248
85565SOL    HW158592   8.699  12.120  11.298
85565SOL    HW258593   8.844  12.135  11.257
85566SOL     OW58594   9.870   4.742   3.093
85566SOL    HW158595   9.924   4.734   3.014
85566SOL    HW258596   9.833   4.830   3.088
85567SOL     OW58597   4.949  14.846   5.619
85567SOL    HW158598   4.870  14.862   5.567
85567SOL    HW258599   5.019  14.841   5.554
85568SOL     OW58600   6.973  11.930   7.623
85568SOL    HW158601   7.037  12.001   7.616
85568SOL    HW258602   6.928  11.929   7.539
85569SOL     OW58603   2.088  14.265   4.017
85569SOL    HW158604   2.039  14.263   3.935
85569SOL    HW258605   2.135  14.182   4.018
85570SOL     OW58606   0.056  11.215   2.977
85570SOL    HW158607   0.076  11.137   2.925
85570SOL    HW258608   0.016  11.276   2.915
85571SOL     OW58609   6.855   2.902   0.798
85571SOL    HW158610   6.887   2.814   0.814
85571SOL    HW258611   6.785   2.891   0.733
85572SOL     OW58612  12.103   6.785   6.395
85572SOL    HW158613  12.171   6.723   6.421
85572SOL    HW258614  12.116   6.861   6.452
85573SOL     OW58615  11.679   0.321   9.385
85573SOL    HW158616  11.703   0.361   9.302
85573SOL    HW258617  11.758   0.276   9.414
85574SOL     OW58618  13.020  14.649  10.801
85574SOL    HW158619  13.003  14.691  10.717
85574SOL    HW258620  12.952  14.581  10.808
85575SOL     OW58621   2.505   1.394   9.760
85575SOL    HW158622   2.504   1.419   9.853
85575SOL    HW258623   2.590   1.425   9.728
85576SOL     OW58624   4.204  12.550   3.289
85576SOL    HW158625   4.222  12.619   3.225
85576SOL    HW258626   4.289  12.533   3.330
85577SOL     OW58627  11.788   9.695   8.701
85577SOL    HW158628  11.866   9.648   8.673
85577SOL    HW258629  11.749   9.728   8.620
85578SOL     OW58630  13.098   5.076  14.338
85578SOL    HW158631  13.043   5.032  14.273
85578SOL    HW258632  13.152   5.136  14.287
85579SOL     OW58633   7.307   1.763   4.007
85579SOL    HW158634   7.252   1.691   4.037
85579SOL    HW258635   7.313   1.823   4.082
85580SOL     OW58636   4.405   0.662   1.499
85580SOL    HW158637   4.385   0.602   1.571
85580SOL    HW258638   4.403   0.607   1.421
85581SOL     OW58639  14.293   8.238  12.048
85581SOL    HW158640  14.295   8.331  12.068
85581SOL    HW258641  14.212   8.227  11.996
85582SOL     OW58642   6.868   3.473   3.204
85582SOL    HW158643   6.953   3.448   3.168
85582SOL    HW258644   6.866   3.569   3.194
85583SOL     OW58645   1.918   8.936  10.212
85583SOL    HW158646   1.965   8.972  10.137
85583SOL    HW258647   1.977   8.948  10.286
85584SOL     OW58648  12.124   9.649  10.164
85584SOL    HW158649  12.164   9.680  10.083
85584SOL    HW258650  12.172   9.694  10.234
85585SOL     OW58651  12.271  10.760  11.936
85585SOL    HW158652  12.293  10.736  11.846
85585SOL    HW258653  12.191  10.811  11.928
85586SOL     OW58654   7.265   3.113   9.278
85586SOL    HW158655   7.310   3.167   9.344
85586SOL    HW258656   7.179   3.095   9.317
85587SOL     OW58657   8.401  10.200  14.673
85587SOL    HW158658   8.415  10.219  14.580
85587SOL    HW258659   8.478  10.148  14.699
85588SOL     OW58660   6.931   4.685  14.003
85588SOL    HW158661   6.895   4.630  14.073
85588SOL    HW258662   6.870   4.677  13.931
85589SOL     OW58663   3.017   9.102   6.133
85589SOL    HW158664   2.977   9.170   6.080
85589SOL    HW258665   2.972   9.022   6.107
85590SOL     OW58666   7.086  14.523  10.578
85590SOL    HW158667   7.059  14.513  10.486
85590SOL    HW258668   7.006  14.548  10.624
85591SOL     OW58669   1.284   1.567  14.413
85591SOL    HW158670   1.255   1.502  14.476
85591SOL    HW258671   1.216   1.635  14.416
85592SOL     OW58672  10.415   1.085   4.149
85592SOL    HW158673  10.472   1.020   4.190
85592SOL    HW258674  10.474   1.153   4.118
85593SOL     OW58675   1.041   3.213  11.398
85593SOL    HW158676   1.109   3.248  11.341
85593SOL    HW258677   0.959   3.229  11.351
85594SOL     OW58678   4.519   0.863  10.152
85594SOL    HW158679   4.534   0.794  10.217
85594SOL    HW258680   4.607   0.888  10.124
85595SOL     OW58681   9.406   4.261   5.701
85595SOL    HW158682   9.320   4.226   5.681
85595SOL    HW258683   9.403   4.283   5.794
85596SOL     OW58684  11.877   1.224  14.006
85596SOL    HW158685  11.842   1.282  13.938
85596SOL    HW258686  11.923   1.282  14.066
85597SOL     OW58687   0.256   1.286   2.469
85597SOL    HW158688   0.265   1.222   2.540
85597SOL    HW258689   0.167   1.319   2.477
85598SOL     OW58690   4.562   6.924   9.340
85598SOL    HW158691   4.623   6.962   9.403
85598SOL    HW258692   4.501   6.873   9.393
85599SOL     OW58693   6.903   0.045   5.001
85599SOL    HW158694   6.875   0.112   4.939
85599SOL    HW258695   6.984   0.081   5.039
85600SOL     OW58696  11.507   0.144   0.733
85600SOL    HW158697  11.515   0.149   0.828
85600SOL    HW258698  11.597   0.146   0.701
85601SOL     OW58699  12.574  14.550  12.270
85601SOL    HW158700  12.620  14.467  12.255
85601SOL    HW258701  12.557  14.583  12.182
85602SOL     OW58702  14.764   9.553   5.847
85602SOL    HW158703  14.732   9.493   5.915
85602SOL    HW258704  14.857   9.534   5.839
85603SOL     OW58705  11.265  14.254  12.861
85603SOL    HW158706  11.224  14.253  12.948
85603SOL    HW258707  11.191  14.252  12.800
85604SOL     OW58708  14.495   7.964  12.982
85604SOL    HW158709  14.584   7.973  12.948
85604SOL    HW258710  14.496   8.013  13.064
85605SOL     OW58711   0.009   8.513   6.241
85605SOL    HW158712   0.007   8.423   6.275
85605SOL    HW258713  14.801   8.531   6.215
85606SOL     OW58714  11.527   9.997   5.259
85606SOL    HW158715  11.614   9.967   5.232
85606SOL    HW258716  11.488   9.922   5.303
85607SOL     OW58717   1.796   1.527   8.224
85607SOL    HW158718   1.720   1.515   8.167
85607SOL    HW258719   1.763   1.508   8.312
85608SOL     OW58720  14.138  10.115   6.790
85608SOL    HW158721  14.126  10.116   6.695
85608SOL    HW258722  14.068  10.058   6.823
85609SOL     OW58723   5.031   1.099  13.153
85609SOL    HW158724   5.103   1.102  13.090
85609SOL    HW258725   4.953   1.091  13.099
85610SOL     OW58726   8.567   7.259  10.279
85610SOL    HW158727   8.496   7.229  10.336
85610SOL    HW258728   8.638   7.281  10.339
85611SOL     OW58729   4.194  14.232   0.421
85611SOL    HW158730   4.281  14.271   0.424
85611SOL    HW258731   4.184  14.204   0.331
85612SOL     OW58732   0.032  11.397  12.795
85612SOL    HW158733  14.875  11.364  12.876
85612SOL    HW258734   0.063  11.319  12.750
85613SOL     OW58735  14.821   9.413  14.493
85613SOL    HW158736  14.757   9.368  14.438
85613SOL    HW258737   0.005   9.445  14.432
85614SOL     OW58738   8.762  10.602   4.881
85614SOL    HW158739   8.749  10.511   4.854
85614SOL    HW258740   8.809  10.596   4.964
85615SOL     OW58741   7.087  12.374   7.732
85615SOL    HW158742   7.121  12.444   7.789
85615SOL    HW258743   6.994  12.369   7.753
85616SOL     OW58744   8.335  12.753   9.526
85616SOL    HW158745   8.331  12.710   9.441
85616SOL    HW258746   8.267  12.820   9.522
85617SOL     OW58747  13.242  12.382   5.838
85617SOL    HW158748  13.301  12.404   5.909
85617SOL    HW258749  13.231  12.287   5.844
85618SOL     OW58750   0.481   2.587   0.225
85618SOL    HW158751   0.453   2.509   0.272
85618SOL    HW258752   0.575   2.593   0.242
85619SOL     OW58753  14.847  14.379   3.770
85619SOL    HW158754  14.818  14.372   3.861
85619SOL    HW258755  14.861  14.472   3.756
85620SOL     OW58756  11.802   7.329   2.982
85620SOL    HW158757  11.872   7.264   2.991
85620SOL    HW258758  11.724   7.277   2.964
85621SOL     OW58759   3.503   6.821   6.321
85621SOL    HW158760   3.477   6.729   6.322
85621SOL    HW258761   3.578   6.826   6.380
85622SOL     OW58762   7.942   5.226   3.594
85622SOL    HW158763   7.855   5.187   3.586
85622SOL    HW258764   7.961   5.222   3.687
85623SOL     OW58765  11.236  14.135   5.010
85623SOL    HW158766  11.197  14.219   5.031
85623SOL    HW258767  11.244  14.090   5.095
85624SOL     OW58768   4.707   6.166   9.468
85624SOL    HW158769   4.648   6.104   9.511
85624SOL    HW258770   4.697   6.247   9.518
85625SOL     OW58771   4.092  14.740  12.022
85625SOL    HW158772   4.184  14.719  12.037
85625SOL    HW258773   4.046  14.657  12.032
85626SOL     OW58774   3.039   0.277   2.699
85626SOL    HW158775   3.064   0.303   2.610
85626SOL    HW258776   3.095   0.202   2.719
85627SOL     OW58777   4.796   3.706  14.339
85627SOL    HW158778   4.793   3.750  14.255
85627SOL    HW258779   4.705   3.680  14.356
85628SOL     OW58780   7.791   9.898  10.864
85628SOL    HW158781   7.741   9.873  10.786
85628SOL    HW258782   7.881   9.909  10.831
85629SOL     OW58783  10.079   9.029   0.605
85629SOL    HW158784  10.012   8.965   0.629
85629SOL    HW258785  10.065   9.103   0.664
85630SOL     OW58786   6.268   3.978  12.145
85630SOL    HW158787   6.268   3.887  12.176
85630SOL    HW258788   6.339   3.981  12.081
85631SOL     OW58789  10.757  13.712   3.730
85631SOL    HW158790  10.773  13.623   3.760
85631SOL    HW258791  10.823  13.726   3.663
85632SOL     OW58792  14.376  11.909  12.609
85632SOL    HW158793  14.466  11.933  12.588
85632SOL    HW258794  14.323  11.969  12.558
85633SOL     OW58795  10.080   4.867   1.923
85633SOL    HW158796  10.122   4.785   1.897
85633SOL    HW258797  10.120   4.889   2.007
85634SOL     OW58798  10.430   2.105   4.407
85634SOL    HW158799  10.427   2.129   4.314
85634SOL    HW258800  10.523   2.105   4.429
85635SOL     OW58801   3.208   6.833  10.032
85635SOL    HW158802   3.149   6.795   9.968
85635SOL    HW258803   3.289   6.781  10.024
85636SOL     OW58804  12.481   1.188  10.633
85636SOL    HW158805  12.414   1.217  10.570
85636SOL    HW258806  12.551   1.253  10.626
85637SOL     OW58807   8.229   6.699   1.986
85637SOL    HW158808   8.271   6.626   2.032
85637SOL    HW258809   8.256   6.689   1.895
85638SOL     OW58810   6.998  10.871   9.538
85638SOL    HW158811   6.967  10.850   9.626
85638SOL    HW258812   6.951  10.810   9.481
85639SOL     OW58813  14.635   8.404   9.924
85639SOL    HW158814  14.724   8.379   9.950
85639SOL    HW258815  14.640   8.499   9.910
85640SOL     OW58816   1.510   3.567   4.828
85640SOL    HW158817   1.570   3.599   4.761
85640SOL    HW258818   1.424   3.567   4.786
85641SOL     OW58819   4.066   4.395   6.447
85641SOL    HW158820   3.980   4.363   6.473
85641SOL    HW258821   4.049   4.460   6.379
85642SOL     OW58822   2.740   4.857   0.959
85642SOL    HW158823   2.679   4.783   0.964
85642SOL    HW258824   2.782   4.859   1.045
85643SOL     OW58825   1.541  12.953  10.719
85643SOL    HW158826   1.578  12.997  10.796
85643SOL    HW258827   1.528  12.862  10.747
85644SOL     OW58828   7.277  12.929  10.359
85644SOL    HW158829   7.267  12.864  10.289
85644SOL    HW258830   7.304  13.009  10.313
85645SOL     OW58831   4.235   8.115   7.133
85645SOL    HW158832   4.307   8.163   7.090
85645SOL    HW258833   4.157   8.141   7.085
85646SOL     OW58834  11.324   2.453   3.798
85646SOL    HW158835  11.252   2.508   3.767
85646SOL    HW258836  11.397   2.513   3.812
85647SOL     OW58837   8.122   9.993  12.633
85647SOL    HW158838   8.213   9.980  12.657
85647SOL    HW258839   8.122  10.074  12.581
85648SOL     OW58840   9.199  14.234   1.819
85648SOL    HW158841   9.264  14.236   1.889
85648SOL    HW258842   9.182  14.327   1.799
85649SOL     OW58843   1.680   8.194   1.305
85649SOL    HW158844   1.744   8.151   1.361
85649SOL    HW258845   1.597   8.150   1.325
85650SOL     OW58846   5.319   6.241   5.250
85650SOL    HW158847   5.259   6.167   5.262
85650SOL    HW258848   5.404   6.206   5.276
85651SOL     OW58849   5.493  12.807   6.678
85651SOL    HW158850   5.512  12.714   6.694
85651SOL    HW258851   5.486  12.813   6.583
85652SOL     OW58852   7.504   5.500   4.461
85652SOL    HW158853   7.414   5.529   4.449
85652SOL    HW258854   7.496   5.410   4.492
85653SOL     OW58855   4.146   1.686   5.283
85653SOL    HW158856   4.159   1.757   5.345
85653SOL    HW258857   4.218   1.625   5.301
85654SOL     OW58858   2.040   0.273  13.039
85654SOL    HW158859   2.001   0.203  12.986
85654SOL    HW258860   2.043   0.238  13.128
85655SOL     OW58861   6.392   9.224   7.128
85655SOL    HW158862   6.321   9.198   7.070
85655SOL    HW258863   6.437   9.142   7.150
85656SOL     OW58864   2.403   3.258  13.652
85656SOL    HW158865   2.363   3.340  13.623
85656SOL    HW258866   2.497   3.274  13.645
85657SOL     OW58867  11.422   6.881   6.359
85657SOL    HW158868  11.499   6.832   6.330
85657SOL    HW258869  11.412   6.949   6.292
85658SOL     OW58870   5.582   9.962   9.135
85658SOL    HW158871   5.621   9.874   9.135
85658SOL    HW258872   5.585   9.989   9.043
85659SOL     OW58873   5.486  12.785   1.097
85659SOL    HW158874   5.561  12.794   1.157
85659SOL    HW258875   5.515  12.826   1.016
85660SOL     OW58876  10.842   3.575   0.456
85660SOL    HW158877  10.918   3.518   0.440
85660SOL    HW258878  10.843   3.589   0.551
85661SOL     OW58879   8.956   4.001   4.142
85661SOL    HW158880   9.024   3.941   4.174
85661SOL    HW258881   9.004   4.066   4.091
85662SOL     OW58882   5.019   9.268  14.572
85662SOL    HW158883   5.004   9.188  14.621
85662SOL    HW258884   4.976   9.253  14.488
85663SOL     OW58885   4.252   2.215  13.015
85663SOL    HW158886   4.212   2.136  13.052
85663SOL    HW258887   4.286   2.187  12.930
85664SOL     OW58888  11.329  14.185   1.316
85664SOL    HW158889  11.361  14.187   1.226
85664SOL    HW258890  11.352  14.098   1.348
85665SOL     OW58891  12.863   9.095   9.374
85665SOL    HW158892  12.786   9.132   9.415
85665SOL    HW258893  12.846   9.102   9.280
85666SOL     OW58894   5.626   9.539   9.780
85666SOL    HW158895   5.662   9.628   9.772
85666SOL    HW258896   5.697   9.488   9.819
85667SOL     OW58897   7.952  12.860   6.912
85667SOL    HW158898   7.953  12.808   6.993
85667SOL    HW258899   7.859  12.875   6.894
85668SOL     OW58900   6.827  12.644  11.372
85668SOL    HW158901   6.902  12.668  11.427
85668SOL    HW258902   6.820  12.715  11.308
85669SOL     OW58903  10.838   4.188   3.965
85669SOL    HW158904  10.841   4.208   3.871
85669SOL    HW258905  10.846   4.093   3.970
85670SOL     OW58906   6.183  11.749   8.266
85670SOL    HW158907   6.116  11.740   8.198
85670SOL    HW258908   6.246  11.679   8.248
85671SOL     OW58909   9.898  10.477   6.755
85671SOL    HW158910   9.911  10.520   6.671
85671SOL    HW258911   9.806  10.449   6.753
85672SOL     OW58912   2.717   6.284  12.983
85672SOL    HW158913   2.651   6.344  13.018
85672SOL    HW258914   2.790   6.290  13.044
85673SOL     OW58915   7.953   3.232   6.359
85673SOL    HW158916   7.938   3.191   6.274
85673SOL    HW258917   7.868   3.227   6.404
85674SOL     OW58918   5.650  13.941  10.807
85674SOL    HW158919   5.667  13.913  10.897
85674SOL    HW258920   5.676  13.866  10.753
85675SOL     OW58921   7.461  13.230   1.122
85675SOL    HW158922   7.469  13.229   1.027
85675SOL    HW258923   7.508  13.309   1.149
85676SOL     OW58924  12.243  12.230   8.645
85676SOL    HW158925  12.193  12.241   8.726
85676SOL    HW258926  12.256  12.135   8.638
85677SOL     OW58927   5.310   0.998   4.457
85677SOL    HW158928   5.326   1.092   4.461
85677SOL    HW258929   5.397   0.959   4.451
85678SOL     OW58930  10.127  10.489   4.792
85678SOL    HW158931  10.216  10.523   4.804
85678SOL    HW258932  10.139  10.397   4.767
85679SOL     OW58933   6.491   3.681   3.840
85679SOL    HW158934   6.447   3.619   3.782
85679SOL    HW258935   6.523   3.750   3.782
85680SOL     OW58936   6.232   9.649   3.396
85680SOL    HW158937   6.166   9.698   3.445
85680SOL    HW258938   6.304   9.637   3.458
85681SOL     OW58939   2.959   4.264   7.727
85681SOL    HW158940   2.988   4.183   7.685
85681SOL    HW258941   2.886   4.294   7.672
85682SOL     OW58942   0.423  11.893  12.660
85682SOL    HW158943   0.499  11.896  12.602
85682SOL    HW258944   0.433  11.970  12.716
85683SOL     OW58945   3.756  13.968   4.167
85683SOL    HW158946   3.697  13.905   4.209
85683SOL    HW258947   3.843  13.929   4.176
85684SOL     OW58948   0.324   4.614   4.893
85684SOL    HW158949   0.250   4.653   4.848
85684SOL    HW258950   0.329   4.660   4.977
85685SOL     OW58951  14.228   1.095  14.311
85685SOL    HW158952  14.203   1.142  14.391
85685SOL    HW258953  14.318   1.066  14.328
85686SOL     OW58954  10.339   2.018   0.681
85686SOL    HW158955  10.428   2.009   0.646
85686SOL    HW258956  10.304   2.097   0.640
85687SOL     OW58957   3.361   5.400   5.062
85687SOL    HW158958   3.400   5.439   4.984
85687SOL    HW258959   3.387   5.308   5.059
85688SOL     OW58960   7.847  12.667  12.623
85688SOL    HW158961   7.778  12.652  12.688
85688SOL    HW258962   7.802  12.709  12.550
85689SOL     OW58963  10.254  11.742   1.105
85689SOL    HW158964  10.256  11.790   1.023
85689SOL    HW258965  10.162  11.723   1.121
85690SOL     OW58966   1.018  14.386   1.452
85690SOL    HW158967   1.071  14.444   1.399
85690SOL    HW258968   0.929  14.397   1.418
85691SOL     OW58969  14.878  11.582   6.782
85691SOL    HW158970  14.871  11.584   6.687
85691SOL    HW258971   0.090  11.591   6.799
85692SOL     OW58972  13.298   2.020  10.699
85692SOL    HW158973  13.336   2.037  10.785
85692SOL    HW258974  13.327   1.932  10.677
85693SOL     OW58975   6.607   9.225   2.637
85693SOL    HW158976   6.541   9.184   2.694
85693SOL    HW258977   6.686   9.228   2.691
85694SOL     OW58978   3.229   8.664   3.048
85694SOL    HW158979   3.175   8.610   3.106
85694SOL    HW258980   3.198   8.753   3.064
85695SOL     OW58981   5.113   7.810  13.742
85695SOL    HW158982   5.191   7.778  13.789
85695SOL    HW258983   5.137   7.900  13.716
85696SOL     OW58984   5.280  10.528  12.047
85696SOL    HW158985   5.346  10.593  12.022
85696SOL    HW258986   5.285  10.462  11.979
85697SOL     OW58987   1.641  13.691  12.220
85697SOL    HW158988   1.620  13.621  12.158
85697SOL    HW258989   1.708  13.743  12.175
85698SOL     OW58990   5.316  10.338   2.320
85698SOL    HW158991   5.264  10.386   2.255
85698SOL    HW258992   5.355  10.407   2.374
85699SOL     OW58993  10.289   9.758  10.573
85699SOL    HW158994  10.234   9.758  10.494
85699SOL    HW258995  10.297   9.851  10.596
85700SOL     OW58996  14.380  10.987   7.496
85700SOL    HW158997  14.290  10.953   7.501
85700SOL    HW258998  14.382  11.038   7.416
85701SOL     OW58999  12.922  12.335   9.903
85701SOL    HW159000  12.934  12.273   9.975
85701SOL    HW259001  12.880  12.284   9.834
85702SOL     OW59002   5.864   2.776  11.406
85702SOL    HW159003   5.811   2.828  11.466
85702SOL    HW259004   5.812   2.771  11.326
85703SOL     OW59005   6.752   4.579   6.382
85703SOL    HW159006   6.803   4.535   6.451
85703SOL    HW259007   6.732   4.510   6.319
85704SOL     OW59008  11.361   3.657   4.486
85704SOL    HW159009  11.415   3.667   4.564
85704SOL    HW259010  11.420   3.680   4.414
85705SOL     OW59011   9.350   9.654  13.821
85705SOL    HW159012   9.289   9.645  13.748
85705SOL    HW259013   9.356   9.749  13.835
85706SOL     OW59014   0.786  10.388   5.864
85706SOL    HW159015   0.746  10.468   5.831
85706SOL    HW259016   0.797  10.403   5.957
85707SOL     OW59017   6.215   0.717   2.590
85707SOL    HW159018   6.129   0.756   2.606
85707SOL    HW259019   6.272   0.792   2.572
85708SOL     OW59020   0.407  12.501   2.414
85708SOL    HW159021   0.359  12.478   2.335
85708SOL    HW259022   0.467  12.570   2.385
85709SOL     OW59023   1.792   1.838   3.443
85709SOL    HW159024   1.875   1.881   3.422
85709SOL    HW259025   1.799   1.752   3.400
85710SOL     OW59026   4.468  10.674  14.720
85710SOL    HW159027   4.445  10.707  14.633
85710SOL    HW259028   4.390  10.628  14.750
85711SOL     OW59029   8.506  13.470  11.983
85711SOL    HW159030   8.556  13.523  12.045
85711SOL    HW259031   8.572  13.427  11.929
85712SOL     OW59032   2.704   2.757  13.074
85712SOL    HW159033   2.750   2.826  13.027
85712SOL    HW259034   2.756   2.678  13.057
85713SOL     OW59035  12.129   9.399   8.002
85713SOL    HW159036  12.089   9.328   7.951
85713SOL    HW259037  12.074   9.407   8.080
85714SOL     OW59038  14.275  12.896   5.583
85714SOL    HW159039  14.346  12.938   5.632
85714SOL    HW259040  14.319  12.830   5.529
85715SOL     OW59041  11.374   4.916  13.364
85715SOL    HW159042  11.311   4.899  13.295
85715SOL    HW259043  11.438   4.845  13.356
85716SOL     OW59044  12.679   2.527   4.286
85716SOL    HW159045  12.585   2.539   4.298
85716SOL    HW259046  12.711   2.613   4.261
85717SOL     OW59047   2.275   7.175   1.054
85717SOL    HW159048   2.335   7.166   1.129
85717SOL    HW259049   2.195   7.210   1.093
85718SOL     OW59050  12.076   4.157  11.991
85718SOL    HW159051  12.066   4.244  11.951
85718SOL    HW259052  11.991   4.139  12.030
85719SOL     OW59053   2.131   7.448   7.637
85719SOL    HW159054   2.097   7.363   7.607
85719SOL    HW259055   2.055   7.491   7.676
85720SOL     OW59056   3.575   8.866   9.071
85720SOL    HW159057   3.550   8.921   8.997
85720SOL    HW259058   3.671   8.863   9.067
85721SOL     OW59059  10.699   7.073  10.616
85721SOL    HW159060  10.648   6.993  10.629
85721SOL    HW259061  10.633   7.141  10.598
85722SOL     OW59062   3.200   7.091  12.983
85722SOL    HW159063   3.287   7.055  13.001
85722SOL    HW259064   3.215   7.182  12.960
85723SOL     OW59065   0.397  11.748   7.538
85723SOL    HW159066   0.378  11.715   7.626
85723SOL    HW259067   0.395  11.843   7.548
85724SOL     OW59068  12.978   6.609   6.469
85724SOL    HW159069  13.049   6.655   6.513
85724SOL    HW259070  12.992   6.627   6.376
85725SOL     OW59071  10.189  11.465  13.622
85725SOL    HW159072  10.142  11.486  13.542
85725SOL    HW259073  10.159  11.377  13.645
85726SOL     OW59074  13.316   1.756   7.058
85726SOL    HW159075  13.408   1.742   7.034
85726SOL    HW259076  13.279   1.803   6.983
85727SOL     OW59077  12.875   4.502   3.561
85727SOL    HW159078  12.852   4.543   3.478
85727SOL    HW259079  12.910   4.416   3.535
85728SOL     OW59080   2.882   8.684   0.609
85728SOL    HW159081   2.962   8.687   0.661
85728SOL    HW259082   2.824   8.626   0.659
85729SOL     OW59083  11.787   1.519   5.788
85729SOL    HW159084  11.749   1.604   5.808
85729SOL    HW259085  11.722   1.456   5.819
85730SOL     OW59086  12.116   8.440   9.909
85730SOL    HW159087  12.205   8.443   9.943
85730SOL    HW259088  12.124   8.398   9.824
85731SOL     OW59089   6.215   7.827  12.720
85731SOL    HW159090   6.263   7.765  12.776
85731SOL    HW259091   6.212   7.908  12.770
85732SOL     OW59092   7.828  12.878   1.869
85732SOL    HW159093   7.748  12.897   1.820
85732SOL    HW259094   7.802  12.809   1.931
85733SOL     OW59095   3.542   1.703   1.387
85733SOL    HW159096   3.531   1.798   1.390
85733SOL    HW259097   3.577   1.680   1.473
85734SOL     OW59098  12.838   7.566  11.607
85734SOL    HW159099  12.891   7.554  11.686
85734SOL    HW259100  12.775   7.494  11.609
85735SOL     OW59101  14.060  12.805   4.695
85735SOL    HW159102  14.124  12.861   4.738
85735SOL    HW259103  14.089  12.800   4.604
85736SOL     OW59104  13.839   7.977  14.681
85736SOL    HW159105  13.751   7.944  14.665
85736SOL    HW259106  13.855   7.959  14.773
85737SOL     OW59107   9.643   3.231  13.626
85737SOL    HW159108   9.699   3.182  13.566
85737SOL    HW259109   9.631   3.316  13.583
85738SOL     OW59110   3.924   7.323   5.709
85738SOL    HW159111   3.875   7.302   5.629
85738SOL    HW259112   4.015   7.329   5.680
85739SOL     OW59113   5.906   7.299  11.787
85739SOL    HW159114   5.929   7.257  11.705
85739SOL    HW259115   5.819   7.337  11.772
85740SOL     OW59116   3.497   0.541   5.371
85740SOL    HW159117   3.560   0.500   5.312
85740SOL    HW259118   3.501   0.489   5.451
85741SOL     OW59119   7.309  11.346  11.712
85741SOL    HW159120   7.399  11.368  11.734
85741SOL    HW259121   7.266  11.430  11.697
85742SOL     OW59122   5.454   0.981  11.313
85742SOL    HW159123   5.397   1.010  11.384
85742SOL    HW259124   5.485   1.062  11.272
85743SOL     OW59125  11.125   3.173   1.979
85743SOL    HW159126  11.046   3.146   2.024
85743SOL    HW259127  11.192   3.176   2.047
85744SOL     OW59128   5.328  14.351   3.240
85744SOL    HW159129   5.329  14.447   3.239
85744SOL    HW259130   5.393  14.326   3.174
85745SOL     OW59131   8.100   1.526   6.298
85745SOL    HW159132   8.119   1.559   6.211
85745SOL    HW259133   8.185   1.495   6.331
85746SOL     OW59134   7.585   7.075   3.082
85746SOL    HW159135   7.506   7.122   3.107
85746SOL    HW259136   7.599   7.011   3.153
85747SOL     OW59137   7.094  11.077   1.746
85747SOL    HW159138   7.171  11.033   1.710
85747SOL    HW259139   7.020  11.021   1.721
85748SOL     OW59140   9.864  12.520   0.309
85748SOL    HW159141   9.782  12.527   0.358
85748SOL    HW259142   9.843  12.552   0.222
85749SOL     OW59143  12.459   9.871   1.942
85749SOL    HW159144  12.536   9.918   1.913
85749SOL    HW259145  12.385   9.919   1.905
85750SOL     OW59146  12.841   2.721  14.475
85750SOL    HW159147  12.834   2.816  14.473
85750SOL    HW259148  12.768   2.692  14.529
85751SOL     OW59149   2.682   9.801   3.979
85751SOL    HW159150   2.639   9.794   3.894
85751SOL    HW259151   2.617   9.843   4.036
85752SOL     OW59152   2.176   9.414   4.378
85752SOL    HW159153   2.232   9.340   4.354
85752SOL    HW259154   2.210   9.444   4.462
85753SOL     OW59155   2.710   5.561   4.040
85753SOL    HW159156   2.668   5.609   4.111
85753SOL    HW259157   2.648   5.491   4.019
85754SOL     OW59158   1.061  10.803   8.805
85754SOL    HW159159   1.097  10.782   8.719
85754SOL    HW259160   1.017  10.887   8.792
85755SOL     OW59161  12.131  12.183   2.381
85755SOL    HW159162  12.088  12.208   2.299
85755SOL    HW259163  12.220  12.159   2.354
85756SOL     OW59164  11.215  14.806   3.047
85756SOL    HW159165  11.233  14.739   2.981
85756SOL    HW259166  11.300  14.849   3.062
85757SOL     OW59167  10.291   9.301  10.816
85757SOL    HW159168  10.196   9.292  10.819
85757SOL    HW259169  10.306   9.377  10.760
85758SOL     OW59170  12.011   7.009   1.627
85758SOL    HW159171  11.933   6.956   1.642
85758SOL    HW259172  12.043   7.028   1.715
85759SOL     OW59173  12.549  11.185  10.366
85759SOL    HW159174  12.553  11.260  10.426
85759SOL    HW259175  12.524  11.223  10.282
85760SOL     OW59176   1.549  13.838   8.887
85760SOL    HW159177   1.603  13.830   8.965
85760SOL    HW259178   1.541  13.748   8.854
85761SOL     OW59179   9.335  10.993   3.726
85761SOL    HW159180   9.339  10.969   3.819
85761SOL    HW259181   9.273  10.931   3.688
85762SOL     OW59182   9.685  10.262   2.828
85762SOL    HW159183   9.637  10.297   2.753
85762SOL    HW259184   9.733  10.187   2.792
85763SOL     OW59185  14.555   6.970  11.730
85763SOL    HW159186  14.650   6.974  11.741
85763SOL    HW259187  14.526   6.904  11.793
85764SOL     OW59188   1.444  11.067   9.597
85764SOL    HW159189   1.501  11.097   9.667
85764SOL    HW259190   1.430  10.974   9.615
85765SOL     OW59191   5.053   5.353   0.682
85765SOL    HW159192   5.038   5.406   0.760
85765SOL    HW259193   5.135   5.308   0.698
85766SOL     OW59194  10.370   5.024  12.546
85766SOL    HW159195  10.444   5.068  12.589
85766SOL    HW259196  10.359   4.943  12.595
85767SOL     OW59197   2.001   3.660   3.571
85767SOL    HW159198   2.095   3.667   3.557
85767SOL    HW259199   1.993   3.609   3.652
85768SOL     OW59200   6.208   8.225   4.343
85768SOL    HW159201   6.272   8.185   4.402
85768SOL    HW259202   6.188   8.156   4.280
85769SOL     OW59203  14.279   9.139  12.908
85769SOL    HW159204  14.282   9.059  12.959
85769SOL    HW259205  14.268   9.209  12.972
85770SOL     OW59206   7.453   3.140  14.208
85770SOL    HW159207   7.382   3.165  14.267
85770SOL    HW259208   7.440   3.046  14.193
85771SOL     OW59209  10.892  12.008   9.078
85771SOL    HW159210  10.830  12.012   9.005
85771SOL    HW259211  10.955  12.077   9.060
85772SOL     OW59212   9.179   4.218   0.835
85772SOL    HW159213   9.134   4.134   0.846
85772SOL    HW259214   9.253   4.199   0.777
85773SOL     OW59215   5.810  14.504  11.541
85773SOL    HW159216   5.748  14.540  11.605
85773SOL    HW259217   5.816  14.572  11.473
85774SOL     OW59218   7.713  13.144   9.018
85774SOL    HW159219   7.649  13.093   8.968
85774SOL    HW259220   7.718  13.100   9.103
85775SOL     OW59221   6.083   8.602   0.025
85775SOL    HW159222   6.093   8.682  14.855
85775SOL    HW259223   6.064   8.633   0.114
85776SOL     OW59224   6.219   6.232  12.803
85776SOL    HW159225   6.141   6.191  12.766
85776SOL    HW259226   6.259   6.279  12.729
85777SOL     OW59227   0.622   5.074  14.496
85777SOL    HW159228   0.609   4.986  14.532
85777SOL    HW259229   0.583   5.133  14.560
85778SOL     OW59230  10.507  10.776  10.356
85778SOL    HW159231  10.520  10.845  10.290
85778SOL    HW259232  10.563  10.803  10.429
85779SOL     OW59233  10.851  14.118   0.253
85779SOL    HW159234  10.896  14.166   0.321
85779SOL    HW259235  10.920  14.089   0.193
85780SOL     OW59236   7.229   0.152   9.156
85780SOL    HW159237   7.269   0.224   9.107
85780SOL    HW259238   7.165   0.115   9.096
85781SOL     OW59239   2.045  14.290  11.788
85781SOL    HW159240   2.086  14.290  11.701
85781SOL    HW259241   2.057  14.200  11.820
85782SOL     OW59242  10.943  12.341  12.322
85782SOL    HW159243  10.863  12.380  12.289
85782SOL    HW259244  10.914  12.266  12.374
85783SOL     OW59245   3.579  14.520   8.521
85783SOL    HW159246   3.516  14.562   8.579
85783SOL    HW259247   3.606  14.441   8.569
85784SOL     OW59248   6.373   7.242  11.181
85784SOL    HW159249   6.316   7.209  11.112
85784SOL    HW259250   6.462   7.221  11.151
85785SOL     OW59251  13.943   0.858  13.057
85785SOL    HW159252  13.870   0.797  13.066
85785SOL    HW259253  13.962   0.887  13.146
85786SOL     OW59254   1.955   2.214  11.235
85786SOL    HW159255   2.019   2.194  11.168
85786SOL    HW259256   1.872   2.183  11.199
85787SOL     OW59257  14.558   3.322  13.760
85787SOL    HW159258  14.534   3.374  13.684
85787SOL    HW259259  14.491   3.343  13.825
85788SOL     OW59260  13.177   7.526   2.172
85788SOL    HW159261  13.173   7.482   2.257
85788SOL    HW259262  13.207   7.614   2.192
85789SOL     OW59263   4.623   6.827   4.711
85789SOL    HW159264   4.628   6.779   4.628
85789SOL    HW259265   4.652   6.916   4.688
85790SOL     OW59266  10.985  11.204  11.923
85790SOL    HW159267  10.894  11.194  11.949
85790SOL    HW259268  10.985  11.196  11.828
85791SOL     OW59269   0.986   0.061   5.042
85791SOL    HW159270   0.993  14.879   5.113
85791SOL    HW259271   0.959   0.010   4.966
85792SOL     OW59272   6.588  11.888   4.030
85792SOL    HW159273   6.655  11.894   4.097
85792SOL    HW259274   6.506  11.900   4.077
85793SOL     OW59275   4.408  11.398  11.139
85793SOL    HW159276   4.423  11.483  11.180
85793SOL    HW259277   4.471  11.339  11.181
85794SOL     OW59278   9.724   8.635  11.181
85794SOL    HW159279   9.688   8.611  11.096
85794SOL    HW259280   9.795   8.572  11.196
85795SOL     OW59281   2.010   4.660  12.218
85795SOL    HW159282   1.991   4.577  12.173
85795SOL    HW259283   2.099   4.682  12.191
85796SOL     OW59284   8.997   2.141   9.664
85796SOL    HW159285   8.930   2.145   9.596
85796SOL    HW259286   8.953   2.105   9.740
85797SOL     OW59287   3.828  13.652   8.432
85797SOL    HW159288   3.798  13.563   8.413
85797SOL    HW259289   3.843  13.654   8.526
85798SOL     OW59290   6.232   6.986  14.022
85798SOL    HW159291   6.245   6.950  14.110
85798SOL    HW259292   6.138   7.006  14.018
85799SOL     OW59293   2.967   6.671   4.477
85799SOL    HW159294   2.931   6.745   4.526
85799SOL    HW259295   3.062   6.677   4.490
85800SOL     OW59296   1.675  11.843   9.317
85800SOL    HW159297   1.680  11.821   9.410
85800SOL    HW259298   1.766  11.857   9.291
85801SOL     OW59299  11.699   7.057   3.472
85801SOL    HW159300  11.702   6.980   3.416
85801SOL    HW259301  11.637   7.034   3.541
85802SOL     OW59302   2.710  11.855   0.186
85802SOL    HW159303   2.676  11.774   0.148
85802SOL    HW259304   2.658  11.867   0.266
85803SOL     OW59305  11.931  10.340   0.335
85803SOL    HW159306  11.920  10.369   0.244
85803SOL    HW259307  11.957  10.420   0.382
85804SOL     OW59308   7.986   8.617  14.618
85804SOL    HW159309   7.993   8.637  14.525
85804SOL    HW259310   8.060   8.558  14.635
85805SOL     OW59311   2.529   4.998   1.786
85805SOL    HW159312   2.497   4.930   1.726
85805SOL    HW259313   2.540   4.953   1.870
85806SOL     OW59314   1.646   9.023  10.218
85806SOL    HW159315   1.735   8.991  10.204
85806SOL    HW259316   1.597   8.992  10.142
85807SOL     OW59317   2.469   8.508   9.882
85807SOL    HW159318   2.535   8.439   9.877
85807SOL    HW259319   2.448   8.527   9.790
85808SOL     OW59320   7.525   2.780   5.703
85808SOL    HW159321   7.565   2.712   5.649
85808SOL    HW259322   7.591   2.801   5.769
85809SOL     OW59323  14.868  14.422   5.032
85809SOL    HW159324   0.033  14.503   5.051
85809SOL    HW259325   0.054  14.361   5.004
85810SOL     OW59326   2.393  11.699   5.179
85810SOL    HW159327   2.359  11.733   5.096
85810SOL    HW259328   2.422  11.610   5.159
85811SOL     OW59329   2.356   8.034  13.848
85811SOL    HW159330   2.343   7.986  13.930
85811SOL    HW259331   2.424   8.098  13.868
85812SOL     OW59332   2.894   9.492  11.742
85812SOL    HW159333   2.890   9.579  11.702
85812SOL    HW259334   2.931   9.508  11.829
85813SOL     OW59335   5.723   5.464   8.981
85813SOL    HW159336   5.655   5.411   8.938
85813SOL    HW259337   5.791   5.401   9.006
85814SOL     OW59338   0.029  12.981   3.190
85814SOL    HW159339   0.119  12.954   3.174
85814SOL    HW259340  14.859  12.903   3.174
85815SOL     OW59341   2.737   9.833   4.364
85815SOL    HW159342   2.651   9.816   4.402
85815SOL    HW259343   2.762   9.918   4.399
85816SOL     OW59344   5.532  11.276   8.304
85816SOL    HW159345   5.555  11.231   8.385
85816SOL    HW259346   5.617  11.304   8.268
85817SOL     OW59347   9.926  11.302   7.159
85817SOL    HW159348   9.972  11.218   7.165
85817SOL    HW259349   9.992  11.362   7.124
85818SOL     OW59350   4.613  13.023   5.761
85818SOL    HW159351   4.637  13.113   5.781
85818SOL    HW259352   4.624  12.977   5.845
85819SOL     OW59353   9.897   0.656   3.079
85819SOL    HW159354   9.929   0.730   3.028
85819SOL    HW259355   9.948   0.581   3.047
85820SOL     OW59356  10.862   7.937  11.876
85820SOL    HW159357  10.805   8.002  11.834
85820SOL    HW259358  10.803   7.866  11.902
85821SOL     OW59359  13.245  10.335   6.508
85821SOL    HW159360  13.272  10.302   6.422
85821SOL    HW259361  13.315  10.309   6.567
85822SOL     OW59362   1.405  14.619   4.693
85822SOL    HW159363   1.465  14.545   4.704
85822SOL    HW259364   1.319  14.578   4.681
85823SOL     OW59365   4.287  13.156   6.027
85823SOL    HW159366   4.338  13.187   6.102
85823SOL    HW259367   4.261  13.067   6.051
85824SOL     OW59368   6.310   2.816   7.088
85824SOL    HW159369   6.316   2.833   7.182
85824SOL    HW259370   6.372   2.745   7.073
85825SOL     OW59371  10.782   7.891  13.007
85825SOL    HW159372  10.851   7.872  12.944
85825SOL    HW259373  10.758   7.982  12.990
85826SOL     OW59374   8.399   5.675   5.715
85826SOL    HW159375   8.461   5.729   5.762
85826SOL    HW259376   8.445   5.649   5.635
85827SOL     OW59377   3.709  12.588   1.309
85827SOL    HW159378   3.717  12.681   1.326
85827SOL    HW259379   3.786  12.549   1.350
85828SOL     OW59380   1.374  10.019   4.127
85828SOL    HW159381   1.393   9.946   4.067
85828SOL    HW259382   1.289  10.051   4.098
85829SOL     OW59383   6.971  11.181   9.772
85829SOL    HW159384   7.034  11.253   9.781
85829SOL    HW259385   6.925  11.200   9.691
85830SOL     OW59386  12.429  11.722   7.316
85830SOL    HW159387  12.466  11.684   7.395
85830SOL    HW259388  12.337  11.737   7.338
85831SOL     OW59389   5.561   3.720   8.230
85831SOL    HW159390   5.556   3.756   8.318
85831SOL    HW259391   5.621   3.646   8.238
85832SOL     OW59392  12.854   3.016   2.356
85832SOL    HW159393  12.882   3.064   2.435
85832SOL    HW259394  12.814   2.936   2.390
85833SOL     OW59395   3.920   6.923  12.601
85833SOL    HW159396   3.882   6.987  12.662
85833SOL    HW259397   3.846   6.867  12.578
85834SOL     OW59398   6.551   2.809   5.790
85834SOL    HW159399   6.552   2.822   5.885
85834SOL    HW259400   6.520   2.892   5.754
85835SOL     OW59401   4.094  11.447   4.806
85835SOL    HW159402   4.104  11.354   4.785
85835SOL    HW259403   4.013  11.473   4.762
85836SOL     OW59404   2.036  11.206   6.038
85836SOL    HW159405   1.970  11.273   6.057
85836SOL    HW259406   2.020  11.137   6.103
85837SOL     OW59407  10.025   5.583   4.861
85837SOL    HW159408   9.947   5.560   4.913
85837SOL    HW259409  10.004   5.667   4.822
85838SOL     OW59410   7.183   5.365   6.240
85838SOL    HW159411   7.172   5.272   6.224
85838SOL    HW259412   7.274   5.383   6.216
85839SOL     OW59413  12.500  13.813   0.570
85839SOL    HW159414  12.436  13.880   0.548
85839SOL    HW259415  12.508  13.760   0.490
85840SOL     OW59416   6.640  13.737  14.439
85840SOL    HW159417   6.694  13.659  14.451
85840SOL    HW259418   6.645  13.783  14.523
85841SOL     OW59419  12.338   2.238  10.124
85841SOL    HW159420  12.408   2.285  10.169
85841SOL    HW259421  12.379   2.204  10.045
85842SOL     OW59422  10.198   7.160   2.663
85842SOL    HW159423  10.153   7.104   2.726
85842SOL    HW259424  10.133   7.179   2.595
85843SOL     OW59425  10.531   4.184   0.901
85843SOL    HW159426  10.575   4.220   0.824
85843SOL    HW259427  10.591   4.202   0.973
85844SOL     OW59428   4.769  12.889   2.611
85844SOL    HW159429   4.854  12.879   2.652
85844SOL    HW259430   4.708  12.843   2.668
85845SOL     OW59431   3.107   2.481  13.742
85845SOL    HW159432   3.012   2.470  13.738
85845SOL    HW259433   3.126   2.495  13.835
85846SOL     OW59434  10.270  12.279  10.884
85846SOL    HW159435  10.178  12.283  10.857
85846SOL    HW259436  10.317  12.252  10.804
85847SOL     OW59437   4.475   9.421  14.089
85847SOL    HW159438   4.519   9.504  14.067
85847SOL    HW259439   4.547   9.361  14.109
85848SOL     OW59440   4.742   7.920   4.664
85848SOL    HW159441   4.649   7.921   4.641
85848SOL    HW259442   4.752   7.843   4.721
85849SOL     OW59443   9.878   6.444   1.191
85849SOL    HW159444   9.919   6.530   1.192
85849SOL    HW259445   9.951   6.383   1.180
85850SOL     OW59446   4.016   7.241   0.553
85850SOL    HW159447   3.972   7.189   0.486
85850SOL    HW259448   4.039   7.322   0.509
85851SOL     OW59449   9.041  13.582   4.879
85851SOL    HW159450   9.132  13.609   4.864
85851SOL    HW259451   9.021  13.611   4.968
85852SOL     OW59452  14.183   8.500   2.391
85852SOL    HW159453  14.207   8.534   2.305
85852SOL    HW259454  14.246   8.429   2.407
85853SOL     OW59455   5.782   3.734   5.653
85853SOL    HW159456   5.848   3.689   5.601
85853SOL    HW259457   5.701   3.686   5.637
85854SOL     OW59458  14.110   3.808   3.373
85854SOL    HW159459  14.149   3.750   3.307
85854SOL    HW259460  14.121   3.896   3.337
85855SOL     OW59461   3.349   6.880   7.709
85855SOL    HW159462   3.431   6.841   7.738
85855SOL    HW259463   3.361   6.974   7.722
85856SOL     OW59464   5.930   8.163   8.342
85856SOL    HW159465   6.006   8.175   8.286
85856SOL    HW259466   5.959   8.101   8.409
85857SOL     OW59467   7.012   0.737   5.558
85857SOL    HW159468   7.076   0.699   5.497
85857SOL    HW259469   6.974   0.810   5.510
85858SOL     OW59470   4.788   0.936   3.062
85858SOL    HW159471   4.700   0.972   3.070
85858SOL    HW259472   4.779   0.844   3.087
85859SOL     OW59473   6.674   0.173   2.960
85859SOL    HW159474   6.767   0.194   2.970
85859SOL    HW259475   6.660   0.169   2.865
85860SOL     OW59476  11.561   6.668   1.154
85860SOL    HW159477  11.610   6.587   1.146
85860SOL    HW259478  11.474   6.647   1.120
85861SOL     OW59479  13.762   9.677   7.840
85861SOL    HW159480  13.852   9.690   7.869
85861SOL    HW259481  13.716   9.645   7.918
85862SOL     OW59482   1.374   6.087   7.005
85862SOL    HW159483   1.385   6.121   7.094
85862SOL    HW259484   1.420   6.150   6.949
85863SOL     OW59485   1.859   5.426  10.714
85863SOL    HW159486   1.925   5.419  10.783
85863SOL    HW259487   1.834   5.518  10.714
85864SOL     OW59488   1.905   3.578   6.696
85864SOL    HW159489   1.954   3.615   6.770
85864SOL    HW259490   1.896   3.651   6.634
85865SOL     OW59491   5.523  10.489  11.574
85865SOL    HW159492   5.573  10.558  11.616
85865SOL    HW259493   5.451  10.535  11.530
85866SOL     OW59494   0.477   4.940   3.584
85866SOL    HW159495   0.557   4.922   3.633
85866SOL    HW259496   0.410   4.885   3.626
85867SOL     OW59497   6.992   6.531   4.868
85867SOL    HW159498   6.993   6.593   4.796
85867SOL    HW259499   7.065   6.557   4.923
85868SOL     OW59500  10.215  14.842   2.375
85868SOL    HW159501  10.244  14.805   2.292
85868SOL    HW259502  10.149  14.780   2.407
85869SOL     OW59503  13.092  14.597  11.673
85869SOL    HW159504  13.137  14.614  11.756
85869SOL    HW259505  13.017  14.656  11.673
85870SOL     OW59506   9.673  11.105   7.437
85870SOL    HW159507   9.700  11.051   7.363
85870SOL    HW259508   9.755  11.129   7.481
85871SOL     OW59509  13.868   7.005   9.081
85871SOL    HW159510  13.805   7.069   9.114
85871SOL    HW259511  13.874   6.938   9.150
85872SOL     OW59512   3.782   9.941   0.205
85872SOL    HW159513   3.838   9.983   0.140
85872SOL    HW259514   3.693   9.972   0.185
85873SOL     OW59515   9.983  13.149   2.050
85873SOL    HW159516   9.909  13.189   2.095
85873SOL    HW259517  10.054  13.152   2.113
85874SOL     OW59518   5.439   1.349   5.043
85874SOL    HW159519   5.378   1.277   5.028
85874SOL    HW259520   5.388   1.414   5.091
85875SOL     OW59521   5.235   1.365   7.493
85875SOL    HW159522   5.201   1.317   7.569
85875SOL    HW259523   5.160   1.417   7.462
85876SOL     OW59524  14.733  12.366   5.794
85876SOL    HW159525  14.708  12.343   5.704
85876SOL    HW259526  14.796  12.299   5.819
85877SOL     OW59527   9.765   5.844  12.954
85877SOL    HW159528   9.771   5.760  12.998
85877SOL    HW259529   9.856   5.870  12.940
85878SOL     OW59530  11.627   3.321   3.369
85878SOL    HW159531  11.638   3.359   3.282
85878SOL    HW259532  11.548   3.363   3.403
85879SOL     OW59533  10.214   8.616  14.512
85879SOL    HW159534  10.282   8.655  14.457
85879SOL    HW259535  10.132   8.653  14.478
85880SOL     OW59536   8.002  11.316  13.881
85880SOL    HW159537   7.913  11.304  13.849
85880SOL    HW259538   8.034  11.228  13.899
85881SOL     OW59539  14.066   3.738   7.219
85881SOL    HW159540  14.058   3.662   7.276
85881SOL    HW259541  14.040   3.706   7.132
85882SOL     OW59542   9.427   7.105   4.144
85882SOL    HW159543   9.405   7.012   4.148
85882SOL    HW259544   9.487   7.112   4.070
85883SOL     OW59545   1.456   5.291   6.312
85883SOL    HW159546   1.364   5.281   6.288
85883SOL    HW259547   1.478   5.208   6.355
85884SOL     OW59548   4.119  13.960   0.014
85884SOL    HW159549   4.085  13.996  14.814
85884SOL    HW259550   4.043  13.960   0.072
85885SOL     OW59551   1.550   6.211  14.058
85885SOL    HW159552   1.494   6.282  14.089
85885SOL    HW259553   1.492   6.135  14.052
85886SOL     OW59554  14.584   9.915  14.008
85886SOL    HW159555  14.557   9.832  14.047
85886SOL    HW259556  14.641   9.955  14.074
85887SOL     OW59557   0.069  14.746   6.759
85887SOL    HW159558   0.097  14.730   6.849
85887SOL    HW259559   0.022  14.667   6.734
85888SOL     OW59560   9.175   6.425   3.780
85888SOL    HW159561   9.093   6.395   3.820
85888SOL    HW259562   9.204   6.497   3.836
85889SOL     OW59563   3.407   1.323   4.799
85889SOL    HW159564   3.483   1.376   4.773
85889SOL    HW259565   3.380   1.279   4.718
85890SOL     OW59566   5.375   5.375  11.702
85890SOL    HW159567   5.462   5.372  11.741
85890SOL    HW259568   5.321   5.421  11.766
85891SOL     OW59569  10.381  14.253   3.275
85891SOL    HW159570  10.443  14.255   3.201
85891SOL    HW259571  10.380  14.343   3.307
85892SOL     OW59572   1.571  11.093  10.077
85892SOL    HW159573   1.480  11.070  10.097
85892SOL    HW259574   1.566  11.184  10.046
85893SOL     OW59575   2.795   5.804  11.414
85893SOL    HW159576   2.768   5.842  11.497
85893SOL    HW259577   2.803   5.711  11.431
85894SOL     OW59578  10.771   2.483  12.436
85894SOL    HW159579  10.695   2.518  12.389
85894SOL    HW259580  10.764   2.388  12.427
85895SOL     OW59581  12.406  14.243   6.527
85895SOL    HW159582  12.318  14.256   6.492
85895SOL    HW259583  12.414  14.307   6.597
85896SOL     OW59584   9.941   0.969   4.562
85896SOL    HW159585   9.988   0.905   4.509
85896SOL    HW259586   9.985   0.967   4.647
85897SOL     OW59587   4.503   3.331   7.691
85897SOL    HW159588   4.577   3.392   7.688
85897SOL    HW259589   4.505   3.287   7.606
85898SOL     OW59590   4.826  12.109   0.672
85898SOL    HW159591   4.786  12.187   0.712
85898SOL    HW259592   4.871  12.066   0.745
85899SOL     OW59593   4.027   4.863   1.263
85899SOL    HW159594   3.937   4.879   1.292
85899SOL    HW259595   4.045   4.932   1.199
85900SOL     OW59596   4.982  10.846  14.261
85900SOL    HW159597   4.943  10.759  14.249
85900SOL    HW259598   4.925  10.905  14.211
85901SOL     OW59599   4.636   1.105   7.730
85901SOL    HW159600   4.580   1.156   7.788
85901SOL    HW259601   4.618   1.014   7.752
85902SOL     OW59602   6.943   1.396   4.223
85902SOL    HW159603   6.891   1.472   4.197
85902SOL    HW259604   7.026   1.433   4.251
85903SOL     OW59605   5.146  13.032  14.030
85903SOL    HW159606   5.064  13.043  14.079
85903SOL    HW259607   5.142  13.099  13.962
85904SOL     OW59608   6.971   3.861   9.460
85904SOL    HW159609   6.894   3.833   9.409
85904SOL    HW259610   6.972   3.802   9.535
85905SOL     OW59611   4.061   2.371   9.058
85905SOL    HW159612   3.974   2.332   9.052
85905SOL    HW259613   4.121   2.299   9.039
85906SOL     OW59614   6.333  11.551   5.137
85906SOL    HW159615   6.389  11.519   5.207
85906SOL    HW259616   6.390  11.607   5.084
85907SOL     OW59617   0.249  12.012   0.902
85907SOL    HW159618   0.344  12.022   0.910
85907SOL    HW259619   0.219  11.997   0.991
85908SOL     OW59620   5.817   6.738  14.136
85908SOL    HW159621   5.854   6.686  14.064
85908SOL    HW259622   5.733   6.768  14.103
85909SOL     OW59623   1.534  10.635  10.223
85909SOL    HW159624   1.559  10.569  10.287
85909SOL    HW259625   1.439  10.641  10.230
85910SOL     OW59626  12.061   7.367   9.336
85910SOL    HW159627  11.979   7.324   9.358
85910SOL    HW259628  12.052   7.455   9.372
85911SOL     OW59629   5.222  11.360   2.716
85911SOL    HW159630   5.242  11.309   2.638
85911SOL    HW259631   5.287  11.430   2.716
85912SOL     OW59632   1.361   3.113   9.335
85912SOL    HW159633   1.408   3.195   9.353
85912SOL    HW259634   1.338   3.118   9.243
85913SOL     OW59635   4.121  14.444   6.681
85913SOL    HW159636   4.151  14.513   6.740
85913SOL    HW259637   4.053  14.484   6.628
85914SOL     OW59638   6.692   3.956   3.737
85914SOL    HW159639   6.724   4.011   3.665
85914SOL    HW259640   6.597   3.952   3.723
85915SOL     OW59641   7.715  14.161  14.868
85915SOL    HW159642   7.763  14.224  14.815
85915SOL    HW259643   7.783  14.103   0.020
85916SOL     OW59644   6.626   5.381   9.842
85916SOL    HW159645   6.708   5.339   9.816
85916SOL    HW259646   6.615   5.453   9.780
85917SOL     OW59647   6.589  12.696   3.638
85917SOL    HW159648   6.569  12.613   3.682
85917SOL    HW259649   6.682  12.711   3.656
85918SOL     OW59650   5.866  10.599  10.991
85918SOL    HW159651   5.845  10.538  11.062
85918SOL    HW259652   5.860  10.545  10.912
85919SOL     OW59653   6.465   8.810   1.359
85919SOL    HW159654   6.526   8.839   1.291
85919SOL    HW259655   6.411   8.887   1.377
85920SOL     OW59656   6.250   6.090  14.086
85920SOL    HW159657   6.190   6.114  14.157
85920SOL    HW259658   6.337   6.101  14.124
85921SOL     OW59659   4.276  14.173   3.024
85921SOL    HW159660   4.236  14.251   2.987
85921SOL    HW259661   4.280  14.111   2.950
85922SOL     OW59662   0.978   3.788  14.482
85922SOL    HW159663   1.008   3.711  14.530
85922SOL    HW259664   0.884   3.792  14.497
85923SOL     OW59665   0.414   7.305   6.534
85923SOL    HW159666   0.494   7.357   6.528
85923SOL    HW259667   0.442   7.223   6.575
85924SOL     OW59668   1.071   1.081   8.017
85924SOL    HW159669   1.043   0.995   7.984
85924SOL    HW259670   1.020   1.144   7.966
85925SOL     OW59671   3.998   0.431   7.661
85925SOL    HW159672   3.931   0.469   7.604
85925SOL    HW259673   3.975   0.463   7.749
85926SOL     OW59674  13.814   4.595  10.382
85926SOL    HW159675  13.786   4.679  10.420
85926SOL    HW259676  13.908   4.591  10.399
85927SOL     OW59677   9.490  12.044   9.823
85927SOL    HW159678   9.511  12.005   9.738
85927SOL    HW259679   9.575  12.059   9.864
85928SOL     OW59680   8.682  11.872   5.730
85928SOL    HW159681   8.635  11.956   5.728
85928SOL    HW259682   8.774  11.896   5.734
85929SOL     OW59683   2.138  14.580   1.115
85929SOL    HW159684   2.193  14.571   1.193
85929SOL    HW259685   2.096  14.665   1.126
85930SOL     OW59686   4.114   9.727  12.561
85930SOL    HW159687   4.124   9.643  12.517
85930SOL    HW259688   4.165   9.719  12.642
85931SOL     OW59689   0.843  14.550  14.440
85931SOL    HW159690   0.824  14.580  14.351
85931SOL    HW259691   0.757  14.529  14.477
85932SOL     OW59692   0.781  11.409  12.814
85932SOL    HW159693   0.689  11.384  12.811
85932SOL    HW259694   0.828  11.330  12.788
85933SOL     OW59695   3.095   0.157   2.287
85933SOL    HW159696   3.041   0.115   2.353
85933SOL    HW259697   3.180   0.112   2.293
85934SOL     OW59698   2.319   0.030   6.795
85934SOL    HW159699   2.355   0.063   6.713
85934SOL    HW259700   2.277   0.106   6.835
85935SOL     OW59701  10.815   2.251  12.941
85935SOL    HW159702  10.764   2.172  12.921
85935SOL    HW259703  10.798   2.269  13.033
85936SOL     OW59704   8.878   0.365   9.256
85936SOL    HW159705   8.865   0.450   9.215
85936SOL    HW259706   8.839   0.302   9.196
85937SOL     OW59707  10.795  12.447  10.662
85937SOL    HW159708  10.824  12.425  10.574
85937SOL    HW259709  10.730  12.381  10.684
85938SOL     OW59710   7.402   3.770  14.140
85938SOL    HW159711   7.388   3.841  14.077
85938SOL    HW259712   7.380   3.690  14.091
85939SOL     OW59713   0.082   6.886  14.264
85939SOL    HW159714   0.032   6.805  14.275
85939SOL    HW259715   0.078   6.927  14.351
85940SOL     OW59716  12.001  11.579  10.753
85940SOL    HW159717  11.923  11.600  10.702
85940SOL    HW259718  12.066  11.552  10.687
85941SOL     OW59719  13.737   1.671   2.944
85941SOL    HW159720  13.727   1.635   2.856
85941SOL    HW259721  13.650   1.703   2.967
85942SOL     OW59722  14.251  14.351  10.230
85942SOL    HW159723  14.255  14.446  10.219
85942SOL    HW259724  14.341  14.324  10.246
85943SOL     OW59725   4.492   5.662  13.258
85943SOL    HW159726   4.489   5.576  13.300
85943SOL    HW259727   4.520   5.644  13.168
85944SOL     OW59728   1.129  13.170   4.970
85944SOL    HW159729   1.114  13.152   5.063
85944SOL    HW259730   1.128  13.084   4.928
85945SOL     OW59731  10.214   5.926   0.406
85945SOL    HW159732  10.281   5.858   0.409
85945SOL    HW259733  10.258   6.000   0.363
85946SOL     OW59734   8.250   3.617   0.046
85946SOL    HW159735   8.284   3.627  14.839
85946SOL    HW259736   8.161   3.654   0.042
85947SOL     OW59737   0.203   8.500  12.786
85947SOL    HW159738   0.152   8.433  12.832
85947SOL    HW259739   0.248   8.548  12.856
85948SOL     OW59740  11.385   4.476  10.098
85948SOL    HW159741  11.416   4.468  10.008
85948SOL    HW259742  11.377   4.386  10.128
85949SOL     OW59743   3.159  11.744   3.130
85949SOL    HW159744   3.075  11.770   3.167
85949SOL    HW259745   3.141  11.660   3.087
85950SOL     OW59746   9.931  14.454   4.985
85950SOL    HW159747   9.859  14.442   4.923
85950SOL    HW259748   9.890  14.496   5.061
85951SOL     OW59749  13.298   4.624   9.488
85951SOL    HW159750  13.305   4.564   9.563
85951SOL    HW259751  13.259   4.703   9.525
85952SOL     OW59752  11.848   4.586  13.718
85952SOL    HW159753  11.757   4.571  13.692
85952SOL    HW259754  11.875   4.664  13.668
85953SOL     OW59755   7.097   2.371  12.367
85953SOL    HW159756   7.121   2.458  12.399
85953SOL    HW259757   7.177   2.319  12.378
85954SOL     OW59758  13.178   0.028   8.654
85954SOL    HW159759  13.130  14.832   8.627
85954SOL    HW259760  13.173   0.027   8.750
85955SOL     OW59761   4.432   5.995   4.482
85955SOL    HW159762   4.499   5.926   4.478
85955SOL    HW259763   4.370   5.964   4.547
85956SOL     OW59764   6.723   2.008   6.596
85956SOL    HW159765   6.798   1.963   6.635
85956SOL    HW259766   6.694   1.950   6.526
85957SOL     OW59767  12.702  13.585   7.147
85957SOL    HW159768  12.646  13.569   7.071
85957SOL    HW259769  12.719  13.679   7.146
85958SOL     OW59770   6.397   4.168   6.156
85958SOL    HW159771   6.483   4.125   6.152
85958SOL    HW259772   6.337   4.098   6.183
85959SOL     OW59773  11.542   4.801   1.352
85959SOL    HW159774  11.519   4.875   1.408
85959SOL    HW259775  11.617   4.761   1.396
85960SOL     OW59776  14.696   1.975  11.778
85960SOL    HW159777  14.657   1.925  11.850
85960SOL    HW259778  14.789   1.980  11.800
85961SOL     OW59779   6.853   5.356   6.888
85961SOL    HW159780   6.918   5.324   6.950
85961SOL    HW259781   6.797   5.414   6.940
85962SOL     OW59782   0.070   7.080   2.619
85962SOL    HW159783   0.116   7.057   2.538
85962SOL    HW259784   0.132   7.134   2.668
85963SOL     OW59785  14.330  10.805  14.191
85963SOL    HW159786  14.415  10.846  14.175
85963SOL    HW259787  14.295  10.852  14.267
85964SOL     OW59788  10.144   6.701   5.601
85964SOL    HW159789  10.151   6.769   5.668
85964SOL    HW259790  10.196   6.733   5.528
85965SOL     OW59791  14.090   9.141   5.575
85965SOL    HW159792  14.158   9.183   5.628
85965SOL    HW259793  14.016   9.202   5.579
85966SOL     OW59794  12.377  13.626   2.935
85966SOL    HW159795  12.337  13.547   2.901
85966SOL    HW259796  12.314  13.660   2.998
85967SOL     OW59797  11.381  12.748  11.300
85967SOL    HW159798  11.428  12.676  11.342
85967SOL    HW259799  11.298  12.709  11.273
85968SOL     OW59800   5.239   9.844   7.502
85968SOL    HW159801   5.307   9.899   7.464
85968SOL    HW259802   5.268   9.828   7.592
85969SOL     OW59803   5.231   8.714  11.292
85969SOL    HW159804   5.213   8.770  11.218
85969SOL    HW259805   5.323   8.732  11.314
85970SOL     OW59806  11.002  10.863  11.701
85970SOL    HW159807  11.078  10.922  11.706
85970SOL    HW259808  11.007  10.810  11.780
85971SOL     OW59809   4.436   0.315   1.358
85971SOL    HW159810   4.512   0.258   1.346
85971SOL    HW259811   4.406   0.296   1.447
85972SOL     OW59812  10.397   4.111   5.835
85972SOL    HW159813  10.456   4.164   5.888
85972SOL    HW259814  10.383   4.163   5.756
85973SOL     OW59815   2.692  11.833  11.102
85973SOL    HW159816   2.710  11.741  11.083
85973SOL    HW259817   2.761  11.881  11.055
85974SOL     OW59818   9.632   1.850   8.038
85974SOL    HW159819   9.609   1.759   8.058
85974SOL    HW259820   9.696   1.844   7.968
85975SOL     OW59821   5.584  14.256  10.477
85975SOL    HW159822   5.558  14.258  10.569
85975SOL    HW259823   5.563  14.168  10.447
85976SOL     OW59824  13.949   0.903   9.643
85976SOL    HW159825  13.997   0.836   9.691
85976SOL    HW259826  14.006   0.924   9.569
85977SOL     OW59827   3.302   7.022   9.527
85977SOL    HW159828   3.237   7.016   9.596
85977SOL    HW259829   3.344   7.107   9.540
85978SOL     OW59830   2.784   6.202  10.573
85978SOL    HW159831   2.776   6.162  10.660
85978SOL    HW259832   2.794   6.128  10.513
85979SOL     OW59833   3.325  13.259   6.329
85979SOL    HW159834   3.291  13.341   6.292
85979SOL    HW259835   3.247  13.211   6.357
85980SOL     OW59836  13.632  11.620  12.251
85980SOL    HW159837  13.609  11.657  12.336
85980SOL    HW259838  13.570  11.659  12.190
85981SOL     OW59839   6.859  11.328   5.746
85981SOL    HW159840   6.929  11.360   5.689
85981SOL    HW259841   6.897  11.252   5.790
85982SOL     OW59842  11.760  10.072   0.753
85982SOL    HW159843  11.852  10.077   0.779
85982SOL    HW259844  11.763  10.058   0.658
85983SOL     OW59845   6.578  11.424  13.558
85983SOL    HW159846   6.604  11.414  13.650
85983SOL    HW259847   6.613  11.346  13.515
85984SOL     OW59848  14.818   9.610   6.173
85984SOL    HW159849  14.735   9.563   6.173
85984SOL    HW259850  14.796   9.699   6.198
85985SOL     OW59851   2.930   7.492  12.959
85985SOL    HW159852   2.906   7.427  13.026
85985SOL    HW259853   2.872   7.565  12.974
85986SOL     OW59854  10.388   6.312   7.384
85986SOL    HW159855  10.483   6.320   7.378
85986SOL    HW259856  10.355   6.346   7.301
85987SOL     OW59857  14.499   4.706   0.528
85987SOL    HW159858  14.408   4.686   0.551
85987SOL    HW259859  14.533   4.625   0.489
85988SOL     OW59860  12.474   7.345   1.455
85988SOL    HW159861  12.437   7.426   1.492
85988SOL    HW259862  12.432   7.275   1.506
85989SOL     OW59863   7.768   7.253   9.588
85989SOL    HW159864   7.682   7.235   9.549
85989SOL    HW259865   7.809   7.316   9.529
85990SOL     OW59866   8.232   7.526  14.336
85990SOL    HW159867   8.250   7.453  14.395
85990SOL    HW259868   8.293   7.594  14.363
85991SOL     OW59869  10.529   1.263  10.037
85991SOL    HW159870  10.468   1.194  10.062
85991SOL    HW259871  10.545   1.312  10.118
85992SOL     OW59872   3.790  14.186   0.076
85992SOL    HW159873   3.823  14.116   0.133
85992SOL    HW259874   3.868  14.223   0.035
85993SOL     OW59875   6.566   1.449   2.073
85993SOL    HW159876   6.612   1.367   2.090
85993SOL    HW259877   6.492   1.448   2.133
85994SOL     OW59878   4.829  14.849  13.709
85994SOL    HW159879   4.790  14.791  13.644
85994SOL    HW259880   4.879   0.030  13.657
85995SOL     OW59881  11.516  12.051  13.098
85995SOL    HW159882  11.564  11.973  13.126
85995SOL    HW259883  11.491  12.033  13.008
85996SOL     OW59884   8.147   7.365   5.840
85996SOL    HW159885   8.076   7.301   5.825
85996SOL    HW259886   8.226   7.319   5.814
85997SOL     OW59887   0.845  11.668   3.469
85997SOL    HW159888   0.876  11.610   3.399
85997SOL    HW259889   0.750  11.670   3.458
85998SOL     OW59890  14.389  13.776   7.632
85998SOL    HW159891  14.471  13.784   7.582
85998SOL    HW259892  14.356  13.689   7.610
85999SOL     OW59893   3.924   0.984  13.020
85999SOL    HW159894   3.840   1.026  13.040
85999SOL    HW259895   3.989   1.050  13.044
86000SOL     OW59896   1.751  12.275   7.996
86000SOL    HW159897   1.789  12.304   7.913
86000SOL    HW259898   1.794  12.329   8.062
86001SOL     OW59899   0.140   6.485   9.253
86001SOL    HW159900   0.142   6.403   9.303
86001SOL    HW259901   0.183   6.549   9.310
86002SOL     OW59902   3.188  10.407   6.348
86002SOL    HW159903   3.184  10.359   6.431
86002SOL    HW259904   3.120  10.474   6.356
86003SOL     OW59905   8.169   5.616   5.969
86003SOL    HW159906   8.173   5.576   5.882
86003SOL    HW259907   8.248   5.586   6.013
86004SOL     OW59908   0.502   0.453   2.742
86004SOL    HW159909   0.587   0.432   2.703
86004SOL    HW259910   0.492   0.389   2.812
86005SOL     OW59911  10.029   2.166   9.056
86005SOL    HW159912  10.063   2.197   9.140
86005SOL    HW259913  10.107   2.153   9.002
86006SOL     OW59914   0.193  10.043  11.392
86006SOL    HW159915   0.174  10.125  11.436
86006SOL    HW259916   0.142   9.978  11.440
86007SOL     OW59917   7.306  10.829   7.788
86007SOL    HW159918   7.268  10.803   7.705
86007SOL    HW259919   7.401  10.819   7.776
86008SOL     OW59920   6.127   1.367   0.352
86008SOL    HW159921   6.141   1.460   0.333
86008SOL    HW259922   6.094   1.366   0.442
86009SOL     OW59923   3.025   4.747   1.349
86009SOL    HW159924   2.960   4.706   1.406
86009SOL    HW259925   3.071   4.809   1.407
86010SOL     OW59926  10.483   6.366   4.418
86010SOL    HW159927  10.412   6.390   4.359
86010SOL    HW259928  10.556   6.344   4.361
86011SOL     OW59929  12.920   3.848   0.419
86011SOL    HW159930  12.832   3.877   0.443
86011SOL    HW259931  12.913   3.753   0.412
86012SOL     OW59932  11.312   9.099  14.216
86012SOL    HW159933  11.280   9.044  14.288
86012SOL    HW259934  11.272   9.184  14.231
86013SOL     OW59935   5.648   0.617  11.095
86013SOL    HW159936   5.600   0.601  11.176
86013SOL    HW259937   5.711   0.685  11.117
86014SOL     OW59938   9.499   1.229  13.337
86014SOL    HW159939   9.481   1.212  13.245
86014SOL    HW259940   9.487   1.144  13.380
86015SOL     OW59941  10.897  12.578  14.590
86015SOL    HW159942  10.913  12.661  14.546
86015SOL    HW259943  10.941  12.587  14.675
86016SOL     OW59944  10.739   2.382   8.372
86016SOL    HW159945  10.740   2.345   8.284
86016SOL    HW259946  10.679   2.457   8.366
86017SOL     OW59947   1.279  14.438   3.167
86017SOL    HW159948   1.244  14.349   3.171
86017SOL    HW259949   1.374  14.427   3.170
86018SOL     OW59950   4.840   6.739   9.203
86018SOL    HW159951   4.914   6.747   9.264
86018SOL    HW259952   4.778   6.681   9.247
86019SOL     OW59953  11.314  11.798  13.014
86019SOL    HW159954  11.252  11.731  12.986
86019SOL    HW259955  11.283  11.879  12.972
86020SOL     OW59956   9.272   0.394   1.501
86020SOL    HW159957   9.322   0.319   1.469
86020SOL    HW259958   9.194   0.355   1.541
86021SOL     OW59959   2.806  13.263   1.384
86021SOL    HW159960   2.826  13.268   1.478
86021SOL    HW259961   2.726  13.211   1.380
86022SOL     OW59962   0.653  13.052   1.641
86022SOL    HW159963   0.746  13.037   1.623
86022SOL    HW259964   0.613  12.965   1.638
86023SOL     OW59965   1.346  13.856   9.409
86023SOL    HW159966   1.380  13.876   9.497
86023SOL    HW259967   1.259  13.894   9.408
86024SOL     OW59968   6.746  12.074   8.127
86024SOL    HW159969   6.814  12.044   8.187
86024SOL    HW259970   6.791  12.087   8.044
86025SOL     OW59971  12.739   3.635   0.422
86025SOL    HW159972  12.713   3.659   0.333
86025SOL    HW259973  12.673   3.676   0.478
86026SOL     OW59974  10.456   4.916   6.730
86026SOL    HW159975  10.483   4.931   6.640
86026SOL    HW259976  10.413   4.998   6.757
86027SOL     OW59977  13.272   3.371   5.630
86027SOL    HW159978  13.354   3.322   5.625
86027SOL    HW259979  13.283   3.429   5.706
86028SOL     OW59980  11.530   9.213  10.738
86028SOL    HW159981  11.587   9.146  10.776
86028SOL    HW259982  11.444   9.195  10.775
86029SOL     OW59983  10.848   7.266  13.891
86029SOL    HW159984  10.803   7.293  13.811
86029SOL    HW259985  10.838   7.171  13.894
86030SOL     OW59986  11.223   8.901  14.356
86030SOL    HW159987  11.146   8.845  14.366
86030SOL    HW259988  11.270   8.892  14.439
86031SOL     OW59989   8.728  11.376   6.119
86031SOL    HW159990   8.770  11.392   6.034
86031SOL    HW259991   8.710  11.282   6.119
86032SOL     OW59992  11.305  11.742  11.802
86032SOL    HW159993  11.270  11.677  11.742
86032SOL    HW259994  11.399  11.721  11.809
86033SOL     OW59995   5.822   0.160  11.746
86033SOL    HW159996   5.915   0.155  11.768
86033SOL    HW259997   5.818   0.214  11.667
86034SOL     OW59998  14.362   7.351  12.661
86034SOL    HW159999  14.381   7.343  12.755
86034SOL    HW260000  14.442   7.388  12.624
86035SOL     OW60001   9.424   0.526  10.297
86035SOL    HW160002   9.440   0.447  10.350
86035SOL    HW260003   9.334   0.552  10.319
86036SOL     OW60004   1.261  10.778   3.151
86036SOL    HW160005   1.236  10.717   3.081
86036SOL    HW260006   1.243  10.730   3.232
86037SOL     OW60007  10.859   2.320   1.377
86037SOL    HW160008  10.886   2.254   1.313
86037SOL    HW260009  10.897   2.402   1.345
86038SOL     OW60010   3.162  14.661  14.265
86038SOL    HW160011   3.136  14.569  14.261
86038SOL    HW260012   3.258  14.659  14.271
86039SOL     OW60013   0.109   7.365   2.463
86039SOL    HW160014   0.175   7.407   2.518
86039SOL    HW260015   0.159   7.319   2.396
86040SOL     OW60016   2.874  11.951   0.516
86040SOL    HW160017   2.820  11.872   0.511
86040SOL    HW260018   2.948  11.932   0.459
86041SOL     OW60019  12.154  12.606  13.769
86041SOL    HW160020  12.239  12.569  13.744
86041SOL    HW260021  12.136  12.673  13.704
86042SOL     OW60022   4.402   4.078   2.746
86042SOL    HW160023   4.351   3.999   2.726
86042SOL    HW260024   4.407   4.125   2.663
86043SOL     OW60025   1.406  11.746   0.066
86043SOL    HW160026   1.360  11.665   0.086
86043SOL    HW260027   1.337  11.808   0.042
86044SOL     OW60028   7.631  14.010  14.353
86044SOL    HW160029   7.578  14.018  14.273
86044SOL    HW260030   7.570  14.032  14.424
86045SOL     OW60031   5.052   1.580   7.813
86045SOL    HW160032   4.992   1.653   7.802
86045SOL    HW260033   5.037   1.525   7.736
86046SOL     OW60034   9.850   2.192   4.704
86046SOL    HW160035   9.890   2.212   4.789
86046SOL    HW260036   9.834   2.098   4.707
86047SOL     OW60037   6.106   5.058   0.981
86047SOL    HW160038   6.119   5.125   1.048
86047SOL    HW260039   6.139   5.099   0.901
86048SOL     OW60040  10.621   7.712   5.314
86048SOL    HW160041  10.700   7.765   5.300
86048SOL    HW260042  10.570   7.725   5.234
86049SOL     OW60043   2.182   8.892   1.141
86049SOL    HW160044   2.139   8.949   1.077
86049SOL    HW260045   2.238   8.951   1.192
86050SOL     OW60046  13.970   6.676  12.897
86050SOL    HW160047  13.997   6.679  12.989
86050SOL    HW260048  13.985   6.764  12.865
86051SOL     OW60049   1.323   1.686  10.783
86051SOL    HW160050   1.401   1.665  10.834
86051SOL    HW260051   1.353   1.686  10.692
86052SOL     OW60052  13.784  13.815   5.334
86052SOL    HW160053  13.689  13.811   5.342
86052SOL    HW260054  13.801  13.898   5.290
86053SOL     OW60055   0.736   8.915   8.390
86053SOL    HW160056   0.751   8.980   8.321
86053SOL    HW260057   0.809   8.854   8.382
86054SOL     OW60058  11.325  11.012  13.278
86054SOL    HW160059  11.366  10.957  13.212
86054SOL    HW260060  11.254  11.057  13.232
86055SOL     OW60061   7.879   0.668   2.127
86055SOL    HW160062   7.937   0.643   2.055
86055SOL    HW260063   7.839   0.586   2.155
86056SOL     OW60064  12.124   6.578  12.154
86056SOL    HW160065  12.072   6.611  12.227
86056SOL    HW260066  12.214   6.586  12.184
86057SOL     OW60067  14.759   0.274  11.440
86057SOL    HW160068  14.752   0.287  11.346
86057SOL    HW260069  14.851   0.253  11.455
86058SOL     OW60070   7.416  12.438   9.054
86058SOL    HW160071   7.486  12.470   8.998
86058SOL    HW260072   7.371  12.372   9.001
86059SOL     OW60073   5.258  10.853   8.151
86059SOL    HW160074   5.332  10.799   8.123
86059SOL    HW260075   5.181  10.800   8.133
86060SOL     OW60076   9.574  13.608  14.618
86060SOL    HW160077   9.583  13.602  14.713
86060SOL    HW260078   9.483  13.632  14.603
86061SOL     OW60079   7.591   5.453   0.972
86061SOL    HW160080   7.619   5.543   0.956
86061SOL    HW260081   7.634   5.402   0.904
86062SOL     OW60082   3.100   1.841  14.655
86062SOL    HW160083   3.066   1.848  14.744
86062SOL    HW260084   3.097   1.748  14.634
86063SOL     OW60085   6.529   2.460   1.662
86063SOL    HW160086   6.536   2.402   1.738
86063SOL    HW260087   6.587   2.533   1.682
86064SOL     OW60088   6.945  10.974   0.617
86064SOL    HW160089   6.852  10.973   0.640
86064SOL    HW260090   6.988  11.011   0.694
86065SOL     OW60091  13.770  10.262  10.050
86065SOL    HW160092  13.796  10.241   9.961
86065SOL    HW260093  13.826  10.207  10.105
86066SOL     OW60094  12.609   3.654   3.000
86066SOL    HW160095  12.656   3.574   2.974
86066SOL    HW260096  12.580   3.635   3.090
86067SOL     OW60097   1.147  12.140   5.103
86067SOL    HW160098   1.130  12.086   5.180
86067SOL    HW260099   1.242  12.135   5.090
86068SOL     OW60100   2.932  14.717   7.043
86068SOL    HW160101   2.976  14.642   7.003
86068SOL    HW260102   2.923  14.693   7.135
86069SOL     OW60103   3.810   6.990   2.721
86069SOL    HW160104   3.824   6.897   2.705
86069SOL    HW260105   3.806   7.030   2.634
86070SOL     OW60106   0.720   6.552   5.101
86070SOL    HW160107   0.809   6.544   5.067
86070SOL    HW260108   0.701   6.465   5.138
86071SOL     OW60109   0.713   1.903   5.329
86071SOL    HW160110   0.720   1.998   5.331
86071SOL    HW260111   0.656   1.884   5.255
86072SOL     OW60112  14.075   8.876   5.086
86072SOL    HW160113  13.986   8.897   5.058
86072SOL    HW260114  14.073   8.783   5.106
86073SOL     OW60115   7.315   9.285   0.893
86073SOL    HW160116   7.322   9.208   0.949
86073SOL    HW260117   7.282   9.251   0.810
86074SOL     OW60118  13.074   5.208  13.503
86074SOL    HW160119  13.121   5.260  13.568
86074SOL    HW260120  13.050   5.271  13.435
86075SOL     OW60121   1.814  12.010   0.058
86075SOL    HW160122   1.901  12.036   0.027
86075SOL    HW260123   1.808  12.048   0.146
86076SOL     OW60124  14.075   7.940  14.542
86076SOL    HW160125  13.994   7.953  14.591
86076SOL    HW260126  14.110   8.028  14.527
86077SOL     OW60127   8.920  11.762   1.445
86077SOL    HW160128   8.955  11.675   1.464
86077SOL    HW260129   8.991  11.822   1.470
86078SOL     OW60130  11.162   6.199  14.161
86078SOL    HW160131  11.165   6.179  14.068
86078SOL    HW260132  11.171   6.114  14.204
86079SOL     OW60133  11.668   0.127  10.190
86079SOL    HW160134  11.620   0.058  10.236
86079SOL    HW260135  11.613   0.205  10.199
86080SOL     OW60136   2.693  11.783   6.948
86080SOL    HW160137   2.737  11.860   6.986
86080SOL    HW260138   2.748  11.709   6.975
86081SOL     OW60139  13.593   5.239  13.767
86081SOL    HW160140  13.554   5.191  13.841
86081SOL    HW260141  13.590   5.331  13.794
86082SOL     OW60142   8.241   5.092   6.762
86082SOL    HW160143   8.320   5.043   6.787
86082SOL    HW260144   8.248   5.174   6.810
86083SOL     OW60145   9.404  10.339   1.289
86083SOL    HW160146   9.481  10.367   1.337
86083SOL    HW260147   9.335  10.332   1.355
86084SOL     OW60148   7.237   8.392   7.604
86084SOL    HW160149   7.249   8.486   7.593
86084SOL    HW260150   7.295   8.353   7.538
86085SOL     OW60151  13.701   4.864  12.094
86085SOL    HW160152  13.666   4.869  12.005
86085SOL    HW260153  13.624   4.870  12.150
86086SOL     OW60154   9.760   9.074   4.620
86086SOL    HW160155   9.750   9.123   4.538
86086SOL    HW260156   9.825   9.008   4.600
86087SOL     OW60157   2.218   8.734   7.136
86087SOL    HW160158   2.193   8.814   7.182
86087SOL    HW260159   2.166   8.734   7.056
86088SOL     OW60160   8.541  14.792   0.697
86088SOL    HW160161   8.530   0.004   0.686
86088SOL    HW260162   8.570  14.760   0.612
86089SOL     OW60163   5.509   1.036   9.328
86089SOL    HW160164   5.503   0.986   9.410
86089SOL    HW260165   5.442   0.997   9.272
86090SOL     OW60166  10.740  13.817   8.528
86090SOL    HW160167  10.723  13.863   8.446
86090SOL    HW260168  10.653  13.794   8.561
86091SOL     OW60169   0.888   4.200  13.936
86091SOL    HW160170   0.958   4.253  13.972
86091SOL    HW260171   0.897   4.209  13.841
86092SOL     OW60172   6.131   8.810   3.202
86092SOL    HW160173   6.177   8.774   3.126
86092SOL    HW260174   6.073   8.877   3.165
86093SOL     OW60175  14.154   1.870   6.018
86093SOL    HW160176  14.177   1.953   5.976
86093SOL    HW260177  14.237   1.827   6.034
86094SOL     OW60178   2.093  13.324   7.851
86094SOL    HW160179   2.121  13.388   7.786
86094SOL    HW260180   2.155  13.333   7.923
86095SOL     OW60181  12.732   9.667   0.298
86095SOL    HW160182  12.783   9.730   0.246
86095SOL    HW260183  12.685   9.615   0.233
86096SOL     OW60184   0.711   7.774   7.524
86096SOL    HW160185   0.731   7.681   7.540
86096SOL    HW260186   0.629   7.788   7.570
86097SOL     OW60187   9.543   1.525   2.469
86097SOL    HW160188   9.554   1.588   2.399
86097SOL    HW260189   9.501   1.450   2.428
86098SOL     OW60190   1.668  14.713   7.798
86098SOL    HW160191   1.738  14.660   7.837
86098SOL    HW260192   1.699  14.803   7.805
86099SOL     OW60193   8.628  11.507   8.685
86099SOL    HW160194   8.578  11.443   8.736
86099SOL    HW260195   8.619  11.589   8.734
86100SOL     OW60196   7.720   4.612  11.915
86100SOL    HW160197   7.782   4.571  11.975
86100SOL    HW260198   7.646   4.638  11.969
86101SOL     OW60199  10.801   8.679   9.813
86101SOL    HW160200  10.890   8.659   9.784
86101SOL    HW260201  10.805   8.671   9.909
86102SOL     OW60202  11.250  14.210  14.034
86102SOL    HW160203  11.175  14.223  14.092
86102SOL    HW260204  11.298  14.138  14.075
86103SOL     OW60205   0.725   4.606   9.910
86103SOL    HW160206   0.811   4.567   9.892
86103SOL    HW260207   0.702   4.574   9.997
86104SOL     OW60208   6.723   0.743   8.476
86104SOL    HW160209   6.698   0.698   8.557
86104SOL    HW260210   6.760   0.675   8.421
86105SOL     OW60211   6.772  14.170  14.742
86105SOL    HW160212   6.794  14.208  14.657
86105SOL    HW260213   6.695  14.218  14.771
86106SOL     OW60214   5.943  10.228   1.633
86106SOL    HW160215   5.908  10.179   1.559
86106SOL    HW260216   5.926  10.173   1.709
86107SOL     OW60217   8.924   0.164   7.578
86107SOL    HW160218   9.000   0.213   7.607
86107SOL    HW260219   8.909   0.192   7.488
86108SOL     OW60220   9.088   6.287   4.198
86108SOL    HW160221   9.108   6.349   4.129
86108SOL    HW260222   9.002   6.313   4.230
86109SOL     OW60223  12.617   8.049  11.860
86109SOL    HW160224  12.617   8.035  11.765
86109SOL    HW260225  12.693   8.105  11.876
86110SOL     OW60226   9.501  11.869  14.068
86110SOL    HW160227   9.573  11.932  14.067
86110SOL    HW260228   9.480  11.854  13.976
86111SOL     OW60229   6.497   2.354  10.790
86111SOL    HW160230   6.519   2.357  10.883
86111SOL    HW260231   6.403   2.370  10.787
86112SOL     OW60232  13.137  10.380  10.458
86112SOL    HW160233  13.160  10.456  10.405
86112SOL    HW260234  13.204  10.315  10.438
86113SOL     OW60235   3.424   6.811  13.350
86113SOL    HW160236   3.407   6.822  13.257
86113SOL    HW260237   3.383   6.887  13.391
86114SOL     OW60238   2.487   4.736  11.486
86114SOL    HW160239   2.537   4.759  11.564
86114SOL    HW260240   2.396   4.756  11.509
86115SOL     OW60241   2.088  13.185   8.602
86115SOL    HW160242   2.116  13.115   8.662
86115SOL    HW260243   2.074  13.140   8.519
86116SOL     OW60244   0.703   9.472   4.041
86116SOL    HW160245   0.791   9.501   4.018
86116SOL    HW260246   0.714   9.382   4.070
86117SOL     OW60247  13.398   3.087  11.917
86117SOL    HW160248  13.474   3.031  11.930
86117SOL    HW260249  13.330   3.027  11.885
86118SOL     OW60250  11.963   0.051  12.175
86118SOL    HW160251  12.046   0.099  12.177
86118SOL    HW260252  11.985  14.848  12.137
86119SOL     OW60253   4.346   5.477   9.209
86119SOL    HW160254   4.431   5.475   9.165
86119SOL    HW260255   4.293   5.537   9.155
86120SOL     OW60256   6.434  13.549   6.483
86120SOL    HW160257   6.339  13.549   6.499
86120SOL    HW260258   6.447  13.622   6.423
86121SOL     OW60259  14.694   5.985   6.457
86121SOL    HW160260  14.678   5.941   6.540
86121SOL    HW260261  14.638   5.939   6.394
86122SOL     OW60262   1.387   1.715   0.185
86122SOL    HW160263   1.370   1.624   0.160
86122SOL    HW260264   1.300   1.754   0.192
86123SOL     OW60265   4.191  12.429  12.621
86123SOL    HW160266   4.208  12.350  12.568
86123SOL    HW260267   4.246  12.496  12.581
86124SOL     OW60268   9.448   2.972   2.579
86124SOL    HW160269   9.465   2.880   2.561
86124SOL    HW260270   9.458   3.015   2.493
86125SOL     OW60271  13.162   3.772  13.552
86125SOL    HW160272  13.169   3.717  13.630
86125SOL    HW260273  13.069   3.793  13.545
86126SOL     OW60274  12.948   4.101   1.221
86126SOL    HW160275  12.938   4.096   1.126
86126SOL    HW260276  13.042   4.103   1.235
86127SOL     OW60277   1.120  10.886  12.972
86127SOL    HW160278   1.168  10.886  12.889
86127SOL    HW260279   1.165  10.951  13.026
86128SOL     OW60280  14.797   5.057   7.725
86128SOL    HW160281  14.807   5.085   7.816
86128SOL    HW260282  14.867   4.993   7.712
86129SOL     OW60283   1.442  10.234   6.594
86129SOL    HW160284   1.424  10.310   6.650
86129SOL    HW260285   1.425  10.158   6.650
86130SOL     OW60286   1.504  10.999   1.441
86130SOL    HW160287   1.410  11.012   1.455
86130SOL    HW260288   1.513  10.907   1.419
86131SOL     OW60289   1.242   2.569   4.158
86131SOL    HW160290   1.214   2.654   4.193
86131SOL    HW260291   1.302   2.591   4.087
86132SOL     OW60292   3.173   3.006  10.679
86132SOL    HW160293   3.115   2.940  10.641
86132SOL    HW260294   3.224   2.957  10.745
86133SOL     OW60295  13.530  10.525  10.693
86133SOL    HW160296  13.554  10.494  10.605
86133SOL    HW260297  13.443  10.564  10.681
86134SOL     OW60298   7.746   4.408   6.508
86134SOL    HW160299   7.712   4.480   6.455
86134SOL    HW260300   7.687   4.335   6.491
86135SOL     OW60301   5.400   1.522  10.892
86135SOL    HW160302   5.374   1.433  10.914
86135SOL    HW260303   5.325   1.558  10.843
86136SOL     OW60304  14.205   4.256   0.207
86136SOL    HW160305  14.267   4.328   0.209
86136SOL    HW260306  14.158   4.263   0.290
86137SOL     OW60307  14.696   7.821   3.278
86137SOL    HW160308  14.745   7.903   3.272
86137SOL    HW260309  14.692   7.789   3.187
86138SOL     OW60310   8.235  12.241   9.813
86138SOL    HW160311   8.160  12.215   9.866
86138SOL    HW260312   8.199  12.304   9.750
86139SOL     OW60313   6.434   7.097  12.938
86139SOL    HW160314   6.514   7.062  12.978
86139SOL    HW260315   6.370   7.096  13.009
86140SOL     OW60316  10.677   4.628   2.344
86140SOL    HW160317  10.657   4.722   2.342
86140SOL    HW260318  10.629   4.592   2.270
86141SOL     OW60319  13.111   5.277   3.891
86141SOL    HW160320  13.080   5.187   3.881
86141SOL    HW260321  13.072   5.324   3.818
86142SOL     OW60322   6.717   8.036   9.047
86142SOL    HW160323   6.788   8.096   9.026
86142SOL    HW260324   6.730   8.014   9.140
86143SOL     OW60325   2.464   5.052   4.661
86143SOL    HW160326   2.402   5.043   4.733
86143SOL    HW260327   2.509   4.968   4.657
86144SOL     OW60328   4.296   1.548   5.943
86144SOL    HW160329   4.218   1.500   5.918
86144SOL    HW260330   4.353   1.483   5.984
86145SOL     OW60331   8.065   2.574   2.633
86145SOL    HW160332   8.140   2.514   2.628
86145SOL    HW260333   8.011   2.551   2.557
86146SOL     OW60334  13.508  12.300   7.593
86146SOL    HW160335  13.462  12.370   7.547
86146SOL    HW260336  13.599  12.306   7.562
86147SOL     OW60337  13.902   2.355   8.817
86147SOL    HW160338  13.848   2.287   8.858
86147SOL    HW260339  13.908   2.329   8.725
86148SOL     OW60340  10.888   9.908  13.589
86148SOL    HW160341  10.959   9.883  13.649
86148SOL    HW260342  10.856   9.991  13.623
86149SOL     OW60343   0.030  12.617  12.811
86149SOL    HW160344   0.102  12.603  12.750
86149SOL    HW260345   0.021  12.712  12.815
86150SOL     OW60346   5.100  14.558   0.519
86150SOL    HW160347   5.193  14.541   0.508
86150SOL    HW260348   5.058  14.473   0.509
86151SOL     OW60349   3.050   1.969   0.281
86151SOL    HW160350   3.121   1.920   0.239
86151SOL    HW260351   3.052   1.941   0.372
86152SOL     OW60352   9.512   1.646   6.982
86152SOL    HW160353   9.531   1.656   7.075
86152SOL    HW260354   9.417   1.659   6.975
86153SOL     OW60355   5.748   1.486   4.507
86153SOL    HW160356   5.840   1.503   4.490
86153SOL    HW260357   5.720   1.432   4.433
86154SOL     OW60358   5.387   0.429   7.164
86154SOL    HW160359   5.473   0.438   7.123
86154SOL    HW260360   5.406   0.398   7.253
86155SOL     OW60361   3.033   7.083  11.857
86155SOL    HW160362   3.003   7.120  11.940
86155SOL    HW260363   3.114   7.037  11.880
86156SOL     OW60364  12.588  12.214   8.075
86156SOL    HW160365  12.513  12.159   8.051
86156SOL    HW260366  12.555  12.303   8.072
86157SOL     OW60367  12.811   6.418  11.233
86157SOL    HW160368  12.771   6.505  11.234
86157SOL    HW260369  12.883   6.424  11.296
86158SOL     OW60370  11.026   1.245   3.675
86158SOL    HW160371  10.957   1.179   3.674
86158SOL    HW260372  11.007   1.300   3.751
86159SOL     OW60373  11.343   8.829   5.957
86159SOL    HW160374  11.334   8.742   5.997
86159SOL    HW260375  11.265   8.837   5.901
86160SOL     OW60376   3.858   7.352   9.263
86160SOL    HW160377   3.864   7.269   9.215
86160SOL    HW260378   3.949   7.373   9.285
86161SOL     OW60379   8.553  11.671   8.957
86161SOL    HW160380   8.624  11.729   8.931
86161SOL    HW260381   8.480  11.696   8.900
86162SOL     OW60382  14.363  12.794   2.807
86162SOL    HW160383  14.400  12.825   2.724
86162SOL    HW260384  14.362  12.699   2.798
86163SOL     OW60385   8.764   8.511   0.547
86163SOL    HW160386   8.778   8.532   0.639
86163SOL    HW260387   8.699   8.575   0.517
86164SOL     OW60388  11.403  10.895   8.176
86164SOL    HW160389  11.401  10.800   8.189
86164SOL    HW260390  11.497  10.916   8.175
86165SOL     OW60391   1.196   3.977   9.264
86165SOL    HW160392   1.118   4.030   9.248
86165SOL    HW260393   1.198   3.963   9.358
86166SOL     OW60394   3.033   4.954  10.245
86166SOL    HW160395   2.939   4.942  10.236
86166SOL    HW260396   3.072   4.885  10.192
86167SOL     OW60397  10.354   9.366   3.488
86167SOL    HW160398  10.422   9.430   3.467
86167SOL    HW260399  10.288   9.378   3.420
86168SOL     OW60400  11.537   7.174   2.417
86168SOL    HW160401  11.455   7.206   2.455
86168SOL    HW260402  11.605   7.224   2.462
86169SOL     OW60403  13.124   8.843   5.164
86169SOL    HW160404  13.132   8.810   5.254
86169SOL    HW260405  13.147   8.936   5.172
86170SOL     OW60406   5.718   2.832  14.608
86170SOL    HW160407   5.643   2.796  14.656
86170SOL    HW260408   5.771   2.876  14.675
86171SOL     OW60409   6.759   7.930   1.581
86171SOL    HW160410   6.808   7.972   1.652
86171SOL    HW260411   6.781   7.981   1.503
86172SOL     OW60412   6.309  13.585   0.395
86172SOL    HW160413   6.329  13.506   0.447
86172SOL    HW260414   6.216  13.600   0.410
86173SOL     OW60415  10.511  14.248   2.897
86173SOL    HW160416  10.539  14.182   2.961
86173SOL    HW260417  10.540  14.213   2.813
86174SOL     OW60418   5.533   3.715   6.741
86174SOL    HW160419   5.454   3.734   6.792
86174SOL    HW260420   5.504   3.722   6.650
86175SOL     OW60421   0.471   1.398   3.015
86175SOL    HW160422   0.400   1.428   2.958
86175SOL    HW260423   0.429   1.385   3.100
86176SOL     OW60424  11.567   2.034  12.807
86176SOL    HW160425  11.616   1.969  12.857
86176SOL    HW260426  11.476   2.021  12.834
86177SOL     OW60427   9.331   7.815  13.859
86177SOL    HW160428   9.346   7.886  13.796
86177SOL    HW260429   9.364   7.850  13.942
86178SOL     OW60430   1.087   3.367   2.527
86178SOL    HW160431   1.027   3.377   2.601
86178SOL    HW260432   1.168   3.408   2.556
86179SOL     OW60433   1.732   0.245   0.760
86179SOL    HW160434   1.825   0.225   0.751
86179SOL    HW260435   1.692   0.162   0.783
86180SOL     OW60436   7.317  10.187  10.634
86180SOL    HW160437   7.283  10.116  10.688
86180SOL    HW260438   7.247  10.205  10.572
86181SOL     OW60439   6.210   5.344   8.274
86181SOL    HW160440   6.287   5.354   8.218
86181SOL    HW260441   6.241   5.291   8.348
86182SOL     OW60442  14.346   7.692   1.872
86182SOL    HW160443  14.266   7.640   1.877
86182SOL    HW260444  14.367   7.713   1.963
86183SOL     OW60445  13.778   3.029   3.244
86183SOL    HW160446  13.696   3.056   3.285
86183SOL    HW260447  13.780   2.934   3.257
86184SOL     OW60448   7.030   9.236  14.568
86184SOL    HW160449   7.113   9.237  14.616
86184SOL    HW260450   7.001   9.327  14.568
86185SOL     OW60451  14.687   0.260   1.626
86185SOL    HW160452  14.718   0.281   1.537
86185SOL    HW260453  14.765   0.266   1.681
86186SOL     OW60454  12.657  10.363   9.503
86186SOL    HW160455  12.710  10.290   9.473
86186SOL    HW260456  12.607  10.390   9.426
86187SOL     OW60457   1.615   9.841  11.502
86187SOL    HW160458   1.567   9.769  11.542
86187SOL    HW260459   1.658   9.802  11.426
86188SOL     OW60460  12.261   3.370   1.614
86188SOL    HW160461  12.267   3.414   1.529
86188SOL    HW260462  12.167   3.357   1.628
86189SOL     OW60463  13.753  13.541   5.209
86189SOL    HW160464  13.820  13.608   5.206
86189SOL    HW260465  13.734  13.530   5.302
86190SOL     OW60466   5.848  12.458   6.630
86190SOL    HW160467   5.906  12.439   6.555
86190SOL    HW260468   5.875  12.545   6.659
86191SOL     OW60469   1.534   2.667   8.452
86191SOL    HW160470   1.484   2.747   8.464
86191SOL    HW260471   1.617   2.683   8.497
86192SOL     OW60472   7.556   6.518   7.185
86192SOL    HW160473   7.645   6.507   7.219
86192SOL    HW260474   7.522   6.594   7.233
86193SOL     OW60475  11.812  11.549   5.731
86193SOL    HW160476  11.822  11.602   5.651
86193SOL    HW260477  11.838  11.608   5.801
86194SOL     OW60478   0.452   1.316   8.562
86194SOL    HW160479   0.501   1.368   8.625
86194SOL    HW260480   0.435   1.233   8.607
86195SOL     OW60481   6.108  10.090   9.866
86195SOL    HW160482   6.063  10.172   9.844
86195SOL    HW260483   6.192  10.095   9.820
86196SOL     OW60484   5.918   1.823   8.478
86196SOL    HW160485   5.872   1.897   8.518
86196SOL    HW260486   5.929   1.848   8.387
86197SOL     OW60487   2.099   6.339  10.901
86197SOL    HW160488   2.007   6.355  10.919
86197SOL    HW260489   2.145   6.409  10.948
86198SOL     OW60490   6.970   0.918   1.605
86198SOL    HW160491   6.989   0.998   1.556
86198SOL    HW260492   7.046   0.862   1.589
86199SOL     OW60493   6.165  12.587  13.037
86199SOL    HW160494   6.171  12.540  12.954
86199SOL    HW260495   6.254  12.617  13.054
86200SOL     OW60496   3.367   8.137  14.046
86200SOL    HW160497   3.376   8.226  14.010
86200SOL    HW260498   3.453   8.118  14.084
86201SOL     OW60499  13.684  14.161   7.736
86201SOL    HW160500  13.727  14.242   7.764
86201SOL    HW260501  13.707  14.152   7.644
86202SOL     OW60502   4.442  14.790  10.264
86202SOL    HW160503   4.360  14.762  10.305
86202SOL    HW260504   4.508  14.776  10.332
86203SOL     OW60505   4.115  13.739   7.863
86203SOL    HW160506   4.030  13.749   7.821
86203SOL    HW260507   4.168  13.692   7.799
86204SOL     OW60508   4.556   6.375   3.301
86204SOL    HW160509   4.477   6.347   3.347
86204SOL    HW260510   4.621   6.387   3.371
86205SOL     OW60511  10.020  12.844   9.347
86205SOL    HW160512  10.093  12.899   9.376
86205SOL    HW260513  10.061  12.764   9.316
86206SOL     OW60514  11.776   3.112   9.330
86206SOL    HW160515  11.775   3.165   9.410
86206SOL    HW260516  11.838   3.042   9.349
86207SOL     OW60517   0.874   1.683  10.978
86207SOL    HW160518   0.827   1.712  10.900
86207SOL    HW260519   0.915   1.762  11.012
86208SOL     OW60520  12.226   6.775  13.708
86208SOL    HW160521  12.294   6.833  13.674
86208SOL    HW260522  12.270   6.720  13.773
86209SOL     OW60523   4.415   2.324  10.692
86209SOL    HW160524   4.323   2.330  10.665
86209SOL    HW260525   4.455   2.403  10.657
86210SOL     OW60526   5.951   9.898   8.460
86210SOL    HW160527   5.963   9.854   8.376
86210SOL    HW260528   5.899   9.976   8.440
86211SOL     OW60529   4.061   8.095  11.541
86211SOL    HW160530   4.015   8.178  11.551
86211SOL    HW260531   4.018   8.036  11.603
86212SOL     OW60532   9.896  13.195   5.980
86212SOL    HW160533   9.977  13.194   5.929
86212SOL    HW260534   9.923  13.180   6.070
86213SOL     OW60535  13.630  12.803   8.804
86213SOL    HW160536  13.677  12.857   8.740
86213SOL    HW260537  13.537  12.823   8.789
86214SOL     OW60538   5.420   9.779  13.322
86214SOL    HW160539   5.438   9.859  13.273
86214SOL    HW260540   5.378   9.809  13.403
86215SOL     OW60541   5.032  14.404   2.670
86215SOL    HW160542   5.016  14.322   2.718
86215SOL    HW260543   5.036  14.471   2.738
86216SOL     OW60544   1.825  14.301   6.095
86216SOL    HW160545   1.768  14.233   6.059
86216SOL    HW260546   1.907  14.255   6.115
86217SOL     OW60547   5.185  14.876   8.583
86217SOL    HW160548   5.169  14.782   8.574
86217SOL    HW260549   5.184   0.027   8.493
86218SOL     OW60550  12.539   7.499   2.481
86218SOL    HW160551  12.510   7.411   2.506
86218SOL    HW260552  12.566   7.539   2.564
86219SOL     OW60553   5.418   6.419   0.801
86219SOL    HW160554   5.458   6.504   0.817
86219SOL    HW260555   5.473   6.379   0.733
86220SOL     OW60556   6.315   6.098   8.916
86220SOL    HW160557   6.293   6.021   8.864
86220SOL    HW260558   6.311   6.069   9.007
86221SOL     OW60559   3.606   1.362  11.980
86221SOL    HW160560   3.702   1.370  11.986
86221SOL    HW260561   3.583   1.410  11.901
86222SOL     OW60562   4.661  14.375  13.753
86222SOL    HW160563   4.691  14.466  13.764
86222SOL    HW260564   4.569  14.377  13.781
86223SOL     OW60565   2.198   4.567   0.283
86223SOL    HW160566   2.269   4.510   0.255
86223SOL    HW260567   2.157   4.595   0.201
86224SOL     OW60568   6.687   4.841   7.704
86224SOL    HW160569   6.718   4.870   7.618
86224SOL    HW260570   6.614   4.900   7.724
86225SOL     OW60571   6.328   9.249   6.790
86225SOL    HW160572   6.244   9.263   6.745
86225SOL    HW260573   6.378   9.329   6.771
86226SOL     OW60574   7.269   2.608  14.752
86226SOL    HW160575   7.318   2.690  14.741
86226SOL    HW260576   7.178   2.634  14.741
86227SOL     OW60577   4.254   4.792  12.263
86227SOL    HW160578   4.313   4.867  12.274
86227SOL    HW260579   4.177   4.829  12.218
86228SOL     OW60580  14.654  14.540   8.738
86228SOL    HW160581  14.731  14.522   8.793
86228SOL    HW260582  14.690  14.562   8.652
86229SOL     OW60583  13.350  10.071   8.703
86229SOL    HW160584  13.267  10.080   8.750
86229SOL    HW260585  13.370  10.159   8.673
86230SOL     OW60586   9.509   8.074   1.263
86230SOL    HW160587   9.481   7.993   1.221
86230SOL    HW260588   9.604   8.072   1.258
86231SOL     OW60589  12.781   4.140   7.537
86231SOL    HW160590  12.870   4.142   7.571
86231SOL    HW260591  12.729   4.103   7.608
86232SOL     OW60592  12.458   7.140  14.269
86232SOL    HW160593  12.529   7.081  14.244
86232SOL    HW260594  12.459   7.208  14.201
86233SOL     OW60595  14.093   6.353   7.659
86233SOL    HW160596  14.186   6.372   7.671
86233SOL    HW260597  14.050   6.392   7.735
86234SOL     OW60598   6.487  13.490   5.364
86234SOL    HW160599   6.458  13.532   5.283
86234SOL    HW260600   6.537  13.557   5.409
86235SOL     OW60601  12.817  13.961  13.442
86235SOL    HW160602  12.848  13.939  13.530
86235SOL    HW260603  12.896  13.955  13.388
86236SOL     OW60604  12.596  12.715  12.225
86236SOL    HW160605  12.530  12.778  12.195
86236SOL    HW260606  12.661  12.712  12.155
86237SOL     OW60607   5.765   1.976  10.004
86237SOL    HW160608   5.767   2.030  10.084
86237SOL    HW260609   5.761   1.886  10.036
86238SOL     OW60610   6.688   2.747  13.998
86238SOL    HW160611   6.717   2.838  14.006
86238SOL    HW260612   6.619   2.750  13.931
86239SOL     OW60613   8.348  10.996   3.635
86239SOL    HW160614   8.288  10.985   3.708
86239SOL    HW260615   8.412  11.060   3.666
86240SOL     OW60616   4.975  13.983   9.384
86240SOL    HW160617   5.010  14.009   9.469
86240SOL    HW260618   4.986  14.061   9.329
86241SOL     OW60619   4.280   9.714   3.768
86241SOL    HW160620   4.316   9.760   3.692
86241SOL    HW260621   4.285   9.778   3.839
86242SOL     OW60622  13.098  14.170   5.898
86242SOL    HW160623  13.077  14.157   5.805
86242SOL    HW260624  13.024  14.131   5.945
86243SOL     OW60625   8.579  12.591  10.127
86243SOL    HW160626   8.632  12.518  10.158
86243SOL    HW260627   8.642  12.647  10.080
86244SOL     OW60628   0.008   6.902   0.138
86244SOL    HW160629   0.003   6.883   0.045
86244SOL    HW260630   0.080   6.849   0.170
86245SOL     OW60631   8.331   2.389  10.381
86245SOL    HW160632   8.261   2.418  10.322
86245SOL    HW260633   8.286   2.371  10.464
86246SOL     OW60634   7.892   2.558   9.885
86246SOL    HW160635   7.830   2.534   9.816
86246SOL    HW260636   7.930   2.641   9.854
86247SOL     OW60637   0.758  12.158  13.835
86247SOL    HW160638   0.782  12.109  13.913
86247SOL    HW260639   0.779  12.249  13.856
86248SOL     OW60640   6.579   3.884   3.358
86248SOL    HW160641   6.585   3.860   3.265
86248SOL    HW260642   6.625   3.968   3.364
86249SOL     OW60643   0.178  13.550  14.572
86249SOL    HW160644   0.263  13.575  14.610
86249SOL    HW260645   0.193  13.554  14.478
86250SOL     OW60646   4.902   7.806   6.346
86250SOL    HW160647   4.981   7.858   6.332
86250SOL    HW260648   4.830   7.868   6.333
86251SOL     OW60649  13.888   2.771   2.195
86251SOL    HW160650  13.810   2.817   2.227
86251SOL    HW260651  13.862   2.679   2.193
86252SOL     OW60652   1.771   9.044   8.965
86252SOL    HW160653   1.761   9.099   8.888
86252SOL    HW260654   1.849   9.078   9.009
86253SOL     OW60655   4.701   7.340  13.475
86253SOL    HW160656   4.619   7.312  13.434
86253SOL    HW260657   4.730   7.413  13.420
86254SOL     OW60658   4.417  14.364  12.247
86254SOL    HW160659   4.443  14.430  12.184
86254SOL    HW260660   4.426  14.406  12.332
86255SOL     OW60661   1.349   2.051  11.277
86255SOL    HW160662   1.355   2.026  11.185
86255SOL    HW260663   1.255   2.060  11.294
86256SOL     OW60664  14.790   9.043   2.916
86256SOL    HW160665  14.772   8.964   2.966
86256SOL    HW260666  14.728   9.108   2.949
86257SOL     OW60667   3.960   5.669  12.796
86257SOL    HW160668   3.943   5.621  12.877
86257SOL    HW260669   4.056   5.665  12.786
86258SOL     OW60670  12.215   9.084  10.920
86258SOL    HW160671  12.196   9.061  10.829
86258SOL    HW260672  12.155   9.030  10.971
86259SOL     OW60673   5.516  14.315  10.735
86259SOL    HW160674   5.578  14.384  10.757
86259SOL    HW260675   5.514  14.259  10.812
86260SOL     OW60676  10.424   8.806   4.296
86260SOL    HW160677  10.419   8.790   4.391
86260SOL    HW260678  10.335   8.833   4.272
86261SOL     OW60679   0.852   1.501   7.513
86261SOL    HW160680   0.879   1.592   7.528
86261SOL    HW260681   0.918   1.449   7.559
86262SOL     OW60682  13.153   2.258   7.519
86262SOL    HW160683  13.067   2.300   7.522
86262SOL    HW260684  13.134   2.164   7.514
86263SOL     OW60685  10.021   3.665  11.160
86263SOL    HW160686  10.005   3.753  11.126
86263SOL    HW260687   9.970   3.607  11.103
86264SOL     OW60688  10.359   5.970  11.964
86264SOL    HW160689  10.322   6.023  11.893
86264SOL    HW260690  10.446   6.009  11.979
86265SOL     OW60691  14.608   7.321   6.322
86265SOL    HW160692  14.611   7.411   6.290
86265SOL    HW260693  14.698   7.290   6.313
86266SOL     OW60694   2.960   6.812   7.895
86266SOL    HW160695   3.029   6.799   7.960
86266SOL    HW260696   2.926   6.724   7.877
86267SOL     OW60697  12.243  14.617   4.442
86267SOL    HW160698  12.152  14.587   4.444
86267SOL    HW260699  12.252  14.661   4.358
86268SOL     OW60700   1.016  11.834   7.770
86268SOL    HW160701   0.984  11.915   7.731
86268SOL    HW260702   1.107  11.828   7.743
86269SOL     OW60703   2.657   2.748   1.612
86269SOL    HW160704   2.611   2.720   1.691
86269SOL    HW260705   2.750   2.735   1.632
86270SOL     OW60706   7.619   8.397   2.094
86270SOL    HW160707   7.528   8.371   2.083
86270SOL    HW260708   7.656   8.396   2.006
86271SOL     OW60709   8.861   1.181  12.654
86271SOL    HW160710   8.814   1.154  12.734
86271SOL    HW260711   8.912   1.257  12.681
86272SOL     OW60712   5.744   0.341   6.212
86272SOL    HW160713   5.811   0.332   6.144
86272SOL    HW260714   5.727   0.251   6.240
86273SOL     OW60715  10.196   8.375   0.607
86273SOL    HW160716  10.276   8.331   0.576
86273SOL    HW260717  10.218   8.468   0.605
86274SOL     OW60718   5.073   6.634   7.575
86274SOL    HW160719   5.102   6.654   7.664
86274SOL    HW260720   5.084   6.716   7.527
86275SOL     OW60721   5.063   2.454   9.830
86275SOL    HW160722   4.994   2.425   9.770
86275SOL    HW260723   5.026   2.530   9.875
86276SOL     OW60724   5.228  13.448   8.012
86276SOL    HW160725   5.151  13.437   8.069
86276SOL    HW260726   5.192  13.486   7.932
86277SOL     OW60727   6.466   9.838  14.845
86277SOL    HW160728   6.426   9.810  14.763
86277SOL    HW260729   6.539   9.893  14.818
86278SOL     OW60730   6.721  11.711   8.898
86278SOL    HW160731   6.667  11.768   8.953
86278SOL    HW260732   6.668  11.632   8.886
86279SOL     OW60733   2.555  11.278  13.027
86279SOL    HW160734   2.640  11.263  12.986
86279SOL    HW260735   2.543  11.203  13.085
86280SOL     OW60736   0.640   1.681   6.896
86280SOL    HW160737   0.586   1.607   6.924
86280SOL    HW260738   0.611   1.754   6.949
86281SOL     OW60739  13.760   2.660  10.416
86281SOL    HW160740  13.772   2.583  10.361
86281SOL    HW260741  13.705   2.719  10.363
86282SOL     OW60742   7.865  14.586  11.162
86282SOL    HW160743   7.815  14.505  11.165
86282SOL    HW260744   7.948  14.565  11.205
86283SOL     OW60745  13.850   2.313  11.324
86283SOL    HW160746  13.878   2.224  11.343
86283SOL    HW260747  13.869   2.325  11.231
86284SOL     OW60748  12.728   7.416   7.063
86284SOL    HW160749  12.729   7.321   7.066
86284SOL    HW260750  12.644   7.438   7.021
86285SOL     OW60751   5.917  10.405   7.740
86285SOL    HW160752   5.876  10.445   7.664
86285SOL    HW260753   5.854  10.340   7.771
86286SOL     OW60754   2.943  10.128  12.179
86286SOL    HW160755   2.928  10.222  12.194
86286SOL    HW260756   2.887  10.106  12.105
86287SOL     OW60757   8.990  13.361  13.147
86287SOL    HW160758   8.955  13.403  13.225
86287SOL    HW260759   9.082  13.343  13.168
86288SOL     OW60760   2.160   8.139   2.447
86288SOL    HW160761   2.206   8.222   2.449
86288SOL    HW260762   2.088   8.150   2.510
86289SOL     OW60763   7.255   7.604   9.016
86289SOL    HW160764   7.284   7.592   8.925
86289SOL    HW260765   7.267   7.518   9.057
86290SOL     OW60766   7.810  13.284  10.628
86290SOL    HW160767   7.895  13.321  10.653
86290SOL    HW260768   7.756  13.360  10.606
86291SOL     OW60769   4.636   6.943   4.293
86291SOL    HW160770   4.558   6.999   4.293
86291SOL    HW260771   4.708   7.002   4.319
86292SOL     OW60772   9.904   6.589   1.624
86292SOL    HW160773   9.925   6.532   1.698
86292SOL    HW260774   9.988   6.609   1.584
86293SOL     OW60775   9.967   8.510   6.055
86293SOL    HW160776   9.966   8.549   5.968
86293SOL    HW260777  10.034   8.558   6.103
86294SOL     OW60778   1.528   3.799   3.683
86294SOL    HW160779   1.579   3.741   3.739
86294SOL    HW260780   1.441   3.758   3.678
86295SOL     OW60781   8.278   0.543   3.793
86295SOL    HW160782   8.212   0.504   3.850
86295SOL    HW260783   8.277   0.636   3.815
86296SOL     OW60784   5.837   7.715   4.953
86296SOL    HW160785   5.834   7.624   4.925
86296SOL    HW260786   5.883   7.714   5.037
86297SOL     OW60787   4.091  12.455  13.551
86297SOL    HW160788   4.061  12.520  13.615
86297SOL    HW260789   4.035  12.379  13.567
86298SOL     OW60790   6.778   2.206   5.649
86298SOL    HW160791   6.775   2.261   5.727
86298SOL    HW260792   6.688   2.205   5.617
86299SOL     OW60793  11.388   9.403   8.298
86299SOL    HW160794  11.317   9.423   8.236
86299SOL    HW260795  11.413   9.313   8.277
86300SOL     OW60796  14.789   6.532   5.920
86300SOL    HW160797  14.838   6.466   5.871
86300SOL    HW260798  14.712   6.484   5.952
86301SOL     OW60799  10.870   8.904   7.497
86301SOL    HW160800  10.791   8.938   7.537
86301SOL    HW260801  10.844   8.820   7.459
86302SOL     OW60802   2.010   6.235  11.810
86302SOL    HW160803   1.945   6.218  11.742
86302SOL    HW260804   2.021   6.150  11.854
86303SOL     OW60805  11.506  10.727   8.870
86303SOL    HW160806  11.536  10.667   8.938
86303SOL    HW260807  11.508  10.675   8.790
86304SOL     OW60808   0.914   1.567   4.719
86304SOL    HW160809   0.886   1.522   4.798
86304SOL    HW260810   0.958   1.646   4.750
86305SOL     OW60811  10.935  10.905  12.221
86305SOL    HW160812  11.008  10.880  12.277
86305SOL    HW260813  10.896  10.981  12.263
86306SOL     OW60814  12.482   7.570  10.575
86306SOL    HW160815  12.425   7.535  10.644
86306SOL    HW260816  12.487   7.664  10.595
86307SOL     OW60817   9.006   5.013   1.526
86307SOL    HW160818   9.070   4.946   1.501
86307SOL    HW260819   9.040   5.048   1.609
86308SOL     OW60820   3.560   4.387   2.082
86308SOL    HW160821   3.490   4.340   2.127
86308SOL    HW260822   3.622   4.319   2.057
86309SOL     OW60823   8.526   4.281   6.010
86309SOL    HW160824   8.514   4.374   6.030
86309SOL    HW260825   8.479   4.235   6.079
86310SOL     OW60826  10.282   1.957   9.698
86310SOL    HW160827  10.343   1.970   9.770
86310SOL    HW260828  10.270   1.862   9.694
86311SOL     OW60829   8.286   0.847  13.961
86311SOL    HW160830   8.203   0.880  13.996
86311SOL    HW260831   8.264   0.819  13.872
86312SOL     OW60832   0.313   4.374   8.650
86312SOL    HW160833   0.379   4.351   8.584
86312SOL    HW260834   0.258   4.440   8.606
86313SOL     OW60835   2.032   3.390   8.299
86313SOL    HW160836   1.943   3.380   8.265
86313SOL    HW260837   2.083   3.418   8.223
86314SOL     OW60838  13.887   4.069   4.955
86314SOL    HW160839  13.842   4.144   4.993
86314SOL    HW260840  13.968   4.061   5.006
86315SOL     OW60841   2.138  14.717  11.491
86315SOL    HW160842   2.144  14.811  11.474
86315SOL    HW260843   2.121  14.678  11.405
86316SOL     OW60844  13.147  13.600   7.041
86316SOL    HW160845  13.136  13.692   7.064
86316SOL    HW260846  13.241  13.583   7.051
86317SOL     OW60847  11.247   1.817   4.111
86317SOL    HW160848  11.237   1.778   4.198
86317SOL    HW260849  11.237   1.743   4.051
86318SOL     OW60850   9.850   3.099  10.610
86318SOL    HW160851   9.936   3.080  10.572
86318SOL    HW260852   9.799   3.134  10.537
86319SOL     OW60853   0.515   0.915   5.501
86319SOL    HW160854   0.594   0.869   5.473
86319SOL    HW260855   0.536   1.008   5.489
86320SOL     OW60856   6.773   7.812  12.555
86320SOL    HW160857   6.756   7.742  12.493
86320SOL    HW260858   6.692   7.865  12.554
86321SOL     OW60859   2.681   4.066  10.441
86321SOL    HW160860   2.643   3.988  10.483
86321SOL    HW260861   2.716   4.118  10.513
86322SOL     OW60862   4.193   8.426   2.043
86322SOL    HW160863   4.123   8.420   2.108
86322SOL    HW260864   4.162   8.489   1.979
86323SOL     OW60865   3.728   5.488   3.799
86323SOL    HW160866   3.817   5.495   3.764
86323SOL    HW260867   3.685   5.569   3.770
86324SOL     OW60868  14.567   9.079   3.409
86324SOL    HW160869  14.506   9.086   3.482
86324SOL    HW260870  14.583   9.169   3.381
86325SOL     OW60871   4.329   2.088   2.746
86325SOL    HW160872   4.287   2.161   2.700
86325SOL    HW260873   4.371   2.128   2.822
86326SOL     OW60874   1.475   1.021  11.153
86326SOL    HW160875   1.506   1.108  11.175
86326SOL    HW260876   1.380   1.030  11.145
86327SOL     OW60877   5.154  14.792   9.872
86327SOL    HW160878   5.104  14.853   9.927
86327SOL    HW260879   5.237  14.836   9.857
86328SOL     OW60880  12.132  12.893  14.599
86328SOL    HW160881  12.206  12.926  14.548
86328SOL    HW260882  12.121  12.958  14.669
86329SOL     OW60883   6.021   7.881   1.305
86329SOL    HW160884   6.026   7.853   1.214
86329SOL    HW260885   5.973   7.811   1.349
86330SOL     OW60886  14.347  10.046   9.625
86330SOL    HW160887  14.418  10.075   9.568
86330SOL    HW260888  14.273  10.033   9.567
86331SOL     OW60889   0.697   0.405   2.561
86331SOL    HW160890   0.615   0.448   2.537
86331SOL    HW260891   0.763   0.474   2.558
86332SOL     OW60892  11.301  12.068   6.786
86332SOL    HW160893  11.285  11.983   6.745
86332SOL    HW260894  11.256  12.063   6.870
86333SOL     OW60895   1.360   9.995   9.834
86333SOL    HW160896   1.362   9.899   9.834
86333SOL    HW260897   1.281  10.017   9.883
86334SOL     OW60898   7.712   2.335  14.680
86334SOL    HW160899   7.640   2.273  14.689
86334SOL    HW260900   7.696   2.378  14.596
86335SOL     OW60901   1.147   8.019   1.949
86335SOL    HW160902   1.121   8.035   1.858
86335SOL    HW260903   1.126   8.100   1.995
86336SOL     OW60904  11.203   7.868  11.597
86336SOL    HW160905  11.226   7.877  11.505
86336SOL    HW260906  11.263   7.927  11.643
86337SOL     OW60907  10.206   0.561  10.081
86337SOL    HW160908  10.266   0.567  10.155
86337SOL    HW260909  10.145   0.634  10.093
86338SOL     OW60910   3.019  10.307   5.359
86338SOL    HW160911   3.075  10.231   5.342
86338SOL    HW260912   3.018  10.315   5.454
86339SOL     OW60913   3.789   9.827  13.379
86339SOL    HW160914   3.766   9.814  13.472
86339SOL    HW260915   3.884   9.827  13.378
86340SOL     OW60916   7.239   7.126  11.149
86340SOL    HW160917   7.163   7.104  11.095
86340SOL    HW260918   7.213   7.204  11.197
86341SOL     OW60919   9.619   3.119   4.526
86341SOL    HW160920   9.614   3.025   4.509
86341SOL    HW260921   9.712   3.140   4.517
86342SOL     OW60922   0.300  14.616   1.243
86342SOL    HW160923   0.342  14.680   1.184
86342SOL    HW260924   0.328  14.531   1.210
86343SOL     OW60925  13.054  13.194  12.500
86343SOL    HW160926  13.085  13.253  12.570
86343SOL    HW260927  13.126  13.191  12.438
86344SOL     OW60928   6.382   5.906   5.069
86344SOL    HW160929   6.294   5.916   5.105
86344SOL    HW260930   6.418   5.994   5.069
86345SOL     OW60931   5.984   7.991  10.682
86345SOL    HW160932   5.896   7.971  10.649
86345SOL    HW260933   5.975   8.076  10.725
86346SOL     OW60934   2.698  11.355   7.468
86346SOL    HW160935   2.792  11.342   7.479
86346SOL    HW260936   2.664  11.268   7.447
86347SOL     OW60937   0.551   8.860   4.766
86347SOL    HW160938   0.595   8.943   4.784
86347SOL    HW260939   0.525   8.828   4.852
86348SOL     OW60940   2.229  11.296  10.806
86348SOL    HW160941   2.147  11.318  10.851
86348SOL    HW260942   2.269  11.380  10.786
86349SOL     OW60943   2.942   4.672  12.468
86349SOL    HW160944   2.894   4.736  12.416
86349SOL    HW260945   2.875   4.614  12.503
86350SOL     OW60946   4.242  11.923   7.364
86350SOL    HW160947   4.150  11.904   7.384
86350SOL    HW260948   4.272  11.975   7.438
86351SOL     OW60949   7.199  14.435   4.366
86351SOL    HW160950   7.176  14.397   4.451
86351SOL    HW260951   7.295  14.438   4.367
86352SOL     OW60952   1.719  10.654   9.683
86352SOL    HW160953   1.762  10.698   9.757
86352SOL    HW260954   1.713  10.563   9.710
86353SOL     OW60955  10.518   6.399   8.063
86353SOL    HW160956  10.584   6.467   8.049
86353SOL    HW260957  10.442   6.447   8.098
86354SOL     OW60958   9.714   9.137  14.808
86354SOL    HW160959   9.768   9.204  14.765
86354SOL    HW260960   9.698   9.172   0.014
86355SOL     OW60961   6.560  13.443   7.151
86355SOL    HW160962   6.566  13.479   7.063
86355SOL    HW260963   6.632  13.483   7.199
86356SOL     OW60964   0.117  13.443  10.806
86356SOL    HW160965   0.096  13.536  10.818
86356SOL    HW260966   0.175  13.421  10.878
86357SOL     OW60967   8.365   2.115   2.702
86357SOL    HW160968   8.406   2.184   2.651
86357SOL    HW260969   8.437   2.075   2.751
86358SOL     OW60970   0.592  10.767   7.574
86358SOL    HW160971   0.554  10.716   7.502
86358SOL    HW260972   0.684  10.738   7.577
86359SOL     OW60973  13.430   8.354  10.524
86359SOL    HW160974  13.390   8.281  10.477
86359SOL    HW260975  13.470   8.408  10.456
86360SOL     OW60976  11.658   1.969   2.727
86360SOL    HW160977  11.587   1.918   2.688
86360SOL    HW260978  11.736   1.915   2.714
86361SOL     OW60979   5.833  13.661   3.580
86361SOL    HW160980   5.856  13.754   3.582
86361SOL    HW260981   5.913  13.616   3.607
86362SOL     OW60982  12.505   4.092   8.926
86362SOL    HW160983  12.447   4.026   8.966
86362SOL    HW260984  12.469   4.105   8.838
86363SOL     OW60985   0.037  12.409   6.534
86363SOL    HW160986  14.859  12.478   6.505
86363SOL    HW260987   0.096  12.453   6.595
86364SOL     OW60988   4.320  13.358  10.662
86364SOL    HW160989   4.260  13.284  10.655
86364SOL    HW260990   4.407  13.319  10.664
86365SOL     OW60991  13.072   7.101  10.013
86365SOL    HW160992  13.140   7.088  10.079
86365SOL    HW260993  13.010   7.162  10.053
86366SOL     OW60994   0.615  14.151   8.219
86366SOL    HW160995   0.565  14.136   8.139
86366SOL    HW260996   0.668  14.073   8.231
86367SOL     OW60997   9.199   6.455   1.488
86367SOL    HW160998   9.133   6.467   1.419
86367SOL    HW260999   9.154   6.402   1.555
86368SOL     OW61000   9.144   4.975   8.431
86368SOL    HW161001   9.104   4.892   8.457
86368SOL    HW261002   9.188   5.006   8.510
86369SOL     OW61003   4.138  13.761   2.139
86369SOL    HW161004   4.215  13.785   2.087
86369SOL    HW261005   4.064  13.776   2.080
86370SOL     OW61006   0.538   4.867   3.178
86370SOL    HW161007   0.509   4.784   3.215
86370SOL    HW261008   0.582   4.912   3.250
86371SOL     OW61009   1.125  12.633   4.195
86371SOL    HW161010   1.070  12.654   4.270
86371SOL    HW261011   1.084  12.679   4.122
86372SOL     OW61012  14.396  12.270  12.570
86372SOL    HW161013  14.310  12.245  12.536
86372SOL    HW261014  14.439  12.187  12.591
86373SOL     OW61015   3.541   6.566   4.518
86373SOL    HW161016   3.626   6.573   4.561
86373SOL    HW261017   3.525   6.472   4.513
86374SOL     OW61018  11.324   6.079   6.249
86374SOL    HW161019  11.262   6.140   6.209
86374SOL    HW261020  11.279   5.994   6.247
86375SOL     OW61021  14.688   8.227   9.623
86375SOL    HW161022  14.598   8.247   9.649
86375SOL    HW261023  14.693   8.131   9.626
86376SOL     OW61024  10.671   7.961  14.291
86376SOL    HW161025  10.602   7.896  14.288
86376SOL    HW261026  10.629   8.039  14.326
86377SOL     OW61027  13.009  14.251   7.326
86377SOL    HW161028  12.974  14.192   7.260
86377SOL    HW261029  12.933  14.275   7.380
86378SOL     OW61030  13.516   2.528  13.705
86378SOL    HW161031  13.459   2.452  13.699
86378SOL    HW261032  13.456   2.603  13.706
86379SOL     OW61033   5.744  13.201   8.946
86379SOL    HW161034   5.710  13.182   8.859
86379SOL    HW261035   5.681  13.262   8.984
86380SOL     OW61036   2.565  14.245  13.450
86380SOL    HW161037   2.631  14.257  13.519
86380SOL    HW261038   2.606  14.280  13.371
86381SOL     OW61039   3.905   8.565  14.671
86381SOL    HW161040   3.972   8.618  14.714
86381SOL    HW261041   3.822   8.597  14.707
86382SOL     OW61042   1.753   6.820   0.767
86382SOL    HW161043   1.811   6.883   0.810
86382SOL    HW261044   1.790   6.807   0.680
86383SOL     OW61045  12.523   2.280  13.344
86383SOL    HW161046  12.505   2.256  13.434
86383SOL    HW261047  12.618   2.294  13.341
86384SOL     OW61048   6.749   7.360   5.934
86384SOL    HW161049   6.841   7.367   5.907
86384SOL    HW261050   6.753   7.331   6.025
86385SOL     OW61051   9.291  13.497  14.686
86385SOL    HW161052   9.346  13.573  14.706
86385SOL    HW261053   9.239  13.483  14.766
86386SOL     OW61054   0.669   0.397   1.170
86386SOL    HW161055   0.579   0.368   1.160
86386SOL    HW261056   0.722   0.319   1.154
86387SOL     OW61057  13.117  14.735  13.807
86387SOL    HW161058  13.172  14.813  13.801
86387SOL    HW261059  13.176  14.663  13.785
86388SOL     OW61060   3.788   2.324  12.072
86388SOL    HW161061   3.726   2.385  12.110
86388SOL    HW261062   3.753   2.307  11.984
86389SOL     OW61063  10.602   0.265   8.450
86389SOL    HW161064  10.570   0.317   8.376
86389SOL    HW261065  10.621   0.330   8.518
86390SOL     OW61066   3.862  14.515   9.389
86390SOL    HW161067   3.879  14.444   9.451
86390SOL    HW261068   3.927  14.503   9.320
86391SOL     OW61069   5.509   8.686   9.279
86391SOL    HW161070   5.526   8.600   9.241
86391SOL    HW261071   5.596   8.718   9.304
86392SOL     OW61072  13.337  10.717   0.302
86392SOL    HW161073  13.319  10.755   0.389
86392SOL    HW261074  13.251  10.704   0.263
86393SOL     OW61075  14.748   6.580   5.160
86393SOL    HW161076  14.779   6.669   5.177
86393SOL    HW261077  14.820   6.524   5.189
86394SOL     OW61078   1.997   1.361   8.267
86394SOL    HW161079   2.007   1.307   8.189
86394SOL    HW261080   1.922   1.417   8.248
86395SOL     OW61081  11.489   9.604   6.793
86395SOL    HW161082  11.570   9.580   6.838
86395SOL    HW261083  11.425   9.539   6.823
86396SOL     OW61084  11.429   0.493   6.347
86396SOL    HW161085  11.487   0.485   6.422
86396SOL    HW261086  11.458   0.573   6.303
86397SOL     OW61087  14.604   1.988   6.950
86397SOL    HW161088  14.607   2.017   6.859
86397SOL    HW261089  14.522   2.024   6.984
86398SOL     OW61090  13.952   3.206   3.525
86398SOL    HW161091  13.871   3.161   3.548
86398SOL    HW261092  13.925   3.279   3.470
86399SOL     OW61093   0.602   4.923   4.528
86399SOL    HW161094   0.657   4.849   4.502
86399SOL    HW261095   0.607   4.984   4.454
86400SOL     OW61096  14.534   4.037  11.278
86400SOL    HW161097  14.587   3.957  11.284
86400SOL    HW261098  14.444   4.005  11.280
86401SOL     OW61099   1.101   8.583   2.704
86401SOL    HW161100   1.039   8.642   2.749
86401SOL    HW261101   1.176   8.579   2.763
86402SOL     OW61102   8.263  14.666   2.337
86402SOL    HW161103   8.345  14.660   2.287
86402SOL    HW261104   8.195  14.654   2.270
86403SOL     OW61105   7.062   6.441   3.440
86403SOL    HW161106   7.081   6.511   3.378
86403SOL    HW261107   7.132   6.377   3.427
86404SOL     OW61108   1.503  14.673  13.201
86404SOL    HW161109   1.522  14.672  13.107
86404SOL    HW261110   1.437  14.606  13.213
86405SOL     OW61111   3.167  11.534   7.080
86405SOL    HW161112   3.171  11.587   7.159
86405SOL    HW261113   3.258  11.514   7.059
86406SOL     OW61114   3.956  13.943   5.657
86406SOL    HW161115   3.861  13.940   5.665
86406SOL    HW261116   3.988  13.916   5.743
86407SOL     OW61117   0.433   6.596   6.064
86407SOL    HW161118   0.439   6.691   6.079
86407SOL    HW261119   0.519   6.572   6.030
86408SOL     OW61120   7.768  13.846  11.047
86408SOL    HW161121   7.801  13.868  10.960
86408SOL    HW261122   7.823  13.895  11.107
86409SOL     OW61123  12.945  14.547  12.393
86409SOL    HW161124  12.881  14.489  12.433
86409SOL    HW261125  12.990  14.589  12.466
86410SOL     OW61126   7.346  13.727   4.998
86410SOL    HW161127   7.433  13.697   5.024
86410SOL    HW261128   7.292  13.714   5.076
86411SOL     OW61129   9.347   6.188   8.990
86411SOL    HW161130   9.312   6.105   9.021
86411SOL    HW261131   9.319   6.194   8.898
86412SOL     OW61132   7.819   6.564   1.381
86412SOL    HW161133   7.843   6.507   1.455
86412SOL    HW261134   7.885   6.545   1.314
86413SOL     OW61135  11.986   4.665  10.073
86413SOL    HW161136  11.950   4.750  10.097
86413SOL    HW261137  11.981   4.614  10.154
86414SOL     OW61138   9.731   9.063   6.642
86414SOL    HW161139   9.638   9.084   6.633
86414SOL    HW261140   9.755   9.023   6.558
86415SOL     OW61141   7.745   9.078   8.799
86415SOL    HW161142   7.694   9.026   8.738
86415SOL    HW261143   7.833   9.041   8.795
86416SOL     OW61144  13.543   9.554   2.137
86416SOL    HW161145  13.615   9.551   2.075
86416SOL    HW261146  13.527   9.648   2.151
86417SOL     OW61147  14.200   9.462   3.388
86417SOL    HW161148  14.205   9.373   3.424
86417SOL    HW261149  14.252   9.515   3.449
86418SOL     OW61150  11.353   5.296   2.275
86418SOL    HW161151  11.395   5.228   2.328
86418SOL    HW261152  11.423   5.359   2.258
86419SOL     OW61153  12.901  12.337   0.258
86419SOL    HW161154  12.896  12.251   0.298
86419SOL    HW261155  12.994  12.361   0.262
86420SOL     OW61156   4.239   8.565   2.749
86420SOL    HW161157   4.287   8.532   2.673
86420SOL    HW261158   4.149   8.577   2.718
86421SOL     OW61159   6.149   6.817  10.932
86421SOL    HW161160   6.104   6.733  10.939
86421SOL    HW261161   6.090   6.879  10.975
86422SOL     OW61162   1.771  11.615   2.264
86422SOL    HW161163   1.702  11.549   2.255
86422SOL    HW261164   1.850  11.572   2.233
86423SOL     OW61165  11.460   9.262   5.235
86423SOL    HW161166  11.502   9.208   5.301
86423SOL    HW261167  11.376   9.287   5.274
86424SOL     OW61168   4.047  13.854   2.378
86424SOL    HW161169   4.087  13.829   2.294
86424SOL    HW261170   3.988  13.926   2.357
86425SOL     OW61171   8.706   0.279   1.463
86425SOL    HW161172   8.698   0.222   1.387
86425SOL    HW261173   8.735   0.222   1.534
86426SOL     OW61174   3.445   3.442   7.663
86426SOL    HW161175   3.513   3.398   7.714
86426SOL    HW261176   3.487   3.522   7.632
86427SOL     OW61177  12.255   5.733   8.685
86427SOL    HW161178  12.228   5.804   8.744
86427SOL    HW261179  12.298   5.777   8.612
86428SOL     OW61180   8.650   8.463   8.375
86428SOL    HW161181   8.703   8.501   8.305
86428SOL    HW261182   8.615   8.383   8.337
86429SOL     OW61183   0.805  10.018  14.035
86429SOL    HW161184   0.841  10.042  13.950
86429SOL    HW261185   0.724   9.972  14.014
86430SOL     OW61186   4.021   2.282   9.994
86430SOL    HW161187   3.951   2.315   9.938
86430SOL    HW261188   4.099   2.286   9.939
86431SOL     OW61189   7.994   5.824   8.561
86431SOL    HW161190   7.957   5.765   8.627
86431SOL    HW261191   8.088   5.824   8.579
86432SOL     OW61192  12.369   7.437  13.847
86432SOL    HW161193  12.387   7.388  13.927
86432SOL    HW261194  12.442   7.416  13.788
86433SOL     OW61195  13.838  12.660   5.761
86433SOL    HW161196  13.919  12.711   5.764
86433SOL    HW261197  13.785  12.693   5.833
86434SOL     OW61198   2.946  13.896  10.644
86434SOL    HW161199   2.986  13.842  10.575
86434SOL    HW261200   2.880  13.948  10.599
86435SOL     OW61201  13.434  11.022  14.037
86435SOL    HW161202  13.480  10.960  13.980
86435SOL    HW261203  13.407  10.969  14.112
86436SOL     OW61204   8.662  11.644   4.922
86436SOL    HW161205   8.582  11.624   4.971
86436SOL    HW261206   8.633  11.702   4.851
86437SOL     OW61207   4.105  10.883   7.048
86437SOL    HW161208   4.105  10.954   6.984
86437SOL    HW261209   4.189  10.892   7.093
86438SOL     OW61210   2.969   8.141   8.389
86438SOL    HW161211   2.996   8.201   8.459
86438SOL    HW261212   3.041   8.143   8.327
86439SOL     OW61213  12.685   7.005  13.791
86439SOL    HW161214  12.680   7.048  13.877
86439SOL    HW261215  12.732   6.924  13.808
86440SOL     OW61216   0.648   0.950   6.858
86440SOL    HW161217   0.706   0.971   6.932
86440SOL    HW261218   0.657   1.024   6.798
86441SOL     OW61219   2.948  11.253  11.820
86441SOL    HW161220   2.957  11.250  11.725
86441SOL    HW261221   2.885  11.183  11.840
86442SOL     OW61222  10.293   5.537   8.490
86442SOL    HW161223  10.356   5.544   8.418
86442SOL    HW261224  10.286   5.627   8.523
86443SOL     OW61225   5.570   2.637   0.938
86443SOL    HW161226   5.486   2.670   0.905
86443SOL    HW261227   5.571   2.662   1.030
86444SOL     OW61228   3.455  12.219   9.131
86444SOL    HW161229   3.452  12.133   9.173
86444SOL    HW261230   3.390  12.214   9.062
86445SOL     OW61231   3.889  10.631   5.549
86445SOL    HW161232   3.963  10.647   5.490
86445SOL    HW261233   3.909  10.684   5.626
86446SOL     OW61234  13.380   5.007   0.885
86446SOL    HW161235  13.448   4.973   0.827
86446SOL    HW261236  13.421   5.084   0.927
86447SOL     OW61237  10.609   4.296   4.184
86447SOL    HW161238  10.588   4.249   4.104
86447SOL    HW261239  10.613   4.227   4.251
86448SOL     OW61240   1.237   3.663   6.360
86448SOL    HW161241   1.217   3.587   6.414
86448SOL    HW261242   1.170   3.727   6.384
86449SOL     OW61243   5.780   3.920   8.233
86449SOL    HW161244   5.718   3.850   8.211
86449SOL    HW261245   5.778   3.978   8.158
86450SOL     OW61246   8.074   8.223   5.351
86450SOL    HW161247   8.080   8.282   5.276
86450SOL    HW261248   8.158   8.231   5.396
86451SOL     OW61249   1.286  14.504  14.380
86451SOL    HW161250   1.258  14.575  14.321
86451SOL    HW261251   1.208  14.449  14.390
86452SOL     OW61252   9.373   9.908  13.902
86452SOL    HW161253   9.330   9.993  13.912
86452SOL    HW261254   9.409   9.890  13.989
86453SOL     OW61255  12.654   6.877   2.438
86453SOL    HW161256  12.748   6.891   2.430
86453SOL    HW261257  12.635   6.893   2.530
86454SOL     OW61258   9.988   2.347   5.538
86454SOL    HW161259   9.974   2.388   5.452
86454SOL    HW261260  10.033   2.414   5.589
86455SOL     OW61261   4.591   3.665  14.757
86455SOL    HW161262   4.594   3.572  14.731
86455SOL    HW261263   4.655   3.707  14.700
86456SOL     OW61264   0.082   4.535   7.582
86456SOL    HW161265   0.107   4.442   7.582
86456SOL    HW261266   0.146   4.578   7.526
86457SOL     OW61267   1.167   8.356   9.914
86457SOL    HW161268   1.251   8.400   9.930
86457SOL    HW261269   1.112   8.424   9.875
86458SOL     OW61270  13.359  11.939   7.489
86458SOL    HW161271  13.385  11.847   7.487
86458SOL    HW261272  13.294  11.947   7.419
86459SOL     OW61273  12.874   5.142   3.055
86459SOL    HW161274  12.818   5.162   2.980
86459SOL    HW261275  12.910   5.055   3.035
86460SOL     OW61276   3.982   7.181   4.478
86460SOL    HW161277   4.028   7.180   4.394
86460SOL    HW261278   4.001   7.095   4.517
86461SOL     OW61279   6.668   5.317   0.225
86461SOL    HW161280   6.691   5.317   0.318
86461SOL    HW261281   6.738   5.268   0.182
86462SOL     OW61282   1.426  13.417  12.370
86462SOL    HW161283   1.362  13.347  12.359
86462SOL    HW261284   1.511  13.373  12.368
86463SOL     OW61285  12.132   9.793   9.224
86463SOL    HW161286  12.173   9.711   9.196
86463SOL    HW261287  12.114   9.779   9.317
86464SOL     OW61288   6.005   2.656   9.559
86464SOL    HW161289   6.002   2.727   9.624
86464SOL    HW261290   6.079   2.679   9.503
86465SOL     OW61291   6.125   6.073   2.718
86465SOL    HW161292   6.126   6.143   2.783
86465SOL    HW261293   6.051   6.093   2.661
86466SOL     OW61294   0.700   4.619   8.490
86466SOL    HW161295   0.614   4.638   8.455
86466SOL    HW261296   0.759   4.629   8.415
86467SOL     OW61297   4.881   8.471   9.237
86467SOL    HW161298   4.966   8.466   9.193
86467SOL    HW261299   4.828   8.403   9.196
86468SOL     OW61300   0.146   0.066   1.384
86468SOL    HW161301   0.131   0.057   1.290
86468SOL    HW261302   0.172   0.158   1.395
86469SOL     OW61303  10.646  11.637   4.359
86469SOL    HW161304  10.674  11.553   4.397
86469SOL    HW261305  10.710  11.700   4.390
86470SOL     OW61306   3.014  11.856   7.370
86470SOL    HW161307   2.962  11.936   7.357
86470SOL    HW261308   2.949  11.790   7.395
86471SOL     OW61309  13.622   6.470   8.829
86471SOL    HW161310  13.552   6.444   8.889
86471SOL    HW261311  13.647   6.389   8.785
86472SOL     OW61312   8.714   2.963   0.309
86472SOL    HW161313   8.630   2.942   0.350
86472SOL    HW261314   8.697   3.046   0.263
86473SOL     OW61315   0.817   2.996  12.782
86473SOL    HW161316   0.764   3.075  12.777
86473SOL    HW261317   0.907   3.028  12.792
86474SOL     OW61318   0.380   5.922   4.632
86474SOL    HW161319   0.407   5.902   4.722
86474SOL    HW261320   0.390   6.017   4.624
86475SOL     OW61321   4.527  14.849   6.108
86475SOL    HW161322   4.518   0.023   6.185
86475SOL    HW261323   4.605  14.797   6.126
86476SOL     OW61324  13.168  13.187   5.505
86476SOL    HW161325  13.104  13.210   5.438
86476SOL    HW261326  13.188  13.270   5.548
86477SOL     OW61327   8.911   9.882   7.821
86477SOL    HW161328   8.830   9.834   7.806
86477SOL    HW261329   8.980   9.821   7.792
86478SOL     OW61330   6.505   2.724  11.549
86478SOL    HW161331   6.581   2.753  11.499
86478SOL    HW261332   6.461   2.661  11.492
86479SOL     OW61333   5.770   6.232  13.991
86479SOL    HW161334   5.695   6.289  13.974
86479SOL    HW261335   5.846   6.290  13.993
86480SOL     OW61336   3.831  14.814   2.438
86480SOL    HW161337   3.848   0.009   2.493
86480SOL    HW261338   3.817  14.850   2.350
86481SOL     OW61339   4.197   2.677   1.425
86481SOL    HW161340   4.256   2.662   1.351
86481SOL    HW261341   4.109   2.672   1.388
86482SOL     OW61342  12.959  12.232   8.774
86482SOL    HW161343  12.875  12.216   8.730
86482SOL    HW261344  13.015  12.160   8.747
86483SOL     OW61345   8.302  13.317   7.855
86483SOL    HW161346   8.362  13.379   7.896
86483SOL    HW261347   8.355  13.269   7.791
86484SOL     OW61348   5.730   3.637   2.729
86484SOL    HW161349   5.666   3.567   2.717
86484SOL    HW261350   5.781   3.610   2.805
86485SOL     OW61351   2.144   0.345   5.933
86485SOL    HW161352   2.079   0.276   5.943
86485SOL    HW261353   2.094   0.423   5.908
86486SOL     OW61354  13.264   8.771   4.552
86486SOL    HW161355  13.325   8.794   4.482
86486SOL    HW261356  13.320   8.736   4.621
86487SOL     OW61357  13.028   9.200  12.128
86487SOL    HW161358  13.093   9.260  12.162
86487SOL    HW261359  13.046   9.117  12.172
86488SOL     OW61360   4.701   3.054   3.427
86488SOL    HW161361   4.699   2.987   3.495
86488SOL    HW261362   4.794   3.072   3.413
86489SOL     OW61363   5.558   1.219   1.930
86489SOL    HW161364   5.468   1.188   1.924
86489SOL    HW261365   5.558   1.300   1.878
86490SOL     OW61366   1.484   6.767   7.749
86490SOL    HW161367   1.575   6.740   7.764
86490SOL    HW261368   1.488   6.862   7.741
86491SOL     OW61369  11.160  12.845   8.508
86491SOL    HW161370  11.155  12.940   8.514
86491SOL    HW261371  11.243  12.823   8.551
86492SOL     OW61372   7.004   6.205  12.912
86492SOL    HW161373   6.980   6.214  13.005
86492SOL    HW261374   6.941   6.142  12.877
86493SOL     OW61375  14.574   5.201   2.467
86493SOL    HW161376  14.657   5.246   2.484
86493SOL    HW261377  14.523   5.262   2.414
86494SOL     OW61378   9.084  14.769   1.713
86494SOL    HW161379   9.101  14.675   1.711
86494SOL    HW261380   9.089  14.792   1.806
86495SOL     OW61381   5.727   1.016   3.938
86495SOL    HW161382   5.812   0.992   3.976
86495SOL    HW261383   5.735   0.995   3.845
86496SOL     OW61384  10.614  10.788   4.062
86496SOL    HW161385  10.547  10.726   4.032
86496SOL    HW261386  10.584  10.815   4.149
86497SOL     OW61387  13.583  12.408   5.003
86497SOL    HW161388  13.496  12.402   4.963
86497SOL    HW261389  13.605  12.501   4.999
86498SOL     OW61390   8.934   3.111   1.727
86498SOL    HW161391   8.957   3.019   1.720
86498SOL    HW261392   8.920   3.126   1.820
86499SOL     OW61393   3.725   2.928  14.625
86499SOL    HW161394   3.723   3.015  14.586
86499SOL    HW261395   3.635   2.913  14.654
86500SOL     OW61396   0.263  13.715  12.471
86500SOL    HW161397   0.346  13.723  12.423
86500SOL    HW261398   0.197  13.703  12.402
86501SOL     OW61399   9.687   9.372  13.394
86501SOL    HW161400   9.652   9.445  13.342
86501SOL    HW261401   9.776   9.399  13.415
86502SOL     OW61402  12.959   4.740   1.237
86502SOL    HW161403  13.054   4.752   1.232
86502SOL    HW261404  12.930   4.736   1.146
86503SOL     OW61405   3.793   0.754  11.549
86503SOL    HW161406   3.699   0.748  11.566
86503SOL    HW261407   3.819   0.664  11.529
86504SOL     OW61408  13.155   5.877  14.022
86504SOL    HW161409  13.207   5.841  13.950
86504SOL    HW261410  13.218   5.889  14.093
86505SOL     OW61411  10.617   1.487  12.709
86505SOL    HW161412  10.529   1.476  12.745
86505SOL    HW261413  10.675   1.449  12.775
86506SOL     OW61414   5.929  12.635   4.964
86506SOL    HW161415   5.926  12.730   4.975
86506SOL    HW261416   5.840  12.611   4.938
86507SOL     OW61417   5.988  13.643   4.560
86507SOL    HW161418   5.937  13.570   4.596
86507SOL    HW261419   5.924  13.710   4.540
86508SOL     OW61420  12.633   4.046   2.071
86508SOL    HW161421  12.609   3.974   2.130
86508SOL    HW261422  12.689   4.004   2.005
86509SOL     OW61423   7.958   4.529  13.323
86509SOL    HW161424   7.990   4.617  13.341
86509SOL    HW261425   8.024   4.491  13.266
86510SOL     OW61426   1.791   6.822   5.798
86510SOL    HW161427   1.881   6.837   5.768
86510SOL    HW261428   1.790   6.730   5.825
86511SOL     OW61429  11.173  12.304   7.115
86511SOL    HW161430  11.258  12.277   7.151
86511SOL    HW261431  11.156  12.389   7.155
86512SOL     OW61432  13.481  12.832  10.041
86512SOL    HW161433  13.419  12.765  10.013
86512SOL    HW261434  13.456  12.853  10.131
86513SOL     OW61435   2.776   2.105   9.524
86513SOL    HW161436   2.750   2.159   9.598
86513SOL    HW261437   2.833   2.162   9.472
86514SOL     OW61438  13.821   6.278  13.085
86514SOL    HW161439  13.793   6.206  13.028
86514SOL    HW261440  13.819   6.355  13.028
86515SOL     OW61441  12.540   6.632   0.348
86515SOL    HW161442  12.499   6.561   0.299
86515SOL    HW261443  12.473   6.701   0.350
86516SOL     OW61444   4.484   8.609   5.651
86516SOL    HW161445   4.393   8.628   5.673
86516SOL    HW261446   4.535   8.647   5.723
86517SOL     OW61447   2.073   7.679   2.982
86517SOL    HW161448   2.113   7.607   3.031
86517SOL    HW261449   2.069   7.648   2.892
86518SOL     OW61450  13.685  12.685   9.060
86518SOL    HW161451  13.602  12.639   9.048
86518SOL    HW261452  13.705  12.720   8.973
86519SOL     OW61453   2.110   3.103   8.231
86519SOL    HW161454   2.085   3.030   8.288
86519SOL    HW261455   2.038   3.166   8.239
86520SOL     OW61456   2.244  10.674   7.808
86520SOL    HW161457   2.275  10.592   7.847
86520SOL    HW261458   2.292  10.680   7.725
86521SOL     OW61459  12.539   9.158  12.223
86521SOL    HW161460  12.626   9.154  12.263
86521SOL    HW261461  12.484   9.102  12.278
86522SOL     OW61462   1.217  14.038   5.461
86522SOL    HW161463   1.246  14.118   5.417
86522SOL    HW261464   1.207  13.974   5.390
86523SOL     OW61465   0.729  12.411  11.659
86523SOL    HW161466   0.757  12.491  11.702
86523SOL    HW261467   0.796  12.393  11.594
86524SOL     OW61468  10.324   2.866  13.253
86524SOL    HW161469  10.419   2.872  13.263
86524SOL    HW261470  10.294   2.957  13.248
86525SOL     OW61471   9.974  12.691  14.849
86525SOL    HW161472   9.890  12.671   0.007
86525SOL    HW261473   9.989  12.619  14.787
86526SOL     OW61474  13.872  12.124  12.873
86526SOL    HW161475  13.947  12.084  12.917
86526SOL    HW261476  13.796  12.086  12.918
86527SOL     OW61477   5.089   2.929   7.483
86527SOL    HW161478   4.999   2.960   7.493
86527SOL    HW261479   5.139   3.008   7.465
86528SOL     OW61480   0.554   0.403  13.746
86528SOL    HW161481   0.563   0.412  13.841
86528SOL    HW261482   0.515   0.486  13.718
86529SOL     OW61483   8.439   9.539  12.980
86529SOL    HW161484   8.515   9.591  13.007
86529SOL    HW261485   8.469   9.448  12.985
86530SOL     OW61486  12.901   5.152   5.589
86530SOL    HW161487  12.857   5.215   5.646
86530SOL    HW261488  12.902   5.193   5.503
86531SOL     OW61489   8.490   6.258   9.308
86531SOL    HW161490   8.529   6.222   9.388
86531SOL    HW261491   8.411   6.206   9.295
86532SOL     OW61492   2.425   9.007   2.421
86532SOL    HW161493   2.442   9.001   2.515
86532SOL    HW261494   2.337   9.044   2.414
86533SOL     OW61495   2.047   6.802  14.344
86533SOL    HW161496   2.086   6.775  14.427
86533SOL    HW261497   2.121   6.813  14.285
86534SOL     OW61498   2.207   0.486  11.605
86534SOL    HW161499   2.252   0.492  11.690
86534SOL    HW261500   2.267   0.435  11.551
86535SOL     OW61501  13.660   8.357   5.847
86535SOL    HW161502  13.609   8.393   5.920
86535SOL    HW261503  13.630   8.267   5.839
86536SOL     OW61504  11.391   5.015   2.714
86536SOL    HW161505  11.455   4.944   2.707
86536SOL    HW261506  11.307   4.970   2.723
86537SOL     OW61507   2.736   4.016  10.066
86537SOL    HW161508   2.702   3.986   9.981
86537SOL    HW261509   2.826   3.984  10.068
86538SOL     OW61510   7.752  14.402  14.285
86538SOL    HW161511   7.795  14.364  14.208
86538SOL    HW261512   7.661  14.374  14.277
86539SOL     OW61513   9.502   8.205   4.015
86539SOL    HW161514   9.524   8.273   4.078
86539SOL    HW261515   9.509   8.247   3.929
86540SOL     OW61516   4.138   7.452   3.149
86540SOL    HW161517   4.045   7.447   3.171
86540SOL    HW261518   4.168   7.361   3.152
86541SOL     OW61519   8.134   9.793   3.104
86541SOL    HW161520   8.146   9.753   3.190
86541SOL    HW261521   8.130   9.887   3.122
86542SOL     OW61522   2.077   8.430   7.451
86542SOL    HW161523   2.160   8.382   7.456
86542SOL    HW261524   2.054   8.448   7.542
86543SOL     OW61525   2.728   1.271  12.848
86543SOL    HW161526   2.814   1.312  12.851
86543SOL    HW261527   2.666   1.345  12.849
86544SOL     OW61528  11.423   0.692  11.717
86544SOL    HW161529  11.460   0.771  11.755
86544SOL    HW261530  11.352   0.668  11.777
86545SOL     OW61531  13.638  13.277   3.999
86545SOL    HW161532  13.547  13.250   3.986
86545SOL    HW261533  13.689  13.203   3.966
86546SOL     OW61534   9.406   0.455  12.281
86546SOL    HW161535   9.401   0.478  12.373
86546SOL    HW261536   9.342   0.384  12.271
86547SOL     OW61537   0.644  11.050   2.298
86547SOL    HW161538   0.678  11.038   2.386
86547SOL    HW261539   0.553  11.079   2.311
86548SOL     OW61540  10.410   4.191  14.378
86548SOL    HW161541  10.487   4.150  14.339
86548SOL    HW261542  10.351   4.118  14.398
86549SOL     OW61543   5.707   0.257   0.768
86549SOL    HW161544   5.795   0.236   0.800
86549SOL    HW261545   5.660   0.285   0.846
86550SOL     OW61546  12.846   2.060   9.875
86550SOL    HW161547  12.906   2.129   9.848
86550SOL    HW261548  12.880   1.980   9.834
86551SOL     OW61549   3.514  10.916   3.174
86551SOL    HW161550   3.548  10.860   3.244
86551SOL    HW261551   3.492  10.998   3.218
86552SOL     OW61552  13.563   4.311  12.230
86552SOL    HW161553  13.658   4.311  12.223
86552SOL    HW261554  13.537   4.400  12.206
86553SOL     OW61555   4.942  14.356  11.967
86553SOL    HW161556   4.970  14.394  11.884
86553SOL    HW261557   4.883  14.285  11.942
86554SOL     OW61558   9.625  10.828  14.613
86554SOL    HW161559   9.579  10.785  14.541
86554SOL    HW261560   9.613  10.770  14.688
86555SOL     OW61561  13.132   4.015  14.877
86555SOL    HW161562  13.185   4.039  14.802
86555SOL    HW261563  13.075   4.090   0.011
86556SOL     OW61564   0.728   2.638   1.999
86556SOL    HW161565   0.741   2.550   1.963
86556SOL    HW261566   0.688   2.623   2.085
86557SOL     OW61567  14.382  14.639   6.612
86557SOL    HW161568  14.449  14.690   6.567
86557SOL    HW261569  14.327  14.604   6.543
86558SOL     OW61570  12.208   2.412   4.192
86558SOL    HW161571  12.207   2.324   4.154
86558SOL    HW261572  12.257   2.402   4.274
86559SOL     OW61573   9.649   1.872  13.017
86559SOL    HW161574   9.606   1.821  13.086
86559SOL    HW261575   9.702   1.808  12.970
86560SOL     OW61576  14.569   2.371   4.108
86560SOL    HW161577  14.650   2.422   4.108
86560SOL    HW261578  14.550   2.355   4.015
86561SOL     OW61579  12.549   1.634   8.751
86561SOL    HW161580  12.492   1.643   8.828
86561SOL    HW261581  12.625   1.689   8.770
86562SOL     OW61582   1.397   9.305   4.205
86562SOL    HW161583   1.346   9.327   4.127
86562SOL    HW261584   1.439   9.387   4.232
86563SOL     OW61585   8.271   1.932  12.974
86563SOL    HW161586   8.318   1.884  12.906
86563SOL    HW261587   8.196   1.877  12.995
86564SOL     OW61588   6.324  11.390  13.428
86564SOL    HW161589   6.390  11.425  13.487
86564SOL    HW261590   6.288  11.466  13.383
86565SOL     OW61591   0.669   6.849   3.576
86565SOL    HW161592   0.701   6.788   3.510
86565SOL    HW261593   0.680   6.801   3.659
86566SOL     OW61594   4.032   0.533   0.196
86566SOL    HW161595   3.999   0.443   0.204
86566SOL    HW261596   4.103   0.538   0.260
86567SOL     OW61597   3.093   5.933   0.277
86567SOL    HW161598   3.017   5.880   0.253
86567SOL    HW261599   3.131   5.887   0.352
86568SOL     OW61600  11.343   0.581  11.090
86568SOL    HW161601  11.300   0.666  11.085
86568SOL    HW261602  11.297   0.535  11.161
86569SOL     OW61603   6.579  14.577  12.323
86569SOL    HW161604   6.668  14.608  12.305
86569SOL    HW261605   6.552  14.534  12.242
86570SOL     OW61606   7.810   6.258   8.472
86570SOL    HW161607   7.841   6.298   8.554
86570SOL    HW261608   7.747   6.321   8.438
86571SOL     OW61609   1.749  12.525   5.560
86571SOL    HW161610   1.788  12.585   5.496
86571SOL    HW261611   1.687  12.578   5.608
86572SOL     OW61612   8.315  12.773   0.948
86572SOL    HW161613   8.265  12.831   1.006
86572SOL    HW261614   8.398  12.760   0.993
86573SOL     OW61615   0.624   1.935  12.085
86573SOL    HW161616   0.636   1.920  11.991
86573SOL    HW261617   0.622   2.030  12.094
86574SOL     OW61618  12.789  11.501   2.762
86574SOL    HW161619  12.712  11.532   2.714
86574SOL    HW261620  12.815  11.421   2.716
86575SOL     OW61621  13.859   4.273   8.378
86575SOL    HW161622  13.856   4.183   8.348
86575SOL    HW261623  13.890   4.323   8.302
86576SOL     OW61624   5.081   5.403  14.589
86576SOL    HW161625   5.150   5.451  14.635
86576SOL    HW261626   5.086   5.314  14.624
86577SOL     OW61627  10.402  11.698   7.599
86577SOL    HW161628  10.463  11.714   7.671
86577SOL    HW261629  10.417  11.606   7.576
86578SOL     OW61630  10.986   0.134  14.791
86578SOL    HW161631  10.905   0.107  14.747
86578SOL    HW261632  10.957   0.179  14.870
86579SOL     OW61633   8.635   8.413  14.469
86579SOL    HW161634   8.578   8.481  14.504
86579SOL    HW261635   8.719   8.428  14.512
86580SOL     OW61636   2.656  13.649  10.181
86580SOL    HW161637   2.642  13.630  10.089
86580SOL    HW261638   2.587  13.712  10.204
86581SOL     OW61639   3.759   1.501   2.621
86581SOL    HW161640   3.848   1.474   2.597
86581SOL    HW261641   3.772   1.574   2.681
86582SOL     OW61642   3.873   5.237   7.346
86582SOL    HW161643   3.928   5.307   7.381
86582SOL    HW261644   3.924   5.157   7.362
86583SOL     OW61645  14.043  10.042   8.819
86583SOL    HW161646  13.955  10.027   8.784
86583SOL    HW261647  14.100  10.042   8.741
86584SOL     OW61648  11.745   2.224   8.368
86584SOL    HW161649  11.764   2.132   8.387
86584SOL    HW261650  11.756   2.233   8.274
86585SOL     OW61651  12.396  12.539  11.552
86585SOL    HW161652  12.385  12.605  11.483
86585SOL    HW261653  12.374  12.456  11.508
86586SOL     OW61654   0.409  12.240   9.030
86586SOL    HW161655   0.385  12.253   9.122
86586SOL    HW261656   0.327  12.214   8.988
86587SOL     OW61657   5.399   2.805   2.505
86587SOL    HW161658   5.451   2.880   2.473
86587SOL    HW261659   5.384   2.751   2.427
86588SOL     OW61660   3.320   9.242  11.455
86588SOL    HW161661   3.300   9.183  11.383
86588SOL    HW261662   3.261   9.216  11.526
86589SOL     OW61663  12.628   4.668   6.944
86589SOL    HW161664  12.617   4.716   6.862
86589SOL    HW261665  12.667   4.585   6.919
86590SOL     OW61666   4.329   0.333   5.275
86590SOL    HW161667   4.322   0.427   5.292
86590SOL    HW261668   4.350   0.295   5.360
86591SOL     OW61669   4.577   3.750  11.841
86591SOL    HW161670   4.550   3.728  11.752
86591SOL    HW261671   4.606   3.841  11.836
86592SOL     OW61672   7.161   9.341   8.693
86592SOL    HW161673   7.201   9.421   8.659
86592SOL    HW261674   7.205   9.270   8.644
86593SOL     OW61675   3.744  10.459  14.714
86593SOL    HW161676   3.668  10.517  14.714
86593SOL    HW261677   3.786  10.473  14.629
86594SOL     OW61678  14.531  13.846  11.989
86594SOL    HW161679  14.617  13.834  12.030
86594SOL    HW261680  14.513  13.940  11.999
86595SOL     OW61681   7.938  11.150   0.956
86595SOL    HW161682   7.856  11.171   0.912
86595SOL    HW261683   8.001  11.137   0.885
86596SOL     OW61684   2.464   2.696   7.423
86596SOL    HW161685   2.544   2.661   7.462
86596SOL    HW261686   2.394   2.652   7.470
86597SOL     OW61687   4.195  13.749  13.749
86597SOL    HW161688   4.157  13.662  13.738
86597SOL    HW261689   4.175  13.774  13.839
86598SOL     OW61690   4.309  10.914   7.691
86598SOL    HW161691   4.331  10.936   7.782
86598SOL    HW261692   4.394  10.907   7.647
86599SOL     OW61693   1.281   4.551   5.742
86599SOL    HW161694   1.195   4.529   5.708
86599SOL    HW261695   1.275   4.536   5.837
86600SOL     OW61696  14.440  14.260   6.579
86600SOL    HW161697  14.435  14.242   6.673
86600SOL    HW261698  14.519  14.313   6.569
86601SOL     OW61699   4.788   0.104  12.056
86601SOL    HW161700   4.818   0.176  12.001
86601SOL    HW261701   4.751   0.148  12.133
86602SOL     OW61702   4.928   5.247   4.816
86602SOL    HW161703   4.905   5.267   4.907
86602SOL    HW261704   5.012   5.290   4.802
86603SOL     OW61705  12.831   0.350   0.154
86603SOL    HW161706  12.794   0.262   0.149
86603SOL    HW261707  12.911   0.339   0.206
86604SOL     OW61708  11.361   9.286   0.885
86604SOL    HW161709  11.391   9.349   0.949
86604SOL    HW261710  11.266   9.281   0.898
86605SOL     OW61711  14.119   2.093   7.888
86605SOL    HW161712  14.024   2.093   7.876
86605SOL    HW261713  14.141   2.001   7.901
86606SOL     OW61714   0.562  11.387   8.451
86606SOL    HW161715   0.607  11.364   8.370
86606SOL    HW261716   0.624  11.368   8.521
86607SOL     OW61717   5.586   8.260   0.679
86607SOL    HW161718   5.536   8.211   0.615
86607SOL    HW261719   5.669   8.279   0.635
86608SOL     OW61720   5.491   6.833  13.503
86608SOL    HW161721   5.497   6.774  13.428
86608SOL    HW261722   5.406   6.877  13.492
86609SOL     OW61723   3.973  11.558   2.423
86609SOL    HW161724   4.046  11.607   2.460
86609SOL    HW261725   3.904  11.623   2.412
86610SOL     OW61726  12.416  13.728  11.199
86610SOL    HW161727  12.391  13.793  11.264
86610SOL    HW261728  12.460  13.659  11.248
86611SOL     OW61729  11.176   8.254   5.828
86611SOL    HW161730  11.207   8.251   5.738
86611SOL    HW261731  11.255   8.266   5.881
86612SOL     OW61732  13.641   2.881   7.862
86612SOL    HW161733  13.561   2.829   7.862
86612SOL    HW261734  13.698   2.838   7.799
86613SOL     OW61735   5.802   3.697  11.196
86613SOL    HW161736   5.707   3.684  11.188
86613SOL    HW261737   5.838   3.658  11.117
86614SOL     OW61738  13.445   2.694   3.856
86614SOL    HW161739  13.503   2.735   3.920
86614SOL    HW261740  13.362   2.685   3.902
86615SOL     OW61741   6.352   3.699  10.302
86615SOL    HW161742   6.263   3.685  10.271
86615SOL    HW261743   6.376   3.618  10.346
86616SOL     OW61744   2.489   2.363  14.195
86616SOL    HW161745   2.443   2.427  14.140
86616SOL    HW261746   2.449   2.374  14.281
86617SOL     OW61747   0.942  11.532   5.722
86617SOL    HW161748   1.016  11.536   5.782
86617SOL    HW261749   0.975  11.566   5.640
86618SOL     OW61750  14.417   8.170  11.021
86618SOL    HW161751  14.379   8.215  11.097
86618SOL    HW261752  14.468   8.099  11.059
86619SOL     OW61753  11.194   4.979  13.574
86619SOL    HW161754  11.259   4.937  13.517
86619SOL    HW261755  11.125   4.914  13.585
86620SOL     OW61756  14.067  11.477  13.110
86620SOL    HW161757  14.059  11.523  13.026
86620SOL    HW261758  14.034  11.389  13.093
86621SOL     OW61759   8.799   2.857  12.220
86621SOL    HW161760   8.824   2.873  12.130
86621SOL    HW261761   8.727   2.794  12.215
86622SOL     OW61762   1.021  10.367  10.250
86622SOL    HW161763   0.983  10.437  10.197
86622SOL    HW261764   1.091  10.331  10.195
86623SOL     OW61765  10.371  11.422   0.696
86623SOL    HW161766  10.372  11.513   0.728
86623SOL    HW261767  10.457  11.388   0.719
86624SOL     OW61768   7.117  14.330  10.910
86624SOL    HW161769   7.154  14.318  10.822
86624SOL    HW261770   7.190  14.311  10.969
86625SOL     OW61771   5.183  14.795   1.299
86625SOL    HW161772   5.129  14.861   1.343
86625SOL    HW261773   5.151  14.793   1.209
86626SOL     OW61774  13.402   0.921   6.979
86626SOL    HW161775  13.487   0.901   7.018
86626SOL    HW261776  13.362   0.984   7.039
86627SOL     OW61777   6.275   5.338   5.695
86627SOL    HW161778   6.358   5.291   5.700
86627SOL    HW261779   6.292   5.421   5.739
86628SOL     OW61780   5.562   9.115  12.423
86628SOL    HW161781   5.620   9.120  12.498
86628SOL    HW261782   5.513   9.033  12.434
86629SOL     OW61783   5.403  12.476   6.801
86629SOL    HW161784   5.412  12.538   6.874
86629SOL    HW261785   5.492  12.450   6.781
86630SOL     OW61786   8.792   3.391   7.173
86630SOL    HW161787   8.813   3.297   7.169
86630SOL    HW261788   8.782   3.409   7.266
86631SOL     OW61789   0.492   5.346   0.730
86631SOL    HW161790   0.521   5.376   0.643
86631SOL    HW261791   0.521   5.415   0.790
86632SOL     OW61792   9.571   9.737   5.878
86632SOL    HW161793   9.580   9.833   5.873
86632SOL    HW261794   9.499   9.723   5.938
86633SOL     OW61795  12.095  11.086  14.210
86633SOL    HW161796  12.098  11.180  14.228
86633SOL    HW261797  12.093  11.080  14.115
86634SOL     OW61798   2.293   7.213   0.093
86634SOL    HW161799   2.328   7.271   0.161
86634SOL    HW261800   2.334   7.129   0.110
86635SOL     OW61801   3.454  13.345   0.202
86635SOL    HW161802   3.410  13.428   0.182
86635SOL    HW261803   3.389  13.296   0.254
86636SOL     OW61804   8.605  11.076  10.628
86636SOL    HW161805   8.579  11.166  10.610
86636SOL    HW261806   8.684  11.084  10.682
86637SOL     OW61807   3.948   5.954  12.001
86637SOL    HW161808   3.854   5.974  12.000
86637SOL    HW261809   3.955   5.874  12.052
86638SOL     OW61810  11.695  11.280   2.784
86638SOL    HW161811  11.655  11.196   2.807
86638SOL    HW261812  11.789  11.267   2.800
86639SOL     OW61813   0.188   0.881   1.015
86639SOL    HW161814   0.254   0.814   0.998
86639SOL    HW261815   0.134   0.844   1.084
86640SOL     OW61816  10.133  12.106   4.494
86640SOL    HW161817  10.165  12.146   4.413
86640SOL    HW261818  10.182  12.150   4.563
86641SOL     OW61819  13.576  11.708  14.207
86641SOL    HW161820  13.651  11.763  14.231
86641SOL    HW261821  13.528  11.761  14.143
86642SOL     OW61822   0.848   0.321  12.983
86642SOL    HW161823   0.810   0.397  13.027
86642SOL    HW261824   0.782   0.252  12.996
86643SOL     OW61825   3.613   4.238   6.302
86643SOL    HW161826   3.694   4.241   6.251
86643SOL    HW261827   3.560   4.170   6.260
86644SOL     OW61828   8.820   1.556  10.909
86644SOL    HW161829   8.763   1.616  10.957
86644SOL    HW261830   8.899   1.608  10.892
86645SOL     OW61831  10.966  14.741  14.540
86645SOL    HW161832  10.897  14.741  14.474
86645SOL    HW261833  11.041  14.699  14.497
86646SOL     OW61834   8.231   1.229  10.517
86646SOL    HW161835   8.250   1.273  10.599
86646SOL    HW261836   8.136   1.213  10.519
86647SOL     OW61837  13.409   2.570  11.736
86647SOL    HW161838  13.342   2.594  11.673
86647SOL    HW261839  13.423   2.476  11.723
86648SOL     OW61840   7.461   6.742   9.776
86648SOL    HW161841   7.415   6.805   9.831
86648SOL    HW261842   7.392   6.704   9.721
86649SOL     OW61843  12.029   8.215   5.190
86649SOL    HW161844  12.095   8.200   5.122
86649SOL    HW261845  11.976   8.287   5.157
86650SOL     OW61846   4.438   4.663  14.564
86650SOL    HW161847   4.501   4.594  14.585
86650SOL    HW261848   4.354   4.627  14.594
86651SOL     OW61849  13.561   0.466  13.045
86651SOL    HW161850  13.650   0.487  13.073
86651SOL    HW261851  13.570   0.439  12.954
86652SOL     OW61852   3.767   3.677  10.674
86652SOL    HW161853   3.820   3.731  10.614
86652SOL    HW261854   3.783   3.587  10.645
86653SOL     OW61855   7.864   8.854   9.093
86653SOL    HW161856   7.935   8.799   9.128
86653SOL    HW261857   7.906   8.905   9.024
86654SOL     OW61858   6.485  12.778  10.050
86654SOL    HW161859   6.543  12.846  10.017
86654SOL    HW261860   6.397  12.806  10.025
86655SOL     OW61861   6.135   8.088   0.230
86655SOL    HW161862   6.188   8.012   0.209
86655SOL    HW261863   6.091   8.111   0.148
86656SOL     OW61864   9.596   5.601   9.479
86656SOL    HW161865   9.612   5.614   9.386
86656SOL    HW261866   9.680   5.618   9.521
86657SOL     OW61867   5.937   1.734   5.716
86657SOL    HW161868   5.856   1.688   5.695
86657SOL    HW261869   5.909   1.814   5.760
86658SOL     OW61870  13.839   1.484   0.625
86658SOL    HW161871  13.768   1.447   0.573
86658SOL    HW261872  13.904   1.413   0.631
86659SOL     OW61873  13.115   5.362   2.282
86659SOL    HW161874  13.098   5.296   2.215
86659SOL    HW261875  13.032   5.410   2.290
86660SOL     OW61876   6.720   3.146  11.516
86660SOL    HW161877   6.806   3.119  11.483
86660SOL    HW261878   6.685   3.204  11.448
86661SOL     OW61879  10.406   3.181   2.756
86661SOL    HW161880  10.477   3.118   2.766
86661SOL    HW261881  10.439   3.245   2.692
86662SOL     OW61882  11.935   2.394   2.908
86662SOL    HW161883  11.989   2.403   2.986
86662SOL    HW261884  11.900   2.482   2.893
86663SOL     OW61885   9.008  10.801   7.225
86663SOL    HW161886   9.012  10.745   7.148
86663SOL    HW261887   9.009  10.741   7.300
86664SOL     OW61888   5.479  12.168  12.117
86664SOL    HW161889   5.420  12.100  12.084
86664SOL    HW261890   5.547  12.119  12.164
86665SOL     OW61891   7.620   8.974   1.589
86665SOL    HW161892   7.688   9.036   1.561
86665SOL    HW261893   7.603   8.997   1.680
86666SOL     OW61894   6.817   2.374   6.272
86666SOL    HW161895   6.843   2.430   6.198
86666SOL    HW261896   6.773   2.434   6.333
86667SOL     OW61897   0.372   4.356  14.881
86667SOL    HW161898   0.428   4.433  14.879
86667SOL    HW261899   0.410   4.295  14.818
86668SOL     OW61900  11.301  10.394   7.406
86668SOL    HW161901  11.313  10.483   7.372
86668SOL    HW261902  11.388  10.355   7.404
86669SOL     OW61903   3.399   8.383   8.508
86669SOL    HW161904   3.424   8.358   8.598
86669SOL    HW261905   3.481   8.411   8.468
86670SOL     OW61906  14.606   1.534   1.399
86670SOL    HW161907  14.638   1.471   1.334
86670SOL    HW261908  14.511   1.519   1.403
86671SOL     OW61909   1.131  12.585  11.341
86671SOL    HW161910   1.189  12.602  11.416
86671SOL    HW261911   1.182  12.528  11.284
86672SOL     OW61912   0.336  12.351   8.389
86672SOL    HW161913   0.314  12.424   8.447
86672SOL    HW261914   0.347  12.276   8.447
86673SOL     OW61915   7.436   3.496  11.351
86673SOL    HW161916   7.404   3.434  11.417
86673SOL    HW261917   7.383   3.478  11.273
86674SOL     OW61918   7.115   2.432   7.890
86674SOL    HW161919   7.088   2.409   7.979
86674SOL    HW261920   7.210   2.430   7.893
86675SOL     OW61921  13.953   8.902   7.980
86675SOL    HW161922  13.901   8.843   8.035
86675SOL    HW261923  13.967   8.854   7.899
86676SOL     OW61924   7.097  13.006  12.980
86676SOL    HW161925   7.125  12.948  13.051
86676SOL    HW261926   7.179  13.037  12.941
86677SOL     OW61927  13.924  11.244   9.460
86677SOL    HW161928  13.987  11.224   9.391
86677SOL    HW261929  13.952  11.328   9.495
86678SOL     OW61930   6.537   7.529   6.118
86678SOL    HW161931   6.613   7.473   6.102
86678SOL    HW261932   6.486   7.523   6.037
86679SOL     OW61933  11.870   3.061   5.647
86679SOL    HW161934  11.792   3.114   5.632
86679SOL    HW261935  11.915   3.104   5.720
86680SOL     OW61936   8.385  10.605   7.644
86680SOL    HW161937   8.380  10.676   7.581
86680SOL    HW261938   8.478  10.601   7.668
86681SOL     OW61939   4.930  11.671   9.480
86681SOL    HW161940   4.960  11.755   9.515
86681SOL    HW261941   4.906  11.620   9.557
86682SOL     OW61942   2.191   6.621   6.381
86682SOL    HW161943   2.134   6.598   6.308
86682SOL    HW261944   2.274   6.647   6.340
86683SOL     OW61945   2.971   8.353   8.545
86683SOL    HW161946   2.881   8.383   8.559
86683SOL    HW261947   3.022   8.433   8.533
86684SOL     OW61948  12.870   3.093   1.709
86684SOL    HW161949  12.807   3.022   1.721
86684SOL    HW261950  12.855   3.125   1.621
86685SOL     OW61951  13.378   2.758  13.869
86685SOL    HW161952  13.379   2.739  13.963
86685SOL    HW261953  13.285   2.760  13.845
86686SOL     OW61954   8.785   2.920  10.943
86686SOL    HW161955   8.775   3.009  10.910
86686SOL    HW261956   8.705   2.905  10.995
86687SOL     OW61957   5.543   9.549  13.707
86687SOL    HW161958   5.605   9.494  13.657
86687SOL    HW261959   5.507   9.489  13.773
86688SOL     OW61960  10.083  11.330   3.051
86688SOL    HW161961  10.137  11.325   3.130
86688SOL    HW261962  10.087  11.423   3.026
86689SOL     OW61963   7.654   6.060   2.764
86689SOL    HW161964   7.688   6.137   2.811
86689SOL    HW261965   7.711   5.989   2.791
86690SOL     OW61966  10.395  13.857   6.441
86690SOL    HW161967  10.419  13.888   6.529
86690SOL    HW261968  10.478  13.853   6.394
86691SOL     OW61969   8.889   1.385   1.680
86691SOL    HW161970   8.871   1.313   1.619
86691SOL    HW261971   8.877   1.346   1.766
86692SOL     OW61972   3.469   8.653   0.316
86692SOL    HW161973   3.517   8.622   0.394
86692SOL    HW261974   3.377   8.639   0.337
86693SOL     OW61975  11.887   6.207   0.101
86693SOL    HW161976  11.854   6.262   0.172
86693SOL    HW261977  11.880   6.118   0.134
86694SOL     OW61978   6.795   2.333   1.487
86694SOL    HW161979   6.830   2.369   1.405
86694SOL    HW261980   6.804   2.405   1.550
86695SOL     OW61981  11.914   6.089  14.508
86695SOL    HW161982  11.881   6.147  14.577
86695SOL    HW261983  11.838   6.036  14.483
86696SOL     OW61984   8.154   3.996  12.945
86696SOL    HW161985   8.108   4.030  12.868
86696SOL    HW261986   8.204   4.070  12.977
86697SOL     OW61987   7.963   0.440   7.826
86697SOL    HW161988   7.996   0.527   7.802
86697SOL    HW261989   7.875   0.438   7.789
86698SOL     OW61990   2.859  10.262   9.726
86698SOL    HW161991   2.853  10.316   9.805
86698SOL    HW261992   2.890  10.177   9.757
86699SOL     OW61993  11.507   5.095   6.117
86699SOL    HW161994  11.586   5.091   6.172
86699SOL    HW261995  11.440   5.049   6.169
86700SOL     OW61996  11.559  11.837   3.932
86700SOL    HW161997  11.602  11.752   3.928
86700SOL    HW261998  11.516  11.847   3.847
86701SOL     OW61999  12.147   2.837  10.793
86701SOL    HW162000  12.080   2.823  10.859
86701SOL    HW262001  12.215   2.888  10.837
86702SOL     OW62002   1.187   4.669   3.059
86702SOL    HW162003   1.166   4.603   3.126
86702SOL    HW262004   1.282   4.666   3.051
86703SOL     OW62005   1.700   5.997   6.778
86703SOL    HW162006   1.605   6.004   6.791
86703SOL    HW262007   1.719   6.061   6.709
86704SOL     OW62008   7.145  13.066   6.455
86704SOL    HW162009   7.149  13.156   6.424
86704SOL    HW262010   7.082  13.068   6.528
86705SOL     OW62011  11.653   3.178  12.094
86705SOL    HW162012  11.665   3.259  12.145
86705SOL    HW262013  11.719   3.118  12.129
86706SOL     OW62014   7.051  11.452   4.276
86706SOL    HW162015   6.995  11.472   4.201
86706SOL    HW262016   7.051  11.356   4.281
86707SOL     OW62017   2.257   5.120   1.788
86707SOL    HW162018   2.348   5.091   1.790
86707SOL    HW262019   2.244   5.163   1.873
86708SOL     OW62020   9.967   9.524   0.678
86708SOL    HW162021   9.879   9.521   0.715
86708SOL    HW262022   9.953   9.529   0.583
86709SOL     OW62023   9.092  11.572   0.560
86709SOL    HW162024   9.183  11.567   0.530
86709SOL    HW262025   9.082  11.495   0.617
86710SOL     OW62026   5.902   3.020   8.496
86710SOL    HW162027   5.965   2.971   8.444
86710SOL    HW262028   5.895   3.105   8.453
86711SOL     OW62029   5.871  13.981  12.070
86711SOL    HW162030   5.921  13.976  12.151
86711SOL    HW262031   5.852  14.074  12.059
86712SOL     OW62032   8.307   6.780  12.362
86712SOL    HW162033   8.312   6.697  12.410
86712SOL    HW262034   8.228   6.823  12.395
86713SOL     OW62035   0.438   8.156   3.304
86713SOL    HW162036   0.534   8.160   3.303
86713SOL    HW262037   0.418   8.062   3.302
86714SOL     OW62038  12.934  11.808   2.634
86714SOL    HW162039  13.015  11.856   2.617
86714SOL    HW262040  12.944  11.773   2.722
86715SOL     OW62041  11.720  14.789   5.984
86715SOL    HW162042  11.681  14.814   6.068
86715SOL    HW262043  11.725  14.871   5.935
86716SOL     OW62044   0.566   6.512   8.804
86716SOL    HW162045   0.527   6.534   8.889
86716SOL    HW262046   0.494   6.518   8.742
86717SOL     OW62047   8.035   3.695  11.515
86717SOL    HW162048   7.995   3.653  11.591
86717SOL    HW262049   7.964   3.706  11.453
86718SOL     OW62050  12.280   5.585   5.014
86718SOL    HW162051  12.288   5.563   5.107
86718SOL    HW262052  12.333   5.517   4.970
86719SOL     OW62053  14.195   3.011   7.632
86719SOL    HW162054  14.192   3.052   7.718
86719SOL    HW262055  14.180   2.918   7.649
86720SOL     OW62056   1.664   5.733   1.592
86720SOL    HW162057   1.594   5.700   1.649
86720SOL    HW262058   1.653   5.684   1.511
86721SOL     OW62059  10.119   3.145  13.773
86721SOL    HW162060  10.060   3.069  13.775
86721SOL    HW262061  10.161   3.145  13.859
86722SOL     OW62062   3.674  11.612   9.550
86722SOL    HW162063   3.701  11.606   9.459
86722SOL    HW262064   3.746  11.574   9.599
86723SOL     OW62065   9.369   8.908   0.475
86723SOL    HW162066   9.280   8.941   0.461
86723SOL    HW262067   9.418   8.937   0.398
86724SOL     OW62068   3.665   1.096  13.816
86724SOL    HW162069   3.655   1.001  13.819
86724SOL    HW262070   3.748   1.113  13.860
86725SOL     OW62071   4.226   0.495   4.305
86725SOL    HW162072   4.284   0.451   4.242
86725SOL    HW262073   4.185   0.565   4.254
86726SOL     OW62074   0.838   7.925  12.224
86726SOL    HW162075   0.841   7.831  12.207
86726SOL    HW262076   0.884   7.965  12.150
86727SOL     OW62077  11.808   1.919  11.377
86727SOL    HW162078  11.894   1.929  11.418
86727SOL    HW262079  11.815   1.840  11.324
86728SOL     OW62080   4.852   8.000   3.414
86728SOL    HW162081   4.921   7.957   3.464
86728SOL    HW262082   4.784   8.019   3.479
86729SOL     OW62083   2.991   7.239   3.759
86729SOL    HW162084   3.067   7.297   3.768
86729SOL    HW262085   2.942   7.251   3.840
86730SOL     OW62086   6.565   1.784   5.253
86730SOL    HW162087   6.477   1.797   5.217
86730SOL    HW262088   6.591   1.698   5.220
86731SOL     OW62089  12.439   8.059  12.493
86731SOL    HW162090  12.435   8.117  12.417
86731SOL    HW262091  12.441   8.119  12.568
86732SOL     OW62092  10.149   8.831   1.493
86732SOL    HW162093  10.122   8.772   1.423
86732SOL    HW262094  10.230   8.871   1.461
86733SOL     OW62095   1.605  14.563   9.196
86733SOL    HW162096   1.551  14.541   9.272
86733SOL    HW262097   1.682  14.606   9.233
86734SOL     OW62098   0.306   0.810   4.200
86734SOL    HW162099   0.384   0.851   4.238
86734SOL    HW262100   0.270   0.878   4.143
86735SOL     OW62101   7.144   2.971  12.488
86735SOL    HW162102   7.114   3.042  12.544
86735SOL    HW262103   7.132   2.892  12.541
86736SOL     OW62104   6.668   9.518  10.979
86736SOL    HW162105   6.710   9.511  11.065
86736SOL    HW262106   6.575   9.532  10.999
86737SOL     OW62107   0.268  10.425   8.025
86737SOL    HW162108   0.278  10.512   7.986
86737SOL    HW262109   0.237  10.370   7.954
86738SOL     OW62110   7.202   4.217   8.747
86738SOL    HW162111   7.215   4.283   8.815
86738SOL    HW262112   7.131   4.251   8.693
86739SOL     OW62113  12.591  14.631  13.553
86739SOL    HW162114  12.674  14.674  13.532
86739SOL    HW262115  12.615  14.541  13.576
86740SOL     OW62116  10.490   2.515   2.754
86740SOL    HW162117  10.573   2.470   2.764
86740SOL    HW262118  10.424   2.447   2.767
86741SOL     OW62119  13.469  13.482   2.223
86741SOL    HW162120  13.507  13.537   2.154
86741SOL    HW262121  13.437  13.544   2.288
86742SOL     OW62122  11.023   8.558  12.844
86742SOL    HW162123  11.059   8.532  12.928
86742SOL    HW262124  10.929   8.569  12.861
86743SOL     OW62125   3.480   4.738  14.601
86743SOL    HW162126   3.417   4.776  14.662
86743SOL    HW262127   3.516   4.814  14.554
86744SOL     OW62128   8.083   6.405   5.512
86744SOL    HW162129   8.030   6.329   5.536
86744SOL    HW262130   8.137   6.422   5.589
86745SOL     OW62131  11.445   9.548  11.692
86745SOL    HW162132  11.391   9.476  11.723
86745SOL    HW262133  11.476   9.520  11.606
86746SOL     OW62134   9.896  11.477  12.063
86746SOL    HW162135   9.902  11.382  12.071
86746SOL    HW262136   9.942  11.497  11.981
86747SOL     OW62137   2.231  11.238   2.159
86747SOL    HW162138   2.150  11.253   2.110
86747SOL    HW262139   2.301  11.256   2.096
86748SOL     OW62140   4.460   4.814  13.981
86748SOL    HW162141   4.379   4.866  13.976
86748SOL    HW262142   4.432   4.725  13.961
86749SOL     OW62143  13.291   4.229   0.145
86749SOL    HW162144  13.220   4.263   0.199
86749SOL    HW262145  13.331   4.307   0.106
86750SOL     OW62146   4.977   4.605  13.084
86750SOL    HW162147   5.070   4.600  13.104
86750SOL    HW262148   4.934   4.611  13.170
86751SOL     OW62149  10.911  13.628   0.442
86751SOL    HW162150  10.999  13.639   0.478
86751SOL    HW262151  10.863  13.580   0.510
86752SOL     OW62152   0.184  13.768   3.244
86752SOL    HW162153   0.154  13.841   3.299
86752SOL    HW262154   0.273  13.791   3.220
86753SOL     OW62155   0.182   8.751  13.263
86753SOL    HW162156   0.180   8.828  13.206
86753SOL    HW262157   0.234   8.778  13.338
86754SOL     OW62158   6.665  10.208   1.990
86754SOL    HW162159   6.605  10.221   1.916
86754SOL    HW262160   6.611  10.165   2.057
86755SOL     OW62161   2.666  11.249   4.758
86755SOL    HW162162   2.732  11.183   4.782
86755SOL    HW262163   2.696  11.329   4.802
86756SOL     OW62164   9.660   5.754   7.430
86756SOL    HW162165   9.570   5.724   7.447
86756SOL    HW262166   9.679   5.725   7.341
86757SOL     OW62167  13.698   7.465   3.958
86757SOL    HW162168  13.671   7.552   3.932
86757SOL    HW262169  13.663   7.407   3.890
86758SOL     OW62170   2.293   0.043   8.260
86758SOL    HW162171   2.245  14.866   8.203
86758SOL    HW262172   2.247   0.039   8.344
86759SOL     OW62173   3.643   6.826   3.738
86759SOL    HW162174   3.632   6.918   3.764
86759SOL    HW262175   3.658   6.829   3.644
86760SOL     OW62176   9.073   5.093   6.973
86760SOL    HW162177   9.156   5.136   6.950
86760SOL    HW262178   9.006   5.156   6.949
86761SOL     OW62179  13.493   5.200  10.969
86761SOL    HW162180  13.494   5.250  10.888
86761SOL    HW262181  13.507   5.109  10.941
86762SOL     OW62182   8.171  10.634  13.767
86762SOL    HW162183   8.234  10.705  13.753
86762SOL    HW262184   8.209  10.559  13.721
86763SOL     OW62185   2.008   4.751   5.297
86763SOL    HW162186   1.931   4.766   5.241
86763SOL    HW262187   1.980   4.684   5.359
86764SOL     OW62188  11.523   6.012  13.620
86764SOL    HW162189  11.598   6.005  13.561
86764SOL    HW262190  11.509   5.923  13.651
86765SOL     OW62191   3.309  12.635   2.196
86765SOL    HW162192   3.335  12.710   2.250
86765SOL    HW262193   3.315  12.560   2.255
86766SOL     OW62194   7.561  12.794   0.479
86766SOL    HW162195   7.574  12.739   0.556
86766SOL    HW262196   7.583  12.737   0.405
86767SOL     OW62197  10.844   9.611   9.242
86767SOL    HW162198  10.820   9.662   9.319
86767SOL    HW262199  10.927   9.570   9.266
86768SOL     OW62200   6.599   9.014   9.488
86768SOL    HW162201   6.516   9.041   9.527
86768SOL    HW262202   6.606   8.921   9.508
86769SOL     OW62203   6.024   4.820   6.630
86769SOL    HW162204   6.057   4.816   6.720
86769SOL    HW262205   6.020   4.728   6.602
86770SOL     OW62206   7.197  10.772  12.253
86770SOL    HW162207   7.235  10.825  12.323
86770SOL    HW262208   7.120  10.731  12.293
86771SOL     OW62209   5.974  10.022  13.843
86771SOL    HW162210   6.032  10.082  13.796
86771SOL    HW262211   5.998   9.935  13.810
86772SOL     OW62212   7.351  14.424   1.687
86772SOL    HW162213   7.256  14.423   1.685
86772SOL    HW262214   7.376  14.332   1.692
86773SOL     OW62215   4.593   8.363   1.181
86773SOL    HW162216   4.509   8.330   1.150
86773SOL    HW262217   4.607   8.318   1.264
86774SOL     OW62218   4.400   6.314  13.373
86774SOL    HW162219   4.327   6.359  13.416
86774SOL    HW262220   4.475   6.332  13.429
86775SOL     OW62221   0.480  14.013   2.093
86775SOL    HW162222   0.523  13.955   2.030
86775SOL    HW262223   0.533  14.093   2.092
86776SOL     OW62224   2.665   3.646   3.176
86776SOL    HW162225   2.710   3.624   3.095
86776SOL    HW262226   2.735   3.669   3.237
86777SOL     OW62227  10.391   9.986  11.195
86777SOL    HW162228  10.424   9.900  11.221
86777SOL    HW262229  10.403   9.988  11.100
86778SOL     OW62230   1.923  11.070   0.830
86778SOL    HW162231   2.001  11.069   0.886
86778SOL    HW262232   1.858  11.119   0.880
86779SOL     OW62233   9.040   2.443  14.054
86779SOL    HW162234   8.988   2.486  14.122
86779SOL    HW262235   9.119   2.497  14.047
86780SOL     OW62236   7.506   2.432   2.291
86780SOL    HW162237   7.422   2.422   2.336
86780SOL    HW262238   7.523   2.346   2.252
86781SOL     OW62239   3.316   5.642   8.438
86781SOL    HW162240   3.268   5.561   8.419
86781SOL    HW262241   3.392   5.638   8.379
86782SOL     OW62242   9.449  10.820  12.529
86782SOL    HW162243   9.445  10.735  12.485
86782SOL    HW262244   9.357  10.842  12.547
86783SOL     OW62245   5.260  10.121  13.870
86783SOL    HW162246   5.208  10.109  13.949
86783SOL    HW262247   5.338  10.066  13.885
86784SOL     OW62248   1.983  11.758   6.775
86784SOL    HW162249   1.912  11.790   6.830
86784SOL    HW262250   1.940  11.707   6.707
86785SOL     OW62251   0.796  11.002   9.060
86785SOL    HW162252   0.793  11.086   9.015
86785SOL    HW262253   0.887  10.975   9.057
86786SOL     OW62254  13.448   0.602   7.157
86786SOL    HW162255  13.527   0.655   7.167
86786SOL    HW262256  13.451   0.572   7.066
86787SOL     OW62257   1.605  10.145   9.775
86787SOL    HW162258   1.645  10.097   9.847
86787SOL    HW262259   1.533  10.088   9.747
86788SOL     OW62260   9.108   5.862  12.531
86788SOL    HW162261   9.116   5.813  12.449
86788SOL    HW262262   9.062   5.942  12.506
86789SOL     OW62263  14.533   3.631   5.526
86789SOL    HW162264  14.488   3.604   5.445
86789SOL    HW262265  14.527   3.726   5.526
86790SOL     OW62266  10.088   2.766   7.247
86790SOL    HW162267  10.013   2.786   7.303
86790SOL    HW262268  10.062   2.795   7.160
86791SOL     OW62269   2.154  10.126   9.592
86791SOL    HW162270   2.220  10.184   9.630
86791SOL    HW262271   2.078  10.181   9.579
86792SOL     OW62272   9.488   6.714   0.679
86792SOL    HW162273   9.562   6.697   0.621
86792SOL    HW262274   9.435   6.778   0.631
86793SOL     OW62275  11.747   1.994  14.215
86793SOL    HW162276  11.702   1.910  14.205
86793SOL    HW262277  11.677   2.057  14.231
86794SOL     OW62278   9.759   0.034   6.512
86794SOL    HW162279   9.761  14.823   6.490
86794SOL    HW262280   9.850   0.056   6.533
86795SOL     OW62281   3.929   3.599   7.049
86795SOL    HW162282   3.894   3.612   7.137
86795SOL    HW262283   3.923   3.686   7.008
86796SOL     OW62284  10.721   5.666   5.376
86796SOL    HW162285  10.727   5.669   5.472
86796SOL    HW262286  10.719   5.573   5.355
86797SOL     OW62287   5.772   5.412   9.990
86797SOL    HW162288   5.810   5.471  10.055
86797SOL    HW262289   5.736   5.470   9.923
86798SOL     OW62290   1.210  13.396  14.262
86798SOL    HW162291   1.295  13.440  14.273
86798SOL    HW262292   1.147  13.456  14.302
86799SOL     OW62293   7.284  11.926   7.840
86799SOL    HW162294   7.322  11.890   7.760
86799SOL    HW262295   7.246  11.851   7.885
86800SOL     OW62296   1.517   2.899   8.980
86800SOL    HW162297   1.526   2.816   8.932
86800SOL    HW262298   1.477   2.874   9.063
86801SOL     OW62299   0.285  13.885   1.365
86801SOL    HW162300   0.318  13.856   1.280
86801SOL    HW262301   0.236  13.809   1.398
86802SOL     OW62302   4.611  12.741   5.651
86802SOL    HW162303   4.699  12.764   5.623
86802SOL    HW262304   4.561  12.823   5.646
86803SOL     OW62305   6.173   1.438   0.010
86803SOL    HW162306   6.260   1.406   0.031
86803SOL    HW262307   6.142   1.479   0.091
86804SOL     OW62308   7.791  11.632   0.487
86804SOL    HW162309   7.734  11.565   0.451
86804SOL    HW262310   7.794  11.614   0.581
86805SOL     OW62311  12.067   2.482  12.198
86805SOL    HW162312  12.124   2.530  12.137
86805SOL    HW262313  12.037   2.547  12.260
86806SOL     OW62314   5.682   7.374   5.755
86806SOL    HW162315   5.729   7.301   5.796
86806SOL    HW262316   5.723   7.384   5.669
86807SOL     OW62317  14.870   4.472  13.002
86807SOL    HW162318   0.039   4.403  12.960
86807SOL    HW262319   0.048   4.513  13.064
86808SOL     OW62320   6.312   8.365   2.861
86808SOL    HW162321   6.302   8.459   2.877
86808SOL    HW262322   6.405   8.348   2.873
86809SOL     OW62323   6.081   6.290   2.860
86809SOL    HW162324   6.114   6.304   2.949
86809SOL    HW262325   6.031   6.369   2.840
86810SOL     OW62326  11.296   5.810  10.209
86810SOL    HW162327  11.380   5.857  10.203
86810SOL    HW262328  11.253   5.828  10.126
86811SOL     OW62329   6.289   6.019   0.846
86811SOL    HW162330   6.270   5.973   0.928
86811SOL    HW262331   6.292   5.950   0.780
86812SOL     OW62332   6.495   3.785   2.402
86812SOL    HW162333   6.504   3.727   2.478
86812SOL    HW262334   6.571   3.763   2.347
86813SOL     OW62335   0.539   8.978   0.901
86813SOL    HW162336   0.591   8.952   0.977
86813SOL    HW262337   0.471   9.035   0.936
86814SOL     OW62338   3.425   1.182   4.372
86814SOL    HW162339   3.410   1.189   4.278
86814SOL    HW262340   3.500   1.124   4.380
86815SOL     OW62341   3.827   7.304  13.963
86815SOL    HW162342   3.771   7.276  13.891
86815SOL    HW262343   3.799   7.251  14.037
86816SOL     OW62344   4.673   4.382   1.304
86816SOL    HW162345   4.743   4.410   1.246
86816SOL    HW262346   4.617   4.459   1.313
86817SOL     OW62347   8.422   7.835   8.037
86817SOL    HW162348   8.409   7.788   7.955
86817SOL    HW262349   8.499   7.889   8.022
86818SOL     OW62350  12.278   1.649   5.038
86818SOL    HW162351  12.339   1.576   5.048
86818SOL    HW262352  12.225   1.647   5.117
86819SOL     OW62353   7.513   2.072   8.237
86819SOL    HW162354   7.580   2.136   8.263
86819SOL    HW262355   7.559   1.987   8.240
86820SOL     OW62356   4.636  13.129   4.531
86820SOL    HW162357   4.688  13.209   4.523
86820SOL    HW262358   4.560  13.155   4.584
86821SOL     OW62359   2.429  13.541  14.777
86821SOL    HW162360   2.485  13.547  14.855
86821SOL    HW262361   2.342  13.522  14.812
86822SOL     OW62362   2.921   8.998   5.649
86822SOL    HW162363   2.927   8.968   5.558
86822SOL    HW262364   2.901   9.091   5.643
86823SOL     OW62365  10.116   3.269   6.741
86823SOL    HW162366  10.113   3.350   6.791
86823SOL    HW262367  10.038   3.220   6.770
86824SOL     OW62368   7.900  13.510   9.696
86824SOL    HW162369   7.968  13.496   9.762
86824SOL    HW262370   7.887  13.424   9.655
86825SOL     OW62371   8.114  10.604   3.053
86825SOL    HW162372   8.060  10.559   2.988
86825SOL    HW262373   8.053  10.627   3.123
86826SOL     OW62374   4.333   0.255   6.708
86826SOL    HW162375   4.299   0.314   6.775
86826SOL    HW262376   4.258   0.199   6.687
86827SOL     OW62377   8.565  14.735   3.757
86827SOL    HW162378   8.660  14.736   3.749
86827SOL    HW262379   8.543  14.646   3.785
86828SOL     OW62380  14.260   9.172   7.578
86828SOL    HW162381  14.328   9.228   7.541
86828SOL    HW262382  14.261   9.093   7.523
86829SOL     OW62383  13.276  11.920   0.033
86829SOL    HW162384  13.269  11.874  14.831
86829SOL    HW262385  13.254  11.855   0.099
86830SOL     OW62386   6.579   3.434   2.176
86830SOL    HW162387   6.488   3.450   2.153
86830SOL    HW262388   6.611   3.518   2.207
86831SOL     OW62389  14.551   5.105   3.496
86831SOL    HW162390  14.644   5.121   3.479
86831SOL    HW262391  14.518   5.067   3.415
86832SOL     OW62392   0.781  13.936   0.380
86832SOL    HW162393   0.746  14.006   0.324
86832SOL    HW262394   0.873  13.959   0.392
86833SOL     OW62395  14.288  12.470  14.040
86833SOL    HW162396  14.317  12.559  14.058
86833SOL    HW262397  14.198  12.466  14.073
86834SOL     OW62398  12.745   4.849  14.335
86834SOL    HW162399  12.781   4.840  14.423
86834SOL    HW262400  12.822   4.858  14.279
86835SOL     OW62401   4.725   7.259  10.661
86835SOL    HW162402   4.654   7.321  10.673
86835SOL    HW262403   4.723   7.237  10.568
86836SOL     OW62404   2.036   7.026  12.934
86836SOL    HW162405   2.101   7.020  13.004
86836SOL    HW262406   2.049   7.113  12.896
86837SOL     OW62407   6.765  11.630  13.855
86837SOL    HW162408   6.821  11.570  13.805
86837SOL    HW262409   6.758  11.708  13.801
86838SOL     OW62410  10.117   8.079   1.490
86838SOL    HW162411  10.196   8.106   1.443
86838SOL    HW262412  10.150   8.045   1.573
86839SOL     OW62413   2.791   5.576  10.490
86839SOL    HW162414   2.797   5.662  10.532
86839SOL    HW262415   2.726   5.529  10.541
86840SOL     OW62416   8.854  10.991  14.504
86840SOL    HW162417   8.880  10.900  14.498
86840SOL    HW262418   8.926  11.034  14.550
86841SOL     OW62419   0.543   3.875   8.352
86841SOL    HW162420   0.612   3.812   8.333
86841SOL    HW262421   0.564   3.907   8.440
86842SOL     OW62422   5.498  14.190   5.881
86842SOL    HW162423   5.434  14.261   5.877
86842SOL    HW262424   5.542  14.193   5.795
86843SOL     OW62425   1.497   3.965   2.070
86843SOL    HW162426   1.522   4.000   1.984
86843SOL    HW262427   1.402   3.956   2.066
86844SOL     OW62428   3.003   9.894   1.982
86844SOL    HW162429   3.084   9.940   2.006
86844SOL    HW262430   2.959   9.953   1.921
86845SOL     OW62431   0.812   4.362  12.419
86845SOL    HW162432   0.736   4.314  12.452
86845SOL    HW262433   0.820   4.333  12.328
86846SOL     OW62434   0.167   5.012   4.331
86846SOL    HW162435   0.258   5.013   4.300
86846SOL    HW262436   0.136   5.102   4.317
86847SOL     OW62437  10.123   2.859   3.791
86847SOL    HW162438  10.201   2.810   3.765
86847SOL    HW262439  10.155   2.946   3.814
86848SOL     OW62440  10.103   8.013  10.879
86848SOL    HW162441  10.177   7.974  10.926
86848SOL    HW262442  10.096   7.962  10.798
86849SOL     OW62443   4.833   5.003   4.685
86849SOL    HW162444   4.903   4.939   4.677
86849SOL    HW262445   4.876   5.082   4.717
86850SOL     OW62446  12.210   4.692   7.234
86850SOL    HW162447  12.215   4.596   7.237
86850SOL    HW262448  12.299   4.720   7.214
86851SOL     OW62449  10.881   6.426   6.879
86851SOL    HW162450  10.874   6.520   6.860
86851SOL    HW262451  10.858   6.418   6.971
86852SOL     OW62452   1.611   4.554   3.978
86852SOL    HW162453   1.582   4.469   4.013
86852SOL    HW262454   1.634   4.605   4.056
86853SOL     OW62455   3.350   1.829   3.978
86853SOL    HW162456   3.387   1.747   3.945
86853SOL    HW262457   3.357   1.822   4.073
86854SOL     OW62458  14.030   0.935   0.782
86854SOL    HW162459  14.104   0.975   0.736
86854SOL    HW262460  14.003   1.002   0.845
86855SOL     OW62461   0.379  10.057  12.346
86855SOL    HW162462   0.367  10.148  12.318
86855SOL    HW262463   0.408  10.063  12.437
86856SOL     OW62464   1.853   9.118   5.335
86856SOL    HW162465   1.835   9.037   5.288
86856SOL    HW262466   1.771   9.140   5.379
86857SOL     OW62467   8.950   1.112   7.769
86857SOL    HW162468   8.965   1.082   7.679
86857SOL    HW262469   8.958   1.207   7.763
86858SOL     OW62470   4.450   9.892  13.151
86858SOL    HW162471   4.437   9.906  13.245
86858SOL    HW262472   4.544   9.885  13.140
86859SOL     OW62473   5.375   1.321   3.201
86859SOL    HW162474   5.312   1.378   3.157
86859SOL    HW262475   5.321   1.260   3.251
86860SOL     OW62476  13.003  13.792   6.519
86860SOL    HW162477  12.967  13.748   6.596
86860SOL    HW262478  13.028  13.721   6.460
86861SOL     OW62479   6.478   8.093  13.622
86861SOL    HW162480   6.545   8.046  13.672
86861SOL    HW262481   6.396   8.067  13.664
86862SOL     OW62482   0.905   5.668   5.503
86862SOL    HW162483   0.940   5.704   5.421
86862SOL    HW262484   0.974   5.684   5.568
86863SOL     OW62485  14.255   1.902   2.293
86863SOL    HW162486  14.275   1.975   2.352
86863SOL    HW262487  14.178   1.860   2.332
86864SOL     OW62488   2.175  12.452  14.856
86864SOL    HW162489   2.157  12.408  14.773
86864SOL    HW262490   2.122  12.532  14.854
86865SOL     OW62491   5.684   0.404  13.393
86865SOL    HW162492   5.596   0.443  13.391
86865SOL    HW262493   5.672   0.315  13.362
86866SOL     OW62494   7.031  12.609  12.094
86866SOL    HW162495   7.022  12.695  12.052
86866SOL    HW262496   6.998  12.547  12.029
86867SOL     OW62497  10.593  12.954  12.260
86867SOL    HW162498  10.590  12.873  12.210
86867SOL    HW262499  10.672  12.999  12.228
86868SOL     OW62500  13.706  13.510   0.907
86868SOL    HW162501  13.766  13.513   0.833
86868SOL    HW262502  13.720  13.424   0.946
86869SOL     OW62503   2.348   7.427   5.495
86869SOL    HW162504   2.320   7.345   5.537
86869SOL    HW262505   2.336   7.411   5.401
86870SOL     OW62506  12.388   5.583  12.006
86870SOL    HW162507  12.337   5.580  12.087
86870SOL    HW262508  12.346   5.651  11.954
86871SOL     OW62509  13.449   8.968   6.018
86871SOL    HW162510  13.394   8.892   6.038
86871SOL    HW262511  13.391   9.030   5.975
86872SOL     OW62512   1.172   1.352   4.557
86872SOL    HW162513   1.114   1.416   4.514
86872SOL    HW262514   1.236   1.406   4.603
86873SOL     OW62515  10.847  10.464   4.996
86873SOL    HW162516  10.766  10.414   5.003
86873SOL    HW262517  10.903  10.412   4.939
86874SOL     OW62518   2.654  10.665   4.184
86874SOL    HW162519   2.691  10.666   4.272
86874SOL    HW262520   2.727  10.693   4.128
86875SOL     OW62521  14.001   1.862   8.424
86875SOL    HW162522  14.025   1.791   8.364
86875SOL    HW262523  13.906   1.853   8.434
86876SOL     OW62524  13.646   7.080   1.898
86876SOL    HW162525  13.637   7.028   1.977
86876SOL    HW262526  13.740   7.099   1.893
86877SOL     OW62527   7.093   6.459   3.949
86877SOL    HW162528   7.126   6.518   3.882
86877SOL    HW262529   7.150   6.474   4.024
86878SOL     OW62530   4.874   1.334  11.564
86878SOL    HW162531   4.923   1.411  11.593
86878SOL    HW262532   4.848   1.290  11.644
86879SOL     OW62533   7.832   9.148  14.326
86879SOL    HW162534   7.805   9.237  14.350
86879SOL    HW262535   7.927   9.154  14.318
86880SOL     OW62536  14.219   0.011   8.218
86880SOL    HW162537  14.189   0.074   8.153
86880SOL    HW262538  14.312   0.032   8.230
86881SOL     OW62539   8.529   9.617   3.404
86881SOL    HW162540   8.521   9.709   3.381
86881SOL    HW262541   8.525   9.615   3.500
86882SOL     OW62542  11.270   6.895   5.903
86882SOL    HW162543  11.285   6.803   5.925
86882SOL    HW262544  11.279   6.942   5.986
86883SOL     OW62545   5.629   3.980   9.106
86883SOL    HW162546   5.536   3.982   9.130
86883SOL    HW262547   5.660   4.070   9.119
86884SOL     OW62548   4.599  11.209   2.740
86884SOL    HW162549   4.533  11.164   2.792
86884SOL    HW262550   4.620  11.288   2.791
86885SOL     OW62551   2.477  12.920  14.098
86885SOL    HW162552   2.435  12.999  14.133
86885SOL    HW262553   2.557  12.911  14.149
86886SOL     OW62554  12.920  10.528   8.381
86886SOL    HW162555  12.957  10.558   8.298
86886SOL    HW262556  12.995  10.520   8.440
86887SOL     OW62557   2.624   1.819   4.731
86887SOL    HW162558   2.535   1.822   4.696
86887SOL    HW262559   2.635   1.729   4.761
86888SOL     OW62560   7.144  14.021   2.258
86888SOL    HW162561   7.203  13.949   2.282
86888SOL    HW262562   7.171  14.045   2.170
86889SOL     OW62563   2.183   2.016  12.977
86889SOL    HW162564   2.092   2.004  12.948
86889SOL    HW262565   2.183   1.991  13.069
86890SOL     OW62566  13.739  14.436   8.983
86890SOL    HW162567  13.646  14.459   8.984
86890SOL    HW262568  13.744  14.355   9.033
86891SOL     OW62569   9.676  10.200   0.524
86891SOL    HW162570   9.749  10.162   0.573
86891SOL    HW262571   9.700  10.292   0.512
86892SOL     OW62572  12.379   6.611  10.303
86892SOL    HW162573  12.301   6.640  10.351
86892SOL    HW262574  12.408   6.689  10.255
86893SOL     OW62575   6.924   2.857  11.131
86893SOL    HW162576   6.957   2.931  11.182
86893SOL    HW262577   6.846   2.891  11.087
86894SOL     OW62578   3.950  11.095   1.317
86894SOL    HW162579   4.015  11.030   1.340
86894SOL    HW262580   3.982  11.176   1.356
86895SOL     OW62581   6.558   8.769   4.321
86895SOL    HW162582   6.584   8.715   4.247
86895SOL    HW262583   6.484   8.722   4.360
86896SOL     OW62584   3.222   1.669  11.094
86896SOL    HW162585   3.215   1.762  11.117
86896SOL    HW262586   3.296   1.666  11.033
86897SOL     OW62587   6.105   0.444   9.319
86897SOL    HW162588   6.126   0.478   9.406
86897SOL    HW262589   6.100   0.521   9.263
86898SOL     OW62590  11.410  11.000   3.081
86898SOL    HW162591  11.394  10.906   3.075
86898SOL    HW262592  11.493  11.013   3.035
86899SOL     OW62593   0.398   2.997   7.636
86899SOL    HW162594   0.334   2.988   7.707
86899SOL    HW262595   0.346   3.012   7.558
86900SOL     OW62596   5.586   8.459   8.453
86900SOL    HW162597   5.500   8.498   8.440
86900SOL    HW262598   5.639   8.530   8.490
86901SOL     OW62599   6.823  14.568   2.359
86901SOL    HW162600   6.914  14.542   2.377
86901SOL    HW262601   6.823  14.663   2.368
86902SOL     OW62602  11.798  10.124   0.249
86902SOL    HW162603  11.842  10.209   0.255
86902SOL    HW262604  11.712  10.144   0.213
86903SOL     OW62605   2.259   2.641   7.237
86903SOL    HW162606   2.196   2.687   7.292
86903SOL    HW262607   2.344   2.657   7.279
86904SOL     OW62608   2.880  12.812  12.775
86904SOL    HW162609   2.932  12.890  12.755
86904SOL    HW262610   2.840  12.788  12.691
86905SOL     OW62611  12.787   0.581   9.685
86905SOL    HW162612  12.694   0.563   9.692
86905SOL    HW262613  12.817   0.587   9.776
86906SOL     OW62614   7.307   8.994   1.796
86906SOL    HW162615   7.368   9.062   1.766
86906SOL    HW262616   7.362   8.920   1.818
86907SOL     OW62617   3.851  10.983  11.387
86907SOL    HW162618   3.930  11.034  11.373
86907SOL    HW262619   3.780  11.037  11.353
86908SOL     OW62620  13.823   3.236   6.505
86908SOL    HW162621  13.797   3.190   6.425
86908SOL    HW262622  13.798   3.327   6.488
86909SOL     OW62623   5.961   2.901   2.310
86909SOL    HW162624   5.988   2.831   2.370
86909SOL    HW262625   6.033   2.964   2.313
86910SOL     OW62626   7.516   6.629   9.131
86910SOL    HW162627   7.610   6.611   9.135
86910SOL    HW262628   7.483   6.565   9.067
86911SOL     OW62629   7.054   4.952   5.543
86911SOL    HW162630   7.133   5.001   5.520
86911SOL    HW262631   7.084   4.883   5.602
86912SOL     OW62632   3.009   0.921   2.728
86912SOL    HW162633   2.914   0.935   2.720
86912SOL    HW262634   3.037   0.988   2.790
86913SOL     OW62635  12.080   4.821   2.913
86913SOL    HW162636  12.107   4.730   2.925
86913SOL    HW262637  12.108   4.866   2.992
86914SOL     OW62638  13.101  11.259   1.061
86914SOL    HW162639  13.058  11.339   1.089
86914SOL    HW262640  13.102  11.264   0.965
86915SOL     OW62641  14.205  10.552   7.724
86915SOL    HW162642  14.259  10.478   7.752
86915SOL    HW262643  14.261  10.601   7.663
86916SOL     OW62644   2.601  14.308  14.597
86916SOL    HW162645   2.528  14.247  14.588
86916SOL    HW262646   2.572  14.370  14.664
86917SOL     OW62647   1.964   5.412   5.947
86917SOL    HW162648   1.940   5.455   5.865
86917SOL    HW262649   2.058   5.427   5.956
86918SOL     OW62650   2.440   3.216   5.321
86918SOL    HW162651   2.464   3.218   5.229
86918SOL    HW262652   2.356   3.171   5.323
86919SOL     OW62653   0.615   8.026   5.357
86919SOL    HW162654   0.620   8.047   5.264
86919SOL    HW262655   0.569   7.943   5.361
86920SOL     OW62656   0.177   3.790   0.307
86920SOL    HW162657   0.091   3.779   0.347
86920SOL    HW262658   0.166   3.757   0.218
86921SOL     OW62659  12.732   9.353  12.366
86921SOL    HW162660  12.765   9.268  12.337
86921SOL    HW262661  12.775   9.416  12.308
86922SOL     OW62662  14.852   6.893   2.083
86922SOL    HW162663  14.868   6.936   2.000
86922SOL    HW262664  14.831   6.802   2.060
86923SOL     OW62665  11.505  11.117  11.362
86923SOL    HW162666  11.584  11.160  11.396
86923SOL    HW262667  11.515  11.025  11.387
86924SOL     OW62668  11.922  14.570  13.285
86924SOL    HW162669  11.970  14.565  13.368
86924SOL    HW262670  11.924  14.481  13.251
86925SOL     OW62671   3.475  11.449   0.511
86925SOL    HW162672   3.570  11.453   0.518
86925SOL    HW262673   3.455  11.500   0.433
86926SOL     OW62674   4.228  11.202   1.140
86926SOL    HW162675   4.178  11.280   1.117
86926SOL    HW262676   4.164  11.131   1.144
86927SOL     OW62677  14.261   5.886  12.061
86927SOL    HW162678  14.244   5.799  12.098
86927SOL    HW262679  14.262   5.872  11.966
86928SOL     OW62680  10.236  13.663  13.571
86928SOL    HW162681  10.189  13.598  13.622
86928SOL    HW262682  10.227  13.633  13.480
86929SOL     OW62683   2.607   2.230   8.384
86929SOL    HW162684   2.608   2.140   8.418
86929SOL    HW262685   2.606   2.285   8.461
86930SOL     OW62686   2.220   5.362   6.799
86930SOL    HW162687   2.266   5.439   6.767
86930SOL    HW262688   2.134   5.394   6.825
86931SOL     OW62689  10.453  11.076   3.620
86931SOL    HW162690  10.478  11.118   3.538
86931SOL    HW262691  10.465  11.144   3.687
86932SOL     OW62692   7.624   3.384  10.219
86932SOL    HW162693   7.590   3.449  10.157
86932SOL    HW262694   7.666   3.436  10.288
86933SOL     OW62695  14.844  14.441   1.963
86933SOL    HW162696  14.878  14.435   2.052
86933SOL    HW262697   0.037  14.472   1.911
86934SOL     OW62698   3.339   9.019   7.506
86934SOL    HW162699   3.390   8.988   7.581
86934SOL    HW262700   3.300   8.939   7.470
86935SOL     OW62701  10.108   9.237  11.204
86935SOL    HW162702  10.060   9.199  11.130
86935SOL    HW262703  10.149   9.315  11.168
86936SOL     OW62704   6.561  12.062   0.410
86936SOL    HW162705   6.498  12.126   0.444
86936SOL    HW262706   6.608  12.109   0.341
86937SOL     OW62707  14.460   8.085  13.733
86937SOL    HW162708  14.479   8.145  13.804
86937SOL    HW262709  14.364   8.083  13.728
86938SOL     OW62710   1.822   3.709   2.473
86938SOL    HW162711   1.735   3.668   2.472
86938SOL    HW262712   1.808   3.796   2.435
86939SOL     OW62713  14.428  11.496   2.132
86939SOL    HW162714  14.347  11.532   2.169
86939SOL    HW262715  14.448  11.420   2.186
86940SOL     OW62716   7.785  10.140  14.248
86940SOL    HW162717   7.744  10.168  14.166
86940SOL    HW262718   7.757  10.206  14.312
86941SOL     OW62719   1.799   5.885   8.926
86941SOL    HW162720   1.841   5.842   8.851
86941SOL    HW262721   1.775   5.814   8.985
86942SOL     OW62722   2.213   7.481  11.260
86942SOL    HW162723   2.265   7.437  11.327
86942SOL    HW262724   2.274   7.540  11.217
86943SOL     OW62725  11.921   3.822   3.367
86943SOL    HW162726  12.004   3.773   3.367
86943SOL    HW262727  11.918   3.862   3.454
86944SOL     OW62728   2.493   8.831  10.546
86944SOL    HW162729   2.524   8.808  10.634
86944SOL    HW262730   2.560   8.890  10.511
86945SOL     OW62731   9.494   1.998   8.504
86945SOL    HW162732   9.511   2.003   8.410
86945SOL    HW262733   9.398   2.000   8.512
86946SOL     OW62734   3.033  10.068   6.105
86946SOL    HW162735   2.962  10.131   6.092
86946SOL    HW262736   3.066  10.088   6.192
86947SOL     OW62737   6.542   0.716   7.931
86947SOL    HW162738   6.460   0.764   7.937
86947SOL    HW262739   6.593   0.747   8.006
86948SOL     OW62740   3.139  11.527  14.019
86948SOL    HW162741   3.165  11.506  13.930
86948SOL    HW262742   3.108  11.444  14.055
86949SOL     OW62743   7.435  13.544  13.723
86949SOL    HW162744   7.360  13.485  13.719
86949SOL    HW262745   7.450  13.557  13.816
86950SOL     OW62746  14.695  12.566   5.969
86950SOL    HW162747  14.635  12.529   6.033
86950SOL    HW262748  14.720  12.491   5.914
86951SOL     OW62749   1.094  14.658   2.095
86951SOL    HW162750   1.084  14.694   2.183
86951SOL    HW262751   1.162  14.591   2.104
86952SOL     OW62752  12.665  13.320   4.963
86952SOL    HW162753  12.657  13.403   5.009
86952SOL    HW262754  12.585  13.272   4.983
86953SOL     OW62755   4.281  10.405   8.894
86953SOL    HW162756   4.237  10.360   8.822
86953SOL    HW262757   4.317  10.335   8.948
86954SOL     OW62758   2.992   7.984   0.637
86954SOL    HW162759   3.070   7.944   0.674
86954SOL    HW262760   3.025   8.053   0.579
86955SOL     OW62761   3.999   8.059  12.468
86955SOL    HW162762   3.924   8.010  12.502
86955SOL    HW262763   4.013   8.128  12.532
86956SOL     OW62764   8.882   1.107   9.833
86956SOL    HW162765   8.919   1.195   9.821
86956SOL    HW262766   8.898   1.086   9.925
86957SOL     OW62767  10.432   9.628   6.430
86957SOL    HW162768  10.527   9.616   6.430
86957SOL    HW262769  10.408   9.626   6.523
86958SOL     OW62770   2.308   2.723   3.965
86958SOL    HW162771   2.399   2.692   3.963
86958SOL    HW262772   2.305   2.786   4.037
86959SOL     OW62773   8.221   7.900   5.019
86959SOL    HW162774   8.155   7.943   4.965
86959SOL    HW262775   8.184   7.899   5.107
86960SOL     OW62776   0.324   1.404   4.200
86960SOL    HW162777   0.246   1.458   4.194
86960SOL    HW262778   0.371   1.439   4.276
86961SOL     OW62779  13.875  11.234  10.217
86961SOL    HW162780  13.889  11.211  10.125
86961SOL    HW262781  13.936  11.178  10.265
86962SOL     OW62782   2.578  14.127  14.331
86962SOL    HW162783   2.639  14.134  14.404
86962SOL    HW262784   2.583  14.213  14.288
86963SOL     OW62785  13.048   1.718  11.244
86963SOL    HW162786  13.000   1.704  11.162
86963SOL    HW262787  13.110   1.645  11.248
86964SOL     OW62788   8.548   5.493   1.841
86964SOL    HW162789   8.625   5.550   1.844
86964SOL    HW262790   8.576   5.414   1.887
86965SOL     OW62791   1.982  14.233   9.783
86965SOL    HW162792   2.002  14.268   9.696
86965SOL    HW262793   2.049  14.272   9.840
86966SOL     OW62794   7.325   7.498   1.779
86966SOL    HW162795   7.380   7.570   1.750
86966SOL    HW262796   7.247   7.503   1.723
86967SOL     OW62797  14.186  11.203   6.492
86967SOL    HW162798  14.161  11.279   6.544
86967SOL    HW262799  14.191  11.131   6.556
86968SOL     OW62800   1.064  10.661   4.844
86968SOL    HW162801   1.107  10.703   4.919
86968SOL    HW262802   0.976  10.697   4.843
86969SOL     OW62803   2.425   8.893   1.861
86969SOL    HW162804   2.430   8.858   1.951
86969SOL    HW262805   2.466   8.980   1.867
86970SOL     OW62806  10.784   8.823   7.851
86970SOL    HW162807  10.727   8.746   7.858
86970SOL    HW262808  10.872   8.787   7.838
86971SOL     OW62809   0.092  12.226   6.308
86971SOL    HW162810   0.094  12.133   6.329
86971SOL    HW262811   0.079  12.269   6.393
86972SOL     OW62812   4.142  11.801   1.416
86972SOL    HW162813   4.056  11.774   1.450
86972SOL    HW262814   4.173  11.866   1.479
86973SOL     OW62815  10.195   2.125  13.811
86973SOL    HW162816  10.235   2.041  13.790
86973SOL    HW262817  10.259   2.168  13.868
86974SOL     OW62818   9.558  12.544  11.695
86974SOL    HW162819   9.523  12.503  11.615
86974SOL    HW262820   9.582  12.470  11.750
86975SOL     OW62821  11.816   4.492   0.848
86975SOL    HW162822  11.868   4.564   0.812
86975SOL    HW262823  11.756   4.534   0.910
86976SOL     OW62824   6.211   5.766   5.916
86976SOL    HW162825   6.138   5.749   5.857
86976SOL    HW262826   6.278   5.703   5.890
86977SOL     OW62827   3.773   8.671  11.863
86977SOL    HW162828   3.720   8.607  11.816
86977SOL    HW262829   3.861   8.661  11.826
86978SOL     OW62830   0.260   5.587   9.053
86978SOL    HW162831   0.206   5.630   8.988
86978SOL    HW262832   0.248   5.493   9.036
86979SOL     OW62833   8.670   6.875   2.711
86979SOL    HW162834   8.650   6.955   2.761
86979SOL    HW262835   8.760   6.854   2.735
86980SOL     OW62836  10.747   8.244   0.153
86980SOL    HW162837  10.830   8.211   0.188
86980SOL    HW262838  10.710   8.170   0.104
86981SOL     OW62839   8.623   4.645   1.202
86981SOL    HW162840   8.661   4.573   1.152
86981SOL    HW262841   8.696   4.685   1.248
86982SOL     OW62842  10.666   2.770   2.301
86982SOL    HW162843  10.591   2.804   2.253
86982SOL    HW262844  10.631   2.700   2.356
86983SOL     OW62845  11.876  11.035   6.293
86983SOL    HW162846  11.888  10.949   6.332
86983SOL    HW262847  11.822  11.083   6.355
86984SOL     OW62848   0.608  13.458   0.767
86984SOL    HW162849   0.528  13.504   0.793
86984SOL    HW262850   0.591  13.366   0.787
86985SOL     OW62851  10.185   1.078   7.655
86985SOL    HW162852  10.238   1.146   7.613
86985SOL    HW262853  10.181   1.104   7.747
86986SOL     OW62854  13.493  12.281   3.830
86986SOL    HW162855  13.417  12.237   3.868
86986SOL    HW262856  13.458  12.327   3.754
86987SOL     OW62857  12.094  12.261   1.882
86987SOL    HW162858  12.035  12.231   1.813
86987SOL    HW262859  12.181  12.232   1.854
86988SOL     OW62860   5.414  14.176   4.806
86988SOL    HW162861   5.364  14.244   4.761
86988SOL    HW262862   5.366  14.162   4.888
86989SOL     OW62863  13.320   1.726   7.772
86989SOL    HW162864  13.408   1.691   7.756
86989SOL    HW262865  13.264   1.648   7.773
86990SOL     OW62866   9.621   7.391   0.743
86990SOL    HW162867   9.611   7.438   0.660
86990SOL    HW262868   9.714   7.369   0.747
86991SOL     OW62869   2.223   6.238  12.245
86991SOL    HW162870   2.294   6.302  12.243
86991SOL    HW262871   2.184   6.248  12.332
86992SOL     OW62872   1.790   8.360   0.479
86992SOL    HW162873   1.756   8.445   0.451
86992SOL    HW262874   1.865   8.344   0.422
86993SOL     OW62875   9.361   3.471   7.379
86993SOL    HW162876   9.334   3.518   7.458
86993SOL    HW262877   9.302   3.503   7.310
86994SOL     OW62878   4.954   5.307   5.752
86994SOL    HW162879   5.014   5.233   5.744
86994SOL    HW262880   5.009   5.384   5.739
86995SOL     OW62881   0.744  11.897   0.591
86995SOL    HW162882   0.789  11.892   0.506
86995SOL    HW262883   0.776  11.821   0.639
86996SOL     OW62884   4.978   7.148   9.403
86996SOL    HW162885   5.034   7.077   9.435
86996SOL    HW262886   5.018   7.228   9.436
86997SOL     OW62887   9.654  13.349   1.191
86997SOL    HW162888   9.690  13.431   1.227
86997SOL    HW262889   9.689  13.281   1.248
86998SOL     OW62890   4.098   4.904   8.350
86998SOL    HW162891   4.135   4.821   8.382
86998SOL    HW262892   4.137   4.970   8.406
86999SOL     OW62893   5.617   9.465   0.372
86999SOL    HW162894   5.646   9.406   0.302
86999SOL    HW262895   5.648   9.551   0.343
87000SOL     OW62896   1.507  14.096  14.204
87000SOL    HW162897   1.423  14.072  14.244
87000SOL    HW262898   1.572  14.077  14.272
87001SOL     OW62899   4.483  14.126  11.050
87001SOL    HW162900   4.491  14.051  10.991
87001SOL    HW262901   4.567  14.172  11.043
87002SOL     OW62902   1.907   2.356  14.746
87002SOL    HW162903   1.921   2.341  14.839
87002SOL    HW262904   1.893   2.451  14.739
87003SOL     OW62905  13.398  10.740   7.567
87003SOL    HW162906  13.344  10.665   7.591
87003SOL    HW262907  13.487  10.715   7.592
87004SOL     OW62908   3.263  12.218  12.129
87004SOL    HW162909   3.334  12.267  12.088
87004SOL    HW262910   3.197  12.285  12.150
87005SOL     OW62911   9.543   0.276   8.758
87005SOL    HW162912   9.580   0.265   8.846
87005SOL    HW262913   9.557   0.191   8.716
87006SOL     OW62914  14.060   8.232  11.880
87006SOL    HW162915  14.047   8.275  11.796
87006SOL    HW262916  13.978   8.245  11.927
87007SOL     OW62917  11.364   6.672   6.097
87007SOL    HW162918  11.284   6.667   6.150
87007SOL    HW262919  11.432   6.699   6.158
87008SOL     OW62920   7.693   9.943   3.656
87008SOL    HW162921   7.628   9.938   3.586
87008SOL    HW262922   7.664  10.017   3.710
87009SOL     OW62923   3.739  10.890  11.640
87009SOL    HW162924   3.670  10.939  11.684
87009SOL    HW262925   3.703  10.869  11.554
87010SOL     OW62926   5.133   6.125  10.965
87010SOL    HW162927   5.156   6.194  11.028
87010SOL    HW262928   5.068   6.072  11.011
87011SOL     OW62929   8.471   1.267   1.848
87011SOL    HW162930   8.439   1.342   1.900
87011SOL    HW262931   8.567   1.272   1.856
87012SOL     OW62932  12.417  10.145  12.539
87012SOL    HW162933  12.454  10.203  12.473
87012SOL    HW262934  12.323  10.146  12.523
87013SOL     OW62935   2.169   6.058   3.560
87013SOL    HW162936   2.173   6.129   3.497
87013SOL    HW262937   2.248   6.007   3.544
87014SOL     OW62938  10.224   5.051  11.229
87014SOL    HW162939  10.242   5.144  11.243
87014SOL    HW262940  10.136   5.049  11.192
87015SOL     OW62941   4.216   6.155   8.368
87015SOL    HW162942   4.142   6.100   8.395
87015SOL    HW262943   4.292   6.117   8.412
87016SOL     OW62944  12.385  13.247  10.875
87016SOL    HW162945  12.330  13.174  10.847
87016SOL    HW262946  12.469  13.232  10.831
87017SOL     OW62947   7.801   0.635  12.130
87017SOL    HW162948   7.893   0.645  12.108
87017SOL    HW262949   7.769   0.566  12.072
87018SOL     OW62950  10.766   3.408  14.246
87018SOL    HW162951  10.730   3.320  14.255
87018SOL    HW262952  10.829   3.416  14.317
87019SOL     OW62953   5.036   3.974   0.152
87019SOL    HW162954   4.986   4.007   0.227
87019SOL    HW262955   4.971   3.928   0.099
87020SOL     OW62956   8.444  12.689  10.371
87020SOL    HW162957   8.443  12.601  10.409
87020SOL    HW262958   8.487  12.679  10.287
87021SOL     OW62959   4.047   7.379  11.189
87021SOL    HW162960   4.067   7.326  11.113
87021SOL    HW262961   4.107   7.453  11.184
87022SOL     OW62962   9.759  12.859   9.256
87022SOL    HW162963   9.852  12.878   9.272
87022SOL    HW262964   9.760  12.792   9.188
87023SOL     OW62965   6.335   8.244   7.836
87023SOL    HW162966   6.318   8.226   7.743
87023SOL    HW262967   6.431   8.247   7.842
87024SOL     OW62968   4.939   5.528  10.976
87024SOL    HW162969   4.906   5.473  11.047
87024SOL    HW262970   4.860   5.553  10.927
87025SOL     OW62971   8.927   5.630   0.536
87025SOL    HW162972   8.989   5.699   0.514
87025SOL    HW262973   8.945   5.610   0.628
87026SOL     OW62974   4.266   8.952   9.931
87026SOL    HW162975   4.247   8.956   9.837
87026SOL    HW262976   4.308   9.035   9.951
87027SOL     OW62977   9.775   0.878   9.533
87027SOL    HW162978   9.836   0.949   9.553
87027SOL    HW262979   9.712   0.879   9.605
87028SOL     OW62980   8.670   1.764   0.457
87028SOL    HW162981   8.698   1.674   0.476
87028SOL    HW262982   8.617   1.789   0.532
87029SOL     OW62983  12.252   4.808   4.993
87029SOL    HW162984  12.178   4.816   4.933
87029SOL    HW262985  12.289   4.722   4.975
87030SOL     OW62986   9.052   9.755  10.364
87030SOL    HW162987   9.075   9.816  10.434
87030SOL    HW262988   8.970   9.789  10.328
87031SOL     OW62989   7.073   7.063   4.038
87031SOL    HW162990   7.009   6.998   4.066
87031SOL    HW262991   7.083   7.121   4.114
87032SOL     OW62992   5.765   4.813  11.916
87032SOL    HW162993   5.848   4.852  11.888
87032SOL    HW262994   5.775   4.720  11.898
87033SOL     OW62995   5.218  11.208  10.674
87033SOL    HW162996   5.160  11.184  10.602
87033SOL    HW262997   5.306  11.209  10.635
87034SOL     OW62998   9.289   7.524   7.845
87034SOL    HW162999   9.200   7.499   7.870
87034SOL    HW263000   9.302   7.609   7.885
87035SOL     OW63001  10.289   2.342   2.793
87035SOL    HW163002  10.237   2.264   2.812
87035SOL    HW263003  10.235   2.393   2.732
87036SOL     OW63004   9.729   1.225   6.449
87036SOL    HW163005   9.755   1.261   6.364
87036SOL    HW263006   9.641   1.259   6.464
87037SOL     OW63007   8.390   8.639   9.579
87037SOL    HW163008   8.330   8.692   9.631
87037SOL    HW263009   8.417   8.568   9.637
87038SOL     OW63010   6.806   1.634  10.316
87038SOL    HW163011   6.793   1.619  10.410
87038SOL    HW263012   6.742   1.702  10.294
87039SOL     OW63013   4.095   1.650   4.065
87039SOL    HW163014   4.081   1.697   3.983
87039SOL    HW263015   4.071   1.560   4.046
87040SOL     OW63016   9.309  12.430   9.904
87040SOL    HW163017   9.297  12.336   9.899
87040SOL    HW263018   9.404  12.442   9.908
87041SOL     OW63019  13.060  10.931   1.059
87041SOL    HW163020  13.083  10.891   1.143
87041SOL    HW263021  12.964  10.925   1.055
87042SOL     OW63022   6.812   2.937   3.420
87042SOL    HW163023   6.812   2.867   3.485
87042SOL    HW263024   6.754   2.905   3.350
87043SOL     OW63025  10.399   3.225  13.717
87043SOL    HW163026  10.420   3.215  13.624
87043SOL    HW263027  10.304   3.215  13.721
87044SOL     OW63028  12.717  13.967  14.565
87044SOL    HW163029  12.677  13.996  14.647
87044SOL    HW263030  12.685  13.878  14.552
87045SOL     OW63031   4.960   2.035   8.094
87045SOL    HW163032   5.011   2.113   8.117
87045SOL    HW263033   5.025   1.964   8.093
87046SOL     OW63034  11.800   4.126   9.920
87046SOL    HW163035  11.760   4.090   9.840
87046SOL    HW263036  11.890   4.094   9.918
87047SOL     OW63037   7.297  10.134  11.918
87047SOL    HW163038   7.331  10.114  12.006
87047SOL    HW263039   7.320  10.057  11.866
87048SOL     OW63040   8.636   5.400  11.279
87048SOL    HW163041   8.633   5.476  11.337
87048SOL    HW263042   8.570   5.341  11.314
87049SOL     OW63043   6.691  10.101  11.854
87049SOL    HW163044   6.652  10.015  11.840
87049SOL    HW263045   6.749  10.114  11.779
87050SOL     OW63046   3.534  13.098   5.219
87050SOL    HW163047   3.604  13.108   5.284
87050SOL    HW263048   3.505  13.007   5.229
87051SOL     OW63049   5.125  14.812  13.762
87051SOL    HW163050   5.082   0.016  13.764
87051SOL    HW263051   5.076  14.760  13.825
87052SOL     OW63052   5.304   5.055   1.389
87052SOL    HW163053   5.304   5.008   1.472
87052SOL    HW263054   5.379   5.019   1.341
87053SOL     OW63055   1.273   2.221   8.011
87053SOL    HW163056   1.329   2.287   7.970
87053SOL    HW263057   1.190   2.266   8.025
87054SOL     OW63058   9.904   1.163   3.530
87054SOL    HW163059   9.831   1.219   3.557
87054SOL    HW263060   9.956   1.152   3.610
87055SOL     OW63061  14.842   8.362  13.186
87055SOL    HW163062  14.850   8.457  13.182
87055SOL    HW263063  14.862   8.340  13.277
87056SOL     OW63064   9.247   5.916   9.046
87056SOL    HW163065   9.178   5.860   9.012
87056SOL    HW263066   9.217   5.943   9.132
87057SOL     OW63067   7.109  11.667   7.091
87057SOL    HW163068   7.191  11.703   7.126
87057SOL    HW263069   7.133  11.578   7.063
87058SOL     OW63070   1.571   7.163  12.420
87058SOL    HW163071   1.605   7.126  12.339
87058SOL    HW263072   1.644   7.215  12.455
87059SOL     OW63073   1.729  11.152   9.513
87059SOL    HW163074   1.659  11.204   9.474
87059SOL    HW263075   1.696  11.130   9.600
87060SOL     OW63076  12.587   2.684   9.369
87060SOL    HW163077  12.556   2.614   9.312
87060SOL    HW263078  12.637   2.742   9.312
87061SOL     OW63079  14.147   1.605  11.384
87061SOL    HW163080  14.119   1.521  11.421
87061SOL    HW263081  14.230   1.586  11.341
87062SOL     OW63082   3.946  13.409   0.021
87062SOL    HW163083   3.882  13.476   0.043
87062SOL    HW263084   3.986  13.440  14.822
87063SOL     OW63085  11.504   2.901   8.425
87063SOL    HW163086  11.427   2.867   8.471
87063SOL    HW263087  11.511   2.845   8.347
87064SOL     OW63088   9.303   9.492   7.244
87064SOL    HW163089   9.307   9.490   7.339
87064SOL    HW263090   9.260   9.575   7.223
87065SOL     OW63091  11.593   3.861  10.478
87065SOL    HW163092  11.666   3.911  10.514
87065SOL    HW263093  11.517   3.917  10.492
87066SOL     OW63094   8.625   6.413   6.231
87066SOL    HW163095   8.578   6.352   6.175
87066SOL    HW263096   8.675   6.467   6.171
87067SOL     OW63097   6.742   9.788  10.757
87067SOL    HW163098   6.788   9.841  10.822
87067SOL    HW263099   6.786   9.703  10.761
87068SOL     OW63100  12.478   3.947   3.675
87068SOL    HW163101  12.563   3.918   3.708
87068SOL    HW263102  12.418   3.932   3.749
87069SOL     OW63103  13.255  12.592   3.975
87069SOL    HW163104  13.222  12.677   3.944
87069SOL    HW263105  13.264  12.604   4.070
87070SOL     OW63106   2.723   6.696   3.686
87070SOL    HW163107   2.788   6.754   3.727
87070SOL    HW263108   2.646   6.751   3.674
87071SOL     OW63109  13.434  10.422   5.663
87071SOL    HW163110  13.427  10.372   5.581
87071SOL    HW263111  13.358  10.396   5.714
87072SOL     OW63112   9.851  10.901  12.691
87072SOL    HW163113   9.900  10.983  12.684
87072SOL    HW263114   9.911  10.842  12.737
87073SOL     OW63115   9.775   5.977  13.319
87073SOL    HW163116   9.752   5.928  13.398
87073SOL    HW263117   9.856   5.935  13.287
87074SOL     OW63118  12.598  10.359   5.389
87074SOL    HW163119  12.519  10.325   5.346
87074SOL    HW263120  12.594  10.321   5.477
87075SOL     OW63121   7.911  11.293   7.202
87075SOL    HW163122   7.880  11.203   7.210
87075SOL    HW263123   7.917  11.324   7.293
87076SOL     OW63124   4.205  14.084   9.319
87076SOL    HW163125   4.265  14.016   9.349
87076SOL    HW263126   4.230  14.162   9.369
87077SOL     OW63127   1.602   2.062   3.841
87077SOL    HW163128   1.680   2.076   3.895
87077SOL    HW263129   1.542   2.014   3.898
87078SOL     OW63130   3.123   1.582   5.065
87078SOL    HW163131   3.209   1.620   5.049
87078SOL    HW263132   3.137   1.518   5.135
87079SOL     OW63133  11.577  12.863  10.882
87079SOL    HW163134  11.597  12.940  10.936
87079SOL    HW263135  11.644  12.865  10.813
87080SOL     OW63136   4.416  11.383   8.701
87080SOL    HW163137   4.456  11.306   8.661
87080SOL    HW263138   4.380  11.432   8.628
87081SOL     OW63139   5.278  12.571   0.052
87081SOL    HW163140   5.317  12.537   0.132
87081SOL    HW263141   5.184  12.578   0.072
87082SOL     OW63142   3.659   4.408   4.703
87082SOL    HW163143   3.597   4.347   4.744
87082SOL    HW263144   3.669   4.478   4.767
87083SOL     OW63145  13.490   2.905  14.505
87083SOL    HW163146  13.469   2.994  14.479
87083SOL    HW263147  13.512   2.911  14.598
87084SOL     OW63148   8.437  12.469   5.447
87084SOL    HW163149   8.357  12.434   5.410
87084SOL    HW263150   8.441  12.559   5.414
87085SOL     OW63151   8.590   4.925   4.893
87085SOL    HW163152   8.505   4.960   4.865
87085SOL    HW263153   8.653   4.966   4.833
87086SOL     OW63154   6.549  14.449  12.893
87086SOL    HW163155   6.459  14.481  12.903
87086SOL    HW263156   6.543  14.356  12.914
87087SOL     OW63157  12.595   8.580  12.924
87087SOL    HW163158  12.530   8.549  12.988
87087SOL    HW263159  12.669   8.521  12.935
87088SOL     OW63160   4.687   7.913  13.628
87088SOL    HW163161   4.705   8.007  13.631
87088SOL    HW263162   4.755   7.874  13.683
87089SOL     OW63163   2.758   8.517   7.847
87089SOL    HW163164   2.710   8.590   7.887
87089SOL    HW263165   2.848   8.549   7.838
87090SOL     OW63166  12.453  12.643  11.087
87090SOL    HW163167  12.520  12.586  11.125
87090SOL    HW263168  12.432  12.603  11.003
87091SOL     OW63169   1.075   3.328   8.718
87091SOL    HW163170   1.150   3.303   8.664
87091SOL    HW263171   1.074   3.423   8.716
87092SOL     OW63172  12.366   3.036   7.075
87092SOL    HW163173  12.420   2.970   7.118
87092SOL    HW263174  12.281   3.030   7.119
87093SOL     OW63175  13.159   8.893   6.557
87093SOL    HW163176  13.224   8.870   6.491
87093SOL    HW263177  13.111   8.811   6.573
87094SOL     OW63178  10.087  12.039   1.800
87094SOL    HW163179  10.064  12.113   1.743
87094SOL    HW263180  10.169  12.006   1.765
87095SOL     OW63181   9.274   2.494  11.150
87095SOL    HW163182   9.286   2.463  11.060
87095SOL    HW263183   9.332   2.438  11.202
87096SOL     OW63184   5.116   0.990   9.926
87096SOL    HW163185   5.149   0.963  10.011
87096SOL    HW263186   5.148   1.080   9.916
87097SOL     OW63187   2.090   9.873  14.683
87097SOL    HW163188   2.045   9.807  14.735
87097SOL    HW263189   2.020   9.918  14.636
87098SOL     OW63190   2.627  14.546   4.448
87098SOL    HW163191   2.676  14.627   4.460
87098SOL    HW263192   2.680  14.493   4.388
87099SOL     OW63193  12.764   4.614   6.106
87099SOL    HW163194  12.818   4.535   6.106
87099SOL    HW263195  12.822   4.683   6.073
87100SOL     OW63196   9.886   8.347   4.530
87100SOL    HW163197   9.839   8.276   4.574
87100SOL    HW263198   9.978   8.319   4.530
87101SOL     OW63199   8.139   8.272  12.676
87101SOL    HW163200   8.080   8.234  12.610
87101SOL    HW263201   8.204   8.320  12.625
87102SOL     OW63202  11.655   9.933  11.715
87102SOL    HW163203  11.618   9.885  11.789
87102SOL    HW263204  11.589   9.999  11.694
87103SOL     OW63205   4.964  13.314   5.326
87103SOL    HW163206   4.876  13.294   5.359
87103SOL    HW263207   4.951  13.330   5.233
87104SOL     OW63208   2.117   3.728   6.874
87104SOL    HW163209   2.097   3.646   6.919
87104SOL    HW263210   2.194   3.761   6.920
87105SOL     OW63211  14.543   1.428   5.060
87105SOL    HW163212  14.481   1.473   5.003
87105SOL    HW263213  14.606   1.496   5.085
87106SOL     OW63214   8.903   9.793  13.038
87106SOL    HW163215   8.937   9.715  13.082
87106SOL    HW263216   8.975   9.822  12.982
87107SOL     OW63217   3.469  10.085   4.953
87107SOL    HW163218   3.423  10.024   4.895
87107SOL    HW263219   3.512  10.029   5.017
87108SOL     OW63220   9.022   9.830   9.915
87108SOL    HW163221   8.976   9.758   9.959
87108SOL    HW263222   9.045   9.795   9.829
87109SOL     OW63223   2.097   5.207   7.909
87109SOL    HW163224   2.114   5.113   7.904
87109SOL    HW263225   2.017   5.219   7.857
87110SOL     OW63226  14.046  14.872  14.500
87110SOL    HW163227  14.006  14.785  14.507
87110SOL    HW263228  14.139  14.854  14.484
87111SOL     OW63229   2.713   8.147   8.829
87111SOL    HW163230   2.710   8.063   8.783
87111SOL    HW263231   2.806   8.170   8.831
87112SOL     OW63232   5.485   2.673   1.438
87112SOL    HW163233   5.478   2.649   1.531
87112SOL    HW263234   5.406   2.637   1.398
87113SOL     OW63235   8.677   6.638  13.124
87113SOL    HW163236   8.618   6.713  13.124
87113SOL    HW263237   8.763   6.674  13.147
87114SOL     OW63238   6.231   6.726   4.243
87114SOL    HW163239   6.273   6.683   4.168
87114SOL    HW263240   6.301   6.773   4.287
87115SOL     OW63241   9.194  12.313   8.782
87115SOL    HW163242   9.188  12.407   8.765
87115SOL    HW263243   9.114  12.277   8.745
87116SOL     OW63244   9.497   6.233  11.458
87116SOL    HW163245   9.549   6.198  11.530
87116SOL    HW263246   9.430   6.166  11.441
87117SOL     OW63247   8.957  12.502  10.522
87117SOL    HW163248   8.991  12.583  10.483
87117SOL    HW263249   8.997  12.432  10.470
87118SOL     OW63250  10.110   1.997   7.710
87118SOL    HW163251  10.149   1.991   7.623
87118SOL    HW263252  10.185   1.987   7.770
87119SOL     OW63253   1.475  11.419   4.335
87119SOL    HW163254   1.483  11.324   4.338
87119SOL    HW263255   1.459  11.439   4.243
87120SOL     OW63256  13.775   8.699   0.765
87120SOL    HW163257  13.730   8.618   0.788
87120SOL    HW263258  13.753   8.760   0.836
87121SOL     OW63259  11.280  14.704  12.181
87121SOL    HW163260  11.360  14.695  12.130
87121SOL    HW263261  11.211  14.671  12.123
87122SOL     OW63262   4.789   3.623   8.468
87122SOL    HW163263   4.842   3.597   8.392
87122SOL    HW263264   4.704   3.581   8.453
87123SOL     OW63265   4.575  10.154   2.145
87123SOL    HW163266   4.574  10.137   2.051
87123SOL    HW263267   4.517  10.230   2.156
87124SOL     OW63268   9.396  11.356  13.929
87124SOL    HW163269   9.338  11.334  13.856
87124SOL    HW263270   9.477  11.384  13.886
87125SOL     OW63271  10.971   0.735   4.575
87125SOL    HW163272  10.917   0.707   4.501
87125SOL    HW263273  11.039   0.668   4.582
87126SOL     OW63274   4.354   4.638   6.846
87126SOL    HW163275   4.282   4.595   6.800
87126SOL    HW263276   4.327   4.730   6.853
87127SOL     OW63277   2.260   8.262   8.365
87127SOL    HW163278   2.187   8.201   8.370
87127SOL    HW263279   2.301   8.243   8.281
87128SOL     OW63280   2.245   5.297   5.178
87128SOL    HW163281   2.230   5.287   5.272
87128SOL    HW263282   2.158   5.291   5.139
87129SOL     OW63283   0.136  11.052   5.722
87129SOL    HW163284   0.095  10.990   5.783
87129SOL    HW263285   0.167  10.997   5.650
87130SOL     OW63286  10.615   4.191   4.431
87130SOL    HW163287  10.608   4.208   4.525
87130SOL    HW263288  10.662   4.108   4.424
87131SOL     OW63289   8.900  10.740   0.738
87131SOL    HW163290   8.880  10.703   0.652
87131SOL    HW263291   8.866  10.830   0.734
87132SOL     OW63292  11.369  13.891  11.304
87132SOL    HW163293  11.287  13.898  11.353
87132SOL    HW263294  11.432  13.857  11.367
87133SOL     OW63295   6.887   3.866   7.956
87133SOL    HW163296   6.800   3.834   7.978
87133SOL    HW263297   6.924   3.799   7.898
87134SOL     OW63298  12.661  14.606   7.666
87134SOL    HW163299  12.645  14.700   7.671
87134SOL    HW263300  12.574  14.566   7.681
87135SOL     OW63301   2.781   0.606   8.383
87135SOL    HW163302   2.733   0.573   8.307
87135SOL    HW263303   2.873   0.604   8.356
87136SOL     OW63304   1.003  12.266  12.822
87136SOL    HW163305   1.095  12.243  12.840
87136SOL    HW263306   0.953  12.213  12.885
87137SOL     OW63307   3.521  13.561   8.574
87137SOL    HW163308   3.457  13.535   8.640
87137SOL    HW263309   3.510  13.498   8.503
87138SOL     OW63310  12.056   0.474  12.156
87138SOL    HW163311  12.137   0.431  12.182
87138SOL    HW263312  12.008   0.486  12.238
87139SOL     OW63313   4.290   7.258   2.246
87139SOL    HW163314   4.198   7.274   2.226
87139SOL    HW263315   4.290   7.180   2.300
87140SOL     OW63316   1.446   6.895  10.545
87140SOL    HW163317   1.427   6.986  10.569
87140SOL    HW263318   1.360   6.855  10.536
87141SOL     OW63319   9.053  14.761  12.357
87141SOL    HW163320   9.131  14.784  12.408
87141SOL    HW263321   9.086  14.741  12.270
87142SOL     OW63322   9.574   8.820   4.546
87142SOL    HW163323   9.606   8.789   4.631
87142SOL    HW263324   9.642   8.880   4.515
87143SOL     OW63325   1.241   2.931   3.935
87143SOL    HW163326   1.194   2.908   3.856
87143SOL    HW263327   1.321   2.878   3.932
87144SOL     OW63328   5.434   5.424  14.385
87144SOL    HW163329   5.500   5.456  14.447
87144SOL    HW263330   5.351   5.451  14.423
87145SOL     OW63331   1.862  10.553   7.939
87145SOL    HW163332   1.827  10.638   7.912
87145SOL    HW263333   1.813  10.530   8.018
87146SOL     OW63334   8.289  10.696  12.939
87146SOL    HW163335   8.295  10.791  12.954
87146SOL    HW263336   8.235  10.664  13.011
87147SOL     OW63337   3.135   9.964   4.429
87147SOL    HW163338   3.211   9.988   4.376
87147SOL    HW263339   3.172   9.910   4.499
87148SOL     OW63340   0.082   4.950   3.257
87148SOL    HW163341   0.166   4.976   3.217
87148SOL    HW263342   0.018   4.962   3.187
87149SOL     OW63343   9.644   0.080   3.738
87149SOL    HW163344   9.692   0.128   3.670
87149SOL    HW263345   9.552   0.086   3.710
87150SOL     OW63346   6.082   7.738  12.514
87150SOL    HW163347   6.156   7.694  12.471
87150SOL    HW263348   6.121   7.779  12.591
87151SOL     OW63349   6.097   3.717   3.485
87151SOL    HW163350   6.118   3.755   3.570
87151SOL    HW263351   6.182   3.703   3.443
87152SOL     OW63352   2.646  12.629  11.515
87152SOL    HW163353   2.603  12.701  11.469
87152SOL    HW263354   2.695  12.583  11.447
87153SOL     OW63355   4.533  14.331  11.644
87153SOL    HW163356   4.621  14.297  11.658
87153SOL    HW263357   4.483  14.300  11.720
87154SOL     OW63358   3.381   1.764   7.954
87154SOL    HW163359   3.443   1.772   8.026
87154SOL    HW263360   3.309   1.822   7.978
87155SOL     OW63361   7.061   4.877   0.914
87155SOL    HW163362   6.966   4.887   0.909
87155SOL    HW263363   7.096   4.942   0.853
87156SOL     OW63364   0.224   2.458   8.452
87156SOL    HW163365   0.158   2.484   8.388
87156SOL    HW263366   0.293   2.417   8.400
87157SOL     OW63367   4.596   6.066   6.590
87157SOL    HW163368   4.538   5.995   6.562
87157SOL    HW263369   4.610   6.118   6.511
87158SOL     OW63370   2.559  10.181   6.133
87158SOL    HW163371   2.605  10.235   6.070
87158SOL    HW263372   2.618  10.176   6.208
87159SOL     OW63373  13.931   8.665  13.961
87159SOL    HW163374  13.864   8.652  13.894
87159SOL    HW263375  13.894   8.625  14.040
87160SOL     OW63376   2.694  11.842   6.674
87160SOL    HW163377   2.771  11.820   6.620
87160SOL    HW263378   2.720  11.818   6.763
87161SOL     OW63379   1.812   4.397  11.726
87161SOL    HW163380   1.806   4.455  11.802
87161SOL    HW263381   1.724   4.397  11.689
87162SOL     OW63382  12.618   9.799   8.364
87162SOL    HW163383  12.608   9.888   8.329
87162SOL    HW263384  12.712   9.784   8.365
87163SOL     OW63385   5.377   7.209   9.004
87163SOL    HW163386   5.423   7.219   8.920
87163SOL    HW263387   5.290   7.245   8.987
87164SOL     OW63388   3.791   3.395  11.086
87164SOL    HW163389   3.817   3.471  11.034
87164SOL    HW263390   3.696   3.401  11.093
87165SOL     OW63391   4.125   4.328   4.152
87165SOL    HW163392   4.037   4.344   4.116
87165SOL    HW263393   4.181   4.320   4.075
87166SOL     OW63394   9.310  10.228  14.742
87166SOL    HW163395   9.232  10.260  14.787
87166SOL    HW263396   9.343  10.305  14.695
87167SOL     OW63397   9.027   3.853   0.434
87167SOL    HW163398   9.012   3.829   0.343
87167SOL    HW263399   8.940   3.873   0.468
87168SOL     OW63400   2.124   0.077   4.827
87168SOL    HW163401   2.050   0.020   4.850
87168SOL    HW263402   2.201   0.028   4.857
87169SOL     OW63403   8.657   7.668   2.632
87169SOL    HW163404   8.729   7.728   2.652
87169SOL    HW263405   8.664   7.654   2.537
87170SOL     OW63406  14.627  12.576  13.779
87170SOL    HW163407  14.694  12.529  13.729
87170SOL    HW263408  14.582  12.508  13.829
87171SOL     OW63409   5.182   3.590   2.484
87171SOL    HW163410   5.221   3.678   2.482
87171SOL    HW263411   5.095   3.602   2.447
87172SOL     OW63412   5.578  12.872  10.872
87172SOL    HW163413   5.527  12.842  10.947
87172SOL    HW263414   5.613  12.957  10.899
87173SOL     OW63415   6.609  13.623   1.392
87173SOL    HW163416   6.676  13.666   1.446
87173SOL    HW263417   6.600  13.535   1.431
87174SOL     OW63418  13.417  12.047  10.661
87174SOL    HW163419  13.487  12.027  10.599
87174SOL    HW263420  13.339  12.006  10.622
87175SOL     OW63421   2.299   9.765   9.171
87175SOL    HW163422   2.207   9.762   9.145
87175SOL    HW263423   2.302   9.828   9.243
87176SOL     OW63424   7.455  12.922  10.748
87176SOL    HW163425   7.383  12.866  10.719
87176SOL    HW263426   7.533  12.868  10.736
87177SOL     OW63427  10.260  14.669   7.534
87177SOL    HW163428  10.327  14.602   7.527
87177SOL    HW263429  10.296  14.744   7.487
87178SOL     OW63430   0.054   1.093   1.193
87178SOL    HW163431   0.088   1.179   1.169
87178SOL    HW263432   0.129   1.034   1.182
87179SOL     OW63433  12.542   3.971   0.248
87179SOL    HW163434  12.586   3.965   0.332
87179SOL    HW263435  12.467   4.029   0.263
87180SOL     OW63436   8.088  12.721  12.487
87180SOL    HW163437   8.122  12.665  12.417
87180SOL    HW263438   8.026  12.665  12.535
87181SOL     OW63439   1.403   7.498  12.898
87181SOL    HW163440   1.329   7.532  12.847
87181SOL    HW263441   1.413   7.559  12.971
87182SOL     OW63442   7.730  14.816   6.889
87182SOL    HW163443   7.767  14.732   6.862
87182SOL    HW263444   7.730  14.869   6.810
87183SOL     OW63445   9.785  12.365   8.413
87183SOL    HW163446   9.859  12.335   8.361
87183SOL    HW263447   9.779  12.459   8.395
87184SOL     OW63448   5.847  14.311   5.326
87184SOL    HW163449   5.756  14.298   5.352
87184SOL    HW263450   5.848  14.290   5.232
87185SOL     OW63451   6.509   5.907   2.195
87185SOL    HW163452   6.440   5.895   2.260
87185SOL    HW263453   6.506   6.000   2.174
87186SOL     OW63454   9.524   3.211   8.431
87186SOL    HW163455   9.588   3.168   8.487
87186SOL    HW263456   9.552   3.303   8.428
87187SOL     OW63457   6.156  12.519  10.302
87187SOL    HW163458   6.155  12.522  10.397
87187SOL    HW263459   6.089  12.455  10.279
87188SOL     OW63460   4.472  12.790   0.982
87188SOL    HW163461   4.430  12.812   1.065
87188SOL    HW263462   4.545  12.851   0.976
87189SOL     OW63463   9.473  12.015   2.677
87189SOL    HW163464   9.533  11.960   2.626
87189SOL    HW263465   9.387  11.999   2.637
87190SOL     OW63466   3.446   7.229   6.747
87190SOL    HW163467   3.522   7.271   6.707
87190SOL    HW263468   3.384   7.300   6.761
87191SOL     OW63469  13.754   8.267   8.735
87191SOL    HW163470  13.729   8.334   8.671
87191SOL    HW263471  13.814   8.312   8.794
87192SOL     OW63472   3.809  10.885   4.194
87192SOL    HW163473   3.887  10.904   4.245
87192SOL    HW263474   3.810  10.950   4.124
87193SOL     OW63475  12.290  11.019   3.593
87193SOL    HW163476  12.319  11.110   3.607
87193SOL    HW263477  12.205  11.028   3.551
87194SOL     OW63478  12.818  11.520   9.256
87194SOL    HW163479  12.829  11.522   9.161
87194SOL    HW263480  12.754  11.450   9.272
87195SOL     OW63481   1.568   9.448  13.528
87195SOL    HW163482   1.524   9.365  13.511
87195SOL    HW263483   1.497   9.512  13.536
87196SOL     OW63484   8.714  13.054  11.682
87196SOL    HW163485   8.784  12.995  11.654
87196SOL    HW263486   8.648  13.047  11.613
87197SOL     OW63487   8.001   4.724  14.502
87197SOL    HW163488   7.957   4.676  14.433
87197SOL    HW263489   8.093   4.728  14.474
87198SOL     OW63490   8.568  10.228  10.266
87198SOL    HW163491   8.555  10.162  10.334
87198SOL    HW263492   8.662  10.226  10.247
87199SOL     OW63493   9.208   9.779   7.236
87199SOL    HW163494   9.223   9.799   7.144
87199SOL    HW263495   9.151   9.849   7.267
87200SOL     OW63496   7.139   1.120   4.605
87200SOL    HW163497   7.083   1.168   4.666
87200SOL    HW263498   7.228   1.142   4.631
87201SOL     OW63499   0.248   6.059   9.977
87201SOL    HW163500   0.169   6.107  10.000
87201SOL    HW263501   0.307   6.127   9.943
87202SOL     OW63502   2.877   3.315   4.837
87202SOL    HW163503   2.882   3.280   4.927
87202SOL    HW263504   2.933   3.257   4.786
87203SOL     OW63505   5.989  12.003   2.885
87203SOL    HW163506   6.016  12.022   2.795
87203SOL    HW263507   5.930  11.929   2.877
87204SOL     OW63508   6.310  13.367   3.082
87204SOL    HW163509   6.404  13.351   3.073
87204SOL    HW263510   6.304  13.444   3.139
87205SOL     OW63511   9.776   0.183   3.492
87205SOL    HW163512   9.850   0.243   3.486
87205SOL    HW263513   9.769   0.143   3.405
87206SOL     OW63514   2.782   7.371   1.581
87206SOL    HW163515   2.805   7.442   1.641
87206SOL    HW263516   2.709   7.326   1.624
87207SOL     OW63517   1.600   0.553   9.454
87207SOL    HW163518   1.677   0.607   9.433
87207SOL    HW263519   1.535   0.617   9.485
87208SOL     OW63520   2.977   9.112  11.112
87208SOL    HW163521   3.036   9.081  11.181
87208SOL    HW263522   3.031   9.112  11.033
87209SOL     OW63523   7.098   2.939  10.232
87209SOL    HW163524   7.015   2.895  10.250
87209SOL    HW263525   7.080   3.032  10.248
87210SOL     OW63526  11.150   0.502   4.705
87210SOL    HW163527  11.123   0.524   4.794
87210SOL    HW263528  11.191   0.416   4.713
87211SOL     OW63529   3.709  10.643   1.161
87211SOL    HW163530   3.701  10.685   1.075
87211SOL    HW263531   3.619  10.632   1.191
87212SOL     OW63532   6.075   6.298   2.172
87212SOL    HW163533   6.152   6.352   2.190
87212SOL    HW263534   6.004   6.361   2.161
87213SOL     OW63535   5.673  11.702   3.974
87213SOL    HW163536   5.748  11.756   3.950
87213SOL    HW263537   5.640  11.669   3.890
87214SOL     OW63538  14.434   5.428   8.634
87214SOL    HW163539  14.491   5.461   8.705
87214SOL    HW263540  14.435   5.333   8.645
87215SOL     OW63541  13.619  11.116   5.074
87215SOL    HW163542  13.656  11.103   4.986
87215SOL    HW263543  13.695  11.112   5.133
87216SOL     OW63544  12.314   4.866   7.486
87216SOL    HW163545  12.333   4.908   7.403
87216SOL    HW263546  12.222   4.888   7.503
87217SOL     OW63547   2.719   7.717   0.847
87217SOL    HW163548   2.700   7.627   0.822
87217SOL    HW263549   2.661   7.770   0.793
87218SOL     OW63550   4.461   2.763   6.859
87218SOL    HW163551   4.430   2.696   6.798
87218SOL    HW263552   4.400   2.836   6.848
87219SOL     OW63553   2.801   5.272   7.713
87219SOL    HW163554   2.880   5.245   7.761
87219SOL    HW263555   2.729   5.247   7.771
87220SOL     OW63556  11.231   3.270   0.474
87220SOL    HW163557  11.252   3.188   0.518
87220SOL    HW263558  11.316   3.307   0.449
87221SOL     OW63559   3.308   2.174   3.751
87221SOL    HW163560   3.244   2.196   3.819
87221SOL    HW263561   3.393   2.189   3.792
87222SOL     OW63562  11.348   2.145   5.029
87222SOL    HW163563  11.418   2.122   4.968
87222SOL    HW263564  11.325   2.062   5.071
87223SOL     OW63565   6.655   4.357   5.521
87223SOL    HW163566   6.688   4.446   5.530
87223SOL    HW263567   6.688   4.311   5.598
87224SOL     OW63568   8.015  14.511   0.057
87224SOL    HW163569   8.098  14.474   0.028
87224SOL    HW263570   7.985  14.564  14.864
87225SOL     OW63571   4.175   4.205   0.453
87225SOL    HW163572   4.087   4.171   0.437
87225SOL    HW263573   4.204   4.159   0.532
87226SOL     OW63574   4.726   1.460   4.852
87226SOL    HW163575   4.713   1.546   4.813
87226SOL    HW263576   4.802   1.424   4.806
87227SOL     OW63577   5.312   3.863   8.166
87227SOL    HW163578   5.321   3.866   8.071
87227SOL    HW263579   5.377   3.800   8.195
87228SOL     OW63580   3.044  10.466   1.122
87228SOL    HW163581   3.083  10.469   1.210
87228SOL    HW263582   3.118  10.455   1.063
87229SOL     OW63583   1.408   4.787  12.834
87229SOL    HW163584   1.406   4.832  12.919
87229SOL    HW263585   1.344   4.833  12.781
87230SOL     OW63586   2.299   8.666   6.546
87230SOL    HW163587   2.210   8.647   6.575
87230SOL    HW263588   2.337   8.580   6.525
87231SOL     OW63589   1.382  14.172   7.018
87231SOL    HW163590   1.290  14.193   7.031
87231SOL    HW263591   1.424  14.192   7.102
87232SOL     OW63592   8.263  10.904  10.132
87232SOL    HW163593   8.262  10.994  10.098
87232SOL    HW263594   8.332  10.861  10.082
87233SOL     OW63595   7.201  13.380   3.564
87233SOL    HW163596   7.122  13.327   3.576
87233SOL    HW263597   7.189  13.455   3.622
87234SOL     OW63598   7.274  12.915   4.932
87234SOL    HW163599   7.242  12.835   4.890
87234SOL    HW263600   7.369  12.915   4.915
87235SOL     OW63601  11.075   3.623   3.417
87235SOL    HW163602  11.146   3.620   3.352
87235SOL    HW263603  11.092   3.702   3.468
87236SOL     OW63604  13.081  10.784   4.086
87236SOL    HW163605  13.107  10.725   4.015
87236SOL    HW263606  12.993  10.813   4.061
87237SOL     OW63607   2.970  12.612   0.057
87237SOL    HW163608   2.999  12.617   0.148
87237SOL    HW263609   3.039  12.656   0.007
87238SOL     OW63610   5.592   4.852   7.982
87238SOL    HW163611   5.673   4.836   7.934
87238SOL    HW263612   5.546   4.920   7.932
87239SOL     OW63613   4.879   1.279   1.192
87239SOL    HW163614   4.923   1.352   1.148
87239SOL    HW263615   4.844   1.318   1.273
87240SOL     OW63616   8.211   9.182   8.836
87240SOL    HW163617   8.144   9.121   8.866
87240SOL    HW263618   8.285   9.126   8.812
87241SOL     OW63619   3.066   5.543   9.984
87241SOL    HW163620   3.129   5.601   9.940
87241SOL    HW263621   3.085   5.456   9.947
87242SOL     OW63622   1.749   2.291  14.492
87242SOL    HW163623   1.751   2.294  14.587
87242SOL    HW263624   1.742   2.198  14.470
87243SOL     OW63625   0.735   6.051   3.349
87243SOL    HW163626   0.760   5.966   3.311
87243SOL    HW263627   0.744   6.038   3.443
87244SOL     OW63628   4.421  10.909   1.919
87244SOL    HW163629   4.494  10.964   1.892
87244SOL    HW263630   4.364  10.968   1.969
87245SOL     OW63631   6.393   6.435   2.464
87245SOL    HW163632   6.406   6.376   2.538
87245SOL    HW263633   6.481   6.455   2.433
87246SOL     OW63634   1.334   4.841   4.212
87246SOL    HW163635   1.290   4.764   4.247
87246SOL    HW263636   1.331   4.830   4.117
87247SOL     OW63637   5.216  10.392   5.534
87247SOL    HW163638   5.274  10.466   5.547
87247SOL    HW263639   5.247  10.350   5.454
87248SOL     OW63640   4.225   6.198  11.079
87248SOL    HW163641   4.308   6.245  11.088
87248SOL    HW263642   4.209   6.163  11.167
87249SOL     OW63643   4.005   2.913  11.180
87249SOL    HW163644   3.986   3.005  11.161
87249SOL    HW263645   4.009   2.871  11.093
87250SOL     OW63646   4.610   9.557  10.418
87250SOL    HW163647   4.703   9.580  10.407
87250SOL    HW263648   4.563   9.636  10.392
87251SOL     OW63649   1.950   0.198   6.648
87251SOL    HW163650   1.986   0.185   6.736
87251SOL    HW263651   2.012   0.154   6.590
87252SOL     OW63652   1.779  14.091   5.518
87252SOL    HW163653   1.700  14.080   5.465
87252SOL    HW263654   1.747  14.089   5.609
87253SOL     OW63655  14.602   4.038  14.502
87253SOL    HW163656  14.522   4.016  14.453
87253SOL    HW263657  14.584   4.008  14.591
87254SOL     OW63658   7.792   6.939   6.536
87254SOL    HW163659   7.832   6.919   6.621
87254SOL    HW263660   7.751   7.024   6.548
87255SOL     OW63661  10.678   7.034   4.906
87255SOL    HW163662  10.684   7.067   4.995
87255SOL    HW263663  10.608   6.969   4.908
87256SOL     OW63664   0.648   9.193   6.115
87256SOL    HW163665   0.658   9.288   6.117
87256SOL    HW263666   0.683   9.163   6.198
87257SOL     OW63667   5.194  11.420  12.682
87257SOL    HW163668   5.280  11.459  12.700
87257SOL    HW263669   5.168  11.380  12.765
87258SOL     OW63670  13.111   4.438   8.394
87258SOL    HW163671  13.047   4.470   8.458
87258SOL    HW263672  13.090   4.345   8.384
87259SOL     OW63673  10.255  14.807   1.767
87259SOL    HW163674  10.342  14.846   1.763
87259SOL    HW263675  10.256  14.739   1.700
87260SOL     OW63676  13.067   5.500   5.033
87260SOL    HW163677  12.985   5.451   5.045
87260SOL    HW263678  13.064   5.567   5.101
87261SOL     OW63679   5.056   7.873   9.413
87261SOL    HW163680   5.123   7.846   9.350
87261SOL    HW263681   5.058   7.969   9.410
87262SOL     OW63682   0.959   0.043   3.997
87262SOL    HW163683   0.987   0.125   4.036
87262SOL    HW263684   1.008  14.858   4.044
87263SOL     OW63685   7.341  13.561  13.275
87263SOL    HW163686   7.377  13.476  13.250
87263SOL    HW263687   7.308  13.547  13.364
87264SOL     OW63688   3.608   8.091   6.000
87264SOL    HW163689   3.682   8.038   6.029
87264SOL    HW263690   3.641   8.181   6.002
87265SOL     OW63691   9.491   2.300  11.307
87265SOL    HW163692   9.540   2.235  11.358
87265SOL    HW263693   9.554   2.371  11.293
87266SOL     OW63694   4.013  14.680   0.632
87266SOL    HW163695   3.968  14.742   0.575
87266SOL    HW263696   4.035  14.607   0.575
87267SOL     OW63697  11.425   6.457   6.868
87267SOL    HW163698  11.382   6.386   6.915
87267SOL    HW263699  11.475   6.414   6.799
87268SOL     OW63700   6.766   1.555   3.553
87268SOL    HW163701   6.854   1.586   3.531
87268SOL    HW263702   6.772   1.526   3.643
87269SOL     OW63703  11.178  10.773   8.777
87269SOL    HW163704  11.264  10.735   8.760
87269SOL    HW263705  11.196  10.866   8.794
87270SOL     OW63706  14.034  11.544   0.046
87270SOL    HW163707  13.972  11.611   0.077
87270SOL    HW263708  13.980  11.484  14.876
87271SOL     OW63709   3.734   5.698   0.046
87271SOL    HW163710   3.808   5.759   0.043
87271SOL    HW263711   3.672   5.739   0.106
87272SOL     OW63712   6.339   5.863  14.693
87272SOL    HW163713   6.323   5.936  14.633
87272SOL    HW263714   6.434   5.856  14.697
87273SOL     OW63715  10.470  10.361  12.813
87273SOL    HW163716  10.559  10.329  12.797
87273SOL    HW263717  10.424  10.349  12.730
87274SOL     OW63718   4.278   4.105   4.476
87274SOL    HW163719   4.253   4.013   4.485
87274SOL    HW263720   4.348   4.105   4.410
87275SOL     OW63721   3.799   7.088  13.072
87275SOL    HW163722   3.717   7.045  13.097
87275SOL    HW263723   3.838   7.029  13.007
87276SOL     OW63724   2.428   7.804   5.041
87276SOL    HW163725   2.504   7.859   5.024
87276SOL    HW263726   2.353   7.856   5.011
87277SOL     OW63727   0.359  14.685   1.742
87277SOL    HW163728   0.314  14.737   1.676
87277SOL    HW263729   0.446  14.724   1.748
87278SOL     OW63730   5.547   3.472   2.615
87278SOL    HW163731   5.465   3.471   2.665
87278SOL    HW263732   5.541   3.395   2.558
87279SOL     OW63733   6.341   4.887   2.358
87279SOL    HW163734   6.382   4.969   2.384
87279SOL    HW263735   6.404   4.819   2.383
87280SOL     OW63736   9.970  10.407   4.435
87280SOL    HW163737   9.936  10.335   4.488
87280SOL    HW263738   9.915  10.482   4.457
87281SOL     OW63739  11.789  10.953  10.611
87281SOL    HW163740  11.804  10.887  10.543
87281SOL    HW263741  11.850  11.024  10.588
87282SOL     OW63742   4.214   0.177   1.206
87282SOL    HW163743   4.192   0.238   1.136
87282SOL    HW263744   4.265   0.228   1.269
87283SOL     OW63745   3.479   0.895   5.478
87283SOL    HW163746   3.400   0.854   5.444
87283SOL    HW263747   3.485   0.978   5.430
87284SOL     OW63748   0.359  11.999  12.365
87284SOL    HW163749   0.297  11.957  12.424
87284SOL    HW263750   0.435  11.940  12.364
87285SOL     OW63751   7.354   9.289   1.693
87285SOL    HW163752   7.320   9.362   1.642
87285SOL    HW263753   7.374   9.221   1.628
87286SOL     OW63754   9.684  11.619   1.114
87286SOL    HW163755   9.677  11.567   1.194
87286SOL    HW263756   9.603  11.600   1.066
87287SOL     OW63757  11.682  12.563   0.119
87287SOL    HW163758  11.708  12.559   0.027
87287SOL    HW263759  11.759  12.596   0.165
87288SOL     OW63760   8.110  12.434   9.297
87288SOL    HW163761   8.068  12.350   9.314
87288SOL    HW263762   8.184  12.414   9.240
87289SOL     OW63763   5.274   0.140  14.231
87289SOL    HW163764   5.289   0.057  14.185
87289SOL    HW263765   5.294   0.121  14.323
87290SOL     OW63766   5.243   8.073  10.223
87290SOL    HW163767   5.219   8.156  10.183
87290SOL    HW263768   5.221   8.007  10.157
87291SOL     OW63769   2.628   2.319   2.058
87291SOL    HW163770   2.608   2.304   2.150
87291SOL    HW263771   2.657   2.410   2.054
87292SOL     OW63772   1.407   4.116  13.298
87292SOL    HW163773   1.457   4.139  13.219
87292SOL    HW263774   1.352   4.043  13.271
87293SOL     OW63775   3.485  10.333   5.064
87293SOL    HW163776   3.455  10.278   5.137
87293SOL    HW263777   3.482  10.275   4.988
87294SOL     OW63778   4.040  10.457   7.465
87294SOL    HW163779   3.975  10.410   7.517
87294SOL    HW263780   4.095  10.388   7.428
87295SOL     OW63781   5.242   7.556   6.318
87295SOL    HW163782   5.282   7.528   6.400
87295SOL    HW263783   5.183   7.485   6.294
87296SOL     OW63784   3.324   9.268   6.241
87296SOL    HW163785   3.329   9.172   6.248
87296SOL    HW263786   3.342   9.287   6.149
87297SOL     OW63787   8.398  10.601   3.057
87297SOL    HW163788   8.382  10.690   3.090
87297SOL    HW263789   8.310  10.562   3.051
87298SOL     OW63790   0.283  11.568   6.718
87298SOL    HW163791   0.266  11.545   6.627
87298SOL    HW263792   0.288  11.484   6.763
87299SOL     OW63793   5.563  10.090   2.932
87299SOL    HW163794   5.526  10.097   3.020
87299SOL    HW263795   5.577  10.180   2.904
87300SOL     OW63796   0.521   7.230  10.059
87300SOL    HW163797   0.558   7.142  10.049
87300SOL    HW263798   0.471   7.226  10.141
87301SOL     OW63799   6.226   4.910   2.086
87301SOL    HW163800   6.179   4.992   2.103
87301SOL    HW263801   6.266   4.888   2.170
87302SOL     OW63802   2.934   4.856   9.426
87302SOL    HW163803   2.863   4.919   9.437
87302SOL    HW263804   2.920   4.818   9.339
87303SOL     OW63805   0.328   7.667   6.124
87303SOL    HW163806   0.340   7.579   6.159
87303SOL    HW263807   0.415   7.706   6.125
87304SOL     OW63808  10.094   1.813  11.381
87304SOL    HW163809  10.179   1.812  11.339
87304SOL    HW263810  10.072   1.721  11.394
87305SOL     OW63811  14.177   6.770   1.890
87305SOL    HW163812  14.256   6.793   1.841
87305SOL    HW263813  14.141   6.854   1.919
87306SOL     OW63814  12.470  12.453   8.040
87306SOL    HW163815  12.385  12.463   8.083
87306SOL    HW263816  12.495  12.541   8.013
87307SOL     OW63817  10.340   6.486  12.678
87307SOL    HW163818  10.367   6.415  12.620
87307SOL    HW263819  10.283   6.443  12.742
87308SOL     OW63820   0.716   2.302  11.100
87308SOL    HW163821   0.739   2.295  11.008
87308SOL    HW263822   0.781   2.362  11.137
87309SOL     OW63823   6.279   3.407   7.383
87309SOL    HW163824   6.186   3.411   7.404
87309SOL    HW263825   6.300   3.314   7.384
87310SOL     OW63826  13.749   4.245   1.138
87310SOL    HW163827  13.785   4.261   1.225
87310SOL    HW263828  13.665   4.291   1.137
87311SOL     OW63829   8.088  11.187   7.849
87311SOL    HW163830   8.149  11.130   7.896
87311SOL    HW263831   8.014  11.198   7.910
87312SOL     OW63832  11.303   5.356   1.396
87312SOL    HW163833  11.285   5.316   1.481
87312SOL    HW263834  11.254   5.438   1.396
87313SOL     OW63835   4.990   4.205  11.221
87313SOL    HW163836   4.979   4.295  11.189
87313SOL    HW263837   4.953   4.207  11.310
87314SOL     OW63838   7.718  11.365   4.922
87314SOL    HW163839   7.650  11.419   4.882
87314SOL    HW263840   7.764  11.325   4.848
87315SOL     OW63841   2.025  11.573   8.700
87315SOL    HW163842   2.058  11.644   8.755
87315SOL    HW263843   1.962  11.616   8.642
87316SOL     OW63844   6.054   9.851   2.941
87316SOL    HW163845   6.120   9.856   3.011
87316SOL    HW263846   6.007   9.933   2.947
87317SOL     OW63847  14.783   7.034   7.114
87317SOL    HW163848  14.718   6.995   7.056
87317SOL    HW263849  14.734   7.100   7.164
87318SOL     OW63850  12.825   5.548   2.590
87318SOL    HW163851  12.797   5.460   2.563
87318SOL    HW263852  12.856   5.537   2.680
87319SOL     OW63853  12.939   7.298  11.985
87319SOL    HW163854  12.863   7.273  12.038
87319SOL    HW263855  12.904   7.364  11.925
87320SOL     OW63856  11.269   6.116  12.935
87320SOL    HW163857  11.352   6.133  12.889
87320SOL    HW263858  11.274   6.170  13.013
87321SOL     OW63859   9.025   5.909  13.416
87321SOL    HW163860   9.111   5.882  13.448
87321SOL    HW263861   9.024   6.004  13.427
87322SOL     OW63862  11.688   7.503  10.836
87322SOL    HW163863  11.693   7.533  10.926
87322SOL    HW263864  11.661   7.411  10.843
87323SOL     OW63865   4.631   1.057  13.245
87323SOL    HW163866   4.692   1.113  13.294
87323SOL    HW263867   4.571   1.118  13.202
87324SOL     OW63868   5.390  13.911   7.908
87324SOL    HW163869   5.388  13.971   7.982
87324SOL    HW263870   5.298  13.899   7.884
87325SOL     OW63871   0.328   9.039   1.592
87325SOL    HW163872   0.246   8.998   1.620
87325SOL    HW263873   0.389   8.966   1.584
87326SOL     OW63874   5.592   1.389   2.699
87326SOL    HW163875   5.510   1.347   2.673
87326SOL    HW263876   5.603   1.365   2.791
87327SOL     OW63877  10.661   5.812   2.432
87327SOL    HW163878  10.717   5.882   2.398
87327SOL    HW263879  10.722   5.750   2.472
87328SOL     OW63880   7.801  10.048   4.695
87328SOL    HW163881   7.738  10.038   4.766
87328SOL    HW263882   7.801   9.964   4.650
87329SOL     OW63883   7.195   0.542   4.176
87329SOL    HW163884   7.208   0.562   4.268
87329SOL    HW263885   7.270   0.486   4.153
87330SOL     OW63886  12.541  10.653   0.071
87330SOL    HW163887  12.569  10.737   0.035
87330SOL    HW263888  12.445  10.655   0.063
87331SOL     OW63889   4.343   1.834   3.500
87331SOL    HW163890   4.409   1.788   3.553
87331SOL    HW263891   4.356   1.927   3.520
87332SOL     OW63892   7.027   3.710   7.094
87332SOL    HW163893   7.112   3.747   7.073
87332SOL    HW263894   6.974   3.785   7.123
87333SOL     OW63895   4.355   1.978   7.988
87333SOL    HW163896   4.337   2.055   7.933
87333SOL    HW263897   4.295   1.911   7.956
87334SOL     OW63898   3.719   3.898   1.756
87334SOL    HW163899   3.728   3.833   1.826
87334SOL    HW263900   3.792   3.958   1.769
87335SOL     OW63901  14.225   5.491   2.541
87335SOL    HW163902  14.202   5.565   2.598
87335SOL    HW263903  14.141   5.449   2.522
87336SOL     OW63904   4.715   5.076   2.441
87336SOL    HW163905   4.759   5.002   2.399
87336SOL    HW263906   4.783   5.118   2.494
87337SOL     OW63907  10.580  11.641   5.327
87337SOL    HW163908  10.641  11.580   5.368
87337SOL    HW263909  10.498  11.592   5.319
87338SOL     OW63910   9.857   4.334   4.603
87338SOL    HW163911   9.915   4.283   4.547
87338SOL    HW263912   9.879   4.425   4.583
87339SOL     OW63913   4.202   0.808   2.748
87339SOL    HW163914   4.250   0.861   2.685
87339SOL    HW263915   4.231   0.839   2.833
87340SOL     OW63916  14.188   3.162   5.862
87340SOL    HW163917  14.197   3.193   5.952
87340SOL    HW263918  14.152   3.237   5.814
87341SOL     OW63919   2.306  10.871   1.138
87341SOL    HW163920   2.271  10.803   1.080
87341SOL    HW263921   2.349  10.822   1.208
87342SOL     OW63922   1.137  10.180   1.698
87342SOL    HW163923   1.199  10.125   1.747
87342SOL    HW263924   1.103  10.241   1.764
87343SOL     OW63925   8.615  12.786   0.988
87343SOL    HW163926   8.705  12.771   1.015
87343SOL    HW263927   8.589  12.866   1.033
87344SOL     OW63928   5.233   3.769  10.649
87344SOL    HW163929   5.236   3.857  10.612
87344SOL    HW263930   5.229   3.783  10.744
87345SOL     OW63931   8.063  11.747   1.012
87345SOL    HW163932   8.092  11.754   1.102
87345SOL    HW263933   8.010  11.826   0.997
87346SOL     OW63934  14.305   7.028   6.447
87346SOL    HW163935  14.397   7.055   6.453
87346SOL    HW263936  14.256   7.110   6.442
87347SOL     OW63937   5.978  14.372   1.156
87347SOL    HW163938   5.906  14.340   1.211
87347SOL    HW263939   5.936  14.424   1.089
87348SOL     OW63940   4.230  14.068   5.118
87348SOL    HW163941   4.159  14.094   5.058
87348SOL    HW263942   4.204  14.103   5.203
87349SOL     OW63943   7.860   0.928   9.208
87349SOL    HW163944   7.879   1.021   9.219
87349SOL    HW263945   7.770   0.917   9.238
87350SOL     OW63946  13.850   4.875  13.577
87350SOL    HW163947  13.812   4.834  13.499
87350SOL    HW263948  13.933   4.912  13.547
87351SOL     OW63949   3.776   1.496  10.321
87351SOL    HW163950   3.791   1.406  10.291
87351SOL    HW263951   3.713   1.487  10.393
87352SOL     OW63952   7.609   4.993   2.814
87352SOL    HW163953   7.664   4.945   2.753
87352SOL    HW263954   7.558   4.926   2.859
87353SOL     OW63955  13.162  10.598  14.837
87353SOL    HW163956  13.160  10.509  14.873
87353SOL    HW263957  13.247  10.604  14.793
87354SOL     OW63958  13.147  13.318   2.711
87354SOL    HW163959  13.198  13.337   2.632
87354SOL    HW263960  13.167  13.226   2.731
87355SOL     OW63961   1.241   7.441   9.180
87355SOL    HW163962   1.151   7.448   9.209
87355SOL    HW263963   1.236   7.392   9.097
87356SOL     OW63964  11.533   4.054   5.707
87356SOL    HW163965  11.480   3.989   5.661
87356SOL    HW263966  11.623   4.033   5.682
87357SOL     OW63967  14.019   0.314  14.817
87357SOL    HW163968  14.045   0.309  14.725
87357SOL    HW263969  13.981   0.228  14.836
87358SOL     OW63970  10.192   9.701   0.328
87358SOL    HW163971  10.251   9.709   0.403
87358SOL    HW263972  10.191   9.607   0.308
87359SOL     OW63973   2.431   5.238   7.071
87359SOL    HW163974   2.374   5.315   7.077
87359SOL    HW263975   2.372   5.163   7.074
87360SOL     OW63976  11.322   8.118   0.463
87360SOL    HW163977  11.357   8.180   0.399
87360SOL    HW263978  11.235   8.154   0.484
87361SOL     OW63979   1.219   8.374   8.091
87361SOL    HW163980   1.294   8.336   8.137
87361SOL    HW263981   1.181   8.435   8.153
87362SOL     OW63982   6.072   8.928   2.731
87362SOL    HW163983   6.015   8.918   2.654
87362SOL    HW263984   6.145   8.981   2.700
87363SOL     OW63985   7.940   0.766   7.804
87363SOL    HW163986   7.907   0.844   7.846
87363SOL    HW263987   7.999   0.798   7.735
87364SOL     OW63988  12.395   0.856  13.629
87364SOL    HW163989  12.356   0.931  13.673
87364SOL    HW263990  12.334   0.834  13.559
87365SOL     OW63991   8.817   8.683  11.376
87365SOL    HW163992   8.821   8.778  11.387
87365SOL    HW263993   8.754   8.653  11.443
87366SOL     OW63994  10.756   5.518   2.772
87366SOL    HW163995  10.710   5.551   2.849
87366SOL    HW263996  10.783   5.429   2.796
87367SOL     OW63997   8.577   9.687  13.899
87367SOL    HW163998   8.484   9.665  13.892
87367SOL    HW263999   8.587   9.722  13.987
87368SOL     OW64000  14.123   7.860  10.592
87368SOL    HW164001  14.168   7.779  10.615
87368SOL    HW264002  14.030   7.838  10.596
87369SOL     OW64003   0.677   2.021  13.460
87369SOL    HW164004   0.761   2.060  13.438
87369SOL    HW264005   0.691   1.926  13.448
87370SOL     OW64006   5.725   4.721   1.907
87370SOL    HW164007   5.642   4.724   1.860
87370SOL    HW264008   5.756   4.632   1.894
87371SOL     OW64009  12.271   9.432   8.580
87371SOL    HW164010  12.313   9.367   8.636
87371SOL    HW264011  12.342   9.488   8.549
87372SOL     OW64012  10.420   2.489   3.020
87372SOL    HW164013  10.477   2.532   3.083
87372SOL    HW264014  10.430   2.540   2.940
87373SOL     OW64015   7.352   7.235   0.475
87373SOL    HW164016   7.277   7.228   0.415
87373SOL    HW264017   7.344   7.160   0.533
87374SOL     OW64018   6.633  10.391   3.958
87374SOL    HW164019   6.645  10.332   4.032
87374SOL    HW264020   6.682  10.350   3.887
87375SOL     OW64021   4.556  11.660   2.670
87375SOL    HW164022   4.621  11.598   2.705
87375SOL    HW264023   4.526  11.708   2.747
87376SOL     OW64024   4.935  13.132  12.462
87376SOL    HW164025   4.939  13.174  12.548
87376SOL    HW264026   4.962  13.042  12.478
87377SOL     OW64027  11.939  10.078   2.232
87377SOL    HW164028  11.912  10.046   2.146
87377SOL    HW264029  12.015  10.025   2.256
87378SOL     OW64030   6.141   5.426  10.453
87378SOL    HW164031   6.094   5.345  10.472
87378SOL    HW264032   6.083   5.495  10.484
87379SOL     OW64033  13.711   0.509   8.757
87379SOL    HW164034  13.672   0.487   8.672
87379SOL    HW264035  13.731   0.424   8.796
87380SOL     OW64036   0.735  14.418   6.656
87380SOL    HW164037   0.747  14.327   6.628
87380SOL    HW264038   0.805  14.433   6.720
87381SOL     OW64039   4.789   1.307  13.713
87381SOL    HW164040   4.876   1.279  13.742
87381SOL    HW264041   4.753   1.356  13.787
87382SOL     OW64042   0.657  12.890  12.565
87382SOL    HW164043   0.638  12.962  12.505
87382SOL    HW264044   0.712  12.929  12.632
87383SOL     OW64045   5.363  14.556   5.273
87383SOL    HW164046   5.356  14.536   5.179
87383SOL    HW264047   5.311  14.636   5.284
87384SOL     OW64048   5.525   4.300  13.480
87384SOL    HW164049   5.545   4.207  13.468
87384SOL    HW264050   5.470   4.322  13.404
87385SOL     OW64051   7.241   2.226   9.340
87385SOL    HW164052   7.153   2.188   9.340
87385SOL    HW264053   7.242   2.280   9.261
87386SOL     OW64054  10.572   8.691  10.907
87386SOL    HW164055  10.619   8.744  10.971
87386SOL    HW264056  10.638   8.633  10.869
87387SOL     OW64057  10.113   6.630   5.122
87387SOL    HW164058  10.033   6.672   5.089
87387SOL    HW264059  10.180   6.699   5.117
87388SOL     OW64060  11.644   0.297   9.923
87388SOL    HW164061  11.622   0.322  10.013
87388SOL    HW264062  11.675   0.378   9.883
87389SOL     OW64063  12.312  11.371  12.057
87389SOL    HW164064  12.292  11.296  12.000
87389SOL    HW264065  12.291  11.340  12.145
87390SOL     OW64066   3.269   8.139  12.427
87390SOL    HW164067   3.281   8.100  12.513
87390SOL    HW264068   3.305   8.074  12.366
87391SOL     OW64069   6.216   0.703   0.805
87391SOL    HW164070   6.233   0.683   0.713
87391SOL    HW264071   6.184   0.793   0.805
87392SOL     OW64072  10.584  12.233   7.292
87392SOL    HW164073  10.680  12.231   7.289
87392SOL    HW264074  10.557  12.155   7.244
87393SOL     OW64075  12.192   0.611  12.673
87393SOL    HW164076  12.114   0.658  12.642
87393SOL    HW264077  12.221   0.560  12.597
87394SOL     OW64078   9.835   0.927  14.637
87394SOL    HW164079   9.816   1.017  14.663
87394SOL    HW264080   9.897   0.895  14.702
87395SOL     OW64081   7.913   5.926  14.525
87395SOL    HW164082   8.006   5.925  14.549
87395SOL    HW264083   7.868   5.950  14.606
87396SOL     OW64084   3.058   9.738  14.811
87396SOL    HW164085   2.997   9.728  14.738
87396SOL    HW264086   3.047   9.659  14.863
87397SOL     OW64087   8.261  14.225   4.458
87397SOL    HW164088   8.319  14.149   4.456
87397SOL    HW264089   8.292  14.281   4.387
87398SOL     OW64090   2.289   9.978  10.763
87398SOL    HW164091   2.331   9.909  10.814
87398SOL    HW264092   2.213   9.937  10.723
87399SOL     OW64093   1.966   0.891  10.596
87399SOL    HW164094   1.990   0.907  10.505
87399SOL    HW264095   2.049   0.889  10.643
87400SOL     OW64096   2.481   5.257  12.958
87400SOL    HW164097   2.574   5.247  12.938
87400SOL    HW264098   2.456   5.173  12.997
87401SOL     OW64099   5.623   3.420   8.238
87401SOL    HW164100   5.561   3.412   8.310
87401SOL    HW264101   5.578   3.381   8.163
87402SOL     OW64102   8.899   7.536   9.796
87402SOL    HW164103   8.941   7.590   9.729
87402SOL    HW264104   8.883   7.452   9.752
87403SOL     OW64105   4.906  14.337  14.261
87403SOL    HW164106   4.888  14.413  14.206
87403SOL    HW264107   4.912  14.264  14.199
87404SOL     OW64108   1.689   2.194  14.152
87404SOL    HW164109   1.641   2.112  14.167
87404SOL    HW264110   1.670   2.216  14.061
87405SOL     OW64111  10.983   6.827   5.122
87405SOL    HW164112  10.994   6.732   5.117
87405SOL    HW264113  11.017   6.859   5.038
87406SOL     OW64114   9.541   2.614   5.557
87406SOL    HW164115   9.485   2.591   5.631
87406SOL    HW264116   9.600   2.681   5.591
87407SOL     OW64117   0.945  11.645  10.477
87407SOL    HW164118   0.966  11.552  10.478
87407SOL    HW264119   0.914  11.664  10.566
87408SOL     OW64120  10.181   9.228   5.860
87408SOL    HW164121  10.100   9.268   5.893
87408SOL    HW264122  10.153   9.166   5.794
87409SOL     OW64123   3.537  12.220   8.447
87409SOL    HW164124   3.466  12.252   8.390
87409SOL    HW264125   3.537  12.280   8.521
87410SOL     OW64126   6.525   3.721   1.149
87410SOL    HW164127   6.437   3.722   1.187
87410SOL    HW264128   6.524   3.648   1.087
87411SOL     OW64129   9.806   9.029   1.273
87411SOL    HW164130   9.893   9.049   1.309
87411SOL    HW264131   9.765   9.115   1.263
87412SOL     OW64132   4.424   3.391   0.286
87412SOL    HW164133   4.357   3.369   0.221
87412SOL    HW264134   4.507   3.379   0.241
87413SOL     OW64135   5.157  10.368  11.864
87413SOL    HW164136   5.156  10.462  11.845
87413SOL    HW264137   5.214  10.330  11.797
87414SOL     OW64138   1.782   9.428   5.373
87414SOL    HW164139   1.841   9.439   5.298
87414SOL    HW264140   1.838   9.391   5.442
87415SOL     OW64141  14.013   5.217  12.253
87415SOL    HW164142  13.944   5.215  12.319
87415SOL    HW264143  13.989   5.148  12.191
87416SOL     OW64144  12.728  10.659   3.043
87416SOL    HW164145  12.638  10.631   3.057
87416SOL    HW264146  12.781  10.585   3.073
87417SOL     OW64147   1.672   4.995  11.153
87417SOL    HW164148   1.664   4.923  11.091
87417SOL    HW264149   1.592   4.992  11.205
87418SOL     OW64150   4.517   4.601   0.866
87418SOL    HW164151   4.599   4.607   0.916
87418SOL    HW264152   4.536   4.538   0.797
87419SOL     OW64153   3.514   3.358   3.204
87419SOL    HW164154   3.453   3.314   3.145
87419SOL    HW264155   3.595   3.306   3.198
87420SOL     OW64156   7.447  13.712   5.939
87420SOL    HW164157   7.375  13.680   5.994
87420SOL    HW264158   7.449  13.650   5.865
87421SOL     OW64159   2.752   9.005  10.497
87421SOL    HW164160   2.815   9.068  10.533
87421SOL    HW264161   2.722   9.045  10.416
87422SOL     OW64162   8.141  12.426   4.822
87422SOL    HW164163   8.147  12.496   4.757
87422SOL    HW264164   8.099  12.467   4.897
87423SOL     OW64165   0.118  13.655  13.045
87423SOL    HW164166   0.185  13.723  13.043
87423SOL    HW264167   0.166  13.574  13.024
87424SOL     OW64168   6.967   6.034  13.149
87424SOL    HW164169   6.905   5.990  13.090
87424SOL    HW264170   6.953   5.992  13.234
87425SOL     OW64171  13.293   7.920   6.604
87425SOL    HW164172  13.264   7.943   6.516
87425SOL    HW264173  13.270   7.828   6.614
87426SOL     OW64174   1.509  10.229   0.681
87426SOL    HW164175   1.599  10.252   0.705
87426SOL    HW264176   1.499  10.139   0.712
87427SOL     OW64177   7.006   8.704   7.785
87427SOL    HW164178   6.915   8.675   7.788
87427SOL    HW264179   7.015   8.743   7.698
87428SOL     OW64180   6.873   8.284  14.862
87428SOL    HW164181   6.781   8.256  14.859
87428SOL    HW264182   6.921   8.204   0.000
87429SOL     OW64183  11.538   2.117  10.880
87429SOL    HW164184  11.537   2.064  10.960
87429SOL    HW264185  11.628   2.110  10.848
87430SOL     OW64186  11.720  10.120   2.428
87430SOL    HW164187  11.683  10.204   2.453
87430SOL    HW264188  11.800  10.142   2.381
87431SOL     OW64189   8.293   6.404   7.828
87431SOL    HW164190   8.331   6.381   7.913
87431SOL    HW264191   8.233   6.476   7.848
87432SOL     OW64192   4.460  12.570   5.474
87432SOL    HW164193   4.542  12.609   5.504
87432SOL    HW264194   4.486  12.506   5.408
87433SOL     OW64195  12.611   9.967   3.705
87433SOL    HW164196  12.521   9.998   3.695
87433SOL    HW264197  12.613   9.885   3.656
87434SOL     OW64198   6.616   4.479  14.476
87434SOL    HW164199   6.641   4.554  14.530
87434SOL    HW264200   6.521   4.480  14.476
87435SOL     OW64201   2.642   3.403  14.226
87435SOL    HW164202   2.686   3.333  14.273
87435SOL    HW264203   2.642   3.374  14.134
87436SOL     OW64204   3.355   6.043   9.172
87436SOL    HW164205   3.441   6.007   9.195
87436SOL    HW264206   3.313   5.974   9.121
87437SOL     OW64207   8.312   9.840   0.675
87437SOL    HW164208   8.270   9.757   0.699
87437SOL    HW264209   8.317   9.836   0.579
87438SOL     OW64210   9.239   9.873   8.388
87438SOL    HW164211   9.314   9.885   8.446
87438SOL    HW264212   9.164   9.867   8.447
87439SOL     OW64213   5.421  13.532  14.849
87439SOL    HW164214   5.465  13.448  14.847
87439SOL    HW264215   5.330  13.511  14.872
87440SOL     OW64216   1.851   3.316   1.908
87440SOL    HW164217   1.769   3.355   1.875
87440SOL    HW264218   1.867   3.241   1.850
87441SOL     OW64219   9.653   8.323   8.939
87441SOL    HW164220   9.716   8.309   9.009
87441SOL    HW264221   9.702   8.366   8.869
87442SOL     OW64222  12.246   7.048   3.528
87442SOL    HW164223  12.217   7.138   3.546
87442SOL    HW264224  12.177   6.993   3.564
87443SOL     OW64225   2.006  11.297   2.044
87443SOL    HW164226   1.969  11.312   2.131
87443SOL    HW264227   1.931  11.277   1.988
87444SOL     OW64228   6.574   4.934   4.234
87444SOL    HW164229   6.541   4.970   4.151
87444SOL    HW264230   6.539   4.993   4.301
87445SOL     OW64231  11.235  14.013   4.498
87445SOL    HW164232  11.297  13.942   4.518
87445SOL    HW264233  11.280  14.066   4.432
87446SOL     OW64234  14.481   8.834   6.292
87446SOL    HW164235  14.538   8.776   6.342
87446SOL    HW264236  14.477   8.915   6.344
87447SOL     OW64237  11.631   4.741   1.756
87447SOL    HW164238  11.605   4.688   1.832
87447SOL    HW264239  11.597   4.828   1.774
87448SOL     OW64240   9.627   1.624  10.118
87448SOL    HW164241   9.705   1.667  10.152
87448SOL    HW264242   9.629   1.536  10.156
87449SOL     OW64243   1.777   7.393   1.232
87449SOL    HW164244   1.763   7.470   1.178
87449SOL    HW264245   1.708   7.332   1.207
87450SOL     OW64246  11.388   4.805  12.473
87450SOL    HW164247  11.384   4.892  12.433
87450SOL    HW264248  11.375   4.822  12.567
87451SOL     OW64249   7.740  10.940  12.059
87451SOL    HW164250   7.726  11.023  12.104
87451SOL    HW264251   7.739  10.962  11.966
87452SOL     OW64252  11.066   5.092  11.135
87452SOL    HW164253  11.032   5.181  11.123
87452SOL    HW264254  10.989   5.039  11.153
87453SOL     OW64255  14.081  12.611  12.078
87453SOL    HW164256  14.006  12.561  12.046
87453SOL    HW264257  14.138  12.620  12.001
87454SOL     OW64258  11.169   9.340  13.592
87454SOL    HW164259  11.211   9.255  13.589
87454SOL    HW264260  11.215   9.388  13.661
87455SOL     OW64261   7.006   0.676   0.319
87455SOL    HW164262   6.974   0.588   0.341
87455SOL    HW264263   7.077   0.660   0.257
87456SOL     OW64264   8.698  13.268  12.515
87456SOL    HW164265   8.768  13.312  12.467
87456SOL    HW264266   8.683  13.187  12.465
87457SOL     OW64267   9.621   5.399   5.390
87457SOL    HW164268   9.603   5.310   5.359
87457SOL    HW264269   9.716   5.404   5.397
87458SOL     OW64270  11.847  12.085   3.646
87458SOL    HW164271  11.834  12.088   3.741
87458SOL    HW264272  11.766  12.121   3.610
87459SOL     OW64273   5.259   7.874   2.291
87459SOL    HW164274   5.251   7.783   2.318
87459SOL    HW264275   5.269   7.923   2.373
87460SOL     OW64276  12.818  11.793   3.185
87460SOL    HW164277  12.821  11.786   3.089
87460SOL    HW264278  12.804  11.703   3.214
87461SOL     OW64279  13.570   6.747   5.192
87461SOL    HW164280  13.576   6.682   5.263
87461SOL    HW264281  13.479   6.741   5.162
87462SOL     OW64282   1.667   2.439   3.203
87462SOL    HW164283   1.643   2.455   3.294
87462SOL    HW264284   1.671   2.526   3.164
87463SOL     OW64285   3.480   4.660   9.706
87463SOL    HW164286   3.557   4.714   9.720
87463SOL    HW264287   3.471   4.609   9.787
87464SOL     OW64288   1.684   5.319   3.293
87464SOL    HW164289   1.761   5.373   3.311
87464SOL    HW264290   1.622   5.342   3.362
87465SOL     OW64291   6.495  10.438   9.959
87465SOL    HW164292   6.558  10.367   9.968
87465SOL    HW264293   6.460  10.451  10.048
87466SOL     OW64294  11.151   4.006  14.333
87466SOL    HW164295  11.246   4.016  14.336
87466SOL    HW264296  11.127   4.041  14.247
87467SOL     OW64297   3.551   3.004  11.724
87467SOL    HW164298   3.466   2.989  11.764
87467SOL    HW264299   3.606   2.933  11.758
87468SOL     OW64300   5.487   1.443  12.156
87468SOL    HW164301   5.452   1.361  12.192
87468SOL    HW264302   5.580   1.440  12.179
87469SOL     OW64303  10.776   9.028   8.026
87469SOL    HW164304  10.770   8.954   7.966
87469SOL    HW264305  10.745   9.103   7.975
87470SOL     OW64306   9.545  11.610   5.184
87470SOL    HW164307   9.560  11.554   5.260
87470SOL    HW264308   9.459  11.584   5.152
87471SOL     OW64309   2.459   9.935   6.421
87471SOL    HW164310   2.510  10.014   6.404
87471SOL    HW264311   2.434   9.903   6.334
87472SOL     OW64312  13.726   5.854  13.233
87472SOL    HW164313  13.648   5.799  13.234
87472SOL    HW264314  13.789   5.805  13.181
87473SOL     OW64315  13.745   4.797   2.921
87473SOL    HW164316  13.701   4.719   2.955
87473SOL    HW264317  13.750   4.782   2.827
87474SOL     OW64318  14.421   9.041   9.418
87474SOL    HW164319  14.339   8.999   9.392
87474SOL    HW264320  14.486   9.008   9.356
87475SOL     OW64321   7.160  13.435   0.555
87475SOL    HW164322   7.106  13.360   0.530
87475SOL    HW264323   7.101  13.510   0.550
87476SOL     OW64324   8.892  13.968  10.926
87476SOL    HW164325   8.948  13.910  10.977
87476SOL    HW264326   8.919  14.056  10.952
87477SOL     OW64327  12.183   2.620  10.566
87477SOL    HW164328  12.173   2.711  10.537
87477SOL    HW264329  12.206   2.628  10.659
87478SOL     OW64330  14.102   0.719  12.325
87478SOL    HW164331  14.197   0.721  12.330
87478SOL    HW264332  14.082   0.713  12.231
87479SOL     OW64333   9.599  11.560  12.079
87479SOL    HW164334   9.578  11.564  11.985
87479SOL    HW264335   9.690  11.533  12.082
87480SOL     OW64336   1.162   6.005   3.383
87480SOL    HW164337   1.143   6.023   3.291
87480SOL    HW264338   1.245   5.958   3.382
87481SOL     OW64339  12.340  14.690   6.497
87481SOL    HW164340  12.341  14.769   6.550
87481SOL    HW264341  12.430  14.682   6.464
87482SOL     OW64342   7.115   1.144   1.514
87482SOL    HW164343   7.206   1.137   1.545
87482SOL    HW264344   7.119   1.207   1.443
87483SOL     OW64345   9.833  10.654   8.197
87483SOL    HW164346   9.862  10.567   8.169
87483SOL    HW264347   9.751  10.668   8.150
87484SOL     OW64348   4.669   9.188  12.125
87484SOL    HW164349   4.738   9.203  12.060
87484SOL    HW264350   4.634   9.275  12.144
87485SOL     OW64351   8.006  14.366   5.177
87485SOL    HW164352   8.012  14.329   5.090
87485SOL    HW264353   8.048  14.452   5.170
87486SOL     OW64354   0.772  13.065   9.783
87486SOL    HW164355   0.784  13.158   9.800
87486SOL    HW264356   0.681  13.057   9.754
87487SOL     OW64357   5.320   2.962  12.581
87487SOL    HW164358   5.301   3.052  12.606
87487SOL    HW264359   5.379   2.930  12.649
87488SOL     OW64360  10.715   1.557  13.574
87488SOL    HW164361  10.635   1.561  13.626
87488SOL    HW264362  10.691   1.506  13.496
87489SOL     OW64363  13.880   1.903   3.055
87489SOL    HW164364  13.903   1.811   3.046
87489SOL    HW264365  13.790   1.909   3.024
87490SOL     OW64366   9.605   7.629   3.891
87490SOL    HW164367   9.622   7.671   3.807
87490SOL    HW264368   9.521   7.664   3.920
87491SOL     OW64369   0.775   0.539  14.661
87491SOL    HW164370   0.840   0.561  14.729
87491SOL    HW264371   0.820   0.476  14.605
87492SOL     OW64372  11.945  14.377   0.328
87492SOL    HW164373  11.855  14.377   0.296
87492SOL    HW264374  11.984  14.455   0.290
87493SOL     OW64375   7.167  13.512   0.069
87493SOL    HW164376   7.177  13.457  14.874
87493SOL    HW264377   7.253  13.551   0.082
87494SOL     OW64378  10.650   0.553  14.848
87494SOL    HW164379  10.638   0.477   0.023
87494SOL    HW264380  10.715   0.526  14.784
87495SOL     OW64381   6.517   5.354   6.794
87495SOL    HW164382   6.578   5.406   6.742
87495SOL    HW264383   6.510   5.400   6.877
87496SOL     OW64384   0.912  11.260   8.306
87496SOL    HW164385   0.921  11.204   8.229
87496SOL    HW264386   0.837  11.316   8.286
87497SOL     OW64387   1.247   6.397  13.765
87497SOL    HW164388   1.157   6.366  13.753
87497SOL    HW264389   1.300   6.335  13.716
87498SOL     OW64390  14.484   7.004   3.977
87498SOL    HW164391  14.465   7.036   3.889
87498SOL    HW264392  14.556   6.942   3.965
87499SOL     OW64393   0.181   3.686  14.217
87499SOL    HW164394   0.236   3.639  14.154
87499SOL    HW264395   0.095   3.645  14.208
87500SOL     OW64396   5.762   7.233   2.646
87500SOL    HW164397   5.796   7.302   2.703
87500SOL    HW264398   5.721   7.280   2.573
87501SOL     OW64399   4.125   5.124   9.398
87501SOL    HW164400   4.128   5.220   9.405
87501SOL    HW264401   4.055   5.107   9.335
87502SOL     OW64402   5.661   6.557   1.985
87502SOL    HW164403   5.606   6.601   2.049
87502SOL    HW264404   5.750   6.561   2.022
87503SOL     OW64405   5.778   5.016   4.829
87503SOL    HW164406   5.832   4.937   4.839
87503SOL    HW264407   5.707   5.005   4.893
87504SOL     OW64408   2.545   0.911   7.118
87504SOL    HW164409   2.478   0.953   7.171
87504SOL    HW264410   2.511   0.916   7.029
87505SOL     OW64411   7.974   8.480   3.749
87505SOL    HW164412   7.911   8.425   3.794
87505SOL    HW264413   8.026   8.419   3.697
87506SOL     OW64414   6.254   0.148   2.051
87506SOL    HW164415   6.231   0.130   2.142
87506SOL    HW264416   6.173   0.135   2.002
87507SOL     OW64417  12.848  10.957  12.357
87507SOL    HW164418  12.850  10.863  12.371
87507SOL    HW264419  12.940  10.982  12.349
87508SOL     OW64420   3.599  11.728   0.920
87508SOL    HW164421   3.538  11.692   0.856
87508SOL    HW264422   3.552  11.800   0.960
87509SOL     OW64423  10.279   1.306   2.775
87509SOL    HW164424  10.275   1.402   2.777
87509SOL    HW264425  10.357   1.286   2.724
87510SOL     OW64426   2.320   2.551  14.792
87510SOL    HW164427   2.240   2.590  14.828
87510SOL    HW264428   2.343   2.608  14.719
87511SOL     OW64429   5.003   1.796   3.574
87511SOL    HW164430   5.050   1.770   3.653
87511SOL    HW264431   5.036   1.883   3.554
87512SOL     OW64432   7.765  11.364  11.167
87512SOL    HW164433   7.700  11.399  11.105
87512SOL    HW264434   7.795  11.283  11.126
87513SOL     OW64435   7.898   4.267   2.146
87513SOL    HW164436   7.894   4.342   2.206
87513SOL    HW264437   7.986   4.231   2.157
87514SOL     OW64438  13.479   1.926  12.969
87514SOL    HW164439  13.573   1.945  12.974
87514SOL    HW264440  13.464   1.904  12.877
87515SOL     OW64441   0.133   0.364  12.127
87515SOL    HW164442   0.083   0.396  12.202
87515SOL    HW264443   0.193   0.436  12.107
87516SOL     OW64444   6.805  13.508   7.924
87516SOL    HW164445   6.822  13.433   7.981
87516SOL    HW264446   6.709  13.515   7.922
87517SOL     OW64447  12.564   5.350   4.070
87517SOL    HW164448  12.605   5.425   4.028
87517SOL    HW264449  12.554   5.377   4.162
87518SOL     OW64450   4.111   8.016  10.421
87518SOL    HW164451   4.103   8.111  10.420
87518SOL    HW264452   4.088   7.989  10.332
87519SOL     OW64453   7.506   1.880  13.899
87519SOL    HW164454   7.539   1.934  13.970
87519SOL    HW264455   7.516   1.934  13.821
87520SOL     OW64456   6.352   8.214   8.359
87520SOL    HW164457   6.422   8.234   8.298
87520SOL    HW264458   6.380   8.254   8.442
87521SOL     OW64459  11.113  14.425  10.726
87521SOL    HW164460  11.023  14.418  10.758
87521SOL    HW264461  11.107  14.474  10.645
87522SOL     OW64462  11.543   8.378   2.230
87522SOL    HW164463  11.579   8.466   2.241
87522SOL    HW264464  11.498   8.360   2.312
87523SOL     OW64465  12.669  10.111   8.045
87523SOL    HW164466  12.682  10.106   8.140
87523SOL    HW264467  12.583  10.072   8.030
87524SOL     OW64468   3.530  13.340   7.611
87524SOL    HW164469   3.496  13.300   7.531
87524SOL    HW264470   3.570  13.268   7.659
87525SOL     OW64471  12.472  11.116   5.922
87525SOL    HW164472  12.481  11.100   5.828
87525SOL    HW264473  12.381  11.145   5.933
87526SOL     OW64474   0.713   2.744  13.216
87526SOL    HW164475   0.748   2.661  13.248
87526SOL    HW264476   0.700   2.729  13.122
87527SOL     OW64477  11.915  12.603  10.664
87527SOL    HW164478  11.940  12.556  10.585
87527SOL    HW264479  11.842  12.659  10.637
87528SOL     OW64480   5.982   6.341   0.459
87528SOL    HW164481   6.031   6.344   0.542
87528SOL    HW264482   5.936   6.257   0.462
87529SOL     OW64483   4.578   2.175   4.355
87529SOL    HW164484   4.512   2.107   4.350
87529SOL    HW264485   4.545   2.245   4.299
87530SOL     OW64486   9.183   8.384   2.039
87530SOL    HW164487   9.118   8.434   1.990
87530SOL    HW264488   9.259   8.379   1.981
87531SOL     OW64489   6.757   7.226   0.684
87531SOL    HW164490   6.688   7.175   0.726
87531SOL    HW264491   6.727   7.317   0.688
87532SOL     OW64492   4.399   2.854  14.614
87532SOL    HW164493   4.450   2.900  14.547
87532SOL    HW264494   4.448   2.773  14.630
87533SOL     OW64495   1.600   8.379   9.396
87533SOL    HW164496   1.613   8.471   9.420
87533SOL    HW264497   1.532   8.348   9.456
87534SOL     OW64498  12.586   2.799  10.629
87534SOL    HW164499  12.609   2.867  10.692
87534SOL    HW264500  12.527   2.842  10.567
87535SOL     OW64501   5.094   2.278   5.224
87535SOL    HW164502   5.061   2.300   5.136
87535SOL    HW264503   5.126   2.361   5.259
87536SOL     OW64504  14.233  11.783  13.383
87536SOL    HW164505  14.284  11.863  13.396
87536SOL    HW264506  14.143  11.808  13.402
87537SOL     OW64507  12.099   7.636  12.990
87537SOL    HW164508  12.035   7.687  13.038
87537SOL    HW264509  12.048   7.580  12.933
87538SOL     OW64510   7.158   0.876  10.991
87538SOL    HW164511   7.074   0.921  11.002
87538SOL    HW264512   7.173   0.832  11.075
87539SOL     OW64513   1.208   5.612   7.344
87539SOL    HW164514   1.183   5.638   7.255
87539SOL    HW264515   1.193   5.517   7.346
87540SOL     OW64516   0.442   4.138   8.809
87540SOL    HW164517   0.353   4.101   8.809
87540SOL    HW264518   0.430   4.229   8.839
87541SOL     OW64519   5.813  11.616  11.027
87541SOL    HW164520   5.823  11.568  10.945
87541SOL    HW264521   5.719  11.611  11.046
87542SOL     OW64522  10.784  13.847  13.063
87542SOL    HW164523  10.851  13.905  13.026
87542SOL    HW264524  10.702  13.894  13.051
87543SOL     OW64525   3.310   0.393   9.568
87543SOL    HW164526   3.265   0.350   9.641
87543SOL    HW264527   3.399   0.406   9.599
87544SOL     OW64528  10.580   3.675   6.969
87544SOL    HW164529  10.547   3.765   6.969
87544SOL    HW264530  10.569   3.645   7.059
87545SOL     OW64531  11.115   7.338  10.807
87545SOL    HW164532  11.146   7.428  10.797
87545SOL    HW264533  11.032   7.335  10.759
87546SOL     OW64534  14.050  11.482   1.606
87546SOL    HW164535  14.002  11.411   1.563
87546SOL    HW264536  14.041  11.556   1.545
87547SOL     OW64537  11.226  12.594   6.454
87547SOL    HW164538  11.297  12.638   6.408
87547SOL    HW264539  11.258  12.586   6.544
87548SOL     OW64540  11.276   7.999  14.183
87548SOL    HW164541  11.184   8.003  14.154
87548SOL    HW264542  11.326   8.005  14.102
87549SOL     OW64543  14.548  12.157   1.983
87549SOL    HW164544  14.596  12.076   2.001
87549SOL    HW264545  14.590  12.192   1.904
87550SOL     OW64546   6.343   5.161  13.745
87550SOL    HW164547   6.249   5.152  13.727
87550SOL    HW264548   6.382   5.084  13.704
87551SOL     OW64549   1.913  14.769   4.970
87551SOL    HW164550   1.898  14.683   5.011
87551SOL    HW264551   1.891  14.831   5.039
87552SOL     OW64552  12.420  11.464   6.040
87552SOL    HW164553  12.448  11.417   6.119
87552SOL    HW264554  12.324  11.462   6.043
87553SOL     OW64555   2.596  10.644  13.142
87553SOL    HW164556   2.672  10.670  13.091
87553SOL    HW264557   2.560  10.568  13.096
87554SOL     OW64558   1.243  12.872  14.509
87554SOL    HW164559   1.278  12.833  14.589
87554SOL    HW264560   1.316  12.867  14.447
87555SOL     OW64561   0.273  12.613   7.018
87555SOL    HW164562   0.350  12.565   6.986
87555SOL    HW264563   0.309  12.692   7.059
87556SOL     OW64564   2.369   6.727   4.446
87556SOL    HW164565   2.301   6.659   4.444
87556SOL    HW264566   2.340   6.792   4.382
87557SOL     OW64567   6.092  14.595   1.839
87557SOL    HW164568   6.078  14.535   1.912
87557SOL    HW264569   6.180  14.630   1.854
87558SOL     OW64570   4.587   5.415  12.693
87558SOL    HW164571   4.509   5.423  12.748
87558SOL    HW264572   4.554   5.388  12.608
87559SOL     OW64573   6.355   7.391  10.046
87559SOL    HW164574   6.374   7.348   9.963
87559SOL    HW264575   6.275   7.349  10.076
87560SOL     OW64576   9.490  13.389  13.024
87560SOL    HW164577   9.558  13.427  13.080
87560SOL    HW264578   9.538  13.343  12.955
87561SOL     OW64579   0.493   7.130   3.229
87561SOL    HW164580   0.494   7.038   3.255
87561SOL    HW264581   0.431   7.171   3.289
87562SOL     OW64582  12.046  12.670   2.621
87562SOL    HW164583  12.083  12.715   2.697
87562SOL    HW264584  12.076  12.579   2.631
87563SOL     OW64585   2.607  12.885   2.133
87563SOL    HW164586   2.616  12.797   2.170
87563SOL    HW264587   2.697  12.912   2.114
87564SOL     OW64588   9.284   3.474  10.952
87564SOL    HW164589   9.300   3.388  10.914
87564SOL    HW264590   9.298   3.535  10.879
87565SOL     OW64591  13.573  14.360   5.367
87565SOL    HW164592  13.609  14.339   5.453
87565SOL    HW264593  13.497  14.414   5.386
87566SOL     OW64594   9.032  11.567   3.385
87566SOL    HW164595   8.958  11.599   3.334
87566SOL    HW264596   9.057  11.641   3.441
87567SOL     OW64597   9.322   4.347   7.850
87567SOL    HW164598   9.249   4.348   7.788
87567SOL    HW264599   9.310   4.425   7.904
87568SOL     OW64600  11.466   4.175   2.574
87568SOL    HW164601  11.555   4.147   2.550
87568SOL    HW264602  11.416   4.171   2.493
87569SOL     OW64603  13.214   6.851   4.753
87569SOL    HW164604  13.230   6.920   4.689
87569SOL    HW264605  13.119   6.848   4.761
87570SOL     OW64606   9.910   6.146   3.401
87570SOL    HW164607   9.924   6.052   3.391
87570SOL    HW264608   9.816   6.155   3.410
87571SOL     OW64609  11.254   0.757  14.845
87571SOL    HW164610  11.237   0.782  14.755
87571SOL    HW264611  11.255   0.839   0.012
87572SOL     OW64612   5.332   8.007  14.180
87572SOL    HW164613   5.360   8.098  14.184
87572SOL    HW264614   5.329   7.986  14.087
87573SOL     OW64615   8.925  12.167   4.808
87573SOL    HW164616   8.882  12.173   4.723
87573SOL    HW264617   8.910  12.077   4.837
87574SOL     OW64618  14.055  11.467  10.849
87574SOL    HW164619  14.000  11.506  10.780
87574SOL    HW264620  14.129  11.527  10.856
87575SOL     OW64621   6.960   0.734   8.274
87575SOL    HW164622   6.994   0.686   8.198
87575SOL    HW264623   7.010   0.815   8.276
87576SOL     OW64624   6.574  11.793   6.555
87576SOL    HW164625   6.549  11.704   6.531
87576SOL    HW264626   6.585  11.838   6.471
87577SOL     OW64627   6.420   9.920   4.422
87577SOL    HW164628   6.438   9.932   4.515
87577SOL    HW264629   6.470   9.843   4.396
87578SOL     OW64630  11.936   1.565   6.763
87578SOL    HW164631  12.003   1.618   6.807
87578SOL    HW264632  11.956   1.475   6.789
87579SOL     OW64633   5.071   7.941   4.586
87579SOL    HW164634   5.139   7.964   4.523
87579SOL    HW264635   5.119   7.927   4.668
87580SOL     OW64636   6.428   7.106   3.720
87580SOL    HW164637   6.494   7.075   3.783
87580SOL    HW264638   6.420   7.199   3.738
87581SOL     OW64639  10.192   4.222   2.858
87581SOL    HW164640  10.135   4.213   2.934
87581SOL    HW264641  10.170   4.148   2.802
87582SOL     OW64642  11.817   6.731   6.439
87582SOL    HW164643  11.898   6.781   6.433
87582SOL    HW264644  11.782   6.752   6.526
87583SOL     OW64645   7.528  13.991   9.672
87583SOL    HW164646   7.536  14.071   9.724
87583SOL    HW264647   7.441  13.997   9.632
87584SOL     OW64648   8.522   5.881   5.186
87584SOL    HW164649   8.433   5.906   5.208
87584SOL    HW264650   8.535   5.914   5.097
87585SOL     OW64651   1.721   1.314   2.305
87585SOL    HW164652   1.812   1.340   2.321
87585SOL    HW264653   1.728   1.227   2.266
87586SOL     OW64654   3.114  12.673   3.935
87586SOL    HW164655   3.154  12.621   3.866
87586SOL    HW264656   3.158  12.645   4.016
87587SOL     OW64657   7.794  12.817   2.591
87587SOL    HW164658   7.869  12.877   2.591
87587SOL    HW264659   7.729  12.861   2.536
87588SOL     OW64660  10.219   0.200  14.246
87588SOL    HW164661  10.200   0.158  14.163
87588SOL    HW264662  10.136   0.200  14.293
87589SOL     OW64663   3.205   8.337  14.217
87589SOL    HW164664   3.291   8.330  14.176
87589SOL    HW264665   3.208   8.273  14.288
87590SOL     OW64666  10.494  10.223   1.750
87590SOL    HW164667  10.574  10.176   1.772
87590SOL    HW264668  10.488  10.214   1.654
87591SOL     OW64669   7.927   4.194  10.571
87591SOL    HW164670   7.961   4.177  10.483
87591SOL    HW264671   7.961   4.280  10.594
87592SOL     OW64672   3.442  11.622   9.711
87592SOL    HW164673   3.519  11.626   9.655
87592SOL    HW264674   3.475  11.595   9.796
87593SOL     OW64675   1.759   4.550   3.507
87593SOL    HW164676   1.681   4.560   3.562
87593SOL    HW264677   1.824   4.609   3.546
87594SOL     OW64678   5.369   6.402   1.638
87594SOL    HW164679   5.410   6.316   1.627
87594SOL    HW264680   5.440   6.459   1.667
87595SOL     OW64681   2.733   8.525   0.781
87595SOL    HW164682   2.799   8.505   0.848
87595SOL    HW264683   2.657   8.556   0.830
87596SOL     OW64684   5.282   8.017   4.389
87596SOL    HW164685   5.355   7.966   4.353
87596SOL    HW264686   5.298   8.107   4.360
87597SOL     OW64687   3.587  10.808  11.386
87597SOL    HW164688   3.499  10.846  11.390
87597SOL    HW264689   3.607  10.804  11.292
87598SOL     OW64690  12.231   3.942   8.005
87598SOL    HW164691  12.280   3.869   8.042
87598SOL    HW264692  12.140   3.913   8.006
87599SOL     OW64693  11.292   4.136   5.931
87599SOL    HW164694  11.296   4.102   5.842
87599SOL    HW264695  11.379   4.120   5.967
87600SOL     OW64696   3.641   5.282  13.984
87600SOL    HW164697   3.675   5.366  13.954
87600SOL    HW264698   3.564   5.267  13.929
87601SOL     OW64699  12.438   5.099   3.972
87601SOL    HW164700  12.497   5.175   3.976
87601SOL    HW264701  12.368   5.127   3.914
87602SOL     OW64702   9.792  12.691   7.953
87602SOL    HW164703   9.865  12.688   7.891
87602SOL    HW264704   9.740  12.613   7.932
87603SOL     OW64705  11.971   1.824   1.022
87603SOL    HW164706  11.962   1.916   0.995
87603SOL    HW264707  11.899   1.810   1.083
87604SOL     OW64708   0.262   2.066  13.204
87604SOL    HW164709   0.269   2.077  13.109
87604SOL    HW264710   0.190   2.004  13.216
87605SOL     OW64711   9.695   9.699   9.426
87605SOL    HW164712   9.746   9.619   9.432
87605SOL    HW264713   9.733   9.757   9.492
87606SOL     OW64714   9.462  12.634   9.452
87606SOL    HW164715   9.539  12.581   9.434
87606SOL    HW264716   9.417  12.640   9.367
87607SOL     OW64717   5.129   7.552   2.959
87607SOL    HW164718   5.203   7.584   2.909
87607SOL    HW264719   5.117   7.617   3.028
87608SOL     OW64720   1.699  13.000   8.917
87608SOL    HW164721   1.666  13.090   8.917
87608SOL    HW264722   1.630  12.949   8.876
87609SOL     OW64723   1.145  12.916   4.889
87609SOL    HW164724   1.182  12.909   4.801
87609SOL    HW264725   1.071  12.856   4.889
87610SOL     OW64726   2.531   3.474   3.776
87610SOL    HW164727   2.605   3.432   3.822
87610SOL    HW264728   2.571   3.516   3.700
87611SOL     OW64729   4.953   5.218   3.836
87611SOL    HW164730   5.043   5.192   3.821
87611SOL    HW264731   4.950   5.244   3.928
87612SOL     OW64732   4.282  13.689   1.689
87612SOL    HW164733   4.197  13.690   1.644
87612SOL    HW264734   4.346  13.673   1.619
87613SOL     OW64735  14.462   0.299  14.444
87613SOL    HW164736  14.378   0.345  14.443
87613SOL    HW264737  14.527   0.369  14.439
87614SOL     OW64738   7.807   9.571   3.354
87614SOL    HW164739   7.785   9.622   3.432
87614SOL    HW264740   7.901   9.587   3.340
87615SOL     OW64741   3.462   2.692   1.629
87615SOL    HW164742   3.466   2.728   1.718
87615SOL    HW264743   3.418   2.608   1.639
87616SOL     OW64744  12.003   5.583   4.641
87616SOL    HW164745  11.936   5.551   4.580
87616SOL    HW264746  11.956   5.597   4.723
87617SOL     OW64747   4.819   1.177  11.801
87617SOL    HW164748   4.907   1.150  11.825
87617SOL    HW264749   4.797   1.246  11.864
87618SOL     OW64750   9.204   6.228  14.641
87618SOL    HW164751   9.251   6.197  14.719
87618SOL    HW264752   9.112   6.224  14.666
87619SOL     OW64753   6.072   7.539  10.240
87619SOL    HW164754   6.097   7.618  10.287
87619SOL    HW264755   6.017   7.491  10.301
87620SOL     OW64756   8.714   9.450  13.855
87620SOL    HW164757   8.692   9.541  13.874
87620SOL    HW264758   8.649   9.399  13.904
87621SOL     OW64759   1.330   6.449  14.034
87621SOL    HW164760   1.373   6.526  13.995
87621SOL    HW264761   1.265   6.423  13.969
87622SOL     OW64762   0.791   6.858   7.264
87622SOL    HW164763   0.868   6.836   7.316
87622SOL    HW264764   0.717   6.820   7.311
87623SOL     OW64765  10.167  13.154   2.247
87623SOL    HW164766  10.170  13.063   2.278
87623SOL    HW264767  10.194  13.206   2.323
87624SOL     OW64768   2.823   2.205   1.029
87624SOL    HW164769   2.910   2.206   1.070
87624SOL    HW264770   2.763   2.192   1.103
87625SOL     OW64771   6.721  14.023   9.629
87625SOL    HW164772   6.736  14.001   9.721
87625SOL    HW264773   6.728  14.118   9.626
87626SOL     OW64774  14.774   4.771   4.977
87626SOL    HW164775  14.693   4.794   4.930
87626SOL    HW264776  14.765   4.678   4.997
87627SOL     OW64777   3.569   3.823  10.581
87627SOL    HW164778   3.631   3.765  10.626
87627SOL    HW264779   3.586   3.909  10.620
87628SOL     OW64780  12.547   3.574   1.414
87628SOL    HW164781  12.557   3.597   1.507
87628SOL    HW264782  12.550   3.478   1.413
87629SOL     OW64783   0.059   8.450   2.479
87629SOL    HW164784   0.045   8.535   2.521
87629SOL    HW264785  14.868   8.441   2.418
87630SOL     OW64786   6.073  12.250   3.002
87630SOL    HW164787   6.128  12.301   2.942
87630SOL    HW264788   6.046  12.174   2.950
87631SOL     OW64789   5.475   9.821   6.840
87631SOL    HW164790   5.395   9.793   6.885
87631SOL    HW264791   5.544   9.814   6.906
87632SOL     OW64792  10.435   6.293   2.995
87632SOL    HW164793  10.369   6.285   2.925
87632SOL    HW264794  10.489   6.367   2.968
87633SOL     OW64795   9.322   9.655  13.072
87633SOL    HW164796   9.328   9.748  13.054
87633SOL    HW264797   9.251   9.623  13.017
87634SOL     OW64798  11.250   8.882   3.498
87634SOL    HW164799  11.272   8.845   3.413
87634SOL    HW264800  11.154   8.883   3.499
87635SOL     OW64801   1.902  14.679  13.510
87635SOL    HW164802   1.874  14.719  13.593
87635SOL    HW264803   1.982  14.727  13.486
87636SOL     OW64804  11.081   2.025   7.820
87636SOL    HW164805  11.172   2.002   7.805
87636SOL    HW264806  11.058   1.980   7.901
87637SOL     OW64807   6.060  12.104   3.842
87637SOL    HW164808   6.110  12.123   3.921
87637SOL    HW264809   5.968  12.117   3.867
87638SOL     OW64810   1.624   9.794  13.955
87638SOL    HW164811   1.664   9.863  13.901
87638SOL    HW264812   1.597   9.839  14.035
87639SOL     OW64813   2.651  10.698   3.559
87639SOL    HW164814   2.579  10.658   3.511
87639SOL    HW264815   2.724  10.636   3.549
87640SOL     OW64816   3.687   1.973   8.727
87640SOL    HW164817   3.707   1.972   8.821
87640SOL    HW264818   3.606   2.024   8.722
87641SOL     OW64819  13.889   5.736   8.799
87641SOL    HW164820  13.933   5.743   8.884
87641SOL    HW264821  13.817   5.799   8.805
87642SOL     OW64822  13.810   8.994   9.257
87642SOL    HW164823  13.716   9.010   9.269
87642SOL    HW264824  13.838   9.063   9.197
87643SOL     OW64825   2.094   2.103   0.097
87643SOL    HW164826   2.008   2.133   0.069
87643SOL    HW264827   2.139   2.079   0.016
87644SOL     OW64828   0.911   8.920  10.051
87644SOL    HW164829   0.838   8.912  10.112
87644SOL    HW264830   0.875   8.895   9.967
87645SOL     OW64831   0.411  12.886  10.246
87645SOL    HW164832   0.492  12.936  10.259
87645SOL    HW264833   0.342  12.951  10.257
87646SOL     OW64834   8.994   6.721   5.780
87646SOL    HW164835   8.989   6.658   5.852
87646SOL    HW264836   8.911   6.769   5.785
87647SOL     OW64837   0.366   9.487   2.496
87647SOL    HW164838   0.285   9.469   2.449
87647SOL    HW264839   0.345   9.466   2.587
87648SOL     OW64840   3.580  14.400   0.510
87648SOL    HW164841   3.595  14.352   0.592
87648SOL    HW264842   3.666  14.402   0.468
87649SOL     OW64843   6.913   8.597   4.835
87649SOL    HW164844   6.977   8.665   4.810
87649SOL    HW264845   6.901   8.610   4.929
87650SOL     OW64846   7.770   8.685   4.388
87650SOL    HW164847   7.814   8.729   4.461
87650SOL    HW264848   7.754   8.596   4.420
87651SOL     OW64849  11.365   1.222  10.841
87651SOL    HW164850  11.348   1.304  10.796
87651SOL    HW264851  11.291   1.213  10.902
87652SOL     OW64852  13.291   3.050   7.957
87652SOL    HW164853  13.235   2.987   8.003
87652SOL    HW264854  13.236   3.128   7.947
87653SOL     OW64855   7.993   1.156  10.796
87653SOL    HW164856   7.935   1.127  10.866
87653SOL    HW264857   8.073   1.183  10.840
87654SOL     OW64858  14.141  11.262   0.221
87654SOL    HW164859  14.160  11.190   0.161
87654SOL    HW264860  14.224  11.281   0.264
87655SOL     OW64861   3.878   2.554  13.352
87655SOL    HW164862   3.875   2.526  13.444
87655SOL    HW264863   3.803   2.511  13.311
87656SOL     OW64864   5.739   1.706   7.416
87656SOL    HW164865   5.746   1.646   7.342
87656SOL    HW264866   5.829   1.718   7.445
87657SOL     OW64867  14.557   0.128   2.080
87657SOL    HW164868  14.517   0.060   2.025
87657SOL    HW264869  14.495   0.139   2.152
87658SOL     OW64870   1.621   6.083   0.501
87658SOL    HW164871   1.638   6.166   0.545
87658SOL    HW264872   1.559   6.037   0.557
87659SOL     OW64873  10.106   1.684   4.293
87659SOL    HW164874  10.011   1.679   4.300
87659SOL    HW264875  10.138   1.614   4.350
87660SOL     OW64876   3.702   6.554   3.718
87660SOL    HW164877   3.703   6.524   3.809
87660SOL    HW264878   3.660   6.640   3.722
87661SOL     OW64879   2.376   8.750   4.090
87661SOL    HW164880   2.356   8.664   4.053
87661SOL    HW264881   2.466   8.742   4.121
87662SOL     OW64882   8.148   7.573   1.021
87662SOL    HW164883   8.075   7.623   0.984
87662SOL    HW264884   8.156   7.606   1.111
87663SOL     OW64885   3.594   8.973   0.733
87663SOL    HW164886   3.549   8.953   0.815
87663SOL    HW264887   3.681   9.003   0.760
87664SOL     OW64888   8.206   6.935  14.577
87664SOL    HW164889   8.115   6.960  14.560
87664SOL    HW264890   8.214   6.937  14.673
87665SOL     OW64891   1.637   6.801   8.982
87665SOL    HW164892   1.690   6.816   9.060
87665SOL    HW264893   1.636   6.886   8.937
87666SOL     OW64894   3.988   8.236  11.776
87666SOL    HW164895   3.941   8.305  11.729
87666SOL    HW264896   3.943   8.229  11.860
87667SOL     OW64897   2.628   4.481  10.359
87667SOL    HW164898   2.696   4.546  10.374
87667SOL    HW264899   2.674   4.409  10.314
87668SOL     OW64900   3.425  12.778   5.585
87668SOL    HW164901   3.487  12.706   5.573
87668SOL    HW264902   3.462  12.850   5.534
87669SOL     OW64903  10.723   6.951   7.858
87669SOL    HW164904  10.635   6.958   7.895
87669SOL    HW264905  10.772   7.021   7.902
87670SOL     OW64906  13.184   2.271   4.045
87670SOL    HW164907  13.154   2.285   4.135
87670SOL    HW264908  13.148   2.345   3.996
87671SOL     OW64909  14.423  10.751   3.459
87671SOL    HW164910  14.505  10.756   3.509
87671SOL    HW264911  14.364  10.810   3.505
87672SOL     OW64912  10.006   6.356   8.267
87672SOL    HW164913   9.969   6.441   8.243
87672SOL    HW264914  10.067   6.336   8.196
87673SOL     OW64915   1.450   5.782   7.067
87673SOL    HW164916   1.515   5.720   7.034
87673SOL    HW264917   1.501   5.850   7.110
87674SOL     OW64918  10.687  12.761  14.725
87674SOL    HW164919  10.729  12.771  14.811
87674SOL    HW264920  10.594  12.752  14.745
87675SOL     OW64921   9.574  11.048  13.404
87675SOL    HW164922   9.592  10.994  13.326
87675SOL    HW264923   9.580  11.138  13.372
87676SOL     OW64924   5.885   5.485   8.458
87676SOL    HW164925   5.978   5.508   8.452
87676SOL    HW264926   5.882   5.417   8.526
87677SOL     OW64927   3.713   9.710   9.120
87677SOL    HW164928   3.657   9.689   9.194
87677SOL    HW264929   3.665   9.680   9.043
87678SOL     OW64930   1.075   4.338   5.610
87678SOL    HW164931   1.136   4.265   5.600
87678SOL    HW264932   1.009   4.306   5.671
87679SOL     OW64933   1.755   5.158  10.002
87679SOL    HW164934   1.727   5.160   9.911
87679SOL    HW264935   1.722   5.240  10.039
87680SOL     OW64936   1.413  14.190   4.623
87680SOL    HW164937   1.495  14.203   4.576
87680SOL    HW264938   1.388  14.100   4.601
87681SOL     OW64939   1.990   5.489   8.736
87681SOL    HW164940   1.973   5.414   8.793
87681SOL    HW264941   2.064   5.462   8.682
87682SOL     OW64942   2.030   1.929  14.536
87682SOL    HW164943   2.027   1.834  14.544
87682SOL    HW264944   1.948   1.959  14.575
87683SOL     OW64945   6.324  14.573   7.699
87683SOL    HW164946   6.336  14.555   7.606
87683SOL    HW264947   6.229  14.573   7.712
87684SOL     OW64948   3.369   3.651   4.595
87684SOL    HW164949   3.361   3.558   4.614
87684SOL    HW264950   3.278   3.680   4.582
87685SOL     OW64951  11.609   4.032  14.528
87685SOL    HW164952  11.547   4.082  14.475
87685SOL    HW264953  11.626   4.088  14.604
87686SOL     OW64954  11.636  10.107   9.530
87686SOL    HW164955  11.626  10.183   9.586
87686SOL    HW264956  11.730  10.095   9.522
87687SOL     OW64957  14.460   8.334   2.445
87687SOL    HW164958  14.515   8.304   2.517
87687SOL    HW264959  14.381   8.281   2.451
87688SOL     OW64960  10.442   9.402   3.121
87688SOL    HW164961  10.403   9.399   3.208
87688SOL    HW264962  10.475   9.491   3.111
87689SOL     OW64963   9.862   4.038   6.402
87689SOL    HW164964   9.825   3.952   6.422
87689SOL    HW264965   9.836   4.094   6.475
87690SOL     OW64966  11.489  11.821   2.581
87690SOL    HW164967  11.472  11.896   2.525
87690SOL    HW264968  11.406  11.805   2.626
87691SOL     OW64969   6.398   7.498  12.530
87691SOL    HW164970   6.342   7.427  12.563
87691SOL    HW264971   6.389   7.493  12.435
87692SOL     OW64972  12.109   7.709   1.309
87692SOL    HW164973  12.200   7.726   1.335
87692SOL    HW264974  12.112   7.628   1.260
87693SOL     OW64975   5.247  13.204   1.486
87693SOL    HW164976   5.191  13.228   1.559
87693SOL    HW264977   5.187  13.194   1.412
87694SOL     OW64978   3.156   5.185  13.000
87694SOL    HW164979   3.149   5.089  12.998
87694SOL    HW264980   3.202   5.207  12.919
87695SOL     OW64981   0.376   3.631  14.532
87695SOL    HW164982   0.401   3.722  14.518
87695SOL    HW264983   0.310   3.633  14.601
87696SOL     OW64984   6.707   0.142  10.947
87696SOL    HW164985   6.622   0.098  10.950
87696SOL    HW264986   6.768   0.074  10.919
87697SOL     OW64987   5.477   8.392  12.747
87697SOL    HW164988   5.456   8.484  12.759
87697SOL    HW264989   5.439   8.348  12.823
87698SOL     OW64990   4.362   6.984  10.991
87698SOL    HW164991   4.298   6.925  11.029
87698SOL    HW264992   4.338   6.988  10.898
87699SOL     OW64993  14.178  13.392  10.463
87699SOL    HW164994  14.149  13.303  10.483
87699SOL    HW264995  14.205  13.388  10.371
87700SOL     OW64996   8.536   1.771   2.981
87700SOL    HW164997   8.460   1.718   2.958
87700SOL    HW264998   8.612   1.721   2.949
87701SOL     OW64999   2.115  11.034   2.303
87701SOL    HW165000   2.158  11.111   2.266
87701SOL    HW265001   2.171  11.008   2.376
87702SOL     OW65002   3.154  12.237  10.172
87702SOL    HW165003   3.213  12.288  10.228
87702SOL    HW265004   3.206  12.215  10.095
87703SOL     OW65005  11.879   2.842   7.896
87703SOL    HW165006  11.834   2.850   7.980
87703SOL    HW265007  11.814   2.802   7.838
87704SOL     OW65008   1.892  12.383   9.466
87704SOL    HW165009   1.920  12.296   9.440
87704SOL    HW265010   1.808  12.368   9.511
87705SOL     OW65011  11.128  11.082   0.848
87705SOL    HW165012  11.047  11.098   0.898
87705SOL    HW265013  11.134  10.987   0.842
87706SOL     OW65014   9.111  13.619   9.728
87706SOL    HW165015   9.053  13.546   9.705
87706SOL    HW265016   9.183  13.613   9.664
87707SOL     OW65017   8.565   9.086   3.504
87707SOL    HW165018   8.563   9.006   3.451
87707SOL    HW265019   8.531   9.154   3.446
87708SOL     OW65020   0.598  13.207  14.457
87708SOL    HW165021   0.694  13.212  14.455
87708SOL    HW265022   0.573  13.206  14.365
87709SOL     OW65023   6.344   7.445  13.878
87709SOL    HW165024   6.367   7.478  13.965
87709SOL    HW265025   6.363   7.351  13.882
87710SOL     OW65026   7.692   3.510   2.126
87710SOL    HW165027   7.696   3.420   2.158
87710SOL    HW265028   7.605   3.517   2.086
87711SOL     OW65029   3.508   2.870   7.476
87711SOL    HW165030   3.458   2.875   7.394
87711SOL    HW265031   3.515   2.961   7.505
87712SOL     OW65032  12.363   6.648   6.439
87712SOL    HW165033  12.449   6.688   6.446
87712SOL    HW265034  12.379   6.564   6.397
87713SOL     OW65035   6.422   4.856  10.194
87713SOL    HW165036   6.344   4.887  10.149
87713SOL    HW265037   6.393   4.835  10.282
87714SOL     OW65038  13.561  11.663  12.775
87714SOL    HW165039  13.492  11.722  12.803
87714SOL    HW265040  13.642  11.711  12.794
87715SOL     OW65041  10.387   4.913   5.711
87715SOL    HW165042  10.396   4.947   5.622
87715SOL    HW265043  10.441   4.834   5.713
87716SOL     OW65044   7.021  11.909  12.891
87716SOL    HW165045   7.079  11.838  12.864
87716SOL    HW265046   6.961  11.868  12.954
87717SOL     OW65047  11.244   6.928   9.162
87717SOL    HW165048  11.225   6.848   9.113
87717SOL    HW265049  11.281   6.988   9.097
87718SOL     OW65050   3.066  13.216   0.135
87718SOL    HW165051   3.056  13.123   0.118
87718SOL    HW265052   3.142  13.223   0.192
87719SOL     OW65053  10.401  11.190   4.794
87719SOL    HW165054  10.341  11.126   4.833
87719SOL    HW265055  10.425  11.151   4.709
87720SOL     OW65056  13.538   1.098   0.979
87720SOL    HW165057  13.511   1.041   1.051
87720SOL    HW265058  13.548   1.184   1.019
87721SOL     OW65059  14.033  12.524   3.513
87721SOL    HW165060  14.028  12.620   3.512
87721SOL    HW265061  14.110  12.504   3.459
87722SOL     OW65062  11.527   3.373   4.057
87722SOL    HW165063  11.545   3.289   4.099
87722SOL    HW265064  11.569   3.437   4.114
87723SOL     OW65065   8.548   6.913   9.887
87723SOL    HW165066   8.504   6.832   9.913
87723SOL    HW265067   8.545   6.969   9.964
87724SOL     OW65068   7.660   9.532  11.585
87724SOL    HW165069   7.682   9.503  11.497
87724SOL    HW265070   7.740   9.517  11.636
87725SOL     OW65071  12.953   3.991   4.265
87725SOL    HW165072  13.034   4.015   4.312
87725SOL    HW265073  12.982   3.929   4.198
87726SOL     OW65074   0.224   3.318  12.438
87726SOL    HW165075   0.272   3.304  12.357
87726SOL    HW265076   0.256   3.250  12.497
87727SOL     OW65077  10.584   9.276   2.647
87727SOL    HW165078  10.558   9.189   2.618
87727SOL    HW265079  10.616   9.264   2.736
87728SOL     OW65080   2.016   7.418   4.167
87728SOL    HW165081   2.023   7.333   4.210
87728SOL    HW265082   2.106   7.444   4.151
87729SOL     OW65083   7.150  14.303   1.137
87729SOL    HW165084   7.229  14.327   1.186
87729SOL    HW265085   7.096  14.382   1.140
87730SOL     OW65086   1.632  13.822   8.449
87730SOL    HW165087   1.710  13.843   8.500
87730SOL    HW265088   1.637  13.727   8.436
87731SOL     OW65089   3.421  12.523   6.801
87731SOL    HW165090   3.500  12.561   6.838
87731SOL    HW265091   3.414  12.561   6.714
87732SOL     OW65092   5.878   7.223   6.160
87732SOL    HW165093   5.810   7.289   6.170
87732SOL    HW265094   5.875   7.173   6.242
87733SOL     OW65095   9.948   7.857   8.330
87733SOL    HW165096   9.932   7.858   8.425
87733SOL    HW265097   9.860   7.849   8.292
87734SOL     OW65098   5.757   0.475   8.731
87734SOL    HW165099   5.754   0.571   8.736
87734SOL    HW265100   5.756   0.455   8.638
87735SOL     OW65101   9.565   6.805   8.480
87735SOL    HW165102   9.585   6.899   8.480
87735SOL    HW265103   9.566   6.780   8.573
87736SOL     OW65104   8.405  12.007   1.420
87736SOL    HW165105   8.417  11.951   1.344
87736SOL    HW265106   8.364  12.086   1.384
87737SOL     OW65107   2.422   3.919   9.546
87737SOL    HW165108   2.331   3.911   9.574
87737SOL    HW265109   2.435   4.013   9.534
87738SOL     OW65110  11.883   6.613   5.562
87738SOL    HW165111  11.950   6.681   5.549
87738SOL    HW265112  11.810   6.659   5.603
87739SOL     OW65113   9.300   0.969  14.154
87739SOL    HW165114   9.269   1.057  14.134
87739SOL    HW265115   9.248   0.942  14.230
87740SOL     OW65116   4.231  12.201  12.388
87740SOL    HW165117   4.179  12.251  12.325
87740SOL    HW265118   4.181  12.120  12.402
87741SOL     OW65119   2.520  10.664  14.662
87741SOL    HW165120   2.494  10.619  14.581
87741SOL    HW265121   2.547  10.751  14.633
87742SOL     OW65122  11.703   8.949   5.067
87742SOL    HW165123  11.777   8.948   5.005
87742SOL    HW265124  11.719   8.876   5.126
87743SOL     OW65125   9.063  12.302   1.545
87743SOL    HW165126   9.031  12.220   1.509
87743SOL    HW265127   8.992  12.334   1.601
87744SOL     OW65128   5.646  11.783  14.033
87744SOL    HW165129   5.687  11.829  14.106
87744SOL    HW265130   5.636  11.850  13.965
87745SOL     OW65131  13.546  13.878  14.355
87745SOL    HW165132  13.504  13.903  14.272
87745SOL    HW265133  13.600  13.953  14.378
87746SOL     OW65134   4.320   7.033   5.580
87746SOL    HW165135   4.280   7.017   5.495
87746SOL    HW265136   4.414   7.038   5.562
87747SOL     OW65137  11.909  12.160   4.786
87747SOL    HW165138  11.963  12.081   4.791
87747SOL    HW265139  11.924  12.203   4.870
87748SOL     OW65140  14.564   2.193  13.898
87748SOL    HW165141  14.653   2.193  13.934
87748SOL    HW265142  14.533   2.103  13.910
87749SOL     OW65143   8.037  10.064   7.215
87749SOL    HW165144   8.110  10.015   7.252
87749SOL    HW265145   8.030  10.033   7.125
87750SOL     OW65146   8.120   7.098   4.616
87750SOL    HW165147   8.036   7.106   4.662
87750SOL    HW265148   8.103   7.034   4.547
87751SOL     OW65149   2.532  11.853   1.118
87751SOL    HW165150   2.447  11.898   1.122
87751SOL    HW265151   2.510  11.761   1.109
87752SOL     OW65152  11.857   3.996   6.694
87752SOL    HW165153  11.873   4.049   6.772
87752SOL    HW265154  11.762   3.994   6.685
87753SOL     OW65155   7.812   3.288   6.678
87753SOL    HW165156   7.747   3.319   6.616
87753SOL    HW265157   7.820   3.360   6.741
87754SOL     OW65158  13.274   1.827   3.736
87754SOL    HW165159  13.253   1.888   3.807
87754SOL    HW265160  13.367   1.809   3.746
87755SOL     OW65161   1.593   5.247   9.745
87755SOL    HW165162   1.544   5.167   9.761
87755SOL    HW265163   1.529   5.308   9.708
87756SOL     OW65164   1.773   1.298   7.041
87756SOL    HW165165   1.736   1.349   6.970
87756SOL    HW265166   1.787   1.361   7.111
87757SOL     OW65167   8.156   7.107   8.688
87757SOL    HW165168   8.074   7.061   8.706
87757SOL    HW265169   8.214   7.040   8.653
87758SOL     OW65170  10.556   6.323   4.779
87758SOL    HW165171  10.552   6.337   4.874
87758SOL    HW265172  10.574   6.410   4.743
87759SOL     OW65173  12.019  10.646  14.810
87759SOL    HW165174  12.063  10.689  14.737
87759SOL    HW265175  11.954  10.709  14.841
87760SOL     OW65176   8.509   1.984   3.177
87760SOL    HW165177   8.529   1.894   3.151
87760SOL    HW265178   8.588   2.033   3.157
87761SOL     OW65179  12.528   9.295   5.849
87761SOL    HW165180  12.608   9.317   5.803
87761SOL    HW265181  12.475   9.374   5.844
87762SOL     OW65182   4.270  14.224  13.061
87762SOL    HW165183   4.176  14.238  13.059
87762SOL    HW265184   4.285  14.169  13.138
87763SOL     OW65185   5.150   5.683   7.391
87763SOL    HW165186   5.210   5.726   7.330
87763SOL    HW265187   5.120   5.754   7.448
87764SOL     OW65188  10.431   5.754  14.783
87764SOL    HW165189  10.407   5.845  14.798
87764SOL    HW265190  10.385   5.705  14.852
87765SOL     OW65191  11.858  10.435   2.985
87765SOL    HW165192  11.835  10.423   3.078
87765SOL    HW265193  11.841  10.527   2.968
87766SOL     OW65194  13.014   4.654  13.240
87766SOL    HW165195  12.986   4.633  13.329
87766SOL    HW265196  12.988   4.578  13.187
87767SOL     OW65197   5.719  10.673  13.255
87767SOL    HW165198   5.776  10.666  13.179
87767SOL    HW265199   5.681  10.585  13.265
87768SOL     OW65200  13.865   2.970   7.993
87768SOL    HW165201  13.885   3.051   7.946
87768SOL    HW265202  13.777   2.946   7.964
87769SOL     OW65203   6.235  11.502  12.178
87769SOL    HW165204   6.162  11.441  12.189
87769SOL    HW265205   6.273  11.511  12.265
87770SOL     OW65206   3.626   7.770  10.691
87770SOL    HW165207   3.710   7.773  10.646
87770SOL    HW265208   3.610   7.860  10.718
87771SOL     OW65209   2.036   4.348   5.343
87771SOL    HW165210   2.126   4.376   5.323
87771SOL    HW265211   1.987   4.364   5.263
87772SOL     OW65212  10.933   3.026   2.084
87772SOL    HW165213  10.869   2.966   2.045
87772SOL    HW265214  10.963   2.981   2.163
87773SOL     OW65215   9.817   8.236  12.069
87773SOL    HW165216   9.818   8.329  12.047
87773SOL    HW265217   9.727   8.219  12.097
87774SOL     OW65218   7.479  12.033   8.030
87774SOL    HW165219   7.409  12.000   7.973
87774SOL    HW265220   7.487  11.966   8.099
87775SOL     OW65221  11.549   8.292   7.282
87775SOL    HW165222  11.531   8.289   7.376
87775SOL    HW265223  11.555   8.200   7.256
87776SOL     OW65224   5.414   7.675   9.434
87776SOL    HW165225   5.375   7.721   9.509
87776SOL    HW265226   5.497   7.642   9.468
87777SOL     OW65227   0.022  13.634   2.299
87777SOL    HW165228  14.828  13.578   2.312
87777SOL    HW265229   0.006  13.677   2.214
87778SOL     OW65230  11.233   7.097   5.706
87778SOL    HW165231  11.209   7.037   5.636
87778SOL    HW265232  11.248   7.040   5.782
87779SOL     OW65233   8.735   8.537   7.335
87779SOL    HW165234   8.794   8.518   7.408
87779SOL    HW265235   8.649   8.547   7.376
87780SOL     OW65236   5.586   1.552  14.847
87780SOL    HW165237   5.515   1.522  14.791
87780SOL    HW265238   5.592   1.485   0.033
87781SOL     OW65239   2.078   7.042   2.722
87781SOL    HW165240   2.077   7.124   2.772
87781SOL    HW265241   2.030   7.062   2.642
87782SOL     OW65242  13.591  12.616  14.847
87782SOL    HW165243  13.661  12.655  14.794
87782SOL    HW265244  13.529  12.688  14.862
87783SOL     OW65245  11.545   2.995   1.098
87783SOL    HW165246  11.493   2.950   1.165
87783SOL    HW265247  11.500   3.078   1.084
87784SOL     OW65248   4.042   1.690  13.624
87784SOL    HW165249   3.981   1.761  13.603
87784SOL    HW265250   4.049   1.691  13.719
87785SOL     OW65251   4.043   3.320  12.390
87785SOL    HW165252   4.077   3.231  12.400
87785SOL    HW265253   4.098   3.359  12.322
87786SOL     OW65254   1.079   4.175   2.229
87786SOL    HW165255   1.128   4.097   2.253
87786SOL    HW265256   1.111   4.243   2.289
87787SOL     OW65257   5.859   5.603  11.521
87787SOL    HW165258   5.777   5.639  11.556
87787SOL    HW265259   5.834   5.561  11.439
87788SOL     OW65260   8.073   0.779   5.808
87788SOL    HW165261   8.062   0.800   5.716
87788SOL    HW265262   7.986   0.793   5.846
87789SOL     OW65263   7.933  11.975   0.958
87789SOL    HW165264   7.939  12.070   0.970
87789SOL    HW265265   7.876  11.965   0.882
87790SOL     OW65266   4.384  12.922   5.114
87790SOL    HW165267   4.376  12.981   5.189
87790SOL    HW265268   4.478  12.909   5.104
87791SOL     OW65269   5.498   1.791   1.251
87791SOL    HW165270   5.554   1.861   1.286
87791SOL    HW265271   5.443   1.765   1.325
87792SOL     OW65272   5.271   9.469   2.063
87792SOL    HW165273   5.276   9.445   1.970
87792SOL    HW265274   5.248   9.387   2.107
87793SOL     OW65275   2.811   2.350  14.680
87793SOL    HW165276   2.742   2.319  14.622
87793SOL    HW265277   2.830   2.439  14.651
87794SOL     OW65278   0.041  12.869   3.904
87794SOL    HW165279   0.136  12.855   3.898
87794SOL    HW265280   0.009  12.793   3.953
87795SOL     OW65281   8.680   2.476   1.895
87795SOL    HW165282   8.722   2.392   1.914
87795SOL    HW265283   8.751   2.533   1.866
87796SOL     OW65284   2.861  10.379  12.257
87796SOL    HW165285   2.901  10.431  12.326
87796SOL    HW265286   2.861  10.436  12.181
87797SOL     OW65287   7.050   6.617   6.375
87797SOL    HW165288   6.974   6.676   6.371
87797SOL    HW265289   7.078   6.609   6.284
87798SOL     OW65290  11.442   4.001   4.483
87798SOL    HW165291  11.532   4.004   4.451
87798SOL    HW265292  11.424   3.908   4.497
87799SOL     OW65293  11.337   9.741   8.007
87799SOL    HW165294  11.322   9.714   8.098
87799SOL    HW265295  11.389   9.670   7.969
87800SOL     OW65296   8.432   9.798   3.013
87800SOL    HW165297   8.469   9.884   3.030
87800SOL    HW265298   8.348   9.798   3.058
87801SOL     OW65299   4.237  10.488  14.727
87801SOL    HW165300   4.253  10.457  14.638
87801SOL    HW265301   4.150  10.529  14.722
87802SOL     OW65302   7.384   4.235   8.372
87802SOL    HW165303   7.383   4.191   8.457
87802SOL    HW265304   7.300   4.214   8.333
87803SOL     OW65305  14.626   1.504   8.407
87803SOL    HW165306  14.581   1.420   8.413
87803SOL    HW265307  14.646   1.528   8.498
87804SOL     OW65308  10.777   2.793   5.541
87804SOL    HW165309  10.855   2.801   5.596
87804SOL    HW265310  10.806   2.741   5.466
87805SOL     OW65311  13.139   2.433  11.351
87805SOL    HW165312  13.047   2.406  11.360
87805SOL    HW265313  13.162   2.409  11.261
87806SOL     OW65314   2.642  10.707   1.563
87806SOL    HW165315   2.709  10.640   1.565
87806SOL    HW265316   2.592  10.693   1.644
87807SOL     OW65317  10.230  10.892   7.606
87807SOL    HW165318  10.265  10.857   7.688
87807SOL    HW265319  10.293  10.866   7.540
87808SOL     OW65320   7.136   4.893   6.914
87808SOL    HW165321   7.089   4.953   6.972
87808SOL    HW265322   7.096   4.808   6.930
87809SOL     OW65323   4.642  11.650  10.263
87809SOL    HW165324   4.644  11.653  10.359
87809SOL    HW265325   4.571  11.589  10.243
87810SOL     OW65326   3.470   8.969   1.015
87810SOL    HW165327   3.479   8.999   1.105
87810SOL    HW265328   3.428   9.041   0.969
87811SOL     OW65329  14.036   7.458  14.445
87811SOL    HW165330  13.978   7.522  14.406
87811SOL    HW265331  14.064   7.498  14.528
87812SOL     OW65332   9.815  12.084   8.238
87812SOL    HW165333   9.876  12.012   8.224
87812SOL    HW265334   9.729  12.047   8.218
87813SOL     OW65335  12.498   1.302   3.455
87813SOL    HW165336  12.574   1.269   3.503
87813SOL    HW265337  12.450   1.223   3.429
87814SOL     OW65338  10.456  12.826   8.246
87814SOL    HW165339  10.476  12.857   8.334
87814SOL    HW265340  10.537  12.842   8.196
87815SOL     OW65341   6.906   5.975   5.082
87815SOL    HW165342   6.976   6.000   5.142
87815SOL    HW265343   6.844   5.926   5.136
87816SOL     OW65344   7.526   7.863   2.813
87816SOL    HW165345   7.558   7.850   2.724
87816SOL    HW265346   7.604   7.885   2.864
87817SOL     OW65347   5.875  14.232   8.249
87817SOL    HW165348   5.785  14.262   8.264
87817SOL    HW265349   5.915  14.303   8.199
87818SOL     OW65350   3.475  14.709   9.972
87818SOL    HW165351   3.473  14.654   9.894
87818SOL    HW265352   3.384  14.731   9.988
87819SOL     OW65353   2.122   9.001   8.448
87819SOL    HW165354   2.045   9.020   8.501
87819SOL    HW265355   2.195   9.006   8.510
87820SOL     OW65356  14.746   4.250   4.668
87820SOL    HW165357  14.652   4.263   4.651
87820SOL    HW265358  14.754   4.255   4.763
87821SOL     OW65359   2.187   7.124   1.723
87821SOL    HW165360   2.154   7.143   1.810
87821SOL    HW265361   2.259   7.063   1.737
87822SOL     OW65362   2.982  10.940  12.998
87822SOL    HW165363   2.980  11.002  13.072
87822SOL    HW265364   3.021  10.990  12.926
87823SOL     OW65365   4.466  12.561   9.248
87823SOL    HW165366   4.408  12.566   9.324
87823SOL    HW265367   4.507  12.475   9.256
87824SOL     OW65368   0.089   8.690   0.474
87824SOL    HW165369   0.005   8.645   0.470
87824SOL    HW265370   0.090   8.733   0.559
87825SOL     OW65371   3.118   0.762   9.928
87825SOL    HW165372   3.138   0.786  10.018
87825SOL    HW265373   3.081   0.842   9.890
87826SOL     OW65374   8.919  11.911   3.993
87826SOL    HW165375   8.912  11.929   3.899
87826SOL    HW265376   8.927  11.816   3.999
87827SOL     OW65377   4.809   6.591  12.448
87827SOL    HW165378   4.752   6.524  12.410
87827SOL    HW265379   4.897   6.553  12.444
87828SOL     OW65380  12.067   4.248   4.513
87828SOL    HW165381  12.027   4.302   4.445
87828SOL    HW265382  12.133   4.195   4.468
87829SOL     OW65383  10.825  13.444   3.402
87829SOL    HW165384  10.864  13.359   3.423
87829SOL    HW265385  10.764  13.425   3.330
87830SOL     OW65386  12.694   1.978  11.126
87830SOL    HW165387  12.761   1.932  11.077
87830SOL    HW265388  12.713   1.959  11.218
87831SOL     OW65389   6.932   5.539   4.577
87831SOL    HW165390   6.866   5.501   4.635
87831SOL    HW265391   6.944   5.628   4.611
87832SOL     OW65392  14.871  14.029   2.209
87832SOL    HW165393  14.839  14.024   2.119
87832SOL    HW265394   0.062  14.092   2.205
87833SOL     OW65395   6.233   1.260  13.398
87833SOL    HW165396   6.147   1.234  13.430
87833SOL    HW265397   6.220   1.350  13.367
87834SOL     OW65398  10.130  14.611  13.413
87834SOL    HW165399  10.193  14.668  13.369
87834SOL    HW265400  10.118  14.537  13.353
87835SOL     OW65401   4.629  13.273   9.645
87835SOL    HW165402   4.679  13.196   9.617
87835SOL    HW265403   4.686  13.347   9.625
87836SOL     OW65404   1.807   2.056   4.246
87836SOL    HW165405   1.890   2.067   4.291
87836SOL    HW265406   1.756   1.998   4.304
87837SOL     OW65407   2.332  14.175   7.071
87837SOL    HW165408   2.292  14.089   7.080
87837SOL    HW265409   2.287  14.214   6.995
87838SOL     OW65410  12.671   9.708  13.498
87838SOL    HW165411  12.649   9.617  13.519
87838SOL    HW265412  12.592   9.744  13.459
87839SOL     OW65413   2.129   0.179   2.256
87839SOL    HW165414   2.222   0.174   2.279
87839SOL    HW265415   2.118   0.265   2.215
87840SOL     OW65416   6.400   6.886   8.489
87840SOL    HW165417   6.407   6.923   8.577
87840SOL    HW265418   6.400   6.963   8.431
87841SOL     OW65419   3.881   8.703  13.965
87841SOL    HW165420   3.799   8.655  13.975
87841SOL    HW265421   3.895   8.744  14.051
87842SOL     OW65422   1.660  11.866  12.571
87842SOL    HW165423   1.617  11.947  12.595
87842SOL    HW265424   1.753  11.890  12.563
87843SOL     OW65425   7.372   9.740  11.608
87843SOL    HW165426   7.444   9.730  11.545
87843SOL    HW265427   7.347   9.832  11.602
87844SOL     OW65428   8.253  11.484   1.423
87844SOL    HW165429   8.194  11.524   1.487
87844SOL    HW265430   8.233  11.529   1.341
87845SOL     OW65431   4.224   1.927   4.133
87845SOL    HW165432   4.160   1.856   4.142
87845SOL    HW265433   4.235   1.937   4.038
87846SOL     OW65434   8.779  11.130   7.650
87846SOL    HW165435   8.862  11.134   7.604
87846SOL    HW265436   8.729  11.204   7.616
87847SOL     OW65437   9.516   8.987  12.926
87847SOL    HW165438   9.604   8.951  12.919
87847SOL    HW265439   9.509   9.015  13.018
87848SOL     OW65440   4.053  14.174  12.081
87848SOL    HW165441   4.113  14.211  12.016
87848SOL    HW265442   3.973  14.226  12.071
87849SOL     OW65443   8.156  14.357  14.517
87849SOL    HW165444   8.172  14.263  14.505
87849SOL    HW265445   8.243  14.395  14.527
87850SOL     OW65446  11.056   9.609   7.904
87850SOL    HW165447  11.049   9.666   7.827
87850SOL    HW265448  11.134   9.556   7.888
87851SOL     OW65449   3.652   1.531   9.978
87851SOL    HW165450   3.734   1.541  10.026
87851SOL    HW265451   3.608   1.457  10.020
87852SOL     OW65452   7.409   6.359   7.514
87852SOL    HW165453   7.348   6.380   7.443
87852SOL    HW265454   7.481   6.313   7.471
87853SOL     OW65455   8.512  11.117  12.876
87853SOL    HW165456   8.465  11.092  12.796
87853SOL    HW265457   8.532  11.210  12.864
87854SOL     OW65458  12.753   2.428   4.894
87854SOL    HW165459  12.767   2.496   4.828
87854SOL    HW265460  12.737   2.476   4.975
87855SOL     OW65461   9.314   6.124   2.150
87855SOL    HW165462   9.297   6.030   2.138
87855SOL    HW265463   9.397   6.139   2.105
87856SOL     OW65464  11.859  12.515   3.437
87856SOL    HW165465  11.801  12.469   3.497
87856SOL    HW265466  11.936  12.459   3.430
87857SOL     OW65467   9.287   6.174   9.836
87857SOL    HW165468   9.321   6.220   9.759
87857SOL    HW265469   9.314   6.229   9.910
87858SOL     OW65470  11.033   8.320   3.848
87858SOL    HW165471  11.120   8.302   3.813
87858SOL    HW265472  11.025   8.262   3.923
87859SOL     OW65473   3.810   0.479  12.579
87859SOL    HW165474   3.881   0.456  12.639
87859SOL    HW265475   3.829   0.570  12.554
87860SOL     OW65476  11.455   1.926  11.206
87860SOL    HW165477  11.399   1.924  11.283
87860SOL    HW265478  11.484   1.836  11.195
87861SOL     OW65479  12.562   4.972   0.899
87861SOL    HW165480  12.582   4.988   0.807
87861SOL    HW265481  12.598   5.048   0.945
87862SOL     OW65482  12.547   6.967   8.388
87862SOL    HW165483  12.593   7.050   8.399
87862SOL    HW265484  12.502   6.976   8.304
87863SOL     OW65485   9.310  13.400  10.248
87863SOL    HW165486   9.258  13.452  10.186
87863SOL    HW265487   9.252  13.387  10.323
87864SOL     OW65488   5.841   3.814  13.592
87864SOL    HW165489   5.816   3.796  13.683
87864SOL    HW265490   5.919   3.761  13.578
87865SOL     OW65491   4.121   7.850  14.190
87865SOL    HW165492   4.053   7.797  14.148
87865SOL    HW265493   4.200   7.830  14.140
87866SOL     OW65494   2.396   3.037   1.300
87866SOL    HW165495   2.489   3.014   1.297
87866SOL    HW265496   2.351   2.961   1.262
87867SOL     OW65497   0.531   7.976   1.816
87867SOL    HW165498   0.452   7.921   1.809
87867SOL    HW265499   0.600   7.915   1.840
87868SOL     OW65500   0.517   7.616   0.427
87868SOL    HW165501   0.471   7.559   0.366
87868SOL    HW265502   0.448   7.657   0.479
87869SOL     OW65503   0.066   7.773   4.647
87869SOL    HW165504   0.050   7.686   4.684
87869SOL    HW265505   0.138   7.808   4.700
87870SOL     OW65506  12.689   8.646   2.562
87870SOL    HW165507  12.599   8.619   2.547
87870SOL    HW265508  12.724   8.663   2.474
87871SOL     OW65509  11.867   2.044   3.676
87871SOL    HW165510  11.845   1.962   3.719
87871SOL    HW265511  11.897   2.102   3.747
87872SOL     OW65512  13.568  11.711  13.615
87872SOL    HW165513  13.518  11.634  13.588
87872SOL    HW265514  13.632  11.678  13.677
87873SOL     OW65515  14.709   1.446   9.730
87873SOL    HW165516  14.681   1.519   9.785
87873SOL    HW265517  14.649   1.447   9.656
87874SOL     OW65518   0.724  14.395  11.539
87874SOL    HW165519   0.813  14.379  11.571
87874SOL    HW265520   0.736  14.425  11.449
87875SOL     OW65521   0.781  10.439  13.406
87875SOL    HW165522   0.825  10.393  13.477
87875SOL    HW265523   0.804  10.390  13.328
87876SOL     OW65524   7.009   3.927   6.339
87876SOL    HW165525   7.012   3.844   6.291
87876SOL    HW265526   7.065   3.986   6.288
87877SOL     OW65527   6.366   2.923   8.684
87877SOL    HW165528   6.306   2.849   8.677
87877SOL    HW265529   6.375   2.955   8.594
87878SOL     OW65530   3.033   6.809   8.254
87878SOL    HW165531   2.944   6.794   8.222
87878SOL    HW265532   3.044   6.745   8.324
87879SOL     OW65533   8.663   4.186   9.906
87879SOL    HW165534   8.601   4.116   9.881
87879SOL    HW265535   8.749   4.147   9.892
87880SOL     OW65536  12.910   1.568  12.706
87880SOL    HW165537  12.952   1.534  12.627
87880SOL    HW265538  12.935   1.507  12.775
87881SOL     OW65539   5.036  12.135   8.738
87881SOL    HW165540   5.070  12.223   8.726
87881SOL    HW265541   5.113  12.078   8.729
87882SOL     OW65542   9.501   3.902   8.951
87882SOL    HW165543   9.480   3.875   9.040
87882SOL    HW265544   9.417   3.928   8.913
87883SOL     OW65545   4.693   6.404   7.404
87883SOL    HW165546   4.672   6.317   7.370
87883SOL    HW265547   4.682   6.463   7.329
87884SOL     OW65548   1.526   6.013   8.236
87884SOL    HW165549   1.587   6.046   8.302
87884SOL    HW265550   1.460   5.965   8.287
87885SOL     OW65551   6.068   0.205  11.833
87885SOL    HW165552   6.106   0.216  11.747
87885SOL    HW265553   6.134   0.158  11.883
87886SOL     OW65554   5.457   3.929   1.725
87886SOL    HW165555   5.491   3.891   1.644
87886SOL    HW265556   5.457   3.856   1.787
87887SOL     OW65557   7.531  14.021   2.741
87887SOL    HW165558   7.595  14.047   2.806
87887SOL    HW265559   7.530  13.925   2.744
87888SOL     OW65560   4.780   1.645   0.422
87888SOL    HW165561   4.762   1.579   0.490
87888SOL    HW265562   4.717   1.625   0.353
87889SOL     OW65563   6.711  12.040   2.605
87889SOL    HW165564   6.744  11.957   2.571
87889SOL    HW265565   6.768  12.060   2.680
87890SOL     OW65566   6.683  10.623   1.679
87890SOL    HW165567   6.641  10.614   1.764
87890SOL    HW265568   6.763  10.571   1.687
87891SOL     OW65569  12.667   9.135   9.947
87891SOL    HW165570  12.603   9.092   9.891
87891SOL    HW265571  12.731   9.067   9.968
87892SOL     OW65572   0.056   5.876   3.882
87892SOL    HW165573   0.022   5.924   3.957
87892SOL    HW265574   0.034   5.784   3.899
87893SOL     OW65575   8.055   3.859   2.981
87893SOL    HW165576   8.091   3.792   2.923
87893SOL    HW265577   8.035   3.933   2.923
87894SOL     OW65578   5.124  10.463   9.260
87894SOL    HW165579   5.038  10.427   9.242
87894SOL    HW265580   5.119  10.554   9.231
87895SOL     OW65581  12.398  11.323   0.218
87895SOL    HW165582  12.410  11.361   0.131
87895SOL    HW265583  12.307  11.293   0.219
87896SOL     OW65584   5.537  10.748   4.619
87896SOL    HW165585   5.505  10.658   4.625
87896SOL    HW265586   5.589  10.750   4.538
87897SOL     OW65587   9.917   5.336   7.729
87897SOL    HW165588   9.862   5.414   7.733
87897SOL    HW265589   9.855   5.263   7.728
87898SOL     OW65590   9.439   6.662   9.489
87898SOL    HW165591   9.371   6.701   9.434
87898SOL    HW265592   9.459   6.579   9.446
87899SOL     OW65593   9.227  11.466   4.444
87899SOL    HW165594   9.287  11.538   4.426
87899SOL    HW265595   9.166  11.503   4.508
87900SOL     OW65596   8.765  11.310   4.379
87900SOL    HW165597   8.762  11.362   4.459
87900SOL    HW265598   8.848  11.264   4.382
87901SOL     OW65599   1.114  12.067   6.600
87901SOL    HW165600   1.018  12.057   6.603
87901SOL    HW265601   1.135  12.065   6.507
87902SOL     OW65602   3.268  14.757  13.344
87902SOL    HW165603   3.307  14.677  13.309
87902SOL    HW265604   3.322  14.780  13.420
87903SOL     OW65605  11.181  13.301   8.262
87903SOL    HW165606  11.173  13.280   8.355
87903SOL    HW265607  11.101  13.349   8.242
87904SOL     OW65608   6.116  10.519   6.287
87904SOL    HW165609   6.180  10.469   6.237
87904SOL    HW265610   6.162  10.599   6.313
87905SOL     OW65611   4.816   0.898   9.226
87905SOL    HW165612   4.901   0.859   9.207
87905SOL    HW265613   4.811   0.973   9.167
87906SOL     OW65614   2.325   1.405   2.923
87906SOL    HW165615   2.299   1.346   2.993
87906SOL    HW265616   2.265   1.479   2.930
87907SOL     OW65617  10.062  14.316   0.553
87907SOL    HW165618  10.074  14.235   0.602
87907SOL    HW265619   9.982  14.355   0.588
87908SOL     OW65620   3.894   5.715   1.069
87908SOL    HW165621   3.869   5.641   1.124
87908SOL    HW265622   3.933   5.675   0.991
87909SOL     OW65623  13.060   8.309   1.351
87909SOL    HW165624  13.128   8.252   1.386
87909SOL    HW265625  13.055   8.381   1.414
87910SOL     OW65626   9.029   6.093   7.852
87910SOL    HW165627   8.966   6.022   7.863
87910SOL    HW265628   9.076   6.097   7.935
87911SOL     OW65629   5.847  14.682   2.162
87911SOL    HW165630   5.820  14.752   2.222
87911SOL    HW265631   5.859  14.606   2.219
87912SOL     OW65632   5.233   7.156   2.114
87912SOL    HW165633   5.273   7.090   2.171
87912SOL    HW265634   5.265   7.134   2.026
87913SOL     OW65635   1.422   3.802  11.377
87913SOL    HW165636   1.424   3.847  11.461
87913SOL    HW265637   1.363   3.728  11.391
87914SOL     OW65638   9.830   7.178   4.738
87914SOL    HW165639   9.883   7.100   4.750
87914SOL    HW265640   9.850   7.208   4.649
87915SOL     OW65641   8.919   5.999  10.467
87915SOL    HW165642   8.982   6.004  10.395
87915SOL    HW265643   8.872   5.917  10.454
87916SOL     OW65644  11.509   5.594  12.875
87916SOL    HW165645  11.463   5.511  12.862
87916SOL    HW265646  11.489   5.645  12.796
87917SOL     OW65647   7.554  10.621   4.411
87917SOL    HW165648   7.503  10.702   4.408
87917SOL    HW265649   7.599  10.618   4.327
87918SOL     OW65650   7.600  14.396   1.602
87918SOL    HW165651   7.509  14.421   1.615
87918SOL    HW265652   7.647  14.479   1.597
87919SOL     OW65653   5.270   3.132   0.375
87919SOL    HW165654   5.235   3.048   0.405
87919SOL    HW265655   5.363   3.130   0.401
87920SOL     OW65656  13.907   4.164  13.374
87920SOL    HW165657  13.946   4.183  13.289
87920SOL    HW265658  13.879   4.073  13.368
87921SOL     OW65659   1.283   8.546   1.682
87921SOL    HW165660   1.322   8.564   1.597
87921SOL    HW265661   1.358   8.529   1.740
87922SOL     OW65662  14.292  13.083   4.270
87922SOL    HW165663  14.376  13.073   4.315
87922SOL    HW265664  14.237  13.013   4.306
87923SOL     OW65665   8.854   6.044   3.001
87923SOL    HW165666   8.910   6.120   3.019
87923SOL    HW265667   8.826   6.057   2.910
87924SOL     OW65668   5.527   3.322   2.028
87924SOL    HW165669   5.492   3.328   1.939
87924SOL    HW265670   5.450   3.333   2.084
87925SOL     OW65671   9.676  10.916   7.798
87925SOL    HW165672   9.703  11.008   7.800
87925SOL    HW265673   9.750  10.868   7.836
87926SOL     OW65674   0.155   5.239   1.852
87926SOL    HW165675   0.142   5.334   1.850
87926SOL    HW265676   0.101   5.206   1.780
87927SOL     OW65677   3.590  14.061   4.638
87927SOL    HW165678   3.584  13.975   4.680
87927SOL    HW265679   3.675  14.060   4.594
87928SOL     OW65680  10.103  10.246  10.328
87928SOL    HW165681  10.179  10.304  10.331
87928SOL    HW265682  10.059  10.259  10.411
87929SOL     OW65683   1.716  13.663   3.781
87929SOL    HW165684   1.624  13.640   3.797
87929SOL    HW265685   1.713  13.756   3.758
87930SOL     OW65686   3.124  11.322  10.744
87930SOL    HW165687   3.168  11.404  10.766
87930SOL    HW265688   3.178  11.254  10.785
87931SOL     OW65689   2.198   2.503  10.937
87931SOL    HW165690   2.109   2.509  10.973
87931SOL    HW265691   2.216   2.590  10.902
87932SOL     OW65692  13.741  10.960   7.526
87932SOL    HW165693  13.819  10.920   7.488
87932SOL    HW265694  13.753  11.054   7.512
87933SOL     OW65695   8.830   1.261   1.914
87933SOL    HW165696   8.798   1.269   2.004
87933SOL    HW265697   8.824   1.168   1.895
87934SOL     OW65698  13.586  11.143  14.527
87934SOL    HW165699  13.565  11.227  14.487
87934SOL    HW265700  13.508  11.120  14.578
87935SOL     OW65701   3.070   0.888  14.244
87935SOL    HW165702   3.119   0.836  14.308
87935SOL    HW265703   3.074   0.836  14.164
87936SOL     OW65704   0.167   2.199   8.201
87936SOL    HW165705   0.258   2.172   8.194
87936SOL    HW265706   0.142   2.226   8.112
87937SOL     OW65707   7.504   2.306   5.579
87937SOL    HW165708   7.440   2.314   5.649
87937SOL    HW265709   7.456   2.266   5.507
87938SOL     OW65710  10.559   1.241   9.349
87938SOL    HW165711  10.558   1.273   9.439
87938SOL    HW265712  10.650   1.212   9.335
87939SOL     OW65713   4.793   8.239   6.716
87939SOL    HW165714   4.817   8.246   6.809
87939SOL    HW265715   4.811   8.326   6.680
87940SOL     OW65716   6.503   2.799   9.782
87940SOL    HW165717   6.537   2.715   9.751
87940SOL    HW265718   6.528   2.802   9.874
87941SOL     OW65719  11.174  13.944   7.331
87941SOL    HW165720  11.269  13.947   7.338
87941SOL    HW265721  11.147  13.877   7.394
87942SOL     OW65722   8.674   1.952   8.555
87942SOL    HW165723   8.593   1.983   8.595
87942SOL    HW265724   8.653   1.944   8.462
87943SOL     OW65725   8.046   2.698  10.796
87943SOL    HW165726   8.033   2.608  10.766
87943SOL    HW265727   8.065   2.747  10.716
87944SOL     OW65728   2.287  11.962   1.204
87944SOL    HW165729   2.337  12.026   1.255
87944SOL    HW265730   2.235  12.015   1.144
87945SOL     OW65731  13.015   5.953   7.095
87945SOL    HW165732  13.067   5.966   7.016
87945SOL    HW265733  12.936   5.907   7.065
87946SOL     OW65734   7.270   7.017  10.000
87946SOL    HW165735   7.188   6.976   9.973
87946SOL    HW265736   7.296   7.070   9.924
87947SOL     OW65737   0.183   9.390   3.548
87947SOL    HW165738   0.219   9.343   3.623
87947SOL    HW265739   0.202   9.334   3.473
87948SOL     OW65740  13.018   7.190  11.715
87948SOL    HW165741  13.041   7.128  11.784
87948SOL    HW265742  12.924   7.204  11.726
87949SOL     OW65743   7.750   9.227  11.729
87949SOL    HW165744   7.677   9.221  11.790
87949SOL    HW265745   7.780   9.317  11.736
87950SOL     OW65746   6.040   8.834   6.141
87950SOL    HW165747   6.068   8.744   6.121
87950SOL    HW265748   6.000   8.865   6.060
87951SOL     OW65749  12.135   6.451   5.571
87951SOL    HW165750  12.114   6.436   5.478
87951SOL    HW265751  12.067   6.511   5.602
87952SOL     OW65752   1.414   9.596  11.415
87952SOL    HW165753   1.411   9.521  11.475
87952SOL    HW265754   1.507   9.605  11.394
87953SOL     OW65755   5.728  13.313   1.351
87953SOL    HW165756   5.673  13.270   1.417
87953SOL    HW265757   5.817  13.307   1.387
87954SOL     OW65758  10.934  13.050   3.409
87954SOL    HW165759  10.853  13.000   3.395
87954SOL    HW265760  10.960  13.078   3.322
87955SOL     OW65761  13.503  14.768  14.867
87955SOL    HW165762  13.503  14.858  14.837
87955SOL    HW265763  13.451  14.720  14.802
87956SOL     OW65764   2.742  11.241   4.089
87956SOL    HW165765   2.774  11.294   4.163
87956SOL    HW265766   2.727  11.154   4.127
87957SOL     OW65767   2.169   3.915  10.589
87957SOL    HW165768   2.195   3.988  10.534
87957SOL    HW265769   2.251   3.883  10.628
87958SOL     OW65770   7.421  11.091  11.081
87958SOL    HW165771   7.480  11.084  11.157
87958SOL    HW265772   7.354  11.153  11.109
87959SOL     OW65773   8.778   8.378  12.796
87959SOL    HW165774   8.820   8.331  12.869
87959SOL    HW265775   8.832   8.455  12.783
87960SOL     OW65776   9.435  14.067   2.793
87960SOL    HW165777   9.446  13.974   2.772
87960SOL    HW265778   9.346  14.073   2.828
87961SOL     OW65779  10.651  13.953   6.337
87961SOL    HW165780  10.651  13.882   6.272
87961SOL    HW265781  10.731  13.937   6.388
87962SOL     OW65782   0.518  12.232   2.195
87962SOL    HW165783   0.572  12.216   2.273
87962SOL    HW265784   0.481  12.147   2.173
87963SOL     OW65785   4.275   4.734   1.888
87963SOL    HW165786   4.211   4.800   1.912
87963SOL    HW265787   4.342   4.782   1.839
87964SOL     OW65788   0.693   2.099  12.448
87964SOL    HW165789   0.765   2.052  12.406
87964SOL    HW265790   0.642   2.031  12.492
87965SOL     OW65791   9.601  10.339   3.472
87965SOL    HW165792   9.622  10.394   3.396
87965SOL    HW265793   9.686  10.323   3.514
87966SOL     OW65794  10.923   0.514   8.848
87966SOL    HW165795  10.952   0.494   8.937
87966SOL    HW265796  10.872   0.595   8.858
87967SOL     OW65797  12.537  11.522   0.977
87967SOL    HW165798  12.601  11.572   0.926
87967SOL    HW265799  12.476  11.588   1.010
87968SOL     OW65800   3.000  12.243  12.487
87968SOL    HW165801   2.940  12.205  12.551
87968SOL    HW265802   2.999  12.181  12.414
87969SOL     OW65803   7.553   5.527   2.821
87969SOL    HW165804   7.466   5.526   2.861
87969SOL    HW265805   7.614   5.533   2.894
87970SOL     OW65806  11.901  13.634  10.709
87970SOL    HW165807  11.953  13.684  10.772
87970SOL    HW265808  11.868  13.559  10.759
87971SOL     OW65809  13.843   7.452  12.076
87971SOL    HW165810  13.886   7.537  12.083
87971SOL    HW265811  13.793   7.457  11.994
87972SOL     OW65812   8.217   1.263   8.102
87972SOL    HW165813   8.273   1.227   8.172
87972SOL    HW265814   8.134   1.217   8.113
87973SOL     OW65815  10.133   4.174   4.964
87973SOL    HW165816  10.082   4.245   4.924
87973SOL    HW265817  10.101   4.168   5.054
87974SOL     OW65818   3.756   3.291  13.527
87974SOL    HW165819   3.772   3.234  13.602
87974SOL    HW265820   3.664   3.275  13.504
87975SOL     OW65821   6.620  11.481  11.315
87975SOL    HW165822   6.690  11.539  11.343
87975SOL    HW265823   6.605  11.423  11.390
87976SOL     OW65824   8.188  10.586   8.524
87976SOL    HW165825   8.213  10.639   8.448
87976SOL    HW265826   8.170  10.499   8.488
87977SOL     OW65827   1.663   0.858   1.980
87977SOL    HW165828   1.744   0.810   1.965
87977SOL    HW265829   1.635   0.887   1.893
87978SOL     OW65830   6.238   6.039  10.596
87978SOL    HW165831   6.180   6.101  10.640
87978SOL    HW265832   6.254   5.971  10.662
87979SOL     OW65833   8.300   0.776   4.806
87979SOL    HW165834   8.365   0.846   4.807
87979SOL    HW265835   8.275   0.768   4.714
87980SOL     OW65836  10.598   4.422   6.508
87980SOL    HW165837  10.606   4.483   6.582
87980SOL    HW265838  10.616   4.476   6.431
87981SOL     OW65839  12.982   7.501  14.140
87981SOL    HW165840  13.065   7.513  14.094
87981SOL    HW265841  12.920   7.557  14.093
87982SOL     OW65842   4.880   1.051  12.866
87982SOL    HW165843   4.826   0.976  12.891
87982SOL    HW265844   4.898   1.038  12.773
87983SOL     OW65845  10.999   4.560   2.298
87983SOL    HW165846  10.925   4.500   2.304
87983SOL    HW265847  10.985   4.609   2.217
87984SOL     OW65848   5.905   0.965   0.335
87984SOL    HW165849   5.948   1.001   0.412
87984SOL    HW265850   5.940   0.877   0.327
87985SOL     OW65851   7.358  14.557  11.437
87985SOL    HW165852   7.313  14.532  11.357
87985SOL    HW265853   7.443  14.513  11.432
87986SOL     OW65854   8.985  14.715   4.378
87986SOL    HW165855   8.934  14.730   4.458
87986SOL    HW265856   9.076  14.724   4.405
87987SOL     OW65857   7.480   1.593   5.472
87987SOL    HW165858   7.519   1.665   5.521
87987SOL    HW265859   7.512   1.514   5.516
87988SOL     OW65860   0.647   4.933   0.676
87988SOL    HW165861   0.690   4.877   0.741
87988SOL    HW265862   0.554   4.926   0.696
87989SOL     OW65863   9.118  13.046  12.446
87989SOL    HW165864   9.107  13.125  12.500
87989SOL    HW265865   9.166  13.077  12.369
87990SOL     OW65866   5.317   6.357  10.025
87990SOL    HW165867   5.297   6.265  10.041
87990SOL    HW265868   5.272   6.404  10.096
87991SOL     OW65869   4.697   5.754   5.312
87991SOL    HW165870   4.628   5.768   5.246
87991SOL    HW265871   4.767   5.710   5.264
87992SOL     OW65872   8.655   7.982   3.500
87992SOL    HW165873   8.636   7.968   3.593
87992SOL    HW265874   8.739   7.941   3.486
87993SOL     OW65875   4.306  13.730  12.472
87993SOL    HW165876   4.351  13.807  12.436
87993SOL    HW265877   4.328  13.731  12.565
87994SOL     OW65878   5.513   4.118   8.489
87994SOL    HW165879   5.504   4.192   8.429
87994SOL    HW265880   5.600   4.127   8.526
87995SOL     OW65881   4.288  11.771   9.671
87995SOL    HW165882   4.323  11.751   9.584
87995SOL    HW265883   4.317  11.697   9.725
87996SOL     OW65884   4.478   4.552   2.906
87996SOL    HW165885   4.526   4.472   2.927
87996SOL    HW265886   4.462   4.593   2.991
87997SOL     OW65887  11.589   1.778   3.338
87997SOL    HW165888  11.574   1.711   3.271
87997SOL    HW265889  11.513   1.770   3.397
87998SOL     OW65890   0.964   8.520  10.379
87998SOL    HW165891   0.976   8.614  10.365
87998SOL    HW265892   1.043   8.480  10.344
87999SOL     OW65893   0.937   7.116   9.195
87999SOL    HW165894   0.905   7.206   9.208
87999SOL    HW265895   1.022   7.115   9.238
88000SOL     OW65896   4.365   8.042   1.408
88000SOL    HW165897   4.428   8.059   1.338
88000SOL    HW265898   4.417   8.007   1.480
88001SOL     OW65899   4.553   3.576   2.743
88001SOL    HW165900   4.557   3.483   2.720
88001SOL    HW265901   4.630   3.590   2.798
88002SOL     OW65902   6.546   4.806   4.511
88002SOL    HW165903   6.461   4.820   4.553
88002SOL    HW265904   6.550   4.873   4.442
88003SOL     OW65905  11.649   0.170  10.621
88003SOL    HW165906  11.679   0.087  10.583
88003SOL    HW265907  11.555   0.172  10.602
88004SOL     OW65908   6.097   9.216  13.984
88004SOL    HW165909   6.078   9.309  13.994
88004SOL    HW265910   6.055   9.192  13.901
88005SOL     OW65911   4.077  14.669   3.226
88005SOL    HW165912   4.008  14.685   3.290
88005SOL    HW265913   4.148  14.628   3.276
88006SOL     OW65914  10.904   6.692  14.546
88006SOL    HW165915  10.930   6.697  14.638
88006SOL    HW265916  10.908   6.599  14.525
88007SOL     OW65917   4.819  11.042  12.941
88007SOL    HW165918   4.841  10.950  12.954
88007SOL    HW265919   4.816  11.079  13.029
88008SOL     OW65920  13.976  12.271   8.202
88008SOL    HW165921  13.948  12.304   8.117
88008SOL    HW265922  13.991  12.350   8.255
88009SOL     OW65923   4.647   5.036   1.606
88009SOL    HW165924   4.623   5.113   1.555
88009SOL    HW265925   4.709   5.069   1.671
88010SOL     OW65926   6.891  13.471   1.224
88010SOL    HW165927   6.936  13.436   1.147
88010SOL    HW265928   6.885  13.396   1.284
88011SOL     OW65929  13.261  14.855   4.928
88011SOL    HW165930  13.286  14.873   5.018
88011SOL    HW265931  13.343  14.855   4.879
88012SOL     OW65932  14.646   0.260  13.805
88012SOL    HW165933  14.574   0.221  13.855
88012SOL    HW265934  14.725   0.222  13.843
88013SOL     OW65935   4.271   8.866   0.984
88013SOL    HW165936   4.323   8.786   0.996
88013SOL    HW265937   4.255   8.898   1.073
88014SOL     OW65938   9.610   9.328   1.822
88014SOL    HW165939   9.553   9.263   1.782
88014SOL    HW265940   9.604   9.311   1.916
88015SOL     OW65941   8.083  12.342   4.179
88015SOL    HW165942   7.997  12.351   4.219
88015SOL    HW265943   8.082  12.255   4.139
88016SOL     OW65944   4.596  11.443   9.403
88016SOL    HW165945   4.583  11.441   9.308
88016SOL    HW265946   4.551  11.365   9.435
88017SOL     OW65947   4.629   2.865   0.550
88017SOL    HW165948   4.575   2.787   0.535
88017SOL    HW265949   4.583   2.913   0.619
88018SOL     OW65950  11.567  14.567   5.353
88018SOL    HW165951  11.634  14.612   5.301
88018SOL    HW265952  11.530  14.635   5.410
88019SOL     OW65953   4.736   7.832  10.165
88019SOL    HW165954   4.760   7.924  10.173
88019SOL    HW265955   4.748   7.795  10.253
88020SOL     OW65956   7.545   1.701  10.993
88020SOL    HW165957   7.628   1.711  11.041
88020SOL    HW265958   7.491   1.646  11.050
88021SOL     OW65959   9.974   3.603   3.988
88021SOL    HW165960   9.944   3.594   3.898
88021SOL    HW265961   9.893   3.614   4.039
88022SOL     OW65962  10.724   7.169   1.408
88022SOL    HW165963  10.799   7.124   1.449
88022SOL    HW265964  10.730   7.258   1.441
88023SOL     OW65965   7.811   6.034   8.605
88023SOL    HW165966   7.870   5.975   8.560
88023SOL    HW265967   7.815   6.116   8.555
88024SOL     OW65968  13.883   4.375  11.148
88024SOL    HW165969  13.889   4.286  11.184
88024SOL    HW265970  13.943   4.426  11.202
88025SOL     OW65971   2.553   1.162   6.303
88025SOL    HW165972   2.600   1.085   6.270
88025SOL    HW265973   2.530   1.211   6.224
88026SOL     OW65974   8.661  10.815  10.229
88026SOL    HW165975   8.686  10.743  10.287
88026SOL    HW265976   8.701  10.893  10.270
88027SOL     OW65977   5.623  13.922  14.626
88027SOL    HW165978   5.550  13.865  14.651
88027SOL    HW265979   5.631  13.983  14.699
88028SOL     OW65980   9.798   8.476   9.737
88028SOL    HW165981   9.835   8.545   9.683
88028SOL    HW265982   9.793   8.515   9.825
88029SOL     OW65983   2.770  13.253   0.156
88029SOL    HW165984   2.803  13.212   0.076
88029SOL    HW265985   2.844  13.304   0.190
88030SOL     OW65986   0.658  12.218  13.405
88030SOL    HW165987   0.752  12.201  13.392
88030SOL    HW265988   0.615  12.137  13.381
88031SOL     OW65989   9.344  13.766  10.775
88031SOL    HW165990   9.254  13.755  10.744
88031SOL    HW265991   9.341  13.846  10.829
88032SOL     OW65992  14.715   9.442   1.892
88032SOL    HW165993  14.671   9.379   1.951
88032SOL    HW265994  14.672   9.525   1.911
88033SOL     OW65995  11.142   6.991   2.583
88033SOL    HW165996  11.075   6.985   2.652
88033SOL    HW265997  11.217   7.033   2.627
88034SOL     OW65998   4.665  10.465  14.218
88034SOL    HW165999   4.715  10.384  14.207
88034SOL    HW266000   4.727  10.535  14.199
88035SOL     OW66001   7.417   2.759   9.297
88035SOL    HW166002   7.484   2.828   9.299
88035SOL    HW266003   7.344   2.795   9.348
88036SOL     OW66004  14.403   6.922  12.293
88036SOL    HW166005  14.409   6.828  12.309
88036SOL    HW266006  14.494   6.952  12.290
88037SOL     OW66007   7.378   1.208   0.409
88037SOL    HW166008   7.346   1.275   0.469
88037SOL    HW266009   7.472   1.224   0.401
88038SOL     OW66010  11.943  11.726   1.565
88038SOL    HW166011  12.034  11.725   1.595
88038SOL    HW266012  11.894  11.688   1.637
88039SOL     OW66013   2.836  14.876   4.158
88039SOL    HW166014   2.773  14.851   4.090
88039SOL    HW266015   2.878  14.793   4.184
88040SOL     OW66016   5.035   7.438   8.498
88040SOL    HW166017   4.955   7.455   8.547
88040SOL    HW266018   5.099   7.498   8.536
88041SOL     OW66019   3.843  12.529   1.818
88041SOL    HW166020   3.792  12.563   1.891
88041SOL    HW266021   3.779  12.509   1.750
88042SOL     OW66022   1.910   4.694   6.372
88042SOL    HW166023   1.930   4.612   6.328
88042SOL    HW266024   1.917   4.760   6.303
88043SOL     OW66025   3.067   1.476   7.094
88043SOL    HW166026   3.138   1.537   7.117
88043SOL    HW266027   3.058   1.420   7.171
88044SOL     OW66028   5.572   6.768  10.254
88044SOL    HW166029   5.660   6.807  10.249
88044SOL    HW266030   5.587   6.674  10.247
88045SOL     OW66031   1.181   6.547  10.625
88045SOL    HW166032   1.118   6.491  10.671
88045SOL    HW266033   1.239   6.578  10.695
88046SOL     OW66034   9.364   5.831   6.457
88046SOL    HW166035   9.442   5.872   6.419
88046SOL    HW266036   9.397   5.751   6.498
88047SOL     OW66037   9.011   6.182   5.386
88047SOL    HW166038   9.050   6.164   5.300
88047SOL    HW266039   9.011   6.097   5.431
88048SOL     OW66040  11.487   9.311  13.117
88048SOL    HW166041  11.400   9.280  13.091
88048SOL    HW266042  11.520   9.245  13.178
88049SOL     OW66043   4.661   7.658  11.555
88049SOL    HW166044   4.684   7.587  11.615
88049SOL    HW266045   4.576   7.689  11.587
88050SOL     OW66046  13.929   6.807   9.712
88050SOL    HW166047  14.013   6.767   9.734
88050SOL    HW266048  13.872   6.734   9.688
88051SOL     OW66049  14.354  12.717   4.609
88051SOL    HW166050  14.354  12.806   4.643
88051SOL    HW266051  14.446  12.696   4.596
88052SOL     OW66052  11.068   5.102   7.417
88052SOL    HW166053  10.998   5.154   7.378
88052SOL    HW266054  11.027   5.056   7.490
88053SOL     OW66055  10.935   8.404   0.889
88053SOL    HW166056  10.998   8.332   0.879
88053SOL    HW266057  10.872   8.391   0.819
88054SOL     OW66058   0.091   9.152   8.950
88054SOL    HW166059   0.105   9.135   8.856
88054SOL    HW266060  14.880   9.136   8.964
88055SOL     OW66061   0.474  11.111   4.681
88055SOL    HW166062   0.512  11.064   4.755
88055SOL    HW266063   0.382  11.121   4.704
88056SOL     OW66064   2.844   5.683   9.957
88056SOL    HW166065   2.912   5.618   9.972
88056SOL    HW266066   2.803   5.696  10.043
88057SOL     OW66067   1.463   5.489   6.827
88057SOL    HW166068   1.472   5.402   6.866
88057SOL    HW266069   1.373   5.515   6.847
88058SOL     OW66070   0.565   3.560   9.207
88058SOL    HW166071   0.565   3.648   9.169
88058SOL    HW266072   0.613   3.569   9.289
88059SOL     OW66073   4.312   5.173  11.165
88059SOL    HW166074   4.373   5.117  11.118
88059SOL    HW266075   4.349   5.181  11.253
88060SOL     OW66076   1.456  14.406   1.868
88060SOL    HW166077   1.443  14.454   1.786
88060SOL    HW266078   1.447  14.314   1.844
88061SOL     OW66079   3.595   5.129   9.287
88061SOL    HW166080   3.610   5.062   9.354
88061SOL    HW266081   3.509   5.108   9.251
88062SOL     OW66082  11.602   7.784   8.630
88062SOL    HW166083  11.548   7.721   8.678
88062SOL    HW266084  11.626   7.738   8.550
88063SOL     OW66085  13.830   5.502  13.528
88063SOL    HW166086  13.924   5.485  13.521
88063SOL    HW266087  13.790   5.415  13.526
88064SOL     OW66088   8.643   3.123   2.109
88064SOL    HW166089   8.573   3.183   2.132
88064SOL    HW266090   8.696   3.170   2.044
88065SOL     OW66091  10.148   5.681   8.142
88065SOL    HW166092  10.134   5.643   8.055
88065SOL    HW266093  10.140   5.776   8.128
88066SOL     OW66094   0.395   3.537   1.977
88066SOL    HW166095   0.482   3.572   1.999
88066SOL    HW266096   0.411   3.479   1.902
88067SOL     OW66097   4.158   0.886   5.426
88067SOL    HW166098   4.155   0.910   5.334
88067SOL    HW266099   4.251   0.893   5.450
88068SOL     OW66100   8.129   2.752   4.634
88068SOL    HW166101   8.219   2.745   4.666
88068SOL    HW266102   8.080   2.692   4.690
88069SOL     OW66103  13.957   2.419   4.330
88069SOL    HW166104  14.004   2.341   4.358
88069SOL    HW266105  13.897   2.439   4.402
88070SOL     OW66106   3.219   5.376   0.680
88070SOL    HW166107   3.234   5.288   0.648
88070SOL    HW266108   3.124   5.382   0.691
88071SOL     OW66109   1.800   2.843   9.220
88071SOL    HW166110   1.895   2.843   9.237
88071SOL    HW266111   1.789   2.900   9.144
88072SOL     OW66112   2.691   4.923   0.064
88072SOL    HW166113   2.680   4.833   0.093
88072SOL    HW266114   2.713   4.972   0.144
88073SOL     OW66115  11.938   3.490   7.142
88073SOL    HW166116  11.895   3.458   7.221
88073SOL    HW266117  12.018   3.438   7.136
88074SOL     OW66118   3.793  13.682   3.116
88074SOL    HW166119   3.774  13.774   3.136
88074SOL    HW266120   3.723  13.633   3.158
88075SOL     OW66121   4.891  14.582  10.061
88075SOL    HW166122   4.932  14.499  10.034
88075SOL    HW266123   4.865  14.623   9.978
88076SOL     OW66124  11.636  13.920  14.858
88076SOL    HW166125  11.590  13.916   0.060
88076SOL    HW266126  11.597  13.851  14.805
88077SOL     OW66127   8.251   6.870  14.844
88077SOL    HW166128   8.321   6.810  14.869
88077SOL    HW266129   8.286   6.957  14.867
88078SOL     OW66130  10.299   2.880  13.656
88078SOL    HW166131  10.349   2.861  13.735
88078SOL    HW266132  10.209   2.894  13.687
88079SOL     OW66133   4.923   1.237   3.835
88079SOL    HW166134   4.942   1.235   3.929
88079SOL    HW266135   4.925   1.145   3.809
88080SOL     OW66136   7.337  14.291  13.446
88080SOL    HW166137   7.432  14.279  13.447
88080SOL    HW266138   7.325  14.385  13.431
88081SOL     OW66139   4.956   7.475  11.023
88081SOL    HW166140   4.895   7.494  10.951
88081SOL    HW266141   5.017   7.410  10.986
88082SOL     OW66142  14.403  14.465   9.131
88082SOL    HW166143  14.335  14.528   9.157
88082SOL    HW266144  14.474  14.519   9.096
88083SOL     OW66145   6.278   9.763   0.142
88083SOL    HW166146   6.235   9.849   0.144
88083SOL    HW266147   6.336   9.768   0.067
88084SOL     OW66148  12.992   8.494  11.855
88084SOL    HW166149  12.944   8.543  11.789
88084SOL    HW266150  13.009   8.409  11.815
88085SOL     OW66151   6.868   5.867  14.666
88085SOL    HW166152   6.958   5.862  14.633
88085SOL    HW266153   6.874   5.839  14.757
88086SOL     OW66154   9.658  12.260   1.316
88086SOL    HW166155   9.626  12.182   1.362
88086SOL    HW266156   9.589  12.280   1.252
88087SOL     OW66157   4.315   1.471   1.225
88087SOL    HW166158   4.333   1.482   1.132
88087SOL    HW266159   4.322   1.377   1.240
88088SOL     OW66160   4.514   3.139  12.265
88088SOL    HW166161   4.521   3.087  12.346
88088SOL    HW266162   4.505   3.074  12.196
88089SOL     OW66163   6.758  14.723   3.174
88089SOL    HW166164   6.702  14.675   3.235
88089SOL    HW266165   6.742  14.816   3.194
88090SOL     OW66166  10.016  13.594  11.740
88090SOL    HW166167  10.013  13.679  11.784
88090SOL    HW266168  10.068  13.539  11.799
88091SOL     OW66169  12.042   1.144   6.163
88091SOL    HW166170  11.971   1.127   6.101
88091SOL    HW266171  12.092   1.215   6.123
88092SOL     OW66172   8.270   7.043   5.966
88092SOL    HW166173   8.346   7.086   6.004
88092SOL    HW266174   8.303   7.001   5.887
88093SOL     OW66175  12.251  10.373   9.520
88093SOL    HW166176  12.234  10.365   9.427
88093SOL    HW266177  12.319  10.308   9.538
88094SOL     OW66178   0.602   2.002  10.916
88094SOL    HW166179   0.640   2.042  10.838
88094SOL    HW266180   0.674   2.003  10.980
88095SOL     OW66181  14.100   4.462   8.870
88095SOL    HW166182  14.042   4.494   8.802
88095SOL    HW266183  14.056   4.384   8.905
88096SOL     OW66184  12.858   9.069  10.909
88096SOL    HW166185  12.822   9.088  10.823
88096SOL    HW266186  12.802   9.118  10.970
88097SOL     OW66187   2.101  13.974   3.090
88097SOL    HW166188   2.062  14.061   3.091
88097SOL    HW266189   2.061  13.929   3.165
88098SOL     OW66190  12.042   1.665   0.419
88098SOL    HW166191  12.011   1.575   0.417
88098SOL    HW266192  12.091   1.675   0.337
88099SOL     OW66193  13.997  13.062   7.979
88099SOL    HW166194  14.016  13.027   7.893
88099SOL    HW266195  14.053  13.139   7.987
88100SOL     OW66196  12.492   9.775   1.067
88100SOL    HW166197  12.495   9.831   1.144
88100SOL    HW266198  12.420   9.714   1.084
88101SOL     OW66199   0.173   1.886   5.686
88101SOL    HW166200   0.237   1.927   5.744
88101SOL    HW266201   0.099   1.947   5.686
88102SOL     OW66202  10.598   9.073  13.092
88102SOL    HW166203  10.502   9.069  13.083
88102SOL    HW266204  10.624   9.143  13.033
88103SOL     OW66205   7.944   3.345   2.377
88103SOL    HW166206   7.894   3.334   2.296
88103SOL    HW266207   7.907   3.422   2.419
88104SOL     OW66208   6.584  12.399   4.241
88104SOL    HW166209   6.593  12.305   4.258
88104SOL    HW266210   6.490  12.413   4.229
88105SOL     OW66211   1.537   0.360   8.817
88105SOL    HW166212   1.490   0.385   8.897
88105SOL    HW266213   1.586   0.439   8.793
88106SOL     OW66214  14.106   8.459  10.755
88106SOL    HW166215  14.018   8.484  10.725
88106SOL    HW266216  14.097   8.451  10.850
88107SOL     OW66217  13.630   0.876   5.131
88107SOL    HW166218  13.627   0.965   5.096
88107SOL    HW266219  13.711   0.874   5.182
88108SOL     OW66220   4.020  14.712  11.091
88108SOL    HW166221   3.931  14.678  11.086
88108SOL    HW266222   4.075  14.633  11.093
88109SOL     OW66223  12.129   6.377  10.391
88109SOL    HW166224  12.178   6.300  10.361
88109SOL    HW266225  12.170   6.400  10.475
88110SOL     OW66226  12.631   2.962  10.832
88110SOL    HW166227  12.621   3.057  10.820
88110SOL    HW266228  12.677   2.954  10.916
88111SOL     OW66229   5.081   6.068   3.839
88111SOL    HW166230   4.994   6.107   3.822
88111SOL    HW266231   5.083   6.055   3.934
88112SOL     OW66232  11.688   7.986   2.994
88112SOL    HW166233  11.722   7.995   2.905
88112SOL    HW266234  11.634   7.908   2.992
88113SOL     OW66235   7.407  11.735   5.103
88113SOL    HW166236   7.427  11.785   5.182
88113SOL    HW266237   7.491  11.731   5.056
88114SOL     OW66238  10.388  13.172  11.566
88114SOL    HW166239  10.343  13.153  11.485
88114SOL    HW266240  10.336  13.241  11.607
88115SOL     OW66241  10.196   4.101  14.113
88115SOL    HW166242  10.125   4.059  14.162
88115SOL    HW266243  10.276   4.074  14.159
88116SOL     OW66244   4.046   6.675   2.961
88116SOL    HW166245   4.002   6.755   2.932
88116SOL    HW266246   4.135   6.683   2.927
88117SOL     OW66247   1.701   0.762   8.142
88117SOL    HW166248   1.664   0.677   8.117
88117SOL    HW266249   1.723   0.753   8.235
88118SOL     OW66250   1.099   5.687   5.704
88118SOL    HW166251   1.071   5.657   5.790
88118SOL    HW266252   1.191   5.712   5.716
88119SOL     OW66253   4.076   7.495  13.089
88119SOL    HW166254   4.135   7.493  13.013
88119SOL    HW266255   4.022   7.416  13.079
88120SOL     OW66256  11.282   7.145   8.169
88120SOL    HW166257  11.268   7.222   8.223
88120SOL    HW266258  11.366   7.160   8.125
88121SOL     OW66259   6.697   1.936   2.251
88121SOL    HW166260   6.694   1.841   2.259
88121SOL    HW266261   6.638   1.968   2.319
88122SOL     OW66262  10.702   5.726   5.963
88122SOL    HW166263  10.669   5.810   5.931
88122SOL    HW266264  10.627   5.667   5.957
88123SOL     OW66265  14.027   0.926   2.794
88123SOL    HW166266  13.991   0.930   2.883
88123SOL    HW266267  13.979   0.993   2.745
88124SOL     OW66268   4.512  10.466   1.710
88124SOL    HW166269   4.521  10.561   1.700
88124SOL    HW266270   4.599  10.431   1.691
88125SOL     OW66271   1.379  12.409   6.321
88125SOL    HW166272   1.429  12.335   6.287
88125SOL    HW266273   1.294  12.371   6.344
88126SOL     OW66274  13.221   9.014   0.031
88126SOL    HW166275  13.270   9.096   0.037
88126SOL    HW266276  13.238   8.982  14.825
88127SOL     OW66277   8.587   9.976   7.836
88127SOL    HW166278   8.587   9.997   7.930
88127SOL    HW266279   8.615   9.884   7.832
88128SOL     OW66280   9.208   8.714   0.152
88128SOL    HW166281   9.145   8.643   0.164
88128SOL    HW266282   9.243   8.700   0.064
88129SOL     OW66283   0.653   1.369  12.225
88129SOL    HW166284   0.747   1.383  12.216
88129SOL    HW266285   0.621   1.450  12.265
88130SOL     OW66286   1.241   5.150   6.042
88130SOL    HW166287   1.204   5.140   5.954
88130SOL    HW266288   1.335   5.144   6.029
88131SOL     OW66289  14.718   6.862   6.655
88131SOL    HW166290  14.745   6.942   6.609
88131SOL    HW266291  14.799   6.813   6.667
88132SOL     OW66292   0.440  11.706   4.218
88132SOL    HW166293   0.422  11.613   4.206
88132SOL    HW266294   0.480  11.734   4.136
88133SOL     OW66295   0.812   5.310   2.427
88133SOL    HW166296   0.831   5.272   2.341
88133SOL    HW266297   0.726   5.351   2.416
88134SOL     OW66298  12.092   7.826   4.784
88134SOL    HW166299  12.041   7.905   4.765
88134SOL    HW266300  12.071   7.805   4.874
88135SOL     OW66301   5.498   6.127  14.451
88135SOL    HW166302   5.506   6.075  14.530
88135SOL    HW266303   5.499   6.064  14.379
88136SOL     OW66304   4.193   6.769   2.203
88136SOL    HW166305   4.106   6.806   2.185
88136SOL    HW266306   4.182   6.675   2.188
88137SOL     OW66307  12.389   8.852  12.676
88137SOL    HW166308  12.431   8.766  12.681
88137SOL    HW266309  12.423   8.900  12.751
88138SOL     OW66310   2.851   7.378   8.053
88138SOL    HW166311   2.814   7.327   7.981
88138SOL    HW266312   2.841   7.322   8.130
88139SOL     OW66313   7.444   5.904   0.953
88139SOL    HW166314   7.467   5.963   1.025
88139SOL    HW266315   7.511   5.835   0.956
88140SOL     OW66316  14.500   1.892  13.077
88140SOL    HW166317  14.513   1.980  13.111
88140SOL    HW266318  14.550   1.836  13.137
88141SOL     OW66319   8.499   0.672   3.199
88141SOL    HW166320   8.557   0.733   3.154
88141SOL    HW266321   8.500   0.700   3.290
88142SOL     OW66322   0.123   7.159  12.582
88142SOL    HW166323   0.181   7.128  12.512
88142SOL    HW266324   0.168   7.135  12.663
88143SOL     OW66325  14.471   8.062   2.804
88143SOL    HW166326  14.386   8.085   2.767
88143SOL    HW266327  14.486   7.972   2.777
88144SOL     OW66328   9.209  14.483  14.397
88144SOL    HW166329   9.184  14.392  14.413
88144SOL    HW266330   9.290  14.494  14.447
88145SOL     OW66331  13.367  13.528   8.509
88145SOL    HW166332  13.278  13.497   8.494
88145SOL    HW266333  13.420  13.449   8.513
88146SOL     OW66334   6.310   3.769  11.188
88146SOL    HW166335   6.265   3.706  11.131
88146SOL    HW266336   6.351   3.830  11.128
88147SOL     OW66337   1.767  14.533   1.700
88147SOL    HW166338   1.821  14.490   1.633
88147SOL    HW266339   1.679  14.535   1.662
88148SOL     OW66340   3.543   9.351   6.423
88148SOL    HW166341   3.452   9.348   6.394
88148SOL    HW266342   3.538   9.350   6.519
88149SOL     OW66343   4.685   4.569  11.658
88149SOL    HW166344   4.655   4.605  11.741
88149SOL    HW266345   4.606   4.562  11.604
88150SOL     OW66346  14.230  14.208   0.236
88150SOL    HW166347  14.311  14.248   0.205
88150SOL    HW266348  14.238  14.206   0.331
88151SOL     OW66349  13.827   5.726  14.078
88151SOL    HW166350  13.918   5.727  14.048
88151SOL    HW266351  13.776   5.725  13.997
88152SOL     OW66352  14.410   2.690  11.101
88152SOL    HW166353  14.480   2.636  11.137
88152SOL    HW266354  14.352   2.707  11.175
88153SOL     OW66355   4.300  13.689   6.878
88153SOL    HW166356   4.295  13.596   6.854
88153SOL    HW266357   4.352  13.690   6.958
88154SOL     OW66358   6.759   0.566   9.582
88154SOL    HW166359   6.685   0.548   9.639
88154SOL    HW266360   6.771   0.486   9.532
88155SOL     OW66361   4.917   6.201   6.496
88155SOL    HW166362   4.836   6.227   6.451
88155SOL    HW266363   4.957   6.284   6.521
88156SOL     OW66364  12.490  11.885   0.960
88156SOL    HW166365  12.445  11.830   1.024
88156SOL    HW266366  12.540  11.824   0.906
88157SOL     OW66367   3.737  14.018   7.158
88157SOL    HW166368   3.749  13.956   7.230
88157SOL    HW266369   3.642  14.017   7.141
88158SOL     OW66370   7.519   5.653   9.620
88158SOL    HW166371   7.584   5.710   9.662
88158SOL    HW266372   7.457   5.633   9.690
88159SOL     OW66373   0.839   2.777   8.961
88159SOL    HW166374   0.768   2.722   8.928
88159SOL    HW266375   0.915   2.754   8.908
88160SOL     OW66376  14.849  11.470  10.431
88160SOL    HW166377   0.026  11.462  10.356
88160SOL    HW266378  14.779  11.528  10.400
88161SOL     OW66379  13.349   3.499   1.640
88161SOL    HW166380  13.396   3.559   1.581
88161SOL    HW266381  13.399   3.501   1.721
88162SOL     OW66382   5.557   5.319   1.396
88162SOL    HW166383   5.570   5.408   1.364
88162SOL    HW266384   5.515   5.330   1.481
88163SOL     OW66385   0.078   0.419   4.660
88163SOL    HW166386   0.107   0.500   4.702
88163SOL    HW266387   0.143   0.354   4.687
88164SOL     OW66388   7.483   3.892   6.161
88164SOL    HW166389   7.422   3.899   6.086
88164SOL    HW266390   7.539   3.969   6.153
88165SOL     OW66391  13.282  10.756   1.886
88165SOL    HW166392  13.241  10.796   1.809
88165SOL    HW266393  13.219  10.689   1.914
88166SOL     OW66394   3.537   0.136   2.830
88166SOL    HW166395   3.599   0.208   2.841
88166SOL    HW266396   3.473   0.167   2.767
88167SOL     OW66397  13.745  14.409   8.114
88167SOL    HW166398  13.826  14.364   8.139
88167SOL    HW266399  13.688  14.397   8.190
88168SOL     OW66400   3.189   0.469  10.331
88168SOL    HW166401   3.224   0.552  10.362
88168SOL    HW266402   3.266   0.419  10.305
88169SOL     OW66403   0.302  13.489   5.876
88169SOL    HW166404   0.228  13.531   5.918
88169SOL    HW266405   0.327  13.418   5.934
88170SOL     OW66406   3.251   6.386  14.241
88170SOL    HW166407   3.255   6.294  14.270
88170SOL    HW266408   3.334   6.401  14.196
88171SOL     OW66409   5.436   4.432   4.309
88171SOL    HW166410   5.425   4.527   4.296
88171SOL    HW266411   5.348   4.396   4.301
88172SOL     OW66412   5.625   1.152   2.407
88172SOL    HW166413   5.555   1.146   2.342
88172SOL    HW266414   5.584   1.194   2.482
88173SOL     OW66415  13.632   2.560   6.513
88173SOL    HW166416  13.589   2.580   6.596
88173SOL    HW266417  13.719   2.599   6.521
88174SOL     OW66418   2.142   8.445   5.414
88174SOL    HW166419   2.230   8.424   5.382
88174SOL    HW266420   2.116   8.367   5.464
88175SOL     OW66421  13.113   9.848   7.519
88175SOL    HW166422  13.099   9.823   7.428
88175SOL    HW266423  13.160   9.774   7.558
88176SOL     OW66424   4.480  12.979   6.817
88176SOL    HW166425   4.412  12.955   6.880
88176SOL    HW266426   4.445  13.056   6.772
88177SOL     OW66427  14.814  13.287   6.486
88177SOL    HW166428  14.859  13.269   6.569
88177SOL    HW266429  14.722  13.294   6.510
88178SOL     OW66430  11.875   8.893   5.728
88178SOL    HW166431  11.814   8.836   5.775
88178SOL    HW266432  11.962   8.866   5.758
88179SOL     OW66433  11.993   0.791  12.867
88179SOL    HW166434  11.988   0.860  12.933
88179SOL    HW266435  12.086   0.788  12.842
88180SOL     OW66436  11.307   1.733   4.872
88180SOL    HW166437  11.242   1.803   4.871
88180SOL    HW266438  11.390   1.776   4.853
88181SOL     OW66439   0.683  12.444   4.225
88181SOL    HW166440   0.618  12.514   4.224
88181SOL    HW266441   0.744  12.468   4.295
88182SOL     OW66442   9.412  13.791   3.486
88182SOL    HW166443   9.345  13.803   3.554
88182SOL    HW266444   9.362  13.767   3.408
88183SOL     OW66445   2.446   9.865   1.420
88183SOL    HW166446   2.385   9.936   1.439
88183SOL    HW266447   2.391   9.797   1.380
88184SOL     OW66448   1.695   0.602  10.895
88184SOL    HW166449   1.650   0.680  10.929
88184SOL    HW266450   1.635   0.567  10.829
88185SOL     OW66451   3.970   2.897  13.693
88185SOL    HW166452   4.025   2.930  13.622
88185SOL    HW266453   3.988   2.803  13.696
88186SOL     OW66454   1.941   8.307  11.612
88186SOL    HW166455   1.993   8.295  11.533
88186SOL    HW266456   1.978   8.245  11.675
88187SOL     OW66457   5.726   8.301   5.340
88187SOL    HW166458   5.764   8.297   5.428
88187SOL    HW266459   5.662   8.229   5.339
88188SOL     OW66460   7.895   4.811   9.944
88188SOL    HW166461   7.838   4.855  10.008
88188SOL    HW266462   7.858   4.836   9.859
88189SOL     OW66463  14.051   6.966   1.364
88189SOL    HW166464  14.104   6.945   1.287
88189SOL    HW266465  14.091   6.916   1.435
88190SOL     OW66466   9.126   9.799   7.528
88190SOL    HW166467   9.084   9.876   7.490
88190SOL    HW266468   9.128   9.736   7.456
88191SOL     OW66469   2.342   1.176   9.786
88191SOL    HW166470   2.367   1.120   9.713
88191SOL    HW266471   2.413   1.240   9.792
88192SOL     OW66472   5.759   6.917   5.492
88192SOL    HW166473   5.681   6.964   5.522
88192SOL    HW266474   5.726   6.832   5.463
88193SOL     OW66475  11.121  14.592   6.008
88193SOL    HW166476  11.126  14.553   6.095
88193SOL    HW266477  11.030  14.622   6.001
88194SOL     OW66478  13.712  11.866   7.424
88194SOL    HW166479  13.685  11.891   7.512
88194SOL    HW266480  13.670  11.781   7.408
88195SOL     OW66481   3.175   4.683   5.045
88195SOL    HW166482   3.119   4.761   5.039
88195SOL    HW266483   3.260   4.713   5.013
88196SOL     OW66484  13.324   5.764   4.516
88196SOL    HW166485  13.246   5.814   4.492
88196SOL    HW266486  13.398   5.818   4.488
88197SOL     OW66487  14.453  13.705   7.117
88197SOL    HW166488  14.427  13.789   7.153
88197SOL    HW266489  14.387  13.643   7.149
88198SOL     OW66490   5.973   1.196   9.551
88198SOL    HW166491   5.881   1.187   9.524
88198SOL    HW266492   6.002   1.277   9.509
88199SOL     OW66493  14.335   8.405   4.801
88199SOL    HW166494  14.307   8.464   4.731
88199SOL    HW266495  14.428   8.423   4.812
88200SOL     OW66496  12.933   0.176   9.231
88200SOL    HW166497  12.996   0.241   9.261
88200SOL    HW266498  12.859   0.185   9.290
88201SOL     OW66499   1.124  14.645   2.634
88201SOL    HW166500   1.173  14.593   2.698
88201SOL    HW266501   1.067  14.700   2.688
88202SOL     OW66502  14.031   3.857   4.388
88202SOL    HW166503  14.028   3.792   4.459
88202SOL    HW266504  14.095   3.922   4.417
88203SOL     OW66505  12.453   8.334   6.640
88203SOL    HW166506  12.378   8.303   6.591
88203SOL    HW266507  12.460   8.274   6.715
88204SOL     OW66508   3.624   6.573  11.831
88204SOL    HW166509   3.569   6.561  11.908
88204SOL    HW266510   3.570   6.545  11.758
88205SOL     OW66511  14.215   4.171  14.298
88205SOL    HW166512  14.259   4.234  14.355
88205SOL    HW266513  14.136   4.145  14.346
88206SOL     OW66514   6.391   4.263   2.906
88206SOL    HW166515   6.309   4.227   2.873
88206SOL    HW266516   6.383   4.358   2.890
88207SOL     OW66517   1.413   5.855   6.425
88207SOL    HW166518   1.456   5.929   6.467
88207SOL    HW266519   1.447   5.778   6.470
88208SOL     OW66520   9.632   2.055  13.749
88208SOL    HW166521   9.694   2.022  13.684
88208SOL    HW266522   9.548   2.059  13.703
88209SOL     OW66523   0.194   6.135   0.096
88209SOL    HW166524   0.144   6.131   0.178
88209SOL    HW266525   0.196   6.044   0.066
88210SOL     OW66526   2.548   4.921  12.070
88210SOL    HW166527   2.586   4.843  12.030
88210SOL    HW266528   2.467   4.891  12.111
88211SOL     OW66529   1.297  11.410   3.783
88211SOL    HW166530   1.296  11.410   3.687
88211SOL    HW266531   1.207  11.388   3.808
88212SOL     OW66532   6.863   3.221   4.741
88212SOL    HW166533   6.795   3.156   4.727
88212SOL    HW266534   6.932   3.198   4.678
88213SOL     OW66535   7.534   4.811   8.919
88213SOL    HW166536   7.458   4.760   8.891
88213SOL    HW266537   7.501   4.869   8.987
88214SOL     OW66538   4.037   7.751  13.819
88214SOL    HW166539   4.094   7.778  13.891
88214SOL    HW266540   4.095   7.745  13.743
88215SOL     OW66541   3.898   2.062   6.948
88215SOL    HW166542   3.856   2.036   7.030
88215SOL    HW266543   3.827   2.067   6.884
88216SOL     OW66544   1.177  11.665  10.907
88216SOL    HW166545   1.200  11.696  10.820
88216SOL    HW266546   1.092  11.704  10.925
88217SOL     OW66547  14.128   6.238   6.894
88217SOL    HW166548  14.219   6.219   6.914
88217SOL    HW266549  14.097   6.160   6.848
88218SOL     OW66550  11.648   2.373  13.417
88218SOL    HW166551  11.727   2.328  13.445
88218SOL    HW266552  11.604   2.398  13.498
88219SOL     OW66553   6.814   0.766   9.215
88219SOL    HW166554   6.889   0.818   9.244
88219SOL    HW266555   6.842   0.675   9.229
88220SOL     OW66556   7.565  10.209   5.451
88220SOL    HW166557   7.604  10.146   5.511
88220SOL    HW266558   7.638  10.238   5.396
88221SOL     OW66559   8.330   4.469   0.560
88221SOL    HW166560   8.307   4.554   0.520
88221SOL    HW266561   8.367   4.492   0.645
88222SOL     OW66562   9.382  12.020   8.879
88222SOL    HW166563   9.455  11.974   8.837
88222SOL    HW266564   9.307  12.005   8.822
88223SOL     OW66565  11.929  12.475  14.773
88223SOL    HW166566  11.984  12.403  14.807
88223SOL    HW266567  11.853  12.431  14.735
88224SOL     OW66568  10.235   8.135  14.711
88224SOL    HW166569  10.191   8.175  14.787
88224SOL    HW266570  10.257   8.209  14.655
88225SOL     OW66571   0.994   9.927   4.686
88225SOL    HW166572   1.045   9.918   4.766
88225SOL    HW266573   1.008  10.018   4.659
88226SOL     OW66574  13.753   3.825   6.859
88226SOL    HW166575  13.740   3.787   6.772
88226SOL    HW266576  13.794   3.755   6.910
88227SOL     OW66577  13.793  11.967   4.535
88227SOL    HW166578  13.781  11.873   4.523
88227SOL    HW266579  13.721  12.007   4.486
88228SOL     OW66580   0.973   9.345  10.630
88228SOL    HW166581   0.877   9.342  10.627
88228SOL    HW266582   0.993   9.384  10.715
88229SOL     OW66583   8.401   9.065   7.455
88229SOL    HW166584   8.317   9.067   7.410
88229SOL    HW266585   8.450   8.996   7.411
88230SOL     OW66586   4.741   5.098   3.227
88230SOL    HW166587   4.802   5.171   3.220
88230SOL    HW266588   4.684   5.122   3.300
88231SOL     OW66589  14.451  13.342   9.641
88231SOL    HW166590  14.510  13.333   9.566
88231SOL    HW266591  14.489  13.412   9.694
88232SOL     OW66592  10.820  14.028   4.504
88232SOL    HW166593  10.873  14.046   4.581
88232SOL    HW266594  10.805  13.933   4.506
88233SOL     OW66595   1.682   1.691  11.876
88233SOL    HW166596   1.616   1.718  11.812
88233SOL    HW266597   1.702   1.601  11.853
88234SOL     OW66598   3.046   9.778   2.729
88234SOL    HW166599   3.130   9.734   2.712
88234SOL    HW266600   3.034   9.837   2.655
88235SOL     OW66601  13.182   3.415   4.967
88235SOL    HW166602  13.171   3.498   5.013
88235SOL    HW266603  13.138   3.428   4.883
88236SOL     OW66604  14.263   5.125  10.247
88236SOL    HW166605  14.316   5.076  10.310
88236SOL    HW266606  14.180   5.141  10.293
88237SOL     OW66607   0.530  10.838  10.446
88237SOL    HW166608   0.474  10.779  10.496
88237SOL    HW266609   0.478  10.861  10.369
88238SOL     OW66610   9.384   8.191  10.915
88238SOL    HW166611   9.410   8.165  11.003
88238SOL    HW266612   9.415   8.120  10.858
88239SOL     OW66613  11.465   5.944   7.910
88239SOL    HW166614  11.390   5.947   7.852
88239SOL    HW266615  11.483   6.036   7.931
88240SOL     OW66616   2.260  12.758   8.166
88240SOL    HW166617   2.201  12.707   8.111
88240SOL    HW266618   2.281  12.835   8.113
88241SOL     OW66619   8.861  11.415  14.025
88241SOL    HW166620   8.941  11.383  13.984
88241SOL    HW266621   8.819  11.468  13.958
88242SOL     OW66622  13.784   0.796  13.265
88242SOL    HW166623  13.762   0.771  13.355
88242SOL    HW266624  13.702   0.829  13.229
88243SOL     OW66625   6.118  12.271   9.844
88243SOL    HW166626   6.108  12.290   9.751
88243SOL    HW266627   6.210  12.246   9.853
88244SOL     OW66628   3.471   4.505   6.942
88244SOL    HW166629   3.416   4.557   6.883
88244SOL    HW266630   3.428   4.511   7.027
88245SOL     OW66631   0.990   3.635  12.017
88245SOL    HW166632   0.932   3.660  12.089
88245SOL    HW266633   1.077   3.659  12.048
88246SOL     OW66634   7.611   2.769  12.776
88246SOL    HW166635   7.693   2.758  12.824
88246SOL    HW266636   7.543   2.756  12.842
88247SOL     OW66637  12.679   1.544   8.100
88247SOL    HW166638  12.710   1.621   8.148
88247SOL    HW266639  12.624   1.497   8.163
88248SOL     OW66640   4.281  12.491   8.483
88248SOL    HW166641   4.243  12.463   8.400
88248SOL    HW266642   4.235  12.572   8.504
88249SOL     OW66643   8.620   0.107  10.567
88249SOL    HW166644   8.532   0.071  10.558
88249SOL    HW266645   8.675   0.032  10.589
88250SOL     OW66646   9.561   5.680   5.360
88250SOL    HW166647   9.569   5.585   5.367
88250SOL    HW266648   9.647   5.709   5.331
88251SOL     OW66649   5.438   7.051  12.461
88251SOL    HW166650   5.378   6.980  12.485
88251SOL    HW266651   5.480   7.077  12.543
88252SOL     OW66652   2.198   3.943   9.729
88252SOL    HW166653   2.258   3.977   9.795
88252SOL    HW266654   2.124   4.003   9.732
88253SOL     OW66655   9.544   5.743   5.776
88253SOL    HW166656   9.522   5.714   5.865
88253SOL    HW266657   9.622   5.693   5.753
88254SOL     OW66658  13.937   9.317   2.205
88254SOL    HW166659  13.861   9.368   2.234
88254SOL    HW266660  13.920   9.301   2.112
88255SOL     OW66661  14.474   1.136   3.024
88255SOL    HW166662  14.518   1.100   2.947
88255SOL    HW266663  14.417   1.066   3.055
88256SOL     OW66664  12.534   9.638   4.591
88256SOL    HW166665  12.603   9.700   4.568
88256SOL    HW266666  12.471   9.646   4.519
88257SOL     OW66667   5.580  10.950   5.629
88257SOL    HW166668   5.646  10.961   5.562
88257SOL    HW266669   5.619  10.986   5.709
88258SOL     OW66670   9.927  11.218   6.087
88258SOL    HW166671   9.969  11.221   6.001
88258SOL    HW266672   9.850  11.274   6.078
88259SOL     OW66673   7.921  14.626   1.435
88259SOL    HW166674   7.995  14.573   1.404
88259SOL    HW266675   7.889  14.671   1.357
88260SOL     OW66676  14.646  13.508   2.240
88260SOL    HW166677  14.552  13.490   2.243
88260SOL    HW266678  14.654  13.584   2.182
88261SOL     OW66679  11.550   4.777   7.196
88261SOL    HW166680  11.483   4.708   7.196
88261SOL    HW266681  11.540   4.820   7.111
88262SOL     OW66682   3.745  14.448   5.809
88262SOL    HW166683   3.748  14.352   5.804
88262SOL    HW266684   3.714  14.466   5.897
88263SOL     OW66685  14.280   6.991   8.642
88263SOL    HW166686  14.213   7.015   8.705
88263SOL    HW266687  14.248   7.024   8.558
88264SOL     OW66688   0.597  14.573   7.462
88264SOL    HW166689   0.672  14.513   7.467
88264SOL    HW266690   0.574  14.590   7.553
88265SOL     OW66691  13.171   5.679   5.678
88265SOL    HW166692  13.242   5.621   5.705
88265SOL    HW266693  13.207   5.727   5.603
88266SOL     OW66694   4.183   2.887  10.236
88266SOL    HW166695   4.153   2.822  10.299
88266SOL    HW266696   4.185   2.840  10.152
88267SOL     OW66697   6.020   7.034   5.217
88267SOL    HW166698   5.986   6.949   5.245
88267SOL    HW266699   6.030   7.025   5.122
88268SOL     OW66700  12.266   0.634   4.904
88268SOL    HW166701  12.332   0.567   4.886
88268SOL    HW266702  12.306   0.690   4.970
88269SOL     OW66703   0.851   4.222   0.537
88269SOL    HW166704   0.895   4.300   0.501
88269SOL    HW266705   0.900   4.201   0.616
88270SOL     OW66706   8.429  10.710  10.671
88270SOL    HW166707   8.382  10.791  10.652
88270SOL    HW266708   8.448  10.673  10.585
88271SOL     OW66709   6.956  12.398   8.143
88271SOL    HW166710   6.908  12.319   8.168
88271SOL    HW266711   7.039  12.365   8.107
88272SOL     OW66712  12.527   0.797   7.599
88272SOL    HW166713  12.459   0.832   7.541
88272SOL    HW266714  12.520   0.702   7.589
88273SOL     OW66715   0.528   0.713  10.841
88273SOL    HW166716   0.594   0.667  10.894
88273SOL    HW266717   0.449   0.713  10.895
88274SOL     OW66718   8.259   4.247   4.763
88274SOL    HW166719   8.205   4.204   4.829
88274SOL    HW266720   8.329   4.185   4.744
88275SOL     OW66721  10.360   6.881  13.277
88275SOL    HW166722  10.386   6.882  13.185
88275SOL    HW266723  10.369   6.972  13.305
88276SOL     OW66724   0.895   2.064   3.869
88276SOL    HW166725   0.911   2.034   3.780
88276SOL    HW266726   0.951   2.009   3.924
88277SOL     OW66727   9.813   2.973   8.068
88277SOL    HW166728   9.753   3.025   8.013
88277SOL    HW266729   9.772   2.887   8.073
88278SOL     OW66730  13.461  10.924  13.389
88278SOL    HW166731  13.550  10.923  13.425
88278SOL    HW266732  13.406  10.894  13.462
88279SOL     OW66733   3.384   7.513   9.297
88279SOL    HW166734   3.368   7.496   9.204
88279SOL    HW266735   3.477   7.495   9.309
88280SOL     OW66736   8.755   6.066  11.505
88280SOL    HW166737   8.706   6.147  11.515
88280SOL    HW266738   8.775   6.038  11.594
88281SOL     OW66739   7.728   3.237   2.210
88281SOL    HW166740   7.681   3.211   2.289
88281SOL    HW266741   7.720   3.162   2.152
88282SOL     OW66742  11.172   5.474   5.496
88282SOL    HW166743  11.162   5.569   5.490
88282SOL    HW266744  11.254   5.455   5.450
88283SOL     OW66745   6.424  13.811   1.812
88283SOL    HW166746   6.469  13.892   1.788
88283SOL    HW266747   6.391  13.826   1.900
88284SOL     OW66748   7.061  14.440   3.642
88284SOL    HW166749   7.082  14.381   3.570
88284SOL    HW266750   7.106  14.521   3.620
88285SOL     OW66751  10.101   4.769   7.108
88285SOL    HW166752  10.160   4.801   7.039
88285SOL    HW266753  10.111   4.832   7.179
88286SOL     OW66754  14.563   9.188   5.415
88286SOL    HW166755  14.527   9.114   5.465
88286SOL    HW266756  14.488   9.223   5.367
88287SOL     OW66757   6.241   7.865  13.321
88287SOL    HW166758   6.188   7.875  13.242
88287SOL    HW266759   6.321   7.824  13.292
88288SOL     OW66760   7.788   8.575  13.838
88288SOL    HW166761   7.840   8.506  13.879
88288SOL    HW266762   7.758   8.630  13.910
88289SOL     OW66763  12.118  10.079   9.186
88289SOL    HW166764  12.032  10.064   9.146
88289SOL    HW266765  12.140   9.994   9.225
88290SOL     OW66766  13.196   5.961   9.540
88290SOL    HW166767  13.113   5.923   9.566
88290SOL    HW266768  13.251   5.956   9.618
88291SOL     OW66769   5.593   3.691   0.854
88291SOL    HW166770   5.535   3.767   0.864
88291SOL    HW266771   5.636   3.705   0.770
88292SOL     OW66772   6.309   4.772   7.293
88292SOL    HW166773   6.352   4.741   7.213
88292SOL    HW266774   6.313   4.697   7.352
88293SOL     OW66775  10.461   2.207  12.402
88293SOL    HW166776  10.378   2.171  12.373
88293SOL    HW266777  10.465   2.294  12.364
88294SOL     OW66778   6.796   6.619   8.486
88294SOL    HW166779   6.858   6.688   8.509
88294SOL    HW266780   6.834   6.540   8.524
88295SOL     OW66781  11.662  12.149  11.086
88295SOL    HW166782  11.730  12.089  11.115
88295SOL    HW266783  11.619  12.178  11.166
88296SOL     OW66784   3.619   7.793   2.092
88296SOL    HW166785   3.529   7.768   2.073
88296SOL    HW266786   3.617   7.889   2.092
88297SOL     OW66787   4.879   2.385   4.165
88297SOL    HW166788   4.916   2.310   4.120
88297SOL    HW266789   4.917   2.461   4.121
88298SOL     OW66790  14.775   2.569   6.268
88298SOL    HW166791  14.773   2.567   6.364
88298SOL    HW266792  14.829   2.493   6.243
88299SOL     OW66793   7.061  12.243   4.173
88299SOL    HW166794   7.002  12.179   4.132
88299SOL    HW266795   7.095  12.295   4.099
88300SOL     OW66796   0.490   3.308   5.659
88300SOL    HW166797   0.397   3.313   5.684
88300SOL    HW266798   0.537   3.339   5.737
88301SOL     OW66799  13.697  12.519   7.160
88301SOL    HW166800  13.651  12.526   7.243
88301SOL    HW266801  13.688  12.605   7.119
88302SOL     OW66802   4.767   5.358   1.928
88302SOL    HW166803   4.701   5.289   1.922
88302SOL    HW266804   4.787   5.364   2.021
88303SOL     OW66805   7.932  12.987  14.148
88303SOL    HW166806   7.938  13.077  14.182
88303SOL    HW266807   7.839  12.972  14.136
88304SOL     OW66808   0.457   7.805  12.269
88304SOL    HW166809   0.456   7.886  12.320
88304SOL    HW266810   0.442   7.833  12.179
88305SOL     OW66811   6.937   5.795   3.368
88305SOL    HW166812   6.878   5.870   3.374
88305SOL    HW266813   6.907   5.748   3.290
88306SOL     OW66814   7.087   3.247   3.678
88306SOL    HW166815   7.114   3.312   3.613
88306SOL    HW266816   6.995   3.230   3.657
88307SOL     OW66817   4.039   0.023  11.321
88307SOL    HW166818   4.050  14.813  11.295
88307SOL    HW266819   3.970   0.055  11.264
88308SOL     OW66820  14.478   0.513  12.486
88308SOL    HW166821  14.560   0.506  12.534
88308SOL    HW266822  14.410   0.495  12.551
88309SOL     OW66823   5.846  10.145  13.430
88309SOL    HW166824   5.828  10.235  13.458
88309SOL    HW266825   5.764  10.098  13.447
88310SOL     OW66826   9.447   1.017   5.003
88310SOL    HW166827   9.527   1.069   5.006
88310SOL    HW266828   9.410   1.036   4.916
88311SOL     OW66829   5.989   3.844   4.673
88311SOL    HW166830   6.079   3.812   4.664
88311SOL    HW266831   5.945   3.775   4.723
88312SOL     OW66832  12.409   5.666  13.159
88312SOL    HW166833  12.327   5.714  13.161
88312SOL    HW266834  12.477   5.733  13.163
88313SOL     OW66835  13.768  11.616   7.970
88313SOL    HW166836  13.811  11.659   8.044
88313SOL    HW266837  13.816  11.534   7.959
88314SOL     OW66838   1.537   6.812  13.281
88314SOL    HW166839   1.535   6.838  13.189
88314SOL    HW266840   1.464   6.858  13.321
88315SOL     OW66841  12.491   5.005   7.015
88315SOL    HW166842  12.412   5.028   7.063
88315SOL    HW266843  12.507   5.080   6.957
88316SOL     OW66844  11.043   3.971   8.204
88316SOL    HW166845  11.068   3.994   8.294
88316SOL    HW266846  10.987   3.894   8.213
88317SOL     OW66847   8.703   1.845  10.894
88317SOL    HW166848   8.646   1.921  10.904
88317SOL    HW266849   8.792   1.881  10.890
88318SOL     OW66850  13.799  11.515   1.749
88318SOL    HW166851  13.840  11.502   1.834
88318SOL    HW266852  13.870  11.505   1.686
88319SOL     OW66853   2.613  10.066   2.741
88319SOL    HW166854   2.650  10.063   2.829
88319SOL    HW266855   2.519  10.068   2.754
88320SOL     OW66856  11.456   4.343   6.085
88320SOL    HW166857  11.371   4.385   6.070
88320SOL    HW266858  11.490   4.328   5.997
88321SOL     OW66859  11.913   1.736   9.850
88321SOL    HW166860  11.930   1.830   9.845
88321SOL    HW266861  11.889   1.721   9.941
88322SOL     OW66862  11.712   4.616   6.900
88322SOL    HW166863  11.703   4.524   6.876
88322SOL    HW266864  11.623   4.645   6.917
88323SOL     OW66865  10.804   3.200   9.130
88323SOL    HW166866  10.720   3.245   9.138
88323SOL    HW266867  10.793   3.120   9.183
88324SOL     OW66868   5.960   7.522   4.016
88324SOL    HW166869   5.983   7.494   4.104
88324SOL    HW266870   5.968   7.618   4.018
88325SOL     OW66871   1.244  13.688   4.490
88325SOL    HW166872   1.182  13.639   4.437
88325SOL    HW266873   1.328  13.644   4.476
88326SOL     OW66874   5.638   7.484   1.562
88326SOL    HW166875   5.630   7.574   1.594
88326SOL    HW266876   5.572   7.436   1.612
88327SOL     OW66877   8.772   1.854  12.249
88327SOL    HW166878   8.807   1.900  12.172
88327SOL    HW266879   8.684   1.826  12.222
88328SOL     OW66880  10.611   8.871   0.967
88328SOL    HW166881  10.626   8.777   0.973
88328SOL    HW266882  10.524   8.880   0.930
88329SOL     OW66883  11.058   3.761  13.223
88329SOL    HW166884  11.017   3.778  13.307
88329SOL    HW266885  11.077   3.848  13.187
88330SOL     OW66886   8.735  14.124   4.377
88330SOL    HW166887   8.778  14.072   4.445
88330SOL    HW266888   8.756  14.079   4.295
88331SOL     OW66889  10.520   9.005  11.186
88331SOL    HW166890  10.434   8.961  11.188
88331SOL    HW266891  10.503   9.092  11.222
88332SOL     OW66892   0.211   8.286   8.068
88332SOL    HW166893   0.131   8.300   8.018
88332SOL    HW266894   0.272   8.248   8.006
88333SOL     OW66895   8.561   4.028  10.531
88333SOL    HW166896   8.533   4.117  10.555
88333SOL    HW266897   8.492   3.996  10.473
88334SOL     OW66898   6.015   3.645   5.515
88334SOL    HW166899   6.080   3.694   5.565
88334SOL    HW266900   6.045   3.652   5.424
88335SOL     OW66901  11.438  12.064  13.896
88335SOL    HW166902  11.403  11.996  13.838
88335SOL    HW266903  11.363  12.093  13.948
88336SOL     OW66904  11.474   0.391   1.666
88336SOL    HW166905  11.393   0.340   1.658
88336SOL    HW266906  11.519   0.377   1.583
88337SOL     OW66907   2.857   4.168   4.691
88337SOL    HW166908   2.832   4.260   4.694
88337SOL    HW266909   2.933   4.166   4.633
88338SOL     OW66910  12.252   9.573   0.081
88338SOL    HW166911  12.287   9.541   0.165
88338SOL    HW266912  12.178   9.629   0.106
88339SOL     OW66913   7.602   3.671   9.109
88339SOL    HW166914   7.657   3.617   9.052
88339SOL    HW266915   7.630   3.760   9.092
88340SOL     OW66916  14.169  12.612   6.610
88340SOL    HW166917  14.125  12.583   6.530
88340SOL    HW266918  14.098  12.644   6.666
88341SOL     OW66919   3.701   6.938   9.626
88341SOL    HW166920   3.688   6.857   9.676
88341SOL    HW266921   3.625   6.992   9.648
88342SOL     OW66922   8.982   3.014   3.234
88342SOL    HW166923   8.973   3.104   3.265
88342SOL    HW266924   9.072   2.990   3.253
88343SOL     OW66925   9.715   7.485  13.614
88343SOL    HW166926   9.733   7.393  13.629
88343SOL    HW266927   9.625   7.497  13.644
88344SOL     OW66928   0.186  10.106   5.486
88344SOL    HW166929   0.189  10.043   5.558
88344SOL    HW266930   0.223  10.186   5.522
88345SOL     OW66931  14.706   2.746   8.416
88345SOL    HW166932  14.663   2.737   8.331
88345SOL    HW266933  14.656   2.813   8.462
88346SOL     OW66934   5.088   4.248   8.280
88346SOL    HW166935   5.143   4.223   8.206
88346SOL    HW266936   4.999   4.235   8.249
88347SOL     OW66937  12.326  12.474   5.760
88347SOL    HW166938  12.318  12.546   5.822
88347SOL    HW266939  12.253  12.417   5.780
88348SOL     OW66940   6.059   1.457  14.629
88348SOL    HW166941   6.094   1.460  14.718
88348SOL    HW266942   5.969   1.424  14.639
88349SOL     OW66943   2.007   1.447   8.656
88349SOL    HW166944   1.964   1.507   8.595
88349SOL    HW266945   1.954   1.452   8.736
88350SOL     OW66946   0.305   5.269  13.555
88350SOL    HW166947   0.399   5.259  13.569
88350SOL    HW266948   0.295   5.272  13.459
88351SOL     OW66949   0.141   2.769   1.270
88351SOL    HW166950   0.099   2.836   1.324
88351SOL    HW266951   0.075   2.745   1.205
88352SOL     OW66952   1.822   0.371  10.152
88352SOL    HW166953   1.876   0.430  10.204
88352SOL    HW266954   1.848   0.389  10.061
88353SOL     OW66955   9.666  14.251   4.637
88353SOL    HW166956   9.741  14.194   4.619
88353SOL    HW266957   9.600  14.224   4.574
88354SOL     OW66958   7.891   1.027   2.764
88354SOL    HW166959   7.950   0.960   2.726
88354SOL    HW266960   7.835   0.978   2.824
88355SOL     OW66961   8.432   7.480   7.925
88355SOL    HW166962   8.413   7.451   7.835
88355SOL    HW266963   8.510   7.535   7.916
88356SOL     OW66964   8.725  14.319   2.967
88356SOL    HW166965   8.640  14.289   3.001
88356SOL    HW266966   8.788  14.289   3.033
88357SOL     OW66967  11.936   2.087   0.647
88357SOL    HW166968  11.844   2.089   0.620
88357SOL    HW266969  11.962   1.996   0.637
88358SOL     OW66970   3.759   7.761   5.492
88358SOL    HW166971   3.768   7.667   5.472
88358SOL    HW266972   3.848   7.789   5.514
88359SOL     OW66973   7.554  12.359   7.545
88359SOL    HW166974   7.524  12.314   7.624
88359SOL    HW266975   7.578  12.289   7.485
88360SOL     OW66976  12.193   3.778  12.814
88360SOL    HW166977  12.265   3.795  12.754
88360SOL    HW266978  12.220   3.820  12.896
88361SOL     OW66979  13.497   3.953  12.377
88361SOL    HW166980  13.537   3.965  12.291
88361SOL    HW266981  13.419   4.007  12.375
88362SOL     OW66982  10.097   5.514   3.964
88362SOL    HW166983  10.054   5.429   3.980
88362SOL    HW266984  10.064   5.541   3.879
88363SOL     OW66985  12.900   6.246  13.203
88363SOL    HW166986  12.891   6.341  13.208
88363SOL    HW266987  12.810   6.215  13.191
88364SOL     OW66988   3.859  14.874   5.226
88364SOL    HW166989   3.804  14.838   5.156
88364SOL    HW266990   3.797   0.016   5.295
88365SOL     OW66991   7.518   4.742  13.610
88365SOL    HW166992   7.438   4.778  13.648
88365SOL    HW266993   7.587   4.764  13.673
88366SOL     OW66994   0.901   4.668  11.323
88366SOL    HW166995   0.809   4.667  11.350
88366SOL    HW266996   0.936   4.750  11.358
88367SOL     OW66997  13.989   3.260   3.812
88367SOL    HW166998  13.988   3.244   3.718
88367SOL    HW266999  13.981   3.173   3.851
88368SOL     OW67000  10.069  12.464   7.631
88368SOL    HW167001  10.058  12.383   7.581
88368SOL    HW267002  10.022  12.530   7.580
88369SOL     OW67003   0.849  12.558  12.080
88369SOL    HW167004   0.907  12.626  12.047
88369SOL    HW267005   0.761  12.586  12.055
88370SOL     OW67006   9.647  12.113  13.622
88370SOL    HW167007   9.711  12.179  13.649
88370SOL    HW267008   9.661  12.103  13.528
88371SOL     OW67009   9.237  14.207   0.204
88371SOL    HW167010   9.158  14.176   0.247
88371SOL    HW267011   9.305  14.145   0.229
88372SOL     OW67012   2.690  12.679   5.897
88372SOL    HW167013   2.690  12.588   5.927
88372SOL    HW267014   2.757  12.682   5.829
88373SOL     OW67015   1.480   1.683   3.501
88373SOL    HW167016   1.536   1.637   3.563
88373SOL    HW267017   1.537   1.749   3.462
88374SOL     OW67018  10.633  13.288   4.864
88374SOL    HW167019  10.635  13.192   4.872
88374SOL    HW267020  10.540  13.310   4.870
88375SOL     OW67021   5.939  11.795   0.445
88375SOL    HW167022   5.941  11.770   0.352
88375SOL    HW267023   5.999  11.869   0.451
88376SOL     OW67024   5.433   9.316  10.791
88376SOL    HW167025   5.411   9.322  10.884
88376SOL    HW267026   5.481   9.233  10.783
88377SOL     OW67027  10.146   9.646   3.159
88377SOL    HW167028  10.102   9.696   3.228
88377SOL    HW267029  10.113   9.683   3.077
88378SOL     OW67030   3.790   0.559   7.858
88378SOL    HW167031   3.711   0.612   7.855
88378SOL    HW267032   3.819   0.564   7.949
88379SOL     OW67033   5.137  10.455  11.142
88379SOL    HW167034   5.126  10.548  11.166
88379SOL    HW267035   5.078  10.443  11.068
88380SOL     OW67036   5.665   1.332   8.331
88380SOL    HW167037   5.583   1.370   8.363
88380SOL    HW267038   5.715   1.312   8.411
88381SOL     OW67039   6.300  14.443   3.908
88381SOL    HW167040   6.234  14.378   3.881
88381SOL    HW267041   6.378  14.421   3.858
88382SOL     OW67042  11.104   6.127   3.085
88382SOL    HW167043  11.057   6.135   3.169
88382SOL    HW267044  11.076   6.043   3.050
88383SOL     OW67045  14.448   3.353   0.896
88383SOL    HW167046  14.508   3.312   0.834
88383SOL    HW267047  14.370   3.372   0.845
88384SOL     OW67048  13.744   2.807   8.911
88384SOL    HW167049  13.715   2.887   8.868
88384SOL    HW267050  13.712   2.736   8.856
88385SOL     OW67051   3.390   3.794   2.357
88385SOL    HW167052   3.456   3.746   2.306
88385SOL    HW267053   3.310   3.744   2.343
88386SOL     OW67054  11.271  13.349   1.198
88386SOL    HW167055  11.308  13.382   1.117
88386SOL    HW267056  11.307  13.261   1.207
88387SOL     OW67057  10.200   6.786  13.455
88387SOL    HW167058  10.262   6.827  13.393
88387SOL    HW267059  10.124   6.764  13.401
88388SOL     OW67060   7.852   0.267   2.803
88388SOL    HW167061   7.762   0.298   2.812
88388SOL    HW267062   7.864   0.255   2.709
88389SOL     OW67063   4.898  11.127   8.077
88389SOL    HW167064   4.914  11.090   8.164
88389SOL    HW267065   4.805  11.110   8.061
88390SOL     OW67066  12.413   6.490   8.493
88390SOL    HW167067  12.487   6.527   8.444
88390SOL    HW267068  12.426   6.523   8.582
88391SOL     OW67069   8.356   1.479   3.918
88391SOL    HW167070   8.289   1.545   3.938
88391SOL    HW267071   8.319   1.431   3.844
88392SOL     OW67072  14.118   6.707   0.707
88392SOL    HW167073  14.158   6.765   0.772
88392SOL    HW267074  14.040   6.672   0.750
88393SOL     OW67075   7.185  12.417   4.528
88393SOL    HW167076   7.119  12.347   4.533
88393SOL    HW267077   7.249  12.385   4.465
88394SOL     OW67078   7.448   6.025   1.220
88394SOL    HW167079   7.376   6.080   1.250
88394SOL    HW267080   7.440   5.944   1.270
88395SOL     OW67081   6.635   6.744   9.894
88395SOL    HW167082   6.542   6.718   9.893
88395SOL    HW267083   6.671   6.704   9.815
88396SOL     OW67084  12.193   6.840  12.680
88396SOL    HW167085  12.149   6.881  12.755
88396SOL    HW267086  12.153   6.879  12.603
88397SOL     OW67087   3.201  10.184   5.041
88397SOL    HW167088   3.241  10.219   5.121
88397SOL    HW267089   3.273  10.143   4.994
88398SOL     OW67090  13.525   1.868   5.230
88398SOL    HW167091  13.586   1.869   5.157
88398SOL    HW267092  13.471   1.946   5.216
88399SOL     OW67093   5.340  11.451  14.274
88399SOL    HW167094   5.417  11.494  14.238
88399SOL    HW267095   5.374  11.396  14.345
88400SOL     OW67096   6.138   8.936   0.096
88400SOL    HW167097   6.068   8.888   0.140
88400SOL    HW267098   6.176   8.991   0.165
88401SOL     OW67099   7.236  13.231  12.834
88401SOL    HW167100   7.145  13.256  12.814
88401SOL    HW267101   7.253  13.157  12.777
88402SOL     OW67102   0.538  12.475  10.851
88402SOL    HW167103   0.542  12.535  10.926
88402SOL    HW267104   0.590  12.519  10.783
88403SOL     OW67105   2.163   5.676   7.664
88403SOL    HW167106   2.200   5.652   7.579
88403SOL    HW267107   2.107   5.602   7.687
88404SOL     OW67108  11.671   2.626   5.516
88404SOL    HW167109  11.602   2.684   5.549
88404SOL    HW267110  11.642   2.538   5.541
88405SOL     OW67111   5.529   0.221   9.827
88405SOL    HW167112   5.617   0.186   9.844
88405SOL    HW267113   5.528   0.306   9.870
88406SOL     OW67114   0.802  13.032  12.748
88406SOL    HW167115   0.802  13.118  12.789
88406SOL    HW267116   0.892  13.000  12.759
88407SOL     OW67117  10.078   7.496   0.449
88407SOL    HW167118  10.154   7.555   0.443
88407SOL    HW267119  10.006   7.554   0.474
88408SOL     OW67120   7.302  11.162  10.114
88408SOL    HW167121   7.322  11.069  10.123
88408SOL    HW267122   7.231  11.165  10.050
88409SOL     OW67123   5.455  13.370  13.054
88409SOL    HW167124   5.535  13.367  13.108
88409SOL    HW267125   5.437  13.278  13.034
88410SOL     OW67126   7.197   2.137   8.911
88410SOL    HW167127   7.190   2.215   8.965
88410SOL    HW267128   7.228   2.168   8.826
88411SOL     OW67129   9.885  13.018  10.471
88411SOL    HW167130   9.835  12.939  10.490
88411SOL    HW267131   9.822  13.089  10.480
88412SOL     OW67132   1.054   6.394   3.319
88412SOL    HW167133   1.108   6.361   3.392
88412SOL    HW267134   1.001   6.318   3.293
88413SOL     OW67135   0.653   3.398   2.986
88413SOL    HW167136   0.727   3.434   3.034
88413SOL    HW267137   0.588   3.379   3.052
88414SOL     OW67138   1.414  10.882   2.238
88414SOL    HW167139   1.453  10.914   2.319
88414SOL    HW267140   1.390  10.962   2.190
88415SOL     OW67141  12.147  14.385   2.703
88415SOL    HW167142  12.242  14.387   2.717
88415SOL    HW267143  12.126  14.472   2.668
88416SOL     OW67144  13.523   5.316   6.766
88416SOL    HW167145  13.608   5.352   6.742
88416SOL    HW267146  13.543   5.249   6.832
88417SOL     OW67147   6.664   1.341   6.000
88417SOL    HW167148   6.625   1.281   6.064
88417SOL    HW267149   6.588   1.383   5.958
88418SOL     OW67150   7.755   6.304  11.953
88418SOL    HW167151   7.706   6.259  12.022
88418SOL    HW267152   7.697   6.301  11.877
88419SOL     OW67153  11.126   1.434   7.135
88419SOL    HW167154  11.157   1.351   7.171
88419SOL    HW267155  11.178   1.447   7.055
88420SOL     OW67156   1.751   3.499  12.469
88420SOL    HW167157   1.757   3.457  12.554
88420SOL    HW267158   1.716   3.432  12.411
88421SOL     OW67159   2.769   5.289   6.172
88421SOL    HW167160   2.751   5.316   6.082
88421SOL    HW267161   2.815   5.364   6.211
88422SOL     OW67162   5.580  12.496   3.896
88422SOL    HW167163   5.523  12.421   3.915
88422SOL    HW267164   5.555  12.522   3.807
88423SOL     OW67165  14.641   5.445   0.618
88423SOL    HW167166  14.571   5.429   0.682
88423SOL    HW267167  14.608   5.407   0.537
88424SOL     OW67168   4.599   3.981  10.259
88424SOL    HW167169   4.510   3.950  10.242
88424SOL    HW267170   4.592   4.025  10.344
88425SOL     OW67171   0.374   4.929  10.967
88425SOL    HW167172   0.428   4.850  10.965
88425SOL    HW267173   0.423   4.992  10.913
88426SOL     OW67174   2.199   2.293   8.858
88426SOL    HW167175   2.217   2.309   8.765
88426SOL    HW267176   2.233   2.205   8.874
88427SOL     OW67177   5.380   3.119  14.135
88427SOL    HW167178   5.412   3.042  14.181
88427SOL    HW267179   5.395   3.100  14.042
88428SOL     OW67180   5.310  11.970   0.050
88428SOL    HW167181   5.258  11.988  14.853
88428SOL    HW267182   5.304  11.875   0.061
88429SOL     OW67183   8.606   4.747   3.614
88429SOL    HW167184   8.685   4.791   3.584
88429SOL    HW267185   8.576   4.697   3.539
88430SOL     OW67186   0.843   7.989   3.877
88430SOL    HW167187   0.878   8.037   3.952
88430SOL    HW267188   0.809   7.908   3.914
88431SOL     OW67189  11.032   7.035  11.061
88431SOL    HW167190  11.073   6.995  10.984
88431SOL    HW267191  11.031   6.965  11.127
88432SOL     OW67192  10.087  12.357   1.037
88432SOL    HW167193  10.080  12.450   1.059
88432SOL    HW267194  10.163  12.352   0.979
88433SOL     OW67195   4.377   7.598   0.222
88433SOL    HW167196   4.462   7.605   0.265
88433SOL    HW267197   4.340   7.686   0.229
88434SOL     OW67198  10.272   7.684  14.054
88434SOL    HW167199  10.204   7.627  14.017
88434SOL    HW267200  10.242   7.700  14.144
88435SOL     OW67201  13.624   8.283  12.164
88435SOL    HW167202  13.711   8.250  12.187
88435SOL    HW267203  13.573   8.274  12.244
88436SOL     OW67204  12.416  13.234   3.533
88436SOL    HW167205  12.480  13.289   3.488
88436SOL    HW267206  12.405  13.277   3.619
88437SOL     OW67207   0.622   4.443  11.338
88437SOL    HW167208   0.552   4.392  11.298
88437SOL    HW267209   0.674   4.379  11.386
88438SOL     OW67210  11.197  12.435   1.867
88438SOL    HW167211  11.162  12.451   1.955
88438SOL    HW267212  11.163  12.507   1.814
88439SOL     OW67213   9.485   9.371   1.104
88439SOL    HW167214   9.486   9.441   1.170
88439SOL    HW267215   9.396   9.371   1.070
88440SOL     OW67216  12.228   6.826  11.270
88440SOL    HW167217  12.304   6.849  11.324
88440SOL    HW267218  12.183   6.910  11.257
88441SOL     OW67219  13.007  10.629   3.585
88441SOL    HW167220  12.930  10.686   3.588
88441SOL    HW267221  12.973  10.545   3.554
88442SOL     OW67222   4.107   2.999   8.855
88442SOL    HW167223   4.036   2.939   8.833
88442SOL    HW267224   4.073   3.052   8.927
88443SOL     OW67225  12.155  11.403  10.570
88443SOL    HW167226  12.191  11.320  10.540
88443SOL    HW267227  12.209  11.470  10.527
88444SOL     OW67228   5.367   9.542   8.257
88444SOL    HW167229   5.276   9.524   8.233
88444SOL    HW267230   5.361   9.609   8.326
88445SOL     OW67231   9.726  10.901   9.625
88445SOL    HW167232   9.649  10.957   9.638
88445SOL    HW267233   9.801  10.960   9.636
88446SOL     OW67234   8.844   9.079  12.232
88446SOL    HW167235   8.910   9.137  12.270
88446SOL    HW267236   8.894   9.012  12.186
88447SOL     OW67237   5.931  10.033   5.520
88447SOL    HW167238   5.893   9.949   5.547
88447SOL    HW267239   6.019  10.032   5.558
88448SOL     OW67240  11.458  14.182  11.916
88448SOL    HW167241  11.463  14.094  11.880
88448SOL    HW267242  11.431  14.170  12.007
88449SOL     OW67243  14.504   4.007   5.904
88449SOL    HW167244  14.510   4.091   5.951
88449SOL    HW267245  14.555   3.947   5.957
88450SOL     OW67246  13.372   8.004  14.035
88450SOL    HW167247  13.326   7.920  14.036
88450SOL    HW267248  13.302   8.069  14.030
88451SOL     OW67249  12.088  12.104   7.820
88451SOL    HW167250  12.160  12.166   7.825
88451SOL    HW267251  12.120  12.026   7.865
88452SOL     OW67252   2.276  12.142   5.421
88452SOL    HW167253   2.275  12.055   5.381
88452SOL    HW267254   2.220  12.194   5.363
88453SOL     OW67255  12.785   6.878   3.151
88453SOL    HW167256  12.813   6.835   3.232
88453SOL    HW267257  12.859   6.934   3.127
88454SOL     OW67258   5.695  12.070  13.486
88454SOL    HW167259   5.726  11.994  13.536
88454SOL    HW267260   5.771  12.094  13.432
88455SOL     OW67261   7.763   8.005  10.638
88455SOL    HW167262   7.701   8.057  10.690
88455SOL    HW267263   7.781   7.928  10.692
88456SOL     OW67264   6.064  13.600  13.476
88456SOL    HW167265   6.045  13.611  13.570
88456SOL    HW267266   5.997  13.653  13.432
88457SOL     OW67267   5.240  13.007   2.682
88457SOL    HW167268   5.324  12.982   2.720
88457SOL    HW267269   5.235  12.959   2.599
88458SOL     OW67270  11.822   3.906  14.372
88458SOL    HW167271  11.823   3.922  14.278
88458SOL    HW267272  11.740   3.946  14.402
88459SOL     OW67273   0.555   6.250   2.274
88459SOL    HW167274   0.622   6.221   2.212
88459SOL    HW267275   0.545   6.344   2.257
88460SOL     OW67276   0.713   3.615   1.593
88460SOL    HW167277   0.675   3.528   1.583
88460SOL    HW267278   0.713   3.652   1.504
88461SOL     OW67279   7.805   1.337   1.694
88461SOL    HW167280   7.818   1.431   1.697
88461SOL    HW267281   7.803   1.311   1.786
88462SOL     OW67282   8.798   8.930   1.667
88462SOL    HW167283   8.769   8.859   1.610
88462SOL    HW267284   8.728   8.939   1.732
88463SOL     OW67285  11.016   1.458  10.949
88463SOL    HW167286  11.042   1.522  10.882
88463SOL    HW267287  10.936   1.495  10.986
88464SOL     OW67288   0.680  14.060   6.263
88464SOL    HW167289   0.717  13.974   6.241
88464SOL    HW267290   0.610  14.041   6.325
88465SOL     OW67291   2.827   8.365   4.242
88465SOL    HW167292   2.870   8.449   4.229
88465SOL    HW267293   2.809   8.334   4.153
88466SOL     OW67294   7.101   6.765   6.137
88466SOL    HW167295   7.158   6.723   6.073
88466SOL    HW267296   7.134   6.855   6.143
88467SOL     OW67297   9.241   9.245   9.262
88467SOL    HW167298   9.219   9.192   9.338
88467SOL    HW267299   9.312   9.197   9.219
88468SOL     OW67300   0.525   5.321   3.763
88468SOL    HW167301   0.476   5.396   3.797
88468SOL    HW267302   0.461   5.251   3.756
88469SOL     OW67303   7.137   6.050  12.427
88469SOL    HW167304   7.192   5.988  12.380
88469SOL    HW267305   7.077   6.085  12.361
88470SOL     OW67306   3.551   1.312  10.131
88470SOL    HW167307   3.506   1.233  10.163
88470SOL    HW267308   3.499   1.340  10.056
88471SOL     OW67309  10.936  11.980   4.177
88471SOL    HW167310  10.914  12.070   4.152
88471SOL    HW267311  11.004  11.954   4.115
88472SOL     OW67312  11.976   3.222   4.687
88472SOL    HW167313  11.991   3.138   4.644
88472SOL    HW267314  12.011   3.211   4.775
88473SOL     OW67315   3.008   1.657  12.756
88473SOL    HW167316   2.926   1.669  12.710
88473SOL    HW267317   3.012   1.563  12.774
88474SOL     OW67318   2.408  12.962   1.971
88474SOL    HW167319   2.398  12.906   1.893
88474SOL    HW267320   2.502  12.970   1.983
88475SOL     OW67321  12.987   8.118   5.491
88475SOL    HW167322  13.072   8.127   5.535
88475SOL    HW267323  12.943   8.202   5.507
88476SOL     OW67324   3.289   2.651   1.349
88476SOL    HW167325   3.355   2.645   1.418
88476SOL    HW267326   3.338   2.640   1.268
88477SOL     OW67327   0.878   9.436   6.455
88477SOL    HW167328   0.891   9.497   6.382
88477SOL    HW267329   0.818   9.483   6.514
88478SOL     OW67330   2.156   2.614  11.529
88478SOL    HW167331   2.224   2.650  11.472
88478SOL    HW267332   2.108   2.554  11.473
88479SOL     OW67333  13.315   4.528   3.864
88479SOL    HW167334  13.247   4.484   3.916
88479SOL    HW267335  13.367   4.576   3.928
88480SOL     OW67336  11.177   9.331  11.219
88480SOL    HW167337  11.088   9.299  11.203
88480SOL    HW267338  11.174   9.372  11.305
88481SOL     OW67339   9.503  10.691  13.490
88481SOL    HW167340   9.501  10.690  13.586
88481SOL    HW267341   9.418  10.656  13.464
88482SOL     OW67342  14.568  10.100   8.704
88482SOL    HW167343  14.645  10.050   8.677
88482SOL    HW267344  14.598  10.153   8.778
88483SOL     OW67345   9.030  13.255  12.588
88483SOL    HW167346   8.996  13.325  12.533
88483SOL    HW267347   8.964  13.245  12.657
88484SOL     OW67348   9.917   7.417   2.630
88484SOL    HW167349   9.953   7.461   2.707
88484SOL    HW267350   9.957   7.462   2.556
88485SOL     OW67351   8.681   3.912  11.905
88485SOL    HW167352   8.628   3.873  11.974
88485SOL    HW267353   8.676   4.007  11.921
88486SOL     OW67354   3.077   2.237  11.111
88486SOL    HW167355   3.153   2.208  11.161
88486SOL    HW267356   3.077   2.332  11.120
88487SOL     OW67357   8.284  10.026  10.996
88487SOL    HW167358   8.209  10.085  10.983
88487SOL    HW267359   8.280  10.002  11.088
88488SOL     OW67360   8.653   0.093   9.670
88488SOL    HW167361   8.704   0.137   9.738
88488SOL    HW267362   8.563   0.094   9.703
88489SOL     OW67363  11.903  13.501   5.025
88489SOL    HW167364  11.895  13.456   5.109
88489SOL    HW267365  11.860  13.442   4.963
88490SOL     OW67366  10.158  12.614   1.586
88490SOL    HW167367  10.182  12.652   1.670
88490SOL    HW267368  10.065  12.636   1.575
88491SOL     OW67369  12.715   3.046  10.155
88491SOL    HW167370  12.659   3.112  10.115
88491SOL    HW267371  12.794   3.093  10.180
88492SOL     OW67372   0.901   8.770   2.497
88492SOL    HW167373   0.872   8.679   2.505
88492SOL    HW267374   0.949   8.788   2.577
88493SOL     OW67375   5.881  14.165   9.079
88493SOL    HW167376   5.935  14.222   9.134
88493SOL    HW267377   5.801  14.215   9.063
88494SOL     OW67378   0.630   5.904   8.182
88494SOL    HW167379   0.651   5.975   8.243
88494SOL    HW267380   0.663   5.825   8.225
88495SOL     OW67381   3.958   6.881   5.670
88495SOL    HW167382   3.885   6.912   5.724
88495SOL    HW267383   3.966   6.788   5.692
88496SOL     OW67384  11.434   9.795   0.278
88496SOL    HW167385  11.472   9.740   0.209
88496SOL    HW267386  11.510   9.835   0.320
88497SOL     OW67387  12.722  10.093   9.905
88497SOL    HW167388  12.682  10.025   9.851
88497SOL    HW267389  12.649  10.149   9.931
88498SOL     OW67390   1.064  11.606   3.298
88498SOL    HW167391   1.158  11.603   3.283
88498SOL    HW267392   1.036  11.515   3.292
88499SOL     OW67393   9.309   8.441  10.897
88499SOL    HW167394   9.338   8.350  10.905
88499SOL    HW267395   9.260   8.458  10.978
88500SOL     OW67396   5.093   1.593   0.174
88500SOL    HW167397   5.126   1.606   0.085
88500SOL    HW267398   5.137   1.514   0.205
88501SOL     OW67399   2.864   5.690   5.903
88501SOL    HW167400   2.791   5.663   5.848
88501SOL    HW267401   2.867   5.625   5.973
88502SOL     OW67402  10.542   1.673   9.805
88502SOL    HW167403  10.565   1.622   9.727
88502SOL    HW267404  10.575   1.761   9.788
88503SOL     OW67405  13.857  10.805   5.619
88503SOL    HW167406  13.921  10.778   5.552
88503SOL    HW267407  13.904  10.868   5.673
88504SOL     OW67408   2.488   0.281   2.488
88504SOL    HW167409   2.520   0.248   2.404
88504SOL    HW267410   2.502   0.376   2.483
88505SOL     OW67411   8.989  14.489   9.433
88505SOL    HW167412   8.937  14.503   9.512
88505SOL    HW267413   9.007  14.395   9.432
88506SOL     OW67414   7.179  11.330   1.746
88506SOL    HW167415   7.132  11.246   1.740
88506SOL    HW267416   7.189  11.358   1.656
88507SOL     OW67417   1.364   1.655  12.011
88507SOL    HW167418   1.356   1.665  11.916
88507SOL    HW267419   1.418   1.729  12.039
88508SOL     OW67420  11.415   6.023   5.136
88508SOL    HW167421  11.499   6.066   5.127
88508SOL    HW267422  11.423   5.970   5.215
88509SOL     OW67423   9.763  13.620   2.100
88509SOL    HW167424   9.855  13.631   2.126
88509SOL    HW267425   9.733  13.544   2.149
88510SOL     OW67426   6.050   9.718   2.683
88510SOL    HW167427   5.969   9.749   2.642
88510SOL    HW267428   6.057   9.769   2.764
88511SOL     OW67429  13.847  13.001   9.753
88511SOL    HW167430  13.843  12.905   9.760
88511SOL    HW267431  13.762  13.030   9.786
88512SOL     OW67432   3.278   1.963   4.731
88512SOL    HW167433   3.209   1.967   4.798
88512SOL    HW267434   3.234   1.985   4.649
88513SOL     OW67435   9.025   7.043   0.955
88513SOL    HW167436   9.106   7.055   0.905
88513SOL    HW267437   9.055   7.029   1.045
88514SOL     OW67438  11.823  14.665   2.440
88514SOL    HW167439  11.875  14.673   2.360
88514SOL    HW267440  11.744  14.716   2.422
88515SOL     OW67441   3.303  12.124   6.067
88515SOL    HW167442   3.313  12.219   6.058
88515SOL    HW267443   3.383  12.088   6.029
88516SOL     OW67444   3.231   3.156   5.311
88516SOL    HW167445   3.142   3.184   5.332
88516SOL    HW267446   3.251   3.089   5.376
88517SOL     OW67447   3.136   9.398   5.664
88517SOL    HW167448   3.179   9.337   5.724
88517SOL    HW267449   3.043   9.373   5.667
88518SOL     OW67450  13.250   5.818   6.422
88518SOL    HW167451  13.295   5.881   6.365
88518SOL    HW267452  13.215   5.753   6.361
88519SOL     OW67453   1.407   8.573  12.309
88519SOL    HW167454   1.368   8.492  12.341
88519SOL    HW267455   1.346   8.642  12.336
88520SOL     OW67456   0.778  12.454  13.599
88520SOL    HW167457   0.762  12.445  13.505
88520SOL    HW267458   0.872  12.466  13.607
88521SOL     OW67459   6.392   7.538   8.818
88521SOL    HW167460   6.338   7.610   8.785
88521SOL    HW267461   6.333   7.462   8.820
88522SOL     OW67462   0.922   9.368  11.109
88522SOL    HW167463   1.009   9.333  11.131
88522SOL    HW267464   0.861   9.301  11.141
88523SOL     OW67465  10.808   6.171  10.052
88523SOL    HW167466  10.853   6.248  10.017
88523SOL    HW267467  10.846   6.097  10.005
88524SOL     OW67468   6.501  10.595   9.489
88524SOL    HW167469   6.502  10.526   9.555
88524SOL    HW267470   6.518  10.549   9.406
88525SOL     OW67471   3.168   8.892   2.335
88525SOL    HW167472   3.140   8.802   2.347
88525SOL    HW267473   3.088   8.939   2.313
88526SOL     OW67474   0.544   4.783  13.708
88526SOL    HW167475   0.584   4.771  13.794
88526SOL    HW267476   0.466   4.728  13.710
88527SOL     OW67477  12.426   7.964   1.979
88527SOL    HW167478  12.367   7.897   2.013
88527SOL    HW267479  12.436   8.026   2.052
88528SOL     OW67480   0.577  12.947   4.245
88528SOL    HW167481   0.624  12.879   4.196
88528SOL    HW267482   0.647  13.002   4.282
88529SOL     OW67483  14.811  11.721   3.267
88529SOL    HW167484  14.725  11.690   3.237
88529SOL    HW267485  14.822  11.805   3.223
88530SOL     OW67486   0.862   5.038   6.469
88530SOL    HW167487   0.846   5.130   6.491
88530SOL    HW267488   0.957   5.029   6.477
88531SOL     OW67489  11.910   5.897  13.636
88531SOL    HW167490  11.983   5.898  13.697
88531SOL    HW267491  11.862   5.817  13.656
88532SOL     OW67492   4.984   0.897   5.957
88532SOL    HW167493   5.021   0.928   5.874
88532SOL    HW267494   5.047   0.831   5.988
88533SOL     OW67495   8.673  14.235  10.771
88533SOL    HW167496   8.582  14.239  10.742
88533SOL    HW267497   8.704  14.150  10.739
88534SOL     OW67498   4.217   5.313  10.795
88534SOL    HW167499   4.202   5.381  10.860
88534SOL    HW267500   4.175   5.235  10.831
88535SOL     OW67501   4.938  14.822   1.977
88535SOL    HW167502   4.998  14.796   1.908
88535SOL    HW267503   4.944  14.751   2.041
88536SOL     OW67504   9.721   4.466   4.965
88536SOL    HW167505   9.722   4.510   4.880
88536SOL    HW267506   9.713   4.537   5.029
88537SOL     OW67507  14.755   6.118   0.044
88537SOL    HW167508  14.800   6.148   0.123
88537SOL    HW267509  14.729   6.199  14.881
88538SOL     OW67510  10.700  14.630   1.620
88538SOL    HW167511  10.661  14.620   1.706
88538SOL    HW267512  10.794  14.623   1.635
88539SOL     OW67513   9.953  12.145   4.852
88539SOL    HW167514   9.923  12.188   4.771
88539SOL    HW267515  10.032  12.098   4.826
88540SOL     OW67516  11.197  11.400   8.025
88540SOL    HW167517  11.124  11.448   7.985
88540SOL    HW267518  11.157  11.328   8.072
88541SOL     OW67519  13.392  10.291   4.268
88541SOL    HW167520  13.357  10.348   4.336
88541SOL    HW267521  13.407  10.207   4.311
88542SOL     OW67522   4.958   1.974   2.031
88542SOL    HW167523   5.050   1.955   2.050
88542SOL    HW267524   4.909   1.907   2.078
88543SOL     OW67525  10.546   3.024   1.864
88543SOL    HW167526  10.469   3.005   1.810
88543SOL    HW267527  10.568   3.115   1.842
88544SOL     OW67528   2.976   6.803   5.691
88544SOL    HW167529   2.993   6.777   5.781
88544SOL    HW267530   3.035   6.877   5.676
88545SOL     OW67531   0.107   9.402   6.144
88545SOL    HW167532   0.042   9.471   6.157
88545SOL    HW267533   0.117   9.362   6.230
88546SOL     OW67534   5.773  11.846  11.366
88546SOL    HW167535   5.816  11.848  11.452
88546SOL    HW267536   5.694  11.898  11.377
88547SOL     OW67537   8.761   5.421   0.510
88547SOL    HW167538   8.670   5.430   0.539
88547SOL    HW267539   8.806   5.497   0.546
88548SOL     OW67540  11.295   7.344   5.068
88548SOL    HW167541  11.254   7.428   5.048
88548SOL    HW267542  11.322   7.309   4.983
88549SOL     OW67543   9.372   9.785   2.615
88549SOL    HW167544   9.443   9.846   2.596
88549SOL    HW267545   9.415   9.699   2.620
88550SOL     OW67546   7.681   3.861   2.591
88550SOL    HW167547   7.595   3.902   2.584
88550SOL    HW267548   7.664   3.767   2.581
88551SOL     OW67549   1.869  10.026   0.977
88551SOL    HW167550   1.843  10.096   1.036
88551SOL    HW267551   1.879  10.068   0.892
88552SOL     OW67552   6.524  12.707   5.649
88552SOL    HW167553   6.490  12.785   5.693
88552SOL    HW267554   6.505  12.721   5.557
88553SOL     OW67555   7.341   7.349   5.992
88553SOL    HW167556   7.410   7.310   6.046
88553SOL    HW267557   7.344   7.300   5.910
88554SOL     OW67558   3.588   5.927   8.917
88554SOL    HW167559   3.632   5.848   8.888
88554SOL    HW267560   3.655   5.995   8.913
88555SOL     OW67561   5.361  12.831   0.685
88555SOL    HW167562   5.415  12.759   0.652
88555SOL    HW267563   5.332  12.877   0.606
88556SOL     OW67564  10.813   1.730   5.844
88556SOL    HW167565  10.733   1.783   5.852
88556SOL    HW267566  10.789   1.645   5.882
88557SOL     OW67567   9.161   6.743   3.879
88557SOL    HW167568   9.247   6.779   3.857
88557SOL    HW267569   9.109   6.753   3.799
88558SOL     OW67570  14.313  10.057  14.653
88558SOL    HW167571  14.350  10.145  14.652
88558SOL    HW267572  14.363  10.010  14.586
88559SOL     OW67573  14.764   2.771  12.846
88559SOL    HW167574  14.775   2.862  12.873
88559SOL    HW267575  14.688   2.740  12.895
88560SOL     OW67576   3.483   0.068  10.157
88560SOL    HW167577   3.546   0.021  10.211
88560SOL    HW267578   3.416   0.003  10.136
88561SOL     OW67579   9.783   7.760   4.128
88561SOL    HW167580   9.726   7.698   4.084
88561SOL    HW267581   9.752   7.846   4.099
88562SOL     OW67582  11.256  14.410  10.449
88562SOL    HW167583  11.334  14.424  10.395
88562SOL    HW267584  11.273  14.328  10.496
88563SOL     OW67585   7.471  12.585  10.804
88563SOL    HW167586   7.454  12.637  10.726
88563SOL    HW267587   7.529  12.515  10.775
88564SOL     OW67588   1.619  13.609   6.176
88564SOL    HW167589   1.680  13.567   6.237
88564SOL    HW267590   1.673  13.632   6.100
88565SOL     OW67591   4.004  14.051   0.672
88565SOL    HW167592   4.095  14.039   0.699
88565SOL    HW267593   4.004  14.030   0.579
88566SOL     OW67594   3.922   5.446  14.397
88566SOL    HW167595   3.858   5.375  14.408
88566SOL    HW267596   3.995   5.421  14.453
88567SOL     OW67597  13.799   2.236  13.014
88567SOL    HW167598  13.884   2.277  13.000
88567SOL    HW267599  13.788   2.237  13.109
88568SOL     OW67600   7.281  14.180  11.108
88568SOL    HW167601   7.336  14.258  11.102
88568SOL    HW267602   7.232  14.191  11.189
88569SOL     OW67603   7.433   1.615   1.586
88569SOL    HW167604   7.488   1.683   1.548
88569SOL    HW267605   7.347   1.656   1.595
88570SOL     OW67606   0.266   6.729  11.019
88570SOL    HW167607   0.300   6.641  11.035
88570SOL    HW267608   0.216   6.750  11.097
88571SOL     OW67609   5.266  10.791   5.735
88571SOL    HW167610   5.295  10.751   5.816
88571SOL    HW267611   5.306  10.738   5.666
88572SOL     OW67612  10.518   1.471   1.215
88572SOL    HW167613  10.566   1.390   1.234
88572SOL    HW267614  10.452   1.476   1.284
88573SOL     OW67615  11.092   3.369   7.192
88573SOL    HW167616  11.035   3.429   7.143
88573SOL    HW267617  11.112   3.415   7.273
88574SOL     OW67618  10.183   9.727  12.976
88574SOL    HW167619  10.277   9.710  12.987
88574SOL    HW267620  10.141   9.648  13.008
88575SOL     OW67621   2.237  14.233  12.339
88575SOL    HW167622   2.225  14.213  12.432
88575SOL    HW267623   2.148  14.247  12.306
88576SOL     OW67624   6.078  11.649   2.788
88576SOL    HW167625   6.056  11.560   2.761
88576SOL    HW267626   6.095  11.643   2.882
88577SOL     OW67627   2.233   9.248   6.274
88577SOL    HW167628   2.325   9.252   6.300
88577SOL    HW267629   2.230   9.179   6.207
88578SOL     OW67630   0.350   5.794   2.097
88578SOL    HW167631   0.363   5.876   2.049
88578SOL    HW267632   0.430   5.782   2.147
88579SOL     OW67633   4.066   7.706  10.647
88579SOL    HW167634   4.152   7.746  10.663
88579SOL    HW267635   4.065   7.628  10.703
88580SOL     OW67636   4.783   4.697   0.608
88580SOL    HW167637   4.695   4.659   0.603
88580SOL    HW267638   4.777   4.777   0.556
88581SOL     OW67639   8.624   2.529   9.459
88581SOL    HW167640   8.623   2.589   9.534
88581SOL    HW267641   8.713   2.494   9.458
88582SOL     OW67642  14.300   3.413   9.664
88582SOL    HW167643  14.241   3.439   9.593
88582SOL    HW267644  14.292   3.318   9.669
88583SOL     OW67645  10.935  11.385   8.194
88583SOL    HW167646  10.969  11.474   8.178
88583SOL    HW267647  10.861  11.377   8.134
88584SOL     OW67648  12.019   5.799   3.623
88584SOL    HW167649  12.010   5.738   3.696
88584SOL    HW267650  12.067   5.873   3.659
88585SOL     OW67651  10.171   0.165   4.838
88585SOL    HW167652  10.171   0.195   4.748
88585SOL    HW267653  10.104   0.096   4.841
88586SOL     OW67654   1.845  10.291   1.112
88586SOL    HW167655   1.914  10.350   1.085
88586SOL    HW267656   1.852  10.287   1.208
88587SOL     OW67657  12.710  13.489   9.824
88587SOL    HW167658  12.711  13.510   9.917
88587SOL    HW267659  12.769  13.553   9.784
88588SOL     OW67660   4.698   7.930  14.216
88588SOL    HW167661   4.736   7.964  14.135
88588SOL    HW267662   4.685   7.837  14.200
88589SOL     OW67663   1.258   5.953  12.530
88589SOL    HW167664   1.339   5.925  12.574
88589SOL    HW267665   1.282   6.035  12.486
88590SOL     OW67666   6.506   0.861  10.740
88590SOL    HW167667   6.500   0.768  10.764
88590SOL    HW267668   6.427   0.877  10.688
88591SOL     OW67669   0.065   5.678   7.733
88591SOL    HW167670   0.076   5.635   7.649
88591SOL    HW267671   0.026   5.611   7.789
88592SOL     OW67672   0.751  14.679   3.222
88592SOL    HW167673   0.781  14.633   3.301
88592SOL    HW267674   0.664  14.712   3.245
88593SOL     OW67675   4.378   9.263   1.669
88593SOL    HW167676   4.323   9.331   1.630
88593SOL    HW267677   4.393   9.293   1.759
88594SOL     OW67678  13.774   7.571   1.196
88594SOL    HW167679  13.823   7.511   1.139
88594SOL    HW267680  13.784   7.534   1.284
88595SOL     OW67681   9.886   0.460   5.678
88595SOL    HW167682   9.942   0.391   5.641
88595SOL    HW267683   9.869   0.433   5.767
88596SOL     OW67684   4.592   2.565   9.017
88596SOL    HW167685   4.679   2.607   9.016
88596SOL    HW267686   4.587   2.519   8.933
88597SOL     OW67687   8.455   7.691   6.263
88597SOL    HW167688   8.544   7.678   6.230
88597SOL    HW267689   8.460   7.772   6.313
88598SOL     OW67690  14.213  11.203  10.153
88598SOL    HW167691  14.159  11.273  10.114
88598SOL    HW267692  14.194  11.126  10.100
88599SOL     OW67693   5.848  11.995   9.930
88599SOL    HW167694   5.928  12.019   9.976
88599SOL    HW267695   5.794  12.074   9.931
88600SOL     OW67696  12.335   8.461  13.014
88600SOL    HW167697  12.278   8.452  12.938
88600SOL    HW267698  12.288   8.520  13.072
88601SOL     OW67699   9.057   7.365  13.361
88601SOL    HW167700   9.090   7.302  13.425
88601SOL    HW267701   9.132   7.385  13.305
88602SOL     OW67702   5.018  13.996   4.886
88602SOL    HW167703   5.056  14.000   4.798
88602SOL    HW267704   4.946  13.934   4.878
88603SOL     OW67705   5.838   4.645   9.482
88603SOL    HW167706   5.769   4.599   9.531
88603SOL    HW267707   5.834   4.735   9.514
88604SOL     OW67708   1.730   5.620   7.819
88604SOL    HW167709   1.674   5.664   7.884
88604SOL    HW267710   1.806   5.678   7.810
88605SOL     OW67711   3.582   2.429   4.074
88605SOL    HW167712   3.518   2.376   4.120
88605SOL    HW267713   3.659   2.373   4.068
88606SOL     OW67714   2.797  13.341   8.001
88606SOL    HW167715   2.865  13.305   7.944
88606SOL    HW267716   2.754  13.264   8.037
88607SOL     OW67717  11.808  13.695   4.866
88607SOL    HW167718  11.883  13.691   4.806
88607SOL    HW267719  11.837  13.647   4.944
88608SOL     OW67720   8.796   2.514   7.034
88608SOL    HW167721   8.869   2.453   7.047
88608SOL    HW267722   8.746   2.476   6.961
88609SOL     OW67723   2.555  11.516   3.720
88609SOL    HW167724   2.539  11.499   3.627
88609SOL    HW267725   2.502  11.452   3.766
88610SOL     OW67726  14.504   6.351  13.004
88610SOL    HW167727  14.568   6.328  12.936
88610SOL    HW267728  14.527   6.440  13.029
88611SOL     OW67729   9.555   4.906   4.463
88611SOL    HW167730   9.593   4.859   4.388
88611SOL    HW267731   9.479   4.952   4.426
88612SOL     OW67732  10.374   1.395  11.235
88612SOL    HW167733  10.369   1.316  11.289
88612SOL    HW267734  10.457   1.387  11.188
88613SOL     OW67735  11.712  11.275  10.651
88613SOL    HW167736  11.642  11.210  10.662
88613SOL    HW267737  11.684  11.349  10.703
88614SOL     OW67738   8.897   4.124   9.191
88614SOL    HW167739   8.824   4.098   9.135
88614SOL    HW267740   8.901   4.056   9.258
88615SOL     OW67741   0.003   8.053  14.704
88615SOL    HW167742   0.086   8.018  14.737
88615SOL    HW267743  14.827   8.053  14.780
88616SOL     OW67744   0.381   1.299   8.140
88616SOL    HW167745   0.312   1.359   8.113
88616SOL    HW267746   0.351   1.213   8.109
88617SOL     OW67747  14.530  13.364  13.571
88617SOL    HW167748  14.544  13.392  13.661
88617SOL    HW267749  14.609  13.392  13.525
88618SOL     OW67750   6.504   0.875  13.282
88618SOL    HW167751   6.474   0.874  13.191
88618SOL    HW267752   6.436   0.923  13.329
88619SOL     OW67753   1.684   4.368  11.029
88619SOL    HW167754   1.698   4.451  10.982
88619SOL    HW267755   1.685   4.301  10.961
88620SOL     OW67756   2.540   6.674  12.360
88620SOL    HW167757   2.492   6.745  12.317
88620SOL    HW267758   2.530   6.692  12.454
88621SOL     OW67759   0.122  12.131   8.873
88621SOL    HW167760   0.118  12.221   8.841
88621SOL    HW267761   0.096  12.137   8.965
88622SOL     OW67762  14.632   0.026   9.719
88622SOL    HW167763  14.661   0.074   9.797
88622SOL    HW267764  14.711  14.865   9.686
88623SOL     OW67765  10.799   9.257   8.534
88623SOL    HW167766  10.730   9.246   8.470
88623SOL    HW267767  10.879   9.267   8.482
88624SOL     OW67768  12.276   1.060  14.331
88624SOL    HW167769  12.353   1.104  14.369
88624SOL    HW267770  12.308   1.024  14.248
88625SOL     OW67771  10.269  14.762   7.964
88625SOL    HW167772  10.188  14.755   7.913
88625SOL    HW267773  10.296  14.671   7.978
88626SOL     OW67774  12.402   2.631  10.798
88626SOL    HW167775  12.459   2.652  10.872
88626SOL    HW267776  12.459   2.633  10.721
88627SOL     OW67777   0.639   1.878  12.675
88627SOL    HW167778   0.558   1.827  12.678
88627SOL    HW267779   0.707   1.813  12.655
88628SOL     OW67780   7.828   3.714   5.092
88628SOL    HW167781   7.924   3.711   5.082
88628SOL    HW267782   7.812   3.792   5.145
88629SOL     OW67783   6.549   6.389   7.937
88629SOL    HW167784   6.594   6.431   8.010
88629SOL    HW267785   6.487   6.328   7.979
88630SOL     OW67786   9.514   3.769   5.604
88630SOL    HW167787   9.447   3.822   5.561
88630SOL    HW267788   9.592   3.824   5.604
88631SOL     OW67789   9.710  14.392   3.490
88631SOL    HW167790   9.775  14.411   3.422
88631SOL    HW267791   9.746  14.431   3.569
88632SOL     OW67792   1.184   6.398   2.915
88632SOL    HW167793   1.276   6.423   2.918
88632SOL    HW267794   1.184   6.303   2.933
88633SOL     OW67795  13.233   7.764  11.330
88633SOL    HW167796  13.301   7.831  11.321
88633SOL    HW267797  13.192   7.759  11.244
88634SOL     OW67798   1.871   5.494   6.621
88634SOL    HW167799   1.854   5.541   6.539
88634SOL    HW267800   1.799   5.431   6.628
88635SOL     OW67801   9.353   5.647  11.306
88635SOL    HW167802   9.272   5.639  11.255
88635SOL    HW267803   9.384   5.556  11.316
88636SOL     OW67804  11.068   9.814   0.926
88636SOL    HW167805  11.127   9.841   0.997
88636SOL    HW267806  11.001   9.883   0.923
88637SOL     OW67807   9.719  10.799   9.000
88637SOL    HW167808   9.765  10.870   8.955
88637SOL    HW267809   9.641  10.840   9.037
88638SOL     OW67810  10.233   4.903   6.902
88638SOL    HW167811  10.221   4.990   6.863
88638SOL    HW267812  10.303   4.863   6.851
88639SOL     OW67813   7.847   3.736   1.616
88639SOL    HW167814   7.796   3.675   1.670
88639SOL    HW267815   7.938   3.717   1.639
88640SOL     OW67816  10.453  12.464   0.802
88640SOL    HW167817  10.478  12.429   0.716
88640SOL    HW267818  10.406  12.545   0.782
88641SOL     OW67819   3.820  13.391   7.349
88641SOL    HW167820   3.843  13.306   7.387
88641SOL    HW267821   3.737  13.375   7.304
88642SOL     OW67822  10.577   2.867  12.694
88642SOL    HW167823  10.596   2.852  12.786
88642SOL    HW267824  10.494   2.821  12.679
88643SOL     OW67825   3.182   9.158   5.401
88643SOL    HW167826   3.207   9.125   5.315
88643SOL    HW267827   3.120   9.229   5.382
88644SOL     OW67828   5.798   8.248   6.284
88644SOL    HW167829   5.777   8.272   6.374
88644SOL    HW267830   5.717   8.263   6.236
88645SOL     OW67831   2.189   2.332  12.986
88645SOL    HW167832   2.263   2.273  12.998
88645SOL    HW267833   2.140   2.325  13.067
88646SOL     OW67834   5.637  11.563  13.385
88646SOL    HW167835   5.591  11.560  13.300
88646SOL    HW267836   5.705  11.497  13.377
88647SOL     OW67837   3.412  11.278   8.833
88647SOL    HW167838   3.411  11.183   8.822
88647SOL    HW267839   3.346  11.295   8.900
88648SOL     OW67840   9.380   8.585   3.654
88648SOL    HW167841   9.331   8.582   3.571
88648SOL    HW267842   9.341   8.658   3.702
88649SOL     OW67843  12.607  13.349   3.350
88649SOL    HW167844  12.682  13.409   3.355
88649SOL    HW267845  12.636  13.280   3.290
88650SOL     OW67846  12.705   6.376  10.983
88650SOL    HW167847  12.750   6.392  11.066
88650SOL    HW267848  12.648   6.301  11.001
88651SOL     OW67849  11.732   6.783   3.692
88651SOL    HW167850  11.772   6.744   3.770
88651SOL    HW267851  11.664   6.841   3.727
88652SOL     OW67852   6.413  12.997  11.316
88652SOL    HW167853   6.361  12.932  11.270
88652SOL    HW267854   6.450  13.052  11.247
88653SOL     OW67855  13.039   5.343  13.933
88653SOL    HW167856  13.097   5.413  13.904
88653SOL    HW267857  13.020   5.293  13.854
88654SOL     OW67858  14.135   4.078   6.092
88654SOL    HW167859  14.087   3.995   6.098
88654SOL    HW267860  14.071   4.144   6.118
88655SOL     OW67861   3.964   3.176  11.124
88655SOL    HW167862   3.897   3.244  11.119
88655SOL    HW267863   4.032   3.204  11.063
88656SOL     OW67864  12.652   2.276   3.231
88656SOL    HW167865  12.726   2.241   3.280
88656SOL    HW267866  12.655   2.231   3.147
88657SOL     OW67867  14.366   3.829  11.576
88657SOL    HW167868  14.386   3.742  11.541
88657SOL    HW267869  14.309   3.813  11.651
88658SOL     OW67870   6.215  14.151   8.471
88658SOL    HW167871   6.125  14.125   8.490
88658SOL    HW267872   6.258  14.071   8.442
88659SOL     OW67873  13.602  14.495   4.701
88659SOL    HW167874  13.556  14.426   4.748
88659SOL    HW267875  13.621  14.457   4.615
88660SOL     OW67876   6.100   8.712   6.612
88660SOL    HW167877   6.055   8.764   6.679
88660SOL    HW267878   6.115   8.773   6.540
88661SOL     OW67879   6.025   1.673   6.080
88661SOL    HW167880   6.106   1.654   6.127
88661SOL    HW267881   5.978   1.589   6.078
88662SOL     OW67882  14.756  14.843  10.211
88662SOL    HW167883  14.755  14.822  10.305
88662SOL    HW267884  14.666  14.868  10.191
88663SOL     OW67885   2.782   9.543   5.680
88663SOL    HW167886   2.792   9.609   5.611
88663SOL    HW267887   2.697   9.563   5.720
88664SOL     OW67888   0.399   0.411   5.057
88664SOL    HW167889   0.355   0.485   5.099
88664SOL    HW267890   0.459   0.377   5.123
88665SOL     OW67891   1.869   1.396  14.000
88665SOL    HW167892   1.932   1.432  14.062
88665SOL    HW267893   1.913   1.318  13.965
88666SOL     OW67894  12.986  13.993   0.574
88666SOL    HW167895  12.948  14.078   0.552
88666SOL    HW267896  13.080  14.010   0.585
88667SOL     OW67897   7.062  14.792   1.303
88667SOL    HW167898   7.109  14.857   1.354
88667SOL    HW267899   7.125  14.764   1.236
88668SOL     OW67900   8.834  14.627   8.503
88668SOL    HW167901   8.870  14.697   8.558
88668SOL    HW267902   8.740  14.648   8.498
88669SOL     OW67903  10.695   5.296   8.657
88669SOL    HW167904  10.775   5.316   8.608
88669SOL    HW267905  10.723   5.230   8.721
88670SOL     OW67906   3.164   6.670   5.126
88670SOL    HW167907   3.122   6.754   5.106
88670SOL    HW267908   3.205   6.682   5.211
88671SOL     OW67909   3.498   5.878   6.748
88671SOL    HW167910   3.415   5.839   6.778
88671SOL    HW267911   3.563   5.810   6.763
88672SOL     OW67912  11.815  14.844   9.240
88672SOL    HW167913  11.788   0.015   9.165
88672SOL    HW267914  11.862   0.023   9.297
88673SOL     OW67915   4.445   8.329   4.621
88673SOL    HW167916   4.476   8.416   4.647
88673SOL    HW267917   4.505   8.302   4.551
88674SOL     OW67918   5.712   4.051  12.300
88674SOL    HW167919   5.685   4.079  12.213
88674SOL    HW267920   5.806   4.068  12.303
88675SOL     OW67921   0.585  13.865  12.638
88675SOL    HW167922   0.629  13.797  12.690
88675SOL    HW267923   0.595  13.836  12.547
88676SOL     OW67924   4.540  14.287   8.041
88676SOL    HW167925   4.534  14.317   7.951
88676SOL    HW267926   4.452  14.257   8.063
88677SOL     OW67927   6.373  14.184   1.460
88677SOL    HW167928   6.326  14.125   1.402
88677SOL    HW267929   6.334  14.270   1.445
88678SOL     OW67930   6.682  10.731  13.066
88678SOL    HW167931   6.616  10.671  13.101
88678SOL    HW267932   6.688  10.801  13.131
88679SOL     OW67933   5.591   7.139  12.671
88679SOL    HW167934   5.666   7.156  12.728
88679SOL    HW267935   5.515   7.158  12.726
88680SOL     OW67936  14.160   8.597   9.535
88680SOL    HW167937  14.195   8.508   9.525
88680SOL    HW267938  14.066   8.587   9.522
88681SOL     OW67939   7.739   3.346   3.802
88681SOL    HW167940   7.713   3.258   3.828
88681SOL    HW267941   7.835   3.344   3.802
88682SOL     OW67942   4.001   2.360   7.772
88682SOL    HW167943   4.046   2.445   7.770
88682SOL    HW267944   3.921   2.377   7.822
88683SOL     OW67945   0.046  10.138   8.002
88683SOL    HW167946   0.105  10.148   8.076
88683SOL    HW267947   0.049  10.222   7.957
88684SOL     OW67948   3.590  13.838   9.223
88684SOL    HW167949   3.537  13.782   9.279
88684SOL    HW267950   3.638  13.778   9.166
88685SOL     OW67951   9.372   4.073  14.411
88685SOL    HW167952   9.337   4.087  14.323
88685SOL    HW267953   9.323   4.134  14.467
88686SOL     OW67954  13.979   2.194   0.278
88686SOL    HW167955  14.056   2.196   0.221
88686SOL    HW267956  13.909   2.230   0.223
88687SOL     OW67957   4.949   4.977   8.342
88687SOL    HW167958   4.921   4.965   8.251
88687SOL    HW267959   4.905   4.907   8.391
88688SOL     OW67960   9.872  14.871   1.674
88688SOL    HW167961   9.846  14.781   1.693
88688SOL    HW267962   9.965  14.875   1.697
88689SOL     OW67963  12.155   8.683   3.070
88689SOL    HW167964  12.227   8.673   3.007
88689SOL    HW267965  12.116   8.596   3.077
88690SOL     OW67966  14.459  11.529   1.400
88690SOL    HW167967  14.526  11.515   1.333
88690SOL    HW267968  14.451  11.624   1.406
88691SOL     OW67969  12.561  11.621   7.574
88691SOL    HW167970  12.593  11.710   7.586
88691SOL    HW267971  12.634  11.565   7.601
88692SOL     OW67972   2.942  11.169   3.494
88692SOL    HW167973   2.968  11.198   3.581
88692SOL    HW267974   2.864  11.221   3.474
88693SOL     OW67975   7.584   7.699  13.423
88693SOL    HW167976   7.676   7.713  13.400
88693SOL    HW267977   7.544   7.786  13.415
88694SOL     OW67978  13.824  14.319   0.396
88694SOL    HW167979  13.855  14.230   0.383
88694SOL    HW267980  13.874  14.371   0.333
88695SOL     OW67981   6.474   9.613   8.539
88695SOL    HW167982   6.386   9.578   8.551
88695SOL    HW267983   6.459   9.705   8.515
88696SOL     OW67984   4.923  13.683   5.704
88696SOL    HW167985   4.969  13.710   5.625
88696SOL    HW267986   4.991  13.677   5.771
88697SOL     OW67987  10.533   0.917   5.030
88697SOL    HW167988  10.489   0.933   5.114
88697SOL    HW267989  10.526   0.822   5.018
88698SOL     OW67990  14.190   6.162  13.625
88698SOL    HW167991  14.187   6.166  13.529
88698SOL    HW267992  14.233   6.243  13.651
88699SOL     OW67993  14.790  13.899  14.364
88699SOL    HW167994  14.766  13.807  14.360
88699SOL    HW267995  14.877  13.899  14.405
88700SOL     OW67996  13.457   1.748   2.951
88700SOL    HW167997  13.389   1.729   3.016
88700SOL    HW267998  13.460   1.844   2.947
88701SOL     OW67999   7.178   2.380   2.868
88701SOL    HW168000   7.086   2.401   2.887
88701SOL    HW268001   7.188   2.290   2.897
88702SOL     OW68002  13.755   6.712  12.534
88702SOL    HW168003  13.783   6.798  12.565
88702SOL    HW268004  13.659   6.717  12.534
88703SOL     OW68005   9.465  11.841   2.876
88703SOL    HW168006   9.494  11.901   2.808
88703SOL    HW268007   9.408  11.779   2.831
88704SOL     OW68008   7.773   7.691   2.915
88704SOL    HW168009   7.746   7.776   2.948
88704SOL    HW268010   7.858   7.675   2.957
88705SOL     OW68011   9.585  10.910   5.666
88705SOL    HW168012   9.518  10.961   5.620
88705SOL    HW268013   9.541  10.880   5.746
88706SOL     OW68014   5.593   4.300   5.685
88706SOL    HW168015   5.609   4.237   5.614
88706SOL    HW268016   5.498   4.296   5.698
88707SOL     OW68017  14.500   9.660  14.073
88707SOL    HW168018  14.425   9.631  14.125
88707SOL    HW268019  14.473   9.647  13.982
88708SOL     OW68020  10.780   4.205  14.779
88708SOL    HW168021  10.781   4.125  14.726
88708SOL    HW268022  10.695   4.202  14.823
88709SOL     OW68023   6.647   5.900   0.160
88709SOL    HW168024   6.728   5.913   0.210
88709SOL    HW268025   6.624   5.808   0.174
88710SOL     OW68026   3.556  12.789   9.587
88710SOL    HW168027   3.534  12.746   9.505
88710SOL    HW268028   3.474  12.794   9.635
88711SOL     OW68029  14.856   2.722   9.855
88711SOL    HW168030  14.846   2.784   9.928
88711SOL    HW268031   0.044   2.664   9.883
88712SOL     OW68032  12.604   7.367   4.340
88712SOL    HW168033  12.662   7.298   4.371
88712SOL    HW268034  12.632   7.445   4.389
88713SOL     OW68035   8.442   7.047   2.644
88713SOL    HW168036   8.371   7.019   2.586
88713SOL    HW268037   8.404   7.041   2.732
88714SOL     OW68038   7.198  12.562  12.288
88714SOL    HW168039   7.256  12.633  12.315
88714SOL    HW268040   7.150  12.598  12.214
88715SOL     OW68041  14.368   4.706   2.802
88715SOL    HW168042  14.410   4.769   2.743
88715SOL    HW268043  14.425   4.629   2.799
88716SOL     OW68044   6.518   8.080   0.375
88716SOL    HW168045   6.471   8.049   0.452
88716SOL    HW268046   6.596   8.123   0.410
88717SOL     OW68047   8.922   4.041   6.703
88717SOL    HW168048   8.960   4.103   6.765
88717SOL    HW268049   8.868   3.983   6.757
88718SOL     OW68050  14.574  14.783   0.490
88718SOL    HW168051  14.544  14.860   0.539
88718SOL    HW268052  14.667  14.775   0.511
88719SOL     OW68053  13.624   8.753   4.845
88719SOL    HW168054  13.686   8.717   4.909
88719SOL    HW268055  13.571   8.814   4.896
88720SOL     OW68056   8.040   2.886  13.823
88720SOL    HW168057   8.046   2.848  13.911
88720SOL    HW268058   8.045   2.810  13.765
88721SOL     OW68059   5.170  11.515   5.014
88721SOL    HW168060   5.212  11.512   4.928
88721SOL    HW268061   5.211  11.444   5.063
88722SOL     OW68062  13.182   9.245   1.108
88722SOL    HW168063  13.132   9.194   1.172
88722SOL    HW268064  13.263   9.195   1.096
88723SOL     OW68065  14.430   5.010   2.774
88723SOL    HW168066  14.361   5.029   2.837
88723SOL    HW268067  14.444   5.094   2.729
88724SOL     OW68068  14.457   1.422   3.091
88724SOL    HW168069  14.521   1.374   3.145
88724SOL    HW268070  14.375   1.413   3.139
88725SOL     OW68071  10.077  13.911   0.888
88725SOL    HW168072  10.043  13.923   0.976
88725SOL    HW268073  10.128  13.830   0.892
88726SOL     OW68074   1.444   8.297   2.226
88726SOL    HW168075   1.446   8.246   2.145
88726SOL    HW268076   1.534   8.327   2.239
88727SOL     OW68077  12.551  13.857   4.807
88727SOL    HW168078  12.475  13.803   4.830
88727SOL    HW268079  12.516  13.924   4.749
88728SOL     OW68080   3.197   0.407   5.071
88728SOL    HW168081   3.172   0.392   5.162
88728SOL    HW268082   3.256   0.334   5.050
88729SOL     OW68083   6.785   7.530  14.104
88729SOL    HW168084   6.772   7.562  14.014
88729SOL    HW268085   6.715   7.465  14.116
88730SOL     OW68086  12.123  10.257   6.584
88730SOL    HW168087  12.050  10.196   6.597
88730SOL    HW268088  12.145  10.288   6.672
88731SOL     OW68089   4.159   7.736  10.177
88731SOL    HW168090   4.137   7.729  10.083
88731SOL    HW268091   4.242   7.783  10.179
88732SOL     OW68092   1.369  12.052  13.951
88732SOL    HW168093   1.410  12.138  13.962
88732SOL    HW268094   1.295  12.069  13.892
88733SOL     OW68095  14.276   3.466   9.948
88733SOL    HW168096  14.231   3.541   9.910
88733SOL    HW268097  14.273   3.399   9.880
88734SOL     OW68098   8.286   9.875  10.165
88734SOL    HW168099   8.368   9.875  10.116
88734SOL    HW268100   8.237   9.950  10.131
88735SOL     OW68101  10.919  10.402   3.978
88735SOL    HW168102  10.973  10.427   4.053
88735SOL    HW268103  10.884  10.316   4.002
88736SOL     OW68104   9.870  10.966   2.011
88736SOL    HW168105   9.815  10.948   1.935
88736SOL    HW268106   9.956  10.985   1.974
88737SOL     OW68107   2.329   4.507  13.683
88737SOL    HW168108   2.243   4.516  13.643
88737SOL    HW268109   2.344   4.412  13.687
88738SOL     OW68110   4.318   8.244   4.943
88738SOL    HW168111   4.306   8.179   5.012
88738SOL    HW268112   4.390   8.299   4.975
88739SOL     OW68113  14.776   4.645  14.796
88739SOL    HW168114  14.836   4.582  14.836
88739SOL    HW268115  14.830   4.694  14.734
88740SOL     OW68116  13.821  13.722   2.000
88740SOL    HW168117  13.885  13.654   1.977
88740SOL    HW268118  13.848  13.798   1.948
88741SOL     OW68119   1.605  13.567   8.369
88741SOL    HW168120   1.549  13.495   8.397
88741SOL    HW268121   1.565  13.598   8.288
88742SOL     OW68122   1.060   2.732   1.066
88742SOL    HW168123   1.042   2.776   0.983
88742SOL    HW268124   1.071   2.804   1.129
88743SOL     OW68125   5.330   6.124  13.128
88743SOL    HW168126   5.350   6.060  13.196
88743SOL    HW268127   5.238   6.108  13.106
88744SOL     OW68128  11.301  11.913   4.280
88744SOL    HW168129  11.262  11.975   4.341
88744SOL    HW268130  11.240  11.910   4.206
88745SOL     OW68131  12.511   8.022   7.567
88745SOL    HW168132  12.467   8.018   7.652
88745SOL    HW268133  12.543   8.111   7.560
88746SOL     OW68134   4.859   5.679   6.120
88746SOL    HW168135   4.767   5.704   6.120
88746SOL    HW268136   4.860   5.592   6.080
88747SOL     OW68137   5.510   3.865   3.176
88747SOL    HW168138   5.569   3.846   3.104
88747SOL    HW268139   5.552   3.936   3.225
88748SOL     OW68140  10.098  11.118   3.265
88748SOL    HW168141  10.148  11.051   3.311
88748SOL    HW268142  10.122  11.107   3.173
88749SOL     OW68143   0.269  14.780   3.133
88749SOL    HW168144   0.278  14.699   3.083
88749SOL    HW268145   0.184  14.815   3.106
88750SOL     OW68146   0.270   0.121   8.555
88750SOL    HW168147   0.315   0.175   8.489
88750SOL    HW268148   0.323   0.041   8.560
88751SOL     OW68149   5.348   1.508   6.930
88751SOL    HW168150   5.324   1.509   7.023
88751SOL    HW268151   5.324   1.594   6.897
88752SOL     OW68152   5.083   0.019   0.234
88752SOL    HW168153   5.169  14.866   0.211
88752SOL    HW268154   5.088   0.038   0.327
88753SOL     OW68155   4.100  10.451   5.709
88753SOL    HW168156   4.057  10.383   5.658
88753SOL    HW268157   4.104  10.415   5.798
88754SOL     OW68158   9.089   3.797  14.311
88754SOL    HW168159   9.067   3.887  14.288
88754SOL    HW268160   9.090   3.750  14.227
88755SOL     OW68161   5.984   7.843   1.718
88755SOL    HW168162   5.894   7.814   1.727
88755SOL    HW268163   6.036   7.762   1.719
88756SOL     OW68164   9.243   1.687   7.002
88756SOL    HW168165   9.216   1.755   6.940
88756SOL    HW268166   9.162   1.640   7.023
88757SOL     OW68167   4.106   4.184   8.051
88757SOL    HW168168   4.101   4.253   7.986
88757SOL    HW268169   4.057   4.217   8.126
88758SOL     OW68170   3.800   7.148   1.809
88758SOL    HW168171   3.868   7.161   1.743
88758SOL    HW268172   3.740   7.221   1.796
88759SOL     OW68173   5.663   7.389   7.041
88759SOL    HW168174   5.645   7.316   6.983
88759SOL    HW268175   5.683   7.348   7.126
88760SOL     OW68176  10.351  13.041   5.065
88760SOL    HW168177  10.306  13.118   5.031
88760SOL    HW268178  10.374  12.990   4.988
88761SOL     OW68179  12.505  10.297   0.426
88761SOL    HW168180  12.581  10.354   0.442
88761SOL    HW268181  12.539  10.228   0.370
88762SOL     OW68182   9.506   2.257   5.822
88762SOL    HW168183   9.448   2.329   5.798
88762SOL    HW268184   9.530   2.216   5.738
88763SOL     OW68185  14.428   3.095  12.756
88763SOL    HW168186  14.367   3.119  12.686
88763SOL    HW268187  14.392   3.014  12.793
88764SOL     OW68188  13.177   8.046   4.515
88764SOL    HW168189  13.131   8.091   4.586
88764SOL    HW268190  13.244   7.994   4.560
88765SOL     OW68191   1.749   1.089   2.136
88765SOL    HW168192   1.842   1.106   2.121
88765SOL    HW268193   1.732   1.007   2.090
88766SOL     OW68194  10.604   1.668  10.066
88766SOL    HW168195  10.549   1.654   9.989
88766SOL    HW268196  10.690   1.691  10.030
88767SOL     OW68197   8.251   0.099   6.089
88767SOL    HW168198   8.232   0.013   6.126
88767SOL    HW268199   8.207   0.161   6.147
88768SOL     OW68200  10.622  10.191   4.370
88768SOL    HW168201  10.556  10.219   4.433
88768SOL    HW268202  10.600  10.239   4.290
88769SOL     OW68203   1.630   9.991   0.288
88769SOL    HW168204   1.600  10.080   0.271
88769SOL    HW268205   1.712  10.003   0.337
88770SOL     OW68206  14.343   0.093   2.273
88770SOL    HW168207  14.313   0.123   2.358
88770SOL    HW268208  14.316   0.002   2.268
88771SOL     OW68209   0.823   6.307   9.272
88771SOL    HW168210   0.820   6.213   9.260
88771SOL    HW268211   0.837   6.319   9.366
88772SOL     OW68212   2.404  10.354   3.068
88772SOL    HW168213   2.415  10.402   2.986
88772SOL    HW268214   2.323  10.304   3.056
88773SOL     OW68215   4.619   3.328  10.548
88773SOL    HW168216   4.597   3.343  10.456
88773SOL    HW268217   4.581   3.403  10.594
88774SOL     OW68218  13.836   5.800   0.996
88774SOL    HW168219  13.896   5.873   1.004
88774SOL    HW268220  13.752   5.834   1.027
88775SOL     OW68221   9.991   4.385  11.489
88775SOL    HW168222   9.968   4.292  11.490
88775SOL    HW268223   9.987   4.411  11.581
88776SOL     OW68224   3.171   6.828   0.191
88776SOL    HW168225   3.194   6.754   0.247
88776SOL    HW268226   3.134   6.893   0.250
88777SOL     OW68227  10.310  12.892  11.135
88777SOL    HW168228  10.385  12.917  11.080
88777SOL    HW268229  10.339  12.812  11.179
88778SOL     OW68230   4.054   1.429  14.186
88778SOL    HW168231   4.017   1.352  14.142
88778SOL    HW268232   3.979   1.475  14.222
88779SOL     OW68233   2.111   1.088  13.268
88779SOL    HW168234   2.108   1.109  13.362
88779SOL    HW268235   2.111   1.174  13.225
88780SOL     OW68236   2.973   4.571   2.072
88780SOL    HW168237   2.910   4.640   2.092
88780SOL    HW268238   2.933   4.491   2.107
88781SOL     OW68239   4.468   5.365   9.881
88781SOL    HW168240   4.505   5.391   9.965
88781SOL    HW268241   4.440   5.447   9.840
88782SOL     OW68242   1.547   4.497  12.163
88782SOL    HW168243   1.460   4.468  12.188
88782SOL    HW268244   1.575   4.554  12.234
88783SOL     OW68245  14.790  13.897  11.775
88783SOL    HW168246  14.700  13.881  11.804
88783SOL    HW268247  14.842  13.833  11.822
88784SOL     OW68248  10.431  13.269   6.874
88784SOL    HW168249  10.355  13.322   6.896
88784SOL    HW268250  10.484  13.325   6.816
88785SOL     OW68251   0.836  10.160   1.338
88785SOL    HW168252   0.887  10.080   1.328
88785SOL    HW268253   0.779  10.144   1.412
88786SOL     OW68254   0.552   9.653   3.474
88786SOL    HW168255   0.585   9.736   3.439
88786SOL    HW268256   0.457   9.666   3.479
88787SOL     OW68257   1.192   1.509   6.430
88787SOL    HW168258   1.110   1.557   6.422
88787SOL    HW268259   1.178   1.429   6.378
88788SOL     OW68260  14.160   7.439   4.309
88788SOL    HW168261  14.141   7.530   4.333
88788SOL    HW268262  14.159   7.438   4.213
88789SOL     OW68263  13.576   2.569   6.029
88789SOL    HW168264  13.656   2.568   5.976
88789SOL    HW268265  13.521   2.501   5.992
88790SOL     OW68266   5.732   9.875  12.693
88790SOL    HW168267   5.671   9.916  12.631
88790SOL    HW268268   5.710   9.913  12.778
88791SOL     OW68269   4.501   6.143   6.178
88791SOL    HW168270   4.469   6.055   6.199
88791SOL    HW268271   4.430   6.183   6.127
88792SOL     OW68272   3.500   2.292   0.369
88792SOL    HW168273   3.477   2.295   0.462
88792SOL    HW268274   3.545   2.374   0.353
88793SOL     OW68275   3.210   1.083   3.810
88793SOL    HW168276   3.287   1.069   3.754
88793SOL    HW268277   3.186   1.174   3.795
88794SOL     OW68278   4.700   9.543   5.841
88794SOL    HW168279   4.685   9.629   5.803
88794SOL    HW268280   4.615   9.500   5.840
88795SOL     OW68281   0.056   7.562   5.821
88795SOL    HW168282   0.080   7.536   5.732
88795SOL    HW268283   0.117   7.514   5.877
88796SOL     OW68284  11.355   0.078  11.015
88796SOL    HW168285  11.282   0.140  11.003
88796SOL    HW268286  11.316  14.874  11.001
88797SOL     OW68287   7.421   3.358   0.626
88797SOL    HW168288   7.474   3.340   0.704
88797SOL    HW268289   7.443   3.448   0.602
88798SOL     OW68290   3.025   6.393  13.524
88798SOL    HW168291   3.120   6.403  13.526
88798SOL    HW268292   3.006   6.322  13.585
88799SOL     OW68293   5.506  13.300   8.314
88799SOL    HW168294   5.575  13.311   8.248
88799SOL    HW268295   5.439  13.364   8.289
88800SOL     OW68296   6.277  11.717  10.848
88800SOL    HW168297   6.305  11.750  10.763
88800SOL    HW268298   6.182  11.710  10.840
88801SOL     OW68299  12.691  11.399  12.201
88801SOL    HW168300  12.779  11.435  12.211
88801SOL    HW268301  12.690  11.321  12.256
88802SOL     OW68302   4.320   9.675   0.970
88802SOL    HW168303   4.374   9.597   0.955
88802SOL    HW268304   4.282   9.695   0.884
88803SOL     OW68305   9.418  11.377   7.458
88803SOL    HW168306   9.396  11.368   7.551
88803SOL    HW268307   9.479  11.450   7.455
88804SOL     OW68308   0.310   5.962  13.496
88804SOL    HW168309   0.302   5.875  13.455
88804SOL    HW268310   0.383   5.952  13.557
88805SOL     OW68311   5.013   6.982  10.819
88805SOL    HW168312   4.920   6.971  10.800
88805SOL    HW268313   5.050   7.015  10.737
88806SOL     OW68314  10.962   7.145  10.599
88806SOL    HW168315  10.942   7.229  10.558
88806SOL    HW268316  10.885   7.091  10.584
88807SOL     OW68317  14.339   3.012  13.482
88807SOL    HW168318  14.411   3.060  13.523
88807SOL    HW268319  14.373   2.923  13.471
88808SOL     OW68320  13.271  13.736   2.008
88808SOL    HW168321  13.353  13.687   2.012
88808SOL    HW268322  13.298  13.827   1.996
88809SOL     OW68323   5.274  10.869   4.730
88809SOL    HW168324   5.344  10.900   4.672
88809SOL    HW268325   5.268  10.775   4.713
88810SOL     OW68326   1.408   9.093   4.428
88810SOL    HW168327   1.356   9.132   4.358
88810SOL    HW268328   1.491   9.070   4.386
88811SOL     OW68329   5.793   9.736  11.255
88811SOL    HW168330   5.759   9.690  11.332
88811SOL    HW268331   5.717   9.747  11.198
88812SOL     OW68332   3.929   3.921   7.850
88812SOL    HW168333   4.000   3.932   7.787
88812SOL    HW268334   3.872   3.856   7.810
88813SOL     OW68335   0.264   8.632   4.028
88813SOL    HW168336   0.244   8.547   4.065
88813SOL    HW268337   0.185   8.657   3.980
88814SOL     OW68338  14.667  10.233   5.723
88814SOL    HW168339  14.576  10.207   5.706
88814SOL    HW268340  14.716  10.199   5.648
88815SOL     OW68341   8.915   4.746   6.250
88815SOL    HW168342   8.954   4.743   6.337
88815SOL    HW268343   8.825   4.717   6.263
88816SOL     OW68344   1.757   8.983  11.103
88816SOL    HW168345   1.735   9.069  11.066
88816SOL    HW268346   1.672   8.941  11.115
88817SOL     OW68347   6.911  13.580   1.487
88817SOL    HW168348   6.943  13.496   1.522
88817SOL    HW268349   6.911  13.568   1.392
88818SOL     OW68350   0.338  13.984   0.654
88818SOL    HW168351   0.292  14.066   0.637
88818SOL    HW268352   0.270  13.923   0.680
88819SOL     OW68353   6.923  10.635  14.036
88819SOL    HW168354   6.971  10.707  14.076
88819SOL    HW268355   6.837  10.636  14.078
88820SOL     OW68356   9.346   6.488   9.977
88820SOL    HW168357   9.273   6.539   9.942
88820SOL    HW268358   9.395   6.459   9.901
88821SOL     OW68359   6.000   8.749  14.472
88821SOL    HW168360   6.059   8.795  14.413
88821SOL    HW268361   6.057   8.690  14.522
88822SOL     OW68362   2.717   0.764  13.278
88822SOL    HW168363   2.804   0.726  13.266
88822SOL    HW268364   2.714   0.839  13.219
88823SOL     OW68365  11.393  10.301   8.400
88823SOL    HW168366  11.338  10.308   8.478
88823SOL    HW268367  11.334  10.268   8.332
88824SOL     OW68368  14.734   8.705   4.803
88824SOL    HW168369  14.790   8.673   4.733
88824SOL    HW268370  14.685   8.777   4.764
88825SOL     OW68371  14.652  13.532   7.740
88825SOL    HW168372  14.564  13.507   7.769
88825SOL    HW268373  14.698  13.449   7.731
88826SOL     OW68374   7.412  12.524  12.894
88826SOL    HW168375   7.488  12.491  12.942
88826SOL    HW268376   7.360  12.569  12.960
88827SOL     OW68377   6.211   8.672  10.413
88827SOL    HW168378   6.306   8.679  10.420
88827SOL    HW268379   6.178   8.752  10.453
88828SOL     OW68380   8.372   8.413   4.006
88828SOL    HW168381   8.423   8.446   4.080
88828SOL    HW268382   8.368   8.318   4.021
88829SOL     OW68383   6.627   6.555   8.169
88829SOL    HW168384   6.687   6.490   8.207
88829SOL    HW268385   6.606   6.613   8.241
88830SOL     OW68386   5.143   3.544   5.889
88830SOL    HW168387   5.132   3.636   5.913
88830SOL    HW268388   5.058   3.504   5.904
88831SOL     OW68389  13.494   5.421   9.091
88831SOL    HW168390  13.555   5.481   9.049
88831SOL    HW268391  13.416   5.473   9.108
88832SOL     OW68392   1.973   8.630   5.310
88832SOL    HW168393   1.961   8.621   5.404
88832SOL    HW268394   2.048   8.573   5.289
88833SOL     OW68395   6.621   5.285  10.158
88833SOL    HW168396   6.539   5.236  10.151
88833SOL    HW268397   6.596   5.376  10.144
88834SOL     OW68398   7.986  11.158  14.310
88834SOL    HW168399   7.906  11.199  14.279
88834SOL    HW268400   7.976  11.065  14.287
88835SOL     OW68401   3.220   1.087   9.369
88835SOL    HW168402   3.254   1.006   9.408
88835SOL    HW268403   3.271   1.099   9.289
88836SOL     OW68404   0.400   9.565  14.359
88836SOL    HW168405   0.452   9.561  14.439
88836SOL    HW268406   0.318   9.607  14.385
88837SOL     OW68407  10.624  13.029  10.577
88837SOL    HW168408  10.587  13.114  10.552
88837SOL    HW268409  10.548  12.971  10.583
88838SOL     OW68410  12.404   8.549   2.669
88838SOL    HW168411  12.400   8.555   2.573
88838SOL    HW268412  12.390   8.456   2.688
88839SOL     OW68413   0.206   3.489  12.657
88839SOL    HW168414   0.247   3.566  12.617
88839SOL    HW268415   0.191   3.429  12.584
88840SOL     OW68416   1.163   0.566   9.746
88840SOL    HW168417   1.115   0.594   9.669
88840SOL    HW268418   1.211   0.643   9.775
88841SOL     OW68419   4.003  10.802   3.853
88841SOL    HW168420   3.937  10.845   3.799
88841SOL    HW268421   4.062  10.760   3.791
88842SOL     OW68422   8.292  11.780   5.345
88842SOL    HW168423   8.261  11.808   5.259
88842SOL    HW268424   8.384  11.758   5.332
88843SOL     OW68425   8.970   1.461   9.941
88843SOL    HW168426   8.877   1.445   9.923
88843SOL    HW268427   8.972   1.495  10.030
88844SOL     OW68428  13.984  10.404   0.078
88844SOL    HW168429  14.064  10.355   0.056
88844SOL    HW268430  14.013  10.470   0.141
88845SOL     OW68431   3.939   3.967  13.602
88845SOL    HW168432   3.939   3.904  13.530
88845SOL    HW268433   3.957   3.914  13.680
88846SOL     OW68434   9.368  10.754   8.384
88846SOL    HW168435   9.319  10.681   8.423
88846SOL    HW268436   9.406  10.717   8.305
88847SOL     OW68437  12.244   6.316  12.033
88847SOL    HW168438  12.282   6.401  12.012
88847SOL    HW268439  12.161   6.314  11.986
88848SOL     OW68440   2.284   9.533   6.361
88848SOL    HW168441   2.225   9.470   6.318
88848SOL    HW268442   2.232   9.566   6.435
88849SOL     OW68443   2.946   1.500  14.183
88849SOL    HW168444   2.875   1.545  14.138
88849SOL    HW268445   2.904   1.454  14.256
88850SOL     OW68446  12.317   9.317   1.208
88850SOL    HW168447  12.393   9.261   1.192
88850SOL    HW268448  12.316   9.331   1.303
88851SOL     OW68449   7.142   7.329  11.286
88851SOL    HW168450   7.079   7.270  11.329
88851SOL    HW268451   7.170   7.389  11.354
88852SOL     OW68452   7.082  11.261  14.312
88852SOL    HW168453   7.042  11.175  14.303
88852SOL    HW268454   7.013  11.323  14.287
88853SOL     OW68455  13.321  13.435  13.084
88853SOL    HW168456  13.284  13.459  12.999
88853SOL    HW268457  13.379  13.507  13.106
88854SOL     OW68458   8.884   7.942   2.099
88854SOL    HW168459   8.921   8.029   2.108
88854SOL    HW268460   8.930   7.888   2.163
88855SOL     OW68461   6.610  10.364   7.046
88855SOL    HW168462   6.619  10.358   6.950
88855SOL    HW268463   6.569  10.281   7.071
88856SOL     OW68464   9.651  13.081  11.715
88856SOL    HW168465   9.671  12.995  11.678
88856SOL    HW268466   9.602  13.062  11.796
88857SOL     OW68467   4.025   7.879   6.250
88857SOL    HW168468   4.040   7.852   6.159
88857SOL    HW268469   4.099   7.843   6.298
88858SOL     OW68470  11.479  10.564   2.358
88858SOL    HW168471  11.385  10.575   2.372
88858SOL    HW268472  11.520  10.635   2.407
88859SOL     OW68473   7.730  11.939  10.287
88859SOL    HW168474   7.772  12.018  10.253
88859SOL    HW268475   7.758  11.934  10.378
88860SOL     OW68476   5.341   7.316   0.182
88860SOL    HW168477   5.247   7.305   0.170
88860SOL    HW268478   5.362   7.397   0.136
88861SOL     OW68479   2.242  11.983  12.848
88861SOL    HW168480   2.162  11.931  12.843
88861SOL    HW268481   2.313  11.920  12.844
88862SOL     OW68482   2.601   8.003  12.110
88862SOL    HW168483   2.594   7.956  12.028
88862SOL    HW268484   2.677   8.061  12.099
88863SOL     OW68485   7.001   2.685   8.726
88863SOL    HW168486   7.078   2.711   8.675
88863SOL    HW268487   6.947   2.764   8.729
88864SOL     OW68488  12.522   6.033  12.719
88864SOL    HW168489  12.578   6.026  12.642
88864SOL    HW268490  12.580   6.065  12.788
88865SOL     OW68491   8.779  10.751   1.199
88865SOL    HW168492   8.851  10.711   1.248
88865SOL    HW268493   8.795  10.726   1.108
88866SOL     OW68494   9.552   1.169   8.015
88866SOL    HW168495   9.493   1.167   8.090
88866SOL    HW268496   9.499   1.138   7.942
88867SOL     OW68497   3.555   2.657  14.562
88867SOL    HW168498   3.520   2.577  14.602
88867SOL    HW268499   3.531   2.726  14.623
88868SOL     OW68500   4.512   1.643  13.470
88868SOL    HW168501   4.538   1.718  13.524
88868SOL    HW268502   4.482   1.577  13.533
88869SOL     OW68503  12.910   5.051   5.880
88869SOL    HW168504  12.909   5.118   5.812
88869SOL    HW268505  12.902   5.099   5.962
88870SOL     OW68506   1.151  11.719   2.533
88870SOL    HW168507   1.098  11.691   2.607
88870SOL    HW268508   1.108  11.681   2.456
88871SOL     OW68509  10.612   4.880  12.157
88871SOL    HW168510  10.683   4.817  12.167
88871SOL    HW268511  10.566   4.877  12.241
88872SOL     OW68512  12.270   0.064  14.433
88872SOL    HW168513  12.217   0.100  14.361
88872SOL    HW268514  12.277   0.136  14.495
88873SOL     OW68515   4.533   7.799   9.158
88873SOL    HW168516   4.616   7.780   9.114
88873SOL    HW268517   4.481   7.846   9.093
88874SOL     OW68518   6.732   5.093  10.452
88874SOL    HW168519   6.770   5.094  10.540
88874SOL    HW268520   6.644   5.129  10.464
88875SOL     OW68521   3.479   9.985   1.005
88875SOL    HW168522   3.567   9.971   1.042
88875SOL    HW268523   3.434  10.040   1.069
88876SOL     OW68524   0.287  13.499   3.501
88876SOL    HW168525   0.228  13.560   3.544
88876SOL    HW268526   0.371  13.512   3.545
88877SOL     OW68527   8.811   2.053   5.999
88877SOL    HW168528   8.817   1.959   5.981
88877SOL    HW268529   8.793   2.058   6.093
88878SOL     OW68530  13.440   5.515  14.782
88878SOL    HW168531  13.383   5.557  14.847
88878SOL    HW268532  13.383   5.503  14.706
88879SOL     OW68533   6.287   3.400   2.520
88879SOL    HW168534   6.241   3.355   2.449
88879SOL    HW268535   6.377   3.369   2.514
88880SOL     OW68536   9.360   0.750   2.116
88880SOL    HW168537   9.358   0.753   2.020
88880SOL    HW268538   9.333   0.660   2.137
88881SOL     OW68539   8.084   3.818  14.340
88881SOL    HW168540   7.991   3.805  14.320
88881SOL    HW268541   8.116   3.874  14.268
88882SOL     OW68542   6.696  12.262  11.676
88882SOL    HW168543   6.781  12.244  11.635
88882SOL    HW268544   6.680  12.355  11.659
88883SOL     OW68545   4.916   7.125  13.563
88883SOL    HW168546   4.850   7.190  13.539
88883SOL    HW268547   4.904   7.112  13.657
88884SOL     OW68548   0.895   9.495  14.458
88884SOL    HW168549   0.887   9.555  14.533
88884SOL    HW268550   0.853   9.542  14.386
88885SOL     OW68551   3.745  14.083   6.608
88885SOL    HW168552   3.811  14.126   6.663
88885SOL    HW268553   3.661  14.118   6.640
88886SOL     OW68554   9.266  12.466  10.949
88886SOL    HW168555   9.235  12.387  10.993
88886SOL    HW268556   9.200  12.484  10.882
88887SOL     OW68557   6.964   5.292   9.421
88887SOL    HW168558   7.006   5.368   9.459
88887SOL    HW268559   6.923   5.324   9.340
88888SOL     OW68560   5.147   4.873  11.432
88888SOL    HW168561   5.057   4.903  11.442
88888SOL    HW268562   5.153   4.842  11.342
88889SOL     OW68563   4.437  12.180  12.160
88889SOL    HW168564   4.386  12.174  12.079
88889SOL    HW268565   4.392  12.121  12.221
88890SOL     OW68566   0.003   8.317   7.870
88890SOL    HW168567   0.023   8.311   7.776
88890SOL    HW268568  14.866   8.227   7.896
88891SOL     OW68569  11.791   5.945   3.782
88891SOL    HW168570  11.837   5.887   3.842
88891SOL    HW268571  11.702   5.909   3.776
88892SOL     OW68572  13.804   2.505   7.255
88892SOL    HW168573  13.782   2.415   7.279
88892SOL    HW268574  13.855   2.496   7.175
88893SOL     OW68575   9.777   6.370   6.898
88893SOL    HW168576   9.805   6.296   6.844
88893SOL    HW268577   9.681   6.361   6.901
88894SOL     OW68578   7.449  11.761   6.956
88894SOL    HW168579   7.396  11.681   6.950
88894SOL    HW268580   7.410  11.820   6.891
88895SOL     OW68581  11.642   3.632  12.713
88895SOL    HW168582  11.725   3.666  12.680
88895SOL    HW268583  11.643   3.651  12.806
88896SOL     OW68584   7.862   4.707   7.457
88896SOL    HW168585   7.794   4.749   7.404
88896SOL    HW268586   7.859   4.615   7.431
88897SOL     OW68587   0.758  14.573   8.011
88897SOL    HW168588   0.819  14.573   7.937
88897SOL    HW268589   0.799  14.630   8.076
88898SOL     OW68590   7.663   3.484   3.549
88898SOL    HW168591   7.754   3.500   3.527
88898SOL    HW268592   7.663   3.464   3.643
88899SOL     OW68593  13.839   4.734  10.018
88899SOL    HW168594  13.895   4.801  10.056
88899SOL    HW268595  13.751   4.770  10.025
88900SOL     OW68596   9.299   5.530   4.339
88900SOL    HW168597   9.272   5.510   4.429
88900SOL    HW268598   9.221   5.567   4.298
88901SOL     OW68599   4.452   7.658   8.844
88901SOL    HW168600   4.419   7.582   8.794
88901SOL    HW268601   4.536   7.678   8.803
88902SOL     OW68602   7.606   4.292   0.695
88902SOL    HW168603   7.698   4.268   0.698
88902SOL    HW268604   7.605   4.382   0.662
88903SOL     OW68605   0.768   0.226   7.154
88903SOL    HW168606   0.810   0.198   7.235
88903SOL    HW268607   0.801   0.315   7.139
88904SOL     OW68608   4.201   1.256  12.554
88904SOL    HW168609   4.181   1.180  12.608
88904SOL    HW268610   4.154   1.241  12.472
88905SOL     OW68611   5.988  11.858   4.766
88905SOL    HW168612   6.045  11.800   4.817
88905SOL    HW268613   5.965  11.928   4.828
88906SOL     OW68614   7.661   0.584   4.252
88906SOL    HW168615   7.698   0.503   4.219
88906SOL    HW268616   7.632   0.631   4.174
88907SOL     OW68617  14.460  14.267   8.963
88907SOL    HW168618  14.390  14.206   8.938
88907SOL    HW268619  14.420  14.325   9.028
88908SOL     OW68620  10.844   6.262   7.316
88908SOL    HW168621  10.885   6.297   7.395
88908SOL    HW268622  10.851   6.167   7.326
88909SOL     OW68623  12.197   1.405  12.731
88909SOL    HW168624  12.207   1.500  12.734
88909SOL    HW268625  12.148   1.384  12.810
88910SOL     OW68626  12.692   3.648  14.429
88910SOL    HW168627  12.630   3.592  14.475
88910SOL    HW268628  12.642   3.725  14.404
88911SOL     OW68629   4.357   0.642   3.039
88911SOL    HW168630   4.398   0.591   2.969
88911SOL    HW268631   4.277   0.594   3.060
88912SOL     OW68632   4.440  10.129   5.179
88912SOL    HW168633   4.500  10.072   5.131
88912SOL    HW268634   4.482  10.143   5.264
88913SOL     OW68635   8.396   8.892   2.224
88913SOL    HW168636   8.456   8.818   2.212
88913SOL    HW268637   8.452   8.967   2.241
88914SOL     OW68638  11.274  13.689  11.097
88914SOL    HW168639  11.318  13.701  11.182
88914SOL    HW268640  11.216  13.765  11.090
88915SOL     OW68641   7.073   4.576   1.251
88915SOL    HW168642   7.117   4.493   1.235
88915SOL    HW268643   7.136   4.642   1.222
88916SOL     OW68644   9.350  14.140  13.014
88916SOL    HW168645   9.420  14.199  12.984
88916SOL    HW268646   9.334  14.167  13.104
88917SOL     OW68647  10.829   2.949   9.324
88917SOL    HW168648  10.866   2.920   9.241
88917SOL    HW268649  10.737   2.923   9.319
88918SOL     OW68650  12.176   8.598   2.243
88918SOL    HW168651  12.188   8.552   2.326
88918SOL    HW268652  12.122   8.540   2.190
88919SOL     OW68653  14.089   2.907  13.436
88919SOL    HW168654  14.039   2.964  13.378
88919SOL    HW268655  14.159   2.961  13.470
88920SOL     OW68656  12.917   0.316   7.915
88920SOL    HW168657  12.826   0.286   7.915
88920SOL    HW268658  12.925   0.367   7.996
88921SOL     OW68659   0.281   7.893   5.937
88921SOL    HW168660   0.320   7.807   5.951
88921SOL    HW268661   0.220   7.903   6.010
88922SOL     OW68662  10.972   2.191   3.402
88922SOL    HW168663  11.013   2.189   3.315
88922SOL    HW268664  10.893   2.138   3.392
88923SOL     OW68665   0.221   2.275   0.436
88923SOL    HW168666   0.292   2.226   0.476
88923SOL    HW268667   0.184   2.327   0.507
88924SOL     OW68668   9.179  11.996   9.411
88924SOL    HW168669   9.201  12.000   9.318
88924SOL    HW268670   9.085  11.978   9.413
88925SOL     OW68671   9.505   9.326  13.618
88925SOL    HW168672   9.542   9.414  13.609
88925SOL    HW268673   9.485   9.299  13.528
88926SOL     OW68674   2.807  12.872   5.266
88926SOL    HW168675   2.816  12.955   5.314
88926SOL    HW268676   2.713  12.853   5.269
88927SOL     OW68677  10.559   7.450   0.593
88927SOL    HW168678  10.618   7.493   0.655
88927SOL    HW268679  10.611   7.443   0.513
88928SOL     OW68680   3.411   2.876   1.851
88928SOL    HW168681   3.424   2.922   1.934
88928SOL    HW268682   3.347   2.929   1.803
88929SOL     OW68683  14.074  10.171   7.560
88929SOL    HW168684  13.988  10.191   7.523
88929SOL    HW268685  14.136  10.210   7.499
88930SOL     OW68686   6.224   4.068   2.565
88930SOL    HW168687   6.184   4.077   2.651
88930SOL    HW268688   6.155   4.091   2.503
88931SOL     OW68689  11.533   2.315  13.671
88931SOL    HW168690  11.493   2.389  13.718
88931SOL    HW268691  11.513   2.239  13.726
88932SOL     OW68692   3.174   2.277   3.966
88932SOL    HW168693   3.131   2.297   4.049
88932SOL    HW268694   3.123   2.324   3.900
88933SOL     OW68695   6.932   0.838  10.307
88933SOL    HW168696   6.899   0.878  10.226
88933SOL    HW268697   6.899   0.895  10.377
88934SOL     OW68698   2.516   8.766  14.363
88934SOL    HW168699   2.513   8.671  14.373
88934SOL    HW268700   2.566   8.780  14.282
88935SOL     OW68701   5.503  12.194   6.568
88935SOL    HW168702   5.564  12.248   6.619
88935SOL    HW268703   5.521  12.104   6.597
88936SOL     OW68704   9.648  12.937   0.061
88936SOL    HW168705   9.576  12.900   0.011
88936SOL    HW268706   9.709  12.970  14.877
88937SOL     OW68707   7.774   4.594   8.570
88937SOL    HW168708   7.720   4.672   8.553
88937SOL    HW268709   7.846   4.627   8.624
88938SOL     OW68710   1.232   6.909  11.556
88938SOL    HW168711   1.143   6.920  11.522
88938SOL    HW268712   1.229   6.827  11.605
88939SOL     OW68713   7.207   5.245  11.360
88939SOL    HW168714   7.152   5.179  11.319
88939SOL    HW268715   7.296   5.221  11.335
88940SOL     OW68716   7.741   0.882  12.494
88940SOL    HW168717   7.696   0.867  12.577
88940SOL    HW268718   7.684   0.840  12.429
88941SOL     OW68719  14.077   4.554  10.314
88941SOL    HW168720  14.040   4.511  10.237
88941SOL    HW268721  14.118   4.484  10.364
88942SOL     OW68722  12.959   2.385   5.156
88942SOL    HW168723  12.904   2.425   5.224
88942SOL    HW268724  12.898   2.334   5.103
88943SOL     OW68725   3.886   5.807   3.434
88943SOL    HW168726   3.833   5.831   3.358
88943SOL    HW268727   3.918   5.890   3.469
88944SOL     OW68728   2.488  12.121   0.747
88944SOL    HW168729   2.526  12.161   0.826
88944SOL    HW268730   2.530  12.035   0.742
88945SOL     OW68731  10.395  12.895   8.601
88945SOL    HW168732  10.455  12.833   8.560
88945SOL    HW268733  10.447  12.938   8.669
88946SOL     OW68734  10.944   5.951   4.001
88946SOL    HW168735  10.996   6.021   3.960
88946SOL    HW268736  10.909   5.990   4.080
88947SOL     OW68737   2.241   1.798   8.341
88947SOL    HW168738   2.197   1.715   8.320
88947SOL    HW268739   2.197   1.829   8.420
88948SOL     OW68740   6.361   5.360  13.362
88948SOL    HW168741   6.442   5.325  13.400
88948SOL    HW268742   6.319   5.406  13.435
88949SOL     OW68743  12.200   4.324   6.248
88949SOL    HW168744  12.290   4.292   6.243
88949SOL    HW268745  12.205   4.402   6.303
88950SOL     OW68746   3.081   7.590  12.337
88950SOL    HW168747   3.074   7.634  12.422
88950SOL    HW268748   3.175   7.584  12.321
88951SOL     OW68749   5.035   1.781   5.723
88951SOL    HW168750   4.975   1.790   5.797
88951SOL    HW268751   5.087   1.704   5.743
88952SOL     OW68752   5.518  13.607   2.909
88952SOL    HW168753   5.607  13.582   2.882
88952SOL    HW268754   5.461  13.543   2.865
88953SOL     OW68755   3.349   3.530   2.641
88953SOL    HW168756   3.343   3.455   2.700
88953SOL    HW268757   3.272   3.523   2.585
88954SOL     OW68758   1.239   6.260   9.234
88954SOL    HW168759   1.313   6.281   9.176
88954SOL    HW268760   1.178   6.333   9.224
88955SOL     OW68761  11.102   0.831   3.964
88955SOL    HW168762  11.075   0.745   3.932
88955SOL    HW268763  11.195   0.837   3.944
88956SOL     OW68764  11.956   0.292   9.914
88956SOL    HW168765  11.974   0.216   9.858
88956SOL    HW268766  12.028   0.353   9.896
88957SOL     OW68767   0.070   3.837   0.711
88957SOL    HW168768   0.030   3.751   0.698
88957SOL    HW268769   0.004   3.886   0.761
88958SOL     OW68770  13.828   1.655   1.386
88958SOL    HW168771  13.833   1.594   1.460
88958SOL    HW268772  13.782   1.732   1.421
88959SOL     OW68773   9.433  13.820   2.655
88959SOL    HW168774   9.460  13.761   2.585
88959SOL    HW268775   9.458  13.907   2.625
88960SOL     OW68776   1.802   9.067  13.282
88960SOL    HW168777   1.794   9.042  13.374
88960SOL    HW268778   1.718   9.107  13.260
88961SOL     OW68779  11.929  11.070   3.977
88961SOL    HW168780  11.854  11.057   4.035
88961SOL    HW268781  11.898  11.039   3.892
88962SOL     OW68782   3.949   3.515   0.824
88962SOL    HW168783   3.975   3.513   0.732
88962SOL    HW268784   4.000   3.446   0.865
88963SOL     OW68785   0.271  12.458   2.171
88963SOL    HW168786   0.302  12.448   2.081
88963SOL    HW268787   0.199  12.395   2.178
88964SOL     OW68788   3.993   8.858  12.648
88964SOL    HW168789   3.912   8.815  12.676
88964SOL    HW268790   4.055   8.786  12.634
88965SOL     OW68791  13.333   3.128   2.436
88965SOL    HW168792  13.334   3.178   2.518
88965SOL    HW268793  13.425   3.105   2.422
88966SOL     OW68794   4.565   1.706  11.701
88966SOL    HW168795   4.514   1.781  11.732
88966SOL    HW268796   4.613   1.676  11.779
88967SOL     OW68797   5.465   7.355   4.110
88967SOL    HW168798   5.557   7.337   4.090
88967SOL    HW268799   5.437   7.414   4.041
88968SOL     OW68800   9.475  10.606   8.201
88968SOL    HW168801   9.538  10.549   8.156
88968SOL    HW268802   9.410  10.545   8.237
88969SOL     OW68803   2.380  10.966  14.072
88969SOL    HW168804   2.327  10.918  14.008
88969SOL    HW268805   2.334  10.954  14.155
88970SOL     OW68806  12.969   2.567   7.877
88970SOL    HW168807  12.978   2.488   7.930
88970SOL    HW268808  12.894   2.551   7.820
88971SOL     OW68809  13.690   5.948   0.383
88971SOL    HW168810  13.766   5.987   0.426
88971SOL    HW268811  13.722   5.919   0.298
88972SOL     OW68812   2.283   1.541  14.846
88972SOL    HW168813   2.291   1.552  14.752
88972SOL    HW268814   2.224   1.467  14.858
88973SOL     OW68815   1.267   3.657   7.428
88973SOL    HW168816   1.243   3.719   7.359
88973SOL    HW268817   1.292   3.712   7.503
88974SOL     OW68818   7.907   3.874  12.108
88974SOL    HW168819   7.858   3.792  12.102
88974SOL    HW268820   7.970   3.870  12.036
88975SOL     OW68821   0.960   4.157  10.543
88975SOL    HW168822   0.927   4.178  10.631
88975SOL    HW268823   0.986   4.242  10.507
88976SOL     OW68824   0.893   6.249   2.408
88976SOL    HW168825   0.851   6.294   2.482
88976SOL    HW268826   0.921   6.320   2.350
88977SOL     OW68827   3.400   3.169   9.623
88977SOL    HW168828   3.442   3.254   9.614
88977SOL    HW268829   3.408   3.148   9.716
88978SOL     OW68830   8.129  13.562   0.413
88978SOL    HW168831   8.137  13.511   0.332
88978SOL    HW268832   8.198  13.628   0.406
88979SOL     OW68833   4.476  12.650   0.027
88979SOL    HW168834   4.411  12.613   0.087
88979SOL    HW268835   4.556  12.658   0.080
88980SOL     OW68836   3.947   3.512   5.414
88980SOL    HW168837   3.860   3.550   5.426
88980SOL    HW268838   3.951   3.439   5.476
88981SOL     OW68839  13.493  12.322   2.924
88981SOL    HW168840  13.501  12.378   3.000
88981SOL    HW268841  13.400  12.303   2.918
88982SOL     OW68842  11.050   9.511  14.004
88982SOL    HW168843  11.002   9.582  13.961
88982SOL    HW268844  11.139   9.519  13.971
88983SOL     OW68845  11.730   4.755  13.107
88983SOL    HW168846  11.766   4.702  13.178
88983SOL    HW268847  11.804   4.807  13.075
88984SOL     OW68848  12.328   4.422   7.135
88984SOL    HW168849  12.301   4.451   7.048
88984SOL    HW268850  12.257   4.363   7.163
88985SOL     OW68851  10.802   9.172   5.721
88985SOL    HW168852  10.846   9.234   5.779
88985SOL    HW268853  10.782   9.096   5.776
88986SOL     OW68854   5.533   7.159  13.886
88986SOL    HW168855   5.614   7.188  13.845
88986SOL    HW268856   5.506   7.082  13.835
88987SOL     OW68857  13.295   1.996   1.147
88987SOL    HW168858  13.360   1.952   1.092
88987SOL    HW268859  13.233   1.928   1.171
88988SOL     OW68860   1.571   7.707   4.533
88988SOL    HW168861   1.645   7.767   4.528
88988SOL    HW268862   1.496   7.763   4.554
88989SOL     OW68863  11.052  11.182   3.595
88989SOL    HW168864  10.999  11.232   3.656
88989SOL    HW268865  11.143  11.200   3.621
88990SOL     OW68866   2.304  12.051  14.382
88990SOL    HW168867   2.227  12.051  14.438
88990SOL    HW268868   2.301  12.135  14.336
88991SOL     OW68869   8.873  13.239   8.365
88991SOL    HW168870   8.923  13.320   8.375
88991SOL    HW268871   8.836  13.245   8.277
88992SOL     OW68872   9.672   9.355   3.469
88992SOL    HW168873   9.747   9.395   3.513
88992SOL    HW268874   9.611   9.334   3.540
88993SOL     OW68875  10.452   4.300   8.036
88993SOL    HW168876  10.394   4.266   7.967
88993SOL    HW268877  10.396   4.356   8.089
88994SOL     OW68878   9.743  10.025  14.057
88994SOL    HW168879   9.830  10.049  14.087
88994SOL    HW268880   9.747  10.035  13.962
88995SOL     OW68881   1.338   0.837   2.819
88995SOL    HW168882   1.320   0.874   2.732
88995SOL    HW268883   1.429   0.808   2.814
88996SOL     OW68884   7.075   5.950   0.532
88996SOL    HW168885   7.063   5.884   0.600
88996SOL    HW268886   7.135   5.909   0.469
88997SOL     OW68887   5.008  11.542   8.815
88997SOL    HW168888   4.972  11.625   8.847
88997SOL    HW268889   4.989  11.543   8.721
88998SOL     OW68890   0.216   5.376  11.684
88998SOL    HW168891   0.184   5.466  11.672
88998SOL    HW268892   0.157   5.338  11.749
88999SOL     OW68893   7.008   0.106   9.022
88999SOL    HW168894   6.973   0.124   8.934
88999SOL    HW268895   6.963   0.026   9.049
89000SOL     OW68896   5.169  10.089  14.139
89000SOL    HW168897   5.149  10.143  14.215
89000SOL    HW268898   5.093  10.031  14.131
89001SOL     OW68899  11.813   5.271  13.330
89001SOL    HW168900  11.811   5.181  13.298
89001SOL    HW268901  11.763   5.268  13.412
89002SOL     OW68902   3.877  14.228  10.378
89002SOL    HW168903   3.912  14.263  10.460
89002SOL    HW268904   3.783  14.218  10.394
89003SOL     OW68905   9.358   3.608  10.305
89003SOL    HW168906   9.304   3.530  10.313
89003SOL    HW268907   9.410   3.593  10.226
89004SOL     OW68908  10.160   8.841   5.656
89004SOL    HW168909  10.129   8.906   5.593
89004SOL    HW268910  10.170   8.889   5.738
89005SOL     OW68911   4.882   2.270  11.449
89005SOL    HW168912   4.798   2.226  11.431
89005SOL    HW268913   4.929   2.209  11.506
89006SOL     OW68914   1.509  12.943   6.874
89006SOL    HW168915   1.497  12.916   6.783
89006SOL    HW268916   1.604  12.948   6.885
89007SOL     OW68917   7.790  11.731   1.001
89007SOL    HW168918   7.784  11.660   1.065
89007SOL    HW268919   7.882  11.757   1.002
89008SOL     OW68920  13.941   1.319  12.441
89008SOL    HW168921  13.877   1.328  12.512
89008SOL    HW268922  13.888   1.309  12.362
89009SOL     OW68923   6.962   1.966  12.481
89009SOL    HW168924   6.927   2.016  12.407
89009SOL    HW268925   7.047   1.934  12.450
89010SOL     OW68926  13.769   5.274  10.339
89010SOL    HW168927  13.769   5.298  10.247
89010SOL    HW268928  13.702   5.207  10.347
89011SOL     OW68929   1.878   1.831  13.698
89011SOL    HW168930   1.824   1.768  13.650
89011SOL    HW268931   1.888   1.793  13.785
89012SOL     OW68932   5.229   5.141   9.907
89012SOL    HW168933   5.152   5.189   9.938
89012SOL    HW268934   5.193   5.067   9.858
89013SOL     OW68935   3.138   5.737  11.824
89013SOL    HW168936   3.173   5.813  11.871
89013SOL    HW268937   3.106   5.773  11.741
89014SOL     OW68938   4.708  13.174   7.615
89014SOL    HW168939   4.638  13.184   7.551
89014SOL    HW268940   4.788  13.167   7.562
89015SOL     OW68941  13.520   0.381   8.360
89015SOL    HW168942  13.544   0.289   8.362
89015SOL    HW268943  13.598   0.428   8.389
89016SOL     OW68944   9.461  11.986  12.073
89016SOL    HW168945   9.435  11.895  12.087
89016SOL    HW268946   9.542  11.981  12.022
89017SOL     OW68947   3.709  12.726   9.811
89017SOL    HW168948   3.657  12.761   9.883
89017SOL    HW268949   3.673  12.768   9.733
89018SOL     OW68950   2.683   0.619   1.565
89018SOL    HW168951   2.727   0.561   1.627
89018SOL    HW268952   2.695   0.577   1.480
89019SOL     OW68953  12.307  14.274  11.281
89019SOL    HW168954  12.218  14.307  11.288
89019SOL    HW268955  12.323  14.227  11.363
89020SOL     OW68956  12.158  13.461   6.079
89020SOL    HW168957  12.124  13.519   6.010
89020SOL    HW268958  12.202  13.391   6.033
89021SOL     OW68959   2.429   6.957   1.712
89021SOL    HW168960   2.477   6.914   1.782
89021SOL    HW268961   2.497   6.979   1.647
89022SOL     OW68962  11.054   9.144  12.582
89022SOL    HW168963  11.069   9.122  12.674
89022SOL    HW268964  10.977   9.200  12.582
89023SOL     OW68965  11.410   0.997  13.787
89023SOL    HW168966  11.460   1.074  13.763
89023SOL    HW268967  11.397   0.950  13.705
89024SOL     OW68968   5.037   8.148   9.462
89024SOL    HW168969   4.944   8.129   9.454
89024SOL    HW268970   5.046   8.186   9.550
89025SOL     OW68971  13.179  14.819  12.738
89025SOL    HW168972  13.253  14.776  12.782
89025SOL    HW268973  13.140  14.875  12.804
89026SOL     OW68974   9.980   8.957   6.268
89026SOL    HW168975  10.042   9.025   6.241
89026SOL    HW268976   9.911   9.004   6.315
89027SOL     OW68977  10.243   3.852   2.031
89027SOL    HW168978  10.291   3.772   2.007
89027SOL    HW268979  10.309   3.909   2.069
89028SOL     OW68980   1.371  11.262  13.921
89028SOL    HW168981   1.360  11.353  13.892
89028SOL    HW268982   1.286  11.221  13.905
89029SOL     OW68983   0.316   7.819   1.229
89029SOL    HW168984   0.249   7.835   1.296
89029SOL    HW268985   0.398   7.809   1.279
89030SOL     OW68986   1.080   2.568   3.890
89030SOL    HW168987   1.140   2.626   3.843
89030SOL    HW268988   1.097   2.481   3.854
89031SOL     OW68989  10.188   2.589   9.677
89031SOL    HW168990  10.122   2.649   9.712
89031SOL    HW268991  10.211   2.625   9.592
89032SOL     OW68992   2.688  10.158   0.041
89032SOL    HW168993   2.687  10.105   0.122
89032SOL    HW268994   2.596  10.171   0.020
89033SOL     OW68995   1.365   9.196   2.736
89033SOL    HW168996   1.337   9.224   2.823
89033SOL    HW268997   1.284   9.186   2.686
89034SOL     OW68998   6.232   5.970   7.553
89034SOL    HW168999   6.229   6.066   7.552
89034SOL    HW269000   6.281   5.949   7.633
89035SOL     OW69001   0.994   2.099  12.439
89035SOL    HW169002   0.980   2.149  12.520
89035SOL    HW269003   1.050   2.026  12.465
89036SOL     OW69004   7.701  10.229  14.554
89036SOL    HW169005   7.775  10.252  14.610
89036SOL    HW269006   7.706  10.290  14.480
89037SOL     OW69007  13.385   6.771  14.660
89037SOL    HW169008  13.452   6.792  14.725
89037SOL    HW269009  13.337   6.852  14.648
89038SOL     OW69010  13.043   6.458   9.072
89038SOL    HW169011  13.098   6.529   9.105
89038SOL    HW269012  13.047   6.467   8.977
89039SOL     OW69013  14.388   2.902  12.930
89039SOL    HW169014  14.440   2.824  12.948
89039SOL    HW269015  14.361   2.933  13.017
89040SOL     OW69016   3.400   6.727   1.467
89040SOL    HW169017   3.443   6.645   1.442
89040SOL    HW269018   3.334   6.699   1.531
89041SOL     OW69019  11.469   3.138  10.444
89041SOL    HW169020  11.439   3.228  10.453
89041SOL    HW269021  11.416   3.103  10.372
89042SOL     OW69022  12.587   2.571  11.276
89042SOL    HW169023  12.570   2.480  11.250
89042SOL    HW269024  12.530   2.586  11.351
89043SOL     OW69025   4.303   6.143   2.360
89043SOL    HW169026   4.307   6.102   2.274
89043SOL    HW269027   4.278   6.072   2.419
89044SOL     OW69028   9.151   9.786   2.754
89044SOL    HW169029   9.141   9.881   2.767
89044SOL    HW269030   9.238   9.776   2.717
89045SOL     OW69031   3.599  12.391   4.951
89045SOL    HW169032   3.666  12.329   4.976
89045SOL    HW269033   3.641  12.447   4.886
89046SOL     OW69034   1.071   1.536   2.700
89046SOL    HW169035   1.051   1.630   2.699
89046SOL    HW269036   1.041   1.505   2.614
89047SOL     OW69037   5.641   1.976   7.493
89047SOL    HW169038   5.649   1.881   7.503
89047SOL    HW269039   5.677   1.994   7.407
89048SOL     OW69040   6.890   8.772  12.574
89048SOL    HW169041   6.851   8.820  12.646
89048SOL    HW269042   6.985   8.777  12.590
89049SOL     OW69043   2.720   3.559  14.566
89049SOL    HW169044   2.757   3.472  14.555
89049SOL    HW269045   2.794   3.614  14.591
89050SOL     OW69046   0.853   8.313   7.635
89050SOL    HW169047   0.892   8.239   7.588
89050SOL    HW269048   0.835   8.279   7.723
89051SOL     OW69049   2.527   5.775   6.618
89051SOL    HW169050   2.441   5.750   6.651
89051SOL    HW269051   2.582   5.783   6.696
89052SOL     OW69052   2.277   1.918   7.604
89052SOL    HW169053   2.341   1.984   7.578
89052SOL    HW269054   2.265   1.864   7.526
89053SOL     OW69055   1.638  12.595   9.431
89053SOL    HW169056   1.613  12.586   9.523
89053SOL    HW269057   1.714  12.538   9.421
89054SOL     OW69058   6.037   2.204   9.560
89054SOL    HW169059   6.041   2.203   9.655
89054SOL    HW269060   6.065   2.116   9.534
89055SOL     OW69061  14.417   8.907  11.649
89055SOL    HW169062  14.411   8.812  11.637
89055SOL    HW269063  14.428   8.919  11.743
89056SOL     OW69064   0.591   6.036   6.965
89056SOL    HW169065   0.553   5.952   6.939
89056SOL    HW269066   0.581   6.092   6.889
89057SOL     OW69067   8.655  13.981   0.587
89057SOL    HW169068   8.667  13.943   0.501
89057SOL    HW269069   8.582  14.042   0.576
89058SOL     OW69070   2.903   8.276  10.140
89058SOL    HW169071   2.813   8.290  10.109
89058SOL    HW269072   2.921   8.185  10.119
89059SOL     OW69073  11.762   8.192   8.120
89059SOL    HW169074  11.680   8.238   8.139
89059SOL    HW269075  11.828   8.262   8.117
89060SOL     OW69076  10.419   7.493   9.228
89060SOL    HW169077  10.506   7.531   9.244
89060SOL    HW269078  10.417   7.477   9.134
89061SOL     OW69079   4.333  13.817   5.606
89061SOL    HW169080   4.301  13.907   5.607
89061SOL    HW269081   4.410  13.819   5.663
89062SOL     OW69082   3.092   9.487   2.285
89062SOL    HW169083   3.165   9.549   2.277
89062SOL    HW269084   3.016   9.542   2.307
89063SOL     OW69085   2.807  13.840   2.188
89063SOL    HW169086   2.745  13.882   2.128
89063SOL    HW269087   2.754  13.816   2.265
89064SOL     OW69088   7.085  11.920  12.059
89064SOL    HW169089   7.144  11.996  12.059
89064SOL    HW269090   7.078  11.895  12.151
89065SOL     OW69091  13.820   1.721   5.048
89065SOL    HW169092  13.867   1.752   5.126
89065SOL    HW269093  13.880   1.738   4.975
89066SOL     OW69094  11.880   7.059   7.527
89066SOL    HW169095  11.844   6.970   7.534
89066SOL    HW269096  11.811   7.110   7.486
89067SOL     OW69097  12.642  14.455   3.770
89067SOL    HW169098  12.729  14.491   3.786
89067SOL    HW269099  12.585  14.532   3.768
89068SOL     OW69100  10.154   4.516   6.317
89068SOL    HW169101  10.079   4.574   6.302
89068SOL    HW269102  10.230   4.573   6.307
89069SOL     OW69103  10.495  12.963   8.879
89069SOL    HW169104  10.414  13.012   8.866
89069SOL    HW269105  10.476  12.907   8.954
89070SOL     OW69106   5.549   9.284   0.581
89070SOL    HW169107   5.526   9.371   0.549
89070SOL    HW269108   5.491   9.269   0.656
89071SOL     OW69109  12.612   8.056   4.192
89071SOL    HW169110  12.627   7.978   4.140
89071SOL    HW269111  12.651   8.127   4.141
89072SOL     OW69112  10.796   1.873  14.694
89072SOL    HW169113  10.841   1.789  14.694
89072SOL    HW269114  10.703   1.852  14.686
89073SOL     OW69115   2.539  11.560   2.419
89073SOL    HW169116   2.457  11.520   2.391
89073SOL    HW269117   2.526  11.580   2.512
89074SOL     OW69118   4.608  10.060   2.609
89074SOL    HW169119   4.624  10.076   2.516
89074SOL    HW269120   4.690  10.025   2.642
89075SOL     OW69121   8.595  11.783   4.553
89075SOL    HW169122   8.528  11.814   4.493
89075SOL    HW269123   8.549  11.771   4.636
89076SOL     OW69124   3.122   6.589   6.381
89076SOL    HW169125   3.215   6.598   6.361
89076SOL    HW269126   3.098   6.502   6.348
89077SOL     OW69127   6.347  10.484   4.630
89077SOL    HW169128   6.357  10.473   4.724
89077SOL    HW269129   6.339  10.394   4.596
89078SOL     OW69130   5.840   2.509   0.883
89078SOL    HW169131   5.747   2.522   0.865
89078SOL    HW269132   5.882   2.515   0.797
89079SOL     OW69133  11.634  10.257   5.695
89079SOL    HW169134  11.595  10.300   5.771
89079SOL    HW269135  11.667  10.329   5.641
89080SOL     OW69136   0.691   4.493  11.058
89080SOL    HW169137   0.647   4.409  11.049
89080SOL    HW269138   0.706   4.502  11.153
89081SOL     OW69139  11.587   8.840   4.332
89081SOL    HW169140  11.658   8.788   4.294
89081SOL    HW269141  11.531   8.861   4.258
89082SOL     OW69142  10.538   0.613  10.930
89082SOL    HW169143  10.592   0.633  10.854
89082SOL    HW269144  10.576   0.533  10.966
89083SOL     OW69145  14.544   5.609   2.606
89083SOL    HW169146  14.467   5.618   2.550
89083SOL    HW269147  14.561   5.515   2.607
89084SOL     OW69148   4.585   1.845   2.661
89084SOL    HW169149   4.621   1.757   2.674
89084SOL    HW269150   4.532   1.837   2.582
89085SOL     OW69151  11.540   5.979  12.350
89085SOL    HW169152  11.455   5.935  12.343
89085SOL    HW269153  11.568   5.991  12.259
89086SOL     OW69154  11.309   1.064   1.314
89086SOL    HW169155  11.318   1.150   1.356
89086SOL    HW269156  11.290   1.004   1.386
89087SOL     OW69157   8.285   4.928  12.708
89087SOL    HW169158   8.366   4.970  12.677
89087SOL    HW269159   8.260   4.980  12.784
89088SOL     OW69160   5.603  11.650   8.684
89088SOL    HW169161   5.680  11.661   8.629
89088SOL    HW269162   5.583  11.738   8.716
89089SOL     OW69163   8.128   1.148   7.086
89089SOL    HW169164   8.147   1.236   7.118
89089SOL    HW269165   8.199   1.094   7.120
89090SOL     OW69166  13.099   8.864   2.532
89090SOL    HW169167  13.149   8.862   2.614
89090SOL    HW269168  13.161   8.894   2.466
89091SOL     OW69169  12.280  14.436   5.386
89091SOL    HW169170  12.314  14.447   5.474
89091SOL    HW269171  12.263  14.342   5.378
89092SOL     OW69172  12.595  14.427   9.430
89092SOL    HW169173  12.522  14.366   9.416
89092SOL    HW269174  12.664  14.372   9.469
89093SOL     OW69175  12.604  10.453   8.409
89093SOL    HW169176  12.621  10.370   8.453
89093SOL    HW269177  12.691  10.485   8.384
89094SOL     OW69178   8.554  13.235   3.536
89094SOL    HW169179   8.511  13.210   3.617
89094SOL    HW269180   8.581  13.325   3.551
89095SOL     OW69181  11.298  10.618   9.816
89095SOL    HW169182  11.350  10.697   9.800
89095SOL    HW269183  11.223  10.627   9.758
89096SOL     OW69184  13.068  12.091   0.058
89096SOL    HW169185  13.055  12.169   0.004
89096SOL    HW269186  13.145  12.048   0.021
89097SOL     OW69187  12.424   1.920   5.104
89097SOL    HW169188  12.356   1.941   5.169
89097SOL    HW269189  12.388   1.847   5.055
89098SOL     OW69190   2.876   9.092  12.103
89098SOL    HW169191   2.895   9.003  12.131
89098SOL    HW269192   2.948   9.145  12.139
89099SOL     OW69193  10.942   0.972  10.338
89099SOL    HW169194  10.945   1.046  10.276
89099SOL    HW269195  10.960   1.011  10.423
89100SOL     OW69196  14.335  11.747   1.769
89100SOL    HW169197  14.268  11.681   1.788
89100SOL    HW269198  14.418  11.701   1.783
89101SOL     OW69199   4.646   2.426  13.425
89101SOL    HW169200   4.560   2.466  13.434
89101SOL    HW269201   4.700   2.469  13.492
89102SOL     OW69202  12.921  14.539   7.294
89102SOL    HW169203  13.009  14.505   7.313
89102SOL    HW269204  12.886  14.563   7.379
89103SOL     OW69205  14.191   0.351   1.563
89103SOL    HW169206  14.226   0.263   1.577
89103SOL    HW269207  14.179   0.386   1.652
89104SOL     OW69208  11.647   1.202   8.268
89104SOL    HW169209  11.720   1.183   8.328
89104SOL    HW269210  11.625   1.293   8.286
89105SOL     OW69211  14.453  10.426   0.631
89105SOL    HW169212  14.446  10.456   0.721
89105SOL    HW269213  14.456  10.331   0.637
89106SOL     OW69214  10.424   3.131  14.392
89106SOL    HW169215  10.467   3.073  14.455
89106SOL    HW269216  10.354   3.077  14.354
89107SOL     OW69217   4.821  11.942  11.278
89107SOL    HW169218   4.874  11.863  11.267
89107SOL    HW269219   4.749  11.931  11.217
89108SOL     OW69220   4.713  13.737   4.229
89108SOL    HW169221   4.665  13.671   4.279
89108SOL    HW269222   4.708  13.706   4.139
89109SOL     OW69223   5.780  12.213   0.567
89109SOL    HW169224   5.771  12.190   0.474
89109SOL    HW269225   5.796  12.307   0.567
89110SOL     OW69226   1.305  12.344  13.653
89110SOL    HW169227   1.315  12.391  13.570
89110SOL    HW269228   1.240  12.276  13.634
89111SOL     OW69229   3.775  13.569   4.594
89111SOL    HW169230   3.852  13.552   4.540
89111SOL    HW269231   3.808  13.616   4.670
89112SOL     OW69232  12.539  10.644   6.092
89112SOL    HW169233  12.531  10.732   6.058
89112SOL    HW269234  12.458  10.629   6.141
89113SOL     OW69235   3.868   0.659   6.817
89113SOL    HW169236   3.858   0.705   6.901
89113SOL    HW269237   3.948   0.608   6.828
89114SOL     OW69238  13.420   4.252   9.346
89114SOL    HW169239  13.456   4.340   9.355
89114SOL    HW269240  13.496   4.198   9.325
89115SOL     OW69241  11.438   3.491  12.615
89115SOL    HW169242  11.354   3.533  12.594
89115SOL    HW269243  11.484   3.555  12.669
89116SOL     OW69244   7.194  12.922   0.437
89116SOL    HW169245   7.279  12.959   0.412
89116SOL    HW269246   7.209  12.828   0.441
89117SOL     OW69247   7.159   5.065  10.376
89117SOL    HW169248   7.172   5.008  10.452
89117SOL    HW269249   7.102   5.015  10.318
89118SOL     OW69250   6.664   8.951   0.388
89118SOL    HW169251   6.615   8.881   0.431
89118SOL    HW269252   6.728   8.905   0.333
89119SOL     OW69253   6.344  11.844   4.250
89119SOL    HW169254   6.328  11.840   4.344
89119SOL    HW269255   6.291  11.772   4.215
89120SOL     OW69256   6.718  10.648  11.626
89120SOL    HW169257   6.753  10.733  11.600
89120SOL    HW269258   6.640  10.636  11.572
89121SOL     OW69259  10.327  14.831   2.636
89121SOL    HW169260  10.263  14.859   2.701
89121SOL    HW269261  10.281  14.840   2.552
89122SOL     OW69262   9.609   0.750  10.818
89122SOL    HW169263   9.566   0.666  10.803
89122SOL    HW269264   9.539   0.814  10.815
89123SOL     OW69265  12.917   7.922  12.153
89123SOL    HW169266  12.915   7.888  12.063
89123SOL    HW269267  12.860   7.999  12.151
89124SOL     OW69268   2.178  10.631   8.980
89124SOL    HW169269   2.107  10.691   9.005
89124SOL    HW269270   2.257  10.673   9.013
89125SOL     OW69271   3.970   6.622   3.920
89125SOL    HW169272   3.999   6.663   3.838
89125SOL    HW269273   4.046   6.570   3.949
89126SOL     OW69274  14.300   7.360  10.376
89126SOL    HW169275  14.210   7.376  10.348
89126SOL    HW269276  14.354   7.404  10.311
89127SOL     OW69277  11.295   2.480   8.605
89127SOL    HW169278  11.358   2.410   8.590
89127SOL    HW269279  11.271   2.471   8.698
89128SOL     OW69280  11.876  10.091   1.637
89128SOL    HW169281  11.840  10.173   1.602
89128SOL    HW269282  11.964  10.086   1.600
89129SOL     OW69283   7.308   5.108   8.154
89129SOL    HW169284   7.316   5.042   8.085
89129SOL    HW269285   7.261   5.064   8.225
89130SOL     OW69286  10.274  11.703   0.095
89130SOL    HW169287  10.276  11.608   0.103
89130SOL    HW269288  10.184  11.723   0.070
89131SOL     OW69289  14.719  10.184   2.733
89131SOL    HW169290  14.624  10.178   2.743
89131SOL    HW269291  14.740  10.275   2.755
89132SOL     OW69292   4.441   1.772   0.316
89132SOL    HW169293   4.505   1.843   0.309
89132SOL    HW269294   4.481   1.699   0.270
89133SOL     OW69295  12.705  12.214   8.614
89133SOL    HW169296  12.622  12.167   8.616
89133SOL    HW269297  12.726  12.222   8.521
89134SOL     OW69298  11.823  13.974   3.029
89134SOL    HW169299  11.874  13.931   3.098
89134SOL    HW269300  11.753  13.912   3.009
89135SOL     OW69301   1.958  14.377   0.697
89135SOL    HW169302   1.962  14.375   0.793
89135SOL    HW269303   1.902  14.303   0.674
89136SOL     OW69304   0.911  10.934   6.733
89136SOL    HW169305   0.834  10.917   6.678
89136SOL    HW269306   0.954  10.849   6.741
89137SOL     OW69307   4.695  10.828   3.184
89137SOL    HW169308   4.625  10.889   3.209
89137SOL    HW269309   4.702  10.768   3.258
89138SOL     OW69310  13.397  13.308   9.280
89138SOL    HW169311  13.325  13.361   9.315
89138SOL    HW269312  13.356  13.226   9.252
89139SOL     OW69313   8.454  11.718   1.268
89139SOL    HW169314   8.548  11.721   1.288
89139SOL    HW269315   8.450  11.687   1.177
89140SOL     OW69316   4.386   9.633   7.903
89140SOL    HW169317   4.330   9.617   7.980
89140SOL    HW269318   4.328   9.676   7.840
89141SOL     OW69319   1.536   8.880  14.731
89141SOL    HW169320   1.614   8.925  14.699
89141SOL    HW269321   1.561   8.843  14.815
89142SOL     OW69322   4.290  11.007   0.484
89142SOL    HW169323   4.313  11.039   0.571
89142SOL    HW269324   4.373  10.977   0.446
89143SOL     OW69325   5.669   1.726   2.937
89143SOL    HW169326   5.678   1.636   2.968
89143SOL    HW269327   5.750   1.743   2.890
89144SOL     OW69328  10.604   7.154  12.974
89144SOL    HW169329  10.654   7.219  13.023
89144SOL    HW269330  10.513   7.169  13.000
89145SOL     OW69331  13.686  14.752   6.934
89145SOL    HW169332  13.757  14.809   6.964
89145SOL    HW269333  13.609  14.808   6.931
89146SOL     OW69334   4.206   6.484   1.553
89146SOL    HW169335   4.205   6.493   1.458
89146SOL    HW269336   4.179   6.394   1.570
89147SOL     OW69337   0.409   3.530   5.876
89147SOL    HW169338   0.372   3.567   5.957
89147SOL    HW269339   0.495   3.499   5.902
89148SOL     OW69340  10.591   6.631   2.229
89148SOL    HW169341  10.667   6.574   2.233
89148SOL    HW269342  10.543   6.602   2.152
89149SOL     OW69343   8.058   7.118   0.397
89149SOL    HW169344   7.965   7.119   0.374
89149SOL    HW269345   8.071   7.033   0.438
89150SOL     OW69346   5.816  10.145   7.773
89150SOL    HW169347   5.731  10.111   7.747
89150SOL    HW269348   5.872  10.068   7.781
89151SOL     OW69349  13.230  13.330   9.968
89151SOL    HW169350  13.315  13.369   9.988
89151SOL    HW269351  13.245  13.235   9.971
89152SOL     OW69352   3.981   8.362   2.210
89152SOL    HW169353   3.977   8.340   2.303
89152SOL    HW269354   3.948   8.285   2.165
89153SOL     OW69355   1.310  12.129   4.083
89153SOL    HW169356   1.335  12.150   3.993
89153SOL    HW269357   1.295  12.214   4.124
89154SOL     OW69358  13.186  10.779   3.238
89154SOL    HW169359  13.094  10.754   3.247
89154SOL    HW269360  13.207  10.761   3.147
89155SOL     OW69361   6.091   9.653  10.906
89155SOL    HW169362   6.123   9.742  10.923
89155SOL    HW269363   6.002   9.653  10.942
89156SOL     OW69364  12.502   0.197   8.841
89156SOL    HW169365  12.525   0.106   8.860
89156SOL    HW269366  12.423   0.191   8.788
89157SOL     OW69367  13.400  12.961   2.048
89157SOL    HW169368  13.481  12.917   2.023
89157SOL    HW269369  13.342  12.890   2.076
89158SOL     OW69370   4.925   8.154   6.995
89158SOL    HW169371   4.873   8.150   7.075
89158SOL    HW269372   4.986   8.227   7.010
89159SOL     OW69373  12.181   8.354   0.681
89159SOL    HW169374  12.235   8.316   0.612
89159SOL    HW269375  12.205   8.306   0.759
89160SOL     OW69376  10.018   8.731   0.103
89160SOL    HW169377   9.964   8.735   0.024
89160SOL    HW269378   9.980   8.797   0.161
89161SOL     OW69379   3.148  10.061   9.167
89161SOL    HW169380   3.228  10.058   9.115
89161SOL    HW269381   3.172  10.020   9.250
89162SOL     OW69382   1.556   6.784   8.294
89162SOL    HW169383   1.523   6.697   8.274
89162SOL    HW269384   1.600   6.775   8.378
89163SOL     OW69385  13.587   3.599   1.766
89163SOL    HW169386  13.631   3.645   1.695
89163SOL    HW269387  13.656   3.545   1.805
89164SOL     OW69388   7.940   0.785   5.514
89164SOL    HW169389   7.895   0.724   5.456
89164SOL    HW269390   7.869   0.835   5.555
89165SOL     OW69391  10.117  11.276   3.555
89165SOL    HW169392  10.111  11.181   3.557
89165SOL    HW269393  10.193  11.295   3.500
89166SOL     OW69394  14.729  13.080  12.998
89166SOL    HW169395  14.640  13.080  13.035
89166SOL    HW269396  14.731  13.159  12.943
89167SOL     OW69397   5.096   5.420  11.610
89167SOL    HW169398   5.032   5.364  11.654
89167SOL    HW269399   5.155   5.448  11.680
89168SOL     OW69400  12.385  13.543   4.012
89168SOL    HW169401  12.377  13.637   4.000
89168SOL    HW269402  12.303  13.517   4.053
89169SOL     OW69403   5.146   7.801   1.716
89169SOL    HW169404   5.088   7.862   1.670
89169SOL    HW269405   5.133   7.820   1.808
89170SOL     OW69406  12.226   3.237   0.515
89170SOL    HW169407  12.255   3.204   0.430
89170SOL    HW269408  12.220   3.159   0.570
89171SOL     OW69409   4.686   8.646   1.640
89171SOL    HW169410   4.715   8.591   1.566
89171SOL    HW269411   4.678   8.734   1.603
89172SOL     OW69412   6.374  12.492   6.597
89172SOL    HW169413   6.462  12.480   6.563
89172SOL    HW269414   6.320  12.504   6.519
89173SOL     OW69415   4.356   0.609  12.584
89173SOL    HW169416   4.277   0.582  12.537
89173SOL    HW269417   4.416   0.535  12.574
89174SOL     OW69418   6.685   7.339   1.183
89174SOL    HW169419   6.731   7.318   1.101
89174SOL    HW269420   6.737   7.410   1.222
89175SOL     OW69421  11.375  11.734  13.297
89175SOL    HW169422  11.358  11.778  13.214
89175SOL    HW269423  11.375  11.804  13.362
89176SOL     OW69424   2.203   3.407  12.191
89176SOL    HW169425   2.290   3.411  12.153
89176SOL    HW269426   2.183   3.313  12.194
89177SOL     OW69427   7.882   0.966   0.796
89177SOL    HW169428   7.805   1.009   0.759
89177SOL    HW269429   7.945   1.037   0.809
89178SOL     OW69430  12.192  13.372  10.427
89178SOL    HW169431  12.156  13.458  10.448
89178SOL    HW269432  12.276  13.390  10.384
89179SOL     OW69433  10.140  11.876  10.426
89179SOL    HW169434  10.074  11.822  10.383
89179SOL    HW269435  10.205  11.893  10.358
89180SOL     OW69436   8.014   5.409  10.901
89180SOL    HW169437   8.021   5.449  10.815
89180SOL    HW269438   7.923   5.382  10.909
89181SOL     OW69439   6.143  13.533  13.080
89181SOL    HW169440   6.059  13.508  13.119
89181SOL    HW269441   6.123  13.609  13.026
89182SOL     OW69442  13.463  12.375   7.855
89182SOL    HW169443  13.446  12.353   7.764
89182SOL    HW269444  13.441  12.295   7.903
89183SOL     OW69445   2.343  11.211  13.890
89183SOL    HW169446   2.418  11.262  13.859
89183SOL    HW269447   2.342  11.226  13.985
89184SOL     OW69448  12.386   1.986  11.815
89184SOL    HW169449  12.432   1.945  11.888
89184SOL    HW269450  12.376   2.077  11.842
89185SOL     OW69451  14.827  14.534   9.016
89185SOL    HW169452  14.774  14.612   8.999
89185SOL    HW269453  14.788  14.494   9.093
89186SOL     OW69454   0.379   4.429   3.599
89186SOL    HW169455   0.425   4.449   3.518
89186SOL    HW269456   0.447   4.395   3.657
89187SOL     OW69457   7.898   0.249   8.037
89187SOL    HW169458   7.980   0.238   8.085
89187SOL    HW269459   7.923   0.296   7.957
89188SOL     OW69460   9.531   8.372   5.991
89188SOL    HW169461   9.501   8.374   6.081
89188SOL    HW269462   9.619   8.334   5.996
89189SOL     OW69463  12.210  12.546  12.322
89189SOL    HW169464  12.258  12.548  12.239
89189SOL    HW269465  12.119  12.531  12.295
89190SOL     OW69466  13.822  12.143  12.340
89190SOL    HW169467  13.848  12.233  12.360
89190SOL    HW269468  13.841  12.132  12.247
89191SOL     OW69469   4.763  11.758  12.931
89191SOL    HW169470   4.680  11.787  12.969
89191SOL    HW269471   4.746  11.751  12.837
89192SOL     OW69472   2.532   7.038   8.285
89192SOL    HW169473   2.448   7.001   8.258
89192SOL    HW269474   2.516   7.075   8.371
89193SOL     OW69475   0.100   8.328   2.131
89193SOL    HW169476   0.144   8.410   2.106
89193SOL    HW269477   0.170   8.274   2.169
89194SOL     OW69478   3.272   7.640   7.115
89194SOL    HW169479   3.281   7.719   7.168
89194SOL    HW269480   3.271   7.671   7.025
89195SOL     OW69481  13.123   5.716   1.084
89195SOL    HW169482  13.115   5.795   1.030
89195SOL    HW269483  13.034   5.684   1.093
89196SOL     OW69484   4.517   9.004   3.857
89196SOL    HW169485   4.450   8.975   3.795
89196SOL    HW269486   4.540   8.925   3.907
89197SOL     OW69487   1.829   3.134   6.857
89197SOL    HW169488   1.867   3.049   6.835
89197SOL    HW269489   1.880   3.197   6.806
89198SOL     OW69490   1.533   6.797   6.827
89198SOL    HW169491   1.489   6.859   6.886
89198SOL    HW269492   1.617   6.838   6.808
89199SOL     OW69493  11.646   1.140  14.159
89199SOL    HW169494  11.693   1.168  14.237
89199SOL    HW269495  11.706   1.158  14.087
89200SOL     OW69496  11.618   0.894   0.495
89200SOL    HW169497  11.553   0.959   0.523
89200SOL    HW269498  11.574   0.846   0.425
89201SOL     OW69499   8.630   6.598   2.043
89201SOL    HW169500   8.614   6.634   1.956
89201SOL    HW269501   8.694   6.529   2.029
89202SOL     OW69502  14.853  12.999  12.291
89202SOL    HW169503  14.829  13.091  12.277
89202SOL    HW269504   0.011  12.972  12.209
89203SOL     OW69505  12.184  12.651   3.526
89203SOL    HW169506  12.122  12.631   3.596
89203SOL    HW269507  12.191  12.747   3.528
89204SOL     OW69508   2.152  14.478   7.817
89204SOL    HW169509   2.224  14.480   7.754
89204SOL    HW269510   2.193  14.450   7.899
89205SOL     OW69511   0.018  12.383   2.236
89205SOL    HW169512  14.817  12.343   2.209
89205SOL    HW269513  14.875  12.467   2.274
89206SOL     OW69514   7.485   1.820  13.231
89206SOL    HW169515   7.418   1.758  13.203
89206SOL    HW269516   7.568   1.775  13.214
89207SOL     OW69517   1.841  12.418  13.319
89207SOL    HW169518   1.889  12.400  13.238
89207SOL    HW269519   1.901  12.472  13.371
89208SOL     OW69520   6.906  12.961   2.406
89208SOL    HW169521   6.999  12.980   2.401
89208SOL    HW269522   6.873  13.018   2.476
89209SOL     OW69523   6.878   6.430  14.351
89209SOL    HW169524   6.906   6.358  14.408
89209SOL    HW269525   6.849   6.498  14.411
89210SOL     OW69526   7.631  10.669  14.360
89210SOL    HW169527   7.661  10.759  14.370
89210SOL    HW269528   7.625  10.656  14.266
89211SOL     OW69529   8.402   6.765   9.159
89211SOL    HW169530   8.431   6.856   9.173
89211SOL    HW269531   8.463   6.713   9.212
89212SOL     OW69532   3.161   8.605   6.856
89212SOL    HW169533   3.205   8.521   6.868
89212SOL    HW269534   3.083   8.584   6.804
89213SOL     OW69535  13.425  10.814  14.802
89213SOL    HW169536  13.436  10.727  14.763
89213SOL    HW269537  13.478  10.812  14.881
89214SOL     OW69538   4.646   7.095  12.864
89214SOL    HW169539   4.605   7.181  12.852
89214SOL    HW269540   4.699   7.105  12.943
89215SOL     OW69541   1.631   7.869   3.817
89215SOL    HW169542   1.543   7.888   3.785
89215SOL    HW269543   1.662   7.798   3.760
89216SOL     OW69544   8.997   6.973  10.900
89216SOL    HW169545   9.002   6.934  10.987
89216SOL    HW269546   9.083   7.014  10.887
89217SOL     OW69547   5.697   2.400   7.135
89217SOL    HW169548   5.651   2.334   7.187
89217SOL    HW269549   5.668   2.484   7.171
89218SOL     OW69550   0.102  11.747   4.927
89218SOL    HW169551   0.006  11.742   4.925
89218SOL    HW269552   0.127  11.690   4.999
89219SOL     OW69553   8.595  14.147   1.365
89219SOL    HW169554   8.530  14.216   1.350
89219SOL    HW269555   8.545  14.074   1.400
89220SOL     OW69556   6.231  11.302   1.111
89220SOL    HW169557   6.191  11.279   1.195
89220SOL    HW269558   6.157  11.322   1.055
89221SOL     OW69559   0.164   9.639   1.700
89221SOL    HW169560   0.080   9.675   1.669
89221SOL    HW269561   0.139   9.562   1.752
89222SOL     OW69562   0.180  13.698  13.715
89222SOL    HW169563   0.248  13.716  13.780
89222SOL    HW269564   0.221  13.637  13.654
89223SOL     OW69565   6.467  12.300  13.540
89223SOL    HW169566   6.469  12.382  13.590
89223SOL    HW269567   6.375  12.274  13.540
89224SOL     OW69568   8.803   5.914  10.097
89224SOL    HW169569   8.759   5.974  10.156
89224SOL    HW269570   8.732   5.869  10.051
89225SOL     OW69571   1.395   1.519   1.191
89225SOL    HW169572   1.475   1.571   1.183
89225SOL    HW269573   1.387   1.500   1.284
89226SOL     OW69574   2.031   2.537  12.868
89226SOL    HW169575   1.964   2.473  12.892
89226SOL    HW269576   2.110   2.506  12.913
89227SOL     OW69577   2.329  10.734   6.466
89227SOL    HW169578   2.244  10.700   6.437
89227SOL    HW269579   2.357  10.791   6.395
89228SOL     OW69580   0.755   6.082   1.912
89228SOL    HW169581   0.693   6.009   1.914
89228SOL    HW269582   0.837   6.044   1.945
89229SOL     OW69583  14.480   9.095   4.034
89229SOL    HW169584  14.546   9.164   4.039
89229SOL    HW269585  14.475   9.059   4.123
89230SOL     OW69586  11.410   2.628   3.214
89230SOL    HW169587  11.504   2.643   3.201
89230SOL    HW269588  11.406   2.572   3.291
89231SOL     OW69589   6.244   3.814   4.624
89231SOL    HW169590   6.298   3.894   4.628
89231SOL    HW269591   6.299   3.751   4.577
89232SOL     OW69592   1.266   2.451   2.883
89232SOL    HW169593   1.215   2.432   2.961
89232SOL    HW269594   1.208   2.428   2.810
89233SOL     OW69595  14.283   0.543   3.209
89233SOL    HW169596  14.272   0.637   3.223
89233SOL    HW269597  14.201   0.516   3.167
89234SOL     OW69598   9.134   3.009  10.589
89234SOL    HW169599   9.184   2.928  10.599
89234SOL    HW269600   9.065   2.987  10.526
89235SOL     OW69601  10.696   2.431   2.130
89235SOL    HW169602  10.666   2.453   2.218
89235SOL    HW269603  10.623   2.457   2.073
89236SOL     OW69604   9.171   6.589   4.315
89236SOL    HW169605   9.133   6.527   4.377
89236SOL    HW269606   9.264   6.593   4.339
89237SOL     OW69607  13.771   5.676  10.490
89237SOL    HW169608  13.697   5.737  10.489
89237SOL    HW269609  13.828   5.709  10.560
89238SOL     OW69610   4.051   4.628  12.728
89238SOL    HW169611   4.036   4.593  12.640
89238SOL    HW269612   4.107   4.704  12.714
89239SOL     OW69613  12.263   1.706   7.756
89239SOL    HW169614  12.173   1.714   7.787
89239SOL    HW269615  12.311   1.667   7.830
89240SOL     OW69616  12.696   6.369   1.568
89240SOL    HW169617  12.635   6.380   1.641
89240SOL    HW269618  12.753   6.446   1.573
89241SOL     OW69619  13.411  12.010  13.193
89241SOL    HW169620  13.395  12.051  13.277
89241SOL    HW269621  13.348  11.938  13.189
89242SOL     OW69622   7.290   6.253   8.457
89242SOL    HW169623   7.212   6.198   8.448
89242SOL    HW269624   7.363   6.194   8.438
89243SOL     OW69625   1.079   0.998   8.822
89243SOL    HW169626   1.150   1.054   8.853
89243SOL    HW269627   1.020   1.058   8.775
89244SOL     OW69628   7.318   7.874   5.319
89244SOL    HW169629   7.378   7.947   5.302
89244SOL    HW269630   7.233   7.915   5.329
89245SOL     OW69631   8.062  14.102  10.302
89245SOL    HW169632   8.148  14.127  10.337
89245SOL    HW269633   8.031  14.034  10.362
89246SOL     OW69634  12.906   8.999  10.343
89246SOL    HW169635  12.981   8.939  10.347
89246SOL    HW269636  12.855   8.969  10.268
89247SOL     OW69637   8.441   9.863  14.785
89247SOL    HW169638   8.388   9.791  14.749
89247SOL    HW269639   8.390   9.896  14.859
89248SOL     OW69640   0.166  14.712   3.422
89248SOL    HW169641   0.071  14.698   3.431
89248SOL    HW269642   0.199  14.629   3.386
89249SOL     OW69643   8.512   0.033   1.602
89249SOL    HW169644   8.492   0.126   1.593
89249SOL    HW269645   8.433  14.871   1.570
89250SOL     OW69646  14.064   0.171   4.621
89250SOL    HW169647  14.080   0.139   4.710
89250SOL    HW269648  14.013   0.102   4.579
89251SOL     OW69649   1.631   6.541   0.712
89251SOL    HW169650   1.567   6.596   0.667
89251SOL    HW269651   1.705   6.599   0.730
89252SOL     OW69652   7.263   6.805   4.004
89252SOL    HW169653   7.178   6.770   3.978
89252SOL    HW269654   7.257   6.898   3.982
89253SOL     OW69655   4.681  11.348   2.521
89253SOL    HW169656   4.591  11.376   2.505
89253SOL    HW269657   4.674  11.281   2.589
89254SOL     OW69658  11.923   8.931   9.696
89254SOL    HW169659  11.851   8.963   9.641
89254SOL    HW269660  12.002   8.949   9.645
89255SOL     OW69661   7.378   2.909   1.217
89255SOL    HW169662   7.363   2.820   1.187
89255SOL    HW269663   7.448   2.942   1.161
89256SOL     OW69664  13.578  14.599   2.699
89256SOL    HW169665  13.564  14.505   2.712
89256SOL    HW269666  13.669  14.614   2.724
89257SOL     OW69667   7.080   1.373   0.472
89257SOL    HW169668   7.038   1.301   0.424
89257SOL    HW269669   7.105   1.435   0.404
89258SOL     OW69670   7.183  14.190   7.109
89258SOL    HW169671   7.188  14.280   7.143
89258SOL    HW269672   7.097  14.185   7.066
89259SOL     OW69673   7.254   5.371   8.078
89259SOL    HW169674   7.261   5.287   8.123
89259SOL    HW269675   7.191   5.356   8.008
89260SOL     OW69676   5.758   0.659   3.131
89260SOL    HW169677   5.686   0.643   3.193
89260SOL    HW269678   5.735   0.742   3.089
89261SOL     OW69679  10.963   9.574   0.004
89261SOL    HW169680  10.949   9.588  14.793
89261SOL    HW269681  11.058   9.560   0.012
89262SOL     OW69682  11.287   1.776  14.270
89262SOL    HW169683  11.320   1.725  14.196
89262SOL    HW269684  11.220   1.833  14.232
89263SOL     OW69685   9.431   3.073   6.337
89263SOL    HW169686   9.402   3.137   6.402
89263SOL    HW269687   9.366   3.078   6.267
89264SOL     OW69688  10.537   8.019   5.760
89264SOL    HW169689  10.515   7.969   5.682
89264SOL    HW269690  10.539   8.110   5.731
89265SOL     OW69691  14.355   7.745  13.089
89265SOL    HW169692  14.372   7.676  13.024
89265SOL    HW269693  14.395   7.824  13.052
89266SOL     OW69694   4.127  14.452   8.040
89266SOL    HW169695   4.066  14.417   8.104
89266SOL    HW269696   4.147  14.540   8.072
89267SOL     OW69697   8.836   0.648   1.625
89267SOL    HW169698   8.844   0.627   1.718
89267SOL    HW269699   8.797   0.569   1.587
89268SOL     OW69700   0.272  10.217   6.300
89268SOL    HW169701   0.215  10.190   6.228
89268SOL    HW269702   0.316  10.296   6.268
89269SOL     OW69703   2.683  13.600  13.792
89269SOL    HW169704   2.750  13.647  13.743
89269SOL    HW269705   2.718  13.511  13.801
89270SOL     OW69706  10.081   9.127  11.682
89270SOL    HW169707  10.099   9.212  11.721
89270SOL    HW269708  10.063   9.146  11.590
89271SOL     OW69709   3.755   1.536  13.272
89271SOL    HW169710   3.754   1.631  13.268
89271SOL    HW269711   3.701   1.515  13.349
89272SOL     OW69712  14.210   4.684  11.655
89272SOL    HW169713  14.283   4.734  11.693
89272SOL    HW269714  14.204   4.606  11.710
89273SOL     OW69715  12.795  11.302  10.699
89273SOL    HW169716  12.707  11.319  10.664
89273SOL    HW269717  12.806  11.365  10.769
89274SOL     OW69718  13.314   8.225  10.952
89274SOL    HW169719  13.299   8.191  10.864
89274SOL    HW269720  13.231   8.266  10.976
89275SOL     OW69721   7.725   6.669   5.009
89275SOL    HW169722   7.732   6.574   5.017
89275SOL    HW269723   7.644   6.682   4.959
89276SOL     OW69724   5.444   3.406   7.593
89276SOL    HW169725   5.370   3.353   7.623
89276SOL    HW269726   5.442   3.484   7.648
89277SOL     OW69727   8.137   9.066   7.340
89277SOL    HW169728   8.072   9.037   7.404
89277SOL    HW269729   8.089   9.126   7.283
89278SOL     OW69730  12.743   3.086   4.186
89278SOL    HW169731  12.728   2.994   4.207
89278SOL    HW269732  12.716   3.133   4.265
89279SOL     OW69733  11.547  10.709   0.044
89279SOL    HW169734  11.568  10.801   0.028
89279SOL    HW269735  11.534  10.671  14.839
89280SOL     OW69736  10.365   7.196   4.002
89280SOL    HW169737  10.403   7.113   4.031
89280SOL    HW269738  10.279   7.198   4.043
89281SOL     OW69739   8.267   9.276   9.866
89281SOL    HW169740   8.244   9.359   9.907
89281SOL    HW269741   8.318   9.300   9.788
89282SOL     OW69742   7.129  11.258   7.909
89282SOL    HW169743   7.071  11.195   7.866
89282SOL    HW269744   7.206  11.206   7.934
89283SOL     OW69745   9.468  13.786  11.119
89283SOL    HW169746   9.547  13.837  11.099
89283SOL    HW269747   9.482  13.702  11.075
89284SOL     OW69748   8.364  12.495   7.766
89284SOL    HW169749   8.316  12.576   7.751
89284SOL    HW269750   8.334  12.436   7.696
89285SOL     OW69751   5.351  10.703   8.631
89285SOL    HW169752   5.413  10.640   8.667
89285SOL    HW269753   5.309  10.656   8.559
89286SOL     OW69754   6.160   3.562   4.959
89286SOL    HW169755   6.207   3.538   4.879
89286SOL    HW269756   6.078   3.600   4.927
89287SOL     OW69757   3.724   8.441   2.487
89287SOL    HW169758   3.689   8.367   2.437
89287SOL    HW269759   3.696   8.425   2.577
89288SOL     OW69760   8.074   0.784  14.802
89288SOL    HW169761   8.081   0.794   0.015
89288SOL    HW269762   8.084   0.872  14.767
89289SOL     OW69763  13.914   0.593   9.543
89289SOL    HW169764  13.975   0.571   9.473
89289SOL    HW269765  13.875   0.676   9.516
89290SOL     OW69766   6.081   4.899   2.446
89290SOL    HW169767   6.163   4.927   2.406
89290SOL    HW269768   6.061   4.968   2.509
89291SOL     OW69769   8.073   7.357   9.763
89291SOL    HW169770   8.028   7.441   9.770
89291SOL    HW269771   8.165   7.379   9.779
89292SOL     OW69772  12.212   4.620  10.387
89292SOL    HW169773  12.227   4.712  10.369
89292SOL    HW269774  12.259   4.574  10.318
89293SOL     OW69775  12.404  12.081   4.990
89293SOL    HW169776  12.334  12.044   5.045
89293SOL    HW269777  12.384  12.175   4.987
89294SOL     OW69778  10.337   9.495   1.967
89294SOL    HW169779  10.358   9.402   1.976
89294SOL    HW269780  10.421   9.536   1.945
89295SOL     OW69781   4.417   5.375   7.229
89295SOL    HW169782   4.384   5.422   7.152
89295SOL    HW269783   4.512   5.374   7.216
89296SOL     OW69784  14.577   6.148  12.599
89296SOL    HW169785  14.597   6.059  12.628
89296SOL    HW269786  14.584   6.202  12.678
89297SOL     OW69787   3.129   9.917  10.908
89297SOL    HW169788   3.051   9.874  10.944
89297SOL    HW269789   3.197   9.902  10.974
89298SOL     OW69790  10.116   7.110   5.413
89298SOL    HW169791  10.054   7.063   5.468
89298SOL    HW269792  10.083   7.098   5.324
89299SOL     OW69793   0.502   3.803   6.297
89299SOL    HW169794   0.498   3.797   6.393
89299SOL    HW269795   0.534   3.892   6.281
89300SOL     OW69796  10.488   4.571  12.640
89300SOL    HW169797  10.571   4.539  12.605
89300SOL    HW269798  10.423   4.544  12.576
89301SOL     OW69799   7.131  13.497   4.235
89301SOL    HW169800   7.146  13.531   4.323
89301SOL    HW269801   7.068  13.558   4.196
89302SOL     OW69802   2.371   0.452  14.279
89302SOL    HW169803   2.405   0.369  14.247
89302SOL    HW269804   2.406   0.517  14.218
89303SOL     OW69805   0.898   1.968  14.385
89303SOL    HW169806   0.822   1.946  14.439
89303SOL    HW269807   0.875   2.051  14.343
89304SOL     OW69808  12.250  13.671   5.885
89304SOL    HW169809  12.241  13.638   5.796
89304SOL    HW269810  12.241  13.766   5.876
89305SOL     OW69811  11.555   5.134   1.029
89305SOL    HW169812  11.607   5.066   1.071
89305SOL    HW269813  11.596   5.216   1.056
89306SOL     OW69814   9.184   3.153   8.233
89306SOL    HW169815   9.231   3.233   8.208
89306SOL    HW269816   9.106   3.153   8.177
89307SOL     OW69817  13.988  11.125   3.061
89307SOL    HW169818  14.004  11.066   3.135
89307SOL    HW269819  13.968  11.066   2.988
89308SOL     OW69820   3.567   9.612   9.679
89308SOL    HW169821   3.573   9.581   9.770
89308SOL    HW269822   3.522   9.696   9.686
89309SOL     OW69823   6.152  10.569   4.117
89309SOL    HW169824   6.176  10.623   4.192
89309SOL    HW269825   6.226  10.509   4.105
89310SOL     OW69826   2.712   2.514  12.761
89310SOL    HW169827   2.729   2.571  12.686
89310SOL    HW269828   2.769   2.548  12.830
89311SOL     OW69829   7.542   0.950   5.401
89311SOL    HW169830   7.621   0.907   5.369
89311SOL    HW269831   7.472   0.916   5.347
89312SOL     OW69832  13.697   8.272   4.782
89312SOL    HW169833  13.758   8.317   4.723
89312SOL    HW269834  13.610   8.302   4.754
89313SOL     OW69835   2.191   7.404  14.031
89313SOL    HW169836   2.193   7.317  13.992
89313SOL    HW269837   2.101   7.434  14.019
89314SOL     OW69838   3.405  14.840   8.178
89314SOL    HW169839   3.477   0.019   8.169
89314SOL    HW269840   3.385  14.841   8.272
89315SOL     OW69841   3.180   8.128   5.705
89315SOL    HW169842   3.230   8.084   5.774
89315SOL    HW269843   3.144   8.057   5.652
89316SOL     OW69844   9.794   6.766   4.784
89316SOL    HW169845   9.734   6.821   4.732
89316SOL    HW269846   9.830   6.703   4.721
89317SOL     OW69847   1.106   9.580  11.440
89317SOL    HW169848   1.100   9.635  11.362
89317SOL    HW269849   1.180   9.617  11.490
89318SOL     OW69850   1.699  13.138  14.787
89318SOL    HW169851   1.674  13.229  14.801
89318SOL    HW269852   1.781  13.129  14.836
89319SOL     OW69853  12.860   8.618   7.171
89319SOL    HW169854  12.848   8.531   7.209
89319SOL    HW269855  12.809   8.616   7.091
89320SOL     OW69856  11.940   7.062   7.817
89320SOL    HW169857  11.935   7.044   7.723
89320SOL    HW269858  11.859   7.027   7.853
89321SOL     OW69859   7.950   0.021  12.653
89321SOL    HW169860   7.930   0.070  12.573
89321SOL    HW269861   7.865  14.878  12.688
89322SOL     OW69862   3.397   4.347  14.278
89322SOL    HW169863   3.488   4.365  14.254
89322SOL    HW269864   3.403   4.281  14.347
89323SOL     OW69865  12.746  14.588   4.139
89323SOL    HW169866  12.775  14.590   4.048
89323SOL    HW269867  12.683  14.660   4.146
89324SOL     OW69868   1.057   9.836   9.293
89324SOL    HW169869   1.078   9.795   9.377
89324SOL    HW269870   1.067   9.930   9.310
89325SOL     OW69871   3.819   0.950  14.296
89325SOL    HW169872   3.726   0.965  14.279
89325SOL    HW269873   3.829   0.963  14.390
89326SOL     OW69874   9.294  12.141   0.320
89326SOL    HW169875   9.299  12.139   0.416
89326SOL    HW269876   9.330  12.226   0.296
89327SOL     OW69877   4.872  10.216   0.187
89327SOL    HW169878   4.838  10.188   0.271
89327SOL    HW269879   4.795  10.226   0.131
89328SOL     OW69880  13.001   0.861   7.105
89328SOL    HW169881  13.096   0.854   7.112
89328SOL    HW269882  12.986   0.946   7.064
89329SOL     OW69883   1.829  13.297   8.121
89329SOL    HW169884   1.775  13.219   8.109
89329SOL    HW269885   1.839  13.306   8.216
89330SOL     OW69886  12.473   2.329   6.999
89330SOL    HW169887  12.447   2.422   7.002
89330SOL    HW269888  12.390   2.282   7.001
89331SOL     OW69889   7.761   6.898   9.037
89331SOL    HW169890   7.758   6.992   9.055
89331SOL    HW269891   7.806   6.860   9.113
89332SOL     OW69892   0.511   7.323   2.168
89332SOL    HW169893   0.518   7.246   2.225
89332SOL    HW269894   0.506   7.287   2.080
89333SOL     OW69895   6.629   9.519   2.877
89333SOL    HW169896   6.603   9.598   2.923
89333SOL    HW269897   6.584   9.524   2.792
89334SOL     OW69898   6.460  13.873   4.886
89334SOL    HW169899   6.459  13.965   4.912
89334SOL    HW269900   6.501  13.873   4.799
89335SOL     OW69901   1.946  10.442   5.528
89335SOL    HW169902   1.909  10.529   5.513
89335SOL    HW269903   2.009  10.430   5.457
89336SOL     OW69904   5.210   3.666   5.565
89336SOL    HW169905   5.153   3.740   5.583
89336SOL    HW269906   5.158   3.589   5.590
89337SOL     OW69907   1.128   6.429  13.468
89337SOL    HW169908   1.163   6.342  13.446
89337SOL    HW269909   1.077   6.414  13.548
89338SOL     OW69910   8.719   8.033   9.663
89338SOL    HW169911   8.782   8.088   9.617
89338SOL    HW269912   8.636   8.049   9.619
89339SOL     OW69913   6.371   5.147   7.907
89339SOL    HW169914   6.357   5.054   7.926
89339SOL    HW269915   6.283   5.181   7.889
89340SOL     OW69916   1.605  12.839   2.487
89340SOL    HW169917   1.698  12.829   2.504
89340SOL    HW269918   1.600  12.900   2.414
89341SOL     OW69919   6.982   5.914   2.898
89341SOL    HW169920   6.950   5.994   2.941
89341SOL    HW269921   6.903   5.864   2.877
89342SOL     OW69922   5.996  14.235   3.079
89342SOL    HW169923   6.063  14.296   3.109
89342SOL    HW269924   5.925  14.243   3.143
89343SOL     OW69925   7.550  13.638  14.395
89343SOL    HW169926   7.596  13.680  14.322
89343SOL    HW269927   7.620  13.599  14.447
89344SOL     OW69928  14.565  12.321   4.599
89344SOL    HW169929  14.592  12.249   4.542
89344SOL    HW269930  14.643  12.376   4.607
89345SOL     OW69931   4.148   1.763   5.771
89345SOL    HW169932   4.174   1.741   5.860
89345SOL    HW269933   4.112   1.851   5.778
89346SOL     OW69934  14.013   4.921  10.490
89346SOL    HW169935  13.937   4.880  10.449
89346SOL    HW269936  14.017   5.008  10.450
89347SOL     OW69937  12.325  14.174   1.675
89347SOL    HW169938  12.272  14.156   1.753
89347SOL    HW269939  12.281  14.126   1.605
89348SOL     OW69940   5.633  13.913   1.040
89348SOL    HW169941   5.605  13.855   0.970
89348SOL    HW269942   5.571  13.899   1.111
89349SOL     OW69943  14.754   7.267   2.645
89349SOL    HW169944  14.797   7.308   2.720
89349SOL    HW269945  14.820   7.265   2.576
89350SOL     OW69946  13.608   9.617   0.042
89350SOL    HW169947  13.575   9.678   0.108
89350SOL    HW269948  13.666   9.669  14.869
89351SOL     OW69949   6.432   0.227   2.455
89351SOL    HW169950   6.396   0.302   2.502
89351SOL    HW269951   6.518   0.256   2.425
89352SOL     OW69952   0.639   0.759   6.447
89352SOL    HW169953   0.544   0.760   6.445
89352SOL    HW269954   0.665   0.851   6.447
89353SOL     OW69955   6.933   1.462  10.652
89353SOL    HW169956   6.903   1.402  10.584
89353SOL    HW269957   6.901   1.548  10.625
89354SOL     OW69958   8.876   5.321  11.733
89354SOL    HW169959   8.839   5.238  11.764
89354SOL    HW269960   8.801   5.377  11.717
89355SOL     OW69961   8.239  10.174  12.812
89355SOL    HW169962   8.222  10.260  12.775
89355SOL    HW269963   8.298  10.131  12.749
89356SOL     OW69964   9.396  12.694   5.808
89356SOL    HW169965   9.315  12.650   5.782
89356SOL    HW269966   9.427  12.738   5.728
89357SOL     OW69967   2.053   5.725  12.501
89357SOL    HW169968   2.115   5.690  12.437
89357SOL    HW269969   2.034   5.814  12.471
89358SOL     OW69970   1.901   3.781   3.065
89358SOL    HW169971   1.912   3.731   2.984
89358SOL    HW269972   1.943   3.727   3.132
89359SOL     OW69973   9.952   7.588  10.567
89359SOL    HW169974   9.859   7.564  10.563
89359SOL    HW269975   9.956   7.652  10.639
89360SOL     OW69976   3.048   6.725  11.476
89360SOL    HW169977   3.121   6.718  11.414
89360SOL    HW269978   3.059   6.811  11.517
89361SOL     OW69979  14.286  14.016  12.251
89361SOL    HW169980  14.225  13.950  12.219
89361SOL    HW269981  14.351  13.966  12.301
89362SOL     OW69982   4.269  14.226   8.065
89362SOL    HW169983   4.246  14.316   8.043
89362SOL    HW269984   4.254  14.176   7.985
89363SOL     OW69985  12.271   4.593   1.741
89363SOL    HW169986  12.334   4.617   1.808
89363SOL    HW269987  12.186   4.590   1.786
89364SOL     OW69988   1.335  12.572  12.022
89364SOL    HW169989   1.403  12.585  12.088
89364SOL    HW269990   1.295  12.488  12.045
89365SOL     OW69991   1.298   3.567   0.685
89365SOL    HW169992   1.292   3.487   0.634
89365SOL    HW269993   1.237   3.628   0.643
89366SOL     OW69994  13.318   9.603   2.813
89366SOL    HW169995  13.241   9.579   2.761
89366SOL    HW269996  13.392   9.595   2.752
89367SOL     OW69997   2.960  10.638   2.083
89367SOL    HW169998   2.902  10.710   2.103
89367SOL    HW269999   2.906  10.559   2.093
89368SOL     OW70000   9.581  14.405   1.549
89368SOL    HW170001   9.652  14.463   1.522
89368SOL    HW270002   9.505  14.435   1.498
89369SOL     OW70003   1.171  10.499   4.678
89369SOL    HW170004   1.129  10.560   4.740
89369SOL    HW270005   1.157  10.539   4.592
89370SOL     OW70006  13.756   7.633   3.584
89370SOL    HW170007  13.715   7.650   3.668
89370SOL    HW270008  13.777   7.539   3.586
89371SOL     OW70009   1.238  13.643  13.192
89371SOL    HW170010   1.305  13.712  13.191
89371SOL    HW270011   1.211  13.635  13.100
89372SOL     OW70012   4.277   0.525   4.583
89372SOL    HW170013   4.367   0.548   4.563
89372SOL    HW270014   4.238   0.502   4.498
89373SOL     OW70015   8.502   7.715  14.214
89373SOL    HW170016   8.415   7.720  14.175
89373SOL    HW270017   8.523   7.622  14.214
89374SOL     OW70018   8.147   5.466  13.817
89374SOL    HW170019   8.174   5.541  13.871
89374SOL    HW270020   8.221   5.454  13.756
89375SOL     OW70021   7.209  13.975  10.499
89375SOL    HW170022   7.268  13.977  10.575
89375SOL    HW270023   7.241  14.046  10.443
89376SOL     OW70024  11.188   7.217  14.292
89376SOL    HW170025  11.268   7.203  14.241
89376SOL    HW270026  11.206   7.295  14.344
89377SOL     OW70027  10.885   5.151   4.329
89377SOL    HW170028  10.945   5.168   4.256
89377SOL    HW270029  10.863   5.058   4.320
89378SOL     OW70030   9.482   8.461   4.641
89378SOL    HW170031   9.536   8.496   4.570
89378SOL    HW270032   9.511   8.509   4.719
89379SOL     OW70033   7.320   8.060  12.668
89379SOL    HW170034   7.302   8.003  12.593
89379SOL    HW270035   7.335   8.146  12.629
89380SOL     OW70036   4.267  12.069  13.405
89380SOL    HW170037   4.340  12.048  13.346
89380SOL    HW270038   4.216  12.135  13.358
89381SOL     OW70039   9.761   4.116  12.802
89381SOL    HW170040   9.807   4.083  12.725
89381SOL    HW270041   9.829   4.156  12.856
89382SOL     OW70042   1.511  12.676   6.326
89382SOL    HW170043   1.493  12.606   6.388
89382SOL    HW270044   1.467  12.648   6.245
89383SOL     OW70045  14.686  13.255  14.450
89383SOL    HW170046  14.622  13.190  14.423
89383SOL    HW270047  14.768  13.228  14.407
89384SOL     OW70048   3.594  10.741  14.004
89384SOL    HW170049   3.661  10.766  14.067
89384SOL    HW270050   3.575  10.822  13.956
89385SOL     OW70051   9.738   9.168  14.393
89385SOL    HW170052   9.730   9.251  14.346
89385SOL    HW270053   9.823   9.174  14.437
89386SOL     OW70054  10.478   8.135   6.156
89386SOL    HW170055  10.473   8.225   6.124
89386SOL    HW270056  10.558   8.099   6.117
89387SOL     OW70057   9.996  10.287   8.109
89387SOL    HW170058   9.932  10.256   8.044
89387SOL    HW270059   9.989  10.223   8.180
89388SOL     OW70060   3.508  11.442   7.335
89388SOL    HW170061   3.533  11.412   7.248
89388SOL    HW270062   3.558  11.386   7.395
89389SOL     OW70063  11.485   7.609  12.127
89389SOL    HW170064  11.391   7.600  12.145
89389SOL    HW270065  11.508   7.696  12.158
89390SOL     OW70066   9.404   1.195   2.489
89390SOL    HW170067   9.321   1.225   2.451
89390SOL    HW270068   9.387   1.105   2.516
89391SOL     OW70069  11.848   2.879   3.328
89391SOL    HW170070  11.834   2.972   3.349
89391SOL    HW270071  11.844   2.834   3.412
89392SOL     OW70072   6.573   3.459  12.169
89392SOL    HW170073   6.662   3.424  12.181
89392SOL    HW270074   6.516   3.385  12.187
89393SOL     OW70075   8.349   5.347   5.134
89393SOL    HW170076   8.330   5.439   5.114
89393SOL    HW270077   8.358   5.306   5.048
89394SOL     OW70078   2.300  10.747  10.225
89394SOL    HW170079   2.330  10.769  10.314
89394SOL    HW270080   2.303  10.831  10.178
89395SOL     OW70081   6.256   3.004   2.624
89395SOL    HW170082   6.174   3.048   2.601
89395SOL    HW270083   6.229   2.927   2.673
89396SOL     OW70084   4.758  10.708   2.476
89396SOL    HW170085   4.697  10.769   2.435
89396SOL    HW270086   4.835  10.760   2.498
89397SOL     OW70087  11.096   1.542   6.732
89397SOL    HW170088  11.179   1.539   6.779
89397SOL    HW270089  11.121   1.534   6.640
89398SOL     OW70090   6.984   3.408   9.415
89398SOL    HW170091   7.078   3.427   9.412
89398SOL    HW270092   6.979   3.312   9.416
89399SOL     OW70093   5.227  13.363  10.178
89399SOL    HW170094   5.296  13.310  10.218
89399SOL    HW270095   5.152  13.352  10.236
89400SOL     OW70096  14.079  14.250  11.051
89400SOL    HW170097  14.142  14.295  10.995
89400SOL    HW270098  14.021  14.204  10.991
89401SOL     OW70099   1.298   3.232   0.035
89401SOL    HW170100   1.347   3.150   0.041
89401SOL    HW270101   1.207   3.206   0.044
89402SOL     OW70102  10.210  10.247   9.537
89402SOL    HW170103  10.130  10.254   9.590
89402SOL    HW270104  10.247  10.162   9.561
89403SOL     OW70105  12.130   9.445   6.879
89403SOL    HW170106  12.213   9.453   6.925
89403SOL    HW270107  12.154   9.413   6.792
89404SOL     OW70108   3.565   6.131   6.172
89404SOL    HW170109   3.544   6.039   6.156
89404SOL    HW270110   3.590   6.165   6.086
89405SOL     OW70111   1.829  14.054   2.712
89405SOL    HW170112   1.828  13.974   2.764
89405SOL    HW270113   1.813  14.026   2.622
89406SOL     OW70114  13.638  13.612   9.832
89406SOL    HW170115  13.665  13.521   9.817
89406SOL    HW270116  13.719  13.661   9.841
89407SOL     OW70117   6.607   9.255  10.092
89407SOL    HW170118   6.618   9.171  10.049
89407SOL    HW270119   6.661   9.250  10.171
89408SOL     OW70120   4.721   3.556   1.506
89408SOL    HW170121   4.719   3.511   1.422
89408SOL    HW270122   4.633   3.544   1.541
89409SOL     OW70123   1.793   0.396  11.913
89409SOL    HW170124   1.801   0.336  11.988
89409SOL    HW270125   1.735   0.465  11.944
89410SOL     OW70126  13.950   3.104   7.527
89410SOL    HW170127  13.940   3.067   7.439
89410SOL    HW270128  14.035   3.072   7.557
89411SOL     OW70129   6.705   5.055   1.366
89411SOL    HW170130   6.700   5.124   1.432
89411SOL    HW270131   6.788   5.073   1.321
89412SOL     OW70132   1.791   8.947  14.697
89412SOL    HW170133   1.876   8.903  14.685
89412SOL    HW270134   1.808   9.015  14.762
89413SOL     OW70135  13.335   4.214  13.847
89413SOL    HW170136  13.413   4.200  13.793
89413SOL    HW270137  13.370   4.241  13.932
89414SOL     OW70138  12.010   7.153   8.304
89414SOL    HW170139  12.106   7.152   8.299
89414SOL    HW270140  11.983   7.066   8.275
89415SOL     OW70141   7.690   1.474   0.827
89415SOL    HW170142   7.619   1.493   0.888
89415SOL    HW270143   7.710   1.381   0.841
89416SOL     OW70144  11.215  12.765  11.021
89416SOL    HW170145  11.215  12.804  10.933
89416SOL    HW270146  11.293  12.709  11.022
89417SOL     OW70147   9.669  14.575   7.704
89417SOL    HW170148   9.648  14.484   7.725
89417SOL    HW270149   9.740  14.598   7.764
89418SOL     OW70150   9.929   2.996   1.554
89418SOL    HW170151   9.934   3.005   1.649
89418SOL    HW270152   9.890   3.077   1.523
89419SOL     OW70153   8.357   1.711   6.173
89419SOL    HW170154   8.299   1.670   6.109
89419SOL    HW270155   8.413   1.639   6.203
89420SOL     OW70156   5.635   4.938   4.007
89420SOL    HW170157   5.609   4.929   4.099
89420SOL    HW270158   5.696   4.866   3.993
89421SOL     OW70159   5.278  11.006   7.702
89421SOL    HW170160   5.215  11.036   7.768
89421SOL    HW270161   5.227  10.999   7.622
89422SOL     OW70162   7.592   1.832   5.557
89422SOL    HW170163   7.512   1.856   5.604
89422SOL    HW270164   7.660   1.828   5.625
89423SOL     OW70165   8.869   6.675  10.200
89423SOL    HW170166   8.881   6.729  10.122
89423SOL    HW270167   8.790   6.711  10.241
89424SOL     OW70168  13.746   5.277  14.402
89424SOL    HW170169  13.729   5.286  14.496
89424SOL    HW270170  13.743   5.367  14.369
89425SOL     OW70171   2.187   8.414   6.916
89425SOL    HW170172   2.111   8.472   6.919
89425SOL    HW270173   2.209   8.399   7.008
89426SOL     OW70174   7.406   6.431   4.928
89426SOL    HW170175   7.423   6.469   4.842
89426SOL    HW270176   7.382   6.505   4.983
89427SOL     OW70177   6.158   6.734   6.369
89427SOL    HW170178   6.224   6.717   6.435
89427SOL    HW270179   6.187   6.813   6.324
89428SOL     OW70180   0.438   7.735  12.822
89428SOL    HW170181   0.451   7.675  12.748
89428SOL    HW270182   0.344   7.752  12.823
89429SOL     OW70183   4.188  13.281  13.806
89429SOL    HW170184   4.111  13.237  13.770
89429SOL    HW270185   4.262  13.239  13.763
89430SOL     OW70186  10.618   4.789   7.908
89430SOL    HW170187  10.692   4.823   7.958
89430SOL    HW270188  10.605   4.700   7.940
89431SOL     OW70189  10.593  14.404   8.608
89431SOL    HW170190  10.590  14.309   8.591
89431SOL    HW270191  10.535  14.417   8.683
89432SOL     OW70192  13.774   3.901   4.254
89432SOL    HW170193  13.784   3.990   4.220
89432SOL    HW270194  13.856   3.884   4.300
89433SOL     OW70195   5.963   9.926   2.126
89433SOL    HW170196   5.887   9.927   2.184
89433SOL    HW270197   5.949   9.850   2.069
89434SOL     OW70198   1.186   1.379  13.698
89434SOL    HW170199   1.230   1.299  13.727
89434SOL    HW270200   1.169   1.428  13.779
89435SOL     OW70201   3.483  11.912   6.745
89435SOL    HW170202   3.504  11.858   6.669
89435SOL    HW270203   3.407  11.963   6.718
89436SOL     OW70204   5.344   1.276  14.183
89436SOL    HW170205   5.317   1.342  14.247
89436SOL    HW270206   5.374   1.202  14.236
89437SOL     OW70207  13.005   2.260  12.177
89437SOL    HW170208  13.064   2.299  12.113
89437SOL    HW270209  12.965   2.335  12.222
89438SOL     OW70210   5.318  11.498   5.731
89438SOL    HW170211   5.225  11.501   5.753
89438SOL    HW270212   5.329  11.564   5.662
89439SOL     OW70213   5.237  10.841   3.630
89439SOL    HW170214   5.252  10.788   3.552
89439SOL    HW270215   5.210  10.926   3.596
89440SOL     OW70216   8.351   1.902   5.456
89440SOL    HW170217   8.390   1.954   5.385
89440SOL    HW270218   8.320   1.967   5.519
89441SOL     OW70219   5.253  11.172   4.299
89441SOL    HW170220   5.233  11.247   4.356
89441SOL    HW270221   5.221  11.197   4.213
89442SOL     OW70222   6.192   7.064   7.858
89442SOL    HW170223   6.129   7.088   7.926
89442SOL    HW270224   6.214   6.972   7.877
89443SOL     OW70225  14.640   9.069   6.377
89443SOL    HW170226  14.679   9.139   6.429
89443SOL    HW270227  14.712   9.007   6.364
89444SOL     OW70228   7.219   9.320   6.114
89444SOL    HW170229   7.171   9.397   6.143
89444SOL    HW270230   7.298   9.355   6.072
89445SOL     OW70231   2.589   6.301  11.005
89445SOL    HW170232   2.566   6.265  11.091
89445SOL    HW270233   2.569   6.231  10.943
89446SOL     OW70234  12.917  11.496  14.204
89446SOL    HW170235  12.996  11.467  14.159
89446SOL    HW270236  12.890  11.422  14.257
89447SOL     OW70237   1.134  12.759   9.663
89447SOL    HW170238   1.105  12.850   9.661
89447SOL    HW270239   1.149  12.736   9.571
89448SOL     OW70240  13.024   9.097   5.430
89448SOL    HW170241  12.972   9.017   5.428
89448SOL    HW270242  13.115   9.066   5.430
89449SOL     OW70243  11.622   6.702   9.629
89449SOL    HW170244  11.561   6.632   9.608
89449SOL    HW270245  11.580   6.782   9.597
89450SOL     OW70246   3.771  11.346  12.738
89450SOL    HW170247   3.694  11.306  12.699
89450SOL    HW270248   3.743  11.435  12.761
89451SOL     OW70249   2.276   4.703   2.382
89451SOL    HW170250   2.184   4.680   2.395
89451SOL    HW270251   2.323   4.655   2.450
89452SOL     OW70252   2.458   4.488   9.232
89452SOL    HW170253   2.502   4.573   9.240
89452SOL    HW270254   2.391   4.489   9.301
89453SOL     OW70255   5.034   2.358   9.447
89453SOL    HW170256   5.020   2.273   9.405
89453SOL    HW270257   4.954   2.374   9.496
89454SOL     OW70258  12.458  10.501   5.035
89454SOL    HW170259  12.396  10.454   5.091
89454SOL    HW270260  12.539  10.502   5.086
89455SOL     OW70261  12.827   7.908   4.564
89455SOL    HW170262  12.805   7.866   4.646
89455SOL    HW270263  12.747   7.952   4.536
89456SOL     OW70264   2.212   8.777  10.101
89456SOL    HW170265   2.226   8.800  10.193
89456SOL    HW270266   2.201   8.682  10.102
89457SOL     OW70267   9.010   2.121  12.458
89457SOL    HW170268   9.021   2.200  12.405
89457SOL    HW270269   9.042   2.146  12.545
89458SOL     OW70270   3.018  11.221   1.865
89458SOL    HW170271   3.033  11.257   1.952
89458SOL    HW270272   3.104  11.222   1.823
89459SOL     OW70273  13.418   0.014   5.177
89459SOL    HW170274  13.461   0.041   5.095
89459SOL    HW270275  13.424   0.091   5.234
89460SOL     OW70276   2.269   4.842  11.664
89460SOL    HW170277   2.242   4.934  11.654
89460SOL    HW270278   2.196   4.792  11.626
89461SOL     OW70279   9.597  12.323   7.355
89461SOL    HW170280   9.594  12.415   7.329
89461SOL    HW270281   9.653  12.282   7.289
89462SOL     OW70282   8.483  10.789   6.940
89462SOL    HW170283   8.572  10.763   6.964
89462SOL    HW270284   8.493  10.833   6.856
89463SOL     OW70285   0.125  10.199   8.706
89463SOL    HW170286   0.209  10.166   8.739
89463SOL    HW270287   0.065  10.190   8.780
89464SOL     OW70288   9.771   7.415  13.933
89464SOL    HW170289   9.677   7.396  13.928
89464SOL    HW270290   9.776   7.503  13.971
89465SOL     OW70291  12.364  13.793  10.960
89465SOL    HW170292  12.444  13.759  10.922
89465SOL    HW270293  12.376  13.786  11.055
89466SOL     OW70294   4.394  13.548   5.151
89466SOL    HW170295   4.308  13.527   5.188
89466SOL    HW270296   4.413  13.636   5.186
89467SOL     OW70297   2.701   5.767   4.912
89467SOL    HW170298   2.637   5.836   4.931
89467SOL    HW270299   2.650   5.686   4.916
89468SOL     OW70300  14.138  14.265   5.583
89468SOL    HW170301  14.187  14.186   5.559
89468SOL    HW270302  14.051  14.251   5.547
89469SOL     OW70303  12.602   8.641   4.953
89469SOL    HW170304  12.576   8.677   4.868
89469SOL    HW270305  12.592   8.547   4.944
89470SOL     OW70306   8.601   8.129   3.990
89470SOL    HW170307   8.662   8.165   4.054
89470SOL    HW270308   8.528   8.097   4.042
89471SOL     OW70309   4.565   8.937   5.521
89471SOL    HW170310   4.617   8.978   5.590
89471SOL    HW270311   4.625   8.876   5.478
89472SOL     OW70312   7.889   7.518   4.153
89472SOL    HW170313   7.983   7.505   4.140
89472SOL    HW270314   7.881   7.557   4.240
89473SOL     OW70315  11.024   9.468   6.227
89473SOL    HW170316  11.062   9.436   6.309
89473SOL    HW270317  11.043   9.561   6.227
89474SOL     OW70318   3.522  11.291   9.175
89474SOL    HW170319   3.441  11.321   9.134
89474SOL    HW270320   3.590  11.308   9.110
89475SOL     OW70321   3.352   2.966   4.253
89475SOL    HW170322   3.404   2.888   4.268
89475SOL    HW270323   3.411   3.039   4.274
89476SOL     OW70324   2.033  11.418   8.960
89476SOL    HW170325   2.016  11.431   8.867
89476SOL    HW270326   1.946  11.409   8.999
89477SOL     OW70327   8.498  11.659   1.933
89477SOL    HW170328   8.558  11.712   1.881
89477SOL    HW270329   8.552  11.586   1.965
89478SOL     OW70330  14.643   7.433   6.769
89478SOL    HW170331  14.700   7.379   6.715
89478SOL    HW270332  14.660   7.523   6.739
89479SOL     OW70333  10.727   8.206   0.465
89479SOL    HW170334  10.700   8.123   0.427
89479SOL    HW270335  10.718   8.269   0.394
89480SOL     OW70336  13.482   7.202  14.605
89480SOL    HW170337  13.546   7.199  14.676
89480SOL    HW270338  13.527   7.251  14.536
89481SOL     OW70339  14.719  14.362   2.355
89481SOL    HW170340  14.724  14.441   2.409
89481SOL    HW270341  14.763  14.295   2.406
89482SOL     OW70342  10.061   1.236   0.674
89482SOL    HW170343  10.056   1.310   0.734
89482SOL    HW270344   9.989   1.250   0.612
89483SOL     OW70345  14.845  11.112  10.348
89483SOL    HW170346  14.772  11.070  10.394
89483SOL    HW270347   0.040  11.088  10.399
89484SOL     OW70348   5.086   2.697  14.842
89484SOL    HW170349   5.024   2.674  14.773
89484SOL    HW270350   5.064   2.639   0.032
89485SOL     OW70351  12.906  13.390  14.418
89485SOL    HW170352  12.982  13.354  14.372
89485SOL    HW270353  12.833  13.377  14.357
89486SOL     OW70354   0.222  14.430   9.675
89486SOL    HW170355   0.305  14.389   9.653
89486SOL    HW270356   0.239  14.524   9.669
89487SOL     OW70357  14.598   0.372   5.020
89487SOL    HW170358  14.604   0.277   5.025
89487SOL    HW270359  14.669   0.398   4.962
89488SOL     OW70360   1.831   0.695   9.375
89488SOL    HW170361   1.903   0.680   9.437
89488SOL    HW270362   1.852   0.639   9.301
89489SOL     OW70363   5.654  13.259   4.805
89489SOL    HW170364   5.661  13.182   4.749
89489SOL    HW270365   5.592  13.234   4.873
89490SOL     OW70366   3.463  11.196  11.090
89490SOL    HW170367   3.384  11.240  11.120
89490SOL    HW270368   3.434  11.108  11.065
89491SOL     OW70369   4.613   1.361   5.088
89491SOL    HW170370   4.636   1.395   5.002
89491SOL    HW270371   4.663   1.414   5.150
89492SOL     OW70372   3.163  13.113   5.040
89492SOL    HW170373   3.119  13.185   4.993
89492SOL    HW270374   3.233  13.086   4.980
89493SOL     OW70375   7.471  12.937  11.490
89493SOL    HW170376   7.407  12.870  11.514
89493SOL    HW270377   7.542  12.926  11.554
89494SOL     OW70378   2.046   1.567  10.778
89494SOL    HW170379   1.961   1.580  10.736
89494SOL    HW270380   2.043   1.477  10.811
89495SOL     OW70381  10.751  11.011  11.020
89495SOL    HW170382  10.706  10.952  11.080
89495SOL    HW270383  10.840  10.976  11.013
89496SOL     OW70384  11.023   8.664   6.001
89496SOL    HW170385  10.982   8.578   6.007
89496SOL    HW270386  11.002   8.694   5.912
89497SOL     OW70387   4.041   6.817  10.598
89497SOL    HW170388   4.104   6.873  10.552
89497SOL    HW270389   4.076   6.809  10.687
89498SOL     OW70390   2.367  14.494   5.118
89498SOL    HW170391   2.377  14.589   5.121
89498SOL    HW270392   2.382  14.471   5.027
89499SOL     OW70393   9.781   1.095   5.266
89499SOL    HW170394   9.799   1.133   5.352
89499SOL    HW270395   9.727   1.018   5.284
89500SOL     OW70396   6.634   7.637   8.156
89500SOL    HW170397   6.605   7.546   8.157
89500SOL    HW270398   6.656   7.656   8.247
89501SOL     OW70399   0.990   0.198   8.927
89501SOL    HW170400   0.915   0.241   8.968
89501SOL    HW270401   1.037   0.157   8.999
89502SOL     OW70402   1.753  11.629   4.365
89502SOL    HW170403   1.715  11.656   4.282
89502SOL    HW270404   1.840  11.596   4.343
89503SOL     OW70405   3.404  13.198   2.303
89503SOL    HW170406   3.341  13.263   2.334
89503SOL    HW270407   3.490  13.235   2.325
89504SOL     OW70408  11.718   0.549  12.519
89504SOL    HW170409  11.656   0.485  12.555
89504SOL    HW270410  11.779   0.566  12.590
89505SOL     OW70411   7.138  12.746   2.611
89505SOL    HW170412   7.128  12.669   2.554
89505SOL    HW270413   7.146  12.710   2.699
89506SOL     OW70414   5.382   9.854   9.934
89506SOL    HW170415   5.405   9.826  10.023
89506SOL    HW270416   5.420   9.942   9.927
89507SOL     OW70417   1.136   4.726  12.268
89507SOL    HW170418   1.189   4.783  12.323
89507SOL    HW270419   1.099   4.661  12.328
89508SOL     OW70420  10.127   7.631  10.816
89508SOL    HW170421  10.116   7.694  10.745
89508SOL    HW270422  10.038   7.605  10.840
89509SOL     OW70423  12.953  13.026   7.466
89509SOL    HW170424  12.897  13.085   7.416
89509SOL    HW270425  13.025  13.081   7.498
89510SOL     OW70426   9.311   7.714   4.340
89510SOL    HW170427   9.314   7.720   4.435
89510SOL    HW270428   9.372   7.781   4.310
89511SOL     OW70429   4.015   8.594   1.891
89511SOL    HW170430   3.930   8.636   1.891
89511SOL    HW270431   4.032   8.573   1.799
89512SOL     OW70432  12.798   7.700   0.281
89512SOL    HW170433  12.863   7.676   0.215
89512SOL    HW270434  12.828   7.656   0.361
89513SOL     OW70435   1.236   1.663   3.070
89513SOL    HW170436   1.277   1.617   3.144
89513SOL    HW270437   1.177   1.599   3.032
89514SOL     OW70438  12.684   3.113  11.344
89514SOL    HW170439  12.761   3.163  11.370
89514SOL    HW270440  12.650   3.159  11.267
89515SOL     OW70441  10.789  11.610   1.508
89515SOL    HW170442  10.779  11.666   1.585
89515SOL    HW270443  10.829  11.666   1.442
89516SOL     OW70444  11.783  14.795  10.918
89516SOL    HW170445  11.742  14.776  11.003
89516SOL    HW270446  11.807  14.709  10.884
89517SOL     OW70447   4.807   7.111  13.076
89517SOL    HW170448   4.767   7.197  13.089
89517SOL    HW270449   4.884   7.112  13.132
89518SOL     OW70450  12.792   9.109  14.479
89518SOL    HW170451  12.749   9.123  14.563
89518SOL    HW270452  12.752   9.029  14.444
89519SOL     OW70453   9.598  11.003  12.647
89519SOL    HW170454   9.557  10.942  12.586
89519SOL    HW270455   9.685  10.967  12.661
89520SOL     OW70456  12.582  13.491  10.648
89520SOL    HW170457  12.590  13.396  10.636
89520SOL    HW270458  12.594  13.527  10.560
89521SOL     OW70459  12.281   4.840   5.629
89521SOL    HW170460  12.345   4.872   5.693
89521SOL    HW270461  12.281   4.906   5.560
89522SOL     OW70462   0.477   9.249   0.695
89522SOL    HW170463   0.572   9.237   0.705
89522SOL    HW270464   0.440   9.206   0.772
89523SOL     OW70465   0.854   3.474   3.214
89523SOL    HW170466   0.859   3.556   3.263
89523SOL    HW270467   0.875   3.406   3.279
89524SOL     OW70468   8.516   3.054   1.400
89524SOL    HW170469   8.510   3.081   1.491
89524SOL    HW270470   8.564   3.125   1.357
89525SOL     OW70471   8.748   2.345  14.539
89525SOL    HW170472   8.841   2.368  14.532
89525SOL    HW270473   8.734   2.282  14.469
89526SOL     OW70474   0.832   5.875  12.719
89526SOL    HW170475   0.897   5.944  12.703
89526SOL    HW270476   0.772   5.881  12.644
89527SOL     OW70477   4.623   3.609  10.137
89527SOL    HW170478   4.608   3.686  10.082
89527SOL    HW270479   4.578   3.538  10.091
89528SOL     OW70480  11.278   4.218  14.790
89528SOL    HW170481  11.188   4.243  14.810
89528SOL    HW270482  11.282   4.124  14.808
89529SOL     OW70483   6.606   7.269  12.764
89529SOL    HW170484   6.560   7.212  12.825
89529SOL    HW270485   6.697   7.266  12.792
89530SOL     OW70486   1.052   8.893   1.601
89530SOL    HW170487   0.992   8.879   1.675
89530SOL    HW270488   1.134   8.919   1.642
89531SOL     OW70489   3.538   7.895   6.323
89531SOL    HW170490   3.551   7.800   6.321
89531SOL    HW270491   3.466   7.911   6.262
89532SOL     OW70492   0.115  12.537  11.262
89532SOL    HW170493   0.178  12.601  11.296
89532SOL    HW270494   0.162  12.454  11.264
89533SOL     OW70495  12.830  13.322  12.305
89533SOL    HW170496  12.811  13.231  12.283
89533SOL    HW270497  12.870  13.318  12.392
89534SOL     OW70498   1.694   6.048   3.383
89534SOL    HW170499   1.734   5.989   3.319
89534SOL    HW270500   1.744   6.129   3.375
89535SOL     OW70501  12.931   9.134   1.460
89535SOL    HW170502  12.911   9.113   1.369
89535SOL    HW270503  13.021   9.103   1.473
89536SOL     OW70504  14.115   7.233   6.770
89536SOL    HW170505  14.206   7.248   6.746
89536SOL    HW270506  14.119   7.196   6.859
89537SOL     OW70507   8.608   0.466  10.929
89537SOL    HW170508   8.595   0.373  10.916
89537SOL    HW270509   8.649   0.473  11.015
89538SOL     OW70510  11.741   9.651   3.241
89538SOL    HW170511  11.764   9.585   3.176
89538SOL    HW270512  11.669   9.611   3.290
89539SOL     OW70513   1.367   1.039   4.613
89539SOL    HW170514   1.272   1.041   4.622
89539SOL    HW270515   1.396   1.126   4.639
89540SOL     OW70516   8.138   4.400  10.540
89540SOL    HW170517   8.162   4.391  10.632
89540SOL    HW270518   8.209   4.452  10.501
89541SOL     OW70519   4.616   1.852  12.371
89541SOL    HW170520   4.561   1.794  12.422
89541SOL    HW270521   4.650   1.915  12.434
89542SOL     OW70522   1.898   4.811   6.108
89542SOL    HW170523   1.811   4.824   6.145
89542SOL    HW270524   1.885   4.816   6.014
89543SOL     OW70525  10.120  13.599   4.056
89543SOL    HW170526  10.141  13.683   4.097
89543SOL    HW270527  10.073  13.623   3.976
89544SOL     OW70528  12.128   0.667   9.783
89544SOL    HW170529  12.086   0.688   9.699
89544SOL    HW270530  12.203   0.726   9.787
89545SOL     OW70531  14.497  13.873   6.301
89545SOL    HW170532  14.554  13.862   6.226
89545SOL    HW270533  14.507  13.793   6.352
89546SOL     OW70534   7.919   3.153  10.336
89546SOL    HW170535   7.951   3.139  10.425
89546SOL    HW270536   7.934   3.246  10.319
89547SOL     OW70537   9.049   7.642   2.117
89547SOL    HW170538   9.067   7.586   2.041
89547SOL    HW270539   8.983   7.594   2.167
89548SOL     OW70540   1.169  10.657   0.681
89548SOL    HW170541   1.088  10.645   0.730
89548SOL    HW270542   1.216  10.574   0.691
89549SOL     OW70543   3.867   8.089  14.644
89549SOL    HW170544   3.813   8.035  14.702
89549SOL    HW270545   3.908   8.153  14.702
89550SOL     OW70546   9.955   7.296   7.690
89550SOL    HW170547  10.038   7.270   7.651
89550SOL    HW270548   9.971   7.383   7.726
89551SOL     OW70549   6.436   3.298   8.924
89551SOL    HW170550   6.444   3.204   8.907
89551SOL    HW270551   6.435   3.338   8.836
89552SOL     OW70552  11.054   3.532  13.004
89552SOL    HW170553  11.067   3.554  13.096
89552SOL    HW270554  11.111   3.457  12.989
89553SOL     OW70555  11.081  13.453   2.921
89553SOL    HW170556  11.153  13.431   2.861
89553SOL    HW270557  11.084  13.548   2.929
89554SOL     OW70558   8.445   4.048   0.437
89554SOL    HW170559   8.415   4.072   0.350
89554SOL    HW270560   8.435   3.953   0.441
89555SOL     OW70561   5.063  10.798  11.881
89555SOL    HW170562   4.995  10.748  11.835
89555SOL    HW270563   5.048  10.777  11.974
89556SOL     OW70564   1.262   3.056  14.111
89556SOL    HW170565   1.288   3.030  14.022
89556SOL    HW270566   1.205   2.985  14.140
89557SOL     OW70567  14.259   2.649   0.922
89557SOL    HW170568  14.216   2.576   0.879
89557SOL    HW270569  14.352   2.634   0.907
89558SOL     OW70570   7.901  13.575   8.642
89558SOL    HW170571   7.983  13.549   8.684
89558SOL    HW270572   7.911  13.669   8.627
89559SOL     OW70573   1.918   9.359   9.385
89559SOL    HW170574   1.962   9.286   9.340
89559SOL    HW270575   1.861   9.397   9.318
89560SOL     OW70576  12.438   7.238  12.357
89560SOL    HW170577  12.387   7.239  12.438
89560SOL    HW270578  12.500   7.311  12.367
89561SOL     OW70579   1.978  10.487  12.728
89561SOL    HW170580   1.950  10.416  12.670
89561SOL    HW270581   2.061  10.457  12.765
89562SOL     OW70582  12.710  10.736   8.550
89562SOL    HW170583  12.728  10.656   8.501
89562SOL    HW270584  12.796  10.762   8.585
89563SOL     OW70585   2.039   7.026   1.375
89563SOL    HW170586   2.103   7.095   1.359
89563SOL    HW270587   2.089   6.955   1.415
89564SOL     OW70588   9.646   4.104   5.818
89564SOL    HW170589   9.550   4.099   5.822
89564SOL    HW270590   9.665   4.143   5.733
89565SOL     OW70591   1.173   8.339   7.121
89565SOL    HW170592   1.093   8.378   7.087
89565SOL    HW270593   1.147   8.297   7.203
89566SOL     OW70594  13.283   3.763   6.529
89566SOL    HW170595  13.199   3.737   6.492
89566SOL    HW270596  13.265   3.847   6.572
89567SOL     OW70597   9.302   0.955   7.498
89567SOL    HW170598   9.349   0.872   7.499
89567SOL    HW270599   9.212   0.932   7.522
89568SOL     OW70600   1.486   5.813  12.606
89568SOL    HW170601   1.465   5.722  12.588
89568SOL    HW270602   1.558   5.834  12.547
89569SOL     OW70603   2.627   2.812  13.916
89569SOL    HW170604   2.611   2.757  13.840
89569SOL    HW270605   2.597   2.899  13.890
89570SOL     OW70606   5.679   0.763   8.637
89570SOL    HW170607   5.748   0.827   8.653
89570SOL    HW270608   5.599   0.815   8.636
89571SOL     OW70609  13.496   0.361   3.526
89571SOL    HW170610  13.409   0.324   3.539
89571SOL    HW270611  13.496   0.393   3.436
89572SOL     OW70612   8.769   9.930   1.373
89572SOL    HW170613   8.777  10.000   1.437
89572SOL    HW270614   8.828   9.861   1.406
89573SOL     OW70615  11.682   5.471  10.708
89573SOL    HW170616  11.613   5.491  10.644
89573SOL    HW270617  11.676   5.541  10.773
89574SOL     OW70618  11.778  10.483  13.474
89574SOL    HW170619  11.824  10.534  13.541
89574SOL    HW270620  11.766  10.544  13.401
89575SOL     OW70621   7.690  11.585   5.410
89575SOL    HW170622   7.614  11.577   5.468
89575SOL    HW270623   7.675  11.518   5.343
89576SOL     OW70624   9.852   1.090   8.351
89576SOL    HW170625   9.843   1.023   8.418
89576SOL    HW270626   9.946   1.097   8.336
89577SOL     OW70627   8.726  13.800   3.960
89577SOL    HW170628   8.721  13.728   4.024
89577SOL    HW270629   8.696  13.760   3.878
89578SOL     OW70630   6.669   5.946   3.633
89578SOL    HW170631   6.604   6.017   3.636
89578SOL    HW270632   6.753   5.990   3.644
89579SOL     OW70633   0.980   3.636  12.748
89579SOL    HW170634   1.062   3.621  12.796
89579SOL    HW270635   1.008   3.669  12.662
89580SOL     OW70636  13.636   4.733  13.727
89580SOL    HW170637  13.670   4.663  13.672
89580SOL    HW270638  13.685   4.811  13.700
89581SOL     OW70639   8.279  10.731  10.955
89581SOL    HW170640   8.329  10.737  11.037
89581SOL    HW270641   8.322  10.792  10.896
89582SOL     OW70642   8.207   2.395   6.521
89582SOL    HW170643   8.124   2.364   6.484
89582SOL    HW270644   8.183   2.472   6.572
89583SOL     OW70645   2.645   0.062   6.676
89583SOL    HW170646   2.682  14.869   6.722
89583SOL    HW270647   2.599   0.111   6.744
89584SOL     OW70648   0.318   9.506   8.820
89584SOL    HW170649   0.379   9.433   8.806
89584SOL    HW270650   0.289   9.530   8.733
89585SOL     OW70651   1.966   9.897   2.208
89585SOL    HW170652   2.026   9.906   2.134
89585SOL    HW270653   1.933   9.807   2.202
89586SOL     OW70654   4.596  14.018   3.181
89586SOL    HW170655   4.543  13.994   3.105
89586SOL    HW270656   4.629  14.105   3.161
89587SOL     OW70657   3.814   5.285  12.108
89587SOL    HW170658   3.742   5.345  12.127
89587SOL    HW270659   3.863   5.279  12.190
89588SOL     OW70660   3.554  13.992   8.112
89588SOL    HW170661   3.504  13.919   8.076
89588SOL    HW270662   3.646  13.967   8.100
89589SOL     OW70663   6.470   3.239  12.628
89589SOL    HW170664   6.518   3.208  12.551
89589SOL    HW270665   6.378   3.225  12.605
89590SOL     OW70666  13.594  14.226   0.603
89590SOL    HW170667  13.552  14.142   0.588
89590SOL    HW270668  13.623  14.254   0.516
89591SOL     OW70669   2.745   7.756   4.770
89591SOL    HW170670   2.765   7.703   4.847
89591SOL    HW270671   2.759   7.698   4.696
89592SOL     OW70672   7.217  10.212  11.423
89592SOL    HW170673   7.150  10.280  11.421
89592SOL    HW270674   7.266  10.224  11.342
89593SOL     OW70675   5.419  11.719   8.044
89593SOL    HW170676   5.431  11.786   8.111
89593SOL    HW270677   5.333  11.682   8.062
89594SOL     OW70678   5.598   3.387   7.964
89594SOL    HW170679   5.684   3.394   8.006
89594SOL    HW270680   5.588   3.294   7.945
89595SOL     OW70681   4.607  10.672   0.174
89595SOL    HW170682   4.620  10.590   0.222
89595SOL    HW270683   4.515  10.668   0.146
89596SOL     OW70684   2.981   3.625   6.352
89596SOL    HW170685   2.927   3.675   6.414
89596SOL    HW270686   2.958   3.534   6.368
89597SOL     OW70687  11.133   5.572   1.360
89597SOL    HW170688  11.132   5.636   1.431
89597SOL    HW270689  11.100   5.619   1.284
89598SOL     OW70690   4.030   1.162   9.348
89598SOL    HW170691   4.044   1.124   9.261
89598SOL    HW270692   4.054   1.092   9.409
89599SOL     OW70693  10.965   2.462  14.369
89599SOL    HW170694  11.031   2.484  14.303
89599SOL    HW270695  10.932   2.547  14.399
89600SOL     OW70696   6.097   7.234   1.239
89600SOL    HW170697   6.154   7.186   1.179
89600SOL    HW270698   6.042   7.166   1.279
89601SOL     OW70699   1.352   1.300  11.895
89601SOL    HW170700   1.435   1.253  11.906
89601SOL    HW270701   1.373   1.373  11.837
89602SOL     OW70702  13.847   4.833   3.964
89602SOL    HW170703  13.928   4.836   4.015
89602SOL    HW270704  13.843   4.919   3.921
89603SOL     OW70705  11.461   9.385   1.631
89603SOL    HW170706  11.474   9.354   1.720
89603SOL    HW270707  11.399   9.323   1.593
89604SOL     OW70708   0.206  14.604   8.982
89604SOL    HW170709   0.117  14.569   8.992
89604SOL    HW270710   0.204  14.686   9.032
89605SOL     OW70711  12.590   1.454   3.748
89605SOL    HW170712  12.666   1.461   3.690
89605SOL    HW270713  12.520   1.498   3.700
89606SOL     OW70714   8.061   2.666  13.599
89606SOL    HW170715   8.127   2.597  13.594
89606SOL    HW270716   8.082   2.724  13.526
89607SOL     OW70717  12.907  14.309   4.284
89607SOL    HW170718  12.830  14.259   4.310
89607SOL    HW270719  12.976  14.279   4.344
89608SOL     OW70720   2.017   8.266   5.192
89608SOL    HW170721   1.974   8.340   5.149
89608SOL    HW270722   2.106   8.297   5.210
89609SOL     OW70723   5.217   0.372   0.447
89609SOL    HW170724   5.260   0.342   0.527
89609SOL    HW270725   5.288   0.402   0.391
89610SOL     OW70726   9.304  11.028   1.626
89610SOL    HW170727   9.263  10.946   1.597
89610SOL    HW270728   9.395  11.021   1.597
89611SOL     OW70729   3.989   0.894  14.751
89611SOL    HW170730   3.999   0.812  14.798
89611SOL    HW270731   4.016   0.961  14.815
89612SOL     OW70732   6.317   1.244   8.436
89612SOL    HW170733   6.331   1.150   8.444
89612SOL    HW270734   6.288   1.272   8.523
89613SOL     OW70735   6.500   6.789   4.653
89613SOL    HW170736   6.531   6.750   4.734
89613SOL    HW270737   6.520   6.724   4.586
89614SOL     OW70738  10.405   8.685   5.387
89614SOL    HW170739  10.401   8.646   5.474
89614SOL    HW270740  10.313   8.689   5.358
89615SOL     OW70741  11.371   5.460   9.216
89615SOL    HW170742  11.363   5.393   9.148
89615SOL    HW270743  11.402   5.538   9.169
89616SOL     OW70744  11.572   4.505   5.677
89616SOL    HW170745  11.622   4.583   5.703
89616SOL    HW270746  11.481   4.534   5.678
89617SOL     OW70747  10.567  11.565  14.327
89617SOL    HW170748  10.510  11.561  14.404
89617SOL    HW270749  10.576  11.474  14.299
89618SOL     OW70750   6.371  11.033  10.331
89618SOL    HW170751   6.375  10.967  10.400
89618SOL    HW270752   6.324  10.990  10.260
89619SOL     OW70753   3.709  10.400  10.515
89619SOL    HW170754   3.746  10.337  10.455
89619SOL    HW270755   3.670  10.467  10.459
89620SOL     OW70756   3.416   8.476  10.419
89620SOL    HW170757   3.387   8.477  10.328
89620SOL    HW270758   3.502   8.518  10.417
89621SOL     OW70759  14.611  12.299   7.977
89621SOL    HW170760  14.617  12.253   8.061
89621SOL    HW270761  14.674  12.371   7.986
89622SOL     OW70762   3.139  11.341   2.321
89622SOL    HW170763   3.089  11.280   2.374
89622SOL    HW270764   3.230  11.331   2.351
89623SOL     OW70765  10.956   5.898  12.590
89623SOL    HW170766  10.937   5.943  12.672
89623SOL    HW270767  10.929   5.807  12.605
89624SOL     OW70768  11.097   0.225   9.250
89624SOL    HW170769  11.143   0.169   9.187
89624SOL    HW270770  11.166   0.280   9.287
89625SOL     OW70771  12.243  14.178  12.290
89625SOL    HW170772  12.149  14.163  12.281
89625SOL    HW270773  12.251  14.273  12.294
89626SOL     OW70774   3.495  13.489   4.694
89626SOL    HW170775   3.442  13.413   4.673
89626SOL    HW270776   3.584  13.456   4.700
89627SOL     OW70777   8.970   5.443  12.792
89627SOL    HW170778   9.027   5.403  12.727
89627SOL    HW270779   8.996   5.535  12.793
89628SOL     OW70780   0.205   7.417   1.196
89628SOL    HW170781   0.145   7.408   1.122
89628SOL    HW270782   0.286   7.451   1.158
89629SOL     OW70783  11.792  11.302   2.007
89629SOL    HW170784  11.710  11.317   1.960
89629SOL    HW270785  11.804  11.381   2.059
89630SOL     OW70786   8.938  11.146  10.493
89630SOL    HW170787   9.018  11.119  10.538
89630SOL    HW270788   8.915  11.230  10.532
89631SOL     OW70789   3.763  13.208   5.852
89631SOL    HW170790   3.791  13.186   5.941
89631SOL    HW270791   3.828  13.270   5.821
89632SOL     OW70792  14.270   4.096   6.834
89632SOL    HW170793  14.207   4.030   6.863
89632SOL    HW270794  14.265   4.166   6.899
89633SOL     OW70795   6.385  10.526   8.761
89633SOL    HW170796   6.328  10.450   8.765
89633SOL    HW270797   6.408  10.544   8.852
89634SOL     OW70798   3.886   3.070   3.221
89634SOL    HW170799   3.978   3.052   3.205
89634SOL    HW270800   3.885   3.128   3.298
89635SOL     OW70801   3.778  11.751   2.354
89635SOL    HW170802   3.816  11.731   2.268
89635SOL    HW270803   3.750  11.842   2.347
89636SOL     OW70804  12.386   2.601  13.651
89636SOL    HW170805  12.403   2.507  13.660
89636SOL    HW270806  12.434   2.627  13.572
89637SOL     OW70807   5.890  14.441  12.937
89637SOL    HW170808   5.846  14.370  12.985
89637SOL    HW270809   5.973  14.403  12.909
89638SOL     OW70810  12.424  13.988   2.436
89638SOL    HW170811  12.463  13.927   2.374
89638SOL    HW270812  12.496  14.044   2.464
89639SOL     OW70813   9.298  14.168   2.067
89639SOL    HW170814   9.241  14.169   2.144
89639SOL    HW270815   9.367  14.105   2.088
89640SOL     OW70816   0.064   3.581   2.375
89640SOL    HW170817   0.094   3.534   2.297
89640SOL    HW270818   0.095   3.671   2.361
89641SOL     OW70819  10.548   0.832   9.523
89641SOL    HW170820  10.458   0.825   9.554
89641SOL    HW270821  10.541   0.825   9.428
89642SOL     OW70822   0.858  14.767   8.169
89642SOL    HW170823   0.918  14.733   8.235
89642SOL    HW270824   0.884  14.858   8.156
89643SOL     OW70825  14.716   4.712   5.963
89643SOL    HW170826  14.771   4.786   5.989
89643SOL    HW270827  14.626   4.743   5.976
89644SOL     OW70828   8.371  14.624  14.493
89644SOL    HW170829   8.333  14.620  14.406
89644SOL    HW270830   8.401  14.535  14.511
89645SOL     OW70831  10.748   4.535  10.177
89645SOL    HW170832  10.671   4.482  10.155
89645SOL    HW270833  10.738   4.554  10.270
89646SOL     OW70834  12.990   4.834  10.233
89646SOL    HW170835  13.015   4.880  10.313
89646SOL    HW270836  13.016   4.743  10.248
89647SOL     OW70837  10.296  12.803   5.694
89647SOL    HW170838  10.238  12.764   5.629
89647SOL    HW270839  10.353  12.861   5.644
89648SOL     OW70840  13.913  12.315   2.100
89648SOL    HW170841  13.924  12.221   2.113
89648SOL    HW270842  13.854  12.323   2.025
89649SOL     OW70843   0.245  11.206   2.682
89649SOL    HW170844   0.157  11.210   2.644
89649SOL    HW270845   0.275  11.117   2.663
89650SOL     OW70846   1.725   7.496   4.350
89650SOL    HW170847   1.779   7.550   4.292
89650SOL    HW270848   1.669   7.559   4.395
89651SOL     OW70849   6.972   2.698   3.233
89651SOL    HW170850   7.049   2.738   3.274
89651SOL    HW270851   6.977   2.606   3.258
89652SOL     OW70852   9.645   6.666   2.782
89652SOL    HW170853   9.593   6.600   2.827
89652SOL    HW270854   9.595   6.688   2.704
89653SOL     OW70855  13.523   4.200  13.171
89653SOL    HW170856  13.486   4.147  13.101
89653SOL    HW270857  13.609   4.227  13.138
89654SOL     OW70858   3.656   6.904   7.338
89654SOL    HW170859   3.618   6.986   7.369
89654SOL    HW270860   3.701   6.927   7.257
89655SOL     OW70861   4.455   7.336  10.811
89655SOL    HW170862   4.401   7.267  10.774
89655SOL    HW270863   4.393   7.397  10.851
89656SOL     OW70864   2.618   8.102   9.195
89656SOL    HW170865   2.691   8.164   9.200
89656SOL    HW270866   2.564   8.136   9.124
89657SOL     OW70867   4.200  14.038   8.620
89657SOL    HW170868   4.279  13.989   8.597
89657SOL    HW270869   4.150  14.042   8.539
89658SOL     OW70870   2.192  13.417   3.033
89658SOL    HW170871   2.174  13.325   3.052
89658SOL    HW270872   2.192  13.460   3.119
89659SOL     OW70873  14.551   9.261   6.689
89659SOL    HW170874  14.467   9.247   6.732
89659SOL    HW270875  14.561   9.356   6.686
89660SOL     OW70876   6.678   8.155  12.297
89660SOL    HW170877   6.673   8.239  12.252
89660SOL    HW270878   6.663   8.176  12.390
89661SOL     OW70879  11.916   0.840  10.672
89661SOL    HW170880  11.829   0.821  10.707
89661SOL    HW270881  11.971   0.849  10.750
89662SOL     OW70882   3.682  12.524   5.215
89662SOL    HW170883   3.771  12.491   5.221
89662SOL    HW270884   3.640  12.468   5.150
89663SOL     OW70885   7.551   4.007   7.426
89663SOL    HW170886   7.624   4.067   7.435
89663SOL    HW270887   7.522   3.991   7.516
89664SOL     OW70888  10.914  12.334   9.603
89664SOL    HW170889  10.979  12.307   9.668
89664SOL    HW270890  10.830  12.309   9.640
89665SOL     OW70891   8.453   0.863  13.713
89665SOL    HW170892   8.450   0.786  13.656
89665SOL    HW270893   8.468   0.827  13.801
89666SOL     OW70894   8.212  11.078   5.655
89666SOL    HW170895   8.188  11.018   5.725
89666SOL    HW270896   8.150  11.150   5.663
89667SOL     OW70897   3.555   9.525   0.677
89667SOL    HW170898   3.622   9.580   0.636
89667SOL    HW270899   3.597   9.439   0.687
89668SOL     OW70900  12.777   6.718   8.050
89668SOL    HW170901  12.803   6.720   8.142
89668SOL    HW270902  12.692   6.761   8.047
89669SOL     OW70903   8.114   4.108  12.525
89669SOL    HW170904   8.201   4.088  12.559
89669SOL    HW270905   8.128   4.132  12.434
89670SOL     OW70906   1.890   9.430   2.387
89670SOL    HW170907   1.905   9.370   2.460
89670SOL    HW270908   1.803   9.466   2.403
89671SOL     OW70909   5.667   2.332   9.322
89671SOL    HW170910   5.601   2.330   9.391
89671SOL    HW270911   5.617   2.332   9.241
89672SOL     OW70912  10.035  12.467   5.038
89672SOL    HW170913  10.105  12.448   4.975
89672SOL    HW270914   9.965  12.504   4.984
89673SOL     OW70915   4.834   2.331   1.069
89673SOL    HW170916   4.867   2.241   1.071
89673SOL    HW270917   4.865   2.366   0.986
89674SOL     OW70918   6.367   2.511   0.088
89674SOL    HW170919   6.461   2.513   0.074
89674SOL    HW270920   6.331   2.467   0.011
89675SOL     OW70921   7.810  13.983   3.127
89675SOL    HW170922   7.785  14.063   3.081
89675SOL    HW270923   7.748  13.975   3.198
89676SOL     OW70924   2.425   7.954   1.272
89676SOL    HW170925   2.450   8.044   1.293
89676SOL    HW270926   2.330   7.959   1.257
89677SOL     OW70927   6.187   6.576  10.018
89677SOL    HW170928   6.113   6.578  10.078
89677SOL    HW270929   6.185   6.489   9.980
89678SOL     OW70930  13.239  10.754   0.947
89678SOL    HW170931  13.179  10.703   0.893
89678SOL    HW270932  13.182  10.818   0.991
89679SOL     OW70933   3.463  12.977   4.455
89679SOL    HW170934   3.457  12.920   4.379
89679SOL    HW270935   3.528  13.043   4.431
89680SOL     OW70936  13.787  13.603   4.264
89680SOL    HW170937  13.828  13.689   4.277
89680SOL    HW270938  13.748  13.609   4.177
89681SOL     OW70939   5.988   5.477   2.772
89681SOL    HW170940   5.916   5.416   2.757
89681SOL    HW270941   6.006   5.513   2.685
89682SOL     OW70942   2.807   1.888  11.886
89682SOL    HW170943   2.763   1.807  11.910
89682SOL    HW270944   2.780   1.952  11.952
89683SOL     OW70945  14.421   8.207  12.388
89683SOL    HW170946  14.404   8.275  12.323
89683SOL    HW270947  14.363   8.135  12.362
89684SOL     OW70948  10.478   8.293   0.546
89684SOL    HW170949  10.455   8.314   0.455
89684SOL    HW270950  10.544   8.224   0.539
89685SOL     OW70951  14.101   0.796   7.063
89685SOL    HW170952  14.083   0.879   7.108
89685SOL    HW270953  14.038   0.795   6.990
89686SOL     OW70954   3.759  13.244   0.988
89686SOL    HW170955   3.711  13.278   1.064
89686SOL    HW270956   3.848  13.277   1.000
89687SOL     OW70957   4.904   7.110   3.408
89687SOL    HW170958   4.926   7.084   3.497
89687SOL    HW270959   4.915   7.030   3.356
89688SOL     OW70960   2.300   6.493   1.100
89688SOL    HW170961   2.311   6.570   1.155
89688SOL    HW270962   2.372   6.435   1.125
89689SOL     OW70963  10.763  12.542  13.048
89689SOL    HW170964  10.673  12.572  13.047
89689SOL    HW270965  10.792  12.556  13.139
89690SOL     OW70966   9.548   2.114  13.399
89690SOL    HW170967   9.627   2.076  13.437
89690SOL    HW270968   9.580   2.170  13.328
89691SOL     OW70969  12.347  12.033   2.050
89691SOL    HW170970  12.263  11.986   2.050
89691SOL    HW270971  12.350  12.076   1.964
89692SOL     OW70972   8.317   3.191   7.388
89692SOL    HW170973   8.313   3.241   7.307
89692SOL    HW270974   8.319   3.099   7.360
89693SOL     OW70975   5.910   9.957   4.497
89693SOL    HW170976   5.860   9.876   4.504
89693SOL    HW270977   5.989   9.932   4.448
89694SOL     OW70978   8.044   1.921  14.069
89694SOL    HW170979   8.115   1.862  14.042
89694SOL    HW270980   8.055   1.999  14.014
89695SOL     OW70981  11.683  11.943   0.799
89695SOL    HW170982  11.720  12.028   0.774
89695SOL    HW270983  11.759  11.884   0.805
89696SOL     OW70984   5.732   8.119   8.147
89696SOL    HW170985   5.703   8.157   8.230
89696SOL    HW270986   5.785   8.043   8.173
89697SOL     OW70987   3.857   7.943   7.582
89697SOL    HW170988   3.888   7.855   7.560
89697SOL    HW270989   3.872   7.995   7.503
89698SOL     OW70990   8.518   1.116   2.458
89698SOL    HW170991   8.540   1.194   2.508
89698SOL    HW270992   8.449   1.074   2.509
89699SOL     OW70993   3.880  12.286  10.933
89699SOL    HW170994   3.943  12.228  10.975
89699SOL    HW270995   3.803  12.285  10.990
89700SOL     OW70996   2.879   6.163   8.434
89700SOL    HW170997   2.957   6.159   8.379
89700SOL    HW270998   2.909   6.131   8.519
89701SOL     OW70999  10.982   1.130   7.070
89701SOL    HW171000  11.059   1.138   7.126
89701SOL    HW271001  10.979   1.212   7.021
89702SOL     OW71002  14.145  10.047   9.428
89702SOL    HW171003  14.210  10.080   9.366
89702SOL    HW271004  14.076  10.113   9.427
89703SOL     OW71005   1.595  14.679  13.509
89703SOL    HW171006   1.507  14.641  13.506
89703SOL    HW271007   1.635  14.652  13.427
89704SOL     OW71008  11.200  12.519   7.266
89704SOL    HW171009  11.268  12.574   7.227
89704SOL    HW271010  11.198  12.545   7.358
89705SOL     OW71011   4.238  13.415  13.428
89705SOL    HW171012   4.187  13.496  13.428
89705SOL    HW271013   4.298  13.425  13.502
89706SOL     OW71014   9.437   3.341   6.949
89706SOL    HW171015   9.345   3.344   6.974
89706SOL    HW271016   9.477   3.417   6.992
89707SOL     OW71017   2.519   4.196   9.559
89707SOL    HW171018   2.561   4.273   9.522
89707SOL    HW271019   2.490   4.223   9.646
89708SOL     OW71020   0.604  14.003   7.697
89708SOL    HW171021   0.602  14.098   7.709
89708SOL    HW271022   0.578  13.990   7.606
89709SOL     OW71023   8.333   2.404   5.760
89709SOL    HW171024   8.401   2.468   5.778
89709SOL    HW271025   8.261   2.429   5.818
89710SOL     OW71026   0.228  10.106   5.816
89710SOL    HW171027   0.214  10.022   5.772
89710SOL    HW271028   0.262  10.163   5.747
89711SOL     OW71029   5.538   3.898   9.817
89711SOL    HW171030   5.609   3.962   9.826
89711SOL    HW271031   5.581   3.813   9.830
89712SOL     OW71032  12.545   0.780   8.227
89712SOL    HW171033  12.622   0.767   8.282
89712SOL    HW271034  12.572   0.750   8.140
89713SOL     OW71035   0.931   1.350   7.011
89713SOL    HW171036   0.876   1.370   6.935
89713SOL    HW271037   0.891   1.399   7.083
89714SOL     OW71038   3.607   5.618   9.301
89714SOL    HW171039   3.544   5.571   9.247
89714SOL    HW271040   3.680   5.558   9.311
89715SOL     OW71041  11.435   5.666  13.963
89715SOL    HW171042  11.458   5.575  13.981
89715SOL    HW271043  11.349   5.677  14.004
89716SOL     OW71044  12.354   6.365   8.818
89716SOL    HW171045  12.401   6.448   8.816
89716SOL    HW271046  12.262   6.389   8.823
89717SOL     OW71047   8.951   2.524   9.166
89717SOL    HW171048   8.935   2.617   9.151
89717SOL    HW271049   8.979   2.490   9.081
89718SOL     OW71050  11.912  13.296   6.144
89718SOL    HW171051  11.985  13.358   6.134
89718SOL    HW271052  11.898  13.291   6.238
89719SOL     OW71053   9.106   5.182  11.769
89719SOL    HW171054   9.036   5.245  11.754
89719SOL    HW271055   9.172   5.231  11.818
89720SOL     OW71056  14.066   6.022   9.142
89720SOL    HW171057  14.119   6.041   9.220
89720SOL    HW271058  14.055   6.107   9.100
89721SOL     OW71059   7.186  14.627  13.326
89721SOL    HW171060   7.176  14.578  13.408
89721SOL    HW271061   7.178  14.561  13.257
89722SOL     OW71062   7.459   7.802   8.673
89722SOL    HW171063   7.393   7.872   8.676
89722SOL    HW271064   7.476   7.789   8.580
89723SOL     OW71065   6.041  13.078  13.253
89723SOL    HW171066   6.034  12.985  13.232
89723SOL    HW271067   6.040  13.122  13.168
89724SOL     OW71068  14.522  11.808   1.245
89724SOL    HW171069  14.617  11.798   1.241
89724SOL    HW271070  14.504  11.830   1.337
89725SOL     OW71071   3.817  10.915  12.071
89725SOL    HW171072   3.809  10.969  12.150
89725SOL    HW271073   3.906  10.931  12.040
89726SOL     OW71074   2.943   1.339   4.456
89726SOL    HW171075   2.852   1.368   4.457
89726SOL    HW271076   2.982   1.380   4.533
89727SOL     OW71077   8.000   5.085   1.644
89727SOL    HW171078   8.018   5.032   1.567
89727SOL    HW271079   7.909   5.066   1.667
89728SOL     OW71080   9.189  13.998   3.930
89728SOL    HW171081   9.102  13.973   3.899
89728SOL    HW271082   9.184  13.989   4.025
89729SOL     OW71083   5.231  12.767   4.558
89729SOL    HW171084   5.167  12.724   4.614
89729SOL    HW271085   5.226  12.859   4.581
89730SOL     OW71086   1.266  14.113   5.846
89730SOL    HW171087   1.309  14.045   5.795
89730SOL    HW271088   1.181  14.125   5.803
89731SOL     OW71089  13.821  11.453   8.545
89731SOL    HW171090  13.907  11.468   8.584
89731SOL    HW271091  13.817  11.358   8.532
89732SOL     OW71092   3.905  10.918   7.302
89732SOL    HW171093   3.985  10.963   7.329
89732SOL    HW271094   3.926  10.881   7.217
89733SOL     OW71095   9.901   6.616   8.230
89733SOL    HW171096   9.928   6.692   8.179
89733SOL    HW271097   9.837   6.571   8.174
89734SOL     OW71098   7.852   9.453   2.316
89734SOL    HW171099   7.932   9.450   2.368
89734SOL    HW271100   7.799   9.521   2.357
89735SOL     OW71101   6.000   1.473  13.439
89735SOL    HW171102   5.934   1.543  13.433
89735SOL    HW271103   6.028   1.474  13.530
89736SOL     OW71104   3.044   6.681   2.425
89736SOL    HW171105   3.109   6.654   2.491
89736SOL    HW271106   2.992   6.748   2.469
89737SOL     OW71107   7.546   1.189  14.813
89737SOL    HW171108   7.614   1.200  14.746
89737SOL    HW271109   7.467   1.225  14.773
89738SOL     OW71110   2.257  10.294   1.822
89738SOL    HW171111   2.178  10.307   1.770
89738SOL    HW271112   2.228  10.308   1.913
89739SOL     OW71113  11.367   0.065  14.597
89739SOL    HW171114  11.404   0.018  14.523
89739SOL    HW271115  11.272   0.064  14.581
89740SOL     OW71116   4.455   4.368  14.826
89740SOL    HW171117   4.511   4.396  14.754
89740SOL    HW271118   4.505   4.391   0.023
89741SOL     OW71119   3.700  10.811  14.232
89741SOL    HW171120   3.748  10.728  14.232
89741SOL    HW271121   3.642  10.805  14.308
89742SOL     OW71122   0.438  14.684   9.923
89742SOL    HW171123   0.432  14.591   9.948
89742SOL    HW271124   0.425  14.684   9.828
89743SOL     OW71125   2.504  12.072  13.055
89743SOL    HW171126   2.457  12.024  13.123
89743SOL    HW271127   2.435  12.115  13.004
89744SOL     OW71128   8.465   5.281   1.654
89744SOL    HW171129   8.490   5.359   1.703
89744SOL    HW271130   8.387   5.248   1.700
89745SOL     OW71131  11.456   5.783   2.805
89745SOL    HW171132  11.548   5.807   2.820
89745SOL    HW271133  11.453   5.757   2.713
89746SOL     OW71134   7.496  12.778   8.396
89746SOL    HW171135   7.571  12.825   8.358
89746SOL    HW271136   7.504  12.688   8.363
89747SOL     OW71137   2.966  13.870   7.846
89747SOL    HW171138   2.992  13.782   7.820
89747SOL    HW271139   2.988  13.875   7.939
89748SOL     OW71140   8.152   1.341  13.733
89748SOL    HW171141   8.103   1.366  13.811
89748SOL    HW271142   8.224   1.286  13.766
89749SOL     OW71143   3.179   6.941  14.388
89749SOL    HW171144   3.236   6.923  14.463
89749SOL    HW271145   3.124   7.014  14.416
89750SOL     OW71146   3.527   1.986   1.362
89750SOL    HW171147   3.534   2.064   1.417
89750SOL    HW271148   3.616   1.969   1.332
89751SOL     OW71149   8.136   2.834  13.379
89751SOL    HW171150   8.225   2.808  13.403
89751SOL    HW271151   8.138   2.930  13.381
89752SOL     OW71152   6.888  12.360   1.396
89752SOL    HW171153   6.978  12.393   1.395
89752SOL    HW271154   6.883  12.302   1.320
89753SOL     OW71155  12.825   4.032   1.666
89753SOL    HW171156  12.742   4.047   1.620
89753SOL    HW271157  12.800   4.002   1.753
89754SOL     OW71158   8.161   1.003  12.702
89754SOL    HW171159   8.249   1.040  12.701
89754SOL    HW271160   8.118   1.044  12.777
89755SOL     OW71161   7.916  12.201   7.317
89755SOL    HW171162   7.988  12.202   7.380
89755SOL    HW271163   7.860  12.129   7.345
89756SOL     OW71164   7.150  11.021   9.905
89756SOL    HW171165   7.082  11.050   9.845
89756SOL    HW271166   7.105  11.005   9.988
89757SOL     OW71167  14.855   5.564  11.367
89757SOL    HW171168  14.870   5.470  11.364
89757SOL    HW271169  14.785   5.579  11.302
89758SOL     OW71170   8.012  12.899   1.407
89758SOL    HW171171   7.972  12.813   1.395
89758SOL    HW271172   8.095  12.894   1.359
89759SOL     OW71173  13.217  13.657   4.874
89759SOL    HW171174  13.282  13.654   4.804
89759SOL    HW271175  13.262  13.620   4.950
89760SOL     OW71176  11.477   5.182   9.813
89760SOL    HW171177  11.547   5.117   9.821
89760SOL    HW271178  11.419   5.163   9.887
89761SOL     OW71179   7.554  10.317   2.043
89761SOL    HW171180   7.570  10.397   2.092
89761SOL    HW271181   7.560  10.344   1.951
89762SOL     OW71182   9.490  10.024  11.778
89762SOL    HW171183   9.544   9.946  11.787
89762SOL    HW271184   9.551  10.093  11.751
89763SOL     OW71185  11.560   3.436  13.706
89763SOL    HW171186  11.559   3.363  13.644
89763SOL    HW271187  11.499   3.410  13.775
89764SOL     OW71188  14.543   6.083  14.269
89764SOL    HW171189  14.451   6.106  14.285
89764SOL    HW271190  14.580   6.161  14.228
89765SOL     OW71191  13.180  13.255  10.771
89765SOL    HW171192  13.161  13.287  10.859
89765SOL    HW271193  13.238  13.180  10.785
89766SOL     OW71194   6.723   2.506  13.656
89766SOL    HW171195   6.632   2.494  13.681
89766SOL    HW271196   6.742   2.433  13.596
89767SOL     OW71197   2.396  13.892  13.567
89767SOL    HW171198   2.344  13.969  13.592
89767SOL    HW271199   2.413  13.905  13.473
89768SOL     OW71200   5.611   6.645   3.189
89768SOL    HW171201   5.606   6.695   3.108
89768SOL    HW271202   5.591   6.555   3.163
89769SOL     OW71203   9.046  13.564  11.536
89769SOL    HW171204   9.010  13.476  11.542
89769SOL    HW271205   9.134  13.557  11.574
89770SOL     OW71206  13.889   4.906  14.545
89770SOL    HW171207  13.827   4.975  14.522
89770SOL    HW271208  13.896   4.853  14.466
89771SOL     OW71209  11.207   0.517   8.787
89771SOL    HW171210  11.115   0.524   8.810
89771SOL    HW271211  11.207   0.483   8.697
89772SOL     OW71212   7.796  11.000   9.311
89772SOL    HW171213   7.739  10.943   9.363
89772SOL    HW271214   7.737  11.056   9.262
89773SOL     OW71215   6.761   7.792   3.025
89773SOL    HW171216   6.711   7.770   2.947
89773SOL    HW271217   6.838   7.734   3.021
89774SOL     OW71218   9.600   2.039   1.211
89774SOL    HW171219   9.611   2.082   1.296
89774SOL    HW271220   9.594   2.111   1.149
89775SOL     OW71221  10.274   1.834   1.353
89775SOL    HW171222  10.318   1.876   1.427
89775SOL    HW271223  10.264   1.742   1.381
89776SOL     OW71224   7.844   0.105  12.419
89776SOL    HW171225   7.814   0.021  12.383
89776SOL    HW271226   7.910   0.135  12.357
89777SOL     OW71227   4.344   6.422  11.399
89777SOL    HW171228   4.284   6.463  11.337
89777SOL    HW271229   4.419   6.480  11.403
89778SOL     OW71230   8.938   9.022   0.746
89778SOL    HW171231   9.024   8.983   0.763
89778SOL    HW271232   8.944   9.109   0.784
89779SOL     OW71233   6.819   9.497  12.116
89779SOL    HW171234   6.840   9.452  12.198
89779SOL    HW271235   6.904   9.508  12.072
89780SOL     OW71236  12.186  11.212  13.772
89780SOL    HW171237  12.250  11.248  13.834
89780SOL    HW271238  12.224  11.226  13.686
89781SOL     OW71239  11.298   4.550  10.768
89781SOL    HW171240  11.392   4.560  10.777
89781SOL    HW271241  11.280   4.567  10.675
89782SOL     OW71242   7.658   3.421   6.489
89782SOL    HW171243   7.625   3.394   6.403
89782SOL    HW271244   7.701   3.505   6.473
89783SOL     OW71245   8.123   4.763   3.042
89783SOL    HW171246   8.135   4.820   3.118
89783SOL    HW271247   8.029   4.742   3.043
89784SOL     OW71248   5.440   0.927   8.613
89784SOL    HW171249   5.447   0.966   8.526
89784SOL    HW271250   5.364   0.868   8.607
89785SOL     OW71251   9.919   0.746   4.818
89785SOL    HW171252   9.851   0.799   4.858
89785SOL    HW271253   9.999   0.767   4.866
89786SOL     OW71254   3.682  12.203   1.505
89786SOL    HW171255   3.742  12.147   1.554
89786SOL    HW271256   3.728  12.220   1.422
89787SOL     OW71257  11.464  12.290  11.901
89787SOL    HW171258  11.473  12.342  11.981
89787SOL    HW271259  11.544  12.239  11.896
89788SOL     OW71260   6.226   3.022  10.346
89788SOL    HW171261   6.307   3.073  10.345
89788SOL    HW271262   6.201   3.019  10.439
89789SOL     OW71263   4.686  10.450   8.011
89789SOL    HW171264   4.764  10.491   7.972
89789SOL    HW271265   4.675  10.495   8.095
89790SOL     OW71266  11.773   5.173   0.769
89790SOL    HW171267  11.732   5.127   0.843
89790SOL    HW271268  11.761   5.266   0.789
89791SOL     OW71269   5.629  14.060   6.078
89791SOL    HW171270   5.559  14.085   6.018
89791SOL    HW271271   5.587  14.056   6.164
89792SOL     OW71272  11.550   2.781   0.695
89792SOL    HW171273  11.527   2.754   0.784
89792SOL    HW271274  11.591   2.867   0.705
89793SOL     OW71275  12.323  11.857   5.456
89793SOL    HW171276  12.390  11.846   5.524
89793SOL    HW271277  12.244  11.880   5.505
89794SOL     OW71278  10.052  12.733   4.042
89794SOL    HW171279   9.987  12.796   4.012
89794SOL    HW271280  10.070  12.679   3.965
89795SOL     OW71281  12.894   6.038  10.677
89795SOL    HW171282  12.810   6.053  10.634
89795SOL    HW271283  12.958   6.077  10.618
89796SOL     OW71284   7.050  13.754   0.881
89796SOL    HW171285   7.037  13.801   0.798
89796SOL    HW271286   7.018  13.666   0.864
89797SOL     OW71287   7.718   2.221   8.968
89797SOL    HW171288   7.762   2.157   9.024
89797SOL    HW271289   7.719   2.302   9.019
89798SOL     OW71290  10.335  10.815   9.455
89798SOL    HW171291  10.319  10.773   9.539
89798SOL    HW271292  10.271  10.777   9.396
89799SOL     OW71293  10.753  10.721   8.693
89799SOL    HW171294  10.664  10.716   8.656
89799SOL    HW271295  10.761  10.641   8.745
89800SOL     OW71296   5.624  14.360   8.318
89800SOL    HW171297   5.665  14.405   8.392
89800SOL    HW271298   5.569  14.292   8.359
89801SOL     OW71299   5.208   7.208   7.045
89801SOL    HW171300   5.155   7.279   7.083
89801SOL    HW271301   5.266   7.181   7.116
89802SOL     OW71302  13.851   0.075   8.448
89802SOL    HW171303  13.777   0.100   8.394
89802SOL    HW271304  13.823  14.878   8.494
89803SOL     OW71305   7.716   3.823  12.900
89803SOL    HW171306   7.686   3.798  12.812
89803SOL    HW271307   7.635   3.844  12.948
89804SOL     OW71308  12.478   1.683  13.653
89804SOL    HW171309  12.549   1.669  13.590
89804SOL    HW271310  12.430   1.758  13.618
89805SOL     OW71311  13.175   4.612   6.039
89805SOL    HW171312  13.250   4.565   6.074
89805SOL    HW271313  13.203   4.643   5.953
89806SOL     OW71314   2.663  10.680  10.714
89806SOL    HW171315   2.710  10.685  10.631
89806SOL    HW271316   2.572  10.667  10.688
89807SOL     OW71317   0.528   3.959   5.346
89807SOL    HW171318   0.582   3.938   5.422
89807SOL    HW271319   0.569   3.911   5.274
89808SOL     OW71320   3.014  14.297   7.265
89808SOL    HW171321   2.975  14.212   7.289
89808SOL    HW271322   3.102  14.294   7.302
89809SOL     OW71323   9.961   8.175  10.207
89809SOL    HW171324   9.865   8.177  10.215
89809SOL    HW271325   9.979   8.218  10.124
89810SOL     OW71326  11.135  12.911  10.190
89810SOL    HW171327  11.137  12.924  10.096
89810SOL    HW271328  11.072  12.976  10.222
89811SOL     OW71329   6.453   3.884   3.605
89811SOL    HW171330   6.364   3.914   3.584
89811SOL    HW271331   6.500   3.892   3.522
89812SOL     OW71332  14.311  14.471   8.196
89812SOL    HW171333  14.391  14.517   8.172
89812SOL    HW271334  14.260  14.534   8.246
89813SOL     OW71335  14.700  11.274  10.108
89813SOL    HW171336  14.724  11.354  10.061
89813SOL    HW271337  14.769  11.263  10.173
89814SOL     OW71338   0.350   4.949   7.630
89814SOL    HW171339   0.425   4.890   7.640
89814SOL    HW271340   0.334   4.951   7.535
89815SOL     OW71341   2.696  12.789   9.212
89815SOL    HW171342   2.723  12.786   9.303
89815SOL    HW271343   2.695  12.882   9.190
89816SOL     OW71344   9.813   0.601   9.875
89816SOL    HW171345   9.718   0.614   9.865
89816SOL    HW271346   9.832   0.631   9.964
89817SOL     OW71347   3.410   7.495   0.082
89817SOL    HW171348   3.339   7.441   0.047
89817SOL    HW271349   3.370   7.580   0.098
89818SOL     OW71350   2.769  13.440   0.624
89818SOL    HW171351   2.828  13.370   0.596
89818SOL    HW271352   2.799  13.462   0.713
89819SOL     OW71353  13.111  10.072   0.950
89819SOL    HW171354  13.159   9.990   0.960
89819SOL    HW271355  13.167  10.126   0.894
89820SOL     OW71356   4.075   6.383   8.915
89820SOL    HW171357   4.170   6.380   8.900
89820SOL    HW271358   4.049   6.468   8.880
89821SOL     OW71359  13.934   3.271   3.167
89821SOL    HW171360  13.887   3.192   3.196
89821SOL    HW271361  13.953   3.318   3.249
89822SOL     OW71362  11.552   7.540   6.943
89822SOL    HW171363  11.524   7.600   7.012
89822SOL    HW271364  11.470   7.512   6.901
89823SOL     OW71365  13.722   6.575   5.062
89823SOL    HW171366  13.721   6.502   5.123
89823SOL    HW271367  13.682   6.648   5.110
89824SOL     OW71368  11.779   4.037   6.389
89824SOL    HW171369  11.741   4.083   6.463
89824SOL    HW271370  11.873   4.033   6.408
89825SOL     OW71371  12.033   5.276  11.544
89825SOL    HW171372  11.956   5.332  11.550
89825SOL    HW271373  12.010   5.197  11.593
89826SOL     OW71374  14.345   5.346   1.592
89826SOL    HW171375  14.348   5.415   1.526
89826SOL    HW271376  14.410   5.282   1.563
89827SOL     OW71377   3.433   2.143  10.510
89827SOL    HW171378   3.416   2.202  10.584
89827SOL    HW271379   3.459   2.201  10.439
89828SOL     OW71380   9.483   8.423   2.933
89828SOL    HW171381   9.436   8.465   2.861
89828SOL    HW271382   9.473   8.482   3.007
89829SOL     OW71383   4.460   4.934  10.404
89829SOL    HW171384   4.488   4.845  10.380
89829SOL    HW271385   4.386   4.921  10.463
89830SOL     OW71386   9.783   6.801   1.733
89830SOL    HW171387   9.867   6.839   1.759
89830SOL    HW271388   9.807   6.717   1.694
89831SOL     OW71389  14.665   6.877   2.752
89831SOL    HW171390  14.659   6.898   2.659
89831SOL    HW271391  14.664   6.782   2.755
89832SOL     OW71392  13.541   3.317   5.991
89832SOL    HW171393  13.613   3.263   5.960
89832SOL    HW271394  13.523   3.285   6.080
89833SOL     OW71395   6.430  10.494   5.921
89833SOL    HW171396   6.415  10.585   5.897
89833SOL    HW271397   6.521  10.477   5.897
89834SOL     OW71398  10.027  13.158   5.713
89834SOL    HW171399  10.001  13.118   5.630
89834SOL    HW271400  10.091  13.224   5.688
89835SOL     OW71401  12.887   6.983  11.943
89835SOL    HW171402  12.808   6.953  11.988
89835SOL    HW271403  12.952   6.995  12.012
89836SOL     OW71404   8.518   4.154  13.534
89836SOL    HW171405   8.476   4.068  13.540
89836SOL    HW271406   8.445   4.216  13.526
89837SOL     OW71407   6.060  12.686   6.889
89837SOL    HW171408   6.018  12.709   6.806
89837SOL    HW271409   5.995  12.710   6.956
89838SOL     OW71410   5.126   2.841  11.927
89838SOL    HW171411   5.037   2.806  11.936
89838SOL    HW271412   5.139   2.846  11.832
89839SOL     OW71413   1.409   9.805   9.524
89839SOL    HW171414   1.373   9.772   9.441
89839SOL    HW271415   1.383   9.740   9.589
89840SOL     OW71416   2.375   7.551   7.594
89840SOL    HW171417   2.294   7.509   7.621
89840SOL    HW271418   2.440   7.480   7.598
89841SOL     OW71419   1.864  10.497  11.497
89841SOL    HW171420   1.837  10.428  11.557
89841SOL    HW271421   1.904  10.452  11.423
89842SOL     OW71422   7.213   6.686   7.635
89842SOL    HW171423   7.143   6.633   7.595
89842SOL    HW271424   7.170   6.767   7.661
89843SOL     OW71425  12.241   0.326  14.571
89843SOL    HW171426  12.301   0.389  14.531
89843SOL    HW271427  12.245   0.345  14.664
89844SOL     OW71428  14.246   4.974  10.011
89844SOL    HW171429  14.308   4.901  10.022
89844SOL    HW271430  14.250   5.021  10.094
89845SOL     OW71431   1.732  13.664   8.101
89845SOL    HW171432   1.694  13.577   8.092
89845SOL    HW271433   1.827  13.649   8.096
89846SOL     OW71434   6.069   8.896   5.806
89846SOL    HW171435   6.050   8.978   5.853
89846SOL    HW271436   6.160   8.905   5.778
89847SOL     OW71437   4.636  12.050  14.829
89847SOL    HW171438   4.719  12.071  14.786
89847SOL    HW271439   4.660  12.036   0.039
89848SOL     OW71440   6.751   4.504  13.483
89848SOL    HW171441   6.756   4.452  13.403
89848SOL    HW271442   6.831   4.482  13.531
89849SOL     OW71443   4.908  10.384  13.988
89849SOL    HW171444   4.957  10.425  14.059
89849SOL    HW271445   4.952  10.415  13.908
89850SOL     OW71446   6.118   5.566   9.276
89850SOL    HW171447   6.170   5.488   9.294
89850SOL    HW271448   6.028   5.533   9.264
89851SOL     OW71449   5.455  11.214   6.517
89851SOL    HW171450   5.453  11.136   6.462
89851SOL    HW271451   5.481  11.181   6.604
89852SOL     OW71452   4.401   7.134   7.685
89852SOL    HW171453   4.453   7.145   7.605
89852SOL    HW271454   4.444   7.063   7.732
89853SOL     OW71455  10.508  14.546   0.460
89853SOL    HW171456  10.416  14.541   0.436
89853SOL    HW271457  10.526  14.465   0.508
89854SOL     OW71458  11.304   8.286   0.077
89854SOL    HW171459  11.328   8.208   0.027
89854SOL    HW271460  11.247   8.335   0.018
89855SOL     OW71461  10.482   9.673   9.765
89855SOL    HW171462  10.405   9.673   9.708
89855SOL    HW271463  10.556   9.665   9.705
89856SOL     OW71464   9.766  10.262   0.919
89856SOL    HW171465   9.697  10.319   0.884
89856SOL    HW271466   9.729  10.226   1.000
89857SOL     OW71467   3.555   9.478  10.712
89857SOL    HW171468   3.605   9.556  10.735
89857SOL    HW271469   3.618   9.407  10.716
89858SOL     OW71470   1.553   5.834  12.893
89858SOL    HW171471   1.598   5.752  12.911
89858SOL    HW271472   1.550   5.840  12.798
89859SOL     OW71473  11.745   7.618  11.871
89859SOL    HW171474  11.783   7.652  11.952
89859SOL    HW271475  11.704   7.694  11.830
89860SOL     OW71476  10.410  12.587  13.956
89860SOL    HW171477  10.412  12.524  13.884
89860SOL    HW271478  10.419  12.672  13.913
89861SOL     OW71479   8.934   7.172   7.641
89861SOL    HW171480   8.896   7.195   7.726
89861SOL    HW271481   8.908   7.081   7.626
89862SOL     OW71482   4.829  12.656   7.834
89862SOL    HW171483   4.879  12.716   7.889
89862SOL    HW271484   4.826  12.698   7.748
89863SOL     OW71485   6.898   6.847   7.072
89863SOL    HW171486   6.866   6.861   6.983
89863SOL    HW271487   6.842   6.901   7.127
89864SOL     OW71488   4.822  11.093   2.662
89864SOL    HW171489   4.799  11.004   2.689
89864SOL    HW271490   4.745  11.146   2.684
89865SOL     OW71491   5.646   3.257   7.010
89865SOL    HW171492   5.577   3.306   6.965
89865SOL    HW271493   5.617   3.166   7.007
89866SOL     OW71494  10.125   0.224   2.462
89866SOL    HW171495  10.152   0.135   2.440
89866SOL    HW271496  10.043   0.238   2.415
89867SOL     OW71497   6.877   4.735   9.424
89867SOL    HW171498   6.934   4.812   9.430
89867SOL    HW271499   6.789   4.770   9.434
89868SOL     OW71500   1.956  11.836   9.301
89868SOL    HW171501   1.965  11.830   9.206
89868SOL    HW271502   1.976  11.748   9.333
89869SOL     OW71503   5.889   8.092   0.984
89869SOL    HW171504   5.794   8.095   0.989
89869SOL    HW271505   5.914   8.018   1.039
89870SOL     OW71506   1.121   1.433   2.954
89870SOL    HW171507   1.099   1.496   2.886
89870SOL    HW271508   1.044   1.376   2.960
89871SOL     OW71509  11.722  10.115  14.519
89871SOL    HW171510  11.632  10.138  14.497
89871SOL    HW271511  11.752  10.061  14.446
89872SOL     OW71512   7.217  13.131  14.734
89872SOL    HW171513   7.248  13.041  14.728
89872SOL    HW271514   7.122  13.124  14.726
89873SOL     OW71515   7.586   9.783  11.079
89873SOL    HW171516   7.532   9.705  11.095
89873SOL    HW271517   7.626   9.802  11.164
89874SOL     OW71518  13.392   4.116   7.513
89874SOL    HW171519  13.428   4.027   7.510
89874SOL    HW271520  13.462   4.169   7.550
89875SOL     OW71521   8.182   4.183   1.234
89875SOL    HW171522   8.137   4.149   1.311
89875SOL    HW271523   8.200   4.275   1.255
89876SOL     OW71524   0.522   1.750   0.002
89876SOL    HW171525   0.516   1.663  14.845
89876SOL    HW271526   0.474   1.743   0.084
89877SOL     OW71527   3.754  13.366  14.423
89877SOL    HW171528   3.681  13.317  14.463
89877SOL    HW271529   3.735  13.365  14.330
89878SOL     OW71530  11.340   1.901  12.917
89878SOL    HW171531  11.410   1.843  12.887
89878SOL    HW271532  11.312   1.865  13.001
89879SOL     OW71533   8.284   3.509   1.782
89879SOL    HW171534   8.239   3.471   1.857
89879SOL    HW271535   8.376   3.517   1.811
89880SOL     OW71536  12.161  14.807   7.698
89880SOL    HW171537  12.147   0.014   7.730
89880SOL    HW271538  12.144  14.813   7.604
89881SOL     OW71539   3.013  14.566   8.482
89881SOL    HW171540   2.946  14.547   8.547
89881SOL    HW271541   3.018  14.487   8.429
89882SOL     OW71542   2.445  13.303   4.342
89882SOL    HW171543   2.357  13.333   4.320
89882SOL    HW271544   2.502  13.376   4.319
89883SOL     OW71545   4.226   8.620   3.331
89883SOL    HW171546   4.313   8.609   3.293
89883SOL    HW271547   4.171   8.557   3.285
89884SOL     OW71548  12.266   3.381  13.384
89884SOL    HW171549  12.255   3.464  13.431
89884SOL    HW271550  12.234   3.315  13.446
89885SOL     OW71551  14.349   4.407   0.613
89885SOL    HW171552  14.342   4.357   0.695
89885SOL    HW271553  14.310   4.492   0.633
89886SOL     OW71554  11.676   9.631   7.763
89886SOL    HW171555  11.613   9.609   7.831
89886SOL    HW271556  11.756   9.652   7.811
89887SOL     OW71557  14.862   7.825   1.536
89887SOL    HW171558   0.006   7.767   1.607
89887SOL    HW271559  14.770   7.805   1.522
89888SOL     OW71560   8.464  14.149   1.795
89888SOL    HW171561   8.494  14.182   1.880
89888SOL    HW271562   8.491  14.058   1.794
89889SOL     OW71563   1.015  10.474   4.203
89889SOL    HW171564   1.007  10.385   4.239
89889SOL    HW271565   0.932  10.516   4.225
89890SOL     OW71566   8.841   8.985  12.847
89890SOL    HW171567   8.876   8.955  12.931
89890SOL    HW271568   8.777   8.918  12.823
89891SOL     OW71569   3.194   0.992   2.158
89891SOL    HW171570   3.111   1.038   2.147
89891SOL    HW271571   3.207   0.988   2.253
89892SOL     OW71572   6.433   2.838   4.030
89892SOL    HW171573   6.401   2.808   4.115
89892SOL    HW271574   6.410   2.768   3.969
89893SOL     OW71575   4.943  13.232  12.732
89893SOL    HW171576   5.024  13.279  12.712
89893SOL    HW271577   4.944  13.223  12.827
89894SOL     OW71578   2.823   6.747   2.184
89894SOL    HW171579   2.830   6.688   2.110
89894SOL    HW271580   2.851   6.696   2.260
89895SOL     OW71581  13.517  11.484   9.667
89895SOL    HW171582  13.502  11.396   9.703
89895SOL    HW271583  13.478  11.543   9.731
89896SOL     OW71584   1.811   7.991  14.552
89896SOL    HW171585   1.787   7.910  14.506
89896SOL    HW271586   1.818   8.057  14.483
89897SOL     OW71587  13.732   0.824  11.803
89897SOL    HW171588  13.765   0.833  11.892
89897SOL    HW271589  13.763   0.903  11.758
89898SOL     OW71590   4.335  12.037  10.533
89898SOL    HW171591   4.246  12.061  10.510
89898SOL    HW271592   4.385  12.052  10.453
89899SOL     OW71593   2.822   9.602  13.063
89899SOL    HW171594   2.834   9.662  13.137
89899SOL    HW271595   2.817   9.659  12.986
89900SOL     OW71596   9.897   7.612   4.328
89900SOL    HW171597   9.862   7.687   4.280
89900SOL    HW271598   9.859   7.536   4.285
89901SOL     OW71599   1.763   4.572  11.945
89901SOL    HW171600   1.727   4.532  12.024
89901SOL    HW271601   1.713   4.652  11.933
89902SOL     OW71602  11.236   3.266   3.131
89902SOL    HW171603  11.208   3.263   3.040
89902SOL    HW271604  11.156   3.279   3.181
89903SOL     OW71605   1.198   8.935  14.177
89903SOL    HW171606   1.257   8.946  14.251
89903SOL    HW271607   1.215   8.845  14.147
89904SOL     OW71608  14.111   6.692   5.126
89904SOL    HW171609  14.079   6.721   5.211
89904SOL    HW271610  14.179   6.628   5.147
89905SOL     OW71611   0.333  10.070   8.839
89905SOL    HW171612   0.409  10.067   8.896
89905SOL    HW271613   0.339   9.989   8.787
89906SOL     OW71614   8.709  14.666   2.569
89906SOL    HW171615   8.618  14.693   2.557
89906SOL    HW271616   8.717  14.648   2.662
89907SOL     OW71617   2.291   0.434   4.037
89907SOL    HW171618   2.368   0.377   4.042
89907SOL    HW271619   2.258   0.423   3.948
89908SOL     OW71620   5.613   3.519   5.195
89908SOL    HW171621   5.583   3.478   5.276
89908SOL    HW271622   5.544   3.581   5.171
89909SOL     OW71623  11.297   6.720   9.851
89909SOL    HW171624  11.383   6.707   9.812
89909SOL    HW271625  11.296   6.811   9.881
89910SOL     OW71626   1.438   0.505   7.279
89910SOL    HW171627   1.455   0.594   7.310
89910SOL    HW271628   1.355   0.511   7.233
89911SOL     OW71629   8.283   0.972   7.927
89911SOL    HW171630   8.230   0.922   7.989
89911SOL    HW271631   8.222   1.037   7.890
89912SOL     OW71632   2.685   6.516   1.987
89912SOL    HW171633   2.656   6.439   1.938
89912SOL    HW271634   2.675   6.492   2.079
89913SOL     OW71635   2.560  13.350   3.131
89913SOL    HW171636   2.543  13.256   3.135
89913SOL    HW271637   2.645  13.361   3.173
89914SOL     OW71638   2.965   7.732  10.447
89914SOL    HW171639   2.931   7.738  10.537
89914SOL    HW271640   3.012   7.814  10.434
89915SOL     OW71641  12.924   9.344   1.010
89915SOL    HW171642  13.017   9.324   1.024
89915SOL    HW271643  12.921   9.383   0.922
89916SOL     OW71644   5.832   4.544   2.516
89916SOL    HW171645   5.920   4.534   2.479
89916SOL    HW271646   5.803   4.630   2.486
89917SOL     OW71647  11.460  13.437   0.992
89917SOL    HW171648  11.499  13.524   1.000
89917SOL    HW271649  11.534  13.376   1.003
89918SOL     OW71650   7.793   5.438   7.405
89918SOL    HW171651   7.724   5.489   7.363
89918SOL    HW271652   7.752   5.352   7.421
89919SOL     OW71653   6.583   8.669  11.708
89919SOL    HW171654   6.549   8.599  11.652
89919SOL    HW271655   6.672   8.641  11.731
89920SOL     OW71656   9.754   6.440  12.263
89920SOL    HW171657   9.753   6.394  12.179
89920SOL    HW271658   9.837   6.486  12.265
89921SOL     OW71659   5.792   2.852   7.288
89921SOL    HW171660   5.707   2.817   7.261
89921SOL    HW271661   5.829   2.889   7.207
89922SOL     OW71662  10.520   5.636  13.947
89922SOL    HW171663  10.528   5.582  14.026
89922SOL    HW271664  10.439   5.606  13.906
89923SOL     OW71665   0.620  14.551  10.834
89923SOL    HW171666   0.559  14.477  10.831
89923SOL    HW271667   0.658  14.555  10.746
89924SOL     OW71668   9.225   4.591  13.573
89924SOL    HW171669   9.280   4.646  13.630
89924SOL    HW271670   9.173   4.654  13.523
89925SOL     OW71671  14.089   7.389   0.408
89925SOL    HW171672  14.051   7.360   0.491
89925SOL    HW271673  14.061   7.480   0.399
89926SOL     OW71674   8.068   4.941   2.600
89926SOL    HW171675   8.133   4.945   2.530
89926SOL    HW271676   8.103   4.997   2.668
89927SOL     OW71677   7.082   9.631   3.335
89927SOL    HW171678   7.074   9.707   3.393
89927SOL    HW271679   6.991   9.604   3.320
89928SOL     OW71680  11.952   8.041   4.728
89928SOL    HW171681  11.870   8.056   4.776
89928SOL    HW271682  11.936   8.079   4.641
89929SOL     OW71683   2.054  11.008   3.443
89929SOL    HW171684   2.084  11.021   3.534
89929SOL    HW271685   2.121  10.953   3.404
89930SOL     OW71686  13.808   5.449   0.539
89930SOL    HW171687  13.815   5.359   0.505
89930SOL    HW271688  13.728   5.483   0.498
89931SOL     OW71689   4.530  12.910   3.367
89931SOL    HW171690   4.602  12.869   3.414
89931SOL    HW271691   4.555  12.906   3.275
89932SOL     OW71692   9.643   6.779   3.040
89932SOL    HW171693   9.554   6.778   3.076
89932SOL    HW271694   9.633   6.746   2.951
89933SOL     OW71695   7.520  13.814  10.946
89933SOL    HW171696   7.470  13.818  11.027
89933SOL    HW271697   7.609  13.839  10.971
89934SOL     OW71698   5.731   1.491   8.904
89934SOL    HW171699   5.795   1.447   8.960
89934SOL    HW271700   5.778   1.508   8.823
89935SOL     OW71701  14.103   0.091  11.676
89935SOL    HW171702  14.015   0.111  11.645
89935SOL    HW271703  14.159   0.159  11.638
89936SOL     OW71704   3.390   2.871   6.036
89936SOL    HW171705   3.409   2.878   6.130
89936SOL    HW271706   3.294   2.866   6.032
89937SOL     OW71707   0.383   9.284   9.683
89937SOL    HW171708   0.394   9.189   9.683
89937SOL    HW271709   0.362   9.306   9.774
89938SOL     OW71710   5.329  11.559   6.903
89938SOL    HW171711   5.332  11.655   6.904
89938SOL    HW271712   5.247  11.538   6.858
89939SOL     OW71713   6.444   6.166   9.872
89939SOL    HW171714   6.514   6.127   9.821
89939SOL    HW271715   6.475   6.161   9.963
89940SOL     OW71716   6.076   7.765   2.833
89940SOL    HW171717   6.062   7.758   2.928
89940SOL    HW271718   6.013   7.831   2.805
89941SOL     OW71719   1.327   1.914   3.867
89941SOL    HW171720   1.254   1.852   3.865
89941SOL    HW271721   1.366   1.904   3.954
89942SOL     OW71722  14.469   8.013   7.297
89942SOL    HW171723  14.548   7.999   7.349
89942SOL    HW271724  14.435   7.925   7.282
89943SOL     OW71725   0.991  10.163   8.718
89943SOL    HW171726   1.059  10.226   8.694
89943SOL    HW271727   0.909  10.209   8.702
89944SOL     OW71728   7.685   7.620   8.735
89944SOL    HW171729   7.703   7.639   8.827
89944SOL    HW271730   7.633   7.694   8.705
89945SOL     OW71731   8.071   4.922   7.597
89945SOL    HW171732   8.147   4.864   7.604
89945SOL    HW271733   8.014   4.880   7.532
89946SOL     OW71734  11.284   2.982   7.864
89946SOL    HW171735  11.267   2.973   7.958
89946SOL    HW271736  11.349   2.914   7.846
89947SOL     OW71737   5.735   3.286  11.264
89947SOL    HW171738   5.735   3.260  11.356
89947SOL    HW271739   5.805   3.351  11.257
89948SOL     OW71740  14.388   5.803   2.892
89948SOL    HW171741  14.479   5.781   2.871
89948SOL    HW271742  14.387   5.811   2.987
89949SOL     OW71743   7.295  14.606   8.812
89949SOL    HW171744   7.350  14.632   8.886
89949SOL    HW271745   7.352  14.550   8.759
89950SOL     OW71746   9.485   8.166   5.149
89950SOL    HW171747   9.405   8.141   5.195
89950SOL    HW271748   9.457   8.178   5.058
89951SOL     OW71749   2.425  11.021   3.835
89951SOL    HW171750   2.504  11.068   3.859
89951SOL    HW271751   2.455  10.950   3.779
89952SOL     OW71752   2.643  11.977  10.813
89952SOL    HW171753   2.644  11.931  10.897
89952SOL    HW271754   2.689  11.918  10.754
89953SOL     OW71755  13.886   4.002  10.466
89953SOL    HW171756  13.939   4.079  10.443
89953SOL    HW271757  13.814   4.037  10.518
89954SOL     OW71758   4.875  10.008   2.704
89954SOL    HW171759   4.958  10.054   2.688
89954SOL    HW271760   4.899   9.915   2.703
89955SOL     OW71761   6.181   9.656  12.987
89955SOL    HW171762   6.134   9.719  12.932
89955SOL    HW271763   6.199   9.703  13.068
89956SOL     OW71764   0.253  12.244   1.469
89956SOL    HW171765   0.240  12.150   1.451
89956SOL    HW271766   0.318  12.271   1.404
89957SOL     OW71767   3.795   4.475   2.310
89957SOL    HW171768   3.760   4.414   2.246
89957SOL    HW271769   3.717   4.519   2.346
89958SOL     OW71770   5.987   3.664  12.365
89958SOL    HW171771   5.907   3.652  12.416
89958SOL    HW271772   6.057   3.642  12.426
89959SOL     OW71773   9.948   3.950   7.190
89959SOL    HW171774   9.878   3.981   7.133
89959SOL    HW271775   9.926   3.986   7.276
89960SOL     OW71776  11.984  13.361  11.857
89960SOL    HW171777  11.988  13.362  11.761
89960SOL    HW271778  12.070  13.330  11.884
89961SOL     OW71779  11.233  14.434   3.565
89961SOL    HW171780  11.231  14.460   3.658
89961SOL    HW271781  11.141  14.416   3.543
89962SOL     OW71782  12.130   5.907   2.557
89962SOL    HW171783  12.102   5.984   2.506
89962SOL    HW271784  12.203   5.939   2.610
89963SOL     OW71785   3.372   9.151   4.276
89963SOL    HW171786   3.441   9.153   4.209
89963SOL    HW271787   3.417   9.178   4.356
89964SOL     OW71788   0.822   1.201   2.623
89964SOL    HW171789   0.853   1.291   2.621
89964SOL    HW271790   0.742   1.202   2.571
89965SOL     OW71791   3.698   6.934   4.593
89965SOL    HW171792   3.676   7.024   4.572
89965SOL    HW271793   3.793   6.933   4.602
89966SOL     OW71794   2.959   4.671   3.001
89966SOL    HW171795   2.970   4.613   2.926
89966SOL    HW271796   2.950   4.612   3.076
89967SOL     OW71797   7.219   8.617   0.244
89967SOL    HW171798   7.311   8.593   0.229
89967SOL    HW271799   7.170   8.539   0.219
89968SOL     OW71800   4.031   6.111   1.108
89968SOL    HW171801   3.976   6.188   1.090
89968SOL    HW271802   4.068   6.088   1.023
89969SOL     OW71803   1.340   4.243   1.410
89969SOL    HW171804   1.255   4.286   1.400
89969SOL    HW271805   1.400   4.294   1.356
89970SOL     OW71806   8.798   2.361   8.188
89970SOL    HW171807   8.847   2.410   8.254
89970SOL    HW271808   8.747   2.298   8.239
89971SOL     OW71809   6.918   7.804  14.514
89971SOL    HW171810   6.875   7.815  14.429
89971SOL    HW271811   6.846   7.790  14.575
89972SOL     OW71812   6.003  10.118   4.704
89972SOL    HW171813   5.977  10.082   4.619
89972SOL    HW271814   6.079  10.065   4.730
89973SOL     OW71815  11.925  10.289  11.546
89973SOL    HW171816  11.966  10.212  11.586
89973SOL    HW271817  11.944  10.280  11.452
89974SOL     OW71818   3.451  10.290   5.759
89974SOL    HW171819   3.499  10.243   5.827
89974SOL    HW271820   3.371  10.320   5.801
89975SOL     OW71821   2.211   4.067   2.149
89975SOL    HW171822   2.134   4.018   2.124
89975SOL    HW271823   2.258   4.083   2.067
89976SOL     OW71824   8.747   5.168   6.804
89976SOL    HW171825   8.779   5.232   6.868
89976SOL    HW271826   8.701   5.221   6.738
89977SOL     OW71827   9.031   6.895   8.777
89977SOL    HW171828   8.981   6.977   8.770
89977SOL    HW271829   9.097   6.901   8.708
89978SOL     OW71830  14.526  12.179   6.877
89978SOL    HW171831  14.516  12.092   6.840
89978SOL    HW271832  14.439  12.218   6.873
89979SOL     OW71833   5.715  13.861   4.854
89979SOL    HW171834   5.808  13.846   4.866
89979SOL    HW271835   5.687  13.792   4.793
89980SOL     OW71836  13.154   7.351   0.431
89980SOL    HW171837  13.094   7.282   0.459
89980SOL    HW271838  13.210   7.367   0.507
89981SOL     OW71839   1.469   0.119   8.705
89981SOL    HW171840   1.398   0.145   8.646
89981SOL    HW271841   1.493   0.200   8.750
89982SOL     OW71842   4.382   6.946   1.464
89982SOL    HW171843   4.450   6.943   1.531
89982SOL    HW271844   4.367   7.039   1.449
89983SOL     OW71845   0.690  11.843   0.949
89983SOL    HW171846   0.768  11.792   0.971
89983SOL    HW271847   0.633  11.782   0.903
89984SOL     OW71848   4.263  14.044   6.301
89984SOL    HW171849   4.174  14.074   6.318
89984SOL    HW271850   4.294  14.100   6.230
89985SOL     OW71851   6.075   7.374  12.369
89985SOL    HW171852   6.047   7.425  12.293
89985SOL    HW271853   6.150   7.323  12.338
89986SOL     OW71854   6.031  12.903   0.482
89986SOL    HW171855   6.093  12.886   0.411
89986SOL    HW271856   6.085  12.935   0.554
89987SOL     OW71857   1.151   2.715   7.229
89987SOL    HW171858   1.244   2.698   7.240
89987SOL    HW271859   1.132   2.686   7.139
89988SOL     OW71860  13.414   2.660  10.090
89988SOL    HW171861  13.431   2.668   9.996
89988SOL    HW271862  13.318   2.662  10.097
89989SOL     OW71863   8.594   6.552  12.001
89989SOL    HW171864   8.539   6.585  12.072
89989SOL    HW271865   8.629   6.470  12.034
89990SOL     OW71866   2.635   1.506   8.873
89990SOL    HW171867   2.562   1.546   8.922
89990SOL    HW271868   2.697   1.478   8.941
89991SOL     OW71869   8.747   5.589   5.285
89991SOL    HW171870   8.724   5.543   5.205
89991SOL    HW271871   8.798   5.664   5.256
89992SOL     OW71872   8.208  13.121   0.994
89992SOL    HW171873   8.158  13.193   1.034
89992SOL    HW271874   8.240  13.158   0.912
89993SOL     OW71875   5.401   2.643   6.033
89993SOL    HW171876   5.324   2.587   6.046
89993SOL    HW271877   5.471   2.583   6.009
89994SOL     OW71878   2.160  13.597   0.850
89994SOL    HW171879   2.139  13.669   0.910
89994SOL    HW271880   2.141  13.518   0.900
89995SOL     OW71881   7.865  13.904   0.494
89995SOL    HW171882   7.858  13.808   0.490
89995SOL    HW271883   7.779  13.935   0.465
89996SOL     OW71884   4.733   4.968  11.295
89996SOL    HW171885   4.640   4.983  11.280
89996SOL    HW271886   4.736   4.890  11.351
89997SOL     OW71887  14.164  10.558   9.046
89997SOL    HW171888  14.241  10.513   9.080
89997SOL    HW271889  14.099  10.488   9.033
89998SOL     OW71890  13.829  13.740  10.362
89998SOL    HW171891  13.820  13.829  10.396
89998SOL    HW271892  13.871  13.691  10.432
89999SOL     OW71893  11.453   6.680   7.578
89999SOL    HW171894  11.378   6.717   7.625
89999SOL    HW271895  11.418   6.656   7.493
90000SOL     OW71896   4.487   9.353  11.782
90000SOL    HW171897   4.564   9.383  11.831
90000SOL    HW271898   4.509   9.369  11.690
90001SOL     OW71899  14.256  11.110  13.149
90001SOL    HW171900  14.229  11.050  13.218
90001SOL    HW271901  14.241  11.197  13.186
90002SOL     OW71902  10.272   5.008   0.664
90002SOL    HW171903  10.276   4.989   0.571
90002SOL    HW271904  10.333   5.081   0.677
90003SOL     OW71905  14.789  14.626  11.651
90003SOL    HW171906  14.772  14.622  11.557
90003SOL    HW271907  14.784  14.534  11.680
90004SOL     OW71908   2.631   2.801   9.671
90004SOL    HW171909   2.584   2.718   9.670
90004SOL    HW271910   2.608   2.841   9.755
90005SOL     OW71911   5.126   8.171   5.200
90005SOL    HW171912   5.131   8.218   5.117
90005SOL    HW271913   5.174   8.089   5.183
90006SOL     OW71914   9.317   1.289   6.690
90006SOL    HW171915   9.314   1.200   6.723
90006SOL    HW271916   9.305   1.344   6.768
90007SOL     OW71917   8.011   9.511   0.310
90007SOL    HW171918   8.035   9.461   0.232
90007SOL    HW271919   8.037   9.456   0.384
90008SOL     OW71920   4.548   2.158  14.219
90008SOL    HW171921   4.607   2.135  14.147
90008SOL    HW271922   4.606   2.174  14.293
90009SOL     OW71923   0.284   9.060   6.802
90009SOL    HW171924   0.321   8.973   6.787
90009SOL    HW271925   0.195   9.043   6.834
90010SOL     OW71926  12.761   0.616   0.217
90010SOL    HW171927  12.776   0.525   0.189
90010SOL    HW271928  12.822   0.628   0.289
90011SOL     OW71929   6.785   6.409   0.974
90011SOL    HW171930   6.877   6.427   0.954
90011SOL    HW271931   6.741   6.493   0.959
90012SOL     OW71932   5.337  13.181   0.797
90012SOL    HW171933   5.344  13.209   0.706
90012SOL    HW271934   5.427  13.171   0.826
90013SOL     OW71935   8.860   6.533  14.822
90013SOL    HW171936   8.812   6.597  14.769
90013SOL    HW271937   8.869   6.576   0.025
90014SOL     OW71938  14.681  12.073  11.362
90014SOL    HW171939  14.692  12.154  11.311
90014SOL    HW271940  14.726  12.006  11.311
90015SOL     OW71941   0.771   9.341  11.941
90015SOL    HW171942   0.773   9.245  11.941
90015SOL    HW271943   0.689   9.363  11.986
90016SOL     OW71944   5.341   2.205   4.074
90016SOL    HW171945   5.416   2.253   4.039
90016SOL    HW271946   5.327   2.134   4.011
90017SOL     OW71947   1.657   3.245  13.514
90017SOL    HW171948   1.600   3.173  13.541
90017SOL    HW271949   1.659   3.304  13.589
90018SOL     OW71950   2.533   9.865   3.452
90018SOL    HW171951   2.628   9.852   3.461
90018SOL    HW271952   2.500   9.781   3.420
90019SOL     OW71953  10.969   9.291   7.426
90019SOL    HW171954  11.009   9.212   7.463
90019SOL    HW271955  10.901   9.314   7.489
90020SOL     OW71956   3.772  10.618   6.352
90020SOL    HW171957   3.694  10.569   6.379
90020SOL    HW271958   3.790  10.676   6.426
90021SOL     OW71959  10.973   5.065   9.326
90021SOL    HW171960  11.015   5.149   9.310
90021SOL    HW271961  11.020   5.029   9.401
90022SOL     OW71962   6.276  14.400   1.647
90022SOL    HW171963   6.194  14.350   1.655
90022SOL    HW271964   6.330  14.369   1.720
90023SOL     OW71965   2.226   6.184   4.202
90023SOL    HW171966   2.248   6.107   4.149
90023SOL    HW271967   2.304   6.200   4.255
90024SOL     OW71968   9.659   7.626  13.150
90024SOL    HW171969   9.610   7.545  13.164
90024SOL    HW271970   9.627   7.659  13.066
90025SOL     OW71971   6.287  10.635   1.130
90025SOL    HW171972   6.304  10.544   1.105
90025SOL    HW271973   6.321  10.687   1.057
90026SOL     OW71974   6.282  11.409  12.714
90026SOL    HW171975   6.326  11.439  12.634
90026SOL    HW271976   6.287  11.484  12.773
90027SOL     OW71977   0.684   1.844   6.653
90027SOL    HW171978   0.693   1.790   6.731
90027SOL    HW271979   0.625   1.915   6.679
90028SOL     OW71980  10.039   5.028   8.837
90028SOL    HW171981   9.948   5.036   8.809
90028SOL    HW271982  10.068   5.117   8.853
90029SOL     OW71983  14.337   0.275   3.272
90029SOL    HW171984  14.381   0.296   3.355
90029SOL    HW271985  14.335   0.358   3.225
90030SOL     OW71986  14.645   6.390   3.943
90030SOL    HW171987  14.663   6.330   3.870
90030SOL    HW271988  14.561   6.430   3.920
90031SOL     OW71989   4.014   1.215   4.255
90031SOL    HW171990   3.991   1.253   4.339
90031SOL    HW271991   4.109   1.226   4.248
90032SOL     OW71992   9.990  10.469   4.173
90032SOL    HW171993  10.010  10.464   4.267
90032SOL    HW271994   9.902  10.431   4.165
90033SOL     OW71995   5.508  13.312   7.028
90033SOL    HW171996   5.568  13.317   6.953
90033SOL    HW271997   5.486  13.403   7.047
90034SOL     OW71998   8.580  14.760   8.498
90034SOL    HW171999   8.548  14.787   8.584
90034SOL    HW272000   8.558  14.833   8.440
90035SOL     OW72001   6.512  13.715   3.890
90035SOL    HW172002   6.502  13.718   3.794
90035SOL    HW272003   6.607  13.716   3.904
90036SOL     OW72004  11.477   6.877  13.481
90036SOL    HW172005  11.561   6.922  13.471
90036SOL    HW272006  11.461   6.877  13.575
90037SOL     OW72007  12.997   7.403   9.586
90037SOL    HW172008  12.998   7.375   9.494
90037SOL    HW272009  12.964   7.327   9.634
90038SOL     OW72010   2.673   0.819   0.055
90038SOL    HW172011   2.712   0.874  14.868
90038SOL    HW272012   2.598   0.777   0.012
90039SOL     OW72013   4.068  10.323   8.703
90039SOL    HW172014   4.119  10.242   8.707
90039SOL    HW272015   3.977  10.295   8.706
90040SOL     OW72016  14.749   3.894   8.899
90040SOL    HW172017  14.726   3.979   8.938
90040SOL    HW272018  14.767   3.838   8.975
90041SOL     OW72019  11.391   8.028   3.399
90041SOL    HW172020  11.394   8.063   3.311
90041SOL    HW272021  11.306   8.057   3.433
90042SOL     OW72022   2.001   2.914   8.390
90042SOL    HW172023   1.909   2.935   8.406
90042SOL    HW272024   2.013   2.826   8.427
90043SOL     OW72025   9.305   7.093  10.211
90043SOL    HW172026   9.234   7.135  10.259
90043SOL    HW272027   9.298   7.129  10.122
90044SOL     OW72028  11.768   4.376   4.928
90044SOL    HW172029  11.813   4.302   4.888
90044SOL    HW272030  11.677   4.348   4.935
90045SOL     OW72031  12.295  10.533   0.873
90045SOL    HW172032  12.301  10.486   0.957
90045SOL    HW272033  12.359  10.603   0.881
90046SOL     OW72034   5.955  11.517  11.783
90046SOL    HW172035   6.005  11.539  11.861
90046SOL    HW272036   5.911  11.435  11.805
90047SOL     OW72037   6.692   6.168   8.291
90047SOL    HW172038   6.741   6.092   8.261
90047SOL    HW272039   6.623   6.132   8.348
90048SOL     OW72040   5.926   1.410  10.876
90048SOL    HW172041   5.988   1.358  10.825
90048SOL    HW272042   5.970   1.494  10.888
90049SOL     OW72043  14.193   9.238  13.435
90049SOL    HW172044  14.249   9.237  13.513
90049SOL    HW272045  14.150   9.152  13.437
90050SOL     OW72046   9.943   8.225   0.422
90050SOL    HW172047  10.007   8.178   0.476
90050SOL    HW272048   9.936   8.173   0.342
90051SOL     OW72049   9.667  10.759   9.382
90051SOL    HW172050   9.693  10.778   9.472
90051SOL    HW272051   9.687  10.666   9.370
90052SOL     OW72052  14.133  10.802  10.364
90052SOL    HW172053  14.089  10.763  10.288
90052SOL    HW272054  14.226  10.802  10.340
90053SOL     OW72055   0.377   9.935   3.406
90053SOL    HW172056   0.341  10.019   3.378
90053SOL    HW272057   0.321   9.909   3.480
90054SOL     OW72058   0.449  11.951   5.524
90054SOL    HW172059   0.355  11.967   5.535
90054SOL    HW272060   0.485  12.038   5.505
90055SOL     OW72061  12.541   0.221  13.052
90055SOL    HW172062  12.509   0.272  13.126
90055SOL    HW272063  12.561   0.135  13.089
90056SOL     OW72064  10.872  10.182   8.785
90056SOL    HW172065  10.914  10.128   8.852
90056SOL    HW272066  10.826  10.118   8.729
90057SOL     OW72067   4.391  14.874   8.544
90057SOL    HW172068   4.475   0.038   8.543
90057SOL    HW272069   4.348   0.019   8.624
90058SOL     OW72070   1.928   7.119  13.698
90058SOL    HW172071   1.932   7.088  13.608
90058SOL    HW272072   1.931   7.215  13.691
90059SOL     OW72073   5.053   3.867  11.117
90059SOL    HW172074   5.022   3.799  11.057
90059SOL    HW272075   4.977   3.887  11.172
90060SOL     OW72076  10.516  10.608   6.168
90060SOL    HW172077  10.585  10.587   6.231
90060SOL    HW272078  10.554  10.587   6.083
90061SOL     OW72079   6.870   2.126   9.128
90061SOL    HW172080   6.877   2.177   9.048
90061SOL    HW272081   6.776   2.116   9.142
90062SOL     OW72082   6.276  13.662  11.148
90062SOL    HW172083   6.245  13.573  11.129
90062SOL    HW272084   6.364  13.649  11.183
90063SOL     OW72085   2.203   2.238   1.197
90063SOL    HW172086   2.294   2.238   1.168
90063SOL    HW272087   2.161   2.305   1.143
90064SOL     OW72088   2.188   2.269  14.354
90064SOL    HW172089   2.110   2.321  14.334
90064SOL    HW272090   2.252   2.333  14.385
90065SOL     OW72091   5.829   1.126   9.308
90065SOL    HW172092   5.760   1.157   9.367
90065SOL    HW272093   5.804   1.037   9.284
90066SOL     OW72094  13.433   2.311  10.237
90066SOL    HW172095  13.428   2.246  10.307
90066SOL    HW272096  13.485   2.383  10.274
90067SOL     OW72097   6.427   2.690  13.445
90067SOL    HW172098   6.340   2.662  13.417
90067SOL    HW272099   6.445   2.638  13.524
90068SOL     OW72100  12.221  13.421   8.823
90068SOL    HW172101  12.158  13.421   8.896
90068SOL    HW272102  12.277  13.345   8.840
90069SOL     OW72103   4.397   7.650   2.922
90069SOL    HW172104   4.434   7.564   2.940
90069SOL    HW272105   4.324   7.632   2.862
90070SOL     OW72106   0.649  12.063   4.761
90070SOL    HW172107   0.607  12.139   4.719
90070SOL    HW272108   0.628  11.989   4.703
90071SOL     OW72109   3.738  14.485  11.919
90071SOL    HW172110   3.793  14.549  11.873
90071SOL    HW272111   3.684  14.446  11.850
90072SOL     OW72112   8.843  10.810  13.205
90072SOL    HW172113   8.895  10.747  13.255
90072SOL    HW272114   8.907  10.869  13.166
90073SOL     OW72115   8.024  10.138   8.154
90073SOL    HW172116   8.039  10.115   8.246
90073SOL    HW272117   8.109  10.167   8.122
90074SOL     OW72118   7.996   6.516   0.563
90074SOL    HW172119   8.047   6.543   0.487
90074SOL    HW272120   8.034   6.566   0.636
90075SOL     OW72121  14.561   8.734   8.953
90075SOL    HW172122  14.632   8.742   9.017
90075SOL    HW272123  14.584   8.657   8.901
90076SOL     OW72124  11.730  13.594   7.479
90076SOL    HW172125  11.726  13.608   7.385
90076SOL    HW272126  11.817  13.557   7.494
90077SOL     OW72127  11.280   1.123   9.062
90077SOL    HW172128  11.301   1.034   9.091
90077SOL    HW272129  11.241   1.111   8.975
90078SOL     OW72130  11.526   5.111   4.387
90078SOL    HW172131  11.504   5.194   4.431
90078SOL    HW272132  11.443   5.064   4.382
90079SOL     OW72133  14.013   1.253  14.182
90079SOL    HW172134  14.060   1.191  14.238
90079SOL    HW272135  13.993   1.202  14.103
90080SOL     OW72136   3.843   8.228   9.471
90080SOL    HW172137   3.819   8.317   9.499
90080SOL    HW272138   3.892   8.192   9.545
90081SOL     OW72139  10.847   4.998   5.278
90081SOL    HW172140  10.869   5.071   5.221
90081SOL    HW272141  10.794   4.940   5.223
90082SOL     OW72142  11.752   2.863  10.231
90082SOL    HW172143  11.803   2.909  10.298
90082SOL    HW272144  11.811   2.855  10.156
90083SOL     OW72145  11.627  14.103   5.986
90083SOL    HW172146  11.550  14.160   5.990
90083SOL    HW272147  11.636  14.068   6.075
90084SOL     OW72148  10.780  12.849   9.120
90084SOL    HW172149  10.690  12.817   9.114
90084SOL    HW272150  10.826  12.806   9.048
90085SOL     OW72151   3.384   4.757   8.073
90085SOL    HW172152   3.458   4.804   8.112
90085SOL    HW272153   3.410   4.741   7.983
90086SOL     OW72154  13.458   0.573   1.097
90086SOL    HW172155  13.404   0.574   1.176
90086SOL    HW272156  13.505   0.489   1.102
90087SOL     OW72157  14.522   2.838   1.079
90087SOL    HW172158  14.538   2.933   1.081
90087SOL    HW272159  14.445   2.826   1.134
90088SOL     OW72160   5.777  10.992  10.051
90088SOL    HW172161   5.771  11.038   9.967
90088SOL    HW272162   5.764  10.900  10.028
90089SOL     OW72163   5.248   7.046   3.717
90089SOL    HW172164   5.320   7.002   3.761
90089SOL    HW272165   5.219   6.985   3.649
90090SOL     OW72166   6.137  12.994  12.206
90090SOL    HW172167   6.140  13.060  12.136
90090SOL    HW272168   6.213  13.014  12.261
90091SOL     OW72169   2.936   7.739   8.240
90091SOL    HW172170   2.845   7.731   8.267
90091SOL    HW272171   2.983   7.763   8.319
90092SOL     OW72172  10.947   8.456   0.112
90092SOL    HW172173  11.006   8.448   0.038
90092SOL    HW272174  10.890   8.380   0.107
90093SOL     OW72175   9.154   4.256   3.515
90093SOL    HW172176   9.123   4.251   3.425
90093SOL    HW272177   9.250   4.249   3.508
90094SOL     OW72178   2.890   4.037   2.739
90094SOL    HW172179   2.917   3.946   2.755
90094SOL    HW272180   2.794   4.034   2.737
90095SOL     OW72181   4.509   1.419   2.918
90095SOL    HW172182   4.568   1.486   2.953
90095SOL    HW272183   4.422   1.460   2.921
90096SOL     OW72184   8.915   1.425  12.777
90096SOL    HW172185   8.916   1.429  12.873
90096SOL    HW272186   8.824   1.444  12.753
90097SOL     OW72187   1.761  10.744   7.696
90097SOL    HW172188   1.794  10.777   7.779
90097SOL    HW272189   1.835  10.753   7.635
90098SOL     OW72190   5.418   9.071   9.577
90098SOL    HW172191   5.384   9.106   9.494
90098SOL    HW272192   5.444   8.981   9.556
90099SOL     OW72193   4.794   0.047  13.967
90099SOL    HW172194   4.808   0.004  13.883
90099SOL    HW272195   4.788   0.140  13.946
90100SOL     OW72196   2.591   8.292   2.583
90100SOL    HW172197   2.574   8.220   2.523
90100SOL    HW272198   2.515   8.350   2.572
90101SOL     OW72199   1.716   0.449   7.892
90101SOL    HW172200   1.804   0.475   7.865
90101SOL    HW272201   1.660   0.469   7.817
90102SOL     OW72202   1.471   9.004   4.922
90102SOL    HW172203   1.376   9.004   4.935
90102SOL    HW272204   1.497   8.913   4.934
90103SOL     OW72205   7.387  13.518   8.243
90103SOL    HW172206   7.433  13.551   8.166
90103SOL    HW272207   7.457  13.498   8.306
90104SOL     OW72208   2.410  10.255   9.104
90104SOL    HW172209   2.400  10.217   9.016
90104SOL    HW272210   2.493  10.221   9.136
90105SOL     OW72211  13.415   3.843   5.485
90105SOL    HW172212  13.375   3.913   5.537
90105SOL    HW272213  13.341   3.789   5.456
90106SOL     OW72214   5.576  12.855   3.473
90106SOL    HW172215   5.634  12.804   3.417
90106SOL    HW272216   5.585  12.945   3.441
90107SOL     OW72217  12.276   5.072  11.168
90107SOL    HW172218  12.229   5.147  11.205
90107SOL    HW272219  12.365   5.081  11.203
90108SOL     OW72220  13.224   7.755  12.515
90108SOL    HW172221  13.210   7.791  12.603
90108SOL    HW272222  13.220   7.660  12.528
90109SOL     OW72223  10.606  13.587  12.632
90109SOL    HW172224  10.519  13.557  12.607
90109SOL    HW272225  10.659  13.507  12.635
90110SOL     OW72226  11.483   3.727   1.839
90110SOL    HW172227  11.506   3.682   1.758
90110SOL    HW272228  11.433   3.804   1.811
90111SOL     OW72229   0.185  10.771   0.546
90111SOL    HW172230   0.126  10.742   0.476
90111SOL    HW272231   0.233  10.691   0.571
90112SOL     OW72232   9.357   6.817   6.881
90112SOL    HW172233   9.363   6.754   6.809
90112SOL    HW272234   9.433   6.874   6.870
90113SOL     OW72235  10.608   4.833  14.033
90113SOL    HW172236  10.613   4.816  13.939
90113SOL    HW272237  10.517   4.814  14.055
90114SOL     OW72238   6.231   6.375   4.299
90114SOL    HW172239   6.149   6.412   4.269
90114SOL    HW272240   6.254   6.309   4.233
90115SOL     OW72241   9.038  12.692   6.639
90115SOL    HW172242   8.970  12.631   6.612
90115SOL    HW272243   9.120  12.642   6.633
90116SOL     OW72244   6.738  12.726  12.705
90116SOL    HW172245   6.817  12.766  12.740
90116SOL    HW272246   6.769  12.649  12.657
90117SOL     OW72247   8.231   0.159   7.534
90117SOL    HW172248   8.199   0.107   7.607
90117SOL    HW272249   8.269   0.095   7.473
90118SOL     OW72250   0.723  11.470   4.573
90118SOL    HW172251   0.814  11.494   4.557
90118SOL    HW272252   0.672  11.541   4.535
90119SOL     OW72253  13.025   1.844  14.382
90119SOL    HW172254  13.041   1.930  14.343
90119SOL    HW272255  12.931   1.844  14.401
90120SOL     OW72256   5.207  11.069   3.469
90120SOL    HW172257   5.208  11.086   3.375
90120SOL    HW272258   5.275  11.127   3.504
90121SOL     OW72259   2.013   7.008   5.084
90121SOL    HW172260   1.979   6.962   5.007
90121SOL    HW272261   2.038   7.095   5.052
90122SOL     OW72262   2.460  12.042  12.576
90122SOL    HW172263   2.382  12.007  12.621
90122SOL    HW272264   2.525  11.972  12.584
90123SOL     OW72265   8.209   9.441   0.995
90123SOL    HW172266   8.256   9.520   1.025
90123SOL    HW272267   8.143   9.426   1.062
90124SOL     OW72268   0.723   7.395   0.685
90124SOL    HW172269   0.651   7.381   0.747
90124SOL    HW272270   0.712   7.485   0.655
90125SOL     OW72271  12.129   0.031  13.668
90125SOL    HW172272  12.159   0.061  13.754
90125SOL    HW272273  12.174   0.088  13.606
90126SOL     OW72274   4.185  14.699   8.141
90126SOL    HW172275   4.103  14.748   8.134
90126SOL    HW272276   4.251  14.757   8.102
90127SOL     OW72277  12.214  10.713   0.106
90127SOL    HW172278  12.158  10.674   0.039
90127SOL    HW272279  12.220  10.645   0.174
90128SOL     OW72280  12.084   3.993  13.932
90128SOL    HW172281  11.993   3.986  13.903
90128SOL    HW272282  12.104   3.908  13.971
90129SOL     OW72283   8.029  12.672  14.647
90129SOL    HW172284   7.967  12.658  14.718
90129SOL    HW272285   7.975  12.676  14.568
90130SOL     OW72286   2.067  13.794  11.036
90130SOL    HW172287   2.035  13.789  11.126
90130SOL    HW272288   2.095  13.885  11.026
90131SOL     OW72289   5.014   6.639   3.814
90131SOL    HW172290   4.984   6.552   3.840
90131SOL    HW272291   5.062   6.672   3.891
90132SOL     OW72292  12.026   8.441  11.755
90132SOL    HW172293  12.098   8.481  11.802
90132SOL    HW272294  11.977   8.393  11.822
90133SOL     OW72295   9.411   0.120   5.998
90133SOL    HW172296   9.467   0.151   5.926
90133SOL    HW272297   9.322   0.123   5.962
90134SOL     OW72298   6.170  10.759   6.446
90134SOL    HW172299   6.110  10.799   6.509
90134SOL    HW272300   6.234  10.828   6.428
90135SOL     OW72301   5.973   3.545   7.602
90135SOL    HW172302   5.892   3.567   7.556
90135SOL    HW272303   5.945   3.488   7.674
90136SOL     OW72304   5.314  14.055   4.322
90136SOL    HW172305   5.359  13.978   4.356
90136SOL    HW272306   5.245  14.072   4.385
90137SOL     OW72307   2.922  12.125  13.730
90137SOL    HW172308   2.993  12.099  13.671
90137SOL    HW272309   2.966  12.176  13.798
90138SOL     OW72310  11.206   2.663  11.545
90138SOL    HW172311  11.111   2.661  11.544
90138SOL    HW272312  11.228   2.724  11.615
90139SOL     OW72313  10.366  10.569   3.386
90139SOL    HW172314  10.293  10.536   3.334
90139SOL    HW272315  10.387  10.497   3.446
90140SOL     OW72316  11.297  11.724   1.309
90140SOL    HW172317  11.381  11.742   1.266
90140SOL    HW272318  11.234  11.722   1.238
90141SOL     OW72319   8.228   2.523   3.618
90141SOL    HW172320   8.313   2.562   3.638
90141SOL    HW272321   8.194   2.496   3.704
90142SOL     OW72322  12.230   9.084   6.620
90142SOL    HW172323  12.145   9.101   6.661
90142SOL    HW272324  12.294   9.102   6.689
90143SOL     OW72325  14.603  12.042  12.558
90143SOL    HW172326  14.662  12.084  12.622
90143SOL    HW272327  14.620  12.088  12.476
90144SOL     OW72328   2.100  14.489   4.691
90144SOL    HW172329   2.089  14.403   4.650
90144SOL    HW272330   2.018  14.504   4.738
90145SOL     OW72331   1.718  14.226  13.546
90145SOL    HW172332   1.790  14.163  13.539
90145SOL    HW272333   1.751  14.305  13.501
90146SOL     OW72334   8.164   4.146  14.419
90146SOL    HW172335   8.192   4.225  14.373
90146SOL    HW272336   8.068   4.148  14.412
90147SOL     OW72337   6.970   3.235  10.623
90147SOL    HW172338   6.969   3.310  10.683
90147SOL    HW272339   6.972   3.158  10.680
90148SOL     OW72340   3.138   8.560  11.922
90148SOL    HW172341   3.112   8.645  11.888
90148SOL    HW272342   3.162   8.578  12.013
90149SOL     OW72343   5.334   5.556   0.491
90149SOL    HW172344   5.260   5.505   0.458
90149SOL    HW272345   5.320   5.644   0.457
90150SOL     OW72346   0.781  14.462   1.359
90150SOL    HW172347   0.774  14.456   1.264
90150SOL    HW272348   0.723  14.534   1.383
90151SOL     OW72349   7.648  13.945  12.693
90151SOL    HW172350   7.622  13.868  12.742
90151SOL    HW272351   7.727  13.976  12.738
90152SOL     OW72352  11.885   3.307   4.078
90152SOL    HW172353  11.939   3.278   4.152
90152SOL    HW272354  11.901   3.242   4.010
90153SOL     OW72355   0.560   5.337  13.435
90153SOL    HW172356   0.654   5.345  13.450
90153SOL    HW272357   0.527   5.427  13.441
90154SOL     OW72358   7.968   3.612  10.774
90154SOL    HW172359   7.932   3.539  10.724
90154SOL    HW272360   7.984   3.576  10.861
90155SOL     OW72361  13.050   1.859  10.539
90155SOL    HW172362  13.029   1.774  10.501
90155SOL    HW272363  13.138   1.848  10.575
90156SOL     OW72364   2.507   3.080  12.862
90156SOL    HW172365   2.565   3.100  12.936
90156SOL    HW272366   2.424   3.054  12.903
90157SOL     OW72367   3.378   9.852   1.293
90157SOL    HW172368   3.367   9.946   1.278
90157SOL    HW272369   3.465   9.832   1.259
90158SOL     OW72370  10.499   5.171  11.028
90158SOL    HW172371  10.454   5.193  10.947
90158SOL    HW272372  10.489   5.248  11.083
90159SOL     OW72373  13.072   6.347   8.159
90159SOL    HW172374  13.031   6.307   8.236
90159SOL    HW272375  12.999   6.373   8.103
90160SOL     OW72376  14.159  11.817   4.531
90160SOL    HW172377  14.165  11.842   4.623
90160SOL    HW272378  14.203  11.888   4.484
90161SOL     OW72379   4.983  10.222  12.175
90161SOL    HW172380   4.948  10.221  12.264
90161SOL    HW272381   4.910  10.193  12.120
90162SOL     OW72382   4.627   6.458   4.205
90162SOL    HW172383   4.601   6.372   4.172
90162SOL    HW272384   4.545   6.500   4.230
90163SOL     OW72385  14.431  14.250   5.932
90163SOL    HW172386  14.474  14.165   5.936
90163SOL    HW272387  14.471  14.293   5.857
90164SOL     OW72388   2.586   7.895  10.652
90164SOL    HW172389   2.575   7.974  10.707
90164SOL    HW272390   2.615   7.929  10.568
90165SOL     OW72391  12.189   8.431   4.178
90165SOL    HW172392  12.138   8.373   4.234
90165SOL    HW272393  12.262   8.377   4.147
90166SOL     OW72394  10.387  13.474   9.215
90166SOL    HW172395  10.387  13.378   9.219
90166SOL    HW272396  10.474  13.497   9.184
90167SOL     OW72397   1.046   0.587   5.811
90167SOL    HW172398   1.030   0.648   5.883
90167SOL    HW272399   1.063   0.503   5.853
90168SOL     OW72400   1.521   3.890  13.690
90168SOL    HW172401   1.606   3.890  13.646
90168SOL    HW272402   1.477   3.811  13.657
90169SOL     OW72403   2.730  11.357  14.700
90169SOL    HW172404   2.634  11.355  14.706
90169SOL    HW272405   2.748  11.417  14.628
90170SOL     OW72406   9.477   5.707  11.044
90170SOL    HW172407   9.409   5.690  11.110
90170SOL    HW272408   9.479   5.802  11.036
90171SOL     OW72409   2.947   4.431  14.299
90171SOL    HW172410   2.861   4.393  14.281
90171SOL    HW272411   2.941   4.466  14.387
90172SOL     OW72412   9.253   0.612   8.754
90172SOL    HW172413   9.277   0.520   8.765
90172SOL    HW272414   9.167   0.619   8.795
90173SOL     OW72415   2.933   8.995   2.296
90173SOL    HW172416   2.931   9.073   2.351
90173SOL    HW272417   2.870   9.014   2.226
90174SOL     OW72418   1.402   1.566   3.251
90174SOL    HW172419   1.412   1.624   3.327
90174SOL    HW272420   1.484   1.575   3.203
90175SOL     OW72421   1.283   2.278  12.571
90175SOL    HW172422   1.283   2.278  12.475
90175SOL    HW272423   1.191   2.275  12.595
90176SOL     OW72424   9.835  10.478   2.627
90176SOL    HW172425   9.798  10.393   2.604
90176SOL    HW272426   9.869  10.513   2.545
90177SOL     OW72427   9.502   6.994  13.419
90177SOL    HW172428   9.421   6.996  13.368
90177SOL    HW272429   9.549   7.073  13.393
90178SOL     OW72430   7.244  10.591   2.185
90178SOL    HW172431   7.201  10.527   2.241
90178SOL    HW272432   7.174  10.624   2.128
90179SOL     OW72433   4.113   3.842  13.405
90179SOL    HW172434   4.119   3.927  13.361
90179SOL    HW272435   4.150   3.857  13.492
90180SOL     OW72436   3.185  10.436  14.104
90180SOL    HW172437   3.107  10.492  14.099
90180SOL    HW272438   3.179  10.380  14.027
90181SOL     OW72439   2.985   4.232   5.122
90181SOL    HW172440   3.008   4.144   5.093
90181SOL    HW272441   3.019   4.289   5.053
90182SOL     OW72442   5.379   6.094  11.680
90182SOL    HW172443   5.345   6.040  11.751
90182SOL    HW272444   5.307   6.100  11.617
90183SOL     OW72445   6.871   6.720   9.295
90183SOL    HW172446   6.905   6.800   9.257
90183SOL    HW272447   6.945   6.660   9.297
90184SOL     OW72448  13.270   1.354   6.587
90184SOL    HW172449  13.233   1.350   6.499
90184SOL    HW272450  13.247   1.441   6.619
90185SOL     OW72451   5.846  14.147   2.085
90185SOL    HW172452   5.903  14.179   2.155
90185SOL    HW272453   5.790  14.222   2.064
90186SOL     OW72454   3.221  11.064  13.732
90186SOL    HW172455   3.277  11.141  13.744
90186SOL    HW272456   3.136  11.101  13.706
90187SOL     OW72457   1.019   2.748   8.623
90187SOL    HW172458   0.957   2.712   8.687
90187SOL    HW272459   1.074   2.808   8.674
90188SOL     OW72460  14.484   7.176   1.384
90188SOL    HW172461  14.569   7.214   1.361
90188SOL    HW272462  14.422   7.223   1.329
90189SOL     OW72463   0.166  14.384   9.253
90189SOL    HW172464   0.128  14.303   9.284
90189SOL    HW272465   0.248  14.357   9.210
90190SOL     OW72466  10.277   4.599   6.855
90190SOL    HW172467  10.218   4.526   6.842
90190SOL    HW272468  10.249   4.664   6.790
90191SOL     OW72469   9.748   9.729   2.411
90191SOL    HW172470   9.726   9.804   2.467
90191SOL    HW272471   9.836   9.746   2.379
90192SOL     OW72472   7.103  12.483  11.093
90192SOL    HW172473   7.193  12.465  11.118
90192SOL    HW272474   7.092  12.577  11.110
90193SOL     OW72475  13.792   5.967  10.191
90193SOL    HW172476  13.875   6.007  10.166
90193SOL    HW272477  13.762   6.019  10.266
90194SOL     OW72478   5.433   6.700   9.785
90194SOL    HW172479   5.399   6.682   9.697
90194SOL    HW272480   5.485   6.780   9.774
90195SOL     OW72481   2.653   4.735  14.186
90195SOL    HW172482   2.658   4.662  14.124
90195SOL    HW272483   2.692   4.809  14.139
90196SOL     OW72484  10.524  10.133  10.916
90196SOL    HW172485  10.534  10.182  10.834
90196SOL    HW272486  10.546  10.196  10.985
90197SOL     OW72487   6.763  12.186  14.662
90197SOL    HW172488   6.835  12.130  14.636
90197SOL    HW272489   6.689  12.126  14.675
90198SOL     OW72490   2.047  14.338   1.609
90198SOL    HW172491   2.138  14.319   1.590
90198SOL    HW272492   2.035  14.429   1.582
90199SOL     OW72493   5.356   2.944   4.939
90199SOL    HW172494   5.397   2.967   5.022
90199SOL    HW272495   5.291   3.014   4.924
90200SOL     OW72496  12.419   3.550  10.856
90200SOL    HW172497  12.397   3.463  10.891
90200SOL    HW272498  12.486   3.532  10.789
90201SOL     OW72499   1.621  13.215   0.348
90201SOL    HW172500   1.582  13.144   0.400
90201SOL    HW272501   1.705  13.179   0.319
90202SOL     OW72502   1.230   4.059  11.465
90202SOL    HW172503   1.307   4.110  11.493
90202SOL    HW272504   1.167   4.071  11.536
90203SOL     OW72505   5.664   7.945   2.024
90203SOL    HW172506   5.571   7.967   2.019
90203SOL    HW272507   5.674   7.903   2.110
90204SOL     OW72508  12.336   2.653  14.745
90204SOL    HW172509  12.298   2.734  14.710
90204SOL    HW272510  12.263   2.591  14.748
90205SOL     OW72511   9.733  14.845   6.831
90205SOL    HW172512   9.707  14.864   6.741
90205SOL    HW272513   9.659  14.874   6.884
90206SOL     OW72514   6.282   1.651   3.453
90206SOL    HW172515   6.264   1.744   3.437
90206SOL    HW272516   6.370   1.637   3.418
90207SOL     OW72517   9.538  12.567  11.092
90207SOL    HW172518   9.625  12.579  11.130
90207SOL    HW272519   9.538  12.621  11.013
90208SOL     OW72520   5.624   1.694  14.499
90208SOL    HW172521   5.672   1.737  14.429
90208SOL    HW272522   5.534   1.725  14.490
90209SOL     OW72523   2.999   5.865  14.541
90209SOL    HW172524   2.956   5.933  14.489
90209SOL    HW272525   2.976   5.783  14.496
90210SOL     OW72526   7.377   4.024  10.732
90210SOL    HW172527   7.431   4.102  10.747
90210SOL    HW272528   7.434   3.951  10.756
90211SOL     OW72529  12.937   9.086   7.885
90211SOL    HW172530  12.873   9.141   7.929
90211SOL    HW272531  12.910   9.085   7.793
90212SOL     OW72532   3.251   3.258   6.070
90212SOL    HW172533   3.305   3.223   6.140
90212SOL    HW272534   3.182   3.307   6.115
90213SOL     OW72535   4.071  13.804   0.931
90213SOL    HW172536   4.053  13.778   0.840
90213SOL    HW272537   4.016  13.746   0.983
90214SOL     OW72538  12.693  14.385  13.578
90214SOL    HW172539  12.778  14.429  13.580
90214SOL    HW272540  12.690  14.335  13.660
90215SOL     OW72541   1.670   5.939   7.179
90215SOL    HW172542   1.722   5.958   7.100
90215SOL    HW272543   1.708   5.858   7.214
90216SOL     OW72544   1.466  13.775  13.120
90216SOL    HW172545   1.489  13.718  13.193
90216SOL    HW272546   1.505  13.733  13.044
90217SOL     OW72547  10.768  13.367   8.491
90217SOL    HW172548  10.712  13.345   8.416
90217SOL    HW272549  10.811  13.449   8.465
90218SOL     OW72550  13.131  10.348   3.140
90218SOL    HW172551  13.089  10.274   3.183
90218SOL    HW272552  13.150  10.409   3.211
90219SOL     OW72553   7.525   6.742   8.395
90219SOL    HW172554   7.484   6.657   8.411
90219SOL    HW272555   7.617   6.730   8.420
90220SOL     OW72556   0.437   5.931   0.789
90220SOL    HW172557   0.455   6.020   0.819
90220SOL    HW272558   0.402   5.941   0.701
90221SOL     OW72559  13.110   8.356  13.284
90221SOL    HW172560  13.093   8.421  13.352
90221SOL    HW272561  13.191   8.385  13.243
90222SOL     OW72562   6.498   2.369   5.447
90222SOL    HW172563   6.509   2.400   5.357
90222SOL    HW272564   6.487   2.449   5.499
90223SOL     OW72565   1.388   5.094  10.652
90223SOL    HW172566   1.335   5.101  10.732
90223SOL    HW272567   1.477   5.080  10.685
90224SOL     OW72568   5.640   6.954  10.534
90224SOL    HW172569   5.612   6.989  10.450
90224SOL    HW272570   5.616   6.861  10.532
90225SOL     OW72571   6.564   4.842   9.937
90225SOL    HW172572   6.548   4.748   9.928
90225SOL    HW272573   6.516   4.867  10.016
90226SOL     OW72574   2.066   6.081   2.724
90226SOL    HW172575   2.074   6.036   2.640
90226SOL    HW272576   1.974   6.105   2.729
90227SOL     OW72577   1.663   7.281   2.486
90227SOL    HW172578   1.628   7.299   2.573
90227SOL    HW272579   1.692   7.190   2.489
90228SOL     OW72580   2.121   2.583  14.488
90228SOL    HW172581   2.171   2.642  14.432
90228SOL    HW272582   2.056   2.544  14.430
90229SOL     OW72583  14.698   3.733  10.451
90229SOL    HW172584  14.722   3.663  10.512
90229SOL    HW272585  14.781   3.776  10.430
90230SOL     OW72586   2.748  13.768   3.523
90230SOL    HW172587   2.734  13.697   3.586
90230SOL    HW272588   2.839  13.795   3.537
90231SOL     OW72589  11.471   8.056   4.067
90231SOL    HW172590  11.550   8.016   4.105
90231SOL    HW272591  11.499   8.143   4.040
90232SOL     OW72592   3.507   2.318   6.446
90232SOL    HW172593   3.550   2.234   6.428
90232SOL    HW272594   3.568   2.365   6.503
90233SOL     OW72595   5.999   4.359   0.677
90233SOL    HW172596   6.019   4.451   0.663
90233SOL    HW272597   6.067   4.328   0.737
90234SOL     OW72598   2.924  11.512   9.346
90234SOL    HW172599   2.865  11.443   9.315
90234SOL    HW272600   2.975  11.535   9.269
90235SOL     OW72601  13.650   0.644   9.811
90235SOL    HW172602  13.588   0.619   9.744
90235SOL    HW272603  13.659   0.566   9.866
90236SOL     OW72604   1.586   5.533  10.338
90236SOL    HW172605   1.530   5.458  10.357
90236SOL    HW272606   1.531   5.609  10.357
90237SOL     OW72607   2.868   0.283   0.859
90237SOL    HW172608   2.895   0.353   0.918
90237SOL    HW272609   2.950   0.242   0.831
90238SOL     OW72610   9.219   0.706   8.387
90238SOL    HW172611   9.169   0.742   8.460
90238SOL    HW272612   9.158   0.649   8.341
90239SOL     OW72613   5.616   1.681   5.132
90239SOL    HW172614   5.643   1.617   5.197
90239SOL    HW272615   5.695   1.730   5.110
90240SOL     OW72616   1.474  14.266   7.261
90240SOL    HW172617   1.486  14.332   7.330
90240SOL    HW272618   1.452  14.186   7.308
90241SOL     OW72619   8.432  10.210   1.903
90241SOL    HW172620   8.483  10.200   1.984
90241SOL    HW272621   8.373  10.284   1.921
90242SOL     OW72622  10.383   6.893  10.186
90242SOL    HW172623  10.375   6.971  10.241
90242SOL    HW272624  10.453   6.842  10.227
90243SOL     OW72625   8.912  14.115   0.272
90243SOL    HW172626   8.935  14.138   0.362
90243SOL    HW272627   8.824  14.078   0.279
90244SOL     OW72628   4.876   8.653   7.884
90244SOL    HW172629   4.892   8.651   7.978
90244SOL    HW272630   4.815   8.581   7.868
90245SOL     OW72631   0.758   8.240   4.783
90245SOL    HW172632   0.703   8.292   4.724
90245SOL    HW272633   0.838   8.292   4.791
90246SOL     OW72634   7.343  12.699   7.409
90246SOL    HW172635   7.362  12.632   7.345
90246SOL    HW272636   7.279  12.658   7.468
90247SOL     OW72637  13.759  13.781   2.789
90247SOL    HW172638  13.774  13.694   2.825
90247SOL    HW272639  13.809  13.781   2.707
90248SOL     OW72640  14.500  10.314   3.846
90248SOL    HW172641  14.593  10.303   3.829
90248SOL    HW272642  14.491  10.404   3.876
90249SOL     OW72643  10.765   0.723  10.256
90249SOL    HW172644  10.820   0.689  10.327
90249SOL    HW272645  10.729   0.805  10.290
90250SOL     OW72646   9.352   3.719   8.434
90250SOL    HW172647   9.342   3.806   8.471
90250SOL    HW272648   9.303   3.723   8.351
90251SOL     OW72649  12.241   9.729   3.161
90251SOL    HW172650  12.288   9.728   3.245
90251SOL    HW272651  12.197   9.644   3.157
90252SOL     OW72652   2.277   4.907   0.937
90252SOL    HW172653   2.335   4.956   0.994
90252SOL    HW272654   2.334   4.867   0.872
90253SOL     OW72655   4.671   4.156   2.386
90253SOL    HW172656   4.716   4.108   2.317
90253SOL    HW272657   4.657   4.243   2.348
90254SOL     OW72658   1.874   9.924   7.705
90254SOL    HW172659   1.820   9.971   7.641
90254SOL    HW272660   1.833   9.837   7.712
90255SOL     OW72661   9.993   6.762  12.949
90255SOL    HW172662   9.949   6.680  12.928
90255SOL    HW272663  10.079   6.755  12.907
90256SOL     OW72664   0.503   7.212   4.522
90256SOL    HW172665   0.596   7.226   4.503
90256SOL    HW272666   0.498   7.123   4.556
90257SOL     OW72667  10.380  10.664  12.788
90257SOL    HW172668  10.381  10.614  12.706
90257SOL    HW272669  10.361  10.598  12.855
90258SOL     OW72670   6.362  13.167   4.227
90258SOL    HW172671   6.337  13.136   4.314
90258SOL    HW272672   6.403  13.091   4.185
90259SOL     OW72673  14.267  12.334  10.904
90259SOL    HW172674  14.209  12.363  10.975
90259SOL    HW272675  14.226  12.255  10.869
90260SOL     OW72676   5.556  12.863  13.649
90260SOL    HW172677   5.643  12.834  13.675
90260SOL    HW272678   5.502  12.849  13.727
90261SOL     OW72679   4.849   6.534   0.544
90261SOL    HW172680   4.837   6.510   0.453
90261SOL    HW272681   4.912   6.470   0.578
90262SOL     OW72682  11.118   3.866   0.512
90262SOL    HW172683  11.063   3.858   0.590
90262SOL    HW272684  11.132   3.960   0.501
90263SOL     OW72685   8.387   0.633   2.081
90263SOL    HW172686   8.434   0.550   2.091
90263SOL    HW272687   8.295   0.609   2.088
90264SOL     OW72688   0.808   0.574  12.770
90264SOL    HW172689   0.784   0.552  12.680
90264SOL    HW272690   0.730   0.551  12.822
90265SOL     OW72691   0.059   3.746   3.810
90265SOL    HW172692   0.147   3.763   3.777
90265SOL    HW272693   0.033   3.664   3.768
90266SOL     OW72694  14.341   1.501   6.022
90266SOL    HW172695  14.277   1.491   5.952
90266SOL    HW272696  14.362   1.594   6.023
90267SOL     OW72697  12.933  13.693  13.306
90267SOL    HW172698  12.860  13.712  13.364
90267SOL    HW272699  12.992  13.638  13.357
90268SOL     OW72700  11.019   1.775   1.907
90268SOL    HW172701  11.026   1.870   1.894
90268SOL    HW272702  10.933   1.753   1.871
90269SOL     OW72703   9.566  10.357  11.610
90269SOL    HW172704   9.631  10.293  11.638
90269SOL    HW272705   9.554  10.338  11.517
90270SOL     OW72706   9.890   3.086   4.210
90270SOL    HW172707   9.955   3.156   4.211
90270SOL    HW272708   9.816   3.123   4.162
90271SOL     OW72709  12.944  11.272   2.670
90271SOL    HW172710  12.998  11.207   2.625
90271SOL    HW272711  12.920  11.231   2.753
90272SOL     OW72712  14.011   6.258   9.014
90272SOL    HW172713  14.083   6.308   8.974
90272SOL    HW272714  13.995   6.187   8.953
90273SOL     OW72715   6.260   9.507   6.582
90273SOL    HW172716   6.277   9.590   6.536
90273SOL    HW272717   6.339   9.491   6.633
90274SOL     OW72718  13.460  12.253  11.304
90274SOL    HW172719  13.500  12.340  11.309
90274SOL    HW272720  13.370  12.270  11.275
90275SOL     OW72721   0.495  14.726  11.791
90275SOL    HW172722   0.411  14.714  11.835
90275SOL    HW272723   0.540  14.793  11.843
90276SOL     OW72724   5.498   5.451   4.741
90276SOL    HW172725   5.568   5.511   4.768
90276SOL    HW272726   5.469   5.484   4.656
90277SOL     OW72727   5.224  11.013   9.982
90277SOL    HW172728   5.260  10.925   9.994
90277SOL    HW272729   5.276  11.050   9.911
90278SOL     OW72730   8.868   1.540   0.878
90278SOL    HW172731   8.892   1.581   0.795
90278SOL    HW272732   8.780   1.572   0.896
90279SOL     OW72733   6.453  11.244  11.501
90279SOL    HW172734   6.487  11.310  11.561
90279SOL    HW272735   6.434  11.169  11.558
90280SOL     OW72736   8.965  13.882   0.991
90280SOL    HW172737   8.881  13.892   0.946
90280SOL    HW272738   8.942  13.869   1.083
90281SOL     OW72739   4.219  13.085  14.480
90281SOL    HW172740   4.302  13.066  14.523
90281SOL    HW272741   4.232  13.169  14.436
90282SOL     OW72742   4.918  13.118   7.444
90282SOL    HW172743   4.920  13.154   7.355
90282SOL    HW272744   5.001  13.071   7.453
90283SOL     OW72745   1.318  13.237   2.863
90283SOL    HW172746   1.377  13.166   2.890
90283SOL    HW272747   1.345  13.258   2.774
90284SOL     OW72748  11.882   2.269   1.111
90284SOL    HW172749  11.809   2.308   1.159
90284SOL    HW272750  11.843   2.197   1.062
90285SOL     OW72751   9.213   2.387   6.409
90285SOL    HW172752   9.269   2.379   6.486
90285SOL    HW272753   9.215   2.301   6.369
90286SOL     OW72754   5.511   2.985   6.663
90286SOL    HW172755   5.497   2.897   6.628
90286SOL    HW272756   5.456   3.042   6.608
90287SOL     OW72757   3.890  12.459   2.850
90287SOL    HW172758   3.954  12.389   2.862
90287SOL    HW272759   3.901  12.485   2.759
90288SOL     OW72760  11.973   3.842   9.413
90288SOL    HW172761  12.033   3.857   9.340
90288SOL    HW272762  11.889   3.823   9.372
90289SOL     OW72763   2.388   7.424   0.274
90289SOL    HW172764   2.321   7.492   0.273
90289SOL    HW272765   2.461   7.463   0.322
90290SOL     OW72766  12.128   2.716   0.509
90290SOL    HW172767  12.035   2.738   0.504
90290SOL    HW272768  12.137   2.669   0.592
90291SOL     OW72769  12.135  10.613  10.630
90291SOL    HW172770  12.126  10.524  10.663
90291SOL    HW272771  12.087  10.667  10.693
90292SOL     OW72772   8.107  11.595   5.447
90292SOL    HW172773   8.180  11.647   5.411
90292SOL    HW272774   8.148  11.515   5.479
90293SOL     OW72775  11.831   7.377   1.915
90293SOL    HW172776  11.812   7.425   1.995
90293SOL    HW272777  11.875   7.297   1.944
90294SOL     OW72778  11.117   2.345  11.754
90294SOL    HW172779  11.089   2.364  11.665
90294SOL    HW272780  11.198   2.295  11.744
90295SOL     OW72781   6.443   3.525   0.994
90295SOL    HW172782   6.411   3.545   0.906
90295SOL    HW272783   6.368   3.483   1.037
90296SOL     OW72784   8.318   0.425  13.311
90296SOL    HW172785   8.238   0.390  13.271
90296SOL    HW272786   8.303   0.520  13.315
90297SOL     OW72787   7.023  10.988  12.209
90297SOL    HW172788   6.941  10.960  12.250
90297SOL    HW272789   7.080  10.911  12.215
90298SOL     OW72790  10.256   5.878   0.780
90298SOL    HW172791  10.167   5.902   0.808
90298SOL    HW272792  10.307   5.958   0.793
90299SOL     OW72793  13.912  14.262   7.860
90299SOL    HW172794  13.993  14.310   7.875
90299SOL    HW272795  13.928  14.175   7.898
90300SOL     OW72796  11.412  14.431   1.965
90300SOL    HW172797  11.457  14.511   1.940
90300SOL    HW272798  11.477  14.381   2.015
90301SOL     OW72799   6.557  11.749   5.278
90301SOL    HW172800   6.505  11.749   5.197
90301SOL    HW272801   6.623  11.816   5.263
90302SOL     OW72802   7.035  14.545  14.303
90302SOL    HW172803   6.945  14.567  14.326
90302SOL    HW272804   7.079  14.533  14.387
90303SOL     OW72805   4.024   9.404   8.429
90303SOL    HW172806   4.056   9.491   8.452
90303SOL    HW272807   4.005   9.361   8.512
90304SOL     OW72808   5.181   7.161   5.516
90304SOL    HW172809   5.207   7.172   5.607
90304SOL    HW272810   5.087   7.181   5.515
90305SOL     OW72811   9.501   0.767   1.616
90305SOL    HW172812   9.594   0.749   1.603
90305SOL    HW272813   9.497   0.823   1.693
90306SOL     OW72814   2.910   1.666  12.183
90306SOL    HW172815   2.939   1.755  12.161
90306SOL    HW272816   2.832   1.679  12.236
90307SOL     OW72817  10.973   3.523   5.731
90307SOL    HW172818  10.963   3.609   5.689
90307SOL    HW272819  10.986   3.544   5.824
90308SOL     OW72820  11.501   9.126   4.997
90308SOL    HW172821  11.471   9.161   5.081
90308SOL    HW272822  11.571   9.065   5.020
90309SOL     OW72823   2.987   5.433   3.730
90309SOL    HW172824   3.006   5.354   3.680
90309SOL    HW272825   2.901   5.416   3.770
90310SOL     OW72826   8.090   7.837   9.726
90310SOL    HW172827   8.136   7.830   9.642
90310SOL    HW272828   8.049   7.924   9.724
90311SOL     OW72829  12.992  13.757  14.721
90311SOL    HW172830  12.926  13.691  14.699
90311SOL    HW272831  13.067  13.706  14.752
90312SOL     OW72832   3.401   0.576   5.786
90312SOL    HW172833   3.486   0.585   5.829
90312SOL    HW272834   3.342   0.546   5.855
90313SOL     OW72835  13.079   0.290  11.078
90313SOL    HW172836  12.991   0.296  11.042
90313SOL    HW272837  13.068   0.242  11.160
90314SOL     OW72838   7.352   1.981   2.362
90314SOL    HW172839   7.346   1.887   2.381
90314SOL    HW272840   7.364   1.985   2.267
90315SOL     OW72841  11.163   8.201   7.092
90315SOL    HW172842  11.091   8.175   7.149
90315SOL    HW272843  11.242   8.182   7.142
90316SOL     OW72844   4.523  14.651   1.161
90316SOL    HW172845   4.599  14.607   1.122
90316SOL    HW272846   4.490  14.708   1.092
90317SOL     OW72847  14.704   2.561   4.961
90317SOL    HW172848  14.752   2.633   5.002
90317SOL    HW272849  14.615   2.567   4.996
90318SOL     OW72850   0.366   6.049   8.476
90318SOL    HW172851   0.326   6.070   8.391
90318SOL    HW272852   0.292   6.043   8.536
90319SOL     OW72853   8.187  11.549  11.696
90319SOL    HW172854   8.167  11.630  11.744
90319SOL    HW272855   8.124  11.547  11.624
90320SOL     OW72856   6.305   0.916  11.827
90320SOL    HW172857   6.300   0.821  11.831
90320SOL    HW272858   6.229   0.943  11.775
90321SOL     OW72859  13.560   9.415   8.281
90321SOL    HW172860  13.488   9.391   8.339
90321SOL    HW272861  13.621   9.342   8.288
90322SOL     OW72862   5.531   2.820  11.799
90322SOL    HW172863   5.578   2.899  11.826
90322SOL    HW272864   5.497   2.783  11.880
90323SOL     OW72865  13.253   2.286   3.068
90323SOL    HW172866  13.200   2.352   3.025
90323SOL    HW272867  13.204   2.204   3.056
90324SOL     OW72868  14.239   0.236   2.987
90324SOL    HW172869  14.179   0.303   3.020
90324SOL    HW272870  14.186   0.156   2.983
90325SOL     OW72871   9.685   4.866  12.635
90325SOL    HW172872   9.697   4.800  12.704
90325SOL    HW272873   9.772   4.904  12.623
90326SOL     OW72874   5.918  13.297  13.686
90326SOL    HW172875   5.846  13.242  13.716
90326SOL    HW272876   5.993  13.270  13.740
90327SOL     OW72877  11.567   8.100   5.360
90327SOL    HW172878  11.658   8.119   5.381
90327SOL    HW272879  11.547   8.021   5.411
90328SOL     OW72880   4.143   5.670  12.491
90328SOL    HW172881   4.077   5.604  12.512
90328SOL    HW272882   4.193   5.632  12.419
90329SOL     OW72883  14.270  14.570   5.580
90329SOL    HW172884  14.337  14.537   5.521
90329SOL    HW272885  14.193  14.516   5.560
90330SOL     OW72886   0.695   9.546  10.113
90330SOL    HW172887   0.662   9.513  10.029
90330SOL    HW272888   0.790   9.537  10.107
90331SOL     OW72889   4.316   7.231  11.230
90331SOL    HW172890   4.379   7.274  11.287
90331SOL    HW272891   4.299   7.147  11.272
90332SOL     OW72892   9.028   0.960   3.247
90332SOL    HW172893   9.085   0.907   3.302
90332SOL    HW272894   9.033   0.920   3.161
90333SOL     OW72895  11.816   3.217   2.118
90333SOL    HW172896  11.822   3.237   2.212
90333SOL    HW272897  11.795   3.301   2.077
90334SOL     OW72898   3.669   4.972  11.803
90334SOL    HW172899   3.635   5.019  11.726
90334SOL    HW272900   3.604   4.989  11.871
90335SOL     OW72901   7.874  12.214   0.550
90335SOL    HW172902   7.934  12.269   0.500
90335SOL    HW272903   7.845  12.270   0.622
90336SOL     OW72904  13.836   1.856   7.614
90336SOL    HW172905  13.755   1.887   7.575
90336SOL    HW272906  13.894   1.840   7.540
90337SOL     OW72907   3.581  11.502  11.404
90337SOL    HW172908   3.623  11.588  11.397
90337SOL    HW272909   3.642  11.443  11.359
90338SOL     OW72910  12.568  11.529   2.570
90338SOL    HW172911  12.599  11.538   2.480
90338SOL    HW272912  12.474  11.547   2.566
90339SOL     OW72913   8.076   6.708   0.791
90339SOL    HW172914   8.010   6.699   0.860
90339SOL    HW272915   8.158   6.679   0.832
90340SOL     OW72916  12.518  13.426   1.489
90340SOL    HW172917  12.571  13.462   1.561
90340SOL    HW272918  12.553  13.337   1.476
90341SOL     OW72919  11.331   9.797   6.987
90341SOL    HW172920  11.378   9.785   7.069
90341SOL    HW272921  11.398   9.790   6.919
90342SOL     OW72922   3.371   2.320   3.531
90342SOL    HW172923   3.442   2.355   3.585
90342SOL    HW272924   3.305   2.291   3.594
90343SOL     OW72925  13.444   6.899  10.472
90343SOL    HW172926  13.469   6.808  10.459
90343SOL    HW272927  13.512   6.936  10.527
90344SOL     OW72928   0.404   7.476  13.334
90344SOL    HW172929   0.464   7.504  13.404
90344SOL    HW272930   0.389   7.555  13.282
90345SOL     OW72931   3.469  12.195  10.885
90345SOL    HW172932   3.385  12.200  10.839
90345SOL    HW272933   3.523  12.262  10.843
90346SOL     OW72934  12.344   2.430   4.491
90346SOL    HW172935  12.385   2.409   4.575
90346SOL    HW272936  12.395   2.505   4.459
90347SOL     OW72937   9.675   4.111  11.430
90347SOL    HW172938   9.609   4.109  11.500
90347SOL    HW272939   9.639   4.171  11.365
90348SOL     OW72940   9.485  14.624  13.108
90348SOL    HW172941   9.464  14.579  13.190
90348SOL    HW272942   9.444  14.710  13.117
90349SOL     OW72943   7.395  12.254   3.904
90349SOL    HW172944   7.460  12.189   3.931
90349SOL    HW272945   7.423  12.279   3.816
90350SOL     OW72946   7.541   8.372   8.293
90350SOL    HW172947   7.491   8.384   8.212
90350SOL    HW272948   7.618   8.321   8.267
90351SOL     OW72949   9.524  13.610  10.606
90351SOL    HW172950   9.610  13.651  10.596
90351SOL    HW272951   9.467  13.680  10.638
90352SOL     OW72952   5.724  12.245  14.005
90352SOL    HW172953   5.813  12.209  14.009
90352SOL    HW272954   5.717  12.281  13.917
90353SOL     OW72955   2.420   8.192  12.470
90353SOL    HW172956   2.378   8.110  12.446
90353SOL    HW272957   2.463   8.222  12.390
90354SOL     OW72958  13.481   5.684   6.525
90354SOL    HW172959  13.445   5.596   6.526
90354SOL    HW272960  13.409   5.739   6.494
90355SOL     OW72961   8.363  11.608   2.877
90355SOL    HW172962   8.364  11.622   2.972
90355SOL    HW272963   8.272  11.623   2.852
90356SOL     OW72964  10.290   0.201  11.140
90356SOL    HW172965  10.305   0.284  11.186
90356SOL    HW272966  10.195   0.191  11.141
90357SOL     OW72967   9.195   4.211   1.998
90357SOL    HW172968   9.162   4.197   1.909
90357SOL    HW272969   9.125   4.182   2.055
90358SOL     OW72970   1.335   0.576   5.902
90358SOL    HW172971   1.335   0.607   5.811
90358SOL    HW272972   1.254   0.524   5.909
90359SOL     OW72973  12.999   1.639   9.183
90359SOL    HW172974  12.934   1.568   9.184
90359SOL    HW272975  13.039   1.633   9.097
90360SOL     OW72976  12.435  12.976   1.264
90360SOL    HW172977  12.466  12.955   1.352
90360SOL    HW272978  12.390  12.896   1.235
90361SOL     OW72979  10.823   8.382   2.906
90361SOL    HW172980  10.909   8.407   2.940
90361SOL    HW272981  10.807   8.443   2.834
90362SOL     OW72982  10.573  11.101  12.717
90362SOL    HW172983  10.556  11.149  12.636
90362SOL    HW272984  10.619  11.165  12.773
90363SOL     OW72985   3.542   4.243  12.045
90363SOL    HW172986   3.482   4.316  12.030
90363SOL    HW272987   3.572   4.255  12.135
90364SOL     OW72988   4.885  10.292   7.733
90364SOL    HW172989   4.814  10.285   7.669
90364SOL    HW272990   4.919  10.203   7.742
90365SOL     OW72991   6.741   0.282   9.030
90365SOL    HW172992   6.794   0.271   9.109
90365SOL    HW272993   6.697   0.197   9.020
90366SOL     OW72994   6.624   0.287  14.804
90366SOL    HW172995   6.551   0.249  14.755
90366SOL    HW272996   6.673   0.211  14.836
90367SOL     OW72997   2.906  14.360  10.557
90367SOL    HW172998   2.982  14.366  10.614
90367SOL    HW272999   2.832  14.389  10.611
90368SOL     OW73000  10.320   8.205   1.037
90368SOL    HW173001  10.364   8.253   1.107
90368SOL    HW273002  10.296   8.121   1.078
90369SOL     OW73003  11.440  12.162   6.551
90369SOL    HW173004  11.374  12.172   6.483
90369SOL    HW273005  11.392  12.126   6.626
90370SOL     OW73006   7.933   3.375   1.941
90370SOL    HW173007   7.908   3.314   2.010
90370SOL    HW273008   7.974   3.320   1.874
90371SOL     OW73009   8.832   7.260   1.100
90371SOL    HW173010   8.917   7.264   1.144
90371SOL    HW273011   8.849   7.213   1.019
90372SOL     OW73012  10.960   3.776  10.878
90372SOL    HW173013  11.026   3.709  10.895
90372SOL    HW273014  11.010   3.852  10.849
90373SOL     OW73015  12.842   6.490   4.321
90373SOL    HW173016  12.845   6.415   4.381
90373SOL    HW273017  12.883   6.561   4.369
90374SOL     OW73018   8.146  13.779   7.867
90374SOL    HW173019   8.217  13.841   7.882
90374SOL    HW273020   8.154  13.755   7.775
90375SOL     OW73021   6.333   7.972  12.070
90375SOL    HW173022   6.352   8.052  12.118
90375SOL    HW273023   6.250   7.941  12.107
90376SOL     OW73024   8.412   3.817  12.402
90376SOL    HW173025   8.388   3.894  12.350
90376SOL    HW273026   8.333   3.764  12.404
90377SOL     OW73027   4.620  10.204   6.142
90377SOL    HW173028   4.704  10.213   6.097
90377SOL    HW273029   4.618  10.278   6.203
90378SOL     OW73030  13.048  13.795   4.650
90378SOL    HW173031  13.074  13.704   4.667
90378SOL    HW273032  13.025  13.829   4.737
90379SOL     OW73033   4.902   4.410   9.432
90379SOL    HW173034   4.906   4.438   9.524
90379SOL    HW273035   4.919   4.316   9.435
90380SOL     OW73036  10.635   2.422   5.913
90380SOL    HW173037  10.716   2.386   5.877
90380SOL    HW273038  10.571   2.414   5.842
90381SOL     OW73039   9.679  12.372  13.318
90381SOL    HW173040   9.660  12.440  13.382
90381SOL    HW273041   9.773  12.381  13.301
90382SOL     OW73042   7.207   9.899   7.903
90382SOL    HW173043   7.204   9.805   7.883
90382SOL    HW273044   7.276   9.933   7.845
90383SOL     OW73045  10.625  12.131   1.612
90383SOL    HW173046  10.532  12.151   1.602
90383SOL    HW273047  10.670  12.209   1.579
90384SOL     OW73048   7.445   8.648   5.184
90384SOL    HW173049   7.536   8.670   5.203
90384SOL    HW273050   7.449   8.560   5.146
90385SOL     OW73051  10.613  11.076   9.924
90385SOL    HW173052  10.527  11.041   9.902
90385SOL    HW273053  10.612  11.165   9.888
90386SOL     OW73054   9.785  13.157  14.209
90386SOL    HW173055   9.824  13.096  14.146
90386SOL    HW273056   9.748  13.227  14.155
90387SOL     OW73057  12.269   3.423   8.885
90387SOL    HW173058  12.184   3.459   8.909
90387SOL    HW273059  12.248   3.338   8.845
90388SOL     OW73060  12.077   6.167   5.334
90388SOL    HW173061  12.114   6.254   5.346
90388SOL    HW273062  12.040   6.144   5.420
90389SOL     OW73063  13.369   9.333   8.466
90389SOL    HW173064  13.321   9.251   8.455
90389SOL    HW273065  13.348   9.361   8.556
90390SOL     OW73066   6.760  13.710  10.066
90390SOL    HW173067   6.853  13.705  10.046
90390SOL    HW273068   6.740  13.803  10.064
90391SOL     OW73069  10.374   1.812   9.435
90391SOL    HW173070  10.453   1.865   9.419
90391SOL    HW273071  10.323   1.864   9.496
90392SOL     OW73072   0.712   5.644  10.809
90392SOL    HW173073   0.672   5.577  10.864
90392SOL    HW273074   0.637   5.691  10.771
90393SOL     OW73075   5.133   9.478  13.368
90393SOL    HW173076   5.105   9.482  13.277
90393SOL    HW273077   5.227   9.494  13.366
90394SOL     OW73078   9.885   1.706  12.995
90394SOL    HW173079   9.900   1.632  13.054
90394SOL    HW273080   9.885   1.667  12.907
90395SOL     OW73081   2.333  14.687   0.888
90395SOL    HW173082   2.372  14.770   0.914
90395SOL    HW273083   2.349  14.629   0.963
90396SOL     OW73084   4.486   1.645  12.022
90396SOL    HW173085   4.419   1.645  11.954
90396SOL    HW273086   4.507   1.553  12.035
90397SOL     OW73087   5.336   7.611   1.905
90397SOL    HW173088   5.301   7.694   1.873
90397SOL    HW273089   5.277   7.545   1.869
90398SOL     OW73090   9.981   4.302   7.726
90398SOL    HW173091   9.976   4.296   7.631
90398SOL    HW273092   9.940   4.387   7.747
90399SOL     OW73093  13.410  13.618   0.590
90399SOL    HW173094  13.415  13.617   0.494
90399SOL    HW273095  13.496  13.648   0.618
90400SOL     OW73096   0.891  11.016  11.064
90400SOL    HW173097   0.956  11.004  11.133
90400SOL    HW273098   0.817  11.059  11.107
90401SOL     OW73099  11.898   0.102   8.215
90401SOL    HW173100  11.840   0.041   8.260
90401SOL    HW273101  11.978   0.104   8.267
90402SOL     OW73102  10.026   9.490   6.481
90402SOL    HW173103  10.095   9.534   6.431
90402SOL    HW273104   9.945   9.511   6.435
90403SOL     OW73105  11.733   0.507   0.585
90403SOL    HW173106  11.736   0.565   0.508
90403SOL    HW273107  11.659   0.449   0.568
90404SOL     OW73108  11.521   1.709   5.120
90404SOL    HW173109  11.612   1.693   5.143
90404SOL    HW273110  11.503   1.651   5.047
90405SOL     OW73111  14.608   1.888   8.964
90405SOL    HW173112  14.525   1.850   8.994
90405SOL    HW273113  14.612   1.973   9.007
90406SOL     OW73114   8.781   1.142   5.567
90406SOL    HW173115   8.874   1.119   5.563
90406SOL    HW273116   8.736   1.061   5.543
90407SOL     OW73117  10.051   6.901  10.882
90407SOL    HW173118  10.022   6.821  10.838
90407SOL    HW273119   9.970   6.943  10.911
90408SOL     OW73120   3.587   3.285  10.476
90408SOL    HW173121   3.598   3.228  10.553
90408SOL    HW273122   3.535   3.359  10.508
90409SOL     OW73123   5.414   9.377   7.191
90409SOL    HW173124   5.350   9.415   7.130
90409SOL    HW273125   5.403   9.426   7.272
90410SOL     OW73126   8.993  14.550   2.885
90410SOL    HW173127   9.037  14.633   2.870
90410SOL    HW273128   8.908  14.559   2.842
90411SOL     OW73129   3.289   9.602  13.585
90411SOL    HW173130   3.378   9.569  13.581
90411SOL    HW273131   3.269   9.606  13.679
90412SOL     OW73132   9.407  10.602   6.898
90412SOL    HW173133   9.483  10.608   6.840
90412SOL    HW273134   9.391  10.508   6.906
90413SOL     OW73135   6.670   1.626  11.240
90413SOL    HW173136   6.674   1.709  11.288
90413SOL    HW273137   6.762   1.605  11.223
90414SOL     OW73138  14.131   4.243  10.820
90414SOL    HW173139  14.165   4.220  10.906
90414SOL    HW273140  14.169   4.177  10.761
90415SOL     OW73141   2.950   3.755   7.573
90415SOL    HW173142   2.922   3.689   7.636
90415SOL    HW273143   2.891   3.742   7.498
90416SOL     OW73144   0.153   5.364   5.141
90416SOL    HW173145   0.182   5.299   5.076
90416SOL    HW273146   0.065   5.390   5.112
90417SOL     OW73147   3.441   6.431   5.167
90417SOL    HW173148   3.462   6.518   5.202
90417SOL    HW273149   3.401   6.448   5.082
90418SOL     OW73150   4.645   8.238   1.474
90418SOL    HW173151   4.656   8.156   1.521
90418SOL    HW273152   4.595   8.294   1.533
90419SOL     OW73153  12.772   4.954   6.957
90419SOL    HW173154  12.677   4.968   6.958
90419SOL    HW273155  12.784   4.872   7.005
90420SOL     OW73156  12.533  10.949   8.911
90420SOL    HW173157  12.540  10.944   8.815
90420SOL    HW273158  12.605  10.895   8.943
90421SOL     OW73159   6.823   4.782   3.204
90421SOL    HW173160   6.866   4.724   3.142
90421SOL    HW273161   6.841   4.744   3.290
90422SOL     OW73162   5.525   2.080  13.292
90422SOL    HW173163   5.440   2.047  13.263
90422SOL    HW273164   5.578   2.085  13.212
90423SOL     OW73165   6.290   0.637  10.487
90423SOL    HW173166   6.240   0.618  10.407
90423SOL    HW273167   6.264   0.725  10.512
90424SOL     OW73168  12.456   2.596  11.843
90424SOL    HW173169  12.527   2.649  11.807
90424SOL    HW273170  12.479   2.506  11.819
90425SOL     OW73171   1.424   5.412  10.554
90425SOL    HW173172   1.381   5.458  10.626
90425SOL    HW273173   1.488   5.355  10.598
90426SOL     OW73174  13.919  10.562   8.147
90426SOL    HW173175  13.951  10.589   8.061
90426SOL    HW273176  13.950  10.630   8.207
90427SOL     OW73177   2.968  11.201   0.846
90427SOL    HW173178   2.900  11.266   0.828
90427SOL    HW273179   2.928  11.143   0.912
90428SOL     OW73180   2.839   4.549   5.022
90428SOL    HW173181   2.846   4.569   5.115
90428SOL    HW273182   2.910   4.487   5.005
90429SOL     OW73183  11.747   8.860   7.008
90429SOL    HW173184  11.763   8.951   7.033
90429SOL    HW273185  11.705   8.866   6.922
90430SOL     OW73186  11.023  10.871  11.969
90430SOL    HW173187  11.006  10.865  12.063
90430SOL    HW273188  11.018  10.965  11.950
90431SOL     OW73189  12.426   4.279  11.595
90431SOL    HW173190  12.436   4.333  11.517
90431SOL    HW273191  12.437   4.189  11.564
90432SOL     OW73192   5.027   4.661   2.191
90432SOL    HW173193   5.001   4.754   2.186
90432SOL    HW273194   5.120   4.661   2.169
90433SOL     OW73195   5.108   0.926  13.387
90433SOL    HW173196   5.018   0.946  13.415
90433SOL    HW273197   5.120   0.977  13.307
90434SOL     OW73198  11.646   1.956   7.512
90434SOL    HW173199  11.611   2.010   7.442
90434SOL    HW273200  11.610   1.994   7.593
90435SOL     OW73201   7.285  14.780   1.117
90435SOL    HW173202   7.339  14.857   1.130
90435SOL    HW273203   7.347  14.709   1.099
90436SOL     OW73204  12.450  14.700  14.777
90436SOL    HW173205  12.525  14.642  14.789
90436SOL    HW273206  12.463  14.770  14.841
90437SOL     OW73207  12.513  14.808  13.047
90437SOL    HW173208  12.423  14.789  13.021
90437SOL    HW273209  12.528  14.753  13.124
90438SOL     OW73210  11.250   6.711   7.773
90438SOL    HW173211  11.213   6.670   7.851
90438SOL    HW273212  11.250   6.805   7.794
90439SOL     OW73213   7.136  12.712   8.338
90439SOL    HW173214   7.230  12.698   8.322
90439SOL    HW273215   7.103  12.627   8.365
90440SOL     OW73216   3.799   2.333   0.543
90440SOL    HW173217   3.850   2.406   0.508
90440SOL    HW273218   3.749   2.371   0.615
90441SOL     OW73219   8.800  14.149   1.552
90441SOL    HW173220   8.829  14.060   1.570
90441SOL    HW273221   8.726  14.139   1.492
90442SOL     OW73222   1.782  13.206   6.754
90442SOL    HW173223   1.686  13.210   6.750
90442SOL    HW273224   1.800  13.167   6.840
90443SOL     OW73225   4.004   0.884   0.742
90443SOL    HW173226   3.936   0.951   0.735
90443SOL    HW273227   4.067   0.921   0.804
90444SOL     OW73228   5.642   8.717   1.878
90444SOL    HW173229   5.636   8.757   1.791
90444SOL    HW273230   5.552   8.715   1.910
90445SOL     OW73231   4.979  14.107   8.868
90445SOL    HW173232   5.032  14.170   8.820
90445SOL    HW273233   4.908  14.085   8.808
90446SOL     OW73234  12.167   8.904  13.724
90446SOL    HW173235  12.181   8.988  13.682
90446SOL    HW273236  12.088   8.916  13.777
90447SOL     OW73237   1.984  14.675   6.501
90447SOL    HW173238   1.922  14.746   6.512
90447SOL    HW273239   2.063  14.716   6.466
90448SOL     OW73240  12.584  13.540   5.128
90448SOL    HW173241  12.490  13.526   5.141
90448SOL    HW273242  12.605  13.617   5.180
90449SOL     OW73243   3.019  11.370   8.181
90449SOL    HW173244   3.023  11.464   8.160
90449SOL    HW273245   3.111  11.342   8.181
90450SOL     OW73246  10.571   4.789  12.444
90450SOL    HW173247  10.609   4.752  12.524
90450SOL    HW273248  10.542   4.713  12.395
90451SOL     OW73249   3.860  10.440   6.138
90451SOL    HW173250   3.855  10.499   6.062
90451SOL    HW273251   3.822  10.491   6.209
90452SOL     OW73252  14.814   6.456   6.362
90452SOL    HW173253  14.754   6.524   6.333
90452SOL    HW273254  14.759   6.378   6.371
90453SOL     OW73255  12.679  10.961  13.139
90453SOL    HW173256  12.769  10.981  13.164
90453SOL    HW273257  12.626  11.026  13.185
90454SOL     OW73258   0.285   9.760   9.475
90454SOL    HW173259   0.244   9.697   9.533
90454SOL    HW273260   0.286   9.717   9.389
90455SOL     OW73261  13.367   8.294  11.434
90455SOL    HW173262  13.376   8.287  11.529
90455SOL    HW273263  13.425   8.226  11.399
90456SOL     OW73264   1.576   1.645   5.193
90456SOL    HW173265   1.481   1.657   5.189
90456SOL    HW273266   1.607   1.713   5.253
90457SOL     OW73267   2.669   6.004  11.245
90457SOL    HW173268   2.644   6.056  11.322
90457SOL    HW273269   2.694   5.918  11.282
90458SOL     OW73270  11.320   8.411   4.265
90458SOL    HW173271  11.363   8.326   4.275
90458SOL    HW273272  11.360   8.466   4.333
90459SOL     OW73273   6.473   2.156   8.051
90459SOL    HW173274   6.489   2.105   8.130
90459SOL    HW273275   6.505   2.101   7.980
90460SOL     OW73276   0.183   7.338   3.105
90460SOL    HW173277   0.193   7.385   3.187
90460SOL    HW273278   0.225   7.394   3.040
90461SOL     OW73279  10.816  13.887   1.606
90461SOL    HW173280  10.853  13.976   1.604
90461SOL    HW273281  10.888  13.832   1.634
90462SOL     OW73282   0.176  10.998  10.467
90462SOL    HW173283   0.219  10.966  10.546
90462SOL    HW273284   0.176  10.923  10.408
90463SOL     OW73285   8.155   3.376   7.967
90463SOL    HW173286   8.246   3.345   7.972
90463SOL    HW273287   8.159   3.451   7.907
90464SOL     OW73288   1.764  11.120  11.477
90464SOL    HW173289   1.794  11.043  11.429
90464SOL    HW273290   1.737  11.087  11.563
90465SOL     OW73291   2.753  10.858   7.016
90465SOL    HW173292   2.660  10.847   7.033
90465SOL    HW273293   2.764  10.831   6.925
90466SOL     OW73294   5.893   4.338   9.448
90466SOL    HW173295   5.980   4.376   9.460
90466SOL    HW273296   5.834   4.402   9.489
90467SOL     OW73297  10.097   7.392   6.732
90467SOL    HW173298  10.048   7.474   6.733
90467SOL    HW273299  10.182   7.415   6.697
90468SOL     OW73300   1.860  11.616   0.690
90468SOL    HW173301   1.815  11.618   0.605
90468SOL    HW273302   1.952  11.633   0.668
90469SOL     OW73303   5.378   1.195   3.471
90469SOL    HW173304   5.386   1.108   3.510
90469SOL    HW273305   5.304   1.235   3.517
90470SOL     OW73306   5.956   2.678   1.110
90470SOL    HW173307   5.904   2.598   1.101
90470SOL    HW273308   5.910   2.742   1.056
90471SOL     OW73309   9.676   0.874   0.515
90471SOL    HW173310   9.694   0.967   0.500
90471SOL    HW273311   9.582   0.869   0.527
90472SOL     OW73312   5.704  13.347   0.703
90472SOL    HW173313   5.751  13.324   0.623
90472SOL    HW273314   5.733  13.437   0.723
90473SOL     OW73315   9.082  14.272  12.957
90473SOL    HW173316   9.153  14.219  12.993
90473SOL    HW273317   9.126  14.336  12.902
90474SOL     OW73318   6.685  13.423  14.152
90474SOL    HW173319   6.700  13.516  14.169
90474SOL    HW273320   6.660  13.419  14.060
90475SOL     OW73321   6.274  12.954   4.996
90475SOL    HW173322   6.311  13.026   4.945
90475SOL    HW273323   6.281  12.877   4.939
90476SOL     OW73324   7.244  10.011   8.159
90476SOL    HW173325   7.177   9.981   8.098
90476SOL    HW273326   7.323   9.965   8.133
90477SOL     OW73327  12.954   2.656   7.461
90477SOL    HW173328  12.925   2.746   7.475
90477SOL    HW273329  12.879   2.602   7.485
90478SOL     OW73330  13.722   9.167   5.864
90478SOL    HW173331  13.649   9.227   5.883
90478SOL    HW273332  13.799   9.211   5.899
90479SOL     OW73333   4.241   0.875   7.256
90479SOL    HW173334   4.157   0.830   7.268
90479SOL    HW273335   4.304   0.805   7.239
90480SOL     OW73336   0.461   1.253  12.065
90480SOL    HW173337   0.375   1.294  12.055
90480SOL    HW273338   0.510   1.315  12.120
90481SOL     OW73339   4.094  13.090   7.231
90481SOL    HW173340   4.114  12.997   7.232
90481SOL    HW273341   4.010  13.096   7.186
90482SOL     OW73342   9.484   0.841   8.727
90482SOL    HW173343   9.399   0.796   8.724
90482SOL    HW273344   9.520   0.816   8.812
90483SOL     OW73345   1.313  12.650   6.141
90483SOL    HW173346   1.273  12.569   6.173
90483SOL    HW273347   1.253  12.719   6.170
90484SOL     OW73348   2.083   5.178  10.799
90484SOL    HW173349   2.176   5.156  10.808
90484SOL    HW273350   2.075   5.266  10.835
90485SOL     OW73351   5.338  13.052  12.565
90485SOL    HW173352   5.387  12.969  12.568
90485SOL    HW273353   5.319  13.066  12.473
90486SOL     OW73354  10.684   5.542   4.429
90486SOL    HW173355  10.634   5.486   4.370
90486SOL    HW273356  10.640   5.532   4.514
90487SOL     OW73357   1.213   2.428   6.487
90487SOL    HW173358   1.205   2.499   6.551
90487SOL    HW273359   1.124   2.414   6.456
90488SOL     OW73360   4.615   0.673   9.678
90488SOL    HW173361   4.646   0.592   9.719
90488SOL    HW273362   4.627   0.740   9.745
90489SOL     OW73363  13.714   4.767  14.216
90489SOL    HW173364  13.661   4.733  14.289
90489SOL    HW273365  13.767   4.693  14.188
90490SOL     OW73366   8.639   3.614   2.245
90490SOL    HW173367   8.668   3.563   2.169
90490SOL    HW273368   8.647   3.555   2.319
90491SOL     OW73369   8.228  11.350   8.792
90491SOL    HW173370   8.181  11.267   8.781
90491SOL    HW273371   8.320  11.327   8.780
90492SOL     OW73372   1.068  11.680   0.241
90492SOL    HW173373   1.002  11.672   0.172
90492SOL    HW273374   1.129  11.745   0.208
90493SOL     OW73375   6.812  12.126  11.475
90493SOL    HW173376   6.763  12.177  11.411
90493SOL    HW273377   6.858  12.061  11.423
90494SOL     OW73378   1.112  14.798   1.046
90494SOL    HW173379   1.176  14.844   1.101
90494SOL    HW273380   1.153  14.794   0.960
90495SOL     OW73381   8.581  14.427   2.618
90495SOL    HW173382   8.626  14.347   2.592
90495SOL    HW273383   8.591  14.485   2.542
90496SOL     OW73384   4.233   6.047  13.333
90496SOL    HW173385   4.281   6.063  13.252
90496SOL    HW273386   4.238   6.130  13.381
90497SOL     OW73387  11.784   5.964   7.173
90497SOL    HW173388  11.778   6.058   7.194
90497SOL    HW273389  11.693   5.936   7.164
90498SOL     OW73390  14.759   3.248   2.340
90498SOL    HW173391  14.748   3.309   2.267
90498SOL    HW273392  14.723   3.295   2.416
90499SOL     OW73393  14.717   9.999  13.117
90499SOL    HW173394  14.769  10.079  13.118
90499SOL    HW273395  14.630  10.027  13.089
90500SOL     OW73396   0.886   3.472  14.584
90500SOL    HW173397   0.869   3.528  14.660
90500SOL    HW273398   0.862   3.526  14.509
90501SOL     OW73399   0.042   6.369   5.234
90501SOL    HW173400   0.061   6.353   5.142
90501SOL    HW273401  14.865   6.298   5.260
90502SOL     OW73402   5.709   6.675   6.595
90502SOL    HW173403   5.665   6.603   6.549
90502SOL    HW273404   5.746   6.634   6.673
90503SOL     OW73405   5.911  14.331   0.338
90503SOL    HW173406   5.913  14.413   0.386
90503SOL    HW273407   5.963  14.271   0.391
90504SOL     OW73408  12.077   5.687  12.100
90504SOL    HW173409  12.085   5.592  12.106
90504SOL    HW273410  12.029   5.702  12.018
90505SOL     OW73411  11.152   0.542  12.410
90505SOL    HW173412  11.226   0.487  12.438
90505SOL    HW273413  11.186   0.632  12.416
90506SOL     OW73414   8.917   3.339  13.057
90506SOL    HW173415   8.981   3.308  13.121
90506SOL    HW273416   8.836   3.293  13.079
90507SOL     OW73417   0.031   8.745   4.453
90507SOL    HW173418  14.866   8.827   4.468
90507SOL    HW273419  14.855   8.693   4.398
90508SOL     OW73420   1.654  12.731  13.170
90508SOL    HW173421   1.654  12.636  13.162
90508SOL    HW273422   1.733  12.759  13.123
90509SOL     OW73423   6.166  14.230  12.198
90509SOL    HW173424   6.205  14.241  12.111
90509SOL    HW273425   6.233  14.264  12.258
90510SOL     OW73426   8.513  13.117   8.727
90510SOL    HW173427   8.527  13.154   8.640
90510SOL    HW273428   8.512  13.022   8.712
90511SOL     OW73429   9.821   9.178   0.511
90511SOL    HW173430   9.805   9.206   0.601
90511SOL    HW273431   9.773   9.241   0.457
90512SOL     OW73432  14.297   9.485  10.629
90512SOL    HW173433  14.321   9.447  10.544
90512SOL    HW273434  14.205   9.461  10.640
90513SOL     OW73435  12.351   4.491   2.741
90513SOL    HW173436  12.272   4.516   2.789
90513SOL    HW273437  12.418   4.481   2.808
90514SOL     OW73438  13.774   5.233  12.403
90514SOL    HW173439  13.732   5.216  12.487
90514SOL    HW273440  13.714   5.197  12.339
90515SOL     OW73441  10.711  14.603   5.429
90515SOL    HW173442  10.755  14.688   5.424
90515SOL    HW273443  10.778  14.543   5.461
90516SOL     OW73444  10.115  10.130   4.215
90516SOL    HW173445  10.198  10.177   4.208
90516SOL    HW273446  10.075  10.162   4.296
90517SOL     OW73447   2.466  10.435  13.380
90517SOL    HW173448   2.492  10.447  13.471
90517SOL    HW273449   2.544  10.461  13.330
90518SOL     OW73450   4.508   4.311   8.884
90518SOL    HW173451   4.585   4.363   8.910
90518SOL    HW273452   4.488   4.258   8.961
90519SOL     OW73453   6.657  12.532   1.137
90519SOL    HW173454   6.736  12.569   1.097
90519SOL    HW273455   6.661  12.562   1.228
90520SOL     OW73456  11.014   2.713   9.456
90520SOL    HW173457  10.954   2.695   9.384
90520SOL    HW273458  11.027   2.628   9.498
90521SOL     OW73459  11.871   1.309   9.458
90521SOL    HW173460  11.867   1.348   9.545
90521SOL    HW273461  11.780   1.292   9.435
90522SOL     OW73462  14.063  12.498  14.211
90522SOL    HW173463  13.995  12.564  14.198
90522SOL    HW273464  14.090  12.509  14.302
90523SOL     OW73465   3.973   7.553   7.864
90523SOL    HW173466   3.982   7.603   7.783
90523SOL    HW273467   3.911   7.484   7.843
90524SOL     OW73468   7.635  14.590   9.144
90524SOL    HW173469   7.594  14.676   9.155
90524SOL    HW273470   7.715  14.594   9.197
90525SOL     OW73471  13.349  11.182   0.453
90525SOL    HW173472  13.313  11.238   0.522
90525SOL    HW273473  13.408  11.122   0.499
90526SOL     OW73474   7.731   5.044   1.725
90526SOL    HW173475   7.646   5.080   1.697
90526SOL    HW273476   7.713   4.951   1.738
90527SOL     OW73477  10.578   0.303   9.576
90527SOL    HW173478  10.618   0.234   9.522
90527SOL    HW273479  10.527   0.355   9.514
90528SOL     OW73480  12.880   8.886   6.890
90528SOL    HW173481  12.799   8.882   6.940
90528SOL    HW273482  12.917   8.799   6.897
90529SOL     OW73483  13.152   4.026   8.179
90529SOL    HW173484  13.095   4.031   8.256
90529SOL    HW273485  13.158   4.116   8.148
90530SOL     OW73486   3.137   0.571   1.401
90530SOL    HW173487   3.104   0.660   1.388
90530SOL    HW273488   3.229   0.583   1.423
90531SOL     OW73489   2.110   5.035   4.721
90531SOL    HW173490   2.066   4.951   4.735
90531SOL    HW273491   2.087   5.060   4.631
90532SOL     OW73492  13.588  14.105   5.091
90532SOL    HW173493  13.618  14.075   5.176
90532SOL    HW273494  13.570  14.024   5.042
90533SOL     OW73495   3.006   0.372  10.523
90533SOL    HW173496   2.977   0.286  10.495
90533SOL    HW273497   3.058   0.405  10.449
90534SOL     OW73498   2.132   8.461   9.523
90534SOL    HW173499   2.130   8.459   9.619
90534SOL    HW273500   2.145   8.553   9.502
90535SOL     OW73501   4.276   0.131   6.431
90535SOL    HW173502   4.251   0.042   6.455
90535SOL    HW273503   4.371   0.134   6.447
90536SOL     OW73504   4.960   4.901  13.420
90536SOL    HW173505   5.054   4.891  13.404
90536SOL    HW273506   4.929   4.954  13.346
90537SOL     OW73507   4.824  10.762   7.442
90537SOL    HW173508   4.896  10.724   7.393
90537SOL    HW273509   4.853  10.762   7.533
90538SOL     OW73510   6.377  10.736   5.824
90538SOL    HW173511   6.316  10.807   5.841
90538SOL    HW273512   6.461  10.779   5.808
90539SOL     OW73513  10.507   6.456   9.959
90539SOL    HW173514  10.526   6.538   9.915
90539SOL    HW273515  10.507   6.390   9.889
90540SOL     OW73516   4.709  14.697   8.235
90540SOL    HW173517   4.681  14.787   8.253
90540SOL    HW273518   4.627  14.647   8.233
90541SOL     OW73519   3.166   9.652  11.129
90541SOL    HW173520   3.203   9.564  11.136
90541SOL    HW273521   3.206   9.689  11.051
90542SOL     OW73522  12.952  12.210   7.142
90542SOL    HW173523  12.943  12.119   7.113
90542SOL    HW273524  12.866  12.231   7.179
90543SOL     OW73525   3.833   0.455   3.135
90543SOL    HW173526   3.806   0.508   3.060
90543SOL    HW273527   3.791   0.496   3.210
90544SOL     OW73528  14.152   1.656   4.486
90544SOL    HW173529  14.169   1.629   4.395
90544SOL    HW273530  14.098   1.586   4.522
90545SOL     OW73531  10.565   4.971  13.750
90545SOL    HW173532  10.497   4.908  13.772
90545SOL    HW273533  10.519   5.042  13.704
90546SOL     OW73534  14.441   2.441   1.692
90546SOL    HW173535  14.355   2.435   1.735
90546SOL    HW273536  14.504   2.426   1.763
90547SOL     OW73537   8.990   4.031  10.585
90547SOL    HW173538   8.990   4.075  10.669
90547SOL    HW273539   8.941   4.089  10.527
90548SOL     OW73540   0.532   7.313   7.639
90548SOL    HW173541   0.497   7.243   7.584
90548SOL    HW273542   0.617   7.280   7.668
90549SOL     OW73543   0.509  12.649   4.255
90549SOL    HW173544   0.551  12.734   4.272
90549SOL    HW273545   0.418  12.672   4.237
90550SOL     OW73546  13.391   2.478   0.077
90550SOL    HW173547  13.455   2.456   0.010
90550SOL    HW273548  13.441   2.527   0.143
90551SOL     OW73549  14.685  13.480   0.183
90551SOL    HW173550  14.730  13.533   0.117
90551SOL    HW273551  14.646  13.545   0.242
90552SOL     OW73552   8.097   3.896   4.818
90552SOL    HW173553   8.138   3.809   4.812
90552SOL    HW273554   8.129   3.931   4.902
90553SOL     OW73555  11.066  11.444   8.551
90553SOL    HW173556  11.007  11.384   8.596
90553SOL    HW273557  11.080  11.515   8.614
90554SOL     OW73558  10.692  12.550   9.172
90554SOL    HW173559  10.770  12.588   9.212
90554SOL    HW273560  10.725  12.474   9.124
90555SOL     OW73561   4.880  12.770   5.518
90555SOL    HW173562   4.855  12.679   5.528
90555SOL    HW273563   4.949  12.784   5.583
90556SOL     OW73564  14.542  11.877   5.881
90556SOL    HW173565  14.540  11.788   5.914
90556SOL    HW273566  14.523  11.932   5.957
90557SOL     OW73567   6.787   6.925   4.078
90557SOL    HW173568   6.778   6.855   4.014
90557SOL    HW273569   6.715   6.985   4.059
90558SOL     OW73570  14.297  10.876   6.967
90558SOL    HW173571  14.295  10.971   6.974
90558SOL    HW273572  14.234  10.846   7.032
90559SOL     OW73573   7.670  12.015  13.659
90559SOL    HW173574   7.698  12.007  13.750
90559SOL    HW273575   7.750  12.041  13.611
90560SOL     OW73576  13.952  13.060   2.843
90560SOL    HW173577  14.020  13.127   2.848
90560SOL    HW273578  13.998  12.979   2.865
90561SOL     OW73579   7.404  12.804  14.147
90561SOL    HW173580   7.375  12.719  14.114
90561SOL    HW273581   7.360  12.813  14.232
90562SOL     OW73582   2.698   1.509   0.347
90562SOL    HW173583   2.745   1.430   0.319
90562SOL    HW273584   2.642   1.530   0.272
90563SOL     OW73585   4.783   8.794  14.767
90563SOL    HW173586   4.852   8.789  14.700
90563SOL    HW273587   4.831   8.803  14.850
90564SOL     OW73588  14.233   0.593  13.884
90564SOL    HW173589  14.283   0.518  13.853
90564SOL    HW273590  14.255   0.663  13.823
90565SOL     OW73591   5.162  11.029   9.360
90565SOL    HW173592   5.224  10.982   9.304
90565SOL    HW273593   5.187  11.121   9.352
90566SOL     OW73594   8.963  10.760   2.157
90566SOL    HW173595   8.921  10.747   2.242
90566SOL    HW273596   9.005  10.846   2.165
90567SOL     OW73597   7.425  11.972  14.744
90567SOL    HW173598   7.427  11.883  14.779
90567SOL    HW273599   7.453  12.027  14.817
90568SOL     OW73600   4.025  11.557   6.096
90568SOL    HW173601   4.081  11.559   6.018
90568SOL    HW273602   4.071  11.500   6.157
90569SOL     OW73603   7.353  12.755  12.360
90569SOL    HW173604   7.424  12.694  12.380
90569SOL    HW273605   7.394  12.841  12.364
90570SOL     OW73606  10.671   5.589  12.406
90570SOL    HW173607  10.676   5.527  12.333
90570SOL    HW273608  10.588   5.635  12.393
90571SOL     OW73609   8.970  14.112   6.795
90571SOL    HW173610   9.040  14.061   6.835
90571SOL    HW273611   8.965  14.192   6.847
90572SOL     OW73612   0.626   1.476   2.791
90572SOL    HW173613   0.575   1.438   2.862
90572SOL    HW273614   0.710   1.429   2.794
90573SOL     OW73615   7.660   2.036   0.964
90573SOL    HW173616   7.689   2.018   1.053
90573SOL    HW273617   7.736   2.016   0.909
90574SOL     OW73618   3.779  13.834   7.362
90574SOL    HW173619   3.866  13.826   7.324
90574SOL    HW273620   3.795  13.846   7.456
90575SOL     OW73621   3.498   8.482   4.612
90575SOL    HW173622   3.556   8.554   4.637
90575SOL    HW273623   3.556   8.413   4.580
90576SOL     OW73624  11.224   4.072   4.291
90576SOL    HW173625  11.233   4.024   4.373
90576SOL    HW273626  11.189   4.157   4.316
90577SOL     OW73627   7.037  11.318   9.305
90577SOL    HW173628   6.958  11.276   9.273
90577SOL    HW273629   7.102  11.302   9.238
90578SOL     OW73630  14.459  12.454   9.982
90578SOL    HW173631  14.377  12.502   9.997
90578SOL    HW273632  14.506  12.461  10.064
90579SOL     OW73633   2.362   0.956  10.897
90579SOL    HW173634   2.364   0.867  10.931
90579SOL    HW273635   2.453   0.986  10.905
90580SOL     OW73636   1.150   1.611   1.583
90580SOL    HW173637   1.106   1.634   1.665
90580SOL    HW273638   1.088   1.553   1.539
90581SOL     OW73639   6.554   8.552   9.787
90581SOL    HW173640   6.631   8.507   9.822
90581SOL    HW273641   6.479   8.504   9.823
90582SOL     OW73642   4.546   8.928  14.137
90582SOL    HW173643   4.471   8.893  14.088
90582SOL    HW273644   4.517   8.928  14.229
90583SOL     OW73645   4.713  13.839  13.360
90583SOL    HW173646   4.628  13.820  13.321
90583SOL    HW273647   4.777  13.800  13.300
90584SOL     OW73648   1.628   9.218  13.790
90584SOL    HW173649   1.682   9.150  13.829
90584SOL    HW273650   1.588   9.176  13.714
90585SOL     OW73651   7.604  12.624   7.148
90585SOL    HW173652   7.605  12.637   7.243
90585SOL    HW273653   7.600  12.530   7.137
90586SOL     OW73654   2.546   5.484   8.820
90586SOL    HW173655   2.462   5.493   8.865
90586SOL    HW273656   2.611   5.494   8.889
90587SOL     OW73657  11.576   9.619  13.630
90587SOL    HW173658  11.562   9.594  13.539
90587SOL    HW273659  11.628   9.548  13.667
90588SOL     OW73660   6.680  14.520   0.018
90588SOL    HW173661   6.751  14.562  14.851
90588SOL    HW273662   6.713  14.516   0.108
90589SOL     OW73663   4.946  12.425   6.715
90589SOL    HW173664   4.882  12.476   6.666
90589SOL    HW273665   5.029  12.472   6.702
90590SOL     OW73666   6.015  14.755   4.976
90590SOL    HW173667   5.945  14.818   4.963
90590SOL    HW273668   5.973  14.669   4.970
90591SOL     OW73669   9.288  12.000  11.698
90591SOL    HW173670   9.274  11.908  11.720
90591SOL    HW273671   9.204  12.030  11.663
90592SOL     OW73672   6.361  10.187  12.443
90592SOL    HW173673   6.335  10.232  12.363
90592SOL    HW273674   6.415  10.114  12.414
90593SOL     OW73675  11.537   2.282   5.582
90593SOL    HW173676  11.574   2.253   5.498
90593SOL    HW273677  11.445   2.256   5.579
90594SOL     OW73678   7.694   9.247   9.054
90594SOL    HW173679   7.688   9.164   9.006
90594SOL    HW273680   7.781   9.246   9.093
90595SOL     OW73681   5.143  12.605   2.875
90595SOL    HW173682   5.220  12.633   2.923
90595SOL    HW273683   5.073  12.603   2.941
90596SOL     OW73684   5.055  12.719   5.226
90596SOL    HW173685   5.064  12.814   5.226
90596SOL    HW273686   5.105  12.691   5.149
90597SOL     OW73687  12.128   0.428   9.618
90597SOL    HW173688  12.115   0.499   9.554
90597SOL    HW273689  12.129   0.472   9.703
90598SOL     OW73690   6.452   4.999  14.111
90598SOL    HW173691   6.527   5.053  14.084
90598SOL    HW273692   6.489   4.912  14.124
90599SOL     OW73693   3.855   3.070   8.388
90599SOL    HW173694   3.886   3.020   8.464
90599SOL    HW273695   3.847   3.160   8.420
90600SOL     OW73696  14.080   9.541  13.705
90600SOL    HW173697  14.148   9.570  13.644
90600SOL    HW273698  14.059   9.618  13.757
90601SOL     OW73699  10.659  13.118  10.054
90601SOL    HW173700  10.675  13.134   9.961
90601SOL    HW273701  10.717  13.178  10.100
90602SOL     OW73702   7.933   9.061   6.026
90602SOL    HW173703   8.000   9.004   5.989
90602SOL    HW273704   7.890   9.100   5.951
90603SOL     OW73705   1.799   8.028   8.824
90603SOL    HW173706   1.778   7.989   8.739
90603SOL    HW273707   1.861   7.966   8.863
90604SOL     OW73708   7.630  14.680  13.065
90604SOL    HW173709   7.712  14.655  13.108
90604SOL    HW273710   7.572  14.705  13.137
90605SOL     OW73711  10.838  14.012  14.260
90605SOL    HW173712  10.796  14.009  14.175
90605SOL    HW273713  10.873  13.923  14.273
90606SOL     OW73714   1.375  10.774  13.840
90606SOL    HW173715   1.399  10.830  13.767
90606SOL    HW273716   1.327  10.701  13.800
90607SOL     OW73717   5.980   3.987   8.401
90607SOL    HW173718   5.944   4.033   8.477
90607SOL    HW273719   5.904   3.969   8.346
90608SOL     OW73720   8.914  11.691  12.103
90608SOL    HW173721   8.940  11.783  12.099
90608SOL    HW273722   8.827  11.692  12.144
90609SOL     OW73723   0.505   6.860   7.973
90609SOL    HW173724   0.421   6.831   8.008
90609SOL    HW273725   0.549   6.901   8.048
90610SOL     OW73726   8.209   0.036   0.642
90610SOL    HW173727   8.136   0.067   0.695
90610SOL    HW273728   8.232   0.111   0.586
90611SOL     OW73729  10.422  10.384   5.700
90611SOL    HW173730  10.327  10.381   5.693
90611SOL    HW273731  10.453  10.309   5.648
90612SOL     OW73732  12.687   6.051   9.355
90612SOL    HW173733  12.734   6.133   9.340
90612SOL    HW273734  12.736   5.987   9.303
90613SOL     OW73735   3.551   5.200   7.196
90613SOL    HW173736   3.623   5.261   7.181
90613SOL    HW273737   3.506   5.234   7.273
90614SOL     OW73738  12.798   9.591   6.722
90614SOL    HW173739  12.821   9.500   6.741
90614SOL    HW273740  12.751   9.587   6.638
90615SOL     OW73741   7.433   5.014   0.629
90615SOL    HW173742   7.449   4.921   0.646
90615SOL    HW273743   7.405   5.049   0.714
90616SOL     OW73744   6.615  12.733   5.022
90616SOL    HW173745   6.709  12.719   5.031
90616SOL    HW273746   6.598  12.817   5.065
90617SOL     OW73747   6.643   9.768   9.700
90617SOL    HW173748   6.680   9.777   9.612
90617SOL    HW273749   6.693   9.697   9.740
90618SOL     OW73750  11.826  12.098   0.381
90618SOL    HW173751  11.740  12.094   0.423
90618SOL    HW273752  11.822  12.176   0.326
90619SOL     OW73753   6.701   0.838  14.497
90619SOL    HW173754   6.626   0.781  14.479
90619SOL    HW273755   6.757   0.829  14.420
90620SOL     OW73756   4.724  13.839  12.549
90620SOL    HW173757   4.722  13.865  12.641
90620SOL    HW273758   4.814  13.809  12.535
90621SOL     OW73759  13.355  11.903   8.143
90621SOL    HW173760  13.352  11.861   8.229
90621SOL    HW273761  13.446  11.892   8.115
90622SOL     OW73762   9.611   8.540   8.477
90622SOL    HW173763   9.573   8.452   8.471
90622SOL    HW273764   9.692   8.534   8.427
90623SOL     OW73765   9.303  10.787  11.126
90623SOL    HW173766   9.315  10.695  11.102
90623SOL    HW273767   9.388  10.815  11.160
90624SOL     OW73768   9.009  14.750   6.755
90624SOL    HW173769   8.946  14.742   6.826
90624SOL    HW273770   8.955  14.764   6.677
90625SOL     OW73771   2.171   3.140   5.994
90625SOL    HW173772   2.261   3.172   5.991
90625SOL    HW273773   2.129   3.178   5.916
90626SOL     OW73774   3.397   5.484   4.048
90626SOL    HW173775   3.375   5.399   4.085
90626SOL    HW273776   3.313   5.522   4.022
90627SOL     OW73777   6.000   5.827   7.257
90627SOL    HW173778   6.014   5.903   7.199
90627SOL    HW273779   6.016   5.752   7.200
90628SOL     OW73780   5.812   4.592   6.114
90628SOL    HW173781   5.721   4.572   6.136
90628SOL    HW273782   5.862   4.518   6.149
90629SOL     OW73783   3.468   4.196  13.013
90629SOL    HW173784   3.546   4.242  12.980
90629SOL    HW273785   3.504   4.121  13.061
90630SOL     OW73786   9.539  11.310   5.002
90630SOL    HW173787   9.523  11.301   4.908
90630SOL    HW273788   9.605  11.379   5.008
90631SOL     OW73789  11.259   7.659   1.366
90631SOL    HW173790  11.271   7.736   1.310
90631SOL    HW273791  11.346   7.619   1.370
90632SOL     OW73792   5.581   4.404   9.102
90632SOL    HW173793   5.542   4.411   9.014
90632SOL    HW273794   5.653   4.467   9.101
90633SOL     OW73795   6.553   2.009  11.789
90633SOL    HW173796   6.633   2.056  11.763
90633SOL    HW273797   6.551   1.932  11.732
90634SOL     OW73798   0.954  10.777   9.549
90634SOL    HW173799   0.965  10.841   9.478
90634SOL    HW273800   1.034  10.724   9.546
90635SOL     OW73801   3.046   4.243   1.213
90635SOL    HW173802   3.104   4.180   1.170
90635SOL    HW273803   2.982   4.266   1.146
90636SOL     OW73804  12.943  11.579   3.850
90636SOL    HW173805  12.965  11.486   3.858
90636SOL    HW273806  12.863  11.589   3.901
90637SOL     OW73807  14.206  11.372   0.974
90637SOL    HW173808  14.235  11.281   0.966
90637SOL    HW273809  14.111  11.368   0.960
90638SOL     OW73810  14.692   3.267   3.652
90638SOL    HW173811  14.636   3.192   3.668
90638SOL    HW273812  14.764   3.257   3.714
90639SOL     OW73813   8.550   5.399   9.123
90639SOL    HW173814   8.595   5.323   9.086
90639SOL    HW273815   8.560   5.388   9.218
90640SOL     OW73816  11.542  13.997  13.365
90640SOL    HW173817  11.553  13.904  13.385
90640SOL    HW273818  11.447  14.008  13.351
90641SOL     OW73819  10.183   6.358   1.359
90641SOL    HW173820  10.125   6.296   1.404
90641SOL    HW273821  10.157   6.353   1.267
90642SOL     OW73822  10.695   4.420  12.376
90642SOL    HW173823  10.653   4.495  12.333
90642SOL    HW273824  10.631   4.349  12.368
90643SOL     OW73825   2.929   7.948  11.162
90643SOL    HW173826   2.988   7.974  11.232
90643SOL    HW273827   2.963   7.863  11.133
90644SOL     OW73828   7.807   5.760   3.685
90644SOL    HW173829   7.847   5.689   3.735
90644SOL    HW273830   7.812   5.731   3.594
90645SOL     OW73831   7.094   5.002  14.327
90645SOL    HW173832   7.074   5.095  14.339
90645SOL    HW273833   7.122   4.972  14.414
90646SOL     OW73834  14.551   3.237   7.232
90646SOL    HW173835  14.487   3.215   7.165
90646SOL    HW273836  14.507   3.217   7.315
90647SOL     OW73837  12.425  10.272   3.635
90647SOL    HW173838  12.442  10.207   3.703
90647SOL    HW273839  12.347  10.240   3.591
90648SOL     OW73840   2.120   9.170   9.277
90648SOL    HW173841   2.209   9.179   9.310
90648SOL    HW273842   2.110   9.076   9.260
90649SOL     OW73843   8.898   0.176   8.615
90649SOL    HW173844   8.975   0.223   8.580
90649SOL    HW273845   8.917   0.166   8.708
90650SOL     OW73846   9.105   3.668   1.383
90650SOL    HW173847   9.109   3.573   1.374
90650SOL    HW273848   9.091   3.682   1.477
90651SOL     OW73849  13.020  12.222   8.234
90651SOL    HW173850  12.967  12.231   8.155
90651SOL    HW273851  13.062  12.307   8.245
90652SOL     OW73852   6.941   1.599  13.373
90652SOL    HW173853   6.913   1.686  13.344
90652SOL    HW273854   6.964   1.553  13.292
90653SOL     OW73855  12.115   8.523  14.863
90653SOL    HW173856  12.150   8.514  14.774
90653SOL    HW273857  12.071   8.608  14.862
90654SOL     OW73858  13.272   2.005  11.164
90654SOL    HW173859  13.223   1.928  11.136
90654SOL    HW273860  13.244   2.074  11.103
90655SOL     OW73861   3.694   8.148   1.671
90655SOL    HW173862   3.746   8.132   1.749
90655SOL    HW273863   3.752   8.127   1.598
90656SOL     OW73864   6.417  10.183   3.137
90656SOL    HW173865   6.358  10.113   3.163
90656SOL    HW273866   6.453  10.155   3.052
90657SOL     OW73867   0.112  13.686   3.738
90657SOL    HW173868   0.132  13.658   3.828
90657SOL    HW273869   0.136  13.778   3.736
90658SOL     OW73870   0.331   6.464   8.599
90658SOL    HW173871   0.279   6.478   8.520
90658SOL    HW273872   0.296   6.383   8.636
90659SOL     OW73873   0.309   5.660   0.094
90659SOL    HW173874   0.310   5.608   0.174
90659SOL    HW273875   0.399   5.654   0.060
90660SOL     OW73876   0.177  14.516  14.181
90660SOL    HW173877   0.215  14.592  14.226
90660SOL    HW273878   0.248  14.485  14.124
90661SOL     OW73879   3.470   0.138   7.517
90661SOL    HW173880   3.464   0.043   7.526
90661SOL    HW273881   3.402   0.173   7.575
90662SOL     OW73882   7.337   5.644   1.713
90662SOL    HW173883   7.384   5.568   1.680
90662SOL    HW273884   7.398   5.716   1.704
90663SOL     OW73885   0.572   3.778   2.708
90663SOL    HW173886   0.627   3.855   2.728
90663SOL    HW273887   0.486   3.801   2.741
90664SOL     OW73888   5.252  13.036   6.645
90664SOL    HW173889   5.292  12.976   6.708
90664SOL    HW273890   5.204  12.980   6.585
90665SOL     OW73891   3.527   8.032   9.803
90665SOL    HW173892   3.507   8.048   9.895
90665SOL    HW273893   3.621   8.014   9.801
90666SOL     OW73894  12.011  12.957   0.545
90666SOL    HW173895  11.939  12.972   0.484
90666SOL    HW273896  12.086  12.937   0.489
90667SOL     OW73897  12.416   5.709  14.381
90667SOL    HW173898  12.362   5.661  14.318
90667SOL    HW273899  12.504   5.673  14.370
90668SOL     OW73900   3.935   2.176  10.413
90668SOL    HW173901   3.961   2.221  10.494
90668SOL    HW273902   3.926   2.247  10.349
90669SOL     OW73903   0.560   7.193  11.846
90669SOL    HW173904   0.567   7.191  11.942
90669SOL    HW273905   0.572   7.286  11.823
90670SOL     OW73906   0.027  13.227  13.225
90670SOL    HW173907  14.857  13.200  13.149
90670SOL    HW273908   0.031  13.150  13.281
90671SOL     OW73909   8.238   3.927   3.589
90671SOL    HW173910   8.189   4.008   3.575
90671SOL    HW273911   8.328   3.949   3.565
90672SOL     OW73912   8.668   4.079   5.260
90672SOL    HW173913   8.724   4.020   5.311
90672SOL    HW273914   8.688   4.166   5.294
90673SOL     OW73915   2.479   4.472  12.524
90673SOL    HW173916   2.403   4.500  12.576
90673SOL    HW273917   2.475   4.526  12.445
90674SOL     OW73918   3.605   1.737  10.524
90674SOL    HW173919   3.619   1.644  10.506
90674SOL    HW273920   3.691   1.768  10.555
90675SOL     OW73921   9.674   3.764   8.779
90675SOL    HW173922   9.617   3.717   8.719
90675SOL    HW273923   9.615   3.807   8.840
90676SOL     OW73924   1.873  13.395   1.262
90676SOL    HW173925   1.929  13.324   1.292
90676SOL    HW273926   1.854  13.446   1.341
90677SOL     OW73927   4.282  13.277   7.149
90677SOL    HW173928   4.301  13.339   7.220
90677SOL    HW273929   4.221  13.215   7.188
90678SOL     OW73930   4.607  11.689   9.498
90678SOL    HW173931   4.609  11.593   9.498
90678SOL    HW273932   4.541  11.712   9.432
90679SOL     OW73933  10.531  12.350   0.582
90679SOL    HW173934  10.491  12.322   0.500
90679SOL    HW273935  10.592  12.279   0.604
90680SOL     OW73936   6.082  14.288   6.620
90680SOL    HW173937   6.102  14.379   6.599
90680SOL    HW273938   6.157  14.258   6.672
90681SOL     OW73939  14.337   1.306  12.253
90681SOL    HW173940  14.330   1.236  12.188
90681SOL    HW273941  14.315   1.263  12.336
90682SOL     OW73942  11.451   1.437   8.271
90682SOL    HW173943  11.442   1.440   8.367
90682SOL    HW273944  11.371   1.394   8.241
90683SOL     OW73945  11.979   8.976   4.268
90683SOL    HW173946  11.954   8.916   4.198
90683SOL    HW273947  12.069   8.951   4.289
90684SOL     OW73948   2.120  11.747   0.604
90684SOL    HW173949   2.192  11.771   0.663
90684SOL    HW273950   2.158  11.749   0.517
90685SOL     OW73951  14.126  12.248  14.434
90685SOL    HW173952  14.188  12.233  14.506
90685SOL    HW273953  14.102  12.340  14.442
90686SOL     OW73954   7.271   2.034   2.698
90686SOL    HW173955   7.220   2.018   2.618
90686SOL    HW273956   7.308   2.121   2.686
90687SOL     OW73957   3.180   3.202  11.241
90687SOL    HW173958   3.199   3.142  11.313
90687SOL    HW273959   3.260   3.253  11.231
90688SOL     OW73960  12.164   8.207  13.635
90688SOL    HW173961  12.245   8.212  13.584
90688SOL    HW273962  12.097   8.185  13.570
90689SOL     OW73963   2.897   4.287   8.193
90689SOL    HW173964   2.827   4.307   8.256
90689SOL    HW273965   2.926   4.372   8.161
90690SOL     OW73966   2.952  12.266   4.509
90690SOL    HW173967   2.971  12.197   4.571
90690SOL    HW273968   2.938  12.344   4.563
90691SOL     OW73969   3.275  10.986   5.155
90691SOL    HW173970   3.304  11.057   5.211
90691SOL    HW273971   3.183  11.006   5.136
90692SOL     OW73972   8.503   4.181   6.916
90692SOL    HW173973   8.498   4.223   7.002
90692SOL    HW273974   8.491   4.252   6.854
90693SOL     OW73975   1.356   1.203  13.347
90693SOL    HW173976   1.359   1.144  13.423
90693SOL    HW273977   1.263   1.208  13.326
90694SOL     OW73978  10.914  13.706  11.436
90694SOL    HW173979  10.834  13.704  11.384
90694SOL    HW273980  10.885  13.727  11.525
90695SOL     OW73981   6.049   5.441   9.859
90695SOL    HW173982   6.130   5.401   9.892
90695SOL    HW273983   5.984   5.371   9.866
90696SOL     OW73984  12.048  14.712   6.389
90696SOL    HW173985  12.068  14.696   6.481
90696SOL    HW273986  11.999  14.794   6.389
90697SOL     OW73987   4.714   5.894  14.702
90697SOL    HW173988   4.769   5.828  14.660
90697SOL    HW273989   4.631   5.890  14.654
90698SOL     OW73990   3.403  10.947  11.011
90698SOL    HW173991   3.435  10.862  10.980
90698SOL    HW273992   3.309  10.935  11.020
90699SOL     OW73993   9.438   4.015  11.144
90699SOL    HW173994   9.408   4.026  11.054
90699SOL    HW273995   9.444   4.104  11.179
90700SOL     OW73996   1.910  10.474   9.168
90700SOL    HW173997   1.999  10.442   9.152
90700SOL    HW273998   1.859  10.394   9.184
90701SOL     OW73999   5.525   7.692   5.289
90701SOL    HW174000   5.532   7.685   5.385
90701SOL    HW274001   5.605   7.649   5.257
90702SOL     OW74002  10.702   9.386   9.571
90702SOL    HW174003  10.777   9.399   9.630
90702SOL    HW274004  10.709   9.294   9.544
90703SOL     OW74005   5.718  14.399   5.643
90703SOL    HW174006   5.810  14.413   5.619
90703SOL    HW274007   5.673  14.478   5.615
90704SOL     OW74008  13.894   0.806  12.726
90704SOL    HW174009  13.840   0.883  12.745
90704SOL    HW274010  13.881   0.791  12.633
90705SOL     OW74011  14.415  13.460  14.210
90705SOL    HW174012  14.410  13.414  14.127
90705SOL    HW274013  14.336  13.515  14.212
90706SOL     OW74014   3.048  11.619  13.376
90706SOL    HW174015   3.027  11.661  13.292
90706SOL    HW274016   3.013  11.678  13.442
90707SOL     OW74017  12.858  13.690   1.838
90707SOL    HW174018  12.844  13.662   1.929
90707SOL    HW274019  12.953  13.697   1.830
90708SOL     OW74020   8.883  12.304   3.138
90708SOL    HW174021   8.893  12.209   3.137
90708SOL    HW274022   8.933  12.334   3.062
90709SOL     OW74023   1.970   8.681   2.225
90709SOL    HW174024   1.911   8.723   2.288
90709SOL    HW274025   1.915   8.668   2.147
90710SOL     OW74026   5.834  10.086   2.988
90710SOL    HW174027   5.749  10.066   2.948
90710SOL    HW274028   5.815  10.155   3.051
90711SOL     OW74029   0.162  14.290  11.209
90711SOL    HW174030   0.254  14.279  11.229
90711SOL    HW274031   0.148  14.385  11.212
90712SOL     OW74032   3.105  13.841   1.164
90712SOL    HW174033   3.109  13.798   1.250
90712SOL    HW274034   3.082  13.771   1.103
90713SOL     OW74035  12.531   1.773   1.158
90713SOL    HW174036  12.559   1.764   1.067
90713SOL    HW274037  12.436   1.785   1.153
90714SOL     OW74038   5.706   2.842  10.339
90714SOL    HW174039   5.623   2.883  10.314
90714SOL    HW274040   5.716   2.768  10.279
90715SOL     OW74041   7.050   7.046   8.239
90715SOL    HW174042   6.978   7.066   8.299
90715SOL    HW274043   7.127   7.036   8.297
90716SOL     OW74044   2.972   8.409   9.892
90716SOL    HW174045   2.933   8.375   9.973
90716SOL    HW274046   3.057   8.365   9.887
90717SOL     OW74047  10.993   8.106   4.789
90717SOL    HW174048  11.054   8.039   4.758
90717SOL    HW274049  10.907   8.065   4.783
90718SOL     OW74050  14.692  11.691   4.952
90718SOL    HW174051  14.616  11.740   4.922
90718SOL    HW274052  14.665  11.599   4.948
90719SOL     OW74053  14.682  10.308  10.557
90719SOL    HW174054  14.651  10.323  10.467
90719SOL    HW274055  14.631  10.234  10.588
90720SOL     OW74056   5.950   0.711   3.714
90720SOL    HW174057   5.933   0.746   3.626
90720SOL    HW274058   6.014   0.771   3.752
90721SOL     OW74059   4.602   0.900   8.899
90721SOL    HW174060   4.611   0.966   8.830
90721SOL    HW274061   4.510   0.906   8.926
90722SOL     OW74062   7.552  11.791   0.478
90722SOL    HW174063   7.644  11.762   0.480
90722SOL    HW274064   7.515  11.746   0.402
90723SOL     OW74065  10.555  13.645   2.495
90723SOL    HW174066  10.649  13.648   2.479
90723SOL    HW274067  10.545  13.585   2.569
90724SOL     OW74068  10.206   8.690   4.577
90724SOL    HW174069  10.237   8.722   4.661
90724SOL    HW274070  10.120   8.651   4.596
90725SOL     OW74071   8.852  12.585   2.069
90725SOL    HW174072   8.843  12.641   1.992
90725SOL    HW274073   8.762  12.569   2.097
90726SOL     OW74074  12.224   2.945  12.660
90726SOL    HW174075  12.317   2.927  12.672
90726SOL    HW274076  12.219   3.002  12.584
90727SOL     OW74077  14.413  12.113  11.355
90727SOL    HW174078  14.386  12.100  11.264
90727SOL    HW274079  14.504  12.084  11.356
90728SOL     OW74080   8.961   7.077   3.786
90728SOL    HW174081   9.027   7.037   3.843
90728SOL    HW274082   8.980   7.171   3.790
90729SOL     OW74083   5.663   0.713   0.285
90729SOL    HW174084   5.711   0.646   0.333
90729SOL    HW274085   5.681   0.794   0.332
90730SOL     OW74086   5.127   5.327   8.618
90730SOL    HW174087   5.180   5.301   8.693
90730SOL    HW274088   5.077   5.249   8.595
90731SOL     OW74089   8.723  14.781  13.162
90731SOL    HW174090   8.755  14.697  13.128
90731SOL    HW274091   8.794  14.842  13.145
90732SOL     OW74092  12.541   5.293  12.163
90732SOL    HW174093  12.549   5.335  12.078
90732SOL    HW274094  12.484   5.217  12.147
90733SOL     OW74095   6.320   2.276   3.210
90733SOL    HW174096   6.340   2.283   3.117
90733SOL    HW274097   6.405   2.283   3.253
90734SOL     OW74098  12.623   4.632   8.709
90734SOL    HW174099  12.562   4.609   8.639
90734SOL    HW274100  12.698   4.670   8.664
90735SOL     OW74101   2.499   8.237   6.638
90735SOL    HW174102   2.489   8.179   6.713
90735SOL    HW274103   2.479   8.324   6.672
90736SOL     OW74104  11.095   6.947   6.346
90736SOL    HW174105  11.049   7.019   6.304
90736SOL    HW274106  11.161   6.989   6.402
90737SOL     OW74107   3.913   2.327   6.473
90737SOL    HW174108   3.973   2.386   6.518
90737SOL    HW274109   3.884   2.266   6.541
90738SOL     OW74110   8.736   3.526   2.855
90738SOL    HW174111   8.712   3.475   2.777
90738SOL    HW274112   8.814   3.481   2.889
90739SOL     OW74113   3.755  10.075  10.623
90739SOL    HW174114   3.810  10.065  10.545
90739SOL    HW274115   3.665  10.079  10.589
90740SOL     OW74116   7.843  12.673   0.962
90740SOL    HW174117   7.853  12.628   0.878
90740SOL    HW274118   7.913  12.636   1.017
90741SOL     OW74119   7.843  10.806   4.438
90741SOL    HW174120   7.756  10.834   4.409
90741SOL    HW274121   7.845  10.712   4.419
90742SOL     OW74122  13.197   7.269   8.063
90742SOL    HW174123  13.101   7.269   8.059
90742SOL    HW274124  13.223   7.197   8.006
90743SOL     OW74125   6.994   4.248   5.438
90743SOL    HW174126   6.901   4.256   5.419
90743SOL    HW274127   7.023   4.337   5.456
90744SOL     OW74128   9.326   0.618   4.895
90744SOL    HW174129   9.341   0.678   4.968
90744SOL    HW274130   9.392   0.642   4.830
90745SOL     OW74131  13.177   7.503   1.800
90745SOL    HW174132  13.268   7.509   1.829
90745SOL    HW274133  13.152   7.594   1.783
90746SOL     OW74134   3.005   2.926   7.536
90746SOL    HW174135   3.056   3.007   7.531
90746SOL    HW274136   2.937   2.937   7.469
90747SOL     OW74137   3.084   0.012   1.011
90747SOL    HW174138   3.090  14.804   0.979
90747SOL    HW274139   3.119   0.008   1.100
90748SOL     OW74140   8.654   8.620   9.481
90748SOL    HW174141   8.658   8.526   9.463
90748SOL    HW274142   8.604   8.626   9.563
90749SOL     OW74143  12.421  10.489  13.260
90749SOL    HW174144  12.345  10.483  13.319
90749SOL    HW274145  12.489  10.436  13.303
90750SOL     OW74146   6.049   7.489   4.253
90750SOL    HW174147   5.983   7.478   4.322
90750SOL    HW274148   6.128   7.516   4.299
90751SOL     OW74149   2.798   0.803   5.997
90751SOL    HW174150   2.892   0.820   6.000
90751SOL    HW274151   2.790   0.708   6.001
90752SOL     OW74152   5.999   6.578   5.840
90752SOL    HW174153   5.914   6.585   5.884
90752SOL    HW274154   5.977   6.564   5.748
90753SOL     OW74155   2.573   0.175   4.248
90753SOL    HW174156   2.638   0.112   4.218
90753SOL    HW274157   2.615   0.260   4.237
90754SOL     OW74158  13.570   6.777  11.139
90754SOL    HW174159  13.534   6.865  11.151
90754SOL    HW274160  13.663   6.786  11.157
90755SOL     OW74161   1.592  10.620   7.445
90755SOL    HW174162   1.513  10.572   7.420
90755SOL    HW274163   1.562  10.680   7.514
90756SOL     OW74164   5.758  11.629   1.209
90756SOL    HW174165   5.829  11.687   1.235
90756SOL    HW274166   5.734  11.582   1.289
90757SOL     OW74167   6.778  10.996  10.096
90757SOL    HW174168   6.758  10.971  10.006
90757SOL    HW274169   6.730  11.079  10.109
90758SOL     OW74170  12.346  11.966   1.425
90758SOL    HW174171  12.310  12.016   1.352
90758SOL    HW274172  12.416  11.914   1.386
90759SOL     OW74173   5.710   4.890   6.133
90759SOL    HW174174   5.742   4.833   6.064
90759SOL    HW274175   5.780   4.954   6.146
90760SOL     OW74176   0.635   8.838   2.476
90760SOL    HW174177   0.626   8.928   2.506
90760SOL    HW274178   0.729   8.822   2.474
90761SOL     OW74179  14.340   0.516  13.620
90761SOL    HW174180  14.435   0.509  13.628
90761SOL    HW274181  14.310   0.425  13.611
90762SOL     OW74182   6.940   0.009   9.503
90762SOL    HW174183   6.880   0.051   9.565
90762SOL    HW274184   7.015   0.068   9.498
90763SOL     OW74185   7.167   4.739  12.638
90763SOL    HW174186   7.164   4.774  12.549
90763SOL    HW274187   7.216   4.657  12.631
90764SOL     OW74188   9.755   7.084   1.457
90764SOL    HW174189   9.750   7.122   1.545
90764SOL    HW274190   9.664   7.064   1.436
90765SOL     OW74191   2.949  10.755   2.380
90765SOL    HW174192   3.037  10.734   2.350
90765SOL    HW274193   2.897  10.758   2.300
90766SOL     OW74194   6.069   0.545   6.271
90766SOL    HW174195   6.151   0.550   6.221
90766SOL    HW274196   6.001   0.562   6.206
90767SOL     OW74197  10.849   7.287   8.337
90767SOL    HW174198  10.853   7.238   8.419
90767SOL    HW274199  10.938   7.320   8.324
90768SOL     OW74200   7.112   6.068   8.860
90768SOL    HW174201   7.128   5.979   8.892
90768SOL    HW274202   7.187   6.087   8.804
90769SOL     OW74203  11.164   3.588  10.952
90769SOL    HW174204  11.223   3.642  10.900
90769SOL    HW274205  11.220   3.519  10.989
90770SOL     OW74206   9.627   0.544   1.237
90770SOL    HW174207   9.597   0.576   1.152
90770SOL    HW274208   9.550   0.550   1.294
90771SOL     OW74209   3.793  12.596   9.392
90771SOL    HW174210   3.790  12.580   9.487
90771SOL    HW274211   3.758  12.515   9.354
90772SOL     OW74212   8.575   4.832   8.532
90772SOL    HW174213   8.512   4.903   8.539
90772SOL    HW274214   8.581   4.796   8.621
90773SOL     OW74215  11.690   8.542  10.591
90773SOL    HW174216  11.667   8.485  10.518
90773SOL    HW274217  11.684   8.631  10.555
90774SOL     OW74218   2.056  11.813   2.415
90774SOL    HW174219   2.052  11.870   2.338
90774SOL    HW274220   1.969  11.820   2.454
90775SOL     OW74221   1.719  11.229  14.696
90775SOL    HW174222   1.669  11.225  14.615
90775SOL    HW274223   1.753  11.318  14.699
90776SOL     OW74224  10.262   1.391   8.137
90776SOL    HW174225  10.184   1.415   8.086
90776SOL    HW274226  10.322   1.464   8.123
90777SOL     OW74227   7.633   9.526   7.981
90777SOL    HW174228   7.700   9.509   8.048
90777SOL    HW274229   7.683   9.550   7.903
90778SOL     OW74230   2.335   2.065   0.339
90778SOL    HW174231   2.404   2.009   0.304
90778SOL    HW274232   2.255   2.034   0.298
90779SOL     OW74233   0.757   8.175   7.051
90779SOL    HW174234   0.803   8.108   7.000
90779SOL    HW274235   0.670   8.180   7.012
90780SOL     OW74236   7.339   6.062   7.108
90780SOL    HW174237   7.375   5.974   7.091
90780SOL    HW274238   7.311   6.093   7.022
90781SOL     OW74239   2.729   2.837  14.620
90781SOL    HW174240   2.679   2.902  14.669
90781SOL    HW274241   2.774   2.786  14.687
90782SOL     OW74242   8.157  13.408   0.984
90782SOL    HW174243   8.228  13.458   1.024
90782SOL    HW274244   8.110  13.472   0.930
90783SOL     OW74245   5.806  12.407  12.215
90783SOL    HW174246   5.768  12.323  12.242
90783SOL    HW274247   5.899  12.389  12.203
90784SOL     OW74248  13.255  13.381   2.435
90784SOL    HW174249  13.276  13.326   2.360
90784SOL    HW274250  13.272  13.470   2.404
90785SOL     OW74251  11.902   0.546   6.254
90785SOL    HW174252  11.877   0.624   6.206
90785SOL    HW274253  11.997   0.542   6.246
90786SOL     OW74254  13.424   8.950   0.849
90786SOL    HW174255  13.358   8.883   0.833
90786SOL    HW274256  13.407   9.017   0.782
90787SOL     OW74257  14.091   2.128  13.759
90787SOL    HW174258  14.184   2.107  13.773
90787SOL    HW274259  14.092   2.216  13.722
90788SOL     OW74260   2.860   8.723   4.504
90788SOL    HW174261   2.770   8.708   4.476
90788SOL    HW274262   2.889   8.798   4.452
90789SOL     OW74263   9.338  10.575   7.593
90789SOL    HW174264   9.325  10.532   7.677
90789SOL    HW274265   9.378  10.659   7.615
90790SOL     OW74266   1.017   6.615  13.930
90790SOL    HW174267   1.047   6.701  13.957
90790SOL    HW274268   1.037   6.558  14.005
90791SOL     OW74269   1.132   7.412  11.877
90791SOL    HW174270   1.105   7.395  11.967
90791SOL    HW274271   1.094   7.341  11.826
90792SOL     OW74272  14.517  12.735  10.052
90792SOL    HW174273  14.567  12.677  10.109
90792SOL    HW274274  14.578  12.805  10.030
90793SOL     OW74275   9.917   8.606   4.642
90793SOL    HW174276   9.914   8.540   4.573
90793SOL    HW274277   9.885   8.560   4.720
90794SOL     OW74278   0.941   0.684   1.827
90794SOL    HW174279   0.851   0.680   1.795
90794SOL    HW274280   0.932   0.685   1.923
90795SOL     OW74281   7.386   2.312  13.661
90795SOL    HW174282   7.412   2.251  13.592
90795SOL    HW274283   7.345   2.385  13.615
90796SOL     OW74284   7.183  12.375   9.273
90796SOL    HW174285   7.229  12.426   9.207
90796SOL    HW274286   7.207  12.416   9.356
90797SOL     OW74287   2.798   8.467   9.425
90797SOL    HW174288   2.831   8.555   9.407
90797SOL    HW274289   2.732   8.451   9.358
90798SOL     OW74290   2.353   1.315   5.631
90798SOL    HW174291   2.347   1.409   5.618
90798SOL    HW274292   2.379   1.281   5.545
90799SOL     OW74293  12.320   5.483  10.126
90799SOL    HW174294  12.305   5.572  10.158
90799SOL    HW274295  12.270   5.478  10.044
90800SOL     OW74296  12.595   9.940  13.114
90800SOL    HW174297  12.614   9.942  13.020
90800SOL    HW274298  12.584   9.846  13.133
90801SOL     OW74299   9.778   1.006   6.719
90801SOL    HW174300   9.784   0.926   6.667
90801SOL    HW274301   9.868   1.039   6.722
90802SOL     OW74302   9.984  12.809   0.958
90802SOL    HW174303  10.002  12.750   0.885
90802SOL    HW274304  10.070  12.825   0.998
90803SOL     OW74305   8.591   6.559   8.418
90803SOL    HW174306   8.652   6.499   8.461
90803SOL    HW274307   8.625   6.568   8.329
90804SOL     OW74308  10.459   7.257   8.126
90804SOL    HW174309  10.409   7.279   8.204
90804SOL    HW274310  10.419   7.309   8.056
90805SOL     OW74311   4.963  10.218   6.425
90805SOL    HW174312   5.059  10.214   6.432
90805SOL    HW274313   4.939  10.299   6.469
90806SOL     OW74314   1.489   7.217   2.209
90806SOL    HW174315   1.396   7.203   2.223
90806SOL    HW274316   1.508   7.300   2.253
90807SOL     OW74317   8.222  11.728   1.778
90807SOL    HW174318   8.311  11.762   1.768
90807SOL    HW274319   8.173  11.800   1.818
90808SOL     OW74320   7.467   4.507  14.774
90808SOL    HW174321   7.470   4.431  14.716
90808SOL    HW274322   7.482   4.471  14.862
90809SOL     OW74323  13.645   1.139   7.646
90809SOL    HW174324  13.607   1.219   7.609
90809SOL    HW274325  13.707   1.171   7.712
90810SOL     OW74326  14.647   2.302   4.690
90810SOL    HW174327  14.692   2.383   4.665
90810SOL    HW274328  14.660   2.243   4.615
90811SOL     OW74329   0.218   0.932   9.143
90811SOL    HW174330   0.261   0.937   9.058
90811SOL    HW274331   0.250   0.851   9.182
90812SOL     OW74332   5.881   1.297   6.370
90812SOL    HW174333   5.893   1.212   6.411
90812SOL    HW274334   5.873   1.358   6.444
90813SOL     OW74335  13.135   2.035  13.491
90813SOL    HW174336  13.140   2.058  13.398
90813SOL    HW274337  13.224   2.044  13.523
90814SOL     OW74338   3.155  10.385   3.825
90814SOL    HW174339   3.098  10.391   3.901
90814SOL    HW274340   3.165  10.475   3.795
90815SOL     OW74341   3.001   4.008  13.271
90815SOL    HW174342   3.038   4.089  13.305
90815SOL    HW274343   2.913   4.031  13.243
90816SOL     OW74344   6.568   2.281   3.349
90816SOL    HW174345   6.576   2.194   3.309
90816SOL    HW274346   6.541   2.263   3.439
90817SOL     OW74347   4.575   4.603   5.847
90817SOL    HW174348   4.591   4.681   5.793
90817SOL    HW274349   4.652   4.549   5.834
90818SOL     OW74350   8.230  14.838  12.614
90818SOL    HW174351   8.256  14.868  12.527
90818SOL    HW274352   8.136  14.854  12.618
90819SOL     OW74353   3.112   6.094   8.333
90819SOL    HW174354   3.120   6.045   8.251
90819SOL    HW274355   3.121   6.027   8.401
90820SOL     OW74356   7.063   4.042   2.832
90820SOL    HW174357   7.007   4.109   2.793
90820SOL    HW274358   7.136   4.032   2.770
90821SOL     OW74359   3.256   4.390   2.228
90821SOL    HW174360   3.322   4.457   2.213
90821SOL    HW274361   3.250   4.343   2.145
90822SOL     OW74362   8.496   6.577   6.876
90822SOL    HW174363   8.471   6.609   6.790
90822SOL    HW274364   8.508   6.656   6.928
90823SOL     OW74365   8.430   8.043   6.664
90823SOL    HW174366   8.452   8.123   6.616
90823SOL    HW274367   8.465   8.057   6.752
90824SOL     OW74368   6.805  10.861   6.896
90824SOL    HW174369   6.776  10.950   6.915
90824SOL    HW274370   6.727  10.817   6.862
90825SOL     OW74371  12.940  12.125  12.336
90825SOL    HW174372  12.846  12.131  12.356
90825SOL    HW274373  12.968  12.217  12.329
90826SOL     OW74374   1.791  12.191   2.790
90826SOL    HW174375   1.842  12.119   2.826
90826SOL    HW274376   1.853  12.241   2.737
90827SOL     OW74377   2.217   4.416  13.314
90827SOL    HW174378   2.214   4.357  13.239
90827SOL    HW274379   2.185   4.363  13.387
90828SOL     OW74380   3.554   2.341   0.046
90828SOL    HW174381   3.505   2.415   0.009
90828SOL    HW274382   3.602   2.304  14.854
90829SOL     OW74383   9.143   6.676   9.895
90829SOL    HW174384   9.130   6.744   9.961
90829SOL    HW274385   9.213   6.709   9.839
90830SOL     OW74386   1.502   4.227   6.865
90830SOL    HW174387   1.432   4.262   6.809
90830SOL    HW274388   1.577   4.284   6.848
90831SOL     OW74389  12.754  10.505   2.681
90831SOL    HW174390  12.688  10.499   2.612
90831SOL    HW274391  12.705  10.505   2.763
90832SOL     OW74392   2.502   0.897   6.470
90832SOL    HW174393   2.543   0.928   6.550
90832SOL    HW274394   2.483   0.976   6.420
90833SOL     OW74395  13.624   5.978   2.928
90833SOL    HW174396  13.656   5.896   2.965
90833SOL    HW274397  13.682   6.045   2.963
90834SOL     OW74398   7.707  12.562   7.656
90834SOL    HW174399   7.693  12.553   7.750
90834SOL    HW274400   7.675  12.480   7.619
90835SOL     OW74401   5.099  12.750  14.780
90835SOL    HW174402   5.095  12.662  14.743
90835SOL    HW274403   5.097  12.808  14.705
90836SOL     OW74404  14.546  12.874   5.405
90836SOL    HW174405  14.539  12.843   5.315
90836SOL    HW274406  14.489  12.951   5.409
90837SOL     OW74407   7.720   9.778   6.313
90837SOL    HW174408   7.715   9.743   6.402
90837SOL    HW274409   7.704   9.703   6.256
90838SOL     OW74410   6.795   5.461   2.394
90838SOL    HW174411   6.841   5.519   2.333
90838SOL    HW274412   6.784   5.379   2.345
90839SOL     OW74413  14.774  10.410   6.380
90839SOL    HW174414  14.857  10.457   6.388
90839SOL    HW274415  14.774  10.377   6.290
90840SOL     OW74416   1.856  10.943  12.492
90840SOL    HW174417   1.919  10.997  12.541
90840SOL    HW274418   1.840  10.868  12.548
90841SOL     OW74419   1.240   8.500   5.534
90841SOL    HW174420   1.214   8.591   5.518
90841SOL    HW274421   1.160   8.450   5.521
90842SOL     OW74422  11.730   0.843   5.238
90842SOL    HW174423  11.719   0.881   5.151
90842SOL    HW274424  11.763   0.754   5.221
90843SOL     OW74425   7.131   7.660   3.276
90843SOL    HW174426   7.050   7.651   3.327
90843SOL    HW274427   7.201   7.649   3.340
90844SOL     OW74428   9.262   5.847   2.197
90844SOL    HW174429   9.336   5.805   2.153
90844SOL    HW274430   9.199   5.864   2.126
90845SOL     OW74431  12.957   6.751   3.371
90845SOL    HW174432  13.024   6.778   3.434
90845SOL    HW274433  13.003   6.692   3.311
90846SOL     OW74434  13.206  10.350   5.780
90846SOL    HW174435  13.170  10.403   5.852
90846SOL    HW274436  13.132  10.296   5.751
90847SOL     OW74437  13.212  14.176   2.198
90847SOL    HW174438  13.134  14.121   2.206
90847SOL    HW274439  13.182  14.263   2.223
90848SOL     OW74440   3.566   2.250   7.087
90848SOL    HW174441   3.614   2.192   7.147
90848SOL    HW274442   3.579   2.211   7.001
90849SOL     OW74443   4.568   8.561   1.883
90849SOL    HW174444   4.627   8.589   1.953
90849SOL    HW274445   4.615   8.580   1.802
90850SOL     OW74446   5.006   1.247  13.363
90850SOL    HW174447   5.039   1.333  13.339
90850SOL    HW274448   5.008   1.197  13.281
90851SOL     OW74449   0.694  12.249   1.964
90851SOL    HW174450   0.741  12.165   1.966
90851SOL    HW274451   0.650  12.253   2.050
90852SOL     OW74452  13.521   3.382   0.965
90852SOL    HW174453  13.440   3.345   0.931
90852SOL    HW274454  13.561   3.426   0.890
90853SOL     OW74455   3.000   0.550  14.295
90853SOL    HW174456   3.051   0.581  14.370
90853SOL    HW274457   3.055   0.569  14.219
90854SOL     OW74458   2.000  12.759   6.954
90854SOL    HW174459   1.966  12.728   6.870
90854SOL    HW274460   2.056  12.833   6.931
90855SOL     OW74461  10.048   3.686   8.412
90855SOL    HW174462  10.114   3.755   8.417
90855SOL    HW274463  10.076   3.622   8.477
90856SOL     OW74464   4.123   4.818   2.164
90856SOL    HW174465   4.062   4.829   2.236
90856SOL    HW274466   4.198   4.772   2.203
90857SOL     OW74467   9.851   4.168   5.459
90857SOL    HW174468   9.855   4.081   5.497
90857SOL    HW274469   9.770   4.206   5.493
90858SOL     OW74470   7.951  12.480   2.175
90858SOL    HW174471   8.025  12.476   2.236
90858SOL    HW274472   7.948  12.392   2.136
90859SOL     OW74473  13.935  12.722   6.982
90859SOL    HW174474  13.969  12.725   6.893
90859SOL    HW274475  13.844  12.749   6.974
90860SOL     OW74476   5.065  10.948   4.894
90860SOL    HW174477   5.137  10.919   4.839
90860SOL    HW274478   5.044  10.871   4.948
90861SOL     OW74479   2.100   4.324   6.454
90861SOL    HW174480   2.087   4.230   6.462
90861SOL    HW274481   2.194   4.336   6.467
90862SOL     OW74482   4.711   2.624   8.604
90862SOL    HW174483   4.697   2.559   8.673
90862SOL    HW274484   4.657   2.698   8.629
90863SOL     OW74485   9.457  12.383   5.749
90863SOL    HW174486   9.439  12.370   5.842
90863SOL    HW274487   9.476  12.477   5.742
90864SOL     OW74488  11.808   4.491   9.274
90864SOL    HW174489  11.728   4.480   9.223
90864SOL    HW274490  11.813   4.413   9.328
90865SOL     OW74491  13.030  10.733  13.279
90865SOL    HW174492  12.988  10.705  13.360
90865SOL    HW274493  13.081  10.657  13.251
90866SOL     OW74494   2.845   2.701  14.852
90866SOL    HW174495   2.810   2.776   0.019
90866SOL    HW274496   2.898   2.653   0.033
90867SOL     OW74497  11.542  14.208   6.248
90867SOL    HW174498  11.632  14.177   6.257
90867SOL    HW274499  11.551  14.301   6.230
90868SOL     OW74500  13.819  11.066   8.166
90868SOL    HW174501  13.908  11.065   8.131
90868SOL    HW274502  13.778  10.988   8.130
90869SOL     OW74503   5.659   0.297   3.803
90869SOL    HW174504   5.726   0.246   3.849
90869SOL    HW274505   5.687   0.388   3.812
90870SOL     OW74506  12.496   1.986  10.345
90870SOL    HW174507  12.574   1.935  10.325
90870SOL    HW274508  12.457   2.005  10.259
90871SOL     OW74509  13.141  11.128   7.839
90871SOL    HW174510  13.178  11.066   7.776
90871SOL    HW274511  13.201  11.204   7.835
90872SOL     OW74512   8.775   5.990   7.078
90872SOL    HW174513   8.855   5.991   7.131
90872SOL    HW274514   8.705   5.974   7.141
90873SOL     OW74515  13.234   7.760  13.994
90873SOL    HW174516  13.240   7.708  14.074
90873SOL    HW274517  13.173   7.711  13.938
90874SOL     OW74518   9.650  11.530   9.591
90874SOL    HW174519   9.607  11.502   9.672
90874SOL    HW274520   9.586  11.587   9.548
90875SOL     OW74521  10.507   7.149   7.629
90875SOL    HW174522  10.503   7.098   7.710
90875SOL    HW274523  10.582   7.208   7.642
90876SOL     OW74524   6.796   0.420  14.491
90876SOL    HW174525   6.762   0.485  14.551
90876SOL    HW274526   6.846   0.470  14.426
90877SOL     OW74527  10.215   9.956  10.878
90877SOL    HW174528  10.268  10.017  10.930
90877SOL    HW274529  10.137   9.941  10.932
90878SOL     OW74530   2.233  10.286   5.432
90878SOL    HW174531   2.242  10.247   5.344
90878SOL    HW274532   2.191  10.371   5.416
90879SOL     OW74533  14.827  10.149  10.881
90879SOL    HW174534   0.011  10.121  10.944
90879SOL    HW274535  14.876  10.186  10.808
90880SOL     OW74536  12.543   4.687   1.407
90880SOL    HW174537  12.530   4.594   1.428
90880SOL    HW274538  12.461   4.729   1.435
90881SOL     OW74539  14.243   0.527   0.495
90881SOL    HW174540  14.184   0.455   0.514
90881SOL    HW274541  14.199   0.604   0.530
90882SOL     OW74542   2.828  12.060   7.365
90882SOL    HW174543   2.804  12.062   7.272
90882SOL    HW274544   2.754  12.017   7.408
90883SOL     OW74545   8.934   7.325  11.540
90883SOL    HW174546   8.914   7.360  11.454
90883SOL    HW274547   9.025   7.296  11.534
90884SOL     OW74548  11.492  14.685   9.303
90884SOL    HW174549  11.457  14.600   9.327
90884SOL    HW274550  11.433  14.748   9.343
90885SOL     OW74551  12.314   0.088  10.963
90885SOL    HW174552  12.340   0.070  10.873
90885SOL    HW274553  12.270   0.173  10.958
90886SOL     OW74554  10.263  10.280  14.360
90886SOL    HW174555  10.283  10.365  14.398
90886SOL    HW274556  10.235  10.226  14.434
90887SOL     OW74557  12.213   6.399   1.214
90887SOL    HW174558  12.251   6.397   1.126
90887SOL    HW274559  12.288   6.402   1.272
90888SOL     OW74560  10.707   1.828  12.287
90888SOL    HW174561  10.699   1.733  12.294
90888SOL    HW274562  10.801   1.843  12.276
90889SOL     OW74563   3.111   9.597  10.338
90889SOL    HW174564   3.106   9.505  10.312
90889SOL    HW274565   3.124   9.595  10.432
90890SOL     OW74566   9.146   7.919   0.373
90890SOL    HW174567   9.146   8.014   0.360
90890SOL    HW274568   9.173   7.907   0.464
90891SOL     OW74569  11.014  11.871   6.142
90891SOL    HW174570  10.991  11.809   6.073
90891SOL    HW274571  10.997  11.823   6.223
90892SOL     OW74572  10.699   7.468   2.429
90892SOL    HW174573  10.671   7.411   2.501
90892SOL    HW274574  10.622   7.477   2.374
90893SOL     OW74575   8.981  14.575   3.970
90893SOL    HW174576   9.049  14.560   3.904
90893SOL    HW274577   8.909  14.614   3.920
90894SOL     OW74578   4.234   9.031   7.467
90894SOL    HW174579   4.273   9.113   7.496
90894SOL    HW274580   4.141   9.040   7.486
90895SOL     OW74581   4.547  11.983  13.267
90895SOL    HW174582   4.596  11.968  13.348
90895SOL    HW274583   4.580  12.067  13.234
90896SOL     OW74584  14.096   9.840   4.036
90896SOL    HW174585  14.156   9.883   3.975
90896SOL    HW274586  14.051   9.912   4.080
90897SOL     OW74587   3.667  12.811   0.129
90897SOL    HW174588   3.736  12.858   0.175
90897SOL    HW274589   3.690  12.718   0.140
90898SOL     OW74590  13.587   0.127   0.639
90898SOL    HW174591  13.615   0.148   0.728
90898SOL    HW274592  13.623   0.198   0.586
90899SOL     OW74593   1.572   1.751  14.863
90899SOL    HW174594   1.548   1.835  14.822
90899SOL    HW274595   1.524   1.751   0.064
90900SOL     OW74596   4.858   2.274  10.646
90900SOL    HW174597   4.936   2.293  10.594
90900SOL    HW274598   4.835   2.184  10.624
90901SOL     OW74599   5.054  11.892  10.304
90901SOL    HW174600   4.989  11.832  10.269
90901SOL    HW274601   5.028  11.978  10.271
90902SOL     OW74602   2.218   1.775   6.946
90902SOL    HW174603   2.245   1.851   6.895
90902SOL    HW274604   2.299   1.725   6.958
90903SOL     OW74605   9.692  11.745   1.733
90903SOL    HW174606   9.713  11.742   1.826
90903SOL    HW274607   9.729  11.664   1.698
90904SOL     OW74608   9.346   4.635  12.461
90904SOL    HW174609   9.294   4.577  12.516
90904SOL    HW274610   9.436   4.608  12.476
90905SOL     OW74611   8.662   5.879   6.866
90905SOL    HW174612   8.708   5.929   6.933
90905SOL    HW274613   8.668   5.788   6.896
90906SOL     OW74614   3.482   9.511   1.175
90906SOL    HW174615   3.408   9.464   1.215
90906SOL    HW274616   3.450   9.536   1.088
90907SOL     OW74617   2.762   0.073   3.082
90907SOL    HW174618   2.694   0.134   3.053
90907SOL    HW274619   2.788   0.026   3.003
90908SOL     OW74620   5.470   0.983   2.656
90908SOL    HW174621   5.559   0.955   2.677
90908SOL    HW274622   5.416   0.941   2.722
90909SOL     OW74623  10.548   5.199  13.157
90909SOL    HW174624  10.631   5.245  13.143
90909SOL    HW274625  10.571   5.106  13.153
90910SOL     OW74626   4.317  10.296   4.234
90910SOL    HW174627   4.410  10.293   4.254
90910SOL    HW274628   4.309  10.358   4.162
90911SOL     OW74629   8.327  12.561   8.725
90911SOL    HW174630   8.314  12.652   8.750
90911SOL    HW274631   8.281  12.552   8.641
90912SOL     OW74632   5.016   0.795  13.067
90912SOL    HW174633   5.038   0.770  13.157
90912SOL    HW274634   4.927   0.830  13.073
90913SOL     OW74635  12.843   7.070   3.427
90913SOL    HW174636  12.787   7.130   3.475
90913SOL    HW274637  12.786   6.995   3.406
90914SOL     OW74638  14.796  10.970  14.790
90914SOL    HW174639  14.762  11.039  14.846
90914SOL    HW274640  14.822  10.900  14.851
90915SOL     OW74641  11.790  12.916   9.941
90915SOL    HW174642  11.706  12.934   9.983
90915SOL    HW274643  11.836  13.000   9.941
90916SOL     OW74644   2.282  14.613   2.364
90916SOL    HW174645   2.293  14.681   2.298
90916SOL    HW274646   2.266  14.661   2.445
90917SOL     OW74647   8.343   3.474   8.345
90917SOL    HW174648   8.375   3.477   8.255
90917SOL    HW274649   8.423   3.474   8.399
90918SOL     OW74650   3.466   6.003   0.432
90918SOL    HW174651   3.395   6.056   0.396
90918SOL    HW274652   3.512   5.969   0.355
90919SOL     OW74653  13.289   0.697  12.247
90919SOL    HW174654  13.303   0.742  12.164
90919SOL    HW274655  13.208   0.648  12.235
90920SOL     OW74656   8.597   0.084   0.105
90920SOL    HW174657   8.624   0.111   0.017
90920SOL    HW274658   8.659   0.015   0.129
90921SOL     OW74659  13.206   9.518   3.733
90921SOL    HW174660  13.177   9.428   3.718
90921SOL    HW274661  13.173   9.567   3.658
90922SOL     OW74662   1.644  11.397   6.986
90922SOL    HW174663   1.668  11.372   6.897
90922SOL    HW274664   1.637  11.492   6.983
90923SOL     OW74665   4.564  10.243   3.108
90923SOL    HW174666   4.484  10.239   3.055
90923SOL    HW274667   4.626  10.185   3.063
90924SOL     OW74668   8.952  12.785  10.737
90924SOL    HW174669   8.975  12.724  10.666
90924SOL    HW274670   8.993  12.867  10.711
90925SOL     OW74671  10.492  14.061  11.774
90925SOL    HW174672  10.546  14.001  11.723
90925SOL    HW274673  10.448  14.006  11.838
90926SOL     OW74674  14.288   7.111   1.745
90926SOL    HW174675  14.256   7.107   1.835
90926SOL    HW274676  14.213   7.140   1.694
90927SOL     OW74677   2.170   9.369   2.593
90927SOL    HW174678   2.087   9.332   2.622
90927SOL    HW274679   2.195   9.430   2.662
90928SOL     OW74680  11.658   4.061   9.654
90928SOL    HW174681  11.652   4.155   9.670
90928SOL    HW274682  11.642   4.051   9.560
90929SOL     OW74683   9.553  13.646   3.745
90929SOL    HW174684   9.588  13.560   3.721
90929SOL    HW274685   9.540  13.691   3.661
90930SOL     OW74686   7.195   1.343   0.059
90930SOL    HW174687   7.205   1.430   0.098
90930SOL    HW274688   7.137   1.297   0.120
90931SOL     OW74689  12.066   6.458   5.288
90931SOL    HW174690  12.131   6.446   5.218
90931SOL    HW274691  12.038   6.549   5.278
90932SOL     OW74692  12.396   4.028  11.584
90932SOL    HW174693  12.328   3.972  11.622
90932SOL    HW274694  12.466   4.028  11.649
90933SOL     OW74695  11.162   6.951   7.458
90933SOL    HW174696  11.082   6.920   7.416
90933SOL    HW274697  11.233   6.910   7.408
90934SOL     OW74698  12.585   2.483   1.718
90934SOL    HW174699  12.535   2.490   1.637
90934SOL    HW274700  12.530   2.525   1.784
90935SOL     OW74701   6.786  13.949   0.225
90935SOL    HW174702   6.705  13.970   0.179
90935SOL    HW274703   6.761  13.885   0.291
90936SOL     OW74704   6.604   3.193  12.391
90936SOL    HW174705   6.550   3.176  12.314
90936SOL    HW274706   6.671   3.254  12.360
90937SOL     OW74707  13.333  12.014  10.915
90937SOL    HW174708  13.258  12.073  10.909
90937SOL    HW274709  13.390  12.040  10.843
90938SOL     OW74710   8.144   8.680   3.623
90938SOL    HW174711   8.120   8.602   3.673
90938SOL    HW274712   8.140   8.653   3.531
90939SOL     OW74713  12.514   9.754   9.550
90939SOL    HW174714  12.554   9.786   9.470
90939SOL    HW274715  12.552   9.667   9.564
90940SOL     OW74716   4.094   0.045  11.819
90940SOL    HW174717   4.066   0.132  11.846
90940SOL    HW274718   4.100  14.876  11.900
90941SOL     OW74719  12.933  13.889   0.268
90941SOL    HW174720  12.938  13.965   0.326
90941SOL    HW274721  12.880  13.825   0.316
90942SOL     OW74722   5.730   7.564  11.860
90942SOL    HW174723   5.727   7.657  11.836
90942SOL    HW274724   5.727   7.565  11.956
90943SOL     OW74725   3.447  10.545   0.413
90943SOL    HW174726   3.423  10.456   0.390
90943SOL    HW274727   3.540  10.551   0.394
90944SOL     OW74728  13.954   2.982   6.484
90944SOL    HW174729  14.038   3.019   6.511
90944SOL    HW274730  13.889   3.044   6.518
90945SOL     OW74731   5.342   3.011   1.633
90945SOL    HW174732   5.369   2.965   1.712
90945SOL    HW274733   5.255   3.045   1.653
90946SOL     OW74734   6.780  12.211  10.855
90946SOL    HW174735   6.771  12.179  10.945
90946SOL    HW274736   6.835  12.290  10.864
90947SOL     OW74737   0.959   3.535   8.927
90947SOL    HW174738   0.876   3.510   8.887
90947SOL    HW274739   0.966   3.480   9.006
90948SOL     OW74740   4.445   4.279   3.053
90948SOL    HW174741   4.365   4.330   3.067
90948SOL    HW274742   4.448   4.218   3.126
90949SOL     OW74743   6.868   4.089   2.437
90949SOL    HW174744   6.818   4.022   2.484
90949SOL    HW274745   6.912   4.041   2.366
90950SOL     OW74746  10.727  12.333   2.491
90950SOL    HW174747  10.687  12.349   2.576
90950SOL    HW274748  10.792  12.265   2.507
90951SOL     OW74749  14.875   4.609   7.839
90951SOL    HW174750   0.031   4.574   7.758
90951SOL    HW274751  14.866   4.533   7.896
90952SOL     OW74752   4.492   4.303   1.046
90952SOL    HW174753   4.537   4.310   1.131
90952SOL    HW274754   4.412   4.355   1.056
90953SOL     OW74755  11.010   4.376   8.814
90953SOL    HW174756  11.006   4.281   8.828
90953SOL    HW274757  10.940   4.412   8.869
90954SOL     OW74758   6.227   1.053  11.380
90954SOL    HW174759   6.319   1.027  11.372
90954SOL    HW274760   6.209   1.105  11.302
90955SOL     OW74761  12.922   1.097  13.872
90955SOL    HW174762  12.860   1.117  13.942
90955SOL    HW274763  13.001   1.069  13.917
90956SOL     OW74764   9.990  14.766  11.803
90956SOL    HW174765  10.059  14.744  11.741
90956SOL    HW274766   9.924  14.697  11.790
90957SOL     OW74767  13.656   2.336  11.995
90957SOL    HW174768  13.687   2.262  11.944
90957SOL    HW274769  13.709   2.335  12.074
90958SOL     OW74770   7.552   7.001   1.513
90958SOL    HW174771   7.633   7.043   1.539
90958SOL    HW274772   7.579   6.919   1.471
90959SOL     OW74773   4.589   4.871  10.065
90959SOL    HW174774   4.517   4.856  10.004
90959SOL    HW274775   4.546   4.895  10.147
90960SOL     OW74776   4.100   5.524   1.326
90960SOL    HW174777   4.083   5.506   1.419
90960SOL    HW274778   4.171   5.464   1.303
90961SOL     OW74779   1.531   0.545   6.467
90961SOL    HW174780   1.440   0.537   6.493
90961SOL    HW274781   1.568   0.459   6.484
90962SOL     OW74782   6.059   1.743   9.667
90962SOL    HW174783   6.059   1.839   9.666
90962SOL    HW274784   6.044   1.718   9.576
90963SOL     OW74785  10.256  14.038   2.919
90963SOL    HW174786  10.188  14.029   2.985
90963SOL    HW274787  10.244  13.962   2.861
90964SOL     OW74788   7.833   6.050  14.293
90964SOL    HW174789   7.876   6.012  14.369
90964SOL    HW274790   7.905   6.088  14.241
90965SOL     OW74791   5.003   7.692  12.582
90965SOL    HW174792   5.073   7.757  12.584
90965SOL    HW274793   5.048   7.608  12.588
90966SOL     OW74794  13.267   9.128   3.954
90966SOL    HW174795  13.322   9.108   3.878
90966SOL    HW274796  13.177   9.117   3.922
90967SOL     OW74797   3.075   8.887  13.822
90967SOL    HW174798   3.022   8.850  13.892
90967SOL    HW274799   3.075   8.981  13.839
90968SOL     OW74800  11.962  14.726  12.407
90968SOL    HW174801  12.041  14.775  12.430
90968SOL    HW274802  11.961  14.653  12.468
90969SOL     OW74803  13.198   3.291   2.245
90969SOL    HW174804  13.268   3.355   2.241
90969SOL    HW274805  13.224   3.230   2.314
90970SOL     OW74806  11.974   0.742   0.369
90970SOL    HW174807  11.951   0.817   0.315
90970SOL    HW274808  12.069   0.732   0.358
90971SOL     OW74809   6.562  13.798   2.299
90971SOL    HW174810   6.504  13.792   2.223
90971SOL    HW274811   6.533  13.877   2.345
90972SOL     OW74812   5.727  12.915   1.851
90972SOL    HW174813   5.670  12.857   1.901
90972SOL    HW274814   5.674  12.994   1.837
90973SOL     OW74815  14.523   5.696   0.969
90973SOL    HW174816  14.612   5.729   0.963
90973SOL    HW274817  14.477   5.738   0.895
90974SOL     OW74818   4.079   6.495   4.646
90974SOL    HW174819   4.095   6.406   4.614
90974SOL    HW274820   4.165   6.536   4.646
90975SOL     OW74821  13.262   4.176   0.538
90975SOL    HW174822  13.257   4.134   0.452
90975SOL    HW274823  13.171   4.183   0.566
90976SOL     OW74824   0.366   4.619   9.011
90976SOL    HW174825   0.382   4.628   8.917
90976SOL    HW274826   0.282   4.663   9.025
90977SOL     OW74827   2.714   1.676  12.986
90977SOL    HW174828   2.768   1.613  13.034
90977SOL    HW274829   2.771   1.751  12.972
90978SOL     OW74830   5.238   3.156   7.482
90978SOL    HW174831   5.283   3.151   7.566
90978SOL    HW274832   5.184   3.235   7.488
90979SOL     OW74833   8.346   7.845   3.727
90979SOL    HW174834   8.352   7.810   3.638
90979SOL    HW274835   8.319   7.770   3.781
90980SOL     OW74836   2.673   8.211   8.342
90980SOL    HW174837   2.623   8.240   8.419
90980SOL    HW274838   2.757   8.184   8.377
90981SOL     OW74839  14.633   8.906   8.694
90981SOL    HW174840  14.718   8.862   8.684
90981SOL    HW274841  14.585   8.852   8.756
90982SOL     OW74842  11.738   6.539  10.581
90982SOL    HW174843  11.739   6.628  10.614
90982SOL    HW274844  11.696   6.488  10.649
90983SOL     OW74845   7.445   7.565  12.221
90983SOL    HW174846   7.490   7.512  12.287
90983SOL    HW274847   7.356   7.530  12.218
90984SOL     OW74848   3.183   4.599   8.728
90984SOL    HW174849   3.241   4.601   8.805
90984SOL    HW274850   3.243   4.586   8.654
90985SOL     OW74851   3.483   6.343  11.302
90985SOL    HW174852   3.544   6.343  11.376
90985SOL    HW274853   3.415   6.280  11.326
90986SOL     OW74854   3.838   0.722  14.541
90986SOL    HW174855   3.813   0.733  14.633
90986SOL    HW274856   3.756   0.728  14.493
90987SOL     OW74857  10.701  11.949   8.409
90987SOL    HW174858  10.784  11.995   8.400
90987SOL    HW274859  10.637  12.017   8.429
90988SOL     OW74860   5.904   4.236   5.697
90988SOL    HW174861   5.896   4.327   5.667
90988SOL    HW274862   5.855   4.186   5.632
90989SOL     OW74863   7.014  10.087   6.571
90989SOL    HW174864   7.084  10.021   6.568
90989SOL    HW274865   7.053  10.165   6.532
90990SOL     OW74866   0.035   1.760   4.644
90990SOL    HW174867   0.113   1.760   4.700
90990SOL    HW274868   0.007   1.669   4.643
90991SOL     OW74869   4.151  14.188   7.500
90991SOL    HW174870   4.170  14.113   7.443
90991SOL    HW274871   4.072  14.228   7.463
90992SOL     OW74872  11.418  12.870   7.733
90992SOL    HW174873  11.361  12.847   7.806
90992SOL    HW274874  11.414  12.966   7.728
90993SOL     OW74875   1.803  13.696   3.134
90993SOL    HW174876   1.745  13.764   3.170
90993SOL    HW274877   1.859  13.670   3.208
90994SOL     OW74878   6.231   5.011   4.861
90994SOL    HW174879   6.186   5.045   4.938
90994SOL    HW274880   6.321   4.996   4.889
90995SOL     OW74881   9.319   2.154   1.771
90995SOL    HW174882   9.294   2.219   1.705
90995SOL    HW274883   9.331   2.205   1.851
90996SOL     OW74884   5.089   8.274   3.465
90996SOL    HW174885   5.069   8.283   3.372
90996SOL    HW274886   5.012   8.308   3.510
90997SOL     OW74887   3.546   0.468  12.913
90997SOL    HW174888   3.544   0.455  13.007
90997SOL    HW274889   3.539   0.380  12.876
90998SOL     OW74890   1.948   1.182   4.206
90998SOL    HW174891   1.877   1.228   4.161
90998SOL    HW274892   1.924   1.188   4.299
90999SOL     OW74893  11.523  11.851   0.070
90999SOL    HW174894  11.562  11.820  14.870
90999SOL    HW274895  11.596  11.888   0.119
91000SOL     OW74896  13.082   1.383  10.392
91000SOL    HW174897  13.014   1.333  10.348
91000SOL    HW274898  13.160   1.328  10.386
91001SOL     OW74899   1.619   2.235   8.087
91001SOL    HW174900   1.586   2.316   8.049
91001SOL    HW274901   1.677   2.263   8.157
91002SOL     OW74902   1.648   4.248  12.124
91002SOL    HW174903   1.607   4.334  12.126
91002SOL    HW274904   1.577   4.187  12.104
91003SOL     OW74905   1.256  13.965   0.728
91003SOL    HW174906   1.253  14.013   0.646
91003SOL    HW274907   1.215  14.023   0.792
91004SOL     OW74908   4.424   4.964  13.409
91004SOL    HW174909   4.350   4.903  13.408
91004SOL    HW274910   4.501   4.908  13.421
91005SOL     OW74911  10.349   1.722   0.632
91005SOL    HW174912  10.389   1.809   0.639
91005SOL    HW274913  10.258   1.738   0.608
91006SOL     OW74914   5.546  14.791  10.596
91006SOL    HW174915   5.572  14.866  10.542
91006SOL    HW274916   5.581  14.715  10.550
91007SOL     OW74917   2.947   6.998   2.761
91007SOL    HW174918   3.020   6.949   2.798
91007SOL    HW274919   2.987   7.076   2.724
91008SOL     OW74920   8.477   7.616   1.652
91008SOL    HW174921   8.539   7.666   1.599
91008SOL    HW274922   8.460   7.672   1.727
91009SOL     OW74923   8.926   3.668   6.148
91009SOL    HW174924   8.928   3.577   6.118
91009SOL    HW274925   9.010   3.705   6.121
91010SOL     OW74926   1.967  13.422  14.107
91010SOL    HW174927   2.029  13.399  14.176
91010SOL    HW274928   1.888  13.371  14.127
91011SOL     OW74929   3.216  12.588   6.982
91011SOL    HW174930   3.246  12.516   7.036
91011SOL    HW274931   3.271  12.584   6.904
91012SOL     OW74932  14.164   9.807   6.971
91012SOL    HW174933  14.197   9.869   7.036
91012SOL    HW274934  14.078   9.843   6.946
91013SOL     OW74935  10.997  11.333   2.487
91013SOL    HW174936  11.048  11.252   2.488
91013SOL    HW274937  11.061  11.401   2.465
91014SOL     OW74938   5.010  14.872  14.168
91014SOL    HW174939   5.055  14.852  14.250
91014SOL    HW274940   4.938   0.047  14.193
91015SOL     OW74941   4.453   8.241   8.314
91015SOL    HW174942   4.375   8.293   8.336
91015SOL    HW274943   4.444   8.161   8.366
91016SOL     OW74944   5.315   1.812   3.032
91016SOL    HW174945   5.353   1.847   2.952
91016SOL    HW274946   5.290   1.722   3.010
91017SOL     OW74947  11.639   7.935   6.372
91017SOL    HW174948  11.683   7.858   6.409
91017SOL    HW274949  11.551   7.904   6.352
91018SOL     OW74950   3.196   9.891  14.217
91018SOL    HW174951   3.203   9.985  14.204
91018SOL    HW274952   3.279   9.868  14.261
91019SOL     OW74953  14.854   2.750   9.347
91019SOL    HW174954  14.846   2.762   9.442
91019SOL    HW274955   0.066   2.761   9.329
91020SOL     OW74956   4.540   0.208   7.441
91020SOL    HW174957   4.462   0.168   7.478
91020SOL    HW274958   4.612   0.153   7.470
91021SOL     OW74959   2.484  11.451   4.322
91021SOL    HW174960   2.527  11.383   4.375
91021SOL    HW274961   2.556  11.499   4.281
91022SOL     OW74962   2.628   9.098   4.233
91022SOL    HW174963   2.702   9.062   4.184
91022SOL    HW274964   2.608   9.031   4.299
91023SOL     OW74965   4.230   3.316  12.898
91023SOL    HW174966   4.148   3.365  12.912
91023SOL    HW274967   4.265   3.303  12.986
91024SOL     OW74968  12.451   1.736   0.543
91024SOL    HW174969  12.437   1.808   0.481
91024SOL    HW274970  12.502   1.775   0.614
91025SOL     OW74971  13.646   4.515   3.460
91025SOL    HW174972  13.563   4.495   3.418
91025SOL    HW274973  13.631   4.597   3.507
91026SOL     OW74974   0.768  11.411   9.629
91026SOL    HW174975   0.803  11.493   9.594
91026SOL    HW274976   0.809  11.343   9.576
91027SOL     OW74977  12.206   0.419  13.728
91027SOL    HW174978  12.230   0.394  13.639
91027SOL    HW274979  12.121   0.377  13.743
91028SOL     OW74980  10.857   1.798   3.907
91028SOL    HW174981  10.825   1.783   3.818
91028SOL    HW274982  10.944   1.835   3.896
91029SOL     OW74983   7.708  14.356  12.569
91029SOL    HW174984   7.748  14.271  12.555
91029SOL    HW274985   7.782  14.415  12.582
91030SOL     OW74986  12.060  11.557  12.980
91030SOL    HW174987  11.999  11.526  12.913
91030SOL    HW274988  12.134  11.497  12.975
91031SOL     OW74989   9.186   5.980   7.484
91031SOL    HW174990   9.221   6.015   7.566
91031SOL    HW274991   9.151   6.056   7.438
91032SOL     OW74992   4.048   2.517   2.424
91032SOL    HW174993   4.014   2.602   2.452
91032SOL    HW274994   4.142   2.531   2.413
91033SOL     OW74995   9.164   6.954   1.541
91033SOL    HW174996   9.106   6.886   1.507
91033SOL    HW274997   9.115   6.994   1.612
91034SOL     OW74998   6.195   0.160   7.824
91034SOL    HW174999   6.253   0.140   7.751
91034SOL    HW275000   6.233   0.113   7.899
91035SOL     OW75001   0.789   0.442   1.950
91035SOL    HW175002   0.879   0.424   1.924
91035SOL    HW275003   0.791   0.443   2.046
91036SOL     OW75004  11.531   1.256   4.124
91036SOL    HW175005  11.504   1.201   4.196
91036SOL    HW275006  11.520   1.346   4.156
91037SOL     OW75007   5.747   8.704  10.754
91037SOL    HW175008   5.719   8.692  10.845
91037SOL    HW275009   5.773   8.796  10.749
91038SOL     OW75010  10.506   4.583   6.023
91038SOL    HW175011  10.594   4.550   6.008
91038SOL    HW275012  10.476   4.612   5.936
91039SOL     OW75013  11.721  13.013   1.193
91039SOL    HW175014  11.664  13.085   1.166
91039SOL    HW275015  11.790  13.056   1.244
91040SOL     OW75016   2.397   3.898  12.997
91040SOL    HW175017   2.368   3.976  12.950
91040SOL    HW275018   2.337   3.891  13.071
91041SOL     OW75019  11.481   7.680  11.635
91041SOL    HW175020  11.411   7.640  11.584
91041SOL    HW275021  11.548   7.704  11.571
91042SOL     OW75022  12.602  11.139  11.677
91042SOL    HW175023  12.570  11.198  11.746
91042SOL    HW275024  12.618  11.197  11.602
91043SOL     OW75025   0.915   9.822  10.103
91043SOL    HW175026   0.950   9.837  10.191
91043SOL    HW275027   0.932   9.730  10.086
91044SOL     OW75028   1.253   8.546   6.809
91044SOL    HW175029   1.172   8.580   6.847
91044SOL    HW275030   1.256   8.584   6.721
91045SOL     OW75031   8.771  13.570   1.388
91045SOL    HW175032   8.804  13.486   1.422
91045SOL    HW275033   8.849  13.612   1.352
91046SOL     OW75034   3.369   9.343   8.633
91046SOL    HW175035   3.366   9.248   8.645
91046SOL    HW275036   3.453   9.369   8.672
91047SOL     OW75037   2.056  12.073  13.758
91047SOL    HW175038   2.038  12.162  13.791
91047SOL    HW275039   2.005  12.067  13.677
91048SOL     OW75040  10.957   8.854   1.685
91048SOL    HW175041  11.033   8.861   1.744
91048SOL    HW275042  10.892   8.805   1.736
91049SOL     OW75043  10.098   5.620  12.232
91049SOL    HW175044  10.033   5.586  12.294
91049SOL    HW275045  10.093   5.561  12.157
91050SOL     OW75046   7.351   1.071  11.041
91050SOL    HW175047   7.315   1.160  11.037
91050SOL    HW275048   7.281   1.016  11.005
91051SOL     OW75049  13.799   3.972   1.893
91051SOL    HW175050  13.880   3.932   1.926
91051SOL    HW275051  13.729   3.929   1.943
91052SOL     OW75052   7.278  13.756   6.295
91052SOL    HW175053   7.261  13.848   6.312
91052SOL    HW275054   7.310  13.722   6.379
91053SOL     OW75055   3.488   5.589   5.743
91053SOL    HW175056   3.401   5.584   5.782
91053SOL    HW275057   3.548   5.584   5.817
91054SOL     OW75058   9.154   2.368   0.860
91054SOL    HW175059   9.199   2.450   0.838
91054SOL    HW275060   9.069   2.395   0.895
91055SOL     OW75061   6.543  12.375   5.253
91055SOL    HW175062   6.545  12.379   5.349
91055SOL    HW275063   6.506  12.459   5.227
91056SOL     OW75064  11.426   4.945   6.445
91056SOL    HW175065  11.386   5.017   6.493
91056SOL    HW275066  11.495   4.913   6.503
91057SOL     OW75067   9.739   3.495   0.138
91057SOL    HW175068   9.823   3.464   0.174
91057SOL    HW275069   9.691   3.415   0.117
91058SOL     OW75070   1.437   5.286   1.280
91058SOL    HW175071   1.367   5.318   1.337
91058SOL    HW275072   1.427   5.336   1.199
91059SOL     OW75073   2.039   1.220   9.712
91059SOL    HW175074   2.118   1.235   9.763
91059SOL    HW275075   2.054   1.265   9.629
91060SOL     OW75076   3.722   0.903   5.152
91060SOL    HW175077   3.759   0.933   5.069
91060SOL    HW275078   3.662   0.832   5.127
91061SOL     OW75079  14.394   5.854   5.016
91061SOL    HW175080  14.383   5.866   5.110
91061SOL    HW275081  14.331   5.914   4.976
91062SOL     OW75082  13.399   8.827  10.379
91062SOL    HW175083  13.460   8.784  10.319
91062SOL    HW275084  13.445   8.905  10.408
91063SOL     OW75085   1.850   6.439  10.929
91063SOL    HW175086   1.754   6.443  10.938
91063SOL    HW275087   1.881   6.513  10.980
91064SOL     OW75088  12.882   8.708   3.786
91064SOL    HW175089  12.824   8.639   3.753
91064SOL    HW275090  12.823   8.774   3.821
91065SOL     OW75091  10.277   9.871  12.716
91065SOL    HW175092  10.254   9.841  12.804
91065SOL    HW275093  10.372   9.861  12.712
91066SOL     OW75094  14.500   7.802   3.452
91066SOL    HW175095  14.567   7.809   3.383
91066SOL    HW275096  14.517   7.717   3.493
91067SOL     OW75097   8.768  11.175  11.767
91067SOL    HW175098   8.715  11.239  11.816
91067SOL    HW275099   8.845  11.160  11.822
91068SOL     OW75100  10.611   2.566  10.096
91068SOL    HW175101  10.611   2.643  10.153
91068SOL    HW275102  10.681   2.510  10.132
91069SOL     OW75103   7.190   7.501  12.236
91069SOL    HW175104   7.121   7.552  12.278
91069SOL    HW275105   7.149   7.418  12.214
91070SOL     OW75106   6.629   1.141   5.384
91070SOL    HW175107   6.672   1.171   5.304
91070SOL    HW275108   6.539   1.174   5.377
91071SOL     OW75109  14.355   3.587  11.954
91071SOL    HW175110  14.340   3.493  11.968
91071SOL    HW275111  14.436   3.605  12.001
91072SOL     OW75112   5.973  13.038   8.282
91072SOL    HW175113   6.017  12.953   8.280
91072SOL    HW275114   6.035  13.097   8.324
91073SOL     OW75115  12.443   3.814   4.835
91073SOL    HW175116  12.401   3.761   4.768
91073SOL    HW275117  12.421   3.905   4.812
91074SOL     OW75118  14.143   8.507  13.906
91074SOL    HW175119  14.110   8.485  13.818
91074SOL    HW275120  14.075   8.563  13.943
91075SOL     OW75121   1.271   3.249   2.177
91075SOL    HW175122   1.237   3.223   2.263
91075SOL    HW275123   1.193   3.251   2.121
91076SOL     OW75124   0.857   1.019   9.191
91076SOL    HW175125   0.798   0.997   9.118
91076SOL    HW275126   0.801   1.066   9.253
91077SOL     OW75127   2.783   6.339  14.661
91077SOL    HW175128   2.751   6.429  14.653
91077SOL    HW275129   2.721   6.286  14.611
91078SOL     OW75130   0.005  11.839   7.559
91078SOL    HW175131   0.036  11.838   7.649
91078SOL    HW275132  14.812  11.898   7.560
91079SOL     OW75133  13.775   3.188   9.475
91079SOL    HW175134  13.756   3.113   9.530
91079SOL    HW275135  13.849   3.160   9.420
91080SOL     OW75136  11.770  12.590   4.072
91080SOL    HW175137  11.685  12.633   4.062
91080SOL    HW275138  11.781  12.581   4.167
91081SOL     OW75139   9.550   0.100   8.286
91081SOL    HW175140   9.511   0.032   8.231
91081SOL    HW275141   9.491   0.105   8.361
91082SOL     OW75142  11.532   6.502   6.557
91082SOL    HW175143  11.457   6.556   6.532
91082SOL    HW275144  11.601   6.565   6.577
91083SOL     OW75145   5.389   4.125   8.774
91083SOL    HW175146   5.402   4.119   8.680
91083SOL    HW275147   5.406   4.037   8.807
91084SOL     OW75148  10.310   2.714   5.160
91084SOL    HW175149  10.231   2.672   5.195
91084SOL    HW275150  10.302   2.806   5.185
91085SOL     OW75151   3.086   6.233   5.765
91085SOL    HW175152   3.065   6.141   5.756
91085SOL    HW275153   3.010   6.271   5.808
91086SOL     OW75154  10.175  11.715  12.433
91086SOL    HW175155  10.113  11.647  12.406
91086SOL    HW275156  10.261  11.677  12.419
91087SOL     OW75157   0.966   4.764   5.801
91087SOL    HW175158   0.951   4.736   5.891
91087SOL    HW275159   0.942   4.688   5.748
91088SOL     OW75160   5.923   1.794   3.334
91088SOL    HW175161   5.977   1.715   3.322
91088SOL    HW275162   5.900   1.792   3.427
91089SOL     OW75163   2.218   1.971  10.716
91089SOL    HW175164   2.130   1.982  10.681
91089SOL    HW275165   2.260   2.056  10.705
91090SOL     OW75166   9.918   8.445   0.875
91090SOL    HW175167   9.989   8.509   0.862
91090SOL    HW275168   9.899   8.412   0.788
91091SOL     OW75169   4.862   2.383  14.551
91091SOL    HW175170   4.864   2.288  14.566
91091SOL    HW275171   4.773   2.401  14.523
91092SOL     OW75172   5.962   5.095   7.145
91092SOL    HW175173   5.973   5.008   7.182
91092SOL    HW275174   5.877   5.125   7.178
91093SOL     OW75175  12.493   4.944   2.059
91093SOL    HW175176  12.553   4.917   2.130
91093SOL    HW275177  12.518   5.035   2.041
91094SOL     OW75178  13.305   2.036   8.437
91094SOL    HW175179  13.396   2.010   8.418
91094SOL    HW275180  13.254   1.998   8.365
91095SOL     OW75181  13.128   1.224   5.990
91095SOL    HW175182  13.176   1.189   5.915
91095SOL    HW275183  13.043   1.249   5.955
91096SOL     OW75184  11.717  10.386   4.970
91096SOL    HW175185  11.731  10.297   4.940
91096SOL    HW275186  11.641  10.380   5.028
91097SOL     OW75187  11.074   3.286   9.270
91097SOL    HW175188  11.069   3.380   9.251
91097SOL    HW275189  10.983   3.256   9.267
91098SOL     OW75190  14.610   1.812   3.942
91098SOL    HW175191  14.703   1.792   3.958
91098SOL    HW275192  14.603   1.906   3.956
91099SOL     OW75193   8.571  14.184  11.452
91099SOL    HW175194   8.532  14.153  11.370
91099SOL    HW275195   8.619  14.263  11.428
91100SOL     OW75196  14.508   9.014   9.849
91100SOL    HW175197  14.600   8.998   9.869
91100SOL    HW275198  14.510   9.066   9.769
91101SOL     OW75199   2.763   4.154   7.127
91101SOL    HW175200   2.789   4.207   7.051
91101SOL    HW275201   2.709   4.212   7.180
91102SOL     OW75202   5.326  14.051   2.236
91102SOL    HW175203   5.311  14.146   2.246
91102SOL    HW275204   5.330  14.018   2.326
91103SOL     OW75205   0.371  13.487   0.114
91103SOL    HW175206   0.458  13.447   0.117
91103SOL    HW275207   0.311  13.412   0.110
91104SOL     OW75208   4.827   7.008   6.711
91104SOL    HW175209   4.912   7.022   6.752
91104SOL    HW275210   4.801   7.094   6.679
91105SOL     OW75211  10.689   5.565   9.705
91105SOL    HW175212  10.628   5.559   9.632
91105SOL    HW275213  10.766   5.516   9.676
91106SOL     OW75214  11.484   9.770   2.835
91106SOL    HW175215  11.545   9.828   2.790
91106SOL    HW275216  11.469   9.812   2.920
91107SOL     OW75217  10.059   7.179   1.290
91107SOL    HW175218   9.975   7.224   1.285
91107SOL    HW275219  10.124   7.247   1.271
91108SOL     OW75220  12.709   2.350   6.424
91108SOL    HW175221  12.664   2.414   6.369
91108SOL    HW275222  12.640   2.291   6.454
91109SOL     OW75223   6.650   7.555   2.672
91109SOL    HW175224   6.726   7.549   2.614
91109SOL    HW275225   6.677   7.506   2.750
91110SOL     OW75226  14.243  12.252   3.171
91110SOL    HW175227  14.218  12.235   3.081
91110SOL    HW275228  14.315  12.191   3.188
91111SOL     OW75229   9.911  11.700   6.976
91111SOL    HW175230   9.970  11.650   6.920
91111SOL    HW275231   9.968  11.742   7.041
91112SOL     OW75232   0.042   9.285   6.823
91112SOL    HW175233  14.848   9.341   6.838
91112SOL    HW275234   0.113   9.346   6.803
91113SOL     OW75235   8.884   9.620   9.729
91113SOL    HW175236   8.846   9.532   9.733
91113SOL    HW275237   8.809   9.678   9.715
91114SOL     OW75238  12.241   3.739   1.546
91114SOL    HW175239  12.193   3.820   1.527
91114SOL    HW275240  12.198   3.702   1.623
91115SOL     OW75241   7.158   4.520   8.061
91115SOL    HW175242   7.151   4.586   8.129
91115SOL    HW275243   7.132   4.565   7.980
91116SOL     OW75244   5.667   1.904  13.683
91116SOL    HW175245   5.593   1.902  13.622
91116SOL    HW275246   5.683   1.812  13.704
91117SOL     OW75247  13.641  11.835   1.874
91117SOL    HW175248  13.719  11.860   1.923
91117SOL    HW275249  13.580  11.801   1.940
91118SOL     OW75250  10.514  11.851   9.161
91118SOL    HW175251  10.504  11.837   9.067
91118SOL    HW275252  10.544  11.942   9.169
91119SOL     OW75253   6.386   7.910   3.623
91119SOL    HW175254   6.367   7.969   3.550
91119SOL    HW275255   6.465   7.863   3.595
91120SOL     OW75256  11.893   5.872   7.409
91120SOL    HW175257  11.842   5.908   7.336
91120SOL    HW275258  11.828   5.830   7.465
91121SOL     OW75259  13.145   6.751   6.614
91121SOL    HW175260  13.240   6.761   6.625
91121SOL    HW275261  13.108   6.829   6.656
91122SOL     OW75262   4.543   0.718   1.951
91122SOL    HW175263   4.497   0.659   1.891
91122SOL    HW275264   4.479   0.786   1.972
91123SOL     OW75265   3.520  10.755   2.962
91123SOL    HW175266   3.534  10.816   3.035
91123SOL    HW275267   3.468  10.684   3.000
91124SOL     OW75268   4.220  10.939   9.608
91124SOL    HW175269   4.198  10.974   9.694
91124SOL    HW275270   4.313  10.960   9.597
91125SOL     OW75271   5.937   6.353   3.707
91125SOL    HW175272   5.908   6.333   3.619
91125SOL    HW275273   5.884   6.429   3.733
91126SOL     OW75274   1.039   0.158  10.488
91126SOL    HW175275   0.951   0.196  10.490
91126SOL    HW275276   1.026   0.067  10.514
91127SOL     OW75277   4.095  14.531   5.698
91127SOL    HW175278   4.174  14.524   5.645
91127SOL    HW275279   4.031  14.476   5.653
91128SOL     OW75280   1.603  10.512   7.746
91128SOL    HW175281   1.664  10.469   7.806
91128SOL    HW275282   1.650  10.590   7.716
91129SOL     OW75283   9.259   6.708   2.844
91129SOL    HW175284   9.338   6.662   2.871
91129SOL    HW275285   9.286   6.758   2.767
91130SOL     OW75286   0.572  10.147  11.776
91130SOL    HW175287   0.563  10.212  11.846
91130SOL    HW275288   0.483  10.138  11.741
91131SOL     OW75289   1.323   6.646  12.927
91131SOL    HW175290   1.271   6.695  12.991
91131SOL    HW275291   1.352   6.567  12.974
91132SOL     OW75292  12.501   9.103  10.655
91132SOL    HW175293  12.507   9.061  10.741
91132SOL    HW275294  12.443   9.178  10.669
91133SOL     OW75295   5.289  13.448  14.343
91133SOL    HW175296   5.290  13.532  14.298
91133SOL    HW275297   5.201  13.441  14.379
91134SOL     OW75298  13.083  11.311  14.032
91134SOL    HW175299  13.104  11.234  13.980
91134SOL    HW275300  13.085  11.280  14.123
91135SOL     OW75301   8.980   4.428  11.305
91135SOL    HW175302   9.013   4.431  11.215
91135SOL    HW275303   8.962   4.519  11.328
91136SOL     OW75304   3.159   0.047   8.130
91136SOL    HW175305   3.108  14.877   8.192
91136SOL    HW275306   3.250   0.024   8.147
91137SOL     OW75307  12.544  10.248   6.369
91137SOL    HW175308  12.501  10.166   6.345
91137SOL    HW275309  12.627  10.245   6.322
91138SOL     OW75310   0.054   5.969   4.957
91138SOL    HW175311   0.100   5.967   5.041
91138SOL    HW275312  14.867   6.034   4.969
91139SOL     OW75313   2.035   0.005   7.577
91139SOL    HW175314   2.013  14.796   7.557
91139SOL    HW275315   2.130   0.010   7.564
91140SOL     OW75316   3.640   5.372   7.453
91140SOL    HW175317   3.694   5.298   7.424
91140SOL    HW275318   3.640   5.365   7.549
91141SOL     OW75319  14.052  12.700  12.346
91141SOL    HW175320  14.057  12.672  12.254
91141SOL    HW275321  14.135  12.671  12.384
91142SOL     OW75322  11.975   5.344   7.450
91142SOL    HW175323  11.993   5.341   7.544
91142SOL    HW275324  11.956   5.253   7.427
91143SOL     OW75325  13.160  11.057  11.138
91143SOL    HW175326  13.169  10.965  11.162
91143SOL    HW275327  13.155  11.056  11.042
91144SOL     OW75328   4.703   2.885  10.872
91144SOL    HW175329   4.668   2.799  10.846
91144SOL    HW275330   4.695   2.939  10.793
91145SOL     OW75331  12.152   1.125   0.099
91145SOL    HW175332  12.156   1.079   0.182
91145SOL    HW275333  12.171   1.216   0.121
91146SOL     OW75334  14.166  10.504  10.613
91146SOL    HW175335  14.089  10.494  10.668
91146SOL    HW275336  14.203  10.589  10.637
91147SOL     OW75337  12.936  14.102   2.203
91147SOL    HW175338  12.876  14.127   2.273
91147SOL    HW275339  12.920  14.167   2.134
91148SOL     OW75340   3.411   6.253  10.197
91148SOL    HW175341   3.444   6.268  10.108
91148SOL    HW275342   3.322   6.290  10.195
91149SOL     OW75343   7.278   9.960  14.665
91149SOL    HW175344   7.361  10.007  14.669
91149SOL    HW275345   7.262   9.947  14.571
91150SOL     OW75346   4.758  13.564   5.236
91150SOL    HW175347   4.846  13.596   5.214
91150SOL    HW275348   4.760  13.552   5.331
91151SOL     OW75349   1.633   0.321  14.174
91151SOL    HW175350   1.558   0.298  14.119
91151SOL    HW275351   1.632   0.417  14.177
91152SOL     OW75352  14.854  13.064   7.327
91152SOL    HW175353   0.061  13.079   7.297
91152SOL    HW275354  14.799  13.097   7.256
91153SOL     OW75355   8.884   0.793   1.399
91153SOL    HW175356   8.929   0.730   1.343
91153SOL    HW275357   8.857   0.742   1.476
91154SOL     OW75358   1.092   7.666   8.146
91154SOL    HW175359   1.016   7.613   8.168
91154SOL    HW275360   1.167   7.611   8.170
91155SOL     OW75361   2.071  13.283   1.487
91155SOL    HW175362   2.139  13.335   1.530
91155SOL    HW275363   1.994  13.293   1.544
91156SOL     OW75364   5.803   4.195   4.598
91156SOL    HW175365   5.871   4.154   4.545
91156SOL    HW275366   5.738   4.225   4.534
91157SOL     OW75367   5.149   8.402   8.780
91157SOL    HW175368   5.205   8.345   8.727
91157SOL    HW275369   5.190   8.489   8.772
91158SOL     OW75370   8.161   5.255   6.502
91158SOL    HW175371   8.168   5.349   6.489
91158SOL    HW275372   8.230   5.235   6.565
91159SOL     OW75373  13.385   2.630  13.441
91159SOL    HW175374  13.428   2.694  13.497
91159SOL    HW275375  13.442   2.553  13.444
91160SOL     OW75376   7.563   5.141   0.434
91160SOL    HW175377   7.503   5.159   0.362
91160SOL    HW275378   7.509   5.102   0.502
91161SOL     OW75379   6.493  14.226   9.297
91161SOL    HW175380   6.500  14.144   9.247
91161SOL    HW275381   6.409  14.219   9.342
91162SOL     OW75382   7.893   4.549   3.932
91162SOL    HW175383   7.951   4.625   3.934
91162SOL    HW275384   7.805   4.587   3.921
91163SOL     OW75385  12.430   2.213   1.633
91163SOL    HW175386  12.470   2.169   1.558
91163SOL    HW275387  12.485   2.290   1.648
91164SOL     OW75388   7.086   7.777   0.194
91164SOL    HW175389   7.114   7.710   0.257
91164SOL    HW275390   7.024   7.731   0.137
91165SOL     OW75391   3.633   5.190   9.798
91165SOL    HW175392   3.616   5.284   9.798
91165SOL    HW275393   3.669   5.172   9.885
91166SOL     OW75394   6.610  12.943   2.433
91166SOL    HW175395   6.705  12.945   2.419
91166SOL    HW275396   6.576  12.894   2.358
91167SOL     OW75397   7.358   0.482   0.901
91167SOL    HW175398   7.370   0.495   0.807
91167SOL    HW275399   7.443   0.451   0.932
91168SOL     OW75400   4.593   4.165   6.548
91168SOL    HW175401   4.501   4.191   6.545
91168SOL    HW275402   4.632   4.204   6.469
91169SOL     OW75403   5.294  10.338   8.760
91169SOL    HW175404   5.309  10.263   8.703
91169SOL    HW275405   5.272  10.299   8.845
91170SOL     OW75406   7.295  12.728  10.604
91170SOL    HW175407   7.214  12.681  10.584
91170SOL    HW275408   7.300  12.797  10.538
91171SOL     OW75409  12.491  13.022   3.374
91171SOL    HW175410  12.426  12.951   3.371
91171SOL    HW275411  12.447  13.093   3.420
91172SOL     OW75412   0.401  14.751   7.907
91172SOL    HW175413   0.476  14.811   7.908
91172SOL    HW275414   0.326  14.806   7.928
91173SOL     OW75415   6.297   6.341   7.278
91173SOL    HW175416   6.320   6.255   7.244
91173SOL    HW275417   6.310   6.400   7.204
91174SOL     OW75418   5.159   5.645  11.112
91174SOL    HW175419   5.076   5.602  11.090
91174SOL    HW275420   5.226   5.581  11.088
91175SOL     OW75421   1.031   7.978   0.295
91175SOL    HW175422   1.060   8.026   0.373
91175SOL    HW275423   1.096   7.908   0.284
91176SOL     OW75424   7.220   4.671  14.304
91176SOL    HW175425   7.259   4.690  14.389
91176SOL    HW275426   7.176   4.752  14.279
91177SOL     OW75427   6.327  12.131  11.100
91177SOL    HW175428   6.294  12.041  11.102
91177SOL    HW275429   6.322  12.160  11.191
91178SOL     OW75430   9.789   9.619   5.986
91178SOL    HW175431   9.727   9.635   5.915
91178SOL    HW275432   9.742   9.643   6.066
91179SOL     OW75433  12.663   1.663   2.872
91179SOL    HW175434  12.715   1.692   2.798
91179SOL    HW275435  12.695   1.714   2.946
91180SOL     OW75436   4.186   9.354   5.975
91180SOL    HW175437   4.102   9.333   5.936
91180SOL    HW275438   4.171   9.345   6.070
91181SOL     OW75439   9.474   7.412   4.722
91181SOL    HW175440   9.484   7.369   4.637
91181SOL    HW275441   9.557   7.459   4.735
91182SOL     OW75442   5.469   9.087   0.857
91182SOL    HW175443   5.450   9.022   0.790
91182SOL    HW275444   5.433   9.168   0.823
91183SOL     OW75445  14.475  12.304  10.350
91183SOL    HW175446  14.447  12.266  10.433
91183SOL    HW275447  14.396  12.344  10.314
91184SOL     OW75448   7.199   9.560   8.538
91184SOL    HW175449   7.279   9.557   8.485
91184SOL    HW275450   7.208   9.640   8.589
91185SOL     OW75451  14.244  12.976   0.608
91185SOL    HW175452  14.261  12.895   0.657
91185SOL    HW275453  14.318  12.984   0.548
91186SOL     OW75454   9.071   3.482   5.104
91186SOL    HW175455   9.119   3.417   5.053
91186SOL    HW275456   9.119   3.489   5.186
91187SOL     OW75457   4.757  10.075   0.712
91187SOL    HW175458   4.801  10.073   0.797
91187SOL    HW275459   4.665  10.059   0.733
91188SOL     OW75460   7.509  13.852   8.193
91188SOL    HW175461   7.501  13.788   8.122
91188SOL    HW275462   7.420  13.881   8.210
91189SOL     OW75463  10.527  11.675   8.038
91189SOL    HW175464  10.461  11.725   8.087
91189SOL    HW275465  10.482  11.595   8.011
91190SOL     OW75466  14.715  11.494   3.039
91190SOL    HW175467  14.717  11.469   3.132
91190SOL    HW275468  14.626  11.528   3.026
91191SOL     OW75469   0.465   4.155  14.719
91191SOL    HW175470   0.555   4.164  14.686
91191SOL    HW275471   0.411   4.153  14.640
91192SOL     OW75472  13.052   2.553   0.876
91192SOL    HW175473  13.130   2.513   0.914
91192SOL    HW275474  13.083   2.590   0.793
91193SOL     OW75475  13.568   1.781   6.933
91193SOL    HW175476  13.638   1.716   6.935
91193SOL    HW275477  13.566   1.811   6.842
91194SOL     OW75478   1.526   7.675   5.910
91194SOL    HW175479   1.474   7.646   5.835
91194SOL    HW275480   1.466   7.671   5.984
91195SOL     OW75481   7.755   6.374   9.852
91195SOL    HW175482   7.697   6.302   9.877
91195SOL    HW275483   7.709   6.419   9.782
91196SOL     OW75484   8.495  12.761   7.003
91196SOL    HW175485   8.570  12.788   6.950
91196SOL    HW275486   8.436  12.836   7.001
91197SOL     OW75487  12.187   4.163  13.749
91197SOL    HW175488  12.260   4.221  13.774
91197SOL    HW275489  12.162   4.120  13.830
91198SOL     OW75490   7.292   4.641   1.979
91198SOL    HW175491   7.387   4.643   1.991
91198SOL    HW275492   7.273   4.721   1.929
91199SOL     OW75493   1.760   1.167   8.999
91199SOL    HW175494   1.745   1.086   9.048
91199SOL    HW275495   1.737   1.144   8.909
91200SOL     OW75496   3.564  13.755   0.635
91200SOL    HW175497   3.549  13.688   0.568
91200SOL    HW275498   3.628  13.815   0.597
91201SOL     OW75499   3.894   0.335   5.027
91201SOL    HW175500   3.853   0.369   4.947
91201SOL    HW275501   3.936   0.253   4.999
91202SOL     OW75502   4.686   8.613   1.203
91202SOL    HW175503   4.665   8.621   1.296
91202SOL    HW275504   4.660   8.524   1.180
91203SOL     OW75505  11.271   2.203   3.766
91203SOL    HW175506  11.288   2.295   3.784
91203SOL    HW275507  11.354   2.159   3.781
91204SOL     OW75508  12.372   9.927   3.017
91204SOL    HW175509  12.323   9.905   2.938
91204SOL    HW275510  12.343   9.862   3.082
91205SOL     OW75511   8.617   7.442   3.945
91205SOL    HW175512   8.636   7.359   3.989
91205SOL    HW275513   8.668   7.439   3.864
91206SOL     OW75514   6.197   4.069   4.378
91206SOL    HW175515   6.272   4.107   4.425
91206SOL    HW275516   6.236   4.029   4.301
91207SOL     OW75517  12.467   2.591   8.860
91207SOL    HW175518  12.532   2.649   8.820
91207SOL    HW275519  12.383   2.636   8.846
91208SOL     OW75520   2.791   8.234  11.738
91208SOL    HW175521   2.816   8.305  11.796
91208SOL    HW275522   2.700   8.253  11.715
91209SOL     OW75523   0.065   5.209   0.420
91209SOL    HW175524   0.101   5.120   0.419
91209SOL    HW275525  14.855   5.198   0.396
91210SOL     OW75526   0.180  14.630   6.226
91210SOL    HW175527   0.166  14.694   6.156
91210SOL    HW275528   0.253  14.576   6.195
91211SOL     OW75529  13.567   0.337   5.057
91211SOL    HW175530  13.516   0.405   5.100
91211SOL    HW275531  13.638   0.385   5.013
91212SOL     OW75532  12.112   7.088   4.857
91212SOL    HW175533  12.199   7.065   4.824
91212SOL    HW275534  12.113   7.183   4.864
91213SOL     OW75535   6.768   5.844   2.277
91213SOL    HW175536   6.775   5.910   2.346
91213SOL    HW275537   6.684   5.862   2.236
91214SOL     OW75538  13.226   2.076   0.317
91214SOL    HW175539  13.179   2.009   0.267
91214SOL    HW275540  13.278   2.027   0.380
91215SOL     OW75541  11.096   1.503   8.553
91215SOL    HW175542  11.046   1.491   8.472
91215SOL    HW275543  11.091   1.597   8.571
91216SOL     OW75544  13.877  10.456   2.417
91216SOL    HW175545  13.811  10.525   2.413
91216SOL    HW275546  13.932  10.480   2.492
91217SOL     OW75547  10.395  11.922  11.465
91217SOL    HW175548  10.432  11.973  11.537
91217SOL    HW275549  10.453  11.846  11.456
91218SOL     OW75550   4.131  13.738   5.249
91218SOL    HW175551   4.208  13.766   5.298
91218SOL    HW275552   4.057  13.767   5.302
91219SOL     OW75553   4.660  10.119  12.817
91219SOL    HW175554   4.751  10.111  12.786
91219SOL    HW275555   4.642  10.213  12.812
91220SOL     OW75556  12.560   2.254   5.970
91220SOL    HW175557  12.643   2.301   5.973
91220SOL    HW275558  12.510   2.288   6.044
91221SOL     OW75559   8.713   2.210   1.538
91221SOL    HW175560   8.744   2.151   1.469
91221SOL    HW275561   8.709   2.156   1.616
91222SOL     OW75562   5.380   0.811   9.141
91222SOL    HW175563   5.398   0.742   9.205
91222SOL    HW275564   5.291   0.793   9.112
91223SOL     OW75565   0.623   2.142   0.754
91223SOL    HW175566   0.543   2.172   0.798
91223SOL    HW275567   0.632   2.051   0.782
91224SOL     OW75568   7.018   9.158   2.658
91224SOL    HW175569   6.933   9.196   2.679
91224SOL    HW275570   7.011   9.130   2.567
91225SOL     OW75571  14.122   5.974  13.813
91225SOL    HW175572  14.146   6.047  13.755
91225SOL    HW275573  14.027   5.969  13.808
91226SOL     OW75574  14.857   6.188  12.502
91226SOL    HW175575   0.010   6.153  12.584
91226SOL    HW275576  14.763   6.199  12.518
91227SOL     OW75577  13.828   3.209  14.134
91227SOL    HW175578  13.744   3.249  14.110
91227SOL    HW275579  13.852   3.157  14.057
91228SOL     OW75580   6.733  13.659   2.812
91228SOL    HW175581   6.687  13.741   2.795
91228SOL    HW275582   6.667  13.591   2.799
91229SOL     OW75583  12.712   3.669   0.782
91229SOL    HW175584  12.640   3.691   0.723
91229SOL    HW275585  12.682   3.590   0.829
91230SOL     OW75586  14.338   6.153   6.655
91230SOL    HW175587  14.247   6.181   6.662
91230SOL    HW275588  14.367   6.141   6.745
91231SOL     OW75589   2.374   2.266   3.275
91231SOL    HW175590   2.429   2.188   3.263
91231SOL    HW275591   2.389   2.292   3.366
91232SOL     OW75592   5.551   0.238   9.537
91232SOL    HW175593   5.611   0.163   9.545
91232SOL    HW275594   5.525   0.257   9.627
91233SOL     OW75595  11.099   6.280   8.406
91233SOL    HW175596  11.121   6.355   8.460
91233SOL    HW275597  11.074   6.317   8.322
91234SOL     OW75598   2.477  14.430   8.589
91234SOL    HW175599   2.411  14.387   8.644
91234SOL    HW275600   2.443  14.519   8.578
91235SOL     OW75601  12.562   5.017  11.922
91235SOL    HW175602  12.478   4.976  11.898
91235SOL    HW275603  12.603   4.954  11.981
91236SOL     OW75604   1.629   3.649   0.832
91236SOL    HW175605   1.625   3.653   0.736
91236SOL    HW275606   1.604   3.737   0.861
91237SOL     OW75607   8.466  13.595   9.134
91237SOL    HW175608   8.441  13.503   9.135
91237SOL    HW275609   8.540  13.601   9.194
91238SOL     OW75610  12.096  11.971   0.110
91238SOL    HW175611  12.063  11.917   0.182
91238SOL    HW275612  12.167  12.022   0.150
91239SOL     OW75613  11.070  12.391   8.719
91239SOL    HW175614  11.078  12.455   8.648
91239SOL    HW275615  11.007  12.327   8.687
91240SOL     OW75616   8.135   3.465   3.018
91240SOL    HW175617   8.159   3.472   3.110
91240SOL    HW275618   8.136   3.371   3.000
91241SOL     OW75619   2.484   0.652   2.740
91241SOL    HW175620   2.432   0.581   2.778
91241SOL    HW275621   2.572   0.616   2.731
91242SOL     OW75622  10.527   6.311   5.067
91242SOL    HW175623  10.507   6.367   5.142
91242SOL    HW275624  10.442   6.294   5.025
91243SOL     OW75625   3.987   8.655  14.274
91243SOL    HW175626   4.052   8.611  14.328
91243SOL    HW275627   4.024   8.742  14.258
91244SOL     OW75628   2.542  13.308  12.440
91244SOL    HW175629   2.448  13.307  12.425
91244SOL    HW275630   2.575  13.231  12.393
91245SOL     OW75631   2.598  10.236   2.126
91245SOL    HW175632   2.525  10.218   2.185
91245SOL    HW275633   2.573  10.316   2.080
91246SOL     OW75634  10.297   8.600   5.617
91246SOL    HW175635  10.258   8.535   5.676
91246SOL    HW275636  10.243   8.678   5.629
91247SOL     OW75637  12.833   7.642   2.851
91247SOL    HW175638  12.771   7.713   2.834
91247SOL    HW275639  12.808   7.574   2.788
91248SOL     OW75640   2.957   8.982   9.200
91248SOL    HW175641   2.917   9.042   9.136
91248SOL    HW275642   2.972   9.037   9.277
91249SOL     OW75643  12.916  13.977   6.999
91249SOL    HW175644  12.923  14.073   7.001
91249SOL    HW275645  12.986  13.947   7.056
91250SOL     OW75646   2.623   2.751  11.431
91250SOL    HW175647   2.611   2.725  11.340
91250SOL    HW275648   2.557   2.700  11.479
91251SOL     OW75649   4.586   0.511  13.261
91251SOL    HW175650   4.620   0.422  13.270
91251SOL    HW275651   4.641   0.564  13.320
91252SOL     OW75652   5.216  10.268  10.608
91252SOL    HW175653   5.174  10.255  10.523
91252SOL    HW275654   5.188  10.355  10.637
91253SOL     OW75655   5.149   9.046   4.903
91253SOL    HW175656   5.185   8.990   4.835
91253SOL    HW275657   5.205   9.032   4.979
91254SOL     OW75658   5.182  13.370  13.878
91254SOL    HW175659   5.195  13.281  13.843
91254SOL    HW275660   5.089  13.375  13.898
91255SOL     OW75661  14.301   7.379   5.377
91255SOL    HW175662  14.375   7.405   5.322
91255SOL    HW275663  14.281   7.289   5.350
91256SOL     OW75664   0.247   3.627   7.683
91256SOL    HW175665   0.180   3.692   7.703
91256SOL    HW275666   0.329   3.677   7.686
91257SOL     OW75667   7.832   7.121  10.902
91257SOL    HW175668   7.829   7.215  10.922
91257SOL    HW275669   7.825   7.117  10.807
91258SOL     OW75670   6.867   7.688   3.628
91258SOL    HW175671   6.933   7.691   3.697
91258SOL    HW275672   6.915   7.710   3.548
91259SOL     OW75673   1.717   8.101   7.864
91259SOL    HW175674   1.675   8.015   7.862
91259SOL    HW275675   1.696   8.140   7.780
91260SOL     OW75676   6.929  14.814   8.167
91260SOL    HW175677   6.843  14.777   8.146
91260SOL    HW275678   6.990  14.762   8.115
91261SOL     OW75679   5.748   7.641   9.963
91261SOL    HW175680   5.810   7.600   9.902
91261SOL    HW275681   5.662   7.609   9.935
91262SOL     OW75682  13.726   2.937   2.978
91262SOL    HW175683  13.648   2.982   2.946
91262SOL    HW275684  13.756   2.991   3.052
91263SOL     OW75685   7.553  12.980  10.091
91263SOL    HW175686   7.507  12.984  10.007
91263SOL    HW275687   7.612  13.055  10.089
91264SOL     OW75688   4.700   6.221  13.419
91264SOL    HW175689   4.679   6.262  13.503
91264SOL    HW275690   4.678   6.128  13.433
91265SOL     OW75691   0.922   9.621   2.654
91265SOL    HW175692   0.897   9.673   2.577
91265SOL    HW275693   0.839   9.600   2.696
91266SOL     OW75694   6.009   7.161   1.647
91266SOL    HW175695   6.052   7.180   1.731
91266SOL    HW275696   6.063   7.092   1.607
91267SOL     OW75697   0.449  12.159  13.895
91267SOL    HW175698   0.533  12.169  13.941
91267SOL    HW275699   0.471  12.179  13.804
91268SOL     OW75700   2.523   0.289   9.487
91268SOL    HW175701   2.579   0.259   9.560
91268SOL    HW275702   2.585   0.315   9.419
91269SOL     OW75703   2.261   0.111  13.762
91269SOL    HW175704   2.347   0.104  13.805
91269SOL    HW275705   2.257   0.201  13.731
91270SOL     OW75706  14.877   3.100   5.058
91270SOL    HW175707   0.063   3.103   5.124
91270SOL    HW275708   0.020   3.167   4.994
91271SOL     OW75709   6.715   9.109   5.913
91271SOL    HW175710   6.804   9.141   5.894
91271SOL    HW275711   6.729   9.029   5.963
91272SOL     OW75712  13.740  14.163  13.323
91272SOL    HW175713  13.829  14.194  13.308
91272SOL    HW275714  13.727  14.171  13.418
91273SOL     OW75715  10.309  13.298   4.656
91273SOL    HW175716  10.308  13.379   4.605
91273SOL    HW275717  10.332  13.230   4.592
91274SOL     OW75718  12.129  14.481  10.809
91274SOL    HW175719  12.156  14.572  10.798
91274SOL    HW275720  12.145  14.440  10.725
91275SOL     OW75721   9.070  10.416   2.380
91275SOL    HW175722   9.078  10.501   2.424
91275SOL    HW275723   9.150  10.409   2.328
91276SOL     OW75724  10.277  14.628   8.550
91276SOL    HW175725  10.353  14.657   8.601
91276SOL    HW275726  10.218  14.589   8.615
91277SOL     OW75727   2.657   4.534   2.106
91277SOL    HW175728   2.573   4.564   2.141
91277SOL    HW275729   2.651   4.439   2.107
91278SOL     OW75730  10.657   6.984   2.872
91278SOL    HW175731  10.594   6.962   2.803
91278SOL    HW275732  10.662   6.906   2.926
91279SOL     OW75733  11.114   0.113   5.723
91279SOL    HW175734  11.126   0.095   5.630
91279SOL    HW275735  11.020   0.130   5.732
91280SOL     OW75736  12.008   9.926   0.303
91280SOL    HW175737  11.943   9.993   0.279
91280SOL    HW275738  12.035   9.949   0.392
91281SOL     OW75739   8.865   2.245   0.709
91281SOL    HW175740   8.861   2.156   0.744
91281SOL    HW275741   8.957   2.259   0.688
91282SOL     OW75742  14.592   4.941   5.691
91282SOL    HW175743  14.593   4.849   5.715
91282SOL    HW275744  14.542   4.944   5.609
91283SOL     OW75745   4.283  12.533   0.506
91283SOL    HW175746   4.246  12.597   0.567
91283SOL    HW275747   4.352  12.489   0.557
91284SOL     OW75748  11.458  11.870   1.951
91284SOL    HW175749  11.395  11.825   2.007
91284SOL    HW275750  11.404  11.911   1.883
91285SOL     OW75751   2.958  14.526   7.985
91285SOL    HW175752   2.900  14.535   8.061
91285SOL    HW275753   3.020  14.599   7.994
91286SOL     OW75754  13.139   9.280   3.635
91286SOL    HW175755  13.069   9.220   3.660
91286SOL    HW275756  13.218   9.226   3.630
91287SOL     OW75757   1.194   8.957   9.986
91287SOL    HW175758   1.233   8.918  10.064
91287SOL    HW275759   1.100   8.952  10.000
91288SOL     OW75760  10.120   1.228   5.245
91288SOL    HW175761  10.155   1.282   5.174
91288SOL    HW275762  10.144   1.275   5.325
91289SOL     OW75763  12.699   1.900   2.271
91289SOL    HW175764  12.618   1.873   2.314
91289SOL    HW275765  12.671   1.937   2.188
91290SOL     OW75766   4.088  11.891   9.062
91290SOL    HW175767   4.045  11.931   8.986
91290SOL    HW275768   4.176  11.870   9.033
91291SOL     OW75769   8.739   5.470  10.412
91291SOL    HW175770   8.681   5.513  10.475
91291SOL    HW275771   8.687   5.398  10.377
91292SOL     OW75772   2.930  13.328  13.405
91292SOL    HW175773   2.861  13.278  13.448
91292SOL    HW275774   2.885  13.403  13.367
91293SOL     OW75775   4.441   1.448   3.713
91293SOL    HW175776   4.372   1.497   3.759
91293SOL    HW275777   4.502   1.422   3.783
91294SOL     OW75778  12.686   9.927  12.847
91294SOL    HW175779  12.699   9.973  12.764
91294SOL    HW275780  12.735   9.845  12.837
91295SOL     OW75781  11.544  13.576   2.359
91295SOL    HW175782  11.567  13.483   2.362
91295SOL    HW275783  11.451  13.579   2.385
91296SOL     OW75784  11.547   4.822  14.397
91296SOL    HW175785  11.636   4.802  14.365
91296SOL    HW275786  11.509   4.875  14.327
91297SOL     OW75787   6.552  10.472   2.881
91297SOL    HW175788   6.599  10.389   2.884
91297SOL    HW275789   6.535  10.494   2.973
91298SOL     OW75790  10.716   8.689   5.623
91298SOL    HW175791  10.728   8.639   5.542
91298SOL    HW275792  10.689   8.776   5.593
91299SOL     OW75793   8.196   8.117  13.218
91299SOL    HW175794   8.262   8.178  13.250
91299SOL    HW275795   8.160   8.160  13.141
91300SOL     OW75796   8.845   3.788   1.320
91300SOL    HW175797   8.873   3.699   1.302
91300SOL    HW275798   8.919   3.828   1.367
91301SOL     OW75799   0.977   5.653   5.958
91301SOL    HW175800   0.935   5.569   5.980
91301SOL    HW275801   1.051   5.658   6.018
91302SOL     OW75802   2.488  13.874   9.863
91302SOL    HW175803   2.576  13.910   9.853
91302SOL    HW275804   2.435  13.922   9.800
91303SOL     OW75805   1.242   5.762   8.644
91303SOL    HW175806   1.216   5.737   8.733
91303SOL    HW275807   1.174   5.821   8.614
91304SOL     OW75808  11.154   4.876  14.234
91304SOL    HW175809  11.195   4.933  14.299
91304SOL    HW275810  11.214   4.878  14.159
91305SOL     OW75811  11.023   6.365   2.959
91305SOL    HW175812  11.075   6.326   3.029
91305SOL    HW275813  11.086   6.415   2.907
91306SOL     OW75814  11.607   9.790   8.464
91306SOL    HW175815  11.540   9.734   8.505
91306SOL    HW275816  11.599   9.874   8.510
91307SOL     OW75817   6.622  11.981   1.476
91307SOL    HW175818   6.569  12.056   1.503
91307SOL    HW275819   6.608  11.915   1.544
91308SOL     OW75820   4.803   3.962  12.163
91308SOL    HW175821   4.862   3.999  12.228
91308SOL    HW275822   4.854   3.962  12.082
91309SOL     OW75823  14.639   8.990  14.534
91309SOL    HW175824  14.709   8.969  14.596
91309SOL    HW275825  14.574   8.920  14.546
91310SOL     OW75826   6.064  13.936   7.238
91310SOL    HW175827   6.078  13.843   7.219
91310SOL    HW275828   6.136  13.980   7.194
91311SOL     OW75829  12.413   4.586   9.735
91311SOL    HW175830  12.348   4.629   9.679
91311SOL    HW275831  12.367   4.571   9.817
91312SOL     OW75832  14.043   3.376   2.753
91312SOL    HW175833  14.047   3.283   2.777
91312SOL    HW275834  14.067   3.378   2.661
91313SOL     OW75835   5.649  13.647   9.961
91313SOL    HW175836   5.593  13.572   9.939
91313SOL    HW275837   5.692  13.621  10.042
91314SOL     OW75838  12.185   9.806   2.069
91314SOL    HW175839  12.128   9.738   2.035
91314SOL    HW275840  12.266   9.760   2.093
91315SOL     OW75841  13.733   6.409   5.532
91315SOL    HW175842  13.729   6.336   5.593
91315SOL    HW275843  13.799   6.468   5.569
91316SOL     OW75844   4.883   5.859   5.631
91316SOL    HW175845   4.889   5.937   5.685
91316SOL    HW275846   4.937   5.879   5.554
91317SOL     OW75847  10.757   8.476   5.085
91317SOL    HW175848  10.675   8.515   5.117
91317SOL    HW275849  10.776   8.406   5.148
91318SOL     OW75850  11.551   6.054   4.019
91318SOL    HW175851  11.589   6.072   3.933
91318SOL    HW275852  11.529   5.961   4.017
91319SOL     OW75853   2.069   2.695   7.455
91319SOL    HW175854   2.075   2.599   7.452
91319SOL    HW275855   2.103   2.719   7.541
91320SOL     OW75856   7.418   8.482   7.772
91320SOL    HW175857   7.376   8.554   7.725
91320SOL    HW275858   7.364   8.406   7.752
91321SOL     OW75859   7.963   2.112   1.354
91321SOL    HW175860   8.021   2.132   1.281
91321SOL    HW275861   7.982   2.179   1.419
91322SOL     OW75862  11.965   0.451  11.195
91322SOL    HW175863  11.948   0.517  11.128
91322SOL    HW275864  11.973   0.501  11.276
91323SOL     OW75865  13.355  12.691   4.728
91323SOL    HW175866  13.269  12.656   4.704
91323SOL    HW275867  13.346  12.786   4.714
91324SOL     OW75868   2.543   1.459  11.665
91324SOL    HW175869   2.459   1.492  11.698
91324SOL    HW275870   2.544   1.486  11.573
91325SOL     OW75871   1.877   9.420  14.863
91325SOL    HW175872   1.951   9.413   0.041
91325SOL    HW275873   1.833   9.502   0.007
91326SOL     OW75874   1.573   8.781   3.368
91326SOL    HW175875   1.556   8.712   3.433
91326SOL    HW275876   1.548   8.862   3.412
91327SOL     OW75877   0.449   9.267   6.795
91327SOL    HW175878   0.536   9.237   6.822
91327SOL    HW275879   0.396   9.187   6.791
91328SOL     OW75880   4.080   7.902   4.886
91328SOL    HW175881   4.080   7.856   4.802
91328SOL    HW275882   4.044   7.988   4.867
91329SOL     OW75883  10.776  12.940   5.746
91329SOL    HW175884  10.762  12.899   5.660
91329SOL    HW275885  10.832  12.879   5.793
91330SOL     OW75886   4.386   9.360   1.903
91330SOL    HW175887   4.308   9.410   1.925
91330SOL    HW275888   4.458   9.423   1.907
91331SOL     OW75889   2.295   5.306   3.108
91331SOL    HW175890   2.332   5.320   3.195
91331SOL    HW275891   2.369   5.322   3.048
91332SOL     OW75892  11.176   1.327   2.221
91332SOL    HW175893  11.200   1.251   2.169
91332SOL    HW275894  11.113   1.375   2.167
91333SOL     OW75895   6.127   9.061   5.216
91333SOL    HW175896   6.135   9.148   5.176
91333SOL    HW275897   6.213   9.044   5.253
91334SOL     OW75898   6.175   5.925   1.152
91334SOL    HW175899   6.246   5.871   1.188
91334SOL    HW275900   6.214   6.012   1.141
91335SOL     OW75901   4.341   8.911  11.604
91335SOL    HW175902   4.254   8.924  11.642
91335SOL    HW275903   4.330   8.838  11.543
91336SOL     OW75904   0.254  10.699  14.397
91336SOL    HW175905   0.184  10.652  14.444
91336SOL    HW275906   0.224  10.700  14.306
91337SOL     OW75907   7.190   6.793   0.612
91337SOL    HW175908   7.244   6.848   0.669
91337SOL    HW275909   7.103   6.796   0.652
91338SOL     OW75910   9.684   0.849   3.627
91338SOL    HW175911   9.713   0.860   3.536
91338SOL    HW275912   9.637   0.766   3.627
91339SOL     OW75913   9.543   0.772   9.183
91339SOL    HW175914   9.520   0.792   9.274
91339SOL    HW275915   9.624   0.721   9.189
91340SOL     OW75916   7.680  13.702  10.264
91340SOL    HW175917   7.747  13.744  10.210
91340SOL    HW275918   7.656  13.768  10.329
91341SOL     OW75919   4.691   9.763   8.539
91341SOL    HW175920   4.756   9.748   8.469
91341SOL    HW275921   4.742   9.761   8.620
91342SOL     OW75922  13.323  12.470  12.705
91342SOL    HW175923  13.346  12.378  12.688
91342SOL    HW275924  13.241  12.465  12.755
91343SOL     OW75925   9.835   1.198   5.539
91343SOL    HW175926   9.842   1.259   5.613
91343SOL    HW275927   9.888   1.123   5.565
91344SOL     OW75928   6.064  12.450   9.616
91344SOL    HW175929   6.030  12.507   9.685
91344SOL    HW275930   6.158  12.469   9.612
91345SOL     OW75931   6.469   6.925   7.609
91345SOL    HW175932   6.548   6.954   7.562
91345SOL    HW275933   6.456   6.993   7.676
91346SOL     OW75934  10.196  10.360   3.695
91346SOL    HW175935  10.283  10.401   3.690
91346SOL    HW275936  10.162  10.386   3.780
91347SOL     OW75937  13.963   9.147  12.100
91347SOL    HW175938  13.896   9.164  12.034
91347SOL    HW275939  14.016   9.076  12.063
91348SOL     OW75940   1.494  11.105  10.794
91348SOL    HW175941   1.532  11.024  10.827
91348SOL    HW275942   1.468  11.153  10.873
91349SOL     OW75943   3.163  10.518   2.921
91349SOL    HW175944   3.167  10.423   2.917
91349SOL    HW275945   3.075  10.537   2.955
91350SOL     OW75946  13.935   9.367  10.151
91350SOL    HW175947  14.007   9.409  10.200
91350SOL    HW275948  13.951   9.390  10.060
91351SOL     OW75949   9.132   5.849   4.566
91351SOL    HW175950   9.137   5.884   4.477
91351SOL    HW275951   9.048   5.803   4.569
91352SOL     OW75952   7.147  12.108  10.679
91352SOL    HW175953   7.117  12.178  10.621
91352SOL    HW275954   7.166  12.035  10.620
91353SOL     OW75955  13.450  13.461  10.799
91353SOL    HW175956  13.393  13.535  10.818
91353SOL    HW275957  13.537  13.489  10.827
91354SOL     OW75958   3.984   2.844  12.855
91354SOL    HW175959   3.948   2.923  12.896
91354SOL    HW275960   4.079   2.854  12.861
91355SOL     OW75961  13.331   6.812   9.039
91355SOL    HW175962  13.317   6.900   9.003
91355SOL    HW275963  13.335   6.825   9.134
91356SOL     OW75964   0.721  13.555  10.615
91356SOL    HW175965   0.635  13.514  10.625
91356SOL    HW275966   0.756  13.518  10.535
91357SOL     OW75967  10.640  10.379   8.094
91357SOL    HW175968  10.594  10.296   8.084
91357SOL    HW275969  10.711  10.361   8.154
91358SOL     OW75970   6.280   9.992  10.097
91358SOL    HW175971   6.208   9.990  10.033
91358SOL    HW275972   6.350   9.941  10.057
91359SOL     OW75973   7.014  10.792   4.939
91359SOL    HW175974   6.961  10.761   4.866
91359SOL    HW275975   6.993  10.885   4.946
91360SOL     OW75976   6.691   1.236   9.459
91360SOL    HW175977   6.637   1.273   9.530
91360SOL    HW275978   6.776   1.279   9.469
91361SOL     OW75979   5.270  11.576   6.038
91361SOL    HW175980   5.201  11.543   5.980
91361SOL    HW275981   5.338  11.509   6.036
91362SOL     OW75982   1.684   5.627   7.006
91362SOL    HW175983   1.684   5.620   7.101
91362SOL    HW275984   1.630   5.554   6.976
91363SOL     OW75985   1.633   5.623  13.179
91363SOL    HW175986   1.724   5.618  13.208
91363SOL    HW275987   1.635   5.597  13.087
91364SOL     OW75988   6.992  12.654  14.098
91364SOL    HW175989   7.036  12.571  14.082
91364SOL    HW275990   6.987  12.660  14.194
91365SOL     OW75991  13.122  10.963  11.844
91365SOL    HW175992  13.124  10.935  11.753
91365SOL    HW275993  13.070  11.043  11.844
91366SOL     OW75994   8.313   5.244  12.502
91366SOL    HW175995   8.273   5.213  12.583
91366SOL    HW275996   8.239   5.263  12.444
91367SOL     OW75997   9.274   2.274  14.373
91367SOL    HW175998   9.360   2.252  14.410
91367SOL    HW275999   9.283   2.363  14.342
91368SOL     OW76000   7.896   3.954  13.417
91368SOL    HW176001   7.910   4.048  13.409
91368SOL    HW276002   7.970   3.923  13.470
91369SOL     OW76003   9.478  12.937   1.671
91369SOL    HW176004   9.454  12.869   1.734
91369SOL    HW276005   9.464  12.898   1.585
91370SOL     OW76006  12.188   3.429   8.133
91370SOL    HW176007  12.116   3.366   8.123
91370SOL    HW276008  12.252   3.403   8.067
91371SOL     OW76009   1.892   2.552  14.000
91371SOL    HW176010   1.981   2.588  14.006
91371SOL    HW276011   1.862   2.575  13.912
91372SOL     OW76012   2.667   5.331   6.988
91372SOL    HW176013   2.590   5.286   7.023
91372SOL    HW276014   2.732   5.262   6.978
91373SOL     OW76015   5.070   9.582   2.887
91373SOL    HW176016   5.155   9.610   2.920
91373SOL    HW276017   5.009   9.605   2.957
91374SOL     OW76018  14.516   2.900   9.617
91374SOL    HW176019  14.534   2.837   9.686
91374SOL    HW276020  14.591   2.960   9.619
91375SOL     OW76021  14.842   7.187  14.698
91375SOL    HW176022  14.796   7.270  14.710
91375SOL    HW276023   0.039   7.196  14.751
91376SOL     OW76024   5.719  13.404   7.306
91376SOL    HW176025   5.709  13.433   7.396
91376SOL    HW276026   5.639  13.431   7.262
91377SOL     OW76027   5.106   9.912   3.313
91377SOL    HW176028   5.169   9.856   3.358
91377SOL    HW276029   5.071   9.970   3.381
91378SOL     OW76030   9.006   7.892   9.410
91378SOL    HW176031   8.984   7.885   9.317
91378SOL    HW276032   9.101   7.888   9.412
91379SOL     OW76033  12.098   9.830   0.560
91379SOL    HW176034  12.015   9.799   0.597
91379SOL    HW276035  12.165   9.779   0.606
91380SOL     OW76036   8.314   8.062   2.215
91380SOL    HW176037   8.219   8.078   2.209
91380SOL    HW276038   8.343   8.122   2.284
91381SOL     OW76039  11.778   7.223   8.438
91381SOL    HW176040  11.762   7.174   8.357
91381SOL    HW276041  11.873   7.221   8.449
91382SOL     OW76042   8.561   9.950  11.946
91382SOL    HW176043   8.537   9.861  11.971
91382SOL    HW276044   8.656   9.949  11.938
91383SOL     OW76045   8.205   1.034  11.784
91383SOL    HW176046   8.154   0.967  11.737
91383SOL    HW276047   8.260   0.984  11.844
91384SOL     OW76048  10.387  11.089   7.977
91384SOL    HW176049  10.299  11.098   8.013
91384SOL    HW276050  10.379  11.023   7.908
91385SOL     OW76051   1.690   8.772  11.296
91385SOL    HW176052   1.744   8.850  11.281
91385SOL    HW276053   1.678   8.734  11.209
91386SOL     OW76054   5.342  12.857  12.876
91386SOL    HW176055   5.355  12.837  12.969
91386SOL    HW276056   5.283  12.932  12.875
91387SOL     OW76057   7.959   7.144  11.155
91387SOL    HW176058   7.988   7.234  11.170
91387SOL    HW276059   7.912   7.147  11.072
91388SOL     OW76060   8.623   1.123  12.234
91388SOL    HW176061   8.616   1.128  12.329
91388SOL    HW276062   8.643   1.213  12.207
91389SOL     OW76063   7.849   6.781   6.809
91389SOL    HW176064   7.891   6.715   6.864
91389SOL    HW276065   7.794   6.831   6.870
91390SOL     OW76066   7.500  12.775   8.005
91390SOL    HW176067   7.483  12.746   7.915
91390SOL    HW276068   7.465  12.705   8.060
91391SOL     OW76069   3.774  10.778   6.138
91391SOL    HW176070   3.744  10.725   6.212
91391SOL    HW276071   3.813  10.714   6.077
91392SOL     OW76072   7.473   1.551   7.486
91392SOL    HW176073   7.440   1.462   7.502
91392SOL    HW276074   7.515   1.576   7.569
91393SOL     OW76075   1.802  12.381   6.943
91393SOL    HW176076   1.752  12.307   6.978
91393SOL    HW276077   1.753  12.459   6.970
91394SOL     OW76078   8.514   3.794   7.387
91394SOL    HW176079   8.485   3.770   7.475
91394SOL    HW276080   8.603   3.758   7.381
91395SOL     OW76081   8.447   8.338   2.691
91395SOL    HW176082   8.488   8.374   2.612
91395SOL    HW276083   8.485   8.388   2.763
91396SOL     OW76084  12.544   5.617   7.516
91396SOL    HW176085  12.499   5.611   7.600
91396SOL    HW276086  12.474   5.618   7.451
91397SOL     OW76087   4.198   8.467  10.621
91397SOL    HW176088   4.248   8.514  10.688
91397SOL    HW276089   4.265   8.429  10.564
91398SOL     OW76090   5.154  12.266   9.663
91398SOL    HW176091   5.147  12.189   9.720
91398SOL    HW276092   5.150  12.231   9.574
91399SOL     OW76093  12.219  10.663  13.026
91399SOL    HW176094  12.207  10.721  13.101
91399SOL    HW276095  12.265  10.587  13.062
91400SOL     OW76096  13.118   7.723   5.719
91400SOL    HW176097  13.078   7.794   5.669
91400SOL    HW276098  13.205   7.712   5.681
91401SOL     OW76099   8.888  13.437   0.585
91401SOL    HW176100   8.863  13.525   0.614
91401SOL    HW276101   8.956  13.410   0.647
91402SOL     OW76102   5.623  10.306   9.840
91402SOL    HW176103   5.648  10.253   9.765
91402SOL    HW276104   5.574  10.379   9.803
91403SOL     OW76105   5.221   1.108  12.120
91403SOL    HW176106   5.134   1.142  12.139
91403SOL    HW276107   5.268   1.112  12.203
91404SOL     OW76108   9.138   4.834   6.432
91404SOL    HW176109   9.119   4.759   6.488
91404SOL    HW276110   9.129   4.910   6.490
91405SOL     OW76111   3.075  12.762   2.214
91405SOL    HW176112   3.044  12.704   2.284
91405SOL    HW276113   3.160  12.726   2.190
91406SOL     OW76114   6.514   4.413   6.555
91406SOL    HW176115   6.456   4.488   6.542
91406SOL    HW276116   6.475   4.343   6.504
91407SOL     OW76117   7.612   8.518   2.357
91407SOL    HW176118   7.643   8.480   2.275
91407SOL    HW276119   7.604   8.443   2.417
91408SOL     OW76120  11.415   1.043  14.052
91408SOL    HW176121  11.500   1.051  14.096
91408SOL    HW276122  11.436   1.011  13.965
91409SOL     OW76123   7.956  14.289  10.161
91409SOL    HW176124   7.946  14.246  10.076
91409SOL    HW276125   7.977  14.217  10.221
91410SOL     OW76126   9.795   9.387  11.736
91410SOL    HW176127   9.835   9.346  11.813
91410SOL    HW276128   9.760   9.470  11.769
91411SOL     OW76129   2.743   2.865   6.286
91411SOL    HW176130   2.775   2.920   6.357
91411SOL    HW276131   2.794   2.892   6.209
91412SOL     OW76132  13.210  12.010   0.349
91412SOL    HW176133  13.230  11.948   0.280
91412SOL    HW276134  13.174  12.086   0.304
91413SOL     OW76135   3.276  10.884  10.342
91413SOL    HW176136   3.182  10.901  10.334
91413SOL    HW276137   3.304  10.864  10.253
91414SOL     OW76138  13.220   9.246  10.430
91414SOL    HW176139  13.278   9.319  10.410
91414SOL    HW276140  13.237   9.181  10.361
91415SOL     OW76141   9.727   1.414   2.910
91415SOL    HW176142   9.771   1.379   2.987
91415SOL    HW276143   9.724   1.341   2.848
91416SOL     OW76144  13.167   9.879  11.961
91416SOL    HW176145  13.194   9.944  11.896
91416SOL    HW276146  13.215   9.903  12.040
91417SOL     OW76147  11.113  11.471   6.546
91417SOL    HW176148  11.205  11.495   6.552
91417SOL    HW276149  11.095  11.466   6.452
91418SOL     OW76150  10.589   3.881   1.883
91418SOL    HW176151  10.550   3.794   1.883
91418SOL    HW276152  10.648   3.881   1.959
91419SOL     OW76153  13.308  13.339   4.711
91419SOL    HW176154  13.246  13.324   4.639
91419SOL    HW276155  13.353  13.420   4.688
91420SOL     OW76156   7.710   5.994   7.267
91420SOL    HW176157   7.727   6.058   7.198
91420SOL    HW276158   7.729   6.041   7.348
91421SOL     OW76159  12.121  10.495  14.117
91421SOL    HW176160  12.139  10.461  14.205
91421SOL    HW276161  12.109  10.418  14.063
91422SOL     OW76162   7.996  14.453   3.511
91422SOL    HW176163   8.047  14.473   3.589
91422SOL    HW276164   7.960  14.538   3.484
91423SOL     OW76165   0.893   8.259   0.813
91423SOL    HW176166   0.982   8.262   0.847
91423SOL    HW276167   0.843   8.214   0.881
91424SOL     OW76168   9.756   5.774   1.531
91424SOL    HW176169   9.684   5.812   1.481
91424SOL    HW276170   9.771   5.689   1.489
91425SOL     OW76171  10.625   5.209   6.630
91425SOL    HW176172  10.596   5.177   6.715
91425SOL    HW276173  10.676   5.136   6.594
91426SOL     OW76174   5.320   4.996   6.174
91426SOL    HW176175   5.395   5.050   6.149
91426SOL    HW276176   5.247   5.031   6.123
91427SOL     OW76177   8.394  10.292   9.009
91427SOL    HW176178   8.328  10.353   8.975
91427SOL    HW276179   8.441  10.342   9.075
91428SOL     OW76180   2.574   6.827   2.553
91428SOL    HW176181   2.483   6.847   2.575
91428SOL    HW276182   2.603   6.903   2.503
91429SOL     OW76183   2.895   5.097  14.201
91429SOL    HW176184   2.847   5.078  14.282
91429SOL    HW276185   2.858   5.036  14.137
91430SOL     OW76186   1.527   4.400   0.505
91430SOL    HW176187   1.455   4.379   0.445
91430SOL    HW276188   1.605   4.394   0.450
91431SOL     OW76189   0.413   9.020   3.664
91431SOL    HW176190   0.450   9.010   3.576
91431SOL    HW276191   0.369   8.936   3.680
91432SOL     OW76192   7.282   0.984   8.991
91432SOL    HW176193   7.247   1.016   8.908
91432SOL    HW276194   7.232   1.030   9.058
91433SOL     OW76195   0.022  14.144   4.067
91433SOL    HW176196  14.848  14.187   4.132
91433SOL    HW276197   0.104  14.193   4.069
91434SOL     OW76198   9.867   2.757  13.992
91434SOL    HW176199   9.823   2.707  14.060
91434SOL    HW276200   9.924   2.818  14.041
91435SOL     OW76201   9.696   7.023   2.634
91435SOL    HW176202   9.659   7.011   2.547
91435SOL    HW276203   9.625   7.064   2.685
91436SOL     OW76204  13.189   3.062   2.839
91436SOL    HW176205  13.135   3.007   2.783
91436SOL    HW276206  13.138   3.072   2.919
91437SOL     OW76207   7.614   6.029   3.554
91437SOL    HW176208   7.525   6.008   3.581
91437SOL    HW276209   7.622   5.994   3.466
91438SOL     OW76210  14.377   4.210  10.112
91438SOL    HW176211  14.380   4.166  10.197
91438SOL    HW276212  14.431   4.156  10.055
91439SOL     OW76213   5.523   0.808   3.732
91439SOL    HW176214   5.529   0.864   3.810
91439SOL    HW276215   5.607   0.764   3.727
91440SOL     OW76216   6.185  10.965  11.794
91440SOL    HW176217   6.126  10.953  11.869
91440SOL    HW276218   6.174  10.886  11.742
91441SOL     OW76219   8.568  13.378   4.064
91441SOL    HW176220   8.499  13.325   4.105
91441SOL    HW276221   8.626  13.314   4.023
91442SOL     OW76222   8.047   0.488   5.593
91442SOL    HW176223   8.010   0.423   5.533
91442SOL    HW276224   7.980   0.556   5.599
91443SOL     OW76225   0.752  11.573   9.063
91443SOL    HW176226   0.759  11.585   8.968
91443SOL    HW276227   0.800  11.647   9.100
91444SOL     OW76228   3.267   3.821  11.355
91444SOL    HW176229   3.248   3.871  11.275
91444SOL    HW276230   3.266   3.886  11.425
91445SOL     OW76231   3.319  10.244   5.286
91445SOL    HW176232   3.263  10.175   5.322
91445SOL    HW276233   3.348  10.293   5.363
91446SOL     OW76234   9.170  12.574   0.227
91446SOL    HW176235   9.249  12.587   0.174
91446SOL    HW276236   9.200  12.579   0.317
91447SOL     OW76237  12.109   6.246  13.736
91447SOL    HW176238  12.156   6.299  13.672
91447SOL    HW276239  12.068   6.309  13.795
91448SOL     OW76240   1.193  10.774   7.526
91448SOL    HW176241   1.272  10.818   7.493
91448SOL    HW276242   1.226  10.710   7.589
91449SOL     OW76243  14.342   2.672   2.763
91449SOL    HW176244  14.417   2.613   2.772
91449SOL    HW276245  14.347   2.702   2.672
91450SOL     OW76246   1.226  10.278  10.079
91450SOL    HW176247   1.319  10.267  10.096
91450SOL    HW276248   1.198  10.194  10.042
91451SOL     OW76249   7.085  13.486  14.038
91451SOL    HW176250   7.089  13.582  14.042
91451SOL    HW276251   6.995  13.468  14.009
91452SOL     OW76252  13.184   5.767   8.813
91452SOL    HW176253  13.168   5.709   8.887
91452SOL    HW276254  13.158   5.854   8.844
91453SOL     OW76255   0.352   2.147   9.395
91453SOL    HW176256   0.365   2.125   9.303
91453SOL    HW276257   0.257   2.146   9.407
91454SOL     OW76258   9.368   6.841  13.834
91454SOL    HW176259   9.406   6.891  13.906
91454SOL    HW276260   9.295   6.793  13.875
91455SOL     OW76261   7.821  12.003   1.951
91455SOL    HW176262   7.846  11.938   2.017
91455SOL    HW276263   7.745  11.965   1.908
91456SOL     OW76264  10.198  11.354   2.050
91456SOL    HW176265  10.257  11.402   1.992
91456SOL    HW276266  10.256  11.309   2.111
91457SOL     OW76267  14.230   7.088   4.565
91457SOL    HW176268  14.177   7.154   4.609
91457SOL    HW276269  14.218   7.106   4.471
91458SOL     OW76270   3.089  12.879  12.970
91458SOL    HW176271   3.106  12.785  12.981
91458SOL    HW276272   3.039  12.903  13.049
91459SOL     OW76273  11.580  13.415   5.101
91459SOL    HW176274  11.492  13.441   5.129
91459SOL    HW276275  11.605  13.345   5.161
91460SOL     OW76276  13.955   1.256  13.811
91460SOL    HW176277  14.039   1.217  13.787
91460SOL    HW276278  13.976   1.327  13.870
91461SOL     OW76279   1.736   5.203   3.962
91461SOL    HW176280   1.719   5.295   3.944
91461SOL    HW276281   1.649   5.162   3.962
91462SOL     OW76282   2.757   7.884   1.071
91462SOL    HW176283   2.724   7.811   1.018
91462SOL    HW276284   2.760   7.958   1.010
91463SOL     OW76285   8.400  12.485   6.486
91463SOL    HW176286   8.362  12.413   6.536
91463SOL    HW276287   8.330  12.550   6.480
91464SOL     OW76288   4.641   3.916   3.248
91464SOL    HW176289   4.598   3.833   3.225
91464SOL    HW276290   4.574   3.982   3.231
91465SOL     OW76291   9.475   1.876  12.799
91465SOL    HW176292   9.399   1.928  12.824
91465SOL    HW276293   9.544   1.903  12.859
91466SOL     OW76294   2.636   5.813  12.809
91466SOL    HW176295   2.685   5.747  12.858
91466SOL    HW276296   2.654   5.895  12.856
91467SOL     OW76297   2.693   6.621   8.852
91467SOL    HW176298   2.634   6.694   8.870
91467SOL    HW276299   2.760   6.626   8.920
91468SOL     OW76300   8.156   2.189   2.414
91468SOL    HW176301   8.218   2.235   2.358
91468SOL    HW276302   8.097   2.257   2.446
91469SOL     OW76303  11.537   1.866  13.519
91469SOL    HW176304  11.515   1.774  13.527
91469SOL    HW276305  11.462   1.905  13.473
91470SOL     OW76306   3.186   8.118   0.512
91470SOL    HW176307   3.142   8.172   0.446
91470SOL    HW276308   3.232   8.051   0.461
91471SOL     OW76309  12.746  12.432   1.642
91471SOL    HW176310  12.817  12.385   1.600
91471SOL    HW276311  12.783  12.518   1.663
91472SOL     OW76312   3.912   3.405  11.859
91472SOL    HW176313   3.899   3.443  11.773
91472SOL    HW276314   3.847   3.335  11.865
91473SOL     OW76315   0.018   2.954   1.701
91473SOL    HW176316   0.053   2.923   1.785
91473SOL    HW276317  14.841   2.884   1.672
91474SOL     OW76318   6.217   6.454  12.139
91474SOL    HW176319   6.128   6.469  12.105
91474SOL    HW276320   6.272   6.514  12.088
91475SOL     OW76321   7.160   4.352   1.637
91475SOL    HW176322   7.138   4.315   1.551
91475SOL    HW276323   7.222   4.289   1.674
91476SOL     OW76324   6.635   0.224   5.807
91476SOL    HW176325   6.544   0.195   5.799
91476SOL    HW276326   6.687   0.144   5.796
91477SOL     OW76327   3.912  14.245   3.218
91477SOL    HW176328   3.925  14.338   3.198
91477SOL    HW276329   3.817  14.233   3.211
91478SOL     OW76330  12.116  10.918   5.349
91478SOL    HW176331  12.051  10.974   5.306
91478SOL    HW276332  12.198  10.967   5.342
91479SOL     OW76333  12.037   3.070   1.402
91479SOL    HW176334  11.978   3.003   1.368
91479SOL    HW276335  12.105   3.022   1.449
91480SOL     OW76336  13.083   0.597   9.103
91480SOL    HW176337  13.068   0.568   9.193
91480SOL    HW276338  13.044   0.684   9.098
91481SOL     OW76339   5.376   9.352   2.466
91481SOL    HW176340   5.321   9.386   2.536
91481SOL    HW276341   5.458   9.327   2.509
91482SOL     OW76342   3.888   3.284   8.549
91482SOL    HW176343   3.878   3.300   8.643
91482SOL    HW276344   3.896   3.371   8.510
91483SOL     OW76345  10.214   5.843  12.910
91483SOL    HW176346  10.194   5.749  12.903
91483SOL    HW276347  10.230   5.870  12.820
91484SOL     OW76348  12.926  13.929  10.638
91484SOL    HW176349  12.904  13.947  10.729
91484SOL    HW276350  12.844  13.900  10.598
91485SOL     OW76351  10.374   2.653   4.892
91485SOL    HW176352  10.442   2.587   4.901
91485SOL    HW276353  10.360   2.685   4.981
91486SOL     OW76354   7.980  13.209   5.758
91486SOL    HW176355   8.046  13.190   5.691
91486SOL    HW276356   8.018  13.280   5.809
91487SOL     OW76357  11.132  10.251  14.208
91487SOL    HW176358  11.121  10.169  14.256
91487SOL    HW276359  11.189  10.304  14.264
91488SOL     OW76360   5.192   2.852   2.209
91488SOL    HW176361   5.149   2.901   2.139
91488SOL    HW276362   5.126   2.788   2.236
91489SOL     OW76363   0.987   9.319  12.087
91489SOL    HW176364   0.907   9.349  12.043
91489SOL    HW276365   1.022   9.397  12.130
91490SOL     OW76366  13.573  12.130   2.406
91490SOL    HW176367  13.594  12.073   2.479
91490SOL    HW276368  13.656  12.144   2.360
91491SOL     OW76369   9.317   2.176  10.318
91491SOL    HW176370   9.359   2.262  10.318
91491SOL    HW276371   9.329   2.143  10.230
91492SOL     OW76372   6.212  13.525  13.997
91492SOL    HW176373   6.218  13.469  14.075
91492SOL    HW276374   6.118  13.537  13.983
91493SOL     OW76375   5.218  14.088  14.626
91493SOL    HW176376   5.139  14.092  14.572
91493SOL    HW276377   5.288  14.071  14.563
91494SOL     OW76378  11.230  12.613   5.469
91494SOL    HW176379  11.220  12.545   5.403
91494SOL    HW276380  11.153  12.603   5.525
91495SOL     OW76381   2.554   9.906  12.875
91495SOL    HW176382   2.583   9.836  12.817
91495SOL    HW276383   2.463   9.885  12.895
91496SOL     OW76384   6.499  10.294  13.134
91496SOL    HW176385   6.440  10.229  13.095
91496SOL    HW276386   6.582  10.247  13.144
91497SOL     OW76387   6.758   5.859   4.420
91497SOL    HW176388   6.738   5.828   4.508
91497SOL    HW276389   6.801   5.944   4.434
91498SOL     OW76390   2.448   0.045  11.795
91498SOL    HW176391   2.477  14.869  11.866
91498SOL    HW276392   2.442  14.870  11.719
91499SOL     OW76393  12.518  14.027  10.734
91499SOL    HW176394  12.457  13.994  10.800
91499SOL    HW276395  12.476  14.106  10.699
91500SOL     OW76396   6.950   8.069   7.468
91500SOL    HW176397   6.955   8.142   7.529
91500SOL    HW276398   6.923   8.108   7.385
91501SOL     OW76399   4.741  14.173   7.774
91501SOL    HW176400   4.807  14.144   7.712
91501SOL    HW276401   4.752  14.268   7.778
91502SOL     OW76402   7.166   9.033   6.572
91502SOL    HW176403   7.187   9.088   6.497
91502SOL    HW276404   7.193   9.085   6.648
91503SOL     OW76405   4.031   1.367  12.902
91503SOL    HW176406   4.123   1.382  12.881
91503SOL    HW276407   3.983   1.417  12.836
91504SOL     OW76408  14.192   7.901   3.158
91504SOL    HW176409  14.151   7.814   3.163
91504SOL    HW276410  14.121   7.962   3.181
91505SOL     OW76411   3.529   5.597   2.477
91505SOL    HW176412   3.569   5.567   2.559
91505SOL    HW276413   3.529   5.692   2.483
91506SOL     OW76414   2.907  13.854  11.900
91506SOL    HW176415   2.977  13.916  11.879
91506SOL    HW276416   2.935  13.772  11.859
91507SOL     OW76417  14.216   5.421   8.478
91507SOL    HW176418  14.284   5.421   8.545
91507SOL    HW276419  14.254   5.371   8.406
91508SOL     OW76420   3.737   9.048   3.433
91508SOL    HW176421   3.802   9.097   3.484
91508SOL    HW276422   3.727   9.099   3.353
91509SOL     OW76423  13.670   9.890  13.993
91509SOL    HW176424  13.705   9.966  13.948
91509SOL    HW276425  13.609   9.850  13.930
91510SOL     OW76426   3.527  12.441   1.495
91510SOL    HW176427   3.544  12.347   1.505
91510SOL    HW276428   3.574  12.465   1.415
91511SOL     OW76429   1.772   3.046   9.735
91511SOL    HW176430   1.771   3.106   9.660
91511SOL    HW276431   1.864   3.022   9.744
91512SOL     OW76432   3.456   8.627  13.637
91512SOL    HW176433   3.410   8.696  13.590
91512SOL    HW276434   3.524   8.598  13.576
91513SOL     OW76435   0.333   8.086  12.965
91513SOL    HW176436   0.276   8.050  13.033
91513SOL    HW276437   0.418   8.098  13.008
91514SOL     OW76438   0.068   3.683  10.000
91514SOL    HW176439   0.016   3.631  10.061
91514SOL    HW276440   0.004   3.721   9.940
91515SOL     OW76441   3.306   7.805  13.511
91515SOL    HW176442   3.276   7.896  13.504
91515SOL    HW276443   3.397   7.813  13.540
91516SOL     OW76444   2.784  13.191  11.637
91516SOL    HW176445   2.803  13.219  11.548
91516SOL    HW276446   2.795  13.096  11.635
91517SOL     OW76447   0.007   2.513  11.205
91517SOL    HW176448   0.009   2.537  11.112
91517SOL    HW276449   0.097   2.487  11.225
91518SOL     OW76450  11.744   2.327   7.780
91518SOL    HW176451  11.838   2.337   7.773
91518SOL    HW276452  11.724   2.347   7.871
91519SOL     OW76453  11.569   0.316   7.091
91519SOL    HW176454  11.609   0.266   7.161
91519SOL    HW276455  11.566   0.406   7.124
91520SOL     OW76456   1.832   0.735  13.830
91520SOL    HW176457   1.744   0.764  13.855
91520SOL    HW276458   1.876   0.717  13.913
91521SOL     OW76459   5.635   9.562   6.162
91521SOL    HW176460   5.701   9.629   6.142
91521SOL    HW276461   5.617   9.573   6.255
91522SOL     OW76462  10.053  11.466   8.352
91522SOL    HW176463  10.146  11.467   8.376
91522SOL    HW276464  10.009  11.511   8.423
91523SOL     OW76465   1.469   3.870   0.955
91523SOL    HW176466   1.381   3.885   0.991
91523SOL    HW276467   1.526   3.922   1.012
91524SOL     OW76468   5.221  10.823  10.513
91524SOL    HW176469   5.130  10.798  10.498
91524SOL    HW276470   5.268  10.790  10.437
91525SOL     OW76471   8.266   3.809   7.583
91525SOL    HW176472   8.270   3.813   7.679
91525SOL    HW276473   8.292   3.897   7.554
91526SOL     OW76474   3.984   8.981   3.907
91526SOL    HW176475   4.052   8.923   3.941
91526SOL    HW276476   3.918   8.922   3.870
91527SOL     OW76477   2.525  10.771  11.456
91527SOL    HW176478   2.582  10.710  11.409
91527SOL    HW276479   2.570  10.789  11.538
91528SOL     OW76480   3.171   3.709  12.593
91528SOL    HW176481   3.078   3.692  12.578
91528SOL    HW276482   3.211   3.702  12.507
91529SOL     OW76483   2.852   3.197  12.396
91529SOL    HW176484   2.798   3.262  12.352
91529SOL    HW276485   2.902   3.247  12.461
91530SOL     OW76486   3.674  12.154   3.449
91530SOL    HW176487   3.713  12.219   3.390
91530SOL    HW276488   3.588  12.190   3.471
91531SOL     OW76489   6.629   1.475   9.788
91531SOL    HW176490   6.572   1.446   9.860
91531SOL    HW276491   6.608   1.416   9.716
91532SOL     OW76492  14.015   7.417   4.999
91532SOL    HW176493  13.974   7.350   4.944
91532SOL    HW276494  14.010   7.381   5.088
91533SOL     OW76495   8.595   8.236   7.366
91533SOL    HW176496   8.572   8.258   7.457
91533SOL    HW276497   8.690   8.248   7.363
91534SOL     OW76498   9.489  13.415   9.253
91534SOL    HW176499   9.559  13.380   9.308
91534SOL    HW276500   9.425  13.450   9.316
91535SOL     OW76501   9.399   2.319   9.093
91535SOL    HW176502   9.410   2.323   8.998
91535SOL    HW276503   9.336   2.248   9.107
91536SOL     OW76504   8.275   7.058   3.484
91536SOL    HW176505   8.184   7.090   3.481
91536SOL    HW276506   8.317   7.112   3.551
91537SOL     OW76507   6.975   4.883  10.181
91537SOL    HW176508   6.973   4.804  10.127
91537SOL    HW276509   6.883   4.898  10.204
91538SOL     OW76510   2.111   8.589  12.998
91538SOL    HW176511   2.119   8.657  13.065
91538SOL    HW276512   2.178   8.525  13.020
91539SOL     OW76513  11.511   4.820   5.038
91539SOL    HW176514  11.529   4.858   4.952
91539SOL    HW276515  11.592   4.832   5.088
91540SOL     OW76516   5.251   8.465   3.575
91540SOL    HW176517   5.339   8.444   3.543
91540SOL    HW276518   5.203   8.383   3.572
91541SOL     OW76519  10.889   6.420   3.359
91541SOL    HW176520  10.851   6.429   3.271
91541SOL    HW276521  10.848   6.490   3.410
91542SOL     OW76522   5.223   9.133   1.930
91542SOL    HW176523   5.231   9.082   1.849
91542SOL    HW276524   5.129   9.129   1.951
91543SOL     OW76525   4.341   1.282  13.739
91543SOL    HW176526   4.409   1.258  13.802
91543SOL    HW276527   4.382   1.273  13.654
91544SOL     OW76528  11.156  11.331   3.351
91544SOL    HW176529  11.110  11.299   3.428
91544SOL    HW276530  11.228  11.270   3.338
91545SOL     OW76531  13.869   1.068   8.398
91545SOL    HW176532  13.926   0.995   8.373
91545SOL    HW276533  13.928   1.134   8.433
91546SOL     OW76534  11.668  10.848  13.423
91546SOL    HW176535  11.592  10.803  13.460
91546SOL    HW276536  11.740  10.824  13.482
91547SOL     OW76537   6.818   1.634   8.423
91547SOL    HW176538   6.799   1.636   8.329
91547SOL    HW276539   6.755   1.572   8.459
91548SOL     OW76540   7.009   9.956   1.724
91548SOL    HW176541   7.052  10.034   1.690
91548SOL    HW276542   7.079   9.890   1.728
91549SOL     OW76543  11.939   8.916   2.771
91549SOL    HW176544  11.996   8.947   2.700
91549SOL    HW276545  11.886   8.993   2.793
91550SOL     OW76546  12.649   3.278   3.193
91550SOL    HW176547  12.665   3.351   3.253
91550SOL    HW276548  12.578   3.308   3.136
91551SOL     OW76549   9.404   8.302  13.324
91551SOL    HW176550   9.423   8.337  13.411
91551SOL    HW276551   9.469   8.234  13.310
91552SOL     OW76552  13.643   5.065   5.821
91552SOL    HW176553  13.707   5.085   5.752
91552SOL    HW276554  13.694   5.027   5.892
91553SOL     OW76555   1.671   0.512  13.523
91553SOL    HW176556   1.764   0.494  13.534
91553SOL    HW276557   1.636   0.432  13.484
91554SOL     OW76558   1.592  10.809  13.501
91554SOL    HW176559   1.597  10.894  13.545
91554SOL    HW276560   1.501  10.804  13.471
91555SOL     OW76561  14.531   9.808  13.750
91555SOL    HW176562  14.511   9.717  13.775
91555SOL    HW276563  14.525   9.857  13.832
91556SOL     OW76564   6.114  13.344   7.450
91556SOL    HW176565   6.066  13.354   7.368
91556SOL    HW276566   6.047  13.333   7.517
91557SOL     OW76567   3.182  10.159  14.279
91557SOL    HW176568   3.111  10.167  14.343
91557SOL    HW276569   3.262  10.165  14.332
91558SOL     OW76570   1.464   6.199   4.280
91558SOL    HW176571   1.554   6.168   4.291
91558SOL    HW276572   1.412   6.143   4.337
91559SOL     OW76573   8.372   7.302  14.099
91559SOL    HW176574   8.277   7.298  14.090
91559SOL    HW276575   8.401   7.211  14.096
91560SOL     OW76576  13.129   8.338   5.831
91560SOL    HW176577  13.036   8.333   5.855
91560SOL    HW276578  13.155   8.247   5.816
91561SOL     OW76579   6.631   1.456   1.781
91561SOL    HW176580   6.641   1.435   1.873
91561SOL    HW276581   6.635   1.552   1.778
91562SOL     OW76582   7.986   8.049   9.470
91562SOL    HW176583   7.969   8.017   9.381
91562SOL    HW276584   8.069   8.008   9.494
91563SOL     OW76585   8.507   3.014  13.347
91563SOL    HW176586   8.453   3.007  13.426
91563SOL    HW276587   8.445   3.034  13.277
91564SOL     OW76588   3.535  12.438   5.742
91564SOL    HW176589   3.483  12.499   5.794
91564SOL    HW276590   3.564  12.489   5.667
91565SOL     OW76591   4.959   7.508  13.367
91565SOL    HW176592   4.965   7.483  13.459
91565SOL    HW276593   4.865   7.516  13.350
91566SOL     OW76594   2.049  12.190   4.032
91566SOL    HW176595   2.039  12.153   4.120
91566SOL    HW276596   2.055  12.114   3.974
91567SOL     OW76597  12.805  10.312   7.581
91567SOL    HW176598  12.746  10.241   7.609
91567SOL    HW276599  12.890  10.288   7.620
91568SOL     OW76600  10.789   9.803  14.801
91568SOL    HW176601  10.755   9.831  14.716
91568SOL    HW276602  10.878   9.773  14.783
91569SOL     OW76603  10.880   5.668   2.109
91569SOL    HW176604  10.954   5.728   2.095
91569SOL    HW276605  10.867   5.628   2.023
91570SOL     OW76606  11.198   4.552   8.626
91570SOL    HW176607  11.288   4.556   8.660
91570SOL    HW276608  11.156   4.484   8.677
91571SOL     OW76609  13.695  10.886  14.259
91571SOL    HW176610  13.610  10.929  14.262
91571SOL    HW276611  13.676  10.793  14.260
91572SOL     OW76612   6.178   9.722   9.378
91572SOL    HW176613   6.233   9.655   9.418
91572SOL    HW276614   6.139   9.678   9.302
91573SOL     OW76615  14.252   1.269  11.008
91573SOL    HW176616  14.309   1.264  10.931
91573SOL    HW276617  14.223   1.360  11.010
91574SOL     OW76618   1.735   5.119  13.491
91574SOL    HW176619   1.729   5.139  13.585
91574SOL    HW276620   1.719   5.203  13.448
91575SOL     OW76621   4.489   4.763  12.894
91575SOL    HW176622   4.451   4.851  12.903
91575SOL    HW276623   4.507   4.754  12.801
91576SOL     OW76624   6.065  13.864  13.325
91576SOL    HW176625   6.098  13.896  13.240
91576SOL    HW276626   5.975  13.836  13.307
91577SOL     OW76627  14.035   1.173   9.109
91577SOL    HW176628  13.987   1.154   9.190
91577SOL    HW276629  14.049   1.267   9.111
91578SOL     OW76630   9.164   7.503   9.264
91578SOL    HW176631   9.250   7.539   9.242
91578SOL    HW276632   9.118   7.500   9.180
91579SOL     OW76633   4.903   9.198   8.376
91579SOL    HW176634   4.811   9.181   8.397
91579SOL    HW276635   4.923   9.281   8.420
91580SOL     OW76636   0.073   9.352   8.655
91580SOL    HW176637   0.154   9.307   8.629
91580SOL    HW276638   0.012   9.281   8.676
91581SOL     OW76639   5.558  12.875  12.548
91581SOL    HW176640   5.525  12.796  12.591
91581SOL    HW276641   5.596  12.843  12.466
91582SOL     OW76642   8.064  12.414   6.697
91582SOL    HW176643   8.083  12.481   6.763
91582SOL    HW276644   8.144  12.362   6.691
91583SOL     OW76645  11.283   5.831  12.312
91583SOL    HW176646  11.202   5.782  12.297
91583SOL    HW276647  11.278   5.858  12.404
91584SOL     OW76648   6.345   6.279  11.563
91584SOL    HW176649   6.272   6.231  11.524
91584SOL    HW276650   6.393   6.315  11.488
91585SOL     OW76651   2.995   3.891   1.162
91585SOL    HW176652   3.039   3.934   1.235
91585SOL    HW276653   3.055   3.822   1.134
91586SOL     OW76654  11.965   2.802   4.696
91586SOL    HW176655  12.029   2.830   4.631
91586SOL    HW276656  11.976   2.865   4.768
91587SOL     OW76657   3.488   9.182   9.346
91587SOL    HW176658   3.441   9.102   9.322
91587SOL    HW276659   3.575   9.151   9.372
91588SOL     OW76660  11.020   2.606   1.579
91588SOL    HW176661  10.967   2.607   1.500
91588SOL    HW276662  11.111   2.601   1.548
91589SOL     OW76663   9.987   6.401  12.727
91589SOL    HW176664  10.066   6.405  12.782
91589SOL    HW276665   9.997   6.475  12.666
91590SOL     OW76666   1.989   0.280   9.863
91590SOL    HW176667   2.085   0.278   9.857
91590SOL    HW276668   1.963   0.188   9.855
91591SOL     OW76669   7.831  14.363   5.845
91591SOL    HW176670   7.912  14.317   5.869
91591SOL    HW276671   7.812  14.420   5.919
91592SOL     OW76672  13.753   1.897   1.521
91592SOL    HW176673  13.657   1.894   1.518
91592SOL    HW276674  13.773   1.921   1.612
91593SOL     OW76675  12.725   4.853   5.885
91593SOL    HW176676  12.776   4.931   5.865
91593SOL    HW276677  12.779   4.780   5.853
91594SOL     OW76678   5.580  11.626  10.059
91594SOL    HW176679   5.492  11.591  10.043
91594SOL    HW276680   5.566  11.705  10.111
91595SOL     OW76681   9.822  14.431   6.297
91595SOL    HW176682   9.852  14.395   6.214
91595SOL    HW276683   9.733  14.398   6.307
91596SOL     OW76684   0.878   5.410   6.050
91596SOL    HW176685   0.802   5.362   6.081
91596SOL    HW276686   0.916   5.354   5.983
91597SOL     OW76687   7.243  13.153   2.143
91597SOL    HW176688   7.328  13.142   2.102
91597SOL    HW276689   7.184  13.097   2.093
91598SOL     OW76690   9.957  10.568   3.327
91598SOL    HW176691   9.980  10.628   3.398
91598SOL    HW276692  10.001  10.486   3.350
91599SOL     OW76693  11.665   3.869   8.608
91599SOL    HW176694  11.669   3.811   8.532
91599SOL    HW276695  11.589   3.839   8.657
91600SOL     OW76696   5.755   2.162  11.735
91600SOL    HW176697   5.765   2.169  11.640
91600SOL    HW276698   5.718   2.075  11.749
91601SOL     OW76699   8.979   5.642  10.645
91601SOL    HW176700   9.009   5.681  10.563
91601SOL    HW276701   9.059   5.609  10.687
91602SOL     OW76702  11.395  10.174   6.523
91602SOL    HW176703  11.413  10.165   6.616
91602SOL    HW276704  11.300  10.185   6.518
91603SOL     OW76705   9.493   2.789   2.983
91603SOL    HW176706   9.399   2.790   2.963
91603SOL    HW276707   9.499   2.817   3.074
91604SOL     OW76708   1.804  10.973   9.333
91604SOL    HW176709   1.787  11.030   9.407
91604SOL    HW276710   1.736  10.906   9.337
91605SOL     OW76711   7.973   3.760   2.624
91605SOL    HW176712   8.051   3.705   2.630
91605SOL    HW276713   7.902   3.699   2.606
91606SOL     OW76714  12.638   1.512  14.118
91606SOL    HW176715  12.661   1.515  14.025
91606SOL    HW276716  12.547   1.480  14.120
91607SOL     OW76717   0.768  12.469  10.332
91607SOL    HW176718   0.843  12.527  10.346
91607SOL    HW276719   0.701  12.526  10.294
91608SOL     OW76720   0.695  12.686   1.945
91608SOL    HW176721   0.766  12.634   1.907
91608SOL    HW276722   0.667  12.635   2.021
91609SOL     OW76723   6.466   8.836   5.063
91609SOL    HW176724   6.475   8.888   4.983
91609SOL    HW276725   6.402   8.769   5.041
91610SOL     OW76726   3.134  11.184   1.081
91610SOL    HW176727   3.141  11.279   1.090
91610SOL    HW276728   3.080  11.171   1.004
91611SOL     OW76729   2.344  10.061   2.796
91611SOL    HW176730   2.309  10.121   2.862
91611SOL    HW276731   2.281  10.065   2.724
91612SOL     OW76732   1.036  12.733  11.140
91612SOL    HW176733   1.066  12.693  11.222
91612SOL    HW276734   1.055  12.826  11.151
91613SOL     OW76735   2.836   1.845   9.682
91613SOL    HW176736   2.808   1.936   9.677
91613SOL    HW276737   2.859   1.832   9.774
91614SOL     OW76738   0.032   7.395  10.370
91614SOL    HW176739   0.099   7.444  10.322
91614SOL    HW276740  14.831   7.423  10.329
91615SOL     OW76741   0.009  13.322   4.075
91615SOL    HW176742  14.856  13.367   3.998
91615SOL    HW276743   0.101  13.308   4.054
91616SOL     OW76744  12.034  12.337  13.828
91616SOL    HW176745  11.963  12.347  13.891
91616SOL    HW276746  12.080  12.421  13.830
91617SOL     OW76747   2.439   0.852   9.803
91617SOL    HW176748   2.506   0.894   9.858
91617SOL    HW276749   2.399   0.925   9.755
91618SOL     OW76750   3.520   0.435  10.028
91618SOL    HW176751   3.598   0.447  10.081
91618SOL    HW276752   3.496   0.523   9.999
91619SOL     OW76753  12.912   6.334   5.827
91619SOL    HW176754  12.914   6.350   5.733
91619SOL    HW276755  12.928   6.240   5.837
91620SOL     OW76756   5.811  11.339  14.606
91620SOL    HW176757   5.864  11.375  14.535
91620SOL    HW276758   5.863  11.268  14.642
91621SOL     OW76759   0.939   1.622  14.178
91621SOL    HW176760   0.959   1.618  14.272
91621SOL    HW276761   0.969   1.709  14.152
91622SOL     OW76762   8.153   7.930  12.904
91622SOL    HW176763   8.171   7.847  12.860
91622SOL    HW276764   8.066   7.918  12.944
91623SOL     OW76765   4.542   7.670   5.292
91623SOL    HW176766   4.581   7.755   5.272
91623SOL    HW276767   4.452   7.689   5.315
91624SOL     OW76768  13.856  14.120   6.189
91624SOL    HW176769  13.872  14.213   6.174
91624SOL    HW276770  13.881  14.078   6.107
91625SOL     OW76771   9.263  10.582  11.892
91625SOL    HW176772   9.347  10.627  11.897
91625SOL    HW276773   9.199  10.651  11.913
91626SOL     OW76774   2.152   3.160   6.744
91626SOL    HW176775   2.107   3.118   6.672
91626SOL    HW276776   2.146   3.098   6.817
91627SOL     OW76777   1.737   2.889  10.906
91627SOL    HW176778   1.817   2.932  10.939
91627SOL    HW276779   1.759   2.861  10.817
91628SOL     OW76780  14.428  12.185   9.902
91628SOL    HW176781  14.396  12.149   9.984
91628SOL    HW276782  14.455  12.274   9.924
91629SOL     OW76783   0.358  12.631  12.246
91629SOL    HW176784   0.386  12.635  12.338
91629SOL    HW276785   0.333  12.720  12.224
91630SOL     OW76786  12.377   8.304   5.044
91630SOL    HW176787  12.348   8.213   5.031
91630SOL    HW276788  12.297   8.355   5.039
91631SOL     OW76789   8.728   5.276   1.028
91631SOL    HW176790   8.720   5.364   1.065
91631SOL    HW276791   8.806   5.281   0.973
91632SOL     OW76792  11.525  12.358   4.998
91632SOL    HW176793  11.521  12.376   4.904
91632SOL    HW276794  11.482  12.433   5.039
91633SOL     OW76795   9.094   1.612  12.455
91633SOL    HW176796   9.075   1.552  12.383
91633SOL    HW276797   9.061   1.697  12.426
91634SOL     OW76798  14.866   4.449  10.416
91634SOL    HW176799   0.024   4.531  10.442
91634SOL    HW276800  14.859   4.455  10.321
91635SOL     OW76801   8.780  12.499   7.023
91635SOL    HW176802   8.780  12.555   6.945
91635SOL    HW276803   8.797  12.412   6.989
91636SOL     OW76804   2.933   1.422   9.510
91636SOL    HW176805   2.940   1.328   9.526
91636SOL    HW276806   3.019   1.457   9.534
91637SOL     OW76807   7.435   4.227   7.768
91637SOL    HW176808   7.484   4.286   7.710
91637SOL    HW276809   7.344   4.235   7.739
91638SOL     OW76810   4.345   2.834  10.561
91638SOL    HW176811   4.267   2.833  10.506
91638SOL    HW276812   4.328   2.903  10.625
91639SOL     OW76813   3.422  11.981   7.518
91639SOL    HW176814   3.498  11.922   7.523
91639SOL    HW276815   3.434  12.041   7.592
91640SOL     OW76816   4.675   0.169   1.433
91640SOL    HW176817   4.634   0.115   1.366
91640SOL    HW276818   4.710   0.106   1.496
91641SOL     OW76819  14.402   0.999   6.794
91641SOL    HW176820  14.496   0.994   6.776
91641SOL    HW276821  14.362   1.007   6.707
91642SOL     OW76822   1.421   8.187   7.102
91642SOL    HW176823   1.354   8.255   7.100
91642SOL    HW276824   1.394   8.129   7.173
91643SOL     OW76825   9.842   8.789   5.142
91643SOL    HW176826   9.813   8.867   5.095
91643SOL    HW276827   9.775   8.775   5.209
91644SOL     OW76828   3.257  11.745  11.761
91644SOL    HW176829   3.258  11.665  11.814
91644SOL    HW276830   3.165  11.767  11.752
91645SOL     OW76831  10.942   2.582   9.828
91645SOL    HW176832  10.954   2.521   9.755
91645SOL    HW276833  10.979   2.536   9.904
91646SOL     OW76834   7.541  13.167  10.817
91646SOL    HW176835   7.493  13.094  10.779
91646SOL    HW276836   7.633  13.141  10.812
91647SOL     OW76837  12.534   2.074   6.397
91647SOL    HW176838  12.452   2.029   6.421
91647SOL    HW276839  12.562   2.032   6.316
91648SOL     OW76840   1.984   1.579   9.340
91648SOL    HW176841   1.910   1.633   9.310
91648SOL    HW276842   2.062   1.631   9.319
91649SOL     OW76843   8.133   8.358   6.495
91649SOL    HW176844   8.119   8.376   6.588
91649SOL    HW276845   8.214   8.308   6.492
91650SOL     OW76846  14.778   6.999   5.745
91650SOL    HW176847  14.768   7.026   5.653
91650SOL    HW276848  14.776   6.903   5.741
91651SOL     OW76849  13.698   5.947  10.639
91651SOL    HW176850  13.701   5.956  10.734
91651SOL    HW276851  13.606   5.956  10.617
91652SOL     OW76852   4.295   7.129   1.831
91652SOL    HW176853   4.387   7.107   1.848
91652SOL    HW276854   4.246   7.072   1.890
91653SOL     OW76855   9.925   3.866   3.017
91653SOL    HW176856   9.976   3.822   3.085
91653SOL    HW276857   9.952   3.823   2.936
91654SOL     OW76858   5.236   5.363  12.409
91654SOL    HW176859   5.226   5.269  12.419
91654SOL    HW276860   5.157   5.400  12.450
91655SOL     OW76861   1.809   0.582   2.652
91655SOL    HW176862   1.798   0.661   2.601
91655SOL    HW276863   1.719   0.556   2.675
91656SOL     OW76864  14.107   6.617  10.296
91656SOL    HW176865  14.074   6.638  10.383
91656SOL    HW276866  14.078   6.528  10.279
91657SOL     OW76867   0.677   0.241   8.523
91657SOL    HW176868   0.628   0.204   8.450
91657SOL    HW276869   0.736   0.171   8.551
91658SOL     OW76870  13.788   2.448   8.329
91658SOL    HW176871  13.850   2.488   8.269
91658SOL    HW276872  13.735   2.521   8.362
91659SOL     OW76873   0.241  11.793  13.426
91659SOL    HW176874   0.255  11.836  13.342
91659SOL    HW276875   0.190  11.714  13.405
91660SOL     OW76876   8.972   7.551   6.600
91660SOL    HW176877   8.958   7.596   6.516
91660SOL    HW276878   9.037   7.604   6.645
91661SOL     OW76879   4.216   9.178   3.826
91661SOL    HW176880   4.264   9.220   3.754
91661SOL    HW276881   4.174   9.102   3.785
91662SOL     OW76882   0.402  13.650   3.110
91662SOL    HW176883   0.356  13.569   3.135
91662SOL    HW276884   0.379  13.662   3.018
91663SOL     OW76885  10.983   4.026   5.235
91663SOL    HW176886  10.922   4.053   5.167
91663SOL    HW276887  10.929   4.010   5.312
91664SOL     OW76888   4.153   2.441   1.767
91664SOL    HW176889   4.134   2.375   1.700
91664SOL    HW276890   4.207   2.506   1.722
91665SOL     OW76891   2.802   0.949   0.848
91665SOL    HW176892   2.722   1.001   0.846
91665SOL    HW276893   2.772   0.860   0.865
91666SOL     OW76894   0.689   9.918   3.136
91666SOL    HW176895   0.596   9.898   3.147
91666SOL    HW276896   0.733   9.870   3.206
91667SOL     OW76897   6.217   0.565   4.422
91667SOL    HW176898   6.255   0.486   4.383
91667SOL    HW276899   6.124   0.560   4.403
91668SOL     OW76900   3.235  10.299   8.311
91668SOL    HW176901   3.145  10.274   8.294
91668SOL    HW276902   3.278  10.219   8.340
91669SOL     OW76903   1.404  11.714   3.555
91669SOL    HW176904   1.372  11.804   3.564
91669SOL    HW276905   1.490  11.723   3.513
91670SOL     OW76906   6.373   6.702   9.848
91670SOL    HW176907   6.373   6.773   9.784
91670SOL    HW276908   6.281   6.691   9.872
91671SOL     OW76909   0.452   5.820   2.530
91671SOL    HW176910   0.389   5.886   2.561
91671SOL    HW276911   0.495   5.862   2.455
91672SOL     OW76912   6.022   2.639  11.833
91672SOL    HW176913   5.973   2.590  11.768
91672SOL    HW276914   5.956   2.669  11.895
91673SOL     OW76915   1.584  11.911   3.778
91673SOL    HW176916   1.495  11.933   3.752
91673SOL    HW276917   1.576  11.825   3.819
91674SOL     OW76918   9.937   8.216   3.137
91674SOL    HW176919   9.910   8.288   3.080
91674SOL    HW276920   9.941   8.140   3.079
91675SOL     OW76921   1.726   1.663  11.121
91675SOL    HW176922   1.769   1.749  11.118
91675SOL    HW276923   1.795   1.601  11.100
91676SOL     OW76924  13.266   6.598   8.875
91676SOL    HW176925  13.270   6.676   8.931
91676SOL    HW276926  13.319   6.533   8.921
91677SOL     OW76927   4.837   5.515  10.477
91677SOL    HW176928   4.771   5.572  10.437
91677SOL    HW276929   4.921   5.555  10.456
91678SOL     OW76930   6.305  14.261   0.113
91678SOL    HW176931   6.295  14.197   0.042
91678SOL    HW276932   6.216  14.293   0.129
91679SOL     OW76933   8.100  13.922   0.670
91679SOL    HW176934   8.059  13.944   0.754
91679SOL    HW276935   8.029  13.933   0.606
91680SOL     OW76936   9.249   9.531  14.493
91680SOL    HW176937   9.217   9.617  14.467
91680SOL    HW276938   9.233   9.475  14.417
91681SOL     OW76939   2.708   0.675   0.858
91681SOL    HW176940   2.620   0.639   0.859
91681SOL    HW276941   2.758   0.614   0.804
91682SOL     OW76942  13.689   3.050   8.465
91682SOL    HW176943  13.741   3.098   8.401
91682SOL    HW276944  13.742   2.973   8.485
91683SOL     OW76945  10.216   0.315   3.523
91683SOL    HW176946  10.148   0.249   3.524
91683SOL    HW276947  10.276   0.288   3.593
91684SOL     OW76948   0.921  12.533   6.101
91684SOL    HW176949   0.976  12.575   6.036
91684SOL    HW276950   0.954  12.564   6.185
91685SOL     OW76951   4.288   3.601   6.559
91685SOL    HW176952   4.197   3.589   6.586
91685SOL    HW276953   4.300   3.539   6.487
91686SOL     OW76954   6.380  13.905  13.743
91686SOL    HW176955   6.355  13.955  13.820
91686SOL    HW276956   6.308  13.918  13.681
91687SOL     OW76957   9.238   6.446   7.660
91687SOL    HW176958   9.300   6.483   7.723
91687SOL    HW276959   9.155   6.488   7.681
91688SOL     OW76960  12.158   4.052   1.578
91688SOL    HW176961  12.110   4.116   1.525
91688SOL    HW276962  12.240   4.097   1.600
91689SOL     OW76963   2.170   3.503  13.806
91689SOL    HW176964   2.241   3.527  13.865
91689SOL    HW276965   2.213   3.485  13.722
91690SOL     OW76966   1.697   0.904   9.732
91690SOL    HW176967   1.709   0.989   9.775
91690SOL    HW276968   1.777   0.892   9.680
91691SOL     OW76969   2.648   7.318   2.863
91691SOL    HW176970   2.573   7.301   2.920
91691SOL    HW276971   2.703   7.240   2.873
91692SOL     OW76972   9.965   6.168  10.604
91692SOL    HW176973  10.011   6.205  10.679
91692SOL    HW276974   9.882   6.215  10.601
91693SOL     OW76975  11.511   1.710  12.794
91693SOL    HW176976  11.596   1.669  12.813
91693SOL    HW276977  11.522   1.747  12.706
91694SOL     OW76978   0.701   0.646   3.234
91694SOL    HW176979   0.700   0.741   3.221
91694SOL    HW276980   0.793   0.625   3.250
91695SOL     OW76981  13.703   1.677   5.454
91695SOL    HW176982  13.627   1.639   5.497
91695SOL    HW276983  13.667   1.739   5.389
91696SOL     OW76984  10.759   7.742  12.324
91696SOL    HW176985  10.694   7.756  12.256
91696SOL    HW276986  10.747   7.815  12.385
91697SOL     OW76987   4.122  13.467   5.281
91697SOL    HW176988   4.096  13.559   5.290
91697SOL    HW276989   4.101  13.445   5.191
91698SOL     OW76990   3.258   4.570   2.862
91698SOL    HW176991   3.163   4.573   2.849
91698SOL    HW276992   3.274   4.486   2.905
91699SOL     OW76993   7.093  14.784   7.366
91699SOL    HW176994   7.153  14.736   7.424
91699SOL    HW276995   7.148  14.814   7.294
91700SOL     OW76996   3.748   0.038   1.045
91700SOL    HW176997   3.763   0.129   1.072
91700SOL    HW276998   3.803   0.027   0.968
91701SOL     OW76999  12.253  12.590   0.262
91701SOL    HW177000  12.270  12.648   0.188
91701SOL    HW277001  12.292  12.635   0.337
91702SOL     OW77002  14.160   1.293   5.641
91702SOL    HW177003  14.081   1.269   5.689
91702SOL    HW277004  14.230   1.246   5.687
91703SOL     OW77005   9.470  14.528  14.818
91703SOL    HW177006   9.556  14.565  14.838
91703SOL    HW277007   9.430  14.510   0.021
91704SOL     OW77008  12.537  11.265   4.840
91704SOL    HW177009  12.617  11.215   4.828
91704SOL    HW277010  12.490  11.257   4.757
91705SOL     OW77011   5.098  13.126  11.684
91705SOL    HW177012   5.151  13.155  11.610
91705SOL    HW277013   5.049  13.204  11.711
91706SOL     OW77014  12.385   6.466   1.931
91706SOL    HW177015  12.348   6.548   1.897
91706SOL    HW277016  12.433   6.492   2.009
91707SOL     OW77017  10.021   8.116   2.163
91707SOL    HW177018  10.077   8.194   2.156
91707SOL    HW277019  10.007   8.090   2.072
91708SOL     OW77020   6.393   6.149  13.711
91708SOL    HW177021   6.397   6.059  13.678
91708SOL    HW277022   6.404   6.140  13.806
91709SOL     OW77023  13.174   3.383   8.926
91709SOL    HW177024  13.257   3.358   8.884
91709SOL    HW277025  13.198   3.404   9.016
91710SOL     OW77026   3.060  10.977   4.231
91710SOL    HW177027   3.147  10.980   4.272
91710SOL    HW277028   3.054  11.059   4.182
91711SOL     OW77029   2.889   2.784  14.022
91711SOL    HW177030   2.799   2.802  13.996
91711SOL    HW277031   2.882   2.722  14.095
91712SOL     OW77032  10.791  10.872  13.273
91712SOL    HW177033  10.799  10.834  13.361
91712SOL    HW277034  10.880  10.901  13.252
91713SOL     OW77035  10.200   7.190   5.682
91713SOL    HW177036  10.226   7.281   5.669
91713SOL    HW277037  10.159   7.165   5.599
91714SOL     OW77038   4.978  11.367  13.386
91714SOL    HW177039   4.923  11.436  13.350
91714SOL    HW277040   4.917  11.306  13.426
91715SOL     OW77041   3.983   7.455   0.980
91715SOL    HW177042   4.032   7.522   0.933
91715SOL    HW277043   3.944   7.402   0.911
91716SOL     OW77044   0.949   5.396  13.149
91716SOL    HW177045   0.881   5.445  13.104
91716SOL    HW277046   0.994   5.347  13.080
91717SOL     OW77047   3.117   9.767  12.061
91717SOL    HW177048   3.051   9.698  12.050
91717SOL    HW277049   3.122   9.782  12.156
91718SOL     OW77050   1.690  12.639  14.256
91718SOL    HW177051   1.649  12.613  14.339
91718SOL    HW277052   1.713  12.556  14.214
91719SOL     OW77053  14.555   3.556   1.048
91719SOL    HW177054  14.526   3.626   0.988
91719SOL    HW277055  14.522   3.476   1.008
91720SOL     OW77056  14.177   6.719  10.808
91720SOL    HW177057  14.258   6.668  10.815
91720SOL    HW277058  14.198   6.803  10.849
91721SOL     OW77059   1.455  13.713  14.693
91721SOL    HW177060   1.427  13.729  14.783
91721SOL    HW277061   1.540  13.757  14.685
91722SOL     OW77062  13.170  14.386  14.486
91722SOL    HW177063  13.107  14.325  14.525
91722SOL    HW277064  13.122  14.469  14.479
91723SOL     OW77065   5.545  12.275  13.563
91723SOL    HW177066   5.540  12.323  13.480
91723SOL    HW277067   5.602  12.200  13.544
91724SOL     OW77068   8.380   6.528   2.138
91724SOL    HW177069   8.386   6.435   2.158
91724SOL    HW277070   8.470   6.555   2.121
91725SOL     OW77071  14.256   4.677   0.638
91725SOL    HW177072  14.162   4.660   0.634
91725SOL    HW277073  14.267   4.733   0.715
91726SOL     OW77074   3.143   8.406  10.709
91726SOL    HW177075   3.154   8.322  10.755
91726SOL    HW277076   3.056   8.400  10.670
91727SOL     OW77077   1.349  13.449   8.873
91727SOL    HW177078   1.276  13.389   8.859
91727SOL    HW277079   1.362  13.492   8.789
91728SOL     OW77080  12.588  14.692   5.982
91728SOL    HW177081  12.580  14.651   5.896
91728SOL    HW277082  12.566  14.624   6.044
91729SOL     OW77083   9.375   0.063   2.020
91729SOL    HW177084   9.376  14.854   2.048
91729SOL    HW277085   9.460   0.076   1.977
91730SOL     OW77086  14.245   2.893   9.796
91730SOL    HW177087  14.187   2.854   9.730
91730SOL    HW277088  14.331   2.893   9.755
91731SOL     OW77089  13.375  10.871  12.399
91731SOL    HW177090  13.429  10.940  12.436
91731SOL    HW277091  13.419  10.846  12.318
91732SOL     OW77092   5.523   4.598   6.519
91732SOL    HW177093   5.476   4.681   6.527
91732SOL    HW277094   5.490   4.545   6.591
91733SOL     OW77095   9.945   8.008   0.209
91733SOL    HW177096   9.959   7.938   0.146
91733SOL    HW277097   9.854   7.999   0.237
91734SOL     OW77098  12.911   3.477  12.931
91734SOL    HW177099  12.890   3.520  13.014
91734SOL    HW277100  12.995   3.434  12.946
91735SOL     OW77101   3.843  11.851  14.840
91735SOL    HW177102   3.818  11.915  14.773
91735SOL    HW277103   3.933  11.828  14.818
91736SOL     OW77104  14.700   7.724   2.036
91736SOL    HW177105  14.630   7.783   2.007
91736SOL    HW277106  14.662   7.637   2.031
91737SOL     OW77107   0.709   5.768   9.180
91737SOL    HW177108   0.617   5.744   9.182
91737SOL    HW277109   0.737   5.764   9.271
91738SOL     OW77110  11.137  13.728  12.059
91738SOL    HW177111  11.156  13.808  12.108
91738SOL    HW277112  11.128  13.660  12.125
91739SOL     OW77113   5.188   0.010   1.632
91739SOL    HW177114   5.223   0.088   1.676
91739SOL    HW277115   5.142   0.044   1.556
91740SOL     OW77116   0.289  13.021  13.264
91740SOL    HW177117   0.225  12.958  13.231
91740SOL    HW277118   0.270  13.026  13.358
91741SOL     OW77119  13.658  12.560  13.209
91741SOL    HW177120  13.713  12.504  13.263
91741SOL    HW277121  13.641  12.637  13.264
91742SOL     OW77122   9.193   4.335   6.205
91742SOL    HW177123   9.141   4.309   6.281
91742SOL    HW277124   9.133   4.385   6.150
91743SOL     OW77125   8.907   4.784   2.633
91743SOL    HW177126   8.849   4.796   2.558
91743SOL    HW277127   8.872   4.708   2.678
91744SOL     OW77128  13.355  14.167  14.754
91744SOL    HW177129  13.295  14.126  14.816
91744SOL    HW277130  13.330  14.260  14.755
91745SOL     OW77131  14.578  12.845   3.790
91745SOL    HW177132  14.551  12.794   3.866
91745SOL    HW277133  14.505  12.904   3.773
91746SOL     OW77134  14.295  14.651   7.039
91746SOL    HW177135  14.229  14.678   6.975
91746SOL    HW277136  14.376  14.690   7.007
91747SOL     OW77137   9.089   1.214   2.498
91747SOL    HW177138   9.118   1.284   2.439
91747SOL    HW277139   9.006   1.184   2.460
91748SOL     OW77140  11.148   6.653   8.006
91748SOL    HW177141  11.147   6.734   8.057
91748SOL    HW277142  11.195   6.591   8.062
91749SOL     OW77143   6.796   5.883   0.774
91749SOL    HW177144   6.715   5.931   0.788
91749SOL    HW277145   6.857   5.920   0.837
91750SOL     OW77146  11.971  14.223  12.368
91750SOL    HW177147  11.928  14.141  12.345
91750SOL    HW277148  11.915  14.291  12.331
91751SOL     OW77149  14.633   2.284   9.474
91751SOL    HW177150  14.712   2.337   9.468
91751SOL    HW277151  14.562   2.346   9.489
91752SOL     OW77152  13.498   3.425  11.733
91752SOL    HW177153  13.565   3.440  11.666
91752SOL    HW277154  13.456   3.344  11.707
91753SOL     OW77155   5.183  11.922   1.336
91753SOL    HW177156   5.212  11.990   1.276
91753SOL    HW277157   5.232  11.844   1.308
91754SOL     OW77158   7.354   3.541   2.861
91754SOL    HW177159   7.351   3.465   2.919
91754SOL    HW277160   7.333   3.616   2.918
91755SOL     OW77161   9.616   6.046   1.797
91755SOL    HW177162   9.610   6.103   1.874
91755SOL    HW277163   9.534   5.997   1.797
91756SOL     OW77164  11.089  12.264  11.592
91756SOL    HW177165  11.045  12.322  11.529
91756SOL    HW277166  11.026  12.255  11.663
91757SOL     OW77167   3.390   7.311  11.811
91757SOL    HW177168   3.414   7.256  11.886
91757SOL    HW277169   3.464   7.372  11.803
91758SOL     OW77170   7.364  14.855   2.975
91758SOL    HW177171   7.326  14.774   3.009
91758SOL    HW277172   7.414   0.008   3.048
91759SOL     OW77173   1.148   1.824   5.377
91759SOL    HW177174   1.086   1.838   5.448
91759SOL    HW277175   1.095   1.828   5.297
91760SOL     OW77176   4.907   2.933   1.727
91760SOL    HW177177   4.986   2.980   1.754
91760SOL    HW277178   4.905   2.855   1.782
91761SOL     OW77179  12.167   9.104  10.632
91761SOL    HW177180  12.230   9.125  10.563
91761SOL    HW277181  12.130   9.188  10.657
91762SOL     OW77182   9.395  12.577  13.204
91762SOL    HW177183   9.343  12.554  13.280
91762SOL    HW277184   9.398  12.498  13.151
91763SOL     OW77185  14.292   0.428  10.761
91763SOL    HW177186  14.355   0.360  10.787
91763SOL    HW277187  14.207   0.390  10.782
91764SOL     OW77188   1.716  11.107  12.791
91764SOL    HW177189   1.664  11.184  12.815
91764SOL    HW277190   1.802  11.123  12.829
91765SOL     OW77191  13.331  12.898   5.853
91765SOL    HW177192  13.281  12.817   5.861
91765SOL    HW277193  13.268  12.962   5.820
91766SOL     OW77194   5.870  10.868   3.428
91766SOL    HW177195   5.945  10.815   3.457
91766SOL    HW277196   5.828  10.896   3.509
91767SOL     OW77197  11.600  13.794   8.226
91767SOL    HW177198  11.521  13.765   8.182
91767SOL    HW277199  11.570  13.831   8.309
91768SOL     OW77200  11.972   9.549   0.930
91768SOL    HW177201  11.948   9.540   0.838
91768SOL    HW277202  11.889   9.565   0.975
91769SOL     OW77203   2.953   5.598   9.364
91769SOL    HW177204   3.037   5.622   9.402
91769SOL    HW277205   2.969   5.598   9.269
91770SOL     OW77206   0.073   6.291   3.896
91770SOL    HW177207   0.142   6.259   3.837
91770SOL    HW277208   0.029   6.360   3.846
91771SOL     OW77209   1.791   9.642   0.514
91771SOL    HW177210   1.746   9.557   0.516
91771SOL    HW277211   1.883   9.621   0.525
91772SOL     OW77212   3.542  12.056   5.934
91772SOL    HW177213   3.553  11.961   5.928
91772SOL    HW277214   3.576  12.089   5.851
91773SOL     OW77215   0.071   1.168   9.205
91773SOL    HW177216   0.072   1.073   9.214
91773SOL    HW277217   0.073   1.183   9.110
91774SOL     OW77218   9.376   2.509   4.589
91774SOL    HW177219   9.322   2.585   4.612
91774SOL    HW277220   9.466   2.543   4.589
91775SOL     OW77221  11.121  13.453   1.729
91775SOL    HW177222  11.078  13.535   1.752
91775SOL    HW277223  11.191  13.478   1.668
91776SOL     OW77224   5.430  10.553  14.534
91776SOL    HW177225   5.451  10.561  14.627
91776SOL    HW277226   5.480  10.477  14.504
91777SOL     OW77227   3.155   2.161   2.861
91777SOL    HW177228   3.243   2.139   2.831
91777SOL    HW277229   3.097   2.130   2.792
91778SOL     OW77230   5.423   0.308  13.508
91778SOL    HW177231   5.361   0.379  13.525
91778SOL    HW277232   5.381   0.231  13.545
91779SOL     OW77233   8.647   2.225   7.700
91779SOL    HW177234   8.740   2.202   7.694
91779SOL    HW277235   8.637   2.265   7.787
91780SOL     OW77236   0.613   6.143   7.704
91780SOL    HW177237   0.633   6.105   7.789
91780SOL    HW277238   0.696   6.178   7.672
91781SOL     OW77239   2.459  11.445   7.629
91781SOL    HW177240   2.520  11.504   7.585
91781SOL    HW277241   2.473  11.360   7.585
91782SOL     OW77242   1.833   6.413   1.610
91782SOL    HW177243   1.765   6.378   1.552
91782SOL    HW277244   1.834   6.507   1.592
91783SOL     OW77245   1.199   0.603  12.046
91783SOL    HW177246   1.236   0.555  11.971
91783SOL    HW277247   1.245   0.687  12.045
91784SOL     OW77248   4.824   5.212   5.396
91784SOL    HW177249   4.828   5.306   5.415
91784SOL    HW277250   4.855   5.170   5.476
91785SOL     OW77251   0.552  10.347   7.524
91785SOL    HW177252   0.602  10.272   7.490
91785SOL    HW277253   0.615  10.395   7.578
91786SOL     OW77254   3.441   1.793   7.386
91786SOL    HW177255   3.534   1.807   7.369
91786SOL    HW277256   3.424   1.839   7.468
91787SOL     OW77257  10.431  14.500   2.171
91787SOL    HW177258  10.404  14.525   2.260
91787SOL    HW277259  10.377  14.423   2.151
91788SOL     OW77260   1.903  13.333   4.460
91788SOL    HW177261   1.930  13.248   4.494
91788SOL    HW277262   1.984  13.375   4.433
91789SOL     OW77263  10.589   6.215  10.643
91789SOL    HW177264  10.548   6.129  10.655
91789SOL    HW277265  10.642   6.228  10.722
91790SOL     OW77266   1.550  10.863  11.981
91790SOL    HW177267   1.457  10.847  11.996
91790SOL    HW277268   1.581  10.904  12.062
91791SOL     OW77269   6.445   3.496   6.077
91791SOL    HW177270   6.393   3.436   6.023
91791SOL    HW277271   6.391   3.575   6.084
91792SOL     OW77272   3.099   6.685   1.552
91792SOL    HW177273   3.025   6.640   1.513
91792SOL    HW277274   3.145   6.617   1.602
91793SOL     OW77275  12.400   0.151   2.329
91793SOL    HW177276  12.470   0.175   2.268
91793SOL    HW277277  12.330   0.214   2.311
91794SOL     OW77278   4.684   2.158  14.859
91794SOL    HW177279   4.634   2.236  14.835
91794SOL    HW277280   4.661   2.093  14.792
91795SOL     OW77281   8.168   5.386   7.258
91795SOL    HW177282   8.110   5.333   7.313
91795SOL    HW277283   8.256   5.355   7.281
91796SOL     OW77284  14.800   1.252  14.251
91796SOL    HW177285  14.706   1.254  14.234
91796SOL    HW277286  14.840   1.278  14.168
91797SOL     OW77287   8.778   8.467   2.732
91797SOL    HW177288   8.807   8.377   2.748
91797SOL    HW277289   8.726   8.462   2.652
91798SOL     OW77290  11.209   4.531   3.216
91798SOL    HW177291  11.160   4.532   3.134
91798SOL    HW277292  11.258   4.448   3.213
91799SOL     OW77293   9.464   9.630   8.049
91799SOL    HW177294   9.498   9.572   8.117
91799SOL    HW277295   9.537   9.689   8.030
91800SOL     OW77296   2.817  10.329   8.657
91800SOL    HW177297   2.805  10.423   8.646
91800SOL    HW277298   2.900  10.310   8.613
91801SOL     OW77299  11.008   5.758   7.727
91801SOL    HW177300  11.059   5.680   7.748
91801SOL    HW277301  11.034   5.780   7.637
91802SOL     OW77302  11.788   6.058   6.028
91802SOL    HW177303  11.735   6.066   6.108
91802SOL    HW277304  11.735   6.101   5.961
91803SOL     OW77305   5.782  12.208   8.523
91803SOL    HW177306   5.710  12.250   8.475
91803SOL    HW277307   5.829  12.281   8.563
91804SOL     OW77308   2.523   1.017   4.824
91804SOL    HW177309   2.512   0.946   4.762
91804SOL    HW277310   2.617   1.038   4.820
91805SOL     OW77311   1.889  10.564  13.010
91805SOL    HW177312   1.907  10.511  12.933
91805SOL    HW277313   1.828  10.512  13.062
91806SOL     OW77314   7.035  13.403  13.707
91806SOL    HW177315   6.954  13.429  13.750
91806SOL    HW277316   7.100  13.401  13.778
91807SOL     OW77317   0.293  14.688   5.884
91807SOL    HW177318   0.348  14.762   5.907
91807SOL    HW277319   0.210  14.704   5.929
91808SOL     OW77320  14.239  11.519   5.024
91808SOL    HW177321  14.239  11.518   5.120
91808SOL    HW277322  14.146  11.523   5.000
91809SOL     OW77323   2.730   7.785  14.283
91809SOL    HW177324   2.729   7.735  14.365
91809SOL    HW277325   2.792   7.738  14.228
91810SOL     OW77326   9.524   5.957   1.507
91810SOL    HW177327   9.563   6.044   1.508
91810SOL    HW277328   9.505   5.939   1.415
91811SOL     OW77329   0.383   1.630  12.724
91811SOL    HW177330   0.417   1.575  12.795
91811SOL    HW277331   0.363   1.569  12.653
91812SOL     OW77332   9.700   0.924  13.663
91812SOL    HW177333   9.738   0.837  13.667
91812SOL    HW277334   9.683   0.939  13.570
91813SOL     OW77335   9.364   0.467  12.808
91813SOL    HW177336   9.289   0.438  12.861
91813SOL    HW277337   9.440   0.445  12.862
91814SOL     OW77338   9.812   5.048   7.964
91814SOL    HW177339   9.884   5.111   7.955
91814SOL    HW277340   9.815   4.998   7.882
91815SOL     OW77341   4.973  12.666  11.481
91815SOL    HW177342   4.945  12.699  11.567
91815SOL    HW277343   4.927  12.723  11.419
91816SOL     OW77344   7.099   4.916   5.074
91816SOL    HW177345   7.093   4.824   5.097
91816SOL    HW277346   7.125   4.960   5.155
91817SOL     OW77347   5.251  12.741   8.745
91817SOL    HW177348   5.167  12.736   8.792
91817SOL    HW277349   5.315  12.705   8.807
91818SOL     OW77350   9.338  14.049   5.455
91818SOL    HW177351   9.374  14.012   5.374
91818SOL    HW277352   9.262  13.994   5.475
91819SOL     OW77353  10.634  12.883   8.023
91819SOL    HW177354  10.603  12.973   8.015
91819SOL    HW277355  10.729  12.889   8.016
91820SOL     OW77356   8.380  13.298   2.693
91820SOL    HW177357   8.330  13.342   2.762
91820SOL    HW277358   8.398  13.368   2.629
91821SOL     OW77359   8.615   8.745  12.497
91821SOL    HW177360   8.645   8.673  12.442
91821SOL    HW277361   8.602   8.818  12.437
91822SOL     OW77362  11.724  13.987   5.198
91822SOL    HW177363  11.671  14.050   5.149
91822SOL    HW277364  11.666  13.913   5.214
91823SOL     OW77365  13.741   2.139   0.092
91823SOL    HW177366  13.766   2.049   0.112
91823SOL    HW277367  13.649   2.135   0.067
91824SOL     OW77368   0.143  14.484   4.380
91824SOL    HW177369   0.188  14.410   4.340
91824SOL    HW277370   0.082  14.515   4.313
91825SOL     OW77371   1.233   2.006  12.076
91825SOL    HW177372   1.156   1.972  12.030
91825SOL    HW277373   1.230   1.963  12.162
91826SOL     OW77374   8.353  10.983   7.619
91826SOL    HW177375   8.288  10.985   7.690
91826SOL    HW277376   8.425  11.037   7.652
91827SOL     OW77377   5.303   6.852   9.098
91827SOL    HW177378   5.219   6.879   9.134
91827SOL    HW277379   5.318   6.913   9.025
91828SOL     OW77380   1.995   9.930   9.973
91828SOL    HW177381   1.989  10.026   9.979
91828SOL    HW277382   2.048   9.914   9.895
91829SOL     OW77383   8.898   2.461   9.502
91829SOL    HW177384   8.893   2.435   9.594
91829SOL    HW277385   8.946   2.545   9.503
91830SOL     OW77386  12.239   6.563   0.756
91830SOL    HW177387  12.307   6.625   0.781
91830SOL    HW277388  12.157   6.606   0.781
91831SOL     OW77389  14.131   4.494   3.936
91831SOL    HW177390  14.198   4.560   3.952
91831SOL    HW277391  14.073   4.533   3.871
91832SOL     OW77392   7.110   4.167   2.098
91832SOL    HW177393   7.026   4.122   2.082
91832SOL    HW277394   7.088   4.260   2.093
91833SOL     OW77395   8.331   8.441   0.952
91833SOL    HW177396   8.355   8.473   0.866
91833SOL    HW277397   8.247   8.483   0.971
91834SOL     OW77398   5.668   4.307   3.616
91834SOL    HW177399   5.710   4.268   3.693
91834SOL    HW277400   5.577   4.321   3.643
91835SOL     OW77401  13.778   5.414   1.118
91835SOL    HW177402  13.702   5.471   1.106
91835SOL    HW277403  13.776   5.355   1.042
91836SOL     OW77404   8.683   1.815  11.519
91836SOL    HW177405   8.727   1.900  11.523
91836SOL    HW277406   8.737   1.757  11.572
91837SOL     OW77407   8.794   2.302   0.155
91837SOL    HW177408   8.733   2.251   0.208
91837SOL    HW277409   8.740   2.372   0.117
91838SOL     OW77410   1.075   9.507  12.552
91838SOL    HW177411   0.992   9.499  12.504
91838SOL    HW277412   1.135   9.449  12.506
91839SOL     OW77413   3.578   9.493  11.928
91839SOL    HW177414   3.660   9.505  11.976
91839SOL    HW277415   3.524   9.438  11.985
91840SOL     OW77416   4.421   4.304   7.928
91840SOL    HW177417   4.337   4.262   7.911
91840SOL    HW277418   4.408   4.395   7.900
91841SOL     OW77419  10.704  14.137   0.745
91841SOL    HW177420  10.770  14.090   0.694
91841SOL    HW277421  10.665  14.069   0.801
91842SOL     OW77422   8.156   4.343   3.784
91842SOL    HW177423   8.091   4.318   3.849
91842SOL    HW277424   8.229   4.283   3.800
91843SOL     OW77425  12.498   9.897  12.379
91843SOL    HW177426  12.483   9.941  12.463
91843SOL    HW277427  12.416   9.850  12.362
91844SOL     OW77428   8.729  10.815  11.862
91844SOL    HW177429   8.693  10.856  11.941
91844SOL    HW277430   8.703  10.723  11.869
91845SOL     OW77431   4.506   0.856  12.522
91845SOL    HW177432   4.437   0.794  12.545
91845SOL    HW277433   4.486   0.883  12.433
91846SOL     OW77434   1.422   3.198   7.874
91846SOL    HW177435   1.338   3.155   7.858
91846SOL    HW277436   1.409   3.288   7.845
91847SOL     OW77437   9.270   3.861  14.009
91847SOL    HW177438   9.195   3.808  14.036
91847SOL    HW277439   9.235   3.949  13.997
91848SOL     OW77440   8.104  12.604  13.806
91848SOL    HW177441   8.117  12.585  13.713
91848SOL    HW277442   8.155  12.537  13.852
91849SOL     OW77443   4.970  11.484   8.545
91849SOL    HW177444   5.015  11.404   8.518
91849SOL    HW277445   4.879  11.469   8.521
91850SOL     OW77446   2.237   5.473  13.433
91850SOL    HW177447   2.258   5.435  13.519
91850SOL    HW277448   2.258   5.405  13.370
91851SOL     OW77449   6.644   6.925  10.693
91851SOL    HW177450   6.590   6.896  10.620
91851SOL    HW277451   6.659   7.018  10.677
91852SOL     OW77452   4.565   7.338  13.990
91852SOL    HW177453   4.604   7.390  13.920
91852SOL    HW277454   4.489   7.295  13.949
91853SOL     OW77455   0.110   6.323  14.627
91853SOL    HW177456   0.124   6.403  14.677
91853SOL    HW277457   0.026   6.289  14.659
91854SOL     OW77458   2.054   3.150   9.773
91854SOL    HW177459   2.098   3.227   9.738
91854SOL    HW277460   2.010   3.181   9.852
91855SOL     OW77461   8.194   6.252  10.451
91855SOL    HW177462   8.193   6.218  10.362
91855SOL    HW277463   8.260   6.321  10.450
91856SOL     OW77464  11.862   8.411   5.062
91856SOL    HW177465  11.859   8.496   5.019
91856SOL    HW277466  11.779   8.405   5.110
91857SOL     OW77467   6.200   1.372   3.601
91857SOL    HW177468   6.264   1.402   3.536
91857SOL    HW277469   6.120   1.418   3.577
91858SOL     OW77470   3.643   2.171  14.340
91858SOL    HW177471   3.645   2.080  14.309
91858SOL    HW277472   3.736   2.194  14.351
91859SOL     OW77473   0.219   2.067  12.121
91859SOL    HW177474   0.256   1.980  12.139
91859SOL    HW277475   0.235   2.117  12.201
91860SOL     OW77476   8.343  11.960   9.838
91860SOL    HW177477   8.342  11.932   9.746
91860SOL    HW277478   8.293  12.041   9.838
91861SOL     OW77479   4.895  11.036  10.777
91861SOL    HW177480   4.935  10.957  10.813
91861SOL    HW277481   4.960  11.070  10.715
91862SOL     OW77482  14.248  14.842  13.589
91862SOL    HW177483  14.250  14.761  13.639
91862SOL    HW277484  14.183  14.826  13.520
91863SOL     OW77485  11.665   0.231   6.811
91863SOL    HW177486  11.660   0.287   6.888
91863SOL    HW277487  11.615   0.154   6.834
91864SOL     OW77488   5.769   7.978  12.887
91864SOL    HW177489   5.820   7.903  12.856
91864SOL    HW277490   5.745   8.026  12.808
91865SOL     OW77491   6.357   9.552   6.216
91865SOL    HW177492   6.397   9.512   6.139
91865SOL    HW277493   6.428   9.559   6.279
91866SOL     OW77494  13.501   2.640  14.455
91866SOL    HW177495  13.441   2.609  14.523
91866SOL    HW277496  13.496   2.735  14.460
91867SOL     OW77497   0.885   2.804   7.062
91867SOL    HW177498   0.807   2.851   7.033
91867SOL    HW277499   0.865   2.779   7.152
91868SOL     OW77500   0.819   1.085   8.708
91868SOL    HW177501   0.781   1.060   8.624
91868SOL    HW277502   0.803   1.179   8.715
91869SOL     OW77503   6.088   9.056   1.032
91869SOL    HW177504   6.015   9.091   1.084
91869SOL    HW277505   6.111   9.127   0.972
91870SOL     OW77506  12.714   2.876   9.697
91870SOL    HW177507  12.724   2.781   9.699
91870SOL    HW277508  12.619   2.890   9.700
91871SOL     OW77509   0.010   2.263  10.964
91871SOL    HW177510  14.805   2.242  10.997
91871SOL    HW277511   0.024   2.201  10.892
91872SOL     OW77512   1.802   6.803  12.191
91872SOL    HW177513   1.796   6.722  12.141
91872SOL    HW277514   1.719   6.807  12.240
91873SOL     OW77515   2.716  11.956  12.947
91873SOL    HW177516   2.658  12.015  12.995
91873SOL    HW277517   2.788  12.012  12.917
91874SOL     OW77518   7.305   1.007  12.223
91874SOL    HW177519   7.368   1.069  12.186
91874SOL    HW277520   7.247   0.985  12.150
91875SOL     OW77521   5.049   7.597   1.557
91875SOL    HW177522   5.074   7.679   1.599
91875SOL    HW277523   5.129   7.544   1.560
91876SOL     OW77524   0.894   2.301   8.719
91876SOL    HW177525   0.831   2.266   8.657
91876SOL    HW277526   0.906   2.231   8.783
91877SOL     OW77527   6.746   8.762  10.333
91877SOL    HW177528   6.763   8.758  10.428
91877SOL    HW277529   6.823   8.722  10.293
91878SOL     OW77530   2.696   7.147   9.208
91878SOL    HW177531   2.789   7.144   9.232
91878SOL    HW277532   2.653   7.186   9.284
91879SOL     OW77533   5.859   2.431  12.638
91879SOL    HW177534   5.911   2.358  12.605
91879SOL    HW277535   5.923   2.493  12.672
91880SOL     OW77536  14.831  11.129   2.122
91880SOL    HW177537  14.777  11.165   2.192
91880SOL    HW277538  14.769  11.102   2.055
91881SOL     OW77539  10.843   3.280   3.040
91881SOL    HW177540  10.821   3.227   3.117
91881SOL    HW277541  10.898   3.350   3.073
91882SOL     OW77542   8.399   6.748  10.480
91882SOL    HW177543   8.328   6.753  10.416
91882SOL    HW277544   8.354   6.738  10.564
91883SOL     OW77545  10.328   6.317  13.566
91883SOL    HW177546  10.364   6.358  13.645
91883SOL    HW277547  10.317   6.390  13.505
91884SOL     OW77548  12.529  14.251  12.051
91884SOL    HW177549  12.535  14.163  12.087
91884SOL    HW277550  12.444  14.254  12.007
91885SOL     OW77551   5.387   5.119   9.353
91885SOL    HW177552   5.393   5.033   9.313
91885SOL    HW277553   5.298   5.124   9.387
91886SOL     OW77554   8.309  11.979  13.220
91886SOL    HW177555   8.325  11.972  13.126
91886SOL    HW277556   8.356  11.906  13.258
91887SOL     OW77557  14.567  12.605   5.467
91887SOL    HW177558  14.549  12.698   5.477
91887SOL    HW277559  14.499  12.561   5.518
91888SOL     OW77560   9.349   4.364   3.132
91888SOL    HW177561   9.325   4.301   3.064
91888SOL    HW277562   9.282   4.432   3.126
91889SOL     OW77563   5.609   0.810   0.008
91889SOL    HW177564   5.680   0.789  14.829
91889SOL    HW277565   5.629   0.760   0.087
91890SOL     OW77566  11.148   1.183   5.291
91890SOL    HW177567  11.141   1.153   5.200
91890SOL    HW277568  11.186   1.271   5.284
91891SOL     OW77569   7.182   4.780   7.347
91891SOL    HW177570   7.238   4.839   7.296
91891SOL    HW277571   7.151   4.715   7.284
91892SOL     OW77572  11.196  12.954   3.066
91892SOL    HW177573  11.233  13.039   3.090
91892SOL    HW277574  11.160  12.967   2.978
91893SOL     OW77575   2.507   1.515   3.556
91893SOL    HW177576   2.482   1.566   3.633
91893SOL    HW277577   2.519   1.579   3.486
91894SOL     OW77578   0.313   8.790   6.877
91894SOL    HW177579   0.319   8.797   6.973
91894SOL    HW277580   0.232   8.741   6.862
91895SOL     OW77581   8.181  12.448  10.370
91895SOL    HW177582   8.147  12.448  10.281
91895SOL    HW277583   8.275  12.434  10.360
91896SOL     OW77584   4.144   4.081   9.538
91896SOL    HW177585   4.183   3.994   9.541
91896SOL    HW277586   4.164   4.119   9.623
91897SOL     OW77587   6.544   7.881   4.071
91897SOL    HW177588   6.564   7.914   3.983
91897SOL    HW277589   6.557   7.956   4.129
91898SOL     OW77590  13.642   2.070  11.883
91898SOL    HW177591  13.708   2.061  11.814
91898SOL    HW277592  13.670   2.010  11.952
91899SOL     OW77593  10.827   2.324   6.779
91899SOL    HW177594  10.789   2.245   6.739
91899SOL    HW277595  10.755   2.388   6.778
91900SOL     OW77596   9.409  10.645   8.832
91900SOL    HW177597   9.342  10.635   8.899
91900SOL    HW277598   9.420  10.740   8.822
91901SOL     OW77599   2.921   4.310   6.761
91901SOL    HW177600   2.844   4.302   6.818
91901SOL    HW277601   2.990   4.342   6.818
91902SOL     OW77602   8.448   5.633   2.922
91902SOL    HW177603   8.454   5.595   3.009
91902SOL    HW277604   8.521   5.695   2.917
91903SOL     OW77605   5.600   5.415   1.921
91903SOL    HW177606   5.612   5.504   1.953
91903SOL    HW277607   5.665   5.364   1.969
91904SOL     OW77608   6.869  14.335  11.828
91904SOL    HW177609   6.879  14.242  11.806
91904SOL    HW277610   6.919  14.381  11.761
91905SOL     OW77611   4.785   3.100   9.400
91905SOL    HW177612   4.814   3.170   9.458
91905SOL    HW277613   4.764   3.143   9.317
91906SOL     OW77614   4.381   7.729  10.678
91906SOL    HW177615   4.368   7.822  10.698
91906SOL    HW277616   4.377   7.725  10.582
91907SOL     OW77617   3.052   6.753   7.308
91907SOL    HW177618   3.132   6.787   7.349
91907SOL    HW277619   3.007   6.706   7.378
91908SOL     OW77620  12.805  13.051  10.559
91908SOL    HW177621  12.823  12.977  10.501
91908SOL    HW277622  12.891  13.080  10.589
91909SOL     OW77623   2.864   6.711   6.231
91909SOL    HW177624   2.905   6.625   6.228
91909SOL    HW277625   2.932   6.771   6.201
91910SOL     OW77626   1.889  13.187  12.201
91910SOL    HW177627   1.964  13.245  12.213
91910SOL    HW277628   1.925  13.099  12.215
91911SOL     OW77629   9.510   2.202   2.740
91911SOL    HW177630   9.586   2.224   2.794
91911SOL    HW277631   9.546   2.182   2.654
91912SOL     OW77632  12.341   4.394   9.208
91912SOL    HW177633  12.349   4.488   9.199
91912SOL    HW277634  12.397   4.357   9.140
91913SOL     OW77635   9.192   6.111   7.046
91913SOL    HW177636   9.288   6.104   7.047
91913SOL    HW277637   9.173   6.177   7.113
91914SOL     OW77638   2.653   5.940   0.606
91914SOL    HW177639   2.735   5.963   0.562
91914SOL    HW277640   2.603   5.892   0.540
91915SOL     OW77641   7.082   7.157   7.602
91915SOL    HW177642   7.119   7.239   7.570
91915SOL    HW277643   7.010   7.183   7.659
91916SOL     OW77644   3.985  14.276  13.111
91916SOL    HW177645   3.905  14.328  13.122
91916SOL    HW277646   3.969  14.197  13.162
91917SOL     OW77647   4.447   7.119   0.237
91917SOL    HW177648   4.355   7.111   0.212
91917SOL    HW277649   4.447   7.122   0.332
91918SOL     OW77650   8.737   5.879   1.200
91918SOL    HW177651   8.763   5.947   1.137
91918SOL    HW277652   8.719   5.802   1.145
91919SOL     OW77653   1.457   9.726  14.538
91919SOL    HW177654   1.370   9.690  14.518
91919SOL    HW277655   1.501   9.656  14.587
91920SOL     OW77656   9.885  14.015  11.601
91920SOL    HW177657   9.842  14.094  11.634
91920SOL    HW277658   9.851  14.003  11.513
91921SOL     OW77659   9.045   6.279  13.890
91921SOL    HW177660   9.109   6.222  13.847
91921SOL    HW277661   9.097   6.347  13.932
91922SOL     OW77662  10.360  10.704   2.049
91922SOL    HW177663  10.352  10.785   2.100
91922SOL    HW277664  10.453  10.681   2.055
91923SOL     OW77665   9.917   1.792   5.650
91923SOL    HW177666   9.971   1.857   5.694
91923SOL    HW277667   9.965   1.771   5.570
91924SOL     OW77668   7.186  11.464   5.956
91924SOL    HW177669   7.199  11.413   5.876
91924SOL    HW277670   7.272  11.503   5.974
91925SOL     OW77671  10.358   2.593   1.438
91925SOL    HW177672  10.346   2.687   1.453
91925SOL    HW277673  10.446   2.575   1.471
91926SOL     OW77674   0.876  13.817  10.206
91926SOL    HW177675   0.955  13.765  10.191
91926SOL    HW277676   0.853  13.799  10.297
91927SOL     OW77677   7.347   4.235   3.019
91927SOL    HW177678   7.396   4.175   3.075
91927SOL    HW277679   7.344   4.191   2.934
91928SOL     OW77680  13.329  11.922   9.070
91928SOL    HW177681  13.310  11.965   9.153
91928SOL    HW277682  13.317  11.829   9.089
91929SOL     OW77683   4.068   3.820  14.587
91929SOL    HW177684   4.044   3.797  14.497
91929SOL    HW277685   4.164   3.826  14.586
91930SOL     OW77686  10.719  10.720   2.471
91930SOL    HW177687  10.724  10.812   2.497
91930SOL    HW277688  10.634  10.690   2.503
91931SOL     OW77689   9.932  12.172  13.095
91931SOL    HW177690  10.018  12.149  13.129
91931SOL    HW277691   9.920  12.263  13.120
91932SOL     OW77692   0.319   3.160   8.733
91932SOL    HW177693   0.250   3.122   8.678
91932SOL    HW277694   0.339   3.244   8.692
91933SOL     OW77695   8.844  13.085   3.669
91933SOL    HW177696   8.754  13.057   3.682
91933SOL    HW277697   8.895  13.033   3.731
91934SOL     OW77698   3.745  13.802  13.302
91934SOL    HW177699   3.692  13.881  13.291
91934SOL    HW277700   3.702  13.737  13.247
91935SOL     OW77701   0.021   1.889  11.213
91935SOL    HW177702   0.084   1.961  11.216
91935SOL    HW277703  14.817   1.931  11.220
91936SOL     OW77704   4.185   6.702   8.998
91936SOL    HW177705   4.188   6.651   9.079
91936SOL    HW277706   4.092   6.708   8.976
91937SOL     OW77707   7.809   7.559   7.285
91937SOL    HW177708   7.715   7.567   7.302
91937SOL    HW277709   7.851   7.577   7.369
91938SOL     OW77710   5.576  10.869  14.792
91938SOL    HW177711   5.670  10.883  14.783
91938SOL    HW277712   5.536  10.944  14.748
91939SOL     OW77713   6.873   3.709  10.546
91939SOL    HW177714   6.786   3.669  10.535
91939SOL    HW277715   6.931   3.657  10.490
91940SOL     OW77716   6.320   8.086  14.163
91940SOL    HW177717   6.232   8.123  14.172
91940SOL    HW277718   6.361   8.137  14.093
91941SOL     OW77719   4.701   2.345   3.311
91941SOL    HW177720   4.772   2.330   3.374
91941SOL    HW277721   4.712   2.276   3.246
91942SOL     OW77722   6.289  10.658   7.936
91942SOL    HW177723   6.277  10.610   7.854
91942SOL    HW277724   6.351  10.606   7.986
91943SOL     OW77725  14.781  13.316   2.054
91943SOL    HW177726  14.747  13.369   2.126
91943SOL    HW277727  14.734  13.348   1.976
91944SOL     OW77728   4.078  12.891  11.023
91944SOL    HW177729   3.984  12.890  11.040
91944SOL    HW277730   4.107  12.802  11.045
91945SOL     OW77731   9.241   5.825  13.543
91945SOL    HW177732   9.249   5.807  13.637
91945SOL    HW277733   9.322   5.871  13.521
91946SOL     OW77734   6.399   9.366   5.055
91946SOL    HW177735   6.423   9.441   5.000
91946SOL    HW277736   6.483   9.328   5.080
91947SOL     OW77737   6.360   1.945  11.940
91947SOL    HW177738   6.295   2.010  11.913
91947SOL    HW277739   6.442   1.974  11.899
91948SOL     OW77740   6.520   8.739   9.580
91948SOL    HW177741   6.557   8.674   9.641
91948SOL    HW277742   6.447   8.694   9.538
91949SOL     OW77743   7.805   9.294   7.354
91949SOL    HW177744   7.734   9.358   7.357
91949SOL    HW277745   7.813   9.263   7.444
91950SOL     OW77746   9.379  14.456   4.633
91950SOL    HW177747   9.362  14.430   4.543
91950SOL    HW277748   9.447  14.395   4.663
91951SOL     OW77749  12.104   0.658  13.273
91951SOL    HW177750  12.094   0.731  13.213
91951SOL    HW277751  12.033   0.599  13.251
91952SOL     OW77752   3.347  13.771   9.067
91952SOL    HW177753   3.417  13.791   9.006
91952SOL    HW277754   3.280  13.837   9.050
91953SOL     OW77755   5.834   3.057   1.160
91953SOL    HW177756   5.806   2.977   1.116
91953SOL    HW277757   5.824   3.039   1.253
91954SOL     OW77758   9.113  14.801   3.703
91954SOL    HW177759   9.048  14.808   3.773
91954SOL    HW277760   9.139  14.709   3.705
91955SOL     OW77761   9.723   8.292   9.532
91955SOL    HW177762   9.785   8.344   9.481
91955SOL    HW277763   9.745   8.310   9.623
91956SOL     OW77764  11.460   5.739  13.681
91956SOL    HW177765  11.510   5.707  13.756
91956SOL    HW277766  11.388   5.677  13.671
91957SOL     OW77767   6.634  12.844   0.798
91957SOL    HW177768   6.577  12.771   0.774
91957SOL    HW277769   6.663  12.823   0.887
91958SOL     OW77770  11.976   0.620   5.988
91958SOL    HW177771  11.985   0.683   5.917
91958SOL    HW277772  12.058   0.627   6.037
91959SOL     OW77773  13.616   1.852  14.134
91959SOL    HW177774  13.710   1.835  14.121
91959SOL    HW277775  13.598   1.927  14.077
91960SOL     OW77776  12.309   7.934   6.560
91960SOL    HW177777  12.326   7.850   6.602
91960SOL    HW277778  12.389   7.951   6.510
91961SOL     OW77779   7.757  13.090   1.259
91961SOL    HW177780   7.840  13.056   1.226
91961SOL    HW277781   7.765  13.185   1.250
91962SOL     OW77782   4.864   9.578   1.153
91962SOL    HW177783   4.941   9.526   1.179
91962SOL    HW277784   4.863   9.652   1.214
91963SOL     OW77785  12.959   8.854   9.444
91963SOL    HW177786  12.946   8.947   9.430
91963SOL    HW277787  12.876   8.823   9.481
91964SOL     OW77788   1.582   6.941   3.815
91964SOL    HW177789   1.520   6.905   3.752
91964SOL    HW277790   1.643   6.869   3.832
91965SOL     OW77791   7.927   0.352  14.465
91965SOL    HW177792   8.014   0.365  14.427
91965SOL    HW277793   7.869   0.407  14.411
91966SOL     OW77794  10.562  12.367  13.384
91966SOL    HW177795  10.633  12.309  13.412
91966SOL    HW277796  10.598  12.415  13.309
91967SOL     OW77797  12.207   1.605  14.418
91967SOL    HW177798  12.121   1.643  14.400
91967SOL    HW277799  12.225   1.629  14.509
91968SOL     OW77800   1.241  12.379   4.176
91968SOL    HW177801   1.221  12.473   4.173
91968SOL    HW277802   1.206  12.350   4.260
91969SOL     OW77803   2.511   1.849   6.202
91969SOL    HW177804   2.470   1.805   6.127
91969SOL    HW277805   2.449   1.838   6.273
91970SOL     OW77806   3.553   5.552   4.882
91970SOL    HW177807   3.546   5.503   4.801
91970SOL    HW277808   3.575   5.641   4.855
91971SOL     OW77809   7.662   8.220  13.086
91971SOL    HW177810   7.746   8.224  13.039
91971SOL    HW277811   7.631   8.310  13.087
91972SOL     OW77812   9.820   1.188   5.930
91972SOL    HW177813   9.891   1.237   5.889
91972SOL    HW277814   9.753   1.253   5.947
91973SOL     OW77815   8.199  10.826   6.633
91973SOL    HW177816   8.154  10.742   6.623
91973SOL    HW277817   8.277  10.806   6.685
91974SOL     OW77818   9.556   9.646   4.843
91974SOL    HW177819   9.548   9.672   4.935
91974SOL    HW277820   9.586   9.556   4.846
91975SOL     OW77821   9.950   7.666   4.940
91975SOL    HW177822   9.863   7.656   4.978
91975SOL    HW277823   9.995   7.727   4.998
91976SOL     OW77824  13.651  10.196   7.761
91976SOL    HW177825  13.589  10.149   7.705
91976SOL    HW277826  13.684  10.268   7.707
91977SOL     OW77827   7.765   3.926   9.997
91977SOL    HW177828   7.742   3.878   9.918
91977SOL    HW277829   7.859   3.939   9.992
91978SOL     OW77830   7.460   3.330   4.493
91978SOL    HW177831   7.521   3.256   4.487
91978SOL    HW277832   7.494   3.384   4.564
91979SOL     OW77833   4.524   0.516   8.230
91979SOL    HW177834   4.584   0.567   8.286
91979SOL    HW277835   4.554   0.534   8.141
91980SOL     OW77836   8.792   3.559   8.577
91980SOL    HW177837   8.780   3.465   8.586
91980SOL    HW277838   8.886   3.572   8.585
91981SOL     OW77839  13.443   4.242   5.725
91981SOL    HW177840  13.437   4.327   5.682
91981SOL    HW277841  13.390   4.183   5.671
91982SOL     OW77842   2.361  12.951  10.605
91982SOL    HW177843   2.336  12.975  10.694
91982SOL    HW277844   2.423  12.879  10.616
91983SOL     OW77845   5.313  10.057  14.702
91983SOL    HW177846   5.344  10.015  14.621
91983SOL    HW277847   5.230  10.099  14.677
91984SOL     OW77848   4.787   1.348   9.246
91984SOL    HW177849   4.754   1.286   9.311
91984SOL    HW277850   4.857   1.302   9.201
91985SOL     OW77851   9.458   3.396  11.376
91985SOL    HW177852   9.517   3.418  11.304
91985SOL    HW277853   9.397   3.332  11.339
91986SOL     OW77854   2.042   8.057   2.715
91986SOL    HW177855   1.975   8.011   2.665
91986SOL    HW277856   2.114   7.994   2.723
91987SOL     OW77857   0.850  11.175   3.809
91987SOL    HW177858   0.918  11.128   3.856
91987SOL    HW277859   0.885  11.263   3.797
91988SOL     OW77860   4.735  13.231   8.515
91988SOL    HW177861   4.722  13.200   8.605
91988SOL    HW277862   4.785  13.312   8.524
91989SOL     OW77863  10.350   6.434   0.565
91989SOL    HW177864  10.296   6.410   0.489
91989SOL    HW277865  10.321   6.523   0.587
91990SOL     OW77866   8.905   9.253   2.403
91990SOL    HW177867   8.856   9.310   2.463
91990SOL    HW277868   8.916   9.171   2.451
91991SOL     OW77869   1.097  14.342  13.974
91991SOL    HW177870   1.176  14.393  13.989
91991SOL    HW277871   1.027  14.396  14.012
91992SOL     OW77872   7.008  14.688   0.374
91992SOL    HW177873   6.927  14.642   0.353
91992SOL    HW277874   6.982  14.780   0.381
91993SOL     OW77875   3.880   9.422   5.403
91993SOL    HW177876   3.814   9.352   5.401
91993SOL    HW277877   3.963   9.376   5.387
91994SOL     OW77878  10.992  10.387   8.922
91994SOL    HW177879  10.936  10.333   8.866
91994SOL    HW277880  10.938  10.405   8.999
91995SOL     OW77881   7.852   8.459   3.095
91995SOL    HW177882   7.806   8.430   3.016
91995SOL    HW277883   7.826   8.550   3.106
91996SOL     OW77884   1.255   3.714  13.636
91996SOL    HW177885   1.222   3.799  13.668
91996SOL    HW277886   1.196   3.650  13.675
91997SOL     OW77887  12.049   0.048  10.653
91997SOL    HW177888  11.973   0.054  10.595
91997SOL    HW277889  12.103   0.124  10.629
91998SOL     OW77890   4.903   0.334  10.292
91998SOL    HW177891   4.833   0.335  10.227
91998SOL    HW277892   4.899   0.246  10.330
91999SOL     OW77893   4.009   7.537   1.950
91999SOL    HW177894   4.039   7.579   2.030
91999SOL    HW277895   3.924   7.501   1.972
92000SOL     OW77896  11.527  14.387   1.675
92000SOL    HW177897  11.445  14.392   1.626
92000SOL    HW277898  11.501  14.395   1.766
92001SOL     OW77899   1.158   6.543   6.071
92001SOL    HW177900   1.119   6.574   6.153
92001SOL    HW277901   1.221   6.611   6.048
92002SOL     OW77902  10.221   0.366   3.055
92002SOL    HW177903  10.225   0.345   2.961
92002SOL    HW277904  10.272   0.447   3.063
92003SOL     OW77905   1.669   7.598   4.793
92003SOL    HW177906   1.757   7.635   4.798
92003SOL    HW277907   1.637   7.623   4.706
92004SOL     OW77908  11.419   7.588  10.703
92004SOL    HW177909  11.480   7.529  10.746
92004SOL    HW277910  11.435   7.576  10.610
92005SOL     OW77911  11.890   1.703   3.722
92005SOL    HW177912  11.951   1.745   3.782
92005SOL    HW277913  11.944   1.642   3.672
92006SOL     OW77914   5.084   6.376  13.695
92006SOL    HW177915   5.069   6.292  13.651
92006SOL    HW277916   5.156   6.416  13.647
92007SOL     OW77917   6.576  12.894  10.839
92007SOL    HW177918   6.500  12.837  10.851
92007SOL    HW277919   6.599  12.884  10.747
92008SOL     OW77920   7.994   2.903   2.440
92008SOL    HW177921   7.937   2.830   2.416
92008SOL    HW277922   8.032   2.932   2.357
92009SOL     OW77923   0.043   6.249  10.996
92009SOL    HW177924   0.083   6.311  10.934
92009SOL    HW277925  14.859   6.301  11.042
92010SOL     OW77926   5.560   4.695  13.455
92010SOL    HW177927   5.609   4.613  13.453
92010SOL    HW277928   5.468   4.668  13.462
92011SOL     OW77929   8.921   7.964   3.232
92011SOL    HW177930   8.919   7.879   3.276
92011SOL    HW277931   9.014   7.989   3.233
92012SOL     OW77932   6.814   2.397  11.826
92012SOL    HW177933   6.904   2.382  11.854
92012SOL    HW277934   6.772   2.437  11.902
92013SOL     OW77935  12.146  10.038   5.023
92013SOL    HW177936  12.190  10.115   4.988
92013SOL    HW277937  12.059  10.069   5.048
92014SOL     OW77938   8.864   0.407  10.704
92014SOL    HW177939   8.939   0.365  10.661
92014SOL    HW277940   8.807   0.435  10.632
92015SOL     OW77941   1.253  12.129   9.817
92015SOL    HW177942   1.229  12.160   9.730
92015SOL    HW277943   1.181  12.072   9.843
92016SOL     OW77944  11.801   0.114   3.830
92016SOL    HW177945  11.711   0.145   3.818
92016SOL    HW277946  11.854   0.193   3.832
92017SOL     OW77947   1.855  12.536   1.867
92017SOL    HW177948   1.885  12.488   1.944
92017SOL    HW277949   1.936  12.560   1.821
92018SOL     OW77950  13.607   1.988   8.658
92018SOL    HW177951  13.525   2.037   8.662
92018SOL    HW277952  13.598   1.933   8.581
92019SOL     OW77953   9.047  10.471   7.712
92019SOL    HW177954   9.063  10.531   7.640
92019SOL    HW277955   9.048  10.384   7.672
92020SOL     OW77956  10.196   3.617  14.563
92020SOL    HW177957  10.114   3.628  14.514
92020SOL    HW277958  10.252   3.568  14.503
92021SOL     OW77959   3.734  10.595   6.659
92021SOL    HW177960   3.681  10.571   6.735
92021SOL    HW277961   3.785  10.515   6.640
92022SOL     OW77962  13.369  11.476   4.539
92022SOL    HW177963  13.339  11.411   4.602
92022SOL    HW277964  13.347  11.560   4.579
92023SOL     OW77965   5.228  11.708   0.725
92023SOL    HW177966   5.230  11.769   0.651
92023SOL    HW277967   5.318  11.706   0.757
92024SOL     OW77968   8.140  11.928  13.428
92024SOL    HW177969   8.203  11.933  13.500
92024SOL    HW277970   8.194  11.940  13.349
92025SOL     OW77971  12.420   9.061   2.161
92025SOL    HW177972  12.390   9.112   2.236
92025SOL    HW277973  12.515   9.068   2.163
92026SOL     OW77974   3.459  14.629   6.651
92026SOL    HW177975   3.414  14.638   6.567
92026SOL    HW277976   3.448  14.714   6.693
92027SOL     OW77977  12.960   5.259   6.112
92027SOL    HW177978  13.002   5.213   6.185
92027SOL    HW277979  13.019   5.332   6.093
92028SOL     OW77980   9.396   7.821   7.010
92028SOL    HW177981   9.420   7.899   7.059
92028SOL    HW277982   9.429   7.838   6.921
92029SOL     OW77983  13.940   5.422  12.679
92029SOL    HW177984  13.929   5.484  12.607
92029SOL    HW277985  13.872   5.357  12.665
92030SOL     OW77986   4.155   6.751   7.873
92030SOL    HW177987   4.132   6.681   7.934
92030SOL    HW277988   4.204   6.707   7.803
92031SOL     OW77989  11.660   6.010  10.649
92031SOL    HW177990  11.628   5.921  10.664
92031SOL    HW277991  11.647   6.055  10.732
92032SOL     OW77992   2.945   1.862   0.038
92032SOL    HW177993   2.984   1.895   0.119
92032SOL    HW277994   2.875   1.925   0.018
92033SOL     OW77995  10.431   0.412   9.385
92033SOL    HW177996  10.372   0.362   9.329
92033SOL    HW277997  10.377   0.481   9.423
92034SOL     OW77998   6.728   0.579   8.740
92034SOL    HW177999   6.722   0.607   8.831
92034SOL    HW278000   6.802   0.519   8.738
92035SOL     OW78001  10.266   1.332  12.297
92035SOL    HW178002  10.336   1.275  12.266
92035SOL    HW278003  10.301   1.421  12.286
92036SOL     OW78004   2.844   0.369   3.867
92036SOL    HW178005   2.843   0.303   3.797
92036SOL    HW278006   2.929   0.357   3.910
92037SOL     OW78007   6.285   2.309  13.520
92037SOL    HW178008   6.284   2.281  13.428
92037SOL    HW278009   6.228   2.248  13.565
92038SOL     OW78010   9.808  11.728   8.332
92038SOL    HW178011   9.747  11.791   8.294
92038SOL    HW278012   9.754  11.677   8.394
92039SOL     OW78013   7.609   0.727   8.994
92039SOL    HW178014   7.607   0.821   9.011
92039SOL    HW278015   7.535   0.712   8.935
92040SOL     OW78016  12.650   2.838   0.806
92040SOL    HW178017  12.588   2.829   0.733
92040SOL    HW278018  12.698   2.755   0.806
92041SOL     OW78019   1.745  12.243   5.452
92041SOL    HW178020   1.807  12.214   5.385
92041SOL    HW278021   1.764  12.337   5.462
92042SOL     OW78022   0.680   7.308   5.202
92042SOL    HW178023   0.774   7.294   5.188
92042SOL    HW278024   0.652   7.359   5.126
92043SOL     OW78025   7.275  11.269   1.998
92043SOL    HW178026   7.242  11.180   2.011
92043SOL    HW278027   7.225  11.302   1.923
92044SOL     OW78028  10.344  14.632  10.230
92044SOL    HW178029  10.267  14.603  10.181
92044SOL    HW278030  10.418  14.602  10.179
92045SOL     OW78031  10.998   9.891   3.023
92045SOL    HW178032  10.953   9.966   3.061
92045SOL    HW278033  11.080   9.886   3.072
92046SOL     OW78034   7.060  11.141   7.043
92046SOL    HW178035   6.987  11.144   7.106
92046SOL    HW278036   7.037  11.069   6.984
92047SOL     OW78037  10.569  11.220  11.023
92047SOL    HW178038  10.609  11.133  11.028
92047SOL    HW278039  10.541  11.228  10.931
92048SOL     OW78040   5.633   3.645   9.763
92048SOL    HW178041   5.548   3.606   9.745
92048SOL    HW278042   5.681   3.639   9.681
92049SOL     OW78043   3.463   4.574   1.860
92049SOL    HW178044   3.372   4.591   1.885
92049SOL    HW278045   3.514   4.637   1.910
92050SOL     OW78046  13.512   8.271   6.929
92050SOL    HW178047  13.509   8.180   6.960
92050SOL    HW278048  13.455   8.319   6.988
92051SOL     OW78049  10.403   1.365  12.855
92051SOL    HW178050  10.435   1.290  12.905
92051SOL    HW278051  10.364   1.326  12.776
92052SOL     OW78052  11.281  11.133  11.536
92052SOL    HW178053  11.363  11.126  11.488
92052SOL    HW278054  11.214  11.141  11.468
92053SOL     OW78055   0.229   1.641   5.268
92053SOL    HW178056   0.255   1.671   5.181
92053SOL    HW278057   0.253   1.713   5.326
92054SOL     OW78058   8.663   7.429  13.121
92054SOL    HW178059   8.731   7.478  13.167
92054SOL    HW278060   8.701   7.341  13.110
92055SOL     OW78061   2.843  13.512   3.621
92055SOL    HW178062   2.773  13.452   3.646
92055SOL    HW278063   2.922  13.458   3.623
92056SOL     OW78064  12.321  12.563   4.446
92056SOL    HW178065  12.295  12.642   4.493
92056SOL    HW278066  12.414  12.578   4.425
92057SOL     OW78067   1.091  10.716   6.712
92057SOL    HW178068   1.159  10.753   6.656
92057SOL    HW278069   1.052  10.646   6.660
92058SOL     OW78070   3.127   7.682   1.573
92058SOL    HW178071   3.053   7.671   1.513
92058SOL    HW278072   3.128   7.776   1.593
92059SOL     OW78073   3.658   8.216   4.640
92059SOL    HW178074   3.693   8.137   4.681
92059SOL    HW278075   3.606   8.184   4.567
92060SOL     OW78076  13.827   5.388   3.889
92060SOL    HW178077  13.855   5.468   3.843
92060SOL    HW278078  13.732   5.397   3.897
92061SOL     OW78079  11.270   8.494  12.731
92061SOL    HW178080  11.287   8.545  12.652
92061SOL    HW278081  11.180   8.514  12.755
92062SOL     OW78082   2.932  12.876  11.864
92062SOL    HW178083   2.850  12.827  11.872
92062SOL    HW278084   2.989  12.818  11.813
92063SOL     OW78085   2.821  11.909   1.702
92063SOL    HW178086   2.785  11.832   1.744
92063SOL    HW278087   2.916  11.896   1.705
92064SOL     OW78088  13.816  10.508   2.696
92064SOL    HW178089  13.748  10.464   2.645
92064SOL    HW278090  13.803  10.477   2.785
92065SOL     OW78091   4.689   2.655  13.196
92065SOL    HW178092   4.619   2.615  13.248
92065SOL    HW278093   4.768   2.608  13.223
92066SOL     OW78094   5.730   4.312   0.759
92066SOL    HW178095   5.806   4.343   0.708
92066SOL    HW278096   5.735   4.362   0.840
92067SOL     OW78097  13.048  14.129   6.529
92067SOL    HW178098  13.097  14.055   6.493
92067SOL    HW278099  13.059  14.199   6.465
92068SOL     OW78100   2.402   5.658   2.040
92068SOL    HW178101   2.314   5.624   2.051
92068SOL    HW278102   2.451   5.623   2.115
92069SOL     OW78103   9.836   7.620  12.030
92069SOL    HW178104   9.782   7.694  12.057
92069SOL    HW278105   9.924   7.642  12.060
92070SOL     OW78106   3.053   8.300   2.274
92070SOL    HW178107   2.971   8.317   2.320
92070SOL    HW278108   3.114   8.274   2.343
92071SOL     OW78109  14.486   3.037  12.339
92071SOL    HW178110  14.567   3.089  12.345
92071SOL    HW278111  14.426   3.079  12.400
92072SOL     OW78112   9.942   1.064  13.252
92072SOL    HW178113   9.922   1.013  13.330
92072SOL    HW278114   9.990   1.140  13.285
92073SOL     OW78115   4.090  11.287   1.458
92073SOL    HW178116   4.135  11.362   1.419
92073SOL    HW278117   4.157  11.244   1.511
92074SOL     OW78118  13.761   1.226  14.304
92074SOL    HW178119  13.766   1.301  14.363
92074SOL    HW278120  13.840   1.233  14.250
92075SOL     OW78121   7.116   0.507   3.115
92075SOL    HW178122   7.128   0.504   3.020
92075SOL    HW278123   7.182   0.569   3.146
92076SOL     OW78124  10.565   6.871   1.982
92076SOL    HW178125  10.557   6.866   2.077
92076SOL    HW278126  10.581   6.964   1.964
92077SOL     OW78127  12.730   2.920   3.131
92077SOL    HW178128  12.652   2.867   3.150
92077SOL    HW278129  12.734   2.983   3.203
92078SOL     OW78130  12.110  11.377   8.150
92078SOL    HW178131  12.061  11.302   8.117
92078SOL    HW278132  12.202  11.351   8.142
92079SOL     OW78133   7.362   6.461   6.998
92079SOL    HW178134   7.442   6.470   7.049
92079SOL    HW278135   7.391   6.436   6.911
92080SOL     OW78136  14.173   7.535   6.355
92080SOL    HW178137  14.152   7.594   6.283
92080SOL    HW278138  14.233   7.471   6.318
92081SOL     OW78139   8.735   5.559   9.000
92081SOL    HW178140   8.800   5.593   9.062
92081SOL    HW278141   8.692   5.487   9.046
92082SOL     OW78142   1.206   1.931   1.051
92082SOL    HW178143   1.278   1.992   1.070
92082SOL    HW278144   1.214   1.862   1.116
92083SOL     OW78145  11.124   7.895   8.812
92083SOL    HW178146  11.043   7.848   8.834
92083SOL    HW278147  11.115   7.980   8.854
92084SOL     OW78148   3.583   5.465  13.165
92084SOL    HW178149   3.523   5.516  13.112
92084SOL    HW278150   3.526   5.417  13.225
92085SOL     OW78151   7.473   7.069  10.703
92085SOL    HW178152   7.544   7.130  10.724
92085SOL    HW278153   7.518   6.987  10.680
92086SOL     OW78154   0.474  11.706   1.788
92086SOL    HW178155   0.392  11.676   1.828
92086SOL    HW278156   0.454  11.715   1.695
92087SOL     OW78157   6.223  13.671   8.754
92087SOL    HW178158   6.301  13.641   8.801
92087SOL    HW278159   6.150  13.648   8.811
92088SOL     OW78160   6.693  12.029   2.002
92088SOL    HW178161   6.721  12.075   1.923
92088SOL    HW278162   6.761  11.963   2.016
92089SOL     OW78163  11.711   1.439   0.866
92089SOL    HW178164  11.777   1.504   0.846
92089SOL    HW278165  11.725   1.370   0.802
92090SOL     OW78166   2.932   9.763  11.659
92090SOL    HW178167   2.884   9.780  11.578
92090SOL    HW278168   2.948   9.850  11.697
92091SOL     OW78169   8.781   4.437  13.917
92091SOL    HW178170   8.832   4.414  13.995
92091SOL    HW278171   8.694   4.456  13.951
92092SOL     OW78172   4.967   7.707   0.751
92092SOL    HW178173   5.013   7.791   0.748
92092SOL    HW278174   4.877   7.730   0.778
92093SOL     OW78175  13.358  14.387   9.378
92093SOL    HW178176  13.451  14.408   9.388
92093SOL    HW278177  13.348  14.303   9.423
92094SOL     OW78178   1.068   3.104  12.785
92094SOL    HW178179   1.067   3.053  12.704
92094SOL    HW278180   1.156   3.141  12.789
92095SOL     OW78181   5.165  14.567   7.513
92095SOL    HW178182   5.072  14.547   7.520
92095SOL    HW278183   5.168  14.658   7.483
92096SOL     OW78184   7.404   8.297  11.505
92096SOL    HW178185   7.463   8.370  11.525
92096SOL    HW278186   7.390   8.303  11.410
92097SOL     OW78187  13.579   7.708  11.725
92097SOL    HW178188  13.634   7.767  11.776
92097SOL    HW278189  13.501   7.760  11.703
92098SOL     OW78190  14.312   6.775   3.768
92098SOL    HW178191  14.345   6.864   3.760
92098SOL    HW278192  14.388   6.720   3.749
92099SOL     OW78193   7.154  10.876  11.488
92099SOL    HW178194   7.097  10.885  11.565
92099SOL    HW278195   7.212  10.952  11.493
92100SOL     OW78196   9.438   3.883   4.894
92100SOL    HW178197   9.439   3.880   4.990
92100SOL    HW278198   9.348   3.910   4.873
92101SOL     OW78199   6.940   3.444   8.034
92101SOL    HW178200   6.898   3.451   7.949
92101SOL    HW278201   6.998   3.520   8.039
92102SOL     OW78202   5.614   7.203   9.148
92102SOL    HW178203   5.609   7.263   9.222
92102SOL    HW278204   5.533   7.218   9.100
92103SOL     OW78205   7.451   5.129   5.150
92103SOL    HW178206   7.454   5.070   5.075
92103SOL    HW278207   7.535   5.176   5.149
92104SOL     OW78208   7.796   9.326  11.417
92104SOL    HW178209   7.786   9.286  11.503
92104SOL    HW278210   7.839   9.258  11.364
92105SOL     OW78211   3.540   8.287   7.545
92105SOL    HW178212   3.474   8.341   7.588
92105SOL    HW278213   3.592   8.251   7.617
92106SOL     OW78214  11.322   2.952   4.702
92106SOL    HW178215  11.385   2.890   4.739
92106SOL    HW278216  11.348   2.959   4.609
92107SOL     OW78217   7.683   5.271   1.276
92107SOL    HW178218   7.667   5.285   1.182
92107SOL    HW278219   7.596   5.266   1.315
92108SOL     OW78220  13.431  11.116   5.377
92108SOL    HW178221  13.483  11.069   5.443
92108SOL    HW278222  13.394  11.046   5.323
92109SOL     OW78223   0.858  11.160  12.721
92109SOL    HW178224   0.927  11.100  12.749
92109SOL    HW278225   0.777  11.123  12.756
92110SOL     OW78226   5.072   5.557   2.752
92110SOL    HW178227   5.086   5.652   2.750
92110SOL    HW278228   5.157   5.520   2.731
92111SOL     OW78229  14.353   9.250   5.247
92111SOL    HW178230  14.305   9.306   5.186
92111SOL    HW278231  14.286   9.192   5.284
92112SOL     OW78232   9.996   3.421   7.166
92112SOL    HW178233  10.037   3.405   7.251
92112SOL    HW278234   9.902   3.413   7.183
92113SOL     OW78235  12.736   9.608  10.394
92113SOL    HW178236  12.822   9.593  10.354
92113SOL    HW278237  12.674   9.593  10.324
92114SOL     OW78238  13.780   3.036   1.920
92114SOL    HW178239  13.741   3.120   1.895
92114SOL    HW278240  13.839   3.015   1.847
92115SOL     OW78241   9.659   1.341   7.483
92115SOL    HW178242   9.569   1.325   7.454
92115SOL    HW278243   9.654   1.425   7.530
92116SOL     OW78244  10.151   3.638   6.557
92116SOL    HW178245  10.203   3.601   6.628
92116SOL    HW278246  10.215   3.680   6.500
92117SOL     OW78247   2.943   7.519   1.989
92117SOL    HW178248   3.012   7.466   2.031
92117SOL    HW278249   2.948   7.496   1.896
92118SOL     OW78250   3.369  14.069  10.647
92118SOL    HW178251   3.414  14.151  10.624
92118SOL    HW278252   3.281  14.096  10.673
92119SOL     OW78253   4.359   9.840   9.764
92119SOL    HW178254   4.408   9.844   9.846
92119SOL    HW278255   4.408   9.895   9.704
92120SOL     OW78256  14.833  11.093   7.460
92120SOL    HW178257  14.776  11.140   7.522
92120SOL    HW278258   0.028  11.070   7.512
92121SOL     OW78259   7.214   9.295  12.265
92121SOL    HW178260   7.211   9.305  12.360
92121SOL    HW278261   7.247   9.379  12.233
92122SOL     OW78262   0.982  13.354   9.110
92122SOL    HW178263   0.932  13.407   9.173
92122SOL    HW278264   1.042  13.302   9.163
92123SOL     OW78265   2.368   3.728   6.520
92123SOL    HW178266   2.461   3.746   6.508
92123SOL    HW278267   2.362   3.682   6.604
92124SOL     OW78268   0.848  13.350   6.532
92124SOL    HW178269   0.928  13.312   6.496
92124SOL    HW278270   0.824  13.290   6.603
92125SOL     OW78271   1.637   1.494  11.354
92125SOL    HW178272   1.690   1.545  11.292
92125SOL    HW278273   1.570   1.555  11.384
92126SOL     OW78274   5.334   7.660   4.188
92126SOL    HW178275   5.416   7.630   4.149
92126SOL    HW278276   5.281   7.581   4.197
92127SOL     OW78277  13.833  11.662   2.385
92127SOL    HW178278  13.917  11.707   2.392
92127SOL    HW278279  13.772  11.718   2.434
92128SOL     OW78280   8.343  11.556  12.923
92128SOL    HW178281   8.438  11.544  12.933
92128SOL    HW278282   8.333  11.649  12.902
92129SOL     OW78283   7.118  11.384   6.944
92129SOL    HW178284   7.105  11.314   7.008
92129SOL    HW278285   7.097  11.343   6.859
92130SOL     OW78286  14.638   0.952  10.965
92130SOL    HW178287  14.645   0.865  11.004
92130SOL    HW278288  14.701   1.005  11.014
92131SOL     OW78289   7.189   4.834  12.026
92131SOL    HW178290   7.171   4.877  11.943
92131SOL    HW278291   7.241   4.898  12.075
92132SOL     OW78292   6.917   0.891  13.594
92132SOL    HW178293   6.857   0.910  13.521
92132SOL    HW278294   6.912   0.795  13.604
92133SOL     OW78295  13.483   6.025   2.629
92133SOL    HW178296  13.421   6.059   2.694
92133SOL    HW278297  13.428   5.974   2.569
92134SOL     OW78298   0.856   8.940   9.199
92134SOL    HW178299   0.805   9.021   9.206
92134SOL    HW278300   0.889   8.925   9.287
92135SOL     OW78301   4.269   0.245   7.991
92135SOL    HW178302   4.362   0.223   7.996
92135SOL    HW278303   4.239   0.247   8.082
92136SOL     OW78304   2.929   2.754   8.651
92136SOL    HW178305   2.913   2.707   8.569
92136SOL    HW278306   2.865   2.826   8.650
92137SOL     OW78307   5.985  14.838   7.775
92137SOL    HW178308   5.907   0.012   7.771
92137SOL    HW278309   6.056   0.016   7.799
92138SOL     OW78310   6.145   0.732  12.115
92138SOL    HW178311   6.211   0.781  12.164
92138SOL    HW278312   6.062   0.772  12.142
92139SOL     OW78313   5.262   0.510  13.581
92139SOL    HW178314   5.194   0.573  13.557
92139SOL    HW278315   5.344   0.559  13.572
92140SOL     OW78316  13.704   0.552  12.174
92140SOL    HW178317  13.752   0.503  12.241
92140SOL    HW278318  13.613   0.545  12.201
92141SOL     OW78319   5.748   0.316  11.154
92141SOL    HW178320   5.831   0.355  11.128
92141SOL    HW278321   5.688   0.338  11.083
92142SOL     OW78322   8.684   4.160   1.200
92142SOL    HW178323   8.607   4.216   1.201
92142SOL    HW278324   8.650   4.071   1.209
92143SOL     OW78325  12.950  14.300  13.222
92143SOL    HW178326  13.003  14.325  13.147
92143SOL    HW278327  13.013  14.270  13.288
92144SOL     OW78328   6.875   2.922  14.671
92144SOL    HW178329   6.841   2.863  14.737
92144SOL    HW278330   6.888   3.005  14.717
92145SOL     OW78331   6.993  13.597   6.504
92145SOL    HW178332   7.038  13.670   6.460
92145SOL    HW278333   6.907  13.593   6.463
92146SOL     OW78334   2.417   6.887  10.221
92146SOL    HW178335   2.328   6.918  10.234
92146SOL    HW278336   2.472   6.949  10.269
92147SOL     OW78337   8.549   1.059   7.945
92147SOL    HW178338   8.456   1.034   7.946
92147SOL    HW278339   8.585   1.014   7.869
92148SOL     OW78340   2.432  11.132   0.133
92148SOL    HW178341   2.372  11.127   0.059
92148SOL    HW278342   2.496  11.063   0.118
92149SOL     OW78343   7.003   2.155   6.082
92149SOL    HW178344   7.042   2.217   6.144
92149SOL    HW278345   6.973   2.210   6.009
92150SOL     OW78346   7.309   6.465  10.560
92150SOL    HW178347   7.232   6.514  10.530
92150SOL    HW278348   7.376   6.531  10.571
92151SOL     OW78349  14.276   0.602  14.634
92151SOL    HW178350  14.352   0.607  14.693
92151SOL    HW278351  14.302   0.653  14.558
92152SOL     OW78352   3.515  10.708   7.805
92152SOL    HW178353   3.581  10.748   7.749
92152SOL    HW278354   3.564  10.677   7.882
92153SOL     OW78355  11.804   2.135   0.913
92153SOL    HW178356  11.733   2.074   0.889
92153SOL    HW278357  11.864   2.132   0.839
92154SOL     OW78358   6.840   9.525   0.537
92154SOL    HW178359   6.847   9.571   0.454
92154SOL    HW278360   6.751   9.541   0.567
92155SOL     OW78361   5.473   2.457   2.824
92155SOL    HW178362   5.438   2.545   2.806
92155SOL    HW278363   5.406   2.417   2.879
92156SOL     OW78364   9.334   7.017   8.676
92156SOL    HW178365   9.317   6.923   8.670
92156SOL    HW278366   9.411   7.032   8.622
92157SOL     OW78367  14.256   8.286  14.444
92157SOL    HW178368  14.222   8.297  14.533
92157SOL    HW278369  14.183   8.248  14.395
92158SOL     OW78370   6.582   9.398  12.694
92158SOL    HW178371   6.598   9.480  12.741
92158SOL    HW278372   6.489   9.381  12.706
92159SOL     OW78373   0.383  13.159   2.616
92159SOL    HW178374   0.289  13.151   2.599
92159SOL    HW278375   0.399  13.099   2.688
92160SOL     OW78376  13.692  12.866   4.057
92160SOL    HW178377  13.730  12.909   3.980
92160SOL    HW278378  13.710  12.926   4.129
92161SOL     OW78379  10.442  11.153   9.242
92161SOL    HW178380  10.347  11.152   9.235
92161SOL    HW278381  10.469  11.228   9.189
92162SOL     OW78382  12.642   6.774   5.487
92162SOL    HW178383  12.676   6.686   5.474
92162SOL    HW278384  12.577   6.785   5.418
92163SOL     OW78385   1.174   1.416  14.596
92163SOL    HW178386   1.084   1.397  14.572
92163SOL    HW278387   1.211   1.330  14.620
92164SOL     OW78388   4.789   9.963   3.425
92164SOL    HW178389   4.848  10.011   3.483
92164SOL    HW278390   4.843   9.937   3.351
92165SOL     OW78391   3.215   8.799   4.733
92165SOL    HW178392   3.250   8.865   4.673
92165SOL    HW278393   3.182   8.730   4.676
92166SOL     OW78394   0.581   5.850   0.215
92166SOL    HW178395   0.624   5.881   0.135
92166SOL    HW278396   0.487   5.861   0.197
92167SOL     OW78397  14.039   8.495  11.037
92167SOL    HW178398  13.952   8.464  11.063
92167SOL    HW278399  14.043   8.586  11.067
92168SOL     OW78400  14.099  12.761   0.366
92168SOL    HW178401  14.144  12.750   0.450
92168SOL    HW278402  14.162  12.728   0.301
92169SOL     OW78403   9.884   6.290  11.660
92169SOL    HW178404   9.879   6.291  11.564
92169SOL    HW278405   9.933   6.370  11.682
92170SOL     OW78406   1.581  12.978   2.012
92170SOL    HW178407   1.552  13.021   1.931
92170SOL    HW278408   1.595  12.887   1.987
92171SOL     OW78409   0.633  13.124  10.081
92171SOL    HW178410   0.705  13.102  10.022
92171SOL    HW278411   0.607  13.212  10.054
92172SOL     OW78412   7.077  10.347  12.118
92172SOL    HW178413   6.992  10.328  12.159
92172SOL    HW278414   7.132  10.377  12.190
92173SOL     OW78415   7.907   4.092   8.439
92173SOL    HW178416   7.812   4.084   8.444
92173SOL    HW278417   7.925   4.183   8.460
92174SOL     OW78418   0.516   7.027  14.478
92174SOL    HW178419   0.459   6.966  14.431
92174SOL    HW278420   0.472   7.112  14.470
92175SOL     OW78421   3.067  12.748   3.342
92175SOL    HW178422   3.061  12.731   3.248
92175SOL    HW278423   3.133  12.816   3.351
92176SOL     OW78424   8.310   8.578  13.378
92176SOL    HW178425   8.340   8.667  13.393
92176SOL    HW278426   8.370   8.543  13.312
92177SOL     OW78427  11.676   5.629   8.341
92177SOL    HW178428  11.667   5.632   8.245
92177SOL    HW278429  11.627   5.705   8.372
92178SOL     OW78430   9.532   1.038   6.027
92178SOL    HW178431   9.476   1.110   6.057
92178SOL    HW278432   9.562   0.996   6.107
92179SOL     OW78433   7.932   7.574  10.411
92179SOL    HW178434   8.026   7.562  10.420
92179SOL    HW278435   7.920   7.620  10.328
92180SOL     OW78436  11.744  10.838   1.102
92180SOL    HW178437  11.742  10.799   1.015
92180SOL    HW278438  11.658  10.878   1.114
92181SOL     OW78439   5.489   0.551   8.192
92181SOL    HW178440   5.525   0.463   8.205
92181SOL    HW278441   5.560   0.609   8.219
92182SOL     OW78442   8.345  13.210   3.339
92182SOL    HW178443   8.397  13.172   3.268
92182SOL    HW278444   8.406  13.213   3.413
92183SOL     OW78445   9.507  10.006   4.394
92183SOL    HW178446   9.573  10.075   4.388
92183SOL    HW278447   9.470  10.016   4.481
92184SOL     OW78448   0.962   1.314   6.675
92184SOL    HW178449   1.033   1.348   6.728
92184SOL    HW278450   0.901   1.387   6.666
92185SOL     OW78451  13.321  14.349   7.618
92185SOL    HW178452  13.264  14.382   7.548
92185SOL    HW278453  13.368  14.426   7.649
92186SOL     OW78454  11.137  13.023  14.383
92186SOL    HW178455  11.199  12.989  14.319
92186SOL    HW278456  11.182  13.097  14.423
92187SOL     OW78457   3.507   5.942   7.798
92187SOL    HW178458   3.547   5.896   7.724
92187SOL    HW278459   3.444   5.879   7.833
92188SOL     OW78460   3.825   3.541  10.280
92188SOL    HW178461   3.814   3.450  10.252
92188SOL    HW278462   3.742   3.583  10.259
92189SOL     OW78463   9.157   1.467  11.769
92189SOL    HW178464   9.252   1.477  11.776
92189SOL    HW278465   9.127   1.460  11.859
92190SOL     OW78466  11.178   3.285   4.004
92190SOL    HW178467  11.236   3.243   4.066
92190SOL    HW278468  11.109   3.323   4.058
92191SOL     OW78469   1.365  13.013   9.692
92191SOL    HW178470   1.300  13.017   9.762
92191SOL    HW278471   1.446  12.989   9.737
92192SOL     OW78472   1.389  12.957   4.603
92192SOL    HW178473   1.447  12.898   4.652
92192SOL    HW278474   1.449  13.014   4.555
92193SOL     OW78475   6.379   3.605   0.749
92193SOL    HW178476   6.348   3.534   0.693
92193SOL    HW278477   6.330   3.682   0.720
92194SOL     OW78478   5.933  12.228  14.380
92194SOL    HW178479   6.018  12.243  14.340
92194SOL    HW278480   5.870  12.263  14.316
92195SOL     OW78481   7.089   9.928   5.593
92195SOL    HW178482   7.162   9.866   5.591
92195SOL    HW278483   7.109   9.985   5.668
92196SOL     OW78484  12.979   3.656   9.471
92196SOL    HW178485  12.967   3.698   9.386
92196SOL    HW278486  12.895   3.670   9.516
92197SOL     OW78487   7.473   5.562   0.731
92197SOL    HW178488   7.547   5.620   0.717
92197SOL    HW278489   7.487   5.489   0.670
92198SOL     OW78490   9.603   5.950   2.406
92198SOL    HW178491   9.656   6.029   2.419
92198SOL    HW278492   9.519   5.970   2.448
92199SOL     OW78493  11.901   4.269   6.814
92199SOL    HW178494  11.982   4.318   6.811
92199SOL    HW278495  11.854   4.293   6.734
92200SOL     OW78496  13.234   3.824   0.720
92200SOL    HW178497  13.266   3.896   0.775
92200SOL    HW278498  13.140   3.822   0.736
92201SOL     OW78499   3.135  11.427   1.562
92201SOL    HW178500   3.212  11.373   1.579
92201SOL    HW278501   3.089  11.382   1.491
92202SOL     OW78502   3.641  10.964   0.939
92202SOL    HW178503   3.693  10.967   1.019
92202SOL    HW278504   3.651  10.874   0.908
92203SOL     OW78505   7.017   3.214   6.349
92203SOL    HW178506   7.099   3.224   6.397
92203SOL    HW278507   6.994   3.121   6.359
92204SOL     OW78508  14.864   5.943   1.277
92204SOL    HW178509   0.005   5.864   1.230
92204SOL    HW278510  14.786   5.976   1.232
92205SOL     OW78511   9.192  13.038  11.767
92205SOL    HW178512   9.148  13.040  11.682
92205SOL    HW278513   9.139  13.095  11.823
92206SOL     OW78514   7.566   0.442  11.316
92206SOL    HW178515   7.504   0.387  11.364
92206SOL    HW278516   7.585   0.394  11.236
92207SOL     OW78517   8.530  11.910   0.228
92207SOL    HW178518   8.492  11.891   0.142
92207SOL    HW278519   8.603  11.850   0.236
92208SOL     OW78520   1.331   2.936  14.798
92208SOL    HW178521   1.306   2.919  14.707
92208SOL    HW278522   1.327   2.850  14.841
92209SOL     OW78523  13.017   7.719   9.252
92209SOL    HW178524  12.967   7.764   9.183
92209SOL    HW278525  13.032   7.631   9.217
92210SOL     OW78526  10.872   0.526  13.687
92210SOL    HW178527  10.867   0.533  13.783
92210SOL    HW278528  10.954   0.570  13.664
92211SOL     OW78529   3.251  12.281  13.382
92211SOL    HW178530   3.270  12.355  13.440
92211SOL    HW278531   3.326  12.278  13.322
92212SOL     OW78532  10.357   9.149   3.217
92212SOL    HW178533  10.369   9.203   3.140
92212SOL    HW278534  10.435   9.165   3.270
92213SOL     OW78535   9.429   7.043  14.350
92213SOL    HW178536   9.462   7.033  14.261
92213SOL    HW278537   9.389   7.130  14.351
92214SOL     OW78538  10.432   7.708  11.200
92214SOL    HW178539  10.501   7.673  11.256
92214SOL    HW278540  10.424   7.645  11.129
92215SOL     OW78541  12.323  11.102  12.573
92215SOL    HW178542  12.282  11.015  12.576
92215SOL    HW278543  12.338  11.118  12.480
92216SOL     OW78544   5.702  13.129  13.789
92216SOL    HW178545   5.669  13.126  13.699
92216SOL    HW278546   5.627  13.159  13.840
92217SOL     OW78547   3.563   1.563   4.240
92217SOL    HW178548   3.519   1.530   4.318
92217SOL    HW278549   3.629   1.624   4.274
92218SOL     OW78550  11.219   3.900   3.417
92218SOL    HW178551  11.136   3.944   3.436
92218SOL    HW278552  11.278   3.928   3.488
92219SOL     OW78553   2.983  12.430   7.024
92219SOL    HW178554   2.944  12.347   6.996
92219SOL    HW278555   3.041  12.455   6.952
92220SOL     OW78556  12.583   4.875   8.386
92220SOL    HW178557  12.656   4.909   8.334
92220SOL    HW278558  12.530   4.952   8.406
92221SOL     OW78559   6.832  10.774   3.642
92221SOL    HW178560   6.810  10.708   3.577
92221SOL    HW278561   6.916  10.744   3.679
92222SOL     OW78562  11.916  10.177  12.477
92222SOL    HW178563  11.989  10.142  12.528
92222SOL    HW278564  11.958  10.234  12.412
92223SOL     OW78565  10.402   6.797   0.098
92223SOL    HW178566  10.422   6.712   0.059
92223SOL    HW278567  10.337   6.835   0.038
92224SOL     OW78568   1.844   9.125  10.798
92224SOL    HW178569   1.755   9.113  10.831
92224SOL    HW278570   1.835   9.129  10.703
92225SOL     OW78571   4.840   5.326  11.149
92225SOL    HW178572   4.845   5.319  11.244
92225SOL    HW278573   4.865   5.239  11.117
92226SOL     OW78574   2.350  14.163   8.341
92226SOL    HW178575   2.304  14.245   8.352
92226SOL    HW278576   2.405  14.155   8.420
92227SOL     OW78577   1.277   8.091   5.297
92227SOL    HW178578   1.269   8.086   5.392
92227SOL    HW278579   1.204   8.146   5.270
92228SOL     OW78580   5.126  10.603   6.992
92228SOL    HW178581   5.202  10.555   7.025
92228SOL    HW278582   5.065  10.534   6.963
92229SOL     OW78583  13.422   7.652   3.326
92229SOL    HW178584  13.408   7.696   3.242
92229SOL    HW278585  13.469   7.716   3.379
92230SOL     OW78586  13.128  12.989   2.363
92230SOL    HW178587  13.217  12.976   2.395
92230SOL    HW278588  13.074  12.989   2.443
92231SOL     OW78589   7.727   1.884  10.577
92231SOL    HW178590   7.784   1.810  10.599
92231SOL    HW278591   7.760   1.956  10.630
92232SOL     OW78592   9.384   0.553   3.933
92232SOL    HW178593   9.318   0.496   3.893
92232SOL    HW278594   9.455   0.493   3.957
92233SOL     OW78595   0.432   4.913   3.927
92233SOL    HW178596   0.454   4.977   3.994
92233SOL    HW278597   0.388   4.842   3.974
92234SOL     OW78598   4.886  12.432   4.281
92234SOL    HW178599   4.947  12.504   4.296
92234SOL    HW278600   4.942  12.355   4.271
92235SOL     OW78601   5.992  14.152  12.875
92235SOL    HW178602   6.004  14.148  12.780
92235SOL    HW278603   6.071  14.113  12.911
92236SOL     OW78604   3.836   3.350   2.200
92236SOL    HW178605   3.835   3.439   2.235
92236SOL    HW278606   3.929   3.329   2.190
92237SOL     OW78607   2.453   9.191  13.036
92237SOL    HW178608   2.390   9.119  13.029
92237SOL    HW278609   2.536   9.154  13.006
92238SOL     OW78610   8.118   0.829  13.740
92238SOL    HW178611   8.030   0.796  13.755
92238SOL    HW278612   8.107   0.902  13.679
92239SOL     OW78613   3.954   0.300  13.644
92239SOL    HW178614   3.878   0.253  13.610
92239SOL    HW278615   3.970   0.369  13.580
92240SOL     OW78616   2.982   4.706  14.181
92240SOL    HW178617   2.974   4.788  14.132
92240SOL    HW278618   2.969   4.637  14.115
92241SOL     OW78619  10.722   7.607   7.733
92241SOL    HW178620  10.722   7.679   7.795
92241SOL    HW278621  10.713   7.649   7.647
92242SOL     OW78622   9.182   3.179   7.881
92242SOL    HW178623   9.140   3.097   7.909
92242SOL    HW278624   9.261   3.150   7.836
92243SOL     OW78625  10.647   9.272   1.560
92243SOL    HW178626  10.576   9.271   1.625
92243SOL    HW278627  10.715   9.216   1.599
92244SOL     OW78628   3.276   2.746   5.121
92244SOL    HW178629   3.277   2.665   5.070
92244SOL    HW278630   3.367   2.757   5.149
92245SOL     OW78631   8.690   9.500  10.733
92245SOL    HW178632   8.750   9.469  10.801
92245SOL    HW278633   8.682   9.425  10.674
92246SOL     OW78634   5.185   2.184   2.741
92246SOL    HW178635   5.280   2.183   2.755
92246SOL    HW278636   5.162   2.093   2.726
92247SOL     OW78637   8.645   6.896  13.832
92247SOL    HW178638   8.646   6.866  13.923
92247SOL    HW278639   8.719   6.850  13.791
92248SOL     OW78640  11.497  12.960   9.660
92248SOL    HW178641  11.519  12.944   9.568
92248SOL    HW278642  11.547  12.895   9.709
92249SOL     OW78643   6.656   4.811  11.984
92249SOL    HW178644   6.743   4.793  11.949
92249SOL    HW278645   6.662   4.902  12.015
92250SOL     OW78646   6.992   3.527   1.946
92250SOL    HW178647   6.950   3.510   2.030
92250SOL    HW278648   7.013   3.620   1.948
92251SOL     OW78649  13.805  11.083  10.842
92251SOL    HW178650  13.772  11.025  10.774
92251SOL    HW278651  13.737  11.084  10.909
92252SOL     OW78652  12.804  13.093   4.873
92252SOL    HW178653  12.770  13.182   4.875
92252SOL    HW278654  12.728  13.039   4.851
92253SOL     OW78655  13.652   4.210   2.556
92253SOL    HW178656  13.645   4.221   2.462
92253SOL    HW278657  13.746   4.216   2.574
92254SOL     OW78658  11.588   9.744   0.844
92254SOL    HW178659  11.649   9.726   0.916
92254SOL    HW278660  11.503   9.714   0.876
92255SOL     OW78661  10.377   4.924  13.401
92255SOL    HW178662  10.379   4.860  13.472
92255SOL    HW278663  10.464   4.920  13.362
92256SOL     OW78664   5.208   6.415  11.485
92256SOL    HW178665   5.143   6.386  11.421
92256SOL    HW278666   5.265   6.340  11.497
92257SOL     OW78667   4.422   4.519   4.366
92257SOL    HW178668   4.431   4.566   4.449
92257SOL    HW278669   4.348   4.460   4.379
92258SOL     OW78670   0.724   1.409   5.594
92258SOL    HW178671   0.629   1.407   5.605
92258SOL    HW278672   0.738   1.388   5.501
92259SOL     OW78673   5.540  12.863   8.302
92259SOL    HW178674   5.484  12.840   8.376
92259SOL    HW278675   5.495  12.936   8.259
92260SOL     OW78676   3.695   0.072   3.277
92260SOL    HW178677   3.646   0.083   3.195
92260SOL    HW278678   3.646   0.004   3.324
92261SOL     OW78679   9.650   1.425  10.688
92261SOL    HW178680   9.696   1.503  10.719
92261SOL    HW278681   9.720   1.366  10.658
92262SOL     OW78682  11.128   4.717   2.599
92262SOL    HW178683  11.130   4.782   2.528
92262SOL    HW278684  11.163   4.764   2.674
92263SOL     OW78685  14.122   5.867  12.355
92263SOL    HW178686  14.083   5.808  12.291
92263SOL    HW278687  14.199   5.821  12.387
92264SOL     OW78688  13.156   9.444  11.623
92264SOL    HW178689  13.234   9.392  11.641
92264SOL    HW278690  13.125   9.472  11.709
92265SOL     OW78691   4.658  14.217   5.482
92265SOL    HW178692   4.575  14.226   5.530
92265SOL    HW278693   4.693  14.133   5.511
92266SOL     OW78694  10.350   1.498  13.471
92266SOL    HW178695  10.353   1.430  13.404
92266SOL    HW278696  10.397   1.572  13.432
92267SOL     OW78697   2.254   2.902   8.654
92267SOL    HW178698   2.210   2.961   8.714
92267SOL    HW278699   2.294   2.959   8.588
92268SOL     OW78700   1.885   6.051   7.708
92268SOL    HW178701   1.929   6.135   7.725
92268SOL    HW278702   1.795   6.076   7.686
92269SOL     OW78703   1.596   7.553  10.125
92269SOL    HW178704   1.664   7.561  10.059
92269SOL    HW278705   1.642   7.565  10.208
92270SOL     OW78706   7.311   7.146   1.502
92270SOL    HW178707   7.250   7.169   1.572
92270SOL    HW278708   7.378   7.093   1.545
92271SOL     OW78709   6.448   3.500  10.694
92271SOL    HW178710   6.372   3.469  10.743
92271SOL    HW278711   6.523   3.459  10.736
92272SOL     OW78712  13.617   6.419   7.508
92272SOL    HW178713  13.709   6.406   7.531
92272SOL    HW278714  13.569   6.396   7.587
92273SOL     OW78715   8.893   7.660   4.922
92273SOL    HW178716   8.938   7.636   5.004
92273SOL    HW278717   8.912   7.753   4.912
92274SOL     OW78718  12.967   8.399  12.634
92274SOL    HW178719  12.937   8.314  12.664
92274SOL    HW278720  13.020   8.433  12.706
92275SOL     OW78721   0.271   1.025   6.996
92275SOL    HW178722   0.273   0.992   7.085
92275SOL    HW278723   0.188   0.993   6.960
92276SOL     OW78724   1.733  11.489   9.012
92276SOL    HW178725   1.644  11.496   9.046
92276SOL    HW278726   1.726  11.429   8.938
92277SOL     OW78727   9.715   7.100  11.089
92277SOL    HW178728   9.806   7.084  11.116
92277SOL    HW278729   9.683   7.166  11.150
92278SOL     OW78730  14.325  11.224  13.790
92278SOL    HW178731  14.419  11.220  13.808
92278SOL    HW278732  14.284  11.194  13.871
92279SOL     OW78733  14.328   6.014   4.741
92279SOL    HW178734  14.407   5.968   4.712
92279SOL    HW278735  14.335   6.101   4.703
92280SOL     OW78736  11.541  10.916  14.219
92280SOL    HW178737  11.477  10.846  14.207
92280SOL    HW278738  11.617  10.889  14.168
92281SOL     OW78739   6.837   3.091   2.214
92281SOL    HW178740   6.778   3.153   2.256
92281SOL    HW278741   6.779   3.030   2.167
92282SOL     OW78742  11.394  11.476   3.429
92282SOL    HW178743  11.390  11.526   3.510
92282SOL    HW278744  11.321  11.414   3.435
92283SOL     OW78745   8.820  12.808   1.333
92283SOL    HW178746   8.750  12.872   1.349
92283SOL    HW278747   8.870  12.845   1.260
92284SOL     OW78748   1.419   4.677   5.122
92284SOL    HW178749   1.386   4.619   5.191
92284SOL    HW278750   1.353   4.671   5.053
92285SOL     OW78751  13.290  10.923   7.008
92285SOL    HW178752  13.247  10.887   6.930
92285SOL    HW278753  13.253  11.011   7.017
92286SOL     OW78754  11.053   9.629  11.775
92286SOL    HW178755  11.023   9.696  11.714
92286SOL    HW278756  10.974   9.602  11.822
92287SOL     OW78757  10.681  10.794   0.817
92287SOL    HW178758  10.679  10.699   0.801
92287SOL    HW278759  10.596  10.825   0.788
92288SOL     OW78760  11.371   0.552   7.760
92288SOL    HW178761  11.457   0.578   7.726
92288SOL    HW278762  11.390   0.511   7.845
92289SOL     OW78763   4.462   0.991   4.648
92289SOL    HW178764   4.484   1.010   4.739
92289SOL    HW278765   4.369   0.967   4.651
92290SOL     OW78766   2.761   0.817   7.290
92290SOL    HW178767   2.693   0.860   7.238
92290SOL    HW278768   2.737   0.834   7.381
92291SOL     OW78769  12.244   2.269   3.635
92291SOL    HW178770  12.269   2.186   3.675
92291SOL    HW278771  12.252   2.253   3.541
92292SOL     OW78772   8.561   4.555  10.876
92292SOL    HW178773   8.562   4.650  10.870
92292SOL    HW278774   8.653   4.530  10.871
92293SOL     OW78775   5.674  10.853  13.716
92293SOL    HW178776   5.692  10.814  13.801
92293SOL    HW278777   5.758  10.889  13.687
92294SOL     OW78778   8.377   1.594  14.781
92294SOL    HW178779   8.454   1.634  14.822
92294SOL    HW278780   8.361   1.646  14.702
92295SOL     OW78781   4.627   9.210  14.251
92295SOL    HW178782   4.548   9.176  14.293
92295SOL    HW278783   4.630   9.165  14.166
92296SOL     OW78784   4.901   8.449   6.549
92296SOL    HW178785   4.959   8.476   6.478
92296SOL    HW278786   4.938   8.365   6.579
92297SOL     OW78787   9.798   4.223   0.339
92297SOL    HW178788   9.862   4.165   0.381
92297SOL    HW278789   9.773   4.178   0.259
92298SOL     OW78790   0.241   9.628   5.503
92298SOL    HW178791   0.331   9.621   5.472
92298SOL    HW278792   0.194   9.557   5.458
92299SOL     OW78793   9.764   0.145   7.995
92299SOL    HW178794   9.759   0.222   8.052
92299SOL    HW278795   9.672   0.124   7.976
92300SOL     OW78796   6.000   8.756  11.999
92300SOL    HW178797   5.966   8.834  11.955
92300SOL    HW278798   5.930   8.731  12.060
92301SOL     OW78799  11.960  14.032   4.220
92301SOL    HW178800  11.995  14.038   4.131
92301SOL    HW278801  11.977  14.118   4.258
92302SOL     OW78802   3.590   9.016   8.792
92302SOL    HW178803   3.588   8.962   8.713
92302SOL    HW278804   3.683   9.035   8.805
92303SOL     OW78805   4.539   7.298   3.352
92303SOL    HW178806   4.541   7.222   3.293
92303SOL    HW278807   4.573   7.370   3.298
92304SOL     OW78808  10.957   9.969   8.974
92304SOL    HW178809  11.019   9.937   9.040
92304SOL    HW278810  10.902   9.893   8.955
92305SOL     OW78811   9.184  11.493   1.922
92305SOL    HW178812   9.096  11.525   1.940
92305SOL    HW278813   9.180  11.463   1.831
92306SOL     OW78814  14.412   9.384   7.958
92306SOL    HW178815  14.344   9.338   7.909
92306SOL    HW278816  14.475   9.315   7.981
92307SOL     OW78817   9.627   0.709  12.068
92307SOL    HW178818   9.570   0.774  12.029
92307SOL    HW278819   9.624   0.634  12.008
92308SOL     OW78820  14.483   8.848  10.541
92308SOL    HW178821  14.564   8.798  10.545
92308SOL    HW278822  14.424   8.793  10.489
92309SOL     OW78823   6.073   2.637   2.121
92309SOL    HW178824   5.982   2.666   2.110
92309SOL    HW278825   6.126   2.712   2.094
92310SOL     OW78826  10.306   5.931  13.777
92310SOL    HW178827  10.270   5.843  13.770
92310SOL    HW278828  10.286   5.973  13.693
92311SOL     OW78829  14.512  11.267   3.472
92311SOL    HW178830  14.453  11.235   3.405
92311SOL    HW278831  14.485  11.222   3.552
92312SOL     OW78832  11.192   0.490  11.541
92312SOL    HW178833  11.213   0.576  11.575
92312SOL    HW278834  11.119   0.460  11.596
92313SOL     OW78835   4.397   1.030   5.394
92313SOL    HW178836   4.407   0.996   5.305
92313SOL    HW278837   4.340   1.106   5.384
92314SOL     OW78838  12.702  13.192   4.529
92314SOL    HW178839  12.650  13.164   4.454
92314SOL    HW278840  12.788  13.152   4.514
92315SOL     OW78841   5.706   3.806   2.968
92315SOL    HW178842   5.691   3.712   2.960
92315SOL    HW278843   5.801   3.815   2.959
92316SOL     OW78844  11.004   5.400  12.225
92316SOL    HW178845  10.977   5.335  12.289
92316SOL    HW278846  10.922   5.440  12.196
92317SOL     OW78847   4.584   7.926   3.233
92317SOL    HW178848   4.590   8.018   3.261
92317SOL    HW278849   4.524   7.928   3.159
92318SOL     OW78850   0.427   3.125   6.847
92318SOL    HW178851   0.366   3.111   6.775
92318SOL    HW278852   0.393   3.201   6.893
92319SOL     OW78853  13.954   7.039   5.480
92319SOL    HW178854  14.025   7.082   5.529
92319SOL    HW278855  13.880   7.099   5.488
92320SOL     OW78856  13.820   8.201   9.046
92320SOL    HW178857  13.783   8.114   9.030
92320SOL    HW278858  13.779   8.228   9.129
92321SOL     OW78859  13.241   5.368   7.066
92321SOL    HW178860  13.180   5.295   7.053
92321SOL    HW278861  13.306   5.334   7.127
92322SOL     OW78862   6.684  10.895  13.265
92322SOL    HW178863   6.748  10.957  13.300
92322SOL    HW278864   6.654  10.845  13.341
92323SOL     OW78865   8.291   4.683  14.383
92323SOL    HW178866   8.318   4.595  14.357
92323SOL    HW278867   8.341   4.702  14.462
92324SOL     OW78868   9.807  10.024   2.762
92324SOL    HW178869   9.830  10.037   2.854
92324SOL    HW278870   9.853   9.944   2.737
92325SOL     OW78871   7.814   4.622  11.024
92325SOL    HW178872   7.826   4.544  11.078
92325SOL    HW278873   7.884   4.681  11.051
92326SOL     OW78874   2.102   5.823  10.793
92326SOL    HW178875   2.097   5.731  10.819
92326SOL    HW278876   2.065   5.871  10.867
92327SOL     OW78877   0.592   3.805   8.663
92327SOL    HW178878   0.672   3.763   8.696
92327SOL    HW278879   0.521   3.753   8.701
92328SOL     OW78880  10.475   7.720  12.524
92328SOL    HW178881  10.418   7.646  12.506
92328SOL    HW278882  10.493   7.716  12.618
92329SOL     OW78883   6.287   8.244  10.827
92329SOL    HW178884   6.213   8.304  10.831
92329SOL    HW278885   6.292   8.219  10.735
92330SOL     OW78886   4.736   4.320  10.112
92330SOL    HW178887   4.794   4.385  10.071
92330SOL    HW278888   4.698   4.365  10.187
92331SOL     OW78889   7.363   1.640  13.879
92331SOL    HW178890   7.348   1.678  13.966
92331SOL    HW278891   7.437   1.689  13.843
92332SOL     OW78892   4.536   1.826   1.253
92332SOL    HW178893   4.565   1.896   1.195
92332SOL    HW278894   4.613   1.770   1.263
92333SOL     OW78895   7.199   0.173   9.438
92333SOL    HW178896   7.223   0.150   9.349
92333SOL    HW278897   7.235   0.261   9.451
92334SOL     OW78898  11.443   0.236  14.105
92334SOL    HW178899  11.348   0.236  14.098
92334SOL    HW278900  11.462   0.306  14.168
92335SOL     OW78901   2.702  12.607   2.733
92335SOL    HW178902   2.689  12.661   2.656
92335SOL    HW278903   2.640  12.534   2.722
92336SOL     OW78904   6.536  10.152   0.164
92336SOL    HW178905   6.533  10.162   0.069
92336SOL    HW278906   6.614  10.201   0.190
92337SOL     OW78907   3.523  10.075   6.773
92337SOL    HW178908   3.485  10.149   6.726
92337SOL    HW278909   3.522  10.003   6.710
92338SOL     OW78910   1.951  13.558   7.187
92338SOL    HW178911   1.887  13.559   7.258
92338SOL    HW278912   1.899  13.571   7.107
92339SOL     OW78913   7.511  10.290  13.029
92339SOL    HW178914   7.495  10.197  13.013
92339SOL    HW278915   7.538  10.295  13.120
92340SOL     OW78916   8.495   5.986   4.506
92340SOL    HW178917   8.473   6.074   4.537
92340SOL    HW278918   8.412   5.938   4.510
92341SOL     OW78919  11.539   4.188   6.315
92341SOL    HW178920  11.506   4.232   6.237
92341SOL    HW278921  11.553   4.097   6.288
92342SOL     OW78922   5.636   2.162  14.755
92342SOL    HW178923   5.691   2.185  14.830
92342SOL    HW278924   5.547   2.167  14.788
92343SOL     OW78925   9.255   6.682   4.732
92343SOL    HW178926   9.191   6.743   4.695
92343SOL    HW278927   9.257   6.610   4.670
92344SOL     OW78928   0.967   2.764   1.942
92344SOL    HW178929   0.890   2.710   1.965
92344SOL    HW278930   1.037   2.729   1.997
92345SOL     OW78931  12.078  12.472   9.415
92345SOL    HW178932  12.139  12.543   9.436
92345SOL    HW278933  11.995  12.500   9.454
92346SOL     OW78934  12.544  10.162   5.056
92346SOL    HW178935  12.592  10.222   5.000
92346SOL    HW278936  12.611  10.105   5.094
92347SOL     OW78937  11.350  12.015   2.389
92347SOL    HW178938  11.364  12.077   2.318
92347SOL    HW278939  11.334  12.070   2.466
92348SOL     OW78940   6.107   8.836   9.301
92348SOL    HW178941   6.128   8.850   9.209
92348SOL    HW278942   6.067   8.918   9.329
92349SOL     OW78943   4.274   6.053   0.734
92349SOL    HW178944   4.307   5.965   0.748
92349SOL    HW278945   4.282   6.096   0.819
92350SOL     OW78946   0.040   8.308   4.389
92350SOL    HW178947  14.852   8.245   4.373
92350SOL    HW278948   0.064   8.295   4.481
92351SOL     OW78949   1.353  12.505   9.242
92351SOL    HW178950   1.439  12.545   9.225
92351SOL    HW278951   1.357  12.420   9.199
92352SOL     OW78952   1.748  14.771  14.318
92352SOL    HW178953   1.695  14.848  14.339
92352SOL    HW278954   1.721  14.746  14.230
92353SOL     OW78955   3.802  13.076  11.607
92353SOL    HW178956   3.763  13.148  11.656
92353SOL    HW278957   3.745  13.064  11.531
92354SOL     OW78958   6.263   4.105   0.575
92354SOL    HW178959   6.253   4.060   0.492
92354SOL    HW278960   6.267   4.198   0.552
92355SOL     OW78961  11.128  13.411  10.164
92355SOL    HW178962  11.220  13.425  10.189
92355SOL    HW278963  11.132  13.396  10.069
92356SOL     OW78964  10.910   4.467   9.944
92356SOL    HW178965  10.900   4.374   9.964
92356SOL    HW278966  10.870   4.512  10.019
92357SOL     OW78967   0.620  13.655  11.699
92357SOL    HW178968   0.686  13.601  11.655
92357SOL    HW278969   0.548  13.661  11.636
92358SOL     OW78970  10.368   4.999   1.424
92358SOL    HW178971  10.401   5.003   1.334
92358SOL    HW278972  10.442   5.027   1.478
92359SOL     OW78973   5.770   6.915   3.126
92359SOL    HW178974   5.698   6.906   3.189
92359SOL    HW278975   5.740   6.981   3.065
92360SOL     OW78976   7.196   6.276  11.363
92360SOL    HW178977   7.228   6.230  11.285
92360SOL    HW278978   7.101   6.265  11.360
92361SOL     OW78979   5.080   7.903   7.735
92361SOL    HW178980   5.002   7.863   7.773
92361SOL    HW278981   5.122   7.832   7.687
92362SOL     OW78982   1.082   5.927   7.430
92362SOL    HW178983   1.164   5.896   7.468
92362SOL    HW278984   1.107   5.964   7.346
92363SOL     OW78985   6.303  10.084   6.441
92363SOL    HW178986   6.381  10.100   6.495
92363SOL    HW278987   6.322  10.126   6.358
92364SOL     OW78988  14.069  10.507  12.666
92364SOL    HW178989  14.086  10.595  12.633
92364SOL    HW278990  14.156  10.470  12.683
92365SOL     OW78991   9.616   3.476  13.502
92365SOL    HW178992   9.697   3.456  13.454
92365SOL    HW278993   9.610   3.571  13.500
92366SOL     OW78994   5.514   0.824  10.333
92366SOL    HW178995   5.569   0.877  10.391
92366SOL    HW278996   5.498   0.743  10.382
92367SOL     OW78997   2.343   9.168  10.812
92367SOL    HW178998   2.306   9.195  10.896
92367SOL    HW278999   2.316   9.237  10.751
92368SOL     OW79000   0.826   8.115   1.946
92368SOL    HW179001   0.887   8.104   2.019
92368SOL    HW279002   0.881   8.112   1.868
92369SOL     OW79003  12.424  13.422  13.485
92369SOL    HW179004  12.413  13.488  13.417
92369SOL    HW279005  12.384  13.460  13.563
92370SOL     OW79006   1.417  12.835   2.694
92370SOL    HW179007   1.485  12.851   2.629
92370SOL    HW279008   1.357  12.773   2.652
92371SOL     OW79009   7.935   2.360   6.854
92371SOL    HW179010   7.962   2.290   6.794
92371SOL    HW279011   7.982   2.341   6.935
92372SOL     OW79012  10.327   1.777   8.339
92372SOL    HW179013  10.375   1.695   8.332
92372SOL    HW279014  10.254   1.757   8.397
92373SOL     OW79015   9.146   3.903   7.400
92373SOL    HW179016   9.128   3.996   7.386
92373SOL    HW279017   9.238   3.900   7.425
92374SOL     OW79018   3.897   4.925  12.664
92374SOL    HW179019   3.812   4.885  12.683
92374SOL    HW279020   3.910   4.909  12.570
92375SOL     OW79021   5.658  12.769   4.986
92375SOL    HW179022   5.582  12.719   5.016
92375SOL    HW279023   5.620  12.849   4.949
92376SOL     OW79024   3.919   4.259   3.474
92376SOL    HW179025   3.954   4.344   3.447
92376SOL    HW279026   3.867   4.277   3.552
92377SOL     OW79027   8.834   9.613   2.403
92377SOL    HW179028   8.754   9.629   2.353
92377SOL    HW279029   8.813   9.538   2.457
92378SOL     OW79030   5.431   2.133   1.876
92378SOL    HW179031   5.524   2.152   1.858
92378SOL    HW279032   5.428   2.037   1.884
92379SOL     OW79033   7.968   7.030  11.987
92379SOL    HW179034   7.987   7.087  11.913
92379SOL    HW279035   7.996   7.080  12.064
92380SOL     OW79036  10.370  12.147   2.390
92380SOL    HW179037  10.306  12.131   2.460
92380SOL    HW279038  10.454  12.119   2.427
92381SOL     OW79039  13.114  12.035  13.663
92381SOL    HW179040  13.075  11.995  13.585
92381SOL    HW279041  13.138  12.123  13.636
92382SOL     OW79042  11.541   8.457   5.627
92382SOL    HW179043  11.511   8.464   5.536
92382SOL    HW279044  11.609   8.523   5.635
92383SOL     OW79045   2.045   0.395  11.846
92383SOL    HW179046   2.066   0.486  11.827
92383SOL    HW279047   1.951   0.395  11.863
92384SOL     OW79048  10.095  13.091  10.836
92384SOL    HW179049  10.132  13.007  10.809
92384SOL    HW279050  10.002  13.074  10.850
92385SOL     OW79051   7.113   3.126   7.921
92385SOL    HW179052   7.079   3.043   7.954
92385SOL    HW279053   7.095   3.188   7.991
92386SOL     OW79054  10.738   9.415  14.701
92386SOL    HW179055  10.711   9.465  14.778
92386SOL    HW279056  10.815   9.365  14.731
92387SOL     OW79057  11.911  10.948   2.984
92387SOL    HW179058  11.998  10.981   3.004
92387SOL    HW279059  11.853  11.023   2.996
92388SOL     OW79060   4.627   5.164   8.116
92388SOL    HW179061   4.689   5.227   8.153
92388SOL    HW279062   4.673   5.080   8.121
92389SOL     OW79063   5.206  11.730  11.957
92389SOL    HW179064   5.182  11.667  11.889
92389SOL    HW279065   5.239  11.675  12.029
92390SOL     OW79066  12.402  12.622   9.991
92390SOL    HW179067  12.416  12.600  10.083
92390SOL    HW279068  12.462  12.565   9.943
92391SOL     OW79069   9.988   5.128  11.662
92391SOL    HW179070   9.944   5.148  11.580
92391SOL    HW279071   9.925   5.077  11.712
92392SOL     OW79072   2.326   6.968   2.637
92392SOL    HW179073   2.382   7.046   2.630
92392SOL    HW279074   2.240   7.003   2.660
92393SOL     OW79075   9.904  10.898   6.781
92393SOL    HW179076   9.840  10.889   6.710
92393SOL    HW279077   9.922  10.992   6.785
92394SOL     OW79078  12.596   7.539   6.075
92394SOL    HW179079  12.531   7.488   6.027
92394SOL    HW279080  12.665   7.475   6.097
92395SOL     OW79081   0.762   9.387   6.879
92395SOL    HW179082   0.728   9.428   6.959
92395SOL    HW279083   0.756   9.293   6.895
92396SOL     OW79084  11.590   2.967  11.927
92396SOL    HW179085  11.605   3.049  11.974
92396SOL    HW279086  11.643   2.974  11.848
92397SOL     OW79087   8.824  10.117  10.253
92397SOL    HW179088   8.775  10.047  10.295
92397SOL    HW279089   8.810  10.104  10.159
92398SOL     OW79090   2.429  11.667  14.819
92398SOL    HW179091   2.507  11.656  14.873
92398SOL    HW279092   2.451  11.738  14.759
92399SOL     OW79093   2.049  12.223   7.632
92399SOL    HW179094   2.123  12.279   7.611
92399SOL    HW279095   2.071  12.138   7.595
92400SOL     OW79096   2.857   1.199  13.217
92400SOL    HW179097   2.782   1.139  13.209
92400SOL    HW279098   2.914   1.174  13.144
92401SOL     OW79099  14.557  12.002   1.040
92401SOL    HW179100  14.549  11.942   1.114
92401SOL    HW279101  14.632  12.057   1.061
92402SOL     OW79102   2.772   6.057  13.232
92402SOL    HW179103   2.728   6.038  13.315
92402SOL    HW279104   2.831   6.130  13.252
92403SOL     OW79105   0.502   0.383   8.114
92403SOL    HW179106   0.515   0.476   8.133
92403SOL    HW279107   0.412   0.376   8.083
92404SOL     OW79108  11.590   1.205  13.731
92404SOL    HW179109  11.673   1.192  13.685
92404SOL    HW279110  11.611   1.267  13.801
92405SOL     OW79111   3.126   3.008   3.560
92405SOL    HW179112   3.059   2.994   3.626
92405SOL    HW279113   3.079   3.047   3.486
92406SOL     OW79114  13.503   5.620   3.802
92406SOL    HW179115  13.423   5.654   3.841
92406SOL    HW279116  13.485   5.528   3.785
92407SOL     OW79117   5.280   5.112   1.789
92407SOL    HW179118   5.212   5.053   1.822
92407SOL    HW279119   5.305   5.073   1.705
92408SOL     OW79120  14.512   3.266  10.798
92408SOL    HW179121  14.561   3.286  10.719
92408SOL    HW279122  14.420   3.269  10.771
92409SOL     OW79123   6.578   1.983   4.701
92409SOL    HW179124   6.529   2.058   4.667
92409SOL    HW279125   6.569   1.990   4.796
92410SOL     OW79126   2.771  14.742  11.862
92410SOL    HW179127   2.815  14.765  11.944
92410SOL    HW279128   2.678  14.736  11.886
92411SOL     OW79129   5.868   1.588   2.238
92411SOL    HW179130   5.908   1.614   2.155
92411SOL    HW279131   5.797   1.530   2.213
92412SOL     OW79132   7.050   5.830   5.950
92412SOL    HW179133   7.084   5.835   6.040
92412SOL    HW279134   7.127   5.840   5.895
92413SOL     OW79135  13.817   3.221   2.910
92413SOL    HW179136  13.887   3.168   2.871
92413SOL    HW279137  13.845   3.234   3.001
92414SOL     OW79138  12.211  14.387   3.656
92414SOL    HW179139  12.263  14.313   3.624
92414SOL    HW279140  12.124  14.349   3.672
92415SOL     OW79141   4.593   4.106   1.707
92415SOL    HW179142   4.547   4.188   1.690
92415SOL    HW279143   4.667   4.106   1.646
92416SOL     OW79144   3.074   4.700   2.592
92416SOL    HW179145   3.053   4.739   2.508
92416SOL    HW279146   3.155   4.744   2.619
92417SOL     OW79147   7.006   9.780   8.124
92417SOL    HW179148   7.043   9.765   8.211
92417SOL    HW279149   7.081   9.783   8.066
92418SOL     OW79150   8.065   4.955  14.621
92418SOL    HW179151   8.012   4.941  14.700
92418SOL    HW279152   8.036   4.888  14.560
92419SOL     OW79153   6.183   9.083   4.092
92419SOL    HW179154   6.200   9.049   4.179
92419SOL    HW279155   6.269   9.106   4.057
92420SOL     OW79156  10.554   7.094  11.585
92420SOL    HW179157  10.528   7.068  11.497
92420SOL    HW279158  10.510   7.178  11.600
92421SOL     OW79159   8.830   6.904   7.633
92421SOL    HW179160   8.823   6.894   7.728
92421SOL    HW279161   8.788   6.826   7.597
92422SOL     OW79162   1.584   9.235   9.758
92422SOL    HW179163   1.504   9.189   9.784
92422SOL    HW279164   1.585   9.314   9.812
92423SOL     OW79165   6.297   3.567   1.795
92423SOL    HW179166   6.364   3.610   1.742
92423SOL    HW279167   6.317   3.473   1.787
92424SOL     OW79168  12.106  11.095   6.867
92424SOL    HW179169  12.053  11.163   6.908
92424SOL    HW279170  12.190  11.099   6.912
92425SOL     OW79171  13.321   3.727   9.872
92425SOL    HW179172  13.340   3.644   9.829
92425SOL    HW279173  13.274   3.703   9.952
92426SOL     OW79174   2.748   5.730   5.296
92426SOL    HW179175   2.674   5.764   5.246
92426SOL    HW279176   2.816   5.797   5.286
92427SOL     OW79177   5.310   8.581  11.033
92427SOL    HW179178   5.391   8.575  11.084
92427SOL    HW279179   5.276   8.491  11.033
92428SOL     OW79180  14.457   4.042   8.876
92428SOL    HW179181  14.398   4.102   8.830
92428SOL    HW279182  14.521   4.100   8.918
92429SOL     OW79183   3.194   0.280   2.077
92429SOL    HW179184   3.111   0.279   2.030
92429SOL    HW279185   3.178   0.228   2.155
92430SOL     OW79186  12.250   8.253   3.239
92430SOL    HW179187  12.311   8.255   3.313
92430SOL    HW279188  12.299   8.211   3.168
92431SOL     OW79189   2.729  13.578  11.589
92431SOL    HW179190   2.705  13.616  11.505
92431SOL    HW279191   2.824  13.571  11.586
92432SOL     OW79192  11.609   9.610   2.390
92432SOL    HW179193  11.643   9.690   2.429
92432SOL    HW279194  11.682   9.574   2.341
92433SOL     OW79195   9.184  10.684   5.083
92433SOL    HW179196   9.199  10.646   5.169
92433SOL    HW279197   9.261  10.739   5.067
92434SOL     OW79198   8.139  14.296   2.013
92434SOL    HW179199   8.111  14.209   1.984
92434SOL    HW279200   8.067  14.354   1.987
92435SOL     OW79201   6.308   7.214   6.480
92435SOL    HW179202   6.312   7.202   6.575
92435SOL    HW279203   6.386   7.265   6.458
92436SOL     OW79204  12.114  14.502   8.965
92436SOL    HW179205  12.174  14.528   8.895
92436SOL    HW279206  12.096  14.410   8.948
92437SOL     OW79207   5.549   8.092   5.389
92437SOL    HW179208   5.549   8.010   5.339
92437SOL    HW279209   5.577   8.067   5.477
92438SOL     OW79210  12.013  12.526  10.207
92438SOL    HW179211  12.005  12.596  10.142
92438SOL    HW279212  11.923  12.500  10.225
92439SOL     OW79213   9.567   3.425  11.120
92439SOL    HW179214   9.629   3.491  11.089
92439SOL    HW279215   9.482   3.456  11.089
92440SOL     OW79216  12.298  13.870  11.409
92440SOL    HW179217  12.281  13.778  11.431
92440SOL    HW279218  12.213  13.913  11.419
92441SOL     OW79219  13.917   1.993   0.475
92441SOL    HW179220  13.957   2.060   0.420
92441SOL    HW279221  13.832   1.976   0.434
92442SOL     OW79222   7.011  12.801  11.106
92442SOL    HW179223   6.964  12.848  11.037
92442SOL    HW279224   7.100  12.837  11.103
92443SOL     OW79225  14.762  10.953  14.509
92443SOL    HW179226  14.744  10.868  14.467
92443SOL    HW279227  14.779  10.931  14.600
92444SOL     OW79228   9.911   3.475  14.657
92444SOL    HW179229   9.940   3.421  14.583
92444SOL    HW279230   9.818   3.490  14.640
92445SOL     OW79231   1.232   3.671   8.628
92445SOL    HW179232   1.195   3.661   8.716
92445SOL    HW279233   1.268   3.760   8.627
92446SOL     OW79234   0.748  14.339   3.237
92446SOL    HW179235   0.728  14.351   3.144
92446SOL    HW279236   0.680  14.389   3.283
92447SOL     OW79237   6.929  11.706   3.516
92447SOL    HW179238   6.853  11.763   3.512
92447SOL    HW279239   6.999  11.756   3.474
92448SOL     OW79240   1.770   1.459  13.182
92448SOL    HW179241   1.724   1.402  13.120
92448SOL    HW279242   1.770   1.410  13.264
92449SOL     OW79243   0.739   7.886  13.764
92449SOL    HW179244   0.743   7.792  13.782
92449SOL    HW279245   0.830   7.912  13.753
92450SOL     OW79246   2.074   6.364   7.384
92450SOL    HW179247   2.058   6.422   7.459
92450SOL    HW279248   2.093   6.422   7.311
92451SOL     OW79249  11.621   4.264  12.543
92451SOL    HW179250  11.630   4.169  12.536
92451SOL    HW279251  11.680   4.299  12.476
92452SOL     OW79252  13.134   7.456   5.260
92452SOL    HW179253  13.091   7.499   5.334
92452SOL    HW279254  13.063   7.415   5.211
92453SOL     OW79255   6.366  10.716  12.211
92453SOL    HW179256   6.432  10.647  12.202
92453SOL    HW279257   6.323  10.698  12.294
92454SOL     OW79258  11.182   9.142  14.551
92454SOL    HW179259  11.107   9.116  14.497
92454SOL    HW279260  11.226   9.210  14.499
92455SOL     OW79261   2.875   4.671   3.985
92455SOL    HW179262   2.863   4.737   3.917
92455SOL    HW279263   2.792   4.623   3.987
92456SOL     OW79264  14.677   3.737   2.107
92456SOL    HW179265  14.584   3.717   2.116
92456SOL    HW279266  14.718   3.654   2.081
92457SOL     OW79267   4.038   8.280   1.296
92457SOL    HW179268   4.043   8.244   1.207
92457SOL    HW279269   4.127   8.270   1.331
92458SOL     OW79270   4.830  14.490   1.201
92458SOL    HW179271   4.813  14.435   1.125
92458SOL    HW279272   4.923  14.478   1.220
92459SOL     OW79273   3.879  10.572   3.255
92459SOL    HW179274   3.796  10.525   3.267
92459SOL    HW279275   3.856  10.647   3.200
92460SOL     OW79276   6.230  11.864   2.386
92460SOL    HW179277   6.295  11.843   2.319
92460SOL    HW279278   6.250  11.805   2.458
92461SOL     OW79279   3.057   5.646   4.904
92461SOL    HW179280   3.065   5.588   4.979
92461SOL    HW279281   2.975   5.621   4.862
92462SOL     OW79282   9.466   3.533  12.510
92462SOL    HW179283   9.436   3.478  12.582
92462SOL    HW279284   9.531   3.591  12.549
92463SOL     OW79285  13.341   7.507  11.623
92463SOL    HW179286  13.375   7.427  11.663
92463SOL    HW279287  13.352   7.493  11.529
92464SOL     OW79288   9.204  11.798  11.038
92464SOL    HW179289   9.160  11.713  11.031
92464SOL    HW279290   9.143  11.860  10.999
92465SOL     OW79291  12.471   1.337   5.879
92465SOL    HW179292  12.443   1.408   5.820
92465SOL    HW279293  12.541   1.376   5.932
92466SOL     OW79294  12.391   3.754  11.052
92466SOL    HW179295  12.406   3.832  10.999
92466SOL    HW279296  12.435   3.683  11.005
92467SOL     OW79297   6.359   0.517   5.239
92467SOL    HW179298   6.266   0.532   5.223
92467SOL    HW279299   6.364   0.427   5.272
92468SOL     OW79300   8.792  10.448   3.009
92468SOL    HW179301   8.781  10.543   3.000
92468SOL    HW279302   8.832  10.420   2.927
92469SOL     OW79303   3.554   6.817  14.518
92469SOL    HW179304   3.534   6.724  14.527
92469SOL    HW279305   3.648   6.821  14.503
92470SOL     OW79306   2.531   1.793   0.386
92470SOL    HW179307   2.515   1.744   0.305
92470SOL    HW279308   2.597   1.859   0.362
92471SOL     OW79309   9.005   0.233  14.474
92471SOL    HW179310   9.087   0.199  14.439
92471SOL    HW279311   9.026   0.258  14.564
92472SOL     OW79312   5.151  11.229   6.500
92472SOL    HW179313   5.090  11.268   6.564
92472SOL    HW279314   5.236  11.230   6.544
92473SOL     OW79315   5.062  14.392   9.634
92473SOL    HW179316   5.152  14.364   9.650
92473SOL    HW279317   5.023  14.398   9.721
92474SOL     OW79318   3.644   8.688   5.678
92474SOL    HW179319   3.584   8.761   5.663
92474SOL    HW279320   3.586   8.613   5.696
92475SOL     OW79321   0.294   5.089  11.161
92475SOL    HW179322   0.307   5.029  11.087
92475SOL    HW279323   0.205   5.122  11.149
92476SOL     OW79324   8.652   5.189   3.620
92476SOL    HW179325   8.658   5.269   3.672
92476SOL    HW279326   8.711   5.204   3.546
92477SOL     OW79327   8.730   8.251  10.477
92477SOL    HW179328   8.718   8.159  10.454
92477SOL    HW279329   8.814   8.275  10.437
92478SOL     OW79330   9.825  13.255  13.295
92478SOL    HW179331   9.826  13.183  13.232
92478SOL    HW279332   9.772  13.323  13.253
92479SOL     OW79333  12.953   9.295   0.212
92479SOL    HW179334  12.948   9.200   0.218
92479SOL    HW279335  12.915   9.316   0.127
92480SOL     OW79336   1.705   0.331   9.718
92480SOL    HW179337   1.735   0.245   9.746
92480SOL    HW279338   1.663   0.369   9.795
92481SOL     OW79339  14.625   1.984  13.384
92481SOL    HW179340  14.564   1.932  13.436
92481SOL    HW279341  14.692   1.921  13.355
92482SOL     OW79342   1.627   1.452   0.607
92482SOL    HW179343   1.544   1.447   0.654
92482SOL    HW279344   1.607   1.507   0.531
92483SOL     OW79345  12.494  10.718   9.298
92483SOL    HW179346  12.581  10.754   9.283
92483SOL    HW279347  12.493  10.692   9.390
92484SOL     OW79348   4.757  11.391   5.443
92484SOL    HW179349   4.723  11.306   5.415
92484SOL    HW279350   4.683  11.450   5.434
92485SOL     OW79351   5.198   4.719  10.904
92485SOL    HW179352   5.274   4.721  10.962
92485SOL    HW279353   5.215   4.645  10.845
92486SOL     OW79354  11.568   1.234   0.510
92486SOL    HW179355  11.495   1.279   0.467
92486SOL    HW279356  11.537   1.219   0.600
92487SOL     OW79357   9.823   7.489  12.773
92487SOL    HW179358   9.872   7.474  12.854
92487SOL    HW279359   9.754   7.550  12.798
92488SOL     OW79360   9.775   1.959  13.518
92488SOL    HW179361   9.852   1.967  13.461
92488SOL    HW279362   9.797   1.887  13.577
92489SOL     OW79363   7.100   1.151   4.301
92489SOL    HW179364   7.096   1.142   4.396
92489SOL    HW279365   7.048   1.229   4.281
92490SOL     OW79366  13.469   4.473   5.600
92490SOL    HW179367  13.544   4.525   5.575
92490SOL    HW279368  13.398   4.503   5.544
92491SOL     OW79369  10.615   2.443   2.378
92491SOL    HW179370  10.563   2.374   2.418
92491SOL    HW279371  10.696   2.444   2.428
92492SOL     OW79372   5.811  11.274   2.401
92492SOL    HW179373   5.890  11.248   2.354
92492SOL    HW279374   5.827  11.365   2.426
92493SOL     OW79375  11.380   1.237   3.027
92493SOL    HW179376  11.408   1.161   2.977
92493SOL    HW279377  11.437   1.237   3.105
92494SOL     OW79378  14.265  11.663   3.207
92494SOL    HW179379  14.244  11.652   3.299
92494SOL    HW279380  14.212  11.738   3.179
92495SOL     OW79381   7.154   4.380   5.635
92495SOL    HW179382   7.161   4.429   5.717
92495SOL    HW279383   7.189   4.293   5.657
92496SOL     OW79384  13.411   4.471   5.946
92496SOL    HW179385  13.432   4.396   5.891
92496SOL    HW279386  13.483   4.474   6.010
92497SOL     OW79387   0.951   3.800   2.269
92497SOL    HW179388   0.897   3.763   2.339
92497SOL    HW279389   0.987   3.724   2.224
92498SOL     OW79390   7.734  11.786  11.359
92498SOL    HW179391   7.810  11.840  11.337
92498SOL    HW279392   7.730  11.722  11.287
92499SOL     OW79393   3.984   9.953   8.454
92499SOL    HW179394   3.889   9.958   8.449
92499SOL    HW279395   4.007  10.004   8.532
92500SOL     OW79396   2.364   3.275  10.486
92500SOL    HW179397   2.451   3.267  10.447
92500SOL    HW279398   2.308   3.220  10.431
92501SOL     OW79399   6.194   4.298   5.041
92501SOL    HW179400   6.129   4.330   4.979
92501SOL    HW279401   6.255   4.246   4.988
92502SOL     OW79402   9.177  10.767   3.627
92502SOL    HW179403   9.184  10.735   3.537
92502SOL    HW279404   9.224  10.702   3.679
92503SOL     OW79405   2.118   4.011  11.845
92503SOL    HW179406   2.044   4.047  11.894
92503SOL    HW279407   2.078   3.948  11.785
92504SOL     OW79408  14.122   1.886   3.370
92504SOL    HW179409  14.104   1.838   3.451
92504SOL    HW279410  14.183   1.830   3.322
92505SOL     OW79411   4.986   5.104   8.599
92505SOL    HW179412   4.952   5.051   8.527
92505SOL    HW279413   4.977   5.049   8.676
92506SOL     OW79414   4.905   6.499  13.124
92506SOL    HW179415   4.867   6.568  13.070
92506SOL    HW279416   4.996   6.494  13.095
92507SOL     OW79417   9.109  14.805  11.696
92507SOL    HW179418   9.195  14.812  11.738
92507SOL    HW279419   9.062  14.742  11.750
92508SOL     OW79420   8.502   0.408   2.228
92508SOL    HW179421   8.494   0.343   2.297
92508SOL    HW279422   8.503   0.358   2.146
92509SOL     OW79423   2.128   2.657   5.419
92509SOL    HW179424   2.165   2.715   5.353
92509SOL    HW279425   2.170   2.683   5.501
92510SOL     OW79426  14.707   0.497  13.254
92510SOL    HW179427  14.674   0.450  13.178
92510SOL    HW279428  14.629   0.521  13.303
92511SOL     OW79429  12.316  14.484   4.002
92511SOL    HW179430  12.359  14.547   3.944
92511SOL    HW279431  12.382  14.464   4.069
92512SOL     OW79432  11.959   8.150   7.639
92512SOL    HW179433  11.875   8.160   7.685
92512SOL    HW279434  12.024   8.183   7.702
92513SOL     OW79435   1.133   8.485   5.829
92513SOL    HW179436   1.097   8.397   5.842
92513SOL    HW279437   1.079   8.522   5.759
92514SOL     OW79438   1.078   2.559   3.258
92514SOL    HW179439   0.990   2.524   3.243
92514SOL    HW279440   1.136   2.500   3.209
92515SOL     OW79441   9.529   8.399  13.560
92515SOL    HW179442   9.498   8.374  13.647
92515SOL    HW279443   9.624   8.389  13.565
92516SOL     OW79444   6.693   2.554   5.848
92516SOL    HW179445   6.653   2.637   5.821
92516SOL    HW279446   6.619   2.495   5.860
92517SOL     OW79447   1.371   4.127   4.729
92517SOL    HW179448   1.381   4.222   4.739
92517SOL    HW279449   1.288   4.108   4.774
92518SOL     OW79450  11.485   7.228   5.450
92518SOL    HW179451  11.434   7.309   5.448
92518SOL    HW279452  11.422   7.161   5.478
92519SOL     OW79453   8.631  12.169  11.811
92519SOL    HW179454   8.667  12.116  11.883
92519SOL    HW279455   8.595  12.247  11.854
92520SOL     OW79456   5.317   0.072   3.064
92520SOL    HW179457   5.386   0.007   3.052
92520SOL    HW279458   5.323   0.096   3.157
92521SOL     OW79459   6.140   8.409   7.945
92521SOL    HW179460   6.162   8.332   7.892
92521SOL    HW279461   6.091   8.466   7.886
92522SOL     OW79462  14.852  10.476   9.600
92522SOL    HW179463  14.784  10.506   9.540
92522SOL    HW279464   0.049  10.471   9.546
92523SOL     OW79465  10.873   2.857   3.798
92523SOL    HW179466  10.884   2.949   3.774
92523SOL    HW279467  10.863   2.858   3.893
92524SOL     OW79468   1.780   4.058   1.642
92524SOL    HW179469   1.730   4.121   1.589
92524SOL    HW279470   1.774   3.976   1.594
92525SOL     OW79471   3.173   0.615  14.092
92525SOL    HW179472   3.256   0.645  14.129
92525SOL    HW279473   3.166   0.663  14.009
92526SOL     OW79474   9.185  11.803   3.521
92526SOL    HW179475   9.270  11.770   3.490
92526SOL    HW279476   9.202  11.895   3.544
92527SOL     OW79477  11.626   0.352   3.733
92527SOL    HW179478  11.611   0.337   3.639
92527SOL    HW279479  11.703   0.409   3.736
92528SOL     OW79480   8.289   9.342   3.196
92528SOL    HW179481   8.274   9.282   3.123
92528SOL    HW279482   8.212   9.332   3.251
92529SOL     OW79483   1.372   7.517   4.606
92529SOL    HW179484   1.442   7.508   4.541
92529SOL    HW279485   1.343   7.608   4.597
92530SOL     OW79486   7.147   1.805   2.103
92530SOL    HW179487   7.197   1.751   2.042
92530SOL    HW279488   7.127   1.746   2.176
92531SOL     OW79489   7.173   2.551   0.758
92531SOL    HW179490   7.219   2.524   0.678
92531SOL    HW279491   7.233   2.527   0.828
92532SOL     OW79492   8.908   8.598  12.662
92532SOL    HW179493   8.989   8.552  12.683
92532SOL    HW279494   8.873   8.550  12.587
92533SOL     OW79495   2.844   5.546   6.322
92533SOL    HW179496   2.865   5.638   6.304
92533SOL    HW279497   2.753   5.547   6.351
92534SOL     OW79498  10.180  12.171   4.244
92534SOL    HW179499  10.166  12.077   4.229
92534SOL    HW279500  10.094  12.210   4.233
92535SOL     OW79501   7.479   7.352  14.317
92535SOL    HW179502   7.534   7.430  14.325
92535SOL    HW279503   7.408   7.378  14.258
92536SOL     OW79504  10.800   4.163   6.098
92536SOL    HW179505  10.826   4.242   6.051
92536SOL    HW279506  10.881   4.128   6.134
92537SOL     OW79507   8.142   6.485   8.473
92537SOL    HW179508   8.093   6.435   8.538
92537SOL    HW279509   8.226   6.503   8.515
92538SOL     OW79510   8.552  13.870   1.802
92538SOL    HW179511   8.506  13.786   1.812
92538SOL    HW279512   8.639  13.853   1.837
92539SOL     OW79513   4.435  13.735   4.745
92539SOL    HW179514   4.398  13.658   4.701
92539SOL    HW279515   4.524  13.742   4.710
92540SOL     OW79516  10.881   0.182  11.390
92540SOL    HW179517  10.796   0.185  11.345
92540SOL    HW279518  10.881   0.259  11.447
92541SOL     OW79519  10.857   0.216   2.448
92541SOL    HW179520  10.926   0.158   2.480
92541SOL    HW279521  10.786   0.205   2.511
92542SOL     OW79522   7.434   6.990   5.242
92542SOL    HW179523   7.489   6.919   5.208
92542SOL    HW279524   7.480   7.070   5.216
92543SOL     OW79525   3.627   3.145   3.107
92543SOL    HW179526   3.722   3.146   3.118
92543SOL    HW279527   3.595   3.085   3.175
92544SOL     OW79528   4.944   6.677   2.784
92544SOL    HW179529   4.932   6.631   2.701
92544SOL    HW279530   5.001   6.620   2.835
92545SOL     OW79531   2.823   4.603   1.475
92545SOL    HW179532   2.804   4.557   1.557
92545SOL    HW279533   2.751   4.579   1.417
92546SOL     OW79534   1.271   4.923  14.608
92546SOL    HW179535   1.327   4.852  14.639
92546SOL    HW279536   1.316   4.960  14.533
92547SOL     OW79537   3.438   2.114   8.712
92547SOL    HW179538   3.355   2.136   8.754
92547SOL    HW279539   3.441   2.169   8.634
92548SOL     OW79540   6.330   1.365   2.260
92548SOL    HW179541   6.370   1.427   2.321
92548SOL    HW279542   6.239   1.358   2.289
92549SOL     OW79543  14.846  12.979  14.239
92549SOL    HW179544  14.817  12.896  14.277
92549SOL    HW279545  14.770  13.009  14.188
92550SOL     OW79546   3.173   2.930  13.792
92550SOL    HW179547   3.152   2.846  13.750
92550SOL    HW279548   3.262   2.918  13.825
92551SOL     OW79549   4.888   9.281  14.320
92551SOL    HW179550   4.806   9.246  14.285
92551SOL    HW279551   4.944   9.291  14.243
92552SOL     OW79552   4.965   4.496   2.475
92552SOL    HW179553   5.022   4.441   2.421
92552SOL    HW279554   4.884   4.447   2.482
92553SOL     OW79555  11.624  11.566   3.955
92553SOL    HW179556  11.560  11.518   3.902
92553SOL    HW279557  11.658  11.501   4.017
92554SOL     OW79558  13.165   3.810   9.144
92554SOL    HW179559  13.227   3.776   9.209
92554SOL    HW279560  13.210   3.801   9.060
92555SOL     OW79561   5.833   8.300   0.232
92555SOL    HW179562   5.796   8.231   0.288
92555SOL    HW279563   5.763   8.364   0.223
92556SOL     OW79564   0.984  11.584  11.548
92556SOL    HW179565   0.993  11.617  11.458
92556SOL    HW279566   1.026  11.651  11.602
92557SOL     OW79567   7.504   8.873   1.939
92557SOL    HW179568   7.599   8.860   1.940
92557SOL    HW279569   7.468   8.788   1.912
92558SOL     OW79570  10.375   5.681   5.977
92558SOL    HW179571  10.392   5.717   5.890
92558SOL    HW279572  10.334   5.597   5.960
92559SOL     OW79573  10.951   7.339   8.621
92559SOL    HW179574  10.988   7.405   8.679
92559SOL    HW279575  10.863   7.322   8.656
92560SOL     OW79576  11.499   7.024   8.379
92560SOL    HW179577  11.410   7.050   8.356
92560SOL    HW279578  11.511   6.939   8.335
92561SOL     OW79579  14.543   3.547   9.734
92561SOL    HW179580  14.463   3.513   9.694
92561SOL    HW279581  14.532   3.531   9.827
92562SOL     OW79582   4.672  14.866   3.940
92562SOL    HW179583   4.754   0.001   3.986
92562SOL    HW279584   4.679   0.031   3.858
92563SOL     OW79585  12.101   5.853   0.027
92563SOL    HW179586  12.061   5.830  14.825
92563SOL    HW279587  12.112   5.769   0.072
92564SOL     OW79588   6.366  12.715  10.533
92564SOL    HW179589   6.394  12.680  10.449
92564SOL    HW279590   6.340  12.806  10.515
92565SOL     OW79591   4.354   0.332  13.831
92565SOL    HW179592   4.293   0.259  13.816
92565SOL    HW279593   4.310   0.408  13.791
92566SOL     OW79594  14.134   2.410   9.757
92566SOL    HW179595  14.083   2.401   9.838
92566SOL    HW279596  14.072   2.445   9.693
92567SOL     OW79597  12.889   0.065   8.498
92567SOL    HW179598  12.974   0.098   8.527
92567SOL    HW279599  12.864   0.121   8.425
92568SOL     OW79600   3.127  12.299  13.871
92568SOL    HW179601   3.104  12.362  13.802
92568SOL    HW279602   3.205  12.254  13.838
92569SOL     OW79603  12.216  12.618   7.876
92569SOL    HW179604  12.217  12.549   7.942
92569SOL    HW279605  12.296  12.668   7.891
92570SOL     OW79606   7.120  10.368   7.070
92570SOL    HW179607   7.149  10.459   7.070
92570SOL    HW279608   7.136  10.337   7.159
92571SOL     OW79609   0.066  10.536   6.155
92571SOL    HW179610  14.877  10.477   6.129
92571SOL    HW279611   0.021  10.611   6.193
92572SOL     OW79612   4.684   2.099   1.400
92572SOL    HW179613   4.683   2.192   1.379
92572SOL    HW279614   4.753   2.089   1.465
92573SOL     OW79615   6.574   4.254  14.647
92573SOL    HW179616   6.580   4.168  14.606
92573SOL    HW279617   6.598   4.315  14.577
92574SOL     OW79618   9.342  12.041  10.856
92574SOL    HW179619   9.430  12.074  10.840
92574SOL    HW279620   9.349  11.993  10.938
92575SOL     OW79621  13.540  11.701   1.647
92575SOL    HW179622  13.615  11.648   1.620
92575SOL    HW279623  13.567  11.740   1.730
92576SOL     OW79624   9.828  10.811   4.116
92576SOL    HW179625   9.784  10.881   4.068
92576SOL    HW279626   9.760  10.772   4.170
92577SOL     OW79627   0.531   8.431   4.773
92577SOL    HW179628   0.446   8.446   4.816
92577SOL    HW279629   0.586   8.503   4.803
92578SOL     OW79630   6.697  14.782  13.915
92578SOL    HW179631   6.680  14.689  13.901
92578SOL    HW279632   6.623  14.812  13.968
92579SOL     OW79633  11.752  11.909  11.433
92579SOL    HW179634  11.790  11.904  11.345
92579SOL    HW279635  11.790  11.834  11.480
92580SOL     OW79636   6.087  13.994  11.486
92580SOL    HW179637   6.083  13.921  11.424
92580SOL    HW279638   6.033  13.965  11.560
92581SOL     OW79639  13.667   5.445  10.568
92581SOL    HW179640  13.712   5.523  10.534
92581SOL    HW279641  13.712   5.372  10.527
92582SOL     OW79642  13.227   1.734   1.956
92582SOL    HW179643  13.321   1.722   1.972
92582SOL    HW279644  13.213   1.698   1.869
92583SOL     OW79645  10.148   8.005   0.432
92583SOL    HW179646  10.148   8.018   0.337
92583SOL    HW279647  10.154   7.911   0.444
92584SOL     OW79648   4.161   7.005   0.811
92584SOL    HW179649   4.130   7.005   0.721
92584SOL    HW279650   4.100   6.948   0.858
92585SOL     OW79651   4.757   9.312   2.962
92585SOL    HW179652   4.778   9.325   3.054
92585SOL    HW279653   4.712   9.391   2.935
92586SOL     OW79654   2.804   8.661  13.302
92586SOL    HW179655   2.727   8.718  13.307
92586SOL    HW279656   2.878   8.721  13.293
92587SOL     OW79657  14.779   2.410  11.547
92587SOL    HW179658  14.843   2.339  11.553
92587SOL    HW279659  14.696   2.366  11.529
92588SOL     OW79660   8.480   1.267   4.348
92588SOL    HW179661   8.477   1.252   4.442
92588SOL    HW279662   8.566   1.234   4.321
92589SOL     OW79663   2.960  13.580   5.171
92589SOL    HW179664   3.052  13.604   5.158
92589SOL    HW279665   2.938  13.614   5.257
92590SOL     OW79666   0.883   2.177   2.787
92590SOL    HW179667   0.919   2.089   2.778
92590SOL    HW279668   0.839   2.193   2.704
92591SOL     OW79669   5.250   4.642  10.224
92591SOL    HW179670   5.170   4.624  10.274
92591SOL    HW279671   5.247   4.736  10.206
92592SOL     OW79672   4.055   3.152   2.352
92592SOL    HW179673   4.031   3.201   2.431
92592SOL    HW279674   4.051   3.060   2.379
92593SOL     OW79675  13.152   9.182   9.208
92593SOL    HW179676  13.205   9.256   9.241
92593SOL    HW279677  13.192   9.105   9.248
92594SOL     OW79678   7.160  10.835   6.185
92594SOL    HW179679   7.129  10.815   6.097
92594SOL    HW279680   7.249  10.799   6.188
92595SOL     OW79681   0.293   3.974   9.038
92595SOL    HW179682   0.385   3.981   9.062
92595SOL    HW279683   0.267   3.887   9.068
92596SOL     OW79684   4.426  13.049   7.938
92596SOL    HW179685   4.395  13.070   7.850
92596SOL    HW279686   4.461  13.132   7.972
92597SOL     OW79687   5.328   8.753   5.495
92597SOL    HW179688   5.257   8.817   5.500
92597SOL    HW279689   5.400   8.792   5.544
92598SOL     OW79690   0.490   4.887  10.375
92598SOL    HW179691   0.498   4.791  10.380
92598SOL    HW279692   0.476   4.905  10.282
92599SOL     OW79693  12.542  13.584   1.246
92599SOL    HW179694  12.633  13.612   1.243
92599SOL    HW279695  12.534  13.532   1.326
92600SOL     OW79696   3.092  12.711   1.352
92600SOL    HW179697   3.027  12.713   1.422
92600SOL    HW279698   3.165  12.659   1.387
92601SOL     OW79699   8.697  11.549  12.279
92601SOL    HW179700   8.648  11.626  12.309
92601SOL    HW279701   8.631  11.480  12.272
92602SOL     OW79702   7.946  10.841  11.526
92602SOL    HW179703   7.937  10.880  11.613
92602SOL    HW279704   8.021  10.782  11.533
92603SOL     OW79705  12.541   8.348   4.512
92603SOL    HW179706  12.539   8.253   4.505
92603SOL    HW279707  12.550   8.365   4.606
92604SOL     OW79708   0.543   1.971  14.045
92604SOL    HW179709   0.465   1.923  14.016
92604SOL    HW279710   0.578   2.011  13.965
92605SOL     OW79711  13.612  11.308   0.649
92605SOL    HW179712  13.603  11.395   0.687
92605SOL    HW279713  13.559  11.251   0.705
92606SOL     OW79714   0.869   4.043  11.065
92606SOL    HW179715   0.775   4.028  11.080
92606SOL    HW279716   0.911   4.013  11.145
92607SOL     OW79717  10.772   3.642   8.786
92607SOL    HW179718  10.750   3.583   8.714
92607SOL    HW279719  10.861   3.673   8.766
92608SOL     OW79720  14.276  11.464   9.280
92608SOL    HW179721  14.187  11.499   9.281
92608SOL    HW279722  14.266  11.372   9.254
92609SOL     OW79723   3.594   1.184   1.281
92609SOL    HW179724   3.576   1.274   1.308
92609SOL    HW279725   3.626   1.192   1.192
92610SOL     OW79726   5.892   2.882   2.971
92610SOL    HW179727   5.952   2.879   3.045
92610SOL    HW279728   5.879   2.976   2.955
92611SOL     OW79729  12.598  12.757   0.404
92611SOL    HW179730  12.653  12.835   0.412
92611SOL    HW279731  12.658  12.688   0.374
92612SOL     OW79732   9.739   1.668   3.690
92612SOL    HW179733   9.646   1.644   3.686
92612SOL    HW279734   9.762   1.660   3.782
92613SOL     OW79735   0.873  11.030   5.966
92613SOL    HW179736   0.949  11.038   5.907
92613SOL    HW279737   0.798  11.029   5.907
92614SOL     OW79738  13.389  11.008   1.637
92614SOL    HW179739  13.313  11.044   1.591
92614SOL    HW279740  13.372  10.914   1.642
92615SOL     OW79741  12.433   3.567  14.111
92615SOL    HW179742  12.479   3.586  14.029
92615SOL    HW279743  12.495   3.514  14.162
92616SOL     OW79744   8.521   1.928   0.115
92616SOL    HW179745   8.431   1.896   0.110
92616SOL    HW279746   8.538   1.965   0.029
92617SOL     OW79747   6.089   5.503  14.761
92617SOL    HW179748   6.115   5.588  14.725
92617SOL    HW279749   6.046   5.524  14.844
92618SOL     OW79750  14.744   4.108  10.622
92618SOL    HW179751  14.665   4.067  10.655
92618SOL    HW279752  14.811   4.040  10.628
92619SOL     OW79753  13.389   8.316   1.464
92619SOL    HW179754  13.410   8.379   1.396
92619SOL    HW279755  13.362   8.370   1.539
92620SOL     OW79756  14.572   7.521  14.496
92620SOL    HW179757  14.511   7.496  14.426
92620SOL    HW279758  14.583   7.615  14.485
92621SOL     OW79759  10.230  10.292  11.026
92621SOL    HW179760  10.311  10.330  10.991
92621SOL    HW279761  10.251  10.270  11.117
92622SOL     OW79762  10.547   3.283  10.294
92622SOL    HW179763  10.479   3.303  10.360
92622SOL    HW279764  10.626   3.324  10.328
92623SOL     OW79765  10.935  10.602   6.607
92623SOL    HW179766  10.934  10.675   6.668
92623SOL    HW279767  10.860  10.547   6.633
92624SOL     OW79768  12.986   7.829  12.719
92624SOL    HW179769  12.946   7.747  12.748
92624SOL    HW279770  12.914   7.877  12.680
92625SOL     OW79771   6.889   9.445   1.105
92625SOL    HW179772   6.933   9.425   1.187
92625SOL    HW279773   6.959   9.471   1.046
92626SOL     OW79774   4.339   0.922   1.647
92626SOL    HW179775   4.347   0.990   1.581
92626SOL    HW279776   4.346   0.840   1.598
92627SOL     OW79777   7.787   7.051   4.460
92627SOL    HW179778   7.835   6.971   4.439
92627SOL    HW279779   7.794   7.058   4.555
92628SOL     OW79780   2.594   6.580   5.965
92628SOL    HW179781   2.617   6.672   5.967
92628SOL    HW279782   2.569   6.560   6.056
92629SOL     OW79783   7.894   4.171   9.434
92629SOL    HW179784   7.953   4.150   9.362
92629SOL    HW279785   7.951   4.183   9.510
92630SOL     OW79786  11.230   9.905  10.749
92630SOL    HW179787  11.280   9.830  10.716
92630SOL    HW279788  11.142   9.892  10.712
92631SOL     OW79789   6.938  11.972  10.813
92631SOL    HW179790   6.868  12.016  10.765
92631SOL    HW279791   7.019  12.001  10.772
92632SOL     OW79792   4.704   9.347   7.985
92632SOL    HW179793   4.750   9.405   8.046
92632SOL    HW279794   4.729   9.259   8.013
92633SOL     OW79795   3.878   1.416   7.138
92633SOL    HW179796   3.963   1.380   7.164
92633SOL    HW279797   3.893   1.510   7.132
92634SOL     OW79798  14.172  10.888  12.408
92634SOL    HW179799  14.165  10.835  12.488
92634SOL    HW279800  14.159  10.826  12.337
92635SOL     OW79801  12.740  10.703   7.538
92635SOL    HW179802  12.828  10.667   7.548
92635SOL    HW279803  12.735  10.728   7.446
92636SOL     OW79804  11.044   1.843  10.946
92636SOL    HW179805  11.056   1.760  10.901
92636SOL    HW279806  10.972   1.886  10.900
92637SOL     OW79807   4.661   3.321   5.447
92637SOL    HW179808   4.613   3.369   5.379
92637SOL    HW279809   4.716   3.260   5.398
92638SOL     OW79810  11.849   1.149   6.783
92638SOL    HW179811  11.757   1.139   6.805
92638SOL    HW279812  11.850   1.168   6.690
92639SOL     OW79813   4.117   3.347  10.939
92639SOL    HW179814   4.068   3.428  10.957
92639SOL    HW279815   4.204   3.363  10.977
92640SOL     OW79816  13.517   3.774   5.890
92640SOL    HW179817  13.573   3.836   5.938
92640SOL    HW279818  13.432   3.817   5.884
92641SOL     OW79819  12.346   0.884   8.000
92641SOL    HW179820  12.423   0.925   7.959
92641SOL    HW279821  12.272   0.914   7.947
92642SOL     OW79822   1.045   6.385  14.229
92642SOL    HW179823   0.979   6.338  14.279
92642SOL    HW279824   1.038   6.350  14.141
92643SOL     OW79825   1.263  10.424   3.308
92643SOL    HW179826   1.176  10.419   3.268
92643SOL    HW279827   1.288  10.333   3.323
92644SOL     OW79828   2.264  10.625   0.601
92644SOL    HW179829   2.214  10.705   0.581
92644SOL    HW279830   2.351  10.657   0.624
92645SOL     OW79831   6.411  14.658   3.668
92645SOL    HW179832   6.328  14.633   3.708
92645SOL    HW279833   6.472  14.589   3.692
92646SOL     OW79834   7.471  11.378  13.240
92646SOL    HW179835   7.423  11.374  13.158
92646SOL    HW279836   7.495  11.288  13.259
92647SOL     OW79837  12.826   6.113  14.781
92647SOL    HW179838  12.900   6.057  14.804
92647SOL    HW279839  12.797   6.149  14.865
92648SOL     OW79840   8.696   7.319   5.569
92648SOL    HW179841   8.785   7.348   5.588
92648SOL    HW279842   8.659   7.387   5.514
92649SOL     OW79843  10.009  10.592   0.899
92649SOL    HW179844   9.922  10.565   0.929
92649SOL    HW279845  10.004  10.688   0.894
92650SOL     OW79846  10.370   1.747   2.558
92650SOL    HW179847  10.331   1.735   2.645
92650SOL    HW279848  10.410   1.662   2.538
92651SOL     OW79849   4.400  11.798   6.142
92651SOL    HW179850   4.352  11.877   6.116
92651SOL    HW279851   4.342  11.756   6.206
92652SOL     OW79852   7.044   7.417   2.076
92652SOL    HW179853   6.989   7.350   2.118
92652SOL    HW279854   7.017   7.499   2.117
92653SOL     OW79855   4.822   2.961   7.243
92653SOL    HW179856   4.822   2.986   7.151
92653SOL    HW279857   4.771   2.880   7.247
92654SOL     OW79858   2.417  10.543  14.098
92654SOL    HW179859   2.369  10.461  14.088
92654SOL    HW279860   2.354  10.611  14.074
92655SOL     OW79861   2.537  11.107  10.026
92655SOL    HW179862   2.557  11.179  10.086
92655SOL    HW279863   2.471  11.055  10.072
92656SOL     OW79864  14.565   5.826   3.611
92656SOL    HW179865  14.557   5.788   3.698
92656SOL    HW279866  14.562   5.921   3.626
92657SOL     OW79867   9.760   5.106  11.876
92657SOL    HW179868   9.806   5.071  11.952
92657SOL    HW279869   9.733   5.194  11.903
92658SOL     OW79870   2.580  13.299   3.505
92658SOL    HW179871   2.626  13.317   3.423
92658SOL    HW279872   2.625  13.222   3.541
92659SOL     OW79873  13.162  14.277   8.988
92659SOL    HW179874  13.084  14.246   8.941
92659SOL    HW279875  13.220  14.201   8.989
92660SOL     OW79876  14.436   1.664   2.885
92660SOL    HW179877  14.495   1.739   2.893
92660SOL    HW279878  14.489   1.588   2.908
92661SOL     OW79879   1.355  13.713   9.115
92661SOL    HW179880   1.364  13.808   9.113
92661SOL    HW279881   1.263  13.697   9.137
92662SOL     OW79882  11.615   8.607   6.831
92662SOL    HW179883  11.698   8.564   6.811
92662SOL    HW279884  11.575   8.622   6.745
92663SOL     OW79885  11.293   7.856   5.069
92663SOL    HW179886  11.217   7.822   5.115
92663SOL    HW279887  11.261   7.879   4.982
92664SOL     OW79888   0.390  14.704   6.751
92664SOL    HW179889   0.434  14.671   6.673
92664SOL    HW279890   0.304  14.733   6.719
92665SOL     OW79891  14.126   9.601   5.420
92665SOL    HW179892  14.054   9.570   5.364
92665SOL    HW279893  14.143   9.528   5.479
92666SOL     OW79894  11.565  13.772   8.793
92666SOL    HW179895  11.623  13.848   8.795
92666SOL    HW279896  11.484  13.805   8.756
92667SOL     OW79897   0.071  12.975   2.682
92667SOL    HW179898  14.878  13.017   2.725
92667SOL    HW279899   0.096  13.037   2.613
92668SOL     OW79900  11.447   7.134  12.207
92668SOL    HW179901  11.480   7.222  12.227
92668SOL    HW279902  11.445   7.130  12.112
92669SOL     OW79903  13.522   5.448   4.879
92669SOL    HW179904  13.518   5.369   4.825
92669SOL    HW279905  13.478   5.424   4.960
92670SOL     OW79906   9.711   3.498   7.214
92670SOL    HW179907   9.740   3.588   7.221
92670SOL    HW279908   9.642   3.501   7.147
92671SOL     OW79909   5.519   5.195  13.380
92671SOL    HW179910   5.432   5.234  13.391
92671SOL    HW279911   5.501   5.107  13.346
92672SOL     OW79912   2.997   2.530   3.330
92672SOL    HW179913   3.089   2.504   3.322
92672SOL    HW279914   2.987   2.602   3.268
92673SOL     OW79915   6.773   8.276   4.559
92673SOL    HW179916   6.737   8.358   4.526
92673SOL    HW279917   6.749   8.275   4.652
92674SOL     OW79918   7.113   8.925  10.628
92674SOL    HW179919   7.055   8.891  10.697
92674SOL    HW279920   7.117   9.019  10.644
92675SOL     OW79921  10.789   3.196   1.699
92675SOL    HW179922  10.733   3.190   1.622
92675SOL    HW279923  10.874   3.224   1.666
92676SOL     OW79924   4.263  14.581   2.990
92676SOL    HW179925   4.277  14.667   2.951
92676SOL    HW279926   4.252  14.522   2.916
92677SOL     OW79927   0.256   0.143   7.311
92677SOL    HW179928   0.193   0.071   7.316
92677SOL    HW279929   0.307   0.126   7.232
92678SOL     OW79930   6.376   3.570   2.060
92678SOL    HW179931   6.320   3.633   2.104
92678SOL    HW279932   6.326   3.542   1.983
92679SOL     OW79933  10.567  11.017   8.407
92679SOL    HW179934  10.656  11.053   8.409
92679SOL    HW279935  10.512  11.087   8.441
92680SOL     OW79936  14.068   2.327   5.081
92680SOL    HW179937  13.994   2.268   5.099
92680SOL    HW279938  14.080   2.321   4.986
92681SOL     OW79939   9.400   1.632   3.159
92681SOL    HW179940   9.360   1.571   3.221
92681SOL    HW279941   9.389   1.590   3.073
92682SOL     OW79942  12.020   1.189   4.922
92682SOL    HW179943  11.932   1.160   4.945
92682SOL    HW279944  12.075   1.111   4.935
92683SOL     OW79945   7.058   7.947   5.347
92683SOL    HW179946   7.052   8.024   5.291
92683SOL    HW279947   6.996   7.965   5.419
92684SOL     OW79948   9.967  14.725   0.392
92684SOL    HW179949   9.908  14.682   0.329
92684SOL    HW279950  10.020  14.785   0.339
92685SOL     OW79951   4.993   0.117   1.095
92685SOL    HW179952   5.056   0.177   1.134
92685SOL    HW279953   4.996   0.136   1.001
92686SOL     OW79954  13.629   8.557   4.154
92686SOL    HW179955  13.596   8.534   4.241
92686SOL    HW279956  13.570   8.625   4.123
92687SOL     OW79957  14.191   1.380   0.398
92687SOL    HW179958  14.174   1.289   0.424
92687SOL    HW279959  14.278   1.377   0.358
92688SOL     OW79960  11.539   0.189   8.787
92688SOL    HW179961  11.615   0.188   8.729
92688SOL    HW279962  11.569   0.144   8.866
92689SOL     OW79963   9.400   5.751   7.486
92689SOL    HW179964   9.341   5.746   7.561
92689SOL    HW279965   9.349   5.718   7.412
92690SOL     OW79966   1.686   9.436  10.888
92690SOL    HW179967   1.631   9.462  10.814
92690SOL    HW279968   1.758   9.387  10.848
92691SOL     OW79969   3.886   8.123   2.099
92691SOL    HW179970   3.903   8.133   2.006
92691SOL    HW279971   3.794   8.097   2.104
92692SOL     OW79972  12.070   6.487   3.191
92692SOL    HW179973  12.135   6.418   3.195
92692SOL    HW279974  12.021   6.479   3.273
92693SOL     OW79975   8.442   3.545   9.474
92693SOL    HW179976   8.536   3.560   9.464
92693SOL    HW279977   8.428   3.456   9.443
92694SOL     OW79978  12.973   8.001   4.335
92694SOL    HW179979  13.055   8.031   4.376
92694SOL    HW279980  12.928   7.952   4.405
92695SOL     OW79981   3.326   1.384  13.900
92695SOL    HW179982   3.366   1.312  13.850
92695SOL    HW279983   3.278   1.434  13.834
92696SOL     OW79984  12.106   0.721   8.267
92696SOL    HW179985  12.138   0.683   8.185
92696SOL    HW279986  12.020   0.681   8.280
92697SOL     OW79987   3.852   3.575   4.756
92697SOL    HW179988   3.871   3.618   4.839
92697SOL    HW279989   3.932   3.529   4.733
92698SOL     OW79990   3.279   4.556   4.055
92698SOL    HW179991   3.355   4.499   4.037
92698SOL    HW279992   3.203   4.501   4.035
92699SOL     OW79993  10.080  13.223   3.829
92699SOL    HW179994  10.104  13.306   3.787
92699SOL    HW279995  10.102  13.236   3.922
92700SOL     OW79996  13.451  13.753  13.016
92700SOL    HW179997  13.392  13.828  13.026
92700SOL    HW279998  13.521  13.769  13.079
92701SOL     OW79999   8.079  11.723  12.166
92701SOL    HW180000   8.089  11.630  12.144
92701SOL    HW280001   8.092  11.727  12.261
92702SOL     OW80002   8.407  12.926  10.537
92702SOL    HW180003   8.325  12.917  10.586
92702SOL    HW280004   8.425  12.837  10.504
92703SOL     OW80005   3.081   0.794   5.996
92703SOL    HW180006   3.123   0.719   6.037
92703SOL    HW280007   3.123   0.870   6.034
92704SOL     OW80008  14.260   6.952  10.915
92704SOL    HW180009  14.306   7.018  10.863
92704SOL    HW280010  14.200   7.001  10.970
92705SOL     OW80011   5.023   2.779  12.360
92705SOL    HW180012   4.960   2.819  12.300
92705SOL    HW280013   5.020   2.835  12.438
92706SOL     OW80014  14.471  12.057   3.551
92706SOL    HW180015  14.452  11.964   3.539
92706SOL    HW280016  14.385  12.099   3.545
92707SOL     OW80017   8.189   9.469   7.426
92707SOL    HW180018   8.209   9.531   7.356
92707SOL    HW280019   8.249   9.396   7.411
92708SOL     OW80020   8.008   1.366  10.220
92708SOL    HW180021   7.953   1.287  10.224
92708SOL    HW280022   8.098   1.332  10.214
92709SOL     OW80023   3.147   1.787   4.508
92709SOL    HW180024   3.157   1.740   4.590
92709SOL    HW280025   3.058   1.767   4.479
92710SOL     OW80026   6.128   4.967   5.736
92710SOL    HW180027   6.183   4.938   5.663
92710SOL    HW280028   6.190   4.982   5.808
92711SOL     OW80029   5.488  12.793  10.387
92711SOL    HW180030   5.456  12.703  10.374
92711SOL    HW280031   5.445  12.822  10.467
92712SOL     OW80032  14.212   7.698  14.571
92712SOL    HW180033  14.162   7.670  14.648
92712SOL    HW280034  14.177   7.784  14.549
92713SOL     OW80035  11.610   5.183  12.163
92713SOL    HW180036  11.566   5.237  12.229
92713SOL    HW280037  11.703   5.203  12.174
92714SOL     OW80038  13.862   4.057  14.064
92714SOL    HW180039  13.895   4.122  14.126
92714SOL    HW280040  13.887   4.091  13.978
92715SOL     OW80041  14.441  12.545   2.691
92715SOL    HW180042  14.536  12.543   2.682
92715SOL    HW280043  14.409  12.565   2.603
92716SOL     OW80044   1.933  14.650   2.066
92716SOL    HW180045   1.979  14.653   1.982
92716SOL    HW280046   1.840  14.648   2.042
92717SOL     OW80047   9.405   0.611  11.136
92717SOL    HW180048   9.425   0.522  11.163
92717SOL    HW280049   9.471   0.665  11.181
92718SOL     OW80050   1.366   2.791   3.532
92718SOL    HW180051   1.367   2.831   3.445
92718SOL    HW280052   1.442   2.828   3.577
92719SOL     OW80053   5.354   1.234   0.075
92719SOL    HW180054   5.344   1.151   0.121
92719SOL    HW280055   5.438   1.227   0.030
92720SOL     OW80056   9.373   0.781   6.844
92720SOL    HW180057   9.417   0.701   6.874
92720SOL    HW280058   9.398   0.847   6.909
92721SOL     OW80059  11.338   3.226   5.367
92721SOL    HW180060  11.283   3.160   5.323
92721SOL    HW280061  11.316   3.308   5.324
92722SOL     OW80062   6.014   9.437   2.490
92722SOL    HW180063   5.983   9.348   2.507
92722SOL    HW280064   6.042   9.469   2.576
92723SOL     OW80065  11.793   5.463  12.144
92723SOL    HW180066  11.814   5.452  12.051
92723SOL    HW280067  11.742   5.544  12.147
92724SOL     OW80068  11.836  11.752   8.139
92724SOL    HW180069  11.929  11.728   8.144
92724SOL    HW280070  11.819  11.767   8.046
92725SOL     OW80071   1.918   4.824   3.451
92725SOL    HW180072   1.881   4.810   3.538
92725SOL    HW280073   1.998   4.771   3.451
92726SOL     OW80074   5.715  14.847   3.988
92726SOL    HW180075   5.764   0.044   3.965
92726SOL    HW280076   5.782  14.783   4.011
92727SOL     OW80077  12.130   5.553   0.127
92727SOL    HW180078  12.074   5.502   0.067
92727SOL    HW280079  12.217   5.548   0.088
92728SOL     OW80080   5.613  10.217   8.264
92728SOL    HW180081   5.612  10.121   8.271
92728SOL    HW280082   5.521  10.242   8.261
92729SOL     OW80083  13.680   3.176   7.785
92729SOL    HW180084  13.705   3.232   7.712
92729SOL    HW280085  13.584   3.169   7.778
92730SOL     OW80086   8.536   8.432  12.689
92730SOL    HW180087   8.622   8.396  12.709
92730SOL    HW280088   8.513   8.482  12.768
92731SOL     OW80089  12.284  14.552   9.599
92731SOL    HW180090  12.247  14.464   9.595
92731SOL    HW280091  12.218  14.607   9.557
92732SOL     OW80092  10.480  13.426  11.300
92732SOL    HW180093  10.560  13.460  11.341
92732SOL    HW280094  10.500  13.334  11.282
92733SOL     OW80095   4.758   2.993  11.676
92733SOL    HW180096   4.847   3.003  11.641
92733SOL    HW280097   4.759   3.044  11.757
92734SOL     OW80098   4.480   9.892   4.465
92734SOL    HW180099   4.572   9.891   4.491
92734SOL    HW280100   4.449   9.979   4.492
92735SOL     OW80101   2.367  11.597  10.351
92735SOL    HW180102   2.414  11.626  10.273
92735SOL    HW280103   2.383  11.666  10.416
92736SOL     OW80104  10.318   7.297   7.360
92736SOL    HW180105  10.378   7.354   7.407
92736SOL    HW280106  10.373   7.247   7.300
92737SOL     OW80107   5.988   4.654   8.823
92737SOL    HW180108   5.956   4.662   8.912
92737SOL    HW280109   6.032   4.737   8.805
92738SOL     OW80110   4.871  13.748   9.493
92738SOL    HW180111   4.775  13.750   9.489
92738SOL    HW280112   4.898  13.809   9.425
92739SOL     OW80113   8.052   2.155   0.486
92739SOL    HW180114   7.995   2.205   0.544
92739SOL    HW280115   8.048   2.066   0.520
92740SOL     OW80116   8.885   0.922  14.509
92740SOL    HW180117   8.944   0.853  14.540
92740SOL    HW280118   8.849   0.961  14.589
92741SOL     OW80119  13.381   3.376   3.828
92741SOL    HW180120  13.333   3.367   3.910
92741SOL    HW280121  13.392   3.471   3.817
92742SOL     OW80122   1.783   0.581  14.316
92742SOL    HW180123   1.844   0.639  14.270
92742SOL    HW280124   1.815   0.493  14.297
92743SOL     OW80125   1.439   4.624  11.328
92743SOL    HW180126   1.453   4.707  11.374
92743SOL    HW280127   1.361   4.588  11.369
92744SOL     OW80128   6.855  12.422   7.218
92744SOL    HW180129   6.910  12.353   7.180
92744SOL    HW280130   6.860  12.407   7.313
92745SOL     OW80131   4.725  14.830   4.973
92745SOL    HW180132   4.647  14.847   4.920
92745SOL    HW280133   4.766   0.034   4.983
92746SOL     OW80134  10.089   2.599  11.398
92746SOL    HW180135  10.028   2.580  11.327
92746SOL    HW280136  10.034   2.626  11.471
92747SOL     OW80137  14.407   2.646   9.126
92747SOL    HW180138  14.391   2.677   9.215
92747SOL    HW280139  14.487   2.692   9.099
92748SOL     OW80140  10.378   7.492   7.865
92748SOL    HW180141  10.283   7.499   7.870
92748SOL    HW280142  10.402   7.545   7.788
92749SOL     OW80143   0.763   3.099   2.953
92749SOL    HW180144   0.752   3.185   2.913
92749SOL    HW280145   0.677   3.058   2.946
92750SOL     OW80146   9.817   9.905  10.099
92750SOL    HW180147   9.845   9.886  10.009
92750SOL    HW280148   9.897   9.932  10.144
92751SOL     OW80149  12.616   8.521   7.490
92751SOL    HW180150  12.604   8.580   7.416
92751SOL    HW280151  12.664   8.573   7.555
92752SOL     OW80152   7.038   4.060  11.108
92752SOL    HW180153   6.980   4.069  11.033
92752SOL    HW280154   7.030   3.968  11.134
92753SOL     OW80155   5.647  11.831   5.565
92753SOL    HW180156   5.661  11.842   5.471
92753SOL    HW280157   5.722  11.778   5.593
92754SOL     OW80158  11.349   5.759  13.043
92754SOL    HW180159  11.423   5.700  13.027
92754SOL    HW280160  11.380   5.845  13.013
92755SOL     OW80161  13.735   9.558   5.143
92755SOL    HW180162  13.641   9.570   5.157
92755SOL    HW280163  13.744   9.466   5.118
92756SOL     OW80164  13.134   9.349   7.770
92756SOL    HW180165  13.108   9.264   7.734
92756SOL    HW280166  13.229   9.342   7.781
92757SOL     OW80167   4.363   6.183  10.058
92757SOL    HW180168   4.311   6.170  10.138
92757SOL    HW280169   4.337   6.269  10.026
92758SOL     OW80170  10.848   1.018   3.606
92758SOL    HW180171  10.822   0.927   3.594
92758SOL    HW280172  10.776   1.069   3.569
92759SOL     OW80173  10.001  11.153  12.406
92759SOL    HW180174  10.012  11.069  12.361
92759SOL    HW280175   9.923  11.191  12.368
92760SOL     OW80176   9.764  13.889   2.304
92760SOL    HW180177   9.775  13.895   2.209
92760SOL    HW280178   9.738  13.798   2.319
92761SOL     OW80179   7.121  12.327   8.875
92761SOL    HW180180   7.101  12.332   8.782
92761SOL    HW280181   7.179  12.251   8.883
92762SOL     OW80182   7.245   5.687  14.174
92762SOL    HW180183   7.184   5.634  14.124
92762SOL    HW280184   7.238   5.774  14.134
92763SOL     OW80185   2.572   8.205   5.440
92763SOL    HW180186   2.519   8.221   5.518
92763SOL    HW280187   2.581   8.110   5.436
92764SOL     OW80188   5.698   4.173   0.516
92764SOL    HW180189   5.693   4.164   0.611
92764SOL    HW280190   5.710   4.083   0.484
92765SOL     OW80191   0.664   2.090  13.144
92765SOL    HW180192   0.629   2.158  13.086
92765SOL    HW280193   0.753   2.120  13.164
92766SOL     OW80194   7.206   4.290  11.105
92766SOL    HW180195   7.273   4.237  11.147
92766SOL    HW280196   7.134   4.228  11.089
92767SOL     OW80197   5.107  12.064   4.869
92767SOL    HW180198   5.087  11.972   4.851
92767SOL    HW280199   5.056  12.084   4.948
92768SOL     OW80200   4.663  13.600   2.801
92768SOL    HW180201   4.643  13.506   2.805
92768SOL    HW280202   4.758  13.603   2.789
92769SOL     OW80203   1.211  14.334   7.645
92769SOL    HW180204   1.244  14.245   7.650
92769SOL    HW280205   1.127  14.332   7.691
92770SOL     OW80206   1.610  11.678   3.039
92770SOL    HW180207   1.667  11.748   3.008
92770SOL    HW280208   1.563  11.649   2.961
92771SOL     OW80209   1.033   5.239   0.183
92771SOL    HW180210   1.057   5.147   0.184
92771SOL    HW280211   1.081   5.278   0.256
92772SOL     OW80212   1.250   4.419   8.205
92772SOL    HW180213   1.265   4.332   8.244
92772SOL    HW280214   1.287   4.480   8.269
92773SOL     OW80215   6.106  10.816   4.900
92773SOL    HW180216   6.031  10.849   4.851
92773SOL    HW280217   6.068  10.774   4.977
92774SOL     OW80218   9.732   8.341   5.489
92774SOL    HW180219   9.731   8.357   5.584
92774SOL    HW280220   9.742   8.247   5.480
92775SOL     OW80221   8.075   1.445   3.771
92775SOL    HW180222   8.015   1.486   3.834
92775SOL    HW280223   8.041   1.469   3.685
92776SOL     OW80224  11.047   2.360  11.492
92776SOL    HW180225  10.991   2.435  11.511
92776SOL    HW280226  11.080   2.377  11.403
92777SOL     OW80227   7.822   1.128   3.123
92777SOL    HW180228   7.895   1.146   3.182
92777SOL    HW280229   7.816   1.206   3.067
92778SOL     OW80230   3.609   1.102   1.917
92778SOL    HW180231   3.674   1.140   1.977
92778SOL    HW280232   3.542   1.064   1.974
92779SOL     OW80233   3.590  11.509   9.970
92779SOL    HW180234   3.605  11.600   9.995
92779SOL    HW280235   3.530  11.476  10.037
92780SOL     OW80236   6.663   8.238  14.474
92780SOL    HW180237   6.568   8.239  14.459
92780SOL    HW280238   6.674   8.283  14.557
92781SOL     OW80239  10.247   5.362  12.470
92781SOL    HW180240  10.321   5.398  12.421
92781SOL    HW280241  10.228   5.279  12.427
92782SOL     OW80242   6.706   2.387   0.138
92782SOL    HW180243   6.681   2.436   0.059
92782SOL    HW280244   6.802   2.388   0.137
92783SOL     OW80245   7.101   7.159   2.316
92783SOL    HW180246   7.128   7.094   2.251
92783SOL    HW280247   7.009   7.176   2.297
92784SOL     OW80248  10.297   1.257  10.263
92784SOL    HW180249  10.206   1.238  10.285
92784SOL    HW280250  10.292   1.309  10.183
92785SOL     OW80251   1.693   5.927   1.388
92785SOL    HW180252   1.616   5.909   1.334
92785SOL    HW280253   1.677   5.881   1.470
92786SOL     OW80254   1.532   8.390   5.451
92786SOL    HW180255   1.507   8.305   5.486
92786SOL    HW280256   1.479   8.453   5.500
92787SOL     OW80257   8.989  12.387   2.891
92787SOL    HW180258   8.963  12.432   2.810
92787SOL    HW280259   9.040  12.312   2.861
92788SOL     OW80260  13.685   3.868   5.407
92788SOL    HW180261  13.590   3.871   5.417
92788SOL    HW280262  13.716   3.951   5.443
92789SOL     OW80263   7.665  11.862   2.269
92789SOL    HW180264   7.662  11.783   2.322
92789SOL    HW280265   7.598  11.849   2.201
92790SOL     OW80266   3.698   1.201   1.030
92790SOL    HW180267   3.779   1.250   1.015
92790SOL    HW280268   3.649   1.209   0.949
92791SOL     OW80269  12.573   4.855   5.276
92791SOL    HW180270  12.605   4.945   5.290
92791SOL    HW280271  12.479   4.865   5.264
92792SOL     OW80272   2.375  10.890   9.157
92792SOL    HW180273   2.305  10.841   9.201
92792SOL    HW280274   2.407  10.951   9.223
92793SOL     OW80275   8.754  13.869   6.206
92793SOL    HW180276   8.710  13.949   6.233
92793SOL    HW280277   8.807  13.844   6.282
92794SOL     OW80278  14.391  10.794  10.353
92794SOL    HW180279  14.456  10.860  10.326
92794SOL    HW280280  14.441  10.731  10.405
92795SOL     OW80281  13.373   0.708   0.182
92795SOL    HW180282  13.461   0.687   0.214
92795SOL    HW280283  13.318   0.709   0.261
92796SOL     OW80284   5.950   2.460   7.199
92796SOL    HW180285   5.858   2.437   7.200
92796SOL    HW280286   5.964   2.501   7.114
92797SOL     OW80287  13.195   9.928   3.473
92797SOL    HW180288  13.276   9.964   3.437
92797SOL    HW280289  13.136   9.922   3.397
92798SOL     OW80290   9.117   4.757   3.891
92798SOL    HW180291   9.142   4.826   3.952
92798SOL    HW280292   9.192   4.749   3.832
92799SOL     OW80293   3.796   2.816  13.912
92799SOL    HW180294   3.831   2.732  13.944
92799SOL    HW280295   3.842   2.832  13.830
92800SOL     OW80296  12.724  11.463   9.009
92800SOL    HW180297  12.748  11.372   9.025
92800SOL    HW280298  12.681  11.463   8.924
92801SOL     OW80299  13.291   2.936   0.233
92801SOL    HW180300  13.218   2.890   0.274
92801SOL    HW280301  13.310   2.885   0.154
92802SOL     OW80302   0.950   9.679  11.154
92802SOL    HW180303   0.886   9.694  11.224
92802SOL    HW280304   0.947   9.585  11.139
92803SOL     OW80305   7.306  14.133   5.432
92803SOL    HW180306   7.391  14.098   5.407
92803SOL    HW280307   7.324  14.192   5.505
92804SOL     OW80308   4.011  11.367  12.879
92804SOL    HW180309   3.924  11.350  12.842
92804SOL    HW280310   4.064  11.392  12.803
92805SOL     OW80311   3.107   1.033   9.873
92805SOL    HW180312   3.188   1.036   9.823
92805SOL    HW280313   3.097   1.121   9.909
92806SOL     OW80314   2.156   1.129   7.574
92806SOL    HW180315   2.112   1.211   7.553
92806SOL    HW280316   2.238   1.156   7.617
92807SOL     OW80317   1.968  12.590   3.225
92807SOL    HW180318   1.984  12.499   3.250
92807SOL    HW280319   2.027  12.606   3.152
92808SOL     OW80320  10.209  13.380  11.088
92808SOL    HW180321  10.283  13.421  11.132
92808SOL    HW280322  10.236  13.373  10.997
92809SOL     OW80323   0.014   8.096  11.540
92809SOL    HW180324   0.077   8.120  11.472
92809SOL    HW280325  14.813   8.088  11.494
92810SOL     OW80326  11.567   0.362  13.875
92810SOL    HW180327  11.560   0.268  13.890
92810SOL    HW280328  11.533   0.402  13.955
92811SOL     OW80329   2.146   1.781   2.868
92811SOL    HW180330   2.182   1.703   2.827
92811SOL    HW280331   2.085   1.817   2.804
92812SOL     OW80332  14.644  12.137   4.422
92812SOL    HW180333  14.653  12.168   4.332
92812SOL    HW280334  14.708  12.066   4.429
92813SOL     OW80335   1.235  14.662   7.890
92813SOL    HW180336   1.262  14.753   7.903
92813SOL    HW280337   1.314  14.619   7.857
92814SOL     OW80338  12.295   7.467   7.843
92814SOL    HW180339  12.271   7.506   7.758
92814SOL    HW280340  12.211   7.439   7.881
92815SOL     OW80341  12.283   7.919  11.118
92815SOL    HW180342  12.320   7.873  11.043
92815SOL    HW280343  12.322   7.875  11.194
92816SOL     OW80344  14.294   2.450   5.214
92816SOL    HW180345  14.246   2.449   5.131
92816SOL    HW280346  14.291   2.542   5.242
92817SOL     OW80347  13.412   0.967   1.514
92817SOL    HW180348  13.344   1.007   1.459
92817SOL    HW280349  13.384   0.876   1.524
92818SOL     OW80350  13.700  11.985   3.687
92818SOL    HW180351  13.663  11.918   3.744
92818SOL    HW280352  13.630  12.004   3.625
92819SOL     OW80353   5.769   2.213   2.745
92819SOL    HW180354   5.782   2.211   2.650
92819SOL    HW280355   5.780   2.305   2.768
92820SOL     OW80356  14.488   5.665   8.404
92820SOL    HW180357  14.539   5.712   8.338
92820SOL    HW280358  14.542   5.589   8.426
92821SOL     OW80359   6.536   6.606   2.937
92821SOL    HW180360   6.561   6.522   2.898
92821SOL    HW280361   6.521   6.586   3.030
92822SOL     OW80362  14.874   3.314  14.807
92822SOL    HW180363  14.866   3.219  14.815
92822SOL    HW280364  14.878   3.330  14.712
92823SOL     OW80365   7.544  12.632   6.369
92823SOL    HW180366   7.623  12.686   6.366
92823SOL    HW280367   7.528  12.617   6.462
92824SOL     OW80368   3.042   1.726   8.638
92824SOL    HW180369   2.993   1.735   8.720
92824SOL    HW280370   2.975   1.714   8.571
92825SOL     OW80371   9.337   7.996  10.021
92825SOL    HW180372   9.305   7.909  10.046
92825SOL    HW280373   9.296   8.013   9.936
92826SOL     OW80374   8.537   3.604   3.332
92826SOL    HW180375   8.543   3.578   3.240
92826SOL    HW280376   8.511   3.696   3.330
92827SOL     OW80377  13.357  11.804   1.021
92827SOL    HW180378  13.434  11.800   1.077
92827SOL    HW280379  13.284  11.775   1.076
92828SOL     OW80380   3.357   0.648   7.835
92828SOL    HW180381   3.279   0.594   7.821
92828SOL    HW280382   3.332   0.735   7.803
92829SOL     OW80383   8.098  12.677  10.928
92829SOL    HW180384   8.087  12.653  10.836
92829SOL    HW280385   8.185  12.645  10.952
92830SOL     OW80386  10.397   9.307   6.161
92830SOL    HW180387  10.481   9.327   6.119
92830SOL    HW280388  10.415   9.310   6.254
92831SOL     OW80389   1.039  11.167   8.522
92831SOL    HW180390   1.006  11.227   8.455
92831SOL    HW280391   1.050  11.084   8.475
92832SOL     OW80392  12.567  12.042   0.053
92832SOL    HW180393  12.650  12.084   0.029
92832SOL    HW280394  12.568  11.958   0.008
92833SOL     OW80395   6.476   8.720  10.434
92833SOL    HW180396   6.514   8.700  10.519
92833SOL    HW280397   6.550   8.753  10.382
92834SOL     OW80398   8.536  10.952   1.733
92834SOL    HW180399   8.535  11.023   1.798
92834SOL    HW280400   8.445  10.942   1.707
92835SOL     OW80401  13.552  13.720   7.684
92835SOL    HW180402  13.492  13.739   7.612
92835SOL    HW280403  13.525  13.633   7.715
92836SOL     OW80404  13.092   7.604   7.239
92836SOL    HW180405  13.045   7.667   7.293
92836SOL    HW280406  13.183   7.610   7.268
92837SOL     OW80407   6.838  10.974   2.083
92837SOL    HW180408   6.831  10.890   2.038
92837SOL    HW280409   6.755  11.018   2.064
92838SOL     OW80410   3.636   0.358   0.972
92838SOL    HW180411   3.594   0.436   0.935
92838SOL    HW280412   3.727   0.384   0.988
92839SOL     OW80413  10.956   5.279  10.778
92839SOL    HW180414  10.977   5.187  10.795
92839SOL    HW280415  10.891   5.302  10.844
92840SOL     OW80416  12.974  10.985   7.980
92840SOL    HW180417  13.016  11.046   7.921
92840SOL    HW280418  12.927  10.924   7.923
92841SOL     OW80419  12.906  14.221   1.600
92841SOL    HW180420  12.837  14.195   1.661
92841SOL    HW280421  12.975  14.156   1.613
92842SOL     OW80422   5.690  10.817   1.236
92842SOL    HW180423   5.747  10.826   1.161
92842SOL    HW280424   5.646  10.901   1.244
92843SOL     OW80425   6.570   5.931  13.308
92843SOL    HW180426   6.627   5.954  13.235
92843SOL    HW280427   6.534   6.015  13.337
92844SOL     OW80428  11.134   2.026  12.783
92844SOL    HW180429  11.135   1.973  12.703
92844SOL    HW280430  11.204   1.989  12.837
92845SOL     OW80431   2.594  11.071   7.280
92845SOL    HW180432   2.541  11.139   7.323
92845SOL    HW280433   2.632  11.115   7.204
92846SOL     OW80434   2.284   5.961   2.863
92846SOL    HW180435   2.206   6.005   2.829
92846SOL    HW280436   2.344   6.032   2.886
92847SOL     OW80437  11.182   1.381   1.101
92847SOL    HW180438  11.126   1.399   1.177
92847SOL    HW280439  11.222   1.465   1.080
92848SOL     OW80440   0.331   0.594   3.117
92848SOL    HW180441   0.411   0.552   3.084
92848SOL    HW280442   0.322   0.672   3.062
92849SOL     OW80443  10.489   2.872   2.079
92849SOL    HW180444  10.444   2.948   2.115
92849SOL    HW280445  10.523   2.902   1.994
92850SOL     OW80446   4.547   4.415   3.855
92850SOL    HW180447   4.558   4.488   3.915
92850SOL    HW280448   4.626   4.417   3.800
92851SOL     OW80449  13.148  12.619   7.868
92851SOL    HW180450  13.219  12.592   7.927
92851SOL    HW280451  13.084  12.548   7.874
92852SOL     OW80452  10.739   2.383  10.998
92852SOL    HW180453  10.779   2.326  11.063
92852SOL    HW280454  10.786   2.466  11.006
92853SOL     OW80455   1.861   4.746   8.171
92853SOL    HW180456   1.908   4.711   8.095
92853SOL    HW280457   1.852   4.671   8.229
92854SOL     OW80458   4.056  14.154  13.477
92854SOL    HW180459   4.060  14.248  13.494
92854SOL    HW280460   3.964  14.136  13.458
92855SOL     OW80461   6.866   9.264   4.465
92855SOL    HW180462   6.918   9.264   4.384
92855SOL    HW280463   6.926   9.296   4.532
92856SOL     OW80464   1.687  10.424   8.126
92856SOL    HW180465   1.599  10.401   8.155
92856SOL    HW280466   1.724  10.472   8.200
92857SOL     OW80467   6.246   4.693  11.938
92857SOL    HW180468   6.262   4.784  11.911
92857SOL    HW280469   6.156   4.693  11.969
92858SOL     OW80470   9.634   5.226   5.606
92858SOL    HW180471   9.713   5.209   5.556
92858SOL    HW280472   9.597   5.306   5.567
92859SOL     OW80473   5.067  13.141   8.747
92859SOL    HW180474   5.149  13.122   8.700
92859SOL    HW280475   5.051  13.234   8.729
92860SOL     OW80476   8.725   9.789   4.175
92860SOL    HW180477   8.665   9.795   4.249
92860SOL    HW280478   8.669   9.792   4.098
92861SOL     OW80479  10.286   3.473   2.127
92861SOL    HW180480  10.304   3.546   2.186
92861SOL    HW280481  10.370   3.428   2.118
92862SOL     OW80482  10.848   5.614   7.236
92862SOL    HW180483  10.900   5.550   7.287
92862SOL    HW280484  10.896   5.623   7.154
92863SOL     OW80485   2.051   4.781   7.084
92863SOL    HW180486   1.982   4.768   7.020
92863SOL    HW280487   2.123   4.726   7.054
92864SOL     OW80488   9.324   1.670   8.439
92864SOL    HW180489   9.303   1.724   8.515
92864SOL    HW280490   9.344   1.734   8.370
92865SOL     OW80491  13.398   3.277   4.109
92865SOL    HW180492  13.480   3.248   4.071
92865SOL    HW280493  13.347   3.197   4.122
92866SOL     OW80494   3.993   0.499   3.471
92866SOL    HW180495   3.912   0.519   3.424
92866SOL    HW280496   4.049   0.575   3.455
92867SOL     OW80497   2.993  10.678  12.564
92867SOL    HW180498   2.954  10.632  12.638
92867SOL    HW280499   2.922  10.732  12.529
92868SOL     OW80500   1.377  13.801   8.023
92868SOL    HW180501   1.338  13.730   8.074
92868SOL    HW280502   1.459  13.821   8.069
92869SOL     OW80503  14.849   5.258   8.699
92869SOL    HW180504   0.029   5.254   8.772
92869SOL    HW280505   0.006   5.203   8.631
92870SOL     OW80506   9.496   0.358   3.243
92870SOL    HW180507   9.561   0.420   3.210
92870SOL    HW280508   9.424   0.364   3.181
92871SOL     OW80509   7.160  14.693   3.596
92871SOL    HW180510   7.110  14.692   3.514
92871SOL    HW280511   7.093  14.699   3.664
92872SOL     OW80512   8.014   8.383   4.334
92872SOL    HW180513   8.066   8.427   4.267
92872SOL    HW280514   8.049   8.416   4.417
92873SOL     OW80515  10.845  12.254  13.151
92873SOL    HW180516  10.761  12.291  13.123
92873SOL    HW280517  10.838  12.247  13.246
92874SOL     OW80518   1.281  13.478  11.317
92874SOL    HW180519   1.335  13.402  11.294
92874SOL    HW280520   1.344  13.547  11.337
92875SOL     OW80521   5.965   9.314   5.704
92875SOL    HW180522   5.927   9.381   5.761
92875SOL    HW280523   6.047   9.353   5.673
92876SOL     OW80524   2.448  12.143  13.507
92876SOL    HW180525   2.388  12.096  13.564
92876SOL    HW280526   2.408  12.229  13.494
92877SOL     OW80527  14.645   8.993   8.147
92877SOL    HW180528  14.649   8.935   8.223
92877SOL    HW280529  14.618   8.937   8.074
92878SOL     OW80530  13.294  14.106   4.996
92878SOL    HW180531  13.270  14.047   5.068
92878SOL    HW280532  13.328  14.184   5.039
92879SOL     OW80533   7.498   5.415  13.789
92879SOL    HW180534   7.514   5.507  13.769
92879SOL    HW280535   7.574   5.369  13.753
92880SOL     OW80536   8.258   5.705  12.411
92880SOL    HW180537   8.272   5.628  12.357
92880SOL    HW280538   8.213   5.767  12.354
92881SOL     OW80539   8.811  12.367   5.833
92881SOL    HW180540   8.756  12.433   5.791
92881SOL    HW280541   8.856  12.414   5.904
92882SOL     OW80542  14.295   7.409   7.083
92882SOL    HW180543  14.204   7.439   7.094
92882SOL    HW280544  14.287   7.325   7.038
92883SOL     OW80545   7.112   0.799   7.303
92883SOL    HW180546   7.084   0.709   7.283
92883SOL    HW280547   7.030   0.847   7.314
92884SOL     OW80548   7.657  11.736   3.572
92884SOL    HW180549   7.720  11.700   3.634
92884SOL    HW280550   7.610  11.659   3.540
92885SOL     OW80551  14.107  13.013   3.603
92885SOL    HW180552  14.083  12.924   3.576
92885SOL    HW280553  14.127  13.059   3.521
92886SOL     OW80554   3.575   9.429   3.092
92886SOL    HW180555   3.523   9.354   3.121
92886SOL    HW280556   3.574   9.423   2.997
92887SOL     OW80557   4.044  13.678  11.041
92887SOL    HW180558   4.105  13.666  11.113
92887SOL    HW280559   4.099  13.695  10.965
92888SOL     OW80560  11.567   8.215   5.739
92888SOL    HW180561  11.541   8.285   5.679
92888SOL    HW280562  11.501   8.217   5.808
92889SOL     OW80563  10.767   0.022  14.682
92889SOL    HW180564  10.722  14.838  14.734
92889SOL    HW280565  10.794  14.859  14.602
92890SOL     OW80566   2.937   9.738   0.479
92890SOL    HW180567   2.976   9.706   0.398
92890SOL    HW280568   2.865   9.794   0.452
92891SOL     OW80569   5.031   5.313  11.988
92891SOL    HW180570   4.959   5.377  11.988
92891SOL    HW280571   5.013   5.257  11.913
92892SOL     OW80572   7.078   2.055   5.318
92892SOL    HW180573   7.092   2.092   5.231
92892SOL    HW280574   7.066   1.962   5.303
92893SOL     OW80575   1.410   2.174  11.923
92893SOL    HW180576   1.349   2.112  11.962
92893SOL    HW280577   1.495   2.148  11.957
92894SOL     OW80578   3.753  11.658   0.304
92894SOL    HW180579   3.765  11.588   0.368
92894SOL    HW280580   3.768  11.739   0.354
92895SOL     OW80581   6.933  11.018  12.549
92895SOL    HW180582   7.028  11.010  12.539
92895SOL    HW280583   6.898  10.993  12.464
92896SOL     OW80584   5.036   2.982   1.193
92896SOL    HW180585   5.046   3.073   1.223
92896SOL    HW280586   5.117   2.939   1.220
92897SOL     OW80587   6.198  11.041   2.944
92897SOL    HW180588   6.224  11.133   2.950
92897SOL    HW280589   6.186  11.013   3.035
92898SOL     OW80590   8.036   8.252   5.674
92898SOL    HW180591   7.965   8.189   5.687
92898SOL    HW280592   8.012   8.301   5.596
92899SOL     OW80593   5.890   0.276  11.439
92899SOL    HW180594   5.853   0.346  11.386
92899SOL    HW280595   5.860   0.195  11.397
92900SOL     OW80596  11.945   7.775   5.051
92900SOL    HW180597  11.902   7.856   5.080
92900SOL    HW280598  11.875   7.710   5.048
92901SOL     OW80599  10.513  11.278   5.979
92901SOL    HW180600  10.453  11.347   6.007
92901SOL    HW280601  10.580  11.275   6.047
92902SOL     OW80602  14.566  13.209   8.353
92902SOL    HW180603  14.477  13.244   8.357
92902SOL    HW280604  14.574  13.155   8.432
92903SOL     OW80605  12.257   3.852   2.363
92903SOL    HW180606  12.196   3.925   2.357
92903SOL    HW280607  12.261   3.816   2.275
92904SOL     OW80608   1.247   4.529   8.959
92904SOL    HW180609   1.272   4.445   8.997
92904SOL    HW280610   1.171   4.557   9.009
92905SOL     OW80611  13.657   1.818   9.826
92905SOL    HW180612  13.699   1.885   9.880
92905SOL    HW280613  13.698   1.829   9.739
92906SOL     OW80614  10.726   6.888   5.609
92906SOL    HW180615  10.792   6.887   5.540
92906SOL    HW280616  10.671   6.811   5.591
92907SOL     OW80617   7.439   4.229  14.047
92907SOL    HW180618   7.405   4.300  13.992
92907SOL    HW280619   7.394   4.239  14.131
92908SOL     OW80620   7.945   8.956   8.133
92908SOL    HW180621   8.005   8.945   8.207
92908SOL    HW280622   8.002   8.957   8.056
92909SOL     OW80623   7.550   7.175   3.912
92909SOL    HW180624   7.467   7.138   3.881
92909SOL    HW280625   7.539   7.270   3.902
92910SOL     OW80626  13.476   9.820   2.155
92910SOL    HW180627  13.538   9.847   2.223
92910SOL    HW280628  13.499   9.874   2.079
92911SOL     OW80629   5.993   0.652   0.984
92911SOL    HW180630   6.061   0.681   0.922
92911SOL    HW280631   6.007   0.705   1.062
92912SOL     OW80632   2.967  14.389  10.298
92912SOL    HW180633   2.936  14.390  10.389
92912SOL    HW280634   2.888  14.376  10.246
92913SOL     OW80635   4.809   1.210  10.589
92913SOL    HW180636   4.823   1.126  10.546
92913SOL    HW280637   4.715   1.211  10.609
92914SOL     OW80638  14.823   8.099  10.711
92914SOL    HW180639   0.028   8.084  10.675
92914SOL    HW280640  14.834   8.090  10.805
92915SOL     OW80641   9.569  14.087  10.662
92915SOL    HW180642   9.633  14.035  10.711
92915SOL    HW280643   9.498  14.102  10.725
92916SOL     OW80644  10.542   7.600   2.895
92916SOL    HW180645  10.524   7.561   2.980
92916SOL    HW280646  10.469   7.572   2.840
92917SOL     OW80647   5.699   0.408  10.443
92917SOL    HW180648   5.661   0.462  10.374
92917SOL    HW280649   5.790   0.394  10.416
92918SOL     OW80650   6.332   0.882   7.906
92918SOL    HW180651   6.260   0.853   7.850
92918SOL    HW280652   6.370   0.956   7.859
92919SOL     OW80653   5.943   9.757  10.427
92919SOL    HW180654   6.007   9.692  10.457
92919SOL    HW280655   5.940   9.822  10.498
92920SOL     OW80656  13.466   1.099   8.435
92920SOL    HW180657  13.441   1.185   8.466
92920SOL    HW280658  13.553   1.084   8.474
92921SOL     OW80659  10.224   3.454  11.510
92921SOL    HW180660  10.315   3.466  11.537
92921SOL    HW280661  10.225   3.469  11.415
92922SOL     OW80662  10.940  10.474   1.632
92922SOL    HW180663  10.844  10.480   1.638
92922SOL    HW280664  10.971  10.558   1.667
92923SOL     OW80665  13.095   5.060   0.661
92923SOL    HW180666  13.031   5.039   0.729
92923SOL    HW280667  13.146   5.132   0.697
92924SOL     OW80668  12.651  12.547   8.879
92924SOL    HW180669  12.700  12.466   8.889
92924SOL    HW280670  12.677  12.580   8.793
92925SOL     OW80671  12.823   1.333   8.364
92925SOL    HW180672  12.862   1.252   8.397
92925SOL    HW280673  12.831   1.327   8.269
92926SOL     OW80674   0.172  10.892   0.200
92926SOL    HW180675   0.115  10.969   0.201
92926SOL    HW280676   0.238  10.911   0.133
92927SOL     OW80677   8.462  10.199  13.434
92927SOL    HW180678   8.411  10.251  13.372
92927SOL    HW280679   8.401  10.131  13.464
92928SOL     OW80680   5.645  12.100  10.665
92928SOL    HW180681   5.570  12.156  10.683
92928SOL    HW280682   5.645  12.036  10.736
92929SOL     OW80683   4.321   2.345  11.079
92929SOL    HW180684   4.357   2.310  11.161
92929SOL    HW280685   4.289   2.268  11.032
92930SOL     OW80686   4.557   3.788   2.079
92930SOL    HW180687   4.563   3.834   1.995
92930SOL    HW280688   4.637   3.735   2.082
92931SOL     OW80689   9.775   3.801   1.916
92931SOL    HW180690   9.866   3.828   1.916
92931SOL    HW280691   9.746   3.812   2.006
92932SOL     OW80692   6.825   6.614  12.583
92932SOL    HW180693   6.912   6.609  12.623
92932SOL    HW280694   6.801   6.706  12.590
92933SOL     OW80695   9.950   6.069   1.274
92933SOL    HW180696   9.863   6.087   1.240
92933SOL    HW280697   9.954   6.118   1.356
92934SOL     OW80698   0.232  12.467  10.607
92934SOL    HW180699   0.191  12.443  10.524
92934SOL    HW280700   0.319  12.500  10.582
92935SOL     OW80701  14.357   8.506   1.204
92935SOL    HW180702  14.413   8.437   1.167
92935SOL    HW280703  14.352   8.572   1.136
92936SOL     OW80704  10.662   9.813  14.570
92936SOL    HW180705  10.634   9.724  14.548
92936SOL    HW280706  10.700   9.847  14.489
92937SOL     OW80707   0.319  11.103   3.380
92937SOL    HW180708   0.298  11.063   3.465
92937SOL    HW280709   0.271  11.187   3.381
92938SOL     OW80710   8.822   5.270   7.800
92938SOL    HW180711   8.830   5.279   7.705
92938SOL    HW280712   8.895   5.321   7.835
92939SOL     OW80713   1.728  14.502   8.404
92939SOL    HW180714   1.795  14.455   8.355
92939SOL    HW280715   1.775  14.544   8.476
92940SOL     OW80716  11.813   5.053   6.627
92940SOL    HW180717  11.812   5.147   6.608
92940SOL    HW280718  11.902   5.037   6.659
92941SOL     OW80719   2.344   0.269   0.381
92941SOL    HW180720   2.347   0.174   0.373
92941SOL    HW280721   2.435   0.297   0.381
92942SOL     OW80722   8.227   5.991   8.975
92942SOL    HW180723   8.178   5.913   8.950
92942SOL    HW280724   8.169   6.037   9.035
92943SOL     OW80725   7.334  13.322   3.323
92943SOL    HW180726   7.295  13.331   3.409
92943SOL    HW280727   7.427  13.308   3.340
92944SOL     OW80728   4.814   4.821   0.235
92944SOL    HW180729   4.883   4.775   0.283
92944SOL    HW280730   4.858   4.894   0.192
92945SOL     OW80731  11.541   5.736   1.864
92945SOL    HW180732  11.452   5.731   1.901
92945SOL    HW280733  11.537   5.685   1.783
92946SOL     OW80734   8.300   3.361   0.423
92946SOL    HW180735   8.318   3.287   0.480
92946SOL    HW280736   8.384   3.382   0.382
92947SOL     OW80737   5.347   8.281   4.299
92947SOL    HW180738   5.300   8.347   4.247
92947SOL    HW280739   5.407   8.332   4.353
92948SOL     OW80740  13.029   1.033   2.445
92948SOL    HW180741  13.058   1.085   2.371
92948SOL    HW280742  13.036   1.092   2.520
92949SOL     OW80743   1.083  14.190   6.452
92949SOL    HW180744   1.081  14.129   6.378
92949SOL    HW280745   1.036  14.145   6.521
92950SOL     OW80746   9.129   0.035   7.787
92950SOL    HW180747   9.188   0.091   7.838
92950SOL    HW280748   9.167   0.034   7.699
92951SOL     OW80749   2.689  13.842  13.955
92951SOL    HW180750   2.680  13.756  13.913
92951SOL    HW280751   2.625  13.897  13.910
92952SOL     OW80752   9.119   5.639   2.231
92952SOL    HW180753   9.167   5.722   2.235
92952SOL    HW280754   9.072   5.634   2.314
92953SOL     OW80755   2.639  12.702  11.048
92953SOL    HW180756   2.625  12.684  10.955
92953SOL    HW280757   2.575  12.770  11.069
92954SOL     OW80758  10.854   8.521  11.290
92954SOL    HW180759  10.925   8.563  11.240
92954SOL    HW280760  10.900   8.465  11.353
92955SOL     OW80761   6.786   7.831  14.256
92955SOL    HW180762   6.730   7.881  14.196
92955SOL    HW280763   6.763   7.740  14.240
92956SOL     OW80764   3.886  11.059  13.639
92956SOL    HW180765   3.882  10.992  13.571
92956SOL    HW280766   3.854  11.016  13.718
92957SOL     OW80767   8.151   7.896   7.132
92957SOL    HW180768   8.099   7.889   7.212
92957SOL    HW280769   8.163   7.990   7.118
92958SOL     OW80770   6.770  13.480   0.596
92958SOL    HW180771   6.798  13.393   0.625
92958SOL    HW280772   6.845  13.514   0.546
92959SOL     OW80773   9.512   1.695  12.307
92959SOL    HW180774   9.438   1.679  12.248
92959SOL    HW280775   9.560   1.612  12.309
92960SOL     OW80776   1.784  12.666   4.775
92960SOL    HW180777   1.830  12.583   4.788
92960SOL    HW280778   1.734  12.678   4.856
92961SOL     OW80779   0.319   9.325   6.564
92961SOL    HW180780   0.366   9.286   6.639
92961SOL    HW280781   0.307   9.416   6.589
92962SOL     OW80782   8.580  14.475   5.412
92962SOL    HW180783   8.497  14.489   5.366
92962SOL    HW280784   8.559  14.411   5.479
92963SOL     OW80785  11.319   9.431   4.912
92963SOL    HW180786  11.322   9.499   4.979
92963SOL    HW280787  11.276   9.357   4.955
92964SOL     OW80788   3.447  10.356   7.878
92964SOL    HW180789   3.377  10.295   7.902
92964SOL    HW280790   3.458  10.412   7.955
92965SOL     OW80791   9.353   7.457   0.476
92965SOL    HW180792   9.421   7.442   0.542
92965SOL    HW280793   9.401   7.476   0.396
92966SOL     OW80794   0.541   4.630  10.402
92966SOL    HW180795   0.584   4.598  10.323
92966SOL    HW280796   0.586   4.587  10.474
92967SOL     OW80797   3.456  12.103   7.761
92967SOL    HW180798   3.550  12.111   7.778
92967SOL    HW280799   3.420  12.188   7.787
92968SOL     OW80800  13.026   0.763   9.711
92968SOL    HW180801  12.995   0.800   9.794
92968SOL    HW280802  12.954   0.708   9.681
92969SOL     OW80803   6.709   7.170   6.780
92969SOL    HW180804   6.669   7.112   6.716
92969SOL    HW280805   6.801   7.144   6.783
92970SOL     OW80806   3.699  14.628   3.051
92970SOL    HW180807   3.786  14.621   3.011
92970SOL    HW280808   3.713  14.606   3.143
92971SOL     OW80809   9.276   5.702  13.236
92971SOL    HW180810   9.353   5.690  13.293
92971SOL    HW280811   9.202   5.704  13.297
92972SOL     OW80812   1.793   8.298   8.299
92972SOL    HW180813   1.798   8.358   8.373
92972SOL    HW280814   1.722   8.332   8.245
92973SOL     OW80815   3.494  11.442  13.469
92973SOL    HW180816   3.584  11.415  13.453
92973SOL    HW280817   3.493  11.470  13.561
92974SOL     OW80818   0.835   9.957   2.703
92974SOL    HW180819   0.903   9.893   2.722
92974SOL    HW280820   0.800   9.930   2.618
92975SOL     OW80821  14.841   9.063   5.876
92975SOL    HW180822  14.841   8.990   5.938
92975SOL    HW280823  14.853   9.022   5.791
92976SOL     OW80824   1.087  13.408   7.266
92976SOL    HW180825   1.158  13.354   7.300
92976SOL    HW280826   1.060  13.463   7.341
92977SOL     OW80827   5.967   5.907   9.096
92977SOL    HW180828   5.979   5.820   9.059
92977SOL    HW280829   5.872   5.918   9.100
92978SOL     OW80830  11.736   5.192   8.886
92978SOL    HW180831  11.764   5.283   8.889
92978SOL    HW280832  11.711   5.177   8.795
92979SOL     OW80833  10.501   2.142  12.684
92979SOL    HW180834  10.495   2.174  12.593
92979SOL    HW280835  10.416   2.102  12.701
92980SOL     OW80836  13.378  10.547   8.818
92980SOL    HW180837  13.386  10.474   8.756
92980SOL    HW280838  13.463  10.550   8.862
92981SOL     OW80839   5.899   1.212  14.443
92981SOL    HW180840   5.848   1.133  14.428
92981SOL    HW280841   5.990   1.184  14.436
92982SOL     OW80842   2.592   2.870   4.528
92982SOL    HW180843   2.569   2.809   4.599
92982SOL    HW280844   2.683   2.893   4.545
92983SOL     OW80845   8.598  13.248   9.415
92983SOL    HW180846   8.608  13.168   9.363
92983SOL    HW280847   8.668  13.244   9.480
92984SOL     OW80848   6.183   5.581   2.237
92984SOL    HW180849   6.239   5.616   2.307
92984SOL    HW280850   6.170   5.654   2.177
92985SOL     OW80851   3.969  10.599   9.882
92985SOL    HW180852   3.917  10.675   9.854
92985SOL    HW280853   3.904  10.535   9.912
92986SOL     OW80854   6.165   9.581   8.589
92986SOL    HW180855   6.103   9.552   8.522
92986SOL    HW280856   6.117   9.574   8.671
92987SOL     OW80857   9.775  13.398  13.632
92987SOL    HW180858   9.691  13.433  13.602
92987SOL    HW280859   9.762  13.303  13.635
92988SOL     OW80860   8.635  11.393   1.950
92988SOL    HW180861   8.620  11.301   1.929
92988SOL    HW280862   8.730  11.401   1.955
92989SOL     OW80863   8.225   6.161   4.972
92989SOL    HW180864   8.299   6.189   5.027
92989SOL    HW280865   8.174   6.240   4.958
92990SOL     OW80866  14.003   6.318   0.498
92990SOL    HW180867  14.027   6.411   0.498
92990SOL    HW280868  14.074   6.275   0.546
92991SOL     OW80869   3.454   4.821  11.566
92991SOL    HW180870   3.471   4.915  11.554
92991SOL    HW280871   3.510   4.796  11.640
92992SOL     OW80872   7.070   4.657   5.295
92992SOL    HW180873   7.127   4.648   5.372
92992SOL    HW280874   7.079   4.573   5.249
92993SOL     OW80875   5.403  13.247   3.353
92993SOL    HW180876   5.416  13.284   3.266
92993SOL    HW280877   5.330  13.187   3.343
92994SOL     OW80878   5.698   8.897  11.728
92994SOL    HW180879   5.748   8.976  11.750
92994SOL    HW280880   5.615   8.930  11.694
92995SOL     OW80881  12.336   5.075   6.704
92995SOL    HW180882  12.423   5.100   6.735
92995SOL    HW280883  12.278   5.144   6.737
92996SOL     OW80884   1.302  11.780  10.715
92996SOL    HW180885   1.275  11.779  10.623
92996SOL    HW280886   1.366  11.709  10.721
92997SOL     OW80887   1.179   6.489   4.312
92997SOL    HW180888   1.110   6.556   4.316
92997SOL    HW280889   1.142   6.419   4.259
92998SOL     OW80890   7.173  14.450  12.625
92998SOL    HW180891   7.227  14.424  12.550
92998SOL    HW280892   7.160  14.369  12.675
92999SOL     OW80893   2.517   8.632  14.817
92999SOL    HW180894   2.597   8.596  14.779
92999SOL    HW280895   2.536   8.639   0.029
93000SOL     OW80896   4.498  10.231  13.683
93000SOL    HW180897   4.563  10.295  13.713
93000SOL    HW280898   4.528  10.206  13.596
93001SOL     OW80899   4.053  12.765  13.723
93001SOL    HW180900   4.130  12.802  13.765
93001SOL    HW280901   4.009  12.715  13.792
93002SOL     OW80902   3.730   4.276   2.793
93002SOL    HW180903   3.636   4.268   2.776
93002SOL    HW280904   3.771   4.259   2.708
93003SOL     OW80905   9.288  11.793   5.352
93003SOL    HW180906   9.233  11.809   5.276
93003SOL    HW280907   9.241  11.831   5.426
93004SOL     OW80908  11.350  11.167   0.007
93004SOL    HW180909  11.275  11.225   0.018
93004SOL    HW280910  11.387  11.192  14.804
93005SOL     OW80911   2.616   4.309   5.382
93005SOL    HW180912   2.678   4.378   5.406
93005SOL    HW280913   2.636   4.288   5.291
93006SOL     OW80914   1.874   1.807   2.970
93006SOL    HW180915   1.969   1.817   2.978
93006SOL    HW280916   1.856   1.827   2.878
93007SOL     OW80917  10.449  14.432   8.841
93007SOL    HW180918  10.420  14.381   8.917
93007SOL    HW280919  10.399  14.513   8.847
93008SOL     OW80920  12.712  11.128   6.556
93008SOL    HW180921  12.751  11.163   6.476
93008SOL    HW280922  12.785  11.086   6.602
93009SOL     OW80923   0.620   6.501  13.282
93009SOL    HW180924   0.652   6.544  13.362
93009SOL    HW280925   0.640   6.563  13.213
93010SOL     OW80926   2.084   6.468   5.386
93010SOL    HW180927   2.045   6.380   5.377
93010SOL    HW280928   2.047   6.503   5.467
93011SOL     OW80929   2.828   3.982   0.524
93011SOL    HW180930   2.849   4.023   0.440
93011SOL    HW280931   2.866   3.895   0.519
93012SOL     OW80932   5.907   9.964  14.403
93012SOL    HW180933   5.870  10.005  14.482
93012SOL    HW280934   5.975  10.026  14.375
93013SOL     OW80935   5.179   8.413   2.235
93013SOL    HW180936   5.123   8.380   2.165
93013SOL    HW280937   5.166   8.352   2.307
93014SOL     OW80938  13.884   6.210   2.781
93014SOL    HW180939  13.860   6.133   2.730
93014SOL    HW280940  13.800   6.252   2.801
93015SOL     OW80941   5.110  10.204   8.559
93015SOL    HW180942   5.172  10.134   8.541
93015SOL    HW280943   5.062  10.214   8.476
93016SOL     OW80944   6.134   2.768   7.613
93016SOL    HW180945   6.097   2.857   7.616
93016SOL    HW280946   6.083   2.724   7.545
93017SOL     OW80947  13.944   0.756   9.238
93017SOL    HW180948  13.878   0.720   9.178
93017SOL    HW280949  13.894   0.811   9.298
93018SOL     OW80950   1.999  14.682  11.719
93018SOL    HW180951   2.050  14.730  11.784
93018SOL    HW280952   2.042  14.701  11.636
93019SOL     OW80953   8.660  12.346   2.553
93019SOL    HW180954   8.633  12.406   2.484
93019SOL    HW280955   8.582  12.334   2.606
93020SOL     OW80956   4.192  11.367  11.794
93020SOL    HW180957   4.111  11.320  11.775
93020SOL    HW280958   4.259  11.299  11.799
93021SOL     OW80959   3.911   5.068  12.350
93021SOL    HW180960   3.915   5.163  12.358
93021SOL    HW280961   3.817   5.047  12.351
93022SOL     OW80962  13.012   0.655  12.270
93022SOL    HW180963  12.933   0.676  12.221
93022SOL    HW280964  12.982   0.605  12.346
93023SOL     OW80965   4.125   5.059   7.408
93023SOL    HW180966   4.070   4.991   7.369
93023SOL    HW280967   4.211   5.046   7.368
93024SOL     OW80968   0.608  13.884   2.491
93024SOL    HW180969   0.672  13.944   2.452
93024SOL    HW280970   0.597  13.815   2.426
93025SOL     OW80971  11.953   7.102  10.401
93025SOL    HW180972  11.887   7.155  10.357
93025SOL    HW280973  11.903   7.032  10.442
93026SOL     OW80974   2.338   5.800   4.247
93026SOL    HW180975   2.260   5.835   4.291
93026SOL    HW280976   2.342   5.847   4.164
93027SOL     OW80977  13.060   1.427  14.400
93027SOL    HW180978  13.122   1.358  14.425
93027SOL    HW280979  13.112   1.491  14.353
93028SOL     OW80980  14.500   1.227   5.850
93028SOL    HW180981  14.497   1.223   5.946
93028SOL    HW280982  14.422   1.179   5.822
93029SOL     OW80983   9.919  14.669   3.439
93029SOL    HW180984  10.007  14.672   3.475
93029SOL    HW280985   9.929  14.624   3.355
93030SOL     OW80986   0.981  13.258   4.694
93030SOL    HW180987   0.958  13.227   4.781
93030SOL    HW280988   1.065  13.216   4.674
93031SOL     OW80989  12.188   1.005   0.370
93031SOL    HW180990  12.208   0.912   0.378
93031SOL    HW280991  12.271   1.049   0.390
93032SOL     OW80992   3.677   1.409  11.502
93032SOL    HW180993   3.681   1.434  11.594
93032SOL    HW280994   3.706   1.318  11.500
93033SOL     OW80995   3.875   7.609   1.476
93033SOL    HW180996   3.912   7.566   1.399
93033SOL    HW280997   3.795   7.651   1.444
93034SOL     OW80998   6.632  10.867   4.909
93034SOL    HW180999   6.630  10.798   4.975
93034SOL    HW281000   6.659  10.822   4.828
93035SOL     OW81001   1.153   1.847   3.267
93035SOL    HW181002   1.104   1.786   3.322
93035SOL    HW281003   1.152   1.807   3.180
93036SOL     OW81004   2.328   1.300  11.043
93036SOL    HW181005   2.398   1.247  11.005
93036SOL    HW281006   2.341   1.292  11.138
93037SOL     OW81007   4.572  10.573  11.510
93037SOL    HW181008   4.544  10.644  11.452
93037SOL    HW281009   4.546  10.494  11.465
93038SOL     OW81010   1.840  10.110   5.796
93038SOL    HW181011   1.775  10.040   5.790
93038SOL    HW281012   1.824  10.164   5.720
93039SOL     OW81013   2.056   0.467  12.521
93039SOL    HW181014   1.998   0.439  12.591
93039SOL    HW281015   2.127   0.513  12.566
93040SOL     OW81016   7.202  13.615   4.472
93040SOL    HW181017   7.225  13.612   4.565
93040SOL    HW281018   7.170  13.705   4.458
93041SOL     OW81019   3.132   1.884   7.879
93041SOL    HW181020   3.074   1.960   7.885
93041SOL    HW281021   3.080   1.818   7.832
93042SOL     OW81022   2.555   3.420  12.715
93042SOL    HW181023   2.557   3.492  12.778
93042SOL    HW281024   2.585   3.344  12.765
93043SOL     OW81025   0.921   6.742   0.492
93043SOL    HW181026   0.976   6.818   0.512
93043SOL    HW281027   0.982   6.668   0.487
93044SOL     OW81028   1.902  13.555  13.252
93044SOL    HW181029   1.990  13.543  13.217
93044SOL    HW281030   1.891  13.650  13.257
93045SOL     OW81031  11.037  14.382   8.608
93045SOL    HW181032  11.126  14.369   8.640
93045SOL    HW281033  10.995  14.296   8.618
93046SOL     OW81034   3.630   7.107  13.372
93046SOL    HW181035   3.595   7.031  13.418
93046SOL    HW281036   3.587   7.182  13.413
93047SOL     OW81037   6.178   0.636   9.166
93047SOL    HW181038   6.228   0.700   9.115
93047SOL    HW281039   6.122   0.690   9.222
93048SOL     OW81040   3.876  10.580   1.383
93048SOL    HW181041   3.808  10.600   1.319
93048SOL    HW281042   3.952  10.554   1.330
93049SOL     OW81043   2.296  14.324   3.050
93049SOL    HW181044   2.225  14.272   3.012
93049SOL    HW281045   2.374  14.294   3.004
93050SOL     OW81046   0.187   8.787  12.615
93050SOL    HW181047   0.105   8.738  12.619
93050SOL    HW281048   0.233   8.749  12.539
93051SOL     OW81049   4.873  13.915   2.179
93051SOL    HW181050   4.895  13.922   2.272
93051SOL    HW281051   4.808  13.984   2.165
93052SOL     OW81052   9.241   7.875   1.955
93052SOL    HW181053   9.281   7.952   1.996
93052SOL    HW281054   9.155   7.867   1.997
93053SOL     OW81055   3.553   8.414   0.481
93053SOL    HW181056   3.560   8.353   0.554
93053SOL    HW281057   3.639   8.414   0.440
93054SOL     OW81058   1.259  13.103   6.242
93054SOL    HW181059   1.329  13.091   6.178
93054SOL    HW281060   1.266  13.027   6.300
93055SOL     OW81061   6.576   3.287   2.875
93055SOL    HW181062   6.493   3.240   2.871
93055SOL    HW281063   6.635   3.238   2.817
93056SOL     OW81064  14.757   3.898  10.163
93056SOL    HW181065  14.768   3.807  10.190
93056SOL    HW281066  14.765   3.896  10.067
93057SOL     OW81067   2.232  11.909   4.160
93057SOL    HW181068   2.254  11.852   4.234
93057SOL    HW281069   2.141  11.934   4.175
93058SOL     OW81070   1.656   9.440   7.879
93058SOL    HW181071   1.662   9.414   7.971
93058SOL    HW281072   1.622   9.362   7.835
93059SOL     OW81073  14.033   8.110   3.238
93059SOL    HW181074  13.954   8.057   3.229
93059SOL    HW281075  14.054   8.104   3.331
93060SOL     OW81076   4.849  10.594   9.476
93060SOL    HW181077   4.859  10.597   9.381
93060SOL    HW281078   4.917  10.533   9.505
93061SOL     OW81079   8.714   8.167   0.219
93061SOL    HW181080   8.738   8.257   0.243
93061SOL    HW281081   8.708   8.121   0.303
93062SOL     OW81082   3.583   4.813   6.745
93062SOL    HW181083   3.539   4.862   6.676
93062SOL    HW281084   3.667   4.788   6.708
93063SOL     OW81085  14.871   6.085   4.039
93063SOL    HW181086  14.786   6.074   4.081
93063SOL    HW281087  14.869   6.174   4.002
93064SOL     OW81088  12.821   9.677  12.838
93064SOL    HW181089  12.763   9.655  12.765
93064SOL    HW281090  12.905   9.638  12.815
93065SOL     OW81091   1.250   0.467   2.684
93065SOL    HW181092   1.254   0.385   2.635
93065SOL    HW281093   1.253   0.535   2.616
93066SOL     OW81094  13.298   6.581  10.311
93066SOL    HW181095  13.355   6.605  10.238
93066SOL    HW281096  13.343   6.509  10.354
93067SOL     OW81097   2.043  10.790   0.967
93067SOL    HW181098   2.056  10.884   0.977
93067SOL    HW281099   2.043  10.756   1.056
93068SOL     OW81100   3.781   6.212   2.313
93068SOL    HW181101   3.747   6.212   2.403
93068SOL    HW281102   3.832   6.132   2.307
93069SOL     OW81103  14.661  10.796   2.592
93069SOL    HW181104  14.640  10.726   2.531
93069SOL    HW281105  14.750  10.822   2.570
93070SOL     OW81106   5.098  12.986   3.665
93070SOL    HW181107   5.163  12.956   3.601
93070SOL    HW281108   5.103  13.081   3.661
93071SOL     OW81109   1.300   2.233   7.263
93071SOL    HW181110   1.304   2.250   7.169
93071SOL    HW281111   1.387   2.257   7.296
93072SOL     OW81112   1.434   1.614   3.918
93072SOL    HW181113   1.483   1.690   3.949
93072SOL    HW281114   1.342   1.640   3.921
93073SOL     OW81115  11.532  13.451   6.340
93073SOL    HW181116  11.460  13.416   6.287
93073SOL    HW281117  11.539  13.543   6.312
93074SOL     OW81118   4.031   9.456   9.497
93074SOL    HW181119   3.936   9.466   9.501
93074SOL    HW281120   4.065   9.528   9.550
93075SOL     OW81121   7.648   5.101   4.073
93075SOL    HW181122   7.631   5.192   4.095
93075SOL    HW281123   7.715   5.104   4.005
93076SOL     OW81124  11.892  11.204   7.680
93076SOL    HW181125  11.937  11.252   7.610
93076SOL    HW281126  11.809  11.178   7.641
93077SOL     OW81127  10.263   6.075   7.453
93077SOL    HW181128  10.300   6.163   7.447
93077SOL    HW281129  10.274   6.050   7.545
93078SOL     OW81130   4.737   4.095   6.041
93078SOL    HW181131   4.762   4.187   6.043
93078SOL    HW281132   4.790   4.054   6.109
93079SOL     OW81133  11.959   1.029  10.390
93079SOL    HW181134  11.967   0.996  10.479
93079SOL    HW281135  11.878   0.989  10.357
93080SOL     OW81136   4.080  12.265  12.179
93080SOL    HW181137   4.045  12.176  12.172
93080SOL    HW281138   4.102  12.289  12.089
93081SOL     OW81139  10.183  11.631   2.462
93081SOL    HW181140  10.241  11.646   2.537
93081SOL    HW281141  10.184  11.714   2.414
93082SOL     OW81142  14.647   3.582  11.548
93082SOL    HW181143  14.594   3.520  11.599
93082SOL    HW281144  14.729   3.589  11.597
93083SOL     OW81145  10.603  13.773   7.502
93083SOL    HW181146  10.654  13.707   7.548
93083SOL    HW281147  10.518  13.773   7.547
93084SOL     OW81148   9.600   4.898   2.945
93084SOL    HW181149   9.683   4.935   2.974
93084SOL    HW281150   9.625   4.819   2.897
93085SOL     OW81151  12.031  12.934   4.245
93085SOL    HW181152  12.056  12.844   4.225
93085SOL    HW281153  11.936  12.935   4.238
93086SOL     OW81154   5.025   8.727  13.012
93086SOL    HW181155   5.106   8.762  13.049
93086SOL    HW281156   5.052   8.649  12.963
93087SOL     OW81157   4.934   9.557   9.395
93087SOL    HW181158   5.019   9.600   9.396
93087SOL    HW281159   4.891   9.587   9.475
93088SOL     OW81160   1.836  10.564   4.245
93088SOL    HW181161   1.787  10.537   4.322
93088SOL    HW281162   1.819  10.657   4.237
93089SOL     OW81163   2.683  10.352   5.976
93089SOL    HW181164   2.734  10.429   6.001
93089SOL    HW281165   2.624  10.384   5.907
93090SOL     OW81166  10.603  10.674   4.819
93090SOL    HW181167  10.602  10.599   4.877
93090SOL    HW281168  10.588  10.749   4.877
93091SOL     OW81169   9.248  12.141  13.311
93091SOL    HW181170   9.293  12.220  13.340
93091SOL    HW281171   9.159  12.171  13.292
93092SOL     OW81172   4.744   6.272  10.471
93092SOL    HW181173   4.747   6.185  10.511
93092SOL    HW281174   4.657   6.277  10.432
93093SOL     OW81175   6.212  11.826  12.373
93093SOL    HW181176   6.280  11.852  12.310
93093SOL    HW281177   6.227  11.733  12.388
93094SOL     OW81178   2.656   6.486  13.660
93094SOL    HW181179   2.560   6.485  13.658
93094SOL    HW281180   2.681   6.396  13.638
93095SOL     OW81181   0.458  11.749   9.499
93095SOL    HW181182   0.441  11.668   9.547
93095SOL    HW281183   0.479  11.813   9.566
93096SOL     OW81184   7.207  12.338   6.629
93096SOL    HW181185   7.235  12.418   6.673
93096SOL    HW281186   7.285  12.308   6.582
93097SOL     OW81187   4.321   6.759   5.643
93097SOL    HW181188   4.314   6.843   5.597
93097SOL    HW281189   4.231   6.731   5.656
93098SOL     OW81190  13.123   8.632   4.118
93098SOL    HW181191  13.119   8.708   4.060
93098SOL    HW281192  13.080   8.661   4.199
93099SOL     OW81193   0.767  11.618  13.928
93099SOL    HW181194   0.833  11.638  13.862
93099SOL    HW281195   0.764  11.522  13.932
93100SOL     OW81196   0.314  11.881   8.796
93100SOL    HW181197   0.253  11.941   8.753
93100SOL    HW281198   0.311  11.906   8.888
93101SOL     OW81199   7.916  14.341   4.790
93101SOL    HW181200   7.895  14.433   4.808
93101SOL    HW281201   7.963  14.343   4.707
93102SOL     OW81202   0.084   4.750   8.122
93102SOL    HW181203   0.166   4.791   8.093
93102SOL    HW281204   0.034   4.738   8.041
93103SOL     OW81205  11.489   4.654   4.285
93103SOL    HW181206  11.453   4.598   4.215
93103SOL    HW281207  11.447   4.622   4.365
93104SOL     OW81208  12.287   8.866   6.457
93104SOL    HW181209  12.300   8.951   6.498
93104SOL    HW281210  12.253   8.810   6.527
93105SOL     OW81211  11.071   6.455  14.780
93105SOL    HW181212  11.128   6.435  14.705
93105SOL    HW281213  11.039   6.370  14.809
93106SOL     OW81214  10.660   7.955   6.023
93106SOL    HW181215  10.644   7.948   5.929
93106SOL    HW281216  10.640   7.868   6.057
93107SOL     OW81217   2.192   9.993   0.233
93107SOL    HW181218   2.111  10.045   0.234
93107SOL    HW281219   2.174   9.922   0.171
93108SOL     OW81220   5.598   9.440   2.746
93108SOL    HW181221   5.661   9.481   2.804
93108SOL    HW281222   5.556   9.514   2.701
93109SOL     OW81223  10.425   2.619   1.754
93109SOL    HW181224  10.463   2.546   1.705
93109SOL    HW281225  10.417   2.587   1.843
93110SOL     OW81226   6.711  11.621   4.463
93110SOL    HW181227   6.641  11.571   4.422
93110SOL    HW281228   6.716  11.702   4.413
93111SOL     OW81229  10.370   2.183   6.173
93111SOL    HW181230  10.432   2.255   6.160
93111SOL    HW281231  10.320   2.208   6.250
93112SOL     OW81232   7.363   7.895   0.188
93112SOL    HW181233   7.400   7.847   0.114
93112SOL    HW281234   7.280   7.850   0.206
93113SOL     OW81235   6.198   4.182   5.291
93113SOL    HW181236   6.269   4.219   5.344
93113SOL    HW281237   6.210   4.222   5.205
93114SOL     OW81238   2.614   9.176   5.152
93114SOL    HW181239   2.635   9.267   5.129
93114SOL    HW281240   2.681   9.125   5.106
93115SOL     OW81241   7.878  11.920  12.189
93115SOL    HW181242   7.945  11.851  12.197
93115SOL    HW281243   7.860  11.925  12.096
93116SOL     OW81244   8.860   4.972   2.823
93116SOL    HW181245   8.877   4.916   2.899
93116SOL    HW281246   8.872   4.914   2.747
93117SOL     OW81247   9.475   3.461   5.049
93117SOL    HW181248   9.525   3.380   5.041
93117SOL    HW281249   9.464   3.473   5.143
93118SOL     OW81250   0.754   8.670   4.779
93118SOL    HW181251   0.820   8.717   4.829
93118SOL    HW281252   0.693   8.737   4.748
93119SOL     OW81253   7.570  11.121  13.267
93119SOL    HW181254   7.585  11.055  13.199
93119SOL    HW281255   7.590  11.076  13.349
93120SOL     OW81256   1.348   9.109   9.841
93120SOL    HW181257   1.292   9.063   9.903
93120SOL    HW281258   1.298   9.186   9.815
93121SOL     OW81259   6.057  12.300   4.742
93121SOL    HW181260   6.022  12.316   4.654
93121SOL    HW281261   6.134  12.245   4.727
93122SOL     OW81262   9.332   2.695  14.763
93122SOL    HW181263   9.262   2.669  14.824
93122SOL    HW281264   9.357   2.614  14.720
93123SOL     OW81265   6.255   1.753   9.153
93123SOL    HW181266   6.320   1.686   9.132
93123SOL    HW281267   6.294   1.835   9.121
93124SOL     OW81268   9.326  10.629  14.187
93124SOL    HW181269   9.268  10.571  14.137
93124SOL    HW281270   9.334  10.586  14.273
93125SOL     OW81271   2.031   0.035  12.304
93125SOL    HW181272   1.966  14.869  12.252
93125SOL    HW281273   1.990   0.120  12.322
93126SOL     OW81274   6.678   0.452  10.689
93126SOL    HW181275   6.636   0.499  10.617
93126SOL    HW281276   6.720   0.377  10.647
93127SOL     OW81277  11.920  13.407  11.596
93127SOL    HW181278  11.995  13.400  11.536
93127SOL    HW281279  11.863  13.472  11.555
93128SOL     OW81280  10.877   5.635  12.603
93128SOL    HW181281  10.835   5.588  12.675
93128SOL    HW281282  10.825   5.613  12.526
93129SOL     OW81283  11.800   5.674  13.723
93129SOL    HW181284  11.725   5.616  13.713
93129SOL    HW281285  11.831   5.658  13.812
93130SOL     OW81286   6.998   7.861  13.114
93130SOL    HW181287   7.052   7.810  13.175
93130SOL    HW281288   6.913   7.817  13.116
93131SOL     OW81289   9.957   3.483   2.911
93131SOL    HW181290   9.914   3.466   2.827
93131SOL    HW281291   9.885   3.501   2.971
93132SOL     OW81292   4.387  14.792   9.058
93132SOL    HW181293   4.451  14.862   9.071
93132SOL    HW281294   4.431  14.714   9.091
93133SOL     OW81295   1.000   8.708  13.902
93133SOL    HW181296   0.953   8.790  13.886
93133SOL    HW281297   0.959   8.644  13.844
93134SOL     OW81298  10.024   5.393   3.571
93134SOL    HW181299  10.074   5.465   3.609
93134SOL    HW281300  10.089   5.340   3.526
93135SOL     OW81301   7.172  13.325   7.511
93135SOL    HW181302   7.199  13.283   7.593
93135SOL    HW281303   7.080  13.347   7.526
93136SOL     OW81304  13.665   9.179  11.362
93136SOL    HW181305  13.571   9.195  11.365
93136SOL    HW281306  13.703   9.265  11.343
93137SOL     OW81307  11.174   2.150   4.385
93137SOL    HW181308  11.102   2.214   4.383
93137SOL    HW281309  11.171   2.108   4.299
93138SOL     OW81310   4.365   1.734   8.285
93138SOL    HW181311   4.336   1.822   8.261
93138SOL    HW281312   4.348   1.681   8.207
93139SOL     OW81313   6.514   3.294  14.537
93139SOL    HW181314   6.543   3.253  14.618
93139SOL    HW281315   6.594   3.317  14.491
93140SOL     OW81316   3.224   1.967   8.884
93140SOL    HW181317   3.149   1.912   8.861
93140SOL    HW281318   3.196   2.015   8.962
93141SOL     OW81319  14.863  10.621   5.162
93141SOL    HW181320  14.794  10.569   5.202
93141SOL    HW281321   0.047  10.557   5.136
93142SOL     OW81322   2.002  12.452   2.077
93142SOL    HW181323   2.066  12.403   2.025
93142SOL    HW281324   2.052  12.484   2.152
93143SOL     OW81325   2.353   9.232   4.262
93143SOL    HW181326   2.336   9.143   4.233
93143SOL    HW281327   2.444   9.248   4.239
93144SOL     OW81328  11.728   3.101   8.403
93144SOL    HW181329  11.688   3.175   8.356
93144SOL    HW281330  11.659   3.035   8.408
93145SOL     OW81331   6.720  11.195  13.465
93145SOL    HW181332   6.795  11.201  13.406
93145SOL    HW281333   6.754  11.148  13.541
93146SOL     OW81334  12.056   4.072   0.417
93146SOL    HW181335  12.023   4.146   0.468
93146SOL    HW281336  12.034   3.995   0.469
93147SOL     OW81337  10.707   1.183   6.940
93147SOL    HW181338  10.646   1.212   7.008
93147SOL    HW281339  10.779   1.246   6.945
93148SOL     OW81340   2.971   6.538   7.935
93148SOL    HW181341   2.999   6.505   8.021
93148SOL    HW281342   2.991   6.467   7.874
93149SOL     OW81343  10.458  13.549   7.352
93149SOL    HW181344  10.380  13.600   7.332
93149SOL    HW281345  10.507  13.602   7.414
93150SOL     OW81346   9.777  11.301  12.688
93150SOL    HW181347   9.805  11.376  12.635
93150SOL    HW281348   9.851  11.241  12.685
93151SOL     OW81349   4.442   2.534   6.319
93151SOL    HW181350   4.486   2.533   6.233
93151SOL    HW281351   4.349   2.529   6.298
93152SOL     OW81352  13.522   2.323  11.151
93152SOL    HW181353  13.535   2.391  11.217
93152SOL    HW281354  13.557   2.243  11.191
93153SOL     OW81355   1.085   6.844   6.682
93153SOL    HW181356   1.039   6.776   6.731
93153SOL    HW281357   1.030   6.860   6.605
93154SOL     OW81358   8.334   3.654   2.899
93154SOL    HW181359   8.262   3.611   2.946
93154SOL    HW281360   8.412   3.632   2.950
93155SOL     OW81361  13.570  12.779   3.254
93155SOL    HW181362  13.664  12.775   3.233
93155SOL    HW281363  13.559  12.715   3.325
93156SOL     OW81364  13.357   1.244   7.735
93156SOL    HW181365  13.342   1.331   7.774
93156SOL    HW281366  13.345   1.257   7.641
93157SOL     OW81367   9.576   7.994   1.869
93157SOL    HW181368   9.544   7.995   1.779
93157SOL    HW281369   9.601   8.084   1.887
93158SOL     OW81370   8.847   8.743   2.433
93158SOL    HW181371   8.870   8.775   2.346
93158SOL    HW281372   8.753   8.725   2.428
93159SOL     OW81373   7.943   9.766  12.282
93159SOL    HW181374   8.002   9.715  12.225
93159SOL    HW281375   7.951   9.724  12.367
93160SOL     OW81376   2.550   4.795   4.633
93160SOL    HW181377   2.626   4.779   4.576
93160SOL    HW281378   2.558   4.730   4.702
93161SOL     OW81379   3.900   6.701   4.284
93161SOL    HW181380   3.809   6.714   4.310
93161SOL    HW281381   3.906   6.740   4.197
93162SOL     OW81382   4.800   2.422   1.889
93162SOL    HW181383   4.709   2.413   1.860
93162SOL    HW281384   4.834   2.332   1.891
93163SOL     OW81385   7.695   3.540   0.798
93163SOL    HW181386   7.759   3.501   0.739
93163SOL    HW281387   7.704   3.634   0.784
93164SOL     OW81388   5.878   0.804  12.079
93164SOL    HW181389   5.816   0.841  12.015
93164SOL    HW281390   5.830   0.807  12.162
93165SOL     OW81391   3.195  10.814  12.694
93165SOL    HW181392   3.120  10.768  12.656
93165SOL    HW281393   3.250  10.836  12.619
93166SOL     OW81394   1.232   2.943   3.083
93166SOL    HW181395   1.163   2.944   3.017
93166SOL    HW281396   1.314   2.938   3.033
93167SOL     OW81397   6.165   3.355   9.532
93167SOL    HW181398   6.232   3.423   9.529
93167SOL    HW281399   6.207   3.278   9.493
93168SOL     OW81400   2.729   9.335  13.087
93168SOL    HW181401   2.634   9.322  13.084
93168SOL    HW281402   2.742   9.424  13.055
93169SOL     OW81403   8.999   5.800   4.105
93169SOL    HW181404   9.050   5.850   4.169
93169SOL    HW281405   8.976   5.719   4.151
93170SOL     OW81406  10.657   4.895  10.623
93170SOL    HW181407  10.676   4.806  10.653
93170SOL    HW281408  10.567   4.910  10.649
93171SOL     OW81409   3.762   9.784  10.570
93171SOL    HW181410   3.685   9.781  10.513
93171SOL    HW281411   3.834   9.805  10.511
93172SOL     OW81412   2.435  11.483  11.918
93172SOL    HW181413   2.372  11.442  11.978
93172SOL    HW281414   2.401  11.571  11.904
93173SOL     OW81415   7.316   7.933  12.418
93173SOL    HW181416   7.222   7.940  12.436
93173SOL    HW281417   7.320   7.916  12.324
93174SOL     OW81418  11.908   6.360   2.067
93174SOL    HW181419  11.880   6.269   2.061
93174SOL    HW281420  11.827   6.409   2.082
93175SOL     OW81421   0.739   3.357   6.843
93175SOL    HW181422   0.687   3.407   6.906
93175SOL    HW281423   0.761   3.276   6.889
93176SOL     OW81424   3.956  12.410   0.744
93176SOL    HW181425   4.041  12.369   0.731
93176SOL    HW281426   3.974  12.504   0.744
93177SOL     OW81427   7.397   1.420   8.956
93177SOL    HW181428   7.395   1.345   8.896
93177SOL    HW281429   7.452   1.485   8.912
93178SOL     OW81430   1.856   6.744   2.687
93178SOL    HW181431   1.931   6.774   2.635
93178SOL    HW281432   1.869   6.650   2.696
93179SOL     OW81433   9.624  12.900  12.650
93179SOL    HW181434   9.651  12.886  12.740
93179SOL    HW281435   9.653  12.821  12.604
93180SOL     OW81436   2.071  10.179   6.991
93180SOL    HW181437   1.988  10.133   6.996
93180SOL    HW281438   2.134  10.120   7.033
93181SOL     OW81439   2.858   4.063   0.260
93181SOL    HW181440   2.779   4.102   0.223
93181SOL    HW281441   2.926   4.129   0.245
93182SOL     OW81442  12.667   8.948   5.547
93182SOL    HW181443  12.717   8.944   5.465
93182SOL    HW281444  12.592   8.891   5.532
93183SOL     OW81445   3.103   7.106  14.804
93183SOL    HW181446   3.014   7.114  14.768
93183SOL    HW281447   3.115   7.012  14.815
93184SOL     OW81448  13.696   2.387   0.175
93184SOL    HW181449  13.711   2.301   0.134
93184SOL    HW281450  13.737   2.449   0.115
93185SOL     OW81451   2.863   8.394  13.687
93185SOL    HW181452   2.837   8.389  13.595
93185SOL    HW281453   2.956   8.415  13.685
93186SOL     OW81454   7.737   7.003  10.431
93186SOL    HW181455   7.782   6.920  10.419
93186SOL    HW281456   7.644   6.981  10.426
93187SOL     OW81457   9.090   7.809   3.572
93187SOL    HW181458   9.102   7.904   3.576
93187SOL    HW281459   8.998   7.797   3.550
93188SOL     OW81460   5.673   2.300   1.606
93188SOL    HW181461   5.674   2.345   1.691
93188SOL    HW281462   5.763   2.267   1.596
93189SOL     OW81463  12.270   1.735  13.923
93189SOL    HW181464  12.271   1.738  14.019
93189SOL    HW281465  12.361   1.716  13.898
93190SOL     OW81466   4.642   1.228   2.074
93190SOL    HW181467   4.722   1.224   2.126
93190SOL    HW281468   4.650   1.156   2.011
93191SOL     OW81469   4.248   8.996   2.340
93191SOL    HW181470   4.282   9.045   2.265
93191SOL    HW281471   4.287   8.909   2.331
93192SOL     OW81472  14.842  14.227   0.756
93192SOL    HW181473  14.836  14.232   0.852
93192SOL    HW281474  14.777  14.161   0.731
93193SOL     OW81475   5.304   2.052   6.625
93193SOL    HW181476   5.250   2.124   6.592
93193SOL    HW281477   5.281   2.046   6.718
93194SOL     OW81478   4.059   9.209   0.437
93194SOL    HW181479   4.040   9.126   0.394
93194SOL    HW281480   4.036   9.275   0.372
93195SOL     OW81481   7.874  12.703   7.138
93195SOL    HW181482   7.784  12.684   7.110
93195SOL    HW281483   7.898  12.629   7.194
93196SOL     OW81484   4.689   5.301   3.752
93196SOL    HW181485   4.725   5.339   3.671
93196SOL    HW281486   4.766   5.277   3.803
93197SOL     OW81487   3.978   4.624  10.929
93197SOL    HW181488   3.990   4.534  10.960
93197SOL    HW281489   3.886   4.628  10.902
93198SOL     OW81490   9.079  14.390   5.225
93198SOL    HW181491   8.999  14.390   5.276
93198SOL    HW281492   9.146  14.354   5.284
93199SOL     OW81493   4.571   6.432  12.568
93199SOL    HW181494   4.561   6.468  12.480
93199SOL    HW281495   4.598   6.506  12.622
93200SOL     OW81496  10.829   0.154   1.086
93200SOL    HW181497  10.783   0.220   1.139
93200SOL    HW281498  10.817   0.183   0.996
93201SOL     OW81499   0.943   5.239  10.889
93201SOL    HW181500   0.908   5.180  10.955
93201SOL    HW281501   1.009   5.188  10.842
93202SOL     OW81502   7.103  14.612   8.619
93202SOL    HW181503   7.074  14.689   8.666
93202SOL    HW281504   7.166  14.570   8.677
93203SOL     OW81505  14.009   5.184  13.574
93203SOL    HW181506  14.001   5.277  13.556
93203SOL    HW281507  14.075   5.153  13.512
93204SOL     OW81508   7.607   7.744   0.646
93204SOL    HW181509   7.556   7.775   0.721
93204SOL    HW281510   7.542   7.701   0.589
93205SOL     OW81511   8.733   2.390   5.059
93205SOL    HW181512   8.714   2.336   4.982
93205SOL    HW281513   8.813   2.352   5.096
93206SOL     OW81514   2.298   1.513   8.524
93206SOL    HW181515   2.320   1.420   8.530
93206SOL    HW281516   2.246   1.520   8.444
93207SOL     OW81517  10.168   9.099   4.941
93207SOL    HW181518  10.146   9.184   4.978
93207SOL    HW281519  10.148   9.036   5.010
93208SOL     OW81520   0.670   4.725   7.064
93208SOL    HW181521   0.639   4.720   7.155
93208SOL    HW281522   0.761   4.698   7.068
93209SOL     OW81523  12.557  13.414   8.128
93209SOL    HW181524  12.509  13.486   8.167
93209SOL    HW281525  12.639  13.452   8.097
93210SOL     OW81526   9.800  12.244   3.632
93210SOL    HW181527   9.771  12.307   3.698
93210SOL    HW281528   9.853  12.181   3.681
93211SOL     OW81529   3.598  12.898   4.661
93211SOL    HW181530   3.662  12.857   4.602
93211SOL    HW281531   3.531  12.933   4.602
93212SOL     OW81532   6.104   3.483   6.752
93212SOL    HW181533   6.155   3.433   6.816
93212SOL    HW281534   6.013   3.462   6.772
93213SOL     OW81535   7.866   3.137   6.086
93213SOL    HW181536   7.807   3.064   6.107
93213SOL    HW281537   7.814   3.193   6.028
93214SOL     OW81538   0.489   5.499   4.558
93214SOL    HW181539   0.527   5.551   4.630
93214SOL    HW281540   0.414   5.455   4.598
93215SOL     OW81541  13.468  12.247   0.333
93215SOL    HW181542  13.463  12.264   0.239
93215SOL    HW281543  13.548  12.292   0.361
93216SOL     OW81544   3.082   6.501   8.868
93216SOL    HW181545   3.157   6.468   8.818
93216SOL    HW281546   3.024   6.537   8.801
93217SOL     OW81547   1.669  10.832  10.073
93217SOL    HW181548   1.636  10.757  10.123
93217SOL    HW281549   1.615  10.905  10.102
93218SOL     OW81550  14.860  13.299   9.799
93218SOL    HW181551   0.061  13.253   9.812
93218SOL    HW281552  14.816  13.250   9.729
93219SOL     OW81553  13.627  12.086  11.182
93219SOL    HW181554  13.688  12.061  11.251
93219SOL    HW281555  13.561  12.139  11.227
93220SOL     OW81556  13.592  12.429   6.617
93220SOL    HW181557  13.547  12.478   6.686
93220SOL    HW281558  13.669  12.393   6.661
93221SOL     OW81559   3.233  14.490   9.303
93221SOL    HW181560   3.145  14.458   9.321
93221SOL    HW281561   3.241  14.570   9.356
93222SOL     OW81562   8.147   2.442   4.567
93222SOL    HW181563   8.200   2.490   4.631
93222SOL    HW281564   8.057   2.450   4.599
93223SOL     OW81565  14.766   7.722  13.936
93223SOL    HW181566  14.780   7.748  13.845
93223SOL    HW281567  14.854   7.712  13.973
93224SOL     OW81568  12.336   8.865   4.898
93224SOL    HW181569  12.311   8.824   4.980
93224SOL    HW281570  12.417   8.821   4.873
93225SOL     OW81571   9.559  11.752   0.048
93225SOL    HW181572   9.537  11.838   0.012
93225SOL    HW281573   9.576  11.697  14.854
93226SOL     OW81574  14.841   9.539   3.537
93226SOL    HW181575  14.806   9.488   3.609
93226SOL    HW281576   0.032   9.487   3.503
93227SOL     OW81577  10.365   3.896  11.152
93227SOL    HW181578  10.422   3.839  11.101
93227SOL    HW281579  10.334   3.841  11.224
93228SOL     OW81580   0.920   5.427  12.026
93228SOL    HW181581   1.001   5.377  12.040
93228SOL    HW281582   0.853   5.360  12.011
93229SOL     OW81583  13.502   4.230   7.236
93229SOL    HW181584  13.450   4.150   7.234
93229SOL    HW281585  13.542   4.231   7.323
93230SOL     OW81586   9.812   1.438   8.693
93230SOL    HW181587   9.857   1.364   8.733
93230SOL    HW281588   9.840   1.514   8.744
93231SOL     OW81589   6.251  12.754  10.220
93231SOL    HW181590   6.337  12.721  10.193
93231SOL    HW281591   6.200  12.676  10.241
93232SOL     OW81592  10.994   5.914   2.974
93232SOL    HW181593  11.058   5.875   2.915
93232SOL    HW281594  10.946   5.840   3.011
93233SOL     OW81595   2.209  13.531   2.493
93233SOL    HW181596   2.267  13.475   2.442
93233SOL    HW281597   2.207  13.491   2.580
93234SOL     OW81598   9.412   7.051   7.477
93234SOL    HW181599   9.381   7.035   7.566
93234SOL    HW281600   9.333   7.053   7.424
93235SOL     OW81601  14.460   2.081   5.364
93235SOL    HW181602  14.497   2.164   5.332
93235SOL    HW281603  14.365   2.097   5.367
93236SOL     OW81604   3.707   6.551   4.008
93236SOL    HW181605   3.791   6.581   3.974
93236SOL    HW281606   3.730   6.486   4.075
93237SOL     OW81607   3.308   4.645   4.327
93237SOL    HW181608   3.318   4.605   4.240
93237SOL    HW281609   3.332   4.575   4.388
93238SOL     OW81610   2.659   8.234   7.927
93238SOL    HW181611   2.702   8.313   7.892
93238SOL    HW281612   2.672   8.168   7.859
93239SOL     OW81613   7.870   6.363   5.779
93239SOL    HW181614   7.928   6.290   5.758
93239SOL    HW281615   7.914   6.409   5.851
93240SOL     OW81616   9.639  10.853   2.273
93240SOL    HW181617   9.569  10.850   2.207
93240SOL    HW281618   9.601  10.901   2.346
93241SOL     OW81619  11.792  11.901   0.182
93241SOL    HW181620  11.828  11.919   0.269
93241SOL    HW281621  11.809  11.981   0.132
93242SOL     OW81622   5.459   1.104   0.666
93242SOL    HW181623   5.405   1.041   0.713
93242SOL    HW281624   5.451   1.186   0.716
93243SOL     OW81625   4.581   4.970   0.775
93243SOL    HW181626   4.554   4.932   0.691
93243SOL    HW281627   4.630   4.900   0.818
93244SOL     OW81628  10.013   3.633  12.999
93244SOL    HW181629   9.978   3.557  12.953
93244SOL    HW281630  10.098   3.650  12.958
93245SOL     OW81631   4.083   8.368   4.901
93245SOL    HW181632   4.159   8.314   4.923
93245SOL    HW281633   4.086   8.377   4.806
93246SOL     OW81634   8.112   7.253  14.036
93246SOL    HW181635   8.053   7.211  13.973
93246SOL    HW281636   8.105   7.199  14.115
93247SOL     OW81637   9.907   9.549  14.451
93247SOL    HW181638   9.994   9.509  14.455
93247SOL    HW281639   9.858   9.494  14.391
93248SOL     OW81640   7.718   1.789   1.645
93248SOL    HW181641   7.703   1.794   1.550
93248SOL    HW281642   7.773   1.711   1.656
93249SOL     OW81643   0.887   4.608   7.151
93249SOL    HW181644   0.969   4.645   7.184
93249SOL    HW281645   0.842   4.576   7.229
93250SOL     OW81646  14.807   3.366  14.521
93250SOL    HW181647  14.851   3.362  14.437
93250SOL    HW281648  14.741   3.435  14.511
93251SOL     OW81649   3.498   9.217   8.957
93251SOL    HW181650   3.544   9.202   9.039
93251SOL    HW281651   3.551   9.172   8.891
93252SOL     OW81652  14.727   8.530   7.389
93252SOL    HW181653  14.713   8.620   7.418
93252SOL    HW281654  14.763   8.538   7.301
93253SOL     OW81655   8.564   9.108   2.448
93253SOL    HW181656   8.470   9.124   2.456
93253SOL    HW281657   8.598   9.116   2.537
93254SOL     OW81658   4.751  14.749   5.471
93254SOL    HW181659   4.717  14.668   5.509
93254SOL    HW281660   4.698  14.763   5.393
93255SOL     OW81661   2.558   2.188  10.978
93255SOL    HW181662   2.648   2.157  10.992
93255SOL    HW281663   2.534   2.229  11.061
93256SOL     OW81664   7.760   4.010   3.610
93256SOL    HW181665   7.747   3.929   3.660
93256SOL    HW281666   7.836   3.992   3.555
93257SOL     OW81667   2.035   5.883  11.045
93257SOL    HW181668   2.083   5.952  11.092
93257SOL    HW281669   2.013   5.819  11.112
93258SOL     OW81670  13.317  12.191   2.521
93258SOL    HW181671  13.375  12.220   2.591
93258SOL    HW281672  13.376  12.178   2.446
93259SOL     OW81673  13.034   8.648  12.443
93259SOL    HW181674  12.956   8.691  12.479
93259SOL    HW281675  13.024   8.655  12.349
93260SOL     OW81676   6.358  14.465   6.906
93260SOL    HW181677   6.355  14.438   6.814
93260SOL    HW281678   6.352  14.384   6.956
93261SOL     OW81679  14.294  11.089  12.736
93261SOL    HW181680  14.374  11.141  12.747
93261SOL    HW281681  14.224  11.154  12.740
93262SOL     OW81682  11.054   9.760   4.178
93262SOL    HW181683  11.031   9.771   4.270
93262SOL    HW281684  11.023   9.672   4.156
93263SOL     OW81685   7.596  12.960   6.383
93263SOL    HW181686   7.643  12.990   6.460
93263SOL    HW281687   7.659  12.904   6.337
93264SOL     OW81688   1.975   0.109  10.257
93264SOL    HW181689   1.934   0.172  10.197
93264SOL    HW281690   1.904   0.050  10.281
93265SOL     OW81691  13.546  11.642   5.326
93265SOL    HW181692  13.561  11.549   5.309
93265SOL    HW281693  13.526  11.647   5.419
93266SOL     OW81694   6.636  13.177   9.753
93266SOL    HW181695   6.542  13.167   9.765
93266SOL    HW281696   6.656  13.264   9.790
93267SOL     OW81697   2.098   5.791   3.968
93267SOL    HW181698   2.153   5.765   3.894
93267SOL    HW281699   2.110   5.721   4.032
93268SOL     OW81700   7.217   5.677   5.780
93268SOL    HW181701   7.178   5.618   5.715
93268SOL    HW281702   7.300   5.636   5.803
93269SOL     OW81703  14.751   9.796   3.476
93269SOL    HW181704  14.806   9.818   3.400
93269SOL    HW281705  14.786   9.712   3.507
93270SOL     OW81706  11.190  13.680  14.708
93270SOL    HW181707  11.220  13.715  14.624
93270SOL    HW281708  11.150  13.596  14.686
93271SOL     OW81709   1.466   6.849   5.855
93271SOL    HW181710   1.555   6.859   5.888
93271SOL    HW281711   1.468   6.890   5.768
93272SOL     OW81712  10.779   9.747  14.303
93272SOL    HW181713  10.768   9.657  14.332
93272SOL    HW281714  10.697   9.768  14.257
93273SOL     OW81715   5.056   4.572   6.099
93273SOL    HW181716   5.114   4.623   6.043
93273SOL    HW281717   4.992   4.635   6.131
93274SOL     OW81718   8.671   0.019  12.356
93274SOL    HW181719   8.749   0.003  12.302
93274SOL    HW281720   8.642   0.107  12.332
93275SOL     OW81721  14.398   4.448   0.255
93275SOL    HW181722  14.470   4.483   0.203
93275SOL    HW281723  14.439   4.385   0.314
93276SOL     OW81724  12.509   7.769   7.861
93276SOL    HW181725  12.543   7.680   7.868
93276SOL    HW281726  12.452   7.767   7.785
93277SOL     OW81727  11.678   2.648   7.762
93277SOL    HW181728  11.675   2.565   7.809
93277SOL    HW281729  11.711   2.625   7.675
93278SOL     OW81730   6.715   0.195   8.349
93278SOL    HW181731   6.625   0.163   8.354
93278SOL    HW281732   6.724   0.224   8.258
93279SOL     OW81733  11.614   0.259  12.558
93279SOL    HW181734  11.670   0.255  12.636
93279SOL    HW281735  11.660   0.206  12.493
93280SOL     OW81736  10.203   8.108   8.920
93280SOL    HW181737  10.196   8.020   8.957
93280SOL    HW281738  10.126   8.155   8.954
93281SOL     OW81739   7.747   1.507   2.545
93281SOL    HW181740   7.777   1.432   2.493
93281SOL    HW281741   7.744   1.475   2.635
93282SOL     OW81742  11.188   6.453  12.844
93282SOL    HW181743  11.145   6.533  12.875
93282SOL    HW281744  11.278   6.480  12.827
93283SOL     OW81745   1.615   4.399   3.101
93283SOL    HW181746   1.684   4.448   3.057
93283SOL    HW281747   1.632   4.308   3.078
93284SOL     OW81748   6.038   0.274   4.481
93284SOL    HW181749   6.092   0.201   4.453
93284SOL    HW281750   5.980   0.238   4.549
93285SOL     OW81751   4.245   3.973   7.944
93285SOL    HW181752   4.230   3.996   7.853
93285SOL    HW281753   4.193   4.036   7.994
93286SOL     OW81754  14.276   5.457  10.258
93286SOL    HW181755  14.186   5.469  10.227
93286SOL    HW281756  14.287   5.362  10.265
93287SOL     OW81757   0.327   8.254   2.848
93287SOL    HW181758   0.304   8.262   2.940
93287SOL    HW281759   0.244   8.238   2.804
93288SOL     OW81760   5.675  12.043   1.485
93288SOL    HW181761   5.688  12.116   1.425
93288SOL    HW281762   5.624  11.979   1.435
93289SOL     OW81763   6.298  14.704   1.997
93289SOL    HW181764   6.380  14.700   1.949
93289SOL    HW281765   6.318  14.667   2.082
93290SOL     OW81766   8.597   2.799  12.501
93290SOL    HW181767   8.604   2.890  12.471
93290SOL    HW281768   8.684   2.780  12.538
93291SOL     OW81769   7.829  11.591   0.773
93291SOL    HW181770   7.768  11.524   0.804
93291SOL    HW281771   7.835  11.652   0.846
93292SOL     OW81772   7.853   2.615   6.566
93292SOL    HW181773   7.917   2.637   6.498
93292SOL    HW281774   7.782   2.572   6.520
93293SOL     OW81775   7.690   1.863  12.605
93293SOL    HW181776   7.624   1.799  12.632
93293SOL    HW281777   7.663   1.888  12.516
93294SOL     OW81778  10.908   5.206   3.874
93294SOL    HW181779  10.878   5.253   3.952
93294SOL    HW281780  10.859   5.246   3.802
93295SOL     OW81781   2.683  13.136  10.960
93295SOL    HW181782   2.636  13.220  10.953
93295SOL    HW281783   2.659  13.089  10.880
93296SOL     OW81784  14.314   5.326   1.021
93296SOL    HW181785  14.242   5.277   0.983
93296SOL    HW281786  14.276   5.371   1.096
93297SOL     OW81787  13.741   4.647  10.806
93297SOL    HW181788  13.836   4.648  10.800
93297SOL    HW281789  13.722   4.699  10.884
93298SOL     OW81790   3.605   0.149   8.137
93298SOL    HW181791   3.575   0.237   8.158
93298SOL    HW281792   3.688   0.163   8.091
93299SOL     OW81793  13.015   8.627   6.247
93299SOL    HW181794  13.043   8.541   6.277
93299SOL    HW281795  13.021   8.623   6.152
93300SOL     OW81796   9.583   0.304   1.699
93300SOL    HW181797   9.615   0.273   1.614
93300SOL    HW281798   9.497   0.263   1.708
93301SOL     OW81799   3.547   0.656   9.637
93301SOL    HW181800   3.572   0.578   9.588
93301SOL    HW281801   3.628   0.686   9.679
93302SOL     OW81802   7.714  14.452   2.538
93302SOL    HW181803   7.719  14.502   2.620
93302SOL    HW281804   7.804  14.449   2.507
93303SOL     OW81805  13.692   8.015   8.679
93303SOL    HW181806  13.607   8.037   8.719
93303SOL    HW281807  13.741   8.097   8.680
93304SOL     OW81808  12.676   5.698  10.228
93304SOL    HW181809  12.613   5.640  10.185
93304SOL    HW281810  12.711   5.647  10.300
93305SOL     OW81811  14.185   4.264  12.105
93305SOL    HW181812  14.262   4.312  12.076
93305SOL    HW281813  14.180   4.189  12.046
93306SOL     OW81814   5.889   4.273  10.650
93306SOL    HW181815   5.940   4.322  10.585
93306SOL    HW281816   5.949   4.260  10.723
93307SOL     OW81817   4.853  14.270   5.759
93307SOL    HW181818   4.833  14.303   5.847
93307SOL    HW281819   4.880  14.348   5.710
93308SOL     OW81820   7.197   8.349  10.148
93308SOL    HW181821   7.188   8.292  10.072
93308SOL    HW281822   7.107   8.372  10.172
93309SOL     OW81823   2.901   9.069   7.742
93309SOL    HW181824   2.978   9.014   7.754
93309SOL    HW281825   2.895   9.118   7.824
93310SOL     OW81826  14.152  14.686   0.214
93310SOL    HW181827  14.173  14.747   0.284
93310SOL    HW281828  14.104  14.739   0.149
93311SOL     OW81829   5.957   0.757   8.941
93311SOL    HW181830   5.879   0.708   8.968
93311SOL    HW281831   5.946   0.772   8.848
93312SOL     OW81832  11.522  13.538   4.845
93312SOL    HW181833  11.496  13.468   4.906
93312SOL    HW281834  11.544  13.611   4.902
93313SOL     OW81835   0.061  11.768   2.332
93313SOL    HW181836   0.040  11.719   2.253
93313SOL    HW281837   0.131  11.717   2.373
93314SOL     OW81838  14.677   7.041   0.076
93314SOL    HW181839  14.752   7.002   0.120
93314SOL    HW281840  14.688   7.136   0.087
93315SOL     OW81841   2.950  14.673   6.435
93315SOL    HW181842   2.859  14.684   6.463
93315SOL    HW281843   3.001  14.692   6.514
93316SOL     OW81844  13.829  12.723  12.726
93316SOL    HW181845  13.754  12.680  12.768
93316SOL    HW281846  13.790  12.771  12.652
93317SOL     OW81847   2.462  11.227   8.610
93317SOL    HW181848   2.445  11.281   8.532
93317SOL    HW281849   2.467  11.289   8.682
93318SOL     OW81850  11.159  11.029   9.753
93318SOL    HW181851  11.246  10.991   9.748
93318SOL    HW281852  11.100  10.953   9.749
93319SOL     OW81853   1.836   3.638  10.094
93319SOL    HW181854   1.865   3.715  10.142
93319SOL    HW281855   1.740   3.642  10.098
93320SOL     OW81856   4.169   5.508   4.163
93320SOL    HW181857   4.215   5.498   4.246
93320SOL    HW281858   4.097   5.445   4.168
93321SOL     OW81859   3.714  10.376   8.953
93321SOL    HW181860   3.753  10.408   9.034
93321SOL    HW281861   3.733  10.444   8.888
93322SOL     OW81862   3.738   7.948  10.975
93322SOL    HW181863   3.811   7.890  10.953
93322SOL    HW281864   3.723   7.932  11.068
93323SOL     OW81865   1.417   8.261  12.184
93323SOL    HW181866   1.414   8.349  12.146
93323SOL    HW281867   1.339   8.218  12.148
93324SOL     OW81868  11.850   6.746   5.911
93324SOL    HW181869  11.792   6.728   5.837
93324SOL    HW281870  11.929   6.697   5.893
93325SOL     OW81871   3.185   2.683  14.312
93325SOL    HW181872   3.108   2.653  14.264
93325SOL    HW281873   3.202   2.770  14.278
93326SOL     OW81874   9.968  10.177  10.985
93326SOL    HW181875  10.051  10.224  10.978
93326SOL    HW281876   9.930  10.208  11.067
93327SOL     OW81877   7.420   4.703  13.938
93327SOL    HW181878   7.377   4.788  13.938
93327SOL    HW281879   7.503   4.719  13.983
93328SOL     OW81880   9.925   6.946   7.592
93328SOL    HW181881   9.834   6.933   7.621
93328SOL    HW281882   9.918   7.003   7.515
93329SOL     OW81883  12.205  10.466  13.406
93329SOL    HW181884  12.174  10.427  13.488
93329SOL    HW281885  12.126  10.490  13.359
93330SOL     OW81886   6.321   6.439   2.205
93330SOL    HW181887   6.332   6.461   2.297
93330SOL    HW281888   6.352   6.515   2.157
93331SOL     OW81889  12.440  13.553  11.973
93331SOL    HW181890  12.379  13.626  11.976
93331SOL    HW281891  12.481  13.558  11.887
93332SOL     OW81892   3.907   1.055   8.745
93332SOL    HW181893   3.970   1.045   8.674
93332SOL    HW281894   3.952   1.021   8.822
93333SOL     OW81895   8.486  13.744   7.300
93333SOL    HW181896   8.509  13.746   7.207
93333SOL    HW281897   8.399  13.704   7.302
93334SOL     OW81898   0.749  13.107   0.884
93334SOL    HW181899   0.733  13.017   0.911
93334SOL    HW281900   0.711  13.113   0.796
93335SOL     OW81901   2.979   8.834  13.220
93335SOL    HW181902   3.066   8.828  13.180
93335SOL    HW281903   2.955   8.926  13.211
93336SOL     OW81904  12.036   5.754  13.399
93336SOL    HW181905  11.993   5.674  13.370
93336SOL    HW281906  11.964   5.814  13.421
93337SOL     OW81907  12.762  13.871   6.807
93337SOL    HW181908  12.813  13.792   6.794
93337SOL    HW281909  12.804  13.915   6.881
93338SOL     OW81910  10.503   2.860   3.269
93338SOL    HW181911  10.458   2.868   3.353
93338SOL    HW281912  10.470   2.933   3.216
93339SOL     OW81913   2.355   2.193  12.028
93339SOL    HW181914   2.378   2.276  12.069
93339SOL    HW281915   2.297   2.150  12.091
93340SOL     OW81916   5.079  12.264   4.690
93340SOL    HW181917   5.154  12.259   4.629
93340SOL    HW281918   5.088  12.187   4.745
93341SOL     OW81919   1.009   4.810   1.250
93341SOL    HW181920   1.098   4.820   1.218
93341SOL    HW281921   0.993   4.890   1.301
93342SOL     OW81922   4.753   9.022   7.423
93342SOL    HW181923   4.689   9.092   7.433
93342SOL    HW281924   4.833   9.056   7.463
93343SOL     OW81925   8.036   1.836   8.105
93343SOL    HW181926   7.978   1.849   8.031
93343SOL    HW281927   8.084   1.919   8.113
93344SOL     OW81928   2.402  14.793   5.813
93344SOL    HW181929   2.395  14.864   5.749
93344SOL    HW281930   2.392  14.835   5.898
93345SOL     OW81931  13.174   1.871  11.423
93345SOL    HW181932  13.131   1.830  11.348
93345SOL    HW281933  13.224   1.944  11.386
93346SOL     OW81934  10.500   1.714  11.487
93346SOL    HW181935  10.525   1.677  11.572
93346SOL    HW281936  10.417   1.671  11.465
93347SOL     OW81937   2.127   5.488  12.319
93347SOL    HW181938   2.213   5.469  12.356
93347SOL    HW281939   2.065   5.448  12.380
93348SOL     OW81940  11.752   3.691  10.299
93348SOL    HW181941  11.738   3.741  10.219
93348SOL    HW281942  11.730   3.753  10.369
93349SOL     OW81943  10.825  11.645   0.729
93349SOL    HW181944  10.803  11.690   0.647
93349SOL    HW281945  10.865  11.563   0.702
93350SOL     OW81946   4.963  14.080  10.872
93350SOL    HW181947   5.018  14.018  10.823
93350SOL    HW281948   4.902  14.025  10.921
93351SOL     OW81949   1.590   4.715   9.713
93351SOL    HW181950   1.536   4.793   9.721
93351SOL    HW281951   1.605   4.705   9.619
93352SOL     OW81952   0.344   3.035   0.522
93352SOL    HW181953   0.415   2.989   0.478
93352SOL    HW281954   0.267   2.979   0.509
93353SOL     OW81955   8.616   8.297  11.972
93353SOL    HW181956   8.654   8.361  11.911
93353SOL    HW281957   8.617   8.214  11.924
93354SOL     OW81958  14.186   3.812   5.398
93354SOL    HW181959  14.250   3.742   5.388
93354SOL    HW281960  14.119   3.775   5.455
93355SOL     OW81961  10.719  11.367   6.537
93355SOL    HW181962  10.738  11.445   6.589
93355SOL    HW281963  10.632  11.383   6.501
93356SOL     OW81964  13.466  14.016  13.372
93356SOL    HW181965  13.441  14.108  13.383
93356SOL    HW281966  13.393  13.968  13.412
93357SOL     OW81967  12.054  14.606  13.936
93357SOL    HW181968  12.023  14.696  13.926
93357SOL    HW281969  12.001  14.555  13.874
93358SOL     OW81970  12.660   2.198   1.929
93358SOL    HW181971  12.664   2.289   1.959
93358SOL    HW281972  12.671   2.204   1.834
93359SOL     OW81973   6.934  10.431  12.657
93359SOL    HW181974   6.922  10.346  12.699
93359SOL    HW281975   7.029  10.440  12.648
93360SOL     OW81976   5.297   9.110   7.938
93360SOL    HW181977   5.355   9.130   8.012
93360SOL    HW281978   5.226   9.058   7.976
93361SOL     OW81979  14.396   8.496   6.436
93361SOL    HW181980  14.487   8.525   6.425
93361SOL    HW281981  14.401   8.401   6.426
93362SOL     OW81982  13.110   6.223  13.955
93362SOL    HW181983  13.091   6.152  13.893
93362SOL    HW281984  13.041   6.216  14.021
93363SOL     OW81985   5.839  12.487   0.430
93363SOL    HW181986   5.780  12.555   0.461
93363SOL    HW281987   5.927  12.520   0.450
93364SOL     OW81988   7.363  14.490   3.236
93364SOL    HW181989   7.269  14.492   3.254
93364SOL    HW281990   7.393  14.407   3.273
93365SOL     OW81991  13.986   7.638   0.335
93365SOL    HW181992  14.072   7.673   0.311
93365SOL    HW281993  13.925   7.710   0.321
93366SOL     OW81994   7.089   9.589   1.722
93366SOL    HW181995   7.137   9.582   1.639
93366SOL    HW281996   7.140   9.650   1.775
93367SOL     OW81997   8.349   2.585   0.538
93367SOL    HW181998   8.280   2.644   0.567
93367SOL    HW281999   8.350   2.515   0.604
93368SOL     OW82000   7.221   3.610   9.704
93368SOL    HW182001   7.275   3.587   9.628
93368SOL    HW282002   7.222   3.530   9.758
93369SOL     OW82003   8.045   6.408   6.006
93369SOL    HW182004   8.032   6.313   6.007
93369SOL    HW282005   8.138   6.420   5.985
93370SOL     OW82006   1.673  11.635   1.666
93370SOL    HW182007   1.733  11.600   1.600
93370SOL    HW282008   1.687  11.580   1.743
93371SOL     OW82009  13.660   3.123  12.761
93371SOL    HW182010  13.688   3.106  12.671
93371SOL    HW282011  13.569   3.095  12.764
93372SOL     OW82012   3.518   1.393   5.115
93372SOL    HW182013   3.592   1.334   5.101
93372SOL    HW282014   3.451   1.361   5.055
93373SOL     OW82015   8.961   4.390   4.179
93373SOL    HW182016   9.010   4.334   4.118
93373SOL    HW282017   8.941   4.332   4.253
93374SOL     OW82018   3.356   9.504  14.346
93374SOL    HW182019   3.360   9.592  14.383
93374SOL    HW282020   3.294   9.511  14.274
93375SOL     OW82021   5.897   7.439   6.807
93375SOL    HW182022   5.908   7.533   6.815
93375SOL    HW282023   5.940   7.403   6.884
93376SOL     OW82024   4.271   7.009   2.320
93376SOL    HW182025   4.242   6.935   2.267
93376SOL    HW282026   4.237   6.991   2.408
93377SOL     OW82027  13.758   6.470   7.041
93377SOL    HW182028  13.739   6.559   7.072
93377SOL    HW282029  13.703   6.414   7.095
93378SOL     OW82030   7.952  11.365   9.961
93378SOL    HW182031   7.902  11.441   9.990
93378SOL    HW282032   7.888  11.294   9.958
93379SOL     OW82033  13.220  10.116   1.496
93379SOL    HW182034  13.176  10.105   1.580
93379SOL    HW282035  13.290  10.051   1.496
93380SOL     OW82036   3.305   9.082   1.570
93380SOL    HW182037   3.334   9.002   1.615
93380SOL    HW282038   3.300   9.148   1.639
93381SOL     OW82039   9.125  13.974  13.538
93381SOL    HW182040   9.206  13.922  13.535
93381SOL    HW282041   9.056  13.908  13.545
93382SOL     OW82042   8.009   5.401  12.811
93382SOL    HW182043   7.968   5.401  12.897
93382SOL    HW282044   7.940   5.426  12.751
93383SOL     OW82045  11.641  11.923   6.362
93383SOL    HW182046  11.604  11.856   6.419
93383SOL    HW282047  11.572  11.989   6.355
93384SOL     OW82048   5.308   0.291  11.082
93384SOL    HW182049   5.307   0.199  11.057
93384SOL    HW282050   5.282   0.291  11.174
93385SOL     OW82051  10.060   6.546   5.963
93385SOL    HW182052  10.106   6.597   6.030
93385SOL    HW282053   9.995   6.606   5.927
93386SOL     OW82054  12.692  12.884   9.267
93386SOL    HW182055  12.647  12.944   9.326
93386SOL    HW282056  12.710  12.807   9.320
93387SOL     OW82057   8.849   3.054   1.196
93387SOL    HW182058   8.881   3.098   1.118
93387SOL    HW282059   8.915   3.073   1.263
93388SOL     OW82060   8.789  12.366  10.703
93388SOL    HW182061   8.846  12.428  10.659
93388SOL    HW282062   8.780  12.400  10.792
93389SOL     OW82063   8.822  11.886  10.552
93389SOL    HW182064   8.824  11.793  10.529
93389SOL    HW282065   8.820  11.886  10.648
93390SOL     OW82066  13.813   0.839   6.474
93390SOL    HW182067  13.867   0.838   6.553
93390SOL    HW282068  13.875   0.857   6.403
93391SOL     OW82069   3.604  12.514  10.292
93391SOL    HW182070   3.640  12.552  10.211
93391SOL    HW282071   3.670  12.532  10.358
93392SOL     OW82072  14.615   3.543  14.525
93392SOL    HW182073  14.637   3.630  14.491
93392SOL    HW282074  14.630   3.550  14.620
93393SOL     OW82075   4.741   2.244  13.222
93393SOL    HW182076   4.671   2.192  13.262
93393SOL    HW282077   4.757   2.315  13.283
93394SOL     OW82078   1.301  14.857   2.528
93394SOL    HW182079   1.377  14.799   2.539
93394SOL    HW282080   1.234  14.819   2.584
93395SOL     OW82081  14.146   0.578   5.193
93395SOL    HW182082  14.154   0.489   5.159
93395SOL    HW282083  14.052   0.590   5.206
93396SOL     OW82084   2.264   5.602   7.442
93396SOL    HW182085   2.211   5.611   7.362
93396SOL    HW282086   2.348   5.569   7.412
93397SOL     OW82087   1.585   3.433   7.731
93397SOL    HW182088   1.603   3.451   7.823
93397SOL    HW282089   1.612   3.513   7.685
93398SOL     OW82090  12.210  11.106  11.607
93398SOL    HW182091  12.222  11.018  11.570
93398SOL    HW282092  12.200  11.091  11.701
93399SOL     OW82093  10.894  12.545   7.131
93399SOL    HW182094  10.852  12.470   7.174
93399SOL    HW282095  10.914  12.606   7.202
93400SOL     OW82096   1.153   1.439   7.431
93400SOL    HW182097   1.212   1.493   7.483
93400SOL    HW282098   1.123   1.371   7.491
93401SOL     OW82099   4.454  12.368  14.482
93401SOL    HW182100   4.487  12.399  14.397
93401SOL    HW282101   4.442  12.274  14.469
93402SOL     OW82102  12.643   9.128   9.542
93402SOL    HW182103  12.618   9.049   9.591
93402SOL    HW282104  12.568   9.145   9.485
93403SOL     OW82105   5.490   5.800  11.763
93403SOL    HW182106   5.547   5.874  11.782
93403SOL    HW282107   5.442   5.784  11.844
93404SOL     OW82108   8.710  12.124   9.609
93404SOL    HW182109   8.662  12.054   9.565
93404SOL    HW282110   8.642  12.174   9.655
93405SOL     OW82111  13.462  11.670   8.285
93405SOL    HW182112  13.497  11.598   8.232
93405SOL    HW282113  13.374  11.642   8.309
93406SOL     OW82114  14.083  10.387  12.272
93406SOL    HW182115  14.024  10.317  12.299
93406SOL    HW282116  14.140  10.347  12.207
93407SOL     OW82117  13.183  12.901   1.782
93407SOL    HW182118  13.177  12.817   1.738
93407SOL    HW282119  13.148  12.885   1.870
93408SOL     OW82120   9.590   1.121   3.956
93408SOL    HW182121   9.563   1.120   3.864
93408SOL    HW282122   9.665   1.179   3.959
93409SOL     OW82123   8.325  12.268   2.696
93409SOL    HW182124   8.365  12.335   2.751
93409SOL    HW282125   8.233  12.295   2.688
93410SOL     OW82126   6.330  12.721  13.390
93410SOL    HW182127   6.359  12.795  13.444
93410SOL    HW282128   6.411  12.685  13.354
93411SOL     OW82129   7.319  11.804  13.945
93411SOL    HW182130   7.247  11.865  13.958
93411SOL    HW282131   7.367  11.839  13.869
93412SOL     OW82132   5.507  10.080   5.542
93412SOL    HW182133   5.464  10.137   5.478
93412SOL    HW282134   5.527  10.001   5.493
93413SOL     OW82135  12.924   9.929  14.107
93413SOL    HW182136  12.879   9.845  14.097
93413SOL    HW282137  13.017   9.906  14.116
93414SOL     OW82138   6.906   0.150  11.134
93414SOL    HW182139   6.828   0.204  11.128
93414SOL    HW282140   6.874   0.063  11.156
93415SOL     OW82141   1.514   4.652   8.131
93415SOL    HW182142   1.424   4.681   8.114
93415SOL    HW282143   1.525   4.660   8.225
93416SOL     OW82144   5.378   5.492   1.043
93416SOL    HW182145   5.470   5.515   1.052
93416SOL    HW282146   5.371   5.406   1.085
93417SOL     OW82147   9.274   9.686  11.710
93417SOL    HW182148   9.340   9.677  11.640
93417SOL    HW282149   9.243   9.776  11.702
93418SOL     OW82150  10.276   1.520   4.735
93418SOL    HW182151  10.190   1.515   4.778
93418SOL    HW282152  10.261   1.485   4.647
93419SOL     OW82153   3.866   3.991  12.482
93419SOL    HW182154   3.781   3.953  12.461
93419SOL    HW282155   3.921   3.915  12.506
93420SOL     OW82156   6.550   3.917   9.436
93420SOL    HW182157   6.502   3.990   9.474
93420SOL    HW282158   6.490   3.880   9.371
93421SOL     OW82159   7.924   3.894   4.364
93421SOL    HW182160   7.839   3.855   4.384
93421SOL    HW282161   7.907   3.952   4.290
93422SOL     OW82162   3.231   8.969   3.001
93422SOL    HW182163   3.293   8.913   2.954
93422SOL    HW282164   3.232   9.051   2.952
93423SOL     OW82165   2.477   6.315   0.850
93423SOL    HW182166   2.477   6.294   0.944
93423SOL    HW282167   2.390   6.287   0.820
93424SOL     OW82168   1.691   1.144  14.338
93424SOL    HW182169   1.755   1.204  14.376
93424SOL    HW282170   1.704   1.062  14.384
93425SOL     OW82171  10.164   6.755  11.396
93425SOL    HW182172  10.072   6.781  11.392
93425SOL    HW282173  10.163   6.672  11.443
93426SOL     OW82174   2.861   4.594   9.966
93426SOL    HW182175   2.888   4.598  10.058
93426SOL    HW282176   2.767   4.577   9.969
93427SOL     OW82177   4.404  13.297   3.066
93427SOL    HW182178   4.373  13.382   3.097
93427SOL    HW282179   4.496  13.311   3.044
93428SOL     OW82180  14.854   6.479   4.566
93428SOL    HW182181  14.771   6.485   4.612
93428SOL    HW282182  14.878   6.570   4.549
93429SOL     OW82183   2.488   5.006  11.168
93429SOL    HW182184   2.550   4.951  11.216
93429SOL    HW282185   2.542   5.049  11.102
93430SOL     OW82186   9.808   0.200  13.729
93430SOL    HW182187   9.804   0.124  13.670
93430SOL    HW282188   9.725   0.245  13.715
93431SOL     OW82189   9.763   8.341  12.578
93431SOL    HW182190   9.707   8.279  12.625
93431SOL    HW282191   9.851   8.304  12.583
93432SOL     OW82192   8.467  14.546   9.383
93432SOL    HW182193   8.406  14.514   9.449
93432SOL    HW282194   8.419  14.615   9.337
93433SOL     OW82195   1.729   2.586  10.217
93433SOL    HW182196   1.715   2.559  10.126
93433SOL    HW282197   1.648   2.631  10.242
93434SOL     OW82198  13.634   7.977   5.393
93434SOL    HW182199  13.721   7.968   5.431
93434SOL    HW282200  13.644   8.043   5.324
93435SOL     OW82201  13.571  12.017  12.455
93435SOL    HW182202  13.563  12.024  12.550
93435SOL    HW282203  13.596  12.105  12.427
93436SOL     OW82204   3.486   7.788   5.417
93436SOL    HW182205   3.581   7.777   5.414
93436SOL    HW282206   3.473   7.882   5.429
93437SOL     OW82207  13.745  13.940   4.370
93437SOL    HW182208  13.767  13.940   4.463
93437SOL    HW282209  13.815  13.991   4.329
93438SOL     OW82210  13.066   3.502  13.237
93438SOL    HW182211  13.024   3.433  13.288
93438SOL    HW282212  13.159   3.497  13.261
93439SOL     OW82213   3.256   5.289   7.253
93439SOL    HW182214   3.284   5.304   7.162
93439SOL    HW282215   3.277   5.371   7.298
93440SOL     OW82216  13.978   4.727  10.927
93440SOL    HW182217  14.043   4.680  10.981
93440SOL    HW282218  14.024   4.744  10.845
93441SOL     OW82219  13.839  12.649   8.170
93441SOL    HW182220  13.916  12.672   8.222
93441SOL    HW282221  13.863  12.672   8.080
93442SOL     OW82222  13.679   6.931   8.343
93442SOL    HW182223  13.613   6.878   8.299
93442SOL    HW282224  13.653   6.931   8.435
93443SOL     OW82225   9.974   0.202   5.522
93443SOL    HW182226   9.934   0.223   5.438
93443SOL    HW282227  10.064   0.177   5.501
93444SOL     OW82228  10.334  12.472  13.571
93444SOL    HW182229  10.401  12.498  13.506
93444SOL    HW282230  10.304  12.555  13.608
93445SOL     OW82231   0.640   4.286   0.854
93445SOL    HW182232   0.672   4.375   0.868
93445SOL    HW282233   0.576   4.271   0.924
93446SOL     OW82234  12.746  11.159   9.833
93446SOL    HW182235  12.655  11.141   9.857
93446SOL    HW282236  12.741  11.195   9.744
93447SOL     OW82237   3.341   1.395  10.781
93447SOL    HW182238   3.264   1.398  10.838
93447SOL    HW282239   3.416   1.394  10.841
93448SOL     OW82240   6.814   1.076   4.085
93448SOL    HW182241   6.805   1.022   4.163
93448SOL    HW282242   6.908   1.077   4.067
93449SOL     OW82243   9.331  13.294  12.005
93449SOL    HW182244   9.400  13.356  12.027
93449SOL    HW282245   9.277  13.339  11.940
93450SOL     OW82246  14.629   9.742   7.244
93450SOL    HW182247  14.599   9.789   7.166
93450SOL    HW282248  14.666   9.810   7.301
93451SOL     OW82249   2.960   2.037   9.281
93451SOL    HW182250   2.958   2.010   9.372
93451SOL    HW282251   2.892   2.105   9.274
93452SOL     OW82252   2.756   6.015  12.966
93452SOL    HW182253   2.766   6.024  13.061
93452SOL    HW282254   2.744   6.105  12.935
93453SOL     OW82255   5.591   8.491   1.351
93453SOL    HW182256   5.528   8.557   1.324
93453SOL    HW282257   5.606   8.439   1.272
93454SOL     OW82258  10.691   3.525  13.748
93454SOL    HW182259  10.741   3.546  13.827
93454SOL    HW282260  10.600   3.520  13.777
93455SOL     OW82261   8.547  11.589   1.523
93455SOL    HW182262   8.468  11.567   1.475
93455SOL    HW282263   8.523  11.666   1.575
93456SOL     OW82264  10.561   8.190  14.421
93456SOL    HW182265  10.615   8.212  14.496
93456SOL    HW282266  10.472   8.212  14.447
93457SOL     OW82267   9.257   2.598  13.519
93457SOL    HW182268   9.260   2.508  13.551
93457SOL    HW282269   9.280   2.591  13.426
93458SOL     OW82270   2.583   7.556   6.402
93458SOL    HW182271   2.579   7.635   6.458
93458SOL    HW282272   2.674   7.527   6.409
93459SOL     OW82273   4.651  12.467  14.713
93459SOL    HW182274   4.575  12.456  14.656
93459SOL    HW282275   4.616  12.459  14.802
93460SOL     OW82276   1.680  13.380   3.552
93460SOL    HW182277   1.733  13.377   3.472
93460SOL    HW282278   1.666  13.474   3.568
93461SOL     OW82279  14.766  13.638  14.321
93461SOL    HW182280  14.825  13.564  14.310
93461SOL    HW282281  14.691  13.603  14.368
93462SOL     OW82282   5.801   5.134   7.935
93462SOL    HW182283   5.834   5.072   7.870
93462SOL    HW282284   5.714   5.157   7.904
93463SOL     OW82285  11.182  14.408  12.606
93463SOL    HW182286  11.096  14.384  12.640
93463SOL    HW282287  11.217  14.469  12.670
93464SOL     OW82288   0.327   6.703  11.822
93464SOL    HW182289   0.298   6.625  11.774
93464SOL    HW282290   0.402   6.672  11.873
93465SOL     OW82291   4.163  11.802   5.890
93465SOL    HW182292   4.116  11.862   5.833
93465SOL    HW282293   4.160  11.844   5.976
93466SOL     OW82294  13.016   4.460   7.539
93466SOL    HW182295  13.102   4.454   7.581
93466SOL    HW282296  13.002   4.373   7.500
93467SOL     OW82297   0.451  13.781  14.738
93467SOL    HW182298   0.423  13.867  14.706
93467SOL    HW282299   0.497  13.799  14.820
93468SOL     OW82300   9.501   2.910   2.128
93468SOL    HW182301   9.554   2.864   2.063
93468SOL    HW282302   9.411   2.892   2.103
93469SOL     OW82303  10.141   8.177  11.704
93469SOL    HW182304  10.178   8.255  11.747
93469SOL    HW282305  10.084   8.138  11.770
93470SOL     OW82306   4.078   6.812   1.104
93470SOL    HW182307   4.030   6.848   1.029
93470SOL    HW282308   4.111   6.727   1.073
93471SOL     OW82309  13.077  12.611   8.136
93471SOL    HW182310  13.055  12.685   8.080
93471SOL    HW282311  13.162  12.582   8.103
93472SOL     OW82312   9.997   2.099   7.155
93472SOL    HW182313   9.943   2.169   7.193
93472SOL    HW282314   9.942   2.062   7.087
93473SOL     OW82315   4.587   6.636   3.818
93473SOL    HW182316   4.636   6.714   3.844
93473SOL    HW282317   4.501   6.646   3.859
93474SOL     OW82318   3.289  12.249   9.648
93474SOL    HW182319   3.350  12.236   9.720
93474SOL    HW282320   3.344  12.253   9.570
93475SOL     OW82321  14.638   3.982   6.935
93475SOL    HW182322  14.733   3.991   6.939
93475SOL    HW282323  14.606   4.073   6.932
93476SOL     OW82324   6.333   5.689   1.228
93476SOL    HW182325   6.419   5.677   1.268
93476SOL    HW282326   6.274   5.633   1.279
93477SOL     OW82327   2.654   7.457   9.496
93477SOL    HW182328   2.749   7.447   9.490
93477SOL    HW282329   2.639   7.551   9.484
93478SOL     OW82330  10.970   2.386   2.044
93478SOL    HW182331  10.939   2.338   1.966
93478SOL    HW282332  10.890   2.410   2.090
93479SOL     OW82333   0.920   0.834  12.829
93479SOL    HW182334   1.002   0.800  12.792
93479SOL    HW282335   0.863   0.757  12.834
93480SOL     OW82336   7.857  14.620  11.521
93480SOL    HW182337   7.942  14.639  11.481
93480SOL    HW282338   7.833  14.702  11.565
93481SOL     OW82339   9.718   0.232   0.966
93481SOL    HW182340   9.660   0.163   0.999
93481SOL    HW282341   9.741   0.283   1.044
93482SOL     OW82342   7.679   0.942  13.001
93482SOL    HW182343   7.595   0.986  13.018
93482SOL    HW282344   7.709   0.913  13.087
93483SOL     OW82345  12.411   6.156  14.475
93483SOL    HW182346  12.494   6.197  14.499
93483SOL    HW282347  12.372   6.218  14.413
93484SOL     OW82348  12.407   1.995   3.371
93484SOL    HW182349  12.446   2.024   3.454
93484SOL    HW282350  12.338   1.934   3.397
93485SOL     OW82351   0.678  12.377   8.245
93485SOL    HW182352   0.666  12.342   8.333
93485SOL    HW282353   0.771  12.396   8.239
93486SOL     OW82354  10.652   7.256  14.484
93486SOL    HW182355  10.740   7.282  14.456
93486SOL    HW282356  10.608   7.229  14.404
93487SOL     OW82357   1.904   2.273  11.909
93487SOL    HW182358   1.959   2.323  11.848
93487SOL    HW282359   1.874   2.198  11.857
93488SOL     OW82360   7.657   2.769   0.263
93488SOL    HW182361   7.727   2.779   0.198
93488SOL    HW282362   7.634   2.677   0.259
93489SOL     OW82363   2.540   3.356   3.113
93489SOL    HW182364   2.551   3.415   3.188
93489SOL    HW282365   2.468   3.394   3.062
93490SOL     OW82366   1.298   9.400   9.927
93490SOL    HW182367   1.210   9.425   9.901
93490SOL    HW282368   1.297   9.404  10.023
93491SOL     OW82369   2.611  12.492   7.768
93491SOL    HW182370   2.626  12.397   7.770
93491SOL    HW282371   2.540  12.506   7.832
93492SOL     OW82372   2.958  10.926   3.247
93492SOL    HW182373   2.923  10.970   3.324
93492SOL    HW282374   3.035  10.878   3.279
93493SOL     OW82375   9.790   4.004   5.071
93493SOL    HW182376   9.730   4.070   5.104
93493SOL    HW282377   9.739   3.923   5.071
93494SOL     OW82378  10.252   1.926   8.123
93494SOL    HW182379  10.273   1.904   8.213
93494SOL    HW282380  10.248   2.022   8.122
93495SOL     OW82381   9.156   1.051  13.705
93495SOL    HW182382   9.098   0.995  13.756
93495SOL    HW282383   9.119   1.139  13.714
93496SOL     OW82384   1.802  12.386   8.900
93496SOL    HW182385   1.875  12.399   8.840
93496SOL    HW282386   1.759  12.306   8.869
93497SOL     OW82387   5.883   8.504  13.092
93497SOL    HW182388   5.959   8.454  13.064
93497SOL    HW282389   5.909   8.596  13.081
93498SOL     OW82390   9.366  10.072  11.226
93498SOL    HW182391   9.396   9.987  11.258
93498SOL    HW282392   9.411  10.084  11.143
93499SOL     OW82393   4.258   2.093   4.653
93499SOL    HW182394   4.267   2.160   4.585
93499SOL    HW282395   4.235   2.013   4.605
93500SOL     OW82396   0.388   0.688   2.144
93500SOL    HW182397   0.447   0.624   2.104
93500SOL    HW282398   0.426   0.773   2.123
93501SOL     OW82399  10.864  13.173   8.663
93501SOL    HW182400  10.819  13.234   8.604
93501SOL    HW282401  10.802  13.102   8.677
93502SOL     OW82402   6.958   1.964   2.832
93502SOL    HW182403   7.035   1.907   2.833
93502SOL    HW282404   6.897   1.921   2.771
93503SOL     OW82405   8.521   9.468   2.607
93503SOL    HW182406   8.479   9.414   2.674
93503SOL    HW282407   8.543   9.549   2.652
93504SOL     OW82408   6.003   8.477   8.407
93504SOL    HW182409   5.984   8.396   8.360
93504SOL    HW282410   5.984   8.547   8.344
93505SOL     OW82411   9.064   6.108   8.199
93505SOL    HW182412   9.007   6.034   8.222
93505SOL    HW282413   9.144   6.068   8.165
93506SOL     OW82414   1.336  14.280   6.447
93506SOL    HW182415   1.333  14.357   6.503
93506SOL    HW282416   1.246  14.246   6.448
93507SOL     OW82417   8.108   8.558  12.078
93507SOL    HW182418   8.139   8.481  12.125
93507SOL    HW282419   8.060   8.523  12.003
93508SOL     OW82420   0.441   0.787   7.019
93508SOL    HW182421   0.442   0.879   6.994
93508SOL    HW282422   0.524   0.774   7.065
93509SOL     OW82423  13.028  11.341   4.142
93509SOL    HW182424  13.006  11.310   4.054
93509SOL    HW282425  13.116  11.308   4.158
93510SOL     OW82426  13.077   2.148   9.522
93510SOL    HW182427  13.172   2.157   9.531
93510SOL    HW282428  13.056   2.197   9.443
93511SOL     OW82429   1.932   3.579  13.650
93511SOL    HW182430   1.860   3.618  13.699
93511SOL    HW282431   1.998   3.560  13.716
93512SOL     OW82432   2.131   3.115   8.865
93512SOL    HW182433   2.217   3.155   8.852
93512SOL    HW282434   2.107   3.140   8.955
93513SOL     OW82435  12.521  13.513   8.728
93513SOL    HW182436  12.573  13.488   8.805
93513SOL    HW282437  12.511  13.432   8.678
93514SOL     OW82438   3.832  12.604   4.439
93514SOL    HW182439   3.898  12.535   4.428
93514SOL    HW282440   3.751  12.556   4.458
93515SOL     OW82441   6.656   8.403   0.251
93515SOL    HW182442   6.594   8.476   0.249
93515SOL    HW282443   6.742   8.446   0.255
93516SOL     OW82444  13.725  13.057  12.310
93516SOL    HW182445  13.674  12.985  12.273
93516SOL    HW282446  13.659  13.116  12.347
93517SOL     OW82447   2.057  13.387   5.540
93517SOL    HW182448   2.071  13.425   5.453
93517SOL    HW282449   2.028  13.461   5.594
93518SOL     OW82450   8.202  11.451   6.034
93518SOL    HW182451   8.243  11.365   6.046
93518SOL    HW282452   8.275  11.510   6.015
93519SOL     OW82453   4.841   6.509   0.272
93519SOL    HW182454   4.791   6.520   0.191
93519SOL    HW282455   4.931   6.535   0.249
93520SOL     OW82456  13.270  11.586  12.222
93520SOL    HW182457  13.339  11.532  12.264
93520SOL    HW282458  13.309  11.673  12.216
93521SOL     OW82459   0.743   9.959   0.719
93521SOL    HW182460   0.741   9.999   0.806
93521SOL    HW282461   0.653   9.931   0.703
93522SOL     OW82462   7.645  12.042  11.820
93522SOL    HW182463   7.551  12.031  11.830
93522SOL    HW282464   7.683  11.961  11.855
93523SOL     OW82465   4.804   1.734  13.634
93523SOL    HW182466   4.819   1.786  13.556
93523SOL    HW282467   4.878   1.673  13.638
93524SOL     OW82468  10.261   6.730  12.836
93524SOL    HW182469  10.291   6.820  12.823
93524SOL    HW282470  10.318   6.677  12.780
93525SOL     OW82471   4.040   9.786   0.526
93525SOL    HW182472   4.109   9.741   0.477
93525SOL    HW282473   4.035   9.872   0.486
93526SOL     OW82474   3.952  14.610   7.536
93526SOL    HW182475   3.934  14.638   7.626
93526SOL    HW282476   3.905  14.673   7.481
93527SOL     OW82477   6.610   5.180  14.499
93527SOL    HW182478   6.603   5.236  14.422
93527SOL    HW282479   6.587   5.237  14.572
93528SOL     OW82480  12.055   5.062   4.822
93528SOL    HW182481  12.118   5.082   4.752
93528SOL    HW282482  12.045   4.967   4.819
93529SOL     OW82483   7.612   0.452   8.910
93529SOL    HW182484   7.526   0.409   8.918
93529SOL    HW282485   7.594   0.533   8.862
93530SOL     OW82486  13.948   4.676   5.578
93530SOL    HW182487  13.976   4.658   5.489
93530SOL    HW282488  13.996   4.612   5.632
93531SOL     OW82489  13.470   8.706   7.316
93531SOL    HW182490  13.462   8.688   7.222
93531SOL    HW282491  13.501   8.623   7.353
93532SOL     OW82492   6.119  10.246   4.326
93532SOL    HW182493   6.176  10.292   4.264
93532SOL    HW282494   6.045  10.305   4.338
93533SOL     OW82495  10.718   6.361   3.657
93533SOL    HW182496  10.672   6.292   3.609
93533SOL    HW282497  10.653   6.431   3.666
93534SOL     OW82498   2.555   3.083   4.207
93534SOL    HW182499   2.634   3.030   4.197
93534SOL    HW282500   2.583   3.172   4.186
93535SOL     OW82501   1.979  11.057  12.922
93535SOL    HW182502   2.058  11.073  12.974
93535SOL    HW282503   1.923  11.004  12.978
93536SOL     OW82504  12.551   1.124   2.216
93536SOL    HW182505  12.603   1.119   2.297
93536SOL    HW282506  12.474   1.175   2.241
93537SOL     OW82507  12.500   1.191  13.977
93537SOL    HW182508  12.422   1.169  14.027
93537SOL    HW282509  12.572   1.152  14.025
93538SOL     OW82510   9.004  13.882   6.431
93538SOL    HW182511   9.026  13.958   6.485
93538SOL    HW282512   9.032  13.906   6.343
93539SOL     OW82513   0.205   6.809   8.022
93539SOL    HW182514   0.128   6.769   7.980
93539SOL    HW282515   0.211   6.896   7.983
93540SOL     OW82516   2.792   5.535   6.739
93540SOL    HW182517   2.766   5.473   6.670
93540SOL    HW282518   2.715   5.540   6.796
93541SOL     OW82519   3.341  11.974   3.432
93541SOL    HW182520   3.375  12.015   3.511
93541SOL    HW282521   3.344  11.880   3.451
93542SOL     OW82522   5.945   1.782   7.991
93542SOL    HW182523   6.006   1.758   7.920
93542SOL    HW282524   5.872   1.722   7.981
93543SOL     OW82525  10.939   4.520  13.972
93543SOL    HW182526  10.891   4.562  14.044
93543SOL    HW282527  10.883   4.447  13.945
93544SOL     OW82528  13.668  12.673   9.756
93544SOL    HW182529  13.681  12.586   9.720
93544SOL    HW282530  13.636  12.657   9.845
93545SOL     OW82531   0.665   2.366   8.898
93545SOL    HW182532   0.719   2.405   8.830
93545SOL    HW282533   0.583   2.416   8.896
93546SOL     OW82534   2.003   9.182  14.141
93546SOL    HW182535   2.024   9.187  14.048
93546SOL    HW282536   2.048   9.257  14.181
93547SOL     OW82537   9.550   4.768   8.071
93547SOL    HW182538   9.553   4.686   8.122
93547SOL    HW282539   9.603   4.829   8.123
93548SOL     OW82540  11.231   9.998  14.768
93548SOL    HW182541  11.235  10.091  14.790
93548SOL    HW282542  11.217   9.954  14.852
93549SOL     OW82543   6.967  12.580   1.111
93549SOL    HW182544   6.992  12.629   1.189
93549SOL    HW282545   6.996  12.634   1.038
93550SOL     OW82546   9.536   8.391  12.362
93550SOL    HW182547   9.552   8.372  12.270
93550SOL    HW282548   9.603   8.341  12.409
93551SOL     OW82549   7.871   2.389   7.647
93551SOL    HW182550   7.809   2.318   7.636
93551SOL    HW282551   7.830   2.464   7.603
93552SOL     OW82552  14.169  10.469   9.472
93552SOL    HW182553  14.265  10.471   9.475
93552SOL    HW282554  14.146  10.529   9.401
93553SOL     OW82555  13.791  10.753  10.595
93553SOL    HW182556  13.747  10.837  10.580
93553SOL    HW282557  13.751  10.719  10.675
93554SOL     OW82558   4.708   2.607  12.628
93554SOL    HW182559   4.669   2.686  12.591
93554SOL    HW282560   4.671   2.600  12.716
93555SOL     OW82561   2.045   4.286   0.898
93555SOL    HW182562   2.039   4.381   0.912
93555SOL    HW282563   2.057   4.276   0.803
93556SOL     OW82564   4.655   2.778   2.540
93556SOL    HW182565   4.676   2.722   2.466
93556SOL    HW282566   4.729   2.769   2.599
93557SOL     OW82567   3.992   0.174   7.780
93557SOL    HW182568   4.078   0.132   7.778
93557SOL    HW282569   4.003   0.254   7.729
93558SOL     OW82570   9.831   0.581   7.224
93558SOL    HW182571   9.770   0.579   7.150
93558SOL    HW282572   9.904   0.635   7.193
93559SOL     OW82573   6.471  12.816   0.501
93559SOL    HW182574   6.526  12.886   0.537
93559SOL    HW282575   6.533  12.745   0.482
93560SOL     OW82576   2.303  10.355  11.416
93560SOL    HW182577   2.369  10.398  11.362
93560SOL    HW282578   2.220  10.390  11.384
93561SOL     OW82579   0.318   9.016   5.361
93561SOL    HW182580   0.357   8.940   5.319
93561SOL    HW282581   0.224   9.000   5.357
93562SOL     OW82582   6.355   6.936   5.589
93562SOL    HW182583   6.293   6.889   5.644
93562SOL    HW282584   6.314   7.021   5.573
93563SOL     OW82585   7.889  10.375   9.417
93563SOL    HW182586   7.923  10.321   9.345
93563SOL    HW282587   7.965  10.391   9.473
93564SOL     OW82588   1.018  12.424   7.889
93564SOL    HW182589   0.931  12.398   7.859
93564SOL    HW282590   1.072  12.346   7.877
93565SOL     OW82591   8.773   1.091  13.361
93565SOL    HW182592   8.839   1.043  13.311
93565SOL    HW282593   8.694   1.088  13.305
93566SOL     OW82594   4.787  12.112  10.863
93566SOL    HW182595   4.692  12.106  10.875
93566SOL    HW282596   4.801  12.084  10.772
93567SOL     OW82597   6.406  11.707   9.339
93567SOL    HW182598   6.330  11.764   9.347
93567SOL    HW282599   6.444  11.730   9.254
93568SOL     OW82600   0.902   4.691  10.344
93568SOL    HW182601   0.847   4.754  10.391
93568SOL    HW282602   0.990   4.703  10.382
93569SOL     OW82603   0.203  11.363   0.208
93569SOL    HW182604   0.248  11.404   0.134
93569SOL    HW282605   0.255  11.387   0.285
93570SOL     OW82606  11.256   5.212   8.571
93570SOL    HW182607  11.229   5.124   8.545
93570SOL    HW282608  11.327   5.233   8.510
93571SOL     OW82609  13.437   9.696   0.750
93571SOL    HW182610  13.470   9.745   0.675
93571SOL    HW282611  13.494   9.721   0.823
93572SOL     OW82612   1.840   9.139   7.483
93572SOL    HW182613   1.901   9.197   7.438
93572SOL    HW282614   1.763   9.136   7.425
93573SOL     OW82615   2.010   2.774   7.150
93573SOL    HW182616   2.006   2.742   7.240
93573SOL    HW282617   2.089   2.735   7.114
93574SOL     OW82618  12.220  11.020   8.220
93574SOL    HW182619  12.278  10.947   8.196
93574SOL    HW282620  12.204  11.066   8.137
93575SOL     OW82621  12.435   4.285   0.049
93575SOL    HW182622  12.401   4.205   0.008
93575SOL    HW282623  12.516   4.257   0.092
93576SOL     OW82624   1.176   8.971  14.757
93576SOL    HW182625   1.141   9.039  14.816
93576SOL    HW282626   1.122   8.978  14.678
93577SOL     OW82627   4.958  13.312   8.167
93577SOL    HW182628   4.891  13.350   8.110
93577SOL    HW282629   4.919  13.230   8.199
93578SOL     OW82630   9.291   3.667   3.849
93578SOL    HW182631   9.366   3.666   3.908
93578SOL    HW282632   9.265   3.759   3.845
93579SOL     OW82633  11.023  11.536   5.759
93579SOL    HW182634  10.952  11.476   5.739
93579SOL    HW282635  11.103  11.485   5.749
93580SOL     OW82636   3.824  11.822   6.526
93580SOL    HW182637   3.811  11.768   6.448
93580SOL    HW282638   3.740  11.865   6.540
93581SOL     OW82639   0.627   2.215   8.629
93581SOL    HW182640   0.598   2.174   8.711
93581SOL    HW282641   0.599   2.154   8.560
93582SOL     OW82642   8.475   0.505   5.746
93582SOL    HW182643   8.543   0.552   5.794
93582SOL    HW282644   8.520   0.429   5.709
93583SOL     OW82645  13.465  11.019   0.231
93583SOL    HW182646  13.464  11.004   0.325
93583SOL    HW282647  13.498  10.937   0.194
93584SOL     OW82648   4.669   8.753  10.467
93584SOL    HW182649   4.608   8.826  10.476
93584SOL    HW282650   4.754   8.795  10.452
93585SOL     OW82651  14.532   4.660   2.280
93585SOL    HW182652  14.624   4.658   2.256
93585SOL    HW282653  14.521   4.741   2.330
93586SOL     OW82654  11.694   4.304  14.695
93586SOL    HW182655  11.763   4.292  14.630
93586SOL    HW282656  11.646   4.382  14.665
93587SOL     OW82657   7.151   0.237   6.341
93587SOL    HW182658   7.183   0.280   6.262
93587SOL    HW282659   7.136   0.308   6.403
93588SOL     OW82660   9.434   0.169   9.892
93588SOL    HW182661   9.479   0.231   9.835
93588SOL    HW282662   9.429   0.088   9.841
93589SOL     OW82663   1.142  13.070   8.469
93589SOL    HW182664   1.205  13.096   8.536
93589SOL    HW282665   1.103  12.989   8.502
93590SOL     OW82666   5.897  12.545   7.778
93590SOL    HW182667   5.809  12.569   7.809
93590SOL    HW282668   5.955  12.611   7.816
93591SOL     OW82669  10.332   7.043   0.490
93591SOL    HW182670  10.247   7.086   0.500
93591SOL    HW282671  10.372   7.086   0.413
93592SOL     OW82672   4.485  13.711   8.194
93592SOL    HW182673   4.464  13.798   8.162
93592SOL    HW282674   4.562  13.685   8.144
93593SOL     OW82675  10.510  13.978   3.773
93593SOL    HW182676  10.539  14.019   3.692
93593SOL    HW282677  10.477  14.050   3.827
93594SOL     OW82678   5.706  10.902   6.501
93594SOL    HW182679   5.735  10.834   6.562
93594SOL    HW282680   5.701  10.981   6.554
93595SOL     OW82681  12.570   3.608   6.384
93595SOL    HW182682  12.644   3.555   6.352
93595SOL    HW282683  12.544   3.660   6.309
93596SOL     OW82684  11.567   8.874   2.210
93596SOL    HW182685  11.503   8.832   2.267
93596SOL    HW282686  11.529   8.870   2.122
93597SOL     OW82687  14.028  12.329   3.862
93597SOL    HW182688  13.994  12.415   3.836
93597SOL    HW282689  14.002  12.271   3.791
93598SOL     OW82690   2.251   9.253  10.360
93598SOL    HW182691   2.283   9.268  10.449
93598SOL    HW282692   2.254   9.338  10.318
93599SOL     OW82693   4.090   0.601   6.047
93599SOL    HW182694   4.135   0.528   6.004
93599SOL    HW282695   4.138   0.679   6.017
93600SOL     OW82696   7.376   7.772   7.781
93600SOL    HW182697   7.323   7.781   7.860
93600SOL    HW282698   7.345   7.841   7.722
93601SOL     OW82699  13.890   5.986   8.249
93601SOL    HW182700  13.877   5.904   8.202
93601SOL    HW282701  13.945   5.963   8.324
93602SOL     OW82702   2.797  13.028   8.479
93602SOL    HW182703   2.733  12.988   8.538
93602SOL    HW282704   2.839  12.955   8.434
93603SOL     OW82705   8.542   9.754   4.931
93603SOL    HW182706   8.478   9.799   4.986
93603SOL    HW282707   8.609   9.723   4.993
93604SOL     OW82708   9.405   7.027   3.050
93604SOL    HW182709   9.349   7.084   2.997
93604SOL    HW282710   9.494   7.044   3.018
93605SOL     OW82711   5.218  10.712  11.223
93605SOL    HW182712   5.285  10.780  11.220
93605SOL    HW282713   5.135  10.760  11.229
93606SOL     OW82714   2.132  10.536   5.351
93606SOL    HW182715   2.182  10.544   5.269
93606SOL    HW282716   2.109  10.626   5.373
93607SOL     OW82717  14.782   9.837  13.625
93607SOL    HW182718  14.787   9.872  13.536
93607SOL    HW282719  14.702   9.876  13.662
93608SOL     OW82720  11.749   1.588  12.176
93608SOL    HW182721  11.833   1.621  12.144
93608SOL    HW282722  11.699   1.567  12.098
93609SOL     OW82723  12.018  12.526   8.852
93609SOL    HW182724  12.083  12.468   8.891
93609SOL    HW282725  11.940  12.473   8.843
93610SOL     OW82726   4.106  12.254  13.872
93610SOL    HW182727   4.131  12.178  13.924
93610SOL    HW282728   4.018  12.235  13.842
93611SOL     OW82729   0.408   4.763   0.989
93611SOL    HW182730   0.382   4.784   1.079
93611SOL    HW282731   0.371   4.834   0.936
93612SOL     OW82732   5.551   9.779   5.641
93612SOL    HW182733   5.551   9.777   5.546
93612SOL    HW282734   5.462   9.753   5.666
93613SOL     OW82735  11.149   2.997   2.536
93613SOL    HW182736  11.146   3.091   2.517
93613SOL    HW282737  11.075   2.961   2.488
93614SOL     OW82738   8.138   9.225   1.398
93614SOL    HW182739   8.182   9.267   1.472
93614SOL    HW282740   8.184   9.141   1.388
93615SOL     OW82741   7.503   6.028  11.308
93615SOL    HW182742   7.475   6.050  11.219
93615SOL    HW282743   7.463   5.943  11.325
93616SOL     OW82744   3.479   6.088  10.391
93616SOL    HW182745   3.461   6.156  10.326
93616SOL    HW282746   3.399   6.084  10.444
93617SOL     OW82747   9.188   5.771  10.891
93617SOL    HW182748   9.247   5.842  10.865
93617SOL    HW282749   9.228   5.692  10.857
93618SOL     OW82750   6.069   5.950  11.683
93618SOL    HW182751   6.102   5.894  11.613
93618SOL    HW282752   6.124   5.928  11.758
93619SOL     OW82753   7.889   3.096  13.083
93619SOL    HW182754   7.818   3.042  13.117
93619SOL    HW282755   7.844   3.167  13.037
93620SOL     OW82756   9.448   2.165   6.938
93620SOL    HW182757   9.470   2.073   6.957
93620SOL    HW282758   9.498   2.215   7.003
93621SOL     OW82759  12.300   0.448   0.254
93621SOL    HW182760  12.346   0.524   0.220
93621SOL    HW282761  12.260   0.479   0.335
93622SOL     OW82762   8.711   0.218   3.857
93622SOL    HW182763   8.747   0.300   3.890
93622SOL    HW282764   8.619   0.237   3.841
93623SOL     OW82765  14.462   0.237  10.917
93623SOL    HW182766  14.424   0.175  10.855
93623SOL    HW282767  14.413   0.223  10.998
93624SOL     OW82768   6.318   8.128   3.441
93624SOL    HW182769   6.395   8.172   3.405
93624SOL    HW282770   6.263   8.199   3.474
93625SOL     OW82771   5.375   6.285   4.852
93625SOL    HW182772   5.303   6.322   4.801
93625SOL    HW282773   5.437   6.358   4.861
93626SOL     OW82774   8.163  13.499   1.579
93626SOL    HW182775   8.235  13.476   1.639
93626SOL    HW282776   8.094  13.436   1.599
93627SOL     OW82777   5.602   0.362   1.020
93627SOL    HW182778   5.519   0.395   1.057
93627SOL    HW282779   5.627   0.291   1.078
93628SOL     OW82780   5.693  14.149  13.311
93628SOL    HW182781   5.718  14.058  13.326
93628SOL    HW282782   5.701  14.190  13.398
93629SOL     OW82783   5.406   7.403   2.652
93629SOL    HW182784   5.331   7.447   2.611
93629SOL    HW282785   5.381   7.311   2.654
93630SOL     OW82786  13.255   4.777   6.958
93630SOL    HW182787  13.161   4.755   6.953
93630SOL    HW282788  13.289   4.718   7.026
93631SOL     OW82789   8.349  11.721   2.188
93631SOL    HW182790   8.439  11.736   2.217
93631SOL    HW282791   8.352  11.736   2.093
93632SOL     OW82792   5.040  10.772  12.529
93632SOL    HW182793   4.951  10.791  12.558
93632SOL    HW282794   5.031  10.693  12.475
93633SOL     OW82795  11.430  10.615   8.190
93633SOL    HW182796  11.522  10.632   8.211
93633SOL    HW282797  11.388  10.602   8.275
93634SOL     OW82798   0.038  10.279   1.409
93634SOL    HW182799   0.019  10.204   1.465
93634SOL    HW282800   0.095  10.335   1.461
93635SOL     OW82801   2.126  12.505   2.307
93635SOL    HW182802   2.210  12.539   2.337
93635SOL    HW282803   2.071  12.503   2.385
93636SOL     OW82804  14.445   0.555   7.596
93636SOL    HW182805  14.464   0.648   7.582
93636SOL    HW282806  14.381   0.553   7.667
93637SOL     OW82807   1.804  11.807   2.869
93637SOL    HW182808   1.852  11.883   2.903
93637SOL    HW282809   1.745  11.844   2.802
93638SOL     OW82810   4.964   5.865  13.427
93638SOL    HW182811   4.970   5.887  13.520
93638SOL    HW282812   4.872   5.878  13.405
93639SOL     OW82813   0.898   9.243   5.531
93639SOL    HW182814   0.894   9.258   5.436
93639SOL    HW282815   0.976   9.292   5.559
93640SOL     OW82816   7.868   4.486  14.621
93640SOL    HW182817   7.819   4.568  14.622
93640SOL    HW282818   7.956   4.511  14.649
93641SOL     OW82819   1.063   1.326   9.673
93641SOL    HW182820   1.056   1.395   9.607
93641SOL    HW282821   1.065   1.373   9.757
93642SOL     OW82822  12.070   6.021   6.111
93642SOL    HW182823  12.000   6.082   6.089
93642SOL    HW282824  12.141   6.043   6.051
93643SOL     OW82825  11.049   3.164   3.785
93643SOL    HW182826  11.100   3.213   3.850
93643SOL    HW282827  11.104   3.088   3.765
93644SOL     OW82828   8.490   4.669   3.311
93644SOL    HW182829   8.464   4.615   3.237
93644SOL    HW282830   8.476   4.759   3.282
93645SOL     OW82831   7.014   2.262   7.065
93645SOL    HW182832   6.936   2.220   7.028
93645SOL    HW282833   7.004   2.251   7.159
93646SOL     OW82834   2.455   9.630  10.521
93646SOL    HW182835   2.505   9.582  10.455
93646SOL    HW282836   2.467   9.722  10.499
93647SOL     OW82837   3.863   0.984   4.223
93647SOL    HW182838   3.912   1.066   4.221
93647SOL    HW282839   3.928   0.916   4.208
93648SOL     OW82840   6.709  14.787  11.445
93648SOL    HW182841   6.649  14.726  11.488
93648SOL    HW282842   6.728  14.747  11.360
93649SOL     OW82843  13.565   5.779   0.737
93649SOL    HW182844  13.504   5.757   0.807
93649SOL    HW282845  13.564   5.874   0.734
93650SOL     OW82846  13.272   8.614   1.591
93650SOL    HW182847  13.249   8.525   1.619
93650SOL    HW282848  13.236   8.621   1.503
93651SOL     OW82849  10.722  10.254   5.338
93651SOL    HW182850  10.640  10.267   5.291
93651SOL    HW282851  10.746  10.163   5.322
93652SOL     OW82852   5.251   4.540   2.038
93652SOL    HW182853   5.200   4.533   1.958
93652SOL    HW282854   5.328   4.486   2.023
93653SOL     OW82855  14.101  13.270   2.445
93653SOL    HW182856  14.024  13.247   2.497
93653SOL    HW282857  14.133  13.187   2.410
93654SOL     OW82858  13.426   0.526  12.640
93654SOL    HW182859  13.360   0.484  12.696
93654SOL    HW282860  13.411   0.487  12.554
93655SOL     OW82861   8.275   3.393   9.143
93655SOL    HW182862   8.182   3.379   9.161
93655SOL    HW282863   8.280   3.483   9.110
93656SOL     OW82864  14.413   9.079  11.051
93656SOL    HW182865  14.501   9.094  11.018
93656SOL    HW282866  14.380   9.167  11.072
93657SOL     OW82867  11.162  11.934  11.302
93657SOL    HW182868  11.100  11.894  11.363
93657SOL    HW282869  11.195  11.860  11.251
93658SOL     OW82870   0.589  13.571  14.382
93658SOL    HW182871   0.540  13.502  14.425
93658SOL    HW282872   0.535  13.598  14.308
93659SOL     OW82873  11.957   0.254  13.768
93659SOL    HW182874  11.957   0.200  13.689
93659SOL    HW282875  11.916   0.336  13.741
93660SOL     OW82876   0.779   7.307  10.977
93660SOL    HW182877   0.832   7.273  10.905
93660SOL    HW282878   0.702   7.344  10.934
93661SOL     OW82879   3.471  10.386   2.245
93661SOL    HW182880   3.538  10.321   2.223
93661SOL    HW282881   3.420  10.397   2.165
93662SOL     OW82882   0.640   5.024   5.021
93662SOL    HW182883   0.593   5.066   4.949
93662SOL    HW282884   0.576   4.965   5.060
93663SOL     OW82885   1.544   4.573   4.726
93663SOL    HW182886   1.507   4.661   4.720
93663SOL    HW282887   1.526   4.534   4.640
93664SOL     OW82888   8.778   6.657   9.741
93664SOL    HW182889   8.711   6.615   9.796
93664SOL    HW282890   8.731   6.686   9.663
93665SOL     OW82891  11.211   4.374   9.795
93665SOL    HW182892  11.160   4.334   9.725
93665SOL    HW282893  11.167   4.457   9.813
93666SOL     OW82894  10.780   4.724   8.900
93666SOL    HW182895  10.848   4.743   8.964
93666SOL    HW282896  10.705   4.697   8.952
93667SOL     OW82897   2.175   9.211   6.900
93667SOL    HW182898   2.168   9.290   6.954
93667SOL    HW282899   2.085   9.180   6.891
93668SOL     OW82900  13.124  12.749  14.706
93668SOL    HW182901  13.055  12.815  14.700
93668SOL    HW282902  13.131  12.714  14.618
93669SOL     OW82903   3.752   8.673  10.934
93669SOL    HW182904   3.759   8.612  11.007
93669SOL    HW282905   3.748   8.618  10.856
93670SOL     OW82906   3.161  13.255  13.299
93670SOL    HW182907   3.074  13.285  13.325
93670SOL    HW282908   3.171  13.170  13.342
93671SOL     OW82909   6.948   0.307   5.826
93671SOL    HW182910   6.854   0.293   5.824
93671SOL    HW282911   6.986   0.219   5.830
93672SOL     OW82912   2.017   1.654   1.410
93672SOL    HW182913   1.982   1.595   1.477
93672SOL    HW282914   2.003   1.742   1.446
93673SOL     OW82915   1.854   8.876   5.746
93673SOL    HW182916   1.779   8.820   5.766
93673SOL    HW282917   1.846   8.948   5.809
93674SOL     OW82918  13.182   2.499  10.353
93674SOL    HW182919  13.261   2.453  10.323
93674SOL    HW282920  13.205   2.592  10.349
93675SOL     OW82921   6.941   4.739  13.376
93675SOL    HW182922   6.887   4.804  13.330
93675SOL    HW282923   6.879   4.672  13.404
93676SOL     OW82924   7.032  13.902   0.011
93676SOL    HW182925   6.969  13.950   0.063
93676SOL    HW282926   7.050  13.959  14.818
93677SOL     OW82927  10.412  11.508   4.575
93677SOL    HW182928  10.503  11.488   4.599
93677SOL    HW282929  10.399  11.466   4.490
93678SOL     OW82930   6.355   2.613   0.339
93678SOL    HW182931   6.350   2.567   0.255
93678SOL    HW282932   6.448   2.613   0.361
93679SOL     OW82933   7.459   3.993   2.421
93679SOL    HW182934   7.546   4.018   2.389
93679SOL    HW282935   7.443   3.908   2.381
93680SOL     OW82936  14.389   1.244   3.833
93680SOL    HW182937  14.351   1.243   3.745
93680SOL    HW282938  14.442   1.164   3.837
93681SOL     OW82939  10.864   9.517   0.329
93681SOL    HW182940  10.843   9.510   0.236
93681SOL    HW282941  10.960   9.524   0.331
93682SOL     OW82942   8.970  14.659   1.089
93682SOL    HW182943   8.977  14.734   1.031
93682SOL    HW282944   8.877  14.634   1.085
93683SOL     OW82945  14.452  12.130   2.505
93683SOL    HW182946  14.454  12.090   2.418
93683SOL    HW282947  14.510  12.075   2.558
93684SOL     OW82948  11.681  10.633   0.270
93684SOL    HW182949  11.627  10.695   0.319
93684SOL    HW282950  11.669  10.658   0.178
93685SOL     OW82951  12.589   6.253   5.571
93685SOL    HW182952  12.560   6.268   5.661
93685SOL    HW282953  12.523   6.194   5.534
93686SOL     OW82954   9.444   2.037   1.499
93686SOL    HW182955   9.391   1.959   1.513
93686SOL    HW282956   9.396   2.087   1.433
93687SOL     OW82957  10.403  13.506   2.285
93687SOL    HW182958  10.319  13.519   2.327
93687SOL    HW282959  10.465  13.556   2.338
93688SOL     OW82960   8.844  11.784   0.201
93688SOL    HW182961   8.801  11.716   0.253
93688SOL    HW282962   8.843  11.862   0.256
93689SOL     OW82963   3.830   7.993  12.792
93689SOL    HW182964   3.885   8.060  12.832
93689SOL    HW282965   3.743   8.032  12.789
93690SOL     OW82966   2.653   6.039  11.984
93690SOL    HW182967   2.654   6.099  11.910
93690SOL    HW282968   2.568   6.054  12.026
93691SOL     OW82969   1.521   0.354  12.980
93691SOL    HW182970   1.594   0.297  13.003
93691SOL    HW282971   1.526   0.426  13.043
93692SOL     OW82972   3.593  13.411  14.792
93692SOL    HW182973   3.562  13.323  14.768
93692SOL    HW282974   3.531  13.441  14.858
93693SOL     OW82975   7.026  13.001   4.184
93693SOL    HW182976   6.983  12.976   4.266
93693SOL    HW282977   7.098  13.058   4.211
93694SOL     OW82978   3.076   8.133  11.999
93694SOL    HW182979   3.114   8.087  11.925
93694SOL    HW282980   3.138   8.119  12.071
93695SOL     OW82981  12.171   4.233  11.679
93695SOL    HW182982  12.256   4.228  11.637
93695SOL    HW282983  12.175   4.311  11.734
93696SOL     OW82984   6.576   5.057  13.154
93696SOL    HW182985   6.612   5.146  13.151
93696SOL    HW282986   6.511   5.055  13.084
93697SOL     OW82987  13.007   3.847  12.904
93697SOL    HW182988  13.010   3.780  12.972
93697SOL    HW282989  13.090   3.837  12.857
93698SOL     OW82990   7.566   5.043  13.473
93698SOL    HW182991   7.490   5.061  13.529
93698SOL    HW282992   7.529   5.038  13.384
93699SOL     OW82993   9.986   3.904   2.219
93699SOL    HW182994   9.955   3.819   2.187
93699SOL    HW282995  10.058   3.926   2.159
93700SOL     OW82996   5.615  10.544   0.892
93700SOL    HW182997   5.553  10.537   0.820
93700SOL    HW282998   5.682  10.479   0.873
93701SOL     OW82999  10.686   3.335  13.217
93701SOL    HW183000  10.684   3.251  13.171
93701SOL    HW283001  10.704   3.312  13.308
93702SOL     OW83002  10.489   8.563  14.165
93702SOL    HW183003  10.509   8.644  14.212
93702SOL    HW283004  10.564   8.507  14.180
93703SOL     OW83005  14.148   2.716  10.116
93703SOL    HW183006  14.205   2.644  10.091
93703SOL    HW283007  14.059   2.683  10.099
93704SOL     OW83008  14.098   4.596   8.442
93704SOL    HW183009  14.169   4.646   8.401
93704SOL    HW283010  14.039   4.663   8.478
93705SOL     OW83011   3.631   3.587   6.594
93705SOL    HW183012   3.631   3.553   6.505
93705SOL    HW283013   3.692   3.530   6.641
93706SOL     OW83014  11.245   4.233   5.435
93706SOL    HW183015  11.284   4.320   5.432
93706SOL    HW283016  11.257   4.198   5.347
93707SOL     OW83017   6.128  12.698   4.180
93707SOL    HW183018   6.076  12.681   4.258
93707SOL    HW283019   6.079  12.764   4.132
93708SOL     OW83020  11.397  13.552  11.600
93708SOL    HW183021  11.382  13.514  11.513
93708SOL    HW283022  11.364  13.485  11.661
93709SOL     OW83023   5.030  13.751   5.466
93709SOL    HW183024   4.986  13.772   5.383
93709SOL    HW283025   5.111  13.708   5.440
93710SOL     OW83026   9.758   8.042   9.023
93710SOL    HW183027   9.730   7.957   9.058
93710SOL    HW283028   9.795   8.088   9.098
93711SOL     OW83029   4.194   6.235  12.688
93711SOL    HW183030   4.108   6.195  12.703
93711SOL    HW283031   4.196   6.309  12.749
93712SOL     OW83032  12.665   6.458  11.897
93712SOL    HW183033  12.576   6.487  11.879
93712SOL    HW283034  12.666   6.366  11.871
93713SOL     OW83035   6.233  11.885  10.472
93713SOL    HW183036   6.328  11.890  10.468
93713SOL    HW283037   6.213  11.792  10.461
93714SOL     OW83038  11.562   3.195   4.691
93714SOL    HW183039  11.602   3.150   4.765
93714SOL    HW283040  11.557   3.128   4.622
93715SOL     OW83041   1.417  11.000   3.634
93715SOL    HW183042   1.339  11.033   3.679
93715SOL    HW283043   1.427  10.911   3.666
93716SOL     OW83044   9.673   4.372  10.737
93716SOL    HW183045   9.747   4.320  10.705
93716SOL    HW283046   9.641   4.323  10.812
93717SOL     OW83047   7.372   7.879   7.351
93717SOL    HW183048   7.308   7.810   7.367
93717SOL    HW283049   7.326   7.942   7.295
93718SOL     OW83050   4.481   6.141   7.577
93718SOL    HW183051   4.543   6.076   7.611
93718SOL    HW283052   4.498   6.220   7.628
93719SOL     OW83053   6.757   0.451   8.431
93719SOL    HW183054   6.767   0.360   8.403
93719SOL    HW283055   6.712   0.494   8.358
93720SOL     OW83056   9.445  14.570   3.505
93720SOL    HW183057   9.443  14.600   3.596
93720SOL    HW283058   9.499  14.491   3.508
93721SOL     OW83059   9.323  12.050  13.756
93721SOL    HW183060   9.319  12.092  13.843
93721SOL    HW283061   9.328  11.956  13.775
93722SOL     OW83062   1.122  10.554  12.218
93722SOL    HW183063   1.147  10.468  12.183
93722SOL    HW283064   1.203  10.588  12.257
93723SOL     OW83065   4.889   6.054   8.067
93723SOL    HW183066   4.954   6.020   8.128
93723SOL    HW283067   4.806   6.050   8.115
93724SOL     OW83068  10.737   3.049   4.704
93724SOL    HW183069  10.820   3.029   4.661
93724SOL    HW283070  10.698   2.964   4.722
93725SOL     OW83071   1.954  12.054   1.957
93725SOL    HW183072   1.985  12.128   1.905
93725SOL    HW283073   1.941  11.983   1.894
93726SOL     OW83074  11.871  13.795  13.974
93726SOL    HW183075  11.902  13.724  14.031
93726SOL    HW283076  11.910  13.874  14.010
93727SOL     OW83077  10.681   1.964  13.938
93727SOL    HW183078  10.629   1.987  13.862
93727SOL    HW283079  10.730   1.886  13.912
93728SOL     OW83080   3.976  13.963   6.563
93728SOL    HW183081   3.893  14.009   6.547
93728SOL    HW283082   4.023  14.020   6.623
93729SOL     OW83083   2.316  11.626   5.563
93729SOL    HW183084   2.277  11.574   5.492
93729SOL    HW283085   2.241  11.659   5.612
93730SOL     OW83086   8.601  11.308  11.946
93730SOL    HW183087   8.538  11.378  11.927
93730SOL    HW283088   8.556  11.253  12.010
93731SOL     OW83089  14.189  14.633   7.377
93731SOL    HW183090  14.147  14.680   7.304
93731SOL    HW283091  14.168  14.541   7.362
93732SOL     OW83092  13.891  12.319   7.948
93732SOL    HW183093  13.836  12.362   7.883
93732SOL    HW283094  13.979  12.325   7.913
93733SOL     OW83095   2.324   5.968   4.772
93733SOL    HW183096   2.244   5.951   4.823
93733SOL    HW283097   2.334   5.891   4.717
93734SOL     OW83098   2.798   4.692  14.441
93734SOL    HW183099   2.894   4.696  14.434
93734SOL    HW283100   2.766   4.729  14.358
93735SOL     OW83101  12.383   2.616   5.608
93735SOL    HW183102  12.295   2.586   5.630
93735SOL    HW283103  12.440   2.545   5.637
93736SOL     OW83104  10.033   3.776   1.580
93736SOL    HW183105  10.075   3.859   1.556
93736SOL    HW283106  10.012   3.786   1.673
93737SOL     OW83107  11.151   4.950   2.354
93737SOL    HW183108  11.136   5.042   2.376
93737SOL    HW283109  11.073   4.924   2.304
93738SOL     OW83110  12.311  12.832   3.297
93738SOL    HW183111  12.335  12.797   3.211
93738SOL    HW283112  12.239  12.776   3.326
93739SOL     OW83113   8.842   4.556   2.829
93739SOL    HW183114   8.846   4.528   2.920
93739SOL    HW283115   8.753   4.590   2.818
93740SOL     OW83116   9.364   0.161  14.654
93740SOL    HW183117   9.382   0.113  14.734
93740SOL    HW283118   9.301   0.106  14.607
93741SOL     OW83119   1.347   5.433   5.322
93741SOL    HW183120   1.425   5.456   5.372
93741SOL    HW283121   1.319   5.515   5.282
93742SOL     OW83122  12.842   5.608   9.767
93742SOL    HW183123  12.871   5.626   9.857
93742SOL    HW283124  12.901   5.538   9.738
93743SOL     OW83125  10.030   9.984  11.276
93743SOL    HW183126   9.965  10.052  11.257
93743SOL    HW283127  10.034   9.931  11.197
93744SOL     OW83128   7.625  14.212   6.886
93744SOL    HW183129   7.638  14.197   6.792
93744SOL    HW283130   7.626  14.124   6.924
93745SOL     OW83131   2.497   1.087   2.342
93745SOL    HW183132   2.503   1.068   2.436
93745SOL    HW283133   2.433   1.024   2.309
93746SOL     OW83134  13.797  11.379   2.483
93746SOL    HW183135  13.795  11.400   2.576
93746SOL    HW283136  13.768  11.460   2.440
93747SOL     OW83137   2.711  10.581   7.902
93747SOL    HW183138   2.646  10.559   7.969
93747SOL    HW283139   2.782  10.624   7.951
93748SOL     OW83140   7.734  13.347   1.242
93748SOL    HW183141   7.710  13.411   1.309
93748SOL    HW283142   7.780  13.397   1.176
93749SOL     OW83143   3.874   7.920  13.308
93749SOL    HW183144   3.798   7.964  13.270
93749SOL    HW283145   3.901   7.856  13.243
93750SOL     OW83146   8.759  13.865   3.611
93750SOL    HW183147   8.779  13.777   3.643
93750SOL    HW283148   8.819  13.878   3.538
93751SOL     OW83149   2.416   3.360   9.378
93751SOL    HW183150   2.454   3.375   9.291
93751SOL    HW283151   2.341   3.420   9.381
93752SOL     OW83152   7.781  10.018   6.148
93752SOL    HW183153   7.807  10.083   6.214
93752SOL    HW283154   7.780   9.935   6.195
93753SOL     OW83155   0.979   6.646   3.444
93753SOL    HW183156   0.981   6.573   3.383
93753SOL    HW283157   1.047   6.624   3.509
93754SOL     OW83158   7.547   8.643  13.982
93754SOL    HW183159   7.507   8.718  14.025
93754SOL    HW283160   7.525   8.568  14.037
93755SOL     OW83161  11.536   7.915  14.689
93755SOL    HW183162  11.542   7.895  14.782
93755SOL    HW283163  11.619   7.886  14.652
93756SOL     OW83164  14.047   7.604   4.628
93756SOL    HW183165  14.009   7.678   4.582
93756SOL    HW283166  14.101   7.643   4.697
93757SOL     OW83167   5.025   5.150  14.663
93757SOL    HW183168   4.993   5.132  14.575
93757SOL    HW283169   4.952   5.195  14.706
93758SOL     OW83170  10.707   4.644   6.340
93758SOL    HW183171  10.744   4.723   6.379
93758SOL    HW283172  10.775   4.612   6.281
93759SOL     OW83173  13.024   9.619  13.843
93759SOL    HW183174  12.970   9.552  13.802
93759SOL    HW283175  12.965   9.667  13.901
93760SOL     OW83176  11.299   7.997   0.963
93760SOL    HW183177  11.363   8.052   1.008
93760SOL    HW283178  11.332   7.988   0.874
93761SOL     OW83179  13.330  11.553   2.502
93761SOL    HW183180  13.254  11.502   2.530
93761SOL    HW283181  13.299  11.644   2.501
93762SOL     OW83182  14.472   8.597   1.445
93762SOL    HW183183  14.452   8.535   1.374
93762SOL    HW283184  14.518   8.668   1.402
93763SOL     OW83185   0.921  11.690   1.028
93763SOL    HW183186   1.008  11.731   1.024
93763SOL    HW283187   0.921  11.625   0.957
93764SOL     OW83188  13.264  10.012   9.588
93764SOL    HW183189  13.229   9.927   9.617
93764SOL    HW283190  13.254  10.069   9.665
93765SOL     OW83191   6.839   6.417   8.268
93765SOL    HW183192   6.806   6.328   8.285
93765SOL    HW283193   6.856   6.453   8.355
93766SOL     OW83194   5.652  10.755   0.152
93766SOL    HW183195   5.625  10.775   0.062
93766SOL    HW283196   5.620  10.828   0.204
93767SOL     OW83197   5.225   4.937  14.434
93767SOL    HW183198   5.243   4.916  14.342
93767SOL    HW283199   5.137   4.903  14.449
93768SOL     OW83200   1.277  12.646   2.543
93768SOL    HW183201   1.283  12.552   2.526
93768SOL    HW283202   1.332  12.686   2.475
93769SOL     OW83203   5.048  14.048  12.430
93769SOL    HW183204   5.095  14.011  12.355
93769SOL    HW283205   5.079  13.997  12.505
93770SOL     OW83206   7.765   7.022   3.870
93770SOL    HW183207   7.750   6.968   3.792
93770SOL    HW283208   7.682   7.068   3.883
93771SOL     OW83209   6.782  13.724   5.877
93771SOL    HW183210   6.795  13.638   5.838
93771SOL    HW283211   6.806  13.786   5.808
93772SOL     OW83212  13.449  10.264  12.002
93772SOL    HW183213  13.435  10.275  12.096
93772SOL    HW283214  13.544  10.265  11.991
93773SOL     OW83215   4.935   9.955   0.181
93773SOL    HW183216   4.904  10.045   0.178
93773SOL    HW283217   5.028   9.960   0.162
93774SOL     OW83218  12.616   0.911   4.925
93774SOL    HW183219  12.586   0.838   4.979
93774SOL    HW283220  12.539   0.935   4.873
93775SOL     OW83221  11.999   0.922  11.641
93775SOL    HW183222  12.086   0.883  11.628
93775SOL    HW283223  11.948   0.853  11.683
93776SOL     OW83224   5.384   6.601  12.506
93776SOL    HW183225   5.454   6.615  12.570
93776SOL    HW283226   5.428   6.566  12.429
93777SOL     OW83227   3.767   1.533   0.987
93777SOL    HW183228   3.839   1.592   1.008
93777SOL    HW283229   3.791   1.496   0.902
93778SOL     OW83230  10.480   7.507   4.986
93778SOL    HW183231  10.472   7.449   5.062
93778SOL    HW283232  10.490   7.594   5.025
93779SOL     OW83233   7.326   4.900   7.987
93779SOL    HW183234   7.248   4.845   7.990
93779SOL    HW283235   7.398   4.839   7.976
93780SOL     OW83236   7.939  12.700   6.461
93780SOL    HW183237   7.996  12.634   6.423
93780SOL    HW283238   7.903  12.659   6.540
93781SOL     OW83239   2.157   9.388  14.261
93781SOL    HW183240   2.133   9.433  14.180
93781SOL    HW283241   2.143   9.453  14.330
93782SOL     OW83242   3.773   4.333   3.696
93782SOL    HW183243   3.698   4.388   3.672
93782SOL    HW283244   3.734   4.262   3.747
93783SOL     OW83245   6.951   0.463   5.045
93783SOL    HW183246   7.006   0.418   4.980
93783SOL    HW283247   6.965   0.415   5.126
93784SOL     OW83248   1.637   3.018   4.662
93784SOL    HW183249   1.571   3.010   4.593
93784SOL    HW283250   1.592   3.064   4.733
93785SOL     OW83251  12.633  14.483   1.107
93785SOL    HW183252  12.689  14.559   1.090
93785SOL    HW283253  12.570  14.484   1.034
93786SOL     OW83254  10.317  14.492   0.089
93786SOL    HW183255  10.410  14.473   0.097
93786SOL    HW283256  10.274  14.408   0.107
93787SOL     OW83257   9.234  11.510   3.144
93787SOL    HW183258   9.192  11.544   3.223
93787SOL    HW283259   9.296  11.578   3.118
93788SOL     OW83260   8.950   8.267  10.311
93788SOL    HW183261   9.045   8.252  10.312
93788SOL    HW283262   8.921   8.233  10.227
93789SOL     OW83263  12.533   5.801  12.079
93789SOL    HW183264  12.529   5.706  12.077
93789SOL    HW283265  12.618   5.821  12.120
93790SOL     OW83266   9.737  13.991   0.417
93790SOL    HW183267   9.808  13.955   0.471
93790SOL    HW283268   9.667  14.011   0.479
93791SOL     OW83269   9.164  12.377   7.485
93791SOL    HW183270   9.143  12.318   7.558
93791SOL    HW283271   9.094  12.443   7.487
93792SOL     OW83272   2.560  11.375  13.795
93792SOL    HW183273   2.618  11.305  13.766
93792SOL    HW283274   2.617  11.435  13.843
93793SOL     OW83275  11.561   8.690   4.634
93793SOL    HW183276  11.491   8.754   4.634
93793SOL    HW283277  11.541   8.630   4.706
93794SOL     OW83278  13.737   2.538   3.966
93794SOL    HW183279  13.762   2.546   3.874
93794SOL    HW283280  13.783   2.459   3.996
93795SOL     OW83281   1.183   2.293   2.119
93795SOL    HW183282   1.254   2.229   2.111
93795SOL    HW283283   1.184   2.318   2.211
93796SOL     OW83284   1.118   8.041  13.407
93796SOL    HW183285   1.151   7.951  13.403
93796SOL    HW283286   1.046   8.043  13.344
93797SOL     OW83287  14.175   1.598   8.457
93797SOL    HW183288  14.252   1.632   8.501
93797SOL    HW283289  14.107   1.597   8.525
93798SOL     OW83290   1.976   6.323   2.542
93798SOL    HW183291   1.881   6.326   2.529
93798SOL    HW283292   1.999   6.232   2.522
93799SOL     OW83293   4.104   7.360  13.974
93799SOL    HW183294   4.113   7.373  14.069
93799SOL    HW283295   4.010   7.345  13.961
93800SOL     OW83296   4.095   2.081  14.228
93800SOL    HW183297   4.148   2.136  14.170
93800SOL    HW283298   4.147   2.002  14.242
93801SOL     OW83299   0.214  11.621   2.779
93801SOL    HW183300   0.175  11.615   2.866
93801SOL    HW283301   0.237  11.714   2.770
93802SOL     OW83302   7.272   2.994  11.836
93802SOL    HW183303   7.201   2.934  11.813
93802SOL    HW283304   7.229   3.066  11.882
93803SOL     OW83305   2.163   5.685  10.231
93803SOL    HW183306   2.106   5.662  10.157
93803SOL    HW283307   2.106   5.735  10.290
93804SOL     OW83308  12.253   1.126   7.808
93804SOL    HW183309  12.328   1.134   7.749
93804SOL    HW283310  12.187   1.079   7.757
93805SOL     OW83311   7.702  14.475   3.167
93805SOL    HW183312   7.672  14.526   3.243
93805SOL    HW283313   7.752  14.538   3.115
93806SOL     OW83314  10.144   9.091  13.837
93806SOL    HW183315  10.109   9.108  13.750
93806SOL    HW283316  10.232   9.055  13.821
93807SOL     OW83317   3.038   1.853   0.530
93807SOL    HW183318   2.978   1.809   0.591
93807SOL    HW283319   3.114   1.795   0.525
93808SOL     OW83320   6.994  11.125   8.769
93808SOL    HW183321   6.945  11.091   8.693
93808SOL    HW283322   6.960  11.213   8.782
93809SOL     OW83323   8.667  14.528  10.400
93809SOL    HW183324   8.735  14.560  10.459
93809SOL    HW283325   8.702  14.543  10.312
93810SOL     OW83326   0.296   3.335  10.370
93810SOL    HW183327   0.374   3.281  10.362
93810SOL    HW283328   0.247   3.296  10.442
93811SOL     OW83329   8.271   3.412   2.032
93811SOL    HW183330   8.365   3.401   2.043
93811SOL    HW283331   8.232   3.344   2.086
93812SOL     OW83332   9.165   3.732   9.614
93812SOL    HW183333   9.091   3.772   9.659
93812SOL    HW283334   9.230   3.802   9.609
93813SOL     OW83335   5.677   2.045   3.668
93813SOL    HW183336   5.733   2.060   3.744
93813SOL    HW283337   5.738   2.026   3.596
93814SOL     OW83338  11.271   9.078  12.256
93814SOL    HW183339  11.213   9.022  12.307
93814SOL    HW283340  11.272   9.039  12.169
93815SOL     OW83341   0.810   7.509  13.419
93815SOL    HW183342   0.804   7.507  13.323
93815SOL    HW283343   0.724   7.541  13.447
93816SOL     OW83344   5.024  10.043  11.447
93816SOL    HW183345   5.001  10.136  11.450
93816SOL    HW283346   5.098  10.035  11.507
93817SOL     OW83347   8.457   8.559   8.522
93817SOL    HW183348   8.530   8.554   8.460
93817SOL    HW283349   8.397   8.491   8.492
93818SOL     OW83350   6.334  14.592   9.512
93818SOL    HW183351   6.372  14.515   9.554
93818SOL    HW283352   6.391  14.664   9.537
93819SOL     OW83353  11.500   3.054  13.944
93819SOL    HW183354  11.472   2.980  13.999
93819SOL    HW283355  11.494   3.021  13.855
93820SOL     OW83356   3.997   0.934  11.507
93820SOL    HW183357   3.915   0.885  11.506
93820SOL    HW283358   4.038   0.914  11.423
93821SOL     OW83359   1.570   4.057   5.203
93821SOL    HW183360   1.587   4.126   5.267
93821SOL    HW283361   1.647   4.058   5.146
93822SOL     OW83362  13.037   5.432   6.579
93822SOL    HW183363  13.010   5.448   6.670
93822SOL    HW283364  12.957   5.402   6.536
93823SOL     OW83365   7.976  14.082   6.247
93823SOL    HW183366   7.942  14.013   6.190
93823SOL    HW283367   7.921  14.078   6.325
93824SOL     OW83368   0.926   3.996   5.226
93824SOL    HW183369   0.945   4.058   5.156
93824SOL    HW283370   0.868   4.043   5.285
93825SOL     OW83371  10.763  13.402   1.248
93825SOL    HW183372  10.857  13.414   1.252
93825SOL    HW283373  10.748  13.313   1.281
93826SOL     OW83374   5.801  12.164   7.987
93826SOL    HW183375   5.793  12.217   7.907
93826SOL    HW283376   5.712  12.154   8.019
93827SOL     OW83377  12.944   8.266   1.723
93827SOL    HW183378  12.940   8.171   1.735
93827SOL    HW283379  12.863   8.298   1.762
93828SOL     OW83380   9.925   0.767   5.927
93828SOL    HW183381   9.832   0.783   5.910
93828SOL    HW283382   9.956   0.845   5.973
93829SOL     OW83383  10.534  12.670   3.296
93829SOL    HW183384  10.482  12.750   3.283
93829SOL    HW283385  10.486  12.602   3.250
93830SOL     OW83386  10.147   0.009   9.056
93830SOL    HW183387  10.082   0.073   9.085
93830SOL    HW283388  10.098  14.832   8.998
93831SOL     OW83389   2.944   5.928   9.971
93831SOL    HW183390   3.020   5.927   9.913
93831SOL    HW283391   2.918   5.836   9.977
93832SOL     OW83392   4.138   9.585   8.083
93832SOL    HW183393   4.072   9.655   8.089
93832SOL    HW283394   4.092   9.514   8.037
93833SOL     OW83395   4.450  12.437   9.887
93833SOL    HW183396   4.452  12.510   9.949
93833SOL    HW283397   4.454  12.479   9.801
93834SOL     OW83398  13.466   1.642  11.478
93834SOL    HW183399  13.382   1.595  11.473
93834SOL    HW283400  13.443   1.733  11.461
93835SOL     OW83401   5.928  14.819   9.174
93835SOL    HW183402   6.010  14.832   9.223
93835SOL    HW283403   5.869   0.004   9.207
93836SOL     OW83404   1.461  14.240   9.420
93836SOL    HW183405   1.516  14.178   9.371
93836SOL    HW283406   1.512  14.259   9.500
93837SOL     OW83407   8.550   5.492  14.549
93837SOL    HW183408   8.503   5.572  14.525
93837SOL    HW283409   8.513   5.425  14.491
93838SOL     OW83410   7.566   3.636   4.145
93838SOL    HW183411   7.491   3.670   4.194
93838SOL    HW283412   7.529   3.609   4.060
93839SOL     OW83413   1.407   8.447  13.446
93839SOL    HW183414   1.440   8.357  13.445
93839SOL    HW283415   1.340   8.449  13.377
93840SOL     OW83416   1.286   4.472   5.250
93840SOL    HW183417   1.281   4.387   5.206
93840SOL    HW283418   1.197   4.507   5.243
93841SOL     OW83419   4.683  14.198  11.889
93841SOL    HW183420   4.623  14.173  11.960
93841SOL    HW283421   4.714  14.115  11.853
93842SOL     OW83422  10.207   8.673  11.378
93842SOL    HW183423  10.241   8.757  11.408
93842SOL    HW283424  10.144   8.647  11.444
93843SOL     OW83425   7.117   2.722  14.166
93843SOL    HW183426   7.033   2.679  14.178
93843SOL    HW283427   7.147   2.694  14.080
93844SOL     OW83428   9.438  13.927   7.574
93844SOL    HW183429   9.532  13.941   7.562
93844SOL    HW283430   9.399  13.954   7.491
93845SOL     OW83431   3.569  14.656  10.713
93845SOL    HW183432   3.629  14.699  10.653
93845SOL    HW283433   3.622  14.588  10.755
93846SOL     OW83434   0.876   9.445  13.789
93846SOL    HW183435   0.825   9.410  13.716
93846SOL    HW283436   0.962   9.464  13.751
93847SOL     OW83437   1.420   3.746   6.852
93847SOL    HW183438   1.429   3.674   6.914
93847SOL    HW283439   1.474   3.816   6.889
93848SOL     OW83440   1.797   3.024  14.314
93848SOL    HW183441   1.750   2.941  14.324
93848SOL    HW283442   1.814   3.053  14.403
93849SOL     OW83443   7.389   5.274   8.386
93849SOL    HW183444   7.392   5.235   8.298
93849SOL    HW283445   7.367   5.201   8.444
93850SOL     OW83446  13.351  12.541   8.020
93850SOL    HW183447  13.423  12.556   8.082
93850SOL    HW283448  13.386  12.475   7.960
93851SOL     OW83449   3.486   7.062   1.880
93851SOL    HW183450   3.509   7.068   1.788
93851SOL    HW283451   3.550   7.001   1.917
93852SOL     OW83452   5.326   3.204   1.345
93852SOL    HW183453   5.246   3.151   1.351
93852SOL    HW283454   5.385   3.166   1.410
93853SOL     OW83455   6.258   0.963   4.494
93853SOL    HW183456   6.188   0.898   4.501
93853SOL    HW283457   6.246   1.002   4.408
93854SOL     OW83458   0.233   7.125  12.148
93854SOL    HW183459   0.210   7.209  12.187
93854SOL    HW283460   0.172   7.063  12.187
93855SOL     OW83461   4.509   0.038   6.618
93855SOL    HW183462   4.459   0.101   6.670
93855SOL    HW283463   4.451  14.845   6.609
93856SOL     OW83464   2.066   2.061   4.384
93856SOL    HW183465   2.075   2.017   4.468
93856SOL    HW283466   2.061   2.154   4.406
93857SOL     OW83467   4.990   4.209   7.044
93857SOL    HW183468   4.964   4.205   7.136
93857SOL    HW283469   5.020   4.120   7.024
93858SOL     OW83470   2.198   2.191   6.768
93858SOL    HW183471   2.109   2.157   6.755
93858SOL    HW283472   2.249   2.115   6.797
93859SOL     OW83473  10.705   5.726   7.444
93859SOL    HW183474  10.756   5.691   7.371
93859SOL    HW283475  10.616   5.697   7.427
93860SOL     OW83476   0.417   6.491   6.330
93860SOL    HW183477   0.449   6.543   6.256
93860SOL    HW283478   0.403   6.404   6.294
93861SOL     OW83479  14.193   5.947   2.329
93861SOL    HW183480  14.158   6.031   2.300
93861SOL    HW283481  14.233   5.965   2.414
93862SOL     OW83482   9.415  14.679  12.236
93862SOL    HW183483   9.398  14.585  12.222
93862SOL    HW283484   9.511  14.686  12.231
93863SOL     OW83485  11.893  11.825   6.276
93863SOL    HW183486  11.803  11.854   6.289
93863SOL    HW283487  11.889  11.729   6.283
93864SOL     OW83488   4.930   5.886  11.073
93864SOL    HW183489   4.857   5.828  11.050
93864SOL    HW283490   4.984   5.833  11.131
93865SOL     OW83491   1.016   7.475  14.852
93865SOL    HW183492   1.020   7.516  14.765
93865SOL    HW283493   1.088   7.412  14.851
93866SOL     OW83494   4.826   3.224  12.112
93866SOL    HW183495   4.914   3.252  12.137
93866SOL    HW283496   4.772   3.302  12.121
93867SOL     OW83497   5.737   7.303  11.181
93867SOL    HW183498   5.792   7.284  11.105
93867SOL    HW283499   5.792   7.282  11.257
93868SOL     OW83500   4.001  13.042   9.317
93868SOL    HW183501   3.946  12.964   9.312
93868SOL    HW283502   3.950  13.104   9.370
93869SOL     OW83503   8.261   1.911   2.467
93869SOL    HW183504   8.178   1.876   2.434
93869SOL    HW283505   8.245   2.005   2.477
93870SOL     OW83506  13.069  14.786   4.358
93870SOL    HW183507  13.073  14.879   4.333
93870SOL    HW283508  13.143  14.746   4.313
93871SOL     OW83509  14.113  10.265   8.947
93871SOL    HW183510  14.074  10.183   8.914
93871SOL    HW283511  14.169  10.294   8.875
93872SOL     OW83512   4.669   8.095   9.861
93872SOL    HW183513   4.735   8.162   9.842
93872SOL    HW283514   4.718   8.020   9.894
93873SOL     OW83515   1.401   5.181   7.404
93873SOL    HW183516   1.365   5.209   7.320
93873SOL    HW283517   1.433   5.261   7.444
93874SOL     OW83518   5.942  13.589   0.111
93874SOL    HW183519   5.947  13.674   0.066
93874SOL    HW283520   5.948  13.525   0.041
93875SOL     OW83521   4.720  10.211   1.042
93875SOL    HW183522   4.638  10.259   1.051
93875SOL    HW283523   4.712  10.138   1.104
93876SOL     OW83524   3.300  13.897   1.568
93876SOL    HW183525   3.263  13.853   1.644
93876SOL    HW283526   3.390  13.866   1.563
93877SOL     OW83527  13.829  14.646   6.694
93877SOL    HW183528  13.783  14.661   6.776
93877SOL    HW283529  13.823  14.730   6.648
93878SOL     OW83530   6.705   2.682   1.677
93878SOL    HW183531   6.702   2.778   1.681
93878SOL    HW283532   6.789   2.662   1.637
93879SOL     OW83533  12.889  12.685   3.124
93879SOL    HW183534  12.801  12.723   3.125
93879SOL    HW283535  12.884  12.611   3.184
93880SOL     OW83536  10.457  14.247  11.518
93880SOL    HW183537  10.472  14.178  11.583
93880SOL    HW283538  10.495  14.326  11.557
93881SOL     OW83539  10.168  12.205   9.437
93881SOL    HW183540  10.209  12.211   9.350
93881SOL    HW283541  10.075  12.188   9.417
93882SOL     OW83542   9.983   1.614   3.501
93882SOL    HW183543  10.044   1.687   3.512
93882SOL    HW283544   9.911   1.633   3.560
93883SOL     OW83545  13.138   0.734   0.040
93883SOL    HW183546  13.226   0.733   0.077
93883SOL    HW283547  13.082   0.762   0.113
93884SOL     OW83548  14.117   3.596  14.499
93884SOL    HW183549  14.074   3.536  14.438
93884SOL    HW283550  14.099   3.559  14.586
93885SOL     OW83551   9.473  10.620  10.152
93885SOL    HW183552   9.461  10.587  10.241
93885SOL    HW283553   9.395  10.673  10.135
93886SOL     OW83554   0.248   4.809   3.686
93886SOL    HW183555   0.268   4.821   3.778
93886SOL    HW283556   0.154   4.826   3.679
93887SOL     OW83557   2.631   2.755   5.708
93887SOL    HW183558   2.593   2.739   5.794
93887SOL    HW283559   2.650   2.848   5.706
93888SOL     OW83560   9.484   2.263  13.865
93888SOL    HW183561   9.556   2.219  13.820
93888SOL    HW283562   9.422   2.193  13.885
93889SOL     OW83563   0.130   8.720   8.937
93889SOL    HW183564   0.085   8.692   9.017
93889SOL    HW283565   0.223   8.707   8.956
93890SOL     OW83566  13.036  10.814   2.277
93890SOL    HW183567  13.093  10.780   2.346
93890SOL    HW283568  13.058  10.907   2.272
93891SOL     OW83569   6.621  13.039  11.054
93891SOL    HW183570   6.556  13.107  11.038
93891SOL    HW283571   6.614  12.981  10.978
93892SOL     OW83572  12.475  13.134   4.990
93892SOL    HW183573  12.519  13.050   5.002
93892SOL    HW283574  12.482  13.151   4.896
93893SOL     OW83575   7.819   5.139  12.788
93893SOL    HW183576   7.893   5.109  12.735
93893SOL    HW283577   7.755   5.067  12.781
93894SOL     OW83578   0.042   4.008   3.089
93894SOL    HW183579  14.832   4.020   3.065
93894SOL    HW283580   0.040   3.947   3.162
93895SOL     OW83581   2.584   0.896   4.055
93895SOL    HW183582   2.539   0.812   4.052
93895SOL    HW283583   2.641   0.890   4.132
93896SOL     OW83584   4.908   7.798  11.681
93896SOL    HW183585   4.861   7.724  11.642
93896SOL    HW283586   4.887   7.873  11.625
93897SOL     OW83587  10.610  13.390   3.217
93897SOL    HW183588  10.638  13.386   3.125
93897SOL    HW283589  10.623  13.301   3.249
93898SOL     OW83590   6.970  11.031  13.147
93898SOL    HW183591   7.044  11.006  13.091
93898SOL    HW283592   6.992  10.995  13.233
93899SOL     OW83593   1.937   0.129   9.387
93899SOL    HW183594   1.968   0.061   9.446
93899SOL    HW283595   1.921   0.205   9.443
93900SOL     OW83596   1.278   5.544  14.055
93900SOL    HW183597   1.229   5.483  14.001
93900SOL    HW283598   1.331   5.488  14.113
93901SOL     OW83599   0.949   5.825  11.255
93901SOL    HW183600   0.881   5.773  11.213
93901SOL    HW283601   1.022   5.822  11.193
93902SOL     OW83602   1.845  13.977   9.495
93902SOL    HW183603   1.917  13.915   9.483
93902SOL    HW283604   1.832  13.981   9.590
93903SOL     OW83605  12.976  11.026   1.698
93903SOL    HW183606  12.973  10.963   1.770
93903SOL    HW283607  12.885  11.034   1.670
93904SOL     OW83608   6.087   0.356   5.294
93904SOL    HW183609   6.103   0.366   5.200
93904SOL    HW283610   6.150   0.290   5.322
93905SOL     OW83611   3.934   3.734  10.452
93905SOL    HW183612   4.008   3.676  10.468
93905SOL    HW283613   3.893   3.700  10.372
93906SOL     OW83614   1.481  10.973   7.082
93906SOL    HW183615   1.426  11.032   7.134
93906SOL    HW283616   1.571  10.999   7.103
93907SOL     OW83617  11.932  13.250   6.409
93907SOL    HW183618  12.013  13.296   6.387
93907SOL    HW283619  11.935  13.240   6.504
93908SOL     OW83620   0.263   8.012   5.646
93908SOL    HW183621   0.338   8.070   5.665
93908SOL    HW283622   0.254   7.958   5.724
93909SOL     OW83623  14.348   7.812  12.522
93909SOL    HW183624  14.254   7.800  12.514
93909SOL    HW283625  14.360   7.867  12.599
93910SOL     OW83626   7.432  12.157   8.569
93910SOL    HW183627   7.493  12.102   8.521
93910SOL    HW283628   7.467  12.245   8.561
93911SOL     OW83629   3.750   9.710  10.288
93911SOL    HW183630   3.778   9.629  10.331
93911SOL    HW283631   3.678   9.682  10.231
93912SOL     OW83632   2.454  14.056   2.620
93912SOL    HW183633   2.379  14.094   2.665
93912SOL    HW283634   2.476  14.120   2.552
93913SOL     OW83635   9.933   1.192  12.437
93913SOL    HW183636  10.000   1.202  12.504
93913SOL    HW283637   9.959   1.253  12.368
93914SOL     OW83638  10.179   6.716  14.620
93914SOL    HW183639  10.191   6.755  14.706
93914SOL    HW283640  10.088   6.686  14.619
93915SOL     OW83641   0.031  14.628  14.880
93915SOL    HW183642  14.849  14.576  14.831
93915SOL    HW283643   0.011  14.719  14.857
93916SOL     OW83644   4.557   5.947   9.522
93916SOL    HW183645   4.647   5.915   9.533
93916SOL    HW283646   4.509   5.872   9.487
93917SOL     OW83647  11.883   0.112   9.499
93917SOL    HW183648  11.967   0.129   9.542
93917SOL    HW283649  11.819   0.121   9.570
93918SOL     OW83650   8.108   5.902   9.286
93918SOL    HW183651   8.163   5.829   9.259
93918SOL    HW283652   8.044   5.912   9.216
93919SOL     OW83653  11.351  13.628  14.219
93919SOL    HW183654  11.430  13.653  14.267
93919SOL    HW283655  11.344  13.693  14.149
93920SOL     OW83656   3.401   5.302  11.530
93920SOL    HW183657   3.407   5.371  11.596
93920SOL    HW283658   3.371   5.347  11.451
93921SOL     OW83659  12.902   4.218   6.439
93921SOL    HW183660  12.883   4.140   6.387
93921SOL    HW283661  12.980   4.195   6.490
93922SOL     OW83662   1.701   5.072  12.001
93922SOL    HW183663   1.652   5.154  12.006
93922SOL    HW283664   1.793   5.099  12.003
93923SOL     OW83665  11.752  11.490  14.669
93923SOL    HW183666  11.721  11.480  14.759
93923SOL    HW283667  11.815  11.562  14.673
93924SOL     OW83668   6.690   7.099  11.351
93924SOL    HW183669   6.615   7.090  11.409
93924SOL    HW283670   6.659   7.157  11.281
93925SOL     OW83671   0.701  10.107  13.749
93925SOL    HW183672   0.670  10.044  13.814
93925SOL    HW283673   0.628  10.113  13.686
93926SOL     OW83674   4.350   4.323   7.341
93926SOL    HW183675   4.328   4.318   7.248
93926SOL    HW283676   4.287   4.385   7.378
93927SOL     OW83677  10.960   2.081   8.432
93927SOL    HW183678  11.046   2.042   8.417
93927SOL    HW283679  10.921   2.088   8.345
93928SOL     OW83680  14.508  12.828   7.191
93928SOL    HW183681  14.454  12.840   7.112
93928SOL    HW283682  14.496  12.736   7.214
93929SOL     OW83683   0.699   0.084   1.910
93929SOL    HW183684   0.775   0.028   1.929
93929SOL    HW283685   0.733   0.173   1.919
93930SOL     OW83686   6.917  14.417   2.602
93930SOL    HW183687   6.892  14.369   2.681
93930SOL    HW283688   6.909  14.352   2.531
93931SOL     OW83689  12.825  10.762  14.531
93931SOL    HW183690  12.731  10.780  14.530
93931SOL    HW283691  12.855  10.799  14.613
93932SOL     OW83692   6.855   6.129   1.926
93932SOL    HW183693   6.861   6.138   1.831
93932SOL    HW283694   6.890   6.212   1.960
93933SOL     OW83695  10.573  11.398   0.099
93933SOL    HW183696  10.613  11.354   0.024
93933SOL    HW283697  10.480  11.405   0.076
93934SOL     OW83698   3.740  12.839  12.341
93934SOL    HW183699   3.720  12.872  12.254
93934SOL    HW283700   3.807  12.773  12.327
93935SOL     OW83701   9.098   9.459  11.278
93935SOL    HW183702   9.185   9.487  11.250
93935SOL    HW283703   9.080   9.513  11.355
93936SOL     OW83704   5.676   9.450   1.133
93936SOL    HW183705   5.627   9.407   1.204
93936SOL    HW283706   5.768   9.434   1.154
93937SOL     OW83707   4.363  13.098   5.658
93937SOL    HW183708   4.333  13.187   5.676
93937SOL    HW283709   4.449  13.093   5.702
93938SOL     OW83710   2.362   6.301   4.940
93938SOL    HW183711   2.389   6.277   5.029
93938SOL    HW283712   2.270   6.275   4.935
93939SOL     OW83713   0.355   4.756   3.401
93939SOL    HW183714   0.280   4.744   3.459
93939SOL    HW283715   0.407   4.825   3.442
93940SOL     OW83716   9.019  14.495   7.847
93940SOL    HW183717   8.963  14.514   7.922
93940SOL    HW283718   9.011  14.573   7.792
93941SOL     OW83719  12.698   6.705  12.623
93941SOL    HW183720  12.682   6.648  12.547
93941SOL    HW283721  12.721   6.790  12.584
93942SOL     OW83722   1.100   8.883  12.688
93942SOL    HW183723   1.165   8.951  12.670
93942SOL    HW283724   1.064   8.861  12.602
93943SOL     OW83725   0.852  13.892  10.846
93943SOL    HW183726   0.861  13.901  10.941
93943SOL    HW283727   0.761  13.914  10.828
93944SOL     OW83728   8.400  13.548   3.901
93944SOL    HW183729   8.311  13.548   3.865
93944SOL    HW283730   8.426  13.456   3.900
93945SOL     OW83731   1.315   9.634   4.382
93945SOL    HW183732   1.311   9.667   4.472
93945SOL    HW283733   1.409   9.626   4.364
93946SOL     OW83734  11.111   7.729  14.326
93946SOL    HW183735  11.018   7.706  14.322
93946SOL    HW283736  11.148   7.688  14.248
93947SOL     OW83737   9.103   8.392   9.420
93947SOL    HW183738   9.044   8.411   9.347
93947SOL    HW283739   9.185   8.366   9.378
93948SOL     OW83740   7.576   9.735  14.015
93948SOL    HW183741   7.607   9.796  14.081
93948SOL    HW283742   7.626   9.757  13.936
93949SOL     OW83743   6.055   3.223  14.210
93949SOL    HW183744   6.068   3.317  14.214
93949SOL    HW283745   6.126   3.190  14.155
93950SOL     OW83746   3.931  13.987  13.200
93950SOL    HW183747   3.963  13.968  13.112
93950SOL    HW283748   3.906  13.901  13.235
93951SOL     OW83749   8.717   3.420   2.059
93951SOL    HW183750   8.787   3.437   1.996
93951SOL    HW283751   8.637   3.441   2.013
93952SOL     OW83752  10.512   9.910  10.006
93952SOL    HW183753  10.491   9.826   9.965
93952SOL    HW283754  10.605   9.904  10.025
93953SOL     OW83755   2.809   0.090  14.275
93953SOL    HW183756   2.749   0.037  14.329
93953SOL    HW283757   2.838   0.030  14.206
93954SOL     OW83758   6.203  10.435   2.811
93954SOL    HW183759   6.133  10.370   2.809
93954SOL    HW283760   6.231  10.437   2.902
93955SOL     OW83761   1.494  11.139   4.183
93955SOL    HW183762   1.585  11.127   4.154
93955SOL    HW283763   1.495  11.108   4.274
93956SOL     OW83764  13.168   8.908   0.267
93956SOL    HW183765  13.199   8.935   0.180
93956SOL    HW283766  13.194   8.979   0.325
93957SOL     OW83767   5.872  11.800  12.727
93957SOL    HW183768   5.864  11.825  12.819
93957SOL    HW283769   5.784  11.813  12.691
93958SOL     OW83770  14.780   7.880   3.618
93958SOL    HW183771  14.864   7.921   3.641
93958SOL    HW283772  14.750   7.930   3.543
93959SOL     OW83773   5.856   8.518   6.075
93959SOL    HW183774   5.892   8.568   6.002
93959SOL    HW283775   5.813   8.442   6.034
93960SOL     OW83776  11.952  10.871   5.541
93960SOL    HW183777  12.013  10.870   5.467
93960SOL    HW283778  11.988  10.807   5.603
93961SOL     OW83779  10.582   7.232   9.325
93961SOL    HW183780  10.641   7.289   9.276
93961SOL    HW283781  10.590   7.262   9.416
93962SOL     OW83782  10.833   2.037  14.185
93962SOL    HW183783  10.840   1.942  14.199
93962SOL    HW283784  10.780   2.046  14.106
93963SOL     OW83785   4.231  10.970  13.622
93963SOL    HW183786   4.298  10.920  13.670
93963SOL    HW283787   4.178  10.904  13.579
93964SOL     OW83788   0.712  12.965   1.961
93964SOL    HW183789   0.723  12.870   1.953
93964SOL    HW283790   0.622  12.982   1.935
93965SOL     OW83791   6.780  10.911   8.771
93965SOL    HW183792   6.827  10.937   8.691
93965SOL    HW283793   6.701  10.868   8.739
93966SOL     OW83794   2.017   2.536   4.273
93966SOL    HW183795   1.996   2.610   4.330
93966SOL    HW283796   1.955   2.543   4.201
93967SOL     OW83797   1.644   0.743  11.707
93967SOL    HW183798   1.658   0.669  11.647
93967SOL    HW283799   1.653   0.706  11.794
93968SOL     OW83800   4.155   6.371   2.414
93968SOL    HW183801   4.087   6.320   2.458
93968SOL    HW283802   4.220   6.306   2.388
93969SOL     OW83803  10.965   2.636   8.490
93969SOL    HW183804  10.928   2.550   8.504
93969SOL    HW283805  10.955   2.681   8.574
93970SOL     OW83806   6.640   4.108   0.412
93970SOL    HW183807   6.632   4.180   0.474
93970SOL    HW283808   6.554   4.101   0.370
93971SOL     OW83809   7.031   7.476   1.787
93971SOL    HW183810   6.961   7.521   1.740
93971SOL    HW283811   7.009   7.490   1.880
93972SOL     OW83812   0.297   4.457   3.899
93972SOL    HW183813   0.296   4.464   3.804
93972SOL    HW283814   0.314   4.364   3.916
93973SOL     OW83815   3.551  14.129  14.811
93973SOL    HW183816   3.474  14.153  14.862
93973SOL    HW283817   3.622  14.179  14.850
93974SOL     OW83818  12.290   5.066   1.393
93974SOL    HW183819  12.296   5.125   1.318
93974SOL    HW283820  12.334   5.113   1.464
93975SOL     OW83821   8.477   5.836   2.288
93975SOL    HW183822   8.488   5.874   2.201
93975SOL    HW283823   8.472   5.911   2.347
93976SOL     OW83824   0.570   8.563  12.584
93976SOL    HW183825   0.555   8.593  12.674
93976SOL    HW283826   0.506   8.493  12.572
93977SOL     OW83827   8.222  11.059   1.110
93977SOL    HW183828   8.233  11.135   1.167
93977SOL    HW283829   8.168  11.092   1.037
93978SOL     OW83830   4.185  13.056  11.430
93978SOL    HW183831   4.154  13.134  11.476
93978SOL    HW283832   4.279  13.055  11.445
93979SOL     OW83833   0.680   5.296  14.177
93979SOL    HW183834   0.658   5.336  14.261
93979SOL    HW283835   0.627   5.216  14.174
93980SOL     OW83836   7.018   8.021   0.080
93980SOL    HW183837   6.976   8.034   0.165
93980SOL    HW283838   7.039   7.928   0.078
93981SOL     OW83839   5.129   0.992   8.769
93981SOL    HW183840   5.055   0.931   8.772
93981SOL    HW283841   5.095   1.067   8.719
93982SOL     OW83842  11.923   4.821  13.595
93982SOL    HW183843  12.007   4.778  13.584
93982SOL    HW283844  11.945   4.906  13.634
93983SOL     OW83845  12.743   4.166   4.279
93983SOL    HW183846  12.673   4.166   4.214
93983SOL    HW283847  12.802   4.096   4.250
93984SOL     OW83848   8.828   5.171   4.457
93984SOL    HW183849   8.804   5.079   4.446
93984SOL    HW283850   8.893   5.170   4.528
93985SOL     OW83851  14.795   8.415  11.976
93985SOL    HW183852  14.767   8.367  11.898
93985SOL    HW283853  14.747   8.374  12.048
93986SOL     OW83854   2.607   8.234   4.330
93986SOL    HW183855   2.653   8.161   4.372
93986SOL    HW283856   2.677   8.293   4.301
93987SOL     OW83857  10.269  12.593   1.913
93987SOL    HW183858  10.226  12.550   1.986
93987SOL    HW283859  10.344  12.638   1.952
93988SOL     OW83860   4.537   8.411   8.114
93988SOL    HW183861   4.492   8.331   8.142
93988SOL    HW283862   4.473   8.457   8.060
93989SOL     OW83863  12.650   2.773   6.289
93989SOL    HW183864  12.570   2.826   6.292
93989SOL    HW283865  12.621   2.687   6.259
93990SOL     OW83866   6.115   0.828   9.633
93990SOL    HW183867   6.201   0.790   9.649
93990SOL    HW283868   6.068   0.818   9.716
93991SOL     OW83869  11.848  12.922  11.159
93991SOL    HW183870  11.763  12.961  11.140
93991SOL    HW283871  11.899  12.935  11.078
93992SOL     OW83872   6.338   3.767  11.660
93992SOL    HW183873   6.261   3.801  11.705
93992SOL    HW283874   6.379   3.708  11.723
93993SOL     OW83875  11.921   9.353  11.190
93993SOL    HW183876  11.852   9.412  11.222
93993SOL    HW283877  11.904   9.270  11.233
93994SOL     OW83878   2.830   8.048   7.750
93994SOL    HW183879   2.848   7.963   7.790
93994SOL    HW283880   2.800   8.026   7.661
93995SOL     OW83881   5.773   4.426   6.884
93995SOL    HW183882   5.723   4.374   6.821
93995SOL    HW283883   5.799   4.364   6.952
93996SOL     OW83884   0.192   6.453   9.723
93996SOL    HW183885   0.099   6.433   9.709
93996SOL    HW283886   0.239   6.382   9.680
93997SOL     OW83887   5.528   5.588   6.629
93997SOL    HW183888   5.623   5.583   6.612
93997SOL    HW283889   5.507   5.505   6.671
93998SOL     OW83890   4.438   4.183  14.149
93998SOL    HW183891   4.412   4.093  14.127
93998SOL    HW283892   4.443   4.228  14.065
93999SOL     OW83893   4.674   9.074   7.798
93999SOL    HW183894   4.734   9.003   7.823
93999SOL    HW283895   4.616   9.033   7.734
94000SOL     OW83896  14.041  13.002  10.790
94000SOL    HW183897  13.958  13.051  10.793
94000SOL    HW283898  14.057  12.988  10.697
94001SOL     OW83899  11.824   1.940   6.614
94001SOL    HW183900  11.878   1.908   6.685
94001SOL    HW283901  11.833   1.874   6.545
94002SOL     OW83902   2.186  14.126  14.832
94002SOL    HW183903   2.198  14.208  14.879
94002SOL    HW283904   2.096  14.100  14.853
94003SOL     OW83905   7.072   7.778   6.591
94003SOL    HW183906   7.118   7.741   6.666
94003SOL    HW283907   7.119   7.859   6.572
94004SOL     OW83908   3.589   1.767   8.117
94004SOL    HW183909   3.636   1.827   8.060
94004SOL    HW283910   3.653   1.699   8.138
94005SOL     OW83911   7.818  13.346  14.617
94005SOL    HW183912   7.727  13.357  14.644
94005SOL    HW283913   7.817  13.267  14.562
94006SOL     OW83914   6.689   9.199   0.489
94006SOL    HW183915   6.687   9.119   0.436
94006SOL    HW283916   6.630   9.180   0.562
94007SOL     OW83917   3.635  13.483   8.089
94007SOL    HW183918   3.583  13.475   8.009
94007SOL    HW283919   3.722  13.454   8.063
94008SOL     OW83920   9.683   7.580  11.058
94008SOL    HW183921   9.663   7.493  11.092
94008SOL    HW283922   9.612   7.636  11.088
94009SOL     OW83923   1.874   6.728  14.629
94009SOL    HW183924   1.814   6.784  14.678
94009SOL    HW283925   1.818   6.659  14.593
94010SOL     OW83926  11.611   9.750   0.065
94010SOL    HW183927  11.698   9.713   0.082
94010SOL    HW283928  11.629   9.830   0.016
94011SOL     OW83929  10.481   4.715   8.317
94011SOL    HW183930  10.538   4.755   8.383
94011SOL    HW283931  10.508   4.754   8.234
94012SOL     OW83932  11.916   6.510   1.466
94012SOL    HW183933  11.959   6.476   1.544
94012SOL    HW283934  11.986   6.553   1.417
94013SOL     OW83935   2.257   7.669   5.384
94013SOL    HW183936   2.273   7.581   5.417
94013SOL    HW283937   2.172   7.663   5.339
94014SOL     OW83938   4.529   0.847  12.880
94014SOL    HW183939   4.456   0.817  12.825
94014SOL    HW283940   4.548   0.935  12.849
94015SOL     OW83941  13.757  13.415   0.298
94015SOL    HW183942  13.812  13.394   0.373
94015SOL    HW283943  13.783  13.504   0.273
94016SOL     OW83944  12.752   1.003   6.918
94016SOL    HW183945  12.707   0.996   7.002
94016SOL    HW283946  12.839   1.037   6.941
94017SOL     OW83947   0.865   4.928  10.729
94017SOL    HW183948   0.800   4.860  10.710
94017SOL    HW283949   0.895   4.907  10.817
94018SOL     OW83950   5.444   8.801   2.860
94018SOL    HW183951   5.469   8.794   2.952
94018SOL    HW283952   5.360   8.755   2.855
94019SOL     OW83953   1.081  14.232   4.483
94019SOL    HW183954   1.103  14.155   4.537
94019SOL    HW283955   1.144  14.298   4.511
94020SOL     OW83956   5.679  14.851   8.072
94020SOL    HW183957   5.754   0.025   8.091
94020SOL    HW283958   5.661  14.807   8.155
94021SOL     OW83959   4.191  14.060   5.595
94021SOL    HW183960   4.176  14.078   5.502
94021SOL    HW283961   4.106  14.033   5.629
94022SOL     OW83962   6.742   8.911   7.869
94022SOL    HW183963   6.664   8.900   7.923
94022SOL    HW283964   6.805   8.847   7.904
94023SOL     OW83965   1.280  13.711   2.226
94023SOL    HW183966   1.372  13.683   2.228
94023SOL    HW283967   1.231  13.636   2.260
94024SOL     OW83968  11.871   9.498   2.616
94024SOL    HW183969  11.922   9.504   2.535
94024SOL    HW283970  11.889   9.580   2.662
94025SOL     OW83971  11.370  14.504   1.002
94025SOL    HW183972  11.302  14.566   1.029
94025SOL    HW283973  11.410  14.544   0.925
94026SOL     OW83974   4.801   9.819  14.333
94026SOL    HW183975   4.835   9.739  14.373
94026SOL    HW283976   4.802   9.884  14.403
94027SOL     OW83977  12.685   8.798   9.562
94027SOL    HW183978  12.644   8.722   9.602
94027SOL    HW283979  12.740   8.835   9.631
94028SOL     OW83980   0.577   7.656  13.519
94028SOL    HW183981   0.550   7.640  13.610
94028SOL    HW283982   0.608   7.746  13.519
94029SOL     OW83983   0.216   0.889  14.722
94029SOL    HW183984   0.242   0.863  14.634
94029SOL    HW283985   0.152   0.823  14.749
94030SOL     OW83986   9.495   3.397  10.674
94030SOL    HW183987   9.520   3.371  10.586
94030SOL    HW283988   9.478   3.491  10.668
94031SOL     OW83989   0.273   9.027   7.924
94031SOL    HW183990   0.362   9.048   7.894
94031SOL    HW283991   0.226   9.004   7.844
94032SOL     OW83992  13.353   0.411   6.330
94032SOL    HW183993  13.416   0.375   6.393
94032SOL    HW283994  13.278   0.438   6.384
94033SOL     OW83995   3.754   2.636  11.111
94033SOL    HW183996   3.771   2.546  11.084
94033SOL    HW283997   3.833   2.684  11.087
94034SOL     OW83998   7.798   6.104  10.418
94034SOL    HW183999   7.710   6.101  10.378
94034SOL    HW284000   7.849   6.160  10.359
94035SOL     OW84001   2.430   9.555   0.464
94035SOL    HW184002   2.517   9.595   0.466
94035SOL    HW284003   2.387   9.587   0.543
94036SOL     OW84004   1.491   4.441  12.791
94036SOL    HW184005   1.575   4.446  12.745
94036SOL    HW284006   1.430   4.407  12.726
94037SOL     OW84007  14.415   8.931   5.741
94037SOL    HW184008  14.347   8.929   5.809
94037SOL    HW284009  14.407   8.847   5.696
94038SOL     OW84010  12.804  13.579   1.190
94038SOL    HW184011  12.847  13.500   1.225
94038SOL    HW284012  12.854  13.600   1.111
94039SOL     OW84013   0.956   5.113   5.312
94039SOL    HW184014   0.996   5.113   5.225
94039SOL    HW284015   1.012   5.169   5.365
94040SOL     OW84016  12.469  12.841  10.717
94040SOL    HW184017  12.386  12.800  10.694
94040SOL    HW284018  12.518  12.844  10.635
94041SOL     OW84019  11.079   5.614   0.796
94041SOL    HW184020  11.133   5.681   0.837
94041SOL    HW284021  11.004   5.604   0.856
94042SOL     OW84022   3.841   2.254   2.265
94042SOL    HW184023   3.926   2.270   2.305
94042SOL    HW284024   3.855   2.176   2.210
94043SOL     OW84025  12.166   6.993   7.985
94043SOL    HW184026  12.098   7.041   7.938
94043SOL    HW284027  12.137   6.902   7.983
94044SOL     OW84028   2.004  14.873   9.902
94044SOL    HW184029   2.056  14.820   9.962
94044SOL    HW284030   1.939  14.812   9.867
94045SOL     OW84031  11.654   2.689   9.437
94045SOL    HW184032  11.636   2.773   9.479
94045SOL    HW284033  11.594   2.685   9.363
94046SOL     OW84034  10.509   4.732   4.853
94046SOL    HW184035  10.430   4.677   4.860
94046SOL    HW284036  10.561   4.689   4.785
94047SOL     OW84037  13.880   2.083   1.371
94047SOL    HW184038  13.948   2.018   1.353
94047SOL    HW284039  13.839   2.054   1.452
94048SOL     OW84040   6.496  14.065  13.525
94048SOL    HW184041   6.581  14.039  13.489
94048SOL    HW284042   6.474  13.995  13.586
94049SOL     OW84043   3.264   3.733   7.543
94049SOL    HW184044   3.309   3.811   7.509
94049SOL    HW284045   3.191   3.720   7.483
94050SOL     OW84046   6.166   9.138   8.824
94050SOL    HW184047   6.259   9.118   8.817
94050SOL    HW284048   6.162   9.224   8.866
94051SOL     OW84049   9.823   4.744   6.464
94051SOL    HW184050   9.872   4.696   6.397
94051SOL    HW284051   9.879   4.820   6.484
94052SOL     OW84052   8.296  14.169   2.906
94052SOL    HW184053   8.289  14.263   2.890
94052SOL    HW284054   8.373  14.160   2.963
94053SOL     OW84055  13.117   2.667   6.481
94053SOL    HW184056  13.078   2.623   6.405
94053SOL    HW284057  13.081   2.620   6.556
94054SOL     OW84058   5.369  10.150  11.090
94054SOL    HW184059   5.275  10.138  11.104
94054SOL    HW284060   5.375  10.200  11.008
94055SOL     OW84061  13.518  13.055   6.552
94055SOL    HW184062  13.431  13.041   6.514
94055SOL    HW284063  13.564  13.108   6.486
94056SOL     OW84064   2.677  14.123  10.787
94056SOL    HW184065   2.739  14.098  10.856
94056SOL    HW284066   2.708  14.077  10.709
94057SOL     OW84067  13.735   5.213  11.715
94057SOL    HW184068  13.650   5.217  11.671
94057SOL    HW284069  13.726   5.270  11.792
94058SOL     OW84070   0.859   2.498   1.020
94058SOL    HW184071   0.858   2.402   1.027
94058SOL    HW284072   0.943   2.524   1.058
94059SOL     OW84073  10.643  11.398   4.993
94059SOL    HW184074  10.638  11.304   5.012
94059SOL    HW284075  10.594  11.409   4.912
94060SOL     OW84076  10.642   6.666   7.013
94060SOL    HW184077  10.574   6.647   7.078
94060SOL    HW284078  10.607   6.740   6.964
94061SOL     OW84079  12.102   1.310   9.739
94061SOL    HW184080  12.027   1.363   9.710
94061SOL    HW284081  12.175   1.371   9.741
94062SOL     OW84082   5.077   8.832   8.771
94062SOL    HW184083   5.100   8.801   8.859
94062SOL    HW284084   5.021   8.908   8.787
94063SOL     OW84085   4.988   0.739   3.798
94063SOL    HW184086   4.987   0.669   3.864
94063SOL    HW284087   4.949   0.700   3.720
94064SOL     OW84088   5.765   3.262  10.539
94064SOL    HW184089   5.812   3.179  10.547
94064SOL    HW284090   5.741   3.266  10.446
94065SOL     OW84091   7.426   6.429   3.160
94065SOL    HW184092   7.402   6.444   3.251
94065SOL    HW284093   7.458   6.514   3.129
94066SOL     OW84094   8.447   8.852   7.304
94066SOL    HW184095   8.503   8.812   7.370
94066SOL    HW284096   8.494   8.839   7.221
94067SOL     OW84097   0.982  13.964   8.281
94067SOL    HW184098   0.950  14.036   8.335
94067SOL    HW284099   0.904  13.931   8.236
94068SOL     OW84100  10.630  10.521   1.757
94068SOL    HW184101  10.716  10.521   1.800
94068SOL    HW284102  10.605  10.428   1.754
94069SOL     OW84103   5.523   8.656  12.804
94069SOL    HW184104   5.515   8.748  12.780
94069SOL    HW284105   5.507   8.654  12.898
94070SOL     OW84106   3.205  11.668   8.862
94070SOL    HW184107   3.117  11.695   8.890
94070SOL    HW284108   3.190  11.586   8.815
94071SOL     OW84109   4.821  11.960   8.712
94071SOL    HW184110   4.888  12.029   8.714
94071SOL    HW284111   4.787  11.963   8.622
94072SOL     OW84112   0.148   4.034   3.735
94072SOL    HW184113   0.066   3.990   3.757
94072SOL    HW284114   0.212   3.963   3.725
94073SOL     OW84115   2.568  13.956  14.646
94073SOL    HW184116   2.656  13.990  14.658
94073SOL    HW284117   2.541  13.928  14.734
94074SOL     OW84118   2.300   1.396  13.000
94074SOL    HW184119   2.369   1.427  12.940
94074SOL    HW284120   2.342   1.397  13.086
94075SOL     OW84121   3.400   1.331   9.939
94075SOL    HW184122   3.405   1.355   9.846
94075SOL    HW284123   3.306   1.328   9.958
94076SOL     OW84124  12.608   3.010   8.647
94076SOL    HW184125  12.538   3.029   8.585
94076SOL    HW284126  12.614   3.088   8.701
94077SOL     OW84127  14.012   8.114  10.819
94077SOL    HW184128  14.001   8.119  10.724
94077SOL    HW284129  14.082   8.177  10.838
94078SOL     OW84130   5.957  10.251   2.784
94078SOL    HW184131   5.907  10.185   2.831
94078SOL    HW284132   5.891  10.306   2.741
94079SOL     OW84133  14.343   9.125  14.431
94079SOL    HW184134  14.367   9.183  14.360
94079SOL    HW284135  14.331   9.039  14.390
94080SOL     OW84136   5.617   5.519   5.854
94080SOL    HW184137   5.695   5.570   5.834
94080SOL    HW284138   5.646   5.457   5.921
94081SOL     OW84139   4.705   2.556   8.313
94081SOL    HW184140   4.710   2.591   8.402
94081SOL    HW284141   4.689   2.462   8.325
94082SOL     OW84142  13.665  12.121   6.576
94082SOL    HW184143  13.739  12.070   6.609
94082SOL    HW284144  13.684  12.132   6.482
94083SOL     OW84145   1.296   2.964  13.859
94083SOL    HW184146   1.202   2.947  13.851
94083SOL    HW284147   1.333   2.881  13.886
94084SOL     OW84148   5.109   2.873   2.506
94084SOL    HW184149   5.153   2.792   2.480
94084SOL    HW284150   5.163   2.908   2.577
94085SOL     OW84151  13.590   1.216  12.594
94085SOL    HW184152  13.506   1.217  12.547
94085SOL    HW284153  13.633   1.136  12.565
94086SOL     OW84154   4.632   8.789   7.358
94086SOL    HW184155   4.690   8.859   7.388
94086SOL    HW284156   4.639   8.722   7.426
94087SOL     OW84157   6.281   9.189  13.404
94087SOL    HW184158   6.318   9.211  13.318
94087SOL    HW284159   6.240   9.103  13.391
94088SOL     OW84160   9.152   4.426  10.840
94088SOL    HW184161   9.094   4.423  10.916
94088SOL    HW284162   9.177   4.518  10.833
94089SOL     OW84163  10.980   0.708   8.248
94089SOL    HW184164  11.036   0.672   8.179
94089SOL    HW284165  10.908   0.646   8.257
94090SOL     OW84166   4.151   4.694   9.550
94090SOL    HW184167   4.176   4.666   9.639
94090SOL    HW284168   4.218   4.757   9.525
94091SOL     OW84169  14.078   7.473   1.255
94091SOL    HW184170  14.079   7.512   1.168
94091SOL    HW284171  13.985   7.468   1.278
94092SOL     OW84172  10.652  13.896   2.245
94092SOL    HW184173  10.661  13.885   2.340
94092SOL    HW284174  10.579  13.958   2.236
94093SOL     OW84175   9.195  13.805   3.656
94093SOL    HW184176   9.137  13.875   3.686
94093SOL    HW284177   9.189  13.738   3.724
94094SOL     OW84178   8.936   6.658   2.280
94094SOL    HW184179   9.001   6.705   2.229
94094SOL    HW284180   8.853   6.701   2.259
94095SOL     OW84181  14.141   4.180   8.038
94095SOL    HW184182  14.155   4.262   8.085
94095SOL    HW284183  14.168   4.112   8.099
94096SOL     OW84184   1.389  10.000  10.276
94096SOL    HW184185   1.407  10.079  10.225
94096SOL    HW284186   1.385  10.031  10.367
94097SOL     OW84187  13.064   4.271   1.845
94097SOL    HW184188  13.099   4.272   1.756
94097SOL    HW284189  13.142   4.272   1.901
94098SOL     OW84190   1.184   2.188   8.694
94098SOL    HW184191   1.146   2.210   8.609
94098SOL    HW284192   1.109   2.186   8.754
94099SOL     OW84193   7.539  13.425  14.682
94099SOL    HW184194   7.561  13.504  14.732
94099SOL    HW284195   7.518  13.359  14.747
94100SOL     OW84196  14.155   0.446   8.790
94100SOL    HW184197  14.099   0.441   8.868
94100SOL    HW284198  14.150   0.358   8.752
94101SOL     OW84199  14.403   0.618   5.333
94101SOL    HW184200  14.321   0.590   5.293
94101SOL    HW284201  14.419   0.705   5.297
94102SOL     OW84202  13.206   5.317   5.291
94102SOL    HW184203  13.115   5.345   5.285
94102SOL    HW284204  13.202   5.223   5.308
94103SOL     OW84205  10.450  11.634   8.951
94103SOL    HW184206  10.399  11.571   9.003
94103SOL    HW284207  10.407  11.635   8.866
94104SOL     OW84208   0.007  14.657   3.735
94104SOL    HW184209   0.012  14.734   3.792
94104SOL    HW284210   0.024  14.691   3.648
94105SOL     OW84211   3.137   9.307   8.955
94105SOL    HW184212   3.100   9.347   8.876
94105SOL    HW284213   3.164   9.219   8.926
94106SOL     OW84214   6.745   8.200   5.709
94106SOL    HW184215   6.685   8.271   5.688
94106SOL    HW284216   6.733   8.185   5.803
94107SOL     OW84217   3.277   0.759   8.907
94107SOL    HW184218   3.213   0.811   8.954
94107SOL    HW284219   3.225   0.702   8.850
94108SOL     OW84220  14.193   8.808   3.639
94108SOL    HW184221  14.194   8.725   3.687
94108SOL    HW284222  14.115   8.854   3.672
94109SOL     OW84223   7.533  14.082  11.195
94109SOL    HW184224   7.547  13.998  11.239
94109SOL    HW284225   7.444  14.076  11.161
94110SOL     OW84226  11.238   0.596   3.303
94110SOL    HW184227  11.191   0.562   3.379
94110SOL    HW284228  11.324   0.554   3.307
94111SOL     OW84229   1.469   6.133   5.902
94111SOL    HW184230   1.393   6.191   5.907
94111SOL    HW284231   1.493   6.132   5.809
94112SOL     OW84232   6.146   1.199  11.142
94112SOL    HW184233   6.093   1.241  11.210
94112SOL    HW284234   6.086   1.138  11.099
94113SOL     OW84235   8.947  13.804   9.890
94113SOL    HW184236   8.986  13.760   9.814
94113SOL    HW284237   8.893  13.736   9.932
94114SOL     OW84238  10.015   0.957   0.605
94114SOL    HW184239  10.105   0.963   0.640
94114SOL    HW284240  10.005   1.034   0.550
94115SOL     OW84241   9.514   5.097   1.161
94115SOL    HW184242   9.529   5.085   1.068
94115SOL    HW284243   9.598   5.075   1.202
94116SOL     OW84244   8.039   3.559   7.775
94116SOL    HW184245   7.994   3.643   7.762
94116SOL    HW284246   8.002   3.502   7.708
94117SOL     OW84247   3.649  11.464  10.987
94117SOL    HW184248   3.729  11.411  10.984
94117SOL    HW284249   3.680  11.553  11.004
94118SOL     OW84250   3.647   5.421   8.418
94118SOL    HW184251   3.643   5.479   8.494
94118SOL    HW284252   3.583   5.458   8.357
94119SOL     OW84253   0.346  10.872   2.109
94119SOL    HW184254   0.411  10.823   2.159
94119SOL    HW284255   0.299  10.805   2.059
94120SOL     OW84256   0.484   7.740   4.495
94120SOL    HW184257   0.528   7.752   4.579
94120SOL    HW284258   0.539   7.785   4.432
94121SOL     OW84259   1.613  12.671   6.782
94121SOL    HW184260   1.674  12.726   6.734
94121SOL    HW284261   1.553  12.638   6.715
94122SOL     OW84262   6.994   4.100  14.112
94122SOL    HW184263   6.941   4.145  14.177
94122SOL    HW284264   7.022   4.169  14.052
94123SOL     OW84265   3.230   7.907   2.857
94123SOL    HW184266   3.164   7.899   2.788
94123SOL    HW284267   3.201   7.980   2.911
94124SOL     OW84268   0.035  12.169   3.760
94124SOL    HW184269  14.832  12.137   3.730
94124SOL    HW284270   0.045  12.132   3.848
94125SOL     OW84271   2.793   3.500   2.969
94125SOL    HW184272   2.870   3.457   2.930
94125SOL    HW284273   2.753   3.548   2.897
94126SOL     OW84274   1.133   2.822   3.288
94126SOL    HW184275   1.137   2.727   3.278
94126SOL    HW284276   1.196   2.855   3.223
94127SOL     OW84277   7.894   1.315  12.851
94127SOL    HW184278   7.871   1.288  12.763
94127SOL    HW284279   7.922   1.235  12.895
94128SOL     OW84280   7.872   8.335  12.143
94128SOL    HW184281   7.961   8.349  12.176
94128SOL    HW284282   7.880   8.343  12.048
94129SOL     OW84283   4.892   4.072   0.389
94129SOL    HW184284   4.806   4.033   0.376
94129SOL    HW284285   4.931   4.021   0.460
94130SOL     OW84286   7.082   8.200   1.829
94130SOL    HW184287   6.997   8.237   1.852
94130SOL    HW284288   7.129   8.271   1.786
94131SOL     OW84289   5.613   9.116  10.623
94131SOL    HW184290   5.595   9.031  10.664
94131SOL    HW284291   5.611   9.099  10.529
94132SOL     OW84292  11.516  12.746   3.199
94132SOL    HW184293  11.591  12.702   3.240
94132SOL    HW284294  11.553  12.827   3.163
94133SOL     OW84295   8.481   1.013   3.560
94133SOL    HW184296   8.388   1.008   3.582
94133SOL    HW284297   8.525   0.965   3.630
94134SOL     OW84298   5.485   7.672   9.092
94134SOL    HW184299   5.561   7.713   9.132
94134SOL    HW284300   5.517   7.636   9.010
94135SOL     OW84301  14.571   5.897  12.239
94135SOL    HW184302  14.562   5.989  12.216
94135SOL    HW284303  14.508   5.852  12.182
94136SOL     OW84304  14.795   7.942   8.826
94136SOL    HW184305  14.784   8.017   8.885
94136SOL    HW284306  14.716   7.943   8.771
94137SOL     OW84307  11.057   5.777  11.763
94137SOL    HW184308  10.967   5.788  11.731
94137SOL    HW284309  11.105   5.742  11.688
94138SOL     OW84310  11.614   0.389   0.276
94138SOL    HW184311  11.644   0.472   0.315
94138SOL    HW284312  11.518   0.392   0.286
94139SOL     OW84313   2.303   7.817   0.298
94139SOL    HW184314   2.248   7.748   0.335
94139SOL    HW284315   2.364   7.771   0.241
94140SOL     OW84316   5.649   1.488   3.795
94140SOL    HW184317   5.562   1.450   3.787
94140SOL    HW284318   5.707   1.424   3.755
94141SOL     OW84319   0.381   2.009   5.833
94141SOL    HW184320   0.382   2.095   5.875
94141SOL    HW284321   0.458   2.010   5.776
94142SOL     OW84322  13.540   8.509  10.319
94142SOL    HW184323  13.607   8.577  10.304
94142SOL    HW284324  13.490   8.507  10.238
94143SOL     OW84325   4.745   2.432   5.214
94143SOL    HW184326   4.770   2.393   5.131
94143SOL    HW284327   4.781   2.373   5.280
94144SOL     OW84328  12.387   7.858   7.405
94144SOL    HW184329  12.460   7.919   7.415
94144SOL    HW284330  12.317   7.910   7.366
94145SOL     OW84331  12.772  13.119   8.110
94145SOL    HW184332  12.689  13.155   8.140
94145SOL    HW284333  12.839  13.171   8.155
94146SOL     OW84334   2.328  11.780   0.364
94146SOL    HW184335   2.355  11.696   0.327
94146SOL    HW284336   2.287  11.826   0.292
94147SOL     OW84337   1.337  14.453  12.169
94147SOL    HW184338   1.389  14.533  12.158
94147SOL    HW284339   1.391  14.384  12.130
94148SOL     OW84340   5.416   4.591  14.287
94148SOL    HW184341   5.332   4.550  14.267
94148SOL    HW284342   5.470   4.574  14.210
94149SOL     OW84343   8.370   6.500   9.565
94149SOL    HW184344   8.446   6.464   9.610
94149SOL    HW284345   8.405   6.537   9.484
94150SOL     OW84346   3.801   2.546  11.497
94150SOL    HW184347   3.830   2.524  11.408
94150SOL    HW284348   3.707   2.530  11.496
94151SOL     OW84349  14.636   1.209  10.273
94151SOL    HW184350  14.637   1.305  10.276
94151SOL    HW284351  14.706   1.187  10.211
94152SOL     OW84352   6.483   6.301  11.301
94152SOL    HW184353   6.493   6.379  11.246
94152SOL    HW284354   6.418   6.248  11.255
94153SOL     OW84355   9.372  13.794   0.583
94153SOL    HW184356   9.423  13.875   0.581
94153SOL    HW284357   9.372  13.767   0.675
94154SOL     OW84358   0.115   4.685   7.163
94154SOL    HW184359   0.026   4.707   7.134
94154SOL    HW284360   0.171   4.708   7.090
94155SOL     OW84361   8.776   6.451  10.065
94155SOL    HW184362   8.851   6.405  10.028
94155SOL    HW284363   8.812   6.504  10.136
94156SOL     OW84364  13.722   6.721   7.203
94156SOL    HW184365  13.753   6.663   7.273
94156SOL    HW284366  13.674   6.790   7.249
94157SOL     OW84367   0.044   2.525   5.710
94157SOL    HW184368   0.009   2.477   5.635
94157SOL    HW284369   0.035   2.465   5.783
94158SOL     OW84370  13.212   0.115   7.942
94158SOL    HW184371  13.239   0.077   7.858
94158SOL    HW284372  13.268   0.192   7.952
94159SOL     OW84373   3.838   7.859   3.641
94159SOL    HW184374   3.916   7.913   3.656
94159SOL    HW284375   3.822   7.866   3.547
94160SOL     OW84376   8.836  13.227   3.017
94160SOL    HW184377   8.769  13.262   2.957
94160SOL    HW284378   8.917  13.269   2.989
94161SOL     OW84379   2.529   2.011   9.658
94161SOL    HW184380   2.608   2.021   9.604
94161SOL    HW284381   2.459   1.995   9.594
94162SOL     OW84382   7.565   0.159   2.376
94162SOL    HW184383   7.475   0.188   2.387
94162SOL    HW284384   7.578   0.094   2.445
94163SOL     OW84385  10.449   9.220  14.681
94163SOL    HW184386  10.462   9.274  14.759
94163SOL    HW284387  10.443   9.131  14.715
94164SOL     OW84388  12.245  14.380   6.952
94164SOL    HW184389  12.317  14.351   7.007
94164SOL    HW284390  12.206  14.454   6.999
94165SOL     OW84391   3.625   2.383   6.743
94165SOL    HW184392   3.632   2.289   6.753
94165SOL    HW284393   3.715   2.416   6.748
94166SOL     OW84394   5.655   8.111  12.649
94166SOL    HW184395   5.563   8.090  12.664
94166SOL    HW284396   5.657   8.146  12.560
94167SOL     OW84397  14.080  11.834   3.079
94167SOL    HW184398  14.167  11.842   3.040
94167SOL    HW284399  14.033  11.912   3.051
94168SOL     OW84400   0.662  13.394   7.150
94168SOL    HW184401   0.746  13.367   7.187
94168SOL    HW284402   0.624  13.314   7.114
94169SOL     OW84403   4.428   6.231   4.344
94169SOL    HW184404   4.489   6.263   4.411
94169SOL    HW284405   4.413   6.140   4.367
94170SOL     OW84406   9.779   4.364   7.258
94170SOL    HW184407   9.817   4.443   7.220
94170SOL    HW284408   9.745   4.315   7.183
94171SOL     OW84409   7.406  10.859   0.871
94171SOL    HW184410   7.335  10.825   0.817
94171SOL    HW284411   7.482  10.804   0.849
94172SOL     OW84412   7.945   6.559  11.097
94172SOL    HW184413   7.939   6.485  11.158
94172SOL    HW284414   7.898   6.630  11.141
94173SOL     OW84415  13.649   8.183   0.405
94173SOL    HW184416  13.605   8.267   0.415
94173SOL    HW284417  13.740   8.207   0.385
94174SOL     OW84418   6.303   7.113   7.050
94174SOL    HW184419   6.341   7.030   7.024
94174SOL    HW284420   6.375   7.163   7.089
94175SOL     OW84421   5.425  13.483  14.018
94175SOL    HW184422   5.412  13.534  14.098
94175SOL    HW284423   5.340  13.441  14.002
94176SOL     OW84424  14.052   4.960   1.024
94176SOL    HW184425  14.091   4.998   1.103
94176SOL    HW284426  14.002   4.885   1.056
94177SOL     OW84427  14.488   2.807   9.358
94177SOL    HW184428  14.556   2.853   9.308
94177SOL    HW284429  14.519   2.808   9.448
94178SOL     OW84430   4.081   0.019  10.233
94178SOL    HW184431   4.021   0.070  10.288
94178SOL    HW284432   4.024  14.860  10.167
94179SOL     OW84433  10.330  14.049  13.322
94179SOL    HW184434  10.388  13.973  13.321
94179SOL    HW284435  10.314  14.069  13.230
94180SOL     OW84436  14.101  14.842  12.503
94180SOL    HW184437  14.153  14.832  12.424
94180SOL    HW284438  14.011  14.821  12.477
94181SOL     OW84439   4.946   9.922  14.082
94181SOL    HW184440   4.913  10.007  14.052
94181SOL    HW284441   4.882   9.893  14.147
94182SOL     OW84442   8.967  12.190   3.989
94182SOL    HW184443   8.890  12.246   3.991
94182SOL    HW284444   8.934  12.102   4.008
94183SOL     OW84445   8.977   5.489   5.431
94183SOL    HW184446   8.886   5.516   5.419
94183SOL    HW284447   9.016   5.559   5.484
94184SOL     OW84448   6.593   7.403  11.435
94184SOL    HW184449   6.579   7.461  11.510
94184SOL    HW284450   6.589   7.315  11.472
94185SOL     OW84451  10.440   5.253   0.701
94185SOL    HW184452  10.535   5.240   0.706
94185SOL    HW284453  10.430   5.332   0.649
94186SOL     OW84454   8.413  13.072   5.425
94186SOL    HW184455   8.426  12.999   5.364
94186SOL    HW284456   8.422  13.032   5.511
94187SOL     OW84457  12.647   2.481  12.512
94187SOL    HW184458  12.702   2.446  12.441
94187SOL    HW284459  12.664   2.424  12.586
94188SOL     OW84460   0.711   0.589  11.000
94188SOL    HW184461   0.676   0.571  11.087
94188SOL    HW284462   0.805   0.599  11.013
94189SOL     OW84463   1.674   9.656   5.526
94189SOL    HW184464   1.757   9.646   5.479
94189SOL    HW284465   1.607   9.643   5.459
94190SOL     OW84466  11.405   5.183  13.875
94190SOL    HW184467  11.326   5.207  13.826
94190SOL    HW284468  11.390   5.217  13.963
94191SOL     OW84469  13.747   5.241   6.263
94191SOL    HW184470  13.778   5.289   6.340
94191SOL    HW284471  13.651   5.249   6.268
94192SOL     OW84472   9.994   2.373   0.151
94192SOL    HW184473   9.933   2.319   0.102
94192SOL    HW284474  10.061   2.399   0.088
94193SOL     OW84475  13.880   7.687   4.213
94193SOL    HW184476  13.824   7.620   4.251
94193SOL    HW284477  13.825   7.728   4.146
94194SOL     OW84478  14.842   7.694   2.603
94194SOL    HW184479  14.811   7.780   2.633
94194SOL    HW284480   0.048   7.686   2.641
94195SOL     OW84481   0.477   4.273  13.284
94195SOL    HW184482   0.434   4.230  13.358
94195SOL    HW284483   0.407   4.317  13.237
94196SOL     OW84484   9.793   0.176   4.205
94196SOL    HW184485   9.875   0.199   4.160
94196SOL    HW284486   9.728   0.170   4.135
94197SOL     OW84487  10.710  13.769  14.612
94197SOL    HW184488  10.755  13.706  14.667
94197SOL    HW284489  10.774  13.839  14.597
94198SOL     OW84490  11.786   0.784   1.093
94198SOL    HW184491  11.779   0.688   1.096
94198SOL    HW284492  11.701   0.816   1.123
94199SOL     OW84493  10.265   0.478  14.275
94199SOL    HW184494  10.235   0.395  14.238
94199SOL    HW284495  10.184   0.521  14.303
94200SOL     OW84496   5.306  13.374   0.993
94200SOL    HW184497   5.294  13.298   0.936
94200SOL    HW284498   5.238  13.435   0.966
94201SOL     OW84499   9.078   0.171   0.779
94201SOL    HW184500   9.056   0.255   0.738
94201SOL    HW284501   9.068   0.188   0.873
94202SOL     OW84502  13.809   0.008  11.874
94202SOL    HW184503  13.788   0.080  11.934
94202SOL    HW284504  13.902  14.873  11.887
94203SOL     OW84505   1.826  12.228  12.687
94203SOL    HW184506   1.849  12.283  12.613
94203SOL    HW284507   1.754  12.174  12.655
94204SOL     OW84508  14.372   4.945   5.547
94204SOL    HW184509  14.345   5.036   5.532
94204SOL    HW284510  14.337   4.897   5.472
94205SOL     OW84511   1.649   8.807  14.007
94205SOL    HW184512   1.583   8.738  13.997
94205SOL    HW284513   1.680   8.798  14.097
94206SOL     OW84514   8.319   2.394   9.776
94206SOL    HW184515   8.364   2.348   9.704
94206SOL    HW284516   8.387   2.448   9.816
94207SOL     OW84517  12.928   9.136   6.941
94207SOL    HW184518  12.997   9.134   7.008
94207SOL    HW284519  12.921   9.045   6.912
94208SOL     OW84520   7.793   3.997   7.933
94208SOL    HW184521   7.744   3.939   7.992
94208SOL    HW284522   7.874   3.949   7.914
94209SOL     OW84523  10.773  13.033  14.654
94209SOL    HW184524  10.698  13.054  14.599
94209SOL    HW284525  10.794  12.942  14.634
94210SOL     OW84526   0.118  12.042   4.838
94210SOL    HW184527   0.181  12.068   4.906
94210SOL    HW284528   0.094  11.952   4.862
94211SOL     OW84529   8.173   2.842   3.396
94211SOL    HW184530   8.205   2.878   3.314
94211SOL    HW284531   8.242   2.863   3.460
94212SOL     OW84532   6.963  13.134   9.592
94212SOL    HW184533   7.004  13.133   9.678
94212SOL    HW284534   7.032  13.103   9.533
94213SOL     OW84535   3.107  13.610   2.990
94213SOL    HW184536   3.021  13.654   2.993
94213SOL    HW284537   3.090  13.522   3.025
94214SOL     OW84538   9.120   3.348  12.858
94214SOL    HW184539   9.037   3.304  12.842
94214SOL    HW284540   9.110   3.391  12.943
94215SOL     OW84541   3.776  14.699   6.693
94215SOL    HW184542   3.773  14.756   6.771
94215SOL    HW284543   3.691  14.712   6.651
94216SOL     OW84544  13.180   9.522   8.316
94216SOL    HW184545  13.222   9.455   8.370
94216SOL    HW284546  13.242   9.595   8.316
94217SOL     OW84547   3.824   5.483  14.113
94217SOL    HW184548   3.849   5.396  14.083
94217SOL    HW284549   3.852   5.487  14.204
94218SOL     OW84550   1.712  14.188  14.371
94218SOL    HW184551   1.759  14.230  14.299
94218SOL    HW284552   1.777  14.129  14.410
94219SOL     OW84553  13.067  13.369   0.703
94219SOL    HW184554  13.160  13.387   0.690
94219SOL    HW284555  13.025  13.392   0.620
94220SOL     OW84556   1.229   9.160  13.088
94220SOL    HW184557   1.269   9.106  13.156
94220SOL    HW284558   1.182   9.098  13.032
94221SOL     OW84559   1.215   0.969  14.027
94221SOL    HW184560   1.283   0.947  14.091
94221SOL    HW284561   1.215   0.896  13.966
94222SOL     OW84562   6.634  14.135   1.557
94222SOL    HW184563   6.692  14.193   1.508
94222SOL    HW284564   6.546  14.162   1.532
94223SOL     OW84565  13.411   3.972   1.600
94223SOL    HW184566  13.321   3.969   1.567
94223SOL    HW284567  13.404   3.948   1.692
94224SOL     OW84568  12.122   5.022  14.479
94224SOL    HW184569  12.028   5.012  14.493
94224SOL    HW284570  12.131   5.109  14.440
94225SOL     OW84571   6.169   9.986   4.349
94225SOL    HW184572   6.162  10.079   4.326
94225SOL    HW284573   6.258   9.977   4.383
94226SOL     OW84574  12.891   3.413   8.869
94226SOL    HW184575  12.906   3.444   8.780
94226SOL    HW284576  12.977   3.417   8.911
94227SOL     OW84577   9.051   5.041   8.908
94227SOL    HW184578   9.033   5.135   8.896
94227SOL    HW284579   9.139   5.029   8.871
94228SOL     OW84580  12.364   7.724  12.420
94228SOL    HW184581  12.326   7.762  12.342
94228SOL    HW284582  12.457   7.715  12.399
94229SOL     OW84583   8.725   2.278   2.208
94229SOL    HW184584   8.818   2.258   2.196
94229SOL    HW284585   8.679   2.210   2.159
94230SOL     OW84586   8.823   0.011  14.461
94230SOL    HW184587   8.764   0.046  14.527
94230SOL    HW284588   8.887   0.081  14.446
94231SOL     OW84589   0.835  12.443   5.495
94231SOL    HW184590   0.893  12.383   5.448
94231SOL    HW284591   0.895  12.492   5.552
94232SOL     OW84592   2.816  10.492   6.589
94232SOL    HW184593   2.734  10.494   6.539
94232SOL    HW284594   2.822  10.401   6.619
94233SOL     OW84595  11.772   9.001  11.045
94233SOL    HW184596  11.857   8.960  11.030
94233SOL    HW284597  11.755   8.988  11.138
94234SOL     OW84598   1.271   7.236   0.674
94234SOL    HW184599   1.244   7.327   0.681
94234SOL    HW284600   1.345   7.237   0.614
94235SOL     OW84601  10.851  10.752  11.489
94235SOL    HW184602  10.928  10.780  11.538
94235SOL    HW284603  10.885  10.692  11.422
94236SOL     OW84604   7.283  10.338  12.908
94236SOL    HW184605   7.269  10.421  12.864
94236SOL    HW284606   7.375  10.340  12.935
94237SOL     OW84607  11.694  11.351  11.093
94237SOL    HW184608  11.671  11.360  11.000
94237SOL    HW284609  11.779  11.307  11.093
94238SOL     OW84610  14.128   0.610   9.744
94238SOL    HW184611  14.123   0.605   9.649
94238SOL    HW284612  14.043   0.577   9.775
94239SOL     OW84613  12.003   5.221   4.048
94239SOL    HW184614  12.019   5.291   4.111
94239SOL    HW284615  11.921   5.244   4.005
94240SOL     OW84616   1.652   4.848   7.049
94240SOL    HW184617   1.618   4.898   7.124
94240SOL    HW284618   1.606   4.884   6.974
94241SOL     OW84619  10.123   1.367   0.396
94241SOL    HW184620  10.082   1.450   0.369
94241SOL    HW284621  10.137   1.378   0.490
94242SOL     OW84622  14.237   0.858   1.408
94242SOL    HW184623  14.236   0.817   1.495
94242SOL    HW284624  14.160   0.821   1.364
94243SOL     OW84625   9.914   4.044   9.287
94243SOL    HW184626   9.850   4.113   9.270
94243SOL    HW284627   9.871   3.986   9.349
94244SOL     OW84628   5.279   7.408  10.081
94244SOL    HW184629   5.219   7.464  10.032
94244SOL    HW284630   5.224   7.363  10.145
94245SOL     OW84631   6.831   1.526   5.823
94245SOL    HW184632   6.808   1.462   5.890
94245SOL    HW284633   6.798   1.489   5.741
94246SOL     OW84634  13.417   7.134  13.175
94246SOL    HW184635  13.361   7.200  13.216
94246SOL    HW284636  13.506   7.167  13.187
94247SOL     OW84637   4.125   0.619   1.860
94247SOL    HW184638   4.081   0.677   1.798
94247SOL    HW284639   4.194   0.673   1.898
94248SOL     OW84640  12.012   0.884   6.663
94248SOL    HW184641  11.927   0.917   6.692
94248SOL    HW284642  12.000   0.866   6.570
94249SOL     OW84643  11.114  11.303  12.138
94249SOL    HW184644  11.052  11.375  12.151
94249SOL    HW284645  11.080  11.255  12.062
94250SOL     OW84646   5.714   4.562   8.378
94250SOL    HW184647   5.687   4.473   8.352
94250SOL    HW284648   5.665   4.620   8.320
94251SOL     OW84649   9.628   7.521   3.296
94251SOL    HW184650   9.534   7.527   3.275
94251SOL    HW284651   9.639   7.432   3.331
94252SOL     OW84652   3.392   6.997  10.380
94252SOL    HW184653   3.404   6.977  10.287
94252SOL    HW284654   3.391   7.093  10.384
94253SOL     OW84655   9.301   1.527   7.618
94253SOL    HW184656   9.261   1.440   7.615
94253SOL    HW284657   9.274   1.569   7.537
94254SOL     OW84658   7.930  11.901   6.306
94254SOL    HW184659   7.946  11.811   6.278
94254SOL    HW284660   7.916  11.895   6.400
94255SOL     OW84661   9.121   4.845   1.284
94255SOL    HW184662   9.144   4.930   1.246
94255SOL    HW284663   9.201   4.817   1.328
94256SOL     OW84664  11.702  10.903   5.543
94256SOL    HW184665  11.796  10.904   5.531
94256SOL    HW284666  11.690  10.880   5.636
94257SOL     OW84667  10.986  10.480   7.758
94257SOL    HW184668  11.002  10.570   7.785
94257SOL    HW284669  10.945  10.488   7.671
94258SOL     OW84670   3.105  11.076   3.898
94258SOL    HW184671   3.022  11.045   3.935
94258SOL    HW284672   3.108  11.036   3.811
94259SOL     OW84673  11.943   3.428   7.857
94259SOL    HW184674  11.860   3.462   7.824
94259SOL    HW284675  11.985   3.503   7.899
94260SOL     OW84676  10.084   8.702   3.796
94260SOL    HW184677  10.175   8.703   3.825
94260SOL    HW284678  10.087   8.734   3.706
94261SOL     OW84679  12.085  13.873   8.092
94261SOL    HW184680  12.093  13.783   8.060
94261SOL    HW284681  12.127  13.927   8.024
94262SOL     OW84682   2.234   4.776   8.198
94262SOL    HW184683   2.267   4.840   8.261
94262SOL    HW284684   2.145   4.757   8.226
94263SOL     OW84685   2.841   8.731   4.769
94263SOL    HW184686   2.769   8.672   4.790
94263SOL    HW284687   2.859   8.715   4.677
94264SOL     OW84688  14.388   8.735   2.668
94264SOL    HW184689  14.403   8.763   2.577
94264SOL    HW284690  14.391   8.816   2.719
94265SOL     OW84691   7.140   5.564   9.475
94265SOL    HW184692   7.168   5.485   9.522
94265SOL    HW284693   7.222   5.608   9.451
94266SOL     OW84694   6.656  11.870  14.468
94266SOL    HW184695   6.706  11.824  14.536
94266SOL    HW284696   6.589  11.919  14.517
94267SOL     OW84697   0.748   0.371  13.488
94267SOL    HW184698   0.703   0.455  13.478
94267SOL    HW284699   0.677   0.309  13.507
94268SOL     OW84700   7.928   3.072   2.803
94268SOL    HW184701   7.954   2.993   2.756
94268SOL    HW284702   7.911   3.136   2.735
94269SOL     OW84703  10.880   0.852  13.231
94269SOL    HW184704  10.914   0.941  13.240
94269SOL    HW284705  10.856   0.844  13.139
94270SOL     OW84706   2.504   7.107   4.653
94270SOL    HW184707   2.523   7.187   4.606
94270SOL    HW284708   2.431   7.067   4.606
94271SOL     OW84709   9.431  10.962   6.023
94271SOL    HW184710   9.339  10.943   6.003
94271SOL    HW284711   9.479  10.888   5.987
94272SOL     OW84712   7.753  11.584   9.814
94272SOL    HW184713   7.676  11.629   9.780
94272SOL    HW284714   7.769  11.624   9.899
94273SOL     OW84715   3.347  10.856  13.163
94273SOL    HW184716   3.318  10.848  13.254
94273SOL    HW284717   3.434  10.816  13.162
94274SOL     OW84718   4.266   0.059   1.667
94274SOL    HW184719   4.322  14.869   1.637
94274SOL    HW284720   4.297   0.135   1.618
94275SOL     OW84721  12.583   9.311   6.609
94275SOL    HW184722  12.676   9.308   6.586
94275SOL    HW284723  12.545   9.375   6.549
94276SOL     OW84724   8.527  14.489  12.783
94276SOL    HW184725   8.488  14.531  12.706
94276SOL    HW284726   8.455  14.439  12.822
94277SOL     OW84727   3.768   7.313   9.528
94277SOL    HW184728   3.859   7.343   9.532
94277SOL    HW284729   3.756   7.284   9.438
94278SOL     OW84730   5.183   7.229   8.404
94278SOL    HW184731   5.262   7.281   8.388
94278SOL    HW284732   5.122   7.291   8.444
94279SOL     OW84733   1.095   2.446  12.937
94279SOL    HW184734   1.122   2.531  12.973
94279SOL    HW284735   1.162   2.427  12.871
94280SOL     OW84736  14.298   1.481  10.319
94280SOL    HW184737  14.302   1.398  10.366
94280SOL    HW284738  14.226   1.469  10.256
94281SOL     OW84739  13.056  12.771   9.531
94281SOL    HW184740  13.022  12.807   9.449
94281SOL    HW284741  13.077  12.680   9.510
94282SOL     OW84742  13.527   0.684  10.390
94282SOL    HW184743  13.616   0.655  10.370
94282SOL    HW284744  13.483   0.687  10.305
94283SOL     OW84745  13.132   9.566   0.816
94283SOL    HW184746  13.047   9.526   0.796
94283SOL    HW284747  13.195   9.495   0.805
94284SOL     OW84748   9.096   9.974  11.360
94284SOL    HW184749   9.097   9.911  11.288
94284SOL    HW284750   9.162  10.039  11.336
94285SOL     OW84751   1.941   0.879   2.801
94285SOL    HW184752   2.010   0.829   2.843
94285SOL    HW284753   1.970   0.889   2.710
94286SOL     OW84754   5.035   1.211   7.640
94286SOL    HW184755   4.980   1.175   7.709
94286SOL    HW284756   5.112   1.155   7.638
94287SOL     OW84757   8.455   7.471   8.425
94287SOL    HW184758   8.416   7.546   8.380
94287SOL    HW284759   8.416   7.472   8.512
94288SOL     OW84760   0.583   6.920   5.092
94288SOL    HW184761   0.501   6.964   5.112
94288SOL    HW284762   0.625   6.907   5.176
94289SOL     OW84763  10.960  14.126   6.325
94289SOL    HW184764  11.016  14.131   6.248
94289SOL    HW284765  10.967  14.034   6.354
94290SOL     OW84766   7.398   1.914  12.062
94290SOL    HW184767   7.342   1.968  12.005
94290SOL    HW284768   7.451   1.978  12.110
94291SOL     OW84769  12.144   6.756   2.565
94291SOL    HW184770  12.080   6.701   2.521
94291SOL    HW284771  12.131   6.843   2.527
94292SOL     OW84772  13.247   7.773   2.227
94292SOL    HW184773  13.330   7.818   2.248
94292SOL    HW284774  13.193   7.786   2.305
94293SOL     OW84775   7.265   1.402   4.055
94293SOL    HW184776   7.224   1.449   3.983
94293SOL    HW284777   7.274   1.312   4.023
94294SOL     OW84778  11.656   2.931  13.145
94294SOL    HW184779  11.675   2.873  13.218
94294SOL    HW284780  11.657   2.874  13.068
94295SOL     OW84781  14.708  10.461   2.745
94295SOL    HW184782  14.782  10.512   2.778
94295SOL    HW284783  14.673  10.513   2.673
94296SOL     OW84784   1.966  11.779  12.235
94296SOL    HW184785   1.905  11.793  12.162
94296SOL    HW284786   1.931  11.703  12.282
94297SOL     OW84787  14.743  11.839   4.403
94297SOL    HW184788  14.655  11.828   4.369
94297SOL    HW284789  14.792  11.880   4.331
94298SOL     OW84790   5.206   0.333   6.968
94298SOL    HW184791   5.134   0.391   6.991
94298SOL    HW284792   5.273   0.350   7.035
94299SOL     OW84793   3.127   0.908   5.524
94299SOL    HW184794   3.159   0.999   5.528
94299SOL    HW284795   3.169   0.872   5.446
94300SOL     OW84796   6.210  14.275   2.221
94300SOL    HW184797   6.243  14.200   2.172
94300SOL    HW284798   6.289  14.320   2.251
94301SOL     OW84799   4.713  12.834  13.770
94301SOL    HW184800   4.636  12.800  13.816
94301SOL    HW284801   4.705  12.801  13.681
94302SOL     OW84802   4.971  13.803  11.655
94302SOL    HW184803   5.002  13.799  11.564
94302SOL    HW284804   4.951  13.712  11.678
94303SOL     OW84805   2.013   5.410  12.764
94303SOL    HW184806   1.949   5.358  12.812
94303SOL    HW284807   2.004   5.499  12.799
94304SOL     OW84808  11.983   2.566   1.486
94304SOL    HW184809  11.998   2.562   1.392
94304SOL    HW284810  12.008   2.479   1.518
94305SOL     OW84811   3.887  10.011  11.510
94305SOL    HW184812   3.804   9.962  11.506
94305SOL    HW284813   3.861  10.102  11.496
94306SOL     OW84814  11.250  12.431   2.445
94306SOL    HW184815  11.158  12.456   2.447
94306SOL    HW284816  11.279  12.455   2.357
94307SOL     OW84817   6.469   5.998   5.529
94307SOL    HW184818   6.488   5.926   5.469
94307SOL    HW284819   6.484   5.961   5.616
94308SOL     OW84820   2.677   9.338   6.956
94308SOL    HW184821   2.755   9.367   6.909
94308SOL    HW284822   2.606   9.393   6.924
94309SOL     OW84823  14.117  14.207   9.244
94309SOL    HW184824  14.073  14.136   9.289
94309SOL    HW284825  14.210  14.196   9.265
94310SOL     OW84826   4.540   7.705   8.449
94310SOL    HW184827   4.485   7.637   8.488
94310SOL    HW284828   4.577   7.752   8.524
94311SOL     OW84829  12.221   0.131  13.912
94311SOL    HW184830  12.303   0.110  13.956
94311SOL    HW284831  12.189   0.210  13.957
94312SOL     OW84832   3.382  14.656   8.701
94312SOL    HW184833   3.403  14.625   8.789
94312SOL    HW284834   3.286  14.663   8.700
94313SOL     OW84835   0.812   2.195   8.102
94313SOL    HW184836   0.808   2.249   8.023
94313SOL    HW284837   0.816   2.105   8.069
94314SOL     OW84838  11.643   8.422  10.347
94314SOL    HW184839  11.556   8.384  10.337
94314SOL    HW284840  11.644   8.496  10.287
94315SOL     OW84841   1.960   2.368   0.110
94315SOL    HW184842   2.007   2.358   0.192
94315SOL    HW284843   1.918   2.454   0.116
94316SOL     OW84844   5.809   0.948  14.383
94316SOL    HW184845   5.856   0.870  14.412
94316SOL    HW284846   5.731   0.913  14.338
94317SOL     OW84847  10.276  11.981   5.055
94317SOL    HW184848  10.249  12.023   5.137
94317SOL    HW284849  10.272  11.887   5.073
94318SOL     OW84850   0.072   2.790   6.729
94318SOL    HW184851   0.041   2.782   6.639
94318SOL    HW284852   0.166   2.808   6.722
94319SOL     OW84853   9.307  13.372   0.918
94319SOL    HW184854   9.288  13.395   1.009
94319SOL    HW284855   9.300  13.276   0.916
94320SOL     OW84856   9.023   8.568  12.946
94320SOL    HW184857   9.087   8.605  12.886
94320SOL    HW284858   9.074   8.542  13.023
94321SOL     OW84859   1.471  11.360  12.467
94321SOL    HW184860   1.487  11.453  12.454
94321SOL    HW284861   1.470  11.350  12.562
94322SOL     OW84862  13.667  10.164   9.550
94322SOL    HW184863  13.576  10.185   9.529
94322SOL    HW284864  13.676  10.071   9.531
94323SOL     OW84865   4.483   5.093   6.397
94323SOL    HW184866   4.484   5.164   6.332
94323SOL    HW284867   4.417   5.120   6.461
94324SOL     OW84868   3.497  13.716   9.818
94324SOL    HW184869   3.575  13.726   9.764
94324SOL    HW284870   3.426  13.753   9.765
94325SOL     OW84871  11.780   5.226   2.505
94325SOL    HW184872  11.833   5.180   2.570
94325SOL    HW284873  11.758   5.310   2.547
94326SOL     OW84874   7.171   1.747   0.916
94326SOL    HW184875   7.215   1.778   0.837
94326SOL    HW284876   7.217   1.791   0.988
94327SOL     OW84877  11.677   7.145   0.393
94327SOL    HW184878  11.686   7.064   0.343
94327SOL    HW284879  11.711   7.213   0.336
94328SOL     OW84880  11.994   2.965   4.904
94328SOL    HW184881  11.981   2.936   4.995
94328SOL    HW284882  12.052   3.041   4.910
94329SOL     OW84883  14.880   0.981  11.160
94329SOL    HW184884  14.808   1.042  11.178
94329SOL    HW284885   0.069   1.010  11.218
94330SOL     OW84886   5.558   8.461  12.492
94330SOL    HW184887   5.639   8.510  12.501
94330SOL    HW284888   5.538   8.431  12.581
94331SOL     OW84889  10.487   8.044   3.716
94331SOL    HW184890  10.461   8.045   3.624
94331SOL    HW284891  10.582   8.052   3.714
94332SOL     OW84892   2.722   9.225   2.746
94332SOL    HW184893   2.717   9.136   2.710
94332SOL    HW284894   2.770   9.215   2.827
94333SOL     OW84895   0.283   9.590   4.638
94333SOL    HW184896   0.255   9.530   4.708
94333SOL    HW284897   0.296   9.674   4.682
94334SOL     OW84898   1.680  10.026   8.147
94334SOL    HW184899   1.757  10.083   8.147
94334SOL    HW284900   1.662  10.010   8.240
94335SOL     OW84901   7.985   2.079   5.439
94335SOL    HW184902   7.894   2.101   5.457
94335SOL    HW284903   8.030   2.163   5.436
94336SOL     OW84904   6.840   4.893   4.486
94336SOL    HW184905   6.781   4.837   4.537
94336SOL    HW284906   6.926   4.878   4.525
94337SOL     OW84907   8.425  12.927  13.466
94337SOL    HW184908   8.396  12.952  13.378
94337SOL    HW284909   8.500  12.984  13.483
94338SOL     OW84910   3.882  12.760   8.741
94338SOL    HW184911   3.916  12.744   8.829
94338SOL    HW284912   3.933  12.834   8.709
94339SOL     OW84913   6.605   7.195  11.605
94339SOL    HW184914   6.674   7.173  11.667
94339SOL    HW284915   6.537   7.129  11.621
94340SOL     OW84916   8.513   5.944   1.359
94340SOL    HW184917   8.597   5.908   1.329
94340SOL    HW284918   8.464   5.962   1.279
94341SOL     OW84919   9.436   1.475   5.872
94341SOL    HW184920   9.526   1.444   5.861
94341SOL    HW284921   9.436   1.520   5.957
94342SOL     OW84922   7.947   3.984   0.847
94342SOL    HW184923   8.002   3.938   0.784
94342SOL    HW284924   7.995   3.979   0.930
94343SOL     OW84925  13.219  10.208  12.651
94343SOL    HW184926  13.263  10.283  12.612
94343SOL    HW284927  13.286  10.169  12.709
94344SOL     OW84928   6.384   5.994  12.071
94344SOL    HW184929   6.405   6.079  12.031
94344SOL    HW284930   6.304   5.966  12.026
94345SOL     OW84931  11.863   4.651   1.631
94345SOL    HW184932  11.863   4.556   1.636
94345SOL    HW284933  11.775   4.676   1.657
94346SOL     OW84934   5.172  10.567   4.708
94346SOL    HW184935   5.173  10.627   4.634
94346SOL    HW284936   5.148  10.482   4.670
94347SOL     OW84937   0.833   5.544   1.341
94347SOL    HW184938   0.752   5.497   1.320
94347SOL    HW284939   0.815   5.635   1.315
94348SOL     OW84940   1.119   2.602   5.044
94348SOL    HW184941   1.106   2.607   4.950
94348SOL    HW284942   1.159   2.516   5.059
94349SOL     OW84943  11.381  11.287   6.435
94349SOL    HW184944  11.389  11.259   6.343
94349SOL    HW284945  11.460  11.338   6.451
94350SOL     OW84946   7.396   2.690  14.403
94350SOL    HW184947   7.478   2.641  14.409
94350SOL    HW284948   7.328   2.628  14.429
94351SOL     OW84949   0.463   5.786  11.024
94351SOL    HW184950   0.457   5.748  10.936
94351SOL    HW284951   0.555   5.777  11.048
94352SOL     OW84952  11.425   1.058   9.343
94352SOL    HW184953  11.335   1.088   9.332
94352SOL    HW284954  11.422   0.965   9.322
94353SOL     OW84955   5.577   3.834   3.601
94353SOL    HW184956   5.564   3.768   3.668
94353SOL    HW284957   5.664   3.870   3.619
94354SOL     OW84958   1.173   3.381   9.352
94354SOL    HW184959   1.177   3.400   9.446
94354SOL    HW284960   1.153   3.465   9.311
94355SOL     OW84961  13.414  12.441   2.247
94355SOL    HW184962  13.508  12.428   2.255
94355SOL    HW284963  13.397  12.521   2.296
94356SOL     OW84964   4.272   7.215   6.782
94356SOL    HW184965   4.357   7.181   6.754
94356SOL    HW284966   4.293   7.288   6.840
94357SOL     OW84967   2.863   7.917  12.247
94357SOL    HW184968   2.817   7.833  12.241
94357SOL    HW284969   2.824   7.970  12.178
94358SOL     OW84970   0.969   9.181  11.635
94358SOL    HW184971   0.991   9.228  11.715
94358SOL    HW284972   1.034   9.209  11.571
94359SOL     OW84973   7.941  14.734   7.260
94359SOL    HW184974   7.930  14.827   7.277
94359SOL    HW284975   7.925  14.692   7.344
94360SOL     OW84976   9.248   2.055   5.725
94360SOL    HW184977   9.329   2.011   5.700
94360SOL    HW284978   9.180   2.013   5.673
94361SOL     OW84979   0.826   8.314  13.259
94361SOL    HW184980   0.775   8.344  13.184
94361SOL    HW284981   0.899   8.375  13.264
94362SOL     OW84982   1.041  14.159   0.564
94362SOL    HW184983   1.016  14.118   0.480
94362SOL    HW284984   0.964  14.150   0.619
94363SOL     OW84985   8.325   2.933  12.166
94363SOL    HW184986   8.418   2.934  12.190
94363SOL    HW284987   8.311   2.847  12.127
94364SOL     OW84988  10.504   7.871   8.518
94364SOL    HW184989  10.420   7.836   8.488
94364SOL    HW284990  10.483   7.959   8.550
94365SOL     OW84991   6.171  13.780   1.679
94365SOL    HW184992   6.152  13.867   1.644
94365SOL    HW284993   6.255  13.790   1.724
94366SOL     OW84994   4.848   8.336  12.732
94366SOL    HW184995   4.847   8.396  12.657
94366SOL    HW284996   4.878   8.253  12.695
94367SOL     OW84997   2.684   8.095  11.372
94367SOL    HW184998   2.751   8.037  11.407
94367SOL    HW284999   2.732   8.165  11.329
94368SOL     OW85000   9.453   3.195  12.905
94368SOL    HW185001   9.427   3.208  12.996
94368SOL    HW285002   9.406   3.116  12.878
94369SOL     OW85003   4.547  10.077   1.896
94369SOL    HW185004   4.602  10.000   1.909
94369SOL    HW285005   4.469  10.043   1.851
94370SOL     OW85006  10.923   8.356   5.750
94370SOL    HW185007  11.000   8.301   5.762
94370SOL    HW285008  10.859   8.322   5.812
94371SOL     OW85009   8.666  14.488   1.159
94371SOL    HW185010   8.675  14.430   1.083
94371SOL    HW285011   8.639  14.430   1.230
94372SOL     OW85012  14.246  13.446  11.844
94372SOL    HW185013  14.273  13.459  11.935
94372SOL    HW285014  14.245  13.351  11.833
94373SOL     OW85015   3.676   2.338  13.890
94373SOL    HW185016   3.695   2.384  13.809
94373SOL    HW285017   3.580   2.337  13.895
94374SOL     OW85018   9.509   8.768   6.485
94374SOL    HW185019   9.451   8.693   6.468
94374SOL    HW285020   9.563   8.740   6.559
94375SOL     OW85021   0.446  10.666   3.695
94375SOL    HW185022   0.351  10.658   3.700
94375SOL    HW285023   0.478  10.576   3.690
94376SOL     OW85024   4.808  12.248   9.080
94376SOL    HW185025   4.798  12.163   9.036
94376SOL    HW285026   4.895  12.277   9.056
94377SOL     OW85027   2.358   4.656   2.880
94377SOL    HW185028   2.318   4.680   2.964
94377SOL    HW285029   2.344   4.562   2.872
94378SOL     OW85030   5.545   5.320  11.249
94378SOL    HW185031   5.471   5.259  11.255
94378SOL    HW285032   5.578   5.310  11.160
94379SOL     OW85033  10.448   7.022   0.232
94379SOL    HW185034  10.456   6.935   0.192
94379SOL    HW285035  10.533   7.037   0.273
94380SOL     OW85036   6.799  13.765   2.438
94380SOL    HW185037   6.813  13.676   2.404
94380SOL    HW285038   6.704  13.776   2.435
94381SOL     OW85039   2.673   4.658  13.157
94381SOL    HW185040   2.736   4.644  13.086
94381SOL    HW285041   2.652   4.570  13.188
94382SOL     OW85042   3.106  14.123   4.268
94382SOL    HW185043   3.170  14.190   4.245
94382SOL    HW285044   3.102  14.067   4.190
94383SOL     OW85045  14.204   1.547  12.381
94383SOL    HW185046  14.230   1.488  12.311
94383SOL    HW285047  14.117   1.516  12.407
94384SOL     OW85048   9.522  11.914   9.570
94384SOL    HW185049   9.474  11.832   9.561
94384SOL    HW285050   9.613  11.887   9.587
94385SOL     OW85051  13.932   6.216  12.078
94385SOL    HW185052  13.944   6.251  12.167
94385SOL    HW285053  13.921   6.122  12.090
94386SOL     OW85054  12.819  10.060   6.249
94386SOL    HW185055  12.807  10.155   6.255
94386SOL    HW285056  12.779  10.037   6.165
94387SOL     OW85057   9.463   4.905  13.530
94387SOL    HW185058   9.419   4.981  13.493
94387SOL    HW285059   9.508   4.939  13.608
94388SOL     OW85060   9.703   1.678   9.838
94388SOL    HW185061   9.659   1.652   9.918
94388SOL    HW285062   9.653   1.752   9.805
94389SOL     OW85063   0.307   4.192  12.878
94389SOL    HW185064   0.215   4.179  12.901
94389SOL    HW285065   0.355   4.157  12.954
94390SOL     OW85066   1.576   7.352  14.117
94390SOL    HW185067   1.523   7.285  14.073
94390SOL    HW285068   1.566   7.430  14.063
94391SOL     OW85069   5.850   8.380  12.106
94391SOL    HW185070   5.887   8.302  12.146
94391SOL    HW285071   5.911   8.404  12.037
94392SOL     OW85072  13.389  13.717  10.464
94392SOL    HW185073  13.440  13.797  10.473
94392SOL    HW285074  13.320  13.739  10.402
94393SOL     OW85075   6.519  14.602   8.278
94393SOL    HW185076   6.456  14.633   8.343
94393SOL    HW285077   6.549  14.518   8.312
94394SOL     OW85078  12.704  14.157   9.041
94394SOL    HW185079  12.778  14.097   9.043
94394SOL    HW285080  12.654  14.137   9.120
94395SOL     OW85081  12.649   9.933   9.699
94395SOL    HW185082  12.673   9.841   9.709
94395SOL    HW285083  12.570   9.932   9.644
94396SOL     OW85084   9.110   0.551  14.737
94396SOL    HW185085   9.202   0.555  14.766
94396SOL    HW285086   9.095   0.458  14.721
94397SOL     OW85087   1.802  12.461  12.178
94397SOL    HW185088   1.846  12.539  12.144
94397SOL    HW285089   1.849  12.388  12.138
94398SOL     OW85090   2.913   3.472   9.336
94398SOL    HW185091   2.853   3.487   9.409
94398SOL    HW285092   2.912   3.554   9.287
94399SOL     OW85093   1.774   2.497   9.965
94399SOL    HW185094   1.729   2.450   9.894
94399SOL    HW285095   1.852   2.445   9.982
94400SOL     OW85096  12.917   2.093   2.042
94400SOL    HW185097  12.823   2.104   2.025
94400SOL    HW285098  12.950   2.181   2.058
94401SOL     OW85099   4.629   5.894   8.102
94401SOL    HW185100   4.568   5.880   8.030
94401SOL    HW285101   4.593   5.844   8.175
94402SOL     OW85102   6.612   2.744  10.349
94402SOL    HW185103   6.549   2.673  10.360
94402SOL    HW285104   6.566   2.822  10.380
94403SOL     OW85105   9.572   4.464   8.223
94403SOL    HW185106   9.545   4.374   8.205
94403SOL    HW285107   9.638   4.483   8.155
94404SOL     OW85108  14.376  11.961   9.260
94404SOL    HW185109  14.423  11.938   9.341
94404SOL    HW285110  14.408  11.898   9.196
94405SOL     OW85111   9.716   0.444   6.009
94405SOL    HW185112   9.724   0.495   6.090
94405SOL    HW285113   9.629   0.404   6.015
94406SOL     OW85114   3.152  13.956  11.772
94406SOL    HW185115   3.111  14.036  11.804
94406SOL    HW285116   3.195  13.982  11.691
94407SOL     OW85117  13.973   2.081   9.558
94407SOL    HW185118  13.911   2.009   9.556
94407SOL    HW285119  13.999   2.089   9.650
94408SOL     OW85120   4.803  11.522  11.489
94408SOL    HW185121   4.892  11.530  11.455
94408SOL    HW285122   4.768  11.611  11.485
94409SOL     OW85123   5.835  11.308   5.084
94409SOL    HW185124   5.915  11.269   5.120
94409SOL    HW285125   5.764  11.266   5.133
94410SOL     OW85126   2.544  12.534   4.907
94410SOL    HW185127   2.512  12.586   4.833
94410SOL    HW285128   2.619  12.584   4.940
94411SOL     OW85129  10.170   6.844   3.128
94411SOL    HW185130  10.097   6.884   3.175
94411SOL    HW285131  10.154   6.750   3.135
94412SOL     OW85132   3.509   2.780  13.910
94412SOL    HW185133   3.488   2.737  13.993
94412SOL    HW285134   3.599   2.755  13.893
94413SOL     OW85135   4.398   1.036   5.681
94413SOL    HW185136   4.452   0.973   5.729
94413SOL    HW285137   4.409   1.012   5.589
94414SOL     OW85138  13.351   2.826   6.419
94414SOL    HW185139  13.287   2.769   6.460
94414SOL    HW285140  13.302   2.905   6.395
94415SOL     OW85141   9.670   5.917   7.136
94415SOL    HW185142   9.741   5.857   7.157
94415SOL    HW285143   9.590   5.866   7.151
94416SOL     OW85144   3.534   3.207   8.455
94416SOL    HW185145   3.574   3.286   8.419
94416SOL    HW285146   3.514   3.153   8.378
94417SOL     OW85147   7.153   8.257   0.865
94417SOL    HW185148   7.085   8.205   0.822
94417SOL    HW285149   7.193   8.197   0.927
94418SOL     OW85150   2.748   5.462   0.835
94418SOL    HW185151   2.811   5.453   0.906
94418SOL    HW285152   2.720   5.554   0.839
94419SOL     OW85153   5.145   7.003   4.126
94419SOL    HW185154   5.055   6.971   4.119
94419SOL    HW285155   5.137   7.092   4.159
94420SOL     OW85156   4.628  12.745   7.549
94420SOL    HW185157   4.615  12.830   7.592
94420SOL    HW285158   4.560  12.689   7.585
94421SOL     OW85159  11.302   0.598   0.243
94421SOL    HW185160  11.245   0.603   0.166
94421SOL    HW285161  11.297   0.506   0.270
94422SOL     OW85162   8.901   1.247   3.980
94422SOL    HW185163   8.878   1.311   3.913
94422SOL    HW285164   8.853   1.168   3.956
94423SOL     OW85165   4.659   9.463   5.518
94423SOL    HW185166   4.637   9.452   5.611
94423SOL    HW285167   4.658   9.374   5.482
94424SOL     OW85168  11.694   1.219   2.650
94424SOL    HW185169  11.656   1.272   2.580
94424SOL    HW285170  11.634   1.145   2.659
94425SOL     OW85171   0.292  12.805   1.497
94425SOL    HW185172   0.209  12.843   1.469
94425SOL    HW285173   0.273  12.765   1.582
94426SOL     OW85174  12.699   1.393  13.395
94426SOL    HW185175  12.691   1.302  13.424
94426SOL    HW285176  12.714   1.442  13.476
94427SOL     OW85177   1.825   1.698   4.043
94427SOL    HW185178   1.849   1.681   4.134
94427SOL    HW285179   1.852   1.619   3.996
94428SOL     OW85180   3.700   0.953   2.216
94428SOL    HW185181   3.743   0.888   2.160
94428SOL    HW285182   3.611   0.958   2.183
94429SOL     OW85183   1.525  11.434   9.341
94429SOL    HW185184   1.503  11.526   9.326
94429SOL    HW285185   1.443  11.393   9.367
94430SOL     OW85186   1.551   3.334  12.357
94430SOL    HW185187   1.466   3.365  12.326
94430SOL    HW285188   1.552   3.241  12.336
94431SOL     OW85189   0.815   6.686  12.219
94431SOL    HW185190   0.866   6.620  12.172
94431SOL    HW285191   0.869   6.765  12.215
94432SOL     OW85192   9.869   8.314  14.857
94432SOL    HW185193   9.857   8.372  14.782
94432SOL    HW285194   9.808   8.346   0.041
94433SOL     OW85195   8.299   1.235   1.603
94433SOL    HW185196   8.362   1.232   1.531
94433SOL    HW285197   8.350   1.270   1.677
94434SOL     OW85198   6.464   1.346   6.515
94434SOL    HW185199   6.412   1.415   6.555
94434SOL    HW285200   6.458   1.363   6.421
94435SOL     OW85201  13.537   1.751  13.602
94435SOL    HW185202  13.534   1.811  13.677
94435SOL    HW285203  13.611   1.782  13.550
94436SOL     OW85204  11.661  10.992   0.351
94436SOL    HW185205  11.590  11.050   0.323
94436SOL    HW285206  11.618  10.908   0.369
94437SOL     OW85207  10.433   2.621   8.057
94437SOL    HW185208  10.444   2.530   8.087
94437SOL    HW285209  10.518   2.661   8.070
94438SOL     OW85210   3.037   0.845  13.945
94438SOL    HW185211   3.097   0.919  13.951
94438SOL    HW285212   2.979   0.867  13.872
94439SOL     OW85213   1.685   1.273   3.563
94439SOL    HW185214   1.618   1.214   3.598
94439SOL    HW285215   1.667   1.357   3.605
94440SOL     OW85216   3.739  13.773   8.188
94440SOL    HW185217   3.793  13.741   8.260
94440SOL    HW285218   3.699  13.694   8.151
94441SOL     OW85219   6.426   3.328   8.593
94441SOL    HW185220   6.502   3.345   8.537
94441SOL    HW285221   6.362   3.394   8.567
94442SOL     OW85222   8.833   1.224   0.330
94442SOL    HW185223   8.905   1.266   0.284
94442SOL    HW285224   8.870   1.143   0.366
94443SOL     OW85225  12.764  14.109   6.581
94443SOL    HW185226  12.757  14.153   6.665
94443SOL    HW285227  12.858  14.091   6.572
94444SOL     OW85228   3.798   7.400   2.059
94444SOL    HW185229   3.761   7.467   2.116
94444SOL    HW285230   3.734   7.391   1.988
94445SOL     OW85231  13.877  13.528   0.700
94445SOL    HW185232  13.941  13.460   0.678
94445SOL    HW285233  13.875  13.584   0.622
94446SOL     OW85234  12.336  10.685   4.860
94446SOL    HW185235  12.289  10.734   4.928
94446SOL    HW285236  12.389  10.623   4.909
94447SOL     OW85237  13.532   8.390   1.782
94447SOL    HW185238  13.478   8.350   1.850
94447SOL    HW285239  13.605   8.330   1.770
94448SOL     OW85240  10.265   1.323   1.291
94448SOL    HW185241  10.260   1.242   1.240
94448SOL    HW285242  10.232   1.391   1.232
94449SOL     OW85243   0.721  12.812   3.511
94449SOL    HW185244   0.749  12.726   3.541
94449SOL    HW285245   0.800  12.866   3.518
94450SOL     OW85246   7.563   9.187  14.192
94450SOL    HW185247   7.570   9.162  14.284
94450SOL    HW285248   7.651   9.174  14.157
94451SOL     OW85249   3.509   8.493   0.097
94451SOL    HW185250   3.498   8.550   0.173
94451SOL    HW285251   3.420   8.480   0.064
94452SOL     OW85252   3.749  10.404   7.338
94452SOL    HW185253   3.804  10.456   7.396
94452SOL    HW285254   3.681  10.464   7.308
94453SOL     OW85255   4.403   3.740  12.924
94453SOL    HW185256   4.393   3.665  12.865
94453SOL    HW285257   4.498   3.753  12.930
94454SOL     OW85258   3.977   2.843  10.679
94454SOL    HW185259   3.976   2.824  10.585
94454SOL    HW285260   3.893   2.886  10.696
94455SOL     OW85261   3.529  13.257   6.645
94455SOL    HW185262   3.614  13.290   6.616
94455SOL    HW285263   3.468  13.328   6.626
94456SOL     OW85264   9.901   1.545  13.378
94456SOL    HW185265   9.832   1.568  13.440
94456SOL    HW285266   9.855   1.515  13.300
94457SOL     OW85267   1.098  13.269   9.564
94457SOL    HW185268   1.091  13.364   9.570
94457SOL    HW285269   1.108  13.252   9.470
94458SOL     OW85270   7.806   6.344  13.038
94458SOL    HW185271   7.860   6.385  13.106
94458SOL    HW285272   7.846   6.371  12.956
94459SOL     OW85273  11.714  14.619   3.485
94459SOL    HW185274  11.795  14.574   3.507
94459SOL    HW285275  11.649  14.581   3.544
94460SOL     OW85276   8.769   8.315   3.524
94460SOL    HW185277   8.740   8.260   3.451
94460SOL    HW285278   8.720   8.282   3.600
94461SOL     OW85279  10.539   1.055   1.485
94461SOL    HW185280  10.605   1.032   1.551
94461SOL    HW285281  10.471   1.100   1.534
94462SOL     OW85282   8.738   4.182   0.626
94462SOL    HW185283   8.689   4.116   0.676
94462SOL    HW285284   8.754   4.252   0.688
94463SOL     OW85285  10.752   2.577   4.182
94463SOL    HW185286  10.700   2.575   4.262
94463SOL    HW285287  10.688   2.593   4.112
94464SOL     OW85288   2.043   3.727   9.240
94464SOL    HW185289   2.045   3.753   9.332
94464SOL    HW285290   2.085   3.799   9.194
94465SOL     OW85291  14.392  11.489   0.833
94465SOL    HW185292  14.318  11.474   0.892
94465SOL    HW285293  14.411  11.582   0.843
94466SOL     OW85294   6.518  10.591   5.397
94466SOL    HW185295   6.449  10.543   5.443
94466SOL    HW285296   6.577  10.524   5.364
94467SOL     OW85297   6.926   1.024  10.497
94467SOL    HW185298   7.006   0.998  10.543
94467SOL    HW285299   6.878   1.078  10.559
94468SOL     OW85300  13.427  13.043  12.067
94468SOL    HW185301  13.333  13.026  12.074
94468SOL    HW285302  13.433  13.126  12.020
94469SOL     OW85303   3.742   1.005  11.310
94469SOL    HW185304   3.775   0.962  11.232
94469SOL    HW285305   3.649   0.981  11.313
94470SOL     OW85306   6.265   7.542   2.238
94470SOL    HW185307   6.273   7.625   2.285
94470SOL    HW285308   6.329   7.549   2.167
94471SOL     OW85309   8.024   2.991   1.916
94471SOL    HW185310   8.022   3.033   1.830
94471SOL    HW285311   7.993   2.902   1.901
94472SOL     OW85312  10.573  11.670   4.106
94472SOL    HW185313  10.590  11.665   4.200
94472SOL    HW285314  10.503  11.735   4.098
94473SOL     OW85315   9.754  10.502   8.464
94473SOL    HW185316   9.843  10.473   8.482
94473SOL    HW285317   9.758  10.539   8.376
94474SOL     OW85318   8.077   5.954   2.504
94474SOL    HW185319   8.150   5.956   2.443
94474SOL    HW285320   8.082   5.867   2.544
94475SOL     OW85321  12.449   9.094   0.054
94475SOL    HW185322  12.531   9.055   0.025
94475SOL    HW285323  12.382   9.051   0.002
94476SOL     OW85324  13.408   2.221   6.531
94476SOL    HW185325  13.407   2.304   6.578
94476SOL    HW285326  13.497   2.215   6.494
94477SOL     OW85327   1.258  11.942  10.098
94477SOL    HW185328   1.339  11.981  10.129
94477SOL    HW285329   1.283  11.896  10.017
94478SOL     OW85330   2.941   5.943   1.307
94478SOL    HW185331   2.858   5.916   1.349
94478SOL    HW285332   2.916   6.017   1.252
94479SOL     OW85333   3.357  12.548   3.400
94479SOL    HW185334   3.360  12.592   3.485
94479SOL    HW285335   3.386  12.615   3.338
94480SOL     OW85336   8.664  12.827  14.720
94480SOL    HW185337   8.611  12.751  14.693
94480SOL    HW285338   8.690  12.869  14.638
94481SOL     OW85339   5.963   3.263  13.212
94481SOL    HW185340   5.949   3.344  13.162
94481SOL    HW285341   5.953   3.194  13.147
94482SOL     OW85342   9.751   7.980   6.115
94482SOL    HW185343   9.696   8.010   6.188
94482SOL    HW285344   9.833   7.954   6.156
94483SOL     OW85345   2.744  10.388   3.250
94483SOL    HW185346   2.661  10.432   3.237
94483SOL    HW285347   2.761  10.395   3.344
94484SOL     OW85348  11.195   5.087   5.995
94484SOL    HW185349  11.240   5.152   5.942
94484SOL    HW285350  11.264   5.049   6.050
94485SOL     OW85351   7.465  11.353  11.479
94485SOL    HW185352   7.471  11.428  11.421
94485SOL    HW285353   7.398  11.377  11.543
94486SOL     OW85354  11.441   8.550   1.089
94486SOL    HW185355  11.430   8.482   1.023
94486SOL    HW285356  11.521   8.595   1.064
94487SOL     OW85357   9.063   6.788   3.627
94487SOL    HW185358   9.021   6.726   3.569
94487SOL    HW285359   8.995   6.853   3.647
94488SOL     OW85360   8.758  10.572  14.716
94488SOL    HW185361   8.774  10.477  14.720
94488SOL    HW285362   8.671  10.580  14.676
94489SOL     OW85363   6.344   1.651   0.122
94489SOL    HW185364   6.305   1.606   0.048
94489SOL    HW285365   6.271   1.667   0.183
94490SOL     OW85366  11.438   2.253  11.449
94490SOL    HW185367  11.529   2.224  11.463
94490SOL    HW285368  11.439   2.346  11.474
94491SOL     OW85369   8.926  13.211   0.043
94491SOL    HW185370   8.857  13.147   0.030
94491SOL    HW285371   8.890  13.274   0.106
94492SOL     OW85372  12.151   3.427  13.862
94492SOL    HW185373  12.202   3.507  13.854
94492SOL    HW285374  12.061   3.454  13.844
94493SOL     OW85375   7.322   5.185  13.624
94493SOL    HW185376   7.246   5.167  13.569
94493SOL    HW285377   7.303   5.270  13.664
94494SOL     OW85378  12.461  13.137   4.719
94494SOL    HW185379  12.396  13.131   4.649
94494SOL    HW285380  12.545  13.146   4.674
94495SOL     OW85381   5.831  12.117   4.505
94495SOL    HW185382   5.786  12.137   4.423
94495SOL    HW285383   5.766  12.134   4.573
94496SOL     OW85384  13.519   3.935  11.525
94496SOL    HW185385  13.594   3.912  11.470
94496SOL    HW285386  13.454   3.969  11.463
94497SOL     OW85387   7.001   5.683  13.283
94497SOL    HW185388   6.957   5.599  13.290
94497SOL    HW285389   7.056   5.675  13.206
94498SOL     OW85390  12.187  13.855   3.628
94498SOL    HW185391  12.213  13.863   3.536
94498SOL    HW285392  12.242  13.786   3.663
94499SOL     OW85393   7.809   4.776   1.747
94499SOL    HW185394   7.736   4.714   1.739
94499SOL    HW285395   7.885   4.729   1.714
94500SOL     OW85396   7.590   7.386  13.560
94500SOL    HW185397   7.558   7.414  13.474
94500SOL    HW285398   7.677   7.424  13.567
94501SOL     OW85399  12.768   4.516   7.734
94501SOL    HW185400  12.802   4.498   7.646
94501SOL    HW285401  12.725   4.601   7.726
94502SOL     OW85402   7.217   4.652  11.661
94502SOL    HW185403   7.184   4.719  11.722
94502SOL    HW285404   7.159   4.578  11.673
94503SOL     OW85405  10.891   3.586   7.125
94503SOL    HW185406  10.807   3.625   7.147
94503SOL    HW285407  10.949   3.661   7.112
94504SOL     OW85408   8.239   7.320  11.916
94504SOL    HW185409   8.279   7.239  11.946
94504SOL    HW285410   8.311   7.384  11.918
94505SOL     OW85411  11.556   4.283   7.145
94505SOL    HW185412  11.648   4.300   7.123
94505SOL    HW285413  11.510   4.291   7.062
94506SOL     OW85414  13.339  12.377   5.311
94506SOL    HW185415  13.399  12.449   5.330
94506SOL    HW285416  13.295  12.360   5.395
94507SOL     OW85417  14.639   2.085   1.733
94507SOL    HW185418  14.597   2.012   1.687
94507SOL    HW285419  14.712   2.045   1.780
94508SOL     OW85420   1.067   9.770   8.139
94508SOL    HW185421   1.037   9.811   8.058
94508SOL    HW285422   1.053   9.676   8.125
94509SOL     OW85423   2.066   6.283   6.964
94509SOL    HW185424   1.974   6.306   6.969
94509SOL    HW285425   2.073   6.199   7.011
94510SOL     OW85426   8.006   8.149  11.847
94510SOL    HW185427   7.942   8.093  11.892
94510SOL    HW285428   7.952   8.213  11.801
94511SOL     OW85429  14.494  10.371   6.302
94511SOL    HW185430  14.589  10.379   6.296
94511SOL    HW285431  14.474  10.388   6.394
94512SOL     OW85432   8.128   8.610   2.680
94512SOL    HW185433   8.039   8.611   2.644
94512SOL    HW285434   8.141   8.519   2.709
94513SOL     OW85435   6.695  13.974  12.669
94513SOL    HW185436   6.755  13.971  12.743
94513SOL    HW285437   6.622  13.917  12.695
94514SOL     OW85438   8.901   4.828   1.720
94514SOL    HW185439   8.845   4.875   1.782
94514SOL    HW285440   8.887   4.873   1.636
94515SOL     OW85441   3.379  14.154   9.598
94515SOL    HW185442   3.434  14.205   9.538
94515SOL    HW285443   3.414  14.174   9.685
94516SOL     OW85444   4.723  10.143   8.520
94516SOL    HW185445   4.648  10.158   8.462
94516SOL    HW285446   4.727  10.222   8.575
94517SOL     OW85447   7.305   4.560   7.696
94517SOL    HW185448   7.214   4.537   7.715
94517SOL    HW285449   7.346   4.570   7.783
94518SOL     OW85450   2.439   9.977   8.233
94518SOL    HW185451   2.470  10.065   8.254
94518SOL    HW285452   2.517   9.922   8.238
94519SOL     OW85453  10.799  13.026   4.342
94519SOL    HW185454  10.857  13.001   4.270
94519SOL    HW285455  10.797  12.949   4.399
94520SOL     OW85456   2.679  10.914   0.176
94520SOL    HW185457   2.682  10.975   0.250
94520SOL    HW285458   2.646  10.832   0.214
94521SOL     OW85459   2.784   8.984  14.041
94521SOL    HW185460   2.764   8.977  13.947
94521SOL    HW285461   2.759   8.899  14.077
94522SOL     OW85462   1.097   2.746   6.058
94522SOL    HW185463   1.002   2.740   6.074
94522SOL    HW285464   1.133   2.781   6.140
94523SOL     OW85465   1.489  14.583   1.631
94523SOL    HW185466   1.418  14.537   1.586
94523SOL    HW285467   1.461  14.674   1.633
94524SOL     OW85468   8.084   3.973   1.090
94524SOL    HW185469   8.124   4.019   1.164
94524SOL    HW285470   8.027   3.908   1.130
94525SOL     OW85471  11.776  10.155   6.166
94525SOL    HW185472  11.774  10.112   6.251
94525SOL    HW285473  11.838  10.103   6.114
94526SOL     OW85474  12.261   3.965   8.941
94526SOL    HW185475  12.201   4.039   8.955
94526SOL    HW285476  12.233   3.899   9.005
94527SOL     OW85477  10.523   6.643  11.268
94527SOL    HW185478  10.525   6.698  11.346
94527SOL    HW285479  10.608   6.657  11.226
94528SOL     OW85480   5.793   3.718  13.243
94528SOL    HW185481   5.772   3.667  13.321
94528SOL    HW285482   5.738   3.681  13.174
94529SOL     OW85483   0.856  11.217  13.150
94529SOL    HW185484   0.870  11.144  13.090
94529SOL    HW285485   0.872  11.181  13.237
94530SOL     OW85486   7.370   0.195   0.638
94530SOL    HW185487   7.423   0.243   0.574
94530SOL    HW285488   7.434   0.146   0.690
94531SOL     OW85489  13.231   1.019  11.960
94531SOL    HW185490  13.181   0.940  11.983
94531SOL    HW285491  13.275   0.996  11.878
94532SOL     OW85492  14.090  11.767   2.380
94532SOL    HW185493  14.146  11.704   2.425
94532SOL    HW285494  14.100  11.746   2.287
94533SOL     OW85495  12.714   7.731   3.750
94533SOL    HW185496  12.705   7.651   3.803
94533SOL    HW285497  12.808   7.739   3.734
94534SOL     OW85498   9.669   4.762   2.517
94534SOL    HW185499   9.623   4.826   2.464
94534SOL    HW285500   9.748   4.741   2.467
94535SOL     OW85501  10.719  11.554   5.921
94535SOL    HW185502  10.676  11.601   5.993
94535SOL    HW285503  10.673  11.583   5.842
94536SOL     OW85504   3.551   6.601   1.145
94536SOL    HW185505   3.463   6.635   1.162
94536SOL    HW285506   3.608   6.652   1.203
94537SOL     OW85507  14.056   0.712  11.382
94537SOL    HW185508  13.988   0.689  11.444
94537SOL    HW285509  14.017   0.698  11.296
94538SOL     OW85510  14.409   9.847   8.617
94538SOL    HW185511  14.498   9.854   8.583
94538SOL    HW285512  14.396   9.926   8.669
94539SOL     OW85513   7.307  11.811  11.493
94539SOL    HW185514   7.325  11.859  11.574
94539SOL    HW285515   7.353  11.860  11.426
94540SOL     OW85516   1.848   8.800   1.180
94540SOL    HW185517   1.823   8.891   1.161
94540SOL    HW285518   1.928   8.786   1.129
94541SOL     OW85519   3.348   1.281  14.749
94541SOL    HW185520   3.336   1.358  14.804
94541SOL    HW285521   3.305   1.303  14.667
94542SOL     OW85522   7.420  13.815  11.189
94542SOL    HW185523   7.390  13.725  11.194
94542SOL    HW285524   7.348  13.866  11.226
94543SOL     OW85525   1.337   3.371  14.684
94543SOL    HW185526   1.258   3.327  14.651
94543SOL    HW285527   1.327   3.369  14.779
94544SOL     OW85528   7.393  14.580  13.999
94544SOL    HW185529   7.451  14.654  13.983
94544SOL    HW285530   7.311  14.620  14.029
94545SOL     OW85531   8.739   0.433  13.732
94545SOL    HW185532   8.662   0.435  13.788
94545SOL    HW285533   8.705   0.410  13.645
94546SOL     OW85534   7.926   3.186  11.923
94546SOL    HW185535   7.966   3.190  11.836
94546SOL    HW285536   7.991   3.138  11.976
94547SOL     OW85537   3.115   4.291   9.408
94547SOL    HW185538   3.158   4.245   9.336
94547SOL    HW285539   3.023   4.264   9.402
94548SOL     OW85540  10.947  13.026   8.341
94548SOL    HW185541  11.014  13.063   8.400
94548SOL    HW285542  10.996  12.967   8.284
94549SOL     OW85543   8.130   4.996   9.990
94549SOL    HW185544   8.137   5.090   9.973
94549SOL    HW285545   8.053   4.968   9.940
94550SOL     OW85546   2.706  11.952  11.572
94550SOL    HW185547   2.752  11.875  11.605
94550SOL    HW285548   2.679  11.927  11.483
94551SOL     OW85549   6.951   4.615   3.028
94551SOL    HW185550   7.004   4.655   2.959
94551SOL    HW285551   6.985   4.525   3.034
94552SOL     OW85552   3.067  12.998   3.666
94552SOL    HW185553   3.123  12.923   3.690
94552SOL    HW285554   3.106  13.032   3.586
94553SOL     OW85555   6.676  12.107   6.690
94553SOL    HW185556   6.724  12.039   6.736
94553SOL    HW285557   6.630  12.061   6.619
94554SOL     OW85558  11.452   0.568  12.233
94554SOL    HW185559  11.432   0.477  12.254
94554SOL    HW285560  11.380   0.596  12.176
94555SOL     OW85561  11.578  12.673   5.128
94555SOL    HW185562  11.488  12.644   5.110
94555SOL    HW285563  11.580  12.687   5.223
94556SOL     OW85564   6.576   8.141   5.246
94556SOL    HW185565   6.502   8.152   5.186
94556SOL    HW285566   6.597   8.230   5.275
94557SOL     OW85567   5.836   4.011   2.755
94557SOL    HW185568   5.840   4.103   2.730
94557SOL    HW285569   5.770   4.007   2.823
94558SOL     OW85570   9.621   2.419  12.039
94558SOL    HW185571   9.602   2.358  11.967
94558SOL    HW285572   9.543   2.416  12.094
94559SOL     OW85573   3.319   0.154   7.759
94559SOL    HW185574   3.277   0.211   7.824
94559SOL    HW285575   3.357   0.083   7.810
94560SOL     OW85576   4.835   4.753  12.840
94560SOL    HW185577   4.863   4.745  12.931
94560SOL    HW285578   4.830   4.663  12.808
94561SOL     OW85579   5.543   2.531   4.546
94561SOL    HW185580   5.638   2.544   4.545
94561SOL    HW285581   5.525   2.494   4.632
94562SOL     OW85582   6.228   4.722  10.387
94562SOL    HW185583   6.201   4.692  10.474
94562SOL    HW285584   6.280   4.649  10.352
94563SOL     OW85585   7.516  11.166   2.436
94563SOL    HW185586   7.447  11.132   2.493
94563SOL    HW285587   7.469  11.204   2.362
94564SOL     OW85588   1.377  11.277  13.563
94564SOL    HW185589   1.471  11.271  13.581
94564SOL    HW285590   1.371  11.337  13.489
94565SOL     OW85591  12.695   1.259  11.712
94565SOL    HW185592  12.723   1.340  11.756
94565SOL    HW285593  12.699   1.192  11.780
94566SOL     OW85594   0.731   2.648  14.613
94566SOL    HW185595   0.695   2.570  14.570
94566SOL    HW285596   0.688   2.721  14.570
94567SOL     OW85597   2.898   2.212   2.345
94567SOL    HW185598   2.938   2.200   2.260
94567SOL    HW285599   2.970   2.202   2.408
94568SOL     OW85600   2.451   2.920  12.357
94568SOL    HW185601   2.517   2.855  12.379
94568SOL    HW285602   2.473   2.995  12.413
94569SOL     OW85603  13.373  10.040  11.307
94569SOL    HW185604  13.443   9.981  11.279
94569SOL    HW285605  13.321  10.054  11.229
94570SOL     OW85606  11.891   9.166   4.718
94570SOL    HW185607  11.814   9.220   4.735
94570SOL    HW285608  11.957   9.199   4.779
94571SOL     OW85609   5.612   7.754   8.366
94571SOL    HW185610   5.672   7.828   8.375
94571SOL    HW285611   5.554   7.778   8.294
94572SOL     OW85612   2.250  14.469  12.838
94572SOL    HW185613   2.275  14.413  12.765
94572SOL    HW285614   2.272  14.418  12.916
94573SOL     OW85615   8.081  13.980   3.175
94573SOL    HW185616   8.116  14.069   3.175
94573SOL    HW285617   7.989  13.990   3.152
94574SOL     OW85618  13.271  13.039   7.667
94574SOL    HW185619  13.294  12.971   7.730
94574SOL    HW285620  13.353  13.059   7.622
94575SOL     OW85621  14.045   8.478   3.538
94575SOL    HW185622  14.059   8.534   3.615
94575SOL    HW285623  13.962   8.509   3.501
94576SOL     OW85624   9.918   1.729   1.322
94576SOL    HW185625   9.859   1.706   1.394
94576SOL    HW285626   9.957   1.645   1.296
94577SOL     OW85627   3.405   5.044   5.928
94577SOL    HW185628   3.318   5.051   5.966
94577SOL    HW285629   3.459   5.009   5.998
94578SOL     OW85630   7.321  14.636   7.356
94578SOL    HW185631   7.308  14.561   7.299
94578SOL    HW285632   7.369  14.601   7.431
94579SOL     OW85633   8.149   4.611  10.285
94579SOL    HW185634   8.105   4.660  10.355
94579SOL    HW285635   8.227   4.575  10.327
94580SOL     OW85636  14.854  13.017   0.738
94580SOL    HW185637  14.862  13.015   0.833
94580SOL    HW285638   0.038  13.080   0.709
94581SOL     OW85639   9.891   8.660   0.527
94581SOL    HW185640   9.939   8.624   0.452
94581SOL    HW285641   9.857   8.744   0.496
94582SOL     OW85642   3.554   3.959   8.463
94582SOL    HW185643   3.606   3.897   8.411
94582SOL    HW285644   3.537   4.032   8.403
94583SOL     OW85645   5.095   8.404  13.588
94583SOL    HW185646   5.034   8.478  13.595
94583SOL    HW285647   5.109   8.375  13.678
94584SOL     OW85648  13.754   5.270   9.093
94584SOL    HW185649  13.671   5.317   9.079
94584SOL    HW285650  13.799   5.275   9.009
94585SOL     OW85651  10.931   2.323   5.594
94585SOL    HW185652  10.856   2.309   5.651
94585SOL    HW285653  10.903   2.393   5.535
94586SOL     OW85654  13.981   3.115  12.820
94586SOL    HW185655  13.896   3.155  12.806
94586SOL    HW285656  13.997   3.062  12.742
94587SOL     OW85657   9.270  10.887   0.696
94587SOL    HW185658   9.185  10.928   0.713
94587SOL    HW285659   9.255  10.832   0.619
94588SOL     OW85660  11.879  13.277  11.257
94588SOL    HW185661  11.958  13.312  11.298
94588SOL    HW285662  11.912  13.209  11.197
94589SOL     OW85663  13.546  13.248  11.660
94589SOL    HW185664  13.622  13.296  11.627
94589SOL    HW285665  13.503  13.214  11.582
94590SOL     OW85666  12.199   3.955  10.532
94590SOL    HW185667  12.213   4.012  10.457
94590SOL    HW285668  12.141   3.886  10.499
94591SOL     OW85669   2.641   1.684   3.815
94591SOL    HW185670   2.659   1.700   3.908
94591SOL    HW285671   2.550   1.654   3.812
94592SOL     OW85672  13.471   8.552  13.680
94592SOL    HW185673  13.543   8.493  13.703
94592SOL    HW285674  13.394   8.514  13.724
94593SOL     OW85675   2.545  10.965   1.465
94593SOL    HW185676   2.571  10.875   1.484
94593SOL    HW285677   2.451  10.961   1.449
94594SOL     OW85678   3.048   5.483   4.595
94594SOL    HW185679   3.011   5.539   4.663
94594SOL    HW285680   3.084   5.408   4.642
94595SOL     OW85681   0.881   6.241   3.190
94595SOL    HW185682   0.880   6.230   3.095
94595SOL    HW285683   0.828   6.169   3.224
94596SOL     OW85684   9.489  10.807  14.031
94596SOL    HW185685   9.441  10.759  14.098
94596SOL    HW285686   9.451  10.895  14.032
94597SOL     OW85687   1.472   2.314   3.986
94597SOL    HW185688   1.382   2.294   4.011
94597SOL    HW285689   1.486   2.263   3.905
94598SOL     OW85690   3.031  13.047   2.367
94598SOL    HW185691   3.113  13.006   2.394
94598SOL    HW285692   2.997  12.990   2.298
94599SOL     OW85693  11.331   4.216   7.458
94599SOL    HW185694  11.380   4.171   7.528
94599SOL    HW285695  11.320   4.150   7.390
94600SOL     OW85696  11.837   9.933  11.068
94600SOL    HW185697  11.916   9.986  11.058
94600SOL    HW285698  11.769   9.980  11.018
94601SOL     OW85699   8.016   4.239   6.499
94601SOL    HW185700   8.026   4.229   6.404
94601SOL    HW285701   7.932   4.282   6.510
94602SOL     OW85702   0.919   0.380   1.360
94602SOL    HW185703   0.871   0.446   1.411
94602SOL    HW285704   0.982   0.343   1.421
94603SOL     OW85705  11.411  13.844   6.291
94603SOL    HW185706  11.461  13.840   6.210
94603SOL    HW285707  11.366  13.929   6.287
94604SOL     OW85708   1.923   1.109   1.052
94604SOL    HW185709   1.950   1.101   0.961
94604SOL    HW285710   2.004   1.109   1.102
94605SOL     OW85711   0.784   8.292   4.365
94605SOL    HW185712   0.771   8.357   4.434
94605SOL    HW285713   0.703   8.240   4.366
94606SOL     OW85714  10.154  10.990  10.362
94606SOL    HW185715  10.207  10.993  10.441
94606SOL    HW285716  10.216  10.972  10.291
94607SOL     OW85717   8.722   1.710  10.041
94607SOL    HW185718   8.754   1.732  10.128
94607SOL    HW285719   8.722   1.615  10.038
94608SOL     OW85720   5.861   4.326   9.851
94608SOL    HW185721   5.831   4.378   9.925
94608SOL    HW285722   5.916   4.386   9.800
94609SOL     OW85723   7.330  12.384  10.430
94609SOL    HW185724   7.371  12.384  10.516
94609SOL    HW285725   7.389  12.435  10.375
94610SOL     OW85726  10.274   2.437   6.766
94610SOL    HW185727  10.315   2.356   6.736
94610SOL    HW285728  10.217   2.410   6.838
94611SOL     OW85729   3.289  14.077   5.142
94611SOL    HW185730   3.376  14.058   5.107
94611SOL    HW285731   3.269  14.002   5.198
94612SOL     OW85732  13.909   8.015   3.761
94612SOL    HW185733  13.934   8.107   3.758
94612SOL    HW285734  13.984   7.969   3.725
94613SOL     OW85735  14.687   1.778   1.426
94613SOL    HW185736  14.782   1.772   1.433
94613SOL    HW285737  14.656   1.688   1.432
94614SOL     OW85738   8.720  14.015   5.507
94614SOL    HW185739   8.697  13.949   5.441
94614SOL    HW285740   8.645  14.017   5.566
94615SOL     OW85741  12.474   4.901  13.657
94615SOL    HW185742  12.434   4.865  13.578
94615SOL    HW285743  12.535   4.967  13.624
94616SOL     OW85744   7.658  14.531   3.679
94616SOL    HW185745   7.699  14.482   3.608
94616SOL    HW285746   7.674  14.623   3.657
94617SOL     OW85747   4.504   6.098   5.357
94617SOL    HW185748   4.597   6.079   5.371
94617SOL    HW285749   4.471   6.023   5.308
94618SOL     OW85750   1.742   1.020   0.771
94618SOL    HW185751   1.823   1.062   0.800
94618SOL    HW285752   1.719   1.066   0.691
94619SOL     OW85753  12.537   7.762  11.699
94619SOL    HW185754  12.589   7.718  11.632
94619SOL    HW285755  12.450   7.723  11.693
94620SOL     OW85756   9.821  12.232  10.201
94620SOL    HW185757   9.817  12.313  10.253
94620SOL    HW285758   9.856  12.166  10.261
94621SOL     OW85759  11.228   6.938  10.147
94621SOL    HW185760  11.276   6.978  10.075
94621SOL    HW285761  11.272   6.854  10.162
94622SOL     OW85762   5.148   8.188   1.687
94622SOL    HW185763   5.232   8.143   1.693
94622SOL    HW285764   5.108   8.153   1.607
94623SOL     OW85765  10.680   0.164   5.755
94623SOL    HW185766  10.630   0.082   5.764
94623SOL    HW285767  10.629   0.215   5.691
94624SOL     OW85768  13.123   7.554   2.665
94624SOL    HW185769  13.118   7.649   2.657
94624SOL    HW285770  13.130   7.523   2.574
94625SOL     OW85771   3.072   4.486  12.786
94625SOL    HW185772   3.150   4.433  12.800
94625SOL    HW285773   3.006   4.424  12.754
94626SOL     OW85774  10.671  12.445  10.180
94626SOL    HW185775  10.609  12.450  10.253
94626SOL    HW285776  10.649  12.520  10.125
94627SOL     OW85777  11.940  10.257   3.409
94627SOL    HW185778  11.952  10.333   3.466
94627SOL    HW285779  11.908  10.189   3.467
94628SOL     OW85780   1.546   2.616  12.513
94628SOL    HW185781   1.629   2.584  12.478
94628SOL    HW285782   1.530   2.560  12.589
94629SOL     OW85783  10.701  11.224   4.656
94629SOL    HW185784  10.642  11.149   4.655
94629SOL    HW285785  10.708  11.250   4.564
94630SOL     OW85786   1.309  11.563   0.963
94630SOL    HW185787   1.261  11.520   0.892
94630SOL    HW285788   1.398  11.530   0.955
94631SOL     OW85789   6.228  11.086   4.096
94631SOL    HW185790   6.282  11.027   4.043
94631SOL    HW285791   6.228  11.046   4.183
94632SOL     OW85792  10.970   3.422   8.726
94632SOL    HW185793  11.027   3.498   8.730
94632SOL    HW285794  10.996   3.367   8.799
94633SOL     OW85795   3.349  14.167  13.366
94633SOL    HW185796   3.260  14.172  13.333
94633SOL    HW285797   3.350  14.089  13.421
94634SOL     OW85798   4.775   1.390   6.652
94634SOL    HW185799   4.818   1.336   6.587
94634SOL    HW285800   4.682   1.371   6.642
94635SOL     OW85801   1.756  11.199  13.249
94635SOL    HW185802   1.682  11.156  13.291
94635SOL    HW285803   1.722  11.225  13.163
94636SOL     OW85804  13.785   6.451  11.024
94636SOL    HW185805  13.699   6.481  10.994
94636SOL    HW285806  13.847   6.504  10.973
94637SOL     OW85807   1.760  14.323   3.515
94637SOL    HW185808   1.828  14.257   3.507
94637SOL    HW285809   1.805  14.401   3.546
94638SOL     OW85810  10.160   4.870   2.453
94638SOL    HW185811  10.084   4.908   2.497
94638SOL    HW285812  10.236   4.907   2.498
94639SOL     OW85813  13.164  13.572   7.335
94639SOL    HW185814  13.077  13.560   7.374
94639SOL    HW285815  13.152  13.550   7.242
94640SOL     OW85816  14.088   7.475   4.042
94640SOL    HW185817  14.105   7.525   3.963
94640SOL    HW285818  13.995   7.486   4.059
94641SOL     OW85819   3.228   9.076   3.911
94641SOL    HW185820   3.306   9.129   3.892
94641SOL    HW285821   3.177   9.130   3.972
94642SOL     OW85822  14.666   1.568   5.403
94642SOL    HW185823  14.711   1.580   5.486
94642SOL    HW285824  14.623   1.652   5.386
94643SOL     OW85825   6.036  14.381   0.107
94643SOL    HW185826   6.002  14.371   0.195
94643SOL    HW285827   5.990  14.458   0.072
94644SOL     OW85828  10.863   3.612  12.785
94644SOL    HW185829  10.915   3.580  12.712
94644SOL    HW285830  10.924   3.615  12.859
94645SOL     OW85831   1.253  14.039  10.391
94645SOL    HW185832   1.167  14.082  10.385
94645SOL    HW285833   1.238  13.962  10.445
94646SOL     OW85834  14.069  11.755  12.258
94646SOL    HW185835  14.055  11.727  12.349
94646SOL    HW285836  14.162  11.740  12.243
94647SOL     OW85837  13.883   4.803   2.241
94647SOL    HW185838  13.915   4.749   2.168
94647SOL    HW285839  13.846   4.880   2.198
94648SOL     OW85840   9.583  13.671   7.479
94648SOL    HW185841   9.627  13.684   7.395
94648SOL    HW285842   9.524  13.747   7.487
94649SOL     OW85843   6.780   5.210   0.748
94649SOL    HW185844   6.769   5.304   0.765
94649SOL    HW285845   6.785   5.170   0.835
94650SOL     OW85846   7.336  11.384  12.943
94650SOL    HW185847   7.251  11.421  12.967
94650SOL    HW285848   7.376  11.449  12.885
94651SOL     OW85849   5.175   8.934   2.973
94651SOL    HW185850   5.163   8.840   2.956
94651SOL    HW285851   5.098   8.975   2.935
94652SOL     OW85852   9.633   6.777   8.769
94652SOL    HW185853   9.554   6.728   8.789
94652SOL    HW285854   9.668   6.801   8.854
94653SOL     OW85855  12.855   9.247   4.405
94653SOL    HW185856  12.809   9.300   4.339
94653SOL    HW285857  12.946   9.245   4.376
94654SOL     OW85858   6.540   5.205   9.200
94654SOL    HW185859   6.461   5.227   9.150
94654SOL    HW285860   6.551   5.111   9.188
94655SOL     OW85861   6.259   9.124   6.034
94655SOL    HW185862   6.165   9.129   6.017
94655SOL    HW285863   6.299   9.126   5.947
94656SOL     OW85864  10.930   4.440   2.772
94656SOL    HW185865  10.901   4.351   2.753
94656SOL    HW285866  10.877   4.495   2.715
94657SOL     OW85867   0.064  14.826  14.648
94657SOL    HW185868   0.003   0.009  14.614
94657SOL    HW285869   0.127  14.876  14.699
94658SOL     OW85870  13.394  10.521  14.716
94658SOL    HW185871  13.318  10.467  14.691
94658SOL    HW285872  13.466  10.486  14.664
94659SOL     OW85873   7.663   1.600   5.257
94659SOL    HW185874   7.620   1.599   5.342
94659SOL    HW285875   7.756   1.583   5.276
94660SOL     OW85876   1.947   7.350   7.338
94660SOL    HW185877   1.887   7.384   7.404
94660SOL    HW285878   1.982   7.269   7.377
94661SOL     OW85879   8.674   1.416   1.269
94661SOL    HW185880   8.602   1.427   1.207
94661SOL    HW285881   8.750   1.394   1.215
94662SOL     OW85882   3.228  13.371   7.398
94662SOL    HW185883   3.320  13.347   7.400
94662SOL    HW285884   3.184  13.303   7.449
94663SOL     OW85885  10.669  14.775   5.037
94663SOL    HW185886  10.669  14.685   5.067
94663SOL    HW285887  10.630  14.824   5.110
94664SOL     OW85888   3.336  13.320   3.432
94664SOL    HW185889   3.428  13.346   3.446
94664SOL    HW285890   3.325  13.322   3.337
94665SOL     OW85891   3.129   2.314  12.032
94665SOL    HW185892   3.061   2.296  11.966
94665SOL    HW285893   3.179   2.387  11.995
94666SOL     OW85894  12.465   5.635   9.382
94666SOL    HW185895  12.396   5.623   9.317
94666SOL    HW285896  12.431   5.702   9.441
94667SOL     OW85897   1.334  11.398   2.150
94667SOL    HW185898   1.325  11.482   2.196
94667SOL    HW285899   1.259  11.395   2.090
94668SOL     OW85900   0.845   3.920  10.633
94668SOL    HW185901   0.887   3.837  10.610
94668SOL    HW285902   0.888   3.985  10.578
94669SOL     OW85903   5.893  13.741   2.075
94669SOL    HW185904   5.936  13.800   2.014
94669SOL    HW285905   5.915  13.775   2.162
94670SOL     OW85906   9.827   6.561   3.034
94670SOL    HW185907   9.772   6.636   3.056
94670SOL    HW285908   9.771   6.504   2.981
94671SOL     OW85909   8.084   2.416  14.878
94671SOL    HW185910   8.040   2.360   0.061
94671SOL    HW285911   8.173   2.382  14.874
94672SOL     OW85912  10.054   3.975  14.305
94672SOL    HW185913  10.047   3.891  14.351
94672SOL    HW285914   9.996   4.033  14.354
94673SOL     OW85915  13.574  13.682  13.381
94673SOL    HW185916  13.574  13.776  13.398
94673SOL    HW285917  13.653  13.667  13.328
94674SOL     OW85918   6.875   9.610   4.413
94674SOL    HW185919   6.911   9.538   4.464
94674SOL    HW285920   6.906   9.689   4.457
94675SOL     OW85921   1.326   6.760  11.896
94675SOL    HW185922   1.319   6.775  11.990
94675SOL    HW285923   1.236   6.743  11.867
94676SOL     OW85924   3.510   9.828  12.569
94676SOL    HW185925   3.458   9.782  12.636
94676SOL    HW285926   3.457   9.822  12.490
94677SOL     OW85927  10.516   0.586   0.940
94677SOL    HW185928  10.563   0.590   1.023
94677SOL    HW285929  10.436   0.538   0.960
94678SOL     OW85930  10.036   1.278  13.360
94678SOL    HW185931  10.107   1.264  13.423
94678SOL    HW285932  10.011   1.369  13.371
94679SOL     OW85933  13.410   8.029  11.616
94679SOL    HW185934  13.413   8.028  11.520
94679SOL    HW285935  13.356   7.953  11.639
94680SOL     OW85936   9.069   6.629   8.752
94680SOL    HW185937   9.109   6.604   8.836
94680SOL    HW285938   9.056   6.724   8.760
94681SOL     OW85939  13.617   6.749   4.668
94681SOL    HW185940  13.692   6.798   4.702
94681SOL    HW285941  13.552   6.753   4.739
94682SOL     OW85942  14.501   8.255   3.704
94682SOL    HW185943  14.563   8.327   3.718
94682SOL    HW285944  14.557   8.177   3.694
94683SOL     OW85945   0.788  11.569   6.053
94683SOL    HW185946   0.732  11.641   6.081
94683SOL    HW285947   0.762  11.552   5.962
94684SOL     OW85948   6.117  14.130   0.385
94684SOL    HW185949   6.200  14.174   0.403
94684SOL    HW285950   6.115  14.057   0.447
94685SOL     OW85951   2.184   0.114  10.874
94685SOL    HW185952   2.271   0.151  10.890
94685SOL    HW285953   2.129   0.189  10.855
94686SOL     OW85954  11.960   9.987   9.737
94686SOL    HW185955  12.015  10.055   9.700
94686SOL    HW285956  11.921   9.943   9.660
94687SOL     OW85957  11.100   6.094   8.801
94687SOL    HW185958  11.142   6.148   8.868
94687SOL    HW285959  11.036   6.152   8.761
94688SOL     OW85960   6.059   6.175   5.719
94688SOL    HW185961   6.018   6.098   5.759
94688SOL    HW285962   6.104   6.218   5.792
94689SOL     OW85963  10.135  13.841   6.832
94689SOL    HW185964  10.210  13.893   6.862
94689SOL    HW285965  10.163  13.805   6.748
94690SOL     OW85966   6.626   0.617   4.381
94690SOL    HW185967   6.702   0.565   4.409
94690SOL    HW285968   6.550   0.568   4.414
94691SOL     OW85969   5.306   7.452   1.595
94691SOL    HW185970   5.322   7.421   1.506
94691SOL    HW285971   5.285   7.372   1.644
94692SOL     OW85972  14.099  13.599  13.557
94692SOL    HW185973  14.081  13.526  13.498
94692SOL    HW285974  14.194  13.597  13.571
94693SOL     OW85975   7.417   9.407  14.105
94693SOL    HW185976   7.470   9.472  14.059
94693SOL    HW285977   7.478   9.337  14.126
94694SOL     OW85978   4.117  12.358   2.655
94694SOL    HW185979   4.088  12.445   2.627
94694SOL    HW285980   4.056  12.297   2.614
94695SOL     OW85981   9.722   1.113  10.556
94695SOL    HW185982   9.795   1.170  10.579
94695SOL    HW285983   9.731   1.038  10.615
94696SOL     OW85984  11.177   0.998  11.639
94696SOL    HW185985  11.089   0.967  11.617
94696SOL    HW285986  11.229   0.979  11.561
94697SOL     OW85987  11.217  10.812  12.676
94697SOL    HW185988  11.153  10.862  12.726
94697SOL    HW285989  11.258  10.875  12.617
94698SOL     OW85990   5.722   1.782   1.066
94698SOL    HW185991   5.814   1.791   1.090
94698SOL    HW285992   5.690   1.872   1.058
94699SOL     OW85993   2.492   1.271   1.452
94699SOL    HW185994   2.396   1.267   1.448
94699SOL    HW285995   2.511   1.355   1.493
94700SOL     OW85996   3.672   8.705   4.655
94700SOL    HW185997   3.745   8.747   4.701
94700SOL    HW285998   3.607   8.774   4.644
94701SOL     OW85999   7.453  12.687   3.864
94701SOL    HW186000   7.458  12.667   3.770
94701SOL    HW286001   7.374  12.739   3.874
94702SOL     OW86002  12.288   2.577   4.876
94702SOL    HW186003  12.375   2.595   4.842
94702SOL    HW286004  12.282   2.481   4.876
94703SOL     OW86005   6.209   4.618   4.042
94703SOL    HW186006   6.230   4.589   3.953
94703SOL    HW286007   6.233   4.544   4.097
94704SOL     OW86008   5.843   1.690  14.227
94704SOL    HW186009   5.933   1.718  14.210
94704SOL    HW286010   5.846   1.594  14.219
94705SOL     OW86011  13.704   9.551   8.081
94705SOL    HW186012  13.789   9.556   8.125
94705SOL    HW286013  13.649   9.501   8.142
94706SOL     OW86014   1.400   0.162  12.054
94706SOL    HW186015   1.385   0.070  12.032
94706SOL    HW286016   1.487   0.163  12.095
94707SOL     OW86017   4.900   0.549  10.975
94707SOL    HW186018   4.952   0.609  10.922
94707SOL    HW286019   4.934   0.462  10.953
94708SOL     OW86020   9.710   8.659   5.799
94708SOL    HW186021   9.692   8.699   5.713
94708SOL    HW286022   9.805   8.668   5.809
94709SOL     OW86023   5.036   2.982  11.613
94709SOL    HW186024   5.101   2.912  11.604
94709SOL    HW286025   5.002   2.995  11.525
94710SOL     OW86026  12.646  13.381   0.095
94710SOL    HW186027  12.715  13.448   0.094
94710SOL    HW286028  12.684  13.308   0.045
94711SOL     OW86029  11.243   5.569   8.023
94711SOL    HW186030  11.168   5.580   8.081
94711SOL    HW286031  11.205   5.560   7.935
94712SOL     OW86032   9.261  12.464   8.462
94712SOL    HW186033   9.275  12.500   8.374
94712SOL    HW286034   9.292  12.532   8.521
94713SOL     OW86035   4.716  14.661   4.123
94713SOL    HW186036   4.799  14.638   4.082
94713SOL    HW286037   4.678  14.726   4.064
94714SOL     OW86038  10.580   0.299   3.095
94714SOL    HW186039  10.549   0.388   3.078
94714SOL    HW286040  10.530   0.271   3.171
94715SOL     OW86041   2.599   4.743   6.049
94715SOL    HW186042   2.657   4.673   6.017
94715SOL    HW286043   2.555   4.775   5.970
94716SOL     OW86044   3.069  11.182  12.075
94716SOL    HW186045   3.130  11.108  12.074
94716SOL    HW286046   3.032  11.183  11.987
94717SOL     OW86047  13.347   0.857   0.929
94717SOL    HW186048  13.353   0.835   0.836
94717SOL    HW286049  13.393   0.786   0.974
94718SOL     OW86050  10.671   0.741   1.469
94718SOL    HW186051  10.658   0.709   1.559
94718SOL    HW286052  10.590   0.717   1.424
94719SOL     OW86053  13.807  14.284   2.973
94719SOL    HW186054  13.777  14.195   2.993
94719SOL    HW286055  13.901  14.282   2.993
94720SOL     OW86056   7.529   2.446   8.592
94720SOL    HW186057   7.472   2.519   8.615
94720SOL    HW286058   7.525   2.442   8.496
94721SOL     OW86059   7.948  10.739   7.495
94721SOL    HW186060   7.996  10.718   7.575
94721SOL    HW286061   7.877  10.676   7.492
94722SOL     OW86062  12.513   8.997   8.952
94722SOL    HW186063  12.422   8.988   8.927
94722SOL    HW286064  12.548   8.908   8.952
94723SOL     OW86065  10.644   0.449   8.916
94723SOL    HW186066  10.600   0.532   8.902
94723SOL    HW286067  10.713   0.469   8.980
94724SOL     OW86068  10.067  12.671   0.657
94724SOL    HW186069  10.146  12.725   0.664
94724SOL    HW286070  10.099  12.586   0.627
94725SOL     OW86071   4.430  12.545   7.592
94725SOL    HW186072   4.441  12.501   7.508
94725SOL    HW286073   4.418  12.474   7.655
94726SOL     OW86074   0.138   7.509   0.269
94726SOL    HW186075   0.177   7.597   0.275
94726SOL    HW286076   0.089   7.510   0.187
94727SOL     OW86077   3.011   8.976   0.393
94727SOL    HW186078   3.003   9.024   0.476
94727SOL    HW286079   2.977   8.889   0.413
94728SOL     OW86080  10.026   6.177  12.127
94728SOL    HW186081  10.105   6.231  12.125
94728SOL    HW286082  10.014   6.150  12.036
94729SOL     OW86083   0.516   3.091   8.436
94729SOL    HW186084   0.568   3.093   8.516
94729SOL    HW286085   0.515   3.182   8.405
94730SOL     OW86086   0.095   9.462   2.454
94730SOL    HW186087   0.057   9.487   2.370
94730SOL    HW286088   0.071   9.533   2.513
94731SOL     OW86089   6.930   0.508   9.293
94731SOL    HW186090   6.938   0.519   9.388
94731SOL    HW286091   6.961   0.419   9.277
94732SOL     OW86092  10.086  10.451  14.689
94732SOL    HW186093  10.046  10.443  14.775
94732SOL    HW286094  10.065  10.368  14.645
94733SOL     OW86095   5.950   7.704   6.861
94733SOL    HW186096   6.034   7.748   6.875
94733SOL    HW286097   5.901   7.765   6.806
94734SOL     OW86098   1.510  14.556  14.227
94734SOL    HW186099   1.453  14.527  14.299
94734SOL    HW286100   1.479  14.644  14.206
94735SOL     OW86101  12.210   5.739  13.962
94735SOL    HW186102  12.286   5.704  13.914
94735SOL    HW286103  12.246   5.811  14.014
94736SOL     OW86104   0.172  13.035  10.303
94736SOL    HW186105   0.118  12.982  10.362
94736SOL    HW286106   0.118  13.045  10.224
94737SOL     OW86107   8.988  12.587   7.511
94737SOL    HW186108   8.970  12.659   7.572
94737SOL    HW286109   8.957  12.619   7.427
94738SOL     OW86110  11.861   6.327   5.540
94738SOL    HW186111  11.835   6.420   5.545
94738SOL    HW286112  11.801   6.290   5.475
94739SOL     OW86113  13.330   0.718   7.370
94739SOL    HW186114  13.401   0.715   7.434
94739SOL    HW286115  13.369   0.683   7.290
94740SOL     OW86116   4.899  11.505   1.394
94740SOL    HW186117   4.877  11.543   1.309
94740SOL    HW286118   4.817  11.508   1.443
94741SOL     OW86119  13.807   4.546   9.191
94741SOL    HW186120  13.755   4.515   9.117
94741SOL    HW286121  13.864   4.613   9.153
94742SOL     OW86122  10.646   3.028   8.903
94742SOL    HW186123  10.590   3.019   8.826
94742SOL    HW286124  10.727   3.068   8.870
94743SOL     OW86125   3.508  14.720   9.697
94743SOL    HW186126   3.522  14.684   9.609
94743SOL    HW286127   3.484  14.812   9.681
94744SOL     OW86128   7.862  13.205   7.198
94744SOL    HW186129   7.781  13.240   7.236
94744SOL    HW286130   7.918  13.188   7.273
94745SOL     OW86131  11.441   0.794   3.448
94745SOL    HW186132  11.401   0.832   3.370
94745SOL    HW286133  11.372   0.741   3.487
94746SOL     OW86134  10.197  14.650   0.925
94746SOL    HW186135  10.214  14.607   0.841
94746SOL    HW286136  10.191  14.579   0.989
94747SOL     OW86137   7.970   1.652   0.421
94747SOL    HW186138   7.958   1.741   0.389
94747SOL    HW286139   7.886   1.628   0.459
94748SOL     OW86140   2.774   7.253  13.830
94748SOL    HW186141   2.857   7.206  13.836
94748SOL    HW286142   2.729   7.213  13.755
94749SOL     OW86143   9.705   7.695   5.077
94749SOL    HW186144   9.643   7.653   5.137
94749SOL    HW286145   9.651   7.733   5.008
94750SOL     OW86146   3.820  14.682   7.783
94750SOL    HW186147   3.745  14.742   7.776
94750SOL    HW286148   3.868  14.713   7.860
94751SOL     OW86149   1.641   8.555   0.757
94751SOL    HW186150   1.548   8.567   0.779
94751SOL    HW286151   1.645   8.570   0.662
94752SOL     OW86152   5.081   7.908  11.059
94752SOL    HW186153   5.031   7.944  10.986
94752SOL    HW286154   5.153   7.971  11.072
94753SOL     OW86155   4.437   2.428   3.864
94753SOL    HW186156   4.353   2.384   3.855
94753SOL    HW286157   4.422   2.498   3.927
94754SOL     OW86158   4.054  13.094   2.443
94754SOL    HW186159   4.049  13.044   2.362
94754SOL    HW286160   4.104  13.172   2.421
94755SOL     OW86161   4.796   3.081   6.674
94755SOL    HW186162   4.788   3.107   6.766
94755SOL    HW286163   4.711   3.041   6.653
94756SOL     OW86164   7.059   9.591   5.735
94756SOL    HW186165   7.050   9.671   5.787
94756SOL    HW286166   6.989   9.597   5.670
94757SOL     OW86167   4.879   2.915   3.147
94757SOL    HW186168   4.962   2.870   3.158
94757SOL    HW286169   4.894   3.003   3.181
94758SOL     OW86170   2.263  11.121   4.932
94758SOL    HW186171   2.286  11.209   4.964
94758SOL    HW286172   2.215  11.081   5.005
94759SOL     OW86173   9.008   6.461  11.032
94759SOL    HW186174   8.959   6.528  11.079
94759SOL    HW286175   9.087   6.507  11.000
94760SOL     OW86176   7.490   5.664  13.710
94760SOL    HW186177   7.419   5.727  13.718
94760SOL    HW286178   7.522   5.675  13.620
94761SOL     OW86179  10.734  13.650   5.456
94761SOL    HW186180  10.804  13.671   5.395
94761SOL    HW286181  10.729  13.554   5.454
94762SOL     OW86182  14.875   9.275  14.755
94762SOL    HW186183  14.848   9.330  14.682
94762SOL    HW286184  14.849   9.187  14.730
94763SOL     OW86185   0.232   3.275   0.376
94763SOL    HW186186   0.250   3.221   0.453
94763SOL    HW286187   0.294   3.348   0.382
94764SOL     OW86188   9.693  12.080   3.452
94764SOL    HW186189   9.719  12.138   3.524
94764SOL    HW286190   9.751  12.005   3.461
94765SOL     OW86191   8.603  14.869   2.920
94765SOL    HW186192   8.692  14.865   2.887
94765SOL    HW286193   8.613   0.006   3.013
94766SOL     OW86194   5.255   5.603  14.729
94766SOL    HW186195   5.204   5.629  14.806
94766SOL    HW286196   5.330   5.555  14.766
94767SOL     OW86197  10.730   8.935   9.841
94767SOL    HW186198  10.711   8.946   9.748
94767SOL    HW286199  10.748   8.841   9.850
94768SOL     OW86200   8.054   3.952  11.891
94768SOL    HW186201   8.132   3.896  11.890
94768SOL    HW286202   8.001   3.919  11.819
94769SOL     OW86203   4.323   1.488   4.741
94769SOL    HW186204   4.260   1.419   4.761
94769SOL    HW286205   4.401   1.441   4.712
94770SOL     OW86206  13.132   2.107  13.211
94770SOL    HW186207  13.075   2.054  13.155
94770SOL    HW286208  13.184   2.160  13.149
94771SOL     OW86209  10.254   7.742   8.476
94771SOL    HW186210  10.194   7.670   8.495
94771SOL    HW286211  10.258   7.745   8.380
94772SOL     OW86212  10.879  13.254  13.234
94772SOL    HW186213  10.939  13.181  13.220
94772SOL    HW286214  10.891  13.310  13.157
94773SOL     OW86215   8.914  13.645   0.023
94773SOL    HW186216   8.952  13.578   0.080
94773SOL    HW286217   8.938  13.616  14.816
94774SOL     OW86218  13.445   5.744   7.709
94774SOL    HW186219  13.465   5.658   7.746
94774SOL    HW286220  13.407   5.724   7.623
94775SOL     OW86221   9.659   8.412   1.689
94775SOL    HW186222   9.652   8.382   1.598
94775SOL    HW286223   9.702   8.498   1.683
94776SOL     OW86224   6.244   2.482  10.236
94776SOL    HW186225   6.256   2.438  10.321
94776SOL    HW286226   6.307   2.440  10.178
94777SOL     OW86227   5.258   1.195   5.527
94777SOL    HW186228   5.340   1.210   5.574
94777SOL    HW286229   5.193   1.245   5.576
94778SOL     OW86230   5.380   9.609   6.607
94778SOL    HW186231   5.290   9.578   6.615
94778SOL    HW286232   5.377   9.700   6.636
94779SOL     OW86233   9.766  13.991   5.450
94779SOL    HW186234   9.764  14.032   5.364
94779SOL    HW286235   9.693  13.929   5.449
94780SOL     OW86236   4.314   4.846   9.130
94780SOL    HW186237   4.334   4.817   9.219
94780SOL    HW286238   4.347   4.777   9.073
94781SOL     OW86239   5.706   4.848  13.010
94781SOL    HW186240   5.743   4.903  13.078
94781SOL    HW286241   5.755   4.766  13.016
94782SOL     OW86242  14.456  14.354   0.050
94782SOL    HW186243  14.432  14.443   0.026
94782SOL    HW286244  14.509  14.322  14.859
94783SOL     OW86245   6.739  14.025   3.136
94783SOL    HW186246   6.806  13.997   3.198
94783SOL    HW286247   6.702  14.105   3.175
94784SOL     OW86248  14.310   2.068   3.506
94784SOL    HW186249  14.285   1.999   3.444
94784SOL    HW286250  14.396   2.043   3.538
94785SOL     OW86251   4.967   1.422   1.880
94785SOL    HW186252   4.963   1.330   1.905
94785SOL    HW286253   4.893   1.463   1.925
94786SOL     OW86254  12.772   6.317   2.720
94786SOL    HW186255  12.748   6.402   2.758
94786SOL    HW286256  12.710   6.255   2.759
94787SOL     OW86257   7.391   3.781  10.254
94787SOL    HW186258   7.356   3.818  10.335
94787SOL    HW286259   7.407   3.857  10.198
94788SOL     OW86260  10.746   6.635   8.863
94788SOL    HW186261  10.696   6.678   8.933
94788SOL    HW286262  10.769   6.706   8.803
94789SOL     OW86263  10.231  11.196   6.795
94789SOL    HW186264  10.278  11.164   6.718
94789SOL    HW286265  10.255  11.134   6.865
94790SOL     OW86266   0.910  10.715   2.751
94790SOL    HW186267   0.914  10.628   2.791
94790SOL    HW286268   0.864  10.701   2.668
94791SOL     OW86269   3.746   0.065  12.392
94791SOL    HW186270   3.689  14.870  12.386
94791SOL    HW286271   3.786   0.071  12.305
94792SOL     OW86272  14.551   3.353  13.220
94792SOL    HW186273  14.634   3.305  13.214
94792SOL    HW286274  14.569   3.437  13.178
94793SOL     OW86275   8.869   6.452   3.101
94793SOL    HW186276   8.888   6.445   3.008
94793SOL    HW286277   8.799   6.517   3.107
94794SOL     OW86278   0.452   1.478  12.930
94794SOL    HW186279   0.483   1.505  13.016
94794SOL    HW286280   0.373   1.428  12.947
94795SOL     OW86281   0.770  10.550   8.591
94795SOL    HW186282   0.799  10.567   8.681
94795SOL    HW286283   0.702  10.615   8.575
94796SOL     OW86284   7.177  13.200   4.267
94796SOL    HW186285   7.158  13.291   4.245
94796SOL    HW286286   7.271  13.191   4.252
94797SOL     OW86287  11.653   3.738  13.939
94797SOL    HW186288  11.646   3.664  14.000
94797SOL    HW286289  11.564   3.751  13.907
94798SOL     OW86290   5.994   1.815   1.080
94798SOL    HW186291   6.050   1.754   1.128
94798SOL    HW286292   6.023   1.902   1.108
94799SOL     OW86293   4.558   9.610  12.570
94799SOL    HW186294   4.593   9.648  12.650
94799SOL    HW286295   4.501   9.539  12.600
94800SOL     OW86296  13.337   1.888   4.969
94800SOL    HW186297  13.413   1.836   4.993
94800SOL    HW286298  13.368   1.945   4.899
94801SOL     OW86299  10.461  12.684   0.070
94801SOL    HW186300  10.403  12.760   0.069
94801SOL    HW286301  10.492  12.678   0.160
94802SOL     OW86302   2.985  10.604   7.167
94802SOL    HW186303   3.017  10.617   7.078
94802SOL    HW286304   2.905  10.552   7.156
94803SOL     OW86305   4.465   4.690  10.266
94803SOL    HW186306   4.425   4.637  10.335
94803SOL    HW286307   4.544   4.642  10.241
94804SOL     OW86308   5.428  12.022   0.307
94804SOL    HW186309   5.515  12.019   0.268
94804SOL    HW286310   5.369  12.010   0.232
94805SOL     OW86311   3.220   3.506  11.512
94805SOL    HW186312   3.148   3.569  11.506
94805SOL    HW286313   3.178   3.424  11.537
94806SOL     OW86314  11.578  12.854   2.801
94806SOL    HW186315  11.535  12.931   2.837
94806SOL    HW286316  11.583  12.793   2.875
94807SOL     OW86317   1.371  12.698  11.483
94807SOL    HW186318   1.307  12.764  11.456
94807SOL    HW286319   1.417  12.675  11.403
94808SOL     OW86320  12.325   4.129   8.185
94808SOL    HW186321  12.304   4.056   8.127
94808SOL    HW286322  12.347   4.088   8.268
94809SOL     OW86323   4.968   6.118   5.772
94809SOL    HW186324   4.938   6.177   5.842
94809SOL    HW286325   4.992   6.177   5.701
94810SOL     OW86326   4.614  13.707   6.115
94810SOL    HW186327   4.677  13.777   6.103
94810SOL    HW286328   4.619  13.686   6.209
94811SOL     OW86329  11.885  10.979   3.444
94811SOL    HW186330  11.931  10.895   3.457
94811SOL    HW286331  11.955  11.040   3.421
94812SOL     OW86332  11.137  13.374   9.163
94812SOL    HW186333  11.142  13.289   9.209
94812SOL    HW286334  11.127  13.350   9.071
94813SOL     OW86335   3.198   0.099   6.014
94813SOL    HW186336   3.174   0.162   6.082
94813SOL    HW286337   3.228   0.153   5.941
94814SOL     OW86338   3.838  10.446   5.253
94814SOL    HW186339   3.911  10.506   5.271
94814SOL    HW286340   3.804  10.476   5.168
94815SOL     OW86341  11.940   0.430   5.443
94815SOL    HW186342  11.972   0.428   5.534
94815SOL    HW286343  12.012   0.391   5.392
94816SOL     OW86344   2.208   0.843  14.084
94816SOL    HW186345   2.214   0.898  14.162
94816SOL    HW286346   2.200   0.905  14.011
94817SOL     OW86347   9.298  13.702  11.329
94817SOL    HW186348   9.293  13.624  11.274
94817SOL    HW286349   9.359  13.760  11.283
94818SOL     OW86350  14.514   6.765   2.139
94818SOL    HW186351  14.551   6.738   2.223
94818SOL    HW286352  14.579   6.739   2.075
94819SOL     OW86353   9.853  13.578   3.404
94819SOL    HW186354   9.820  13.488   3.404
94819SOL    HW286355   9.779  13.631   3.431
94820SOL     OW86356  13.642  13.976  12.575
94820SOL    HW186357  13.721  14.031  12.570
94820SOL    HW286358  13.671  13.889  12.548
94821SOL     OW86359  12.612   7.108   7.826
94821SOL    HW186360  12.581   7.017   7.824
94821SOL    HW286361  12.566   7.147   7.900
94822SOL     OW86362   3.651   3.031   4.636
94822SOL    HW186363   3.695   3.042   4.552
94822SOL    HW286364   3.694   2.956   4.676
94823SOL     OW86365  14.012   5.218   5.876
94823SOL    HW186366  14.063   5.287   5.832
94823SOL    HW286367  14.072   5.143   5.878
94824SOL     OW86368  12.083   2.033  12.029
94824SOL    HW186369  12.027   2.111  12.026
94824SOL    HW286370  12.045   1.977  12.095
94825SOL     OW86371  10.631   5.844  12.639
94825SOL    HW186372  10.634   5.940  12.636
94825SOL    HW286373  10.719   5.816  12.613
94826SOL     OW86374  14.100   5.954   5.714
94826SOL    HW186375  14.036   5.903   5.665
94826SOL    HW286376  14.169   5.975   5.651
94827SOL     OW86377  13.825   3.926   8.737
94827SOL    HW186378  13.774   3.865   8.790
94827SOL    HW286379  13.908   3.935   8.784
94828SOL     OW86380  13.163  10.376  10.027
94828SOL    HW186381  13.110  10.393  10.105
94828SOL    HW286382  13.149  10.452   9.971
94829SOL     OW86383   9.135   2.099   0.112
94829SOL    HW186384   9.201   2.161   0.082
94829SOL    HW286385   9.135   2.029   0.046
94830SOL     OW86386   3.871  10.361   5.534
94830SOL    HW186387   3.885  10.455   5.535
94830SOL    HW286388   3.796  10.348   5.476
94831SOL     OW86389   1.641   2.518   3.854
94831SOL    HW186390   1.720   2.473   3.824
94831SOL    HW286391   1.597   2.453   3.909
94832SOL     OW86392  11.960  11.532   0.175
94832SOL    HW186393  11.893  11.498   0.234
94832SOL    HW286394  11.983  11.459   0.119
94833SOL     OW86395  10.533   6.133  13.481
94833SOL    HW186396  10.524   6.132  13.386
94833SOL    HW286397  10.455   6.179  13.512
94834SOL     OW86398   8.426  13.456   6.630
94834SOL    HW186399   8.369  13.430   6.702
94834SOL    HW286400   8.514  13.430   6.659
94835SOL     OW86401   9.350   9.262   6.868
94835SOL    HW186402   9.299   9.190   6.830
94835SOL    HW286403   9.285   9.330   6.884
94836SOL     OW86404   4.719   7.609  11.258
94836SOL    HW186405   4.704   7.615  11.353
94836SOL    HW286406   4.814   7.616  11.249
94837SOL     OW86407  10.704   0.137   4.592
94837SOL    HW186408  10.674   0.081   4.664
94837SOL    HW286409  10.710   0.078   4.517
94838SOL     OW86410  10.808  10.627   6.931
94838SOL    HW186411  10.899  10.633   6.903
94838SOL    HW286412  10.771  10.554   6.881
94839SOL     OW86413  14.633   5.405  11.852
94839SOL    HW186414  14.659   5.481  11.903
94839SOL    HW286415  14.631   5.436  11.761
94840SOL     OW86416  13.786   3.249  10.859
94840SOL    HW186417  13.752   3.277  10.775
94840SOL    HW286418  13.867   3.299  10.870
94841SOL     OW86419  11.100   3.134  13.613
94841SOL    HW186420  11.033   3.176  13.667
94841SOL    HW286421  11.115   3.050  13.655
94842SOL     OW86422  10.220   3.708   4.564
94842SOL    HW186423  10.185   3.791   4.597
94842SOL    HW286424  10.207   3.646   4.636
94843SOL     OW86425   5.688   5.448   2.727
94843SOL    HW186426   5.669   5.403   2.644
94843SOL    HW286427   5.617   5.420   2.785
94844SOL     OW86428  11.640   1.919  10.248
94844SOL    HW186429  11.686   1.996  10.216
94844SOL    HW286430  11.650   1.924  10.343
94845SOL     OW86431  14.026  10.522  14.710
94845SOL    HW186432  14.043  10.444  14.658
94845SOL    HW286433  14.018  10.491  14.800
94846SOL     OW86434  11.573   5.098   8.115
94846SOL    HW186435  11.516   5.117   8.041
94846SOL    HW286436  11.574   5.002   8.119
94847SOL     OW86437   7.556  12.963  12.830
94847SOL    HW186438   7.491  13.027  12.805
94847SOL    HW286439   7.635  12.988  12.781
94848SOL     OW86440   7.030   1.314   6.560
94848SOL    HW186441   7.090   1.359   6.620
94848SOL    HW286442   7.086   1.261   6.504
94849SOL     OW86443   5.294   2.206   7.351
94849SOL    HW186444   5.260   2.118   7.335
94849SOL    HW286445   5.269   2.225   7.442
94850SOL     OW86446   7.679  12.255  11.317
94850SOL    HW186447   7.749  12.262  11.253
94850SOL    HW286448   7.630  12.337  11.308
94851SOL     OW86449  13.925   0.616   7.692
94851SOL    HW186450  13.849   0.558   7.692
94851SOL    HW286451  13.893   0.698   7.729
94852SOL     OW86452   3.666  12.840   7.684
94852SOL    HW186453   3.640  12.932   7.695
94852SOL    HW286454   3.589  12.790   7.711
94853SOL     OW86455   4.867  14.211  12.345
94853SOL    HW186456   4.909  14.292  12.316
94853SOL    HW286457   4.938  14.157  12.379
94854SOL     OW86458  14.400   2.233  12.127
94854SOL    HW186459  14.426   2.176  12.055
94854SOL    HW286460  14.474   2.231  12.187
94855SOL     OW86461   4.216  10.185   1.954
94855SOL    HW186462   4.225  10.149   2.042
94855SOL    HW286463   4.233  10.112   1.895
94856SOL     OW86464   2.158   3.843  12.408
94856SOL    HW186465   2.177   3.750  12.395
94856SOL    HW286466   2.067   3.853  12.380
94857SOL     OW86467  10.993   9.707   1.947
94857SOL    HW186468  11.082   9.677   1.966
94857SOL    HW286469  10.963   9.649   1.877
94858SOL     OW86470  13.623  11.366  11.823
94858SOL    HW186471  13.712  11.401  11.823
94858SOL    HW286472  13.626  11.295  11.759
94859SOL     OW86473  10.629   2.253   5.401
94859SOL    HW186474  10.629   2.306   5.480
94859SOL    HW286475  10.651   2.165   5.430
94860SOL     OW86476   6.991   1.073  14.467
94860SOL    HW186477   6.997   1.007  14.537
94860SOL    HW286478   6.930   1.035  14.404
94861SOL     OW86479   6.393  11.620  14.041
94861SOL    HW186480   6.438  11.702  14.020
94861SOL    HW286481   6.307  11.629  14.000
94862SOL     OW86482   4.624   9.771   3.795
94862SOL    HW186483   4.593   9.680   3.794
94862SOL    HW286484   4.546   9.823   3.774
94863SOL     OW86485  13.867   3.470   1.009
94863SOL    HW186486  13.851   3.429   0.924
94863SOL    HW286487  13.943   3.526   0.994
94864SOL     OW86488  14.009   3.077   9.319
94864SOL    HW186489  13.977   2.989   9.337
94864SOL    HW286490  14.102   3.066   9.299
94865SOL     OW86491   0.006   2.027   7.071
94865SOL    HW186492   0.007   1.976   6.990
94865SOL    HW286493  14.805   2.004   7.113
94866SOL     OW86494  14.485   7.926   3.986
94866SOL    HW186495  14.537   8.003   4.010
94866SOL    HW286496  14.424   7.915   4.059
94867SOL     OW86497   9.978   9.593  14.069
94867SOL    HW186498   9.914   9.547  14.123
94867SOL    HW286499   9.930   9.667  14.032
94868SOL     OW86500   0.031  12.432  11.021
94868SOL    HW186501   0.053  12.506  11.078
94868SOL    HW286502   0.113  12.412  10.976
94869SOL     OW86503  10.825   8.187  13.486
94869SOL    HW186504  10.787   8.141  13.560
94869SOL    HW286505  10.912   8.147  13.474
94870SOL     OW86506   6.135   0.639   2.932
94870SOL    HW186507   6.221   0.602   2.954
94870SOL    HW286508   6.077   0.563   2.927
94871SOL     OW86509   8.292   4.215   2.852
94871SOL    HW186510   8.367   4.218   2.910
94871SOL    HW286511   8.289   4.303   2.813
94872SOL     OW86512  10.487   6.533  13.062
94872SOL    HW186513  10.489   6.469  12.991
94872SOL    HW286514  10.414   6.505  13.117
94873SOL     OW86515   7.553   1.768   2.996
94873SOL    HW186516   7.490   1.714   2.948
94873SOL    HW286517   7.499   1.832   3.043
94874SOL     OW86518   8.240   2.134   0.271
94874SOL    HW186519   8.223   2.156   0.180
94874SOL    HW286520   8.157   2.149   0.315
94875SOL     OW86521   9.268  14.659   2.660
94875SOL    HW186522   9.319  14.640   2.739
94875SOL    HW286523   9.239  14.574   2.629
94876SOL     OW86524   7.653   6.403   8.296
94876SOL    HW186525   7.603   6.448   8.228
94876SOL    HW286526   7.742   6.438   8.289
94877SOL     OW86527   9.014   0.508  11.757
94877SOL    HW186528   8.967   0.587  11.786
94877SOL    HW286529   9.056   0.533  11.676
94878SOL     OW86530  14.473   6.209   8.661
94878SOL    HW186531  14.397   6.267   8.669
94878SOL    HW286532  14.441   6.124   8.692
94879SOL     OW86533   2.763   5.257  13.250
94879SOL    HW186534   2.709   5.332  13.274
94879SOL    HW286535   2.701   5.192  13.216
94880SOL     OW86536  14.524   8.776  13.130
94880SOL    HW186537  14.581   8.715  13.084
94880SOL    HW286538  14.580   8.818  13.194
94881SOL     OW86539   2.569  14.805   1.913
94881SOL    HW186540   2.577  14.819   2.007
94881SOL    HW286541   2.572  14.710   1.902
94882SOL     OW86542   9.466   1.883   5.614
94882SOL    HW186543   9.531   1.817   5.637
94882SOL    HW286544   9.410   1.839   5.549
94883SOL     OW86545  14.438   2.050   2.761
94883SOL    HW186546  14.464   2.042   2.853
94883SOL    HW286547  14.368   2.115   2.761
94884SOL     OW86548  12.362   2.920   3.998
94884SOL    HW186549  12.272   2.912   3.969
94884SOL    HW286550  12.399   2.832   3.989
94885SOL     OW86551   8.783  12.034   9.120
94885SOL    HW186552   8.707  12.077   9.158
94885SOL    HW286553   8.822  11.986   9.193
94886SOL     OW86554   0.992  13.952  13.738
94886SOL    HW186555   0.901  13.976  13.756
94886SOL    HW286556   1.002  13.864  13.776
94887SOL     OW86557  14.525   3.927   1.709
94887SOL    HW186558  14.605   3.926   1.656
94887SOL    HW286559  14.470   3.860   1.669
94888SOL     OW86560  10.146  10.314   5.673
94888SOL    HW186561  10.091  10.388   5.646
94888SOL    HW286562  10.084  10.242   5.684
94889SOL     OW86563   3.552  12.551   5.451
94889SOL    HW186564   3.474  12.513   5.411
94889SOL    HW286565   3.616  12.555   5.380
94890SOL     OW86566  10.901  11.441   4.512
94890SOL    HW186567  10.905  11.352   4.475
94890SOL    HW286568  10.992  11.470   4.513
94891SOL     OW86569   0.142   1.537   7.791
94891SOL    HW186570   0.102   1.624   7.784
94891SOL    HW286571   0.070   1.479   7.814
94892SOL     OW86572   9.310   0.051   4.051
94892SOL    HW186573   9.229   0.081   4.009
94892SOL    HW286574   9.285  14.851   4.094
94893SOL     OW86575   5.530   9.350   8.629
94893SOL    HW186576   5.589   9.407   8.580
94893SOL    HW286577   5.501   9.285   8.565
94894SOL     OW86578  14.560   4.055   9.600
94894SOL    HW186579  14.647   4.093   9.591
94894SOL    HW286580  14.528   4.048   9.510
94895SOL     OW86581   1.579   1.015  13.014
94895SOL    HW186582   1.585   0.920  13.001
94895SOL    HW286583   1.496   1.040  12.974
94896SOL     OW86584   4.089   4.987   6.075
94896SOL    HW186585   4.148   4.916   6.101
94896SOL    HW286586   4.056   4.960   5.989
94897SOL     OW86587   8.846   6.414   3.529
94897SOL    HW186588   8.886   6.499   3.508
94897SOL    HW286589   8.755   6.424   3.501
94898SOL     OW86590   8.151   2.995   5.136
94898SOL    HW186591   8.093   2.976   5.210
94898SOL    HW286592   8.162   2.911   5.092
94899SOL     OW86593   5.737  12.732  10.482
94899SOL    HW186594   5.730  12.638  10.467
94899SOL    HW286595   5.660  12.769  10.437
94900SOL     OW86596  11.378   8.903  10.821
94900SOL    HW186597  11.473   8.901  10.823
94900SOL    HW286598  11.357   8.990  10.787
94901SOL     OW86599   4.028  10.955  11.667
94901SOL    HW186600   4.040  11.027  11.604
94901SOL    HW286601   3.936  10.931  11.658
94902SOL     OW86602   7.959   7.295   5.609
94902SOL    HW186603   7.957   7.375   5.662
94902SOL    HW286604   7.883   7.303   5.552
94903SOL     OW86605  14.025   9.892  14.445
94903SOL    HW186606  14.023   9.839  14.364
94903SOL    HW286607  14.031   9.827  14.515
94904SOL     OW86608   9.643   7.479  14.472
94904SOL    HW186609   9.676   7.391  14.487
94904SOL    HW286610   9.570   7.489  14.534
94905SOL     OW86611   6.526  12.786  14.688
94905SOL    HW186612   6.437  12.756  14.709
94905SOL    HW286613   6.574  12.777  14.770
94906SOL     OW86614  13.100  11.088   0.325
94906SOL    HW186615  13.066  11.176   0.340
94906SOL    HW286616  13.195  11.100   0.321
94907SOL     OW86617   4.951   6.521   0.885
94907SOL    HW186618   4.889   6.511   0.957
94907SOL    HW286619   4.940   6.443   0.831
94908SOL     OW86620   4.726  12.015   8.960
94908SOL    HW186621   4.756  12.011   8.869
94908SOL    HW286622   4.690  11.928   8.977
94909SOL     OW86623  10.429  13.792   6.943
94909SOL    HW186624  10.498  13.844   6.902
94909SOL    HW286625  10.384  13.852   7.002
94910SOL     OW86626   6.913  14.697   4.858
94910SOL    HW186627   6.921  14.781   4.904
94910SOL    HW286628   7.001  14.680   4.824
94911SOL     OW86629  12.557   4.442   5.951
94911SOL    HW186630  12.634   4.482   5.990
94911SOL    HW286631  12.484   4.471   6.006
94912SOL     OW86632   1.055   3.823   8.128
94912SOL    HW186633   1.089   3.740   8.160
94912SOL    HW286634   0.965   3.803   8.102
94913SOL     OW86635   4.995   5.218  11.732
94913SOL    HW186636   5.031   5.137  11.768
94913SOL    HW286637   4.946   5.191  11.655
94914SOL     OW86638  12.719  11.936   2.524
94914SOL    HW186639  12.737  11.983   2.443
94914SOL    HW286640  12.802  11.893   2.545
94915SOL     OW86641   5.755   8.545   0.552
94915SOL    HW186642   5.680   8.545   0.610
94915SOL    HW286643   5.773   8.637   0.535
94916SOL     OW86644   4.070  11.395   2.236
94916SOL    HW186645   4.158  11.369   2.260
94916SOL    HW286646   4.041  11.451   2.308
94917SOL     OW86647   4.068   9.379   6.235
94917SOL    HW186648   3.988   9.421   6.203
94917SOL    HW286649   4.037   9.299   6.278
94918SOL     OW86650   4.870   2.666  11.928
94918SOL    HW186651   4.791   2.668  11.875
94918SOL    HW286652   4.842   2.697  12.015
94919SOL     OW86653   3.893   0.855  11.122
94919SOL    HW186654   3.901   0.762  11.144
94919SOL    HW286655   3.978   0.892  11.144
94920SOL     OW86656   3.595   1.658   6.353
94920SOL    HW186657   3.567   1.652   6.444
94920SOL    HW286658   3.523   1.619   6.303
94921SOL     OW86659   2.129   2.787   3.041
94921SOL    HW186660   2.124   2.871   3.086
94921SOL    HW286661   2.043   2.747   3.056
94922SOL     OW86662   1.340   5.107   2.166
94922SOL    HW186663   1.256   5.141   2.135
94922SOL    HW286664   1.318   5.056   2.245
94923SOL     OW86665   1.784   1.764   0.389
94923SOL    HW186666   1.814   1.821   0.460
94923SOL    HW286667   1.849   1.693   0.386
94924SOL     OW86668   6.058   1.994   5.253
94924SOL    HW186669   6.040   2.087   5.234
94924SOL    HW286670   6.120   1.996   5.326
94925SOL     OW86671   1.675  12.494  10.946
94925SOL    HW186672   1.580  12.485  10.951
94925SOL    HW286673   1.708  12.409  10.975
94926SOL     OW86674  11.728   6.727  11.681
94926SOL    HW186675  11.645   6.768  11.658
94926SOL    HW286676  11.703   6.644  11.722
94927SOL     OW86677   3.008  14.327   2.170
94927SOL    HW186678   2.926  14.277   2.163
94927SOL    HW286679   3.049  14.317   2.084
94928SOL     OW86680  14.106   2.503   7.188
94928SOL    HW186681  14.102   2.498   7.283
94928SOL    HW286682  14.152   2.586   7.171
94929SOL     OW86683   9.950   0.901   8.558
94929SOL    HW186684   9.863   0.915   8.596
94929SOL    HW286685  10.011   0.916   8.630
94930SOL     OW86686   2.580  11.801   4.108
94930SOL    HW186687   2.494  11.761   4.094
94930SOL    HW286688   2.565  11.864   4.179
94931SOL     OW86689  12.403   4.050  14.751
94931SOL    HW186690  12.407   4.126  14.693
94931SOL    HW286691  12.383   3.976  14.694
94932SOL     OW86692  10.755   9.389   0.533
94932SOL    HW186693  10.777   9.409   0.442
94932SOL    HW286694  10.731   9.474   0.570
94933SOL     OW86695   2.898   4.237   1.433
94933SOL    HW186696   2.868   4.328   1.433
94933SOL    HW286697   2.971   4.236   1.371
94934SOL     OW86698   6.486   6.403  13.341
94934SOL    HW186699   6.577   6.421  13.320
94934SOL    HW286700   6.436   6.449  13.273
94935SOL     OW86701  13.651   2.365   3.400
94935SOL    HW186702  13.600   2.444   3.382
94935SOL    HW286703  13.640   2.311   3.322
94936SOL     OW86704   4.093   1.879   4.500
94936SOL    HW186705   4.086   1.809   4.436
94936SOL    HW286706   4.079   1.836   4.584
94937SOL     OW86707   3.743   2.498   8.990
94937SOL    HW186708   3.791   2.434   8.939
94937SOL    HW286709   3.717   2.565   8.927
94938SOL     OW86710   4.465   8.087   1.861
94938SOL    HW186711   4.549   8.046   1.840
94938SOL    HW286712   4.476   8.118   1.951
94939SOL     OW86713   0.816   5.089   2.638
94939SOL    HW186714   0.821   5.178   2.604
94939SOL    HW286715   0.723   5.075   2.656
94940SOL     OW86716   9.970  13.341  10.805
94940SOL    HW186717  10.021  13.260  10.798
94940SOL    HW286718   9.926  13.334  10.890
94941SOL     OW86719  14.593   5.148   8.696
94941SOL    HW186720  14.580   5.057   8.720
94941SOL    HW286721  14.685   5.166   8.717
94942SOL     OW86722   9.032  10.648   2.557
94942SOL    HW186723   9.066  10.646   2.647
94942SOL    HW286724   8.988  10.733   2.550
94943SOL     OW86725  12.891   1.731   2.743
94943SOL    HW186726  12.922   1.651   2.701
94943SOL    HW286727  12.969   1.770   2.782
94944SOL     OW86728   4.025   3.924   0.579
94944SOL    HW186729   3.974   3.848   0.608
94944SOL    HW286730   3.976   4.000   0.612
94945SOL     OW86731   3.398  10.608  12.330
94945SOL    HW186732   3.348  10.624  12.250
94945SOL    HW286733   3.487  10.593  12.300
94946SOL     OW86734   6.246   2.563   2.536
94946SOL    HW186735   6.316   2.591   2.595
94946SOL    HW286736   6.280   2.583   2.449
94947SOL     OW86737   4.016   7.441   1.257
94947SOL    HW186738   4.012   7.435   1.162
94947SOL    HW286739   4.092   7.496   1.275
94948SOL     OW86740   9.186  13.021   6.938
94948SOL    HW186741   9.163  13.007   6.846
94948SOL    HW286742   9.108  12.993   6.987
94949SOL     OW86743   8.078  11.116  10.468
94949SOL    HW186744   8.142  11.136  10.537
94949SOL    HW286745   8.020  11.051  10.508
94950SOL     OW86746  11.886   1.537   0.167
94950SOL    HW186747  11.811   1.574   0.121
94950SOL    HW286748  11.854   1.455   0.205
94951SOL     OW86749   7.655  10.808   4.076
94951SOL    HW186750   7.611  10.889   4.099
94951SOL    HW286751   7.727  10.835   4.018
94952SOL     OW86752  14.419   6.959  11.996
94952SOL    HW186753  14.350   7.010  11.954
94952SOL    HW286754  14.444   7.010  12.073
94953SOL     OW86755  10.752  11.755   9.385
94953SOL    HW186756  10.810  11.725   9.315
94953SOL    HW286757  10.790  11.838   9.413
94954SOL     OW86758   7.890   7.388  14.330
94954SOL    HW186759   7.840   7.320  14.286
94954SOL    HW286760   7.982   7.367  14.310
94955SOL     OW86761   3.664  10.341   4.087
94955SOL    HW186762   3.698  10.308   4.170
94955SOL    HW286763   3.569  10.330   4.095
94956SOL     OW86764   2.021   1.921   3.295
94956SOL    HW186765   2.030   2.000   3.348
94956SOL    HW286766   2.042   1.949   3.206
94957SOL     OW86767   6.763   5.516  11.645
94957SOL    HW186768   6.771   5.585  11.579
94957SOL    HW286769   6.853   5.489  11.663
94958SOL     OW86770   8.085  11.220  14.780
94958SOL    HW186771   8.013  11.159  14.764
94958SOL    HW286772   8.064  11.297  14.728
94959SOL     OW86773  12.331   4.797  12.126
94959SOL    HW186774  12.355   4.800  12.219
94959SOL    HW286775  12.372   4.717  12.093
94960SOL     OW86776   1.617   9.710   2.743
94960SOL    HW186777   1.705   9.682   2.769
94960SOL    HW286778   1.564   9.700   2.823
94961SOL     OW86779   2.904   6.512  12.377
94961SOL    HW186780   2.955   6.578  12.424
94961SOL    HW286781   2.860   6.560  12.308
94962SOL     OW86782   9.595  14.552  12.487
94962SOL    HW186783   9.573  14.579  12.398
94962SOL    HW286784   9.677  14.597  12.506
94963SOL     OW86785   8.036   5.430  10.610
94963SOL    HW186786   8.012   5.513  10.569
94963SOL    HW286787   7.952   5.387  10.629
94964SOL     OW86788   1.197  12.904   4.419
94964SOL    HW186789   1.238  12.931   4.502
94964SOL    HW286790   1.268  12.907   4.355
94965SOL     OW86791   0.707  12.976  10.303
94965SOL    HW186792   0.679  13.039  10.237
94965SOL    HW286793   0.740  12.902  10.253
94966SOL     OW86794   0.126  14.479   1.713
94966SOL    HW186795   0.182  14.548   1.676
94966SOL    HW286796   0.037  14.514   1.706
94967SOL     OW86797   9.214   9.332  12.124
94967SOL    HW186798   9.240   9.414  12.166
94967SOL    HW286799   9.157   9.359  12.052
94968SOL     OW86800   3.128   4.170   3.206
94968SOL    HW186801   3.164   4.249   3.246
94968SOL    HW286802   3.114   4.193   3.114
94969SOL     OW86803   5.313   7.225   9.329
94969SOL    HW186804   5.323   7.246   9.236
94969SOL    HW286805   5.254   7.292   9.363
94970SOL     OW86806   2.519  14.071   5.990
94970SOL    HW186807   2.548  14.012   5.920
94970SOL    HW286808   2.467  14.137   5.946
94971SOL     OW86809   9.495  14.145   5.910
94971SOL    HW186810   9.571  14.174   5.859
94971SOL    HW286811   9.425  14.205   5.885
94972SOL     OW86812  10.166   2.751   3.337
94972SOL    HW186813  10.121   2.759   3.421
94972SOL    HW286814  10.247   2.704   3.359
94973SOL     OW86815   6.421   2.964  10.933
94973SOL    HW186816   6.425   2.948  11.028
94973SOL    HW286817   6.336   2.930  10.906
94974SOL     OW86818   0.959   0.872  11.951
94974SOL    HW186819   1.051   0.878  11.978
94974SOL    HW286820   0.962   0.863  11.856
94975SOL     OW86821   8.897   3.506   6.603
94975SOL    HW186822   8.949   3.430   6.629
94975SOL    HW286823   8.959   3.562   6.555
94976SOL     OW86824  10.711  10.345   2.758
94976SOL    HW186825  10.773  10.272   2.757
94976SOL    HW286826  10.764  10.422   2.733
94977SOL     OW86827   2.364  13.021   4.376
94977SOL    HW186828   2.297  13.073   4.421
94977SOL    HW286829   2.347  13.035   4.283
94978SOL     OW86830   2.818   9.769   5.518
94978SOL    HW186831   2.913   9.766   5.522
94978SOL    HW286832   2.794   9.846   5.570
94979SOL     OW86833   7.810   8.096   9.011
94979SOL    HW186834   7.758   8.167   9.048
94979SOL    HW286835   7.798   8.104   8.917
94980SOL     OW86836   2.101   7.039   9.179
94980SOL    HW186837   2.184   7.086   9.184
94980SOL    HW286838   2.052   7.085   9.112
94981SOL     OW86839  10.199   6.961   9.740
94981SOL    HW186840  10.211   6.883   9.686
94981SOL    HW286841  10.284   7.005   9.739
94982SOL     OW86842   8.901   3.938  12.337
94982SOL    HW186843   8.817   3.891  12.338
94982SOL    HW286844   8.909   3.974  12.425
94983SOL     OW86845   8.448   5.560  10.116
94983SOL    HW186846   8.424   5.486  10.060
94983SOL    HW286847   8.368   5.580  10.165
94984SOL     OW86848  14.772   3.537   7.385
94984SOL    HW186849  14.762   3.541   7.481
94984SOL    HW286850  14.750   3.625   7.355
94985SOL     OW86851   7.919   0.937   3.424
94985SOL    HW186852   7.920   1.025   3.460
94985SOL    HW286853   7.900   0.880   3.498
94986SOL     OW86854   1.282  14.213   0.094
94986SOL    HW186855   1.266  14.288   0.036
94986SOL    HW286856   1.252  14.243   0.180
94987SOL     OW86857  10.226  11.894  14.704
94987SOL    HW186858  10.175  11.821  14.740
94987SOL    HW286859  10.295  11.853  14.654
94988SOL     OW86860  11.275   8.680  12.490
94988SOL    HW186861  11.199   8.715  12.538
94988SOL    HW286862  11.243   8.670  12.400
94989SOL     OW86863   9.098   7.843  13.278
94989SOL    HW186864   9.013   7.868  13.315
94989SOL    HW286865   9.159   7.907  13.313
94990SOL     OW86866  12.330  13.175   0.612
94990SOL    HW186867  12.291  13.255   0.576
94990SOL    HW286868  12.424  13.193   0.614
94991SOL     OW86869  13.408   6.838   1.681
94991SOL    HW186870  13.475   6.834   1.613
94991SOL    HW286871  13.456   6.827   1.763
94992SOL     OW86872   7.534   1.204   9.547
94992SOL    HW186873   7.541   1.119   9.590
94992SOL    HW286874   7.529   1.267   9.620
94993SOL     OW86875   0.105   3.713  10.919
94993SOL    HW186876   0.195   3.722  10.951
94993SOL    HW286877   0.081   3.623  10.941
94994SOL     OW86878   1.521   0.155   0.295
94994SOL    HW186879   1.502   0.096   0.368
94994SOL    HW286880   1.444   0.210   0.287
94995SOL     OW86881   7.222   5.521   3.692
94995SOL    HW186882   7.234   5.533   3.786
94995SOL    HW286883   7.203   5.428   3.682
94996SOL     OW86884   8.688   2.085   0.570
94996SOL    HW186885   8.767   2.049   0.532
94996SOL    HW286886   8.719   2.140   0.642
94997SOL     OW86887  12.504   6.712   9.330
94997SOL    HW186888  12.544   6.625   9.325
94997SOL    HW286889  12.411   6.695   9.343
94998SOL     OW86890   4.473   4.895   9.771
94998SOL    HW186891   4.531   4.888   9.695
94998SOL    HW286892   4.410   4.824   9.759
94999SOL     OW86893   1.631   1.446  10.677
94999SOL    HW186894   1.574   1.393  10.621
94999SOL    HW286895   1.695   1.385  10.711
95000SOL     OW86896   9.658   4.157  13.728
95000SOL    HW186897   9.583   4.121  13.681
95000SOL    HW286898   9.716   4.190  13.658
95001SOL     OW86899   1.549  12.447   9.885
95001SOL    HW186900   1.615  12.452   9.954
95001SOL    HW286901   1.528  12.539   9.865
95002SOL     OW86902   9.569  13.419   7.960
95002SOL    HW186903   9.654  13.462   7.969
95002SOL    HW286904   9.577  13.338   8.011
95003SOL     OW86905   4.770   9.200  11.545
95003SOL    HW186906   4.700   9.150  11.504
95003SOL    HW286907   4.761   9.182  11.639
95004SOL     OW86908   7.972   0.064   4.159
95004SOL    HW186909   8.045   0.052   4.219
95004SOL    HW286910   7.951  14.858   4.127
95005SOL     OW86911   9.211   1.719   2.206
95005SOL    HW186912   9.131   1.737   2.157
95005SOL    HW286913   9.181   1.692   2.292
95006SOL     OW86914   7.251   1.405   9.398
95006SOL    HW186915   7.258   1.485   9.450
95006SOL    HW286916   7.195   1.347   9.450
95007SOL     OW86917   7.982  10.856   2.567
95007SOL    HW186918   8.031  10.886   2.491
95007SOL    HW286919   7.944  10.772   2.540
95008SOL     OW86920  10.946   5.432   9.392
95008SOL    HW186921  10.984   5.364   9.336
95008SOL    HW286922  11.022   5.480   9.424
95009SOL     OW86923   2.767   1.490  12.608
95009SOL    HW186924   2.723   1.421  12.559
95009SOL    HW286925   2.707   1.511  12.679
95010SOL     OW86926   0.644   8.528  10.776
95010SOL    HW186927   0.635   8.588  10.849
95010SOL    HW286928   0.676   8.582  10.704
95011SOL     OW86929   9.293  12.718   9.926
95011SOL    HW186930   9.249  12.634   9.937
95011SOL    HW286931   9.353  12.724  10.001
95012SOL     OW86932  11.370   5.037   2.088
95012SOL    HW186933  11.424   5.108   2.052
95012SOL    HW286934  11.316   5.079   2.155
95013SOL     OW86935   1.519  11.242   9.134
95013SOL    HW186936   1.481  11.158   9.160
95013SOL    HW286937   1.537  11.287   9.216
95014SOL     OW86938   2.872  11.069  14.365
95014SOL    HW186939   2.917  11.107  14.289
95014SOL    HW286940   2.879  11.136  14.433
95015SOL     OW86941   3.266   7.916   8.362
95015SOL    HW186942   3.274   7.961   8.446
95015SOL    HW286943   3.191   7.857   8.374
95016SOL     OW86944   0.198   5.199  12.656
95016SOL    HW186945   0.129   5.208  12.722
95016SOL    HW286946   0.213   5.289  12.626
95017SOL     OW86947   6.992   8.514   3.920
95017SOL    HW186948   7.057   8.466   3.868
95017SOL    HW286949   6.976   8.594   3.869
95018SOL     OW86950  13.201   7.565   3.492
95018SOL    HW186951  13.201   7.481   3.447
95018SOL    HW286952  13.284   7.605   3.468
95019SOL     OW86953   2.037   2.116   8.447
95019SOL    HW186954   1.944   2.095   8.439
95019SOL    HW286955   2.038   2.199   8.494
95020SOL     OW86956  13.587   5.414   4.018
95020SOL    HW186957  13.563   5.507   4.021
95020SOL    HW286958  13.508   5.368   4.048
95021SOL     OW86959  12.130  11.913   4.870
95021SOL    HW186960  12.086  11.960   4.941
95021SOL    HW286961  12.058  11.870   4.823
95022SOL     OW86962   1.060  14.427  12.081
95022SOL    HW186963   1.064  14.442  12.175
95022SOL    HW286964   1.149  14.442  12.050
95023SOL     OW86965   4.129  12.987  10.301
95023SOL    HW186966   4.222  12.965  10.307
95023SOL    HW286967   4.089  12.911  10.258
95024SOL     OW86968   3.584   2.525   1.906
95024SOL    HW186969   3.502   2.565   1.935
95024SOL    HW286970   3.635   2.516   1.987
95025SOL     OW86971  13.961   0.242   5.824
95025SOL    HW186972  13.964   0.164   5.768
95025SOL    HW286973  13.990   0.211   5.910
95026SOL     OW86974   8.529   1.586  12.028
95026SOL    HW186975   8.565   1.614  11.944
95026SOL    HW286976   8.490   1.665  12.065
95027SOL     OW86977  12.838   1.093  12.207
95027SOL    HW186978  12.744   1.083  12.191
95027SOL    HW286979  12.844   1.169  12.264
95028SOL     OW86980   6.491   7.406   3.499
95028SOL    HW186981   6.421   7.375   3.558
95028SOL    HW286982   6.445   7.431   3.419
95029SOL     OW86983   3.932   5.715  14.379
95029SOL    HW186984   3.937   5.619  14.374
95029SOL    HW286985   3.879   5.732  14.457
95030SOL     OW86986   8.146   7.328   0.883
95030SOL    HW186987   8.092   7.364   0.813
95030SOL    HW286988   8.170   7.404   0.936
95031SOL     OW86989   5.003   9.260  13.473
95031SOL    HW186990   4.998   9.191  13.408
95031SOL    HW286991   5.065   9.323  13.438
95032SOL     OW86992  10.067   5.485   8.304
95032SOL    HW186993  10.145   5.460   8.354
95032SOL    HW286994  10.099   5.546   8.239
95033SOL     OW86995   3.901   7.617   4.713
95033SOL    HW186996   3.827   7.678   4.714
95033SOL    HW286997   3.885   7.558   4.786
95034SOL     OW86998  10.331   6.132   7.997
95034SOL    HW186999  10.402   6.187   8.029
95034SOL    HW287000  10.372   6.046   7.984
95035SOL     OW87001  13.204   9.333   4.111
95035SOL    HW187002  13.187   9.313   4.202
95035SOL    HW287003  13.226   9.249   4.071
95036SOL     OW87004  13.552   8.568   4.412
95036SOL    HW187005  13.614   8.641   4.408
95036SOL    HW287006  13.507   8.580   4.496
95037SOL     OW87007   0.048   1.000   7.364
95037SOL    HW187008   0.143   0.987   7.360
95037SOL    HW287009   0.027   1.047   7.283
95038SOL     OW87010  10.120  13.211  12.616
95038SOL    HW187011  10.200  13.201  12.565
95038SOL    HW287012  10.112  13.305  12.631
95039SOL     OW87013   9.972  12.121   6.936
95039SOL    HW187014   9.922  12.116   6.855
95039SOL    HW287015  10.029  12.044   6.935
95040SOL     OW87016   4.284  12.794   1.854
95040SOL    HW187017   4.246  12.875   1.820
95040SOL    HW287018   4.215  12.728   1.841
95041SOL     OW87019  12.748   4.031   0.918
95041SOL    HW187020  12.683   4.013   0.851
95041SOL    HW287021  12.723   3.975   0.992
95042SOL     OW87022   7.347   2.324  14.617
95042SOL    HW187023   7.350   2.363  14.705
95042SOL    HW287024   7.290   2.382  14.567
95043SOL     OW87025   6.956   8.863   5.798
95043SOL    HW187026   6.877   8.882   5.747
95043SOL    HW287027   6.980   8.774   5.774
95044SOL     OW87028   7.765   1.129   9.903
95044SOL    HW187029   7.810   1.210   9.879
95044SOL    HW287030   7.805   1.102   9.985
95045SOL     OW87031   5.591   9.269  10.028
95045SOL    HW187032   5.533   9.266  10.104
95045SOL    HW287033   5.546   9.218   9.961
95046SOL     OW87034   6.722   6.794   1.080
95046SOL    HW187035   6.743   6.706   1.111
95046SOL    HW287036   6.722   6.786   0.984
95047SOL     OW87037   1.029   2.848   0.694
95047SOL    HW187038   1.019   2.772   0.750
95047SOL    HW287039   1.048   2.812   0.607
95048SOL     OW87040   7.226  14.586  14.524
95048SOL    HW187041   7.196  14.666  14.568
95048SOL    HW287042   7.320  14.583  14.541
95049SOL     OW87043  13.122   8.701   3.627
95049SOL    HW187044  13.037   8.703   3.670
95049SOL    HW287045  13.142   8.793   3.608
95050SOL     OW87046   0.156   0.340   2.928
95050SOL    HW187047   0.156   0.428   2.891
95050SOL    HW287048   0.163   0.283   2.851
95051SOL     OW87049   4.023   8.646   8.294
95051SOL    HW187050   3.948   8.681   8.343
95051SOL    HW287051   4.095   8.706   8.314
95052SOL     OW87052   3.485  11.200   2.735
95052SOL    HW187053   3.558  11.197   2.797
95052SOL    HW287054   3.456  11.291   2.737
95053SOL     OW87055  13.590   9.172  10.951
95053SOL    HW187056  13.676   9.181  10.910
95053SOL    HW287057  13.594   9.088  10.997
95054SOL     OW87058  13.376   0.096   4.280
95054SOL    HW187059  13.375   0.115   4.186
95054SOL    HW287060  13.460   0.130   4.311
95055SOL     OW87061  12.730   9.349   5.678
95055SOL    HW187062  12.705   9.298   5.601
95055SOL    HW287063  12.826   9.346   5.678
95056SOL     OW87064   4.353   5.113   9.949
95056SOL    HW187065   4.385   5.198   9.919
95056SOL    HW287066   4.390   5.050   9.886
95057SOL     OW87067   1.239   7.579   8.576
95057SOL    HW187068   1.247   7.491   8.539
95057SOL    HW287069   1.324   7.597   8.616
95058SOL     OW87070   3.954   7.792   1.730
95058SOL    HW187071   3.933   7.807   1.638
95058SOL    HW287072   3.911   7.709   1.751
95059SOL     OW87073   6.470  13.235  10.914
95059SOL    HW187074   6.416  13.164  10.881
95059SOL    HW287075   6.491  13.288  10.837
95060SOL     OW87076   6.184   2.828   0.427
95060SOL    HW187077   6.103   2.790   0.462
95060SOL    HW287078   6.228   2.756   0.383
95061SOL     OW87079   9.846  11.688   3.125
95061SOL    HW187080   9.792  11.752   3.077
95061SOL    HW287081   9.902  11.650   3.057
95062SOL     OW87082  13.954  14.180  14.144
95062SOL    HW187083  14.017  14.111  14.121
95062SOL    HW287084  13.896  14.186  14.067
95063SOL     OW87085   1.617   2.275  10.198
95063SOL    HW187086   1.562   2.237  10.129
95063SOL    HW287087   1.702   2.290  10.156
95064SOL     OW87088   9.371   2.871   7.533
95064SOL    HW187089   9.344   2.888   7.443
95064SOL    HW287090   9.444   2.932   7.548
95065SOL     OW87091  10.143   9.348  11.799
95065SOL    HW187092  10.097   9.417  11.848
95065SOL    HW287093  10.193   9.396  11.732
95066SOL     OW87094   5.831   6.813   0.781
95066SOL    HW187095   5.835   6.853   0.867
95066SOL    HW287096   5.810   6.885   0.721
95067SOL     OW87097   2.141   3.939   9.044
95067SOL    HW187098   2.228   3.951   9.006
95067SOL    HW287099   2.082   3.942   8.968
95068SOL     OW87100   6.080   5.901   8.482
95068SOL    HW187101   6.077   5.985   8.529
95068SOL    HW287102   6.018   5.845   8.529
95069SOL     OW87103  11.358   2.093   9.938
95069SOL    HW187104  11.388   2.180   9.963
95069SOL    HW287105  11.397   2.034  10.002
95070SOL     OW87106   3.411   2.731  11.592
95070SOL    HW187107   3.329   2.768  11.624
95070SOL    HW287108   3.434   2.784  11.516
95071SOL     OW87109  12.083   8.061   1.578
95071SOL    HW187110  11.989   8.045   1.589
95071SOL    HW287111  12.110   8.097   1.662
95072SOL     OW87112   2.901   1.060   3.949
95072SOL    HW187113   2.968   1.070   4.015
95072SOL    HW287114   2.890   1.148   3.912
95073SOL     OW87115  10.083  12.996   3.515
95073SOL    HW187116  10.005  13.050   3.528
95073SOL    HW287117  10.156  13.051   3.545
95074SOL     OW87118  10.411   7.042  11.808
95074SOL    HW187119  10.467   7.050  11.731
95074SOL    HW287120  10.433   7.118  11.862
95075SOL     OW87121   9.957   7.217  13.976
95075SOL    HW187122   9.901   7.293  13.961
95075SOL    HW287123   9.898   7.142  13.971
95076SOL     OW87124   2.786   7.607   3.009
95076SOL    HW187125   2.855   7.651   3.060
95076SOL    HW287126   2.834   7.548   2.951
95077SOL     OW87127   7.185   4.868  12.387
95077SOL    HW187128   7.118   4.820  12.339
95077SOL    HW287129   7.158   4.960  12.380
95078SOL     OW87130   4.847   8.239   8.347
95078SOL    HW187131   4.814   8.295   8.276
95078SOL    HW287132   4.784   8.250   8.418
95079SOL     OW87133   8.598   1.610   3.312
95079SOL    HW187134   8.598   1.699   3.348
95079SOL    HW287135   8.508   1.581   3.320
95080SOL     OW87136  13.128  12.781  11.717
95080SOL    HW187137  13.209  12.742  11.749
95080SOL    HW287138  13.131  12.872  11.747
95081SOL     OW87139   0.344   4.390  12.688
95081SOL    HW187140   0.268   4.403  12.632
95081SOL    HW287141   0.320   4.316  12.745
95082SOL     OW87142  12.179  12.129   7.073
95082SOL    HW187143  12.115  12.189   7.036
95082SOL    HW287144  12.190  12.061   7.007
95083SOL     OW87145  10.581  13.769   0.697
95083SOL    HW187146  10.528  13.848   0.705
95083SOL    HW287147  10.671  13.801   0.696
95084SOL     OW87148   2.949  13.335   9.274
95084SOL    HW187149   2.900  13.273   9.329
95084SOL    HW287150   2.881  13.385   9.230
95085SOL     OW87151   6.332   0.341   4.310
95085SOL    HW187152   6.295   0.279   4.373
95085SOL    HW287153   6.332   0.293   4.227
95086SOL     OW87154   3.147  13.558   7.644
95086SOL    HW187155   3.241  13.572   7.630
95086SOL    HW287156   3.135  13.570   7.739
95087SOL     OW87157  10.595   5.093   2.703
95087SOL    HW187158  10.649   5.107   2.781
95087SOL    HW287159  10.653   5.115   2.630
95088SOL     OW87160  14.398   2.641   0.366
95088SOL    HW187161  14.407   2.678   0.454
95088SOL    HW287162  14.319   2.587   0.372
95089SOL     OW87163   4.478   5.258  12.481
95089SOL    HW187164   4.533   5.218  12.413
95089SOL    HW287165   4.495   5.206  12.559
95090SOL     OW87166   4.740   2.004   3.621
95090SOL    HW187167   4.682   1.976   3.550
95090SOL    HW287168   4.823   1.959   3.604
95091SOL     OW87169  11.214  14.408   5.583
95091SOL    HW187170  11.284  14.439   5.525
95091SOL    HW287171  11.222  14.464   5.661
95092SOL     OW87172   1.619  11.618  10.226
95092SOL    HW187173   1.685  11.687  10.224
95092SOL    HW287174   1.604  11.602  10.319
95093SOL     OW87175   7.050   4.449   8.479
95093SOL    HW187176   6.989   4.421   8.547
95093SOL    HW287177   7.073   4.368   8.433
95094SOL     OW87178   0.187  14.771  11.353
95094SOL    HW187179   0.210  14.780  11.446
95094SOL    HW287180   0.094  14.795  11.350
95095SOL     OW87181   6.418  10.478  13.518
95095SOL    HW187182   6.384  10.564  13.541
95095SOL    HW287183   6.419  10.429  13.601
95096SOL     OW87184   1.298  11.498  12.021
95096SOL    HW187185   1.289  11.580  12.070
95096SOL    HW287186   1.299  11.525  11.929
95097SOL     OW87187   3.744   4.200   2.135
95097SOL    HW187188   3.831   4.170   2.110
95097SOL    HW287189   3.709   4.131   2.191
95098SOL     OW87190  13.027  13.425   5.937
95098SOL    HW187191  13.002  13.435   5.845
95098SOL    HW287192  12.978  13.492   5.983
95099SOL     OW87193   9.168   3.614   6.719
95099SOL    HW187194   9.167   3.524   6.750
95099SOL    HW287195   9.216   3.610   6.636
95100SOL     OW87196  12.045  13.049  14.798
95100SOL    HW187197  12.045  13.019   0.007
95100SOL    HW287198  12.008  13.137  14.803
95101SOL     OW87199   6.577  14.576  14.579
95101SOL    HW187200   6.484  14.558  14.573
95101SOL    HW287201   6.603  14.544  14.666
95102SOL     OW87202   9.807   9.046  13.162
95102SOL    HW187203   9.827   8.952  13.158
95102SOL    HW287204   9.769   9.058  13.249
95103SOL     OW87205  13.521   9.646   7.699
95103SOL    HW187206  13.593   9.584   7.689
95103SOL    HW287207  13.530   9.678   7.789
95104SOL     OW87208   9.397   9.674  11.967
95104SOL    HW187209   9.363   9.669  11.877
95104SOL    HW287210   9.369   9.759  11.999
95105SOL     OW87211   1.203   6.068   9.432
95105SOL    HW187212   1.215   6.121   9.353
95105SOL    HW287213   1.118   6.094   9.466
95106SOL     OW87214   0.867   0.710   0.349
95106SOL    HW187215   0.934   0.658   0.394
95106SOL    HW287216   0.789   0.699   0.403
95107SOL     OW87217   7.394  11.911   4.672
95107SOL    HW187218   7.384  11.992   4.722
95107SOL    HW287219   7.317  11.859   4.695
95108SOL     OW87220  11.655   6.919   2.350
95108SOL    HW187221  11.636   7.012   2.347
95108SOL    HW287222  11.662   6.892   2.258
95109SOL     OW87223   4.329  13.798   4.040
95109SOL    HW187224   4.251  13.746   4.019
95109SOL    HW287225   4.399  13.733   4.048
95110SOL     OW87226   3.212   4.725   9.750
95110SOL    HW187227   3.167   4.641   9.746
95110SOL    HW287228   3.293   4.712   9.700
95111SOL     OW87229   0.152  11.005   4.553
95111SOL    HW187230   0.123  11.005   4.644
95111SOL    HW287231   0.165  11.098   4.532
95112SOL     OW87232   5.301  13.539   0.451
95112SOL    HW187233   5.287  13.497   0.366
95112SOL    HW287234   5.356  13.615   0.432
95113SOL     OW87235  13.057   0.787   3.774
95113SOL    HW187236  13.123   0.817   3.711
95113SOL    HW287237  12.974   0.811   3.734
95114SOL     OW87238   2.339   9.758   2.565
95114SOL    HW187239   2.356   9.847   2.596
95114SOL    HW287240   2.319   9.769   2.472
95115SOL     OW87241  13.762   9.757  10.298
95115SOL    HW187242  13.670   9.739  10.277
95115SOL    HW287243  13.804   9.767  10.213
95116SOL     OW87244   9.202   7.688  11.756
95116SOL    HW187245   9.198   7.735  11.673
95116SOL    HW287246   9.247   7.606  11.736
95117SOL     OW87247  10.643   3.115   4.174
95117SOL    HW187248  10.645   3.028   4.215
95117SOL    HW287249  10.719   3.115   4.116
95118SOL     OW87250   8.961  10.489   4.692
95118SOL    HW187251   8.876  10.461   4.723
95118SOL    HW287252   8.943  10.568   4.641
95119SOL     OW87253   5.616   1.858   4.222
95119SOL    HW187254   5.532   1.875   4.179
95119SOL    HW287255   5.673   1.928   4.192
95120SOL     OW87256  12.864   6.855   0.851
95120SOL    HW187257  12.899   6.927   0.798
95120SOL    HW287258  12.881   6.881   0.941
95121SOL     OW87259   9.584   0.708   7.394
95121SOL    HW187260   9.597   0.803   7.384
95121SOL    HW287261   9.490   0.696   7.389
95122SOL     OW87262   5.933  10.664   7.329
95122SOL    HW187263   5.944  10.756   7.307
95122SOL    HW287264   5.975  10.617   7.257
95123SOL     OW87265   5.867   9.338   8.253
95123SOL    HW187266   5.878   9.262   8.196
95123SOL    HW287267   5.795   9.387   8.214
95124SOL     OW87268  12.498   2.951  13.256
95124SOL    HW187269  12.452   2.996  13.185
95124SOL    HW287270  12.587   2.939  13.223
95125SOL     OW87271  11.012   0.827   7.350
95125SOL    HW187272  10.953   0.761   7.385
95125SOL    HW287273  10.977   0.910   7.382
95126SOL     OW87274   5.396  14.641   8.418
95126SOL    HW187275   5.466  14.669   8.476
95126SOL    HW287276   5.326  14.613   8.477
95127SOL     OW87277   6.268   3.760   2.241
95127SOL    HW187278   6.197   3.735   2.301
95127SOL    HW287279   6.343   3.776   2.299
95128SOL     OW87280   0.292   5.090   1.427
95128SOL    HW187281   0.268   5.034   1.500
95128SOL    HW287282   0.209   5.111   1.384
95129SOL     OW87283   3.053   0.473   4.123
95129SOL    HW187284   3.107   0.550   4.139
95129SOL    HW287285   2.972   0.508   4.084
95130SOL     OW87286   2.397   9.791  14.315
95130SOL    HW187287   2.479   9.767  14.359
95130SOL    HW287288   2.400   9.886  14.311
95131SOL     OW87289   1.423  10.433  10.947
95131SOL    HW187290   1.355  10.367  10.931
95131SOL    HW287291   1.376  10.517  10.945
95132SOL     OW87292   7.038  13.572   5.763
95132SOL    HW187293   6.977  13.580   5.690
95132SOL    HW287294   6.983  13.553   5.839
95133SOL     OW87295   9.747   1.412   1.099
95133SOL    HW187296   9.690   1.341   1.130
95133SOL    HW287297   9.831   1.369   1.082
95134SOL     OW87298   7.901  14.204   9.903
95134SOL    HW187299   7.828  14.157   9.862
95134SOL    HW287300   7.979  14.163   9.868
95135SOL     OW87301   5.520   1.152  12.180
95135SOL    HW187302   5.493   1.151  12.088
95135SOL    HW287303   5.540   1.060  12.200
95136SOL     OW87304   8.450   9.341   1.330
95136SOL    HW187305   8.398   9.264   1.305
95136SOL    HW287306   8.396   9.386   1.395
95137SOL     OW87307   2.229  14.591  14.083
95137SOL    HW187308   2.173  14.620  14.155
95137SOL    HW287309   2.169  14.550  14.021
95138SOL     OW87310   2.978   4.170   6.216
95138SOL    HW187311   2.946   4.236   6.277
95138SOL    HW287312   2.918   4.175   6.142
95139SOL     OW87313  13.958  14.160  10.823
95139SOL    HW187314  13.877  14.108  10.817
95139SOL    HW287315  13.931  14.249  10.801
95140SOL     OW87316  10.742   7.486   0.338
95140SOL    HW187317  10.750   7.427   0.264
95140SOL    HW287318  10.684   7.555   0.307
95141SOL     OW87319  10.046   4.598   9.545
95141SOL    HW187320  10.098   4.652   9.605
95141SOL    HW287321   9.976   4.655   9.516
95142SOL     OW87322   7.815  11.986   0.712
95142SOL    HW187323   7.838  12.065   0.664
95142SOL    HW287324   7.726  11.965   0.684
95143SOL     OW87325   8.921   0.124  11.514
95143SOL    HW187326   8.939   0.192  11.449
95143SOL    HW287327   8.903   0.173  11.595
95144SOL     OW87328  14.482   5.812   1.729
95144SOL    HW187329  14.482   5.740   1.667
95144SOL    HW287330  14.393   5.815   1.763
95145SOL     OW87331   4.334  14.822   6.864
95145SOL    HW187332   4.246  14.825   6.827
95145SOL    HW287333   4.352  14.729   6.877
95146SOL     OW87334   4.999  10.736   8.166
95146SOL    HW187335   4.960  10.679   8.233
95146SOL    HW287336   4.957  10.709   8.084
95147SOL     OW87337   0.592   0.305  11.834
95147SOL    HW187338   0.570   0.398  11.837
95147SOL    HW287339   0.676   0.299  11.878
95148SOL     OW87340   9.233   0.273   2.440
95148SOL    HW187341   9.260   0.181   2.445
95148SOL    HW287342   9.137   0.269   2.440
95149SOL     OW87343   5.607   6.223   1.753
95149SOL    HW187344   5.674   6.220   1.685
95149SOL    HW287345   5.609   6.314   1.783
95150SOL     OW87346   5.750   1.117   5.979
95150SOL    HW187347   5.758   1.212   5.965
95150SOL    HW287348   5.840   1.087   5.992
95151SOL     OW87349   6.922   5.551   8.978
95151SOL    HW187350   6.957   5.539   8.890
95151SOL    HW287351   6.833   5.584   8.964
95152SOL     OW87352   5.528   4.418   1.497
95152SOL    HW187353   5.514   4.468   1.578
95152SOL    HW287354   5.550   4.330   1.527
95153SOL     OW87355  13.849   3.312   0.762
95153SOL    HW187356  13.819   3.228   0.727
95153SOL    HW287357  13.787   3.376   0.726
95154SOL     OW87358  12.702   8.626  14.831
95154SOL    HW187359  12.699   8.532  14.845
95154SOL    HW287360  12.679   8.664   0.034
95155SOL     OW87361   1.019   0.977  13.731
95155SOL    HW187362   1.047   0.976  13.639
95155SOL    HW287363   0.955   1.048  13.736
95156SOL     OW87364   4.029  13.846   6.173
95156SOL    HW187365   3.945  13.803   6.190
95156SOL    HW287366   4.055  13.881   6.258
95157SOL     OW87367  10.299   1.036   6.056
95157SOL    HW187368  10.272   1.017   6.146
95157SOL    HW287369  10.390   1.063   6.064
95158SOL     OW87370  10.942   0.378   9.108
95158SOL    HW187371  11.018   0.371   9.166
95158SOL    HW287372  10.896   0.295   9.118
95159SOL     OW87373   3.319  12.466   5.346
95159SOL    HW187374   3.267  12.395   5.309
95159SOL    HW287375   3.291  12.544   5.298
95160SOL     OW87376  14.864   9.941  11.585
95160SOL    HW187377  14.863   9.858  11.632
95160SOL    HW287378  14.811   9.925  11.507
95161SOL     OW87379  10.802   2.360  10.615
95161SOL    HW187380  10.891   2.352  10.581
95161SOL    HW287381  10.768   2.438  10.573
95162SOL     OW87382  13.370   0.485   8.582
95162SOL    HW187383  13.314   0.409   8.568
95162SOL    HW287384  13.449   0.466   8.532
95163SOL     OW87385   8.679   2.646  14.374
95163SOL    HW187386   8.728   2.564  14.381
95163SOL    HW287387   8.687   2.671  14.282
95164SOL     OW87388   1.467   1.776   6.592
95164SOL    HW187389   1.464   1.703   6.531
95164SOL    HW287390   1.378   1.812   6.590
95165SOL     OW87391   4.010   6.782   3.218
95165SOL    HW187392   4.057   6.753   3.140
95165SOL    HW287393   4.029   6.716   3.285
95166SOL     OW87394   1.018  10.222   2.932
95166SOL    HW187395   0.940  10.168   2.921
95166SOL    HW287396   1.071  10.206   2.854
95167SOL     OW87397   2.266  13.129   4.687
95167SOL    HW187398   2.243  13.220   4.706
95167SOL    HW287399   2.360  13.131   4.669
95168SOL     OW87400   4.029  10.225   9.962
95168SOL    HW187401   4.112  10.270   9.979
95168SOL    HW287402   3.971  10.293   9.929
95169SOL     OW87403   6.647   7.152   2.767
95169SOL    HW187404   6.736   7.184   2.749
95169SOL    HW287405   6.653   7.057   2.755
95170SOL     OW87406   0.255   1.444   2.858
95170SOL    HW187407   0.268   1.493   2.776
95170SOL    HW287408   0.160   1.434   2.864
95171SOL     OW87409   8.774  10.128   2.025
95171SOL    HW187410   8.694  10.158   2.067
95171SOL    HW287411   8.832  10.105   2.097
95172SOL     OW87412   1.831   6.158  10.809
95172SOL    HW187413   1.785   6.136  10.891
95172SOL    HW287414   1.858   6.249  10.821
95173SOL     OW87415   3.698   2.381   9.543
95173SOL    HW187416   3.672   2.368   9.452
95173SOL    HW287417   3.782   2.427   9.538
95174SOL     OW87418  13.199  12.136   6.201
95174SOL    HW187419  13.213  12.112   6.109
95174SOL    HW287420  13.285  12.128   6.241
95175SOL     OW87421   1.116  14.825   9.991
95175SOL    HW187422   1.086   0.007   9.927
95175SOL    HW287423   1.152  14.753   9.939
95176SOL     OW87424  10.153   8.400   3.583
95176SOL    HW187425  10.063   8.369   3.596
95176SOL    HW287426  10.175   8.370   3.495
95177SOL     OW87427  10.370  12.129   0.427
95177SOL    HW187428  10.384  12.221   0.404
95177SOL    HW287429  10.448  12.084   0.397
95178SOL     OW87430   6.024  12.205   3.297
95178SOL    HW187431   6.015  12.225   3.204
95178SOL    HW287432   6.089  12.268   3.329
95179SOL     OW87433   8.385   2.313   0.942
95179SOL    HW187434   8.477   2.298   0.963
95179SOL    HW287435   8.386   2.361   0.859
95180SOL     OW87436   4.814   3.446  10.283
95180SOL    HW187437   4.881   3.457  10.216
95180SOL    HW287438   4.732   3.470  10.240
95181SOL     OW87439  13.004  10.299   7.797
95181SOL    HW187440  12.993  10.257   7.882
95181SOL    HW287441  13.015  10.392   7.818
95182SOL     OW87442   1.703  14.551   1.977
95182SOL    HW187443   1.740  14.532   1.891
95182SOL    HW287444   1.610  14.564   1.961
95183SOL     OW87445   9.272   1.514   2.458
95183SOL    HW187446   9.210   1.574   2.498
95183SOL    HW287447   9.356   1.538   2.497
95184SOL     OW87448   8.008   8.615   8.634
95184SOL    HW187449   8.000   8.520   8.626
95184SOL    HW287450   8.062   8.628   8.712
95185SOL     OW87451   1.759  14.348   5.741
95185SOL    HW187452   1.740  14.255   5.753
95185SOL    HW287453   1.680  14.383   5.697
95186SOL     OW87454   9.080   1.521   1.089
95186SOL    HW187455   9.154   1.530   1.029
95186SOL    HW287456   9.002   1.532   1.033
95187SOL     OW87457   6.364   7.625   2.985
95187SOL    HW187458   6.304   7.678   3.037
95187SOL    HW287459   6.310   7.555   2.949
95188SOL     OW87460   5.647   4.649  14.765
95188SOL    HW187461   5.621   4.736  14.794
95188SOL    HW287462   5.603   4.590  14.826
95189SOL     OW87463   5.057   6.773   6.085
95189SOL    HW187464   4.966   6.798   6.099
95189SOL    HW287465   5.099   6.852   6.051
95190SOL     OW87466  12.940  11.120  13.807
95190SOL    HW187467  12.933  11.127  13.902
95190SOL    HW287468  13.033  11.107  13.791
95191SOL     OW87469   3.223  11.873   8.647
95191SOL    HW187470   3.231  11.807   8.716
95191SOL    HW287471   3.310  11.914   8.643
95192SOL     OW87472   4.952   9.909  14.780
95192SOL    HW187473   4.883   9.890  14.844
95192SOL    HW287474   5.032   9.917  14.833
95193SOL     OW87475   0.380  10.792   3.426
95193SOL    HW187476   0.419  10.718   3.472
95193SOL    HW287477   0.449  10.822   3.366
95194SOL     OW87478   7.061  13.178   9.840
95194SOL    HW187479   6.997  13.242   9.871
95194SOL    HW287480   7.113  13.155   9.917
95195SOL     OW87481   1.314   8.572   9.630
95195SOL    HW187482   1.259   8.552   9.554
95195SOL    HW287483   1.402   8.581   9.593
95196SOL     OW87484   7.314   4.950   2.146
95196SOL    HW187485   7.338   5.039   2.120
95196SOL    HW287486   7.273   4.912   2.069
95197SOL     OW87487   6.517   2.526   7.075
95197SOL    HW187488   6.433   2.487   7.048
95197SOL    HW287489   6.544   2.578   7.000
95198SOL     OW87490   1.282   5.673   5.216
95198SOL    HW187491   1.349   5.739   5.230
95198SOL    HW287492   1.295   5.644   5.126
95199SOL     OW87493   1.774  10.068  12.636
95199SOL    HW187494   1.709  10.038  12.699
95199SOL    HW287495   1.730  10.141  12.590
95200SOL     OW87496   8.926  12.099   7.457
95200SOL    HW187497   8.924  12.018   7.407
95200SOL    HW287498   8.847  12.097   7.511
95201SOL     OW87499   7.692   4.156   4.806
95201SOL    HW187500   7.766   4.095   4.813
95201SOL    HW287501   7.675   4.161   4.712
95202SOL     OW87502   5.519   3.857   1.209
95202SOL    HW187503   5.586   3.855   1.140
95202SOL    HW287504   5.475   3.772   1.203
95203SOL     OW87505  13.303   7.800  10.264
95203SOL    HW187506  13.369   7.814  10.196
95203SOL    HW287507  13.222   7.835  10.227
95204SOL     OW87508   7.185  13.545   2.560
95204SOL    HW187509   7.100  13.572   2.595
95204SOL    HW287510   7.170  13.457   2.525
95205SOL     OW87511  14.107   0.750  12.050
95205SOL    HW187512  14.196   0.736  12.017
95205SOL    HW287513  14.059   0.672  12.024
95206SOL     OW87514  14.665   0.005   6.752
95206SOL    HW187515  14.668   0.089   6.797
95206SOL    HW287516  14.745  14.842   6.779
95207SOL     OW87517   3.033   3.268   3.722
95207SOL    HW187518   3.039   3.184   3.768
95207SOL    HW287519   3.047   3.246   3.630
95208SOL     OW87520  11.004   9.848  12.163
95208SOL    HW187521  11.055   9.904  12.222
95208SOL    HW287522  11.037   9.760  12.179
95209SOL     OW87523  14.600  13.851   4.783
95209SOL    HW187524  14.629  13.926   4.730
95209SOL    HW287525  14.670  13.840   4.848
95210SOL     OW87526  13.896   3.665   1.834
95210SOL    HW187527  13.842   3.707   1.767
95210SOL    HW287528  13.885   3.571   1.818
95211SOL     OW87529   7.445   1.132   1.600
95211SOL    HW187530   7.412   1.140   1.690
95211SOL    HW287531   7.411   1.209   1.555
95212SOL     OW87532   8.615  13.200   1.957
95212SOL    HW187533   8.671  13.127   1.933
95212SOL    HW287534   8.607  13.195   2.052
95213SOL     OW87535   7.459  12.746   6.126
95213SOL    HW187536   7.406  12.810   6.174
95213SOL    HW287537   7.509  12.701   6.194
95214SOL     OW87538  14.510   7.247   4.412
95214SOL    HW187539  14.424   7.212   4.389
95214SOL    HW287540  14.552   7.265   4.328
95215SOL     OW87541   3.033   4.265  11.575
95215SOL    HW187542   2.972   4.213  11.629
95215SOL    HW287543   3.052   4.342  11.628
95216SOL     OW87544  11.138  13.920   2.268
95216SOL    HW187545  11.196  13.985   2.228
95216SOL    HW287546  11.050  13.957   2.258
95217SOL     OW87547  12.306  11.098  14.552
95217SOL    HW187548  12.322  11.050  14.633
95217SOL    HW287549  12.233  11.157  14.572
95218SOL     OW87550   2.491   5.536   4.673
95218SOL    HW187551   2.454   5.507   4.757
95218SOL    HW287552   2.495   5.457   4.620
95219SOL     OW87553  13.073   8.461  13.875
95219SOL    HW187554  13.113   8.547  13.862
95219SOL    HW287555  12.996   8.479  13.929
95220SOL     OW87556   3.877  13.583   3.938
95220SOL    HW187557   3.839  13.516   3.881
95220SOL    HW287558   3.970  13.584   3.915
95221SOL     OW87559  14.879   4.795   4.333
95221SOL    HW187560  14.810   4.796   4.267
95221SOL    HW287561   0.056   4.866   4.308
95222SOL     OW87562   1.827  12.108  11.508
95222SOL    HW187563   1.893  12.140  11.570
95222SOL    HW287564   1.844  12.014  11.502
95223SOL     OW87565   1.808   5.648   3.063
95223SOL    HW187566   1.901   5.645   3.044
95223SOL    HW287567   1.775   5.562   3.036
95224SOL     OW87568   8.338  13.791  13.703
95224SOL    HW187569   8.254  13.746  13.714
95224SOL    HW287570   8.394  13.727  13.659
95225SOL     OW87571   3.034  13.899   8.712
95225SOL    HW187572   3.024  13.976   8.656
95225SOL    HW287573   2.990  13.829   8.664
95226SOL     OW87574   0.326   3.048   1.369
95226SOL    HW187575   0.237   3.051   1.403
95226SOL    HW287576   0.378   3.011   1.440
95227SOL     OW87577   8.364  13.014  13.224
95227SOL    HW187578   8.333  12.948  13.162
95227SOL    HW287579   8.314  13.093  13.203
95228SOL     OW87580   6.426   2.469   3.587
95228SOL    HW187581   6.451   2.460   3.679
95228SOL    HW287582   6.332   2.449   3.586
95229SOL     OW87583   2.144   5.433   3.597
95229SOL    HW187584   2.126   5.496   3.666
95229SOL    HW287585   2.117   5.349   3.634
95230SOL     OW87586   5.293   4.059  11.277
95230SOL    HW187587   5.256   4.121  11.340
95230SOL    HW287588   5.241   4.072  11.198
95231SOL     OW87589  14.384  10.605  12.551
95231SOL    HW187590  14.454  10.637  12.493
95231SOL    HW287591  14.346  10.684  12.588
95232SOL     OW87592   2.844  11.553   7.005
95232SOL    HW187593   2.871  11.500   6.930
95232SOL    HW287594   2.890  11.515   7.080
95233SOL     OW87595   0.954   2.223   0.467
95233SOL    HW187596   1.043   2.191   0.484
95233SOL    HW287597   0.920   2.246   0.553
95234SOL     OW87598   5.159  14.066   1.100
95234SOL    HW187599   5.087  14.002   1.103
95234SOL    HW287600   5.216  14.041   1.172
95235SOL     OW87601   2.020   1.643  14.622
95235SOL    HW187602   1.973   1.612  14.700
95235SOL    HW287603   1.951   1.655  14.556
95236SOL     OW87604   8.436   0.646  10.295
95236SOL    HW187605   8.409   0.713  10.232
95236SOL    HW287606   8.407   0.563  10.257
95237SOL     OW87607   3.449  13.276   2.953
95237SOL    HW187608   3.544  13.284   2.946
95237SOL    HW287609   3.417  13.284   2.864
95238SOL     OW87610  11.151   5.086   3.883
95238SOL    HW187611  11.177   5.068   3.793
95238SOL    HW287612  11.063   5.123   3.876
95239SOL     OW87613   5.642  14.663  14.558
95239SOL    HW187614   5.738  14.663  14.563
95239SOL    HW287615   5.615  14.594  14.618
95240SOL     OW87616   8.037   7.595   2.438
95240SOL    HW187617   8.066   7.514   2.480
95240SOL    HW287618   8.118   7.638   2.411
95241SOL     OW87619   0.261   1.404   3.906
95241SOL    HW187620   0.287   1.496   3.908
95241SOL    HW287621   0.256   1.378   3.998
95242SOL     OW87622   6.266   2.107  11.514
95242SOL    HW187623   6.361   2.113  11.506
95242SOL    HW287624   6.248   2.014  11.526
95243SOL     OW87625  13.551   4.839   6.547
95243SOL    HW187626  13.516   4.840   6.636
95243SOL    HW287627  13.645   4.827   6.558
95244SOL     OW87628   6.329   1.655  10.570
95244SOL    HW187629   6.313   1.749  10.559
95244SOL    HW287630   6.338   1.643  10.664
95245SOL     OW87631   6.875  14.199   0.368
95245SOL    HW187632   6.888  14.233   0.279
95245SOL    HW287633   6.848  14.108   0.355
95246SOL     OW87634   2.123  10.783   2.231
95246SOL    HW187635   2.109  10.766   2.138
95246SOL    HW287636   2.110  10.878   2.241
95247SOL     OW87637   6.821   1.195   6.678
95247SOL    HW187638   6.857   1.123   6.729
95247SOL    HW287639   6.894   1.225   6.624
95248SOL     OW87640   8.880  10.898   3.271
95248SOL    HW187641   8.894  10.993   3.268
95248SOL    HW287642   8.959  10.861   3.232
95249SOL     OW87643   9.447   1.910   2.817
95249SOL    HW187644   9.410   1.970   2.753
95249SOL    HW287645   9.473   1.833   2.766
95250SOL     OW87646  14.511   4.464  11.494
95250SOL    HW187647  14.536   4.499  11.408
95250SOL    HW287648  14.528   4.536  11.555
95251SOL     OW87649   4.551  14.608   3.678
95251SOL    HW187650   4.566  14.514   3.682
95251SOL    HW287651   4.639  14.646   3.670
95252SOL     OW87652   1.331   6.876   7.970
95252SOL    HW187653   1.323   6.951   7.910
95252SOL    HW287654   1.423   6.852   7.965
95253SOL     OW87655   4.869   3.725   5.613
95253SOL    HW187656   4.860   3.630   5.616
95253SOL    HW287657   4.890   3.750   5.703
95254SOL     OW87658   2.193   1.487  14.441
95254SOL    HW187659   2.146   1.531  14.512
95254SOL    HW287660   2.203   1.397  14.469
95255SOL     OW87661   1.318   7.610  13.191
95255SOL    HW187662   1.406   7.591  13.223
95255SOL    HW287663   1.266   7.624  13.269
95256SOL     OW87664   4.932   1.225   2.093
95256SOL    HW187665   4.994   1.153   2.081
95256SOL    HW287666   4.987   1.299   2.118
95257SOL     OW87667   0.336   6.948   2.707
95257SOL    HW187668   0.398   6.897   2.759
95257SOL    HW287669   0.326   7.030   2.755
95258SOL     OW87670  10.531   2.165   6.962
95258SOL    HW187671  10.599   2.110   7.000
95258SOL    HW287672  10.496   2.115   6.889
95259SOL     OW87673  10.529  14.155   7.070
95259SOL    HW187674  10.594  14.166   7.140
95259SOL    HW287675  10.551  14.223   7.007
95260SOL     OW87676   2.784   7.715   7.192
95260SOL    HW187677   2.761   7.624   7.175
95260SOL    HW287678   2.756   7.730   7.282
95261SOL     OW87679   7.597   5.742   5.688
95261SOL    HW187680   7.684   5.773   5.713
95261SOL    HW287681   7.560   5.705   5.768
95262SOL     OW87682  10.775  10.242   3.744
95262SOL    HW187683  10.740  10.157   3.772
95262SOL    HW287684  10.847  10.221   3.685
95263SOL     OW87685   7.397   3.801   0.033
95263SOL    HW187686   7.365   3.754  14.839
95263SOL    HW287687   7.424   3.733   0.094
95264SOL     OW87688   9.952  14.039   5.660
95264SOL    HW187689   9.885  14.039   5.592
95264SOL    HW287690  10.024  14.090   5.623
95265SOL     OW87691   8.138   1.401   9.240
95265SOL    HW187692   8.044   1.390   9.255
95265SOL    HW287693   8.171   1.442   9.320
95266SOL     OW87694  12.140   1.167   5.567
95266SOL    HW187695  12.058   1.132   5.532
95266SOL    HW287696  12.127   1.168   5.662
95267SOL     OW87697  10.141   7.883   0.820
95267SOL    HW187698  10.159   7.920   0.906
95267SOL    HW287699  10.138   7.958   0.761
95268SOL     OW87700  12.476   3.685   6.614
95268SOL    HW187701  12.516   3.659   6.531
95268SOL    HW287702  12.481   3.606   6.668
95269SOL     OW87703   7.749  10.753   7.129
95269SOL    HW187704   7.782  10.667   7.101
95269SOL    HW287705   7.667  10.734   7.175
95270SOL     OW87706   9.711   4.418  12.126
95270SOL    HW187707   9.682   4.359  12.195
95270SOL    HW287708   9.692   4.372  12.044
95271SOL     OW87709   1.542  14.139   1.618
95271SOL    HW187710   1.516  14.048   1.629
95271SOL    HW287711   1.627  14.145   1.662
95272SOL     OW87712   7.698  12.697   4.361
95272SOL    HW187713   7.726  12.715   4.272
95272SOL    HW287714   7.615  12.650   4.351
95273SOL     OW87715   7.349   6.357  13.970
95273SOL    HW187716   7.429   6.405  13.990
95273SOL    HW287717   7.366   6.268  14.000
95274SOL     OW87718   5.643   8.488   0.214
95274SOL    HW187719   5.550   8.479   0.193
95274SOL    HW287720   5.652   8.575   0.251
95275SOL     OW87721  11.587  12.952  13.929
95275SOL    HW187722  11.568  13.013  14.000
95275SOL    HW287723  11.679  12.967  13.908
95276SOL     OW87724   4.778   0.889   4.064
95276SOL    HW187725   4.852   0.941   4.032
95276SOL    HW287726   4.805   0.798   4.047
95277SOL     OW87727   8.624   6.213   8.309
95277SOL    HW187728   8.567   6.167   8.370
95277SOL    HW287729   8.671   6.277   8.362
95278SOL     OW87730   8.060   8.478   0.687
95278SOL    HW187731   8.133   8.450   0.632
95278SOL    HW287732   8.055   8.573   0.674
95279SOL     OW87733  11.575   8.621  13.163
95279SOL    HW187734  11.613   8.534  13.153
95279SOL    HW287735  11.547   8.646  13.075
95280SOL     OW87736   1.994   9.181   9.035
95280SOL    HW187737   2.034   9.200   9.120
95280SOL    HW287738   2.062   9.202   8.971
95281SOL     OW87739   5.135   4.379   7.336
95281SOL    HW187740   5.206   4.392   7.399
95281SOL    HW287741   5.056   4.400   7.386
95282SOL     OW87742   7.297   3.118   1.743
95282SOL    HW187743   7.302   3.210   1.768
95282SOL    HW287744   7.210   3.090   1.770
95283SOL     OW87745   4.282   5.068   2.197
95283SOL    HW187746   4.360   5.013   2.200
95283SOL    HW287747   4.209   5.007   2.188
95284SOL     OW87748  12.871   9.628   4.401
95284SOL    HW187749  12.850   9.537   4.421
95284SOL    HW287750  12.871   9.633   4.306
95285SOL     OW87751   9.478  11.847   4.690
95285SOL    HW187752   9.445  11.929   4.654
95285SOL    HW287753   9.459  11.851   4.784
95286SOL     OW87754   5.675   8.297  10.041
95286SOL    HW187755   5.718   8.371  10.084
95286SOL    HW287756   5.705   8.220  10.090
95287SOL     OW87757   6.071  13.595  13.747
95287SOL    HW187758   6.045  13.504  13.758
95287SOL    HW287759   6.153  13.603  13.795
95288SOL     OW87760   3.362   3.327   4.153
95288SOL    HW187761   3.431   3.281   4.201
95288SOL    HW287762   3.285   3.271   4.163
95289SOL     OW87763   9.752   1.618   1.495
95289SOL    HW187764   9.682   1.604   1.431
95289SOL    HW287765   9.712   1.595   1.579
95290SOL     OW87766   1.881   5.721   5.173
95290SOL    HW187767   1.951   5.726   5.238
95290SOL    HW287768   1.813   5.779   5.207
95291SOL     OW87769   6.390  10.773   7.295
95291SOL    HW187770   6.325  10.791   7.227
95291SOL    HW287771   6.397  10.678   7.297
95292SOL     OW87772  11.609   9.610   0.391
95292SOL    HW187773  11.527   9.561   0.383
95292SOL    HW287774  11.619   9.623   0.486
95293SOL     OW87775  10.318  10.274   2.324
95293SOL    HW187776  10.345  10.343   2.264
95293SOL    HW287777  10.278  10.320   2.398
95294SOL     OW87778   6.065   9.421  11.164
95294SOL    HW187779   5.988   9.393  11.212
95294SOL    HW287780   6.033   9.437  11.075
95295SOL     OW87781   8.516   4.718  12.042
95295SOL    HW187782   8.467   4.638  12.059
95295SOL    HW287783   8.528   4.758  12.128
95296SOL     OW87784  10.336   0.747   9.688
95296SOL    HW187785  10.256   0.701   9.714
95296SOL    HW287786  10.407   0.692   9.720
95297SOL     OW87787   6.282   0.146  12.015
95297SOL    HW187788   6.306   0.123  12.105
95297SOL    HW287789   6.327   0.230  12.000
95298SOL     OW87790   6.032   1.134   3.159
95298SOL    HW187791   6.092   1.202   3.128
95298SOL    HW287792   6.087   1.058   3.176
95299SOL     OW87793  14.863  12.770   0.260
95299SOL    HW187794  14.877  12.806   0.173
95299SOL    HW287795   0.051  12.808   0.313
95300SOL     OW87796  13.728   4.444   2.295
95300SOL    HW187797  13.638   4.467   2.315
95300SOL    HW287798  13.726   4.416   2.203
95301SOL     OW87799   3.189  14.508   2.795
95301SOL    HW187800   3.120  14.575   2.790
95301SOL    HW287801   3.154  14.434   2.747
95302SOL     OW87802   8.882   4.628   2.069
95302SOL    HW187803   8.926   4.568   2.008
95302SOL    HW287804   8.911   4.715   2.042
95303SOL     OW87805   0.983   7.703  12.297
95303SOL    HW187806   1.064   7.681  12.343
95303SOL    HW287807   0.918   7.713  12.366
95304SOL     OW87808   0.474  11.915   0.549
95304SOL    HW187809   0.448  12.007   0.545
95304SOL    HW287810   0.567  11.918   0.570
95305SOL     OW87811   5.432  14.663   5.778
95305SOL    HW187812   5.423  14.605   5.853
95305SOL    HW287813   5.383  14.620   5.708
95306SOL     OW87814   7.041  14.871   6.257
95306SOL    HW187815   6.946  14.871   6.274
95306SOL    HW287816   7.071   0.073   6.292
95307SOL     OW87817   6.820  13.830   3.642
95307SOL    HW187818   6.853  13.835   3.732
95307SOL    HW287819   6.732  13.793   3.650
95308SOL     OW87820   4.694   8.178  13.670
95308SOL    HW187821   4.620   8.227  13.706
95308SOL    HW287822   4.719   8.226  13.591
95309SOL     OW87823   4.785   6.455   2.963
95309SOL    HW187824   4.879   6.466   2.970
95309SOL    HW287825   4.772   6.360   2.967
95310SOL     OW87826   7.308  13.542  12.144
95310SOL    HW187827   7.316  13.574  12.053
95310SOL    HW287828   7.397  13.547  12.178
95311SOL     OW87829  11.008   6.706   9.674
95311SOL    HW187830  11.051   6.698   9.759
95311SOL    HW287831  11.071   6.753   9.619
95312SOL     OW87832   7.179   1.787   3.717
95312SOL    HW187833   7.170   1.882   3.722
95312SOL    HW287834   7.237   1.765   3.790
95313SOL     OW87835  12.096   8.726  14.470
95313SOL    HW187836  12.084   8.702  14.378
95313SOL    HW287837  12.008   8.720  14.507
95314SOL     OW87838   6.614   2.804   2.388
95314SOL    HW187839   6.689   2.844   2.431
95314SOL    HW287840   6.649   2.723   2.350
95315SOL     OW87841   8.911   3.359   0.103
95315SOL    HW187842   8.981   3.339   0.042
95315SOL    HW287843   8.947   3.428   0.159
95316SOL     OW87844   2.415  13.450   7.050
95316SOL    HW187845   2.365  13.404   6.983
95316SOL    HW287846   2.349  13.487   7.109
95317SOL     OW87847   5.514  14.800  14.115
95317SOL    HW187848   5.541  14.716  14.153
95317SOL    HW287849   5.476  14.776  14.030
95318SOL     OW87850   4.300   1.432   8.904
95318SOL    HW187851   4.292   1.391   8.818
95318SOL    HW287852   4.251   1.514   8.897
95319SOL     OW87853  11.567   9.651   1.995
95319SOL    HW187854  11.600   9.647   1.906
95319SOL    HW287855  11.618   9.720   2.037
95320SOL     OW87856  13.131   2.181  10.966
95320SOL    HW187857  13.103   2.263  11.007
95320SOL    HW287858  13.111   2.192  10.873
95321SOL     OW87859   2.188   0.877   0.713
95321SOL    HW187860   2.133   0.936   0.764
95321SOL    HW287861   2.209   0.806   0.773
95322SOL     OW87862  14.620   5.747   8.642
95322SOL    HW187863  14.655   5.665   8.675
95322SOL    HW287864  14.546   5.722   8.586
95323SOL     OW87865   8.749   5.721   5.685
95323SOL    HW187866   8.715   5.674   5.608
95323SOL    HW287867   8.695   5.689   5.758
95324SOL     OW87868  13.475  12.117   6.766
95324SOL    HW187869  13.536  12.126   6.839
95324SOL    HW287870  13.531  12.121   6.688
95325SOL     OW87871   3.287   3.485  12.996
95325SOL    HW187872   3.228   3.548  12.957
95325SOL    HW287873   3.368   3.535  13.012
95326SOL     OW87874   9.420   2.396   6.103
95326SOL    HW187875   9.483   2.414   6.034
95326SOL    HW287876   9.472   2.355   6.172
95327SOL     OW87877   1.597   6.575  10.153
95327SOL    HW187878   1.602   6.483  10.176
95327SOL    HW287879   1.530   6.580  10.085
95328SOL     OW87880   2.751   9.630   5.262
95328SOL    HW187881   2.751   9.665   5.352
95328SOL    HW287882   2.661   9.642   5.232
95329SOL     OW87883  14.638   5.754  14.000
95329SOL    HW187884  14.685   5.795  14.073
95329SOL    HW287885  14.566   5.706  14.041
95330SOL     OW87886  12.003   2.047   1.599
95330SOL    HW187887  11.994   2.116   1.665
95330SOL    HW287888  11.914   2.014   1.587
95331SOL     OW87889  13.519   0.943  12.156
95331SOL    HW187890  13.603   0.899  12.148
95331SOL    HW287891  13.471   0.918  12.077
95332SOL     OW87892   9.406   7.941   4.232
95332SOL    HW187893   9.411   8.026   4.190
95332SOL    HW287894   9.485   7.934   4.285
95333SOL     OW87895  12.343   5.170  10.116
95333SOL    HW187896  12.381   5.145  10.200
95333SOL    HW287897  12.403   5.235  10.080
95334SOL     OW87898   4.745  13.258   0.930
95334SOL    HW187899   4.832  13.261   0.971
95334SOL    HW287900   4.752  13.189   0.864
95335SOL     OW87901   8.928   5.242   1.369
95335SOL    HW187902   8.958   5.181   1.437
95335SOL    HW287903   8.863   5.193   1.319
95336SOL     OW87904   9.662   9.908  14.664
95336SOL    HW187905   9.605   9.831  14.657
95336SOL    HW287906   9.745   9.881  14.624
95337SOL     OW87907  10.793   9.787  10.076
95337SOL    HW187908  10.883   9.770  10.105
95337SOL    HW287909  10.768   9.707  10.030
95338SOL     OW87910   7.593  12.303   9.732
95338SOL    HW187911   7.649  12.380   9.741
95338SOL    HW287912   7.635  12.237   9.787
95339SOL     OW87913  13.546  13.138   9.447
95339SOL    HW187914  13.534  13.054   9.402
95339SOL    HW287915  13.464  13.185   9.433
95340SOL     OW87916  13.853   8.058   5.201
95340SOL    HW187917  13.849   7.967   5.172
95340SOL    HW287918  13.819   8.108   5.126
95341SOL     OW87919   6.656   4.556   9.180
95341SOL    HW187920   6.729   4.599   9.136
95341SOL    HW287921   6.660   4.465   9.149
95342SOL     OW87922  13.823   5.641   1.728
95342SOL    HW187923  13.910   5.613   1.755
95342SOL    HW287924  13.800   5.712   1.789
95343SOL     OW87925  13.299   3.790   8.137
95343SOL    HW187926  13.259   3.733   8.202
95343SOL    HW287927  13.257   3.875   8.150
95344SOL     OW87928   9.678   5.546   2.170
95344SOL    HW187929   9.626   5.626   2.175
95344SOL    HW287930   9.656   5.499   2.251
95345SOL     OW87931   1.993   6.904   6.025
95345SOL    HW187932   2.066   6.963   6.008
95345SOL    HW287933   1.916   6.961   6.028
95346SOL     OW87934   4.116   9.483  11.803
95346SOL    HW187935   4.111   9.420  11.730
95346SOL    HW287936   4.049   9.548  11.783
95347SOL     OW87937   9.642   4.540   4.435
95347SOL    HW187938   9.667   4.612   4.377
95347SOL    HW287939   9.685   4.562   4.518
95348SOL     OW87940   7.219   8.861   0.358
95348SOL    HW187941   7.211   8.771   0.325
95348SOL    HW287942   7.294   8.857   0.417
95349SOL     OW87943  12.326  14.698   0.836
95349SOL    HW187944  12.381  14.759   0.788
95349SOL    HW287945  12.237  14.718   0.809
95350SOL     OW87946   6.521   7.539   0.506
95350SOL    HW187947   6.574   7.540   0.426
95350SOL    HW287948   6.485   7.450   0.510
95351SOL     OW87949   4.517  10.233  11.856
95351SOL    HW187950   4.573  10.156  11.870
95351SOL    HW287951   4.513  10.274  11.943
95352SOL     OW87952   4.603   9.041  13.620
95352SOL    HW187953   4.596   9.113  13.557
95352SOL    HW287954   4.637   9.081  13.700
95353SOL     OW87955   9.386   9.954  12.067
95353SOL    HW187956   9.436   9.966  12.148
95353SOL    HW287957   9.367  10.042  12.036
95354SOL     OW87958  12.702   9.347   2.797
95354SOL    HW187959  12.786   9.355   2.843
95354SOL    HW287960  12.709   9.406   2.723
95355SOL     OW87961   6.062  10.103   6.566
95355SOL    HW187962   6.055  10.184   6.617
95355SOL    HW287963   6.147  10.108   6.524
95356SOL     OW87964  11.353   2.313   6.246
95356SOL    HW187965  11.259   2.330   6.251
95356SOL    HW287966  11.393   2.399   6.253
95357SOL     OW87967  10.349   1.244   1.559
95357SOL    HW187968  10.318   1.259   1.470
95357SOL    HW287969  10.318   1.319   1.609
95358SOL     OW87970  11.586  12.796   0.403
95358SOL    HW187971  11.664  12.851   0.401
95358SOL    HW287972  11.587  12.754   0.489
95359SOL     OW87973   3.558  12.242   1.873
95359SOL    HW187974   3.593  12.331   1.869
95359SOL    HW287975   3.632  12.189   1.905
95360SOL     OW87976   0.233   4.026   5.665
95360SOL    HW187977   0.177   3.980   5.602
95360SOL    HW287978   0.322   4.000   5.641
95361SOL     OW87979   3.557  14.593  11.588
95361SOL    HW187980   3.578  14.631  11.673
95361SOL    HW287981   3.628  14.621  11.530
95362SOL     OW87982   4.530  12.790  14.280
95362SOL    HW187983   4.526  12.882  14.253
95362SOL    HW287984   4.456  12.748  14.236
95363SOL     OW87985   1.294   6.296   5.693
95363SOL    HW187986   1.255   6.316   5.778
95363SOL    HW287987   1.381   6.335   5.696
95364SOL     OW87988  10.024   6.755  13.266
95364SOL    HW187989  10.013   6.768  13.172
95364SOL    HW287990  10.000   6.839  13.305
95365SOL     OW87991   9.855  10.966   3.478
95365SOL    HW187992   9.862  10.921   3.394
95365SOL    HW287993   9.944  10.995   3.497
95366SOL     OW87994  10.568   2.404  11.372
95366SOL    HW187995  10.607   2.321  11.346
95366SOL    HW287996  10.539   2.391  11.462
95367SOL     OW87997   4.502   1.666   7.252
95367SOL    HW187998   4.463   1.665   7.165
95367SOL    HW287999   4.504   1.759   7.275
95368SOL     OW88000  12.842   1.328   8.096
95368SOL    HW188001  12.820   1.416   8.069
95368SOL    HW288002  12.785   1.271   8.044
95369SOL     OW88003  12.721   7.358  13.912
95369SOL    HW188004  12.737   7.444  13.950
95369SOL    HW288005  12.677   7.376  13.829
95370SOL     OW88006   6.453  12.699  12.718
95370SOL    HW188007   6.413  12.786  12.723
95370SOL    HW288008   6.546  12.717  12.705
95371SOL     OW88009   1.542   2.866   6.348
95371SOL    HW188010   1.589   2.856   6.430
95371SOL    HW288011   1.589   2.935   6.301
95372SOL     OW88012   4.486  11.754   2.904
95372SOL    HW188013   4.535  11.719   2.978
95372SOL    HW288014   4.432  11.824   2.942
95373SOL     OW88015   0.973  13.977   4.949
95373SOL    HW188016   0.926  13.942   4.874
95373SOL    HW288017   1.001  13.900   4.998
95374SOL     OW88018  11.925   5.826  12.857
95374SOL    HW188019  11.940   5.795  12.768
95374SOL    HW288020  11.868   5.760  12.897
95375SOL     OW88021   2.397   7.559   3.416
95375SOL    HW188022   2.351   7.560   3.333
95375SOL    HW288023   2.351   7.623   3.470
95376SOL     OW88024   3.148  14.779   8.615
95376SOL    HW188025   3.089  14.854   8.623
95376SOL    HW288026   3.103  14.719   8.557
95377SOL     OW88027   8.726  13.566  11.292
95377SOL    HW188028   8.719  13.471  11.283
95377SOL    HW288029   8.636  13.598  11.293
95378SOL     OW88030   9.598  11.201   5.885
95378SOL    HW188031   9.625  11.164   5.968
95378SOL    HW288032   9.557  11.128   5.838
95379SOL     OW88033   4.062   7.977  12.218
95379SOL    HW188034   4.110   8.050  12.180
95379SOL    HW288035   4.032   8.009  12.303
95380SOL     OW88036   3.665   0.151   6.045
95380SOL    HW188037   3.722   0.168   6.120
95380SOL    HW288038   3.674   0.057   6.028
95381SOL     OW88039   8.180   0.198   5.721
95381SOL    HW188040   8.271   0.192   5.692
95381SOL    HW288041   8.176   0.281   5.768
95382SOL     OW88042   5.488   4.415  14.074
95382SOL    HW188043   5.428   4.342  14.055
95382SOL    HW288044   5.531   4.433  13.990
95383SOL     OW88045  11.561   3.095  14.804
95383SOL    HW188046  11.542   3.189  14.804
95383SOL    HW288047  11.583   3.075   0.013
95384SOL     OW88048   5.825  10.315  10.025
95384SOL    HW188049   5.750  10.307   9.966
95384SOL    HW288050   5.896  10.348   9.969
95385SOL     OW88051   7.913   1.163  13.781
95385SOL    HW188052   7.871   1.242  13.748
95385SOL    HW288053   7.966   1.131  13.708
95386SOL     OW88054  14.253  14.556   7.770
95386SOL    HW188055  14.209  14.633   7.736
95386SOL    HW288056  14.220  14.483   7.717
95387SOL     OW88057   3.973   0.349  14.200
95387SOL    HW188058   3.965   0.420  14.136
95387SOL    HW288059   3.984   0.393  14.284
95388SOL     OW88060   2.268   9.687   5.863
95388SOL    HW188061   2.249   9.780   5.871
95388SOL    HW288062   2.257   9.652   5.951
95389SOL     OW88063   1.712   9.676   1.568
95389SOL    HW188064   1.804   9.689   1.592
95389SOL    HW288065   1.669   9.652   1.650
95390SOL     OW88066  14.278  12.583   6.327
95390SOL    HW188067  14.314  12.500   6.359
95390SOL    HW288068  14.218  12.557   6.257
95391SOL     OW88069  14.156   1.727   2.827
95391SOL    HW188070  14.154   1.809   2.875
95391SOL    HW288071  14.244   1.692   2.842
95392SOL     OW88072   8.679  13.601   4.150
95392SOL    HW188073   8.699  13.575   4.239
95392SOL    HW288074   8.659  13.520   4.104
95393SOL     OW88075   9.273  13.138   1.645
95393SOL    HW188076   9.232  13.173   1.724
95393SOL    HW288077   9.326  13.064   1.676
95394SOL     OW88078   1.565  14.357  13.144
95394SOL    HW188079   1.557  14.352  13.049
95394SOL    HW288080   1.486  14.402  13.172
95395SOL     OW88081   8.868  12.533  11.178
95395SOL    HW188082   8.853  12.619  11.217
95395SOL    HW288083   8.786  12.513  11.133
95396SOL     OW88084   0.693   0.672   7.768
95396SOL    HW188085   0.667   0.755   7.728
95396SOL    HW288086   0.653   0.605   7.713
95397SOL     OW88087   1.705  14.460   4.639
95397SOL    HW188088   1.685  14.441   4.730
95397SOL    HW288089   1.648  14.401   4.589
95398SOL     OW88090  10.983   4.637   9.696
95398SOL    HW188091  10.909   4.646   9.756
95398SOL    HW288092  10.997   4.726   9.662
95399SOL     OW88093  13.477  14.523   3.771
95399SOL    HW188094  13.502  14.568   3.852
95399SOL    HW288095  13.475  14.431   3.795
95400SOL     OW88096  10.299   9.828  13.288
95400SOL    HW188097  10.272   9.903  13.340
95400SOL    HW288098  10.390   9.848  13.263
95401SOL     OW88099   2.900   6.907   5.149
95401SOL    HW188100   2.985   6.922   5.190
95401SOL    HW288101   2.845   6.876   5.221
95402SOL     OW88102  14.800   1.125   7.587
95402SOL    HW188103  14.865   1.191   7.610
95402SOL    HW288104  14.844   1.067   7.525
95403SOL     OW88105   2.051   3.815  11.683
95403SOL    HW188106   2.113   3.745  11.702
95403SOL    HW288107   2.097   3.872  11.621
95404SOL     OW88108   7.591   4.015   8.694
95404SOL    HW188109   7.520   3.970   8.648
95404SOL    HW288110   7.589   3.980   8.783
95405SOL     OW88111   7.751  10.750  11.792
95405SOL    HW188112   7.698  10.696  11.734
95405SOL    HW288113   7.799  10.687  11.847
95406SOL     OW88114   2.520   9.384   4.515
95406SOL    HW188115   2.569   9.328   4.575
95406SOL    HW288116   2.431   9.347   4.515
95407SOL     OW88117   4.229   6.915   6.604
95407SOL    HW188118   4.221   6.848   6.537
95407SOL    HW288119   4.273   6.988   6.560
95408SOL     OW88120   0.006   7.673   3.479
95408SOL    HW188121  14.868   7.715   3.563
95408SOL    HW288122  14.816   7.699   3.421
95409SOL     OW88123   8.975   1.851   1.576
95409SOL    HW188124   9.045   1.829   1.637
95409SOL    HW288125   9.005   1.816   1.492
95410SOL     OW88126   1.556   9.437  12.234
95410SOL    HW188127   1.631   9.481  12.194
95410SOL    HW288128   1.576   9.343  12.226
95411SOL     OW88129   6.439  10.179   1.796
95411SOL    HW188130   6.364  10.119   1.796
95411SOL    HW288131   6.459  10.192   1.703
95412SOL     OW88132   3.635   4.766   1.586
95412SOL    HW188133   3.651   4.681   1.628
95412SOL    HW288134   3.556   4.754   1.535
95413SOL     OW88135   3.736   6.443   6.084
95413SOL    HW188136   3.702   6.369   6.035
95413SOL    HW288137   3.676   6.515   6.064
95414SOL     OW88138  12.249   6.142   5.924
95414SOL    HW188139  12.243   6.052   5.894
95414SOL    HW288140  12.220   6.195   5.849
95415SOL     OW88141  10.514   9.812   7.075
95415SOL    HW188142  10.515   9.716   7.075
95415SOL    HW288143  10.451   9.835   7.143
95416SOL     OW88144  10.713  13.184   1.808
95416SOL    HW188145  10.800  13.205   1.844
95416SOL    HW288146  10.658  13.258   1.834
95417SOL     OW88147   7.146   7.559  10.499
95417SOL    HW188148   7.063   7.517  10.476
95417SOL    HW288149   7.130   7.652  10.489
95418SOL     OW88150   0.195   8.324   8.734
95418SOL    HW188151   0.199   8.230   8.717
95418SOL    HW288152   0.268   8.361   8.684
95419SOL     OW88153   1.599   1.679   1.052
95419SOL    HW188154   1.633   1.597   1.017
95419SOL    HW288155   1.676   1.735   1.062
95420SOL     OW88156  14.551   4.222   7.251
95420SOL    HW188157  14.528   4.201   7.161
95420SOL    HW288158  14.570   4.316   7.249
95421SOL     OW88159  13.153  11.567  14.544
95421SOL    HW188160  13.191  11.488  14.583
95421SOL    HW288161  13.188  11.570  14.456
95422SOL     OW88162   9.622   6.811  13.230
95422SOL    HW188163   9.685   6.849  13.168
95422SOL    HW288164   9.612   6.877  13.298
95423SOL     OW88165   8.483  10.132   9.880
95423SOL    HW188166   8.430  10.081   9.818
95423SOL    HW288167   8.509  10.209   9.830
95424SOL     OW88168  13.689   8.717  10.198
95424SOL    HW188169  13.762   8.779  10.206
95424SOL    HW288170  13.685   8.698  10.104
95425SOL     OW88171   6.554   5.972  11.086
95425SOL    HW188172   6.624   6.028  11.054
95425SOL    HW288173   6.485   5.979  11.020
95426SOL     OW88174   8.304   8.403   0.553
95426SOL    HW188175   8.355   8.434   0.479
95426SOL    HW288176   8.323   8.309   0.558
95427SOL     OW88177   4.463   5.560   4.919
95427SOL    HW188178   4.460   5.494   4.849
95427SOL    HW288179   4.374   5.563   4.953
95428SOL     OW88180   1.538   1.437   4.119
95428SOL    HW188181   1.528   1.476   4.033
95428SOL    HW288182   1.448   1.415   4.146
95429SOL     OW88183  11.718   7.089  10.708
95429SOL    HW188184  11.681   7.143  10.778
95429SOL    HW288185  11.805   7.064  10.740
95430SOL     OW88186   2.800  12.799  12.203
95430SOL    HW188187   2.707  12.790  12.227
95430SOL    HW288188   2.819  12.720  12.153
95431SOL     OW88189  11.334  12.946  14.875
95431SOL    HW188190  11.245  12.924   0.023
95431SOL    HW288191  11.391  12.912   0.062
95432SOL     OW88192  11.721   0.459  10.939
95432SOL    HW188193  11.686   0.393  10.998
95432SOL    HW288194  11.769   0.409  10.873
95433SOL     OW88195   0.554   3.014  11.579
95433SOL    HW188196   0.509   3.075  11.520
95433SOL    HW288197   0.532   2.927  11.547
95434SOL     OW88198   7.942   7.045   1.824
95434SOL    HW188199   8.003   7.100   1.873
95434SOL    HW288200   7.914   6.978   1.886
95435SOL     OW88201   5.111   1.621  11.359
95435SOL    HW188202   5.015   1.627  11.364
95435SOL    HW288203   5.128   1.547  11.301
95436SOL     OW88204  13.906   0.832  10.585
95436SOL    HW188205  13.846   0.758  10.582
95436SOL    HW288206  13.886   0.883  10.507
95437SOL     OW88207   7.237   9.957   2.828
95437SOL    HW188208   7.224  10.018   2.901
95437SOL    HW288209   7.198   9.875   2.859
95438SOL     OW88210  13.664   0.412   2.665
95438SOL    HW188211  13.575   0.432   2.634
95438SOL    HW288212  13.697   0.346   2.604
95439SOL     OW88213   5.257   6.679   2.837
95439SOL    HW188214   5.225   6.769   2.845
95439SOL    HW288215   5.199   6.627   2.893
95440SOL     OW88216   9.664  14.856   5.280
95440SOL    HW188217   9.754  14.857   5.246
95440SOL    HW288218   9.654  14.770   5.321
95441SOL     OW88219   0.908   9.151   0.950
95441SOL    HW188220   0.914   9.232   1.002
95441SOL    HW288221   0.835   9.103   0.990
95442SOL     OW88222  12.988   9.140  11.867
95442SOL    HW188223  12.897   9.117  11.849
95442SOL    HW288224  12.991   9.158  11.961
95443SOL     OW88225   6.368  13.281   5.876
95443SOL    HW188226   6.370  13.249   5.966
95443SOL    HW288227   6.395  13.373   5.883
95444SOL     OW88228   0.870   9.918   0.143
95444SOL    HW188229   0.794   9.973   0.165
95444SOL    HW288230   0.900   9.951   0.059
95445SOL     OW88231   6.031   8.810  13.676
95445SOL    HW188232   6.078   8.747  13.622
95445SOL    HW288233   6.089   8.827  13.750
95446SOL     OW88234   2.813   9.432   4.593
95446SOL    HW188235   2.720   9.456   4.588
95446SOL    HW288236   2.834   9.439   4.687
95447SOL     OW88237   2.550  12.192  14.545
95447SOL    HW188238   2.552  12.160  14.455
95447SOL    HW288239   2.610  12.134  14.593
95448SOL     OW88240   5.659   5.552   6.219
95448SOL    HW188241   5.735   5.602   6.250
95448SOL    HW288242   5.584   5.594   6.261
95449SOL     OW88243   8.781  12.580   6.281
95449SOL    HW188244   8.738  12.546   6.203
95449SOL    HW288245   8.828  12.658   6.250
95450SOL     OW88246   8.657  10.699   9.980
95450SOL    HW188247   8.656  10.724  10.073
95450SOL    HW288248   8.745  10.722   9.950
95451SOL     OW88249  10.850  10.678   1.987
95451SOL    HW188250  10.869  10.743   1.920
95451SOL    HW288251  10.863  10.594   1.944
95452SOL     OW88252  14.434   7.115  11.542
95452SOL    HW188253  14.350   7.069  11.541
95452SOL    HW288254  14.488   7.066  11.604
95453SOL     OW88255   4.202   2.676   2.650
95453SOL    HW188256   4.224   2.666   2.742
95453SOL    HW288257   4.257   2.613   2.604
95454SOL     OW88258  13.995   1.597   2.369
95454SOL    HW188259  13.980   1.505   2.392
95454SOL    HW288260  14.044   1.593   2.286
95455SOL     OW88261   2.176   5.916   8.727
95455SOL    HW188262   2.236   5.883   8.794
95455SOL    HW288263   2.134   5.992   8.768
95456SOL     OW88264  11.817   4.936   6.364
95456SOL    HW188265  11.826   4.989   6.443
95456SOL    HW288266  11.796   4.848   6.397
95457SOL     OW88267   7.640   3.073   3.777
95457SOL    HW188268   7.630   2.982   3.750
95457SOL    HW288269   7.560   3.116   3.749
95458SOL     OW88270   6.467   5.436   1.550
95458SOL    HW188271   6.416   5.478   1.619
95458SOL    HW288272   6.404   5.385   1.500
95459SOL     OW88273  12.087   4.322   0.787
95459SOL    HW188274  12.136   4.404   0.778
95459SOL    HW288275  12.099   4.298   0.879
95460SOL     OW88276   4.232   4.191   6.380
95460SOL    HW188277   4.286   4.160   6.307
95460SOL    HW288278   4.195   4.274   6.350
95461SOL     OW88279  12.909   6.864  13.633
95461SOL    HW188280  12.937   6.837  13.721
95461SOL    HW288281  12.848   6.936  13.647
95462SOL     OW88282   4.406   3.502   4.977
95462SOL    HW188283   4.463   3.476   4.904
95462SOL    HW288284   4.451   3.577   5.016
95463SOL     OW88285  13.003   1.058   7.437
95463SOL    HW188286  12.953   0.978   7.421
95463SOL    HW288287  12.952   1.106   7.502
95464SOL     OW88288   3.491  14.228   6.626
95464SOL    HW188289   3.469  14.184   6.544
95464SOL    HW288290   3.423  14.295   6.636
95465SOL     OW88291   7.081   6.609  10.507
95465SOL    HW188292   7.065   6.698  10.539
95465SOL    HW288293   6.994   6.572  10.494
95466SOL     OW88294   5.015   2.862   5.217
95466SOL    HW188295   4.963   2.800   5.165
95466SOL    HW288296   5.012   2.944   5.168
95467SOL     OW88297   1.376   6.277   8.022
95467SOL    HW188298   1.416   6.362   8.041
95467SOL    HW288299   1.451   6.219   8.006
95468SOL     OW88300  14.868   5.073   5.700
95468SOL    HW188301  14.835   5.132   5.632
95468SOL    HW288302  14.796   5.013   5.717
95469SOL     OW88303   7.282   9.109  14.498
95469SOL    HW188304   7.234   9.030  14.522
95469SOL    HW288305   7.216   9.165  14.457
95470SOL     OW88306  11.461   3.853   9.927
95470SOL    HW188307  11.426   3.784   9.984
95470SOL    HW288308  11.385   3.884   9.878
95471SOL     OW88309   9.234  11.565   0.189
95471SOL    HW188310   9.319  11.528   0.214
95471SOL    HW288311   9.221  11.640   0.246
95472SOL     OW88312   9.207  14.460   7.001
95472SOL    HW188313   9.300  14.483   6.992
95472SOL    HW288314   9.166  14.539   7.036
95473SOL     OW88315  12.110  13.589  13.407
95473SOL    HW188316  12.105  13.515  13.348
95473SOL    HW288317  12.036  13.577  13.467
95474SOL     OW88318   4.578   4.835   2.911
95474SOL    HW188319   4.629   4.849   2.832
95474SOL    HW288320   4.530   4.754   2.895
95475SOL     OW88321   0.258   1.479  12.547
95475SOL    HW188322   0.328   1.426  12.509
95475SOL    HW288323   0.179   1.447  12.505
95476SOL     OW88324  10.592   9.383  13.075
95476SOL    HW188325  10.520   9.349  13.127
95476SOL    HW288326  10.571   9.475  13.061
95477SOL     OW88327  11.046   1.369   3.430
95477SOL    HW188328  11.043   1.331   3.518
95477SOL    HW288329  11.110   1.440   3.438
95478SOL     OW88330  14.308   4.023   9.701
95478SOL    HW188331  14.300   4.025   9.606
95478SOL    HW288332  14.398   4.051   9.719
95479SOL     OW88333  13.434  14.696  11.943
95479SOL    HW188334  13.480  14.709  11.860
95479SOL    HW288335  13.502  14.674  12.006
95480SOL     OW88336  13.320   6.171   2.823
95480SOL    HW188337  13.354   6.206   2.905
95480SOL    HW288338  13.225   6.182   2.831
95481SOL     OW88339   9.875  11.770  10.784
95481SOL    HW188340   9.888  11.728  10.699
95481SOL    HW288341   9.897  11.702  10.847
95482SOL     OW88342   1.932  14.626   6.094
95482SOL    HW188343   1.992  14.690   6.055
95482SOL    HW288344   1.887  14.675   6.163
95483SOL     OW88345   0.379   6.184  11.200
95483SOL    HW188346   0.454   6.208  11.146
95483SOL    HW288347   0.407   6.201  11.290
95484SOL     OW88348  11.965  13.680   3.962
95484SOL    HW188349  12.040  13.667   3.904
95484SOL    HW288350  11.909  13.742   3.916
95485SOL     OW88351   9.299   8.119  12.739
95485SOL    HW188352   9.302   8.157  12.827
95485SOL    HW288353   9.257   8.187  12.685
95486SOL     OW88354   2.140  13.506   8.343
95486SOL    HW188355   2.063  13.474   8.390
95486SOL    HW288356   2.144  13.599   8.365
95487SOL     OW88357   5.646   9.423  14.620
95487SOL    HW188358   5.590   9.474  14.561
95487SOL    HW288359   5.728   9.414  14.572
95488SOL     OW88360   3.188   8.008  10.645
95488SOL    HW188361   3.229   8.062  10.577
95488SOL    HW288362   3.246   7.932  10.653
95489SOL     OW88363   1.559   6.264  10.534
95489SOL    HW188364   1.574   6.319  10.611
95489SOL    HW288365   1.531   6.180  10.569
95490SOL     OW88366   3.710  12.822  14.356
95490SOL    HW188367   3.714  12.756  14.425
95490SOL    HW288368   3.726  12.905  14.401
95491SOL     OW88369   6.337   8.920   5.728
95491SOL    HW188370   6.338   9.013   5.750
95491SOL    HW288371   6.402   8.911   5.659
95492SOL     OW88372   6.584   3.629  10.961
95492SOL    HW188373   6.632   3.650  11.042
95492SOL    HW288374   6.566   3.535  10.968
95493SOL     OW88375  14.356   4.187   6.201
95493SOL    HW188376  14.281   4.150   6.154
95493SOL    HW288377  14.376   4.268   6.155
95494SOL     OW88378   3.182  10.469   4.717
95494SOL    HW188379   3.183  10.494   4.810
95494SOL    HW288380   3.116  10.525   4.677
95495SOL     OW88381   8.383  12.871   1.793
95495SOL    HW188382   8.367  12.902   1.882
95495SOL    HW288383   8.414  12.948   1.746
95496SOL     OW88384   1.971   5.248   4.089
95496SOL    HW188385   1.893   5.261   4.035
95496SOL    HW288386   1.949   5.290   4.173
95497SOL     OW88387  12.690   7.645  12.825
95497SOL    HW188388  12.721   7.638  12.735
95497SOL    HW288389  12.598   7.671  12.816
95498SOL     OW88390   0.699   3.701   1.317
95498SOL    HW188391   0.705   3.657   1.232
95498SOL    HW288392   0.606   3.696   1.340
95499SOL     OW88393   6.442  11.289   5.808
95499SOL    HW188394   6.361  11.275   5.857
95499SOL    HW288395   6.418  11.352   5.740
95500SOL     OW88396   5.034  14.802   7.786
95500SOL    HW188397   4.963  14.755   7.741
95500SOL    HW288398   5.081  14.734   7.833
95501SOL     OW88399   6.146   4.812  13.146
95501SOL    HW188400   6.204   4.832  13.219
95501SOL    HW288401   6.070   4.770  13.186
95502SOL     OW88402  11.568   1.693   1.587
95502SOL    HW188403  11.522   1.662   1.510
95502SOL    HW288404  11.519   1.770   1.615
95503SOL     OW88405  14.036  13.832   1.329
95503SOL    HW188406  13.961  13.774   1.342
95503SOL    HW288407  14.111  13.779   1.355
95504SOL     OW88408  13.178  11.195  10.404
95504SOL    HW188409  13.115  11.201  10.476
95504SOL    HW288410  13.181  11.102  10.381
95505SOL     OW88411   4.920   4.065   4.384
95505SOL    HW188412   4.920   4.156   4.414
95505SOL    HW288413   4.979   4.065   4.308
95506SOL     OW88414   1.749  12.802  11.096
95506SOL    HW188415   1.818  12.752  11.053
95506SOL    HW288416   1.783  12.891  11.103
95507SOL     OW88417   7.096  10.351   8.000
95507SOL    HW188418   7.049  10.414   7.945
95507SOL    HW288419   7.045  10.347   8.081
95508SOL     OW88420   8.768   5.786   7.573
95508SOL    HW188421   8.736   5.870   7.604
95508SOL    HW288422   8.705   5.759   7.506
95509SOL     OW88423  14.175   0.398  12.114
95509SOL    HW188424  14.177   0.303  12.103
95509SOL    HW288425  14.255   0.418  12.163
95510SOL     OW88426   7.363   3.899   5.906
95510SOL    HW188427   7.384   3.956   5.832
95510SOL    HW288428   7.270   3.877   5.894
95511SOL     OW88429   0.030   6.555  11.785
95511SOL    HW188430   0.009   6.635  11.738
95511SOL    HW288431   0.101   6.515  11.735
95512SOL     OW88432   7.842   3.519   2.574
95512SOL    HW188433   7.749   3.504   2.588
95512SOL    HW288434   7.884   3.488   2.654
95513SOL     OW88435   0.596   4.207  11.884
95513SOL    HW188436   0.608   4.276  11.949
95513SOL    HW288437   0.509   4.224  11.848
95514SOL     OW88438  10.763   6.375  11.754
95514SOL    HW188439  10.670   6.366  11.775
95514SOL    HW288440  10.765   6.417  11.668
95515SOL     OW88441   9.821  14.755  10.886
95515SOL    HW188442   9.725  14.757  10.893
95515SOL    HW288443   9.844  14.663  10.894
95516SOL     OW88444   3.446   2.681   4.765
95516SOL    HW188445   3.447   2.776   4.753
95516SOL    HW288446   3.529   2.661   4.808
95517SOL     OW88447   9.412  14.415   3.003
95517SOL    HW188448   9.436  14.368   3.083
95517SOL    HW288449   9.317  14.413   3.001
95518SOL     OW88450  11.532   3.626   1.586
95518SOL    HW188451  11.587   3.548   1.576
95518SOL    HW288452  11.458   3.609   1.528
95519SOL     OW88453   5.188   4.355   4.294
95519SOL    HW188454   5.116   4.409   4.326
95519SOL    HW288455   5.147   4.270   4.274
95520SOL     OW88456   5.551   3.750  10.229
95520SOL    HW188457   5.560   3.744  10.324
95520SOL    HW288458   5.509   3.668  10.204
95521SOL     OW88459   2.382   6.222   4.665
95521SOL    HW188460   2.398   6.271   4.746
95521SOL    HW288461   2.361   6.133   4.694
95522SOL     OW88462   0.484  11.515   5.506
95522SOL    HW188463   0.409  11.475   5.550
95522SOL    HW288464   0.444  11.563   5.433
95523SOL     OW88465   7.722  11.577   8.659
95523SOL    HW188466   7.695  11.548   8.571
95523SOL    HW288467   7.735  11.672   8.649
95524SOL     OW88468  11.874  12.584  13.473
95524SOL    HW188469  11.825  12.538  13.542
95524SOL    HW288470  11.912  12.660  13.517
95525SOL     OW88471   0.264   4.401   6.127
95525SOL    HW188472   0.236   4.467   6.191
95525SOL    HW288473   0.211   4.418   6.049
95526SOL     OW88474   7.298   0.606  13.294
95526SOL    HW188475   7.369   0.554  13.257
95526SOL    HW288476   7.220   0.552  13.282
95527SOL     OW88477   9.265  10.081  12.402
95527SOL    HW188478   9.334  10.113  12.345
95527SOL    HW288479   9.183  10.106  12.359
95528SOL     OW88480   6.209   0.752  14.848
95528SOL    HW188481   6.267   0.800  14.788
95528SOL    HW288482   6.242   0.775   0.053
95529SOL     OW88483  10.532   5.690   3.240
95529SOL    HW188484  10.450   5.733   3.216
95529SOL    HW288485  10.508   5.630   3.311
95530SOL     OW88486  10.921  11.846   2.417
95530SOL    HW188487  11.015  11.830   2.405
95530SOL    HW288488  10.882  11.825   2.332
95531SOL     OW88489   8.556  10.704   0.373
95531SOL    HW188490   8.515  10.637   0.320
95531SOL    HW288491   8.554  10.783   0.319
95532SOL     OW88492   4.878  11.417   4.042
95532SOL    HW188493   4.828  11.355   4.096
95532SOL    HW288494   4.827  11.425   3.962
95533SOL     OW88495   7.889  12.966   4.071
95533SOL    HW188496   7.950  12.952   4.143
95533SOL    HW288497   7.851  12.880   4.054
95534SOL     OW88498  11.183   0.552   2.911
95534SOL    HW188499  11.234   0.629   2.936
95534SOL    HW288500  11.116   0.544   2.979
95535SOL     OW88501   3.921   7.581   3.734
95535SOL    HW188502   3.862   7.652   3.709
95535SOL    HW288503   4.009   7.613   3.711
95536SOL     OW88504   8.610   8.747  13.883
95536SOL    HW188505   8.551   8.820  13.904
95536SOL    HW288506   8.638   8.713  13.968
95537SOL     OW88507   5.627   6.417   6.957
95537SOL    HW188508   5.578   6.420   7.039
95537SOL    HW288509   5.655   6.326   6.949
95538SOL     OW88510   8.049  12.915  11.085
95538SOL    HW188511   8.001  12.971  11.025
95538SOL    HW288512   8.058  12.832  11.038
95539SOL     OW88513  11.693  11.125   6.476
95539SOL    HW188514  11.705  11.184   6.550
95539SOL    HW288515  11.656  11.045   6.515
95540SOL     OW88516   4.337   8.305   3.577
95540SOL    HW188517   4.313   8.396   3.597
95540SOL    HW288518   4.283   8.253   3.636
95541SOL     OW88519  10.819   5.770   4.356
95541SOL    HW188520  10.913   5.750   4.356
95541SOL    HW288521  10.778   5.692   4.395
95542SOL     OW88522  11.255  11.096   5.325
95542SOL    HW188523  11.242  11.013   5.279
95542SOL    HW288524  11.223  11.163   5.264
95543SOL     OW88525   8.790  10.013   2.501
95543SOL    HW188526   8.789  10.056   2.587
95543SOL    HW288527   8.821   9.924   2.518
95544SOL     OW88528   1.867  11.534   2.907
95544SOL    HW188529   1.950  11.535   2.858
95544SOL    HW288530   1.828  11.620   2.888
95545SOL     OW88531   3.830  10.389   9.602
95545SOL    HW188532   3.841  10.442   9.523
95545SOL    HW288533   3.916  10.389   9.644
95546SOL     OW88534  13.810  10.378   2.115
95546SOL    HW188535  13.809  10.473   2.101
95546SOL    HW288536  13.846  10.368   2.203
95547SOL     OW88537  12.647   8.908   1.152
95547SOL    HW188538  12.681   8.823   1.177
95547SOL    HW288539  12.571   8.888   1.097
95548SOL     OW88540   1.796  11.711   9.932
95548SOL    HW188541   1.737  11.780   9.964
95548SOL    HW288542   1.848  11.686  10.009
95549SOL     OW88543   0.949  14.409   2.498
95549SOL    HW188544   0.919  14.357   2.573
95549SOL    HW288545   0.944  14.500   2.528
95550SOL     OW88546  14.716   6.145   5.455
95550SOL    HW188547  14.708   6.095   5.536
95550SOL    HW288548  14.686   6.086   5.387
95551SOL     OW88549  13.127   5.090   8.921
95551SOL    HW188550  13.072   5.013   8.908
95551SOL    HW288551  13.216   5.059   8.903
95552SOL     OW88552   1.793   8.890   9.525
95552SOL    HW188553   1.786   8.985   9.530
95552SOL    HW288554   1.887   8.873   9.518
95553SOL     OW88555  12.137  11.765  14.011
95553SOL    HW188556  12.213  11.710  13.993
95553SOL    HW288557  12.070  11.704  14.041
95554SOL     OW88558   0.149  13.296  13.672
95554SOL    HW188559   0.226  13.354  13.672
95554SOL    HW288560   0.075  13.355  13.686
95555SOL     OW88561   4.530   0.786   5.261
95555SOL    HW188562   4.520   0.724   5.189
95555SOL    HW288563   4.614   0.829   5.243
95556SOL     OW88564   9.238   5.348  13.890
95556SOL    HW188565   9.171   5.376  13.953
95556SOL    HW288566   9.319   5.385  13.923
95557SOL     OW88567   8.896   1.156  10.122
95557SOL    HW188568   8.979   1.147  10.167
95557SOL    HW288569   8.831   1.161  10.192
95558SOL     OW88570   0.534   4.603   3.994
95558SOL    HW188571   0.494   4.621   4.079
95558SOL    HW288572   0.465   4.563   3.943
95559SOL     OW88573   7.056   3.327  13.950
95559SOL    HW188574   7.120   3.319  13.879
95559SOL    HW288575   6.971   3.322  13.907
95560SOL     OW88576   8.901  14.535   8.099
95560SOL    HW188577   8.818  14.569   8.131
95560SOL    HW288578   8.959  14.538   8.175
95561SOL     OW88579   1.649   0.418   2.209
95561SOL    HW188580   1.701   0.348   2.169
95561SOL    HW288581   1.713   0.486   2.230
95562SOL     OW88582  12.474  14.713  11.654
95562SOL    HW188583  12.382  14.733  11.672
95562SOL    HW288584  12.523  14.771  11.712
95563SOL     OW88585   4.711   6.158   0.436
95563SOL    HW188586   4.638   6.186   0.492
95563SOL    HW288587   4.790   6.179   0.486
95564SOL     OW88588  13.245   4.585   1.408
95564SOL    HW188589  13.338   4.570   1.389
95564SOL    HW288590  13.204   4.500   1.394
95565SOL     OW88591   9.154  11.922   8.209
95565SOL    HW188592   9.091  11.984   8.173
95565SOL    HW288593   9.186  11.874   8.132
95566SOL     OW88594   4.047   7.790  14.856
95566SOL    HW188595   4.045   7.743   0.057
95566SOL    HW288596   4.076   7.725  14.792
95567SOL     OW88597   7.760   0.394   1.888
95567SOL    HW188598   7.750   0.486   1.865
95567SOL    HW288599   7.770   0.349   1.804
95568SOL     OW88600   5.330  10.965  11.896
95568SOL    HW188601   5.312  10.994  11.986
95568SOL    HW288602   5.387  10.889  11.907
95569SOL     OW88603   5.323   1.902   9.576
95569SOL    HW188604   5.271   1.912   9.656
95569SOL    HW288605   5.413   1.915   9.605
95570SOL     OW88606   3.246   3.654   3.404
95570SOL    HW188607   3.217   3.606   3.482
95570SOL    HW288608   3.244   3.590   3.333
95571SOL     OW88609  10.279   9.934   9.603
95571SOL    HW188610  10.267   9.876   9.678
95571SOL    HW288611  10.197   9.928   9.554
95572SOL     OW88612  12.667   8.498   5.293
95572SOL    HW188613  12.671   8.593   5.285
95572SOL    HW288614  12.618   8.483   5.374
95573SOL     OW88615   7.978   1.478   0.152
95573SOL    HW188616   8.057   1.517   0.188
95573SOL    HW288617   7.908   1.507   0.211
95574SOL     OW88618  13.189   2.056   4.440
95574SOL    HW188619  13.267   2.097   4.477
95574SOL    HW288620  13.217   2.026   4.353
95575SOL     OW88621   3.279   4.007   3.687
95575SOL    HW188622   3.299   4.099   3.667
95575SOL    HW288623   3.304   3.959   3.608
95576SOL     OW88624  11.790   8.388   8.752
95576SOL    HW188625  11.733   8.433   8.690
95576SOL    HW288626  11.850   8.455   8.783
95577SOL     OW88627   6.362   7.916   4.803
95577SOL    HW188628   6.382   7.965   4.723
95577SOL    HW288629   6.300   7.849   4.774
95578SOL     OW88630   0.681  14.199   8.678
95578SOL    HW188631   0.769  14.236   8.687
95578SOL    HW288632   0.692  14.128   8.614
95579SOL     OW88633   1.327   9.332  13.406
95579SOL    HW188634   1.242   9.296  13.428
95579SOL    HW288635   1.382   9.256  13.387
95580SOL     OW88636   4.165   1.180  13.072
95580SOL    HW188637   4.087   1.225  13.040
95580SOL    HW288638   4.228   1.188  13.001
95581SOL     OW88639   4.635   1.529  14.559
95581SOL    HW188640   4.616   1.437  14.539
95581SOL    HW288641   4.561   1.577  14.521
95582SOL     OW88642   5.820   1.077  13.076
95582SOL    HW188643   5.847   0.989  13.103
95582SOL    HW288644   5.878   1.135  13.125
95583SOL     OW88645  11.409   3.846   6.396
95583SOL    HW188646  11.469   3.781   6.431
95583SOL    HW288647  11.429   3.850   6.303
95584SOL     OW88648   2.689   3.437  13.412
95584SOL    HW188649   2.773   3.392  13.413
95584SOL    HW288650   2.708   3.522  13.372
95585SOL     OW88651   4.131   9.229   8.202
95585SOL    HW188652   4.114   9.271   8.287
95585SOL    HW288653   4.123   9.301   8.139
95586SOL     OW88654  14.878  11.820   7.840
95586SOL    HW188655  14.803  11.854   7.888
95586SOL    HW288656  14.858  11.727   7.827
95587SOL     OW88657   2.649   1.561   4.822
95587SOL    HW188658   2.699   1.540   4.901
95587SOL    HW288659   2.597   1.483   4.804
95588SOL     OW88660   1.183   8.217  12.710
95588SOL    HW188661   1.109   8.278  12.712
95588SOL    HW288662   1.259   8.272  12.689
95589SOL     OW88663   0.398   6.496  11.098
95589SOL    HW188664   0.455   6.566  11.065
95589SOL    HW288665   0.453   6.418  11.098
95590SOL     OW88666   2.577  14.406   2.053
95590SOL    HW188667   2.499  14.418   2.107
95590SOL    HW288668   2.585  14.311   2.045
95591SOL     OW88669   1.004  13.519  14.024
95591SOL    HW188670   1.077  13.464  14.051
95591SOL    HW288671   0.946  13.522  14.100
95592SOL     OW88672   3.681   5.163  10.059
95592SOL    HW188673   3.613   5.144  10.122
95592SOL    HW288674   3.694   5.258  10.066
95593SOL     OW88675  12.155   7.041   3.164
95593SOL    HW188676  12.160   6.951   3.196
95593SOL    HW288677  12.230   7.049   3.105
95594SOL     OW88678   5.455  12.248   3.919
95594SOL    HW188679   5.407  12.266   4.000
95594SOL    HW288680   5.401  12.184   3.872
95595SOL     OW88681  13.338   3.305   1.278
95595SOL    HW188682  13.304   3.395   1.278
95595SOL    HW288683  13.431   3.315   1.256
95596SOL     OW88684  10.770   1.569   8.010
95596SOL    HW188685  10.759   1.542   8.101
95596SOL    HW288686  10.808   1.492   7.967
95597SOL     OW88687   7.811   2.890  11.808
95597SOL    HW188688   7.821   2.967  11.865
95597SOL    HW288689   7.777   2.822  11.866
95598SOL     OW88690   4.150   6.562   2.597
95598SOL    HW188691   4.186   6.513   2.522
95598SOL    HW288692   4.193   6.647   2.593
95599SOL     OW88693   0.686   4.891  12.372
95599SOL    HW188694   0.605   4.927  12.336
95599SOL    HW288695   0.745   4.887  12.296
95600SOL     OW88696  12.654  12.561  13.689
95600SOL    HW188697  12.681  12.476  13.723
95600SOL    HW288698  12.621  12.609  13.765
95601SOL     OW88699   6.072   9.906   3.896
95601SOL    HW188700   6.082   9.891   3.990
95601SOL    HW288701   6.127   9.982   3.878
95602SOL     OW88702  13.701   6.410  10.101
95602SOL    HW188703  13.746   6.391  10.183
95602SOL    HW288704  13.613   6.437  10.127
95603SOL     OW88705   3.600   1.871  12.147
95603SOL    HW188706   3.514   1.891  12.183
95603SOL    HW288707   3.648   1.829  12.219
95604SOL     OW88708  10.536  10.976   2.170
95604SOL    HW188709  10.565  10.978   2.079
95604SOL    HW288710  10.576  11.053   2.210
95605SOL     OW88711   0.645   3.942  11.842
95605SOL    HW188712   0.628   4.036  11.841
95605SOL    HW288713   0.564   3.903  11.875
95606SOL     OW88714   4.478  13.375  11.951
95606SOL    HW188715   4.473  13.338  11.863
95606SOL    HW288716   4.512  13.303  12.005
95607SOL     OW88717   5.250   1.909   9.838
95607SOL    HW188718   5.270   1.892   9.930
95607SOL    HW288719   5.176   1.851   9.818
95608SOL     OW88720  10.475   4.934   7.217
95608SOL    HW188721  10.401   4.922   7.157
95608SOL    HW288722  10.437   4.970   7.296
95609SOL     OW88723   2.241   6.872   1.502
95609SOL    HW188724   2.245   6.796   1.561
95609SOL    HW288725   2.285   6.942   1.551
95610SOL     OW88726   4.590   9.296   2.694
95610SOL    HW188727   4.585   9.281   2.600
95610SOL    HW288728   4.581   9.209   2.733
95611SOL     OW88729   6.639   5.334   8.386
95611SOL    HW188730   6.708   5.400   8.390
95611SOL    HW288731   6.640   5.304   8.295
95612SOL     OW88732   5.751   0.115   0.284
95612SOL    HW188733   5.744   0.100   0.378
95612SOL    HW288734   5.762   0.209   0.275
95613SOL     OW88735   3.065   2.004   4.886
95613SOL    HW188736   2.975   2.008   4.853
95613SOL    HW288737   3.056   1.997   4.981
95614SOL     OW88738   0.996   9.470   3.121
95614SOL    HW188739   1.023   9.408   3.188
95614SOL    HW288740   0.904   9.448   3.103
95615SOL     OW88741   9.509  10.115   6.294
95615SOL    HW188742   9.599  10.105   6.263
95615SOL    HW288743   9.458  10.055   6.241
95616SOL     OW88744   4.994  12.274  12.775
95616SOL    HW188745   5.013  12.182  12.755
95616SOL    HW288746   4.948  12.271  12.859
95617SOL     OW88747   7.780   4.217   8.708
95617SOL    HW188748   7.832   4.208   8.629
95617SOL    HW288749   7.743   4.130   8.723
95618SOL     OW88750  10.003   2.014   5.801
95618SOL    HW188751   9.941   2.087   5.795
95618SOL    HW288752  10.015   2.000   5.895
95619SOL     OW88753   7.058   8.828   6.998
95619SOL    HW188754   6.971   8.810   6.963
95619SOL    HW288755   7.043   8.845   7.091
95620SOL     OW88756   4.839   7.122  12.021
95620SOL    HW188757   4.770   7.077  12.070
95620SOL    HW288758   4.808   7.121  11.930
95621SOL     OW88759   8.982   2.781   7.288
95621SOL    HW188760   8.891   2.802   7.310
95621SOL    HW288761   8.986   2.686   7.295
95622SOL     OW88762  14.521  14.624   4.811
95622SOL    HW188763  14.559  14.536   4.809
95622SOL    HW288764  14.468  14.628   4.732
95623SOL     OW88765   3.970   6.292   5.918
95623SOL    HW188766   3.991   6.219   5.860
95623SOL    HW288767   3.902   6.341   5.872
95624SOL     OW88768  12.004   0.649   4.893
95624SOL    HW188769  11.988   0.555   4.886
95624SOL    HW288770  12.097   0.659   4.875
95625SOL     OW88771   5.039   4.451   6.939
95625SOL    HW188772   5.039   4.364   6.980
95625SOL    HW288773   4.964   4.448   6.879
95626SOL     OW88774  13.182   4.851   1.426
95626SOL    HW188775  13.236   4.774   1.408
95626SOL    HW288776  13.225   4.893   1.501
95627SOL     OW88777   3.415  14.705  13.952
95627SOL    HW188778   3.388  14.642  14.019
95627SOL    HW288779   3.499  14.671  13.920
95628SOL     OW88780  10.756   2.275   9.773
95628SOL    HW188781  10.710   2.344   9.725
95628SOL    HW288782  10.836   2.261   9.724
95629SOL     OW88783   6.803   8.920   3.072
95629SOL    HW188784   6.790   8.825   3.073
95629SOL    HW288785   6.815   8.944   3.164
95630SOL     OW88786  13.322  14.678  10.008
95630SOL    HW188787  13.376  14.603  10.034
95630SOL    HW288788  13.300  14.722  10.090
95631SOL     OW88789   7.859  12.724  11.866
95631SOL    HW188790   7.951  12.708  11.885
95631SOL    HW288791   7.815  12.716  11.951
95632SOL     OW88792  13.288  14.043   4.340
95632SOL    HW188793  13.363  13.983   4.338
95632SOL    HW288794  13.250  14.031   4.427
95633SOL     OW88795   4.036  12.355  10.749
95633SOL    HW188796   3.973  12.336  10.819
95633SOL    HW288797   4.032  12.450  10.738
95634SOL     OW88798   3.696   2.635   6.462
95634SOL    HW188799   3.694   2.577   6.386
95634SOL    HW288800   3.780   2.681   6.456
95635SOL     OW88801   4.528   2.391   1.867
95635SOL    HW188802   4.522   2.307   1.821
95635SOL    HW288803   4.440   2.405   1.901
95636SOL     OW88804   1.960   2.279  14.028
95636SOL    HW188805   1.949   2.374  14.020
95636SOL    HW288806   1.871   2.245  14.028
95637SOL     OW88807   5.135   9.524   1.485
95637SOL    HW188808   5.080   9.455   1.521
95637SOL    HW288809   5.160   9.578   1.560
95638SOL     OW88810   1.407   6.131   2.447
95638SOL    HW188811   1.368   6.219   2.451
95638SOL    HW288812   1.407   6.101   2.537
95639SOL     OW88813   6.037   6.837   7.615
95639SOL    HW188814   5.973   6.790   7.669
95639SOL    HW288815   6.108   6.859   7.675
95640SOL     OW88816   7.861   9.553   9.264
95640SOL    HW188817   7.793   9.569   9.330
95640SOL    HW288818   7.909   9.477   9.297
95641SOL     OW88819   7.973   3.758  13.155
95641SOL    HW188820   7.884   3.758  13.191
95641SOL    HW288821   8.000   3.850  13.156
95642SOL     OW88822   1.452   1.370   8.862
95642SOL    HW188823   1.518   1.312   8.901
95642SOL    HW288824   1.476   1.457   8.893
95643SOL     OW88825  14.577   4.478   7.136
95643SOL    HW188826  14.626   4.556   7.160
95643SOL    HW288827  14.495   4.511   7.100
95644SOL     OW88828   0.675  10.528   4.696
95644SOL    HW188829   0.719  10.591   4.753
95644SOL    HW288830   0.714  10.543   4.610
95645SOL     OW88831  10.997   2.067  14.731
95645SOL    HW188832  10.945   1.987  14.736
95645SOL    HW288833  11.063   2.048  14.665
95646SOL     OW88834  14.473   0.498   6.188
95646SOL    HW188835  14.524   0.436   6.137
95646SOL    HW288836  14.420   0.444   6.247
95647SOL     OW88837  13.910   7.379  13.647
95647SOL    HW188838  13.972   7.411  13.713
95647SOL    HW288839  13.964   7.360  13.571
95648SOL     OW88840   3.995   5.812  11.751
95648SOL    HW188841   3.992   5.890  11.807
95648SOL    HW288842   3.918   5.821  11.695
95649SOL     OW88843   7.089   5.852   5.380
95649SOL    HW188844   7.083   5.757   5.396
95649SOL    HW288845   6.999   5.884   5.393
95650SOL     OW88846  13.963  14.673   3.737
95650SOL    HW188847  14.012  14.623   3.672
95650SOL    HW288848  14.022  14.743   3.763
95651SOL     OW88849   7.207   7.982   0.462
95651SOL    HW188850   7.268   8.021   0.524
95651SOL    HW288851   7.184   7.898   0.500
95652SOL     OW88852  13.988  14.394   8.719
95652SOL    HW188853  13.968  14.401   8.626
95652SOL    HW288854  14.023  14.305   8.730
95653SOL     OW88855  10.648   7.565   4.361
95653SOL    HW188856  10.591   7.495   4.331
95653SOL    HW288857  10.685   7.603   4.281
95654SOL     OW88858  12.805   9.170   6.199
95654SOL    HW188859  12.711   9.164   6.184
95654SOL    HW288860  12.840   9.209   6.118
95655SOL     OW88861   8.822   9.639  11.393
95655SOL    HW188862   8.793   9.725  11.423
95655SOL    HW288863   8.881   9.657  11.321
95656SOL     OW88864   0.660   2.734   1.752
95656SOL    HW188865   0.664   2.714   1.845
95656SOL    HW288866   0.701   2.820   1.743
95657SOL     OW88867   7.899   8.073   6.891
95657SOL    HW188868   7.981   8.122   6.890
95657SOL    HW288869   7.849   8.111   6.964
95658SOL     OW88870  13.620   8.218  11.356
95658SOL    HW188871  13.640   8.162  11.280
95658SOL    HW288872  13.666   8.176  11.429
95659SOL     OW88873   4.891  14.182   1.363
95659SOL    HW188874   4.826  14.247   1.391
95659SOL    HW288875   4.856  14.098   1.391
95660SOL     OW88876  13.986   0.176   2.427
95660SOL    HW188877  14.009   0.176   2.334
95660SOL    HW288878  14.024   0.258   2.460
95661SOL     OW88879   3.263   0.295  14.811
95661SOL    HW188880   3.241   0.343  14.731
95661SOL    HW288881   3.249   0.358  14.882
95662SOL     OW88882   2.877   4.922   2.876
95662SOL    HW188883   2.904   4.843   2.923
95662SOL    HW288884   2.960   4.965   2.851
95663SOL     OW88885   1.200   6.220   1.867
95663SOL    HW188886   1.199   6.312   1.843
95663SOL    HW288887   1.293   6.197   1.873
95664SOL     OW88888  12.208  10.820   7.007
95664SOL    HW188889  12.186  10.879   7.080
95664SOL    HW288890  12.263  10.873   6.949
95665SOL     OW88891   7.393   0.072  12.930
95665SOL    HW188892   7.354   0.004  12.875
95665SOL    HW288893   7.338   0.075  13.008
95666SOL     OW88894   2.225   5.659   9.546
95666SOL    HW188895   2.251   5.570   9.523
95666SOL    HW288896   2.134   5.665   9.518
95667SOL     OW88897   2.364  14.829  10.167
95667SOL    HW188898   2.342   0.040  10.167
95667SOL    HW288899   2.373  14.807  10.260
95668SOL     OW88900   7.436   5.200   1.376
95668SOL    HW188901   7.392   5.118   1.356
95668SOL    HW288902   7.420   5.213   1.470
95669SOL     OW88903   2.433  14.274   0.404
95669SOL    HW188904   2.362  14.213   0.386
95669SOL    HW288905   2.506  14.219   0.430
95670SOL     OW88906  10.274   0.165  11.574
95670SOL    HW188907  10.219   0.243  11.570
95670SOL    HW288908  10.294   0.154  11.667
95671SOL     OW88909  10.488   7.923   0.591
95671SOL    HW188910  10.560   7.892   0.645
95671SOL    HW288911  10.444   7.989   0.645
95672SOL     OW88912   6.350  10.861  10.553
95672SOL    HW188913   6.356  10.920  10.628
95672SOL    HW288914   6.258  10.834  10.551
95673SOL     OW88915   4.486   1.428   7.610
95673SOL    HW188916   4.505   1.427   7.704
95673SOL    HW288917   4.559   1.475   7.571
95674SOL     OW88918  13.908   2.394   3.290
95674SOL    HW188919  13.957   2.460   3.339
95674SOL    HW288920  13.824   2.388   3.336
95675SOL     OW88921  14.306   0.900  12.489
95675SOL    HW188922  14.355   0.873  12.567
95675SOL    HW288923  14.220   0.927  12.523
95676SOL     OW88924   9.261   4.665   4.598
95676SOL    HW188925   9.250   4.613   4.678
95676SOL    HW288926   9.208   4.743   4.614
95677SOL     OW88927  12.304   5.184   8.003
95677SOL    HW188928  12.230   5.226   8.048
95677SOL    HW288929  12.296   5.091   8.027
95678SOL     OW88930   8.423  13.337  12.564
95678SOL    HW188931   8.512  13.305  12.578
95678SOL    HW288932   8.431  13.398  12.490
95679SOL     OW88933   3.227  12.429   5.620
95679SOL    HW188934   3.169  12.366   5.578
95679SOL    HW288935   3.292  12.451   5.552
95680SOL     OW88936   8.208   9.265  11.551
95680SOL    HW188937   8.243   9.221  11.474
95680SOL    HW288938   8.135   9.211  11.579
95681SOL     OW88939  10.216   1.118  11.992
95681SOL    HW188940  10.177   1.206  11.996
95681SOL    HW288941  10.307   1.131  12.018
95682SOL     OW88942  13.041   4.683   6.593
95682SOL    HW188943  12.983   4.684   6.517
95682SOL    HW288944  12.991   4.729   6.661
95683SOL     OW88945   1.989   4.783   7.562
95683SOL    HW188946   2.018   4.769   7.472
95683SOL    HW288947   2.023   4.707   7.610
95684SOL     OW88948  14.591   1.631  14.219
95684SOL    HW188949  14.629   1.666  14.138
95684SOL    HW288950  14.631   1.683  14.288
95685SOL     OW88951  12.077   6.831  13.242
95685SOL    HW188952  12.105   6.774  13.170
95685SOL    HW288953  12.018   6.777  13.294
95686SOL     OW88954   7.421  13.407   0.440
95686SOL    HW188955   7.335  13.419   0.481
95686SOL    HW288956   7.479  13.382   0.512
95687SOL     OW88957   6.444   7.954   8.923
95687SOL    HW188958   6.489   7.870   8.918
95687SOL    HW288959   6.513   8.018   8.940
95688SOL     OW88960  12.098   2.360   9.666
95688SOL    HW188961  12.090   2.419   9.591
95688SOL    HW288962  12.187   2.371   9.697
95689SOL     OW88963   4.241  12.931  11.789
95689SOL    HW188964   4.198  13.006  11.831
95689SOL    HW288965   4.171  12.889  11.739
95690SOL     OW88966  12.783   4.696   5.396
95690SOL    HW188967  12.720   4.764   5.374
95690SOL    HW288968  12.844   4.738   5.456
95691SOL     OW88969   7.780   5.739   9.465
95691SOL    HW188970   7.708   5.691   9.506
95691SOL    HW288971   7.854   5.678   9.466
95692SOL     OW88972  13.813   5.039   6.050
95692SOL    HW188973  13.905   5.066   6.048
95692SOL    HW288974  13.773   5.090   6.120
95693SOL     OW88975   9.114   1.128   0.111
95693SOL    HW188976   9.051   1.200   0.116
95693SOL    HW288977   9.132   1.118   0.018
95694SOL     OW88978   3.426  13.058  10.498
95694SOL    HW188979   3.479  13.107  10.436
95694SOL    HW288980   3.470  12.973  10.505
95695SOL     OW88981   7.213   3.844  13.539
95695SOL    HW188982   7.179   3.920  13.587
95695SOL    HW288983   7.140   3.781  13.539
95696SOL     OW88984   0.444  14.238   2.582
95696SOL    HW188985   0.356  14.272   2.601
95696SOL    HW288986   0.439  14.146   2.605
95697SOL     OW88987   7.495   0.880  14.545
95697SOL    HW188988   7.527   0.845  14.462
95697SOL    HW288989   7.574   0.895  14.597
95698SOL     OW88990   3.125  12.151  10.547
95698SOL    HW188991   3.164  12.110  10.625
95698SOL    HW288992   3.031  12.145  10.562
95699SOL     OW88993  13.363   7.050  13.437
95699SOL    HW188994  13.408   7.123  13.480
95699SOL    HW288995  13.300   7.091  13.378
95700SOL     OW88996   5.705   7.383   3.980
95700SOL    HW188997   5.677   7.425   3.899
95700SOL    HW288998   5.771   7.441   4.016
95701SOL     OW88999   0.921   5.874  14.027
95701SOL    HW189000   0.956   5.787  14.045
95701SOL    HW289001   0.936   5.923  14.109
95702SOL     OW89002   1.591  10.562  14.520
95702SOL    HW189003   1.530  10.526  14.584
95702SOL    HW289004   1.550  10.546  14.436
95703SOL     OW89005   5.504   6.749   5.512
95703SOL    HW189006   5.410   6.738   5.496
95703SOL    HW289007   5.521   6.841   5.491
95704SOL     OW89008   1.469   0.667  12.690
95704SOL    HW189009   1.558   0.633  12.683
95704SOL    HW289010   1.418   0.593  12.723
95705SOL     OW89011   3.477   3.749  10.987
95705SOL    HW189012   3.386   3.722  11.000
95705SOL    HW289013   3.477   3.843  11.005
95706SOL     OW89014  12.893   4.000  14.637
95706SOL    HW189015  12.809   4.030  14.602
95706SOL    HW289016  12.913   4.063  14.706
95707SOL     OW89017   6.127   7.476  11.835
95707SOL    HW189018   6.045   7.435  11.806
95707SOL    HW289019   6.100   7.561  11.870
95708SOL     OW89020  11.850   2.298  13.636
95708SOL    HW189021  11.893   2.227  13.683
95708SOL    HW289022  11.757   2.289  13.659
95709SOL     OW89023   7.817   6.944   2.691
95709SOL    HW189024   7.773   6.944   2.776
95709SOL    HW289025   7.762   7.000   2.636
95710SOL     OW89026  12.402   6.077   0.399
95710SOL    HW189027  12.337   6.006   0.401
95710SOL    HW289028  12.410   6.099   0.306
95711SOL     OW89029  10.525  12.528   8.286
95711SOL    HW189030  10.586  12.519   8.212
95711SOL    HW289031  10.461  12.593   8.257
95712SOL     OW89032  12.548   9.544  14.420
95712SOL    HW189033  12.536   9.576  14.330
95712SOL    HW289034  12.596   9.462  14.409
95713SOL     OW89035   5.504   2.372   9.130
95713SOL    HW189036   5.412   2.382   9.154
95713SOL    HW289037   5.512   2.417   9.046
95714SOL     OW89038   9.623  12.147  12.715
95714SOL    HW189039   9.632  12.088  12.790
95714SOL    HW289040   9.677  12.223  12.737
95715SOL     OW89041   7.906  11.445   1.513
95715SOL    HW189042   7.974  11.455   1.580
95715SOL    HW289043   7.885  11.352   1.513
95716SOL     OW89044   3.027   4.126  10.143
95716SOL    HW189045   2.974   4.192  10.097
95716SOL    HW289046   3.080   4.086  10.074
95717SOL     OW89047   9.088  11.151   4.800
95717SOL    HW189048   9.100  11.066   4.756
95717SOL    HW289049   9.136  11.213   4.746
95718SOL     OW89050   8.451  12.156  11.426
95718SOL    HW189051   8.391  12.199  11.365
95718SOL    HW289052   8.394  12.108  11.486
95719SOL     OW89053   3.545  11.031   5.064
95719SOL    HW189054   3.452  11.022   5.043
95719SOL    HW289055   3.566  10.954   5.115
95720SOL     OW89056  14.878  11.235   2.610
95720SOL    HW189057  14.811  11.247   2.542
95720SOL    HW289058  14.871  11.314   2.664
95721SOL     OW89059  14.797   5.220  14.685
95721SOL    HW189060  14.833   5.207  14.597
95721SOL    HW289061  14.710   5.258  14.670
95722SOL     OW89062   3.542  12.902   2.035
95722SOL    HW189063   3.552  12.998   2.040
95722SOL    HW289064   3.601  12.876   1.964
95723SOL     OW89065  11.901   0.077   6.956
95723SOL    HW189066  11.852   0.157   6.937
95723SOL    HW289067  11.868   0.048   7.041
95724SOL     OW89068   1.572  11.976   7.785
95724SOL    HW189069   1.642  11.911   7.776
95724SOL    HW289070   1.511  11.936   7.848
95725SOL     OW89071  11.244   1.560   3.710
95725SOL    HW189072  11.198   1.555   3.794
95725SOL    HW289073  11.279   1.649   3.707
95726SOL     OW89074   3.437   4.790  13.064
95726SOL    HW189075   3.366   4.842  13.027
95726SOL    HW289076   3.445   4.821  13.154
95727SOL     OW89077  14.711   1.475   7.182
95727SOL    HW189078  14.700   1.411   7.113
95727SOL    HW289079  14.758   1.548   7.141
95728SOL     OW89080   5.223   7.299   0.484
95728SOL    HW189081   5.156   7.328   0.422
95728SOL    HW289082   5.276   7.377   0.500
95729SOL     OW89083   9.330   6.250  12.560
95729SOL    HW189084   9.410   6.301  12.571
95729SOL    HW289085   9.354   6.161  12.585
95730SOL     OW89086   0.717   0.475   9.746
95730SOL    HW189087   0.662   0.509   9.817
95730SOL    HW289088   0.706   0.538   9.675
95731SOL     OW89089  14.828  10.680  11.500
95731SOL    HW189090  14.758  10.652  11.559
95731SOL    HW289091  14.799  10.765  11.467
95732SOL     OW89092   7.852   3.265  13.903
95732SOL    HW189093   7.852   3.358  13.880
95732SOL    HW289094   7.765   3.250  13.942
95733SOL     OW89095   3.014   9.264  14.357
95733SOL    HW189096   2.974   9.345  14.388
95733SOL    HW289097   2.967   9.244  14.275
95734SOL     OW89098   3.158   7.114   3.348
95734SOL    HW189099   3.172   7.208   3.341
95734SOL    HW289100   3.244   7.076   3.333
95735SOL     OW89101   7.785  11.623   3.782
95735SOL    HW189102   7.740  11.571   3.848
95735SOL    HW289103   7.849  11.563   3.743
95736SOL     OW89104   1.058   7.761  11.430
95736SOL    HW189105   1.118   7.703  11.384
95736SOL    HW289106   0.991   7.782  11.365
95737SOL     OW89107  12.492   9.845   5.871
95737SOL    HW189108  12.424   9.785   5.902
95737SOL    HW289109  12.508   9.818   5.780
95738SOL     OW89110   6.332   5.559   9.670
95738SOL    HW189111   6.307   5.524   9.755
95738SOL    HW289112   6.252   5.598   9.635
95739SOL     OW89113  14.622   0.268  12.164
95739SOL    HW189114  14.639   0.260  12.071
95739SOL    HW289115  14.707   0.253  12.206
95740SOL     OW89116   1.378   7.948   3.802
95740SOL    HW189117   1.303   7.889   3.794
95740SOL    HW289118   1.354   8.009   3.871
95741SOL     OW89119  12.323   9.333  10.975
95741SOL    HW189120  12.369   9.359  10.895
95741SOL    HW289121  12.285   9.248  10.954
95742SOL     OW89122  12.696   5.127  13.624
95742SOL    HW189123  12.738   5.054  13.578
95742SOL    HW289124  12.680   5.193  13.557
95743SOL     OW89125  14.065   3.888  12.032
95743SOL    HW189126  13.982   3.912  12.072
95743SOL    HW289127  14.123   3.867  12.106
95744SOL     OW89128   2.011  11.891   0.371
95744SOL    HW189129   2.071  11.853   0.436
95744SOL    HW289130   2.045  11.979   0.356
95745SOL     OW89131   9.898   4.150  12.145
95745SOL    HW189132   9.890   4.179  12.054
95745SOL    HW289133   9.993   4.144  12.160
95746SOL     OW89134   7.106   1.665   1.273
95746SOL    HW189135   7.031   1.669   1.332
95746SOL    HW289136   7.068   1.643   1.188
95747SOL     OW89137   6.326   9.474   1.841
95747SOL    HW189138   6.288   9.515   1.919
95747SOL    HW289139   6.397   9.533   1.815
95748SOL     OW89140   1.221   9.311  14.548
95748SOL    HW189141   1.148   9.290  14.605
95748SOL    HW289142   1.284   9.240  14.562
95749SOL     OW89143   9.439   4.497   2.290
95749SOL    HW189144   9.455   4.415   2.243
95749SOL    HW289145   9.459   4.475   2.382
95750SOL     OW89146   7.708   1.514   0.243
95750SOL    HW189147   7.701   1.604   0.213
95750SOL    HW289148   7.643   1.466   0.192
95751SOL     OW89149   1.081  14.369   3.681
95751SOL    HW189150   0.995  14.332   3.659
95751SOL    HW289151   1.093  14.441   3.619
95752SOL     OW89152  13.341   0.982   4.974
95752SOL    HW189153  13.279   0.942   4.913
95752SOL    HW289154  13.301   0.972   5.060
95753SOL     OW89155  10.452   4.208  13.364
95753SOL    HW189156  10.479   4.116  13.366
95753SOL    HW289157  10.360   4.207  13.392
95754SOL     OW89158  10.300  10.491   2.648
95754SOL    HW189159  10.236  10.420   2.652
95754SOL    HW289160  10.371  10.458   2.593
95755SOL     OW89161  13.173   3.742   5.384
95755SOL    HW189162  13.222   3.660   5.390
95755SOL    HW289163  13.100   3.729   5.445
95756SOL     OW89164   6.952   7.092   1.452
95756SOL    HW189165   6.936   7.078   1.545
95756SOL    HW289166   6.903   7.023   1.408
95757SOL     OW89167   7.339   1.065   2.518
95757SOL    HW189168   7.269   1.037   2.459
95757SOL    HW289169   7.399   0.990   2.521
95758SOL     OW89170   5.156  12.567   0.831
95758SOL    HW189171   5.250  12.549   0.840
95758SOL    HW289172   5.114  12.482   0.838
95759SOL     OW89173   9.550  12.789   9.679
95759SOL    HW189174   9.633  12.836   9.668
95759SOL    HW289175   9.544  12.732   9.602
95760SOL     OW89176   8.781   9.458  10.422
95760SOL    HW189177   8.773   9.364  10.410
95760SOL    HW289178   8.691   9.487  10.438
95761SOL     OW89179   9.736  11.194  13.764
95761SOL    HW189180   9.779  11.200  13.679
95761SOL    HW289181   9.730  11.285  13.794
95762SOL     OW89182   8.322   3.363   4.682
95762SOL    HW189183   8.270   3.399   4.610
95762SOL    HW289184   8.284   3.401   4.761
95763SOL     OW89185   4.144  14.163   5.357
95763SOL    HW189186   4.058  14.203   5.351
95763SOL    HW289187   4.205  14.237   5.358
95764SOL     OW89188   8.678   2.755  11.784
95764SOL    HW189189   8.709   2.809  11.711
95764SOL    HW289190   8.583   2.754  11.776
95765SOL     OW89191  14.001  10.094   6.160
95765SOL    HW189192  13.974  10.065   6.247
95765SOL    HW289193  13.920  10.100   6.111
95766SOL     OW89194   4.181  14.242   2.392
95766SOL    HW189195   4.087  14.231   2.380
95766SOL    HW289196   4.204  14.177   2.458
95767SOL     OW89197   9.873  13.178   3.489
95767SOL    HW189198   9.922  13.242   3.437
95767SOL    HW289199   9.781  13.194   3.467
95768SOL     OW89200   0.857  11.449  12.161
95768SOL    HW189201   0.937  11.474  12.206
95768SOL    HW289202   0.868  11.356  12.141
95769SOL     OW89203  11.307   6.933   4.622
95769SOL    HW189204  11.256   6.918   4.701
95769SOL    HW289205  11.272   7.014   4.585
95770SOL     OW89206   5.086  10.100  13.662
95770SOL    HW189207   5.018  10.159  13.630
95770SOL    HW289208   5.141  10.155  13.718
95771SOL     OW89209   1.912   9.392   7.031
95771SOL    HW189210   1.856   9.463   7.060
95771SOL    HW289211   1.852   9.326   6.996
95772SOL     OW89212  13.421  14.355   6.054
95772SOL    HW189213  13.331  14.381   6.035
95772SOL    HW289214  13.427  14.265   6.021
95773SOL     OW89215   0.074   7.394  12.896
95773SOL    HW189216   0.106   7.315  12.852
95773SOL    HW289217   0.038   7.363  12.978
95774SOL     OW89218  12.841  12.705   1.651
95774SOL    HW189219  12.901  12.686   1.723
95774SOL    HW289220  12.769  12.754   1.691
95775SOL     OW89221   0.971  11.734  13.796
95775SOL    HW189222   0.987  11.773  13.881
95775SOL    HW289223   1.027  11.783  13.736
95776SOL     OW89224   6.391   8.149  13.110
95776SOL    HW189225   6.323   8.211  13.084
95776SOL    HW289226   6.366   8.122  13.198
95777SOL     OW89227  13.019   8.274   3.680
95777SOL    HW189228  13.001   8.309   3.592
95777SOL    HW289229  13.113   8.285   3.692
95778SOL     OW89230   0.640  13.533   3.869
95778SOL    HW189231   0.623  13.441   3.889
95778SOL    HW289232   0.649  13.575   3.955
95779SOL     OW89233   0.365   8.365  12.611
95779SOL    HW189234   0.315   8.311  12.550
95779SOL    HW289235   0.298   8.410  12.663
95780SOL     OW89236   8.312   8.543   2.456
95780SOL    HW189237   8.285   8.530   2.547
95780SOL    HW289238   8.260   8.617   2.426
95781SOL     OW89239  13.754   6.300   6.200
95781SOL    HW189240  13.801   6.306   6.117
95781SOL    HW289241  13.756   6.389   6.235
95782SOL     OW89242  13.059   2.318  10.503
95782SOL    HW189243  13.009   2.259  10.446
95782SOL    HW289244  13.110   2.371  10.442
95783SOL     OW89245   2.099   7.427  13.277
95783SOL    HW189246   2.051   7.485  13.336
95783SOL    HW289247   2.176   7.477  13.252
95784SOL     OW89248  14.246   8.427   8.779
95784SOL    HW189249  14.152   8.412   8.793
95784SOL    HW289250  14.278   8.346   8.741
95785SOL     OW89251  10.938   7.136  14.306
95785SOL    HW189252  10.885   7.214  14.289
95785SOL    HW289253  11.028   7.170  14.312
95786SOL     OW89254   2.737  12.628  10.101
95786SOL    HW189255   2.715  12.722  10.101
95786SOL    HW289256   2.716  12.598  10.013
95787SOL     OW89257  12.279   6.324   4.698
95787SOL    HW189258  12.360   6.274   4.688
95787SOL    HW289259  12.210   6.264   4.672
95788SOL     OW89260  11.290   0.088   3.980
95788SOL    HW189261  11.197   0.112   3.976
95788SOL    HW289262  11.314   0.069   3.890
95789SOL     OW89263   4.776  13.254   6.905
95789SOL    HW189264   4.743  13.187   6.964
95789SOL    HW289265   4.852  13.214   6.863
95790SOL     OW89266   7.397   6.949   0.843
95790SOL    HW189267   7.430   7.006   0.773
95790SOL    HW289268   7.428   6.862   0.819
95791SOL     OW89269   5.715   6.633   5.113
95791SOL    HW189270   5.651   6.686   5.064
95791SOL    HW289271   5.750   6.572   5.049
95792SOL     OW89272  13.789   4.962   5.137
95792SOL    HW189273  13.837   5.012   5.203
95792SOL    HW289274  13.708   4.936   5.180
95793SOL     OW89275   1.480   6.483   1.356
95793SOL    HW189276   1.389   6.509   1.336
95793SOL    HW289277   1.487   6.394   1.323
95794SOL     OW89278   1.722   3.282   9.538
95794SOL    HW189279   1.696   3.204   9.489
95794SOL    HW289280   1.687   3.355   9.487
95795SOL     OW89281   0.351   4.842   8.053
95795SOL    HW189282   0.413   4.914   8.046
95795SOL    HW289283   0.396   4.767   8.015
95796SOL     OW89284  10.237  11.689   6.568
95796SOL    HW189285  10.228  11.783   6.551
95796SOL    HW289286  10.148  11.660   6.591
95797SOL     OW89287  11.257   0.062   6.643
95797SOL    HW189288  11.337   0.026   6.683
95797SOL    HW289289  11.186   0.027   6.698
95798SOL     OW89290  13.985   9.492   5.205
95798SOL    HW189291  13.961   9.401   5.221
95798SOL    HW289292  13.903   9.535   5.181
95799SOL     OW89293   7.562   8.911   6.334
95799SOL    HW189294   7.587   8.951   6.250
95799SOL    HW289295   7.487   8.856   6.313
95800SOL     OW89296  11.618  11.183   4.783
95800SOL    HW189297  11.596  11.116   4.719
95800SOL    HW289298  11.548  11.178   4.848
95801SOL     OW89299   9.250   1.333   4.245
95801SOL    HW189300   9.206   1.410   4.282
95801SOL    HW289301   9.216   1.259   4.294
95802SOL     OW89302   8.533  11.490   5.149
95802SOL    HW189303   8.596  11.532   5.208
95802SOL    HW289304   8.512  11.408   5.192
95803SOL     OW89305   2.696   8.370  10.898
95803SOL    HW189306   2.760   8.322  10.950
95803SOL    HW289307   2.680   8.450  10.948
95804SOL     OW89308   7.658   1.373   2.963
95804SOL    HW189309   7.735   1.428   2.975
95804SOL    HW289310   7.586   1.434   2.948
95805SOL     OW89311  14.388   9.659   6.368
95805SOL    HW189312  14.456   9.591   6.369
95805SOL    HW289313  14.326   9.631   6.436
95806SOL     OW89314  11.531   4.198   3.721
95806SOL    HW189315  11.572   4.236   3.643
95806SOL    HW289316  11.470   4.266   3.751
95807SOL     OW89317   0.050   1.760   1.685
95807SOL    HW189318   0.070   1.669   1.668
95807SOL    HW289319  14.861   1.758   1.750
95808SOL     OW89320   1.226   4.641   2.279
95808SOL    HW189321   1.313   4.681   2.284
95808SOL    HW289322   1.242   4.547   2.285
95809SOL     OW89323   7.693   4.172   9.918
95809SOL    HW189324   7.629   4.216   9.973
95809SOL    HW289325   7.733   4.107   9.976
95810SOL     OW89326  13.068  10.118  14.693
95810SOL    HW189327  13.139  10.080  14.642
95810SOL    HW289328  13.106  10.198  14.729
95811SOL     OW89329  10.868  12.223  13.956
95811SOL    HW189330  10.865  12.162  14.030
95811SOL    HW289331  10.951  12.270  13.966
95812SOL     OW89332   9.583   7.244   2.974
95812SOL    HW189333   9.533   7.324   2.993
95812SOL    HW289334   9.656   7.274   2.919
95813SOL     OW89335   3.565  12.863   9.994
95813SOL    HW189336   3.471  12.879   9.990
95813SOL    HW289337   3.602  12.942  10.033
95814SOL     OW89338   3.894  14.703   8.026
95814SOL    HW189339   3.839  14.716   8.103
95814SOL    HW289340   3.925  14.791   8.003
95815SOL     OW89341   8.040   3.417  10.322
95815SOL    HW189342   8.119   3.430  10.269
95815SOL    HW289343   7.995   3.502  10.318
95816SOL     OW89344  10.925   9.259   6.913
95816SOL    HW189345  10.838   9.266   6.872
95816SOL    HW289346  10.909   9.281   7.005
95817SOL     OW89347   5.811  12.869  13.745
95817SOL    HW189348   5.894  12.871  13.698
95817SOL    HW289349   5.815  12.944  13.804
95818SOL     OW89350  12.493   0.333   9.160
95818SOL    HW189351  12.521   0.242   9.154
95818SOL    HW289352  12.492   0.364   9.070
95819SOL     OW89353   0.347   3.963   7.038
95819SOL    HW189354   0.358   3.988   6.946
95819SOL    HW289355   0.419   3.902   7.055
95820SOL     OW89356   5.269   0.067   7.613
95820SOL    HW189357   5.327   0.037   7.684
95820SOL    HW289358   5.183   0.036   7.639
95821SOL     OW89359   3.853   8.155   0.140
95821SOL    HW189360   3.760   8.181   0.142
95821SOL    HW289361   3.893   8.214   0.077
95822SOL     OW89362  14.668   0.473  14.365
95822SOL    HW189363  14.721   0.551  14.381
95822SOL    HW289364  14.714   0.427  14.294
95823SOL     OW89365   2.773  10.903   9.198
95823SOL    HW189366   2.716  10.904   9.121
95823SOL    HW289367   2.814  10.816   9.197
95824SOL     OW89368  11.052   1.045   3.228
95824SOL    HW189369  10.967   1.087   3.230
95824SOL    HW289370  11.041   0.965   3.281
95825SOL     OW89371   7.677   2.720   3.117
95825SOL    HW189372   7.726   2.791   3.074
95825SOL    HW289373   7.595   2.761   3.144
95826SOL     OW89374   0.337  11.419   2.049
95826SOL    HW189375   0.375  11.345   2.001
95826SOL    HW289376   0.261  11.381   2.094
95827SOL     OW89377   6.696   4.114   1.839
95827SOL    HW189378   6.682   4.177   1.909
95827SOL    HW289379   6.737   4.165   1.769
95828SOL     OW89380  14.369  12.293   8.741
95828SOL    HW189381  14.450  12.245   8.727
95828SOL    HW289382  14.317  12.238   8.799
95829SOL     OW89383  10.879   1.726   6.955
95829SOL    HW189384  10.949   1.787   6.934
95829SOL    HW289385  10.870   1.671   6.877
95830SOL     OW89386   9.120   0.731  10.921
95830SOL    HW189387   9.171   0.812  10.926
95830SOL    HW289388   9.150   0.689  10.841
95831SOL     OW89389   5.210   8.799   0.322
95831SOL    HW189390   5.120   8.774   0.344
95831SOL    HW289391   5.257   8.794   0.405
95832SOL     OW89392   9.149  14.714   7.174
95832SOL    HW189393   9.166  14.800   7.137
95832SOL    HW289394   9.081  14.730   7.240
95833SOL     OW89395   4.877   6.149   1.132
95833SOL    HW189396   4.832   6.173   1.051
95833SOL    HW289397   4.917   6.064   1.113
95834SOL     OW89398   2.917   1.724   8.875
95834SOL    HW189399   2.937   1.725   8.969
95834SOL    HW289400   2.822   1.726   8.871
95835SOL     OW89401  11.680   9.488  12.395
95835SOL    HW189402  11.770   9.463  12.376
95835SOL    HW289403  11.683   9.583  12.407
95836SOL     OW89404  10.377   4.158  11.105
95836SOL    HW189405  10.375   4.063  11.117
95836SOL    HW289406  10.314   4.191  11.170
95837SOL     OW89407   2.112   0.508  14.397
95837SOL    HW189408   2.192   0.491  14.348
95837SOL    HW289409   2.041   0.474  14.342
95838SOL     OW89410   7.662  11.763  12.405
95838SOL    HW189411   7.742  11.788  12.452
95838SOL    HW289412   7.601  11.834  12.424
95839SOL     OW89413   2.688  12.208   0.389
95839SOL    HW189414   2.761  12.175   0.335
95839SOL    HW289415   2.641  12.129   0.415
95840SOL     OW89416   1.056   1.743  14.426
95840SOL    HW189417   0.984   1.703  14.476
95840SOL    HW289418   1.024   1.830  14.402
95841SOL     OW89419  11.695   1.102   2.168
95841SOL    HW189420  11.764   1.051   2.211
95841SOL    HW289421  11.677   1.055   2.087
95842SOL     OW89422   3.945   4.698   6.743
95842SOL    HW189423   3.877   4.670   6.681
95842SOL    HW289424   4.010   4.743   6.690
95843SOL     OW89425   0.856  10.528   6.854
95843SOL    HW189426   0.935  10.549   6.903
95843SOL    HW289427   0.793  10.596   6.879
95844SOL     OW89428  12.060   4.801   4.791
95844SOL    HW189429  12.117   4.775   4.719
95844SOL    HW289430  11.973   4.773   4.763
95845SOL     OW89431   9.592   2.141   5.596
95845SOL    HW189432   9.534   2.067   5.611
95845SOL    HW289433   9.563   2.178   5.513
95846SOL     OW89434   4.433   7.917   5.860
95846SOL    HW189435   4.505   7.878   5.811
95846SOL    HW289436   4.379   7.961   5.795
95847SOL     OW89437  13.771   1.620   1.946
95847SOL    HW189438  13.799   1.528   1.949
95847SOL    HW289439  13.819   1.662   2.017
95848SOL     OW89440   1.253  14.360  10.447
95848SOL    HW189441   1.278  14.378  10.537
95848SOL    HW289442   1.181  14.297  10.453
95849SOL     OW89443   1.028  13.271  13.199
95849SOL    HW189444   1.029  13.364  13.223
95849SOL    HW289445   1.096  13.263  13.132
95850SOL     OW89446   2.598   1.559   1.566
95850SOL    HW189447   2.678   1.509   1.584
95850SOL    HW289448   2.626   1.631   1.511
95851SOL     OW89449  13.064  11.882   4.169
95851SOL    HW189450  13.081  11.797   4.210
95851SOL    HW289451  13.132  11.891   4.102
95852SOL     OW89452   5.130   4.406  11.560
95852SOL    HW189453   5.173   4.490  11.573
95852SOL    HW289454   5.076   4.418  11.482
95853SOL     OW89455  10.411  14.799   3.400
95853SOL    HW189456  10.376   0.006   3.394
95853SOL    HW289457  10.346  14.751   3.452
95854SOL     OW89458   4.534   2.778  11.365
95854SOL    HW189459   4.469   2.729  11.415
95854SOL    HW289460   4.499   2.781  11.276
95855SOL     OW89461   0.478   1.358   5.515
95855SOL    HW189462   0.418   1.340   5.442
95855SOL    HW289463   0.433   1.425   5.567
95856SOL     OW89464   5.294  12.254   4.150
95856SOL    HW189465   5.345  12.286   4.224
95856SOL    HW289466   5.314  12.161   4.145
95857SOL     OW89467  13.145   8.312   6.679
95857SOL    HW189468  13.165   8.275   6.765
95857SOL    HW289469  13.218   8.371   6.661
95858SOL     OW89470  12.616  12.635   0.782
95858SOL    HW189471  12.651  12.639   0.693
95858SOL    HW289472  12.548  12.703   0.784
95859SOL     OW89473   6.933   2.523   6.999
95859SOL    HW189474   6.957   2.431   7.011
95859SOL    HW289475   6.960   2.566   7.081
95860SOL     OW89476   4.776   0.831  13.674
95860SOL    HW189477   4.866   0.799  13.680
95860SOL    HW289478   4.786   0.925  13.655
95861SOL     OW89479  11.620   5.651  13.422
95861SOL    HW189480  11.588   5.615  13.505
95861SOL    HW289481  11.584   5.592  13.355
95862SOL     OW89482   0.665   7.623  12.302
95862SOL    HW189483   0.634   7.711  12.278
95862SOL    HW289484   0.715   7.636  12.382
95863SOL     OW89485   4.941  13.408  13.975
95863SOL    HW189486   4.967  13.384  14.064
95863SOL    HW289487   4.845  13.409  13.978
95864SOL     OW89488   2.673  12.505   9.872
95864SOL    HW189489   2.669  12.591   9.828
95864SOL    HW289490   2.757  12.468   9.845
95865SOL     OW89491  14.304  13.568   1.202
95865SOL    HW189492  14.214  13.536   1.205
95865SOL    HW289493  14.354  13.494   1.167
95866SOL     OW89494   2.330  12.861  13.581
95866SOL    HW189495   2.341  12.949  13.547
95866SOL    HW289496   2.295  12.810  13.508
95867SOL     OW89497  12.567   7.662  13.420
95867SOL    HW189498  12.617   7.580  13.413
95867SOL    HW289499  12.475   7.634  13.420
95868SOL     OW89500  10.173  14.149   5.496
95868SOL    HW189501  10.117  14.224   5.475
95868SOL    HW289502  10.241  14.185   5.553
95869SOL     OW89503   7.849  10.002  10.062
95869SOL    HW189504   7.805   9.938  10.006
95869SOL    HW289505   7.846   9.963  10.150
95870SOL     OW89506   6.874   1.230   2.691
95870SOL    HW189507   6.899   1.196   2.777
95870SOL    HW289508   6.835   1.316   2.709
95871SOL     OW89509  10.740   5.040  11.628
95871SOL    HW189510  10.657   4.994  11.640
95871SOL    HW289511  10.728   5.124  11.673
95872SOL     OW89512  14.726  10.956   4.086
95872SOL    HW189513  14.696  11.028   4.141
95872SOL    HW289514  14.821  10.962   4.088
95873SOL     OW89515   4.188   5.929  14.262
95873SOL    HW189516   4.233   6.002  14.304
95873SOL    HW289517   4.198   5.856  14.325
95874SOL     OW89518   3.315   9.848   0.581
95874SOL    HW189519   3.292   9.860   0.673
95874SOL    HW289520   3.309   9.753   0.567
95875SOL     OW89521  11.111  14.540  13.453
95875SOL    HW189522  11.042  14.605  13.469
95875SOL    HW289523  11.080  14.489  13.379
95876SOL     OW89524  11.615   5.202  12.645
95876SOL    HW189525  11.631   5.116  12.604
95876SOL    HW289526  11.690   5.215  12.702
95877SOL     OW89527   9.966   9.380   9.680
95877SOL    HW189528  10.043   9.337   9.642
95877SOL    HW289529   9.914   9.308   9.717
95878SOL     OW89530   8.361   5.834  11.203
95878SOL    HW189531   8.439   5.838  11.257
95878SOL    HW289532   8.328   5.924  11.201
95879SOL     OW89533  10.280   5.462  11.817
95879SOL    HW189534  10.265   5.404  11.743
95879SOL    HW289535  10.270   5.550  11.782
95880SOL     OW89536   5.171   9.450   7.804
95880SOL    HW189537   5.119   9.522   7.768
95880SOL    HW289538   5.113   9.374   7.800
95881SOL     OW89539   2.294   8.126  10.605
95881SOL    HW189540   2.226   8.142  10.670
95881SOL    HW289541   2.376   8.133  10.654
95882SOL     OW89542  10.110   4.959  11.939
95882SOL    HW189543  10.099   5.017  11.864
95882SOL    HW289544  10.203   4.938  11.939
95883SOL     OW89545  13.801   4.506  14.247
95883SOL    HW189546  13.896   4.504  14.244
95883SOL    HW289547  13.779   4.488  14.338
95884SOL     OW89548   5.509   4.072   8.166
95884SOL    HW189549   5.567   4.071   8.242
95884SOL    HW289550   5.463   3.988   8.169
95885SOL     OW89551   9.518   4.718   9.704
95885SOL    HW189552   9.499   4.628   9.677
95885SOL    HW289553   9.501   4.719   9.798
95886SOL     OW89554  13.272   2.858   1.064
95886SOL    HW189555  13.262   2.933   1.123
95886SOL    HW289556  13.202   2.868   1.000
95887SOL     OW89557   7.413   7.010  14.030
95887SOL    HW189558   7.339   7.001  14.090
95887SOL    HW289559   7.475   6.943  14.057
95888SOL     OW89560   7.651  11.856   4.712
95888SOL    HW189561   7.555  11.853   4.708
95888SOL    HW289562   7.670  11.923   4.777
95889SOL     OW89563  13.710   8.984   2.183
95889SOL    HW189564  13.689   9.066   2.138
95889SOL    HW289565  13.722   8.921   2.113
95890SOL     OW89566   4.969  13.800   3.890
95890SOL    HW189567   5.006  13.728   3.941
95890SOL    HW289568   4.874  13.787   3.896
95891SOL     OW89569  13.494  11.594  10.242
95891SOL    HW189570  13.469  11.514  10.289
95891SOL    HW289571  13.588  11.603  10.259
95892SOL     OW89572   2.572  10.095   7.015
95892SOL    HW189573   2.535  10.178   7.044
95892SOL    HW289574   2.530  10.079   6.930
95893SOL     OW89575   1.206   9.361   0.871
95893SOL    HW189576   1.168   9.324   0.791
95893SOL    HW289577   1.130   9.390   0.922
95894SOL     OW89578  14.366   4.054  12.063
95894SOL    HW189579  14.400   4.020  11.980
95894SOL    HW289580  14.337   3.977  12.111
95895SOL     OW89581  13.647   6.294   2.831
95895SOL    HW189582  13.603   6.290   2.746
95895SOL    HW289583  13.578   6.272   2.894
95896SOL     OW89584  12.592   3.534   4.633
95896SOL    HW189585  12.564   3.611   4.584
95896SOL    HW289586  12.672   3.562   4.678
95897SOL     OW89587  12.289   4.300   3.911
95897SOL    HW189588  12.238   4.315   3.831
95897SOL    HW289589  12.236   4.239   3.962
95898SOL     OW89590   9.681   7.730  11.429
95898SOL    HW189591   9.753   7.792  11.439
95898SOL    HW289592   9.723   7.644  11.429
95899SOL     OW89593   3.480   0.534   0.844
95899SOL    HW189594   3.406   0.504   0.897
95899SOL    HW289595   3.441   0.592   0.779
95900SOL     OW89596   0.961   6.585   4.965
95900SOL    HW189597   1.045   6.540   4.959
95900SOL    HW289598   0.956   6.638   4.885
95901SOL     OW89599   2.027  11.413  13.473
95901SOL    HW189600   2.060  11.404  13.563
95901SOL    HW289601   2.095  11.461  13.426
95902SOL     OW89602  11.568  12.861   9.331
95902SOL    HW189603  11.510  12.937   9.326
95902SOL    HW289604  11.569  12.825   9.243
95903SOL     OW89605   4.875   7.941   8.826
95903SOL    HW189606   4.957   7.929   8.780
95903SOL    HW289607   4.879   8.030   8.861
95904SOL     OW89608   6.343   9.039   1.503
95904SOL    HW189609   6.271   8.976   1.511
95904SOL    HW289610   6.316   9.114   1.555
95905SOL     OW89611   0.378   1.509   1.522
95905SOL    HW189612   0.459   1.506   1.573
95905SOL    HW289613   0.337   1.592   1.547
95906SOL     OW89614   7.651   1.167  13.330
95906SOL    HW189615   7.615   1.243  13.283
95906SOL    HW289616   7.620   1.177  13.420
95907SOL     OW89617  12.979   7.723   0.068
95907SOL    HW189618  12.980   7.815   0.041
95907SOL    HW289619  13.061   7.686   0.033
95908SOL     OW89620  13.205   4.889  11.510
95908SOL    HW189621  13.268   4.821  11.533
95908SOL    HW289622  13.211   4.897  11.415
95909SOL     OW89623  12.681  10.054   8.316
95909SOL    HW189624  12.679  10.087   8.406
95909SOL    HW289625  12.773  10.063   8.290
95910SOL     OW89626   9.116   1.126  10.256
95910SOL    HW189627   9.201   1.152  10.221
95910SOL    HW289628   9.129   1.123  10.351
95911SOL     OW89629   4.566   5.420   5.147
95911SOL    HW189630   4.493   5.422   5.209
95911SOL    HW289631   4.537   5.475   5.074
95912SOL     OW89632  13.673   3.143   6.732
95912SOL    HW189633  13.736   3.165   6.664
95912SOL    HW289634  13.588   3.172   6.697
95913SOL     OW89635   7.700   6.989   7.182
95913SOL    HW189636   7.668   6.903   7.210
95913SOL    HW289637   7.729   7.031   7.263
95914SOL     OW89638  14.100  10.675   4.618
95914SOL    HW189639  14.097  10.584   4.589
95914SOL    HW289640  14.129  10.724   4.542
95915SOL     OW89641   5.623   9.414  11.121
95915SOL    HW189642   5.678   9.404  11.199
95915SOL    HW289643   5.535   9.431  11.157
95916SOL     OW89644  13.933   3.710   6.648
95916SOL    HW189645  13.942   3.780   6.584
95916SOL    HW289646  14.019   3.702   6.687
95917SOL     OW89647  13.037  10.300  13.829
95917SOL    HW189648  13.075  10.371  13.777
95917SOL    HW289649  13.089  10.300  13.909
95918SOL     OW89650  14.119   1.453   1.645
95918SOL    HW189651  14.108   1.537   1.600
95918SOL    HW289652  14.030   1.421   1.658
95919SOL     OW89653   6.002  12.651   5.822
95919SOL    HW189654   6.029  12.567   5.859
95919SOL    HW289655   6.083  12.690   5.788
95920SOL     OW89656   4.190   0.310   3.618
95920SOL    HW189657   4.097   0.322   3.636
95920SOL    HW289658   4.207   0.218   3.639
95921SOL     OW89659  13.826   4.207  10.049
95921SOL    HW189660  13.795   4.202  10.140
95921SOL    HW289661  13.830   4.301  10.030
95922SOL     OW89662  14.689  10.474  12.003
95922SOL    HW189663  14.769  10.507  12.045
95922SOL    HW289664  14.623  10.540  12.022
95923SOL     OW89665  13.805   2.563  11.584
95923SOL    HW189666  13.748   2.489  11.565
95923SOL    HW289667  13.772   2.634  11.529
95924SOL     OW89668   7.634  13.314   7.288
95924SOL    HW189669   7.579  13.300   7.365
95924SOL    HW289670   7.581  13.283   7.215
95925SOL     OW89671  10.865   6.742   3.038
95925SOL    HW189672  10.771   6.753   3.050
95925SOL    HW289673  10.903   6.825   3.067
95926SOL     OW89674  13.117   1.270   5.549
95926SOL    HW189675  13.063   1.219   5.488
95926SOL    HW289676  13.139   1.349   5.501
95927SOL     OW89677  11.565  12.888   8.006
95927SOL    HW189678  11.569  12.983   8.000
95927SOL    HW289679  11.477  12.869   8.040
95928SOL     OW89680   2.357  11.803   0.776
95928SOL    HW189681   2.342  11.897   0.780
95928SOL    HW289682   2.452  11.794   0.767
95929SOL     OW89683   0.661   4.874   3.783
95929SOL    HW189684   0.588   4.899   3.840
95929SOL    HW289685   0.683   4.785   3.811
95930SOL     OW89686  12.373   1.691   2.274
95930SOL    HW189687  12.347   1.688   2.366
95930SOL    HW289688  12.425   1.612   2.261
95931SOL     OW89689  11.052   3.443   0.959
95931SOL    HW189690  11.022   3.365   0.911
95931SOL    HW289691  11.084   3.502   0.891
95932SOL     OW89692   2.902   7.768   3.772
95932SOL    HW189693   2.962   7.730   3.707
95932SOL    HW289694   2.897   7.861   3.749
95933SOL     OW89695   4.289   6.633   2.850
95933SOL    HW189696   4.256   6.578   2.779
95933SOL    HW289697   4.381   6.608   2.859
95934SOL     OW89698   4.473   2.495   9.777
95934SOL    HW189699   4.516   2.429   9.723
95934SOL    HW289700   4.414   2.540   9.717
95935SOL     OW89701   8.531   4.059  11.426
95935SOL    HW189702   8.524   4.144  11.382
95935SOL    HW289703   8.624   4.052  11.449
95936SOL     OW89704   5.711   6.490   2.612
95936SOL    HW189705   5.784   6.544   2.644
95936SOL    HW289706   5.633   6.542   2.634
95937SOL     OW89707   6.681   7.929   8.124
95937SOL    HW189708   6.726   7.897   8.046
95937SOL    HW289709   6.614   7.862   8.141
95938SOL     OW89710   8.490   5.699   8.930
95938SOL    HW189711   8.467   5.626   8.872
95938SOL    HW289712   8.566   5.667   8.979
95939SOL     OW89713   9.050  14.302   4.567
95939SOL    HW189714   9.049  14.281   4.661
95939SOL    HW289715   9.002  14.231   4.525
95940SOL     OW89716  12.950   2.766   5.950
95940SOL    HW189717  13.036   2.731   5.973
95940SOL    HW289718  12.888   2.697   5.973
95941SOL     OW89719   7.634   6.469  10.144
95941SOL    HW189720   7.634   6.442  10.053
95941SOL    HW289721   7.722   6.503  10.159
95942SOL     OW89722  13.084  11.699   1.850
95942SOL    HW189723  13.106  11.770   1.910
95942SOL    HW289724  12.996  11.720   1.818
95943SOL     OW89725   5.529  10.681   2.664
95943SOL    HW189726   5.472  10.623   2.715
95943SOL    HW289727   5.572  10.735   2.729
95944SOL     OW89728  10.809   8.912   6.775
95944SOL    HW189729  10.852   8.916   6.860
95944SOL    HW289730  10.717   8.898   6.795
95945SOL     OW89731   7.647   1.613  13.625
95945SOL    HW189732   7.709   1.658  13.682
95945SOL    HW289733   7.605   1.684  13.576
95946SOL     OW89734   2.046   1.845   4.224
95946SOL    HW189735   2.086   1.879   4.144
95946SOL    HW289736   2.056   1.916   4.288
95947SOL     OW89737   2.005   3.600   4.741
95947SOL    HW189738   2.052   3.676   4.706
95947SOL    HW289739   2.048   3.581   4.824
95948SOL     OW89740  12.498  13.246   9.247
95948SOL    HW189741  12.466  13.329   9.211
95948SOL    HW289742  12.575  13.270   9.298
95949SOL     OW89743  10.807   4.854   9.204
95949SOL    HW189744  10.880   4.887   9.256
95949SOL    HW289745  10.807   4.759   9.220
95950SOL     OW89746  12.892   2.597   2.984
95950SOL    HW189747  12.810   2.548   2.995
95950SOL    HW289748  12.874   2.659   2.913
95951SOL     OW89749   5.725   5.106   2.271
95951SOL    HW189750   5.738   5.050   2.194
95951SOL    HW289751   5.632   5.097   2.292
95952SOL     OW89752   1.251  14.098   8.328
95952SOL    HW189753   1.214  14.023   8.283
95952SOL    HW289754   1.186  14.167   8.318
95953SOL     OW89755   2.680   0.958   8.106
95953SOL    HW189756   2.659   1.015   8.180
95953SOL    HW289757   2.759   0.912   8.133
95954SOL     OW89758  14.724   2.996   0.322
95954SOL    HW189759  14.761   2.930   0.263
95954SOL    HW289760  14.630   2.982   0.318
95955SOL     OW89761   1.325   1.646   9.566
95955SOL    HW189762   1.229   1.649   9.567
95955SOL    HW289763   1.347   1.579   9.630
95956SOL     OW89764   0.150   7.618  12.003
95956SOL    HW189765   0.145   7.614  12.098
95956SOL    HW289766   0.059   7.611  11.974
95957SOL     OW89767   1.230   2.744   8.835
95957SOL    HW189768   1.252   2.709   8.922
95957SOL    HW289769   1.274   2.685   8.774
95958SOL     OW89770  12.890  13.059   9.604
95958SOL    HW189771  12.860  13.142   9.643
95958SOL    HW289772  12.937  13.016   9.675
95959SOL     OW89773   9.498  13.339  12.701
95959SOL    HW189774   9.519  13.269  12.639
95959SOL    HW289775   9.411  13.317  12.734
95960SOL     OW89776  11.185   9.988   4.127
95960SOL    HW189777  11.123   9.916   4.116
95960SOL    HW289778  11.218   9.978   4.216
95961SOL     OW89779   2.779  13.378   4.620
95961SOL    HW189780   2.708  13.419   4.669
95961SOL    HW289781   2.735  13.322   4.556
95962SOL     OW89782   0.640  13.329   6.319
95962SOL    HW189783   0.711  13.359   6.376
95962SOL    HW289784   0.636  13.234   6.334
95963SOL     OW89785   0.149  10.668   1.930
95963SOL    HW189786   0.142  10.573   1.936
95963SOL    HW289787   0.237  10.684   1.897
95964SOL     OW89788  14.134   0.659  13.474
95964SOL    HW189789  14.201   0.643  13.540
95964SOL    HW289790  14.167   0.733  13.423
95965SOL     OW89791   8.315   8.237   5.159
95965SOL    HW189792   8.340   8.324   5.188
95965SOL    HW289793   8.385   8.180   5.190
95966SOL     OW89794   0.837   5.812   3.868
95966SOL    HW189795   0.764   5.797   3.807
95966SOL    HW289796   0.800   5.793   3.954
95967SOL     OW89797  13.097  10.112   2.413
95967SOL    HW189798  13.017  10.164   2.407
95967SOL    HW289799  13.158  10.153   2.351
95968SOL     OW89800   8.784   1.588   0.113
95968SOL    HW189801   8.794   1.652   0.183
95968SOL    HW289802   8.733   1.633   0.046
95969SOL     OW89803   9.438   7.670   1.919
95969SOL    HW189804   9.367   7.730   1.945
95969SOL    HW289805   9.435   7.670   1.823
95970SOL     OW89806  10.597   2.062  12.908
95970SOL    HW189807  10.553   2.109  12.838
95970SOL    HW289808  10.658   2.003  12.864
95971SOL     OW89809   9.372  10.544  11.058
95971SOL    HW189810   9.288  10.514  11.092
95971SOL    HW289811   9.407  10.469  11.011
95972SOL     OW89812   7.804   3.761   8.653
95972SOL    HW189813   7.873   3.757   8.585
95972SOL    HW289814   7.724   3.782   8.604
95973SOL     OW89815  12.266  12.812  12.428
95973SOL    HW189816  12.345  12.777  12.469
95973SOL    HW289817  12.233  12.739  12.375
95974SOL     OW89818  10.363  11.696   2.167
95974SOL    HW189819  10.353  11.791   2.162
95974SOL    HW289820  10.395  11.670   2.080
95975SOL     OW89821  14.157  13.946   5.102
95975SOL    HW189822  14.178  13.926   5.011
95975SOL    HW289823  14.201  14.030   5.119
95976SOL     OW89824   2.336   6.540   2.076
95976SOL    HW189825   2.354   6.612   2.136
95976SOL    HW289826   2.256   6.499   2.110
95977SOL     OW89827   9.449   7.725   3.654
95977SOL    HW189828   9.434   7.786   3.582
95977SOL    HW289829   9.496   7.777   3.720
95978SOL     OW89830   5.411   2.308  12.158
95978SOL    HW189831   5.422   2.220  12.122
95978SOL    HW289832   5.380   2.360  12.084
95979SOL     OW89833   1.079  10.658   2.104
95979SOL    HW189834   1.139  10.644   2.177
95979SOL    HW289835   1.135  10.685   2.032
95980SOL     OW89836   8.278  12.787   4.401
95980SOL    HW189837   8.338  12.845   4.448
95980SOL    HW289838   8.330  12.709   4.382
95981SOL     OW89839   6.627   4.148   5.183
95981SOL    HW189840   6.684   4.113   5.251
95981SOL    HW289841   6.540   4.115   5.204
95982SOL     OW89842  14.215  14.057   2.513
95982SOL    HW189843  14.217  14.129   2.450
95982SOL    HW289844  14.233  13.979   2.461
95983SOL     OW89845   5.767   0.470  12.905
95983SOL    HW189846   5.800   0.495  12.992
95983SOL    HW289847   5.836   0.414  12.869
95984SOL     OW89848   7.821  13.951  10.154
95984SOL    HW189849   7.856  13.945  10.243
95984SOL    HW289850   7.880  13.896  10.102
95985SOL     OW89851  12.062   0.984   8.327
95985SOL    HW189852  12.065   0.892   8.353
95985SOL    HW289853  12.154   1.009   8.316
95986SOL     OW89854  13.836   3.382   2.418
95986SOL    HW189855  13.828   3.304   2.363
95986SOL    HW289856  13.922   3.374   2.459
95987SOL     OW89857  12.204  10.146  13.399
95987SOL    HW189858  12.256  10.149  13.318
95987SOL    HW289859  12.135  10.211  13.386
95988SOL     OW89860   7.872   1.643   7.923
95988SOL    HW189861   7.905   1.553   7.927
95988SOL    HW289862   7.785   1.638   7.963
95989SOL     OW89863   2.974   6.178  10.854
95989SOL    HW189864   2.882   6.152  10.856
95989SOL    HW289865   3.021   6.099  10.826
95990SOL     OW89866   9.230  14.258  14.789
95990SOL    HW189867   9.244  14.255   0.001
95990SOL    HW289868   9.170  14.332  14.776
95991SOL     OW89869   0.467  14.519   0.977
95991SOL    HW189870   0.493  14.446   1.035
95991SOL    HW289871   0.396  14.482   0.924
95992SOL     OW89872   1.351   4.862   4.580
95992SOL    HW189873   1.409   4.880   4.506
95992SOL    HW289874   1.385   4.917   4.650
95993SOL     OW89875   9.143   4.098   0.140
95993SOL    HW189876   9.222   4.108   0.194
95993SOL    HW289877   9.076   4.148   0.187
95994SOL     OW89878   2.853   4.616   6.948
95994SOL    HW189879   2.850   4.561   6.869
95994SOL    HW289880   2.780   4.676   6.937
95995SOL     OW89881   1.558  13.908   4.980
95995SOL    HW189882   1.637  13.961   4.968
95995SOL    HW289883   1.556  13.889   5.074
95996SOL     OW89884   5.630   0.306   8.284
95996SOL    HW189885   5.685   0.325   8.360
95996SOL    HW289886   5.581   0.228   8.309
95997SOL     OW89887   8.075   7.206  10.637
95997SOL    HW189888   7.982   7.185  10.628
95997SOL    HW289889   8.116   7.125  10.667
95998SOL     OW89890   7.274   6.235   1.838
95998SOL    HW189891   7.308   6.157   1.794
95998SOL    HW289892   7.208   6.270   1.779
95999SOL     OW89893  13.922   8.716   6.565
95999SOL    HW189894  13.901   8.720   6.471
95999SOL    HW289895  13.928   8.623   6.584
96000SOL     OW89896   7.861  12.341  11.713
96000SOL    HW189897   7.944  12.294  11.722
96000SOL    HW289898   7.869  12.387  11.629
96001SOL     OW89899   6.887  13.737   8.066
96001SOL    HW189900   6.842  13.813   8.028
96001SOL    HW289901   6.868  13.665   8.005
96002SOL     OW89902  11.817   3.456  10.419
96002SOL    HW189903  11.828   3.538  10.370
96002SOL    HW289904  11.730   3.462  10.456
96003SOL     OW89905   4.147   3.525  14.506
96003SOL    HW189906   4.079   3.458  14.513
96003SOL    HW289907   4.203   3.510  14.582
96004SOL     OW89908   5.255  10.833   8.860
96004SOL    HW189909   5.169  10.866   8.835
96004SOL    HW289910   5.281  10.777   8.786
96005SOL     OW89911   8.810  12.559   1.611
96005SOL    HW189912   8.877  12.549   1.543
96005SOL    HW289913   8.738  12.502   1.583
96006SOL     OW89914   3.738  10.262   0.381
96006SOL    HW189915   3.646  10.242   0.370
96006SOL    HW289916   3.743  10.358   0.372
96007SOL     OW89917   3.562  13.168   4.959
96007SOL    HW189918   3.552  13.148   5.053
96007SOL    HW289919   3.479  13.139   4.920
96008SOL     OW89920  11.855   4.758   9.425
96008SOL    HW189921  11.844   4.664   9.420
96008SOL    HW289922  11.768   4.794   9.407
96009SOL     OW89923  11.131   1.359   3.171
96009SOL    HW189924  11.226   1.348   3.171
96009SOL    HW289925  11.106   1.348   3.263
96010SOL     OW89926   1.341  12.391   5.102
96010SOL    HW189927   1.320  12.311   5.054
96010SOL    HW289928   1.411  12.366   5.162
96011SOL     OW89929  12.727  14.402  12.515
96011SOL    HW189930  12.653  14.361  12.559
96011SOL    HW289931  12.742  14.483  12.565
96012SOL     OW89932   0.086  11.352  13.784
96012SOL    HW189933   0.079  11.327  13.876
96012SOL    HW289934   0.033  11.432  13.776
96013SOL     OW89935   3.880   9.991   6.634
96013SOL    HW189936   3.890   9.902   6.600
96013SOL    HW289937   3.806  10.028   6.586
96014SOL     OW89938   0.088   8.085   0.668
96014SOL    HW189939   0.077   8.009   0.610
96014SOL    HW289940   0.022   8.073   0.736
96015SOL     OW89941   0.475  14.136   6.095
96015SOL    HW189942   0.435  14.155   6.179
96015SOL    HW289943   0.563  14.103   6.117
96016SOL     OW89944   4.214   3.024   4.445
96016SOL    HW189945   4.289   3.071   4.480
96016SOL    HW289946   4.187   3.075   4.368
96017SOL     OW89947   2.599   4.167  13.631
96017SOL    HW189948   2.545   4.126  13.563
96017SOL    HW289949   2.636   4.094  13.680
96018SOL     OW89950   8.038   8.640   7.748
96018SOL    HW189951   7.948   8.616   7.728
96018SOL    HW289952   8.035   8.734   7.765
96019SOL     OW89953   6.925   5.799   0.025
96019SOL    HW189954   6.938   5.864   0.094
96019SOL    HW289955   6.906   5.718   0.072
96020SOL     OW89956  14.826   2.959  10.056
96020SOL    HW189957  14.767   2.905  10.108
96020SOL    HW289958  14.805   3.049  10.082
96021SOL     OW89959   9.305  13.171  10.797
96021SOL    HW189960   9.336  13.130  10.716
96021SOL    HW289961   9.337  13.261  10.792
96022SOL     OW89962   5.494  10.366   4.996
96022SOL    HW189963   5.526  10.314   4.922
96022SOL    HW289964   5.497  10.307   5.071
96023SOL     OW89965  14.166   9.854   4.821
96023SOL    HW189966  14.252   9.854   4.779
96023SOL    HW289967  14.147   9.947   4.836
96024SOL     OW89968  10.000   0.366   2.660
96024SOL    HW189969  10.044   0.341   2.742
96024SOL    HW289970  10.059   0.337   2.591
96025SOL     OW89971  12.427  13.031  11.265
96025SOL    HW189972  12.479  13.045  11.344
96025SOL    HW289973  12.465  13.090  11.200
96026SOL     OW89974   1.531   4.220   7.170
96026SOL    HW189975   1.603   4.280   7.148
96026SOL    HW289976   1.508   4.179   7.087
96027SOL     OW89977   9.015  13.010  12.049
96027SOL    HW189978   8.922  13.018  12.029
96027SOL    HW289979   9.036  12.919  12.032
96028SOL     OW89980   1.185  10.222   8.057
96028SOL    HW189981   1.152  10.152   8.113
96028SOL    HW289982   1.147  10.205   7.971
96029SOL     OW89983  14.320   7.109   0.684
96029SOL    HW189984  14.404   7.154   0.674
96029SOL    HW289985  14.343   7.025   0.724
96030SOL     OW89986  10.131   6.804   4.222
96030SOL    HW189987  10.196   6.817   4.291
96030SOL    HW289988  10.109   6.893   4.194
96031SOL     OW89989   1.822   3.896  14.794
96031SOL    HW189990   1.866   3.826  14.844
96031SOL    HW289991   1.800   3.855  14.711
96032SOL     OW89992   6.222   0.010   4.673
96032SOL    HW189993   6.267  14.832   4.733
96032SOL    HW289994   6.134   0.020   4.710
96033SOL     OW89995  11.928   2.552  12.784
96033SOL    HW189996  12.013   2.596  12.787
96033SOL    HW289997  11.921   2.518  12.695
96034SOL     OW89998   2.182  13.115   1.925
96034SOL    HW189999   2.261  13.062   1.917
96034SOL    HW290000   2.110  13.057   1.901
96035SOL     OW90001   1.506  14.369  10.348
96035SOL    HW190002   1.410  14.368  10.354
96035SOL    HW290003   1.532  14.431  10.416
96036SOL     OW90004   6.267   7.409   1.394
96036SOL    HW190005   6.244   7.370   1.478
96036SOL    HW290006   6.231   7.348   1.329
96037SOL     OW90007   7.557  12.760   6.677
96037SOL    HW190008   7.583  12.842   6.634
96037SOL    HW290009   7.521  12.787   6.761
96038SOL     OW90010   4.466  13.903  14.276
96038SOL    HW190011   4.442  13.976  14.219
96038SOL    HW290012   4.419  13.828  14.240
96039SOL     OW90013  10.787   2.439  10.268
96039SOL    HW190014  10.756   2.351  10.290
96039SOL    HW290015  10.882   2.434  10.279
96040SOL     OW90016   4.770   3.407   2.095
96040SOL    HW190017   4.707   3.432   2.163
96040SOL    HW290018   4.754   3.468   2.024
96041SOL     OW90019  14.084  11.855   0.081
96041SOL    HW190020  14.015  11.804   0.124
96041SOL    HW290021  14.065  11.847  14.869
96042SOL     OW90022   5.624   5.303  10.201
96042SOL    HW190023   5.540   5.261  10.185
96042SOL    HW290024   5.654   5.330  10.114
96043SOL     OW90025   0.617   6.117   3.880
96043SOL    HW190026   0.663   6.098   3.962
96043SOL    HW290027   0.544   6.173   3.906
96044SOL     OW90028  11.359   9.306  13.814
96044SOL    HW190029  11.439   9.341  13.775
96044SOL    HW290030  11.381   9.292  13.906
96045SOL     OW90031   8.226   8.970   6.008
96045SOL    HW190032   8.281   8.991   5.933
96045SOL    HW290033   8.267   9.014   6.082
96046SOL     OW90034  13.251   9.547  12.887
96046SOL    HW190035  13.180   9.566  12.948
96046SOL    HW290036  13.315   9.616  12.903
96047SOL     OW90037   6.499   0.258   3.163
96047SOL    HW190038   6.541   0.334   3.205
96047SOL    HW290039   6.569   0.219   3.111
96048SOL     OW90040   9.348  12.193  10.439
96048SOL    HW190041   9.319  12.209  10.529
96048SOL    HW290042   9.423  12.251  10.426
96049SOL     OW90043   9.025   8.824  10.693
96049SOL    HW190044   9.112   8.842  10.727
96049SOL    HW290045   8.987   8.764  10.757
96050SOL     OW90046   6.066   0.638   8.212
96050SOL    HW190047   6.148   0.682   8.189
96050SOL    HW290048   6.017   0.703   8.261
96051SOL     OW90049   6.297  10.636  11.139
96051SOL    HW190050   6.205  10.663  11.139
96051SOL    HW290051   6.335  10.686  11.066
96052SOL     OW90052   4.161  11.045   3.646
96052SOL    HW190053   4.077  11.053   3.692
96052SOL    HW290054   4.224  11.025   3.716
96053SOL     OW90055  12.979   7.352   6.819
96053SOL    HW190056  12.955   7.260   6.831
96053SOL    HW290057  12.987   7.387   6.908
96054SOL     OW90058   8.543  10.053   2.364
96054SOL    HW190059   8.594  10.021   2.438
96054SOL    HW290060   8.455  10.066   2.399
96055SOL     OW90061  11.629   7.135   1.976
96055SOL    HW190062  11.691   7.195   2.017
96055SOL    HW290063  11.601   7.180   1.896
96056SOL     OW90064  12.747  10.387   8.900
96056SOL    HW190065  12.784  10.360   8.984
96056SOL    HW290066  12.672  10.328   8.887
96057SOL     OW90067   5.235  12.236  13.511
96057SOL    HW190068   5.291  12.263  13.439
96057SOL    HW290069   5.293  12.235  13.587
96058SOL     OW90070   7.777   4.807   5.882
96058SOL    HW190071   7.849   4.861   5.850
96058SOL    HW290072   7.818   4.723   5.904
96059SOL     OW90073  12.086  14.849   0.241
96059SOL    HW190074  12.036  14.803   0.174
96059SOL    HW290075  12.173  14.810   0.237
96060SOL     OW90076   5.870   1.490   6.571
96060SOL    HW190077   5.937   1.557   6.561
96060SOL    HW290078   5.811   1.524   6.638
96061SOL     OW90079  12.183   8.415   2.996
96061SOL    HW190080  12.258   8.472   2.981
96061SOL    HW290081  12.215   8.348   3.056
96062SOL     OW90082  13.370  10.555   6.162
96062SOL    HW190083  13.460  10.554   6.130
96062SOL    HW290084  13.317  10.557   6.083
96063SOL     OW90085   2.421  11.113   9.337
96063SOL    HW190086   2.416  11.202   9.304
96063SOL    HW290087   2.444  11.123   9.430
96064SOL     OW90088  13.157  13.713   0.709
96064SOL    HW190089  13.208  13.650   0.759
96064SOL    HW290090  13.221  13.756   0.652
96065SOL     OW90091  10.431  12.116   0.946
96065SOL    HW190092  10.369  12.187   0.926
96065SOL    HW290093  10.391  12.039   0.906
96066SOL     OW90094   6.416   6.459   7.703
96066SOL    HW190095   6.467   6.453   7.784
96066SOL    HW290096   6.333   6.498   7.731
96067SOL     OW90097   3.285  10.977   1.909
96067SOL    HW190098   3.295  10.983   2.004
96067SOL    HW290099   3.369  10.943   1.878
96068SOL     OW90100   9.885   4.510   3.897
96068SOL    HW190101   9.902   4.598   3.931
96068SOL    HW290102   9.830   4.468   3.963
96069SOL     OW90103   9.770   2.477  12.281
96069SOL    HW190104   9.692   2.477  12.337
96069SOL    HW290105   9.746   2.421  12.207
96070SOL     OW90106   2.644   2.137   1.222
96070SOL    HW190107   2.630   2.135   1.317
96070SOL    HW290108   2.556   2.141   1.185
96071SOL     OW90109  13.690   2.262   7.328
96071SOL    HW190110  13.707   2.248   7.421
96071SOL    HW290111  13.595   2.273   7.322
96072SOL     OW90112   1.100  12.713   0.627
96072SOL    HW190113   1.075  12.633   0.581
96072SOL    HW290114   1.194  12.704   0.640
96073SOL     OW90115   1.976   0.159  11.752
96073SOL    HW190116   1.995   0.247  11.786
96073SOL    HW290117   2.021   0.100  11.812
96074SOL     OW90118   5.906   8.084   2.307
96074SOL    HW190119   5.852   8.146   2.258
96074SOL    HW290120   5.883   7.998   2.272
96075SOL     OW90121   7.458   1.931  10.892
96075SOL    HW190122   7.476   1.941  10.799
96075SOL    HW290123   7.475   1.839  10.911
96076SOL     OW90124   4.853   8.385  13.998
96076SOL    HW190125   4.929   8.403  13.943
96076SOL    HW290126   4.887   8.334  14.071
96077SOL     OW90127   0.297   4.506  11.401
96077SOL    HW190128   0.231   4.485  11.468
96077SOL    HW290129   0.348   4.425  11.392
96078SOL     OW90130   2.078  10.947   9.272
96078SOL    HW190131   1.984  10.940   9.288
96078SOL    HW290132   2.119  10.901   9.345
96079SOL     OW90133   6.801  10.478   9.738
96079SOL    HW190134   6.723  10.428   9.710
96079SOL    HW290135   6.874  10.431   9.698
96080SOL     OW90136   2.476  12.502   1.909
96080SOL    HW190137   2.522  12.586   1.913
96080SOL    HW290138   2.465  12.476   2.000
96081SOL     OW90139   9.946   0.990   5.672
96081SOL    HW190140   9.983   0.909   5.637
96081SOL    HW290141  10.010   1.020   5.737
96082SOL     OW90142   1.718   5.627  12.205
96082SOL    HW190143   1.640   5.573  12.222
96082SOL    HW290144   1.687   5.699  12.151
96083SOL     OW90145   0.177   6.293   7.768
96083SOL    HW190146   0.167   6.232   7.695
96083SOL    HW290147   0.266   6.280   7.799
96084SOL     OW90148   7.442  14.096  14.839
96084SOL    HW190149   7.391  14.159  14.789
96084SOL    HW290150   7.531  14.132  14.841
96085SOL     OW90151   3.470   8.109  10.880
96085SOL    HW190152   3.533   8.054  10.927
96085SOL    HW290153   3.499   8.104  10.788
96086SOL     OW90154   7.350   4.301  11.462
96086SOL    HW190155   7.441   4.329  11.472
96086SOL    HW290156   7.357   4.212  11.427
96087SOL     OW90157  13.629   4.352   0.722
96087SOL    HW190158  13.592   4.264   0.724
96087SOL    HW290159  13.675   4.357   0.639
96088SOL     OW90160   4.823   8.474   1.443
96088SOL    HW190161   4.796   8.399   1.496
96088SOL    HW290162   4.897   8.442   1.392
96089SOL     OW90163  13.233  12.186   9.087
96089SOL    HW190164  13.223  12.113   9.026
96089SOL    HW290165  13.185  12.159   9.165
96090SOL     OW90166   2.177  12.528   1.179
96090SOL    HW190167   2.094  12.574   1.171
96090SOL    HW290168   2.242  12.591   1.148
96091SOL     OW90169   2.799   2.601   3.490
96091SOL    HW190170   2.825   2.585   3.581
96091SOL    HW290171   2.877   2.578   3.439
96092SOL     OW90172  10.391  10.994   5.247
96092SOL    HW190173  10.330  11.056   5.287
96092SOL    HW290174  10.425  10.943   5.320
96093SOL     OW90175  13.401  13.811  11.242
96093SOL    HW190176  13.361  13.848  11.321
96093SOL    HW290177  13.392  13.879  11.176
96094SOL     OW90178   0.971   6.042   9.906
96094SOL    HW190179   0.955   6.086   9.989
96094SOL    HW290180   1.031   6.100   9.859
96095SOL     OW90181   1.647   8.550   1.588
96095SOL    HW190182   1.719   8.588   1.539
96095SOL    HW290183   1.608   8.486   1.528
96096SOL     OW90184   5.023  13.082   9.358
96096SOL    HW190185   4.936  13.046   9.344
96096SOL    HW290186   5.082  13.008   9.350
96097SOL     OW90187  13.974   8.168  12.787
96097SOL    HW190188  14.050   8.193  12.734
96097SOL    HW290189  13.911   8.239  12.773
96098SOL     OW90190  13.037  12.869   7.918
96098SOL    HW190191  13.094  12.799   7.886
96098SOL    HW290192  12.953  12.855   7.873
96099SOL     OW90193   5.195   1.211   0.893
96099SOL    HW190194   5.155   1.257   0.818
96099SOL    HW290195   5.126   1.153   0.925
96100SOL     OW90196   3.329   2.457  14.426
96100SOL    HW190197   3.280   2.420  14.499
96100SOL    HW290198   3.273   2.527  14.393
96101SOL     OW90199   8.857   4.159   7.513
96101SOL    HW190200   8.843   4.254   7.518
96101SOL    HW290201   8.770   4.122   7.527
96102SOL     OW90202  12.247  13.566   4.376
96102SOL    HW190203  12.238  13.656   4.346
96102SOL    HW290204  12.210  13.513   4.306
96103SOL     OW90205   3.242   8.311  14.586
96103SOL    HW190206   3.302   8.371  14.630
96103SOL    HW290207   3.299   8.248  14.542
96104SOL     OW90208   3.335   3.361  10.589
96104SOL    HW190209   3.255   3.406  10.562
96104SOL    HW290210   3.328   3.355  10.685
96105SOL     OW90211   1.700   2.901  12.610
96105SOL    HW190212   1.626   2.954  12.581
96105SOL    HW290213   1.725   2.850  12.533
96106SOL     OW90214  10.109   6.276   1.089
96106SOL    HW190215  10.148   6.335   1.024
96106SOL    HW290216  10.120   6.189   1.052
96107SOL     OW90217  12.751  10.557   3.787
96107SOL    HW190218  12.722  10.485   3.843
96107SOL    HW290219  12.846  10.557   3.795
96108SOL     OW90220   3.550   3.859   3.886
96108SOL    HW190221   3.541   3.848   3.980
96108SOL    HW290222   3.607   3.786   3.859
96109SOL     OW90223  14.477   9.060  10.260
96109SOL    HW190224  14.544   9.077  10.326
96109SOL    HW290225  14.489   9.129  10.194
96110SOL     OW90226   9.783   3.819  10.290
96110SOL    HW190227   9.773   3.893  10.349
96110SOL    HW290228   9.858   3.841  10.235
96111SOL     OW90229   6.259   1.829  11.633
96111SOL    HW190230   6.210   1.895  11.683
96111SOL    HW290231   6.193   1.765  11.607
96112SOL     OW90232   1.294   2.728  10.829
96112SOL    HW190233   1.306   2.633  10.825
96112SOL    HW290234   1.362   2.758  10.888
96113SOL     OW90235  14.675   3.360   3.039
96113SOL    HW190236  14.607   3.428   3.041
96113SOL    HW290237  14.656   3.306   3.115
96114SOL     OW90238   5.618   0.952  12.558
96114SOL    HW190239   5.710   0.940  12.582
96114SOL    HW290240   5.571   0.946  12.641
96115SOL     OW90241   2.184   5.963   6.700
96115SOL    HW190242   2.200   5.911   6.779
96115SOL    HW290243   2.097   6.001   6.714
96116SOL     OW90244   4.850   0.763   0.231
96116SOL    HW190245   4.814   0.825   0.167
96116SOL    HW290246   4.781   0.699   0.244
96117SOL     OW90247  14.135  14.397   7.963
96117SOL    HW190248  14.138  14.449   8.043
96117SOL    HW290249  14.194  14.442   7.903
96118SOL     OW90250   3.762   4.232  12.546
96118SOL    HW190251   3.803   4.149  12.524
96118SOL    HW290252   3.835   4.294  12.552
96119SOL     OW90253  11.265  14.573   5.779
96119SOL    HW190254  11.324  14.648   5.769
96119SOL    HW290255  11.233  14.579   5.869
96120SOL     OW90256   7.108   0.196   8.503
96120SOL    HW190257   7.077   0.115   8.544
96120SOL    HW290258   7.028   0.246   8.485
96121SOL     OW90259   0.949  13.445   5.686
96121SOL    HW190260   0.870  13.489   5.716
96121SOL    HW290261   1.011  13.456   5.758
96122SOL     OW90262   0.481  14.364   9.636
96122SOL    HW190263   0.536  14.422   9.584
96122SOL    HW290264   0.516  14.276   9.619
96123SOL     OW90265   1.171   6.522   3.631
96123SOL    HW190266   1.123   6.453   3.676
96123SOL    HW290267   1.177   6.593   3.695
96124SOL     OW90268  10.595   1.234   4.678
96124SOL    HW190269  10.674   1.189   4.647
96124SOL    HW290270  10.556   1.174   4.741
96125SOL     OW90271   9.069   8.581  13.215
96125SOL    HW190272   9.085   8.582  13.309
96125SOL    HW290273   8.977   8.608  13.207
96126SOL     OW90274   9.827  12.833   7.545
96126SOL    HW190275   9.777  12.822   7.464
96126SOL    HW290276   9.835  12.745   7.581
96127SOL     OW90277   9.753  11.783   9.066
96127SOL    HW190278   9.725  11.797   8.976
96127SOL    HW290279   9.842  11.817   9.070
96128SOL     OW90280  14.689   3.302  10.608
96128SOL    HW190281  14.763   3.272  10.660
96128SOL    HW290282  14.664   3.227  10.555
96129SOL     OW90283   6.958   1.875   6.655
96129SOL    HW190284   6.992   1.897   6.742
96129SOL    HW290285   6.938   1.782   6.660
96130SOL     OW90286   5.301  10.313  13.704
96130SOL    HW190287   5.293  10.244  13.770
96130SOL    HW290288   5.371  10.370  13.738
96131SOL     OW90289   0.721   3.242   8.068
96131SOL    HW190290   0.627   3.245   8.085
96131SOL    HW290291   0.762   3.269   8.150
96132SOL     OW90292   1.901   0.803   0.852
96132SOL    HW190293   1.892   0.746   0.775
96132SOL    HW290294   1.841   0.876   0.834
96133SOL     OW90295   8.351  12.728   0.080
96133SOL    HW190296   8.443  12.715   0.057
96133SOL    HW290297   8.339  12.682   0.163
96134SOL     OW90298  13.828   0.752   1.939
96134SOL    HW190299  13.745   0.771   1.895
96134SOL    HW290300  13.803   0.723   2.027
96135SOL     OW90301   1.915   0.456   4.886
96135SOL    HW190302   1.945   0.482   4.973
96135SOL    HW290303   1.996   0.434   4.839
96136SOL     OW90304  10.729   3.945  10.503
96136SOL    HW190305  10.723   3.969  10.595
96136SOL    HW290306  10.740   4.029  10.457
96137SOL     OW90307   9.174   2.277   3.481
96137SOL    HW190308   9.125   2.359   3.491
96137SOL    HW290309   9.253   2.303   3.432
96138SOL     OW90310  13.187   7.462  13.525
96138SOL    HW190311  13.127   7.509  13.583
96138SOL    HW290312  13.274   7.488  13.554
96139SOL     OW90313   6.563   9.442   3.336
96139SOL    HW190314   6.534   9.520   3.383
96139SOL    HW290315   6.482   9.403   3.303
96140SOL     OW90316   4.603   7.677   4.457
96140SOL    HW190317   4.518   7.638   4.477
96140SOL    HW290318   4.592   7.770   4.477
96141SOL     OW90319   1.429   8.490   5.753
96141SOL    HW190320   1.365   8.485   5.682
96141SOL    HW290321   1.377   8.504   5.832
96142SOL     OW90322  14.008   5.441   4.704
96142SOL    HW190323  14.060   5.521   4.705
96142SOL    HW290324  13.920   5.469   4.732
96143SOL     OW90325   2.077   1.997   2.176
96143SOL    HW190326   2.049   1.922   2.124
96143SOL    HW290327   2.140   2.043   2.121
96144SOL     OW90328   8.955   0.811   7.052
96144SOL    HW190329   8.867   0.840   7.029
96144SOL    HW290330   9.013   0.867   6.999
96145SOL     OW90331   5.595   5.619  14.548
96145SOL    HW190332   5.685   5.621  14.516
96145SOL    HW290333   5.562   5.707  14.532
96146SOL     OW90334  13.888   0.299   6.189
96146SOL    HW190335  13.912   0.389   6.171
96146SOL    HW290336  13.957   0.246   6.149
96147SOL     OW90337  11.990  14.779   2.898
96147SOL    HW190338  12.076  14.767   2.937
96147SOL    HW290339  11.992  14.725   2.819
96148SOL     OW90340   1.821  11.023   6.912
96148SOL    HW190341   1.740  11.037   6.864
96148SOL    HW290342   1.866  11.107   6.911
96149SOL     OW90343   9.417  13.411   3.215
96149SOL    HW190344   9.497  13.460   3.196
96149SOL    HW290345   9.408  13.351   3.141
96150SOL     OW90346   2.126   3.393  10.044
96150SOL    HW190347   2.207   3.364  10.085
96150SOL    HW290348   2.155   3.445   9.969
96151SOL     OW90349   8.583  14.033   3.765
96151SOL    HW190350   8.526  13.968   3.806
96151SOL    HW290351   8.639  13.982   3.706
96152SOL     OW90352   6.044   2.256  12.449
96152SOL    HW190353   6.073   2.237  12.360
96152SOL    HW290354   6.030   2.170  12.489
96153SOL     OW90355   9.799   2.482   3.539
96153SOL    HW190356   9.819   2.389   3.526
96153SOL    HW290357   9.782   2.490   3.633
96154SOL     OW90358  13.947   5.203   9.550
96154SOL    HW190359  13.894   5.136   9.594
96154SOL    HW290360  13.895   5.230   9.475
96155SOL     OW90361   7.775   0.732  13.580
96155SOL    HW190362   7.774   0.704  13.671
96155SOL    HW290363   7.715   0.672  13.536
96156SOL     OW90364  12.981  11.223   5.945
96156SOL    HW190365  13.013  11.201   5.858
96156SOL    HW290366  13.056  11.206   6.003
96157SOL     OW90367   1.924  14.293  14.209
96157SOL    HW190368   1.992  14.318  14.146
96157SOL    HW290369   1.843  14.296  14.158
96158SOL     OW90370   4.702   3.340   9.713
96158SOL    HW190371   4.761   3.264   9.719
96158SOL    HW290372   4.645   3.320   9.640
96159SOL     OW90373   9.633   0.964   6.349
96159SOL    HW190374   9.693   1.035   6.373
96159SOL    HW290375   9.546   0.998   6.369
96160SOL     OW90376   0.673   5.849  13.851
96160SOL    HW190377   0.757   5.877  13.889
96160SOL    HW290378   0.688   5.759  13.823
96161SOL     OW90379  14.021   4.030   6.908
96161SOL    HW190380  13.958   3.969   6.871
96161SOL    HW290381  14.005   4.027   7.002
96162SOL     OW90382   5.348   5.043   1.017
96162SOL    HW190383   5.356   5.133   1.049
96162SOL    HW290384   5.256   5.020   1.032
96163SOL     OW90385   6.703  10.398   5.270
96163SOL    HW190386   6.768  10.328   5.281
96163SOL    HW290387   6.652  10.371   5.194
96164SOL     OW90388   1.972   0.976   9.652
96164SOL    HW190389   1.970   1.064   9.689
96164SOL    HW290390   2.052   0.973   9.601
96165SOL     OW90391   9.721   6.251  14.503
96165SOL    HW190392   9.681   6.326  14.460
96165SOL    HW290393   9.667   6.235  14.580
96166SOL     OW90394   5.838   9.124   8.067
96166SOL    HW190395   5.792   9.042   8.085
96166SOL    HW290396   5.769   9.185   8.041
96167SOL     OW90397   7.743   4.051   3.107
96167SOL    HW190398   7.787   3.981   3.156
96167SOL    HW290399   7.814   4.110   3.080
96168SOL     OW90400  12.981  10.800  14.745
96168SOL    HW190401  13.038  10.731  14.779
96168SOL    HW290402  13.009  10.879  14.793
96169SOL     OW90403   0.811  13.928   0.050
96169SOL    HW190404   0.791  14.003   0.106
96169SOL    HW290405   0.905  13.933   0.034
96170SOL     OW90406   8.360  14.064  13.646
96170SOL    HW190407   8.301  14.015  13.702
96170SOL    HW290408   8.322  14.152  13.642
96171SOL     OW90409   8.285   8.802  10.048
96171SOL    HW190410   8.311   8.731  10.106
96171SOL    HW290411   8.199   8.776  10.015
96172SOL     OW90412   5.234   3.872  12.553
96172SOL    HW190413   5.305   3.808  12.557
96172SOL    HW290414   5.278   3.956  12.541
96173SOL     OW90415   0.704   7.707   0.593
96173SOL    HW190416   0.727   7.800   0.583
96173SOL    HW290417   0.650   7.688   0.516
96174SOL     OW90418  11.718   9.979   2.802
96174SOL    HW190419  11.707  10.072   2.780
96174SOL    HW290420  11.733   9.978   2.896
96175SOL     OW90421   6.036  10.948   1.035
96175SOL    HW190422   5.994  10.862   1.023
96175SOL    HW290423   6.065  10.946   1.127
96176SOL     OW90424   2.984  14.347  12.629
96176SOL    HW190425   2.951  14.434  12.607
96176SOL    HW290426   3.073  14.345  12.595
96177SOL     OW90427   5.576   2.052   0.926
96177SOL    HW190428   5.496   2.074   0.878
96177SOL    HW290429   5.629   2.002   0.863
96178SOL     OW90430  12.031   1.742  13.764
96178SOL    HW190431  12.119   1.749  13.801
96178SOL    HW290432  11.985   1.681  13.822
96179SOL     OW90433   2.159   8.480   2.669
96179SOL    HW190434   2.159   8.575   2.682
96179SOL    HW290435   2.096   8.465   2.599
96180SOL     OW90436   4.752   7.293   2.976
96180SOL    HW190437   4.803   7.270   2.898
96180SOL    HW290438   4.784   7.379   3.002
96181SOL     OW90439   7.315  12.095  12.772
96181SOL    HW190440   7.347  12.068  12.858
96181SOL    HW290441   7.380  12.062  12.711
96182SOL     OW90442   6.352   1.920  10.533
96182SOL    HW190443   6.382   1.989  10.474
96182SOL    HW290444   6.426   1.905  10.591
96183SOL     OW90445   0.807   2.645  10.620
96183SOL    HW190446   0.891   2.646  10.667
96183SOL    HW290447   0.820   2.709  10.549
96184SOL     OW90448   2.608   0.826   0.326
96184SOL    HW190449   2.641   0.831   0.237
96184SOL    HW290450   2.518   0.859   0.320
96185SOL     OW90451  11.798   3.496   9.331
96185SOL    HW190452  11.818   3.571   9.274
96185SOL    HW290453  11.729   3.448   9.284
96186SOL     OW90454  14.487   6.949   0.369
96186SOL    HW190455  14.568   6.979   0.409
96186SOL    HW290456  14.425   7.020   0.383
96187SOL     OW90457  11.301   8.684   6.661
96187SOL    HW190458  11.311   8.689   6.756
96187SOL    HW290459  11.385   8.717   6.626
96188SOL     OW90460  14.839  12.656  11.587
96188SOL    HW190461  14.854  12.564  11.606
96188SOL    HW290462   0.024  12.702  11.636
96189SOL     OW90463  11.582   3.818   9.153
96189SOL    HW190464  11.547   3.896   9.111
96189SOL    HW290465  11.530   3.807   9.232
96190SOL     OW90466  13.985  12.516  10.335
96190SOL    HW190467  13.900  12.515  10.379
96190SOL    HW290468  13.999  12.608  10.313
96191SOL     OW90469  10.032   5.956  12.321
96191SOL    HW190470   9.961   5.893  12.309
96191SOL    HW290471  10.018   6.020  12.251
96192SOL     OW90472   3.695   5.261   0.460
96192SOL    HW190473   3.699   5.356   0.446
96192SOL    HW290474   3.609   5.235   0.429
96193SOL     OW90475   6.173  10.853   2.000
96193SOL    HW190476   6.263  10.878   2.021
96193SOL    HW290477   6.136  10.823   2.083
96194SOL     OW90478   5.890  11.459   5.668
96194SOL    HW190479   5.909  11.551   5.684
96194SOL    HW290480   5.884  11.452   5.573
96195SOL     OW90481  13.487   3.113   5.411
96195SOL    HW190482  13.495   3.140   5.502
96195SOL    HW290483  13.393   3.097   5.399
96196SOL     OW90484  13.185  12.445  10.732
96196SOL    HW190485  13.169  12.535  10.762
96196SOL    HW290486  13.234  12.404  10.803
96197SOL     OW90487   5.136   0.373  11.617
96197SOL    HW190488   5.054   0.421  11.629
96197SOL    HW290489   5.179   0.378  11.703
96198SOL     OW90490   8.511   7.556   3.182
96198SOL    HW190491   8.448   7.618   3.146
96198SOL    HW290492   8.564   7.529   3.107
96199SOL     OW90493   8.129  12.369   7.021
96199SOL    HW190494   8.120  12.444   6.962
96199SOL    HW290495   8.217  12.380   7.059
96200SOL     OW90496  11.535  13.375  13.178
96200SOL    HW190497  11.528  13.462  13.138
96200SOL    HW290498  11.580  13.322  13.113
96201SOL     OW90499  14.084   2.842   1.365
96201SOL    HW190500  14.172   2.819   1.336
96201SOL    HW290501  14.041   2.758   1.382
96202SOL     OW90502   9.146   6.735  13.586
96202SOL    HW190503   9.107   6.698  13.665
96202SOL    HW290504   9.163   6.826  13.608
96203SOL     OW90505  14.656   3.681  11.289
96203SOL    HW190506  14.642   3.639  11.374
96203SOL    HW290507  14.739   3.645  11.257
96204SOL     OW90508  10.039   7.528   1.995
96204SOL    HW190509  10.020   7.621   2.006
96204SOL    HW290510   9.962   7.483   2.028
96205SOL     OW90511   8.977   5.890   3.471
96205SOL    HW190512   9.049   5.940   3.510
96205SOL    HW290513   8.898   5.928   3.508
96206SOL     OW90514   4.939  14.408   0.773
96206SOL    HW190515   4.887  14.378   0.848
96206SOL    HW290516   4.920  14.501   0.766
96207SOL     OW90517   3.337  12.375  10.306
96207SOL    HW190518   3.376  12.307  10.360
96207SOL    HW290519   3.409  12.436  10.288
96208SOL     OW90520  12.652   2.066   0.896
96208SOL    HW190521  12.582   2.130   0.886
96208SOL    HW290522  12.683   2.049   0.807
96209SOL     OW90523   6.119  11.294   4.430
96209SOL    HW190524   6.211  11.273   4.449
96209SOL    HW290525   6.075  11.209   4.429
96210SOL     OW90526   3.412  14.323   1.446
96210SOL    HW190527   3.331  14.374   1.435
96210SOL    HW290528   3.417  14.270   1.366
96211SOL     OW90529   4.594   2.591   0.746
96211SOL    HW190530   4.650   2.546   0.683
96211SOL    HW290531   4.505   2.576   0.714
96212SOL     OW90532  10.226   9.954   3.047
96212SOL    HW190533  10.302   9.914   3.006
96212SOL    HW290534  10.249  10.047   3.056
96213SOL     OW90535  14.353   7.579   2.886
96213SOL    HW190536  14.446   7.562   2.897
96213SOL    HW290537  14.340   7.668   2.920
96214SOL     OW90538   4.772   5.283  14.743
96214SOL    HW190539   4.714   5.299  14.669
96214SOL    HW290540   4.713   5.274  14.818
96215SOL     OW90541   0.645   4.388   6.020
96215SOL    HW190542   0.635   4.415   6.111
96215SOL    HW290543   0.611   4.461   5.969
96216SOL     OW90544   3.685   0.682  14.809
96216SOL    HW190545   3.611   0.742  14.822
96216SOL    HW290546   3.719   0.667   0.015
96217SOL     OW90547   8.193  11.738   9.099
96217SOL    HW190548   8.198  11.669   9.032
96217SOL    HW290549   8.236  11.700   9.176
96218SOL     OW90550   5.941   7.423   4.531
96218SOL    HW190551   5.849   7.447   4.544
96218SOL    HW290552   5.981   7.436   4.617
96219SOL     OW90553   5.023   2.183   3.801
96219SOL    HW190554   4.973   2.160   3.880
96219SOL    HW290555   5.111   2.152   3.819
96220SOL     OW90556  12.146   5.175   3.531
96220SOL    HW190557  12.175   5.123   3.457
96220SOL    HW290558  12.223   5.182   3.588
96221SOL     OW90559  11.266   0.965   7.661
96221SOL    HW190560  11.345   0.911   7.655
96221SOL    HW290561  11.298   1.052   7.682
96222SOL     OW90562   2.117   1.937   4.630
96222SOL    HW190563   2.123   1.984   4.713
96222SOL    HW290564   2.046   1.874   4.643
96223SOL     OW90565  12.765   1.809  13.067
96223SOL    HW190566  12.723   1.731  13.031
96223SOL    HW290567  12.857   1.784  13.078
96224SOL     OW90568   6.276   4.785   1.254
96224SOL    HW190569   6.244   4.699   1.227
96224SOL    HW290570   6.365   4.789   1.217
96225SOL     OW90571   7.350  14.783   4.344
96225SOL    HW190572   7.380  14.865   4.385
96225SOL    HW290573   7.259  14.801   4.319
96226SOL     OW90574  12.823  11.497  12.918
96226SOL    HW190575  12.770  11.418  12.909
96226SOL    HW290576  12.907  11.475  12.878
96227SOL     OW90577  11.807   5.181   5.916
96227SOL    HW190578  11.721   5.162   5.880
96227SOL    HW290579  11.849   5.096   5.924
96228SOL     OW90580   2.639   4.084   6.560
96228SOL    HW190581   2.647   4.177   6.582
96228SOL    HW290582   2.550   4.062   6.587
96229SOL     OW90583  13.336   0.213   7.422
96229SOL    HW190584  13.295   0.183   7.341
96229SOL    HW290585  13.277   0.282   7.454
96230SOL     OW90586   4.963  14.453   1.653
96230SOL    HW190587   5.004  14.454   1.567
96230SOL    HW290588   4.997  14.374   1.695
96231SOL     OW90589   7.253  11.725  12.547
96231SOL    HW190590   7.218  11.734  12.636
96231SOL    HW290591   7.246  11.632  12.528
96232SOL     OW90592   7.044  11.976  13.980
96232SOL    HW190593   7.064  11.904  14.039
96232SOL    HW290594   7.097  12.049  14.013
96233SOL     OW90595   9.341   1.375   7.956
96233SOL    HW190596   9.380   1.315   7.893
96233SOL    HW290597   9.334   1.324   8.036
96234SOL     OW90598  12.092  10.796   0.368
96234SOL    HW190599  12.125  10.786   0.279
96234SOL    HW290600  12.108  10.888   0.389
96235SOL     OW90601   8.291   9.353   9.177
96235SOL    HW190602   8.367   9.365   9.121
96235SOL    HW290603   8.288   9.259   9.196
96236SOL     OW90604  10.244   2.941  14.299
96236SOL    HW190605  10.182   2.950  14.226
96236SOL    HW290606  10.196   2.972  14.375
96237SOL     OW90607   4.962  14.547   2.442
96237SOL    HW190608   4.870  14.554   2.464
96237SOL    HW290609   4.998  14.485   2.507
96238SOL     OW90610   4.403  13.434   9.125
96238SOL    HW190611   4.378  13.431   9.217
96238SOL    HW290612   4.497  13.452   9.125
96239SOL     OW90613  14.051  11.800   7.608
96239SOL    HW190614  13.972  11.752   7.630
96239SOL    HW290615  14.029  11.892   7.624
96240SOL     OW90616   8.552  10.213   9.604
96240SOL    HW190617   8.492  10.284   9.581
96240SOL    HW290618   8.637  10.242   9.570
96241SOL     OW90619  11.943   1.760  10.359
96241SOL    HW190620  12.020   1.815  10.376
96241SOL    HW290621  11.875   1.798  10.415
96242SOL     OW90622  14.282  12.295   7.684
96242SOL    HW190623  14.343  12.306   7.611
96242SOL    HW290624  14.298  12.371   7.740
96243SOL     OW90625  11.106   2.077  11.404
96243SOL    HW190626  11.039   2.079  11.472
96243SOL    HW290627  11.097   2.162  11.361
96244SOL     OW90628  14.770  14.307   3.226
96244SOL    HW190629  14.843  14.246   3.218
96244SOL    HW290630  14.695  14.252   3.248
96245SOL     OW90631   0.880   5.999  11.483
96245SOL    HW190632   0.961   6.034  11.520
96245SOL    HW290633   0.906   5.959  11.400
96246SOL     OW90634  10.838  11.193   5.211
96246SOL    HW190635  10.798  11.181   5.125
96246SOL    HW290636  10.772  11.241   5.262
96247SOL     OW90637   8.942   9.228   9.217
96247SOL    HW190638   8.960   9.250   9.308
96247SOL    HW290639   8.847   9.227   9.210
96248SOL     OW90640   8.510   0.072  11.530
96248SOL    HW190641   8.473   0.026  11.455
96248SOL    HW290642   8.574   0.132  11.492
96249SOL     OW90643   6.365   8.507  14.368
96249SOL    HW190644   6.449   8.467  14.390
96249SOL    HW290645   6.387   8.575  14.304
96250SOL     OW90646   8.640   7.670   6.746
96250SOL    HW190647   8.672   7.581   6.734
96250SOL    HW290648   8.678   7.698   6.829
96251SOL     OW90649   0.327  10.689  13.746
96251SOL    HW190650   0.344  10.782  13.731
96251SOL    HW290651   0.363  10.672  13.833
96252SOL     OW90652   2.130   2.792   3.742
96252SOL    HW190653   2.186   2.771   3.817
96252SOL    HW290654   2.188   2.785   3.666
96253SOL     OW90655   6.353   4.150   0.253
96253SOL    HW190656   6.306   4.155   0.170
96253SOL    HW290657   6.327   4.229   0.301
96254SOL     OW90658  14.084   8.481  13.630
96254SOL    HW190659  13.993   8.480  13.598
96254SOL    HW290660  14.131   8.427  13.567
96255SOL     OW90661   6.704   0.816   8.146
96255SOL    HW190662   6.736   0.905   8.131
96255SOL    HW290663   6.779   0.769   8.181
96256SOL     OW90664   3.972  12.787  14.787
96256SOL    HW190665   3.988  12.882  14.784
96256SOL    HW290666   3.984  12.764  14.879
96257SOL     OW90667   6.511   1.080  13.683
96257SOL    HW190668   6.547   0.993  13.700
96257SOL    HW290669   6.588   1.135  13.669
96258SOL     OW90670   5.739  12.450   4.120
96258SOL    HW190671   5.784  12.534   4.124
96258SOL    HW290672   5.693  12.452   4.036
96259SOL     OW90673   1.614   2.448  11.304
96259SOL    HW190674   1.544   2.392  11.272
96259SOL    HW290675   1.623   2.425  11.396
96260SOL     OW90676   2.195  14.149   4.346
96260SOL    HW190677   2.164  14.147   4.436
96260SOL    HW290678   2.214  14.242   4.330
96261SOL     OW90679   7.359  12.992   6.723
96261SOL    HW190680   7.291  12.972   6.787
96261SOL    HW290681   7.316  13.045   6.656
96262SOL     OW90682  12.012   6.326  13.021
96262SOL    HW190683  12.027   6.242  12.977
96262SOL    HW290684  11.955   6.305  13.095
96263SOL     OW90685   7.646   2.973   0.612
96263SOL    HW190686   7.591   2.912   0.564
96263SOL    HW290687   7.680   3.032   0.545
96264SOL     OW90688   6.477   5.297   9.457
96264SOL    HW190689   6.529   5.270   9.381
96264SOL    HW290690   6.530   5.365   9.499
96265SOL     OW90691  10.927   3.862  13.461
96265SOL    HW190692  10.925   3.811  13.541
96265SOL    HW290693  10.845   3.912  13.462
96266SOL     OW90694  10.761   2.604  11.286
96266SOL    HW190695  10.726   2.681  11.242
96266SOL    HW290696  10.685   2.550  11.304
96267SOL     OW90697  10.694   5.913  11.976
96267SOL    HW190698  10.713   6.003  12.000
96267SOL    HW290699  10.753   5.895  11.903
96268SOL     OW90700  10.011   9.817   2.690
96268SOL    HW190701  10.011   9.790   2.781
96268SOL    HW290702  10.104   9.820   2.665
96269SOL     OW90703  10.539   9.594   3.433
96269SOL    HW190704  10.477   9.655   3.393
96269SOL    HW290705  10.582   9.646   3.501
96270SOL     OW90706   4.933   5.790   4.524
96270SOL    HW190707   4.851   5.823   4.560
96270SOL    HW290708   4.928   5.695   4.536
96271SOL     OW90709  10.234  10.564   7.614
96271SOL    HW190710  10.201  10.555   7.704
96271SOL    HW290711  10.329  10.559   7.624
96272SOL     OW90712  13.114  13.258   7.562
96272SOL    HW190713  13.151  13.192   7.621
96272SOL    HW290714  13.189  13.306   7.529
96273SOL     OW90715   4.421  11.442   5.204
96273SOL    HW190716   4.381  11.384   5.269
96273SOL    HW290717   4.360  11.516   5.198
96274SOL     OW90718   3.437   0.663   8.135
96274SOL    HW190719   3.513   0.720   8.122
96274SOL    HW290720   3.426   0.618   8.051
96275SOL     OW90721   5.879  14.874  14.526
96275SOL    HW190722   5.810   0.058  14.518
96275SOL    HW290723   5.884  14.834  14.439
96276SOL     OW90724  11.009   9.079   5.251
96276SOL    HW190725  10.968   9.151   5.298
96276SOL    HW290726  10.970   9.000   5.289
96277SOL     OW90727   7.762   7.418  11.569
96277SOL    HW190728   7.738   7.349  11.632
96277SOL    HW290729   7.856   7.429  11.581
96278SOL     OW90730   3.322   0.644   8.542
96278SOL    HW190731   3.230   0.639   8.568
96278SOL    HW290732   3.367   0.581   8.598
96279SOL     OW90733  12.094   8.356   2.758
96279SOL    HW190734  12.000   8.345   2.770
96279SOL    HW290735  12.126   8.383   2.844
96280SOL     OW90736   6.929  12.069   8.981
96280SOL    HW190737   7.011  12.106   9.014
96280SOL    HW290738   6.899  12.011   9.051
96281SOL     OW90739  10.105   1.914   0.738
96281SOL    HW190740  10.192   1.953   0.737
96281SOL    HW290741  10.108   1.849   0.808
96282SOL     OW90742  14.074  13.714   0.127
96282SOL    HW190743  14.152  13.663   0.147
96282SOL    HW290744  14.100  13.771   0.055
96283SOL     OW90745   1.905  13.079   5.151
96283SOL    HW190746   1.826  13.132   5.149
96283SOL    HW290747   1.958  13.116   5.222
96284SOL     OW90748   8.890   6.975  10.079
96284SOL    HW190749   8.830   7.044  10.052
96284SOL    HW290750   8.924   7.004  10.164
96285SOL     OW90751   1.720  11.001  13.608
96285SOL    HW190752   1.785  10.956  13.662
96285SOL    HW290753   1.689  11.073  13.662
96286SOL     OW90754   8.315   2.983  13.869
96286SOL    HW190755   8.319   2.931  13.949
96286SOL    HW290756   8.248   2.941  13.816
96287SOL     OW90757  11.758   9.507  14.344
96287SOL    HW190758  11.748   9.508  14.440
96287SOL    HW290759  11.782   9.416  14.324
96288SOL     OW90760   8.388   3.264   8.069
96288SOL    HW190761   8.474   3.306   8.077
96288SOL    HW290762   8.407   3.171   8.059
96289SOL     OW90763   0.643   3.877   0.073
96289SOL    HW190764   0.608   3.929   0.146
96289SOL    HW290765   0.685   3.941   0.016
96290SOL     OW90766  12.828  12.315   5.306
96290SOL    HW190767  12.791  12.227   5.305
96290SOL    HW290768  12.767  12.367   5.253
96291SOL     OW90769   5.409   2.918   5.978
96291SOL    HW190770   5.485   2.870   6.009
96291SOL    HW290771   5.335   2.859   5.992
96292SOL     OW90772  11.864  11.062   0.115
96292SOL    HW190773  11.821  11.117   0.049
96292SOL    HW290774  11.795  11.042   0.178
96293SOL     OW90775  10.942   1.877   9.029
96293SOL    HW190776  11.015   1.834   8.984
96293SOL    HW290777  10.875   1.887   8.961
96294SOL     OW90778  12.176   9.382  13.421
96294SOL    HW190779  12.233   9.351  13.351
96294SOL    HW290780  12.206   9.470  13.440
96295SOL     OW90781   0.766  11.646   1.867
96295SOL    HW190782   0.698  11.606   1.922
96295SOL    HW290783   0.726  11.728   1.836
96296SOL     OW90784  13.755  14.837  10.581
96296SOL    HW190785  13.761  14.840  10.677
96296SOL    HW290786  13.846  14.836  10.552
96297SOL     OW90787  13.057   8.602   4.448
96297SOL    HW190788  13.031   8.559   4.530
96297SOL    HW290789  13.125   8.663   4.474
96298SOL     OW90790   2.201   9.028  13.468
96298SOL    HW190791   2.266   9.083  13.512
96298SOL    HW290792   2.122   9.082  13.466
96299SOL     OW90793   0.248   6.513  11.639
96299SOL    HW190794   0.340   6.536  11.624
96299SOL    HW290795   0.243   6.421  11.613
96300SOL     OW90796  11.552   0.667   7.391
96300SOL    HW190797  11.622   0.633   7.447
96300SOL    HW290798  11.581   0.648   7.301
96301SOL     OW90799   3.022   5.495   2.980
96301SOL    HW190800   3.001   5.402   2.986
96301SOL    HW290801   3.019   5.515   2.887
96302SOL     OW90802   2.383  14.852   6.092
96302SOL    HW190803   2.328   0.021   6.151
96302SOL    HW290804   2.365  14.761   6.115
96303SOL     OW90805   2.551   6.838   8.944
96303SOL    HW190806   2.523   6.928   8.955
96303SOL    HW290807   2.490   6.786   8.997
96304SOL     OW90808  12.327   9.480   5.072
96304SOL    HW190809  12.272   9.424   5.128
96304SOL    HW290810  12.279   9.485   4.989
96305SOL     OW90811   8.590  10.798   9.715
96305SOL    HW190812   8.511  10.772   9.667
96305SOL    HW290813   8.558  10.817   9.804
96306SOL     OW90814   5.053   4.211   2.129
96306SOL    HW190815   5.068   4.241   2.219
96306SOL    HW290816   5.122   4.147   2.113
96307SOL     OW90817   3.649   2.437  10.440
96307SOL    HW190818   3.737   2.467  10.417
96307SOL    HW290819   3.649   2.433  10.536
96308SOL     OW90820  10.118   7.559   5.198
96308SOL    HW190821  10.082   7.647   5.204
96308SOL    HW290822  10.193   7.559   5.257
96309SOL     OW90823   4.175   2.837   3.687
96309SOL    HW190824   4.130   2.754   3.700
96309SOL    HW290825   4.266   2.818   3.709
96310SOL     OW90826   5.155   4.410   0.404
96310SOL    HW190827   5.090   4.420   0.474
96310SOL    HW290828   5.194   4.497   0.396
96311SOL     OW90829   2.638   0.915   9.442
96311SOL    HW190830   2.683   0.999   9.446
96311SOL    HW290831   2.687   0.865   9.376
96312SOL     OW90832   3.766  14.755   5.012
96312SOL    HW190833   3.749  14.735   4.920
96312SOL    HW290834   3.814  14.679   5.045
96313SOL     OW90835   4.311   1.284  14.701
96313SOL    HW190836   4.287   1.339  14.776
96313SOL    HW290837   4.228   1.264  14.658
96314SOL     OW90838   0.589   0.651   1.320
96314SOL    HW190839   0.644   0.721   1.356
96314SOL    HW290840   0.641   0.571   1.334
96315SOL     OW90841   8.982   4.727  11.396
96315SOL    HW190842   9.038   4.767  11.462
96315SOL    HW290843   9.007   4.769  11.314
96316SOL     OW90844   5.617   6.741   0.441
96316SOL    HW190845   5.635   6.798   0.366
96316SOL    HW290846   5.695   6.750   0.496
96317SOL     OW90847  10.895   4.351  12.564
96317SOL    HW190848  10.817   4.346  12.508
96317SOL    HW290849  10.865   4.396  12.643
96318SOL     OW90850  10.612   6.877   3.448
96318SOL    HW190851  10.529   6.831   3.435
96318SOL    HW290852  10.602   6.920   3.533
96319SOL     OW90853   3.892   1.967   2.153
96319SOL    HW190854   3.898   1.964   2.249
96319SOL    HW290855   3.982   1.976   2.124
96320SOL     OW90856   9.166   5.065   3.848
96320SOL    HW190857   9.085   5.063   3.798
96320SOL    HW290858   9.235   5.054   3.782
96321SOL     OW90859  10.929  11.834  11.811
96321SOL    HW190860  10.881  11.763  11.854
96321SOL    HW290861  10.974  11.879  11.882
96322SOL     OW90862  13.213  14.417  14.789
96322SOL    HW190863  13.239  14.509  14.778
96322SOL    HW290864  13.180  14.412  14.879
96323SOL     OW90865   7.894  11.947   6.858
96323SOL    HW190866   7.939  12.000   6.923
96323SOL    HW290867   7.963  11.891   6.820
96324SOL     OW90868   5.413  14.419  12.324
96324SOL    HW190869   5.410  14.340  12.377
96324SOL    HW290870   5.362  14.397  12.245
96325SOL     OW90871  14.794   5.680   2.542
96325SOL    HW190872  14.771   5.765   2.505
96325SOL    HW290873  14.714   5.650   2.586
96326SOL     OW90874   3.623  10.881  12.601
96326SOL    HW190875   3.641  10.789  12.583
96326SOL    HW290876   3.701  10.913  12.647
96327SOL     OW90877   0.164  14.243   9.916
96327SOL    HW190878   0.203  14.317   9.870
96327SOL    HW290879   0.213  14.167   9.885
96328SOL     OW90880   0.035   7.035   8.734
96328SOL    HW190881   0.044   7.126   8.760
96328SOL    HW290882   0.118   6.994   8.757
96329SOL     OW90883  14.096  13.656   4.647
96329SOL    HW190884  14.076  13.642   4.554
96329SOL    HW290885  14.185  13.691   4.647
96330SOL     OW90886  13.498  10.523   2.362
96330SOL    HW190887  13.556  10.526   2.287
96330SOL    HW290888  13.419  10.569   2.334
96331SOL     OW90889  14.629  13.924   5.134
96331SOL    HW190890  14.564  13.855   5.122
96331SOL    HW290891  14.711  13.886   5.102
96332SOL     OW90892   3.257   5.720   6.637
96332SOL    HW190893   3.272   5.722   6.732
96332SOL    HW290894   3.164   5.740   6.628
96333SOL     OW90895   6.688   8.399  12.117
96333SOL    HW190896   6.636   8.386  12.038
96333SOL    HW290897   6.777   8.374  12.091
96334SOL     OW90898   2.928  10.457  11.371
96334SOL    HW190899   2.874  10.435  11.295
96334SOL    HW290900   3.017  10.431  11.345
96335SOL     OW90901   5.437   9.932   3.632
96335SOL    HW190902   5.376   9.910   3.702
96335SOL    HW290903   5.518   9.886   3.655
96336SOL     OW90904  14.015   4.743  13.352
96336SOL    HW190905  14.072   4.793  13.410
96336SOL    HW290906  13.994   4.803  13.281
96337SOL     OW90907   1.518   6.532  13.704
96337SOL    HW190908   1.531   6.445  13.741
96337SOL    HW290909   1.428   6.532  13.673
96338SOL     OW90910   5.662   2.533   7.516
96338SOL    HW190911   5.641   2.594   7.587
96338SOL    HW290912   5.738   2.573   7.472
96339SOL     OW90913  12.569   1.495   5.209
96339SOL    HW190914  12.646   1.501   5.264
96339SOL    HW290915  12.602   1.462   5.125
96340SOL     OW90916  13.639  14.343  11.815
96340SOL    HW190917  13.554  14.324  11.774
96340SOL    HW290918  13.694  14.373  11.743
96341SOL     OW90919  14.081   7.254  12.328
96341SOL    HW190920  14.140   7.221  12.397
96341SOL    HW290921  14.125   7.332  12.295
96342SOL     OW90922   8.284   3.659  13.389
96342SOL    HW190923   8.251   3.598  13.323
96342SOL    HW290924   8.377   3.637  13.397
96343SOL     OW90925   7.063  11.166   3.701
96343SOL    HW190926   7.108  11.100   3.649
96343SOL    HW290927   7.014  11.116   3.766
96344SOL     OW90928  14.111   3.976   8.521
96344SOL    HW190929  14.077   4.062   8.545
96344SOL    HW290930  14.140   3.938   8.604
96345SOL     OW90931   7.938  13.237   2.664
96345SOL    HW190932   7.869  13.180   2.698
96345SOL    HW290933   7.993  13.255   2.740
96346SOL     OW90934  12.841   9.043   8.374
96346SOL    HW190935  12.803   8.987   8.442
96346SOL    HW290936  12.923   9.000   8.351
96347SOL     OW90937  11.894  11.447   4.464
96347SOL    HW190938  11.829  11.512   4.491
96347SOL    HW290939  11.959  11.449   4.534
96348SOL     OW90940  10.537  14.735  11.939
96348SOL    HW190941  10.460  14.726  11.995
96348SOL    HW290942  10.611  14.734  11.999
96349SOL     OW90943  13.698   8.659   2.370
96349SOL    HW190944  13.673   8.572   2.338
96349SOL    HW290945  13.626   8.716   2.344
96350SOL     OW90946   7.590  14.646   8.651
96350SOL    HW190947   7.571  14.557   8.683
96350SOL    HW290948   7.643  14.632   8.573
96351SOL     OW90949   9.518  11.427   9.813
96351SOL    HW190950   9.572  11.369   9.867
96351SOL    HW290951   9.454  11.463   9.873
96352SOL     OW90952   3.018   9.628   4.907
96352SOL    HW190953   3.067   9.589   4.979
96352SOL    HW290954   2.972   9.554   4.867
96353SOL     OW90955   9.310  14.310  13.871
96353SOL    HW190956   9.253  14.242  13.834
96353SOL    HW290957   9.391  14.304  13.820
96354SOL     OW90958  13.521  14.781  13.154
96354SOL    HW190959  13.517  14.875  13.174
96354SOL    HW290960  13.612  14.767  13.126
96355SOL     OW90961   7.400   8.490  12.886
96355SOL    HW190962   7.476   8.451  12.843
96355SOL    HW290963   7.420   8.487  12.979
96356SOL     OW90964   8.450   1.643   1.441
96356SOL    HW190965   8.416   1.593   1.367
96356SOL    HW290966   8.528   1.595   1.469
96357SOL     OW90967   2.751   8.485   3.218
96357SOL    HW190968   2.770   8.391   3.213
96357SOL    HW290969   2.759   8.506   3.311
96358SOL     OW90970  14.525  14.015   8.774
96358SOL    HW190971  14.533  13.950   8.704
96358SOL    HW290972  14.588  14.083   8.750
96359SOL     OW90973   8.424   6.402   4.778
96359SOL    HW190974   8.481   6.461   4.728
96359SOL    HW290975   8.401   6.452   4.857
96360SOL     OW90976   2.686  10.840   9.473
96360SOL    HW190977   2.723  10.751   9.469
96360SOL    HW290978   2.689  10.871   9.383
96361SOL     OW90979  11.870   1.643   7.226
96361SOL    HW190980  11.816   1.653   7.305
96361SOL    HW290981  11.886   1.549   7.220
96362SOL     OW90982   0.123   5.872  13.181
96362SOL    HW190983   0.210   5.842  13.155
96362SOL    HW290984   0.071   5.792  13.188
96363SOL     OW90985  14.000  10.020  12.042
96363SOL    HW190986  13.986   9.942  11.990
96363SOL    HW290987  13.925  10.023  12.101
96364SOL     OW90988   6.993  12.239   7.096
96364SOL    HW190989   7.024  12.175   7.161
96364SOL    HW290990   7.013  12.198   7.012
96365SOL     OW90991   3.403   4.100   2.991
96365SOL    HW190992   3.395   4.025   3.051
96365SOL    HW290993   3.489   4.089   2.951
96366SOL     OW90994  10.793   6.931  11.370
96366SOL    HW190995  10.877   6.972  11.349
96366SOL    HW290996  10.802   6.901  11.460
96367SOL     OW90997   0.580   3.419  12.898
96367SOL    HW190998   0.542   3.361  12.964
96367SOL    HW290999   0.602   3.499  12.946
96368SOL     OW91000   5.841  12.584   3.809
96368SOL    HW191001   5.751  12.553   3.823
96368SOL    HW291002   5.830  12.674   3.777
96369SOL     OW91003   9.261  12.622   1.212
96369SOL    HW191004   9.173  12.584   1.218
96369SOL    HW291005   9.317  12.547   1.191
96370SOL     OW91006  13.718  12.919  12.547
96370SOL    HW191007  13.628  12.944  12.567
96370SOL    HW291008  13.749  12.986  12.486
96371SOL     OW91009   6.274   3.421  10.436
96371SOL    HW191010   6.329   3.458  10.505
96371SOL    HW291011   6.315   3.338  10.415
96372SOL     OW91012  11.795   3.665  11.364
96372SOL    HW191013  11.811   3.623  11.448
96372SOL    HW291014  11.882   3.693  11.334
96373SOL     OW91015   4.510  13.721  13.718
96373SOL    HW191016   4.586  13.707  13.662
96373SOL    HW291017   4.505  13.815  13.730
96374SOL     OW91018   9.220   1.282  14.230
96374SOL    HW191019   9.242   1.297  14.322
96374SOL    HW291020   9.150   1.216  14.233
96375SOL     OW91021   2.908   4.928   9.915
96375SOL    HW191022   2.912   4.834   9.934
96375SOL    HW291023   2.983   4.944   9.858
96376SOL     OW91024   7.656  11.138   4.196
96376SOL    HW191025   7.568  11.170   4.176
96376SOL    HW291026   7.710  11.168   4.123
96377SOL     OW91027   0.975   2.876  13.243
96377SOL    HW191028   1.004   2.786  13.234
96377SOL    HW291029   0.883   2.869  13.268
96378SOL     OW91030   9.274   7.095   2.003
96378SOL    HW191031   9.369   7.093   1.999
96378SOL    HW291032   9.246   7.024   1.945
96379SOL     OW91033  12.371   0.643   8.444
96379SOL    HW191034  12.423   0.680   8.373
96379SOL    HW291035  12.311   0.714   8.469
96380SOL     OW91036   2.369   2.549  14.036
96380SOL    HW191037   2.391   2.594  13.954
96380SOL    HW291038   2.280   2.577  14.056
96381SOL     OW91039   3.261   3.957   8.345
96381SOL    HW191040   3.250   4.045   8.310
96381SOL    HW291041   3.332   3.919   8.294
96382SOL     OW91042   0.054  14.490   8.022
96382SOL    HW191043   0.099  14.483   8.107
96382SOL    HW291044   0.124  14.487   7.957
96383SOL     OW91045   5.697   1.753   8.684
96383SOL    HW191046   5.756   1.684   8.654
96383SOL    HW291047   5.693   1.740   8.779
96384SOL     OW91048   9.396   9.217   7.944
96384SOL    HW191049   9.348   9.173   7.874
96384SOL    HW291050   9.329   9.245   8.005
96385SOL     OW91051  12.147  10.376   4.174
96385SOL    HW191052  12.121  10.460   4.211
96385SOL    HW291053  12.107  10.310   4.231
96386SOL     OW91054   7.065   9.450   3.114
96386SOL    HW191055   7.007   9.519   3.082
96386SOL    HW291056   7.087   9.476   3.204
96387SOL     OW91057   2.554   5.261   0.853
96387SOL    HW191058   2.629   5.320   0.852
96387SOL    HW291059   2.491   5.304   0.911
96388SOL     OW91060  13.153   5.936   5.824
96388SOL    HW191061  13.228   5.931   5.883
96388SOL    HW291062  13.160   5.856   5.771
96389SOL     OW91063  13.640   5.751  11.749
96389SOL    HW191064  13.615   5.810  11.678
96389SOL    HW291065  13.572   5.682  11.748
96390SOL     OW91066   3.625   3.284   9.310
96390SOL    HW191067   3.570   3.214   9.346
96390SOL    HW291068   3.645   3.340   9.385
96391SOL     OW91069   1.950  11.537   6.960
96391SOL    HW191070   1.970  11.623   6.924
96391SOL    HW291071   1.902  11.555   7.041
96392SOL     OW91072  10.107  12.413   2.974
96392SOL    HW191073  10.156  12.455   2.903
96392SOL    HW291074  10.157  12.432   3.053
96393SOL     OW91075   7.558  11.043   5.704
96393SOL    HW191076   7.563  11.111   5.636
96393SOL    HW291077   7.650  11.024   5.725
96394SOL     OW91078  13.956   7.959   8.419
96394SOL    HW191079  13.965   8.050   8.391
96394SOL    HW291080  13.986   7.959   8.510
96395SOL     OW91081  13.620   2.027   9.405
96395SOL    HW191082  13.601   2.116   9.434
96395SOL    HW291083  13.547   2.004   9.347
96396SOL     OW91084  12.661   6.920   3.899
96396SOL    HW191085  12.615   6.915   3.983
96396SOL    HW291086  12.747   6.883   3.917
96397SOL     OW91087   2.240   4.310   8.696
96397SOL    HW191088   2.206   4.308   8.785
96397SOL    HW291089   2.258   4.402   8.679
96398SOL     OW91090   5.173   6.276   6.371
96398SOL    HW191091   5.119   6.334   6.425
96398SOL    HW291092   5.111   6.237   6.310
96399SOL     OW91093   0.570   4.778   7.645
96399SOL    HW191094   0.556   4.684   7.638
96399SOL    HW291095   0.650   4.787   7.697
96400SOL     OW91096   8.665   1.358   5.449
96400SOL    HW191097   8.571   1.357   5.434
96400SOL    HW291098   8.684   1.271   5.486
96401SOL     OW91099   6.482  10.235   8.026
96401SOL    HW191100   6.475  10.169   7.957
96401SOL    HW291101   6.391  10.254   8.050
96402SOL     OW91102   1.054   4.921   3.043
96402SOL    HW191103   1.011   4.908   2.959
96402SOL    HW291104   1.112   4.846   3.052
96403SOL     OW91105   5.045  12.888  12.545
96403SOL    HW191106   5.085  12.804  12.520
96403SOL    HW291107   5.098  12.918  12.619
96404SOL     OW91108   6.582   5.693  12.685
96404SOL    HW191109   6.604   5.618  12.630
96404SOL    HW291110   6.624   5.767  12.643
96405SOL     OW91111  13.625  12.147   4.979
96405SOL    HW191112  13.612  12.242   4.979
96405SOL    HW291113  13.693  12.132   4.913
96406SOL     OW91114   5.663   1.655   1.714
96406SOL    HW191115   5.753   1.644   1.683
96406SOL    HW291116   5.625   1.567   1.707
96407SOL     OW91117  12.287   8.523  11.576
96407SOL    HW191118  12.196   8.496  11.585
96407SOL    HW291119  12.334   8.442  11.556
96408SOL     OW91120  13.339  13.664  12.766
96408SOL    HW191121  13.312  13.750  12.734
96408SOL    HW291122  13.393  13.683  12.842
96409SOL     OW91123   0.842  13.490   4.883
96409SOL    HW191124   0.749  13.475   4.866
96409SOL    HW291125   0.844  13.546   4.961
96410SOL     OW91126  10.464   8.623   1.275
96410SOL    HW191127  10.407   8.678   1.221
96410SOL    HW291128  10.510   8.684   1.331
96411SOL     OW91129  12.177   8.681   2.764
96411SOL    HW191130  12.110   8.668   2.697
96411SOL    HW291131  12.259   8.688   2.715
96412SOL     OW91132   5.664   0.281   7.504
96412SOL    HW191133   5.701   0.350   7.449
96412SOL    HW291134   5.738   0.224   7.524
96413SOL     OW91135   3.017   4.513   6.184
96413SOL    HW191136   2.947   4.516   6.119
96413SOL    HW291137   3.087   4.464   6.140
96414SOL     OW91138   4.666   7.850   8.672
96414SOL    HW191139   4.744   7.877   8.722
96414SOL    HW291140   4.628   7.933   8.642
96415SOL     OW91141   1.714   3.408  14.334
96415SOL    HW191142   1.689   3.436  14.246
96415SOL    HW291143   1.631   3.402  14.381
96416SOL     OW91144   9.402   3.931   1.584
96416SOL    HW191145   9.489   3.937   1.624
96416SOL    HW291146   9.348   3.992   1.635
96417SOL     OW91147  13.374   9.047  11.071
96417SOL    HW191148  13.427   9.127  11.065
96417SOL    HW291149  13.302   9.062  11.010
96418SOL     OW91150   2.711   6.430   8.200
96418SOL    HW191151   2.726   6.389   8.115
96418SOL    HW291152   2.635   6.486   8.187
96419SOL     OW91153   0.563  10.837   1.422
96419SOL    HW191154   0.643  10.800   1.384
96419SOL    HW291155   0.576  10.932   1.416
96420SOL     OW91156  12.886   1.457   1.125
96420SOL    HW191157  12.877   1.497   1.039
96420SOL    HW291158  12.851   1.521   1.186
96421SOL     OW91159  10.556  13.609  12.939
96421SOL    HW191160  10.594  13.660  12.867
96421SOL    HW291161  10.464  13.598  12.915
96422SOL     OW91162   3.953   1.846   9.966
96422SOL    HW191163   4.012   1.916   9.997
96422SOL    HW291164   3.925   1.801  10.045
96423SOL     OW91165   6.761   7.232   1.937
96423SOL    HW191166   6.672   7.205   1.915
96423SOL    HW291167   6.818   7.173   1.887
96424SOL     OW91168  14.293  11.277   1.934
96424SOL    HW191169  14.297  11.238   1.847
96424SOL    HW291170  14.277  11.370   1.918
96425SOL     OW91171   4.793   3.706   1.728
96425SOL    HW191172   4.761   3.658   1.651
96425SOL    HW291173   4.870   3.656   1.756
96426SOL     OW91174  13.705   4.227   1.866
96426SOL    HW191175  13.717   4.246   1.960
96426SOL    HW291176  13.725   4.133   1.859
96427SOL     OW91177  12.773   7.497   7.322
96427SOL    HW191178  12.815   7.583   7.317
96427SOL    HW291179  12.757   7.473   7.230
96428SOL     OW91180  14.059  13.032   1.395
96428SOL    HW191181  14.084  13.103   1.453
96428SOL    HW291182  13.964  13.034   1.394
96429SOL     OW91183   5.672   1.356   4.925
96429SOL    HW191184   5.695   1.267   4.952
96429SOL    HW291185   5.581   1.366   4.951
96430SOL     OW91186   5.262  11.275   9.284
96430SOL    HW191187   5.189  11.335   9.294
96430SOL    HW291188   5.293  11.289   9.195
96431SOL     OW91189   4.559   3.734   0.172
96431SOL    HW191190   4.578   3.643   0.196
96431SOL    HW291191   4.543   3.731   0.077
96432SOL     OW91192   8.708  10.837   5.306
96432SOL    HW191193   8.779  10.780   5.276
96432SOL    HW291194   8.654  10.781   5.362
96433SOL     OW91195   5.506   1.262   3.730
96433SOL    HW191196   5.489   1.204   3.656
96433SOL    HW291197   5.448   1.232   3.799
96434SOL     OW91198   5.163   6.288   2.813
96434SOL    HW191199   5.139   6.204   2.852
96434SOL    HW291200   5.134   6.353   2.876
96435SOL     OW91201  14.133  13.771  12.156
96435SOL    HW191202  14.185  13.691  12.148
96435SOL    HW291203  14.109  13.775  12.249
96436SOL     OW91204   5.280   2.834  11.060
96436SOL    HW191205   5.233   2.806  10.982
96436SOL    HW291206   5.264   2.928  11.065
96437SOL     OW91207   1.489   4.476  13.543
96437SOL    HW191208   1.465   4.548  13.485
96437SOL    HW291209   1.405   4.441  13.573
96438SOL     OW91210  11.892  11.585   1.004
96438SOL    HW191211  11.899  11.612   1.095
96438SOL    HW291212  11.819  11.523   1.002
96439SOL     OW91213   1.535  12.657   4.967
96439SOL    HW191214   1.460  12.641   5.024
96439SOL    HW291215   1.595  12.708   5.021
96440SOL     OW91216   7.329  10.541   7.298
96440SOL    HW191217   7.339  10.529   7.203
96440SOL    HW291218   7.261  10.479   7.323
96441SOL     OW91219   7.011   1.391  10.252
96441SOL    HW191220   7.022   1.437  10.169
96441SOL    HW291221   6.940   1.438  10.296
96442SOL     OW91222   9.961   3.738   8.778
96442SOL    HW191223   9.963   3.823   8.735
96442SOL    HW291224   9.875   3.734   8.821
96443SOL     OW91225   8.218   8.056  13.586
96443SOL    HW191226   8.302   8.023  13.617
96443SOL    HW291227   8.209   8.142  13.627
96444SOL     OW91228   1.518   1.884   7.238
96444SOL    HW191229   1.589   1.906   7.178
96444SOL    HW291230   1.558   1.885   7.325
96445SOL     OW91231   1.210   6.780  10.466
96445SOL    HW191232   1.198   6.689  10.493
96445SOL    HW291233   1.161   6.788  10.384
96446SOL     OW91234   4.877   1.211  14.608
96446SOL    HW191235   4.961   1.176  14.637
96446SOL    HW291236   4.849   1.151  14.539
96447SOL     OW91237  11.203   5.448   1.830
96447SOL    HW191238  11.199   5.420   1.921
96447SOL    HW291239  11.222   5.367   1.782
96448SOL     OW91240   4.497   8.544   3.255
96448SOL    HW191241   4.586   8.569   3.229
96448SOL    HW291242   4.487   8.454   3.224
96449SOL     OW91243  10.946   4.750  10.883
96449SOL    HW191244  10.940   4.793  10.968
96449SOL    HW291245  11.029   4.701  10.887
96450SOL     OW91246   4.656   6.661  10.356
96450SOL    HW191247   4.583   6.607  10.325
96450SOL    HW291248   4.617   6.721  10.419
96451SOL     OW91249  10.081   5.560  11.272
96451SOL    HW191250  10.020   5.578  11.344
96451SOL    HW291251  10.038   5.598  11.195
96452SOL     OW91252   4.146   1.358   7.144
96452SOL    HW191253   4.191   1.361   7.228
96452SOL    HW291254   4.141   1.265   7.122
96453SOL     OW91255  11.451   5.538   2.676
96453SOL    HW191256  11.401   5.459   2.660
96453SOL    HW291257  11.465   5.540   2.771
96454SOL     OW91258   7.158   7.952  13.732
96454SOL    HW191259   7.200   7.880  13.780
96454SOL    HW291260   7.155   8.024  13.796
96455SOL     OW91261   4.132   4.148  14.131
96455SOL    HW191262   4.038   4.131  14.138
96455SOL    HW291263   4.171   4.098  14.203
96456SOL     OW91264  10.536  14.876   7.167
96456SOL    HW191265  10.617   0.013   7.214
96456SOL    HW291266  10.552   0.023   7.077
96457SOL     OW91267  14.537   2.708   0.851
96457SOL    HW191268  14.625   2.724   0.817
96457SOL    HW291269  14.526   2.772   0.922
96458SOL     OW91270   7.238   8.768   3.794
96458SOL    HW191271   7.279   8.771   3.708
96458SOL    HW291272   7.149   8.737   3.777
96459SOL     OW91273  10.070  10.533   2.422
96459SOL    HW191274  10.114  10.536   2.337
96459SOL    HW291275  10.052  10.625   2.443
96460SOL     OW91276   7.512   2.606  13.000
96460SOL    HW191277   7.499   2.653  13.082
96460SOL    HW291278   7.604   2.581  13.001
96461SOL     OW91279   8.002   5.555   3.106
96461SOL    HW191280   8.012   5.650   3.101
96461SOL    HW291281   8.068   5.527   3.170
96462SOL     OW91282   1.288  12.059   2.292
96462SOL    HW191283   1.266  12.138   2.242
96462SOL    HW291284   1.204  12.032   2.330
96463SOL     OW91285   2.353   5.022   3.159
96463SOL    HW191286   2.387   5.098   3.206
96463SOL    HW291287   2.420   4.955   3.171
96464SOL     OW91288   5.000   1.061   7.238
96464SOL    HW191289   5.011   1.126   7.169
96464SOL    HW291290   4.976   0.981   7.192
96465SOL     OW91291  11.959  11.531   3.713
96465SOL    HW191292  12.028  11.596   3.719
96465SOL    HW291293  11.974  11.473   3.788
96466SOL     OW91294  11.711   5.240   7.685
96466SOL    HW191295  11.795   5.193   7.685
96466SOL    HW291296  11.708   5.284   7.770
96467SOL     OW91297   7.424  12.504   8.051
96467SOL    HW191298   7.360  12.534   7.986
96467SOL    HW291299   7.371  12.464   8.120
96468SOL     OW91300  14.026   4.396   4.175
96468SOL    HW191301  14.069   4.455   4.113
96468SOL    HW291302  13.932   4.408   4.159
96469SOL     OW91303   4.349   6.066   7.215
96469SOL    HW191304   4.302   5.999   7.164
96469SOL    HW291305   4.338   6.038   7.306
96470SOL     OW91306   2.611  12.218   7.839
96470SOL    HW191307   2.645  12.132   7.814
96470SOL    HW291308   2.518  12.203   7.855
96471SOL     OW91309   3.423   7.748   3.731
96471SOL    HW191310   3.355   7.724   3.794
96471SOL    HW291311   3.502   7.759   3.783
96472SOL     OW91312   8.531   4.445  14.004
96472SOL    HW191313   8.472   4.374  13.976
96472SOL    HW291314   8.473   4.521  14.013
96473SOL     OW91315   2.641   7.202  14.503
96473SOL    HW191316   2.690   7.233  14.427
96473SOL    HW291317   2.575   7.269  14.518
96474SOL     OW91318   8.772  10.162  11.073
96474SOL    HW191319   8.810  10.165  11.161
96474SOL    HW291320   8.768  10.253  11.045
96475SOL     OW91321  10.140   4.301   0.580
96475SOL    HW191322  10.066   4.357   0.601
96475SOL    HW291323  10.160   4.255   0.662
96476SOL     OW91324   7.097   3.435  13.408
96476SOL    HW191325   7.133   3.478  13.331
96476SOL    HW291326   7.162   3.370  13.433
96477SOL     OW91327   1.485  14.522  10.946
96477SOL    HW191328   1.396  14.486  10.941
96477SOL    HW291329   1.521  14.485  11.027
96478SOL     OW91330   4.489  10.355   0.456
96478SOL    HW191331   4.575  10.389   0.434
96478SOL    HW291332   4.443  10.429   0.495
96479SOL     OW91333  10.077   9.177   0.391
96479SOL    HW191334  10.108   9.105   0.445
96479SOL    HW291335   9.986   9.191   0.419
96480SOL     OW91336   8.156   1.738   9.895
96480SOL    HW191337   8.172   1.643   9.901
96480SOL    HW291338   8.195   1.773   9.975
96481SOL     OW91339   2.709  13.448   2.373
96481SOL    HW191340   2.653  13.398   2.432
96481SOL    HW291341   2.719  13.392   2.296
96482SOL     OW91342   2.766  12.144   8.302
96482SOL    HW191343   2.834  12.108   8.245
96482SOL    HW291344   2.700  12.074   8.307
96483SOL     OW91345   8.850   1.299   0.063
96483SOL    HW191346   8.781   1.251   0.016
96483SOL    HW291347   8.807   1.379   0.094
96484SOL     OW91348  10.776   8.954   6.180
96484SOL    HW191349  10.863   8.985   6.205
96484SOL    HW291350  10.724   8.962   6.260
96485SOL     OW91351  10.156   4.785  13.908
96485SOL    HW191352  10.145   4.706  13.961
96485SOL    HW291353  10.162   4.856  13.972
96486SOL     OW91354   5.082  12.439   0.246
96486SOL    HW191355   5.025  12.484   0.309
96486SOL    HW291356   5.128  12.373   0.298
96487SOL     OW91357  14.702  12.479  12.209
96487SOL    HW191358  14.673  12.469  12.299
96487SOL    HW291359  14.734  12.569  12.204
96488SOL     OW91360  12.124  11.882   1.967
96488SOL    HW191361  12.056  11.883   2.034
96488SOL    HW291362  12.084  11.927   1.892
96489SOL     OW91363   9.832  14.316   6.541
96489SOL    HW191364   9.859  14.344   6.454
96489SOL    HW291365   9.904  14.261   6.572
96490SOL     OW91366   7.173   7.256   2.552
96490SOL    HW191367   7.250   7.309   2.534
96490SOL    HW291368   7.144   7.224   2.467
96491SOL     OW91369  13.188   2.898   2.520
96491SOL    HW191370  13.171   2.870   2.430
96491SOL    HW291371  13.241   2.977   2.511
96492SOL     OW91372   2.399  10.707   8.132
96492SOL    HW191373   2.312  10.676   8.106
96492SOL    HW291374   2.456  10.632   8.120
96493SOL     OW91375  10.266  12.461   3.215
96493SOL    HW191376  10.265  12.429   3.305
96493SOL    HW291377  10.197  12.527   3.212
96494SOL     OW91378   7.471   7.900   2.388
96494SOL    HW191379   7.439   7.926   2.475
96494SOL    HW291380   7.419   7.951   2.327
96495SOL     OW91381  13.039   3.660  10.113
96495SOL    HW191382  12.949   3.650  10.144
96495SOL    HW291383  13.031   3.671  10.018
96496SOL     OW91384  13.974   7.316   3.330
96496SOL    HW191385  13.948   7.305   3.422
96496SOL    HW291386  13.903   7.369   3.292
96497SOL     OW91387   3.304  11.686   4.453
96497SOL    HW191388   3.365  11.759   4.470
96497SOL    HW291389   3.287  11.691   4.359
96498SOL     OW91390   7.920   4.035   7.062
96498SOL    HW191391   7.985   3.991   7.117
96498SOL    HW291392   7.952   4.024   6.973
96499SOL     OW91393  10.291  10.011  10.610
96499SOL    HW191394  10.251   9.991  10.694
96499SOL    HW291395  10.273  10.103  10.595
96500SOL     OW91396   7.441   7.636   3.244
96500SOL    HW191397   7.396   7.556   3.271
96500SOL    HW291398   7.433   7.637   3.148
96501SOL     OW91399   6.793   6.104   4.522
96501SOL    HW191400   6.858   6.092   4.592
96501SOL    HW291401   6.812   6.191   4.487
96502SOL     OW91402   5.905   4.512   1.619
96502SOL    HW191403   5.863   4.489   1.702
96502SOL    HW291404   5.993   4.540   1.644
96503SOL     OW91405  10.537  11.907   1.465
96503SOL    HW191406  10.493  11.920   1.380
96503SOL    HW291407  10.601  11.978   1.470
96504SOL     OW91408   0.588   8.624   0.675
96504SOL    HW191409   0.517   8.570   0.709
96504SOL    HW291410   0.648   8.633   0.749
96505SOL     OW91411   7.271  12.983  13.922
96505SOL    HW191412   7.179  13.000  13.945
96505SOL    HW291413   7.294  12.903  13.969
96506SOL     OW91414  11.893   6.430  12.769
96506SOL    HW191415  11.908   6.358  12.830
96506SOL    HW291416  11.842   6.494  12.820
96507SOL     OW91417   0.316  14.126   5.677
96507SOL    HW191418   0.386  14.191   5.680
96507SOL    HW291419   0.358  14.045   5.649
96508SOL     OW91420   9.561   4.076   6.387
96508SOL    HW191421   9.645   4.032   6.375
96508SOL    HW291422   9.567   4.154   6.331
96509SOL     OW91423   5.436   5.344   4.995
96509SOL    HW191424   5.455   5.378   4.907
96509SOL    HW291425   5.501   5.387   5.052
96510SOL     OW91426   1.823  13.288   8.635
96510SOL    HW191427   1.907  13.241   8.637
96510SOL    HW291428   1.802  13.301   8.728
96511SOL     OW91429   4.124   8.528   1.175
96511SOL    HW191430   4.073   8.472   1.233
96511SOL    HW291431   4.118   8.486   1.089
96512SOL     OW91432   7.099  13.773   1.550
96512SOL    HW191433   7.097  13.856   1.502
96512SOL    HW291434   7.020  13.727   1.523
96513SOL     OW91435   1.601   9.244   7.640
96513SOL    HW191436   1.518   9.201   7.660
96513SOL    HW291437   1.655   9.175   7.600
96514SOL     OW91438  12.993  11.326   2.319
96514SOL    HW191439  12.941  11.380   2.378
96514SOL    HW291440  13.057  11.387   2.281
96515SOL     OW91441  11.725  10.737   0.871
96515SOL    HW191442  11.745  10.754   0.780
96515SOL    HW291443  11.670  10.659   0.870
96516SOL     OW91444   5.041  14.095   9.640
96516SOL    HW191445   5.031  14.190   9.647
96516SOL    HW291446   5.131  14.077   9.665
96517SOL     OW91447   9.938   5.499   2.776
96517SOL    HW191448   9.853   5.494   2.819
96517SOL    HW291449   9.977   5.579   2.810
96518SOL     OW91450   0.272   6.877  13.009
96518SOL    HW191451   0.251   6.798  12.959
96518SOL    HW291452   0.204   6.881  13.077
96519SOL     OW91453   4.041  14.122   7.736
96519SOL    HW191454   4.108  14.092   7.796
96519SOL    HW291455   4.089  14.172   7.669
96520SOL     OW91456   8.232  13.493   5.589
96520SOL    HW191457   8.172  13.439   5.538
96520SOL    HW291458   8.175  13.548   5.643
96521SOL     OW91459  14.124   0.633   7.514
96521SOL    HW191460  14.186   0.693   7.556
96521SOL    HW291461  14.051   0.626   7.576
96522SOL     OW91462   2.276   7.922   2.737
96522SOL    HW191463   2.325   7.997   2.773
96522SOL    HW291464   2.330   7.892   2.664
96523SOL     OW91465   6.034   1.317   4.531
96523SOL    HW191466   6.122   1.316   4.494
96523SOL    HW291467   6.044   1.273   4.616
96524SOL     OW91468  14.689   9.290   4.611
96524SOL    HW191469  14.725   9.205   4.634
96524SOL    HW291470  14.752   9.327   4.549
96525SOL     OW91471   4.819   9.610   7.177
96525SOL    HW191472   4.748   9.666   7.146
96525SOL    HW291473   4.893   9.631   7.120
96526SOL     OW91474   5.103   7.505   4.545
96526SOL    HW191475   5.154   7.567   4.598
96526SOL    HW291476   5.012   7.526   4.564
96527SOL     OW91477   8.221   1.790   9.031
96527SOL    HW191478   8.254   1.765   8.944
96527SOL    HW291479   8.132   1.756   9.034
96528SOL     OW91480  13.792  10.187   2.442
96528SOL    HW191481  13.780  10.276   2.407
96528SOL    HW291482  13.785  10.198   2.537
96529SOL     OW91483  12.253   2.319   4.865
96529SOL    HW191484  12.223   2.264   4.938
96529SOL    HW291485  12.275   2.256   4.796
96530SOL     OW91486   7.747   9.017   0.336
96530SOL    HW191487   7.697   9.089   0.374
96530SOL    HW291488   7.727   9.021   0.243
96531SOL     OW91489   3.713   1.089   7.419
96531SOL    HW191490   3.759   1.171   7.439
96531SOL    HW291491   3.643   1.085   7.484
96532SOL     OW91492   8.566   9.268  13.998
96532SOL    HW191493   8.612   9.216  14.064
96532SOL    HW291494   8.555   9.208  13.924
96533SOL     OW91495  14.630  13.451   6.247
96533SOL    HW191496  14.563  13.391   6.216
96533SOL    HW291497  14.713  13.408   6.226
96534SOL     OW91498   0.629   5.813   9.843
96534SOL    HW191499   0.652   5.826   9.752
96534SOL    HW291500   0.534   5.826   9.846
96535SOL     OW91501  10.759   6.144   2.584
96535SOL    HW191502  10.736   6.222   2.534
96535SOL    HW291503  10.817   6.176   2.653
96536SOL     OW91504   1.168  11.153   2.317
96536SOL    HW191505   1.225  11.160   2.240
96536SOL    HW291506   1.122  11.070   2.306
96537SOL     OW91507  14.438   5.611  14.073
96537SOL    HW191508  14.423   5.534  14.019
96537SOL    HW291509  14.400   5.587  14.158
96538SOL     OW91510   1.586  11.983   9.744
96538SOL    HW191511   1.537  12.047   9.692
96538SOL    HW291512   1.623  11.923   9.680
96539SOL     OW91513   0.250   5.199   0.773
96539SOL    HW191514   0.184   5.268   0.782
96539SOL    HW291515   0.331   5.246   0.753
96540SOL     OW91516   8.688   0.023   8.868
96540SOL    HW191517   8.639   0.080   8.809
96540SOL    HW291518   8.780   0.032   8.840
96541SOL     OW91519  10.652   9.978   2.976
96541SOL    HW191520  10.631   9.951   2.886
96541SOL    HW291521  10.708   9.908   3.009
96542SOL     OW91522   3.762  12.788   2.755
96542SOL    HW191523   3.738  12.737   2.832
96542SOL    HW291524   3.806  12.724   2.697
96543SOL     OW91525  11.362   5.708   6.800
96543SOL    HW191526  11.317   5.777   6.850
96543SOL    HW291527  11.315   5.705   6.717
96544SOL     OW91528   4.332   3.167   2.776
96544SOL    HW191529   4.330   3.072   2.787
96544SOL    HW291530   4.243   3.196   2.793
96545SOL     OW91531  14.741   2.998   4.327
96545SOL    HW191532  14.725   2.925   4.386
96545SOL    HW291533  14.731   2.961   4.239
96546SOL     OW91534  10.540  14.860   4.790
96546SOL    HW191535  10.496  14.778   4.769
96546SOL    HW291536  10.600  14.837   4.861
96547SOL     OW91537  10.528   8.632   9.885
96547SOL    HW191538  10.496   8.601   9.800
96547SOL    HW291539  10.614   8.590   9.895
96548SOL     OW91540  10.560  14.067  14.414
96548SOL    HW191541  10.558  13.974  14.389
96548SOL    HW291542  10.528  14.113  14.336
96549SOL     OW91543   9.234   7.164   7.139
96549SOL    HW191544   9.193   7.130   7.219
96549SOL    HW291545   9.171   7.229   7.106
96550SOL     OW91546  10.056   5.032  10.129
96550SOL    HW191547  10.058   5.111  10.075
96550SOL    HW291548   9.968   5.032  10.167
96551SOL     OW91549   6.298  12.315   1.673
96551SOL    HW191550   6.356  12.256   1.722
96551SOL    HW291551   6.309  12.400   1.715
96552SOL     OW91552   4.194   8.133   8.960
96552SOL    HW191553   4.111   8.105   8.997
96552SOL    HW291554   4.235   8.053   8.929
96553SOL     OW91555   7.109   9.310  11.269
96553SOL    HW191556   7.171   9.379  11.293
96553SOL    HW291557   7.075   9.277  11.352
96554SOL     OW91558  13.195  10.460   5.058
96554SOL    HW191559  13.241  10.403   4.997
96554SOL    HW291560  13.169  10.535   5.006
96555SOL     OW91561  12.877   3.192   8.239
96555SOL    HW191562  12.868   3.239   8.323
96555SOL    HW291563  12.963   3.150   8.245
96556SOL     OW91564   4.521  13.828   2.715
96556SOL    HW191565   4.556  13.750   2.758
96556SOL    HW291566   4.468  13.794   2.643
96557SOL     OW91567  14.652   1.814   7.225
96557SOL    HW191568  14.575   1.794   7.171
96557SOL    HW291569  14.633   1.900   7.262
96558SOL     OW91570   7.047  11.979   7.209
96558SOL    HW191571   7.113  11.917   7.241
96558SOL    HW291572   7.052  11.972   7.114
96559SOL     OW91573   7.876   6.303   1.509
96559SOL    HW191574   7.788   6.269   1.496
96559SOL    HW291575   7.874   6.343   1.596
96560SOL     OW91576  12.892  14.758   6.259
96560SOL    HW191577  12.880  14.663   6.260
96560SOL    HW291578  12.981  14.772   6.291
96561SOL     OW91579   4.374   2.092   1.887
96561SOL    HW191580   4.444   2.026   1.891
96561SOL    HW291581   4.385   2.133   1.802
96562SOL     OW91582   9.630   5.184   0.896
96562SOL    HW191583   9.696   5.245   0.929
96562SOL    HW291584   9.670   5.147   0.816
96563SOL     OW91585  13.369  10.298   9.075
96563SOL    HW191586  13.283  10.267   9.107
96563SOL    HW291587  13.398  10.359   9.142
96564SOL     OW91588  12.723  12.099  11.721
96564SOL    HW191589  12.791  12.098  11.789
96564SOL    HW291590  12.652  12.150  11.759
96565SOL     OW91591  14.779   9.973  10.071
96565SOL    HW191592  14.750   9.922   9.996
96565SOL    HW291593  14.861  10.014  10.042
96566SOL     OW91594   5.085  13.687   0.523
96566SOL    HW191595   5.153  13.628   0.491
96566SOL    HW291596   5.096  13.767   0.472
96567SOL     OW91597  12.942   0.832   1.695
96567SOL    HW191598  12.920   0.916   1.735
96567SOL    HW291599  12.878   0.770   1.733
96568SOL     OW91600  14.724   2.291   7.950
96568SOL    HW191601  14.648   2.243   7.984
96568SOL    HW291602  14.712   2.380   7.982
96569SOL     OW91603   5.515  13.182  14.000
96569SOL    HW191604   5.467  13.203  14.080
96569SOL    HW291605   5.479  13.097  13.973
96570SOL     OW91606  10.457   9.959   7.885
96570SOL    HW191607  10.407   9.881   7.910
96570SOL    HW291608  10.499   9.934   7.802
96571SOL     OW91609  10.089   5.187   5.899
96571SOL    HW191610  10.065   5.128   5.970
96571SOL    HW291611  10.006   5.210   5.858
96572SOL     OW91612   8.809   2.885  14.448
96572SOL    HW191613   8.741   2.817  14.453
96572SOL    HW291614   8.762   2.964  14.422
96573SOL     OW91615  13.419   6.411  13.509
96573SOL    HW191616  13.377   6.453  13.433
96573SOL    HW291617  13.447   6.326  13.476
96574SOL     OW91618  14.733   4.810   0.484
96574SOL    HW191619  14.765   4.821   0.574
96574SOL    HW291620  14.648   4.767   0.494
96575SOL     OW91621   6.231  10.796  12.580
96575SOL    HW191622   6.150  10.756  12.612
96575SOL    HW291623   6.263  10.735  12.513
96576SOL     OW91624   9.863   4.042   9.850
96576SOL    HW191625   9.815   4.115   9.810
96576SOL    HW291626   9.863   4.062   9.944
96577SOL     OW91627   5.570   4.399  10.177
96577SOL    HW191628   5.616   4.335  10.123
96577SOL    HW291629   5.547   4.351  10.257
96578SOL     OW91630  13.165   7.541   7.876
96578SOL    HW191631  13.202   7.454   7.862
96578SOL    HW291632  13.074   7.533   7.848
96579SOL     OW91633   6.735   1.529   8.847
96579SOL    HW191634   6.768   1.441   8.863
96579SOL    HW291635   6.806   1.587   8.874
96580SOL     OW91636   4.732   2.174   3.852
96580SOL    HW191637   4.761   2.259   3.818
96580SOL    HW291638   4.742   2.114   3.778
96581SOL     OW91639  10.691   1.423   0.573
96581SOL    HW191640  10.741   1.405   0.652
96581SOL    HW291641  10.640   1.343   0.558
96582SOL     OW91642  11.644   4.533   3.346
96582SOL    HW191643  11.607   4.452   3.381
96582SOL    HW291644  11.578   4.600   3.365
96583SOL     OW91645   9.806   8.057  14.298
96583SOL    HW191646   9.783   7.965  14.291
96583SOL    HW291647   9.764   8.086  14.379
96584SOL     OW91648   0.750  10.601   4.210
96584SOL    HW191649   0.655  10.601   4.203
96584SOL    HW291650   0.768  10.596   4.304
96585SOL     OW91651   1.245   2.163   9.499
96585SOL    HW191652   1.278   2.078   9.469
96585SOL    HW291653   1.278   2.225   9.434
96586SOL     OW91654  12.288  11.644   6.253
96586SOL    HW191655  12.221  11.579   6.277
96586SOL    HW291656  12.247  11.695   6.183
96587SOL     OW91657   2.832   2.310   9.142
96587SOL    HW191658   2.789   2.386   9.103
96587SOL    HW291659   2.856   2.338   9.231
96588SOL     OW91660   1.244   1.035   1.089
96588SOL    HW191661   1.209   1.113   1.046
96588SOL    HW291662   1.261   1.063   1.179
96589SOL     OW91663   9.380   1.160   8.223
96589SOL    HW191664   9.439   1.104   8.274
96589SOL    HW291665   9.297   1.157   8.272
96590SOL     OW91666   9.981   8.370  13.790
96590SOL    HW191667  10.044   8.304  13.817
96590SOL    HW291668  10.029   8.453  13.796
96591SOL     OW91669   8.336   2.247   3.581
96591SOL    HW191670   8.255   2.220   3.626
96591SOL    HW291671   8.311   2.326   3.534
96592SOL     OW91672  13.042  10.877  12.082
96592SOL    HW191673  13.082  10.925  12.009
96592SOL    HW291674  13.071  10.924  12.160
96593SOL     OW91675  12.248  10.203   2.452
96593SOL    HW191676  12.241  10.146   2.375
96593SOL    HW291677  12.294  10.151   2.517
96594SOL     OW91678   8.377   9.314   7.324
96594SOL    HW191679   8.405   9.256   7.394
96594SOL    HW291680   8.458   9.341   7.281
96595SOL     OW91681  13.671   9.371   2.623
96595SOL    HW191682  13.697   9.400   2.535
96595SOL    HW291683  13.650   9.278   2.612
96596SOL     OW91684   7.649   9.016  11.103
96596SOL    HW191685   7.559   9.031  11.074
96596SOL    HW291686   7.641   8.955  11.177
96597SOL     OW91687   2.123   2.111   5.912
96597SOL    HW191688   2.185   2.149   5.974
96597SOL    HW291689   2.050   2.081   5.967
96598SOL     OW91690   9.921   7.211   3.375
96598SOL    HW191691   9.835   7.205   3.333
96598SOL    HW291692   9.976   7.152   3.323
96599SOL     OW91693  10.965   4.313  13.659
96599SOL    HW191694  11.047   4.359  13.646
96599SOL    HW291695  10.928   4.303  13.571
96600SOL     OW91696   7.905   2.313   6.423
96600SOL    HW191697   7.915   2.254   6.348
96600SOL    HW291698   7.811   2.317   6.438
96601SOL     OW91699   2.078  12.320   0.535
96601SOL    HW191700   2.108  12.406   0.505
96601SOL    HW291701   2.020  12.339   0.608
96602SOL     OW91702   6.308  10.377  14.043
96602SOL    HW191703   6.324  10.446  14.108
96602SOL    HW291704   6.234  10.328  14.078
96603SOL     OW91705   4.081   0.638  14.835
96603SOL    HW191706   4.091   0.578   0.027
96603SOL    HW291707   4.154   0.616  14.777
96604SOL     OW91708   5.622   0.003  11.831
96604SOL    HW191709   5.546   0.049  11.796
96604SOL    HW291710   5.697   0.057  11.806
96605SOL     OW91711  11.777   6.953   4.552
96605SOL    HW191712  11.700   6.913   4.511
96605SOL    HW291713  11.763   7.047   4.543
96606SOL     OW91714   2.712   1.337   6.528
96606SOL    HW191715   2.671   1.284   6.460
96606SOL    HW291716   2.639   1.363   6.585
96607SOL     OW91717  12.506  14.617  13.285
96607SOL    HW191718  12.562  14.543  13.260
96607SOL    HW291719  12.542  14.648  13.368
96608SOL     OW91720   1.045  13.744   7.959
96608SOL    HW191721   1.125  13.708   7.919
96608SOL    HW291722   0.974  13.695   7.918
96609SOL     OW91723   1.047   0.363   3.717
96609SOL    HW191724   0.968   0.374   3.769
96609SOL    HW291725   1.118   0.362   3.781
96610SOL     OW91726   4.606   3.481   0.917
96610SOL    HW191727   4.570   3.550   0.973
96610SOL    HW291728   4.688   3.519   0.883
96611SOL     OW91729  14.469   2.541  12.368
96611SOL    HW191730  14.401   2.509  12.427
96611SOL    HW291731  14.537   2.575  12.426
96612SOL     OW91732   1.590  14.271   6.315
96612SOL    HW191733   1.569  14.292   6.224
96612SOL    HW291734   1.505  14.252   6.355
96613SOL     OW91735   1.645   8.062   9.424
96613SOL    HW191736   1.654   8.037   9.516
96613SOL    HW291737   1.639   8.158   9.426
96614SOL     OW91738   6.875   9.552  10.162
96614SOL    HW191739   6.804   9.614  10.172
96614SOL    HW291740   6.955   9.605  10.166
96615SOL     OW91741   6.435  14.110   2.111
96615SOL    HW191742   6.528  14.099   2.090
96615SOL    HW291743   6.434  14.182   2.174
96616SOL     OW91744  13.253   8.571   5.601
96616SOL    HW191745  13.165   8.595   5.630
96616SOL    HW291746  13.311   8.599   5.672
96617SOL     OW91747  10.788   9.262  13.329
96617SOL    HW191748  10.694   9.276  13.324
96617SOL    HW291749  10.826   9.339  13.289
96618SOL     OW91750  14.831  14.398  12.094
96618SOL    HW191751   0.012  14.447  12.146
96618SOL    HW291752  14.866  14.400  12.005
96619SOL     OW91753   6.206  12.522   5.546
96619SOL    HW191754   6.191  12.612   5.574
96619SOL    HW291755   6.239  12.530   5.456
96620SOL     OW91756  14.437  14.378  11.701
96620SOL    HW191757  14.467  14.298  11.658
96620SOL    HW291758  14.471  14.449  11.646
96621SOL     OW91759   2.380  12.386   2.142
96621SOL    HW191760   2.329  12.359   2.066
96621SOL    HW291761   2.337  12.343   2.216
96622SOL     OW91762  10.197   1.359   2.012
96622SOL    HW191763  10.192   1.278   2.063
96622SOL    HW291764  10.165   1.427   2.072
96623SOL     OW91765   9.514  10.116   6.583
96623SOL    HW191766   9.484  10.154   6.501
96623SOL    HW291767   9.434  10.083   6.625
96624SOL     OW91768  12.857   6.925  10.327
96624SOL    HW191769  12.910   6.994  10.368
96624SOL    HW291770  12.805   6.890  10.399
96625SOL     OW91771   4.654   4.804  12.020
96625SOL    HW191772   4.695   4.888  12.044
96625SOL    HW291773   4.589   4.828  11.954
96626SOL     OW91774   1.026   4.057   4.394
96626SOL    HW191775   0.989   4.002   4.324
96626SOL    HW291776   0.996   4.145   4.373
96627SOL     OW91777   4.587  12.603   6.922
96627SOL    HW191778   4.507  12.627   6.970
96627SOL    HW291779   4.622  12.685   6.889
96628SOL     OW91780   6.223   5.467  11.005
96628SOL    HW191781   6.274   5.386  10.997
96628SOL    HW291782   6.143   5.450  10.955
96629SOL     OW91783   6.936   7.699   6.380
96629SOL    HW191784   6.995   7.753   6.328
96629SOL    HW291785   6.972   7.701   6.469
96630SOL     OW91786   9.257   8.171   0.621
96630SOL    HW191787   9.282   8.187   0.712
96630SOL    HW291788   9.164   8.151   0.625
96631SOL     OW91789   7.811  11.182   2.794
96631SOL    HW191790   7.720  11.163   2.816
96631SOL    HW291791   7.862  11.131   2.856
96632SOL     OW91792  14.220   2.221   0.135
96632SOL    HW191793  14.192   2.310   0.112
96632SOL    HW291794  14.237   2.178   0.051
96633SOL     OW91795   1.053   6.434   2.298
96633SOL    HW191796   1.079   6.525   2.284
96633SOL    HW291797   1.135   6.384   2.290
96634SOL     OW91798   2.014  13.265   9.933
96634SOL    HW191799   1.930  13.308   9.922
96634SOL    HW291800   2.078  13.327   9.897
96635SOL     OW91801  14.260  12.257   4.540
96635SOL    HW191802  14.274  12.178   4.487
96635SOL    HW291803  14.343  12.270   4.586
96636SOL     OW91804  14.304   2.032   5.866
96636SOL    HW191805  14.373   2.021   5.800
96636SOL    HW291806  14.251   2.105   5.833
96637SOL     OW91807   8.823   5.734   9.701
96637SOL    HW191808   8.738   5.695   9.721
96637SOL    HW291809   8.863   5.747   9.787
96638SOL     OW91810  14.575   9.407   9.838
96638SOL    HW191811  14.569   9.332   9.897
96638SOL    HW291812  14.543   9.481   9.889
96639SOL     OW91813  11.282   8.217  12.455
96639SOL    HW191814  11.370   8.238  12.422
96639SOL    HW291815  11.224   8.270  12.402
96640SOL     OW91816   8.386   6.923  12.661
96640SOL    HW191817   8.456   6.924  12.597
96640SOL    HW291818   8.335   7.001  12.643
96641SOL     OW91819   6.116   0.603  13.167
96641SOL    HW191820   6.183   0.608  13.236
96641SOL    HW291821   6.167   0.592  13.086
96642SOL     OW91822   0.908   4.348   7.034
96642SOL    HW191823   0.996   4.331   7.068
96642SOL    HW291824   0.896   4.442   7.042
96643SOL     OW91825  11.797  13.945   7.052
96643SOL    HW191826  11.744  13.996   6.991
96643SOL    HW291827  11.846  14.011   7.101
96644SOL     OW91828   0.753   9.617  13.573
96644SOL    HW191829   0.750   9.521  13.581
96644SOL    HW291830   0.751   9.633  13.479
96645SOL     OW91831   0.792   1.739  10.704
96645SOL    HW191832   0.723   1.743  10.638
96645SOL    HW291833   0.867   1.700  10.659
96646SOL     OW91834  12.514  14.272   7.107
96646SOL    HW191835  12.590  14.301   7.157
96646SOL    HW291836  12.545  14.198   7.056
96647SOL     OW91837  10.584   2.418   4.427
96647SOL    HW191838  10.620   2.350   4.371
96647SOL    HW291839  10.615   2.396   4.515
96648SOL     OW91840   6.334  12.456   4.769
96648SOL    HW191841   6.400  12.396   4.803
96648SOL    HW291842   6.263  12.454   4.834
96649SOL     OW91843   5.519   4.574  11.558
96649SOL    HW191844   5.430   4.559  11.590
96649SOL    HW291845   5.531   4.669  11.562
96650SOL     OW91846   2.044  13.983  13.756
96650SOL    HW191847   2.041  14.033  13.675
96650SOL    HW291848   2.015  13.896  13.731
96651SOL     OW91849   3.331   3.148  10.412
96651SOL    HW191850   3.360   3.233  10.446
96651SOL    HW291851   3.309   3.097  10.490
96652SOL     OW91852   1.026   4.602   9.610
96652SOL    HW191853   1.014   4.646   9.694
96652SOL    HW291854   1.057   4.671   9.551
96653SOL     OW91855   9.273   3.312   8.808
96653SOL    HW191856   9.362   3.281   8.795
96653SOL    HW291857   9.220   3.259   8.747
96654SOL     OW91858   4.013   4.425  14.648
96654SOL    HW191859   3.921   4.397  14.641
96654SOL    HW291860   4.009   4.511  14.690
96655SOL     OW91861   1.478   3.863   9.302
96655SOL    HW191862   1.391   3.885   9.268
96655SOL    HW291863   1.518   3.811   9.233
96656SOL     OW91864   7.935  10.502   1.518
96656SOL    HW191865   7.886  10.450   1.455
96656SOL    HW291866   7.992  10.557   1.464
96657SOL     OW91867  14.211   1.281  13.139
96657SOL    HW191868  14.259   1.270  13.057
96657SOL    HW291869  14.237   1.367  13.171
96658SOL     OW91870   7.826  13.845   6.430
96658SOL    HW191871   7.799  13.778   6.493
96658SOL    HW291872   7.905  13.809   6.390
96659SOL     OW91873   9.755   7.341   2.075
96659SOL    HW191874   9.673   7.389   2.087
96659SOL    HW291875   9.787   7.326   2.164
96660SOL     OW91876  12.766   4.680   3.304
96660SOL    HW191877  12.681   4.643   3.282
96660SOL    HW291878  12.830   4.622   3.261
96661SOL     OW91879   2.864   3.190  14.766
96661SOL    HW191880   2.867   3.237  14.683
96661SOL    HW291881   2.777   3.149  14.768
96662SOL     OW91882   4.851  11.529  11.181
96662SOL    HW191883   4.918  11.575  11.232
96662SOL    HW291884   4.893  11.448  11.154
96663SOL     OW91885   0.202  10.768   7.482
96663SOL    HW191886   0.286  10.752   7.438
96663SOL    HW291887   0.136  10.748   7.415
96664SOL     OW91888   1.874   0.936   0.151
96664SOL    HW191889   1.848   0.899   0.067
96664SOL    HW291890   1.902   0.860   0.203
96665SOL     OW91891  13.035  14.453   0.493
96665SOL    HW191892  13.019  14.499   0.576
96665SOL    HW291893  13.129  14.465   0.477
96666SOL     OW91894   7.686  14.863   1.801
96666SOL    HW191895   7.641  14.780   1.816
96666SOL    HW291896   7.622   0.034   1.753
96667SOL     OW91897   5.191  14.874   6.723
96667SOL    HW191898   5.236  14.847   6.803
96667SOL    HW291899   5.255   0.044   6.675
96668SOL     OW91900   3.772   6.675   7.286
96668SOL    HW191901   3.759   6.767   7.310
96668SOL    HW291902   3.744   6.626   7.363
96669SOL     OW91903   1.197  13.876   1.587
96669SOL    HW191904   1.212  13.785   1.561
96669SOL    HW291905   1.157  13.917   1.510
96670SOL     OW91906   1.814   3.839  11.117
96670SOL    HW191907   1.758   3.774  11.076
96670SOL    HW291908   1.795   3.833  11.210
96671SOL     OW91909   6.659   7.330   7.256
96671SOL    HW191910   6.722   7.375   7.200
96671SOL    HW291911   6.648   7.244   7.216
96672SOL     OW91912   5.968   0.078  12.597
96672SOL    HW191913   6.036   0.034  12.648
96672SOL    HW291914   5.972   0.036  12.511
96673SOL     OW91915   7.755  14.735  12.370
96673SOL    HW191916   7.727  14.669  12.306
96673SOL    HW291917   7.776  14.685  12.448
96674SOL     OW91918  12.028   0.701   5.628
96674SOL    HW191919  12.041   0.736   5.717
96674SOL    HW291920  12.015   0.607   5.641
96675SOL     OW91921   5.567   5.512   0.308
96675SOL    HW191922   5.482   5.542   0.274
96675SOL    HW291923   5.605   5.590   0.348
96676SOL     OW91924   0.981  13.026   2.224
96676SOL    HW191925   0.955  12.938   2.251
96676SOL    HW291926   0.901  13.078   2.229
96677SOL     OW91927  14.136  14.578  14.216
96677SOL    HW191928  14.102  14.497  14.253
96677SOL    HW291929  14.170  14.627  14.291
96678SOL     OW91930  10.140   5.703   7.816
96678SOL    HW191931  10.055   5.748   7.816
96678SOL    HW291932  10.204   5.772   7.804
96679SOL     OW91933   6.408  13.792  14.045
96679SOL    HW191934   6.426  13.755  14.131
96679SOL    HW291935   6.347  13.731  14.005
96680SOL     OW91936  12.673   3.966   0.512
96680SOL    HW191937  12.708   4.055   0.507
96680SOL    HW291938  12.632   3.961   0.598
96681SOL     OW91939   4.562  11.573  14.425
96681SOL    HW191940   4.557  11.654  14.374
96681SOL    HW291941   4.532  11.505  14.364
96682SOL     OW91942   4.379   9.921   2.655
96682SOL    HW191943   4.322   9.981   2.607
96682SOL    HW291944   4.463   9.967   2.660
96683SOL     OW91945   2.088  11.387   0.154
96683SOL    HW191946   2.123  11.300   0.136
96683SOL    HW291947   2.011  11.394   0.098
96684SOL     OW91948   2.515  10.404  10.963
96684SOL    HW191949   2.446  10.457  10.921
96684SOL    HW291950   2.487  10.313  10.949
96685SOL     OW91951  13.671   4.584   5.475
96685SOL    HW191952  13.710   4.562   5.391
96685SOL    HW291953  13.730   4.650   5.512
96686SOL     OW91954  14.193   5.859  14.434
96686SOL    HW191955  14.176   5.765  14.426
96686SOL    HW291956  14.108   5.900  14.418
96687SOL     OW91957   8.600  14.511   8.822
96687SOL    HW191958   8.629  14.479   8.736
96687SOL    HW291959   8.535  14.447   8.851
96688SOL     OW91960   1.957  13.947   7.903
96688SOL    HW191961   1.929  13.959   7.812
96688SOL    HW291962   1.986  13.856   7.907
96689SOL     OW91963   2.438   9.648  14.074
96689SOL    HW191964   2.479   9.570  14.113
96689SOL    HW291965   2.402   9.695  14.149
96690SOL     OW91966   9.532   8.121   8.647
96690SOL    HW191967   9.464   8.066   8.609
96690SOL    HW291968   9.554   8.183   8.577
96691SOL     OW91969   8.195   9.925  14.393
96691SOL    HW191970   8.155   9.842  14.419
96691SOL    HW291971   8.121   9.985  14.383
96692SOL     OW91972  10.039  12.142  12.705
96692SOL    HW191973  10.002  12.082  12.769
96692SOL    HW291974  10.064  12.086  12.631
96693SOL     OW91975  13.811  13.359  14.535
96693SOL    HW191976  13.850  13.395  14.455
96693SOL    HW291977  13.863  13.396  14.606
96694SOL     OW91978  14.190   7.397  11.532
96694SOL    HW191979  14.224   7.361  11.450
96694SOL    HW291980  14.186   7.492  11.517
96695SOL     OW91981   7.677   8.335   5.260
96695SOL    HW191982   7.585   8.358   5.250
96695SOL    HW291983   7.711   8.334   5.170
96696SOL     OW91984  12.077  14.766   5.893
96696SOL    HW191985  12.006  14.703   5.892
96696SOL    HW291986  12.119  14.753   5.978
96697SOL     OW91987   5.671   9.540   5.431
96697SOL    HW191988   5.612   9.506   5.363
96697SOL    HW291989   5.723   9.606   5.386
96698SOL     OW91990   6.716  13.752   4.583
96698SOL    HW191991   6.744  13.772   4.672
96698SOL    HW291992   6.672  13.667   4.590
96699SOL     OW91993   0.383   4.033  14.024
96699SOL    HW191994   0.321   4.069  14.087
96699SOL    HW291995   0.328   3.984  13.962
96700SOL     OW91996   6.221   7.376   8.475
96700SOL    HW191997   6.226   7.289   8.435
96700SOL    HW291998   6.293   7.378   8.538
96701SOL     OW91999   7.267   3.673   3.556
96701SOL    HW192000   7.174   3.698   3.553
96701SOL    HW292001   7.307   3.718   3.482
96702SOL     OW92002  11.923   7.424  14.702
96702SOL    HW192003  11.914   7.484  14.629
96702SOL    HW292004  11.910   7.337  14.664
96703SOL     OW92005   8.138  13.950   7.443
96703SOL    HW192006   8.233  13.944   7.453
96703SOL    HW292007   8.123  13.943   7.349
96704SOL     OW92008   0.515   0.587   5.302
96704SOL    HW192009   0.504   0.552   5.391
96704SOL    HW292010   0.588   0.649   5.311
96705SOL     OW92011   9.232   5.995  12.769
96705SOL    HW192012   9.306   6.055  12.761
96705SOL    HW292013   9.208   5.975  12.679
96706SOL     OW92014   0.601   5.344  12.858
96706SOL    HW192015   0.654   5.408  12.906
96706SOL    HW292016   0.656   5.267  12.851
96707SOL     OW92017   8.342   0.249   6.380
96707SOL    HW192018   8.382   0.312   6.439
96707SOL    HW292019   8.408   0.237   6.310
96708SOL     OW92020  12.774   6.697   0.073
96708SOL    HW192021  12.763   6.726   0.163
96708SOL    HW292022  12.692   6.720   0.030
96709SOL     OW92023  14.769   9.071  10.341
96709SOL    HW192024  14.766   8.981  10.308
96709SOL    HW292025  14.858   9.100  10.324
96710SOL     OW92026   1.350  10.149   4.618
96710SOL    HW192027   1.261  10.182   4.609
96710SOL    HW292028   1.359  10.085   4.547
96711SOL     OW92029   3.518  11.523   7.834
96711SOL    HW192030   3.490  11.606   7.795
96711SOL    HW292031   3.612  11.534   7.846
96712SOL     OW92032   1.543   1.844  11.655
96712SOL    HW192033   1.543   1.939  11.667
96712SOL    HW292034   1.455   1.816  11.678
96713SOL     OW92035   0.632  14.576   4.879
96713SOL    HW192036   0.678  14.572   4.795
96713SOL    HW292037   0.596  14.488   4.891
96714SOL     OW92038   8.118   5.986  11.487
96714SOL    HW192039   8.191   5.932  11.517
96714SOL    HW292040   8.130   5.994  11.393
96715SOL     OW92041   6.012   2.865  10.207
96715SOL    HW192042   6.062   2.911  10.139
96715SOL    HW292043   5.989   2.781  10.167
96716SOL     OW92044   6.817   2.830  11.727
96716SOL    HW192045   6.893   2.888  11.738
96716SOL    HW292046   6.785   2.815  11.816
96717SOL     OW92047  14.267   1.675   5.437
96717SOL    HW192048  14.236   1.759   5.469
96717SOL    HW292049  14.360   1.673   5.459
96718SOL     OW92050   5.041   0.415   5.236
96718SOL    HW192051   4.948   0.430   5.254
96718SOL    HW292052   5.065   0.484   5.175
96719SOL     OW92053  13.419   8.740  12.206
96719SOL    HW192054  13.340   8.717  12.157
96719SOL    HW292055  13.419   8.836  12.207
96720SOL     OW92056   7.669  11.464   6.444
96720SOL    HW192057   7.651  11.536   6.505
96720SOL    HW292058   7.746  11.420   6.481
96721SOL     OW92059  13.776  11.002   2.289
96721SOL    HW192060  13.709  11.053   2.244
96721SOL    HW292061  13.739  10.984   2.375
96722SOL     OW92062   7.764   6.110  11.163
96722SOL    HW192063   7.781   6.019  11.186
96722SOL    HW292064   7.695   6.106  11.097
96723SOL     OW92065   8.867   8.937  11.363
96723SOL    HW192066   8.923   8.974  11.295
96723SOL    HW292067   8.832   9.013  11.409
96724SOL     OW92068   6.672   9.279   9.132
96724SOL    HW192069   6.735   9.320   9.192
96724SOL    HW292070   6.688   9.321   9.048
96725SOL     OW92071   6.469   4.751  13.194
96725SOL    HW192072   6.417   4.789  13.265
96725SOL    HW292073   6.545   4.810  13.187
96726SOL     OW92074   1.545  14.193   0.565
96726SOL    HW192075   1.509  14.221   0.649
96726SOL    HW292076   1.530  14.266   0.506
96727SOL     OW92077  12.723  12.010   1.783
96727SOL    HW192078  12.698  12.063   1.858
96727SOL    HW292079  12.784  12.065   1.734
96728SOL     OW92080   1.030   4.423  11.306
96728SOL    HW192081   0.978   4.504  11.306
96728SOL    HW292082   0.965   4.354  11.317
96729SOL     OW92083   9.659   8.111  13.355
96729SOL    HW192084   9.664   8.113  13.451
96729SOL    HW292085   9.703   8.190  13.327
96730SOL     OW92086   3.277  10.084  10.224
96730SOL    HW192087   3.239  10.100  10.310
96730SOL    HW292088   3.369  10.066  10.241
96731SOL     OW92089   5.122  12.825  11.262
96731SOL    HW192090   5.060  12.780  11.205
96731SOL    HW292091   5.154  12.757  11.321
96732SOL     OW92092   9.355   2.122  10.029
96732SOL    HW192093   9.387   2.141   9.941
96732SOL    HW292094   9.276   2.069  10.015
96733SOL     OW92095  14.514   5.054  14.643
96733SOL    HW192096  14.425   5.020  14.646
96733SOL    HW292097  14.564   4.996  14.701
96734SOL     OW92098  11.371  13.596   8.143
96734SOL    HW192099  11.296  13.605   8.084
96734SOL    HW292100  11.425  13.528   8.102
96735SOL     OW92101   7.528  10.247   4.240
96735SOL    HW192102   7.476  10.297   4.177
96735SOL    HW292103   7.467  10.180   4.273
96736SOL     OW92104  10.733   4.524   1.000
96736SOL    HW192105  10.644   4.530   1.034
96736SOL    HW292106  10.783   4.588   1.050
96737SOL     OW92107  11.658  13.612   7.217
96737SOL    HW192108  11.626  13.662   7.142
96737SOL    HW292109  11.636  13.521   7.195
96738SOL     OW92110  10.150  11.267  12.095
96738SOL    HW192111  10.240  11.256  12.065
96738SOL    HW292112  10.126  11.182  12.133
96739SOL     OW92113   8.219   2.150   1.454
96739SOL    HW192114   8.181   2.062   1.463
96739SOL    HW292115   8.299   2.137   1.404
96740SOL     OW92116  12.508   4.396  12.500
96740SOL    HW192117  12.591   4.351  12.516
96740SOL    HW292118  12.532   4.487  12.483
96741SOL     OW92119   3.009   5.129  13.888
96741SOL    HW192120   2.961   5.071  13.829
96741SOL    HW292121   3.046   5.196  13.830
96742SOL     OW92122   6.742   9.798   4.166
96742SOL    HW192123   6.801   9.817   4.238
96742SOL    HW292124   6.795   9.811   4.087
96743SOL     OW92125  10.606   7.702  13.714
96743SOL    HW192126  10.674   7.697  13.781
96743SOL    HW292127  10.559   7.783  13.734
96744SOL     OW92128  10.294   2.544  14.288
96744SOL    HW192129  10.205   2.529  14.321
96744SOL    HW292130  10.282   2.572  14.198
96745SOL     OW92131   9.097   7.946   0.083
96745SOL    HW192132   9.047   7.867   0.064
96745SOL    HW292133   9.133   7.931   0.170
96746SOL     OW92134  13.206   9.346  13.498
96746SOL    HW192135  13.120   9.321  13.465
96746SOL    HW292136  13.226   9.427  13.452
96747SOL     OW92137  14.139  14.663   8.334
96747SOL    HW192138  14.139  14.674   8.429
96747SOL    HW292139  14.179  14.744   8.300
96748SOL     OW92140   8.767   7.073   6.234
96748SOL    HW192141   8.709   7.027   6.294
96748SOL    HW292142   8.852   7.031   6.245
96749SOL     OW92143  12.400  13.629   6.223
96749SOL    HW192144  12.425  13.711   6.181
96749SOL    HW292145  12.342  13.586   6.160
96750SOL     OW92146   9.141  11.327   2.976
96750SOL    HW192147   9.182  11.391   3.035
96750SOL    HW292148   9.073  11.377   2.931
96751SOL     OW92149   8.282  11.490   4.580
96751SOL    HW192150   8.340  11.465   4.652
96751SOL    HW292151   8.194  11.467   4.611
96752SOL     OW92152  11.854   0.881  12.030
96752SOL    HW192153  11.876   0.803  11.979
96752SOL    HW292154  11.816   0.941  11.966
96753SOL     OW92155   2.055   8.809   3.806
96753SOL    HW192156   2.006   8.752   3.866
96753SOL    HW292157   2.087   8.879   3.862
96754SOL     OW92158  11.002   9.016  13.351
96754SOL    HW192159  11.091   9.022  13.385
96754SOL    HW292160  10.954   9.084  13.397
96755SOL     OW92161   9.329   4.130   4.032
96755SOL    HW192162   9.395   4.172   3.977
96755SOL    HW292163   9.378   4.094   4.106
96756SOL     OW92164  10.870  11.714  11.040
96756SOL    HW192165  10.858  11.802  11.075
96756SOL    HW292166  10.803  11.661  11.085
96757SOL     OW92167   3.048   1.056   0.687
96757SOL    HW192168   3.028   1.130   0.744
96757SOL    HW292169   2.963   1.023   0.658
96758SOL     OW92170   6.635   5.197  12.548
96758SOL    HW192171   6.560   5.242  12.588
96758SOL    HW292172   6.657   5.127  12.610
96759SOL     OW92173  13.881   5.845   4.512
96759SOL    HW192174  13.949   5.846   4.580
96759SOL    HW292175  13.799   5.841   4.560
96760SOL     OW92176   6.413   1.059   9.299
96760SOL    HW192177   6.425   1.148   9.266
96760SOL    HW292178   6.363   1.071   9.381
96761SOL     OW92179   7.499   7.735  14.073
96761SOL    HW192180   7.593   7.718  14.065
96761SOL    HW292181   7.492   7.806  14.136
96762SOL     OW92182   2.743  14.169   9.805
96762SOL    HW192183   2.815  14.197   9.748
96762SOL    HW292184   2.666  14.214   9.771
96763SOL     OW92185   1.301   3.076  11.505
96763SOL    HW192186   1.331   3.014  11.439
96763SOL    HW292187   1.212   3.047  11.527
96764SOL     OW92188   8.686   8.311   7.691
96764SOL    HW192189   8.753   8.346   7.633
96764SOL    HW292190   8.649   8.388   7.735
96765SOL     OW92191   5.524   8.831   5.067
96765SOL    HW192192   5.613   8.865   5.058
96765SOL    HW292193   5.535   8.747   5.113
96766SOL     OW92194  13.812   5.370  10.057
96766SOL    HW192195  13.858   5.331   9.982
96766SOL    HW292196  13.726   5.393  10.023
96767SOL     OW92197  12.039   5.356  12.621
96767SOL    HW192198  12.119   5.360  12.568
96767SOL    HW292199  11.972   5.397  12.566
96768SOL     OW92200   0.337  11.831   1.112
96768SOL    HW192201   0.405  11.897   1.125
96768SOL    HW292202   0.328  11.790   1.198
96769SOL     OW92203   1.566  13.644   5.187
96769SOL    HW192204   1.603  13.570   5.234
96769SOL    HW292205   1.539  13.607   5.103
96770SOL     OW92206   5.861   2.061   6.950
96770SOL    HW192207   5.797   2.076   7.019
96770SOL    HW292208   5.895   1.973   6.968
96771SOL     OW92209   2.031  12.448  13.116
96771SOL    HW192210   2.036  12.474  13.023
96771SOL    HW292211   2.058  12.526  13.164
96772SOL     OW92212   5.382   8.611   4.310
96772SOL    HW192213   5.438   8.534   4.298
96772SOL    HW292214   5.410   8.671   4.241
96773SOL     OW92215  13.246   1.061  13.293
96773SOL    HW192216  13.184   1.075  13.364
96773SOL    HW292217  13.321   1.116  13.314
96774SOL     OW92218  14.577   5.669   5.881
96774SOL    HW192219  14.618   5.729   5.820
96774SOL    HW292220  14.638   5.663   5.954
96775SOL     OW92221  14.356   9.409   3.166
96775SOL    HW192222  14.292   9.442   3.230
96775SOL    HW292223  14.323   9.323   3.140
96776SOL     OW92224  12.669   1.772   4.335
96776SOL    HW192225  12.635   1.697   4.285
96776SOL    HW292226  12.723   1.732   4.403
96777SOL     OW92227  11.646   3.098   9.096
96777SOL    HW192228  11.703   3.151   9.041
96777SOL    HW292229  11.688   3.098   9.182
96778SOL     OW92230   5.593   7.194   0.269
96778SOL    HW192231   5.611   7.104   0.293
96778SOL    HW292232   5.498   7.202   0.276
96779SOL     OW92233  13.533   2.325  14.746
96779SOL    HW192234  13.444   2.321  14.710
96779SOL    HW292235  13.568   2.236  14.734
96780SOL     OW92236   6.959  11.440   5.012
96780SOL    HW192237   6.931  11.352   4.983
96780SOL    HW292238   7.007  11.424   5.093
96781SOL     OW92239   0.305  14.427   5.838
96781SOL    HW192240   0.315  14.521   5.849
96781SOL    HW292241   0.380  14.389   5.883
96782SOL     OW92242  11.129   0.631   1.676
96782SOL    HW192243  11.093   0.650   1.590
96782SOL    HW292244  11.057   0.591   1.724
96783SOL     OW92245   9.816  10.636   5.859
96783SOL    HW192246   9.860  10.627   5.775
96783SOL    HW292247   9.855  10.714   5.898
96784SOL     OW92248   4.941  11.120   4.714
96784SOL    HW192249   5.017  11.174   4.695
96784SOL    HW292250   4.973  11.054   4.776
96785SOL     OW92251  11.033   3.621  14.714
96785SOL    HW192252  11.051   3.714  14.727
96785SOL    HW292253  11.079   3.598  14.633
96786SOL     OW92254  13.335   9.706   7.308
96786SOL    HW192255  13.384   9.642   7.255
96786SOL    HW292256  13.270   9.742   7.248
96787SOL     OW92257   7.702   8.891   5.356
96787SOL    HW192258   7.781   8.882   5.409
96787SOL    HW292259   7.707   8.821   5.291
96788SOL     OW92260   7.413   8.438   3.057
96788SOL    HW192261   7.456   8.442   2.971
96788SOL    HW292262   7.462   8.500   3.111
96789SOL     OW92263  13.055   0.366  14.015
96789SOL    HW192264  13.087   0.343  14.102
96789SOL    HW292265  12.983   0.306  13.999
96790SOL     OW92266  14.604   6.690  13.419
96790SOL    HW192267  14.678   6.721  13.367
96790SOL    HW292268  14.622   6.723  13.508
96791SOL     OW92269  13.527   9.279   0.306
96791SOL    HW192270  13.514   9.341   0.377
96791SOL    HW292271  13.568   9.203   0.347
96792SOL     OW92272  14.657   5.815   5.611
96792SOL    HW192273  14.563   5.821   5.597
96792SOL    HW292274  14.683   5.902   5.641
96793SOL     OW92275  12.253   6.152  10.286
96793SOL    HW192276  12.345   6.175  10.290
96793SOL    HW292277  12.240   6.116  10.198
96794SOL     OW92278   4.241   4.056  12.353
96794SOL    HW192279   4.307   4.026  12.415
96794SOL    HW292280   4.179   3.983  12.347
96795SOL     OW92281   1.963  11.454   3.934
96795SOL    HW192282   1.918  11.397   3.996
96795SOL    HW292283   1.895  11.479   3.871
96796SOL     OW92284   4.679   0.481   0.861
96796SOL    HW192285   4.684   0.495   0.767
96796SOL    HW292286   4.769   0.492   0.892
96797SOL     OW92287   3.461   1.264   6.126
96797SOL    HW192288   3.399   1.287   6.057
96797SOL    HW292289   3.547   1.286   6.090
96798SOL     OW92290  11.794  10.285   5.373
96798SOL    HW192291  11.843  10.364   5.352
96798SOL    HW292292  11.725  10.281   5.306
96799SOL     OW92293   5.792   7.471   6.530
96799SOL    HW192294   5.745   7.551   6.555
96799SOL    HW292295   5.821   7.433   6.613
96800SOL     OW92296   1.285   1.001   3.395
96800SOL    HW192297   1.242   0.943   3.332
96800SOL    HW292298   1.353   0.946   3.435
96801SOL     OW92299   0.155  13.274  12.156
96801SOL    HW192300   0.082  13.265  12.216
96801SOL    HW292301   0.116  13.267  12.069
96802SOL     OW92302   0.952  11.941  13.168
96802SOL    HW192303   0.979  11.945  13.076
96802SOL    HW292304   0.973  11.852  13.195
96803SOL     OW92305   7.588   7.520  13.819
96803SOL    HW192306   7.654   7.582  13.790
96803SOL    HW292307   7.586   7.453  13.750
96804SOL     OW92308   9.763  13.506  11.507
96804SOL    HW192309   9.780  13.599  11.522
96804SOL    HW292310   9.850  13.466  11.505
96805SOL     OW92311   0.486   4.213   2.904
96805SOL    HW192312   0.560   4.203   2.844
96805SOL    HW292313   0.465   4.123   2.931
96806SOL     OW92314   6.113  11.592   9.989
96806SOL    HW192315   6.038  11.601  10.048
96806SOL    HW292316   6.090  11.518   9.933
96807SOL     OW92317  13.470   2.676   6.709
96807SOL    HW192318  13.519   2.702   6.787
96807SOL    HW292319  13.407   2.746   6.695
96808SOL     OW92320  10.473   4.505  11.700
96808SOL    HW192321  10.505   4.419  11.728
96808SOL    HW292322  10.544   4.541  11.647
96809SOL     OW92323  12.841   3.863   5.379
96809SOL    HW192324  12.753   3.898   5.379
96809SOL    HW292325  12.841   3.798   5.309
96810SOL     OW92326  12.550   1.726   0.904
96810SOL    HW192327  12.589   1.711   0.818
96810SOL    HW292328  12.469   1.774   0.886
96811SOL     OW92329   2.361   3.916   6.130
96811SOL    HW192330   2.319   3.927   6.216
96811SOL    HW292331   2.324   3.985   6.075
96812SOL     OW92332  10.902   6.127  14.466
96812SOL    HW192333  10.998   6.126  14.468
96812SOL    HW292334  10.876   6.058  14.527
96813SOL     OW92335   1.271  11.363  11.477
96813SOL    HW192336   1.189  11.331  11.441
96813SOL    HW292337   1.309  11.415  11.406
96814SOL     OW92338   3.444   4.309  13.321
96814SOL    HW192339   3.467   4.275  13.235
96814SOL    HW292340   3.460   4.403  13.316
96815SOL     OW92341   2.669  12.397   6.520
96815SOL    HW192342   2.630  12.319   6.557
96815SOL    HW292343   2.609  12.423   6.450
96816SOL     OW92344   9.590   0.534   2.578
96816SOL    HW192345   9.500   0.506   2.590
96816SOL    HW292346   9.584   0.625   2.549
96817SOL     OW92347   1.484   7.308  10.165
96817SOL    HW192348   1.400   7.354  10.165
96817SOL    HW292349   1.549   7.375  10.143
96818SOL     OW92350   2.532   1.515   7.362
96818SOL    HW192351   2.550   1.597   7.318
96818SOL    HW292352   2.613   1.493   7.408
96819SOL     OW92353  13.508  10.267   6.662
96819SOL    HW192354  13.579  10.331   6.668
96819SOL    HW292355  13.527  10.218   6.582
96820SOL     OW92356   2.803   8.747   8.061
96820SOL    HW192357   2.866   8.684   8.096
96820SOL    HW292358   2.721   8.699   8.056
96821SOL     OW92359   3.975  12.211   5.490
96821SOL    HW192360   4.011  12.253   5.412
96821SOL    HW292361   3.898  12.164   5.458
96822SOL     OW92362   0.806   1.126   9.723
96822SOL    HW192363   0.872   1.075   9.769
96822SOL    HW292364   0.853   1.202   9.690
96823SOL     OW92365   3.473  10.125   8.118
96823SOL    HW192366   3.391  10.145   8.072
96823SOL    HW292367   3.540  10.130   8.050
96824SOL     OW92368   4.449   4.678   4.581
96824SOL    HW192369   4.520   4.615   4.599
96824SOL    HW292370   4.458   4.745   4.649
96825SOL     OW92371   8.352   5.858  12.704
96825SOL    HW192372   8.432   5.822  12.741
96825SOL    HW292373   8.357   5.952  12.721
96826SOL     OW92374   4.943   3.091   0.959
96826SOL    HW192375   5.007   3.049   1.016
96826SOL    HW292376   4.899   3.155   1.016
96827SOL     OW92377   7.968   5.513  11.146
96827SOL    HW192378   7.988   5.501  11.054
96827SOL    HW292379   7.991   5.604  11.164
96828SOL     OW92380   7.460  11.356  13.587
96828SOL    HW192381   7.507  11.364  13.504
96828SOL    HW292382   7.368  11.345  13.562
96829SOL     OW92383  12.205   8.398   9.146
96829SOL    HW192384  12.293   8.360   9.152
96829SOL    HW292385  12.215   8.472   9.085
96830SOL     OW92386  12.123   3.647   8.539
96830SOL    HW192387  12.092   3.706   8.470
96830SOL    HW292388  12.049   3.591   8.558
96831SOL     OW92389  12.536  10.098   5.618
96831SOL    HW192390  12.541  10.005   5.641
96831SOL    HW292391  12.521  10.098   5.523
96832SOL     OW92392  14.579   4.555  11.223
96832SOL    HW192393  14.565   4.632  11.168
96832SOL    HW292394  14.673   4.556  11.241
96833SOL     OW92395   2.585   5.465  13.278
96833SOL    HW192396   2.510   5.405  13.275
96833SOL    HW292397   2.549   5.550  13.252
96834SOL     OW92398   6.819   1.267   6.933
96834SOL    HW192399   6.788   1.258   6.843
96834SOL    HW292400   6.848   1.180   6.958
96835SOL     OW92401   3.386   8.712   5.819
96835SOL    HW192402   3.302   8.717   5.775
96835SOL    HW292403   3.416   8.623   5.803
96836SOL     OW92404  13.588  10.436  13.010
96836SOL    HW192405  13.581  10.513  13.067
96836SOL    HW292406  13.497  10.415  12.988
96837SOL     OW92407  11.516   4.147   0.722
96837SOL    HW192408  11.566   4.185   0.794
96837SOL    HW292409  11.548   4.057   0.715
96838SOL     OW92410   3.633   9.302   8.166
96838SOL    HW192411   3.662   9.241   8.098
96838SOL    HW292412   3.687   9.380   8.154
96839SOL     OW92413   3.608   3.251  12.801
96839SOL    HW192414   3.553   3.330  12.809
96839SOL    HW292415   3.681   3.279  12.746
96840SOL     OW92416   2.047  12.815   5.608
96840SOL    HW192417   2.045  12.856   5.694
96840SOL    HW292418   2.127  12.762   5.609
96841SOL     OW92419   8.760  14.468  11.263
96841SOL    HW192420   8.711  14.408  11.207
96841SOL    HW292421   8.739  14.555  11.230
96842SOL     OW92422  13.661  14.789   5.551
96842SOL    HW192423  13.737  14.746   5.511
96842SOL    HW292424  13.641  14.737   5.628
96843SOL     OW92425  11.536   0.736   9.190
96843SOL    HW192426  11.550   0.686   9.110
96843SOL    HW292427  11.442   0.756   9.190
96844SOL     OW92428   3.152   0.751  14.647
96844SOL    HW192429   3.108   0.835  14.659
96844SOL    HW292430   3.150   0.710  14.733
96845SOL     OW92431  11.814  11.230   4.932
96845SOL    HW192432  11.744  11.240   4.867
96845SOL    HW292433  11.894  11.223   4.880
96846SOL     OW92434   9.136  13.442   0.031
96846SOL    HW192435   9.198  13.392   0.083
96846SOL    HW292436   9.074  13.377  14.880
96847SOL     OW92437   6.178   7.006   6.296
96847SOL    HW192438   6.199   7.058   6.374
96847SOL    HW292439   6.083   7.007   6.291
96848SOL     OW92440  10.612  13.951  10.900
96848SOL    HW192441  10.676  13.888  10.932
96848SOL    HW292442  10.634  14.032  10.946
96849SOL     OW92443  10.486   6.539   3.324
96849SOL    HW192444  10.486   6.460   3.269
96849SOL    HW292445  10.443   6.512   3.405
96850SOL     OW92446  10.221   0.998  13.232
96850SOL    HW192447  10.130   0.987  13.204
96850SOL    HW292448  10.232   0.935  13.303
96851SOL     OW92449   5.939   1.740   3.929
96851SOL    HW192450   5.969   1.812   3.984
96851SOL    HW292451   5.851   1.720   3.960
96852SOL     OW92452   0.059   7.289   7.126
96852SOL    HW192453   0.101   7.206   7.150
96852SOL    HW292454  14.858   7.289   7.173
96853SOL     OW92455   8.221   6.693   8.272
96853SOL    HW192456   8.302   6.744   8.270
96853SOL    HW292457   8.227   6.642   8.353
96854SOL     OW92458   3.352   5.873   4.510
96854SOL    HW192459   3.331   5.850   4.420
96854SOL    HW292460   3.283   5.831   4.562
96855SOL     OW92461   2.931   7.464  10.006
96855SOL    HW192462   2.910   7.505  10.090
96855SOL    HW292463   2.918   7.370  10.022
96856SOL     OW92464   2.912   2.732   2.636
96856SOL    HW192465   2.881   2.809   2.587
96856SOL    HW292466   2.935   2.669   2.568
96857SOL     OW92467   4.470  10.483  10.729
96857SOL    HW192468   4.479  10.578  10.731
96857SOL    HW292469   4.377  10.468  10.708
96858SOL     OW92470   2.860   1.556   5.053
96858SOL    HW192471   2.956   1.563   5.058
96858SOL    HW292472   2.838   1.481   5.107
96859SOL     OW92473   9.055  13.282   7.661
96859SOL    HW192474   9.031  13.278   7.568
96859SOL    HW292475   8.989  13.228   7.705
96860SOL     OW92476   8.713   0.876   5.535
96860SOL    HW192477   8.621   0.858   5.553
96860SOL    HW292478   8.720   0.874   5.439
96861SOL     OW92479   7.678  14.078   6.088
96861SOL    HW192480   7.677  14.115   6.000
96861SOL    HW292481   7.698  13.985   6.075
96862SOL     OW92482  12.989   3.357   7.603
96862SOL    HW192483  12.937   3.302   7.544
96862SOL    HW292484  12.940   3.356   7.685
96863SOL     OW92485   0.978   2.551  11.694
96863SOL    HW192486   1.009   2.620  11.634
96863SOL    HW292487   0.894   2.583  11.726
96864SOL     OW92488   9.672  12.990   3.796
96864SOL    HW192489   9.610  12.974   3.724
96864SOL    HW292490   9.722  13.066   3.768
96865SOL     OW92491   3.996   0.988   6.245
96865SOL    HW192492   3.946   0.906   6.247
96865SOL    HW292493   3.979   1.027   6.331
96866SOL     OW92494   8.518   2.387   3.282
96866SOL    HW192495   8.427   2.417   3.285
96866SOL    HW292496   8.534   2.367   3.190
96867SOL     OW92497  11.981   7.747   0.174
96867SOL    HW192498  12.070   7.717   0.157
96867SOL    HW292499  11.937   7.742   0.088
96868SOL     OW92500  10.495   1.296  12.454
96868SOL    HW192501  10.481   1.390  12.467
96868SOL    HW292502  10.534   1.290  12.367
96869SOL     OW92503   1.023   4.731  10.847
96869SOL    HW192504   1.100   4.704  10.796
96869SOL    HW292505   0.963   4.657  10.840
96870SOL     OW92506   3.459  14.746   7.554
96870SOL    HW192507   3.399  14.699   7.496
96870SOL    HW292508   3.538  14.691   7.557
96871SOL     OW92509  12.668   2.962   1.412
96871SOL    HW192510  12.748   2.920   1.381
96871SOL    HW292511  12.676   3.052   1.381
96872SOL     OW92512  14.640   3.977   8.283
96872SOL    HW192513  14.554   4.000   8.317
96872SOL    HW292514  14.670   3.906   8.340
96873SOL     OW92515   3.659  13.056   3.863
96873SOL    HW192516   3.631  13.081   3.951
96873SOL    HW292517   3.670  13.138   3.816
96874SOL     OW92518   0.489   8.830   5.947
96874SOL    HW192519   0.504   8.752   5.999
96874SOL    HW292520   0.481   8.901   6.011
96875SOL     OW92521   8.666   4.322   6.339
96875SOL    HW192522   8.754   4.293   6.365
96875SOL    HW292523   8.608   4.251   6.368
96876SOL     OW92524   9.808   4.975   5.443
96876SOL    HW192525   9.831   5.068   5.435
96876SOL    HW292526   9.892   4.929   5.437
96877SOL     OW92527   6.449   0.920  10.272
96877SOL    HW192528   6.389   0.977  10.223
96877SOL    HW292529   6.408   0.911  10.358
96878SOL     OW92530  14.407  14.874   6.780
96878SOL    HW192531  14.387  14.784   6.753
96878SOL    HW292532  14.500   0.003   6.758
96879SOL     OW92533   9.184   7.223  11.515
96879SOL    HW192534   9.192   7.136  11.553
96879SOL    HW292535   9.237   7.220  11.435
96880SOL     OW92536  11.584   7.256  10.888
96880SOL    HW192537  11.578   7.255  10.983
96880SOL    HW292538  11.493   7.244  10.858
96881SOL     OW92539   2.011  14.375   0.978
96881SOL    HW192540   2.004  14.352   1.070
96881SOL    HW292541   2.063  14.456   0.976
96882SOL     OW92542  11.150  13.926  14.184
96882SOL    HW192543  11.091  13.852  14.197
96882SOL    HW292544  11.213  13.896  14.119
96883SOL     OW92545   3.376   6.996   0.328
96883SOL    HW192546   3.294   6.970   0.286
96883SOL    HW292547   3.406   7.071   0.276
96884SOL     OW92548  12.165  10.022  12.823
96884SOL    HW192549  12.163  10.003  12.729
96884SOL    HW292550  12.241  10.079  12.834
96885SOL     OW92551   2.371  13.702  14.100
96885SOL    HW192552   2.430  13.769  14.133
96885SOL    HW292553   2.374  13.713  14.004
96886SOL     OW92554   2.187   4.713   3.429
96886SOL    HW192555   2.201   4.805   3.407
96886SOL    HW292556   2.255   4.666   3.381
96887SOL     OW92557  14.490   5.339  12.940
96887SOL    HW192558  14.521   5.424  12.912
96887SOL    HW292559  14.522   5.330  13.030
96888SOL     OW92560   4.581   4.861  11.734
96888SOL    HW192561   4.654   4.923  11.740
96888SOL    HW292562   4.505   4.915  11.714
96889SOL     OW92563   7.253   9.625  11.885
96889SOL    HW192564   7.322   9.593  11.827
96889SOL    HW292565   7.191   9.670  11.827
96890SOL     OW92566  11.154  11.346   1.020
96890SOL    HW192567  11.136  11.263   0.977
96890SOL    HW292568  11.068  11.382   1.040
96891SOL     OW92569   8.047  13.740   0.029
96891SOL    HW192570   7.995  13.676   0.077
96891SOL    HW292571   8.014  13.825   0.058
96892SOL     OW92572   5.137   3.654   0.166
96892SOL    HW192573   5.077   3.726   0.185
96892SOL    HW292574   5.119   3.632   0.075
96893SOL     OW92575   0.534   3.755   7.060
96893SOL    HW192576   0.529   3.660   7.054
96893SOL    HW292577   0.539   3.785   6.969
96894SOL     OW92578  10.319   0.038   9.396
96894SOL    HW192579  10.412   0.049   9.376
96894SOL    HW292580  10.317   0.014   9.489
96895SOL     OW92581  10.711   1.840   6.529
96895SOL    HW192582  10.773   1.890   6.582
96895SOL    HW292583  10.762   1.765   6.497
96896SOL     OW92584   0.904   2.485  13.871
96896SOL    HW192585   0.928   2.507  13.781
96896SOL    HW292586   0.832   2.545  13.893
96897SOL     OW92587  12.983  11.135   4.551
96897SOL    HW192588  13.057  11.161   4.496
96897SOL    HW292589  12.937  11.069   4.499
96898SOL     OW92590   9.072  10.421   5.473
96898SOL    HW192591   9.001  10.455   5.418
96898SOL    HW292592   9.048  10.330   5.489
96899SOL     OW92593  13.171   5.366   0.500
96899SOL    HW192594  13.261   5.341   0.480
96899SOL    HW292595  13.118   5.298   0.458
96900SOL     OW92596   6.386   9.769   2.859
96900SOL    HW192597   6.331   9.763   2.938
96900SOL    HW292598   6.446   9.841   2.878
96901SOL     OW92599   0.584   4.715   7.323
96901SOL    HW192600   0.662   4.666   7.349
96901SOL    HW292601   0.515   4.683   7.381
96902SOL     OW92602   9.588   1.051   8.370
96902SOL    HW192603   9.676   1.080   8.348
96902SOL    HW292604   9.600   0.967   8.414
96903SOL     OW92605   6.079   8.667   7.770
96903SOL    HW192606   6.009   8.661   7.835
96903SOL    HW292607   6.130   8.743   7.796
96904SOL     OW92608   3.054   3.889  11.745
96904SOL    HW192609   3.089   3.880  11.833
96904SOL    HW292610   2.994   3.964  11.751
96905SOL     OW92611  14.404   5.324   2.723
96905SOL    HW192612  14.315   5.334   2.758
96905SOL    HW292613  14.394   5.339   2.629
96906SOL     OW92614   1.985   9.455  10.680
96906SOL    HW192615   1.951   9.537  10.644
96906SOL    HW292616   1.914   9.392  10.670
96907SOL     OW92617   9.607   0.311   5.415
96907SOL    HW192618   9.685   0.308   5.359
96907SOL    HW292619   9.636   0.273   5.498
96908SOL     OW92620   4.732  13.750   8.061
96908SOL    HW192621   4.678  13.795   7.996
96908SOL    HW292622   4.788  13.818   8.097
96909SOL     OW92623  13.515   5.367  12.472
96909SOL    HW192624  13.476   5.430  12.533
96909SOL    HW292625  13.478   5.283  12.497
96910SOL     OW92626   6.224  13.034   6.630
96910SOL    HW192627   6.287  12.964   6.648
96910SOL    HW292628   6.249  13.105   6.689
96911SOL     OW92629   9.644  11.645   5.496
96911SOL    HW192630   9.666  11.654   5.589
96911SOL    HW292631   9.727  11.622   5.454
96912SOL     OW92632  14.041   8.993  13.038
96912SOL    HW192633  14.072   9.078  13.007
96912SOL    HW292634  13.954   9.011  13.075
96913SOL     OW92635  10.658  13.140   1.335
96913SOL    HW192636  10.614  13.186   1.406
96913SOL    HW292637  10.644  13.047   1.353
96914SOL     OW92638   1.048   7.090  13.008
96914SOL    HW192639   1.124   7.089  13.067
96914SOL    HW292640   1.027   7.183  12.998
96915SOL     OW92641   3.725   8.833   5.930
96915SOL    HW192642   3.693   8.801   5.846
96915SOL    HW292643   3.652   8.818   5.990
96916SOL     OW92644   4.036   0.551   5.148
96916SOL    HW192645   3.967   0.543   5.213
96916SOL    HW292646   4.043   0.463   5.110
96917SOL     OW92647  11.844  14.140   7.828
96917SOL    HW192648  11.778  14.186   7.880
96917SOL    HW292649  11.921  14.135   7.885
96918SOL     OW92650  12.171   5.688   6.951
96918SOL    HW192651  12.097   5.645   6.993
96918SOL    HW292652  12.182   5.769   7.001
96919SOL     OW92653  11.722  11.145  14.618
96919SOL    HW192654  11.653  11.115  14.559
96919SOL    HW292655  11.803  11.132  14.569
96920SOL     OW92656   8.357   9.877  11.748
96920SOL    HW192657   8.400   9.803  11.706
96920SOL    HW292658   8.423   9.913  11.807
96921SOL     OW92659   3.433  10.537  14.660
96921SOL    HW192660   3.406  10.610  14.604
96921SOL    HW292661   3.381  10.548  14.740
96922SOL     OW92662   0.590   4.223   6.587
96922SOL    HW192663   0.604   4.144   6.534
96922SOL    HW292664   0.677   4.260   6.597
96923SOL     OW92665  13.693   6.509  13.568
96923SOL    HW192666  13.603   6.516  13.601
96923SOL    HW292667  13.684   6.515  13.473
96924SOL     OW92668   6.179  10.563   5.684
96924SOL    HW192669   6.254  10.599   5.730
96924SOL    HW292670   6.127  10.521   5.752
96925SOL     OW92671   4.530  12.027  14.024
96925SOL    HW192672   4.464  12.051  14.089
96925SOL    HW292673   4.547  11.934  14.040
96926SOL     OW92674   3.793   3.654  12.973
96926SOL    HW192675   3.765   3.686  12.888
96926SOL    HW292676   3.833   3.730  13.015
96927SOL     OW92677  12.062   4.694   1.397
96927SOL    HW192678  12.002   4.696   1.472
96927SOL    HW292679  12.124   4.624   1.419
96928SOL     OW92680   1.471   3.268   8.745
96928SOL    HW192681   1.456   3.333   8.813
96928SOL    HW292682   1.540   3.213   8.780
96929SOL     OW92683   1.141   3.208   5.708
96929SOL    HW192684   1.103   3.255   5.782
96929SOL    HW292685   1.225   3.175   5.740
96930SOL     OW92686   4.859  14.467   4.542
96930SOL    HW192687   4.867  14.373   4.531
96930SOL    HW292688   4.873  14.482   4.635
96931SOL     OW92689   2.267   9.926   3.050
96931SOL    HW192690   2.333   9.923   2.982
96931SOL    HW292691   2.312   9.964   3.126
96932SOL     OW92692  14.575   0.318   0.352
96932SOL    HW192693  14.610   0.231   0.369
96932SOL    HW292694  14.497   0.303   0.299
96933SOL     OW92695  13.385   6.745   7.826
96933SOL    HW192696  13.341   6.728   7.742
96933SOL    HW292697  13.405   6.658   7.860
96934SOL     OW92698   6.030   3.188   2.578
96934SOL    HW192699   6.003   3.278   2.600
96934SOL    HW292700   6.067   3.195   2.490
96935SOL     OW92701   3.616   9.540   6.006
96935SOL    HW192702   3.672   9.617   5.998
96935SOL    HW292703   3.659   9.485   6.072
96936SOL     OW92704  12.944   4.165   9.168
96936SOL    HW192705  12.894   4.150   9.087
96936SOL    HW292706  12.897   4.235   9.213
96937SOL     OW92707   9.510   7.250   1.942
96937SOL    HW192708   9.518   7.308   2.017
96937SOL    HW292709   9.566   7.175   1.963
96938SOL     OW92710   9.230   4.442   4.282
96938SOL    HW192711   9.179   4.416   4.359
96938SOL    HW292712   9.165   4.449   4.212
96939SOL     OW92713   2.775  12.545  13.752
96939SOL    HW192714   2.854  12.531  13.700
96939SOL    HW292715   2.713  12.480  13.719
96940SOL     OW92716  13.384   7.003  12.947
96940SOL    HW192717  13.398   7.050  13.030
96940SOL    HW292718  13.367   7.072  12.883
96941SOL     OW92719   6.382   3.989   2.110
96941SOL    HW192720   6.302   3.942   2.134
96941SOL    HW292721   6.419   4.018   2.193
96942SOL     OW92722   1.766   1.510  10.317
96942SOL    HW192723   1.771   1.422  10.280
96942SOL    HW292724   1.853   1.527  10.352
96943SOL     OW92725   6.847   1.868   9.501
96943SOL    HW192726   6.822   1.795   9.557
96943SOL    HW292727   6.785   1.937   9.521
96944SOL     OW92728   5.731  14.188  12.787
96944SOL    HW192729   5.826  14.188  12.799
96944SOL    HW292730   5.709  14.279  12.769
96945SOL     OW92731   6.796  11.205   0.494
96945SOL    HW192732   6.785  11.111   0.508
96945SOL    HW292733   6.706  11.240   0.489
96946SOL     OW92734   3.111   4.305  13.917
96946SOL    HW192735   3.136   4.312  14.009
96946SOL    HW292736   3.175   4.245  13.879
96947SOL     OW92737  10.145   8.541  10.791
96947SOL    HW192738  10.136   8.588  10.708
96947SOL    HW292739  10.151   8.449  10.765
96948SOL     OW92740   2.107  13.249   0.391
96948SOL    HW192741   2.157  13.311   0.339
96948SOL    HW292742   2.078  13.299   0.468
96949SOL     OW92743  13.913   5.101   3.426
96949SOL    HW192744  13.827   5.144   3.431
96949SOL    HW292745  13.895   5.015   3.389
96950SOL     OW92746   9.933  14.198  14.310
96950SOL    HW192747   9.900  14.225  14.225
96950SOL    HW292748   9.991  14.125  14.292
96951SOL     OW92749   4.080   6.500   2.137
96951SOL    HW192750   3.996   6.508   2.092
96951SOL    HW292751   4.059   6.463   2.222
96952SOL     OW92752   5.124   2.405  10.939
96952SOL    HW192753   5.177   2.393  11.018
96952SOL    HW292754   5.131   2.498  10.919
96953SOL     OW92755   2.450   2.049  11.387
96953SOL    HW192756   2.461   2.075  11.478
96953SOL    HW292757   2.433   1.955  11.390
96954SOL     OW92758   3.417   0.453  14.429
96954SOL    HW192759   3.471   0.492  14.360
96954SOL    HW292760   3.426   0.359  14.415
96955SOL     OW92761   9.698   4.426   4.082
96955SOL    HW192762   9.703   4.333   4.058
96955SOL    HW292763   9.762   4.435   4.153
96956SOL     OW92764  14.313   1.217   5.284
96956SOL    HW192765  14.273   1.148   5.336
96956SOL    HW292766  14.403   1.223   5.316
96957SOL     OW92767  11.550   7.021   3.740
96957SOL    HW192768  11.467   6.973   3.749
96957SOL    HW292769  11.529   7.110   3.769
96958SOL     OW92770  14.583  13.087  12.403
96958SOL    HW192771  14.651  13.030  12.439
96958SOL    HW292772  14.507  13.030  12.391
96959SOL     OW92773   1.195  11.080  13.173
96959SOL    HW192774   1.130  11.053  13.238
96959SOL    HW292775   1.186  11.175  13.168
96960SOL     OW92776  12.905   2.859   8.295
96960SOL    HW192777  12.832   2.797   8.302
96960SOL    HW292778  12.873   2.938   8.339
96961SOL     OW92779  14.666  12.520  10.189
96961SOL    HW192780  14.747  12.571  10.188
96961SOL    HW292781  14.676  12.460  10.262
96962SOL     OW92782  11.639  13.602   2.040
96962SOL    HW192783  11.713  13.567   1.989
96962SOL    HW292784  11.586  13.525   2.061
96963SOL     OW92785  10.367   4.042  10.397
96963SOL    HW192786  10.337   4.011  10.482
96963SOL    HW292787  10.447   3.992  10.380
96964SOL     OW92788   5.461   9.326  13.528
96964SOL    HW192789   5.404   9.271  13.582
96964SOL    HW292790   5.405   9.397  13.497
96965SOL     OW92791  11.835   7.227   3.308
96965SOL    HW192792  11.816   7.319   3.325
96965SOL    HW292793  11.774   7.179   3.364
96966SOL     OW92794   9.169   2.240  10.900
96966SOL    HW192795   9.241   2.185  10.932
96966SOL    HW292796   9.207   2.328  10.897
96967SOL     OW92797  14.444  10.036   3.101
96967SOL    HW192798  14.357  10.044   3.139
96967SOL    HW292799  14.471   9.947   3.120
96968SOL     OW92800   3.121   3.885  11.081
96968SOL    HW192801   3.166   3.884  10.997
96968SOL    HW292802   3.049   3.947  11.069
96969SOL     OW92803   9.998   1.441  14.012
96969SOL    HW192804  10.004   1.418  14.104
96969SOL    HW292805  10.082   1.480  13.990
96970SOL     OW92806   7.603  10.550  11.057
96970SOL    HW192807   7.673  10.587  11.003
96970SOL    HW292808   7.595  10.610  11.131
96971SOL     OW92809   2.678   8.976   2.682
96971SOL    HW192810   2.633   8.911   2.736
96971SOL    HW292811   2.730   8.925   2.620
96972SOL     OW92812  10.350  11.795   9.451
96972SOL    HW192813  10.335  11.700   9.447
96972SOL    HW292814  10.443  11.804   9.467
96973SOL     OW92815   5.317  13.513   6.828
96973SOL    HW192816   5.343  13.421   6.817
96973SOL    HW292817   5.319  13.549   6.739
96974SOL     OW92818   6.367   5.396   0.504
96974SOL    HW192819   6.381   5.324   0.442
96974SOL    HW292820   6.274   5.416   0.498
96975SOL     OW92821   9.530   4.464   3.284
96975SOL    HW192822   9.466   4.442   3.216
96975SOL    HW292823   9.532   4.387   3.341
96976SOL     OW92824   9.000   0.077  10.150
96976SOL    HW192825   8.988   0.032  10.067
96976SOL    HW292826   8.950   0.025  10.213
96977SOL     OW92827   4.682  11.140   3.603
96977SOL    HW192828   4.751  11.165   3.543
96977SOL    HW292829   4.728  11.110   3.682
96978SOL     OW92830   0.018  13.036  13.415
96978SOL    HW192831   0.015  13.055  13.509
96978SOL    HW292832  14.858  12.950  13.406
96979SOL     OW92833  14.431  13.479   2.508
96979SOL    HW192834  14.402  13.518   2.426
96979SOL    HW292835  14.521  13.513   2.519
96980SOL     OW92836   1.883   7.077  11.360
96980SOL    HW192837   1.826   7.011  11.322
96980SOL    HW292838   1.837   7.160  11.346
96981SOL     OW92839   6.647   2.566   4.532
96981SOL    HW192840   6.616   2.504   4.598
96981SOL    HW292841   6.568   2.615   4.508
96982SOL     OW92842   6.180   6.316  10.436
96982SOL    HW192843   6.239   6.339  10.508
96982SOL    HW292844   6.107   6.271  10.479
96983SOL     OW92845  12.707   9.692   2.901
96983SOL    HW192846  12.789   9.653   2.872
96983SOL    HW292847  12.727   9.785   2.912
96984SOL     OW92848  11.760  12.399  13.752
96984SOL    HW192849  11.760  12.315  13.706
96984SOL    HW292850  11.689  12.390  13.816
96985SOL     OW92851   4.170  13.745   4.551
96985SOL    HW192852   4.191  13.833   4.584
96985SOL    HW292853   4.212  13.742   4.465
96986SOL     OW92854  10.314  12.880   1.702
96986SOL    HW192855  10.319  12.914   1.791
96986SOL    HW292856  10.222  12.891   1.677
96987SOL     OW92857   4.140   2.825  11.945
96987SOL    HW192858   4.143   2.774  12.026
96987SOL    HW292859   4.202   2.781  11.886
96988SOL     OW92860   0.493  13.924   5.639
96988SOL    HW192861   0.440  13.877   5.703
96988SOL    HW292862   0.579  13.880   5.642
96989SOL     OW92863  14.342   2.530   1.469
96989SOL    HW192864  14.249   2.556   1.472
96989SOL    HW292865  14.360   2.499   1.558
96990SOL     OW92866  14.723  10.547   9.373
96990SOL    HW192867  14.664  10.622   9.383
96990SOL    HW292868  14.809  10.587   9.358
96991SOL     OW92869  10.357   1.986   5.972
96991SOL    HW192870  10.373   2.067   6.020
96991SOL    HW292871  10.302   1.934   6.030
96992SOL     OW92872   0.777   7.767   1.406
96992SOL    HW192873   0.687   7.761   1.375
96992SOL    HW292874   0.826   7.705   1.352
96993SOL     OW92875   4.973   4.882  10.982
96993SOL    HW192876   5.019   4.806  11.018
96993SOL    HW292877   5.030   4.914  10.913
96994SOL     OW92878   3.994   5.437  10.966
96994SOL    HW192879   3.983   5.530  10.985
96994SOL    HW292880   3.986   5.394  11.052
96995SOL     OW92881   6.246  10.184   4.907
96995SOL    HW192882   6.259  10.265   4.857
96995SOL    HW292883   6.330  10.140   4.904
96996SOL     OW92884   0.975   3.247   7.452
96996SOL    HW192885   0.909   3.192   7.494
96996SOL    HW292886   0.931   3.331   7.437
96997SOL     OW92887   7.539   3.062   8.552
96997SOL    HW192888   7.624   3.091   8.519
96997SOL    HW292889   7.548   2.967   8.562
96998SOL     OW92890  13.437   9.907   1.596
96998SOL    HW192891  13.480   9.831   1.556
96998SOL    HW292892  13.355   9.873   1.631
96999SOL     OW92893  11.003   2.329   3.788
96999SOL    HW192894  11.090   2.296   3.764
96999SOL    HW292895  11.017   2.381   3.867
97000SOL     OW92896   5.144  12.476   7.372
97000SOL    HW192897   5.151  12.517   7.459
97000SOL    HW292898   5.203  12.401   7.376
97001SOL     OW92899   7.680   3.918   6.484
97001SOL    HW192900   7.621   3.896   6.556
97001SOL    HW292901   7.678   3.842   6.426
97002SOL     OW92902   0.413  14.616   2.919
97002SOL    HW192903   0.455  14.697   2.947
97002SOL    HW292904   0.420  14.617   2.823
97003SOL     OW92905   6.045  10.747  13.958
97003SOL    HW192906   6.131  10.717  13.929
97003SOL    HW292907   6.037  10.835  13.921
97004SOL     OW92908  10.410  14.856   4.277
97004SOL    HW192909  10.395  14.838   4.370
97004SOL    HW292910  10.479  14.794   4.252
97005SOL     OW92911   3.760   4.886   7.391
97005SOL    HW192912   3.816   4.827   7.341
97005SOL    HW292913   3.703   4.927   7.326
97006SOL     OW92914   8.559   4.153   2.946
97006SOL    HW192915   8.555   4.116   2.858
97006SOL    HW292916   8.548   4.078   3.005
97007SOL     OW92917  14.400   4.180   2.073
97007SOL    HW192918  14.481   4.180   2.022
97007SOL    HW292919  14.427   4.200   2.162
97008SOL     OW92920  11.694   2.225   1.657
97008SOL    HW192921  11.618   2.284   1.662
97008SOL    HW292922  11.751   2.253   1.728
97009SOL     OW92923  13.668   5.833  11.998
97009SOL    HW192924  13.663   5.803  11.907
97009SOL    HW292925  13.580   5.819  12.032
97010SOL     OW92926  13.399   7.782  10.504
97010SOL    HW192927  13.367   7.799  10.416
97010SOL    HW292928  13.471   7.844  10.516
97011SOL     OW92929   4.372  12.289   0.224
97011SOL    HW192930   4.422  12.267   0.303
97011SOL    HW292931   4.282  12.266   0.246
97012SOL     OW92932  10.493  11.875   0.603
97012SOL    HW192933  10.440  11.895   0.526
97012SOL    HW292934  10.560  11.814   0.571
97013SOL     OW92935   8.918   5.650   3.771
97013SOL    HW192936   8.913   5.565   3.726
97013SOL    HW292937   8.878   5.711   3.710
97014SOL     OW92938   6.619   3.168  12.917
97014SOL    HW192939   6.589   3.163  13.008
97014SOL    HW292940   6.547   3.128  12.867
97015SOL     OW92941  11.588   6.616   3.970
97015SOL    HW192942  11.529   6.618   3.895
97015SOL    HW292943  11.546   6.673   4.035
97016SOL     OW92944  13.861   1.590   8.847
97016SOL    HW192945  13.828   1.677   8.826
97016SOL    HW292946  13.795   1.530   8.813
97017SOL     OW92947   3.337   7.318   3.477
97017SOL    HW192948   3.342   7.414   3.472
97017SOL    HW292949   3.325   7.299   3.570
97018SOL     OW92950  10.522  13.847  12.670
97018SOL    HW192951  10.598  13.889  12.711
97018SOL    HW292952  10.547  13.756  12.659
97019SOL     OW92953   1.969  13.577  12.180
97019SOL    HW192954   2.056  13.600  12.146
97019SOL    HW292955   1.977  13.486  12.206
97020SOL     OW92956   0.298  11.027   0.423
97020SOL    HW192957   0.338  11.093   0.479
97020SOL    HW292958   0.283  10.951   0.480
97021SOL     OW92959   7.145  13.065  13.451
97021SOL    HW192960   7.054  13.094  13.456
97021SOL    HW292961   7.183  13.092  13.535
97022SOL     OW92962  12.265   6.262  14.238
97022SOL    HW192963  12.325   6.272  14.164
97022SOL    HW292964  12.182   6.234  14.198
97023SOL     OW92965  12.430   7.937   3.505
97023SOL    HW192966  12.346   7.898   3.526
97023SOL    HW292967  12.477   7.938   3.589
97024SOL     OW92968   4.124  12.429  14.088
97024SOL    HW192969   4.146  12.356  14.030
97024SOL    HW292970   4.083  12.388  14.165
97025SOL     OW92971  14.472  13.068   0.462
97025SOL    HW192972  14.565  13.052   0.478
97025SOL    HW292973  14.457  13.040   0.372
97026SOL     OW92974  12.076   8.846   4.012
97026SOL    HW192975  12.100   8.783   4.080
97026SOL    HW292976  12.000   8.808   3.969
97027SOL     OW92977   2.378   3.293   2.226
97027SOL    HW192978   2.457   3.347   2.233
97027SOL    HW292979   2.387   3.250   2.140
97028SOL     OW92980   7.761  12.085  11.536
97028SOL    HW192981   7.713  12.130  11.466
97028SOL    HW292982   7.721  12.117  11.617
97029SOL     OW92983   5.974   4.910  11.800
97029SOL    HW192984   5.943   4.933  11.713
97029SOL    HW292985   6.068   4.927  11.797
97030SOL     OW92986   9.342   1.739   6.624
97030SOL    HW192987   9.316   1.821   6.666
97030SOL    HW292988   9.280   1.674   6.658
97031SOL     OW92989   7.129  13.356  12.245
97031SOL    HW192990   7.175  13.430  12.204
97031SOL    HW292991   7.108  13.298  12.173
97032SOL     OW92992   6.589  12.510   7.118
97032SOL    HW192993   6.550  12.580   7.170
97032SOL    HW292994   6.676  12.497   7.157
97033SOL     OW92995   0.091  14.759   7.642
97033SOL    HW192996   0.109  14.852   7.653
97033SOL    HW292997   0.040  14.754   7.561
97034SOL     OW92998   9.251   8.611   5.125
97034SOL    HW192999   9.323   8.672   5.116
97034SOL    HW293000   9.226   8.615   5.217
97035SOL     OW93001   1.104   5.080  14.309
97035SOL    HW193002   1.067   5.064  14.222
97035SOL    HW293003   1.038   5.048  14.370
97036SOL     OW93004   0.928   2.859   6.624
97036SOL    HW193005   0.851   2.869   6.680
97036SOL    HW293006   0.907   2.910   6.545
97037SOL     OW93007  13.339   7.627   6.320
97037SOL    HW193008  13.409   7.631   6.385
97037SOL    HW293009  13.347   7.540   6.281
97038SOL     OW93010  12.520  11.839   3.174
97038SOL    HW193011  12.608  11.873   3.155
97038SOL    HW293012  12.462  11.891   3.119
97039SOL     OW93013   9.862   1.609  10.462
97039SOL    HW193014   9.886   1.698  10.487
97039SOL    HW293015   9.768   1.605  10.479
97040SOL     OW93016   6.924   0.247   2.956
97040SOL    HW193017   6.924   0.342   2.952
97040SOL    HW293018   6.998   0.220   2.901
97041SOL     OW93019  14.043   0.199   5.305
97041SOL    HW193020  14.085   0.241   5.380
97041SOL    HW293021  14.054   0.106   5.320
97042SOL     OW93022   2.639   6.554  14.620
97042SOL    HW193023   2.545   6.563  14.604
97042SOL    HW293024   2.675   6.640  14.600
97043SOL     OW93025   0.279   1.326   0.827
97043SOL    HW193026   0.257   1.233   0.823
97043SOL    HW293027   0.203   1.366   0.870
97044SOL     OW93028   2.218  10.432   0.796
97044SOL    HW193029   2.227  10.496   0.726
97044SOL    HW293030   2.267  10.469   0.869
97045SOL     OW93031   7.663  10.564   5.950
97045SOL    HW193032   7.707  10.479   5.951
97045SOL    HW293033   7.581  10.549   5.995
97046SOL     OW93034   8.875   0.480   6.584
97046SOL    HW193035   8.923   0.523   6.655
97046SOL    HW293036   8.820   0.549   6.548
97047SOL     OW93037   1.079   4.659  13.268
97047SOL    HW193038   0.999   4.709  13.252
97047SOL    HW293039   1.096   4.614  13.186
97048SOL     OW93040  11.067   4.012  10.702
97048SOL    HW193041  11.091   4.047  10.788
97048SOL    HW293042  11.011   4.080  10.664
97049SOL     OW93043  13.371   1.162   0.173
97049SOL    HW193044  13.336   1.226   0.236
97049SOL    HW293045  13.294   1.119   0.137
97050SOL     OW93046   2.363   8.897  12.335
97050SOL    HW193047   2.302   8.971  12.338
97050SOL    HW293048   2.424   8.920  12.265
97051SOL     OW93049   6.725  14.495   3.350
97051SOL    HW193050   6.738  14.429   3.418
97051SOL    HW293051   6.677  14.566   3.394
97052SOL     OW93052   0.388  12.291   1.230
97052SOL    HW193053   0.470  12.312   1.185
97052SOL    HW293054   0.355  12.214   1.184
97053SOL     OW93055  13.305   8.197  13.625
97053SOL    HW193056  13.322   8.225  13.535
97053SOL    HW293057  13.213   8.219  13.640
97054SOL     OW93058   7.684   9.607  13.580
97054SOL    HW193059   7.701   9.548  13.507
97054SOL    HW293060   7.770   9.620  13.621
97055SOL     OW93061  14.095  12.117  11.651
97055SOL    HW193062  14.077  12.151  11.563
97055SOL    HW293063  14.174  12.063  11.640
97056SOL     OW93064   5.801   6.840  13.546
97056SOL    HW193065   5.732   6.780  13.518
97056SOL    HW293066   5.781   6.922  13.501
97057SOL     OW93067   9.459   7.846   1.083
97057SOL    HW193068   9.401   7.834   1.008
97057SOL    HW293069   9.506   7.763   1.091
97058SOL     OW93070  12.578  11.776   4.803
97058SOL    HW193071  12.603  11.841   4.737
97058SOL    HW293072  12.560  11.696   4.754
97059SOL     OW93073  12.300   0.125   6.990
97059SOL    HW193074  12.294   0.212   6.952
97059SOL    HW293075  12.370   0.082   6.941
97060SOL     OW93076  10.928  11.925  14.549
97060SOL    HW193077  10.896  11.984  14.617
97060SOL    HW293078  10.884  11.953  14.469
97061SOL     OW93079   2.966  12.538   0.376
97061SOL    HW193080   3.037  12.522   0.438
97061SOL    HW293081   2.888  12.551   0.431
97062SOL     OW93082   1.209   8.913  12.112
97062SOL    HW193083   1.300   8.915  12.080
97062SOL    HW293084   1.156   8.922  12.033
97063SOL     OW93085  12.144   3.677   5.232
97063SOL    HW193086  12.052   3.655   5.219
97063SOL    HW293087  12.146   3.773   5.229
97064SOL     OW93088  14.677  12.715   4.958
97064SOL    HW193089  14.665  12.651   5.028
97064SOL    HW293090  14.762  12.694   4.921
97065SOL     OW93091   2.042   4.576   8.895
97065SOL    HW193092   2.132   4.575   8.929
97065SOL    HW293093   1.987   4.580   8.973
97066SOL     OW93094   5.878   4.440   0.454
97066SOL    HW193095   5.926   4.387   0.517
97066SOL    HW293096   5.787   4.437   0.483
97067SOL     OW93097  10.359  13.359  10.875
97067SOL    HW193098  10.358  13.275  10.828
97067SOL    HW293099  10.449  13.368  10.905
97068SOL     OW93100  11.059   1.441   5.826
97068SOL    HW193101  10.968   1.411   5.836
97068SOL    HW293102  11.076   1.435   5.732
97069SOL     OW93103  12.578   9.357   1.621
97069SOL    HW193104  12.522   9.304   1.677
97069SOL    HW293105  12.531   9.364   1.538
97070SOL     OW93106   3.074   0.504   7.177
97070SOL    HW193107   3.139   0.567   7.146
97070SOL    HW293108   2.991   0.536   7.141
97071SOL     OW93109  11.693  11.250  11.984
97071SOL    HW193110  11.660  11.331  11.945
97071SOL    HW293111  11.617  11.191  11.984
97072SOL     OW93112   1.262   9.865   3.088
97072SOL    HW193113   1.201   9.893   3.156
97072SOL    HW293114   1.244   9.772   3.076
97073SOL     OW93115   1.528   5.573   3.160
97073SOL    HW193116   1.473   5.560   3.238
97073SOL    HW293117   1.615   5.591   3.195
97074SOL     OW93118   9.547  14.650  11.231
97074SOL    HW193119   9.463  14.657  11.277
97074SOL    HW293120   9.608  14.698  11.286
97075SOL     OW93121  11.602  11.595   2.520
97075SOL    HW193122  11.656  11.581   2.598
97075SOL    HW293123  11.559  11.679   2.535
97076SOL     OW93124  13.132   8.432   8.304
97076SOL    HW193125  13.139   8.364   8.238
97076SOL    HW293126  13.222   8.447   8.334
97077SOL     OW93127  10.181   5.645   3.603
97077SOL    HW193128  10.256   5.588   3.620
97077SOL    HW293129  10.145   5.614   3.520
97078SOL     OW93130   9.586   7.998   3.218
97078SOL    HW193131   9.586   7.962   3.129
97078SOL    HW293132   9.604   8.091   3.206
97079SOL     OW93133   9.175   4.073   0.475
97079SOL    HW193134   9.243   4.043   0.415
97079SOL    HW293135   9.103   4.011   0.463
97080SOL     OW93136   6.381   3.909   8.347
97080SOL    HW193137   6.427   3.833   8.311
97080SOL    HW293138   6.314   3.929   8.282
97081SOL     OW93139   9.609   4.251   5.535
97081SOL    HW193140   9.603   4.298   5.452
97081SOL    HW293141   9.520   4.253   5.570
97082SOL     OW93142  11.633   6.724  12.152
97082SOL    HW193143  11.690   6.792  12.116
97082SOL    HW293144  11.575   6.700  12.080
97083SOL     OW93145  12.274   9.330  11.458
97083SOL    HW193146  12.252   9.380  11.380
97083SOL    HW293147  12.193   9.282  11.480
97084SOL     OW93148   8.537   2.174  11.477
97084SOL    HW193149   8.556   2.227  11.400
97084SOL    HW293150   8.623   2.152  11.513
97085SOL     OW93151  14.551   2.329  12.880
97085SOL    HW193152  14.512   2.257  12.830
97085SOL    HW293153  14.633   2.348  12.834
97086SOL     OW93154  11.500  12.719   5.420
97086SOL    HW193155  11.546  12.667   5.486
97086SOL    HW293156  11.408  12.709   5.442
97087SOL     OW93157   0.442   5.513  11.504
97087SOL    HW193158   0.432   5.425  11.468
97087SOL    HW293159   0.353   5.549  11.503
97088SOL     OW93160   4.684   5.345   3.055
97088SOL    HW193161   4.668   5.253   3.033
97088SOL    HW293162   4.687   5.390   2.970
97089SOL     OW93163   2.823   1.932  12.608
97089SOL    HW193164   2.911   1.937  12.570
97089SOL    HW293165   2.833   1.964  12.697
97090SOL     OW93166   0.990   4.622   6.568
97090SOL    HW193167   0.990   4.707   6.612
97090SOL    HW293168   0.913   4.577   6.602
97091SOL     OW93169   1.423   3.483   6.986
97091SOL    HW193170   1.340   3.485   7.034
97091SOL    HW293171   1.444   3.389   6.980
97092SOL     OW93172   6.794   3.783   0.167
97092SOL    HW193173   6.712   3.791   0.118
97092SOL    HW293174   6.777   3.829   0.249
97093SOL     OW93175  12.457   3.695   1.193
97093SOL    HW193176  12.487   3.654   1.274
97093SOL    HW293177  12.362   3.686   1.196
97094SOL     OW93178   7.463   0.047   0.068
97094SOL    HW193179   7.403  14.859   0.095
97094SOL    HW293180   7.411   0.127   0.077
97095SOL     OW93181   2.145  10.873   7.947
97095SOL    HW193182   2.179  10.811   7.882
97095SOL    HW293183   2.060  10.837   7.972
97096SOL     OW93184   5.698   2.760   3.347
97096SOL    HW193185   5.610   2.760   3.385
97096SOL    HW293186   5.753   2.801   3.414
97097SOL     OW93187   7.130   8.124   5.659
97097SOL    HW193188   7.147   8.156   5.571
97097SOL    HW293189   7.192   8.052   5.672
97098SOL     OW93190   0.674  12.366  14.844
97098SOL    HW193191   0.628  12.347  14.763
97098SOL    HW293192   0.742  12.429  14.820
97099SOL     OW93193   1.410   0.143   0.923
97099SOL    HW193194   1.405   0.054   0.890
97099SOL    HW293195   1.336   0.188   0.882
97100SOL     OW93196  13.359   3.852   0.470
97100SOL    HW193197  13.296   3.901   0.417
97100SOL    HW293198  13.312   3.832   0.550
97101SOL     OW93199   0.012   3.652   9.417
97101SOL    HW193200   0.094   3.694   9.442
97101SOL    HW293201  14.826   3.710   9.451
97102SOL     OW93202   3.227  13.155   5.342
97102SOL    HW193203   3.301  13.135   5.398
97102SOL    HW293204   3.225  13.084   5.278
97103SOL     OW93205   3.671  14.797  10.919
97103SOL    HW193206   3.620  14.743  10.859
97103SOL    HW293207   3.643   0.005  10.900
97104SOL     OW93208   4.119   9.291   5.335
97104SOL    HW193209   4.214   9.296   5.345
97104SOL    HW293210   4.106   9.246   5.252
97105SOL     OW93211   1.931   4.239  12.152
97105SOL    HW193212   1.841   4.236  12.118
97105SOL    HW293213   1.986   4.247  12.075
97106SOL     OW93214   0.220  11.622   2.487
97106SOL    HW193215   0.249  11.537   2.454
97106SOL    HW293216   0.210  11.610   2.581
97107SOL     OW93217  12.872   9.370   7.429
97107SOL    HW193218  12.789   9.404   7.463
97107SOL    HW293219  12.864   9.380   7.334
97108SOL     OW93220   5.086   4.614   6.740
97108SOL    HW193221   5.077   4.562   6.820
97108SOL    HW293222   5.155   4.677   6.761
97109SOL     OW93223   8.706   4.748   5.281
97109SOL    HW193224   8.768   4.821   5.284
97109SOL    HW293225   8.620   4.790   5.283
97110SOL     OW93226   7.991   0.024   5.209
97110SOL    HW193227   7.965  14.821   5.244
97110SOL    HW293228   8.074   0.043   5.253
97111SOL     OW93229   1.748   9.426   0.818
97111SOL    HW193230   1.711   9.514   0.823
97111SOL    HW293231   1.841   9.439   0.838
97112SOL     OW93232  13.225   2.883   1.388
97112SOL    HW193233  13.218   2.902   1.482
97112SOL    HW293234  13.276   2.802   1.383
97113SOL     OW93235   8.709   1.835   1.568
97113SOL    HW193236   8.800   1.864   1.565
97113SOL    HW293237   8.714   1.741   1.586
97114SOL     OW93238  11.486   2.493   2.101
97114SOL    HW193239  11.486   2.583   2.132
97114SOL    HW293240  11.394   2.471   2.090
97115SOL     OW93241   0.008   2.861   4.620
97115SOL    HW193242   0.095   2.882   4.652
97115SOL    HW293243   0.023   2.808   4.542
97116SOL     OW93244   6.749   6.428   7.453
97116SOL    HW193245   6.717   6.434   7.543
97116SOL    HW293246   6.843   6.416   7.463
97117SOL     OW93247   8.928  13.165  14.212
97117SOL    HW193248   8.988  13.175  14.285
97117SOL    HW293249   8.842  13.187  14.249
97118SOL     OW93250  10.951   8.744  11.931
97118SOL    HW193251  10.870   8.720  11.976
97118SOL    HW293252  10.922   8.804  11.861
97119SOL     OW93253   0.797   9.026   7.687
97119SOL    HW193254   0.861   8.955   7.682
97119SOL    HW293255   0.811   9.076   7.607
97120SOL     OW93256   0.157   2.076  10.075
97120SOL    HW193257   0.245   2.056  10.042
97120SOL    HW293258   0.173   2.119  10.159
97121SOL     OW93259   5.974   6.347  11.270
97121SOL    HW193260   5.883   6.363  11.296
97121SOL    HW293261   6.021   6.424  11.300
97122SOL     OW93262   5.878   5.415   3.941
97122SOL    HW193263   5.813   5.485   3.952
97122SOL    HW293264   5.955   5.460   3.908
97123SOL     OW93265   1.480   2.450   8.294
97123SOL    HW193266   1.387   2.446   8.274
97123SOL    HW293267   1.488   2.519   8.360
97124SOL     OW93268  14.814   3.223   1.151
97124SOL    HW193269  14.834   3.294   1.211
97124SOL    HW293270   0.016   3.180   1.135
97125SOL     OW93271   2.871   9.376  13.436
97125SOL    HW193272   2.864   9.461  13.481
97125SOL    HW293273   2.839   9.393  13.348
97126SOL     OW93274   2.873   1.828   9.954
97126SOL    HW193275   2.880   1.921   9.979
97126SOL    HW293276   2.959   1.791   9.977
97127SOL     OW93277   2.633  14.109   0.494
97127SOL    HW193278   2.684  14.051   0.439
97127SOL    HW293279   2.697  14.144   0.557
97128SOL     OW93280   6.482   7.964  10.739
97128SOL    HW193281   6.477   7.881  10.691
97128SOL    HW293282   6.573   7.971  10.765
97129SOL     OW93283   9.672   2.980   2.898
97129SOL    HW193284   9.599   2.918   2.894
97129SOL    HW293285   9.636   3.061   2.862
97130SOL     OW93286   5.755  11.055  12.493
97130SOL    HW193287   5.799  11.038  12.576
97130SOL    HW293288   5.753  11.151  12.486
97131SOL     OW93289  11.056  13.839  10.732
97131SOL    HW193290  11.017  13.770  10.786
97131SOL    HW293291  11.150  13.833  10.748
97132SOL     OW93292   3.756   9.665   0.112
97132SOL    HW193293   3.681   9.648   0.170
97132SOL    HW293294   3.782   9.755   0.133
97133SOL     OW93295  10.201   0.141   5.157
97133SOL    HW193296  10.276   0.139   5.098
97133SOL    HW293297  10.191   0.051   5.186
97134SOL     OW93298   6.200  10.377  13.381
97134SOL    HW193299   6.282  10.401  13.425
97134SOL    HW293300   6.152  10.459  13.372
97135SOL     OW93301   4.257  13.600   2.934
97135SOL    HW193302   4.171  13.639   2.951
97135SOL    HW293303   4.260  13.589   2.839
97136SOL     OW93304  10.900   1.030   3.966
97136SOL    HW193305  10.826   1.045   3.908
97136SOL    HW293306  10.960   0.975   3.916
97137SOL     OW93307   8.114   9.051   7.948
97137SOL    HW193308   8.102   9.138   7.910
97137SOL    HW293309   8.200   9.055   7.989
97138SOL     OW93310  13.946   9.987  12.496
97138SOL    HW193311  13.903   9.945  12.570
97138SOL    HW293312  14.039   9.982  12.516
97139SOL     OW93313   9.750   0.664   4.614
97139SOL    HW193314   9.795   0.641   4.532
97139SOL    HW293315   9.820   0.688   4.674
97140SOL     OW93316   5.370  14.801   9.575
97140SOL    HW193317   5.325  14.751   9.506
97140SOL    HW293318   5.463  14.786   9.558
97141SOL     OW93319  10.961  14.299  12.712
97141SOL    HW193320  10.900  14.234  12.678
97141SOL    HW293321  10.921  14.330  12.793
97142SOL     OW93322  11.259   0.140  13.267
97142SOL    HW193323  11.293   0.054  13.241
97142SOL    HW293324  11.182   0.120  13.320
97143SOL     OW93325   0.691   4.575   2.327
97143SOL    HW193326   0.717   4.487   2.355
97143SOL    HW293327   0.595   4.572   2.323
97144SOL     OW93328   8.279   7.624  11.516
97144SOL    HW193329   8.230   7.672  11.583
97144SOL    HW293330   8.301   7.691  11.450
97145SOL     OW93331   9.758   9.214   5.401
97145SOL    HW193332   9.698   9.254   5.339
97145SOL    HW293333   9.803   9.287   5.443
97146SOL     OW93334   2.907   9.075   0.652
97146SOL    HW193335   2.819   9.038   0.645
97146SOL    HW293336   2.899   9.144   0.718
97147SOL     OW93337  11.056  12.401  12.077
97147SOL    HW193338  11.037  12.345  12.152
97147SOL    HW293339  11.001  12.478  12.090
97148SOL     OW93340   1.417   7.257   7.014
97148SOL    HW193341   1.398   7.311   6.937
97148SOL    HW293342   1.491   7.202   6.987
97149SOL     OW93343  12.601   0.084   3.840
97149SOL    HW193344  12.556   0.109   3.759
97149SOL    HW293345  12.679   0.141   3.843
97150SOL     OW93346   3.652   6.631  14.191
97150SOL    HW193347   3.670   6.593  14.277
97150SOL    HW293348   3.601   6.565  14.145
97151SOL     OW93349   0.674   4.004   5.952
97151SOL    HW193350   0.621   4.010   6.032
97151SOL    HW293351   0.624   3.946   5.894
97152SOL     OW93352  10.373  14.274  10.910
97152SOL    HW193353  10.396  14.353  10.958
97152SOL    HW293354  10.390  14.295  10.818
97153SOL     OW93355   0.233   3.857  12.345
97153SOL    HW193356   0.217   3.907  12.265
97153SOL    HW293357   0.155   3.803  12.356
97154SOL     OW93358  10.427   5.451  12.059
97154SOL    HW193359  10.365   5.437  11.988
97154SOL    HW293360  10.419   5.544  12.080
97155SOL     OW93361  10.225   5.376   9.800
97155SOL    HW193362  10.288   5.443   9.825
97155SOL    HW293363  10.278   5.300   9.777
97156SOL     OW93364  13.729  13.070  11.153
97156SOL    HW193365  13.786  13.011  11.104
97156SOL    HW293366  13.788  13.135  11.191
97157SOL     OW93367  13.865   9.697   0.826
97157SOL    HW193368  13.875   9.624   0.765
97157SOL    HW293369  13.925   9.764   0.794
97158SOL     OW93370  12.243  14.143   5.562
97158SOL    HW193371  12.220  14.115   5.474
97158SOL    HW293372  12.166  14.192   5.592
97159SOL     OW93373   6.181  10.168  11.883
97159SOL    HW193374   6.130  10.179  11.804
97159SOL    HW293375   6.247  10.237  11.879
97160SOL     OW93376   2.377   6.522  13.468
97160SOL    HW193377   2.359   6.556  13.556
97160SOL    HW293378   2.365   6.597  13.410
97161SOL     OW93379   3.675  12.130  12.377
97161SOL    HW193380   3.584  12.102  12.390
97161SOL    HW293381   3.685  12.205  12.435
97162SOL     OW93382   0.753   4.868  10.467
97162SOL    HW193383   0.761   4.961  10.487
97162SOL    HW293384   0.659   4.855  10.449
97163SOL     OW93385   2.456   4.103  11.667
97163SOL    HW193386   2.492   4.180  11.622
97163SOL    HW293387   2.530   4.045  11.680
97164SOL     OW93388   8.369   5.911   4.804
97164SOL    HW193389   8.411   5.996   4.817
97164SOL    HW293390   8.439   5.847   4.817
97165SOL     OW93391  11.015  12.023   2.895
97165SOL    HW193392  11.069  12.102   2.897
97165SOL    HW293393  11.072  11.956   2.857
97166SOL     OW93394   1.725   0.949   5.731
97166SOL    HW193395   1.665   0.878   5.752
97166SOL    HW293396   1.805   0.904   5.701
97167SOL     OW93397   9.910   6.645  14.557
97167SOL    HW193398   9.928   6.567  14.504
97167SOL    HW293399   9.849   6.615  14.624
97168SOL     OW93400   8.351   4.337   4.419
97168SOL    HW193401   8.296   4.266   4.386
97168SOL    HW293402   8.320   4.352   4.508
97169SOL     OW93403   6.480   8.173   7.242
97169SOL    HW193404   6.541   8.231   7.288
97169SOL    HW293405   6.531   8.093   7.227
97170SOL     OW93406  14.162  13.469  14.060
97170SOL    HW193407  14.096  13.452  14.126
97170SOL    HW293408  14.193  13.382  14.033
97171SOL     OW93409   5.494   5.901   6.116
97171SOL    HW193410   5.488   5.837   6.045
97171SOL    HW293411   5.409   5.945   6.116
97172SOL     OW93412   8.337   4.992   4.803
97172SOL    HW193413   8.384   4.926   4.752
97172SOL    HW293414   8.248   4.989   4.769
97173SOL     OW93415  11.538   9.321  11.969
97173SOL    HW193416  11.476   9.320  11.896
97173SOL    HW293417  11.497   9.378  12.035
97174SOL     OW93418   8.584   7.887   9.092
97174SOL    HW193419   8.550   7.949   9.157
97174SOL    HW293420   8.642   7.939   9.037
97175SOL     OW93421   6.050  12.708   1.786
97175SOL    HW193422   6.010  12.770   1.725
97175SOL    HW293423   6.006  12.625   1.768
97176SOL     OW93424  11.785   0.500   0.994
97176SOL    HW193425  11.791   0.410   0.963
97176SOL    HW293426  11.732   0.545   0.928
97177SOL     OW93427   1.039   2.458   9.390
97177SOL    HW193428   1.122   2.438   9.433
97177SOL    HW293429   1.059   2.534   9.335
97178SOL     OW93430   8.362   3.924  11.607
97178SOL    HW193431   8.435   3.950  11.550
97178SOL    HW293432   8.381   3.964  11.691
97179SOL     OW93433   6.751  14.220   5.038
97179SOL    HW193434   6.663  14.183   5.034
97179SOL    HW293435   6.789  14.201   4.952
97180SOL     OW93436   9.400   9.794  14.736
97180SOL    HW193437   9.428   9.703  14.749
97180SOL    HW293438   9.335   9.809  14.804
97181SOL     OW93439  11.319  14.195  10.918
97181SOL    HW193440  11.244  14.237  10.960
97181SOL    HW293441  11.368  14.157  10.990
97182SOL     OW93442  11.651  14.574   1.312
97182SOL    HW193443  11.708  14.548   1.384
97182SOL    HW293444  11.644  14.497   1.256
97183SOL     OW93445   4.440  11.440   6.992
97183SOL    HW193446   4.517  11.498   6.999
97183SOL    HW293447   4.472  11.354   7.019
97184SOL     OW93448  12.970   1.830   2.020
97184SOL    HW193449  12.946   1.923   2.020
97184SOL    HW293450  13.062   1.829   1.997
97185SOL     OW93451  13.397  12.067  13.480
97185SOL    HW193452  13.376  12.111  13.563
97185SOL    HW293453  13.484  12.030  13.494
97186SOL     OW93454  13.345  10.434   3.583
97186SOL    HW193455  13.384  10.511   3.543
97186SOL    HW293456  13.379  10.433   3.673
97187SOL     OW93457   8.242   2.367  12.600
97187SOL    HW193458   8.188   2.413  12.665
97187SOL    HW293459   8.332   2.381  12.630
97188SOL     OW93460   9.809  13.463   1.558
97188SOL    HW193461   9.785  13.495   1.472
97188SOL    HW293462   9.902  13.440   1.550
97189SOL     OW93463   4.287   7.489   6.480
97189SOL    HW193464   4.375   7.492   6.443
97189SOL    HW293465   4.301   7.496   6.575
97190SOL     OW93466   7.397  14.426   0.850
97190SOL    HW193467   7.363  14.339   0.833
97190SOL    HW293468   7.342  14.484   0.798
97191SOL     OW93469  13.672   7.479   6.247
97191SOL    HW193470  13.632   7.531   6.317
97191SOL    HW293471  13.676   7.538   6.172
97192SOL     OW93472   0.169   3.292   4.471
97192SOL    HW193473   0.175   3.225   4.404
97192SOL    HW293474   0.248   3.280   4.524
97193SOL     OW93475   3.382   6.960   1.038
97193SOL    HW193476   3.361   6.871   1.010
97193SOL    HW293477   3.464   6.980   0.994
97194SOL     OW93478   1.835   8.137   0.052
97194SOL    HW193479   1.812   8.047   0.073
97194SOL    HW293480   1.871   8.172   0.134
97195SOL     OW93481   6.747   1.514   0.198
97195SOL    HW193482   6.692   1.591   0.208
97195SOL    HW293483   6.799   1.531   0.119
97196SOL     OW93484  12.886  11.114  14.072
97196SOL    HW193485  12.921  11.031  14.104
97196SOL    HW293486  12.861  11.162  14.151
97197SOL     OW93487   4.288  10.465   7.647
97197SOL    HW193488   4.268  10.375   7.673
97197SOL    HW293489   4.205  10.512   7.658
97198SOL     OW93490   4.756   9.310   4.809
97198SOL    HW193491   4.785   9.227   4.846
97198SOL    HW293492   4.670   9.291   4.771
97199SOL     OW93493   9.182  11.897  14.145
97199SOL    HW193494   9.208  11.937  14.227
97199SOL    HW293495   9.264  11.882  14.098
97200SOL     OW93496  12.701   0.511  11.570
97200SOL    HW193497  12.760   0.498  11.645
97200SOL    HW293498  12.628   0.453  11.587
97201SOL     OW93499  12.907   5.635   8.760
97201SOL    HW193500  12.912   5.666   8.669
97201SOL    HW293501  12.891   5.713   8.811
97202SOL     OW93502   0.579   1.323  11.785
97202SOL    HW193503   0.602   1.249  11.729
97202SOL    HW293504   0.566   1.284  11.871
97203SOL     OW93505   2.637   0.823  12.904
97203SOL    HW193506   2.549   0.798  12.932
97203SOL    HW293507   2.672   0.746  12.861
97204SOL     OW93508   3.929   2.201   0.346
97204SOL    HW193509   3.895   2.232   0.431
97204SOL    HW293510   3.863   2.230   0.283
97205SOL     OW93511   6.034   1.027   2.587
97205SOL    HW193512   5.949   1.000   2.552
97205SOL    HW293513   6.048   0.971   2.663
97206SOL     OW93514  10.873   1.208   1.556
97206SOL    HW193515  10.887   1.115   1.569
97206SOL    HW293516  10.880   1.246   1.643
97207SOL     OW93517   0.366   2.404  10.270
97207SOL    HW193518   0.368   2.493  10.234
97207SOL    HW293519   0.416   2.352  10.207
97208SOL     OW93520  11.107   4.121   3.719
97208SOL    HW193521  11.101   4.216   3.710
97208SOL    HW293522  11.034   4.096   3.775
97209SOL     OW93523   5.902  14.095   6.272
97209SOL    HW193524   5.819  14.138   6.249
97209SOL    HW293525   5.966  14.134   6.213
97210SOL     OW93526   5.415   3.731   0.073
97210SOL    HW193527   5.424   3.640   0.099
97210SOL    HW293528   5.336   3.733   0.020
97211SOL     OW93529  12.165  14.755  13.011
97211SOL    HW193530  12.143  14.753  13.104
97211SOL    HW293531  12.195  14.666  12.991
97212SOL     OW93532   7.759   5.687   0.215
97212SOL    HW193533   7.803   5.683   0.300
97212SOL    HW293534   7.770   5.777   0.186
97213SOL     OW93535  12.500   3.671   0.597
97213SOL    HW193536  12.427   3.732   0.591
97213SOL    HW293537  12.460   3.584   0.588
97214SOL     OW93538  14.862   9.009   1.230
97214SOL    HW193539   0.076   9.006   1.237
97214SOL    HW293540  14.835   9.069   1.299
97215SOL     OW93541   6.613  10.690   9.872
97215SOL    HW193542   6.542  10.684   9.936
97215SOL    HW293543   6.626  10.600   9.842
97216SOL     OW93544  12.760   3.031  14.774
97216SOL    HW193545  12.772   3.123  14.795
97216SOL    HW293546  12.699   3.031  14.700
97217SOL     OW93547   2.643  10.907   5.552
97217SOL    HW193548   2.723  10.874   5.510
97217SOL    HW293549   2.583  10.833   5.550
97218SOL     OW93550   2.184   8.080   8.664
97218SOL    HW193551   2.130   8.070   8.585
97218SOL    HW293552   2.128   8.127   8.726
97219SOL     OW93553  11.083   8.252   0.553
97219SOL    HW193554  11.130   8.326   0.590
97219SOL    HW293555  10.998   8.253   0.596
97220SOL     OW93556   9.490  11.819   0.542
97220SOL    HW193557   9.557  11.836   0.475
97220SOL    HW293558   9.535  11.765   0.607
97221SOL     OW93559   1.131  11.883   9.385
97221SOL    HW193560   1.093  11.909   9.301
97221SOL    HW293561   1.068  11.914   9.450
97222SOL     OW93562  12.862   1.334  14.186
97222SOL    HW193563  12.931   1.375  14.238
97222SOL    HW293564  12.789   1.396  14.189
97223SOL     OW93565   5.306  12.503   9.680
97223SOL    HW193566   5.397  12.473   9.686
97223SOL    HW293567   5.255  12.422   9.673
97224SOL     OW93568   7.422   3.592   2.065
97224SOL    HW193569   7.399   3.629   1.980
97224SOL    HW293570   7.339   3.557   2.099
97225SOL     OW93571   9.364  13.902   5.221
97225SOL    HW193572   9.326  13.814   5.226
97225SOL    HW293573   9.357  13.925   5.128
97226SOL     OW93574  12.178   4.942   2.503
97226SOL    HW193575  12.135   4.890   2.435
97226SOL    HW293576  12.105   4.975   2.556
97227SOL     OW93577   0.356  11.876   7.132
97227SOL    HW193578   0.268  11.867   7.168
97227SOL    HW293579   0.343  11.873   7.037
97228SOL     OW93580   2.909   3.822  14.747
97228SOL    HW193581   2.990   3.850  14.789
97228SOL    HW293582   2.922   3.729  14.728
97229SOL     OW93583   5.226  14.006   6.027
97229SOL    HW193584   5.196  14.088   5.988
97229SOL    HW293585   5.286  14.034   6.096
97230SOL     OW93586   0.923  12.829  12.014
97230SOL    HW193587   0.840  12.831  11.967
97230SOL    HW293588   0.982  12.883  11.961
97231SOL     OW93589  14.759   1.032   2.390
97231SOL    HW193590  14.799   0.997   2.311
97231SOL    HW293591  14.810   0.993   2.462
97232SOL     OW93592   4.083   8.712  12.258
97232SOL    HW193593   4.062   8.760  12.338
97232SOL    HW293594   4.178   8.711  12.255
97233SOL     OW93595   9.129  11.670  13.711
97233SOL    HW193596   9.122  11.579  13.738
97233SOL    HW293597   9.141  11.666  13.616
97234SOL     OW93598  12.949   9.799   6.861
97234SOL    HW193599  12.894   9.748   6.801
97234SOL    HW293600  12.922   9.889   6.847
97235SOL     OW93601  14.347   4.477   2.438
97235SOL    HW193602  14.264   4.525   2.449
97235SOL    HW293603  14.390   4.521   2.365
97236SOL     OW93604   1.454   5.752  14.083
97236SOL    HW193605   1.397   5.678  14.062
97236SOL    HW293606   1.508   5.721  14.156
97237SOL     OW93607   5.490   5.074   9.857
97237SOL    HW193608   5.547   5.141   9.819
97237SOL    HW293609   5.402   5.110   9.848
97238SOL     OW93610   0.430   9.747   3.190
97238SOL    HW193611   0.406   9.768   3.280
97238SOL    HW293612   0.430   9.651   3.186
97239SOL     OW93613   1.031  14.682   4.847
97239SOL    HW193614   0.980  14.618   4.796
97239SOL    HW293615   1.093  14.628   4.896
97240SOL     OW93616   5.715   3.163   5.743
97240SOL    HW193617   5.774   3.168   5.668
97240SOL    HW293618   5.686   3.253   5.757
97241SOL     OW93619   9.072   4.403  12.447
97241SOL    HW193620   9.121   4.451  12.514
97241SOL    HW293621   9.041   4.471  12.387
97242SOL     OW93622  10.093  13.496   5.644
97242SOL    HW193623  10.091  13.483   5.739
97242SOL    HW293624  10.113  13.589   5.633
97243SOL     OW93625   4.726  13.200  12.351
97243SOL    HW193626   4.798  13.171  12.406
97243SOL    HW293627   4.683  13.269  12.401
97244SOL     OW93628   8.483   1.940   6.791
97244SOL    HW193629   8.494   2.025   6.834
97244SOL    HW293630   8.390   1.921   6.798
97245SOL     OW93631   3.925  14.860   8.428
97245SOL    HW193632   3.904   0.057   8.378
97245SOL    HW293633   3.931  14.791   8.363
97246SOL     OW93634   6.061   8.434   4.488
97246SOL    HW193635   6.127   8.474   4.545
97246SOL    HW293636   6.110   8.365   4.441
97247SOL     OW93637   9.139  14.321  10.849
97247SOL    HW193638   9.101  14.240  10.816
97247SOL    HW293639   9.074  14.388  10.826
97248SOL     OW93640   5.936   7.787  12.809
97248SOL    HW193641   6.020   7.766  12.769
97248SOL    HW293642   5.881   7.711  12.790
97249SOL     OW93643   1.682   8.437   6.336
97249SOL    HW193644   1.711   8.364   6.281
97249SOL    HW293645   1.688   8.403   6.425
97250SOL     OW93646  13.662   1.531   4.798
97250SOL    HW193647  13.594   1.470   4.827
97250SOL    HW293648  13.731   1.522   4.864
97251SOL     OW93649   7.099  14.643  13.038
97251SOL    HW193650   7.070  14.592  12.962
97251SOL    HW293651   7.195  14.646  13.029
97252SOL     OW93652  12.556   3.085   7.854
97252SOL    HW193653  12.590   3.062   7.768
97252SOL    HW293654  12.461   3.093   7.840
97253SOL     OW93655   5.057   5.281   2.736
97253SOL    HW193656   4.969   5.247   2.751
97253SOL    HW293657   5.042   5.366   2.694
97254SOL     OW93658  12.219  13.445  10.778
97254SOL    HW193659  12.293  13.416  10.832
97254SOL    HW293660  12.193  13.367  10.729
97255SOL     OW93661  12.130   8.595  13.961
97255SOL    HW193662  12.094   8.526  13.905
97255SOL    HW293663  12.223   8.574  13.967
97256SOL     OW93664  11.873  12.855   1.417
97256SOL    HW193665  11.895  12.935   1.371
97256SOL    HW293666  11.952  12.801   1.410
97257SOL     OW93667   9.205   6.763   7.404
97257SOL    HW193668   9.163   6.715   7.476
97257SOL    HW293669   9.169   6.852   7.411
97258SOL     OW93670  12.571   4.435   2.886
97258SOL    HW193671  12.605   4.430   2.796
97258SOL    HW293672  12.608   4.358   2.930
97259SOL     OW93673   8.132   9.176   5.614
97259SOL    HW193674   8.186   9.208   5.687
97259SOL    HW293675   8.189   9.184   5.537
97260SOL     OW93676   0.937  10.047   2.011
97260SOL    HW193677   0.889  10.119   2.050
97260SOL    HW293678   1.023  10.051   2.052
97261SOL     OW93679   9.214   5.982   6.101
97261SOL    HW193680   9.298   5.996   6.146
97261SOL    HW293681   9.223   6.031   6.019
97262SOL     OW93682   4.353  11.850  11.987
97262SOL    HW193683   4.262  11.866  11.963
97262SOL    HW293684   4.369  11.759  11.961
97263SOL     OW93685   4.661   2.056  12.833
97263SOL    HW193686   4.746   2.099  12.842
97263SOL    HW293687   4.642   2.021  12.920
97264SOL     OW93688   9.097  11.484   4.711
97264SOL    HW193689   9.175  11.527   4.746
97264SOL    HW293690   9.026  11.512   4.767
97265SOL     OW93691  10.732   8.035  14.039
97265SOL    HW193692  10.674   8.016  14.112
97265SOL    HW293693  10.755   8.128  14.049
97266SOL     OW93694   1.018   1.663  10.574
97266SOL    HW193695   1.021   1.580  10.527
97266SOL    HW293696   1.103   1.668  10.619
97267SOL     OW93697  11.341  10.266   5.411
97267SOL    HW193698  11.305  10.216   5.338
97267SOL    HW293699  11.265  10.306   5.453
97268SOL     OW93700  14.183   2.707   4.607
97268SOL    HW193701  14.169   2.656   4.527
97268SOL    HW293702  14.190   2.642   4.677
97269SOL     OW93703   3.631   8.155  14.176
97269SOL    HW193704   3.690   8.227  14.157
97269SOL    HW293705   3.681   8.095  14.232
97270SOL     OW93706   0.645  14.594   9.535
97270SOL    HW193707   0.728  14.562   9.571
97270SOL    HW293708   0.665  14.617   9.444
97271SOL     OW93709   5.007  11.040   1.107
97271SOL    HW193710   4.978  11.030   1.198
97271SOL    HW293711   5.101  11.024   1.110
97272SOL     OW93712  12.160   9.224   9.727
97272SOL    HW193713  12.089   9.205   9.788
97272SOL    HW293714  12.236   9.179   9.764
97273SOL     OW93715   5.096   1.439   1.060
97273SOL    HW193716   5.156   1.377   1.017
97273SOL    HW293717   5.150   1.483   1.125
97274SOL     OW93718   1.009   9.546  10.068
97274SOL    HW193719   1.097   9.543  10.105
97274SOL    HW293720   1.020   9.508   9.980
97275SOL     OW93721  13.371  13.272  11.908
97275SOL    HW193722  13.281  13.276  11.875
97275SOL    HW293723  13.426  13.280  11.831
97276SOL     OW93724   2.309  10.453   4.478
97276SOL    HW193725   2.332  10.514   4.547
97276SOL    HW293726   2.242  10.498   4.427
97277SOL     OW93727   7.808  10.962   4.692
97277SOL    HW193728   7.747  10.914   4.636
97277SOL    HW293729   7.871  10.896   4.721
97278SOL     OW93730   6.912   5.983   2.517
97278SOL    HW193731   6.964   6.039   2.575
97278SOL    HW293732   6.871   5.919   2.576
97279SOL     OW93733   7.906  14.486   1.980
97279SOL    HW193734   7.854  14.407   1.996
97279SOL    HW293735   7.852  14.540   1.923
97280SOL     OW93736   2.537  10.390  11.618
97280SOL    HW193737   2.459  10.419  11.571
97280SOL    HW293738   2.504  10.335  11.689
97281SOL     OW93739   5.893   4.011  14.667
97281SOL    HW193740   5.861   4.100  14.654
97281SOL    HW293741   5.938   3.989  14.585
97282SOL     OW93742   4.986   5.276  13.174
97282SOL    HW193743   4.912   5.296  13.117
97282SOL    HW293744   4.964   5.317  13.257
97283SOL     OW93745   2.393   1.247  11.310
97283SOL    HW193746   2.445   1.167  11.303
97283SOL    HW293747   2.323   1.225  11.370
97284SOL     OW93748   9.196  14.565  13.931
97284SOL    HW193749   9.243  14.494  13.887
97284SOL    HW293750   9.261  14.634  13.942
97285SOL     OW93751  12.560   4.994  14.649
97285SOL    HW193752  12.647   5.033  14.639
97285SOL    HW293753  12.513   5.053  14.707
97286SOL     OW93754   0.811   7.940  11.493
97286SOL    HW193755   0.834   7.876  11.425
97286SOL    HW293756   0.727   7.910  11.527
97287SOL     OW93757  13.050   8.584  10.977
97287SOL    HW193758  12.998   8.657  11.009
97287SOL    HW293759  13.115   8.624  10.920
97288SOL     OW93760   2.291   4.442   9.440
97288SOL    HW193761   2.316   4.497   9.514
97288SOL    HW293762   2.254   4.363   9.479
97289SOL     OW93763   3.217   8.443   0.080
97289SOL    HW193764   3.262   8.441   0.164
97289SOL    HW293765   3.173   8.357   0.074
97290SOL     OW93766   7.252  12.032   6.098
97290SOL    HW193767   7.278  11.953   6.051
97290SOL    HW293768   7.298  12.103   6.054
97291SOL     OW93769   6.162  11.186   5.827
97291SOL    HW193770   6.162  11.154   5.736
97291SOL    HW293771   6.069  11.204   5.845
97292SOL     OW93772  10.171  12.786   4.723
97292SOL    HW193773  10.163  12.704   4.771
97292SOL    HW293774  10.187  12.759   4.632
97293SOL     OW93775  14.200   1.433   3.244
97293SOL    HW193776  14.149   1.512   3.262
97293SOL    HW293777  14.159   1.365   3.298
97294SOL     OW93778  11.412   4.770   1.103
97294SOL    HW193779  11.320   4.747   1.105
97294SOL    HW293780  11.436   4.783   1.195
97295SOL     OW93781   4.347  11.608   0.451
97295SOL    HW193782   4.367  11.702   0.454
97295SOL    HW293783   4.259  11.604   0.414
97296SOL     OW93784  14.371  13.183   8.655
97296SOL    HW193785  14.457  13.147   8.634
97296SOL    HW293786  14.383  13.278   8.648
97297SOL     OW93787   4.110   2.123   7.892
97297SOL    HW193788   4.073   2.205   7.857
97297SOL    HW293789   4.119   2.139   7.986
97298SOL     OW93790   2.897   5.405  10.919
97298SOL    HW193791   2.881   5.447  11.003
97298SOL    HW293792   2.839   5.450  10.858
97299SOL     OW93793   9.297  13.499  12.862
97299SOL    HW193794   9.222  13.523  12.917
97299SOL    HW293795   9.369  13.485  12.924
97300SOL     OW93796   1.602   7.940  12.614
97300SOL    HW193797   1.579   7.960  12.524
97300SOL    HW293798   1.518   7.917  12.655
97301SOL     OW93799  10.809   2.033   2.857
97301SOL    HW193800  10.900   2.054   2.838
97301SOL    HW293801  10.760   2.110   2.827
97302SOL     OW93802   7.643  12.852   3.288
97302SOL    HW193803   7.632  12.766   3.329
97302SOL    HW293804   7.734  12.875   3.305
97303SOL     OW93805   5.300  13.081   4.101
97303SOL    HW193806   5.369  13.144   4.081
97303SOL    HW293807   5.318  13.007   4.043
97304SOL     OW93808   2.838   5.198   1.185
97304SOL    HW193809   2.822   5.160   1.098
97304SOL    HW293810   2.849   5.122   1.242
97305SOL     OW93811  11.022  14.245   0.684
97305SOL    HW193812  10.930  14.267   0.703
97305SOL    HW293813  11.068  14.328   0.690
97306SOL     OW93814   4.259   5.157  12.739
97306SOL    HW193815   4.260   5.148  12.644
97306SOL    HW293816   4.169   5.180  12.761
97307SOL     OW93817   6.508   0.654   9.323
97307SOL    HW193818   6.546   0.721   9.379
97307SOL    HW293819   6.466   0.703   9.252
97308SOL     OW93820  13.318   6.052  11.285
97308SOL    HW193821  13.242   6.042  11.227
97308SOL    HW293822  13.296   6.126  11.341
97309SOL     OW93823   1.668   4.499   6.039
97309SOL    HW193824   1.688   4.408   6.057
97309SOL    HW293825   1.620   4.498   5.956
97310SOL     OW93826  12.201  14.310   7.296
97310SOL    HW193827  12.205  14.224   7.255
97310SOL    HW293828  12.135  14.358   7.247
97311SOL     OW93829   1.970   7.970  13.581
97311SOL    HW193830   1.940   7.879  13.588
97311SOL    HW293831   1.981   7.984  13.487
97312SOL     OW93832  14.399   7.763  10.836
97312SOL    HW193833  14.353   7.722  10.762
97312SOL    HW293834  14.433   7.845  10.801
97313SOL     OW93835   3.260   6.880   6.012
97313SOL    HW193836   3.177   6.863   6.056
97313SOL    HW293837   3.293   6.961   6.051
97314SOL     OW93838   1.362   5.006   8.440
97314SOL    HW193839   1.411   4.928   8.412
97314SOL    HW293840   1.271   4.977   8.446
97315SOL     OW93841  13.720  10.147   4.557
97315SOL    HW193842  13.705  10.081   4.489
97315SOL    HW293843  13.777  10.211   4.516
97316SOL     OW93844  13.506  13.655   0.067
97316SOL    HW193845  13.597  13.675   0.089
97316SOL    HW293846  13.485  13.716  14.877
97317SOL     OW93847   0.262   2.083   1.830
97317SOL    HW193848   0.311   2.084   1.747
97317SOL    HW293849   0.176   2.119   1.807
97318SOL     OW93850   0.605   2.990  13.839
97318SOL    HW193851   0.524   2.952  13.872
97318SOL    HW293852   0.663   2.992  13.915
97319SOL     OW93853   0.011   2.009   7.830
97319SOL    HW193854  14.843   1.972   7.903
97319SOL    HW293855  14.841   2.085   7.803
97320SOL     OW93856  10.567   4.769   5.119
97320SOL    HW193857  10.548   4.746   5.028
97320SOL    HW293858  10.564   4.865   5.120
97321SOL     OW93859  11.089   1.786   0.903
97321SOL    HW193860  11.065   1.746   0.820
97321SOL    HW293861  11.170   1.742   0.929
97322SOL     OW93862   1.595   5.946  11.481
97322SOL    HW193863   1.570   5.948  11.389
97322SOL    HW293864   1.516   5.971  11.528
97323SOL     OW93865  12.498   7.860   8.130
97323SOL    HW193866  12.408   7.828   8.130
97323SOL    HW293867  12.541   7.812   8.059
97324SOL     OW93868   6.131   4.380   8.947
97324SOL    HW193869   6.156   4.355   8.858
97324SOL    HW293870   6.040   4.407   8.940
97325SOL     OW93871  14.554   7.286   8.877
97325SOL    HW193872  14.512   7.293   8.963
97325SOL    HW293873  14.644   7.314   8.892
97326SOL     OW93874  13.376   5.471   2.149
97326SOL    HW193875  13.365   5.552   2.099
97326SOL    HW293876  13.287   5.450   2.180
97327SOL     OW93877   6.167   6.449   6.397
97327SOL    HW193878   6.224   6.408   6.332
97327SOL    HW293879   6.150   6.537   6.363
97328SOL     OW93880  12.858   7.372   6.097
97328SOL    HW193881  12.927   7.322   6.139
97328SOL    HW293882  12.815   7.309   6.039
97329SOL     OW93883   6.561  12.754  13.725
97329SOL    HW193884   6.539  12.826  13.667
97329SOL    HW293885   6.543  12.787  13.813
97330SOL     OW93886  11.044   9.227   2.984
97330SOL    HW193887  10.980   9.183   3.039
97330SOL    HW293888  11.013   9.317   2.978
97331SOL     OW93889   3.855  10.305   4.925
97331SOL    HW193890   3.814  10.238   4.871
97331SOL    HW293891   3.823  10.388   4.890
97332SOL     OW93892   9.189   8.095   3.209
97332SOL    HW193893   9.179   8.155   3.283
97332SOL    HW293894   9.194   8.151   3.132
97333SOL     OW93895   5.573   4.185  14.813
97333SOL    HW193896   5.648   4.221  14.766
97333SOL    HW293897   5.604   4.174   0.021
97334SOL     OW93898   7.524   3.197   2.430
97334SOL    HW193899   7.531   3.292   2.432
97334SOL    HW293900   7.557   3.169   2.516
97335SOL     OW93901  11.998   5.666  11.174
97335SOL    HW193902  11.991   5.634  11.084
97335SOL    HW293903  11.975   5.759  11.168
97336SOL     OW93904   7.390   4.186   6.526
97336SOL    HW193905   7.320   4.229   6.477
97336SOL    HW293906   7.463   4.182   6.465
97337SOL     OW93907   4.915   2.715   7.371
97337SOL    HW193908   4.923   2.802   7.409
97337SOL    HW293909   4.935   2.727   7.278
97338SOL     OW93910   7.411   5.633   4.143
97338SOL    HW193911   7.424   5.694   4.216
97338SOL    HW293912   7.495   5.630   4.098
97339SOL     OW93913   8.539   1.964   7.777
97339SOL    HW193914   8.564   2.049   7.741
97339SOL    HW293915   8.495   1.985   7.860
97340SOL     OW93916   9.983   6.361   4.497
97340SOL    HW193917  10.029   6.279   4.512
97340SOL    HW293918   9.895   6.335   4.472
97341SOL     OW93919  13.188  10.711   9.510
97341SOL    HW193920  13.215  10.619   9.511
97341SOL    HW293921  13.094  10.708   9.496
97342SOL     OW93922   6.256   7.118  11.507
97342SOL    HW193923   6.288   7.207  11.524
97342SOL    HW293924   6.317   7.061  11.555
97343SOL     OW93925   2.918   1.067   4.338
97343SOL    HW193926   2.977   1.092   4.266
97343SOL    HW293927   2.947   1.119   4.413
97344SOL     OW93928   5.169   0.656  10.516
97344SOL    HW193929   5.102   0.593  10.543
97344SOL    HW293930   5.122   0.721  10.463
97345SOL     OW93931  14.464  13.972  13.545
97345SOL    HW193932  14.376  14.010  13.536
97345SOL    HW293933  14.450  13.894  13.599
97346SOL     OW93934  10.041   4.305   0.089
97346SOL    HW193935  10.027   4.255   0.170
97346SOL    HW293936  10.029   4.241   0.019
97347SOL     OW93937  12.298   9.041   4.134
97347SOL    HW193938  12.319   9.013   4.045
97347SOL    HW293939  12.243   8.971   4.168
97348SOL     OW93940   2.459  13.593   3.872
97348SOL    HW193941   2.416  13.678   3.874
97348SOL    HW293942   2.460  13.568   3.780
97349SOL     OW93943  13.861   4.121   7.362
97349SOL    HW193944  13.860   4.207   7.405
97349SOL    HW293945  13.790   4.073   7.405
97350SOL     OW93946   2.458   1.795   0.668
97350SOL    HW193947   2.472   1.817   0.576
97350SOL    HW293948   2.433   1.877   0.709
97351SOL     OW93949  11.205   4.833   4.251
97351SOL    HW193950  11.254   4.752   4.242
97351SOL    HW293951  11.169   4.850   4.164
97352SOL     OW93952  12.493   0.550  14.264
97352SOL    HW193953  12.424   0.567  14.200
97352SOL    HW293954  12.560   0.503  14.215
97353SOL     OW93955   0.254   1.156  11.637
97353SOL    HW193956   0.341   1.179  11.604
97353SOL    HW293957   0.241   1.215  11.711
97354SOL     OW93958  11.163   4.327  11.192
97354SOL    HW193959  11.119   4.398  11.144
97354SOL    HW293960  11.244   4.313  11.144
97355SOL     OW93961  10.658  11.108  13.260
97355SOL    HW193962  10.702  11.023  13.264
97355SOL    HW293963  10.565  11.086  13.250
97356SOL     OW93964  10.279  13.362   1.106
97356SOL    HW193965  10.223  13.373   1.183
97356SOL    HW293966  10.259  13.274   1.074
97357SOL     OW93967   7.455   7.323   0.165
97357SOL    HW193968   7.434   7.298   0.255
97357SOL    HW293969   7.401   7.401   0.149
97358SOL     OW93970  11.172   4.594   1.885
97358SOL    HW193971  11.171   4.498   1.893
97358SOL    HW293972  11.103   4.624   1.944
97359SOL     OW93973   8.276   2.498  14.535
97359SOL    HW193974   8.183   2.498  14.558
97359SOL    HW293975   8.317   2.441  14.601
97360SOL     OW93976  10.403   6.862   8.956
97360SOL    HW193977  10.453   6.924   9.008
97360SOL    HW293978  10.441   6.866   8.869
97361SOL     OW93979  14.148   6.179  12.696
97361SOL    HW193980  14.201   6.162  12.618
97361SOL    HW293981  14.198   6.244  12.745
97362SOL     OW93982   2.334   3.358  10.938
97362SOL    HW193983   2.287   3.383  10.858
97362SOL    HW293984   2.423   3.391  10.924
97363SOL     OW93985  13.946   2.935  12.221
97363SOL    HW193986  13.989   2.934  12.136
97363SOL    HW293987  13.926   2.844  12.240
97364SOL     OW93988   4.463  13.139   1.912
97364SOL    HW193989   4.376  13.109   1.886
97364SOL    HW293990   4.450  13.228   1.944
97365SOL     OW93991   2.413  11.651  10.027
97365SOL    HW193992   2.359  11.696  10.092
97365SOL    HW293993   2.433  11.718   9.962
97366SOL     OW93994   9.089   2.524   3.711
97366SOL    HW193995   9.010   2.543   3.660
97366SOL    HW293996   9.133   2.608   3.719
97367SOL     OW93997  13.953  12.903  11.041
97367SOL    HW193998  13.960  12.958  10.963
97367SOL    HW293999  13.995  12.821  11.016
97368SOL     OW94000   3.517  13.324   6.910
97368SOL    HW194001   3.476  13.302   6.827
97368SOL    HW294002   3.603  13.359   6.886
97369SOL     OW94003   8.458   3.922   5.929
97369SOL    HW194004   8.451   3.995   5.868
97369SOL    HW294005   8.496   3.960   6.008
97370SOL     OW94006   0.474  10.013   4.786
97370SOL    HW194007   0.536  10.017   4.713
97370SOL    HW294008   0.528  10.028   4.863
97371SOL     OW94009   0.592  12.553  12.028
97371SOL    HW194010   0.519  12.573  12.087
97371SOL    HW294011   0.552  12.553  11.940
97372SOL     OW94012  13.489   5.896  11.418
97372SOL    HW194013  13.442   5.954  11.358
97372SOL    HW294014  13.497   5.946  11.499
97373SOL     OW94015   6.343   8.143  14.713
97373SOL    HW194016   6.381   8.183  14.635
97373SOL    HW294017   6.328   8.216  14.772
97374SOL     OW94018   3.255   8.456   7.338
97374SOL    HW194019   3.208   8.476   7.419
97374SOL    HW294020   3.273   8.362   7.343
97375SOL     OW94021  12.340  12.100   9.304
97375SOL    HW194022  12.406  12.044   9.347
97375SOL    HW294023  12.361  12.188   9.334
97376SOL     OW94024   0.864  12.018   8.102
97376SOL    HW194025   0.845  11.939   8.050
97376SOL    HW294026   0.924  12.068   8.048
97377SOL     OW94027  12.298   3.398   3.281
97377SOL    HW194028  12.348   3.471   3.243
97377SOL    HW294029  12.263   3.352   3.205
97378SOL     OW94030   6.716   2.306  10.557
97378SOL    HW194031   6.635   2.263  10.586
97378SOL    HW294032   6.715   2.390  10.603
97379SOL     OW94033  10.379   4.869  10.734
97379SOL    HW194034  10.348   4.784  10.765
97379SOL    HW294035  10.345   4.932  10.798
97380SOL     OW94036   0.282   5.328   9.374
97380SOL    HW194037   0.319   5.385   9.441
97380SOL    HW294038   0.212   5.380   9.334
97381SOL     OW94039   8.227   2.485   1.585
97381SOL    HW194040   8.298   2.421   1.581
97381SOL    HW294041   8.208   2.493   1.679
97382SOL     OW94042  11.324  12.304  13.224
97382SOL    HW194043  11.385  12.345  13.286
97382SOL    HW294044  11.374  12.230  13.188
97383SOL     OW94045   2.036  11.659   5.965
97383SOL    HW194046   2.070  11.569   5.961
97383SOL    HW294047   2.083  11.697   6.040
97384SOL     OW94048   3.627   5.244   3.322
97384SOL    HW194049   3.682   5.272   3.249
97384SOL    HW294050   3.594   5.326   3.360
97385SOL     OW94051  11.092   7.495  11.233
97385SOL    HW194052  11.112   7.412  11.189
97385SOL    HW294053  11.095   7.475  11.326
97386SOL     OW94054  13.474  14.369  10.438
97386SOL    HW194055  13.553  14.409  10.402
97386SOL    HW294056  13.492  14.275  10.438
97387SOL     OW94057   0.314  10.959  13.671
97387SOL    HW194058   0.351  10.999  13.750
97387SOL    HW294059   0.235  11.010  13.654
97388SOL     OW94060  13.316   7.150   3.592
97388SOL    HW194061  13.263   7.145   3.513
97388SOL    HW294062  13.255   7.176   3.661
97389SOL     OW94063   0.883   5.103   4.058
97389SOL    HW194064   0.835   5.175   4.015
97389SOL    HW294065   0.933   5.146   4.127
97390SOL     OW94066   7.302   7.514   4.585
97390SOL    HW194067   7.314   7.561   4.667
97390SOL    HW294068   7.381   7.534   4.534
97391SOL     OW94069   8.444   0.600  13.569
97391SOL    HW194070   8.527   0.559  13.545
97391SOL    HW294071   8.399   0.613  13.486
97392SOL     OW94072   5.104   2.810  10.851
97392SOL    HW194073   5.074   2.894  10.816
97392SOL    HW294074   5.029   2.751  10.841
97393SOL     OW94075  11.218  10.059   5.632
97393SOL    HW194076  11.193  10.113   5.707
97393SOL    HW294077  11.309  10.082   5.615
97394SOL     OW94078   2.372   2.531   4.875
97394SOL    HW194079   2.362   2.478   4.796
97394SOL    HW294080   2.408   2.472   4.940
97395SOL     OW94081  12.172   8.063  13.330
97395SOL    HW194082  12.261   8.035  13.350
97395SOL    HW294083  12.176   8.094  13.240
97396SOL     OW94084   6.027   3.988   5.298
97396SOL    HW194085   6.063   3.902   5.275
97396SOL    HW294086   6.103   4.045   5.303
97397SOL     OW94087   0.999   4.207  11.929
97397SOL    HW194088   1.052   4.261  11.988
97397SOL    HW294089   0.990   4.123  11.974
97398SOL     OW94090   8.915   9.463  10.045
97398SOL    HW194091   8.981   9.453   9.977
97398SOL    HW294092   8.833   9.479   9.997
97399SOL     OW94093   2.774  10.877   8.534
97399SOL    HW194094   2.696  10.905   8.582
97399SOL    HW294095   2.797  10.952   8.479
97400SOL     OW94096  13.147   5.684  13.203
97400SOL    HW194097  13.174   5.772  13.230
97400SOL    HW294098  13.090   5.698  13.128
97401SOL     OW94099   9.577   2.292   8.148
97401SOL    HW194100   9.660   2.312   8.193
97401SOL    HW294101   9.534   2.376   8.138
97402SOL     OW94102   0.079   9.666  11.152
97402SOL    HW194103   0.137   9.676  11.228
97402SOL    HW294104   0.046   9.577  11.158
97403SOL     OW94105   3.343  14.703   5.601
97403SOL    HW194106   3.308  14.741   5.520
97403SOL    HW294107   3.294  14.746   5.671
97404SOL     OW94108  13.261   8.495   9.660
97404SOL    HW194109  13.219   8.581   9.664
97404SOL    HW294110  13.198   8.440   9.614
97405SOL     OW94111   3.864   5.586   3.174
97405SOL    HW194112   3.838   5.607   3.084
97405SOL    HW294113   3.791   5.618   3.228
97406SOL     OW94114  11.956   2.974  10.998
97406SOL    HW194115  11.889   2.909  11.017
97406SOL    HW294116  11.907   3.048  10.962
97407SOL     OW94117   8.227  13.764   2.942
97407SOL    HW194118   8.163  13.746   2.874
97407SOL    HW294119   8.194  13.843   2.986
97408SOL     OW94120   9.795  14.349  14.048
97408SOL    HW194121   9.760  14.418  14.104
97408SOL    HW294122   9.814  14.393  13.965
97409SOL     OW94123   8.557   3.678   6.196
97409SOL    HW194124   8.580   3.750   6.137
97409SOL    HW294125   8.625   3.679   6.263
97410SOL     OW94126   2.621   0.735   9.103
97410SOL    HW194127   2.693   0.752   9.164
97410SOL    HW294128   2.645   0.653   9.060
97411SOL     OW94129   9.679  10.112   8.974
97411SOL    HW194130   9.662  10.021   8.948
97411SOL    HW294131   9.733  10.147   8.903
97412SOL     OW94132   3.806   8.847   7.951
97412SOL    HW194133   3.792   8.941   7.948
97412SOL    HW294134   3.726   8.812   7.990
97413SOL     OW94135   2.446   0.072   3.226
97413SOL    HW194136   2.476   0.025   3.147
97413SOL    HW294137   2.355   0.093   3.208
97414SOL     OW94138  14.417   6.367   7.527
97414SOL    HW194139  14.449   6.456   7.514
97414SOL    HW294140  14.491   6.311   7.503
97415SOL     OW94141   6.818   4.684  10.442
97415SOL    HW194142   6.819   4.754  10.376
97415SOL    HW294143   6.797   4.605  10.392
97416SOL     OW94144   4.086   8.875   6.184
97416SOL    HW194145   4.066   8.782   6.197
97416SOL    HW294146   4.111   8.906   6.272
97417SOL     OW94147   6.255   8.548   9.583
97417SOL    HW194148   6.271   8.455   9.593
97417SOL    HW294149   6.272   8.585   9.670
97418SOL     OW94150   5.761   7.806   2.269
97418SOL    HW194151   5.708   7.816   2.348
97418SOL    HW294152   5.822   7.735   2.289
97419SOL     OW94153   3.826  13.307  13.597
97419SOL    HW194154   3.819  13.402  13.605
97419SOL    HW294155   3.735  13.277  13.594
97420SOL     OW94156  12.891   9.457   0.768
97420SOL    HW194157  12.894   9.531   0.707
97420SOL    HW294158  12.803   9.422   0.758
97421SOL     OW94159   9.809   0.384   3.884
97421SOL    HW194160   9.856   0.462   3.914
97421SOL    HW294161   9.863   0.311   3.912
97422SOL     OW94162   9.805  11.033  14.686
97422SOL    HW194163   9.762  11.119  14.688
97422SOL    HW294164   9.737  10.974  14.654
97423SOL     OW94165  14.496   6.394   2.816
97423SOL    HW194166  14.476   6.344   2.737
97423SOL    HW294167  14.471   6.336   2.889
97424SOL     OW94168  12.433   9.710  10.737
97424SOL    HW194169  12.511   9.751  10.701
97424SOL    HW294170  12.380   9.783  10.770
97425SOL     OW94171   1.016   7.839   4.732
97425SOL    HW194172   1.021   7.771   4.665
97425SOL    HW294173   1.071   7.807   4.803
97426SOL     OW94174   6.820   4.698  12.582
97426SOL    HW194175   6.794   4.625  12.638
97426SOL    HW294176   6.747   4.708  12.520
97427SOL     OW94177  10.128   5.935   3.570
97427SOL    HW194178  10.093   5.884   3.643
97427SOL    HW294179  10.061   5.928   3.502
97428SOL     OW94180   4.792   0.328   6.049
97428SOL    HW194181   4.699   0.314   6.031
97428SOL    HW294182   4.796   0.347   6.143
97429SOL     OW94183   7.405  12.613   5.905
97429SOL    HW194184   7.386  12.659   5.987
97429SOL    HW294185   7.500  12.614   5.899
97430SOL     OW94186   3.968  12.157   8.946
97430SOL    HW194187   3.895  12.095   8.938
97430SOL    HW294188   3.929  12.242   8.928
97431SOL     OW94189  11.822  10.279  10.848
97431SOL    HW194190  11.774  10.332  10.784
97431SOL    HW294191  11.777  10.195  10.849
97432SOL     OW94192  10.378  13.072   6.640
97432SOL    HW194193  10.336  13.027   6.713
97432SOL    HW294194  10.309  13.078   6.573
97433SOL     OW94195   5.485  12.673   8.967
97433SOL    HW194196   5.468  12.765   8.947
97433SOL    HW294197   5.531  12.676   9.051
97434SOL     OW94198   8.298  14.554   3.027
97434SOL    HW194199   8.253  14.470   3.037
97434SOL    HW294200   8.333  14.573   3.114
97435SOL     OW94201   9.496  14.788   4.652
97435SOL    HW194202   9.434  14.755   4.717
97435SOL    HW294203   9.463  14.875   4.629
97436SOL     OW94204   8.933   0.796  12.279
97436SOL    HW194205   8.984   0.853  12.336
97436SOL    HW294206   8.910   0.851  12.204
97437SOL     OW94207   4.495  13.655  11.441
97437SOL    HW194208   4.442  13.593  11.492
97437SOL    HW294209   4.451  13.739  11.452
97438SOL     OW94210   2.680  12.613   2.258
97438SOL    HW194211   2.706  12.571   2.177
97438SOL    HW294212   2.690  12.545   2.325
97439SOL     OW94213   1.236   7.692  14.691
97439SOL    HW194214   1.274   7.606  14.709
97439SOL    HW294215   1.310   7.752  14.690
97440SOL     OW94216   9.959   2.673   1.793
97440SOL    HW194217   9.871   2.636   1.783
97440SOL    HW294218   9.944   2.765   1.815
97441SOL     OW94219  11.529   2.440  14.408
97441SOL    HW194220  11.465   2.490  14.459
97441SOL    HW294221  11.613   2.459  14.450
97442SOL     OW94222  12.363   9.498  14.669
97442SOL    HW194223  12.302   9.493  14.595
97442SOL    HW294224  12.311   9.470  14.744
97443SOL     OW94225  12.254   6.288   3.197
97443SOL    HW194226  12.320   6.259   3.260
97443SOL    HW294227  12.285   6.256   3.112
97444SOL     OW94228  14.005  10.219   5.373
97444SOL    HW194229  14.081  10.167   5.400
97444SOL    HW294230  13.970  10.172   5.297
97445SOL     OW94231  14.538   4.961   2.266
97445SOL    HW194232  14.488   4.994   2.341
97445SOL    HW294233  14.622   5.006   2.272
97446SOL     OW94234   9.538   3.360   0.839
97446SOL    HW194235   9.625   3.400   0.845
97446SOL    HW294236   9.496   3.383   0.922
97447SOL     OW94237   2.770   5.657  10.219
97447SOL    HW194238   2.699   5.609  10.177
97447SOL    HW294239   2.771   5.626  10.309
97448SOL     OW94240   3.969  14.246   5.874
97448SOL    HW194241   3.945  14.279   5.960
97448SOL    HW294242   4.064  14.230   5.880
97449SOL     OW94243   3.074  13.014  13.790
97449SOL    HW194244   3.100  13.105  13.800
97449SOL    HW294245   3.035  12.991  13.874
97450SOL     OW94246   9.939   9.426   9.049
97450SOL    HW194247   9.947   9.332   9.062
97450SOL    HW294248  10.002   9.464   9.110
97451SOL     OW94249  13.954  11.298   6.932
97451SOL    HW194250  13.888  11.238   6.967
97451SOL    HW294251  13.920  11.385   6.953
97452SOL     OW94252   9.812   8.099   4.674
97452SOL    HW194253   9.860   8.017   4.671
97452SOL    HW294254   9.825   8.131   4.763
97453SOL     OW94255   7.736   0.100  10.713
97453SOL    HW194256   7.765   0.036  10.779
97453SOL    HW294257   7.655   0.063  10.678
97454SOL     OW94258  14.471   2.787   3.211
97454SOL    HW194259  14.448   2.857   3.150
97454SOL    HW294260  14.510   2.718   3.156
97455SOL     OW94261   9.477   5.083   3.817
97455SOL    HW194262   9.484   5.077   3.912
97455SOL    HW294263   9.501   4.995   3.786
97456SOL     OW94264  14.511   5.653  13.674
97456SOL    HW194265  14.543   5.679  13.761
97456SOL    HW294266  14.566   5.579  13.650
97457SOL     OW94267   7.274   6.071   9.299
97457SOL    HW194268   7.351   6.062   9.353
97457SOL    HW294269   7.217   5.999   9.326
97458SOL     OW94270   6.951   1.002   2.526
97458SOL    HW194271   6.927   1.081   2.575
97458SOL    HW294272   6.982   1.035   2.442
97459SOL     OW94273  14.461  11.007   9.008
97459SOL    HW194274  14.474  10.916   8.979
97459SOL    HW294275  14.542  11.028   9.055
97460SOL     OW94276  14.648  12.688   9.609
97460SOL    HW194277  14.618  12.601   9.635
97460SOL    HW294278  14.673  12.730   9.691
97461SOL     OW94279  13.455  14.368   9.054
97461SOL    HW194280  13.378  14.346   9.002
97461SOL    HW294281  13.487  14.284   9.087
97462SOL     OW94282  11.856   6.433  10.914
97462SOL    HW194283  11.763   6.439  10.936
97462SOL    HW294284  11.900   6.425  10.998
97463SOL     OW94285   8.697  13.764  11.030
97463SOL    HW194286   8.726  13.705  11.100
97463SOL    HW294287   8.715  13.852  11.063
97464SOL     OW94288   0.579   5.614  14.865
97464SOL    HW194289   0.657   5.563   0.007
97464SOL    HW294290   0.613   5.702  14.849
97465SOL     OW94291   2.282   1.689   4.315
97465SOL    HW194292   2.256   1.598   4.329
97465SOL    HW294293   2.202   1.733   4.288
97466SOL     OW94294  13.197   1.462  11.228
97466SOL    HW194295  13.111   1.420  11.227
97466SOL    HW294296  13.249   1.411  11.167
97467SOL     OW94297   9.816   6.659   7.010
97467SOL    HW194298   9.871   6.591   7.049
97467SOL    HW294299   9.728   6.642   7.044
97468SOL     OW94300   7.018   9.236  12.546
97468SOL    HW194301   7.058   9.279  12.622
97468SOL    HW294302   6.925   9.234  12.567
97469SOL     OW94303   5.171   8.708   6.461
97469SOL    HW194304   5.264   8.691   6.471
97469SOL    HW294305   5.139   8.722   6.550
97470SOL     OW94306   6.792   4.528   9.854
97470SOL    HW194307   6.858   4.570   9.800
97470SOL    HW294308   6.709   4.543   9.808
97471SOL     OW94309   9.257   9.936   4.679
97471SOL    HW194310   9.190   9.872   4.656
97471SOL    HW294311   9.248  10.005   4.613
97472SOL     OW94312  13.216   5.303  14.190
97472SOL    HW194313  13.255   5.359  14.258
97472SOL    HW294314  13.122   5.320  14.196
97473SOL     OW94315  14.676  12.258   1.762
97473SOL    HW194316  14.759  12.291   1.727
97473SOL    HW294317  14.649  12.190   1.700
97474SOL     OW94318   7.380   5.204   1.632
97474SOL    HW194319   7.401   5.113   1.614
97474SOL    HW294320   7.330   5.202   1.714
97475SOL     OW94321   9.076  11.953   9.981
97475SOL    HW194322   9.003  11.999   9.940
97475SOL    HW294323   9.036  11.879  10.025
97476SOL     OW94324   4.067   4.758  14.338
97476SOL    HW194325   4.080   4.845  14.376
97476SOL    HW294326   4.151   4.737  14.296
97477SOL     OW94327   6.493  14.147   3.466
97477SOL    HW194328   6.494  14.128   3.560
97477SOL    HW294329   6.400  14.156   3.444
97478SOL     OW94330   6.569   6.151   7.010
97478SOL    HW194331   6.488   6.111   7.041
97478SOL    HW294332   6.572   6.236   7.054
97479SOL     OW94333   0.548   0.730   5.057
97479SOL    HW194334   0.542   0.656   5.117
97479SOL    HW294335   0.471   0.721   5.000
97480SOL     OW94336   6.126  10.180   3.413
97480SOL    HW194337   6.075  10.261   3.414
97480SOL    HW294338   6.144  10.163   3.506
97481SOL     OW94339   5.581  14.022  12.970
97481SOL    HW194340   5.644  13.951  12.979
97481SOL    HW294341   5.633  14.096  12.936
97482SOL     OW94342  14.574   9.947   0.927
97482SOL    HW194343  14.526  10.014   0.878
97482SOL    HW294344  14.542   9.958   1.017
97483SOL     OW94345   2.456   5.216   5.481
97483SOL    HW194346   2.527   5.263   5.526
97483SOL    HW294347   2.482   5.216   5.389
97484SOL     OW94348   0.813   1.167  12.445
97484SOL    HW194349   0.846   1.101  12.384
97484SOL    HW294350   0.873   1.241  12.436
97485SOL     OW94351  10.434   0.191  14.753
97485SOL    HW194352  10.432   0.159  14.663
97485SOL    HW294353  10.518   0.236  14.760
97486SOL     OW94354  10.326   4.498  11.378
97486SOL    HW194355  10.237   4.533  11.383
97486SOL    HW294356  10.351   4.508  11.287
97487SOL     OW94357  13.230   1.560  11.493
97487SOL    HW194358  13.176   1.498  11.543
97487SOL    HW294359  13.231   1.523  11.404
97488SOL     OW94360   0.177   3.894   8.606
97488SOL    HW194361   0.154   3.959   8.673
97488SOL    HW294362   0.206   3.945   8.531
97489SOL     OW94363   8.377   3.864   4.545
97489SOL    HW194364   8.440   3.906   4.487
97489SOL    HW294365   8.382   3.914   4.627
97490SOL     OW94366   9.355   4.586   7.659
97490SOL    HW194367   9.447   4.604   7.638
97490SOL    HW294368   9.317   4.673   7.672
97491SOL     OW94369  12.568   5.760   2.736
97491SOL    HW194370  12.593   5.840   2.782
97491SOL    HW294371  12.642   5.743   2.677
97492SOL     OW94372  12.064   8.231   7.397
97492SOL    HW194373  12.031   8.203   7.483
97492SOL    HW294374  11.986   8.242   7.344
97493SOL     OW94375   3.668   6.917  13.653
97493SOL    HW194376   3.726   6.936  13.579
97493SOL    HW294377   3.683   6.824  13.672
97494SOL     OW94378   3.233   0.042  13.858
97494SOL    HW194379   3.266  14.835  13.846
97494SOL    HW294380   3.258   0.065  13.948
97495SOL     OW94381   5.294  12.174   2.537
97495SOL    HW194382   5.343  12.109   2.589
97495SOL    HW294383   5.216  12.192   2.588
97496SOL     OW94384   3.227   4.533   1.342
97496SOL    HW194385   3.172   4.471   1.294
97496SOL    HW294386   3.170   4.609   1.356
97497SOL     OW94387   5.882   9.000   0.738
97497SOL    HW194388   5.922   9.087   0.729
97497SOL    HW294389   5.831   9.006   0.819
97498SOL     OW94390   1.391  13.295   0.214
97498SOL    HW194391   1.358  13.382   0.235
97498SOL    HW294392   1.471  13.287   0.266
97499SOL     OW94393  12.044  12.494  14.115
97499SOL    HW194394  11.976  12.547  14.073
97499SOL    HW294395  12.070  12.545  14.192
97500SOL     OW94396   0.685   2.106  13.800
97500SOL    HW194397   0.671   2.053  13.722
97500SOL    HW294398   0.648   2.192  13.778
97501SOL     OW94399   0.985   0.565   0.544
97501SOL    HW194400   1.056   0.568   0.609
97501SOL    HW294401   0.963   0.472   0.538
97502SOL     OW94402   5.234   8.805  13.230
97502SOL    HW194403   5.285   8.814  13.312
97502SOL    HW294404   5.143   8.808  13.258
97503SOL     OW94405   5.081   2.181  11.271
97503SOL    HW194406   5.045   2.182  11.359
97503SOL    HW294407   5.015   2.227  11.218
97504SOL     OW94408   8.000   5.710   9.756
97504SOL    HW194409   8.021   5.628   9.711
97504SOL    HW294410   8.043   5.702   9.841
97505SOL     OW94411   1.615   1.302  14.822
97505SOL    HW194412   1.526   1.335  14.837
97505SOL    HW294413   1.638   1.336  14.735
97506SOL     OW94414  12.795   5.517  12.406
97506SOL    HW194415  12.830   5.432  12.380
97506SOL    HW294416  12.847   5.581  12.357
97507SOL     OW94417   1.440  12.312   0.113
97507SOL    HW194418   1.475  12.400   0.098
97507SOL    HW294419   1.457  12.295   0.205
97508SOL     OW94420   9.859   0.047   9.464
97508SOL    HW194421   9.794  14.858   9.464
97508SOL    HW294422   9.807   0.126   9.448
97509SOL     OW94423   1.698   9.098   8.491
97509SOL    HW194424   1.753   9.147   8.430
97509SOL    HW294425   1.670   9.021   8.442
97510SOL     OW94426   0.190   0.439  14.448
97510SOL    HW194427   0.184   0.352  14.408
97510SOL    HW294428   0.152   0.498  14.383
97511SOL     OW94429  10.728   6.087   3.372
97511SOL    HW194430  10.756   5.997   3.355
97511SOL    HW294431  10.738   6.131   3.288
97512SOL     OW94432   2.017   9.840   3.030
97512SOL    HW194433   2.097   9.892   3.028
97512SOL    HW294434   2.046   9.755   3.064
97513SOL     OW94435   5.039   4.165  10.309
97513SOL    HW194436   5.113   4.222  10.287
97513SOL    HW294437   4.999   4.144  10.224
97514SOL     OW94438   8.350  12.992   6.887
97514SOL    HW194439   8.398  13.067   6.922
97514SOL    HW294440   8.262  13.027   6.868
97515SOL     OW94441   1.051  10.264  11.372
97515SOL    HW194442   0.998  10.239  11.297
97515SOL    HW294443   1.066  10.182  11.419
97516SOL     OW94444   9.405   6.526  14.304
97516SOL    HW194445   9.348   6.493  14.235
97516SOL    HW294446   9.367   6.610  14.329
97517SOL     OW94447   9.702  11.108   6.902
97517SOL    HW194448   9.625  11.110   6.845
97517SOL    HW294449   9.735  11.198   6.899
97518SOL     OW94450   6.777   6.159   1.085
97518SOL    HW194451   6.719   6.102   1.035
97518SOL    HW294452   6.776   6.242   1.038
97519SOL     OW94453   0.863   4.860  10.120
97519SOL    HW194454   0.841   4.799  10.191
97519SOL    HW294455   0.783   4.864  10.067
97520SOL     OW94456  14.106   5.002   2.126
97520SOL    HW194457  14.098   4.970   2.036
97520SOL    HW294458  14.141   4.929   2.175
97521SOL     OW94459   0.087   4.141  13.631
97521SOL    HW194460   0.008   4.088  13.641
97521SOL    HW294461   0.147   4.086  13.581
97522SOL     OW94462   7.467  10.934   8.892
97522SOL    HW194463   7.373  10.948   8.906
97522SOL    HW294464   7.473  10.849   8.849
97523SOL     OW94465   8.140   5.335   9.702
97523SOL    HW194466   8.092   5.289   9.634
97523SOL    HW294467   8.232   5.330   9.674
97524SOL     OW94468   9.993   8.063   9.434
97524SOL    HW194469  10.082   8.047   9.466
97524SOL    HW294470   9.946   8.097   9.510
97525SOL     OW94471   4.453   0.080   4.062
97525SOL    HW194472   4.384   0.096   3.997
97525SOL    HW294473   4.530   0.057   4.010
97526SOL     OW94474   7.720   9.066  10.602
97526SOL    HW194475   7.775   9.145  10.596
97526SOL    HW294476   7.775   8.996  10.569
97527SOL     OW94477   3.147  11.216   5.914
97527SOL    HW194478   3.117  11.307   5.914
97527SOL    HW294479   3.178  11.201   5.825
97528SOL     OW94480   3.894   5.647   2.228
97528SOL    HW194481   3.830   5.576   2.237
97528SOL    HW294482   3.940   5.627   2.147
97529SOL     OW94483   6.739   8.465   5.050
97529SOL    HW194484   6.693   8.425   5.124
97529SOL    HW294485   6.810   8.515   5.090
97530SOL     OW94486  11.964  12.726   6.179
97530SOL    HW194487  11.943  12.667   6.251
97530SOL    HW294488  11.944  12.814   6.212
97531SOL     OW94489   0.495   0.859   4.742
97531SOL    HW194490   0.489   0.785   4.801
97531SOL    HW294491   0.408   0.865   4.702
97532SOL     OW94492   0.975   7.493   4.996
97532SOL    HW194493   1.001   7.456   5.080
97532SOL    HW294494   0.954   7.585   5.016
97533SOL     OW94495   6.692  12.632   4.181
97533SOL    HW194496   6.786  12.619   4.164
97533SOL    HW294497   6.658  12.544   4.195
97534SOL     OW94498  14.823   9.964   5.733
97534SOL    HW194499  14.881   9.914   5.791
97534SOL    HW294500  14.755   9.998   5.791
97535SOL     OW94501  14.027   2.317  10.533
97535SOL    HW194502  14.012   2.412  10.537
97535SOL    HW294503  14.021   2.296  10.440
97536SOL     OW94504   9.263   7.349   1.128
97536SOL    HW194505   9.180   7.370   1.085
97536SOL    HW294506   9.328   7.356   1.059
97537SOL     OW94507   6.830   8.315   4.846
97537SOL    HW194508   6.916   8.339   4.881
97537SOL    HW294509   6.768   8.364   4.900
97538SOL     OW94510   2.379   8.339   3.303
97538SOL    HW194511   2.385   8.248   3.331
97538SOL    HW294512   2.465   8.376   3.322
97539SOL     OW94513  12.704  13.682  12.128
97539SOL    HW194514  12.637  13.737  12.169
97539SOL    HW294515  12.742  13.738  12.061
97540SOL     OW94516  12.873   2.107   5.361
97540SOL    HW194517  12.926   2.027   5.359
97540SOL    HW294518  12.862   2.131   5.269
97541SOL     OW94519   3.726  14.352   7.192
97541SOL    HW194520   3.672  14.362   7.270
97541SOL    HW294521   3.816  14.355   7.225
97542SOL     OW94522  13.197   5.970   3.593
97542SOL    HW194523  13.218   5.985   3.685
97542SOL    HW294524  13.153   5.884   3.593
97543SOL     OW94525   1.723   3.842   6.909
97543SOL    HW194526   1.723   3.751   6.879
97543SOL    HW294527   1.699   3.892   6.831
97544SOL     OW94528  10.852   1.752   9.949
97544SOL    HW194529  10.934   1.768   9.997
97544SOL    HW294530  10.866   1.668   9.905
97545SOL     OW94531  13.658   2.876  11.079
97545SOL    HW194532  13.711   2.911  11.008
97545SOL    HW294533  13.657   2.945  11.145
97546SOL     OW94534  14.235  11.140   4.528
97546SOL    HW194535  14.187  11.183   4.599
97546SOL    HW294536  14.211  11.048   4.536
97547SOL     OW94537   6.019   7.642   0.420
97547SOL    HW194538   6.068   7.722   0.400
97547SOL    HW294539   6.054   7.612   0.504
97548SOL     OW94540   8.301  13.656   6.122
97548SOL    HW194541   8.298  13.561   6.113
97548SOL    HW294542   8.389  13.674   6.154
97549SOL     OW94543   7.708   4.221   7.488
97549SOL    HW194544   7.643   4.282   7.454
97549SOL    HW294545   7.704   4.232   7.583
97550SOL     OW94546  14.820  13.366   1.605
97550SOL    HW194547  14.849  13.275   1.608
97550SOL    HW294548   0.006  13.415   1.651
97551SOL     OW94549   6.057   6.785   1.859
97551SOL    HW194550   6.118   6.857   1.844
97551SOL    HW294551   5.986   6.801   1.797
97552SOL     OW94552   4.095   3.538   9.544
97552SOL    HW194553   4.165   3.488   9.587
97552SOL    HW294554   4.071   3.604   9.608
97553SOL     OW94555   1.055   9.070   0.431
97553SOL    HW194556   1.096   9.130   0.369
97553SOL    HW294557   1.099   9.087   0.514
97554SOL     OW94558   3.913  13.864   3.542
97554SOL    HW194559   3.997  13.852   3.586
97554SOL    HW294560   3.910  13.958   3.521
97555SOL     OW94561  14.029  11.724  14.365
97555SOL    HW194562  14.087  11.751  14.436
97555SOL    HW294563  13.946  11.706  14.408
97556SOL     OW94564   0.259  12.328   4.463
97556SOL    HW194565   0.175  12.308   4.506
97556SOL    HW294566   0.315  12.358   4.535
97557SOL     OW94567   0.319   7.852   9.741
97557SOL    HW194568   0.225   7.841   9.728
97557SOL    HW294569   0.355   7.863   9.652
97558SOL     OW94570   4.282  14.863  11.055
97558SOL    HW194571   4.220   0.054  11.055
97558SOL    HW294572   4.270  14.820  11.140
97559SOL     OW94573   8.591   1.038  10.642
97559SOL    HW194574   8.602   1.112  10.701
97559SOL    HW294575   8.681   1.010  10.622
97560SOL     OW94576  10.440  10.733   7.465
97560SOL    HW194577  10.482  10.674   7.528
97560SOL    HW294578  10.509  10.793   7.438
97561SOL     OW94579   6.727   5.686  10.355
97561SOL    HW194580   6.821   5.670  10.349
97561SOL    HW294581   6.712   5.701  10.448
97562SOL     OW94582   5.154   8.515   9.481
97562SOL    HW194583   5.162   8.509   9.386
97562SOL    HW294584   5.215   8.449   9.515
97563SOL     OW94585   6.111  13.360   8.717
97563SOL    HW194586   6.183  13.391   8.663
97563SOL    HW294587   6.032  13.399   8.679
97564SOL     OW94588   1.161   3.553   3.191
97564SOL    HW194589   1.146   3.640   3.153
97564SOL    HW294590   1.135   3.562   3.283
97565SOL     OW94591  13.124  12.150  14.617
97565SOL    HW194592  13.106  12.066  14.575
97565SOL    HW294593  13.219  12.155  14.621
97566SOL     OW94594   3.426   5.681   1.374
97566SOL    HW194595   3.339   5.699   1.337
97566SOL    HW294596   3.480   5.663   1.297
97567SOL     OW94597   5.408  10.208  12.940
97567SOL    HW194598   5.448  10.255  12.866
97567SOL    HW294599   5.445  10.120  12.935
97568SOL     OW94600   6.107   1.134   6.272
97568SOL    HW194601   6.041   1.197   6.243
97568SOL    HW294602   6.114   1.071   6.200
97569SOL     OW94603   7.793  14.052   1.047
97569SOL    HW194604   7.725  14.109   1.083
97569SOL    HW294605   7.748  14.002   0.979
97570SOL     OW94606   5.935   6.458   4.039
97570SOL    HW194607   5.948   6.443   4.133
97570SOL    HW294608   5.934   6.553   4.031
97571SOL     OW94609  13.129  10.431  12.428
97571SOL    HW194610  13.107  10.523  12.411
97571SOL    HW294611  13.045  10.386  12.428
97572SOL     OW94612   4.680   8.990   2.489
97572SOL    HW194613   4.644   9.069   2.449
97572SOL    HW294614   4.607   8.953   2.539
97573SOL     OW94615   6.580  12.860   8.309
97573SOL    HW194616   6.544  12.911   8.383
97573SOL    HW294617   6.509  12.857   8.245
97574SOL     OW94618   9.529   7.905   6.778
97574SOL    HW194619   9.560   7.881   6.691
97574SOL    HW294620   9.492   7.993   6.767
97575SOL     OW94621   2.904   4.344   8.986
97575SOL    HW194622   2.981   4.346   9.043
97575SOL    HW294623   2.939   4.357   8.898
97576SOL     OW94624  12.830   3.395   1.901
97576SOL    HW194625  12.766   3.330   1.872
97576SOL    HW294626  12.851   3.370   1.991
97577SOL     OW94627   0.928   8.501  13.679
97577SOL    HW194628   1.004   8.461  13.722
97577SOL    HW294629   0.865   8.430  13.670
97578SOL     OW94630  11.245   5.031  13.099
97578SOL    HW194631  11.161   5.076  13.089
97578SOL    HW294632  11.238   4.955  13.041
97579SOL     OW94633   9.982  12.180   5.116
97579SOL    HW194634   9.918  12.250   5.104
97579SOL    HW294635   9.974  12.125   5.038
97580SOL     OW94636   8.515   2.869   0.454
97580SOL    HW194637   8.462   2.833   0.384
97580SOL    HW294638   8.527   2.796   0.515
97581SOL     OW94639   2.923   7.813  11.795
97581SOL    HW194640   2.949   7.799  11.886
97581SOL    HW294641   2.997   7.782  11.744
97582SOL     OW94642   8.911   9.790   2.578
97582SOL    HW194643   8.885   9.731   2.507
97582SOL    HW294644   8.993   9.829   2.548
97583SOL     OW94645  13.625   9.320   1.051
97583SOL    HW194646  13.711   9.306   1.092
97583SOL    HW294647  13.612   9.414   1.055
97584SOL     OW94648   6.781  13.527   7.271
97584SOL    HW194649   6.830  13.605   7.298
97584SOL    HW294650   6.839  13.454   7.290
97585SOL     OW94651   7.780   9.688   3.615
97585SOL    HW194652   7.707   9.629   3.636
97585SOL    HW294653   7.758   9.769   3.660
97586SOL     OW94654   2.408  14.027   0.634
97586SOL    HW194655   2.414  14.070   0.719
97586SOL    HW294656   2.467  14.077   0.578
97587SOL     OW94657  11.353   5.576   5.289
97587SOL    HW194658  11.443   5.592   5.318
97587SOL    HW294659  11.307   5.657   5.307
97588SOL     OW94660   0.768   3.801  10.333
97588SOL    HW194661   0.790   3.709  10.315
97588SOL    HW294662   0.850   3.841  10.360
97589SOL     OW94663   2.229  14.385  13.702
97589SOL    HW194664   2.197  14.392  13.612
97589SOL    HW294665   2.201  14.466  13.744
97590SOL     OW94666   1.243  13.608   1.495
97590SOL    HW194667   1.173  13.553   1.458
97590SOL    HW294668   1.321  13.583   1.446
97591SOL     OW94669  10.245   2.195   1.333
97591SOL    HW194670  10.248   2.099   1.324
97591SOL    HW294671  10.332   2.224   1.306
97592SOL     OW94672   8.692   1.540   1.518
97592SOL    HW194673   8.751   1.515   1.589
97592SOL    HW294674   8.741   1.521   1.438
97593SOL     OW94675   5.288  10.747   4.311
97593SOL    HW194676   5.358  10.683   4.297
97593SOL    HW294677   5.221  10.722   4.247
97594SOL     OW94678   6.447  10.744   4.676
97594SOL    HW194679   6.542  10.747   4.681
97594SOL    HW294680   6.428  10.659   4.635
97595SOL     OW94681   6.484   5.553   2.804
97595SOL    HW194682   6.406   5.502   2.827
97595SOL    HW294683   6.511   5.518   2.719
97596SOL     OW94684   6.910   8.056   2.484
97596SOL    HW194685   6.996   8.037   2.521
97596SOL    HW294686   6.850   8.052   2.559
97597SOL     OW94687   4.205   1.422   1.879
97597SOL    HW194688   4.167   1.440   1.793
97597SOL    HW294689   4.296   1.399   1.861
97598SOL     OW94690   9.005   7.460   5.172
97598SOL    HW194691   8.944   7.397   5.132
97598SOL    HW294692   9.049   7.409   5.240
97599SOL     OW94693   5.009   5.002   5.572
97599SOL    HW194694   4.979   4.930   5.517
97599SOL    HW294695   5.104   4.991   5.575
97600SOL     OW94696  12.731   0.112  11.618
97600SOL    HW194697  12.640   0.087  11.610
97600SOL    HW294698  12.747   0.169  11.543
97601SOL     OW94699  12.706   6.062   6.985
97601SOL    HW194700  12.764   5.996   6.947
97601SOL    HW294701  12.629   6.013   7.014
97602SOL     OW94702  14.125   1.823   9.923
97602SOL    HW194703  14.220   1.810   9.929
97602SOL    HW294704  14.089   1.736   9.941
97603SOL     OW94705  10.698   5.148  14.666
97603SOL    HW194706  10.612   5.173  14.698
97603SOL    HW294707  10.691   5.054  14.648
97604SOL     OW94708   8.659   6.863  11.528
97604SOL    HW194709   8.631   6.944  11.486
97604SOL    HW294710   8.618   6.865  11.614
97605SOL     OW94711  11.453   1.739   7.803
97605SOL    HW194712  11.464   1.677   7.730
97605SOL    HW294713  11.484   1.691   7.880
97606SOL     OW94714   0.997   2.489   1.539
97606SOL    HW194715   1.005   2.445   1.624
97606SOL    HW294716   0.982   2.581   1.560
97607SOL     OW94717   9.204  14.677   8.027
97607SOL    HW194718   9.293  14.685   7.992
97607SOL    HW294719   9.158  14.623   7.963
97608SOL     OW94720   8.265   6.193   3.016
97608SOL    HW194721   8.273   6.273   2.963
97608SOL    HW294722   8.202   6.139   2.969
97609SOL     OW94723   2.169   6.733   6.907
97609SOL    HW194724   2.250   6.719   6.956
97609SOL    HW294725   2.187   6.808   6.851
97610SOL     OW94726   8.843   5.904   2.164
97610SOL    HW194727   8.786   5.830   2.142
97610SOL    HW294728   8.928   5.882   2.124
97611SOL     OW94729   8.972   9.545  13.142
97611SOL    HW194730   8.903   9.511  13.084
97611SOL    HW294731   9.051   9.500  13.113
97612SOL     OW94732   6.362   5.392   0.773
97612SOL    HW194733   6.372   5.376   0.679
97612SOL    HW294734   6.319   5.478   0.777
97613SOL     OW94735  14.264   7.123   4.283
97613SOL    HW194736  14.177   7.103   4.250
97613SOL    HW294737  14.296   7.194   4.227
97614SOL     OW94738   4.745  14.290  10.988
97614SOL    HW194739   4.737  14.309  10.895
97614SOL    HW294740   4.801  14.213  10.993
97615SOL     OW94741  11.641   6.784   6.225
97615SOL    HW194742  11.707   6.770   6.293
97615SOL    HW294743  11.690   6.782   6.143
97616SOL     OW94744   0.169   9.619   5.006
97616SOL    HW194745   0.124   9.662   5.078
97616SOL    HW294746   0.198   9.691   4.949
97617SOL     OW94747   0.459   1.508  14.668
97617SOL    HW194748   0.368   1.484  14.684
97617SOL    HW294749   0.472   1.492  14.574
97618SOL     OW94750  12.907   0.936   6.235
97618SOL    HW194751  12.974   1.003   6.250
97618SOL    HW294752  12.874   0.954   6.147
97619SOL     OW94753   2.756  11.105   0.333
97619SOL    HW194754   2.734  11.196   0.353
97619SOL    HW294755   2.827  11.084   0.394
97620SOL     OW94756   5.883  11.659  10.147
97620SOL    HW194757   5.872  11.742  10.101
97620SOL    HW294758   5.797  11.618  10.144
97621SOL     OW94759  10.022   3.876  10.147
97621SOL    HW194760  10.080   3.831  10.209
97621SOL    HW294761  10.002   3.960  10.189
97622SOL     OW94762   4.983  14.811   9.649
97622SOL    HW194763   5.013   0.013   9.613
97622SOL    HW294764   5.056  14.780   9.702
97623SOL     OW94765   8.735  11.009   1.060
97623SOL    HW194766   8.807  11.071   1.074
97623SOL    HW294767   8.741  10.948   1.134
97624SOL     OW94768  13.104   9.623   1.535
97624SOL    HW194769  13.037   9.581   1.481
97624SOL    HW294770  13.161   9.552   1.562
97625SOL     OW94771   8.568  11.775  12.339
97625SOL    HW194772   8.626  11.825  12.397
97625SOL    HW294773   8.527  11.841  12.283
97626SOL     OW94774   9.291  10.425  12.194
97626SOL    HW194775   9.224  10.426  12.263
97626SOL    HW294776   9.242  10.444  12.113
97627SOL     OW94777   0.851   6.347   6.142
97627SOL    HW194778   0.873   6.299   6.221
97627SOL    HW294779   0.932   6.348   6.090
97628SOL     OW94780   6.122  14.428   5.045
97628SOL    HW194781   6.214  14.449   5.062
97628SOL    HW294782   6.121  14.393   4.956
97629SOL     OW94783   5.348   2.363  11.117
97629SOL    HW194784   5.429   2.401  11.083
97629SOL    HW294785   5.333   2.408  11.200
97630SOL     OW94786   6.482   3.314   7.819
97630SOL    HW194787   6.510   3.232   7.777
97630SOL    HW294788   6.488   3.297   7.913
97631SOL     OW94789   3.210   5.303   9.924
97631SOL    HW194790   3.186   5.263   9.840
97631SOL    HW294791   3.286   5.358   9.903
97632SOL     OW94792   4.662  12.146  13.777
97632SOL    HW194793   4.642  12.239  13.775
97632SOL    HW294794   4.626  12.115  13.860
97633SOL     OW94795  14.600   2.309  10.363
97633SOL    HW194796  14.529   2.372  10.378
97633SOL    HW294797  14.673   2.363  10.332
97634SOL     OW94798   4.566   2.344  12.450
97634SOL    HW194799   4.629   2.395  12.397
97634SOL    HW294800   4.592   2.253  12.436
97635SOL     OW94801  14.640   9.423   5.141
97635SOL    HW194802  14.717   9.371   5.162
97635SOL    HW294803  14.620   9.401   5.050
97636SOL     OW94804   9.355   1.691   9.352
97636SOL    HW194805   9.349   1.635   9.274
97636SOL    HW294806   9.296   1.764   9.335
97637SOL     OW94807   5.737   2.885  13.278
97637SOL    HW194808   5.821   2.908  13.237
97637SOL    HW294809   5.719   2.796  13.250
97638SOL     OW94810  12.766   4.539   5.771
97638SOL    HW194811  12.751   4.601   5.700
97638SOL    HW294812  12.679   4.523   5.808
97639SOL     OW94813  10.200  14.509   9.011
97639SOL    HW194814  10.134  14.505   8.942
97639SOL    HW294815  10.184  14.431   9.065
97640SOL     OW94816  13.699   1.631   5.956
97640SOL    HW194817  13.641   1.703   5.983
97640SOL    HW294818  13.664   1.555   6.002
97641SOL     OW94819   0.609   5.138  10.617
97641SOL    HW194820   0.699   5.167  10.602
97641SOL    HW294821   0.556   5.217  10.608
97642SOL     OW94822   6.110   5.747   6.174
97642SOL    HW194823   6.135   5.775   6.086
97642SOL    HW294824   6.193   5.740   6.221
97643SOL     OW94825   3.233  11.109  11.800
97643SOL    HW194826   3.146  11.150  11.795
97643SOL    HW294827   3.250  11.079  11.711
97644SOL     OW94828   8.489  13.590   5.421
97644SOL    HW194829   8.447  13.593   5.507
97644SOL    HW294830   8.459  13.508   5.383
97645SOL     OW94831  12.256   5.384  13.806
97645SOL    HW194832  12.254   5.471  13.846
97645SOL    HW294833  12.348   5.360  13.806
97646SOL     OW94834  10.765   3.159   0.680
97646SOL    HW194835  10.794   3.233   0.627
97646SOL    HW294836  10.711   3.197   0.749
97647SOL     OW94837   3.762   8.691  12.151
97647SOL    HW194838   3.819   8.616  12.134
97647SOL    HW294839   3.715   8.705  12.069
97648SOL     OW94840   8.136   8.417  10.640
97648SOL    HW194841   8.183   8.476  10.698
97648SOL    HW294842   8.047   8.452  10.637
97649SOL     OW94843   2.061  10.636  11.644
97649SOL    HW194844   2.015  10.610  11.564
97649SOL    HW294845   2.121  10.705  11.615
97650SOL     OW94846  11.461  14.156  10.130
97650SOL    HW194847  11.479  14.149  10.223
97650SOL    HW294848  11.435  14.247  10.116
97651SOL     OW94849   1.190   6.122   8.170
97651SOL    HW194850   1.245   6.163   8.103
97651SOL    HW294851   1.150   6.196   8.216
97652SOL     OW94852   2.221   9.607   3.036
97652SOL    HW194853   2.195   9.606   2.944
97652SOL    HW294854   2.315   9.590   3.034
97653SOL     OW94855   4.304   4.016   2.142
97653SOL    HW194856   4.359   3.943   2.114
97653SOL    HW294857   4.325   4.087   2.082
97654SOL     OW94858   2.271   7.030  10.817
97654SOL    HW194859   2.202   6.982  10.865
97654SOL    HW294860   2.340   6.965  10.804
97655SOL     OW94861   4.910   5.324   6.261
97655SOL    HW194862   4.881   5.378   6.188
97655SOL    HW294863   4.885   5.235   6.238
97656SOL     OW94864   3.069   8.679   3.702
97656SOL    HW194865   2.975   8.662   3.701
97656SOL    HW294866   3.096   8.676   3.610
97657SOL     OW94867   2.275   8.706   3.679
97657SOL    HW194868   2.191   8.736   3.713
97657SOL    HW294869   2.307   8.778   3.625
97658SOL     OW94870   4.833  13.025   5.445
97658SOL    HW194871   4.830  13.028   5.349
97658SOL    HW294872   4.854  12.934   5.466
97659SOL     OW94873   0.697  11.616   9.397
97659SOL    HW194874   0.623  11.677   9.397
97659SOL    HW294875   0.761  11.657   9.455
97660SOL     OW94876   3.770   9.115   5.582
97660SOL    HW194877   3.743   9.131   5.492
97660SOL    HW294878   3.737   9.191   5.631
97661SOL     OW94879   9.528   3.410   2.874
97661SOL    HW194880   9.522   3.330   2.822
97661SOL    HW294881   9.439   3.444   2.876
97662SOL     OW94882   4.686  13.714   3.921
97662SOL    HW194883   4.713  13.706   3.830
97662SOL    HW294884   4.656  13.804   3.930
97663SOL     OW94885   2.070   6.091   8.340
97663SOL    HW194886   2.083   6.146   8.417
97663SOL    HW294887   2.026   6.013   8.375
97664SOL     OW94888  14.592  13.283  12.843
97664SOL    HW194889  14.529  13.322  12.903
97664SOL    HW294890  14.573  13.323  12.758
97665SOL     OW94891  11.500  14.694   2.237
97665SOL    HW194892  11.565  14.760   2.263
97665SOL    HW294893  11.461  14.730   2.157
97666SOL     OW94894   1.646  13.821   4.579
97666SOL    HW194895   1.671  13.807   4.670
97666SOL    HW294896   1.716  13.781   4.528
97667SOL     OW94897   8.819   4.999  11.368
97667SOL    HW194898   8.854   5.064  11.430
97667SOL    HW294899   8.855   4.916  11.398
97668SOL     OW94900  10.552   9.493   1.332
97668SOL    HW194901  10.569   9.419   1.275
97668SOL    HW294902  10.567   9.459   1.421
97669SOL     OW94903   5.238   8.376   8.194
97669SOL    HW194904   5.155   8.406   8.157
97669SOL    HW294905   5.304   8.403   8.131
97670SOL     OW94906   2.495  11.690   6.518
97670SOL    HW194907   2.435  11.763   6.532
97670SOL    HW294908   2.566  11.706   6.581
97671SOL     OW94909   4.371   9.315  14.673
97671SOL    HW194910   4.384   9.262  14.752
97671SOL    HW294911   4.292   9.366  14.690
97672SOL     OW94912  14.375  14.635   0.071
97672SOL    HW194913  14.461  14.648   0.110
97672SOL    HW294914  14.314  14.640   0.145
97673SOL     OW94915  11.292   4.940   6.219
97673SOL    HW194916  11.321   4.928   6.310
97673SOL    HW294917  11.198   4.919   6.221
97674SOL     OW94918  13.502  13.266  14.195
97674SOL    HW194919  13.553  13.185  14.199
97674SOL    HW294920  13.566  13.335  14.180
97675SOL     OW94921  12.053   4.340   2.302
97675SOL    HW194922  12.088   4.400   2.368
97675SOL    HW294923  12.050   4.392   2.221
97676SOL     OW94924   9.887   5.454   3.238
97676SOL    HW194925   9.843   5.525   3.191
97676SOL    HW294926   9.842   5.450   3.322
97677SOL     OW94927  11.966   2.345   2.098
97677SOL    HW194928  11.932   2.380   2.016
97677SOL    HW294929  12.019   2.269   2.072
97678SOL     OW94930   6.047  14.221   6.079
97678SOL    HW194931   6.066  14.313   6.063
97678SOL    HW294932   5.969  14.203   6.027
97679SOL     OW94933   3.010   0.748  10.871
97679SOL    HW194934   3.089   0.792  10.900
97679SOL    HW294935   3.009   0.758  10.776
97680SOL     OW94936   8.386  11.918   7.639
97680SOL    HW194937   8.445  11.990   7.659
97680SOL    HW294938   8.417  11.846   7.695
97681SOL     OW94939  12.648   5.205  12.617
97681SOL    HW194940  12.598   5.282  12.643
97681SOL    HW294941  12.662   5.216  12.523
97682SOL     OW94942   9.180  13.866   2.021
97682SOL    HW194943   9.238  13.794   2.000
97682SOL    HW294944   9.184  13.924   1.945
97683SOL     OW94945  12.209   8.823   7.067
97683SOL    HW194946  12.160   8.883   7.123
97683SOL    HW294947  12.230   8.749   7.124
97684SOL     OW94948  12.668  13.168   0.848
97684SOL    HW194949  12.638  13.117   0.923
97684SOL    HW294950  12.762  13.179   0.861
97685SOL     OW94951   3.866   6.561   5.825
97685SOL    HW194952   3.800   6.552   5.757
97685SOL    HW294953   3.816   6.559   5.907
97686SOL     OW94954   6.751  14.779   4.101
97686SOL    HW194955   6.700  14.839   4.045
97686SOL    HW294956   6.707  14.695   4.092
97687SOL     OW94957  13.017  14.598   0.740
97687SOL    HW194958  13.080  14.666   0.764
97687SOL    HW294959  13.023  14.535   0.811
97688SOL     OW94960   7.205   8.933   9.160
97688SOL    HW194961   7.218   8.953   9.068
97688SOL    HW294962   7.136   8.867   9.161
97689SOL     OW94963  13.644   1.722  10.965
97689SOL    HW194964  13.700   1.649  10.938
97689SOL    HW294965  13.556   1.696  10.936
97690SOL     OW94966   8.007   5.756  14.131
97690SOL    HW194967   7.991   5.682  14.189
97690SOL    HW294968   7.920   5.792  14.112
97691SOL     OW94969   7.389   9.621   7.242
97691SOL    HW194970   7.426   9.671   7.314
97691SOL    HW294971   7.459   9.560   7.217
97692SOL     OW94972   0.868  14.286   4.684
97692SOL    HW194973   0.946  14.236   4.660
97692SOL    HW294974   0.813  14.224   4.730
97693SOL     OW94975  14.778   8.292   3.827
97693SOL    HW194976  14.839   8.329   3.764
97693SOL    HW294977  14.801   8.333   3.910
97694SOL     OW94978   3.353   8.093  13.030
97694SOL    HW194979   3.299   8.164  12.996
97694SOL    HW294980   3.322   8.080  13.119
97695SOL     OW94981   9.353  10.181   5.395
97695SOL    HW194982   9.365  10.124   5.319
97695SOL    HW294983   9.263  10.211   5.389
97696SOL     OW94984   5.970   7.509  12.151
97696SOL    HW194985   5.886   7.539  12.185
97696SOL    HW294986   5.947   7.451  12.078
97697SOL     OW94987  12.940  10.144  14.384
97697SOL    HW194988  12.968  10.090  14.458
97697SOL    HW294989  12.875  10.204  14.421
97698SOL     OW94990   6.564   7.491   9.839
97698SOL    HW194991   6.554   7.397   9.823
97698SOL    HW294992   6.572   7.499   9.934
97699SOL     OW94993   9.817   6.198   7.186
97699SOL    HW194994   9.773   6.123   7.225
97699SOL    HW294995   9.745   6.253   7.154
97700SOL     OW94996  11.136  10.821   0.776
97700SOL    HW194997  11.054  10.771   0.775
97700SOL    HW294998  11.197  10.767   0.726
97701SOL     OW94999  11.652   7.386   7.137
97701SOL    HW195000  11.666   7.465   7.190
97701SOL    HW295001  11.623   7.418   7.052
97702SOL     OW95002  14.841   1.873  12.282
97702SOL    HW195003   0.038   1.913  12.318
97702SOL    HW295004  14.809   1.938  12.219
97703SOL     OW95005   0.592   4.907   0.384
97703SOL    HW195006   0.556   4.895   0.472
97703SOL    HW295007   0.665   4.967   0.397
97704SOL     OW95008  10.083   6.307  11.090
97704SOL    HW195009  10.159   6.363  11.075
97704SOL    HW295010  10.115   6.238  11.147
97705SOL     OW95011   4.285  10.353   5.355
97705SOL    HW195012   4.297  10.376   5.263
97705SOL    HW295013   4.267  10.259   5.354
97706SOL     OW95014   4.349   6.909   6.216
97706SOL    HW195015   4.332   6.984   6.159
97706SOL    HW295016   4.444   6.910   6.230
97707SOL     OW95017  11.811   0.196  11.765
97707SOL    HW195018  11.804   0.103  11.745
97707SOL    HW295019  11.775   0.240  11.688
97708SOL     OW95020   8.641   9.545   3.125
97708SOL    HW195021   8.548   9.556   3.105
97708SOL    HW295022   8.646   9.547   3.221
97709SOL     OW95023   9.354   9.060  11.806
97709SOL    HW195024   9.415   8.997  11.769
97709SOL    HW295025   9.267   9.029  11.780
97710SOL     OW95026   5.067  11.139   2.549
97710SOL    HW195027   5.078  11.113   2.458
97710SOL    HW295028   4.980  11.106   2.573
97711SOL     OW95029   4.057  14.501   0.430
97711SOL    HW195030   4.090  14.414   0.407
97711SOL    HW295031   4.110  14.561   0.378
97712SOL     OW95032   1.550   2.576  12.208
97712SOL    HW195033   1.502   2.659  12.203
97712SOL    HW295034   1.641   2.602  12.220
97713SOL     OW95035   2.534  14.680   1.423
97713SOL    HW195036   2.516  14.589   1.443
97713SOL    HW295037   2.606  14.704   1.480
97714SOL     OW95038   1.016   0.962  12.392
97714SOL    HW195039   1.076   0.981  12.464
97714SOL    HW295040   1.012   0.866  12.389
97715SOL     OW95041   5.169   3.478   9.738
97715SOL    HW195042   5.206   3.566   9.741
97715SOL    HW295043   5.131   3.465   9.825
97716SOL     OW95044  12.252  14.573   9.215
97716SOL    HW195045  12.188  14.537   9.154
97716SOL    HW295046  12.325  14.601   9.159
97717SOL     OW95047   5.045  13.000   9.894
97717SOL    HW195048   5.129  13.035   9.924
97717SOL    HW295049   4.980  13.063   9.927
97718SOL     OW95050  12.774  11.852  12.636
97718SOL    HW195051  12.834  11.869  12.563
97718SOL    HW295052  12.714  11.786  12.602
97719SOL     OW95053   3.268   4.514  14.450
97719SOL    HW195054   3.340   4.543  14.506
97719SOL    HW295055   3.311   4.473  14.375
97720SOL     OW95056   8.022   8.598   6.043
97720SOL    HW195057   8.083   8.557   6.104
97720SOL    HW295058   7.986   8.525   5.992
97721SOL     OW95059   7.574   8.288   2.505
97721SOL    HW195060   7.606   8.221   2.444
97721SOL    HW295061   7.636   8.285   2.578
97722SOL     OW95062  12.297   5.401  10.638
97722SOL    HW195063  12.388   5.427  10.622
97722SOL    HW295064  12.264   5.374  10.552
97723SOL     OW95065   9.928   4.437  13.559
97723SOL    HW195066   9.970   4.425  13.474
97723SOL    HW295067   9.872   4.359  13.569
97724SOL     OW95068   7.002   9.784   5.878
97724SOL    HW195069   7.048   9.844   5.937
97724SOL    HW295070   6.913   9.819   5.874
97725SOL     OW95071   8.648  13.492   8.880
97725SOL    HW195072   8.681  13.415   8.926
97725SOL    HW295073   8.689  13.566   8.925
97726SOL     OW95074  12.654   2.125  12.252
97726SOL    HW195075  12.581   2.066  12.236
97726SOL    HW295076  12.644   2.194  12.186
97727SOL     OW95077   2.248   2.607   8.933
97727SOL    HW195078   2.253   2.576   9.024
97727SOL    HW295079   2.209   2.534   8.885
97728SOL     OW95080   5.146   1.882  13.017
97728SOL    HW195081   5.131   1.953  12.955
97728SOL    HW295082   5.072   1.822  13.004
97729SOL     OW95083   5.498   3.694   1.912
97729SOL    HW195084   5.593   3.688   1.912
97729SOL    HW295085   5.474   3.696   2.005
97730SOL     OW95086  12.833  12.092   3.721
97730SOL    HW195087  12.804  12.156   3.656
97730SOL    HW295088  12.914  12.128   3.757
97731SOL     OW95089  14.488   7.935  12.230
97731SOL    HW195090  14.410   7.983  12.254
97731SOL    HW295091  14.535   7.922  12.312
97732SOL     OW95092   2.518   0.776   2.007
97732SOL    HW195093   2.476   0.849   1.961
97732SOL    HW295094   2.611   0.795   2.000
97733SOL     OW95095   8.991   7.793   5.891
97733SOL    HW195096   8.974   7.866   5.950
97733SOL    HW295097   8.911   7.740   5.894
97734SOL     OW95098  10.677  12.987   8.682
97734SOL    HW195099  10.631  12.983   8.767
97734SOL    HW295100  10.746  12.921   8.690
97735SOL     OW95101   2.691   6.792  13.181
97735SOL    HW195102   2.781   6.801  13.149
97735SOL    HW295103   2.686   6.849  13.258
97736SOL     OW95104   3.375   4.242   8.714
97736SOL    HW195105   3.459   4.241   8.668
97736SOL    HW295106   3.317   4.290   8.655
97737SOL     OW95107   6.732   7.565   7.783
97737SOL    HW195108   6.638   7.579   7.784
97737SOL    HW295109   6.746   7.487   7.837
97738SOL     OW95110   5.596   4.223  12.531
97738SOL    HW195111   5.632   4.162  12.467
97738SOL    HW295112   5.655   4.298  12.529
97739SOL     OW95113   8.284  11.166   4.678
97739SOL    HW195114   8.333  11.159   4.596
97739SOL    HW295115   8.235  11.084   4.684
97740SOL     OW95116   5.686  11.317   7.837
97740SOL    HW195117   5.740  11.245   7.873
97740SOL    HW295118   5.607  11.316   7.890
97741SOL     OW95119   4.696  11.874  12.653
97741SOL    HW195120   4.765  11.872  12.587
97741SOL    HW295121   4.615  11.885  12.602
97742SOL     OW95122   0.009   0.761   2.092
97742SOL    HW195123   0.083   0.767   2.032
97742SOL    HW295124   0.031   0.820   2.164
97743SOL     OW95125   3.283   9.821   7.809
97743SOL    HW195126   3.370   9.805   7.845
97743SOL    HW295127   3.232   9.743   7.834
97744SOL     OW95128  12.681   7.664  10.749
97744SOL    HW195129  12.654   7.590  10.694
97744SOL    HW295130  12.623   7.660  10.825
97745SOL     OW95131  14.679   4.882   8.821
97745SOL    HW195132  14.728   4.805   8.792
97745SOL    HW295133  14.724   4.909   8.901
97746SOL     OW95134  11.948  11.377  13.232
97746SOL    HW195135  11.991  11.356  13.149
97746SOL    HW295136  11.880  11.440  13.207
97747SOL     OW95137   5.811   0.744  10.506
97747SOL    HW195138   5.867   0.738  10.429
97747SOL    HW295139   5.775   0.833  10.503
97748SOL     OW95140  14.305   3.088   5.618
97748SOL    HW195141  14.249   3.157   5.582
97748SOL    HW295142  14.279   3.083   5.710
97749SOL     OW95143   6.412  12.693   0.775
97749SOL    HW195144   6.401  12.703   0.680
97749SOL    HW295145   6.327  12.666   0.807
97750SOL     OW95146   0.365   6.605   9.020
97750SOL    HW195147   0.331   6.528   8.977
97750SOL    HW295148   0.354   6.587   9.114
97751SOL     OW95149   5.645   8.847  14.347
97751SOL    HW195150   5.710   8.826  14.281
97751SOL    HW295151   5.624   8.939  14.331
97752SOL     OW95152  12.682   4.813   2.234
97752SOL    HW195153  12.675   4.727   2.275
97752SOL    HW295154  12.709   4.871   2.306
97753SOL     OW95155  12.576   7.077  13.227
97753SOL    HW195156  12.588   6.982  13.228
97753SOL    HW295157  12.496   7.090  13.175
97754SOL     OW95158   7.780   8.237   4.369
97754SOL    HW195159   7.866   8.274   4.348
97754SOL    HW295160   7.743   8.298   4.433
97755SOL     OW95161   6.127   8.259  12.112
97755SOL    HW195162   6.146   8.320  12.183
97755SOL    HW295163   6.171   8.178  12.137
97756SOL     OW95164   2.400  14.381   8.958
97756SOL    HW195165   2.345  14.398   8.881
97756SOL    HW295166   2.337  14.365   9.028
97757SOL     OW95167  13.406   6.889   3.646
97757SOL    HW195168  13.381   6.977   3.616
97757SOL    HW295169  13.487   6.904   3.694
97758SOL     OW95170   4.309   2.203  12.248
97758SOL    HW195171   4.311   2.281  12.192
97758SOL    HW295172   4.216   2.190  12.267
97759SOL     OW95173   5.493   2.984   5.718
97759SOL    HW195174   5.551   3.059   5.733
97759SOL    HW295175   5.472   2.953   5.806
97760SOL     OW95176   1.911  10.343  10.216
97760SOL    HW195177   1.818  10.328  10.232
97760SOL    HW295178   1.942  10.388  10.294
97761SOL     OW95179   1.232   6.504  14.376
97761SOL    HW195180   1.300   6.462  14.324
97761SOL    HW295181   1.150   6.478  14.334
97762SOL     OW95182   6.273   0.591   3.961
97762SOL    HW195183   6.291   0.666   3.905
97762SOL    HW295184   6.285   0.623   4.050
97763SOL     OW95185   5.493   0.331   7.821
97763SOL    HW195186   5.561   0.274   7.784
97763SOL    HW295187   5.450   0.370   7.745
97764SOL     OW95188  13.521   1.341  10.675
97764SOL    HW195189  13.428   1.361  10.664
97764SOL    HW295190  13.541   1.367  10.765
97765SOL     OW95191   7.475   7.392  14.667
97765SOL    HW195192   7.509   7.469  14.621
97765SOL    HW295193   7.447   7.332  14.598
97766SOL     OW95194   2.398   3.482  13.063
97766SOL    HW195195   2.362   3.472  13.151
97766SOL    HW295196   2.352   3.417  13.010
97767SOL     OW95197   7.493   3.562   7.862
97767SOL    HW195198   7.481   3.489   7.923
97767SOL    HW295199   7.447   3.536   7.783
97768SOL     OW95200   8.071  10.296   6.920
97768SOL    HW195201   8.145  10.265   6.868
97768SOL    HW295202   7.999  10.305   6.857
97769SOL     OW95203   1.978  14.017   5.216
97769SOL    HW195204   2.046  13.954   5.192
97769SOL    HW295205   1.967  14.005   5.311
97770SOL     OW95206   9.713   5.682  10.387
97770SOL    HW195207   9.663   5.703  10.467
97770SOL    HW295208   9.664   5.611  10.347
97771SOL     OW95209   7.798   6.084   5.662
97771SOL    HW195210   7.754   6.165   5.690
97771SOL    HW295211   7.793   6.087   5.566
97772SOL     OW95212   7.236  13.295   7.206
97772SOL    HW195213   7.299  13.224   7.193
97772SOL    HW295214   7.241  13.315   7.300
97773SOL     OW95215   3.684   3.731   8.937
97773SOL    HW195216   3.732   3.705   9.015
97773SOL    HW295217   3.607   3.673   8.935
97774SOL     OW95218  12.342   7.218  13.111
97774SOL    HW195219  12.284   7.260  13.174
97774SOL    HW295220  12.348   7.280  13.039
97775SOL     OW95221   2.781  13.840   6.878
97775SOL    HW195222   2.752  13.853   6.787
97775SOL    HW295223   2.730  13.765   6.908
97776SOL     OW95224   6.345   4.420  14.506
97776SOL    HW195225   6.310   4.476  14.576
97776SOL    HW295226   6.283   4.348  14.499
97777SOL     OW95227  12.662   6.764   7.788
97777SOL    HW195228  12.702   6.736   7.871
97777SOL    HW295229  12.568   6.761   7.804
97778SOL     OW95230   3.631   4.729   1.999
97778SOL    HW195231   3.712   4.685   2.024
97778SOL    HW295232   3.659   4.815   1.968
97779SOL     OW95233   9.654  11.899   3.064
97779SOL    HW195234   9.609  11.863   2.987
97779SOL    HW295235   9.604  11.978   3.086
97780SOL     OW95236   8.175  11.496   2.585
97780SOL    HW195237   8.173  11.429   2.653
97780SOL    HW295238   8.157  11.578   2.632
97781SOL     OW95239   6.194   1.919   4.458
97781SOL    HW195240   6.129   1.924   4.528
97781SOL    HW295241   6.174   1.838   4.412
97782SOL     OW95242   0.614   4.744   5.320
97782SOL    HW195243   0.635   4.835   5.297
97782SOL    HW295244   0.554   4.751   5.394
97783SOL     OW95245  10.888   1.451   1.175
97783SOL    HW195246  10.896   1.511   1.102
97783SOL    HW295247  10.805   1.476   1.218
97784SOL     OW95248  10.167   2.184   8.040
97784SOL    HW195249  10.112   2.205   7.964
97784SOL    HW295250  10.128   2.232   8.113
97785SOL     OW95251  11.287  11.996   5.766
97785SOL    HW195252  11.277  12.005   5.861
97785SOL    HW295253  11.327  11.909   5.755
97786SOL     OW95254   9.973  12.078  14.066
97786SOL    HW195255  10.042  12.034  14.016
97786SOL    HW295256   9.992  12.171  14.056
97787SOL     OW95257   4.063   4.430   1.488
97787SOL    HW195258   4.103   4.508   1.526
97787SOL    HW295259   4.070   4.363   1.556
97788SOL     OW95260   7.883   3.146   2.540
97788SOL    HW195261   7.903   3.067   2.490
97788SOL    HW295262   7.913   3.218   2.484
97789SOL     OW95263  12.784  12.127   0.804
97789SOL    HW195264  12.874  12.102   0.785
97789SOL    HW295265  12.762  12.192   0.737
97790SOL     OW95266   2.717   1.443   1.176
97790SOL    HW195267   2.636   1.490   1.196
97790SOL    HW295268   2.782   1.512   1.161
97791SOL     OW95269  11.247  12.482   4.402
97791SOL    HW195270  11.180  12.462   4.336
97791SOL    HW295271  11.295  12.557   4.366
97792SOL     OW95272   6.346  14.006  10.066
97792SOL    HW195273   6.415  14.025  10.131
97792SOL    HW295274   6.279  13.961  10.116
97793SOL     OW95275   7.051  14.257   3.875
97793SOL    HW195276   7.119  14.269   3.941
97793SOL    HW295277   7.068  14.326   3.811
97794SOL     OW95278  10.834   2.360   3.576
97794SOL    HW195279  10.883   2.315   3.507
97794SOL    HW295280  10.898   2.371   3.647
97795SOL     OW95281   4.012   8.240  10.516
97795SOL    HW195282   4.033   8.333  10.517
97795SOL    HW295283   4.023   8.212  10.608
97796SOL     OW95284   9.615   7.057   8.031
97796SOL    HW195285   9.572   6.975   8.006
97796SOL    HW295286   9.588   7.071   8.122
97797SOL     OW95287   3.930   2.265   2.819
97797SOL    HW195288   3.905   2.333   2.883
97797SOL    HW295289   3.948   2.188   2.872
97798SOL     OW95290  14.553   5.593  11.458
97798SOL    HW195291  14.591   5.622  11.375
97798SOL    HW295292  14.482   5.655  11.476
97799SOL     OW95293  14.547  14.148   2.670
97799SOL    HW195294  14.505  14.205   2.735
97799SOL    HW295295  14.629  14.192   2.649
97800SOL     OW95296  12.050  14.809   2.314
97800SOL    HW195297  12.140  14.787   2.336
97800SOL    HW295298  12.040   0.018   2.341
97801SOL     OW95299  12.140   2.701   3.746
97801SOL    HW195300  12.124   2.789   3.780
97801SOL    HW295301  12.235   2.697   3.737
97802SOL     OW95302   4.279  14.180   3.299
97802SOL    HW195303   4.345  14.121   3.333
97802SOL    HW295304   4.289  14.176   3.204
97803SOL     OW95305   3.135   2.172   4.465
97803SOL    HW195306   3.075   2.228   4.515
97803SOL    HW295307   3.081   2.097   4.439
97804SOL     OW95308  13.516  13.533  11.918
97804SOL    HW195309  13.471  13.456  11.952
97804SOL    HW295310  13.456  13.606  11.934
97805SOL     OW95311   8.579  11.467   7.705
97805SOL    HW195312   8.511  11.401   7.693
97805SOL    HW295313   8.619  11.477   7.618
97806SOL     OW95314   0.044   6.394   8.750
97806SOL    HW195315  14.868   6.318   8.754
97806SOL    HW295316   0.027   6.441   8.832
97807SOL     OW95317   1.550   3.577   7.241
97807SOL    HW195318   1.493   3.536   7.306
97807SOL    HW295319   1.498   3.649   7.205
97808SOL     OW95320   7.944  10.781   3.759
97808SOL    HW195321   7.874  10.824   3.808
97808SOL    HW295322   7.981  10.851   3.705
97809SOL     OW95323  12.019   9.078  10.165
97809SOL    HW195324  11.989   9.124  10.244
97809SOL    HW295325  12.058   9.147  10.111
97810SOL     OW95326   9.867   4.892  12.341
97810SOL    HW195327   9.920   4.927  12.412
97810SOL    HW295328   9.922   4.823  12.303
97811SOL     OW95329   1.500  13.504  10.307
97811SOL    HW195330   1.530  13.571  10.368
97811SOL    HW295331   1.579  13.457  10.281
97812SOL     OW95332  10.369   2.521  12.490
97812SOL    HW195333  10.280   2.517  12.524
97812SOL    HW295334  10.423   2.486  12.561
97813SOL     OW95335   9.736   1.073   8.860
97813SOL    HW195336   9.642   1.064   8.876
97813SOL    HW295337   9.777   1.010   8.919
97814SOL     OW95338  10.468   3.824  11.562
97814SOL    HW195339  10.399   3.820  11.496
97814SOL    HW295340  10.525   3.895  11.533
97815SOL     OW95341  14.340   6.461  10.363
97815SOL    HW195342  14.284   6.390  10.395
97815SOL    HW295343  14.283   6.511  10.304
97816SOL     OW95344  11.254   2.453   0.645
97816SOL    HW195345  11.256   2.548   0.630
97816SOL    HW295346  11.339   2.433   0.682
97817SOL     OW95347   8.221   6.116   1.066
97817SOL    HW195348   8.278   6.047   1.100
97817SOL    HW295349   8.134   6.076   1.061
97818SOL     OW95350  10.096   2.245  12.590
97818SOL    HW195351  10.088   2.237  12.495
97818SOL    HW295352  10.137   2.330  12.604
97819SOL     OW95353   2.236   1.282   1.444
97819SOL    HW195354   2.145   1.255   1.428
97819SOL    HW295355   2.238   1.305   1.537
97820SOL     OW95356   5.914  11.938  13.215
97820SOL    HW195357   5.995  11.987  13.226
97820SOL    HW295358   5.916  11.871  13.283
97821SOL     OW95359   6.415   0.383   8.110
97821SOL    HW195360   6.365   0.426   8.179
97821SOL    HW295361   6.411   0.290   8.132
97822SOL     OW95362  11.249   6.724   8.326
97822SOL    HW195363  11.199   6.778   8.264
97822SOL    HW295364  11.341   6.738   8.300
97823SOL     OW95365  10.984   4.499   0.127
97823SOL    HW195366  10.982   4.471   0.218
97823SOL    HW295367  10.929   4.577   0.125
97824SOL     OW95368   5.733  10.534   0.312
97824SOL    HW195369   5.708  10.613   0.264
97824SOL    HW295370   5.655  10.478   0.308
97825SOL     OW95371   6.580  10.321  11.070
97825SOL    HW195372   6.582  10.414  11.092
97825SOL    HW295373   6.655  10.308  11.012
97826SOL     OW95374   8.899   1.577   9.056
97826SOL    HW195375   8.921   1.545   8.968
97826SOL    HW295376   8.943   1.662   9.062
97827SOL     OW95377   8.168   9.520  13.103
97827SOL    HW195378   8.129   9.529  13.016
97827SOL    HW295379   8.262   9.519  13.088
97828SOL     OW95380   6.709   0.853   1.666
97828SOL    HW195381   6.690   0.876   1.757
97828SOL    HW295382   6.802   0.871   1.655
97829SOL     OW95383   6.655   3.731  10.166
97829SOL    HW195384   6.608   3.672  10.107
97829SOL    HW295385   6.686   3.673  10.237
97830SOL     OW95386  11.918  13.381   2.648
97830SOL    HW195387  11.844  13.433   2.679
97830SOL    HW295388  11.987  13.445   2.630
97831SOL     OW95389  14.089   6.139   8.075
97831SOL    HW195390  14.043   6.096   8.147
97831SOL    HW295391  14.020   6.177   8.022
97832SOL     OW95392   1.426   7.600   9.650
97832SOL    HW195393   1.394   7.595   9.560
97832SOL    HW295394   1.361   7.653   9.696
97833SOL     OW95395   8.016  13.179   5.121
97833SOL    HW195396   8.092  13.224   5.084
97833SOL    HW295397   8.022  13.196   5.215
97834SOL     OW95398   3.248   6.898  11.914
97834SOL    HW195399   3.301   6.878  11.992
97834SOL    HW295400   3.186   6.825  11.909
97835SOL     OW95401  13.136  12.429  10.269
97835SOL    HW195402  13.156  12.521  10.286
97835SOL    HW295403  13.147  12.386  10.354
97836SOL     OW95404  12.045   0.905  13.150
97836SOL    HW195405  12.009   0.904  13.238
97836SOL    HW295406  12.076   0.994  13.137
97837SOL     OW95407   2.257   1.319  12.082
97837SOL    HW195408   2.298   1.273  12.155
97837SOL    HW295409   2.171   1.345  12.115
97838SOL     OW95410   2.607   2.035  13.337
97838SOL    HW195411   2.603   2.025  13.432
97838SOL    HW295412   2.556   1.963  13.302
97839SOL     OW95413  14.358   6.619  13.878
97839SOL    HW195414  14.402   6.702  13.861
97839SOL    HW295415  14.264   6.641  13.877
97840SOL     OW95416   1.333   3.421  10.284
97840SOL    HW195417   1.426   3.421  10.309
97840SOL    HW295418   1.324   3.344  10.227
97841SOL     OW95419   8.357   8.929  10.453
97841SOL    HW195420   8.359   8.947  10.547
97841SOL    HW295421   8.275   8.882  10.439
97842SOL     OW95422   3.719   0.891   3.193
97842SOL    HW195423   3.686   0.816   3.145
97842SOL    HW295424   3.732   0.858   3.282
97843SOL     OW95425  14.143   3.182   9.870
97843SOL    HW195426  14.178   3.094   9.862
97843SOL    HW295427  14.099   3.198   9.786
97844SOL     OW95428   8.896  11.489  11.420
97844SOL    HW195429   8.818  11.504  11.474
97844SOL    HW295430   8.947  11.426  11.470
97845SOL     OW95431  11.518   2.804   9.825
97845SOL    HW195432  11.473   2.835   9.747
97845SOL    HW295433  11.493   2.867   9.893
97846SOL     OW95434   4.220   4.105  12.039
97846SOL    HW195435   4.241   4.013  12.022
97846SOL    HW295436   4.130   4.103  12.072
97847SOL     OW95437   7.538   3.986   3.425
97847SOL    HW195438   7.486   4.006   3.503
97847SOL    HW295439   7.618   4.037   3.436
97848SOL     OW95440  12.151  10.757   0.777
97848SOL    HW195441  12.229  10.808   0.754
97848SOL    HW295442  12.186  10.674   0.810
97849SOL     OW95443   7.906   7.997   3.587
97849SOL    HW195444   7.920   7.962   3.675
97849SOL    HW295445   7.994   8.006   3.551
97850SOL     OW95446   7.887  11.069  12.771
97850SOL    HW195447   7.955  11.110  12.826
97850SOL    HW295448   7.910  10.976  12.770
97851SOL     OW95449   0.812  12.223  13.020
97851SOL    HW195450   0.733  12.199  13.068
97851SOL    HW295451   0.875  12.247  13.089
97852SOL     OW95452   5.809   0.142   3.080
97852SOL    HW195453   5.882   0.193   3.113
97852SOL    HW295454   5.734   0.169   3.134
97853SOL     OW95455  10.089   1.411   9.979
97853SOL    HW195456  10.177   1.446   9.992
97853SOL    HW295457  10.102   1.316   9.976
97854SOL     OW95458   3.811  10.151  13.021
97854SOL    HW195459   3.790  10.120  12.932
97854SOL    HW295460   3.802  10.073  13.075
97855SOL     OW95461  14.009   9.440  12.920
97855SOL    HW195462  14.079   9.412  12.979
97855SOL    HW295463  14.018   9.381  12.844
97856SOL     OW95464  11.752  10.070  13.381
97856SOL    HW195465  11.794  10.022  13.309
97856SOL    HW295466  11.696  10.005  13.423
97857SOL     OW95467   0.453   5.370   1.549
97857SOL    HW195468   0.430   5.402   1.636
97857SOL    HW295469   0.421   5.280   1.547
97858SOL     OW95470  11.605  13.213   0.385
97858SOL    HW195471  11.552  13.292   0.399
97858SOL    HW295472  11.541  13.143   0.376
97859SOL     OW95473   9.263   9.049   8.904
97859SOL    HW195474   9.318   8.986   8.856
97859SOL    HW295475   9.174   9.028   8.878
97860SOL     OW95476  12.752   2.317  12.011
97860SOL    HW195477  12.766   2.387  12.075
97860SOL    HW295478  12.826   2.325  11.951
97861SOL     OW95479   2.538   2.509   2.841
97861SOL    HW195480   2.453   2.546   2.866
97861SOL    HW295481   2.555   2.441   2.907
97862SOL     OW95482   7.765   4.371   9.762
97862SOL    HW195483   7.854   4.380   9.797
97862SOL    HW295484   7.732   4.289   9.799
97863SOL     OW95485  11.624  14.609   7.575
97863SOL    HW195486  11.558  14.623   7.642
97863SOL    HW295487  11.701  14.656   7.606
97864SOL     OW95488   0.977   2.061   0.994
97864SOL    HW195489   0.916   1.996   1.028
97864SOL    HW295490   1.061   2.039   1.034
97865SOL     OW95491   2.493   5.516   0.154
97865SOL    HW195492   2.532   5.450   0.098
97865SOL    HW295493   2.557   5.587   0.155
97866SOL     OW95494  14.016  11.902   0.912
97866SOL    HW195495  14.039  11.809   0.903
97866SOL    HW295496  13.947  11.915   0.847
97867SOL     OW95497  12.284  12.738  13.497
97867SOL    HW195498  12.217  12.721  13.430
97867SOL    HW295499  12.359  12.686  13.468
97868SOL     OW95500   1.729  10.683   9.406
97868SOL    HW195501   1.820  10.657   9.391
97868SOL    HW295502   1.717  10.679   9.501
97869SOL     OW95503  10.386   8.340   3.740
97869SOL    HW195504  10.389   8.247   3.716
97869SOL    HW295505  10.297   8.367   3.718
97870SOL     OW95506  14.522   6.168  11.862
97870SOL    HW195507  14.559   6.142  11.946
97870SOL    HW295508  14.515   6.263  11.867
97871SOL     OW95509   7.854   1.982   1.787
97871SOL    HW195510   7.816   2.048   1.729
97871SOL    HW295511   7.812   1.900   1.761
97872SOL     OW95512  13.831   8.210   6.738
97872SOL    HW195513  13.866   8.174   6.820
97872SOL    HW295514  13.881   8.165   6.670
97873SOL     OW95515   3.699   8.261  10.071
97873SOL    HW195516   3.695   8.335  10.131
97873SOL    HW295517   3.750   8.292   9.997
97874SOL     OW95518   8.312  12.915  12.475
97874SOL    HW195519   8.372  12.900  12.548
97874SOL    HW295520   8.243  12.849  12.487
97875SOL     OW95521  14.222   0.135   9.307
97875SOL    HW195522  14.304   0.106   9.267
97875SOL    HW295523  14.176   0.053   9.329
97876SOL     OW95524   6.968  14.509  10.344
97876SOL    HW195525   7.049  14.479  10.305
97876SOL    HW295526   6.952  14.595  10.305
97877SOL     OW95527  13.152   9.492   0.262
97877SOL    HW195528  13.153   9.528   0.173
97877SOL    HW295529  13.093   9.417   0.257
97878SOL     OW95530   6.173  10.697   7.524
97878SOL    HW195531   6.106  10.678   7.458
97878SOL    HW295532   6.253  10.713   7.473
97879SOL     OW95533   2.932   3.250  14.028
97879SOL    HW195534   2.912   3.171  14.078
97879SOL    HW295535   2.847   3.280  13.997
97880SOL     OW95536   3.372   4.702  10.785
97880SOL    HW195537   3.397   4.611  10.799
97880SOL    HW295538   3.430   4.752  10.842
97881SOL     OW95539  14.497   1.568  10.677
97881SOL    HW195540  14.534   1.514  10.746
97881SOL    HW295541  14.509   1.658  10.708
97882SOL     OW95542   4.890  14.034   3.350
97882SOL    HW195543   4.896  13.951   3.303
97882SOL    HW295544   4.948  14.093   3.302
97883SOL     OW95545   0.630  12.090   6.160
97883SOL    HW195546   0.537  12.105   6.140
97883SOL    HW295547   0.670  12.177   6.152
97884SOL     OW95548   9.610   7.487   4.133
97884SOL    HW195549   9.614   7.529   4.047
97884SOL    HW295550   9.682   7.424   4.132
97885SOL     OW95551   1.663  10.694   6.136
97885SOL    HW195552   1.689  10.625   6.197
97885SOL    HW295553   1.607  10.650   6.072
97886SOL     OW95554  13.322   7.310   8.962
97886SOL    HW195555  13.331   7.220   8.929
97886SOL    HW295556  13.382   7.361   8.907
97887SOL     OW95557   4.841   7.838   2.258
97887SOL    HW195558   4.915   7.782   2.234
97887SOL    HW295559   4.774   7.776   2.286
97888SOL     OW95560   7.409   5.167   2.502
97888SOL    HW195561   7.461   5.246   2.517
97888SOL    HW295562   7.343   5.195   2.438
97889SOL     OW95563   2.374  14.194   6.450
97889SOL    HW195564   2.299  14.136   6.463
97889SOL    HW295565   2.376  14.211   6.356
97890SOL     OW95566   3.683   9.512   1.617
97890SOL    HW195567   3.666   9.500   1.523
97890SOL    HW295568   3.606   9.475   1.660
97891SOL     OW95569   9.259  12.512   6.659
97891SOL    HW195570   9.213  12.474   6.734
97891SOL    HW295571   9.334  12.558   6.699
97892SOL     OW95572  10.906  12.464   8.300
97892SOL    HW195573  10.981  12.494   8.352
97892SOL    HW295574  10.929  12.374   8.275
97893SOL     OW95575   4.557  14.541   2.004
97893SOL    HW195576   4.463  14.536   1.993
97893SOL    HW295577   4.587  14.595   1.931
97894SOL     OW95578   7.156  14.152   6.769
97894SOL    HW195579   7.166  14.240   6.804
97894SOL    HW295580   7.066  14.148   6.738
97895SOL     OW95581   0.900   8.482   4.183
97895SOL    HW195582   0.875   8.548   4.247
97895SOL    HW295583   0.867   8.400   4.218
97896SOL     OW95584   5.456   9.130   9.842
97896SOL    HW195585   5.366   9.139   9.873
97896SOL    HW295586   5.448   9.128   9.746
97897SOL     OW95587   1.910  14.215   3.782
97897SOL    HW195588   1.831  14.267   3.770
97897SOL    HW295589   1.943  14.200   3.694
97898SOL     OW95590  11.068   0.120  14.542
97898SOL    HW195591  11.005   0.053  14.515
97898SOL    HW295592  11.063   0.121  14.637
97899SOL     OW95593  11.021  14.858  12.749
97899SOL    HW195594  10.983  14.863  12.837
97899SOL    HW295595  11.094   0.038  12.751
97900SOL     OW95596   6.877  11.964   3.063
97900SOL    HW195597   6.933  11.963   2.985
97900SOL    HW295598   6.846  11.874   3.071
97901SOL     OW95599  14.284  11.989  12.355
97901SOL    HW195600  14.344  12.039  12.300
97901SOL    HW295601  14.279  11.903  12.314
97902SOL     OW95602   9.761   1.901  10.817
97902SOL    HW195603   9.838   1.956  10.809
97902SOL    HW295604   9.795   1.811  10.814
97903SOL     OW95605  13.528   8.743   2.153
97903SOL    HW195606  13.441   8.705   2.170
97903SOL    HW295607  13.561   8.694   2.078
97904SOL     OW95608   0.656   1.164   1.453
97904SOL    HW195609   0.685   1.235   1.511
97904SOL    HW295610   0.563   1.154   1.473
97905SOL     OW95611  12.330   5.344   4.868
97905SOL    HW195612  12.283   5.379   4.792
97905SOL    HW295613  12.330   5.249   4.854
97906SOL     OW95614   2.489   1.146  13.154
97906SOL    HW195615   2.573   1.125  13.113
97906SOL    HW295616   2.486   1.242  13.155
97907SOL     OW95617  14.409  14.795   3.665
97907SOL    HW195618  14.425  14.740   3.588
97907SOL    HW295619  14.496  14.820   3.695
97908SOL     OW95620   6.284   4.015   7.106
97908SOL    HW195621   6.228   4.081   7.145
97908SOL    HW295622   6.317   4.055   7.025
97909SOL     OW95623  14.322   8.744   3.388
97909SOL    HW195624  14.296   8.783   3.471
97909SOL    HW295625  14.241   8.706   3.353
97910SOL     OW95626   2.877  12.837  14.741
97910SOL    HW195627   2.955  12.810  14.693
97910SOL    HW295628   2.806  12.785  14.703
97911SOL     OW95629   2.460   2.876   0.673
97911SOL    HW195630   2.404   2.916   0.607
97911SOL    HW295631   2.503   2.804   0.627
97912SOL     OW95632   8.315   0.733   9.749
97912SOL    HW195633   8.292   0.644   9.725
97912SOL    HW295634   8.373   0.724   9.825
97913SOL     OW95635   0.957  11.598  14.196
97913SOL    HW195636   0.982  11.586  14.105
97913SOL    HW295637   0.892  11.529  14.212
97914SOL     OW95638  14.049   2.759  14.848
97914SOL    HW195639  14.126   2.793   0.011
97914SOL    HW295640  14.005   2.836  14.813
97915SOL     OW95641   9.409  11.849   6.675
97915SOL    HW195642   9.399  11.914   6.745
97915SOL    HW295643   9.374  11.892   6.597
97916SOL     OW95644   9.518  11.295   4.728
97916SOL    HW195645   9.583  11.236   4.688
97916SOL    HW295646   9.551  11.383   4.708
97917SOL     OW95647   9.678   4.008   3.350
97917SOL    HW195648   9.730   4.020   3.270
97917SOL    HW295649   9.680   3.914   3.366
97918SOL     OW95650  14.687   1.665   3.556
97918SOL    HW195651  14.690   1.573   3.581
97918SOL    HW295652  14.602   1.676   3.515
97919SOL     OW95653   3.383   0.364   0.563
97919SOL    HW195654   3.363   0.457   0.554
97919SOL    HW295655   3.371   0.346   0.656
97920SOL     OW95656   9.681  12.538   5.638
97920SOL    HW195657   9.659  12.504   5.551
97920SOL    HW295658   9.658  12.631   5.634
97921SOL     OW95659   4.893  13.582   6.583
97921SOL    HW195660   4.933  13.539   6.508
97921SOL    HW295661   4.960  13.641   6.616
97922SOL     OW95662   8.888   3.517  11.346
97922SOL    HW195663   8.877   3.600  11.301
97922SOL    HW295664   8.844   3.529  11.430
97923SOL     OW95665   9.766   8.374   5.751
97923SOL    HW195666   9.777   8.337   5.839
97923SOL    HW295667   9.770   8.469   5.764
97924SOL     OW95668   9.112   2.804   2.625
97924SOL    HW195669   9.167   2.728   2.644
97924SOL    HW295670   9.119   2.816   2.530
97925SOL     OW95671   5.124  12.937   1.385
97925SOL    HW195672   5.211  12.914   1.353
97925SOL    HW295673   5.092  12.857   1.427
97926SOL     OW95674  14.341   6.681   0.143
97926SOL    HW195675  14.376   6.769   0.129
97926SOL    HW295676  14.290   6.687   0.223
97927SOL     OW95677   1.938   7.572   8.514
97927SOL    HW195678   2.002   7.640   8.491
97927SOL    HW295679   1.914   7.533   8.430
97928SOL     OW95680  12.141  12.968  12.012
97928SOL    HW195681  12.141  13.025  12.089
97928SOL    HW295682  12.052  12.976  11.977
97929SOL     OW95683  14.513   6.824  11.370
97929SOL    HW195684  14.545   6.914  11.358
97929SOL    HW295685  14.422   6.826  11.339
97930SOL     OW95686   0.366  12.937  12.223
97930SOL    HW195687   0.413  12.903  12.146
97930SOL    HW295688   0.382  13.031  12.221
97931SOL     OW95689   1.209   7.608  12.451
97931SOL    HW195690   1.178   7.518  12.461
97931SOL    HW295691   1.295   7.599  12.410
97932SOL     OW95692   0.275   5.235   2.105
97932SOL    HW195693   0.215   5.225   2.032
97932SOL    HW295694   0.295   5.329   2.108
97933SOL     OW95695   9.473   6.525   2.930
97933SOL    HW195696   9.441   6.451   2.879
97933SOL    HW295697   9.517   6.485   3.005
97934SOL     OW95698  11.183   9.014   1.374
97934SOL    HW195699  11.260   9.030   1.320
97934SOL    HW295700  11.121   9.083   1.348
97935SOL     OW95701   0.311   0.909   9.627
97935SOL    HW195702   0.289   0.865   9.709
97935SOL    HW295703   0.241   0.974   9.615
97936SOL     OW95704   4.381   3.218  13.157
97936SOL    HW195705   4.348   3.230  13.246
97936SOL    HW295706   4.448   3.285  13.147
97937SOL     OW95707  12.665   0.618   1.083
97937SOL    HW195708  12.749   0.590   1.046
97937SOL    HW295709  12.681   0.705   1.117
97938SOL     OW95710   5.852  11.689   8.522
97938SOL    HW195711   5.877  11.698   8.614
97938SOL    HW295712   5.866  11.775   8.484
97939SOL     OW95713   9.883   6.863   3.160
97939SOL    HW195714   9.922   6.788   3.205
97939SOL    HW295715   9.797   6.833   3.132
97940SOL     OW95716   5.032   3.773  12.255
97940SOL    HW195717   5.103   3.809  12.201
97940SOL    HW295718   5.000   3.698  12.205
97941SOL     OW95719   0.638   7.038   0.670
97941SOL    HW195720   0.654   7.061   0.761
97941SOL    HW295721   0.617   6.945   0.672
97942SOL     OW95722  10.923  13.637   1.710
97942SOL    HW195723  10.867  13.601   1.640
97942SOL    HW295724  10.872  13.625   1.790
97943SOL     OW95725  10.478   7.551   2.287
97943SOL    HW195726  10.386   7.544   2.311
97943SOL    HW295727  10.486   7.502   2.206
97944SOL     OW95728   1.916   6.798   0.547
97944SOL    HW195729   1.993   6.751   0.513
97944SOL    HW295730   1.939   6.890   0.537
97945SOL     OW95731   5.244   0.550   8.742
97945SOL    HW195732   5.324   0.498   8.737
97945SOL    HW295733   5.249   0.610   8.667
97946SOL     OW95734   4.499   9.529   3.759
97946SOL    HW195735   4.472   9.481   3.837
97946SOL    HW295736   4.419   9.566   3.724
97947SOL     OW95737   8.555   5.956   8.884
97947SOL    HW195738   8.510   6.002   8.955
97947SOL    HW295739   8.517   5.868   8.885
97948SOL     OW95740  13.638  12.015  12.094
97948SOL    HW195741  13.615  12.107  12.104
97948SOL    HW295742  13.645  11.982  12.183
97949SOL     OW95743   0.367   2.131   9.132
97949SOL    HW195744   0.324   2.101   9.052
97949SOL    HW295745   0.456   2.151   9.105
97950SOL     OW95746   3.651   6.933   3.337
97950SOL    HW195747   3.675   6.991   3.265
97950SOL    HW295748   3.660   6.845   3.300
97951SOL     OW95749   8.432   5.332   7.357
97951SOL    HW195750   8.455   5.423   7.335
97951SOL    HW295751   8.455   5.323   7.450
97952SOL     OW95752  12.427   5.880   3.929
97952SOL    HW195753  12.469   5.924   3.855
97952SOL    HW295754  12.384   5.804   3.891
97953SOL     OW95755   5.042   4.907  12.675
97953SOL    HW195756   5.015   4.868  12.758
97953SOL    HW295757   5.103   4.977  12.700
97954SOL     OW95758   1.484   5.073   6.451
97954SOL    HW195759   1.419   5.049   6.516
97954SOL    HW295760   1.556   5.011   6.466
97955SOL     OW95761   7.582   8.420  11.783
97955SOL    HW195762   7.662   8.371  11.765
97955SOL    HW295763   7.570   8.474  11.705
97956SOL     OW95764  11.899  12.102   4.206
97956SOL    HW195765  11.808  12.131   4.211
97956SOL    HW295766  11.925  12.092   4.298
97957SOL     OW95767   7.867   4.522   9.507
97957SOL    HW195768   7.801   4.554   9.444
97957SOL    HW295769   7.815   4.488   9.580
97958SOL     OW95770  10.354   2.145   0.185
97958SOL    HW195771  10.283   2.157   0.123
97958SOL    HW295772  10.314   2.099   0.259
97959SOL     OW95773   2.317   3.285   1.168
97959SOL    HW195774   2.384   3.256   1.106
97959SOL    HW295775   2.311   3.214   1.232
97960SOL     OW95776   6.960  12.991  13.726
97960SOL    HW195777   7.046  13.031  13.730
97960SOL    HW295778   6.968  12.911  13.778
97961SOL     OW95779  10.601  12.532   1.324
97961SOL    HW195780  10.647  12.449   1.309
97961SOL    HW295781  10.509  12.512   1.303
97962SOL     OW95782   1.458   3.470   7.464
97962SOL    HW195783   1.388   3.535   7.459
97962SOL    HW295784   1.468   3.453   7.558
97963SOL     OW95785   9.966   7.777   9.290
97963SOL    HW195786   9.973   7.775   9.385
97963SOL    HW295787  10.054   7.754   9.259
97964SOL     OW95788   3.900   8.630   7.603
97964SOL    HW195789   3.939   8.544   7.615
97964SOL    HW295790   3.943   8.685   7.669
97965SOL     OW95791  11.253   0.019   4.287
97965SOL    HW195792  11.342  14.865   4.292
97965SOL    HW295793  11.246   0.053   4.198
97966SOL     OW95794   4.623   6.090   2.607
97966SOL    HW195795   4.573   6.167   2.632
97966SOL    HW295796   4.592   6.069   2.519
97967SOL     OW95797   9.671   3.165   4.065
97967SOL    HW195798   9.653   3.241   4.009
97967SOL    HW295799   9.593   3.110   4.058
97968SOL     OW95800   2.212   2.106   6.172
97968SOL    HW195801   2.281   2.170   6.189
97968SOL    HW295802   2.141   2.132   6.231
97969SOL     OW95803   6.133   0.415  14.505
97969SOL    HW195804   6.209   0.471  14.488
97969SOL    HW295805   6.117   0.424  14.599
97970SOL     OW95806   5.369   8.011   9.839
97970SOL    HW195807   5.454   7.976   9.812
97970SOL    HW295808   5.389   8.091   9.885
97971SOL     OW95809   2.345   7.221   5.858
97971SOL    HW195810   2.391   7.247   5.938
97971SOL    HW295811   2.264   7.180   5.890
97972SOL     OW95812   0.260   1.805   5.041
97972SOL    HW195813   0.330   1.858   5.079
97972SOL    HW295814   0.275   1.808   4.947
97973SOL     OW95815  11.904   5.744   7.050
97973SOL    HW195816  11.862   5.732   6.964
97973SOL    HW295817  11.858   5.819   7.089
97974SOL     OW95818   9.474   9.045   5.918
97974SOL    HW195819   9.555   9.084   5.885
97974SOL    HW295820   9.502   8.997   5.997
97975SOL     OW95821  11.175   4.117   6.732
97975SOL    HW195822  11.223   4.116   6.649
97975SOL    HW295823  11.102   4.056   6.717
97976SOL     OW95824   1.024  14.200  10.439
97976SOL    HW195825   0.962  14.270  10.459
97976SOL    HW295826   1.010  14.135  10.508
97977SOL     OW95827  11.307   8.330   3.927
97977SOL    HW195828  11.279   8.417   3.898
97977SOL    HW295829  11.321   8.340   4.021
97978SOL     OW95830  12.816   9.860   5.847
97978SOL    HW195831  12.753   9.853   5.919
97978SOL    HW295832  12.764   9.842   5.769
97979SOL     OW95833   2.655   6.970  11.802
97979SOL    HW195834   2.576   7.008  11.765
97979SOL    HW295835   2.727   7.021  11.764
97980SOL     OW95836   5.705  13.784   0.301
97980SOL    HW195837   5.672  13.750   0.218
97980SOL    HW295838   5.783  13.833   0.277
97981SOL     OW95839   2.419  14.529   7.680
97981SOL    HW195840   2.492  14.503   7.624
97981SOL    HW295841   2.460  14.569   7.757
97982SOL     OW95842  11.818   7.237  14.250
97982SOL    HW195843  11.783   7.193  14.327
97982SOL    HW295844  11.765   7.202  14.177
97983SOL     OW95845   3.973  12.145   2.176
97983SOL    HW195846   4.000  12.065   2.131
97983SOL    HW295847   4.021  12.215   2.132
97984SOL     OW95848   0.739  13.997  13.773
97984SOL    HW195849   0.665  13.957  13.728
97984SOL    HW295850   0.702  14.032  13.854
97985SOL     OW95851  13.526  11.275   8.675
97985SOL    HW195852  13.488  11.339   8.615
97985SOL    HW295853  13.559  11.205   8.618
97986SOL     OW95854  13.907  13.934   1.873
97986SOL    HW195855  13.981  13.994   1.857
97986SOL    HW295856  13.835  13.991   1.900
97987SOL     OW95857   8.859  11.910   3.367
97987SOL    HW195858   8.791  11.905   3.299
97987SOL    HW295859   8.939  11.883   3.322
97988SOL     OW95860  13.481   2.390   8.606
97988SOL    HW195861  13.543   2.378   8.534
97988SOL    HW295862  13.438   2.473   8.587
97989SOL     OW95863  10.381  13.486   0.283
97989SOL    HW195864  10.317  13.457   0.348
97989SOL    HW295865  10.436  13.549   0.331
97990SOL     OW95866   1.557   9.381  14.374
97990SOL    HW195867   1.540   9.330  14.295
97990SOL    HW295868   1.502   9.459  14.364
97991SOL     OW95869  14.004  12.349   2.390
97991SOL    HW195870  14.085  12.329   2.435
97991SOL    HW295871  13.973  12.430   2.431
97992SOL     OW95872  13.705   6.822  14.390
97992SOL    HW195873  13.709   6.737  14.433
97992SOL    HW295874  13.745   6.882  14.453
97993SOL     OW95875   8.014  11.863   8.448
97993SOL    HW195876   8.020  11.954   8.417
97993SOL    HW295877   8.088  11.853   8.508
97994SOL     OW95878   3.771  10.558  11.792
97994SOL    HW195879   3.825  10.578  11.869
97994SOL    HW295880   3.821  10.590  11.718
97995SOL     OW95881   6.316   5.623   7.809
97995SOL    HW195882   6.271   5.585   7.885
97995SOL    HW295883   6.272   5.586   7.733
97996SOL     OW95884  13.130   3.955   0.321
97996SOL    HW195885  13.053   3.932   0.373
97996SOL    HW295886  13.099   3.953   0.230
97997SOL     OW95887   9.821   4.359  11.023
97997SOL    HW195888   9.805   4.282  10.969
97997SOL    HW295889   9.841   4.429  10.960
97998SOL     OW95890   9.621   6.768   9.872
97998SOL    HW195891   9.666   6.780   9.955
97998SOL    HW295892   9.656   6.686   9.837
97999SOL     OW95893  14.568   5.036  12.575
97999SOL    HW195894  14.497   4.975  12.595
97999SOL    HW295895  14.548   5.068  12.487
98000SOL     OW95896   2.953  13.199   3.833
98000SOL    HW195897   2.995  13.143   3.768
98000SOL    HW295898   3.024  13.224   3.893
98001SOL     OW95899  10.622   6.101  12.863
98001SOL    HW195900  10.668   6.124  12.944
98001SOL    HW295901  10.536   6.141  12.872
98002SOL     OW95902   0.449  13.784  11.095
98002SOL    HW195903   0.421  13.865  11.053
98002SOL    HW295904   0.402  13.783  11.179
98003SOL     OW95905  13.074   4.360   1.325
98003SOL    HW195906  13.041   4.298   1.260
98003SOL    HW295907  13.000   4.416   1.345
98004SOL     OW95908   2.366   7.468  14.240
98004SOL    HW195909   2.309   7.445  14.167
98004SOL    HW295910   2.453   7.474  14.202
98005SOL     OW95911   5.974   7.224   8.904
98005SOL    HW195912   5.894   7.269   8.930
98005SOL    HW295913   5.995   7.166   8.978
98006SOL     OW95914  10.941   5.587  13.409
98006SOL    HW195915  11.008   5.522  13.389
98006SOL    HW295916  10.920   5.626  13.324
98007SOL     OW95917   8.795   2.016   3.095
98007SOL    HW195918   8.827   2.021   3.186
98007SOL    HW295919   8.855   2.073   3.046
98008SOL     OW95920   2.334   6.140   8.267
98008SOL    HW195921   2.421   6.154   8.304
98008SOL    HW295922   2.274   6.169   8.335
98009SOL     OW95923   2.953   3.077   6.655
98009SOL    HW195924   3.025   3.133   6.683
98009SOL    HW295925   2.874   3.130   6.669
98010SOL     OW95926   6.855  10.132  14.412
98010SOL    HW195927   6.940  10.163  14.443
98010SOL    HW295928   6.795  10.147  14.485
98011SOL     OW95929   8.339  14.070  12.391
98011SOL    HW195930   8.254  14.068  12.435
98011SOL    HW295931   8.319  14.101  12.302
98012SOL     OW95932  10.838  11.809  13.918
98012SOL    HW195933  10.861  11.782  14.007
98012SOL    HW295934  10.758  11.861  13.929
98013SOL     OW95935   4.369   2.536   7.018
98013SOL    HW195936   4.428   2.496   7.082
98013SOL    HW295937   4.415   2.614   6.989
98014SOL     OW95938  11.496   2.532   7.949
98014SOL    HW195939  11.562   2.525   8.018
98014SOL    HW295940  11.418   2.563   7.995
98015SOL     OW95941  11.216   1.454  13.247
98015SOL    HW195942  11.255   1.373  13.213
98015SOL    HW295943  11.267   1.473  13.326
98016SOL     OW95944   7.906   7.883  13.029
98016SOL    HW195945   7.862   7.920  13.106
98016SOL    HW295946   7.844   7.898  12.957
98017SOL     OW95947   2.916   0.515   7.386
98017SOL    HW195948   2.978   0.474   7.325
98017SOL    HW295949   2.830   0.492   7.352
98018SOL     OW95950   5.867   3.388   4.957
98018SOL    HW195951   5.844   3.373   4.865
98018SOL    HW295952   5.812   3.326   5.006
98019SOL     OW95953   0.769   6.913   5.304
98019SOL    HW195954   0.799   6.937   5.392
98019SOL    HW295955   0.848   6.883   5.259
98020SOL     OW95956  11.850  14.525   8.873
98020SOL    HW195957  11.934  14.541   8.916
98020SOL    HW295958  11.786  14.530   8.944
98021SOL     OW95959   3.039   4.583   5.840
98021SOL    HW195960   3.129   4.614   5.854
98021SOL    HW295961   2.985   4.646   5.888
98022SOL     OW95962   6.360   1.081   0.751
98022SOL    HW195963   6.402   1.000   0.720
98022SOL    HW295964   6.353   1.069   0.846
98023SOL     OW95965  13.411   3.454  10.048
98023SOL    HW195966  13.386   3.526  10.104
98023SOL    HW295967  13.419   3.378  10.106
98024SOL     OW95968   7.871   7.846   1.633
98024SOL    HW195969   7.887   7.793   1.555
98024SOL    HW295970   7.957   7.883   1.654
98025SOL     OW95971   8.601  10.014   3.998
98025SOL    HW195972   8.521  10.044   3.955
98025SOL    HW295973   8.671  10.043   3.940
98026SOL     OW95974   0.998   0.537   9.458
98026SOL    HW195975   1.057   0.470   9.422
98026SOL    HW295976   1.045   0.619   9.447
98027SOL     OW95977   0.575   0.418  14.846
98027SOL    HW195978   0.625   0.469  14.782
98027SOL    HW295979   0.562   0.478   0.037
98028SOL     OW95980  11.575   1.058   8.954
98028SOL    HW195981  11.525   1.115   9.013
98028SOL    HW295982  11.519   0.981   8.943
98029SOL     OW95983   3.456   1.948  10.019
98029SOL    HW195984   3.402   2.009   9.969
98029SOL    HW295985   3.438   1.863   9.980
98030SOL     OW95986  12.695  12.828   4.487
98030SOL    HW195987  12.661  12.898   4.431
98030SOL    HW295988  12.669  12.747   4.443
98031SOL     OW95989   0.977   3.661  10.597
98031SOL    HW195990   0.918   3.597  10.636
98031SOL    HW295991   1.052   3.664  10.657
98032SOL     OW95992  13.946   8.272   0.647
98032SOL    HW195993  13.983   8.355   0.617
98032SOL    HW295994  13.898   8.239   0.572
98033SOL     OW95995   5.809  11.777   7.039
98033SOL    HW195996   5.812  11.756   7.132
98033SOL    HW295997   5.725  11.743   7.009
98034SOL     OW95998   8.323  10.413  13.640
98034SOL    HW195999   8.282  10.466  13.572
98034SOL    HW296000   8.343  10.330  13.598
98035SOL     OW96001   3.895  11.593   1.810
98035SOL    HW196002   3.810  11.560   1.783
98035SOL    HW296003   3.893  11.686   1.786
98036SOL     OW96004  10.595   1.809  11.236
98036SOL    HW196005  10.690   1.803  11.242
98036SOL    HW296006  10.564   1.805  11.327
98037SOL     OW96007  11.204  13.636   6.470
98037SOL    HW196008  11.197  13.546   6.503
98037SOL    HW296009  11.298  13.655   6.474
98038SOL     OW96010   2.497  14.257  10.134
98038SOL    HW196011   2.538  14.324  10.188
98038SOL    HW296012   2.565  14.190  10.123
98039SOL     OW96013   3.502   4.815   0.923
98039SOL    HW196014   3.519   4.722   0.909
98039SOL    HW296015   3.556   4.838   0.999
98040SOL     OW96016   3.674  11.897   0.467
98040SOL    HW196017   3.608  11.961   0.496
98040SOL    HW296018   3.720  11.871   0.547
98041SOL     OW96019  12.797   7.157   0.869
98041SOL    HW196020  12.836   7.229   0.919
98041SOL    HW296021  12.755   7.101   0.934
98042SOL     OW96022   4.815   0.979  10.463
98042SOL    HW196023   4.834   0.926  10.540
98042SOL    HW296024   4.745   0.931  10.418
98043SOL     OW96025  14.704   3.210   9.876
98043SOL    HW196026  14.612   3.220   9.901
98043SOL    HW296027  14.752   3.260   9.942
98044SOL     OW96028  12.653  13.517   2.577
98044SOL    HW196029  12.570  13.474   2.595
98044SOL    HW296030  12.719  13.459   2.615
98045SOL     OW96031  11.650  13.229  13.386
98045SOL    HW196032  11.582  13.196  13.444
98045SOL    HW296033  11.605  13.247  13.304
98046SOL     OW96034   7.441   5.408  10.895
98046SOL    HW196035   7.398   5.322  10.896
98046SOL    HW296036   7.422   5.445  10.981
98047SOL     OW96037  10.098  10.821   2.452
98047SOL    HW196038  10.193  10.824   2.438
98047SOL    HW296039  10.060  10.833   2.365
98048SOL     OW96040  13.221  14.544  11.192
98048SOL    HW196041  13.162  14.543  11.268
98048SOL    HW296042  13.208  14.459  11.151
98049SOL     OW96043  10.096  13.712  14.468
98049SOL    HW196044  10.024  13.754  14.421
98049SOL    HW296045  10.096  13.754  14.554
98050SOL     OW96046   1.723   3.839  13.517
98050SOL    HW196047   1.814   3.861  13.535
98050SOL    HW296048   1.727   3.782  13.440
98051SOL     OW96049   5.670   7.472   4.688
98051SOL    HW196050   5.741   7.432   4.739
98051SOL    HW296051   5.628   7.533   4.750
98052SOL     OW96052   8.528   0.461   4.170
98052SOL    HW196053   8.544   0.372   4.140
98052SOL    HW296054   8.443   0.457   4.214
98053SOL     OW96055   2.034   2.975   7.496
98053SOL    HW196056   1.961   3.027   7.461
98053SOL    HW296057   2.013   2.885   7.470
98054SOL     OW96058   0.677   4.460   5.131
98054SOL    HW196059   0.630   4.379   5.149
98054SOL    HW296060   0.670   4.511   5.211
98055SOL     OW96061   3.634   2.543   9.225
98055SOL    HW196062   3.677   2.536   9.140
98055SOL    HW296063   3.583   2.624   9.218
98056SOL     OW96064  11.689   7.660   9.574
98056SOL    HW196065  11.776   7.667   9.615
98056SOL    HW296066  11.686   7.734   9.514
98057SOL     OW96067   6.525   8.877  10.930
98057SOL    HW196068   6.453   8.926  10.970
98057SOL    HW296069   6.527   8.794  10.979
98058SOL     OW96070   1.003   8.751   4.327
98058SOL    HW196071   1.075   8.800   4.367
98058SOL    HW296072   0.924   8.795   4.357
98059SOL     OW96073   1.494   7.155  12.091
98059SOL    HW196074   1.574   7.150  12.038
98059SOL    HW296075   1.503   7.236  12.141
98060SOL     OW96076  11.442   1.346   9.074
98060SOL    HW196077  11.388   1.267   9.081
98060SOL    HW296078  11.394   1.413   9.123
98061SOL     OW96079  12.099   5.158   0.354
98061SOL    HW196080  12.111   5.121   0.442
98061SOL    HW296081  12.145   5.096   0.297
98062SOL     OW96082   4.248   6.195  12.023
98062SOL    HW196083   4.178   6.175  11.962
98062SOL    HW296084   4.207   6.248  12.091
98063SOL     OW96085   8.419   4.087   9.570
98063SOL    HW196086   8.409   4.057   9.660
98063SOL    HW296087   8.363   4.027   9.519
98064SOL     OW96088   0.393   6.084   5.677
98064SOL    HW196089   0.427   5.995   5.683
98064SOL    HW296090   0.421   6.126   5.759
98065SOL     OW96091   5.240   7.214   1.143
98065SOL    HW196092   5.306   7.152   1.113
98065SOL    HW296093   5.225   7.272   1.068
98066SOL     OW96094   0.894  13.850   4.742
98066SOL    HW196095   0.911  13.758   4.719
98066SOL    HW296096   0.886  13.894   4.657
98067SOL     OW96097   6.082  13.014   5.189
98067SOL    HW196098   6.161  13.021   5.136
98067SOL    HW296099   6.069  12.920   5.201
98068SOL     OW96100   8.950   9.617  14.163
98068SOL    HW196101   9.037   9.582  14.185
98068SOL    HW296102   8.959   9.646  14.072
98069SOL     OW96103   8.644  12.072   2.657
98069SOL    HW196104   8.556  12.043   2.632
98069SOL    HW296105   8.665  12.143   2.596
98070SOL     OW96106   5.420   6.791   0.615
98070SOL    HW196107   5.334   6.750   0.622
98070SOL    HW296108   5.454   6.762   0.531
98071SOL     OW96109  11.140   6.066   0.669
98071SOL    HW196110  11.217   6.119   0.690
98071SOL    HW296111  11.168   5.976   0.687
98072SOL     OW96112  11.678   6.771  10.716
98072SOL    HW196113  11.652   6.766  10.808
98072SOL    HW296114  11.650   6.858  10.687
98073SOL     OW96115   8.695  11.576   0.708
98073SOL    HW196116   8.706  11.484   0.685
98073SOL    HW296117   8.624  11.606   0.651
98074SOL     OW96118   3.255   8.749   8.221
98074SOL    HW196119   3.196   8.816   8.187
98074SOL    HW296120   3.267   8.688   8.149
98075SOL     OW96121  11.784  10.692   4.462
98075SOL    HW196122  11.766  10.600   4.480
98075SOL    HW296123  11.779  10.735   4.547
98076SOL     OW96124   3.028   1.055   3.179
98076SOL    HW196125   2.974   1.028   3.253
98076SOL    HW296126   3.114   1.019   3.197
98077SOL     OW96127  13.621   0.602  14.517
98077SOL    HW196128  13.580   0.632  14.435
98077SOL    HW296129  13.699   0.656  14.526
98078SOL     OW96130   3.235  12.076   6.673
98078SOL    HW196131   3.218  12.143   6.606
98078SOL    HW296132   3.295  12.119   6.734
98079SOL     OW96133  12.300   1.551   1.185
98079SOL    HW196134  12.215   1.532   1.224
98079SOL    HW296135  12.328   1.633   1.226
98080SOL     OW96136   1.550   5.762   7.951
98080SOL    HW196137   1.554   5.852   7.985
98080SOL    HW296138   1.456   5.745   7.942
98081SOL     OW96139   8.847   3.740  11.194
98081SOL    HW196140   8.856   3.828  11.229
98081SOL    HW296141   8.911   3.735  11.124
98082SOL     OW96142   6.575   9.827   6.282
98082SOL    HW196143   6.601   9.741   6.251
98082SOL    HW296144   6.590   9.886   6.208
98083SOL     OW96145   8.305  11.976  13.638
98083SOL    HW196146   8.378  11.998  13.581
98083SOL    HW296147   8.293  12.053  13.694
98084SOL     OW96148   1.128   9.303   0.604
98084SOL    HW196149   1.078   9.384   0.611
98084SOL    HW296150   1.156   9.300   0.512
98085SOL     OW96151   5.032   3.066   7.029
98085SOL    HW196152   5.036   3.094   7.121
98085SOL    HW296153   4.949   3.101   6.998
98086SOL     OW96154   1.678   3.750   6.137
98086SOL    HW196155   1.597   3.712   6.172
98086SOL    HW296156   1.664   3.751   6.042
98087SOL     OW96157   5.697   7.912   1.345
98087SOL    HW196158   5.759   7.970   1.301
98087SOL    HW296159   5.679   7.843   1.281
98088SOL     OW96160   3.604  10.300   6.020
98088SOL    HW196161   3.613  10.216   6.065
98088SOL    HW296162   3.662  10.359   6.069
98089SOL     OW96163   6.215   4.521   1.164
98089SOL    HW196164   6.135   4.476   1.137
98089SOL    HW296165   6.279   4.499   1.095
98090SOL     OW96166   9.864   1.822   1.707
98090SOL    HW196167   9.774   1.850   1.723
98090SOL    HW296168   9.857   1.756   1.638
98091SOL     OW96169   7.224   8.004   6.828
98091SOL    HW196170   7.302   7.969   6.871
98091SOL    HW296171   7.229   8.099   6.844
98092SOL     OW96172   7.815  13.560   7.949
98092SOL    HW196173   7.891  13.516   7.911
98092SOL    HW296174   7.833  13.654   7.938
98093SOL     OW96175  10.613  12.650   0.593
98093SOL    HW196176  10.690  12.653   0.650
98093SOL    HW296177  10.538  12.657   0.652
98094SOL     OW96178   1.306   8.210   2.457
98094SOL    HW196179   1.368   8.234   2.526
98094SOL    HW296180   1.356   8.224   2.375
98095SOL     OW96181   6.967  12.359   2.208
98095SOL    HW196182   6.938  12.269   2.199
98095SOL    HW296183   6.914  12.396   2.279
98096SOL     OW96184   8.212   3.936   9.468
98096SOL    HW196185   8.170   3.858   9.505
98096SOL    HW296186   8.246   3.906   9.383
98097SOL     OW96187  10.186   3.386   3.477
98097SOL    HW196188  10.195   3.321   3.547
98097SOL    HW296189  10.205   3.338   3.397
98098SOL     OW96190   9.146   5.066   0.934
98098SOL    HW196191   9.071   5.007   0.927
98098SOL    HW296192   9.160   5.077   1.028
98099SOL     OW96193   6.168  10.459   0.811
98099SOL    HW196194   6.220  10.432   0.736
98099SOL    HW296195   6.105  10.522   0.777
98100SOL     OW96196   9.485  13.954   9.494
98100SOL    HW196197   9.413  13.958   9.556
98100SOL    HW296198   9.465  14.022   9.430
98101SOL     OW96199   0.261   6.907   1.672
98101SOL    HW196200   0.333   6.965   1.647
98101SOL    HW296201   0.267   6.901   1.767
98102SOL     OW96202   8.401   5.308  13.346
98102SOL    HW196203   8.471   5.366  13.317
98102SOL    HW296204   8.339   5.306  13.273
98103SOL     OW96205   2.611  14.371  10.696
98103SOL    HW196206   2.669  14.403  10.766
98103SOL    HW296207   2.602  14.278  10.713
98104SOL     OW96208   1.578   9.516   7.529
98104SOL    HW196209   1.591   9.492   7.438
98104SOL    HW296210   1.602   9.437   7.578
98105SOL     OW96211   1.718   6.346   8.932
98105SOL    HW196212   1.800   6.332   8.980
98105SOL    HW296213   1.651   6.355   9.000
98106SOL     OW96214   2.104  13.631   2.225
98106SOL    HW196215   2.121  13.624   2.319
98106SOL    HW296216   2.020  13.585   2.212
98107SOL     OW96217  11.715  11.030   4.123
98107SOL    HW196218  11.674  10.952   4.160
98107SOL    HW296219  11.704  11.098   4.190
98108SOL     OW96220   8.380  10.425   1.491
98108SOL    HW196221   8.438  10.359   1.530
98108SOL    HW296222   8.335  10.378   1.420
98109SOL     OW96223   3.213  11.690   7.926
98109SOL    HW196224   3.272  11.764   7.913
98109SOL    HW296225   3.197  11.687   8.020
98110SOL     OW96226   8.591   0.209   9.377
98110SOL    HW196227   8.610   0.251   9.293
98110SOL    HW296228   8.602   0.115   9.359
98111SOL     OW96229   4.342  10.424   1.925
98111SOL    HW196230   4.302  10.337   1.927
98111SOL    HW296231   4.383  10.430   1.839
98112SOL     OW96232  14.444   9.313   2.816
98112SOL    HW196233  14.396   9.307   2.733
98112SOL    HW296234  14.440   9.405   2.839
98113SOL     OW96235   1.690   1.674   7.890
98113SOL    HW196236   1.777   1.633   7.892
98113SOL    HW296237   1.670   1.694   7.981
98114SOL     OW96238  11.588   0.642   3.057
98114SOL    HW196239  11.676   0.675   3.043
98114SOL    HW296240  11.568   0.591   2.979
98115SOL     OW96241   5.089  14.411   4.035
98115SOL    HW196242   5.125  14.366   3.958
98115SOL    HW296243   5.152  14.393   4.105
98116SOL     OW96244   4.495  13.865   7.097
98116SOL    HW196245   4.474  13.786   7.145
98116SOL    HW296246   4.420  13.923   7.110
98117SOL     OW96247   9.724   9.717  12.381
98117SOL    HW196248   9.740   9.641  12.436
98117SOL    HW296249   9.784   9.784  12.414
98118SOL     OW96250   7.282   6.145  11.128
98118SOL    HW196251   7.330   6.163  11.047
98118SOL    HW296252   7.225   6.072  11.106
98119SOL     OW96253  13.370  10.415  12.568
98119SOL    HW196254  13.322  10.449  12.644
98119SOL    HW296255  13.304  10.412  12.499
98120SOL     OW96256   8.640   7.027   5.004
98120SOL    HW196257   8.683   6.942   5.013
98120SOL    HW296258   8.641   7.065   5.092
98121SOL     OW96259  13.397   3.359  12.651
98121SOL    HW196260  13.367   3.268  12.640
98121SOL    HW296261  13.422   3.364  12.743
98122SOL     OW96262  10.573  11.497  10.090
98122SOL    HW196263  10.605  11.576  10.046
98122SOL    HW296264  10.519  11.530  10.161
98123SOL     OW96265   4.617   2.413   0.213
98123SOL    HW196266   4.533   2.374   0.188
98123SOL    HW296267   4.654   2.351   0.275
98124SOL     OW96268  10.673   9.004   9.579
98124SOL    HW196269  10.752   9.056   9.564
98124SOL    HW296270  10.625   9.007   9.495
98125SOL     OW96271   0.467  10.268   0.248
98125SOL    HW196272   0.445  10.257   0.155
98125SOL    HW296273   0.496  10.360   0.254
98126SOL     OW96274   5.332   4.451   3.274
98126SOL    HW196275   5.293   4.484   3.355
98126SOL    HW296276   5.271   4.475   3.205
98127SOL     OW96277  14.251  12.368   6.729
98127SOL    HW196278  14.222  12.451   6.690
98127SOL    HW296279  14.236  12.379   6.823
98128SOL     OW96280  11.487   2.964  13.675
98128SOL    HW196281  11.534   2.886  13.646
98128SOL    HW296282  11.455   3.005  13.595
98129SOL     OW96283  10.345   5.420   6.921
98129SOL    HW196284  10.335   5.334   6.961
98129SOL    HW296285  10.270   5.470   6.952
98130SOL     OW96286  14.140  11.448  14.393
98130SOL    HW196287  14.233  11.460  14.410
98130SOL    HW296288  14.105  11.537  14.386
98131SOL     OW96289   0.791   1.687  14.523
98131SOL    HW196290   0.744   1.763  14.559
98131SOL    HW296291   0.778   1.618  14.588
98132SOL     OW96292   3.905  13.601   1.084
98132SOL    HW196293   3.935  13.511   1.093
98132SOL    HW296294   3.865  13.621   1.169
98133SOL     OW96295   5.283   6.338  13.336
98133SOL    HW196296   5.301   6.275  13.267
98133SOL    HW296297   5.204   6.305  13.379
98134SOL     OW96298   3.564   9.547   8.308
98134SOL    HW196299   3.539   9.465   8.265
98134SOL    HW296300   3.630   9.521   8.372
98135SOL     OW96301  10.316   5.741   9.374
98135SOL    HW196302  10.399   5.715   9.414
98135SOL    HW296303  10.335   5.826   9.333
98136SOL     OW96304  10.794   5.845   0.176
98136SOL    HW196305  10.846   5.922   0.199
98136SOL    HW296306  10.833   5.812   0.095
98137SOL     OW96307   0.816  13.775   2.798
98137SOL    HW196308   0.854  13.753   2.713
98137SOL    HW296309   0.892  13.790   2.855
98138SOL     OW96310  12.589  10.673   2.129
98138SOL    HW196311  12.669  10.684   2.181
98138SOL    HW296312  12.594  10.742   2.063
98139SOL     OW96313   6.682  10.842   8.287
98139SOL    HW196314   6.661  10.852   8.194
98139SOL    HW296315   6.674  10.748   8.303
98140SOL     OW96316   1.312   0.255   3.601
98140SOL    HW196317   1.327   0.260   3.696
98140SOL    HW296318   1.388   0.208   3.567
98141SOL     OW96319   4.207   7.646   8.422
98141SOL    HW196320   4.194   7.721   8.480
98141SOL    HW296321   4.197   7.683   8.334
98142SOL     OW96322  12.450   1.875  12.256
98142SOL    HW196323  12.488   1.877  12.168
98142SOL    HW296324  12.425   1.783  12.269
98143SOL     OW96325   6.545   0.496   4.005
98143SOL    HW196326   6.539   0.539   4.090
98143SOL    HW296327   6.596   0.417   4.021
98144SOL     OW96328   7.331   5.477   1.260
98144SOL    HW196329   7.324   5.401   1.319
98144SOL    HW296330   7.360   5.440   1.177
98145SOL     OW96331   7.162   2.648   7.545
98145SOL    HW196332   7.131   2.565   7.509
98145SOL    HW296333   7.127   2.650   7.634
98146SOL     OW96334  12.804   6.288   8.368
98146SOL    HW196335  12.824   6.342   8.445
98146SOL    HW296336  12.873   6.221   8.367
98147SOL     OW96337   6.312  13.540   7.261
98147SOL    HW196338   6.318  13.497   7.346
98147SOL    HW296339   6.389  13.510   7.213
98148SOL     OW96340   6.153  14.101  10.552
98148SOL    HW196341   6.058  14.102  10.563
98148SOL    HW296342   6.188  14.125  10.638
98149SOL     OW96343  13.031   7.705  10.822
98149SOL    HW196344  12.942   7.733  10.800
98149SOL    HW296345  13.071   7.688  10.737
98150SOL     OW96346   1.052  10.584  14.609
98150SOL    HW196347   1.061  10.648  14.538
98150SOL    HW296348   0.977  10.531  14.585
98151SOL     OW96349  11.290   6.613  14.577
98151SOL    HW196350  11.265   6.651  14.493
98151SOL    HW296351  11.265   6.521  14.570
98152SOL     OW96352  14.774   5.036  13.522
98152SOL    HW196353  14.868   5.023  13.535
98152SOL    HW296354  14.769   5.110  13.461
98153SOL     OW96355  11.416   6.466  12.552
98153SOL    HW196356  11.452   6.378  12.549
98153SOL    HW296357  11.323   6.455  12.529
98154SOL     OW96358   2.822   4.942   5.425
98154SOL    HW196359   2.823   4.950   5.330
98154SOL    HW296360   2.884   5.008   5.455
98155SOL     OW96361   1.201   8.041  14.111
98155SOL    HW196362   1.167   8.130  14.104
98155SOL    HW296363   1.292   8.047  14.083
98156SOL     OW96364   5.835   9.638   0.977
98156SOL    HW196365   5.752   9.592   0.989
98156SOL    HW296366   5.902   9.576   1.006
98157SOL     OW96367   4.359   4.796  11.485
98157SOL    HW196368   4.302   4.800  11.562
98157SOL    HW296369   4.447   4.812  11.519
98158SOL     OW96370   6.751   1.805  10.830
98158SOL    HW196371   6.774   1.722  10.871
98158SOL    HW296372   6.813   1.868  10.866
98159SOL     OW96373  14.317   4.416   9.858
98159SOL    HW196374  14.234   4.370   9.842
98159SOL    HW296375  14.305   4.459   9.942
98160SOL     OW96376   3.204   3.357   8.268
98160SOL    HW196377   3.169   3.268   8.259
98160SOL    HW296378   3.267   3.350   8.340
98161SOL     OW96379   4.001   1.324   2.401
98161SOL    HW196380   4.095   1.325   2.382
98161SOL    HW296381   3.971   1.241   2.364
98162SOL     OW96382   7.871   6.825   1.229
98162SOL    HW196383   7.961   6.822   1.196
98162SOL    HW296384   7.870   6.899   1.290
98163SOL     OW96385   8.750   3.994  11.632
98163SOL    HW196386   8.731   4.087  11.641
98163SOL    HW296387   8.705   3.953  11.706
98164SOL     OW96388   7.338   3.312   3.344
98164SOL    HW196389   7.341   3.400   3.306
98164SOL    HW296390   7.419   3.304   3.394
98165SOL     OW96391  11.129   6.884   2.194
98165SOL    HW196392  11.186   6.961   2.198
98165SOL    HW296393  11.079   6.888   2.276
98166SOL     OW96394  10.072  13.269   4.781
98166SOL    HW196395  10.154  13.251   4.736
98166SOL    HW296396  10.004  13.236   4.722
98167SOL     OW96397  11.477  11.971  10.666
98167SOL    HW196398  11.561  12.007  10.639
98167SOL    HW296399  11.420  11.982  10.590
98168SOL     OW96400  13.846   7.927   7.906
98168SOL    HW196401  13.840   7.832   7.909
98168SOL    HW296402  13.872   7.952   7.995
98169SOL     OW96403   0.780  14.879   5.691
98169SOL    HW196404   0.697   0.038   5.669
98169SOL    HW296405   0.756  14.793   5.725
98170SOL     OW96406   8.593   5.513   7.874
98170SOL    HW196407   8.500   5.504   7.891
98170SOL    HW296408   8.601   5.516   7.778
98171SOL     OW96409   9.137   9.364  13.035
98171SOL    HW196410   9.141   9.344  12.941
98171SOL    HW296411   9.227   9.354  13.066
98172SOL     OW96412   7.684   7.807   7.488
98172SOL    HW196413   7.687   7.806   7.583
98172SOL    HW296414   7.630   7.731   7.465
98173SOL     OW96415   9.685  10.444  11.289
98173SOL    HW196416   9.608  10.388  11.297
98173SOL    HW296417   9.672  10.491  11.206
98174SOL     OW96418  10.648   3.051  10.972
98174SOL    HW196419  10.624   3.078  10.883
98174SOL    HW296420  10.661   3.133  11.019
98175SOL     OW96421   6.798   5.419  14.320
98175SOL    HW196422   6.859   5.394  14.390
98175SOL    HW296423   6.790   5.514  14.329
98176SOL     OW96424  11.021   0.965   0.512
98176SOL    HW196425  11.062   1.019   0.580
98176SOL    HW296426  10.972   0.899   0.561
98177SOL     OW96427  11.376   2.777  11.345
98177SOL    HW196428  11.288   2.812  11.362
98177SOL    HW296429  11.367   2.683  11.356
98178SOL     OW96430   9.333   6.428  11.608
98178SOL    HW196431   9.238   6.431  11.601
98178SOL    HW296432   9.357   6.343  11.571
98179SOL     OW96433  11.452   9.487  12.176
98179SOL    HW196434  11.374   9.539  12.156
98179SOL    HW296435  11.424   9.428  12.246
98180SOL     OW96436  14.063   8.465   0.246
98180SOL    HW196437  14.024   8.535   0.299
98180SOL    HW296438  14.151   8.455   0.281
98181SOL     OW96439   0.367   7.215  11.073
98181SOL    HW196440   0.408   7.155  11.135
98181SOL    HW296441   0.329   7.157  11.006
98182SOL     OW96442   0.322   4.276   6.542
98182SOL    HW196443   0.312   4.222   6.463
98182SOL    HW296444   0.416   4.285   6.553
98183SOL     OW96445  12.412   5.186   1.585
98183SOL    HW196446  12.483   5.215   1.642
98183SOL    HW296447  12.333   5.223   1.624
98184SOL     OW96448   2.012   2.152   3.061
98184SOL    HW196449   1.959   2.124   2.986
98184SOL    HW296450   1.948   2.178   3.128
98185SOL     OW96451   6.958   0.362  13.691
98185SOL    HW196452   7.014   0.439  13.702
98185SOL    HW296453   6.994   0.318  13.614
98186SOL     OW96454  14.120   9.478   2.762
98186SOL    HW196455  14.098   9.546   2.697
98186SOL    HW296456  14.046   9.418   2.760
98187SOL     OW96457   7.133   2.646   6.496
98187SOL    HW196458   7.101   2.625   6.409
98187SOL    HW296459   7.055   2.649   6.551
98188SOL     OW96460   1.092   7.501  10.758
98188SOL    HW196461   1.058   7.547  10.682
98188SOL    HW296462   1.077   7.561  10.831
98189SOL     OW96463   1.012   8.479   7.307
98189SOL    HW196464   0.973   8.392   7.299
98189SOL    HW296465   1.068   8.473   7.384
98190SOL     OW96466  12.737  10.594  10.635
98190SOL    HW196467  12.642  10.599  10.652
98190SOL    HW296468  12.777  10.610  10.720
98191SOL     OW96469   1.252   8.768   9.295
98191SOL    HW196470   1.326   8.821   9.325
98191SOL    HW296471   1.291   8.700   9.240
98192SOL     OW96472  11.519   8.499   3.159
98192SOL    HW196473  11.459   8.483   3.086
98192SOL    HW296474  11.594   8.542   3.119
98193SOL     OW96475   9.149   4.999  11.304
98193SOL    HW196476   9.190   5.084  11.284
98193SOL    HW296477   9.173   4.943  11.230
98194SOL     OW96478   2.380   4.501   2.520
98194SOL    HW196479   2.443   4.531   2.586
98194SOL    HW296480   2.414   4.416   2.492
98195SOL     OW96481   4.772   2.917   1.100
98195SOL    HW196482   4.781   2.905   1.005
98195SOL    HW296483   4.860   2.942   1.129
98196SOL     OW96484   7.735   4.103   2.347
98196SOL    HW196485   7.809   4.121   2.289
98196SOL    HW296486   7.776   4.076   2.430
98197SOL     OW96487   7.733   7.155  10.653
98197SOL    HW196488   7.741   7.082  10.591
98197SOL    HW296489   7.699   7.227  10.600
98198SOL     OW96490   9.538  14.127  10.106
98198SOL    HW196491   9.498  14.094  10.186
98198SOL    HW296492   9.560  14.218  10.125
98199SOL     OW96493   7.971  10.074  13.796
98199SOL    HW196494   7.906  10.096  13.728
98199SOL    HW296495   7.921  10.026  13.862
98200SOL     OW96496  12.562  10.650   5.497
98200SOL    HW196497  12.627  10.599   5.448
98200SOL    HW296498  12.499  10.585   5.528
98201SOL     OW96499  12.199   5.524  14.253
98201SOL    HW196500  12.189   5.502  14.161
98201SOL    HW296501  12.239   5.446  14.292
98202SOL     OW96502  11.194  11.157   1.273
98202SOL    HW196503  11.260  11.226   1.278
98202SOL    HW296504  11.111  11.203   1.267
98203SOL     OW96505   5.540   7.346  11.461
98203SOL    HW196506   5.509   7.381  11.545
98203SOL    HW296507   5.615   7.401  11.439
98204SOL     OW96508   5.483   5.474   6.963
98204SOL    HW196509   5.481   5.530   6.884
98204SOL    HW296510   5.434   5.396   6.938
98205SOL     OW96511   2.543  10.239   3.855
98205SOL    HW196512   2.634  10.226   3.881
98205SOL    HW296513   2.491  10.209   3.930
98206SOL     OW96514  14.630  14.850  12.626
98206SOL    HW196515  14.629  14.817  12.536
98206SOL    HW296516  14.569   0.041  12.625
98207SOL     OW96517  11.212   8.364   3.550
98207SOL    HW196518  11.231   8.341   3.459
98207SOL    HW296519  11.159   8.444   3.544
98208SOL     OW96520  10.808  14.755   9.521
98208SOL    HW196521  10.851  14.695   9.460
98208SOL    HW296522  10.856  14.837   9.512
98209SOL     OW96523  12.695   6.128   4.699
98209SOL    HW196524  12.726   6.099   4.784
98209SOL    HW296525  12.599   6.127   4.707
98210SOL     OW96526   8.724   7.122  13.744
98210SOL    HW196527   8.682   7.046  13.785
98210SOL    HW296528   8.721   7.190  13.812
98211SOL     OW96529  13.097  13.181   1.175
98211SOL    HW196530  13.101  13.248   1.107
98211SOL    HW296531  13.027  13.210   1.234
98212SOL     OW96532  11.823  12.861  14.112
98212SOL    HW196533  11.823  12.903  14.025
98212SOL    HW296534  11.912  12.827  14.122
98213SOL     OW96535   9.160   4.654   7.316
98213SOL    HW196536   9.101   4.670   7.390
98213SOL    HW296537   9.151   4.732   7.261
98214SOL     OW96538   0.539   9.216   4.293
98214SOL    HW196539   0.557   9.124   4.277
98214SOL    HW296540   0.536   9.224   4.388
98215SOL     OW96541  10.069   4.053   6.790
98215SOL    HW196542   9.978   4.083   6.786
98215SOL    HW296543  10.082   4.003   6.710
98216SOL     OW96544   6.224   8.100   2.388
98216SOL    HW196545   6.134   8.073   2.371
98216SOL    HW296546   6.223   8.195   2.379
98217SOL     OW96547   4.462   7.153   9.549
98217SOL    HW196548   4.454   7.219   9.480
98217SOL    HW296549   4.546   7.111   9.534
98218SOL     OW96550   5.446   9.048  13.813
98218SOL    HW196551   5.498   8.992  13.871
98218SOL    HW296552   5.458   9.136  13.848
98219SOL     OW96553   1.174   4.192  12.959
98219SOL    HW196554   1.218   4.131  13.018
98219SOL    HW296555   1.081   4.180  12.977
98220SOL     OW96556   7.934  11.809   2.409
98220SOL    HW196557   7.958  11.717   2.395
98220SOL    HW296558   7.864  11.806   2.474
98221SOL     OW96559  10.368   2.767  10.711
98221SOL    HW196560  10.378   2.688  10.763
98221SOL    HW296561  10.308   2.741  10.640
98222SOL     OW96562   5.593   2.249   8.722
98222SOL    HW196563   5.525   2.300   8.765
98222SOL    HW296564   5.563   2.239   8.632
98223SOL     OW96565   6.211   4.123   1.051
98223SOL    HW196566   6.244   4.040   1.018
98223SOL    HW296567   6.212   4.114   1.146
98224SOL     OW96568  12.179   8.290   6.902
98224SOL    HW196569  12.208   8.199   6.889
98224SOL    HW296570  12.084   8.286   6.895
98225SOL     OW96571   6.081   8.743  13.033
98225SOL    HW196572   6.165   8.706  13.060
98225SOL    HW296573   6.103   8.804  12.963
98226SOL     OW96574   6.395  12.475   5.835
98226SOL    HW196575   6.407  12.542   5.767
98226SOL    HW296576   6.387  12.393   5.787
98227SOL     OW96577   3.237  12.513   8.115
98227SOL    HW196578   3.226  12.494   8.022
98227SOL    HW296579   3.210  12.605   8.124
98228SOL     OW96580  11.244  11.006   5.025
98228SOL    HW196581  11.280  10.951   5.094
98228SOL    HW296582  11.216  10.944   4.957
98229SOL     OW96583   3.717   9.526  14.141
98229SOL    HW196584   3.723   9.583  14.217
98229SOL    HW296585   3.807   9.500  14.123
98230SOL     OW96586   9.841  12.330  12.650
98230SOL    HW196587   9.815  12.291  12.567
98230SOL    HW296588   9.929  12.296  12.667
98231SOL     OW96589   3.246  11.565   8.414
98231SOL    HW196590   3.272  11.473   8.413
98231SOL    HW296591   3.307  11.608   8.474
98232SOL     OW96592   6.276   9.349   2.317
98232SOL    HW196593   6.231   9.426   2.353
98232SOL    HW296594   6.213   9.311   2.256
98233SOL     OW96595   4.321  10.814   8.516
98233SOL    HW196596   4.346  10.906   8.507
98233SOL    HW296597   4.391  10.776   8.569
98234SOL     OW96598  11.589   4.161  13.203
98234SOL    HW196599  11.682   4.156  13.222
98234SOL    HW296600  11.576   4.248  13.165
98235SOL     OW96601  12.606   9.500   5.358
98235SOL    HW196602  12.628   9.444   5.284
98235SOL    HW296603  12.518   9.472   5.383
98236SOL     OW96604   3.801   4.378   7.473
98236SOL    HW196605   3.768   4.417   7.391
98236SOL    HW296606   3.786   4.446   7.539
98237SOL     OW96607  10.272   4.743  14.387
98237SOL    HW196608  10.219   4.671  14.354
98237SOL    HW296609  10.252   4.746  14.481
98238SOL     OW96610   6.464   2.103  14.179
98238SOL    HW196611   6.544   2.085  14.130
98238SOL    HW296612   6.462   2.035  14.246
98239SOL     OW96613  14.035  11.048   9.770
98239SOL    HW196614  13.998  10.963   9.746
98239SOL    HW296615  14.126  11.029   9.792
98240SOL     OW96616  14.409  10.862   9.280
98240SOL    HW196617  14.331  10.874   9.227
98240SOL    HW296618  14.470  10.814   9.224
98241SOL     OW96619   6.777   7.741  11.767
98241SOL    HW196620   6.701   7.746  11.710
98241SOL    HW296621   6.761   7.664  11.821
98242SOL     OW96622  12.761   2.297   8.660
98242SOL    HW196623  12.841   2.327   8.616
98242SOL    HW296624  12.690   2.346   8.618
98243SOL     OW96625  11.309  10.895  10.757
98243SOL    HW196626  11.284  10.819  10.809
98243SOL    HW296627  11.364  10.859  10.687
98244SOL     OW96628   7.210   9.363   0.463
98244SOL    HW196629   7.264   9.294   0.501
98244SOL    HW296630   7.137   9.316   0.421
98245SOL     OW96631   8.363   4.148   3.759
98245SOL    HW196632   8.299   4.086   3.724
98245SOL    HW296633   8.417   4.172   3.684
98246SOL     OW96634   8.225  12.310  13.489
98246SOL    HW196635   8.316  12.291  13.469
98246SOL    HW296636   8.176  12.279  13.412
98247SOL     OW96637   7.801  10.251   3.838
98247SOL    HW196638   7.792  10.257   3.933
98247SOL    HW296639   7.721  10.208   3.808
98248SOL     OW96640  12.307   4.879   1.585
98248SOL    HW196641  12.308   4.937   1.509
98248SOL    HW296642  12.394   4.889   1.625
98249SOL     OW96643   3.967  13.781   1.914
98249SOL    HW196644   3.885  13.801   1.870
98249SOL    HW296645   4.032  13.837   1.871
98250SOL     OW96646   0.602   3.638  13.093
98250SOL    HW196647   0.659   3.680  13.157
98250SOL    HW296648   0.522   3.690  13.094
98251SOL     OW96649   0.009   0.834  14.124
98251SOL    HW196650   0.076   0.902  14.119
98251SOL    HW296651  14.808   0.881  14.126
98252SOL     OW96652  14.793   0.830   8.303
98252SOL    HW196653  14.759   0.885   8.232
98252SOL    HW296654  14.860   0.883   8.345
98253SOL     OW96655   9.676   5.565  12.222
98253SOL    HW196656   9.588   5.526  12.227
98253SOL    HW296657   9.732   5.504  12.269
98254SOL     OW96658  12.327  13.234   5.986
98254SOL    HW196659  12.337  13.182   5.907
98254SOL    HW296660  12.399  13.296   5.984
98255SOL     OW96661   1.877  14.779  10.743
98255SOL    HW196662   1.830  14.697  10.732
98255SOL    HW296663   1.836  14.839  10.681
98256SOL     OW96664   8.836   5.430   3.028
98256SOL    HW196665   8.892   5.507   3.016
98256SOL    HW296666   8.787   5.449   3.108
98257SOL     OW96667   1.035   7.038   6.875
98257SOL    HW196668   1.015   7.114   6.820
98257SOL    HW296669   1.035   6.964   6.814
98258SOL     OW96670   2.082  13.887   2.128
98258SOL    HW196671   2.109  13.800   2.158
98258SOL    HW296672   2.011  13.869   2.066
98259SOL     OW96673   5.236   4.549   7.112
98259SOL    HW196674   5.191   4.496   7.047
98259SOL    HW296675   5.201   4.519   7.196
98260SOL     OW96676   3.417  12.081  10.436
98260SOL    HW196677   3.384  12.139  10.505
98260SOL    HW296678   3.339  12.040  10.400
98261SOL     OW96679   1.019   7.327  11.419
98261SOL    HW196680   1.059   7.253  11.373
98261SOL    HW296681   0.962   7.368  11.353
98262SOL     OW96682  13.959  11.024   3.914
98262SOL    HW196683  14.020  11.040   3.986
98262SOL    HW296684  13.873  11.042   3.951
98263SOL     OW96685   4.499   4.579   7.094
98263SOL    HW196686   4.588   4.561   7.066
98263SOL    HW296687   4.468   4.647   7.033
98264SOL     OW96688   9.626   2.577   1.001
98264SOL    HW196689   9.619   2.494   1.049
98264SOL    HW296690   9.573   2.564   0.923
98265SOL     OW96691   9.306   7.265   4.487
98265SOL    HW196692   9.351   7.325   4.428
98265SOL    HW296693   9.213   7.274   4.464
98266SOL     OW96694   7.881   2.097  11.673
98266SOL    HW196695   7.836   2.143  11.743
98266SOL    HW296696   7.847   2.007  11.676
98267SOL     OW96697  14.665   0.973  14.081
98267SOL    HW196698  14.655   1.064  14.055
98267SOL    HW296699  14.655   0.924  14.000
98268SOL     OW96700   8.374  11.127   9.226
98268SOL    HW196701   8.415  11.084   9.302
98268SOL    HW296702   8.370  11.059   9.160
98269SOL     OW96703   4.493  10.640  12.375
98269SOL    HW196704   4.412  10.590  12.381
98269SOL    HW296705   4.468  10.730  12.397
98270SOL     OW96706   9.696   0.934   5.808
98270SOL    HW196707   9.783   0.969   5.793
98270SOL    HW296708   9.655   0.994   5.871
98271SOL     OW96709   8.101  12.610   1.849
98271SOL    HW196710   8.039  12.671   1.890
98271SOL    HW296711   8.045  12.548   1.802
98272SOL     OW96712   7.224  12.766  12.636
98272SOL    HW196713   7.313  12.756  12.670
98272SOL    HW296714   7.217  12.700  12.567
98273SOL     OW96715   6.340  11.172  14.070
98273SOL    HW196716   6.395  11.094  14.060
98273SOL    HW296717   6.271  11.145  14.131
98274SOL     OW96718   6.864   6.648  11.717
98274SOL    HW196719   6.897   6.563  11.747
98274SOL    HW296720   6.921   6.712  11.760
98275SOL     OW96721   6.654   9.662  13.593
98275SOL    HW196722   6.659   9.574  13.630
98275SOL    HW296723   6.739   9.702  13.613
98276SOL     OW96724   4.054   4.161   6.054
98276SOL    HW196725   4.028   4.132   6.141
98276SOL    HW296726   4.112   4.235   6.070
98277SOL     OW96727   9.785  13.490   9.186
98277SOL    HW196728   9.754  13.441   9.110
98277SOL    HW296729   9.836  13.562   9.149
98278SOL     OW96730   4.516   6.513  10.071
98278SOL    HW196731   4.476   6.512  10.158
98278SOL    HW296732   4.443   6.498  10.011
98279SOL     OW96733  12.441   8.957  13.216
98279SOL    HW196734  12.466   8.873  13.255
98279SOL    HW296735  12.456   8.946  13.123
98280SOL     OW96736  10.544   0.107   9.945
98280SOL    HW196737  10.502   0.090  10.029
98280SOL    HW296738  10.490   0.175   9.904
98281SOL     OW96739   0.798   4.884  14.163
98281SOL    HW196740   0.870   4.945  14.149
98281SOL    HW296741   0.759   4.873  14.076
98282SOL     OW96742  10.432   3.751   1.429
98282SOL    HW196743  10.490   3.822   1.458
98282SOL    HW296744  10.439   3.752   1.334
98283SOL     OW96745   6.788  12.292   9.832
98283SOL    HW196746   6.814  12.201   9.849
98283SOL    HW296747   6.844  12.319   9.759
98284SOL     OW96748  11.799   4.066   3.273
98284SOL    HW196749  11.793   4.049   3.179
98284SOL    HW296750  11.828   3.984   3.311
98285SOL     OW96751   5.169   6.726   4.032
98285SOL    HW196752   5.258   6.732   3.998
98285SOL    HW296753   5.154   6.811   4.073
98286SOL     OW96754   9.317   4.268   5.171
98286SOL    HW196755   9.223   4.266   5.152
98286SOL    HW296756   9.355   4.315   5.096
98287SOL     OW96757   2.943   4.463  11.915
98287SOL    HW196758   2.981   4.463  11.827
98287SOL    HW296759   2.852   4.435  11.902
98288SOL     OW96760  10.295   6.050  12.376
98288SOL    HW196761  10.213   6.003  12.364
98288SOL    HW296762  10.310   6.047  12.471
98289SOL     OW96763  12.029  12.021   9.798
98289SOL    HW196764  12.033  12.100   9.745
98289SOL    HW296765  12.084  12.040   9.874
98290SOL     OW96766   5.582   3.372  10.250
98290SOL    HW196767   5.513   3.398  10.311
98290SOL    HW296768   5.566   3.424  10.171
98291SOL     OW96769   2.509  11.371   0.235
98291SOL    HW196770   2.436  11.432   0.235
98291SOL    HW296771   2.469  11.286   0.217
98292SOL     OW96772   7.557   1.475  10.580
98292SOL    HW196773   7.516   1.460  10.665
98292SOL    HW296774   7.644   1.510  10.601
98293SOL     OW96775  11.654   0.758  10.767
98293SOL    HW196776  11.574   0.713  10.738
98293SOL    HW296777  11.625   0.812  10.840
98294SOL     OW96778  11.812   5.268  14.172
98294SOL    HW196779  11.763   5.243  14.094
98294SOL    HW296780  11.847   5.355  14.151
98295SOL     OW96781  14.669  13.777   3.846
98295SOL    HW196782  14.630  13.861   3.871
98295SOL    HW296783  14.624  13.753   3.764
98296SOL     OW96784   7.869   2.175  11.968
98296SOL    HW196785   7.862   2.230  12.046
98296SOL    HW296786   7.923   2.225  11.908
98297SOL     OW96787   5.345   0.487   4.754
98297SOL    HW196788   5.254   0.468   4.731
98297SOL    HW296789   5.375   0.543   4.682
98298SOL     OW96790   6.235   2.256  14.139
98298SOL    HW196791   6.171   2.185  14.143
98298SOL    HW296792   6.308   2.227  14.194
98299SOL     OW96793  14.135   1.550   3.649
98299SOL    HW196794  14.073   1.578   3.581
98299SOL    HW296795  14.207   1.613   3.643
98300SOL     OW96796  10.019   3.958  13.623
98300SOL    HW196797  10.059   3.953  13.710
98300SOL    HW296798  10.076   3.906  13.568
98301SOL     OW96799   5.915  12.308   6.874
98301SOL    HW196800   5.910  12.354   6.790
98301SOL    HW296801   5.860  12.360   6.933
98302SOL     OW96802  12.322   1.543   0.399
98302SOL    HW196803  12.379   1.600   0.451
98302SOL    HW296804  12.250   1.521   0.459
98303SOL     OW96805  10.615   5.532   8.508
98303SOL    HW196806  10.636   5.443   8.536
98303SOL    HW296807  10.611   5.583   8.589
98304SOL     OW96808   1.321  10.190  10.802
98304SOL    HW196809   1.257  10.175  10.871
98304SOL    HW296810   1.308  10.117  10.741
98305SOL     OW96811   1.890  10.764   3.049
98305SOL    HW196812   1.908  10.840   3.104
98305SOL    HW296813   1.935  10.783   2.967
98306SOL     OW96814   5.223   7.943   8.962
98306SOL    HW196815   5.309   7.979   8.941
98306SOL    HW296816   5.161   8.012   8.940
98307SOL     OW96817  12.914  12.161   2.669
98307SOL    HW196818  12.963  12.100   2.614
98307SOL    HW296819  12.940  12.140   2.758
98308SOL     OW96820   1.646  14.067   9.309
98308SOL    HW196821   1.599  13.984   9.297
98308SOL    HW296822   1.736  14.041   9.326
98309SOL     OW96823   5.980   4.158   3.556
98309SOL    HW196824   5.890   4.160   3.523
98309SOL    HW296825   6.025   4.228   3.509
98310SOL     OW96826   2.695   9.655  11.965
98310SOL    HW196827   2.637   9.579  11.956
98310SOL    HW296828   2.641   9.730  11.940
98311SOL     OW96829   6.497   0.386   3.731
98311SOL    HW196830   6.591   0.385   3.711
98311SOL    HW296831   6.493   0.423   3.820
98312SOL     OW96832  11.881   5.972   0.212
98312SOL    HW196833  11.956   5.917   0.193
98312SOL    HW296834  11.818   5.913   0.254
98313SOL     OW96835   0.222   3.576  13.697
98313SOL    HW196836   0.170   3.509  13.654
98313SOL    HW296837   0.264   3.624  13.626
98314SOL     OW96838   9.753  12.807   0.341
98314SOL    HW196839   9.839  12.767   0.347
98314SOL    HW296840   9.754  12.855   0.259
98315SOL     OW96841   2.832   1.295   2.730
98315SOL    HW196842   2.867   1.272   2.643
98315SOL    HW296843   2.865   1.226   2.788
98316SOL     OW96844  10.300  14.127   9.287
98316SOL    HW196845  10.265  14.126   9.376
98316SOL    HW296846  10.301  14.035   9.260
98317SOL     OW96847   1.121   6.805  14.135
98317SOL    HW196848   1.102   6.742  14.205
98317SOL    HW296849   1.037   6.845  14.115
98318SOL     OW96850   4.531  14.029   4.416
98318SOL    HW196851   4.437  14.046   4.408
98318SOL    HW296852   4.551  14.047   4.508
98319SOL     OW96853   1.933   0.591   7.828
98319SOL    HW196854   1.924   0.671   7.879
98319SOL    HW296855   1.903   0.614   7.740
98320SOL     OW96856   2.297  14.557  11.912
98320SOL    HW196857   2.334  14.533  11.827
98320SOL    HW296858   2.328  14.646  11.928
98321SOL     OW96859   5.724  12.491  10.338
98321SOL    HW196860   5.629  12.486  10.349
98321SOL    HW296861   5.754  12.400  10.345
98322SOL     OW96862  11.445  13.291   8.344
98322SOL    HW196863  11.534  13.283   8.310
98322SOL    HW296864  11.396  13.333   8.274
98323SOL     OW96865  12.343  10.713  11.675
98323SOL    HW196866  12.348  10.659  11.596
98323SOL    HW296867  12.400  10.788  11.657
98324SOL     OW96868  14.064  12.796   9.170
98324SOL    HW196869  14.044  12.888   9.188
98324SOL    HW296870  14.160  12.793   9.163
98325SOL     OW96871  11.995   5.438   9.265
98325SOL    HW196872  12.059   5.510   9.261
98325SOL    HW296873  11.963   5.439   9.355
98326SOL     OW96874   5.788   7.224  12.847
98326SOL    HW196875   5.832   7.294  12.799
98326SOL    HW296876   5.857   7.182  12.899
98327SOL     OW96877   7.684   8.535   6.901
98327SOL    HW196878   7.707   8.469   6.967
98327SOL    HW296879   7.731   8.507   6.822
98328SOL     OW96880  11.566  12.543   9.903
98328SOL    HW196881  11.563  12.629   9.862
98328SOL    HW296882  11.474  12.520   9.918
98329SOL     OW96883   1.083   9.581  12.110
98329SOL    HW196884   1.076   9.614  12.020
98329SOL    HW296885   1.177   9.566  12.123
98330SOL     OW96886   6.543   5.317   6.178
98330SOL    HW196887   6.595   5.393   6.153
98330SOL    HW296888   6.607   5.251   6.203
98331SOL     OW96889   8.944   9.320  13.831
98331SOL    HW196890   8.989   9.354  13.754
98331SOL    HW296891   8.857   9.359  13.827
98332SOL     OW96892   4.087   2.210   4.141
98332SOL    HW196893   4.111   2.223   4.050
98332SOL    HW296894   4.091   2.115   4.154
98333SOL     OW96895   1.675   6.272   1.059
98333SOL    HW196896   1.609   6.258   1.127
98333SOL    HW296897   1.654   6.207   0.992
98334SOL     OW96898  13.968  13.300   3.568
98334SOL    HW196899  13.997  13.359   3.498
98334SOL    HW296900  14.037  13.306   3.634
98335SOL     OW96901   6.537   5.462  14.634
98335SOL    HW196902   6.451   5.423  14.618
98335SOL    HW296903   6.550   5.523  14.562
98336SOL     OW96904   9.429   0.281   6.209
98336SOL    HW196905   9.415   0.241   6.123
98336SOL    HW296906   9.516   0.250   6.236
98337SOL     OW96907  14.763  12.952   1.136
98337SOL    HW196908  14.704  12.901   1.080
98337SOL    HW296909  14.732  12.935   1.225
98338SOL     OW96910   0.761  14.204   5.633
98338SOL    HW196911   0.694  14.255   5.678
98338SOL    HW296912   0.803  14.266   5.573
98339SOL     OW96913  10.903   3.485  12.046
98339SOL    HW196914  10.877   3.447  12.130
98339SOL    HW296915  10.930   3.410  11.993
98340SOL     OW96916   9.607  10.412   9.764
98340SOL    HW196917   9.571  10.501   9.761
98340SOL    HW296918   9.543  10.362   9.815
98341SOL     OW96919  11.686   3.210   5.059
98341SOL    HW196920  11.755   3.271   5.033
98341SOL    HW296921  11.704   3.130   5.010
98342SOL     OW96922  11.529   9.347   3.036
98342SOL    HW196923  11.471   9.294   2.982
98342SOL    HW296924  11.585   9.393   2.974
98343SOL     OW96925   4.142   5.490   6.697
98343SOL    HW196926   4.228   5.448   6.695
98343SOL    HW296927   4.103   5.470   6.612
98344SOL     OW96928   2.267   6.355   0.557
98344SOL    HW196929   2.321   6.282   0.589
98344SOL    HW296930   2.184   6.314   0.531
98345SOL     OW96931   3.498   5.909  11.801
98345SOL    HW196932   3.460   5.913  11.713
98345SOL    HW296933   3.423   5.917  11.860
98346SOL     OW96934   0.353   1.723   3.592
98346SOL    HW196935   0.390   1.811   3.582
98346SOL    HW296936   0.329   1.717   3.685
98347SOL     OW96937   1.725   9.320  10.624
98347SOL    HW196938   1.653   9.361  10.576
98347SOL    HW296939   1.747   9.243  10.572
98348SOL     OW96940  14.070   6.715   6.251
98348SOL    HW196941  13.985   6.677   6.273
98348SOL    HW296942  14.110   6.734   6.335
98349SOL     OW96943  13.695   2.943   7.078
98349SOL    HW196944  13.707   3.037   7.074
98349SOL    HW296945  13.690   2.923   7.171
98350SOL     OW96946   0.285  14.226   6.313
98350SOL    HW196947   0.209  14.230   6.372
98350SOL    HW296948   0.258  14.277   6.236
98351SOL     OW96949   8.657   0.269  11.393
98351SOL    HW196950   8.729   0.309  11.345
98351SOL    HW296951   8.617   0.342  11.441
98352SOL     OW96952   5.371   3.680   2.165
98352SOL    HW196953   5.299   3.619   2.184
98352SOL    HW296954   5.435   3.665   2.234
98353SOL     OW96955   4.019  10.087   3.054
98353SOL    HW196956   3.969  10.122   3.127
98353SOL    HW296957   4.108  10.120   3.068
98354SOL     OW96958   9.659   7.701  12.852
98354SOL    HW196959   9.742   7.711  12.899
98354SOL    HW296960   9.658   7.772  12.788
98355SOL     OW96961   1.060  14.013   0.329
98355SOL    HW196962   1.153  14.013   0.352
98355SOL    HW296963   1.056  14.064   0.248
98356SOL     OW96964   3.267   7.724   6.870
98356SOL    HW196965   3.321   7.771   6.806
98356SOL    HW296966   3.268   7.633   6.840
98357SOL     OW96967   9.300  13.216  13.132
98357SOL    HW196968   9.285  13.264  13.214
98357SOL    HW296969   9.358  13.272  13.082
98358SOL     OW96970   2.816  13.376  12.179
98358SOL    HW196971   2.781  13.291  12.153
98358SOL    HW296972   2.901  13.357  12.217
98359SOL     OW96973   7.209  10.643   1.557
98359SOL    HW196974   7.190  10.623   1.649
98359SOL    HW296975   7.292  10.600   1.540
98360SOL     OW96976   3.227   7.054  12.656
98360SOL    HW196977   3.185   6.976  12.692
98360SOL    HW296978   3.171   7.127  12.682
98361SOL     OW96979  12.759  13.868   8.122
98361SOL    HW196980  12.723  13.827   8.201
98361SOL    HW296981  12.684  13.878   8.064
98362SOL     OW96982   7.451  12.220   6.508
98362SOL    HW196983   7.522  12.212   6.444
98362SOL    HW296984   7.425  12.129   6.526
98363SOL     OW96985   5.648  13.819  12.484
98363SOL    HW196986   5.684  13.891  12.536
98363SOL    HW296987   5.676  13.838  12.394
98364SOL     OW96988  11.901   8.798   9.403
98364SOL    HW196989  11.805   8.808   9.400
98364SOL    HW296990  11.914   8.709   9.435
98365SOL     OW96991   3.081   5.288  13.499
98365SOL    HW196992   3.058   5.378  13.474
98365SOL    HW296993   2.999   5.250  13.530
98366SOL     OW96994  12.026  13.948   0.259
98366SOL    HW196995  11.969  13.904   0.195
98366SOL    HW296996  11.965  13.987   0.322
98367SOL     OW96997   9.626   0.751   5.094
98367SOL    HW196998   9.656   0.822   5.037
98367SOL    HW296999   9.535   0.774   5.114
98368SOL     OW97000   9.519   6.067   3.872
98368SOL    HW197001   9.602   6.075   3.918
98368SOL    HW297002   9.453   6.088   3.938
98369SOL     OW97003  14.016   7.975   4.836
98369SOL    HW197004  14.083   7.906   4.831
98369SOL    HW297005  14.065   8.054   4.858
98370SOL     OW97006  10.240   5.077   9.842
98370SOL    HW197007  10.219   4.990   9.878
98370SOL    HW297008  10.172   5.134   9.877
98371SOL     OW97009   6.125   8.920  10.540
98371SOL    HW197010   6.064   8.967  10.597
98371SOL    HW297011   6.110   8.958  10.453
98372SOL     OW97012  11.546  10.003   5.973
98372SOL    HW197013  11.610  10.054   5.923
98372SOL    HW297014  11.562  10.026   6.064
98373SOL     OW97015   9.349   8.888  11.497
98373SOL    HW197016   9.259   8.860  11.511
98373SOL    HW297017   9.395   8.861  11.577
98374SOL     OW97018  11.509   6.990  11.163
98374SOL    HW197019  11.467   6.927  11.104
98374SOL    HW297020  11.531   6.939  11.241
98375SOL     OW97021   8.311   2.031  12.626
98375SOL    HW197022   8.264   2.111  12.600
98375SOL    HW297023   8.380   2.062  12.684
98376SOL     OW97024   2.141   6.120  14.703
98376SOL    HW197025   2.165   6.158  14.788
98376SOL    HW297026   2.186   6.175  14.639
98377SOL     OW97027   3.192   7.392  13.916
98377SOL    HW197028   3.272   7.372  13.867
98377SOL    HW297029   3.168   7.480  13.885
98378SOL     OW97030   7.026  12.177  11.820
98378SOL    HW197031   7.022  12.116  11.894
98378SOL    HW297032   7.014  12.121  11.743
98379SOL     OW97033  14.522  14.575   8.106
98379SOL    HW197034  14.587  14.629   8.150
98379SOL    HW297035  14.572  14.524   8.042
98380SOL     OW97036   9.771   0.505  14.400
98380SOL    HW197037   9.823   0.503  14.481
98380SOL    HW297038   9.830   0.469  14.333
98381SOL     OW97039   1.506   6.646  10.690
98381SOL    HW197040   1.547   6.692  10.764
98381SOL    HW297041   1.501   6.712  10.621
98382SOL     OW97042  14.327   9.613   1.685
98382SOL    HW197043  14.325   9.562   1.766
98382SOL    HW297044  14.244   9.661   1.685
98383SOL     OW97045   0.282   8.544   7.712
98383SOL    HW197046   0.372   8.521   7.735
98383SOL    HW297047   0.262   8.490   7.635
98384SOL     OW97048   8.856   3.193   9.676
98384SOL    HW197049   8.906   3.157   9.603
98384SOL    HW297050   8.890   3.148   9.753
98385SOL     OW97051  10.621   9.666   2.785
98385SOL    HW197052  10.703   9.654   2.736
98385SOL    HW297053  10.587   9.750   2.754
98386SOL     OW97054  14.479   0.205  11.403
98386SOL    HW197055  14.410   0.204  11.337
98386SOL    HW297056  14.556   0.237  11.356
98387SOL     OW97057  14.688  10.330   3.001
98387SOL    HW197058  14.630  10.267   2.959
98387SOL    HW297059  14.682  10.408   2.945
98388SOL     OW97060   7.613   2.514  13.618
98388SOL    HW197061   7.535   2.560  13.647
98388SOL    HW297062   7.586   2.422  13.611
98389SOL     OW97063   2.151   7.531   6.466
98389SOL    HW197064   2.187   7.619   6.462
98389SOL    HW297065   2.083   7.529   6.399
98390SOL     OW97066   3.868   9.571  10.709
98390SOL    HW197067   3.863   9.500  10.645
98390SOL    HW297068   3.817   9.642  10.670
98391SOL     OW97069   1.810   7.800  10.135
98391SOL    HW197070   1.782   7.747  10.060
98391SOL    HW297071   1.843   7.736  10.198
98392SOL     OW97072  12.018   3.073   7.459
98392SOL    HW197073  11.989   2.989   7.496
98392SOL    HW297074  12.069   3.114   7.529
98393SOL     OW97075   4.707   1.129   4.568
98393SOL    HW197076   4.760   1.106   4.491
98393SOL    HW297077   4.630   1.072   4.562
98394SOL     OW97078   6.193   8.030   4.147
98394SOL    HW197079   6.191   7.935   4.135
98394SOL    HW297080   6.188   8.065   4.058
98395SOL     OW97081   0.150   0.019   1.111
98395SOL    HW197082   0.227  14.845   1.110
98395SOL    HW297083   0.159   0.074   1.034
98396SOL     OW97084   9.907   6.183   3.735
98396SOL    HW197085   9.894   6.192   3.641
98396SOL    HW297086   9.929   6.090   3.747
98397SOL     OW97087  13.497   0.822  11.663
98397SOL    HW197088  13.580   0.867  11.678
98397SOL    HW297089  13.512   0.732  11.693
98398SOL     OW97090   9.245   9.485   9.111
98398SOL    HW197091   9.244   9.391   9.128
98398SOL    HW297092   9.152   9.511   9.115
98399SOL     OW97093  11.849   1.906  12.260
98399SOL    HW197094  11.765   1.941  12.229
98399SOL    HW297095  11.833   1.880  12.350
98400SOL     OW97096   6.244   1.745  13.415
98400SOL    HW197097   6.225   1.835  13.388
98400SOL    HW297098   6.215   1.692  13.341
98401SOL     OW97099   4.571   8.927   5.125
98401SOL    HW197100   4.608   8.840   5.142
98401SOL    HW297101   4.645   8.987   5.132
98402SOL     OW97102   9.690   7.486   0.032
98402SOL    HW197103   9.700   7.392   0.014
98402SOL    HW297104   9.701   7.528  14.829
98403SOL     OW97105   9.241  12.805   4.542
98403SOL    HW197106   9.285  12.889   4.558
98403SOL    HW297107   9.149  12.821   4.564
98404SOL     OW97108  13.246   3.721  10.836
98404SOL    HW197109  13.248   3.631  10.869
98404SOL    HW297110  13.335   3.738  10.806
98405SOL     OW97111  12.534   2.956   4.576
98405SOL    HW197112  12.628   2.950   4.591
98405SOL    HW297113  12.494   2.923   4.656
98406SOL     OW97114  11.768   5.009  13.268
98406SOL    HW197115  11.852   4.964  13.277
98406SOL    HW297116  11.744   4.998  13.176
98407SOL     OW97117   7.598   8.388   9.500
98407SOL    HW197118   7.544   8.335   9.559
98407SOL    HW297119   7.570   8.478   9.516
98408SOL     OW97120   1.933  11.198   6.596
98408SOL    HW197121   2.009  11.180   6.651
98408SOL    HW297122   1.916  11.115   6.550
98409SOL     OW97123   2.270  10.942  13.829
98409SOL    HW197124   2.204  10.962  13.762
98409SOL    HW297125   2.298  11.027  13.862
98410SOL     OW97126  14.131  10.499   0.747
98410SOL    HW197127  14.036  10.494   0.737
98410SOL    HW297128  14.165  10.492   0.658
98411SOL     OW97129   0.198  10.089  10.002
98411SOL    HW197130   0.251  10.070   9.925
98411SOL    HW297131   0.247  10.158  10.048
98412SOL     OW97132   5.624  10.189   3.321
98412SOL    HW197133   5.687  10.234   3.265
98412SOL    HW297134   5.671  10.113   3.355
98413SOL     OW97135  12.309  13.526   4.671
98413SOL    HW197136  12.394  13.488   4.691
98413SOL    HW297137  12.275  13.473   4.599
98414SOL     OW97138   9.340   2.474  10.891
98414SOL    HW197139   9.422   2.425  10.895
98414SOL    HW297140   9.363   2.555  10.845
98415SOL     OW97141   6.763   9.761  10.379
98415SOL    HW197142   6.728   9.825  10.441
98415SOL    HW297143   6.843   9.730  10.420
98416SOL     OW97144  11.684   3.465  12.489
98416SOL    HW197145  11.763   3.449  12.540
98416SOL    HW297146  11.620   3.494  12.553
98417SOL     OW97147  13.400  14.732  10.320
98417SOL    HW197148  13.430  14.664  10.380
98417SOL    HW297149  13.466  14.801  10.328
98418SOL     OW97150  13.114   1.971   8.985
98418SOL    HW197151  13.020   1.968   8.966
98418SOL    HW297152  13.121   2.023   9.065
98419SOL     OW97153   7.142   3.380   5.025
98419SOL    HW197154   7.049   3.375   5.050
98419SOL    HW297155   7.188   3.339   5.098
98420SOL     OW97156  11.948   9.422  12.358
98420SOL    HW197157  12.036   9.454  12.338
98420SOL    HW297158  11.933   9.351  12.295
98421SOL     OW97159  13.221   4.464  11.902
98421SOL    HW197160  13.226   4.559  11.895
98421SOL    HW297161  13.312   4.436  11.915
98422SOL     OW97162   8.546   5.829   1.857
98422SOL    HW197163   8.522   5.849   1.766
98422SOL    HW297164   8.631   5.786   1.850
98423SOL     OW97165  11.965   2.305  11.552
98423SOL    HW197166  11.892   2.285  11.611
98423SOL    HW297167  11.924   2.351  11.479
98424SOL     OW97168   6.477   6.477   4.155
98424SOL    HW197169   6.500   6.441   4.240
98424SOL    HW297170   6.501   6.408   4.092
98425SOL     OW97171   2.967   3.360   7.920
98425SOL    HW197172   3.006   3.438   7.882
98425SOL    HW297173   3.033   3.291   7.907
98426SOL     OW97174   4.826   6.706   4.838
98426SOL    HW197175   4.856   6.786   4.796
98426SOL    HW297176   4.731   6.709   4.831
98427SOL     OW97177   1.841   7.302  13.979
98427SOL    HW197178   1.767   7.272  14.032
98427SOL    HW297179   1.890   7.222  13.959
98428SOL     OW97180   3.467   9.625  14.064
98428SOL    HW197181   3.562   9.627  14.066
98428SOL    HW297182   3.441   9.606  14.154
98429SOL     OW97183   3.578  10.810   3.760
98429SOL    HW197184   3.502  10.850   3.718
98429SOL    HW297185   3.561  10.818   3.854
98430SOL     OW97186  12.093   4.854   1.771
98430SOL    HW197187  12.025   4.796   1.738
98430SOL    HW297188  12.170   4.834   1.718
98431SOL     OW97189   8.191  14.658   8.328
98431SOL    HW197190   8.252  14.624   8.394
98431SOL    HW297191   8.231  14.634   8.244
98432SOL     OW97192   2.745   9.291   3.703
98432SOL    HW197193   2.673   9.326   3.755
98432SOL    HW297194   2.786   9.226   3.759
98433SOL     OW97195   8.917  11.113   9.059
98433SOL    HW197196   8.986  11.049   9.041
98433SOL    HW297197   8.924  11.177   8.988
98434SOL     OW97198  11.184  14.769   0.140
98434SOL    HW197199  11.130  14.709   0.192
98434SOL    HW297200  11.147  14.763   0.051
98435SOL     OW97201  14.592   3.074  10.968
98435SOL    HW197202  14.563   3.158  10.933
98435SOL    HW297203  14.672   3.054  10.918
98436SOL     OW97204  14.450  14.638  10.811
98436SOL    HW197205  14.418  14.582  10.741
98436SOL    HW297206  14.540  14.660  10.785
98437SOL     OW97207  10.544  13.655  11.732
98437SOL    HW197208  10.475  13.635  11.669
98437SOL    HW297209  10.576  13.570  11.761
98438SOL     OW97210   3.271  10.027   2.028
98438SOL    HW197211   3.244  10.084   2.100
98438SOL    HW297212   3.326  10.082   1.972
98439SOL     OW97213   9.410   3.423   0.568
98439SOL    HW197214   9.466   3.373   0.627
98439SOL    HW297215   9.327   3.431   0.613
98440SOL     OW97216   4.718   9.846  13.192
98440SOL    HW197217   4.743   9.833  13.283
98440SOL    HW297218   4.769   9.780  13.143
98441SOL     OW97219   8.174   2.413   1.117
98441SOL    HW197220   8.233   2.413   1.041
98441SOL    HW297221   8.161   2.321   1.137
98442SOL     OW97222  14.679   4.020   5.705
98442SOL    HW197223  14.595   4.015   5.749
98442SOL    HW297224  14.679   3.945   5.645
98443SOL     OW97225  10.573   6.933  14.706
98443SOL    HW197226  10.650   6.974  14.666
98443SOL    HW297227  10.501   6.993  14.686
98444SOL     OW97228   7.067   5.796   6.217
98444SOL    HW197229   7.152   5.793   6.262
98444SOL    HW297230   7.014   5.857   6.269
98445SOL     OW97231  13.808   7.912  10.912
98445SOL    HW197232  13.886   7.944  10.868
98445SOL    HW297233  13.838   7.840  10.966
98446SOL     OW97234   1.939   7.047   9.408
98446SOL    HW197235   2.014   7.033   9.350
98446SOL    HW297236   1.928   7.142   9.410
98447SOL     OW97237  11.387   0.524  14.020
98447SOL    HW197238  11.315   0.564  13.971
98447SOL    HW297239  11.451   0.594  14.030
98448SOL     OW97240   4.637   1.757   4.874
98448SOL    HW197241   4.676   1.737   4.789
98448SOL    HW297242   4.550   1.792   4.853
98449SOL     OW97243   6.026   1.063   5.999
98449SOL    HW197244   6.095   1.047   5.935
98449SOL    HW297245   6.020   0.981   6.049
98450SOL     OW97246   0.387   0.610  11.627
98450SOL    HW197247   0.385   0.703  11.607
98450SOL    HW297248   0.464   0.577  11.581
98451SOL     OW97249  14.169   7.484   9.780
98451SOL    HW197250  14.248   7.533   9.756
98451SOL    HW297251  14.195   7.435   9.858
98452SOL     OW97252   7.252  11.916   3.922
98452SOL    HW197253   7.197  11.853   3.877
98452SOL    HW297254   7.330  11.924   3.868
98453SOL     OW97255  12.190   6.017   3.710
98453SOL    HW197256  12.170   6.056   3.624
98453SOL    HW297257  12.212   6.092   3.765
98454SOL     OW97258   9.755  10.438   0.440
98454SOL    HW197259   9.730  10.515   0.489
98454SOL    HW297260   9.850  10.432   0.452
98455SOL     OW97261   1.282   5.858   5.433
98455SOL    HW197262   1.253   5.925   5.495
98455SOL    HW297263   1.357   5.817   5.475
98456SOL     OW97264  12.080  10.598   3.145
98456SOL    HW197265  12.115  10.543   3.214
98456SOL    HW297266  12.011  10.650   3.188
98457SOL     OW97267   6.152  11.533   9.460
98457SOL    HW197268   6.184  11.623   9.457
98457SOL    HW297269   6.062  11.540   9.492
98458SOL     OW97270   6.923   0.076   0.731
98458SOL    HW197271   6.846   0.095   0.677
98458SOL    HW297272   6.919   0.139   0.803
98459SOL     OW97273  11.401   4.357   4.134
98459SOL    HW197274  11.468   4.314   4.189
98459SOL    HW297275  11.333   4.383   4.196
98460SOL     OW97276   4.010  14.513   9.167
98460SOL    HW197277   4.030  14.424   9.139
98460SOL    HW297278   4.043  14.568   9.097
98461SOL     OW97279   4.585   3.385  13.135
98461SOL    HW197280   4.601   3.452  13.068
98461SOL    HW297281   4.671   3.360  13.166
98462SOL     OW97282   6.630  12.616  14.882
98462SOL    HW197283   6.631  12.521   0.008
98462SOL    HW297284   6.721  12.642   0.013
98463SOL     OW97285  13.674   1.546  11.331
98463SOL    HW197286  13.731   1.503  11.395
98463SOL    HW297287  13.598   1.573  11.382
98464SOL     OW97288   0.277   7.378   4.537
98464SOL    HW197289   0.269   7.416   4.449
98464SOL    HW297290   0.358   7.328   4.534
98465SOL     OW97291   2.718   1.641  11.360
98465SOL    HW197292   2.706   1.730  11.327
98465SOL    HW297293   2.749   1.652  11.449
98466SOL     OW97294   8.391   3.133   0.544
98466SOL    HW197295   8.441   3.066   0.497
98466SOL    HW297296   8.447   3.156   0.618
98467SOL     OW97297  13.105   8.199   6.148
98467SOL    HW197298  13.180   8.158   6.105
98467SOL    HW297299  13.087   8.143   6.224
98468SOL     OW97300  10.243   5.801   8.866
98468SOL    HW197301  10.244   5.823   8.959
98468SOL    HW297302  10.187   5.724   8.859
98469SOL     OW97303  14.200   7.708   1.408
98469SOL    HW197304  14.294   7.693   1.409
98469SOL    HW297305  14.166   7.644   1.345
98470SOL     OW97306   0.735   1.859   3.132
98470SOL    HW197307   0.730   1.829   3.222
98470SOL    HW297308   0.670   1.806   3.085
98471SOL     OW97309  14.788  13.396   3.200
98471SOL    HW197310  14.746  13.346   3.271
98471SOL    HW297311  14.878  13.363   3.198
98472SOL     OW97312   4.407  13.116  14.730
98472SOL    HW197313   4.412  13.023  14.706
98472SOL    HW297314   4.389  13.116  14.824
98473SOL     OW97315  10.120   3.308   2.323
98473SOL    HW197316  10.087   3.229   2.280
98473SOL    HW297317  10.182   3.344   2.259
98474SOL     OW97318  11.845   0.444   3.202
98474SOL    HW197319  11.877   0.504   3.270
98474SOL    HW297320  11.814   0.501   3.132
98475SOL     OW97321   6.974   4.325   8.087
98475SOL    HW197322   6.903   4.369   8.134
98475SOL    HW297323   7.044   4.390   8.083
98476SOL     OW97324  14.812   9.020   4.503
98476SOL    HW197325  14.800   9.090   4.438
98476SOL    HW297326  14.860   9.062   4.575
98477SOL     OW97327  14.454   4.565  10.973
98477SOL    HW197328  14.376   4.561  10.919
98477SOL    HW297329  14.430   4.521  11.054
98478SOL     OW97330   1.630  13.270  12.259
98478SOL    HW197331   1.714  13.232  12.231
98478SOL    HW297332   1.577  13.270  12.179
98479SOL     OW97333  13.336   7.849   4.598
98479SOL    HW197334  13.321   7.831   4.691
98479SOL    HW297335  13.431   7.857   4.591
98480SOL     OW97336  13.366   9.895   6.333
98480SOL    HW197337  13.393   9.830   6.398
98480SOL    HW297338  13.284   9.861   6.298
98481SOL     OW97339   4.447   3.318   4.724
98481SOL    HW197340   4.406   3.275   4.799
98481SOL    HW297341   4.421   3.265   4.649
98482SOL     OW97342   5.822  13.692  11.223
98482SOL    HW197343   5.866  13.611  11.249
98482SOL    HW297344   5.734  13.686  11.261
98483SOL     OW97345   2.674  14.192  14.013
98483SOL    HW197346   2.604  14.170  13.951
98483SOL    HW297347   2.702  14.280  13.988
98484SOL     OW97348  10.643   5.736   6.876
98484SOL    HW197349  10.595   5.659   6.907
98484SOL    HW297350  10.724   5.701   6.840
98485SOL     OW97351  10.510  14.032  13.623
98485SOL    HW197352  10.465  13.960  13.666
98485SOL    HW297353  10.547  13.992  13.544
98486SOL     OW97354  13.572   7.689   8.200
98486SOL    HW197355  13.581   7.670   8.293
98486SOL    HW297356  13.491   7.645   8.174
98487SOL     OW97357  11.585   2.017  12.132
98487SOL    HW197358  11.499   1.987  12.161
98487SOL    HW297359  11.609   1.957  12.062
98488SOL     OW97360   2.946   5.656   0.525
98488SOL    HW197361   2.955   5.683   0.617
98488SOL    HW297362   3.033   5.665   0.489
98489SOL     OW97363  12.453   4.461  14.352
98489SOL    HW197364  12.455   4.374  14.393
98489SOL    HW297365  12.412   4.517  14.418
98490SOL     OW97366  10.275   8.227   6.341
98490SOL    HW197367  10.205   8.164   6.330
98490SOL    HW297368  10.348   8.193   6.289
98491SOL     OW97369   9.028   9.037   8.025
98491SOL    HW197370   9.072   9.112   7.985
98491SOL    HW297371   8.935   9.059   8.020
98492SOL     OW97372   2.607   6.967   2.200
98492SOL    HW197373   2.657   7.004   2.272
98492SOL    HW297374   2.616   6.872   2.209
98493SOL     OW97375   7.561  13.228  13.065
98493SOL    HW197376   7.518  13.183  13.137
98493SOL    HW297377   7.652  13.237  13.093
98494SOL     OW97378   8.522   4.525  14.764
98494SOL    HW197379   8.474   4.443  14.752
98494SOL    HW297380   8.584   4.507  14.834
98495SOL     OW97381   4.581  14.490   4.533
98495SOL    HW197382   4.670  14.521   4.551
98495SOL    HW297383   4.582  14.467   4.440
98496SOL     OW97384   0.258   5.110   9.526
98496SOL    HW197385   0.162   5.101   9.524
98496SOL    HW297386   0.274   5.195   9.483
98497SOL     OW97387   4.267  14.335   9.438
98497SOL    HW197388   4.361  14.339   9.455
98497SOL    HW297389   4.251  14.403   9.373
98498SOL     OW97390  14.700   3.553  13.573
98498SOL    HW197391  14.629   3.524  13.515
98498SOL    HW297392  14.779   3.525  13.528
98499SOL     OW97393   3.479   8.473   5.783
98499SOL    HW197394   3.533   8.416   5.728
98499SOL    HW297395   3.426   8.413   5.835
98500SOL     OW97396   1.121  14.581   0.655
98500SOL    HW197397   1.102  14.545   0.569
98500SOL    HW297398   1.160  14.509   0.705
98501SOL     OW97399  11.339   4.763   9.993
98501SOL    HW197400  11.320   4.684  10.044
98501SOL    HW297401  11.377   4.824  10.056
98502SOL     OW97402  14.680   5.836  14.290
98502SOL    HW197403  14.642   5.780  14.357
98502SOL    HW297404  14.652   5.925  14.315
98503SOL     OW97405  12.915  14.519   6.981
98503SOL    HW197406  12.924  14.585   7.050
98503SOL    HW297407  13.004  14.499   6.954
98504SOL     OW97408   7.246   3.352   6.514
98504SOL    HW197409   7.327   3.317   6.552
98504SOL    HW297410   7.235   3.437   6.556
98505SOL     OW97411  10.906  13.949  10.226
98505SOL    HW197412  10.934  13.858  10.215
98505SOL    HW297413  10.951  13.978  10.305
98506SOL     OW97414  10.028   6.149  12.851
98506SOL    HW197415  10.004   6.207  12.779
98506SOL    HW297416  10.041   6.064  12.810
98507SOL     OW97417   8.150  12.964   2.301
98507SOL    HW197418   8.068  12.973   2.252
98507SOL    HW297419   8.125  12.976   2.392
98508SOL     OW97420   1.669   3.054   9.396
98508SOL    HW197421   1.605   3.054   9.324
98508SOL    HW297422   1.735   2.989   9.369
98509SOL     OW97423   1.846  14.046   4.594
98509SOL    HW197424   1.872  14.044   4.686
98509SOL    HW297425   1.918  14.001   4.548
98510SOL     OW97426   5.303  13.607   4.862
98510SOL    HW197427   5.375  13.544   4.858
98510SOL    HW297428   5.339  13.689   4.830
98511SOL     OW97429   3.903   1.616  11.334
98511SOL    HW197430   3.836   1.549  11.349
98511SOL    HW297431   3.863   1.677  11.272
98512SOL     OW97432   2.475  12.772   4.180
98512SOL    HW197433   2.441  12.696   4.228
98512SOL    HW297434   2.401  12.834   4.179
98513SOL     OW97435   3.825   1.981   5.604
98513SOL    HW197436   3.799   1.893   5.577
98513SOL    HW297437   3.769   2.000   5.679
98514SOL     OW97438  13.715   9.487  13.180
98514SOL    HW197439  13.793   9.542  13.174
98514SOL    HW297440  13.725   9.440  13.263
98515SOL     OW97441   0.813   6.891  14.009
98515SOL    HW197442   0.843   6.898  13.919
98515SOL    HW297443   0.762   6.971  14.023
98516SOL     OW97444  10.613  11.752  13.556
98516SOL    HW197445  10.666  11.729  13.480
98516SOL    HW297446  10.580  11.668  13.589
98517SOL     OW97447   4.763  13.448   6.113
98517SOL    HW197448   4.854  13.474   6.127
98517SOL    HW297449   4.719  13.528   6.087
98518SOL     OW97450   3.312  10.641   9.293
98518SOL    HW197451   3.361  10.560   9.310
98518SOL    HW297452   3.344  10.703   9.357
98519SOL     OW97453   1.420   0.523  14.696
98519SOL    HW197454   1.455   0.458  14.757
98519SOL    HW297455   1.488   0.533  14.629
98520SOL     OW97456  12.614   5.022   0.315
98520SOL    HW197457  12.582   5.077   0.244
98520SOL    HW297458  12.694   5.065   0.345
98521SOL     OW97459   0.747   7.559   2.704
98521SOL    HW197460   0.748   7.644   2.748
98521SOL    HW297461   0.832   7.553   2.661
98522SOL     OW97462   9.486   2.150   5.119
98522SOL    HW197463   9.487   2.059   5.089
98522SOL    HW297464   9.496   2.202   5.039
98523SOL     OW97465  13.360   5.598  13.455
98523SOL    HW197466  13.348   5.693  13.456
98523SOL    HW297467  13.290   5.564  13.400
98524SOL     OW97468  11.983   8.385  11.216
98524SOL    HW197469  12.025   8.315  11.266
98524SOL    HW297470  11.891   8.382  11.243
98525SOL     OW97471   9.725  13.060   2.176
98525SOL    HW197472   9.650  13.097   2.128
98525SOL    HW297473   9.691  13.043   2.264
98526SOL     OW97474  14.775  10.560   1.575
98526SOL    HW197475  14.794  10.489   1.636
98526SOL    HW297476  14.778  10.520   1.489
98527SOL     OW97477   4.227   7.106  10.128
98527SOL    HW197478   4.193   7.170  10.065
98527SOL    HW297479   4.311   7.142  10.157
98528SOL     OW97480   9.061   8.657   0.539
98528SOL    HW197481   9.144   8.651   0.586
98528SOL    HW297482   8.996   8.676   0.607
98529SOL     OW97483  12.090   6.819  12.053
98529SOL    HW197484  12.008   6.814  12.005
98529SOL    HW297485  12.092   6.739  12.106
98530SOL     OW97486  11.568   1.926   0.452
98530SOL    HW197487  11.547   1.928   0.358
98530SOL    HW297488  11.611   2.010   0.468
98531SOL     OW97489   3.898   0.238   8.257
98531SOL    HW197490   3.883   0.228   8.163
98531SOL    HW297491   3.822   0.288   8.288
98532SOL     OW97492   9.527  10.105  13.062
98532SOL    HW197493   9.611  10.084  13.022
98532SOL    HW297494   9.540  10.191  13.102
98533SOL     OW97495   3.837  14.069  14.422
98533SOL    HW197496   3.770  14.029  14.366
98533SOL    HW297497   3.810  14.045  14.511
98534SOL     OW97498   4.601   0.339   1.634
98534SOL    HW197499   4.605   0.280   1.558
98534SOL    HW297500   4.680   0.392   1.627
98535SOL     OW97501  12.722   0.627   6.445
98535SOL    HW197502  12.800   0.657   6.399
98535SOL    HW297503  12.672   0.706   6.464
98536SOL     OW97504   1.270   4.582   6.548
98536SOL    HW197505   1.285   4.489   6.531
98536SOL    HW297506   1.175   4.593   6.541
98537SOL     OW97507  12.858  14.123   4.678
98537SOL    HW197508  12.792  14.111   4.747
98537SOL    HW297509  12.830  14.064   4.608
98538SOL     OW97510  12.182   4.747   9.917
98538SOL    HW197511  12.133   4.775   9.840
98538SOL    HW297512  12.117   4.702   9.971
98539SOL     OW97513   7.262  14.722   2.536
98539SOL    HW197514   7.304  14.798   2.576
98539SOL    HW297515   7.198  14.693   2.601
98540SOL     OW97516  10.370   9.912   6.368
98540SOL    HW197517  10.391   9.825   6.402
98540SOL    HW297518  10.453   9.945   6.333
98541SOL     OW97519   5.035   8.137   7.960
98541SOL    HW197520   4.951   8.093   7.944
98541SOL    HW297521   5.036   8.210   7.899
98542SOL     OW97522   9.826   3.741  13.570
98542SOL    HW197523   9.858   3.822  13.611
98542SOL    HW297524   9.731   3.744  13.583
98543SOL     OW97525   8.218   6.086   5.946
98543SOL    HW197526   8.288   6.023   5.961
98543SOL    HW297527   8.231   6.153   6.013
98544SOL     OW97528   7.268   5.292   2.292
98544SOL    HW197529   7.206   5.338   2.349
98544SOL    HW297530   7.221   5.279   2.210
98545SOL     OW97531  13.859  13.831   8.530
98545SOL    HW197532  13.770  13.841   8.564
98545SOL    HW297533  13.911  13.893   8.582
98546SOL     OW97534   6.087  13.215   2.391
98546SOL    HW197535   6.164  13.164   2.413
98546SOL    HW297536   6.096  13.233   2.298
98547SOL     OW97537  10.320   6.732  12.518
98547SOL    HW197538  10.404   6.749  12.476
98547SOL    HW297539  10.313   6.637  12.522
98548SOL     OW97540  14.871   4.911   8.995
98548SOL    HW197541   0.067   4.942   8.948
98548SOL    HW297542   0.011   4.822   9.022
98549SOL     OW97543   3.353   2.486   7.917
98549SOL    HW197544   3.342   2.508   7.825
98549SOL    HW297545   3.371   2.569   7.960
98550SOL     OW97546   7.677   7.775   3.357
98550SOL    HW197547   7.602   7.719   3.336
98550SOL    HW297548   7.654   7.860   3.319
98551SOL     OW97549   0.567   3.368   1.640
98551SOL    HW197550   0.518   3.286   1.631
98551SOL    HW297551   0.631   3.350   1.709
98552SOL     OW97552   1.799  13.183   9.258
98552SOL    HW197553   1.724  13.126   9.242
98552SOL    HW297554   1.861  13.128   9.306
98553SOL     OW97555   1.000   7.547   2.545
98553SOL    HW197556   1.081   7.498   2.560
98553SOL    HW297557   0.941   7.484   2.505
98554SOL     OW97558   2.977   3.451   8.588
98554SOL    HW197559   3.030   3.384   8.632
98554SOL    HW297560   3.012   3.534   8.619
98555SOL     OW97561   8.647   2.853  10.229
98555SOL    HW197562   8.662   2.926  10.168
98555SOL    HW297563   8.610   2.895  10.307
98556SOL     OW97564   7.906   9.759   5.835
98556SOL    HW197565   7.996   9.780   5.810
98556SOL    HW297566   7.874   9.704   5.763
98557SOL     OW97567   8.978   8.305   0.549
98557SOL    HW197568   9.002   8.368   0.617
98557SOL    HW297569   8.905   8.345   0.503
98558SOL     OW97570   1.425   5.893   6.803
98558SOL    HW197571   1.405   5.934   6.887
98558SOL    HW297572   1.399   5.802   6.814
98559SOL     OW97573   4.989   7.082   0.736
98559SOL    HW197574   4.938   7.001   0.742
98559SOL    HW297575   4.967   7.117   0.650
98560SOL     OW97576  12.940   7.230  14.603
98560SOL    HW197577  12.863   7.272  14.564
98560SOL    HW297578  12.965   7.162  14.541
98561SOL     OW97579  11.254   5.795   5.471
98561SOL    HW197580  11.266   5.809   5.565
98561SOL    HW297581  11.164   5.764   5.463
98562SOL     OW97582   2.453   4.624  13.936
98562SOL    HW197583   2.416   4.565  13.869
98562SOL    HW297584   2.526   4.574  13.973
98563SOL     OW97585   6.128  13.984  14.556
98563SOL    HW197586   6.203  13.985  14.498
98563SOL    HW297587   6.054  13.960  14.500
98564SOL     OW97588  12.392  12.657   1.459
98564SOL    HW197589  12.477  12.662   1.415
98564SOL    HW297590  12.331  12.630   1.390
98565SOL     OW97591   1.227  11.117   4.929
98565SOL    HW197592   1.184  11.201   4.946
98565SOL    HW297593   1.245  11.081   5.016
98566SOL     OW97594  10.000  11.144  12.677
98566SOL    HW197595  10.023  11.127  12.586
98566SOL    HW297596  10.050  11.222  12.701
98567SOL     OW97597   9.711   8.590   5.345
98567SOL    HW197598   9.693   8.500   5.373
98567SOL    HW297599   9.698   8.643   5.424
98568SOL     OW97600  13.849   1.035  11.738
98568SOL    HW197601  13.939   1.057  11.715
98568SOL    HW297602  13.825   1.097  11.806
98569SOL     OW97603   4.176   9.622   7.476
98569SOL    HW197604   4.213   9.540   7.442
98569SOL    HW297605   4.192   9.686   7.407
98570SOL     OW97606   6.362  11.600  14.619
98570SOL    HW197607   6.333  11.682  14.579
98570SOL    HW297608   6.281  11.550  14.631
98571SOL     OW97609  14.148  11.972  10.328
98571SOL    HW197610  14.174  11.966  10.420
98571SOL    HW297611  14.150  11.881  10.297
98572SOL     OW97612   9.454   1.143  14.650
98572SOL    HW197613   9.471   1.084  14.576
98572SOL    HW297614   9.409   1.088  14.714
98573SOL     OW97615   3.726  10.795   6.986
98573SOL    HW197616   3.655  10.766   7.043
98573SOL    HW297617   3.769  10.715   6.958
98574SOL     OW97618   8.321   6.212   5.297
98574SOL    HW197619   8.300   6.125   5.263
98574SOL    HW297620   8.245   6.236   5.350
98575SOL     OW97621  10.507  12.269   9.950
98575SOL    HW197622  10.472  12.346   9.906
98575SOL    HW297623  10.602  12.285   9.955
98576SOL     OW97624   4.204  12.255   7.261
98576SOL    HW197625   4.184  12.167   7.227
98576SOL    HW297626   4.172  12.253   7.351
98577SOL     OW97627   5.139   3.549   6.665
98577SOL    HW197628   5.152   3.458   6.639
98577SOL    HW297629   5.111   3.545   6.756
98578SOL     OW97630  10.760   8.602   1.594
98578SOL    HW197631  10.855   8.606   1.592
98578SOL    HW297632  10.739   8.513   1.568
98579SOL     OW97633   5.341   4.835  12.526
98579SOL    HW197634   5.418   4.780  12.513
98579SOL    HW297635   5.267   4.776  12.515
98580SOL     OW97636   9.747   3.698  14.836
98580SOL    HW197637   9.670   3.675  14.784
98580SOL    HW297638   9.769   3.617   0.001
98581SOL     OW97639  11.635   3.681   9.541
98581SOL    HW197640  11.611   3.621   9.612
98581SOL    HW297641  11.711   3.639   9.499
98582SOL     OW97642   8.162   0.537  10.674
98582SOL    HW197643   8.145   0.622  10.714
98582SOL    HW297644   8.081   0.517  10.628
98583SOL     OW97645  14.413   8.040  10.768
98583SOL    HW197646  14.346   8.091  10.723
98583SOL    HW297647  14.410   8.072  10.858
98584SOL     OW97648   8.357   8.133  14.346
98584SOL    HW197649   8.289   8.071  14.372
98584SOL    HW297650   8.412   8.143  14.423
98585SOL     OW97651  13.033   7.449   1.134
98585SOL    HW197652  13.009   7.504   1.209
98585SOL    HW297653  13.129   7.453   1.132
98586SOL     OW97654  11.983  11.340   3.919
98586SOL    HW197655  11.949  11.378   4.000
98586SOL    HW297656  11.992  11.247   3.938
98587SOL     OW97657   3.397   3.366  13.853
98587SOL    HW197658   3.336   3.293  13.849
98587SOL    HW297659   3.346   3.437  13.892
98588SOL     OW97660   3.477   2.848  12.211
98588SOL    HW197661   3.564   2.856  12.173
98588SOL    HW297662   3.493   2.830  12.304
98589SOL     OW97663  14.060   3.658   8.044
98589SOL    HW197664  14.022   3.666   8.132
98589SOL    HW297665  14.044   3.567   8.020
98590SOL     OW97666   2.054   9.757   0.716
98590SOL    HW197667   2.036   9.691   0.648
98590SOL    HW297668   2.149   9.766   0.716
98591SOL     OW97669   0.015   6.035  10.713
98591SOL    HW197670   0.085   6.055  10.650
98591SOL    HW297671   0.053   5.967  10.769
98592SOL     OW97672   8.046   2.675   1.391
98592SOL    HW197673   8.115   2.613   1.415
98592SOL    HW297674   7.991   2.680   1.469
98593SOL     OW97675   6.754   0.591   6.047
98593SOL    HW197676   6.684   0.538   6.011
98593SOL    HW297677   6.807   0.617   5.971
98594SOL     OW97678  10.257  13.844   1.928
98594SOL    HW197679  10.297  13.859   1.842
98594SOL    HW297680  10.229  13.752   1.925
98595SOL     OW97681   8.051  14.265  13.794
98595SOL    HW197682   7.985  14.313  13.746
98595SOL    HW297683   8.053  14.178  13.753
98596SOL     OW97684   3.065   7.184   8.184
98596SOL    HW197685   3.066   7.162   8.277
98596SOL    HW297686   2.991   7.135   8.148
98597SOL     OW97687  13.444  12.898   0.482
98597SOL    HW197688  13.486  12.815   0.506
98597SOL    HW297689  13.362  12.872   0.441
98598SOL     OW97690  14.248  14.501   2.451
98598SOL    HW197691  14.318  14.435   2.451
98598SOL    HW297692  14.251  14.539   2.538
98599SOL     OW97693   2.779   0.775  11.049
98599SOL    HW197694   2.829   0.728  10.982
98599SOL    HW297695   2.819   0.862  11.053
98600SOL     OW97696   9.712   3.584   4.075
98600SOL    HW197697   9.713   3.495   4.041
98600SOL    HW297698   9.646   3.629   4.024
98601SOL     OW97699  11.916   6.738   3.496
98601SOL    HW197700  11.884   6.691   3.419
98601SOL    HW297701  11.838   6.755   3.548
98602SOL     OW97702   8.508   9.614   8.594
98602SOL    HW197703   8.499   9.610   8.498
98602SOL    HW297704   8.510   9.707   8.614
98603SOL     OW97705   5.162   6.477  14.868
98603SOL    HW197706   5.108   6.530  14.809
98603SOL    HW297707   5.249   6.518  14.864
98604SOL     OW97708  12.195   4.468   6.467
98604SOL    HW197709  12.178   4.440   6.557
98604SOL    HW297710  12.145   4.549   6.456
98605SOL     OW97711   9.550   3.277  10.159
98605SOL    HW197712   9.530   3.366  10.131
98605SOL    HW297713   9.485   3.223  10.115
98606SOL     OW97714   9.024   5.776   7.539
98606SOL    HW197715   8.931   5.797   7.532
98606SOL    HW297716   9.068   5.861   7.526
98607SOL     OW97717  12.578   3.216   6.187
98607SOL    HW197718  12.565   3.310   6.171
98607SOL    HW297719  12.673   3.205   6.186
98608SOL     OW97720  11.585   4.547  12.142
98608SOL    HW197721  11.520   4.601  12.098
98608SOL    HW297722  11.538   4.507  12.214
98609SOL     OW97723   7.996   6.570   3.443
98609SOL    HW197724   8.090   6.558   3.459
98609SOL    HW297725   7.991   6.635   3.372
98610SOL     OW97726   8.600  13.640   0.375
98610SOL    HW197727   8.584  13.586   0.299
98610SOL    HW297728   8.533  13.614   0.439
98611SOL     OW97729  12.783  10.726   8.072
98611SOL    HW197730  12.755  10.818   8.081
98611SOL    HW297731  12.702  10.676   8.079
98612SOL     OW97732  13.006   3.185   0.802
98612SOL    HW197733  12.969   3.098   0.789
98612SOL    HW297734  13.072   3.194   0.734
98613SOL     OW97735  10.193   3.792  13.446
98613SOL    HW197736  10.264   3.733  13.470
98613SOL    HW297737  10.124   3.735  13.412
98614SOL     OW97738  12.965  10.927   9.070
98614SOL    HW197739  13.025  10.867   9.115
98614SOL    HW297740  12.906  10.957   9.139
98615SOL     OW97741   7.926   7.860   3.818
98615SOL    HW197742   7.992   7.865   3.886
98615SOL    HW297743   7.850   7.905   3.855
98616SOL     OW97744   3.447  13.495  10.686
98616SOL    HW197745   3.425  13.588  10.692
98616SOL    HW297746   3.451  13.477  10.592
98617SOL     OW97747  11.872  10.378   9.893
98617SOL    HW197748  11.816  10.357   9.968
98617SOL    HW297749  11.868  10.473   9.886
98618SOL     OW97750   5.983   1.992  14.805
98618SOL    HW197751   6.072   1.967  14.830
98618SOL    HW297752   5.931   1.978   0.003
98619SOL     OW97753   7.791   1.940   5.094
98619SOL    HW197754   7.765   1.942   5.002
98619SOL    HW297755   7.709   1.933   5.142
98620SOL     OW97756  14.249   9.775  11.870
98620SOL    HW197757  14.167   9.729  11.885
98620SOL    HW297758  14.296   9.770  11.953
98621SOL     OW97759  13.889  12.934   1.995
98621SOL    HW197760  13.854  12.893   2.074
98621SOL    HW297761  13.962  12.987   2.027
98622SOL     OW97762   4.470   7.126   0.535
98622SOL    HW197763   4.391   7.075   0.552
98622SOL    HW297764   4.534   7.094   0.599
98623SOL     OW97765   8.749  12.099   6.986
98623SOL    HW197766   8.694  12.090   6.908
98623SOL    HW297767   8.823  12.152   6.957
98624SOL     OW97768   1.601   3.536   5.608
98624SOL    HW197769   1.592   3.487   5.526
98624SOL    HW297770   1.622   3.625   5.581
98625SOL     OW97771   3.738   1.909   3.309
98625SOL    HW197772   3.748   1.867   3.394
98625SOL    HW297773   3.762   2.000   3.324
98626SOL     OW97774   0.311  13.260  11.657
98626SOL    HW197775   0.257  13.193  11.615
98626SOL    HW297776   0.258  13.340  11.653
98627SOL     OW97777   7.226  11.899  10.491
98627SOL    HW197778   7.306  11.915  10.440
98627SOL    HW297779   7.195  11.814  10.461
98628SOL     OW97780  13.378   6.967  11.686
98628SOL    HW197781  13.295   6.920  11.677
98628SOL    HW297782  13.357   7.041  11.743
98629SOL     OW97783  10.451   7.388  12.777
98629SOL    HW197784  10.369   7.437  12.778
98629SOL    HW297785  10.438   7.317  12.840
98630SOL     OW97786   1.034   6.980   2.838
98630SOL    HW197787   0.955   6.952   2.884
98630SOL    HW297788   1.006   7.057   2.788
98631SOL     OW97789  12.943  13.333   3.492
98631SOL    HW197790  12.891  13.266   3.448
98631SOL    HW297791  13.033  13.302   3.486
98632SOL     OW97792   1.167   3.316   1.429
98632SOL    HW197793   1.131   3.383   1.488
98632SOL    HW297794   1.160   3.354   1.342
98633SOL     OW97795   1.280   8.914   2.499
98633SOL    HW197796   1.262   9.002   2.533
98633SOL    HW297797   1.226   8.907   2.421
98634SOL     OW97798   2.903   1.370  11.590
98634SOL    HW197799   2.850   1.294  11.566
98634SOL    HW297800   2.977   1.333  11.638
98635SOL     OW97801   2.242   6.765   1.214
98635SOL    HW197802   2.256   6.794   1.304
98635SOL    HW297803   2.190   6.835   1.174
98636SOL     OW97804   7.012  13.554   9.554
98636SOL    HW197805   6.939  13.495   9.575
98636SOL    HW297806   6.995  13.581   9.464
98637SOL     OW97807   6.971   9.053   2.377
98637SOL    HW197808   7.042   9.115   2.359
98637SOL    HW297809   6.999   8.973   2.332
98638SOL     OW97810  14.453  10.343  13.209
98638SOL    HW197811  14.483  10.410  13.148
98638SOL    HW297812  14.434  10.267  13.155
98639SOL     OW97813   1.898   2.444   9.147
98639SOL    HW197814   1.874   2.352   9.134
98639SOL    HW297815   1.894   2.482   9.060
98640SOL     OW97816   9.111   3.114   2.976
98640SOL    HW197817   9.071   3.118   2.889
98640SOL    HW297818   9.049   3.062   3.028
98641SOL     OW97819  10.606   7.753   3.745
98641SOL    HW197820  10.622   7.846   3.758
98641SOL    HW297821  10.513   7.747   3.723
98642SOL     OW97822   0.971  11.328   2.238
98642SOL    HW197823   1.046  11.293   2.286
98642SOL    HW297824   0.896  11.279   2.271
98643SOL     OW97825  11.050   4.776   7.906
98643SOL    HW197826  11.086   4.834   7.839
98643SOL    HW297827  10.971   4.820   7.937
98644SOL     OW97828   7.939   7.940   9.193
98644SOL    HW197829   7.888   7.869   9.153
98644SOL    HW297830   7.916   8.017   9.141
98645SOL     OW97831   5.487  11.188   6.877
98645SOL    HW197832   5.401  11.152   6.853
98645SOL    HW297833   5.474  11.222   6.966
98646SOL     OW97834   2.467   4.296   2.099
98646SOL    HW197835   2.451   4.255   2.015
98646SOL    HW297836   2.413   4.375   2.098
98647SOL     OW97837  13.359   3.048  10.805
98647SOL    HW197838  13.411   2.971  10.829
98647SOL    HW297839  13.270   3.015  10.797
98648SOL     OW97840  11.747   4.326   9.716
98648SOL    HW197841  11.761   4.297   9.806
98648SOL    HW297842  11.681   4.395   9.723
98649SOL     OW97843   7.664   7.790   1.416
98649SOL    HW197844   7.738   7.782   1.356
98649SOL    HW297845   7.676   7.876   1.458
98650SOL     OW97846  14.739   7.222   4.005
98650SOL    HW197847  14.799   7.147   3.997
98650SOL    HW297848  14.737   7.241   4.098
98651SOL     OW97849   8.234  10.952   0.014
98651SOL    HW197850   8.245  10.862  14.866
98651SOL    HW297851   8.177  10.993  14.831
98652SOL     OW97852   2.444   3.449   6.613
98652SOL    HW197853   2.445   3.366   6.660
98652SOL    HW297854   2.516   3.499   6.650
98653SOL     OW97855   0.446   8.475   9.152
98653SOL    HW197856   0.388   8.428   9.212
98653SOL    HW297857   0.533   8.439   9.170
98654SOL     OW97858   3.453  14.156   2.692
98654SOL    HW197859   3.460  14.213   2.768
98654SOL    HW297860   3.394  14.203   2.633
98655SOL     OW97861   9.894   4.123  13.270
98655SOL    HW197862   9.858   4.205  13.238
98655SOL    HW297863   9.974   4.110  13.218
98656SOL     OW97864   8.401   4.540   0.805
98656SOL    HW197865   8.329   4.512   0.861
98656SOL    HW297866   8.380   4.629   0.779
98657SOL     OW97867  13.684  11.075   1.249
98657SOL    HW197868  13.617  11.012   1.278
98657SOL    HW297869  13.634  11.153   1.225
98658SOL     OW97870  13.967   5.671  10.302
98658SOL    HW197871  13.900   5.673  10.370
98658SOL    HW297872  13.930   5.616  10.233
98659SOL     OW97873  13.826   4.212   3.060
98659SOL    HW197874  13.812   4.228   3.154
98659SOL    HW297875  13.739   4.193   3.026
98660SOL     OW97876   9.883  14.121   3.317
98660SOL    HW197877   9.869  14.214   3.305
98660SOL    HW297878   9.961  14.115   3.371
98661SOL     OW97879   7.524  12.820  13.061
98661SOL    HW197880   7.544  12.874  12.984
98661SOL    HW297881   7.489  12.882  13.125
98662SOL     OW97882   7.553   0.060  14.659
98662SOL    HW197883   7.535   0.054  14.753
98662SOL    HW297884   7.469   0.085  14.621
98663SOL     OW97885   3.847  12.707   3.753
98663SOL    HW197886   3.847  12.703   3.849
98663SOL    HW297887   3.868  12.798   3.732
98664SOL     OW97888   7.199   3.983   9.178
98664SOL    HW197889   7.151   3.912   9.136
98664SOL    HW297890   7.175   4.061   9.128
98665SOL     OW97891  13.248   3.679  12.780
98665SOL    HW197892  13.278   3.716  12.697
98665SOL    HW297893  13.169   3.629  12.757
98666SOL     OW97894  13.515   6.326  11.150
98666SOL    HW197895  13.510   6.399  11.088
98666SOL    HW297896  13.519   6.368  11.236
98667SOL     OW97897   0.945   8.633   3.303
98667SOL    HW197898   0.933   8.591   3.389
98667SOL    HW297899   0.886   8.585   3.245
98668SOL     OW97900  11.774   3.514   0.624
98668SOL    HW197901  11.843   3.467   0.672
98668SOL    HW297902  11.695   3.499   0.676
98669SOL     OW97903   8.840  14.541   4.240
98669SOL    HW197904   8.883  14.569   4.160
98669SOL    HW297905   8.874  14.600   4.308
98670SOL     OW97906  13.374  11.037  10.631
98670SOL    HW197907  13.332  10.999  10.708
98670SOL    HW297908  13.306  11.039  10.564
98671SOL     OW97909   7.567   8.535   9.145
98671SOL    HW197910   7.569   8.575   9.233
98671SOL    HW297911   7.585   8.609   9.086
98672SOL     OW97912  10.629  10.917  10.585
98672SOL    HW197913  10.632  10.883  10.675
98672SOL    HW297914  10.720  10.934  10.563
98673SOL     OW97915   0.818   1.469   7.218
98673SOL    HW197916   0.728   1.460   7.251
98673SOL    HW297917   0.872   1.473   7.296
98674SOL     OW97918  13.917   0.952   6.234
98674SOL    HW197919  13.935   1.046   6.230
98674SOL    HW297920  13.865   0.934   6.156
98675SOL     OW97921   5.069   4.758   4.696
98675SOL    HW197922   5.121   4.825   4.741
98675SOL    HW297923   5.078   4.680   4.751
98676SOL     OW97924   6.561   7.347   3.976
98676SOL    HW197925   6.643   7.396   3.964
98676SOL    HW297926   6.583   7.258   3.949
98677SOL     OW97927  14.679  12.318   5.505
98677SOL    HW197928  14.682  12.265   5.425
98677SOL    HW297929  14.636  12.400   5.478
98678SOL     OW97930   1.871   1.580   7.432
98678SOL    HW197931   1.826   1.648   7.482
98678SOL    HW297932   1.821   1.573   7.350
98679SOL     OW97933  10.280   7.418   0.681
98679SOL    HW197934  10.372   7.436   0.662
98679SOL    HW297935  10.235   7.430   0.598
98680SOL     OW97936   4.222  10.817  11.407
98680SOL    HW197937   4.140  10.784  11.373
98680SOL    HW297938   4.198  10.866  11.486
98681SOL     OW97939   4.858   2.259   8.698
98681SOL    HW197940   4.831   2.175   8.663
98681SOL    HW297941   4.923   2.238   8.764
98682SOL     OW97942   2.185   5.416   0.798
98682SOL    HW197943   2.240   5.405   0.876
98682SOL    HW297944   2.165   5.509   0.795
98683SOL     OW97945   7.497  11.015   7.579
98683SOL    HW197946   7.552  11.057   7.513
98683SOL    HW297947   7.408  11.027   7.546
98684SOL     OW97948   4.814   3.551  11.865
98684SOL    HW197949   4.823   3.520  11.775
98684SOL    HW297950   4.823   3.646  11.859
98685SOL     OW97951  14.512   9.632   9.984
98685SOL    HW197952  14.504   9.564  10.050
98685SOL    HW297953  14.517   9.714  10.034
98686SOL     OW97954   3.717   8.188  12.178
98686SOL    HW197955   3.627   8.215  12.161
98686SOL    HW297956   3.763   8.202  12.095
98687SOL     OW97957   5.990  12.509   9.245
98687SOL    HW197958   6.024  12.455   9.316
98687SOL    HW297959   5.896  12.494   9.246
98688SOL     OW97960   6.239   3.308   4.290
98688SOL    HW197961   6.237   3.333   4.198
98688SOL    HW297962   6.186   3.374   4.334
98689SOL     OW97963   4.599  11.445   9.127
98689SOL    HW197964   4.564  11.530   9.100
98689SOL    HW297965   4.536  11.381   9.094
98690SOL     OW97966   3.702  13.910  14.223
98690SOL    HW197967   3.670  13.836  14.275
98690SOL    HW297968   3.627  13.969  14.219
98691SOL     OW97969  10.273  10.092  14.579
98691SOL    HW197970  10.286  10.000  14.602
98691SOL    HW297971  10.360  10.130  14.583
98692SOL     OW97972   8.389   8.018  14.102
98692SOL    HW197973   8.385   7.922  14.100
98692SOL    HW297974   8.395   8.040  14.194
98693SOL     OW97975   1.421   5.394   2.427
98693SOL    HW197976   1.395   5.310   2.465
98693SOL    HW297977   1.490   5.371   2.365
98694SOL     OW97978  12.755   1.075   1.435
98694SOL    HW197979  12.822   1.120   1.488
98694SOL    HW297980  12.700   1.145   1.402
98695SOL     OW97981   1.912   6.452   4.076
98695SOL    HW197982   2.005   6.442   4.055
98695SOL    HW297983   1.877   6.363   4.072
98696SOL     OW97984   7.000   6.707   3.565
98696SOL    HW197985   6.908   6.681   3.567
98696SOL    HW297986   7.041   6.647   3.502
98697SOL     OW97987   3.716   4.382  13.564
98697SOL    HW197988   3.811   4.397  13.563
98697SOL    HW297989   3.685   4.431  13.641
98698SOL     OW97990   9.381   7.012   6.162
98698SOL    HW197991   9.343   6.964   6.236
98698SOL    HW297992   9.375   6.951   6.088
98699SOL     OW97993   9.465  12.891   5.966
98699SOL    HW197994   9.520  12.958   5.925
98699SOL    HW297995   9.465  12.819   5.903
98700SOL     OW97996   7.613   9.259   5.941
98700SOL    HW197997   7.533   9.310   5.947
98700SOL    HW297998   7.613   9.225   5.851
98701SOL     OW97999  11.897   3.557   4.170
98701SOL    HW198000  11.883   3.469   4.137
98701SOL    HW298001  11.847   3.561   4.252
98702SOL     OW98002  11.475   6.125   6.965
98702SOL    HW198003  11.503   6.130   6.874
98702SOL    HW298004  11.418   6.048   6.968
98703SOL     OW98005   9.646  10.647   7.077
98703SOL    HW198006   9.597  10.697   7.142
98703SOL    HW298007   9.586  10.639   7.003
98704SOL     OW98008   2.298  12.963  12.683
98704SOL    HW198009   2.250  13.000  12.608
98704SOL    HW298010   2.346  13.037  12.720
98705SOL     OW98011  13.119  10.773   9.214
98705SOL    HW198012  13.106  10.687   9.255
98705SOL    HW298013  13.202  10.765   9.167
98706SOL     OW98014   4.752  10.611  12.270
98706SOL    HW198015   4.795  10.583  12.351
98706SOL    HW298016   4.661  10.625  12.295
98707SOL     OW98017   1.176  11.137   6.472
98707SOL    HW198018   1.262  11.177   6.482
98707SOL    HW298019   1.120  11.207   6.439
98708SOL     OW98020  11.637   5.625   3.826
98708SOL    HW198021  11.702   5.598   3.762
98708SOL    HW298022  11.612   5.713   3.799
98709SOL     OW98023   7.125   9.216  14.266
98709SOL    HW198024   7.136   9.282  14.198
98709SOL    HW298025   7.031   9.217  14.287
98710SOL     OW98026  10.239   4.295  12.756
98710SOL    HW198027  10.150   4.318  12.782
98710SOL    HW298028  10.234   4.203  12.731
98711SOL     OW98029   4.276   0.283  12.077
98711SOL    HW198030   4.292   0.212  12.139
98711SOL    HW298031   4.296   0.363  12.127
98712SOL     OW98032  11.178   5.910   4.543
98712SOL    HW198033  11.210   5.996   4.516
98712SOL    HW298034  11.157   5.920   4.636
98713SOL     OW98035  12.172  10.932   7.628
98713SOL    HW198036  12.185  11.026   7.617
98713SOL    HW298037  12.247  10.892   7.585
98714SOL     OW98038   2.712   4.862  11.252
98714SOL    HW198039   2.786   4.921  11.263
98714SOL    HW298040   2.689   4.836  11.342
98715SOL     OW98041   1.212  10.282  12.173
98715SOL    HW198042   1.260  10.291  12.090
98715SOL    HW298043   1.144  10.217  12.154
98716SOL     OW98044   8.322   9.684   1.201
98716SOL    HW198045   8.354   9.689   1.292
98716SOL    HW298046   8.229   9.663   1.209
98717SOL     OW98047  13.830   2.992   4.142
98717SOL    HW198048  13.752   3.019   4.191
98717SOL    HW298049  13.884   2.947   4.207
98718SOL     OW98050   7.941   0.128   1.267
98718SOL    HW198051   8.002   0.180   1.216
98718SOL    HW298052   7.897   0.191   1.324
98719SOL     OW98053   2.664   8.991  12.880
98719SOL    HW198054   2.576   8.986  12.845
98719SOL    HW298055   2.689   8.900  12.897
98720SOL     OW98056   8.927  10.324   6.103
98720SOL    HW198057   8.938  10.238   6.063
98720SOL    HW298058   8.859  10.312   6.168
98721SOL     OW98059   8.689   4.362   8.889
98721SOL    HW198060   8.642   4.324   8.814
98721SOL    HW298061   8.782   4.352   8.867
98722SOL     OW98062   8.462   2.640   1.965
98722SOL    HW198063   8.533   2.585   1.932
98722SOL    HW298064   8.507   2.708   2.016
98723SOL     OW98065  10.254   9.010  12.062
98723SOL    HW198066  10.159   9.020  12.061
98723SOL    HW298067  10.269   8.935  12.120
98724SOL     OW98068   9.946   9.696   3.394
98724SOL    HW198069   9.879   9.703   3.326
98724SOL    HW298070   9.998   9.775   3.385
98725SOL     OW98071  13.344   1.252  10.380
98725SOL    HW198072  13.356   1.284  10.291
98725SOL    HW298073  13.386   1.167  10.382
98726SOL     OW98074   8.183   1.082   2.086
98726SOL    HW198075   8.185   0.999   2.134
98726SOL    HW298076   8.236   1.065   2.008
98727SOL     OW98077   6.967   5.895  13.787
98727SOL    HW198078   6.922   5.818  13.820
98727SOL    HW298079   6.904   5.937  13.728
98728SOL     OW98080  10.286  14.263  12.427
98728SOL    HW198081  10.298  14.352  12.393
98728SOL    HW298082  10.376  14.231  12.440
98729SOL     OW98083  12.109   1.009  14.729
98729SOL    HW198084  12.088   1.059  14.808
98729SOL    HW298085  12.098   0.917  14.756
98730SOL     OW98086   5.415   8.283  14.226
98730SOL    HW198087   5.361   8.362  14.233
98730SOL    HW298088   5.485   8.296  14.290
98731SOL     OW98089  14.862  10.725   3.742
98731SOL    HW198090   0.036  10.789   3.698
98731SOL    HW298091   0.039  10.657   3.771
98732SOL     OW98092   4.462   5.831   3.047
98732SOL    HW198093   4.421   5.812   2.963
98732SOL    HW298094   4.556   5.827   3.029
98733SOL     OW98095   6.741   7.605  13.843
98733SOL    HW198096   6.657   7.633  13.807
98733SOL    HW298097   6.804   7.668  13.807
98734SOL     OW98098   5.930  14.557   7.243
98734SOL    HW198099   5.841  14.590   7.235
98734SOL    HW298100   5.920  14.464   7.265
98735SOL     OW98101   1.565   8.147   2.584
98735SOL    HW198102   1.514   8.152   2.665
98735SOL    HW298103   1.545   8.060   2.549
98736SOL     OW98104  10.740   5.812   7.698
98736SOL    HW198105  10.715   5.768   7.616
98736SOL    HW298106  10.815   5.762   7.730
98737SOL     OW98107  13.613   9.218   8.588
98737SOL    HW198108  13.556   9.165   8.643
98737SOL    HW298109  13.554   9.275   8.539
98738SOL     OW98110   4.341   5.422   4.454
98738SOL    HW198111   4.406   5.363   4.417
98738SOL    HW298112   4.391   5.481   4.510
98739SOL     OW98113   6.418   9.211   3.682
98739SOL    HW198114   6.396   9.192   3.773
98739SOL    HW298115   6.437   9.304   3.681
98740SOL     OW98116   1.740  11.687   0.924
98740SOL    HW198117   1.778  11.676   0.837
98740SOL    HW298118   1.815  11.710   0.980
98741SOL     OW98119   7.613   1.017  14.072
98741SOL    HW198120   7.675   1.015  14.145
98741SOL    HW298121   7.558   1.094  14.089
98742SOL     OW98122  11.953   6.362   0.473
98742SOL    HW198123  12.020   6.404   0.418
98742SOL    HW298124  11.870   6.393   0.436
98743SOL     OW98125   0.987  10.462   7.242
98743SOL    HW198126   1.009  10.536   7.298
98743SOL    HW298127   0.959  10.501   7.159
98744SOL     OW98128  12.548   7.689  13.919
98744SOL    HW198129  12.466   7.640  13.929
98744SOL    HW298130  12.555   7.740  13.999
98745SOL     OW98131   5.819   6.946  11.474
98745SOL    HW198132   5.802   6.917  11.563
98745SOL    HW298133   5.736   6.985  11.445
98746SOL     OW98134   2.674  12.740   2.512
98746SOL    HW198135   2.624  12.822   2.518
98746SOL    HW298136   2.684  12.725   2.418
98747SOL     OW98137   0.013  11.555   7.789
98747SOL    HW198138   0.050  11.482   7.838
98747SOL    HW298139  14.847  11.514   7.717
98748SOL     OW98140   8.519   2.159  10.779
98748SOL    HW198141   8.553   2.206  10.703
98748SOL    HW298142   8.589   2.166  10.844
98749SOL     OW98143   4.868  14.879   3.614
98749SOL    HW198144   4.929  14.832   3.671
98749SOL    HW298145   4.849  14.818   3.543
98750SOL     OW98146  14.125   4.285   5.837
98750SOL    HW198147  14.119   4.257   5.929
98750SOL    HW298148  14.216   4.312   5.826
98751SOL     OW98149   5.002   5.255  10.911
98751SOL    HW198150   4.988   5.345  10.940
98751SOL    HW298151   5.097   5.244  10.909
98752SOL     OW98152   5.749   5.129  10.392
98752SOL    HW198153   5.804   5.061  10.353
98752SOL    HW298154   5.702   5.168  10.317
98753SOL     OW98155   2.487   6.143   6.874
98753SOL    HW198156   2.444   6.228   6.860
98753SOL    HW298157   2.469   6.093   6.795
98754SOL     OW98158   5.750   6.148   3.940
98754SOL    HW198159   5.794   6.221   3.982
98754SOL    HW298160   5.807   6.124   3.867
98755SOL     OW98161  13.806   2.251   5.528
98755SOL    HW198162  13.768   2.267   5.614
98755SOL    HW298163  13.839   2.161   5.532
98756SOL     OW98164   0.492   9.322   7.568
98756SOL    HW198165   0.410   9.358   7.603
98756SOL    HW298166   0.483   9.332   7.473
98757SOL     OW98167   7.122   5.314  10.487
98757SOL    HW198168   7.069   5.303  10.566
98757SOL    HW298169   7.140   5.225  10.457
98758SOL     OW98170   3.786   7.968  14.292
98758SOL    HW198171   3.726   7.904  14.331
98758SOL    HW298172   3.867   7.920  14.277
98759SOL     OW98173  10.512   5.238   7.596
98759SOL    HW198174  10.525   5.182   7.672
98759SOL    HW298175  10.547   5.323   7.623
98760SOL     OW98176  11.818  11.662   4.869
98760SOL    HW198177  11.765  11.584   4.854
98760SOL    HW298178  11.790  11.694   4.955
98761SOL     OW98179  13.144   2.492   1.472
98761SOL    HW198180  13.096   2.419   1.512
98761SOL    HW298181  13.230   2.455   1.451
98762SOL     OW98182  12.333  10.509  12.349
98762SOL    HW198183  12.365  10.536  12.263
98762SOL    HW298184  12.409  10.514  12.406
98763SOL     OW98185  14.417  11.075   5.191
98763SOL    HW198186  14.448  11.009   5.253
98763SOL    HW298187  14.491  11.135   5.180
98764SOL     OW98188  10.857   2.942  12.684
98764SOL    HW198189  10.927   2.994  12.647
98764SOL    HW298190  10.779   2.966  12.634
98765SOL     OW98191   2.655  12.281  13.149
98765SOL    HW198192   2.584  12.220  13.127
98765SOL    HW298193   2.726  12.258  13.090
98766SOL     OW98194   3.589   1.504   2.414
98766SOL    HW198195   3.665   1.516   2.472
98766SOL    HW298196   3.556   1.592   2.399
98767SOL     OW98197  11.240   5.040  14.440
98767SOL    HW198198  11.284   5.121  14.468
98767SOL    HW298199  11.153   5.045  14.480
98768SOL     OW98200   6.545   2.360   6.028
98768SOL    HW198201   6.486   2.339   6.101
98768SOL    HW298202   6.624   2.394   6.070
98769SOL     OW98203   0.060   6.642   7.470
98769SOL    HW198204   0.111   6.612   7.544
98769SOL    HW298205   0.023   6.562   7.432
98770SOL     OW98206  13.197  14.207   0.987
98770SOL    HW198207  13.251  14.235   1.061
98770SOL    HW298208  13.242  14.240   0.909
98771SOL     OW98209  10.906  12.363   4.963
98771SOL    HW198210  10.921  12.422   5.036
98771SOL    HW298211  10.840  12.301   4.995
98772SOL     OW98212   8.240   2.882   1.740
98772SOL    HW198213   8.203   2.934   1.811
98772SOL    HW298214   8.221   2.791   1.763
98773SOL     OW98215   9.937   6.320   7.398
98773SOL    HW198216   9.906   6.244   7.349
98773SOL    HW298217   9.865   6.384   7.391
98774SOL     OW98218   2.293  13.417   0.185
98774SOL    HW198219   2.339  13.334   0.182
98774SOL    HW298220   2.263  13.431   0.094
98775SOL     OW98221  11.959  13.852   6.006
98775SOL    HW198222  12.034  13.910   5.995
98775SOL    HW298223  11.993  13.777   6.054
98776SOL     OW98224   2.168   4.540  11.755
98776SOL    HW198225   2.136   4.532  11.665
98776SOL    HW298226   2.112   4.607  11.795
98777SOL     OW98227   6.399   7.177  13.870
98777SOL    HW198228   6.344   7.172  13.792
98777SOL    HW298229   6.358   7.118  13.933
98778SOL     OW98230   6.032  10.025   9.410
98778SOL    HW198231   6.030  10.070   9.326
98778SOL    HW298232   6.038   9.932   9.387
98779SOL     OW98233   7.143  11.043   4.681
98779SOL    HW198234   7.050  11.023   4.688
98779SOL    HW298235   7.184  10.960   4.657
98780SOL     OW98236  14.769   1.657   5.110
98780SOL    HW198237  14.761   1.594   5.182
98780SOL    HW298238  14.798   1.738   5.153
98781SOL     OW98239  10.457   3.334   7.702
98781SOL    HW198240  10.433   3.244   7.684
98781SOL    HW298241  10.376   3.376   7.729
98782SOL     OW98242   6.981  10.340  14.108
98782SOL    HW198243   6.897  10.294  14.106
98782SOL    HW298244   6.965  10.422  14.061
98783SOL     OW98245  11.807   4.061  13.364
98783SOL    HW198246  11.819   4.012  13.283
98783SOL    HW298247  11.814   3.995  13.433
98784SOL     OW98248   8.591   1.199   9.273
98784SOL    HW198249   8.651   1.272   9.288
98784SOL    HW298250   8.513   1.241   9.235
98785SOL     OW98251  12.674  10.056  14.330
98785SOL    HW198252  12.751  10.047  14.274
98785SOL    HW298253  12.630  10.135  14.298
98786SOL     OW98254  11.138   6.923   8.129
98786SOL    HW198255  11.190   7.003   8.138
98786SOL    HW298256  11.053   6.954   8.097
98787SOL     OW98257   7.103   4.129  10.787
98787SOL    HW198258   7.084   4.176  10.706
98787SOL    HW298259   7.191   4.095  10.775
98788SOL     OW98260  11.009  13.167  14.796
98788SOL    HW198261  10.973  13.113  14.726
98788SOL    HW298262  11.074  13.112  14.839
98789SOL     OW98263   6.256   7.792   2.341
98789SOL    HW198264   6.248   7.881   2.305
98789SOL    HW298265   6.249   7.804   2.435
98790SOL     OW98266   6.524   9.851   8.786
98790SOL    HW198267   6.538   9.942   8.758
98790SOL    HW298268   6.433   9.833   8.763
98791SOL     OW98269  13.416  11.709   8.854
98791SOL    HW198270  13.395  11.785   8.799
98791SOL    HW298271  13.359  11.639   8.821
98792SOL     OW98272   0.459   0.814  13.040
98792SOL    HW198273   0.416   0.756  12.976
98792SOL    HW298274   0.413   0.898  13.030
98793SOL     OW98275   4.966  10.457   4.044
98793SOL    HW198276   4.880  10.432   4.077
98793SOL    HW298277   5.022  10.381   4.063
98794SOL     OW98278   7.570   6.085  12.012
98794SOL    HW198279   7.505   6.147  11.979
98794SOL    HW298280   7.521   6.004  12.029
98795SOL     OW98281   7.766  12.943   0.583
98795SOL    HW198282   7.724  12.891   0.514
98795SOL    HW298283   7.859  12.939   0.563
98796SOL     OW98284  11.427  11.193   8.312
98796SOL    HW198285  11.422  11.285   8.286
98796SOL    HW298286  11.516  11.166   8.289
98797SOL     OW98287   8.510  13.651  10.835
98797SOL    HW198288   8.431  13.701  10.820
98797SOL    HW298289   8.559  13.702  10.900
98798SOL     OW98290  11.454  13.531  12.123
98798SOL    HW198291  11.370  13.559  12.159
98798SOL    HW298292  11.439  13.442  12.093
98799SOL     OW98293   1.329   6.098   4.764
98799SOL    HW198294   1.289   6.056   4.688
98799SOL    HW298295   1.385   6.166   4.728
98800SOL     OW98296   5.310   1.915  13.248
98800SOL    HW198297   5.264   1.907  13.164
98800SOL    HW298298   5.301   1.828  13.288
98801SOL     OW98299   5.096   9.528   8.203
98801SOL    HW198300   5.001   9.535   8.210
98801SOL    HW298301   5.110   9.464   8.133
98802SOL     OW98302  13.220   2.762   5.938
98802SOL    HW198303  13.282   2.821   5.893
98802SOL    HW298304  13.250   2.762   6.029
98803SOL     OW98305   1.958   8.182   4.229
98803SOL    HW198306   2.017   8.156   4.299
98803SOL    HW298307   1.886   8.227   4.273
98804SOL     OW98308   0.822   0.716  11.326
98804SOL    HW198309   0.854   0.693  11.238
98804SOL    HW298310   0.732   0.744  11.312
98805SOL     OW98311  11.703  10.135  13.930
98805SOL    HW198312  11.763  10.161  13.999
98805SOL    HW298313  11.744  10.164  13.849
98806SOL     OW98314   2.860  10.997   1.941
98806SOL    HW198315   2.908  10.929   1.893
98806SOL    HW298316   2.906  11.078   1.919
98807SOL     OW98317   9.474   4.771   4.067
98807SOL    HW198318   9.479   4.686   4.022
98807SOL    HW298319   9.423   4.753   4.146
98808SOL     OW98320  10.723   2.044  13.442
98808SOL    HW198321  10.661   2.041  13.516
98808SOL    HW298322  10.801   2.086  13.478
98809SOL     OW98323  12.802   1.530  13.610
98809SOL    HW198324  12.788   1.625  13.603
98809SOL    HW298325  12.887   1.516  13.569
98810SOL     OW98326  12.951   3.344   9.220
98810SOL    HW198327  13.037   3.384   9.208
98810SOL    HW298328  12.889   3.414   9.201
98811SOL     OW98329   0.607  11.467   0.628
98811SOL    HW198330   0.637  11.457   0.537
98811SOL    HW298331   0.526  11.517   0.621
98812SOL     OW98332  11.817   3.379   7.356
98812SOL    HW198333  11.748   3.439   7.384
98812SOL    HW298334  11.792   3.294   7.392
98813SOL     OW98335   0.794   0.956   4.159
98813SOL    HW198336   0.772   0.871   4.123
98813SOL    HW298337   0.883   0.945   4.194
98814SOL     OW98338   0.576   3.097   8.747
98814SOL    HW198339   0.566   3.052   8.831
98814SOL    HW298340   0.487   3.120   8.721
98815SOL     OW98341   6.036  12.277  10.299
98815SOL    HW198342   5.948  12.264  10.335
98815SOL    HW298343   6.052  12.199  10.246
98816SOL     OW98344  12.679   6.727   2.202
98816SOL    HW198345  12.645   6.639   2.186
98816SOL    HW298346  12.635   6.755   2.283
98817SOL     OW98347   2.579  12.039   2.068
98817SOL    HW198348   2.636  11.973   2.108
98817SOL    HW298349   2.602  12.121   2.113
98818SOL     OW98350   6.711   2.632   5.531
98818SOL    HW198351   6.652   2.672   5.467
98818SOL    HW298352   6.653   2.588   5.593
98819SOL     OW98353   2.772   0.550   1.998
98819SOL    HW198354   2.854   0.545   2.048
98819SOL    HW298355   2.766   0.642   1.972
98820SOL     OW98356   1.043  13.016  14.847
98820SOL    HW198357   1.063  12.948  14.782
98820SOL    HW298358   1.119  13.075  14.843
98821SOL     OW98359  13.567   9.734  10.896
98821SOL    HW198360  13.566   9.639  10.908
98821SOL    HW298361  13.475   9.757  10.880
98822SOL     OW98362  12.237   7.640   0.283
98822SOL    HW198363  12.275   7.568   0.233
98822SOL    HW298364  12.243   7.612   0.374
98823SOL     OW98365   7.433   9.660  13.628
98823SOL    HW198366   7.411   9.585  13.683
98823SOL    HW298367   7.525   9.649  13.607
98824SOL     OW98368   2.796   6.752   0.745
98824SOL    HW198369   2.821   6.764   0.653
98824SOL    HW298370   2.815   6.660   0.764
98825SOL     OW98371   9.785   6.268   4.319
98825SOL    HW198372   9.825   6.185   4.291
98825SOL    HW298373   9.731   6.294   4.245
98826SOL     OW98374   8.047  13.029   6.695
98826SOL    HW198375   8.027  12.958   6.755
98826SOL    HW298376   8.061  12.986   6.610
98827SOL     OW98377   4.649  10.550   8.261
98827SOL    HW198378   4.586  10.487   8.297
98827SOL    HW298379   4.662  10.614   8.331
98828SOL     OW98380   6.947   5.185   4.435
98828SOL    HW198381   6.929   5.271   4.397
98828SOL    HW298382   6.869   5.133   4.416
98829SOL     OW98383  10.491   2.449  12.279
98829SOL    HW198384  10.498   2.512  12.207
98829SOL    HW298385  10.432   2.491  12.341
98830SOL     OW98386   9.865  10.408  11.689
98830SOL    HW198387   9.858  10.492  11.643
98830SOL    HW298388   9.932  10.423  11.756
98831SOL     OW98389   5.934   6.655   2.636
98831SOL    HW198390   5.971   6.743   2.648
98831SOL    HW298391   6.010   6.599   2.620
98832SOL     OW98392   7.670   2.416  14.386
98832SOL    HW198393   7.679   2.505  14.420
98832SOL    HW298394   7.608   2.424  14.314
98833SOL     OW98395   4.383  12.940  10.334
98833SOL    HW198396   4.434  12.884  10.393
98833SOL    HW298397   4.425  13.025  10.339
98834SOL     OW98398   2.666  13.622  12.140
98834SOL    HW198399   2.698  13.543  12.184
98834SOL    HW298400   2.711  13.694  12.183
98835SOL     OW98401   2.247   7.894  11.321
98835SOL    HW198402   2.259   7.817  11.265
98835SOL    HW298403   2.308   7.958  11.285
98836SOL     OW98404   0.571   5.108   0.070
98836SOL    HW198405   0.575   5.168   0.144
98836SOL    HW298406   0.651   5.056   0.076
98837SOL     OW98407   2.592   0.348   0.454
98837SOL    HW198408   2.614   0.299   0.533
98837SOL    HW298409   2.621   0.437   0.472
98838SOL     OW98410  11.079   6.559   5.120
98838SOL    HW198411  11.030   6.490   5.165
98838SOL    HW298412  11.171   6.532   5.128
98839SOL     OW98413  12.394   4.934  13.263
98839SOL    HW198414  12.319   4.901  13.214
98839SOL    HW298415  12.377   4.908  13.354
98840SOL     OW98416   1.899   0.770   8.359
98840SOL    HW198417   1.927   0.848   8.408
98840SOL    HW298418   1.817   0.744   8.401
98841SOL     OW98419   5.137   3.017   8.746
98841SOL    HW198420   5.063   3.038   8.688
98841SOL    HW298421   5.164   3.102   8.780
98842SOL     OW98422   5.207   5.780   4.472
98842SOL    HW198423   5.239   5.870   4.480
98842SOL    HW298424   5.118   5.784   4.507
98843SOL     OW98425   8.473  10.553   4.061
98843SOL    HW198426   8.446  10.529   4.150
98843SOL    HW298427   8.565  10.579   4.071
98844SOL     OW98428  11.360   1.497  13.476
98844SOL    HW198429  11.443   1.541  13.460
98844SOL    HW298430  11.359   1.480  13.570
98845SOL     OW98431  11.324   5.240   2.974
98845SOL    HW198432  11.276   5.164   3.005
98845SOL    HW298433  11.414   5.225   3.003
98846SOL     OW98434   4.106   6.941  11.064
98846SOL    HW198435   4.090   6.866  11.006
98846SOL    HW298436   4.027   6.994  11.056
98847SOL     OW98437  13.342   5.447   1.207
98847SOL    HW198438  13.300   5.380   1.261
98847SOL    HW298439  13.270   5.490   1.161
98848SOL     OW98440   2.596   9.610   4.820
98848SOL    HW198441   2.520   9.576   4.867
98848SOL    HW298442   2.615   9.694   4.863
98849SOL     OW98443  10.193   8.504   6.379
98849SOL    HW198444  10.225   8.416   6.358
98849SOL    HW298445  10.127   8.490   6.446
98850SOL     OW98446   3.305   6.479  13.558
98850SOL    HW198447   3.314   6.393  13.517
98850SOL    HW298448   3.394   6.502  13.586
98851SOL     OW98449   7.250  11.952   4.213
98851SOL    HW198450   7.241  11.962   4.118
98851SOL    HW298451   7.345  11.953   4.228
98852SOL     OW98452   0.475   4.215   0.642
98852SOL    HW198453   0.508   4.251   0.560
98852SOL    HW298454   0.530   4.255   0.709
98853SOL     OW98455   6.021   5.068   4.233
98853SOL    HW198456   5.958   5.133   4.201
98853SOL    HW298457   6.024   5.002   4.163
98854SOL     OW98458   8.963   8.170   4.730
98854SOL    HW198459   8.954   8.195   4.638
98854SOL    HW298460   8.998   8.248   4.772
98855SOL     OW98461   7.371  10.955   0.383
98855SOL    HW198462   7.464  10.953   0.405
98855SOL    HW298463   7.334  10.876   0.423
98856SOL     OW98464  12.226   0.390   2.331
98856SOL    HW198465  12.312   0.432   2.336
98856SOL    HW298466  12.173   0.435   2.397
98857SOL     OW98467   0.989  11.982   3.095
98857SOL    HW198468   0.938  12.039   3.038
98857SOL    HW298469   0.945  11.897   3.089
98858SOL     OW98470  10.213  11.858   7.554
98858SOL    HW198471  10.234  11.950   7.565
98858SOL    HW298472  10.295  11.812   7.573
98859SOL     OW98473  10.165  10.952   1.964
98859SOL    HW198474  10.237  11.004   1.930
98859SOL    HW298475  10.185  10.862   1.940
98860SOL     OW98476   5.824   1.665   0.766
98860SOL    HW198477   5.897   1.649   0.827
98860SOL    HW298478   5.788   1.579   0.747
98861SOL     OW98479   2.452  13.711  13.838
98861SOL    HW198480   2.534  13.679  13.800
98861SOL    HW298481   2.408  13.756  13.766
98862SOL     OW98482   0.401  14.020  14.677
98862SOL    HW198483   0.388  14.062  14.592
98862SOL    HW298484   0.402  14.092  14.740
98863SOL     OW98485  11.246   3.424   4.448
98863SOL    HW198486  11.260   3.517   4.463
98863SOL    HW298487  11.327   3.393   4.407
98864SOL     OW98488   5.554   8.718   0.303
98864SOL    HW198489   5.574   8.800   0.348
98864SOL    HW298490   5.497   8.670   0.363
98865SOL     OW98491   6.040  11.456   1.677
98865SOL    HW198492   5.973  11.394   1.648
98865SOL    HW298493   5.994  11.516   1.735
98866SOL     OW98494   3.987   3.309  14.482
98866SOL    HW198495   3.977   3.227  14.530
98866SOL    HW298496   3.934   3.297  14.403
98867SOL     OW98497  11.299   6.893  12.961
98867SOL    HW198498  11.362   6.872  12.892
98867SOL    HW298499  11.352   6.900  13.040
98868SOL     OW98500   3.828  11.583   9.764
98868SOL    HW198501   3.852  11.655   9.822
98868SOL    HW298502   3.792  11.516   9.822
98869SOL     OW98503   0.574   3.218  13.061
98869SOL    HW198504   0.660   3.256  13.082
98869SOL    HW298505   0.593   3.125  13.048
98870SOL     OW98506   7.676   8.455   4.545
98870SOL    HW198507   7.582   8.473   4.533
98870SOL    HW298508   7.707   8.528   4.599
98871SOL     OW98509   5.419   4.422  13.709
98871SOL    HW198510   5.461   4.394  13.627
98871SOL    HW298511   5.334   4.377  13.708
98872SOL     OW98512  11.527   8.976   6.895
98872SOL    HW198513  11.477   9.057   6.885
98872SOL    HW298514  11.522   8.957   6.989
98873SOL     OW98515   7.957   7.799   5.415
98873SOL    HW198516   8.021   7.791   5.345
98873SOL    HW298517   7.906   7.877   5.392
98874SOL     OW98518   9.577  12.250   8.114
98874SOL    HW198519   9.660  12.226   8.156
98874SOL    HW298520   9.518  12.270   8.186
98875SOL     OW98521  10.413  11.213   1.247
98875SOL    HW198522  10.387  11.301   1.219
98875SOL    HW298523  10.494  11.195   1.197
98876SOL     OW98524  12.685  14.403  13.284
98876SOL    HW198525  12.671  14.366  13.371
98876SOL    HW298526  12.776  14.432  13.284
98877SOL     OW98527   6.355  11.010   9.838
98877SOL    HW198528   6.432  11.066   9.845
98877SOL    HW298529   6.323  11.023   9.749
98878SOL     OW98530  11.425   6.616   2.651
98878SOL    HW198531  11.464   6.659   2.575
98878SOL    HW298532  11.370   6.684   2.691
98879SOL     OW98533  11.107   6.146   3.849
98879SOL    HW198534  11.189   6.190   3.873
98879SOL    HW298535  11.060   6.210   3.796
98880SOL     OW98536   0.650   4.342   5.570
98880SOL    HW198537   0.580   4.383   5.519
98880SOL    HW298538   0.605   4.292   5.638
98881SOL     OW98539   8.455   6.796  13.615
98881SOL    HW198540   8.502   6.817  13.696
98881SOL    HW298541   8.523   6.763  13.556
98882SOL     OW98542   8.892   5.823  10.845
98882SOL    HW198543   8.984   5.845  10.854
98882SOL    HW298544   8.886   5.772  10.765
98883SOL     OW98545  14.083   9.956  14.777
98883SOL    HW198546  14.147  10.002  14.723
98883SOL    HW298547  14.106   9.864  14.768
98884SOL     OW98548   4.664   3.521   6.238
98884SOL    HW198549   4.688   3.430   6.251
98884SOL    HW298550   4.621   3.547   6.319
98885SOL     OW98551  10.415   4.368   2.930
98885SOL    HW198552  10.398   4.458   2.957
98885SOL    HW298553  10.328   4.331   2.914
98886SOL     OW98554  10.021  11.168   2.176
98886SOL    HW198555  10.027  11.074   2.160
98886SOL    HW298556   9.987  11.205   2.095
98887SOL     OW98557   1.008  10.727   5.840
98887SOL    HW198558   1.104  10.720   5.843
98887SOL    HW298559   0.991  10.808   5.791
98888SOL     OW98560  12.951   6.651  13.016
98888SOL    HW198561  12.898   6.634  12.939
98888SOL    HW298562  13.035   6.684  12.982
98889SOL     OW98563   8.822   4.651   7.001
98889SOL    HW198564   8.777   4.587   6.946
98889SOL    HW298565   8.810   4.735   6.956
98890SOL     OW98566   6.361  12.766   7.177
98890SOL    HW198567   6.308  12.692   7.205
98890SOL    HW298568   6.350  12.769   7.082
98891SOL     OW98569   0.170   2.725   3.426
98891SOL    HW198570   0.161   2.809   3.472
98891SOL    HW298571   0.094   2.674   3.452
98892SOL     OW98572   1.827   0.799  10.082
98892SOL    HW198573   1.745   0.778  10.037
98892SOL    HW298574   1.893   0.796  10.013
98893SOL     OW98575  10.866  14.600   1.931
98893SOL    HW198576  10.878  14.694   1.944
98893SOL    HW298577  10.773  14.585   1.949
98894SOL     OW98578   6.044   0.805   4.515
98894SOL    HW198579   5.973   0.841   4.463
98894SOL    HW298580   6.003   0.735   4.567
98895SOL     OW98581   4.866   2.987  13.569
98895SOL    HW198582   4.921   3.037  13.629
98895SOL    HW298583   4.847   2.906  13.615
98896SOL     OW98584   1.770  13.241   9.557
98896SOL    HW198585   1.734  13.156   9.582
98896SOL    HW298586   1.761  13.244   9.462
98897SOL     OW98587   1.438  11.694   4.850
98897SOL    HW198588   1.354  11.739   4.855
98897SOL    HW298589   1.468  11.710   4.760
98898SOL     OW98590   5.401  11.686   2.128
98898SOL    HW198591   5.471  11.676   2.063
98898SOL    HW298592   5.395  11.781   2.142
98899SOL     OW98593   2.212  11.822   2.011
98899SOL    HW198594   2.268  11.746   2.026
98899SOL    HW298595   2.157  11.796   1.938
98900SOL     OW98596  13.685   4.558   0.909
98900SOL    HW198597  13.599   4.590   0.934
98900SOL    HW298598  13.677   4.462   0.912
98901SOL     OW98599   6.408   9.472  11.051
98901SOL    HW198600   6.337   9.472  10.986
98901SOL    HW298601   6.365   9.498  11.133
98902SOL     OW98602   4.991   0.495   2.380
98902SOL    HW198603   4.954   0.579   2.355
98902SOL    HW298604   4.921   0.451   2.428
98903SOL     OW98605  11.749  13.393  14.387
98903SOL    HW198606  11.770  13.306  14.354
98903SOL    HW298607  11.823  13.448  14.361
98904SOL     OW98608  14.223  11.203   5.317
98904SOL    HW198609  14.305  11.184   5.271
98904SOL    HW298610  14.183  11.117   5.331
98905SOL     OW98611   4.328   9.013   8.694
98905SOL    HW198612   4.273   9.024   8.771
98905SOL    HW298613   4.363   8.924   8.702
98906SOL     OW98614   0.287  12.788   4.263
98906SOL    HW198615   0.291  12.880   4.287
98906SOL    HW298616   0.226  12.749   4.326
98907SOL     OW98617   3.242  12.004   4.620
98907SOL    HW198618   3.286  12.053   4.550
98907SOL    HW298619   3.178  11.949   4.574
98908SOL     OW98620  11.210   1.502  10.447
98908SOL    HW198621  11.304   1.484  10.445
98908SOL    HW298622  11.204   1.598  10.452
98909SOL     OW98623   2.871   3.563   2.284
98909SOL    HW198624   2.944   3.620   2.304
98909SOL    HW298625   2.826   3.550   2.367
98910SOL     OW98626   1.670   3.895   3.938
98910SOL    HW198627   1.653   3.953   3.863
98910SOL    HW298628   1.765   3.888   3.943
98911SOL     OW98629   2.837   9.590   2.750
98911SOL    HW198630   2.780   9.609   2.825
98911SOL    HW298631   2.897   9.665   2.747
98912SOL     OW98632  12.711  14.126   0.003
98912SOL    HW198633  12.636  14.066   0.000
98912SOL    HW298634  12.787  14.070  14.870
98913SOL     OW98635   4.741   5.008   4.079
98913SOL    HW198636   4.832   5.022   4.052
98913SOL    HW298637   4.697   4.979   3.999
98914SOL     OW98638  10.690   3.375   4.248
98914SOL    HW198639  10.686   3.281   4.266
98914SOL    HW298640  10.711   3.414   4.333
98915SOL     OW98641  12.969   2.509   6.849
98915SOL    HW198642  12.912   2.493   6.774
98915SOL    HW298643  13.057   2.496   6.815
98916SOL     OW98644   8.013   1.142   6.848
98916SOL    HW198645   8.037   1.059   6.807
98916SOL    HW298646   8.054   1.139   6.934
98917SOL     OW98647   5.897   0.205   1.786
98917SOL    HW198648   5.922   0.128   1.837
98917SOL    HW298649   5.966   0.269   1.802
98918SOL     OW98650   5.040   4.583   8.689
98918SOL    HW198651   4.979   4.558   8.619
98918SOL    HW298652   5.098   4.508   8.699
98919SOL     OW98653  13.914  14.081  10.057
98919SOL    HW198654  13.850  14.010  10.061
98919SOL    HW298655  13.865  14.160  10.079
98920SOL     OW98656   7.490  13.831  10.414
98920SOL    HW198657   7.405  13.853  10.375
98920SOL    HW298658   7.469  13.769  10.483
98921SOL     OW98659  11.258   3.514  13.408
98921SOL    HW198660  11.243   3.475  13.322
98921SOL    HW298661  11.351   3.538  13.408
98922SOL     OW98662   7.974   3.096   0.574
98922SOL    HW198663   8.014   3.090   0.661
98922SOL    HW298664   8.026   3.037   0.519
98923SOL     OW98665   3.365  10.832   4.644
98923SOL    HW198666   3.444  10.795   4.606
98923SOL    HW298667   3.294  10.779   4.607
98924SOL     OW98668   3.176   3.533   3.658
98924SOL    HW198669   3.244   3.561   3.719
98924SOL    HW298670   3.141   3.453   3.696
98925SOL     OW98671   0.905   3.967   0.419
98925SOL    HW198672   0.902   3.946   0.513
98925SOL    HW298673   0.871   4.056   0.414
98926SOL     OW98674   8.408   4.111  12.803
98926SOL    HW198675   8.440   4.155  12.725
98926SOL    HW298676   8.386   4.023  12.774
98927SOL     OW98677   0.505   3.117   7.839
98927SOL    HW198678   0.496   3.079   7.752
98927SOL    HW298679   0.563   3.056   7.886
98928SOL     OW98680  10.957  11.701   5.949
98928SOL    HW198681  10.870  11.663   5.942
98928SOL    HW298682  11.009  11.654   5.884
98929SOL     OW98683   2.907   5.515  12.670
98929SOL    HW198684   2.813   5.503  12.684
98929SOL    HW298685   2.915   5.602  12.631
98930SOL     OW98686  13.344   3.889  11.876
98930SOL    HW198687  13.295   3.845  11.945
98930SOL    HW298688  13.421   3.833  11.862
98931SOL     OW98689   8.279   4.402   7.892
98931SOL    HW198690   8.295   4.418   7.985
98931SOL    HW298691   8.322   4.319   7.873
98932SOL     OW98692   0.011   7.698   8.744
98932SOL    HW198693  14.877   7.784   8.780
98932SOL    HW298694  14.834   7.692   8.668
98933SOL     OW98695   8.812  10.499   8.822
98933SOL    HW198696   8.838  10.465   8.736
98933SOL    HW298697   8.741  10.441   8.850
98934SOL     OW98698   5.780   9.917   3.942
98934SOL    HW198699   5.875   9.905   3.937
98934SOL    HW298700   5.768  10.011   3.947
98935SOL     OW98701   4.282   3.557   2.726
98935SOL    HW198702   4.287   3.485   2.789
98935SOL    HW298703   4.359   3.611   2.744
98936SOL     OW98704   7.064   4.061   5.619
98936SOL    HW198705   7.055   3.974   5.580
98936SOL    HW298706   7.029   4.121   5.553
98937SOL     OW98707   8.462   8.242  13.065
98937SOL    HW198708   8.445   8.330  13.099
98937SOL    HW298709   8.384   8.222  13.012
98938SOL     OW98710   3.749  14.616  11.120
98938SOL    HW198711   3.711  14.654  11.200
98938SOL    HW298712   3.721  14.676  11.051
98939SOL     OW98713  11.136  14.035   9.288
98939SOL    HW198714  11.140  14.098   9.215
98939SOL    HW298715  11.224  13.996   9.289
98940SOL     OW98716  10.902  12.574   6.181
98940SOL    HW198717  10.872  12.633   6.250
98940SOL    HW298718  10.972  12.523   6.221
98941SOL     OW98719   8.344   9.231   0.231
98941SOL    HW198720   8.333   9.204   0.323
98941SOL    HW298721   8.439   9.237   0.220
98942SOL     OW98722   6.564   7.741   1.525
98942SOL    HW198723   6.638   7.799   1.545
98942SOL    HW298724   6.563   7.736   1.429
98943SOL     OW98725   1.108  11.836  11.181
98943SOL    HW198726   1.153  11.853  11.264
98943SOL    HW298727   1.076  11.921  11.153
98944SOL     OW98728  12.373   2.942   1.438
98944SOL    HW198729  12.349   2.880   1.368
98944SOL    HW298730  12.466   2.960   1.423
98945SOL     OW98731   5.020   1.930  12.145
98945SOL    HW198732   5.011   2.024  12.128
98945SOL    HW298733   4.941   1.892  12.106
98946SOL     OW98734   7.347   1.582   5.058
98946SOL    HW198735   7.370   1.656   5.116
98946SOL    HW298736   7.320   1.512   5.118
98947SOL     OW98737   0.948  10.107  10.849
98947SOL    HW198738   0.855  10.130  10.841
98947SOL    HW298739   0.994  10.190  10.836
98948SOL     OW98740  14.347   2.103   7.033
98948SOL    HW198741  14.298   2.146   6.962
98948SOL    HW298742  14.310   2.140   7.113
98949SOL     OW98743   2.546  12.477  10.278
98949SOL    HW198744   2.477  12.536  10.249
98949SOL    HW298745   2.617  12.490  10.216
98950SOL     OW98746   4.857  11.600   1.144
98950SOL    HW198747   4.805  11.553   1.080
98950SOL    HW298748   4.948  11.583   1.120
98951SOL     OW98749   0.477   6.951   4.571
98951SOL    HW198750   0.528   6.905   4.637
98951SOL    HW298751   0.387   6.923   4.587
98952SOL     OW98752  12.612   0.468   1.321
98952SOL    HW198753  12.519   0.465   1.344
98952SOL    HW298754  12.615   0.504   1.233
98953SOL     OW98755   5.350   1.683   2.610
98953SOL    HW198756   5.374   1.634   2.532
98953SOL    HW298757   5.410   1.757   2.612
98954SOL     OW98758   7.993   3.943   0.262
98954SOL    HW198759   8.000   3.923   0.355
98954SOL    HW298760   7.909   3.987   0.253
98955SOL     OW98761   7.316   5.908  11.986
98955SOL    HW198762   7.232   5.954  11.983
98955SOL    HW298763   7.368   5.950  11.919
98956SOL     OW98764   8.142   6.261   7.612
98956SOL    HW198765   8.205   6.312   7.663
98956SOL    HW298766   8.140   6.303   7.526
98957SOL     OW98767   8.423  12.036  12.063
98957SOL    HW198768   8.401  12.080  11.981
98957SOL    HW298769   8.517  12.053  12.076
98958SOL     OW98770  13.950   5.610   1.121
98958SOL    HW198771  13.897   5.659   1.058
98958SOL    HW298772  13.896   5.534   1.144
98959SOL     OW98773   0.794   3.009  11.714
98959SOL    HW198774   0.801   3.062  11.794
98959SOL    HW298775   0.700   3.000  11.700
98960SOL     OW98776   2.304   5.253  13.946
98960SOL    HW198777   2.284   5.341  13.978
98960SOL    HW298778   2.366   5.218  14.009
98961SOL     OW98779   0.519   9.764  11.250
98961SOL    HW198780   0.485   9.728  11.168
98961SOL    HW298781   0.590   9.705  11.275
98962SOL     OW98782  10.936  11.636  14.548
98962SOL    HW198783  10.909  11.627  14.457
98962SOL    HW298784  10.930  11.730  14.566
98963SOL     OW98785  12.191  11.694  13.525
98963SOL    HW198786  12.255  11.748  13.480
98963SOL    HW298787  12.125  11.755  13.557
98964SOL     OW98788  14.608  13.919  14.118
98964SOL    HW198789  14.699  13.937  14.142
98964SOL    HW298790  14.557  13.954  14.190
98965SOL     OW98791   7.555   0.864   7.330
98965SOL    HW198792   7.524   0.881   7.419
98965SOL    HW298793   7.574   0.771   7.328
98966SOL     OW98794   5.944   8.518  11.460
98966SOL    HW198795   6.018   8.574  11.481
98966SOL    HW298796   5.968   8.477  11.377
98967SOL     OW98797   2.917   2.020   6.157
98967SOL    HW198798   2.824   2.042   6.151
98967SOL    HW298799   2.924   1.969   6.238
98968SOL     OW98800  12.809   7.101   0.058
98968SOL    HW198801  12.873   7.170   0.074
98968SOL    HW298802  12.780   7.117  14.850
98969SOL     OW98803  13.473   9.306   7.490
98969SOL    HW198804  13.561   9.274   7.506
98969SOL    HW298805  13.478   9.347   7.404
98970SOL     OW98806  12.275   2.613   8.257
98970SOL    HW198807  12.306   2.691   8.212
98970SOL    HW298808  12.288   2.542   8.194
98971SOL     OW98809   6.217   2.946  10.602
98971SOL    HW198810   6.216   2.930  10.696
98971SOL    HW298811   6.168   2.873  10.564
98972SOL     OW98812  10.974  12.590  12.583
98972SOL    HW198813  10.988  12.586  12.678
98972SOL    HW298814  11.046  12.540  12.546
98973SOL     OW98815   8.631   4.180   2.654
98973SOL    HW198816   8.620   4.260   2.604
98973SOL    HW298817   8.626   4.110   2.589
98974SOL     OW98818   9.213   3.482   5.330
98974SOL    HW198819   9.156   3.553   5.359
98974SOL    HW298820   9.302   3.519   5.334
98975SOL     OW98821   9.252   7.335   2.603
98975SOL    HW198822   9.196   7.318   2.527
98975SOL    HW298823   9.277   7.427   2.595
98976SOL     OW98824  11.477   7.681   7.177
98976SOL    HW198825  11.431   7.764   7.185
98976SOL    HW298826  11.492   7.653   7.267
98977SOL     OW98827   5.589  10.816   3.746
98977SOL    HW198828   5.659  10.757   3.772
98977SOL    HW298829   5.510  10.777   3.784
98978SOL     OW98830  13.887   7.705   6.382
98978SOL    HW198831  13.866   7.613   6.362
98978SOL    HW298832  13.948   7.730   6.313
98979SOL     OW98833   2.504  14.102   8.555
98979SOL    HW198834   2.478  14.097   8.647
98979SOL    HW298835   2.509  14.011   8.526
98980SOL     OW98836   2.534   2.951   0.944
98980SOL    HW198837   2.473   3.021   0.965
98980SOL    HW298838   2.510   2.924   0.855
98981SOL     OW98839   9.352   2.580  13.277
98981SOL    HW198840   9.386   2.492  13.259
98981SOL    HW298841   9.430   2.631  13.299
98982SOL     OW98842  11.973   0.314   3.773
98982SOL    HW198843  12.059   0.353   3.790
98982SOL    HW298844  11.955   0.334   3.681
98983SOL     OW98845   7.383   4.274  14.556
98983SOL    HW198846   7.354   4.216  14.626
98983SOL    HW298847   7.474   4.293  14.576
98984SOL     OW98848  10.819  11.002   7.946
98984SOL    HW198849  10.747  10.960   7.898
98984SOL    HW298850  10.826  10.953   8.027
98985SOL     OW98851   0.492  14.785   3.310
98985SOL    HW198852   0.410  14.815   3.272
98985SOL    HW298853   0.491  14.820   3.399
98986SOL     OW98854  12.619   7.685  14.418
98986SOL    HW198855  12.628   7.599  14.458
98986SOL    HW298856  12.525   7.701  14.414
98987SOL     OW98857   2.003   1.107   0.795
98987SOL    HW198858   1.995   1.116   0.701
98987SOL    HW298859   2.061   1.178   0.822
98988SOL     OW98860   7.787   5.936   1.949
98988SOL    HW198861   7.723   5.876   1.910
98988SOL    HW298862   7.826   5.886   2.021
98989SOL     OW98863   5.717   4.716   0.950
98989SOL    HW198864   5.788   4.700   1.012
98989SOL    HW298865   5.671   4.792   0.985
98990SOL     OW98866   6.570   0.166   3.529
98990SOL    HW198867   6.487   0.214   3.537
98990SOL    HW298868   6.619   0.190   3.608
98991SOL     OW98869   9.469  10.900   4.827
98991SOL    HW198870   9.552  10.919   4.784
98991SOL    HW298871   9.464  10.805   4.831
98992SOL     OW98872   1.638   0.825   1.681
98992SOL    HW198873   1.588   0.745   1.697
98992SOL    HW298874   1.583   0.877   1.623
98993SOL     OW98875   2.984   8.990  12.486
98993SOL    HW198876   3.040   9.063  12.511
98993SOL    HW298877   2.935   9.021  12.410
98994SOL     OW98878  10.782  12.196  14.409
98994SOL    HW198879  10.808  12.164  14.323
98994SOL    HW298880  10.861  12.236  14.445
98995SOL     OW98881  13.719  12.726   7.371
98995SOL    HW198882  13.632  12.748   7.405
98995SOL    HW298883  13.761  12.678   7.442
98996SOL     OW98884   9.235  10.482   9.887
98996SOL    HW198885   9.229  10.571   9.923
98996SOL    HW298886   9.297  10.437   9.944
98997SOL     OW98887  10.533  11.258   1.924
98997SOL    HW198888  10.574  11.249   2.010
98997SOL    HW298889  10.601  11.298   1.869
98998SOL     OW98890  11.100   8.574   3.255
98998SOL    HW198891  11.064   8.575   3.344
98998SOL    HW298892  11.172   8.511   3.260
98999SOL     OW98893   7.660  10.952   7.906
98999SOL    HW198894   7.660  10.898   7.984
98999SOL    HW298895   7.697  10.897   7.838
99000SOL     OW98896  13.714  14.284  10.126
99000SOL    HW198897  13.639  14.226  10.136
99000SOL    HW298898  13.701  14.326  10.041
99001SOL     OW98899   7.013  10.285   0.384
99001SOL    HW198900   7.056  10.208   0.420
99001SOL    HW298901   6.942  10.250   0.330
99002SOL     OW98902   9.042  11.362   2.141
99002SOL    HW198903   8.992  11.424   2.087
99002SOL    HW298904   9.129  11.361   2.101
99003SOL     OW98905   3.564  10.796   8.578
99003SOL    HW198906   3.535  10.773   8.489
99003SOL    HW298907   3.651  10.836   8.565
99004SOL     OW98908   8.634   4.399   4.353
99004SOL    HW198909   8.651   4.326   4.293
99004SOL    HW298910   8.562   4.447   4.313
99005SOL     OW98911   6.814   9.909   1.449
99005SOL    HW198912   6.803   9.827   1.499
99005SOL    HW298913   6.880   9.957   1.498
99006SOL     OW98914  13.969  13.345   3.995
99006SOL    HW198915  14.005  13.257   4.008
99006SOL    HW298916  13.876  13.330   3.976
99007SOL     OW98917  12.645  13.195   1.500
99007SOL    HW198918  12.598  13.157   1.574
99007SOL    HW298919  12.667  13.120   1.444
99008SOL     OW98920   2.839  10.684  10.489
99008SOL    HW198921   2.908  10.618  10.487
99008SOL    HW298922   2.854  10.737  10.411
99009SOL     OW98923   1.086  13.972  14.503
99009SOL    HW198924   1.100  13.889  14.549
99009SOL    HW298925   0.996  13.966  14.470
99010SOL     OW98926   1.424   8.430   8.826
99010SOL    HW198927   1.512   8.454   8.798
99010SOL    HW298928   1.433   8.407   8.918
99011SOL     OW98929   2.492   8.525   9.559
99011SOL    HW198930   2.566   8.579   9.586
99011SOL    HW298931   2.517   8.494   9.472
99012SOL     OW98932   0.289   6.874  10.027
99012SOL    HW198933   0.281   6.781  10.007
99012SOL    HW298934   0.365   6.880  10.085
99013SOL     OW98935   2.990   1.142   8.194
99013SOL    HW198936   3.057   1.176   8.254
99013SOL    HW298937   2.909   1.143   8.246
99014SOL     OW98938   1.230   3.640   8.907
99014SOL    HW198939   1.246   3.717   8.962
99014SOL    HW298940   1.144   3.609   8.935
99015SOL     OW98941   1.817  10.969  10.711
99015SOL    HW198942   1.796  11.005  10.797
99015SOL    HW298943   1.912  10.968  10.708
99016SOL     OW98944   4.254   7.563   6.091
99016SOL    HW198945   4.289   7.590   6.176
99016SOL    HW298946   4.294   7.478   6.075
99017SOL     OW98947  13.848  12.758   3.096
99017SOL    HW198948  13.799  12.701   3.037
99017SOL    HW298949  13.938  12.725   3.090
99018SOL     OW98950  14.256   0.219   2.589
99018SOL    HW198951  14.286   0.202   2.678
99018SOL    HW298952  14.175   0.269   2.599
99019SOL     OW98953   2.416   6.128   0.628
99019SOL    HW198954   2.349   6.098   0.690
99019SOL    HW298955   2.498   6.089   0.660
99020SOL     OW98956   8.438   7.863   4.384
99020SOL    HW198957   8.530   7.842   4.365
99020SOL    HW298958   8.429   7.846   4.478
99021SOL     OW98959  13.281  13.022   1.487
99021SOL    HW198960  13.353  12.999   1.546
99021SOL    HW298961  13.203  13.020   1.542
99022SOL     OW98962   9.475   2.615  14.458
99022SOL    HW198963   9.401   2.643  14.405
99022SOL    HW298964   9.497   2.692  14.511
99023SOL     OW98965   7.472   9.503  11.780
99023SOL    HW198966   7.535   9.503  11.853
99023SOL    HW298967   7.523   9.529  11.704
99024SOL     OW98968  14.729   8.742  10.605
99024SOL    HW198969  14.705   8.661  10.650
99024SOL    HW298970  14.798   8.780  10.660
99025SOL     OW98971   0.628   4.019  13.905
99025SOL    HW198972   0.547   4.038  13.953
99025SOL    HW298973   0.697   4.057  13.959
99026SOL     OW98974   8.492  11.735   3.671
99026SOL    HW198975   8.459  11.795   3.738
99026SOL    HW298976   8.578  11.709   3.703
99027SOL     OW98977   3.592   0.239   1.538
99027SOL    HW198978   3.574   0.291   1.460
99027SOL    HW298979   3.602   0.149   1.505
99028SOL     OW98980   6.642  12.827   1.590
99028SOL    HW198981   6.582  12.900   1.605
99028SOL    HW298982   6.600  12.752   1.633
99029SOL     OW98983   3.049  13.571   4.080
99029SOL    HW198984   3.105  13.590   4.156
99029SOL    HW298985   2.960  13.579   4.114
99030SOL     OW98986   5.063  14.193  13.067
99030SOL    HW198987   4.986  14.186  13.124
99030SOL    HW298988   5.097  14.280  13.084
99031SOL     OW98989   7.905   4.018   4.639
99031SOL    HW198990   7.964   3.964   4.691
99031SOL    HW298991   7.931   4.003   4.549
99032SOL     OW98992  11.226   8.036  13.000
99032SOL    HW198993  11.208   8.026  12.907
99032SOL    HW298994  11.248   8.128  13.010
99033SOL     OW98995   1.971   2.809  13.584
99033SOL    HW198996   1.950   2.752  13.510
99033SOL    HW298997   1.998   2.891  13.543
99034SOL     OW98998   3.029  10.373  10.988
99034SOL    HW198999   3.033  10.293  10.935
99034SOL    HW299000   2.941  10.371  11.027
99035SOL     OW99001   1.715  12.821   3.153
99035SOL    HW199002   1.791  12.762   3.158
99035SOL    HW299003   1.745  12.901   3.196
99036SOL     OW99004   4.198   9.466   4.756
99036SOL    HW199005   4.154   9.386   4.784
99036SOL    HW299006   4.130   9.515   4.710
99037SOL     OW99007   1.113   3.626   8.315
99037SOL    HW199008   1.091   3.636   8.407
99037SOL    HW299009   1.092   3.535   8.295
99038SOL     OW99010   5.808   6.888   8.876
99038SOL    HW199011   5.876   6.926   8.820
99038SOL    HW299012   5.754   6.836   8.816
99039SOL     OW99013   4.229   2.272   6.300
99039SOL    HW199014   4.190   2.341   6.354
99039SOL    HW299015   4.305   2.242   6.351
99040SOL     OW99016   0.923  12.567   3.546
99040SOL    HW199017   0.923  12.473   3.567
99040SOL    HW299018   0.924  12.570   3.451
99041SOL     OW99019   3.696  12.168   3.108
99041SOL    HW199020   3.783  12.167   3.069
99041SOL    HW299021   3.683  12.079   3.141
99042SOL     OW99022   4.221   4.872   8.055
99042SOL    HW199023   4.179   4.833   7.979
99042SOL    HW299024   4.151   4.919   8.100
99043SOL     OW99025  11.966  13.418   5.290
99043SOL    HW199026  11.973  13.323   5.306
99043SOL    HW299027  11.898  13.447   5.351
99044SOL     OW99028  14.405   7.374  10.643
99044SOL    HW199029  14.400   7.382  10.548
99044SOL    HW299030  14.314   7.374  10.672
99045SOL     OW99031  12.976   3.873  12.203
99045SOL    HW199032  12.986   3.849  12.295
99045SOL    HW299033  12.908   3.814  12.170
99046SOL     OW99034  11.519  13.877   5.834
99046SOL    HW199035  11.511  13.881   5.739
99046SOL    HW299036  11.544  13.965   5.861
99047SOL     OW99037   1.061   6.685   5.859
99047SOL    HW199038   0.993   6.731   5.907
99047SOL    HW299039   1.076   6.605   5.909
99048SOL     OW99040  12.102  12.588  12.766
99048SOL    HW199041  12.088  12.643  12.843
99048SOL    HW299042  12.120  12.501  12.801
99049SOL     OW99043  10.102   7.138  14.760
99049SOL    HW199044  10.109   7.142  14.855
99049SOL    HW299045  10.011   7.161  14.742
99050SOL     OW99046   0.981   6.937   5.704
99050SOL    HW199047   1.062   6.944   5.753
99050SOL    HW299048   0.941   6.856   5.736
99051SOL     OW99049   8.776   1.745   4.679
99051SOL    HW199050   8.801   1.707   4.595
99051SOL    HW299051   8.839   1.708   4.742
99052SOL     OW99052   9.024  10.604   7.439
99052SOL    HW199053   8.950  10.559   7.399
99052SOL    HW299054   9.088  10.535   7.456
99053SOL     OW99055   4.708   4.034   9.265
99053SOL    HW199056   4.646   3.970   9.301
99053SOL    HW299057   4.733   4.089   9.340
99054SOL     OW99058  11.480  10.525  10.419
99054SOL    HW199059  11.482  10.477  10.502
99054SOL    HW299060  11.441  10.463  10.357
99055SOL     OW99061  14.035  14.224   9.566
99055SOL    HW199062  13.943  14.231   9.591
99055SOL    HW299063  14.040  14.140   9.520
99056SOL     OW99064   3.887  11.990   5.158
99056SOL    HW199065   3.835  11.947   5.090
99056SOL    HW299066   3.967  12.017   5.113
99057SOL     OW99067  11.413  11.197   7.967
99057SOL    HW199068  11.501  11.225   7.990
99057SOL    HW299069  11.358  11.273   7.984
99058SOL     OW99070  12.255  10.008   4.395
99058SOL    HW199071  12.259  10.038   4.304
99058SOL    HW299072  12.326  10.054   4.439
99059SOL     OW99073   8.398   9.368   8.712
99059SOL    HW199074   8.443   9.423   8.648
99059SOL    HW299075   8.447   9.286   8.711
99060SOL     OW99076   2.084  13.933   1.399
99060SOL    HW199077   2.071  14.014   1.448
99060SOL    HW299078   2.089  13.961   1.308
99061SOL     OW99079   6.361  12.221  10.836
99061SOL    HW199080   6.276  12.198  10.798
99061SOL    HW299081   6.353  12.197  10.928
99062SOL     OW99082  12.548   9.207   4.274
99062SOL    HW199083  12.583   9.291   4.244
99062SOL    HW299084  12.455   9.225   4.293
99063SOL     OW99085   8.471   4.567   6.071
99063SOL    HW199086   8.504   4.635   6.013
99063SOL    HW299087   8.376   4.578   6.069
99064SOL     OW99088   7.101   0.189  13.504
99064SOL    HW199089   7.071   0.111  13.457
99064SOL    HW299090   7.188   0.164  13.537
99065SOL     OW99091   9.369  13.515  12.185
99065SOL    HW199092   9.411  13.592  12.223
99065SOL    HW299093   9.438  13.473  12.134
99066SOL     OW99094  14.205  13.922  10.386
99066SOL    HW199095  14.187  13.904  10.478
99066SOL    HW299096  14.153  13.999  10.366
99067SOL     OW99097  10.261   0.926   1.750
99067SOL    HW199098  10.327   0.900   1.814
99067SOL    HW299099  10.219   1.003   1.788
99068SOL     OW99100  13.308  13.159   0.868
99068SOL    HW199101  13.306  13.245   0.825
99068SOL    HW299102  13.358  13.175   0.949
99069SOL     OW99103  13.824   8.529  10.735
99069SOL    HW199104  13.860   8.609  10.773
99069SOL    HW299105  13.772   8.559  10.661
99070SOL     OW99106  13.723   2.755   5.715
99070SOL    HW199107  13.675   2.727   5.637
99070SOL    HW299108  13.813   2.724   5.700
99071SOL     OW99109   5.262   1.522   9.911
99071SOL    HW199110   5.237   1.540   9.821
99071SOL    HW299111   5.182   1.538   9.962
99072SOL     OW99112   9.105   6.392   3.428
99072SOL    HW199113   9.029   6.336   3.445
99072SOL    HW299114   9.107   6.453   3.502
99073SOL     OW99115   0.422   3.859   2.032
99073SOL    HW199116   0.421   3.806   2.112
99073SOL    HW299117   0.390   3.945   2.060
99074SOL     OW99118   6.799   5.973   9.624
99074SOL    HW199119   6.790   5.925   9.542
99074SOL    HW299120   6.843   5.911   9.683
99075SOL     OW99121   7.169  11.843   1.153
99075SOL    HW199122   7.136  11.933   1.145
99075SOL    HW299123   7.227  11.845   1.228
99076SOL     OW99124  11.930   6.846   8.637
99076SOL    HW199125  11.967   6.770   8.682
99076SOL    HW299126  11.995   6.915   8.651
99077SOL     OW99127  12.971  10.666   2.558
99077SOL    HW199128  12.923  10.615   2.624
99077SOL    HW299129  12.910  10.733   2.529
99078SOL     OW99130   8.470   3.018  14.850
99078SOL    HW199131   8.463   3.068  14.768
99078SOL    HW299132   8.414   3.066   0.029
99079SOL     OW99133  13.604   6.771   2.570
99079SOL    HW199134  13.523   6.722   2.585
99079SOL    HW299135  13.643   6.782   2.656
99080SOL     OW99136  11.312   3.610  12.238
99080SOL    HW199137  11.345   3.520  12.235
99080SOL    HW299138  11.388   3.662  12.265
99081SOL     OW99139   7.629   2.197  11.033
99081SOL    HW199140   7.584   2.259  11.091
99081SOL    HW299141   7.558   2.152  10.988
99082SOL     OW99142  13.887   4.941   8.175
99082SOL    HW199143  13.861   4.881   8.245
99082SOL    HW299144  13.804   4.976   8.142
99083SOL     OW99145   6.401   1.227   2.829
99083SOL    HW199146   6.378   1.214   2.921
99083SOL    HW299147   6.374   1.146   2.786
99084SOL     OW99148   5.435   3.795   7.404
99084SOL    HW199149   5.350   3.759   7.378
99084SOL    HW299150   5.464   3.847   7.329
99085SOL     OW99151   3.284   2.941   0.298
99085SOL    HW199152   3.194   2.971   0.299
99085SOL    HW299153   3.313   2.954   0.208
99086SOL     OW99154  13.854   4.806   0.429
99086SOL    HW199155  13.859   4.813   0.334
99086SOL    HW299156  13.838   4.713   0.446
99087SOL     OW99157  13.403   9.611  11.367
99087SOL    HW199158  13.328   9.671  11.363
99087SOL    HW299159  13.455   9.632  11.290
99088SOL     OW99160   6.212   5.597  12.069
99088SOL    HW199161   6.294   5.622  12.027
99088SOL    HW299162   6.228   5.608  12.162
99089SOL     OW99163  12.685   6.793  14.254
99089SOL    HW199164  12.632   6.777  14.175
99089SOL    HW299165  12.774   6.802  14.222
99090SOL     OW99166  13.086  10.663   4.515
99090SOL    HW199167  13.046  10.735   4.564
99090SOL    HW299168  13.093  10.592   4.579
99091SOL     OW99169   7.183   3.260   9.657
99091SOL    HW199170   7.125   3.192   9.689
99091SOL    HW299171   7.241   3.215   9.595
99092SOL     OW99172   4.943   9.734   2.685
99092SOL    HW199173   5.035   9.757   2.671
99092SOL    HW299174   4.944   9.670   2.756
99093SOL     OW99175   3.255   3.077   6.292
99093SOL    HW199176   3.229   3.034   6.373
99093SOL    HW299177   3.187   3.053   6.229
99094SOL     OW99178  13.131  13.845   5.679
99094SOL    HW199179  13.119  13.813   5.589
99094SOL    HW299180  13.114  13.939   5.673
99095SOL     OW99181   0.887  11.112  11.602
99095SOL    HW199182   0.920  11.193  11.639
99095SOL    HW299183   0.963  11.054  11.597
99096SOL     OW99184   6.219  13.988  12.897
99096SOL    HW199185   6.262  14.030  12.823
99096SOL    HW299186   6.289  13.968  12.958
99097SOL     OW99187   6.718   2.940   1.574
99097SOL    HW199188   6.806   2.977   1.572
99097SOL    HW299189   6.700   2.914   1.484
99098SOL     OW99190   1.182  12.790   8.145
99098SOL    HW199191   1.106  12.731   8.147
99098SOL    HW299192   1.183  12.830   8.232
99099SOL     OW99193   5.823   3.082   3.216
99099SOL    HW199194   5.732   3.052   3.225
99099SOL    HW299195   5.853   3.095   3.306
99100SOL     OW99196   4.462   8.356  11.700
99100SOL    HW199197   4.459   8.441  11.656
99100SOL    HW299198   4.503   8.298  11.637
99101SOL     OW99199   4.539   8.597   8.930
99101SOL    HW199200   4.575   8.686   8.926
99101SOL    HW299201   4.613   8.541   8.905
99102SOL     OW99202  13.671   0.269  14.257
99102SOL    HW199203  13.736   0.324  14.212
99102SOL    HW299204  13.686   0.285  14.350
99103SOL     OW99205   8.239   4.148  10.476
99103SOL    HW199206   8.211   4.238  10.495
99103SOL    HW299207   8.189   4.122  10.399
99104SOL     OW99208   8.644  14.591   3.117
99104SOL    HW199209   8.573  14.651   3.139
99104SOL    HW299210   8.611  14.505   3.142
99105SOL     OW99211  11.601  12.468   1.686
99105SOL    HW199212  11.659  12.522   1.740
99105SOL    HW299213  11.541  12.427   1.749
99106SOL     OW99214  11.061   4.123   1.160
99106SOL    HW199215  11.144   4.121   1.112
99106SOL    HW299216  10.997   4.153   1.096
99107SOL     OW99217   0.431  13.809   3.429
99107SOL    HW199218   0.382  13.728   3.417
99107SOL    HW299219   0.492  13.812   3.355
99108SOL     OW99220   6.016  14.753   6.228
99108SOL    HW199221   6.071  14.684   6.191
99108SOL    HW299222   5.956  14.707   6.286
99109SOL     OW99223  12.305   1.181  12.980
99109SOL    HW199224  12.323   1.274  12.994
99109SOL    HW299225  12.211   1.177  12.969
99110SOL     OW99226  13.218   3.558   2.015
99110SOL    HW199227  13.299   3.521   1.980
99110SOL    HW299228  13.240   3.586   2.104
99111SOL     OW99229  13.037   9.550   5.573
99111SOL    HW199230  13.005   9.504   5.496
99111SOL    HW299231  13.085   9.626   5.538
99112SOL     OW99232  12.229   0.699  12.263
99112SOL    HW199233  12.210   0.631  12.327
99112SOL    HW299234  12.318   0.679  12.232
99113SOL     OW99235   7.750   6.931   4.187
99113SOL    HW199236   7.791   6.989   4.251
99113SOL    HW299237   7.747   6.983   4.106
99114SOL     OW99238   9.059   6.911   7.881
99114SOL    HW199239   8.965   6.908   7.900
99114SOL    HW299240   9.099   6.942   7.962
99115SOL     OW99241  14.699  14.119   4.701
99115SOL    HW199242  14.690  14.210   4.730
99115SOL    HW299243  14.767  14.122   4.633
99116SOL     OW99244  14.468  11.416   7.360
99116SOL    HW199245  14.492  11.483   7.296
99116SOL    HW299246  14.460  11.463   7.442
99117SOL     OW99247  10.882  10.204  10.727
99117SOL    HW199248  10.935  10.136  10.769
99117SOL    HW299249  10.910  10.202  10.636
99118SOL     OW99250   3.504   9.705   5.816
99118SOL    HW199251   3.424   9.675   5.772
99118SOL    HW299252   3.537   9.627   5.860
99119SOL     OW99253  10.752   5.092   2.434
99119SOL    HW199254  10.672   5.130   2.398
99119SOL    HW299255  10.783   5.157   2.497
99120SOL     OW99256   7.079   9.629  10.840
99120SOL    HW199257   7.169   9.601  10.823
99120SOL    HW299258   7.042   9.559  10.894
99121SOL     OW99259  11.987  12.154   5.358
99121SOL    HW199260  12.067  12.205   5.371
99121SOL    HW299261  11.919  12.219   5.343
99122SOL     OW99262   1.700   2.451  13.245
99122SOL    HW199263   1.636   2.382  13.263
99122SOL    HW299264   1.707   2.498  13.328
99123SOL     OW99265  12.052   9.052   3.744
99123SOL    HW199266  12.116   9.119   3.717
99123SOL    HW299267  11.972   9.077   3.698
99124SOL     OW99268  10.388   1.886   3.994
99124SOL    HW199269  10.398   1.964   4.049
99124SOL    HW299270  10.464   1.887   3.936
99125SOL     OW99271   5.801   8.052  13.155
99125SOL    HW199272   5.755   8.135  13.159
99125SOL    HW299273   5.793   8.025  13.063
99126SOL     OW99274   3.735  10.182   1.945
99126SOL    HW199275   3.815  10.225   1.918
99126SOL    HW299276   3.740  10.095   1.906
99127SOL     OW99277  13.628   1.283   2.353
99127SOL    HW199278  13.541   1.282   2.313
99127SOL    HW299279  13.612   1.312   2.443
99128SOL     OW99280  12.883   7.268   8.382
99128SOL    HW199281  12.887   7.362   8.370
99128SOL    HW299282  12.940   7.250   8.457
99129SOL     OW99283   0.860   9.715   8.554
99129SOL    HW199284   0.940   9.746   8.597
99129SOL    HW299285   0.892   9.665   8.479
99130SOL     OW99286   0.389  12.482   0.381
99130SOL    HW199287   0.302  12.516   0.401
99130SOL    HW299288   0.374  12.420   0.309
99131SOL     OW99289  11.851   9.713   4.755
99131SOL    HW199290  11.940   9.705   4.788
99131SOL    HW299291  11.805   9.766   4.820
99132SOL     OW99292   8.605  12.162  10.277
99132SOL    HW199293   8.589  12.135  10.186
99132SOL    HW299294   8.630  12.081  10.322
99133SOL     OW99295  12.778   3.167  10.459
99133SOL    HW199296  12.760   3.231  10.390
99133SOL    HW299297  12.692   3.131  10.481
99134SOL     OW99298  10.596   0.286   5.097
99134SOL    HW199299  10.621   0.323   5.012
99134SOL    HW299300  10.528   0.222   5.076
99135SOL     OW99301  10.645  13.678   8.247
99135SOL    HW199302  10.708  13.671   8.176
99135SOL    HW299303  10.668  13.760   8.292
99136SOL     OW99304   2.095  13.429   6.476
99136SOL    HW199305   2.056  13.362   6.532
99136SOL    HW299306   2.189  13.411   6.479
99137SOL     OW99307  11.957   5.675   0.730
99137SOL    HW199308  11.952   5.761   0.688
99137SOL    HW299309  11.931   5.614   0.662
99138SOL     OW99310   2.098   0.648   6.102
99138SOL    HW199311   2.024   0.696   6.139
99138SOL    HW299312   2.173   0.676   6.154
99139SOL     OW99313   1.218   8.302   3.242
99139SOL    HW199314   1.304   8.266   3.224
99139SOL    HW299315   1.235   8.391   3.275
99140SOL     OW99316   8.169   1.163   0.566
99140SOL    HW199317   8.205   1.200   0.485
99140SOL    HW299318   8.189   1.070   0.561
99141SOL     OW99319   1.343  14.275   3.917
99141SOL    HW199320   1.307  14.306   4.000
99141SOL    HW299321   1.382  14.353   3.878
99142SOL     OW99322   6.706   5.030   4.702
99142SOL    HW199323   6.797   5.023   4.731
99142SOL    HW299324   6.700   4.969   4.629
99143SOL     OW99325   4.529   4.994   7.015
99143SOL    HW199326   4.580   4.992   6.934
99143SOL    HW299327   4.572   5.062   7.068
99144SOL     OW99328   1.126   2.106  11.700
99144SOL    HW199329   1.098   2.122  11.790
99144SOL    HW299330   1.128   2.193  11.660
99145SOL     OW99331   7.091  11.382   6.406
99145SOL    HW199332   6.995  11.384   6.415
99145SOL    HW299333   7.106  11.371   6.312
99146SOL     OW99334   2.445   3.601   2.079
99146SOL    HW199335   2.501   3.547   2.135
99146SOL    HW299336   2.381   3.639   2.138
99147SOL     OW99337   4.663   8.277   4.479
99147SOL    HW199338   4.739   8.299   4.426
99147SOL    HW299339   4.698   8.231   4.555
99148SOL     OW99340   7.202   1.953   8.580
99148SOL    HW199341   7.266   2.024   8.593
99148SOL    HW299342   7.170   1.933   8.667
99149SOL     OW99343  12.700   1.248   6.194
99149SOL    HW199344  12.693   1.328   6.143
99149SOL    HW299345  12.728   1.181   6.131
99150SOL     OW99346  11.617   5.125  11.744
99150SOL    HW199347  11.554   5.151  11.810
99150SOL    HW299348  11.702   5.128  11.789
99151SOL     OW99349   9.306   5.123  13.461
99151SOL    HW199350   9.252   5.062  13.410
99151SOL    HW299351   9.300   5.206  13.413
99152SOL     OW99352   4.772   3.784  11.166
99152SOL    HW199353   4.746   3.734  11.244
99152SOL    HW299354   4.727   3.741  11.094
99153SOL     OW99355  11.033   5.421   2.535
99153SOL    HW199356  11.069   5.341   2.496
99153SOL    HW299357  11.037   5.486   2.466
99154SOL     OW99358   8.689  14.652   9.051
99154SOL    HW199359   8.768  14.607   9.081
99154SOL    HW299360   8.670  14.613   8.966
99155SOL     OW99361   2.920   0.747   0.129
99155SOL    HW199362   2.830   0.776   0.111
99155SOL    HW299363   2.917   0.652   0.120
99156SOL     OW99364   8.250   2.282  12.954
99156SOL    HW199365   8.284   2.213  12.897
99156SOL    HW299366   8.328   2.317  12.998
99157SOL     OW99367   6.944   3.066   1.096
99157SOL    HW199368   6.867   3.089   1.044
99157SOL    HW299369   6.994   3.007   1.040
99158SOL     OW99370   4.023   9.267   8.855
99158SOL    HW199371   4.022   9.324   8.778
99158SOL    HW299372   4.075   9.315   8.920
99159SOL     OW99373  13.629  10.605   6.064
99159SOL    HW199374  13.687  10.669   6.105
99159SOL    HW299375  13.685  10.555   6.005
99160SOL     OW99376   9.442   8.163   0.127
99160SOL    HW199377   9.407   8.212   0.201
99160SOL    HW299378   9.512   8.218   0.092
99161SOL     OW99379   7.460   1.095   8.582
99161SOL    HW199380   7.373   1.065   8.556
99161SOL    HW299381   7.505   1.016   8.611
99162SOL     OW99382   9.579  13.738   1.190
99162SOL    HW199383   9.512  13.670   1.187
99162SOL    HW299384   9.540  13.809   1.240
99163SOL     OW99385   5.955   8.415   9.576
99163SOL    HW199386   5.997   8.450   9.654
99163SOL    HW299387   5.973   8.480   9.508
99164SOL     OW99388   2.054   2.822  12.925
99164SOL    HW199389   2.049   2.726  12.920
99164SOL    HW299390   1.980   2.853  12.872
99165SOL     OW99391   4.287  11.834   0.891
99165SOL    HW199392   4.343  11.765   0.854
99165SOL    HW299393   4.324  11.852   0.977
99166SOL     OW99394  11.174   5.893   3.274
99166SOL    HW199395  11.192   5.986   3.284
99166SOL    HW299396  11.219   5.868   3.193
99167SOL     OW99397   2.233   9.333  11.520
99167SOL    HW199398   2.281   9.251  11.522
99167SOL    HW299399   2.299   9.401  11.537
99168SOL     OW99400  10.095   2.566   8.707
99168SOL    HW199401  10.058   2.563   8.795
99168SOL    HW299402  10.021   2.589   8.651
99169SOL     OW99403   6.634  13.158   1.498
99169SOL    HW199404   6.563  13.104   1.531
99169SOL    HW299405   6.590  13.228   1.448
99170SOL     OW99406  14.194   4.337   8.457
99170SOL    HW199407  14.148   4.421   8.453
99170SOL    HW299408  14.127   4.274   8.485
99171SOL     OW99409  11.560   1.279   5.343
99171SOL    HW199410  11.590   1.347   5.404
99171SOL    HW299411  11.558   1.199   5.396
99172SOL     OW99412  14.687   1.873   8.020
99172SOL    HW199413  14.639   1.936   8.074
99172SOL    HW299414  14.723   1.810   8.082
99173SOL     OW99415   3.588   5.358   3.026
99173SOL    HW199416   3.577   5.309   2.945
99173SOL    HW299417   3.498   5.381   3.052
99174SOL     OW99418   2.206  11.493   3.152
99174SOL    HW199419   2.166  11.463   3.234
99174SOL    HW299420   2.165  11.578   3.135
99175SOL     OW99421  12.252   0.586   1.384
99175SOL    HW199422  12.165   0.587   1.424
99175SOL    HW299423  12.236   0.579   1.290
99176SOL     OW99424   3.956   6.331   0.402
99176SOL    HW199425   3.895   6.349   0.474
99176SOL    HW299426   3.899   6.305   0.329
99177SOL     OW99427  13.404   6.702   4.861
99177SOL    HW199428  13.385   6.721   4.952
99177SOL    HW299429  13.338   6.750   4.812
99178SOL     OW99430   0.020   4.931  10.705
99178SOL    HW199431   0.070   4.849  10.700
99178SOL    HW299432   0.082   4.999  10.679
99179SOL     OW99433   8.251   1.803   6.921
99179SOL    HW199434   8.182   1.753   6.879
99179SOL    HW299435   8.264   1.760   7.006
99180SOL     OW99436   1.836  10.625  14.378
99180SOL    HW199437   1.801  10.618  14.289
99180SOL    HW299438   1.760  10.620  14.435
99181SOL     OW99439  10.336   9.030   0.900
99181SOL    HW199440  10.366   9.121   0.903
99181SOL    HW299441  10.241   9.036   0.912
99182SOL     OW99442   3.300   5.999   2.056
99182SOL    HW199443   3.336   5.963   1.975
99182SOL    HW299444   3.214   5.957   2.064
99183SOL     OW99445   2.223   8.217   0.920
99183SOL    HW199446   2.200   8.277   0.850
99183SOL    HW299447   2.143   8.207   0.972
99184SOL     OW99448   7.011   2.672  14.671
99184SOL    HW199449   6.946   2.678  14.741
99184SOL    HW299450   7.014   2.760  14.634
99185SOL     OW99451  13.533   0.305   0.355
99185SOL    HW199452  13.622   0.286   0.385
99185SOL    HW299453  13.497   0.363   0.423
99186SOL     OW99454   3.233  11.635   0.958
99186SOL    HW199455   3.287  11.605   0.884
99186SOL    HW299456   3.173  11.698   0.919
99187SOL     OW99457   9.080   3.834  10.039
99187SOL    HW199458   9.096   3.796  10.125
99187SOL    HW299459   9.109   3.925  10.048
99188SOL     OW99460   6.286   9.781  14.652
99188SOL    HW199461   6.225   9.851  14.630
99188SOL    HW299462   6.235   9.719  14.703
99189SOL     OW99463  11.716   6.375   6.085
99189SOL    HW199464  11.642   6.389   6.145
99189SOL    HW299465  11.716   6.452   6.029
99190SOL     OW99466  12.978   7.751  13.371
99190SOL    HW199467  13.006   7.841  13.357
99190SOL    HW299468  13.019   7.701  13.301
99191SOL     OW99469   6.770   3.353   6.390
99191SOL    HW199470   6.806   3.392   6.470
99191SOL    HW299471   6.839   3.295   6.359
99192SOL     OW99472  13.341   3.282   4.539
99192SOL    HW199473  13.414   3.343   4.551
99192SOL    HW299474  13.279   3.330   4.484
99193SOL     OW99475   1.329   9.836  12.407
99193SOL    HW199476   1.326   9.839  12.503
99193SOL    HW299477   1.404   9.890  12.384
99194SOL     OW99478   6.123   7.130   8.387
99194SOL    HW199479   6.099   7.046   8.347
99194SOL    HW299480   6.089   7.196   8.326
99195SOL     OW99481   7.185   8.512   5.296
99195SOL    HW199482   7.256   8.553   5.246
99195SOL    HW299483   7.226   8.485   5.378
99196SOL     OW99484   2.860   6.380  12.709
99196SOL    HW199485   2.799   6.398  12.780
99196SOL    HW299486   2.809   6.397  12.629
99197SOL     OW99487   8.877   5.492   0.252
99197SOL    HW199488   8.900   5.574   0.208
99197SOL    HW299489   8.807   5.516   0.313
99198SOL     OW99490   2.299   5.797   2.293
99198SOL    HW199491   2.244   5.770   2.219
99198SOL    HW299492   2.338   5.715   2.325
99199SOL     OW99493   3.715  10.102  14.200
99199SOL    HW199494   3.635  10.146  14.171
99199SOL    HW299495   3.716  10.020  14.152
99200SOL     OW99496   6.640   9.140   6.962
99200SOL    HW199497   6.617   9.080   6.891
99200SOL    HW299498   6.557   9.155   7.008
99201SOL     OW99499   6.810   2.333   5.070
99201SOL    HW199500   6.889   2.302   5.114
99201SOL    HW299501   6.765   2.386   5.136
99202SOL     OW99502   7.595   0.577   1.175
99202SOL    HW199503   7.611   0.514   1.105
99202SOL    HW299504   7.623   0.661   1.138
99203SOL     OW99505   7.903   5.538   3.460
99203SOL    HW199506   7.858   5.464   3.501
99203SOL    HW299507   7.992   5.506   3.443
99204SOL     OW99508  14.810  11.458   4.776
99204SOL    HW199509  14.724  11.481   4.742
99204SOL    HW299510  14.867  11.529   4.748
99205SOL     OW99511   0.001  14.090   9.635
99205SOL    HW199512   0.077  14.097   9.694
99205SOL    HW299513  14.851  14.001   9.649
99206SOL     OW99514   5.299   1.299  11.039
99206SOL    HW199515   5.238   1.342  11.099
99206SOL    HW299516   5.299   1.207  11.066
99207SOL     OW99517   1.941   0.809   5.657
99207SOL    HW199518   2.015   0.847   5.609
99207SOL    HW299519   1.933   0.720   5.623
99208SOL     OW99520   5.976   3.266   2.148
99208SOL    HW199521   5.935   3.207   2.211
99208SOL    HW299522   5.913   3.337   2.137
99209SOL     OW99523  13.930  13.747  13.708
99209SOL    HW199524  13.852  13.693  13.719
99209SOL    HW299525  13.992  13.690  13.663
99210SOL     OW99526   5.197   0.952   0.683
99210SOL    HW199527   5.109   0.986   0.698
99210SOL    HW299528   5.241   0.963   0.768
99211SOL     OW99529  12.187   4.114   1.024
99211SOL    HW199530  12.241   4.037   1.038
99211SOL    HW299531  12.196   4.165   1.104
99212SOL     OW99532  12.119  13.006   4.917
99212SOL    HW199533  12.033  13.008   4.959
99212SOL    HW299534  12.121  13.085   4.863
99213SOL     OW99535   3.149   0.121   8.917
99213SOL    HW199536   3.243   0.119   8.936
99213SOL    HW299537   3.123   0.029   8.914
99214SOL     OW99538   9.183   8.216  13.180
99214SOL    HW199539   9.266   8.245  13.219
99214SOL    HW299540   9.130   8.188  13.255
99215SOL     OW99541  10.663   0.501   6.925
99215SOL    HW199542  10.602   0.572   6.940
99215SOL    HW299543  10.715   0.497   7.005
99216SOL     OW99544  11.812   7.751   0.381
99216SOL    HW199545  11.876   7.738   0.311
99216SOL    HW299546  11.777   7.664   0.399
99217SOL     OW99547   5.496   1.304  11.590
99217SOL    HW199548   5.562   1.307  11.659
99217SOL    HW299549   5.425   1.359  11.622
99218SOL     OW99550   7.240   7.448   5.224
99218SOL    HW199551   7.244   7.511   5.296
99218SOL    HW299552   7.293   7.487   5.154
99219SOL     OW99553   5.939  12.299   4.068
99219SOL    HW199554   5.867  12.350   4.105
99219SOL    HW299555   5.969  12.243   4.139
99220SOL     OW99556   4.434   3.634   0.435
99220SOL    HW199557   4.362   3.636   0.498
99220SOL    HW299558   4.417   3.556   0.382
99221SOL     OW99559   2.829  13.998   8.554
99221SOL    HW199560   2.828  13.995   8.458
99221SOL    HW299561   2.845  14.090   8.575
99222SOL     OW99562   0.235   9.680  11.407
99222SOL    HW199563   0.330   9.671  11.412
99222SOL    HW299564   0.216   9.759  11.459
99223SOL     OW99565  14.411   6.633   3.020
99223SOL    HW199566  14.419   6.592   2.934
99223SOL    HW299567  14.501   6.654   3.045
99224SOL     OW99568   3.002   5.983  14.786
99224SOL    HW199569   2.983   5.922  14.715
99224SOL    HW299570   3.077   6.033  14.754
99225SOL     OW99571   3.808  12.067   0.274
99225SOL    HW199572   3.746  12.001   0.304
99225SOL    HW299573   3.894  12.027   0.287
99226SOL     OW99574   5.825  13.845   7.811
99226SOL    HW199575   5.753  13.898   7.777
99226SOL    HW299576   5.898  13.906   7.821
99227SOL     OW99577  10.777   7.012  10.913
99227SOL    HW199578  10.866   6.981  10.932
99227SOL    HW299579  10.787   7.062  10.832
99228SOL     OW99580   0.572  10.543  10.603
99228SOL    HW199581   0.500  10.556  10.541
99228SOL    HW299582   0.574  10.624  10.654
99229SOL     OW99583   1.111   4.857   9.513
99229SOL    HW199584   1.112   4.932   9.574
99229SOL    HW299585   1.029   4.868   9.464
99230SOL     OW99586   9.221  10.556   5.314
99230SOL    HW199587   9.307  10.557   5.356
99230SOL    HW299588   9.165  10.506   5.374
99231SOL     OW99589   5.126  14.724   4.826
99231SOL    HW199590   5.154  14.647   4.777
99231SOL    HW299591   5.148  14.798   4.770
99232SOL     OW99592   8.523   4.449  10.203
99232SOL    HW199593   8.606   4.477  10.164
99232SOL    HW299594   8.529   4.354  10.206
99233SOL     OW99595   7.163   5.824   8.984
99233SOL    HW199596   7.153   5.789   9.073
99233SOL    HW299597   7.075   5.819   8.946
99234SOL     OW99598   4.380   1.192   9.280
99234SOL    HW199599   4.469   1.157   9.276
99234SOL    HW299600   4.324   1.115   9.271
99235SOL     OW99601   1.126   4.536  10.063
99235SOL    HW199602   1.035   4.526  10.034
99235SOL    HW299603   1.177   4.532   9.982
99236SOL     OW99604   0.854  13.689   4.073
99236SOL    HW199605   0.919  13.726   4.013
99236SOL    HW299606   0.899  13.684   4.157
99237SOL     OW99607  13.912   4.482   7.731
99237SOL    HW199608  13.979   4.468   7.664
99237SOL    HW299609  13.869   4.397   7.739
99238SOL     OW99610   9.087  14.090  14.641
99238SOL    HW199611   9.150  14.140  14.692
99238SOL    HW299612   9.012  14.080  14.699
99239SOL     OW99613   2.596   5.723   7.951
99239SOL    HW199614   2.510   5.764   7.946
99239SOL    HW299615   2.631   5.729   7.862
99240SOL     OW99616   9.495   9.545  13.226
99240SOL    HW199617   9.431   9.595  13.174
99240SOL    HW299618   9.509   9.465  13.175
99241SOL     OW99619   5.484   6.700  14.251
99241SOL    HW199620   5.511   6.711  14.160
99241SOL    HW299621   5.516   6.779  14.295
99242SOL     OW99622   7.613   8.837  11.325
99242SOL    HW199623   7.550   8.774  11.290
99242SOL    HW299624   7.559   8.900  11.373
99243SOL     OW99625   6.419   0.153   9.640
99243SOL    HW199626   6.479   0.198   9.700
99243SOL    HW299627   6.430   0.060   9.661
99244SOL     OW99628   5.379   3.795   9.337
99244SOL    HW199629   5.340   3.715   9.301
99244SOL    HW299630   5.365   3.861   9.270
99245SOL     OW99631   9.970  14.422   1.795
99245SOL    HW199632   9.913  14.364   1.745
99245SOL    HW299633   9.946  14.510   1.767
99246SOL     OW99634   2.520   6.571   7.677
99246SOL    HW199635   2.545   6.479   7.675
99246SOL    HW299636   2.452   6.580   7.611
99247SOL     OW99637  13.341  13.529   4.147
99247SOL    HW199638  13.302  13.453   4.191
99247SOL    HW299639  13.322  13.515   4.054
99248SOL     OW99640   2.730   8.798   6.857
99248SOL    HW199641   2.647   8.776   6.900
99248SOL    HW299642   2.713   8.881   6.814
99249SOL     OW99643   0.807  11.100   9.579
99249SOL    HW199644   0.805  11.044   9.501
99249SOL    HW299645   0.808  11.039   9.652
99250SOL     OW99646   3.080  10.690  11.873
99250SOL    HW199647   3.093  10.596  11.880
99250SOL    HW299648   3.167  10.725  11.858
99251SOL     OW99649   8.200   1.986   7.455
99251SOL    HW199650   8.243   2.002   7.372
99251SOL    HW299651   8.242   2.048   7.516
99252SOL     OW99652   8.616   0.410  13.485
99252SOL    HW199653   8.608   0.338  13.422
99252SOL    HW299654   8.707   0.440  13.475
99253SOL     OW99655   7.116   4.280  10.240
99253SOL    HW199656   7.206   4.248  10.238
99253SOL    HW299657   7.079   4.253  10.157
99254SOL     OW99658  14.261   8.523   2.822
99254SOL    HW199659  14.306   8.594   2.776
99254SOL    HW299660  14.271   8.447   2.764
99255SOL     OW99661  13.556   2.535  10.941
99255SOL    HW199662  13.621   2.576  10.998
99255SOL    HW299663  13.552   2.444  10.970
99256SOL     OW99664  14.627  14.228   7.648
99256SOL    HW199665  14.604  14.136   7.654
99256SOL    HW299666  14.544  14.273   7.635
99257SOL     OW99667   0.016   9.120   2.309
99257SOL    HW199668  14.877   9.119   2.402
99257SOL    HW299669  14.813   9.116   2.265
99258SOL     OW99670   1.441   0.514   8.505
99258SOL    HW199671   1.358   0.500   8.459
99258SOL    HW299672   1.505   0.464   8.455
99259SOL     OW99673   1.831   0.900   2.327
99259SOL    HW199674   1.792   0.944   2.251
99259SOL    HW299675   1.825   0.963   2.398
99260SOL     OW99676   3.072  11.869   6.138
99260SOL    HW199677   3.135  11.802   6.165
99260SOL    HW299678   3.090  11.943   6.196
99261SOL     OW99679   4.675   8.005   2.105
99261SOL    HW199680   4.708   8.087   2.069
99261SOL    HW299681   4.751   7.965   2.147
99262SOL     OW99682   5.820  13.535   0.345
99262SOL    HW199683   5.877  13.539   0.268
99262SOL    HW299684   5.765  13.613   0.338
99263SOL     OW99685   3.182   7.946   4.483
99263SOL    HW199686   3.122   7.918   4.415
99263SOL    HW299687   3.132   7.938   4.564
99264SOL     OW99688   4.529   5.041  11.070
99264SOL    HW199689   4.550   4.947  11.071
99264SOL    HW299690   4.612   5.083  11.046
99265SOL     OW99691  10.798   5.462   7.939
99265SOL    HW199692  10.773   5.370   7.931
99265SOL    HW299693  10.884   5.460   7.980
99266SOL     OW99694   8.597   7.191  12.367
99266SOL    HW199695   8.629   7.228  12.285
99266SOL    HW299696   8.554   7.110  12.342
99267SOL     OW99697   5.817  14.011   2.401
99267SOL    HW199698   5.814  13.972   2.314
99267SOL    HW299699   5.900  14.058   2.404
99268SOL     OW99700   3.185  12.720  14.813
99268SOL    HW199701   3.185  12.760  14.726
99268SOL    HW299702   3.265  12.667  14.815
99269SOL     OW99703   7.542   9.521   7.592
99269SOL    HW199704   7.484   9.596   7.584
99269SOL    HW299705   7.513   9.477   7.672
99270SOL     OW99706  11.842   3.526   0.951
99270SOL    HW199707  11.903   3.557   0.885
99270SOL    HW299708  11.887   3.453   0.993
99271SOL     OW99709  13.951   8.283   2.979
99271SOL    HW199710  13.956   8.343   3.053
99271SOL    HW299711  14.036   8.239   2.977
99272SOL     OW99712  11.765   6.597   8.791
99272SOL    HW199713  11.695   6.662   8.793
99272SOL    HW299714  11.846   6.648   8.783
99273SOL     OW99715  11.826  11.736  12.278
99273SOL    HW199716  11.802  11.821  12.242
99273SOL    HW299717  11.878  11.695  12.209
99274SOL     OW99718   0.035  12.873   7.709
99274SOL    HW199719   0.119  12.882   7.662
99274SOL    HW299720  14.851  12.901   7.646
99275SOL     OW99721   7.438   0.697   2.432
99275SOL    HW199722   7.501   0.768   2.417
99275SOL    HW299723   7.434   0.650   2.349
99276SOL     OW99724   5.372  12.196  11.714
99276SOL    HW199725   5.307  12.129  11.734
99276SOL    HW299726   5.455  12.148  11.711
99277SOL     OW99727   3.269   6.828   7.455
99277SOL    HW199728   3.288   6.862   7.542
99277SOL    HW299729   3.333   6.871   7.398
99278SOL     OW99730  12.981   1.239   2.695
99278SOL    HW199731  12.905   1.246   2.753
99278SOL    HW299732  12.971   1.312   2.634
99279SOL     OW99733  13.658   3.431   0.023
99279SOL    HW199734  13.720   3.474   0.080
99279SOL    HW299735  13.574   3.440   0.068
99280SOL     OW99736   0.501  12.020   9.306
99280SOL    HW199737   0.451  12.090   9.265
99280SOL    HW299738   0.466  11.939   9.269
99281SOL     OW99739  12.408   8.261   2.411
99281SOL    HW199740  12.345   8.227   2.475
99281SOL    HW299741  12.490   8.268   2.459
99282SOL     OW99742   0.130   4.122   5.901
99282SOL    HW199743   0.137   4.099   5.808
99282SOL    HW299744   0.108   4.215   5.901
99283SOL     OW99745   6.387   5.951  12.344
99283SOL    HW199746   6.392   5.980  12.253
99283SOL    HW299747   6.474   5.917  12.364
99284SOL     OW99748   3.771   4.455   9.558
99284SOL    HW199749   3.809   4.439   9.472
99284SOL    HW299750   3.751   4.367   9.592
99285SOL     OW99751   3.619   3.489  14.349
99285SOL    HW199752   3.630   3.571  14.398
99285SOL    HW299753   3.622   3.421  14.416
99286SOL     OW99754   9.304   0.508   7.593
99286SOL    HW199755   9.398   0.523   7.588
99286SOL    HW299756   9.266   0.573   7.533
99287SOL     OW99757   9.586   5.964   8.237
99287SOL    HW199758   9.555   5.905   8.305
99287SOL    HW299759   9.553   5.926   8.155
99288SOL     OW99760   8.435  12.917   7.837
99288SOL    HW199761   8.373  12.914   7.911
99288SOL    HW299762   8.507  12.860   7.864
99289SOL     OW99763   6.130   9.589  12.209
99289SOL    HW199764   6.080   9.649  12.264
99289SOL    HW299765   6.214   9.578  12.255
99290SOL     OW99766   3.625   9.876  14.535
99290SOL    HW199767   3.676   9.944  14.490
99290SOL    HW299768   3.689   9.834  14.593
99291SOL     OW99769   6.629   4.704  12.366
99291SOL    HW199770   6.552   4.701  12.311
99291SOL    HW299771   6.647   4.798  12.377
99292SOL     OW99772  11.661   3.720   3.441
99292SOL    HW199773  11.740   3.772   3.458
99292SOL    HW299774  11.693   3.639   3.401
99293SOL     OW99775   9.826   8.691  11.601
99293SOL    HW199776   9.804   8.618  11.659
99293SOL    HW299777   9.890   8.743  11.651
99294SOL     OW99778   2.642   4.350   2.425
99294SOL    HW199779   2.641   4.263   2.387
99294SOL    HW299780   2.615   4.408   2.353
99295SOL     OW99781   2.267  10.381   0.456
99295SOL    HW199782   2.232  10.470   0.458
99295SOL    HW299783   2.360  10.393   0.441
99296SOL     OW99784   4.641   9.297   0.374
99296SOL    HW199785   4.671   9.218   0.329
99296SOL    HW299786   4.695   9.367   0.336
99297SOL     OW99787   3.476   9.921   4.132
99297SOL    HW199788   3.562   9.888   4.154
99297SOL    HW299789   3.428   9.921   4.215
99298SOL     OW99790   9.974   6.198   1.528
99298SOL    HW199791  10.039   6.181   1.596
99298SOL    HW299792   9.891   6.207   1.575
99299SOL     OW99793  10.141  10.530  10.880
99299SOL    HW199794  10.158  10.451  10.930
99299SOL    HW299795  10.196  10.522  10.802
99300SOL     OW99796   4.028  12.492   5.296
99300SOL    HW199797   4.023  12.539   5.379
99300SOL    HW299798   4.101  12.432   5.307
99301SOL     OW99799   1.504   2.570  11.916
99301SOL    HW199800   1.599   2.578  11.909
99301SOL    HW299801   1.486   2.572  12.010
99302SOL     OW99802  12.853   9.376   5.134
99302SOL    HW199803  12.839   9.468   5.111
99302SOL    HW299804  12.892   9.338   5.055
99303SOL     OW99805   4.730   7.520   3.382
99303SOL    HW199806   4.714   7.487   3.471
99303SOL    HW299807   4.669   7.592   3.371
99304SOL     OW99808   0.799   4.149   8.734
99304SOL    HW199809   0.760   4.230   8.768
99304SOL    HW299810   0.737   4.118   8.668
99305SOL     OW99811   1.649   0.509   0.798
99305SOL    HW199812   1.678   0.428   0.757
99305SOL    HW299813   1.671   0.577   0.734
99306SOL     OW99814   7.260   2.384   9.633
99306SOL    HW199815   7.232   2.472   9.657
99306SOL    HW299816   7.194   2.353   9.571
99307SOL     OW99817  12.307   4.445   9.950
99307SOL    HW199818  12.342   4.426  10.036
99307SOL    HW299819  12.212   4.438   9.960
99308SOL     OW99820  12.830   0.461  10.183
99308SOL    HW199821  12.915   0.427  10.210
99308SOL    HW299822  12.775   0.383  10.172
99309SOL     OW99823   6.401  11.943  11.463
99309SOL    HW199824   6.403  11.995  11.543
99309SOL    HW299825   6.385  12.007  11.393
99310SOL     OW99826   6.381  11.276   3.989
99310SOL    HW199827   6.301  11.235   4.022
99310SOL    HW299828   6.448  11.255   4.054
99311SOL     OW99829  10.703   5.345   4.812
99311SOL    HW199830  10.686   5.430   4.773
99311SOL    HW299831  10.618   5.301   4.812
99312SOL     OW99832   1.442  13.465   9.126
99312SOL    HW199833   1.400  13.552   9.123
99312SOL    HW299834   1.397  13.415   9.058
99313SOL     OW99835  11.575   9.103  13.289
99313SOL    HW199836  11.625   9.031  13.252
99313SOL    HW299837  11.566   9.081  13.382
99314SOL     OW99838   9.468   4.143   9.244
99314SOL    HW199839   9.390   4.152   9.299
99314SOL    HW299840   9.462   4.054   9.209
99315SOL     OW99841  12.803   4.963  12.287
99315SOL    HW199842  12.850   4.890  12.246
99315SOL    HW299843  12.777   5.018  12.213
99316SOL     OW99844  13.530   2.946  14.775
99316SOL    HW199845  13.604   3.001  14.801
99316SOL    HW299846  13.457   3.007  14.763
99317SOL     OW99847   0.986   7.607   7.410
99317SOL    HW199848   0.972   7.689   7.459
99317SOL    HW299849   1.075   7.616   7.376
99318SOL     OW99850   4.765  11.241  12.155
99318SOL    HW199851   4.819  11.265  12.080
99318SOL    HW299852   4.797  11.296  12.227
99319SOL     OW99853   2.120   4.290  13.877
99319SOL    HW199854   2.197   4.271  13.823
99319SOL    HW299855   2.114   4.215  13.936
99320SOL     OW99856   6.446   4.620   7.102
99320SOL    HW199857   6.454   4.525   7.100
99320SOL    HW299858   6.432   4.645   7.011
99321SOL     OW99859   0.099  14.162   7.863
99321SOL    HW199860   0.037  14.114   7.809
99321SOL    HW299861   0.119  14.241   7.813
99322SOL     OW99862   4.166  13.299   3.457
99322SOL    HW199863   4.249  13.251   3.449
99322SOL    HW299864   4.154  13.312   3.551
99323SOL     OW99865   2.628  14.325   2.441
99323SOL    HW199866   2.686  14.288   2.508
99323SOL    HW299867   2.663  14.292   2.359
99324SOL     OW99868  12.079  12.324   3.419
99324SOL    HW199869  12.024  12.264   3.368
99324SOL    HW299870  12.120  12.268   3.484
99325SOL     OW99871   0.477   4.656   8.777
99325SOL    HW199872   0.536   4.727   8.801
99325SOL    HW299873   0.437   4.684   8.694
99326SOL     OW99874   9.981  14.473   2.879
99326SOL    HW199875  10.041  14.399   2.881
99326SOL    HW299876  10.032  14.546   2.916
99327SOL     OW99877  12.955   8.824  13.487
99327SOL    HW199878  12.931   8.874  13.408
99327SOL    HW299879  12.904   8.865  13.557
99328SOL     OW99880   0.243   5.683   7.312
99328SOL    HW199881   0.331   5.644   7.314
99328SOL    HW299882   0.258   5.776   7.331
99329SOL     OW99883   9.176   9.196   5.751
99329SOL    HW199884   9.167   9.176   5.658
99329SOL    HW299885   9.257   9.246   5.757
99330SOL     OW99886   9.839   7.128   8.658
99330SOL    HW199887   9.900   7.130   8.584
99330SOL    HW299888   9.891   7.100   8.732
99331SOL     OW99889  13.404  14.137   7.452
99331SOL    HW199890  13.319  14.132   7.408
99331SOL    HW299891  13.398  14.215   7.506
99332SOL     OW99892  13.228   3.515  10.249
99332SOL    HW199893  13.238   3.543  10.340
99332SOL    HW299894  13.151   3.563  10.218
99333SOL     OW99895   5.472   8.810   9.504
99333SOL    HW199896   5.449   8.782   9.415
99333SOL    HW299897   5.512   8.732   9.543
99334SOL     OW99898   8.997   6.768   9.029
99334SOL    HW199899   8.978   6.815   8.948
99334SOL    HW299900   8.998   6.836   9.097
99335SOL     OW99901   8.791   3.412   6.208
99335SOL    HW199902   8.809   3.498   6.245
99335SOL    HW299903   8.767   3.358   6.283
99336SOL     OW99904  13.631   2.051   4.396
99336SOL    HW199905  13.662   1.963   4.377
99336SOL    HW299906  13.574   2.073   4.321
99337SOL     OW99907  12.797   1.707   4.570
99337SOL    HW199908  12.826   1.618   4.549
99337SOL    HW299909  12.877   1.760   4.566
99338SOL     OW99910   2.866  12.442   8.231
99338SOL    HW199911   2.936  12.504   8.208
99338SOL    HW299912   2.896  12.358   8.196
99339SOL     OW99913   8.598  11.382  12.831
99339SOL    HW199914   8.628  11.462  12.874
99339SOL    HW299915   8.626  11.392  12.740
99340SOL     OW99916   6.184  11.572   4.699
99340SOL    HW199917   6.174  11.522   4.780
99340SOL    HW299918   6.102  11.556   4.651
99341SOL     OW99919  13.646   1.372   5.610
99341SOL    HW199920  13.575   1.434   5.594
99341SOL    HW299921  13.705   1.383   5.535
99342SOL     OW99922   9.472  13.341   7.694
99342SOL    HW199923   9.557  13.351   7.738
99342SOL    HW299924   9.423  13.280   7.749
99343SOL     OW99925   0.740  12.989  10.813
99343SOL    HW199926   0.716  12.985  10.721
99343SOL    HW299927   0.709  13.076  10.842
99344SOL     OW99928   0.824   4.022  12.558
99344SOL    HW199929   0.860   4.083  12.623
99344SOL    HW299930   0.752   3.978  12.603
99345SOL     OW99931   3.239  13.002   3.069
99345SOL    HW199932   3.144  13.012   3.078
99345SOL    HW299933   3.271  12.991   3.158
99346SOL     OW99934   3.560   3.114   2.659
99346SOL    HW199935   3.548   3.166   2.579
99346SOL    HW299936   3.537   3.025   2.634
99347SOL     OW99937   5.893  12.213  13.367
99347SOL    HW199938   5.856  12.290  13.410
99347SOL    HW299939   5.969  12.247  13.319
99348SOL     OW99940   9.134   0.994  12.817
99348SOL    HW199941   9.152   0.986  12.723
99348SOL    HW299942   9.170   0.915  12.856
99349SOL     OW99943   2.425  10.620   6.078
99349SOL    HW199944   2.334  10.623   6.108
99349SOL    HW299945   2.460  10.540   6.116
99350SOL     OW99946  13.465  12.776   6.417
99350SOL    HW199947  13.554  12.748   6.442
99350SOL    HW299948  13.476  12.817   6.332
99351SOL     OW99949   3.562   6.844   7.917
99351SOL    HW199950   3.533   6.830   8.007
99351SOL    HW299951   3.642   6.895   7.925
99352SOL     OW99952   6.258  14.089  14.782
99352SOL    HW199953   6.218  14.097  14.695
99352SOL    HW299954   6.213  14.016  14.822
99353SOL     OW99955   8.744   6.742  14.708
99353SOL    HW199956   8.742   6.828  14.751
99353SOL    HW299957   8.683   6.750  14.635
99354SOL     OW99958   0.595   5.849   3.733
99354SOL    HW199959   0.503   5.827   3.717
99354SOL    HW299960   0.592   5.934   3.777
99355SOL     OW99961  10.809  11.103  12.361
99355SOL    HW199962  10.721  11.071  12.380
99355SOL    HW299963  10.828  11.164  12.431
99356SOL     OW99964  13.474   9.163  14.709
99356SOL    HW199965  13.523   9.140  14.788
99356SOL    HW299966  13.413   9.090  14.696
99357SOL     OW99967   9.636  13.117   5.887
99357SOL    HW199968   9.726  13.148   5.902
99357SOL    HW299969   9.588  13.196   5.862
99358SOL     OW99970   6.344   5.846   0.233
99358SOL    HW199971   6.399   5.784   0.185
99358SOL    HW299972   6.266   5.857   0.179
99359SOL     OW99973   5.095  12.117   6.305
99359SOL    HW199974   5.063  12.207   6.291
99359SOL    HW299975   5.063  12.094   6.392
99360SOL     OW99976   9.124   0.795   7.679
99360SOL    HW199977   9.135   0.725   7.743
99360SOL    HW299978   9.072   0.755   7.609
99361SOL     OW99979  14.071   3.956   0.758
99361SOL    HW199980  14.141   3.998   0.707
99361SOL    HW299981  14.106   3.952   0.848
99362SOL     OW99982   9.196   9.017   5.946
99362SOL    HW199983   9.160   9.075   5.880
99362SOL    HW299984   9.282   9.054   5.966
99363SOL     OW99985   4.980   1.662   2.658
99363SOL    HW199986   4.999   1.601   2.730
99363SOL    HW299987   4.884   1.661   2.651
99364SOL     OW99988   3.704  12.462  14.752
99364SOL    HW199989   3.721  12.369  14.741
99364SOL    HW299990   3.730  12.481  14.842
99365SOL     OW99991  11.312  11.678   6.227
99365SOL    HW199992  11.238  11.620   6.211
99365SOL    HW299993  11.275  11.752   6.274
99366SOL     OW99994   8.784   6.901  10.734
99366SOL    HW199995   8.856   6.928  10.790
99366SOL    HW299996   8.810   6.814  10.702
99367SOL     OW99997   3.041   3.063  11.640
99367SOL    HW199998   3.061   3.153  11.618
99367SOL    HW299999   2.948   3.064  11.662
99368SOL     OW    0  14.230  10.884   5.900
99368SOL    HW1    1  14.204  10.962   5.949
99368SOL    HW2    2  14.319  10.865   5.931
99369SOL     OW    3  10.757   3.266   8.041
99369SOL    HW1    4  10.670   3.302   8.059
99369SOL    HW2    5  10.815   3.307   8.105
99370SOL     OW    6   7.756  13.652   0.563
99370SOL    HW1    7   7.690  13.672   0.628
99370SOL    HW2    8   7.782  13.562   0.582
99371SOL     OW    9  10.509  12.618   8.837
99371SOL    HW1   10  10.419  12.584   8.841
99371SOL    HW2   11  10.518  12.649   8.747
99372SOL     OW   12   2.613   5.754   4.214
99372SOL    HW1   13   2.634   5.688   4.280
99372SOL    HW2   14   2.522   5.777   4.231
99373SOL     OW   15   5.277   4.299   5.832
99373SOL    HW1   16   5.250   4.351   5.757
99373SOL    HW2   17   5.196   4.281   5.880
99374SOL     OW   18   7.055   0.059  11.633
99374SOL    HW1   19   7.091  14.882  11.568
99374SOL    HW2   20   6.971   0.088  11.597
99375SOL     OW   21   2.901   4.648   9.597
99375SOL    HW1   22   2.921   4.726   9.545
99375SOL    HW2   23   2.868   4.682   9.680
99376SOL     OW   24   1.032  10.615   0.008
99376SOL    HW1   25   0.959  10.668   0.041
99376SOL    HW2   26   1.030  10.628  14.796
99377SOL     OW   27   3.332   6.170   4.296
99377SOL    HW1   28   3.374   6.115   4.230
99377SOL    HW2   29   3.274   6.111   4.344
99378SOL     OW   30   3.921   2.437   5.571
99378SOL    HW1   31   3.978   2.480   5.508
99378SOL    HW2   32   3.842   2.415   5.522
99379SOL     OW   33   6.326   7.050  11.869
99379SOL    HW1   34   6.267   7.116  11.905
99379SOL    HW2   35   6.399   7.046  11.931
99380SOL     OW   36  10.518   1.574   8.376
99380SOL    HW1   37  10.477   1.504   8.427
99380SOL    HW2   38  10.564   1.528   8.306
99381SOL     OW   39  12.648   6.483   6.089
99381SOL    HW1   40  12.652   6.406   6.145
99381SOL    HW2   41  12.733   6.526   6.101
99382SOL     OW   42   0.436   8.319  12.896
99382SOL    HW1   43   0.470   8.352  12.814
99382SOL    HW2   44   0.391   8.237  12.873
99383SOL     OW   45  12.072   3.248  14.048
99383SOL    HW1   46  12.103   3.298  13.973
99383SOL    HW2   47  11.983   3.223  14.026
99384SOL     OW   48  14.193   7.503  12.287
99384SOL    HW1   49  14.190   7.510  12.382
99384SOL    HW2   50  14.261   7.565  12.260
99385SOL     OW   51   4.905   6.626   5.418
99385SOL    HW1   52   4.877   6.667   5.336
99385SOL    HW2   53   4.941   6.698   5.470
99386SOL     OW   54   0.515   7.575   5.802
99386SOL    HW1   55   0.451   7.510   5.831
99386SOL    HW2   56   0.466   7.633   5.745
99387SOL     OW   57   9.308  12.983   0.303
99387SOL    HW1   58   9.229  13.035   0.319
99387SOL    HW2   59   9.379  13.039   0.334
99388SOL     OW   60   5.005   7.612  11.254
99388SOL    HW1   61   5.089   7.658  11.255
99388SOL    HW2   62   5.005   7.565  11.171
99389SOL     OW   63   8.816  14.112   1.198
99389SOL    HW1   64   8.744  14.120   1.260
99389SOL    HW2   65   8.779  14.137   1.113
99390SOL     OW   66  14.572   2.102  12.313
99390SOL    HW1   67  14.542   2.069  12.398
99390SOL    HW2   68  14.666   2.086  12.313
99391SOL     OW   69  13.718  12.735   9.490
99391SOL    HW1   70  13.796  12.691   9.455
99391SOL    HW2   71  13.732  12.736   9.585
99392SOL     OW   72  13.174   5.210  10.102
99392SOL    HW1   73  13.164   5.270  10.028
99392SOL    HW2   74  13.181   5.123  10.061
99393SOL     OW   75  14.789   1.012   9.629
99393SOL    HW1   76  14.760   1.084   9.685
99393SOL    HW2   77   0.003   1.014   9.636
99394SOL     OW   78  11.113   2.549   7.957
99394SOL    HW1   79  11.078   2.471   8.000
99394SOL    HW2   80  11.082   2.541   7.866
99395SOL     OW   81   3.558   9.981  10.267
99395SOL    HW1   82   3.551   9.901  10.319
99395SOL    HW2   83   3.584  10.048  10.330
99396SOL     OW   84   8.724  10.433  11.031
99396SOL    HW1   85   8.778  10.507  11.057
99396SOL    HW2   86   8.636  10.455  11.063
99397SOL     OW   87   0.256   7.150   1.975
99397SOL    HW1   88   0.165   7.163   2.002
99397SOL    HW2   89   0.274   7.058   1.996
99398SOL     OW   90   9.162   2.320   6.029
99398SOL    HW1   91   9.239   2.372   6.053
99398SOL    HW2   92   9.176   2.298   5.937
99399SOL     OW   93   4.041  11.302   4.495
99399SOL    HW1   94   4.053  11.236   4.427
99399SOL    HW2   95   4.038  11.251   4.577
99400SOL     OW   96   3.139   0.867  12.998
99400SOL    HW1   97   3.178   0.831  12.918
99400SOL    HW2   98   3.202   0.845  13.067
99401SOL     OW   99  11.594  13.652  12.306
99401SOL    HW1  100  11.680  13.649  12.263
99401SOL    HW2  101  11.536  13.603  12.248
99402SOL     OW  102   7.498   7.912   5.892
99402SOL    HW1  103   7.468   7.918   5.983
99402SOL    HW2  104   7.592   7.901   5.898
99403SOL     OW  105   4.719   5.703   7.332
99403SOL    HW1  106   4.636   5.750   7.324
99403SOL    HW2  107   4.749   5.692   7.242
99404SOL     OW  108   2.778   8.446  12.995
99404SOL    HW1  109   2.770   8.542  12.991
99404SOL    HW2  110   2.773   8.418  12.903
99405SOL     OW  111   4.258  13.644   7.636
99405SOL    HW1  112   4.336  13.589   7.625
99405SOL    HW2  113   4.193  13.605   7.578
99406SOL     OW  114   4.015   9.684  10.072
99406SOL    HW1  115   4.050   9.722   9.991
99406SOL    HW2  116   4.085   9.694  10.136
99407SOL     OW  117  11.115  10.595   0.436
99407SOL    HW1  118  11.181  10.526   0.440
99407SOL    HW2  119  11.154  10.663   0.381
99408SOL     OW  120   6.282   1.927   5.708
99408SOL    HW1  121   6.372   1.926   5.742
99408SOL    HW2  122   6.264   1.835   5.688
99409SOL     OW  123  11.779  11.986   5.400
99409SOL    HW1  124  11.712  11.979   5.332
99409SOL    HW2  125  11.856  12.021   5.355
99410SOL     OW  126   3.868   2.004  14.855
99410SOL    HW1  127   3.785   1.993   0.020
99410SOL    HW2  128   3.891   2.096  14.867
99411SOL     OW  129   4.966   4.640   1.163
99411SOL    HW1  130   5.036   4.702   1.180
99411SOL    HW2  131   4.948   4.600   1.248
99412SOL     OW  132   4.562   1.437  14.842
99412SOL    HW1  133   4.557   1.533  14.837
99412SOL    HW2  134   4.517   1.406  14.764
99413SOL     OW  135  10.953  10.749   1.708
99413SOL    HW1  136  11.013  10.817   1.739
99413SOL    HW2  137  10.913  10.786   1.630
99414SOL     OW  138   6.309   0.623  11.858
99414SOL    HW1  139   6.216   0.621  11.882
99414SOL    HW2  140   6.353   0.581  11.931
99415SOL     OW  141  14.365   0.483   1.309
99415SOL    HW1  142  14.291   0.500   1.251
99415SOL    HW2  143  14.327   0.435   1.383
99416SOL     OW  144   5.155   4.793   0.557
99416SOL    HW1  145   5.228   4.742   0.522
99416SOL    HW2  146   5.078   4.758   0.513
99417SOL     OW  147   1.079  12.057   9.159
99417SOL    HW1  148   1.077  12.148   9.187
99417SOL    HW2  149   0.987  12.030   9.160
99418SOL     OW  150  12.405  14.749  12.367
99418SOL    HW1  151  12.453  14.666  12.358
99418SOL    HW2  152  12.437  14.787  12.449
99419SOL     OW  153   6.171  11.710   2.042
99419SOL    HW1  154   6.115  11.788   2.044
99419SOL    HW2  155   6.111  11.637   2.056
99420SOL     OW  156   1.814   8.538  11.619
99420SOL    HW1  157   1.880   8.470  11.606
99420SOL    HW2  158   1.750   8.523  11.550
99421SOL     OW  159   8.512   6.124   4.850
99421SOL    HW1  160   8.490   6.184   4.921
99421SOL    HW2  161   8.547   6.180   4.781
99422SOL     OW  162   0.601   2.165   9.697
99422SOL    HW1  163   0.660   2.194   9.767
99422SOL    HW2  164   0.513   2.186   9.730
99423SOL     OW  165  12.370  10.477   5.544
99423SOL    HW1  166  12.311  10.402   5.557
99423SOL    HW2  167  12.319  10.538   5.491
99424SOL     OW  168   0.522  12.709  11.016
99424SOL    HW1  169   0.607  12.752  11.022
99424SOL    HW2  170   0.482  12.722  11.102
99425SOL     OW  171   6.167   0.272   2.773
99425SOL    HW1  172   6.075   0.275   2.745
99425SOL    HW2  173   6.216   0.312   2.701
99426SOL     OW  174  11.096  12.645   3.690
99426SOL    HW1  175  11.083  12.740   3.687
99426SOL    HW2  176  11.091  12.623   3.783
99427SOL     OW  177   4.403  11.827  10.988
99427SOL    HW1  178   4.455  11.904  10.965
99427SOL    HW2  179   4.456  11.781  11.053
99428SOL     OW  180   8.764   0.603   0.407
99428SOL    HW1  181   8.820   0.607   0.329
99428SOL    HW2  182   8.702   0.532   0.389
99429SOL     OW  183   4.886   0.162   1.851
99429SOL    HW1  184   4.902   0.081   1.900
99429SOL    HW2  185   4.794   0.157   1.826
99430SOL     OW  186   8.730   0.046  13.915
99430SOL    HW1  187   8.746  14.859  13.850
99430SOL    HW2  188   8.759   0.007  13.998
99431SOL     OW  189  10.329   4.958   8.864
99431SOL    HW1  190  10.344   4.864   8.875
99431SOL    HW2  191  10.235   4.965   8.846
99432SOL     OW  192  12.373   5.539   5.250
99432SOL    HW1  193  12.410   5.615   5.294
99432SOL    HW2  194  12.321   5.495   5.317
99433SOL     OW  195  13.378   1.659   5.835
99433SOL    HW1  196  13.356   1.574   5.872
99433SOL    HW2  197  13.303   1.714   5.854
99434SOL     OW  198   0.508  10.449   6.013
99434SOL    HW1  199   0.482  10.357   6.016
99434SOL    HW2  200   0.595  10.451   6.053
99435SOL     OW  201   3.946   0.131   5.574
99435SOL    HW1  202   3.903   0.068   5.632
99435SOL    HW2  203   4.017   0.082   5.533
99436SOL     OW  204  13.304  12.907   3.233
99436SOL    HW1  205  13.399  12.891   3.235
99436SOL    HW2  206  13.268  12.828   3.194
99437SOL     OW  207   2.531  14.712  10.915
99437SOL    HW1  208   2.521  14.807  10.918
99437SOL    HW2  209   2.582  14.690  10.993
99438SOL     OW  210   6.811  14.336   5.286
99438SOL    HW1  211   6.822  14.273   5.358
99438SOL    HW2  212   6.790  14.281   5.210
99439SOL     OW  213  13.759   0.934   1.627
99439SOL    HW1  214  13.803   0.857   1.592
99439SOL    HW2  215  13.828   0.982   1.674
99440SOL     OW  216   5.860   0.777  11.172
99440SOL    HW1  217   5.955   0.789  11.178
99440SOL    HW2  218   5.823   0.864  11.186
99441SOL     OW  219   6.393   4.744   0.948
99441SOL    HW1  220   6.303   4.748   0.917
99441SOL    HW2  221   6.413   4.650   0.952
99442SOL     OW  222   8.714   8.770  12.760
99442SOL    HW1  223   8.673   8.782  12.674
99442SOL    HW2  224   8.787   8.710  12.744
99443SOL     OW  225   4.766   0.935   9.538
99443SOL    HW1  226   4.691   0.875   9.535
99443SOL    HW2  227   4.791   0.937   9.631
99444SOL     OW  228   6.729   3.342   8.184
99444SOL    HW1  229   6.755   3.259   8.143
99444SOL    HW2  230   6.773   3.409   8.132
99445SOL     OW  231   7.968   1.591   4.838
99445SOL    HW1  232   8.012   1.656   4.892
99445SOL    HW2  233   7.909   1.545   4.898
99446SOL     OW  234   5.364   5.126  14.298
99446SOL    HW1  235   5.404   5.194  14.351
99446SOL    HW2  236   5.289   5.095  14.350
99447SOL     OW  237   0.436   9.698   7.987
99447SOL    HW1  238   0.475   9.639   8.051
99447SOL    HW2  239   0.381   9.642   7.932
99448SOL     OW  240   0.867   5.601   2.301
99448SOL    HW1  241   0.924   5.544   2.354
99448SOL    HW2  242   0.783   5.554   2.298
99449SOL     OW  243   7.082  13.969   9.629
99449SOL    HW1  244   7.119  13.981   9.717
99449SOL    HW2  245   7.151  13.926   9.579
99450SOL     OW  246   0.129   1.035   3.531
99450SOL    HW1  247   0.213   1.039   3.485
99450SOL    HW2  248   0.102   1.126   3.540
99451SOL     OW  249  13.010  11.028  14.537
99451SOL    HW1  250  12.969  10.952  14.577
99451SOL    HW2  251  12.963  11.103  14.575
99452SOL     OW  252  14.386   2.379   2.516
99452SOL    HW1  253  14.411   2.296   2.476
99452SOL    HW2  254  14.339   2.354   2.596
99453SOL     OW  255   6.789   7.138   5.338
99453SOL    HW1  256   6.858   7.077   5.363
99453SOL    HW2  257   6.836   7.216   5.307
99454SOL     OW  258   8.256   6.286  11.337
99454SOL    HW1  259   8.295   6.199  11.344
99454SOL    HW2  260   8.279   6.317  11.249
99455SOL     OW  261   3.093   7.081   7.181
99455SOL    HW1  262   3.096   7.037   7.266
99455SOL    HW2  263   3.106   7.011   7.117
99456SOL     OW  264   5.081   2.060  13.662
99456SOL    HW1  265   5.018   2.064  13.590
99456SOL    HW2  266   5.028   2.067  13.741
99457SOL     OW  267  12.297   8.375   1.517
99457SOL    HW1  268  12.392   8.367   1.513
99457SOL    HW2  269  12.265   8.301   1.465
99458SOL     OW  270   7.234   9.136   4.499
99458SOL    HW1  271   7.181   9.179   4.432
99458SOL    HW2  272   7.249   9.205   4.564
99459SOL     OW  273   8.348   4.927   8.946
99459SOL    HW1  274   8.272   4.875   8.969
99459SOL    HW2  275   8.409   4.864   8.906
99460SOL     OW  276   2.449   7.674   0.730
99460SOL    HW1  277   2.436   7.597   0.785
99460SOL    HW2  278   2.370   7.726   0.743
99461SOL     OW  279  10.276  12.516   8.775
99461SOL    HW1  280  10.246  12.425   8.776
99461SOL    HW2  281  10.261  12.545   8.685
99462SOL     OW  282   6.853   4.466  11.579
99462SOL    HW1  283   6.865   4.537  11.516
99462SOL    HW2  284   6.814   4.395  11.527
99463SOL     OW  285   1.499  10.064   7.929
99463SOL    HW1  286   1.556  10.077   8.005
99463SOL    HW2  287   1.501  10.148   7.883
99464SOL     OW  288  12.682   0.025   6.162
99464SOL    HW1  289  12.752  14.857   6.203
99464SOL    HW2  290  12.638  14.844   6.105
99465SOL     OW  291  12.670  11.949   2.794
99465SOL    HW1  292  12.748  11.894   2.801
99465SOL    HW2  293  12.666  11.973   2.701
99466SOL     OW  294  14.755  10.062  12.389
99466SOL    HW1  295  14.673  10.102  12.362
99466SOL    HW2  296  14.729   9.977  12.426
99467SOL     OW  297  11.410   0.504   9.040
99467SOL    HW1  298  11.341   0.515   9.105
99467SOL    HW2  299  11.375   0.542   8.960
99468SOL     OW  300   7.648  14.447   7.748
99468SOL    HW1  301   7.723  14.387   7.747
99468SOL    HW2  302   7.599  14.423   7.826
99469SOL     OW  303   2.699  12.819  13.651
99469SOL    HW1  304   2.626  12.823  13.712
99469SOL    HW2  305   2.774  12.791  13.704
99470SOL     OW  306   6.479  12.469  10.941
99470SOL    HW1  307   6.573  12.470  10.958
99470SOL    HW2  308   6.460  12.378  10.915
99471SOL     OW  309   4.874   9.426   9.142
99471SOL    HW1  310   4.825   9.351   9.175
99471SOL    HW2  311   4.884   9.483   9.218
99472SOL     OW  312   5.005  12.108   0.205
99472SOL    HW1  313   4.925  12.146   0.242
99472SOL    HW2  314   5.069  12.179   0.208
99473SOL     OW  315  14.535  14.363  10.417
99473SOL    HW1  316  14.512  14.294  10.355
99473SOL    HW2  317  14.624  14.341  10.445
99474SOL     OW  318   3.802   1.516   7.814
99474SOL    HW1  319   3.788   1.524   7.909
99474SOL    HW2  320   3.839   1.429   7.803
99475SOL     OW  321   6.094  12.470   3.854
99475SOL    HW1  322   6.046  12.410   3.911
99475SOL    HW2  323   6.048  12.553   3.862
99476SOL     OW  324   5.627   1.861   6.683
99476SOL    HW1  325   5.596   1.931   6.741
99476SOL    HW2  326   5.548   1.832   6.637
99477SOL     OW  327   6.117  13.007   9.367
99477SOL    HW1  328   6.180  13.035   9.300
99477SOL    HW2  329   6.043  12.973   9.317
99478SOL     OW  330   1.108  10.410   3.681
99478SOL    HW1  331   1.203  10.401   3.674
99478SOL    HW2  332   1.090  10.405   3.774
99479SOL     OW  333   3.591   7.263   9.988
99479SOL    HW1  334   3.541   7.344   9.996
99479SOL    HW2  335   3.569   7.213  10.067
99480SOL     OW  336  12.341   7.442   0.469
99480SOL    HW1  337  12.407   7.507   0.491
99480SOL    HW2  338  12.313   7.405   0.553
99481SOL     OW  339  14.424   4.646   8.620
99481SOL    HW1  340  14.491   4.699   8.578
99481SOL    HW2  341  14.356   4.636   8.553
99482SOL     OW  342  14.520  11.372  10.393
99482SOL    HW1  343  14.589  11.336  10.448
99482SOL    HW2  344  14.446  11.385  10.452
99483SOL     OW  345  12.846   3.324   7.854
99483SOL    HW1  346  12.843   3.368   7.939
99483SOL    HW2  347  12.755   3.320   7.825
99484SOL     OW  348   5.693   2.793   6.003
99484SOL    HW1  349   5.695   2.737   5.926
99484SOL    HW2  350   5.728   2.738   6.073
99485SOL     OW  351  13.703   4.976   1.008
99485SOL    HW1  352  13.702   5.056   0.955
99485SOL    HW2  353  13.789   4.938   0.993
99486SOL     OW  354   0.510   8.880   2.234
99486SOL    HW1  355   0.538   8.864   2.325
99486SOL    HW2  356   0.552   8.962   2.210
99487SOL     OW  357   2.811   6.358   2.602
99487SOL    HW1  358   2.770   6.272   2.597
99487SOL    HW2  359   2.879   6.349   2.669
99488SOL     OW  360   2.254   9.319  13.850
99488SOL    HW1  361   2.303   9.323  13.932
99488SOL    HW2  362   2.164   9.302  13.877
99489SOL     OW  363   6.525   4.691   0.656
99489SOL    HW1  364   6.498   4.716   0.745
99489SOL    HW2  365   6.591   4.755   0.632
99490SOL     OW  366   9.393  12.683   9.169
99490SOL    HW1  367   9.461  12.630   9.126
99490SOL    HW2  368   9.399  12.769   9.127
99491SOL     OW  369   0.123  12.774   8.763
99491SOL    HW1  370   0.029  12.789   8.755
99491SOL    HW2  371   0.138  12.767   8.858
99492SOL     OW  372   8.013   2.153  13.841
99492SOL    HW1  373   7.921   2.176  13.849
99492SOL    HW2  374   8.060   2.237  13.850
99493SOL     OW  375   5.419   2.404  10.030
99493SOL    HW1  376   5.383   2.333   9.977
99493SOL    HW2  377   5.343   2.452  10.063
99494SOL     OW  378  12.245   0.379   2.043
99494SOL    HW1  379  12.180   0.400   2.110
99494SOL    HW2  380  12.329   0.404   2.081
99495SOL     OW  381   4.063  11.188   4.757
99495SOL    HW1  382   4.143  11.152   4.796
99495SOL    HW2  383   3.993  11.133   4.791
99496SOL     OW  384   2.751   6.492  10.182
99496SOL    HW1  385   2.807   6.465  10.255
99496SOL    HW2  386   2.764   6.587  10.176
99497SOL     OW  387   9.076  12.284   8.434
99497SOL    HW1  388   9.002  12.342   8.413
99497SOL    HW2  389   9.150  12.344   8.445
99498SOL     OW  390  10.657  11.311  14.661
99498SOL    HW1  391  10.563  11.313  14.643
99498SOL    HW2  392  10.695  11.271  14.583
99499SOL     OW  393   3.941   8.309  14.788
99499SOL    HW1  394   4.034   8.333  14.786
99499SOL    HW2  395   3.901   8.359  14.717
99500SOL     OW  396  11.365   3.843  14.490
99500SOL    HW1  397  11.434   3.892  14.534
99500SOL    HW2  398  11.408   3.803  14.414
99501SOL     OW  399   4.423   4.505  11.556
99501SOL    HW1  400   4.366   4.580  11.574
99501SOL    HW2  401   4.432   4.461  11.640
99502SOL     OW  402   2.529   3.628   7.576
99502SOL    HW1  403   2.496   3.714   7.602
99502SOL    HW2  404   2.610   3.616   7.627
99503SOL     OW  405   7.933   5.974   1.369
99503SOL    HW1  406   8.006   6.037   1.373
99503SOL    HW2  407   7.941   5.935   1.283
99504SOL     OW  408  14.656  12.003  10.722
99504SOL    HW1  409  14.695  11.967  10.801
99504SOL    HW2  410  14.699  11.956  10.650
99505SOL     OW  411  11.422   2.227   4.617
99505SOL    HW1  412  11.456   2.187   4.697
99505SOL    HW2  413  11.333   2.194   4.610
99506SOL     OW  414  10.104  10.496  12.477
99506SOL    HW1  415  10.075  10.586  12.492
99506SOL    HW2  416  10.134  10.495  12.386
99507SOL     OW  417   7.503   0.955   0.524
99507SOL    HW1  418   7.518   0.892   0.454
99507SOL    HW2  419   7.415   0.987   0.510
99508SOL     OW  420  11.409   1.315   1.966
99508SOL    HW1  421  11.326   1.279   1.936
99508SOL    HW2  422  11.390   1.408   1.980
99509SOL     OW  423   1.769  14.031   9.794
99509SOL    HW1  424   1.732  13.986   9.869
99509SOL    HW2  425   1.811  14.109   9.830
99510SOL     OW  426  12.740   2.535   7.743
99510SOL    HW1  427  12.745   2.617   7.693
99510SOL    HW2  428  12.661   2.492   7.710
99511SOL     OW  429   2.608   4.304   1.409
99511SOL    HW1  430   2.565   4.232   1.363
99511SOL    HW2  431   2.642   4.360   1.340
99512SOL     OW  432  14.189   5.914   3.157
99512SOL    HW1  433  14.096   5.922   3.133
99512SOL    HW2  434  14.191   5.842   3.220
99513SOL     OW  435   8.389   7.945   5.964
99513SOL    HW1  436   8.388   8.001   6.042
99513SOL    HW2  437   8.357   8.001   5.893
99514SOL     OW  438   8.036   1.942   3.256
99514SOL    HW1  439   8.047   2.035   3.274
99514SOL    HW2  440   8.102   1.898   3.311
99515SOL     OW  441   9.681   2.627  14.123
99515SOL    HW1  442   9.634   2.700  14.163
99515SOL    HW2  443   9.639   2.616  14.037
99516SOL     OW  444  10.384  12.558  11.519
99516SOL    HW1  445  10.439  12.610  11.460
99516SOL    HW2  446  10.446  12.520  11.582
99517SOL     OW  447   5.019   3.348   2.222
99517SOL    HW1  448   4.946   3.369   2.164
99517SOL    HW2  449   4.978   3.301   2.296
99518SOL     OW  450   0.181  10.835   8.453
99518SOL    HW1  451   0.135  10.853   8.370
99518SOL    HW2  452   0.131  10.765   8.494
99519SOL     OW  453   0.567   5.172  13.204
99519SOL    HW1  454   0.538   5.201  13.290
99519SOL    HW2  455   0.589   5.079  13.217
99520SOL     OW  456   0.285   8.767  11.075
99520SOL    HW1  457   0.193   8.794  11.072
99520SOL    HW2  458   0.310   8.778  11.167
99521SOL     OW  459   0.412   5.756   4.008
99521SOL    HW1  460   0.386   5.846   3.989
99521SOL    HW2  461   0.351   5.728   4.076
99522SOL     OW  462   4.015   9.213   9.798
99522SOL    HW1  463   3.927   9.196   9.833
99522SOL    HW2  464   4.066   9.239   9.875
99523SOL     OW  465   4.253  11.128  10.453
99523SOL    HW1  466   4.162  11.141  10.427
99523SOL    HW2  467   4.248  11.090  10.540
99524SOL     OW  468   2.158  13.491   1.648
99524SOL    HW1  469   2.074  13.468   1.689
99524SOL    HW2  470   2.149  13.584   1.628
99525SOL     OW  471  13.373  13.730  14.534
99525SOL    HW1  472  13.285  13.763  14.514
99525SOL    HW2  473  13.431  13.789  14.487
99526SOL     OW  474   9.338  10.352  11.764
99526SOL    HW1  475   9.414  10.345  11.706
99526SOL    HW2  476   9.344  10.440  11.800
99527SOL     OW  477  11.169  13.148  10.632
99527SOL    HW1  478  11.214  13.177  10.552
99527SOL    HW2  479  11.076  13.161  10.613
99528SOL     OW  480   3.881   4.690   8.240
99528SOL    HW1  481   3.951   4.741   8.280
99528SOL    HW2  482   3.802   4.715   8.288
99529SOL     OW  483   5.514   7.406   9.712
99529SOL    HW1  484   5.575   7.462   9.664
99529SOL    HW2  485   5.498   7.453   9.794
99530SOL     OW  486   1.847  14.116   1.655
99530SOL    HW1  487   1.897  14.194   1.632
99530SOL    HW2  488   1.881  14.089   1.740
99531SOL     OW  489  12.092   3.251   7.683
99531SOL    HW1  490  12.034   3.296   7.744
99531SOL    HW2  491  12.173   3.237   7.733
99532SOL     OW  492   4.520   4.586   6.378
99532SOL    HW1  493   4.552   4.668   6.341
99532SOL    HW2  494   4.436   4.608   6.418
99533SOL     OW  495   4.246  11.008   9.889
99533SOL    HW1  496   4.296  10.926   9.894
99533SOL    HW2  497   4.197  11.011   9.971
99534SOL     OW  498  13.087   4.987  10.425
99534SOL    HW1  499  13.084   5.078  10.399
99534SOL    HW2  500  13.138   4.987  10.506
99535SOL     OW  501  12.057   8.161   8.790
99535SOL    HW1  502  12.137   8.128   8.831
99535SOL    HW2  503  12.085   8.236   8.738
99536SOL     OW  504  13.765  10.878  10.292
99536SOL    HW1  505  13.757  10.969  10.320
99536SOL    HW2  506  13.860  10.861  10.291
99537SOL     OW  507   8.372   7.227   5.758
99537SOL    HW1  508   8.372   7.131   5.761
99537SOL    HW2  509   8.427   7.249   5.683
99538SOL     OW  510  14.806  10.193   5.375
99538SOL    HW1  511   0.019  10.188   5.375
99538SOL    HW2  512  14.777  10.109   5.411
99539SOL     OW  513   9.231   7.588   3.520
99539SOL    HW1  514   9.166   7.658   3.530
99539SOL    HW2  515   9.305   7.617   3.574
99540SOL     OW  516   6.906   5.451   1.496
99540SOL    HW1  517   6.940   5.479   1.581
99540SOL    HW2  518   6.928   5.522   1.436
99541SOL     OW  519  11.005  12.721  13.478
99541SOL    HW1  520  11.067  12.715  13.405
99541SOL    HW2  521  11.052  12.680  13.551
99542SOL     OW  522   1.958   1.559   0.394
99542SOL    HW1  523   1.974   1.534   0.303
99542SOL    HW2  524   1.943   1.477   0.440
99543SOL     OW  525   7.402   0.408   4.072
99543SOL    HW1  526   7.465   0.400   4.000
99543SOL    HW2  527   7.350   0.327   4.067
99544SOL     OW  528  10.554   1.439  10.229
99544SOL    HW1  529  10.473   1.457  10.277
99544SOL    HW2  530  10.562   1.511  10.167
99545SOL     OW  531  14.084   1.224   7.579
99545SOL    HW1  532  14.037   1.265   7.506
99545SOL    HW2  533  14.137   1.295   7.616
99546SOL     OW  534  13.127  11.721   4.846
99546SOL    HW1  535  13.033  11.739   4.851
99546SOL    HW2  536  13.168  11.795   4.891
99547SOL     OW  537   3.937  11.234   9.563
99547SOL    HW1  538   3.847  11.224   9.532
99547SOL    HW2  539   3.968  11.144   9.577
99548SOL     OW  540  13.437   7.562   9.506
99548SOL    HW1  541  13.393   7.607   9.434
99548SOL    HW2  542  13.369   7.507   9.545
99549SOL     OW  543   0.695   9.319  10.666
99549SOL    HW1  544   0.716   9.251  10.730
99549SOL    HW2  545   0.604   9.301  10.640
99550SOL     OW  546   9.347   4.010  14.801
99550SOL    HW1  547   9.255   4.026  14.818
99550SOL    HW2  548   9.383   3.982   0.003
99551SOL     OW  549   3.716   0.475  11.877
99551SOL    HW1  550   3.767   0.431  11.809
99551SOL    HW2  551   3.627   0.444  11.865
99552SOL     OW  552  12.443   2.323   3.409
99552SOL    HW1  553  12.506   2.309   3.339
99552SOL    HW2  554  12.358   2.305   3.370
99553SOL     OW  555   4.210  13.726   0.638
99553SOL    HW1  556   4.238  13.656   0.579
99553SOL    HW2  557   4.292  13.765   0.668
99554SOL     OW  558  14.632   0.791   5.501
99554SOL    HW1  559  14.591   0.705   5.512
99554SOL    HW2  560  14.570   0.853   5.540
99555SOL     OW  561   9.498   0.110   7.928
99555SOL    HW1  562   9.454   0.145   7.851
99555SOL    HW2  563   9.433   0.117   7.999
99556SOL     OW  564  13.408   2.654   1.407
99556SOL    HW1  565  13.498   2.627   1.423
99556SOL    HW2  566  13.370   2.666   1.495
99557SOL     OW  567   1.483   4.460   0.819
99557SOL    HW1  568   1.486   4.448   0.724
99557SOL    HW2  569   1.395   4.492   0.837
99558SOL     OW  570   5.175  10.547   0.992
99558SOL    HW1  571   5.083  10.530   1.010
99558SOL    HW2  572   5.186  10.640   1.012
99559SOL     OW  573  11.890  14.139   0.042
99559SOL    HW1  574  11.947  14.162   0.116
99559SOL    HW2  575  11.890  14.043   0.041
99560SOL     OW  576   3.253   2.496  11.852
99560SOL    HW1  577   3.315   2.540  11.909
99560SOL    HW2  578   3.185   2.561  11.835
99561SOL     OW  579  11.571   0.066   2.811
99561SOL    HW1  580  11.594   0.016   2.890
99561SOL    HW2  581  11.494   0.020   2.776
99562SOL     OW  582   0.762  14.325   7.035
99562SOL    HW1  583   0.748  14.405   7.086
99562SOL    HW2  584   0.767  14.356   6.944
99563SOL     OW  585   3.557   1.669   0.106
99563SOL    HW1  586   3.510   1.717   0.174
99563SOL    HW2  587   3.627   1.623   0.152
99564SOL     OW  588   5.473   8.325   3.496
99564SOL    HW1  589   5.489   8.297   3.586
99564SOL    HW2  590   5.560   8.341   3.460
99565SOL     OW  591   8.940   0.053   2.198
99565SOL    HW1  592   8.975   0.121   2.256
99565SOL    HW2  593   9.004  14.865   2.201
99566SOL     OW  594   9.401  11.958  13.523
99566SOL    HW1  595   9.356  12.014  13.460
99566SOL    HW2  596   9.379  11.997  13.608
99567SOL     OW  597  13.299  13.743   9.194
99567SOL    HW1  598  13.356  13.761   9.120
99567SOL    HW2  599  13.265  13.655   9.177
99568SOL     OW  600   1.433  14.878   7.782
99568SOL    HW1  601   1.503  14.849   7.723
99568SOL    HW2  602   1.469  14.868   7.870
99569SOL     OW  603   3.873   2.707   8.337
99569SOL    HW1  604   3.841   2.728   8.424
99569SOL    HW2  605   3.832   2.624   8.315
99570SOL     OW  606   2.906   8.477   1.007
99570SOL    HW1  607   2.846   8.442   1.073
99570SOL    HW2  608   2.953   8.548   1.052
99571SOL     OW  609  14.049  13.109  11.716
99571SOL    HW1  610  14.032  13.149  11.631
99571SOL    HW2  611  13.982  13.041  11.725
99572SOL     OW  612  13.246   1.852   8.784
99572SOL    HW1  613  13.173   1.844   8.723
99572SOL    HW2  614  13.208   1.893   8.862
99573SOL     OW  615   1.784   9.017   4.497
99573SOL    HW1  616   1.773   9.028   4.403
99573SOL    HW2  617   1.874   9.046   4.514
99574SOL     OW  618   5.187   5.552   0.868
99574SOL    HW1  619   5.238   5.553   0.786
99574SOL    HW2  620   5.247   5.514   0.932
99575SOL     OW  621   8.177  10.658   7.353
99575SOL    HW1  622   8.248  10.719   7.370
99575SOL    HW2  623   8.106  10.687   7.409
99576SOL     OW  624   1.673   0.507  12.322
99576SOL    HW1  625   1.688   0.414  12.337
99576SOL    HW2  626   1.600   0.510  12.260
99577SOL     OW  627   8.248   2.924   5.692
99577SOL    HW1  628   8.186   2.996   5.703
99577SOL    HW2  629   8.205   2.864   5.631
99578SOL     OW  630  13.963  12.113  11.075
99578SOL    HW1  631  13.954  12.018  11.065
99578SOL    HW2  632  13.969  12.146  10.985
99579SOL     OW  633   7.754   4.312  10.919
99579SOL    HW1  634   7.825   4.370  10.891
99579SOL    HW2  635   7.746   4.328  11.013
99580SOL     OW  636  14.542   7.761   5.861
99580SOL    HW1  637  14.631   7.793   5.849
99580SOL    HW2  638  14.553   7.669   5.887
99581SOL     OW  639   8.305   4.728  13.658
99581SOL    HW1  640   8.368   4.788  13.697
99581SOL    HW2  641   8.252   4.783  13.600
99582SOL     OW  642   2.068  11.615  13.877
99582SOL    HW1  643   1.974  11.598  13.867
99582SOL    HW2  644   2.077  11.645  13.967
99583SOL     OW  645   1.736  12.731   4.512
99583SOL    HW1  646   1.824  12.742   4.476
99583SOL    HW2  647   1.750  12.725   4.607
99584SOL     OW  648  13.014  12.705   8.452
99584SOL    HW1  649  13.080  12.705   8.521
99584SOL    HW2  650  13.052  12.759   8.383
99585SOL     OW  651   6.580   1.278  12.195
99585SOL    HW1  652   6.495   1.310  12.226
99585SOL    HW2  653   6.574   1.282  12.100
99586SOL     OW  654   5.908   6.142  13.173
99586SOL    HW1  655   5.931   6.221  13.124
99586SOL    HW2  656   5.989   6.118  13.219
99587SOL     OW  657  13.765   4.876   5.636
99587SOL    HW1  658  13.831   4.825   5.589
99587SOL    HW2  659  13.788   4.967   5.618
99588SOL     OW  660   9.068   3.548   0.530
99588SOL    HW1  661   9.130   3.519   0.597
99588SOL    HW2  662   9.036   3.633   0.563
99589SOL     OW  663   1.489  12.874  12.184
99589SOL    HW1  664   1.476  12.872  12.089
99589SOL    HW2  665   1.406  12.906  12.219
99590SOL     OW  666   3.398   9.829   5.383
99590SOL    HW1  667   3.433   9.879   5.310
99590SOL    HW2  668   3.451   9.857   5.458
99591SOL     OW  669   0.502   6.821   9.318
99591SOL    HW1  670   0.494   6.813   9.223
99591SOL    HW2  671   0.588   6.860   9.332
99592SOL     OW  672   9.861   7.093   0.680
99592SOL    HW1  673   9.853   7.185   0.706
99592SOL    HW2  674   9.880   7.047   0.761
99593SOL     OW  675   9.606   4.240   4.607
99593SOL    HW1  676   9.565   4.271   4.526
99593SOL    HW2  677   9.697   4.271   4.601
99594SOL     OW  678   0.481   3.991  12.297
99594SOL    HW1  679   0.406   4.039  12.261
99594SOL    HW2  680   0.448   3.951  12.377
99595SOL     OW  681   1.082   8.385  12.920
99595SOL    HW1  682   1.091   8.478  12.902
99595SOL    HW2  683   1.153   8.366  12.983
99596SOL     OW  684   9.857   8.447  14.581
99596SOL    HW1  685   9.772   8.488  14.566
99596SOL    HW2  686   9.911   8.477  14.509
99597SOL     OW  687  14.541  13.529  14.463
99597SOL    HW1  688  14.510  13.461  14.523
99597SOL    HW2  689  14.524  13.492  14.376
99598SOL     OW  690  13.373   5.366   3.790
99598SOL    HW1  691  13.280   5.349   3.801
99598SOL    HW2  692  13.416   5.287   3.824
99599SOL     OW  693   6.452   1.973   6.752
99599SOL    HW1  694   6.374   2.010   6.793
99599SOL    HW2  695   6.440   1.989   6.659
99600SOL     OW  696   6.254   0.825   8.158
99600SOL    HW1  697   6.334   0.833   8.209
99600SOL    HW2  698   6.280   0.844   8.068
99601SOL     OW  699  14.042  11.485   0.374
99601SOL    HW1  700  14.003  11.563   0.334
99601SOL    HW2  701  14.036  11.417   0.307
99602SOL     OW  702   8.953   0.609   3.435
99602SOL    HW1  703   8.967   0.550   3.360
99602SOL    HW2  704   9.026   0.672   3.429
99603SOL     OW  705  14.367   1.161   3.558
99603SOL    HW1  706  14.305   1.149   3.487
99603SOL    HW2  707  14.442   1.107   3.535
99604SOL     OW  708   0.684   3.940   7.882
99604SOL    HW1  709   0.649   3.970   7.798
99604SOL    HW2  710   0.744   3.869   7.858
99605SOL     OW  711  12.290   2.888   5.773
99605SOL    HW1  712  12.294   2.981   5.796
99605SOL    HW2  713  12.381   2.860   5.770
99606SOL     OW  714  14.640  10.351  10.971
99606SOL    HW1  715  14.656  10.268  10.927
99606SOL    HW2  716  14.702  10.352  11.044
99607SOL     OW  717   4.721  12.762   4.038
99607SOL    HW1  718   4.794  12.750   4.099
99607SOL    HW2  719   4.703  12.675   4.003
99608SOL     OW  720   4.849  10.911   5.155
99608SOL    HW1  721   4.799  10.920   5.237
99608SOL    HW2  722   4.805  10.970   5.094
99609SOL     OW  723  13.430   8.249   9.673
99609SOL    HW1  724  13.386   8.334   9.681
99609SOL    HW2  725  13.359   8.185   9.682
99610SOL     OW  726   4.181   5.547  14.829
99610SOL    HW1  727   4.162   5.467  14.877
99610SOL    HW2  728   4.252   5.523  14.769
99611SOL     OW  729   3.384   4.125   2.112
99611SOL    HW1  730   3.320   4.177   2.063
99611SOL    HW2  731   3.426   4.070   2.045
99612SOL     OW  732  10.713   9.438  11.298
99612SOL    HW1  733  10.795   9.417  11.255
99612SOL    HW2  734  10.701   9.532  11.283
99613SOL     OW  735  11.693   2.504   3.605
99613SOL    HW1  736  11.717   2.420   3.565
99613SOL    HW2  737  11.656   2.480   3.690
99614SOL     OW  738  14.107   1.050  13.274
99614SOL    HW1  739  14.014   1.076  13.280
99614SOL    HW2  740  14.147   1.119  13.221
99615SOL     OW  741  13.140  13.358   9.410
99615SOL    HW1  742  13.072  13.291   9.410
99615SOL    HW2  743  13.144  13.389   9.501
99616SOL     OW  744   0.310  14.337   5.398
99616SOL    HW1  745   0.332  14.244   5.408
99616SOL    HW2  746   0.338  14.358   5.309
99617SOL     OW  747   6.952   8.334  14.451
99617SOL    HW1  748   6.865   8.296  14.443
99617SOL    HW2  749   7.010   8.257  14.453
99618SOL     OW  750  10.719   1.394  12.941
99618SOL    HW1  751  10.795   1.427  12.989
99618SOL    HW2  752  10.694   1.315  12.989
99619SOL     OW  753   9.077   0.352   7.694
99619SOL    HW1  754   9.011   0.421   7.696
99619SOL    HW2  755   9.157   0.396   7.665
99620SOL     OW  756   8.780   2.797   8.488
99620SOL    HW1  757   8.698   2.843   8.470
99620SOL    HW2  758   8.818   2.781   8.402
99621SOL     OW  759  12.662  12.528   7.100
99621SOL    HW1  760  12.723  12.554   7.169
99621SOL    HW2  761  12.590  12.590   7.106
99622SOL     OW  762   2.798  10.323  13.336
99622SOL    HW1  763   2.796  10.279  13.421
99622SOL    HW2  764   2.809  10.415  13.357
99623SOL     OW  765   3.969  10.279   1.245
99623SOL    HW1  766   3.892  10.302   1.193
99623SOL    HW2  767   3.960  10.184   1.258
99624SOL     OW  768  12.944   4.551   2.970
99624SOL    HW1  769  12.849   4.551   2.984
99624SOL    HW2  770  12.958   4.477   2.910
99625SOL     OW  771   1.304   2.234   4.858
99625SOL    HW1  772   1.369   2.301   4.838
99625SOL    HW2  773   1.313   2.170   4.788
99626SOL     OW  774   5.349   8.768   6.080
99626SOL    HW1  775   5.357   8.807   5.993
99626SOL    HW2  776   5.301   8.686   6.065
99627SOL     OW  777   4.924   2.510  12.913
99627SOL    HW1  778   4.925   2.486  12.820
99627SOL    HW2  779   4.832   2.515  12.936
99628SOL     OW  780   2.235  11.595  11.453
99628SOL    HW1  781   2.202  11.611  11.365
99628SOL    HW2  782   2.307  11.658  11.464
99629SOL     OW  783  13.409  14.005   2.856
99629SOL    HW1  784  13.326  13.971   2.822
99629SOL    HW2  785  13.455  14.038   2.778
99630SOL     OW  786   3.528  14.651   9.178
99630SOL    HW1  787   3.559  14.564   9.203
99630SOL    HW2  788   3.454  14.633   9.119
99631SOL     OW  789  10.732   9.152  13.985
99631SOL    HW1  790  10.720   9.072  13.933
99631SOL    HW2  791  10.827   9.164  13.989
99632SOL     OW  792   6.933  13.525  11.236
99632SOL    HW1  793   6.881  13.494  11.310
99632SOL    HW2  794   6.961  13.444  11.192
99633SOL     OW  795  14.795  11.989  13.669
99633SOL    HW1  796  14.779  12.009  13.762
99633SOL    HW2  797  14.711  11.955  13.637
99634SOL     OW  798   9.241   2.517   9.696
99634SOL    HW1  799   9.207   2.436   9.657
99634SOL    HW2  800   9.170   2.547   9.753
99635SOL     OW  801   5.829  13.327   8.056
99635SOL    HW1  802   5.918  13.350   8.080
99635SOL    HW2  803   5.775  13.398   8.090
99636SOL     OW  804   3.825  13.680   9.267
99636SOL    HW1  805   3.921  13.676   9.263
99636SOL    HW2  806   3.798  13.588   9.271
99637SOL     OW  807  10.800   5.998   4.869
99637SOL    HW1  808  10.759   6.013   4.954
99637SOL    HW2  809  10.828   5.907   4.871
99638SOL     OW  810   5.395   0.496   3.934
99638SOL    HW1  811   5.442   0.529   4.010
99638SOL    HW2  812   5.318   0.452   3.969
99639SOL     OW  813   3.489   1.981  13.176
99639SOL    HW1  814   3.517   2.068  13.149
99639SOL    HW2  815   3.486   1.986  13.272
99640SOL     OW  816  12.963  10.461   0.359
99640SOL    HW1  817  12.956  10.408   0.280
99640SOL    HW2  818  12.950  10.551   0.330
99641SOL     OW  819  11.031   3.314  12.475
99641SOL    HW1  820  11.027   3.292  12.382
99641SOL    HW2  821  11.014   3.408  12.478
99642SOL     OW  822   6.139   6.389   8.072
99642SOL    HW1  823   6.111   6.462   8.017
99642SOL    HW2  824   6.063   6.369   8.127
99643SOL     OW  825   8.404   8.023   7.277
99643SOL    HW1  826   8.339   8.086   7.247
99643SOL    HW2  827   8.471   8.076   7.321
99644SOL     OW  828   8.966   5.622   2.453
99644SOL    HW1  829   8.899   5.684   2.481
99644SOL    HW2  830   8.990   5.575   2.533
99645SOL     OW  831   5.690   9.800   7.005
99645SOL    HW1  832   5.688   9.756   7.090
99645SOL    HW2  833   5.732   9.737   6.947
99646SOL     OW  834  13.918   5.838   5.513
99646SOL    HW1  835  13.856   5.800   5.450
99646SOL    HW2  836  13.890   5.929   5.522
99647SOL     OW  837   9.118   5.514   6.899
99647SOL    HW1  838   9.032   5.557   6.897
99647SOL    HW2  839   9.138   5.495   6.807
99648SOL     OW  840   9.022   6.267  10.695
99648SOL    HW1  841   9.029   6.296  10.604
99648SOL    HW2  842   8.927   6.262  10.710
99649SOL     OW  843  10.942  12.004  10.296
99649SOL    HW1  844  10.854  11.969  10.309
99649SOL    HW2  845  10.974  12.022  10.384
99650SOL     OW  846   8.845   1.193   9.058
99650SOL    HW1  847   8.867   1.248   8.982
99650SOL    HW2  848   8.760   1.225   9.088
99651SOL     OW  849   6.089   2.997   4.817
99651SOL    HW1  850   6.043   3.060   4.762
99651SOL    HW2  851   6.137   2.942   4.755
99652SOL     OW  852   9.986   5.387   6.988
99652SOL    HW1  853   9.970   5.446   6.914
99652SOL    HW2  854   9.986   5.445   7.064
99653SOL     OW  855   7.834   8.243   1.693
99653SOL    HW1  856   7.748   8.201   1.693
99653SOL    HW2  857   7.851   8.266   1.602
99654SOL     OW  858   8.709   9.699   3.924
99654SOL    HW1  859   8.790   9.654   3.950
99654SOL    HW2  860   8.639   9.638   3.948
99655SOL     OW  861   3.331  14.533   0.525
99655SOL    HW1  862   3.362  14.622   0.509
99655SOL    HW2  863   3.410  14.479   0.522
99656SOL     OW  864   5.991  10.529   5.866
99656SOL    HW1  865   5.979  10.460   5.931
99656SOL    HW2  866   5.906  10.537   5.823
99657SOL     OW  867   0.635  12.504   2.159
99657SOL    HW1  868   0.582  12.426   2.172
99657SOL    HW2  869   0.680  12.516   2.243
99658SOL     OW  870   0.305  10.601   9.476
99658SOL    HW1  871   0.298  10.621   9.569
99658SOL    HW2  872   0.386  10.643   9.448
99659SOL     OW  873   4.667  13.826  11.219
99659SOL    HW1  874   4.659  13.858  11.309
99659SOL    HW2  875   4.577  13.820  11.188
99660SOL     OW  876   9.393   1.715  11.841
99660SOL    HW1  877   9.421   1.745  11.754
99660SOL    HW2  878   9.416   1.786  11.900
99661SOL     OW  879   2.565   0.840  10.675
99661SOL    HW1  880   2.612   0.911  10.718
99661SOL    HW2  881   2.485   0.880  10.642
99662SOL     OW  882   9.952   2.151   6.548
99662SOL    HW1  883   9.991   2.107   6.624
99662SOL    HW2  884   9.908   2.228   6.586
99663SOL     OW  885  10.252  14.413   6.908
99663SOL    HW1  886  10.179  14.462   6.870
99663SOL    HW2  887  10.330  14.460   6.878
99664SOL     OW  888   5.803  14.449   5.939
99664SOL    HW1  889   5.740  14.490   5.999
99664SOL    HW2  890   5.772  14.474   5.852
99665SOL     OW  891   3.255   6.753   8.587
99665SOL    HW1  892   3.329   6.755   8.648
99665SOL    HW2  893   3.289   6.792   8.507
99666SOL     OW  894   1.718   3.681   4.283
99666SOL    HW1  895   1.696   3.589   4.296
99666SOL    HW2  896   1.803   3.691   4.327
99667SOL     OW  897   2.335  11.351   9.466
99667SOL    HW1  898   2.265  11.316   9.410
99667SOL    HW2  899   2.311  11.442   9.481
99668SOL     OW  900   2.582   1.370  10.404
99668SOL    HW1  901   2.651   1.385  10.340
99668SOL    HW2  902   2.572   1.453  10.449
99669SOL     OW  903  11.582   4.840   6.638
99669SOL    HW1  904  11.648   4.899   6.675
99669SOL    HW2  905  11.565   4.777   6.708
99670SOL     OW  906  12.503   8.976   9.753
99670SOL    HW1  907  12.497   8.883   9.775
99670SOL    HW2  908  12.443   8.987   9.679
99671SOL     OW  909  11.323   0.970   1.649
99671SOL    HW1  910  11.414   0.990   1.669
99671SOL    HW2  911  11.327   0.888   1.599
99672SOL     OW  912   7.805   3.069  11.584
99672SOL    HW1  913   7.800   2.992  11.641
99672SOL    HW2  914   7.895   3.069  11.551
99673SOL     OW  915   5.244   4.152   4.990
99673SOL    HW1  916   5.218   4.071   4.947
99673SOL    HW2  917   5.329   4.174   4.950
99674SOL     OW  918   9.326   9.416   0.730
99674SOL    HW1  919   9.351   9.343   0.673
99674SOL    HW2  920   9.271   9.375   0.797
99675SOL     OW  921   0.822   0.280   7.753
99675SOL    HW1  922   0.902   0.320   7.788
99675SOL    HW2  923   0.768   0.263   7.831
99676SOL     OW  924   9.453   3.501   5.980
99676SOL    HW1  925   9.520   3.438   5.951
99676SOL    HW2  926   9.481   3.584   5.943
99677SOL     OW  927  11.988   9.091   6.145
99677SOL    HW1  928  11.949   9.088   6.058
99677SOL    HW2  929  12.032   9.006   6.154
99678SOL     OW  930  10.918  12.214   1.814
99678SOL    HW1  931  10.931  12.184   1.724
99678SOL    HW2  932  10.827  12.243   1.817
99679SOL     OW  933  10.265   1.655   7.103
99679SOL    HW1  934  10.246   1.748   7.092
99679SOL    HW2  935  10.183   1.617   7.136
99680SOL     OW  936   3.955   1.721   8.962
99680SOL    HW1  937   3.918   1.688   8.880
99680SOL    HW2  938   4.043   1.752   8.937
99681SOL     OW  939  13.892   4.909  11.291
99681SOL    HW1  940  13.867   4.975  11.227
99681SOL    HW2  941  13.981   4.934  11.317
99682SOL     OW  942   7.995  11.215   1.234
99682SOL    HW1  943   8.025  11.306   1.238
99682SOL    HW2  944   7.960  11.205   1.146
99683SOL     OW  945   7.562  13.924   6.373
99683SOL    HW1  946   7.657  13.926   6.359
99683SOL    HW2  947   7.552  13.899   6.464
99684SOL     OW  948  12.771   1.495  14.536
99684SOL    HW1  949  12.857   1.461  14.511
99684SOL    HW2  950  12.775   1.500  14.632
99685SOL     OW  951   6.043  11.362   4.841
99685SOL    HW1  952   6.115  11.359   4.904
99685SOL    HW2  953   6.058  11.287   4.784
99686SOL     OW  954   2.789   5.834   8.914
99686SOL    HW1  955   2.717   5.846   8.852
99686SOL    HW2  956   2.832   5.919   8.918
99687SOL     OW  957   3.865  13.143   0.000
99687SOL    HW1  958   3.951  13.107  14.862
99687SOL    HW2  959   3.876  13.238  14.880
99688SOL     OW  960  10.810  14.627  12.884
99688SOL    HW1  961  10.847  14.709  12.916
99688SOL    HW2  962  10.827  14.628  12.790
99689SOL     OW  963   4.226   1.174   2.053
99689SOL    HW1  964   4.133   1.167   2.075
99689SOL    HW2  965   4.238   1.268   2.035
99690SOL     OW  966   2.290   5.951   1.509
99690SOL    HW1  967   2.305   6.044   1.493
99690SOL    HW2  968   2.231   5.949   1.584
99691SOL     OW  969   2.594  14.187   8.975
99691SOL    HW1  970   2.538  14.264   8.970
99691SOL    HW2  971   2.544  14.118   8.930
99692SOL     OW  972   5.745  10.706  13.926
99692SOL    HW1  973   5.839  10.720  13.937
99692SOL    HW2  974   5.735  10.611  13.931
99693SOL     OW  975   5.580   6.640  11.618
99693SOL    HW1  976   5.512   6.704  11.600
99693SOL    HW2  977   5.536   6.555  11.614
99694SOL     OW  978   3.716  12.303   0.359
99694SOL    HW1  979   3.752  12.223   0.321
99694SOL    HW2  980   3.624  12.283   0.376
99695SOL     OW  981  11.217   5.940  12.548
99695SOL    HW1  982  11.124   5.937  12.568
99695SOL    HW2  983  11.253   6.005  12.608
99696SOL     OW  984   4.225   5.340  13.086
99696SOL    HW1  985   4.255   5.255  13.055
99696SOL    HW2  986   4.159   5.318  13.152
99697SOL     OW  987   2.163  14.549  12.152
99697SOL    HW1  988   2.181  14.549  12.058
99697SOL    HW2  989   2.236  14.597  12.191
99698SOL     OW  990  13.047   0.754   8.674
99698SOL    HW1  991  13.077   0.673   8.714
99698SOL    HW2  992  12.953   0.757   8.692
99699SOL     OW  993  10.255  12.491  11.090
99699SOL    HW1  994  10.269  12.423  11.023
99699SOL    HW2  995  10.172  12.467  11.131
99700SOL     OW  996  14.071   3.420  12.309
99700SOL    HW1  997  13.981   3.399  12.331
99700SOL    HW2  998  14.073   3.422  12.213
99701SOL     OW  999   7.317   8.033  14.668
99701SOL    HW1 1000   7.290   8.081  14.747
99701SOL    HW2 1001   7.247   8.049  14.605
99702SOL     OW 1002   7.854   1.241   1.012
99702SOL    HW1 1003   7.911   1.222   0.937
99702SOL    HW2 1004   7.915   1.267   1.082
99703SOL     OW 1005   7.535   5.539  13.239
99703SOL    HW1 1006   7.626   5.555  13.262
99703SOL    HW2 1007   7.534   5.539  13.143
99704SOL     OW 1008   4.602   9.288   8.844
99704SOL    HW1 1009   4.626   9.196   8.857
99704SOL    HW2 1010   4.512   9.285   8.812
99705SOL     OW 1011   4.599   4.363  12.078
99705SOL    HW1 1012   4.538   4.294  12.105
99705SOL    HW2 1013   4.679   4.316  12.055
99706SOL     OW 1014   3.696  11.549   5.062
99706SOL    HW1 1015   3.727  11.492   5.132
99706SOL    HW2 1016   3.613  11.510   5.033
99707SOL     OW 1017  13.570   1.857   7.201
99707SOL    HW1 1018  13.525   1.941   7.194
99707SOL    HW2 1019  13.596   1.836   7.111
99708SOL     OW 1020   9.427  12.947   4.947
99708SOL    HW1 1021   9.465  13.002   4.879
99708SOL    HW2 1022   9.394  12.870   4.901
99709SOL     OW 1023  10.652   6.135   1.893
99709SOL    HW1 1024  10.656   6.091   1.978
99709SOL    HW2 1025  10.676   6.067   1.830
99710SOL     OW 1026  14.072   3.014   2.167
99710SOL    HW1 1027  14.028   2.930   2.156
99710SOL    HW2 1028  14.152   2.993   2.215
99711SOL     OW 1029   8.521  10.717   1.276
99711SOL    HW1 1030   8.492  10.801   1.240
99711SOL    HW2 1031   8.613  10.710   1.250
99712SOL     OW 1032   3.472   6.214   6.590
99712SOL    HW1 1033   3.549   6.257   6.551
99712SOL    HW2 1034   3.504   6.128   6.618
99713SOL     OW 1035   7.677   2.541   7.093
99713SOL    HW1 1036   7.661   2.518   7.001
99713SOL    HW2 1037   7.627   2.476   7.142
99714SOL     OW 1038  13.283   5.243  13.220
99714SOL    HW1 1039  13.221   5.311  13.246
99714SOL    HW2 1040  13.365   5.291  13.206
99715SOL     OW 1041   9.976  10.472  11.961
99715SOL    HW1 1042  10.056  10.523  11.975
99715SOL    HW2 1043   9.905  10.536  11.964
99716SOL     OW 1044  13.316   3.024  12.984
99716SOL    HW1 1045  13.295   3.110  13.021
99716SOL    HW2 1046  13.396   2.997  13.030
99717SOL     OW 1047   8.309   4.984   2.808
99717SOL    HW1 1048   8.239   5.012   2.866
99717SOL    HW2 1049   8.360   5.063   2.792
99718SOL     OW 1050  13.641   2.837   6.365
99718SOL    HW1 1051  13.692   2.764   6.402
99718SOL    HW2 1052  13.557   2.833   6.411
99719SOL     OW 1053   8.533   3.166   7.607
99719SOL    HW1 1054   8.468   3.181   7.539
99719SOL    HW2 1055   8.612   3.210   7.575
99720SOL     OW 1056   5.648   2.715   7.846
99720SOL    HW1 1057   5.686   2.791   7.890
99720SOL    HW2 1058   5.578   2.751   7.791
99721SOL     OW 1059  12.941   9.490   2.816
99721SOL    HW1 1060  12.946   9.424   2.885
99721SOL    HW2 1061  13.016   9.471   2.760
99722SOL     OW 1062  14.622   3.124   7.547
99722SOL    HW1 1063  14.565   3.070   7.491
99722SOL    HW2 1064  14.678   3.171   7.486
99723SOL     OW 1065   2.246   4.816  12.181
99723SOL    HW1 1066   2.170   4.873  12.184
99723SOL    HW2 1067   2.258   4.796  12.087
99724SOL     OW 1068  11.915   3.551   3.312
99724SOL    HW1 1069  11.922   3.643   3.287
99724SOL    HW2 1070  11.855   3.513   3.248
99725SOL     OW 1071  14.458   7.785   0.483
99725SOL    HW1 1072  14.540   7.802   0.436
99725SOL    HW2 1073  14.396   7.764   0.414
99726SOL     OW 1074   7.309   8.367  11.867
99726SOL    HW1 1075   7.404   8.373  11.882
99726SOL    HW2 1076   7.291   8.438  11.806
99727SOL     OW 1077   2.904  10.211   6.321
99727SOL    HW1 1078   2.947  10.288   6.283
99727SOL    HW2 1079   2.951  10.196   6.403
99728SOL     OW 1080   8.396   8.907   9.413
99728SOL    HW1 1081   8.454   8.854   9.467
99728SOL    HW2 1082   8.308   8.889   9.446
99729SOL     OW 1083  13.306   4.990   0.513
99729SOL    HW1 1084  13.230   5.021   0.561
99729SOL    HW2 1085  13.377   4.991   0.577
99730SOL     OW 1086   6.059  14.470  10.994
99730SOL    HW1 1087   5.985  14.421  10.959
99730SOL    HW2 1088   6.046  14.471  11.088
99731SOL     OW 1089   1.457   2.521  13.750
99731SOL    HW1 1090   1.427   2.437  13.713
99731SOL    HW2 1091   1.407   2.587  13.703
99732SOL     OW 1092  13.225   7.102   9.386
99732SOL    HW1 1093  13.258   7.113   9.475
99732SOL    HW2 1094  13.130   7.114   9.394
99733SOL     OW 1095   2.816   1.517   3.422
99733SOL    HW1 1096   2.726   1.532   3.393
99733SOL    HW2 1097   2.817   1.426   3.451
99734SOL     OW 1098   4.634  10.368   2.854
99734SOL    HW1 1099   4.664  10.277   2.850
99734SOL    HW2 1100   4.698  10.417   2.802
99735SOL     OW 1101  10.076   4.877   7.886
99735SOL    HW1 1102  10.052   4.969   7.887
99735SOL    HW2 1103  10.165   4.875   7.923
99736SOL     OW 1104  14.573   1.908  10.528
99736SOL    HW1 1105  14.500   1.938  10.581
99736SOL    HW2 1106  14.540   1.831  10.482
99737SOL     OW 1107   4.328   6.442   9.867
99737SOL    HW1 1108   4.393   6.397   9.813
99737SOL    HW2 1109   4.246   6.429   9.821
99738SOL     OW 1110   2.940   6.629   4.038
99738SOL    HW1 1111   2.919   6.591   4.124
99738SOL    HW2 1112   2.914   6.561   3.975
99739SOL     OW 1113   2.556   6.188  14.051
99739SOL    HW1 1114   2.495   6.127  14.010
99739SOL    HW2 1115   2.630   6.132  14.078
99740SOL     OW 1116   3.475   7.268   5.655
99740SOL    HW1 1117   3.416   7.343   5.652
99740SOL    HW2 1118   3.489   7.252   5.748
99741SOL     OW 1119   3.771   3.355   3.669
99741SOL    HW1 1120   3.751   3.282   3.726
99741SOL    HW2 1121   3.688   3.402   3.659
99742SOL     OW 1122   4.054   2.232  11.739
99742SOL    HW1 1123   4.027   2.162  11.679
99742SOL    HW2 1124   3.975   2.253  11.789
99743SOL     OW 1125  14.532   9.227  12.813
99743SOL    HW1 1126  14.557   9.231  12.905
99743SOL    HW2 1127  14.439   9.204  12.814
99744SOL     OW 1128  11.827  13.244   3.819
99744SOL    HW1 1129  11.884  13.167   3.818
99744SOL    HW2 1130  11.813  13.262   3.912
99745SOL     OW 1131   8.768   2.334   9.202
99745SOL    HW1 1132   8.730   2.357   9.117
99745SOL    HW2 1133   8.839   2.398   9.215
99746SOL     OW 1134  14.749   9.917  12.838
99746SOL    HW1 1135  14.750   9.942  12.930
99746SOL    HW2 1136  14.841   9.917  12.812
99747SOL     OW 1137  12.317   3.874   2.999
99747SOL    HW1 1138  12.391   3.831   2.956
99747SOL    HW2 1139  12.334   3.968   2.987
99748SOL     OW 1140   3.004  12.344  14.121
99748SOL    HW1 1141   3.086  12.347  14.172
99748SOL    HW2 1142   3.033  12.345  14.030
99749SOL     OW 1143  14.532   3.307  12.882
99749SOL    HW1 1144  14.491   3.241  12.826
99749SOL    HW2 1145  14.597   3.349  12.826
99750SOL     OW 1146   0.410   1.509   9.635
99750SOL    HW1 1147   0.442   1.594   9.604
99750SOL    HW2 1148   0.318   1.507   9.607
99751SOL     OW 1149   2.776   6.739   1.748
99751SOL    HW1 1150   2.768   6.657   1.698
99751SOL    HW2 1151   2.820   6.713   1.829
99752SOL     OW 1152  12.541   0.844  12.900
99752SOL    HW1 1153  12.524   0.935  12.877
99752SOL    HW2 1154  12.593   0.810  12.827
99753SOL     OW 1155  12.883   6.680  10.151
99753SOL    HW1 1156  12.975   6.704  10.144
99753SOL    HW2 1157  12.845   6.748  10.207
99754SOL     OW 1158   2.916   9.615  14.551
99754SOL    HW1 1159   3.002   9.579  14.574
99754SOL    HW2 1160   2.936   9.697  14.505
99755SOL     OW 1161   8.569   7.088   1.480
99755SOL    HW1 1162   8.575   7.016   1.542
99755SOL    HW2 1163   8.482   7.079   1.441
99756SOL     OW 1164  13.701  10.665   1.487
99756SOL    HW1 1165  13.682  10.754   1.519
99756SOL    HW2 1166  13.618  10.635   1.450
99757SOL     OW 1167   1.185   7.555   6.780
99757SOL    HW1 1168   1.091   7.548   6.798
99757SOL    HW2 1169   1.203   7.649   6.783
99758SOL     OW 1170   4.748  14.593  10.613
99758SOL    HW1 1171   4.763  14.504  10.645
99758SOL    HW2 1172   4.746  14.647  10.692
99759SOL     OW 1173   5.365  13.970  13.315
99759SOL    HW1 1174   5.289  13.962  13.371
99759SOL    HW2 1175   5.332  13.956  13.226
99760SOL     OW 1176   2.535   5.817  14.740
99760SOL    HW1 1177   2.530   5.913  14.742
99760SOL    HW2 1178   2.456   5.788  14.785
99761SOL     OW 1179   7.357  12.423  12.653
99761SOL    HW1 1180   7.445  12.409  12.617
99761SOL    HW2 1181   7.372  12.462  12.739
99762SOL     OW 1182   2.837   1.694   4.035
99762SOL    HW1 1183   2.880   1.626   4.086
99762SOL    HW2 1184   2.908   1.748   4.001
99763SOL     OW 1185   4.968   3.281   9.505
99763SOL    HW1 1186   4.958   3.372   9.479
99763SOL    HW2 1187   5.026   3.283   9.581
99764SOL     OW 1188   1.204   4.579  14.354
99764SOL    HW1 1189   1.214   4.550  14.445
99764SOL    HW2 1190   1.259   4.519  14.304
99765SOL     OW 1191  11.397   6.186  11.718
99765SOL    HW1 1192  11.313   6.149  11.743
99765SOL    HW2 1193  11.404   6.169  11.624
99766SOL     OW 1194   7.878  10.515   0.837
99766SOL    HW1 1195   7.964  10.557   0.838
99766SOL    HW2 1196   7.860  10.496   0.930
99767SOL     OW 1197   2.044   4.892   6.774
99767SOL    HW1 1198   2.016   4.975   6.811
99767SOL    HW2 1199   1.974   4.831   6.795
99768SOL     OW 1200   5.531  13.244   1.550
99768SOL    HW1 1201   5.562  13.176   1.611
99768SOL    HW2 1202   5.440  13.222   1.533
99769SOL     OW 1203  13.093  11.518   7.269
99769SOL    HW1 1204  13.025  11.579   7.298
99769SOL    HW2 1205  13.075  11.505   7.176
99770SOL     OW 1206   8.610   2.910   6.241
99770SOL    HW1 1207   8.673   2.936   6.308
99770SOL    HW2 1208   8.583   2.992   6.199
99771SOL     OW 1209   3.258   2.430   3.312
99771SOL    HW1 1210   3.225   2.342   3.294
99771SOL    HW2 1211   3.318   2.419   3.386
99772SOL     OW 1212   1.566  12.977   9.189
99772SOL    HW1 1213   1.541  12.887   9.208
99772SOL    HW2 1214   1.630  12.970   9.119
99773SOL     OW 1215   3.878  10.384  12.054
99773SOL    HW1 1216   3.908  10.475  12.051
99773SOL    HW2 1217   3.921  10.343  11.979
99774SOL     OW 1218   9.933   8.541  10.445
99774SOL    HW1 1219   9.865   8.533  10.378
99774SOL    HW2 1220  10.002   8.481  10.416
99775SOL     OW 1221   3.515  11.893   2.782
99775SOL    HW1 1222   3.423  11.873   2.798
99775SOL    HW2 1223   3.528  11.980   2.819
99776SOL     OW 1224  13.340   2.160   9.628
99776SOL    HW1 1225  13.397   2.187   9.557
99776SOL    HW2 1226  13.379   2.199   9.707
99777SOL     OW 1227  13.886  11.911   1.952
99777SOL    HW1 1228  13.925  11.841   1.899
99777SOL    HW2 1229  13.961  11.963   1.981
99778SOL     OW 1230   7.459  14.734  13.278
99778SOL    HW1 1231   7.398  14.712  13.348
99778SOL    HW2 1232   7.514  14.803  13.315
99779SOL     OW 1233  12.380   1.596   8.003
99779SOL    HW1 1234  12.423   1.531   7.947
99779SOL    HW2 1235  12.398   1.566   8.092
99780SOL     OW 1236  10.806  13.055   6.872
99780SOL    HW1 1237  10.849  13.141   6.878
99780SOL    HW2 1238  10.849  13.003   6.940
99781SOL     OW 1239   8.423   7.168   9.537
99781SOL    HW1 1240   8.501   7.161   9.481
99781SOL    HW2 1241   8.372   7.240   9.498
99782SOL     OW 1242   6.594   9.043   2.924
99782SOL    HW1 1243   6.581   9.132   2.956
99782SOL    HW2 1244   6.671   9.012   2.971
99783SOL     OW 1245   9.838   2.884   4.915
99783SOL    HW1 1246   9.852   2.889   4.821
99783SOL    HW2 1247   9.835   2.975   4.944
99784SOL     OW 1248  13.193   6.307   3.557
99784SOL    HW1 1249  13.170   6.238   3.495
99784SOL    HW2 1250  13.127   6.301   3.625
99785SOL     OW 1251   2.994   3.199   9.545
99785SOL    HW1 1252   2.961   3.126   9.494
99785SOL    HW2 1253   3.055   3.245   9.487
99786SOL     OW 1254   8.710   8.341   9.593
99786SOL    HW1 1255   8.665   8.304   9.669
99786SOL    HW2 1256   8.801   8.313   9.605
99787SOL     OW 1257   2.714   3.817  11.104
99787SOL    HW1 1258   2.699   3.898  11.153
99787SOL    HW2 1259   2.795   3.781  11.141
99788SOL     OW 1260   4.016   3.757   9.715
99788SOL    HW1 1261   4.051   3.836   9.754
99788SOL    HW2 1262   3.934   3.740   9.762
99789SOL     OW 1263   3.023  12.150   2.792
99789SOL    HW1 1264   3.007  12.056   2.797
99789SOL    HW2 1265   3.019  12.180   2.882
99790SOL     OW 1266  10.897  11.457   3.351
99790SOL    HW1 1267  10.925  11.385   3.294
99790SOL    HW2 1268  10.815  11.487   3.312
99791SOL     OW 1269   3.132   7.940  12.246
99791SOL    HW1 1270   3.036   7.935  12.241
99791SOL    HW2 1271   3.162   7.860  12.204
99792SOL     OW 1272   2.010  12.502  13.559
99792SOL    HW1 1273   2.093  12.464  13.531
99792SOL    HW2 1274   2.022  12.518  13.653
99793SOL     OW 1275   0.447   7.658  11.366
99793SOL    HW1 1276   0.463   7.641  11.273
99793SOL    HW2 1277   0.478   7.579  11.410
99794SOL     OW 1278  11.264   1.364   1.627
99794SOL    HW1 1279  11.256   1.459   1.616
99794SOL    HW2 1280  11.305   1.335   1.546
99795SOL     OW 1281  13.632  11.446   8.856
99795SOL    HW1 1282  13.577  11.384   8.808
99795SOL    HW2 1283  13.605  11.436   8.947
99796SOL     OW 1284   9.896   7.914   5.821
99796SOL    HW1 1285   9.828   7.958   5.872
99796SOL    HW2 1286   9.847   7.866   5.753
99797SOL     OW 1287   9.887   4.833  14.610
99797SOL    HW1 1288   9.901   4.860  14.520
99797SOL    HW2 1289   9.890   4.915  14.661
99798SOL     OW 1290  14.235  14.682   9.898
99798SOL    HW1 1291  14.175  14.616   9.863
99798SOL    HW2 1292  14.322  14.649   9.876
99799SOL     OW 1293   8.471   3.133   6.165
99799SOL    HW1 1294   8.413   3.173   6.230
99799SOL    HW2 1295   8.440   3.167   6.081
99800SOL     OW 1296   3.764   6.577  14.465
99800SOL    HW1 1297   3.838   6.632  14.490
99800SOL    HW2 1298   3.804   6.499  14.426
99801SOL     OW 1299   3.773   0.647   2.930
99801SOL    HW1 1300   3.865   0.628   2.912
99801SOL    HW2 1301   3.746   0.707   2.860
99802SOL     OW 1302   4.802  11.417   4.367
99802SOL    HW1 1303   4.722  11.400   4.417
99802SOL    HW2 1304   4.838  11.330   4.348
99803SOL     OW 1305   6.314   4.869   3.901
99803SOL    HW1 1306   6.233   4.920   3.899
99803SOL    HW2 1307   6.288   4.784   3.937
99804SOL     OW 1308   6.373   5.263  14.303
99804SOL    HW1 1309   6.398   5.181  14.345
99804SOL    HW2 1310   6.298   5.240  14.248
99805SOL     OW 1311  14.574   7.942  11.475
99805SOL    HW1 1312  14.623   8.012  11.430
99805SOL    HW2 1313  14.591   7.958  11.568
99806SOL     OW 1314   5.268   7.512  14.690
99806SOL    HW1 1315   5.199   7.449  14.711
99806SOL    HW2 1316   5.291   7.552  14.774
99807SOL     OW 1317   6.584   0.250   7.025
99807SOL    HW1 1318   6.668   0.269   7.065
99807SOL    HW2 1319   6.603   0.240   6.932
99808SOL     OW 1320   1.141   4.383  13.742
99808SOL    HW1 1321   1.130   4.412  13.652
99808SOL    HW2 1322   1.211   4.317  13.738
99809SOL     OW 1323   9.616   6.901  11.369
99809SOL    HW1 1324   9.586   6.991  11.355
99809SOL    HW2 1325   9.558   6.867  11.437
99810SOL     OW 1326   8.326  13.109   4.310
99810SOL    HW1 1327   8.345  13.163   4.234
99810SOL    HW2 1328   8.266  13.161   4.363
99811SOL     OW 1329  11.089   2.891   5.551
99811SOL    HW1 1330  11.076   2.932   5.466
99811SOL    HW2 1331  11.108   2.963   5.611
99812SOL     OW 1332  12.411  12.305   9.980
99812SOL    HW1 1333  12.413  12.356  10.061
99812SOL    HW2 1334  12.488  12.336   9.931
99813SOL     OW 1335   8.447   1.650  13.028
99813SOL    HW1 1336   8.402   1.667  13.111
99813SOL    HW2 1337   8.538   1.635  13.052
99814SOL     OW 1338  14.073   4.483  14.243
99814SOL    HW1 1339  14.054   4.422  14.172
99814SOL    HW2 1340  14.166   4.474  14.259
99815SOL     OW 1341   4.356  14.291  14.365
99815SOL    HW1 1342   4.312  14.247  14.292
99815SOL    HW2 1343   4.415  14.353  14.324
99816SOL     OW 1344   7.610   5.389   3.433
99816SOL    HW1 1345   7.563   5.443   3.497
99816SOL    HW2 1346   7.576   5.416   3.348
99817SOL     OW 1347   3.462   7.254   2.168
99817SOL    HW1 1348   3.536   7.196   2.187
99817SOL    HW2 1349   3.391   7.195   2.143
99818SOL     OW 1350   5.428   5.957   2.975
99818SOL    HW1 1351   5.450   5.957   3.069
99818SOL    HW2 1352   5.471   5.879   2.941
99819SOL     OW 1353   6.271  12.470  11.286
99819SOL    HW1 1354   6.346  12.522  11.258
99819SOL    HW2 1355   6.210  12.473  11.212
99820SOL     OW 1356   9.160  10.850  12.515
99820SOL    HW1 1357   9.192  10.941  12.512
99820SOL    HW2 1358   9.069  10.858  12.544
99821SOL     OW 1359  14.774   3.801   1.390
99821SOL    HW1 1360  14.863   3.834   1.383
99821SOL    HW2 1361  14.727   3.868   1.440
99822SOL     OW 1362   5.203   4.231   4.569
99822SOL    HW1 1363   5.232   4.264   4.484
99822SOL    HW2 1364   5.250   4.286   4.632
99823SOL     OW 1365   4.923  10.139   1.622
99823SOL    HW1 1366   4.847  10.169   1.671
99823SOL    HW2 1367   4.886  10.093   1.546
99824SOL     OW 1368   5.153   5.148  12.892
99824SOL    HW1 1369   5.106   5.230  12.906
99824SOL    HW2 1370   5.227   5.172  12.836
99825SOL     OW 1371  10.832   5.846   0.645
99825SOL    HW1 1372  10.751   5.796   0.654
99825SOL    HW2 1373  10.809   5.920   0.589
99826SOL     OW 1374   8.601   8.325   5.023
99826SOL    HW1 1375   8.573   8.372   5.102
99826SOL    HW2 1376   8.563   8.238   5.032
99827SOL     OW 1377  11.938   8.395  10.484
99827SOL    HW1 1378  11.910   8.326  10.543
99827SOL    HW2 1379  11.921   8.476  10.532
99828SOL     OW 1380   5.432   3.433   4.888
99828SOL    HW1 1381   5.421   3.527   4.875
99828SOL    HW2 1382   5.349   3.404   4.926
99829SOL     OW 1383  11.839   7.416   1.464
99829SOL    HW1 1384  11.922   7.412   1.416
99829SOL    HW2 1385  11.772   7.401   1.398
99830SOL     OW 1386   2.101  14.765   8.677
99830SOL    HW1 1387   2.180  14.721   8.648
99830SOL    HW2 1388   2.101  14.754   8.772
99831SOL     OW 1389   3.407   7.915  11.496
99831SOL    HW1 1390   3.422   7.828  11.459
99831SOL    HW2 1391   3.450   7.974  11.434
99832SOL     OW 1392   6.320   3.804   0.417
99832SOL    HW1 1393   6.281   3.790   0.503
99832SOL    HW2 1394   6.264   3.870   0.376
99833SOL     OW 1395  13.306   1.672  12.476
99833SOL    HW1 1396  13.401   1.686  12.482
99833SOL    HW2 1397  13.275   1.680  12.567
99834SOL     OW 1398  11.103  14.511   0.720
99834SOL    HW1 1399  11.157  14.575   0.672
99834SOL    HW2 1400  11.059  14.563   0.787
99835SOL     OW 1401   8.412   3.347  12.408
99835SOL    HW1 1402   8.349   3.316  12.343
99835SOL    HW2 1403   8.397   3.292  12.485
99836SOL     OW 1404   3.807  13.799   9.554
99836SOL    HW1 1405   3.740  13.868   9.560
99836SOL    HW2 1406   3.775  13.741   9.484
99837SOL     OW 1407  13.971   6.021   1.215
99837SOL    HW1 1408  13.897   6.060   1.261
99837SOL    HW2 1409  14.007   5.957   1.277
99838SOL     OW 1410   2.613  12.826   4.715
99838SOL    HW1 1411   2.607  12.881   4.637
99838SOL    HW2 1412   2.523  12.822   4.749
99839SOL     OW 1413   5.029  11.081  12.709
99839SOL    HW1 1414   4.944  11.111  12.740
99839SOL    HW2 1415   5.037  11.120  12.621
99840SOL     OW 1416   5.235   3.767  11.290
99840SOL    HW1 1417   5.284   3.841  11.326
99840SOL    HW2 1418   5.165   3.808  11.238
99841SOL     OW 1419  11.511   4.007   8.100
99841SOL    HW1 1420  11.533   4.008   8.193
99841SOL    HW2 1421  11.473   3.920   8.085
99842SOL     OW 1422  12.983   1.742   0.810
99842SOL    HW1 1423  12.890   1.729   0.828
99842SOL    HW2 1424  13.024   1.658   0.829
99843SOL     OW 1425   0.391   4.753   5.116
99843SOL    HW1 1426   0.331   4.805   5.169
99843SOL    HW2 1427   0.474   4.757   5.164
99844SOL     OW 1428   5.128   3.620   7.378
99844SOL    HW1 1429   5.160   3.530   7.372
99844SOL    HW2 1430   5.044   3.612   7.424
99845SOL     OW 1431   2.264   2.606   2.848
99845SOL    HW1 1432   2.183   2.603   2.797
99845SOL    HW2 1433   2.239   2.651   2.929
99846SOL     OW 1434  12.142   2.277   5.557
99846SOL    HW1 1435  12.083   2.346   5.588
99846SOL    HW2 1436  12.209   2.324   5.508
99847SOL     OW 1437  10.801  10.910   8.869
99847SOL    HW1 1438  10.721  10.900   8.921
99847SOL    HW2 1439  10.803  10.833   8.812
99848SOL     OW 1440  14.263  10.959  10.609
99848SOL    HW1 1441  14.264  11.052  10.584
99848SOL    HW2 1442  14.297  10.913  10.532
99849SOL     OW 1443  14.119  10.143   4.853
99849SOL    HW1 1444  14.024  10.160   4.852
99849SOL    HW2 1445  14.150  10.191   4.929
99850SOL     OW 1446   1.022  12.618   5.887
99850SOL    HW1 1447   1.080  12.637   5.813
99850SOL    HW2 1448   0.968  12.545   5.856
99851SOL     OW 1449  10.699   9.590   1.021
99851SOL    HW1 1450  10.688   9.682   0.996
99851SOL    HW2 1451  10.628   9.544   0.976
99852SOL     OW 1452  14.203   9.020   8.004
99852SOL    HW1 1453  14.252   8.971   8.071
99852SOL    HW2 1454  14.123   8.969   7.991
99853SOL     OW 1455   0.674   8.586   9.663
99853SOL    HW1 1456   0.710   8.636   9.737
99853SOL    HW2 1457   0.585   8.564   9.692
99854SOL     OW 1458   9.005   7.958  11.241
99854SOL    HW1 1459   9.020   8.023  11.309
99854SOL    HW2 1460   8.967   7.883  11.287
99855SOL     OW 1461  11.196  10.471   3.376
99855SOL    HW1 1462  11.196  10.432   3.288
99855SOL    HW2 1463  11.104  10.491   3.393
99856SOL     OW 1464   2.923   0.131  10.428
99856SOL    HW1 1465   2.952   0.109  10.339
99856SOL    HW2 1466   2.847   0.076  10.443
99857SOL     OW 1467  11.519   0.609   8.040
99857SOL    HW1 1468  11.598   0.567   8.007
99857SOL    HW2 1469  11.539   0.628   8.132
99858SOL     OW 1470   6.167   8.486   8.612
99858SOL    HW1 1471   6.145   8.570   8.654
99858SOL    HW2 1472   6.126   8.491   8.526
99859SOL     OW 1473   4.934   1.345   4.715
99859SOL    HW1 1474   4.906   1.360   4.625
99859SOL    HW2 1475   5.009   1.287   4.708
99860SOL     OW 1476  12.576   6.925   9.527
99860SOL    HW1 1477  12.562   6.841   9.482
99860SOL    HW2 1478  12.493   6.971   9.518
99861SOL     OW 1479   2.862   1.613   6.755
99861SOL    HW1 1480   2.868   1.638   6.662
99861SOL    HW2 1481   2.803   1.538   6.755
99862SOL     OW 1482   6.368   0.262   9.942
99862SOL    HW1 1483   6.458   0.286   9.918
99862SOL    HW2 1484   6.320   0.345   9.940
99863SOL     OW 1485   1.810  14.516   2.875
99863SOL    HW1 1486   1.751  14.544   2.945
99863SOL    HW2 1487   1.804  14.420   2.876
99864SOL     OW 1488  10.095  14.757  13.646
99864SOL    HW1 1489  10.109  14.711  13.563
99864SOL    HW2 1490  10.042  14.833  13.622
99865SOL     OW 1491   6.730   4.168   3.264
99865SOL    HW1 1492   6.688   4.247   3.228
99865SOL    HW2 1493   6.814   4.164   3.220
99866SOL     OW 1494   6.923   2.588  11.178
99866SOL    HW1 1495   6.964   2.588  11.264
99866SOL    HW2 1496   6.927   2.679  11.149
99867SOL     OW 1497   8.066   3.557   8.877
99867SOL    HW1 1498   8.120   3.575   8.800
99867SOL    HW2 1499   8.122   3.580   8.951
99868SOL     OW 1500   1.058   7.976   3.439
99868SOL    HW1 1501   0.980   7.923   3.425
99868SOL    HW2 1502   1.077   8.014   3.353
99869SOL     OW 1503   3.699   6.163   3.275
99869SOL    HW1 1504   3.685   6.207   3.359
99869SOL    HW2 1505   3.758   6.090   3.296
99870SOL     OW 1506   4.515   1.111  10.562
99870SOL    HW1 1507   4.458   1.130  10.637
99870SOL    HW2 1508   4.464   1.139  10.486
99871SOL     OW 1509   4.245   8.449   8.318
99871SOL    HW1 1510   4.193   8.419   8.243
99871SOL    HW2 1511   4.187   8.509   8.365
99872SOL     OW 1512   2.338   7.746   8.897
99872SOL    HW1 1513   2.361   7.799   8.974
99872SOL    HW2 1514   2.246   7.723   8.911
99873SOL     OW 1515  10.755   7.412  14.854
99873SOL    HW1 1516  10.827   7.369  14.806
99873SOL    HW2 1517  10.772   7.391   0.064
99874SOL     OW 1518   7.526   0.977   3.818
99874SOL    HW1 1519   7.470   1.044   3.778
99874SOL    HW2 1520   7.610   1.020   3.831
99875SOL     OW 1521  14.432   3.583   1.287
99875SOL    HW1 1522  14.494   3.581   1.360
99875SOL    HW2 1523  14.483   3.552   1.212
99876SOL     OW 1524  10.133   8.470   9.748
99876SOL    HW1 1525  10.088   8.386   9.742
99876SOL    HW2 1526  10.148   8.496   9.657
99877SOL     OW 1527   3.825   8.756   1.343
99877SOL    HW1 1528   3.877   8.825   1.300
99877SOL    HW2 1529   3.845   8.677   1.293
99878SOL     OW 1530   3.939   6.252   5.174
99878SOL    HW1 1531   3.949   6.255   5.079
99878SOL    HW2 1532   3.976   6.167   5.199
99879SOL     OW 1533   1.216  10.780   8.581
99879SOL    HW1 1534   1.282  10.737   8.635
99879SOL    HW2 1535   1.265  10.809   8.503
99880SOL     OW 1536   5.127   5.125   3.453
99880SOL    HW1 1537   5.063   5.054   3.452
99880SOL    HW2 1538   5.181   5.108   3.531
99881SOL     OW 1539   5.525  12.476  14.014
99881SOL    HW1 1540   5.477  12.424  13.950
99881SOL    HW2 1541   5.458  12.507  14.075
99882SOL     OW 1542   3.175   5.816  12.524
99882SOL    HW1 1543   3.251   5.784  12.574
99882SOL    HW2 1544   3.195   5.909  12.509
99883SOL     OW 1545   9.032  13.342   1.740
99883SOL    HW1 1546   9.088  13.414   1.770
99883SOL    HW2 1547   8.988  13.311   1.819
99884SOL     OW 1548  12.230  13.975   1.890
99884SOL    HW1 1549  12.325  13.969   1.880
99884SOL    HW2 1550  12.194  13.926   1.816
99885SOL     OW 1551   1.134   6.028   3.118
99885SOL    HW1 1552   1.102   6.044   3.029
99885SOL    HW2 1553   1.225   6.056   3.115
99886SOL     OW 1554   9.304   3.413   8.192
99886SOL    HW1 1555   9.332   3.492   8.240
99886SOL    HW2 1556   9.385   3.364   8.178
99887SOL     OW 1557   6.354  12.099  12.058
99887SOL    HW1 1558   6.267  12.107  12.018
99887SOL    HW2 1559   6.414  12.093  11.985
99888SOL     OW 1560   3.206  14.484   0.762
99888SOL    HW1 1561   3.261  14.421   0.808
99888SOL    HW2 1562   3.248  14.493   0.676
99889SOL     OW 1563   7.345   7.307   7.294
99889SOL    HW1 1564   7.356   7.232   7.236
99889SOL    HW2 1565   7.381   7.381   7.244
99890SOL     OW 1566   2.428   3.127   8.899
99890SOL    HW1 1567   2.418   3.036   8.928
99890SOL    HW2 1568   2.470   3.120   8.813
99891SOL     OW 1569  14.185   1.444   4.869
99891SOL    HW1 1570  14.222   1.364   4.905
99891SOL    HW2 1571  14.244   1.513   4.899
99892SOL     OW 1572  11.283  13.007  11.150
99892SOL    HW1 1573  11.238  12.923  11.154
99892SOL    HW2 1574  11.372  12.989  11.179
99893SOL     OW 1575  11.446   9.010  12.530
99893SOL    HW1 1576  11.507   9.082  12.550
99893SOL    HW2 1577  11.403   9.038  12.449
99894SOL     OW 1578   3.906   0.291  14.844
99894SOL    HW1 1579   3.881   0.368  14.792
99894SOL    HW2 1580   3.855   0.220  14.807
99895SOL     OW 1581  10.928   6.094   8.142
99895SOL    HW1 1582  11.022   6.090   8.129
99895SOL    HW2 1583  10.913   6.180   8.181
99896SOL     OW 1584  14.352   6.408   2.083
99896SOL    HW1 1585  14.266   6.416   2.042
99896SOL    HW2 1586  14.349   6.468   2.158
99897SOL     OW 1587  12.917   1.951   4.907
99897SOL    HW1 1588  12.835   1.931   4.951
99897SOL    HW2 1589  12.912   2.044   4.888
99898SOL     OW 1590   7.535   3.002  10.478
99898SOL    HW1 1591   7.457   2.957  10.510
99898SOL    HW2 1592   7.565   2.949  10.404
99899SOL     OW 1593   5.565   6.113   5.271
99899SOL    HW1 1594   5.600   6.202   5.282
99899SOL    HW2 1595   5.596   6.086   5.185
99900SOL     OW 1596  12.686  11.275   1.786
99900SOL    HW1 1597  12.725  11.248   1.869
99900SOL    HW2 1598  12.605  11.319   1.810
99901SOL     OW 1599   1.271   6.144   5.036
99901SOL    HW1 1600   1.303   6.116   4.950
99901SOL    HW2 1601   1.181   6.174   5.020
99902SOL     OW 1602   4.599   4.414  11.342
99902SOL    HW1 1603   4.600   4.320  11.360
99902SOL    HW2 1604   4.556   4.453  11.418
99903SOL     OW 1605   1.918   8.316   7.794
99903SOL    HW1 1606   1.913   8.250   7.725
99903SOL    HW2 1607   1.999   8.294   7.842
99904SOL     OW 1608  12.718   0.613  14.410
99904SOL    HW1 1609  12.746   0.525  14.437
99904SOL    HW2 1610  12.639   0.599  14.358
99905SOL     OW 1611  13.118   9.660   3.508
99905SOL    HW1 1612  13.170   9.630   3.433
99905SOL    HW2 1613  13.128   9.755   3.507
99906SOL     OW 1614   7.242   5.992   5.136
99906SOL    HW1 1615   7.276   6.004   5.047
99906SOL    HW2 1616   7.186   6.068   5.151
99907SOL     OW 1617   0.558   9.483   0.862
99907SOL    HW1 1618   0.649   9.502   0.837
99907SOL    HW2 1619   0.533   9.409   0.808
99908SOL     OW 1620   8.158   8.297  11.635
99908SOL    HW1 1621   8.226   8.318  11.571
99908SOL    HW2 1622   8.154   8.202  11.635
99909SOL     OW 1623   0.881  14.866   2.503
99909SOL    HW1 1624   0.856  14.780   2.536
99909SOL    HW2 1625   0.835   0.046   2.560
99910SOL     OW 1626  13.526  10.591  11.095
99910SOL    HW1 1627  13.434  10.585  11.070
99910SOL    HW2 1628  13.546  10.505  11.132
99911SOL     OW 1629   2.300  13.401  14.049
99911SOL    HW1 1630   2.281  13.487  14.085
99911SOL    HW2 1631   2.219  13.376  14.003
99912SOL     OW 1632  10.698   4.865  14.597
99912SOL    HW1 1633  10.627   4.881  14.534
99912SOL    HW2 1634  10.774   4.844  14.543
99913SOL     OW 1635   7.129   5.690  13.540
99913SOL    HW1 1636   7.202   5.744  13.509
99913SOL    HW2 1637   7.065   5.692  13.468
99914SOL     OW 1638  11.492   8.035   7.894
99914SOL    HW1 1639  11.434   7.972   7.853
99914SOL    HW2 1640  11.447   8.119   7.886
99915SOL     OW 1641   5.601  13.523   3.927
99915SOL    HW1 1642   5.619  13.615   3.911
99915SOL    HW2 1643   5.679  13.477   3.895
99916SOL     OW 1644   3.061  13.400   3.149
99916SOL    HW1 1645   3.052  13.447   3.232
99916SOL    HW2 1646   2.977  13.357   3.136
99917SOL     OW 1647  14.395   2.366   3.818
99917SOL    HW1 1648  14.349   2.284   3.799
99917SOL    HW2 1649  14.325   2.428   3.839
99918SOL     OW 1650   0.718   7.091   1.559
99918SOL    HW1 1651   0.786   7.143   1.516
99918SOL    HW2 1652   0.736   7.001   1.532
99919SOL     OW 1653   7.609   4.002   4.016
99919SOL    HW1 1654   7.529   3.960   4.050
99919SOL    HW2 1655   7.592   4.014   3.923
99920SOL     OW 1656   9.831   2.882   6.112
99920SOL    HW1 1657   9.870   2.844   6.190
99920SOL    HW2 1658   9.856   2.975   6.116
99921SOL     OW 1659  10.519   6.763  11.495
99921SOL    HW1 1660  10.594   6.802  11.541
99921SOL    HW2 1661  10.444   6.785  11.550
99922SOL     OW 1662  11.665  14.657  11.114
99922SOL    HW1 1663  11.583  14.619  11.144
99922SOL    HW2 1664  11.732  14.596  11.145
99923SOL     OW 1665   0.885   8.329   9.816
99923SOL    HW1 1666   0.896   8.313   9.910
99923SOL    HW2 1667   0.887   8.424   9.807
99924SOL     OW 1668   2.679   5.170   2.991
99924SOL    HW1 1669   2.713   5.138   3.074
99924SOL    HW2 1670   2.630   5.250   3.014
99925SOL     OW 1671   8.914   2.708   5.071
99925SOL    HW1 1672   8.943   2.623   5.104
99925SOL    HW2 1673   8.835   2.688   5.020
99926SOL     OW 1674   9.241  14.322   4.368
99926SOL    HW1 1675   9.177  14.318   4.439
99926SOL    HW2 1676   9.200  14.378   4.302
99927SOL     OW 1677  11.167   8.920   1.854
99927SOL    HW1 1678  11.125   8.955   1.933
99927SOL    HW2 1679  11.182   8.996   1.799
99928SOL     OW 1680   6.325   0.842   9.088
99928SOL    HW1 1681   6.355   0.905   9.023
99928SOL    HW2 1682   6.280   0.894   9.155
99929SOL     OW 1683   9.180  10.625   8.505
99929SOL    HW1 1684   9.121  10.640   8.579
99929SOL    HW2 1685   9.142  10.676   8.434
99930SOL     OW 1686   1.624   4.757   4.195
99930SOL    HW1 1687   1.655   4.756   4.285
99930SOL    HW2 1688   1.529   4.763   4.201
99931SOL     OW 1689   5.485   1.346  10.287
99931SOL    HW1 1690   5.446   1.306  10.364
99931SOL    HW2 1691   5.427   1.419  10.266
99932SOL     OW 1692   5.825   5.876   8.111
99932SOL    HW1 1693   5.888   5.805   8.117
99932SOL    HW2 1694   5.869   5.944   8.059
99933SOL     OW 1695  10.547   4.673  11.451
99933SOL    HW1 1696  10.459   4.650  11.421
99933SOL    HW2 1697  10.584   4.726  11.380
99934SOL     OW 1698  10.626   7.381   4.108
99934SOL    HW1 1699  10.613   7.442   4.035
99934SOL    HW2 1700  10.555   7.318   4.100
99935SOL     OW 1701   2.357  14.462  11.266
99935SOL    HW1 1702   2.323  14.545  11.300
99935SOL    HW2 1703   2.450  14.477  11.253
99936SOL     OW 1704   3.171  12.451  12.165
99936SOL    HW1 1705   3.186  12.487  12.252
99936SOL    HW2 1706   3.088  12.491  12.137
99937SOL     OW 1707  13.072  14.865   3.990
99937SOL    HW1 1708  13.150  14.848   4.042
99937SOL    HW2 1709  13.016   0.036   4.047
99938SOL     OW 1710   1.019  13.256  11.727
99938SOL    HW1 1711   1.068  13.338  11.741
99938SOL    HW2 1712   1.017  13.245  11.632
99939SOL     OW 1713   7.382   1.937   0.339
99939SOL    HW1 1714   7.350   2.011   0.390
99939SOL    HW2 1715   7.319   1.927   0.268
99940SOL     OW 1716   4.313   6.279   6.048
99940SOL    HW1 1717   4.328   6.363   6.004
99940SOL    HW2 1718   4.235   6.294   6.101
99941SOL     OW 1719   2.210  13.311   6.868
99941SOL    HW1 1720   2.161  13.393   6.872
99941SOL    HW2 1721   2.179  13.268   6.789
99942SOL     OW 1722   9.176  14.674   3.161
99942SOL    HW1 1723   9.252  14.694   3.216
99942SOL    HW2 1724   9.102  14.711   3.209
99943SOL     OW 1725   9.770   4.853  11.481
99943SOL    HW1 1726   9.751   4.817  11.567
99943SOL    HW2 1727   9.821   4.786  11.436
99944SOL     OW 1728  10.660   9.499   2.527
99944SOL    HW1 1729  10.641   9.409   2.555
99944SOL    HW2 1730  10.670   9.492   2.432
99945SOL     OW 1731   6.603   0.058   3.942
99945SOL    HW1 1732   6.632   0.149   3.950
99945SOL    HW2 1733   6.510   0.065   3.920
99946SOL     OW 1734  11.670   2.368  14.866
99946SOL    HW1 1735  11.602   2.343  14.803
99946SOL    HW2 1736  11.727   2.292  14.873
99947SOL     OW 1737  11.299   6.005   8.610
99947SOL    HW1 1738  11.342   6.084   8.580
99947SOL    HW2 1739  11.251   6.032   8.689
99948SOL     OW 1740  11.568   6.257   1.492
99948SOL    HW1 1741  11.479   6.293   1.487
99948SOL    HW2 1742  11.570   6.190   1.424
99949SOL     OW 1743  12.918   8.385   7.784
99949SOL    HW1 1744  12.921   8.351   7.873
99949SOL    HW2 1745  12.862   8.323   7.737
99950SOL     OW 1746   3.952   5.629   5.010
99950SOL    HW1 1747   3.937   5.621   4.916
99950SOL    HW2 1748   3.877   5.584   5.050
99951SOL     OW 1749  14.767   5.217   1.064
99951SOL    HW1 1750  14.713   5.210   0.985
99951SOL    HW2 1751  14.850   5.255   1.033
99952SOL     OW 1752   6.402   5.531   3.247
99952SOL    HW1 1753   6.307   5.543   3.239
99952SOL    HW2 1754   6.436   5.553   3.160
99953SOL     OW 1755  12.402   4.877   3.682
99953SOL    HW1 1756  12.316   4.908   3.711
99953SOL    HW2 1757  12.439   4.950   3.632
99954SOL     OW 1758   1.075  14.402   5.805
99954SOL    HW1 1759   1.144  14.469   5.800
99954SOL    HW2 1760   1.083  14.353   5.724
99955SOL     OW 1761   4.294   5.582   2.203
99955SOL    HW1 1762   4.356   5.553   2.136
99955SOL    HW2 1763   4.224   5.517   2.201
99956SOL     OW 1764  12.636   8.433  11.524
99956SOL    HW1 1765  12.640   8.520  11.562
99956SOL    HW2 1766  12.719   8.392  11.549
99957SOL     OW 1767  13.713   5.945   3.281
99957SOL    HW1 1768  13.722   5.988   3.366
99957SOL    HW2 1769  13.783   5.879   3.279
99958SOL     OW 1770   8.959   4.180  13.712
99958SOL    HW1 1771   9.023   4.251  13.721
99958SOL    HW2 1772   8.877   4.217  13.745
99959SOL     OW 1773  13.399   8.673   0.479
99959SOL    HW1 1774  13.343   8.729   0.533
99959SOL    HW2 1775  13.345   8.596   0.462
99960SOL     OW 1776   5.506   8.106   1.388
99960SOL    HW1 1777   5.535   8.168   1.321
99960SOL    HW2 1778   5.568   8.034   1.383
99961SOL     OW 1779  13.550  12.996   1.558
99961SOL    HW1 1780  13.626  13.031   1.605
99961SOL    HW2 1781  13.546  12.904   1.584
99962SOL     OW 1782   6.216  14.103   7.715
99962SOL    HW1 1783   6.276  14.092   7.642
99962SOL    HW2 1784   6.261  14.164   7.774
99963SOL     OW 1785   2.364   0.546   1.981
99963SOL    HW1 1786   2.416   0.625   1.968
99963SOL    HW2 1787   2.360   0.505   1.894
99964SOL     OW 1788  13.129  10.924   8.182
99964SOL    HW1 1789  13.087  10.949   8.099
99964SOL    HW2 1790  13.217  10.961   8.176
99965SOL     OW 1791  10.401   3.315   1.839
99965SOL    HW1 1792  10.392   3.332   1.745
99965SOL    HW2 1793  10.323   3.264   1.862
99966SOL     OW 1794   5.567   3.059   7.613
99966SOL    HW1 1795   5.536   3.140   7.654
99966SOL    HW2 1796   5.629   3.023   7.676
99967SOL     OW 1797  10.803   2.759   2.650
99967SOL    HW1 1798  10.823   2.809   2.729
99967SOL    HW2 1799  10.726   2.708   2.672
99968SOL     OW 1800  11.336  13.545   5.148
99968SOL    HW1 1801  11.356  13.521   5.239
99968SOL    HW2 1802  11.241  13.557   5.148
99969SOL     OW 1803   1.986   5.784   7.846
99969SOL    HW1 1804   2.050   5.762   7.779
99969SOL    HW2 1805   1.953   5.870   7.821
99970SOL     OW 1806  11.879   4.628   6.000
99970SOL    HW1 1807  11.840   4.553   6.044
99970SOL    HW2 1808  11.805   4.685   5.978
99971SOL     OW 1809   8.413   7.576   0.518
99971SOL    HW1 1810   8.359   7.600   0.593
99971SOL    HW2 1811   8.379   7.491   0.490
99972SOL     OW 1812   7.169   1.704   1.607
99972SOL    HW1 1813   7.185   1.798   1.611
99972SOL    HW2 1814   7.085   1.696   1.561
99973SOL     OW 1815   9.258  10.182   1.995
99973SOL    HW1 1816   9.276  10.090   1.974
99973SOL    HW2 1817   9.194  10.179   2.066
99974SOL     OW 1818   4.867   5.477   9.506
99974SOL    HW1 1819   4.804   5.464   9.577
99974SOL    HW2 1820   4.921   5.551   9.534
99975SOL     OW 1821   7.278   7.754  13.842
99975SOL    HW1 1822   7.358   7.754  13.894
99975SOL    HW2 1823   7.283   7.674  13.789
99976SOL     OW 1824  12.191  14.691  10.327
99976SOL    HW1 1825  12.147  14.728  10.251
99976SOL    HW2 1826  12.228  14.766  10.373
99977SOL     OW 1827   5.229   1.409  13.542
99977SOL    HW1 1828   5.294   1.457  13.593
99977SOL    HW2 1829   5.281   1.354  13.483
99978SOL     OW 1830  11.347   6.591   7.327
99978SOL    HW1 1831  11.278   6.558   7.270
99978SOL    HW2 1832  11.390   6.513   7.362
99979SOL     OW 1833   3.830   4.288   8.826
99979SOL    HW1 1834   3.791   4.232   8.759
99979SOL    HW2 1835   3.756   4.323   8.874
99980SOL     OW 1836  14.493  11.076  13.013
99980SOL    HW1 1837  14.417  11.092  13.068
99980SOL    HW2 1838  14.562  11.049  13.073
99981SOL     OW 1839  11.932  12.728   3.124
99981SOL    HW1 1840  11.927  12.799   3.060
99981SOL    HW2 1841  11.903  12.768   3.206
99982SOL     OW 1842   7.591   1.346   1.237
99982SOL    HW1 1843   7.502   1.341   1.271
99982SOL    HW2 1844   7.635   1.268   1.272
99983SOL     OW 1845  10.869   6.672   7.517
99983SOL    HW1 1846  10.832   6.751   7.557
99983SOL    HW2 1847  10.796   6.611   7.513
99984SOL     OW 1848   9.433  10.656  14.834
99984SOL    HW1 1849   9.494  10.590  14.869
99984SOL    HW2 1850   9.456  10.736  14.880
99985SOL     OW 1851   7.810   0.579   3.607
99985SOL    HW1 1852   7.900   0.554   3.629
99985SOL    HW2 1853   7.781   0.630   3.682
99986SOL     OW 1854  13.250  11.334  14.634
99986SOL    HW1 1855  13.158  11.312  14.651
99986SOL    HW2 1856  13.297  11.253  14.653
99987SOL     OW 1857   4.344   2.121   3.742
99987SOL    HW1 1858   4.397   2.103   3.819
99987SOL    HW2 1859   4.397   2.181   3.689
99988SOL     OW 1860   7.452   7.399   6.778
99988SOL    HW1 1861   7.412   7.412   6.692
99988SOL    HW2 1862   7.470   7.488   6.809
99989SOL     OW 1863  10.648  10.580   1.308
99989SOL    HW1 1864  10.562  10.542   1.325
99989SOL    HW2 1865  10.706  10.505   1.294
99990SOL     OW 1866   2.673  12.961   7.889
99990SOL    HW1 1867   2.737  12.890   7.885
99990SOL    HW2 1868   2.694  13.017   7.814
99991SOL     OW 1869  12.138  12.713   4.170
99991SOL    HW1 1870  12.138  12.643   4.236
99991SOL    HW2 1871  12.159  12.669   4.088
99992SOL     OW 1872  12.384   5.082   8.430
99992SOL    HW1 1873  12.331   5.161   8.427
99992SOL    HW2 1874  12.326   5.015   8.465
99993SOL     OW 1875   4.709  12.896  13.087
99993SOL    HW1 1876   4.662  12.911  13.005
99993SOL    HW2 1877   4.647  12.847  13.142
99994SOL     OW 1878   9.718   3.875  10.624
99994SOL    HW1 1879   9.805   3.891  10.587
99994SOL    HW2 1880   9.736   3.841  10.712
99995SOL     OW 1881  10.273  13.174   3.616
99995SOL    HW1 1882  10.204  13.192   3.680
99995SOL    HW2 1883  10.341  13.239   3.634
99996SOL     OW 1884   2.984  11.261   3.060
99996SOL    HW1 1885   2.983  11.231   3.151
99996SOL    HW2 1886   2.944  11.190   3.010
99997SOL     OW 1887   4.577   7.935   6.477
99997SOL    HW1 1888   4.548   7.892   6.396
99997SOL    HW2 1889   4.655   7.984   6.452
99998SOL     OW 1890  13.968   3.898  13.235
99998SOL    HW1 1891  13.978   3.803  13.239
99998SOL    HW2 1892  13.878   3.914  13.264
99999SOL     OW 1893   8.301   9.029  10.206
99999SOL    HW1 1894   8.290   9.020  10.301
99999SOL    HW2 1895   8.282   8.942  10.171
    0SOL     OW 1896  12.929  13.641  12.787
    0SOL    HW1 1897  12.959  13.705  12.722
    0SOL    HW2 1898  12.893  13.694  12.858
    1SOL     OW 1899   1.431   2.377  12.961
    1SOL    HW1 1900   1.418   2.400  13.054
    1SOL    HW2 1901   1.476   2.293  12.964
    2SOL     OW 1902   3.840   2.092   6.636
    2SOL    HW1 1903   3.764   2.106   6.579
    2SOL    HW2 1904   3.836   1.999   6.659
    3SOL     OW 1905  13.062   1.206   2.945
    3SOL    HW1 1906  13.069   1.244   2.857
    3SOL    HW2 1907  13.080   1.113   2.932
    4SOL     OW 1908   2.650   9.386   0.163
    4SOL    HW1 1909   2.606   9.456   0.114
    4SOL    HW2 1910   2.579   9.328   0.192
    5SOL     OW 1911   9.048   2.907   8.840
    5SOL    HW1 1912   8.981   2.972   8.862
    5SOL    HW2 1913   9.048   2.904   8.745
    6SOL     OW 1914   6.409   0.811   7.453
    6SOL    HW1 1915   6.429   0.778   7.365
    6SOL    HW2 1916   6.376   0.734   7.500
    7SOL     OW 1917   1.162  10.049   2.669
    7SOL    HW1 1918   1.127   9.960   2.673
    7SOL    HW2 1919   1.228  10.051   2.739
    8SOL     OW 1920   3.337   6.120   4.648
    8SOL    HW1 1921   3.316   6.051   4.585
    8SOL    HW2 1922   3.256   6.135   4.696
    9SOL     OW 1923   8.710   6.044   7.603
    9SOL    HW1 1924   8.744   6.092   7.678
    9SOL    HW2 1925   8.625   6.011   7.632
   10SOL     OW 1926  14.169   0.805  14.057
   10SOL    HW1 1927  14.168   0.732  13.995
   10SOL    HW2 1928  14.216   0.771  14.134
   11SOL     OW 1929  11.973   3.571   8.262
   11SOL    HW1 1930  12.039   3.638   8.281
   11SOL    HW2 1931  12.023   3.498   8.226
   12SOL     OW 1932   0.315   3.232   9.001
   12SOL    HW1 1933   0.286   3.185   8.922
   12SOL    HW2 1934   0.403   3.262   8.979
   13SOL     OW 1935   1.471   9.058   0.449
   13SOL    HW1 1936   1.394   9.066   0.506
   13SOL    HW2 1937   1.475   8.964   0.427
   14SOL     OW 1938  12.515  13.788   5.320
   14SOL    HW1 1939  12.581  13.729   5.357
   14SOL    HW2 1940  12.526  13.869   5.370
   15SOL     OW 1941  10.641  11.778   3.236
   15SOL    HW1 1942  10.700  11.726   3.182
   15SOL    HW2 1943  10.562  11.725   3.243
   16SOL     OW 1944   0.311   5.957   7.332
   16SOL    HW1 1945   0.349   5.997   7.254
   16SOL    HW2 1946   0.384   5.952   7.394
   17SOL     OW 1947   7.520   7.139   5.554
   17SOL    HW1 1948   7.469   7.187   5.490
   17SOL    HW2 1949   7.597   7.194   5.569
   18SOL     OW 1950   3.424   6.723   3.242
   18SOL    HW1 1951   3.396   6.779   3.315
   18SOL    HW2 1952   3.495   6.670   3.278
   19SOL     OW 1953   4.068   8.080   7.712
   19SOL    HW1 1954   4.160   8.102   7.694
   19SOL    HW2 1955   4.028   8.073   7.626
   20SOL     OW 1956   0.068  11.661   2.987
   20SOL    HW1 1957   0.027  11.612   3.059
   20SOL    HW2 1958   0.026  11.747   2.989
   21SOL     OW 1959   9.283   6.106   4.036
   21SOL    HW1 1960   9.231   6.156   4.098
   21SOL    HW2 1961   9.221   6.078   3.968
   22SOL     OW 1962   9.702  13.683   7.232
   22SOL    HW1 1963   9.744  13.597   7.226
   22SOL    HW2 1964   9.647  13.688   7.154
   23SOL     OW 1965  12.212   6.461   6.080
   23SOL    HW1 1966  12.240   6.391   6.139
   23SOL    HW2 1967  12.290   6.514   6.067
   24SOL     OW 1968   8.314   8.983   1.013
   24SOL    HW1 1969   8.370   8.906   1.022
   24SOL    HW2 1970   8.335   9.019   0.927
   25SOL     OW 1971  12.804   9.073  12.312
   25SOL    HW1 1972  12.869   9.054  12.244
   25SOL    HW2 1973  12.826   9.013  12.383
   26SOL     OW 1974   4.136   7.154   7.552
   26SOL    HW1 1975   4.060   7.120   7.598
   26SOL    HW2 1976   4.204   7.161   7.619
   27SOL     OW 1977  12.439  12.925   6.370
   27SOL    HW1 1978  12.454  12.921   6.465
   27SOL    HW2 1979  12.518  12.968   6.336
   28SOL     OW 1980   0.205  10.840  12.474
   28SOL    HW1 1981   0.188  10.925  12.432
   28SOL    HW2 1982   0.119  10.803  12.490
   29SOL     OW 1983  10.932   3.838   6.806
   29SOL    HW1 1984  10.896   3.865   6.890
   29SOL    HW2 1985  11.002   3.777   6.827
   30SOL     OW 1986  12.032   8.173  12.608
   30SOL    HW1 1987  12.004   8.087  12.577
   30SOL    HW2 1988  12.048   8.223  12.528
   31SOL     OW 1989   2.093   6.250   4.597
   31SOL    HW1 1990   2.188   6.261   4.598
   31SOL    HW2 1991   2.061   6.316   4.657
   32SOL     OW 1992  12.915   4.860   6.732
   32SOL    HW1 1993  12.896   4.856   6.825
   32SOL    HW2 1994  12.830   4.874   6.691
   33SOL     OW 1995   9.760   7.638   9.072
   33SOL    HW1 1996   9.851   7.640   9.104
   33SOL    HW2 1997   9.746   7.546   9.048
   34SOL     OW 1998   7.106  13.074  10.736
   34SOL    HW1 1999   7.084  13.133  10.809
   34SOL    HW2 2000   7.169  13.124  10.684
   35SOL     OW 2001  11.060   1.720   5.336
   35SOL    HW1 2002  11.037   1.726   5.429
   35SOL    HW2 2003  10.982   1.751   5.290
   36SOL     OW 2004   6.526   7.349  13.624
   36SOL    HW1 2005   6.513   7.423  13.565
   36SOL    HW2 2006   6.470   7.280  13.589
   37SOL     OW 2007   9.162  13.065  11.238
   37SOL    HW1 2008   9.229  13.123  11.201
   37SOL    HW2 2009   9.079  13.104  11.213
   38SOL     OW 2010   1.778   4.554   1.024
   38SOL    HW1 2011   1.845   4.543   0.957
   38SOL    HW2 2012   1.826   4.586   1.101
   39SOL     OW 2013  12.792  12.793  13.949
   39SOL    HW1 2014  12.869  12.827  13.904
   39SOL    HW2 2015  12.816  12.794  14.042
   40SOL     OW 2016   6.752   3.281  11.132
   40SOL    HW1 2017   6.753   3.313  11.222
   40SOL    HW2 2018   6.659   3.273  11.111
   41SOL     OW 2019  14.473  11.617   5.393
   41SOL    HW1 2020  14.496  11.547   5.454
   41SOL    HW2 2021  14.381  11.602   5.371
   42SOL     OW 2022   0.368   9.769   2.443
   42SOL    HW1 2023   0.407   9.682   2.451
   42SOL    HW2 2024   0.274   9.754   2.457
   43SOL     OW 2025   0.089  14.165  14.412
   43SOL    HW1 2026   0.086  14.071  14.391
   43SOL    HW2 2027   0.045  14.207  14.339
   44SOL     OW 2028   3.535   4.660  13.613
   44SOL    HW1 2029   3.572   4.642  13.699
   44SOL    HW2 2030   3.440   4.654  13.626
   45SOL     OW 2031   5.090   9.336   0.135
   45SOL    HW1 2032   5.158   9.386   0.181
   45SOL    HW2 2033   5.030   9.402   0.102
   46SOL     OW 2034  14.720   3.731   4.138
   46SOL    HW1 2035  14.808   3.696   4.150
   46SOL    HW2 2036  14.662   3.655   4.147
   47SOL     OW 2037  13.986   8.840  14.430
   47SOL    HW1 2038  14.049   8.790  14.378
   47SOL    HW2 2039  13.960   8.780  14.499
   48SOL     OW 2040   9.302   3.211   7.511
   48SOL    HW1 2041   9.385   3.225   7.556
   48SOL    HW2 2042   9.296   3.284   7.450
   49SOL     OW 2043  13.794   8.399  10.392
   49SOL    HW1 2044  13.705   8.427  10.372
   49SOL    HW2 2045  13.831   8.374  10.307
   50SOL     OW 2046   6.916   1.519  13.969
   50SOL    HW1 2047   7.005   1.507  13.936
   50SOL    HW2 2048   6.881   1.593  13.919
   51SOL     OW 2049   6.791  14.412   0.535
   51SOL    HW1 2050   6.698  14.410   0.555
   51SOL    HW2 2051   6.807  14.332   0.485
   52SOL     OW 2052   2.850   1.480   1.624
   52SOL    HW1 2053   2.878   1.567   1.650
   52SOL    HW2 2054   2.929   1.437   1.592
   53SOL     OW 2055   1.204   1.631  12.993
   53SOL    HW1 2056   1.238   1.661  13.077
   53SOL    HW2 2057   1.233   1.540  12.986
   54SOL     OW 2058  12.208   5.286   8.386
   54SOL    HW1 2059  12.206   5.356   8.322
   54SOL    HW2 2060  12.137   5.306   8.447
   55SOL     OW 2061  11.761   5.880   8.789
   55SOL    HW1 2062  11.813   5.826   8.849
   55SOL    HW2 2063  11.817   5.956   8.772
   56SOL     OW 2064   4.891  12.332  11.738
   56SOL    HW1 2065   4.967  12.361  11.688
   56SOL    HW2 2066   4.885  12.238  11.720
   57SOL     OW 2067   3.567   6.953   4.099
   57SOL    HW1 2068   3.628   6.972   4.170
   57SOL    HW2 2069   3.609   6.883   4.049
   58SOL     OW 2070   6.619   7.961   1.208
   58SOL    HW1 2071   6.621   7.865   1.204
   58SOL    HW2 2072   6.686   7.989   1.146
   59SOL     OW 2073   1.268  10.333   2.237
   59SOL    HW1 2074   1.264  10.248   2.282
   59SOL    HW2 2075   1.348  10.374   2.270
   60SOL     OW 2076   7.049   7.905  13.466
   60SOL    HW1 2077   7.093   7.826  13.435
   60SOL    HW2 2078   7.098   7.930  13.545
   61SOL     OW 2079   2.625   7.524   8.591
   61SOL    HW1 2080   2.660   7.436   8.605
   61SOL    HW2 2081   2.634   7.567   8.676
   62SOL     OW 2082  14.050   5.372  11.346
   62SOL    HW1 2083  14.122   5.326  11.390
   62SOL    HW2 2084  14.043   5.456  11.392
   63SOL     OW 2085   0.375   0.488  13.279
   63SOL    HW1 2086   0.380   0.399  13.316
   63SOL    HW2 2087   0.299   0.528  13.321
   64SOL     OW 2088  12.162  11.619   9.701
   64SOL    HW1 2089  12.186  11.711   9.683
   64SOL    HW2 2090  12.067  11.617   9.694
   65SOL     OW 2091  13.595   6.270   1.562
   65SOL    HW1 2092  13.602   6.175   1.569
   65SOL    HW2 2093  13.502   6.288   1.576
   66SOL     OW 2094  10.074   5.097   8.309
   66SOL    HW1 2095  10.139   5.027   8.308
   66SOL    HW2 2096  10.070   5.128   8.218
   67SOL     OW 2097   8.192   9.314   7.894
   67SOL    HW1 2098   8.206   9.327   7.800
   67SOL    HW2 2099   8.221   9.395   7.935
   68SOL     OW 2100   1.047  13.484  12.564
   68SOL    HW1 2101   1.137  13.510  12.583
   68SOL    HW2 2102   0.999  13.499  12.645
   69SOL     OW 2103  13.087  11.991   7.623
   69SOL    HW1 2104  13.182  11.980   7.616
   69SOL    HW2 2105  13.068  12.066   7.566
   70SOL     OW 2106   4.023   2.665   7.378
   70SOL    HW1 2107   3.998   2.573   7.370
   70SOL    HW2 2108   3.964   2.711   7.319
   71SOL     OW 2109   4.613   1.366  12.686
   71SOL    HW1 2110   4.621   1.349  12.780
   71SOL    HW2 2111   4.609   1.462  12.680
   72SOL     OW 2112  11.506  14.876   7.984
   72SOL    HW1 2113  11.443  14.804   7.991
   72SOL    HW2 2114  11.558  14.854   7.907
   73SOL     OW 2115   3.419  11.792  14.779
   73SOL    HW1 2116   3.499  11.770  14.827
   73SOL    HW2 2117   3.397  11.712  14.731
   74SOL     OW 2118   2.448   2.870  13.290
   74SOL    HW1 2119   2.457   2.779  13.263
   74SOL    HW2 2120   2.417   2.916  13.212
   75SOL     OW 2121   4.163   4.315   7.097
   75SOL    HW1 2122   4.114   4.335   7.177
   75SOL    HW2 2123   4.125   4.372   7.031
   76SOL     OW 2124   8.541   0.235   8.748
   76SOL    HW1 2125   8.448   0.234   8.723
   76SOL    HW2 2126   8.578   0.307   8.697
   77SOL     OW 2127  11.874   5.293   5.182
   77SOL    HW1 2128  11.913   5.351   5.116
   77SOL    HW2 2129  11.780   5.296   5.164
   78SOL     OW 2130   6.556   1.669   3.409
   78SOL    HW1 2131   6.630   1.671   3.469
   78SOL    HW2 2132   6.593   1.697   3.325
   79SOL     OW 2133  10.793   5.033   0.495
   79SOL    HW1 2134  10.829   5.109   0.540
   79SOL    HW2 2135  10.860   5.010   0.430
   80SOL     OW 2136   9.289  13.956   9.750
   80SOL    HW1 2137   9.200  13.930   9.726
   80SOL    HW2 2138   9.293  13.942   9.844
   81SOL     OW 2139  13.094   3.844  11.614
   81SOL    HW1 2140  13.166   3.783  11.599
   81SOL    HW2 2141  13.062   3.865  11.526
   82SOL     OW 2142   7.986   5.341   4.656
   82SOL    HW1 2143   7.924   5.374   4.590
   82SOL    HW2 2144   7.987   5.407   4.724
   83SOL     OW 2145   9.083  13.767  10.713
   83SOL    HW1 2146   9.028  13.716  10.772
   83SOL    HW2 2147   9.060  13.736  10.625
   84SOL     OW 2148   9.127   7.830   7.098
   84SOL    HW1 2149   9.209   7.800   7.059
   84SOL    HW2 2150   9.095   7.896   7.037
   85SOL     OW 2151  14.236   9.592   4.632
   85SOL    HW1 2152  14.294   9.646   4.686
   85SOL    HW2 2153  14.204   9.524   4.692
   86SOL     OW 2154   4.872  11.491   5.042
   86SOL    HW1 2155   4.834  11.556   4.982
   86SOL    HW2 2156   4.966  11.495   5.023
   87SOL     OW 2157   6.269   4.372   4.726
   87SOL    HW1 2158   6.290   4.306   4.660
   87SOL    HW2 2159   6.178   4.396   4.709
   88SOL     OW 2160   0.114  14.455   5.585
   88SOL    HW1 2161   0.119  14.405   5.667
   88SOL    HW2 2162   0.187  14.422   5.532
   89SOL     OW 2163  13.637   5.521  14.269
   89SOL    HW1 2164  13.554   5.538  14.223
   89SOL    HW2 2165  13.670   5.608  14.291
   90SOL     OW 2166   4.592   1.355   3.915
   90SOL    HW1 2167   4.567   1.293   3.983
   90SOL    HW2 2168   4.671   1.397   3.949
   91SOL     OW 2169   5.048  11.404   9.982
   91SOL    HW1 2170   5.139  11.393  10.010
   91SOL    HW2 2171   5.049  11.481   9.925
   92SOL     OW 2172  10.893  13.667  12.892
   92SOL    HW1 2173  10.812  13.715  12.911
   92SOL    HW2 2174  10.963  13.730  12.912
   93SOL     OW 2175   6.893  12.294  13.480
   93SOL    HW1 2176   6.864  12.225  13.421
   93SOL    HW2 2177   6.897  12.372  13.426
   94SOL     OW 2178  11.794  12.033   1.168
   94SOL    HW1 2179  11.733  12.095   1.127
   94SOL    HW2 2180  11.880  12.061   1.138
   95SOL     OW 2181   3.319   4.219   7.450
   95SOL    HW1 2182   3.244   4.255   7.402
   95SOL    HW2 2183   3.327   4.276   7.527
   96SOL     OW 2184  12.991  13.405   7.921
   96SOL    HW1 2185  13.070  13.460   7.923
   96SOL    HW2 2186  12.973  13.392   7.828
   97SOL     OW 2187  13.000  11.017   6.294
   97SOL    HW1 2188  12.973  10.965   6.218
   97SOL    HW2 2189  13.058  10.960   6.343
   98SOL     OW 2190  14.093  13.437   4.971
   98SOL    HW1 2191  14.028  13.377   5.007
   98SOL    HW2 2192  14.072  13.522   5.009
   99SOL     OW 2193  12.796  13.674   0.349
   99SOL    HW1 2194  12.706  13.649   0.372
   99SOL    HW2 2195  12.846  13.660   0.429
  100SOL     OW 2196   3.454  13.742  12.829
  100SOL    HW1 2197   3.473  13.783  12.744
  100SOL    HW2 2198   3.363  13.713  12.821
  101SOL     OW 2199  13.448   1.021   3.341
  101SOL    HW1 2200  13.436   1.092   3.404
  101SOL    HW2 2201  13.517   1.051   3.282
  102SOL     OW 2202  12.024  13.176  13.952
  102SOL    HW1 2203  12.046  13.219  14.035
  102SOL    HW2 2204  12.072  13.226  13.886
  103SOL     OW 2205  10.086   3.302   1.107
  103SOL    HW1 2206  10.011   3.268   1.156
  103SOL    HW2 2207  10.092   3.245   1.031
  104SOL     OW 2208  11.590  12.257   7.341
  104SOL    HW1 2209  11.626  12.172   7.363
  104SOL    HW2 2210  11.544  12.244   7.259
  105SOL     OW 2211   4.134   1.458   3.061
  105SOL    HW1 2212   4.180   1.435   3.141
  105SOL    HW2 2213   4.196   1.512   3.012
  106SOL     OW 2214  10.191  13.459  14.670
  106SOL    HW1 2215  10.235  13.494  14.748
  106SOL    HW2 2216  10.155  13.536  14.627
  107SOL     OW 2217   6.701  10.982  14.163
  107SOL    HW1 2218   6.678  10.931  14.240
  107SOL    HW2 2219   6.649  10.944  14.092
  108SOL     OW 2220   3.144  12.762  12.608
  108SOL    HW1 2221   3.157  12.746  12.702
  108SOL    HW2 2222   3.106  12.849  12.604
  109SOL     OW 2223   8.000   2.953   3.226
  109SOL    HW1 2224   8.088   2.936   3.192
  109SOL    HW2 2225   8.002   2.922   3.317
  110SOL     OW 2226   7.832   1.256   1.930
  110SOL    HW1 2227   7.914   1.297   1.956
  110SOL    HW2 2228   7.843   1.164   1.955
  111SOL     OW 2229  12.904   4.110  12.669
  111SOL    HW1 2230  12.993   4.087  12.644
  111SOL    HW2 2231  12.897   4.084  12.761
  112SOL     OW 2232   7.997  12.222   2.583
  112SOL    HW1 2233   8.055  12.285   2.541
  112SOL    HW2 2234   7.916  12.270   2.597
  113SOL     OW 2235   8.739   8.612   4.907
  113SOL    HW1 2236   8.738   8.644   4.997
  113SOL    HW2 2237   8.663   8.555   4.901
  114SOL     OW 2238  10.464   3.838  12.804
  114SOL    HW1 2239  10.544   3.795  12.837
  114SOL    HW2 2240  10.471   3.829  12.709
  115SOL     OW 2241   4.262  13.968   4.699
  115SOL    HW1 2242   4.294  14.042   4.751
  115SOL    HW2 2243   4.304  13.891   4.739
  116SOL     OW 2244   5.963  10.366  10.300
  116SOL    HW1 2245   5.981  10.276  10.326
  116SOL    HW2 2246   5.917  10.357  10.216
  117SOL     OW 2247   4.479  13.036   5.425
  117SOL    HW1 2248   4.567  13.002   5.437
  117SOL    HW2 2249   4.440  13.032   5.513
  118SOL     OW 2250  12.602   8.091   4.450
  118SOL    HW1 2251  12.533   8.028   4.471
  118SOL    HW2 2252  12.620   8.077   4.357
  119SOL     OW 2253   5.417   1.961   4.803
  119SOL    HW1 2254   5.454   1.953   4.715
  119SOL    HW2 2255   5.443   1.880   4.847
  120SOL     OW 2256   6.990   7.586  14.269
  120SOL    HW1 2257   6.939   7.658  14.306
  120SOL    HW2 2258   6.929   7.539  14.212
  121SOL     OW 2259   9.803   5.663   5.738
  121SOL    HW1 2260   9.853   5.688   5.660
  121SOL    HW2 2261   9.836   5.575   5.760
  122SOL     OW 2262   7.177   4.159   5.020
  122SOL    HW1 2263   7.214   4.074   5.042
  122SOL    HW2 2264   7.094   4.139   4.976
  123SOL     OW 2265   6.570   9.756   1.039
  123SOL    HW1 2266   6.624   9.678   1.023
  123SOL    HW2 2267   6.581   9.775   1.132
  124SOL     OW 2268  12.254  10.092   5.809
  124SOL    HW1 2269  12.347  10.109   5.794
  124SOL    HW2 2270  12.243  10.098   5.904
  125SOL     OW 2271  13.042   7.683   9.595
  125SOL    HW1 2272  12.995   7.599   9.598
  125SOL    HW2 2273  13.049   7.702   9.501
  126SOL     OW 2274  13.685   7.241  13.733
  126SOL    HW1 2275  13.771   7.282  13.725
  126SOL    HW2 2276  13.690   7.190  13.814
  127SOL     OW 2277  10.770   7.252   0.209
  127SOL    HW1 2278  10.709   7.240   0.281
  127SOL    HW2 2279  10.803   7.164   0.191
  128SOL     OW 2280   2.027  10.740  10.292
  128SOL    HW1 2281   1.976  10.808  10.248
  128SOL    HW2 2282   2.110  10.739  10.244
  129SOL     OW 2283   3.110  14.534  12.365
  129SOL    HW1 2284   3.158  14.589  12.303
  129SOL    HW2 2285   3.057  14.596  12.415
  130SOL     OW 2286   3.712   7.299   4.335
  130SOL    HW1 2287   3.785   7.351   4.368
  130SOL    HW2 2288   3.751   7.215   4.313
  131SOL     OW 2289   5.764  14.837   2.375
  131SOL    HW1 2290   5.729   0.035   2.414
  131SOL    HW2 2291   5.794  14.786   2.449
  132SOL     OW 2292   4.487  12.588   1.915
  132SOL    HW1 2293   4.479  12.591   2.010
  132SOL    HW2 2294   4.414  12.642   1.883
  133SOL     OW 2295   0.735   2.383   0.287
  133SOL    HW1 2296   0.779   2.353   0.366
  133SOL    HW2 2297   0.783   2.462   0.261
  134SOL     OW 2298  10.938   9.216   8.760
  134SOL    HW1 2299  11.023   9.238   8.722
  134SOL    HW2 2300  10.875   9.235   8.690
  135SOL     OW 2301  10.912   1.944  10.522
  135SOL    HW1 2302  10.910   1.891  10.602
  135SOL    HW2 2303  10.892   2.032  10.552
  136SOL     OW 2304   5.565   5.006  12.499
  136SOL    HW1 2305   5.483   4.958  12.492
  136SOL    HW2 2306   5.602   4.978  12.583
  137SOL     OW 2307  11.866   2.371  10.749
  137SOL    HW1 2308  11.920   2.417  10.813
  137SOL    HW2 2309  11.843   2.289  10.792
  138SOL     OW 2310   0.047   6.536   0.250
  138SOL    HW1 2311   0.086   6.464   0.200
  138SOL    HW2 2312   0.111   6.608   0.241
  139SOL     OW 2313   3.017   8.801   5.367
  139SOL    HW1 2314   3.101   8.829   5.401
  139SOL    HW2 2315   3.038   8.731   5.305
  140SOL     OW 2316  12.446  10.820   7.501
  140SOL    HW1 2317  12.440  10.868   7.418
  140SOL    HW2 2318  12.527  10.769   7.494
  141SOL     OW 2319   9.480  11.464   0.796
  141SOL    HW1 2320   9.397  11.494   0.833
  141SOL    HW2 2321   9.520  11.412   0.866
  142SOL     OW 2322  11.156  11.037  14.663
  142SOL    HW1 2323  11.207  11.118  14.662
  142SOL    HW2 2324  11.108  11.040  14.745
  143SOL     OW 2325   9.815   6.129   9.688
  143SOL    HW1 2326   9.890   6.096   9.738
  143SOL    HW2 2327   9.821   6.084   9.604
  144SOL     OW 2328   6.644   4.155   8.173
  144SOL    HW1 2329   6.694   4.148   8.092
  144SOL    HW2 2330   6.652   4.069   8.214
  145SOL     OW 2331   9.475   1.994   0.077
  145SOL    HW1 2332   9.456   2.075   0.029
  145SOL    HW2 2333   9.445   2.012   0.166
  146SOL     OW 2334  13.208   6.652   0.814
  146SOL    HW1 2335  13.130   6.646   0.760
  146SOL    HW2 2336  13.260   6.721   0.773
  147SOL     OW 2337  12.125  11.684   0.029
  147SOL    HW1 2338  12.054  11.694  14.847
  147SOL    HW2 2339  12.090  11.624   0.094
  148SOL     OW 2340   4.929  10.498   7.903
  148SOL    HW1 2341   4.925  10.442   7.825
  148SOL    HW2 2342   5.018  10.533   7.904
  149SOL     OW 2343  13.741  13.313   1.170
  149SOL    HW1 2344  13.678  13.385   1.169
  149SOL    HW2 2345  13.722  13.265   1.250
  150SOL     OW 2346   8.650  13.651   7.480
  150SOL    HW1 2347   8.703  13.730   7.486
  150SOL    HW2 2348   8.581  13.672   7.417
  151SOL     OW 2349   7.117   2.864   0.465
  151SOL    HW1 2350   7.128   2.779   0.508
  151SOL    HW2 2351   7.048   2.849   0.401
  152SOL     OW 2352   8.358  14.588   6.849
  152SOL    HW1 2353   8.446  14.567   6.879
  152SOL    HW2 2354   8.303  14.578   6.927
  153SOL     OW 2355  13.503   5.250   1.068
  153SOL    HW1 2356  13.508   5.273   0.975
  153SOL    HW2 2357  13.473   5.330   1.111
  154SOL     OW 2358   3.213   5.716   5.821
  154SOL    HW1 2359   3.156   5.757   5.886
  154SOL    HW2 2360   3.178   5.627   5.811
  155SOL     OW 2361   1.995   7.264   1.572
  155SOL    HW1 2362   1.977   7.213   1.494
  155SOL    HW2 2363   2.067   7.219   1.615
  156SOL     OW 2364   6.157   5.475   0.251
  156SOL    HW1 2365   6.115   5.390   0.236
  156SOL    HW2 2366   6.172   5.478   0.345
  157SOL     OW 2367  14.580  11.846  13.572
  157SOL    HW1 2368  14.610  11.790  13.501
  157SOL    HW2 2369  14.582  11.790  13.649
  158SOL     OW 2370  11.329  10.178   2.286
  158SOL    HW1 2371  11.392  10.105   2.286
  158SOL    HW2 2372  11.377  10.250   2.245
  159SOL     OW 2373  10.790  13.350   7.109
  159SOL    HW1 2374  10.818  13.315   7.194
  159SOL    HW2 2375  10.870  13.354   7.058
  160SOL     OW 2376   9.945  11.731   5.103
  160SOL    HW1 2377   9.977  11.766   5.020
  160SOL    HW2 2378   9.918  11.808   5.153
  161SOL     OW 2379   8.854   5.596   9.308
  161SOL    HW1 2380   8.802   5.519   9.331
  161SOL    HW2 2381   8.790   5.664   9.291
  162SOL     OW 2382   8.326   7.153   9.236
  162SOL    HW1 2383   8.365   7.236   9.212
  162SOL    HW2 2384   8.390   7.087   9.210
  163SOL     OW 2385  11.896  10.369   2.289
  163SOL    HW1 2386  11.939  10.372   2.375
  163SOL    HW2 2387  11.921  10.285   2.253
  164SOL     OW 2388   0.189  10.315  11.501
  164SOL    HW1 2389   0.107  10.276  11.532
  164SOL    HW2 2390   0.167  10.353  11.416
  165SOL     OW 2391  11.159  10.907   3.446
  165SOL    HW1 2392  11.064  10.917   3.446
  165SOL    HW2 2393  11.188  10.952   3.367
  166SOL     OW 2394   0.188   6.391  12.558
  166SOL    HW1 2395   0.128   6.348  12.496
  166SOL    HW2 2396   0.267   6.338  12.555
  167SOL     OW 2397   7.734  13.252   5.641
  167SOL    HW1 2398   7.679  13.177   5.665
  167SOL    HW2 2399   7.815  13.238   5.688
  168SOL     OW 2400  11.759  14.646   0.324
  168SOL    HW1 2401  11.743  14.616   0.234
  168SOL    HW2 2402  11.717  14.732   0.328
  169SOL     OW 2403   7.494  14.338   7.210
  169SOL    HW1 2404   7.586  14.316   7.196
  169SOL    HW2 2405   7.468  14.381   7.129
  170SOL     OW 2406  11.337  10.743   3.111
  170SOL    HW1 2407  11.317  10.700   3.195
  170SOL    HW2 2408  11.341  10.672   3.048
  171SOL     OW 2409   5.036   6.083   2.383
  171SOL    HW1 2410   5.037   5.989   2.400
  171SOL    HW2 2411   5.080   6.122   2.458
  172SOL     OW 2412   6.210   5.299   6.643
  172SOL    HW1 2413   6.157   5.219   6.648
  172SOL    HW2 2414   6.202   5.338   6.730
  173SOL     OW 2415  14.862   2.291  14.650
  173SOL    HW1 2416   0.032   2.235  14.707
  173SOL    HW2 2417  14.824   2.232  14.585
  174SOL     OW 2418   0.773   9.694   9.707
  174SOL    HW1 2419   0.700   9.708   9.647
  174SOL    HW2 2420   0.839   9.648   9.654
  175SOL     OW 2421  11.706  14.763   1.046
  175SOL    HW1 2422  11.738  14.673   1.038
  175SOL    HW2 2423  11.682  14.787   0.957
  176SOL     OW 2424   7.883  14.356   0.854
  176SOL    HW1 2425   7.904  14.430   0.797
  176SOL    HW2 2426   7.806  14.316   0.814
  177SOL     OW 2427   0.457   9.292  12.592
  177SOL    HW1 2428   0.553   9.295  12.597
  177SOL    HW2 2429   0.439   9.224  12.527
  178SOL     OW 2430   2.305   7.098   7.638
  178SOL    HW1 2431   2.263   7.126   7.719
  178SOL    HW2 2432   2.277   7.162   7.573
  179SOL     OW 2433  10.293  12.675  13.371
  179SOL    HW1 2434  10.387  12.692  13.359
  179SOL    HW2 2435  10.279  12.686  13.465
  180SOL     OW 2436  11.049   1.513  12.554
  180SOL    HW1 2437  11.008   1.427  12.561
  180SOL    HW2 2438  11.101   1.522  12.634
  181SOL     OW 2439   7.067   8.287  12.646
  181SOL    HW1 2440   7.147   8.308  12.694
  181SOL    HW2 2441   7.053   8.194  12.662
  182SOL     OW 2442  13.168  12.209   1.746
  182SOL    HW1 2443  13.137  12.176   1.831
  182SOL    HW2 2444  13.254  12.169   1.734
  183SOL     OW 2445   4.575   0.073   9.145
  183SOL    HW1 2446   4.659   0.076   9.190
  183SOL    HW2 2447   4.561   0.161   9.112
  184SOL     OW 2448  14.330  12.155   1.604
  184SOL    HW1 2449  14.279  12.110   1.537
  184SOL    HW2 2450  14.268  12.214   1.646
  185SOL     OW 2451  13.391   6.643   2.661
  185SOL    HW1 2452  13.380   6.552   2.688
  185SOL    HW2 2453  13.304   6.681   2.669
  186SOL     OW 2454   0.549  12.346   5.694
  186SOL    HW1 2455   0.584  12.307   5.614
  186SOL    HW2 2456   0.492  12.417   5.663
  187SOL     OW 2457   8.756   3.299   0.708
  187SOL    HW1 2458   8.662   3.282   0.716
  187SOL    HW2 2459   8.776   3.354   0.783
  188SOL     OW 2460   4.475   1.941  11.524
  188SOL    HW1 2461   4.539   1.876  11.493
  188SOL    HW2 2462   4.405   1.939  11.458
  189SOL     OW 2463  12.766   9.388  14.410
  189SOL    HW1 2464  12.763   9.296  14.436
  189SOL    HW2 2465  12.802   9.434  14.486
  190SOL     OW 2466   1.185   9.312  12.806
  190SOL    HW1 2467   1.162   9.383  12.747
  190SOL    HW2 2468   1.103   9.291  12.852
  191SOL     OW 2469   2.114   4.409   3.877
  191SOL    HW1 2470   2.034   4.461   3.869
  191SOL    HW2 2471   2.095   4.329   3.828
  192SOL     OW 2472   9.655  10.733   5.444
  192SOL    HW1 2473   9.596  10.660   5.464
  192SOL    HW2 2474   9.637  10.798   5.512
  193SOL     OW 2475  14.843   5.708  13.627
  193SOL    HW1 2476  14.826   5.643  13.695
  193SOL    HW2 2477   0.007   5.779  13.673
  194SOL     OW 2478   0.911   2.252   3.485
  194SOL    HW1 2479   0.991   2.290   3.449
  194SOL    HW2 2480   0.923   2.157   3.476
  195SOL     OW 2481  12.845  12.523   5.025
  195SOL    HW1 2482  12.922  12.544   5.078
  195SOL    HW2 2483  12.773  12.522   5.088
  196SOL     OW 2484  12.493  12.297   5.886
  196SOL    HW1 2485  12.458  12.368   5.832
  196SOL    HW2 2486  12.435  12.223   5.869
  197SOL     OW 2487   8.427   8.349   5.960
  197SOL    HW1 2488   8.403   8.385   6.046
  197SOL    HW2 2489   8.463   8.424   5.912
  198SOL     OW 2490   9.808   0.585   0.531
  198SOL    HW1 2491   9.791   0.658   0.591
  198SOL    HW2 2492   9.880   0.536   0.572
  199SOL     OW 2493   2.155   2.304   7.746
  199SOL    HW1 2494   2.160   2.355   7.827
  199SOL    HW2 2495   2.067   2.268   7.746
  200SOL     OW 2496   6.852  11.191   4.916
  200SOL    HW1 2497   6.852  11.135   4.838
  200SOL    HW2 2498   6.822  11.134   4.987
  201SOL     OW 2499  10.229   2.020  12.695
  201SOL    HW1 2500  10.168   2.085  12.661
  201SOL    HW2 2501  10.179   1.972  12.761
  202SOL     OW 2502  11.396  11.111  14.084
  202SOL    HW1 2503  11.457  11.063  14.141
  202SOL    HW2 2504  11.432  11.200  14.080
  203SOL     OW 2505   2.630   6.716  11.300
  203SOL    HW1 2506   2.669   6.683  11.218
  203SOL    HW2 2507   2.548   6.756  11.272
  204SOL     OW 2508  12.150   6.250  10.643
  204SOL    HW1 2509  12.086   6.180  10.633
  204SOL    HW2 2510  12.208   6.220  10.714
  205SOL     OW 2511   3.460   5.533   0.646
  205SOL    HW1 2512   3.432   5.573   0.563
  205SOL    HW2 2513   3.395   5.464   0.661
  206SOL     OW 2514  13.427  11.164   0.811
  206SOL    HW1 2515  13.376  11.101   0.760
  206SOL    HW2 2516  13.418  11.135   0.902
  207SOL     OW 2517   6.488  11.219   2.226
  207SOL    HW1 2518   6.409  11.192   2.179
  207SOL    HW2 2519   6.558  11.165   2.190
  208SOL     OW 2520  10.602   2.153   4.683
  208SOL    HW1 2521  10.595   2.116   4.771
  208SOL    HW2 2522  10.526   2.211   4.676
  209SOL     OW 2523  11.053  12.701   6.942
  209SOL    HW1 2524  11.091  12.656   6.867
  209SOL    HW2 2525  11.037  12.633   7.007
  210SOL     OW 2526  12.960  10.682   5.385
  210SOL    HW1 2527  12.892  10.748   5.396
  210SOL    HW2 2528  12.986  10.690   5.293
  211SOL     OW 2529   8.133   9.885  10.407
  211SOL    HW1 2530   8.173   9.822  10.467
  211SOL    HW2 2531   8.189   9.883  10.329
  212SOL     OW 2532  13.925   1.754  14.149
  212SOL    HW1 2533  13.959   1.676  14.193
  212SOL    HW2 2534  13.920   1.821  14.217
  213SOL     OW 2535   4.416   5.044  12.942
  213SOL    HW1 2536   4.364   5.071  12.866
  213SOL    HW2 2537   4.504   5.075  12.923
  214SOL     OW 2538   6.066   6.848  11.377
  214SOL    HW1 2539   6.063   6.855  11.282
  214SOL    HW2 2540   5.984   6.888  11.406
  215SOL     OW 2541   8.989  14.400   5.539
  215SOL    HW1 2542   8.959  14.400   5.630
  215SOL    HW2 2543   9.060  14.336   5.537
  216SOL     OW 2544   7.835   4.984  13.534
  216SOL    HW1 2545   7.741   5.000  13.544
  216SOL    HW2 2546   7.863   5.045  13.466
  217SOL     OW 2547   9.130  11.082  13.876
  217SOL    HW1 2548   9.148  11.134  13.797
  217SOL    HW2 2549   9.040  11.051  13.864
  218SOL     OW 2550  10.328   4.790   7.927
  218SOL    HW1 2551  10.309   4.702   7.897
  218SOL    HW2 2552  10.419   4.805   7.901
  219SOL     OW 2553   4.247   1.553   8.105
  219SOL    HW1 2554   4.309   1.491   8.066
  219SOL    HW2 2555   4.169   1.500   8.122
  220SOL     OW 2556   2.811   2.708   4.849
  220SOL    HW1 2557   2.782   2.658   4.926
  220SOL    HW2 2558   2.902   2.731   4.868
  221SOL     OW 2559   2.291   8.365  12.630
  221SOL    HW1 2560   2.376   8.408  12.619
  221SOL    HW2 2561   2.294   8.289  12.573
  222SOL     OW 2562  13.215  10.441   5.328
  222SOL    HW1 2563  13.179  10.453   5.240
  222SOL    HW2 2564  13.296  10.491   5.329
  223SOL     OW 2565   9.058   3.188  10.061
  223SOL    HW1 2566   9.099   3.260  10.013
  223SOL    HW2 2567   9.019   3.133   9.993
  224SOL     OW 2568   5.452  11.174   4.612
  224SOL    HW1 2569   5.420  11.109   4.550
  224SOL    HW2 2570   5.542  11.147   4.630
  225SOL     OW 2571  13.968  13.996   2.627
  225SOL    HW1 2572  14.060  14.001   2.600
  225SOL    HW2 2573  13.940  13.908   2.601
  226SOL     OW 2574   4.250   2.847   2.223
  226SOL    HW1 2575   4.159   2.840   2.194
  226SOL    HW2 2576   4.246   2.835   2.318
  227SOL     OW 2577   2.320   8.945   8.721
  227SOL    HW1 2578   2.294   9.025   8.767
  227SOL    HW2 2579   2.407   8.925   8.755
  228SOL     OW 2580   9.893   6.954  11.693
  228SOL    HW1 2581   9.874   7.028  11.750
  228SOL    HW2 2582   9.831   6.886  11.720
  229SOL     OW 2583   7.120  11.133  11.783
  229SOL    HW1 2584   7.185  11.197  11.753
  229SOL    HW2 2585   7.086  11.093  11.704
  230SOL     OW 2586  13.869   8.716   8.165
  230SOL    HW1 2587  13.950   8.740   8.209
  230SOL    HW2 2588  13.800   8.752   8.221
  231SOL     OW 2589   7.613  11.316   9.523
  231SOL    HW1 2590   7.596  11.337   9.615
  231SOL    HW2 2591   7.542  11.257   9.499
  232SOL     OW 2592  11.697   9.770   9.378
  232SOL    HW1 2593  11.643   9.692   9.387
  232SOL    HW2 2594  11.744   9.757   9.295
  233SOL     OW 2595   5.781   6.783  11.688
  233SOL    HW1 2596   5.761   6.809  11.778
  233SOL    HW2 2597   5.703   6.737  11.659
  234SOL     OW 2598   2.508  13.584   8.839
  234SOL    HW1 2599   2.438  13.558   8.898
  234SOL    HW2 2600   2.535  13.671   8.869
  235SOL     OW 2601   1.533  11.547   0.259
  235SOL    HW1 2602   1.525  11.641   0.243
  235SOL    HW2 2603   1.444  11.518   0.277
  236SOL     OW 2604   9.714   2.649   5.305
  236SOL    HW1 2605   9.694   2.636   5.398
  236SOL    HW2 2606   9.778   2.719   5.304
  237SOL     OW 2607  14.560   2.012   6.685
  237SOL    HW1 2608  14.496   1.972   6.626
  237SOL    HW2 2609  14.546   2.106   6.676
  238SOL     OW 2610   6.982   7.526   4.144
  238SOL    HW1 2611   6.924   7.523   4.220
  238SOL    HW2 2612   7.052   7.586   4.170
  239SOL     OW 2613   4.723   5.308   8.806
  239SOL    HW1 2614   4.728   5.347   8.718
  239SOL    HW2 2615   4.754   5.218   8.794
  240SOL     OW 2616   7.981   4.821   5.603
  240SOL    HW1 2617   7.982   4.856   5.513
  240SOL    HW2 2618   8.073   4.802   5.621
  241SOL     OW 2619  11.468  13.448   6.983
  241SOL    HW1 2620  11.494  13.540   6.977
  241SOL    HW2 2621  11.379  13.450   7.018
  242SOL     OW 2622   5.249   2.180  13.354
  242SOL    HW1 2623   5.324   2.185  13.414
  242SOL    HW2 2624   5.250   2.089  13.323
  243SOL     OW 2625   5.563  10.693  12.189
  243SOL    HW1 2626   5.562  10.761  12.257
  243SOL    HW2 2627   5.564  10.611  12.238
  244SOL     OW 2628   4.208   0.982   1.258
  244SOL    HW1 2629   4.126   0.948   1.294
  244SOL    HW2 2630   4.261   0.904   1.243
  245SOL     OW 2631   5.023  11.044   3.121
  245SOL    HW1 2632   4.951  10.982   3.115
  245SOL    HW2 2633   5.102  10.991   3.108
  246SOL     OW 2634   7.231   6.112   5.448
  246SOL    HW1 2635   7.198   6.098   5.537
  246SOL    HW2 2636   7.153   6.131   5.396
  247SOL     OW 2637  11.818   4.917  14.599
  247SOL    HW1 2638  11.800   4.963  14.517
  247SOL    HW2 2639  11.811   4.984  14.667
  248SOL     OW 2640  12.800   9.342   8.578
  248SOL    HW1 2641  12.771   9.423   8.621
  248SOL    HW2 2642  12.778   9.354   8.486
  249SOL     OW 2643   6.956  12.927   7.626
  249SOL    HW1 2644   6.906  12.986   7.569
  249SOL    HW2 2645   6.948  12.966   7.713
  250SOL     OW 2646   9.597  14.815  14.569
  250SOL    HW1 2647   9.671  14.824  14.630
  250SOL    HW2 2648   9.583   0.022  14.536
  251SOL     OW 2649   8.592  13.167   5.705
  251SOL    HW1 2650   8.667  13.165   5.647
  251SOL    HW2 2651   8.569  13.260   5.712
  252SOL     OW 2652   7.976   6.051   1.708
  252SOL    HW1 2653   7.899   6.018   1.753
  252SOL    HW2 2654   7.942   6.105   1.637
  253SOL     OW 2655   3.134  12.619  11.175
  253SOL    HW1 2656   3.040  12.617  11.155
  253SOL    HW2 2657   3.138  12.634  11.270
  254SOL     OW 2658   8.027   4.009   9.989
  254SOL    HW1 2659   8.074   4.083   9.949
  254SOL    HW2 2660   8.093   3.942  10.002
  255SOL     OW 2661   2.967   9.007   7.022
  255SOL    HW1 2662   2.915   8.995   6.942
  255SOL    HW2 2663   3.056   8.984   6.996
  256SOL     OW 2664   3.751   1.938   7.970
  256SOL    HW1 2665   3.813   1.993   8.017
  256SOL    HW2 2666   3.708   1.998   7.909
  257SOL     OW 2667  13.334   9.479   2.300
  257SOL    HW1 2668  13.343   9.560   2.351
  257SOL    HW2 2669  13.406   9.482   2.237
  258SOL     OW 2670  12.902  14.635   7.553
  258SOL    HW1 2671  12.824  14.625   7.607
  258SOL    HW2 2672  12.975  14.615   7.611
  259SOL     OW 2673  12.584   3.278  13.636
  259SOL    HW1 2674  12.538   3.252  13.556
  259SOL    HW2 2675  12.560   3.211  13.700
  260SOL     OW 2676   4.791   8.752   7.625
  260SOL    HW1 2677   4.845   8.804   7.684
  260SOL    HW2 2678   4.742   8.694   7.683
  261SOL     OW 2679  14.231  10.340   4.363
  261SOL    HW1 2680  14.250  10.397   4.438
  261SOL    HW2 2681  14.255  10.253   4.393
  262SOL     OW 2682   3.354   4.033   7.088
  262SOL    HW1 2683   3.271   4.058   7.048
  262SOL    HW2 2684   3.331   3.966   7.152
  263SOL     OW 2685   2.747   3.984   9.444
  263SOL    HW1 2686   2.704   3.907   9.405
  263SOL    HW2 2687   2.675   4.043   9.466
  264SOL     OW 2688  11.687   2.152  11.441
  264SOL    HW1 2689  11.711   2.059  11.434
  264SOL    HW2 2690  11.738   2.195  11.373
  265SOL     OW 2691   2.709   6.903   9.860
  265SOL    HW1 2692   2.631   6.946   9.896
  265SOL    HW2 2693   2.770   6.975   9.841
  266SOL     OW 2694   2.821   1.089  10.294
  266SOL    HW1 2695   2.855   1.144  10.364
  266SOL    HW2 2696   2.844   1.000  10.321
  267SOL     OW 2697  14.109  14.857  10.527
  267SOL    HW1 2698  14.173  14.805  10.479
  267SOL    HW2 2699  14.060   0.021  10.458
  268SOL     OW 2700   7.292   1.711  11.343
  268SOL    HW1 2701   7.328   1.799  11.352
  268SOL    HW2 2702   7.255   1.708  11.255
  269SOL     OW 2703   5.207  12.549   4.101
  269SOL    HW1 2704   5.282  12.601   4.129
  269SOL    HW2 2705   5.243  12.463   4.081
  270SOL     OW 2706   6.776   5.246   2.273
  270SOL    HW1 2707   6.758   5.234   2.179
  270SOL    HW2 2708   6.741   5.168   2.314
  271SOL     OW 2709   0.738   2.653   4.434
  271SOL    HW1 2710   0.828   2.684   4.433
  271SOL    HW2 2711   0.707   2.668   4.344
  272SOL     OW 2712   5.315  13.777  10.755
  272SOL    HW1 2713   5.363  13.708  10.802
  272SOL    HW2 2714   5.298  13.739  10.669
  273SOL     OW 2715   6.348   7.734   0.516
  273SOL    HW1 2716   6.258   7.715   0.543
  273SOL    HW2 2717   6.399   7.659   0.548
  274SOL     OW 2718   2.296   6.668   8.675
  274SOL    HW1 2719   2.366   6.604   8.660
  274SOL    HW2 2720   2.306   6.693   8.767
  275SOL     OW 2721   9.259  11.241   4.615
  275SOL    HW1 2722   9.323  11.260   4.684
  275SOL    HW2 2723   9.248  11.325   4.569
  276SOL     OW 2724  10.810   3.921  14.143
  276SOL    HW1 2725  10.787   3.839  14.186
  276SOL    HW2 2726  10.756   3.987  14.186
  277SOL     OW 2727  11.181   0.343  14.007
  277SOL    HW1 2728  11.257   0.401  14.000
  277SOL    HW2 2729  11.158   0.344  14.100
  278SOL     OW 2730   7.772   8.065   0.355
  278SOL    HW1 2731   7.678   8.070   0.336
  278SOL    HW2 2732   7.779   8.001   0.426
  279SOL     OW 2733   6.823   7.590   1.670
  279SOL    HW1 2734   6.771   7.639   1.733
  279SOL    HW2 2735   6.761   7.530   1.628
  280SOL     OW 2736   6.574   5.327   5.764
  280SOL    HW1 2737   6.627   5.332   5.685
  280SOL    HW2 2738   6.634   5.351   5.835
  281SOL     OW 2739   4.265  11.605   8.526
  281SOL    HW1 2740   4.239  11.533   8.468
  281SOL    HW2 2741   4.305  11.669   8.468
  282SOL     OW 2742   5.097   3.178  13.371
  282SOL    HW1 2743   5.080   3.159  13.279
  282SOL    HW2 2744   5.016   3.155  13.416
  283SOL     OW 2745   5.324  10.200   5.351
  283SOL    HW1 2746   5.296  10.124   5.300
  283SOL    HW2 2747   5.408  10.224   5.313
  284SOL     OW 2748   5.132   8.094   9.740
  284SOL    HW1 2749   5.189   8.171   9.746
  284SOL    HW2 2750   5.187   8.022   9.769
  285SOL     OW 2751   0.077  10.655   9.325
  285SOL    HW1 2752   0.108  10.711   9.253
  285SOL    HW2 2753   0.151  10.654   9.387
  286SOL     OW 2754  10.818   1.038   9.852
  286SOL    HW1 2755  10.880   0.981   9.899
  286SOL    HW2 2756  10.738   0.986   9.846
  287SOL     OW 2757  10.475   3.891  13.368
  287SOL    HW1 2758  10.483   3.909  13.274
  287SOL    HW2 2759  10.506   3.801  13.378
  288SOL     OW 2760  14.735   1.532   4.639
  288SOL    HW1 2761  14.657   1.478   4.654
  288SOL    HW2 2762  14.795   1.475   4.592
  289SOL     OW 2763   4.000   0.832   8.266
  289SOL    HW1 2764   4.015   0.830   8.172
  289SOL    HW2 2765   4.075   0.880   8.301
  290SOL     OW 2766   8.434  12.511  14.174
  290SOL    HW1 2767   8.388  12.571  14.116
  290SOL    HW2 2768   8.524  12.508  14.140
  291SOL     OW 2769  14.576  13.238   5.648
  291SOL    HW1 2770  14.666  13.255   5.621
  291SOL    HW2 2771  14.554  13.312   5.705
  292SOL     OW 2772   7.929   7.364   8.534
  292SOL    HW1 2773   7.965   7.309   8.464
  292SOL    HW2 2774   8.001   7.423   8.557
  293SOL     OW 2775  13.571  12.840  12.828
  293SOL    HW1 2776  13.510  12.860  12.898
  293SOL    HW2 2777  13.618  12.762  12.858
  294SOL     OW 2778  14.553   5.922   9.772
  294SOL    HW1 2779  14.496   5.951   9.845
  294SOL    HW2 2780  14.610   5.997   9.756
  295SOL     OW 2781   2.327  10.045   6.118
  295SOL    HW1 2782   2.351   9.960   6.153
  295SOL    HW2 2783   2.410  10.090   6.106
  296SOL     OW 2784  12.893  11.707   5.855
  296SOL    HW1 2785  12.908  11.801   5.866
  296SOL    HW2 2786  12.870  11.696   5.763
  297SOL     OW 2787  13.895   7.113   7.972
  297SOL    HW1 2788  13.974   7.160   7.946
  297SOL    HW2 2789  13.827   7.180   7.974
  298SOL     OW 2790   8.834   4.181   2.357
  298SOL    HW1 2791   8.775   4.256   2.355
  298SOL    HW2 2792   8.784   4.112   2.401
  299SOL     OW 2793  13.605   2.841   2.285
  299SOL    HW1 2794  13.510   2.833   2.277
  299SOL    HW2 2795  13.626   2.795   2.366
  300SOL     OW 2796   3.152   1.288  11.759
  300SOL    HW1 2797   3.211   1.327  11.823
  300SOL    HW2 2798   3.088   1.239  11.811
  301SOL     OW 2799   4.426   5.014   1.308
  301SOL    HW1 2800   4.339   4.978   1.324
  301SOL    HW2 2801   4.424   5.101   1.348
  302SOL     OW 2802   8.553  11.727   5.555
  302SOL    HW1 2803   8.585  11.772   5.633
  302SOL    HW2 2804   8.560  11.634   5.576
  303SOL     OW 2805  14.638   4.347   4.231
  303SOL    HW1 2806  14.552   4.386   4.245
  303SOL    HW2 2807  14.670   4.387   4.150
  304SOL     OW 2808  11.968   4.396  11.905
  304SOL    HW1 2809  11.919   4.472  11.936
  304SOL    HW2 2810  11.901   4.338  11.868
  305SOL     OW 2811   7.092   6.907   7.752
  305SOL    HW1 2812   7.109   6.992   7.712
  305SOL    HW2 2813   7.058   6.928   7.839
  306SOL     OW 2814  14.435  12.907   2.538
  306SOL    HW1 2815  14.470  12.877   2.453
  306SOL    HW2 2816  14.359  12.960   2.515
  307SOL     OW 2817  14.045   1.012  12.172
  307SOL    HW1 2818  14.079   1.088  12.125
  307SOL    HW2 2819  14.074   0.936  12.121
  308SOL     OW 2820   2.058   5.928  13.562
  308SOL    HW1 2821   2.020   5.844  13.535
  308SOL    HW2 2822   2.045   5.985  13.487
  309SOL     OW 2823   9.239   0.708  10.652
  309SOL    HW1 2824   9.315   0.655  10.675
  309SOL    HW2 2825   9.270   0.764  10.581
  310SOL     OW 2826   5.344   2.181   6.096
  310SOL    HW1 2827   5.273   2.220   6.147
  310SOL    HW2 2828   5.303   2.150   6.016
  311SOL     OW 2829   4.763   8.091   9.493
  311SOL    HW1 2830   4.695   8.087   9.427
  311SOL    HW2 2831   4.718   8.118   9.573
  312SOL     OW 2832   9.971   7.873   7.139
  312SOL    HW1 2833   9.983   7.961   7.103
  312SOL    HW2 2834   9.921   7.827   7.071
  313SOL     OW 2835   0.725  14.061  12.230
  313SOL    HW1 2836   0.669  14.117  12.284
  313SOL    HW2 2837   0.733  14.108  12.147
  314SOL     OW 2838  13.265   1.174   2.657
  314SOL    HW1 2839  13.278   1.081   2.675
  314SOL    HW2 2840  13.174   1.191   2.682
  315SOL     OW 2841   4.185   4.171   9.277
  315SOL    HW1 2842   4.172   4.154   9.370
  315SOL    HW2 2843   4.164   4.089   9.234
  316SOL     OW 2844   8.035   7.452  12.326
  316SOL    HW1 2845   7.971   7.518  12.352
  316SOL    HW2 2846   7.985   7.370  12.322
  317SOL     OW 2847  12.640   1.621  12.442
  317SOL    HW1 2848  12.547   1.598  12.443
  317SOL    HW2 2849  12.647   1.696  12.501
  318SOL     OW 2850  11.767  14.335   9.899
  318SOL    HW1 2851  11.786  14.309   9.808
  318SOL    HW2 2852  11.695  14.399   9.890
  319SOL     OW 2853   1.532   1.624   5.733
  319SOL    HW1 2854   1.476   1.548   5.719
  319SOL    HW2 2855   1.575   1.637   5.648
  320SOL     OW 2856   9.937  11.260  14.404
  320SOL    HW1 2857   9.919  11.286  14.313
  320SOL    HW2 2858   9.910  11.169  14.409
  321SOL     OW 2859   0.372  12.159   0.473
  321SOL    HW1 2860   0.323  12.209   0.538
  321SOL    HW2 2861   0.392  12.222   0.404
  322SOL     OW 2862   1.657  14.165   8.565
  322SOL    HW1 2863   1.601  14.126   8.633
  322SOL    HW2 2864   1.598  14.179   8.491
  323SOL     OW 2865   6.294   6.252   7.565
  323SOL    HW1 2866   6.339   6.260   7.481
  323SOL    HW2 2867   6.336   6.318   7.621
  324SOL     OW 2868   2.189  14.192   7.923
  324SOL    HW1 2869   2.151  14.137   7.853
  324SOL    HW2 2870   2.121  14.196   7.990
  325SOL     OW 2871   2.022   4.050   4.975
  325SOL    HW1 2872   2.024   4.017   4.886
  325SOL    HW2 2873   1.941   4.014   5.012
  326SOL     OW 2874   2.109   1.936   1.499
  326SOL    HW1 2875   2.091   1.989   1.422
  326SOL    HW2 2876   2.110   1.998   1.572
  327SOL     OW 2877   2.468   8.792   1.619
  327SOL    HW1 2878   2.477   8.839   1.702
  327SOL    HW2 2879   2.400   8.727   1.635
  328SOL     OW 2880  10.104  10.342   3.951
  328SOL    HW1 2881  10.104  10.248   3.968
  328SOL    HW2 2882  10.084  10.381   4.036
  329SOL     OW 2883  12.058   7.782  13.535
  329SOL    HW1 2884  11.994   7.844  13.572
  329SOL    HW2 2885  12.064   7.806  13.443
  330SOL     OW 2886   7.912  13.430   2.165
  330SOL    HW1 2887   7.901  13.385   2.248
  330SOL    HW2 2888   7.873  13.371   2.100
  331SOL     OW 2889   5.993   2.742   5.373
  331SOL    HW1 2890   6.066   2.803   5.380
  331SOL    HW2 2891   6.034   2.655   5.378
  332SOL     OW 2892  11.076  13.808   6.292
  332SOL    HW1 2893  11.123  13.771   6.217
  332SOL    HW2 2894  11.123  13.774   6.368
  333SOL     OW 2895  14.260  11.528  11.212
  333SOL    HW1 2896  14.348  11.561  11.230
  333SOL    HW2 2897  14.274  11.457  11.148
  334SOL     OW 2898   6.304  10.375   6.150
  334SOL    HW1 2899   6.324  10.281   6.154
  334SOL    HW2 2900   6.344  10.404   6.068
  335SOL     OW 2901  13.153   9.802   0.671
  335SOL    HW1 2902  13.166   9.722   0.722
  335SOL    HW2 2903  13.159   9.774   0.580
  336SOL     OW 2904  12.467  11.809  10.261
  336SOL    HW1 2905  12.545  11.862  10.281
  336SOL    HW2 2906  12.500  11.738  10.206
  337SOL     OW 2907   9.588  14.298  13.728
  337SOL    HW1 2908   9.609  14.205  13.720
  337SOL    HW2 2909   9.669  14.339  13.755
  338SOL     OW 2910  14.563  11.321  14.382
  338SOL    HW1 2911  14.647  11.353  14.415
  338SOL    HW2 2912  14.505  11.397  14.384
  339SOL     OW 2913  10.957   8.182   4.504
  339SOL    HW1 2914  10.983   8.268   4.472
  339SOL    HW2 2915  10.999   8.173   4.589
  340SOL     OW 2916   0.804  13.674   7.515
  340SOL    HW1 2917   0.800  13.717   7.600
  340SOL    HW2 2918   0.836  13.742   7.455
  341SOL     OW 2919   6.547  12.175   6.937
  341SOL    HW1 2920   6.488  12.220   6.877
  341SOL    HW2 2921   6.628  12.163   6.887
  342SOL     OW 2922   3.845   4.904  10.491
  342SOL    HW1 2923   3.924   4.956  10.507
  342SOL    HW2 2924   3.819   4.926  10.402
  343SOL     OW 2925   7.466  10.662  14.675
  343SOL    HW1 2926   7.389  10.604  14.678
  343SOL    HW2 2927   7.509  10.649  14.760
  344SOL     OW 2928  11.229  10.391  10.020
  344SOL    HW1 2929  11.277  10.343   9.952
  344SOL    HW2 2930  11.140  10.400   9.985
  345SOL     OW 2931   6.403  13.007   3.241
  345SOL    HW1 2932   6.472  12.942   3.243
  345SOL    HW2 2933   6.413  13.057   3.322
  346SOL     OW 2934  10.471   6.552   7.614
  346SOL    HW1 2935  10.404   6.593   7.559
  346SOL    HW2 2936  10.484   6.614   7.686
  347SOL     OW 2937  14.595  14.265  11.043
  347SOL    HW1 2938  14.555  14.186  11.007
  347SOL    HW2 2939  14.646  14.302  10.970
  348SOL     OW 2940   2.132  10.382  11.745
  348SOL    HW1 2941   2.097  10.323  11.679
  348SOL    HW2 2942   2.113  10.470  11.712
  349SOL     OW 2943  10.706   4.895   7.680
  349SOL    HW1 2944  10.634   4.880   7.620
  349SOL    HW2 2945  10.698   4.826   7.746
  350SOL     OW 2946  10.314   9.648  12.025
  350SOL    HW1 2947  10.348   9.577  11.971
  350SOL    HW2 2948  10.345   9.627  12.114
  351SOL     OW 2949   2.815   7.093  13.134
  351SOL    HW1 2950   2.879   7.029  13.165
  351SOL    HW2 2951   2.743   7.086  13.197
  352SOL     OW 2952  10.408   3.350   8.102
  352SOL    HW1 2953  10.423   3.412   8.031
  352SOL    HW2 2954  10.381   3.270   8.059
  353SOL     OW 2955   8.373   9.500   8.055
  353SOL    HW1 2956   8.462   9.473   8.079
  353SOL    HW2 2957   8.384   9.547   7.972
  354SOL     OW 2958   4.964   8.672   7.439
  354SOL    HW1 2959   4.979   8.757   7.398
  354SOL    HW2 2960   4.900   8.689   7.509
  355SOL     OW 2961  10.533   1.750   5.251
  355SOL    HW1 2962  10.618   1.715   5.279
  355SOL    HW2 2963  10.540   1.754   5.156
  356SOL     OW 2964  11.935  12.020   1.447
  356SOL    HW1 2965  11.877  12.029   1.372
  356SOL    HW2 2966  11.936  11.927   1.466
  357SOL     OW 2967   1.949   4.299   3.578
  357SOL    HW1 2968   1.903   4.382   3.590
  357SOL    HW2 2969   1.996   4.309   3.495
  358SOL     OW 2970   5.808   3.626   7.369
  358SOL    HW1 2971   5.810   3.531   7.355
  358SOL    HW2 2972   5.814   3.663   7.281
  359SOL     OW 2973   2.778  14.079   9.489
  359SOL    HW1 2974   2.750  14.159   9.444
  359SOL    HW2 2975   2.699  14.045   9.530
  360SOL     OW 2976   7.283   5.946   3.812
  360SOL    HW1 2977   7.258   6.036   3.833
  360SOL    HW2 2978   7.363   5.931   3.864
  361SOL     OW 2979   4.454   3.521   3.750
  361SOL    HW1 2980   4.409   3.438   3.769
  361SOL    HW2 2981   4.496   3.545   3.833
  362SOL     OW 2982   0.720  12.450   6.810
  362SOL    HW1 2983   0.803  12.430   6.855
  362SOL    HW2 2984   0.657  12.390   6.848
  363SOL     OW 2985   9.413   6.326  10.859
  363SOL    HW1 2986   9.350   6.373  10.805
  363SOL    HW2 2987   9.439   6.389  10.926
  364SOL     OW 2988   1.795   5.952   9.268
  364SOL    HW1 2989   1.742   5.873   9.271
  364SOL    HW2 2990   1.885   5.920   9.261
  365SOL     OW 2991   6.403  10.753   0.883
  365SOL    HW1 2992   6.445  10.668   0.873
  365SOL    HW2 2993   6.463  10.804   0.937
  366SOL     OW 2994   8.961   0.013   0.442
  366SOL    HW1 2995   8.988  14.872   0.531
  366SOL    HW2 2996   9.039   0.001   0.388
  367SOL     OW 2997   1.389  11.859   2.130
  367SOL    HW1 2998   1.360  11.939   2.173
  367SOL    HW2 2999   1.373  11.790   2.194
  368SOL     OW 3000   4.588   7.676  10.853
  368SOL    HW1 3001   4.647   7.636  10.789
  368SOL    HW2 3002   4.505   7.686  10.807
  369SOL     OW 3003  14.860  13.784   6.381
  369SOL    HW1 3004   0.067  13.749   6.375
  369SOL    HW2 3005  14.857  13.830   6.464
  370SOL     OW 3006   5.745   2.991  13.958
  370SOL    HW1 3007   5.782   2.968  13.873
  370SOL    HW2 3008   5.650   2.986  13.946
  371SOL     OW 3009   5.053  14.862  12.030
  371SOL    HW1 3010   5.092   0.043  12.090
  371SOL    HW2 3011   4.960   0.001  12.030
  372SOL     OW 3012  12.834   5.002   2.367
  372SOL    HW1 3013  12.923   5.016   2.335
  372SOL    HW2 3014  12.832   5.045   2.452
  373SOL     OW 3015   3.860   9.015   6.071
  373SOL    HW1 3016   3.944   8.977   6.096
  373SOL    HW2 3017   3.815   8.945   6.023
  374SOL     OW 3018   0.386   7.006  11.245
  374SOL    HW1 3019   0.341   7.021  11.328
  374SOL    HW2 3020   0.321   6.962  11.190
  375SOL     OW 3021   1.416  10.038  12.192
  375SOL    HW1 3022   1.340  10.060  12.137
  375SOL    HW2 3023   1.429  10.116  12.246
  376SOL     OW 3024   2.350   2.727   9.879
  376SOL    HW1 3025   2.318   2.807   9.837
  376SOL    HW2 3026   2.377   2.671   9.807
  377SOL     OW 3027   0.235  10.208   0.616
  377SOL    HW1 3028   0.180  10.273   0.571
  377SOL    HW2 3029   0.319  10.213   0.572
  378SOL     OW 3030   0.692   9.879  12.485
  378SOL    HW1 3031   0.617   9.864  12.543
  378SOL    HW2 3032   0.768   9.857  12.538
  379SOL     OW 3033  13.362  11.356  11.476
  379SOL    HW1 3034  13.350  11.328  11.567
  379SOL    HW2 3035  13.290  11.315  11.429
  380SOL     OW 3036   3.540  13.419   5.822
  380SOL    HW1 3037   3.575  13.344   5.773
  380SOL    HW2 3038   3.560  13.398   5.914
  381SOL     OW 3039  11.440   0.456   0.877
  381SOL    HW1 3040  11.501   0.501   0.819
  381SOL    HW2 3041  11.355   0.496   0.857
  382SOL     OW 3042  10.324  10.269   8.470
  382SOL    HW1 3043  10.245  10.220   8.494
  382SOL    HW2 3044  10.396  10.210   8.490
  383SOL     OW 3045   0.810   6.737   8.141
  383SOL    HW1 3046   0.863   6.748   8.062
  383SOL    HW2 3047   0.767   6.822   8.153
  384SOL     OW 3048   3.171  14.182   7.962
  384SOL    HW1 3049   3.226  14.227   8.026
  384SOL    HW2 3050   3.232  14.153   7.894
  385SOL     OW 3051   4.387   6.671  14.472
  385SOL    HW1 3052   4.338   6.625  14.539
  385SOL    HW2 3053   4.469   6.695  14.515
  386SOL     OW 3054   5.586  12.720   9.208
  386SOL    HW1 3055   5.638  12.793   9.175
  386SOL    HW2 3056   5.562  12.745   9.297
  387SOL     OW 3057   6.806  11.006   1.477
  387SOL    HW1 3058   6.876  11.059   1.438
  387SOL    HW2 3059   6.832  10.995   1.568
  388SOL     OW 3060   7.663   3.382   9.506
  388SOL    HW1 3061   7.620   3.456   9.548
  388SOL    HW2 3062   7.721   3.346   9.573
  389SOL     OW 3063   3.096   2.856   1.289
  389SOL    HW1 3064   3.157   2.813   1.349
  389SOL    HW2 3065   3.152   2.899   1.224
  390SOL     OW 3066   2.145   6.026   1.720
  390SOL    HW1 3067   2.129   6.120   1.720
  390SOL    HW2 3068   2.073   5.988   1.770
  391SOL     OW 3069   6.818   4.952  13.218
  391SOL    HW1 3070   6.734   4.976  13.180
  391SOL    HW2 3071   6.877   5.022  13.193
  392SOL     OW 3072   9.869   7.299   9.497
  392SOL    HW1 3073   9.945   7.341   9.458
  392SOL    HW2 3074   9.841   7.359   9.566
  393SOL     OW 3075  12.776   0.608   7.272
  393SOL    HW1 3076  12.755   0.566   7.356
  393SOL    HW2 3077  12.786   0.701   7.294
  394SOL     OW 3078   0.696   0.488   6.535
  394SOL    HW1 3079   0.723   0.568   6.491
  394SOL    HW2 3080   0.650   0.517   6.614
  395SOL     OW 3081   1.291  12.311   8.121
  395SOL    HW1 3082   1.364  12.254   8.098
  395SOL    HW2 3083   1.244  12.324   8.038
  396SOL     OW 3084   5.097   1.191   9.024
  396SOL    HW1 3085   5.131   1.271   8.984
  396SOL    HW2 3086   5.121   1.121   8.963
  397SOL     OW 3087   7.299  13.152   3.084
  397SOL    HW1 3088   7.322  13.217   3.150
  397SOL    HW2 3089   7.203  13.148   3.087
  398SOL     OW 3090   8.109   9.264  13.441
  398SOL    HW1 3091   8.116   9.247  13.347
  398SOL    HW2 3092   8.198   9.255  13.474
  399SOL     OW 3093  10.847   0.784   2.889
  399SOL    HW1 3094  10.891   0.745   2.813
  399SOL    HW2 3095  10.860   0.878   2.879
  400SOL     OW 3096   9.190   7.453   1.679
  400SOL    HW1 3097   9.282   7.447   1.707
  400SOL    HW2 3098   9.194   7.490   1.591
  401SOL     OW 3099   6.302   7.212  12.605
  401SOL    HW1 3100   6.287   7.117  12.605
  401SOL    HW2 3101   6.266   7.242  12.689
  402SOL     OW 3102   5.678  14.180  11.154
  402SOL    HW1 3103   5.714  14.093  11.140
  402SOL    HW2 3104   5.716  14.208  11.238
  403SOL     OW 3105   1.303   8.471  12.716
  403SOL    HW1 3106   1.356   8.547  12.693
  403SOL    HW2 3107   1.254   8.498  12.794
  404SOL     OW 3108   3.892   3.911  13.101
  404SOL    HW1 3109   3.916   3.831  13.149
  404SOL    HW2 3110   3.920   3.982  13.159
  405SOL     OW 3111   2.618   6.454   7.108
  405SOL    HW1 3112   2.588   6.419   7.192
  405SOL    HW2 3113   2.710   6.477   7.123
  406SOL     OW 3114   4.620   2.120   7.122
  406SOL    HW1 3115   4.656   2.063   7.054
  406SOL    HW2 3116   4.530   2.135   7.095
  407SOL     OW 3117  14.193   3.274   6.109
  407SOL    HW1 3118  14.271   3.266   6.164
  407SOL    HW2 3119  14.130   3.214   6.148
  408SOL     OW 3120   9.968  14.580   9.781
  408SOL    HW1 3121  10.037  14.515   9.771
  408SOL    HW2 3122  10.002  14.657   9.735
  409SOL     OW 3123   3.703  10.006   8.419
  409SOL    HW1 3124   3.678  10.098   8.425
  409SOL    HW2 3125   3.619   9.959   8.417
  410SOL     OW 3126   0.678  10.245   1.132
  410SOL    HW1 3127   0.703  10.337   1.126
  410SOL    HW2 3128   0.712  10.217   1.217
  411SOL     OW 3129   8.415  14.801   0.941
  411SOL    HW1 3130   8.480  14.785   1.009
  411SOL    HW2 3131   8.462  14.795   0.859
  412SOL     OW 3132   3.113  12.646   8.871
  412SOL    HW1 3133   3.078  12.631   8.784
  412SOL    HW2 3134   3.041  12.625   8.930
  413SOL     OW 3135  10.747   1.488   2.665
  413SOL    HW1 3136  10.815   1.526   2.610
  413SOL    HW2 3137  10.704   1.563   2.707
  414SOL     OW 3138   4.717   4.281   7.154
  414SOL    HW1 3139   4.748   4.371   7.141
  414SOL    HW2 3140   4.710   4.245   7.065
  415SOL     OW 3141  11.622   8.029   1.516
  415SOL    HW1 3142  11.664   8.072   1.589
  415SOL    HW2 3143  11.686   7.964   1.486
  416SOL     OW 3144   1.681  13.500   4.323
  416SOL    HW1 3145   1.689  13.542   4.238
  416SOL    HW2 3146   1.712  13.411   4.309
  417SOL     OW 3147   4.489   4.160   3.351
  417SOL    HW1 3148   4.430   4.094   3.387
  417SOL    HW2 3149   4.576   4.134   3.382
  418SOL     OW 3150   7.111  11.558  13.928
  418SOL    HW1 3151   7.110  11.637  13.981
  418SOL    HW2 3152   7.097  11.486  13.990
  419SOL     OW 3153   1.381  10.389  12.994
  419SOL    HW1 3154   1.467  10.425  12.971
  419SOL    HW2 3155   1.395  10.295  13.001
  420SOL     OW 3156   4.107   3.740   6.837
  420SOL    HW1 3157   4.098   3.801   6.911
  420SOL    HW2 3158   4.199   3.748   6.811
  421SOL     OW 3159  11.068  12.071   3.241
  421SOL    HW1 3160  11.044  11.995   3.189
  421SOL    HW2 3161  11.134  12.038   3.302
  422SOL     OW 3162   5.777  10.116  11.921
  422SOL    HW1 3163   5.813  10.156  11.842
  422SOL    HW2 3164   5.850  10.066  11.958
  423SOL     OW 3165   9.577   9.303  12.563
  423SOL    HW1 3166   9.653   9.339  12.518
  423SOL    HW2 3167   9.532   9.251  12.496
  424SOL     OW 3168   1.805   2.332   8.261
  424SOL    HW1 3169   1.750   2.309   8.335
  424SOL    HW2 3170   1.860   2.404   8.293
  425SOL     OW 3171  12.742   2.329  13.912
  425SOL    HW1 3172  12.790   2.387  13.853
  425SOL    HW2 3173  12.659   2.375  13.927
  426SOL     OW 3174   9.904   7.725  12.998
  426SOL    HW1 3175   9.858   7.753  13.078
  426SOL    HW2 3176   9.993   7.704  13.028
  427SOL     OW 3177   6.160   8.859  12.591
  427SOL    HW1 3178   6.143   8.858  12.497
  427SOL    HW2 3179   6.254   8.874  12.599
  428SOL     OW 3180   7.841   4.999   7.893
  428SOL    HW1 3181   7.778   4.981   7.823
  428SOL    HW2 3182   7.858   4.914   7.932
  429SOL     OW 3183   5.783   1.032  11.269
  429SOL    HW1 3184   5.773   1.095  11.339
  429SOL    HW2 3185   5.710   1.049  11.210
  430SOL     OW 3186   8.586   0.378  10.543
  430SOL    HW1 3187   8.534   0.379  10.623
  430SOL    HW2 3188   8.598   0.285  10.524
  431SOL     OW 3189  12.308   4.310  12.727
  431SOL    HW1 3190  12.322   4.237  12.786
  431SOL    HW2 3191  12.379   4.304  12.663
  432SOL     OW 3192   8.961   6.995   2.385
  432SOL    HW1 3193   8.880   6.946   2.371
  432SOL    HW2 3194   9.031   6.931   2.374
  433SOL     OW 3195   6.414  14.292   8.356
  433SOL    HW1 3196   6.343  14.255   8.407
  433SOL    HW2 3197   6.487  14.300   8.417
  434SOL     OW 3198   0.426   8.726   5.705
  434SOL    HW1 3199   0.514   8.695   5.683
  434SOL    HW2 3200   0.438   8.780   5.783
  435SOL     OW 3201   6.909  13.329   7.553
  435SOL    HW1 3202   6.868  13.413   7.573
  435SOL    HW2 3203   6.836  13.267   7.553
  436SOL     OW 3204   1.572   6.845   3.468
  436SOL    HW1 3205   1.588   6.760   3.428
  436SOL    HW2 3206   1.500   6.830   3.529
  437SOL     OW 3207   0.136   3.180   7.454
  437SOL    HW1 3208   0.059   3.198   7.401
  437SOL    HW2 3209   0.106   3.191   7.544
  438SOL     OW 3210   2.650   6.804  10.617
  438SOL    HW1 3211   2.703   6.749  10.559
  438SOL    HW2 3212   2.562   6.765  10.614
  439SOL     OW 3213   2.404   3.106   8.565
  439SOL    HW1 3214   2.443   3.125   8.480
  439SOL    HW2 3215   2.340   3.176   8.578
  440SOL     OW 3216   5.873  14.236   1.794
  440SOL    HW1 3217   5.919  14.263   1.874
  440SOL    HW2 3218   5.785  14.212   1.824
  441SOL     OW 3219   7.879  10.405  10.929
  441SOL    HW1 3220   7.814  10.475  10.921
  441SOL    HW2 3221   7.963  10.450  10.929
  442SOL     OW 3222   2.945   2.739   1.569
  442SOL    HW1 3223   2.979   2.678   1.503
  442SOL    HW2 3224   2.995   2.819   1.556
  443SOL     OW 3225   7.068  10.110   5.978
  443SOL    HW1 3226   6.994  10.162   5.945
  443SOL    HW2 3227   7.139  10.128   5.916
  444SOL     OW 3228  13.993  12.836   6.352
  444SOL    HW1 3229  14.036  12.782   6.286
  444SOL    HW2 3230  13.938  12.896   6.301
  445SOL     OW 3231   7.862   2.010   7.849
  445SOL    HW1 3232   7.816   2.076   7.796
  445SOL    HW2 3233   7.845   2.036   7.940
  446SOL     OW 3234   4.947  10.455   5.533
  446SOL    HW1 3235   5.040  10.433   5.525
  446SOL    HW2 3236   4.920  10.482   5.445
  447SOL     OW 3237  14.298   5.351  13.361
  447SOL    HW1 3238  14.225   5.310  13.316
  447SOL    HW2 3239  14.323   5.425  13.304
  448SOL     OW 3240   7.876   7.671   6.531
  448SOL    HW1 3241   7.879   7.749   6.586
  448SOL    HW2 3242   7.811   7.692   6.464
  449SOL     OW 3243   8.704  10.916   1.536
  449SOL    HW1 3244   8.748  10.834   1.560
  449SOL    HW2 3245   8.646  10.935   1.609
  450SOL     OW 3246   9.642   0.871   5.347
  450SOL    HW1 3247   9.664   0.833   5.432
  450SOL    HW2 3248   9.699   0.825   5.285
  451SOL     OW 3249   4.166   9.747   7.238
  451SOL    HW1 3250   4.121   9.732   7.154
  451SOL    HW2 3251   4.252   9.780   7.214
  452SOL     OW 3252  12.231  14.210  13.482
  452SOL    HW1 3253  12.213  14.147  13.413
  452SOL    HW2 3254  12.172  14.283  13.464
  453SOL     OW 3255  12.269   9.147   6.165
  453SOL    HW1 3256  12.234   9.166   6.078
  453SOL    HW2 3257  12.252   9.054   6.178
  454SOL     OW 3258   0.825   7.277   4.921
  454SOL    HW1 3259   0.875   7.243   4.847
  454SOL    HW2 3260   0.869   7.358   4.945
  455SOL     OW 3261   9.410   1.974   7.903
  455SOL    HW1 3262   9.485   1.922   7.933
  455SOL    HW2 3263   9.377   2.017   7.982
  456SOL     OW 3264   9.813  13.871   6.598
  456SOL    HW1 3265   9.823  13.839   6.687
  456SOL    HW2 3266   9.806  13.793   6.544
  457SOL     OW 3267   6.516  11.271   3.618
  457SOL    HW1 3268   6.569  11.214   3.563
  457SOL    HW2 3269   6.576  11.340   3.646
  458SOL     OW 3270   2.905  11.720  10.277
  458SOL    HW1 3271   2.953  11.784  10.224
  458SOL    HW2 3272   2.822  11.708  10.231
  459SOL     OW 3273  10.109   3.780   0.381
  459SOL    HW1 3274  10.111   3.701   0.327
  459SOL    HW2 3275  10.092   3.852   0.319
  460SOL     OW 3276   4.890   2.579   7.855
  460SOL    HW1 3277   4.938   2.598   7.774
  460SOL    HW2 3278   4.957   2.552   7.917
  461SOL     OW 3279   2.283   3.071   7.408
  461SOL    HW1 3280   2.207   3.030   7.449
  461SOL    HW2 3281   2.260   3.164   7.402
  462SOL     OW 3282   3.995   2.968   9.197
  462SOL    HW1 3283   4.050   2.896   9.165
  462SOL    HW2 3284   3.909   2.949   9.160
  463SOL     OW 3285   7.098   4.641   4.944
  463SOL    HW1 3286   7.076   4.559   4.989
  463SOL    HW2 3287   7.014   4.676   4.915
  464SOL     OW 3288   6.666  13.925   2.731
  464SOL    HW1 3289   6.745  13.977   2.717
  464SOL    HW2 3290   6.646  13.889   2.645
  465SOL     OW 3291  11.367   2.193   3.088
  465SOL    HW1 3292  11.377   2.100   3.065
  465SOL    HW2 3293  11.392   2.239   3.008
  466SOL     OW 3294   4.086   3.316   2.856
  466SOL    HW1 3295   4.077   3.399   2.903
  466SOL    HW2 3296   4.006   3.310   2.803
  467SOL     OW 3297   4.200  10.498  10.663
  467SOL    HW1 3298   4.190  10.564  10.594
  467SOL    HW2 3299   4.180  10.544  10.744
  468SOL     OW 3300   7.773   9.850   2.940
  468SOL    HW1 3301   7.774   9.877   2.848
  468SOL    HW2 3302   7.706   9.905   2.980
  469SOL     OW 3303   0.436  12.531  14.103
  469SOL    HW1 3304   0.383  12.573  14.170
  469SOL    HW2 3305   0.414  12.438  14.110
  470SOL     OW 3306  11.683   3.387  11.410
  470SOL    HW1 3307  11.589   3.388  11.390
  470SOL    HW2 3308  11.691   3.445  11.486
  471SOL     OW 3309  12.772   3.075   3.384
  471SOL    HW1 3310  12.722   3.137   3.436
  471SOL    HW2 3311  12.845   3.125   3.349
  472SOL     OW 3312   6.098   8.106   7.487
  472SOL    HW1 3313   6.007   8.095   7.462
  472SOL    HW2 3314   6.148   8.070   7.414
  473SOL     OW 3315   0.628   2.903   7.944
  473SOL    HW1 3316   0.606   2.822   7.897
  473SOL    HW2 3317   0.721   2.894   7.964
  474SOL     OW 3318   7.115   0.741   9.066
  474SOL    HW1 3319   7.177   0.809   9.041
  474SOL    HW2 3320   7.106   0.750   9.161
  475SOL     OW 3321   0.062  10.348  10.548
  475SOL    HW1 3322  14.852  10.328  10.566
  475SOL    HW2 3323   0.084  10.292  10.473
  476SOL     OW 3324   3.033   1.858   7.095
  476SOL    HW1 3325   3.040   1.940   7.045
  476SOL    HW2 3326   3.123   1.831   7.109
  477SOL     OW 3327   6.855   4.367  12.043
  477SOL    HW1 3328   6.832   4.439  11.985
  477SOL    HW2 3329   6.899   4.304  11.987
  478SOL     OW 3330  13.643   9.280   3.566
  478SOL    HW1 3331  13.673   9.298   3.476
  478SOL    HW2 3332  13.564   9.228   3.554
  479SOL     OW 3333   2.844   2.536  13.010
  479SOL    HW1 3334   2.923   2.549  12.956
  479SOL    HW2 3335   2.842   2.442  13.027
  480SOL     OW 3336   5.519   8.804   3.109
  480SOL    HW1 3337   5.610   8.828   3.122
  480SOL    HW2 3338   5.500   8.741   3.179
  481SOL     OW 3339   7.164   4.902   9.451
  481SOL    HW1 3340   7.195   4.986   9.418
  481SOL    HW2 3341   7.226   4.838   9.418
  482SOL     OW 3342   8.560   4.014  13.012
  482SOL    HW1 3343   8.509   4.049  12.938
  482SOL    HW2 3344   8.598   4.091  13.053
  483SOL     OW 3345   6.113   9.336  13.555
  483SOL    HW1 3346   6.182   9.295  13.503
  483SOL    HW2 3347   6.089   9.414  13.505
  484SOL     OW 3348   7.582  14.857   7.795
  484SOL    HW1 3349   7.580  14.777   7.742
  484SOL    HW2 3350   7.670   0.010   7.780
  485SOL     OW 3351   7.654   4.258  11.970
  485SOL    HW1 3352   7.629   4.252  11.878
  485SOL    HW2 3353   7.701   4.341  11.977
  486SOL     OW 3354   6.698   3.879   8.188
  486SOL    HW1 3355   6.700   3.792   8.227
  486SOL    HW2 3356   6.620   3.880   8.134
  487SOL     OW 3357  14.335   0.703  14.376
  487SOL    HW1 3358  14.358   0.793  14.352
  487SOL    HW2 3359  14.391   0.648  14.322
  488SOL     OW 3360   5.848   0.697  11.606
  488SOL    HW1 3361   5.900   0.760  11.556
  488SOL    HW2 3362   5.889   0.696  11.693
  489SOL     OW 3363  12.836  11.819   6.389
  489SOL    HW1 3364  12.832  11.898   6.442
  489SOL    HW2 3365  12.787  11.841   6.309
  490SOL     OW 3366   5.502   0.924   6.298
  490SOL    HW1 3367   5.526   0.934   6.206
  490SOL    HW2 3368   5.469   0.835   6.304
  491SOL     OW 3369  11.369   0.925  11.447
  491SOL    HW1 3370  11.435   0.919  11.516
  491SOL    HW2 3371  11.420   0.935  11.367
  492SOL     OW 3372   3.633   3.441   1.542
  492SOL    HW1 3373   3.639   3.492   1.623
  492SOL    HW2 3374   3.723   3.413   1.525
  493SOL     OW 3375  14.067  13.802   7.223
  493SOL    HW1 3376  14.118  13.731   7.263
  493SOL    HW2 3377  14.083  13.793   7.129
  494SOL     OW 3378   5.499   6.634   6.866
  494SOL    HW1 3379   5.543   6.713   6.896
  494SOL    HW2 3380   5.558   6.563   6.890
  495SOL     OW 3381  10.634  14.846   1.051
  495SOL    HW1 3382  10.723  14.882   1.049
  495SOL    HW2 3383  10.595  14.875   0.968
  496SOL     OW 3384   5.321   3.722   0.681
  496SOL    HW1 3385   5.314   3.656   0.750
  496SOL    HW2 3386   5.319   3.806   0.727
  497SOL     OW 3387   9.326   7.931   8.364
  497SOL    HW1 3388   9.269   7.855   8.358
  497SOL    HW2 3389   9.323   7.970   8.276
  498SOL     OW 3390   8.658   4.633   5.733
  498SOL    HW1 3391   8.728   4.680   5.779
  498SOL    HW2 3392   8.678   4.645   5.641
  499SOL     OW 3393  12.062   8.450   1.132
  499SOL    HW1 3394  12.001   8.383   1.161
  499SOL    HW2 3395  12.040   8.466   1.041
  500SOL     OW 3396   7.387  12.575  11.064
  500SOL    HW1 3397   7.447  12.513  11.105
  500SOL    HW2 3398   7.412  12.574  10.971
  501SOL     OW 3399   1.983   8.715   9.024
  501SOL    HW1 3400   2.021   8.759   8.947
  501SOL    HW2 3401   1.888   8.721   9.011
  502SOL     OW 3402   5.703   2.118   6.363
  502SOL    HW1 3403   5.791   2.148   6.389
  502SOL    HW2 3404   5.710   2.023   6.361
  503SOL     OW 3405   9.892  10.106   3.260
  503SOL    HW1 3406   9.845  10.184   3.288
  503SOL    HW2 3407   9.916  10.062   3.341
  504SOL     OW 3408  12.036   7.637   8.415
  504SOL    HW1 3409  12.034   7.701   8.486
  504SOL    HW2 3410  11.990   7.680   8.342
  505SOL     OW 3411  10.437   2.362   9.704
  505SOL    HW1 3412  10.464   2.446   9.741
  505SOL    HW2 3413  10.407   2.312   9.780
  506SOL     OW 3414   9.414   1.383  10.990
  506SOL    HW1 3415   9.398   1.388  10.896
  506SOL    HW2 3416   9.482   1.450  11.006
  507SOL     OW 3417   0.540   5.023   1.325
  507SOL    HW1 3418   0.567   5.035   1.234
  507SOL    HW2 3419   0.463   5.079   1.334
  508SOL     OW 3420  14.603  14.208  13.138
  508SOL    HW1 3421  14.516  14.246  13.151
  508SOL    HW2 3422  14.650  14.226  13.219
  509SOL     OW 3423   9.284  13.756   0.332
  509SOL    HW1 3424   9.309  13.736   0.422
  509SOL    HW2 3425   9.331  13.837   0.312
  510SOL     OW 3426  11.041   5.716  12.246
  510SOL    HW1 3427  11.064   5.707  12.154
  510SOL    HW2 3428  10.996   5.635  12.269
  511SOL     OW 3429   1.733   9.673   1.124
  511SOL    HW1 3430   1.796   9.612   1.163
  511SOL    HW2 3431   1.775   9.702   1.043
  512SOL     OW 3432   8.164   3.732   4.466
  512SOL    HW1 3433   8.110   3.807   4.441
  512SOL    HW2 3434   8.251   3.769   4.482
  513SOL     OW 3435   0.839  14.042  12.733
  513SOL    HW1 3436   0.888  14.009  12.657
  513SOL    HW2 3437   0.760  13.989  12.735
  514SOL     OW 3438  12.476   0.595  12.659
  514SOL    HW1 3439  12.381   0.599  12.668
  514SOL    HW2 3440  12.505   0.544  12.735
  515SOL     OW 3441  13.897  13.883  13.277
  515SOL    HW1 3442  13.913  13.873  13.370
  515SOL    HW2 3443  13.917  13.796  13.240
  516SOL     OW 3444  13.183   9.237   2.492
  516SOL    HW1 3445  13.241   9.206   2.423
  516SOL    HW2 3446  13.234   9.229   2.572
  517SOL     OW 3447   1.054  13.391  10.950
  517SOL    HW1 3448   1.121  13.322  10.945
  517SOL    HW2 3449   1.104  13.473  10.945
  518SOL     OW 3450   5.729   8.344   3.422
  518SOL    HW1 3451   5.811   8.301   3.398
  518SOL    HW2 3452   5.728   8.425   3.372
  519SOL     OW 3453   1.122  13.502   3.395
  519SOL    HW1 3454   1.135  13.412   3.422
  519SOL    HW2 3455   1.047  13.499   3.335
  520SOL     OW 3456   3.052   4.648  13.212
  520SOL    HW1 3457   3.057   4.552  13.202
  520SOL    HW2 3458   3.075   4.681  13.125
  521SOL     OW 3459   0.231  11.306   5.461
  521SOL    HW1 3460   0.192  11.221   5.439
  521SOL    HW2 3461   0.218  11.359   5.382
  522SOL     OW 3462  10.105   1.049   2.449
  522SOL    HW1 3463  10.200   1.042   2.443
  522SOL    HW2 3464  10.084   1.016   2.536
  523SOL     OW 3465   9.781   9.258   3.223
  523SOL    HW1 3466   9.743   9.331   3.174
  523SOL    HW2 3467   9.754   9.274   3.314
  524SOL     OW 3468  13.791   5.221  10.670
  524SOL    HW1 3469  13.747   5.292  10.718
  524SOL    HW2 3470  13.868   5.262  10.632
  525SOL     OW 3471   5.398  13.057   9.553
  525SOL    HW1 3472   5.444  13.018   9.479
  525SOL    HW2 3473   5.332  12.992   9.577
  526SOL     OW 3474   1.380  10.955  12.234
  526SOL    HW1 3475   1.345  11.020  12.294
  526SOL    HW2 3476   1.474  10.973  12.232
  527SOL     OW 3477   0.511   8.086   8.939
  527SOL    HW1 3478   0.569   8.109   8.866
  527SOL    HW2 3479   0.449   8.159   8.944
  528SOL     OW 3480   7.133   2.025   6.925
  528SOL    HW1 3481   7.041   2.032   6.898
  528SOL    HW2 3482   7.129   1.997   7.017
  529SOL     OW 3483  12.493  13.893  11.669
  529SOL    HW1 3484  12.556  13.950  11.713
  529SOL    HW2 3485  12.408  13.934  11.686
  530SOL     OW 3486   3.456   6.357  12.415
  530SOL    HW1 3487   3.401   6.413  12.470
  530SOL    HW2 3488   3.514   6.418  12.369
  531SOL     OW 3489  14.835  10.540   7.932
  531SOL    HW1 3490  14.873  10.599   7.997
  531SOL    HW2 3491   0.022  10.528   7.867
  532SOL     OW 3492   5.012  10.851  13.103
  532SOL    HW1 3493   5.102  10.861  13.073
  532SOL    HW2 3494   5.010  10.897  13.187
  533SOL     OW 3495   4.571   4.621   1.269
  533SOL    HW1 3496   4.615   4.697   1.308
  533SOL    HW2 3497   4.492   4.657   1.230
  534SOL     OW 3498  13.938   4.761  11.644
  534SOL    HW1 3499  14.017   4.708  11.631
  534SOL    HW2 3500  13.943   4.828  11.576
  535SOL     OW 3501   3.505   1.637   3.872
  535SOL    HW1 3502   3.593   1.662   3.843
  535SOL    HW2 3503   3.517   1.550   3.911
  536SOL     OW 3504   1.127   0.863  13.238
  536SOL    HW1 3505   1.222   0.859  13.245
  536SOL    HW2 3506   1.099   0.772  13.232
  537SOL     OW 3507   0.487   6.480   4.662
  537SOL    HW1 3508   0.417   6.499   4.724
  537SOL    HW2 3509   0.523   6.396   4.691
  538SOL     OW 3510  10.087   5.627   7.058
  538SOL    HW1 3511  10.122   5.703   7.013
  538SOL    HW2 3512  10.140   5.620   7.138
  539SOL     OW 3513   4.092   1.741  10.405
  539SOL    HW1 3514   4.128   1.675  10.347
  539SOL    HW2 3515   4.033   1.793  10.350
  540SOL     OW 3516   2.633   2.098  12.073
  540SOL    HW1 3517   2.670   2.093  12.161
  540SOL    HW2 3518   2.570   2.170  12.077
  541SOL     OW 3519  13.428   0.332   1.471
  541SOL    HW1 3520  13.337   0.310   1.450
  541SOL    HW2 3521  13.478   0.259   1.436
  542SOL     OW 3522   8.847   2.795   3.892
  542SOL    HW1 3523   8.888   2.873   3.930
  542SOL    HW2 3524   8.781   2.829   3.833
  543SOL     OW 3525   6.671   7.284  12.456
  543SOL    HW1 3526   6.756   7.282  12.500
  543SOL    HW2 3527   6.607   7.285  12.526
  544SOL     OW 3528  12.384   0.987  14.682
  544SOL    HW1 3529  12.376   0.892  14.687
  544SOL    HW2 3530  12.295   1.018  14.666
  545SOL     OW 3531   9.668   7.100   8.872
  545SOL    HW1 3532   9.739   7.114   8.810
  545SOL    HW2 3533   9.686   7.013   8.909
  546SOL     OW 3534   2.571  14.809   9.986
  546SOL    HW1 3535   2.495  14.831  10.040
  546SOL    HW2 3536   2.578  14.882   9.924
  547SOL     OW 3537  12.850   4.468   4.641
  547SOL    HW1 3538  12.831   4.450   4.549
  547SOL    HW2 3539  12.922   4.531   4.639
  548SOL     OW 3540   5.357   3.117   0.787
  548SOL    HW1 3541   5.286   3.061   0.819
  548SOL    HW2 3542   5.313   3.183   0.733
  549SOL     OW 3543   5.531  13.239  11.894
  549SOL    HW1 3544   5.451  13.289  11.906
  549SOL    HW2 3545   5.578  13.248  11.977
  550SOL     OW 3546   5.738   4.413   2.896
  550SOL    HW1 3547   5.680   4.439   2.968
  550SOL    HW2 3548   5.777   4.330   2.925
  551SOL     OW 3549   6.513   7.761  13.320
  551SOL    HW1 3550   6.578   7.789  13.385
  551SOL    HW2 3551   6.549   7.789  13.236
  552SOL     OW 3552   7.874   1.792   7.685
  552SOL    HW1 3553   7.874   1.878   7.728
  552SOL    HW2 3554   7.880   1.729   7.757
  553SOL     OW 3555   8.978   4.105   2.130
  553SOL    HW1 3556   8.944   4.137   2.213
  553SOL    HW2 3557   8.913   4.132   2.065
  554SOL     OW 3558   9.366   3.746  11.140
  554SOL    HW1 3559   9.433   3.708  11.082
  554SOL    HW2 3560   9.383   3.840  11.137
  555SOL     OW 3561   8.423   1.331   9.133
  555SOL    HW1 3562   8.427   1.421   9.166
  555SOL    HW2 3563   8.331   1.306   9.144
  556SOL     OW 3564   3.154   9.111   2.095
  556SOL    HW1 3565   3.064   9.095   2.121
  556SOL    HW2 3566   3.152   9.196   2.051
  557SOL     OW 3567   1.589   8.914   7.586
  557SOL    HW1 3568   1.593   8.818   7.585
  557SOL    HW2 3569   1.583   8.938   7.494
  558SOL     OW 3570   6.529   3.064   2.626
  558SOL    HW1 3571   6.586   2.987   2.628
  558SOL    HW2 3572   6.440   3.028   2.618
  559SOL     OW 3573   5.323   5.248  13.623
  559SOL    HW1 3574   5.351   5.163  13.657
  559SOL    HW2 3575   5.304   5.300  13.701
  560SOL     OW 3576   6.445   8.789  13.563
  560SOL    HW1 3577   6.506   8.717  13.579
  560SOL    HW2 3578   6.469   8.855  13.629
  561SOL     OW 3579  11.769   4.376   3.864
  561SOL    HW1 3580  11.694   4.383   3.805
  561SOL    HW2 3581  11.734   4.333   3.942
  562SOL     OW 3582   2.191  10.814   7.076
  562SOL    HW1 3583   2.281  10.844   7.089
  562SOL    HW2 3584   2.199  10.723   7.048
  563SOL     OW 3585   0.197   6.364   4.699
  563SOL    HW1 3586   0.199   6.433   4.766
  563SOL    HW2 3587   0.124   6.389   4.642
  564SOL     OW 3588  10.477   5.859   9.703
  564SOL    HW1 3589  10.397   5.909   9.719
  564SOL    HW2 3590  10.511   5.840   9.790
  565SOL     OW 3591  10.713  14.221   7.279
  565SOL    HW1 3592  10.662  14.300   7.298
  565SOL    HW2 3593  10.793  14.232   7.329
  566SOL     OW 3594   0.238   2.944   7.342
  566SOL    HW1 3595   0.224   3.030   7.381
  566SOL    HW2 3596   0.163   2.932   7.283
  567SOL     OW 3597  13.231  11.237   7.535
  567SOL    HW1 3598  13.253  11.144   7.535
  567SOL    HW2 3599  13.247  11.265   7.625
  568SOL     OW 3600   3.179   9.996   2.938
  568SOL    HW1 3601   3.144   9.910   2.916
  568SOL    HW2 3602   3.255  10.006   2.881
  569SOL     OW 3603  11.569   5.352   5.066
  569SOL    HW1 3604  11.479   5.330   5.090
  569SOL    HW2 3605  11.609   5.269   5.041
  570SOL     OW 3606  12.346   5.029  10.605
  570SOL    HW1 3607  12.391   5.059  10.526
  570SOL    HW2 3608  12.272   5.088  10.615
  571SOL     OW 3609   4.392  11.345   3.032
  571SOL    HW1 3610   4.416  11.380   3.118
  571SOL    HW2 3611   4.386  11.422   2.976
  572SOL     OW 3612  10.310   3.647   9.323
  572SOL    HW1 3613  10.337   3.676   9.410
  572SOL    HW2 3614  10.370   3.576   9.301
  573SOL     OW 3615  14.239  12.921  12.131
  573SOL    HW1 3616  14.229  12.885  12.042
  573SOL    HW2 3617  14.178  12.994  12.134
  574SOL     OW 3618   3.823  12.214  13.863
  574SOL    HW1 3619   3.777  12.297  13.876
  574SOL    HW2 3620   3.824  12.201  13.768
  575SOL     OW 3621   4.088   2.372   6.052
  575SOL    HW1 3622   4.108   2.380   5.959
  575SOL    HW2 3623   4.150   2.308   6.086
  576SOL     OW 3624   3.558   0.324  11.157
  576SOL    HW1 3625   3.604   0.322  11.073
  576SOL    HW2 3626   3.527   0.414  11.166
  577SOL     OW 3627   6.981  12.773   6.039
  577SOL    HW1 3628   7.047  12.755   6.106
  577SOL    HW2 3629   7.023  12.834   5.979
  578SOL     OW 3630  10.025   4.367   8.899
  578SOL    HW1 3631   9.990   4.415   8.823
  578SOL    HW2 3632   9.984   4.281   8.893
  579SOL     OW 3633   6.716   4.608   4.630
  579SOL    HW1 3634   6.658   4.538   4.660
  579SOL    HW2 3635   6.661   4.662   4.573
  580SOL     OW 3636  14.314   6.223   1.253
  580SOL    HW1 3637  14.232   6.203   1.209
  580SOL    HW2 3638  14.336   6.143   1.301
  581SOL     OW 3639  13.079  10.705   0.186
  581SOL    HW1 3640  13.039  10.790   0.172
  581SOL    HW2 3641  13.097  10.672   0.098
  582SOL     OW 3642   2.140  11.407   0.750
  582SOL    HW1 3643   2.144  11.411   0.654
  582SOL    HW2 3644   2.049  11.426   0.771
  583SOL     OW 3645   4.840   1.058   4.345
  583SOL    HW1 3646   4.801   1.009   4.273
  583SOL    HW2 3647   4.903   0.997   4.384
  584SOL     OW 3648  11.099   5.920   6.660
  584SOL    HW1 3649  11.110   5.870   6.579
  584SOL    HW2 3650  11.004   5.916   6.677
  585SOL     OW 3651   7.539  10.002  10.511
  585SOL    HW1 3652   7.574  10.059  10.443
  585SOL    HW2 3653   7.456  10.043  10.536
  586SOL     OW 3654  12.545  10.234   7.063
  586SOL    HW1 3655  12.586  10.221   6.977
  586SOL    HW2 3656  12.590  10.309   7.100
  587SOL     OW 3657   8.495   3.675  10.127
  587SOL    HW1 3658   8.503   3.594  10.077
  587SOL    HW2 3659   8.581   3.688  10.166
  588SOL     OW 3660  10.197  12.349   9.688
  588SOL    HW1 3661  10.193  12.291   9.611
  588SOL    HW2 3662  10.152  12.428   9.660
  589SOL     OW 3663   2.891  13.707   5.409
  589SOL    HW1 3664   2.909  13.675   5.497
  589SOL    HW2 3665   2.900  13.802   5.415
  590SOL     OW 3666   6.666  11.046  10.703
  590SOL    HW1 3667   6.672  10.954  10.677
  590SOL    HW2 3668   6.575  11.057  10.730
  591SOL     OW 3669   8.286   4.423  11.493
  591SOL    HW1 3670   8.376   4.399  11.469
  591SOL    HW2 3671   8.278   4.515  11.465
  592SOL     OW 3672  14.459  13.996  14.318
  592SOL    HW1 3673  14.423  14.084  14.321
  592SOL    HW2 3674  14.518  13.991  14.393
  593SOL     OW 3675  11.819   9.211  12.102
  593SOL    HW1 3676  11.730   9.192  12.130
  593SOL    HW2 3677  11.820   9.189  12.009
  594SOL     OW 3678  10.637  13.148   3.342
  594SOL    HW1 3679  10.624  13.099   3.423
  594SOL    HW2 3680  10.662  13.082   3.277
  595SOL     OW 3681   2.302   3.042   0.527
  595SOL    HW1 3682   2.298   3.138   0.524
  595SOL    HW2 3683   2.231   3.017   0.587
  596SOL     OW 3684   8.657  14.194   0.989
  596SOL    HW1 3685   8.575  14.241   1.001
  596SOL    HW2 3686   8.707  14.249   0.928
  597SOL     OW 3687   5.731   3.990  14.360
  597SOL    HW1 3688   5.825   4.003  14.369
  597SOL    HW2 3689   5.710   4.027  14.274
  598SOL     OW 3690   0.245   0.214  11.934
  598SOL    HW1 3691   0.196   0.276  11.987
  598SOL    HW2 3692   0.274   0.265  11.858
  599SOL     OW 3693  12.511   8.747  13.628
  599SOL    HW1 3694  12.483   8.655  13.629
  599SOL    HW2 3695  12.470   8.782  13.549
  600SOL     OW 3696   0.715   8.919  11.237
  600SOL    HW1 3697   0.711   8.825  11.258
  600SOL    HW2 3698   0.746   8.960  11.317
  601SOL     OW 3699   2.377   4.651   6.274
  601SOL    HW1 3700   2.283   4.635   6.282
  601SOL    HW2 3701   2.390   4.678   6.183
  602SOL     OW 3702  14.094  13.917  14.822
  602SOL    HW1 3703  14.144  13.901  14.742
  602SOL    HW2 3704  14.030  13.983  14.797
  603SOL     OW 3705  13.463   4.323   1.229
  603SOL    HW1 3706  13.405   4.368   1.168
  603SOL    HW2 3707  13.411   4.250   1.263
  604SOL     OW 3708   8.537   2.459   0.159
  604SOL    HW1 3709   8.552   2.465   0.254
  604SOL    HW2 3710   8.580   2.538   0.124
  605SOL     OW 3711   6.452   5.786  14.140
  605SOL    HW1 3712   6.501   5.798  14.059
  605SOL    HW2 3713   6.438   5.691  14.145
  606SOL     OW 3714   5.452  14.686  10.827
  606SOL    HW1 3715   5.453  14.733  10.743
  606SOL    HW2 3716   5.538  14.644  10.832
  607SOL     OW 3717   0.939   6.086   0.983
  607SOL    HW1 3718   0.874   6.049   1.043
  607SOL    HW2 3719   0.992   6.011   0.956
  608SOL     OW 3720   2.695   6.323   9.418
  608SOL    HW1 3721   2.695   6.415   9.444
  608SOL    HW2 3722   2.697   6.325   9.322
  609SOL     OW 3723   3.170  13.028   0.614
  609SOL    HW1 3724   3.246  12.993   0.568
  609SOL    HW2 3725   3.126  12.951   0.650
  610SOL     OW 3726   1.683   8.279   5.048
  610SOL    HW1 3727   1.729   8.198   5.030
  610SOL    HW2 3728   1.635   8.261   5.129
  611SOL     OW 3729  11.026   7.150   3.914
  611SOL    HW1 3730  11.118   7.124   3.920
  611SOL    HW2 3731  10.981   7.070   3.886
  612SOL     OW 3732   9.327   3.172  13.574
  612SOL    HW1 3733   9.341   3.250  13.520
  612SOL    HW2 3734   9.410   3.159  13.619
  613SOL     OW 3735   2.817   1.681  14.001
  613SOL    HW1 3736   2.742   1.649  13.950
  613SOL    HW2 3737   2.814   1.776  13.991
  614SOL     OW 3738  11.439  11.678   7.850
  614SOL    HW1 3739  11.455  11.745   7.916
  614SOL    HW2 3740  11.480  11.599   7.885
  615SOL     OW 3741   2.300   6.325   5.520
  615SOL    HW1 3742   2.367   6.314   5.453
  615SOL    HW2 3743   2.252   6.403   5.494
  616SOL     OW 3744   8.965  12.918   0.178
  616SOL    HW1 3745   8.992  12.851   0.240
  616SOL    HW2 3746   8.972  13.000   0.227
  617SOL     OW 3747   8.494   2.219   2.478
  617SOL    HW1 3748   8.586   2.205   2.501
  617SOL    HW2 3749   8.464   2.132   2.451
  618SOL     OW 3750  12.014   9.638   9.886
  618SOL    HW1 3751  12.098   9.616   9.845
  618SOL    HW2 3752  12.030   9.722   9.928
  619SOL     OW 3753   6.147   8.942   2.299
  619SOL    HW1 3754   6.080   8.874   2.305
  619SOL    HW2 3755   6.222   8.906   2.346
  620SOL     OW 3756  11.319  13.836  10.790
  620SOL    HW1 3757  11.383  13.893  10.747
  620SOL    HW2 3758  11.353  13.824  10.879
  621SOL     OW 3759   9.543   5.413   7.816
  621SOL    HW1 3760   9.480   5.436   7.748
  621SOL    HW2 3761   9.496   5.350   7.871
  622SOL     OW 3762  10.694  11.237   7.617
  622SOL    HW1 3763  10.700  11.143   7.597
  622SOL    HW2 3764  10.778  11.273   7.588
  623SOL     OW 3765  12.470   3.607  13.119
  623SOL    HW1 3766  12.560   3.587  13.145
  623SOL    HW2 3767  12.469   3.703  13.112
  624SOL     OW 3768  14.504   1.333   9.038
  624SOL    HW1 3769  14.530   1.424   9.050
  624SOL    HW2 3770  14.549   1.286   9.107
  625SOL     OW 3771   7.996   0.950  11.461
  625SOL    HW1 3772   8.060   1.016  11.435
  625SOL    HW2 3773   7.984   0.896  11.382
  626SOL     OW 3774   2.914  12.292  10.299
  626SOL    HW1 3775   2.992  12.283  10.243
  626SOL    HW2 3776   2.910  12.385  10.319
  627SOL     OW 3777   0.929   9.837  11.388
  627SOL    HW1 3778   0.863   9.906  11.394
  627SOL    HW2 3779   1.013   9.884  11.392
  628SOL     OW 3780   8.533   8.892   9.955
  628SOL    HW1 3781   8.455   8.843   9.981
  628SOL    HW2 3782   8.516   8.981   9.986
  629SOL     OW 3783   9.717  10.139   8.448
  629SOL    HW1 3784   9.692  10.053   8.482
  629SOL    HW2 3785   9.639  10.170   8.401
  630SOL     OW 3786  10.695   6.537   8.517
  630SOL    HW1 3787  10.605   6.538   8.484
  630SOL    HW2 3788  10.724   6.447   8.503
  631SOL     OW 3789   2.416   1.485   5.859
  631SOL    HW1 3790   2.368   1.515   5.782
  631SOL    HW2 3791   2.356   1.423   5.902
  632SOL     OW 3792  12.168   4.058   1.915
  632SOL    HW1 3793  12.106   4.099   1.976
  632SOL    HW2 3794  12.179   4.121   1.845
  633SOL     OW 3795   5.145   8.110   6.763
  633SOL    HW1 3796   5.189   8.030   6.790
  633SOL    HW2 3797   5.089   8.134   6.836
  634SOL     OW 3798   5.141  11.562  10.998
  634SOL    HW1 3799   5.109  11.484  11.043
  634SOL    HW2 3800   5.123  11.546  10.905
  635SOL     OW 3801   2.252   3.958  11.567
  635SOL    HW1 3802   2.293   3.899  11.503
  635SOL    HW2 3803   2.325   3.996  11.615
  636SOL     OW 3804   1.742   5.682  10.632
  636SOL    HW1 3805   1.650   5.672  10.608
  636SOL    HW2 3806   1.756   5.777  10.631
  637SOL     OW 3807   3.515   5.460   5.493
  637SOL    HW1 3808   3.486   5.506   5.572
  637SOL    HW2 3809   3.464   5.379   5.493
  638SOL     OW 3810  13.935  14.245   3.963
  638SOL    HW1 3811  13.887  14.284   3.890
  638SOL    HW2 3812  13.911  14.152   3.961
  639SOL     OW 3813   9.712   2.823   5.661
  639SOL    HW1 3814   9.745   2.791   5.745
  639SOL    HW2 3815   9.697   2.916   5.675
  640SOL     OW 3816   9.743   2.324   6.710
  640SOL    HW1 3817   9.784   2.343   6.794
  640SOL    HW2 3818   9.699   2.406   6.686
  641SOL     OW 3819  12.351  13.060   7.243
  641SOL    HW1 3820  12.337  13.127   7.310
  641SOL    HW2 3821  12.395  12.989   7.289
  642SOL     OW 3822   8.963   9.160   3.825
  642SOL    HW1 3823   8.940   9.071   3.851
  642SOL    HW2 3824   9.050   9.152   3.787
  643SOL     OW 3825   2.064   9.118   4.602
  643SOL    HW1 3826   2.056   9.163   4.686
  643SOL    HW2 3827   2.158   9.101   4.593
  644SOL     OW 3828   1.084  12.314   1.948
  644SOL    HW1 3829   1.129  12.301   2.031
  644SOL    HW2 3830   1.109  12.238   1.895
  645SOL     OW 3831   0.192  10.512   6.448
  645SOL    HW1 3832   0.233  10.598   6.444
  645SOL    HW2 3833   0.222  10.468   6.368
  646SOL     OW 3834   9.486   2.547  13.914
  646SOL    HW1 3835   9.480   2.589  13.828
  646SOL    HW2 3836   9.511   2.457  13.894
  647SOL     OW 3837  14.746   8.548   0.650
  647SOL    HW1 3838  14.673   8.487   0.663
  647SOL    HW2 3839  14.763   8.584   0.738
  648SOL     OW 3840   4.805   0.277  11.192
  648SOL    HW1 3841   4.883   0.258  11.139
  648SOL    HW2 3842   4.829   0.354  11.243
  649SOL     OW 3843   4.091   4.086   0.212
  649SOL    HW1 3844   4.125   4.105   0.125
  649SOL    HW2 3845   4.168   4.090   0.269
  650SOL     OW 3846   8.833   3.112   7.086
  650SOL    HW1 3847   8.880   3.036   7.054
  650SOL    HW2 3848   8.780   3.079   7.159
  651SOL     OW 3849   3.916  12.877   9.725
  651SOL    HW1 3850   3.846  12.816   9.748
  651SOL    HW2 3851   3.992  12.821   9.710
  652SOL     OW 3852   0.195   1.332  12.972
  652SOL    HW1 3853   0.137   1.357  12.900
  652SOL    HW2 3854   0.173   1.394  13.042
  653SOL     OW 3855   4.382   0.445   6.929
  653SOL    HW1 3856   4.473   0.477   6.927
  653SOL    HW2 3857   4.365   0.429   7.022
  654SOL     OW 3858   6.670  10.039  14.768
  654SOL    HW1 3859   6.649  10.003  14.682
  654SOL    HW2 3860   6.605  10.109  14.782
  655SOL     OW 3861  10.966  12.420   9.350
  655SOL    HW1 3862  10.942  12.373   9.429
  655SOL    HW2 3863  10.970  12.512   9.377
  656SOL     OW 3864   1.800  11.583  13.902
  656SOL    HW1 3865   1.749  11.614  13.976
  656SOL    HW2 3866   1.736  11.543  13.843
  657SOL     OW 3867   6.385   7.922  11.783
  657SOL    HW1 3868   6.370   7.935  11.876
  657SOL    HW2 3869   6.460   7.979  11.762
  658SOL     OW 3870   8.967  10.268   1.894
  658SOL    HW1 3871   8.951  10.355   1.932
  658SOL    HW2 3872   8.911  10.209   1.945
  659SOL     OW 3873   4.903   3.387   2.645
  659SOL    HW1 3874   4.834   3.361   2.584
  659SOL    HW2 3875   4.985   3.367   2.599
  660SOL     OW 3876   2.183  13.382  13.189
  660SOL    HW1 3877   2.258  13.411  13.240
  660SOL    HW2 3878   2.213  13.382  13.098
  661SOL     OW 3879   0.621   6.863   6.973
  661SOL    HW1 3880   0.663   6.933   7.024
  661SOL    HW2 3881   0.553   6.829   7.032
  662SOL     OW 3882   6.795  13.476   5.366
  662SOL    HW1 3883   6.845  13.402   5.402
  662SOL    HW2 3884   6.775  13.450   5.276
  663SOL     OW 3885   6.513  12.612   2.426
  663SOL    HW1 3886   6.565  12.615   2.346
  663SOL    HW2 3887   6.535  12.528   2.466
  664SOL     OW 3888   1.869   0.704  11.990
  664SOL    HW1 3889   1.893   0.674  12.078
  664SOL    HW2 3890   1.947   0.688  11.937
  665SOL     OW 3891   7.828   2.920   0.825
  665SOL    HW1 3892   7.839   2.834   0.787
  665SOL    HW2 3893   7.767   2.965   0.766
  666SOL     OW 3894  10.958   8.603  11.633
  666SOL    HW1 3895  10.866   8.581  11.624
  666SOL    HW2 3896  10.959   8.695  11.659
  667SOL     OW 3897   2.618  13.509   0.084
  667SOL    HW1 3898   2.577  13.490   0.169
  667SOL    HW2 3899   2.712  13.512   0.103
  668SOL     OW 3900   0.362   6.331   8.062
  668SOL    HW1 3901   0.364   6.367   7.973
  668SOL    HW2 3902   0.436   6.372   8.106
  669SOL     OW 3903   5.615  13.441  12.306
  669SOL    HW1 3904   5.573  13.395  12.233
  669SOL    HW2 3905   5.624  13.374  12.374
  670SOL     OW 3906   9.990   1.642   1.898
  670SOL    HW1 3907   9.974   1.549   1.878
  670SOL    HW2 3908   9.944   1.689   1.829
  671SOL     OW 3909   0.145  11.587  14.108
  671SOL    HW1 3910   0.167  11.505  14.065
  671SOL    HW2 3911   0.116  11.562  14.196
  672SOL     OW 3912  10.316   9.716   1.249
  672SOL    HW1 3913  10.283   9.761   1.327
  672SOL    HW2 3914  10.410   9.734   1.250
  673SOL     OW 3915   8.886  11.023  11.440
  673SOL    HW1 3916   8.820  11.082  11.477
  673SOL    HW2 3917   8.901  10.957  11.507
  674SOL     OW 3918   9.677   1.499   0.812
  674SOL    HW1 3919   9.673   1.594   0.810
  674SOL    HW2 3920   9.667   1.477   0.905
  675SOL     OW 3921   6.393   1.919   7.844
  675SOL    HW1 3922   6.410   1.867   7.922
  675SOL    HW2 3923   6.477   1.961   7.825
  676SOL     OW 3924   3.801   4.572   3.191
  676SOL    HW1 3925   3.842   4.631   3.254
  676SOL    HW2 3926   3.858   4.495   3.189
  677SOL     OW 3927   0.923   7.545   6.875
  677SOL    HW1 3928   0.854   7.594   6.919
  677SOL    HW2 3929   0.926   7.580   6.787
  678SOL     OW 3930   8.357  11.280  14.673
  678SOL    HW1 3931   8.366  11.374  14.661
  678SOL    HW2 3932   8.267  11.268  14.706
  679SOL     OW 3933   9.516   0.228  13.789
  679SOL    HW1 3934   9.468   0.156  13.749
  679SOL    HW2 3935   9.452   0.299  13.795
  680SOL     OW 3936   6.666   9.189   5.201
  680SOL    HW1 3937   6.728   9.174   5.272
  680SOL    HW2 3938   6.721   9.218   5.128
  681SOL     OW 3939   0.743   7.856   1.913
  681SOL    HW1 3940   0.831   7.830   1.886
  681SOL    HW2 3941   0.755   7.941   1.955
  682SOL     OW 3942   6.110   4.653   5.684
  682SOL    HW1 3943   6.046   4.650   5.755
  682SOL    HW2 3944   6.164   4.729   5.705
  683SOL     OW 3945   0.439  12.563  10.470
  683SOL    HW1 3946   0.470  12.570  10.380
  683SOL    HW2 3947   0.485  12.633  10.517
  684SOL     OW 3948   0.206   5.958   5.185
  684SOL    HW1 3949   0.180   5.874   5.222
  684SOL    HW2 3950   0.250   6.004   5.256
  685SOL     OW 3951   7.785   4.175  12.661
  685SOL    HW1 3952   7.797   4.081  12.672
  685SOL    HW2 3953   7.726   4.201  12.732
  686SOL     OW 3954  12.463   5.913  11.200
  686SOL    HW1 3955  12.382   5.871  11.227
  686SOL    HW2 3956  12.502   5.945  11.282
  687SOL     OW 3957   7.343  13.548  11.120
  687SOL    HW1 3958   7.291  13.526  11.043
  687SOL    HW2 3959   7.384  13.466  11.147
  688SOL     OW 3960   7.423   8.857  13.787
  688SOL    HW1 3961   7.413   8.833  13.880
  688SOL    HW2 3962   7.397   8.778  13.739
  689SOL     OW 3963   1.521   7.643   7.374
  689SOL    HW1 3964   1.610   7.662   7.402
  689SOL    HW2 3965   1.519   7.548   7.362
  690SOL     OW 3966  13.728   0.548  12.540
  690SOL    HW1 3967  13.788   0.605  12.492
  690SOL    HW2 3968  13.652   0.602  12.558
  691SOL     OW 3969   1.458   3.204   3.024
  691SOL    HW1 3970   1.399   3.279   3.016
  691SOL    HW2 3971   1.424   3.140   2.963
  692SOL     OW 3972   0.373   1.420   6.009
  692SOL    HW1 3973   0.340   1.431   6.097
  692SOL    HW2 3974   0.393   1.508   5.979
  693SOL     OW 3975  10.012   3.181   7.731
  693SOL    HW1 3976  10.094   3.161   7.776
  693SOL    HW2 3977  10.032   3.172   7.638
  694SOL     OW 3978   2.151   9.084   2.775
  694SOL    HW1 3979   2.079   9.059   2.832
  694SOL    HW2 3980   2.226   9.094   2.834
  695SOL     OW 3981   8.147   1.861   1.473
  695SOL    HW1 3982   8.062   1.857   1.428
  695SOL    HW2 3983   8.151   1.781   1.524
  696SOL     OW 3984  14.673   1.770  13.971
  696SOL    HW1 3985  14.713   1.846  14.015
  696SOL    HW2 3986  14.746   1.726  13.928
  697SOL     OW 3987   9.739   2.838   7.757
  697SOL    HW1 3988   9.821   2.803   7.791
  697SOL    HW2 3989   9.745   2.827   7.662
  698SOL     OW 3990   8.269   9.691   2.135
  698SOL    HW1 3991   8.351   9.684   2.086
  698SOL    HW2 3992   8.297   9.701   2.226
  699SOL     OW 3993  14.397   3.961  14.348
  699SOL    HW1 3994  14.327   4.015  14.312
  699SOL    HW2 3995  14.355   3.877  14.365
  700SOL     OW 3996   7.395   6.025  14.866
  700SOL    HW1 3997   7.381   6.109  14.824
  700SOL    HW2 3998   7.413   5.964  14.794
  701SOL     OW 3999   7.748   3.236   0.492
  701SOL    HW1 4000   7.750   3.314   0.547
  701SOL    HW2 4001   7.827   3.187   0.516
  702SOL     OW 4002   1.563  11.360   7.598
  702SOL    HW1 4003   1.551  11.286   7.657
  702SOL    HW2 4004   1.548  11.437   7.653
  703SOL     OW 4005  11.597   1.478   1.728
  703SOL    HW1 4006  11.521   1.486   1.785
  703SOL    HW2 4007  11.597   1.558   1.676
  704SOL     OW 4008  11.769   8.817   8.281
  704SOL    HW1 4009  11.714   8.886   8.320
  704SOL    HW2 4010  11.750   8.739   8.334
  705SOL     OW 4011   9.562   9.788   4.260
  705SOL    HW1 4012   9.546   9.866   4.313
  705SOL    HW2 4013   9.656   9.791   4.240
  706SOL     OW 4014  10.240  11.157  12.847
  706SOL    HW1 4015  10.280  11.077  12.812
  706SOL    HW2 4016  10.179  11.126  12.913
  707SOL     OW 4017   8.572   8.774  14.648
  707SOL    HW1 4018   8.600   8.862  14.672
  707SOL    HW2 4019   8.531   8.739  14.728
  708SOL     OW 4020   4.932   1.527  13.459
  708SOL    HW1 4021   4.991   1.548  13.532
  708SOL    HW2 4022   4.935   1.431  13.453
  709SOL     OW 4023  11.930  11.335   5.423
  709SOL    HW1 4024  11.998  11.280   5.462
  709SOL    HW2 4025  11.852  11.280   5.421
  710SOL     OW 4026   7.385   6.013   4.649
  710SOL    HW1 4027   7.328   5.939   4.626
  710SOL    HW2 4028   7.361   6.081   4.586
  711SOL     OW 4029   5.477   9.527  14.422
  711SOL    HW1 4030   5.416   9.600  14.412
  711SOL    HW2 4031   5.421   9.451  14.437
  712SOL     OW 4032   0.673  12.260   1.632
  712SOL    HW1 4033   0.620  12.199   1.683
  712SOL    HW2 4034   0.612  12.328   1.604
  713SOL     OW 4035   4.410   5.568  14.653
  713SOL    HW1 4036   4.487   5.536  14.701
  713SOL    HW2 4037   4.446   5.634  14.593
  714SOL     OW 4038   6.896   8.609   4.171
  714SOL    HW1 4039   6.934   8.606   4.084
  714SOL    HW2 4040   6.803   8.625   4.156
  715SOL     OW 4041   6.934  10.215  13.398
  715SOL    HW1 4042   7.013  10.245  13.443
  715SOL    HW2 4043   6.957  10.215  13.305
  716SOL     OW 4044  12.404   8.265  11.703
  716SOL    HW1 4045  12.397   8.175  11.671
  716SOL    HW2 4046  12.496   8.287  11.691
  717SOL     OW 4047   5.740  13.332   4.434
  717SOL    HW1 4048   5.751  13.396   4.363
  717SOL    HW2 4049   5.772  13.377   4.512
  718SOL     OW 4050   8.349   6.647   8.526
  718SOL    HW1 4051   8.383   6.686   8.607
  718SOL    HW2 4052   8.426   6.608   8.484
  719SOL     OW 4053  14.688   4.911   2.838
  719SOL    HW1 4054  14.714   4.938   2.750
  719SOL    HW2 4055  14.593   4.918   2.838
  720SOL     OW 4056   1.689   2.937  13.406
  720SOL    HW1 4057   1.682   3.021  13.452
  720SOL    HW2 4058   1.778   2.907  13.425
  721SOL     OW 4059   6.809   5.410  14.827
  721SOL    HW1 4060   6.797   5.447  14.740
  721SOL    HW2 4061   6.900   5.430  14.849
  722SOL     OW 4062   2.774   9.269   9.385
  722SOL    HW1 4063   2.704   9.326   9.415
  722SOL    HW2 4064   2.827   9.324   9.327
  723SOL     OW 4065   9.205   3.825   1.168
  723SOL    HW1 4066   9.178   3.769   1.241
  723SOL    HW2 4067   9.301   3.821   1.170
  724SOL     OW 4068   0.999   8.124  11.406
  724SOL    HW1 4069   1.013   8.094  11.316
  724SOL    HW2 4070   0.948   8.053  11.447
  725SOL     OW 4071  11.778   8.371   2.750
  725SOL    HW1 4072  11.731   8.328   2.823
  725SOL    HW2 4073  11.735   8.456   2.741
  726SOL     OW 4074   3.309   0.158   2.628
  726SOL    HW1 4075   3.358   0.129   2.551
  726SOL    HW2 4076   3.283   0.076   2.671
  727SOL     OW 4077   6.807   1.880   0.111
  727SOL    HW1 4078   6.779   1.937   0.039
  727SOL    HW2 4079   6.726   1.841   0.144
  728SOL     OW 4080   3.012   0.219   1.859
  728SOL    HW1 4081   3.031   0.265   1.778
  728SOL    HW2 4082   2.985   0.131   1.831
  729SOL     OW 4083   1.055  10.939   4.550
  729SOL    HW1 4084   1.060  11.030   4.524
  729SOL    HW2 4085   0.964  10.926   4.576
  730SOL     OW 4086  14.499   0.027   8.291
  730SOL    HW1 4087  14.539   0.089   8.352
  730SOL    HW2 4088  14.555   0.028   8.214
  731SOL     OW 4089   5.527   3.139   8.941
  731SOL    HW1 4090   5.555   3.157   8.852
  731SOL    HW2 4091   5.602   3.095   8.982
  732SOL     OW 4092   5.671  10.066   1.222
  732SOL    HW1 4093   5.703   9.992   1.170
  732SOL    HW2 4094   5.698  10.143   1.173
  733SOL     OW 4095  11.900  11.112  12.669
  733SOL    HW1 4096  11.990  11.129  12.696
  733SOL    HW2 4097  11.847  11.156  12.735
  734SOL     OW 4098   9.722   2.789  10.632
  734SOL    HW1 4099   9.749   2.815  10.544
  734SOL    HW2 4100   9.750   2.861  10.688
  735SOL     OW 4101   9.596   3.614   2.728
  735SOL    HW1 4102   9.606   3.686   2.790
  735SOL    HW2 4103   9.565   3.540   2.780
  736SOL     OW 4104   5.818  14.789  10.809
  736SOL    HW1 4105   5.904  14.819  10.779
  736SOL    HW2 4106   5.757  14.854  10.777
  737SOL     OW 4107   9.542   4.426   5.307
  737SOL    HW1 4108   9.447   4.434   5.300
  737SOL    HW2 4109   9.573   4.516   5.319
  738SOL     OW 4110   8.333  14.586  10.277
  738SOL    HW1 4111   8.390  14.545  10.213
  738SOL    HW2 4112   8.294  14.661  10.231
  739SOL     OW 4113  14.388   5.577   4.982
  739SOL    HW1 4114  14.473   5.568   4.940
  739SOL    HW2 4115  14.395   5.659   5.032
  740SOL     OW 4116  13.504   5.435   1.863
  740SOL    HW1 4117  13.463   5.518   1.888
  740SOL    HW2 4118  13.596   5.445   1.887
  741SOL     OW 4119   0.462  13.709   7.381
  741SOL    HW1 4120   0.551  13.679   7.364
  741SOL    HW2 4121   0.456  13.713   7.477
  742SOL     OW 4122   2.493   6.243   0.152
  742SOL    HW1 4123   2.464   6.169   0.205
  742SOL    HW2 4124   2.488   6.318   0.211
  743SOL     OW 4125   1.777   5.727  11.447
  743SOL    HW1 4126   1.860   5.755  11.409
  743SOL    HW2 4127   1.720   5.803  11.441
  744SOL     OW 4128   7.300   3.632  14.703
  744SOL    HW1 4129   7.340   3.681  14.631
  744SOL    HW2 4130   7.222   3.592  14.665
  745SOL     OW 4131  10.906   0.968  12.094
  745SOL    HW1 4132  10.955   0.950  12.014
  745SOL    HW2 4133  10.913   0.888  12.146
  746SOL     OW 4134   3.027   7.609   4.326
  746SOL    HW1 4135   3.098   7.635   4.384
  746SOL    HW2 4136   3.000   7.690   4.283
  747SOL     OW 4137   2.082   6.274   2.048
  747SOL    HW1 4138   2.018   6.218   2.005
  747SOL    HW2 4139   2.166   6.229   2.037
  748SOL     OW 4140   0.653  13.862   1.974
  748SOL    HW1 4141   0.727  13.921   1.957
  748SOL    HW2 4142   0.689  13.775   1.960
  749SOL     OW 4143   8.607   7.636   2.351
  749SOL    HW1 4144   8.554   7.711   2.323
  749SOL    HW2 4145   8.628   7.589   2.270
  750SOL     OW 4146  14.781  14.371   2.766
  750SOL    HW1 4147  14.871  14.348   2.789
  750SOL    HW2 4148  14.788  14.423   2.686
  751SOL     OW 4149   4.278   1.744   7.631
  751SOL    HW1 4150   4.196   1.699   7.610
  751SOL    HW2 4151   4.273   1.760   7.725
  752SOL     OW 4152  11.322   6.324   4.649
  752SOL    HW1 4153  11.382   6.386   4.608
  752SOL    HW2 4154  11.259   6.378   4.697
  753SOL     OW 4155   0.963   9.155  11.266
  753SOL    HW1 4156   1.014   9.197  11.335
  753SOL    HW2 4157   0.910   9.089  11.311
  754SOL     OW 4158   7.225   6.589   4.528
  754SOL    HW1 4159   7.183   6.664   4.487
  754SOL    HW2 4160   7.195   6.514   4.478
  755SOL     OW 4161   5.390  11.286   1.380
  755SOL    HW1 4162   5.424  11.198   1.365
  755SOL    HW2 4163   5.380  11.323   1.293
  756SOL     OW 4164  14.578   2.276  11.423
  756SOL    HW1 4165  14.485   2.284  11.402
  756SOL    HW2 4166  14.588   2.187  11.458
  757SOL     OW 4167  12.944  10.844   8.631
  757SOL    HW1 4168  12.999  10.789   8.687
  757SOL    HW2 4169  13.004  10.878   8.564
  758SOL     OW 4170   9.543   8.155  12.134
  758SOL    HW1 4171   9.498   8.086  12.182
  758SOL    HW2 4172   9.500   8.158  12.049
  759SOL     OW 4173   5.874  12.534  12.766
  759SOL    HW1 4174   5.949  12.587  12.737
  759SOL    HW2 4175   5.904  12.444  12.757
  760SOL     OW 4176  11.528   3.746   4.679
  760SOL    HW1 4177  11.565   3.821   4.726
  760SOL    HW2 4178  11.558   3.670   4.728
  761SOL     OW 4179   3.554   7.296  10.619
  761SOL    HW1 4180   3.515   7.382  10.631
  761SOL    HW2 4181   3.502   7.256  10.549
  762SOL     OW 4182   0.143  13.369   4.785
  762SOL    HW1 4183   0.189  13.434   4.838
  762SOL    HW2 4184   0.120  13.416   4.705
  763SOL     OW 4185   2.675   2.904   8.136
  763SOL    HW1 4186   2.695   2.863   8.052
  763SOL    HW2 4187   2.682   2.833   8.200
  764SOL     OW 4188  13.442  10.221   1.061
  764SOL    HW1 4189  13.401  10.136   1.074
  764SOL    HW2 4190  13.371  10.284   1.073
  765SOL     OW 4191   9.715   7.693   0.227
  765SOL    HW1 4192   9.652   7.761   0.203
  765SOL    HW2 4193   9.708   7.628   0.157
  766SOL     OW 4194   4.783   5.213   7.778
  766SOL    HW1 4195   4.720   5.273   7.739
  766SOL    HW2 4196   4.850   5.270   7.815
  767SOL     OW 4197  10.911  13.418   8.183
  767SOL    HW1 4198  10.873  13.344   8.230
  767SOL    HW2 4199  10.863  13.421   8.100
  768SOL     OW 4200   3.917  11.775  10.323
  768SOL    HW1 4201   3.890  11.826  10.246
  768SOL    HW2 4202   3.925  11.840  10.393
  769SOL     OW 4203   7.516  13.838   1.945
  769SOL    HW1 4204   7.447  13.805   1.888
  769SOL    HW2 4205   7.560  13.760   1.979
  770SOL     OW 4206   6.675   4.056  13.323
  770SOL    HW1 4207   6.631   4.093  13.400
  770SOL    HW2 4208   6.768   4.069  13.339
  771SOL     OW 4209   8.105  14.485   0.342
  771SOL    HW1 4210   8.092  14.518   0.253
  771SOL    HW2 4211   8.156  14.553   0.385
  772SOL     OW 4212  11.136   2.926  12.364
  772SOL    HW1 4213  11.209   2.978  12.330
  772SOL    HW2 4214  11.167   2.836  12.358
  773SOL     OW 4215  13.238   7.980   3.141
  773SOL    HW1 4216  13.211   8.025   3.221
  773SOL    HW2 4217  13.227   7.887   3.162
  774SOL     OW 4218   0.880   1.193   1.071
  774SOL    HW1 4219   0.816   1.264   1.076
  774SOL    HW2 4220   0.841   1.121   1.120
  775SOL     OW 4221   5.685   1.785   9.574
  775SOL    HW1 4222   5.736   1.807   9.496
  775SOL    HW2 4223   5.665   1.869   9.614
  776SOL     OW 4224  13.482  10.313   5.195
  776SOL    HW1 4225  13.460  10.403   5.217
  776SOL    HW2 4226  13.456  10.262   5.271
  777SOL     OW 4227   9.069   8.183   4.255
  777SOL    HW1 4228   9.072   8.092   4.225
  777SOL    HW2 4229   9.158   8.201   4.285
  778SOL     OW 4230  10.986  12.027  13.062
  778SOL    HW1 4231  11.056  12.065  13.008
  778SOL    HW2 4232  10.929  12.101  13.082
  779SOL     OW 4233   6.402  11.278   9.470
  779SOL    HW1 4234   6.361  11.287   9.384
  779SOL    HW2 4235   6.422  11.367   9.498
  780SOL     OW 4236  12.427   1.824   0.192
  780SOL    HW1 4237  12.348   1.830   0.246
  780SOL    HW2 4238  12.400   1.857   0.106
  781SOL     OW 4239  14.042   4.272  14.822
  781SOL    HW1 4240  14.121   4.256  14.875
  781SOL    HW2 4241  14.046   4.365  14.801
  782SOL     OW 4242   2.242  13.407  11.683
  782SOL    HW1 4243   2.270  13.317  11.664
  782SOL    HW2 4244   2.323  13.459  11.675
  783SOL     OW 4245  10.134   1.429   8.696
  783SOL    HW1 4246  10.075   1.358   8.723
  783SOL    HW2 4247  10.106   1.505   8.747
  784SOL     OW 4248   8.223  14.455  10.687
  784SOL    HW1 4249   8.260  14.542  10.675
  784SOL    HW2 4250   8.289  14.396  10.648
  785SOL     OW 4251   5.807   2.797   5.568
  785SOL    HW1 4252   5.863   2.722   5.550
  785SOL    HW2 4253   5.848   2.870   5.523
  786SOL     OW 4254   4.241  13.107   8.158
  786SOL    HW1 4255   4.310  13.094   8.093
  786SOL    HW2 4256   4.173  13.044   8.134
  787SOL     OW 4257  14.558   6.949   8.445
  787SOL    HW1 4258  14.533   6.911   8.530
  787SOL    HW2 4259  14.494   6.914   8.383
  788SOL     OW 4260   0.421   6.479   7.163
  788SOL    HW1 4261   0.488   6.414   7.146
  788SOL    HW2 4262   0.423   6.493   7.257
  789SOL     OW 4263   9.791   8.569  12.951
  789SOL    HW1 4264   9.703   8.605  12.940
  789SOL    HW2 4265   9.776   8.476  12.968
  790SOL     OW 4266   8.856  13.834   8.024
  790SOL    HW1 4267   8.870  13.928   8.015
  790SOL    HW2 4268   8.868  13.798   7.936
  791SOL     OW 4269   3.352   8.312   5.962
  791SOL    HW1 4270   3.349   8.221   5.933
  791SOL    HW2 4271   3.388   8.308   6.050
  792SOL     OW 4272  11.316   7.607   5.753
  792SOL    HW1 4273  11.294   7.540   5.688
  792SOL    HW2 4274  11.411   7.611   5.752
  793SOL     OW 4275   7.294   7.041   0.191
  793SOL    HW1 4276   7.215   7.094   0.176
  793SOL    HW2 4277   7.271   6.954   0.158
  794SOL     OW 4278  12.164   5.718   9.689
  794SOL    HW1 4279  12.231   5.758   9.634
  794SOL    HW2 4280  12.171   5.624   9.672
  795SOL     OW 4281   3.050  13.930   4.077
  795SOL    HW1 4282   3.109  13.863   4.111
  795SOL    HW2 4283   2.965  13.909   4.115
  796SOL     OW 4284   4.936   7.851   4.168
  796SOL    HW1 4285   5.005   7.905   4.130
  796SOL    HW2 4286   4.920   7.890   4.254
  797SOL     OW 4287  14.780   1.284   2.501
  797SOL    HW1 4288  14.751   1.193   2.502
  797SOL    HW2 4289  14.743   1.322   2.580
  798SOL     OW 4290  13.672   9.625   8.949
  798SOL    HW1 4291  13.724   9.645   9.027
  798SOL    HW2 4292  13.614   9.700   8.939
  799SOL     OW 4293   1.467   5.931   1.264
  799SOL    HW1 4294   1.440   5.940   1.172
  799SOL    HW2 4295   1.396   5.881   1.305
  800SOL     OW 4296   8.097   6.193   5.714
  800SOL    HW1 4297   8.122   6.170   5.804
  800SOL    HW2 4298   8.147   6.133   5.659
  801SOL     OW 4299  14.743   2.869   2.226
  801SOL    HW1 4300  14.718   2.931   2.157
  801SOL    HW2 4301  14.836   2.853   2.210
  802SOL     OW 4302   6.650  14.073   6.603
  802SOL    HW1 4303   6.697  14.133   6.545
  802SOL    HW2 4304   6.679  13.986   6.576
  803SOL     OW 4305   6.816   5.881   0.381
  803SOL    HW1 4306   6.833   5.825   0.457
  803SOL    HW2 4307   6.797   5.967   0.419
  804SOL     OW 4308  13.588   0.963  12.445
  804SOL    HW1 4309  13.550   0.877  12.461
  804SOL    HW2 4310  13.552   0.990  12.361
  805SOL     OW 4311  11.662  13.905   0.855
  805SOL    HW1 4312  11.679  13.896   0.761
  805SOL    HW2 4313  11.744  13.936   0.892
  806SOL     OW 4314   4.748   7.039  11.758
  806SOL    HW1 4315   4.827   7.056  11.707
  806SOL    HW2 4316   4.696   6.979  11.704
  807SOL     OW 4317   9.233   4.941   9.191
  807SOL    HW1 4318   9.311   4.996   9.195
  807SOL    HW2 4319   9.160   5.002   9.202
  808SOL     OW 4320  14.347  11.244   8.308
  808SOL    HW1 4321  14.305  11.316   8.261
  808SOL    HW2 4322  14.346  11.271   8.400
  809SOL     OW 4323   0.013  12.410   3.428
  809SOL    HW1 4324   0.079  12.477   3.445
  809SOL    HW2 4325  14.811  12.455   3.443
  810SOL     OW 4326  11.376  14.595   2.466
  810SOL    HW1 4327  11.433  14.590   2.389
  810SOL    HW2 4328  11.295  14.634   2.432
  811SOL     OW 4329  12.623   5.987   2.925
  811SOL    HW1 4330  12.601   6.079   2.940
  811SOL    HW2 4331  12.716   5.988   2.902
  812SOL     OW 4332   3.591  14.681   0.739
  812SOL    HW1 4333   3.561  14.757   0.789
  812SOL    HW2 4334   3.532  14.677   0.664
  813SOL     OW 4335  13.645   7.395   7.353
  813SOL    HW1 4336  13.715   7.397   7.418
  813SOL    HW2 4337  13.608   7.307   7.360
  814SOL     OW 4338  11.289  14.555   2.928
  814SOL    HW1 4339  11.369  14.595   2.894
  814SOL    HW2 4340  11.304  14.461   2.921
  815SOL     OW 4341   9.368  13.079   2.517
  815SOL    HW1 4342   9.283  13.083   2.472
  815SOL    HW2 4343   9.353  13.022   2.592
  816SOL     OW 4344   0.800   3.504  11.613
  816SOL    HW1 4345   0.812   3.544  11.527
  816SOL    HW2 4346   0.880   3.454  11.628
  817SOL     OW 4347   7.561  14.249   1.102
  817SOL    HW1 4348   7.608  14.254   1.019
  817SOL    HW2 4349   7.482  14.198   1.081
  818SOL     OW 4350   4.076  10.937  14.442
  818SOL    HW1 4351   4.008  10.885  14.486
  818SOL    HW2 4352   4.029  10.986  14.375
  819SOL     OW 4353  14.114   0.216   8.360
  819SOL    HW1 4354  14.038   0.191   8.412
  819SOL    HW2 4355  14.168   0.137   8.358
  820SOL     OW 4356   7.863   6.769   2.419
  820SOL    HW1 4357   7.836   6.836   2.357
  820SOL    HW2 4358   7.780   6.740   2.460
  821SOL     OW 4359   1.109   0.331   6.798
  821SOL    HW1 4360   1.171   0.261   6.776
  821SOL    HW2 4361   1.044   0.288   6.854
  822SOL     OW 4362  13.765   2.883   6.829
  822SOL    HW1 4363  13.714   2.954   6.790
  822SOL    HW2 4364  13.747   2.890   6.923
  823SOL     OW 4365   8.630  12.098   3.055
  823SOL    HW1 4366   8.672  12.170   3.007
  823SOL    HW2 4367   8.702  12.057   3.103
  824SOL     OW 4368   1.215   0.124   2.816
  824SOL    HW1 4369   1.258   0.038   2.815
  824SOL    HW2 4370   1.152   0.118   2.888
  825SOL     OW 4371  13.902   0.461   4.461
  825SOL    HW1 4372  13.888   0.547   4.421
  825SOL    HW2 4373  13.813   0.427   4.474
  826SOL     OW 4374   3.126  10.128   1.379
  826SOL    HW1 4375   3.183  10.160   1.450
  826SOL    HW2 4376   3.071  10.062   1.420
  827SOL     OW 4377   8.501   3.398   0.970
  827SOL    HW1 4378   8.517   3.462   1.039
  827SOL    HW2 4379   8.414   3.421   0.936
  828SOL     OW 4380  12.092   9.337  10.086
  828SOL    HW1 4381  12.065   9.428  10.100
  828SOL    HW2 4382  12.173   9.343  10.036
  829SOL     OW 4383  10.827   5.935   8.449
  829SOL    HW1 4384  10.919   5.961   8.450
  829SOL    HW2 4385  10.782   6.008   8.491
  830SOL     OW 4386  13.149   2.604   0.238
  830SOL    HW1 4387  13.217   2.556   0.191
  830SOL    HW2 4388  13.130   2.549   0.314
  831SOL     OW 4389   8.809   5.952   7.912
  831SOL    HW1 4390   8.763   5.869   7.919
  831SOL    HW2 4391   8.766   6.009   7.977
  832SOL     OW 4392   6.634   6.739  13.323
  832SOL    HW1 4393   6.560   6.777  13.370
  832SOL    HW2 4394   6.704   6.736  13.388
  833SOL     OW 4395   2.416   5.335   8.277
  833SOL    HW1 4396   2.446   5.251   8.242
  833SOL    HW2 4397   2.463   5.400   8.225
  834SOL     OW 4398  12.717  12.014  13.441
  834SOL    HW1 4399  12.663  12.083  13.481
  834SOL    HW2 4400  12.670  11.991  13.361
  835SOL     OW 4401   4.007  12.240  14.627
  835SOL    HW1 4402   4.011  12.330  14.596
  835SOL    HW2 4403   4.038  12.243  14.717
  836SOL     OW 4404   6.696  10.820  10.314
  836SOL    HW1 4405   6.647  10.746  10.277
  836SOL    HW2 4406   6.733  10.865  10.239
  837SOL     OW 4407   4.563  14.156  10.528
  837SOL    HW1 4408   4.511  14.225  10.487
  837SOL    HW2 4409   4.586  14.097  10.456
  838SOL     OW 4410  12.832   0.210   2.284
  838SOL    HW1 4411  12.754   0.248   2.244
  838SOL    HW2 4412  12.855   0.270   2.354
  839SOL     OW 4413  11.847   8.216  13.095
  839SOL    HW1 4414  11.887   8.303  13.100
  839SOL    HW2 4415  11.811   8.212  13.006
  840SOL     OW 4416   3.200  13.682  12.808
  840SOL    HW1 4417   3.152  13.749  12.760
  840SOL    HW2 4418   3.155  13.600  12.785
  841SOL     OW 4419   4.502  12.079  10.314
  841SOL    HW1 4420   4.571  12.020  10.284
  841SOL    HW2 4421   4.471  12.123  10.235
  842SOL     OW 4422   1.327   0.918   6.981
  842SOL    HW1 4423   1.330   0.877   6.894
  842SOL    HW2 4424   1.341   1.011   6.965
  843SOL     OW 4425  14.668   1.568   2.260
  843SOL    HW1 4426  14.629   1.493   2.306
  843SOL    HW2 4427  14.605   1.638   2.270
  844SOL     OW 4428  11.259   0.901   5.771
  844SOL    HW1 4429  11.274   0.924   5.679
  844SOL    HW2 4430  11.183   0.843   5.769
  845SOL     OW 4431   9.375   0.212   7.701
  845SOL    HW1 4432   9.444   0.191   7.637
  845SOL    HW2 4433   9.338   0.294   7.670
  846SOL     OW 4434  11.762   9.297   0.975
  846SOL    HW1 4435  11.777   9.356   1.049
  846SOL    HW2 4436  11.790   9.211   1.007
  847SOL     OW 4437   8.837   4.834   8.048
  847SOL    HW1 4438   8.852   4.872   8.134
  847SOL    HW2 4439   8.827   4.910   7.990
  848SOL     OW 4440  11.238  14.647  13.832
  848SOL    HW1 4441  11.241  14.736  13.865
  848SOL    HW2 4442  11.275  14.594  13.903
  849SOL     OW 4443  10.343  12.179  13.004
  849SOL    HW1 4444  10.361  12.091  12.971
  849SOL    HW2 4445  10.285  12.166  13.078
  850SOL     OW 4446   0.786   2.614   9.461
  850SOL    HW1 4447   0.709   2.671   9.466
  850SOL    HW2 4448   0.801   2.602   9.367
  851SOL     OW 4449  14.222   1.153   7.201
  851SOL    HW1 4450  14.302   1.204   7.196
  851SOL    HW2 4451  14.202   1.130   7.110
  852SOL     OW 4452   5.411   7.640   2.386
  852SOL    HW1 4453   5.420   7.549   2.357
  852SOL    HW2 4454   5.343   7.638   2.453
  853SOL     OW 4455  10.731   0.860  10.605
  853SOL    HW1 4456  10.688   0.909  10.675
  853SOL    HW2 4457  10.775   0.926  10.552
  854SOL     OW 4458   1.939  10.412  14.143
  854SOL    HW1 4459   1.954  10.407  14.049
  854SOL    HW2 4460   1.878  10.485  14.154
  855SOL     OW 4461  12.080   6.385  11.625
  855SOL    HW1 4462  12.093   6.476  11.652
  855SOL    HW2 4463  12.157   6.365  11.571
  856SOL     OW 4464   9.267   5.441   2.114
  856SOL    HW1 4465   9.225   5.517   2.153
  856SOL    HW2 4466   9.293   5.387   2.188
  857SOL     OW 4467   9.223  13.587   9.326
  857SOL    HW1 4468   9.270  13.625   9.401
  857SOL    HW2 4469   9.266  13.625   9.250
  858SOL     OW 4470  12.198  13.632   7.173
  858SOL    HW1 4471  12.105  13.654   7.165
  858SOL    HW2 4472  12.233  13.641   7.084
  859SOL     OW 4473   9.002   3.264   3.293
  859SOL    HW1 4474   9.062   3.337   3.309
  859SOL    HW2 4475   8.921   3.290   3.338
  860SOL     OW 4476   6.631   1.502   8.576
  860SOL    HW1 4477   6.660   1.512   8.666
  860SOL    HW2 4478   6.576   1.424   8.577
  861SOL     OW 4479  14.492  10.229   5.210
  861SOL    HW1 4480  14.545  10.154   5.185
  861SOL    HW2 4481  14.544  10.305   5.182
  862SOL     OW 4482   8.027   4.629  12.993
  862SOL    HW1 4483   8.031   4.717  13.032
  862SOL    HW2 4484   8.052   4.570  13.064
  863SOL     OW 4485   8.344   4.746  10.637
  863SOL    HW1 4486   8.430   4.731  10.598
  863SOL    HW2 4487   8.361   4.802  10.712
  864SOL     OW 4488   5.343  11.363   0.090
  864SOL    HW1 4489   5.420  11.419   0.081
  864SOL    HW2 4490   5.275  11.407   0.041
  865SOL     OW 4491  13.377   6.025  12.195
  865SOL    HW1 4492  13.288   6.002  12.165
  865SOL    HW2 4493  13.426   5.943  12.187
  866SOL     OW 4494  11.227   6.168  10.886
  866SOL    HW1 4495  11.134   6.157  10.906
  866SOL    HW2 4496  11.230   6.244  10.829
  867SOL     OW 4497   0.105   3.888  12.644
  867SOL    HW1 4498   0.185   3.835  12.653
  867SOL    HW2 4499   0.135   3.968  12.601
  868SOL     OW 4500   3.280   2.065  13.582
  868SOL    HW1 4501   3.236   2.001  13.638
  868SOL    HW2 4502   3.211   2.124  13.553
  869SOL     OW 4503  12.763   1.207   1.126
  869SOL    HW1 4504  12.824   1.185   1.197
  869SOL    HW2 4505  12.780   1.299   1.108
  870SOL     OW 4506   9.112   8.942  10.314
  870SOL    HW1 4507   9.031   8.904  10.348
  870SOL    HW2 4508   9.164   8.964  10.392
  871SOL     OW 4509   2.355  13.590  12.304
  871SOL    HW1 4510   2.307  13.668  12.274
  871SOL    HW2 4511   2.440  13.597  12.261
  872SOL     OW 4512  12.634   6.407   1.151
  872SOL    HW1 4513  12.581   6.487   1.150
  872SOL    HW2 4514  12.684   6.411   1.070
  873SOL     OW 4515   4.825   5.515  11.927
  873SOL    HW1 4516   4.807   5.553  11.842
  873SOL    HW2 4517   4.888   5.575  11.968
  874SOL     OW 4518   6.933   2.673  10.613
  874SOL    HW1 4519   6.975   2.617  10.548
  874SOL    HW2 4520   6.840   2.648  10.610
  875SOL     OW 4521   2.937  10.765   1.830
  875SOL    HW1 4522   2.966  10.689   1.880
  875SOL    HW2 4523   2.890  10.727   1.755
  876SOL     OW 4524   4.050   4.528   2.274
  876SOL    HW1 4525   3.965   4.491   2.296
  876SOL    HW2 4526   4.081   4.568   2.355
  877SOL     OW 4527  13.271   9.396   0.489
  877SOL    HW1 4528  13.236   9.454   0.422
  877SOL    HW2 4529  13.352   9.438   0.517
  878SOL     OW 4530   3.550  14.829   6.385
  878SOL    HW1 4531   3.477  14.786   6.429
  878SOL    HW2 4532   3.512  14.864   6.304
  879SOL     OW 4533  13.268   6.311   4.847
  879SOL    HW1 4534  13.346   6.361   4.873
  879SOL    HW2 4535  13.213   6.376   4.802
  880SOL     OW 4536   7.657   1.652   6.271
  880SOL    HW1 4537   7.730   1.686   6.219
  880SOL    HW2 4538   7.607   1.730   6.295
  881SOL     OW 4539   4.914   9.751   2.045
  881SOL    HW1 4540   4.900   9.719   2.133
  881SOL    HW2 4541   4.977   9.823   2.055
  882SOL     OW 4542   4.662   5.029   3.645
  882SOL    HW1 4543   4.624   4.964   3.703
  882SOL    HW2 4544   4.681   5.104   3.702
  883SOL     OW 4545   5.862   6.749   7.354
  883SOL    HW1 4546   5.951   6.763   7.321
  883SOL    HW2 4547   5.872   6.689   7.427
  884SOL     OW 4548   2.950   8.676   6.393
  884SOL    HW1 4549   2.876   8.666   6.452
  884SOL    HW2 4550   2.956   8.771   6.379
  885SOL     OW 4551   7.695   6.303  13.656
  885SOL    HW1 4552   7.626   6.368  13.640
  885SOL    HW2 4553   7.655   6.219  13.632
  886SOL     OW 4554   9.155   2.924   1.487
  886SOL    HW1 4555   9.083   2.868   1.459
  886SOL    HW2 4556   9.232   2.887   1.443
  887SOL     OW 4557   5.590   0.065   9.001
  887SOL    HW1 4558   5.535   0.091   9.075
  887SOL    HW2 4559   5.629   0.147   8.971
  888SOL     OW 4560   7.406   7.182  14.494
  888SOL    HW1 4561   7.338   7.138  14.442
  888SOL    HW2 4562   7.450   7.239  14.432
  889SOL     OW 4563  10.825   4.478  11.285
  889SOL    HW1 4564  10.846   4.397  11.238
  889SOL    HW2 4565  10.729   4.477  11.293
  890SOL     OW 4566   1.939  10.533  14.745
  890SOL    HW1 4567   1.972  10.618  14.715
  890SOL    HW2 4568   1.861  10.554  14.797
  891SOL     OW 4569   2.409   4.085   6.694
  891SOL    HW1 4570   2.318   4.056   6.687
  891SOL    HW2 4571   2.411   4.141   6.771
  892SOL     OW 4572   3.486   4.015  10.285
  892SOL    HW1 4573   3.412   4.074  10.302
  892SOL    HW2 4574   3.455   3.930  10.315
  893SOL     OW 4575   5.680   7.117   4.441
  893SOL    HW1 4576   5.639   7.085   4.361
  893SOL    HW2 4577   5.700   7.209   4.424
  894SOL     OW 4578  13.952  10.236   2.887
  894SOL    HW1 4579  13.906  10.319   2.898
  894SOL    HW2 4580  13.887  10.178   2.847
  895SOL     OW 4581  14.629  10.387   6.617
  895SOL    HW1 4582  14.682  10.381   6.697
  895SOL    HW2 4583  14.692  10.379   6.546
  896SOL     OW 4584   8.482   2.554   9.219
  896SOL    HW1 4585   8.420   2.621   9.247
  896SOL    HW2 4586   8.541   2.544   9.294
  897SOL     OW 4587   5.475   5.834   9.675
  897SOL    HW1 4588   5.517   5.919   9.691
  897SOL    HW2 4589   5.500   5.812   9.586
  898SOL     OW 4590  13.335   3.449  13.343
  898SOL    HW1 4591  13.372   3.523  13.392
  898SOL    HW2 4592  13.412   3.395  13.323
  899SOL     OW 4593   8.146   1.395  14.251
  899SOL    HW1 4594   8.206   1.446  14.306
  899SOL    HW2 4595   8.130   1.450  14.175
  900SOL     OW 4596   7.742   2.479   3.766
  900SOL    HW1 4597   7.791   2.437   3.836
  900SOL    HW2 4598   7.720   2.566   3.800
  901SOL     OW 4599   6.719   6.446   6.492
  901SOL    HW1 4600   6.724   6.451   6.396
  901SOL    HW2 4601   6.809   6.432   6.520
  902SOL     OW 4602   7.922  11.028   6.358
  902SOL    HW1 4603   7.972  11.034   6.440
  902SOL    HW2 4604   7.916  10.934   6.341
  903SOL     OW 4605  13.928  11.596   5.555
  903SOL    HW1 4606  14.005  11.592   5.612
  903SOL    HW2 4607  13.963  11.621   5.470
  904SOL     OW 4608   2.398   1.321  10.598
  904SOL    HW1 4609   2.471   1.350  10.543
  904SOL    HW2 4610   2.433   1.321  10.687
  905SOL     OW 4611   5.291  13.808   3.076
  905SOL    HW1 4612   5.302  13.773   2.988
  905SOL    HW2 4613   5.354  13.880   3.082
  906SOL     OW 4614   0.011  14.690   8.254
  906SOL    HW1 4615   0.098  14.651   8.260
  906SOL    HW2 4616   0.017  14.749   8.178
  907SOL     OW 4617   1.553   0.843   0.220
  907SOL    HW1 4618   1.559   0.936   0.198
  907SOL    HW2 4619   1.465   0.832   0.254
  908SOL     OW 4620  11.675   9.745   3.572
  908SOL    HW1 4621  11.770   9.755   3.581
  908SOL    HW2 4622  11.643   9.739   3.662
  909SOL     OW 4623   8.007   2.606   8.605
  909SOL    HW1 4624   7.994   2.694   8.642
  909SOL    HW2 4625   7.982   2.547   8.675
  910SOL     OW 4626   8.136   3.119  14.606
  910SOL    HW1 4627   8.046   3.121  14.572
  910SOL    HW2 4628   8.189   3.093  14.531
  911SOL     OW 4629  14.120   0.755   4.666
  911SOL    HW1 4630  14.123   0.661   4.683
  911SOL    HW2 4631  14.072   0.763   4.584
  912SOL     OW 4632   4.928  13.902   1.156
  912SOL    HW1 4633   4.841  13.894   1.116
  912SOL    HW2 4634   4.942  13.817   1.198
  913SOL     OW 4635   0.123   1.121   4.333
  913SOL    HW1 4636   0.196   1.108   4.273
  913SOL    HW2 4637   0.045   1.122   4.277
  914SOL     OW 4638   5.783   0.856   1.823
  914SOL    HW1 4639   5.733   0.891   1.898
  914SOL    HW2 4640   5.867   0.831   1.861
  915SOL     OW 4641   1.625   3.178  14.139
  915SOL    HW1 4642   1.656   3.266  14.162
  915SOL    HW2 4643   1.665   3.120  14.204
  916SOL     OW 4644   2.415  11.594   6.787
  916SOL    HW1 4645   2.403  11.579   6.693
  916SOL    HW2 4646   2.376  11.680   6.802
  917SOL     OW 4647  12.496  10.817   5.910
  917SOL    HW1 4648  12.475  10.910   5.903
  917SOL    HW2 4649  12.413  10.772   5.891
  918SOL     OW 4650   2.251   9.694   7.700
  918SOL    HW1 4651   2.207   9.779   7.708
  918SOL    HW2 4652   2.179   9.632   7.684
  919SOL     OW 4653   2.003   0.882  14.530
  919SOL    HW1 4654   1.925   0.935  14.513
  919SOL    HW2 4655   1.968   0.798  14.562
  920SOL     OW 4656   6.807   8.288   4.086
  920SOL    HW1 4657   6.863   8.347   4.137
  920SOL    HW2 4658   6.839   8.298   3.996
  921SOL     OW 4659   2.630   1.539   9.452
  921SOL    HW1 4660   2.725   1.553   9.445
  921SOL    HW2 4661   2.591   1.617   9.412
  922SOL     OW 4662   8.670   6.195   0.730
  922SOL    HW1 4663   8.645   6.286   0.744
  922SOL    HW2 4664   8.757   6.200   0.690
  923SOL     OW 4665  12.922  12.309   3.063
  923SOL    HW1 4666  12.996  12.254   3.090
  923SOL    HW2 4667  12.943  12.335   2.973
  924SOL     OW 4668  10.282   0.828   7.268
  924SOL    HW1 4669  10.366   0.862   7.239
  924SOL    HW2 4670  10.285   0.835   7.364
  925SOL     OW 4671   2.186   5.471   5.580
  925SOL    HW1 4672   2.199   5.525   5.502
  925SOL    HW2 4673   2.147   5.390   5.547
  926SOL     OW 4674   3.446  11.185   4.141
  926SOL    HW1 4675   3.378  11.253   4.146
  926SOL    HW2 4676   3.491  11.191   4.225
  927SOL     OW 4677  11.482   0.934  13.270
  927SOL    HW1 4678  11.483   0.851  13.316
  927SOL    HW2 4679  11.559   0.981  13.303
  928SOL     OW 4680   1.784   6.554   2.364
  928SOL    HW1 4681   1.880   6.549   2.367
  928SOL    HW2 4682   1.766   6.619   2.296
  929SOL     OW 4683  11.555  12.480   8.177
  929SOL    HW1 4684  11.597  12.451   8.096
  929SOL    HW2 4685  11.546  12.400   8.229
  930SOL     OW 4686  10.574   0.249   6.085
  930SOL    HW1 4687  10.586   0.297   6.003
  930SOL    HW2 4688  10.565   0.318   6.151
  931SOL     OW 4689   9.781  13.538   5.678
  931SOL    HW1 4690   9.823  13.499   5.755
  931SOL    HW2 4691   9.843  13.526   5.607
  932SOL     OW 4692  11.165   3.844  13.854
  932SOL    HW1 4693  11.081   3.824  13.812
  932SOL    HW2 4694  11.179   3.937  13.836
  933SOL     OW 4695  12.797  12.359   6.798
  933SOL    HW1 4696  12.744  12.396   6.868
  933SOL    HW2 4697  12.804  12.429   6.733
  934SOL     OW 4698   4.007  11.717   3.750
  934SOL    HW1 4699   3.987  11.633   3.707
  934SOL    HW2 4700   4.056  11.692   3.828
  935SOL     OW 4701   1.752   6.802  12.706
  935SOL    HW1 4702   1.703   6.881  12.731
  935SOL    HW2 4703   1.693   6.730  12.725
  936SOL     OW 4704   4.190   9.378  10.950
  936SOL    HW1 4705   4.283   9.365  10.970
  936SOL    HW2 4706   4.167   9.303  10.895
  937SOL     OW 4707  11.528  12.378  13.430
  937SOL    HW1 4708  11.604  12.369  13.373
  937SOL    HW2 4709  11.505  12.288  13.454
  938SOL     OW 4710  13.239   6.798  13.435
  938SOL    HW1 4711  13.250   6.772  13.527
  938SOL    HW2 4712  13.286   6.881  13.428
  939SOL     OW 4713  12.950   1.638   6.309
  939SOL    HW1 4714  12.961   1.605   6.398
  939SOL    HW2 4715  12.855   1.645   6.298
  940SOL     OW 4716  13.085   8.578   2.505
  940SOL    HW1 4717  13.150   8.553   2.570
  940SOL    HW2 4718  13.048   8.660   2.538
  941SOL     OW 4719   5.845  14.159   5.925
  941SOL    HW1 4720   5.840  14.255   5.932
  941SOL    HW2 4721   5.762  14.128   5.961
  942SOL     OW 4722   6.568   3.541   2.561
  942SOL    HW1 4723   6.592   3.448   2.553
  942SOL    HW2 4724   6.537   3.550   2.651
  943SOL     OW 4725   1.937  12.245   1.764
  943SOL    HW1 4726   1.841  12.242   1.762
  943SOL    HW2 4727   1.961  12.274   1.676
  944SOL     OW 4728  13.900   2.808   3.494
  944SOL    HW1 4729  13.831   2.799   3.560
  944SOL    HW2 4730  13.857   2.789   3.411
  945SOL     OW 4731  12.276   6.372  12.521
  945SOL    HW1 4732  12.220   6.417  12.584
  945SOL    HW2 4733  12.239   6.396  12.436
  946SOL     OW 4734   6.659  13.063  14.351
  946SOL    HW1 4735   6.734  13.121  14.339
  946SOL    HW2 4736   6.614  13.097  14.428
  947SOL     OW 4737  14.196   8.317   6.844
  947SOL    HW1 4738  14.128   8.330   6.777
  947SOL    HW2 4739  14.147   8.288   6.921
  948SOL     OW 4740   1.236  13.342   1.969
  948SOL    HW1 4741   1.153  13.386   1.954
  948SOL    HW2 4742   1.290  13.366   1.893
  949SOL     OW 4743   9.431  13.144  14.068
  949SOL    HW1 4744   9.364  13.211  14.078
  949SOL    HW2 4745   9.497  13.184  14.012
  950SOL     OW 4746   1.660   7.897  12.312
  950SOL    HW1 4747   1.653   7.976  12.258
  950SOL    HW2 4748   1.573   7.858  12.308
  951SOL     OW 4749   1.473   8.449   9.909
  951SOL    HW1 4750   1.549   8.453   9.967
  951SOL    HW2 4751   1.490   8.374   9.852
  952SOL     OW 4752   7.741  13.615   7.088
  952SOL    HW1 4753   7.733  13.559   7.165
  952SOL    HW2 4754   7.667  13.676   7.095
  953SOL     OW 4755   0.500   4.971   9.593
  953SOL    HW1 4756   0.427   5.028   9.568
  953SOL    HW2 4757   0.470   4.883   9.573
  954SOL     OW 4758   0.085  14.113   3.232
  954SOL    HW1 4759   0.023  14.043   3.253
  954SOL    HW2 4760   0.167  14.085   3.273
  955SOL     OW 4761   0.352   3.672   6.101
  955SOL    HW1 4762   0.274   3.654   6.153
  955SOL    HW2 4763   0.417   3.703   6.164
  956SOL     OW 4764   5.765   5.905   8.823
  956SOL    HW1 4765   5.771   5.952   8.907
  956SOL    HW2 4766   5.681   5.933   8.786
  957SOL     OW 4767   2.173   7.831   5.635
  957SOL    HW1 4768   2.234   7.812   5.563
  957SOL    HW2 4769   2.230   7.852   5.709
  958SOL     OW 4770   6.078   5.158  11.583
  958SOL    HW1 4771   6.150   5.221  11.573
  958SOL    HW2 4772   6.004   5.210  11.614
  959SOL     OW 4773  13.698   5.893  14.841
  959SOL    HW1 4774  13.706   5.938  14.757
  959SOL    HW2 4775  13.682   5.801  14.818
  960SOL     OW 4776  11.550  11.276   4.240
  960SOL    HW1 4777  11.643  11.290   4.259
  960SOL    HW2 4778  11.511  11.253   4.325
  961SOL     OW 4779   0.483  10.998  10.952
  961SOL    HW1 4780   0.571  10.980  10.985
  961SOL    HW2 4781   0.426  10.981  11.027
  962SOL     OW 4782   9.313   4.926   1.537
  962SOL    HW1 4783   9.256   4.849   1.534
  962SOL    HW2 4784   9.373   4.914   1.464
  963SOL     OW 4785   0.428  11.326  10.615
  963SOL    HW1 4786   0.401  11.240  10.648
  963SOL    HW2 4787   0.412  11.386  10.687
  964SOL     OW 4788   2.289   8.749   2.724
  964SOL    HW1 4789   2.380   8.731   2.748
  964SOL    HW2 4790   2.242   8.745   2.807
  965SOL     OW 4791   5.400  10.697   3.028
  965SOL    HW1 4792   5.371  10.705   2.937
  965SOL    HW2 4793   5.493  10.716   3.025
  966SOL     OW 4794   0.406   1.038  14.376
  966SOL    HW1 4795   0.360   0.962  14.411
  966SOL    HW2 4796   0.483   1.002  14.333
  967SOL     OW 4797   2.259   2.773   5.642
  967SOL    HW1 4798   2.333   2.727   5.603
  967SOL    HW2 4799   2.230   2.715   5.713
  968SOL     OW 4800   9.734  10.175   5.522
  968SOL    HW1 4801   9.650  10.129   5.530
  968SOL    HW2 4802   9.713  10.253   5.470
  969SOL     OW 4803   5.267   2.142   9.018
  969SOL    HW1 4804   5.327   2.106   9.084
  969SOL    HW2 4805   5.240   2.227   9.055
  970SOL     OW 4806   1.965   5.095   1.842
  970SOL    HW1 4807   2.055   5.068   1.822
  970SOL    HW2 4808   1.912   5.051   1.776
  971SOL     OW 4809   6.883   8.010   5.546
  971SOL    HW1 4810   6.851   8.089   5.591
  971SOL    HW2 4811   6.804   7.956   5.535
  972SOL     OW 4812   5.648   4.261  11.335
  972SOL    HW1 4813   5.610   4.187  11.288
  972SOL    HW2 4814   5.722   4.288  11.280
  973SOL     OW 4815   0.381   7.443  13.681
  973SOL    HW1 4816   0.315   7.379  13.707
  973SOL    HW2 4817   0.433   7.457  13.760
  974SOL     OW 4818   1.710   2.965   8.496
  974SOL    HW1 4819   1.778   2.953   8.562
  974SOL    HW2 4820   1.631   2.930   8.537
  975SOL     OW 4821   3.680   9.988   9.663
  975SOL    HW1 4822   3.712   9.972   9.751
  975SOL    HW2 4823   3.592   9.950   9.662
  976SOL     OW 4824   7.207   5.468  13.745
  976SOL    HW1 4825   7.160   5.536  13.696
  976SOL    HW2 4826   7.299   5.481  13.721
  977SOL     OW 4827   8.029  13.963   2.767
  977SOL    HW1 4828   7.999  14.028   2.831
  977SOL    HW2 4829   8.107  14.003   2.727
  978SOL     OW 4830   3.929  10.252   7.584
  978SOL    HW1 4831   3.968  10.237   7.670
  978SOL    HW2 4832   3.836  10.268   7.602
  979SOL     OW 4833   5.458  12.640   3.219
  979SOL    HW1 4834   5.425  12.623   3.131
  979SOL    HW2 4835   5.403  12.712   3.251
  980SOL     OW 4836   8.978  14.062   5.593
  980SOL    HW1 4837   9.031  13.991   5.556
  980SOL    HW2 4838   8.888  14.040   5.567
  981SOL     OW 4839  12.015  10.441  13.711
  981SOL    HW1 4840  11.951  10.489  13.765
  981SOL    HW2 4841  12.094  10.439  13.765
  982SOL     OW 4842  13.343  12.989  10.211
  982SOL    HW1 4843  13.259  12.998  10.167
  982SOL    HW2 4844  13.368  13.078  10.235
  983SOL     OW 4845   6.694  13.583   8.636
  983SOL    HW1 4846   6.672  13.518   8.569
  983SOL    HW2 4847   6.681  13.667   8.593
  984SOL     OW 4848  11.021   8.031   6.236
  984SOL    HW1 4849  11.027   8.123   6.212
  984SOL    HW2 4850  11.083   8.021   6.309
  985SOL     OW 4851  10.040   5.561  13.430
  985SOL    HW1 4852  10.052   5.471  13.461
  985SOL    HW2 4853  10.120   5.580  13.380
  986SOL     OW 4854   3.073   4.968  14.618
  986SOL    HW1 4855   3.070   4.906  14.545
  986SOL    HW2 4856   2.982   4.974  14.647
  987SOL     OW 4857   7.468  12.243   7.830
  987SOL    HW1 4858   7.458  12.178   7.899
  987SOL    HW2 4859   7.392  12.301   7.839
  988SOL     OW 4860  13.092   0.761   5.017
  988SOL    HW1 4861  13.026   0.769   4.948
  988SOL    HW2 4862  13.093   0.668   5.040
  989SOL     OW 4863  11.252  13.569   7.402
  989SOL    HW1 4864  11.314  13.642   7.411
  989SOL    HW2 4865  11.245  13.555   7.308
  990SOL     OW 4866   0.752   8.369  10.275
  990SOL    HW1 4867   0.803   8.436  10.321
  990SOL    HW2 4868   0.674   8.357  10.328
  991SOL     OW 4869   5.785  11.251  12.800
  991SOL    HW1 4870   5.789  11.347  12.805
  991SOL    HW2 4871   5.717  11.226  12.862
  992SOL     OW 4872   4.515   3.353   5.197
  992SOL    HW1 4873   4.454   3.366   5.269
  992SOL    HW2 4874   4.487   3.416   5.130
  993SOL     OW 4875   9.771   9.103   3.668
  993SOL    HW1 4876   9.838   9.137   3.727
  993SOL    HW2 4877   9.816   9.086   3.586
  994SOL     OW 4878  13.211   8.428  12.491
  994SOL    HW1 4879  13.180   8.518  12.480
  994SOL    HW2 4880  13.147   8.388  12.550
  995SOL     OW 4881   0.114  11.568  13.310
  995SOL    HW1 4882   0.071  11.605  13.233
  995SOL    HW2 4883   0.055  11.498  13.340
  996SOL     OW 4884  12.720  13.370  14.183
  996SOL    HW1 4885  12.688  13.459  14.169
  996SOL    HW2 4886  12.749  13.341  14.096
  997SOL     OW 4887  13.361  11.836  10.277
  997SOL    HW1 4888  13.435  11.872  10.227
  997SOL    HW2 4889  13.381  11.743  10.286
  998SOL     OW 4890   7.340   6.217   9.604
  998SOL    HW1 4891   7.253   6.256   9.605
  998SOL    HW2 4892   7.379   6.242   9.688
  999SOL     OW 4893   0.243   7.323  14.053
  999SOL    HW1 4894   0.183   7.272  14.107
  999SOL    HW2 4895   0.196   7.334  13.970
 1000SOL     OW 4896   8.527  14.033   5.705
 1000SOL    HW1 4897   8.441  14.016   5.668
 1000SOL    HW2 4898   8.524  13.994   5.792
 1001SOL     OW 4899   5.226  14.260  12.526
 1001SOL    HW1 4900   5.154  14.283  12.584
 1001SOL    HW2 4901   5.200  14.176  12.487
 1002SOL     OW 4902   3.275   1.753   2.412
 1002SOL    HW1 4903   3.285   1.658   2.416
 1002SOL    HW2 4904   3.229   1.776   2.492
 1003SOL     OW 4905  11.681   3.754  12.390
 1003SOL    HW1 4906  11.769   3.780  12.362
 1003SOL    HW2 4907  11.675   3.661  12.368
 1004SOL     OW 4908   5.825   9.971   5.195
 1004SOL    HW1 4909   5.774  10.050   5.179
 1004SOL    HW2 4910   5.916  10.000   5.192
 1005SOL     OW 4911   9.851   2.361   7.279
 1005SOL    HW1 4912   9.807   2.442   7.304
 1005SOL    HW2 4913   9.898   2.334   7.359
 1006SOL     OW 4914   3.604  13.093   7.759
 1006SOL    HW1 4915   3.631  13.121   7.847
 1006SOL    HW2 4916   3.508  13.097   7.761
 1007SOL     OW 4917   4.995   4.315   6.119
 1007SOL    HW1 4918   5.074   4.272   6.150
 1007SOL    HW2 4919   5.011   4.408   6.135
 1008SOL     OW 4920   9.971   5.306  10.933
 1008SOL    HW1 4921  10.030   5.329  11.005
 1008SOL    HW2 4922   9.929   5.388  10.909
 1009SOL     OW 4923   8.145   5.644   4.782
 1009SOL    HW1 4924   8.220   5.666   4.727
 1009SOL    HW2 4925   8.075   5.703   4.752
 1010SOL     OW 4926  13.015  11.946   1.127
 1010SOL    HW1 4927  12.930  11.906   1.144
 1010SOL    HW2 4928  13.000  12.040   1.140
 1011SOL     OW 4929   5.358   1.986   7.523
 1011SOL    HW1 4930   5.377   2.043   7.597
 1011SOL    HW2 4931   5.436   1.990   7.468
 1012SOL     OW 4932  10.877  10.923   6.961
 1012SOL    HW1 4933  10.828  10.849   6.996
 1012SOL    HW2 4934  10.895  10.900   6.870
 1013SOL     OW 4935   0.082   3.025  11.619
 1013SOL    HW1 4936   0.050   3.082  11.689
 1013SOL    HW2 4937   0.002   2.992  11.577
 1014SOL     OW 4938   7.089   3.327   0.517
 1014SOL    HW1 4939   7.133   3.362   0.594
 1014SOL    HW2 4940   7.008   3.378   0.511
 1015SOL     OW 4941  10.774  14.703   6.906
 1015SOL    HW1 4942  10.699  14.673   6.958
 1015SOL    HW2 4943  10.850  14.677   6.957
 1016SOL     OW 4944  13.851   2.072  12.520
 1016SOL    HW1 4945  13.832   1.993  12.470
 1016SOL    HW2 4946  13.815   2.054  12.607
 1017SOL     OW 4947   2.472   6.298   2.465
 1017SOL    HW1 4948   2.440   6.369   2.409
 1017SOL    HW2 4949   2.495   6.228   2.404
 1018SOL     OW 4950   6.750  10.479   0.115
 1018SOL    HW1 4951   6.810  10.512   0.048
 1018SOL    HW2 4952   6.775  10.525   0.195
 1019SOL     OW 4953   7.662   6.230   1.273
 1019SOL    HW1 4954   7.589   6.289   1.253
 1019SOL    HW2 4955   7.637   6.188   1.355
 1020SOL     OW 4956  13.944   3.689  13.812
 1020SOL    HW1 4957  13.997   3.735  13.877
 1020SOL    HW2 4958  13.999   3.616  13.785
 1021SOL     OW 4959   2.677   8.849   9.105
 1021SOL    HW1 4960   2.637   8.903   9.173
 1021SOL    HW2 4961   2.651   8.760   9.128
 1022SOL     OW 4962   8.842  12.249  14.621
 1022SOL    HW1 4963   8.876  12.173  14.669
 1022SOL    HW2 4964   8.753  12.260  14.654
 1023SOL     OW 4965   2.653  10.261   5.577
 1023SOL    HW1 4966   2.629  10.336   5.632
 1023SOL    HW2 4967   2.746  10.247   5.594
 1024SOL     OW 4968  12.268   4.110   7.118
 1024SOL    HW1 4969  12.199   4.173   7.141
 1024SOL    HW2 4970  12.222   4.027   7.106
 1025SOL     OW 4971   3.026  12.590   2.401
 1025SOL    HW1 4972   2.993  12.503   2.381
 1025SOL    HW2 4973   3.033  12.592   2.497
 1026SOL     OW 4974   2.724   2.450   0.565
 1026SOL    HW1 4975   2.730   2.380   0.500
 1026SOL    HW2 4976   2.741   2.406   0.648
 1027SOL     OW 4977  11.833   7.806   3.949
 1027SOL    HW1 4978  11.749   7.844   3.925
 1027SOL    HW2 4979  11.898   7.858   3.902
 1028SOL     OW 4980  14.426  11.512  12.820
 1028SOL    HW1 4981  14.507  11.543  12.861
 1028SOL    HW2 4982  14.403  11.433  12.869
 1029SOL     OW 4983   6.089   4.706   9.392
 1029SOL    HW1 4984   6.134   4.623   9.410
 1029SOL    HW2 4985   5.997   4.686   9.403
 1030SOL     OW 4986  11.859  10.971   9.948
 1030SOL    HW1 4987  11.908  11.050   9.970
 1030SOL    HW2 4988  11.778  10.977   9.999
 1031SOL     OW 4989  10.759   2.805   2.025
 1031SOL    HW1 4990  10.766   2.711   2.040
 1031SOL    HW2 4991  10.696   2.835   2.090
 1032SOL     OW 4992   4.963  10.737   9.189
 1032SOL    HW1 4993   4.896  10.805   9.183
 1032SOL    HW2 4994   4.961  10.693   9.104
 1033SOL     OW 4995  13.404  13.637   6.158
 1033SOL    HW1 4996  13.402  13.709   6.222
 1033SOL    HW2 4997  13.321  13.645   6.112
 1034SOL     OW 4998   3.534   9.809  10.783
 1034SOL    HW1 4999   3.580   9.848  10.709
 1034SOL    HW2 5000   3.603   9.788  10.846
 1035SOL     OW 5001  11.012   6.621  13.923
 1035SOL    HW1 5002  10.972   6.543  13.884
 1035SOL    HW2 5003  10.955   6.642  13.997
 1036SOL     OW 5004   3.315   4.401   1.569
 1036SOL    HW1 5005   3.288   4.457   1.496
 1036SOL    HW2 5006   3.238   4.394   1.624
 1037SOL     OW 5007   8.152   8.387  14.640
 1037SOL    HW1 5008   8.237   8.413  14.606
 1037SOL    HW2 5009   8.152   8.291  14.636
 1038SOL     OW 5010   1.216   6.674   3.866
 1038SOL    HW1 5011   1.277   6.686   3.938
 1038SOL    HW2 5012   1.143   6.625   3.904
 1039SOL     OW 5013   9.430   9.666  13.466
 1039SOL    HW1 5014   9.450   9.652  13.373
 1039SOL    HW2 5015   9.334   9.668  13.469
 1040SOL     OW 5016   3.636   0.328   5.205
 1040SOL    HW1 5017   3.707   0.314   5.267
 1040SOL    HW2 5018   3.679   0.339   5.121
 1041SOL     OW 5019   1.238  11.905   0.247
 1041SOL    HW1 5020   1.318  11.853   0.239
 1041SOL    HW2 5021   1.258  11.986   0.200
 1042SOL     OW 5022  13.746  12.246   2.938
 1042SOL    HW1 5023  13.657  12.280   2.930
 1042SOL    HW2 5024  13.801  12.323   2.942
 1043SOL     OW 5025   6.943   8.102   4.448
 1043SOL    HW1 5026   6.863   8.052   4.434
 1043SOL    HW2 5027   6.913   8.192   4.463
 1044SOL     OW 5028  12.465   9.904   7.950
 1044SOL    HW1 5029  12.503   9.932   7.867
 1044SOL    HW2 5030  12.503   9.817   7.965
 1045SOL     OW 5031  13.657   6.308   4.308
 1045SOL    HW1 5032  13.752   6.311   4.298
 1045SOL    HW2 5033  13.639   6.360   4.386
 1046SOL     OW 5034  12.343   2.500   3.012
 1046SOL    HW1 5035  12.348   2.444   2.935
 1046SOL    HW2 5036  12.316   2.442   3.083
 1047SOL     OW 5037   6.198  10.744   4.310
 1047SOL    HW1 5038   6.289  10.724   4.331
 1047SOL    HW2 5039   6.186  10.835   4.335
 1048SOL     OW 5040   4.970  11.586  14.491
 1048SOL    HW1 5041   4.908  11.659  14.500
 1048SOL    HW2 5042   5.056  11.627  14.495
 1049SOL     OW 5043   5.703   1.796   5.988
 1049SOL    HW1 5044   5.760   1.722   6.007
 1049SOL    HW2 5045   5.619   1.756   5.965
 1050SOL     OW 5046  13.758  13.626   7.426
 1050SOL    HW1 5047  13.791  13.700   7.476
 1050SOL    HW2 5048  13.833  13.595   7.375
 1051SOL     OW 5049  12.174  11.164   5.852
 1051SOL    HW1 5050  12.092  11.178   5.804
 1051SOL    HW2 5051  12.226  11.108   5.794
 1052SOL     OW 5052   7.077  11.363   3.480
 1052SOL    HW1 5053   7.167  11.371   3.448
 1052SOL    HW2 5054   7.086  11.311   3.561
 1053SOL     OW 5055   6.731   2.497  11.012
 1053SOL    HW1 5056   6.786   2.479  10.936
 1053SOL    HW2 5057   6.792   2.519  11.082
 1054SOL     OW 5058   2.032  13.700   1.059
 1054SOL    HW1 5059   2.121  13.722   1.084
 1054SOL    HW2 5060   1.982  13.703   1.141
 1055SOL     OW 5061   2.427   6.764  10.835
 1055SOL    HW1 5062   2.487   6.690  10.825
 1055SOL    HW2 5063   2.345   6.735  10.794
 1056SOL     OW 5064   4.991   3.205   5.635
 1056SOL    HW1 5065   5.059   3.183   5.699
 1056SOL    HW2 5066   5.029   3.182   5.550
 1057SOL     OW 5067   3.745   9.092  10.817
 1057SOL    HW1 5068   3.765   9.165  10.875
 1057SOL    HW2 5069   3.730   9.018  10.876
 1058SOL     OW 5070   4.278   4.336   3.907
 1058SOL    HW1 5071   4.373   4.342   3.909
 1058SOL    HW2 5072   4.260   4.245   3.884
 1059SOL     OW 5073   1.714  10.028  10.013
 1059SOL    HW1 5074   1.795   9.995   9.974
 1059SOL    HW2 5075   1.694   9.967  10.084
 1060SOL     OW 5076   4.573  12.924   4.814
 1060SOL    HW1 5077   4.527  13.007   4.828
 1060SOL    HW2 5078   4.506  12.857   4.830
 1061SOL     OW 5079  14.855   2.886  13.149
 1061SOL    HW1 5080  14.772   2.840  13.151
 1061SOL    HW2 5081   0.037   2.821  13.179
 1062SOL     OW 5082   0.690   6.384   1.459
 1062SOL    HW1 5083   0.707   6.364   1.551
 1062SOL    HW2 5084   0.597   6.365   1.447
 1063SOL     OW 5085  13.593  13.564  10.272
 1063SOL    HW1 5086  13.665  13.622  10.297
 1063SOL    HW2 5087  13.566  13.522  10.354
 1064SOL     OW 5088   0.742   1.022   1.214
 1064SOL    HW1 5089   0.691   1.065   1.283
 1064SOL    HW2 5090   0.779   0.945   1.257
 1065SOL     OW 5091   8.897   6.568  13.378
 1065SOL    HW1 5092   8.926   6.602  13.293
 1065SOL    HW2 5093   8.943   6.621  13.443
 1066SOL     OW 5094   4.299  12.818   8.367
 1066SOL    HW1 5095   4.302  12.913   8.378
 1066SOL    HW2 5096   4.206  12.796   8.374
 1067SOL     OW 5097  10.417  14.140  10.227
 1067SOL    HW1 5098  10.450  14.146  10.138
 1067SOL    HW2 5099  10.481  14.086  10.274
 1068SOL     OW 5100  12.340  12.491  14.098
 1068SOL    HW1 5101  12.363  12.581  14.122
 1068SOL    HW2 5102  12.245  12.488  14.104
 1069SOL     OW 5103   9.256   5.201   1.533
 1069SOL    HW1 5104   9.337   5.247   1.509
 1069SOL    HW2 5105   9.283   5.110   1.544
 1070SOL     OW 5106  14.341   7.570   0.115
 1070SOL    HW1 5107  14.263   7.517   0.095
 1070SOL    HW2 5108  14.372   7.599   0.030
 1071SOL     OW 5109   3.249   5.829   1.058
 1071SOL    HW1 5110   3.259   5.780   0.977
 1071SOL    HW2 5111   3.179   5.784   1.105
 1072SOL     OW 5112  11.942   3.824  10.513
 1072SOL    HW1 5113  11.896   3.812  10.430
 1072SOL    HW2 5114  11.883   3.877  10.566
 1073SOL     OW 5115   6.785   2.824  12.011
 1073SOL    HW1 5116   6.755   2.904  12.054
 1073SOL    HW2 5117   6.796   2.761  12.082
 1074SOL     OW 5118   4.023  11.806   2.721
 1074SOL    HW1 5119   4.065  11.779   2.639
 1074SOL    HW2 5120   4.095  11.809   2.784
 1075SOL     OW 5121   0.818   8.962  14.083
 1075SOL    HW1 5122   0.851   9.049  14.060
 1075SOL    HW2 5123   0.809   8.917  13.999
 1076SOL     OW 5124  13.312   2.790   2.219
 1076SOL    HW1 5125  13.219   2.793   2.240
 1076SOL    HW2 5126  13.326   2.864   2.159
 1077SOL     OW 5127  11.394   1.886  10.123
 1077SOL    HW1 5128  11.407   1.818  10.057
 1077SOL    HW2 5129  11.475   1.886  10.174
 1078SOL     OW 5130  12.224   9.282   6.393
 1078SOL    HW1 5131  12.235   9.236   6.310
 1078SOL    HW2 5132  12.217   9.212   6.458
 1079SOL     OW 5133   7.413   2.671   8.681
 1079SOL    HW1 5134   7.393   2.727   8.606
 1079SOL    HW2 5135   7.367   2.711   8.755
 1080SOL     OW 5136   9.813  14.663  11.537
 1080SOL    HW1 5137   9.835  14.593  11.476
 1080SOL    HW2 5138   9.789  14.737  11.482
 1081SOL     OW 5139   6.455   0.745   0.255
 1081SOL    HW1 5140   6.546   0.750   0.284
 1081SOL    HW2 5141   6.452   0.666   0.202
 1082SOL     OW 5142  12.877   5.196  14.482
 1082SOL    HW1 5143  12.937   5.179  14.409
 1082SOL    HW2 5144  12.889   5.121  14.540
 1083SOL     OW 5145   2.878  12.534  12.169
 1083SOL    HW1 5146   2.887  12.537  12.264
 1083SOL    HW2 5147   2.804  12.476  12.153
 1084SOL     OW 5148  11.851  11.016  11.254
 1084SOL    HW1 5149  11.852  10.984  11.344
 1084SOL    HW2 5150  11.827  11.108  11.261
 1085SOL     OW 5151   8.529   7.106   0.915
 1085SOL    HW1 5152   8.617   7.078   0.890
 1085SOL    HW2 5153   8.500   7.161   0.842
 1086SOL     OW 5154   0.353   6.768   7.189
 1086SOL    HW1 5155   0.359   6.681   7.151
 1086SOL    HW2 5156   0.267   6.801   7.163
 1087SOL     OW 5157   8.633   9.682   1.987
 1087SOL    HW1 5158   8.579   9.608   2.016
 1087SOL    HW2 5159   8.600   9.757   2.038
 1088SOL     OW 5160   8.812   0.991  11.088
 1088SOL    HW1 5161   8.762   0.910  11.096
 1088SOL    HW2 5162   8.817   1.007  10.994
 1089SOL     OW 5163   7.253  11.697   4.847
 1089SOL    HW1 5164   7.162  11.716   4.868
 1089SOL    HW2 5165   7.297  11.694   4.932
 1090SOL     OW 5166   5.472   4.065  11.668
 1090SOL    HW1 5167   5.507   4.134  11.613
 1090SOL    HW2 5168   5.549   4.018  11.701
 1091SOL     OW 5169   2.072   2.792   9.324
 1091SOL    HW1 5170   2.093   2.711   9.279
 1091SOL    HW2 5171   2.019   2.764   9.399
 1092SOL     OW 5172   2.578   1.497  12.816
 1092SOL    HW1 5173   2.575   1.563  12.885
 1092SOL    HW2 5174   2.496   1.509  12.768
 1093SOL     OW 5175   7.303   8.683   7.561
 1093SOL    HW1 5176   7.387   8.711   7.525
 1093SOL    HW2 5177   7.262   8.765   7.591
 1094SOL     OW 5178   2.334  13.718  11.218
 1094SOL    HW1 5179   2.361  13.804  11.183
 1094SOL    HW2 5180   2.297  13.672  11.143
 1095SOL     OW 5181   9.349   2.450   6.640
 1095SOL    HW1 5182   9.278   2.512   6.658
 1095SOL    HW2 5183   9.424   2.505   6.617
 1096SOL     OW 5184   4.108  12.446   4.047
 1096SOL    HW1 5185   4.062  12.368   4.078
 1096SOL    HW2 5186   4.080  12.456   3.956
 1097SOL     OW 5187   1.111  13.333   8.832
 1097SOL    HW1 5188   1.039  13.337   8.894
 1097SOL    HW2 5189   1.071  13.306   8.749
 1098SOL     OW 5190   8.440   8.549   2.914
 1098SOL    HW1 5191   8.436   8.575   2.822
 1098SOL    HW2 5192   8.470   8.627   2.960
 1099SOL     OW 5193  14.411  11.296   0.650
 1099SOL    HW1 5194  14.505  11.291   0.630
 1099SOL    HW2 5195  14.403  11.369   0.711
 1100SOL     OW 5196   5.678   2.288   9.730
 1100SOL    HW1 5197   5.628   2.307   9.651
 1100SOL    HW2 5198   5.767   2.319   9.711
 1101SOL     OW 5199   9.173   1.476  12.673
 1101SOL    HW1 5200   9.139   1.522  12.595
 1101SOL    HW2 5201   9.094   1.456  12.724
 1102SOL     OW 5202   4.361   8.365   1.667
 1102SOL    HW1 5203   4.369   8.309   1.744
 1102SOL    HW2 5204   4.353   8.454   1.702
 1103SOL     OW 5205  11.774   2.903   9.804
 1103SOL    HW1 5206  11.807   2.871   9.888
 1103SOL    HW2 5207  11.689   2.861   9.794
 1104SOL     OW 5208   4.808  10.358   4.481
 1104SOL    HW1 5209   4.881  10.321   4.432
 1104SOL    HW2 5210   4.801  10.302   4.559
 1105SOL     OW 5211  13.946   7.587   9.206
 1105SOL    HW1 5212  14.039   7.585   9.185
 1105SOL    HW2 5213  13.909   7.651   9.146
 1106SOL     OW 5214   7.956   3.421   2.809
 1106SOL    HW1 5215   7.887   3.421   2.875
 1106SOL    HW2 5216   8.037   3.407   2.859
 1107SOL     OW 5217   7.707  13.859  12.336
 1107SOL    HW1 5218   7.680  13.941  12.294
 1107SOL    HW2 5219   7.651  13.852  12.413
 1108SOL     OW 5220  10.848   6.184   1.211
 1108SOL    HW1 5221  10.885   6.271   1.226
 1108SOL    HW2 5222  10.780   6.198   1.145
 1109SOL     OW 5223   5.954  11.222  10.146
 1109SOL    HW1 5224   5.940  11.136  10.107
 1109SOL    HW2 5225   5.891  11.279  10.102
 1110SOL     OW 5226   4.929   6.249   4.503
 1110SOL    HW1 5227   4.967   6.185   4.564
 1110SOL    HW2 5228   4.876   6.306   4.559
 1111SOL     OW 5229   6.786   1.446  12.320
 1111SOL    HW1 5230   6.730   1.378  12.281
 1111SOL    HW2 5231   6.864   1.399  12.348
 1112SOL     OW 5232   7.164  14.677   5.443
 1112SOL    HW1 5233   7.237  14.667   5.503
 1112SOL    HW2 5234   7.204  14.702   5.360
 1113SOL     OW 5235   7.319   6.281   2.959
 1113SOL    HW1 5236   7.356   6.321   3.038
 1113SOL    HW2 5237   7.224   6.295   2.968
 1114SOL     OW 5238  10.328   6.804   1.097
 1114SOL    HW1 5239  10.365   6.890   1.075
 1114SOL    HW2 5240  10.377   6.742   1.044
 1115SOL     OW 5241   4.017  10.800   6.711
 1115SOL    HW1 5242   3.942  10.789   6.770
 1115SOL    HW2 5243   4.054  10.712   6.704
 1116SOL     OW 5244   3.308   2.466   8.283
 1116SOL    HW1 5245   3.319   2.535   8.217
 1116SOL    HW2 5246   3.242   2.500   8.343
 1117SOL     OW 5247  12.007   1.469  11.258
 1117SOL    HW1 5248  12.040   1.382  11.282
 1117SOL    HW2 5249  12.054   1.491  11.178
 1118SOL     OW 5250  12.904   0.550   3.476
 1118SOL    HW1 5251  12.837   0.617   3.490
 1118SOL    HW2 5252  12.855   0.468   3.476
 1119SOL     OW 5253  14.324   9.551   6.105
 1119SOL    HW1 5254  14.283   9.466   6.119
 1119SOL    HW2 5255  14.292   9.605   6.178
 1120SOL     OW 5256  12.715   9.368  10.056
 1120SOL    HW1 5257  12.689   9.296   9.998
 1120SOL    HW2 5258  12.670   9.350  10.139
 1121SOL     OW 5259  13.232   7.911   7.180
 1121SOL    HW1 5260  13.139   7.929   7.166
 1121SOL    HW2 5261  13.251   7.835   7.126
 1122SOL     OW 5262   0.988   7.350   7.974
 1122SOL    HW1 5263   1.023   7.425   8.021
 1122SOL    HW2 5264   1.040   7.276   8.004
 1123SOL     OW 5265   9.765  14.850   3.058
 1123SOL    HW1 5266   9.746   0.035   2.993
 1123SOL    HW2 5267   9.721  14.880   3.137
 1124SOL     OW 5268   8.749   7.518  14.590
 1124SOL    HW1 5269   8.696   7.581  14.540
 1124SOL    HW2 5270   8.738   7.545  14.681
 1125SOL     OW 5271   4.754  12.890   9.428
 1125SOL    HW1 5272   4.800  12.833   9.490
 1125SOL    HW2 5273   4.664  12.858   9.429
 1126SOL     OW 5274   8.696  11.280   0.713
 1126SOL    HW1 5275   8.616  11.260   0.761
 1126SOL    HW2 5276   8.673  11.263   0.621
 1127SOL     OW 5277   1.428   6.458  12.552
 1127SOL    HW1 5278   1.516   6.446  12.517
 1127SOL    HW2 5279   1.417   6.553  12.559
 1128SOL     OW 5280   8.512   9.962   1.451
 1128SOL    HW1 5281   8.449   9.983   1.382
 1128SOL    HW2 5282   8.596   9.961   1.407
 1129SOL     OW 5283   3.209   4.611   1.935
 1129SOL    HW1 5284   3.194   4.704   1.915
 1129SOL    HW2 5285   3.149   4.593   2.008
 1130SOL     OW 5286  10.120   6.166   1.751
 1130SOL    HW1 5287  10.095   6.217   1.828
 1130SOL    HW2 5288  10.114   6.075   1.779
 1131SOL     OW 5289   7.020   0.580  10.706
 1131SOL    HW1 5290   6.942   0.560  10.757
 1131SOL    HW2 5291   7.091   0.581  10.770
 1132SOL     OW 5292   7.558   2.118   7.886
 1132SOL    HW1 5293   7.525   2.030   7.905
 1132SOL    HW2 5294   7.591   2.113   7.796
 1133SOL     OW 5295   2.952   8.226   6.192
 1133SOL    HW1 5296   3.035   8.234   6.239
 1133SOL    HW2 5297   2.976   8.237   6.100
 1134SOL     OW 5298   9.194   1.629   4.278
 1134SOL    HW1 5299   9.119   1.675   4.315
 1134SOL    HW2 5300   9.260   1.632   4.347
 1135SOL     OW 5301  12.321  13.714   4.865
 1135SOL    HW1 5302  12.306  13.652   4.794
 1135SOL    HW2 5303  12.252  13.695   4.929
 1136SOL     OW 5304   5.270   3.337   0.551
 1136SOL    HW1 5305   5.253   3.279   0.476
 1136SOL    HW2 5306   5.292   3.421   0.511
 1137SOL     OW 5307  13.124   8.956   3.522
 1137SOL    HW1 5308  13.032   8.979   3.540
 1137SOL    HW2 5309  13.130   8.956   3.427
 1138SOL     OW 5310   6.847  14.659  14.732
 1138SOL    HW1 5311   6.847  14.710  14.651
 1138SOL    HW2 5312   6.921  14.693  14.783
 1139SOL     OW 5313   4.810   9.799   8.764
 1139SOL    HW1 5314   4.805   9.891   8.789
 1139SOL    HW2 5315   4.764   9.752   8.834
 1140SOL     OW 5316   4.576   6.707   7.903
 1140SOL    HW1 5317   4.664   6.670   7.907
 1140SOL    HW2 5318   4.524   6.640   7.859
 1141SOL     OW 5319  11.743   9.288   4.146
 1141SOL    HW1 5320  11.772   9.256   4.232
 1141SOL    HW2 5321  11.811   9.259   4.085
 1142SOL     OW 5322   0.705   0.049  10.319
 1142SOL    HW1 5323   0.767   0.104  10.272
 1142SOL    HW2 5324   0.661  14.881  10.250
 1143SOL     OW 5325   7.507  14.316   2.689
 1143SOL    HW1 5326   7.539  14.234   2.652
 1143SOL    HW2 5327   7.556  14.384   2.642
 1144SOL     OW 5328   9.552  12.660  14.015
 1144SOL    HW1 5329   9.565  12.748  14.049
 1144SOL    HW2 5330   9.527  12.608  14.092
 1145SOL     OW 5331   9.115   4.875   5.190
 1145SOL    HW1 5332   9.127   4.928   5.112
 1145SOL    HW2 5333   9.203   4.861   5.224
 1146SOL     OW 5334   3.898   5.135  10.836
 1146SOL    HW1 5335   3.832   5.189  10.881
 1146SOL    HW2 5336   3.969   5.127  10.899
 1147SOL     OW 5337   8.170  13.793   1.266
 1147SOL    HW1 5338   8.100  13.855   1.244
 1147SOL    HW2 5339   8.131  13.707   1.251
 1148SOL     OW 5340  10.668  13.112   6.646
 1148SOL    HW1 5341  10.575  13.094   6.656
 1148SOL    HW2 5342  10.708  13.080   6.727
 1149SOL     OW 5343   3.281   3.040   2.318
 1149SOL    HW1 5344   3.234   2.958   2.330
 1149SOL    HW2 5345   3.324   3.031   2.233
 1150SOL     OW 5346   1.210  12.225  14.590
 1150SOL    HW1 5347   1.121  12.191  14.598
 1150SOL    HW2 5348   1.266  12.148  14.598
 1151SOL     OW 5349  13.826   2.537   9.216
 1151SOL    HW1 5350  13.875   2.526   9.135
 1151SOL    HW2 5351  13.832   2.453   9.260
 1152SOL     OW 5352   0.166   2.857   2.172
 1152SOL    HW1 5353   0.219   2.778   2.177
 1152SOL    HW2 5354   0.205   2.917   2.235
 1153SOL     OW 5355   7.514   1.425   5.901
 1153SOL    HW1 5356   7.465   1.344   5.881
 1153SOL    HW2 5357   7.605   1.396   5.907
 1154SOL     OW 5358   5.943  14.106   8.469
 1154SOL    HW1 5359   5.897  14.022   8.459
 1154SOL    HW2 5360   5.924  14.154   8.388
 1155SOL     OW 5361   2.375   8.771   4.951
 1155SOL    HW1 5362   2.308   8.731   5.006
 1155SOL    HW2 5363   2.449   8.786   5.011
 1156SOL     OW 5364   9.820   1.250   3.931
 1156SOL    HW1 5365   9.828   1.339   3.897
 1156SOL    HW2 5366   9.856   1.255   4.019
 1157SOL     OW 5367   6.321  13.733   9.843
 1157SOL    HW1 5368   6.413  13.752   9.826
 1157SOL    HW2 5369   6.273  13.786   9.780
 1158SOL     OW 5370   5.357  14.784   0.437
 1158SOL    HW1 5371   5.276  14.829   0.458
 1158SOL    HW2 5372   5.408  14.849   0.387
 1159SOL     OW 5373   1.840  13.348   3.331
 1159SOL    HW1 5374   1.924  13.303   3.336
 1159SOL    HW2 5375   1.829  13.368   3.239
 1160SOL     OW 5376   7.645   9.646  13.157
 1160SOL    HW1 5377   7.696   9.568  13.180
 1160SOL    HW2 5378   7.558   9.629  13.193
 1161SOL     OW 5379   2.357  14.091   9.349
 1161SOL    HW1 5380   2.316  14.177   9.347
 1161SOL    HW2 5381   2.288  14.031   9.375
 1162SOL     OW 5382   9.124  14.116  13.773
 1162SOL    HW1 5383   9.133  14.057  13.698
 1162SOL    HW2 5384   9.078  14.192  13.737
 1163SOL     OW 5385  10.393   7.099  13.668
 1163SOL    HW1 5386  10.429   7.011  13.657
 1163SOL    HW2 5387  10.410   7.121  13.759
 1164SOL     OW 5388   8.779  12.820  13.606
 1164SOL    HW1 5389   8.872  12.817  13.585
 1164SOL    HW2 5390   8.736  12.788  13.526
 1165SOL     OW 5391  14.329  12.761   6.805
 1165SOL    HW1 5392  14.333  12.701   6.729
 1165SOL    HW2 5393  14.403  12.820   6.792
 1166SOL     OW 5394   5.669   4.137   0.200
 1166SOL    HW1 5395   5.663   4.224   0.238
 1166SOL    HW2 5396   5.759   4.109   0.217
 1167SOL     OW 5397  13.410   2.361   9.228
 1167SOL    HW1 5398  13.493   2.320   9.205
 1167SOL    HW2 5399  13.434   2.449   9.258
 1168SOL     OW 5400  13.939   1.589   9.138
 1168SOL    HW1 5401  13.920   1.642   9.061
 1168SOL    HW2 5402  13.881   1.512   9.130
 1169SOL     OW 5403  12.705   5.484   6.993
 1169SOL    HW1 5404  12.770   5.516   7.056
 1169SOL    HW2 5405  12.634   5.450   7.047
 1170SOL     OW 5406   3.807   1.485   8.480
 1170SOL    HW1 5407   3.791   1.396   8.509
 1170SOL    HW2 5408   3.754   1.540   8.538
 1171SOL     OW 5409   1.931  13.928   5.979
 1171SOL    HW1 5410   1.912  13.882   6.061
 1171SOL    HW2 5411   1.869  13.892   5.916
 1172SOL     OW 5412  12.446   9.003  12.437
 1172SOL    HW1 5413  12.415   8.952  12.512
 1172SOL    HW2 5414  12.503   8.942  12.389
 1173SOL     OW 5415   9.779  10.548   1.041
 1173SOL    HW1 5416   9.727  10.614   1.088
 1173SOL    HW2 5417   9.718  10.510   0.978
 1174SOL     OW 5418   1.369   5.121   4.262
 1174SOL    HW1 5419   1.276   5.110   4.281
 1174SOL    HW2 5420   1.403   5.032   4.255
 1175SOL     OW 5421   5.885   9.191  13.542
 1175SOL    HW1 5422   5.965   9.230  13.578
 1175SOL    HW2 5423   5.823   9.264  13.537
 1176SOL     OW 5424   6.911   7.707   2.133
 1176SOL    HW1 5425   6.854   7.646   2.085
 1176SOL    HW2 5426   6.862   7.789   2.134
 1177SOL     OW 5427   4.875   6.024   1.935
 1177SOL    HW1 5428   4.826   5.969   1.996
 1177SOL    HW2 5429   4.927   6.082   1.991
 1178SOL     OW 5430   4.672   1.038   6.858
 1178SOL    HW1 5431   4.596   1.002   6.903
 1178SOL    HW2 5432   4.713   1.096   6.921
 1179SOL     OW 5433   1.306   0.342   5.256
 1179SOL    HW1 5434   1.255   0.356   5.176
 1179SOL    HW2 5435   1.305   0.427   5.300
 1180SOL     OW 5436   7.725  10.017   6.854
 1180SOL    HW1 5437   7.697   9.949   6.793
 1180SOL    HW2 5438   7.705  10.099   6.809
 1181SOL     OW 5439   3.986  13.172   1.335
 1181SOL    HW1 5440   4.001  13.082   1.304
 1181SOL    HW2 5441   3.931  13.161   1.413
 1182SOL     OW 5442   6.165   6.151   4.467
 1182SOL    HW1 5443   6.141   6.218   4.402
 1182SOL    HW2 5444   6.212   6.200   4.535
 1183SOL     OW 5445  13.637  14.429   1.275
 1183SOL    HW1 5446  13.679  14.388   1.200
 1183SOL    HW2 5447  13.702  14.425   1.345
 1184SOL     OW 5448  13.346   7.529   8.131
 1184SOL    HW1 5449  13.284   7.456   8.125
 1184SOL    HW2 5450  13.317   7.590   8.064
 1185SOL     OW 5451  12.687  11.224   8.659
 1185SOL    HW1 5452  12.616  11.160   8.655
 1185SOL    HW2 5453  12.646  11.304   8.693
 1186SOL     OW 5454   4.568   8.808   0.116
 1186SOL    HW1 5455   4.608   8.779   0.034
 1186SOL    HW2 5456   4.565   8.729   0.171
 1187SOL     OW 5457   0.966  11.658  14.479
 1187SOL    HW1 5458   0.960  11.565  14.499
 1187SOL    HW2 5459   0.987  11.662  14.386
 1188SOL     OW 5460   0.468   2.389   1.842
 1188SOL    HW1 5461   0.510   2.320   1.790
 1188SOL    HW2 5462   0.429   2.343   1.916
 1189SOL     OW 5463  11.440   2.769   7.799
 1189SOL    HW1 5464  11.413   2.756   7.890
 1189SOL    HW2 5465  11.520   2.718   7.789
 1190SOL     OW 5466   4.759   8.017   7.548
 1190SOL    HW1 5467   4.829   7.991   7.488
 1190SOL    HW2 5468   4.678   8.001   7.499
 1191SOL     OW 5469   6.256  13.408   3.482
 1191SOL    HW1 5470   6.325  13.417   3.416
 1191SOL    HW2 5471   6.192  13.349   3.442
 1192SOL     OW 5472  11.151   4.478  10.290
 1192SOL    HW1 5473  11.080   4.422  10.259
 1192SOL    HW2 5474  11.218   4.472  10.222
 1193SOL     OW 5475   2.661   5.965   6.309
 1193SOL    HW1 5476   2.702   5.942   6.392
 1193SOL    HW2 5477   2.715   5.922   6.242
 1194SOL     OW 5478   3.130  10.333   9.353
 1194SOL    HW1 5479   3.160  10.367   9.269
 1194SOL    HW2 5480   3.181  10.254   9.367
 1195SOL     OW 5481   4.246   7.177   2.793
 1195SOL    HW1 5482   4.256   7.086   2.821
 1195SOL    HW2 5483   4.291   7.228   2.861
 1196SOL     OW 5484   2.470   5.447   9.542
 1196SOL    HW1 5485   2.551   5.483   9.507
 1196SOL    HW2 5486   2.494   5.411   9.627
 1197SOL     OW 5487   5.452  11.179   9.435
 1197SOL    HW1 5488   5.387  11.218   9.376
 1197SOL    HW2 5489   5.452  11.237   9.511
 1198SOL     OW 5490  13.955  11.038  11.979
 1198SOL    HW1 5491  13.876  11.024  11.928
 1198SOL    HW2 5492  13.956  10.966  12.042
 1199SOL     OW 5493   3.699  12.282  11.437
 1199SOL    HW1 5494   3.633  12.225  11.476
 1199SOL    HW2 5495   3.679  12.282  11.344
 1200SOL     OW 5496   5.419  14.567  12.532
 1200SOL    HW1 5497   5.368  14.514  12.594
 1200SOL    HW2 5498   5.413  14.519  12.450
 1201SOL     OW 5499   7.934   3.376  10.615
 1201SOL    HW1 5500   7.941   3.283  10.638
 1201SOL    HW2 5501   7.984   3.384  10.534
 1202SOL     OW 5502  12.962   3.397   4.319
 1202SOL    HW1 5503  13.057   3.404   4.322
 1202SOL    HW2 5504  12.943   3.357   4.234
 1203SOL     OW 5505   8.367  14.868   2.796
 1203SOL    HW1 5506   8.448  14.850   2.843
 1203SOL    HW2 5507   8.372  14.813   2.718
 1204SOL     OW 5508  14.843  12.798   6.327
 1204SOL    HW1 5509   0.049  12.772   6.298
 1204SOL    HW2 5510  14.800  12.831   6.248
 1205SOL     OW 5511  13.318  10.378  12.974
 1205SOL    HW1 5512  13.313  10.470  12.949
 1205SOL    HW2 5513  13.240  10.338  12.934
 1206SOL     OW 5514  11.453   6.946  13.177
 1206SOL    HW1 5515  11.445   7.039  13.193
 1206SOL    HW2 5516  11.436   6.905  13.262
 1207SOL     OW 5517   8.812   7.608   9.081
 1207SOL    HW1 5518   8.844   7.557   9.006
 1207SOL    HW2 5519   8.855   7.692   9.073
 1208SOL     OW 5520   7.960   8.193   4.139
 1208SOL    HW1 5521   7.977   8.268   4.196
 1208SOL    HW2 5522   8.031   8.196   4.075
 1209SOL     OW 5523   7.051   6.873   9.928
 1209SOL    HW1 5524   7.058   6.873  10.023
 1209SOL    HW2 5525   7.046   6.780   9.905
 1210SOL     OW 5526  12.545  11.098  12.733
 1210SOL    HW1 5527  12.525  11.070  12.822
 1210SOL    HW2 5528  12.461  11.096  12.687
 1211SOL     OW 5529   1.030   0.879  11.412
 1211SOL    HW1 5530   1.101   0.846  11.358
 1211SOL    HW2 5531   0.956   0.821  11.392
 1212SOL     OW 5532  14.582  11.652  10.720
 1212SOL    HW1 5533  14.653  11.708  10.688
 1212SOL    HW2 5534  14.624  11.593  10.783
 1213SOL     OW 5535   0.125  14.739   0.782
 1213SOL    HW1 5536   0.211  14.754   0.743
 1213SOL    HW2 5537   0.145  14.706   0.870
 1214SOL     OW 5538   1.362   3.144  10.256
 1214SOL    HW1 5539   1.449   3.113  10.280
 1214SOL    HW2 5540   1.303   3.075  10.286
 1215SOL     OW 5541   5.671   3.358   4.742
 1215SOL    HW1 5542   5.644   3.369   4.651
 1215SOL    HW2 5543   5.597   3.391   4.793
 1216SOL     OW 5544   6.697  13.208  13.572
 1216SOL    HW1 5545   6.644  13.288  13.574
 1216SOL    HW2 5546   6.713  13.188  13.664
 1217SOL     OW 5547   3.921   7.754   9.386
 1217SOL    HW1 5548   3.958   7.693   9.322
 1217SOL    HW2 5549   3.949   7.841   9.357
 1218SOL     OW 5550  13.522   6.967   2.396
 1218SOL    HW1 5551  13.519   7.041   2.456
 1218SOL    HW2 5552  13.572   6.900   2.443
 1219SOL     OW 5553   9.476   2.691  10.499
 1219SOL    HW1 5554   9.481   2.774  10.451
 1219SOL    HW2 5555   9.532   2.705  10.575
 1220SOL     OW 5556   0.325   4.499   1.828
 1220SOL    HW1 5557   0.333   4.555   1.905
 1220SOL    HW2 5558   0.366   4.416   1.854
 1221SOL     OW 5559   3.106  13.636   7.910
 1221SOL    HW1 5560   3.033  13.615   7.968
 1221SOL    HW2 5561   3.178  13.657   7.970
 1222SOL     OW 5562  10.445   1.083   5.623
 1222SOL    HW1 5563  10.486   1.083   5.710
 1222SOL    HW2 5564  10.475   1.002   5.582
 1223SOL     OW 5565   8.416  10.594   4.329
 1223SOL    HW1 5566   8.447  10.682   4.309
 1223SOL    HW2 5567   8.438  10.581   4.421
 1224SOL     OW 5568   7.047  12.987   2.965
 1224SOL    HW1 5569   7.015  13.074   2.986
 1224SOL    HW2 5570   6.969  12.931   2.966
 1225SOL     OW 5571   3.862   5.385   2.924
 1225SOL    HW1 5572   3.914   5.345   2.993
 1225SOL    HW2 5573   3.776   5.400   2.964
 1226SOL     OW 5574   7.393  13.508   4.713
 1226SOL    HW1 5575   7.426  13.435   4.766
 1226SOL    HW2 5576   7.435  13.496   4.628
 1227SOL     OW 5577   2.676   7.034   6.223
 1227SOL    HW1 5578   2.746   7.057   6.162
 1227SOL    HW2 5579   2.596   7.063   6.179
 1228SOL     OW 5580   9.472   0.529  11.774
 1228SOL    HW1 5581   9.402   0.577  11.729
 1228SOL    HW2 5582   9.546   0.534  11.715
 1229SOL     OW 5583  14.716  13.245   8.846
 1229SOL    HW1 5584  14.744  13.305   8.915
 1229SOL    HW2 5585  14.738  13.289   8.764
 1230SOL     OW 5586   6.832   1.401   4.522
 1230SOL    HW1 5587   6.898   1.411   4.454
 1230SOL    HW2 5588   6.764   1.465   4.498
 1231SOL     OW 5589  14.845  10.959   9.338
 1231SOL    HW1 5590  14.795  10.886   9.374
 1231SOL    HW2 5591  14.864  11.014   9.414
 1232SOL     OW 5592  12.737  11.318  13.754
 1232SOL    HW1 5593  12.822  11.358  13.735
 1232SOL    HW2 5594  12.757  11.225  13.768
 1233SOL     OW 5595   9.791   7.055   2.176
 1233SOL    HW1 5596   9.866   6.995   2.180
 1233SOL    HW2 5597   9.827   7.134   2.135
 1234SOL     OW 5598  14.077   8.859   6.169
 1234SOL    HW1 5599  14.060   8.952   6.184
 1234SOL    HW2 5600  14.087   8.822   6.256
 1235SOL     OW 5601   1.199   5.389   0.004
 1235SOL    HW1 5602   1.105   5.376   0.011
 1235SOL    HW2 5603   1.209   5.463  14.826
 1236SOL     OW 5604   0.213   9.017   6.259
 1236SOL    HW1 5605   0.199   9.107   6.290
 1236SOL    HW2 5606   0.254   9.028   6.173
 1237SOL     OW 5607   8.475  10.609   8.977
 1237SOL    HW1 5608   8.484  10.702   8.960
 1237SOL    HW2 5609   8.476  10.569   8.890
 1238SOL     OW 5610   3.816   9.576   3.089
 1238SOL    HW1 5611   3.743   9.514   3.092
 1238SOL    HW2 5612   3.890   9.524   3.056
 1239SOL     OW 5613   2.189  10.294   6.129
 1239SOL    HW1 5614   2.113  10.302   6.072
 1239SOL    HW2 5615   2.238  10.220   6.092
 1240SOL     OW 5616   2.849   9.271   3.011
 1240SOL    HW1 5617   2.881   9.196   3.061
 1240SOL    HW2 5618   2.929   9.319   2.987
 1241SOL     OW 5619   0.632   0.431  14.345
 1241SOL    HW1 5620   0.725   0.409  14.348
 1241SOL    HW2 5621   0.599   0.409  14.432
 1242SOL     OW 5622   5.939  11.943   1.510
 1242SOL    HW1 5623   5.996  12.016   1.534
 1242SOL    HW2 5624   5.855  11.984   1.490
 1243SOL     OW 5625  11.263  13.564   2.386
 1243SOL    HW1 5626  11.207  13.626   2.433
 1243SOL    HW2 5627  11.246  13.480   2.429
 1244SOL     OW 5628   2.326   3.165   2.469
 1244SOL    HW1 5629   2.257   3.100   2.467
 1244SOL    HW2 5630   2.328   3.202   2.381
 1245SOL     OW 5631   1.380  12.460  10.979
 1245SOL    HW1 5632   1.311  12.427  11.037
 1245SOL    HW2 5633   1.348  12.441  10.891
 1246SOL     OW 5634   8.600  12.519   1.143
 1246SOL    HW1 5635   8.642  12.462   1.207
 1246SOL    HW2 5636   8.655  12.597   1.140
 1247SOL     OW 5637   1.745   8.583   2.087
 1247SOL    HW1 5638   1.727   8.555   2.177
 1247SOL    HW2 5639   1.663   8.625   2.059
 1248SOL     OW 5640   4.540   6.856   3.510
 1248SOL    HW1 5641   4.476   6.928   3.515
 1248SOL    HW2 5642   4.577   6.851   3.598
 1249SOL     OW 5643  11.198  10.192   0.515
 1249SOL    HW1 5644  11.165  10.122   0.573
 1249SOL    HW2 5645  11.120  10.226   0.472
 1250SOL     OW 5646   5.823  11.808   2.791
 1250SOL    HW1 5647   5.875  11.731   2.814
 1250SOL    HW2 5648   5.749  11.806   2.850
 1251SOL     OW 5649   8.137   5.043   5.448
 1251SOL    HW1 5650   8.162   5.074   5.534
 1251SOL    HW2 5651   8.102   5.120   5.403
 1252SOL     OW 5652  11.881   5.841  10.047
 1252SOL    HW1 5653  11.898   5.835   9.953
 1252SOL    HW2 5654  11.871   5.934  10.064
 1253SOL     OW 5655   7.579   8.048   4.276
 1253SOL    HW1 5656   7.653   8.109   4.274
 1253SOL    HW2 5657   7.547   8.052   4.366
 1254SOL     OW 5658  11.587  11.853   1.072
 1254SOL    HW1 5659  11.626  11.874   0.987
 1254SOL    HW2 5660  11.612  11.926   1.128
 1255SOL     OW 5661   7.719   9.591   9.820
 1255SOL    HW1 5662   7.787   9.526   9.801
 1255SOL    HW2 5663   7.640   9.555   9.779
 1256SOL     OW 5664   4.313   1.489  11.614
 1256SOL    HW1 5665   4.382   1.424  11.629
 1256SOL    HW2 5666   4.323   1.551  11.686
 1257SOL     OW 5667   4.626  12.893   3.074
 1257SOL    HW1 5668   4.546  12.927   3.034
 1257SOL    HW2 5669   4.694  12.952   3.045
 1258SOL     OW 5670   6.432   2.717   5.309
 1258SOL    HW1 5671   6.385   2.636   5.328
 1258SOL    HW2 5672   6.404   2.777   5.379
 1259SOL     OW 5673   1.477  12.501   7.554
 1259SOL    HW1 5674   1.449  12.424   7.605
 1259SOL    HW2 5675   1.563  12.475   7.518
 1260SOL     OW 5676  11.334  13.380   6.159
 1260SOL    HW1 5677  11.380  13.296   6.168
 1260SOL    HW2 5678  11.312  13.385   6.066
 1261SOL     OW 5679   4.336   6.024   1.645
 1261SOL    HW1 5680   4.348   6.019   1.550
 1261SOL    HW2 5681   4.423   6.043   1.679
 1262SOL     OW 5682   2.827   6.783   2.665
 1262SOL    HW1 5683   2.737   6.798   2.635
 1262SOL    HW2 5684   2.855   6.867   2.701
 1263SOL     OW 5685   2.929   1.729   9.460
 1263SOL    HW1 5686   2.981   1.648   9.463
 1263SOL    HW2 5687   2.918   1.753   9.552
 1264SOL     OW 5688  10.187   8.297  14.355
 1264SOL    HW1 5689  10.221   8.347  14.430
 1264SOL    HW2 5690  10.102   8.338  14.336
 1265SOL     OW 5691   3.768   7.701   8.050
 1265SOL    HW1 5692   3.727   7.733   7.970
 1265SOL    HW2 5693   3.831   7.635   8.020
 1266SOL     OW 5694   7.746   6.435  10.440
 1266SOL    HW1 5695   7.796   6.434  10.521
 1266SOL    HW2 5696   7.660   6.401  10.465
 1267SOL     OW 5697   2.861   6.002   3.653
 1267SOL    HW1 5698   2.853   6.036   3.743
 1267SOL    HW2 5699   2.773   6.007   3.618
 1268SOL     OW 5700  14.083  11.939  11.869
 1268SOL    HW1 5701  14.039  11.986  11.797
 1268SOL    HW2 5702  14.083  11.848  11.841
 1269SOL     OW 5703   8.844   3.917  13.657
 1269SOL    HW1 5704   8.867   4.008  13.678
 1269SOL    HW2 5705   8.904   3.893  13.586
 1270SOL     OW 5706  14.737  12.264  12.055
 1270SOL    HW1 5707  14.750  12.354  12.085
 1270SOL    HW2 5708  14.800  12.212  12.106
 1271SOL     OW 5709   4.789   1.360   2.624
 1271SOL    HW1 5710   4.693   1.363   2.623
 1271SOL    HW2 5711   4.814   1.368   2.532
 1272SOL     OW 5712   5.292   1.132   7.763
 1272SOL    HW1 5713   5.270   1.133   7.856
 1272SOL    HW2 5714   5.356   1.062   7.754
 1273SOL     OW 5715  11.426  13.933   1.417
 1273SOL    HW1 5716  11.449  13.840   1.412
 1273SOL    HW2 5717  11.470  13.965   1.496
 1274SOL     OW 5718   2.459   6.411   7.331
 1274SOL    HW1 5719   2.532   6.356   7.360
 1274SOL    HW2 5720   2.407   6.354   7.275
 1275SOL     OW 5721   6.761   1.334   5.613
 1275SOL    HW1 5722   6.710   1.282   5.550
 1275SOL    HW2 5723   6.783   1.272   5.682
 1276SOL     OW 5724  10.780   3.538  14.649
 1276SOL    HW1 5725  10.765   3.611  14.709
 1276SOL    HW2 5726  10.873   3.546  14.625
 1277SOL     OW 5727  12.724   0.533   4.139
 1277SOL    HW1 5728  12.780   0.587   4.084
 1277SOL    HW2 5729  12.665   0.490   4.078
 1278SOL     OW 5730   4.465  12.009   4.435
 1278SOL    HW1 5731   4.491  12.097   4.464
 1278SOL    HW2 5732   4.441  11.964   4.516
 1279SOL     OW 5733  14.061  12.013   8.234
 1279SOL    HW1 5734  14.035  12.105   8.219
 1279SOL    HW2 5735  14.147  12.018   8.274
 1280SOL     OW 5736   9.003  10.820   3.948
 1280SOL    HW1 5737   9.098  10.821   3.939
 1280SOL    HW2 5738   8.971  10.779   3.868
 1281SOL     OW 5739  12.279   7.559  12.782
 1281SOL    HW1 5740  12.239   7.592  12.862
 1281SOL    HW2 5741  12.310   7.471  12.804
 1282SOL     OW 5742   8.990  10.309   4.944
 1282SOL    HW1 5743   8.913  10.307   4.888
 1282SOL    HW2 5744   8.977  10.386   5.000
 1283SOL     OW 5745  11.466   0.018   4.674
 1283SOL    HW1 5746  11.389   0.075   4.671
 1283SOL    HW2 5747  11.493   0.019   4.766
 1284SOL     OW 5748   1.536  10.401   2.335
 1284SOL    HW1 5749   1.558  10.466   2.401
 1284SOL    HW2 5750   1.568  10.319   2.371
 1285SOL     OW 5751   6.156  14.237   5.265
 1285SOL    HW1 5752   6.218  14.305   5.239
 1285SOL    HW2 5753   6.072  14.266   5.229
 1286SOL     OW 5754   4.352  12.877  12.428
 1286SOL    HW1 5755   4.352  12.795  12.478
 1286SOL    HW2 5756   4.435  12.919  12.451
 1287SOL     OW 5757   9.011   1.496  10.504
 1287SOL    HW1 5758   9.048   1.464  10.587
 1287SOL    HW2 5759   8.943   1.557  10.531
 1288SOL     OW 5760   0.423  13.326   5.671
 1288SOL    HW1 5761   0.358  13.364   5.730
 1288SOL    HW2 5762   0.494  13.390   5.670
 1289SOL     OW 5763   6.223   8.407  13.004
 1289SOL    HW1 5764   6.235   8.499  12.984
 1289SOL    HW2 5765   6.173   8.373  12.930
 1290SOL     OW 5766  13.220   2.502   1.957
 1290SOL    HW1 5767  13.149   2.437   1.964
 1290SOL    HW2 5768  13.188   2.565   1.893
 1291SOL     OW 5769   4.754  12.463  13.531
 1291SOL    HW1 5770   4.695  12.408  13.480
 1291SOL    HW2 5771   4.840  12.450  13.489
 1292SOL     OW 5772   8.054  11.166  12.167
 1292SOL    HW1 5773   7.977  11.222  12.155
 1292SOL    HW2 5774   8.066  11.124  12.082
 1293SOL     OW 5775   2.234   7.098   3.095
 1293SOL    HW1 5776   2.165   7.045   3.057
 1293SOL    HW2 5777   2.192   7.182   3.116
 1294SOL     OW 5778   4.095   6.250   3.508
 1294SOL    HW1 5779   4.052   6.165   3.506
 1294SOL    HW2 5780   4.028   6.311   3.538
 1295SOL     OW 5781   0.911   5.558   2.818
 1295SOL    HW1 5782   0.931   5.504   2.895
 1295SOL    HW2 5783   0.851   5.504   2.767
 1296SOL     OW 5784   8.665   0.558   1.417
 1296SOL    HW1 5785   8.713   0.602   1.347
 1296SOL    HW2 5786   8.687   0.465   1.407
 1297SOL     OW 5787   9.328  13.470   7.101
 1297SOL    HW1 5788   9.287  13.452   7.185
 1297SOL    HW2 5789   9.355  13.384   7.068
 1298SOL     OW 5790  12.425   8.782  10.552
 1298SOL    HW1 5791  12.452   8.705  10.502
 1298SOL    HW2 5792  12.331   8.789  10.536
 1299SOL     OW 5793   6.779   8.026   4.892
 1299SOL    HW1 5794   6.835   8.094   4.854
 1299SOL    HW2 5795   6.781   8.043   4.986
 1300SOL     OW 5796   3.063  11.197   5.035
 1300SOL    HW1 5797   3.006  11.138   5.084
 1300SOL    HW2 5798   3.074  11.273   5.092
 1301SOL     OW 5799  12.106  11.925   2.495
 1301SOL    HW1 5800  12.114  12.004   2.442
 1301SOL    HW2 5801  12.110  11.956   2.585
 1302SOL     OW 5802   0.782   9.710   8.100
 1302SOL    HW1 5803   0.841   9.777   8.065
 1302SOL    HW2 5804   0.732   9.755   8.168
 1303SOL     OW 5805  14.868   7.345   4.599
 1303SOL    HW1 5806   0.077   7.358   4.572
 1303SOL    HW2 5807  14.856   7.407   4.671
 1304SOL     OW 5808   4.476  11.077  10.861
 1304SOL    HW1 5809   4.445  11.044  10.945
 1304SOL    HW2 5810   4.408  11.053  10.799
 1305SOL     OW 5811  14.251   5.732   8.170
 1305SOL    HW1 5812  14.319   5.711   8.235
 1305SOL    HW2 5813  14.177   5.676   8.195
 1306SOL     OW 5814   8.850   4.800   1.196
 1306SOL    HW1 5815   8.827   4.886   1.231
 1306SOL    HW2 5816   8.942   4.789   1.219
 1307SOL     OW 5817  11.662  13.505   9.270
 1307SOL    HW1 5818  11.710  13.493   9.352
 1307SOL    HW2 5819  11.577  13.540   9.298
 1308SOL     OW 5820   7.142   4.429   5.148
 1308SOL    HW1 5821   7.164   4.355   5.205
 1308SOL    HW2 5822   7.222   4.445   5.098
 1309SOL     OW 5823   9.500   5.994  13.319
 1309SOL    HW1 5824   9.586   6.036  13.315
 1309SOL    HW2 5825   9.464   6.003  13.231
 1310SOL     OW 5826   8.799  11.147   2.026
 1310SOL    HW1 5827   8.771  11.058   2.047
 1310SOL    HW2 5828   8.840  11.179   2.107
 1311SOL     OW 5829  11.044   4.936  12.480
 1311SOL    HW1 5830  11.131   4.973  12.468
 1311SOL    HW2 5831  11.024   4.893  12.396
 1312SOL     OW 5832  10.420   0.462   0.509
 1312SOL    HW1 5833  10.421   0.504   0.595
 1312SOL    HW2 5834  10.402   0.534   0.448
 1313SOL     OW 5835   5.831   5.606   9.512
 1313SOL    HW1 5836   5.887   5.583   9.437
 1313SOL    HW2 5837   5.823   5.525   9.561
 1314SOL     OW 5838   8.020   2.220   7.084
 1314SOL    HW1 5839   8.039   2.143   7.137
 1314SOL    HW2 5840   8.060   2.292   7.132
 1315SOL     OW 5841  14.804  13.704  10.088
 1315SOL    HW1 5842  14.791  13.612  10.066
 1315SOL    HW2 5843  14.715  13.738  10.100
 1316SOL     OW 5844   2.850   2.538   9.868
 1316SOL    HW1 5845   2.934   2.509   9.903
 1316SOL    HW2 5846   2.785   2.501   9.928
 1317SOL     OW 5847  12.752   6.297   7.913
 1317SOL    HW1 5848  12.826   6.338   7.868
 1317SOL    HW2 5849  12.675   6.337   7.872
 1318SOL     OW 5850  14.598   0.802   3.289
 1318SOL    HW1 5851  14.682   0.794   3.336
 1318SOL    HW2 5852  14.623   0.806   3.197
 1319SOL     OW 5853   9.477   4.274  11.224
 1319SOL    HW1 5854   9.509   4.346  11.169
 1319SOL    HW2 5855   9.413   4.315  11.283
 1320SOL     OW 5856   3.223   8.692  10.972
 1320SOL    HW1 5857   3.219   8.693  11.068
 1320SOL    HW2 5858   3.134   8.668  10.945
 1321SOL     OW 5859   7.865   6.680   0.992
 1321SOL    HW1 5860   7.854   6.741   1.064
 1321SOL    HW2 5861   7.893   6.598   1.034
 1322SOL     OW 5862   7.510  13.250   0.021
 1322SOL    HW1 5863   7.432  13.202   0.049
 1322SOL    HW2 5864   7.579  13.222   0.081
 1323SOL     OW 5865   8.127   1.005   1.503
 1323SOL    HW1 5866   8.173   0.979   1.423
 1323SOL    HW2 5867   8.186   1.069   1.544
 1324SOL     OW 5868  13.863  11.821   3.541
 1324SOL    HW1 5869  13.862  11.846   3.449
 1324SOL    HW2 5870  13.818  11.893   3.586
 1325SOL     OW 5871   0.682  12.084   3.825
 1325SOL    HW1 5872   0.621  12.098   3.753
 1325SOL    HW2 5873   0.729  12.167   3.834
 1326SOL     OW 5874  13.032  14.020   1.758
 1326SOL    HW1 5875  13.077  14.097   1.792
 1326SOL    HW2 5876  12.979  13.988   1.831
 1327SOL     OW 5877  11.057   1.045  13.714
 1327SOL    HW1 5878  10.972   1.080  13.687
 1327SOL    HW2 5879  11.116   1.121  13.710
 1328SOL     OW 5880  14.451   3.155  11.552
 1328SOL    HW1 5881  14.431   3.072  11.508
 1328SOL    HW2 5882  14.446   3.134  11.645
 1329SOL     OW 5883   1.345  12.036   5.531
 1329SOL    HW1 5884   1.363  12.116   5.481
 1329SOL    HW2 5885   1.429  12.015   5.573
 1330SOL     OW 5886   1.313   7.083  14.464
 1330SOL    HW1 5887   1.364   7.072  14.384
 1330SOL    HW2 5888   1.329   7.174  14.491
 1331SOL     OW 5889   0.516  11.812   3.656
 1331SOL    HW1 5890   0.557  11.795   3.741
 1331SOL    HW2 5891   0.524  11.906   3.644
 1332SOL     OW 5892   8.306  10.543   3.830
 1332SOL    HW1 5893   8.381  10.522   3.885
 1332SOL    HW2 5894   8.340  10.605   3.765
 1333SOL     OW 5895  11.176  13.788   1.769
 1333SOL    HW1 5896  11.101  13.742   1.731
 1333SOL    HW2 5897  11.159  13.788   1.863
 1334SOL     OW 5898   0.353  14.099  13.249
 1334SOL    HW1 5899   0.280  14.090  13.310
 1334SOL    HW2 5900   0.340  14.185  13.208
 1335SOL     OW 5901   8.603   8.232  14.240
 1335SOL    HW1 5902   8.628   8.275  14.322
 1335SOL    HW2 5903   8.529   8.176  14.263
 1336SOL     OW 5904   2.281  12.323   7.220
 1336SOL    HW1 5905   2.368  12.303   7.254
 1336SOL    HW2 5906   2.264  12.413   7.248
 1337SOL     OW 5907   9.841  12.335   3.379
 1337SOL    HW1 5908   9.798  12.278   3.314
 1337SOL    HW2 5909   9.832  12.288   3.462
 1338SOL     OW 5910   4.192   1.217   2.646
 1338SOL    HW1 5911   4.262   1.242   2.706
 1338SOL    HW2 5912   4.203   1.275   2.571
 1339SOL     OW 5913   7.724   2.531   8.179
 1339SOL    HW1 5914   7.815   2.558   8.182
 1339SOL    HW2 5915   7.726   2.443   8.141
 1340SOL     OW 5916  10.120  13.661   0.450
 1340SOL    HW1 5917  10.159  13.742   0.416
 1340SOL    HW2 5918  10.026  13.673   0.437
 1341SOL     OW 5919   9.454   2.307   4.895
 1341SOL    HW1 5920   9.467   2.276   4.805
 1341SOL    HW2 5921   9.402   2.387   4.885
 1342SOL     OW 5922   3.433   0.853  11.287
 1342SOL    HW1 5923   3.346   0.813  11.281
 1342SOL    HW2 5924   3.426   0.915  11.359
 1343SOL     OW 5925  13.739   4.156   2.133
 1343SOL    HW1 5926  13.780   4.072   2.111
 1343SOL    HW2 5927  13.705   4.143   2.221
 1344SOL     OW 5928   8.825  13.462   5.502
 1344SOL    HW1 5929   8.802  13.552   5.523
 1344SOL    HW2 5930   8.750  13.410   5.531
 1345SOL     OW 5931   7.946   8.698   6.609
 1345SOL    HW1 5932   7.890   8.762   6.654
 1345SOL    HW2 5933   7.930   8.713   6.516
 1346SOL     OW 5934   0.099   8.296   4.667
 1346SOL    HW1 5935   0.168   8.243   4.709
 1346SOL    HW2 5936   0.033   8.306   4.735
 1347SOL     OW 5937  12.475   1.635   9.014
 1347SOL    HW1 5938  12.517   1.694   9.077
 1347SOL    HW2 5939  12.406   1.592   9.064
 1348SOL     OW 5940   5.400  13.458   2.694
 1348SOL    HW1 5941   5.336  13.504   2.639
 1348SOL    HW2 5942   5.430  13.385   2.640
 1349SOL     OW 5943   7.289  13.337  10.022
 1349SOL    HW1 5944   7.375  13.379  10.027
 1349SOL    HW2 5945   7.244  13.382   9.950
 1350SOL     OW 5946  13.356   3.232  14.342
 1350SOL    HW1 5947  13.443   3.192  14.335
 1350SOL    HW2 5948  13.342   3.244  14.435
 1351SOL     OW 5949  14.550   8.397   7.192
 1351SOL    HW1 5950  14.526   8.453   7.266
 1351SOL    HW2 5951  14.488   8.325   7.194
 1352SOL     OW 5952  10.685   5.792   4.618
 1352SOL    HW1 5953  10.600   5.835   4.603
 1352SOL    HW2 5954  10.727   5.793   4.532
 1353SOL     OW 5955   1.544   5.268  11.151
 1353SOL    HW1 5956   1.606   5.198  11.171
 1353SOL    HW2 5957   1.458   5.228  11.165
 1354SOL     OW 5958   5.982   8.341  10.457
 1354SOL    HW1 5959   5.899   8.341  10.411
 1354SOL    HW2 5960   6.046   8.367  10.391
 1355SOL     OW 5961   9.035   1.079   6.668
 1355SOL    HW1 5962   9.059   1.041   6.753
 1355SOL    HW2 5963   9.004   1.167   6.690
 1356SOL     OW 5964   7.254   5.546   8.532
 1356SOL    HW1 5965   7.227   5.638   8.533
 1356SOL    HW2 5966   7.225   5.513   8.448
 1357SOL     OW 5967  12.645   8.187   8.020
 1357SOL    HW1 5968  12.738   8.194   7.999
 1357SOL    HW2 5969  12.614   8.113   7.967
 1358SOL     OW 5970   7.561   0.076  11.440
 1358SOL    HW1 5971   7.491   0.140  11.431
 1358SOL    HW2 5972   7.519  14.874  11.420
 1359SOL     OW 5973   9.113   9.830   3.873
 1359SOL    HW1 5974   9.145   9.895   3.811
 1359SOL    HW2 5975   9.192   9.793   3.913
 1360SOL     OW 5976   4.899   7.519  13.978
 1360SOL    HW1 5977   4.932   7.440  14.022
 1360SOL    HW2 5978   4.915   7.589  14.041
 1361SOL     OW 5979  12.300   7.333   4.692
 1361SOL    HW1 5980  12.219   7.342   4.743
 1361SOL    HW2 5981  12.352   7.269   4.740
 1362SOL     OW 5982   4.548  10.609   5.127
 1362SOL    HW1 5983   4.570  10.687   5.076
 1362SOL    HW2 5984   4.579  10.536   5.073
 1363SOL     OW 5985   0.052  14.819   2.950
 1363SOL    HW1 5986  14.865  14.881   2.927
 1363SOL    HW2 5987   0.098  14.803   2.867
 1364SOL     OW 5988   0.739  12.739   5.115
 1364SOL    HW1 5989   0.786  12.813   5.153
 1364SOL    HW2 5990   0.671  12.778   5.061
 1365SOL     OW 5991   4.614  11.114   1.394
 1365SOL    HW1 5992   4.613  11.186   1.330
 1365SOL    HW2 5993   4.549  11.052   1.361
 1366SOL     OW 5994   6.412  10.631  14.832
 1366SOL    HW1 5995   6.365  10.581  14.765
 1366SOL    HW2 5996   6.422  10.569   0.023
 1367SOL     OW 5997   1.771   4.431  12.744
 1367SOL    HW1 5998   1.804   4.480  12.669
 1367SOL    HW2 5999   1.778   4.492  12.818
 1368SOL     OW 6000  14.205   8.687   0.757
 1368SOL    HW1 6001  14.122   8.659   0.718
 1368SOL    HW2 6002  14.256   8.720   0.683
 1369SOL     OW 6003  14.396   4.018   0.844
 1369SOL    HW1 6004  14.344   3.938   0.831
 1369SOL    HW2 6005  14.420   4.016   0.937
 1370SOL     OW 6006   9.505   7.672   8.051
 1370SOL    HW1 6007   9.430   7.720   8.016
 1370SOL    HW2 6008   9.570   7.673   7.980
 1371SOL     OW 6009  12.884   3.796  13.534
 1371SOL    HW1 6010  12.832   3.829  13.607
 1371SOL    HW2 6011  12.850   3.708  13.518
 1372SOL     OW 6012  12.830   4.181   6.974
 1372SOL    HW1 6013  12.751   4.175   6.919
 1372SOL    HW2 6014  12.802   4.233   7.050
 1373SOL     OW 6015   1.868   3.339  14.561
 1373SOL    HW1 6016   1.821   3.363  14.482
 1373SOL    HW2 6017   1.885   3.245  14.552
 1374SOL     OW 6018  13.754   6.462  13.956
 1374SOL    HW1 6019  13.757   6.533  14.020
 1374SOL    HW2 6020  13.774   6.383  14.007
 1375SOL     OW 6021   0.035   0.350  10.276
 1375SOL    HW1 6022  14.881   0.380  10.360
 1375SOL    HW2 6023   0.080   0.269  10.297
 1376SOL     OW 6024  13.216   5.763   7.908
 1376SOL    HW1 6025  13.276   5.829   7.945
 1376SOL    HW2 6026  13.184   5.804   7.827
 1377SOL     OW 6027   4.826  14.558  14.124
 1377SOL    HW1 6028   4.738  14.596  14.132
 1377SOL    HW2 6029   4.877  14.626  14.079
 1378SOL     OW 6030  13.519   8.006  12.178
 1378SOL    HW1 6031  13.451   7.967  12.123
 1378SOL    HW2 6032  13.552   8.079  12.126
 1379SOL     OW 6033   3.905   6.947   0.615
 1379SOL    HW1 6034   3.919   7.040   0.596
 1379SOL    HW2 6035   3.849   6.917   0.543
 1380SOL     OW 6036  11.115   1.384   0.566
 1380SOL    HW1 6037  11.195   1.431   0.543
 1380SOL    HW2 6038  11.140   1.292   0.569
 1381SOL     OW 6039   1.606   1.172  11.908
 1381SOL    HW1 6040   1.619   1.122  11.988
 1381SOL    HW2 6041   1.650   1.121  11.840
 1382SOL     OW 6042   6.741  12.569   9.182
 1382SOL    HW1 6043   6.723  12.648   9.131
 1382SOL    HW2 6044   6.831  12.546   9.160
 1383SOL     OW 6045   5.999  10.524   7.107
 1383SOL    HW1 6046   5.928  10.550   7.049
 1383SOL    HW2 6047   6.072  10.502   7.049
 1384SOL     OW 6048   2.608   7.025  10.396
 1384SOL    HW1 6049   2.699   7.052  10.386
 1384SOL    HW2 6050   2.611   6.948  10.452
 1385SOL     OW 6051  13.912   7.166   1.870
 1385SOL    HW1 6052  13.951   7.163   1.782
 1385SOL    HW2 6053  13.957   7.237   1.914
 1386SOL     OW 6054   3.803   2.177   4.233
 1386SOL    HW1 6055   3.872   2.230   4.193
 1386SOL    HW2 6056   3.844   2.136   4.309
 1387SOL     OW 6057  10.470   2.732   5.762
 1387SOL    HW1 6058  10.448   2.658   5.705
 1387SOL    HW2 6059  10.479   2.806   5.702
 1388SOL     OW 6060   9.748  12.502   2.398
 1388SOL    HW1 6061   9.830  12.486   2.351
 1388SOL    HW2 6062   9.681  12.503   2.329
 1389SOL     OW 6063  13.204   1.038   9.305
 1389SOL    HW1 6064  13.189   1.132   9.316
 1389SOL    HW2 6065  13.148   0.997   9.371
 1390SOL     OW 6066  12.675   8.981  14.866
 1390SOL    HW1 6067  12.668   9.040  14.792
 1390SOL    HW2 6068  12.766   8.990   0.013
 1391SOL     OW 6069   2.893   7.406  10.779
 1391SOL    HW1 6070   2.972   7.352  10.776
 1391SOL    HW2 6071   2.845   7.383  10.699
 1392SOL     OW 6072   6.216   0.904   6.671
 1392SOL    HW1 6073   6.239   0.992   6.641
 1392SOL    HW2 6074   6.296   0.872   6.713
 1393SOL     OW 6075   6.134   4.745  14.128
 1393SOL    HW1 6076   6.185   4.673  14.165
 1393SOL    HW2 6077   6.198   4.797  14.080
 1394SOL     OW 6078   3.143   3.695   6.675
 1394SOL    HW1 6079   3.201   3.667   6.746
 1394SOL    HW2 6080   3.168   3.640   6.601
 1395SOL     OW 6081   2.835  12.098   8.946
 1395SOL    HW1 6082   2.915  12.070   8.991
 1395SOL    HW2 6083   2.816  12.185   8.982
 1396SOL     OW 6084   1.927  12.866  14.781
 1396SOL    HW1 6085   2.001  12.817  14.817
 1396SOL    HW2 6086   1.893  12.916  14.856
 1397SOL     OW 6087   4.119   7.499  14.565
 1397SOL    HW1 6088   4.037   7.463  14.529
 1397SOL    HW2 6089   4.105   7.501  14.659
 1398SOL     OW 6090   2.882  10.926   7.579
 1398SOL    HW1 6091   2.794  10.912   7.613
 1398SOL    HW2 6092   2.874  10.909   7.485
 1399SOL     OW 6093   0.544   3.708  12.200
 1399SOL    HW1 6094   0.509   3.797  12.204
 1399SOL    HW2 6095   0.637   3.719  12.224
 1400SOL     OW 6096   1.301   1.798  14.072
 1400SOL    HW1 6097   1.305   1.739  13.997
 1400SOL    HW2 6098   1.208   1.819  14.081
 1401SOL     OW 6099   7.861   6.637  11.877
 1401SOL    HW1 6100   7.907   6.554  11.866
 1401SOL    HW2 6101   7.803   6.642  11.802
 1402SOL     OW 6102  10.378   5.882   7.687
 1402SOL    HW1 6103  10.319   5.954   7.712
 1402SOL    HW2 6104  10.460   5.925   7.665
 1403SOL     OW 6105   6.916   3.280   8.581
 1403SOL    HW1 6106   6.925   3.196   8.536
 1403SOL    HW2 6107   7.001   3.296   8.621
 1404SOL     OW 6108   9.644   4.084  14.493
 1404SOL    HW1 6109   9.569   4.046  14.448
 1404SOL    HW2 6110   9.609   4.118  14.575
 1405SOL     OW 6111   2.026  10.000   4.991
 1405SOL    HW1 6112   1.958  10.038   4.935
 1405SOL    HW2 6113   2.105  10.003   4.937
 1406SOL     OW 6114  10.466   6.079  14.314
 1406SOL    HW1 6115  10.381   6.069  14.357
 1406SOL    HW2 6116  10.474   6.174  14.299
 1407SOL     OW 6117   3.039  13.775  10.410
 1407SOL    HW1 6118   2.992  13.712  10.356
 1407SOL    HW2 6119   3.113  13.726  10.446
 1408SOL     OW 6120  10.397   4.929  11.934
 1408SOL    HW1 6121  10.454   4.915  11.858
 1408SOL    HW2 6122  10.447   4.895  12.008
 1409SOL     OW 6123  13.542   5.692  12.428
 1409SOL    HW1 6124  13.531   5.645  12.345
 1409SOL    HW2 6125  13.468   5.664  12.482
 1410SOL     OW 6126  12.414   4.388  14.086
 1410SOL    HW1 6127  12.435   4.450  14.156
 1410SOL    HW2 6128  12.480   4.319  14.094
 1411SOL     OW 6129   6.499  10.645   3.958
 1411SOL    HW1 6130   6.594  10.657   3.948
 1411SOL    HW2 6131   6.484  10.554   3.932
 1412SOL     OW 6132   0.454   2.305  12.519
 1412SOL    HW1 6133   0.496   2.231  12.475
 1412SOL    HW2 6134   0.500   2.382  12.486
 1413SOL     OW 6135  10.256  10.913  12.370
 1413SOL    HW1 6136  10.337  10.864  12.359
 1413SOL    HW2 6137  10.234  10.942  12.281
 1414SOL     OW 6138   6.321   8.290  10.371
 1414SOL    HW1 6139   6.398   8.243  10.404
 1414SOL    HW2 6140   6.251   8.269  10.433
 1415SOL     OW 6141   1.389   5.314   5.593
 1415SOL    HW1 6142   1.440   5.383   5.551
 1415SOL    HW2 6143   1.390   5.241   5.530
 1416SOL     OW 6144  13.007  14.271  14.666
 1416SOL    HW1 6145  13.070  14.305  14.730
 1416SOL    HW2 6146  12.925  14.316  14.687
 1417SOL     OW 6147   4.852   9.706   5.064
 1417SOL    HW1 6148   4.854   9.647   4.988
 1417SOL    HW2 6149   4.844   9.648   5.139
 1418SOL     OW 6150   8.924   1.158   8.240
 1418SOL    HW1 6151   8.879   1.080   8.210
 1418SOL    HW2 6152   8.867   1.194   8.308
 1419SOL     OW 6153  11.451  13.430   5.431
 1419SOL    HW1 6154  11.387  13.364   5.403
 1419SOL    HW2 6155  11.435  13.441   5.525
 1420SOL     OW 6156   1.382   5.473   5.841
 1420SOL    HW1 6157   1.389   5.562   5.806
 1420SOL    HW2 6158   1.384   5.417   5.764
 1421SOL     OW 6159   7.416   6.160  12.370
 1421SOL    HW1 6160   7.384   6.084  12.321
 1421SOL    HW2 6161   7.370   6.235  12.332
 1422SOL     OW 6162   2.845   6.276   3.484
 1422SOL    HW1 6163   2.891   6.313   3.409
 1422SOL    HW2 6164   2.894   6.196   3.505
 1423SOL     OW 6165   3.604   1.324  12.865
 1423SOL    HW1 6166   3.563   1.387  12.806
 1423SOL    HW2 6167   3.620   1.247  12.811
 1424SOL     OW 6168   4.311   4.666   9.791
 1424SOL    HW1 6169   4.382   4.602   9.797
 1424SOL    HW2 6170   4.300   4.698   9.881
 1425SOL     OW 6171  12.503   1.105  12.810
 1425SOL    HW1 6172  12.468   1.119  12.722
 1425SOL    HW2 6173  12.441   1.148  12.868
 1426SOL     OW 6174   9.025   8.923   8.839
 1426SOL    HW1 6175   9.021   8.877   8.922
 1426SOL    HW2 6176   8.950   8.891   8.789
 1427SOL     OW 6177  10.548   2.184  14.193
 1427SOL    HW1 6178  10.622   2.223  14.146
 1427SOL    HW2 6179  10.575   2.184  14.285
 1428SOL     OW 6180   7.436   8.823   7.233
 1428SOL    HW1 6181   7.490   8.774   7.171
 1428SOL    HW2 6182   7.499   8.871   7.286
 1429SOL     OW 6183   5.993   6.185  10.588
 1429SOL    HW1 6184   5.974   6.118  10.653
 1429SOL    HW2 6185   5.976   6.143  10.504
 1430SOL     OW 6186   9.208  10.530  13.757
 1430SOL    HW1 6187   9.113  10.534  13.772
 1430SOL    HW2 6188   9.235  10.622  13.754
 1431SOL     OW 6189  10.360  12.860   3.287
 1431SOL    HW1 6190  10.342  12.954   3.285
 1431SOL    HW2 6191  10.281  12.821   3.324
 1432SOL     OW 6192   4.587  13.835  14.723
 1432SOL    HW1 6193   4.494  13.821  14.737
 1432SOL    HW2 6194   4.612  13.902  14.787
 1433SOL     OW 6195  14.206   4.639   0.170
 1433SOL    HW1 6196  14.223   4.693   0.248
 1433SOL    HW2 6197  14.275   4.572   0.173
 1434SOL     OW 6198   3.378  13.178   0.727
 1434SOL    HW1 6199   3.351  13.185   0.819
 1434SOL    HW2 6200   3.307  13.128   0.685
 1435SOL     OW 6201   0.779   6.217  11.316
 1435SOL    HW1 6202   0.846   6.266  11.363
 1435SOL    HW2 6203   0.780   6.130  11.356
 1436SOL     OW 6204   0.548  14.744   6.217
 1436SOL    HW1 6205   0.538  14.780   6.305
 1436SOL    HW2 6206   0.635  14.703   6.218
 1437SOL     OW 6207   3.974   0.731   7.263
 1437SOL    HW1 6208   3.896   0.689   7.299
 1437SOL    HW2 6209   3.949   0.758   7.175
 1438SOL     OW 6210   1.796   4.044   0.688
 1438SOL    HW1 6211   1.828   4.057   0.599
 1438SOL    HW2 6212   1.782   4.132   0.722
 1439SOL     OW 6213   1.614  11.946   5.166
 1439SOL    HW1 6214   1.675  11.969   5.096
 1439SOL    HW2 6215   1.650  11.866   5.204
 1440SOL     OW 6216  11.967   3.968   9.669
 1440SOL    HW1 6217  11.999   3.928   9.588
 1440SOL    HW2 6218  11.872   3.956   9.665
 1441SOL     OW 6219   2.220   0.614  14.634
 1441SOL    HW1 6220   2.135   0.588  14.596
 1441SOL    HW2 6221   2.261   0.667  14.566
 1442SOL     OW 6222   9.286   1.756   6.258
 1442SOL    HW1 6223   9.213   1.815   6.240
 1442SOL    HW2 6224   9.244   1.676   6.290
 1443SOL     OW 6225  12.085   0.867   3.488
 1443SOL    HW1 6226  12.023   0.940   3.487
 1443SOL    HW2 6227  12.171   0.908   3.496
 1444SOL     OW 6228   2.584   3.428   9.910
 1444SOL    HW1 6229   2.644   3.398   9.842
 1444SOL    HW2 6230   2.641   3.469   9.976
 1445SOL     OW 6231   4.073   2.996   9.859
 1445SOL    HW1 6232   4.097   3.088   9.844
 1445SOL    HW2 6233   3.990   2.986   9.813
 1446SOL     OW 6234   9.583   9.380   1.486
 1446SOL    HW1 6235   9.497   9.356   1.519
 1446SOL    HW2 6236   9.616   9.446   1.547
 1447SOL     OW 6237   7.392   8.077  10.566
 1447SOL    HW1 6238   7.319   8.138  10.565
 1447SOL    HW2 6239   7.460   8.123  10.615
 1448SOL     OW 6240  10.630   7.131   8.807
 1448SOL    HW1 6241  10.718   7.150   8.841
 1448SOL    HW2 6242  10.619   7.193   8.735
 1449SOL     OW 6243  12.696  14.840   0.716
 1449SOL    HW1 6244  12.604  14.846   0.689
 1449SOL    HW2 6245  12.728  14.761   0.674
 1450SOL     OW 6246   6.298   9.763   1.323
 1450SOL    HW1 6247   6.308   9.734   1.413
 1450SOL    HW2 6248   6.249   9.694   1.280
 1451SOL     OW 6249   0.060   8.267  12.956
 1451SOL    HW1 6250   0.006   8.292  13.031
 1451SOL    HW2 6251   0.134   8.220  12.994
 1452SOL     OW 6252   0.898  13.648   3.549
 1452SOL    HW1 6253   0.969  13.606   3.500
 1452SOL    HW2 6254   0.820  13.633   3.496
 1453SOL     OW 6255   8.536  11.060   8.642
 1453SOL    HW1 6256   8.586  11.078   8.563
 1453SOL    HW2 6257   8.546  10.965   8.656
 1454SOL     OW 6258   2.339   0.397   2.203
 1454SOL    HW1 6259   2.341   0.427   2.112
 1454SOL    HW2 6260   2.431   0.379   2.224
 1455SOL     OW 6261   1.527  11.171   0.868
 1455SOL    HW1 6262   1.437  11.159   0.838
 1455SOL    HW2 6263   1.581  11.150   0.792
 1456SOL     OW 6264  10.540  13.190   2.310
 1456SOL    HW1 6265  10.584  13.264   2.353
 1456SOL    HW2 6266  10.448  13.216   2.305
 1457SOL     OW 6267   4.628  12.590  13.981
 1457SOL    HW1 6268   4.623  12.504  13.941
 1457SOL    HW2 6269   4.576  12.646  13.924
 1458SOL     OW 6270   6.448  10.452   4.876
 1458SOL    HW1 6271   6.543  10.461   4.867
 1458SOL    HW2 6272   6.421  10.533   4.918
 1459SOL     OW 6273  12.739  10.845   2.497
 1459SOL    HW1 6274  12.747  10.881   2.409
 1459SOL    HW2 6275  12.659  10.794   2.495
 1460SOL     OW 6276   3.037   3.373   7.258
 1460SOL    HW1 6277   3.107   3.365   7.322
 1460SOL    HW2 6278   2.968   3.422   7.303
 1461SOL     OW 6279  13.549   4.936   0.669
 1461SOL    HW1 6280  13.582   4.847   0.653
 1461SOL    HW2 6281  13.621   4.993   0.641
 1462SOL     OW 6282   6.939  10.918   6.423
 1462SOL    HW1 6283   6.982  10.886   6.503
 1462SOL    HW2 6284   6.997  10.987   6.390
 1463SOL     OW 6285   1.996   5.413  11.176
 1463SOL    HW1 6286   1.908   5.418  11.214
 1463SOL    HW2 6287   2.051   5.460  11.238
 1464SOL     OW 6288   2.532   9.766   3.167
 1464SOL    HW1 6289   2.550   9.839   3.108
 1464SOL    HW2 6290   2.472   9.710   3.118
 1465SOL     OW 6291  11.557  10.381   2.543
 1465SOL    HW1 6292  11.471  10.348   2.567
 1465SOL    HW2 6293  11.539  10.453   2.482
 1466SOL     OW 6294   8.466   7.261   2.485
 1466SOL    HW1 6295   8.484   7.195   2.552
 1466SOL    HW2 6296   8.544   7.315   2.483
 1467SOL     OW 6297  10.692   0.282   2.709
 1467SOL    HW1 6298  10.785   0.284   2.729
 1467SOL    HW2 6299  10.655   0.216   2.768
 1468SOL     OW 6300   7.817   3.935   9.613
 1468SOL    HW1 6301   7.879   4.006   9.627
 1468SOL    HW2 6302   7.788   3.946   9.522
 1469SOL     OW 6303  11.067   7.337   9.609
 1469SOL    HW1 6304  11.022   7.330   9.525
 1469SOL    HW2 6305  11.031   7.266   9.662
 1470SOL     OW 6306   5.092   9.300   4.045
 1470SOL    HW1 6307   5.127   9.359   4.111
 1470SOL    HW2 6308   5.060   9.359   3.976
 1471SOL     OW 6309   7.411  11.296   4.889
 1471SOL    HW1 6310   7.467  11.229   4.928
 1471SOL    HW2 6311   7.389  11.262   4.802
 1472SOL     OW 6312  14.687   1.470   2.699
 1472SOL    HW1 6313  14.597   1.449   2.723
 1472SOL    HW2 6314  14.733   1.476   2.782
 1473SOL     OW 6315  14.616   3.313   6.283
 1473SOL    HW1 6316  14.552   3.244   6.266
 1473SOL    HW2 6317  14.583   3.388   6.234
 1474SOL     OW 6318   3.616  13.825   8.492
 1474SOL    HW1 6319   3.673  13.759   8.453
 1474SOL    HW2 6320   3.570  13.779   8.561
 1475SOL     OW 6321  12.747   2.320  10.480
 1475SOL    HW1 6322  12.695   2.299  10.557
 1475SOL    HW2 6323  12.761   2.414  10.485
 1476SOL     OW 6324   8.235   1.674   1.224
 1476SOL    HW1 6325   8.193   1.746   1.270
 1476SOL    HW2 6326   8.177   1.655   1.151
 1477SOL     OW 6327  14.613  12.883   1.381
 1477SOL    HW1 6328  14.605  12.883   1.477
 1477SOL    HW2 6329  14.523  12.883   1.349
 1478SOL     OW 6330  10.026   3.536   1.249
 1478SOL    HW1 6331  10.088   3.491   1.192
 1478SOL    HW2 6332   9.946   3.542   1.197
 1479SOL     OW 6333   3.990   0.292   8.634
 1479SOL    HW1 6334   3.980   0.349   8.710
 1479SOL    HW2 6335   3.929   0.328   8.569
 1480SOL     OW 6336   5.836   5.993  11.225
 1480SOL    HW1 6337   5.912   5.968  11.172
 1480SOL    HW2 6338   5.761   5.959  11.176
 1481SOL     OW 6339  12.547   5.393   2.160
 1481SOL    HW1 6340  12.597   5.312   2.146
 1481SOL    HW2 6341  12.582   5.454   2.095
 1482SOL     OW 6342  14.755  14.493  13.425
 1482SOL    HW1 6343  14.830  14.509  13.368
 1482SOL    HW2 6344  14.765  14.557  13.496
 1483SOL     OW 6345   7.791   9.688   2.495
 1483SOL    HW1 6346   7.709   9.731   2.469
 1483SOL    HW2 6347   7.843   9.758   2.536
 1484SOL     OW 6348   1.477   1.274  14.280
 1484SOL    HW1 6349   1.526   1.340  14.232
 1484SOL    HW2 6350   1.534   1.197  14.280
 1485SOL     OW 6351  13.592   0.248   8.648
 1485SOL    HW1 6352  13.552   0.165   8.623
 1485SOL    HW2 6353  13.641   0.229   8.728
 1486SOL     OW 6354  14.204  11.827   6.237
 1486SOL    HW1 6355  14.128  11.797   6.186
 1486SOL    HW2 6356  14.199  11.777   6.319
 1487SOL     OW 6357  13.945   1.472  13.958
 1487SOL    HW1 6358  13.861   1.516  13.941
 1487SOL    HW2 6359  13.943   1.453  14.052
 1488SOL     OW 6360   5.983  10.295   2.431
 1488SOL    HW1 6361   5.901  10.248   2.445
 1488SOL    HW2 6362   5.999  10.288   2.337
 1489SOL     OW 6363   4.378   1.104   1.460
 1489SOL    HW1 6364   4.450   1.120   1.399
 1489SOL    HW2 6365   4.300   1.101   1.405
 1490SOL     OW 6366  11.871   9.753   9.160
 1490SOL    HW1 6367  11.867   9.757   9.064
 1490SOL    HW2 6368  11.959   9.783   9.182
 1491SOL     OW 6369  11.897   4.955  13.942
 1491SOL    HW1 6370  11.850   5.036  13.924
 1491SOL    HW2 6371  11.966   4.952  13.876
 1492SOL     OW 6372  12.868  11.745   2.904
 1492SOL    HW1 6373  12.964  11.749   2.902
 1492SOL    HW2 6374  12.847  11.656   2.876
 1493SOL     OW 6375   9.778  10.613   7.775
 1493SOL    HW1 6376   9.738  10.684   7.725
 1493SOL    HW2 6377   9.762  10.534   7.723
 1494SOL     OW 6378   1.195  11.945   7.288
 1494SOL    HW1 6379   1.180  12.019   7.229
 1494SOL    HW2 6380   1.284  11.917   7.267
 1495SOL     OW 6381   1.370   5.160  14.278
 1495SOL    HW1 6382   1.401   5.108  14.353
 1495SOL    HW2 6383   1.287   5.121  14.254
 1496SOL     OW 6384   3.379   5.417   0.124
 1496SOL    HW1 6385   3.471   5.394   0.138
 1496SOL    HW2 6386   3.371   5.426   0.029
 1497SOL     OW 6387   3.555   0.843   7.347
 1497SOL    HW1 6388   3.471   0.869   7.309
 1497SOL    HW2 6389   3.595   0.926   7.376
 1498SOL     OW 6390   6.368  12.829  11.858
 1498SOL    HW1 6391   6.332  12.862  11.776
 1498SOL    HW2 6392   6.361  12.734  11.851
 1499SOL     OW 6393  14.452   2.021  14.291
 1499SOL    HW1 6394  14.406   2.080  14.349
 1499SOL    HW2 6395  14.387   1.956  14.265
 1500SOL     OW 6396   7.783   6.623   2.174
 1500SOL    HW1 6397   7.853   6.635   2.238
 1500SOL    HW2 6398   7.738   6.544   2.202
 1501SOL     OW 6399   8.988   2.742  11.721
 1501SOL    HW1 6400   9.061   2.801  11.744
 1501SOL    HW2 6401   8.923   2.800  11.682
 1502SOL     OW 6402  12.847   4.194   3.531
 1502SOL    HW1 6403  12.898   4.114   3.548
 1502SOL    HW2 6404  12.795   4.173   3.454
 1503SOL     OW 6405  10.025   9.497   1.407
 1503SOL    HW1 6406  10.060   9.430   1.466
 1503SOL    HW2 6407  10.022   9.455   1.322
 1504SOL     OW 6408   3.544   9.989   5.200
 1504SOL    HW1 6409   3.620   9.932   5.187
 1504SOL    HW2 6410   3.577  10.060   5.255
 1505SOL     OW 6411   0.595   4.532   0.431
 1505SOL    HW1 6412   0.601   4.568   0.520
 1505SOL    HW2 6413   0.624   4.603   0.374
 1506SOL     OW 6414  14.458  14.719  14.225
 1506SOL    HW1 6415  14.483  14.690  14.138
 1506SOL    HW2 6416  14.466  14.814  14.222
 1507SOL     OW 6417   9.537  13.895  13.111
 1507SOL    HW1 6418   9.505  13.829  13.050
 1507SOL    HW2 6419   9.486  13.973  13.091
 1508SOL     OW 6420   1.093  13.420   4.913
 1508SOL    HW1 6421   1.002  13.448   4.913
 1508SOL    HW2 6422   1.090  13.327   4.937
 1509SOL     OW 6423   3.665  12.765  13.018
 1509SOL    HW1 6424   3.654  12.708  12.942
 1509SOL    HW2 6425   3.587  12.821  13.018
 1510SOL     OW 6426   0.096  12.160   3.509
 1510SOL    HW1 6427   0.080  12.248   3.476
 1510SOL    HW2 6428   0.076  12.166   3.603
 1511SOL     OW 6429   4.319   6.303   5.097
 1511SOL    HW1 6430   4.311   6.372   5.031
 1511SOL    HW2 6431   4.362   6.231   5.051
 1512SOL     OW 6432   8.908   3.564  10.927
 1512SOL    HW1 6433   8.982   3.623  10.942
 1512SOL    HW2 6434   8.935   3.481  10.967
 1513SOL     OW 6435   4.703   0.384   3.107
 1513SOL    HW1 6436   4.715   0.323   3.181
 1513SOL    HW2 6437   4.643   0.451   3.140
 1514SOL     OW 6438  11.402  12.265   4.305
 1514SOL    HW1 6439  11.420  12.279   4.399
 1514SOL    HW2 6440  11.331  12.326   4.285
 1515SOL     OW 6441  14.055   7.905  12.751
 1515SOL    HW1 6442  14.148   7.925  12.761
 1515SOL    HW2 6443  14.012   7.989  12.764
 1516SOL     OW 6444   3.226   6.572   4.513
 1516SOL    HW1 6445   3.207   6.484   4.547
 1516SOL    HW2 6446   3.321   6.573   4.503
 1517SOL     OW 6447   7.913  13.139   8.378
 1517SOL    HW1 6448   7.866  13.171   8.455
 1517SOL    HW2 6449   7.972  13.211   8.354
 1518SOL     OW 6450   4.962   6.943   8.111
 1518SOL    HW1 6451   4.946   7.003   8.184
 1518SOL    HW2 6452   5.056   6.929   8.111
 1519SOL     OW 6453   8.471  11.571   6.393
 1519SOL    HW1 6454   8.526  11.573   6.471
 1519SOL    HW2 6455   8.430  11.485   6.394
 1520SOL     OW 6456   8.372   5.163   3.087
 1520SOL    HW1 6457   8.280   5.136   3.080
 1520SOL    HW2 6458   8.397   5.184   2.997
 1521SOL     OW 6459   9.653  14.666   0.426
 1521SOL    HW1 6460   9.715  14.606   0.385
 1521SOL    HW2 6461   9.684  14.753   0.402
 1522SOL     OW 6462   8.504   9.661   9.767
 1522SOL    HW1 6463   8.441   9.717   9.812
 1522SOL    HW2 6464   8.558   9.721   9.717
 1523SOL     OW 6465   4.653   4.834  13.434
 1523SOL    HW1 6466   4.626   4.779  13.360
 1523SOL    HW2 6467   4.723   4.888  13.399
 1524SOL     OW 6468   4.050   5.841   4.231
 1524SOL    HW1 6469   3.955   5.848   4.220
 1524SOL    HW2 6470   4.087   5.872   4.149
 1525SOL     OW 6471   7.342   5.804   7.341
 1525SOL    HW1 6472   7.357   5.798   7.247
 1525SOL    HW2 6473   7.427   5.826   7.378
 1526SOL     OW 6474  10.435  14.685  12.341
 1526SOL    HW1 6475  10.483  14.606  12.317
 1526SOL    HW2 6476  10.411  14.672  12.433
 1527SOL     OW 6477   3.828   9.695   5.343
 1527SOL    HW1 6478   3.784   9.724   5.423
 1527SOL    HW2 6479   3.844   9.601   5.357
 1528SOL     OW 6480   0.170   8.245  10.657
 1528SOL    HW1 6481   0.242   8.297  10.621
 1528SOL    HW2 6482   0.101   8.309  10.677
 1529SOL     OW 6483   7.705   1.004  13.605
 1529SOL    HW1 6484   7.721   1.030  13.696
 1529SOL    HW2 6485   7.744   0.917  13.598
 1530SOL     OW 6486   9.635   7.350   5.449
 1530SOL    HW1 6487   9.720   7.330   5.488
 1530SOL    HW2 6488   9.617   7.275   5.392
 1531SOL     OW 6489   8.080  14.695  12.365
 1531SOL    HW1 6490   8.027  14.697  12.445
 1531SOL    HW2 6491   8.038  14.759  12.307
 1532SOL     OW 6492   8.372   3.098   9.649
 1532SOL    HW1 6493   8.290   3.137   9.617
 1532SOL    HW2 6494   8.420   3.171   9.688
 1533SOL     OW 6495  10.695   8.938   1.979
 1533SOL    HW1 6496  10.631   8.990   1.930
 1533SOL    HW2 6497  10.701   8.856   1.930
 1534SOL     OW 6498  14.213  12.350  10.325
 1534SOL    HW1 6499  14.198  12.429  10.274
 1534SOL    HW2 6500  14.127  12.328  10.361
 1535SOL     OW 6501   4.437  14.134   0.235
 1535SOL    HW1 6502   4.467  14.225   0.234
 1535SOL    HW2 6503   4.352  14.135   0.192
 1536SOL     OW 6504   6.414   8.743  11.919
 1536SOL    HW1 6505   6.456   8.827  11.941
 1536SOL    HW2 6506   6.455   8.717  11.836
 1537SOL     OW 6507   7.443   5.218  10.632
 1537SOL    HW1 6508   7.399   5.294  10.595
 1537SOL    HW2 6509   7.490   5.179  10.559
 1538SOL     OW 6510   1.181  11.932  12.035
 1538SOL    HW1 6511   1.229  11.868  12.088
 1538SOL    HW2 6512   1.171  12.008  12.092
 1539SOL     OW 6513   4.372   6.484   3.555
 1539SOL    HW1 6514   4.400   6.570   3.524
 1539SOL    HW2 6515   4.349   6.436   3.476
 1540SOL     OW 6516   9.899   6.625   7.797
 1540SOL    HW1 6517   9.913   6.566   7.724
 1540SOL    HW2 6518   9.950   6.703   7.777
 1541SOL     OW 6519   9.641  10.925   0.967
 1541SOL    HW1 6520   9.547  10.917   0.950
 1541SOL    HW2 6521   9.660  10.854   1.029
 1542SOL     OW 6522   9.262   8.039   3.974
 1542SOL    HW1 6523   9.194   8.090   3.930
 1542SOL    HW2 6524   9.325   8.104   4.006
 1543SOL     OW 6525   5.096   0.289   9.773
 1543SOL    HW1 6526   5.163   0.221   9.775
 1543SOL    HW2 6527   5.078   0.303   9.680
 1544SOL     OW 6528   1.007  13.557   1.169
 1544SOL    HW1 6529   0.937  13.511   1.122
 1544SOL    HW2 6530   1.081  13.555   1.108
 1545SOL     OW 6531   3.642   6.149   1.844
 1545SOL    HW1 6532   3.703   6.115   1.910
 1545SOL    HW2 6533   3.684   6.130   1.760
 1546SOL     OW 6534   6.619  12.611   8.431
 1546SOL    HW1 6535   6.579  12.698   8.433
 1546SOL    HW2 6536   6.555  12.556   8.388
 1547SOL     OW 6537   0.684   7.775   6.450
 1547SOL    HW1 6538   0.609   7.732   6.490
 1547SOL    HW2 6539   0.684   7.863   6.486
 1548SOL     OW 6540   9.576   1.846   7.525
 1548SOL    HW1 6541   9.671   1.860   7.520
 1548SOL    HW2 6542   9.541   1.899   7.453
 1549SOL     OW 6543   0.399   9.769   1.648
 1549SOL    HW1 6544   0.320   9.716   1.644
 1549SOL    HW2 6545   0.401   9.803   1.737
 1550SOL     OW 6546   0.299  13.525  12.147
 1550SOL    HW1 6547   0.237  13.582  12.192
 1550SOL    HW2 6548   0.249  13.447  12.126
 1551SOL     OW 6549   3.595  10.938  10.175
 1551SOL    HW1 6550   3.615  10.877  10.104
 1551SOL    HW2 6551   3.609  11.025  10.137
 1552SOL     OW 6552   4.050  13.823   5.901
 1552SOL    HW1 6553   4.043  13.835   5.996
 1552SOL    HW2 6554   4.140  13.793   5.887
 1553SOL     OW 6555  14.036  12.545   2.171
 1553SOL    HW1 6556  14.001  12.462   2.140
 1553SOL    HW2 6557  14.044  12.535   2.265
 1554SOL     OW 6558  14.564   7.948  11.116
 1554SOL    HW1 6559  14.523   7.861  11.122
 1554SOL    HW2 6560  14.654   7.930  11.086
 1555SOL     OW 6561   3.703  14.118  13.019
 1555SOL    HW1 6562   3.712  14.064  13.098
 1555SOL    HW2 6563   3.716  14.208  13.051
 1556SOL     OW 6564   7.945   5.311   2.147
 1556SOL    HW1 6565   7.950   5.232   2.093
 1556SOL    HW2 6566   7.952   5.279   2.237
 1557SOL     OW 6567   8.913   2.219   4.686
 1557SOL    HW1 6568   8.936   2.286   4.621
 1557SOL    HW2 6569   8.889   2.142   4.634
 1558SOL     OW 6570  10.107  11.002   3.590
 1558SOL    HW1 6571  10.084  10.913   3.562
 1558SOL    HW2 6572  10.122  10.994   3.685
 1559SOL     OW 6573   5.043   8.439   1.295
 1559SOL    HW1 6574   5.116   8.391   1.333
 1559SOL    HW2 6575   5.084   8.499   1.232
 1560SOL     OW 6576   7.899   3.159   0.978
 1560SOL    HW1 6577   7.812   3.125   0.953
 1560SOL    HW2 6578   7.956   3.083   0.976
 1561SOL     OW 6579  13.966   9.232   4.095
 1561SOL    HW1 6580  13.890   9.266   4.141
 1561SOL    HW2 6581  13.967   9.279   4.012
 1562SOL     OW 6582   7.753   0.175   0.449
 1562SOL    HW1 6583   7.671   0.200   0.406
 1562SOL    HW2 6584   7.741   0.082   0.470
 1563SOL     OW 6585   7.836   9.916   2.623
 1563SOL    HW1 6586   7.772   9.984   2.602
 1563SOL    HW2 6587   7.921   9.958   2.610
 1564SOL     OW 6588   2.337   4.547   1.172
 1564SOL    HW1 6589   2.314   4.502   1.091
 1564SOL    HW2 6590   2.273   4.618   1.179
 1565SOL     OW 6591  12.978   1.953   1.570
 1565SOL    HW1 6592  13.058   1.963   1.520
 1565SOL    HW2 6593  12.989   1.871   1.618
 1566SOL     OW 6594   3.704   6.529   5.584
 1566SOL    HW1 6595   3.610   6.530   5.564
 1566SOL    HW2 6596   3.742   6.595   5.526
 1567SOL     OW 6597  12.050  13.964  10.372
 1567SOL    HW1 6598  12.016  14.047  10.404
 1567SOL    HW2 6599  12.118  13.940  10.434
 1568SOL     OW 6600  11.685  11.353  13.751
 1568SOL    HW1 6601  11.706  11.341  13.658
 1568SOL    HW2 6602  11.639  11.273  13.776
 1569SOL     OW 6603  12.630   2.793  13.493
 1569SOL    HW1 6604  12.696   2.819  13.558
 1569SOL    HW2 6605  12.670   2.718  13.447
 1570SOL     OW 6606   7.317   7.294   9.502
 1570SOL    HW1 6607   7.334   7.347   9.579
 1570SOL    HW2 6608   7.224   7.306   9.484
 1571SOL     OW 6609   8.132  13.503   9.857
 1571SOL    HW1 6610   8.178  13.454   9.925
 1571SOL    HW2 6611   8.170  13.591   9.862
 1572SOL     OW 6612  11.674   5.196  13.935
 1572SOL    HW1 6613  11.586   5.160  13.928
 1572SOL    HW2 6614  11.686   5.245  13.853
 1573SOL     OW 6615   2.328  12.770   4.631
 1573SOL    HW1 6616   2.290  12.858   4.641
 1573SOL    HW2 6617   2.253  12.711   4.633
 1574SOL     OW 6618   2.123  13.014   6.152
 1574SOL    HW1 6619   2.202  12.962   6.137
 1574SOL    HW2 6620   2.154  13.104   6.155
 1575SOL     OW 6621  12.722   2.514   5.328
 1575SOL    HW1 6622  12.733   2.463   5.409
 1575SOL    HW2 6623  12.627   2.522   5.318
 1576SOL     OW 6624   3.553  10.385  14.468
 1576SOL    HW1 6625   3.487  10.351  14.408
 1576SOL    HW2 6626   3.503  10.435  14.533
 1577SOL     OW 6627   2.130   3.840   4.659
 1577SOL    HW1 6628   2.133   3.853   4.564
 1577SOL    HW2 6629   2.075   3.911   4.691
 1578SOL     OW 6630   9.194  11.070   6.793
 1578SOL    HW1 6631   9.239  10.985   6.785
 1578SOL    HW2 6632   9.138  11.074   6.716
 1579SOL     OW 6633   8.103  11.079  12.470
 1579SOL    HW1 6634   8.103  11.104  12.377
 1579SOL    HW2 6635   8.011  11.068  12.492
 1580SOL     OW 6636   0.477   7.612  11.081
 1580SOL    HW1 6637   0.412   7.666  11.037
 1580SOL    HW2 6638   0.460   7.523  11.048
 1581SOL     OW 6639   7.628   3.582   6.033
 1581SOL    HW1 6640   7.633   3.645   5.961
 1581SOL    HW2 6641   7.661   3.631   6.109
 1582SOL     OW 6642   2.141   9.639   9.717
 1582SOL    HW1 6643   2.172   9.556   9.681
 1582SOL    HW2 6644   2.133   9.623   9.811
 1583SOL     OW 6645   4.525   8.656   9.556
 1583SOL    HW1 6646   4.576   8.634   9.478
 1583SOL    HW2 6647   4.435   8.637   9.532
 1584SOL     OW 6648   4.607   5.429  11.035
 1584SOL    HW1 6649   4.548   5.353  11.027
 1584SOL    HW2 6650   4.668   5.404  11.104
 1585SOL     OW 6651   0.849   4.135  10.796
 1585SOL    HW1 6652   0.848   4.053  10.748
 1585SOL    HW2 6653   0.833   4.110  10.887
 1586SOL     OW 6654   7.427  11.671  11.799
 1586SOL    HW1 6655   7.447  11.709  11.714
 1586SOL    HW2 6656   7.341  11.706  11.821
 1587SOL     OW 6657  13.478  14.458  13.927
 1587SOL    HW1 6658  13.505  14.430  14.014
 1587SOL    HW2 6659  13.430  14.540  13.941
 1588SOL     OW 6660   1.369   5.944  13.337
 1588SOL    HW1 6661   1.306   5.974  13.402
 1588SOL    HW2 6662   1.453   5.977  13.369
 1589SOL     OW 6663   2.050   7.120   8.213
 1589SOL    HW1 6664   1.984   7.142   8.278
 1589SOL    HW2 6665   2.121   7.182   8.229
 1590SOL     OW 6666   7.482   2.816   7.285
 1590SOL    HW1 6667   7.535   2.869   7.346
 1590SOL    HW2 6668   7.416   2.877   7.252
 1591SOL     OW 6669   0.744   4.092   9.369
 1591SOL    HW1 6670   0.770   4.105   9.460
 1591SOL    HW2 6671   0.724   3.998   9.363
 1592SOL     OW 6672   4.230   5.728  14.061
 1592SOL    HW1 6673   4.325   5.732  14.074
 1592SOL    HW2 6674   4.199   5.815  14.087
 1593SOL     OW 6675  13.217   8.869   2.036
 1593SOL    HW1 6676  13.213   8.785   1.992
 1593SOL    HW2 6677  13.126   8.900   2.037
 1594SOL     OW 6678  10.188  12.314   6.350
 1594SOL    HW1 6679  10.168  12.303   6.443
 1594SOL    HW2 6680  10.124  12.259   6.305
 1595SOL     OW 6681   9.895  12.981   5.112
 1595SOL    HW1 6682   9.924  12.894   5.141
 1595SOL    HW2 6683   9.800  12.975   5.108
 1596SOL     OW 6684  11.233   7.112   1.771
 1596SOL    HW1 6685  11.290   7.094   1.846
 1596SOL    HW2 6686  11.292   7.115   1.697
 1597SOL     OW 6687   3.904   0.270   9.448
 1597SOL    HW1 6688   3.845   0.211   9.402
 1597SOL    HW2 6689   3.946   0.215   9.514
 1598SOL     OW 6690   9.185   0.253  11.342
 1598SOL    HW1 6691   9.202   0.184  11.278
 1598SOL    HW2 6692   9.267   0.303  11.346
 1599SOL     OW 6693   0.091  14.637   9.289
 1599SOL    HW1 6694   0.165  14.680   9.247
 1599SOL    HW2 6695   0.101  14.545   9.267
 1600SOL     OW 6696  12.122   0.973   2.365
 1600SOL    HW1 6697  12.056   0.926   2.315
 1600SOL    HW2 6698  12.094   1.065   2.362
 1601SOL     OW 6699   7.043   5.172   1.604
 1601SOL    HW1 6700   6.994   5.252   1.588
 1601SOL    HW2 6701   7.077   5.147   1.518
 1602SOL     OW 6702   0.312   1.417  14.059
 1602SOL    HW1 6703   0.241   1.374  14.013
 1602SOL    HW2 6704   0.326   1.364  14.138
 1603SOL     OW 6705  10.905   3.408   9.543
 1603SOL    HW1 6706  10.822   3.455   9.529
 1603SOL    HW2 6707  10.879   3.326   9.585
 1604SOL     OW 6708   6.304   2.770   5.944
 1604SOL    HW1 6709   6.227   2.727   5.981
 1604SOL    HW2 6710   6.330   2.834   6.011
 1605SOL     OW 6711   1.550  10.783   2.985
 1605SOL    HW1 6712   1.567  10.875   3.006
 1605SOL    HW2 6713   1.493  10.752   3.054
 1606SOL     OW 6714  14.873   0.162  12.280
 1606SOL    HW1 6715   0.003   0.084  12.226
 1606SOL    HW2 6716   0.079   0.194  12.298
 1607SOL     OW 6717   9.212   2.218   5.454
 1607SOL    HW1 6718   9.303   2.215   5.426
 1607SOL    HW2 6719   9.184   2.127   5.455
 1608SOL     OW 6720   8.875   8.899   0.144
 1608SOL    HW1 6721   8.909   8.971   0.091
 1608SOL    HW2 6722   8.929   8.899   0.223
 1609SOL     OW 6723  11.441   7.799  14.297
 1609SOL    HW1 6724  11.396   7.742  14.360
 1609SOL    HW2 6725  11.380   7.871  14.283
 1610SOL     OW 6726  11.282   0.915  10.833
 1610SOL    HW1 6727  11.201   0.937  10.879
 1610SOL    HW2 6728  11.306   0.996  10.787
 1611SOL     OW 6729   4.795   1.671   7.194
 1611SOL    HW1 6730   4.700   1.675   7.202
 1611SOL    HW2 6731   4.815   1.725   7.118
 1612SOL     OW 6732   0.743   0.764   5.362
 1612SOL    HW1 6733   0.814   0.737   5.303
 1612SOL    HW2 6734   0.786   0.780   5.446
 1613SOL     OW 6735   5.018  11.714  10.027
 1613SOL    HW1 6736   4.929  11.750  10.024
 1613SOL    HW2 6737   5.037  11.689   9.937
 1614SOL     OW 6738   4.508   5.835  14.508
 1614SOL    HW1 6739   4.558   5.842  14.427
 1614SOL    HW2 6740   4.422   5.803  14.480
 1615SOL     OW 6741   3.866   8.485   3.726
 1615SOL    HW1 6742   3.911   8.412   3.682
 1615SOL    HW2 6743   3.816   8.527   3.656
 1616SOL     OW 6744  14.131   2.577  12.914
 1616SOL    HW1 6745  14.197   2.563  12.982
 1616SOL    HW2 6746  14.121   2.672  12.910
 1617SOL     OW 6747  11.535   8.358   0.924
 1617SOL    HW1 6748  11.520   8.273   0.966
 1617SOL    HW2 6749  11.497   8.348   0.836
 1618SOL     OW 6750  11.842   0.319  12.757
 1618SOL    HW1 6751  11.773   0.291  12.817
 1618SOL    HW2 6752  11.868   0.405  12.788
 1619SOL     OW 6753  10.806  13.883   9.109
 1619SOL    HW1 6754  10.837  13.803   9.151
 1619SOL    HW2 6755  10.762  13.852   9.030
 1620SOL     OW 6756  13.036   6.293  10.644
 1620SOL    HW1 6757  12.950   6.299  10.685
 1620SOL    HW2 6758  13.029   6.347  10.565
 1621SOL     OW 6759   4.526   5.574   0.975
 1621SOL    HW1 6760   4.620   5.588   0.974
 1621SOL    HW2 6761   4.504   5.547   0.886
 1622SOL     OW 6762   5.011   0.734   4.717
 1622SOL    HW1 6763   5.049   0.738   4.804
 1622SOL    HW2 6764   4.917   0.747   4.731
 1623SOL     OW 6765   7.690   9.283   2.159
 1623SOL    HW1 6766   7.762   9.339   2.190
 1623SOL    HW2 6767   7.670   9.317   2.072
 1624SOL     OW 6768   7.608  13.373   3.348
 1624SOL    HW1 6769   7.697  13.339   3.358
 1624SOL    HW2 6770   7.619  13.466   3.330
 1625SOL     OW 6771   2.624  12.026  12.256
 1625SOL    HW1 6772   2.664  11.983  12.181
 1625SOL    HW2 6773   2.572  11.958  12.299
 1626SOL     OW 6774   1.914   5.704  13.189
 1626SOL    HW1 6775   1.959   5.766  13.132
 1626SOL    HW2 6776   1.966   5.704  13.269
 1627SOL     OW 6777   1.820   0.446   8.510
 1627SOL    HW1 6778   1.835   0.389   8.585
 1627SOL    HW2 6779   1.907   0.474   8.483
 1628SOL     OW 6780   6.040  14.524  11.276
 1628SOL    HW1 6781   5.994  14.445  11.305
 1628SOL    HW2 6782   6.105  14.540  11.345
 1629SOL     OW 6783   6.757   9.407  13.099
 1629SOL    HW1 6784   6.745   9.502  13.104
 1629SOL    HW2 6785   6.738   9.376  13.187
 1630SOL     OW 6786   8.881   4.990  10.380
 1630SOL    HW1 6787   8.823   4.923  10.417
 1630SOL    HW2 6788   8.961   4.985  10.433
 1631SOL     OW 6789   3.648   1.512   9.195
 1631SOL    HW1 6790   3.715   1.488   9.132
 1631SOL    HW2 6791   3.611   1.429   9.225
 1632SOL     OW 6792   9.302   5.787   0.803
 1632SOL    HW1 6793   9.376   5.773   0.745
 1632SOL    HW2 6794   9.225   5.776   0.747
 1633SOL     OW 6795   5.998  14.356  10.480
 1633SOL    HW1 6796   6.085  14.365  10.519
 1633SOL    HW2 6797   5.963  14.275  10.517
 1634SOL     OW 6798  13.556   3.788   6.605
 1634SOL    HW1 6799  13.465   3.773   6.581
 1634SOL    HW2 6800  13.602   3.797   6.521
 1635SOL     OW 6801   2.322   0.106  14.603
 1635SOL    HW1 6802   2.275   0.175  14.648
 1635SOL    HW2 6803   2.391   0.080  14.664
 1636SOL     OW 6804  12.173   3.627   1.792
 1636SOL    HW1 6805  12.159   3.541   1.831
 1636SOL    HW2 6806  12.245   3.664   1.842
 1637SOL     OW 6807   1.058  14.720   4.119
 1637SOL    HW1 6808   0.999  14.646   4.108
 1637SOL    HW2 6809   1.076  14.721   4.214
 1638SOL     OW 6810   6.224   0.357   9.705
 1638SOL    HW1 6811   6.289   0.379   9.637
 1638SOL    HW2 6812   6.240   0.264   9.724
 1639SOL     OW 6813   8.784   0.458   7.724
 1639SOL    HW1 6814   8.765   0.367   7.702
 1639SOL    HW2 6815   8.788   0.459   7.819
 1640SOL     OW 6816   6.597   4.779  10.924
 1640SOL    HW1 6817   6.602   4.742  10.836
 1640SOL    HW2 6818   6.605   4.703  10.982
 1641SOL     OW 6819  13.875   6.856   9.320
 1641SOL    HW1 6820  13.879   6.771   9.364
 1641SOL    HW2 6821  13.877   6.920   9.391
 1642SOL     OW 6822   2.836  13.830   0.084
 1642SOL    HW1 6823   2.743  13.852   0.084
 1642SOL    HW2 6824   2.879  13.908   0.120
 1643SOL     OW 6825   3.034   3.981   9.099
 1643SOL    HW1 6826   2.964   3.939   9.049
 1643SOL    HW2 6827   3.073   4.043   9.037
 1644SOL     OW 6828   0.500  10.963   0.727
 1644SOL    HW1 6829   0.413  10.952   0.765
 1644SOL    HW2 6830   0.489  11.034   0.664
 1645SOL     OW 6831  13.009   2.007   5.944
 1645SOL    HW1 6832  12.984   2.055   6.022
 1645SOL    HW2 6833  12.951   2.040   5.875
 1646SOL     OW 6834  13.903   5.278   9.813
 1646SOL    HW1 6835  13.881   5.186   9.800
 1646SOL    HW2 6836  13.910   5.314   9.724
 1647SOL     OW 6837  13.362   4.937  11.281
 1647SOL    HW1 6838  13.286   4.975  11.235
 1647SOL    HW2 6839  13.422   5.011  11.293
 1648SOL     OW 6840   9.938  11.861  13.221
 1648SOL    HW1 6841   9.923  11.927  13.289
 1648SOL    HW2 6842   9.981  11.909  13.150
 1649SOL     OW 6843   9.434   8.636  13.611
 1649SOL    HW1 6844   9.459   8.562  13.555
 1649SOL    HW2 6845   9.515   8.664  13.652
 1650SOL     OW 6846   8.955   2.649   7.860
 1650SOL    HW1 6847   8.866   2.666   7.888
 1650SOL    HW2 6848   8.961   2.553   7.855
 1651SOL     OW 6849   6.162   9.381   6.324
 1651SOL    HW1 6850   6.195   9.379   6.414
 1651SOL    HW2 6851   6.224   9.435   6.276
 1652SOL     OW 6852  10.622   6.359   2.459
 1652SOL    HW1 6853  10.590   6.439   2.500
 1652SOL    HW2 6854  10.662   6.388   2.377
 1653SOL     OW 6855  13.822  12.055  10.785
 1653SOL    HW1 6856  13.854  12.042  10.696
 1653SOL    HW2 6857  13.866  11.988  10.837
 1654SOL     OW 6858   6.323  10.057  11.213
 1654SOL    HW1 6859   6.235  10.093  11.224
 1654SOL    HW2 6860   6.321  10.012  11.129
 1655SOL     OW 6861   7.610  10.948  10.003
 1655SOL    HW1 6862   7.644  10.863   9.974
 1655SOL    HW2 6863   7.536  10.925  10.059
 1656SOL     OW 6864   9.315   0.931  14.812
 1656SOL    HW1 6865   9.233   0.928  14.764
 1656SOL    HW2 6866   9.291   0.920   0.021
 1657SOL     OW 6867  10.723   2.714   7.158
 1657SOL    HW1 6868  10.756   2.688   7.244
 1657SOL    HW2 6869  10.633   2.741   7.174
 1658SOL     OW 6870   0.955   7.192  13.965
 1658SOL    HW1 6871   0.937   7.221  14.054
 1658SOL    HW2 6872   1.032   7.135  13.973
 1659SOL     OW 6873   6.363   6.469   0.211
 1659SOL    HW1 6874   6.374   6.403   0.143
 1659SOL    HW2 6875   6.401   6.549   0.173
 1660SOL     OW 6876   1.156   5.895   6.612
 1660SOL    HW1 6877   1.202   5.819   6.646
 1660SOL    HW2 6878   1.075   5.860   6.576
 1661SOL     OW 6879  14.333   5.893   0.129
 1661SOL    HW1 6880  14.392   5.933   0.065
 1661SOL    HW2 6881  14.316   5.806   0.095
 1662SOL     OW 6882  14.478  14.536  10.087
 1662SOL    HW1 6883  14.417  14.603  10.119
 1662SOL    HW2 6884  14.451  14.521   9.996
 1663SOL     OW 6885   6.288   7.670   1.506
 1663SOL    HW1 6886   6.311   7.612   1.433
 1663SOL    HW2 6887   6.361   7.732   1.511
 1664SOL     OW 6888  13.824   7.785   0.617
 1664SOL    HW1 6889  13.831   7.827   0.531
 1664SOL    HW2 6890  13.764   7.840   0.667
 1665SOL     OW 6891   9.364   1.499  14.419
 1665SOL    HW1 6892   9.332   1.587  14.437
 1665SOL    HW2 6893   9.447   1.512  14.373
 1666SOL     OW 6894   7.041   5.303  14.116
 1666SOL    HW1 6895   6.959   5.315  14.163
 1666SOL    HW2 6896   7.108   5.293  14.184
 1667SOL     OW 6897   9.531   7.255  11.884
 1667SOL    HW1 6898   9.607   7.200  11.864
 1667SOL    HW2 6899   9.523   7.250  11.980
 1668SOL     OW 6900   0.910   7.957   7.805
 1668SOL    HW1 6901   0.865   7.879   7.837
 1668SOL    HW2 6902   0.957   7.991   7.881
 1669SOL     OW 6903   9.805   2.800   2.100
 1669SOL    HW1 6904   9.798   2.858   2.025
 1669SOL    HW2 6905   9.763   2.848   2.172
 1670SOL     OW 6906   3.136   3.260  14.402
 1670SOL    HW1 6907   3.129   3.230  14.312
 1670SOL    HW2 6908   3.216   3.218  14.435
 1671SOL     OW 6909   1.961   1.019  14.137
 1671SOL    HW1 6910   1.964   1.092  14.199
 1671SOL    HW2 6911   1.867   1.004  14.123
 1672SOL     OW 6912  12.691   9.833   4.466
 1672SOL    HW1 6913  12.693   9.912   4.411
 1672SOL    HW2 6914  12.756   9.775   4.426
 1673SOL     OW 6915  10.998  11.186   4.663
 1673SOL    HW1 6916  10.994  11.156   4.754
 1673SOL    HW2 6917  10.907  11.206   4.641
 1674SOL     OW 6918  12.669   4.776   0.229
 1674SOL    HW1 6919  12.648   4.851   0.285
 1674SOL    HW2 6920  12.611   4.784   0.154
 1675SOL     OW 6921   2.596   1.836   7.258
 1675SOL    HW1 6922   2.639   1.785   7.189
 1675SOL    HW2 6923   2.668   1.862   7.316
 1676SOL     OW 6924   9.827   4.244  12.402
 1676SOL    HW1 6925   9.734   4.266  12.393
 1676SOL    HW2 6926   9.850   4.202  12.319
 1677SOL     OW 6927  12.019   9.700   5.204
 1677SOL    HW1 6928  12.053   9.711   5.115
 1677SOL    HW2 6929  12.081   9.747   5.259
 1678SOL     OW 6930   0.878   7.355  10.058
 1678SOL    HW1 6931   0.844   7.341  10.146
 1678SOL    HW2 6932   0.840   7.438  10.029
 1679SOL     OW 6933  14.516   7.222   9.656
 1679SOL    HW1 6934  14.543   7.137   9.620
 1679SOL    HW2 6935  14.421   7.216   9.662
 1680SOL     OW 6936   9.926   3.927   4.011
 1680SOL    HW1 6937   9.877   3.854   4.050
 1680SOL    HW2 6938  10.003   3.936   4.067
 1681SOL     OW 6939  11.465   2.372  10.780
 1681SOL    HW1 6940  11.469   2.286  10.822
 1681SOL    HW2 6941  11.521   2.364  10.703
 1682SOL     OW 6942  10.199   7.309   8.265
 1682SOL    HW1 6943  10.230   7.394   8.233
 1682SOL    HW2 6944  10.127   7.330   8.324
 1683SOL     OW 6945  12.047   9.342  12.091
 1683SOL    HW1 6946  11.974   9.281  12.098
 1683SOL    HW2 6947  12.120   9.289  12.059
 1684SOL     OW 6948   4.620   8.965  12.651
 1684SOL    HW1 6949   4.659   8.970  12.564
 1684SOL    HW2 6950   4.668   8.894  12.695
 1685SOL     OW 6951   1.266   7.468  10.186
 1685SOL    HW1 6952   1.304   7.506  10.266
 1685SOL    HW2 6953   1.172   7.479  10.198
 1686SOL     OW 6954  12.690   3.364  11.202
 1686SOL    HW1 6955  12.742   3.397  11.275
 1686SOL    HW2 6956  12.710   3.424  11.130
 1687SOL     OW 6957   3.926  11.756   8.465
 1687SOL    HW1 6958   4.002  11.813   8.478
 1687SOL    HW2 6959   3.940  11.718   8.378
 1688SOL     OW 6960   2.671  13.867  12.784
 1688SOL    HW1 6961   2.736  13.823  12.729
 1688SOL    HW2 6962   2.665  13.956  12.748
 1689SOL     OW 6963  12.525   5.463   0.568
 1689SOL    HW1 6964  12.616   5.439   0.589
 1689SOL    HW2 6965  12.495   5.511   0.645
 1690SOL     OW 6966  14.320   8.278   0.863
 1690SOL    HW1 6967  14.364   8.264   0.946
 1690SOL    HW2 6968  14.229   8.292   0.886
 1691SOL     OW 6969  13.905   8.259   7.866
 1691SOL    HW1 6970  13.972   8.193   7.886
 1691SOL    HW2 6971  13.826   8.209   7.848
 1692SOL     OW 6972   4.108  12.874   5.089
 1692SOL    HW1 6973   4.201  12.895   5.081
 1692SOL    HW2 6974   4.074  12.883   5.000
 1693SOL     OW 6975   6.547  10.346   9.586
 1693SOL    HW1 6976   6.491  10.284   9.633
 1693SOL    HW2 6977   6.566  10.302   9.503
 1694SOL     OW 6978   8.338  12.211   9.525
 1694SOL    HW1 6979   8.397  12.150   9.480
 1694SOL    HW2 6980   8.259  12.160   9.542
 1695SOL     OW 6981   8.628   0.126   5.412
 1695SOL    HW1 6982   8.578   0.051   5.381
 1695SOL    HW2 6983   8.709   0.124   5.361
 1696SOL     OW 6984   4.597  14.328   0.116
 1696SOL    HW1 6985   4.575  14.406   0.063
 1696SOL    HW2 6986   4.688  14.309   0.093
 1697SOL     OW 6987  14.229  13.974   7.732
 1697SOL    HW1 6988  14.286  13.898   7.717
 1697SOL    HW2 6989  14.147  13.952   7.688
 1698SOL     OW 6990   4.163  10.662   3.711
 1698SOL    HW1 6991   4.258  10.667   3.721
 1698SOL    HW2 6992   4.150  10.641   3.619
 1699SOL     OW 6993  12.771   2.732   6.541
 1699SOL    HW1 6994  12.720   2.813   6.536
 1699SOL    HW2 6995  12.759   2.691   6.455
 1700SOL     OW 6996  13.943  14.795   4.487
 1700SOL    HW1 6997  13.908  14.757   4.406
 1700SOL    HW2 6998  13.906  14.742   4.557
 1701SOL     OW 6999   2.844  14.549   8.229
 1701SOL    HW1 7000   2.817  14.608   8.300
 1701SOL    HW2 7001   2.848  14.463   8.270
 1702SOL     OW 7002   7.504   9.616   2.400
 1702SOL    HW1 7003   7.543   9.560   2.467
 1702SOL    HW2 7004   7.492   9.701   2.442
 1703SOL     OW 7005  14.528   4.062   2.782
 1703SOL    HW1 7006  14.594   4.094   2.720
 1703SOL    HW2 7007  14.447   4.058   2.731
 1704SOL     OW 7008   1.003   7.265  10.823
 1704SOL    HW1 7009   1.051   7.201  10.771
 1704SOL    HW2 7010   1.029   7.350  10.787
 1705SOL     OW 7011   6.098  12.548  11.057
 1705SOL    HW1 7012   6.089  12.556  10.962
 1705SOL    HW2 7013   6.022  12.496  11.084
 1706SOL     OW 7014   3.247   8.918  14.507
 1706SOL    HW1 7015   3.270   8.998  14.460
 1706SOL    HW2 7016   3.152   8.911  14.499
 1707SOL     OW 7017   6.030   7.765  11.439
 1707SOL    HW1 7018   6.089   7.720  11.500
 1707SOL    HW2 7019   5.975   7.820  11.495
 1708SOL     OW 7020   6.238  10.906   4.629
 1708SOL    HW1 7021   6.182  10.860   4.691
 1708SOL    HW2 7022   6.324  10.866   4.641
 1709SOL     OW 7023   5.385  12.852  10.626
 1709SOL    HW1 7024   5.440  12.851  10.705
 1709SOL    HW2 7025   5.311  12.908  10.650
 1710SOL     OW 7026   6.310  11.484   8.154
 1710SOL    HW1 7027   6.349  11.537   8.084
 1710SOL    HW2 7028   6.384  11.460   8.210
 1711SOL     OW 7029   0.411   5.738   6.513
 1711SOL    HW1 7030   0.376   5.761   6.599
 1711SOL    HW2 7031   0.392   5.645   6.503
 1712SOL     OW 7032   6.658  11.539   7.076
 1712SOL    HW1 7033   6.634  11.549   6.984
 1712SOL    HW2 7034   6.697  11.624   7.100
 1713SOL     OW 7035   9.101   4.492   8.819
 1713SOL    HW1 7036   9.076   4.584   8.813
 1713SOL    HW2 7037   9.174   4.492   8.882
 1714SOL     OW 7038  11.374  13.603   9.278
 1714SOL    HW1 7039  11.388  13.575   9.188
 1714SOL    HW2 7040  11.341  13.692   9.272
 1715SOL     OW 7041   4.048  11.807  10.679
 1715SOL    HW1 7042   4.062  11.867  10.753
 1715SOL    HW2 7043   4.033  11.865  10.604
 1716SOL     OW 7044  14.630   6.604   2.734
 1716SOL    HW1 7045  14.581   6.534   2.778
 1716SOL    HW2 7046  14.647   6.569   2.646
 1717SOL     OW 7047  14.696   8.880  13.313
 1717SOL    HW1 7048  14.728   8.875  13.403
 1717SOL    HW2 7049  14.751   8.947  13.272
 1718SOL     OW 7050  12.834  12.069   4.979
 1718SOL    HW1 7051  12.771  12.140   4.967
 1718SOL    HW2 7052  12.904  12.107   5.033
 1719SOL     OW 7053   1.645  12.094   4.058
 1719SOL    HW1 7054   1.623  12.034   3.987
 1719SOL    HW2 7055   1.569  12.153   4.064
 1720SOL     OW 7056  13.024   2.293   1.586
 1720SOL    HW1 7057  13.052   2.227   1.650
 1720SOL    HW2 7058  12.945   2.331   1.624
 1721SOL     OW 7059  12.373   1.003   4.805
 1721SOL    HW1 7060  12.311   1.068   4.772
 1721SOL    HW2 7061  12.403   0.956   4.727
 1722SOL     OW 7062   3.873  12.898   0.312
 1722SOL    HW1 7063   3.907  12.987   0.321
 1722SOL    HW2 7064   3.932  12.844   0.365
 1723SOL     OW 7065   1.579   5.589  11.559
 1723SOL    HW1 7066   1.664   5.610  11.520
 1723SOL    HW2 7067   1.541   5.525  11.500
 1724SOL     OW 7068   2.790  12.869   6.946
 1724SOL    HW1 7069   2.879  12.860   6.981
 1724SOL    HW2 7070   2.751  12.782   6.957
 1725SOL     OW 7071   2.066   5.979  11.902
 1725SOL    HW1 7072   2.097   5.917  11.836
 1725SOL    HW2 7073   2.088   5.937  11.986
 1726SOL     OW 7074   4.727   5.433   7.399
 1726SOL    HW1 7075   4.703   5.526   7.399
 1726SOL    HW2 7076   4.818   5.432   7.428
 1727SOL     OW 7077  10.615   3.522   3.605
 1727SOL    HW1 7078  10.626   3.432   3.572
 1727SOL    HW2 7079  10.532   3.551   3.568
 1728SOL     OW 7080   5.446   0.151   8.007
 1728SOL    HW1 7081   5.533   0.114   8.022
 1728SOL    HW2 7082   5.460   0.219   7.941
 1729SOL     OW 7083   4.751   7.692   1.101
 1729SOL    HW1 7084   4.789   7.646   1.176
 1729SOL    HW2 7085   4.813   7.761   1.080
 1730SOL     OW 7086   8.216  13.434   8.449
 1730SOL    HW1 7087   8.145  13.403   8.394
 1730SOL    HW2 7088   8.183  13.515   8.488
 1731SOL     OW 7089   9.494   2.167  14.507
 1731SOL    HW1 7090   9.570   2.197  14.557
 1731SOL    HW2 7091   9.528   2.097  14.451
 1732SOL     OW 7092   7.488  10.170   8.977
 1732SOL    HW1 7093   7.451  10.180   8.889
 1732SOL    HW2 7094   7.413  10.185   9.036
 1733SOL     OW 7095   3.895   1.420   2.923
 1733SOL    HW1 7096   3.883   1.486   2.854
 1733SOL    HW2 7097   3.978   1.443   2.964
 1734SOL     OW 7098   9.272   1.946   7.239
 1734SOL    HW1 7099   9.264   1.993   7.156
 1734SOL    HW2 7100   9.218   1.995   7.300
 1735SOL     OW 7101   9.048  14.663  14.545
 1735SOL    HW1 7102   9.091  14.607  14.480
 1735SOL    HW2 7103   8.958  14.632  14.547
 1736SOL     OW 7104  10.009   7.674   2.430
 1736SOL    HW1 7105  10.070   7.738   2.392
 1736SOL    HW2 7106   9.923   7.703   2.401
 1737SOL     OW 7107   5.021   8.778   4.862
 1737SOL    HW1 7108   5.058   8.691   4.846
 1737SOL    HW2 7109   4.928   8.768   4.842
 1738SOL     OW 7110   1.553  11.546   4.588
 1738SOL    HW1 7111   1.552  11.528   4.494
 1738SOL    HW2 7112   1.645  11.562   4.609
 1739SOL     OW 7113   8.550   7.196  11.505
 1739SOL    HW1 7114   8.504   7.138  11.445
 1739SOL    HW2 7115   8.488   7.212  11.576
 1740SOL     OW 7116  13.480   3.653  12.911
 1740SOL    HW1 7117  13.401   3.656  12.857
 1740SOL    HW2 7118  13.548   3.694  12.857
 1741SOL     OW 7119  11.036   7.284   5.773
 1741SOL    HW1 7120  11.092   7.211   5.745
 1741SOL    HW2 7121  10.999   7.255   5.856
 1742SOL     OW 7122   9.256   8.201  11.856
 1742SOL    HW1 7123   9.186   8.262  11.882
 1742SOL    HW2 7124   9.337   8.248  11.878
 1743SOL     OW 7125   3.140   9.482  14.570
 1743SOL    HW1 7126   3.211   9.493  14.633
 1743SOL    HW2 7127   3.181   9.495  14.485
 1744SOL     OW 7128   1.440   6.248   0.143
 1744SOL    HW1 7129   1.359   6.249   0.194
 1744SOL    HW2 7130   1.469   6.339   0.142
 1745SOL     OW 7131  12.200   9.866   5.666
 1745SOL    HW1 7132  12.143   9.826   5.731
 1745SOL    HW2 7133  12.218   9.954   5.701
 1746SOL     OW 7134   2.969  12.524   3.434
 1746SOL    HW1 7135   3.019  12.591   3.387
 1746SOL    HW2 7136   2.900  12.572   3.479
 1747SOL     OW 7137  13.477  11.229  10.106
 1747SOL    HW1 7138  13.393  11.254  10.068
 1747SOL    HW2 7139  13.454  11.163  10.173
 1748SOL     OW 7140  13.614  10.945   1.985
 1748SOL    HW1 7141  13.545  10.916   2.045
 1748SOL    HW2 7142  13.580  11.026   1.947
 1749SOL     OW 7143   5.409  14.799  11.404
 1749SOL    HW1 7144   5.389  14.868  11.467
 1749SOL    HW2 7145   5.495  14.766  11.431
 1750SOL     OW 7146  14.392   3.241  11.092
 1750SOL    HW1 7147  14.350   3.242  11.006
 1750SOL    HW2 7148  14.467   3.182  11.081
 1751SOL     OW 7149   6.105  13.910  10.250
 1751SOL    HW1 7150   6.036  13.958  10.296
 1751SOL    HW2 7151   6.169  13.889  10.318
 1752SOL     OW 7152  10.430   5.634   5.310
 1752SOL    HW1 7153  10.500   5.604   5.251
 1752SOL    HW2 7154  10.461   5.718   5.343
 1753SOL     OW 7155   4.056   2.610  14.325
 1753SOL    HW1 7156   4.111   2.689  14.328
 1753SOL    HW2 7157   3.975   2.635  14.370
 1754SOL     OW 7158   4.705   4.047  12.472
 1754SOL    HW1 7159   4.707   3.952  12.478
 1754SOL    HW2 7160   4.730   4.066  12.381
 1755SOL     OW 7161   8.387  12.286  10.107
 1755SOL    HW1 7162   8.347  12.325  10.030
 1755SOL    HW2 7163   8.435  12.210  10.074
 1756SOL     OW 7164   3.121  11.542  12.934
 1756SOL    HW1 7165   3.201  11.527  12.983
 1756SOL    HW2 7166   3.069  11.463  12.947
 1757SOL     OW 7167  12.182   5.127   5.057
 1757SOL    HW1 7168  12.149   5.099   4.971
 1757SOL    HW2 7169  12.133   5.207   5.076
 1758SOL     OW 7170  14.549   6.902  14.474
 1758SOL    HW1 7171  14.549   6.968  14.543
 1758SOL    HW2 7172  14.514   6.824  14.515
 1759SOL     OW 7173   5.967   9.123   5.909
 1759SOL    HW1 7174   5.946   9.167   5.827
 1759SOL    HW2 7175   5.899   9.152   5.970
 1760SOL     OW 7176   6.904  13.233   8.589
 1760SOL    HW1 7177   6.875  13.264   8.675
 1760SOL    HW2 7178   6.936  13.144   8.605
 1761SOL     OW 7179   2.796   7.377  14.790
 1761SOL    HW1 7180   2.732   7.394  14.859
 1761SOL    HW2 7181   2.810   7.463  14.749
 1762SOL     OW 7182   0.151   1.274   6.863
 1762SOL    HW1 7183   0.174   1.217   6.789
 1762SOL    HW2 7184   0.232   1.280   6.914
 1763SOL     OW 7185  11.581  12.149   3.153
 1763SOL    HW1 7186  11.555  12.062   3.184
 1763SOL    HW2 7187  11.665  12.135   3.110
 1764SOL     OW 7188   6.008  14.744   9.755
 1764SOL    HW1 7189   5.976  14.759   9.844
 1764SOL    HW2 7190   5.998  14.828   9.711
 1765SOL     OW 7191   2.721   4.398   9.749
 1765SOL    HW1 7192   2.706   4.387   9.655
 1765SOL    HW2 7193   2.745   4.490   9.759
 1766SOL     OW 7194   3.480  10.022  13.121
 1766SOL    HW1 7195   3.553   9.964  13.100
 1766SOL    HW2 7196   3.513  10.078  13.191
 1767SOL     OW 7197   0.945  12.897   5.838
 1767SOL    HW1 7198   0.878  12.849   5.886
 1767SOL    HW2 7199   0.963  12.844   5.761
 1768SOL     OW 7200   8.652   6.560   2.821
 1768SOL    HW1 7201   8.650   6.619   2.746
 1768SOL    HW2 7202   8.602   6.605   2.889
 1769SOL     OW 7203  10.372   1.381   8.506
 1769SOL    HW1 7204  10.367   1.296   8.462
 1769SOL    HW2 7205  10.290   1.389   8.553
 1770SOL     OW 7206   5.680  14.637  11.730
 1770SOL    HW1 7207   5.637  14.722  11.728
 1770SOL    HW2 7208   5.709  14.627  11.821
 1771SOL     OW 7209   7.895   0.668   7.382
 1771SOL    HW1 7210   7.837   0.687   7.456
 1771SOL    HW2 7211   7.974   0.632   7.423
 1772SOL     OW 7212  13.493   4.115   8.931
 1772SOL    HW1 7213  13.401   4.128   8.955
 1772SOL    HW2 7214  13.495   4.127   8.837
 1773SOL     OW 7215  11.130  11.945  11.987
 1773SOL    HW1 7216  11.142  12.040  11.983
 1773SOL    HW2 7217  11.217  11.908  11.967
 1774SOL     OW 7218   4.909   9.764   9.857
 1774SOL    HW1 7219   4.842   9.830   9.873
 1774SOL    HW2 7220   4.934   9.733   9.944
 1775SOL     OW 7221   0.729   5.228  12.223
 1775SOL    HW1 7222   0.679   5.308  12.240
 1775SOL    HW2 7223   0.772   5.209  12.307
 1776SOL     OW 7224   4.557  10.131   8.811
 1776SOL    HW1 7225   4.547  10.061   8.746
 1776SOL    HW2 7226   4.651  10.133   8.828
 1777SOL     OW 7227  12.306  10.407   6.399
 1777SOL    HW1 7228  12.240  10.365   6.454
 1777SOL    HW2 7229  12.379  10.345   6.399
 1778SOL     OW 7230   4.650  12.802   5.080
 1778SOL    HW1 7231   4.635  12.794   4.986
 1778SOL    HW2 7232   4.737  12.843   5.087
 1779SOL     OW 7233   3.000   6.607  12.758
 1779SOL    HW1 7234   3.036   6.635  12.674
 1779SOL    HW2 7235   2.977   6.515  12.745
 1780SOL     OW 7236   2.474   8.366   4.577
 1780SOL    HW1 7237   2.389   8.412   4.577
 1780SOL    HW2 7238   2.461   8.291   4.519
 1781SOL     OW 7239   3.321   4.700  11.340
 1781SOL    HW1 7240   3.360   4.728  11.423
 1781SOL    HW2 7241   3.377   4.739  11.273
 1782SOL     OW 7242  11.685  11.131   1.716
 1782SOL    HW1 7243  11.755  11.078   1.677
 1782SOL    HW2 7244  11.684  11.105   1.808
 1783SOL     OW 7245  10.797  14.046  11.975
 1783SOL    HW1 7246  10.892  14.061  11.971
 1783SOL    HW2 7247  10.785  13.959  11.938
 1784SOL     OW 7248   0.710   1.165   6.723
 1784SOL    HW1 7249   0.793   1.201   6.693
 1784SOL    HW2 7250   0.647   1.236   6.710
 1785SOL     OW 7251   4.387   8.969   1.625
 1785SOL    HW1 7252   4.322   8.941   1.560
 1785SOL    HW2 7253   4.371   9.063   1.635
 1786SOL     OW 7254   9.950   4.978   6.497
 1786SOL    HW1 7255   9.921   5.069   6.493
 1786SOL    HW2 7256  10.038   4.979   6.459
 1787SOL     OW 7257   6.405   8.405  12.453
 1787SOL    HW1 7258   6.499   8.420  12.447
 1787SOL    HW2 7259   6.386   8.409  12.547
 1788SOL     OW 7260   4.493  11.305   4.393
 1788SOL    HW1 7261   4.495  11.245   4.467
 1788SOL    HW2 7262   4.402  11.332   4.385
 1789SOL     OW 7263  12.324   4.503   6.848
 1789SOL    HW1 7264  12.406   4.511   6.798
 1789SOL    HW2 7265  12.292   4.593   6.854
 1790SOL     OW 7266  13.962   8.771   1.830
 1790SOL    HW1 7267  13.944   8.767   1.736
 1790SOL    HW2 7268  14.044   8.819   1.837
 1791SOL     OW 7269  10.270   2.786   1.239
 1791SOL    HW1 7270  10.209   2.771   1.311
 1791SOL    HW2 7271  10.241   2.727   1.170
 1792SOL     OW 7272   4.696  12.027   8.431
 1792SOL    HW1 7273   4.715  12.099   8.491
 1792SOL    HW2 7274   4.608  11.998   8.454
 1793SOL     OW 7275   9.772   6.948   6.565
 1793SOL    HW1 7276   9.693   6.910   6.604
 1793SOL    HW2 7277   9.832   6.959   6.638
 1794SOL     OW 7278   8.934   4.428   6.121
 1794SOL    HW1 7279   8.866   4.361   6.115
 1794SOL    HW2 7280   8.885   4.510   6.133
 1795SOL     OW 7281   6.546  10.015   5.766
 1795SOL    HW1 7282   6.509  10.099   5.792
 1795SOL    HW2 7283   6.583  10.030   5.679
 1796SOL     OW 7284   5.028  12.434   3.345
 1796SOL    HW1 7285   5.095  12.365   3.343
 1796SOL    HW2 7286   5.052  12.489   3.419
 1797SOL     OW 7287   6.895   6.046  14.011
 1797SOL    HW1 7288   6.919   5.961  13.974
 1797SOL    HW2 7289   6.863   6.096  13.936
 1798SOL     OW 7290   3.541  13.293  13.640
 1798SOL    HW1 7291   3.456  13.255  13.664
 1798SOL    HW2 7292   3.519  13.370  13.589
 1799SOL     OW 7293  11.160   4.491   5.052
 1799SOL    HW1 7294  11.132   4.575   5.018
 1799SOL    HW2 7295  11.105   4.477   5.130
 1800SOL     OW 7296   1.106   1.503  10.929
 1800SOL    HW1 7297   1.175   1.565  10.907
 1800SOL    HW2 7298   1.027   1.556  10.935
 1801SOL     OW 7299   9.164   2.707   0.954
 1801SOL    HW1 7300   9.135   2.748   0.872
 1801SOL    HW2 7301   9.259   2.720   0.954
 1802SOL     OW 7302  14.206  10.858   5.277
 1802SOL    HW1 7303  14.150  10.907   5.218
 1802SOL    HW2 7304  14.283  10.837   5.225
 1803SOL     OW 7305   1.095  14.582  11.512
 1803SOL    HW1 7306   1.041  14.625  11.447
 1803SOL    HW2 7307   1.184  14.586  11.476
 1804SOL     OW 7308  13.661  14.525   7.098
 1804SOL    HW1 7309  13.658  14.603   7.042
 1804SOL    HW2 7310  13.754  14.502   7.101
 1805SOL     OW 7311   7.661   6.732   3.467
 1805SOL    HW1 7312   7.736   6.673   3.458
 1805SOL    HW2 7313   7.660   6.755   3.560
 1806SOL     OW 7314   0.545   7.480   2.936
 1806SOL    HW1 7315   0.611   7.487   3.005
 1806SOL    HW2 7316   0.580   7.416   2.875
 1807SOL     OW 7317   8.039  12.311   1.272
 1807SOL    HW1 7318   8.124  12.271   1.286
 1807SOL    HW2 7319   8.003  12.323   1.359
 1808SOL     OW 7320   3.292  10.175   3.681
 1808SOL    HW1 7321   3.275  10.268   3.694
 1808SOL    HW2 7322   3.341  10.149   3.759
 1809SOL     OW 7323   8.920   7.393   3.274
 1809SOL    HW1 7324   9.005   7.396   3.318
 1809SOL    HW2 7325   8.858   7.377   3.345
 1810SOL     OW 7326   4.883  12.904   3.530
 1810SOL    HW1 7327   4.965  12.941   3.563
 1810SOL    HW2 7328   4.843  12.863   3.606
 1811SOL     OW 7329   2.352   0.811  14.496
 1811SOL    HW1 7330   2.362   0.850  14.583
 1811SOL    HW2 7331   2.319   0.882  14.442
 1812SOL     OW 7332   7.450  11.562  13.952
 1812SOL    HW1 7333   7.388  11.634  13.941
 1812SOL    HW2 7334   7.445  11.540  14.045
 1813SOL     OW 7335   2.155  10.834   1.947
 1813SOL    HW1 7336   2.181  10.922   1.922
 1813SOL    HW2 7337   2.090  10.808   1.882
 1814SOL     OW 7338   6.517   2.629  12.105
 1814SOL    HW1 7339   6.510   2.716  12.145
 1814SOL    HW2 7340   6.502   2.643  12.012
 1815SOL     OW 7341  10.627   4.394  13.290
 1815SOL    HW1 7342  10.575   4.314  13.303
 1815SOL    HW2 7343  10.655   4.390  13.198
 1816SOL     OW 7344   4.008   0.602   1.597
 1816SOL    HW1 7345   4.033   0.510   1.587
 1816SOL    HW2 7346   3.915   0.605   1.576
 1817SOL     OW 7347   3.951   0.430  12.329
 1817SOL    HW1 7348   3.918   0.397  12.245
 1817SOL    HW2 7349   3.873   0.440  12.383
 1818SOL     OW 7350   8.591   7.821   3.037
 1818SOL    HW1 7351   8.583   7.879   2.961
 1818SOL    HW2 7352   8.501   7.800   3.060
 1819SOL     OW 7353  13.115   0.580   9.410
 1819SOL    HW1 7354  13.029   0.540   9.422
 1819SOL    HW2 7355  13.165   0.554   9.488
 1820SOL     OW 7356  10.608   5.296   6.213
 1820SOL    HW1 7357  10.664   5.218   6.204
 1820SOL    HW2 7358  10.571   5.308   6.126
 1821SOL     OW 7359   0.771   1.072  14.541
 1821SOL    HW1 7360   0.727   1.013  14.602
 1821SOL    HW2 7361   0.732   1.052  14.456
 1822SOL     OW 7362   1.744   9.518   8.832
 1822SOL    HW1 7363   1.678   9.480   8.774
 1822SOL    HW2 7364   1.694   9.577   8.889
 1823SOL     OW 7365  13.198   8.850   6.009
 1823SOL    HW1 7366  13.171   8.760   5.992
 1823SOL    HW2 7367  13.116   8.895   6.033
 1824SOL     OW 7368   7.034   5.752  14.389
 1824SOL    HW1 7369   7.110   5.732  14.334
 1824SOL    HW2 7370   7.064   5.733  14.478
 1825SOL     OW 7371  11.430   8.363   2.854
 1825SOL    HW1 7372  11.514   8.342   2.894
 1825SOL    HW2 7373  11.425   8.305   2.778
 1826SOL     OW 7374  11.099  13.665   3.915
 1826SOL    HW1 7375  11.114  13.726   3.843
 1826SOL    HW2 7376  11.123  13.714   3.993
 1827SOL     OW 7377  12.460  10.889   3.825
 1827SOL    HW1 7378  12.459  10.793   3.830
 1827SOL    HW2 7379  12.376  10.916   3.862
 1828SOL     OW 7380   4.616  13.632   1.759
 1828SOL    HW1 7381   4.566  13.676   1.828
 1828SOL    HW2 7382   4.702  13.675   1.761
 1829SOL     OW 7383  11.435   6.530   0.828
 1829SOL    HW1 7384  11.428   6.564   0.739
 1829SOL    HW2 7385  11.366   6.575   0.877
 1830SOL     OW 7386   1.541   7.740   4.065
 1830SOL    HW1 7387   1.621   7.729   4.116
 1830SOL    HW2 7388   1.570   7.784   3.985
 1831SOL     OW 7389  14.541   2.283   5.201
 1831SOL    HW1 7390  14.624   2.329   5.216
 1831SOL    HW2 7391  14.478   2.353   5.185
 1832SOL     OW 7392  11.532   9.925  10.595
 1832SOL    HW1 7393  11.444   9.953  10.619
 1832SOL    HW2 7394  11.543   9.957  10.505
 1833SOL     OW 7395   5.040   6.044   5.422
 1833SOL    HW1 7396   5.123   6.014   5.386
 1833SOL    HW2 7397   5.059   6.130   5.459
 1834SOL     OW 7398  10.266   9.332   7.079
 1834SOL    HW1 7399  10.191   9.278   7.103
 1834SOL    HW2 7400  10.296   9.369   7.162
 1835SOL     OW 7401   0.421   1.095  14.640
 1835SOL    HW1 7402   0.343   1.050  14.671
 1835SOL    HW2 7403   0.409   1.103  14.545
 1836SOL     OW 7404   2.966   2.286  14.386
 1836SOL    HW1 7405   2.931   2.201  14.412
 1836SOL    HW2 7406   2.913   2.311  14.311
 1837SOL     OW 7407  13.313   9.439  11.148
 1837SOL    HW1 7408  13.234   9.387  11.158
 1837SOL    HW2 7409  13.314   9.497  11.225
 1838SOL     OW 7410   9.506   5.930  12.292
 1838SOL    HW1 7411   9.425   5.978  12.274
 1838SOL    HW2 7412   9.486   5.877  12.368
 1839SOL     OW 7413   8.930  13.627  11.838
 1839SOL    HW1 7414   8.947  13.663  11.751
 1839SOL    HW2 7415   9.013  13.585  11.862
 1840SOL     OW 7416   3.240   1.529   4.128
 1840SOL    HW1 7417   3.264   1.442   4.158
 1840SOL    HW2 7418   3.313   1.585   4.156
 1841SOL     OW 7419   7.324   9.639  12.799
 1841SOL    HW1 7420   7.261   9.668  12.733
 1841SOL    HW2 7421   7.270   9.607  12.871
 1842SOL     OW 7422  10.849   3.077  14.874
 1842SOL    HW1 7423  10.925   3.069   0.049
 1842SOL    HW2 7424  10.777   3.038   0.043
 1843SOL     OW 7425   9.324   6.284   3.615
 1843SOL    HW1 7426   9.293   6.359   3.666
 1843SOL    HW2 7427   9.259   6.216   3.629
 1844SOL     OW 7428  13.031  13.019   6.663
 1844SOL    HW1 7429  13.023  13.065   6.746
 1844SOL    HW2 7430  12.947  12.974   6.652
 1845SOL     OW 7431   2.186  12.325   8.900
 1845SOL    HW1 7432   2.125  12.283   8.961
 1845SOL    HW2 7433   2.263  12.268   8.899
 1846SOL     OW 7434   0.989  13.650   2.581
 1846SOL    HW1 7435   1.080  13.639   2.554
 1846SOL    HW2 7436   0.945  13.689   2.506
 1847SOL     OW 7437  11.545   7.658   2.346
 1847SOL    HW1 7438  11.604   7.630   2.276
 1847SOL    HW2 7439  11.592   7.639   2.427
 1848SOL     OW 7440   4.898   8.213   0.849
 1848SOL    HW1 7441   4.894   8.298   0.892
 1848SOL    HW2 7442   4.992   8.195   0.840
 1849SOL     OW 7443   5.581  13.848   4.360
 1849SOL    HW1 7444   5.603  13.910   4.291
 1849SOL    HW2 7445   5.531  13.900   4.424
 1850SOL     OW 7446   9.159   8.004  14.585
 1850SOL    HW1 7447   9.242   8.050  14.596
 1850SOL    HW2 7448   9.100   8.071  14.549
 1851SOL     OW 7449  14.182   8.943  12.577
 1851SOL    HW1 7450  14.183   9.022  12.524
 1851SOL    HW2 7451  14.094   8.941  12.616
 1852SOL     OW 7452   4.422   9.909  10.219
 1852SOL    HW1 7453   4.362   9.969  10.264
 1852SOL    HW2 7454   4.487   9.966  10.179
 1853SOL     OW 7455  11.102   4.284   4.466
 1853SOL    HW1 7456  11.064   4.196   4.472
 1853SOL    HW2 7457  11.066   4.331   4.542
 1854SOL     OW 7458   5.262  11.458   0.518
 1854SOL    HW1 7459   5.277  11.511   0.440
 1854SOL    HW2 7460   5.328  11.389   0.514
 1855SOL     OW 7461   3.388  11.937  13.682
 1855SOL    HW1 7462   3.453  11.899  13.623
 1855SOL    HW2 7463   3.424  11.923  13.769
 1856SOL     OW 7464   2.396   3.186   0.894
 1856SOL    HW1 7465   2.465   3.193   0.828
 1856SOL    HW2 7466   2.355   3.272   0.894
 1857SOL     OW 7467   1.443   2.152   4.565
 1857SOL    HW1 7468   1.426   2.161   4.471
 1857SOL    HW2 7469   1.515   2.212   4.582
 1858SOL     OW 7470   5.811   4.956   0.004
 1858SOL    HW1 7471   5.842   5.023  14.825
 1858SOL    HW2 7472   5.730   4.923  14.847
 1859SOL     OW 7473   3.707   2.608   4.926
 1859SOL    HW1 7474   3.639   2.557   4.970
 1859SOL    HW2 7475   3.787   2.589   4.975
 1860SOL     OW 7476   4.320  12.486   5.726
 1860SOL    HW1 7477   4.376  12.412   5.746
 1860SOL    HW2 7478   4.370  12.537   5.662
 1861SOL     OW 7479   0.147   9.677   3.742
 1861SOL    HW1 7480   0.052   9.676   3.732
 1861SOL    HW2 7481   0.167   9.597   3.791
 1862SOL     OW 7482  10.592   7.972  12.182
 1862SOL    HW1 7483  10.556   7.985  12.270
 1862SOL    HW2 7484  10.619   8.059  12.153
 1863SOL     OW 7485  12.794   4.096   8.922
 1863SOL    HW1 7486  12.713   4.144   8.906
 1863SOL    HW2 7487  12.766   4.014   8.962
 1864SOL     OW 7488  12.591   0.575   5.278
 1864SOL    HW1 7489  12.604   0.657   5.325
 1864SOL    HW2 7490  12.603   0.598   5.186
 1865SOL     OW 7491   0.158  12.582   0.468
 1865SOL    HW1 7492   0.136  12.649   0.533
 1865SOL    HW2 7493   0.136  12.500   0.511
 1866SOL     OW 7494   7.852  12.040   5.234
 1866SOL    HW1 7495   7.782  12.070   5.292
 1866SOL    HW2 7496   7.852  11.945   5.245
 1867SOL     OW 7497  11.372   5.990   9.571
 1867SOL    HW1 7498  11.423   6.066   9.545
 1867SOL    HW2 7499  11.420   5.954   9.647
 1868SOL     OW 7500   7.691   3.758   4.372
 1868SOL    HW1 7501   7.660   3.711   4.295
 1868SOL    HW2 7502   7.719   3.689   4.432
 1869SOL     OW 7503   5.015   6.179   2.114
 1869SOL    HW1 7504   5.106   6.171   2.086
 1869SOL    HW2 7505   5.015   6.148   2.205
 1870SOL     OW 7506  10.288  11.449   0.123
 1870SOL    HW1 7507  10.330  11.423   0.205
 1870SOL    HW2 7508  10.253  11.367   0.087
 1871SOL     OW 7509  12.707   3.303  13.942
 1871SOL    HW1 7510  12.767   3.291  14.016
 1871SOL    HW2 7511  12.735   3.237  13.878
 1872SOL     OW 7512  11.252  12.828  13.574
 1872SOL    HW1 7513  11.250  12.895  13.642
 1872SOL    HW2 7514  11.169  12.838  13.528
 1873SOL     OW 7515   5.191   0.433   7.801
 1873SOL    HW1 7516   5.224   0.520   7.823
 1873SOL    HW2 7517   5.197   0.383   7.882
 1874SOL     OW 7518  13.821   2.601  10.774
 1874SOL    HW1 7519  13.901   2.619  10.723
 1874SOL    HW2 7520  13.750   2.637  10.721
 1875SOL     OW 7521  12.347  12.292   3.992
 1875SOL    HW1 7522  12.432  12.330   4.016
 1875SOL    HW2 7523  12.309  12.263   4.075
 1876SOL     OW 7524  12.279   3.409  12.558
 1876SOL    HW1 7525  12.263   3.478  12.494
 1876SOL    HW2 7526  12.329   3.343  12.510
 1877SOL     OW 7527   1.321   4.812   1.167
 1877SOL    HW1 7528   1.382   4.767   1.108
 1877SOL    HW2 7529   1.362   4.804   1.253
 1878SOL     OW 7530   3.619  14.721   9.432
 1878SOL    HW1 7531   3.711  14.705   9.416
 1878SOL    HW2 7532   3.574  14.686   9.355
 1879SOL     OW 7533   5.369  10.333   9.159
 1879SOL    HW1 7534   5.432  10.292   9.218
 1879SOL    HW2 7535   5.291  10.347   9.213
 1880SOL     OW 7536  12.744   9.590  13.088
 1880SOL    HW1 7537  12.792   9.619  13.011
 1880SOL    HW2 7538  12.799   9.617  13.162
 1881SOL     OW 7539   0.564   2.688  12.773
 1881SOL    HW1 7540   0.614   2.635  12.835
 1881SOL    HW2 7541   0.473   2.675  12.799
 1882SOL     OW 7542  11.787  13.502  13.038
 1882SOL    HW1 7543  11.711  13.523  13.093
 1882SOL    HW2 7544  11.774  13.411  13.012
 1883SOL     OW 7545   9.397   3.653  14.116
 1883SOL    HW1 7546   9.439   3.598  14.049
 1883SOL    HW2 7547   9.369   3.731  14.069
 1884SOL     OW 7548   4.864   8.095   3.738
 1884SOL    HW1 7549   4.933   8.162   3.735
 1884SOL    HW2 7550   4.905   8.022   3.785
 1885SOL     OW 7551   1.880   4.720   3.719
 1885SOL    HW1 7552   1.818   4.788   3.746
 1885SOL    HW2 7553   1.938   4.709   3.795
 1886SOL     OW 7554   1.827   0.637   2.229
 1886SOL    HW1 7555   1.842   0.689   2.150
 1886SOL    HW2 7556   1.781   0.698   2.288
 1887SOL     OW 7557  13.275  10.787   8.989
 1887SOL    HW1 7558  13.347  10.726   9.002
 1887SOL    HW2 7559  13.246  10.772   8.898
 1888SOL     OW 7560   6.505  11.453   0.691
 1888SOL    HW1 7561   6.431  11.412   0.736
 1888SOL    HW2 7562   6.572  11.462   0.760
 1889SOL     OW 7563   9.243   2.139   6.268
 1889SOL    HW1 7564   9.333   2.116   6.246
 1889SOL    HW2 7565   9.194   2.127   6.187
 1890SOL     OW 7566   7.786  11.784   9.601
 1890SOL    HW1 7567   7.771  11.723   9.673
 1890SOL    HW2 7568   7.808  11.867   9.645
 1891SOL     OW 7569  13.436  11.865  11.347
 1891SOL    HW1 7570  13.493  11.940  11.332
 1891SOL    HW2 7571  13.358  11.883  11.295
 1892SOL     OW 7572   2.916  14.337  14.495
 1892SOL    HW1 7573   2.898  14.341  14.589
 1892SOL    HW2 7574   2.874  14.414  14.459
 1893SOL     OW 7575  13.867   1.760  13.866
 1893SOL    HW1 7576  13.858   1.853  13.849
 1893SOL    HW2 7577  13.876   1.754  13.961
 1894SOL     OW 7578   0.466   5.985  14.797
 1894SOL    HW1 7579   0.470   6.027  14.711
 1894SOL    HW2 7580   0.389   5.928  14.792
 1895SOL     OW 7581   3.661  11.793   8.537
 1895SOL    HW1 7582   3.609  11.781   8.457
 1895SOL    HW2 7583   3.752  11.784   8.507
 1896SOL     OW 7584   6.815  10.052  13.562
 1896SOL    HW1 7585   6.853  10.113  13.499
 1896SOL    HW2 7586   6.888  10.028  13.619
 1897SOL     OW 7587   6.776  10.369   6.138
 1897SOL    HW1 7588   6.849  10.430   6.124
 1897SOL    HW2 7589   6.758  10.374   6.232
 1898SOL     OW 7590  13.469   3.838   4.543
 1898SOL    HW1 7591  13.406   3.847   4.614
 1898SOL    HW2 7592  13.554   3.830   4.588
 1899SOL     OW 7593  10.549   7.410   9.570
 1899SOL    HW1 7594  10.457   7.386   9.558
 1899SOL    HW2 7595  10.556   7.433   9.663
 1900SOL     OW 7596   4.929   3.821   1.435
 1900SOL    HW1 7597   4.850   3.871   1.412
 1900SOL    HW2 7598   4.908   3.731   1.413
 1901SOL     OW 7599   3.226   2.750   2.663
 1901SOL    HW1 7600   3.169   2.711   2.728
 1901SOL    HW2 7601   3.315   2.732   2.694
 1902SOL     OW 7602  13.651  11.949  13.509
 1902SOL    HW1 7603  13.708  11.999  13.568
 1902SOL    HW2 7604  13.643  11.863  13.550
 1903SOL     OW 7605   7.415  12.331  11.634
 1903SOL    HW1 7606   7.385  12.326  11.724
 1903SOL    HW2 7607   7.492  12.388  11.637
 1904SOL     OW 7608   8.960  14.062   5.980
 1904SOL    HW1 7609   8.893  14.107   5.928
 1904SOL    HW2 7610   9.042  14.080   5.935
 1905SOL     OW 7611  12.250   7.877  10.537
 1905SOL    HW1 7612  12.224   7.822  10.464
 1905SOL    HW2 7613  12.346   7.879  10.534
 1906SOL     OW 7614   4.863  13.565   0.614
 1906SOL    HW1 7615   4.801  13.632   0.586
 1906SOL    HW2 7616   4.949  13.603   0.597
 1907SOL     OW 7617   4.546  13.553  14.467
 1907SOL    HW1 7618   4.563  13.461  14.448
 1907SOL    HW2 7619   4.451  13.557  14.483
 1908SOL     OW 7620   9.697   8.796   3.298
 1908SOL    HW1 7621   9.642   8.742   3.354
 1908SOL    HW2 7622   9.773   8.817   3.352
 1909SOL     OW 7623  12.530   4.420   7.306
 1909SOL    HW1 7624  12.459   4.417   7.242
 1909SOL    HW2 7625  12.495   4.470   7.380
 1910SOL     OW 7626   0.655  14.878   6.457
 1910SOL    HW1 7627   0.680  14.798   6.502
 1910SOL    HW2 7628   0.649   0.062   6.526
 1911SOL     OW 7629   6.902   5.839   8.888
 1911SOL    HW1 7630   6.812   5.806   8.883
 1911SOL    HW2 7631   6.918   5.874   8.800
 1912SOL     OW 7632   6.863   8.177   2.221
 1912SOL    HW1 7633   6.867   8.111   2.289
 1912SOL    HW2 7634   6.790   8.233   2.247
 1913SOL     OW 7635  14.784   3.977   0.844
 1913SOL    HW1 7636  14.719   4.042   0.872
 1913SOL    HW2 7637  14.786   3.913   0.914
 1914SOL     OW 7638   6.028   7.688  10.477
 1914SOL    HW1 7639   5.935   7.701  10.495
 1914SOL    HW2 7640   6.068   7.680  10.564
 1915SOL     OW 7641  11.067   9.798  12.693
 1915SOL    HW1 7642  11.128   9.862  12.654
 1915SOL    HW2 7643  11.091   9.796  12.786
 1916SOL     OW 7644   2.612   0.758   2.257
 1916SOL    HW1 7645   2.571   0.755   2.171
 1916SOL    HW2 7646   2.706   0.757   2.238
 1917SOL     OW 7647   9.039  11.022   4.179
 1917SOL    HW1 7648   9.071  10.950   4.233
 1917SOL    HW2 7649   9.017  10.981   4.095
 1918SOL     OW 7650   9.140  14.408   3.052
 1918SOL    HW1 7651   9.084  14.443   2.983
 1918SOL    HW2 7652   9.156  14.483   3.110
 1919SOL     OW 7653   7.477   1.460   1.022
 1919SOL    HW1 7654   7.529   1.419   1.092
 1919SOL    HW2 7655   7.396   1.486   1.065
 1920SOL     OW 7656   3.963  10.034   8.749
 1920SOL    HW1 7657   3.964  10.060   8.841
 1920SOL    HW2 7658   3.870  10.036   8.725
 1921SOL     OW 7659   8.722   5.755  14.702
 1921SOL    HW1 7660   8.727   5.691  14.772
 1921SOL    HW2 7661   8.787   5.727  14.639
 1922SOL     OW 7662  10.427   6.302   7.121
 1922SOL    HW1 7663  10.425   6.390   7.084
 1922SOL    HW2 7664  10.519   6.276   7.118
 1923SOL     OW 7665   8.999   8.723   0.974
 1923SOL    HW1 7666   8.965   8.768   1.051
 1923SOL    HW2 7667   9.064   8.783   0.938
 1924SOL     OW 7668   5.911  10.722   2.763
 1924SOL    HW1 7669   6.003  10.748   2.770
 1924SOL    HW2 7670   5.912  10.646   2.704
 1925SOL     OW 7671   9.006   6.607   4.899
 1925SOL    HW1 7672   9.084   6.583   4.949
 1925SOL    HW2 7673   9.026   6.692   4.861
 1926SOL     OW 7674  11.614   6.190   3.385
 1926SOL    HW1 7675  11.695   6.197   3.436
 1926SOL    HW2 7676  11.584   6.100   3.400
 1927SOL     OW 7677   8.685   2.605   7.954
 1927SOL    HW1 7678   8.725   2.518   7.948
 1927SOL    HW2 7679   8.683   2.624   8.047
 1928SOL     OW 7680   0.434   5.125  14.259
 1928SOL    HW1 7681   0.387   5.203  14.287
 1928SOL    HW2 7682   0.498   5.108  14.328
 1929SOL     OW 7683   6.496   5.952   2.770
 1929SOL    HW1 7684   6.479   5.991   2.855
 1929SOL    HW2 7685   6.420   5.898   2.752
 1930SOL     OW 7686  11.341   5.325  11.015
 1930SOL    HW1 7687  11.272   5.339  10.950
 1930SOL    HW2 7688  11.421   5.319  10.963
 1931SOL     OW 7689  11.507   7.807  12.321
 1931SOL    HW1 7690  11.440   7.778  12.383
 1931SOL    HW2 7691  11.466   7.879  12.274
 1932SOL     OW 7692   1.867  14.588   3.168
 1932SOL    HW1 7693   1.904  14.669   3.133
 1932SOL    HW2 7694   1.943  14.540   3.203
 1933SOL     OW 7695   2.253  10.863   9.488
 1933SOL    HW1 7696   2.274  10.784   9.538
 1933SOL    HW2 7697   2.330  10.919   9.500
 1934SOL     OW 7698   6.693   7.785   5.479
 1934SOL    HW1 7699   6.601   7.801   5.501
 1934SOL    HW2 7700   6.691   7.741   5.394
 1935SOL     OW 7701  14.046  13.050  11.231
 1935SOL    HW1 7702  14.016  12.983  11.170
 1935SOL    HW2 7703  14.044  13.008  11.317
 1936SOL     OW 7704   8.248   6.554   5.349
 1936SOL    HW1 7705   8.181   6.519   5.408
 1936SOL    HW2 7706   8.221   6.525   5.262
 1937SOL     OW 7707  11.794   8.699   4.907
 1937SOL    HW1 7708  11.801   8.742   4.992
 1937SOL    HW2 7709  11.853   8.747   4.850
 1938SOL     OW 7710   4.827   7.509   7.087
 1938SOL    HW1 7711   4.815   7.553   7.170
 1938SOL    HW2 7712   4.922   7.494   7.081
 1939SOL     OW 7713   4.227   3.476   7.605
 1939SOL    HW1 7714   4.282   3.412   7.651
 1939SOL    HW2 7715   4.218   3.440   7.516
 1940SOL     OW 7716  13.855   2.831   9.380
 1940SOL    HW1 7717  13.842   2.799   9.291
 1940SOL    HW2 7718  13.768   2.827   9.420
 1941SOL     OW 7719   1.361   2.863  14.393
 1941SOL    HW1 7720   1.324   2.815  14.467
 1941SOL    HW2 7721   1.298   2.850  14.322
 1942SOL     OW 7722  12.484  12.848   3.963
 1942SOL    HW1 7723  12.528  12.842   3.879
 1942SOL    HW2 7724  12.550  12.819   4.027
 1943SOL     OW 7725   7.356   4.029  11.382
 1943SOL    HW1 7726   7.405   4.072  11.312
 1943SOL    HW2 7727   7.308   3.958  11.337
 1944SOL     OW 7728   6.022   8.834   5.077
 1944SOL    HW1 7729   6.076   8.893   5.130
 1944SOL    HW2 7730   5.959   8.892   5.034
 1945SOL     OW 7731  14.252  10.355   1.925
 1945SOL    HW1 7732  14.200  10.288   1.971
 1945SOL    HW2 7733  14.190  10.427   1.910
 1946SOL     OW 7734  12.969   7.519  10.052
 1946SOL    HW1 7735  12.999   7.584   9.989
 1946SOL    HW2 7736  12.875   7.538  10.063
 1947SOL     OW 7737   3.878   3.321  13.194
 1947SOL    HW1 7738   3.800   3.374  13.207
 1947SOL    HW2 7739   3.931   3.336  13.273
 1948SOL     OW 7740   0.837   3.199   0.961
 1948SOL    HW1 7741   0.881   3.283   0.947
 1948SOL    HW2 7742   0.905   3.134   0.945
 1949SOL     OW 7743   7.866   5.462   5.329
 1949SOL    HW1 7744   7.848   5.538   5.274
 1949SOL    HW2 7745   7.780   5.432   5.357
 1950SOL     OW 7746  12.794   4.803   3.570
 1950SOL    HW1 7747  12.773   4.789   3.478
 1950SOL    HW2 7748  12.733   4.745   3.617
 1951SOL     OW 7749   7.025  14.700  11.014
 1951SOL    HW1 7750   7.065  14.746  10.940
 1951SOL    HW2 7751   6.941  14.668  10.980
 1952SOL     OW 7752   7.180   8.813  14.265
 1952SOL    HW1 7753   7.162   8.752  14.336
 1952SOL    HW2 7754   7.241   8.877  14.303
 1953SOL     OW 7755   3.129  10.950   7.392
 1953SOL    HW1 7756   3.096  10.923   7.306
 1953SOL    HW2 7757   3.069  10.907   7.454
 1954SOL     OW 7758   7.012   8.936   7.267
 1954SOL    HW1 7759   7.096   8.979   7.251
 1954SOL    HW2 7760   6.947   9.004   7.251
 1955SOL     OW 7761   1.810   7.961   1.923
 1955SOL    HW1 7762   1.825   7.926   2.010
 1955SOL    HW2 7763   1.798   7.884   1.867
 1956SOL     OW 7764   8.699   0.919  10.008
 1956SOL    HW1 7765   8.626   0.858  10.017
 1956SOL    HW2 7766   8.768   0.868   9.965
 1957SOL     OW 7767  12.904   1.097  13.581
 1957SOL    HW1 7768  12.931   1.075  13.671
 1957SOL    HW2 7769  12.979   1.145  13.545
 1958SOL     OW 7770   6.387   6.513   3.192
 1958SOL    HW1 7771   6.328   6.470   3.255
 1958SOL    HW2 7772   6.358   6.604   3.191
 1959SOL     OW 7773   7.639   7.041  12.646
 1959SOL    HW1 7774   7.564   7.015  12.700
 1959SOL    HW2 7775   7.688   7.101  12.702
 1960SOL     OW 7776   4.424   4.105   8.528
 1960SOL    HW1 7777   4.480   4.155   8.469
 1960SOL    HW2 7778   4.352   4.165   8.550
 1961SOL     OW 7779  11.153  12.873   5.362
 1961SOL    HW1 7780  11.088  12.857   5.294
 1961SOL    HW2 7781  11.185  12.786   5.386
 1962SOL     OW 7782   9.347  12.331   4.691
 1962SOL    HW1 7783   9.310  12.347   4.604
 1962SOL    HW2 7784   9.375  12.418   4.721
 1963SOL     OW 7785   2.616   6.869   4.911
 1963SOL    HW1 7786   2.649   6.955   4.938
 1963SOL    HW2 7787   2.691   6.826   4.870
 1964SOL     OW 7788   7.807   3.001  11.179
 1964SOL    HW1 7789   7.859   3.081  11.179
 1964SOL    HW2 7790   7.769   2.998  11.091
 1965SOL     OW 7791   4.999   5.728   8.069
 1965SOL    HW1 7792   5.077   5.716   8.123
 1965SOL    HW2 7793   5.032   5.758   7.985
 1966SOL     OW 7794   7.993   1.058  14.020
 1966SOL    HW1 7795   7.962   1.073  13.931
 1966SOL    HW2 7796   8.065   1.120  14.031
 1967SOL     OW 7797   4.566  12.205  12.716
 1967SOL    HW1 7798   4.529  12.226  12.631
 1967SOL    HW2 7799   4.628  12.134  12.698
 1968SOL     OW 7800  12.910   4.280   5.752
 1968SOL    HW1 7801  12.871   4.368   5.754
 1968SOL    HW2 7802  12.946   4.268   5.840
 1969SOL     OW 7803   5.999   0.985   9.088
 1969SOL    HW1 7804   5.918   0.976   9.138
 1969SOL    HW2 7805   5.995   0.915   9.023
 1970SOL     OW 7806   2.712   2.388   1.773
 1970SOL    HW1 7807   2.617   2.383   1.782
 1970SOL    HW2 7808   2.726   2.399   1.679
 1971SOL     OW 7809   7.135   1.732   2.625
 1971SOL    HW1 7810   7.122   1.638   2.640
 1971SOL    HW2 7811   7.201   1.736   2.556
 1972SOL     OW 7812   2.412   0.094   1.754
 1972SOL    HW1 7813   2.343   0.141   1.800
 1972SOL    HW2 7814   2.461   0.050   1.823
 1973SOL     OW 7815  13.321   5.532   6.804
 1973SOL    HW1 7816  13.279   5.527   6.890
 1973SOL    HW2 7817  13.402   5.483   6.814
 1974SOL     OW 7818   6.796   0.332   9.463
 1974SOL    HW1 7819   6.842   0.301   9.385
 1974SOL    HW2 7820   6.706   0.300   9.453
 1975SOL     OW 7821   7.357   5.165   0.249
 1975SOL    HW1 7822   7.312   5.220   0.185
 1975SOL    HW2 7823   7.290   5.102   0.277
 1976SOL     OW 7824   5.706   7.575  10.227
 1976SOL    HW1 7825   5.635   7.635  10.248
 1976SOL    HW2 7826   5.717   7.583  10.132
 1977SOL     OW 7827  12.757  12.546   0.365
 1977SOL    HW1 7828  12.764  12.527   0.459
 1977SOL    HW2 7829  12.796  12.471   0.322
 1978SOL     OW 7830   9.963   0.401   7.534
 1978SOL    HW1 7831   9.901   0.358   7.593
 1978SOL    HW2 7832   9.921   0.484   7.511
 1979SOL     OW 7833   4.023   6.329  11.344
 1979SOL    HW1 7834   4.003   6.319  11.437
 1979SOL    HW2 7835   4.021   6.239  11.310
 1980SOL     OW 7836   9.095  13.643  12.989
 1980SOL    HW1 7837   9.069  13.713  12.929
 1980SOL    HW2 7838   9.030  13.647  13.059
 1981SOL     OW 7839   8.289   7.526  13.153
 1981SOL    HW1 7840   8.314   7.443  13.192
 1981SOL    HW2 7841   8.366   7.582  13.161
 1982SOL     OW 7842   0.024   1.819  14.624
 1982SOL    HW1 7843   0.085   1.802  14.696
 1982SOL    HW2 7844  14.837   1.872  14.663
 1983SOL     OW 7845  12.723   8.690  10.398
 1983SOL    HW1 7846  12.719   8.630  10.473
 1983SOL    HW2 7847  12.716   8.777  10.436
 1984SOL     OW 7848   6.775  12.293   5.522
 1984SOL    HW1 7849   6.797  12.307   5.614
 1984SOL    HW2 7850   6.804  12.204   5.503
 1985SOL     OW 7851  13.770   1.373  11.561
 1985SOL    HW1 7852  13.739   1.329  11.641
 1985SOL    HW2 7853  13.847   1.322  11.535
 1986SOL     OW 7854  12.930   3.152  14.084
 1986SOL    HW1 7855  12.921   3.059  14.062
 1986SOL    HW2 7856  13.024   3.168  14.078
 1987SOL     OW 7857   6.827  13.297   8.086
 1987SOL    HW1 7858   6.819  13.204   8.107
 1987SOL    HW2 7859   6.871  13.336   8.161
 1988SOL     OW 7860   9.015  12.246   7.225
 1988SOL    HW1 7861   8.986  12.204   7.306
 1988SOL    HW2 7862   9.029  12.337   7.248
 1989SOL     OW 7863   1.983  14.506   8.881
 1989SOL    HW1 7864   1.958  14.465   8.963
 1989SOL    HW2 7865   1.902  14.511   8.830
 1990SOL     OW 7866   1.670  10.810   2.485
 1990SOL    HW1 7867   1.653  10.890   2.436
 1990SOL    HW2 7868   1.733  10.835   2.553
 1991SOL     OW 7869   1.100   5.617  11.448
 1991SOL    HW1 7870   1.044   5.610  11.525
 1991SOL    HW2 7871   1.156   5.692  11.466
 1992SOL     OW 7872  10.564   5.212   5.798
 1992SOL    HW1 7873  10.564   5.140   5.862
 1992SOL    HW2 7874  10.621   5.181   5.728
 1993SOL     OW 7875   4.943   3.159   8.573
 1993SOL    HW1 7876   4.853   3.128   8.587
 1993SOL    HW2 7877   4.933   3.229   8.508
 1994SOL     OW 7878  13.728   4.847  10.445
 1994SOL    HW1 7879  13.695   4.915  10.386
 1994SOL    HW2 7880  13.709   4.880  10.533
 1995SOL     OW 7881   7.961  12.615   9.551
 1995SOL    HW1 7882   7.930  12.606   9.461
 1995SOL    HW2 7883   7.906  12.554   9.601
 1996SOL     OW 7884   4.894   3.019   9.103
 1996SOL    HW1 7885   4.951   3.018   9.180
 1996SOL    HW2 7886   4.938   2.962   9.040
 1997SOL     OW 7887   0.732   8.542   2.188
 1997SOL    HW1 7888   0.756   8.489   2.112
 1997SOL    HW2 7889   0.792   8.513   2.257
 1998SOL     OW 7890  13.651  13.740   6.034
 1998SOL    HW1 7891  13.569  13.721   6.080
 1998SOL    HW2 7892  13.713  13.761   6.104
 1999SOL     OW 7893  10.874  12.727   5.923
 1999SOL    HW1 7894  10.852  12.638   5.895
 1999SOL    HW2 7895  10.931  12.715   5.999
 2000SOL     OW 7896   4.848  13.976   6.059
 2000SOL    HW1 7897   4.800  14.056   6.040
 2000SOL    HW2 7898   4.809  13.944   6.141
 2001SOL     OW 7899   7.330   7.520   0.009
 2001SOL    HW1 7900   7.376   7.490  14.812
 2001SOL    HW2 7901   7.239   7.528  14.863
 2002SOL     OW 7902   8.198  11.094  13.750
 2002SOL    HW1 7903   8.132  11.142  13.700
 2002SOL    HW2 7904   8.268  11.158  13.765
 2003SOL     OW 7905  13.178  14.582   0.142
 2003SOL    HW1 7906  13.243  14.645   0.174
 2003SOL    HW2 7907  13.094  14.618   0.171
 2004SOL     OW 7908   2.363   6.603  11.553
 2004SOL    HW1 7909   2.337   6.622  11.643
 2004SOL    HW2 7910   2.356   6.687  11.508
 2005SOL     OW 7911   5.174   3.222   7.968
 2005SOL    HW1 7912   5.093   3.202   8.014
 2005SOL    HW2 7913   5.241   3.223   8.037
 2006SOL     OW 7914  14.597  10.054  10.588
 2006SOL    HW1 7915  14.664   9.992  10.617
 2006SOL    HW2 7916  14.524  10.040  10.649
 2007SOL     OW 7917   7.135  10.706   6.491
 2007SOL    HW1 7918   7.099  10.746   6.413
 2007SOL    HW2 7919   7.202  10.645   6.458
 2008SOL     OW 7920   2.812  13.267  13.759
 2008SOL    HW1 7921   2.811  13.215  13.679
 2008SOL    HW2 7922   2.784  13.206  13.827
 2009SOL     OW 7923   6.299   8.281  11.908
 2009SOL    HW1 7924   6.239   8.275  11.982
 2009SOL    HW2 7925   6.242   8.300  11.833
 2010SOL     OW 7926  14.263   4.767   4.279
 2010SOL    HW1 7927  14.213   4.798   4.203
 2010SOL    HW2 7928  14.210   4.794   4.354
 2011SOL     OW 7929   0.615   8.146   7.452
 2011SOL    HW1 7930   0.588   8.211   7.516
 2011SOL    HW2 7931   0.537   8.093   7.436
 2012SOL     OW 7932   4.806   2.995   5.441
 2012SOL    HW1 7933   4.741   2.995   5.371
 2012SOL    HW2 7934   4.890   2.995   5.395
 2013SOL     OW 7935  10.631   5.332  12.604
 2013SOL    HW1 7936  10.568   5.354  12.535
 2013SOL    HW2 7937  10.680   5.257  12.570
 2014SOL     OW 7938  14.060   8.184   8.808
 2014SOL    HW1 7939  14.140   8.174   8.861
 2014SOL    HW2 7940  13.989   8.188   8.872
 2015SOL     OW 7941   8.232   9.719   7.581
 2015SOL    HW1 7942   8.244   9.625   7.572
 2015SOL    HW2 7943   8.320   9.755   7.574
 2016SOL     OW 7944  13.610   3.224  10.315
 2016SOL    HW1 7945  13.648   3.292  10.259
 2016SOL    HW2 7946  13.517   3.224  10.291
 2017SOL     OW 7947  14.482   2.939   5.003
 2017SOL    HW1 7948  14.389   2.955   4.986
 2017SOL    HW2 7949  14.527   2.967   4.924
 2018SOL     OW 7950   0.220   7.959   2.024
 2018SOL    HW1 7951   0.295   7.900   2.029
 2018SOL    HW2 7952   0.246   8.035   2.075
 2019SOL     OW 7953  12.580  14.804   7.045
 2019SOL    HW1 7954  12.567  14.777   6.954
 2019SOL    HW2 7955  12.522  14.747   7.095
 2020SOL     OW 7956   2.004   7.334   1.993
 2020SOL    HW1 7957   2.087   7.379   1.977
 2020SOL    HW2 7958   1.942   7.404   2.010
 2021SOL     OW 7959  13.994   5.251   8.447
 2021SOL    HW1 7960  14.060   5.308   8.488
 2021SOL    HW2 7961  13.990   5.281   8.356
 2022SOL     OW 7962  11.368   9.488   7.454
 2022SOL    HW1 7963  11.383   9.409   7.506
 2022SOL    HW2 7964  11.273   9.493   7.445
 2023SOL     OW 7965  13.904   3.068  13.888
 2023SOL    HW1 7966  13.862   3.114  13.815
 2023SOL    HW2 7967  13.872   2.978  13.881
 2024SOL     OW 7968  13.556   2.047  11.240
 2024SOL    HW1 7969  13.603   1.967  11.216
 2024SOL    HW2 7970  13.466   2.032  11.213
 2025SOL     OW 7971   1.021  10.343   1.904
 2025SOL    HW1 7972   0.945  10.393   1.934
 2025SOL    HW2 7973   1.075  10.332   1.982
 2026SOL     OW 7974  13.861   3.009   9.673
 2026SOL    HW1 7975  13.920   2.939   9.644
 2026SOL    HW2 7976  13.856   2.998   9.768
 2027SOL     OW 7977  10.689   8.171   4.443
 2027SOL    HW1 7978  10.677   8.171   4.348
 2027SOL    HW2 7979  10.783   8.184   4.455
 2028SOL     OW 7980   5.016   4.345  13.282
 2028SOL    HW1 7981   5.002   4.393  13.200
 2028SOL    HW2 7982   4.972   4.398  13.349
 2029SOL     OW 7983   7.889   5.245   8.025
 2029SOL    HW1 7984   7.853   5.308   7.963
 2029SOL    HW2 7985   7.886   5.161   7.978
 2030SOL     OW 7986   4.690   1.545   8.494
 2030SOL    HW1 7987   4.672   1.600   8.419
 2030SOL    HW2 7988   4.604   1.521   8.529
 2031SOL     OW 7989  13.933   7.575   5.944
 2031SOL    HW1 7990  13.846   7.613   5.959
 2031SOL    HW2 7991  13.957   7.604   5.856
 2032SOL     OW 7992   6.725  13.395  14.790
 2032SOL    HW1 7993   6.695  13.363  14.875
 2032SOL    HW2 7994   6.808  13.439  14.809
 2033SOL     OW 7995   6.203   1.983  13.308
 2033SOL    HW1 7996   6.195   1.952  13.218
 2033SOL    HW2 7997   6.222   2.076  13.300
 2034SOL     OW 7998   3.344  10.901  13.527
 2034SOL    HW1 7999   3.308  10.920  13.613
 2034SOL    HW2 8000   3.435  10.931  13.532
 2035SOL     OW 8001   2.640  13.475   6.278
 2035SOL    HW1 8002   2.605  13.477   6.189
 2035SOL    HW2 8003   2.578  13.528   6.329
 2036SOL     OW 8004  13.610   0.905   5.559
 2036SOL    HW1 8005  13.694   0.862   5.540
 2036SOL    HW2 8006  13.562   0.899   5.476
 2037SOL     OW 8007   9.026   2.381  11.140
 2037SOL    HW1 8008   9.108   2.414  11.177
 2037SOL    HW2 8009   8.963   2.451  11.157
 2038SOL     OW 8010   7.416   3.186   6.699
 2038SOL    HW1 8011   7.355   3.224   6.763
 2038SOL    HW2 8012   7.499   3.230   6.718
 2039SOL     OW 8013   7.246   3.563   1.336
 2039SOL    HW1 8014   7.341   3.564   1.322
 2039SOL    HW2 8015   7.217   3.648   1.304
 2040SOL     OW 8016   8.206   5.744  13.099
 2040SOL    HW1 8017   8.150   5.820  13.082
 2040SOL    HW2 8018   8.272   5.747  13.030
 2041SOL     OW 8019  11.312   6.368  13.871
 2041SOL    HW1 8020  11.367   6.370  13.792
 2041SOL    HW2 8021  11.255   6.293  13.858
 2042SOL     OW 8022  12.253   0.737   0.380
 2042SOL    HW1 8023  12.305   0.689   0.445
 2042SOL    HW2 8024  12.295   0.717   0.296
 2043SOL     OW 8025  11.640   3.562   4.913
 2043SOL    HW1 8026  11.705   3.500   4.944
 2043SOL    HW2 8027  11.667   3.646   4.951
 2044SOL     OW 8028   4.898   9.680   3.884
 2044SOL    HW1 8029   4.917   9.772   3.863
 2044SOL    HW2 8030   4.803   9.673   3.876
 2045SOL     OW 8031   2.403  10.747   7.570
 2045SOL    HW1 8032   2.462  10.793   7.511
 2045SOL    HW2 8033   2.318  10.789   7.558
 2046SOL     OW 8034   4.971   5.001   0.095
 2046SOL    HW1 8035   5.033   5.003   0.168
 2046SOL    HW2 8036   4.984   5.086   0.051
 2047SOL     OW 8037   5.146   4.318   2.358
 2047SOL    HW1 8038   5.204   4.381   2.316
 2047SOL    HW2 8039   5.198   4.278   2.428
 2048SOL     OW 8040   9.907   9.440   2.106
 2048SOL    HW1 8041   9.831   9.496   2.124
 2048SOL    HW2 8042   9.950   9.430   2.190
 2049SOL     OW 8043  14.651  12.931   6.141
 2049SOL    HW1 8044  14.627  13.014   6.098
 2049SOL    HW2 8045  14.578  12.872   6.121
 2050SOL     OW 8046  10.461   3.193   9.876
 2050SOL    HW1 8047  10.469   3.106   9.913
 2050SOL    HW2 8048  10.397   3.184   9.805
 2051SOL     OW 8049  13.521   6.069   7.163
 2051SOL    HW1 8050  13.540   6.034   7.076
 2051SOL    HW2 8051  13.428   6.094   7.159
 2052SOL     OW 8052   9.013   7.699   3.259
 2052SOL    HW1 8053   9.063   7.671   3.182
 2052SOL    HW2 8054   9.070   7.764   3.302
 2053SOL     OW 8055  13.304   0.981  11.669
 2053SOL    HW1 8056  13.384   0.930  11.660
 2053SOL    HW2 8057  13.315   1.054  11.607
 2054SOL     OW 8058  10.453   9.033   9.909
 2054SOL    HW1 8059  10.414   8.952   9.942
 2054SOL    HW2 8060  10.547   9.018   9.915
 2055SOL     OW 8061  14.305   9.986   1.679
 2055SOL    HW1 8062  14.242   9.914   1.683
 2055SOL    HW2 8063  14.389   9.943   1.661
 2056SOL     OW 8064   9.118   0.812  14.617
 2056SOL    HW1 8065   9.122   0.721  14.647
 2056SOL    HW2 8066   9.177   0.815  14.541
 2057SOL     OW 8067   5.838   8.580   1.349
 2057SOL    HW1 8068   5.755   8.534   1.348
 2057SOL    HW2 8069   5.882   8.553   1.269
 2058SOL     OW 8070  10.286   0.027   9.683
 2058SOL    HW1 8071  10.195   0.004   9.703
 2058SOL    HW2 8072  10.297   0.115   9.717
 2059SOL     OW 8073  14.156   7.844   7.023
 2059SOL    HW1 8074  14.220   7.914   7.036
 2059SOL    HW2 8075  14.184   7.802   6.942
 2060SOL     OW 8076  11.304   9.389   2.543
 2060SOL    HW1 8077  11.261   9.468   2.574
 2060SOL    HW2 8078  11.265   9.319   2.596
 2061SOL     OW 8079  12.898   1.382   3.730
 2061SOL    HW1 8080  12.887   1.353   3.820
 2061SOL    HW2 8081  12.962   1.453   3.735
 2062SOL     OW 8082  13.898  11.138  14.189
 2062SOL    HW1 8083  13.891  11.183  14.273
 2062SOL    HW2 8084  13.964  11.070  14.203
 2063SOL     OW 8085  10.032   5.670   7.448
 2063SOL    HW1 8086  10.042   5.640   7.538
 2063SOL    HW2 8087  10.060   5.762   7.450
 2064SOL     OW 8088   3.547   9.279   0.274
 2064SOL    HW1 8089   3.625   9.329   0.297
 2064SOL    HW2 8090   3.552   9.201   0.329
 2065SOL     OW 8091   2.119  12.212   8.301
 2065SOL    HW1 8092   2.201  12.163   8.311
 2065SOL    HW2 8093   2.132  12.292   8.352
 2066SOL     OW 8094   8.948  10.245   7.620
 2066SOL    HW1 8095   8.928  10.192   7.543
 2066SOL    HW2 8096   8.871  10.236   7.677
 2067SOL     OW 8097  14.227   7.042   8.380
 2067SOL    HW1 8098  14.168   6.967   8.367
 2067SOL    HW2 8099  14.221   7.091   8.298
 2068SOL     OW 8100   0.503   7.616   6.578
 2068SOL    HW1 8101   0.567   7.552   6.549
 2068SOL    HW2 8102   0.518   7.624   6.672
 2069SOL     OW 8103  14.093   4.892   8.872
 2069SOL    HW1 8104  14.044   4.917   8.793
 2069SOL    HW2 8105  14.180   4.929   8.858
 2070SOL     OW 8106   8.650   5.908   8.644
 2070SOL    HW1 8107   8.681   5.818   8.658
 2070SOL    HW2 8108   8.624   5.938   8.731
 2071SOL     OW 8109   8.082   9.673  10.865
 2071SOL    HW1 8110   8.150   9.612  10.838
 2071SOL    HW2 8111   8.109   9.757  10.829
 2072SOL     OW 8112  12.989   1.450  11.639
 2072SOL    HW1 8113  12.947   1.372  11.603
 2072SOL    HW2 8114  13.038   1.418  11.715
 2073SOL     OW 8115  14.066   1.484   5.452
 2073SOL    HW1 8116  14.137   1.548   5.461
 2073SOL    HW2 8117  14.081   1.420   5.521
 2074SOL     OW 8118  10.626  12.723   6.014
 2074SOL    HW1 8119  10.593  12.800   5.968
 2074SOL    HW2 8120  10.720  12.741   6.026
 2075SOL     OW 8121   9.205   0.174   7.352
 2075SOL    HW1 8122   9.136   0.145   7.293
 2075SOL    HW2 8123   9.194   0.269   7.356
 2076SOL     OW 8124   5.187  10.274  14.347
 2076SOL    HW1 8125   5.131  10.260  14.424
 2076SOL    HW2 8126   5.276  10.269  14.380
 2077SOL     OW 8127   4.029   2.496   0.456
 2077SOL    HW1 8128   4.070   2.536   0.379
 2077SOL    HW2 8129   4.083   2.419   0.475
 2078SOL     OW 8130   0.703  12.533   2.779
 2078SOL    HW1 8131   0.619  12.577   2.793
 2078SOL    HW2 8132   0.766  12.605   2.768
 2079SOL     OW 8133  12.397  12.724  12.671
 2079SOL    HW1 8134  12.382  12.630  12.683
 2079SOL    HW2 8135  12.466  12.728  12.604
 2080SOL     OW 8136  12.591   9.361  12.603
 2080SOL    HW1 8137  12.507   9.352  12.558
 2080SOL    HW2 8138  12.656   9.368  12.533
 2081SOL     OW 8139  11.917   6.432   0.773
 2081SOL    HW1 8140  11.925   6.351   0.722
 2081SOL    HW2 8141  11.825   6.433   0.802
 2082SOL     OW 8142   2.627  12.894   6.735
 2082SOL    HW1 8143   2.594  12.805   6.739
 2082SOL    HW2 8144   2.694  12.898   6.804
 2083SOL     OW 8145   0.048   7.918  10.161
 2083SOL    HW1 8146  14.835   7.912  10.152
 2083SOL    HW2 8147   0.082   7.866  10.088
 2084SOL     OW 8148   3.165   6.494   2.997
 2084SOL    HW1 8149   3.161   6.546   3.078
 2084SOL    HW2 8150   3.076   6.498   2.961
 2085SOL     OW 8151  11.861   0.787  10.012
 2085SOL    HW1 8152  11.876   0.796  10.107
 2085SOL    HW2 8153  11.853   0.692   9.999
 2086SOL     OW 8154   7.120   2.976   3.601
 2086SOL    HW1 8155   7.119   3.063   3.641
 2086SOL    HW2 8156   7.212   2.952   3.598
 2087SOL     OW 8157  11.086  11.708  12.156
 2087SOL    HW1 8158  11.081  11.790  12.107
 2087SOL    HW2 8159  11.178  11.682  12.152
 2088SOL     OW 8160   2.958   1.382   6.435
 2088SOL    HW1 8161   2.876   1.383   6.485
 2088SOL    HW2 8162   2.930   1.371   6.344
 2089SOL     OW 8163   2.141   0.870   7.643
 2089SOL    HW1 8164   2.060   0.822   7.658
 2089SOL    HW2 8165   2.113   0.960   7.625
 2090SOL     OW 8166   6.715   0.350  11.117
 2090SOL    HW1 8167   6.706   0.442  11.094
 2090SOL    HW2 8168   6.696   0.302  11.036
 2091SOL     OW 8169   3.788   3.487   7.327
 2091SOL    HW1 8170   3.787   3.581   7.309
 2091SOL    HW2 8171   3.844   3.478   7.404
 2092SOL     OW 8172   0.670   9.735   5.312
 2092SOL    HW1 8173   0.748   9.786   5.332
 2092SOL    HW2 8174   0.704   9.659   5.264
 2093SOL     OW 8175  10.595  13.542  12.050
 2093SOL    HW1 8176  10.558  13.471  11.997
 2093SOL    HW2 8177  10.648  13.498  12.116
 2094SOL     OW 8178   8.926   4.300   8.777
 2094SOL    HW1 8179   8.998   4.362   8.790
 2094SOL    HW2 8180   8.911   4.300   8.683
 2095SOL     OW 8181   4.490  10.879   8.813
 2095SOL    HW1 8182   4.427  10.929   8.865
 2095SOL    HW2 8183   4.519  10.809   8.872
 2096SOL     OW 8184   5.602   4.495   8.644
 2096SOL    HW1 8185   5.627   4.494   8.552
 2096SOL    HW2 8186   5.625   4.583   8.675
 2097SOL     OW 8187   1.728   1.997   9.828
 2097SOL    HW1 8188   1.667   1.934   9.864
 2097SOL    HW2 8189   1.783   1.946   9.768
 2098SOL     OW 8190  13.659   7.525   9.705
 2098SOL    HW1 8191  13.622   7.552   9.621
 2098SOL    HW2 8192  13.733   7.584   9.720
 2099SOL     OW 8193   6.061   2.312   0.120
 2099SOL    HW1 8194   6.136   2.367   0.098
 2099SOL    HW2 8195   6.027   2.282   0.036
 2100SOL     OW 8196   5.680  11.877   5.273
 2100SOL    HW1 8197   5.634  11.900   5.192
 2100SOL    HW2 8198   5.737  11.804   5.248
 2101SOL     OW 8199  14.496   5.386   7.415
 2101SOL    HW1 8200  14.499   5.317   7.481
 2101SOL    HW2 8201  14.539   5.460   7.456
 2102SOL     OW 8202  13.940   7.211  14.357
 2102SOL    HW1 8203  13.973   7.301  14.368
 2102SOL    HW2 8204  14.012   7.156  14.387
 2103SOL     OW 8205  14.760  13.149  10.415
 2103SOL    HW1 8206  14.829  13.191  10.467
 2103SOL    HW2 8207  14.688  13.211  10.416
 2104SOL     OW 8208   3.370  12.552   9.637
 2104SOL    HW1 8209   3.309  12.482   9.615
 2104SOL    HW2 8210   3.314  12.627   9.658
 2105SOL     OW 8211   6.068   2.417   2.922
 2105SOL    HW1 8212   6.031   2.362   2.853
 2105SOL    HW2 8213   6.017   2.498   2.918
 2106SOL     OW 8214   9.961   6.133  11.846
 2106SOL    HW1 8215   9.996   6.051  11.811
 2106SOL    HW2 8216   9.941   6.185  11.769
 2107SOL     OW 8217   4.412   8.772  13.401
 2107SOL    HW1 8218   4.397   8.820  13.320
 2107SOL    HW2 8219   4.389   8.834  13.471
 2108SOL     OW 8220  11.576   1.333   2.207
 2108SOL    HW1 8221  11.510   1.322   2.138
 2108SOL    HW2 8222  11.639   1.262   2.191
 2109SOL     OW 8223  12.761   5.957   3.567
 2109SOL    HW1 8224  12.823   6.026   3.543
 2109SOL    HW2 8225  12.768   5.894   3.495
 2110SOL     OW 8226   3.809   4.215   9.164
 2110SOL    HW1 8227   3.880   4.154   9.143
 2110SOL    HW2 8228   3.851   4.301   9.166
 2111SOL     OW 8229   4.905   2.098   4.570
 2111SOL    HW1 8230   4.995   2.067   4.583
 2111SOL    HW2 8231   4.908   2.191   4.594
 2112SOL     OW 8232   6.368   5.256   3.778
 2112SOL    HW1 8233   6.457   5.289   3.787
 2112SOL    HW2 8234   6.342   5.282   3.690
 2113SOL     OW 8235   4.674   1.539   9.046
 2113SOL    HW1 8236   4.583   1.559   9.069
 2113SOL    HW2 8237   4.705   1.484   9.118
 2114SOL     OW 8238  13.295  10.257  10.912
 2114SOL    HW1 8239  13.339  10.294  10.988
 2114SOL    HW2 8240  13.365  10.221  10.858
 2115SOL     OW 8241   8.680  11.636   0.357
 2115SOL    HW1 8242   8.713  11.549   0.380
 2115SOL    HW2 8243   8.631  11.664   0.434
 2116SOL     OW 8244   3.439   3.056   0.698
 2116SOL    HW1 8245   3.415   3.101   0.617
 2116SOL    HW2 8246   3.386   3.099   0.766
 2117SOL     OW 8247   6.560  12.336   7.835
 2117SOL    HW1 8248   6.601  12.278   7.771
 2117SOL    HW2 8249   6.623  12.407   7.847
 2118SOL     OW 8250   3.392  11.312   9.505
 2118SOL    HW1 8251   3.356  11.364   9.434
 2118SOL    HW2 8252   3.356  11.350   9.585
 2119SOL     OW 8253   5.375  12.007   6.271
 2119SOL    HW1 8254   5.320  11.933   6.294
 2119SOL    HW2 8255   5.319  12.084   6.285
 2120SOL     OW 8256   4.035   1.204   3.757
 2120SOL    HW1 8257   4.081   1.121   3.767
 2120SOL    HW2 8258   4.051   1.229   3.666
 2121SOL     OW 8259   1.954  14.547   8.519
 2121SOL    HW1 8260   1.991  14.606   8.586
 2121SOL    HW2 8261   2.027  14.529   8.461
 2122SOL     OW 8262  10.469   0.280   9.062
 2122SOL    HW1 8263  10.506   0.354   9.015
 2122SOL    HW2 8264  10.375   0.283   9.042
 2123SOL     OW 8265  11.850   8.265   7.248
 2123SOL    HW1 8266  11.791   8.292   7.318
 2123SOL    HW2 8267  11.876   8.346   7.206
 2124SOL     OW 8268   1.111   6.545   5.335
 2124SOL    HW1 8269   1.139   6.460   5.369
 2124SOL    HW2 8270   1.080   6.593   5.412
 2125SOL     OW 8271   1.918   8.084   9.557
 2125SOL    HW1 8272   1.877   8.101   9.472
 2125SOL    HW2 8273   1.921   7.989   9.564
 2126SOL     OW 8274  12.792   8.922   5.287
 2126SOL    HW1 8275  12.720   8.965   5.241
 2126SOL    HW2 8276  12.834   8.867   5.221
 2127SOL     OW 8277   1.802   8.422   1.011
 2127SOL    HW1 8278   1.817   8.488   0.942
 2127SOL    HW2 8279   1.758   8.471   1.081
 2128SOL     OW 8280   6.321   2.793   0.705
 2128SOL    HW1 8281   6.327   2.877   0.750
 2128SOL    HW2 8282   6.284   2.814   0.619
 2129SOL     OW 8283   9.624  12.267   4.336
 2129SOL    HW1 8284   9.530  12.248   4.337
 2129SOL    HW2 8285   9.629  12.356   4.300
 2130SOL     OW 8286   5.432  11.994   7.279
 2130SOL    HW1 8287   5.441  11.899   7.281
 2130SOL    HW2 8288   5.521  12.027   7.263
 2131SOL     OW 8289  14.297   9.328  11.113
 2131SOL    HW1 8290  14.302   9.405  11.056
 2131SOL    HW2 8291  14.311   9.362  11.201
 2132SOL     OW 8292   4.678   6.297  11.415
 2132SOL    HW1 8293   4.702   6.327  11.503
 2132SOL    HW2 8294   4.732   6.350  11.356
 2133SOL     OW 8295  13.743   9.061   6.293
 2133SOL    HW1 8296  13.752   8.990   6.229
 2133SOL    HW2 8297  13.649   9.073   6.303
 2134SOL     OW 8298   6.467   6.589   5.186
 2134SOL    HW1 8299   6.455   6.682   5.205
 2134SOL    HW2 8300   6.529   6.559   5.253
 2135SOL     OW 8301  10.922  13.057   1.651
 2135SOL    HW1 8302  10.846  13.081   1.704
 2135SOL    HW2 8303  10.939  13.135   1.598
 2136SOL     OW 8304  11.587   0.008   6.217
 2136SOL    HW1 8305  11.570   0.095   6.254
 2136SOL    HW2 8306  11.511  14.838   6.243
 2137SOL     OW 8307   2.528   5.076   8.275
 2137SOL    HW1 8308   2.544   4.983   8.255
 2137SOL    HW2 8309   2.435   5.081   8.294
 2138SOL     OW 8310   9.927  10.299  13.059
 2138SOL    HW1 8311   9.902  10.367  12.996
 2138SOL    HW2 8312   9.985  10.343  13.121
 2139SOL     OW 8313  13.638   4.231   1.571
 2139SOL    HW1 8314  13.579   4.156   1.561
 2139SOL    HW2 8315  13.665   4.228   1.663
 2140SOL     OW 8316  12.736  13.899   1.745
 2140SOL    HW1 8317  12.769  13.820   1.786
 2140SOL    HW2 8318  12.737  13.880   1.651
 2141SOL     OW 8319   9.580   4.434  12.967
 2141SOL    HW1 8320   9.672   4.459  12.975
 2141SOL    HW2 8321   9.532   4.517  12.964
 2142SOL     OW 8322   4.458  11.035   0.110
 2142SOL    HW1 8323   4.399  10.959   0.108
 2142SOL    HW2 8324   4.435  11.084   0.031
 2143SOL     OW 8325  12.159   6.036  14.038
 2143SOL    HW1 8326  12.074   6.032  13.995
 2143SOL    HW2 8327  12.142   6.002  14.126
 2144SOL     OW 8328  14.772   3.777   8.089
 2144SOL    HW1 8329  14.680   3.789   8.114
 2144SOL    HW2 8330  14.801   3.864   8.062
 2145SOL     OW 8331  11.327  13.888  11.910
 2145SOL    HW1 8332  11.244  13.864  11.951
 2145SOL    HW2 8333  11.393  13.846  11.964
 2146SOL     OW 8334  10.411  11.512   5.135
 2146SOL    HW1 8335  10.504  11.511   5.111
 2146SOL    HW2 8336  10.379  11.597   5.102
 2147SOL     OW 8337   9.769  12.397  10.934
 2147SOL    HW1 8338   9.679  12.402  10.902
 2147SOL    HW2 8339   9.761  12.415  11.028
 2148SOL     OW 8340  10.155  10.267  13.994
 2148SOL    HW1 8341  10.162  10.317  13.913
 2148SOL    HW2 8342  10.069  10.226  13.991
 2149SOL     OW 8343  10.582   5.014   6.374
 2149SOL    HW1 8344  10.643   5.039   6.305
 2149SOL    HW2 8345  10.496   5.039   6.341
 2150SOL     OW 8346  14.223   1.518  13.958
 2150SOL    HW1 8347  14.130   1.494  13.963
 2150SOL    HW2 8348  14.226   1.606  13.995
 2151SOL     OW 8349   2.145   0.970  12.288
 2151SOL    HW1 8350   2.156   0.959  12.382
 2151SOL    HW2 8351   2.166   0.884  12.252
 2152SOL     OW 8352   7.581   9.993   4.873
 2152SOL    HW1 8353   7.587   9.909   4.828
 2152SOL    HW2 8354   7.584   9.971   4.966
 2153SOL     OW 8355   3.660  11.516   1.685
 2153SOL    HW1 8356   3.725  11.497   1.617
 2153SOL    HW2 8357   3.589  11.559   1.639
 2154SOL     OW 8358   1.875  13.428   8.389
 2154SOL    HW1 8359   1.812  13.499   8.390
 2154SOL    HW2 8360   1.860  13.380   8.471
 2155SOL     OW 8361   4.137   3.914   5.028
 2155SOL    HW1 8362   4.195   3.880   5.096
 2155SOL    HW2 8363   4.067   3.959   5.075
 2156SOL     OW 8364  14.839  14.721   0.512
 2156SOL    HW1 8365   0.039  14.759   0.482
 2156SOL    HW2 8366  14.865  14.640   0.557
 2157SOL     OW 8367  14.743   9.682   3.765
 2157SOL    HW1 8368  14.685   9.645   3.832
 2157SOL    HW2 8369  14.699   9.762   3.736
 2158SOL     OW 8370  14.228   7.157   9.622
 2158SOL    HW1 8371  14.159   7.215   9.653
 2158SOL    HW2 8372  14.209   7.143   9.529
 2159SOL     OW 8373   2.599   4.582   6.767
 2159SOL    HW1 8374   2.542   4.588   6.690
 2159SOL    HW2 8375   2.619   4.672   6.790
 2160SOL     OW 8376   9.900   9.010   4.936
 2160SOL    HW1 8377   9.985   9.051   4.925
 2160SOL    HW2 8378   9.837   9.077   4.911
 2161SOL     OW 8379  11.143   1.027  11.272
 2161SOL    HW1 8380  11.067   1.077  11.300
 2161SOL    HW2 8381  11.209   1.042  11.340
 2162SOL     OW 8382   1.875   0.559  13.259
 2162SOL    HW1 8383   1.852   0.620  13.328
 2162SOL    HW2 8384   1.861   0.472  13.299
 2163SOL     OW 8385   1.881   4.844   1.388
 2163SOL    HW1 8386   1.796   4.868   1.423
 2163SOL    HW2 8387   1.899   4.910   1.320
 2164SOL     OW 8388   0.856  12.819   0.517
 2164SOL    HW1 8389   0.935  12.819   0.570
 2164SOL    HW2 8390   0.880  12.772   0.437
 2165SOL     OW 8391   2.579   0.078   5.486
 2165SOL    HW1 8392   2.647   0.041   5.542
 2165SOL    HW2 8393   2.618   0.158   5.450
 2166SOL     OW 8394   0.807  11.566  10.129
 2166SOL    HW1 8395   0.826  11.542  10.039
 2166SOL    HW2 8396   0.805  11.483  10.176
 2167SOL     OW 8397  11.518  12.804  13.621
 2167SOL    HW1 8398  11.423  12.809  13.608
 2167SOL    HW2 8399  11.528  12.773  13.711
 2168SOL     OW 8400   3.742   6.807   8.293
 2168SOL    HW1 8401   3.676   6.773   8.233
 2168SOL    HW2 8402   3.770   6.889   8.253
 2169SOL     OW 8403   4.616  11.535   7.539
 2169SOL    HW1 8404   4.689  11.592   7.517
 2169SOL    HW2 8405   4.557  11.540   7.464
 2170SOL     OW 8406   9.747   4.059   3.088
 2170SOL    HW1 8407   9.805   3.984   3.078
 2170SOL    HW2 8408   9.805   4.135   3.079
 2171SOL     OW 8409   0.026   4.927  12.156
 2171SOL    HW1 8410   0.068   5.000  12.111
 2171SOL    HW2 8411  14.860   4.968  12.229
 2172SOL     OW 8412   9.698  14.830  14.302
 2172SOL    HW1 8413   9.670  14.787  14.383
 2172SOL    HW2 8414   9.725   0.036  14.330
 2173SOL     OW 8415   8.660   4.890   0.621
 2173SOL    HW1 8416   8.632   4.807   0.659
 2173SOL    HW2 8417   8.701   4.866   0.538
 2174SOL     OW 8418   5.377  10.181   4.303
 2174SOL    HW1 8419   5.452  10.137   4.344
 2174SOL    HW2 8420   5.316  10.110   4.283
 2175SOL     OW 8421   8.044   0.425  14.224
 2175SOL    HW1 8422   8.034   0.341  14.180
 2175SOL    HW2 8423   8.056   0.488  14.152
 2176SOL     OW 8424  12.206   1.638   9.170
 2176SOL    HW1 8425  12.163   1.578   9.230
 2176SOL    HW2 8426  12.185   1.604   9.083
 2177SOL     OW 8427  13.790   1.116   1.164
 2177SOL    HW1 8428  13.805   1.177   1.091
 2177SOL    HW2 8429  13.699   1.131   1.190
 2178SOL     OW 8430   4.069   0.217  12.503
 2178SOL    HW1 8431   4.012   0.232  12.578
 2178SOL    HW2 8432   4.038   0.278  12.436
 2179SOL     OW 8433  13.908   2.657   0.399
 2179SOL    HW1 8434  13.946   2.641   0.486
 2179SOL    HW2 8435  13.814   2.659   0.415
 2180SOL     OW 8436   2.899   9.272   2.328
 2180SOL    HW1 8437   2.958   9.344   2.350
 2180SOL    HW2 8438   2.815   9.298   2.364
 2181SOL     OW 8439  12.355   4.062   4.725
 2181SOL    HW1 8440  12.416   4.054   4.651
 2181SOL    HW2 8441  12.275   4.018   4.695
 2182SOL     OW 8442   5.144  10.826   0.906
 2182SOL    HW1 8443   5.226  10.832   0.956
 2182SOL    HW2 8444   5.132  10.913   0.869
 2183SOL     OW 8445  11.801  11.288  14.853
 2183SOL    HW1 8446  11.884  11.333  14.839
 2183SOL    HW2 8447  11.778  11.254  14.766
 2184SOL     OW 8448   8.578  12.672   8.258
 2184SOL    HW1 8449   8.609  12.759   8.232
 2184SOL    HW2 8450   8.636  12.611   8.213
 2185SOL     OW 8451  12.653   7.060   5.650
 2185SOL    HW1 8452  12.649   7.149   5.617
 2185SOL    HW2 8453  12.651   7.004   5.572
 2186SOL     OW 8454   8.839   8.477  14.629
 2186SOL    HW1 8455   8.822   8.551  14.688
 2186SOL    HW2 8456   8.898   8.421  14.679
 2187SOL     OW 8457   5.209   7.939   5.075
 2187SOL    HW1 8458   5.183   7.847   5.083
 2187SOL    HW2 8459   5.304   7.938   5.087
 2188SOL     OW 8460   4.981   6.369   3.902
 2188SOL    HW1 8461   4.913   6.332   3.846
 2188SOL    HW2 8462   5.056   6.311   3.889
 2189SOL     OW 8463  10.869  13.395  12.330
 2189SOL    HW1 8464  10.863  13.490  12.323
 2189SOL    HW2 8465  10.799  13.362  12.274
 2190SOL     OW 8466   4.370   7.566   4.520
 2190SOL    HW1 8467   4.301   7.570   4.453
 2190SOL    HW2 8468   4.332   7.610   4.596
 2191SOL     OW 8469   0.066   8.561   7.178
 2191SOL    HW1 8470   0.081   8.656   7.180
 2191SOL    HW2 8471   0.152   8.523   7.197
 2192SOL     OW 8472  14.728   5.387  11.096
 2192SOL    HW1 8473  14.727   5.366  11.003
 2192SOL    HW2 8474  14.726   5.482  11.100
 2193SOL     OW 8475  11.320   8.237  14.359
 2193SOL    HW1 8476  11.313   8.159  14.304
 2193SOL    HW2 8477  11.414   8.251  14.369
 2194SOL     OW 8478  14.058   3.252   8.148
 2194SOL    HW1 8479  14.001   3.239   8.072
 2194SOL    HW2 8480  14.030   3.186   8.210
 2195SOL     OW 8481   6.588   9.863  14.550
 2195SOL    HW1 8482   6.515   9.816  14.510
 2195SOL    HW2 8483   6.647   9.794  14.580
 2196SOL     OW 8484   9.564   0.825   2.499
 2196SOL    HW1 8485   9.614   0.835   2.581
 2196SOL    HW2 8486   9.603   0.888   2.439
 2197SOL     OW 8487   1.623   2.366   1.216
 2197SOL    HW1 8488   1.681   2.438   1.242
 2197SOL    HW2 8489   1.560   2.359   1.287
 2198SOL     OW 8490   6.896   6.193  14.821
 2198SOL    HW1 8491   6.838   6.116  14.827
 2198SOL    HW2 8492   6.925   6.208   0.029
 2199SOL     OW 8493  11.821   8.711   4.248
 2199SOL    HW1 8494  11.915   8.698   4.249
 2199SOL    HW2 8495  11.797   8.700   4.156
 2200SOL     OW 8496   6.915   0.543  11.199
 2200SOL    HW1 8497   6.998   0.496  11.189
 2200SOL    HW2 8498   6.867   0.523  11.118
 2201SOL     OW 8499   8.356   0.767   0.385
 2201SOL    HW1 8500   8.433   0.824   0.385
 2201SOL    HW2 8501   8.298   0.804   0.320
 2202SOL     OW 8502   6.149   5.110   6.188
 2202SOL    HW1 8503   6.177   5.075   6.273
 2202SOL    HW2 8504   6.171   5.203   6.193
 2203SOL     OW 8505   6.473   1.005  11.326
 2203SOL    HW1 8506   6.540   1.068  11.302
 2203SOL    HW2 8507   6.513   0.919  11.307
 2204SOL     OW 8508   4.408   0.009   9.378
 2204SOL    HW1 8509   4.454   0.046   9.303
 2204SOL    HW2 8510   4.345   0.076   9.403
 2205SOL     OW 8511  13.802   7.145   3.995
 2205SOL    HW1 8512  13.713   7.163   3.963
 2205SOL    HW2 8513  13.809   7.050   3.994
 2206SOL     OW 8514   5.108  14.299   6.807
 2206SOL    HW1 8515   5.087  14.314   6.899
 2206SOL    HW2 8516   5.192  14.343   6.794
 2207SOL     OW 8517   3.855   0.117   9.105
 2207SOL    HW1 8518   3.815   0.032   9.085
 2207SOL    HW2 8519   3.915   0.100   9.177
 2208SOL     OW 8520  12.200  12.008  13.029
 2208SOL    HW1 8521  12.259  12.079  13.003
 2208SOL    HW2 8522  12.258  11.936  13.053
 2209SOL     OW 8523   2.356   5.942   1.178
 2209SOL    HW1 8524   2.386   5.852   1.174
 2209SOL    HW2 8525   2.309   5.948   1.262
 2210SOL     OW 8526   5.615   8.395   3.983
 2210SOL    HW1 8527   5.557   8.466   3.954
 2210SOL    HW2 8528   5.590   8.380   4.074
 2211SOL     OW 8529   0.007   4.856   9.655
 2211SOL    HW1 8530   0.001   4.945   9.620
 2211SOL    HW2 8531  14.824   4.853   9.724
 2212SOL     OW 8532   9.221   5.407   1.733
 2212SOL    HW1 8533   9.240   5.357   1.653
 2212SOL    HW2 8534   9.253   5.351   1.804
 2213SOL     OW 8535  12.854   2.992  14.367
 2213SOL    HW1 8536  12.940   3.027  14.344
 2213SOL    HW2 8537  12.793   3.064  14.349
 2214SOL     OW 8538   8.085   1.154   0.822
 2214SOL    HW1 8539   8.105   1.147   0.728
 2214SOL    HW2 8540   8.142   1.223   0.854
 2215SOL     OW 8541  14.522   7.380  14.230
 2215SOL    HW1 8542  14.504   7.433  14.153
 2215SOL    HW2 8543  14.442   7.386  14.283
 2216SOL     OW 8544  14.420   6.765   5.805
 2216SOL    HW1 8545  14.391   6.854   5.787
 2216SOL    HW2 8546  14.362   6.710   5.753
 2217SOL     OW 8547   6.413  11.780   1.284
 2217SOL    HW1 8548   6.433  11.736   1.366
 2217SOL    HW2 8549   6.488  11.838   1.269
 2218SOL     OW 8550   3.096   8.966  10.881
 2218SOL    HW1 8551   3.006   8.958  10.848
 2218SOL    HW2 8552   3.133   8.879  10.870
 2219SOL     OW 8553   4.605   2.843  13.427
 2219SOL    HW1 8554   4.578   2.773  13.487
 2219SOL    HW2 8555   4.698   2.826  13.411
 2220SOL     OW 8556   1.001   5.288   4.235
 2220SOL    HW1 8557   0.987   5.278   4.329
 2220SOL    HW2 8558   0.995   5.382   4.220
 2221SOL     OW 8559  13.249   0.543  14.098
 2221SOL    HW1 8560  13.328   0.520  14.049
 2221SOL    HW2 8561  13.177   0.503  14.048
 2222SOL     OW 8562   7.648   6.635   2.525
 2222SOL    HW1 8563   7.618   6.545   2.537
 2222SOL    HW2 8564   7.574   6.680   2.483
 2223SOL     OW 8565   1.289   8.319  10.913
 2223SOL    HW1 8566   1.267   8.351  11.000
 2223SOL    HW2 8567   1.239   8.376  10.854
 2224SOL     OW 8568  14.261   0.438   8.318
 2224SOL    HW1 8569  14.318   0.437   8.395
 2224SOL    HW2 8570  14.204   0.362   8.329
 2225SOL     OW 8571  14.721   2.939  11.507
 2225SOL    HW1 8572  14.714   2.854  11.463
 2225SOL    HW2 8573  14.661   2.932  11.581
 2226SOL     OW 8574  14.507   3.192   4.366
 2226SOL    HW1 8575  14.536   3.101   4.364
 2226SOL    HW2 8576  14.586   3.242   4.348
 2227SOL     OW 8577  12.601  14.303   0.787
 2227SOL    HW1 8578  12.534  14.326   0.852
 2227SOL    HW2 8579  12.597  14.207   0.782
 2228SOL     OW 8580   8.425   3.060   5.149
 2228SOL    HW1 8581   8.440   3.081   5.057
 2228SOL    HW2 8582   8.332   3.038   5.154
 2229SOL     OW 8583   2.862   2.424  11.233
 2229SOL    HW1 8584   2.782   2.458  11.193
 2229SOL    HW2 8585   2.933   2.464  11.183
 2230SOL     OW 8586   5.190  14.080   0.102
 2230SOL    HW1 8587   5.208  14.170   0.072
 2230SOL    HW2 8588   5.276  14.046   0.128
 2231SOL     OW 8589   2.052   7.208   8.620
 2231SOL    HW1 8590   2.132   7.182   8.575
 2231SOL    HW2 8591   2.078   7.285   8.672
 2232SOL     OW 8592  13.505   4.388   4.414
 2232SOL    HW1 8593  13.484   4.348   4.330
 2232SOL    HW2 8594  13.446   4.345   4.477
 2233SOL     OW 8595   7.199  11.768   0.110
 2233SOL    HW1 8596   7.190  11.775   0.205
 2233SOL    HW2 8597   7.158  11.685   0.087
 2234SOL     OW 8598   2.997   6.494   6.132
 2234SOL    HW1 8599   3.010   6.438   6.208
 2234SOL    HW2 8600   3.086   6.513   6.100
 2235SOL     OW 8601   7.931   4.507   7.905
 2235SOL    HW1 8602   7.953   4.414   7.899
 2235SOL    HW2 8603   7.924   4.524   7.999
 2236SOL     OW 8604   4.322  11.162   8.037
 2236SOL    HW1 8605   4.349  11.253   8.045
 2236SOL    HW2 8606   4.361  11.119   8.114
 2237SOL     OW 8607   5.768   0.109  12.987
 2237SOL    HW1 8608   5.711   0.130  12.913
 2237SOL    HW2 8609   5.781   0.015  12.981
 2238SOL     OW 8610   6.892  12.299   9.287
 2238SOL    HW1 8611   6.926  12.369   9.232
 2238SOL    HW2 8612   6.804  12.282   9.253
 2239SOL     OW 8613   1.904   5.568   0.036
 2239SOL    HW1 8614   1.810   5.558   0.047
 2239SOL    HW2 8615   1.930   5.629   0.105
 2240SOL     OW 8616   5.884  13.454   8.922
 2240SOL    HW1 8617   5.825  13.378   8.922
 2240SOL    HW2 8618   5.893  13.476   8.829
 2241SOL     OW 8619  11.857   3.779  13.767
 2241SOL    HW1 8620  11.780   3.760  13.820
 2241SOL    HW2 8621  11.893   3.692  13.746
 2242SOL     OW 8622  12.609  12.265   6.154
 2242SOL    HW1 8623  12.557  12.307   6.085
 2242SOL    HW2 8624  12.595  12.172   6.140
 2243SOL     OW 8625   4.580  12.295   8.135
 2243SOL    HW1 8626   4.485  12.312   8.136
 2243SOL    HW2 8627   4.612  12.347   8.061
 2244SOL     OW 8628   9.799  10.079   4.078
 2244SOL    HW1 8629   9.740  10.089   4.004
 2244SOL    HW2 8630   9.799  10.165   4.121
 2245SOL     OW 8631  10.494  13.220  12.508
 2245SOL    HW1 8632  10.439  13.167  12.450
 2245SOL    HW2 8633  10.561  13.160  12.539
 2246SOL     OW 8634  13.801   2.639   6.728
 2246SOL    HW1 8635  13.884   2.611   6.765
 2246SOL    HW2 8636  13.787   2.727   6.765
 2247SOL     OW 8637   1.530  12.284   5.990
 2247SOL    HW1 8638   1.548  12.203   5.942
 2247SOL    HW2 8639   1.466  12.330   5.935
 2248SOL     OW 8640   8.737   5.943   5.355
 2248SOL    HW1 8641   8.695   5.908   5.276
 2248SOL    HW2 8642   8.664   5.980   5.406
 2249SOL     OW 8643  13.789  13.149   6.996
 2249SOL    HW1 8644  13.713  13.157   7.055
 2249SOL    HW2 8645  13.862  13.127   7.054
 2250SOL     OW 8646   0.574   1.357  11.156
 2250SOL    HW1 8647   0.579   1.451  11.136
 2250SOL    HW2 8648   0.481   1.338  11.158
 2251SOL     OW 8649  11.707   1.484   8.310
 2251SOL    HW1 8650  11.611   1.491   8.304
 2251SOL    HW2 8651  11.728   1.525   8.394
 2252SOL     OW 8652  10.661   7.768  10.616
 2252SOL    HW1 8653  10.716   7.825  10.669
 2252SOL    HW2 8654  10.609   7.719  10.680
 2253SOL     OW 8655  11.871   0.215   5.648
 2253SOL    HW1 8656  11.926   0.224   5.570
 2253SOL    HW2 8657  11.930   0.180   5.715
 2254SOL     OW 8658   1.286   2.578   0.666
 2254SOL    HW1 8659   1.341   2.546   0.594
 2254SOL    HW2 8660   1.207   2.524   0.662
 2255SOL     OW 8661  13.898  14.228   5.460
 2255SOL    HW1 8662  13.845  14.307   5.458
 2255SOL    HW2 8663  13.884  14.188   5.374
 2256SOL     OW 8664  12.018  11.179  10.036
 2256SOL    HW1 8665  12.010  11.272  10.014
 2256SOL    HW2 8666  12.083  11.176  10.105
 2257SOL     OW 8667   7.365   1.965   5.129
 2257SOL    HW1 8668   7.314   1.899   5.177
 2257SOL    HW2 8669   7.440   1.918   5.095
 2258SOL     OW 8670   9.605  11.548  13.837
 2258SOL    HW1 8671   9.648  11.517  13.758
 2258SOL    HW2 8672   9.676  11.556  13.901
 2259SOL     OW 8673   2.196  13.385   1.984
 2259SOL    HW1 8674   2.169  13.303   1.942
 2259SOL    HW2 8675   2.196  13.366   2.078
 2260SOL     OW 8676   8.251  12.580  12.320
 2260SOL    HW1 8677   8.269  12.509  12.259
 2260SOL    HW2 8678   8.307  12.652  12.290
 2261SOL     OW 8679  12.961   2.648  12.470
 2261SOL    HW1 8680  12.959   2.737  12.505
 2261SOL    HW2 8681  13.037   2.646  12.412
 2262SOL     OW 8682  10.712   6.566   1.544
 2262SOL    HW1 8683  10.776   6.527   1.603
 2262SOL    HW2 8684  10.627   6.545   1.583
 2263SOL     OW 8685   7.423   3.353  13.588
 2263SOL    HW1 8686   7.461   3.271  13.557
 2263SOL    HW2 8687   7.497   3.406  13.616
 2264SOL     OW 8688  11.211   0.271   5.302
 2264SOL    HW1 8689  11.179   0.301   5.387
 2264SOL    HW2 8690  11.269   0.341   5.272
 2265SOL     OW 8691   7.531   6.294   0.382
 2265SOL    HW1 8692   7.495   6.323   0.299
 2265SOL    HW2 8693   7.500   6.358   0.446
 2266SOL     OW 8694   9.097   5.938   3.895
 2266SOL    HW1 8695   9.039   5.903   3.963
 2266SOL    HW2 8696   9.138   5.861   3.856
 2267SOL     OW 8697   6.185  11.821   1.545
 2267SOL    HW1 8698   6.200  11.783   1.458
 2267SOL    HW2 8699   6.090  11.828   1.552
 2268SOL     OW 8700  13.182   1.272   0.360
 2268SOL    HW1 8701  13.201   1.294   0.451
 2268SOL    HW2 8702  13.097   1.313   0.342
 2269SOL     OW 8703   1.606   3.654   0.562
 2269SOL    HW1 8704   1.557   3.574   0.540
 2269SOL    HW2 8705   1.556   3.724   0.521
 2270SOL     OW 8706  11.914  10.740   9.644
 2270SOL    HW1 8707  11.962  10.798   9.586
 2270SOL    HW2 8708  11.908  10.657   9.597
 2271SOL     OW 8709   6.262   6.799   7.842
 2271SOL    HW1 8710   6.223   6.724   7.798
 2271SOL    HW2 8711   6.347   6.766   7.874
 2272SOL     OW 8712   1.254   9.560  14.467
 2272SOL    HW1 8713   1.236   9.541  14.375
 2272SOL    HW2 8714   1.234   9.478  14.512
 2273SOL     OW 8715  13.448  12.761   4.196
 2273SOL    HW1 8716  13.492  12.757   4.112
 2273SOL    HW2 8717  13.481  12.841   4.237
 2274SOL     OW 8718   4.099   7.155   7.904
 2274SOL    HW1 8719   4.120   7.246   7.922
 2274SOL    HW2 8720   4.183   7.111   7.897
 2275SOL     OW 8721  14.160  13.176  13.890
 2275SOL    HW1 8722  14.184  13.196  13.800
 2275SOL    HW2 8723  14.078  13.225  13.904
 2276SOL     OW 8724   2.819  10.532  12.043
 2276SOL    HW1 8725   2.811  10.474  11.967
 2276SOL    HW2 8726   2.730  10.563  12.059
 2277SOL     OW 8727   1.695   6.099   4.518
 2277SOL    HW1 8728   1.731   6.021   4.561
 2277SOL    HW2 8729   1.745   6.172   4.556
 2278SOL     OW 8730   4.582   1.243  13.957
 2278SOL    HW1 8731   4.617   1.328  13.930
 2278SOL    HW2 8732   4.549   1.257  14.045
 2279SOL     OW 8733   2.481   4.762   1.646
 2279SOL    HW1 8734   2.563   4.716   1.628
 2279SOL    HW2 8735   2.418   4.725   1.584
 2280SOL     OW 8736   3.001   3.862  13.513
 2280SOL    HW1 8737   3.095   3.862  13.530
 2280SOL    HW2 8738   2.992   3.906  13.428
 2281SOL     OW 8739   4.640   9.488   1.904
 2281SOL    HW1 8740   4.688   9.461   1.982
 2281SOL    HW2 8741   4.686   9.445   1.832
 2282SOL     OW 8742   4.618   8.771   4.017
 2282SOL    HW1 8743   4.633   8.710   4.089
 2282SOL    HW2 8744   4.687   8.837   4.027
 2283SOL     OW 8745   5.102  10.540   8.808
 2283SOL    HW1 8746   5.115  10.600   8.735
 2283SOL    HW2 8747   5.167  10.470   8.793
 2284SOL     OW 8748   9.454  11.218   5.334
 2284SOL    HW1 8749   9.371  11.256   5.308
 2284SOL    HW2 8750   9.469  11.148   5.270
 2285SOL     OW 8751  11.904   1.098   5.413
 2285SOL    HW1 8752  11.871   1.179   5.373
 2285SOL    HW2 8753  11.826   1.056   5.450
 2286SOL     OW 8754  10.553   9.015   6.353
 2286SOL    HW1 8755  10.465   9.005   6.315
 2286SOL    HW2 8756  10.568   8.934   6.401
 2287SOL     OW 8757   6.075   9.835   0.481
 2287SOL    HW1 8758   5.997   9.850   0.535
 2287SOL    HW2 8759   6.049   9.765   0.421
 2288SOL     OW 8760   9.868  10.131   0.695
 2288SOL    HW1 8761   9.945  10.183   0.671
 2288SOL    HW2 8762   9.835  10.171   0.775
 2289SOL     OW 8763   0.885   9.854   6.721
 2289SOL    HW1 8764   0.838   9.907   6.785
 2289SOL    HW2 8765   0.976   9.854   6.753
 2290SOL     OW 8766   0.801  14.314  12.688
 2290SOL    HW1 8767   0.782  14.225  12.718
 2290SOL    HW2 8768   0.897  14.316  12.681
 2291SOL     OW 8769  10.362   1.287   3.766
 2291SOL    HW1 8770  10.359   1.380   3.791
 2291SOL    HW2 8771  10.433   1.251   3.820
 2292SOL     OW 8772   9.959  12.081   0.968
 2292SOL    HW1 8773   9.922  12.106   0.883
 2292SOL    HW2 8774   9.996  12.161   1.003
 2293SOL     OW 8775  14.431   0.191   4.287
 2293SOL    HW1 8776  14.348   0.207   4.333
 2293SOL    HW2 8777  14.486   0.147   4.351
 2294SOL     OW 8778   0.535   8.612   8.418
 2294SOL    HW1 8779   0.471   8.582   8.353
 2294SOL    HW2 8780   0.617   8.570   8.392
 2295SOL     OW 8781   2.643   9.149  10.318
 2295SOL    HW1 8782   2.556   9.112  10.303
 2295SOL    HW2 8783   2.641   9.234  10.276
 2296SOL     OW 8784   9.100   8.400  11.676
 2296SOL    HW1 8785   9.128   8.489  11.698
 2296SOL    HW2 8786   9.171   8.365  11.622
 2297SOL     OW 8787   8.435   3.928   6.846
 2297SOL    HW1 8788   8.457   4.021   6.851
 2297SOL    HW2 8789   8.452   3.894   6.934
 2298SOL     OW 8790  11.173   2.361   5.058
 2298SOL    HW1 8791  11.248   2.303   5.048
 2298SOL    HW2 8792  11.129   2.330   5.137
 2299SOL     OW 8793   7.297   6.265   3.417
 2299SOL    HW1 8794   7.235   6.194   3.435
 2299SOL    HW2 8795   7.372   6.246   3.474
 2300SOL     OW 8796   1.859   1.009  12.915
 2300SOL    HW1 8797   1.779   1.026  12.965
 2300SOL    HW2 8798   1.916   0.961  12.976
 2301SOL     OW 8799   6.046  11.214   9.469
 2301SOL    HW1 8800   6.064  11.291   9.416
 2301SOL    HW2 8801   6.050  11.141   9.408
 2302SOL     OW 8802   8.347   5.018  14.558
 2302SOL    HW1 8803   8.260   4.989  14.587
 2302SOL    HW2 8804   8.392   5.044  14.638
 2303SOL     OW 8805   3.396   8.881   2.785
 2303SOL    HW1 8806   3.483   8.914   2.765
 2303SOL    HW2 8807   3.338   8.925   2.723
 2304SOL     OW 8808  14.861  13.658   4.001
 2304SOL    HW1 8809  14.802  13.698   3.937
 2304SOL    HW2 8810  14.867  13.566   3.973
 2305SOL     OW 8811   4.927  13.110   1.269
 2305SOL    HW1 8812   4.991  13.053   1.310
 2305SOL    HW2 8813   4.863  13.128   1.338
 2306SOL     OW 8814   3.361   4.238   0.869
 2306SOL    HW1 8815   3.433   4.195   0.822
 2306SOL    HW2 8816   3.292   4.247   0.803
 2307SOL     OW 8817  10.654   4.832   8.469
 2307SOL    HW1 8818  10.686   4.765   8.530
 2307SOL    HW2 8819  10.651   4.912   8.522
 2308SOL     OW 8820   9.622   7.887   4.394
 2308SOL    HW1 8821   9.715   7.908   4.396
 2308SOL    HW2 8822   9.612   7.817   4.459
 2309SOL     OW 8823   1.924  11.154   9.822
 2309SOL    HW1 8824   1.997  11.152   9.883
 2309SOL    HW2 8825   1.948  11.092   9.753
 2310SOL     OW 8826   6.391   8.070   9.833
 2310SOL    HW1 8827   6.407   7.975   9.835
 2310SOL    HW2 8828   6.307   8.081   9.878
 2311SOL     OW 8829   2.536   4.925  12.787
 2311SOL    HW1 8830   2.529   4.987  12.715
 2311SOL    HW2 8831   2.629   4.927  12.811
 2312SOL     OW 8832  11.123   3.545   6.765
 2312SOL    HW1 8833  11.100   3.464   6.810
 2312SOL    HW2 8834  11.137   3.519   6.674
 2313SOL     OW 8835   6.778   5.720   7.830
 2313SOL    HW1 8836   6.720   5.665   7.778
 2313SOL    HW2 8837   6.722   5.789   7.865
 2314SOL     OW 8838   3.640  13.385   9.665
 2314SOL    HW1 8839   3.680  13.299   9.676
 2314SOL    HW2 8840   3.568  13.387   9.727
 2315SOL     OW 8841   2.487  12.523  13.245
 2315SOL    HW1 8842   2.529  12.445  13.208
 2315SOL    HW2 8843   2.560  12.580  13.269
 2316SOL     OW 8844   7.390   4.906   3.880
 2316SOL    HW1 8845   7.454   4.871   3.943
 2316SOL    HW2 8846   7.404   4.854   3.801
 2317SOL     OW 8847   9.538   3.027  11.416
 2317SOL    HW1 8848   9.484   3.078  11.355
 2317SOL    HW2 8849   9.558   3.087  11.487
 2318SOL     OW 8850   3.666  12.289   2.203
 2318SOL    HW1 8851   3.579  12.285   2.162
 2318SOL    HW2 8852   3.724  12.247   2.140
 2319SOL     OW 8853  11.746  10.864   4.767
 2319SOL    HW1 8854  11.674  10.880   4.706
 2319SOL    HW2 8855  11.730  10.776   4.800
 2320SOL     OW 8856   5.245  13.926  11.018
 2320SOL    HW1 8857   5.180  13.870  11.061
 2320SOL    HW2 8858   5.256  13.887  10.931
 2321SOL     OW 8859   3.379   1.432  12.432
 2321SOL    HW1 8860   3.291   1.449  12.398
 2321SOL    HW2 8861   3.438   1.468  12.365
 2322SOL     OW 8862   0.237  14.296   4.207
 2322SOL    HW1 8863   0.301  14.325   4.143
 2322SOL    HW2 8864   0.264  14.207   4.230
 2323SOL     OW 8865  10.450   3.810   8.639
 2323SOL    HW1 8866  10.480   3.720   8.652
 2323SOL    HW2 8867  10.366   3.814   8.683
 2324SOL     OW 8868   0.398   0.270   1.181
 2324SOL    HW1 8869   0.413   0.193   1.236
 2324SOL    HW2 8870   0.333   0.321   1.228
 2325SOL     OW 8871   7.807   5.242   0.016
 2325SOL    HW1 8872   7.851   5.165   0.053
 2325SOL    HW2 8873   7.849   5.316   0.059
 2326SOL     OW 8874  12.184  10.938   4.036
 2326SOL    HW1 8875  12.188  10.850   4.072
 2326SOL    HW2 8876  12.092  10.963   4.044
 2327SOL     OW 8877   0.950  12.593   5.157
 2327SOL    HW1 8878   0.875  12.645   5.129
 2327SOL    HW2 8879   0.911  12.512   5.192
 2328SOL     OW 8880  13.224   8.142  12.399
 2328SOL    HW1 8881  13.223   8.173  12.309
 2328SOL    HW2 8882  13.158   8.073  12.402
 2329SOL     OW 8883   0.193   1.416  14.696
 2329SOL    HW1 8884   0.178   1.366  14.615
 2329SOL    HW2 8885   0.137   1.493  14.687
 2330SOL     OW 8886  14.145   3.212   0.584
 2330SOL    HW1 8887  14.051   3.209   0.599
 2330SOL    HW2 8888  14.183   3.209   0.671
 2331SOL     OW 8889   8.570  12.009   5.001
 2331SOL    HW1 8890   8.661  12.005   5.030
 2331SOL    HW2 8891   8.518  12.018   5.081
 2332SOL     OW 8892  10.771   1.682   2.111
 2332SOL    HW1 8893  10.689   1.667   2.159
 2332SOL    HW2 8894  10.765   1.773   2.082
 2333SOL     OW 8895   5.576   7.161   4.883
 2333SOL    HW1 8896   5.528   7.100   4.939
 2333SOL    HW2 8897   5.520   7.239   4.880
 2334SOL     OW 8898   5.186  11.938  12.132
 2334SOL    HW1 8899   5.136  12.005  12.087
 2334SOL    HW2 8900   5.135  11.857  12.121
 2335SOL     OW 8901   6.776   3.028  10.006
 2335SOL    HW1 8902   6.816   2.941  10.014
 2335SOL    HW2 8903   6.843   3.088  10.038
 2336SOL     OW 8904   4.829   4.741  11.491
 2336SOL    HW1 8905   4.813   4.688  11.569
 2336SOL    HW2 8906   4.851   4.678  11.423
 2337SOL     OW 8907   3.442   9.682   8.986
 2337SOL    HW1 8908   3.454   9.741   9.060
 2337SOL    HW2 8909   3.352   9.697   8.957
 2338SOL     OW 8910   6.402   1.369  14.349
 2338SOL    HW1 8911   6.431   1.314  14.422
 2338SOL    HW2 8912   6.310   1.386  14.367
 2339SOL     OW 8913   3.401   2.249   1.346
 2339SOL    HW1 8914   3.310   2.280   1.341
 2339SOL    HW2 8915   3.402   2.170   1.291
 2340SOL     OW 8916  10.426   1.637   5.921
 2340SOL    HW1 8917  10.376   1.634   5.840
 2340SOL    HW2 8918  10.360   1.633   5.990
 2341SOL     OW 8919   0.455   6.371   5.636
 2341SOL    HW1 8920   0.486   6.280   5.639
 2341SOL    HW2 8921   0.534   6.421   5.614
 2342SOL     OW 8922   1.823   2.436   5.974
 2342SOL    HW1 8923   1.735   2.471   5.958
 2342SOL    HW2 8924   1.842   2.457   6.065
 2343SOL     OW 8925   0.309   8.680   2.393
 2343SOL    HW1 8926   0.365   8.631   2.332
 2343SOL    HW2 8927   0.241   8.717   2.338
 2344SOL     OW 8928  13.991   0.508   3.836
 2344SOL    HW1 8929  13.945   0.475   3.913
 2344SOL    HW2 8930  14.031   0.430   3.798
 2345SOL     OW 8931   8.435  10.202  11.763
 2345SOL    HW1 8932   8.381  10.143  11.816
 2345SOL    HW2 8933   8.524  10.187  11.794
 2346SOL     OW 8934  14.681   5.081   0.386
 2346SOL    HW1 8935  14.692   5.080   0.291
 2346SOL    HW2 8936  14.705   4.993   0.414
 2347SOL     OW 8937   7.878   1.588   1.767
 2347SOL    HW1 8938   7.972   1.570   1.768
 2347SOL    HW2 8939   7.854   1.597   1.859
 2348SOL     OW 8940   7.865   6.547   6.978
 2348SOL    HW1 8941   7.901   6.474   6.929
 2348SOL    HW2 8942   7.907   6.542   7.064
 2349SOL     OW 8943   1.794   2.600   0.184
 2349SOL    HW1 8944   1.776   2.661   0.256
 2349SOL    HW2 8945   1.785   2.653   0.105
 2350SOL     OW 8946  13.031  13.171  13.510
 2350SOL    HW1 8947  13.019  13.252  13.460
 2350SOL    HW2 8948  13.059  13.106  13.445
 2351SOL     OW 8949  10.303  10.865   4.214
 2351SOL    HW1 8950  10.329  10.853   4.122
 2351SOL    HW2 8951  10.207  10.862   4.212
 2352SOL     OW 8952   2.326  10.873  10.478
 2352SOL    HW1 8953   2.391  10.939  10.502
 2352SOL    HW2 8954   2.250  10.924  10.449
 2353SOL     OW 8955   4.616  12.029   5.320
 2353SOL    HW1 8956   4.684  11.984   5.268
 2353SOL    HW2 8957   4.664  12.089   5.376
 2354SOL     OW 8958   1.583   3.468   5.102
 2354SOL    HW1 8959   1.627   3.553   5.103
 2354SOL    HW2 8960   1.523   3.473   5.027
 2355SOL     OW 8961   6.494  14.034   2.410
 2355SOL    HW1 8962   6.556  14.100   2.382
 2355SOL    HW2 8963   6.419  14.083   2.444
 2356SOL     OW 8964   5.978   8.781   3.410
 2356SOL    HW1 8965   6.040   8.784   3.337
 2356SOL    HW2 8966   5.916   8.852   3.391
 2357SOL     OW 8967   6.754   7.891   6.619
 2357SOL    HW1 8968   6.736   7.944   6.697
 2357SOL    HW2 8969   6.848   7.872   6.624
 2358SOL     OW 8970  13.741  12.992  13.100
 2358SOL    HW1 8971  13.798  12.920  13.125
 2358SOL    HW2 8972  13.793  13.045  13.040
 2359SOL     OW 8973   3.396   2.113   2.745
 2359SOL    HW1 8974   3.459   2.057   2.700
 2359SOL    HW2 8975   3.447   2.163   2.808
 2360SOL     OW 8976   7.989   0.594   8.329
 2360SOL    HW1 8977   7.918   0.617   8.269
 2360SOL    HW2 8978   8.067   0.595   8.274
 2361SOL     OW 8979  11.652   9.747   4.979
 2361SOL    HW1 8980  11.672   9.753   5.072
 2361SOL    HW2 8981  11.644   9.653   4.962
 2362SOL     OW 8982   4.620   7.106   3.143
 2362SOL    HW1 8983   4.634   7.027   3.090
 2362SOL    HW2 8984   4.674   7.173   3.100
 2363SOL     OW 8985   1.998  14.021  12.135
 2363SOL    HW1 8986   2.032  14.004  12.223
 2363SOL    HW2 8987   1.911  14.059  12.151
 2364SOL     OW 8988  13.497   1.626  10.196
 2364SOL    HW1 8989  13.469   1.540  10.164
 2364SOL    HW2 8990  13.422   1.658  10.247
 2365SOL     OW 8991   3.397   8.942   8.000
 2365SOL    HW1 8992   3.334   8.998   7.956
 2365SOL    HW2 8993   3.448   8.902   7.930
 2366SOL     OW 8994   9.620   7.786   5.790
 2366SOL    HW1 8995   9.611   7.843   5.714
 2366SOL    HW2 8996   9.545   7.808   5.846
 2367SOL     OW 8997  12.850   9.455   1.571
 2367SOL    HW1 8998  12.766   9.442   1.528
 2367SOL    HW2 8999  12.873   9.368   1.605
 2368SOL     OW 9000  14.211  12.902  14.740
 2368SOL    HW1 9001  14.149  12.855  14.796
 2368SOL    HW2 9002  14.296  12.892  14.783
 2369SOL     OW 9003   2.316  10.220   0.101
 2369SOL    HW1 9004   2.342  10.219   0.009
 2369SOL    HW2 9005   2.308  10.128   0.125
 2370SOL     OW 9006  11.486  13.580   9.015
 2370SOL    HW1 9007  11.543  13.641   8.968
 2370SOL    HW2 9008  11.439  13.533   8.947
 2371SOL     OW 9009  11.284   8.136   4.228
 2371SOL    HW1 9010  11.211   8.128   4.166
 2371SOL    HW2 9011  11.356   8.090   4.185
 2372SOL     OW 9012   2.251   1.854  12.198
 2372SOL    HW1 9013   2.192   1.781  12.175
 2372SOL    HW2 9014   2.193   1.929  12.207
 2373SOL     OW 9015  12.470  14.779   2.333
 2373SOL    HW1 9016  12.436  14.868   2.338
 2373SOL    HW2 9017  12.564  14.790   2.316
 2374SOL     OW 9018   5.948   9.502   1.236
 2374SOL    HW1 9019   5.897   9.579   1.261
 2374SOL    HW2 9020   6.034   9.537   1.215
 2375SOL     OW 9021  10.030   6.139  14.594
 2375SOL    HW1 9022  10.061   6.230  14.600
 2375SOL    HW2 9023  10.000   6.119  14.683
 2376SOL     OW 9024  12.954  12.600  12.364
 2376SOL    HW1 9025  12.871  12.557  12.343
 2376SOL    HW2 9026  13.008  12.530  12.400
 2377SOL     OW 9027   7.468  13.292   7.490
 2377SOL    HW1 9028   7.424  13.209   7.508
 2377SOL    HW2 9029   7.408  13.358   7.523
 2378SOL     OW 9030   3.165   9.618   6.017
 2378SOL    HW1 9031   3.136   9.561   5.945
 2378SOL    HW2 9032   3.090   9.677   6.032
 2379SOL     OW 9033  11.330   9.721   2.304
 2379SOL    HW1 9034  11.391   9.647   2.311
 2379SOL    HW2 9035  11.384   9.795   2.279
 2380SOL     OW 9036   7.219  14.651   8.356
 2380SOL    HW1 9037   7.299  14.600   8.371
 2380SOL    HW2 9038   7.163  14.631   8.431
 2381SOL     OW 9039   8.857   3.194   9.148
 2381SOL    HW1 9040   8.798   3.128   9.183
 2381SOL    HW2 9041   8.944   3.153   9.149
 2382SOL     OW 9042   4.933   9.450  10.429
 2382SOL    HW1 9043   4.913   9.458  10.522
 2382SOL    HW2 9044   4.984   9.528  10.408
 2383SOL     OW 9045   8.245   5.786   0.359
 2383SOL    HW1 9046   8.304   5.732   0.412
 2383SOL    HW2 9047   8.173   5.809   0.418
 2384SOL     OW 9048  11.765   5.066  14.390
 2384SOL    HW1 9049  11.729   5.052  14.303
 2384SOL    HW2 9050  11.727   5.149  14.419
 2385SOL     OW 9051   9.808   8.869  11.276
 2385SOL    HW1 9052   9.786   8.781  11.244
 2385SOL    HW2 9053   9.900   8.881  11.253
 2386SOL     OW 9054   2.660   6.227   7.335
 2386SOL    HW1 9055   2.646   6.161   7.402
 2386SOL    HW2 9056   2.667   6.178   7.253
 2387SOL     OW 9057  13.009  10.444   2.744
 2387SOL    HW1 9058  12.922  10.440   2.705
 2387SOL    HW2 9059  13.010  10.371   2.806
 2388SOL     OW 9060   9.266  11.879   6.064
 2388SOL    HW1 9061   9.177  11.875   6.028
 2388SOL    HW2 9062   9.300  11.790   6.055
 2389SOL     OW 9063   7.926   4.539   9.029
 2389SOL    HW1 9064   7.934   4.529   9.124
 2389SOL    HW2 9065   7.831   4.542   9.013
 2390SOL     OW 9066   1.349   9.627   6.485
 2390SOL    HW1 9067   1.437   9.591   6.497
 2390SOL    HW2 9068   1.327   9.665   6.570
 2391SOL     OW 9069   5.707  14.485  10.167
 2391SOL    HW1 9070   5.668  14.496  10.254
 2391SOL    HW2 9071   5.768  14.412  10.177
 2392SOL     OW 9072   2.011   7.639   2.097
 2392SOL    HW1 9073   1.971   7.656   2.012
 2392SOL    HW2 9074   1.992   7.718   2.148
 2393SOL     OW 9075   9.816   8.074   2.302
 2393SOL    HW1 9076   9.899   8.096   2.261
 2393SOL    HW2 9077   9.765   8.155   2.298
 2394SOL     OW 9078   5.836   8.118   1.243
 2394SOL    HW1 9079   5.861   8.116   1.336
 2394SOL    HW2 9080   5.918   8.132   1.196
 2395SOL     OW 9081  11.946   5.609   0.307
 2395SOL    HW1 9082  12.026   5.597   0.256
 2395SOL    HW2 9083  11.974   5.596   0.398
 2396SOL     OW 9084  13.198   8.717  13.609
 2396SOL    HW1 9085  13.110   8.753  13.609
 2396SOL    HW2 9086  13.227   8.723  13.518
 2397SOL     OW 9087   1.224  12.209  14.296
 2397SOL    HW1 9088   1.200  12.297  14.270
 2397SOL    HW2 9089   1.265  12.220  14.382
 2398SOL     OW 9090  10.166   5.949   8.111
 2398SOL    HW1 9091  10.259   5.932   8.126
 2398SOL    HW2 9092  10.163   6.036   8.071
 2399SOL     OW 9093  10.651   7.780   8.007
 2399SOL    HW1 9094  10.560   7.806   7.994
 2399SOL    HW2 9095  10.700   7.830   7.941
 2400SOL     OW 9096   5.214   3.197  11.729
 2400SOL    HW1 9097   5.254   3.246  11.657
 2400SOL    HW2 9098   5.155   3.136  11.686
 2401SOL     OW 9099   8.430   8.700  10.895
 2401SOL    HW1 9100   8.514   8.746  10.891
 2401SOL    HW2 9101   8.401   8.711  10.986
 2402SOL     OW 9102   4.626   5.493   6.287
 2402SOL    HW1 9103   4.628   5.423   6.221
 2402SOL    HW2 9104   4.598   5.570   6.239
 2403SOL     OW 9105  14.377  13.896   9.718
 2403SOL    HW1 9106  14.305  13.958   9.729
 2403SOL    HW2 9107  14.439  13.918   9.788
 2404SOL     OW 9108   2.747   5.271   5.090
 2404SOL    HW1 9109   2.674   5.222   5.128
 2404SOL    HW2 9110   2.720   5.289   5.000
 2405SOL     OW 9111  14.530  11.725   3.239
 2405SOL    HW1 9112  14.447  11.713   3.194
 2405SOL    HW2 9113  14.508  11.724   3.332
 2406SOL     OW 9114   6.367   5.972   9.445
 2406SOL    HW1 9115   6.401   6.061   9.451
 2406SOL    HW2 9116   6.314   5.961   9.524
 2407SOL     OW 9117  11.339   3.862   2.410
 2407SOL    HW1 9118  11.406   3.900   2.353
 2407SOL    HW2 9119  11.388   3.813   2.476
 2408SOL     OW 9120   9.282   1.550  10.469
 2408SOL    HW1 9121   9.298   1.641  10.444
 2408SOL    HW2 9122   9.187   1.541  10.468
 2409SOL     OW 9123   1.261   9.284  12.140
 2409SOL    HW1 9124   1.319   9.335  12.084
 2409SOL    HW2 9125   1.201   9.241  12.080
 2410SOL     OW 9126  12.733   4.257   5.192
 2410SOL    HW1 9127  12.649   4.301   5.204
 2410SOL    HW2 9128  12.732   4.186   5.256
 2411SOL     OW 9129  13.318  11.440   6.019
 2411SOL    HW1 9130  13.281  11.505   5.960
 2411SOL    HW2 9131  13.243  11.394   6.056
 2412SOL     OW 9132  11.955  10.062   6.668
 2412SOL    HW1 9133  11.884  10.043   6.730
 2412SOL    HW2 9134  11.986   9.976   6.641
 2413SOL     OW 9135   8.232   5.050  11.778
 2413SOL    HW1 9136   8.276   5.072  11.860
 2413SOL    HW2 9137   8.170   5.121  11.764
 2414SOL     OW 9138   8.911   7.394  10.313
 2414SOL    HW1 9139   8.933   7.473  10.361
 2414SOL    HW2 9140   8.874   7.334  10.378
 2415SOL     OW 9141   7.464   1.865   1.037
 2415SOL    HW1 9142   7.502   1.947   1.068
 2415SOL    HW2 9143   7.437   1.820   1.117
 2416SOL     OW 9144   4.962   3.239   4.118
 2416SOL    HW1 9145   4.974   3.204   4.206
 2416SOL    HW2 9146   4.893   3.304   4.127
 2417SOL     OW 9147  12.904   4.737   0.988
 2417SOL    HW1 9148  12.824   4.715   0.941
 2417SOL    HW2 9149  12.972   4.684   0.946
 2418SOL     OW 9150   5.988   9.377  12.108
 2418SOL    HW1 9151   5.964   9.329  12.187
 2418SOL    HW2 9152   6.039   9.452  12.140
 2419SOL     OW 9153   9.763   3.716   9.566
 2419SOL    HW1 9154   9.838   3.656   9.561
 2419SOL    HW2 9155   9.705   3.688   9.494
 2420SOL     OW 9156   2.948   8.458   8.906
 2420SOL    HW1 9157   2.924   8.516   8.834
 2420SOL    HW2 9158   2.950   8.371   8.868
 2421SOL     OW 9159  12.865  13.531  14.648
 2421SOL    HW1 9160  12.879  13.470  14.575
 2421SOL    HW2 9161  12.896  13.484  14.725
 2422SOL     OW 9162  10.625  11.957   2.703
 2422SOL    HW1 9163  10.690  12.028   2.705
 2422SOL    HW2 9164  10.646  11.903   2.779
 2423SOL     OW 9165   1.028   5.550   4.345
 2423SOL    HW1 9166   1.113   5.563   4.386
 2423SOL    HW2 9167   0.978   5.628   4.370
 2424SOL     OW 9168  14.672   2.651   4.311
 2424SOL    HW1 9169  14.656   2.671   4.403
 2424SOL    HW2 9170  14.585   2.631   4.275
 2425SOL     OW 9171   0.580   5.123   7.345
 2425SOL    HW1 9172   0.650   5.060   7.358
 2425SOL    HW2 9173   0.621   5.208   7.364
 2426SOL     OW 9174  10.925   6.959   8.450
 2426SOL    HW1 9175  11.009   7.001   8.468
 2426SOL    HW2 9176  10.881   7.017   8.389
 2427SOL     OW 9177   9.287   9.823   7.921
 2427SOL    HW1 9178   9.322   9.753   7.977
 2427SOL    HW2 9179   9.242   9.881   7.982
 2428SOL     OW 9180  10.665  10.516  13.440
 2428SOL    HW1 9181  10.714  10.434  13.441
 2428SOL    HW2 9182  10.577  10.491  13.412
 2429SOL     OW 9183  12.318  12.215   4.264
 2429SOL    HW1 9184  12.396  12.166   4.239
 2429SOL    HW2 9185  12.262  12.150   4.306
 2430SOL     OW 9186  13.014   4.810   9.033
 2430SOL    HW1 9187  13.069   4.733   9.020
 2430SOL    HW2 9188  12.930   4.774   9.064
 2431SOL     OW 9189  14.129   8.281  14.725
 2431SOL    HW1 9190  14.192   8.350  14.749
 2431SOL    HW2 9191  14.115   8.232  14.806
 2432SOL     OW 9192   1.136   5.783  13.362
 2432SOL    HW1 9193   1.214   5.781  13.307
 2432SOL    HW2 9194   1.126   5.693  13.393
 2433SOL     OW 9195  10.116   6.611   6.635
 2433SOL    HW1 9196  10.199   6.659   6.630
 2433SOL    HW2 9197  10.065   6.658   6.702
 2434SOL     OW 9198   8.586   5.975   2.517
 2434SOL    HW1 9199   8.652   6.028   2.471
 2434SOL    HW2 9200   8.561   6.029   2.592
 2435SOL     OW 9201  13.067   5.525   3.107
 2435SOL    HW1 9202  13.158   5.555   3.102
 2435SOL    HW2 9203  13.063   5.477   3.190
 2436SOL     OW 9204   5.362   5.257  10.125
 2436SOL    HW1 9205   5.363   5.173  10.170
 2436SOL    HW2 9206   5.313   5.241  10.044
 2437SOL     OW 9207   4.426   2.009  14.585
 2437SOL    HW1 9208   4.336   1.978  14.601
 2437SOL    HW2 9209   4.417   2.079  14.521
 2438SOL     OW 9210   2.932   5.334  14.092
 2438SOL    HW1 9211   2.981   5.300  14.167
 2438SOL    HW2 9212   2.933   5.263  14.029
 2439SOL     OW 9213  12.562   2.854   4.305
 2439SOL    HW1 9214  12.519   2.928   4.262
 2439SOL    HW2 9215  12.571   2.882   4.397
 2440SOL     OW 9216   8.277   4.588  14.056
 2440SOL    HW1 9217   8.304   4.679  14.044
 2440SOL    HW2 9218   8.181   4.590  14.054
 2441SOL     OW 9219  14.870   9.620   8.635
 2441SOL    HW1 9220   0.007   9.527   8.647
 2441SOL    HW2 9221   0.027   9.642   8.550
 2442SOL     OW 9222   8.044  13.204   0.171
 2442SOL    HW1 9223   7.958  13.242   0.185
 2442SOL    HW2 9224   8.028  13.111   0.160
 2443SOL     OW 9225  10.273  10.639   8.756
 2443SOL    HW1 9226  10.324  10.601   8.685
 2443SOL    HW2 9227  10.333  10.703   8.796
 2444SOL     OW 9228  10.482   1.180   4.943
 2444SOL    HW1 9229  10.518   1.095   4.969
 2444SOL    HW2 9230  10.389   1.174   4.963
 2445SOL     OW 9231   8.846   8.483  12.436
 2445SOL    HW1 9232   8.910   8.531  12.384
 2445SOL    HW2 9233   8.782   8.451  12.373
 2446SOL     OW 9234   0.354  13.414   7.303
 2446SOL    HW1 9235   0.432  13.470   7.306
 2446SOL    HW2 9236   0.353  13.380   7.213
 2447SOL     OW 9237  14.869   1.271   9.938
 2447SOL    HW1 9238  14.809   1.206   9.974
 2447SOL    HW2 9239  14.813   1.333   9.891
 2448SOL     OW 9240   6.281   6.409   5.566
 2448SOL    HW1 9241   6.288   6.494   5.524
 2448SOL    HW2 9242   6.205   6.416   5.623
 2449SOL     OW 9243   9.616   0.737  10.461
 2449SOL    HW1 9244   9.645   0.658  10.506
 2449SOL    HW2 9245   9.525   0.719  10.437
 2450SOL     OW 9246   7.041  14.697   7.753
 2450SOL    HW1 9247   7.127  14.721   7.718
 2450SOL    HW2 9248   7.057  14.618   7.805
 2451SOL     OW 9249   3.841   2.026   4.462
 2451SOL    HW1 9250   3.918   1.970   4.449
 2451SOL    HW2 9251   3.796   1.987   4.537
 2452SOL     OW 9252  13.745  11.236  12.325
 2452SOL    HW1 9253  13.754  11.239  12.420
 2452SOL    HW2 9254  13.809  11.299  12.293
 2453SOL     OW 9255  13.426   0.136   0.180
 2453SOL    HW1 9256  13.445   0.190   0.257
 2453SOL    HW2 9257  13.503   0.080   0.171
 2454SOL     OW 9258  12.484   8.705  14.664
 2454SOL    HW1 9259  12.561   8.689  14.718
 2454SOL    HW2 9260  12.422   8.636  14.687
 2455SOL     OW 9261   6.511   0.175  13.179
 2455SOL    HW1 9262   6.541   0.175  13.088
 2455SOL    HW2 9263   6.425   0.218  13.176
 2456SOL     OW 9264   0.045   0.878   6.951
 2456SOL    HW1 9265   0.080   0.820   7.019
 2456SOL    HW2 9266  14.836   0.894   6.978
 2457SOL     OW 9267   1.679   3.041   8.151
 2457SOL    HW1 9268   1.649   3.052   8.241
 2457SOL    HW2 9269   1.697   2.948   8.142
 2458SOL     OW 9270   1.821  11.422  10.209
 2458SOL    HW1 9271   1.796  11.330  10.213
 2458SOL    HW2 9272   1.739  11.470  10.219
 2459SOL     OW 9273   9.708  12.045  12.952
 2459SOL    HW1 9274   9.774  11.978  12.965
 2459SOL    HW2 9275   9.751  12.127  12.977
 2460SOL     OW 9276  11.728  11.107   9.307
 2460SOL    HW1 9277  11.762  11.116   9.218
 2460SOL    HW2 9278  11.693  11.018   9.311
 2461SOL     OW 9279  12.595  10.575   6.906
 2461SOL    HW1 9280  12.682  10.553   6.872
 2461SOL    HW2 9281  12.534  10.531   6.847
 2462SOL     OW 9282  10.772  14.457   4.255
 2462SOL    HW1 9283  10.827  14.496   4.323
 2462SOL    HW2 9284  10.825  14.464   4.175
 2463SOL     OW 9285   4.327   4.325  13.117
 2463SOL    HW1 9286   4.338   4.414  13.084
 2463SOL    HW2 9287   4.402   4.311  13.175
 2464SOL     OW 9288  10.349   0.497   7.966
 2464SOL    HW1 9289  10.355   0.520   7.873
 2464SOL    HW2 9290  10.266   0.451   7.974
 2465SOL     OW 9291  13.627  12.734   6.984
 2465SOL    HW1 9292  13.637  12.820   6.943
 2465SOL    HW2 9293  13.574  12.684   6.922
 2466SOL     OW 9294  10.917   3.403   8.233
 2466SOL    HW1 9295  10.945   3.318   8.265
 2466SOL    HW2 9296  10.997   3.445   8.201
 2467SOL     OW 9297  11.950   8.799   6.502
 2467SOL    HW1 9298  11.919   8.841   6.583
 2467SOL    HW2 9299  12.043   8.820   6.499
 2468SOL     OW 9300   9.516   6.512   6.333
 2468SOL    HW1 9301   9.585   6.575   6.314
 2468SOL    HW2 9302   9.449   6.562   6.379
 2469SOL     OW 9303   4.214  12.760   3.084
 2469SOL    HW1 9304   4.130  12.803   3.100
 2469SOL    HW2 9305   4.268  12.828   3.042
 2470SOL     OW 9306  12.445   2.491   7.463
 2470SOL    HW1 9307  12.401   2.409   7.486
 2470SOL    HW2 9308  12.381   2.539   7.409
 2471SOL     OW 9309  10.283  13.974   1.666
 2471SOL    HW1 9310  10.248  14.045   1.613
 2471SOL    HW2 9311  10.378  13.979   1.654
 2472SOL     OW 9312   6.780   0.014   6.966
 2472SOL    HW1 9313   6.794   0.107   6.982
 2472SOL    HW2 9314   6.716   0.011   6.895
 2473SOL     OW 9315   3.879   0.458   1.004
 2473SOL    HW1 9316   3.890   0.468   1.099
 2473SOL    HW2 9317   3.888   0.547   0.970
 2474SOL     OW 9318   3.728  14.755   9.005
 2474SOL    HW1 9319   3.760  14.676   8.960
 2474SOL    HW2 9320   3.667  14.722   9.070
 2475SOL     OW 9321   0.782  10.871   6.351
 2475SOL    HW1 9322   0.760  10.807   6.283
 2475SOL    HW2 9323   0.761  10.826   6.433
 2476SOL     OW 9324  11.159  10.889   9.474
 2476SOL    HW1 9325  11.103  10.843   9.411
 2476SOL    HW2 9326  11.120  10.868   9.559
 2477SOL     OW 9327   6.897   5.221   6.199
 2477SOL    HW1 9328   6.826   5.171   6.239
 2477SOL    HW2 9329   6.973   5.163   6.206
 2478SOL     OW 9330   6.156   2.716   1.532
 2478SOL    HW1 9331   6.075   2.694   1.486
 2478SOL    HW2 9332   6.185   2.634   1.572
 2479SOL     OW 9333  10.242   7.737  14.364
 2479SOL    HW1 9334  10.335   7.722  14.381
 2479SOL    HW2 9335  10.223   7.820  14.407
 2480SOL     OW 9336   6.037   9.346  11.603
 2480SOL    HW1 9337   6.128   9.371  11.589
 2480SOL    HW2 9338   6.021   9.275  11.541
 2481SOL     OW 9339   9.121   9.226  14.741
 2481SOL    HW1 9340   9.184   9.179  14.686
 2481SOL    HW2 9341   9.158   9.313  14.750
 2482SOL     OW 9342  10.902   7.679  12.593
 2482SOL    HW1 9343  10.883   7.602  12.647
 2482SOL    HW2 9344  10.850   7.666  12.513
 2483SOL     OW 9345   2.037  12.897   1.866
 2483SOL    HW1 9346   2.115  12.848   1.894
 2483SOL    HW2 9347   2.014  12.859   1.781
 2484SOL     OW 9348   3.793   7.418  12.085
 2484SOL    HW1 9349   3.757   7.329  12.075
 2484SOL    HW2 9350   3.852   7.411  12.160
 2485SOL     OW 9351   5.110  14.627  10.357
 2485SOL    HW1 9352   5.053  14.598  10.429
 2485SOL    HW2 9353   5.144  14.711  10.386
 2486SOL     OW 9354   9.799  14.209  11.025
 2486SOL    HW1 9355   9.871  14.255  11.069
 2486SOL    HW2 9356   9.721  14.260  11.049
 2487SOL     OW 9357  10.808   3.317   2.307
 2487SOL    HW1 9358  10.883   3.261   2.284
 2487SOL    HW2 9359  10.848   3.396   2.343
 2488SOL     OW 9360   3.237   3.654   2.874
 2488SOL    HW1 9361   3.305   3.658   2.942
 2488SOL    HW2 9362   3.286   3.653   2.791
 2489SOL     OW 9363   5.067   3.761   8.201
 2489SOL    HW1 9364   5.001   3.824   8.228
 2489SOL    HW2 9365   5.150   3.808   8.209
 2490SOL     OW 9366   0.159   9.264   3.856
 2490SOL    HW1 9367   0.189   9.287   3.944
 2490SOL    HW2 9368   0.066   9.288   3.855
 2491SOL     OW 9369   2.987  14.406   4.391
 2491SOL    HW1 9370   3.052  14.337   4.402
 2491SOL    HW2 9371   3.022  14.480   4.441
 2492SOL     OW 9372   8.443  14.382  14.575
 2492SOL    HW1 9373   8.460  14.307  14.519
 2492SOL    HW2 9374   8.494  14.365  14.654
 2493SOL     OW 9375  10.816   8.255   7.079
 2493SOL    HW1 9376  10.863   8.189   7.130
 2493SOL    HW2 9377  10.868   8.334   7.089
 2494SOL     OW 9378  13.982   5.763   2.315
 2494SOL    HW1 9379  14.045   5.835   2.307
 2494SOL    HW2 9380  13.899   5.806   2.334
 2495SOL     OW 9381   0.949   5.774  10.851
 2495SOL    HW1 9382   0.985   5.772  10.762
 2495SOL    HW2 9383   0.873   5.715  10.846
 2496SOL     OW 9384   1.149   5.621   9.411
 2496SOL    HW1 9385   1.133   5.704   9.367
 2496SOL    HW2 9386   1.167   5.645   9.502
 2497SOL     OW 9387   4.056   6.073   9.995
 2497SOL    HW1 9388   4.024   6.040  10.079
 2497SOL    HW2 9389   3.996   6.035   9.930
 2498SOL     OW 9390   2.652   9.829  14.149
 2498SOL    HW1 9391   2.692   9.746  14.175
 2498SOL    HW2 9392   2.575   9.804  14.099
 2499SOL     OW 9393   1.284   0.767   0.291
 2499SOL    HW1 9394   1.190   0.782   0.301
 2499SOL    HW2 9395   1.290   0.692   0.231
 2500SOL     OW 9396  10.832  11.352   5.622
 2500SOL    HW1 9397  10.868  11.273   5.662
 2500SOL    HW2 9398  10.740  11.353   5.651
 2501SOL     OW 9399   7.224   8.452   3.486
 2501SOL    HW1 9400   7.306   8.502   3.491
 2501SOL    HW2 9401   7.251   8.363   3.464
 2502SOL     OW 9402   7.850   9.288   7.876
 2502SOL    HW1 9403   7.791   9.239   7.819
 2502SOL    HW2 9404   7.907   9.337   7.816
 2503SOL     OW 9405   5.994   5.733   5.168
 2503SOL    HW1 9406   5.908   5.707   5.136
 2503SOL    HW2 9407   6.054   5.667   5.134
 2504SOL     OW 9408   2.933   6.874  11.172
 2504SOL    HW1 9409   2.998   6.879  11.243
 2504SOL    HW2 9410   2.849   6.876  11.217
 2505SOL     OW 9411   9.982   9.893   2.087
 2505SOL    HW1 9412  10.002   9.979   2.125
 2505SOL    HW2 9413  10.046   9.834   2.126
 2506SOL     OW 9414   3.150  10.959   5.483
 2506SOL    HW1 9415   3.062  10.933   5.455
 2506SOL    HW2 9416   3.206  10.886   5.458
 2507SOL     OW 9417   7.310   2.200   5.355
 2507SOL    HW1 9418   7.240   2.135   5.344
 2507SOL    HW2 9419   7.266   2.284   5.348
 2508SOL     OW 9420   7.384   7.490  14.009
 2508SOL    HW1 9421   7.419   7.563  14.060
 2508SOL    HW2 9422   7.439   7.486  13.931
 2509SOL     OW 9423  14.810   6.546   4.084
 2509SOL    HW1 9424  14.809   6.631   4.038
 2509SOL    HW2 9425  14.765   6.486   4.024
 2510SOL     OW 9426   0.908  13.561   4.638
 2510SOL    HW1 9427   0.881  13.548   4.729
 2510SOL    HW2 9428   0.953  13.480   4.614
 2511SOL     OW 9429   0.492   6.180   0.133
 2511SOL    HW1 9430   0.397   6.180   0.125
 2511SOL    HW2 9431   0.522   6.115   0.069
 2512SOL     OW 9432   7.042   0.200   7.535
 2512SOL    HW1 9433   6.972   0.163   7.589
 2512SOL    HW2 9434   7.121   0.191   7.589
 2513SOL     OW 9435   8.280  10.717   5.767
 2513SOL    HW1 9436   8.357  10.764   5.736
 2513SOL    HW2 9437   8.303  10.690   5.856
 2514SOL     OW 9438  11.014   4.642  11.721
 2514SOL    HW1 9439  11.106   4.669  11.721
 2514SOL    HW2 9440  11.015   4.552  11.688
 2515SOL     OW 9441   3.860  11.228   7.748
 2515SOL    HW1 9442   3.945  11.205   7.710
 2515SOL    HW2 9443   3.809  11.260   7.673
 2516SOL     OW 9444   4.614  10.348   8.676
 2516SOL    HW1 9445   4.660  10.396   8.745
 2516SOL    HW2 9446   4.581  10.269   8.719
 2517SOL     OW 9447   9.269   8.934   3.982
 2517SOL    HW1 9448   9.243   8.932   4.074
 2517SOL    HW2 9449   9.351   8.982   3.980
 2518SOL     OW 9450  10.475   1.231   5.387
 2518SOL    HW1 9451  10.390   1.266   5.361
 2518SOL    HW2 9452  10.457   1.179   5.465
 2519SOL     OW 9453   0.159  12.109  13.603
 2519SOL    HW1 9454   0.070  12.074  13.616
 2519SOL    HW2 9455   0.162  12.187  13.658
 2520SOL     OW 9456  13.092   8.553   2.237
 2520SOL    HW1 9457  13.183   8.548   2.207
 2520SOL    HW2 9458  13.097   8.545   2.332
 2521SOL     OW 9459   5.728  14.684  11.350
 2521SOL    HW1 9460   5.746  14.778  11.339
 2521SOL    HW2 9461   5.657  14.666  11.288
 2522SOL     OW 9462   0.106  12.151  11.799
 2522SOL    HW1 9463   0.012  12.134  11.807
 2522SOL    HW2 9464   0.112  12.227  11.741
 2523SOL     OW 9465  12.344   6.046   4.415
 2523SOL    HW1 9466  12.362   6.090   4.332
 2523SOL    HW2 9467  12.298   5.966   4.389
 2524SOL     OW 9468   0.663   8.010  10.507
 2524SOL    HW1 9469   0.688   7.919  10.495
 2524SOL    HW2 9470   0.568   8.006  10.523
 2525SOL     OW 9471   3.584   4.946   3.286
 2525SOL    HW1 9472   3.500   4.991   3.281
 2525SOL    HW2 9473   3.650   5.016   3.287
 2526SOL     OW 9474   1.907   0.087   3.342
 2526SOL    HW1 9475   1.872   0.067   3.428
 2526SOL    HW2 9476   1.897   0.006   3.292
 2527SOL     OW 9477  10.650  14.142  13.235
 2527SOL    HW1 9478  10.697  14.170  13.313
 2527SOL    HW2 9479  10.598  14.067  13.264
 2528SOL     OW 9480   8.370   1.851   3.628
 2528SOL    HW1 9481   8.291   1.824   3.675
 2528SOL    HW2 9482   8.410   1.918   3.684
 2529SOL     OW 9483   2.719   0.389   4.263
 2529SOL    HW1 9484   2.748   0.453   4.198
 2529SOL    HW2 9485   2.800   0.351   4.297
 2530SOL     OW 9486   3.231  12.724  10.722
 2530SOL    HW1 9487   3.303  12.672  10.685
 2530SOL    HW2 9488   3.215  12.792  10.657
 2531SOL     OW 9489  11.152   7.804   4.786
 2531SOL    HW1 9490  11.146   7.837   4.697
 2531SOL    HW2 9491  11.210   7.728   4.780
 2532SOL     OW 9492  10.290   6.491  11.030
 2532SOL    HW1 9493  10.267   6.561  11.092
 2532SOL    HW2 9494  10.276   6.530  10.944
 2533SOL     OW 9495  13.013  11.870   0.853
 2533SOL    HW1 9496  13.026  11.898   0.943
 2533SOL    HW2 9497  13.059  11.936   0.801
 2534SOL     OW 9498   5.330   8.175   4.605
 2534SOL    HW1 9499   5.334   8.118   4.529
 2534SOL    HW2 9500   5.300   8.119   4.676
 2535SOL     OW 9501   2.357   6.951   0.146
 2535SOL    HW1 9502   2.312   6.911   0.072
 2535SOL    HW2 9503   2.449   6.927   0.135
 2536SOL     OW 9504   1.436   4.844   2.003
 2536SOL    HW1 9505   1.367   4.782   1.978
 2536SOL    HW2 9506   1.389   4.914   2.048
 2537SOL     OW 9507   5.173   0.485   4.104
 2537SOL    HW1 9508   5.146   0.437   4.182
 2537SOL    HW2 9509   5.184   0.575   4.134
 2538SOL     OW 9510  10.304  14.200   4.293
 2538SOL    HW1 9511  10.297  14.293   4.272
 2538SOL    HW2 9512  10.234  14.159   4.243
 2539SOL     OW 9513  13.980  14.876  13.859
 2539SOL    HW1 9514  13.942  14.800  13.902
 2539SOL    HW2 9515  14.075  14.862  13.863
 2540SOL     OW 9516  11.930  10.682  14.374
 2540SOL    HW1 9517  12.003  10.720  14.423
 2540SOL    HW2 9518  11.854  10.694  14.431
 2541SOL     OW 9519   0.127   7.410  11.591
 2541SOL    HW1 9520   0.191   7.352  11.634
 2541SOL    HW2 9521   0.167   7.497  11.594
 2542SOL     OW 9522  14.868  12.869   9.215
 2542SOL    HW1 9523  14.803  12.933   9.245
 2542SOL    HW2 9524   0.040  12.851   9.293
 2543SOL     OW 9525   8.447   6.202   7.679
 2543SOL    HW1 9526   8.424   6.255   7.756
 2543SOL    HW2 9527   8.495   6.262   7.622
 2544SOL     OW 9528   8.774   2.655   6.411
 2544SOL    HW1 9529   8.863   2.684   6.432
 2544SOL    HW2 9530   8.753   2.697   6.328
 2545SOL     OW 9531   4.952  14.704  14.560
 2545SOL    HW1 9532   4.869  14.695  14.512
 2545SOL    HW2 9533   4.952  14.630  14.621
 2546SOL     OW 9534   8.063  12.150   5.425
 2546SOL    HW1 9535   8.070  12.153   5.520
 2546SOL    HW2 9536   8.011  12.071   5.407
 2547SOL     OW 9537  12.368   8.685   2.050
 2547SOL    HW1 9538  12.432   8.725   2.109
 2547SOL    HW2 9539  12.294   8.662   2.106
 2548SOL     OW 9540  13.415  10.298  12.289
 2548SOL    HW1 9541  13.464  10.342  12.359
 2548SOL    HW2 9542  13.338  10.354  12.277
 2549SOL     OW 9543   5.782  11.017   9.045
 2549SOL    HW1 9544   5.864  11.062   9.063
 2549SOL    HW2 9545   5.714  11.079   9.072
 2550SOL     OW 9546   7.828  11.190  13.164
 2550SOL    HW1 9547   7.840  11.108  13.212
 2550SOL    HW2 9548   7.734  11.206  13.166
 2551SOL     OW 9549   9.723  12.786  11.721
 2551SOL    HW1 9550   9.774  12.773  11.802
 2551SOL    HW2 9551   9.666  12.709  11.717
 2552SOL     OW 9552  13.603   9.763   5.423
 2552SOL    HW1 9553  13.558   9.718   5.352
 2552SOL    HW2 9554  13.542   9.832   5.450
 2553SOL     OW 9555  10.400   4.862   4.633
 2553SOL    HW1 9556  10.429   4.829   4.717
 2553SOL    HW2 9557  10.473   4.914   4.600
 2554SOL     OW 9558   1.234  14.378   0.782
 2554SOL    HW1 9559   1.215  14.427   0.862
 2554SOL    HW2 9560   1.316  14.332   0.801
 2555SOL     OW 9561   4.085  13.392  14.672
 2555SOL    HW1 9562   4.153  13.331  14.644
 2555SOL    HW2 9563   4.050  13.428  14.591
 2556SOL     OW 9564   0.814   4.114   3.021
 2556SOL    HW1 9565   0.893   4.118   3.074
 2556SOL    HW2 9566   0.743   4.101   3.084
 2557SOL     OW 9567   5.969   5.960  10.753
 2557SOL    HW1 9568   5.987   5.915  10.670
 2557SOL    HW2 9569   5.884   5.926  10.781
 2558SOL     OW 9570   4.311  13.038   6.575
 2558SOL    HW1 9571   4.299  13.123   6.533
 2558SOL    HW2 9572   4.223  13.010   6.600
 2559SOL     OW 9573   2.023   7.332   9.939
 2559SOL    HW1 9574   2.023   7.304   9.848
 2559SOL    HW2 9575   2.028   7.428   9.934
 2560SOL     OW 9576   6.746   5.284   4.006
 2560SOL    HW1 9577   6.755   5.218   3.937
 2560SOL    HW2 9578   6.683   5.246   4.068
 2561SOL     OW 9579   8.819  11.137  10.788
 2561SOL    HW1 9580   8.801  11.176  10.874
 2561SOL    HW2 9581   8.859  11.052  10.809
 2562SOL     OW 9582   7.115   4.999   0.304
 2562SOL    HW1 9583   7.028   4.962   0.289
 2562SOL    HW2 9584   7.116   5.020   0.398
 2563SOL     OW 9585   6.837   4.273   6.817
 2563SOL    HW1 9586   6.785   4.337   6.767
 2563SOL    HW2 9587   6.782   4.195   6.818
 2564SOL     OW 9588   5.472   4.444   2.386
 2564SOL    HW1 9589   5.477   4.536   2.361
 2564SOL    HW2 9590   5.477   4.444   2.482
 2565SOL     OW 9591   7.150   3.211   8.820
 2565SOL    HW1 9592   7.189   3.237   8.903
 2565SOL    HW2 9593   7.063   3.177   8.844
 2566SOL     OW 9594   5.495   1.647   6.401
 2566SOL    HW1 9595   5.501   1.594   6.321
 2566SOL    HW2 9596   5.408   1.687   6.396
 2567SOL     OW 9597  11.266  13.077   5.513
 2567SOL    HW1 9598  11.228  13.004   5.464
 2567SOL    HW2 9599  11.251  13.055   5.604
 2568SOL     OW 9600  12.401   4.650  11.806
 2568SOL    HW1 9601  12.354   4.732  11.821
 2568SOL    HW2 9602  12.378   4.595  11.881
 2569SOL     OW 9603   2.188   0.614   5.815
 2569SOL    HW1 9604   2.274   0.650   5.837
 2569SOL    HW2 9605   2.135   0.629   5.893
 2570SOL     OW 9606  13.951   8.286   9.899
 2570SOL    HW1 9607  13.858   8.293   9.878
 2570SOL    HW2 9608  13.954   8.283   9.995
 2571SOL     OW 9609  14.760   9.931   5.473
 2571SOL    HW1 9610  14.794   9.938   5.562
 2571SOL    HW2 9611  14.814   9.864   5.431
 2572SOL     OW 9612  11.516   2.346   7.445
 2572SOL    HW1 9613  11.543   2.283   7.512
 2572SOL    HW2 9614  11.466   2.294   7.382
 2573SOL     OW 9615  11.320   3.869   8.324
 2573SOL    HW1 9616  11.291   3.797   8.380
 2573SOL    HW2 9617  11.264   3.943   8.350
 2574SOL     OW 9618  12.056   4.800   6.822
 2574SOL    HW1 9619  12.146   4.829   6.809
 2574SOL    HW2 9620  12.012   4.876   6.860
 2575SOL     OW 9621   4.318   3.583  11.554
 2575SOL    HW1 9622   4.353   3.510  11.605
 2575SOL    HW2 9623   4.275   3.543  11.479
 2576SOL     OW 9624   0.368   3.599   5.220
 2576SOL    HW1 9625   0.306   3.530   5.195
 2576SOL    HW2 9626   0.420   3.561   5.290
 2577SOL     OW 9627   4.369   8.889   3.677
 2577SOL    HW1 9628   4.417   8.825   3.625
 2577SOL    HW2 9629   4.285   8.898   3.633
 2578SOL     OW 9630   2.717   0.350   9.709
 2578SOL    HW1 9631   2.807   0.366   9.678
 2578SOL    HW2 9632   2.667   0.426   9.678
 2579SOL     OW 9633  12.010   0.679   1.540
 2579SOL    HW1 9634  11.943   0.700   1.475
 2579SOL    HW2 9635  12.009   0.753   1.600
 2580SOL     OW 9636   9.617   9.240   0.888
 2580SOL    HW1 9637   9.561   9.290   0.947
 2580SOL    HW2 9638   9.557   9.183   0.840
 2581SOL     OW 9639   7.647   4.526   8.980
 2581SOL    HW1 9640   7.576   4.464   8.962
 2581SOL    HW2 9641   7.610   4.611   8.953
 2582SOL     OW 9642   1.564   7.602  12.668
 2582SOL    HW1 9643   1.648   7.556  12.673
 2582SOL    HW2 9644   1.588   7.694  12.658
 2583SOL     OW 9645  10.456   6.453   6.327
 2583SOL    HW1 9646  10.375   6.489   6.291
 2583SOL    HW2 9647  10.509   6.529   6.348
 2584SOL     OW 9648   2.658   6.015   0.864
 2584SOL    HW1 9649   2.590   6.082   0.874
 2584SOL    HW2 9650   2.689   6.026   0.775
 2585SOL     OW 9651  11.620   5.543   1.228
 2585SOL    HW1 9652  11.568   5.502   1.297
 2585SOL    HW2 9653  11.708   5.508   1.240
 2586SOL     OW 9654  11.857   6.473   9.823
 2586SOL    HW1 9655  11.938   6.452   9.870
 2586SOL    HW2 9656  11.797   6.504   9.891
 2587SOL     OW 9657   2.165   4.965  10.603
 2587SOL    HW1 9658   2.165   5.022  10.679
 2587SOL    HW2 9659   2.096   5.001  10.546
 2588SOL     OW 9660  14.133  14.283   2.250
 2588SOL    HW1 9661  14.158  14.334   2.327
 2588SOL    HW2 9662  14.199  14.305   2.184
 2589SOL     OW 9663   5.175   9.195   0.515
 2589SOL    HW1 9664   5.112   9.264   0.494
 2589SOL    HW2 9665   5.121   9.121   0.542
 2590SOL     OW 9666  14.733  13.165   2.771
 2590SOL    HW1 9667  14.663  13.124   2.820
 2590SOL    HW2 9668  14.694  13.185   2.686
 2591SOL     OW 9669   0.715  11.927  10.325
 2591SOL    HW1 9670   0.633  11.879  10.317
 2591SOL    HW2 9671   0.776  11.880  10.267
 2592SOL     OW 9672   7.055   3.412   9.853
 2592SOL    HW1 9673   6.963   3.393   9.870
 2592SOL    HW2 9674   7.071   3.380   9.764
 2593SOL     OW 9675  11.367  13.353   1.524
 2593SOL    HW1 9676  11.371  13.340   1.429
 2593SOL    HW2 9677  11.344  13.267   1.559
 2594SOL     OW 9678   6.742   4.147  14.448
 2594SOL    HW1 9679   6.726   4.223  14.392
 2594SOL    HW2 9680   6.834   4.156  14.474
 2595SOL     OW 9681  13.655   0.135  12.127
 2595SOL    HW1 9682  13.741   0.159  12.162
 2595SOL    HW2 9683  13.629   0.059  12.180
 2596SOL     OW 9684   0.650   7.413   6.472
 2596SOL    HW1 9685   0.745   7.408   6.480
 2596SOL    HW2 9686   0.631   7.378   6.385
 2597SOL     OW 9687  12.172  10.387   3.304
 2597SOL    HW1 9688  12.216  10.325   3.245
 2597SOL    HW2 9689  12.091  10.343   3.328
 2598SOL     OW 9690   4.911   2.930  12.648
 2598SOL    HW1 9691   4.910   2.980  12.729
 2598SOL    HW2 9692   4.979   2.863  12.662
 2599SOL     OW 9693   9.645   3.432   5.524
 2599SOL    HW1 9694   9.710   3.486   5.570
 2599SOL    HW2 9695   9.691   3.401   5.446
 2600SOL     OW 9696   0.042   5.618  10.940
 2600SOL    HW1 9697  14.881   5.660  11.014
 2600SOL    HW2 9698   0.125   5.586  10.975
 2601SOL     OW 9699  13.751   3.257  11.713
 2601SOL    HW1 9700  13.704   3.278  11.794
 2601SOL    HW2 9701  13.821   3.198  11.740
 2602SOL     OW 9702   0.089  10.834   9.974
 2602SOL    HW1 9703   0.074  10.914  10.026
 2602SOL    HW2 9704   0.025  10.840   9.903
 2603SOL     OW 9705   4.679   4.722   9.109
 2603SOL    HW1 9706   4.689   4.656   9.178
 2603SOL    HW2 9707   4.588   4.714   9.081
 2604SOL     OW 9708  13.073   7.746   3.269
 2604SOL    HW1 9709  13.071   7.714   3.179
 2604SOL    HW2 9710  13.131   7.685   3.315
 2605SOL     OW 9711   3.665   8.065   2.560
 2605SOL    HW1 9712   3.718   8.001   2.607
 2605SOL    HW2 9713   3.658   8.030   2.471
 2606SOL     OW 9714   7.396  11.943  13.730
 2606SOL    HW1 9715   7.481  11.980  13.706
 2606SOL    HW2 9716   7.336  11.977  13.663
 2607SOL     OW 9717  10.619   2.916  11.412
 2607SOL    HW1 9718  10.642   2.974  11.484
 2607SOL    HW2 9719  10.570   2.845  11.453
 2608SOL     OW 9720   5.775  12.051   8.975
 2608SOL    HW1 9721   5.792  11.995   8.900
 2608SOL    HW2 9722   5.701  12.106   8.948
 2609SOL     OW 9723   0.315   7.896   8.015
 2609SOL    HW1 9724   0.234   7.879   8.063
 2609SOL    HW2 9725   0.295   7.973   7.961
 2610SOL     OW 9726   5.724   8.232   2.162
 2610SOL    HW1 9727   5.686   8.321   2.157
 2610SOL    HW2 9728   5.720   8.201   2.071
 2611SOL     OW 9729   4.693   4.603  10.087
 2611SOL    HW1 9730   4.785   4.584  10.105
 2611SOL    HW2 9731   4.682   4.695  10.108
 2612SOL     OW 9732  12.065   3.301   1.244
 2612SOL    HW1 9733  12.059   3.215   1.286
 2612SOL    HW2 9734  12.135   3.346   1.291
 2613SOL     OW 9735  10.646  14.666  10.454
 2613SOL    HW1 9736  10.645  14.762  10.454
 2613SOL    HW2 9737  10.557  14.641  10.479
 2614SOL     OW 9738   1.039  13.999  10.647
 2614SOL    HW1 9739   1.078  13.925  10.602
 2614SOL    HW2 9740   0.986  13.959  10.717
 2615SOL     OW 9741   9.278   6.328   8.746
 2615SOL    HW1 9742   9.205   6.314   8.685
 2615SOL    HW2 9743   9.347   6.364   8.691
 2616SOL     OW 9744   7.555  11.309  12.644
 2616SOL    HW1 9745   7.564  11.403  12.628
 2616SOL    HW2 9746   7.632  11.271  12.601
 2617SOL     OW 9747   2.129   9.741  12.592
 2617SOL    HW1 9748   2.193   9.690  12.642
 2617SOL    HW2 9749   2.127   9.699  12.506
 2618SOL     OW 9750   8.710   1.409  10.698
 2618SOL    HW1 9751   8.743   1.448  10.779
 2618SOL    HW2 9752   8.650   1.340  10.727
 2619SOL     OW 9753   2.669  11.162   5.280
 2619SOL    HW1 9754   2.729  11.158   5.354
 2619SOL    HW2 9755   2.583  11.144   5.318
 2620SOL     OW 9756  11.657   9.752   4.557
 2620SOL    HW1 9757  11.618   9.665   4.569
 2620SOL    HW2 9758  11.748   9.740   4.584
 2621SOL     OW 9759  10.983   6.000  12.325
 2621SOL    HW1 9760  10.998   5.942  12.400
 2621SOL    HW2 9761  11.006   5.948  12.248
 2622SOL     OW 9762   9.396  10.779   8.024
 2622SOL    HW1 9763   9.321  10.816   8.070
 2622SOL    HW2 9764   9.424  10.706   8.079
 2623SOL     OW 9765   6.870   3.370   4.966
 2623SOL    HW1 9766   6.856   3.329   4.881
 2623SOL    HW2 9767   6.866   3.464   4.948
 2624SOL     OW 9768  11.158   6.994   4.261
 2624SOL    HW1 9769  11.125   7.041   4.338
 2624SOL    HW2 9770  11.155   7.058   4.190
 2625SOL     OW 9771  11.809   0.829  14.308
 2625SOL    HW1 9772  11.854   0.868  14.233
 2625SOL    HW2 9773  11.778   0.904  14.359
 2626SOL     OW 9774  13.648   6.410  13.262
 2626SOL    HW1 9775  13.599   6.329  13.274
 2626SOL    HW2 9776  13.710   6.391  13.192
 2627SOL     OW 9777   5.182  12.565   0.536
 2627SOL    HW1 9778   5.182  12.648   0.489
 2627SOL    HW2 9779   5.147  12.585   0.622
 2628SOL     OW 9780   0.716  14.445   4.173
 2628SOL    HW1 9781   0.792  14.421   4.225
 2628SOL    HW2 9782   0.749  14.509   4.109
 2629SOL     OW 9783   2.560  10.478   5.741
 2629SOL    HW1 9784   2.537  10.567   5.715
 2629SOL    HW2 9785   2.655  10.474   5.735
 2630SOL     OW 9786   1.787   8.462  14.470
 2630SOL    HW1 9787   1.882   8.468  14.481
 2630SOL    HW2 9788   1.768   8.512  14.391
 2631SOL     OW 9789  14.145   1.574   0.626
 2631SOL    HW1 9790  14.144   1.572   0.722
 2631SOL    HW2 9791  14.163   1.484   0.599
 2632SOL     OW 9792   3.033   8.441   4.909
 2632SOL    HW1 9793   3.039   8.486   4.993
 2632SOL    HW2 9794   3.123   8.441   4.876
 2633SOL     OW 9795  14.726  13.715   1.089
 2633SOL    HW1 9796  14.725  13.803   1.051
 2633SOL    HW2 9797  14.685  13.660   1.022
 2634SOL     OW 9798  12.007  10.487  12.964
 2634SOL    HW1 9799  12.041  10.552  12.903
 2634SOL    HW2 9800  12.030  10.403  12.923
 2635SOL     OW 9801  11.333  11.929  12.542
 2635SOL    HW1 9802  11.264  11.915  12.606
 2635SOL    HW2 9803  11.313  12.014  12.502
 2636SOL     OW 9804  12.084   6.514  10.114
 2636SOL    HW1 9805  12.090   6.605  10.142
 2636SOL    HW2 9806  12.011   6.478  10.166
 2637SOL     OW 9807  14.841  13.968   7.720
 2637SOL    HW1 9808  14.748  13.968   7.696
 2637SOL    HW2 9809  14.847  13.902   7.790
 2638SOL     OW 9810   7.915   1.980   6.857
 2638SOL    HW1 9811   7.870   2.009   6.937
 2638SOL    HW2 9812   7.955   2.060   6.822
 2639SOL     OW 9813   4.106  11.608   5.542
 2639SOL    HW1 9814   4.079  11.525   5.502
 2639SOL    HW2 9815   4.030  11.665   5.531
 2640SOL     OW 9816   6.401  13.211   9.468
 2640SOL    HW1 9817   6.319  13.251   9.496
 2640SOL    HW2 9818   6.424  13.151   9.539
 2641SOL     OW 9819  12.420   4.661   0.984
 2641SOL    HW1 9820  12.498   4.648   1.037
 2641SOL    HW2 9821  12.347   4.653   1.046
 2642SOL     OW 9822   7.275   1.639   1.902
 2642SOL    HW1 9823   7.237   1.671   1.820
 2642SOL    HW2 9824   7.343   1.577   1.875
 2643SOL     OW 9825   2.402  10.938   7.990
 2643SOL    HW1 9826   2.431  10.850   8.011
 2643SOL    HW2 9827   2.308  10.930   7.974
 2644SOL     OW 9828  12.434   8.202   3.450
 2644SOL    HW1 9829  12.524   8.213   3.482
 2644SOL    HW2 9830  12.413   8.111   3.471
 2645SOL     OW 9831   0.386   5.496  14.730
 2645SOL    HW1 9832   0.310   5.542  14.765
 2645SOL    HW2 9833   0.461   5.539  14.772
 2646SOL     OW 9834  13.877   4.738   1.069
 2646SOL    HW1 9835  13.814   4.705   1.005
 2646SOL    HW2 9836  13.927   4.661   1.095
 2647SOL     OW 9837  11.706  14.205   5.623
 2647SOL    HW1 9838  11.632  14.256   5.656
 2647SOL    HW2 9839  11.714  14.233   5.531
 2648SOL     OW 9840   4.572   2.131   8.927
 2648SOL    HW1 9841   4.530   2.214   8.951
 2648SOL    HW2 9842   4.665   2.152   8.924
 2649SOL     OW 9843   8.058   2.764   9.743
 2649SOL    HW1 9844   8.150   2.785   9.764
 2649SOL    HW2 9845   8.064   2.685   9.689
 2650SOL     OW 9846   4.515   1.297  11.622
 2650SOL    HW1 9847   4.470   1.233  11.675
 2650SOL    HW2 9848   4.556   1.246  11.552
 2651SOL     OW 9849   5.613  14.427  12.740
 2651SOL    HW1 9850   5.627  14.522  12.735
 2651SOL    HW2 9851   5.520  14.416  12.724
 2652SOL     OW 9852  10.418  12.558  12.033
 2652SOL    HW1 9853  10.374  12.633  11.993
 2652SOL    HW2 9854  10.363  12.483  12.010
 2653SOL     OW 9855   9.413   9.055   3.204
 2653SOL    HW1 9856   9.378   9.032   3.290
 2653SOL    HW2 9857   9.422   9.150   3.206
 2654SOL     OW 9858   2.755  14.542   2.213
 2654SOL    HW1 9859   2.846  14.559   2.186
 2654SOL    HW2 9860   2.713  14.505   2.135
 2655SOL     OW 9861   5.789  12.477  11.123
 2655SOL    HW1 9862   5.822  12.472  11.213
 2655SOL    HW2 9863   5.778  12.385  11.097
 2656SOL     OW 9864   0.629  11.583   8.783
 2656SOL    HW1 9865   0.693  11.580   8.713
 2656SOL    HW2 9866   0.607  11.491   8.799
 2657SOL     OW 9867   2.241  12.420   2.883
 2657SOL    HW1 9868   2.166  12.464   2.844
 2657SOL    HW2 9869   2.203  12.347   2.933
 2658SOL     OW 9870   4.818  11.108  10.237
 2658SOL    HW1 9871   4.836  11.202  10.229
 2658SOL    HW2 9872   4.904  11.068  10.245
 2659SOL     OW 9873   5.559   8.134   7.458
 2659SOL    HW1 9874   5.523   8.132   7.369
 2659SOL    HW2 9875   5.631   8.072   7.457
 2660SOL     OW 9876  14.294   2.796  13.791
 2660SOL    HW1 9877  14.217   2.755  13.830
 2660SOL    HW2 9878  14.263   2.884  13.767
 2661SOL     OW 9879  10.575  12.432   6.546
 2661SOL    HW1 9880  10.503  12.482   6.585
 2661SOL    HW2 9881  10.538  12.345   6.532
 2662SOL     OW 9882   1.664   0.083  10.067
 2662SOL    HW1 9883   1.583   0.050  10.105
 2662SOL    HW2 9884   1.686   0.159  10.121
 2663SOL     OW 9885  13.634  14.284  11.436
 2663SOL    HW1 9886  13.595  14.368  11.458
 2663SOL    HW2 9887  13.672  14.297  11.350
 2664SOL     OW 9888   5.485   2.649   9.950
 2664SOL    HW1 9889   5.511   2.558   9.964
 2664SOL    HW2 9890   5.390   2.644   9.936
 2665SOL     OW 9891  14.059   0.973   9.409
 2665SOL    HW1 9892  14.012   1.057   9.411
 2665SOL    HW2 9893  14.051   0.944   9.318
 2666SOL     OW 9894   5.725   9.403  12.431
 2666SOL    HW1 9895   5.715   9.359  12.516
 2666SOL    HW2 9896   5.799   9.359  12.390
 2667SOL     OW 9897   2.466   9.247   2.197
 2667SOL    HW1 9898   2.523   9.300   2.252
 2667SOL    HW2 9899   2.449   9.169   2.248
 2668SOL     OW 9900  10.547   4.103  12.823
 2668SOL    HW1 9901  10.641   4.099  12.808
 2668SOL    HW2 9902  10.517   4.013  12.815
 2669SOL     OW 9903   1.602   3.228   7.544
 2669SOL    HW1 9904   1.606   3.286   7.620
 2669SOL    HW2 9905   1.568   3.284   7.473
 2670SOL     OW 9906  10.522  11.768   0.006
 2670SOL    HW1 9907  10.511  11.752  14.794
 2670SOL    HW2 9908  10.437  11.744   0.044
 2671SOL     OW 9909  11.831  10.580  10.677
 2671SOL    HW1 9910  11.817  10.631  10.598
 2671SOL    HW2 9911  11.762  10.514  10.675
 2672SOL     OW 9912   0.497   0.487   3.916
 2672SOL    HW1 9913   0.447   0.524   3.843
 2672SOL    HW2 9914   0.521   0.399   3.887
 2673SOL     OW 9915  11.019  10.786   9.709
 2673SOL    HW1 9916  10.937  10.833   9.693
 2673SOL    HW2 9917  10.991  10.696   9.725
 2674SOL     OW 9918  11.705   6.018   4.238
 2674SOL    HW1 9919  11.692   6.066   4.156
 2674SOL    HW2 9920  11.646   6.062   4.300
 2675SOL     OW 9921  10.651   9.112  11.772
 2675SOL    HW1 9922  10.647   9.022  11.741
 2675SOL    HW2 9923  10.622   9.107  11.863
 2676SOL     OW 9924   3.289   9.130  11.137
 2676SOL    HW1 9925   3.285   9.062  11.205
 2676SOL    HW2 9926   3.383   9.141  11.121
 2677SOL     OW 9927   7.155  10.639  13.634
 2677SOL    HW1 9928   7.114  10.570  13.686
 2677SOL    HW2 9929   7.205  10.690  13.696
 2678SOL     OW 9930   0.980   9.791   3.058
 2678SOL    HW1 9931   0.995   9.703   3.092
 2678SOL    HW2 9932   0.899   9.819   3.101
 2679SOL     OW 9933   7.415   9.561  11.093
 2679SOL    HW1 9934   7.501   9.533  11.124
 2679SOL    HW2 9935   7.357   9.546  11.168
 2680SOL     OW 9936   4.300   4.769   4.985
 2680SOL    HW1 9937   4.348   4.688   4.965
 2680SOL    HW2 9938   4.360   4.818   5.041
 2681SOL     OW 9939   0.570  11.279   6.006
 2681SOL    HW1 9940   0.609  11.350   5.955
 2681SOL    HW2 9941   0.477  11.280   5.982
 2682SOL     OW 9942   2.910   1.610   1.105
 2682SOL    HW1 9943   2.984   1.550   1.093
 2682SOL    HW2 9944   2.951   1.693   1.129
 2683SOL     OW 9945   3.717   6.598   2.884
 2683SOL    HW1 9946   3.696   6.663   2.951
 2683SOL    HW2 9947   3.639   6.543   2.879
 2684SOL     OW 9948   2.380  11.747  12.780
 2684SOL    HW1 9949   2.335  11.713  12.702
 2684SOL    HW2 9950   2.388  11.671  12.838
 2685SOL     OW 9951  12.717  10.322  11.066
 2685SOL    HW1 9952  12.807  10.347  11.050
 2685SOL    HW2 9953  12.686  10.285  10.983
 2686SOL     OW 9954   2.339  11.575   2.051
 2686SOL    HW1 9955   2.428  11.607   2.066
 2686SOL    HW2 9956   2.351  11.496   1.997
 2687SOL     OW 9957  12.734   5.825   7.844
 2687SOL    HW1 9958  12.758   5.736   7.870
 2687SOL    HW2 9959  12.656   5.844   7.896
 2688SOL     OW 9960   1.146   9.483   9.322
 2688SOL    HW1 9961   1.199   9.412   9.285
 2688SOL    HW2 9962   1.080   9.500   9.254
 2689SOL     OW 9963   4.930   3.607   1.204
 2689SOL    HW1 9964   4.972   3.538   1.152
 2689SOL    HW2 9965   4.837   3.590   1.197
 2690SOL     OW 9966  10.188  12.041   4.808
 2690SOL    HW1 9967  10.222  12.040   4.898
 2690SOL    HW2 9968  10.264  12.062   4.754
 2691SOL     OW 9969   0.922   8.356  10.798
 2691SOL    HW1 9970   0.894   8.278  10.749
 2691SOL    HW2 9971   0.875   8.351  10.881
 2692SOL     OW 9972  12.632   5.510   9.238
 2692SOL    HW1 9973  12.560   5.557   9.280
 2692SOL    HW2 9974  12.634   5.543   9.149
 2693SOL     OW 9975   3.812  13.327   3.817
 2693SOL    HW1 9976   3.722  13.359   3.818
 2693SOL    HW2 9977   3.818  13.268   3.892
 2694SOL     OW 9978   9.500   5.739  14.434
 2694SOL    HW1 9979   9.416   5.736  14.387
 2694SOL    HW2 9980   9.541   5.820  14.405
 2695SOL     OW 9981  11.564   4.597  10.789
 2695SOL    HW1 9982  11.637   4.629  10.736
 2695SOL    HW2 9983  11.581   4.631  10.877
 2696SOL     OW 9984   2.138   7.244  10.162
 2696SOL    HW1 9985   2.229   7.264  10.142
 2696SOL    HW2 9986   2.089   7.273  10.085
 2697SOL     OW 9987   8.295   7.711   3.103
 2697SOL    HW1 9988   8.224   7.709   3.039
 2697SOL    HW2 9989   8.252   7.726   3.187
 2698SOL     OW 9990  10.689   3.853   7.994
 2698SOL    HW1 9991  10.736   3.770   8.000
 2698SOL    HW2 9992  10.643   3.860   8.078
 2699SOL     OW 9993  10.292   6.494   4.050
 2699SOL    HW1 9994  10.263   6.501   4.141
 2699SOL    HW2 9995  10.366   6.433   4.052
 2700SOL     OW 9996  11.369   9.442   9.963
 2700SOL    HW1 9997  11.321   9.396   9.893
 2700SOL    HW2 9998  11.454   9.399   9.966
 2701SOL     OW 9999  12.961   5.338   7.890
 2701SOL    HW110000  13.017   5.412   7.911
 2701SOL    HW210001  12.983   5.271   7.955
 2702SOL     OW10002  13.394   1.944   3.229
 2702SOL    HW110003  13.436   1.930   3.313
 2702SOL    HW210004  13.458   1.993   3.177
 2703SOL     OW10005  11.202   0.274   3.270
 2703SOL    HW110006  11.155   0.320   3.339
 2703SOL    HW210007  11.226   0.190   3.309
 2704SOL     OW10008   5.773  10.750   0.512
 2704SOL    HW110009   5.731  10.816   0.567
 2704SOL    HW210010   5.700  10.703   0.470
 2705SOL     OW10011   2.728   2.455   1.519
 2705SOL    HW110012   2.766   2.406   1.446
 2705SOL    HW210013   2.687   2.531   1.478
 2706SOL     OW10014   1.927   8.227   3.475
 2706SOL    HW110015   1.991   8.285   3.518
 2706SOL    HW210016   1.891   8.279   3.404
 2707SOL     OW10017   6.796   4.487   8.229
 2707SOL    HW110018   6.712   4.483   8.182
 2707SOL    HW210019   6.780   4.437   8.309
 2708SOL     OW10020   5.178   6.013  14.642
 2708SOL    HW110021   5.220   6.077  14.700
 2708SOL    HW210022   5.085   6.033  14.649
 2709SOL     OW10023  12.512   1.530  10.138
 2709SOL    HW110024  12.560   1.482  10.205
 2709SOL    HW210025  12.455   1.590  10.186
 2710SOL     OW10026  13.488   8.295  11.686
 2710SOL    HW110027  13.447   8.329  11.765
 2710SOL    HW210028  13.556   8.360  11.664
 2711SOL     OW10029  10.883   9.328  13.570
 2711SOL    HW110030  10.966   9.368  13.546
 2711SOL    HW210031  10.856   9.279  13.493
 2712SOL     OW10032   0.628   1.672   5.684
 2712SOL    HW110033   0.699   1.609   5.672
 2712SOL    HW210034   0.609   1.706   5.597
 2713SOL     OW10035  14.554   0.297   3.489
 2713SOL    HW110036  14.592   0.210   3.477
 2713SOL    HW210037  14.610   0.354   3.437
 2714SOL     OW10038   9.952   7.152   9.155
 2714SOL    HW110039   9.979   7.242   9.176
 2714SOL    HW210040  10.001   7.098   9.217
 2715SOL     OW10041  11.877   9.132   5.909
 2715SOL    HW110042  11.842   9.072   5.843
 2715SOL    HW210043  11.811   9.202   5.915
 2716SOL     OW10044   2.061  14.204   2.729
 2716SOL    HW110045   2.032  14.281   2.776
 2716SOL    HW210046   1.984  14.147   2.725
 2717SOL     OW10047   3.102  12.532   7.878
 2717SOL    HW110048   3.033  12.467   7.869
 2717SOL    HW210049   3.110  12.572   7.791
 2718SOL     OW10050  12.668  11.659  10.534
 2718SOL    HW110051  12.700  11.740  10.573
 2718SOL    HW210052  12.711  11.590  10.584
 2719SOL     OW10053   7.746  12.877   5.632
 2719SOL    HW110054   7.750  12.825   5.552
 2719SOL    HW210055   7.837  12.905   5.646
 2720SOL     OW10056   8.271   4.864   6.540
 2720SOL    HW110057   8.200   4.845   6.479
 2720SOL    HW210058   8.227   4.874   6.625
 2721SOL     OW10059   0.944   1.696   7.097
 2721SOL    HW110060   0.871   1.641   7.122
 2721SOL    HW210061   0.908   1.785   7.094
 2722SOL     OW10062  10.361  11.515   2.858
 2722SOL    HW110063  10.400  11.458   2.923
 2722SOL    HW210064  10.436  11.556   2.814
 2723SOL     OW10065   1.417   3.072   9.680
 2723SOL    HW110066   1.358   3.121   9.621
 2723SOL    HW210067   1.417   2.983   9.645
 2724SOL     OW10068   8.240   3.666   4.802
 2724SOL    HW110069   8.271   3.658   4.892
 2724SOL    HW210070   8.316   3.696   4.753
 2725SOL     OW10071   5.523   9.306  12.084
 2725SOL    HW110072   5.548   9.213  12.083
 2725SOL    HW210073   5.595   9.350  12.039
 2726SOL     OW10074   7.513   5.685  14.472
 2726SOL    HW110075   7.605   5.660  14.465
 2726SOL    HW210076   7.487   5.706  14.382
 2727SOL     OW10077  11.757   8.581   0.706
 2727SOL    HW110078  11.669   8.599   0.740
 2727SOL    HW210079  11.742   8.526   0.629
 2728SOL     OW10080   4.329   2.422   7.683
 2728SOL    HW110081   4.275   2.424   7.762
 2728SOL    HW210082   4.323   2.511   7.647
 2729SOL     OW10083   1.208   0.749   9.421
 2729SOL    HW110084   1.277   0.815   9.437
 2729SOL    HW210085   1.127   0.800   9.418
 2730SOL     OW10086   6.190  14.560   7.167
 2730SOL    HW110087   6.192  14.465   7.158
 2730SOL    HW210088   6.097  14.581   7.177
 2731SOL     OW10089   0.285   0.964  11.928
 2731SOL    HW110090   0.285   1.056  11.904
 2731SOL    HW210091   0.203   0.929  11.894
 2732SOL     OW10092   1.206  12.996   9.099
 2732SOL    HW110093   1.238  12.912   9.064
 2732SOL    HW210094   1.111  12.992   9.088
 2733SOL     OW10095   2.548   0.749   8.809
 2733SOL    HW110096   2.458   0.764   8.838
 2733SOL    HW210097   2.590   0.706   8.883
 2734SOL     OW10098   4.815  11.691   9.221
 2734SOL    HW110099   4.815  11.597   9.201
 2734SOL    HW210100   4.819  11.696   9.316
 2735SOL     OW10101  13.320   4.336   2.014
 2735SOL    HW110102  13.363   4.258   1.979
 2735SOL    HW210103  13.354   4.408   1.961
 2736SOL     OW10104   3.993   7.781  11.330
 2736SOL    HW110105   3.928   7.769  11.399
 2736SOL    HW210106   3.998   7.696  11.286
 2737SOL     OW10107  11.952   3.959   0.190
 2737SOL    HW110108  11.967   3.996   0.277
 2737SOL    HW210109  11.910   3.874   0.207
 2738SOL     OW10110   0.646  10.474   1.643
 2738SOL    HW110111   0.688  10.391   1.665
 2738SOL    HW210112   0.561  10.470   1.687
 2739SOL     OW10113  12.487  10.938   7.231
 2739SOL    HW110114  12.522  10.870   7.174
 2739SOL    HW210115  12.549  11.010   7.225
 2740SOL     OW10116   9.539   8.568   4.037
 2740SOL    HW110117   9.625   8.593   4.003
 2740SOL    HW210118   9.532   8.615   4.120
 2741SOL     OW10119  11.926   4.577   3.900
 2741SOL    HW110120  12.003   4.521   3.912
 2741SOL    HW210121  11.855   4.517   3.879
 2742SOL     OW10122  12.056  14.424   3.991
 2742SOL    HW110123  12.151  14.423   3.998
 2742SOL    HW210124  12.038  14.407   3.898
 2743SOL     OW10125   8.428   2.956  10.705
 2743SOL    HW110126   8.457   3.041  10.739
 2743SOL    HW210127   8.499   2.896  10.725
 2744SOL     OW10128   7.803   7.659  14.809
 2744SOL    HW110129   7.785   7.635  14.718
 2744SOL    HW210130   7.896   7.683  14.810
 2745SOL     OW10131   4.966   1.311   8.240
 2745SOL    HW110132   4.955   1.353   8.325
 2745SOL    HW210133   5.008   1.378   8.185
 2746SOL     OW10134   8.444  12.019   0.735
 2746SOL    HW110135   8.389  12.095   0.716
 2746SOL    HW210136   8.473  11.989   0.649
 2747SOL     OW10137   7.579   7.072   8.049
 2747SOL    HW110138   7.599   7.077   8.142
 2747SOL    HW210139   7.578   7.163   8.020
 2748SOL     OW10140   9.333   8.587   2.769
 2748SOL    HW110141   9.313   8.573   2.677
 2748SOL    HW210142   9.248   8.591   2.812
 2749SOL     OW10143   6.374   5.522  14.112
 2749SOL    HW110144   6.293   5.546  14.067
 2749SOL    HW210145   6.386   5.429  14.091
 2750SOL     OW10146   1.082   6.328   1.030
 2750SOL    HW110147   1.044   6.241   1.028
 2750SOL    HW210148   1.025   6.380   0.973
 2751SOL     OW10149  12.255   2.981   0.234
 2751SOL    HW110150  12.284   3.001   0.145
 2751SOL    HW210151  12.237   2.887   0.233
 2752SOL     OW10152   8.934   5.252   2.849
 2752SOL    HW110153   8.924   5.158   2.865
 2752SOL    HW210154   8.895   5.294   2.926
 2753SOL     OW10155   6.750   4.008   0.932
 2753SOL    HW110156   6.660   4.038   0.921
 2753SOL    HW210157   6.778   3.985   0.843
 2754SOL     OW10158   0.336   8.302   5.083
 2754SOL    HW110159   0.334   8.228   5.022
 2754SOL    HW210160   0.266   8.284   5.145
 2755SOL     OW10161  12.689   1.762  13.456
 2755SOL    HW110162  12.772   1.784  13.414
 2755SOL    HW210163  12.629   1.746  13.383
 2756SOL     OW10164  11.573   3.479   9.750
 2756SOL    HW110165  11.618   3.540   9.808
 2756SOL    HW210166  11.643   3.427   9.711
 2757SOL     OW10167   6.283   5.684  12.347
 2757SOL    HW110168   6.305   5.775  12.328
 2757SOL    HW210169   6.218   5.689  12.418
 2758SOL     OW10170  13.979  13.208  12.348
 2758SOL    HW110171  13.942  13.130  12.308
 2758SOL    HW210172  13.931  13.218  12.430
 2759SOL     OW10173   2.111   6.385   8.768
 2759SOL    HW110174   2.135   6.312   8.826
 2759SOL    HW210175   2.066   6.447   8.825
 2760SOL     OW10176   5.889   6.463   1.659
 2760SOL    HW110177   5.950   6.520   1.706
 2760SOL    HW210178   5.803   6.485   1.696
 2761SOL     OW10179  12.767   7.940   8.118
 2761SOL    HW110180  12.714   8.015   8.146
 2761SOL    HW210181  12.791   7.897   8.200
 2762SOL     OW10182   9.052   2.738  12.257
 2762SOL    HW110183   8.967   2.768  12.223
 2762SOL    HW210184   9.099   2.706  12.180
 2763SOL     OW10185   5.980   2.244   4.953
 2763SOL    HW110186   5.936   2.325   4.930
 2763SOL    HW210187   5.914   2.194   5.001
 2764SOL     OW10188  13.997   4.644   5.320
 2764SOL    HW110189  13.951   4.669   5.240
 2764SOL    HW210190  14.047   4.566   5.297
 2765SOL     OW10191   0.821   9.070  11.884
 2765SOL    HW110192   0.881   9.090  11.811
 2765SOL    HW210193   0.771   8.994  11.853
 2766SOL     OW10194   3.031   4.366   8.737
 2766SOL    HW110195   3.052   4.345   8.646
 2766SOL    HW210196   3.106   4.417   8.768
 2767SOL     OW10197  14.605  11.357   0.955
 2767SOL    HW110198  14.518  11.396   0.940
 2767SOL    HW210199  14.589  11.288   1.019
 2768SOL     OW10200   2.260   7.910   1.006
 2768SOL    HW110201   2.299   7.993   0.978
 2768SOL    HW210202   2.314   7.882   1.080
 2769SOL     OW10203  14.637   5.362  13.187
 2769SOL    HW110204  14.642   5.304  13.264
 2769SOL    HW210205  14.576   5.431  13.213
 2770SOL     OW10206  13.316   6.851   5.400
 2770SOL    HW110207  13.383   6.858   5.467
 2770SOL    HW210208  13.358   6.805   5.327
 2771SOL     OW10209  11.612   8.589   6.532
 2771SOL    HW110210  11.569   8.651   6.473
 2771SOL    HW210211  11.671   8.538   6.476
 2772SOL     OW10212  10.490   7.595  12.019
 2772SOL    HW110213  10.439   7.549  11.953
 2772SOL    HW210214  10.447   7.573  12.102
 2773SOL     OW10215  12.093   2.124   2.024
 2773SOL    HW110216  12.176   2.117   1.977
 2773SOL    HW210217  12.082   2.040   2.068
 2774SOL     OW10218  14.118   5.376   2.815
 2774SOL    HW110219  14.028   5.369   2.849
 2774SOL    HW210220  14.130   5.470   2.801
 2775SOL     OW10221   4.115   4.333  10.471
 2775SOL    HW110222   4.127   4.291  10.556
 2775SOL    HW210223   4.053   4.276  10.425
 2776SOL     OW10224   7.024   8.161   5.220
 2776SOL    HW110225   7.027   8.241   5.168
 2776SOL    HW210226   6.950   8.111   5.184
 2777SOL     OW10227   9.562   0.864   3.248
 2777SOL    HW110228   9.537   0.935   3.189
 2777SOL    HW210229   9.514   0.883   3.329
 2778SOL     OW10230   7.734  10.404   8.082
 2778SOL    HW110231   7.661  10.445   8.034
 2778SOL    HW210232   7.745  10.318   8.040
 2779SOL     OW10233   1.889   3.227  12.678
 2779SOL    HW110234   1.931   3.306  12.643
 2779SOL    HW210235   1.796   3.250  12.685
 2780SOL     OW10236   4.531   5.806   5.102
 2780SOL    HW110237   4.591   5.769   5.036
 2780SOL    HW210238   4.466   5.854   5.051
 2781SOL     OW10239   9.212  10.274   7.967
 2781SOL    HW110240   9.243  10.217   8.038
 2781SOL    HW210241   9.199  10.215   7.893
 2782SOL     OW10242  12.379   8.873   8.187
 2782SOL    HW110243  12.473   8.886   8.178
 2782SOL    HW210244  12.357   8.810   8.119
 2783SOL     OW10245   2.353   3.926  14.326
 2783SOL    HW110246   2.362   3.855  14.262
 2783SOL    HW210247   2.290   3.893  14.390
 2784SOL     OW10248   2.655   1.102   3.408
 2784SOL    HW110249   2.719   1.169   3.433
 2784SOL    HW210250   2.607   1.083   3.489
 2785SOL     OW10251   6.584  14.342   1.793
 2785SOL    HW110252   6.673  14.351   1.827
 2785SOL    HW210253   6.592  14.277   1.723
 2786SOL     OW10254  13.233   5.959   7.466
 2786SOL    HW110255  13.212   6.034   7.411
 2786SOL    HW210256  13.322   5.935   7.440
 2787SOL     OW10257  10.306   4.324  10.510
 2787SOL    HW110258  10.334   4.247  10.460
 2787SOL    HW210259  10.275   4.385  10.443
 2788SOL     OW10260   9.402   4.408   5.946
 2788SOL    HW110261   9.382   4.347   6.017
 2788SOL    HW210262   9.325   4.464   5.941
 2789SOL     OW10263   9.495   0.943   7.034
 2789SOL    HW110264   9.585   0.941   7.000
 2789SOL    HW210265   9.505   0.974   7.124
 2790SOL     OW10266  14.250   3.696  13.282
 2790SOL    HW110267  14.181   3.642  13.321
 2790SOL    HW210268  14.255   3.667  13.191
 2791SOL     OW10269   5.285   2.160   8.031
 2791SOL    HW110270   5.239   2.082   8.001
 2791SOL    HW210271   5.230   2.195   8.101
 2792SOL     OW10272  14.803   3.834   1.091
 2792SOL    HW110273  14.881   3.784   1.070
 2792SOL    HW210274  14.747   3.773   1.139
 2793SOL     OW10275   8.458   9.851  14.382
 2793SOL    HW110276   8.462   9.920  14.316
 2793SOL    HW210277   8.367   9.849  14.409
 2794SOL     OW10278   9.456   9.979  13.607
 2794SOL    HW110279   9.487  10.002  13.520
 2794SOL    HW210280   9.373   9.933  13.592
 2795SOL     OW10281  14.381   1.622   7.030
 2795SOL    HW110282  14.471   1.599   7.006
 2795SOL    HW210283  14.334   1.622   6.947
 2796SOL     OW10284   8.653   3.932  14.801
 2796SOL    HW110285   8.669   3.964   0.008
 2796SOL    HW210286   8.558   3.930  14.793
 2797SOL     OW10287  13.875  11.676  10.432
 2797SOL    HW110288  13.844  11.653  10.344
 2797SOL    HW210289  13.819  11.748  10.459
 2798SOL     OW10290   8.160  13.775   1.532
 2798SOL    HW110291   8.190  13.790   1.442
 2798SOL    HW210292   8.148  13.680   1.538
 2799SOL     OW10293   8.142   2.081  13.399
 2799SOL    HW110294   8.219   2.061  13.454
 2799SOL    HW210295   8.179   2.113  13.317
 2800SOL     OW10296   0.745   7.067  10.171
 2800SOL    HW110297   0.830   7.063  10.127
 2800SOL    HW210298   0.738   7.158  10.202
 2801SOL     OW10299   8.756  11.792   1.225
 2801SOL    HW110300   8.813  11.818   1.152
 2801SOL    HW210301   8.815  11.786   1.300
 2802SOL     OW10302  14.112  13.060   8.692
 2802SOL    HW110303  14.140  13.117   8.763
 2802SOL    HW210304  14.188  13.052   8.635
 2803SOL     OW10305   3.622   1.144   3.113
 2803SOL    HW110306   3.645   1.062   3.156
 2803SOL    HW210307   3.641   1.129   3.020
 2804SOL     OW10308   4.618   8.293   3.465
 2804SOL    HW110309   4.528   8.315   3.441
 2804SOL    HW210310   4.610   8.211   3.515
 2805SOL     OW10311  10.661   4.196   0.367
 2805SOL    HW110312  10.742   4.163   0.329
 2805SOL    HW210313  10.594   4.176   0.301
 2806SOL     OW10314  14.159   1.527   5.815
 2806SOL    HW110315  14.147   1.499   5.724
 2806SOL    HW210316  14.084   1.584   5.833
 2807SOL     OW10317   6.596   5.819  13.918
 2807SOL    HW110318   6.583   5.767  13.839
 2807SOL    HW210319   6.677   5.785  13.956
 2808SOL     OW10320   3.703   4.115   8.627
 2808SOL    HW110321   3.753   4.140   8.549
 2808SOL    HW210322   3.636   4.055   8.593
 2809SOL     OW10323   7.622  10.174   6.584
 2809SOL    HW110324   7.553  10.220   6.632
 2809SOL    HW210325   7.625  10.218   6.499
 2810SOL     OW10326  13.215   8.320   7.775
 2810SOL    HW110327  13.153   8.337   7.705
 2810SOL    HW210328  13.201   8.228   7.797
 2811SOL     OW10329  10.823  14.447   8.429
 2811SOL    HW110330  10.775  14.492   8.499
 2811SOL    HW210331  10.911  14.436   8.464
 2812SOL     OW10332  12.717   9.961   7.248
 2812SOL    HW110333  12.744   9.902   7.178
 2812SOL    HW210334  12.792  10.020   7.260
 2813SOL     OW10335  12.260  14.505  12.571
 2813SOL    HW110336  12.320  14.574  12.597
 2813SOL    HW210337  12.272  14.437  12.637
 2814SOL     OW10338   4.091   1.845   6.939
 2814SOL    HW110339   4.007   1.889   6.923
 2814SOL    HW210340   4.123   1.822   6.851
 2815SOL     OW10341   3.482  13.370  11.851
 2815SOL    HW110342   3.477  13.463  11.872
 2815SOL    HW210343   3.421  13.328  11.912
 2816SOL     OW10344  13.125   1.749   5.928
 2816SOL    HW110345  13.120   1.844   5.941
 2816SOL    HW210346  13.054   1.730   5.866
 2817SOL     OW10347   7.028  12.941  10.484
 2817SOL    HW110348   7.111  12.928  10.438
 2817SOL    HW210349   7.052  12.940  10.577
 2818SOL     OW10350   2.353   0.214   7.764
 2818SOL    HW110351   2.381   0.206   7.673
 2818SOL    HW210352   2.369   0.305   7.786
 2819SOL     OW10353   1.932   7.287  13.093
 2819SOL    HW110354   1.849   7.278  13.139
 2819SOL    HW210355   1.983   7.348  13.146
 2820SOL     OW10356   2.307  12.723   8.627
 2820SOL    HW110357   2.229  12.669   8.631
 2820SOL    HW210358   2.365  12.686   8.694
 2821SOL     OW10359  14.221  13.577  14.672
 2821SOL    HW110360  14.255  13.667  14.676
 2821SOL    HW210361  14.291  13.524  14.710
 2822SOL     OW10362   3.167   0.094  12.585
 2822SOL    HW110363   3.184   0.039  12.508
 2822SOL    HW210364   3.087   0.142  12.562
 2823SOL     OW10365   0.886  13.377   1.528
 2823SOL    HW110366   0.824  13.366   1.600
 2823SOL    HW210367   0.880  13.295   1.479
 2824SOL     OW10368   6.806   4.413  13.886
 2824SOL    HW110369   6.724   4.446  13.922
 2824SOL    HW210370   6.782   4.330  13.843
 2825SOL     OW10371  13.092  11.052  10.878
 2825SOL    HW110372  13.041  11.037  10.798
 2825SOL    HW210373  13.111  11.146  10.876
 2826SOL     OW10374   8.234   7.768   6.148
 2826SOL    HW110375   8.253   7.824   6.073
 2826SOL    HW210376   8.320   7.738   6.178
 2827SOL     OW10377  11.879   6.492  10.346
 2827SOL    HW110378  11.970   6.472  10.365
 2827SOL    HW210379  11.839   6.506  10.433
 2828SOL     OW10380  10.456  13.782   4.473
 2828SOL    HW110381  10.392  13.853   4.476
 2828SOL    HW210382  10.496  13.782   4.560
 2829SOL     OW10383   8.004   7.705   8.913
 2829SOL    HW110384   7.945   7.671   8.980
 2829SOL    HW210385   8.037   7.787   8.949
 2830SOL     OW10386   8.878   2.102  13.446
 2830SOL    HW110387   8.938   2.056  13.388
 2830SOL    HW210388   8.846   2.176  13.394
 2831SOL     OW10389   5.955  11.105   8.219
 2831SOL    HW110390   6.044  11.133   8.201
 2831SOL    HW210391   5.950  11.016   8.184
 2832SOL     OW10392   0.371   9.242  13.054
 2832SOL    HW110393   0.306   9.310  13.072
 2832SOL    HW210394   0.440   9.287  13.004
 2833SOL     OW10395  10.948   2.101   0.108
 2833SOL    HW110396  10.915   2.184   0.140
 2833SOL    HW210397  10.980   2.120   0.019
 2834SOL     OW10398  13.831  10.711  11.489
 2834SOL    HW110399  13.789  10.625  11.481
 2834SOL    HW210400  13.914  10.694  11.532
 2835SOL     OW10401  14.685  13.068   5.099
 2835SOL    HW110402  14.647  12.983   5.122
 2835SOL    HW210403  14.634  13.132   5.148
 2836SOL     OW10404  10.345   7.903   9.110
 2836SOL    HW110405  10.344   7.914   9.205
 2836SOL    HW210406  10.268   7.851   9.090
 2837SOL     OW10407   7.415  10.567  10.849
 2837SOL    HW110408   7.466  10.575  10.929
 2837SOL    HW210409   7.380  10.655  10.833
 2838SOL     OW10410   1.750   1.726   8.795
 2838SOL    HW110411   1.663   1.721   8.755
 2838SOL    HW210412   1.809   1.745   8.722
 2839SOL     OW10413   9.207  11.672  10.395
 2839SOL    HW110414   9.128  11.647  10.347
 2839SOL    HW210415   9.204  11.768  10.399
 2840SOL     OW10416  12.119   5.961  12.064
 2840SOL    HW110417  12.032   5.978  12.027
 2840SOL    HW210418  12.106   5.887  12.122
 2841SOL     OW10419   1.588  11.719   5.618
 2841SOL    HW110420   1.607  11.671   5.699
 2841SOL    HW210421   1.517  11.669   5.577
 2842SOL     OW10422  14.268  14.835   1.114
 2842SOL    HW110423  14.281  14.741   1.114
 2842SOL    HW210424  14.263  14.859   1.021
 2843SOL     OW10425   0.513  12.162  10.928
 2843SOL    HW110426   0.527  12.175  11.022
 2843SOL    HW210427   0.520  12.249  10.890
 2844SOL     OW10428   3.344   1.329  13.521
 2844SOL    HW110429   3.361   1.277  13.600
 2844SOL    HW210430   3.431   1.343  13.483
 2845SOL     OW10431   5.959  10.594   0.096
 2845SOL    HW110432   5.999  10.668   0.142
 2845SOL    HW210433   6.024  10.524   0.101
 2846SOL     OW10434   1.376  10.203   9.332
 2846SOL    HW110435   1.467  10.215   9.360
 2846SOL    HW210436   1.336  10.154   9.403
 2847SOL     OW10437   0.188   0.822   6.197
 2847SOL    HW110438   0.255   0.777   6.145
 2847SOL    HW210439   0.149   0.753   6.250
 2848SOL     OW10440   8.367  10.151   8.196
 2848SOL    HW110441   8.410  10.225   8.240
 2848SOL    HW210442   8.389  10.162   8.104
 2849SOL     OW10443   1.556   0.601  11.268
 2849SOL    HW110444   1.624   0.645  11.217
 2849SOL    HW210445   1.474   0.644  11.241
 2850SOL     OW10446   9.508  11.207   8.592
 2850SOL    HW110447   9.563  11.196   8.514
 2850SOL    HW210448   9.453  11.283   8.572
 2851SOL     OW10449   0.771   9.336   8.375
 2851SOL    HW110450   0.748   9.256   8.328
 2851SOL    HW210451   0.703   9.346   8.442
 2852SOL     OW10452   9.108   4.717   8.488
 2852SOL    HW110453   9.186   4.712   8.544
 2852SOL    HW210454   9.062   4.635   8.504
 2853SOL     OW10455  11.912   7.793   0.622
 2853SOL    HW110456  11.905   7.705   0.659
 2853SOL    HW210457  11.896   7.782   0.529
 2854SOL     OW10458   5.405   6.989  13.123
 2854SOL    HW110459   5.488   7.005  13.080
 2854SOL    HW210460   5.407   7.044  13.201
 2855SOL     OW10461  13.516   0.289   1.133
 2855SOL    HW110462  13.578   0.263   1.202
 2855SOL    HW210463  13.430   0.266   1.168
 2856SOL     OW10464   2.669   1.734  13.659
 2856SOL    HW110465   2.704   1.646  13.646
 2856SOL    HW210466   2.631   1.731  13.747
 2857SOL     OW10467  11.749  10.698   7.760
 2857SOL    HW110468  11.776  10.639   7.830
 2857SOL    HW210469  11.771  10.785   7.791
 2858SOL     OW10470   1.865   5.506  13.597
 2858SOL    HW110471   1.773   5.507  13.624
 2858SOL    HW210472   1.912   5.478  13.676
 2859SOL     OW10473   3.072  13.684  10.804
 2859SOL    HW110474   3.011  13.758  10.797
 2859SOL    HW210475   3.083  13.653  10.714
 2860SOL     OW10476   8.490   2.570   9.938
 2860SOL    HW110477   8.570   2.581   9.989
 2860SOL    HW210478   8.419   2.586  10.001
 2861SOL     OW10479  11.087  11.560   2.340
 2861SOL    HW110480  11.165  11.505   2.332
 2861SOL    HW210481  11.120  11.650   2.332
 2862SOL     OW10482   3.692  12.330   9.062
 2862SOL    HW110483   3.700  12.308   8.969
 2862SOL    HW210484   3.605  12.298   9.087
 2863SOL     OW10485  11.496  13.416   5.951
 2863SOL    HW110486  11.482  13.468   6.030
 2863SOL    HW210487  11.591  13.411   5.942
 2864SOL     OW10488  14.557   4.320   8.229
 2864SOL    HW110489  14.537   4.283   8.315
 2864SOL    HW210490  14.652   4.314   8.221
 2865SOL     OW10491  14.418   0.143  14.201
 2865SOL    HW110492  14.390   0.195  14.276
 2865SOL    HW210493  14.513   0.155  14.198
 2866SOL     OW10494   5.248   1.720   1.722
 2866SOL    HW110495   5.258   1.634   1.680
 2866SOL    HW210496   5.245   1.700   1.816
 2867SOL     OW10497   6.186  13.762  14.745
 2867SOL    HW110498   6.119  13.785  14.809
 2867SOL    HW210499   6.168  13.819  14.670
 2868SOL     OW10500  11.877   6.670   1.176
 2868SOL    HW110501  11.901   6.689   1.267
 2868SOL    HW210502  11.871   6.757   1.135
 2869SOL     OW10503   8.201  10.159   1.242
 2869SOL    HW110504   8.186  10.248   1.273
 2869SOL    HW210505   8.272  10.167   1.178
 2870SOL     OW10506  12.393   9.214   7.134
 2870SOL    HW110507  12.471   9.159   7.141
 2870SOL    HW210508  12.414   9.293   7.183
 2871SOL     OW10509  11.297   1.610   5.833
 2871SOL    HW110510  11.256   1.695   5.850
 2871SOL    HW210511  11.228   1.546   5.850
 2872SOL     OW10512  13.654   9.945   2.375
 2872SOL    HW110513  13.675  10.038   2.368
 2872SOL    HW210514  13.686   9.919   2.461
 2873SOL     OW10515   6.390  12.868   3.642
 2873SOL    HW110516   6.472  12.819   3.642
 2873SOL    HW210517   6.415  12.957   3.619
 2874SOL     OW10518   5.916  11.226   5.866
 2874SOL    HW110519   5.898  11.296   5.804
 2874SOL    HW210520   5.835  11.176   5.871
 2875SOL     OW10521  14.420   2.819  12.203
 2875SOL    HW110522  14.500   2.767  12.195
 2875SOL    HW210523  14.448   2.898  12.249
 2876SOL     OW10524  10.362   2.263   4.803
 2876SOL    HW110525  10.311   2.318   4.743
 2876SOL    HW210526  10.309   2.183   4.812
 2877SOL     OW10527   7.890   3.662   0.392
 2877SOL    HW110528   7.977   3.681   0.427
 2877SOL    HW210529   7.905   3.597   0.324
 2878SOL     OW10530   7.038  10.164  11.914
 2878SOL    HW110531   7.038  10.247  11.960
 2878SOL    HW210532   7.129  10.133  11.920
 2879SOL     OW10533   9.285  12.574  11.218
 2879SOL    HW110534   9.356  12.555  11.156
 2879SOL    HW210535   9.246  12.655  11.186
 2880SOL     OW10536  13.457   7.438  10.805
 2880SOL    HW110537  13.544   7.469  10.829
 2880SOL    HW210538  13.398   7.481  10.867
 2881SOL     OW10539   3.623   9.681  12.155
 2881SOL    HW110540   3.544   9.695  12.102
 2881SOL    HW210541   3.600   9.717  12.241
 2882SOL     OW10542  10.246   8.447   4.351
 2882SOL    HW110543  10.336   8.414   4.340
 2882SOL    HW210544  10.257   8.529   4.400
 2883SOL     OW10545   3.681  11.591  12.837
 2883SOL    HW110546   3.629  11.670  12.850
 2883SOL    HW210547   3.771  11.624  12.827
 2884SOL     OW10548   4.532  12.949   3.991
 2884SOL    HW110549   4.605  12.890   4.004
 2884SOL    HW210550   4.460  12.893   3.961
 2885SOL     OW10551  11.557   7.426   0.739
 2885SOL    HW110552  11.578   7.519   0.728
 2885SOL    HW210553  11.541   7.416   0.832
 2886SOL     OW10554   0.835   1.932   9.310
 2886SOL    HW110555   0.825   2.005   9.371
 2886SOL    HW210556   0.927   1.934   9.285
 2887SOL     OW10557  12.630   7.727  12.221
 2887SOL    HW110558  12.645   7.789  12.292
 2887SOL    HW210559  12.619   7.781  12.143
 2888SOL     OW10560   9.796   2.381  11.586
 2888SOL    HW110561   9.868   2.432  11.623
 2888SOL    HW210562   9.778   2.314  11.652
 2889SOL     OW10563   8.027   2.266  11.531
 2889SOL    HW110564   7.977   2.204  11.584
 2889SOL    HW210565   8.084   2.311  11.593
 2890SOL     OW10566  10.478   7.574   8.658
 2890SOL    HW110567  10.549   7.603   8.601
 2890SOL    HW210568  10.441   7.498   8.615
 2891SOL     OW10569  14.867   1.458   2.913
 2891SOL    HW110570  14.827   1.378   2.949
 2891SOL    HW210571  14.859   1.522   2.984
 2892SOL     OW10572   7.840   2.274   5.188
 2892SOL    HW110573   7.927   2.261   5.227
 2892SOL    HW210574   7.789   2.198   5.217
 2893SOL     OW10575   4.484  12.525  10.668
 2893SOL    HW110576   4.396  12.520  10.631
 2893SOL    HW210577   4.530  12.450  10.633
 2894SOL     OW10578   6.176   3.452  14.291
 2894SOL    HW110579   6.100   3.497  14.327
 2894SOL    HW210580   6.225   3.421  14.368
 2895SOL     OW10581  14.651   9.496  14.255
 2895SOL    HW110582  14.743   9.489  14.228
 2895SOL    HW210583  14.611   9.551  14.189
 2896SOL     OW10584  11.506  10.987   4.627
 2896SOL    HW110585  11.469  10.970   4.541
 2896SOL    HW210586  11.455  10.933   4.687
 2897SOL     OW10587   5.596   3.683   9.439
 2897SOL    HW110588   5.522   3.731   9.400
 2897SOL    HW210589   5.555   3.613   9.489
 2898SOL     OW10590   3.906  11.516  14.106
 2898SOL    HW110591   3.966  11.498  14.178
 2898SOL    HW210592   3.820  11.494  14.141
 2899SOL     OW10593   6.329   8.871   1.948
 2899SOL    HW110594   6.356   8.866   2.040
 2899SOL    HW210595   6.234   8.884   1.952
 2900SOL     OW10596   0.312  12.601   2.716
 2900SOL    HW110597   0.371  12.542   2.669
 2900SOL    HW210598   0.371  12.666   2.756
 2901SOL     OW10599   8.998   8.204  14.500
 2901SOL    HW110600   8.921   8.175  14.549
 2901SOL    HW210601   8.962   8.254  14.426
 2902SOL     OW10602   0.842   0.695  10.095
 2902SOL    HW110603   0.838   0.753  10.019
 2902SOL    HW210604   0.919   0.641  10.080
 2903SOL     OW10605   0.294  12.937   2.829
 2903SOL    HW110606   0.265  12.878   2.898
 2903SOL    HW210607   0.215  12.952   2.776
 2904SOL     OW10608  13.798  13.342  10.004
 2904SOL    HW110609  13.868  13.394  10.044
 2904SOL    HW210610  13.765  13.287  10.075
 2905SOL     OW10611  11.009   0.001  10.879
 2905SOL    HW110612  11.013   0.084  10.926
 2905SOL    HW210613  11.089  14.837  10.904
 2906SOL     OW10614   3.947   3.407   1.697
 2906SOL    HW110615   3.931   3.487   1.748
 2906SOL    HW210616   3.947   3.337   1.762
 2907SOL     OW10617   9.839   4.956   9.259
 2907SOL    HW110618   9.772   4.927   9.197
 2907SOL    HW210619   9.865   5.043   9.228
 2908SOL     OW10620  13.242   0.425   4.005
 2908SOL    HW110621  13.274   0.503   3.960
 2908SOL    HW210622  13.192   0.460   4.080
 2909SOL     OW10623   4.235   4.342   2.166
 2909SOL    HW110624   4.170   4.396   2.210
 2909SOL    HW210625   4.288   4.306   2.237
 2910SOL     OW10626   4.654  14.346   9.870
 2910SOL    HW110627   4.640  14.377   9.781
 2910SOL    HW210628   4.595  14.272   9.880
 2911SOL     OW10629   1.186   2.690  13.935
 2911SOL    HW110630   1.169   2.665  13.845
 2911SOL    HW210631   1.170   2.611  13.986
 2912SOL     OW10632   7.597  11.704  11.587
 2912SOL    HW110633   7.636  11.762  11.520
 2912SOL    HW210634   7.650  11.625  11.583
 2913SOL     OW10635   0.593  14.531  11.106
 2913SOL    HW110636   0.499  14.536  11.121
 2913SOL    HW210637   0.604  14.543  11.012
 2914SOL     OW10638  10.236   9.526   5.570
 2914SOL    HW110639  10.145   9.505   5.593
 2914SOL    HW210640  10.288   9.483   5.638
 2915SOL     OW10641   7.750  10.181   9.005
 2915SOL    HW110642   7.656  10.179   8.988
 2915SOL    HW210643   7.790  10.182   8.918
 2916SOL     OW10644   5.043   2.976   9.764
 2916SOL    HW110645   5.113   2.997   9.702
 2916SOL    HW210646   4.975   3.040   9.745
 2917SOL     OW10647   0.377   2.884  13.094
 2917SOL    HW110648   0.462   2.902  13.054
 2917SOL    HW210649   0.394   2.814  13.157
 2918SOL     OW10650   5.811  10.293   0.154
 2918SOL    HW110651   5.739  10.307   0.216
 2918SOL    HW210652   5.787  10.346   0.078
 2919SOL     OW10653   7.207   6.378   0.124
 2919SOL    HW110654   7.194   6.326   0.044
 2919SOL    HW210655   7.124   6.426   0.135
 2920SOL     OW10656   9.893   1.181  10.034
 2920SOL    HW110657   9.961   1.118  10.012
 2920SOL    HW210658   9.922   1.264   9.995
 2921SOL     OW10659   9.382  12.324   7.017
 2921SOL    HW110660   9.336  12.242   7.037
 2921SOL    HW210661   9.452  12.298   6.957
 2922SOL     OW10662   3.038   3.692   5.893
 2922SOL    HW110663   3.034   3.786   5.913
 2922SOL    HW210664   2.947   3.667   5.878
 2923SOL     OW10665   6.857  14.453   1.164
 2923SOL    HW110666   6.795  14.526   1.163
 2923SOL    HW210667   6.943  14.494   1.162
 2924SOL     OW10668  14.595   8.868   4.490
 2924SOL    HW110669  14.549   8.873   4.574
 2924SOL    HW210670  14.670   8.926   4.500
 2925SOL     OW10671  10.578   9.727   8.097
 2925SOL    HW110672  10.592   9.794   8.165
 2925SOL    HW210673  10.490   9.743   8.064
 2926SOL     OW10674  11.736  11.729   3.706
 2926SOL    HW110675  11.776  11.644   3.722
 2926SOL    HW210676  11.778  11.787   3.770
 2927SOL     OW10677  14.120   7.972   1.459
 2927SOL    HW110678  14.182   8.036   1.425
 2927SOL    HW210679  14.164   7.888   1.450
 2928SOL     OW10680  14.540  12.009   2.870
 2928SOL    HW110681  14.605  12.073   2.901
 2928SOL    HW210682  14.582  11.968   2.795
 2929SOL     OW10683   6.853  13.715  12.765
 2929SOL    HW110684   6.834  13.680  12.852
 2929SOL    HW210685   6.936  13.762  12.776
 2930SOL     OW10686   2.126   1.383   0.932
 2930SOL    HW110687   2.171   1.354   1.011
 2930SOL    HW210688   2.091   1.469   0.954
 2931SOL     OW10689  14.872  12.190   8.388
 2931SOL    HW110690   0.037  12.238   8.320
 2931SOL    HW210691  14.780  12.194   8.361
 2932SOL     OW10692   9.168   6.401  11.247
 2932SOL    HW110693   9.096   6.403  11.183
 2932SOL    HW210694   9.247   6.392  11.194
 2933SOL     OW10695   2.919   2.785   1.893
 2933SOL    HW110696   2.997   2.820   1.935
 2933SOL    HW210697   2.936   2.797   1.799
 2934SOL     OW10698   5.547  10.996   7.133
 2934SOL    HW110699   5.626  11.028   7.176
 2934SOL    HW210700   5.478  11.057   7.160
 2935SOL     OW10701   4.088   4.722  11.849
 2935SOL    HW110702   4.114   4.814  11.861
 2935SOL    HW210703   3.997   4.719  11.879
 2936SOL     OW10704   4.995   8.382   1.802
 2936SOL    HW110705   5.065   8.337   1.754
 2936SOL    HW210706   4.914   8.350   1.763
 2937SOL     OW10707   1.398  14.380   3.585
 2937SOL    HW110708   1.320  14.355   3.634
 2937SOL    HW210709   1.374  14.461   3.541
 2938SOL     OW10710  12.791  12.886   5.670
 2938SOL    HW110711  12.830  12.968   5.701
 2938SOL    HW210712  12.731  12.913   5.600
 2939SOL     OW10713  12.831  12.466   8.195
 2939SOL    HW110714  12.907  12.520   8.174
 2939SOL    HW210715  12.757  12.511   8.153
 2940SOL     OW10716   3.786  10.995   9.051
 2940SOL    HW110717   3.878  11.019   9.064
 2940SOL    HW210718   3.747  11.001   9.139
 2941SOL     OW10719   5.907   9.375  14.562
 2941SOL    HW110720   5.999   9.371  14.588
 2941SOL    HW210721   5.872   9.289  14.584
 2942SOL     OW10722   2.307   6.636  11.861
 2942SOL    HW110723   2.324   6.729  11.874
 2942SOL    HW210724   2.389   6.593  11.886
 2943SOL     OW10725   0.272  12.413   4.733
 2943SOL    HW110726   0.245  12.324   4.756
 2943SOL    HW210727   0.354  12.426   4.781
 2944SOL     OW10728  10.196   4.381   5.954
 2944SOL    HW110729  10.271   4.421   5.911
 2944SOL    HW210730  10.232   4.336   6.030
 2945SOL     OW10731  11.106   5.209  12.569
 2945SOL    HW110732  11.049   5.173  12.501
 2945SOL    HW210733  11.045   5.245  12.633
 2946SOL     OW10734   2.258  14.011   0.905
 2946SOL    HW110735   2.174  14.020   0.951
 2946SOL    HW210736   2.276  13.917   0.908
 2947SOL     OW10737   7.290   1.094   9.432
 2947SOL    HW110738   7.366   1.042   9.407
 2947SOL    HW210739   7.326   1.167   9.482
 2948SOL     OW10740   6.910  12.623  13.104
 2948SOL    HW110741   6.957  12.627  13.021
 2948SOL    HW210742   6.819  12.605  13.080
 2949SOL     OW10743   4.221   8.332   8.770
 2949SOL    HW110744   4.299   8.300   8.725
 2949SOL    HW210745   4.201   8.264   8.834
 2950SOL     OW10746   4.878   0.064  13.293
 2950SOL    HW110747   4.882   0.035  13.384
 2950SOL    HW210748   4.970   0.081  13.269
 2951SOL     OW10749   3.479  13.843  12.145
 2951SOL    HW110750   3.458  13.936  12.136
 2951SOL    HW210751   3.567  13.842  12.182
 2952SOL     OW10752   9.537  11.395   2.290
 2952SOL    HW110753   9.570  11.329   2.229
 2952SOL    HW210754   9.469  11.442   2.242
 2953SOL     OW10755   2.174   4.598  10.797
 2953SOL    HW110756   2.142   4.567  10.882
 2953SOL    HW210757   2.107   4.570  10.735
 2954SOL     OW10758   2.526  14.794  13.573
 2954SOL    HW110759   2.604  14.837  13.608
 2954SOL    HW210760   2.491  14.744  13.646
 2955SOL     OW10761   7.943   4.954  12.615
 2955SOL    HW110762   7.995   4.874  12.607
 2955SOL    HW210763   7.854   4.923  12.636
 2956SOL     OW10764   9.223   8.584  11.837
 2956SOL    HW110765   9.214   8.522  11.909
 2956SOL    HW210766   9.310   8.568  11.802
 2957SOL     OW10767  10.696   1.916   3.095
 2957SOL    HW110768  10.730   1.953   3.014
 2957SOL    HW210769  10.602   1.931   3.090
 2958SOL     OW10770   4.661  11.624   7.071
 2958SOL    HW110771   4.643  11.718   7.073
 2958SOL    HW210772   4.742  11.614   7.122
 2959SOL     OW10773   6.438   5.854   1.784
 2959SOL    HW110774   6.374   5.802   1.736
 2959SOL    HW210775   6.516   5.855   1.728
 2960SOL     OW10776   8.165   2.843   6.265
 2960SOL    HW110777   8.199   2.894   6.192
 2960SOL    HW210778   8.203   2.883   6.343
 2961SOL     OW10779   6.343   6.909  13.478
 2961SOL    HW110780   6.318   6.970  13.548
 2961SOL    HW210781   6.268   6.849  13.471
 2962SOL     OW10782   0.559   8.833  10.743
 2962SOL    HW110783   0.531   8.828  10.652
 2962SOL    HW210784   0.496   8.892  10.785
 2963SOL     OW10785   2.829   4.742  13.846
 2963SOL    HW110786   2.900   4.779  13.794
 2963SOL    HW210787   2.781   4.686  13.785
 2964SOL     OW10788   9.750   9.176  13.766
 2964SOL    HW110789   9.832   9.224  13.774
 2964SOL    HW210790   9.694   9.235  13.715
 2965SOL     OW10791  11.788  12.818   6.639
 2965SOL    HW110792  11.825  12.869   6.568
 2965SOL    HW210793  11.775  12.881   6.710
 2966SOL     OW10794   7.768  14.110   2.362
 2966SOL    HW110795   7.708  14.178   2.332
 2966SOL    HW210796   7.838  14.108   2.296
 2967SOL     OW10797   9.006  12.032  12.418
 2967SOL    HW110798   9.087  11.998  12.455
 2967SOL    HW210799   9.034  12.085  12.343
 2968SOL     OW10800   5.697   5.344   0.818
 2968SOL    HW110801   5.687   5.252   0.842
 2968SOL    HW210802   5.618   5.365   0.767
 2969SOL     OW10803  11.789  14.165  13.212
 2969SOL    HW110804  11.722  14.221  13.252
 2969SOL    HW210805  11.863  14.224  13.196
 2970SOL     OW10806  10.948   3.821   0.734
 2970SOL    HW110807  10.985   3.834   0.822
 2970SOL    HW210808  10.854   3.814   0.749
 2971SOL     OW10809   1.030  11.694   5.509
 2971SOL    HW110810   1.119  11.712   5.478
 2971SOL    HW210811   0.995  11.780   5.531
 2972SOL     OW10812   2.028  10.056   3.291
 2972SOL    HW110813   2.123  10.061   3.301
 2972SOL    HW210814   2.001  10.145   3.270
 2973SOL     OW10815  12.243   7.530   5.049
 2973SOL    HW110816  12.205   7.618   5.054
 2973SOL    HW210817  12.209   7.493   4.968
 2974SOL     OW10818  10.881  14.049   2.921
 2974SOL    HW110819  10.855  13.976   2.865
 2974SOL    HW210820  10.932  14.106   2.864
 2975SOL     OW10821   3.200   2.595   4.174
 2975SOL    HW110822   3.265   2.557   4.114
 2975SOL    HW210823   3.229   2.569   4.261
 2976SOL     OW10824  10.149  10.954   8.994
 2976SOL    HW110825  10.130  10.865   8.966
 2976SOL    HW210826  10.063  10.996   9.000
 2977SOL     OW10827   5.480  13.310   4.279
 2977SOL    HW110828   5.571  13.339   4.292
 2977SOL    HW210829   5.471  13.233   4.334
 2978SOL     OW10830  11.079   7.649  10.462
 2978SOL    HW110831  11.096   7.720  10.525
 2978SOL    HW210832  11.155   7.652  10.403
 2979SOL     OW10833   3.103   9.672   8.443
 2979SOL    HW110834   3.130   9.752   8.396
 2979SOL    HW210835   3.110   9.603   8.378
 2980SOL     OW10836   5.570  11.308   0.349
 2980SOL    HW110837   5.520  11.272   0.275
 2980SOL    HW210838   5.539  11.259   0.425
 2981SOL     OW10839  13.426   1.917  14.349
 2981SOL    HW110840  13.491   1.882  14.289
 2981SOL    HW210841  13.346   1.927  14.296
 2982SOL     OW10842   9.025   1.650   0.342
 2982SOL    HW110843   9.028   1.624   0.434
 2982SOL    HW210844   8.984   1.736   0.343
 2983SOL     OW10845   8.176   3.213   1.607
 2983SOL    HW110846   8.093   3.185   1.646
 2983SOL    HW210847   8.210   3.135   1.565
 2984SOL     OW10848  12.230   6.387  13.217
 2984SOL    HW110849  12.185   6.462  13.255
 2984SOL    HW210850  12.169   6.353  13.152
 2985SOL     OW10851   3.230   1.798  11.468
 2985SOL    HW110852   3.145   1.841  11.461
 2985SOL    HW210853   3.216   1.727  11.531
 2986SOL     OW10854   5.848   8.345   2.740
 2986SOL    HW110855   5.935   8.381   2.757
 2986SOL    HW210856   5.801   8.353   2.823
 2987SOL     OW10857   6.957   1.881  14.078
 2987SOL    HW110858   6.901   1.850  14.008
 2987SOL    HW210859   7.008   1.805  14.105
 2988SOL     OW10860   4.719   5.843   2.663
 2988SOL    HW110861   4.687   5.911   2.603
 2988SOL    HW210862   4.644   5.784   2.673
 2989SOL     OW10863  11.169   8.888   7.027
 2989SOL    HW110864  11.136   8.891   6.937
 2989SOL    HW210865  11.094   8.913   7.081
 2990SOL     OW10866   2.273   7.211   1.354
 2990SOL    HW110867   2.270   7.283   1.416
 2990SOL    HW210868   2.365   7.201   1.332
 2991SOL     OW10869   5.666   2.565  10.512
 2991SOL    HW110870   5.682   2.475  10.484
 2991SOL    HW210871   5.744   2.613  10.484
 2992SOL     OW10872   0.592   6.345   9.983
 2992SOL    HW110873   0.534   6.357  10.059
 2992SOL    HW210874   0.670   6.302  10.019
 2993SOL     OW10875   6.510  12.835  12.312
 2993SOL    HW110876   6.451  12.773  12.270
 2993SOL    HW210877   6.597  12.812  12.279
 2994SOL     OW10878   1.069   8.459  11.710
 2994SOL    HW110879   1.061   8.424  11.622
 2994SOL    HW210880   1.158   8.494  11.714
 2995SOL     OW10881   3.494   1.133   8.276
 2995SOL    HW110882   3.411   1.085   8.267
 2995SOL    HW210883   3.508   1.140   8.370
 2996SOL     OW10884  11.770   9.124   7.103
 2996SOL    HW110885  11.839   9.190   7.099
 2996SOL    HW210886  11.769   9.095   7.195
 2997SOL     OW10887   0.459   8.503  13.974
 2997SOL    HW110888   0.514   8.503  14.052
 2997SOL    HW210889   0.404   8.425  13.982
 2998SOL     OW10890  13.873   7.552   6.952
 2998SOL    HW110891  13.942   7.537   7.017
 2998SOL    HW210892  13.793   7.525   6.997
 2999SOL     OW10893   5.843   7.159   3.871
 2999SOL    HW110894   5.896   7.103   3.927
 2999SOL    HW210895   5.809   7.227   3.930
 3000SOL     OW10896   9.152  14.768   9.087
 3000SOL    HW110897   9.138  14.833   9.156
 3000SOL    HW210898   9.066  14.727   9.075
 3001SOL     OW10899   0.692   3.100   4.102
 3001SOL    HW110900   0.632   3.174   4.109
 3001SOL    HW210901   0.772   3.129   4.145
 3002SOL     OW10902   9.809   5.928   4.080
 3002SOL    HW110903   9.715   5.907   4.077
 3002SOL    HW210904   9.829   5.936   4.173
 3003SOL     OW10905  13.464  11.956  11.693
 3003SOL    HW110906  13.427  12.039  11.723
 3003SOL    HW210907  13.391  11.913  11.647
 3004SOL     OW10908   7.459   8.416   5.078
 3004SOL    HW110909   7.508   8.462   5.010
 3004SOL    HW210910   7.386   8.376   5.033
 3005SOL     OW10911   8.614   8.384   9.056
 3005SOL    HW110912   8.636   8.476   9.062
 3005SOL    HW210913   8.636   8.348   9.142
 3006SOL     OW10914   3.884  10.328  11.580
 3006SOL    HW110915   3.927  10.312  11.496
 3006SOL    HW210916   3.868  10.422  11.582
 3007SOL     OW10917  13.806   6.644   9.442
 3007SOL    HW110918  13.813   6.578   9.511
 3007SOL    HW210919  13.716   6.676   9.449
 3008SOL     OW10920   9.157  13.657   2.893
 3008SOL    HW110921   9.107  13.577   2.913
 3008SOL    HW210922   9.091  13.719   2.861
 3009SOL     OW10923   7.662   8.874   3.968
 3009SOL    HW110924   7.655   8.796   3.912
 3009SOL    HW210925   7.682   8.945   3.908
 3010SOL     OW10926  10.412   5.261  10.789
 3010SOL    HW110927  10.401   5.181  10.738
 3010SOL    HW210928  10.426   5.329  10.723
 3011SOL     OW10929  10.511   0.884  14.701
 3011SOL    HW110930  10.524   0.874  14.795
 3011SOL    HW210931  10.471   0.970  14.690
 3012SOL     OW10932   3.634   2.669   0.295
 3012SOL    HW110933   3.700   2.602   0.277
 3012SOL    HW210934   3.684   2.751   0.302
 3013SOL     OW10935   8.975   7.639   0.614
 3013SOL    HW110936   8.885   7.650   0.583
 3013SOL    HW210937   9.003   7.557   0.575
 3014SOL     OW10938   3.171  12.509   4.913
 3014SOL    HW110939   3.106  12.571   4.878
 3014SOL    HW210940   3.190  12.451   4.840
 3015SOL     OW10941  13.471  13.851  14.774
 3015SOL    HW110942  13.394  13.907  14.769
 3015SOL    HW210943  13.471  13.802  14.692
 3016SOL     OW10944   5.428   7.890  12.283
 3016SOL    HW110945   5.388   7.961  12.333
 3016SOL    HW210946   5.474   7.837  12.349
 3017SOL     OW10947   4.091  13.303   1.731
 3017SOL    HW110948   4.106  13.326   1.640
 3017SOL    HW210949   4.150  13.360   1.781
 3018SOL     OW10950   5.067   1.607  13.687
 3018SOL    HW110951   5.107   1.644  13.766
 3018SOL    HW210952   5.129   1.540  13.658
 3019SOL     OW10953   9.848   4.760  11.157
 3019SOL    HW110954   9.917   4.818  11.125
 3019SOL    HW210955   9.889   4.713  11.230
 3020SOL     OW10956  13.820   6.666   8.886
 3020SOL    HW110957  13.846   6.646   8.976
 3020SOL    HW210958  13.737   6.712   8.894
 3021SOL     OW10959  12.131  14.810   7.075
 3021SOL    HW110960  12.044  14.821   7.037
 3021SOL    HW210961  12.181   0.003   7.043
 3022SOL     OW10962  10.053   4.557   3.667
 3022SOL    HW110963   9.990   4.529   3.733
 3022SOL    HW210964  10.030   4.648   3.649
 3023SOL     OW10965   8.709  12.548  13.737
 3023SOL    HW110966   8.716  12.626  13.682
 3023SOL    HW210967   8.734  12.577  13.824
 3024SOL     OW10968   1.441   6.324  11.162
 3024SOL    HW110969   1.367   6.273  11.196
 3024SOL    HW210970   1.500   6.333  11.237
 3025SOL     OW10971   9.334   2.997   0.203
 3025SOL    HW110972   9.251   3.035   0.231
 3025SOL    HW210973   9.399   3.032   0.264
 3026SOL     OW10974  11.519  12.970  11.350
 3026SOL    HW110975  11.459  12.896  11.340
 3026SOL    HW210976  11.469  13.035  11.399
 3027SOL     OW10977   5.418  13.047   4.346
 3027SOL    HW110978   5.412  13.043   4.251
 3027SOL    HW210979   5.400  12.958   4.375
 3028SOL     OW10980   0.868  13.699   9.656
 3028SOL    HW110981   0.782  13.719   9.694
 3028SOL    HW210982   0.924  13.770   9.686
 3029SOL     OW10983   9.098   0.556   7.087
 3029SOL    HW110984   9.143   0.554   7.003
 3029SOL    HW210985   9.068   0.646   7.097
 3030SOL     OW10986   7.562   5.224   7.914
 3030SOL    HW110987   7.560   5.146   7.858
 3030SOL    HW210988   7.473   5.230   7.949
 3031SOL     OW10989   7.481  12.804   6.953
 3031SOL    HW110990   7.517  12.735   7.008
 3031SOL    HW210991   7.390  12.813   6.981
 3032SOL     OW10992  13.122   0.637  12.950
 3032SOL    HW110993  13.118   0.583  13.029
 3032SOL    HW210994  13.033   0.634  12.914
 3033SOL     OW10995  14.408  11.026  12.307
 3033SOL    HW110996  14.409  11.116  12.275
 3033SOL    HW210997  14.316  11.008  12.327
 3034SOL     OW10998   6.463   0.948   5.529
 3034SOL    HW110999   6.487   0.871   5.478
 3034SOL    HW211000   6.524   1.016   5.501
 3035SOL     OW11001   3.788   8.429   5.171
 3035SOL    HW111002   3.873   8.387   5.186
 3035SOL    HW211003   3.764   8.405   5.082
 3036SOL     OW11004  13.629  12.935   9.165
 3036SOL    HW111005  13.663  12.868   9.107
 3036SOL    HW211006  13.607  12.888   9.246
 3037SOL     OW11007  12.628   0.617   4.987
 3037SOL    HW111008  12.600   0.549   4.927
 3037SOL    HW211009  12.720   0.631   4.966
 3038SOL     OW11010   5.118   7.258  10.933
 3038SOL    HW111011   5.200   7.301  10.908
 3038SOL    HW211012   5.134   7.165  10.917
 3039SOL     OW11013   6.764   1.088   0.530
 3039SOL    HW111014   6.722   1.164   0.569
 3039SOL    HW211015   6.775   1.027   0.603
 3040SOL     OW11016   1.817   5.061  14.003
 3040SOL    HW111017   1.912   5.054  14.009
 3040SOL    HW211018   1.801   5.081  13.911
 3041SOL     OW11019  10.248   9.124   5.370
 3041SOL    HW111020  10.235   9.103   5.462
 3041SOL    HW211021  10.319   9.065   5.341
 3042SOL     OW11022   8.304   0.689   5.920
 3042SOL    HW111023   8.370   0.660   5.856
 3042SOL    HW211024   8.229   0.714   5.867
 3043SOL     OW11025  11.413   5.858   9.848
 3043SOL    HW111026  11.481   5.918   9.880
 3043SOL    HW211027  11.338   5.872   9.907
 3044SOL     OW11028   6.861  11.409  11.987
 3044SOL    HW111029   6.909  11.326  11.990
 3044SOL    HW211030   6.769  11.384  12.000
 3045SOL     OW11031  10.818   8.572  12.117
 3045SOL    HW111032  10.847   8.609  12.200
 3045SOL    HW211033  10.898   8.540  12.076
 3046SOL     OW11034   5.056  12.146   4.237
 3046SOL    HW111035   5.098  12.199   4.169
 3046SOL    HW211036   5.126  12.127   4.299
 3047SOL     OW11037   4.856   4.261  11.991
 3047SOL    HW111038   4.878   4.171  11.965
 3047SOL    HW211039   4.859   4.311  11.909
 3048SOL     OW11040   6.970  13.358  10.577
 3048SOL    HW111041   6.906  13.416  10.618
 3048SOL    HW211042   7.055  13.398  10.596
 3049SOL     OW11043  12.067  11.811   5.330
 3049SOL    HW111044  12.138  11.752   5.303
 3049SOL    HW211045  11.997  11.753   5.359
 3050SOL     OW11046   5.574  10.308  12.686
 3050SOL    HW111047   5.657  10.290  12.729
 3050SOL    HW211048   5.559  10.233  12.629
 3051SOL     OW11049  11.875   7.845   1.664
 3051SOL    HW111050  11.934   7.846   1.739
 3051SOL    HW211051  11.810   7.777   1.685
 3052SOL     OW11052   2.392   8.653  12.584
 3052SOL    HW111053   2.407   8.695  12.499
 3052SOL    HW211054   2.316   8.597  12.570
 3053SOL     OW11055   9.910  10.593   7.022
 3053SOL    HW111056   9.936  10.533   6.952
 3053SOL    HW211057   9.817  10.609   7.006
 3054SOL     OW11058   4.070   4.872  11.443
 3054SOL    HW111059   4.099   4.936  11.508
 3054SOL    HW211060   4.151   4.831  11.412
 3055SOL     OW11061   8.817   2.034   0.906
 3055SOL    HW111062   8.876   2.026   0.981
 3055SOL    HW211063   8.743   1.977   0.929
 3056SOL     OW11064   8.609   5.659  13.720
 3056SOL    HW111065   8.680   5.711  13.758
 3056SOL    HW211066   8.639   5.641  13.630
 3057SOL     OW11067   4.704  10.902  11.705
 3057SOL    HW111068   4.689  10.828  11.765
 3057SOL    HW211069   4.769  10.956  11.751
 3058SOL     OW11070  11.926   2.853   4.101
 3058SOL    HW111071  11.975   2.772   4.116
 3058SOL    HW211072  11.852   2.826   4.046
 3059SOL     OW11073  13.551   1.663   0.658
 3059SOL    HW111074  13.510   1.621   0.583
 3059SOL    HW211075  13.635   1.695   0.624
 3060SOL     OW11076   1.660   8.989   0.769
 3060SOL    HW111077   1.638   9.061   0.828
 3060SOL    HW211078   1.671   9.031   0.684
 3061SOL     OW11079   2.728   0.834   5.398
 3061SOL    HW111080   2.709   0.887   5.475
 3061SOL    HW211081   2.720   0.895   5.324
 3062SOL     OW11082   7.781   5.697  14.430
 3062SOL    HW111083   7.812   5.783  14.460
 3062SOL    HW211084   7.859   5.655  14.394
 3063SOL     OW11085   0.641   4.722  14.320
 3063SOL    HW111086   0.603   4.774  14.391
 3063SOL    HW211087   0.671   4.787  14.256
 3064SOL     OW11088   8.661  14.480   6.114
 3064SOL    HW111089   8.744  14.432   6.122
 3064SOL    HW211090   8.687  14.572   6.117
 3065SOL     OW11091   5.144   6.658  11.637
 3065SOL    HW111092   5.213   6.722  11.617
 3065SOL    HW211093   5.168   6.580  11.588
 3066SOL     OW11094   8.837   0.190   7.276
 3066SOL    HW111095   8.780   0.114   7.286
 3066SOL    HW211096   8.877   0.179   7.190
 3067SOL     OW11097   3.638   1.248   2.534
 3067SOL    HW111098   3.672   1.336   2.551
 3067SOL    HW211099   3.715   1.197   2.508
 3068SOL     OW11100   5.312   8.385  12.278
 3068SOL    HW111101   5.367   8.428  12.344
 3068SOL    HW211102   5.363   8.390  12.197
 3069SOL     OW11103  10.926   2.208  11.909
 3069SOL    HW111104  10.982   2.156  11.967
 3069SOL    HW211105  10.987   2.261  11.858
 3070SOL     OW11106   3.787   8.033  10.463
 3070SOL    HW111107   3.862   8.070  10.416
 3070SOL    HW211108   3.807   7.940  10.471
 3071SOL     OW11109   3.912   5.271   1.062
 3071SOL    HW111110   3.946   5.352   1.024
 3071SOL    HW211111   3.833   5.252   1.011
 3072SOL     OW11112  10.797   1.193   8.785
 3072SOL    HW111113  10.761   1.130   8.722
 3072SOL    HW211114  10.789   1.278   8.742
 3073SOL     OW11115   6.454   4.554   3.132
 3073SOL    HW111116   6.409   4.604   3.200
 3073SOL    HW211117   6.391   4.550   3.060
 3074SOL     OW11118  12.390  13.255   4.187
 3074SOL    HW111119  12.311  13.309   4.183
 3074SOL    HW211120  12.397  13.216   4.100
 3075SOL     OW11121   6.690   4.134   8.654
 3075SOL    HW111122   6.682   4.132   8.749
 3075SOL    HW211123   6.646   4.055   8.624
 3076SOL     OW11124   3.701   3.547   0.267
 3076SOL    HW111125   3.699   3.604   0.190
 3076SOL    HW211126   3.620   3.496   0.262
 3077SOL     OW11127  11.992   9.657   1.907
 3077SOL    HW111128  11.971   9.641   1.999
 3077SOL    HW211129  11.917   9.708   1.874
 3078SOL     OW11130   1.176   4.049   4.039
 3078SOL    HW111131   1.251   3.990   4.036
 3078SOL    HW211132   1.160   4.073   3.947
 3079SOL     OW11133  11.179   3.501   7.414
 3079SOL    HW111134  11.129   3.547   7.482
 3079SOL    HW211135  11.205   3.570   7.353
 3080SOL     OW11136   9.336   6.869   5.939
 3080SOL    HW111137   9.290   6.915   5.869
 3080SOL    HW211138   9.389   6.803   5.895
 3081SOL     OW11139  12.982   4.153  11.148
 3081SOL    HW111140  13.062   4.141  11.096
 3081SOL    HW211141  12.916   4.181  11.084
 3082SOL     OW11142   8.256   3.970   2.392
 3082SOL    HW111143   8.170   3.961   2.351
 3082SOL    HW211144   8.242   4.027   2.468
 3083SOL     OW11145  12.084   7.807  13.275
 3083SOL    HW111146  12.032   7.817  13.195
 3083SOL    HW211147  12.139   7.886  13.277
 3084SOL     OW11148  10.864   1.317   4.142
 3084SOL    HW111149  10.869   1.248   4.209
 3084SOL    HW211150  10.854   1.398   4.192
 3085SOL     OW11151   0.914  13.053   1.577
 3085SOL    HW111152   0.959  13.057   1.662
 3085SOL    HW211153   0.912  12.959   1.556
 3086SOL     OW11154   3.886   3.801   3.892
 3086SOL    HW111155   3.960   3.782   3.949
 3086SOL    HW211156   3.903   3.750   3.813
 3087SOL     OW11157   4.717   2.889  10.018
 3087SOL    HW111158   4.695   2.806  10.059
 3087SOL    HW211159   4.714   2.871   9.924
 3088SOL     OW11160  12.585   5.518  10.048
 3088SOL    HW111161  12.496   5.484  10.062
 3088SOL    HW211162  12.621   5.462   9.979
 3089SOL     OW11163   2.193   1.467   1.683
 3089SOL    HW111164   2.204   1.559   1.660
 3089SOL    HW211165   2.113   1.465   1.736
 3090SOL     OW11166   4.491   3.877   7.947
 3090SOL    HW111167   4.503   3.840   7.859
 3090SOL    HW211168   4.408   3.923   7.942
 3091SOL     OW11169   0.003   8.887   0.259
 3091SOL    HW111170   0.010   8.838   0.341
 3091SOL    HW211171  14.792   8.884   0.237
 3092SOL     OW11172  12.992   4.161   8.367
 3092SOL    HW111173  12.916   4.103   8.377
 3092SOL    HW211174  13.042   4.149   8.448
 3093SOL     OW11175   0.738   5.736  13.205
 3093SOL    HW111176   0.689   5.809  13.167
 3093SOL    HW211177   0.826   5.746  13.169
 3094SOL     OW11178   4.736   6.053   5.028
 3094SOL    HW111179   4.779   5.974   4.997
 3094SOL    HW211180   4.801   6.097   5.082
 3095SOL     OW11181  13.504   0.679  12.006
 3095SOL    HW111182  13.540   0.591  12.003
 3095SOL    HW211183  13.559   0.730  11.947
 3096SOL     OW11184  10.517   1.301  12.185
 3096SOL    HW111185  10.602   1.266  12.212
 3096SOL    HW211186  10.536   1.359  12.112
 3097SOL     OW11187   3.506  10.347   9.898
 3097SOL    HW111188   3.511  10.289   9.822
 3097SOL    HW211189   3.423  10.325   9.940
 3098SOL     OW11190  11.330   1.352  10.117
 3098SOL    HW111191  11.309   1.261  10.097
 3098SOL    HW211192  11.399   1.347  10.183
 3099SOL     OW11193  13.921   7.094  13.389
 3099SOL    HW111194  13.887   7.052  13.468
 3099SOL    HW211195  13.844   7.133  13.347
 3100SOL     OW11196   9.873   5.054   7.675
 3100SOL    HW111197   9.796   5.017   7.632
 3100SOL    HW211198   9.947   5.006   7.637
 3101SOL     OW11199   3.147  10.851  11.002
 3101SOL    HW111200   3.122  10.803  11.080
 3101SOL    HW211201   3.082  10.826  10.936
 3102SOL     OW11202   1.292   2.619   0.327
 3102SOL    HW111203   1.358   2.562   0.365
 3102SOL    HW211204   1.210   2.570   0.335
 3103SOL     OW11205   0.732  10.030   0.989
 3103SOL    HW111206   0.734  10.117   1.029
 3103SOL    HW211207   0.640  10.005   0.992
 3104SOL     OW11208  12.905   4.703   5.158
 3104SOL    HW111209  12.950   4.621   5.137
 3104SOL    HW211210  12.889   4.698   5.252
 3105SOL     OW11211  10.062   9.105   2.458
 3105SOL    HW111212  10.130   9.165   2.430
 3105SOL    HW211213  10.002   9.099   2.383
 3106SOL     OW11214   4.994   1.063   8.520
 3106SOL    HW111215   5.059   1.113   8.470
 3106SOL    HW211216   5.010   0.972   8.494
 3107SOL     OW11217  13.966  10.772  14.293
 3107SOL    HW111218  14.017  10.832  14.346
 3107SOL    HW211219  13.875  10.788  14.320
 3108SOL     OW11220   3.977   3.463  11.308
 3108SOL    HW111221   3.914   3.430  11.245
 3108SOL    HW211222   3.990   3.555  11.283
 3109SOL     OW11223   0.339   3.122   1.980
 3109SOL    HW111224   0.393   3.048   2.008
 3109SOL    HW211225   0.391   3.199   2.002
 3110SOL     OW11226   9.879  11.763  12.164
 3110SOL    HW111227   9.790  11.790  12.190
 3110SOL    HW211228   9.869  11.672  12.136
 3111SOL     OW11229  12.122   3.131   5.727
 3111SOL    HW111230  12.130   3.125   5.631
 3111SOL    HW211231  12.076   3.213   5.742
 3112SOL     OW11232   3.315   6.683  14.063
 3112SOL    HW111233   3.377   6.617  14.096
 3112SOL    HW211234   3.341   6.696  13.972
 3113SOL     OW11235   2.542   6.083  14.801
 3113SOL    HW111236   2.514   6.137  14.875
 3113SOL    HW211237   2.535   6.141  14.725
 3114SOL     OW11238  11.744   3.053  12.816
 3114SOL    HW111239  11.688   3.126  12.843
 3114SOL    HW211240  11.831   3.078  12.846
 3115SOL     OW11241  13.807   9.945   2.873
 3115SOL    HW111242  13.751   9.872   2.899
 3115SOL    HW211243  13.859   9.964   2.950
 3116SOL     OW11244   7.441  14.707   9.870
 3116SOL    HW111245   7.450  14.647   9.796
 3116SOL    HW211246   7.374  14.770   9.842
 3117SOL     OW11247   0.183   4.194   2.912
 3117SOL    HW111248   0.140   4.136   2.975
 3117SOL    HW211249   0.273   4.162   2.908
 3118SOL     OW11250   5.780  11.661  11.653
 3118SOL    HW111251   5.758  11.610  11.575
 3118SOL    HW211252   5.836  11.604  11.704
 3119SOL     OW11253  10.513   0.507  13.323
 3119SOL    HW111254  10.491   0.584  13.270
 3119SOL    HW211255  10.556   0.544  13.401
 3120SOL     OW11256   3.902   9.323   2.539
 3120SOL    HW111257   3.995   9.300   2.527
 3120SOL    HW211258   3.903   9.401   2.594
 3121SOL     OW11259  13.880  10.544  10.424
 3121SOL    HW111260  13.833  10.615  10.469
 3121SOL    HW211261  13.953  10.588  10.380
 3122SOL     OW11262   5.348  14.155  12.982
 3122SOL    HW111263   5.424  14.103  13.009
 3122SOL    HW211264   5.278  14.128  13.042
 3123SOL     OW11265   1.671   9.900   3.733
 3123SOL    HW111266   1.724   9.823   3.718
 3123SOL    HW211267   1.716   9.947   3.803
 3124SOL     OW11268   0.569   7.958   7.929
 3124SOL    HW111269   0.486   7.927   7.965
 3124SOL    HW211270   0.616   7.878   7.905
 3125SOL     OW11271  12.378   3.105   5.962
 3125SOL    HW111272  12.307   3.170   5.961
 3125SOL    HW211273  12.440   3.138   6.026
 3126SOL     OW11274   8.482   6.582  12.259
 3126SOL    HW111275   8.493   6.568  12.353
 3126SOL    HW211276   8.502   6.675  12.246
 3127SOL     OW11277   6.027   3.318   3.992
 3127SOL    HW111278   6.116   3.350   4.010
 3127SOL    HW211279   6.038   3.225   3.975
 3128SOL     OW11280   0.643   9.452   1.934
 3128SOL    HW111281   0.565   9.402   1.960
 3128SOL    HW211282   0.676   9.489   2.015
 3129SOL     OW11283   4.525  13.661  12.680
 3129SOL    HW111284   4.503  13.742  12.725
 3129SOL    HW211285   4.597  13.684  12.621
 3130SOL     OW11286   2.742   8.312   3.983
 3130SOL    HW111287   2.671   8.365   3.947
 3130SOL    HW211288   2.769   8.255   3.911
 3131SOL     OW11289   5.922   8.591   4.130
 3131SOL    HW111290   5.900   8.625   4.216
 3131SOL    HW211291   5.922   8.668   4.073
 3132SOL     OW11292   6.833   5.621   7.134
 3132SOL    HW111293   6.922   5.611   7.099
 3132SOL    HW211294   6.843   5.680   7.208
 3133SOL     OW11295   0.523   2.344   4.817
 3133SOL    HW111296   0.474   2.419   4.784
 3133SOL    HW211297   0.612   2.377   4.829
 3134SOL     OW11298   9.497  14.034  14.087
 3134SOL    HW111299   9.407  14.004  14.102
 3134SOL    HW211300   9.537  14.031  14.174
 3135SOL     OW11301  14.387   0.102   4.041
 3135SOL    HW111302  14.424   0.113   4.129
 3135SOL    HW211303  14.294   0.085   4.057
 3136SOL     OW11304   7.986   4.507   1.262
 3136SOL    HW111305   7.967   4.579   1.201
 3136SOL    HW211306   7.915   4.444   1.248
 3137SOL     OW11307  12.550   9.588   6.872
 3137SOL    HW111308  12.539   9.580   6.967
 3137SOL    HW211309  12.645   9.589   6.860
 3138SOL     OW11310   4.867  10.212  12.412
 3138SOL    HW111311   4.779  10.190  12.382
 3138SOL    HW211312   4.904  10.128  12.440
 3139SOL     OW11313   0.005   3.479   0.545
 3139SOL    HW111314  14.874   3.557   0.491
 3139SOL    HW211315   0.040   3.414   0.485
 3140SOL     OW11316  12.943   9.389  13.393
 3140SOL    HW111317  12.953   9.384  13.298
 3140SOL    HW211318  12.868   9.331  13.412
 3141SOL     OW11319  12.079  12.661  11.475
 3141SOL    HW111320  12.022  12.715  11.530
 3141SOL    HW211321  12.093  12.581  11.526
 3142SOL     OW11322   8.262  10.364   4.413
 3142SOL    HW111323   8.293  10.295   4.353
 3142SOL    HW211324   8.323  10.436   4.399
 3143SOL     OW11325   4.600  14.416  14.300
 3143SOL    HW111326   4.687  14.392  14.331
 3143SOL    HW211327   4.590  14.372  14.216
 3144SOL     OW11328  10.344   0.922  11.195
 3144SOL    HW111329  10.428   0.909  11.238
 3144SOL    HW211330  10.358   0.894  11.105
 3145SOL     OW11331   3.361  13.024  14.436
 3145SOL    HW111332   3.352  12.929  14.433
 3145SOL    HW211333   3.272  13.056  14.451
 3146SOL     OW11334   6.780   3.906   5.997
 3146SOL    HW111335   6.696   3.875   5.964
 3146SOL    HW211336   6.818   3.831   6.041
 3147SOL     OW11337  12.539   8.013   1.224
 3147SOL    HW111338  12.535   8.065   1.143
 3147SOL    HW211339  12.614   8.049   1.271
 3148SOL     OW11340   6.598   7.119   7.068
 3148SOL    HW111341   6.627   7.133   6.977
 3148SOL    HW211342   6.668   7.068   7.107
 3149SOL     OW11343   2.015   7.161   0.263
 3149SOL    HW111344   2.014   7.212   0.344
 3149SOL    HW211345   2.027   7.225   0.193
 3150SOL     OW11346   7.725   8.210   0.857
 3150SOL    HW111347   7.703   8.257   0.776
 3150SOL    HW211348   7.793   8.148   0.831
 3151SOL     OW11349   4.430   4.897   8.528
 3151SOL    HW111350   4.402   4.874   8.439
 3151SOL    HW211351   4.407   4.820   8.581
 3152SOL     OW11352   8.880  11.842   7.344
 3152SOL    HW111353   8.950  11.800   7.294
 3152SOL    HW211354   8.800  11.806   7.307
 3153SOL     OW11355   2.857  12.376   9.294
 3153SOL    HW111356   2.951  12.375   9.311
 3153SOL    HW211357   2.822  12.305   9.349
 3154SOL     OW11358  10.573   6.565   2.654
 3154SOL    HW111359  10.641   6.630   2.637
 3154SOL    HW211360  10.491   6.614   2.649
 3155SOL     OW11361  10.870   6.453   9.671
 3155SOL    HW111362  10.918   6.534   9.650
 3155SOL    HW211363  10.901   6.429   9.759
 3156SOL     OW11364  11.495   8.753   2.963
 3156SOL    HW111365  11.535   8.838   2.982
 3156SOL    HW211366  11.569   8.693   2.954
 3157SOL     OW11367   5.076   8.848  12.174
 3157SOL    HW111368   5.109   8.938  12.178
 3157SOL    HW211369   5.003   8.853  12.111
 3158SOL     OW11370  11.620  14.382  10.924
 3158SOL    HW111371  11.664  14.435  10.858
 3158SOL    HW211372  11.535  14.424  10.936
 3159SOL     OW11373  11.808  12.335  14.128
 3159SOL    HW111374  11.834  12.261  14.073
 3159SOL    HW211375  11.884  12.393  14.128
 3160SOL     OW11376   4.570   3.694   5.120
 3160SOL    HW111377   4.546   3.786   5.116
 3160SOL    HW211378   4.665   3.693   5.106
 3161SOL     OW11379   1.214   3.945   2.067
 3161SOL    HW111380   1.123   3.971   2.049
 3161SOL    HW211381   1.214   3.922   2.159
 3162SOL     OW11382   0.685  12.023   8.311
 3162SOL    HW111383   0.748  12.027   8.239
 3162SOL    HW211384   0.601  12.007   8.269
 3163SOL     OW11385  10.763   6.124  11.200
 3163SOL    HW111386  10.775   6.081  11.115
 3163SOL    HW211387  10.795   6.213  11.186
 3164SOL     OW11388   6.896   0.792   6.550
 3164SOL    HW111389   6.922   0.770   6.460
 3164SOL    HW211390   6.891   0.887   6.552
 3165SOL     OW11391   4.610   0.045  10.079
 3165SOL    HW111392   4.695   0.019  10.113
 3165SOL    HW211393   4.548  14.869  10.124
 3166SOL     OW11394  10.331  14.682   1.291
 3166SOL    HW111395  10.267  14.674   1.362
 3166SOL    HW211396  10.337  14.775   1.274
 3167SOL     OW11397   1.072  14.018   6.212
 3167SOL    HW111398   1.033  14.082   6.151
 3167SOL    HW211399   1.000  13.958   6.233
 3168SOL     OW11400  11.583   4.174  12.810
 3168SOL    HW111401  11.513   4.228  12.845
 3168SOL    HW211402  11.611   4.220  12.731
 3169SOL     OW11403   6.870   4.358  13.242
 3169SOL    HW111404   6.776   4.350  13.226
 3169SOL    HW211405   6.901   4.413  13.170
 3170SOL     OW11406   4.886  10.792   2.968
 3170SOL    HW111407   4.946  10.755   3.032
 3170SOL    HW211408   4.807  10.813   3.018
 3171SOL     OW11409   2.620   7.968  10.401
 3171SOL    HW111410   2.550   8.007  10.348
 3171SOL    HW211411   2.679   7.929  10.337
 3172SOL     OW11412   4.893   5.996   3.215
 3172SOL    HW111413   4.955   5.927   3.197
 3172SOL    HW211414   4.885   5.998   3.311
 3173SOL     OW11415  13.077  14.626   7.818
 3173SOL    HW111416  13.045  14.716   7.818
 3173SOL    HW211417  13.008  14.576   7.862
 3174SOL     OW11418   5.415  10.081   0.263
 3174SOL    HW111419   5.459  10.012   0.212
 3174SOL    HW211420   5.324  10.078   0.234
 3175SOL     OW11421  12.931  10.576   4.291
 3175SOL    HW111422  12.969  10.619   4.368
 3175SOL    HW211423  12.973  10.618   4.217
 3176SOL     OW11424  11.807   5.466  11.871
 3176SOL    HW111425  11.899   5.463  11.846
 3176SOL    HW211426  11.774   5.378  11.856
 3177SOL     OW11427  11.320   6.858   3.704
 3177SOL    HW111428  11.278   6.885   3.623
 3177SOL    HW211429  11.250   6.860   3.769
 3178SOL     OW11430  13.792   8.613  13.331
 3178SOL    HW111431  13.864   8.551  13.337
 3178SOL    HW211432  13.714   8.559  13.318
 3179SOL     OW11433  10.076  10.597   7.407
 3179SOL    HW111434  10.022  10.662   7.451
 3179SOL    HW211435  10.145  10.575   7.470
 3180SOL     OW11436   2.419  14.237   7.795
 3180SOL    HW111437   2.333  14.262   7.830
 3180SOL    HW211438   2.477  14.309   7.821
 3181SOL     OW11439   7.783  14.011   7.003
 3181SOL    HW111440   7.731  13.972   7.074
 3181SOL    HW211441   7.873  14.007   7.034
 3182SOL     OW11442  12.859  12.314  12.694
 3182SOL    HW111443  12.835  12.363  12.772
 3182SOL    HW211444  12.782  12.318  12.638
 3183SOL     OW11445  10.522   5.924  11.047
 3183SOL    HW111446  10.439   5.877  11.056
 3183SOL    HW211447  10.566   5.911  11.131
 3184SOL     OW11448   4.503   6.067   8.844
 3184SOL    HW111449   4.593   6.063   8.876
 3184SOL    HW211450   4.500   6.145   8.789
 3185SOL     OW11451   3.230   4.244   6.426
 3185SOL    HW111452   3.141   4.253   6.458
 3185SOL    HW211453   3.254   4.153   6.447
 3186SOL     OW11454   6.918   6.085   4.104
 3186SOL    HW111455   6.856   6.064   4.174
 3186SOL    HW211456   6.869   6.141   4.044
 3187SOL     OW11457   9.400   8.762   9.072
 3187SOL    HW111458   9.315   8.718   9.077
 3187SOL    HW211459   9.391   8.823   8.998
 3188SOL     OW11460   2.316   7.398   2.802
 3188SOL    HW111461   2.357   7.358   2.879
 3188SOL    HW211462   2.357   7.483   2.794
 3189SOL     OW11463  11.854   4.119   9.230
 3189SOL    HW111464  11.885   4.160   9.311
 3189SOL    HW211465  11.783   4.060   9.259
 3190SOL     OW11466  14.787   1.434  13.976
 3190SOL    HW111467  14.817   1.516  13.937
 3190SOL    HW211468  14.694   1.449  13.994
 3191SOL     OW11469   9.429   4.678   0.000
 3191SOL    HW111470   9.422   4.766  14.844
 3191SOL    HW211471   9.345   4.665   0.045
 3192SOL     OW11472   7.357  11.988   9.769
 3192SOL    HW111473   7.313  12.069   9.744
 3192SOL    HW211474   7.295  11.919   9.746
 3193SOL     OW11475   9.169  11.640   8.913
 3193SOL    HW111476   9.076  11.626   8.931
 3193SOL    HW211477   9.188  11.728   8.947
 3194SOL     OW11478  10.088  10.936   3.867
 3194SOL    HW111479  10.119  10.846   3.860
 3194SOL    HW211480  10.008  10.930   3.920
 3195SOL     OW11481  11.352   4.581  10.495
 3195SOL    HW111482  11.430   4.568  10.441
 3195SOL    HW211483  11.282   4.537  10.447
 3196SOL     OW11484   4.132  13.305   2.905
 3196SOL    HW111485   4.131  13.396   2.875
 3196SOL    HW211486   4.223  13.288   2.927
 3197SOL     OW11487  13.445   5.993   4.389
 3197SOL    HW111488  13.502   6.008   4.313
 3197SOL    HW211489  13.412   6.080   4.412
 3198SOL     OW11490  11.930  13.723   7.138
 3198SOL    HW111491  11.910  13.815   7.117
 3198SOL    HW211492  11.849  13.676   7.116
 3199SOL     OW11493   9.441  13.110   2.146
 3199SOL    HW111494   9.443  13.015   2.158
 3199SOL    HW211495   9.389  13.123   2.067
 3200SOL     OW11496  14.028  12.146  13.471
 3200SOL    HW111497  13.998  12.082  13.407
 3200SOL    HW211498  13.964  12.141  13.542
 3201SOL     OW11499   0.077   1.070   8.190
 3201SOL    HW111500   0.114   0.998   8.138
 3201SOL    HW211501   0.122   1.064   8.274
 3202SOL     OW11502   5.248  13.444   4.190
 3202SOL    HW111503   5.331  13.490   4.198
 3202SOL    HW211504   5.264  13.359   4.232
 3203SOL     OW11505   2.780  11.904  13.786
 3203SOL    HW111506   2.747  11.850  13.715
 3203SOL    HW211507   2.820  11.979  13.743
 3204SOL     OW11508   8.555  13.615   5.040
 3204SOL    HW111509   8.573  13.581   4.952
 3204SOL    HW211510   8.640  13.641   5.074
 3205SOL     OW11511   1.485   6.794   0.184
 3205SOL    HW111512   1.408   6.758   0.229
 3205SOL    HW211513   1.557   6.736   0.209
 3206SOL     OW11514   5.912  12.839   6.398
 3206SOL    HW111515   5.842  12.882   6.348
 3206SOL    HW211516   5.992  12.863   6.352
 3207SOL     OW11517   0.779  13.518  11.919
 3207SOL    HW111518   0.790  13.503  11.825
 3207SOL    HW211519   0.786  13.613  11.929
 3208SOL     OW11520   1.383   1.954  10.123
 3208SOL    HW111521   1.371   2.049  10.117
 3208SOL    HW211522   1.365   1.922  10.035
 3209SOL     OW11523   2.370   1.353  14.031
 3209SOL    HW111524   2.276   1.336  14.021
 3209SOL    HW211525   2.374   1.432  14.086
 3210SOL     OW11526   5.871  13.582  12.372
 3210SOL    HW111527   5.841  13.580  12.463
 3210SOL    HW211528   5.791  13.583  12.319
 3211SOL     OW11529   5.456  10.063   1.866
 3211SOL    HW111530   5.443  10.007   1.943
 3211SOL    HW211531   5.368  10.092   1.842
 3212SOL     OW11532  11.476  12.300   9.698
 3212SOL    HW111533  11.423  12.374   9.669
 3212SOL    HW211534  11.550  12.340   9.745
 3213SOL     OW11535   6.673   2.762   0.963
 3213SOL    HW111536   6.657   2.683   1.015
 3213SOL    HW211537   6.768   2.771   0.961
 3214SOL     OW11538   8.554  10.896  11.031
 3214SOL    HW111539   8.518  10.931  11.113
 3214SOL    HW211540   8.489  10.918  10.965
 3215SOL     OW11541  11.339   1.368   6.528
 3215SOL    HW111542  11.283   1.310   6.478
 3215SOL    HW211543  11.411   1.312   6.559
 3216SOL     OW11544   1.134   6.432   8.232
 3216SOL    HW111545   1.115   6.524   8.250
 3216SOL    HW211546   1.114   6.422   8.139
 3217SOL     OW11547  11.351  10.918  12.127
 3217SOL    HW111548  11.289  10.847  12.111
 3217SOL    HW211549  11.421  10.878  12.180
 3218SOL     OW11550   3.800   3.448  11.598
 3218SOL    HW111551   3.864   3.435  11.527
 3218SOL    HW211552   3.723   3.399  11.570
 3219SOL     OW11553   9.999   1.850   9.077
 3219SOL    HW111554   9.973   1.938   9.104
 3219SOL    HW211555  10.082   1.863   9.031
 3220SOL     OW11556   7.822   5.677  12.015
 3220SOL    HW111557   7.854   5.590  11.990
 3220SOL    HW211558   7.748   5.693  11.956
 3221SOL     OW11559   0.870   5.410   9.217
 3221SOL    HW111560   0.817   5.415   9.137
 3221SOL    HW211561   0.934   5.481   9.208
 3222SOL     OW11562  10.037  12.345  14.016
 3222SOL    HW111563  10.118  12.383  14.051
 3222SOL    HW211564   9.980  12.420  14.000
 3223SOL     OW11565   6.793  10.501  10.265
 3223SOL    HW111566   6.827  10.552  10.192
 3223SOL    HW211567   6.701  10.528  10.273
 3224SOL     OW11568   1.806   3.332   2.681
 3224SOL    HW111569   1.862   3.309   2.756
 3224SOL    HW211570   1.867   3.364   2.615
 3225SOL     OW11571   4.091   4.643  12.446
 3225SOL    HW111572   4.155   4.696  12.398
 3225SOL    HW211573   4.035   4.605  12.377
 3226SOL     OW11574  12.015   9.722   5.807
 3226SOL    HW111575  11.927   9.710   5.770
 3226SOL    HW211576  12.019   9.661   5.880
 3227SOL     OW11577  11.744   6.862   5.310
 3227SOL    HW111578  11.693   6.822   5.240
 3227SOL    HW211579  11.831   6.823   5.302
 3228SOL     OW11580   1.613  11.340   5.179
 3228SOL    HW111581   1.696  11.304   5.149
 3228SOL    HW211582   1.592  11.409   5.116
 3229SOL     OW11583   3.195   2.298   6.813
 3229SOL    HW111584   3.241   2.249   6.745
 3229SOL    HW211585   3.262   2.352   6.854
 3230SOL     OW11586   9.980   6.437   3.854
 3230SOL    HW111587   9.960   6.343   3.857
 3230SOL    HW211588   9.931   6.470   3.778
 3231SOL     OW11589  11.536   1.132   3.616
 3231SOL    HW111590  11.518   1.223   3.641
 3231SOL    HW211591  11.597   1.101   3.683
 3232SOL     OW11592   8.262   0.050  11.329
 3232SOL    HW111593   8.222   0.118  11.384
 3232SOL    HW211594   8.191   0.018  11.275
 3233SOL     OW11595   3.603  10.271  12.166
 3233SOL    HW111596   3.636  10.231  12.246
 3233SOL    HW211597   3.676  10.265  12.104
 3234SOL     OW11598   6.637  12.571   1.424
 3234SOL    HW111599   6.684  12.559   1.507
 3234SOL    HW211600   6.545  12.569   1.448
 3235SOL     OW11601   8.369   0.258  13.552
 3235SOL    HW111602   8.464   0.246  13.559
 3235SOL    HW211603   8.359   0.341  13.507
 3236SOL     OW11604   9.907   3.384  10.150
 3236SOL    HW111605   9.877   3.305  10.106
 3236SOL    HW211606   9.867   3.456  10.101
 3237SOL     OW11607  11.111  12.909   1.109
 3237SOL    HW111608  11.057  12.958   1.172
 3237SOL    HW211609  11.063  12.827   1.096
 3238SOL     OW11610  11.950   7.491   0.556
 3238SOL    HW111611  12.010   7.439   0.503
 3238SOL    HW211612  11.863   7.469   0.523
 3239SOL     OW11613   5.101  13.548   0.956
 3239SOL    HW111614   5.027  13.587   1.002
 3239SOL    HW211615   5.109  13.598   0.875
 3240SOL     OW11616  10.427   2.995   1.148
 3240SOL    HW111617  10.371   2.927   1.186
 3240SOL    HW211618  10.449   2.962   1.061
 3241SOL     OW11619  12.981   0.266  12.481
 3241SOL    HW111620  12.985   0.170  12.478
 3241SOL    HW211621  13.006   0.294  12.393
 3242SOL     OW11622   3.685   3.464   1.985
 3242SOL    HW111623   3.719   3.390   1.934
 3242SOL    HW211624   3.689   3.435   2.076
 3243SOL     OW11625   1.807   6.482   3.336
 3243SOL    HW111626   1.754   6.473   3.416
 3243SOL    HW211627   1.869   6.552   3.357
 3244SOL     OW11628   5.338  12.570  10.681
 3244SOL    HW111629   5.403  12.640  10.674
 3244SOL    HW211630   5.369  12.514  10.753
 3245SOL     OW11631   8.762  10.536  11.313
 3245SOL    HW111632   8.809  10.599  11.260
 3245SOL    HW211633   8.764  10.573  11.402
 3246SOL     OW11634  12.421  10.770  10.903
 3246SOL    HW111635  12.391  10.718  10.978
 3246SOL    HW211636  12.424  10.860  10.936
 3247SOL     OW11637  13.237  13.579   5.949
 3247SOL    HW111638  13.182  13.502   5.934
 3247SOL    HW211639  13.223  13.634   5.871
 3248SOL     OW11640   3.181   8.200   9.848
 3248SOL    HW111641   3.202   8.110   9.824
 3248SOL    HW211642   3.263   8.236   9.881
 3249SOL     OW11643   1.001   6.881   5.091
 3249SOL    HW111644   1.001   6.785   5.095
 3249SOL    HW211645   1.091   6.904   5.066
 3250SOL     OW11646   9.937   7.652   8.685
 3250SOL    HW111647   9.913   7.739   8.654
 3250SOL    HW211648   9.856   7.602   8.681
 3251SOL     OW11649  12.085  11.992   3.553
 3251SOL    HW111650  12.142  12.069   3.550
 3251SOL    HW211651  12.002  12.023   3.588
 3252SOL     OW11652   4.290  10.440   3.380
 3252SOL    HW111653   4.302  10.350   3.352
 3252SOL    HW211654   4.323  10.493   3.307
 3253SOL     OW11655   5.674   9.427   7.242
 3253SOL    HW111656   5.593   9.386   7.212
 3253SOL    HW211657   5.742   9.392   7.184
 3254SOL     OW11658   1.993   4.801   2.867
 3254SOL    HW111659   2.035   4.825   2.950
 3254SOL    HW211660   1.901   4.785   2.890
 3255SOL     OW11661   0.151  12.100  12.737
 3255SOL    HW111662   0.243  12.081  12.753
 3255SOL    HW211663   0.146  12.119  12.643
 3256SOL     OW11664   5.343   4.274   5.465
 3256SOL    HW111665   5.335   4.182   5.490
 3256SOL    HW211666   5.284   4.284   5.390
 3257SOL     OW11667   9.626   1.934  11.090
 3257SOL    HW111668   9.688   1.953  11.161
 3257SOL    HW211669   9.677   1.884  11.027
 3258SOL     OW11670   0.278  10.446   6.697
 3258SOL    HW111671   0.308  10.355   6.700
 3258SOL    HW211672   0.237  10.455   6.611
 3259SOL     OW11673   0.329   1.015   3.326
 3259SOL    HW111674   0.295   0.977   3.245
 3259SOL    HW211675   0.346   1.107   3.303
 3260SOL     OW11676  13.133  14.410   1.997
 3260SOL    HW111677  13.168  14.412   2.086
 3260SOL    HW211678  13.123  14.502   1.972
 3261SOL     OW11679  10.555  14.612   4.274
 3261SOL    HW111680  10.472  14.580   4.307
 3261SOL    HW211681  10.619  14.545   4.298
 3262SOL     OW11682   7.042   5.960  11.990
 3262SOL    HW111683   6.966   6.016  11.972
 3262SOL    HW211684   7.024   5.879  11.943
 3263SOL     OW11685   3.677   5.445  10.083
 3263SOL    HW111686   3.669   5.489  10.167
 3263SOL    HW211687   3.737   5.500  10.032
 3264SOL     OW11688  12.606   5.717   1.123
 3264SOL    HW111689  12.563   5.797   1.095
 3264SOL    HW211690  12.538   5.650   1.119
 3265SOL     OW11691   9.810   9.516  12.782
 3265SOL    HW111692   9.722   9.540  12.754
 3265SOL    HW211693   9.867   9.581  12.741
 3266SOL     OW11694  10.282   9.381   1.234
 3266SOL    HW111695  10.362   9.426   1.261
 3266SOL    HW211696  10.212   9.444   1.253
 3267SOL     OW11697  14.204  14.578  13.680
 3267SOL    HW111698  14.227  14.499  13.631
 3267SOL    HW211699  14.220  14.555  13.772
 3268SOL     OW11700   3.145  14.278   1.925
 3268SOL    HW111701   3.186  14.300   1.841
 3268SOL    HW211702   3.116  14.187   1.914
 3269SOL     OW11703  13.802   0.872   4.028
 3269SOL    HW111704  13.838   0.892   3.941
 3269SOL    HW211705  13.733   0.808   4.011
 3270SOL     OW11706  14.383   0.744  12.283
 3270SOL    HW111707  14.365   0.810  12.349
 3270SOL    HW211708  14.449   0.687  12.323
 3271SOL     OW11709  11.038   8.451   7.075
 3271SOL    HW111710  11.098   8.376   7.068
 3271SOL    HW211711  11.044   8.478   7.166
 3272SOL     OW11712  14.189   3.924   3.614
 3272SOL    HW111713  14.178   3.841   3.568
 3272SOL    HW211714  14.213   3.899   3.704
 3273SOL     OW11715  10.852  10.938   0.584
 3273SOL    HW111716  10.865  10.855   0.630
 3273SOL    HW211717  10.893  10.924   0.499
 3274SOL     OW11718  10.159   2.757   8.268
 3274SOL    HW111719  10.228   2.692   8.282
 3274SOL    HW211720  10.113   2.727   8.190
 3275SOL     OW11721   2.360   3.829   4.085
 3275SOL    HW111722   2.368   3.921   4.110
 3275SOL    HW211723   2.306   3.829   4.007
 3276SOL     OW11724  14.332  11.766   7.700
 3276SOL    HW111725  14.297  11.771   7.789
 3276SOL    HW211726  14.254  11.760   7.645
 3277SOL     OW11727   0.864  13.502   0.124
 3277SOL    HW111728   0.878  13.551   0.043
 3277SOL    HW211729   0.850  13.569   0.191
 3278SOL     OW11730   8.885  14.063   2.000
 3278SOL    HW111731   8.917  14.098   2.083
 3278SOL    HW211732   8.868  14.141   1.947
 3279SOL     OW11733   6.665  12.303   2.846
 3279SOL    HW111734   6.732  12.353   2.893
 3279SOL    HW211735   6.624  12.249   2.913
 3280SOL     OW11736  13.690   7.360   2.946
 3280SOL    HW111737  13.755   7.306   2.902
 3280SOL    HW211738  13.630   7.386   2.876
 3281SOL     OW11739   0.415   8.893  14.754
 3281SOL    HW111740   0.459   8.977  14.738
 3281SOL    HW211741   0.462   8.831  14.698
 3282SOL     OW11742   5.916   4.824   4.956
 3282SOL    HW111743   5.932   4.746   5.010
 3282SOL    HW211744   5.990   4.825   4.895
 3283SOL     OW11745   2.167   8.785  13.153
 3283SOL    HW111746   2.209   8.867  13.129
 3283SOL    HW211747   2.184   8.777  13.247
 3284SOL     OW11748   9.269   3.037  10.169
 3284SOL    HW111749   9.331   3.027  10.097
 3284SOL    HW211750   9.207   3.103  10.138
 3285SOL     OW11751  14.648  12.569   5.209
 3285SOL    HW111752  14.610  12.587   5.295
 3285SOL    HW211753  14.640  12.474   5.198
 3286SOL     OW11754   0.587   0.968   2.797
 3286SOL    HW111755   0.672   0.998   2.830
 3286SOL    HW211756   0.524   0.996   2.863
 3287SOL     OW11757   8.215  10.521   3.328
 3287SOL    HW111758   8.269  10.580   3.276
 3287SOL    HW211759   8.133  10.568   3.340
 3288SOL     OW11760   0.488   2.100   4.178
 3288SOL    HW111761   0.502   2.138   4.092
 3288SOL    HW211762   0.475   2.176   4.236
 3289SOL     OW11763   3.260   7.232   1.147
 3289SOL    HW111764   3.182   7.203   1.099
 3289SOL    HW211765   3.329   7.171   1.119
 3290SOL     OW11766  12.128   2.860  14.303
 3290SOL    HW111767  12.100   2.770  14.283
 3290SOL    HW211768  12.087   2.914  14.236
 3291SOL     OW11769   3.378   7.628   6.079
 3291SOL    HW111770   3.404   7.595   5.993
 3291SOL    HW211771   3.286   7.653   6.069
 3292SOL     OW11772   9.553  10.513   9.087
 3292SOL    HW111773   9.493  10.560   9.145
 3292SOL    HW211774   9.588  10.442   9.141
 3293SOL     OW11775   7.268   7.990   8.649
 3293SOL    HW111776   7.231   7.976   8.562
 3293SOL    HW211777   7.195   8.017   8.703
 3294SOL     OW11778   6.360   8.090   6.604
 3294SOL    HW111779   6.424   8.036   6.558
 3294SOL    HW211780   6.367   8.063   6.695
 3295SOL     OW11781  13.611   6.188   5.677
 3295SOL    HW111782  13.642   6.119   5.736
 3295SOL    HW211783  13.519   6.200   5.701
 3296SOL     OW11784   2.869   2.146   8.772
 3296SOL    HW111785   2.960   2.163   8.796
 3296SOL    HW211786   2.874   2.107   8.685
 3297SOL     OW11787   6.021   6.495  14.568
 3297SOL    HW111788   5.999   6.402  14.572
 3297SOL    HW211789   5.937   6.540  14.569
 3298SOL     OW11790   1.780  13.642   6.719
 3298SOL    HW111791   1.756  13.654   6.628
 3298SOL    HW211792   1.702  13.603   6.760
 3299SOL     OW11793   3.841   9.486   8.167
 3299SOL    HW111794   3.823   9.572   8.206
 3299SOL    HW211795   3.921   9.456   8.210
 3300SOL     OW11796  12.340  11.721   4.946
 3300SOL    HW111797  12.412  11.753   4.891
 3300SOL    HW211798  12.262  11.736   4.893
 3301SOL     OW11799   7.988   7.115  13.829
 3301SOL    HW111800   7.901   7.154  13.833
 3301SOL    HW211801   7.988   7.062  13.749
 3302SOL     OW11802  12.648   2.158   3.852
 3302SOL    HW111803  12.703   2.088   3.889
 3302SOL    HW211804  12.708   2.209   3.797
 3303SOL     OW11805   1.802  14.105  12.454
 3303SOL    HW111806   1.798  14.109  12.358
 3303SOL    HW211807   1.809  14.011  12.473
 3304SOL     OW11808   3.586   2.323   7.966
 3304SOL    HW111809   3.554   2.319   8.057
 3304SOL    HW211810   3.510   2.355   7.917
 3305SOL     OW11811   1.762   4.238   8.863
 3305SOL    HW111812   1.765   4.159   8.917
 3305SOL    HW211813   1.791   4.209   8.776
 3306SOL     OW11814   5.554   3.006  10.602
 3306SOL    HW111815   5.647   3.021  10.586
 3306SOL    HW211816   5.510   3.046  10.527
 3307SOL     OW11817  13.227   8.774  10.761
 3307SOL    HW111818  13.298   8.838  10.754
 3307SOL    HW211819  13.222   8.734  10.674
 3308SOL     OW11820  14.390   4.308   9.018
 3308SOL    HW111821  14.476   4.311   9.059
 3308SOL    HW211822  14.345   4.386   9.052
 3309SOL     OW11823  12.469   6.754   1.973
 3309SOL    HW111824  12.558   6.743   2.008
 3309SOL    HW211825  12.457   6.848   1.967
 3310SOL     OW11826   3.011   8.212   5.920
 3310SOL    HW111827   2.932   8.243   5.876
 3310SOL    HW211828   3.070   8.187   5.848
 3311SOL     OW11829   5.435   1.963  12.672
 3311SOL    HW111830   5.487   1.883  12.677
 3311SOL    HW211831   5.426   1.980  12.579
 3312SOL     OW11832   4.182  14.826   1.931
 3312SOL    HW111833   4.223  14.752   1.886
 3312SOL    HW211834   4.189   0.017   1.869
 3313SOL     OW11835  13.398   4.945  14.466
 3313SOL    HW111836  13.352   4.969  14.385
 3313SOL    HW211837  13.488   4.974  14.453
 3314SOL     OW11838   8.009  10.787  10.103
 3314SOL    HW111839   8.092  10.815  10.142
 3314SOL    HW211840   7.947  10.790  10.176
 3315SOL     OW11841  10.384   7.896   4.304
 3315SOL    HW111842  10.312   7.841   4.274
 3315SOL    HW211843  10.405   7.863   4.391
 3316SOL     OW11844   3.450   3.778   7.958
 3316SOL    HW111845   3.489   3.850   7.908
 3316SOL    HW211846   3.379   3.819   8.008
 3317SOL     OW11847   4.578   9.796   3.362
 3317SOL    HW111848   4.578   9.831   3.273
 3317SOL    HW211849   4.652   9.839   3.404
 3318SOL     OW11850   4.322   4.480  12.551
 3318SOL    HW111851   4.237   4.522  12.538
 3318SOL    HW211852   4.360   4.476  12.464
 3319SOL     OW11853   7.331  13.213   5.596
 3319SOL    HW111854   7.386  13.136   5.611
 3319SOL    HW211855   7.371  13.256   5.521
 3320SOL     OW11856   2.656   6.104   1.564
 3320SOL    HW111857   2.600   6.097   1.641
 3320SOL    HW211858   2.635   6.026   1.512
 3321SOL     OW11859  10.655  13.497   9.349
 3321SOL    HW111860  10.619  13.553   9.418
 3321SOL    HW211861  10.661  13.410   9.390
 3322SOL     OW11862  12.803   7.552   8.664
 3322SOL    HW111863  12.787   7.630   8.612
 3322SOL    HW211864  12.801   7.582   8.755
 3323SOL     OW11865   2.321   5.575  10.863
 3323SOL    HW111866   2.372   5.642  10.908
 3323SOL    HW211867   2.310   5.610  10.774
 3324SOL     OW11868   1.475   5.281   3.670
 3324SOL    HW111869   1.477   5.267   3.765
 3324SOL    HW211870   1.567   5.290   3.645
 3325SOL     OW11871   6.344   7.717  10.550
 3325SOL    HW111872   6.420   7.682  10.503
 3325SOL    HW211873   6.269   7.691  10.497
 3326SOL     OW11874  14.392  14.563   5.861
 3326SOL    HW111875  14.349  14.502   5.920
 3326SOL    HW211876  14.334  14.568   5.784
 3327SOL     OW11877  10.424  14.329   7.557
 3327SOL    HW111878  10.390  14.288   7.478
 3327SOL    HW211879  10.519  14.335   7.542
 3328SOL     OW11880   2.684  13.784   6.606
 3328SOL    HW111881   2.731  13.785   6.522
 3328SOL    HW211882   2.593  13.801   6.582
 3329SOL     OW11883   4.992   2.511   1.669
 3329SOL    HW111884   5.010   2.593   1.624
 3329SOL    HW211885   4.936   2.536   1.743
 3330SOL     OW11886   9.005  13.333   8.710
 3330SOL    HW111887   9.024  13.240   8.726
 3330SOL    HW211888   9.051  13.379   8.779
 3331SOL     OW11889  14.731  12.960   0.501
 3331SOL    HW111890  14.771  12.989   0.583
 3331SOL    HW211891  14.782  12.884   0.475
 3332SOL     OW11892  11.836  10.225  13.732
 3332SOL    HW111893  11.840  10.211  13.637
 3332SOL    HW211894  11.859  10.317  13.743
 3333SOL     OW11895   5.150   9.983   8.233
 3333SOL    HW111896   5.108   9.899   8.212
 3333SOL    HW211897   5.079  10.047   8.231
 3334SOL     OW11898   2.504   7.455  14.567
 3334SOL    HW111899   2.573   7.499  14.517
 3334SOL    HW211900   2.538   7.450  14.656
 3335SOL     OW11901   8.139   9.579   9.608
 3335SOL    HW111902   8.135   9.665   9.566
 3335SOL    HW211903   8.212   9.535   9.565
 3336SOL     OW11904   6.951   4.274   3.590
 3336SOL    HW111905   6.875   4.216   3.583
 3336SOL    HW211906   6.972   4.275   3.683
 3337SOL     OW11907   4.588  10.024   1.295
 3337SOL    HW111908   4.512  10.082   1.303
 3337SOL    HW211909   4.558   9.951   1.241
 3338SOL     OW11910   2.588   2.601  11.837
 3338SOL    HW111911   2.493   2.594  11.848
 3338SOL    HW211912   2.620   2.511  11.852
 3339SOL     OW11913   3.881  12.482   0.497
 3339SOL    HW111914   3.828  12.426   0.440
 3339SOL    HW211915   3.902  12.426   0.572
 3340SOL     OW11916  13.534   7.354   3.359
 3340SOL    HW111917  13.506   7.338   3.449
 3340SOL    HW211918  13.490   7.436   3.335
 3341SOL     OW11919   3.910  12.369  12.477
 3341SOL    HW111920   3.973  12.428  12.435
 3341SOL    HW211921   3.935  12.371  12.570
 3342SOL     OW11922   9.754   1.545  13.625
 3342SOL    HW111923   9.669   1.560  13.666
 3342SOL    HW211924   9.773   1.453  13.641
 3343SOL     OW11925  14.753  12.283  10.379
 3343SOL    HW111926  14.663  12.252  10.383
 3343SOL    HW211927  14.774  12.308  10.469
 3344SOL     OW11928   6.117   4.619   4.880
 3344SOL    HW111929   6.185   4.617   4.813
 3344SOL    HW211930   6.165   4.619   4.963
 3345SOL     OW11931   8.219   8.445  14.071
 3345SOL    HW111932   8.289   8.401  14.022
 3345SOL    HW211933   8.256   8.456  14.159
 3346SOL     OW11934  10.394   7.971   1.921
 3346SOL    HW111935  10.440   7.983   2.003
 3346SOL    HW211936  10.457   7.928   1.863
 3347SOL     OW11937   9.620   0.125   4.012
 3347SOL    HW111938   9.637   0.090   3.925
 3347SOL    HW211939   9.528   0.103   4.029
 3348SOL     OW11940   6.602  10.483   6.768
 3348SOL    HW111941   6.533  10.421   6.791
 3348SOL    HW211942   6.664  10.432   6.716
 3349SOL     OW11943  13.513  13.489  14.489
 3349SOL    HW111944  13.454  13.560  14.516
 3349SOL    HW211945  13.600  13.527  14.496
 3350SOL     OW11946   8.505   8.048   5.275
 3350SOL    HW111947   8.587   8.060   5.322
 3350SOL    HW211948   8.486   7.954   5.283
 3351SOL     OW11949  10.860  10.063  12.386
 3351SOL    HW111950  10.953  10.045  12.372
 3351SOL    HW211951  10.832  10.106  12.306
 3352SOL     OW11952   4.206   1.796   6.643
 3352SOL    HW111953   4.155   1.818   6.565
 3352SOL    HW211954   4.182   1.705   6.661
 3353SOL     OW11955   7.465   8.062   2.153
 3353SOL    HW111956   7.524   8.082   2.226
 3353SOL    HW211957   7.427   8.147   2.130
 3354SOL     OW11958  12.438  13.877   9.719
 3354SOL    HW111959  12.481  13.792   9.722
 3354SOL    HW211960  12.436  13.906   9.810
 3355SOL     OW11961   8.761   2.964   3.087
 3355SOL    HW111962   8.763   3.031   3.019
 3355SOL    HW211963   8.836   2.985   3.144
 3356SOL     OW11964   3.765   9.939   1.835
 3356SOL    HW111965   3.786   9.887   1.757
 3356SOL    HW211966   3.747   9.874   1.903
 3357SOL     OW11967   0.449   8.404   8.637
 3357SOL    HW111968   0.528   8.363   8.603
 3357SOL    HW211969   0.473   8.437   8.724
 3358SOL     OW11970   7.547   3.198  11.357
 3358SOL    HW111971   7.597   3.233  11.430
 3358SOL    HW211972   7.489   3.133  11.396
 3359SOL     OW11973   1.999   4.997   6.481
 3359SOL    HW111974   2.085   5.028   6.455
 3359SOL    HW211975   2.010   4.965   6.570
 3360SOL     OW11976   2.528   9.746   3.741
 3360SOL    HW111977   2.448   9.700   3.716
 3360SOL    HW211978   2.526   9.827   3.690
 3361SOL     OW11979   5.878   7.900   3.547
 3361SOL    HW111980   5.892   7.816   3.589
 3361SOL    HW211981   5.955   7.952   3.569
 3362SOL     OW11982   8.460  11.874  14.841
 3362SOL    HW111983   8.402  11.815  14.793
 3362SOL    HW211984   8.548  11.838  14.828
 3363SOL     OW11985  13.105  11.537   2.234
 3363SOL    HW111986  13.071  11.604   2.293
 3363SOL    HW211987  13.170  11.582   2.180
 3364SOL     OW11988   2.964   8.004   1.468
 3364SOL    HW111989   3.020   8.005   1.545
 3364SOL    HW211990   2.875   7.996   1.502
 3365SOL     OW11991  14.431   7.057   9.296
 3365SOL    HW111992  14.424   6.968   9.329
 3365SOL    HW211993  14.523   7.069   9.274
 3366SOL     OW11994   1.626   2.816  14.399
 3366SOL    HW111995   1.536   2.840  14.378
 3366SOL    HW211996   1.639   2.730  14.358
 3367SOL     OW11997   0.360   8.262  14.025
 3367SOL    HW111998   0.426   8.212  13.976
 3367SOL    HW211999   0.305   8.195  14.065
 3368SOL     OW12000  12.972   5.205  10.676
 3368SOL    HW112001  12.944   5.296  10.682
 3368SOL    HW212002  12.912   5.166  10.612
 3369SOL     OW12003   2.261  13.511   9.047
 3369SOL    HW112004   2.256  13.427   9.002
 3369SOL    HW212005   2.171  13.533   9.068
 3370SOL     OW12006  10.756  10.245  13.080
 3370SOL    HW112007  10.849  10.247  13.058
 3370SOL    HW212008  10.723  10.166  13.038
 3371SOL     OW12009   7.566  14.617   1.393
 3371SOL    HW112010   7.602  14.528   1.401
 3371SOL    HW212011   7.554  14.630   1.299
 3372SOL     OW12012   6.085   7.092   9.102
 3372SOL    HW112013   6.051   7.017   9.055
 3372SOL    HW212014   6.071   7.071   9.194
 3373SOL     OW12015   3.776   3.900  14.374
 3373SOL    HW112016   3.806   3.898  14.283
 3373SOL    HW212017   3.816   3.979  14.411
 3374SOL     OW12018   4.925  10.080   6.133
 3374SOL    HW112019   4.927  10.102   6.226
 3374SOL    HW212020   4.938  10.163   6.088
 3375SOL     OW12021   8.764   5.772   2.482
 3375SOL    HW112022   8.701   5.718   2.433
 3375SOL    HW212023   8.717   5.852   2.502
 3376SOL     OW12024   2.775   4.306   3.635
 3376SOL    HW112025   2.792   4.383   3.690
 3376SOL    HW212026   2.857   4.291   3.589
 3377SOL     OW12027   2.167   6.895   4.680
 3377SOL    HW112028   2.217   6.940   4.612
 3377SOL    HW212029   2.231   6.872   4.747
 3378SOL     OW12030   6.818  12.739   4.618
 3378SOL    HW112031   6.861  12.820   4.644
 3378SOL    HW212032   6.882  12.695   4.562
 3379SOL     OW12033   1.787   6.680   1.277
 3379SOL    HW112034   1.727   6.632   1.220
 3379SOL    HW212035   1.855   6.714   1.218
 3380SOL     OW12036   9.113   6.938   5.650
 3380SOL    HW112037   9.066   7.020   5.657
 3380SOL    HW212038   9.056   6.873   5.691
 3381SOL     OW12039  14.125   9.878   5.500
 3381SOL    HW112040  14.199   9.873   5.440
 3381SOL    HW212041  14.073   9.800   5.482
 3382SOL     OW12042   4.465   4.365   9.715
 3382SOL    HW112043   4.467   4.320   9.800
 3382SOL    HW212044   4.505   4.450   9.732
 3383SOL     OW12045  12.118   1.804   4.667
 3383SOL    HW112046  12.207   1.826   4.638
 3383SOL    HW212047  12.077   1.889   4.682
 3384SOL     OW12048   3.242  12.725   7.241
 3384SOL    HW112049   3.334  12.706   7.260
 3384SOL    HW212050   3.233  12.713   7.147
 3385SOL     OW12051   8.958  10.101  12.228
 3385SOL    HW112052   8.928  10.019  12.266
 3385SOL    HW212053   8.966  10.082  12.134
 3386SOL     OW12054  12.891   7.116   1.740
 3386SOL    HW112055  12.933   7.181   1.797
 3386SOL    HW212056  12.853   7.052   1.800
 3387SOL     OW12057   5.890   0.965  12.622
 3387SOL    HW112058   5.963   0.961  12.560
 3387SOL    HW212059   5.929   0.941  12.706
 3388SOL     OW12060   8.880   7.253  13.951
 3388SOL    HW112061   8.912   7.167  13.979
 3388SOL    HW212062   8.950   7.313  13.975
 3389SOL     OW12063   4.317  12.289   2.292
 3389SOL    HW112064   4.413  12.280   2.295
 3389SOL    HW212065   4.285  12.201   2.273
 3390SOL     OW12066  12.648  13.732   5.935
 3390SOL    HW112067  12.588  13.791   5.981
 3390SOL    HW212068  12.599  13.702   5.859
 3391SOL     OW12069   3.334  12.962   1.079
 3391SOL    HW112070   3.258  12.980   1.135
 3391SOL    HW212071   3.366  13.049   1.055
 3392SOL     OW12072  14.203   2.676   1.954
 3392SOL    HW112073  14.291   2.649   1.979
 3392SOL    HW212074  14.158   2.691   2.037
 3393SOL     OW12075   5.454   9.928  10.808
 3393SOL    HW112076   5.391   9.856  10.815
 3393SOL    HW212077   5.489   9.938  10.896
 3394SOL     OW12078   2.537   4.843   2.583
 3394SOL    HW112079   2.456   4.886   2.609
 3394SOL    HW212080   2.604   4.911   2.590
 3395SOL     OW12081   8.000  11.766   9.917
 3395SOL    HW112082   7.963  11.850   9.890
 3395SOL    HW212083   8.028  11.725   9.835
 3396SOL     OW12084   3.934  10.955   9.630
 3396SOL    HW112085   3.875  10.893   9.673
 3396SOL    HW212086   4.022  10.930   9.660
 3397SOL     OW12087   8.108   7.663   1.540
 3397SOL    HW112088   8.137   7.696   1.625
 3397SOL    HW212089   8.107   7.568   1.550
 3398SOL     OW12090   2.980   5.611   9.072
 3398SOL    HW112091   2.992   5.603   8.977
 3398SOL    HW212092   2.904   5.556   9.092
 3399SOL     OW12093   1.763   6.215   6.501
 3399SOL    HW112094   1.707   6.289   6.477
 3399SOL    HW212095   1.828   6.253   6.561
 3400SOL     OW12096   0.892  14.651  12.334
 3400SOL    HW112097   0.826  14.608  12.390
 3400SOL    HW212098   0.966  14.591  12.334
 3401SOL     OW12099   2.822  14.571  14.364
 3401SOL    HW112100   2.754  14.624  14.406
 3401SOL    HW212101   2.784  14.547  14.279
 3402SOL     OW12102   0.695  10.692   3.145
 3402SOL    HW112103   0.661  10.753   3.210
 3402SOL    HW212104   0.711  10.746   3.067
 3403SOL     OW12105   7.059   9.456  11.978
 3403SOL    HW112106   7.096   9.386  11.925
 3403SOL    HW212107   7.128   9.523  11.981
 3404SOL     OW12108   6.361   1.204  10.916
 3404SOL    HW112109   6.446   1.162  10.931
 3404SOL    HW212110   6.344   1.252  10.997
 3405SOL     OW12111   1.916   7.569  10.857
 3405SOL    HW112112   1.956   7.561  10.943
 3405SOL    HW212113   1.984   7.542  10.795
 3406SOL     OW12114   9.507   7.731   2.256
 3406SOL    HW112115   9.549   7.807   2.217
 3406SOL    HW212116   9.415   7.755   2.263
 3407SOL     OW12117   5.194  14.781   5.958
 3407SOL    HW112118   5.202  14.875   5.941
 3407SOL    HW212119   5.275  14.744   5.922
 3408SOL     OW12120  10.975  11.182   0.637
 3408SOL    HW112121  11.045  11.158   0.698
 3408SOL    HW212122  10.933  11.099   0.614
 3409SOL     OW12123   3.772   3.265   9.808
 3409SOL    HW112124   3.780   3.254   9.902
 3409SOL    HW212125   3.842   3.211   9.771
 3410SOL     OW12126   8.297   9.715  10.601
 3410SOL    HW112127   8.260   9.794  10.640
 3410SOL    HW212128   8.385   9.708  10.638
 3411SOL     OW12129   2.584  13.682  10.477
 3411SOL    HW112130   2.579  13.736  10.399
 3411SOL    HW212131   2.523  13.722  10.539
 3412SOL     OW12132   0.255   4.933   2.089
 3412SOL    HW112133   0.335   4.887   2.117
 3412SOL    HW212134   0.248   5.007   2.149
 3413SOL     OW12135   3.678   2.816   9.493
 3413SOL    HW112136   3.731   2.748   9.451
 3413SOL    HW212137   3.618   2.769   9.550
 3414SOL     OW12138   3.963  14.632   4.201
 3414SOL    HW112139   3.887  14.582   4.172
 3414SOL    HW212140   3.939  14.723   4.185
 3415SOL     OW12141  12.380   2.470   2.360
 3415SOL    HW112142  12.309   2.476   2.296
 3415SOL    HW212143  12.340   2.429   2.437
 3416SOL     OW12144   2.640   3.940  11.773
 3416SOL    HW112145   2.692   3.860  11.781
 3416SOL    HW212146   2.576   3.934  11.844
 3417SOL     OW12147  14.026   5.968  10.943
 3417SOL    HW112148  14.069   5.964  10.858
 3417SOL    HW212149  13.935   5.990  10.923
 3418SOL     OW12150  12.915   5.612   4.669
 3418SOL    HW112151  12.931   5.649   4.756
 3418SOL    HW212152  13.001   5.578   4.642
 3419SOL     OW12153   5.149   0.144   4.027
 3419SOL    HW112154   5.229   0.152   3.975
 3419SOL    HW212155   5.180   0.144   4.118
 3420SOL     OW12156   5.649   8.615  10.032
 3420SOL    HW112157   5.612   8.645  10.115
 3420SOL    HW212158   5.744   8.629  10.042
 3421SOL     OW12159  10.356  10.927   6.361
 3421SOL    HW112160  10.402  10.914   6.278
 3421SOL    HW212161  10.290  10.858   6.362
 3422SOL     OW12162   3.192  11.358  11.080
 3422SOL    HW112163   3.101  11.327  11.070
 3422SOL    HW212164   3.228  11.355  10.992
 3423SOL     OW12165  14.853  10.089   3.919
 3423SOL    HW112166  14.855  10.124   3.830
 3423SOL    HW212167   0.062  10.087   3.946
 3424SOL     OW12168   5.731   6.167   8.609
 3424SOL    HW112169   5.728   6.125   8.523
 3424SOL    HW212170   5.823   6.187   8.623
 3425SOL     OW12171  14.717   4.207  11.488
 3425SOL    HW112172  14.732   4.289  11.535
 3425SOL    HW212173  14.622   4.196  11.487
 3426SOL     OW12174   1.823  10.904   0.453
 3426SOL    HW112175   1.857  10.941   0.371
 3426SOL    HW212176   1.728  10.912   0.445
 3427SOL     OW12177   9.395  14.314  10.821
 3427SOL    HW112178   9.435  14.372  10.755
 3427SOL    HW212179   9.302  14.335  10.816
 3428SOL     OW12180   9.895   0.273   2.312
 3428SOL    HW112181   9.829   0.300   2.376
 3428SOL    HW212182   9.851   0.282   2.228
 3429SOL     OW12183   8.805   6.694   3.818
 3429SOL    HW112184   8.756   6.646   3.751
 3429SOL    HW212185   8.800   6.638   3.895
 3430SOL     OW12186  10.139  14.714  12.427
 3430SOL    HW112187  10.182  14.796  12.402
 3430SOL    HW212188  10.188  14.684  12.503
 3431SOL     OW12189  14.738   8.747   7.588
 3431SOL    HW112190  14.649   8.779   7.571
 3431SOL    HW212191  14.758   8.776   7.677
 3432SOL     OW12192   9.879  10.155   6.006
 3432SOL    HW112193   9.959  10.103   6.017
 3432SOL    HW212194   9.864  10.156   5.911
 3433SOL     OW12195  10.898   4.767   8.325
 3433SOL    HW112196  10.942   4.737   8.404
 3433SOL    HW212197  10.805   4.754   8.343
 3434SOL     OW12198  12.071  10.641   4.716
 3434SOL    HW112199  12.153  10.664   4.760
 3434SOL    HW212200  12.097  10.578   4.649
 3435SOL     OW12201   9.079   7.518  14.714
 3435SOL    HW112202   9.119   7.543  14.798
 3435SOL    HW212203   9.042   7.599  14.680
 3436SOL     OW12204   1.625   2.770   7.056
 3436SOL    HW112205   1.554   2.781   7.119
 3436SOL    HW212206   1.692   2.833   7.085
 3437SOL     OW12207   5.625  10.867   6.908
 3437SOL    HW112208   5.685  10.923   6.858
 3437SOL    HW212209   5.576  10.927   6.964
 3438SOL     OW12210   5.032   2.736   7.097
 3438SOL    HW112211   5.008   2.779   7.015
 3438SOL    HW212212   5.128   2.745   7.101
 3439SOL     OW12213   9.570   1.643   1.109
 3439SOL    HW112214   9.636   1.710   1.091
 3439SOL    HW212215   9.616   1.560   1.096
 3440SOL     OW12216   5.940   3.111  13.429
 3440SOL    HW112217   5.957   3.140  13.340
 3440SOL    HW212218   5.976   3.180  13.485
 3441SOL     OW12219   5.442  14.449   9.835
 3441SOL    HW112220   5.501  14.524   9.831
 3441SOL    HW212221   5.463  14.408   9.919
 3442SOL     OW12222   1.648  12.288   7.427
 3442SOL    HW112223   1.728  12.341   7.418
 3442SOL    HW212224   1.623  12.267   7.337
 3443SOL     OW12225  10.547  13.151   7.940
 3443SOL    HW112226  10.519  13.137   7.849
 3443SOL    HW212227  10.487  13.217   7.973
 3444SOL     OW12228  12.732   6.325   5.017
 3444SOL    HW112229  12.783   6.245   5.032
 3444SOL    HW212230  12.643   6.303   5.045
 3445SOL     OW12231   7.558   4.691  11.105
 3445SOL    HW112232   7.643   4.662  11.071
 3445SOL    HW212233   7.504   4.704  11.027
 3446SOL     OW12234  12.542   9.815   5.605
 3446SOL    HW112235  12.501   9.791   5.522
 3446SOL    HW212236  12.622   9.763   5.608
 3447SOL     OW12237   8.508   6.535   5.360
 3447SOL    HW112238   8.539   6.448   5.338
 3447SOL    HW212239   8.413   6.525   5.368
 3448SOL     OW12240   9.638   6.330   3.808
 3448SOL    HW112241   9.718   6.286   3.779
 3448SOL    HW212242   9.571   6.302   3.746
 3449SOL     OW12243  12.675  10.854   1.422
 3449SOL    HW112244  12.627  10.813   1.350
 3449SOL    HW212245  12.676  10.947   1.400
 3450SOL     OW12246   2.309   8.705   0.702
 3450SOL    HW112247   2.265   8.621   0.691
 3450SOL    HW212248   2.363   8.715   0.624
 3451SOL     OW12249   4.358   0.431   2.502
 3451SOL    HW112250   4.388   0.436   2.593
 3451SOL    HW212251   4.290   0.499   2.496
 3452SOL     OW12252   6.788  13.823   4.865
 3452SOL    HW112253   6.848  13.876   4.813
 3452SOL    HW212254   6.828  13.736   4.869
 3453SOL     OW12255   8.481   7.256   0.677
 3453SOL    HW112256   8.465   7.345   0.709
 3453SOL    HW212257   8.394   7.215   0.675
 3454SOL     OW12258  11.408   8.148   3.771
 3454SOL    HW112259  11.342   8.172   3.706
 3454SOL    HW212260  11.385   8.200   3.848
 3455SOL     OW12261  12.280   7.199   8.368
 3455SOL    HW112262  12.253   7.288   8.392
 3455SOL    HW212263  12.375   7.198   8.380
 3456SOL     OW12264   3.491  13.003  11.937
 3456SOL    HW112265   3.426  13.056  11.984
 3456SOL    HW212266   3.559  12.986  12.002
 3457SOL     OW12267  13.505   6.458   4.902
 3457SOL    HW112268  13.469   6.546   4.895
 3457SOL    HW212269  13.593   6.470   4.936
 3458SOL     OW12270  13.782  14.399   4.125
 3458SOL    HW112271  13.844  14.372   4.058
 3458SOL    HW212272  13.697  14.368   4.092
 3459SOL     OW12273   3.821  14.187   0.419
 3459SOL    HW112274   3.787  14.261   0.369
 3459SOL    HW212275   3.849  14.224   0.502
 3460SOL     OW12276   7.348   3.952  11.738
 3460SOL    HW112277   7.260   3.986  11.723
 3460SOL    HW212278   7.405   4.006  11.683
 3461SOL     OW12279  13.324   2.646   5.090
 3461SOL    HW112280  13.315   2.694   5.173
 3461SOL    HW212281  13.385   2.575   5.111
 3462SOL     OW12282   4.327   9.446   6.873
 3462SOL    HW112283   4.393   9.515   6.881
 3462SOL    HW212284   4.359   9.375   6.928
 3463SOL     OW12285   2.394  12.546   9.201
 3463SOL    HW112286   2.332  12.583   9.264
 3463SOL    HW212287   2.361  12.574   9.115
 3464SOL     OW12288  11.917   8.222  10.970
 3464SOL    HW112289  11.822   8.229  10.960
 3464SOL    HW212290  11.936   8.266  11.052
 3465SOL     OW12291  11.543   5.651   9.758
 3465SOL    HW112292  11.478   5.593   9.718
 3465SOL    HW212293  11.492   5.715   9.807
 3466SOL     OW12294  11.375   0.305   4.406
 3466SOL    HW112295  11.297   0.335   4.359
 3466SOL    HW212296  11.428   0.262   4.339
 3467SOL     OW12297   9.006  10.390  11.821
 3467SOL    HW112298   9.036  10.321  11.762
 3467SOL    HW212299   9.083  10.447  11.831
 3468SOL     OW12300  11.970  11.203  11.964
 3468SOL    HW112301  11.978  11.271  11.897
 3468SOL    HW212302  11.876  11.187  11.970
 3469SOL     OW12303   6.639   8.042  11.763
 3469SOL    HW112304   6.732   8.059  11.780
 3469SOL    HW212305   6.621   8.087  11.680
 3470SOL     OW12306   6.129   6.538  11.056
 3470SOL    HW112307   6.124   6.446  11.030
 3470SOL    HW212308   6.039   6.562  11.079
 3471SOL     OW12309  11.563  12.286  11.305
 3471SOL    HW112310  11.480  12.277  11.353
 3471SOL    HW212311  11.548  12.361  11.246
 3472SOL     OW12312   9.319   1.935   9.714
 3472SOL    HW112313   9.228   1.963   9.701
 3472SOL    HW212314   9.318   1.842   9.694
 3473SOL     OW12315  12.047  10.751   5.757
 3473SOL    HW112316  11.998  10.780   5.834
 3473SOL    HW212317  12.029  10.657   5.751
 3474SOL     OW12318   1.711   6.295   1.980
 3474SOL    HW112319   1.724   6.386   1.957
 3474SOL    HW212320   1.629   6.270   1.936
 3475SOL     OW12321   0.019   6.193   7.264
 3475SOL    HW112322  14.867   6.108   7.238
 3475SOL    HW212323   0.075   6.220   7.191
 3476SOL     OW12324   6.475   5.136  11.456
 3476SOL    HW112325   6.506   5.045  11.461
 3476SOL    HW212326   6.532   5.184  11.516
 3477SOL     OW12327   6.050   6.275   5.339
 3477SOL    HW112328   6.140   6.304   5.356
 3477SOL    HW212329   6.034   6.206   5.403
 3478SOL     OW12330   3.008   7.284   6.556
 3478SOL    HW112331   3.065   7.209   6.573
 3478SOL    HW212332   2.920   7.251   6.573
 3479SOL     OW12333  12.375   2.932  12.016
 3479SOL    HW112334  12.340   2.862  11.961
 3479SOL    HW212335  12.316   3.006  12.002
 3480SOL     OW12336   5.156   3.827   5.928
 3480SOL    HW112337   5.128   3.886   5.998
 3480SOL    HW212338   5.228   3.873   5.886
 3481SOL     OW12339   5.509  12.645  10.046
 3481SOL    HW112340   5.512  12.550  10.055
 3481SOL    HW212341   5.585  12.676  10.096
 3482SOL     OW12342   9.965  11.678   1.104
 3482SOL    HW112343   9.872  11.692   1.088
 3482SOL    HW212344   9.992  11.618   1.034
 3483SOL     OW12345  11.137   9.718  11.103
 3483SOL    HW112346  11.118   9.662  11.179
 3483SOL    HW212347  11.227   9.748  11.118
 3484SOL     OW12348   3.635   2.325   4.390
 3484SOL    HW112349   3.709   2.336   4.450
 3484SOL    HW212350   3.654   2.245   4.342
 3485SOL     OW12351  12.329   9.688  12.905
 3485SOL    HW112352  12.287   9.723  12.984
 3485SOL    HW212353  12.269   9.620  12.875
 3486SOL     OW12354   9.816   2.312  12.675
 3486SOL    HW112355   9.897   2.264  12.660
 3486SOL    HW212356   9.839   2.378  12.741
 3487SOL     OW12357  10.848   7.274  12.370
 3487SOL    HW112358  10.889   7.301  12.452
 3487SOL    HW212359  10.781   7.340  12.353
 3488SOL     OW12360   0.092   2.441  13.052
 3488SOL    HW112361   0.046   2.434  13.135
 3488SOL    HW212362   0.030   2.410  12.987
 3489SOL     OW12363   8.211  11.988  12.520
 3489SOL    HW112364   8.240  11.897  12.513
 3489SOL    HW212365   8.268  12.036  12.460
 3490SOL     OW12366   1.072  14.652  10.348
 3490SOL    HW112367   1.015  14.689  10.280
 3490SOL    HW212368   1.111  14.575  10.307
 3491SOL     OW12369  13.171  13.351   1.827
 3491SOL    HW112370  13.141  13.265   1.798
 3491SOL    HW212371  13.161  13.349   1.922
 3492SOL     OW12372   6.385   8.979   0.540
 3492SOL    HW112373   6.364   9.038   0.612
 3492SOL    HW212374   6.453   8.922   0.575
 3493SOL     OW12375  10.797  12.821   4.510
 3493SOL    HW112376  10.702  12.816   4.521
 3493SOL    HW212377  10.822  12.733   4.481
 3494SOL     OW12378  11.196  13.590  13.779
 3494SOL    HW112379  11.106  13.616  13.762
 3494SOL    HW212380  11.220  13.535  13.705
 3495SOL     OW12381   3.405  12.966   8.591
 3495SOL    HW112382   3.437  13.044   8.545
 3495SOL    HW212383   3.483  12.931   8.635
 3496SOL     OW12384   9.903  13.465   5.908
 3496SOL    HW112385   9.887  13.381   5.950
 3496SOL    HW212386   9.834  13.522   5.942
 3497SOL     OW12387   6.129   8.179  11.157
 3497SOL    HW112388   6.080   8.111  11.112
 3497SOL    HW212389   6.220   8.150  11.154
 3498SOL     OW12390   4.971   4.789  14.384
 3498SOL    HW112391   4.945   4.772  14.474
 3498SOL    HW212392   4.901   4.844  14.349
 3499SOL     OW12393   5.936  10.900  12.347
 3499SOL    HW112394   5.881  10.952  12.406
 3499SOL    HW212395   6.023  10.938  12.356
 3500SOL     OW12396  13.036   5.735  11.514
 3500SOL    HW112397  12.951   5.777  11.532
 3500SOL    HW212398  13.064   5.774  11.431
 3501SOL     OW12399   0.052   6.078  13.976
 3501SOL    HW112400  14.846   6.109  13.958
 3501SOL    HW212401   0.074   6.023  13.900
 3502SOL     OW12402  12.451   8.329  10.664
 3502SOL    HW112403  12.377   8.293  10.712
 3502SOL    HW212404  12.494   8.252  10.626
 3503SOL     OW12405  12.766   4.874   2.785
 3503SOL    HW112406  12.791   4.960   2.751
 3503SOL    HW212407  12.714   4.893   2.863
 3504SOL     OW12408   7.893  11.659   1.908
 3504SOL    HW112409   7.962  11.600   1.877
 3504SOL    HW212410   7.934  11.706   1.981
 3505SOL     OW12411   5.024  12.470   2.476
 3505SOL    HW112412   4.968  12.537   2.439
 3505SOL    HW212413   4.965  12.413   2.525
 3506SOL     OW12414   4.171   1.634  14.442
 3506SOL    HW112415   4.261   1.635  14.475
 3506SOL    HW212416   4.145   1.542  14.448
 3507SOL     OW12417   1.586   0.764   4.930
 3507SOL    HW112418   1.503   0.786   4.887
 3507SOL    HW212419   1.609   0.678   4.894
 3508SOL     OW12420  10.006  14.830   9.680
 3508SOL    HW112421   9.988  14.851   9.589
 3508SOL    HW212422   9.920  14.830   9.722
 3509SOL     OW12423   5.562  12.577  13.586
 3509SOL    HW112424   5.503  12.632  13.638
 3509SOL    HW212425   5.504  12.529  13.528
 3510SOL     OW12426  10.250   6.604   2.236
 3510SOL    HW112427  10.318   6.569   2.179
 3510SOL    HW212428  10.284   6.689   2.265
 3511SOL     OW12429  13.500  13.895   4.272
 3511SOL    HW112430  13.595  13.895   4.283
 3511SOL    HW212431  13.487  13.890   4.178
 3512SOL     OW12432  13.271   0.268   2.668
 3512SOL    HW112433  13.182   0.235   2.681
 3512SOL    HW212434  13.318   0.195   2.628
 3513SOL     OW12435   9.089   0.126  11.908
 3513SOL    HW112436   9.062   0.064  11.840
 3513SOL    HW212437   9.111   0.206  11.859
 3514SOL     OW12438   2.880  14.817   7.418
 3514SOL    HW112439   2.961  14.768   7.430
 3514SOL    HW212440   2.894   0.016   7.467
 3515SOL     OW12441   8.404  14.300   8.478
 3515SOL    HW112442   8.356  14.226   8.516
 3515SOL    HW212443   8.496  14.283   8.500
 3516SOL     OW12444   3.359  10.979   2.444
 3516SOL    HW112445   3.376  10.891   2.411
 3516SOL    HW212446   3.438  11.001   2.494
 3517SOL     OW12447  12.362  14.390  10.360
 3517SOL    HW112448  12.268  14.396  10.347
 3517SOL    HW212449  12.396  14.473  10.328
 3518SOL     OW12450  12.093   4.543  14.736
 3518SOL    HW112451  12.119   4.524  14.826
 3518SOL    HW212452  12.037   4.620  14.744
 3519SOL     OW12453   9.689   5.209  13.502
 3519SOL    HW112454   9.666   5.281  13.442
 3519SOL    HW212455   9.772   5.176  13.469
 3520SOL     OW12456  10.466  12.839   5.331
 3520SOL    HW112457  10.411  12.764   5.311
 3520SOL    HW212458  10.453  12.854   5.425
 3521SOL     OW12459   8.260  11.237  10.629
 3521SOL    HW112460   8.300  11.297  10.566
 3521SOL    HW212461   8.216  11.294  10.692
 3522SOL     OW12462   1.849   5.592   3.422
 3522SOL    HW112463   1.909   5.563   3.492
 3522SOL    HW212464   1.906   5.637   3.359
 3523SOL     OW12465   8.386   6.651  10.754
 3523SOL    HW112466   8.434   6.730  10.780
 3523SOL    HW212467   8.455   6.585  10.741
 3524SOL     OW12468   5.369   5.343  10.498
 3524SOL    HW112469   5.446   5.309  10.453
 3524SOL    HW212470   5.308   5.366  10.428
 3525SOL     OW12471  12.561   8.279  11.044
 3525SOL    HW112472  12.594   8.346  10.985
 3525SOL    HW212473  12.618   8.285  11.121
 3526SOL     OW12474  13.077   5.862  10.407
 3526SOL    HW112475  13.065   5.783  10.354
 3526SOL    HW212476  13.025   5.929  10.361
 3527SOL     OW12477  11.774   6.521   7.364
 3527SOL    HW112478  11.757   6.605   7.323
 3527SOL    HW212479  11.707   6.463   7.329
 3528SOL     OW12480  14.007   6.031   1.932
 3528SOL    HW112481  14.023   6.074   2.016
 3528SOL    HW212482  13.926   6.071   1.899
 3529SOL     OW12483   9.823  12.588   4.889
 3529SOL    HW112484   9.799  12.645   4.816
 3529SOL    HW212485   9.745  12.587   4.945
 3530SOL     OW12486  14.114   7.826   6.616
 3530SOL    HW112487  14.057   7.850   6.689
 3530SOL    HW212488  14.150   7.741   6.641
 3531SOL     OW12489  12.537   8.193   7.283
 3531SOL    HW112490  12.505   8.109   7.250
 3531SOL    HW212491  12.463   8.253   7.270
 3532SOL     OW12492   5.222   3.995  14.463
 3532SOL    HW112493   5.270   4.068  14.425
 3532SOL    HW212494   5.238   4.003  14.557
 3533SOL     OW12495  11.320  11.027   2.147
 3533SOL    HW112496  11.297  10.940   2.181
 3533SOL    HW212497  11.409  11.042   2.181
 3534SOL     OW12498  14.179  13.961   5.939
 3534SOL    HW112499  14.228  14.040   5.960
 3534SOL    HW212500  14.089  13.991   5.927
 3535SOL     OW12501   4.518   5.481  14.058
 3535SOL    HW112502   4.472   5.411  14.102
 3535SOL    HW212503   4.599   5.493  14.108
 3536SOL     OW12504  10.382   3.225   6.090
 3536SOL    HW112505  10.319   3.214   6.161
 3536SOL    HW212506  10.444   3.290   6.123
 3537SOL     OW12507  12.699   4.039   5.010
 3537SOL    HW112508  12.607   4.057   4.988
 3537SOL    HW212509  12.723   4.109   5.071
 3538SOL     OW12510  11.544  14.805  10.342
 3538SOL    HW112511  11.449  14.816  10.341
 3538SOL    HW212512  11.563  14.768  10.428
 3539SOL     OW12513  10.273   3.698   6.919
 3539SOL    HW112514  10.243   3.781   6.955
 3539SOL    HW212515  10.312   3.652   6.994
 3540SOL     OW12516  12.470   5.668   4.561
 3540SOL    HW112517  12.551   5.716   4.577
 3540SOL    HW212518  12.412   5.696   4.632
 3541SOL     OW12519  12.824  12.991   3.685
 3541SOL    HW112520  12.778  13.068   3.719
 3541SOL    HW212521  12.833  13.007   3.592
 3542SOL     OW12522  13.578   5.294   2.119
 3542SOL    HW112523  13.639   5.364   2.140
 3542SOL    HW212524  13.493   5.338   2.109
 3543SOL     OW12525  12.697   9.061   2.209
 3543SOL    HW112526  12.718   9.086   2.119
 3543SOL    HW212527  12.778   9.076   2.258
 3544SOL     OW12528   4.722   6.535  10.860
 3544SOL    HW112529   4.685   6.618  10.888
 3544SOL    HW212530   4.815   6.553  10.848
 3545SOL     OW12531   7.820   2.159  12.703
 3545SOL    HW112532   7.732   2.125  12.720
 3545SOL    HW212533   7.866   2.086  12.661
 3546SOL     OW12534  12.037   8.007  11.150
 3546SOL    HW112535  12.053   8.090  11.103
 3546SOL    HW212536  12.117   7.956  11.136
 3547SOL     OW12537   1.784  11.635   6.054
 3547SOL    HW112538   1.747  11.709   6.004
 3547SOL    HW212539   1.875  11.631   6.027
 3548SOL     OW12540   3.289  11.935  12.133
 3548SOL    HW112541   3.209  11.887  12.115
 3548SOL    HW212542   3.260  12.025  12.150
 3549SOL     OW12543   4.628   6.000  12.876
 3549SOL    HW112544   4.573   5.977  12.951
 3549SOL    HW212545   4.643   6.094  12.884
 3550SOL     OW12546  10.092   6.264   8.525
 3550SOL    HW112547  10.123   6.354   8.528
 3550SOL    HW212548  10.020   6.265   8.462
 3551SOL     OW12549   9.832   4.976   4.480
 3551SOL    HW112550   9.738   4.997   4.480
 3551SOL    HW212551   9.852   4.956   4.572
 3552SOL     OW12552   2.106   8.138   4.869
 3552SOL    HW112553   2.020   8.116   4.902
 3552SOL    HW212554   2.091   8.212   4.810
 3553SOL     OW12555  12.805  10.948  12.881
 3553SOL    HW112556  12.740  10.957  12.950
 3553SOL    HW212557  12.835  10.857  12.887
 3554SOL     OW12558   3.516   5.750  10.860
 3554SOL    HW112559   3.571   5.679  10.828
 3554SOL    HW212560   3.522   5.818  10.793
 3555SOL     OW12561   0.961  11.512   9.907
 3555SOL    HW112562   1.033  11.558   9.951
 3555SOL    HW212563   0.962  11.547   9.817
 3556SOL     OW12564   6.937   3.962   7.150
 3556SOL    HW112565   6.848   3.996   7.164
 3556SOL    HW212566   6.994   4.035   7.176
 3557SOL     OW12567  10.585   8.611   7.152
 3557SOL    HW112568  10.552   8.689   7.108
 3557SOL    HW212569  10.517   8.589   7.216
 3558SOL     OW12570   9.003   9.199   9.638
 3558SOL    HW112571   9.072   9.264   9.630
 3558SOL    HW212572   8.922   9.248   9.622
 3559SOL     OW12573   7.013   2.734   2.819
 3559SOL    HW112574   6.942   2.742   2.883
 3559SOL    HW212575   7.091   2.762   2.866
 3560SOL     OW12576  14.776   7.415   1.375
 3560SOL    HW112577  14.784   7.330   1.333
 3560SOL    HW212578  14.696   7.452   1.339
 3561SOL     OW12579  11.081  13.941  11.716
 3561SOL    HW112580  11.143  13.891  11.663
 3561SOL    HW212581  11.002  13.887  11.718
 3562SOL     OW12582  14.436   7.751  13.350
 3562SOL    HW112583  14.409   7.722  13.263
 3562SOL    HW212584  14.506   7.814  13.335
 3563SOL     OW12585   9.433  11.197  12.407
 3563SOL    HW112586   9.449  11.222  12.498
 3563SOL    HW212587   9.340  11.215  12.394
 3564SOL     OW12588   3.056   0.507  11.318
 3564SOL    HW112589   3.063   0.455  11.398
 3564SOL    HW212590   3.073   0.446  11.247
 3565SOL     OW12591   5.197   8.093   8.214
 3565SOL    HW112592   5.221   8.182   8.189
 3565SOL    HW212593   5.148   8.060   8.139
 3566SOL     OW12594  12.321   4.686  10.745
 3566SOL    HW112595  12.349   4.686  10.837
 3566SOL    HW212596  12.231   4.718  10.748
 3567SOL     OW12597   2.197  12.316   1.929
 3567SOL    HW112598   2.170  12.279   1.845
 3567SOL    HW212599   2.246  12.246   1.972
 3568SOL     OW12600   8.701   2.997   4.015
 3568SOL    HW112601   8.716   2.983   4.109
 3568SOL    HW212602   8.656   3.081   4.010
 3569SOL     OW12603   1.186   0.136  13.031
 3569SOL    HW112604   1.173   0.204  13.097
 3569SOL    HW212605   1.276   0.108  13.043
 3570SOL     OW12606  11.053   3.986   2.824
 3570SOL    HW112607  11.057   3.898   2.787
 3570SOL    HW212608  11.097   3.979   2.909
 3571SOL     OW12609   0.892   2.236   0.733
 3571SOL    HW112610   0.806   2.195   0.731
 3571SOL    HW212611   0.935   2.199   0.810
 3572SOL     OW12612   7.747   7.549   3.915
 3572SOL    HW112613   7.786   7.552   4.002
 3572SOL    HW212614   7.817   7.577   3.856
 3573SOL     OW12615   3.124   4.365   0.558
 3573SOL    HW112616   3.032   4.387   0.550
 3573SOL    HW212617   3.126   4.296   0.625
 3574SOL     OW12618   3.670   6.885  10.440
 3574SOL    HW112619   3.717   6.907  10.359
 3574SOL    HW212620   3.584   6.925  10.429
 3575SOL     OW12621  11.053   0.265  10.486
 3575SOL    HW112622  10.972   0.315  10.497
 3575SOL    HW212623  11.106   0.290  10.561
 3576SOL     OW12624   3.949   8.482  10.345
 3576SOL    HW112625   3.974   8.400  10.302
 3576SOL    HW212626   4.015   8.545  10.316
 3577SOL     OW12627   1.731  13.579   7.572
 3577SOL    HW112628   1.797  13.515   7.600
 3577SOL    HW212629   1.648  13.536   7.591
 3578SOL     OW12630   6.412   1.345   0.083
 3578SOL    HW112631   6.504   1.345   0.055
 3578SOL    HW212632   6.413   1.299   0.167
 3579SOL     OW12633   5.592   1.312   7.348
 3579SOL    HW112634   5.530   1.386   7.353
 3579SOL    HW212635   5.677   1.351   7.366
 3580SOL     OW12636   0.509   7.088   6.724
 3580SOL    HW112637   0.552   7.139   6.793
 3580SOL    HW212638   0.418   7.078   6.754
 3581SOL     OW12639   8.371   9.862   0.413
 3581SOL    HW112640   8.451   9.870   0.361
 3581SOL    HW212641   8.337   9.951   0.418
 3582SOL     OW12642  10.090   0.821   9.385
 3582SOL    HW112643  10.055   0.896   9.433
 3582SOL    HW212644  10.178   0.847   9.359
 3583SOL     OW12645  11.087   6.251  12.405
 3583SOL    HW112646  11.115   6.235  12.495
 3583SOL    HW212647  11.063   6.165  12.371
 3584SOL     OW12648  10.115   2.512  12.609
 3584SOL    HW112649  10.103   2.510  12.704
 3584SOL    HW212650  10.037   2.558  12.577
 3585SOL     OW12651  13.638   5.731  14.460
 3585SOL    HW112652  13.667   5.708  14.548
 3585SOL    HW212653  13.553   5.775  14.474
 3586SOL     OW12654   8.353  10.777  12.610
 3586SOL    HW112655   8.274  10.733  12.641
 3586SOL    HW212656   8.358  10.756  12.517
 3587SOL     OW12657  14.306   1.935   1.495
 3587SOL    HW112658  14.333   1.960   1.407
 3587SOL    HW212659  14.276   2.017   1.535
 3588SOL     OW12660   5.051  14.572   3.255
 3588SOL    HW112661   5.074  14.494   3.204
 3588SOL    HW212662   4.981  14.614   3.205
 3589SOL     OW12663   8.732  12.661   5.437
 3589SOL    HW112664   8.787  12.600   5.388
 3589SOL    HW212665   8.792  12.709   5.493
 3590SOL     OW12666   3.142   6.534  14.443
 3590SOL    HW112667   3.108   6.457  14.490
 3590SOL    HW212668   3.176   6.498  14.361
 3591SOL     OW12669   7.878   5.152   2.725
 3591SOL    HW112670   7.844   5.159   2.636
 3591SOL    HW212671   7.804   5.120   2.777
 3592SOL     OW12672   0.702  14.742  14.254
 3592SOL    HW112673   0.710  14.788  14.337
 3592SOL    HW212674   0.632  14.788  14.207
 3593SOL     OW12675  14.564  13.436   7.071
 3593SOL    HW112676  14.534  13.525   7.052
 3593SOL    HW212677  14.539  13.386   6.993
 3594SOL     OW12678   5.353   2.389   1.772
 3594SOL    HW112679   5.272   2.424   1.810
 3594SOL    HW212680   5.363   2.302   1.810
 3595SOL     OW12681   4.227  11.798  13.461
 3595SOL    HW112682   4.317  11.780  13.485
 3595SOL    HW212683   4.222  11.893  13.450
 3596SOL     OW12684  12.312   5.024   0.762
 3596SOL    HW112685  12.321   4.937   0.724
 3596SOL    HW212686  12.345   5.015   0.852
 3597SOL     OW12687   5.858  10.874   1.483
 3597SOL    HW112688   5.812  10.795   1.455
 3597SOL    HW212689   5.893  10.911   1.402
 3598SOL     OW12690   7.888  10.125   8.774
 3598SOL    HW112691   7.970  10.172   8.790
 3598SOL    HW212692   7.846  10.174   8.703
 3599SOL     OW12693  10.446  14.014  12.216
 3599SOL    HW112694  10.392  13.936  12.206
 3599SOL    HW212695  10.387  14.087  12.197
 3600SOL     OW12696   1.615  13.056  14.555
 3600SOL    HW112697   1.651  13.074  14.641
 3600SOL    HW212698   1.691  13.057  14.496
 3601SOL     OW12699  14.173   6.581  12.743
 3601SOL    HW112700  14.124   6.636  12.804
 3601SOL    HW212701  14.176   6.495  12.786
 3602SOL     OW12702   2.553   3.432   0.510
 3602SOL    HW112703   2.496   3.364   0.547
 3602SOL    HW212704   2.498   3.510   0.506
 3603SOL     OW12705  10.444  12.845  10.404
 3603SOL    HW112706  10.521  12.804  10.443
 3603SOL    HW212707  10.418  12.911  10.468
 3604SOL     OW12708   3.612   6.195  10.740
 3604SOL    HW112709   3.619   6.262  10.808
 3604SOL    HW212710   3.519   6.194  10.718
 3605SOL     OW12711   0.695   8.222   6.384
 3605SOL    HW112712   0.779   8.263   6.363
 3605SOL    HW212713   0.639   8.295   6.411
 3606SOL     OW12714   1.186   5.393   6.938
 3606SOL    HW112715   1.133   5.369   6.861
 3606SOL    HW212716   1.144   5.471   6.973
 3607SOL     OW12717   7.154  12.043   5.510
 3607SOL    HW112718   7.180  11.989   5.584
 3607SOL    HW212719   7.210  12.120   5.515
 3608SOL     OW12720   4.251   2.561   9.598
 3608SOL    HW112721   4.167   2.594   9.630
 3608SOL    HW212722   4.270   2.616   9.521
 3609SOL     OW12723   1.206   5.906   0.894
 3609SOL    HW112724   1.172   5.872   0.811
 3609SOL    HW212725   1.150   5.865   0.960
 3610SOL     OW12726   1.946   4.277   4.114
 3610SOL    HW112727   1.911   4.316   4.033
 3610SOL    HW212728   2.039   4.262   4.096
 3611SOL     OW12729   7.178  13.000   2.394
 3611SOL    HW112730   7.220  13.048   2.323
 3611SOL    HW212731   7.229  12.919   2.402
 3612SOL     OW12732  13.059   2.358   8.160
 3612SOL    HW112733  13.102   2.311   8.232
 3612SOL    HW212734  12.966   2.357   8.183
 3613SOL     OW12735  13.369  13.846  13.617
 3613SOL    HW112736  13.417  13.763  13.614
 3613SOL    HW212737  13.410  13.895  13.688
 3614SOL     OW12738   1.680   3.277   9.046
 3614SOL    HW112739   1.687   3.355   8.990
 3614SOL    HW212740   1.770   3.261   9.075
 3615SOL     OW12741  14.025  13.604  14.444
 3615SOL    HW112742  14.008  13.698  14.439
 3615SOL    HW212743  14.117  13.597  14.468
 3616SOL     OW12744   6.060  10.574  14.180
 3616SOL    HW112745   6.036  10.666  14.195
 3616SOL    HW212746   6.031  10.556  14.091
 3617SOL     OW12747  11.257   5.849  10.838
 3617SOL    HW112748  11.211   5.773  10.802
 3617SOL    HW212749  11.189   5.899  10.884
 3618SOL     OW12750   6.123   7.269   3.195
 3618SOL    HW112751   6.154   7.186   3.231
 3618SOL    HW212752   6.064   7.303   3.262
 3619SOL     OW12753  10.525  12.486   9.388
 3619SOL    HW112754  10.591  12.523   9.330
 3619SOL    HW212755  10.477  12.561   9.422
 3620SOL     OW12756   9.482  10.484   4.159
 3620SOL    HW112757   9.389  10.510   4.154
 3620SOL    HW212758   9.487  10.403   4.109
 3621SOL     OW12759   3.101   1.348  13.150
 3621SOL    HW112760   3.098   1.437  13.186
 3621SOL    HW212761   3.108   1.291  13.227
 3622SOL     OW12762  14.707  14.415   4.743
 3622SOL    HW112763  14.685  14.453   4.658
 3622SOL    HW212764  14.800  14.436   4.755
 3623SOL     OW12765  13.643  10.130  14.454
 3623SOL    HW112766  13.639  10.219  14.419
 3623SOL    HW212767  13.616  10.074  14.381
 3624SOL     OW12768   8.042   4.760   7.970
 3624SOL    HW112769   8.122   4.784   7.923
 3624SOL    HW212770   8.017   4.676   7.934
 3625SOL     OW12771   5.285   5.577  11.480
 3625SOL    HW112772   5.233   5.656  11.495
 3625SOL    HW212773   5.220   5.507  11.473
 3626SOL     OW12774   4.245  13.881   1.143
 3626SOL    HW112775   4.209  13.962   1.180
 3626SOL    HW212776   4.180  13.853   1.079
 3627SOL     OW12777  10.427   0.537   3.063
 3627SOL    HW112778  10.364   0.602   3.093
 3627SOL    HW212779  10.465   0.575   2.984
 3628SOL     OW12780   8.591   7.594   7.335
 3628SOL    HW112781   8.563   7.675   7.291
 3628SOL    HW212782   8.665   7.564   7.283
 3629SOL     OW12783   5.489   9.916   4.984
 3629SOL    HW112784   5.455   9.882   5.067
 3629SOL    HW212785   5.555   9.853   4.957
 3630SOL     OW12786   8.161   0.885   5.001
 3630SOL    HW112787   8.205   0.831   4.935
 3630SOL    HW212788   8.202   0.971   4.993
 3631SOL     OW12789   8.440   6.053   4.168
 3631SOL    HW112790   8.500   5.982   4.194
 3631SOL    HW212791   8.395   6.019   4.091
 3632SOL     OW12792   7.692   5.269   5.131
 3632SOL    HW112793   7.740   5.346   5.162
 3632SOL    HW212794   7.695   5.277   5.035
 3633SOL     OW12795   5.096   8.948   8.026
 3633SOL    HW112796   5.122   8.857   8.012
 3633SOL    HW212797   5.129   8.969   8.113
 3634SOL     OW12798   3.380   9.403  10.909
 3634SOL    HW112799   3.353   9.312  10.892
 3634SOL    HW212800   3.437   9.424  10.835
 3635SOL     OW12801   0.761   8.728   6.646
 3635SOL    HW112802   0.675   8.734   6.688
 3635SOL    HW212803   0.813   8.796   6.689
 3636SOL     OW12804   4.827   5.646   0.853
 3636SOL    HW112805   4.912   5.675   0.819
 3636SOL    HW212806   4.805   5.570   0.799
 3637SOL     OW12807   3.758   5.578   6.725
 3637SOL    HW112808   3.797   5.662   6.749
 3637SOL    HW212809   3.765   5.575   6.629
 3638SOL     OW12810  13.767  13.493   4.723
 3638SOL    HW112811  13.816  13.422   4.682
 3638SOL    HW212812  13.722  13.536   4.651
 3639SOL     OW12813   6.551   2.048  10.137
 3639SOL    HW112814   6.628   2.082  10.183
 3639SOL    HW212815   6.538   2.108  10.064
 3640SOL     OW12816   5.347   5.008  11.688
 3640SOL    HW112817   5.341   5.104  11.680
 3640SOL    HW212818   5.433   4.993  11.727
 3641SOL     OW12819  10.471  10.101   0.856
 3641SOL    HW112820  10.484  10.082   0.763
 3641SOL    HW212821  10.423  10.025   0.889
 3642SOL     OW12822  12.118   0.019   3.531
 3642SOL    HW112823  12.196  14.846   3.523
 3642SOL    HW212824  12.116   0.045   3.623
 3643SOL     OW12825  14.585  13.656  12.524
 3643SOL    HW112826  14.601  13.740  12.567
 3643SOL    HW212827  14.512  13.672  12.465
 3644SOL     OW12828   1.682   6.213   9.241
 3644SOL    HW112829   1.759   6.268   9.256
 3644SOL    HW212830   1.703   6.130   9.283
 3645SOL     OW12831  14.491   8.054   0.183
 3645SOL    HW112832  14.514   8.122   0.247
 3645SOL    HW212833  14.446   7.987   0.234
 3646SOL     OW12834   0.963   8.743   0.977
 3646SOL    HW112835   0.920   8.668   0.935
 3646SOL    HW212836   0.934   8.740   1.068
 3647SOL     OW12837   6.724  11.816  13.650
 3647SOL    HW112838   6.670  11.763  13.592
 3647SOL    HW212839   6.690  11.905  13.641
 3648SOL     OW12840   3.853   5.754   8.143
 3648SOL    HW112841   3.940   5.715   8.157
 3648SOL    HW212842   3.818   5.765   8.231
 3649SOL     OW12843  11.020   4.935  11.550
 3649SOL    HW112844  10.974   4.869  11.498
 3649SOL    HW212845  10.958   4.956  11.620
 3650SOL     OW12846   1.801  12.625  12.555
 3650SOL    HW112847   1.726  12.679  12.532
 3650SOL    HW212848   1.864  12.686  12.593
 3651SOL     OW12849   2.145  10.194   0.633
 3651SOL    HW112850   2.171  10.222   0.720
 3651SOL    HW212851   2.197  10.249   0.574
 3652SOL     OW12852   9.386   3.671  12.910
 3652SOL    HW112853   9.385   3.750  12.854
 3652SOL    HW212854   9.468   3.676  12.958
 3653SOL     OW12855  11.531   4.264   4.367
 3653SOL    HW112856  11.580   4.303   4.440
 3653SOL    HW212857  11.472   4.202   4.409
 3654SOL     OW12858   1.155   5.985   7.181
 3654SOL    HW112859   1.093   5.934   7.130
 3654SOL    HW212860   1.221   6.013   7.118
 3655SOL     OW12861   4.755   6.646   5.187
 3655SOL    HW112862   4.749   6.557   5.153
 3655SOL    HW212863   4.676   6.658   5.239
 3656SOL     OW12864   2.701   9.527  14.689
 3656SOL    HW112865   2.784   9.544  14.645
 3656SOL    HW212866   2.689   9.432  14.684
 3657SOL     OW12867   3.023   3.663  10.030
 3657SOL    HW112868   3.082   3.685   9.958
 3657SOL    HW212869   3.079   3.663  10.108
 3658SOL     OW12870  11.285   5.388   8.305
 3658SOL    HW112871  11.282   5.451   8.377
 3658SOL    HW212872  11.198   5.348   8.305
 3659SOL     OW12873   7.504   7.777  10.623
 3659SOL    HW112874   7.556   7.832  10.565
 3659SOL    HW212875   7.541   7.689  10.612
 3660SOL     OW12876   1.704   7.473   8.608
 3660SOL    HW112877   1.738   7.496   8.522
 3660SOL    HW212878   1.779   7.485   8.667
 3661SOL     OW12879  13.810  13.305   1.709
 3661SOL    HW112880  13.813  13.297   1.613
 3661SOL    HW212881  13.768  13.389   1.725
 3662SOL     OW12882   2.011   2.823  11.661
 3662SOL    HW112883   2.062   2.744  11.641
 3662SOL    HW212884   1.947   2.828  11.591
 3663SOL     OW12885   2.723   3.354   8.998
 3663SOL    HW112886   2.806   3.399   9.011
 3663SOL    HW212887   2.744   3.279   8.943
 3664SOL     OW12888  13.572  10.335   1.297
 3664SOL    HW112889  13.585  10.240   1.291
 3664SOL    HW212890  13.533  10.359   1.213
 3665SOL     OW12891   5.370  12.480   0.369
 3665SOL    HW112892   5.297  12.489   0.430
 3665SOL    HW212893   5.373  12.387   0.348
 3666SOL     OW12894   2.886   6.192   0.290
 3666SOL    HW112895   2.946   6.123   0.260
 3666SOL    HW212896   2.846   6.225   0.210
 3667SOL     OW12897   7.440  11.635   9.123
 3667SOL    HW112898   7.495  11.614   9.047
 3667SOL    HW212899   7.458  11.727   9.140
 3668SOL     OW12900   1.932   0.275   8.179
 3668SOL    HW112901   1.998   0.271   8.248
 3668SOL    HW212902   1.977   0.317   8.105
 3669SOL     OW12903   5.260  12.031   7.929
 3669SOL    HW112904   5.228  12.108   7.977
 3669SOL    HW212905   5.314  12.067   7.859
 3670SOL     OW12906   3.525   7.723  11.797
 3670SOL    HW112907   3.590   7.789  11.774
 3670SOL    HW212908   3.478   7.760  11.871
 3671SOL     OW12909  11.643   9.078   9.247
 3671SOL    HW112910  11.714   9.056   9.187
 3671SOL    HW212911  11.604   9.157   9.210
 3672SOL     OW12912   9.673   2.876   8.506
 3672SOL    HW112913   9.679   2.945   8.573
 3672SOL    HW212914   9.763   2.853   8.487
 3673SOL     OW12915   4.910   7.373  14.216
 3673SOL    HW112916   4.968   7.423  14.273
 3673SOL    HW212917   4.944   7.283  14.219
 3674SOL     OW12918   3.899  12.347   7.964
 3674SOL    HW112919   3.993  12.327   7.961
 3674SOL    HW212920   3.872  12.323   8.053
 3675SOL     OW12921   7.623  12.341   2.313
 3675SOL    HW112922   7.565  12.347   2.390
 3675SOL    HW212923   7.600  12.419   2.262
 3676SOL     OW12924  12.936   3.896  13.281
 3676SOL    HW112925  12.876   3.970  13.278
 3676SOL    HW212926  12.933   3.866  13.372
 3677SOL     OW12927  10.766  12.155  11.497
 3677SOL    HW112928  10.835  12.099  11.532
 3677SOL    HW212929  10.685  12.119  11.533
 3678SOL     OW12930  13.748  10.900   0.417
 3678SOL    HW112931  13.768  10.993   0.423
 3678SOL    HW212932  13.815  10.864   0.359
 3679SOL     OW12933   4.659   6.804   0.870
 3679SOL    HW112934   4.641   6.748   0.946
 3679SOL    HW212935   4.575   6.844   0.849
 3680SOL     OW12936   2.103  12.524   8.676
 3680SOL    HW112937   2.033  12.462   8.655
 3680SOL    HW212938   2.165  12.472   8.728
 3681SOL     OW12939  13.135  14.298   3.945
 3681SOL    HW112940  13.117  14.387   3.915
 3681SOL    HW212941  13.180  14.309   4.028
 3682SOL     OW12942  14.568  11.178   2.792
 3682SOL    HW112943  14.502  11.209   2.853
 3682SOL    HW212944  14.651  11.211   2.828
 3683SOL     OW12945   1.943  11.867   1.377
 3683SOL    HW112946   1.850  11.847   1.383
 3683SOL    HW212947   1.987  11.783   1.391
 3684SOL     OW12948  11.194  13.837   0.042
 3684SOL    HW112949  11.175  13.782   0.118
 3684SOL    HW212950  11.186  13.778  14.849
 3685SOL     OW12951   2.541  12.973   2.975
 3685SOL    HW112952   2.481  13.025   2.922
 3685SOL    HW212953   2.622  12.970   2.924
 3686SOL     OW12954   3.772   4.058   9.480
 3686SOL    HW112955   3.723   4.122   9.429
 3686SOL    HW212956   3.809   3.998   9.415
 3687SOL     OW12957  10.031   3.243   9.812
 3687SOL    HW112958  10.030   3.334   9.844
 3687SOL    HW212959  10.018   3.190   9.890
 3688SOL     OW12960   1.919   6.400   1.123
 3688SOL    HW112961   1.832   6.362   1.120
 3688SOL    HW212962   1.904   6.492   1.147
 3689SOL     OW12963   7.329  13.110   1.588
 3689SOL    HW112964   7.362  13.026   1.619
 3689SOL    HW212965   7.397  13.143   1.530
 3690SOL     OW12966   8.352   5.659   3.245
 3690SOL    HW112967   8.272   5.682   3.293
 3690SOL    HW212968   8.362   5.565   3.260
 3691SOL     OW12969   7.388   7.120   1.824
 3691SOL    HW112970   7.463   7.155   1.871
 3691SOL    HW212971   7.330   7.195   1.811
 3692SOL     OW12972  12.603  11.097  14.818
 3692SOL    HW112973  12.661  11.173  14.824
 3692SOL    HW212974  12.526  11.122  14.869
 3693SOL     OW12975   6.547   0.408  10.191
 3693SOL    HW112976   6.459   0.374  10.207
 3693SOL    HW212977   6.605   0.341  10.225
 3694SOL     OW12978  13.293   5.911  12.501
 3694SOL    HW112979  13.373   5.930  12.550
 3694SOL    HW212980  13.311   5.943  12.412
 3695SOL     OW12981   0.581  12.664  10.245
 3695SOL    HW112982   0.645  12.700  10.184
 3695SOL    HW212983   0.502  12.715  10.229
 3696SOL     OW12984   5.971   2.658  13.566
 3696SOL    HW112985   5.977   2.562  13.565
 3696SOL    HW212986   5.878   2.676  13.555
 3697SOL     OW12987   1.887  11.195   9.172
 3697SOL    HW112988   1.857  11.140   9.245
 3697SOL    HW212989   1.821  11.185   9.105
 3698SOL     OW12990  12.230   8.253   2.066
 3698SOL    HW112991  12.294   8.324   2.060
 3698SOL    HW212992  12.184   8.269   2.149
 3699SOL     OW12993   1.696   6.284   0.679
 3699SOL    HW112994   1.707   6.369   0.722
 3699SOL    HW212995   1.695   6.221   0.751
 3700SOL     OW12996   9.880  13.604   5.437
 3700SOL    HW112997   9.898  13.512   5.453
 3700SOL    HW212998   9.940  13.628   5.366
 3701SOL     OW12999  12.214   1.213   2.033
 3701SOL    HW113000  12.271   1.282   2.066
 3701SOL    HW213001  12.272   1.153   1.986
 3702SOL     OW13002   3.898   9.044  12.912
 3702SOL    HW113003   3.987   9.015  12.929
 3702SOL    HW213004   3.882   9.113  12.977
 3703SOL     OW13005   3.515   3.862   5.796
 3703SOL    HW113006   3.519   3.773   5.763
 3703SOL    HW213007   3.582   3.865   5.865
 3704SOL     OW13008  11.129   6.153  11.568
 3704SOL    HW113009  11.213   6.124  11.531
 3704SOL    HW213010  11.127   6.114  11.656
 3705SOL     OW13011  10.231   9.029   2.916
 3705SOL    HW113012  10.202   9.076   2.838
 3705SOL    HW213013  10.326   9.041   2.917
 3706SOL     OW13014   0.053   9.104   4.733
 3706SOL    HW113015   0.148   9.093   4.728
 3706SOL    HW213016   0.038   9.135   4.823
 3707SOL     OW13017   5.272   5.942  13.341
 3707SOL    HW113018   5.327   5.864  13.332
 3707SOL    HW213019   5.191   5.920  13.297
 3708SOL     OW13020  14.050   1.686   3.892
 3708SOL    HW113021  14.071   1.778   3.873
 3708SOL    HW213022  14.082   1.638   3.816
 3709SOL     OW13023   2.876  10.106  11.049
 3709SOL    HW113024   2.968  10.121  11.074
 3709SOL    HW213025   2.826  10.125  11.128
 3710SOL     OW13026  11.800  14.102   7.497
 3710SOL    HW113027  11.722  14.112   7.551
 3710SOL    HW213028  11.779  14.029   7.438
 3711SOL     OW13029   8.101   3.074   4.618
 3711SOL    HW113030   8.019   3.033   4.645
 3711SOL    HW213031   8.148   3.093   4.699
 3712SOL     OW13032   8.499  11.831   4.799
 3712SOL    HW113033   8.542  11.910   4.833
 3712SOL    HW213034   8.425  11.816   4.858
 3713SOL     OW13035   8.408   3.178  12.658
 3713SOL    HW113036   8.401   3.088  12.629
 3713SOL    HW213037   8.500   3.190  12.681
 3714SOL     OW13038   8.403   6.668   2.430
 3714SOL    HW113039   8.374   6.759   2.435
 3714SOL    HW213040   8.351   6.630   2.359
 3715SOL     OW13041  11.983  13.667   1.264
 3715SOL    HW113042  11.970  13.756   1.231
 3715SOL    HW213043  12.061  13.636   1.219
 3716SOL     OW13044   6.289  13.617   3.222
 3716SOL    HW113045   6.224  13.667   3.273
 3716SOL    HW213046   6.356  13.682   3.199
 3717SOL     OW13047   2.447  11.424  13.498
 3717SOL    HW113048   2.505  11.357  13.536
 3717SOL    HW213049   2.396  11.455  13.573
 3718SOL     OW13050   9.663  12.501  12.914
 3718SOL    HW113051   9.647  12.518  12.821
 3718SOL    HW213052   9.757  12.517  12.925
 3719SOL     OW13053   6.691   7.371  14.804
 3719SOL    HW113054   6.626   7.425  14.849
 3719SOL    HW213055   6.680   7.393  14.712
 3720SOL     OW13056  14.301  12.396   3.697
 3720SOL    HW113057  14.227  12.341   3.723
 3720SOL    HW213058  14.263  12.483   3.684
 3721SOL     OW13059  14.067   2.798   6.171
 3721SOL    HW113060  14.010   2.723   6.187
 3721SOL    HW213061  14.041   2.830   6.084
 3722SOL     OW13062   0.415  12.751   3.103
 3722SOL    HW113063   0.382  12.828   3.151
 3722SOL    HW213064   0.508  12.768   3.092
 3723SOL     OW13065   3.031   1.726   8.129
 3723SOL    HW113066   3.000   1.813   8.156
 3723SOL    HW213067   3.022   1.726   8.033
 3724SOL     OW13068   0.874   7.268  12.003
 3724SOL    HW113069   0.893   7.271  11.909
 3724SOL    HW213070   0.799   7.210  12.011
 3725SOL     OW13071   5.729   9.285   4.875
 3725SOL    HW113072   5.805   9.227   4.882
 3725SOL    HW213073   5.727   9.309   4.782
 3726SOL     OW13074  14.131   3.171  11.533
 3726SOL    HW113075  14.074   3.222  11.591
 3726SOL    HW213076  14.166   3.234  11.471
 3727SOL     OW13077   7.603   6.025  10.211
 3727SOL    HW113078   7.553   6.049  10.133
 3727SOL    HW213079   7.691   6.008  10.179
 3728SOL     OW13080  13.417   9.969   5.510
 3728SOL    HW113081  13.431   9.981   5.603
 3728SOL    HW213082  13.376  10.051   5.480
 3729SOL     OW13083  12.684   4.334  11.234
 3729SOL    HW113084  12.719   4.395  11.169
 3729SOL    HW213085  12.731   4.252  11.217
 3730SOL     OW13086   3.461   7.836   4.560
 3730SOL    HW113087   3.513   7.885   4.497
 3730SOL    HW213088   3.377   7.882   4.563
 3731SOL     OW13089  12.678  12.709   7.924
 3731SOL    HW113090  12.718  12.753   7.849
 3731SOL    HW213091  12.726  12.743   8.000
 3732SOL     OW13092  13.672  11.315   6.696
 3732SOL    HW113093  13.646  11.270   6.776
 3732SOL    HW213094  13.625  11.399   6.699
 3733SOL     OW13095   6.466  11.703   0.901
 3733SOL    HW113096   6.436  11.634   0.959
 3733SOL    HW213097   6.544  11.667   0.859
 3734SOL     OW13098  11.156   3.757   3.723
 3734SOL    HW113099  11.184   3.667   3.740
 3734SOL    HW213100  11.238   3.806   3.717
 3735SOL     OW13101   0.826   0.007   8.615
 3735SOL    HW113102   0.908  14.863   8.573
 3735SOL    HW213103   0.810  14.821   8.680
 3736SOL     OW13104   0.321   3.138   3.439
 3736SOL    HW113105   0.417   3.134   3.439
 3736SOL    HW213106   0.300   3.196   3.512
 3737SOL     OW13107   0.131  13.878   5.113
 3737SOL    HW113108   0.110  13.912   5.026
 3737SOL    HW213109   0.209  13.926   5.140
 3738SOL     OW13110  10.079   2.163  13.526
 3738SOL    HW113111  10.079   2.147  13.620
 3738SOL    HW213112  10.162   2.208  13.509
 3739SOL     OW13113  11.444  12.469   4.125
 3739SOL    HW113114  11.446  12.474   4.220
 3739SOL    HW213115  11.473  12.556   4.095
 3740SOL     OW13116  11.165  11.343  10.479
 3740SOL    HW113117  11.100  11.354  10.410
 3740SOL    HW213118  11.125  11.385  10.556
 3741SOL     OW13119   8.960  12.179   1.070
 3741SOL    HW113120   9.050  12.208   1.077
 3741SOL    HW213121   8.925  12.226   0.994
 3742SOL     OW13122   5.721   9.407  11.926
 3742SOL    HW113123   5.809   9.374  11.907
 3742SOL    HW213124   5.724   9.499  11.901
 3743SOL     OW13125   8.554   3.008   7.192
 3743SOL    HW113126   8.553   3.076   7.124
 3743SOL    HW213127   8.461   2.993   7.212
 3744SOL     OW13128  12.561  13.229  14.334
 3744SOL    HW113129  12.481  13.215  14.284
 3744SOL    HW213130  12.618  13.278  14.275
 3745SOL     OW13131   4.851   0.839  10.923
 3745SOL    HW113132   4.758   0.861  10.931
 3745SOL    HW213133   4.895   0.898  10.983
 3746SOL     OW13134   8.513   7.693   5.887
 3746SOL    HW113135   8.454   7.663   5.817
 3746SOL    HW213136   8.485   7.783   5.904
 3747SOL     OW13137   2.054   4.697   5.717
 3747SOL    HW113138   1.989   4.747   5.767
 3747SOL    HW213139   2.004   4.654   5.648
 3748SOL     OW13140   3.544  11.840  13.153
 3748SOL    HW113141   3.606  11.864  13.084
 3748SOL    HW213142   3.510  11.755  13.126
 3749SOL     OW13143  10.268  11.445  11.638
 3749SOL    HW113144  10.279  11.350  11.636
 3749SOL    HW213145  10.298  11.475  11.553
 3750SOL     OW13146   1.930  11.384  14.091
 3750SOL    HW113147   2.017  11.352  14.114
 3750SOL    HW213148   1.943  11.477  14.073
 3751SOL     OW13149   8.935   7.027   4.702
 3751SOL    HW113150   9.019   7.058   4.737
 3751SOL    HW213151   8.907   7.097   4.642
 3752SOL     OW13152   3.422   8.518   9.171
 3752SOL    HW113153   3.410   8.455   9.242
 3752SOL    HW213154   3.334   8.533   9.136
 3753SOL     OW13155   2.232  12.353   1.545
 3753SOL    HW113156   2.309  12.339   1.601
 3753SOL    HW213157   2.226  12.272   1.494
 3754SOL     OW13158   3.447  12.655   3.147
 3754SOL    HW113159   3.460  12.660   3.052
 3754SOL    HW213160   3.498  12.578   3.173
 3755SOL     OW13161  10.511   1.588   8.906
 3755SOL    HW113162  10.448   1.619   8.841
 3755SOL    HW213163  10.460   1.530   8.963
 3756SOL     OW13164  13.877  14.250  12.534
 3756SOL    HW113165  13.888  14.341  12.509
 3756SOL    HW213166  13.831  14.209  12.461
 3757SOL     OW13167   2.859  10.845   5.407
 3757SOL    HW113168   2.926  10.881   5.349
 3757SOL    HW213169   2.828  10.767   5.363
 3758SOL     OW13170   5.470   3.035  13.313
 3758SOL    HW113171   5.530   2.970  13.276
 3758SOL    HW213172   5.401   3.044  13.248
 3759SOL     OW13173  12.248   2.984   0.596
 3759SOL    HW113174  12.246   2.974   0.691
 3759SOL    HW213175  12.330   2.943   0.568
 3760SOL     OW13176  11.589   5.181  11.468
 3760SOL    HW113177  11.569   5.096  11.428
 3760SOL    HW213178  11.570   5.170  11.561
 3761SOL     OW13179   5.767   2.128  10.815
 3761SOL    HW113180   5.741   2.038  10.795
 3761SOL    HW213181   5.862   2.127  10.812
 3762SOL     OW13182   6.527   0.455   7.888
 3762SOL    HW113183   6.477   0.412   7.958
 3762SOL    HW213184   6.505   0.547   7.897
 3763SOL     OW13185  14.359   7.417   0.947
 3763SOL    HW113186  14.449   7.397   0.919
 3763SOL    HW213187  14.318   7.455   0.870
 3764SOL     OW13188   6.844   0.664   6.826
 3764SOL    HW113189   6.807   0.605   6.760
 3764SOL    HW213190   6.876   0.739   6.776
 3765SOL     OW13191   3.868  12.682   0.803
 3765SOL    HW113192   3.830  12.765   0.829
 3765SOL    HW213193   3.843  12.621   0.872
 3766SOL     OW13194   9.988   5.711  11.066
 3766SOL    HW113195   9.972   5.804  11.080
 3766SOL    HW213196   9.973   5.698  10.972
 3767SOL     OW13197   4.217  10.682   5.742
 3767SOL    HW113198   4.301  10.658   5.781
 3767SOL    HW213199   4.170  10.599   5.732
 3768SOL     OW13200  13.418   2.765  11.204
 3768SOL    HW113201  13.326   2.792  11.196
 3768SOL    HW213202  13.468   2.836  11.164
 3769SOL     OW13203   8.955   5.691  13.277
 3769SOL    HW113204   8.987   5.700  13.188
 3769SOL    HW213205   8.988   5.768  13.323
 3770SOL     OW13206   6.785   4.254  10.497
 3770SOL    HW113207   6.856   4.190  10.491
 3770SOL    HW213208   6.805   4.306  10.574
 3771SOL     OW13209  14.572  10.600   7.841
 3771SOL    HW113210  14.668  10.603   7.845
 3771SOL    HW213211  14.547  10.686   7.806
 3772SOL     OW13212  12.142   7.967   1.159
 3772SOL    HW113213  12.180   7.895   1.208
 3772SOL    HW213214  12.108   7.926   1.079
 3773SOL     OW13215   5.719   4.428   5.067
 3773SOL    HW113216   5.625   4.420   5.081
 3773SOL    HW213217   5.755   4.344   5.097
 3774SOL     OW13218   1.943   6.451  11.366
 3774SOL    HW113219   1.997   6.529  11.353
 3774SOL    HW213220   2.007   6.380  11.377
 3775SOL     OW13221   6.517   8.960   8.114
 3775SOL    HW113222   6.515   8.868   8.142
 3775SOL    HW213223   6.576   9.003   8.176
 3776SOL     OW13224   6.587   5.475  11.891
 3776SOL    HW113225   6.658   5.489  11.828
 3776SOL    HW213226   6.561   5.384  11.877
 3777SOL     OW13227   5.453   7.002   7.934
 3777SOL    HW113228   5.471   7.092   7.962
 3777SOL    HW213229   5.528   6.979   7.878
 3778SOL     OW13230   5.671   3.354   0.695
 3778SOL    HW113231   5.660   3.402   0.777
 3778SOL    HW213232   5.738   3.403   0.647
 3779SOL     OW13233  11.515   7.208  11.919
 3779SOL    HW113234  11.524   7.296  11.883
 3779SOL    HW213235  11.541   7.150  11.848
 3780SOL     OW13236  13.792   0.008  10.000
 3780SOL    HW113237  13.746   0.080   9.957
 3780SOL    HW213238  13.867  14.872   9.944
 3781SOL     OW13239   2.614   0.766  14.353
 3781SOL    HW113240   2.594   0.860  14.343
 3781SOL    HW213241   2.569   0.741  14.434
 3782SOL     OW13242  12.102   0.593   6.823
 3782SOL    HW113243  12.195   0.616   6.829
 3782SOL    HW213244  12.070   0.645   6.749
 3783SOL     OW13245  10.026   3.775  11.860
 3783SOL    HW113246  10.013   3.843  11.794
 3783SOL    HW213247   9.938   3.742  11.880
 3784SOL     OW13248   2.924   2.187   7.236
 3784SOL    HW113249   2.914   2.265   7.182
 3784SOL    HW213250   2.834   2.163   7.260
 3785SOL     OW13251   4.921   1.737  12.958
 3785SOL    HW113252   4.899   1.750  12.866
 3785SOL    HW213253   4.935   1.643  12.966
 3786SOL     OW13254   8.039  13.574   1.250
 3786SOL    HW113255   8.056  13.485   1.281
 3786SOL    HW213256   7.951  13.570   1.212
 3787SOL     OW13257  12.429  14.867  12.616
 3787SOL    HW113258  12.431  14.781  12.658
 3787SOL    HW213259  12.405   0.045  12.687
 3788SOL     OW13260  11.301   5.404  10.217
 3788SOL    HW113261  11.315   5.335  10.153
 3788SOL    HW213262  11.369   5.469  10.198
 3789SOL     OW13263  12.809   3.713   7.938
 3789SOL    HW113264  12.839   3.803   7.942
 3789SOL    HW213265  12.801   3.694   7.844
 3790SOL     OW13266  13.547  12.503  11.293
 3790SOL    HW113267  13.588  12.541  11.370
 3790SOL    HW213268  13.506  12.578  11.249
 3791SOL     OW13269   1.992   4.689   2.403
 3791SOL    HW113270   1.965   4.644   2.483
 3791SOL    HW213271   1.919   4.676   2.342
 3792SOL     OW13272   8.104   1.371   2.916
 3792SOL    HW113273   8.032   1.430   2.941
 3792SOL    HW213274   8.078   1.336   2.831
 3793SOL     OW13275   1.462  12.575   1.326
 3793SOL    HW113276   1.491  12.619   1.247
 3793SOL    HW213277   1.412  12.641   1.374
 3794SOL     OW13278   0.143   4.122   9.896
 3794SOL    HW113279   0.133   4.147   9.988
 3794SOL    HW213280   0.220   4.171   9.866
 3795SOL     OW13281   1.573   5.898  10.849
 3795SOL    HW113282   1.596   5.823  10.794
 3795SOL    HW213283   1.620   5.882  10.931
 3796SOL     OW13284   0.197  14.295   8.693
 3796SOL    HW113285   0.165  14.232   8.629
 3796SOL    HW213286   0.140  14.283   8.769
 3797SOL     OW13287  11.770  14.835   7.175
 3797SOL    HW113288  11.766   0.002   7.257
 3797SOL    HW213289  11.781  14.743   7.202
 3798SOL     OW13290  13.647   1.088  10.682
 3798SOL    HW113291  13.732   1.131  10.680
 3798SOL    HW213292  13.584   1.158  10.672
 3799SOL     OW13293   1.650  13.268   8.915
 3799SOL    HW113294   1.636  13.352   8.870
 3799SOL    HW213295   1.634  13.289   9.007
 3800SOL     OW13296   9.681  12.725  13.120
 3800SOL    HW113297   9.639  12.648  13.084
 3800SOL    HW213298   9.622  12.797  13.099
 3801SOL     OW13299   0.651   6.947   1.954
 3801SOL    HW113300   0.677   7.039   1.948
 3801SOL    HW213301   0.618   6.925   1.867
 3802SOL     OW13302  13.327   3.288  11.071
 3802SOL    HW113303  13.364   3.218  11.124
 3802SOL    HW213304  13.336   3.256  10.981
 3803SOL     OW13305   2.730   5.585   9.015
 3803SOL    HW113306   2.765   5.669   8.985
 3803SOL    HW213307   2.684   5.606   9.096
 3804SOL     OW13308   0.050  11.877   5.320
 3804SOL    HW113309   0.028  11.958   5.365
 3804SOL    HW213310  14.852  11.852   5.274
 3805SOL     OW13311  10.084  11.792   9.411
 3805SOL    HW113312  10.174  11.812   9.437
 3805SOL    HW213313  10.088  11.703   9.376
 3806SOL     OW13314   0.078   0.032   1.761
 3806SOL    HW113315   0.071   0.127   1.755
 3806SOL    HW213316  14.880  14.881   1.719
 3807SOL     OW13317   0.818  12.529  13.254
 3807SOL    HW113318   0.728  12.502  13.274
 3807SOL    HW213319   0.863  12.448  13.232
 3808SOL     OW13320   1.998   0.211   0.837
 3808SOL    HW113321   1.980   0.203   0.931
 3808SOL    HW213322   2.094   0.208   0.831
 3809SOL     OW13323  10.629  10.690   2.131
 3809SOL    HW113324  10.639  10.785   2.144
 3809SOL    HW213325  10.705  10.665   2.080
 3810SOL     OW13326  13.795   7.480   4.400
 3810SOL    HW113327  13.806   7.505   4.491
 3810SOL    HW213328  13.839   7.395   4.392
 3811SOL     OW13329  10.798   7.970   9.691
 3811SOL    HW113330  10.859   8.004   9.625
 3811SOL    HW213331  10.810   7.875   9.688
 3812SOL     OW13332  10.220   2.191   1.605
 3812SOL    HW113333  10.191   2.178   1.515
 3812SOL    HW213334  10.255   2.106   1.632
 3813SOL     OW13335  13.003   9.475   6.089
 3813SOL    HW113336  12.950   9.503   6.164
 3813SOL    HW213337  12.973   9.530   6.017
 3814SOL     OW13338   0.881   7.148   2.118
 3814SOL    HW113339   0.906   7.169   2.028
 3814SOL    HW213340   0.786   7.144   2.115
 3815SOL     OW13341   0.840   6.468   0.944
 3815SOL    HW113342   0.779   6.431   1.007
 3815SOL    HW213343   0.850   6.559   0.971
 3816SOL     OW13344   6.397  10.123  12.955
 3816SOL    HW113345   6.339  10.064  13.003
 3816SOL    HW213346   6.353  10.139  12.872
 3817SOL     OW13347   8.827   2.158   9.451
 3817SOL    HW113348   8.815   2.230   9.389
 3817SOL    HW213349   8.777   2.086   9.414
 3818SOL     OW13350  10.304   8.977   0.039
 3818SOL    HW113351  10.264   8.893   0.018
 3818SOL    HW213352  10.377   8.984  14.860
 3819SOL     OW13353   1.875   9.344   5.618
 3819SOL    HW113354   1.910   9.291   5.691
 3819SOL    HW213355   1.924   9.426   5.623
 3820SOL     OW13356  10.456   2.445   0.490
 3820SOL    HW113357  10.488   2.520   0.541
 3820SOL    HW213358  10.530   2.386   0.485
 3821SOL     OW13359   8.099   3.158  13.998
 3821SOL    HW113360   8.135   3.104  13.928
 3821SOL    HW213361   8.015   3.189  13.964
 3822SOL     OW13362   1.718   5.744   0.294
 3822SOL    HW113363   1.760   5.811   0.240
 3822SOL    HW213364   1.624   5.758   0.281
 3823SOL     OW13365   8.590  14.075  11.717
 3823SOL    HW113366   8.624  13.996  11.675
 3823SOL    HW213367   8.603  14.144  11.651
 3824SOL     OW13368  13.122   7.188  10.752
 3824SOL    HW113369  13.092   7.261  10.807
 3824SOL    HW213370  13.048   7.127  10.751
 3825SOL     OW13371   0.143   2.710   0.516
 3825SOL    HW113372   0.170   2.624   0.549
 3825SOL    HW213373   0.148   2.702   0.421
 3826SOL     OW13374  11.245  11.410   5.680
 3826SOL    HW113375  11.304  11.389   5.752
 3826SOL    HW213376  11.254  11.336   5.620
 3827SOL     OW13377   2.260   4.758  11.925
 3827SOL    HW113378   2.274   4.781  11.833
 3827SOL    HW213379   2.165   4.750  11.933
 3828SOL     OW13380  10.812   5.083   6.216
 3828SOL    HW113381  10.813   5.072   6.121
 3828SOL    HW213382  10.876   5.152   6.234
 3829SOL     OW13383   1.798  14.251   7.510
 3829SOL    HW113384   1.735  14.195   7.464
 3829SOL    HW213385   1.845  14.296   7.441
 3830SOL     OW13386  10.511  12.118  10.403
 3830SOL    HW113387  10.570  12.191  10.419
 3830SOL    HW213388  10.459  12.145  10.327
 3831SOL     OW13389   1.639   8.963   2.799
 3831SOL    HW113390   1.645   9.040   2.741
 3831SOL    HW213391   1.564   8.914   2.765
 3832SOL     OW13392   0.148   6.849  11.249
 3832SOL    HW113393   0.157   6.799  11.330
 3832SOL    HW213394   0.057   6.835  11.222
 3833SOL     OW13395  13.384  13.925   7.231
 3833SOL    HW113396  13.457  13.902   7.174
 3833SOL    HW213397  13.423  13.930   7.318
 3834SOL     OW13398  13.880   6.076   0.736
 3834SOL    HW113399  13.922   6.029   0.663
 3834SOL    HW213400  13.790   6.043   0.737
 3835SOL     OW13401   0.320  10.287   5.645
 3835SOL    HW113402   0.322  10.365   5.700
 3835SOL    HW213403   0.397  10.297   5.588
 3836SOL     OW13404   8.172  13.579   3.119
 3836SOL    HW113405   8.223  13.609   3.044
 3836SOL    HW213406   8.089  13.625   3.111
 3837SOL     OW13407   4.210  14.496   2.705
 3837SOL    HW113408   4.297  14.504   2.665
 3837SOL    HW213409   4.160  14.568   2.667
 3838SOL     OW13410   2.861   8.076  12.714
 3838SOL    HW113411   2.779   8.126  12.707
 3838SOL    HW213412   2.901   8.084  12.627
 3839SOL     OW13413  11.695   1.844  13.019
 3839SOL    HW113414  11.662   1.771  13.070
 3839SOL    HW213415  11.736   1.902  13.084
 3840SOL     OW13416  10.219   5.928   2.866
 3840SOL    HW113417  10.293   5.932   2.927
 3840SOL    HW213418  10.211   6.017   2.833
 3841SOL     OW13419   8.048  14.335  14.273
 3841SOL    HW113420   7.983  14.269  14.252
 3841SOL    HW213421   8.061  14.327  14.368
 3842SOL     OW13422   6.321  12.816   1.280
 3842SOL    HW113423   6.357  12.901   1.303
 3842SOL    HW213424   6.294  12.825   1.188
 3843SOL     OW13425   8.173   2.769   6.631
 3843SOL    HW113426   8.180   2.703   6.700
 3843SOL    HW213427   8.135   2.722   6.557
 3844SOL     OW13428  10.270  12.624   8.538
 3844SOL    HW113429  10.346  12.663   8.579
 3844SOL    HW213430  10.220  12.698   8.503
 3845SOL     OW13431  11.992   2.020   0.314
 3845SOL    HW113432  11.957   2.109   0.317
 3845SOL    HW213433  11.966   1.982   0.399
 3846SOL     OW13434   9.006   4.354   5.277
 3846SOL    HW113435   8.925   4.355   5.328
 3846SOL    HW213436   8.978   4.334   5.188
 3847SOL     OW13437   9.945   0.806  12.029
 3847SOL    HW113438   9.874   0.765  12.078
 3847SOL    HW213439   9.965   0.886  12.076
 3848SOL     OW13440  12.627   9.227   5.457
 3848SOL    HW113441  12.612   9.221   5.363
 3848SOL    HW213442  12.623   9.136   5.488
 3849SOL     OW13443  13.857  10.587   3.241
 3849SOL    HW113444  13.866  10.682   3.254
 3849SOL    HW213445  13.770  10.566   3.275
 3850SOL     OW13446   0.387   6.255   3.424
 3850SOL    HW113447   0.451   6.326   3.432
 3850SOL    HW213448   0.350   6.267   3.336
 3851SOL     OW13449   9.608  12.391   9.862
 3851SOL    HW113450   9.647  12.337   9.794
 3851SOL    HW213451   9.652  12.476   9.854
 3852SOL     OW13452   7.769   0.504   5.476
 3852SOL    HW113453   7.680   0.467   5.474
 3852SOL    HW213454   7.799   0.499   5.386
 3853SOL     OW13455   7.076   5.302   7.070
 3853SOL    HW113456   7.129   5.380   7.058
 3853SOL    HW213457   7.108   5.264   7.152
 3854SOL     OW13458   0.970   4.457  12.862
 3854SOL    HW113459   0.950   4.543  12.900
 3854SOL    HW213460   1.065   4.459  12.847
 3855SOL     OW13461   6.922  11.972   7.904
 3855SOL    HW113462   6.944  11.932   7.820
 3855SOL    HW213463   6.963  11.915   7.970
 3856SOL     OW13464  13.560   9.594  10.172
 3856SOL    HW113465  13.595   9.524  10.118
 3856SOL    HW213466  13.556   9.670  10.114
 3857SOL     OW13467  11.839   6.233   9.011
 3857SOL    HW113468  11.779   6.189   9.071
 3857SOL    HW213469  11.849   6.173   8.938
 3858SOL     OW13470  11.294   1.594   2.319
 3858SOL    HW113471  11.373   1.593   2.264
 3858SOL    HW213472  11.227   1.633   2.263
 3859SOL     OW13473   9.583   9.801  10.998
 3859SOL    HW113474   9.611   9.715  10.965
 3859SOL    HW213475   9.527   9.780  11.074
 3860SOL     OW13476   9.130   8.684   1.503
 3860SOL    HW113477   9.151   8.700   1.595
 3860SOL    HW213478   9.047   8.636   1.505
 3861SOL     OW13479  11.548   0.045   7.539
 3861SOL    HW113480  11.502  14.843   7.528
 3861SOL    HW213481  11.578   0.044   7.630
 3862SOL     OW13482   8.548  12.091   9.990
 3862SOL    HW113483   8.634  12.052  10.004
 3862SOL    HW213484   8.497  12.023   9.947
 3863SOL     OW13485  10.082  12.675   3.177
 3863SOL    HW113486  10.095  12.715   3.263
 3863SOL    HW213487   9.992  12.643   3.178
 3864SOL     OW13488   0.153   6.971  10.365
 3864SOL    HW113489   0.124   6.900  10.423
 3864SOL    HW213490   0.092   6.968  10.291
 3865SOL     OW13491  13.202  11.566  13.002
 3865SOL    HW113492  13.137  11.514  13.050
 3865SOL    HW213493  13.286  11.525  13.022
 3866SOL     OW13494   4.866   6.257   8.335
 3866SOL    HW113495   4.900   6.346   8.323
 3866SOL    HW213496   4.943   6.202   8.342
 3867SOL     OW13497   8.179   1.700   4.010
 3867SOL    HW113498   8.261   1.691   4.058
 3867SOL    HW213499   8.122   1.748   4.070
 3868SOL     OW13500  10.749   8.080   3.611
 3868SOL    HW113501  10.761   8.171   3.583
 3868SOL    HW213502  10.776   8.028   3.535
 3869SOL     OW13503   9.988   2.121   5.139
 3869SOL    HW113504   9.924   2.051   5.125
 3869SOL    HW213505  10.024   2.103   5.225
 3870SOL     OW13506   7.195   8.796   4.462
 3870SOL    HW113507   7.285   8.815   4.488
 3870SOL    HW213508   7.144   8.801   4.543
 3871SOL     OW13509   1.677   3.453  14.759
 3871SOL    HW113510   1.728   3.489  14.686
 3871SOL    HW213511   1.725   3.481  14.837
 3872SOL     OW13512   3.305   1.095   4.624
 3872SOL    HW113513   3.346   1.094   4.537
 3872SOL    HW213514   3.377   1.076   4.685
 3873SOL     OW13515   3.340   4.844  13.881
 3873SOL    HW113516   3.326   4.754  13.851
 3873SOL    HW213517   3.413   4.838  13.943
 3874SOL     OW13518   8.966  11.606  13.316
 3874SOL    HW113519   9.022  11.628  13.241
 3874SOL    HW213520   9.002  11.658  13.388
 3875SOL     OW13521   4.488  10.699   3.516
 3875SOL    HW113522   4.412  10.752   3.493
 3875SOL    HW213523   4.536  10.752   3.579
 3876SOL     OW13524  13.471  12.184  14.058
 3876SOL    HW113525  13.496  12.185  14.150
 3876SOL    HW213526  13.384  12.226  14.057
 3877SOL     OW13527   0.719  13.640   4.408
 3877SOL    HW113528   0.809  13.641   4.374
 3877SOL    HW213529   0.728  13.625   4.502
 3878SOL     OW13530  12.978   7.798   7.699
 3878SOL    HW113531  12.904   7.805   7.759
 3878SOL    HW213532  12.973   7.709   7.665
 3879SOL     OW13533  14.338   1.960   0.148
 3879SOL    HW113534  14.306   2.043   0.183
 3879SOL    HW213535  14.276   1.938   0.079
 3880SOL     OW13536   6.122   9.234   7.586
 3880SOL    HW113537   6.168   9.269   7.663
 3880SOL    HW213538   6.192   9.209   7.526
 3881SOL     OW13539  12.709  10.009   9.115
 3881SOL    HW113540  12.733  10.094   9.152
 3881SOL    HW213541  12.640  10.029   9.051
 3882SOL     OW13542   0.881  14.472   2.894
 3882SOL    HW113543   0.869  14.425   2.812
 3882SOL    HW213544   0.799  14.458   2.942
 3883SOL     OW13545  11.571  14.475   6.607
 3883SOL    HW113546  11.595  14.394   6.561
 3883SOL    HW213547  11.635  14.540   6.577
 3884SOL     OW13548   1.253   0.624   9.125
 3884SOL    HW113549   1.199   0.660   9.055
 3884SOL    HW213550   1.230   0.674   9.203
 3885SOL     OW13551  11.233   7.326  12.465
 3885SOL    HW113552  11.244   7.370  12.380
 3885SOL    HW213553  11.223   7.233  12.442
 3886SOL     OW13554  10.606   7.761   2.665
 3886SOL    HW113555  10.623   7.710   2.744
 3886SOL    HW213556  10.691   7.766   2.621
 3887SOL     OW13557   4.488  14.691   7.315
 3887SOL    HW113558   4.481  14.748   7.391
 3887SOL    HW213559   4.435  14.733   7.248
 3888SOL     OW13560  12.282   6.284  11.444
 3888SOL    HW113561  12.241   6.215  11.392
 3888SOL    HW213562  12.329   6.338  11.380
 3889SOL     OW13563   9.451   6.314   7.384
 3889SOL    HW113564   9.386   6.384   7.395
 3889SOL    HW213565   9.398   6.236   7.363
 3890SOL     OW13566   4.888   0.741   1.740
 3890SOL    HW113567   4.808   0.754   1.690
 3890SOL    HW213568   4.890   0.647   1.758
 3891SOL     OW13569   6.731   1.230   2.452
 3891SOL    HW113570   6.764   1.227   2.542
 3891SOL    HW213571   6.639   1.207   2.458
 3892SOL     OW13572   2.493   2.024   3.224
 3892SOL    HW113573   2.445   1.943   3.241
 3892SOL    HW213574   2.585   1.999   3.227
 3893SOL     OW13575   4.706  13.778   5.838
 3893SOL    HW113576   4.789  13.741   5.808
 3893SOL    HW213577   4.660  13.706   5.880
 3894SOL     OW13578  10.000   4.211   1.586
 3894SOL    HW113579  10.072   4.153   1.564
 3894SOL    HW213580   9.957   4.169   1.660
 3895SOL     OW13581  13.899   6.437   3.193
 3895SOL    HW113582  13.991   6.418   3.213
 3895SOL    HW213583  13.876   6.507   3.254
 3896SOL     OW13584   8.697  11.115   0.239
 3896SOL    HW113585   8.771  11.072   0.283
 3896SOL    HW213586   8.737  11.160   0.165
 3897SOL     OW13587  10.328  13.304   5.850
 3897SOL    HW113588  10.365  13.373   5.795
 3897SOL    HW213589  10.291  13.241   5.788
 3898SOL     OW13590  10.864   9.723   8.959
 3898SOL    HW113591  10.866   9.689   9.048
 3898SOL    HW213592  10.775   9.707   8.929
 3899SOL     OW13593  14.817   8.714   8.732
 3899SOL    HW113594  14.868   8.705   8.812
 3899SOL    HW213595  14.873   8.678   8.664
 3900SOL     OW13596   7.609  11.059   4.865
 3900SOL    HW113597   7.693  11.032   4.902
 3900SOL    HW213598   7.601  11.010   4.783
 3901SOL     OW13599   3.381   0.104   2.332
 3901SOL    HW113600   3.423   0.093   2.246
 3901SOL    HW213601   3.421   0.182   2.369
 3902SOL     OW13602   3.469   7.997  12.170
 3902SOL    HW113603   3.461   8.093  12.163
 3902SOL    HW213604   3.448   7.965  12.082
 3903SOL     OW13605  12.126   0.909   0.705
 3903SOL    HW113606  12.062   0.882   0.640
 3903SOL    HW213607  12.177   0.977   0.662
 3904SOL     OW13608   1.850  12.503   0.968
 3904SOL    HW113609   1.895  12.419   0.979
 3904SOL    HW213610   1.757  12.480   0.968
 3905SOL     OW13611  14.121   8.455  10.335
 3905SOL    HW113612  14.093   8.505  10.412
 3905SOL    HW213613  14.138   8.522  10.269
 3906SOL     OW13614   3.255   9.940   4.765
 3906SOL    HW113615   3.266   9.845   4.770
 3906SOL    HW213616   3.162   9.952   4.747
 3907SOL     OW13617  13.621   8.977  11.548
 3907SOL    HW113618  13.647   9.023  11.468
 3907SOL    HW213619  13.525   8.980  11.547
 3908SOL     OW13620   6.104   3.443  11.520
 3908SOL    HW113621   6.061   3.423  11.603
 3908SOL    HW213622   6.186   3.486  11.545
 3909SOL     OW13623  11.457   2.452  12.978
 3909SOL    HW113624  11.513   2.494  13.043
 3909SOL    HW213625  11.468   2.358  12.995
 3910SOL     OW13626  12.981   3.488  12.088
 3910SOL    HW113627  13.065   3.460  12.053
 3910SOL    HW213628  12.997   3.500  12.182
 3911SOL     OW13629  13.253   2.945  11.493
 3911SOL    HW113630  13.321   2.877  11.499
 3911SOL    HW213631  13.234   2.968  11.583
 3912SOL     OW13632  11.008   2.075   5.518
 3912SOL    HW113633  10.964   2.157   5.539
 3912SOL    HW213634  10.936   2.014   5.501
 3913SOL     OW13635   4.812   3.987  13.604
 3913SOL    HW113636   4.759   3.999  13.682
 3913SOL    HW213637   4.834   4.075  13.575
 3914SOL     OW13638   3.769   9.422   0.375
 3914SOL    HW113639   3.848   9.419   0.322
 3914SOL    HW213640   3.785   9.493   0.438
 3915SOL     OW13641   6.353   7.451   3.275
 3915SOL    HW113642   6.348   7.536   3.232
 3915SOL    HW213643   6.267   7.411   3.260
 3916SOL     OW13644   1.016   8.244  12.425
 3916SOL    HW113645   0.962   8.170  12.453
 3916SOL    HW213646   1.031   8.229  12.332
 3917SOL     OW13647   9.182  10.583   1.536
 3917SOL    HW113648   9.210  10.492   1.539
 3917SOL    HW213649   9.146  10.600   1.623
 3918SOL     OW13650   2.969   0.677   3.025
 3918SOL    HW113651   2.933   0.590   3.006
 3918SOL    HW213652   3.030   0.694   2.953
 3919SOL     OW13653   3.452   0.093   6.999
 3919SOL    HW113654   3.419   0.025   7.058
 3919SOL    HW213655   3.404   0.172   7.024
 3920SOL     OW13656  11.004   2.606   1.288
 3920SOL    HW113657  10.923   2.584   1.243
 3920SOL    HW213658  11.067   2.539   1.258
 3921SOL     OW13659  13.412   2.969   8.409
 3921SOL    HW113660  13.422   2.894   8.350
 3921SOL    HW213661  13.502   2.999   8.423
 3922SOL     OW13662  13.805   1.272  12.219
 3922SOL    HW113663  13.820   1.222  12.138
 3922SOL    HW213664  13.745   1.342  12.192
 3923SOL     OW13665   8.391   6.859  11.818
 3923SOL    HW113666   8.383   6.844  11.724
 3923SOL    HW213667   8.321   6.807  11.857
 3924SOL     OW13668   1.122   9.375   5.885
 3924SOL    HW113669   1.214   9.398   5.885
 3924SOL    HW213670   1.082   9.434   5.822
 3925SOL     OW13671   3.643   5.395   0.170
 3925SOL    HW113672   3.670   5.472   0.220
 3925SOL    HW213673   3.711   5.383   0.104
 3926SOL     OW13674   4.541   9.847   5.231
 3926SOL    HW113675   4.622   9.858   5.181
 3926SOL    HW213676   4.567   9.798   5.309
 3927SOL     OW13677   2.331   9.043   1.393
 3927SOL    HW113678   2.363   9.110   1.454
 3927SOL    HW213679   2.408   8.989   1.374
 3928SOL     OW13680  14.293   9.738   9.422
 3928SOL    HW113681  14.267   9.730   9.513
 3928SOL    HW213682  14.355   9.666   9.408
 3929SOL     OW13683   7.578  10.900  14.122
 3929SOL    HW113684   7.632  10.977  14.137
 3929SOL    HW213685   7.507  10.908  14.186
 3930SOL     OW13686   7.953  14.453  10.693
 3930SOL    HW113687   7.946  14.474  10.600
 3930SOL    HW213688   8.046  14.463  10.713
 3931SOL     OW13689   9.954  13.263  13.923
 3931SOL    HW113690   9.975  13.178  13.963
 3931SOL    HW213691   9.863  13.280  13.950
 3932SOL     OW13692  13.738  10.291  13.560
 3932SOL    HW113693  13.705  10.271  13.648
 3932SOL    HW213694  13.694  10.228  13.503
 3933SOL     OW13695  10.105   9.620   1.101
 3933SOL    HW113696  10.184   9.661   1.135
 3933SOL    HW213697  10.120   9.613   1.007
 3934SOL     OW13698   0.965   0.124   9.809
 3934SOL    HW113699   0.923   0.043   9.782
 3934SOL    HW213700   0.960   0.181   9.732
 3935SOL     OW13701  11.372  10.925   2.716
 3935SOL    HW113702  11.299  10.986   2.706
 3935SOL    HW213703  11.334  10.839   2.697
 3936SOL     OW13704  14.415   6.309   5.569
 3936SOL    HW113705  14.334   6.314   5.620
 3936SOL    HW213706  14.484   6.297   5.635
 3937SOL     OW13707   9.356   4.020   4.648
 3937SOL    HW113708   9.446   3.994   4.664
 3937SOL    HW213709   9.357   4.116   4.652
 3938SOL     OW13710   9.185  14.669   5.170
 3938SOL    HW113711   9.132  14.747   5.187
 3938SOL    HW213712   9.134  14.597   5.205
 3939SOL     OW13713   3.648   2.525   8.273
 3939SOL    HW113714   3.584   2.463   8.236
 3939SOL    HW213715   3.603   2.564   8.347
 3940SOL     OW13716   2.236   0.024   3.613
 3940SOL    HW113717   2.308   0.086   3.602
 3940SOL    HW213718   2.180   0.064   3.680
 3941SOL     OW13719   5.038  13.650   1.367
 3941SOL    HW113720   5.130  13.662   1.391
 3941SOL    HW213721   5.037  13.567   1.318
 3942SOL     OW13722   3.879   8.740   6.466
 3942SOL    HW113723   3.966   8.744   6.426
 3942SOL    HW213724   3.827   8.688   6.405
 3943SOL     OW13725  10.627   0.985  12.617
 3943SOL    HW113726  10.660   1.067  12.653
 3943SOL    HW213727  10.694   0.958  12.554
 3944SOL     OW13728  13.127   0.523   2.889
 3944SOL    HW113729  13.151   0.446   2.941
 3944SOL    HW213730  13.031   0.523   2.890
 3945SOL     OW13731  10.214   1.244   6.699
 3945SOL    HW113732  10.124   1.278   6.702
 3945SOL    HW213733  10.260   1.294   6.766
 3946SOL     OW13734  11.647   1.883  11.903
 3946SOL    HW113735  11.587   1.894  11.828
 3946SOL    HW213736  11.723   1.839  11.866
 3947SOL     OW13737   6.466   2.691   1.253
 3947SOL    HW113738   6.479   2.602   1.284
 3947SOL    HW213739   6.403   2.683   1.182
 3948SOL     OW13740   0.690   8.958   5.325
 3948SOL    HW113741   0.690   9.014   5.247
 3948SOL    HW213742   0.667   9.018   5.396
 3949SOL     OW13743   3.060   2.592   6.972
 3949SOL    HW113744   3.117   2.641   7.031
 3949SOL    HW213745   2.990   2.654   6.949
 3950SOL     OW13746   7.201  11.571  11.210
 3950SOL    HW113747   7.155  11.654  11.196
 3950SOL    HW213748   7.252  11.586  11.290
 3951SOL     OW13749   7.919  14.474   2.345
 3951SOL    HW113750   7.940  14.407   2.279
 3951SOL    HW213751   7.994  14.534   2.342
 3952SOL     OW13752   2.918  12.629   7.458
 3952SOL    HW113753   2.840  12.584   7.425
 3952SOL    HW213754   2.898  12.647   7.550
 3953SOL     OW13755   7.454  10.476   7.059
 3953SOL    HW113756   7.512  10.532   7.007
 3953SOL    HW213757   7.512  10.432   7.121
 3954SOL     OW13758   4.517  14.122  12.119
 3954SOL    HW113759   4.574  14.089  12.188
 3954SOL    HW213760   4.476  14.200  12.157
 3955SOL     OW13761   4.878   7.285   6.301
 3955SOL    HW113762   4.878   7.254   6.391
 3955SOL    HW213763   4.867   7.380   6.309
 3956SOL     OW13764   4.342  10.549   0.097
 3956SOL    HW113765   4.282  10.523   0.026
 3956SOL    HW213766   4.348  10.472   0.152
 3957SOL     OW13767   6.028  13.524   3.688
 3957SOL    HW113768   6.112  13.482   3.671
 3957SOL    HW213769   5.974  13.456   3.728
 3958SOL     OW13770   2.129  11.374   9.229
 3958SOL    HW113771   2.042  11.343   9.202
 3958SOL    HW213772   2.138  11.459   9.187
 3959SOL     OW13773  11.306   2.482   4.740
 3959SOL    HW113774  11.347   2.399   4.715
 3959SOL    HW213775  11.215   2.459   4.760
 3960SOL     OW13776   3.624   0.963   1.680
 3960SOL    HW113777   3.644   1.006   1.763
 3960SOL    HW213778   3.529   0.965   1.674
 3961SOL     OW13779   0.283   7.910  12.560
 3961SOL    HW113780   0.312   7.829  12.518
 3961SOL    HW213781   0.221   7.881  12.627
 3962SOL     OW13782  11.619  12.855   5.775
 3962SOL    HW113783  11.707  12.848   5.739
 3962SOL    HW213784  11.621  12.933   5.829
 3963SOL     OW13785   0.296   9.850  10.974
 3963SOL    HW113786   0.311   9.759  11.000
 3963SOL    HW213787   0.381   9.881  10.945
 3964SOL     OW13788  12.757   4.481   8.895
 3964SOL    HW113789  12.696   4.524   8.834
 3964SOL    HW213790  12.821   4.438   8.839
 3965SOL     OW13791  13.992   4.288   4.597
 3965SOL    HW113792  13.953   4.206   4.626
 3965SOL    HW213793  13.924   4.354   4.612
 3966SOL     OW13794   8.049   4.387   2.606
 3966SOL    HW113795   7.975   4.430   2.649
 3966SOL    HW213796   8.125   4.414   2.656
 3967SOL     OW13797  12.558   3.943  11.376
 3967SOL    HW113798  12.486   3.970  11.433
 3967SOL    HW213799  12.637   3.978  11.419
 3968SOL     OW13800  13.022   7.714   8.135
 3968SOL    HW113801  12.946   7.656   8.138
 3968SOL    HW213802  13.035   7.731   8.042
 3969SOL     OW13803   8.804   3.874  13.029
 3969SOL    HW113804   8.738   3.944  13.026
 3969SOL    HW213805   8.844   3.874  12.942
 3970SOL     OW13806   6.024  10.448   1.483
 3970SOL    HW113807   5.986  10.383   1.543
 3970SOL    HW213808   6.017  10.531   1.530
 3971SOL     OW13809   0.909   8.026   5.412
 3971SOL    HW113810   0.813   8.019   5.419
 3971SOL    HW213811   0.923   8.094   5.346
 3972SOL     OW13812  12.392  11.488   3.213
 3972SOL    HW113813  12.308  11.458   3.246
 3972SOL    HW213814  12.421  11.554   3.276
 3973SOL     OW13815  10.197   9.663   2.162
 3973SOL    HW113816  10.105   9.656   2.138
 3973SOL    HW213817  10.241   9.597   2.108
 3974SOL     OW13818   0.627   5.649   6.305
 3974SOL    HW113819   0.539   5.681   6.286
 3974SOL    HW213820   0.684   5.696   6.244
 3975SOL     OW13821   8.829  12.732   9.973
 3975SOL    HW113822   8.842  12.768   9.885
 3975SOL    HW213823   8.859  12.641   9.966
 3976SOL     OW13824   7.706   0.339   2.525
 3976SOL    HW113825   7.783   0.380   2.485
 3976SOL    HW213826   7.681   0.270   2.464
 3977SOL     OW13827   2.598   6.210  14.483
 3977SOL    HW113828   2.528   6.276  14.480
 3977SOL    HW213829   2.659   6.236  14.414
 3978SOL     OW13830  11.694   9.645  10.097
 3978SOL    HW113831  11.663   9.711  10.036
 3978SOL    HW213832  11.747   9.585  10.044
 3979SOL     OW13833  12.462  12.875   1.973
 3979SOL    HW113834  12.442  12.814   2.044
 3979SOL    HW213835  12.380  12.883   1.925
 3980SOL     OW13836   5.299   5.050   5.534
 3980SOL    HW113837   5.389   5.017   5.529
 3980SOL    HW213838   5.277   5.073   5.443
 3981SOL     OW13839   6.021   0.027  14.031
 3981SOL    HW113840   5.953   0.012  13.965
 3981SOL    HW213841   6.077  14.832  14.027
 3982SOL     OW13842   0.896  10.427   0.515
 3982SOL    HW113843   0.958  10.404   0.446
 3982SOL    HW213844   0.835  10.354   0.519
 3983SOL     OW13845   1.327   5.604  14.726
 3983SOL    HW113846   1.404   5.548  14.735
 3983SOL    HW213847   1.292   5.584  14.640
 3984SOL     OW13848   3.894  13.534   1.956
 3984SOL    HW113849   3.951  13.493   1.891
 3984SOL    HW213850   3.909  13.628   1.945
 3985SOL     OW13851  13.517   8.389   7.859
 3985SOL    HW113852  13.451   8.454   7.880
 3985SOL    HW213853  13.487   8.309   7.901
 3986SOL     OW13854   7.087  13.890  12.837
 3986SOL    HW113855   7.129  13.807  12.860
 3986SOL    HW213856   7.106  13.947  12.911
 3987SOL     OW13857   3.593  13.344   0.775
 3987SOL    HW113858   3.629  13.304   0.854
 3987SOL    HW213859   3.541  13.274   0.734
 3988SOL     OW13860   3.904  11.870   7.510
 3988SOL    HW113861   3.926  11.794   7.563
 3988SOL    HW213862   3.940  11.849   7.423
 3989SOL     OW13863   6.871   9.675   6.781
 3989SOL    HW113864   6.942   9.637   6.730
 3989SOL    HW213865   6.874   9.628   6.864
 3990SOL     OW13866   8.907   7.085  12.153
 3990SOL    HW113867   8.906   7.132  12.236
 3990SOL    HW213868   8.885   7.152  12.088
 3991SOL     OW13869   1.715   9.707  13.444
 3991SOL    HW113870   1.710   9.740  13.534
 3991SOL    HW213871   1.623   9.698  13.417
 3992SOL     OW13872   6.127   8.838   1.548
 3992SOL    HW113873   6.187   8.768   1.521
 3992SOL    HW213874   6.054   8.791   1.590
 3993SOL     OW13875  13.997   0.292  14.102
 3993SOL    HW113876  14.066   0.343  14.145
 3993SOL    HW213877  14.002   0.206  14.144
 3994SOL     OW13878   8.332  12.562  11.049
 3994SOL    HW113879   8.357  12.653  11.067
 3994SOL    HW213880   8.305  12.528  11.134
 3995SOL     OW13881  11.463  10.120  11.698
 3995SOL    HW113882  11.532  10.185  11.687
 3995SOL    HW213883  11.402  10.136  11.626
 3996SOL     OW13884  11.681   4.343  10.687
 3996SOL    HW113885  11.763   4.360  10.734
 3996SOL    HW213886  11.628   4.421  10.705
 3997SOL     OW13887   3.540   8.398  13.769
 3997SOL    HW113888   3.557   8.492  13.758
 3997SOL    HW213889   3.524   8.388  13.863
 3998SOL     OW13890   7.615   5.445   5.717
 3998SOL    HW113891   7.543   5.473   5.773
 3998SOL    HW213892   7.691   5.493   5.750
 3999SOL     OW13893   9.337  14.293   8.355
 3999SOL    HW113894   9.327  14.374   8.306
 3999SOL    HW213895   9.326  14.224   8.290
 4000SOL     OW13896  13.636   2.788  13.964
 4000SOL    HW113897  13.702   2.846  13.927
 4000SOL    HW213898  13.564   2.789  13.901
 4001SOL     OW13899   4.046  11.404  13.524
 4001SOL    HW113900   4.068  11.452  13.444
 4001SOL    HW213901   4.045  11.471  13.592
 4002SOL     OW13902   7.394  13.909   7.417
 4002SOL    HW113903   7.366  13.970   7.485
 4002SOL    HW213904   7.456  13.959   7.364
 4003SOL     OW13905  14.812   7.794  11.659
 4003SOL    HW113906  14.757   7.867  11.688
 4003SOL    HW213907   0.014   7.809  11.702
 4004SOL     OW13908  12.776   5.031  12.836
 4004SOL    HW113909  12.789   5.093  12.765
 4004SOL    HW213910  12.746   5.085  12.910
 4005SOL     OW13911   2.126   3.493   0.404
 4005SOL    HW113912   2.210   3.532   0.380
 4005SOL    HW213913   2.081   3.561   0.454
 4006SOL     OW13914   1.781   9.170   0.011
 4006SOL    HW113915   1.811   9.260  14.880
 4006SOL    HW213916   1.748   9.169   0.101
 4007SOL     OW13917   9.676   3.321   6.279
 4007SOL    HW113918   9.700   3.290   6.191
 4007SOL    HW213919   9.754   3.367   6.310
 4008SOL     OW13920  11.828   3.078  11.428
 4008SOL    HW113921  11.902   3.024  11.456
 4008SOL    HW213922  11.819   3.058  11.335
 4009SOL     OW13923   5.094   7.044  11.679
 4009SOL    HW113924   5.134   7.034  11.765
 4009SOL    HW213925   5.019   6.984  11.681
 4010SOL     OW13926  11.783   8.289   2.095
 4010SOL    HW113927  11.706   8.307   2.149
 4010SOL    HW213928  11.747   8.246   2.017
 4011SOL     OW13929   5.860   3.434  10.086
 4011SOL    HW113930   5.767   3.413  10.087
 4011SOL    HW213931   5.880   3.456  10.177
 4012SOL     OW13932  11.574   9.903   7.664
 4012SOL    HW113933  11.628   9.825   7.671
 4012SOL    HW213934  11.487   9.870   7.640
 4013SOL     OW13935  12.345   4.989   8.839
 4013SOL    HW113936  12.276   4.942   8.886
 4013SOL    HW213937  12.298   5.040   8.773
 4014SOL     OW13938   2.733  13.110   3.655
 4014SOL    HW113939   2.757  13.022   3.626
 4014SOL    HW213940   2.809  13.141   3.705
 4015SOL     OW13941   2.641   8.391   7.636
 4015SOL    HW113942   2.576   8.451   7.599
 4015SOL    HW213943   2.689   8.444   7.700
 4016SOL     OW13944   5.942   5.045   9.134
 4016SOL    HW113945   5.938   5.028   9.228
 4016SOL    HW213946   5.952   4.959   9.094
 4017SOL     OW13947   1.961   3.293   0.358
 4017SOL    HW113948   1.943   3.332   0.272
 4017SOL    HW213949   2.020   3.355   0.400
 4018SOL     OW13950  11.276   0.853   9.210
 4018SOL    HW113951  11.230   0.833   9.128
 4018SOL    HW213952  11.210   0.843   9.278
 4019SOL     OW13953   6.258   8.659   5.745
 4019SOL    HW113954   6.294   8.747   5.761
 4019SOL    HW213955   6.165   8.674   5.727
 4020SOL     OW13956  11.453   2.827   5.786
 4020SOL    HW113957  11.387   2.827   5.855
 4020SOL    HW213958  11.406   2.857   5.708
 4021SOL     OW13959   3.092  10.203   2.133
 4021SOL    HW113960   3.103  10.235   2.222
 4021SOL    HW213961   3.008  10.155   2.135
 4022SOL     OW13962   0.153   8.529   1.066
 4022SOL    HW113963   0.217   8.511   1.134
 4022SOL    HW213964   0.163   8.457   1.003
 4023SOL     OW13965  11.174  12.135   0.267
 4023SOL    HW113966  11.112  12.096   0.329
 4023SOL    HW213967  11.192  12.066   0.204
 4024SOL     OW13968  11.678   8.044   2.680
 4024SOL    HW113969  11.594   8.090   2.683
 4024SOL    HW213970  11.713   8.065   2.593
 4025SOL     OW13971   1.233  10.612  14.186
 4025SOL    HW113972   1.200  10.669  14.116
 4025SOL    HW213973   1.201  10.653  14.267
 4026SOL     OW13974  14.000   5.280   2.567
 4026SOL    HW113975  13.922   5.332   2.587
 4026SOL    HW213976  14.050   5.281   2.649
 4027SOL     OW13977   2.220   1.073   8.241
 4027SOL    HW113978   2.263   1.109   8.163
 4027SOL    HW213979   2.145   1.131   8.255
 4028SOL     OW13980   1.112   6.849  10.219
 4028SOL    HW113981   1.137   6.934  10.184
 4028SOL    HW213982   1.190   6.794  10.205
 4029SOL     OW13983  10.645  13.719   6.202
 4029SOL    HW113984  10.661  13.733   6.108
 4029SOL    HW213985  10.623  13.626   6.208
 4030SOL     OW13986   1.799  14.425   6.778
 4030SOL    HW113987   1.781  14.430   6.684
 4030SOL    HW213988   1.870  14.487   6.793
 4031SOL     OW13989   5.614  11.505  12.106
 4031SOL    HW113990   5.710  11.506  12.101
 4031SOL    HW213991   5.594  11.547  12.189
 4032SOL     OW13992   2.491  11.674   6.014
 4032SOL    HW113993   2.517  11.687   5.923
 4032SOL    HW213994   2.562  11.711   6.065
 4033SOL     OW13995   7.442   8.616   7.011
 4033SOL    HW113996   7.527   8.579   6.986
 4033SOL    HW213997   7.434   8.695   6.957
 4034SOL     OW13998   2.796   6.907   9.080
 4034SOL    HW113999   2.731   6.874   9.018
 4034SOL    HW214000   2.756   6.985   9.118
 4035SOL     OW14001  10.097  11.294  10.711
 4035SOL    HW114002  10.025  11.331  10.762
 4035SOL    HW214003  10.055  11.256  10.634
 4036SOL     OW14004   5.540  11.228   2.393
 4036SOL    HW114005   5.632  11.241   2.371
 4036SOL    HW214006   5.493  11.294   2.341
 4037SOL     OW14007   0.214   5.783  11.138
 4037SOL    HW114008   0.170   5.867  11.150
 4037SOL    HW214009   0.296   5.805  11.094
 4038SOL     OW14010   1.507   2.325   5.159
 4038SOL    HW114011   1.497   2.360   5.071
 4038SOL    HW214012   1.543   2.237   5.147
 4039SOL     OW14013  13.108  10.074  10.834
 4039SOL    HW114014  13.020  10.112  10.837
 4039SOL    HW214015  13.167  10.149  10.848
 4040SOL     OW14016   3.255   9.687   1.887
 4040SOL    HW114017   3.255   9.770   1.935
 4040SOL    HW214018   3.165   9.655   1.895
 4041SOL     OW14019  13.015  12.411   2.833
 4041SOL    HW114020  13.009  12.356   2.755
 4041SOL    HW214021  12.958  12.485   2.814
 4042SOL     OW14022   1.152   9.689   7.504
 4042SOL    HW114023   1.246   9.707   7.502
 4042SOL    HW214024   1.111   9.775   7.506
 4043SOL     OW14025   2.003   6.688   1.092
 4043SOL    HW114026   2.079   6.656   1.141
 4043SOL    HW214027   2.030   6.774   1.061
 4044SOL     OW14028   3.135   3.136   7.845
 4044SOL    HW114029   3.227   3.112   7.835
 4044SOL    HW214030   3.099   3.133   7.757
 4045SOL     OW14031   3.884   3.992   0.017
 4045SOL    HW114032   3.965   4.035  14.872
 4045SOL    HW214033   3.896   3.974   0.110
 4046SOL     OW14034   0.308  14.594  11.159
 4046SOL    HW114035   0.277  14.631  11.241
 4046SOL    HW214036   0.247  14.627  11.093
 4047SOL     OW14037   4.158   0.911  14.533
 4047SOL    HW114038   4.120   0.889  14.448
 4047SOL    HW214039   4.088   0.893  14.597
 4048SOL     OW14040  11.842   3.137   3.077
 4048SOL    HW114041  11.762   3.135   3.131
 4048SOL    HW214042  11.814   3.176   2.995
 4049SOL     OW14043   7.889   5.358  10.200
 4049SOL    HW114044   7.975   5.349  10.241
 4049SOL    HW214045   7.829   5.311  10.258
 4050SOL     OW14046   0.247   4.516   2.110
 4050SOL    HW114047   0.302   4.439   2.095
 4050SOL    HW214048   0.179   4.485   2.170
 4051SOL     OW14049   2.868   8.405  10.682
 4051SOL    HW114050   2.795   8.373  10.735
 4051SOL    HW214051   2.842   8.385  10.591
 4052SOL     OW14052   6.536   4.758  14.245
 4052SOL    HW114053   6.461   4.698  14.248
 4052SOL    HW214054   6.526   4.813  14.323
 4053SOL     OW14055   7.848  11.886  10.553
 4053SOL    HW114056   7.816  11.800  10.581
 4053SOL    HW214057   7.907  11.914  10.623
 4054SOL     OW14058   7.042  13.593   7.444
 4054SOL    HW114059   7.125  13.550   7.467
 4054SOL    HW214060   6.996  13.604   7.527
 4055SOL     OW14061  14.120   5.347  14.085
 4055SOL    HW114062  14.181   5.274  14.087
 4055SOL    HW214063  14.074   5.338  14.002
 4056SOL     OW14064   4.154   4.933  13.342
 4056SOL    HW114065   4.082   4.930  13.404
 4056SOL    HW214066   4.121   4.984  13.268
 4057SOL     OW14067   2.550  11.139   8.106
 4057SOL    HW114068   2.488  11.086   8.056
 4057SOL    HW214069   2.616  11.076   8.136
 4058SOL     OW14070   2.685   3.018   5.547
 4058SOL    HW114071   2.685   3.099   5.495
 4058SOL    HW214072   2.625   3.036   5.619
 4059SOL     OW14073   6.720   4.481   3.871
 4059SOL    HW114074   6.798   4.440   3.908
 4059SOL    HW214075   6.752   4.562   3.831
 4060SOL     OW14076   1.542  13.059  12.514
 4060SOL    HW114077   1.453  13.047  12.547
 4060SOL    HW214078   1.531  13.104  12.431
 4061SOL     OW14079   0.594  11.089   3.818
 4061SOL    HW114080   0.681  11.124   3.798
 4061SOL    HW214081   0.611  10.998   3.843
 4062SOL     OW14082   8.451   3.321   4.211
 4062SOL    HW114083   8.360   3.302   4.232
 4062SOL    HW214084   8.488   3.355   4.292
 4063SOL     OW14085   0.688  10.400   0.825
 4063SOL    HW114086   0.656  10.445   0.903
 4063SOL    HW214087   0.769  10.356   0.853
 4064SOL     OW14088  10.824   9.895   0.163
 4064SOL    HW114089  10.825   9.859   0.074
 4064SOL    HW214090  10.732   9.917   0.179
 4065SOL     OW14091  11.661  14.485   0.510
 4065SOL    HW114092  11.704  14.524   0.433
 4065SOL    HW214093  11.618  14.559   0.553
 4066SOL     OW14094   8.585   1.173  14.237
 4066SOL    HW114095   8.646   1.103  14.257
 4066SOL    HW214096   8.555   1.154  14.148
 4067SOL     OW14097   1.128   5.906   1.470
 4067SOL    HW114098   1.046   5.930   1.427
 4067SOL    HW214099   1.136   5.968   1.542
 4068SOL     OW14100   5.815  10.175   9.594
 4068SOL    HW114101   5.872  10.210   9.662
 4068SOL    HW214102   5.875  10.136   9.530
 4069SOL     OW14103  10.275   8.748   2.961
 4069SOL    HW114104  10.242   8.836   2.947
 4069SOL    HW214105  10.219   8.712   3.030
 4070SOL     OW14106   3.870  14.738   3.372
 4070SOL    HW114107   3.827  14.822   3.357
 4070SOL    HW214108   3.866  14.725   3.467
 4071SOL     OW14109   0.106   7.675  14.664
 4071SOL    HW114110   0.091   7.683  14.570
 4071SOL    HW214111   0.166   7.746  14.686
 4072SOL     OW14112   4.776  10.497   2.668
 4072SOL    HW114113   4.773  10.529   2.578
 4072SOL    HW214114   4.868  10.472   2.681
 4073SOL     OW14115  10.979  13.074  14.107
 4073SOL    HW114116  10.957  13.148  14.163
 4073SOL    HW214117  11.073  13.083  14.091
 4074SOL     OW14118  12.894   2.348  11.754
 4074SOL    HW114119  12.989   2.357  11.769
 4074SOL    HW214120  12.875   2.406  11.681
 4075SOL     OW14121  14.031  10.966   1.585
 4075SOL    HW114122  13.995  10.888   1.627
 4075SOL    HW214123  14.102  10.995   1.642
 4076SOL     OW14124  10.445  14.689   5.259
 4076SOL    HW114125  10.532  14.725   5.270
 4076SOL    HW214126  10.428  14.639   5.339
 4077SOL     OW14127   5.551   7.350   1.881
 4077SOL    HW114128   5.616   7.315   1.941
 4077SOL    HW214129   5.540   7.442   1.906
 4078SOL     OW14130  11.950  13.235  13.362
 4078SOL    HW114131  11.858  13.258  13.361
 4078SOL    HW214132  11.952  13.140  13.376
 4079SOL     OW14133   5.032   0.825  10.354
 4079SOL    HW114134   4.980   0.895  10.393
 4079SOL    HW214135   4.968   0.762  10.321
 4080SOL     OW14136  10.421   6.294   6.038
 4080SOL    HW114137  10.437   6.219   5.982
 4080SOL    HW214138  10.404   6.256   6.125
 4081SOL     OW14139   1.801   1.271   3.037
 4081SOL    HW114140   1.866   1.200   3.036
 4081SOL    HW214141   1.769   1.273   3.127
 4082SOL     OW14142  12.394   3.837  12.619
 4082SOL    HW114143  12.461   3.811  12.556
 4082SOL    HW214144  12.442   3.892  12.682
 4083SOL     OW14145   1.209  13.867   5.671
 4083SOL    HW114146   1.174  13.929   5.608
 4083SOL    HW214147   1.265  13.809   5.619
 4084SOL     OW14148  13.512   2.121  12.558
 4084SOL    HW114149  13.447   2.191  12.550
 4084SOL    HW214150  13.593   2.160  12.522
 4085SOL     OW14151   4.396   9.290   3.661
 4085SOL    HW114152   4.460   9.360   3.676
 4085SOL    HW214153   4.435   9.238   3.590
 4086SOL     OW14154   1.432  11.833  13.793
 4086SOL    HW114155   1.403  11.915  13.833
 4086SOL    HW214156   1.526  11.829  13.809
 4087SOL     OW14157  11.601   2.822   9.045
 4087SOL    HW114158  11.572   2.808   9.135
 4087SOL    HW214159  11.637   2.910   9.045
 4088SOL     OW14160  13.317   0.581   9.950
 4088SOL    HW114161  13.241   0.536   9.912
 4088SOL    HW214162  13.337   0.531  10.029
 4089SOL     OW14163   5.518   4.512  11.295
 4089SOL    HW114164   5.546   4.420  11.302
 4089SOL    HW214165   5.527   4.546  11.384
 4090SOL     OW14166   8.375  10.433   6.603
 4090SOL    HW114167   8.442  10.467   6.662
 4090SOL    HW214168   8.393  10.474   6.519
 4091SOL     OW14169  13.458   0.323  12.173
 4091SOL    HW114170  13.546   0.285  12.164
 4091SOL    HW214171  13.399   0.249  12.161
 4092SOL     OW14172   1.388   9.409   5.843
 4092SOL    HW114173   1.428   9.417   5.756
 4092SOL    HW214174   1.457   9.437   5.904
 4093SOL     OW14175   3.934  14.755   6.148
 4093SOL    HW114176   4.000  14.796   6.092
 4093SOL    HW214177   3.857  14.746   6.091
 4094SOL     OW14178   8.375  14.193   7.332
 4094SOL    HW114179   8.391  14.106   7.369
 4094SOL    HW214180   8.410  14.253   7.397
 4095SOL     OW14181   8.980   6.486   9.799
 4095SOL    HW114182   9.043   6.553   9.827
 4095SOL    HW214183   8.898   6.533   9.787
 4096SOL     OW14184   8.111  13.943   6.552
 4096SOL    HW114185   8.065  13.884   6.492
 4096SOL    HW214186   8.057  13.944   6.631
 4097SOL     OW14187   8.629   0.569   4.508
 4097SOL    HW114188   8.553   0.598   4.558
 4097SOL    HW214189   8.694   0.544   4.574
 4098SOL     OW14190   1.133   8.323   0.943
 4098SOL    HW114191   1.208   8.270   0.971
 4098SOL    HW214192   1.133   8.397   1.004
 4099SOL     OW14193  11.706   2.261   2.673
 4099SOL    HW114194  11.694   2.168   2.651
 4099SOL    HW214195  11.794   2.266   2.708
 4100SOL     OW14196   8.421   0.814  11.821
 4100SOL    HW114197   8.485   0.850  11.882
 4100SOL    HW214198   8.386   0.891  11.775
 4101SOL     OW14199   4.742  10.231  10.333
 4101SOL    HW114200   4.813  10.203  10.276
 4101SOL    HW214201   4.714  10.315  10.297
 4102SOL     OW14202   9.652   8.215  11.320
 4102SOL    HW114203   9.719   8.238  11.256
 4102SOL    HW214204   9.571   8.211  11.269
 4103SOL     OW14205   2.669  12.256   5.572
 4103SOL    HW114206   2.594  12.308   5.603
 4103SOL    HW214207   2.742  12.286   5.626
 4104SOL     OW14208   4.625  12.465   2.658
 4104SOL    HW114209   4.532  12.446   2.669
 4104SOL    HW214210   4.635  12.556   2.687
 4105SOL     OW14211  13.493   1.027  10.405
 4105SOL    HW114212  13.471   0.983  10.323
 4105SOL    HW214213  13.580   0.994  10.428
 4106SOL     OW14214  11.970   6.089   0.436
 4106SOL    HW114215  11.963   6.183   0.420
 4106SOL    HW214216  11.952   6.048   0.351
 4107SOL     OW14217  11.000   6.474   0.449
 4107SOL    HW114218  11.073   6.447   0.506
 4107SOL    HW214219  11.042   6.521   0.377
 4108SOL     OW14220   5.978  11.276  13.340
 4108SOL    HW114221   5.985  11.335  13.416
 4108SOL    HW214222   6.055  11.220  13.347
 4109SOL     OW14223   8.575   4.884   1.033
 4109SOL    HW114224   8.579   4.856   0.941
 4109SOL    HW214225   8.615   4.813   1.082
 4110SOL     OW14226  10.058   1.499   0.791
 4110SOL    HW114227   9.990   1.523   0.854
 4110SOL    HW214228  10.023   1.529   0.706
 4111SOL     OW14229   3.005   5.516   2.079
 4111SOL    HW114230   2.953   5.483   2.005
 4111SOL    HW214231   3.095   5.497   2.054
 4112SOL     OW14232   2.207  11.459   8.529
 4112SOL    HW114233   2.211  11.369   8.560
 4112SOL    HW214234   2.144  11.502   8.586
 4113SOL     OW14235  14.532  12.551   2.331
 4113SOL    HW114236  14.436  12.555   2.340
 4113SOL    HW214237  14.548  12.473   2.278
 4114SOL     OW14238   5.038  12.065  13.190
 4114SOL    HW114239   5.121  12.102  13.161
 4114SOL    HW214240   4.998  12.031  13.110
 4115SOL     OW14241   5.329   4.119   3.116
 4115SOL    HW114242   5.386   4.042   3.114
 4115SOL    HW214243   5.240   4.083   3.118
 4116SOL     OW14244   1.327   0.326   2.042
 4116SOL    HW114245   1.267   0.260   2.079
 4116SOL    HW214246   1.285   0.353   1.961
 4117SOL     OW14247   1.556  12.437  11.317
 4117SOL    HW114248   1.502  12.360  11.297
 4117SOL    HW214249   1.510  12.510  11.276
 4118SOL     OW14250   6.058   4.666   0.666
 4118SOL    HW114251   6.091   4.710   0.744
 4118SOL    HW214252   5.963   4.667   0.676
 4119SOL     OW14253   7.715   3.489  14.622
 4119SOL    HW114254   7.783   3.553  14.642
 4119SOL    HW214255   7.761   3.406  14.611
 4120SOL     OW14256  11.536  11.570  10.141
 4120SOL    HW114257  11.495  11.656  10.129
 4120SOL    HW214258  11.463  11.508  10.139
 4121SOL     OW14259  12.706   3.916  13.701
 4121SOL    HW114260  12.636   3.881  13.757
 4121SOL    HW214261  12.664   3.985  13.651
 4122SOL     OW14262   2.019   6.199   3.809
 4122SOL    HW114263   2.089   6.226   3.869
 4122SOL    HW214264   2.064   6.164   3.733
 4123SOL     OW14265  11.917   9.608   6.787
 4123SOL    HW114266  11.912   9.658   6.868
 4123SOL    HW214267  11.992   9.550   6.800
 4124SOL     OW14268  14.507   1.670  12.795
 4124SOL    HW114269  14.476   1.761  12.786
 4124SOL    HW214270  14.430   1.617  12.775
 4125SOL     OW14271   2.813  13.039   0.341
 4125SOL    HW114272   2.817  12.965   0.281
 4125SOL    HW214273   2.781  13.112   0.287
 4126SOL     OW14274   6.971   6.695  14.051
 4126SOL    HW114275   7.062   6.668  14.065
 4126SOL    HW214276   6.938   6.711  14.139
 4127SOL     OW14277   8.901   9.917   4.696
 4127SOL    HW114278   8.852   9.996   4.673
 4127SOL    HW214279   8.837   9.846   4.688
 4128SOL     OW14280   9.046  14.538  11.051
 4128SOL    HW114281   8.967  14.514  11.002
 4128SOL    HW214282   9.013  14.566  11.137
 4129SOL     OW14283   9.318   1.798   5.364
 4129SOL    HW114284   9.248   1.849   5.403
 4129SOL    HW214285   9.290   1.783   5.274
 4130SOL     OW14286   8.775  10.457   6.912
 4130SOL    HW114287   8.853  10.455   6.856
 4130SOL    HW214288   8.711  10.404   6.865
 4131SOL     OW14289   0.596   6.786  13.673
 4131SOL    HW114290   0.524   6.749  13.622
 4131SOL    HW214291   0.625   6.715  13.730
 4132SOL     OW14292   2.660  12.726   3.676
 4132SOL    HW114293   2.634  12.767   3.758
 4132SOL    HW214294   2.590  12.664   3.656
 4133SOL     OW14295   4.503   0.652   6.366
 4133SOL    HW114296   4.427   0.597   6.348
 4133SOL    HW214297   4.467   0.739   6.381
 4134SOL     OW14298   0.455  13.865   5.060
 4134SOL    HW114299   0.529  13.828   5.108
 4134SOL    HW214300   0.437  13.948   5.106
 4135SOL     OW14301  10.012  14.490   8.075
 4135SOL    HW114302  10.008  14.536   8.159
 4135SOL    HW214303  10.022  14.398   8.099
 4136SOL     OW14304   6.559   7.483   8.606
 4136SOL    HW114305   6.557   7.387   8.603
 4136SOL    HW214306   6.494   7.506   8.673
 4137SOL     OW14307  10.454   6.473  13.772
 4137SOL    HW114308  10.539   6.509  13.746
 4137SOL    HW214309  10.421   6.535  13.837
 4138SOL     OW14310   2.919   0.394   2.941
 4138SOL    HW114311   2.941   0.336   3.014
 4138SOL    HW214312   2.946   0.346   2.863
 4139SOL     OW14313   7.270  13.219   0.252
 4139SOL    HW114314   7.304  13.304   0.280
 4139SOL    HW214315   7.338  13.156   0.278
 4140SOL     OW14316  12.249   1.257   7.139
 4140SOL    HW114317  12.234   1.166   7.113
 4140SOL    HW214318  12.239   1.257   7.234
 4141SOL     OW14319   2.808   8.157   3.785
 4141SOL    HW114320   2.901   8.136   3.796
 4141SOL    HW214321   2.780   8.106   3.709
 4142SOL     OW14322  10.299   1.000   3.025
 4142SOL    HW114323  10.286   1.095   3.018
 4142SOL    HW214324  10.236   0.972   3.091
 4143SOL     OW14325  11.319   6.352  13.050
 4143SOL    HW114326  11.256   6.386  12.985
 4143SOL    HW214327  11.402   6.350  13.003
 4144SOL     OW14328   6.175   7.334   2.355
 4144SOL    HW114329   6.170   7.376   2.441
 4144SOL    HW214330   6.208   7.402   2.296
 4145SOL     OW14331  12.030  12.956  11.406
 4145SOL    HW114332  11.941  12.965  11.371
 4145SOL    HW214333  12.052  12.864  11.394
 4146SOL     OW14334   8.755   0.976   3.280
 4146SOL    HW114335   8.758   0.887   3.316
 4146SOL    HW214336   8.846   1.002   3.269
 4147SOL     OW14337   6.215   6.663   5.455
 4147SOL    HW114338   6.236   6.749   5.491
 4147SOL    HW214339   6.194   6.680   5.363
 4148SOL     OW14340   2.925   9.015  14.497
 4148SOL    HW114341   2.939   9.044  14.587
 4148SOL    HW214342   2.979   9.074  14.444
 4149SOL     OW14343  10.075  11.147   2.587
 4149SOL    HW114344  10.027  11.097   2.654
 4149SOL    HW214345  10.093  11.084   2.518
 4150SOL     OW14346  13.957  10.389   1.033
 4150SOL    HW114347  13.973  10.474   1.074
 4150SOL    HW214348  13.923  10.411   0.946
 4151SOL     OW14349  14.253   7.513   7.910
 4151SOL    HW114350  14.343   7.481   7.914
 4151SOL    HW214351  14.260   7.608   7.912
 4152SOL     OW14352  13.808  13.241  12.581
 4152SOL    HW114353  13.799  13.213  12.672
 4152SOL    HW214354  13.758  13.323  12.576
 4153SOL     OW14355   6.679   8.394  10.278
 4153SOL    HW114356   6.601   8.441  10.248
 4153SOL    HW214357   6.666   8.383  10.372
 4154SOL     OW14358  12.588   7.681   0.054
 4154SOL    HW114359  12.535   7.758   0.077
 4154SOL    HW214360  12.625   7.652   0.137
 4155SOL     OW14361   1.786  12.762   2.168
 4155SOL    HW114362   1.736  12.734   2.091
 4155SOL    HW214363   1.778  12.689   2.230
 4156SOL     OW14364   5.683  12.471   4.509
 4156SOL    HW114365   5.770  12.469   4.469
 4156SOL    HW214366   5.700  12.465   4.603
 4157SOL     OW14367  14.020  10.719   5.430
 4157SOL    HW114368  13.993  10.650   5.369
 4157SOL    HW214369  14.091  10.764   5.385
 4158SOL     OW14370  10.632   3.254   5.809
 4158SOL    HW114371  10.685   3.221   5.736
 4158SOL    HW214372  10.555   3.198   5.810
 4159SOL     OW14373  11.803   3.233   0.794
 4159SOL    HW114374  11.880   3.256   0.740
 4159SOL    HW214375  11.826   3.263   0.882
 4160SOL     OW14376   0.982   4.074   1.046
 4160SOL    HW114377   0.960   4.165   1.062
 4160SOL    HW214378   0.964   4.029   1.128
 4161SOL     OW14379   7.845  14.693   5.652
 4161SOL    HW114380   7.856  14.602   5.625
 4161SOL    HW214381   7.933  14.731   5.645
 4162SOL     OW14382   1.004   2.049  12.898
 4162SOL    HW114383   0.999   1.954  12.905
 4162SOL    HW214384   0.918   2.075  12.863
 4163SOL     OW14385   8.138   6.040   4.741
 4163SOL    HW114386   8.211   5.979   4.738
 4163SOL    HW214387   8.158   6.098   4.814
 4164SOL     OW14388  11.554   3.494   5.468
 4164SOL    HW114389  11.605   3.574   5.452
 4164SOL    HW214390  11.586   3.432   5.402
 4165SOL     OW14391  11.255  12.568   0.433
 4165SOL    HW114392  11.348  12.548   0.440
 4165SOL    HW214393  11.252  12.662   0.418
 4166SOL     OW14394   6.196   0.228  14.029
 4166SOL    HW114395   6.135   0.155  14.024
 4166SOL    HW214396   6.217   0.235  14.122
 4167SOL     OW14397   0.524   2.665   7.860
 4167SOL    HW114398   0.457   2.632   7.919
 4167SOL    HW214399   0.511   2.616   7.778
 4168SOL     OW14400   0.041   8.901   9.622
 4168SOL    HW114401   0.072   8.870   9.537
 4168SOL    HW214402  14.851   8.842   9.644
 4169SOL     OW14403  14.305  12.690   3.765
 4169SOL    HW114404  14.383  12.635   3.757
 4169SOL    HW214405  14.306  12.721   3.855
 4170SOL     OW14406   0.044   3.515   4.539
 4170SOL    HW114407   0.106   3.444   4.521
 4170SOL    HW214408  14.840   3.477   4.520
 4171SOL     OW14409   1.425  14.072  12.155
 4171SOL    HW114410   1.336  14.105  12.139
 4171SOL    HW214411   1.432  13.996  12.098
 4172SOL     OW14412   2.910   1.069   7.473
 4172SOL    HW114413   2.889   1.144   7.529
 4172SOL    HW214414   2.829   1.019   7.468
 4173SOL     OW14415   8.243   7.178   5.096
 4173SOL    HW114416   8.154   7.147   5.111
 4173SOL    HW214417   8.253   7.175   5.001
 4174SOL     OW14418   4.864   9.732  12.993
 4174SOL    HW114419   4.906   9.814  12.969
 4174SOL    HW214420   4.936   9.669  13.001
 4175SOL     OW14421   1.908  11.454  10.493
 4175SOL    HW114422   1.879  11.542  10.516
 4175SOL    HW214423   1.890  11.447  10.399
 4176SOL     OW14424   3.471   6.716   8.141
 4176SOL    HW114425   3.379   6.717   8.115
 4176SOL    HW214426   3.479   6.637   8.196
 4177SOL     OW14427  10.391   5.981   9.252
 4177SOL    HW114428  10.334   6.028   9.314
 4177SOL    HW214429  10.429   6.050   9.197
 4178SOL     OW14430   7.890  14.114  12.244
 4178SOL    HW114431   7.874  14.134  12.152
 4178SOL    HW214432   7.943  14.187  12.276
 4179SOL     OW14433   1.989   2.518   9.405
 4179SOL    HW114434   1.945   2.493   9.324
 4179SOL    HW214435   1.931   2.486   9.475
 4180SOL     OW14436   3.047  12.117   4.751
 4180SOL    HW114437   3.034  12.093   4.842
 4180SOL    HW214438   3.137  12.091   4.731
 4181SOL     OW14439   8.949  12.056   1.500
 4181SOL    HW114440   8.894  12.073   1.423
 4181SOL    HW214441   8.910  12.107   1.570
 4182SOL     OW14442   1.775   5.994  11.051
 4182SOL    HW114443   1.835   5.927  11.019
 4182SOL    HW214444   1.822   6.035  11.124
 4183SOL     OW14445   7.665   0.811   7.832
 4183SOL    HW114446   7.685   0.719   7.846
 4183SOL    HW214447   7.575   0.821   7.863
 4184SOL     OW14448  13.280  12.666   2.752
 4184SOL    HW114449  13.198  12.628   2.782
 4184SOL    HW214450  13.259  12.758   2.733
 4185SOL     OW14451   8.868   4.478   6.452
 4185SOL    HW114452   8.773   4.477   6.441
 4185SOL    HW214453   8.885   4.558   6.502
 4186SOL     OW14454   6.987  11.307  11.056
 4186SOL    HW114455   6.940  11.362  10.994
 4186SOL    HW214456   7.042  11.251  11.001
 4187SOL     OW14457   0.647   6.210  11.075
 4187SOL    HW114458   0.698   6.235  11.152
 4187SOL    HW214459   0.699   6.142  11.032
 4188SOL     OW14460   9.914   3.884  14.732
 4188SOL    HW114461   9.851   3.818  14.760
 4188SOL    HW214462   9.980   3.885  14.801
 4189SOL     OW14463   1.836   7.392   1.733
 4189SOL    HW114464   1.916   7.358   1.693
 4189SOL    HW214465   1.820   7.334   1.808
 4190SOL     OW14466   8.550  14.296   7.787
 4190SOL    HW114467   8.599  14.354   7.845
 4190SOL    HW214468   8.604  14.218   7.780
 4191SOL     OW14469   6.000   9.570   3.024
 4191SOL    HW114470   6.087   9.542   3.052
 4191SOL    HW214471   6.017   9.644   2.966
 4192SOL     OW14472   6.491  13.353   1.329
 4192SOL    HW114473   6.495  13.342   1.234
 4192SOL    HW214474   6.403  13.386   1.345
 4193SOL     OW14475   9.928   6.522  13.576
 4193SOL    HW114476   9.936   6.488  13.487
 4193SOL    HW214477   9.873   6.600  13.567
 4194SOL     OW14478  13.279  11.640   9.146
 4194SOL    HW114479  13.244  11.569   9.091
 4194SOL    HW214480  13.274  11.606   9.235
 4195SOL     OW14481   2.904   6.109   8.694
 4195SOL    HW114482   2.880   6.146   8.779
 4195SOL    HW214483   2.977   6.051   8.712
 4196SOL     OW14484  13.700   6.651   9.794
 4196SOL    HW114485  13.715   6.694   9.878
 4196SOL    HW214486  13.606   6.659   9.780
 4197SOL     OW14487   0.658   7.346   9.217
 4197SOL    HW114488   0.655   7.267   9.271
 4197SOL    HW214489   0.655   7.419   9.279
 4198SOL     OW14490   6.017  12.000   6.703
 4198SOL    HW114491   6.028  12.088   6.739
 4198SOL    HW214492   6.073  11.944   6.756
 4199SOL     OW14493   2.618   9.531   9.503
 4199SOL    HW114494   2.595   9.492   9.587
 4199SOL    HW214495   2.708   9.561   9.514
 4200SOL     OW14496  11.939  10.495   6.539
 4200SOL    HW114497  11.910  10.437   6.468
 4200SOL    HW214498  12.014  10.449   6.577
 4201SOL     OW14499  11.759   5.808   2.682
 4201SOL    HW114500  11.834   5.856   2.717
 4201SOL    HW214501  11.762   5.723   2.726
 4202SOL     OW14502   6.415   7.245   8.634
 4202SOL    HW114503   6.466   7.200   8.566
 4202SOL    HW214504   6.385   7.175   8.691
 4203SOL     OW14505   6.091  10.574   4.658
 4203SOL    HW114506   6.184  10.551   4.659
 4203SOL    HW214507   6.050  10.510   4.715
 4204SOL     OW14508   8.715   5.203  13.619
 4204SOL    HW114509   8.734   5.148  13.694
 4204SOL    HW214510   8.640   5.257  13.646
 4205SOL     OW14511  13.996   3.415  14.323
 4205SOL    HW114512  13.970   3.456  14.240
 4205SOL    HW214513  13.918   3.365  14.349
 4206SOL     OW14514   3.686   9.022   4.402
 4206SOL    HW114515   3.777   9.028   4.375
 4206SOL    HW214516   3.636   9.031   4.320
 4207SOL     OW14517   3.817  13.237   1.847
 4207SOL    HW114518   3.794  13.154   1.804
 4207SOL    HW214519   3.911  13.249   1.828
 4208SOL     OW14520   7.491   8.452  11.087
 4208SOL    HW114521   7.481   8.389  11.015
 4208SOL    HW214522   7.521   8.532  11.045
 4209SOL     OW14523  10.248   1.516   9.051
 4209SOL    HW114524  10.303   1.558   9.118
 4209SOL    HW214525  10.258   1.422   9.068
 4210SOL     OW14526   0.772  12.689  12.773
 4210SOL    HW114527   0.812  12.630  12.838
 4210SOL    HW214528   0.681  12.695  12.799
 4211SOL     OW14529  13.303  13.974  11.486
 4211SOL    HW114530  13.229  13.925  11.523
 4211SOL    HW214531  13.262  14.046  11.437
 4212SOL     OW14532   0.326   1.763  13.442
 4212SOL    HW114533   0.326   1.760  13.346
 4212SOL    HW214534   0.345   1.854  13.463
 4213SOL     OW14535  10.880   8.033  10.340
 4213SOL    HW114536  10.827   8.111  10.326
 4213SOL    HW214537  10.938   8.030  10.264
 4214SOL     OW14538   2.513  11.494   3.454
 4214SOL    HW114539   2.473  11.408   3.468
 4214SOL    HW214540   2.527  11.499   3.359
 4215SOL     OW14541   3.578   4.551   9.198
 4215SOL    HW114542   3.625   4.631   9.224
 4215SOL    HW214543   3.516   4.536   9.269
 4216SOL     OW14544   3.571   5.618  11.555
 4216SOL    HW114545   3.501   5.635  11.492
 4216SOL    HW214546   3.526   5.585  11.633
 4217SOL     OW14547   8.526   5.018  12.582
 4217SOL    HW114548   8.606   4.965  12.579
 4217SOL    HW214549   8.547   5.094  12.528
 4218SOL     OW14550  12.351   6.008   2.695
 4218SOL    HW114551  12.381   6.011   2.604
 4218SOL    HW214552  12.413   5.950   2.739
 4219SOL     OW14553   4.740  10.675   0.641
 4219SOL    HW114554   4.813  10.723   0.680
 4219SOL    HW214555   4.746  10.588   0.679
 4220SOL     OW14556   9.356   0.002   9.513
 4220SOL    HW114557   9.326  14.794   9.521
 4220SOL    HW214558   9.278   0.052   9.488
 4221SOL     OW14559   8.972   4.041   8.072
 4221SOL    HW114560   8.911   3.969   8.087
 4221SOL    HW214561   8.932   4.116   8.116
 4222SOL     OW14562   7.482  10.216   9.785
 4222SOL    HW114563   7.570  10.204   9.751
 4222SOL    HW214564   7.434  10.258   9.714
 4223SOL     OW14565   8.636   0.048   1.847
 4223SOL    HW114566   8.686  14.849   1.856
 4223SOL    HW214567   8.596   0.042   1.760
 4224SOL     OW14568   1.174   6.997   9.123
 4224SOL    HW114569   1.163   6.950   9.206
 4224SOL    HW214570   1.213   6.932   9.064
 4225SOL     OW14571   1.957   5.584  12.066
 4225SOL    HW114572   2.009   5.551  12.139
 4225SOL    HW214573   1.873   5.606  12.105
 4226SOL     OW14574   6.894   1.594  10.928
 4226SOL    HW114575   6.905   1.585  11.023
 4226SOL    HW214576   6.970   1.643  10.899
 4227SOL     OW14577   4.742   4.650   7.933
 4227SOL    HW114578   4.747   4.740   7.901
 4227SOL    HW214579   4.779   4.598   7.861
 4228SOL     OW14580  14.294  14.567   4.580
 4228SOL    HW114581  14.251  14.526   4.655
 4228SOL    HW214582  14.224  14.612   4.533
 4229SOL     OW14583   2.819   8.221   7.472
 4229SOL    HW114584   2.771   8.139   7.481
 4229SOL    HW214585   2.761   8.288   7.508
 4230SOL     OW14586  14.246   2.773   0.182
 4230SOL    HW114587  14.309   2.724   0.235
 4230SOL    HW214588  14.194   2.822   0.245
 4231SOL     OW14589   0.784   7.175  13.170
 4231SOL    HW114590   0.822   7.093  13.137
 4231SOL    HW214591   0.690   7.158  13.174
 4232SOL     OW14592  14.261   4.404   0.881
 4232SOL    HW114593  14.248   4.485   0.931
 4232SOL    HW214594  14.198   4.342   0.918
 4233SOL     OW14595   1.478   5.334   4.587
 4233SOL    HW114596   1.410   5.288   4.637
 4233SOL    HW214597   1.531   5.377   4.653
 4234SOL     OW14598  10.831   7.862   0.244
 4234SOL    HW114599  10.851   7.769   0.231
 4234SOL    HW214600  10.899   7.892   0.305
 4235SOL     OW14601   2.765  10.135   3.446
 4235SOL    HW114602   2.763  10.040   3.456
 4235SOL    HW214603   2.799  10.167   3.529
 4236SOL     OW14604   2.440  12.951   1.152
 4236SOL    HW114605   2.430  12.856   1.161
 4236SOL    HW214606   2.512  12.963   1.090
 4237SOL     OW14607   2.215   6.472   5.767
 4237SOL    HW114608   2.179   6.519   5.842
 4237SOL    HW214609   2.244   6.388   5.803
 4238SOL     OW14610   8.700   3.099  11.232
 4238SOL    HW114611   8.632   3.041  11.196
 4238SOL    HW214612   8.735   3.052  11.308
 4239SOL     OW14613   7.410   0.316   0.071
 4239SOL    HW114614   7.480   0.357   0.121
 4239SOL    HW214615   7.341   0.382   0.066
 4240SOL     OW14616   7.791   8.541  13.562
 4240SOL    HW114617   7.828   8.453  13.555
 4240SOL    HW214618   7.816   8.571  13.649
 4241SOL     OW14619  11.530  14.416   2.730
 4241SOL    HW114620  11.563  14.332   2.696
 4241SOL    HW214621  11.549  14.413   2.824
 4242SOL     OW14622  12.303   9.178   4.735
 4242SOL    HW114623  12.381   9.136   4.699
 4242SOL    HW214624  12.325   9.196   4.827
 4243SOL     OW14625   1.889  14.762   5.445
 4243SOL    HW114626   1.919  14.851   5.464
 4243SOL    HW214627   1.828  14.772   5.372
 4244SOL     OW14628   8.707  14.593   2.818
 4244SOL    HW114629   8.663  14.509   2.807
 4244SOL    HW214630   8.695  14.614   2.911
 4245SOL     OW14631   8.799   6.074   2.346
 4245SOL    HW114632   8.762   6.155   2.314
 4245SOL    HW214633   8.809   6.019   2.268
 4246SOL     OW14634   1.375   2.754  12.319
 4246SOL    HW114635   1.407   2.703  12.393
 4246SOL    HW214636   1.301   2.703  12.285
 4247SOL     OW14637   4.102   8.025  11.262
 4247SOL    HW114638   4.054   7.944  11.280
 4247SOL    HW214639   4.152   8.041  11.342
 4248SOL     OW14640   5.445  10.525   0.525
 4248SOL    HW114641   5.516  10.467   0.497
 4248SOL    HW214642   5.376  10.465   0.554
 4249SOL     OW14643  13.462   4.532   5.203
 4249SOL    HW114644  13.491   4.444   5.230
 4249SOL    HW214645  13.426   4.571   5.283
 4250SOL     OW14646   7.458   5.938  10.402
 4250SOL    HW114647   7.515   5.974  10.334
 4250SOL    HW214648   7.384   5.998  10.406
 4251SOL     OW14649   1.980   7.777   6.778
 4251SOL    HW114650   2.065   7.820   6.771
 4251SOL    HW214651   1.988   7.720   6.855
 4252SOL     OW14652  10.183  10.584   6.652
 4252SOL    HW114653  10.156  10.591   6.561
 4252SOL    HW214654  10.129  10.513   6.688
 4253SOL     OW14655   8.178   0.847   4.219
 4253SOL    HW114656   8.253   0.797   4.252
 4253SOL    HW214657   8.214   0.933   4.200
 4254SOL     OW14658  11.239   8.686  12.147
 4254SOL    HW114659  11.211   8.615  12.089
 4254SOL    HW214660  11.242   8.764  12.091
 4255SOL     OW14661  14.478   2.416   0.964
 4255SOL    HW114662  14.565   2.428   0.925
 4255SOL    HW214663  14.446   2.335   0.925
 4256SOL     OW14664  10.168   4.089  12.150
 4256SOL    HW114665  10.161   4.115  12.242
 4256SOL    HW214666  10.243   4.139  12.117
 4257SOL     OW14667  12.603  14.115   6.913
 4257SOL    HW114668  12.656  14.035   6.906
 4257SOL    HW214669  12.532  14.102   6.850
 4258SOL     OW14670  13.870   1.745   0.689
 4258SOL    HW114671  13.965   1.742   0.676
 4258SOL    HW214672  13.841   1.655   0.673
 4259SOL     OW14673  12.134   4.856   8.979
 4259SOL    HW114674  12.075   4.927   9.003
 4259SOL    HW214675  12.103   4.781   9.031
 4260SOL     OW14676   1.534  14.375   8.045
 4260SOL    HW114677   1.582  14.353   7.965
 4260SOL    HW214678   1.501  14.291   8.077
 4261SOL     OW14679   0.141   4.485   5.888
 4261SOL    HW114680   0.184   4.439   5.816
 4261SOL    HW214681   0.053   4.447   5.892
 4262SOL     OW14682   3.456  13.502   7.861
 4262SOL    HW114683   3.387  13.435   7.856
 4262SOL    HW214684   3.503  13.495   7.778
 4263SOL     OW14685   8.673   4.640   2.250
 4263SOL    HW114686   8.748   4.633   2.192
 4263SOL    HW214687   8.693   4.716   2.305
 4264SOL     OW14688   0.440   6.543   3.462
 4264SOL    HW114689   0.507   6.611   3.464
 4264SOL    HW214690   0.443   6.504   3.550
 4265SOL     OW14691   2.368   8.155   8.133
 4265SOL    HW114692   2.425   8.085   8.098
 4265SOL    HW214693   2.427   8.230   8.143
 4266SOL     OW14694  10.426   0.961   8.262
 4266SOL    HW114695  10.514   0.927   8.278
 4266SOL    HW214696  10.430   0.998   8.174
 4267SOL     OW14697  14.082  14.673   5.862
 4267SOL    HW114698  14.137  14.654   5.939
 4267SOL    HW214699  14.055  14.588   5.830
 4268SOL     OW14700   0.986   1.964   3.593
 4268SOL    HW114701   1.068   2.003   3.562
 4268SOL    HW214702   1.011   1.875   3.619
 4269SOL     OW14703  13.912  13.042   8.245
 4269SOL    HW114704  13.860  13.115   8.278
 4269SOL    HW214705  13.955  13.076   8.167
 4270SOL     OW14706   2.606   5.540   4.423
 4270SOL    HW114707   2.574   5.568   4.509
 4270SOL    HW214708   2.586   5.446   4.419
 4271SOL     OW14709  10.151   2.499  13.603
 4271SOL    HW114710  10.124   2.456  13.522
 4271SOL    HW214711  10.072   2.497  13.658
 4272SOL     OW14712   5.240  12.494  10.446
 4272SOL    HW114713   5.182  12.421  10.470
 4272SOL    HW214714   5.277  12.523  10.529
 4273SOL     OW14715   5.062   1.607   5.430
 4273SOL    HW114716   5.021   1.677   5.380
 4273SOL    HW214717   5.141   1.586   5.381
 4274SOL     OW14718   0.738   8.942  10.956
 4274SOL    HW114719   0.709   8.938  11.047
 4274SOL    HW214720   0.674   8.889  10.908
 4275SOL     OW14721  10.947   0.748  12.245
 4275SOL    HW114722  11.028   0.715  12.282
 4275SOL    HW214723  10.901   0.670  12.215
 4276SOL     OW14724  10.936   2.702  12.802
 4276SOL    HW114725  10.887   2.626  12.771
 4276SOL    HW214726  10.903   2.775  12.750
 4277SOL     OW14727  10.507   7.257  11.916
 4277SOL    HW114728  10.441   7.323  11.894
 4277SOL    HW214729  10.584   7.283  11.867
 4278SOL     OW14730  12.013  11.281  10.839
 4278SOL    HW114731  12.022  11.318  10.927
 4278SOL    HW214732  12.050  11.348  10.782
 4279SOL     OW14733   0.564  11.814   8.857
 4279SOL    HW114734   0.577  11.723   8.828
 4279SOL    HW214735   0.485  11.843   8.811
 4280SOL     OW14736   3.603   8.575   3.939
 4280SOL    HW114737   3.587   8.587   3.846
 4280SOL    HW214738   3.528   8.524   3.970
 4281SOL     OW14739   6.405   5.618   4.742
 4281SOL    HW114740   6.434   5.619   4.833
 4281SOL    HW214741   6.484   5.634   4.691
 4282SOL     OW14742   5.202   4.525   8.982
 4282SOL    HW114743   5.171   4.563   8.900
 4282SOL    HW214744   5.289   4.492   8.963
 4283SOL     OW14745   5.861   0.176   8.714
 4283SOL    HW114746   5.906   0.236   8.655
 4283SOL    HW214747   5.800   0.231   8.763
 4284SOL     OW14748   5.860  12.409   0.950
 4284SOL    HW114749   5.851  12.438   1.041
 4284SOL    HW214750   5.946  12.369   0.946
 4285SOL     OW14751   6.170   7.236   4.061
 4285SOL    HW114752   6.263   7.233   4.081
 4285SOL    HW214753   6.147   7.329   4.064
 4286SOL     OW14754   3.013  11.029   0.464
 4286SOL    HW114755   3.078  11.085   0.421
 4286SOL    HW214756   3.026  11.044   0.557
 4287SOL     OW14757  14.877  10.973   5.959
 4287SOL    HW114758  14.806  10.980   5.895
 4287SOL    HW214759   0.014  10.879   5.963
 4288SOL     OW14760   8.090   9.180  14.291
 4288SOL    HW114761   8.119   9.271  14.288
 4288SOL    HW214762   8.148   9.139  14.355
 4289SOL     OW14763  12.287  10.681   2.964
 4289SOL    HW114764  12.218  10.643   3.019
 4289SOL    HW214765  12.368  10.644   2.999
 4290SOL     OW14766   4.352   5.530   5.299
 4290SOL    HW114767   4.314   5.552   5.214
 4290SOL    HW214768   4.314   5.594   5.359
 4291SOL     OW14769   0.648  12.223   7.521
 4291SOL    HW114770   0.557  12.250   7.515
 4291SOL    HW214771   0.644  12.128   7.536
 4292SOL     OW14772   6.891   9.847   8.443
 4292SOL    HW114773   6.817   9.840   8.503
 4292SOL    HW214774   6.915   9.756   8.425
 4293SOL     OW14775  11.390   6.084  11.458
 4293SOL    HW114776  11.396   6.114  11.368
 4293SOL    HW214777  11.361   5.993  11.451
 4294SOL     OW14778   5.014   4.164   6.713
 4294SOL    HW114779   4.973   4.215   6.783
 4294SOL    HW214780   5.003   4.217   6.634
 4295SOL     OW14781   9.630  14.409   2.026
 4295SOL    HW114782   9.687  14.339   2.057
 4295SOL    HW214783   9.642  14.480   2.089
 4296SOL     OW14784  10.778   8.947  14.661
 4296SOL    HW114785  10.825   9.030  14.654
 4296SOL    HW214786  10.847   8.883  14.681
 4297SOL     OW14787  10.112   2.062  13.241
 4297SOL    HW114788  10.146   2.061  13.330
 4297SOL    HW214789  10.048   1.991  13.239
 4298SOL     OW14790   2.083   7.330  14.847
 4298SOL    HW114791   2.059   7.394   0.032
 4298SOL    HW214792   2.159   7.285   0.001
 4299SOL     OW14793   4.875   6.836   7.453
 4299SOL    HW114794   4.913   6.857   7.368
 4299SOL    HW214795   4.781   6.828   7.435
 4300SOL     OW14796   3.556   3.694   9.924
 4300SOL    HW114797   3.476   3.746   9.931
 4300SOL    HW214798   3.627   3.758   9.925
 4301SOL     OW14799  11.327   6.806   4.124
 4301SOL    HW114800  11.399   6.781   4.182
 4301SOL    HW214801  11.276   6.869   4.176
 4302SOL     OW14802   5.083   0.715   8.918
 4302SOL    HW114803   5.138   0.659   8.864
 4302SOL    HW214804   5.000   0.721   8.870
 4303SOL     OW14805   3.484  12.761   3.527
 4303SOL    HW114806   3.540  12.834   3.554
 4303SOL    HW214807   3.544  12.686   3.520
 4304SOL     OW14808   8.817   0.507   7.315
 4304SOL    HW114809   8.774   0.559   7.247
 4304SOL    HW214810   8.817   0.418   7.282
 4305SOL     OW14811   7.362   2.253  10.633
 4305SOL    HW114812   7.405   2.300  10.561
 4305SOL    HW214813   7.406   2.168  10.635
 4306SOL     OW14814   5.125   8.830   6.236
 4306SOL    HW114815   5.120   8.791   6.323
 4306SOL    HW214816   5.214   8.811   6.207
 4307SOL     OW14817   2.102  10.799  11.038
 4307SOL    HW114818   2.111  10.894  11.045
 4307SOL    HW214819   2.109  10.767  11.128
 4308SOL     OW14820   7.853  13.079   2.042
 4308SOL    HW114821   7.885  13.145   1.982
 4308SOL    HW214822   7.830  13.005   1.987
 4309SOL     OW14823  13.963   0.474  12.328
 4309SOL    HW114824  14.043   0.421  12.325
 4309SOL    HW214825  13.992   0.560  12.359
 4310SOL     OW14826  11.473  10.258   8.050
 4310SOL    HW114827  11.464  10.181   7.994
 4310SOL    HW214828  11.527  10.228   8.123
 4311SOL     OW14829  13.572  12.645  13.462
 4311SOL    HW114830  13.619  12.613  13.539
 4311SOL    HW214831  13.564  12.739  13.477
 4312SOL     OW14832   8.672   7.271   3.093
 4312SOL    HW114833   8.721   7.354   3.092
 4312SOL    HW214834   8.645   7.261   3.184
 4313SOL     OW14835   4.098  14.061  12.380
 4313SOL    HW114836   4.091  14.105  12.295
 4313SOL    HW214837   4.101  13.968  12.358
 4314SOL     OW14838  11.741  13.519   7.941
 4314SOL    HW114839  11.816  13.469   7.909
 4314SOL    HW214840  11.752  13.606   7.903
 4315SOL     OW14841  11.460   9.288  14.704
 4315SOL    HW114842  11.373   9.264  14.736
 4315SOL    HW214843  11.490   9.356  14.764
 4316SOL     OW14844  11.028   5.584  11.100
 4316SOL    HW114845  10.960   5.530  11.141
 4316SOL    HW214846  11.110   5.540  11.122
 4317SOL     OW14847   3.647  11.412   5.871
 4317SOL    HW114848   3.679  11.501   5.889
 4317SOL    HW214849   3.697  11.356   5.931
 4318SOL     OW14850   1.490   6.994   3.131
 4318SOL    HW114851   1.435   7.056   3.084
 4318SOL    HW214852   1.433   6.919   3.149
 4319SOL     OW14853   1.924   5.584  10.041
 4319SOL    HW114854   1.841   5.617  10.076
 4319SOL    HW214855   1.899   5.523   9.973
 4320SOL     OW14856   9.214   2.240   4.084
 4320SOL    HW114857   9.300   2.254   4.044
 4320SOL    HW214858   9.151   2.262   4.015
 4321SOL     OW14859   4.497   8.769   4.885
 4321SOL    HW114860   4.454   8.697   4.930
 4321SOL    HW214861   4.518   8.832   4.954
 4322SOL     OW14862   1.002   2.080   8.863
 4322SOL    HW114863   0.930   2.021   8.885
 4322SOL    HW214864   1.035   2.110   8.948
 4323SOL     OW14865   0.999   4.483   2.949
 4323SOL    HW114866   1.026   4.417   3.013
 4323SOL    HW214867   1.057   4.557   2.965
 4324SOL     OW14868  14.836  13.356   7.026
 4324SOL    HW114869  14.747  13.390   7.031
 4324SOL    HW214870   0.004  13.412   7.085
 4325SOL     OW14871   6.700  11.542  12.469
 4325SOL    HW114872   6.691  11.635  12.489
 4325SOL    HW214873   6.738  11.539  12.381
 4326SOL     OW14874   7.638   3.420   8.265
 4326SOL    HW114875   7.611   3.354   8.330
 4326SOL    HW214876   7.732   3.406   8.255
 4327SOL     OW14877  13.148   8.955   1.414
 4327SOL    HW114878  13.227   8.997   1.379
 4327SOL    HW214879  13.157   8.863   1.388
 4328SOL     OW14880  13.821   6.430   6.749
 4328SOL    HW114881  13.788   6.408   6.836
 4328SOL    HW214882  13.849   6.521   6.757
 4329SOL     OW14883   4.126  12.492  12.884
 4329SOL    HW114884   4.060  12.429  12.913
 4329SOL    HW214885   4.148  12.465  12.795
 4330SOL     OW14886   3.172   0.710  10.526
 4330SOL    HW114887   3.242   0.654  10.561
 4330SOL    HW214888   3.092   0.672  10.561
 4331SOL     OW14889   3.519   3.519  12.762
 4331SOL    HW114890   3.612   3.514  12.740
 4331SOL    HW214891   3.497   3.612  12.752
 4332SOL     OW14892   7.915   3.507  14.195
 4332SOL    HW114893   7.888   3.529  14.106
 4332SOL    HW214894   7.994   3.455  14.184
 4333SOL     OW14895  10.904   0.528  14.656
 4333SOL    HW114896  10.979   0.500  14.604
 4333SOL    HW214897  10.939   0.541  14.744
 4334SOL     OW14898   3.178   4.876   1.559
 4334SOL    HW114899   3.243   4.862   1.629
 4334SOL    HW214900   3.216   4.945   1.505
 4335SOL     OW14901  12.117   5.306   6.737
 4335SOL    HW114902  12.060   5.302   6.660
 4335SOL    HW214903  12.181   5.374   6.715
 4336SOL     OW14904   6.681  10.951   9.064
 4336SOL    HW114905   6.733  10.944   8.984
 4336SOL    HW214906   6.628  11.029   9.051
 4337SOL     OW14907   4.489   7.376   2.942
 4337SOL    HW114908   4.456   7.301   2.991
 4337SOL    HW214909   4.583   7.358   2.932
 4338SOL     OW14910  13.524   0.730  14.306
 4338SOL    HW114911  13.444   0.778  14.324
 4338SOL    HW214912  13.517   0.706  14.214
 4339SOL     OW14913   4.995  12.610   3.925
 4339SOL    HW114914   5.039  12.689   3.955
 4339SOL    HW214915   5.038  12.539   3.972
 4340SOL     OW14916   2.405   1.516   6.423
 4340SOL    HW114917   2.343   1.452   6.457
 4340SOL    HW214918   2.456   1.543   6.499
 4341SOL     OW14919   3.536   0.634  10.415
 4341SOL    HW114920   3.619   0.600  10.381
 4341SOL    HW214921   3.480   0.641  10.338
 4342SOL     OW14922   6.093  12.011   0.427
 4342SOL    HW114923   6.010  12.045   0.460
 4342SOL    HW214924   6.135  12.086   0.386
 4343SOL     OW14925   3.016   7.922   6.095
 4343SOL    HW114926   2.987   7.997   6.044
 4343SOL    HW214927   2.936   7.878   6.121
 4344SOL     OW14928   3.193  13.786   9.291
 4344SOL    HW114929   3.167  13.876   9.274
 4344SOL    HW214930   3.233  13.757   9.209
 4345SOL     OW14931  11.357   8.543  13.855
 4345SOL    HW114932  11.309   8.504  13.928
 4345SOL    HW214933  11.324   8.497  13.778
 4346SOL     OW14934  14.771   8.780   6.023
 4346SOL    HW114935  14.681   8.769   6.054
 4346SOL    HW214936  14.825   8.750   6.096
 4347SOL     OW14937   5.803   3.973   4.983
 4347SOL    HW114938   5.749   3.966   4.904
 4347SOL    HW214939   5.893   3.974   4.952
 4348SOL     OW14940   0.469   9.558   0.565
 4348SOL    HW114941   0.560   9.552   0.535
 4348SOL    HW214942   0.446   9.468   0.590
 4349SOL     OW14943   8.638  10.640  13.520
 4349SOL    HW114944   8.641  10.568  13.584
 4349SOL    HW214945   8.722  10.685  13.531
 4350SOL     OW14946  12.248   4.326   4.784
 4350SOL    HW114947  12.308   4.326   4.709
 4350SOL    HW214948  12.200   4.243   4.777
 4351SOL     OW14949   1.378   6.795   3.684
 4351SOL    HW114950   1.306   6.841   3.641
 4351SOL    HW214951   1.335   6.744   3.753
 4352SOL     OW14952   9.722   0.826  10.191
 4352SOL    HW114953   9.653   0.811  10.127
 4352SOL    HW214954   9.684   0.798  10.274
 4353SOL     OW14955  11.040   6.554   9.065
 4353SOL    HW114956  11.129   6.522   9.073
 4353SOL    HW214957  11.005   6.510   8.988
 4354SOL     OW14958   5.187   0.274   6.206
 4354SOL    HW114959   5.121   0.210   6.180
 4354SOL    HW214960   5.252   0.271   6.135
 4355SOL     OW14961   9.043  10.187   9.138
 4355SOL    HW114962   8.961  10.203   9.184
 4355SOL    HW214963   9.017  10.146   9.056
 4356SOL     OW14964  12.186   1.350   6.056
 4356SOL    HW114965  12.184   1.367   5.962
 4356SOL    HW214966  12.272   1.382   6.084
 4357SOL     OW14967   5.053   2.468   7.136
 4357SOL    HW114968   5.035   2.560   7.156
 4357SOL    HW214969   4.969   2.432   7.108
 4358SOL     OW14970   5.146   3.220   5.361
 4358SOL    HW114971   5.215   3.178   5.412
 4358SOL    HW214972   5.189   3.297   5.322
 4359SOL     OW14973   8.591  11.661  10.626
 4359SOL    HW114974   8.676  11.641  10.588
 4359SOL    HW214975   8.548  11.718  10.562
 4360SOL     OW14976   6.028   7.173   0.805
 4360SOL    HW114977   5.941   7.147   0.835
 4360SOL    HW214978   6.082   7.096   0.819
 4361SOL     OW14979  12.134   7.738  14.276
 4361SOL    HW114980  12.092   7.784  14.204
 4361SOL    HW214981  12.146   7.648  14.244
 4362SOL     OW14982  11.369   0.365   3.857
 4362SOL    HW114983  11.452   0.338   3.817
 4362SOL    HW214984  11.387   0.451   3.895
 4363SOL     OW14985   1.030   6.892   9.869
 4363SOL    HW114986   0.979   6.946   9.931
 4363SOL    HW214987   1.121   6.912   9.890
 4364SOL     OW14988   2.055   2.375   2.609
 4364SOL    HW114989   2.030   2.413   2.524
 4364SOL    HW214990   2.150   2.385   2.613
 4365SOL     OW14991   4.647  11.485   1.635
 4365SOL    HW114992   4.562  11.447   1.658
 4365SOL    HW214993   4.675  11.532   1.713
 4366SOL     OW14994   1.385  14.022  13.166
 4366SOL    HW114995   1.413  13.932  13.152
 4366SOL    HW214996   1.375  14.058  13.077
 4367SOL     OW14997   5.601  12.609   6.505
 4367SOL    HW114998   5.657  12.534   6.525
 4367SOL    HW214999   5.640  12.647   6.427
 4368SOL     OW15000  11.161   4.667   6.035
 4368SOL    HW115001  11.197   4.587   5.996
 4368SOL    HW215002  11.161   4.730   5.963
 4369SOL     OW15003  10.876   0.506   9.795
 4369SOL    HW115004  10.878   0.502   9.891
 4369SOL    HW215005  10.843   0.421   9.768
 4370SOL     OW15006  11.565  13.913   3.340
 4370SOL    HW115007  11.496  13.980   3.336
 4370SOL    HW215008  11.577  13.887   3.248
 4371SOL     OW15009   4.630  10.726  11.972
 4371SOL    HW115010   4.563  10.769  12.024
 4371SOL    HW215011   4.708  10.727  12.028
 4372SOL     OW15012   8.724   4.222   1.623
 4372SOL    HW115013   8.778   4.291   1.661
 4372SOL    HW215014   8.660   4.268   1.570
 4373SOL     OW15015   8.682   0.681   1.146
 4373SOL    HW115016   8.640   0.603   1.110
 4373SOL    HW215017   8.768   0.684   1.103
 4374SOL     OW15018  12.661   3.360  11.677
 4374SOL    HW115019  12.719   3.407  11.738
 4374SOL    HW215020  12.718   3.294  11.638
 4375SOL     OW15021   2.318   4.301   3.419
 4375SOL    HW115022   2.357   4.377   3.375
 4375SOL    HW215023   2.367   4.292   3.500
 4376SOL     OW15024   7.315  12.735  10.194
 4376SOL    HW115025   7.311  12.641  10.181
 4376SOL    HW215026   7.287  12.772  10.110
 4377SOL     OW15027  13.956   0.744   1.527
 4377SOL    HW115028  14.034   0.785   1.564
 4377SOL    HW215029  13.980   0.723   1.436
 4378SOL     OW15030   7.637   2.472   3.020
 4378SOL    HW115031   7.542   2.469   3.020
 4378SOL    HW215032   7.659   2.559   3.053
 4379SOL     OW15033   0.065   9.702  10.434
 4379SOL    HW115034   0.032   9.676  10.348
 4379SOL    HW215035   0.054   9.797  10.437
 4380SOL     OW15036   1.379  13.276   4.957
 4380SOL    HW115037   1.298  13.226   4.952
 4380SOL    HW215038   1.443  13.224   4.907
 4381SOL     OW15039   0.132  10.343   7.339
 4381SOL    HW115040   0.142  10.413   7.274
 4381SOL    HW215041   0.132  10.263   7.286
 4382SOL     OW15042  11.124  10.017  12.360
 4382SOL    HW115043  11.167  10.092  12.318
 4382SOL    HW215044  11.194   9.952  12.368
 4383SOL     OW15045   8.554  11.620   8.446
 4383SOL    HW115046   8.484  11.684   8.440
 4383SOL    HW215047   8.556  11.595   8.539
 4384SOL     OW15048  11.463   4.619  13.411
 4384SOL    HW115049  11.541   4.565  13.397
 4384SOL    HW215050  11.394   4.556  13.429
 4385SOL     OW15051   1.392   5.847   3.354
 4385SOL    HW115052   1.444   5.924   3.377
 4385SOL    HW215053   1.439   5.774   3.393
 4386SOL     OW15054   8.994   2.455  12.925
 4386SOL    HW115055   8.999   2.445  13.020
 4386SOL    HW215056   9.076   2.418  12.893
 4387SOL     OW15057   6.318   0.500  13.730
 4387SOL    HW115058   6.372   0.579  13.735
 4387SOL    HW215059   6.249   0.522  13.668
 4388SOL     OW15060   3.241   8.728   7.082
 4388SOL    HW115061   3.239   8.815   7.042
 4388SOL    HW215062   3.215   8.668   7.012
 4389SOL     OW15063  14.747  12.072   9.794
 4389SOL    HW115064  14.695  12.040   9.868
 4389SOL    HW215065  14.810  12.002   9.777
 4390SOL     OW15066   2.508   4.276   3.612
 4390SOL    HW115067   2.597   4.310   3.619
 4390SOL    HW215068   2.462   4.312   3.687
 4391SOL     OW15069  14.485  13.320  10.017
 4391SOL    HW115070  14.448  13.244   9.972
 4391SOL    HW215071  14.414  13.383  10.021
 4392SOL     OW15072   2.328   7.253  12.162
 4392SOL    HW115073   2.310   7.273  12.254
 4392SOL    HW215074   2.249   7.280  12.115
 4393SOL     OW15075   6.460   7.246   4.847
 4393SOL    HW115076   6.481   7.168   4.796
 4393SOL    HW215077   6.541   7.297   4.848
 4394SOL     OW15078  14.714   4.504  10.969
 4394SOL    HW115079  14.627   4.540  10.952
 4394SOL    HW215080  14.721   4.429  10.910
 4395SOL     OW15081   4.404   9.584   8.712
 4395SOL    HW115082   4.491   9.608   8.743
 4395SOL    HW215083   4.418   9.501   8.665
 4396SOL     OW15084  14.464   2.220   2.063
 4396SOL    HW115085  14.498   2.256   2.144
 4396SOL    HW215086  14.375   2.254   2.057
 4397SOL     OW15087  12.592  12.795  13.251
 4397SOL    HW115088  12.668  12.802  13.309
 4397SOL    HW215089  12.529  12.857  13.286
 4398SOL     OW15090   0.604   9.270  12.234
 4398SOL    HW115091   0.542   9.217  12.284
 4398SOL    HW215092   0.551   9.312  12.166
 4399SOL     OW15093   4.959   1.628   0.793
 4399SOL    HW115094   4.864   1.625   0.796
 4399SOL    HW215095   4.980   1.721   0.804
 4400SOL     OW15096   0.630   3.075   1.210
 4400SOL    HW115097   0.664   3.157   1.246
 4400SOL    HW215098   0.584   3.101   1.131
 4401SOL     OW15099  11.777   9.064   7.806
 4401SOL    HW115100  11.829   9.130   7.761
 4401SOL    HW215101  11.754   9.001   7.737
 4402SOL     OW15102  12.650   8.389   0.320
 4402SOL    HW115103  12.560   8.423   0.317
 4402SOL    HW215104  12.652   8.322   0.252
 4403SOL     OW15105   5.928  13.564  10.357
 4403SOL    HW115106   6.014  13.584  10.321
 4403SOL    HW215107   5.931  13.469  10.371
 4404SOL     OW15108  12.906  13.192   5.736
 4404SOL    HW115109  12.814  13.219   5.732
 4404SOL    HW215110  12.955  13.269   5.708
 4405SOL     OW15111   5.767  10.723  10.003
 4405SOL    HW115112   5.740  10.657  10.067
 4405SOL    HW215113   5.780  10.674   9.922
 4406SOL     OW15114   2.492   6.227   2.175
 4406SOL    HW115115   2.463   6.315   2.150
 4406SOL    HW215116   2.586   6.236   2.191
 4407SOL     OW15117   6.135   8.841   0.519
 4407SOL    HW115118   6.138   8.806   0.430
 4407SOL    HW215119   6.223   8.826   0.554
 4408SOL     OW15120   2.565   9.086   1.183
 4408SOL    HW115121   2.561   9.158   1.246
 4408SOL    HW215122   2.558   9.007   1.237
 4409SOL     OW15123  10.148   0.259   8.148
 4409SOL    HW115124  10.067   0.209   8.147
 4409SOL    HW215125  10.166   0.274   8.241
 4410SOL     OW15126  11.411   8.662   7.475
 4410SOL    HW115127  11.463   8.688   7.399
 4410SOL    HW215128  11.326   8.704   7.462
 4411SOL     OW15129   4.234   7.489   7.315
 4411SOL    HW115130   4.189   7.413   7.278
 4411SOL    HW215131   4.182   7.564   7.286
 4412SOL     OW15132  14.619   6.761   0.981
 4412SOL    HW115133  14.681   6.719   0.922
 4412SOL    HW215134  14.553   6.694   0.999
 4413SOL     OW15135   0.308  14.334  13.107
 4413SOL    HW115136   0.218  14.326  13.074
 4413SOL    HW215137   0.308  14.416  13.156
 4414SOL     OW15138   1.063   6.729   1.549
 4414SOL    HW115139   1.142   6.782   1.544
 4414SOL    HW215140   1.091   6.641   1.526
 4415SOL     OW15141   5.546  13.479   1.033
 4415SOL    HW115142   5.471  13.431   0.997
 4415SOL    HW215143   5.507  13.555   1.076
 4416SOL     OW15144  13.886   6.326   7.473
 4416SOL    HW115145  13.875   6.283   7.389
 4416SOL    HW215146  13.981   6.324   7.489
 4417SOL     OW15147   0.200   3.405   5.772
 4417SOL    HW115148   0.256   3.464   5.823
 4417SOL    HW215149   0.172   3.339   5.835
 4418SOL     OW15150  12.247  13.262  11.912
 4418SOL    HW115151  12.251  13.256  12.007
 4418SOL    HW215152  12.338  13.278  11.885
 4419SOL     OW15153   9.924   9.504  13.428
 4419SOL    HW115154   9.882   9.545  13.352
 4419SOL    HW215155  10.011   9.543  13.431
 4420SOL     OW15156  13.733   8.607   3.752
 4420SOL    HW115157  13.806   8.641   3.803
 4420SOL    HW215158  13.767   8.599   3.663
 4421SOL     OW15159  12.387  12.632   1.734
 4421SOL    HW115160  12.388  12.640   1.639
 4421SOL    HW215161  12.296  12.614   1.756
 4422SOL     OW15162   7.544   5.366   0.024
 4422SOL    HW115163   7.557   5.372   0.119
 4422SOL    HW215164   7.590   5.286  14.881
 4423SOL     OW15165   9.969  12.849   2.734
 4423SOL    HW115166   9.894  12.839   2.674
 4423SOL    HW215167   9.929  12.869   2.819
 4424SOL     OW15168   9.425  10.574  12.401
 4424SOL    HW115169   9.384  10.515  12.337
 4424SOL    HW215170   9.431  10.522  12.481
 4425SOL     OW15171   4.717  12.539  11.076
 4425SOL    HW115172   4.798  12.585  11.098
 4425SOL    HW215173   4.664  12.604  11.032
 4426SOL     OW15174  10.777  13.436  11.188
 4426SOL    HW115175  10.762  13.443  11.282
 4426SOL    HW215176  10.860  13.389  11.181
 4427SOL     OW15177  12.323  10.650   1.363
 4427SOL    HW115178  12.271  10.723   1.330
 4427SOL    HW215179  12.408  10.660   1.319
 4428SOL     OW15180   7.873   2.055   0.806
 4428SOL    HW115181   7.961   2.066   0.842
 4428SOL    HW215182   7.840   2.144   0.794
 4429SOL     OW15183   4.219  11.817  11.293
 4429SOL    HW115184   4.301  11.838  11.337
 4429SOL    HW215185   4.195  11.730  11.325
 4430SOL     OW15186   3.626   0.039   0.198
 4430SOL    HW115187   3.617   0.131   0.225
 4430SOL    HW215188   3.608   0.039   0.104
 4431SOL     OW15189  11.350   0.285   2.128
 4431SOL    HW115190  11.441   0.272   2.153
 4431SOL    HW215191  11.332   0.377   2.149
 4432SOL     OW15192  11.462   6.659  13.296
 4432SOL    HW115193  11.400   6.697  13.358
 4432SOL    HW215194  11.437   6.566  13.291
 4433SOL     OW15195   0.541   7.022   6.378
 4433SOL    HW115196   0.626   7.062   6.393
 4433SOL    HW215197   0.528   6.962   6.452
 4434SOL     OW15198   8.740   4.999  12.312
 4434SOL    HW115199   8.671   4.935  12.326
 4434SOL    HW215200   8.805   4.953  12.258
 4435SOL     OW15201  10.789   5.749   1.382
 4435SOL    HW115202  10.762   5.823   1.327
 4435SOL    HW215203  10.793   5.675   1.321
 4436SOL     OW15204   6.063  14.574   5.743
 4436SOL    HW115205   6.002  14.516   5.696
 4436SOL    HW215206   6.094  14.635   5.677
 4437SOL     OW15207   5.164  10.498  13.347
 4437SOL    HW115208   5.078  10.454  13.345
 4437SOL    HW215209   5.218  10.446  13.288
 4438SOL     OW15210  12.168   2.990   2.523
 4438SOL    HW115211  12.128   3.001   2.609
 4438SOL    HW215212  12.132   2.908   2.490
 4439SOL     OW15213   6.767   6.001  13.662
 4439SOL    HW115214   6.767   6.096  13.651
 4439SOL    HW215215   6.675   5.976  13.656
 4440SOL     OW15216  13.550   3.675  12.407
 4440SOL    HW115217  13.565   3.672  12.312
 4440SOL    HW215218  13.535   3.767  12.426
 4441SOL     OW15219   7.574   3.322  14.021
 4441SOL    HW115220   7.603   3.393  14.080
 4441SOL    HW215221   7.521   3.265  14.077
 4442SOL     OW15222   4.687   4.721   8.714
 4442SOL    HW115223   4.618   4.718   8.647
 4442SOL    HW215224   4.701   4.629   8.738
 4443SOL     OW15225   8.062   1.996   2.201
 4443SOL    HW115226   8.048   1.913   2.246
 4443SOL    HW215227   8.094   2.055   2.269
 4444SOL     OW15228  13.090  14.831  10.997
 4444SOL    HW115229  13.079  14.749  10.948
 4444SOL    HW215230  13.067   0.018  10.934
 4445SOL     OW15231  12.479   5.076   2.755
 4445SOL    HW115232  12.493   5.046   2.665
 4445SOL    HW215233  12.387   5.102   2.757
 4446SOL     OW15234  10.053   2.835   2.383
 4446SOL    HW115235  10.097   2.812   2.302
 4446SOL    HW215236  10.109   2.903   2.422
 4447SOL     OW15237   9.400   2.205   9.765
 4447SOL    HW115238   9.338   2.272   9.738
 4447SOL    HW215239   9.364   2.123   9.731
 4448SOL     OW15240   6.664  11.624  12.947
 4448SOL    HW115241   6.687  11.648  12.857
 4448SOL    HW215242   6.668  11.707  12.995
 4449SOL     OW15243   7.556   7.665  12.013
 4449SOL    HW115244   7.629   7.604  12.009
 4449SOL    HW215245   7.503   7.634  12.086
 4450SOL     OW15246  10.371   3.580   3.486
 4450SOL    HW115247  10.387   3.623   3.402
 4450SOL    HW215248  10.296   3.523   3.470
 4451SOL     OW15249   1.929  13.838   1.899
 4451SOL    HW115250   1.962  13.926   1.881
 4451SOL    HW215251   1.968  13.783   1.830
 4452SOL     OW15252   8.907   0.287   3.607
 4452SOL    HW115253   8.834   0.284   3.545
 4452SOL    HW215254   8.866   0.313   3.690
 4453SOL     OW15255  14.067   1.985   0.701
 4453SOL    HW115256  14.146   2.026   0.667
 4453SOL    HW215257  14.008   1.979   0.626
 4454SOL     OW15258   7.037   5.948  10.556
 4454SOL    HW115259   7.086   5.878  10.600
 4454SOL    HW215260   7.027   5.917  10.466
 4455SOL     OW15261   9.423  14.699   1.523
 4455SOL    HW115262   9.368  14.774   1.505
 4455SOL    HW215263   9.402  14.636   1.455
 4456SOL     OW15264  13.012  14.611   1.453
 4456SOL    HW115265  12.966  14.597   1.536
 4456SOL    HW215266  13.006  14.706   1.438
 4457SOL     OW15267  11.821  12.975   1.823
 4457SOL    HW115268  11.817  13.070   1.810
 4457SOL    HW215269  11.729  12.947   1.819
 4458SOL     OW15270   6.697   7.614   3.967
 4458SOL    HW115271   6.619   7.642   3.919
 4458SOL    HW215272   6.770   7.645   3.914
 4459SOL     OW15273  13.918   5.099   1.762
 4459SOL    HW115274  13.966   5.162   1.815
 4459SOL    HW215275  13.895   5.146   1.682
 4460SOL     OW15276   1.372   3.310   6.186
 4460SOL    HW115277   1.323   3.229   6.200
 4460SOL    HW215278   1.452   3.299   6.237
 4461SOL     OW15279  11.965  14.745   0.487
 4461SOL    HW115280  12.008  14.784   0.411
 4461SOL    HW215281  11.918  14.669   0.452
 4462SOL     OW15282   5.752   8.837   0.542
 4462SOL    HW115283   5.707   8.907   0.495
 4462SOL    HW215284   5.816   8.881   0.597
 4463SOL     OW15285   6.107   2.216  13.022
 4463SOL    HW115286   6.158   2.211  12.941
 4463SOL    HW215287   6.018   2.193  12.995
 4464SOL     OW15288  10.887   3.542   7.414
 4464SOL    HW115289  10.906   3.527   7.322
 4464SOL    HW215290  10.815   3.481   7.434
 4465SOL     OW15291   5.986   7.196  14.658
 4465SOL    HW115292   6.063   7.247  14.633
 4465SOL    HW215293   5.995   7.113  14.611
 4466SOL     OW15294   6.815  13.901   1.561
 4466SOL    HW115295   6.758  13.837   1.604
 4466SOL    HW215296   6.763  13.981   1.559
 4467SOL     OW15297   8.389   6.673   6.131
 4467SOL    HW115298   8.388   6.621   6.050
 4467SOL    HW215299   8.304   6.716   6.134
 4468SOL     OW15300  13.498   4.477   1.443
 4468SOL    HW115301  13.510   4.422   1.366
 4468SOL    HW215302  13.536   4.426   1.515
 4469SOL     OW15303   8.825   6.283   7.731
 4469SOL    HW115304   8.834   6.263   7.638
 4469SOL    HW215305   8.912   6.264   7.768
 4470SOL     OW15306  11.396   4.000   9.622
 4470SOL    HW115307  11.486   3.984   9.650
 4470SOL    HW215308  11.347   4.014   9.703
 4471SOL     OW15309   5.677   2.809   4.779
 4471SOL    HW115310   5.601   2.823   4.723
 4471SOL    HW215311   5.642   2.768   4.858
 4472SOL     OW15312  11.833   0.044   6.350
 4472SOL    HW115313  11.771   0.014   6.283
 4472SOL    HW215314  11.828   0.139   6.346
 4473SOL     OW15315   8.102  13.655  13.680
 4473SOL    HW115316   8.025  13.710  13.693
 4473SOL    HW215317   8.101  13.634  13.586
 4474SOL     OW15318   4.618   9.220   1.544
 4474SOL    HW115319   4.531   9.226   1.583
 4474SOL    HW215320   4.634   9.308   1.509
 4475SOL     OW15321   1.836   0.668   3.072
 4475SOL    HW115322   1.761   0.712   3.113
 4475SOL    HW215323   1.797   0.597   3.022
 4476SOL     OW15324   4.416   3.822   6.764
 4476SOL    HW115325   4.395   3.900   6.815
 4476SOL    HW215326   4.449   3.856   6.681
 4477SOL     OW15327  12.088   0.256   6.829
 4477SOL    HW115328  12.051   0.180   6.875
 4477SOL    HW215329  12.031   0.269   6.754
 4478SOL     OW15330  12.614   1.122  11.450
 4478SOL    HW115331  12.633   1.195  11.509
 4478SOL    HW215332  12.559   1.063  11.501
 4479SOL     OW15333   6.324   2.368   8.962
 4479SOL    HW115334   6.266   2.414   9.022
 4479SOL    HW215335   6.266   2.338   8.891
 4480SOL     OW15336   3.475   3.019  13.776
 4480SOL    HW115337   3.474   2.991  13.685
 4480SOL    HW215338   3.491   2.939  13.826
 4481SOL     OW15339   9.731  11.805   0.772
 4481SOL    HW115340   9.705  11.826   0.861
 4481SOL    HW215341   9.700  11.879   0.720
 4482SOL     OW15342   1.485  14.654   6.828
 4482SOL    HW115343   1.404  14.603   6.828
 4482SOL    HW215344   1.468  14.726   6.889
 4483SOL     OW15345  11.539   7.159   0.645
 4483SOL    HW115346  11.595   7.178   0.570
 4483SOL    HW215347  11.543   7.238   0.698
 4484SOL     OW15348  12.825   4.371   6.635
 4484SOL    HW115349  12.736   4.402   6.617
 4484SOL    HW215350  12.853   4.331   6.553
 4485SOL     OW15351  11.850   6.091  12.014
 4485SOL    HW115352  11.822   6.039  12.089
 4485SOL    HW215353  11.769   6.131  11.982
 4486SOL     OW15354   1.429  13.231   4.123
 4486SOL    HW115355   1.421  13.179   4.043
 4486SOL    HW215356   1.523  13.246   4.133
 4487SOL     OW15357   9.726   1.327  14.368
 4487SOL    HW115358   9.661   1.391  14.340
 4487SOL    HW215359   9.715   1.253  14.309
 4488SOL     OW15360   3.221   6.459  11.501
 4488SOL    HW115361   3.223   6.477  11.407
 4488SOL    HW215362   3.310   6.478  11.531
 4489SOL     OW15363   7.357  14.223   9.544
 4489SOL    HW115364   7.315  14.181   9.470
 4489SOL    HW215365   7.438  14.259   9.508
 4490SOL     OW15366   4.643   0.611   7.905
 4490SOL    HW115367   4.619   0.697   7.938
 4490SOL    HW215368   4.736   0.620   7.881
 4491SOL     OW15369   5.352  11.893  13.773
 4491SOL    HW115370   5.438  11.904  13.813
 4491SOL    HW215371   5.315  11.816  13.815
 4492SOL     OW15372   7.406   4.370   0.940
 4492SOL    HW115373   7.471   4.301   0.954
 4492SOL    HW215374   7.399   4.378   0.845
 4493SOL     OW15375   8.784  13.107  11.938
 4493SOL    HW115376   8.716  13.134  11.998
 4493SOL    HW215377   8.739  13.093  11.855
 4494SOL     OW15378   6.490   3.591   7.770
 4494SOL    HW115379   6.527   3.583   7.683
 4494SOL    HW215380   6.466   3.502   7.795
 4495SOL     OW15381   1.790   6.970   9.643
 4495SOL    HW115382   1.777   6.878   9.664
 4495SOL    HW215383   1.846   6.969   9.565
 4496SOL     OW15384  11.162   1.842  11.271
 4496SOL    HW115385  11.132   1.927  11.304
 4496SOL    HW215386  11.199   1.862  11.185
 4497SOL     OW15387  12.394  13.127  13.915
 4497SOL    HW115388  12.463  13.162  13.859
 4497SOL    HW215389  12.375  13.040  13.879
 4498SOL     OW15390   7.432  12.648   3.169
 4498SOL    HW115391   7.496  12.718   3.184
 4498SOL    HW215392   7.357  12.693   3.129
 4499SOL     OW15393   2.147   7.919   3.140
 4499SOL    HW115394   2.095   7.990   3.103
 4499SOL    HW215395   2.131   7.844   3.083
 4500SOL     OW15396   3.615   1.425  14.593
 4500SOL    HW115397   3.626   1.330  14.602
 4500SOL    HW215398   3.535   1.445  14.642
 4501SOL     OW15399  12.479   5.069  12.806
 4501SOL    HW115400  12.523   5.116  12.735
 4501SOL    HW215401  12.545   5.060  12.874
 4502SOL     OW15402  14.238  12.008   3.773
 4502SOL    HW115403  14.275  12.013   3.685
 4502SOL    HW215404  14.144  12.019   3.761
 4503SOL     OW15405   8.600   2.835   6.842
 4503SOL    HW115406   8.514   2.825   6.881
 4503SOL    HW215407   8.661   2.826   6.915
 4504SOL     OW15408   8.086  12.188   6.306
 4504SOL    HW115409   8.136  12.124   6.357
 4504SOL    HW215410   8.081  12.149   6.218
 4505SOL     OW15411  10.630  12.820   5.117
 4505SOL    HW115412  10.580  12.848   5.193
 4505SOL    HW215413  10.715  12.794   5.153
 4506SOL     OW15414   7.924  14.581   0.542
 4506SOL    HW115415   7.941  14.643   0.471
 4506SOL    HW215416   7.889  14.504   0.499
 4507SOL     OW15417   8.216   2.638   4.233
 4507SOL    HW115418   8.187   2.547   4.235
 4507SOL    HW215419   8.297   2.639   4.285
 4508SOL     OW15420   8.272  13.843  13.083
 4508SOL    HW115421   8.331  13.904  13.128
 4508SOL    HW215422   8.189  13.852  13.130
 4509SOL     OW15423  10.058  12.998  12.953
 4509SOL    HW115424  10.136  12.971  12.903
 4509SOL    HW215425  10.065  12.949  13.035
 4510SOL     OW15426  10.957  13.769  14.277
 4510SOL    HW115427  10.986  13.720  14.354
 4510SOL    HW215428  10.927  13.702  14.216
 4511SOL     OW15429   0.718   9.123   8.198
 4511SOL    HW115430   0.624   9.101   8.199
 4511SOL    HW215431   0.747   9.098   8.111
 4512SOL     OW15432  13.020  11.631   7.959
 4512SOL    HW115433  13.102  11.679   7.954
 4512SOL    HW215434  12.968  11.664   7.885
 4513SOL     OW15435   3.424   3.432   9.034
 4513SOL    HW115436   3.397   3.422   8.943
 4513SOL    HW215437   3.518   3.415   9.033
 4514SOL     OW15438   9.333   3.206  10.504
 4514SOL    HW115439   9.389   3.244  10.572
 4514SOL    HW215440   9.271   3.152  10.552
 4515SOL     OW15441   7.442   6.568   4.699
 4515SOL    HW115442   7.502   6.614   4.641
 4515SOL    HW215443   7.356   6.579   4.657
 4516SOL     OW15444   4.852   2.299   0.366
 4516SOL    HW115445   4.833   2.331   0.454
 4516SOL    HW215446   4.913   2.226   0.378
 4517SOL     OW15447  12.986  14.237   6.778
 4517SOL    HW115448  13.002  14.197   6.692
 4517SOL    HW215449  13.040  14.316   6.778
 4518SOL     OW15450   1.233   4.444  10.625
 4518SOL    HW115451   1.248   4.459  10.719
 4518SOL    HW215452   1.253   4.528  10.585
 4519SOL     OW15453   5.810   0.950   2.469
 4519SOL    HW115454   5.768   0.914   2.391
 4519SOL    HW215455   5.753   1.021   2.498
 4520SOL     OW15456   7.417   6.005  11.750
 4520SOL    HW115457   7.495   5.984  11.699
 4520SOL    HW215458   7.379   6.081  11.707
 4521SOL     OW15459   6.232  13.108  13.467
 4521SOL    HW115460   6.250  13.197  13.499
 4521SOL    HW215461   6.177  13.121  13.389
 4522SOL     OW15462   8.593   0.446  11.595
 4522SOL    HW115463   8.536   0.437  11.672
 4522SOL    HW215464   8.597   0.540  11.579
 4523SOL     OW15465   3.185  12.860   8.074
 4523SOL    HW115466   3.240  12.873   7.996
 4523SOL    HW215467   3.201  12.938   8.127
 4524SOL     OW15468   6.632   9.707   2.532
 4524SOL    HW115469   6.544   9.724   2.567
 4524SOL    HW215470   6.623   9.623   2.486
 4525SOL     OW15471   9.639   1.950   9.491
 4525SOL    HW115472   9.649   1.860   9.522
 4525SOL    HW215473   9.606   1.941   9.401
 4526SOL     OW15474   0.201   8.024  13.210
 4526SOL    HW115475   0.149   8.017  13.290
 4526SOL    HW215476   0.281   8.070  13.237
 4527SOL     OW15477   9.575   3.959   4.154
 4527SOL    HW115478   9.640   4.027   4.172
 4527SOL    HW215479   9.533   3.943   4.239
 4528SOL     OW15480   0.970   8.935   4.075
 4528SOL    HW115481   0.921   8.853   4.069
 4528SOL    HW215482   0.954   8.979   3.991
 4529SOL     OW15483   0.281   6.772   6.857
 4529SOL    HW115484   0.373   6.793   6.843
 4529SOL    HW215485   0.249   6.840   6.916
 4530SOL     OW15486  13.552  13.820   4.966
 4530SOL    HW115487  13.635  13.776   4.948
 4530SOL    HW215488  13.497  13.753   5.006
 4531SOL     OW15489  13.166   6.633   9.244
 4531SOL    HW115490  13.199   6.544   9.259
 4531SOL    HW215491  13.188   6.680   9.324
 4532SOL     OW15492   7.809   7.085   0.783
 4532SOL    HW115493   7.884   7.054   0.834
 4532SOL    HW215494   7.756   7.007   0.768
 4533SOL     OW15495   4.729  14.116   1.692
 4533SOL    HW115496   4.758  14.054   1.624
 4533SOL    HW215497   4.716  14.198   1.645
 4534SOL     OW15498   7.588   3.186   7.273
 4534SOL    HW115499   7.639   3.109   7.298
 4534SOL    HW215500   7.522   3.195   7.342
 4535SOL     OW15501  10.431   3.025  11.183
 4535SOL    HW115502  10.439   2.944  11.133
 4535SOL    HW215503  10.474   3.006  11.266
 4536SOL     OW15504   9.079   6.214  13.410
 4536SOL    HW115505   9.094   6.305  13.386
 4536SOL    HW215506   9.149   6.193  13.472
 4537SOL     OW15507   4.354  13.887  14.536
 4537SOL    HW115508   4.295  13.812  14.532
 4537SOL    HW215509   4.401  13.885  14.453
 4538SOL     OW15510   6.052   7.623   6.360
 4538SOL    HW115511   6.123   7.597   6.301
 4538SOL    HW215512   6.070   7.577   6.442
 4539SOL     OW15513  13.148   4.479   9.874
 4539SOL    HW115514  13.129   4.393   9.911
 4539SOL    HW215515  13.063   4.518   9.857
 4540SOL     OW15516  14.335   1.327  11.642
 4540SOL    HW115517  14.394   1.251  11.637
 4540SOL    HW215518  14.356   1.379  11.564
 4541SOL     OW15519   6.966  14.776  10.240
 4541SOL    HW115520   7.005  14.852  10.197
 4541SOL    HW215521   6.875  14.775  10.209
 4542SOL     OW15522  10.867  14.057   7.669
 4542SOL    HW115523  10.773  14.050   7.651
 4542SOL    HW215524  10.905  14.089   7.588
 4543SOL     OW15525   6.087   1.212   9.209
 4543SOL    HW115526   6.077   1.127   9.165
 4543SOL    HW215527   6.042   1.201   9.293
 4544SOL     OW15528  13.714   7.192   5.440
 4544SOL    HW115529  13.711   7.131   5.366
 4544SOL    HW215530  13.635   7.172   5.490
 4545SOL     OW15531  13.364   1.185  11.503
 4545SOL    HW115532  13.430   1.216  11.442
 4545SOL    HW215533  13.341   1.262  11.555
 4546SOL     OW15534   6.947   4.979   1.800
 4546SOL    HW115535   6.987   5.046   1.745
 4546SOL    HW215536   6.866   4.957   1.754
 4547SOL     OW15537   1.178   7.605  12.724
 4547SOL    HW115538   1.184   7.627  12.631
 4547SOL    HW215539   1.138   7.518  12.726
 4548SOL     OW15540   4.549   3.833   5.905
 4548SOL    HW115541   4.463   3.801   5.935
 4548SOL    HW215542   4.592   3.863   5.985
 4549SOL     OW15543  12.372  10.450   2.660
 4549SOL    HW115544  12.277  10.452   2.648
 4549SOL    HW215545  12.387  10.491   2.745
 4550SOL     OW15546   3.628   1.979   5.086
 4550SOL    HW115547   3.694   1.911   5.076
 4550SOL    HW215548   3.655   2.028   5.164
 4551SOL     OW15549  12.232  10.025  13.958
 4551SOL    HW115550  12.327  10.036  13.946
 4551SOL    HW215551  12.221   9.934  13.983
 4552SOL     OW15552  14.753   8.353   2.268
 4552SOL    HW115553  14.725   8.438   2.235
 4552SOL    HW215554  14.833   8.333   2.218
 4553SOL     OW15555   8.955  11.884   7.968
 4553SOL    HW115556   8.904  11.855   7.892
 4553SOL    HW215557   9.044  11.894   7.935
 4554SOL     OW15558   7.802   1.412  13.719
 4554SOL    HW115559   7.743   1.432  13.646
 4554SOL    HW215560   7.864   1.486  13.721
 4555SOL     OW15561  12.212   4.852   2.148
 4555SOL    HW115562  12.270   4.858   2.073
 4555SOL    HW215563  12.271   4.847   2.224
 4556SOL     OW15564   3.017   5.401   0.048
 4556SOL    HW115565   2.952   5.349   0.002
 4556SOL    HW215566   2.991   5.397   0.140
 4557SOL     OW15567   2.792  13.023  10.155
 4557SOL    HW115568   2.858  12.964  10.118
 4557SOL    HW215569   2.779  12.992  10.245
 4558SOL     OW15570   7.280   4.806  13.689
 4558SOL    HW115571   7.220   4.754  13.743
 4558SOL    HW215572   7.233   4.818  13.606
 4559SOL     OW15573   0.627  13.872   4.081
 4559SOL    HW115574   0.699  13.810   4.067
 4559SOL    HW215575   0.667  13.958   4.066
 4560SOL     OW15576  11.286  14.364   7.511
 4560SOL    HW115577  11.264  14.318   7.592
 4560SOL    HW215578  11.335  14.441   7.539
 4561SOL     OW15579   5.163   0.008   5.454
 4561SOL    HW115580   5.103   0.081   5.442
 4561SOL    HW215581   5.173  14.852   5.366
 4562SOL     OW15582  14.180   8.119   0.062
 4562SOL    HW115583  14.151   8.030   0.044
 4562SOL    HW215584  14.276   8.115   0.057
 4563SOL     OW15585   9.963   7.807  13.865
 4563SOL    HW115586   9.877   7.795  13.904
 4563SOL    HW215587   9.975   7.731  13.809
 4564SOL     OW15588   1.371   0.215   4.965
 4564SOL    HW115589   1.376   0.152   4.893
 4564SOL    HW215590   1.347   0.298   4.924
 4565SOL     OW15591   3.799  10.761   9.759
 4565SOL    HW115592   3.758  10.677   9.739
 4565SOL    HW215593   3.732  10.811   9.806
 4566SOL     OW15594  12.275   9.403   3.426
 4566SOL    HW115595  12.198   9.392   3.370
 4566SOL    HW215596  12.327   9.471   3.383
 4567SOL     OW15597  11.779   1.592  11.567
 4567SOL    HW115598  11.717   1.642  11.513
 4567SOL    HW215599  11.777   1.635  11.652
 4568SOL     OW15600   5.832   6.977   0.006
 4568SOL    HW115601   5.777   6.992  14.811
 4568SOL    HW215602   5.857   6.885   0.000
 4569SOL     OW15603   9.654  10.248   6.764
 4569SOL    HW115604   9.607  10.200   6.697
 4569SOL    HW215605   9.586  10.289   6.817
 4570SOL     OW15606   1.153   1.865   0.176
 4570SOL    HW115607   1.119   1.887   0.090
 4570SOL    HW215608   1.191   1.946   0.209
 4571SOL     OW15609   7.105  11.280  11.297
 4571SOL    HW115610   7.135  11.370  11.307
 4571SOL    HW215611   7.081  11.274  11.204
 4572SOL     OW15612   4.578   3.392   9.980
 4572SOL    HW115613   4.620   3.417   9.898
 4572SOL    HW215614   4.631   3.319  10.013
 4573SOL     OW15615  13.215  12.361  13.737
 4573SOL    HW115616  13.198  12.324  13.651
 4573SOL    HW215617  13.309  12.375  13.739
 4574SOL     OW15618   4.299   8.486   0.586
 4574SOL    HW115619   4.309   8.570   0.541
 4574SOL    HW215620   4.346   8.498   0.669
 4575SOL     OW15621  11.181   9.239   3.753
 4575SOL    HW115622  11.126   9.316   3.765
 4575SOL    HW215623  11.136   9.169   3.801
 4576SOL     OW15624  10.200  11.928  13.923
 4576SOL    HW115625  10.200  11.869  13.998
 4576SOL    HW215626  10.247  11.881  13.854
 4577SOL     OW15627   6.887  11.285  13.233
 4577SOL    HW115628   6.922  11.203  13.196
 4577SOL    HW215629   6.870  11.340  13.157
 4578SOL     OW15630   4.477   0.513   1.804
 4578SOL    HW115631   4.528   0.459   1.743
 4578SOL    HW215632   4.406   0.455   1.833
 4579SOL     OW15633  14.335   7.353   1.210
 4579SOL    HW115634  14.256   7.407   1.217
 4579SOL    HW215635  14.351   7.345   1.116
 4580SOL     OW15636   2.529   7.408   8.903
 4580SOL    HW115637   2.509   7.481   8.845
 4580SOL    HW215638   2.564   7.448   8.982
 4581SOL     OW15639   4.842  11.515   1.912
 4581SOL    HW115640   4.925  11.478   1.940
 4581SOL    HW215641   4.837  11.599   1.956
 4582SOL     OW15642   0.241  11.011  12.756
 4582SOL    HW115643   0.235  11.030  12.662
 4582SOL    HW215644   0.151  11.022  12.789
 4583SOL     OW15645  14.495  11.162   3.717
 4583SOL    HW115646  14.474  11.236   3.775
 4583SOL    HW215647  14.556  11.108   3.768
 4584SOL     OW15648   8.792  13.662   3.067
 4584SOL    HW115649   8.756  13.606   3.136
 4584SOL    HW215650   8.729  13.656   2.995
 4585SOL     OW15651   8.148  13.754   5.191
 4585SOL    HW115652   8.197  13.835   5.176
 4585SOL    HW215653   8.067  13.783   5.233
 4586SOL     OW15654   8.779   3.000  13.328
 4586SOL    HW115655   8.800   3.090  13.304
 4586SOL    HW215656   8.684   3.001  13.345
 4587SOL     OW15657  12.161  14.040   5.997
 4587SOL    HW115658  12.127  14.127   5.977
 4587SOL    HW215659  12.206  14.013   5.918
 4588SOL     OW15660   8.394   4.423   2.381
 4588SOL    HW115661   8.344   4.504   2.373
 4588SOL    HW215662   8.342   4.357   2.335
 4589SOL     OW15663   8.113   3.228  11.076
 4589SOL    HW115664   8.175   3.290  11.113
 4589SOL    HW215665   8.163   3.178  11.012
 4590SOL     OW15666   3.665   2.063   1.641
 4590SOL    HW115667   3.629   2.136   1.691
 4590SOL    HW215668   3.597   1.995   1.644
 4591SOL     OW15669  11.861   7.942   8.007
 4591SOL    HW115670  11.938   7.990   8.037
 4591SOL    HW215671  11.788   8.001   8.026
 4592SOL     OW15672  11.389   3.413  10.452
 4592SOL    HW115673  11.446   3.470  10.504
 4592SOL    HW215674  11.302   3.453  10.459
 4593SOL     OW15675   5.355   5.815   8.406
 4593SOL    HW115676   5.347   5.751   8.334
 4593SOL    HW215677   5.277   5.800   8.459
 4594SOL     OW15678   9.517   1.046   9.949
 4594SOL    HW115679   9.547   1.131   9.919
 4594SOL    HW215680   9.444   1.023   9.890
 4595SOL     OW15681   7.686   7.521   1.918
 4595SOL    HW115682   7.698   7.610   1.883
 4595SOL    HW215683   7.673   7.535   2.012
 4596SOL     OW15684  14.878  12.149   2.871
 4596SOL    HW115685  14.816  12.222   2.868
 4596SOL    HW215686   0.056  12.165   2.798
 4597SOL     OW15687   2.098  14.551   0.536
 4597SOL    HW115688   2.184  14.510   0.530
 4597SOL    HW215689   2.045  14.488   0.585
 4598SOL     OW15690   3.315  11.010   9.607
 4598SOL    HW115691   3.376  11.049   9.544
 4598SOL    HW215692   3.364  10.937   9.645
 4599SOL     OW15693  10.194   7.533  14.586
 4599SOL    HW115694  10.236   7.464  14.536
 4599SOL    HW215695  10.189   7.607  14.525
 4600SOL     OW15696   2.114   4.959   5.476
 4600SOL    HW115697   2.094   4.900   5.404
 4600SOL    HW215698   2.114   4.903   5.554
 4601SOL     OW15699  10.395  10.556   9.918
 4601SOL    HW115700  10.476  10.605   9.904
 4601SOL    HW215701  10.349  10.562   9.834
 4602SOL     OW15702   7.230   3.829   3.825
 4602SOL    HW115703   7.306   3.792   3.780
 4602SOL    HW215704   7.211   3.910   3.778
 4603SOL     OW15705  12.604  12.393   4.052
 4603SOL    HW115706  12.683  12.340   4.045
 4603SOL    HW215707  12.623  12.472   4.000
 4604SOL     OW15708  12.937   8.359  13.064
 4604SOL    HW115709  12.986   8.376  13.144
 4604SOL    HW215710  12.927   8.264  13.061
 4605SOL     OW15711   0.986   7.080  10.030
 4605SOL    HW115712   0.935   7.138   9.973
 4605SOL    HW215713   1.055   7.136  10.066
 4606SOL     OW15714   4.659   5.176  12.875
 4606SOL    HW115715   4.685   5.250  12.820
 4606SOL    HW215716   4.705   5.101  12.837
 4607SOL     OW15717  13.981   0.007   6.019
 4607SOL    HW115718  13.887   0.004   6.001
 4607SOL    HW215719  14.017  14.818   5.966
 4608SOL     OW15720   0.541   1.673   5.428
 4608SOL    HW115721   0.582   1.745   5.381
 4608SOL    HW215722   0.448   1.695   5.431
 4609SOL     OW15723   2.071   4.006  11.125
 4609SOL    HW115724   2.081   4.071  11.194
 4609SOL    HW215725   1.977   3.986  11.125
 4610SOL     OW15726  13.258  10.163   7.233
 4610SOL    HW115727  13.291  10.085   7.277
 4610SOL    HW215728  13.297  10.161   7.146
 4611SOL     OW15729   2.990   6.965   2.177
 4611SOL    HW115730   2.926   6.898   2.200
 4611SOL    HW215731   3.012   6.948   2.086
 4612SOL     OW15732   3.118  10.070   5.399
 4612SOL    HW115733   3.149   9.982   5.416
 4612SOL    HW215734   3.031  10.074   5.439
 4613SOL     OW15735   2.121  10.127   4.403
 4613SOL    HW115736   2.112  10.052   4.344
 4613SOL    HW215737   2.071  10.197   4.360
 4614SOL     OW15738   2.967  14.623   5.443
 4614SOL    HW115739   2.894  14.626   5.380
 4614SOL    HW215740   2.925  14.626   5.528
 4615SOL     OW15741  11.639  13.147  12.498
 4615SOL    HW115742  11.711  13.084  12.492
 4615SOL    HW215743  11.636  13.171  12.591
 4616SOL     OW15744   6.656   3.080   1.848
 4616SOL    HW115745   6.579   3.133   1.827
 4616SOL    HW215746   6.674   3.031   1.767
 4617SOL     OW15747  14.166   7.668   2.655
 4617SOL    HW115748  14.202   7.600   2.712
 4617SOL    HW215749  14.152   7.743   2.714
 4618SOL     OW15750  13.941   2.122   3.357
 4618SOL    HW115751  13.929   2.202   3.306
 4618SOL    HW215752  14.033   2.099   3.343
 4619SOL     OW15753   0.064   4.782   8.556
 4619SOL    HW115754   0.029   4.791   8.468
 4619SOL    HW215755   0.029   4.698   8.587
 4620SOL     OW15756   3.456   4.802  10.511
 4620SOL    HW115757   3.405   4.882  10.495
 4620SOL    HW215758   3.428   4.773  10.598
 4621SOL     OW15759   5.383   0.629   7.840
 4621SOL    HW115760   5.439   0.577   7.897
 4621SOL    HW215761   5.442   0.662   7.772
 4622SOL     OW15762  12.435  14.095   4.577
 4622SOL    HW115763  12.374  14.100   4.650
 4622SOL    HW215764  12.416  14.172   4.523
 4623SOL     OW15765  10.852  13.284   6.199
 4623SOL    HW115766  10.768  13.329   6.197
 4623SOL    HW215767  10.860  13.252   6.289
 4624SOL     OW15768   3.737   9.800   2.905
 4624SOL    HW115769   3.764   9.725   2.958
 4624SOL    HW215770   3.818   9.848   2.890
 4625SOL     OW15771  10.411   5.334  14.561
 4625SOL    HW115772  10.477   5.337  14.491
 4625SOL    HW215773  10.462   5.333  14.642
 4626SOL     OW15774   1.632   6.502  12.268
 4626SOL    HW115775   1.703   6.512  12.204
 4626SOL    HW215776   1.670   6.447  12.337
 4627SOL     OW15777  13.067  11.671   6.349
 4627SOL    HW115778  12.983  11.717   6.346
 4627SOL    HW215779  13.108  11.702   6.429
 4628SOL     OW15780   5.130   9.274   1.643
 4628SOL    HW115781   5.197   9.321   1.693
 4628SOL    HW215782   5.093   9.212   1.706
 4629SOL     OW15783   9.318  10.345   3.450
 4629SOL    HW115784   9.295  10.438   3.446
 4629SOL    HW215785   9.414  10.345   3.457
 4630SOL     OW15786  12.665   5.563  13.142
 4630SOL    HW115787  12.571   5.583  13.143
 4630SOL    HW215788  12.697   5.602  13.061
 4631SOL     OW15789   5.357   7.146   8.720
 4631SOL    HW115790   5.346   7.235   8.687
 4631SOL    HW215791   5.452   7.135   8.730
 4632SOL     OW15792  11.664   5.023  10.055
 4632SOL    HW115793  11.697   5.092   9.998
 4632SOL    HW215794  11.645   4.950   9.996
 4633SOL     OW15795   2.578  10.701   9.064
 4633SOL    HW115796   2.499  10.733   9.108
 4633SOL    HW215797   2.597  10.618   9.107
 4634SOL     OW15798   3.873   0.112  11.122
 4634SOL    HW115799   3.938   0.182  11.121
 4634SOL    HW215800   3.869   0.082  11.031
 4635SOL     OW15801  14.004  10.686  10.164
 4635SOL    HW115802  13.948  10.717  10.093
 4635SOL    HW215803  14.047  10.609  10.128
 4636SOL     OW15804   8.690   0.087   6.029
 4636SOL    HW115805   8.613   0.058   5.981
 4636SOL    HW215806   8.748   0.125   5.963
 4637SOL     OW15807   0.371   0.105   2.746
 4637SOL    HW115808   0.312   0.030   2.737
 4637SOL    HW215809   0.390   0.131   2.656
 4638SOL     OW15810   0.814  14.325   0.079
 4638SOL    HW115811   0.848  14.392   0.139
 4638SOL    HW215812   0.745  14.281   0.129
 4639SOL     OW15813  11.565  10.805   1.770
 4639SOL    HW115814  11.514  10.724   1.776
 4639SOL    HW215815  11.528  10.861   1.839
 4640SOL     OW15816  13.483   4.612   4.068
 4640SOL    HW115817  13.413   4.661   4.111
 4640SOL    HW215818  13.555   4.614   4.131
 4641SOL     OW15819  12.571   1.233   8.351
 4641SOL    HW115820  12.571   1.208   8.443
 4641SOL    HW215821  12.660   1.264   8.334
 4642SOL     OW15822   3.218   8.349   5.194
 4642SOL    HW115823   3.237   8.375   5.284
 4642SOL    HW215824   3.282   8.395   5.141
 4643SOL     OW15825   6.468   5.159   5.957
 4643SOL    HW115826   6.490   5.191   6.045
 4643SOL    HW215827   6.489   5.232   5.899
 4644SOL     OW15828   7.477   7.510   9.902
 4644SOL    HW115829   7.485   7.594   9.946
 4644SOL    HW215830   7.567   7.480   9.891
 4645SOL     OW15831  11.004   6.080  10.974
 4645SOL    HW115832  10.918   6.093  10.934
 4645SOL    HW215833  10.990   6.011  11.039
 4646SOL     OW15834  10.163   6.174   5.469
 4646SOL    HW115835  10.248   6.194   5.429
 4646SOL    HW215836  10.143   6.251   5.521
 4647SOL     OW15837   5.304   9.754  14.358
 4647SOL    HW115838   5.243   9.795  14.420
 4647SOL    HW215839   5.345   9.828  14.312
 4648SOL     OW15840  13.381   7.573   1.532
 4648SOL    HW115841  13.419   7.643   1.585
 4648SOL    HW215842  13.294   7.559   1.570
 4649SOL     OW15843  13.192  14.779   6.288
 4649SOL    HW115844  13.257  14.848   6.304
 4649SOL    HW215845  13.173  14.784   6.195
 4650SOL     OW15846   1.021  13.051  10.786
 4650SOL    HW115847   0.928  13.028  10.796
 4650SOL    HW215848   1.021  13.126  10.726
 4651SOL     OW15849   8.901   8.536  10.334
 4651SOL    HW115850   8.910   8.441  10.339
 4651SOL    HW215851   8.881   8.554  10.242
 4652SOL     OW15852   9.275  11.256  13.724
 4652SOL    HW115853   9.297  11.182  13.668
 4652SOL    HW215854   9.221  11.313  13.669
 4653SOL     OW15855  11.366   6.578   9.595
 4653SOL    HW115856  11.317   6.644   9.644
 4653SOL    HW215857  11.304   6.505   9.584
 4654SOL     OW15858   6.628   1.586   7.992
 4654SOL    HW115859   6.684   1.607   8.067
 4654SOL    HW215860   6.566   1.659   7.987
 4655SOL     OW15861  14.353  12.787  10.462
 4655SOL    HW115862  14.360  12.695  10.487
 4655SOL    HW215863  14.344  12.786  10.367
 4656SOL     OW15864   3.292   0.127   4.646
 4656SOL    HW115865   3.272   0.093   4.559
 4656SOL    HW215866   3.372   0.178   4.634
 4657SOL     OW15867  13.975   8.362   8.204
 4657SOL    HW115868  13.939   8.277   8.179
 4657SOL    HW215869  14.032   8.343   8.279
 4658SOL     OW15870   5.526  10.725   5.158
 4658SOL    HW115871   5.509  10.768   5.073
 4658SOL    HW215872   5.469  10.771   5.219
 4659SOL     OW15873   0.251   0.179  12.440
 4659SOL    HW115874   0.200   0.150  12.515
 4659SOL    HW215875   0.290   0.262  12.468
 4660SOL     OW15876  12.165   3.757  14.070
 4660SOL    HW115877  12.236   3.695  14.053
 4660SOL    HW215878  12.168   3.772  14.164
 4661SOL     OW15879   6.614   2.409   8.439
 4661SOL    HW115880   6.686   2.354   8.468
 4661SOL    HW215881   6.543   2.390   8.501
 4662SOL     OW15882   2.680  12.327   3.754
 4662SOL    HW115883   2.709  12.273   3.827
 4662SOL    HW215884   2.758  12.374   3.725
 4663SOL     OW15885   0.916   5.877   7.771
 4663SOL    HW115886   0.844   5.834   7.724
 4663SOL    HW215887   0.919   5.832   7.855
 4664SOL     OW15888  12.265   5.832   7.891
 4664SOL    HW115889  12.186   5.777   7.889
 4664SOL    HW215890  12.254   5.887   7.969
 4665SOL     OW15891  13.363   1.287   8.130
 4665SOL    HW115892  13.378   1.357   8.193
 4665SOL    HW215893  13.309   1.223   8.177
 4666SOL     OW15894   3.821  14.553  10.308
 4666SOL    HW115895   3.775  14.478  10.270
 4666SOL    HW215896   3.889  14.514  10.363
 4667SOL     OW15897   9.748  14.575  13.127
 4667SOL    HW115898   9.662  14.595  13.090
 4667SOL    HW215899   9.811  14.606  13.061
 4668SOL     OW15900  10.882  14.089  11.289
 4668SOL    HW115901  10.973  14.112  11.310
 4668SOL    HW215902  10.832  14.164  11.320
 4669SOL     OW15903   2.529  14.763   3.015
 4669SOL    HW115904   2.585  14.685   3.013
 4669SOL    HW215905   2.531  14.796   2.925
 4670SOL     OW15906  13.598   4.875   0.090
 4670SOL    HW115907  13.685   4.858   0.053
 4670SOL    HW215908  13.550   4.918   0.019
 4671SOL     OW15909   3.456   3.617   5.686
 4671SOL    HW115910   3.396   3.563   5.737
 4671SOL    HW215911   3.442   3.589   5.595
 4672SOL     OW15912   0.955   6.736  11.044
 4672SOL    HW115913   1.024   6.802  11.051
 4672SOL    HW215914   0.884   6.781  10.997
 4673SOL     OW15915   9.315   3.780   6.913
 4673SOL    HW115916   9.264   3.727   6.852
 4673SOL    HW215917   9.251   3.811   6.977
 4674SOL     OW15918   0.016   5.020   1.260
 4674SOL    HW115919  14.848   5.064   1.192
 4674SOL    HW215920   0.073   4.959   1.213
 4675SOL     OW15921   4.637   2.711  14.520
 4675SOL    HW115922   4.705   2.739  14.581
 4675SOL    HW215923   4.645   2.772  14.446
 4676SOL     OW15924   6.488  13.745   9.494
 4676SOL    HW115925   6.407  13.795   9.484
 4676SOL    HW215926   6.461  13.666   9.541
 4677SOL     OW15927   2.374   5.309  10.889
 4677SOL    HW115928   2.451   5.312  10.946
 4677SOL    HW215929   2.343   5.399  10.887
 4678SOL     OW15930   1.098   5.319   5.415
 4678SOL    HW115931   1.186   5.345   5.388
 4678SOL    HW215932   1.086   5.360   5.501
 4679SOL     OW15933   2.685   0.604  10.491
 4679SOL    HW115934   2.607   0.654  10.515
 4679SOL    HW215935   2.722   0.652  10.417
 4680SOL     OW15936   4.879   7.601   1.353
 4680SOL    HW115937   4.924   7.604   1.438
 4680SOL    HW215938   4.900   7.515   1.318
 4681SOL     OW15939   2.148   0.736   8.143
 4681SOL    HW115940   2.182   0.823   8.123
 4681SOL    HW215941   2.053   0.745   8.136
 4682SOL     OW15942   2.549   4.205   4.621
 4682SOL    HW115943   2.526   4.284   4.670
 4682SOL    HW215944   2.630   4.228   4.575
 4683SOL     OW15945   8.615  14.825   9.945
 4683SOL    HW115946   8.613  14.838  10.040
 4683SOL    HW215947   8.672   0.013   9.913
 4684SOL     OW15948   1.344   6.138   6.612
 4684SOL    HW115949   1.299   6.055   6.628
 4684SOL    HW215950   1.359   6.175   6.698
 4685SOL     OW15951  11.707  14.123  12.645
 4685SOL    HW115952  11.716  14.126  12.550
 4685SOL    HW215953  11.617  14.150  12.662
 4686SOL     OW15954  11.520  12.682  13.872
 4686SOL    HW115955  11.579  12.629  13.926
 4686SOL    HW215956  11.549  12.772  13.887
 4687SOL     OW15957   5.823   9.750   8.679
 4687SOL    HW115958   5.867   9.774   8.598
 4687SOL    HW215959   5.891   9.709   8.733
 4688SOL     OW15960   2.891  12.227  11.061
 4688SOL    HW115961   2.963  12.288  11.048
 4688SOL    HW215962   2.873  12.231  11.155
 4689SOL     OW15963   1.261  11.856   6.373
 4689SOL    HW115964   1.220  11.940   6.353
 4689SOL    HW215965   1.302  11.869   6.459
 4690SOL     OW15966  10.570  14.451   0.179
 4690SOL    HW115967  10.604  14.367   0.209
 4690SOL    HW215968  10.602  14.515   0.243
 4691SOL     OW15969   0.252   0.316  11.352
 4691SOL    HW115970   0.217   0.292  11.438
 4691SOL    HW215971   0.333   0.264  11.344
 4692SOL     OW15972  13.798  12.076   4.764
 4692SOL    HW115973  13.880  12.125   4.764
 4692SOL    HW215974  13.790  12.042   4.675
 4693SOL     OW15975   5.364   6.015  10.475
 4693SOL    HW115976   5.397   5.926  10.467
 4693SOL    HW215977   5.269   6.006  10.476
 4694SOL     OW15978   3.783   1.350   3.171
 4694SOL    HW115979   3.707   1.294   3.155
 4694SOL    HW215980   3.826   1.358   3.087
 4695SOL     OW15981   6.316   7.274   2.984
 4695SOL    HW115982   6.265   7.274   3.065
 4695SOL    HW215983   6.400   7.312   3.010
 4696SOL     OW15984   5.052   2.336  13.441
 4696SOL    HW115985   5.094   2.403  13.495
 4696SOL    HW215986   5.125   2.291  13.398
 4697SOL     OW15987   0.925  14.224  14.648
 4697SOL    HW115988   0.846  14.171  14.662
 4697SOL    HW215989   0.997  14.167  14.675
 4698SOL     OW15990   9.999  14.048  13.870
 4698SOL    HW115991   9.921  14.101  13.887
 4698SOL    HW215992   9.986  14.013  13.782
 4699SOL     OW15993   4.225   5.116  14.658
 4699SOL    HW115994   4.190   5.128  14.746
 4699SOL    HW215995   4.300   5.058  14.669
 4700SOL     OW15996   3.891   9.760  13.966
 4700SOL    HW115997   3.872   9.710  13.887
 4700SOL    HW215998   3.807   9.801  13.989
 4701SOL     OW15999  10.559   0.171   7.494
 4701SOL    HW116000  10.516   0.211   7.570
 4701SOL    HW216001  10.490   0.123   7.450
 4702SOL     OW16002   4.789   4.686   3.830
 4702SOL    HW116003   4.812   4.604   3.786
 4702SOL    HW216004   4.869   4.712   3.876
 4703SOL     OW16005  10.863  12.901   9.865
 4703SOL    HW116006  10.818  12.869   9.943
 4703SOL    HW216007  10.811  12.977   9.838
 4704SOL     OW16008   0.048   1.980   0.103
 4704SOL    HW116009   0.080   2.062   0.066
 4704SOL    HW216010  14.835   1.993   0.110
 4705SOL     OW16011   0.911   9.270   6.666
 4705SOL    HW116012   0.907   9.313   6.580
 4705SOL    HW216013   0.862   9.328   6.724
 4706SOL     OW16014   0.338   8.736   9.429
 4706SOL    HW116015   0.297   8.663   9.476
 4706SOL    HW216016   0.413   8.697   9.385
 4707SOL     OW16017  13.732  13.872  10.080
 4707SOL    HW116018  13.787  13.797  10.101
 4707SOL    HW216019  13.643  13.837  10.077
 4708SOL     OW16020   5.165   5.577   8.955
 4708SOL    HW116021   5.176   5.659   9.003
 4708SOL    HW216022   5.181   5.509   9.019
 4709SOL     OW16023  11.451   6.523  12.833
 4709SOL    HW116024  11.504   6.525  12.753
 4709SOL    HW216025  11.501   6.467  12.893
 4710SOL     OW16026  10.311   7.497  10.621
 4710SOL    HW116027  10.251   7.509  10.547
 4710SOL    HW216028  10.265   7.535  10.696
 4711SOL     OW16029   0.588  11.046   2.720
 4711SOL    HW116030   0.640  11.079   2.646
 4711SOL    HW216031   0.498  11.049   2.688
 4712SOL     OW16032   4.072   1.241   9.690
 4712SOL    HW116033   4.060   1.176   9.621
 4712SOL    HW216034   4.150   1.289   9.664
 4713SOL     OW16035  10.472   3.940   5.576
 4713SOL    HW116036  10.473   4.035   5.583
 4713SOL    HW216037  10.443   3.910   5.662
 4714SOL     OW16038   2.008  14.413   3.331
 4714SOL    HW116039   2.013  14.469   3.409
 4714SOL    HW216040   1.975  14.330   3.363
 4715SOL     OW16041  11.901  13.789   1.999
 4715SOL    HW116042  11.887  13.848   1.925
 4715SOL    HW216043  11.879  13.703   1.966
 4716SOL     OW16044  13.504   7.617   2.657
 4716SOL    HW116045  13.447   7.685   2.624
 4716SOL    HW216046  13.573   7.664   2.704
 4717SOL     OW16047  11.129   1.144   8.837
 4717SOL    HW116048  11.069   1.069   8.840
 4717SOL    HW216049  11.074   1.219   8.860
 4718SOL     OW16050   0.421   1.747  10.330
 4718SOL    HW116051   0.331   1.713  10.329
 4718SOL    HW216052   0.469   1.691  10.270
 4719SOL     OW16053   5.131   5.391   7.273
 4719SOL    HW116054   5.219   5.384   7.309
 4719SOL    HW216055   5.144   5.428   7.185
 4720SOL     OW16056   8.431   8.035   1.924
 4720SOL    HW116057   8.416   8.125   1.896
 4720SOL    HW216058   8.421   8.036   2.019
 4721SOL     OW16059   3.210   3.969   8.048
 4721SOL    HW116060   3.201   4.023   7.970
 4721SOL    HW216061   3.159   3.890   8.030
 4722SOL     OW16062  14.543   1.459  11.468
 4722SOL    HW116063  14.607   1.419  11.526
 4722SOL    HW216064  14.501   1.527  11.521
 4723SOL     OW16065   1.502   7.610  11.908
 4723SOL    HW116066   1.529   7.701  11.920
 4723SOL    HW216067   1.414   7.616  11.872
 4724SOL     OW16068  14.865   1.151   1.878
 4724SOL    HW116069  14.832   1.090   1.811
 4724SOL    HW216070  14.861   1.237   1.835
 4725SOL     OW16071   6.216  12.677   6.394
 4725SOL    HW116072   6.210  12.754   6.337
 4725SOL    HW216073   6.256  12.709   6.475
 4726SOL     OW16074   6.918   4.527  13.684
 4726SOL    HW116075   6.992   4.559  13.737
 4726SOL    HW216076   6.863   4.480  13.746
 4727SOL     OW16077   5.250  10.681   0.063
 4727SOL    HW116078   5.247  10.634   0.146
 4727SOL    HW216079   5.169  10.656   0.018
 4728SOL     OW16080   1.518   1.695  12.861
 4728SOL    HW116081   1.430   1.684  12.899
 4728SOL    HW216082   1.544   1.607  12.836
 4729SOL     OW16083  10.628   4.648  13.823
 4729SOL    HW116084  10.706   4.592  13.819
 4729SOL    HW216085  10.558   4.593  13.789
 4730SOL     OW16086  13.938  11.116   0.373
 4730SOL    HW116087  14.029  11.104   0.401
 4730SOL    HW216088  13.944  11.172   0.295
 4731SOL     OW16089   1.812   0.313  13.340
 4731SOL    HW116090   1.878   0.244  13.328
 4731SOL    HW216091   1.733   0.267  13.368
 4732SOL     OW16092   5.552   9.205   5.349
 4732SOL    HW116093   5.625   9.218   5.409
 4732SOL    HW216094   5.547   9.287   5.299
 4733SOL     OW16095   5.062   3.886   1.662
 4733SOL    HW116096   5.024   3.862   1.578
 4733SOL    HW216097   4.997   3.860   1.727
 4734SOL     OW16098   3.539  12.533  11.302
 4734SOL    HW116099   3.574  12.454  11.261
 4734SOL    HW216100   3.603  12.601  11.279
 4735SOL     OW16101  14.640  10.251  12.206
 4735SOL    HW116102  14.588  10.310  12.153
 4735SOL    HW216103  14.730  10.282  12.195
 4736SOL     OW16104   6.933   5.061   5.921
 4736SOL    HW116105   6.841   5.033   5.922
 4736SOL    HW216106   6.979   4.994   5.972
 4737SOL     OW16107  10.838   3.873   4.214
 4737SOL    HW116108  10.847   3.937   4.144
 4737SOL    HW216109  10.790   3.800   4.174
 4738SOL     OW16110   1.923  10.120  10.854
 4738SOL    HW116111   2.015  10.141  10.873
 4738SOL    HW216112   1.902  10.171  10.776
 4739SOL     OW16113   8.734   2.776   1.750
 4739SOL    HW116114   8.705   2.810   1.835
 4739SOL    HW216115   8.829   2.774   1.756
 4740SOL     OW16116   3.043  13.008  12.625
 4740SOL    HW116117   2.997  13.077  12.673
 4740SOL    HW216118   3.113  13.054  12.578
 4741SOL     OW16119  14.097   9.089   2.183
 4741SOL    HW116120  14.114   9.130   2.098
 4741SOL    HW216121  14.048   9.155   2.232
 4742SOL     OW16122  13.987   4.021   5.758
 4742SOL    HW116123  13.942   4.088   5.810
 4742SOL    HW216124  14.080   4.035   5.776
 4743SOL     OW16125   7.266  11.090   2.539
 4743SOL    HW116126   7.188  11.139   2.564
 4743SOL    HW216127   7.235  11.000   2.526
 4744SOL     OW16128   3.867   2.549   3.053
 4744SOL    HW116129   3.864   2.570   2.959
 4744SOL    HW216130   3.843   2.631   3.096
 4745SOL     OW16131   3.558   1.997   3.100
 4745SOL    HW116132   3.640   1.966   3.139
 4745SOL    HW216133   3.541   1.936   3.028
 4746SOL     OW16134  10.014   7.439   3.895
 4746SOL    HW116135   9.985   7.527   3.870
 4746SOL    HW216136  10.101   7.431   3.855
 4747SOL     OW16137   7.637   7.532   2.202
 4747SOL    HW116138   7.546   7.538   2.229
 4747SOL    HW216139   7.678   7.612   2.236
 4748SOL     OW16140   4.814   5.528   8.987
 4748SOL    HW116141   4.828   5.477   9.067
 4748SOL    HW216142   4.837   5.468   8.916
 4749SOL     OW16143  12.141   9.991   1.543
 4749SOL    HW116144  12.163  10.043   1.466
 4749SOL    HW216145  12.183   9.906   1.528
 4750SOL     OW16146   4.104   3.329  10.643
 4750SOL    HW116147   4.100   3.332  10.739
 4750SOL    HW216148   4.028   3.379  10.614
 4751SOL     OW16149  10.101  12.176   2.706
 4751SOL    HW116150  10.154  12.182   2.785
 4751SOL    HW216151  10.125  12.092   2.667
 4752SOL     OW16152  12.887   5.280  10.988
 4752SOL    HW116153  12.826   5.313  10.922
 4752SOL    HW216154  12.947   5.353  11.003
 4753SOL     OW16155   1.099  12.095   4.689
 4753SOL    HW116156   1.082  12.067   4.599
 4753SOL    HW216157   1.029  12.056   4.740
 4754SOL     OW16158  12.805   3.124   9.298
 4754SOL    HW116159  12.832   3.208   9.260
 4754SOL    HW216160  12.884   3.091   9.340
 4755SOL     OW16161   6.799  12.231   3.348
 4755SOL    HW116162   6.837  12.155   3.393
 4755SOL    HW216163   6.803  12.301   3.413
 4756SOL     OW16164  13.231   7.972  13.110
 4756SOL    HW116165  13.306   7.929  13.068
 4756SOL    HW216166  13.229   7.936  13.198
 4757SOL     OW16167   7.455  12.008   0.628
 4757SOL    HW116168   7.505  11.939   0.584
 4757SOL    HW216169   7.385  12.029   0.567
 4758SOL     OW16170   3.966  14.216   2.695
 4758SOL    HW116171   4.028  14.207   2.622
 4758SOL    HW216172   3.929  14.129   2.707
 4759SOL     OW16173   6.156  12.861   8.859
 4759SOL    HW116174   6.128  12.780   8.902
 4759SOL    HW216175   6.077  12.895   8.818
 4760SOL     OW16176  14.220   4.746  14.066
 4760SOL    HW116177  14.270   4.669  14.040
 4760SOL    HW216178  14.233   4.808  13.995
 4761SOL     OW16179   5.284   9.909   3.859
 4761SOL    HW116180   5.339   9.951   3.926
 4761SOL    HW216181   5.208   9.967   3.851
 4762SOL     OW16182   0.038  13.998   0.027
 4762SOL    HW116183  14.854  14.059   0.058
 4762SOL    HW216184   0.109  14.054  14.876
 4763SOL     OW16185   5.568   1.864   2.522
 4763SOL    HW116186   5.610   1.779   2.535
 4763SOL    HW216187   5.634   1.916   2.476
 4764SOL     OW16188   2.171  11.323   4.701
 4764SOL    HW116189   2.172  11.240   4.748
 4764SOL    HW216190   2.091  11.320   4.649
 4765SOL     OW16191   0.457  11.550  12.765
 4765SOL    HW116192   0.395  11.483  12.740
 4765SOL    HW216193   0.469  11.604  12.686
 4766SOL     OW16194   9.167   1.932  10.038
 4766SOL    HW116195   9.090   1.930   9.980
 4766SOL    HW216196   9.156   1.855  10.094
 4767SOL     OW16197  10.756   2.215   2.523
 4767SOL    HW116198  10.838   2.170   2.543
 4767SOL    HW216199  10.688   2.162   2.563
 4768SOL     OW16200   2.033   3.526   7.056
 4768SOL    HW116201   2.021   3.597   7.119
 4768SOL    HW216202   1.955   3.471   7.066
 4769SOL     OW16203   6.176  12.381   2.640
 4769SOL    HW116204   6.268  12.376   2.668
 4769SOL    HW216205   6.157  12.475   2.639
 4770SOL     OW16206  10.249   2.748   6.957
 4770SOL    HW116207  10.255   2.664   6.913
 4770SOL    HW216208  10.228   2.811   6.888
 4771SOL     OW16209   4.062  12.090   3.228
 4771SOL    HW116210   4.013  12.148   3.286
 4771SOL    HW216211   4.019  12.101   3.142
 4772SOL     OW16212  14.511   3.586  14.235
 4772SOL    HW116213  14.569   3.646  14.188
 4772SOL    HW216214  14.426   3.598  14.193
 4773SOL     OW16215  12.438   2.854  11.306
 4773SOL    HW116216  12.393   2.924  11.354
 4773SOL    HW216217  12.384   2.839  11.228
 4774SOL     OW16218   6.003  14.879   1.521
 4774SOL    HW116219   6.053  14.803   1.493
 4774SOL    HW216220   5.937  14.844   1.582
 4775SOL     OW16221  14.786   2.788  14.206
 4775SOL    HW116222  14.747   2.845  14.141
 4775SOL    HW216223  14.835   2.847  14.264
 4776SOL     OW16224  11.664   2.402   1.247
 4776SOL    HW116225  11.694   2.471   1.187
 4776SOL    HW216226  11.649   2.447   1.330
 4777SOL     OW16227  12.030   5.684   1.348
 4777SOL    HW116228  12.063   5.766   1.312
 4777SOL    HW216229  12.016   5.702   1.441
 4778SOL     OW16230  11.927  14.164   0.681
 4778SOL    HW116231  11.998  14.199   0.734
 4778SOL    HW216232  11.899  14.085   0.728
 4779SOL     OW16233   3.459   4.709  11.861
 4779SOL    HW116234   3.464   4.648  11.935
 4779SOL    HW216235   3.369   4.700  11.829
 4780SOL     OW16236  10.886  13.194   3.644
 4780SOL    HW116237  10.980  13.207   3.632
 4780SOL    HW216238  10.863  13.125   3.581
 4781SOL     OW16239  10.465   1.557   0.963
 4781SOL    HW116240  10.436   1.644   0.991
 4781SOL    HW216241  10.499   1.516   1.043
 4782SOL     OW16242   2.625  12.970   4.471
 4782SOL    HW116243   2.680  12.914   4.416
 4782SOL    HW216244   2.538  12.964   4.431
 4783SOL     OW16245   8.862   3.825   7.082
 4783SOL    HW116246   8.949   3.866   7.085
 4783SOL    HW216247   8.811   3.881   7.023
 4784SOL     OW16248  14.013   2.927   6.955
 4784SOL    HW116249  13.989   2.976   7.033
 4784SOL    HW216250  13.930   2.903   6.914
 4785SOL     OW16251   4.966   1.471  13.023
 4785SOL    HW116252   4.915   1.448  13.101
 4785SOL    HW216253   4.927   1.419  12.953
 4786SOL     OW16254   5.746   0.886   9.240
 4786SOL    HW116255   5.680   0.861   9.305
 4786SOL    HW216256   5.696   0.922   9.168
 4787SOL     OW16257   2.511   8.029   4.801
 4787SOL    HW116258   2.488   8.120   4.821
 4787SOL    HW216259   2.588   8.011   4.855
 4788SOL     OW16260  14.216   2.499   2.241
 4788SOL    HW116261  14.273   2.487   2.318
 4788SOL    HW216262  14.225   2.591   2.219
 4789SOL     OW16263   3.604   7.145  10.952
 4789SOL    HW116264   3.576   7.053  10.945
 4789SOL    HW216265   3.533   7.194  10.910
 4790SOL     OW16266  13.907  13.158  11.454
 4790SOL    HW116267  13.927  13.137  11.363
 4790SOL    HW216268  13.905  13.254  11.457
 4791SOL     OW16269   4.183   5.721   4.431
 4791SOL    HW116270   4.135   5.641   4.454
 4791SOL    HW216271   4.137   5.755   4.354
 4792SOL     OW16272  12.397   6.904   7.815
 4792SOL    HW116273  12.334   6.849   7.768
 4792SOL    HW216274  12.347   6.940   7.888
 4793SOL     OW16275   6.003   3.321  12.438
 4793SOL    HW116276   5.966   3.382  12.501
 4793SOL    HW216277   5.928   3.271  12.406
 4794SOL     OW16278  12.520  11.848   3.610
 4794SOL    HW116279  12.455  11.883   3.671
 4794SOL    HW216280  12.601  11.845   3.660
 4795SOL     OW16281   6.590   0.794  14.098
 4795SOL    HW116282   6.556   0.871  14.053
 4795SOL    HW216283   6.629   0.741  14.029
 4796SOL     OW16284  10.388  13.860   0.861
 4796SOL    HW116285  10.394  13.765   0.860
 4796SOL    HW216286  10.324  13.881   0.793
 4797SOL     OW16287   9.383   4.904   5.688
 4797SOL    HW116288   9.453   4.893   5.752
 4797SOL    HW216289   9.388   4.825   5.634
 4798SOL     OW16290   9.632  10.006   9.385
 4798SOL    HW116291   9.550   9.991   9.431
 4798SOL    HW216292   9.630   9.943   9.312
 4799SOL     OW16293   1.359   0.243   3.104
 4799SOL    HW116294   1.290   0.177   3.108
 4799SOL    HW216295   1.366   0.265   3.011
 4800SOL     OW16296   2.237  12.277  14.644
 4800SOL    HW116297   2.290  12.200  14.662
 4800SOL    HW216298   2.297  12.338  14.601
 4801SOL     OW16299  12.028   9.996   0.813
 4801SOL    HW116300  12.098   9.987   0.748
 4801SOL    HW216301  12.032   9.915   0.864
 4802SOL     OW16302  13.341   5.293   4.080
 4802SOL    HW116303  13.299   5.248   4.007
 4802SOL    HW216304  13.371   5.223   4.138
 4803SOL     OW16305   7.300   2.607   3.404
 4803SOL    HW116306   7.262   2.687   3.369
 4803SOL    HW216307   7.393   2.613   3.383
 4804SOL     OW16308   1.128  13.745   8.227
 4804SOL    HW116309   1.098  13.738   8.136
 4804SOL    HW216310   1.080  13.820   8.262
 4805SOL     OW16311   0.907   5.710   7.096
 4805SOL    HW116312   0.882   5.716   7.189
 4805SOL    HW216313   1.000   5.732   7.095
 4806SOL     OW16314   8.896   9.277   8.234
 4806SOL    HW116315   8.988   9.252   8.240
 4806SOL    HW216316   8.869   9.250   8.146
 4807SOL     OW16317   9.035   9.820   0.346
 4807SOL    HW116318   8.965   9.818   0.281
 4807SOL    HW216319   9.033   9.909   0.381
 4808SOL     OW16320   9.494  14.664   8.464
 4808SOL    HW116321   9.534  14.718   8.533
 4808SOL    HW216322   9.564  14.653   8.399
 4809SOL     OW16323   5.395   9.083  12.942
 4809SOL    HW116324   5.307   9.106  12.973
 4809SOL    HW216325   5.437   9.043  13.018
 4810SOL     OW16326   7.407   9.713   7.745
 4810SOL    HW116327   7.327   9.665   7.723
 4810SOL    HW216328   7.449   9.659   7.813
 4811SOL     OW16329   8.235   9.525  10.390
 4811SOL    HW116330   8.254   9.575  10.469
 4811SOL    HW216331   8.291   9.448  10.396
 4812SOL     OW16332   2.712  11.072  10.629
 4812SOL    HW116333   2.774  11.021  10.577
 4812SOL    HW216334   2.768  11.123  10.688
 4813SOL     OW16335   1.947   4.349  11.312
 4813SOL    HW116336   1.988   4.339  11.226
 4813SOL    HW216337   1.979   4.274  11.362
 4814SOL     OW16338  13.688   8.135   3.456
 4814SOL    HW116339  13.721   8.099   3.539
 4814SOL    HW216340  13.713   8.070   3.391
 4815SOL     OW16341   4.650   5.521   4.210
 4815SOL    HW116342   4.583   5.575   4.252
 4815SOL    HW216343   4.654   5.553   4.120
 4816SOL     OW16344  11.381  14.088   1.840
 4816SOL    HW116345  11.395  13.998   1.871
 4816SOL    HW216346  11.464  14.132   1.857
 4817SOL     OW16347   8.721   5.795   9.197
 4817SOL    HW116348   8.784   5.853   9.240
 4817SOL    HW216349   8.640   5.807   9.247
 4818SOL     OW16350   6.981   2.739   7.264
 4818SOL    HW116351   6.948   2.798   7.332
 4818SOL    HW216352   6.978   2.652   7.304
 4819SOL     OW16353  10.899   1.529  10.547
 4819SOL    HW116354  10.918   1.460  10.483
 4819SOL    HW216355  10.847   1.593  10.498
 4820SOL     OW16356   1.382  10.410   3.657
 4820SOL    HW116357   1.407  10.467   3.584
 4820SOL    HW216358   1.453  10.347   3.663
 4821SOL     OW16359   4.272   3.682   8.203
 4821SOL    HW116360   4.265   3.701   8.110
 4821SOL    HW216361   4.259   3.766   8.246
 4822SOL     OW16362   7.105  11.887   2.540
 4822SOL    HW116363   7.027  11.832   2.547
 4822SOL    HW216364   7.158  11.864   2.616
 4823SOL     OW16365  13.896   5.851   6.560
 4823SOL    HW116366  13.803   5.873   6.571
 4823SOL    HW216367  13.928   5.839   6.650
 4824SOL     OW16368   1.311   9.697   9.968
 4824SOL    HW116369   1.270   9.740  10.044
 4824SOL    HW216370   1.391   9.747   9.953
 4825SOL     OW16371  14.430   7.898   1.467
 4825SOL    HW116372  14.414   7.974   1.410
 4825SOL    HW216373  14.411   7.930   1.555
 4826SOL     OW16374   1.759   1.214   5.163
 4826SOL    HW116375   1.726   1.282   5.105
 4826SOL    HW216376   1.736   1.132   5.120
 4827SOL     OW16377   1.369   7.438  10.742
 4827SOL    HW116378   1.417   7.518  10.723
 4827SOL    HW216379   1.281   7.454  10.708
 4828SOL     OW16380   4.794   4.919   7.809
 4828SOL    HW116381   4.806   5.013   7.794
 4828SOL    HW216382   4.811   4.879   7.724
 4829SOL     OW16383   3.869   9.191   4.627
 4829SOL    HW116384   3.868   9.280   4.593
 4829SOL    HW216385   3.898   9.137   4.553
 4830SOL     OW16386   0.418  11.268   8.037
 4830SOL    HW116387   0.446  11.357   8.017
 4830SOL    HW216388   0.370  11.276   8.120
 4831SOL     OW16389   7.275   3.154  10.158
 4831SOL    HW116390   7.279   3.065  10.193
 4831SOL    HW216391   7.237   3.206  10.229
 4832SOL     OW16392  12.577  10.659   4.408
 4832SOL    HW116393  12.528  10.728   4.453
 4832SOL    HW216394  12.544  10.660   4.318
 4833SOL     OW16395   1.688  14.687   4.086
 4833SOL    HW116396   1.600  14.726   4.084
 4833SOL    HW216397   1.691  14.640   4.169
 4834SOL     OW16398   4.765   5.709   7.033
 4834SOL    HW116399   4.845   5.732   7.081
 4834SOL    HW216400   4.740   5.789   6.988
 4835SOL     OW16401   5.267  11.155  10.965
 4835SOL    HW116402   5.193  11.215  10.973
 4835SOL    HW216403   5.248  11.104  10.886
 4836SOL     OW16404   8.119  13.652   5.787
 4836SOL    HW116405   8.157  13.722   5.841
 4836SOL    HW216406   8.025  13.657   5.803
 4837SOL     OW16407  14.468   3.101   7.923
 4837SOL    HW116408  14.488   3.194   7.937
 4837SOL    HW216409  14.553   3.058   7.920
 4838SOL     OW16410   9.037   7.300   3.024
 4838SOL    HW116411   8.987   7.328   3.101
 4838SOL    HW216412   9.041   7.205   3.032
 4839SOL     OW16413   2.408   2.536   4.478
 4839SOL    HW116414   2.474   2.480   4.518
 4839SOL    HW216415   2.338   2.476   4.453
 4840SOL     OW16416   8.419   8.178  10.333
 4840SOL    HW116417   8.428   8.224  10.250
 4840SOL    HW216418   8.331   8.202  10.364
 4841SOL     OW16419  11.772   0.200   0.910
 4841SOL    HW116420  11.834   0.183   0.981
 4841SOL    HW216421  11.823   0.188   0.830
 4842SOL     OW16422   5.929  10.910  11.297
 4842SOL    HW116423   5.991  10.853  11.252
 4842SOL    HW216424   5.983  10.965  11.354
 4843SOL     OW16425   1.789   7.974   1.050
 4843SOL    HW116426   1.806   7.939   1.137
 4843SOL    HW216427   1.694   7.984   1.046
 4844SOL     OW16428  12.328   1.094   0.723
 4844SOL    HW116429  12.301   1.091   0.815
 4844SOL    HW216430  12.308   1.184   0.696
 4845SOL     OW16431  12.284   0.405   8.546
 4845SOL    HW116432  12.370   0.367   8.566
 4845SOL    HW216433  12.304   0.475   8.483
 4846SOL     OW16434   9.425  13.052  11.909
 4846SOL    HW116435   9.377  13.041  11.827
 4846SOL    HW216436   9.385  13.128  11.950
 4847SOL     OW16437   7.838   2.003   9.101
 4847SOL    HW116438   7.777   1.978   9.170
 4847SOL    HW216439   7.850   1.923   9.050
 4848SOL     OW16440  13.325   6.987   7.509
 4848SOL    HW116441  13.294   6.915   7.565
 4848SOL    HW216442  13.279   6.974   7.426
 4849SOL     OW16443  14.311  11.780   3.927
 4849SOL    HW116444  14.240  11.718   3.940
 4849SOL    HW216445  14.272  11.853   3.879
 4850SOL     OW16446  10.447   9.651   0.853
 4850SOL    HW116447  10.471   9.568   0.894
 4850SOL    HW216448  10.358   9.638   0.822
 4851SOL     OW16449  11.185   8.637   1.892
 4851SOL    HW116450  11.109   8.617   1.948
 4851SOL    HW216451  11.159   8.715   1.843
 4852SOL     OW16452   2.541  11.083  10.860
 4852SOL    HW116453   2.610  11.059  10.798
 4852SOL    HW216454   2.485  11.005  10.863
 4853SOL     OW16455  12.322  10.760   2.716
 4853SOL    HW116456  12.350  10.850   2.698
 4853SOL    HW216457  12.318  10.756   2.812
 4854SOL     OW16458   7.947  12.485   7.297
 4854SOL    HW116459   7.899  12.403   7.312
 4854SOL    HW216460   8.033  12.470   7.336
 4855SOL     OW16461   1.410   5.885   6.065
 4855SOL    HW116462   1.426   5.912   6.156
 4855SOL    HW216463   1.421   5.965   6.014
 4856SOL     OW16464   1.221   3.114   7.553
 4856SOL    HW116465   1.193   3.205   7.553
 4856SOL    HW216466   1.143   3.065   7.526
 4857SOL     OW16467   3.119   9.675   7.085
 4857SOL    HW116468   3.142   9.714   7.169
 4857SOL    HW216469   3.129   9.581   7.099
 4858SOL     OW16470   0.734   8.084  14.351
 4858SOL    HW116471   0.774   8.070  14.265
 4858SOL    HW216472   0.809   8.094  14.410
 4859SOL     OW16473   0.243   1.656   7.372
 4859SOL    HW116474   0.236   1.746   7.402
 4859SOL    HW216475   0.325   1.624   7.409
 4860SOL     OW16476   3.142   9.794   1.409
 4860SOL    HW116477   3.198   9.778   1.484
 4860SOL    HW216478   3.202   9.818   1.339
 4861SOL     OW16479   6.291   3.362   5.072
 4861SOL    HW116480   6.330   3.392   5.154
 4861SOL    HW216481   6.233   3.434   5.046
 4862SOL     OW16482   9.831   5.389   2.526
 4862SOL    HW116483   9.896   5.407   2.458
 4862SOL    HW216484   9.868   5.428   2.606
 4863SOL     OW16485   2.572   7.534   6.890
 4863SOL    HW116486   2.541   7.487   6.967
 4863SOL    HW216487   2.508   7.604   6.877
 4864SOL     OW16488   2.955   5.087  12.796
 4864SOL    HW116489   2.961   5.090  12.892
 4864SOL    HW216490   2.984   4.999  12.774
 4865SOL     OW16491  14.137  14.040  10.626
 4865SOL    HW116492  14.215  14.095  10.620
 4865SOL    HW216493  14.097  14.065  10.709
 4866SOL     OW16494   5.115   3.176   2.803
 4866SOL    HW116495   5.122   3.245   2.738
 4866SOL    HW216496   5.054   3.211   2.868
 4867SOL     OW16497   4.329  12.565  13.084
 4867SOL    HW116498   4.256  12.550  13.144
 4867SOL    HW216499   4.294  12.543  12.997
 4868SOL     OW16500   4.217   9.694   5.453
 4868SOL    HW116501   4.150   9.741   5.502
 4868SOL    HW216502   4.199   9.602   5.470
 4869SOL     OW16503   3.719   9.222   9.098
 4869SOL    HW116504   3.767   9.140   9.083
 4869SOL    HW216505   3.787   9.289   9.101
 4870SOL     OW16506  12.114   3.164   3.075
 4870SOL    HW116507  12.026   3.127   3.080
 4870SOL    HW216508  12.100   3.255   3.049
 4871SOL     OW16509   5.773   9.996  14.652
 4871SOL    HW116510   5.702  10.049  14.689
 4871SOL    HW216511   5.740   9.906  14.657
 4872SOL     OW16512   8.949  13.919   2.929
 4872SOL    HW116513   8.960  13.871   2.847
 4872SOL    HW216514   8.854  13.930   2.938
 4873SOL     OW16515  12.380  13.346  14.836
 4873SOL    HW116516  12.460  13.372  14.882
 4873SOL    HW216517  12.411  13.295  14.762
 4874SOL     OW16518   1.778  11.945   1.082
 4874SOL    HW116519   1.742  11.882   1.020
 4874SOL    HW216520   1.707  11.962   1.144
 4875SOL     OW16521   0.231   2.015  10.480
 4875SOL    HW116522   0.170   1.951  10.444
 4875SOL    HW216523   0.232   1.997  10.574
 4876SOL     OW16524  13.296  14.030   8.987
 4876SOL    HW116525  13.380  14.035   9.033
 4876SOL    HW216526  13.288  13.938   8.962
 4877SOL     OW16527   1.442   9.454   8.103
 4877SOL    HW116528   1.453   9.418   8.191
 4877SOL    HW216529   1.434   9.376   8.047
 4878SOL     OW16530   2.255  14.257  10.272
 4878SOL    HW116531   2.337  14.251  10.224
 4878SOL    HW216532   2.187  14.258  10.204
 4879SOL     OW16533   5.967   3.655   2.068
 4879SOL    HW116534   5.898   3.591   2.084
 4879SOL    HW216535   6.018   3.655   2.149
 4880SOL     OW16536   2.577   2.375   4.576
 4880SOL    HW116537   2.664   2.394   4.613
 4880SOL    HW216538   2.540   2.310   4.635
 4881SOL     OW16539   1.957   4.061   9.809
 4881SOL    HW116540   1.863   4.044   9.817
 4881SOL    HW216541   1.978   4.115   9.886
 4882SOL     OW16542   4.281   3.487   8.856
 4882SOL    HW116543   4.354   3.512   8.799
 4882SOL    HW216544   4.220   3.440   8.799
 4883SOL     OW16545  11.708   9.775  10.732
 4883SOL    HW116546  11.671   9.712  10.794
 4883SOL    HW216547  11.635   9.796  10.673
 4884SOL     OW16548   2.308   0.713   6.297
 4884SOL    HW116549   2.394   0.709   6.339
 4884SOL    HW216550   2.284   0.806   6.302
 4885SOL     OW16551   7.644   5.341   2.256
 4885SOL    HW116552   7.626   5.396   2.332
 4885SOL    HW216553   7.725   5.376   2.219
 4886SOL     OW16554   1.736   5.733  10.168
 4886SOL    HW116555   1.709   5.675  10.240
 4886SOL    HW216556   1.747   5.818  10.210
 4887SOL     OW16557   6.792   9.584   3.304
 4887SOL    HW116558   6.722   9.519   3.305
 4887SOL    HW216559   6.784   9.626   3.218
 4888SOL     OW16560  10.902   1.389   6.947
 4888SOL    HW116561  10.944   1.439   7.018
 4888SOL    HW216562  10.883   1.455   6.880
 4889SOL     OW16563   0.356  14.094   5.213
 4889SOL    HW116564   0.416  14.085   5.287
 4889SOL    HW216565   0.362  14.187   5.188
 4890SOL     OW16566  14.653  14.763  12.333
 4890SOL    HW116567  14.656  14.776  12.238
 4890SOL    HW216568  14.741  14.734  12.357
 4891SOL     OW16569  10.076   0.820   1.122
 4891SOL    HW116570  10.089   0.914   1.134
 4891SOL    HW216571   9.990   0.802   1.159
 4892SOL     OW16572   8.498   7.840  12.806
 4892SOL    HW116573   8.570   7.780  12.825
 4892SOL    HW216574   8.420   7.796  12.841
 4893SOL     OW16575   9.742   6.633  10.657
 4893SOL    HW116576   9.674   6.572  10.627
 4893SOL    HW216577   9.695   6.697  10.710
 4894SOL     OW16578   2.474  12.985   9.535
 4894SOL    HW116579   2.560  13.025   9.546
 4894SOL    HW216580   2.442  12.971   9.624
 4895SOL     OW16581   2.183   7.424   7.931
 4895SOL    HW116582   2.253   7.361   7.947
 4895SOL    HW216583   2.222   7.509   7.951
 4896SOL     OW16584   5.568   2.120   6.825
 4896SOL    HW116585   5.552   2.098   6.917
 4896SOL    HW216586   5.509   2.194   6.808
 4897SOL     OW16587   2.486   5.857   5.186
 4897SOL    HW116588   2.513   5.909   5.110
 4897SOL    HW216589   2.511   5.910   5.261
 4898SOL     OW16590   9.770   8.708   1.262
 4898SOL    HW116591   9.771   8.800   1.235
 4898SOL    HW216592   9.756   8.659   1.180
 4899SOL     OW16593  10.192   8.438  13.554
 4899SOL    HW116594  10.262   8.373  13.553
 4899SOL    HW216595  10.213   8.495  13.629
 4900SOL     OW16596   9.555   6.026   9.646
 4900SOL    HW116597   9.553   5.944   9.696
 4900SOL    HW216598   9.637   6.068   9.672
 4901SOL     OW16599  10.273   2.781   4.098
 4901SOL    HW116600  10.228   2.842   4.156
 4901SOL    HW216601  10.235   2.799   4.011
 4902SOL     OW16602   2.143   2.105   9.355
 4902SOL    HW116603   2.053   2.131   9.340
 4902SOL    HW216604   2.189   2.132   9.276
 4903SOL     OW16605   4.939  11.671   0.359
 4903SOL    HW116606   4.933  11.641   0.449
 4903SOL    HW216607   5.008  11.737   0.360
 4904SOL     OW16608   2.261   2.496  11.244
 4904SOL    HW116609   2.169   2.477  11.263
 4904SOL    HW216610   2.263   2.511  11.149
 4905SOL     OW16611  10.290   0.003   0.012
 4905SOL    HW116612  10.340  14.876   0.093
 4905SOL    HW216613  10.340   0.064  14.840
 4906SOL     OW16614   9.299  10.153  11.931
 4906SOL    HW116615   9.357  10.097  11.880
 4906SOL    HW216616   9.289  10.232  11.877
 4907SOL     OW16617   7.384   4.574  12.706
 4907SOL    HW116618   7.461   4.549  12.653
 4907SOL    HW216619   7.418   4.579  12.795
 4908SOL     OW16620   2.906  11.918   7.100
 4908SOL    HW116621   2.982  11.929   7.157
 4908SOL    HW216622   2.932  11.850   7.038
 4909SOL     OW16623  13.651  13.475  12.528
 4909SOL    HW116624  13.604  13.457  12.447
 4909SOL    HW216625  13.583  13.493  12.592
 4910SOL     OW16626   4.752   0.378  10.634
 4910SOL    HW116627   4.703   0.368  10.552
 4910SOL    HW216628   4.735   0.298  10.682
 4911SOL     OW16629   9.292   4.694  12.051
 4911SOL    HW116630   9.382   4.725  12.063
 4911SOL    HW216631   9.302   4.605  12.016
 4912SOL     OW16632   0.414   4.119   2.564
 4912SOL    HW116633   0.398   4.206   2.527
 4912SOL    HW216634   0.508   4.118   2.583
 4913SOL     OW16635   7.582   0.927   1.723
 4913SOL    HW116636   7.668   0.945   1.684
 4913SOL    HW216637   7.524   0.994   1.686
 4914SOL     OW16638   0.974  10.369   4.958
 4914SOL    HW116639   0.954  10.338   5.046
 4914SOL    HW216640   1.006  10.458   4.970
 4915SOL     OW16641   8.081   6.693   0.064
 4915SOL    HW116642   8.137   6.757   0.021
 4915SOL    HW216643   7.999   6.695   0.015
 4916SOL     OW16644  11.987   0.705   8.698
 4916SOL    HW116645  12.046   0.634   8.726
 4916SOL    HW216646  12.037   0.750   8.629
 4917SOL     OW16647  13.839   8.871   7.692
 4917SOL    HW116648  13.836   8.931   7.617
 4917SOL    HW216649  13.747   8.852   7.711
 4918SOL     OW16650  11.634   1.523   4.560
 4918SOL    HW116651  11.539   1.525   4.569
 4918SOL    HW216652  11.664   1.601   4.606
 4919SOL     OW16653   2.192   2.706   4.571
 4919SOL    HW116654   2.257   2.649   4.531
 4919SOL    HW216655   2.122   2.647   4.600
 4920SOL     OW16656   3.165   0.854   5.208
 4920SOL    HW116657   3.228   0.789   5.240
 4920SOL    HW216658   3.082   0.830   5.247
 4921SOL     OW16659  12.144   4.313  13.396
 4921SOL    HW116660  12.120   4.347  13.482
 4921SOL    HW216661  12.115   4.380  13.334
 4922SOL     OW16662   2.507  10.259   6.636
 4922SOL    HW116663   2.413  10.280   6.631
 4922SOL    HW216664   2.549  10.343   6.654
 4923SOL     OW16665  14.416   6.832   3.518
 4923SOL    HW116666  14.438   6.915   3.562
 4923SOL    HW216667  14.428   6.851   3.425
 4924SOL     OW16668  10.477   7.788   4.061
 4924SOL    HW116669  10.460   7.837   4.142
 4924SOL    HW216670  10.566   7.816   4.035
 4925SOL     OW16671  14.148   2.132   1.080
 4925SOL    HW116672  14.069   2.078   1.085
 4925SOL    HW216673  14.117   2.222   1.091
 4926SOL     OW16674   9.943   1.299   7.494
 4926SOL    HW116675   9.951   1.313   7.588
 4926SOL    HW216676   9.849   1.301   7.477
 4927SOL     OW16677  12.299   5.894  12.689
 4927SOL    HW116678  12.244   5.968  12.661
 4927SOL    HW216679  12.387   5.932  12.696
 4928SOL     OW16680  11.371  10.334   9.812
 4928SOL    HW116681  11.309  10.372   9.749
 4928SOL    HW216682  11.457  10.351   9.774
 4929SOL     OW16683   1.822   0.735   8.923
 4929SOL    HW116684   1.745   0.722   8.869
 4929SOL    HW216685   1.895   0.742   8.861
 4930SOL     OW16686   1.120  10.833  12.457
 4930SOL    HW116687   1.051  10.871  12.401
 4930SOL    HW216688   1.198  10.834  12.402
 4931SOL     OW16689  10.412   8.265  13.001
 4931SOL    HW116690  10.457   8.346  13.026
 4931SOL    HW216691  10.422   8.208  13.077
 4932SOL     OW16692  12.275   5.888   5.844
 4932SOL    HW116693  12.230   5.819   5.795
 4932SOL    HW216694  12.308   5.844   5.922
 4933SOL     OW16695   6.889   5.582   3.870
 4933SOL    HW116696   6.906   5.490   3.852
 4933SOL    HW216697   6.924   5.629   3.794
 4934SOL     OW16698   5.930   1.359   3.486
 4934SOL    HW116699   5.882   1.307   3.421
 4934SOL    HW216700   5.920   1.449   3.457
 4935SOL     OW16701   5.878   7.941   8.773
 4935SOL    HW116702   5.805   7.992   8.807
 4935SOL    HW216703   5.836   7.864   8.733
 4936SOL     OW16704  13.881  14.060   8.202
 4936SOL    HW116705  13.898  14.000   8.130
 4936SOL    HW216706  13.796  14.033   8.237
 4937SOL     OW16707   7.835   8.117   6.601
 4937SOL    HW116708   7.906   8.053   6.596
 4937SOL    HW216709   7.824   8.133   6.695
 4938SOL     OW16710  13.668   7.943   3.677
 4938SOL    HW116711  13.624   8.023   3.706
 4938SOL    HW216712  13.759   7.953   3.707
 4939SOL     OW16713  10.559   0.106  12.091
 4939SOL    HW116714  10.621   0.060  12.147
 4939SOL    HW216715  10.485   0.046  12.082
 4940SOL     OW16716   6.509  14.166   4.242
 4940SOL    HW116717   6.528  14.234   4.307
 4940SOL    HW216718   6.554  14.088   4.275
 4941SOL     OW16719   9.894   7.638   6.324
 4941SOL    HW116720   9.870   7.547   6.313
 4941SOL    HW216721   9.819   7.687   6.292
 4942SOL     OW16722  14.006   8.842   1.557
 4942SOL    HW116723  13.939   8.790   1.511
 4942SOL    HW216724  14.065   8.872   1.488
 4943SOL     OW16725   9.112   1.810   8.115
 4943SOL    HW116726   9.126   1.754   8.038
 4943SOL    HW216727   9.195   1.806   8.163
 4944SOL     OW16728   5.046   5.265   1.397
 4944SOL    HW116729   5.113   5.212   1.441
 4944SOL    HW216730   5.027   5.336   1.459
 4945SOL     OW16731   2.866   9.887   7.219
 4945SOL    HW116732   2.870   9.870   7.125
 4945SOL    HW216733   2.872   9.801   7.260
 4946SOL     OW16734   7.532   3.321   8.031
 4946SOL    HW116735   7.601   3.276   7.982
 4946SOL    HW216736   7.573   3.343   8.115
 4947SOL     OW16737  12.518   2.707   7.248
 4947SOL    HW116738  12.452   2.733   7.184
 4947SOL    HW216739  12.537   2.615   7.227
 4948SOL     OW16740   0.109  10.131   6.094
 4948SOL    HW116741   0.020  10.101   6.076
 4948SOL    HW216742   0.161  10.098   6.021
 4949SOL     OW16743  12.347  14.480   5.646
 4949SOL    HW116744  12.318  14.451   5.732
 4949SOL    HW216745  12.440  14.501   5.656
 4950SOL     OW16746  10.875   2.306   7.376
 4950SOL    HW116747  10.937   2.254   7.426
 4950SOL    HW216748  10.829   2.243   7.322
 4951SOL     OW16749   5.536   6.416  14.242
 4951SOL    HW116750   5.532   6.510  14.261
 4951SOL    HW216751   5.471   6.377  14.300
 4952SOL     OW16752   8.528  14.864   6.332
 4952SOL    HW116753   8.440   0.019   6.336
 4952SOL    HW216754   8.572   0.014   6.410
 4953SOL     OW16755   2.871  11.409   4.367
 4953SOL    HW116756   2.928  11.474   4.323
 4953SOL    HW216757   2.861  11.443   4.456
 4954SOL     OW16758  10.601   0.231  13.329
 4954SOL    HW116759  10.548   0.311  13.334
 4954SOL    HW216760  10.551   0.166  13.377
 4955SOL     OW16761   7.563  11.856   3.355
 4955SOL    HW116762   7.573  11.794   3.282
 4955SOL    HW216763   7.625  11.826   3.421
 4956SOL     OW16764  14.210   6.814   2.820
 4956SOL    HW116765  14.138   6.751   2.823
 4956SOL    HW216766  14.168   6.899   2.835
 4957SOL     OW16767  13.345   1.939  12.332
 4957SOL    HW116768  13.289   1.886  12.389
 4957SOL    HW216769  13.355   2.021  12.379
 4958SOL     OW16770  13.492   1.084   8.787
 4958SOL    HW116771  13.557   1.084   8.858
 4958SOL    HW216772  13.544   1.067   8.708
 4959SOL     OW16773  10.050   8.137   2.559
 4959SOL    HW116774  10.081   8.154   2.648
 4959SOL    HW216775  10.018   8.222   2.528
 4960SOL     OW16776   2.166   3.009   2.817
 4960SOL    HW116777   2.074   3.032   2.818
 4960SOL    HW216778   2.181   2.969   2.731
 4961SOL     OW16779   3.405   8.459   2.568
 4961SOL    HW116780   3.402   8.552   2.549
 4961SOL    HW216781   3.478   8.450   2.630
 4962SOL     OW16782  14.861   5.436  12.110
 4962SOL    HW116783  14.809   5.391  12.178
 4962SOL    HW216784  14.801   5.503  12.075
 4963SOL     OW16785   6.967   6.591   0.895
 4963SOL    HW116786   6.970   6.670   0.842
 4963SOL    HW216787   6.996   6.521   0.837
 4964SOL     OW16788   9.660   5.546  10.725
 4964SOL    HW116789   9.607   5.615  10.685
 4964SOL    HW216790   9.601   5.505  10.788
 4965SOL     OW16791   5.781  14.204   8.669
 4965SOL    HW116792   5.829  14.202   8.587
 4965SOL    HW216793   5.848  14.195   8.737
 4966SOL     OW16794   5.312   8.436   0.268
 4966SOL    HW116795   5.322   8.507   0.205
 4966SOL    HW216796   5.313   8.480   0.353
 4967SOL     OW16797   8.799   7.899  13.287
 4967SOL    HW116798   8.739   7.835  13.327
 4967SOL    HW216799   8.746   7.943  13.220
 4968SOL     OW16800  11.670   1.393  13.907
 4968SOL    HW116801  11.699   1.480  13.932
 4968SOL    HW216802  11.621   1.361  13.983
 4969SOL     OW16803   8.422   6.707  10.057
 4969SOL    HW116804   8.380   6.787  10.086
 4969SOL    HW216805   8.350   6.651  10.027
 4970SOL     OW16806   8.795   6.384   2.629
 4970SOL    HW116807   8.796   6.421   2.540
 4970SOL    HW216808   8.740   6.444   2.679
 4971SOL     OW16809  10.034  13.746   4.839
 4971SOL    HW116810  10.117  13.793   4.840
 4971SOL    HW216811  10.023  13.719   4.747
 4972SOL     OW16812   5.948   2.179   1.584
 4972SOL    HW116813   5.994   2.186   1.668
 4972SOL    HW216814   6.016   2.163   1.520
 4973SOL     OW16815   1.014  11.483   0.855
 4973SOL    HW116816   1.029  11.432   0.776
 4973SOL    HW216817   1.048  11.428   0.926
 4974SOL     OW16818  13.751   0.624   7.061
 4974SOL    HW116819  13.803   0.583   7.130
 4974SOL    HW216820  13.777   0.578   6.981
 4975SOL     OW16821  13.145   5.333   1.366
 4975SOL    HW116822  13.168   5.346   1.457
 4975SOL    HW216823  13.144   5.238   1.354
 4976SOL     OW16824   3.227  11.426   4.511
 4976SOL    HW116825   3.171  11.407   4.586
 4976SOL    HW216826   3.249  11.519   4.521
 4977SOL     OW16827   5.850  11.601   1.792
 4977SOL    HW116828   5.837  11.630   1.882
 4977SOL    HW216829   5.807  11.668   1.739
 4978SOL     OW16830   1.553   9.487   9.374
 4978SOL    HW116831   1.620   9.514   9.311
 4978SOL    HW216832   1.485   9.553   9.367
 4979SOL     OW16833  13.211   8.971   9.731
 4979SOL    HW116834  13.132   9.017   9.701
 4979SOL    HW216835  13.248   9.027   9.799
 4980SOL     OW16836  14.646   8.150   4.041
 4980SOL    HW116837  14.677   8.196   3.963
 4980SOL    HW216838  14.632   8.219   4.106
 4981SOL     OW16839  12.889   5.593   1.127
 4981SOL    HW116840  12.814   5.649   1.147
 4981SOL    HW216841  12.900   5.539   1.206
 4982SOL     OW16842   6.786  12.768   1.298
 4982SOL    HW116843   6.726  12.722   1.356
 4982SOL    HW216844   6.872  12.756   1.338
 4983SOL     OW16845   5.873  13.033   2.886
 4983SOL    HW116846   5.818  13.032   2.964
 4983SOL    HW216847   5.954  13.075   2.914
 4984SOL     OW16848   9.289  11.955   6.433
 4984SOL    HW116849   9.295  11.931   6.341
 4984SOL    HW216850   9.235  12.034   6.434
 4985SOL     OW16851   3.446   8.961  10.507
 4985SOL    HW116852   3.538   8.984  10.508
 4985SOL    HW216853   3.400   9.044  10.523
 4986SOL     OW16854   5.409   3.711   5.173
 4986SOL    HW116855   5.383   3.781   5.234
 4986SOL    HW216856   5.367   3.735   5.091
 4987SOL     OW16857   4.565  12.012   1.008
 4987SOL    HW116858   4.652  11.998   1.044
 4987SOL    HW216859   4.567  11.970   0.922
 4988SOL     OW16860   5.293   6.115   8.485
 4988SOL    HW116861   5.353   6.071   8.424
 4988SOL    HW216862   5.338   6.196   8.508
 4989SOL     OW16863   3.713   2.197   2.644
 4989SOL    HW116864   3.792   2.251   2.639
 4989SOL    HW216865   3.677   2.215   2.731
 4990SOL     OW16866   3.913  11.586   0.045
 4990SOL    HW116867   3.871  11.665   0.010
 4990SOL    HW216868   3.887  11.584   0.137
 4991SOL     OW16869   1.942   0.999  13.611
 4991SOL    HW116870   1.930   1.076  13.555
 4991SOL    HW216871   1.905   1.025  13.695
 4992SOL     OW16872   1.064   8.289   3.805
 4992SOL    HW116873   1.070   8.383   3.823
 4992SOL    HW216874   1.044   8.284   3.712
 4993SOL     OW16875   6.591   5.170   1.829
 4993SOL    HW116876   6.576   5.232   1.757
 4993SOL    HW216877   6.526   5.101   1.815
 4994SOL     OW16878   4.325   8.622   6.318
 4994SOL    HW116879   4.347   8.532   6.341
 4994SOL    HW216880   4.381   8.676   6.374
 4995SOL     OW16881  14.844   4.744  11.966
 4995SOL    HW116882  14.871   4.803  12.036
 4995SOL    HW216883  14.775   4.792  11.919
 4996SOL     OW16884  10.799   3.301  12.219
 4996SOL    HW116885  10.819   3.215  12.257
 4996SOL    HW216886  10.755   3.281  12.136
 4997SOL     OW16887   4.500   1.054   3.530
 4997SOL    HW116888   4.539   0.972   3.560
 4997SOL    HW216889   4.534   1.120   3.591
 4998SOL     OW16890   5.104   9.924  13.158
 4998SOL    HW116891   5.128   9.842  13.114
 4998SOL    HW216892   5.023   9.951  13.115
 4999SOL     OW16893  13.138   1.813  11.684
 4999SOL    HW116894  13.124   1.828  11.591
 4999SOL    HW216895  13.099   1.889  11.727
 5000SOL     OW16896  14.575   9.923   8.168
 5000SOL    HW116897  14.528   9.887   8.243
 5000SOL    HW216898  14.662   9.945   8.202
 5001SOL     OW16899   1.919  12.642  10.549
 5001SOL    HW116900   1.893  12.732  10.571
 5001SOL    HW216901   1.951  12.606  10.631
 5002SOL     OW16902   4.365   7.764   2.556
 5002SOL    HW116903   4.322   7.695   2.606
 5002SOL    HW216904   4.332   7.752   2.467
 5003SOL     OW16905  14.723  12.917   7.523
 5003SOL    HW116906  14.763  12.977   7.459
 5003SOL    HW216907  14.734  12.830   7.485
 5004SOL     OW16908   2.692   7.965  11.802
 5004SOL    HW116909   2.762   7.900  11.810
 5004SOL    HW216910   2.738   8.049  11.805
 5005SOL     OW16911   7.643  12.438   3.692
 5005SOL    HW116912   7.599  12.521   3.675
 5005SOL    HW216913   7.713  12.459   3.754
 5006SOL     OW16914   5.774  14.881   5.098
 5006SOL    HW116915   5.782   0.094   5.109
 5006SOL    HW216916   5.826  14.843   5.168
 5007SOL     OW16917   2.059   0.696   3.231
 5007SOL    HW116918   1.985   0.654   3.187
 5007SOL    HW216919   2.084   0.635   3.300
 5008SOL     OW16920   1.799   0.141  12.071
 5008SOL    HW116921   1.852   0.123  11.993
 5008SOL    HW216922   1.819   0.069  12.131
 5009SOL     OW16923   1.717   5.051   0.105
 5009SOL    HW116924   1.631   5.046   0.148
 5009SOL    HW216925   1.760   5.126   0.146
 5010SOL     OW16926   6.507  10.267   5.096
 5010SOL    HW116927   6.460  10.344   5.066
 5010SOL    HW216928   6.506  10.208   5.021
 5011SOL     OW16929  14.109   5.710   7.356
 5011SOL    HW116930  14.166   5.751   7.422
 5011SOL    HW216931  14.056   5.783   7.323
 5012SOL     OW16932  10.763   7.790   9.994
 5012SOL    HW116933  10.738   7.881   9.983
 5012SOL    HW216934  10.789   7.783  10.086
 5013SOL     OW16935   2.390   6.864  14.328
 5013SOL    HW116936   2.320   6.918  14.364
 5013SOL    HW216937   2.464   6.876  14.387
 5014SOL     OW16938   9.847  10.607   1.712
 5014SOL    HW116939   9.870  10.514   1.716
 5014SOL    HW216940   9.902  10.648   1.779
 5015SOL     OW16941  13.875   7.533  13.061
 5015SOL    HW116942  13.944   7.585  13.020
 5015SOL    HW216943  13.912   7.445  13.066
 5016SOL     OW16944   5.657  14.506  12.100
 5016SOL    HW116945   5.602  14.581  12.124
 5016SOL    HW216946   5.745  14.542  12.094
 5017SOL     OW16947   4.604   8.136   9.268
 5017SOL    HW116948   4.527   8.186   9.293
 5017SOL    HW216949   4.570   8.065   9.214
 5018SOL     OW16950   8.032   1.826   0.046
 5018SOL    HW116951   7.958   1.781   0.003
 5018SOL    HW216952   8.022   1.917   0.020
 5019SOL     OW16953  13.066  14.336   6.362
 5019SOL    HW116954  13.031  14.403   6.420
 5019SOL    HW216955  13.161  14.337   6.378
 5020SOL     OW16956   1.907  13.917   0.576
 5020SOL    HW116957   1.989  13.881   0.542
 5020SOL    HW216958   1.868  13.844   0.625
 5021SOL     OW16959   3.672   7.114   0.640
 5021SOL    HW116960   3.585   7.075   0.624
 5021SOL    HW216961   3.724   7.041   0.674
 5022SOL     OW16962  14.247   4.128  11.047
 5022SOL    HW116963  14.270   4.198  11.108
 5022SOL    HW216964  14.326   4.074  11.043
 5023SOL     OW16965   3.133   0.095  13.266
 5023SOL    HW116966   3.174   0.018  13.306
 5023SOL    HW216967   3.121   0.156  13.339
 5024SOL     OW16968   7.627   2.558   5.563
 5024SOL    HW116969   7.695   2.544   5.498
 5024SOL    HW216970   7.584   2.473   5.571
 5025SOL     OW16971   5.492  11.499  11.845
 5025SOL    HW116972   5.464  11.413  11.814
 5025SOL    HW216973   5.519  11.484  11.936
 5026SOL     OW16974  10.385   9.386   5.781
 5026SOL    HW116975  10.420   9.441   5.851
 5026SOL    HW216976  10.322   9.329   5.825
 5027SOL     OW16977   8.664   1.496   8.779
 5027SOL    HW116978   8.637   1.420   8.831
 5027SOL    HW216979   8.759   1.501   8.792
 5028SOL     OW16980   6.222   3.834  10.561
 5028SOL    HW116981   6.296   3.894  10.570
 5028SOL    HW216982   6.222   3.809  10.469
 5029SOL     OW16983  12.363   3.095  11.439
 5029SOL    HW116984  12.458   3.087  11.446
 5029SOL    HW216985  12.348   3.187  11.417
 5030SOL     OW16986   8.661  11.045  14.227
 5030SOL    HW116987   8.672  11.071  14.319
 5030SOL    HW216988   8.730  10.981  14.212
 5031SOL     OW16989   0.856   2.279   7.836
 5031SOL    HW116990   0.866   2.237   7.751
 5031SOL    HW216991   0.776   2.330   7.829
 5032SOL     OW16992   7.201   8.971   3.439
 5032SOL    HW116993   7.137   9.011   3.498
 5032SOL    HW216994   7.232   8.893   3.486
 5033SOL     OW16995   5.120   9.875   0.923
 5033SOL    HW116996   5.163   9.833   0.848
 5033SOL    HW216997   5.180   9.861   0.996
 5034SOL     OW16998   5.821   4.861   2.682
 5034SOL    HW116999   5.804   4.792   2.746
 5034SOL    HW217000   5.792   4.942   2.725
 5035SOL     OW17001  10.566   4.432   7.449
 5035SOL    HW117002  10.609   4.504   7.404
 5035SOL    HW217003  10.554   4.365   7.382
 5036SOL     OW17004   3.901   1.193   2.736
 5036SOL    HW117005   3.989   1.213   2.704
 5036SOL    HW217006   3.887   1.255   2.808
 5037SOL     OW17007  14.184   0.354   3.592
 5037SOL    HW117008  14.112   0.307   3.634
 5037SOL    HW217009  14.256   0.349   3.655
 5038SOL     OW17010   2.136  14.578  11.196
 5038SOL    HW117011   2.192  14.501  11.202
 5038SOL    HW217012   2.191  14.644  11.153
 5039SOL     OW17013   7.330   4.236  12.205
 5039SOL    HW117014   7.333   4.332  12.207
 5039SOL    HW217015   7.237   4.214  12.205
 5040SOL     OW17016   4.762   3.050  12.452
 5040SOL    HW117017   4.674   3.061  12.489
 5040SOL    HW217018   4.810   3.004  12.520
 5041SOL     OW17019   3.690   3.791   1.474
 5041SOL    HW117020   3.765   3.836   1.436
 5041SOL    HW217021   3.683   3.826   1.563
 5042SOL     OW17022   0.875   4.402   9.514
 5042SOL    HW117023   0.939   4.455   9.562
 5042SOL    HW217024   0.857   4.453   9.435
 5043SOL     OW17025   2.154   6.789   2.850
 5043SOL    HW117026   2.175   6.864   2.794
 5043SOL    HW217027   2.092   6.824   2.914
 5044SOL     OW17028   0.887  11.803   4.265
 5044SOL    HW117029   0.882  11.828   4.173
 5044SOL    HW217030   0.962  11.743   4.270
 5045SOL     OW17031   1.089   3.074   4.850
 5045SOL    HW117032   1.152   3.010   4.883
 5045SOL    HW217033   1.021   3.079   4.919
 5046SOL     OW17034   6.765   8.467   9.927
 5046SOL    HW117035   6.832   8.412   9.888
 5046SOL    HW217036   6.710   8.408   9.978
 5047SOL     OW17037   9.042   3.935   5.524
 5047SOL    HW117038   9.055   3.944   5.618
 5047SOL    HW217039   8.949   3.955   5.511
 5048SOL     OW17040   1.580  12.394   2.521
 5048SOL    HW117041   1.600  12.399   2.614
 5048SOL    HW217042   1.485  12.393   2.516
 5049SOL     OW17043   4.592   3.380  14.685
 5049SOL    HW117044   4.560   3.291  14.667
 5049SOL    HW217045   4.687   3.374  14.676
 5050SOL     OW17046   9.801  12.183  11.368
 5050SOL    HW117047   9.749  12.194  11.289
 5050SOL    HW217048   9.833  12.271  11.389
 5051SOL     OW17049   0.105   6.552   9.999
 5051SOL    HW117050   0.158   6.549   9.920
 5051SOL    HW217051   0.020   6.587   9.970
 5052SOL     OW17052   9.047  11.604   5.382
 5052SOL    HW117053   9.078  11.561   5.302
 5052SOL    HW217054   8.992  11.676   5.351
 5053SOL     OW17055   5.017   6.581   5.888
 5053SOL    HW117056   5.053   6.643   5.951
 5053SOL    HW217057   5.093   6.531   5.858
 5054SOL     OW17058   5.275   2.482   9.605
 5054SOL    HW117059   5.245   2.485   9.696
 5054SOL    HW217060   5.201   2.443   9.557
 5055SOL     OW17061  13.437   7.798   9.710
 5055SOL    HW117062  13.436   7.706   9.685
 5055SOL    HW217063  13.377   7.840   9.648
 5056SOL     OW17064   2.483   9.867  11.957
 5056SOL    HW117065   2.527   9.921  12.023
 5056SOL    HW217066   2.407   9.919  11.932
 5057SOL     OW17067  11.204   4.421   9.380
 5057SOL    HW117068  11.130   4.443   9.323
 5057SOL    HW217069  11.234   4.506   9.414
 5058SOL     OW17070  10.834  10.678   0.186
 5058SOL    HW117071  10.747  10.669   0.226
 5058SOL    HW217072  10.819  10.731   0.108
 5059SOL     OW17073   8.788  13.370   9.169
 5059SOL    HW117074   8.876  13.368   9.206
 5059SOL    HW217075   8.765  13.277   9.156
 5060SOL     OW17076  12.452   0.272  10.135
 5060SOL    HW117077  12.387   0.211  10.100
 5060SOL    HW217078  12.424   0.288  10.225
 5061SOL     OW17079   1.495   6.220  11.439
 5061SOL    HW117080   1.576   6.235  11.488
 5061SOL    HW217081   1.426   6.253  11.497
 5062SOL     OW17082   0.996   0.642   1.518
 5062SOL    HW117083   1.088   0.640   1.492
 5062SOL    HW217084   0.996   0.612   1.609
 5063SOL     OW17085  11.558   8.692  14.414
 5063SOL    HW117086  11.508   8.655  14.342
 5063SOL    HW217087  11.625   8.626  14.433
 5064SOL     OW17088  10.450  10.438  13.301
 5064SOL    HW117089  10.491  10.353  13.320
 5064SOL    HW217090  10.502  10.473  13.228
 5065SOL     OW17091  13.962  13.780   5.575
 5065SOL    HW117092  13.977  13.702   5.629
 5065SOL    HW217093  13.893  13.754   5.515
 5066SOL     OW17094   7.747   7.280   5.963
 5066SOL    HW117095   7.817   7.272   6.027
 5066SOL    HW217096   7.675   7.228   5.999
 5067SOL     OW17097   3.482   6.130  14.659
 5067SOL    HW117098   3.503   6.079  14.737
 5067SOL    HW217099   3.387   6.136  14.659
 5068SOL     OW17100   3.564   6.995   8.850
 5068SOL    HW117101   3.545   7.004   8.757
 5068SOL    HW217102   3.625   6.921   8.855
 5069SOL     OW17103   9.854   3.997  12.584
 5069SOL    HW117104   9.848   4.069  12.520
 5069SOL    HW217105   9.827   3.920  12.535
 5070SOL     OW17106  10.488   4.592   2.615
 5070SOL    HW117107  10.465   4.594   2.522
 5070SOL    HW217108  10.578   4.625   2.618
 5071SOL     OW17109   1.152   9.708   6.038
 5071SOL    HW117110   1.171   9.619   6.069
 5071SOL    HW217111   1.131   9.697   5.945
 5072SOL     OW17112   6.337   5.981  10.899
 5072SOL    HW117113   6.261   5.926  10.919
 5072SOL    HW217114   6.300   6.067  10.881
 5073SOL     OW17115  12.747   0.265   4.841
 5073SOL    HW117116  12.786   0.187   4.801
 5073SOL    HW217117  12.782   0.267   4.930
 5074SOL     OW17118  12.404  14.742   9.039
 5074SOL    HW117119  12.440  14.822   9.076
 5074SOL    HW217120  12.458  14.672   9.077
 5075SOL     OW17121   8.065   0.537   0.783
 5075SOL    HW117122   7.997   0.570   0.725
 5075SOL    HW217123   8.146   0.544   0.731
 5076SOL     OW17124   6.437   6.253   6.418
 5076SOL    HW117125   6.502   6.294   6.475
 5076SOL    HW217126   6.369   6.221   6.478
 5077SOL     OW17127   1.184   9.636   4.138
 5077SOL    HW117128   1.261   9.625   4.194
 5077SOL    HW217129   1.217   9.685   4.062
 5078SOL     OW17130   9.834  13.918   3.786
 5078SOL    HW117131   9.812  13.841   3.838
 5078SOL    HW217132   9.922  13.942   3.815
 5079SOL     OW17133   3.829   2.312   9.812
 5079SOL    HW117134   3.854   2.340   9.724
 5079SOL    HW217135   3.765   2.243   9.799
 5080SOL     OW17136   1.462   8.825   5.498
 5080SOL    HW117137   1.376   8.785   5.509
 5080SOL    HW217138   1.516   8.784   5.566
 5081SOL     OW17139  12.160  11.986   6.844
 5081SOL    HW117140  12.171  11.900   6.804
 5081SOL    HW217141  12.132  12.043   6.771
 5082SOL     OW17142  14.383   3.192   8.339
 5082SOL    HW117143  14.381   3.272   8.286
 5082SOL    HW217144  14.305   3.198   8.395
 5083SOL     OW17145   8.757  14.043  14.556
 5083SOL    HW117146   8.809  14.007  14.628
 5083SOL    HW217147   8.743  14.135  14.581
 5084SOL     OW17148  11.235   0.685   3.601
 5084SOL    HW117149  11.148   0.709   3.633
 5084SOL    HW217150  11.290   0.685   3.679
 5085SOL     OW17151   5.263   0.263  13.992
 5085SOL    HW117152   5.334   0.326  13.999
 5085SOL    HW217153   5.250   0.231  14.081
 5086SOL     OW17154   5.084   5.103   7.127
 5086SOL    HW117155   5.053   5.146   7.207
 5086SOL    HW217156   5.149   5.163   7.092
 5087SOL     OW17157   1.745  11.037   4.355
 5087SOL    HW117158   1.754  11.126   4.389
 5087SOL    HW217159   1.818  10.989   4.393
 5088SOL     OW17160  14.535   4.175  11.802
 5088SOL    HW117161  14.527   4.254  11.854
 5088SOL    HW217162  14.485   4.194  11.722
 5089SOL     OW17163   6.877  14.234  10.398
 5089SOL    HW117164   6.793  14.273  10.420
 5089SOL    HW217165   6.931  14.247  10.475
 5090SOL     OW17166   5.316  13.392   9.694
 5090SOL    HW117167   5.267  13.470   9.668
 5090SOL    HW217168   5.313  13.335   9.617
 5091SOL     OW17169   2.545   2.688   1.052
 5091SOL    HW117170   2.490   2.760   1.020
 5091SOL    HW217171   2.635   2.721   1.043
 5092SOL     OW17172  14.682   0.422  11.216
 5092SOL    HW117173  14.637   0.435  11.132
 5092SOL    HW217174  14.685   0.509  11.255
 5093SOL     OW17175   3.972  14.729  13.646
 5093SOL    HW117176   4.057  14.700  13.680
 5093SOL    HW217177   3.991  14.759  13.558
 5094SOL     OW17178   6.930  12.627  14.361
 5094SOL    HW117179   6.967  12.688  14.425
 5094SOL    HW217180   6.840  12.614  14.390
 5095SOL     OW17181   6.102   5.813   2.093
 5095SOL    HW117182   6.062   5.869   2.159
 5095SOL    HW217183   6.177   5.864   2.061
 5096SOL     OW17184  10.993   5.009  10.508
 5096SOL    HW117185  10.940   4.945  10.459
 5096SOL    HW217186  11.002   5.083  10.449
 5097SOL     OW17187  12.381  10.235   7.410
 5097SOL    HW117188  12.325  10.163   7.379
 5097SOL    HW217189  12.393  10.218   7.503
 5098SOL     OW17190   5.763  12.719  11.903
 5098SOL    HW117191   5.735  12.638  11.859
 5098SOL    HW217192   5.826  12.690  11.969
 5099SOL     OW17193   2.868   9.512   9.650
 5099SOL    HW117194   2.833   9.594   9.685
 5099SOL    HW217195   2.794   9.451   9.651
 5100SOL     OW17196  10.624  10.640   3.359
 5100SOL    HW117197  10.620  10.726   3.401
 5100SOL    HW217198  10.543  10.596   3.386
 5101SOL     OW17199   6.119  10.082   7.886
 5101SOL    HW117200   6.088  10.147   7.950
 5101SOL    HW217201   6.190  10.037   7.931
 5102SOL     OW17202   6.163   6.273   6.840
 5102SOL    HW117203   6.135   6.322   6.763
 5102SOL    HW217204   6.156   6.337   6.912
 5103SOL     OW17205  13.140   6.799   1.955
 5103SOL    HW117206  13.137   6.870   1.890
 5103SOL    HW217207  13.200   6.831   2.022
 5104SOL     OW17208   2.264   3.874   1.322
 5104SOL    HW117209   2.333   3.840   1.378
 5104SOL    HW217210   2.213   3.931   1.380
 5105SOL     OW17211   5.393   0.936   3.539
 5105SOL    HW117212   5.393   0.878   3.463
 5105SOL    HW217213   5.444   0.888   3.605
 5106SOL     OW17214   4.896  11.746   2.010
 5106SOL    HW117215   4.920  11.809   1.943
 5106SOL    HW217216   4.862  11.799   2.082
 5107SOL     OW17217   8.919   9.918   8.769
 5107SOL    HW117218   8.843   9.873   8.806
 5107SOL    HW217219   8.992   9.894   8.827
 5108SOL     OW17220   1.361   1.270   7.981
 5108SOL    HW117221   1.333   1.248   8.070
 5108SOL    HW217222   1.394   1.188   7.946
 5109SOL     OW17223   9.722   7.275   9.910
 5109SOL    HW117224   9.752   7.196   9.865
 5109SOL    HW217225   9.793   7.298   9.970
 5110SOL     OW17226  14.629  14.715  12.030
 5110SOL    HW117227  14.714  14.714  11.987
 5110SOL    HW217228  14.609  14.623  12.048
 5111SOL     OW17229   3.067   6.316  14.604
 5111SOL    HW117230   3.123   6.302  14.680
 5111SOL    HW217231   2.981   6.339  14.640
 5112SOL     OW17232   4.982  10.836   2.535
 5112SOL    HW117233   5.060  10.782   2.524
 5112SOL    HW217234   5.007  10.922   2.501
 5113SOL     OW17235   4.604  10.894   2.364
 5113SOL    HW117236   4.511  10.905   2.380
 5113SOL    HW217237   4.626  10.962   2.300
 5114SOL     OW17238   8.096   3.291   6.892
 5114SOL    HW117239   8.028   3.357   6.903
 5114SOL    HW217240   8.049   3.210   6.875
 5115SOL     OW17241   7.646   7.290   0.697
 5115SOL    HW117242   7.729   7.252   0.727
 5115SOL    HW217243   7.627   7.360   0.760
 5116SOL     OW17244   2.505   4.768   9.207
 5116SOL    HW117245   2.513   4.859   9.180
 5116SOL    HW217246   2.480   4.772   9.299
 5117SOL     OW17247  12.816   9.442  14.865
 5117SOL    HW117248  12.888   9.504  14.874
 5117SOL    HW217249  12.753   9.486  14.808
 5118SOL     OW17250   4.485   8.070   6.726
 5118SOL    HW117251   4.561   8.024   6.691
 5118SOL    HW217252   4.496   8.161   6.698
 5119SOL     OW17253   9.445   6.521  11.836
 5119SOL    HW117254   9.368   6.529  11.892
 5119SOL    HW217255   9.411   6.498  11.750
 5120SOL     OW17256   3.812  13.763  14.762
 5120SOL    HW117257   3.758  13.709  14.704
 5120SOL    HW217258   3.804  13.721  14.848
 5121SOL     OW17259   3.141   4.398  13.112
 5121SOL    HW117260   3.211   4.394  13.047
 5121SOL    HW217261   3.070   4.347  13.073
 5122SOL     OW17262   3.930   9.463   1.738
 5122SOL    HW117263   3.848   9.451   1.688
 5122SOL    HW217264   3.952   9.375   1.769
 5123SOL     OW17265  11.968   7.110   3.593
 5123SOL    HW117266  11.930   7.077   3.674
 5123SOL    HW217267  11.914   7.071   3.524
 5124SOL     OW17268   1.696   4.122  11.497
 5124SOL    HW117269   1.678   4.182  11.425
 5124SOL    HW217270   1.786   4.140  11.522
 5125SOL     OW17271   4.352   0.299  11.293
 5125SOL    HW117272   4.422   0.303  11.228
 5125SOL    HW217273   4.346   0.387  11.328
 5126SOL     OW17274  10.117  14.648   1.488
 5126SOL    HW117275  10.038  14.672   1.439
 5126SOL    HW217276  10.117  14.553   1.489
 5127SOL     OW17277   7.812   0.540  14.022
 5127SOL    HW117278   7.730   0.578  14.051
 5127SOL    HW217279   7.874   0.613  14.024
 5128SOL     OW17280   2.093   7.452   8.737
 5128SOL    HW117281   2.163   7.513   8.758
 5128SOL    HW217282   2.056   7.485   8.655
 5129SOL     OW17283   1.325   8.685   8.688
 5129SOL    HW117284   1.342   8.750   8.757
 5129SOL    HW217285   1.369   8.606   8.719
 5130SOL     OW17286  10.216  10.649   3.865
 5130SOL    HW117287  10.161  10.653   3.944
 5130SOL    HW217288  10.297  10.608   3.894
 5131SOL     OW17289   9.215   3.133   2.578
 5131SOL    HW117290   9.304   3.096   2.586
 5131SOL    HW217291   9.226   3.226   2.596
 5132SOL     OW17292   9.061   6.514   9.428
 5132SOL    HW117293   9.112   6.515   9.509
 5132SOL    HW217294   9.112   6.458   9.369
 5133SOL     OW17295   3.186  10.383  11.341
 5133SOL    HW117296   3.223  10.350  11.259
 5133SOL    HW217297   3.200  10.312  11.404
 5134SOL     OW17298  13.653   5.340  12.703
 5134SOL    HW117299  13.602   5.285  12.762
 5134SOL    HW217300  13.605   5.337  12.620
 5135SOL     OW17301  11.161  11.342   0.421
 5135SOL    HW117302  11.105  11.324   0.497
 5135SOL    HW217303  11.240  11.380   0.458
 5136SOL     OW17304   9.493   5.475   7.549
 5136SOL    HW117305   9.423   5.409   7.551
 5136SOL    HW217306   9.457   5.548   7.500
 5137SOL     OW17307   7.928   5.435  11.963
 5137SOL    HW117308   8.009   5.473  11.929
 5137SOL    HW217309   7.956   5.355  12.008
 5138SOL     OW17310  11.595   9.600  11.047
 5138SOL    HW117311  11.684   9.612  11.081
 5138SOL    HW217312  11.606   9.543  10.971
 5139SOL     OW17313   4.333  13.686  14.192
 5139SOL    HW117314   4.266  13.744  14.157
 5139SOL    HW217315   4.292  13.644  14.268
 5140SOL     OW17316   4.188   5.269   0.041
 5140SOL    HW117317   4.276   5.243   0.065
 5140SOL    HW217318   4.133   5.243   0.115
 5141SOL     OW17319   8.936   9.016   2.531
 5141SOL    HW117320   8.919   8.924   2.509
 5141SOL    HW217321   8.965   9.014   2.622
 5142SOL     OW17322   7.758  14.511   5.238
 5142SOL    HW117323   7.828  14.448   5.223
 5142SOL    HW217324   7.687  14.459   5.276
 5143SOL     OW17325  10.930   5.331   4.523
 5143SOL    HW117326  10.909   5.254   4.470
 5143SOL    HW217327  10.865   5.397   4.497
 5144SOL     OW17328   0.432  11.367   3.445
 5144SOL    HW117329   0.339  11.377   3.463
 5144SOL    HW217330   0.474  11.369   3.531
 5145SOL     OW17331  12.663   7.295   6.630
 5145SOL    HW117332  12.745   7.258   6.663
 5145SOL    HW217333  12.596   7.232   6.657
 5146SOL     OW17334  12.323   7.634   7.594
 5146SOL    HW117335  12.396   7.581   7.562
 5146SOL    HW217336  12.298   7.688   7.518
 5147SOL     OW17337   1.012   6.060   2.009
 5147SOL    HW117338   1.058   6.138   1.976
 5147SOL    HW217339   1.055   6.040   2.092
 5148SOL     OW17340   3.537   7.020  10.134
 5148SOL    HW117341   3.522   6.951  10.070
 5148SOL    HW217342   3.633   7.027  10.139
 5149SOL     OW17343   0.938   7.552   5.771
 5149SOL    HW117344   0.978   7.635   5.745
 5149SOL    HW217345   0.856   7.577   5.813
 5150SOL     OW17346   3.051  13.092   8.828
 5150SOL    HW117347   3.070  13.113   8.737
 5150SOL    HW217348   3.034  13.176   8.870
 5151SOL     OW17349   5.938  13.023   1.699
 5151SOL    HW117350   5.859  12.988   1.741
 5151SOL    HW217351   5.927  13.118   1.703
 5152SOL     OW17352   6.537   3.170  13.166
 5152SOL    HW117353   6.443   3.189  13.167
 5152SOL    HW217354   6.544   3.079  13.194
 5153SOL     OW17355   4.758  14.509  13.083
 5153SOL    HW117356   4.734  14.506  13.175
 5153SOL    HW217357   4.720  14.429  13.046
 5154SOL     OW17358  13.326   8.933  13.442
 5154SOL    HW117359  13.394   8.869  13.466
 5154SOL    HW217360  13.375   9.007  13.405
 5155SOL     OW17361   8.645   7.421   5.972
 5155SOL    HW117362   8.581   7.436   6.042
 5155SOL    HW217363   8.619   7.482   5.903
 5156SOL     OW17364   2.149   6.431  10.304
 5156SOL    HW117365   2.108   6.516  10.289
 5156SOL    HW217366   2.243   6.448  10.301
 5157SOL     OW17367   2.671   9.864  10.643
 5157SOL    HW117368   2.745   9.894  10.590
 5157SOL    HW217369   2.595   9.871  10.585
 5158SOL     OW17370   7.088   4.962   8.956
 5158SOL    HW117371   7.129   4.911   8.885
 5158SOL    HW217372   7.133   5.046   8.954
 5159SOL     OW17373  12.365  13.154   4.466
 5159SOL    HW117374  12.378  13.216   4.395
 5159SOL    HW217375  12.376  13.068   4.426
 5160SOL     OW17376   7.077  14.512   0.081
 5160SOL    HW117377   7.170  14.522   0.057
 5160SOL    HW217378   7.043  14.449   0.018
 5161SOL     OW17379   2.873   4.010  12.044
 5161SOL    HW117380   2.869   3.929  11.994
 5161SOL    HW217381   2.825   4.073  11.990
 5162SOL     OW17382  14.629   5.578  12.870
 5162SOL    HW117383  14.720   5.608  12.867
 5162SOL    HW217384  14.579   5.655  12.899
 5163SOL     OW17385   4.245   9.318   2.798
 5163SOL    HW117386   4.152   9.304   2.778
 5163SOL    HW217387   4.281   9.355   2.717
 5164SOL     OW17388   9.005   0.796   9.912
 5164SOL    HW117389   8.986   0.703   9.898
 5164SOL    HW217390   9.043   0.800  10.000
 5165SOL     OW17391  14.204   5.275  11.098
 5165SOL    HW117392  14.147   5.296  11.172
 5165SOL    HW217393  14.177   5.186  11.072
 5166SOL     OW17394   7.717   1.388  11.744
 5166SOL    HW117395   7.664   1.368  11.821
 5166SOL    HW217396   7.805   1.402  11.778
 5167SOL     OW17397   4.921   5.694  11.480
 5167SOL    HW117398   5.012   5.726  11.485
 5167SOL    HW217399   4.891   5.693  11.570
 5168SOL     OW17400  11.737   2.041   2.196
 5168SOL    HW117401  11.830   2.028   2.180
 5168SOL    HW217402  11.730   2.133   2.221
 5169SOL     OW17403   0.477   3.826   5.834
 5169SOL    HW117404   0.388   3.806   5.804
 5169SOL    HW217405   0.495   3.761   5.902
 5170SOL     OW17406   7.419  10.012  13.120
 5170SOL    HW117407   7.501   9.962  13.121
 5170SOL    HW217408   7.376   9.990  13.203
 5171SOL     OW17409   2.553  13.774  10.942
 5171SOL    HW117410   2.565  13.788  10.848
 5171SOL    HW217411   2.630  13.724  10.970
 5172SOL     OW17412   3.806  10.486  14.454
 5172SOL    HW117413   3.723  10.437  14.453
 5172SOL    HW217414   3.859  10.444  14.387
 5173SOL     OW17415   7.790   6.290   4.214
 5173SOL    HW117416   7.697   6.282   4.192
 5173SOL    HW217417   7.834   6.292   4.129
 5174SOL     OW17418   8.168   6.904   7.839
 5174SOL    HW117419   8.166   6.925   7.745
 5174SOL    HW217420   8.098   6.957   7.877
 5175SOL     OW17421   2.582  13.217   4.552
 5175SOL    HW117422   2.518  13.232   4.482
 5175SOL    HW217423   2.601  13.124   4.548
 5176SOL     OW17424   1.594   0.698   9.979
 5176SOL    HW117425   1.544   0.617   9.992
 5176SOL    HW217426   1.586   0.716   9.886
 5177SOL     OW17427   9.263   0.415   0.951
 5177SOL    HW117428   9.210   0.339   0.972
 5177SOL    HW217429   9.213   0.460   0.882
 5178SOL     OW17430   9.681   4.757   4.257
 5178SOL    HW117431   9.627   4.776   4.181
 5178SOL    HW217432   9.771   4.764   4.224
 5179SOL     OW17433  14.184  12.775   3.536
 5179SOL    HW117434  14.253  12.774   3.469
 5179SOL    HW217435  14.230  12.757   3.618
 5180SOL     OW17436  11.850   0.636   8.333
 5180SOL    HW117437  11.829   0.669   8.420
 5180SOL    HW217438  11.842   0.541   8.341
 5181SOL     OW17439   9.787   6.796   9.257
 5181SOL    HW117440   9.774   6.748   9.175
 5181SOL    HW217441   9.739   6.877   9.244
 5182SOL     OW17442   1.276   0.375  13.369
 5182SOL    HW117443   1.225   0.451  13.398
 5182SOL    HW217444   1.280   0.383  13.274
 5183SOL     OW17445   5.569  10.965   2.469
 5183SOL    HW117446   5.585  11.056   2.446
 5183SOL    HW217447   5.637  10.944   2.534
 5184SOL     OW17448  13.888   6.106   1.575
 5184SOL    HW117449  13.901   6.011   1.571
 5184SOL    HW217450  13.823   6.125   1.507
 5185SOL     OW17451   2.128   3.436   0.795
 5185SOL    HW117452   2.183   3.487   0.854
 5185SOL    HW217453   2.046   3.484   0.791
 5186SOL     OW17454   9.431  12.268  14.738
 5186SOL    HW117455   9.359  12.213  14.706
 5186SOL    HW217456   9.502  12.251  14.677
 5187SOL     OW17457  10.459   4.467  13.699
 5187SOL    HW117458  10.374   4.486  13.739
 5187SOL    HW217459  10.465   4.371  13.699
 5188SOL     OW17460  12.077   9.210   4.918
 5188SOL    HW117461  12.151   9.156   4.946
 5188SOL    HW217462  12.072   9.279   4.984
 5189SOL     OW17463  12.037   2.083   5.401
 5189SOL    HW117464  12.103   2.044   5.343
 5189SOL    HW217465  12.080   2.159   5.439
 5190SOL     OW17466   2.348  14.614   3.140
 5190SOL    HW117467   2.412  14.674   3.101
 5190SOL    HW217468   2.355  14.534   3.087
 5191SOL     OW17469   9.139   8.188   1.823
 5191SOL    HW117470   9.061   8.244   1.829
 5191SOL    HW217471   9.210   8.243   1.857
 5192SOL     OW17472  12.406  11.860   2.604
 5192SOL    HW117473  12.394  11.941   2.654
 5192SOL    HW217474  12.487  11.874   2.555
 5193SOL     OW17475   6.601   7.780   3.544
 5193SOL    HW117476   6.692   7.753   3.555
 5193SOL    HW217477   6.583   7.766   3.451
 5194SOL     OW17478   4.365  13.248  11.725
 5194SOL    HW117479   4.273  13.225  11.713
 5194SOL    HW217480   4.408  13.222  11.644
 5195SOL     OW17481   3.832   1.091   2.418
 5195SOL    HW117482   3.903   1.033   2.444
 5195SOL    HW217483   3.793   1.049   2.341
 5196SOL     OW17484  12.138  10.848  12.859
 5196SOL    HW117485  12.167  10.920  12.914
 5196SOL    HW217486  12.159  10.769  12.909
 5197SOL     OW17487   6.433   1.405   3.391
 5197SOL    HW117488   6.444   1.373   3.301
 5197SOL    HW217489   6.478   1.490   3.391
 5198SOL     OW17490   3.801   4.730   9.931
 5198SOL    HW117491   3.775   4.812   9.888
 5198SOL    HW217492   3.840   4.677   9.862
 5199SOL     OW17493  13.916   1.203   9.349
 5199SOL    HW117494  13.828   1.225   9.318
 5199SOL    HW217495  13.947   1.284   9.391
 5200SOL     OW17496   2.076  12.644  10.314
 5200SOL    HW117497   2.010  12.663  10.248
 5200SOL    HW217498   2.030  12.651  10.397
 5201SOL     OW17499   2.278  11.095   6.412
 5201SOL    HW117500   2.284  11.028   6.344
 5201SOL    HW217501   2.184  11.105   6.428
 5202SOL     OW17502   0.437   5.005   4.240
 5202SOL    HW117503   0.427   5.077   4.302
 5202SOL    HW217504   0.525   4.971   4.257
 5203SOL     OW17505   4.012  11.090  12.338
 5203SOL    HW117506   3.986  11.119  12.426
 5203SOL    HW217507   4.018  11.171  12.287
 5204SOL     OW17508   1.745   0.025  13.404
 5204SOL    HW117509   1.788  14.822  13.418
 5204SOL    HW217510   1.740   0.064  13.492
 5205SOL     OW17511   3.867  12.502   7.616
 5205SOL    HW117512   3.889  12.595   7.620
 5205SOL    HW217513   3.950  12.459   7.596
 5206SOL     OW17514   2.822  13.158   7.456
 5206SOL    HW117515   2.790  13.239   7.416
 5206SOL    HW217516   2.761  13.140   7.527
 5207SOL     OW17517  10.210   9.431   3.282
 5207SOL    HW117518  10.159   9.395   3.210
 5207SOL    HW217519  10.208   9.526   3.268
 5208SOL     OW17520   2.939  12.567   4.276
 5208SOL    HW117521   2.873  12.628   4.244
 5208SOL    HW217522   2.959  12.597   4.364
 5209SOL     OW17523   7.245   6.284  14.745
 5209SOL    HW117524   7.174   6.224  14.723
 5209SOL    HW217525   7.320   6.252  14.695
 5210SOL     OW17526  14.600  14.728   4.084
 5210SOL    HW117527  14.527  14.772   4.041
 5210SOL    HW217528  14.656  14.800   4.114
 5211SOL     OW17529  10.244   0.690   3.162
 5211SOL    HW117530  10.239   0.651   3.250
 5211SOL    HW217531  10.194   0.771   3.169
 5212SOL     OW17532  12.966   7.658  11.867
 5212SOL    HW117533  13.016   7.589  11.822
 5212SOL    HW217534  12.876   7.625  11.868
 5213SOL     OW17535  13.353   9.514  10.887
 5213SOL    HW117536  13.339   9.500  10.981
 5213SOL    HW217537  13.266   9.537  10.853
 5214SOL     OW17538   4.742  14.061   7.094
 5214SOL    HW117539   4.667  14.120   7.089
 5214SOL    HW217540   4.728  13.999   7.022
 5215SOL     OW17541   7.916   0.795  14.056
 5215SOL    HW117542   7.949   0.884  14.071
 5215SOL    HW217543   7.994   0.739  14.061
 5216SOL     OW17544   5.116   1.569   9.667
 5216SOL    HW117545   5.171   1.601   9.595
 5216SOL    HW217546   5.082   1.649   9.707
 5217SOL     OW17547  14.324  12.963   5.933
 5217SOL    HW117548  14.350  12.892   5.991
 5217SOL    HW217549  14.398  12.974   5.873
 5218SOL     OW17550   0.359   3.986   3.035
 5218SOL    HW117551   0.294   4.022   3.095
 5218SOL    HW217552   0.338   3.893   3.030
 5219SOL     OW17553  14.736   9.777   6.568
 5219SOL    HW117554  14.704   9.844   6.629
 5219SOL    HW217555  14.691   9.795   6.486
 5220SOL     OW17556   5.988   4.313   1.050
 5220SOL    HW117557   6.061   4.265   1.088
 5220SOL    HW217558   5.910   4.271   1.087
 5221SOL     OW17559   8.795   4.734   0.153
 5221SOL    HW117560   8.832   4.789   0.083
 5221SOL    HW217561   8.802   4.645   0.119
 5222SOL     OW17562   2.149  13.026   9.629
 5222SOL    HW117563   2.125  13.047   9.720
 5222SOL    HW217564   2.238  12.993   9.635
 5223SOL     OW17565  11.211  10.121  13.576
 5223SOL    HW117566  11.273  10.056  13.543
 5223SOL    HW217567  11.248  10.205  13.550
 5224SOL     OW17568   1.967   0.698  14.087
 5224SOL    HW117569   2.024   0.774  14.093
 5224SOL    HW217570   2.026   0.623  14.083
 5225SOL     OW17571  13.082   5.974  14.745
 5225SOL    HW117572  13.107   5.929  14.826
 5225SOL    HW217573  13.158   6.027  14.723
 5226SOL     OW17574   5.520   1.784   8.039
 5226SOL    HW117575   5.565   1.838   8.104
 5226SOL    HW217576   5.589   1.726   8.005
 5227SOL     OW17577   1.173  14.032   8.598
 5227SOL    HW117578   1.217  14.075   8.525
 5227SOL    HW217579   1.208  13.943   8.599
 5228SOL     OW17580   8.011  11.949  11.552
 5228SOL    HW117581   7.928  11.991  11.576
 5228SOL    HW217582   8.000  11.924  11.460
 5229SOL     OW17583   8.850   7.855  10.960
 5229SOL    HW117584   8.793   7.837  10.884
 5229SOL    HW217585   8.889   7.940  10.941
 5230SOL     OW17586   0.443  10.019  11.291
 5230SOL    HW117587   0.355  10.028  11.329
 5230SOL    HW217588   0.450   9.926  11.270
 5231SOL     OW17589   3.752   9.548   9.481
 5231SOL    HW117590   3.702   9.572   9.403
 5231SOL    HW217591   3.688   9.548   9.552
 5232SOL     OW17592  10.619   3.038   2.809
 5232SOL    HW117593  10.649   3.035   2.718
 5232SOL    HW217594  10.697   3.018   2.860
 5233SOL     OW17595   5.233   6.329   0.981
 5233SOL    HW117596   5.160   6.391   0.987
 5233SOL    HW217597   5.277   6.351   0.899
 5234SOL     OW17598   8.027  13.404   7.854
 5234SOL    HW117599   7.981  13.348   7.916
 5234SOL    HW217600   8.119  13.397   7.879
 5235SOL     OW17601   6.331   3.883   0.965
 5235SOL    HW117602   6.400   3.933   0.922
 5235SOL    HW217603   6.374   3.845   1.042
 5236SOL     OW17604   2.472   9.261   8.726
 5236SOL    HW117605   2.395   9.301   8.686
 5236SOL    HW217606   2.496   9.191   8.665
 5237SOL     OW17607   0.576   0.506   3.029
 5237SOL    HW117608   0.610   0.565   3.097
 5237SOL    HW217609   0.644   0.506   2.961
 5238SOL     OW17610   1.838   3.156  11.422
 5238SOL    HW117611   1.773   3.182  11.487
 5238SOL    HW217612   1.811   3.202  11.342
 5239SOL     OW17613   5.293   8.344   3.875
 5239SOL    HW117614   5.361   8.277   3.871
 5239SOL    HW217615   5.339   8.426   3.862
 5240SOL     OW17616  10.485  13.880   8.433
 5240SOL    HW117617  10.404  13.897   8.480
 5240SOL    HW217618  10.457  13.839   8.351
 5241SOL     OW17619   7.075  12.472  10.335
 5241SOL    HW117620   7.089  12.489  10.242
 5241SOL    HW217621   7.154  12.426  10.363
 5242SOL     OW17622   2.541   8.424  13.668
 5242SOL    HW117623   2.539   8.393  13.578
 5242SOL    HW217624   2.604   8.366  13.712
 5243SOL     OW17625  14.078  13.070  13.216
 5243SOL    HW117626  14.150  13.088  13.155
 5243SOL    HW217627  14.098  13.123  13.293
 5244SOL     OW17628  11.084   4.210   6.110
 5244SOL    HW117629  11.095   4.212   6.205
 5244SOL    HW217630  11.173   4.198   6.076
 5245SOL     OW17631  10.288   2.298   8.656
 5245SOL    HW117632  10.213   2.357   8.657
 5245SOL    HW217633  10.291   2.264   8.566
 5246SOL     OW17634   5.679   8.643  11.775
 5246SOL    HW117635   5.716   8.730  11.789
 5246SOL    HW217636   5.585   8.653  11.792
 5247SOL     OW17637   1.907   8.658   4.567
 5247SOL    HW117638   1.920   8.661   4.662
 5247SOL    HW217639   1.983   8.702   4.530
 5248SOL     OW17640   9.434  10.310   2.620
 5248SOL    HW117641   9.384  10.367   2.679
 5248SOL    HW217642   9.376  10.236   2.603
 5249SOL     OW17643   5.215  13.056  10.717
 5249SOL    HW117644   5.180  13.136  10.678
 5249SOL    HW217645   5.246  13.083  10.803
 5250SOL     OW17646   0.398   6.294  13.748
 5250SOL    HW117647   0.469   6.296  13.684
 5250SOL    HW217648   0.325   6.255  13.701
 5251SOL     OW17649  13.883   0.084  10.950
 5251SOL    HW117650  13.898   0.042  11.034
 5251SOL    HW217651  13.886   0.178  10.968
 5252SOL     OW17652   0.919   9.758   4.142
 5252SOL    HW117653   1.008   9.734   4.167
 5252SOL    HW217654   0.871   9.675   4.143
 5253SOL     OW17655  14.124  11.590   6.469
 5253SOL    HW117656  14.147  11.541   6.548
 5253SOL    HW217657  14.098  11.523   6.406
 5254SOL     OW17658   4.860  13.899  14.662
 5254SOL    HW117659   4.862  13.941  14.576
 5254SOL    HW217660   4.815  13.816  14.648
 5255SOL     OW17661  13.118  11.195  13.309
 5255SOL    HW117662  13.209  11.201  13.335
 5255SOL    HW217663  13.069  11.235  13.382
 5256SOL     OW17664  11.840   8.839   4.630
 5256SOL    HW117665  11.834   8.919   4.578
 5256SOL    HW217666  11.751   8.804   4.631
 5257SOL     OW17667   2.717  14.019   0.245
 5257SOL    HW117668   2.624  14.041   0.234
 5257SOL    HW217669   2.763  14.097   0.213
 5258SOL     OW17670  14.235   5.048   5.863
 5258SOL    HW117671  14.292   5.121   5.841
 5258SOL    HW217672  14.260   4.978   5.803
 5259SOL     OW17673  11.160   5.333   2.081
 5259SOL    HW117674  11.229   5.335   2.148
 5259SOL    HW217675  11.084   5.295   2.126
 5260SOL     OW17676   1.084   7.913   6.997
 5260SOL    HW117677   1.170   7.932   6.960
 5260SOL    HW217678   1.100   7.906   7.091
 5261SOL     OW17679   2.971   2.840   6.799
 5261SOL    HW117680   2.974   2.774   6.729
 5261SOL    HW217681   2.946   2.921   6.754
 5262SOL     OW17682   9.366   3.268   4.419
 5262SOL    HW117683   9.282   3.257   4.462
 5262SOL    HW217684   9.430   3.272   4.490
 5263SOL     OW17685   5.986   1.389  12.063
 5263SOL    HW117686   6.003   1.421  12.151
 5263SOL    HW217687   5.935   1.309  12.076
 5264SOL     OW17688   4.628  13.308   8.258
 5264SOL    HW117689   4.618  13.214   8.275
 5264SOL    HW217690   4.669  13.342   8.338
 5265SOL     OW17691   8.559   2.963   4.377
 5265SOL    HW117692   8.470   2.993   4.394
 5265SOL    HW217693   8.591   2.930   4.461
 5266SOL     OW17694   1.258   4.937   1.546
 5266SOL    HW117695   1.286   4.856   1.590
 5266SOL    HW217696   1.338   4.976   1.512
 5267SOL     OW17697   7.759   5.001   5.304
 5267SOL    HW117698   7.752   4.928   5.243
 5267SOL    HW217699   7.812   5.066   5.258
 5268SOL     OW17700   4.296  10.165   9.702
 5268SOL    HW117701   4.370  10.118   9.663
 5268SOL    HW217702   4.220  10.131   9.656
 5269SOL     OW17703  13.808  11.641   7.678
 5269SOL    HW117704  13.739  11.627   7.613
 5269SOL    HW217705  13.761  11.653   7.760
 5270SOL     OW17706   0.757  10.929   7.800
 5270SOL    HW117707   0.787  10.856   7.853
 5270SOL    HW217708   0.718  10.990   7.862
 5271SOL     OW17709   2.109   4.948   5.047
 5271SOL    HW117710   2.035   5.006   5.027
 5271SOL    HW217711   2.093   4.870   4.994
 5272SOL     OW17712   0.119  10.368   4.881
 5272SOL    HW117713   0.023  10.363   4.889
 5272SOL    HW217714   0.149  10.387   4.970
 5273SOL     OW17715  10.247   0.329  12.231
 5273SOL    HW117716  10.155   0.316  12.207
 5273SOL    HW217717  10.290   0.351  12.148
 5274SOL     OW17718   6.426   7.504   2.542
 5274SOL    HW117719   6.451   7.468   2.457
 5274SOL    HW217720   6.510   7.519   2.587
 5275SOL     OW17721   8.292  10.816  10.450
 5275SOL    HW117722   8.292  10.868  10.369
 5275SOL    HW217723   8.200  10.808  10.473
 5276SOL     OW17724   6.890   3.762   2.558
 5276SOL    HW117725   6.858   3.676   2.531
 5276SOL    HW217726   6.965   3.743   2.615
 5277SOL     OW17727   5.190  11.411   4.460
 5277SOL    HW117728   5.274  11.457   4.467
 5277SOL    HW217729   5.187  11.353   4.536
 5278SOL     OW17730   9.838   7.425   4.558
 5278SOL    HW117731   9.902   7.457   4.622
 5278SOL    HW217732   9.873   7.451   4.473
 5279SOL     OW17733  10.437   5.727  11.653
 5279SOL    HW117734  10.354   5.721  11.699
 5279SOL    HW217735  10.455   5.820  11.646
 5280SOL     OW17736  13.779   3.146   2.229
 5280SOL    HW117737  13.707   3.192   2.187
 5280SOL    HW217738  13.800   3.075   2.169
 5281SOL     OW17739   0.316   8.164   2.195
 5281SOL    HW117740   0.412   8.164   2.187
 5281SOL    HW217741   0.299   8.215   2.274
 5282SOL     OW17742   8.267   7.278   5.501
 5282SOL    HW117743   8.245   7.270   5.594
 5282SOL    HW217744   8.195   7.328   5.463
 5283SOL     OW17745   9.730   9.613  11.390
 5283SOL    HW117746   9.748   9.588  11.299
 5283SOL    HW217747   9.811   9.593  11.437
 5284SOL     OW17748   0.245   5.757  11.982
 5284SOL    HW117749   0.164   5.762  12.034
 5284SOL    HW217750   0.244   5.836  11.929
 5285SOL     OW17751  12.610   2.082  14.579
 5285SOL    HW117752  12.571   2.033  14.507
 5285SOL    HW217753  12.703   2.062  14.575
 5286SOL     OW17754   6.917   2.332   5.887
 5286SOL    HW117755   6.999   2.379   5.869
 5286SOL    HW217756   6.855   2.401   5.911
 5287SOL     OW17757   4.243  10.848   3.443
 5287SOL    HW117758   4.192  10.892   3.511
 5287SOL    HW217759   4.185  10.846   3.367
 5288SOL     OW17760   9.077   2.858   0.751
 5288SOL    HW117761   9.080   2.948   0.717
 5288SOL    HW217762   9.024   2.810   0.687
 5289SOL     OW17763   0.573   6.848   3.242
 5289SOL    HW117764   0.625   6.783   3.289
 5289SOL    HW217765   0.509   6.796   3.192
 5290SOL     OW17766  13.419  14.791   5.477
 5290SOL    HW117767  13.511  14.789   5.504
 5290SOL    HW217768  13.420  14.832   5.391
 5291SOL     OW17769  14.016   5.350  10.587
 5291SOL    HW117770  14.059   5.434  10.567
 5291SOL    HW217771  14.051   5.326  10.673
 5292SOL     OW17772   6.863  10.541   7.271
 5292SOL    HW117773   6.914  10.621   7.258
 5292SOL    HW217774   6.855  10.533   7.366
 5293SOL     OW17775   9.192   4.415  14.271
 5293SOL    HW117776   9.137   4.396  14.347
 5293SOL    HW217777   9.280   4.386  14.296
 5294SOL     OW17778  11.887   6.802  10.477
 5294SOL    HW117779  11.845   6.805  10.563
 5294SOL    HW217780  11.814   6.803  10.414
 5295SOL     OW17781   7.137   8.766   1.810
 5295SOL    HW117782   7.144   8.862   1.809
 5295SOL    HW217783   7.059   8.747   1.758
 5296SOL     OW17784   4.293   0.853  11.801
 5296SOL    HW117785   4.351   0.885  11.871
 5296SOL    HW217786   4.223   0.917  11.797
 5297SOL     OW17787   1.181  10.298   7.131
 5297SOL    HW117788   1.128  10.359   7.182
 5297SOL    HW217789   1.118  10.259   7.070
 5298SOL     OW17790   6.715   4.884   0.475
 5298SOL    HW117791   6.768   4.909   0.400
 5298SOL    HW217792   6.693   4.966   0.518
 5299SOL     OW17793   6.371   9.656   5.261
 5299SOL    HW117794   6.360   9.693   5.173
 5299SOL    HW217795   6.316   9.578   5.261
 5300SOL     OW17796   4.147  11.492   9.090
 5300SOL    HW117797   4.109  11.419   9.140
 5300SOL    HW217798   4.071  11.538   9.054
 5301SOL     OW17799   0.369  13.916  11.340
 5301SOL    HW117800   0.275  13.902  11.338
 5301SOL    HW217801   0.382  13.985  11.404
 5302SOL     OW17802  13.260   8.416   7.444
 5302SOL    HW117803  13.342   8.433   7.397
 5302SOL    HW217804  13.269   8.467   7.525
 5303SOL     OW17805   5.816  11.024   7.216
 5303SOL    HW117806   5.830  11.119   7.224
 5303SOL    HW217807   5.859  10.987   7.294
 5304SOL     OW17808   1.168  10.327   5.398
 5304SOL    HW117809   1.197  10.357   5.484
 5304SOL    HW217810   1.246  10.332   5.343
 5305SOL     OW17811  12.118   8.740   5.538
 5305SOL    HW117812  12.192   8.680   5.541
 5305SOL    HW217813  12.112   8.776   5.626
 5306SOL     OW17814   0.365  11.882   2.809
 5306SOL    HW117815   0.364  11.935   2.889
 5306SOL    HW217816   0.422  11.929   2.749
 5307SOL     OW17817   0.751   5.925  13.407
 5307SOL    HW117818   0.767   5.845  13.356
 5307SOL    HW217819   0.660   5.946  13.388
 5308SOL     OW17820  13.125  11.167   0.775
 5308SOL    HW117821  13.127  11.075   0.748
 5308SOL    HW217822  13.033  11.184   0.795
 5309SOL     OW17823   7.928  10.116  12.814
 5309SOL    HW117824   8.011  10.067  12.814
 5309SOL    HW217825   7.948  10.198  12.770
 5310SOL     OW17826  11.899   6.675   9.630
 5310SOL    HW117827  11.809   6.679   9.600
 5310SOL    HW217828  11.899   6.607   9.698
 5311SOL     OW17829  13.747  14.834   5.863
 5311SOL    HW117830  13.736   0.002   5.783
 5311SOL    HW217831  13.696  14.754   5.848
 5312SOL     OW17832  11.607   7.354  14.686
 5312SOL    HW117833  11.586   7.358  14.779
 5312SOL    HW217834  11.675   7.287  14.679
 5313SOL     OW17835  14.034   8.191   4.628
 5313SOL    HW117836  13.988   8.275   4.636
 5313SOL    HW217837  14.000   8.153   4.546
 5314SOL     OW17838  13.184   2.171   2.396
 5314SOL    HW117839  13.156   2.195   2.485
 5314SOL    HW217840  13.134   2.092   2.376
 5315SOL     OW17841   6.186   3.846   3.954
 5315SOL    HW117842   6.211   3.774   3.895
 5315SOL    HW217843   6.138   3.907   3.899
 5316SOL     OW17844  10.033   6.745   8.451
 5316SOL    HW117845   9.997   6.704   8.373
 5316SOL    HW217846   9.976   6.715   8.522
 5317SOL     OW17847   0.085   6.907   0.774
 5317SOL    HW117848   0.044   6.824   0.753
 5317SOL    HW217849   0.032   6.972   0.728
 5318SOL     OW17850   9.943   9.746  12.677
 5318SOL    HW117851  10.026   9.708  12.649
 5318SOL    HW217852   9.937   9.828  12.628
 5319SOL     OW17853  11.429   3.624   7.052
 5319SOL    HW117854  11.429   3.530   7.072
 5319SOL    HW217855  11.344   3.655   7.083
 5320SOL     OW17856   3.789  12.260   9.982
 5320SOL    HW117857   3.883  12.245   9.971
 5320SOL    HW217858   3.748  12.186   9.938
 5321SOL     OW17859   7.826   2.433   3.207
 5321SOL    HW117860   7.763   2.448   3.137
 5321SOL    HW217861   7.778   2.453   3.287
 5322SOL     OW17862  13.912  13.424  11.492
 5322SOL    HW117863  13.850  13.471  11.436
 5322SOL    HW217864  13.943  13.490  11.553
 5323SOL     OW17865  11.725   9.090   7.379
 5323SOL    HW117866  11.662   9.049   7.438
 5323SOL    HW217867  11.810   9.071   7.418
 5324SOL     OW17868   0.634   7.899  12.630
 5324SOL    HW117869   0.659   7.990  12.646
 5324SOL    HW217870   0.583   7.874  12.707
 5325SOL     OW17871  14.709  12.741  12.284
 5325SOL    HW117872  14.758  12.823  12.294
 5325SOL    HW217873  14.618  12.766  12.298
 5326SOL     OW17874   1.201   0.112   3.343
 5326SOL    HW117875   1.131   0.165   3.381
 5326SOL    HW217876   1.276   0.125   3.400
 5327SOL     OW17877   9.742   8.008  11.519
 5327SOL    HW117878   9.666   8.061  11.494
 5327SOL    HW217879   9.817   8.063  11.498
 5328SOL     OW17880   0.571   4.231  12.500
 5328SOL    HW117881   0.492   4.286  12.498
 5328SOL    HW217882   0.572   4.196  12.589
 5329SOL     OW17883   0.680   9.720  12.915
 5329SOL    HW117884   0.711   9.797  12.868
 5329SOL    HW217885   0.681   9.650  12.850
 5330SOL     OW17886   9.841  11.743  12.778
 5330SOL    HW117887   9.919  11.790  12.806
 5330SOL    HW217888   9.811  11.790  12.700
 5331SOL     OW17889   4.524   5.483  14.354
 5331SOL    HW117890   4.453   5.456  14.297
 5331SOL    HW217891   4.554   5.567  14.318
 5332SOL     OW17892   1.228   7.697   1.489
 5332SOL    HW117893   1.249   7.680   1.398
 5332SOL    HW217894   1.148   7.749   1.487
 5333SOL     OW17895  11.848   8.964  14.669
 5333SOL    HW117896  11.820   8.931  14.583
 5333SOL    HW217897  11.767   8.968  14.720
 5334SOL     OW17898   1.401   7.032   7.734
 5334SOL    HW117899   1.440   7.120   7.734
 5334SOL    HW217900   1.329   7.038   7.671
 5335SOL     OW17901   1.411   7.173  10.658
 5335SOL    HW117902   1.486   7.196  10.603
 5335SOL    HW217903   1.387   7.255  10.701
 5336SOL     OW17904  10.529   2.589  10.873
 5336SOL    HW117905  10.477   2.513  10.847
 5336SOL    HW217906  10.591   2.555  10.937
 5337SOL     OW17907   0.009  11.006   8.884
 5337SOL    HW117908   0.071  11.079   8.875
 5337SOL    HW217909  14.818  11.044   8.934
 5338SOL     OW17910   2.762   3.490   5.590
 5338SOL    HW117911   2.764   3.560   5.525
 5338SOL    HW217912   2.710   3.421   5.548
 5339SOL     OW17913   0.655  11.741  13.279
 5339SOL    HW117914   0.570  11.751  13.322
 5339SOL    HW217915   0.719  11.754  13.350
 5340SOL     OW17916  12.393  11.119  12.307
 5340SOL    HW117917  12.486  11.141  12.297
 5340SOL    HW217918  12.384  11.034  12.263
 5341SOL     OW17919  13.721  10.605  12.586
 5341SOL    HW117920  13.695  10.697  12.590
 5341SOL    HW217921  13.776  10.593  12.664
 5342SOL     OW17922  14.859   9.394   7.372
 5342SOL    HW117923  14.826   9.420   7.287
 5342SOL    HW217924  14.868   9.475   7.421
 5343SOL     OW17925   3.671   9.824   8.695
 5343SOL    HW117926   3.626   9.789   8.772
 5343SOL    HW217927   3.761   9.792   8.703
 5344SOL     OW17928  10.339   3.278  12.232
 5344SOL    HW117929  10.279   3.276  12.157
 5344SOL    HW217930  10.380   3.364  12.229
 5345SOL     OW17931   1.495  10.393   5.265
 5345SOL    HW117932   1.461  10.480   5.247
 5345SOL    HW217933   1.590  10.405   5.267
 5346SOL     OW17934   6.779  12.340   8.852
 5346SOL    HW117935   6.746  12.285   8.782
 5346SOL    HW217936   6.819  12.279   8.914
 5347SOL     OW17937  13.644  10.961   4.791
 5347SOL    HW117938  13.736  10.937   4.781
 5347SOL    HW217939  13.611  10.901   4.859
 5348SOL     OW17940   8.216  13.794   1.915
 5348SOL    HW117941   8.135  13.748   1.897
 5348SOL    HW217942   8.214  13.870   1.857
 5349SOL     OW17943   5.692  14.304   5.109
 5349SOL    HW117944   5.679  14.225   5.056
 5349SOL    HW217945   5.641  14.287   5.189
 5350SOL     OW17946  12.250   0.517  11.179
 5350SOL    HW117947  12.228   0.539  11.088
 5350SOL    HW217948  12.166   0.508  11.223
 5351SOL     OW17949  11.393   4.075   7.681
 5351SOL    HW117950  11.316   4.050   7.732
 5351SOL    HW217951  11.464   4.076   7.746
 5352SOL     OW17952  11.153   7.641   2.106
 5352SOL    HW117953  11.067   7.604   2.084
 5352SOL    HW217954  11.151   7.652   2.201
 5353SOL     OW17955  13.796  11.478  12.572
 5353SOL    HW117956  13.701  11.475  12.584
 5353SOL    HW217957  13.812  11.563  12.531
 5354SOL     OW17958  13.072  10.808   7.404
 5354SOL    HW117959  13.125  10.768   7.335
 5354SOL    HW217960  13.034  10.734   7.451
 5355SOL     OW17961   6.398   6.402   9.126
 5355SOL    HW117962   6.426   6.345   9.199
 5355SOL    HW217963   6.457   6.379   9.055
 5356SOL     OW17964   8.907  12.810   8.320
 5356SOL    HW117965   8.857  12.850   8.248
 5356SOL    HW217966   8.845  12.807   8.393
 5357SOL     OW17967   1.869   5.110   5.931
 5357SOL    HW117968   1.831   5.180   5.984
 5357SOL    HW217969   1.907   5.155   5.856
 5358SOL     OW17970  10.777   3.749  13.947
 5358SOL    HW117971  10.800   3.825  14.002
 5358SOL    HW217972  10.693   3.718  13.983
 5359SOL     OW17973  13.357   3.908  14.245
 5359SOL    HW117974  13.279   3.875  14.200
 5359SOL    HW217975  13.423   3.840  14.231
 5360SOL     OW17976   6.167  14.358   0.679
 5360SOL    HW117977   6.175  14.338   0.773
 5360SOL    HW217978   6.217  14.289   0.636
 5361SOL     OW17979   2.356   7.588   7.315
 5361SOL    HW117980   2.375   7.502   7.275
 5361SOL    HW217981   2.345   7.569   7.408
 5362SOL     OW17982   9.696   4.635   1.174
 5362SOL    HW117983   9.749   4.703   1.215
 5362SOL    HW217984   9.750   4.603   1.101
 5363SOL     OW17985  13.823   5.781  11.475
 5363SOL    HW117986  13.738   5.741  11.453
 5363SOL    HW217987  13.858   5.810  11.391
 5364SOL     OW17988   6.011   6.391   8.701
 5364SOL    HW117989   6.057   6.472   8.680
 5364SOL    HW217990   5.995   6.396   8.795
 5365SOL     OW17991   6.261   4.957   8.175
 5365SOL    HW117992   6.239   5.050   8.164
 5365SOL    HW217993   6.196   4.924   8.236
 5366SOL     OW17994   9.136   4.924  10.482
 5366SOL    HW117995   9.156   4.898  10.572
 5366SOL    HW217996   9.177   4.857  10.428
 5367SOL     OW17997  10.018  14.110   0.719
 5367SOL    HW117998  10.022  14.035   0.779
 5367SOL    HW217999   9.942  14.160   0.747
 5368SOL     OW18000  12.828   7.146  12.530
 5368SOL    HW118001  12.741   7.108  12.527
 5368SOL    HW218002  12.851   7.161  12.439
 5369SOL     OW18003  13.382   9.939  10.251
 5369SOL    HW118004  13.456   9.936  10.190
 5369SOL    HW218005  13.309   9.970  10.198
 5370SOL     OW18006   6.048   7.438   8.695
 5370SOL    HW118007   6.079   7.365   8.749
 5370SOL    HW218008   6.094   7.427   8.611
 5371SOL     OW18009  12.428  12.298   6.555
 5371SOL    HW118010  12.378  12.249   6.490
 5371SOL    HW218011  12.498  12.239   6.582
 5372SOL     OW18012  12.375   7.788   1.295
 5372SOL    HW118013  12.354   7.806   1.387
 5372SOL    HW218014  12.446   7.849   1.275
 5373SOL     OW18015   9.631  11.789   2.043
 5373SOL    HW118016   9.696  11.719   2.046
 5373SOL    HW218017   9.636  11.829   2.130
 5374SOL     OW18018   7.772  11.464  10.168
 5374SOL    HW118019   7.771  11.441  10.261
 5374SOL    HW218020   7.828  11.542  10.164
 5375SOL     OW18021   4.331   5.819   6.747
 5375SOL    HW118022   4.304   5.744   6.694
 5375SOL    HW218023   4.386   5.782   6.815
 5376SOL     OW18024   0.635   2.846  12.595
 5376SOL    HW118025   0.705   2.895  12.638
 5376SOL    HW218026   0.607   2.782  12.660
 5377SOL     OW18027   6.981   5.564   5.259
 5377SOL    HW118028   7.032   5.612   5.194
 5377SOL    HW218029   7.002   5.472   5.243
 5378SOL     OW18030   8.526  11.654   6.104
 5378SOL    HW118031   8.498  11.605   6.027
 5378SOL    HW218032   8.532  11.589   6.174
 5379SOL     OW18033   4.204  11.532   1.393
 5379SOL    HW118034   4.135  11.598   1.386
 5379SOL    HW218035   4.282  11.576   1.359
 5380SOL     OW18036   3.369   2.954   4.730
 5380SOL    HW118037   3.320   3.032   4.757
 5380SOL    HW218038   3.459   2.985   4.718
 5381SOL     OW18039   0.652   6.061   4.911
 5381SOL    HW118040   0.719   5.993   4.917
 5381SOL    HW218041   0.632   6.084   5.002
 5382SOL     OW18042  11.105   6.800   8.976
 5382SOL    HW118043  11.061   6.865   9.031
 5382SOL    HW218044  11.074   6.715   9.009
 5383SOL     OW18045  12.401  13.464   9.103
 5383SOL    HW118046  12.377  13.391   9.046
 5383SOL    HW218047  12.381  13.543   9.053
 5384SOL     OW18048   1.123   7.071   6.295
 5384SOL    HW118049   1.168   7.134   6.352
 5384SOL    HW218050   1.177   7.068   6.217
 5385SOL     OW18051  13.096   3.635   8.292
 5385SOL    HW118052  13.088   3.705   8.356
 5385SOL    HW218053  13.170   3.582   8.323
 5386SOL     OW18054   9.500  13.499   0.775
 5386SOL    HW118055   9.433  13.461   0.832
 5386SOL    HW218056   9.564  13.428   0.763
 5387SOL     OW18057   1.916   1.310   3.399
 5387SOL    HW118058   1.996   1.262   3.377
 5387SOL    HW218059   1.863   1.248   3.448
 5388SOL     OW18060   1.302   0.454   8.150
 5388SOL    HW118061   1.301   0.358   8.159
 5388SOL    HW218062   1.394   0.475   8.130
 5389SOL     OW18063   3.077  12.055   0.873
 5389SOL    HW118064   3.141  12.112   0.914
 5389SOL    HW218065   3.064  12.091   0.786
 5390SOL     OW18066   8.561   8.770  10.562
 5390SOL    HW118067   8.532   8.680  10.582
 5390SOL    HW218068   8.490   8.806  10.509
 5391SOL     OW18069   1.586   7.997   4.897
 5391SOL    HW118070   1.589   8.031   4.807
 5391SOL    HW218071   1.493   8.001   4.921
 5392SOL     OW18072  12.382   8.527   4.423
 5392SOL    HW118073  12.302   8.508   4.471
 5392SOL    HW218074  12.442   8.456   4.445
 5393SOL     OW18075   6.829  14.678   2.901
 5393SOL    HW118076   6.773  14.602   2.881
 5393SOL    HW218077   6.799  14.707   2.987
 5394SOL     OW18078   2.980   2.287  11.579
 5394SOL    HW118079   2.961   2.200  11.544
 5394SOL    HW218080   2.894   2.323  11.604
 5395SOL     OW18081  12.815   6.583  10.529
 5395SOL    HW118082  12.754   6.655  10.515
 5395SOL    HW218083  12.821   6.574  10.624
 5396SOL     OW18084   2.025   9.278  13.581
 5396SOL    HW118085   2.052   9.319  13.499
 5396SOL    HW218086   1.933   9.300  13.589
 5397SOL     OW18087   4.047   1.205   5.545
 5397SOL    HW118088   4.060   1.153   5.625
 5397SOL    HW218089   4.133   1.243   5.528
 5398SOL     OW18090  12.032   3.039  12.086
 5398SOL    HW118091  12.009   3.036  12.179
 5398SOL    HW218092  11.998   3.123  12.055
 5399SOL     OW18093   8.472   6.020  14.768
 5399SOL    HW118094   8.484   5.982  14.855
 5399SOL    HW218095   8.433   6.105  14.783
 5400SOL     OW18096  12.780   5.128   9.201
 5400SOL    HW118097  12.718   5.166   9.262
 5400SOL    HW218098  12.736   5.049   9.168
 5401SOL     OW18099  14.197  10.380   2.924
 5401SOL    HW118100  14.198  10.384   3.020
 5401SOL    HW218101  14.115  10.336   2.903
 5402SOL     OW18102  12.245   7.383   4.105
 5402SOL    HW118103  12.246   7.292   4.076
 5402SOL    HW218104  12.271   7.378   4.198
 5403SOL     OW18105   2.428   8.008  10.194
 5403SOL    HW118106   2.369   7.937  10.218
 5403SOL    HW218107   2.401   8.033  10.106
 5404SOL     OW18108  14.370   7.761   7.243
 5404SOL    HW118109  14.386   7.718   7.159
 5404SOL    HW218110  14.424   7.713   7.306
 5405SOL     OW18111   0.783   7.959   4.866
 5405SOL    HW118112   0.774   8.050   4.837
 5405SOL    HW218113   0.859   7.926   4.817
 5406SOL     OW18114   4.693  12.032  13.495
 5406SOL    HW118115   4.705  12.121  13.529
 5406SOL    HW218116   4.642  11.987  13.563
 5407SOL     OW18117  13.091   7.881   9.764
 5407SOL    HW118118  13.075   7.808   9.703
 5407SOL    HW218119  13.088   7.959   9.709
 5408SOL     OW18120   1.515   9.044  14.137
 5408SOL    HW118121   1.527   9.006  14.050
 5408SOL    HW218122   1.603   9.043  14.175
 5409SOL     OW18123  13.914  10.005   9.076
 5409SOL    HW118124  13.983  10.000   9.010
 5409SOL    HW218125  13.873   9.918   9.073
 5410SOL     OW18126   4.567   0.451   8.896
 5410SOL    HW118127   4.595   0.491   8.813
 5410SOL    HW218128   4.518   0.373   8.869
 5411SOL     OW18129  12.862   6.914  11.685
 5411SOL    HW118130  12.860   6.942  11.776
 5411SOL    HW218131  12.870   6.996  11.635
 5412SOL     OW18132   1.671   7.019   7.124
 5412SOL    HW118133   1.668   7.051   7.214
 5412SOL    HW218134   1.710   6.931   7.132
 5413SOL     OW18135   0.038   1.401   0.091
 5413SOL    HW118136   0.000   1.465   0.152
 5413SOL    HW218137   0.100   1.452   0.039
 5414SOL     OW18138  13.186   1.116  14.012
 5414SOL    HW118139  13.179   1.208  14.038
 5414SOL    HW218140  13.221   1.072  14.089
 5415SOL     OW18141  13.695   5.834   4.741
 5415SOL    HW118142  13.675   5.915   4.695
 5415SOL    HW218143  13.677   5.854   4.833
 5416SOL     OW18144  10.844   3.119   9.535
 5416SOL    HW118145  10.760   3.135   9.578
 5416SOL    HW218146  10.825   3.052   9.470
 5417SOL     OW18147   8.745  12.735  11.335
 5417SOL    HW118148   8.663  12.726  11.286
 5417SOL    HW218149   8.729  12.688  11.417
 5418SOL     OW18150   8.817   1.036  14.735
 5418SOL    HW118151   8.763   0.962  14.763
 5418SOL    HW218152   8.766   1.113  14.760
 5419SOL     OW18153   1.068   7.012   9.568
 5419SOL    HW118154   1.104   7.075   9.630
 5419SOL    HW218155   0.990   6.978   9.612
 5420SOL     OW18156  11.585  11.423   6.149
 5420SOL    HW118157  11.653  11.362   6.120
 5420SOL    HW218158  11.503  11.376   6.134
 5421SOL     OW18159   9.369   5.400  14.534
 5421SOL    HW118160   9.447   5.363  14.491
 5421SOL    HW218161   9.402   5.476  14.583
 5422SOL     OW18162   8.125   8.058  11.365
 5422SOL    HW118163   8.185   8.021  11.430
 5422SOL    HW218164   8.162   8.032  11.281
 5423SOL     OW18165  11.951   0.377   1.617
 5423SOL    HW118166  11.955   0.390   1.712
 5423SOL    HW218167  11.988   0.457   1.580
 5424SOL     OW18168  14.412   5.362  11.506
 5424SOL    HW118169  14.457   5.441  11.476
 5424SOL    HW218170  14.457   5.290  11.463
 5425SOL     OW18171  11.480  10.810   0.994
 5425SOL    HW118172  11.542  10.747   0.957
 5425SOL    HW218173  11.447  10.767   1.073
 5426SOL     OW18174   5.111  14.170   0.714
 5426SOL    HW118175   5.115  14.198   0.622
 5426SOL    HW218176   5.067  14.243   0.758
 5427SOL     OW18177   6.566   2.072   7.200
 5427SOL    HW118178   6.596   2.017   7.127
 5427SOL    HW218179   6.576   2.016   7.277
 5428SOL     OW18180  12.923   0.365   4.528
 5428SOL    HW118181  12.845   0.403   4.487
 5428SOL    HW218182  12.891   0.286   4.571
 5429SOL     OW18183   3.308   6.024   1.260
 5429SOL    HW118184   3.286   5.938   1.223
 5429SOL    HW218185   3.403   6.020   1.275
 5430SOL     OW18186   7.798   2.522  11.044
 5430SOL    HW118187   7.802   2.479  11.130
 5430SOL    HW218188   7.798   2.449  10.982
 5431SOL     OW18189   4.294   4.562  10.462
 5431SOL    HW118190   4.254   4.611  10.535
 5431SOL    HW218191   4.240   4.483  10.454
 5432SOL     OW18192  12.996   1.440  12.958
 5432SOL    HW118193  13.010   1.346  12.971
 5432SOL    HW218194  12.944   1.468  13.033
 5433SOL     OW18195   4.842   3.027   7.496
 5433SOL    HW118196   4.825   2.991   7.409
 5433SOL    HW218197   4.829   3.121   7.486
 5434SOL     OW18198  10.107   8.673   0.781
 5434SOL    HW118199  10.178   8.679   0.718
 5434SOL    HW218200  10.028   8.691   0.730
 5435SOL     OW18201  11.965   9.022   2.286
 5435SOL    HW118202  12.020   9.067   2.223
 5435SOL    HW218203  12.023   8.958   2.328
 5436SOL     OW18204  12.386  11.981   0.705
 5436SOL    HW118205  12.412  11.946   0.791
 5436SOL    HW218206  12.291  11.974   0.704
 5437SOL     OW18207  11.268  11.718   5.678
 5437SOL    HW118208  11.202  11.696   5.744
 5437SOL    HW218209  11.263  11.647   5.614
 5438SOL     OW18210  13.674  14.013  14.093
 5438SOL    HW118211  13.670  14.085  14.155
 5438SOL    HW218212  13.756  13.968  14.114
 5439SOL     OW18213  14.467   8.765   4.931
 5439SOL    HW118214  14.489   8.818   4.854
 5439SOL    HW218215  14.515   8.806   5.003
 5440SOL     OW18216   2.586   2.311  11.831
 5440SOL    HW118217   2.521   2.309  11.901
 5440SOL    HW218218   2.553   2.250  11.765
 5441SOL     OW18219   5.595   6.709  10.862
 5441SOL    HW118220   5.621   6.800  10.872
 5441SOL    HW218221   5.668   6.667  10.818
 5442SOL     OW18222  12.495  13.165  12.456
 5442SOL    HW118223  12.584  13.191  12.479
 5442SOL    HW218224  12.495  13.161  12.361
 5443SOL     OW18225   1.690   2.290  13.895
 5443SOL    HW118226   1.726   2.234  13.826
 5443SOL    HW218227   1.625   2.344  13.849
 5444SOL     OW18228   8.455  10.591   5.161
 5444SOL    HW118229   8.516  10.599   5.234
 5444SOL    HW218230   8.372  10.565   5.201
 5445SOL     OW18231   0.670   4.095   2.583
 5445SOL    HW118232   0.716   4.080   2.665
 5445SOL    HW218233   0.723   4.049   2.517
 5446SOL     OW18234   7.407   4.245   3.541
 5446SOL    HW118235   7.323   4.238   3.496
 5446SOL    HW218236   7.458   4.307   3.488
 5447SOL     OW18237   3.640  14.312   6.263
 5447SOL    HW118238   3.576  14.259   6.310
 5447SOL    HW218239   3.715  14.318   6.323
 5448SOL     OW18240  13.422  12.227   7.109
 5448SOL    HW118241  13.357  12.259   7.171
 5448SOL    HW218242  13.491  12.294   7.109
 5449SOL     OW18243   3.053   0.693   4.535
 5449SOL    HW118244   3.104   0.709   4.455
 5449SOL    HW218245   3.071   0.602   4.557
 5450SOL     OW18246   6.524   3.796   1.980
 5450SOL    HW118247   6.474   3.717   1.999
 5450SOL    HW218248   6.471   3.867   2.016
 5451SOL     OW18249   6.977  10.717   9.764
 5451SOL    HW118250   6.931  10.639   9.735
 5451SOL    HW218251   7.042  10.684   9.826
 5452SOL     OW18252  11.337   9.543  14.011
 5452SOL    HW118253  11.357   9.453  14.037
 5452SOL    HW218254  11.329   9.591  14.093
 5453SOL     OW18255  14.231   8.397   5.883
 5453SOL    HW118256  14.196   8.475   5.841
 5453SOL    HW218257  14.274   8.349   5.812
 5454SOL     OW18258   4.364   6.091   6.767
 5454SOL    HW118259   4.362   5.995   6.758
 5454SOL    HW218260   4.458   6.112   6.768
 5455SOL     OW18261   3.353   7.551   7.835
 5455SOL    HW118262   3.300   7.502   7.773
 5455SOL    HW218263   3.442   7.517   7.822
 5456SOL     OW18264   0.659   2.802   6.316
 5456SOL    HW118265   0.732   2.825   6.374
 5456SOL    HW218266   0.642   2.881   6.266
 5457SOL     OW18267  14.450  12.949   7.454
 5457SOL    HW118268  14.530  12.910   7.489
 5457SOL    HW218269  14.468  12.959   7.360
 5458SOL     OW18270  11.077   9.586  13.332
 5458SOL    HW118271  11.156   9.547  13.368
 5458SOL    HW218272  11.108   9.666  13.288
 5459SOL     OW18273   5.953   4.047   4.468
 5459SOL    HW118274   6.045   4.056   4.443
 5459SOL    HW218275   5.954   3.988   4.543
 5460SOL     OW18276  14.478   6.472   5.371
 5460SOL    HW118277  14.560   6.522   5.367
 5460SOL    HW218278  14.472   6.445   5.463
 5461SOL     OW18279   3.748   0.780   8.800
 5461SOL    HW118280   3.654   0.785   8.783
 5461SOL    HW218281   3.789   0.796   8.715
 5462SOL     OW18282   3.553   5.919  10.655
 5462SOL    HW118283   3.604   5.993  10.690
 5462SOL    HW218284   3.513   5.953  10.575
 5463SOL     OW18285   1.736  11.502   9.530
 5463SOL    HW118286   1.687  11.469   9.454
 5463SOL    HW218287   1.822  11.463   9.522
 5464SOL     OW18288   5.380  14.438   1.223
 5464SOL    HW118289   5.302  14.383   1.232
 5464SOL    HW218290   5.413  14.447   1.312
 5465SOL     OW18291   3.560   7.039  11.237
 5465SOL    HW118292   3.550   6.961  11.182
 5465SOL    HW218293   3.647   7.031  11.275
 5466SOL     OW18294   3.653   6.620   3.342
 5466SOL    HW118295   3.703   6.657   3.415
 5466SOL    HW218296   3.716   6.568   3.293
 5467SOL     OW18297  13.025  12.925   2.008
 5467SOL    HW118298  12.959  12.859   2.029
 5467SOL    HW218299  12.995  13.005   2.051
 5468SOL     OW18300   1.228   1.683  10.305
 5468SOL    HW118301   1.232   1.767  10.261
 5468SOL    HW218302   1.143   1.647  10.280
 5469SOL     OW18303   9.562   6.886  10.730
 5469SOL    HW118304   9.554   6.979  10.749
 5469SOL    HW218305   9.540   6.878  10.637
 5470SOL     OW18306   8.163   1.254   2.425
 5470SOL    HW118307   8.187   1.187   2.489
 5470SOL    HW218308   8.220   1.328   2.446
 5471SOL     OW18309  14.429  14.657   3.433
 5471SOL    HW118310  14.414  14.740   3.389
 5471SOL    HW218311  14.490  14.610   3.375
 5472SOL     OW18312   8.431   3.331  12.006
 5472SOL    HW118313   8.351   3.374  12.035
 5472SOL    HW218314   8.502   3.389  12.036
 5473SOL     OW18315   9.799  11.070   4.897
 5473SOL    HW118316   9.778  11.142   4.838
 5473SOL    HW218317   9.775  10.991   4.848
 5474SOL     OW18318   2.445   5.687   1.097
 5474SOL    HW118319   2.419   5.608   1.049
 5474SOL    HW218320   2.513   5.656   1.158
 5475SOL     OW18321   8.380   5.067   1.013
 5475SOL    HW118322   8.429   5.148   1.026
 5475SOL    HW218323   8.445   4.998   1.028
 5476SOL     OW18324   6.562   4.132  14.003
 5476SOL    HW118325   6.600   4.101  14.085
 5476SOL    HW218326   6.635   4.128  13.940
 5477SOL     OW18327   2.090  12.849  11.381
 5477SOL    HW118328   2.093  12.830  11.287
 5477SOL    HW218329   2.120  12.769  11.423
 5478SOL     OW18330   7.327   3.728   5.319
 5478SOL    HW118331   7.264   3.656   5.318
 5478SOL    HW218332   7.407   3.690   5.284
 5479SOL     OW18333   3.083   4.292   7.949
 5479SOL    HW118334   3.033   4.294   7.867
 5479SOL    HW218335   3.017   4.283   8.017
 5480SOL     OW18336   3.677  11.393  11.902
 5480SOL    HW118337   3.665  11.439  11.986
 5480SOL    HW218338   3.591  11.355  11.884
 5481SOL     OW18339   7.562   3.599  10.032
 5481SOL    HW118340   7.534   3.652   9.957
 5481SOL    HW218341   7.502   3.625  10.103
 5482SOL     OW18342   2.604   4.365  13.237
 5482SOL    HW118343   2.544   4.299  13.272
 5482SOL    HW218344   2.579   4.373  13.145
 5483SOL     OW18345   1.134  13.392   5.898
 5483SOL    HW118346   1.127  13.296   5.891
 5483SOL    HW218347   1.083  13.413   5.976
 5484SOL     OW18348   6.794   7.574   6.610
 5484SOL    HW118349   6.775   7.613   6.695
 5484SOL    HW218350   6.787   7.647   6.548
 5485SOL     OW18351  10.724   2.737   9.632
 5485SOL    HW118352  10.810   2.714   9.596
 5485SOL    HW218353  10.744   2.777   9.717
 5486SOL     OW18354   5.851   6.198   1.585
 5486SOL    HW118355   5.930   6.155   1.618
 5486SOL    HW218356   5.870   6.291   1.592
 5487SOL     OW18357   1.496   1.983   0.676
 5487SOL    HW118358   1.495   1.895   0.714
 5487SOL    HW218359   1.587   1.999   0.654
 5488SOL     OW18360   7.849  11.992   6.565
 5488SOL    HW118361   7.828  12.084   6.549
 5488SOL    HW218362   7.856  11.985   6.660
 5489SOL     OW18363  13.480   8.593   7.071
 5489SOL    HW118364  13.386   8.589   7.053
 5489SOL    HW218365  13.516   8.644   6.998
 5490SOL     OW18366   8.497   2.434   5.191
 5490SOL    HW118367   8.583   2.407   5.160
 5490SOL    HW218368   8.472   2.367   5.255
 5491SOL     OW18369   6.062  11.926   3.616
 5491SOL    HW118370   6.037  11.986   3.686
 5491SOL    HW218371   6.051  11.838   3.654
 5492SOL     OW18372   3.882  11.428  10.057
 5492SOL    HW118373   3.823  11.401   9.987
 5492SOL    HW218374   3.896  11.521  10.041
 5493SOL     OW18375  12.721  13.180   0.391
 5493SOL    HW118376  12.718  13.095   0.435
 5493SOL    HW218377  12.704  13.244   0.461
 5494SOL     OW18378  10.772   6.358  14.845
 5494SOL    HW118379  10.832   6.420   0.005
 5494SOL    HW218380  10.824   6.278  14.834
 5495SOL     OW18381   4.674  14.390  12.406
 5495SOL    HW118382   4.739  14.322  12.424
 5495SOL    HW218383   4.682  14.406  12.312
 5496SOL     OW18384   9.827   9.833   9.633
 5496SOL    HW118385   9.844   9.863   9.722
 5496SOL    HW218386   9.913   9.833   9.591
 5497SOL     OW18387   7.689  12.997   8.299
 5497SOL    HW118388   7.714  12.967   8.211
 5497SOL    HW218389   7.770  13.034   8.335
 5498SOL     OW18390  13.701   4.656   1.412
 5498SOL    HW118391  13.701   4.660   1.317
 5498SOL    HW218392  13.626   4.600   1.434
 5499SOL     OW18393  10.637   2.171   0.153
 5499SOL    HW118394  10.656   2.087   0.109
 5499SOL    HW218395  10.544   2.166   0.174
 5500SOL     OW18396  14.094   4.546   2.498
 5500SOL    HW118397  14.001   4.570   2.491
 5500SOL    HW218398  14.126   4.600   2.571
 5501SOL     OW18399  10.814   0.120   7.980
 5501SOL    HW118400  10.826   0.196   8.037
 5501SOL    HW218401  10.747   0.067   8.023
 5502SOL     OW18402   4.034   1.680  10.979
 5502SOL    HW118403   3.970   1.678  11.050
 5502SOL    HW218404   4.104   1.622  11.008
 5503SOL     OW18405   2.010   8.664   0.980
 5503SOL    HW118406   1.936   8.706   0.935
 5503SOL    HW218407   2.086   8.687   0.927
 5504SOL     OW18408  11.541  13.025  10.008
 5504SOL    HW118409  11.544  13.114   9.972
 5504SOL    HW218410  11.495  13.035  10.092
 5505SOL     OW18411   2.238  11.907   5.285
 5505SOL    HW118412   2.281  11.824   5.268
 5505SOL    HW218413   2.197  11.931   5.202
 5506SOL     OW18414   8.227   0.238  13.799
 5506SOL    HW118415   8.310   0.190  13.809
 5506SOL    HW218416   8.222   0.256  13.705
 5507SOL     OW18417   3.554   8.548   7.408
 5507SOL    HW118418   3.579   8.469   7.456
 5507SOL    HW218419   3.470   8.527   7.369
 5508SOL     OW18420   5.348   0.642  10.016
 5508SOL    HW118421   5.282   0.574  10.003
 5508SOL    HW218422   5.405   0.608  10.085
 5509SOL     OW18423   3.216  13.134   2.796
 5509SOL    HW118424   3.187  13.050   2.760
 5509SOL    HW218425   3.233  13.115   2.889
 5510SOL     OW18426  10.037   4.259   7.084
 5510SOL    HW118427  10.009   4.230   6.997
 5510SOL    HW218428  10.011   4.351   7.088
 5511SOL     OW18429   9.203  14.446   3.509
 5511SOL    HW118430   9.278  14.499   3.483
 5511SOL    HW218431   9.222  14.421   3.600
 5512SOL     OW18432   8.705   7.333   8.574
 5512SOL    HW118433   8.736   7.284   8.498
 5512SOL    HW218434   8.631   7.384   8.541
 5513SOL     OW18435   2.818   4.089   5.592
 5513SOL    HW118436   2.723   4.105   5.593
 5513SOL    HW218437   2.826   3.994   5.599
 5514SOL     OW18438  11.880   3.828  12.222
 5514SOL    HW118439  11.883   3.915  12.183
 5514SOL    HW218440  11.832   3.775  12.158
 5515SOL     OW18441   9.369   1.883  12.510
 5515SOL    HW118442   9.351   1.854  12.421
 5515SOL    HW218443   9.286   1.918  12.542
 5516SOL     OW18444   4.564  11.873   0.782
 5516SOL    HW118445   4.613  11.882   0.701
 5516SOL    HW218446   4.532  11.783   0.781
 5517SOL     OW18447   7.510   0.532   1.772
 5517SOL    HW118448   7.567   0.589   1.824
 5517SOL    HW218449   7.439   0.508   1.831
 5518SOL     OW18450   2.901  12.281   5.821
 5518SOL    HW118451   2.866  12.370   5.816
 5518SOL    HW218452   2.925  12.270   5.913
 5519SOL     OW18453  13.502  12.223   0.615
 5519SOL    HW118454  13.504  12.128   0.627
 5519SOL    HW218455  13.464  12.235   0.528
 5520SOL     OW18456   0.526  11.483   7.833
 5520SOL    HW118457   0.452  11.465   7.775
 5520SOL    HW218458   0.560  11.568   7.803
 5521SOL     OW18459   7.262  13.813  14.727
 5521SOL    HW118460   7.267  13.814  14.822
 5521SOL    HW218461   7.218  13.896  14.705
 5522SOL     OW18462   0.153   0.188  10.680
 5522SOL    HW118463   0.120   0.106  10.643
 5522SOL    HW218464   0.129   0.255  10.615
 5523SOL     OW18465   1.678   8.307   3.937
 5523SOL    HW118466   1.686   8.371   4.007
 5523SOL    HW218467   1.737   8.338   3.869
 5524SOL     OW18468   7.977   9.186  12.561
 5524SOL    HW118469   7.905   9.126  12.543
 5524SOL    HW218470   7.986   9.185  12.657
 5525SOL     OW18471   4.123   6.223   7.782
 5525SOL    HW118472   4.136   6.247   7.873
 5525SOL    HW218473   4.029   6.227   7.769
 5526SOL     OW18474  12.981   8.695  12.172
 5526SOL    HW118475  13.056   8.683  12.114
 5526SOL    HW218476  12.917   8.631  12.141
 5527SOL     OW18477   8.885  11.210   3.371
 5527SOL    HW118478   8.961  11.249   3.415
 5527SOL    HW218479   8.878  11.255   3.288
 5528SOL     OW18480   8.595   1.119   8.215
 5528SOL    HW118481   8.583   1.084   8.127
 5528SOL    HW218482   8.619   1.210   8.202
 5529SOL     OW18483  11.325  13.184  12.759
 5529SOL    HW118484  11.382  13.172  12.835
 5529SOL    HW218485  11.379  13.233  12.697
 5530SOL     OW18486   5.870   9.545   3.926
 5530SOL    HW118487   5.880   9.594   3.844
 5530SOL    HW218488   5.947   9.568   3.978
 5531SOL     OW18489   5.256  10.529   0.297
 5531SOL    HW118490   5.246  10.434   0.287
 5531SOL    HW218491   5.331  10.540   0.355
 5532SOL     OW18492  10.936  10.650   0.652
 5532SOL    HW118493  10.995  10.653   0.578
 5532SOL    HW218494  10.942  10.560   0.684
 5533SOL     OW18495   5.376   8.812   8.430
 5533SOL    HW118496   5.471   8.822   8.436
 5533SOL    HW218497   5.363   8.725   8.393
 5534SOL     OW18498  11.512   2.627  10.908
 5534SOL    HW118499  11.597   2.662  10.881
 5534SOL    HW218500  11.514   2.536  10.879
 5535SOL     OW18501   4.315   2.072  11.040
 5535SOL    HW118502   4.230   2.079  11.084
 5535SOL    HW218503   4.320   1.980  11.012
 5536SOL     OW18504   5.305  14.382  13.730
 5536SOL    HW118505   5.338  14.465  13.696
 5536SOL    HW218506   5.369  14.317  13.704
 5537SOL     OW18507  10.087   6.653   1.938
 5537SOL    HW118508  10.095   6.585   1.870
 5537SOL    HW218509  10.089   6.604   2.020
 5538SOL     OW18510  12.429   3.999   5.219
 5538SOL    HW118511  12.434   4.039   5.132
 5538SOL    HW218512  12.486   4.054   5.273
 5539SOL     OW18513   9.301   9.241   4.131
 5539SOL    HW118514   9.212   9.204   4.126
 5539SOL    HW218515   9.354   9.183   4.077
 5540SOL     OW18516   3.924   7.655  11.730
 5540SOL    HW118517   3.855   7.663  11.795
 5540SOL    HW218518   3.932   7.743  11.692
 5541SOL     OW18519   6.538   7.737   5.196
 5541SOL    HW118520   6.619   7.744   5.145
 5541SOL    HW218521   6.497   7.656   5.165
 5542SOL     OW18522   7.474   3.557   1.738
 5542SOL    HW118523   7.569   3.554   1.747
 5542SOL    HW218524   7.459   3.595   1.652
 5543SOL     OW18525   7.198   5.823   8.536
 5543SOL    HW118526   7.281   5.843   8.579
 5543SOL    HW218527   7.215   5.838   8.443
 5544SOL     OW18528   5.077   5.036  12.076
 5544SOL    HW118529   5.070   5.127  12.107
 5544SOL    HW218530   5.171   5.016  12.084
 5545SOL     OW18531   8.059  11.093   4.927
 5545SOL    HW118532   8.105  11.172   4.955
 5545SOL    HW218533   8.026  11.114   4.840
 5546SOL     OW18534  10.858  12.565   9.917
 5546SOL    HW118535  10.767  12.541   9.900
 5546SOL    HW218536  10.853  12.644   9.970
 5547SOL     OW18537  14.496  14.603   1.784
 5547SOL    HW118538  14.518  14.561   1.867
 5547SOL    HW218539  14.480  14.695   1.807
 5548SOL     OW18540   4.059  10.090   9.075
 5548SOL    HW118541   4.051  10.011   9.128
 5548SOL    HW218542   4.143  10.079   9.030
 5549SOL     OW18543  11.248   2.351   9.326
 5549SOL    HW118544  11.186   2.291   9.368
 5549SOL    HW218545  11.317   2.295   9.292
 5550SOL     OW18546  13.200   2.612   7.572
 5550SOL    HW118547  13.203   2.706   7.589
 5550SOL    HW218548  13.111   2.596   7.542
 5551SOL     OW18549   5.027   0.086   6.437
 5551SOL    HW118550   4.998   0.147   6.505
 5551SOL    HW218551   5.003   0.129   6.355
 5552SOL     OW18552   3.125   3.461  10.402
 5552SOL    HW118553   3.084   3.542  10.370
 5552SOL    HW218554   3.133   3.405  10.325
 5553SOL     OW18555   5.638   3.925   7.762
 5553SOL    HW118556   5.636   3.865   7.687
 5553SOL    HW218557   5.732   3.940   7.779
 5554SOL     OW18558   5.471   9.853   4.557
 5554SOL    HW118559   5.563   9.865   4.580
 5554SOL    HW218560   5.471   9.789   4.486
 5555SOL     OW18561   0.623   6.423   5.996
 5555SOL    HW118562   0.598   6.372   6.073
 5555SOL    HW218563   0.719   6.423   5.998
 5556SOL     OW18564  10.287  13.681   3.594
 5556SOL    HW118565  10.244  13.762   3.624
 5556SOL    HW218566  10.373  13.710   3.564
 5557SOL     OW18567  13.149   9.643  12.227
 5557SOL    HW118568  13.128   9.736  12.227
 5557SOL    HW218569  13.106   9.609  12.306
 5558SOL     OW18570  11.462  10.432   4.269
 5558SOL    HW118571  11.407  10.358   4.296
 5558SOL    HW218572  11.425  10.459   4.185
 5559SOL     OW18573   9.322   4.763   0.659
 5559SOL    HW118574   9.374   4.842   0.642
 5559SOL    HW218575   9.295   4.771   0.750
 5560SOL     OW18576   4.235   3.087   1.213
 5560SOL    HW118577   4.259   3.170   1.253
 5560SOL    HW218578   4.290   3.080   1.136
 5561SOL     OW18579   4.977  14.328   3.592
 5561SOL    HW118580   4.991  14.416   3.625
 5561SOL    HW218581   4.882  14.317   3.593
 5562SOL     OW18582   9.397   5.645  12.979
 5562SOL    HW118583   9.410   5.560  13.021
 5562SOL    HW218584   9.385   5.707  13.052
 5563SOL     OW18585   3.935   5.269   3.775
 5563SOL    HW118586   3.863   5.211   3.798
 5563SOL    HW218587   3.946   5.326   3.851
 5564SOL     OW18588   2.668   9.324   9.684
 5564SOL    HW118589   2.581   9.312   9.722
 5564SOL    HW218590   2.691   9.238   9.649
 5565SOL     OW18591   7.215  14.861  12.086
 5565SOL    HW118592   7.195  14.784  12.139
 5565SOL    HW218593   7.251  14.825  12.005
 5566SOL     OW18594   8.099   2.495  12.406
 5566SOL    HW118595   8.113   2.589  12.414
 5566SOL    HW218596   8.161   2.456  12.467
 5567SOL     OW18597  10.902  11.130   3.330
 5567SOL    HW118598  10.978  11.114   3.275
 5567SOL    HW218599  10.936  11.129   3.420
 5568SOL     OW18600   8.123   3.350   6.020
 5568SOL    HW118601   8.146   3.354   6.113
 5568SOL    HW218602   8.126   3.441   5.991
 5569SOL     OW18603   7.010   5.082   2.722
 5569SOL    HW118604   7.057   5.159   2.752
 5569SOL    HW218605   7.009   5.090   2.627
 5570SOL     OW18606   2.088   5.926   6.150
 5570SOL    HW118607   2.029   5.865   6.105
 5570SOL    HW218608   2.170   5.878   6.159
 5571SOL     OW18609   9.741   3.633   7.890
 5571SOL    HW118610   9.651   3.634   7.859
 5571SOL    HW218611   9.767   3.541   7.885
 5572SOL     OW18612   9.560  13.767   8.707
 5572SOL    HW118613   9.630  13.818   8.665
 5572SOL    HW218614   9.589  13.757   8.798
 5573SOL     OW18615   0.803   6.640   6.196
 5573SOL    HW118616   0.798   6.546   6.179
 5573SOL    HW218617   0.769   6.650   6.285
 5574SOL     OW18618   8.813   9.944  11.913
 5574SOL    HW118619   8.832   9.939  11.819
 5574SOL    HW218620   8.899   9.948  11.954
 5575SOL     OW18621   7.040  11.094   8.166
 5575SOL    HW118622   7.061  11.066   8.077
 5575SOL    HW218623   7.120  11.135   8.198
 5576SOL     OW18624   7.589   9.216  14.796
 5576SOL    HW118625   7.606   9.304  14.762
 5576SOL    HW218626   7.503   9.193  14.761
 5577SOL     OW18627   0.412   8.866  12.228
 5577SOL    HW118628   0.501   8.839  12.207
 5577SOL    HW218629   0.356   8.798  12.192
 5578SOL     OW18630   2.588  14.565   1.104
 5578SOL    HW118631   2.637  14.550   1.184
 5578SOL    HW218632   2.651  14.605   1.044
 5579SOL     OW18633  11.126  10.831   4.831
 5579SOL    HW118634  11.063  10.821   4.902
 5579SOL    HW218635  11.074  10.819   4.751
 5580SOL     OW18636   6.547  10.093   5.332
 5580SOL    HW118637   6.601  10.063   5.258
 5580SOL    HW218638   6.507  10.174   5.300
 5581SOL     OW18639   1.579   6.149  12.165
 5581SOL    HW118640   1.643   6.197  12.113
 5581SOL    HW218641   1.524   6.105  12.101
 5582SOL     OW18642   7.144   7.019   8.709
 5582SOL    HW118643   7.140   7.025   8.614
 5582SOL    HW218644   7.237   7.007   8.728
 5583SOL     OW18645   6.560   0.572  10.446
 5583SOL    HW118646   6.568   0.526  10.362
 5583SOL    HW218647   6.477   0.618  10.440
 5584SOL     OW18648   3.443   1.032   0.532
 5584SOL    HW118649   3.372   0.979   0.568
 5584SOL    HW218650   3.403   1.118   0.517
 5585SOL     OW18651  13.653  10.448   0.589
 5585SOL    HW118652  13.696  10.519   0.541
 5585SOL    HW218653  13.676  10.369   0.541
 5586SOL     OW18654  14.735   3.460   2.023
 5586SOL    HW118655  14.782   3.428   1.946
 5586SOL    HW218656  14.672   3.391   2.043
 5587SOL     OW18657   7.802  11.297   3.162
 5587SOL    HW118658   7.842  11.384   3.166
 5587SOL    HW218659   7.875  11.237   3.180
 5588SOL     OW18660  13.398   6.538   5.799
 5588SOL    HW118661  13.481   6.501   5.829
 5588SOL    HW218662  13.343   6.538   5.877
 5589SOL     OW18663  13.886  10.219  12.363
 5589SOL    HW118664  13.826  10.261  12.426
 5589SOL    HW218665  13.932  10.153  12.415
 5590SOL     OW18666   6.834   8.410   9.512
 5590SOL    HW118667   6.858   8.483   9.570
 5590SOL    HW218668   6.917   8.381   9.474
 5591SOL     OW18669  13.097  14.074   8.352
 5591SOL    HW118670  13.183  14.039   8.328
 5591SOL    HW218671  13.074  14.133   8.280
 5592SOL     OW18672   9.483   3.614   8.661
 5592SOL    HW118673   9.428   3.665   8.721
 5592SOL    HW218674   9.442   3.626   8.575
 5593SOL     OW18675   5.690  11.467  13.684
 5593SOL    HW118676   5.609  11.448  13.731
 5593SOL    HW218677   5.668  11.541  13.627
 5594SOL     OW18678   0.830   2.835   8.231
 5594SOL    HW118679   0.750   2.811   8.277
 5594SOL    HW218680   0.875   2.895   8.292
 5595SOL     OW18681   9.364   3.991   8.513
 5595SOL    HW118682   9.448   4.023   8.480
 5595SOL    HW218683   9.343   4.048   8.587
 5596SOL     OW18684   0.330  10.113  14.584
 5596SOL    HW118685   0.306  10.114  14.676
 5596SOL    HW218686   0.371  10.027  14.570
 5597SOL     OW18687   8.802  12.289   7.633
 5597SOL    HW118688   8.866  12.330   7.575
 5597SOL    HW218689   8.844  12.288   7.719
 5598SOL     OW18690   7.859  11.027  13.835
 5598SOL    HW118691   7.941  11.048  13.791
 5598SOL    HW218692   7.831  10.944  13.797
 5599SOL     OW18693   3.956   5.402   7.734
 5599SOL    HW118694   3.861   5.390   7.734
 5599SOL    HW218695   3.990   5.321   7.696
 5600SOL     OW18696   4.399   3.546   1.103
 5600SOL    HW118697   4.351   3.621   1.138
 5600SOL    HW218698   4.331   3.486   1.073
 5601SOL     OW18699   9.385   4.965  12.455
 5601SOL    HW118700   9.378   5.008  12.369
 5601SOL    HW218701   9.392   4.872  12.434
 5602SOL     OW18702   8.634  12.302   9.806
 5602SOL    HW118703   8.714  12.344   9.839
 5602SOL    HW218704   8.606  12.246   9.878
 5603SOL     OW18705  14.458   1.415   0.585
 5603SOL    HW118706  14.416   1.410   0.671
 5603SOL    HW218707  14.426   1.497   0.548
 5604SOL     OW18708   9.391   4.428   3.765
 5604SOL    HW118709   9.479   4.466   3.764
 5604SOL    HW218710   9.366   4.430   3.858
 5605SOL     OW18711  12.308  14.251  11.905
 5605SOL    HW118712  12.341  14.334  11.871
 5605SOL    HW218713  12.222  14.273  11.941
 5606SOL     OW18714  14.699  14.361   9.231
 5606SOL    HW118715  14.728  14.330   9.316
 5606SOL    HW218716  14.603  14.355   9.235
 5607SOL     OW18717   4.617   1.506  11.511
 5607SOL    HW118718   4.591   1.426  11.556
 5607SOL    HW218719   4.590   1.577  11.569
 5608SOL     OW18720   9.683  11.316  12.946
 5608SOL    HW118721   9.749  11.383  12.929
 5608SOL    HW218722   9.675  11.269  12.863
 5609SOL     OW18723  11.106   3.240  13.955
 5609SOL    HW118724  11.102   3.170  14.020
 5609SOL    HW218725  11.022   3.285  13.963
 5610SOL     OW18726   1.844   6.700   3.119
 5610SOL    HW118727   1.873   6.636   3.054
 5610SOL    HW218728   1.778   6.653   3.170
 5611SOL     OW18729   1.909  11.223   8.631
 5611SOL    HW118730   1.897  11.276   8.551
 5611SOL    HW218731   2.002  11.201   8.631
 5612SOL     OW18732   8.241   9.234   0.816
 5612SOL    HW118733   8.148   9.209   0.822
 5612SOL    HW218734   8.255   9.290   0.893
 5613SOL     OW18735  11.813  10.477  11.377
 5613SOL    HW118736  11.859  10.533  11.316
 5613SOL    HW218737  11.869  10.474  11.455
 5614SOL     OW18738   7.899   0.473   5.913
 5614SOL    HW118739   7.891   0.378   5.918
 5614SOL    HW218740   7.992   0.489   5.900
 5615SOL     OW18741   1.570  10.926   0.232
 5615SOL    HW118742   1.613  10.930   0.147
 5615SOL    HW218743   1.567  11.017   0.261
 5616SOL     OW18744   1.649   8.098   8.144
 5616SOL    HW118745   1.710   8.143   8.203
 5616SOL    HW218746   1.667   8.136   8.058
 5617SOL     OW18747   3.569  11.875  13.419
 5617SOL    HW118748   3.546  11.853  13.329
 5617SOL    HW218749   3.644  11.820  13.439
 5618SOL     OW18750   3.193  10.829   5.937
 5618SOL    HW118751   3.244  10.749   5.953
 5618SOL    HW218752   3.254  10.888   5.893
 5619SOL     OW18753   0.090  10.258  13.792
 5619SOL    HW118754   0.185  10.268  13.787
 5619SOL    HW218755   0.057  10.306  13.716
 5620SOL     OW18756  10.415  10.027   6.880
 5620SOL    HW118757  10.344  10.066   6.931
 5620SOL    HW218758  10.417   9.936   6.908
 5621SOL     OW18759   7.868   9.475  11.792
 5621SOL    HW118760   7.840   9.551  11.842
 5621SOL    HW218761   7.949   9.503  11.749
 5622SOL     OW18762   8.418  10.355  14.440
 5622SOL    HW118763   8.325  10.332  14.446
 5622SOL    HW218764   8.439  10.345  14.347
 5623SOL     OW18765   9.093  12.148  13.592
 5623SOL    HW118766   9.062  12.237  13.610
 5623SOL    HW218767   9.169  12.137  13.649
 5624SOL     OW18768   6.150   2.167   5.703
 5624SOL    HW118769   6.108   2.163   5.789
 5624SOL    HW218770   6.216   2.098   5.705
 5625SOL     OW18771   1.065   6.203  10.969
 5625SOL    HW118772   0.971   6.187  10.977
 5625SOL    HW218773   1.075   6.298  10.979
 5626SOL     OW18774   7.114   4.045  13.672
 5626SOL    HW118775   7.169   4.123  13.676
 5626SOL    HW218776   7.071   4.041  13.757
 5627SOL     OW18777   5.223   0.744   4.167
 5627SOL    HW118778   5.317   0.728   4.157
 5627SOL    HW218779   5.214   0.839   4.162
 5628SOL     OW18780   2.526   9.436   4.028
 5628SOL    HW118781   2.584   9.426   4.103
 5628SOL    HW218782   2.466   9.506   4.053
 5629SOL     OW18783   1.482  10.054  12.768
 5629SOL    HW118784   1.410  10.116  12.754
 5629SOL    HW218785   1.453   9.974  12.724
 5630SOL     OW18786   3.213   2.108  11.340
 5630SOL    HW118787   3.236   2.073  11.426
 5630SOL    HW218788   3.210   2.203  11.353
 5631SOL     OW18789  13.077   7.329   6.403
 5631SOL    HW118790  13.019   7.385   6.454
 5631SOL    HW218791  13.115   7.268   6.467
 5632SOL     OW18792  11.893   6.094  10.111
 5632SOL    HW118793  11.943   6.094  10.193
 5632SOL    HW218794  11.814   6.144  10.132
 5633SOL     OW18795   6.321  10.904   8.837
 5633SOL    HW118796   6.397  10.961   8.826
 5633SOL    HW218797   6.262  10.928   8.766
 5634SOL     OW18798  10.574  12.373   3.341
 5634SOL    HW118799  10.571  12.308   3.271
 5634SOL    HW218800  10.667  12.390   3.353
 5635SOL     OW18801  13.492   5.440  10.200
 5635SOL    HW118802  13.515   5.507  10.136
 5635SOL    HW218803  13.431   5.483  10.260
 5636SOL     OW18804  11.109   4.228   7.593
 5636SOL    HW118805  11.031   4.265   7.551
 5636SOL    HW218806  11.176   4.229   7.524
 5637SOL     OW18807  10.481   2.908  13.899
 5637SOL    HW118808  10.504   2.951  13.818
 5637SOL    HW218809  10.547   2.935  13.962
 5638SOL     OW18810   1.567  13.357   7.546
 5638SOL    HW118811   1.635  13.295   7.522
 5638SOL    HW218812   1.548  13.338   7.638
 5639SOL     OW18813  11.261  10.313  14.646
 5639SOL    HW118814  11.340  10.365  14.662
 5639SOL    HW218815  11.208  10.326  14.725
 5640SOL     OW18816  10.932  14.777   3.479
 5640SOL    HW118817  10.991  14.800   3.407
 5640SOL    HW218818  10.873  14.712   3.442
 5641SOL     OW18819   7.870   7.185   0.115
 5641SOL    HW118820   7.829   7.270   0.096
 5641SOL    HW218821   7.823   7.153   0.192
 5642SOL     OW18822  11.660   0.541  11.669
 5642SOL    HW118823  11.638   0.477  11.737
 5642SOL    HW218824  11.581   0.595  11.661
 5643SOL     OW18825  11.880   3.876   8.761
 5643SOL    HW118826  11.906   3.965   8.786
 5643SOL    HW218827  11.803   3.888   8.707
 5644SOL     OW18828   1.812  13.273  11.617
 5644SOL    HW118829   1.832  13.183  11.590
 5644SOL    HW218830   1.804  13.268  11.713
 5645SOL     OW18831  12.921  12.557   4.181
 5645SOL    HW118832  12.994  12.524   4.129
 5645SOL    HW218833  12.870  12.478   4.203
 5646SOL     OW18834   1.769   0.174   0.385
 5646SOL    HW118835   1.680   0.138   0.389
 5646SOL    HW218836   1.819   0.108   0.336
 5647SOL     OW18837   9.425   3.936   2.191
 5647SOL    HW118838   9.332   3.922   2.207
 5647SOL    HW218839   9.428   3.983   2.108
 5648SOL     OW18840   4.676  13.469  14.003
 5648SOL    HW118841   4.686  13.527  14.078
 5648SOL    HW218842   4.604  13.506  13.953
 5649SOL     OW18843   1.541   7.697  10.890
 5649SOL    HW118844   1.612   7.651  10.846
 5649SOL    HW218845   1.538   7.782  10.847
 5650SOL     OW18846   5.755  12.143   2.243
 5650SOL    HW118847   5.797  12.105   2.320
 5650SOL    HW218848   5.663  12.154   2.269
 5651SOL     OW18849  14.437  13.324   9.189
 5651SOL    HW118850  14.352  13.367   9.174
 5651SOL    HW218851  14.414  13.238   9.225
 5652SOL     OW18852  12.894   5.557   3.364
 5652SOL    HW118853  12.870   5.610   3.288
 5652SOL    HW218854  12.896   5.467   3.331
 5653SOL     OW18855  11.916   2.233  14.594
 5653SOL    HW118856  11.826   2.259  14.579
 5653SOL    HW218857  11.964   2.315  14.606
 5654SOL     OW18858   4.155   5.926   3.999
 5654SOL    HW118859   4.145   5.905   3.906
 5654SOL    HW218860   4.187   6.016   4.000
 5655SOL     OW18861   4.885   5.420   0.046
 5655SOL    HW118862   4.853   5.389  14.843
 5655SOL    HW218863   4.969   5.376   0.058
 5656SOL     OW18864   0.188   0.015   8.033
 5656SOL    HW118865   0.209   0.106   8.016
 5656SOL    HW218866   0.093   0.013   8.041
 5657SOL     OW18867   7.426   9.384   2.659
 5657SOL    HW118868   7.439   9.395   2.753
 5657SOL    HW218869   7.497   9.435   2.619
 5658SOL     OW18870  11.567  10.364   5.212
 5658SOL    HW118871  11.551  10.449   5.254
 5658SOL    HW218872  11.480  10.323   5.206
 5659SOL     OW18873  11.306  14.076   6.264
 5659SOL    HW118874  11.386  14.124   6.245
 5659SOL    HW218875  11.238  14.123   6.216
 5660SOL     OW18876  12.383  13.099  13.133
 5660SOL    HW118877  12.344  13.184  13.150
 5660SOL    HW218878  12.362  13.081  13.041
 5661SOL     OW18879   3.864  11.144   8.708
 5661SOL    HW118880   3.838  11.143   8.800
 5661SOL    HW218881   3.935  11.208   8.704
 5662SOL     OW18882  14.720   6.725   7.212
 5662SOL    HW118883  14.664   6.721   7.289
 5662SOL    HW218884  14.677   6.789   7.155
 5663SOL     OW18885   3.533   0.728   5.047
 5663SOL    HW118886   3.586   0.654   5.019
 5663SOL    HW218887   3.443   0.701   5.032
 5664SOL     OW18888  11.404   3.090   7.276
 5664SOL    HW118889  11.348   3.058   7.347
 5664SOL    HW218890  11.441   3.172   7.310
 5665SOL     OW18891   5.922   2.460   9.708
 5665SOL    HW118892   5.996   2.460   9.768
 5665SOL    HW218893   5.946   2.522   9.640
 5666SOL     OW18894   6.388   5.888   7.788
 5666SOL    HW118895   6.378   5.797   7.814
 5666SOL    HW218896   6.359   5.938   7.864
 5667SOL     OW18897  14.505  14.295   3.980
 5667SOL    HW118898  14.550  14.376   3.957
 5667SOL    HW218899  14.414  14.311   3.956
 5668SOL     OW18900  14.443  10.916  10.011
 5668SOL    HW118901  14.352  10.913   9.980
 5668SOL    HW218902  14.440  10.975  10.087
 5669SOL     OW18903   2.825   5.113   8.624
 5669SOL    HW118904   2.818   5.191   8.569
 5669SOL    HW218905   2.797   5.142   8.711
 5670SOL     OW18906   3.528   8.879   8.575
 5670SOL    HW118907   3.500   8.788   8.580
 5670SOL    HW218908   3.543   8.894   8.481
 5671SOL     OW18909   4.679   9.722   2.653
 5671SOL    HW118910   4.775   9.728   2.651
 5671SOL    HW218911   4.651   9.754   2.568
 5672SOL     OW18912   8.579  11.340  10.592
 5672SOL    HW118913   8.618  11.405  10.650
 5672SOL    HW218914   8.501  11.383  10.557
 5673SOL     OW18915   6.850   4.635   1.113
 5673SOL    HW118916   6.796   4.571   1.066
 5673SOL    HW218917   6.904   4.583   1.172
 5674SOL     OW18918   3.002  13.311   2.296
 5674SOL    HW118919   3.021  13.220   2.319
 5674SOL    HW218920   2.918  13.306   2.250
 5675SOL     OW18921   4.350   2.006   6.060
 5675SOL    HW118922   4.334   2.060   5.982
 5675SOL    HW218923   4.388   2.066   6.123
 5676SOL     OW18924   8.228   6.258   2.602
 5676SOL    HW118925   8.258   6.211   2.524
 5676SOL    HW218926   8.169   6.197   2.646
 5677SOL     OW18927   5.041   9.714   8.422
 5677SOL    HW118928   5.126   9.684   8.454
 5677SOL    HW218929   5.034   9.676   8.334
 5678SOL     OW18930   3.428   0.601  13.183
 5678SOL    HW118931   3.441   0.506  13.182
 5678SOL    HW218932   3.517   0.637  13.180
 5679SOL     OW18933  11.110   0.355  13.738
 5679SOL    HW118934  11.103   0.374  13.832
 5679SOL    HW218935  11.199   0.381  13.716
 5680SOL     OW18936   5.946   7.210  13.638
 5680SOL    HW118937   5.906   7.231  13.722
 5680SOL    HW218938   5.973   7.294  13.602
 5681SOL     OW18939  10.840  12.307   7.381
 5681SOL    HW118940  10.878  12.233   7.333
 5681SOL    HW218941  10.910  12.335   7.441
 5682SOL     OW18942   7.444  12.508   4.059
 5682SOL    HW118943   7.447  12.579   3.995
 5682SOL    HW218944   7.464  12.429   4.008
 5683SOL     OW18945   1.396   5.045   4.761
 5683SOL    HW118946   1.322   5.105   4.770
 5683SOL    HW218947   1.425   5.029   4.850
 5684SOL     OW18948   5.916   6.859  10.175
 5684SOL    HW118949   5.922   6.848  10.080
 5684SOL    HW218950   5.892   6.951  10.186
 5685SOL     OW18951   8.849  11.207   7.064
 5685SOL    HW118952   8.933  11.161   7.069
 5685SOL    HW218953   8.814  11.185   6.978
 5686SOL     OW18954   5.131  11.325   4.087
 5686SOL    HW118955   5.146  11.343   3.994
 5686SOL    HW218956   5.044  11.361   4.104
 5687SOL     OW18957  12.845   8.440   9.488
 5687SOL    HW118958  12.847   8.466   9.396
 5687SOL    HW218959  12.934   8.409   9.506
 5688SOL     OW18960   2.290   5.419  12.747
 5688SOL    HW118961   2.196   5.405  12.762
 5688SOL    HW218962   2.333   5.355  12.804
 5689SOL     OW18963   9.366   7.771   1.610
 5689SOL    HW118964   9.323   7.696   1.568
 5689SOL    HW218965   9.452   7.776   1.568
 5690SOL     OW18966   0.725  12.296   9.640
 5690SOL    HW118967   0.700  12.260   9.725
 5690SOL    HW218968   0.722  12.222   9.580
 5691SOL     OW18969  14.418   0.079   8.685
 5691SOL    HW118970  14.437   0.003   8.630
 5691SOL    HW218971  14.402   0.042   8.772
 5692SOL     OW18972   0.354   8.283   6.846
 5692SOL    HW118973   0.272   8.270   6.892
 5692SOL    HW218974   0.377   8.195   6.813
 5693SOL     OW18975  11.182   7.024   7.143
 5693SOL    HW118976  11.177   6.980   7.057
 5693SOL    HW218977  11.265   6.993   7.180
 5694SOL     OW18978  12.076  11.675  11.284
 5694SOL    HW118979  12.022  11.602  11.314
 5694SOL    HW218980  12.064  11.676  11.189
 5695SOL     OW18981  11.753  14.396   6.319
 5695SOL    HW118982  11.818  14.341   6.362
 5695SOL    HW218983  11.757  14.479   6.367
 5696SOL     OW18984   5.209  14.155  11.201
 5696SOL    HW118985   5.215  14.061  11.180
 5696SOL    HW218986   5.236  14.160  11.293
 5697SOL     OW18987   1.764  13.752  13.539
 5697SOL    HW118988   1.766  13.836  13.493
 5697SOL    HW218989   1.846  13.750  13.589
 5698SOL     OW18990   6.724   2.375  14.536
 5698SOL    HW118991   6.660   2.321  14.491
 5698SOL    HW218992   6.793   2.391  14.471
 5699SOL     OW18993   0.552   8.662  11.040
 5699SOL    HW118994   0.553   8.658  11.135
 5699SOL    HW218995   0.480   8.721  11.019
 5700SOL     OW18996   7.233   6.955  10.807
 5700SOL    HW118997   7.276   6.897  10.870
 5700SOL    HW218998   7.298   7.023  10.788
 5701SOL     OW18999   8.111  14.071  11.729
 5701SOL    HW119000   8.099  13.980  11.702
 5701SOL    HW219001   8.117  14.120  11.647
 5702SOL     OW19002   6.977  12.003  10.069
 5702SOL    HW119003   6.895  11.978  10.026
 5702SOL    HW219004   6.956  12.003  10.162
 5703SOL     OW19005   4.727  14.825  11.163
 5703SOL    HW119006   4.676  14.747  11.142
 5703SOL    HW219007   4.670  14.876  11.221
 5704SOL     OW19008   8.526   6.645   6.368
 5704SOL    HW119009   8.464   6.653   6.295
 5704SOL    HW219010   8.584   6.573   6.342
 5705SOL     OW19011  10.476  12.181   7.975
 5705SOL    HW119012  10.551  12.122   7.982
 5705SOL    HW219013  10.428  12.169   8.057
 5706SOL     OW19014   4.131  14.705  14.106
 5706SOL    HW119015   4.139  14.794  14.073
 5706SOL    HW219016   4.134  14.715  14.202
 5707SOL     OW19017  11.144   7.974   9.883
 5707SOL    HW119018  11.119   7.882   9.895
 5707SOL    HW219019  11.224   7.984   9.933
 5708SOL     OW19020  10.538  10.054   8.998
 5708SOL    HW119021  10.612  10.058   9.059
 5708SOL    HW219022  10.519  10.145   8.977
 5709SOL     OW19023   5.826  12.224   0.289
 5709SOL    HW119024   5.808  12.308   0.330
 5709SOL    HW219025   5.866  12.247   0.205
 5710SOL     OW19026   5.149   5.897   6.670
 5710SOL    HW119027   5.180   5.927   6.756
 5710SOL    HW219028   5.068   5.945   6.656
 5711SOL     OW19029   9.149   1.683  10.162
 5711SOL    HW119030   9.214   1.677  10.092
 5711SOL    HW219031   9.125   1.592  10.181
 5712SOL     OW19032   7.791  13.255  11.102
 5712SOL    HW119033   7.831  13.174  11.073
 5712SOL    HW219034   7.777  13.305  11.022
 5713SOL     OW19035   1.150  12.486   9.011
 5713SOL    HW119036   1.236  12.466   8.975
 5713SOL    HW219037   1.134  12.419   9.077
 5714SOL     OW19038   6.365  12.292   5.619
 5714SOL    HW119039   6.326  12.220   5.569
 5714SOL    HW219040   6.298  12.360   5.620
 5715SOL     OW19041   6.594   4.224  12.836
 5715SOL    HW119042   6.579   4.244  12.744
 5715SOL    HW219043   6.603   4.309  12.878
 5716SOL     OW19044   0.730   7.615  13.802
 5716SOL    HW119045   0.643   7.653  13.790
 5716SOL    HW219046   0.714   7.522  13.816
 5717SOL     OW19047   5.667  11.537   4.409
 5717SOL    HW119048   5.727  11.570   4.342
 5717SOL    HW219049   5.580  11.541   4.369
 5718SOL     OW19050   8.452   0.856   5.629
 5718SOL    HW119051   8.403   0.931   5.593
 5718SOL    HW219052   8.398   0.780   5.606
 5719SOL     OW19053   6.975   3.654   4.502
 5719SOL    HW119054   7.035   3.728   4.510
 5719SOL    HW219055   7.032   3.579   4.488
 5720SOL     OW19056   7.626   9.430  14.469
 5720SOL    HW119057   7.589   9.342  14.456
 5720SOL    HW219058   7.683   9.420  14.546
 5721SOL     OW19059  10.277   3.781  11.381
 5721SOL    HW119060  10.191   3.810  11.411
 5721SOL    HW219061  10.262   3.692  11.348
 5722SOL     OW19062   2.440   4.517   7.016
 5722SOL    HW119063   2.407   4.428   7.000
 5722SOL    HW219064   2.440   4.559   6.930
 5723SOL     OW19065  11.242  12.704   4.219
 5723SOL    HW119066  11.248  12.767   4.147
 5723SOL    HW219067  11.309  12.733   4.281
 5724SOL     OW19068   0.234   5.851   4.220
 5724SOL    HW119069   0.251   5.774   4.274
 5724SOL    HW219070   0.173   5.903   4.272
 5725SOL     OW19071   5.387  13.288   0.564
 5725SOL    HW119072   5.355  13.372   0.530
 5725SOL    HW219073   5.478  13.284   0.534
 5726SOL     OW19074   2.335   4.974   5.255
 5726SOL    HW119075   2.290   4.908   5.201
 5726SOL    HW219076   2.265   5.027   5.292
 5727SOL     OW19077   3.091  14.741   9.040
 5727SOL    HW119078   3.111  14.787   9.122
 5727SOL    HW219079   3.003  14.707   9.052
 5728SOL     OW19080  14.646  13.575   6.747
 5728SOL    HW119081  14.636  13.480   6.736
 5728SOL    HW219082  14.568  13.612   6.704
 5729SOL     OW19083   9.712   0.536   6.266
 5729SOL    HW119084   9.777   0.599   6.296
 5729SOL    HW219085   9.650   0.528   6.338
 5730SOL     OW19086  11.656  14.311   5.391
 5730SOL    HW119087  11.725  14.329   5.327
 5730SOL    HW219088  11.620  14.397   5.413
 5731SOL     OW19089  10.635  10.909  12.393
 5731SOL    HW119090  10.561  10.850  12.405
 5731SOL    HW219091  10.688  10.867  12.325
 5732SOL     OW19092   5.148  13.555   0.035
 5732SOL    HW119093   5.095  13.540   0.113
 5732SOL    HW219094   5.117  13.639   0.000
 5733SOL     OW19095  13.232   3.666   2.742
 5733SOL    HW119096  13.248   3.589   2.688
 5733SOL    HW219097  13.230   3.740   2.681
 5734SOL     OW19098  12.370  12.837   4.571
 5734SOL    HW119099  12.409  12.841   4.483
 5734SOL    HW219100  12.331  12.923   4.584
 5735SOL     OW19101   2.929   6.058   6.503
 5735SOL    HW119102   2.896   6.147   6.519
 5735SOL    HW219103   3.024   6.065   6.512
 5736SOL     OW19104   1.951   7.823   9.599
 5736SOL    HW119105   1.930   7.736   9.566
 5736SOL    HW219106   2.044   7.819   9.621
 5737SOL     OW19107   1.913   0.315  13.722
 5737SOL    HW119108   1.930   0.346  13.811
 5737SOL    HW219109   1.940   0.388  13.666
 5738SOL     OW19110   9.603   6.679   7.186
 5738SOL    HW119111   9.557   6.603   7.152
 5738SOL    HW219112   9.548   6.754   7.161
 5739SOL     OW19113  14.310   8.966   4.274
 5739SOL    HW119114  14.223   8.948   4.239
 5739SOL    HW219115  14.303   9.054   4.312
 5740SOL     OW19116   6.273  14.759   4.926
 5740SOL    HW119117   6.182  14.787   4.937
 5740SOL    HW219118   6.323  14.841   4.929
 5741SOL     OW19119   0.095   4.996   4.587
 5741SOL    HW119120   0.028   4.929   4.581
 5741SOL    HW219121   0.121   5.012   4.496
 5742SOL     OW19122  13.146   5.948   2.585
 5742SOL    HW119123  13.122   6.037   2.609
 5742SOL    HW219124  13.163   5.905   2.669
 5743SOL     OW19125   3.441   4.730   0.650
 5743SOL    HW119126   3.447   4.783   0.729
 5743SOL    HW219127   3.463   4.641   0.678
 5744SOL     OW19128  12.342   2.988  10.915
 5744SOL    HW119129  12.368   3.079  10.928
 5744SOL    HW219130  12.423   2.938  10.922
 5745SOL     OW19131  12.082   5.764   5.587
 5745SOL    HW119132  12.056   5.856   5.575
 5745SOL    HW219133  12.060   5.722   5.504
 5746SOL     OW19134   6.358   9.286   2.818
 5746SOL    HW119135   6.350   9.375   2.783
 5746SOL    HW219136   6.430   9.291   2.881
 5747SOL     OW19137  13.854   0.554   0.957
 5747SOL    HW119138  13.844   0.518   1.044
 5747SOL    HW219139  13.813   0.641   0.961
 5748SOL     OW19140   5.834   6.332   5.579
 5748SOL    HW119141   5.882   6.415   5.575
 5748SOL    HW219142   5.902   6.265   5.578
 5749SOL     OW19143   8.003   1.785  11.760
 5749SOL    HW119144   7.989   1.729  11.684
 5749SOL    HW219145   7.916   1.818  11.783
 5750SOL     OW19146   0.429   1.925   7.991
 5750SOL    HW119147   0.482   2.004   7.989
 5750SOL    HW219148   0.397   1.915   7.902
 5751SOL     OW19149   7.608   7.966   8.154
 5751SOL    HW119150   7.651   7.903   8.097
 5751SOL    HW219151   7.567   8.029   8.094
 5752SOL     OW19152   0.751   3.909   7.586
 5752SOL    HW119153   0.708   3.833   7.546
 5752SOL    HW219154   0.771   3.967   7.512
 5753SOL     OW19155   0.310   3.823   0.538
 5753SOL    HW119156   0.244   3.833   0.607
 5753SOL    HW219157   0.259   3.801   0.459
 5754SOL     OW19158  14.494   2.148  13.131
 5754SOL    HW119159  14.537   2.209  13.071
 5754SOL    HW219160  14.418   2.196  13.164
 5755SOL     OW19161   3.318  10.662  14.028
 5755SOL    HW119162   3.293  10.591  14.088
 5755SOL    HW219163   3.413  10.665  14.032
 5756SOL     OW19164   1.860   7.317   2.253
 5756SOL    HW119165   1.882   7.258   2.180
 5756SOL    HW219166   1.831   7.258   2.323
 5757SOL     OW19167   4.747  14.383   8.740
 5757SOL    HW119168   4.664  14.340   8.725
 5757SOL    HW219169   4.813  14.316   8.722
 5758SOL     OW19170   5.049   3.990   6.139
 5758SOL    HW119171   5.119   4.048   6.169
 5758SOL    HW219172   5.048   3.918   6.203
 5759SOL     OW19173   7.925   9.686  13.702
 5759SOL    HW119174   7.973   9.603  13.706
 5759SOL    HW219175   7.993   9.752  13.687
 5760SOL     OW19176   9.717  10.466   3.265
 5760SOL    HW119177   9.733  10.448   3.173
 5760SOL    HW219178   9.791  10.520   3.293
 5761SOL     OW19179   4.135   6.329   0.816
 5761SOL    HW119180   4.190   6.377   0.755
 5761SOL    HW219181   4.098   6.258   0.764
 5762SOL     OW19182   6.618   1.103  10.966
 5762SOL    HW119183   6.700   1.150  10.949
 5762SOL    HW219184   6.644   1.030  11.023
 5763SOL     OW19185   4.594   9.907  14.185
 5763SOL    HW119186   4.664   9.878  14.244
 5763SOL    HW219187   4.534   9.833  14.181
 5764SOL     OW19188   3.073  10.605   9.503
 5764SOL    HW119189   3.101  10.696   9.511
 5764SOL    HW219190   3.103  10.579   9.416
 5765SOL     OW19191   3.791  10.427   1.016
 5765SOL    HW119192   3.768  10.516   1.042
 5765SOL    HW219193   3.883  10.433   0.989
 5766SOL     OW19194  13.277   1.548   7.503
 5766SOL    HW119195  13.345   1.616   7.499
 5766SOL    HW219196  13.313   1.475   7.452
 5767SOL     OW19197   2.209   3.694   1.753
 5767SOL    HW119198   2.149   3.656   1.817
 5767SOL    HW219199   2.214   3.628   1.683
 5768SOL     OW19200   9.840  12.264   7.151
 5768SOL    HW119201   9.841  12.208   7.074
 5768SOL    HW219202   9.824  12.352   7.115
 5769SOL     OW19203   6.611   8.241  12.562
 5769SOL    HW119204   6.661   8.201  12.633
 5769SOL    HW219205   6.520   8.237  12.592
 5770SOL     OW19206   9.837  12.661   3.825
 5770SOL    HW119207   9.818  12.642   3.733
 5770SOL    HW219208   9.862  12.754   3.826
 5771SOL     OW19209  10.457   3.233   5.582
 5771SOL    HW119210  10.416   3.190   5.657
 5771SOL    HW219211  10.533   3.179   5.561
 5772SOL     OW19212   6.264   7.778   5.086
 5772SOL    HW119213   6.278   7.687   5.111
 5772SOL    HW219214   6.342   7.824   5.116
 5773SOL     OW19215   0.926   7.138  13.402
 5773SOL    HW119216   0.962   7.167  13.319
 5773SOL    HW219217   0.836   7.172  13.402
 5774SOL     OW19218   2.289   9.543   4.592
 5774SOL    HW119219   2.324   9.537   4.681
 5774SOL    HW219220   2.350   9.601   4.546
 5775SOL     OW19221   3.418  13.838  11.014
 5775SOL    HW119222   3.488  13.883  10.968
 5775SOL    HW219223   3.462  13.772  11.067
 5776SOL     OW19224   8.507  10.017  12.344
 5776SOL    HW119225   8.537   9.929  12.368
 5776SOL    HW219226   8.430  10.002  12.290
 5777SOL     OW19227   9.949   6.385  14.453
 5777SOL    HW119228   9.876   6.326  14.466
 5777SOL    HW219229   9.954   6.397  14.358
 5778SOL     OW19230  10.857  12.578   0.724
 5778SOL    HW119231  10.929  12.640   0.711
 5778SOL    HW219232  10.882  12.501   0.673
 5779SOL     OW19233   2.068   8.058  13.843
 5779SOL    HW119234   2.132   7.989  13.859
 5779SOL    HW219235   2.031   8.037  13.757
 5780SOL     OW19236  10.846  10.837  12.607
 5780SOL    HW119237  10.759  10.865  12.579
 5780SOL    HW219238  10.845  10.742  12.599
 5781SOL     OW19239  13.634   0.176   9.038
 5781SOL    HW119240  13.543   0.167   9.067
 5781SOL    HW219241  13.660   0.087   9.013
 5782SOL     OW19242   4.630   8.138  12.958
 5782SOL    HW119243   4.708   8.093  12.926
 5782SOL    HW219244   4.579   8.071  13.003
 5783SOL     OW19245  14.542   9.817  10.165
 5783SOL    HW119246  14.538   9.913  10.175
 5783SOL    HW219247  14.487   9.783  10.235
 5784SOL     OW19248  10.334   8.969  14.159
 5784SOL    HW119249  10.276   8.899  14.130
 5784SOL    HW219250  10.275   9.040  14.185
 5785SOL     OW19251   3.763   4.059   2.526
 5785SOL    HW119252   3.682   4.098   2.561
 5785SOL    HW219253   3.827   4.130   2.531
 5786SOL     OW19254   2.140  11.691   3.864
 5786SOL    HW119255   2.148  11.691   3.769
 5786SOL    HW219256   2.071  11.627   3.882
 5787SOL     OW19257   3.463   0.417  11.819
 5787SOL    HW119258   3.387   0.420  11.877
 5787SOL    HW219259   3.424   0.411  11.731
 5788SOL     OW19260   8.063   0.877  10.554
 5788SOL    HW119261   8.152   0.909  10.541
 5788SOL    HW219262   8.060   0.851  10.646
 5789SOL     OW19263   7.441   2.712  11.643
 5789SOL    HW119264   7.430   2.663  11.724
 5789SOL    HW219265   7.493   2.789  11.668
 5790SOL     OW19266  11.536   5.483  11.457
 5790SOL    HW119267  11.497   5.429  11.525
 5790SOL    HW219268  11.462   5.520  11.409
 5791SOL     OW19269   2.712   5.633  14.843
 5791SOL    HW119270   2.775   5.662   0.028
 5791SOL    HW219271   2.682   5.714  14.801
 5792SOL     OW19272  14.848   5.409   1.438
 5792SOL    HW119273  14.786   5.350   1.397
 5792SOL    HW219274  14.799   5.490   1.454
 5793SOL     OW19275   8.936   5.031   7.869
 5793SOL    HW119276   8.873   5.103   7.876
 5793SOL    HW219277   9.021   5.075   7.859
 5794SOL     OW19278   9.927  10.645   9.943
 5794SOL    HW119279   9.950  10.575  10.004
 5794SOL    HW219280   9.835  10.664   9.961
 5795SOL     OW19281   5.281   8.919   0.102
 5795SOL    HW119282   5.244   8.879   0.180
 5795SOL    HW219283   5.349   8.858   0.074
 5796SOL     OW19284  14.465   0.064  14.864
 5796SOL    HW119285  14.477   0.042  14.772
 5796SOL    HW219286  14.393   0.007   0.011
 5797SOL     OW19287  10.890   8.863   5.399
 5797SOL    HW119288  10.823   8.808   5.357
 5797SOL    HW219289  10.839   8.927   5.449
 5798SOL     OW19290   7.951  10.582  12.961
 5798SOL    HW119291   8.023  10.524  12.984
 5798SOL    HW219292   7.879  10.523  12.938
 5799SOL     OW19293  13.056   8.886   8.295
 5799SOL    HW119294  13.140   8.879   8.340
 5799SOL    HW219295  13.019   8.797   8.299
 5800SOL     OW19296  14.858   1.806   5.463
 5800SOL    HW119297   0.046   1.820   5.526
 5800SOL    HW219298   0.017   1.822   5.378
 5801SOL     OW19299  10.117   0.013   2.775
 5801SOL    HW119300  10.088   0.036   2.864
 5801SOL    HW219301  10.039  14.856   2.734
 5802SOL     OW19302   9.171  10.694   5.700
 5802SOL    HW119303   9.167  10.599   5.715
 5802SOL    HW219304   9.084  10.717   5.668
 5803SOL     OW19305   0.627   3.506   9.485
 5803SOL    HW119306   0.543   3.473   9.454
 5803SOL    HW219307   0.605   3.555   9.565
 5804SOL     OW19308   6.586   0.545   7.630
 5804SOL    HW119309   6.628   0.620   7.672
 5804SOL    HW219310   6.581   0.480   7.700
 5805SOL     OW19311   6.803   5.078   2.059
 5805SOL    HW119312   6.811   5.071   1.964
 5805SOL    HW219313   6.843   4.998   2.093
 5806SOL     OW19314  12.094   1.062   9.622
 5806SOL    HW119315  12.100   1.157   9.608
 5806SOL    HW219316  12.040   1.052   9.700
 5807SOL     OW19317   8.902  10.288  13.575
 5807SOL    HW119318   8.911  10.225  13.646
 5807SOL    HW219319   8.809  10.309  13.574
 5808SOL     OW19320   2.361  14.424   1.193
 5808SOL    HW119321   2.337  14.363   1.123
 5808SOL    HW219322   2.445  14.461   1.165
 5809SOL     OW19323  14.392   6.039  11.071
 5809SOL    HW119324  14.446   6.071  10.998
 5809SOL    HW219325  14.344   6.115  11.102
 5810SOL     OW19326   6.048  12.994   4.227
 5810SOL    HW119327   5.959  13.002   4.261
 5810SOL    HW219328   6.099  12.964   4.302
 5811SOL     OW19329  12.463   2.619   5.329
 5811SOL    HW119330  12.416   2.651   5.253
 5811SOL    HW219331  12.411   2.648   5.404
 5812SOL     OW19332  10.488   9.288  11.247
 5812SOL    HW119333  10.499   9.301  11.153
 5812SOL    HW219334  10.559   9.339  11.287
 5813SOL     OW19335   1.791   1.787  11.524
 5813SOL    HW119336   1.736   1.809  11.448
 5813SOL    HW219337   1.729   1.769  11.594
 5814SOL     OW19338   9.600   1.172  11.532
 5814SOL    HW119339   9.677   1.223  11.509
 5814SOL    HW219340   9.550   1.166  11.450
 5815SOL     OW19341   6.502   6.014   6.298
 5815SOL    HW119342   6.577   5.981   6.347
 5815SOL    HW219343   6.477   6.094   6.343
 5816SOL     OW19344  13.072   9.765   6.509
 5816SOL    HW119345  13.077   9.702   6.437
 5816SOL    HW219346  12.983   9.800   6.504
 5817SOL     OW19347   5.516   0.896  12.331
 5817SOL    HW119348   5.569   0.831  12.284
 5817SOL    HW219349   5.552   0.897  12.419
 5818SOL     OW19350   4.764   9.376   3.757
 5818SOL    HW119351   4.702   9.448   3.770
 5818SOL    HW219352   4.827   9.410   3.693
 5819SOL     OW19353  13.883   5.685   6.328
 5819SOL    HW119354  13.899   5.736   6.407
 5819SOL    HW219355  13.789   5.698   6.311
 5820SOL     OW19356  14.091   3.395   6.532
 5820SOL    HW119357  14.114   3.379   6.624
 5820SOL    HW219358  14.171   3.429   6.493
 5821SOL     OW19359   0.642   4.583   0.700
 5821SOL    HW119360   0.682   4.637   0.768
 5821SOL    HW219361   0.553   4.566   0.731
 5822SOL     OW19362  12.222  11.211   0.670
 5822SOL    HW119363  12.285  11.207   0.598
 5822SOL    HW219364  12.192  11.302   0.670
 5823SOL     OW19365   7.800  12.347   9.444
 5823SOL    HW119366   7.804  12.321   9.352
 5823SOL    HW219367   7.744  12.425   9.445
 5824SOL     OW19368   7.311   7.262  13.347
 5824SOL    HW119369   7.369   7.334  13.322
 5824SOL    HW219370   7.232   7.276  13.296
 5825SOL     OW19371   3.777   4.862   5.196
 5825SOL    HW119372   3.845   4.882   5.261
 5825SOL    HW219373   3.816   4.886   5.112
 5826SOL     OW19374   7.587   7.491   1.162
 5826SOL    HW119375   7.535   7.497   1.242
 5826SOL    HW219376   7.651   7.422   1.181
 5827SOL     OW19377   2.599   0.317   7.470
 5827SOL    HW119378   2.637   0.353   7.390
 5827SOL    HW219379   2.667   0.259   7.505
 5828SOL     OW19380  12.799  12.658   7.322
 5828SOL    HW119381  12.775  12.740   7.277
 5828SOL    HW219382  12.884  12.678   7.363
 5829SOL     OW19383  11.454   3.793   1.288
 5829SOL    HW119384  11.539   3.818   1.251
 5829SOL    HW219385  11.454   3.830   1.376
 5830SOL     OW19386  10.815   0.808   6.787
 5830SOL    HW119387  10.901   0.771   6.810
 5830SOL    HW219388  10.810   0.889   6.837
 5831SOL     OW19389   5.081  11.131   7.852
 5831SOL    HW119390   5.011  11.134   7.917
 5831SOL    HW219391   5.041  11.164   7.772
 5832SOL     OW19392   3.531   2.457   2.547
 5832SOL    HW119393   3.493   2.446   2.634
 5832SOL    HW219394   3.474   2.405   2.489
 5833SOL     OW19395   4.527   1.294   1.060
 5833SOL    HW119396   4.435   1.282   1.084
 5833SOL    HW219397   4.535   1.254   0.974
 5834SOL     OW19398   9.238   9.157   7.716
 5834SOL    HW119399   9.167   9.218   7.736
 5834SOL    HW219400   9.194   9.079   7.684
 5835SOL     OW19401   6.638   7.907  12.039
 5835SOL    HW119402   6.598   7.935  12.122
 5835SOL    HW219403   6.606   7.970  11.975
 5836SOL     OW19404  14.292   9.768  11.353
 5836SOL    HW119405  14.298   9.773  11.448
 5836SOL    HW219406  14.220   9.827  11.330
 5837SOL     OW19407   5.225   1.241   9.869
 5837SOL    HW119408   5.258   1.321   9.911
 5837SOL    HW219409   5.291   1.220   9.803
 5838SOL     OW19410  12.853   8.149  14.036
 5838SOL    HW119411  12.813   8.211  13.975
 5838SOL    HW219412  12.920   8.201  14.082
 5839SOL     OW19413  12.103  13.679   5.009
 5839SOL    HW119414  12.054  13.760   5.018
 5839SOL    HW219415  12.036  13.610   5.017
 5840SOL     OW19416  11.952  14.703   1.577
 5840SOL    HW119417  11.982  14.713   1.667
 5840SOL    HW219418  12.030  14.675   1.529
 5841SOL     OW19419   9.045   3.459  13.733
 5841SOL    HW119420   9.033   3.554  13.732
 5841SOL    HW219421   9.066   3.438  13.824
 5842SOL     OW19422  14.191   2.000  13.195
 5842SOL    HW119423  14.184   2.094  13.214
 5842SOL    HW219424  14.208   1.960  13.281
 5843SOL     OW19425   7.803  10.761   6.314
 5843SOL    HW119426   7.719  10.789   6.350
 5843SOL    HW219427   7.795  10.773   6.220
 5844SOL     OW19428   4.349   7.689   3.726
 5844SOL    HW119429   4.328   7.676   3.818
 5844SOL    HW219430   4.442   7.712   3.725
 5845SOL     OW19431   0.223  11.078  12.348
 5845SOL    HW119432   0.236  11.083  12.254
 5845SOL    HW219433   0.155  11.144  12.365
 5846SOL     OW19434  12.448   7.250   2.543
 5846SOL    HW119435  12.476   7.191   2.613
 5846SOL    HW219436  12.363   7.283   2.572
 5847SOL     OW19437  10.344   4.932   5.976
 5847SOL    HW119438  10.437   4.922   5.997
 5847SOL    HW219439  10.341   4.933   5.880
 5848SOL     OW19440  10.052   8.924   6.773
 5848SOL    HW119441  10.038   9.014   6.801
 5848SOL    HW219442  10.132   8.896   6.819
 5849SOL     OW19443   4.666   8.647  11.055
 5849SOL    HW119444   4.759   8.661  11.038
 5849SOL    HW219445   4.621   8.710  10.998
 5850SOL     OW19446  10.914  13.612   8.508
 5850SOL    HW119447  10.953  13.634   8.424
 5850SOL    HW219448  10.863  13.690   8.532
 5851SOL     OW19449   6.499   2.099   7.600
 5851SOL    HW119450   6.404   2.094   7.607
 5851SOL    HW219451   6.523   2.027   7.542
 5852SOL     OW19452   0.381   3.378   9.460
 5852SOL    HW119453   0.363   3.337   9.544
 5852SOL    HW219454   0.298   3.376   9.414
 5853SOL     OW19455  12.145   7.371  13.273
 5853SOL    HW119456  12.086   7.445  13.263
 5853SOL    HW219457  12.087   7.294  13.273
 5854SOL     OW19458  14.827   7.554  13.446
 5854SOL    HW119459  14.851   7.631  13.394
 5854SOL    HW219460  14.877   7.483  13.406
 5855SOL     OW19461   0.881   0.861   7.323
 5855SOL    HW119462   0.913   0.788   7.375
 5855SOL    HW219463   0.961   0.909   7.298
 5856SOL     OW19464   1.194   7.492   0.749
 5856SOL    HW119465   1.176   7.516   0.840
 5856SOL    HW219466   1.127   7.537   0.698
 5857SOL     OW19467   5.304   1.691   5.113
 5857SOL    HW119468   5.289   1.767   5.168
 5857SOL    HW219469   5.397   1.670   5.126
 5858SOL     OW19470   9.672   8.554  10.287
 5858SOL    HW119471   9.611   8.627  10.276
 5858SOL    HW219472   9.658   8.525  10.377
 5859SOL     OW19473   6.999   2.478   4.825
 5859SOL    HW119474   7.029   2.416   4.759
 5859SOL    HW219475   6.967   2.424   4.897
 5860SOL     OW19476   9.354   2.977   4.911
 5860SOL    HW119477   9.377   2.991   5.003
 5860SOL    HW219478   9.415   2.910   4.881
 5861SOL     OW19479   4.357  13.243   9.659
 5861SOL    HW119480   4.447  13.211   9.671
 5861SOL    HW219481   4.320  13.185   9.593
 5862SOL     OW19482  11.111   7.338   7.694
 5862SOL    HW119483  11.071   7.406   7.639
 5862SOL    HW219484  11.042   7.273   7.705
 5863SOL     OW19485   7.697  11.712   6.829
 5863SOL    HW119486   7.745  11.795   6.826
 5863SOL    HW219487   7.646  11.717   6.910
 5864SOL     OW19488   6.935   6.986   8.943
 5864SOL    HW119489   7.013   7.034   8.915
 5864SOL    HW219490   6.936   6.906   8.891
 5865SOL     OW19491   7.999   8.437  11.857
 5865SOL    HW119492   8.056   8.422  11.781
 5865SOL    HW219493   7.934   8.500  11.826
 5866SOL     OW19494  14.497   6.307  10.217
 5866SOL    HW119495  14.440   6.370  10.262
 5866SOL    HW219496  14.566   6.288  10.280
 5867SOL     OW19497   3.569  11.773  11.166
 5867SOL    HW119498   3.559  11.837  11.095
 5867SOL    HW219499   3.505  11.705  11.145
 5868SOL     OW19500   6.393   4.612   7.560
 5868SOL    HW119501   6.351   4.696   7.581
 5868SOL    HW219502   6.351   4.549   7.618
 5869SOL     OW19503  11.550   9.515   1.224
 5869SOL    HW119504  11.593   9.434   1.253
 5869SOL    HW219505  11.463   9.488   1.196
 5870SOL     OW19506   2.122   5.221   1.285
 5870SOL    HW119507   2.149   5.208   1.376
 5870SOL    HW219508   2.132   5.315   1.270
 5871SOL     OW19509  14.354   5.296   3.882
 5871SOL    HW119510  14.424   5.288   3.948
 5871SOL    HW219511  14.288   5.232   3.910
 5872SOL     OW19512   2.761  10.346   4.789
 5872SOL    HW119513   2.844  10.325   4.746
 5872SOL    HW219514   2.694  10.313   4.729
 5873SOL     OW19515   3.445   2.608  11.983
 5873SOL    HW119516   3.430   2.664  12.059
 5873SOL    HW219517   3.539   2.591  11.984
 5874SOL     OW19518   1.427   7.627   0.806
 5874SOL    HW119519   1.338   7.601   0.780
 5874SOL    HW219520   1.441   7.711   0.763
 5875SOL     OW19521   5.800  13.978   7.229
 5875SOL    HW119522   5.769  13.917   7.297
 5875SOL    HW219523   5.895  13.973   7.234
 5876SOL     OW19524   0.393   0.222  13.348
 5876SOL    HW119525   0.390   0.207  13.442
 5876SOL    HW219526   0.468   0.172  13.317
 5877SOL     OW19527  11.479   3.412   6.805
 5877SOL    HW119528  11.420   3.388   6.877
 5877SOL    HW219529  11.566   3.401   6.842
 5878SOL     OW19530   7.480   6.954   5.804
 5878SOL    HW119531   7.526   6.917   5.879
 5878SOL    HW219532   7.544   7.011   5.762
 5879SOL     OW19533  13.294   8.240   3.629
 5879SOL    HW119534  13.357   8.278   3.691
 5879SOL    HW219535  13.274   8.311   3.569
 5880SOL     OW19536  11.272   1.976   7.510
 5880SOL    HW119537  11.348   1.978   7.451
 5880SOL    HW219538  11.222   2.054   7.486
 5881SOL     OW19539   3.598  10.155   2.887
 5881SOL    HW119540   3.524  10.209   2.914
 5881SOL    HW219541   3.559  10.084   2.836
 5882SOL     OW19542  10.862   0.396   2.271
 5882SOL    HW119543  10.947   0.402   2.227
 5882SOL    HW219544  10.875   0.331   2.340
 5883SOL     OW19545  14.794  12.883  10.366
 5883SOL    HW119546  14.761  12.835  10.442
 5883SOL    HW219547  14.769  12.974  10.381
 5884SOL     OW19548   0.992  10.048   0.604
 5884SOL    HW119549   1.063  10.005   0.652
 5884SOL    HW219550   0.912  10.014   0.644
 5885SOL     OW19551  11.356  11.019  13.820
 5885SOL    HW119552  11.434  11.032  13.766
 5885SOL    HW219553  11.378  11.058  13.904
 5886SOL     OW19554  11.299   9.321   5.996
 5886SOL    HW119555  11.309   9.238   6.043
 5886SOL    HW219556  11.339   9.305   5.911
 5887SOL     OW19557   9.019   4.175  10.827
 5887SOL    HW119558   9.070   4.252  10.802
 5887SOL    HW219559   8.932   4.210  10.849
 5888SOL     OW19560   2.608   7.052  13.335
 5888SOL    HW119561   2.555   6.977  13.363
 5888SOL    HW219562   2.544   7.117  13.307
 5889SOL     OW19563   3.872   6.381  11.054
 5889SOL    HW119564   3.800   6.408  10.996
 5889SOL    HW219565   3.888   6.457  11.109
 5890SOL     OW19566  10.582  13.647   0.445
 5890SOL    HW119567  10.578  13.679   0.535
 5890SOL    HW219568  10.628  13.716   0.397
 5891SOL     OW19569   7.773  12.806  10.776
 5891SOL    HW119570   7.848  12.747  10.774
 5891SOL    HW219571   7.793  12.872  10.710
 5892SOL     OW19572  13.513   8.314  12.419
 5892SOL    HW119573  13.419   8.308  12.403
 5892SOL    HW219574  13.523   8.396  12.469
 5893SOL     OW19575   5.034   3.035   6.071
 5893SOL    HW119576   4.986   3.023   6.153
 5893SOL    HW219577   4.971   3.076   6.012
 5894SOL     OW19578   8.470   3.420  10.863
 5894SOL    HW119579   8.473   3.494  10.924
 5894SOL    HW219580   8.428   3.454  10.785
 5895SOL     OW19581  12.478  13.878   2.928
 5895SOL    HW119582  12.437  13.797   2.899
 5895SOL    HW219583  12.434  13.900   3.010
 5896SOL     OW19584   4.789   5.086  11.007
 5896SOL    HW119585   4.844   5.143  10.953
 5896SOL    HW219586   4.845   5.012  11.029
 5897SOL     OW19587  13.191   0.665   6.879
 5897SOL    HW119588  13.238   0.725   6.937
 5897SOL    HW219589  13.144   0.723   6.819
 5898SOL     OW19590   3.356   1.688  11.813
 5898SOL    HW119591   3.388   1.774  11.841
 5898SOL    HW219592   3.431   1.647  11.770
 5899SOL     OW19593   0.797  14.022   2.278
 5899SOL    HW119594   0.725  14.080   2.303
 5899SOL    HW219595   0.817  14.047   2.187
 5900SOL     OW19596   1.876  12.363   8.248
 5900SOL    HW119597   1.898  12.452   8.277
 5900SOL    HW219598   1.960  12.316   8.248
 5901SOL     OW19599  13.049   0.269   6.343
 5901SOL    HW119600  12.981   0.323   6.302
 5901SOL    HW219601  13.089   0.327   6.409
 5902SOL     OW19602   5.062   0.439   9.195
 5902SOL    HW119603   5.125   0.392   9.140
 5902SOL    HW219604   5.061   0.391   9.278
 5903SOL     OW19605  13.328  14.510   4.938
 5903SOL    HW119606  13.264  14.581   4.944
 5903SOL    HW219607  13.353  14.493   5.029
 5904SOL     OW19608   8.580   1.879   4.810
 5904SOL    HW119609   8.502   1.879   4.756
 5904SOL    HW219610   8.642   1.824   4.763
 5905SOL     OW19611  11.128   0.370   4.010
 5905SOL    HW119612  11.218   0.356   3.981
 5905SOL    HW219613  11.090   0.282   4.012
 5906SOL     OW19614  11.395  11.185   2.532
 5906SOL    HW119615  11.404  11.255   2.596
 5906SOL    HW219616  11.323  11.131   2.565
 5907SOL     OW19617   1.259   8.137   2.840
 5907SOL    HW119618   1.317   8.201   2.798
 5907SOL    HW219619   1.176   8.183   2.851
 5908SOL     OW19620   2.618  12.724   1.848
 5908SOL    HW119621   2.711  12.708   1.838
 5908SOL    HW219622   2.608  12.818   1.831
 5909SOL     OW19623  10.067  13.580  12.080
 5909SOL    HW119624  10.149  13.599  12.033
 5909SOL    HW219625  10.092  13.514  12.145
 5910SOL     OW19626  14.554   2.705  13.017
 5910SOL    HW119627  14.480   2.644  13.020
 5910SOL    HW219628  14.599   2.692  13.101
 5911SOL     OW19629   1.509   4.570   6.965
 5911SOL    HW119630   1.529   4.572   7.058
 5911SOL    HW219631   1.588   4.532   6.925
 5912SOL     OW19632   2.281  13.918   1.745
 5912SOL    HW119633   2.296  13.903   1.839
 5912SOL    HW219634   2.272  14.013   1.738
 5913SOL     OW19635   3.355   0.918   6.439
 5913SOL    HW119636   3.385   0.831   6.466
 5913SOL    HW219637   3.408   0.938   6.362
 5914SOL     OW19638   0.400   0.893  11.621
 5914SOL    HW119639   0.337   0.940  11.675
 5914SOL    HW219640   0.472   0.955  11.610
 5915SOL     OW19641  13.045   5.083   0.360
 5915SOL    HW119642  12.981   5.155   0.362
 5915SOL    HW219643  13.047   5.050   0.449
 5916SOL     OW19644  13.395  14.370   6.734
 5916SOL    HW119645  13.478  14.351   6.777
 5916SOL    HW219646  13.419  14.427   6.661
 5917SOL     OW19647   6.026   4.716   2.003
 5917SOL    HW119648   5.931   4.724   1.994
 5917SOL    HW219649   6.055   4.804   2.028
 5918SOL     OW19650   7.281  13.777   8.394
 5918SOL    HW119651   7.202  13.812   8.352
 5918SOL    HW219652   7.306  13.702   8.339
 5919SOL     OW19653   1.530  14.641   2.294
 5919SOL    HW119654   1.610  14.614   2.250
 5919SOL    HW219655   1.482  14.559   2.309
 5920SOL     OW19656   9.651   3.385   3.901
 5920SOL    HW119657   9.571   3.416   3.859
 5920SOL    HW219658   9.703   3.349   3.828
 5921SOL     OW19659   0.883   0.430   6.103
 5921SOL    HW119660   0.937   0.400   6.176
 5921SOL    HW219661   0.836   0.506   6.137
 5922SOL     OW19662   9.839   2.162  10.521
 5922SOL    HW119663   9.897   2.222  10.474
 5922SOL    HW219664   9.757   2.165  10.472
 5923SOL     OW19665   6.395   2.810   1.622
 5923SOL    HW119666   6.317   2.782   1.574
 5923SOL    HW219667   6.423   2.731   1.669
 5924SOL     OW19668   5.478   7.552   9.946
 5924SOL    HW119669   5.421   7.514  10.014
 5924SOL    HW219670   5.422   7.616   9.902
 5925SOL     OW19671   9.859   8.079   9.661
 5925SOL    HW119672   9.810   8.151   9.621
 5925SOL    HW219673   9.802   8.048   9.732
 5926SOL     OW19674   7.785   1.808  13.853
 5926SOL    HW119675   7.805   1.897  13.823
 5926SOL    HW219676   7.691   1.799  13.841
 5927SOL     OW19677   5.579   3.773   0.307
 5927SOL    HW119678   5.511   3.772   0.240
 5927SOL    HW219679   5.660   3.793   0.260
 5928SOL     OW19680   0.120  10.830   3.093
 5928SOL    HW119681   0.159  10.788   3.017
 5928SOL    HW219682   0.171  10.910   3.105
 5929SOL     OW19683   9.676  13.807   3.426
 5929SOL    HW119684   9.670  13.893   3.384
 5929SOL    HW219685   9.586  13.785   3.449
 5930SOL     OW19686   1.221   5.797   3.653
 5930SOL    HW119687   1.265   5.878   3.628
 5930SOL    HW219688   1.184   5.816   3.739
 5931SOL     OW19689   9.006   1.838   7.042
 5931SOL    HW119690   8.971   1.927   7.043
 5931SOL    HW219691   8.937   1.785   7.080
 5932SOL     OW19692   1.220   4.056   0.818
 5932SOL    HW119693   1.223   4.014   0.904
 5932SOL    HW219694   1.312   4.059   0.790
 5933SOL     OW19695   4.135   7.513   4.378
 5933SOL    HW119696   4.127   7.601   4.341
 5933SOL    HW219697   4.045   7.486   4.396
 5934SOL     OW19698  14.638   9.090   2.215
 5934SOL    HW119699  14.584   9.054   2.144
 5934SOL    HW219700  14.609   9.044   2.293
 5935SOL     OW19701   7.998  13.248   1.554
 5935SOL    HW119702   8.025  13.157   1.565
 5935SOL    HW219703   7.909  13.252   1.590
 5936SOL     OW19704   2.941   7.248   9.636
 5936SOL    HW119705   2.997   7.315   9.675
 5936SOL    HW219706   2.916   7.192   9.710
 5937SOL     OW19707   6.855   7.222   7.729
 5937SOL    HW119708   6.922   7.249   7.792
 5937SOL    HW219709   6.772   7.234   7.775
 5938SOL     OW19710   8.244   0.202  12.051
 5938SOL    HW119711   8.188   0.127  12.031
 5938SOL    HW219712   8.333   0.165  12.055
 5939SOL     OW19713   8.336  13.079   8.248
 5939SOL    HW119714   8.367  13.169   8.240
 5939SOL    HW219715   8.270  13.082   8.318
 5940SOL     OW19716   8.832   3.797  13.265
 5940SOL    HW119717   8.851   3.830  13.177
 5940SOL    HW219718   8.739   3.817  13.278
 5941SOL     OW19719   1.652   0.183   4.985
 5941SOL    HW119720   1.643   0.271   5.022
 5941SOL    HW219721   1.563   0.159   4.960
 5942SOL     OW19722  14.137   1.812   7.897
 5942SOL    HW119723  14.048   1.779   7.904
 5942SOL    HW219724  14.192   1.739   7.927
 5943SOL     OW19725   7.631   9.592   9.412
 5943SOL    HW119726   7.591   9.647   9.480
 5943SOL    HW219727   7.561   9.575   9.350
 5944SOL     OW19728   7.365  11.476   9.470
 5944SOL    HW119729   7.443  11.503   9.421
 5944SOL    HW219730   7.343  11.390   9.435
 5945SOL     OW19731  11.135   8.089   3.474
 5945SOL    HW119732  11.158   8.170   3.519
 5945SOL    HW219733  11.047   8.105   3.440
 5946SOL     OW19734   0.575  11.105  11.987
 5946SOL    HW119735   0.655  11.151  11.961
 5946SOL    HW219736   0.545  11.061  11.907
 5947SOL     OW19737   3.959   3.331   5.137
 5947SOL    HW119738   4.008   3.403   5.095
 5947SOL    HW219739   4.022   3.293   5.198
 5948SOL     OW19740   1.259   0.133   7.599
 5948SOL    HW119741   1.305   0.215   7.617
 5948SOL    HW219742   1.279   0.077   7.673
 5949SOL     OW19743   5.129  10.908  13.709
 5949SOL    HW119744   5.161  10.850  13.640
 5949SOL    HW219745   5.207  10.954  13.740
 5950SOL     OW19746   9.495  10.924   1.437
 5950SOL    HW119747   9.571  10.952   1.387
 5950SOL    HW219748   9.458  10.852   1.385
 5951SOL     OW19749   1.973  11.480   7.746
 5951SOL    HW119750   1.908  11.453   7.811
 5951SOL    HW219751   2.042  11.413   7.751
 5952SOL     OW19752   6.949   2.323   2.334
 5952SOL    HW119753   6.955   2.235   2.297
 5952SOL    HW219754   6.902   2.374   2.268
 5953SOL     OW19755   8.821   8.795   6.119
 5953SOL    HW119756   8.914   8.773   6.113
 5953SOL    HW219757   8.818   8.873   6.174
 5954SOL     OW19758   4.191   6.527   8.052
 5954SOL    HW119759   4.123   6.466   8.081
 5954SOL    HW219760   4.220   6.570   8.133
 5955SOL     OW19761  10.617   2.238   7.643
 5955SOL    HW119762  10.621   2.309   7.579
 5955SOL    HW219763  10.564   2.170   7.599
 5956SOL     OW19764   0.153   9.938  13.225
 5956SOL    HW119765   0.092   9.987  13.280
 5956SOL    HW219766   0.206   9.888  13.287
 5957SOL     OW19767   2.608   9.343   3.144
 5957SOL    HW119768   2.700   9.322   3.129
 5957SOL    HW219769   2.561   9.261   3.132
 5958SOL     OW19770   4.181   0.460   5.582
 5958SOL    HW119771   4.219   0.536   5.626
 5958SOL    HW219772   4.188   0.481   5.489
 5959SOL     OW19773   3.323   9.048   8.633
 5959SOL    HW119774   3.405   9.002   8.618
 5959SOL    HW219775   3.265   9.019   8.562
 5960SOL     OW19776   9.485  12.989   9.978
 5960SOL    HW119777   9.419  13.015   9.914
 5960SOL    HW219778   9.549  12.938   9.927
 5961SOL     OW19779   0.133  13.045   5.926
 5961SOL    HW119780   0.169  13.059   5.839
 5961SOL    HW219781   0.093  13.129   5.949
 5962SOL     OW19782   3.920   0.756  11.814
 5962SOL    HW119783   3.904   0.689  11.747
 5962SOL    HW219784   3.983   0.816  11.774
 5963SOL     OW19785   4.461  13.930   8.675
 5963SOL    HW119786   4.487  13.856   8.730
 5963SOL    HW219787   4.512  13.920   8.595
 5964SOL     OW19788   8.261  11.687  13.681
 5964SOL    HW119789   8.243  11.634  13.604
 5964SOL    HW219790   8.269  11.776  13.648
 5965SOL     OW19791  13.819  14.577   2.238
 5965SOL    HW119792  13.766  14.507   2.275
 5965SOL    HW219793  13.897  14.580   2.293
 5966SOL     OW19794  12.704  12.266   8.326
 5966SOL    HW119795  12.639  12.243   8.259
 5966SOL    HW219796  12.761  12.329   8.283
 5967SOL     OW19797   7.384   4.221   5.771
 5967SOL    HW119798   7.466   4.183   5.803
 5967SOL    HW219799   7.411   4.287   5.707
 5968SOL     OW19800   2.825  10.180   2.631
 5968SOL    HW119801   2.890  10.113   2.611
 5968SOL    HW219802   2.755  10.132   2.676
 5969SOL     OW19803   7.264   9.336   8.247
 5969SOL    HW119804   7.357   9.347   8.226
 5969SOL    HW219805   7.222   9.319   8.163
 5970SOL     OW19806   2.592  13.159  14.388
 5970SOL    HW119807   2.527  13.187  14.324
 5970SOL    HW219808   2.579  13.218  14.463
 5971SOL     OW19809   8.153  11.729   4.500
 5971SOL    HW119810   8.178  11.654   4.553
 5971SOL    HW219811   8.057  11.731   4.504
 5972SOL     OW19812  14.478   2.160   8.027
 5972SOL    HW119813  14.448   2.076   8.062
 5972SOL    HW219814  14.515   2.205   8.103
 5973SOL     OW19815  13.426   6.654   6.744
 5973SOL    HW119816  13.374   6.604   6.807
 5973SOL    HW219817  13.432   6.742   6.783
 5974SOL     OW19818   0.965   2.434   0.071
 5974SOL    HW119819   0.914   2.507   0.037
 5974SOL    HW219820   0.930   2.357   0.026
 5975SOL     OW19821   6.363  12.607   1.467
 5975SOL    HW119822   6.313  12.533   1.431
 5975SOL    HW219823   6.355  12.676   1.401
 5976SOL     OW19824  10.612   5.587   4.752
 5976SOL    HW119825  10.550   5.600   4.681
 5976SOL    HW219826  10.691   5.632   4.724
 5977SOL     OW19827   0.971   7.262   6.177
 5977SOL    HW119828   1.020   7.256   6.095
 5977SOL    HW219829   1.017   7.203   6.236
 5978SOL     OW19830   3.564   1.861   1.855
 5978SOL    HW119831   3.548   1.777   1.898
 5978SOL    HW219832   3.503   1.863   1.781
 5979SOL     OW19833   5.087  10.598  14.758
 5979SOL    HW119834   4.993  10.611  14.746
 5979SOL    HW219835   5.126  10.631  14.677
 5980SOL     OW19836   7.905   7.639   7.545
 5980SOL    HW119837   7.841   7.708   7.558
 5980SOL    HW219838   7.989   7.679   7.569
 5981SOL     OW19839   8.414   8.260   6.491
 5981SOL    HW119840   8.406   8.352   6.516
 5981SOL    HW219841   8.470   8.261   6.413
 5982SOL     OW19842   8.119   0.461   9.859
 5982SOL    HW119843   8.051   0.528   9.861
 5982SOL    HW219844   8.125   0.435   9.767
 5983SOL     OW19845  13.375  10.964   5.148
 5983SOL    HW119846  13.415  11.043   5.112
 5983SOL    HW219847  13.429  10.893   5.113
 5984SOL     OW19848  14.416  10.967   0.038
 5984SOL    HW119849  14.372  10.942   0.120
 5984SOL    HW219850  14.479  11.033   0.064
 5985SOL     OW19851  12.553  12.922  11.903
 5985SOL    HW119852  12.589  12.991  11.848
 5985SOL    HW219853  12.499  12.870  11.844
 5986SOL     OW19854  10.377   6.072   8.854
 5986SOL    HW119855  10.304   6.013   8.836
 5986SOL    HW219856  10.378   6.133   8.780
 5987SOL     OW19857   2.373  10.478   0.193
 5987SOL    HW119858   2.295  10.527   0.165
 5987SOL    HW219859   2.377  10.404   0.132
 5988SOL     OW19860   6.706   6.847  13.097
 5988SOL    HW119861   6.706   6.942  13.086
 5988SOL    HW219862   6.673   6.833  13.186
 5989SOL     OW19863   1.098   3.880  10.408
 5989SOL    HW119864   1.160   3.811  10.381
 5989SOL    HW219865   1.151   3.942  10.458
 5990SOL     OW19866   9.383  11.324   2.841
 5990SOL    HW119867   9.334  11.293   2.918
 5990SOL    HW219868   9.392  11.247   2.785
 5991SOL     OW19869   6.287   4.865   7.628
 5991SOL    HW119870   6.276   4.876   7.723
 5991SOL    HW219871   6.333   4.944   7.600
 5992SOL     OW19872   6.161   6.706   8.145
 5992SOL    HW119873   6.255   6.692   8.141
 5992SOL    HW219874   6.137   6.680   8.234
 5993SOL     OW19875  11.881  12.818   5.236
 5993SOL    HW119876  11.944  12.785   5.302
 5993SOL    HW219877  11.823  12.875   5.286
 5994SOL     OW19878   6.776  13.548  10.952
 5994SOL    HW119879   6.781  13.453  10.958
 5994SOL    HW219880   6.866  13.578  10.968
 5995SOL     OW19881  11.171   4.871   5.824
 5995SOL    HW119882  11.203   4.940   5.882
 5995SOL    HW219883  11.233   4.871   5.750
 5996SOL     OW19884   3.259   3.186   9.171
 5996SOL    HW119885   3.353   3.187   9.152
 5996SOL    HW219886   3.219   3.229   9.095
 5997SOL     OW19887  13.357   2.393   9.806
 5997SOL    HW119888  13.300   2.367   9.878
 5997SOL    HW219889  13.356   2.488   9.807
 5998SOL     OW19890  12.788   2.602   0.783
 5998SOL    HW119891  12.875   2.580   0.816
 5998SOL    HW219892  12.784   2.561   0.697
 5999SOL     OW19893   0.912   8.783  13.590
 5999SOL    HW119894   0.916   8.688  13.595
 5999SOL    HW219895   0.962   8.805  13.512
 6000SOL     OW19896   8.381  14.303  12.936
 6000SOL    HW119897   8.324  14.269  13.005
 6000SOL    HW219898   8.383  14.232  12.870
 6001SOL     OW19899   5.887  13.170  11.909
 6001SOL    HW119900   5.902  13.187  11.816
 6001SOL    HW219901   5.836  13.246  11.939
 6002SOL     OW19902  14.071   1.644  10.667
 6002SOL    HW119903  14.050   1.688  10.585
 6002SOL    HW219904  14.087   1.716  10.729
 6003SOL     OW19905   2.062   0.556   8.419
 6003SOL    HW119906   2.091   0.623   8.481
 6003SOL    HW219907   2.009   0.603   8.355
 6004SOL     OW19908   4.250   2.892  12.825
 6004SOL    HW119909   4.319   2.953  12.851
 6004SOL    HW219910   4.271   2.811  12.871
 6005SOL     OW19911   3.131  14.619  10.309
 6005SOL    HW119912   3.071  14.548  10.285
 6005SOL    HW219913   3.093  14.655  10.390
 6006SOL     OW19914  14.763  10.002  13.404
 6006SOL    HW119915  14.690  10.051  13.443
 6006SOL    HW219916  14.740   9.995  13.311
 6007SOL     OW19917   1.908   2.872  12.422
 6007SOL    HW119918   1.995   2.834  12.427
 6007SOL    HW219919   1.867   2.828  12.348
 6008SOL     OW19920  13.703   0.844   6.837
 6008SOL    HW119921  13.682   0.751   6.846
 6008SOL    HW219922  13.714   0.875   6.927
 6009SOL     OW19923   3.389   8.576   8.824
 6009SOL    HW119924   3.445   8.513   8.870
 6009SOL    HW219925   3.445   8.653   8.812
 6010SOL     OW19926   8.731  12.556   3.131
 6010SOL    HW119927   8.764  12.466   3.132
 6010SOL    HW219928   8.797  12.606   3.179
 6011SOL     OW19929  14.565   4.167  11.019
 6011SOL    HW119930  14.546   4.176  11.112
 6011SOL    HW219931  14.660   4.159  11.015
 6012SOL     OW19932   7.559  14.474   6.952
 6012SOL    HW119933   7.573  14.383   6.928
 6012SOL    HW219934   7.512  14.512   6.877
 6013SOL     OW19935   5.537  13.108   1.821
 6013SOL    HW119936   5.550  13.203   1.821
 6013SOL    HW219937   5.456  13.095   1.870
 6014SOL     OW19938   6.788   4.354   1.256
 6014SOL    HW119939   6.693   4.349   1.257
 6014SOL    HW219940   6.817   4.267   1.227
 6015SOL     OW19941  13.607  12.219   4.531
 6015SOL    HW119942  13.565  12.305   4.535
 6015SOL    HW219943  13.585  12.185   4.445
 6016SOL     OW19944  12.019  14.828   0.997
 6016SOL    HW119945  12.028  14.786   1.082
 6016SOL    HW219946  12.005   0.038   1.017
 6017SOL     OW19947   9.433  11.844   5.775
 6017SOL    HW119948   9.437  11.909   5.704
 6017SOL    HW219949   9.410  11.895   5.852
 6018SOL     OW19950   2.911   9.061   8.364
 6018SOL    HW119951   2.982   9.112   8.324
 6018SOL    HW219952   2.846   9.052   8.294
 6019SOL     OW19953   0.135   2.239   1.642
 6019SOL    HW119954   0.172   2.152   1.628
 6019SOL    HW219955   0.117   2.271   1.554
 6020SOL     OW19956   0.570  11.659   3.454
 6020SOL    HW119957   0.544  11.718   3.526
 6020SOL    HW219958   0.556  11.571   3.490
 6021SOL     OW19959   0.015   4.107  14.435
 6021SOL    HW119960   0.040   4.020  14.405
 6021SOL    HW219961  14.802   4.102  14.444
 6022SOL     OW19962  10.052   9.435  12.252
 6022SOL    HW119963  10.116   9.379  12.208
 6022SOL    HW219964  10.008   9.483  12.182
 6023SOL     OW19965  10.280  14.434   5.178
 6023SOL    HW119966  10.363  14.476   5.201
 6023SOL    HW219967  10.297  14.341   5.191
 6024SOL     OW19968  12.199  13.376   7.760
 6024SOL    HW119969  12.283  13.421   7.768
 6024SOL    HW219970  12.222  13.289   7.726
 6025SOL     OW19971   5.268   7.092  14.062
 6025SOL    HW119972   5.336   7.158  14.051
 6025SOL    HW219973   5.193   7.128  14.014
 6026SOL     OW19974   5.372   5.982   5.037
 6026SOL    HW119975   5.458   6.024   5.036
 6026SOL    HW219976   5.391   5.889   5.024
 6027SOL     OW19977   0.010  14.062   1.673
 6027SOL    HW119978   0.009  14.096   1.584
 6027SOL    HW219979   0.050  13.976   1.666
 6028SOL     OW19980   9.549   4.173   3.864
 6028SOL    HW119981   9.543   4.120   3.784
 6028SOL    HW219982   9.550   4.264   3.832
 6029SOL     OW19983  11.292   3.908   1.717
 6029SOL    HW119984  11.244   3.877   1.640
 6029SOL    HW219985  11.351   3.975   1.683
 6030SOL     OW19986   4.264  11.098   2.036
 6030SOL    HW119987   4.237  11.079   2.126
 6030SOL    HW219988   4.289  11.191   2.038
 6031SOL     OW19989   4.762   6.778   6.010
 6031SOL    HW119990   4.807   6.721   5.948
 6031SOL    HW219991   4.697   6.722   6.052
 6032SOL     OW19992   4.229   8.269   6.621
 6032SOL    HW119993   4.258   8.317   6.699
 6032SOL    HW219994   4.214   8.180   6.652
 6033SOL     OW19995  13.863   2.623  11.049
 6033SOL    HW119996  13.849   2.657  10.961
 6033SOL    HW219997  13.934   2.676  11.085
 6034SOL     OW19998   0.014  14.846  14.206
 6034SOL    HW119999   0.019  14.777  14.139
 6034SOL    HW220000  14.842  14.808  14.275
 6035SOL     OW20001   0.484   9.826  12.691
 6035SOL    HW120002   0.430   9.892  12.736
 6035SOL    HW220003   0.422   9.757  12.668
 6036SOL     OW20004  13.518   5.812  10.428
 6036SOL    HW120005  13.470   5.882  10.472
 6036SOL    HW220006  13.485   5.813  10.338
 6037SOL     OW20007   1.329   6.396   2.245
 6037SOL    HW120008   1.415   6.358   2.224
 6037SOL    HW220009   1.348   6.488   2.261
 6038SOL     OW20010   7.259   4.472   8.873
 6038SOL    HW120011   7.264   4.530   8.949
 6038SOL    HW220012   7.314   4.514   8.807
 6039SOL     OW20013   7.392   1.445  10.791
 6039SOL    HW120014   7.322   1.399  10.745
 6039SOL    HW220015   7.348   1.502  10.854
 6040SOL     OW20016   7.777   1.287   5.881
 6040SOL    HW120017   7.770   1.234   5.960
 6040SOL    HW220018   7.838   1.239   5.825
 6041SOL     OW20019  11.403  14.173   5.479
 6041SOL    HW120020  11.489  14.214   5.471
 6041SOL    HW220021  11.344  14.245   5.499
 6042SOL     OW20022   4.798   1.324   2.342
 6042SOL    HW120023   4.879   1.349   2.296
 6042SOL    HW220024   4.814   1.235   2.372
 6043SOL     OW20025   6.836  11.736   7.212
 6043SOL    HW120026   6.880  11.816   7.182
 6043SOL    HW220027   6.905  11.686   7.256
 6044SOL     OW20028  11.605  12.221   5.907
 6044SOL    HW120029  11.515  12.230   5.878
 6044SOL    HW220030  11.645  12.161   5.844
 6045SOL     OW20031   3.808   7.629   9.838
 6045SOL    HW120032   3.842   7.556   9.890
 6045SOL    HW220033   3.864   7.632   9.760
 6046SOL     OW20034   9.759   2.658   3.335
 6046SOL    HW120035   9.804   2.742   3.350
 6046SOL    HW220036   9.768   2.612   3.418
 6047SOL     OW20037   1.530   5.892  12.331
 6047SOL    HW120038   1.541   5.833  12.257
 6047SOL    HW220039   1.453   5.944  12.310
 6048SOL     OW20040  13.040   1.315  12.265
 6048SOL    HW120041  13.130   1.283  12.268
 6048SOL    HW220042  12.998   1.278  12.343
 6049SOL     OW20043   0.367  13.092   3.824
 6049SOL    HW120044   0.309  13.085   3.748
 6049SOL    HW220045   0.430  13.021   3.813
 6050SOL     OW20046   3.580   7.647   2.732
 6050SOL    HW120047   3.516   7.585   2.768
 6050SOL    HW220048   3.548   7.733   2.757
 6051SOL     OW20049  11.283   9.078   4.062
 6051SOL    HW120050  11.202   9.061   4.013
 6051SOL    HW220051  11.332   9.137   4.006
 6052SOL     OW20052  13.758   2.247  12.299
 6052SOL    HW120053  13.816   2.209  12.365
 6052SOL    HW220054  13.730   2.172  12.247
 6053SOL     OW20055  10.642   2.005   1.569
 6053SOL    HW120056  10.692   1.923   1.572
 6053SOL    HW220057  10.708   2.074   1.584
 6054SOL     OW20058   1.672  13.338   4.629
 6054SOL    HW120059   1.755  13.367   4.590
 6054SOL    HW220060   1.624  13.418   4.646
 6055SOL     OW20061  14.671   3.775   7.288
 6055SOL    HW120062  14.713   3.774   7.201
 6055SOL    HW220063  14.690   3.863   7.322
 6056SOL     OW20064  12.673  11.588   1.918
 6056SOL    HW120065  12.615  11.513   1.906
 6056SOL    HW220066  12.742  11.556   1.976
 6057SOL     OW20067   5.131  12.538  12.004
 6057SOL    HW120068   5.044  12.500  11.996
 6057SOL    HW220069   5.150  12.537  12.098
 6058SOL     OW20070   7.233   2.441   2.335
 6058SOL    HW120071   7.140   2.425   2.319
 6058SOL    HW220072   7.245   2.421   2.428
 6059SOL     OW20073  11.830   2.425  13.051
 6059SOL    HW120074  11.747   2.469  13.064
 6059SOL    HW220075  11.852   2.442  12.959
 6060SOL     OW20076   5.921   6.476   1.096
 6060SOL    HW120077   5.946   6.437   1.179
 6060SOL    HW220078   5.978   6.434   1.031
 6061SOL     OW20079   8.321  11.298   6.790
 6061SOL    HW120080   8.279  11.246   6.859
 6061SOL    HW220081   8.250  11.353   6.756
 6062SOL     OW20082   0.486   2.769  11.777
 6062SOL    HW120083   0.405   2.807  11.744
 6062SOL    HW220084   0.543   2.763  11.700
 6063SOL     OW20085  13.475   7.903  12.729
 6063SOL    HW120086  13.388   7.863  12.729
 6063SOL    HW220087  13.502   7.901  12.821
 6064SOL     OW20088  14.647   6.206  13.943
 6064SOL    HW120089  14.676   6.282  13.992
 6064SOL    HW220090  14.556   6.225  13.922
 6065SOL     OW20091   8.337  13.181  10.451
 6065SOL    HW120092   8.262  13.174  10.392
 6065SOL    HW220093   8.361  13.091  10.471
 6066SOL     OW20094   6.518   2.135   9.884
 6066SOL    HW120095   6.461   2.197   9.838
 6066SOL    HW220096   6.602   2.141   9.837
 6067SOL     OW20097   0.849   2.655   3.749
 6067SOL    HW120098   0.862   2.596   3.675
 6067SOL    HW220099   0.934   2.655   3.794
 6068SOL     OW20100   6.501   5.923   8.200
 6068SOL    HW120101   6.545   5.875   8.130
 6068SOL    HW220102   6.452   5.992   8.156
 6069SOL     OW20103   3.997   3.788  10.109
 6069SOL    HW120104   4.030   3.845  10.040
 6069SOL    HW220105   3.912   3.825  10.132
 6070SOL     OW20106   2.944  10.936  10.585
 6070SOL    HW120107   2.899  10.852  10.586
 6070SOL    HW220108   3.035  10.915  10.607
 6071SOL     OW20109   0.445   5.218   4.395
 6071SOL    HW120110   0.390   5.237   4.471
 6071SOL    HW220111   0.529   5.259   4.416
 6072SOL     OW20112  13.384   4.577   6.376
 6072SOL    HW120113  13.397   4.639   6.305
 6072SOL    HW220114  13.292   4.587   6.401
 6073SOL     OW20115  12.349   6.106   1.541
 6073SOL    HW120116  12.353   6.190   1.587
 6073SOL    HW220117  12.284   6.055   1.590
 6074SOL     OW20118  13.342  14.681   1.570
 6074SOL    HW120119  13.335  14.742   1.643
 6074SOL    HW220120  13.396  14.609   1.603
 6075SOL     OW20121  10.690   5.755  14.704
 6075SOL    HW120122  10.609   5.786  14.743
 6075SOL    HW220123  10.662   5.697  14.633
 6076SOL     OW20124   4.282  12.612   6.217
 6076SOL    HW120125   4.202  12.560   6.216
 6076SOL    HW220126   4.352  12.548   6.206
 6077SOL     OW20127  12.120  13.443   1.963
 6077SOL    HW120128  12.074  13.453   1.880
 6077SOL    HW220129  12.114  13.530   2.004
 6078SOL     OW20130  14.593   8.760   5.452
 6078SOL    HW120131  14.500   8.761   5.472
 6078SOL    HW220132  14.600   8.799   5.365
 6079SOL     OW20133   8.730  14.732   4.587
 6079SOL    HW120134   8.805  14.677   4.611
 6079SOL    HW220135   8.655  14.672   4.589
 6080SOL     OW20136   8.774  10.757   5.922
 6080SOL    HW120137   8.712  10.712   5.979
 6080SOL    HW220138   8.847  10.695   5.913
 6081SOL     OW20139  11.153  14.651   4.093
 6081SOL    HW120140  11.192  14.568   4.120
 6081SOL    HW220141  11.195  14.672   4.010
 6082SOL     OW20142   9.127   4.609  12.277
 6082SOL    HW120143   9.211   4.600  12.321
 6082SOL    HW220144   9.148   4.646  12.192
 6083SOL     OW20145   1.567   6.530   0.374
 6083SOL    HW120146   1.642   6.470   0.377
 6083SOL    HW220147   1.545   6.535   0.281
 6084SOL     OW20148  13.324   0.462   8.980
 6084SOL    HW120149  13.255   0.496   9.037
 6084SOL    HW220150  13.304   0.498   8.894
 6085SOL     OW20151  11.673   7.380   3.521
 6085SOL    HW120152  11.729   7.329   3.580
 6085SOL    HW220153  11.680   7.470   3.554
 6086SOL     OW20154   3.592  14.091   0.549
 6086SOL    HW120155   3.519  14.028   0.552
 6086SOL    HW220156   3.581  14.137   0.466
 6087SOL     OW20157   8.754   1.628  11.308
 6087SOL    HW120158   8.680   1.602  11.252
 6087SOL    HW220159   8.739   1.720  11.326
 6088SOL     OW20160  10.535   1.372   9.586
 6088SOL    HW120161  10.613   1.428   9.597
 6088SOL    HW220162  10.470   1.430   9.545
 6089SOL     OW20163   9.954  13.032   5.482
 6089SOL    HW120164   9.925  12.941   5.490
 6089SOL    HW220165  10.015  13.030   5.408
 6090SOL     OW20166  12.464   0.292   5.192
 6090SOL    HW120167  12.444   0.252   5.276
 6090SOL    HW220168  12.534   0.355   5.211
 6091SOL     OW20169   2.011   3.529   9.702
 6091SOL    HW120170   1.983   3.610   9.743
 6091SOL    HW220171   2.105   3.523   9.722
 6092SOL     OW20172   7.869  12.615   9.225
 6092SOL    HW120173   7.897  12.665   9.149
 6092SOL    HW220174   7.946  12.563   9.249
 6093SOL     OW20175   2.515   2.314   7.090
 6093SOL    HW120176   2.475   2.227   7.080
 6093SOL    HW220177   2.443   2.369   7.121
 6094SOL     OW20178  11.365  12.210   2.200
 6094SOL    HW120179  11.288  12.181   2.150
 6094SOL    HW220180  11.432  12.226   2.134
 6095SOL     OW20181   0.531   2.851   5.903
 6095SOL    HW120182   0.504   2.789   5.835
 6095SOL    HW220183   0.544   2.796   5.981
 6096SOL     OW20184   4.720  13.610  14.249
 6096SOL    HW120185   4.702  13.526  14.290
 6096SOL    HW220186   4.689  13.675  14.313
 6097SOL     OW20187  14.216   9.640  11.614
 6097SOL    HW120188  14.276   9.567  11.599
 6097SOL    HW220189  14.243   9.677  11.698
 6098SOL     OW20190  14.652  12.053   8.983
 6098SOL    HW120191  14.613  12.116   9.043
 6098SOL    HW220192  14.635  12.090   8.896
 6099SOL     OW20193  12.451   2.707   1.820
 6099SOL    HW120194  12.443   2.747   1.907
 6099SOL    HW220195  12.362   2.703   1.787
 6100SOL     OW20196  13.013   9.857   3.272
 6100SOL    HW120197  13.031   9.825   3.184
 6100SOL    HW220198  12.954   9.792   3.310
 6101SOL     OW20199   3.692  10.251   2.202
 6101SOL    HW120200   3.720  10.204   2.123
 6101SOL    HW220201   3.773  10.269   2.249
 6102SOL     OW20202   1.864  10.717   5.615
 6102SOL    HW120203   1.886  10.759   5.698
 6102SOL    HW220204   1.803  10.778   5.574
 6103SOL     OW20205   1.569   7.793   1.259
 6103SOL    HW120206   1.655   7.797   1.301
 6103SOL    HW220207   1.547   7.884   1.239
 6104SOL     OW20208  12.933   9.209  14.728
 6104SOL    HW120209  12.869   9.278  14.743
 6104SOL    HW220210  13.003   9.252  14.678
 6105SOL     OW20211   8.153   2.951   0.419
 6105SOL    HW120212   8.167   2.879   0.357
 6105SOL    HW220213   8.157   3.030   0.365
 6106SOL     OW20214   9.458  10.915   0.068
 6106SOL    HW120215   9.542  10.958   0.085
 6106SOL    HW220216   9.392  10.982   0.086
 6107SOL     OW20217   6.712   8.547   1.425
 6107SOL    HW120218   6.648   8.482   1.453
 6107SOL    HW220219   6.692   8.562   1.333
 6108SOL     OW20220   5.559  11.133   4.246
 6108SOL    HW120221   5.471  11.171   4.241
 6108SOL    HW220222   5.550  11.045   4.209
 6109SOL     OW20223   9.793   0.906   9.061
 6109SOL    HW120224   9.811   0.984   9.114
 6109SOL    HW220225   9.732   0.855   9.115
 6110SOL     OW20226   6.884  12.814  13.483
 6110SOL    HW120227   6.914  12.867  13.556
 6110SOL    HW220228   6.817  12.868  13.440
 6111SOL     OW20229   1.324   8.727   7.518
 6111SOL    HW120230   1.325   8.632   7.511
 6111SOL    HW220231   1.320   8.758   7.427
 6112SOL     OW20232   8.898  14.580   0.114
 6112SOL    HW120233   8.844  14.652   0.147
 6112SOL    HW220234   8.863  14.502   0.156
 6113SOL     OW20235   4.349  13.156   4.049
 6113SOL    HW120236   4.416  13.110   3.999
 6113SOL    HW220237   4.391  13.176   4.133
 6114SOL     OW20238  12.592  13.852  10.321
 6114SOL    HW120239  12.628  13.900  10.247
 6114SOL    HW220240  12.500  13.878  10.323
 6115SOL     OW20241   2.249   9.233   7.651
 6115SOL    HW120242   2.153   9.238   7.650
 6115SOL    HW220243   2.277   9.287   7.577
 6116SOL     OW20244   5.701   1.597   2.510
 6116SOL    HW120245   5.793   1.578   2.489
 6116SOL    HW220246   5.670   1.519   2.556
 6117SOL     OW20247   6.436   8.120  11.024
 6117SOL    HW120248   6.438   8.047  11.085
 6117SOL    HW220249   6.382   8.090  10.952
 6118SOL     OW20250   7.197   7.483   6.199
 6118SOL    HW120251   7.244   7.566   6.205
 6118SOL    HW220252   7.248   7.432   6.136
 6119SOL     OW20253   0.011   6.882   4.486
 6119SOL    HW120254  14.846   6.901   4.405
 6119SOL    HW220255   0.090   6.835   4.458
 6120SOL     OW20256  13.424   6.633   3.180
 6120SOL    HW120257  13.374   6.564   3.224
 6120SOL    HW220258  13.455   6.688   3.252
 6121SOL     OW20259   7.871  11.202  11.752
 6121SOL    HW120260   7.849  11.244  11.668
 6121SOL    HW220261   7.792  11.154  11.777
 6122SOL     OW20262   0.276   2.765   8.323
 6122SOL    HW120263   0.240   2.853   8.334
 6122SOL    HW220264   0.350   2.777   8.262
 6123SOL     OW20265   9.205   2.735   9.121
 6123SOL    HW120266   9.206   2.759   9.214
 6123SOL    HW220267   9.112   2.733   9.098
 6124SOL     OW20268  11.436  13.777  12.764
 6124SOL    HW120269  11.530  13.771  12.782
 6124SOL    HW220270  11.423  13.868  12.735
 6125SOL     OW20271   2.088   6.105   8.881
 6125SOL    HW120272   2.050   6.138   8.800
 6125SOL    HW220273   2.014   6.099   8.941
 6126SOL     OW20274   0.385  11.352  14.278
 6126SOL    HW120275   0.376  11.432  14.329
 6126SOL    HW220276   0.302  11.306  14.288
 6127SOL     OW20277  10.279   4.457   4.312
 6127SOL    HW120278  10.347   4.524   4.309
 6127SOL    HW220279  10.218   4.480   4.241
 6128SOL     OW20280   6.308   3.287   1.670
 6128SOL    HW120281   6.373   3.219   1.652
 6128SOL    HW220282   6.225   3.250   1.641
 6129SOL     OW20283  13.062  13.794  10.040
 6129SOL    HW120284  13.061  13.699  10.028
 6129SOL    HW220285  13.064  13.829   9.951
 6130SOL     OW20286   8.122   5.053  13.303
 6130SOL    HW120287   8.076   5.108  13.367
 6130SOL    HW220288   8.210   5.042  13.341
 6131SOL     OW20289   9.938   0.772   6.648
 6131SOL    HW120290   9.984   0.750   6.567
 6131SOL    HW220291   9.982   0.720   6.715
 6132SOL     OW20292   4.359  11.899  12.289
 6132SOL    HW120293   4.391  11.874  12.202
 6132SOL    HW220294   4.263  11.900  12.280
 6133SOL     OW20295  10.901   8.203  14.789
 6133SOL    HW120296  10.880   8.119  14.829
 6133SOL    HW220297  10.975   8.185  14.732
 6134SOL     OW20298  10.756  11.916   1.101
 6134SOL    HW120299  10.681  11.966   1.134
 6134SOL    HW220300  10.765  11.944   1.010
 6135SOL     OW20301   4.926   7.344   3.284
 6135SOL    HW120302   4.858   7.392   3.331
 6135SOL    HW220303   4.909   7.252   3.306
 6136SOL     OW20304  11.200  13.884   2.760
 6136SOL    HW120305  11.158  13.884   2.846
 6136SOL    HW220306  11.271  13.949   2.768
 6137SOL     OW20307  13.691   3.133   3.635
 6137SOL    HW120308  13.654   3.054   3.674
 6137SOL    HW220309  13.680   3.200   3.703
 6138SOL     OW20310   4.441   8.214   8.660
 6138SOL    HW120311   4.445   8.123   8.630
 6138SOL    HW220312   4.532   8.243   8.660
 6139SOL     OW20313  11.303   5.073  10.488
 6139SOL    HW120314  11.235   5.112  10.433
 6139SOL    HW220315  11.287   4.978  10.483
 6140SOL     OW20316   6.054   8.787   7.061
 6140SOL    HW120317   6.120   8.783   7.129
 6140SOL    HW220318   6.008   8.870   7.077
 6141SOL     OW20319  13.596   9.513  12.050
 6141SOL    HW120320  13.615   9.587  11.993
 6141SOL    HW220321  13.548   9.550  12.124
 6142SOL     OW20322  11.823  14.250  10.730
 6142SOL    HW120323  11.883  14.228  10.802
 6142SOL    HW220324  11.856  14.334  10.698
 6143SOL     OW20325   3.312   4.395  11.771
 6143SOL    HW120326   3.364   4.314  11.766
 6143SOL    HW220327   3.346   4.450  11.701
 6144SOL     OW20328   9.898   2.323   1.244
 6144SOL    HW120329   9.985   2.347   1.274
 6144SOL    HW220330   9.866   2.261   1.310
 6145SOL     OW20331   9.652   9.566   7.848
 6145SOL    HW120332   9.563   9.561   7.883
 6145SOL    HW220333   9.640   9.589   7.756
 6146SOL     OW20334  14.318  12.960   4.735
 6146SOL    HW120335  14.280  13.036   4.690
 6146SOL    HW220336  14.412  12.971   4.725
 6147SOL     OW20337   0.032  13.912   6.648
 6147SOL    HW120338   0.026  13.852   6.723
 6147SOL    HW220339  14.875  13.993   6.680
 6148SOL     OW20340   4.454   9.850  13.440
 6148SOL    HW120341   4.393   9.854  13.513
 6148SOL    HW220342   4.535   9.815  13.479
 6149SOL     OW20343   4.483   8.034  14.019
 6149SOL    HW120344   4.484   8.013  14.112
 6149SOL    HW220345   4.510   8.126  14.016
 6150SOL     OW20346   1.699   5.297   7.228
 6150SOL    HW120347   1.754   5.369   7.261
 6150SOL    HW220348   1.712   5.227   7.292
 6151SOL     OW20349   4.852   4.675  13.627
 6151SOL    HW120350   4.865   4.761  13.586
 6151SOL    HW220351   4.758   4.673  13.649
 6152SOL     OW20352   3.971  14.197   6.712
 6152SOL    HW120353   3.979  14.180   6.806
 6152SOL    HW220354   4.016  14.281   6.699
 6153SOL     OW20355   6.662   7.801   0.911
 6153SOL    HW120356   6.582   7.750   0.927
 6153SOL    HW220357   6.659   7.822   0.818
 6154SOL     OW20358   1.549  12.960   9.902
 6154SOL    HW120359   1.576  13.034   9.956
 6154SOL    HW220360   1.577  12.883   9.952
 6155SOL     OW20361   1.440  13.256  11.672
 6155SOL    HW120362   1.474  13.215  11.752
 6155SOL    HW220363   1.410  13.183  11.618
 6156SOL     OW20364   8.279  12.007   8.227
 6156SOL    HW120365   8.266  12.011   8.322
 6156SOL    HW220366   8.220  12.073   8.192
 6157SOL     OW20367   3.063   6.719   9.856
 6157SOL    HW120368   3.058   6.749   9.765
 6157SOL    HW220369   3.067   6.623   9.849
 6158SOL     OW20370   9.168   4.896   2.142
 6158SOL    HW120371   9.099   4.962   2.132
 6158SOL    HW220372   9.199   4.880   2.053
 6159SOL     OW20373  13.716   9.542   5.536
 6159SOL    HW120374  13.652   9.474   5.558
 6159SOL    HW220375  13.663   9.619   5.516
 6160SOL     OW20376   3.747   0.436   9.755
 6160SOL    HW120377   3.698   0.484   9.822
 6160SOL    HW220378   3.692   0.441   9.677
 6161SOL     OW20379   9.379   0.028   4.350
 6161SOL    HW120380   9.474   0.017   4.350
 6161SOL    HW220381   9.357   0.045   4.259
 6162SOL     OW20382  14.246   9.313  14.110
 6162SOL    HW120383  14.203   9.252  14.170
 6162SOL    HW220384  14.215   9.286  14.023
 6163SOL     OW20385   4.930   3.349   2.961
 6163SOL    HW120386   4.910   3.423   2.904
 6163SOL    HW220387   4.965   3.390   3.041
 6164SOL     OW20388   4.910   6.083   0.259
 6164SOL    HW120389   4.831   6.095   0.313
 6164SOL    HW220390   4.885   6.017   0.195
 6165SOL     OW20391   5.643   0.385  11.846
 6165SOL    HW120392   5.634   0.326  11.771
 6165SOL    HW220393   5.556   0.386  11.886
 6166SOL     OW20394   3.992   2.458   1.143
 6166SOL    HW120395   3.978   2.363   1.146
 6166SOL    HW220396   4.083   2.468   1.117
 6167SOL     OW20397   6.068  14.454  10.144
 6167SOL    HW120398   6.034  14.366  10.159
 6167SOL    HW220399   6.096  14.455  10.052
 6168SOL     OW20400   9.891   5.729   9.180
 6168SOL    HW120401   9.976   5.712   9.141
 6168SOL    HW220402   9.886   5.824   9.187
 6169SOL     OW20403   2.624  12.874  11.867
 6169SOL    HW120404   2.533  12.853  11.849
 6169SOL    HW220405   2.674  12.811  11.816
 6170SOL     OW20406   7.795   7.475   9.343
 6170SOL    HW120407   7.795   7.515   9.256
 6170SOL    HW220408   7.880   7.497   9.380
 6171SOL     OW20409   8.963  13.972   7.633
 6171SOL    HW120410   9.058  13.975   7.622
 6171SOL    HW220411   8.947  13.891   7.681
 6172SOL     OW20412   9.965   9.783   4.425
 6172SOL    HW120413   9.939   9.741   4.344
 6172SOL    HW220414   9.934   9.724   4.494
 6173SOL     OW20415   5.861   8.609  12.796
 6173SOL    HW120416   5.947   8.572  12.817
 6173SOL    HW220417   5.806   8.533  12.779
 6174SOL     OW20418   3.275   9.997   6.351
 6174SOL    HW120419   3.237   9.909   6.348
 6174SOL    HW220420   3.350   9.988   6.409
 6175SOL     OW20421  10.906   5.555   1.203
 6175SOL    HW120422  10.885   5.469   1.238
 6175SOL    HW220423  10.903   5.543   1.108
 6176SOL     OW20424   0.545   7.497   3.739
 6176SOL    HW120425   0.480   7.556   3.700
 6176SOL    HW220426   0.529   7.413   3.695
 6177SOL     OW20427   4.295   7.738   2.288
 6177SOL    HW120428   4.311   7.653   2.245
 6177SOL    HW220429   4.200   7.746   2.289
 6178SOL     OW20430   3.410  11.790   6.437
 6178SOL    HW120431   3.322  11.789   6.476
 6178SOL    HW220432   3.411  11.868   6.383
 6179SOL     OW20433  10.558   2.938   9.261
 6179SOL    HW120434  10.534   3.014   9.208
 6179SOL    HW220435  10.511   2.865   9.220
 6180SOL     OW20436   5.903   2.011   9.787
 6180SOL    HW120437   5.860   2.013   9.872
 6180SOL    HW220438   5.837   1.975   9.728
 6181SOL     OW20439   3.766   9.125   9.385
 6181SOL    HW120440   3.772   9.165   9.298
 6181SOL    HW220441   3.846   9.073   9.393
 6182SOL     OW20442   2.264   4.988   8.412
 6182SOL    HW120443   2.213   5.066   8.436
 6182SOL    HW220444   2.290   4.950   8.496
 6183SOL     OW20445  10.362   8.922  12.778
 6183SOL    HW120446  10.353   8.943  12.871
 6183SOL    HW220447  10.275   8.939  12.741
 6184SOL     OW20448   2.829   3.413   0.537
 6184SOL    HW120449   2.739   3.438   0.516
 6184SOL    HW220450   2.842   3.442   0.627
 6185SOL     OW20451  10.229   0.566  13.561
 6185SOL    HW120452  10.196   0.476  13.558
 6185SOL    HW220453  10.311   0.559  13.609
 6186SOL     OW20454   6.613  12.790   7.466
 6186SOL    HW120455   6.565  12.710   7.484
 6186SOL    HW220456   6.554  12.860   7.493
 6187SOL     OW20457   5.798   9.485   2.034
 6187SOL    HW120458   5.784   9.417   2.099
 6187SOL    HW220459   5.714   9.531   2.030
 6188SOL     OW20460   3.656   7.055   6.590
 6188SOL    HW120461   3.602   7.055   6.511
 6188SOL    HW220462   3.669   7.148   6.610
 6189SOL     OW20463   7.396  14.284   4.986
 6189SOL    HW120464   7.359  14.369   4.960
 6189SOL    HW220465   7.383  14.280   5.081
 6190SOL     OW20466   6.480   5.262   4.158
 6190SOL    HW120467   6.447   5.195   4.219
 6190SOL    HW220468   6.468   5.224   4.071
 6191SOL     OW20469  13.113   4.897   0.189
 6191SOL    HW120470  13.098   4.973   0.244
 6191SOL    HW220471  13.035   4.843   0.201
 6192SOL     OW20472   8.751  13.627   0.950
 6192SOL    HW120473   8.707  13.676   1.020
 6192SOL    HW220474   8.771  13.693   0.884
 6193SOL     OW20475   3.040   5.233  10.785
 6193SOL    HW120476   3.047   5.277  10.700
 6193SOL    HW220477   2.981   5.289  10.836
 6194SOL     OW20478  10.621  12.223   9.639
 6194SOL    HW120479  10.538  12.191   9.604
 6194SOL    HW220480  10.600  12.307   9.678
 6195SOL     OW20481  12.834   8.462   6.799
 6195SOL    HW120482  12.786   8.525   6.852
 6195SOL    HW220483  12.797   8.472   6.711
 6196SOL     OW20484   1.378   2.808   9.196
 6196SOL    HW120485   1.299   2.840   9.240
 6196SOL    HW220486   1.437   2.783   9.267
 6197SOL     OW20487   6.124   5.531  10.151
 6197SOL    HW120488   6.137   5.488  10.235
 6197SOL    HW220489   6.029   5.538  10.141
 6198SOL     OW20490  13.783   1.704   0.028
 6198SOL    HW120491  13.740   1.635  14.861
 6198SOL    HW220492  13.874   1.704  14.879
 6199SOL     OW20493  12.442   9.272  14.368
 6199SOL    HW120494  12.456   9.358  14.409
 6199SOL    HW220495  12.392   9.223  14.434
 6200SOL     OW20496  12.584   7.965   3.730
 6200SOL    HW120497  12.645   8.030   3.696
 6200SOL    HW220498  12.634   7.883   3.731
 6201SOL     OW20499  14.631   3.488   0.620
 6201SOL    HW120500  14.726   3.482   0.628
 6201SOL    HW220501  14.599   3.402   0.648
 6202SOL     OW20502   0.336  14.010   4.144
 6202SOL    HW120503   0.288  13.931   4.169
 6202SOL    HW220504   0.398  13.981   4.077
 6203SOL     OW20505   7.828  12.670   0.140
 6203SOL    HW120506   7.919  12.639   0.146
 6203SOL    HW220507   7.796  12.635   0.056
 6204SOL     OW20508  12.661   9.812  10.576
 6204SOL    HW120509  12.725   9.857  10.521
 6204SOL    HW220510  12.635   9.735  10.525
 6205SOL     OW20511   6.992   5.592  10.429
 6205SOL    HW120512   7.037   5.528  10.375
 6205SOL    HW220513   6.945   5.541  10.495
 6206SOL     OW20514   8.412   9.248  10.401
 6206SOL    HW120515   8.471   9.253  10.476
 6206SOL    HW220516   8.396   9.154  10.389
 6207SOL     OW20517   7.417   7.350   9.056
 6207SOL    HW120518   7.354   7.286   9.022
 6207SOL    HW220519   7.490   7.344   8.995
 6208SOL     OW20520  10.778  11.447   7.410
 6208SOL    HW120521  10.842  11.413   7.473
 6208SOL    HW220522  10.777  11.541   7.424
 6209SOL     OW20523   9.327   5.021  12.208
 6209SOL    HW120524   9.262   4.994  12.143
 6209SOL    HW220525   9.409   4.982  12.178
 6210SOL     OW20526  14.859  12.181  10.773
 6210SOL    HW120527  14.808  12.107  10.739
 6210SOL    HW220528   0.003  12.155  10.861
 6211SOL     OW20529  12.603  14.648   5.309
 6211SOL    HW120530  12.533  14.675   5.368
 6211SOL    HW220531  12.667  14.720   5.312
 6212SOL     OW20532  11.361   2.952   2.750
 6212SOL    HW120533  11.339   3.008   2.675
 6212SOL    HW220534  11.397   2.873   2.711
 6213SOL     OW20535   2.745  11.581  11.031
 6213SOL    HW120536   2.705  11.494  11.028
 6213SOL    HW220537   2.798  11.580  11.112
 6214SOL     OW20538  12.865   6.199   3.476
 6214SOL    HW120539  12.956   6.226   3.461
 6214SOL    HW220540  12.831   6.180   3.388
 6215SOL     OW20541   2.404   5.677  12.038
 6215SOL    HW120542   2.432   5.587  12.026
 6215SOL    HW220543   2.485   5.728  12.033
 6216SOL     OW20544  13.431   2.124   8.955
 6216SOL    HW120545  13.362   2.166   9.007
 6216SOL    HW220546  13.398   2.126   8.865
 6217SOL     OW20547   6.477  14.124   5.102
 6217SOL    HW120548   6.429  14.048   5.136
 6217SOL    HW220549   6.454  14.195   5.162
 6218SOL     OW20550   8.856  11.373   5.215
 6218SOL    HW120551   8.893  11.389   5.128
 6218SOL    HW220552   8.858  11.278   5.224
 6219SOL     OW20553   2.819   7.653   2.185
 6219SOL    HW120554   2.833   7.588   2.255
 6219SOL    HW220555   2.833   7.604   2.104
 6220SOL     OW20556  13.740   6.800   4.417
 6220SOL    HW120557  13.721   6.894   4.420
 6220SOL    HW220558  13.706   6.766   4.500
 6221SOL     OW20559   1.631   7.804  13.313
 6221SOL    HW120560   1.699   7.848  13.364
 6221SOL    HW220561   1.572   7.874  13.285
 6222SOL     OW20562   0.180   0.964   4.667
 6222SOL    HW120563   0.097   0.918   4.677
 6222SOL    HW220564   0.155   1.054   4.643
 6223SOL     OW20565   0.337  13.637  10.403
 6223SOL    HW120566   0.258  13.677  10.367
 6223SOL    HW220567   0.325  13.638  10.498
 6224SOL     OW20568  11.585   4.179   7.913
 6224SOL    HW120569  11.542   4.125   7.978
 6224SOL    HW220570  11.670   4.137   7.899
 6225SOL     OW20571   1.597  12.774   1.146
 6225SOL    HW120572   1.674  12.807   1.099
 6225SOL    HW220573   1.525  12.782   1.083
 6226SOL     OW20574  10.142   2.494   7.171
 6226SOL    HW120575  10.054   2.456   7.162
 6226SOL    HW220576  10.126   2.588   7.175
 6227SOL     OW20577  14.466   4.927   1.989
 6227SOL    HW120578  14.480   4.971   2.073
 6227SOL    HW220579  14.520   4.975   1.927
 6228SOL     OW20580  10.718   3.539   4.856
 6228SOL    HW120581  10.767   3.496   4.786
 6228SOL    HW220582  10.782   3.597   4.898
 6229SOL     OW20583   2.071   2.540  12.602
 6229SOL    HW120584   2.086   2.627  12.565
 6229SOL    HW220585   2.052   2.556  12.695
 6230SOL     OW20586   6.584  10.274   9.333
 6230SOL    HW120587   6.675  10.304   9.326
 6230SOL    HW220588   6.564  10.241   9.245
 6231SOL     OW20589   9.802  13.790  14.482
 6231SOL    HW120590   9.805  13.820  14.572
 6231SOL    HW220591   9.756  13.706  14.485
 6232SOL     OW20592  14.825   8.741   5.766
 6232SOL    HW120593   0.038   8.731   5.772
 6232SOL    HW220594  14.795   8.741   5.857
 6233SOL     OW20595  11.005   6.149   4.768
 6233SOL    HW120596  11.091   6.116   4.795
 6233SOL    HW220597  10.943   6.101   4.823
 6234SOL     OW20598   4.397   8.020  11.439
 6234SOL    HW120599   4.456   7.954  11.403
 6234SOL    HW220600   4.389   7.997  11.532
 6235SOL     OW20601   9.092   4.730   3.404
 6235SOL    HW120602   9.102   4.772   3.318
 6235SOL    HW220603   9.176   4.689   3.421
 6236SOL     OW20604   2.881   9.678   4.175
 6236SOL    HW120605   2.823   9.735   4.225
 6236SOL    HW220606   2.848   9.682   4.085
 6237SOL     OW20607   3.535   5.548   0.928
 6237SOL    HW120608   3.504   5.540   0.837
 6237SOL    HW220609   3.615   5.600   0.921
 6238SOL     OW20610  12.785   0.089   7.036
 6238SOL    HW120611  12.731   0.168   7.037
 6238SOL    HW220612  12.722   0.018   7.023
 6239SOL     OW20613   4.069  11.602  14.508
 6239SOL    HW120614   4.000  11.543  14.541
 6239SOL    HW220615   4.085  11.572  14.419
 6240SOL     OW20616  10.195  12.201  12.075
 6240SOL    HW120617  10.234  12.119  12.046
 6240SOL    HW220618  10.200  12.258  11.998
 6241SOL     OW20619   6.310   0.837   8.503
 6241SOL    HW120620   6.375   0.822   8.434
 6241SOL    HW220621   6.322   0.763   8.563
 6242SOL     OW20622  12.515   9.000  11.442
 6242SOL    HW120623  12.466   9.029  11.365
 6242SOL    HW220624  12.574   9.073  11.462
 6243SOL     OW20625   7.445  11.543   6.038
 6243SOL    HW120626   7.465  11.550   6.132
 6243SOL    HW220627   7.504  11.475   6.006
 6244SOL     OW20628   0.198  14.468   7.622
 6244SOL    HW120629   0.130  14.402   7.613
 6244SOL    HW220630   0.157  14.550   7.595
 6245SOL     OW20631  11.057  14.271   5.372
 6245SOL    HW120632  11.061  14.337   5.302
 6245SOL    HW220633  11.100  14.312   5.447
 6246SOL     OW20634   4.796   2.314   7.588
 6246SOL    HW120635   4.802   2.299   7.682
 6246SOL    HW220636   4.860   2.382   7.570
 6247SOL     OW20637   3.282   4.478   7.571
 6247SOL    HW120638   3.232   4.530   7.635
 6247SOL    HW220639   3.290   4.536   7.495
 6248SOL     OW20640   4.545   0.259   5.947
 6248SOL    HW120641   4.497   0.204   6.009
 6248SOL    HW220642   4.483   0.327   5.921
 6249SOL     OW20643   1.712  12.809   2.881
 6249SOL    HW120644   1.728  12.715   2.872
 6249SOL    HW220645   1.701  12.823   2.975
 6250SOL     OW20646   9.773   3.347   5.294
 6250SOL    HW120647   9.845   3.408   5.278
 6250SOL    HW220648   9.746   3.318   5.207
 6251SOL     OW20649   9.640   4.508   5.988
 6251SOL    HW120650   9.553   4.499   5.949
 6251SOL    HW220651   9.699   4.468   5.924
 6252SOL     OW20652  14.072   5.661  13.279
 6252SOL    HW120653  14.013   5.673  13.205
 6252SOL    HW220654  14.045   5.579  13.319
 6253SOL     OW20655   6.610  10.743  12.799
 6253SOL    HW120656   6.525  10.785  12.810
 6253SOL    HW220657   6.648  10.741  12.888
 6254SOL     OW20658   6.817   1.733  11.915
 6254SOL    HW120659   6.805   1.652  11.866
 6254SOL    HW220660   6.873   1.709  11.989
 6255SOL     OW20661  13.089  10.054  13.706
 6255SOL    HW120662  13.014  10.023  13.655
 6255SOL    HW220663  13.058  10.133  13.750
 6256SOL     OW20664   3.450  14.486  11.107
 6256SOL    HW120665   3.533  14.470  11.062
 6256SOL    HW220666   3.451  14.426  11.182
 6257SOL     OW20667   9.823   2.219   5.697
 6257SOL    HW120668   9.848   2.290   5.637
 6257SOL    HW220669   9.747   2.179   5.656
 6258SOL     OW20670  13.293   2.335   6.180
 6258SOL    HW120671  13.343   2.374   6.251
 6258SOL    HW220672  13.319   2.243   6.179
 6259SOL     OW20673   4.548   0.175   6.277
 6259SOL    HW120674   4.546   0.141   6.367
 6259SOL    HW220675   4.586   0.263   6.286
 6260SOL     OW20676   0.594  12.131   2.916
 6260SOL    HW120677   0.642  12.052   2.943
 6260SOL    HW220678   0.577  12.178   2.997
 6261SOL     OW20679   8.961   0.348   4.773
 6261SOL    HW120680   8.906   0.339   4.695
 6261SOL    HW220681   9.013   0.426   4.757
 6262SOL     OW20682  12.056  11.811   4.356
 6262SOL    HW120683  12.129  11.873   4.361
 6262SOL    HW220684  12.021  11.808   4.445
 6263SOL     OW20685   9.555   6.790   7.967
 6263SOL    HW120686   9.565   6.742   7.885
 6263SOL    HW220687   9.622   6.753   8.025
 6264SOL     OW20688   2.138  14.743  12.454
 6264SOL    HW120689   2.099  14.822  12.418
 6264SOL    HW220690   2.191  14.708  12.382
 6265SOL     OW20691   8.637   2.943   4.640
 6265SOL    HW120692   8.706   2.877   4.647
 6265SOL    HW220693   8.674   3.020   4.684
 6266SOL     OW20694   6.004   4.350  11.551
 6266SOL    HW120695   5.990   4.286  11.482
 6266SOL    HW220696   5.939   4.418  11.534
 6267SOL     OW20697   4.323   1.933  13.346
 6267SOL    HW120698   4.311   1.838  13.334
 6267SOL    HW220699   4.291   1.950  13.434
 6268SOL     OW20700   1.929   5.734   2.285
 6268SOL    HW120701   1.844   5.729   2.242
 6268SOL    HW220702   1.975   5.804   2.238
 6269SOL     OW20703   5.815  13.177   2.456
 6269SOL    HW120704   5.765  13.210   2.381
 6269SOL    HW220705   5.904  13.170   2.423
 6270SOL     OW20706   1.297   3.546   2.932
 6270SOL    HW120707   1.210   3.581   2.954
 6270SOL    HW220708   1.344   3.544   3.015
 6271SOL     OW20709   7.898  14.407   8.773
 6271SOL    HW120710   7.922  14.411   8.680
 6271SOL    HW220711   7.852  14.323   8.782
 6272SOL     OW20712   4.775   1.137   5.112
 6272SOL    HW120713   4.719   1.060   5.112
 6272SOL    HW220714   4.714   1.211   5.110
 6273SOL     OW20715   4.056  11.865  14.480
 6273SOL    HW120716   4.078  11.775  14.504
 6273SOL    HW220717   4.139  11.903  14.451
 6274SOL     OW20718   7.710   4.574  13.224
 6274SOL    HW120719   7.687   4.658  13.263
 6274SOL    HW220720   7.799   4.557  13.256
 6275SOL     OW20721   3.165   1.837   6.764
 6275SOL    HW120722   3.076   1.858   6.736
 6275SOL    HW220723   3.185   1.899   6.833
 6276SOL     OW20724  13.165   5.016   9.887
 6276SOL    HW120725  13.215   5.033   9.807
 6276SOL    HW220726  13.073   5.019   9.859
 6277SOL     OW20727   3.174  11.139   2.723
 6277SOL    HW120728   3.260  11.132   2.764
 6277SOL    HW220729   3.115  11.095   2.784
 6278SOL     OW20730   0.669  12.247   7.162
 6278SOL    HW120731   0.620  12.263   7.081
 6278SOL    HW220732   0.636  12.162   7.193
 6279SOL     OW20733   4.594   3.880   6.537
 6279SOL    HW120734   4.638   3.963   6.557
 6279SOL    HW220735   4.563   3.891   6.447
 6280SOL     OW20736   5.334   6.309   8.940
 6280SOL    HW120737   5.395   6.266   8.880
 6280SOL    HW220738   5.301   6.383   8.891
 6281SOL     OW20739   3.792  13.720   6.253
 6281SOL    HW120740   3.697  13.717   6.241
 6281SOL    HW220741   3.810  13.656   6.321
 6282SOL     OW20742   0.542   4.398   3.109
 6282SOL    HW120743   0.522   4.341   3.034
 6282SOL    HW220744   0.477   4.468   3.103
 6283SOL     OW20745   0.375  14.555   2.376
 6283SOL    HW120746   0.459  14.570   2.332
 6283SOL    HW220747   0.331  14.489   2.323
 6284SOL     OW20748   6.116  13.407  11.664
 6284SOL    HW120749   6.199  13.372  11.631
 6284SOL    HW220750   6.060  13.330  11.675
 6285SOL     OW20751   0.929  14.302   8.674
 6285SOL    HW120752   0.959  14.213   8.653
 6285SOL    HW220753   1.002  14.341   8.722
 6286SOL     OW20754  12.954  13.257   5.327
 6286SOL    HW120755  13.027  13.260   5.265
 6286SOL    HW220756  12.882  13.219   5.277
 6287SOL     OW20757   4.403   4.631   8.646
 6287SOL    HW120758   4.400   4.535   8.641
 6287SOL    HW220759   4.352   4.653   8.724
 6288SOL     OW20760   3.825   1.883  13.624
 6288SOL    HW120761   3.825   1.940  13.700
 6288SOL    HW220762   3.740   1.839  13.626
 6289SOL     OW20763  13.963  12.126   3.313
 6289SOL    HW120764  13.997  12.134   3.224
 6289SOL    HW220765  14.001  12.200   3.360
 6290SOL     OW20766   8.784   3.751   2.553
 6290SOL    HW120767   8.745   3.832   2.520
 6290SOL    HW220768   8.838   3.779   2.627
 6291SOL     OW20769  13.010   0.092   7.532
 6291SOL    HW120770  13.050   0.007   7.515
 6291SOL    HW220771  13.006   0.134   7.446
 6292SOL     OW20772   6.508  12.824   6.891
 6292SOL    HW120773   6.470  12.736   6.885
 6292SOL    HW220774   6.595  12.810   6.928
 6293SOL     OW20775   7.517  14.160  13.837
 6293SOL    HW120776   7.426  14.190  13.844
 6293SOL    HW220777   7.570  14.238  13.853
 6294SOL     OW20778   1.320  10.197   1.960
 6294SOL    HW120779   1.384  10.248   2.010
 6294SOL    HW220780   1.345  10.106   1.975
 6295SOL     OW20781  13.919  14.880   7.953
 6295SOL    HW120782  13.889  14.812   8.012
 6295SOL    HW220783  14.009  14.855   7.932
 6296SOL     OW20784   4.028  11.137   6.081
 6296SOL    HW120785   4.046  11.099   6.167
 6296SOL    HW220786   4.114  11.148   6.041
 6297SOL     OW20787  12.345   0.149   4.335
 6297SOL    HW120788  12.341   0.188   4.248
 6297SOL    HW220789  12.285   0.202   4.388
 6298SOL     OW20790   8.776   1.838   0.218
 6298SOL    HW120791   8.731   1.799   0.293
 6298SOL    HW220792   8.707   1.884   0.171
 6299SOL     OW20793   7.972   2.386   8.883
 6299SOL    HW120794   7.888   2.423   8.856
 6299SOL    HW220795   7.967   2.294   8.858
 6300SOL     OW20796   9.218   0.325  13.353
 6300SOL    HW120797   9.250   0.404  13.398
 6300SOL    HW220798   9.171   0.358  13.277
 6301SOL     OW20799   5.768  13.002  12.620
 6301SOL    HW120800   5.682  12.960  12.628
 6301SOL    HW220801   5.824  12.955  12.682
 6302SOL     OW20802  13.756  10.671   9.322
 6302SOL    HW120803  13.793  10.592   9.362
 6302SOL    HW220804  13.759  10.736   9.392
 6303SOL     OW20805   7.312  12.519   8.297
 6303SOL    HW120806   7.399  12.489   8.325
 6303SOL    HW220807   7.251  12.469   8.351
 6304SOL     OW20808   1.417  11.721   1.466
 6304SOL    HW120809   1.425  11.672   1.548
 6304SOL    HW220810   1.507  11.724   1.432
 6305SOL     OW20811   2.438   2.040   7.158
 6305SOL    HW120812   2.491   2.029   7.079
 6305SOL    HW220813   2.435   1.953   7.197
 6306SOL     OW20814   5.716  14.133   4.804
 6306SOL    HW120815   5.727  14.048   4.847
 6306SOL    HW220816   5.622  14.150   4.808
 6307SOL     OW20817   3.968  10.954   2.280
 6307SOL    HW120818   3.951  11.002   2.361
 6307SOL    HW220819   4.022  10.880   2.306
 6308SOL     OW20820   8.998   0.851  10.674
 6308SOL    HW120821   8.915   0.803  10.671
 6308SOL    HW220822   9.065   0.783  10.662
 6309SOL     OW20823   1.931   9.628   2.168
 6309SOL    HW120824   1.940   9.583   2.084
 6309SOL    HW220825   1.900   9.561   2.229
 6310SOL     OW20826  14.066   9.976  11.417
 6310SOL    HW120827  14.063  10.029  11.496
 6310SOL    HW220828  14.004   9.905  11.433
 6311SOL     OW20829   5.065   3.927   5.585
 6311SOL    HW120830   4.977   3.892   5.573
 6311SOL    HW220831   5.053   4.022   5.584
 6312SOL     OW20832  13.822  10.776   1.905
 6312SOL    HW120833  13.748  10.833   1.925
 6312SOL    HW220834  13.888  10.834   1.867
 6313SOL     OW20835  13.259  14.635  14.633
 6313SOL    HW120836  13.244  14.727  14.653
 6313SOL    HW220837  13.178  14.605  14.593
 6314SOL     OW20838   3.042   1.583   5.427
 6314SOL    HW120839   3.127   1.604   5.467
 6314SOL    HW220840   3.032   1.648   5.357
 6315SOL     OW20841   9.930  10.658  10.750
 6315SOL    HW120842  10.020  10.629  10.739
 6315SOL    HW220843   9.898  10.610  10.826
 6316SOL     OW20844   8.679  11.926   6.536
 6316SOL    HW120845   8.706  11.850   6.587
 6316SOL    HW220846   8.614  11.970   6.591
 6317SOL     OW20847   0.433   3.699   1.349
 6317SOL    HW120848   0.441   3.604   1.350
 6317SOL    HW220849   0.417   3.721   1.257
 6318SOL     OW20850  14.117  12.393   9.856
 6318SOL    HW120851  14.109  12.446   9.777
 6318SOL    HW220852  14.062  12.317   9.839
 6319SOL     OW20853   5.604  14.682   6.978
 6319SOL    HW120854   5.521  14.664   7.021
 6319SOL    HW220855   5.639  14.596   6.957
 6320SOL     OW20856   1.867   2.581  13.733
 6320SOL    HW120857   1.877   2.668  13.694
 6320SOL    HW220858   1.957   2.548  13.742
 6321SOL     OW20859   8.116  12.599  13.064
 6321SOL    HW120860   8.134  12.527  13.124
 6321SOL    HW220861   8.060  12.561  12.997
 6322SOL     OW20862  12.460   3.302   2.989
 6322SOL    HW120863  12.399   3.366   2.953
 6322SOL    HW220864  12.442   3.221   2.940
 6323SOL     OW20865   9.325   2.587   2.536
 6323SOL    HW120866   9.315   2.496   2.564
 6323SOL    HW220867   9.418   2.606   2.546
 6324SOL     OW20868   5.478  13.567  10.832
 6324SOL    HW120869   5.504  13.491  10.780
 6324SOL    HW220870   5.529  13.561  10.912
 6325SOL     OW20871  10.718   9.057   0.115
 6325SOL    HW120872  10.629   9.023   0.125
 6325SOL    HW220873  10.718   9.100   0.030
 6326SOL     OW20874   9.441   1.558   1.964
 6326SOL    HW120875   9.357   1.534   1.924
 6326SOL    HW220876   9.424   1.557   2.058
 6327SOL     OW20877   3.584   3.552  12.317
 6327SOL    HW120878   3.509   3.504  12.352
 6327SOL    HW220879   3.546   3.627  12.272
 6328SOL     OW20880  10.661   7.802   2.263
 6328SOL    HW120881  10.612   7.719   2.266
 6328SOL    HW220882  10.594   7.869   2.275
 6329SOL     OW20883   4.659  11.158   0.737
 6329SOL    HW120884   4.704  11.139   0.655
 6329SOL    HW220885   4.696  11.097   0.801
 6330SOL     OW20886   4.619  14.145  13.612
 6330SOL    HW120887   4.659  14.228  13.636
 6330SOL    HW220888   4.563  14.165  13.538
 6331SOL     OW20889   1.896  10.725   1.815
 6331SOL    HW120890   1.852  10.646   1.848
 6331SOL    HW220891   1.930  10.699   1.729
 6332SOL     OW20892   1.311  14.491  14.016
 6332SOL    HW120893   1.313  14.568  14.073
 6332SOL    HW220894   1.399  14.455  14.021
 6333SOL     OW20895   6.822   3.689  12.021
 6333SOL    HW120896   6.785   3.714  12.106
 6333SOL    HW220897   6.912   3.665  12.040
 6334SOL     OW20898  14.779   7.677   7.835
 6334SOL    HW120899  14.840   7.605   7.820
 6334SOL    HW220900  14.761   7.674   7.929
 6335SOL     OW20901  12.757  14.230   2.407
 6335SOL    HW120902  12.775  14.322   2.425
 6335SOL    HW220903  12.709  14.231   2.324
 6336SOL     OW20904   8.329  11.799   8.458
 6336SOL    HW120905   8.325  11.875   8.401
 6336SOL    HW220906   8.343  11.835   8.545
 6337SOL     OW20907   9.903  12.622   8.550
 6337SOL    HW120908   9.968  12.687   8.524
 6337SOL    HW220909   9.953  12.554   8.594
 6338SOL     OW20910   0.356  13.697   1.028
 6338SOL    HW120911   0.275  13.685   1.078
 6338SOL    HW220912   0.424  13.706   1.095
 6339SOL     OW20913   3.894   0.100   2.682
 6339SOL    HW120914   3.848   0.063   2.757
 6339SOL    HW220915   3.907   0.192   2.705
 6340SOL     OW20916   4.080   0.884  12.077
 6340SOL    HW120917   4.067   0.854  12.167
 6340SOL    HW220918   4.025   0.827  12.024
 6341SOL     OW20919  12.277   6.259   3.807
 6341SOL    HW120920  12.279   6.282   3.899
 6341SOL    HW220921  12.262   6.342   3.761
 6342SOL     OW20922   8.851   4.814   5.865
 6342SOL    HW120923   8.945   4.819   5.847
 6342SOL    HW220924   8.831   4.894   5.912
 6343SOL     OW20925   8.045   6.912   4.401
 6343SOL    HW120926   8.065   6.969   4.326
 6343SOL    HW220927   8.073   6.825   4.372
 6344SOL     OW20928   7.133  14.397   9.581
 6344SOL    HW120929   7.222  14.360   9.580
 6344SOL    HW220930   7.145  14.486   9.615
 6345SOL     OW20931   2.414   8.465   2.753
 6345SOL    HW120932   2.454   8.543   2.714
 6345SOL    HW220933   2.329   8.457   2.709
 6346SOL     OW20934  10.144   6.951   7.197
 6346SOL    HW120935  10.122   6.887   7.265
 6346SOL    HW220936  10.103   7.032   7.226
 6347SOL     OW20937   5.842   6.326   5.166
 6347SOL    HW120938   5.910   6.291   5.223
 6347SOL    HW220939   5.764   6.333   5.221
 6348SOL     OW20940  11.265   4.711  12.959
 6348SOL    HW120941  11.249   4.617  12.947
 6348SOL    HW220942  11.336   4.715  13.023
 6349SOL     OW20943   4.267   4.470  13.625
 6349SOL    HW120944   4.247   4.543  13.685
 6349SOL    HW220945   4.336   4.504  13.569
 6350SOL     OW20946   9.297  11.930   0.161
 6350SOL    HW120947   9.295  11.859   0.224
 6350SOL    HW220948   9.307  12.009   0.214
 6351SOL     OW20949   6.102   9.928   2.370
 6351SOL    HW120950   6.097   9.895   2.280
 6351SOL    HW220951   6.046   9.869   2.421
 6352SOL     OW20952  14.083   0.439  10.047
 6352SOL    HW120953  14.011   0.456  10.107
 6352SOL    HW220954  14.122   0.525  10.030
 6353SOL     OW20955   4.714   9.145  12.867
 6353SOL    HW120956   4.794   9.092  12.870
 6353SOL    HW220957   4.665   9.109  12.793
 6354SOL     OW20958  12.802   9.993   4.234
 6354SOL    HW120959  12.870   9.945   4.186
 6354SOL    HW220960  12.846  10.023   4.314
 6355SOL     OW20961  14.564  10.112   4.342
 6355SOL    HW120962  14.656  10.087   4.351
 6355SOL    HW220963  14.556  10.143   4.252
 6356SOL     OW20964   8.614   5.319  10.647
 6356SOL    HW120965   8.530   5.279  10.626
 6356SOL    HW220966   8.599   5.413  10.635
 6357SOL     OW20967  14.672   4.979   4.573
 6357SOL    HW120968  14.720   4.901   4.547
 6357SOL    HW220969  14.650   4.964   4.665
 6358SOL     OW20970   1.122   1.143  11.551
 6358SOL    HW120971   1.211   1.131  11.519
 6358SOL    HW220972   1.098   1.058  11.587
 6359SOL     OW20973   6.299   1.195  11.658
 6359SOL    HW120974   6.284   1.234  11.745
 6359SOL    HW220975   6.216   1.152  11.637
 6360SOL     OW20976   5.676  14.783   2.774
 6360SOL    HW120977   5.667  14.745   2.862
 6360SOL    HW220978   5.586  14.804   2.748
 6361SOL     OW20979   7.168   8.570   8.344
 6361SOL    HW120980   7.254   8.603   8.317
 6361SOL    HW220981   7.165   8.584   8.438
 6362SOL     OW20982   9.762  10.674  14.841
 6362SOL    HW120983   9.791  10.741   0.021
 6362SOL    HW220984   9.756  10.595   0.012
 6363SOL     OW20985  14.527  13.835   8.549
 6363SOL    HW120986  14.607  13.798   8.510
 6363SOL    HW220987  14.459  13.818   8.483
 6364SOL     OW20988  14.318   4.813   9.148
 6364SOL    HW120989  14.228   4.828   9.119
 6364SOL    HW220990  14.355   4.900   9.157
 6365SOL     OW20991   3.234   0.696  12.744
 6365SOL    HW120992   3.188   0.619  12.776
 6365SOL    HW220993   3.323   0.666  12.724
 6366SOL     OW20994  10.080   8.271   4.240
 6366SOL    HW120995  10.158   8.327   4.239
 6366SOL    HW220996  10.090   8.216   4.317
 6367SOL     OW20997   1.857   0.006   8.640
 6367SOL    HW120998   1.951  14.868   8.644
 6367SOL    HW220999   1.839   0.054   8.720
 6368SOL     OW21000   5.271   4.000  10.494
 6368SOL    HW121001   5.233   4.063  10.432
 6368SOL    HW221002   5.364   3.998  10.473
 6369SOL     OW21003  12.196   5.396   0.343
 6369SOL    HW121004  12.166   5.412   0.253
 6369SOL    HW221005  12.172   5.305   0.360
 6370SOL     OW21006  14.315   0.191  11.972
 6370SOL    HW121007  14.399   0.147  11.979
 6370SOL    HW221008  14.258   0.128  11.929
 6371SOL     OW21009   6.959   5.955   3.732
 6371SOL    HW121010   6.975   5.866   3.702
 6371SOL    HW221011   6.990   6.011   3.660
 6372SOL     OW21012   4.230   2.137  14.874
 6372SOL    HW121013   4.182   2.090  14.806
 6372SOL    HW221014   4.271   2.069   0.045
 6373SOL     OW21015   4.423  10.898  12.394
 6373SOL    HW121016   4.436  10.987  12.425
 6373SOL    HW221017   4.336  10.898  12.356
 6374SOL     OW21018   4.110  10.014   7.971
 6374SOL    HW121019   4.044  10.072   7.933
 6374SOL    HW221020   4.108  10.033   8.065
 6375SOL     OW21021  12.172  13.409   0.471
 6375SOL    HW121022  12.207  13.475   0.532
 6375SOL    HW221023  12.225  13.420   0.392
 6376SOL     OW21024   6.046  12.850   2.054
 6376SOL    HW121025   6.034  12.910   2.128
 6376SOL    HW221026   5.971  12.869   1.997
 6377SOL     OW21027   1.725   8.474  10.544
 6377SOL    HW121028   1.819   8.477  10.562
 6377SOL    HW221029   1.690   8.553  10.585
 6378SOL     OW21030   9.134   4.515   1.950
 6378SOL    HW121031   9.221   4.537   1.915
 6378SOL    HW221032   9.153   4.466   2.031
 6379SOL     OW21033   5.154  14.285   5.923
 6379SOL    HW121034   5.085  14.260   5.861
 6379SOL    HW221035   5.106  14.312   6.002
 6380SOL     OW21036   1.804   4.015  14.263
 6380SOL    HW121037   1.838   3.951  14.202
 6380SOL    HW221038   1.880   4.069  14.287
 6381SOL     OW21039   4.929   0.546   4.313
 6381SOL    HW121040   4.961   0.456   4.318
 6381SOL    HW221041   4.859   0.549   4.378
 6382SOL     OW21042  11.848  13.738   2.570
 6382SOL    HW121043  11.795  13.816   2.587
 6382SOL    HW221044  11.835  13.721   2.476
 6383SOL     OW21045  10.479   7.669   1.455
 6383SOL    HW121046  10.421   7.640   1.526
 6383SOL    HW221047  10.425   7.728   1.402
 6384SOL     OW21048   2.687   4.340   6.910
 6384SOL    HW121049   2.618   4.310   6.968
 6384SOL    HW221050   2.655   4.424   6.876
 6385SOL     OW21051   1.650   4.413   9.043
 6385SOL    HW121052   1.719   4.376   8.988
 6385SOL    HW221053   1.597   4.338   9.070
 6386SOL     OW21054   5.585   9.452   9.325
 6386SOL    HW121055   5.600   9.438   9.232
 6386SOL    HW221056   5.651   9.518   9.349
 6387SOL     OW21057   0.963   6.895   7.933
 6387SOL    HW121058   1.005   6.813   7.910
 6387SOL    HW221059   1.031   6.946   7.978
 6388SOL     OW21060   5.675   3.382   9.128
 6388SOL    HW121061   5.697   3.467   9.166
 6388SOL    HW221062   5.741   3.322   9.162
 6389SOL     OW21063   0.278  11.944   9.070
 6389SOL    HW121064   0.283  11.910   9.160
 6389SOL    HW221065   0.187  11.974   9.061
 6390SOL     OW21066   5.796  11.236   6.136
 6390SOL    HW121067   5.842  11.176   6.195
 6390SOL    HW221068   5.833  11.219   6.050
 6391SOL     OW21069   8.610  13.929   2.122
 6391SOL    HW121070   8.659  13.848   2.109
 6391SOL    HW221071   8.665  13.997   2.082
 6392SOL     OW21072   8.514   3.240   3.095
 6392SOL    HW121073   8.447   3.179   3.125
 6392SOL    HW221074   8.541   3.206   3.010
 6393SOL     OW21075   4.817  14.021   5.656
 6393SOL    HW121076   4.819  13.964   5.733
 6393SOL    HW221077   4.838  14.108   5.690
 6394SOL     OW21078   7.229   6.798  12.203
 6394SOL    HW121079   7.297   6.854  12.166
 6394SOL    HW221080   7.257   6.785  12.294
 6395SOL     OW21081   7.850  13.855   7.904
 6395SOL    HW121082   7.936  13.823   7.876
 6395SOL    HW221083   7.867  13.900   7.987
 6396SOL     OW21084   0.254  13.956   7.904
 6396SOL    HW121085   0.217  14.042   7.887
 6396SOL    HW221086   0.178  13.898   7.909
 6397SOL     OW21087   9.038   9.168   8.674
 6397SOL    HW121088   9.132   9.176   8.659
 6397SOL    HW221089   9.026   9.075   8.694
 6398SOL     OW21090   4.181   3.711  14.304
 6398SOL    HW121091   4.120   3.693  14.233
 6398SOL    HW221092   4.179   3.632  14.358
 6399SOL     OW21093  13.504   0.674   3.613
 6399SOL    HW121094  13.586   0.631   3.591
 6399SOL    HW221095  13.438   0.630   3.558
 6400SOL     OW21096  12.878   9.041   3.615
 6400SOL    HW121097  12.802   8.983   3.610
 6400SOL    HW221098  12.844   9.126   3.587
 6401SOL     OW21099  11.683   5.299  14.509
 6401SOL    HW121100  11.647   5.384  14.483
 6401SOL    HW221101  11.635   5.276  14.589
 6402SOL     OW21102   7.317   2.319  13.257
 6402SOL    HW121103   7.258   2.391  13.278
 6402SOL    HW221104   7.350   2.339  13.169
 6403SOL     OW21105   8.599  14.824   4.944
 6403SOL    HW121106   8.543  14.753   4.912
 6403SOL    HW221107   8.688  14.796   4.923
 6404SOL     OW21108  11.535   1.920  11.632
 6404SOL    HW121109  11.454   1.969  11.620
 6404SOL    HW221110  11.521   1.839  11.582
 6405SOL     OW21111  13.397   5.788  10.115
 6405SOL    HW121112  13.468   5.842  10.079
 6405SOL    HW221113  13.322   5.847  10.119
 6406SOL     OW21114  10.876  13.619  14.058
 6406SOL    HW121115  10.789  13.660  14.057
 6406SOL    HW221116  10.873  13.554  13.987
 6407SOL     OW21117  11.825  12.182   3.046
 6407SOL    HW121118  11.833  12.149   2.957
 6407SOL    HW221119  11.836  12.277   3.037
 6408SOL     OW21120   8.469   0.914   3.871
 6408SOL    HW121121   8.383   0.874   3.876
 6408SOL    HW221122   8.457   1.002   3.906
 6409SOL     OW21123  14.733  11.427   3.566
 6409SOL    HW121124  14.798  11.399   3.631
 6409SOL    HW221125  14.678  11.350   3.553
 6410SOL     OW21126   2.188   8.755  13.830
 6410SOL    HW121127   2.221   8.831  13.878
 6410SOL    HW221128   2.131   8.710  13.893
 6411SOL     OW21129   1.885  11.269   3.409
 6411SOL    HW121130   1.945  11.205   3.446
 6411SOL    HW221131   1.824  11.218   3.356
 6412SOL     OW21132   2.012   2.330   1.031
 6412SOL    HW121133   1.934   2.285   1.000
 6412SOL    HW221134   2.052   2.366   0.952
 6413SOL     OW21135   4.797   6.002   7.450
 6413SOL    HW121136   4.783   6.068   7.382
 6413SOL    HW221137   4.786   5.918   7.406
 6414SOL     OW21138   5.957   4.260  13.314
 6414SOL    HW121139   5.975   4.327  13.249
 6414SOL    HW221140   5.987   4.298  13.397
 6415SOL     OW21141  10.136   2.435   1.340
 6415SOL    HW121142  10.166   2.345   1.355
 6415SOL    HW221143  10.214   2.489   1.349
 6416SOL     OW21144  11.744   6.957   0.173
 6416SOL    HW121145  11.833   6.992   0.175
 6416SOL    HW221146  11.721   6.955   0.080
 6417SOL     OW21147   5.262  14.014   8.628
 6417SOL    HW121148   5.339  14.028   8.682
 6417SOL    HW221149   5.203  14.086   8.650
 6418SOL     OW21150   4.922   8.229   4.337
 6418SOL    HW121151   4.998   8.254   4.284
 6418SOL    HW221152   4.947   8.251   4.427
 6419SOL     OW21153   5.184  10.244  10.321
 6419SOL    HW121154   5.240  10.167  10.330
 6419SOL    HW221155   5.246  10.317  10.318
 6420SOL     OW21156  11.235   3.992   9.850
 6420SOL    HW121157  11.193   4.046   9.917
 6420SOL    HW221158  11.168   3.931   9.823
 6421SOL     OW21159   8.281   5.462  12.964
 6421SOL    HW121160   8.193   5.445  12.931
 6421SOL    HW221161   8.284   5.417  13.048
 6422SOL     OW21162   7.339  13.143   0.640
 6422SOL    HW121163   7.339  13.049   0.626
 6422SOL    HW221164   7.282  13.178   0.571
 6423SOL     OW21165   4.569   0.999   3.234
 6423SOL    HW121166   4.503   1.062   3.264
 6423SOL    HW221167   4.636   1.001   3.303
 6424SOL     OW21168   9.846  10.383  12.489
 6424SOL    HW121169   9.937  10.412  12.493
 6424SOL    HW221170   9.809  10.429  12.414
 6425SOL     OW21171   2.767   9.653   3.661
 6425SOL    HW121172   2.766   9.558   3.648
 6425SOL    HW221173   2.682   9.672   3.701
 6426SOL     OW21174   9.578   6.624   3.718
 6426SOL    HW121175   9.649   6.677   3.755
 6426SOL    HW221176   9.587   6.539   3.761
 6427SOL     OW21177   6.650   9.817   3.060
 6427SOL    HW121178   6.622   9.895   3.013
 6427SOL    HW221179   6.610   9.824   3.147
 6428SOL     OW21180   1.990  12.935   3.160
 6428SOL    HW121181   1.913  12.952   3.216
 6428SOL    HW221182   2.053  13.002   3.187
 6429SOL     OW21183   4.542   6.463   7.801
 6429SOL    HW121184   4.602   6.460   7.875
 6429SOL    HW221185   4.468   6.408   7.828
 6430SOL     OW21186  12.574   1.927  12.000
 6430SOL    HW121187  12.612   1.842  11.978
 6430SOL    HW221188  12.648   1.987  12.005
 6431SOL     OW21189  10.420  10.007  11.516
 6431SOL    HW121190  10.402   9.914  11.503
 6431SOL    HW221191  10.508  10.020  11.481
 6432SOL     OW21192   2.310   3.704  12.183
 6432SOL    HW121193   2.277   3.614  12.177
 6432SOL    HW221194   2.248   3.756  12.132
 6433SOL     OW21195   1.427  14.776   4.466
 6433SOL    HW121196   1.517  14.811   4.470
 6433SOL    HW221197   1.414  14.735   4.551
 6434SOL     OW21198  10.502   8.924  14.730
 6434SOL    HW121199  10.596   8.923  14.713
 6434SOL    HW221200  10.462   8.925  14.643
 6435SOL     OW21201  11.735  11.454  11.494
 6435SOL    HW121202  11.698  11.428  11.579
 6435SOL    HW221203  11.661  11.494  11.448
 6436SOL     OW21204   4.594   0.437  13.868
 6436SOL    HW121205   4.508   0.404  13.842
 6436SOL    HW221206   4.589   0.531  13.853
 6437SOL     OW21207  11.783   0.118  14.128
 6437SOL    HW121208  11.863   0.119  14.074
 6437SOL    HW221209  11.727   0.053  14.086
 6438SOL     OW21210   1.414  13.370   8.427
 6438SOL    HW121211   1.373  13.314   8.360
 6438SOL    HW221212   1.470  13.311   8.477
 6439SOL     OW21213   9.023   4.497   7.107
 6439SOL    HW121214   9.042   4.537   7.192
 6439SOL    HW221215   8.961   4.557   7.066
 6440SOL     OW21216  12.178  11.044  13.077
 6440SOL    HW121217  12.129  10.963  13.088
 6440SOL    HW221218  12.192  11.077  13.166
 6441SOL     OW21219  13.022   3.829  11.103
 6441SOL    HW121220  12.969   3.758  11.067
 6441SOL    HW221221  13.006   3.904  11.044
 6442SOL     OW21222  11.974   7.048  12.160
 6442SOL    HW121223  11.883   7.053  12.130
 6442SOL    HW221224  12.013   6.977  12.109
 6443SOL     OW21225   9.525   9.469   4.559
 6443SOL    HW121226   9.481   9.553   4.568
 6443SOL    HW221227   9.532   9.455   4.465
 6444SOL     OW21228   1.149  14.664  14.205
 6444SOL    HW121229   1.067  14.700  14.172
 6444SOL    HW221230   1.188  14.737  14.255
 6445SOL     OW21231  12.549  11.375  10.583
 6445SOL    HW121232  12.511  11.451  10.538
 6445SOL    HW221233  12.476  11.337  10.632
 6446SOL     OW21234  12.404  11.061   5.661
 6446SOL    HW121235  12.392  11.143   5.614
 6446SOL    HW221236  12.467  11.011   5.608
 6447SOL     OW21237  11.951  13.371   3.090
 6447SOL    HW121238  11.925  13.302   3.029
 6447SOL    HW221239  11.960  13.449   3.036
 6448SOL     OW21240  10.826   1.268   5.833
 6448SOL    HW121241  10.748   1.215   5.818
 6448SOL    HW221242  10.886   1.209   5.879
 6449SOL     OW21243   4.995   5.791   1.835
 6449SOL    HW121244   4.984   5.886   1.842
 6449SOL    HW221245   5.076   5.773   1.883
 6450SOL     OW21246   6.884   1.239  14.833
 6450SOL    HW121247   6.923   1.213   0.035
 6450SOL    HW221248   6.959   1.248  14.774
 6451SOL     OW21249   4.463   0.379   9.744
 6451SOL    HW121250   4.392   0.429   9.705
 6451SOL    HW221251   4.436   0.287   9.736
 6452SOL     OW21252  10.370   8.504   4.924
 6452SOL    HW121253  10.356   8.412   4.947
 6452SOL    HW221254  10.409   8.543   5.003
 6453SOL     OW21255  14.145  13.150  13.464
 6453SOL    HW121256  14.074  13.102  13.506
 6453SOL    HW221257  14.221  13.135  13.520
 6454SOL     OW21258   7.536   6.672   3.044
 6454SOL    HW121259   7.496   6.644   2.962
 6454SOL    HW221260   7.629   6.680   3.024
 6455SOL     OW21261   6.577  10.124  14.393
 6455SOL    HW121262   6.670  10.137  14.371
 6455SOL    HW221263   6.576  10.043  14.444
 6456SOL     OW21264  11.257   1.577   2.985
 6456SOL    HW121265  11.180   1.538   3.027
 6456SOL    HW221266  11.226   1.600   2.897
 6457SOL     OW21267   6.674   1.616   4.414
 6457SOL    HW121268   6.628   1.662   4.484
 6457SOL    HW221269   6.631   1.645   4.334
 6458SOL     OW21270   3.994   7.843  10.918
 6458SOL    HW121271   3.998   7.858  10.824
 6458SOL    HW221272   4.077   7.801  10.939
 6459SOL     OW21273   4.380  13.713   9.916
 6459SOL    HW121274   4.380  13.642   9.852
 6459SOL    HW221275   4.363  13.792   9.865
 6460SOL     OW21276  11.101   0.352   6.798
 6460SOL    HW121277  11.173   0.329   6.857
 6460SOL    HW221278  11.137   0.337   6.710
 6461SOL     OW21279   5.186  13.450   5.956
 6461SOL    HW121280   5.156  13.366   5.921
 6461SOL    HW221281   5.128  13.468   6.030
 6462SOL     OW21282   8.412   5.260   1.249
 6462SOL    HW121283   8.337   5.202   1.264
 6462SOL    HW221284   8.474   5.238   1.319
 6463SOL     OW21285   6.296   5.678   6.922
 6463SOL    HW121286   6.360   5.693   6.991
 6463SOL    HW221287   6.335   5.715   6.843
 6464SOL     OW21288   3.099   3.646  10.666
 6464SOL    HW121289   3.060   3.575  10.616
 6464SOL    HW221290   3.037   3.662  10.737
 6465SOL     OW21291   3.750  12.056   8.325
 6465SOL    HW121292   3.673  12.100   8.361
 6465SOL    HW221293   3.800  12.029   8.402
 6466SOL     OW21294   6.816   2.835   4.729
 6466SOL    HW121295   6.780   2.752   4.763
 6466SOL    HW221296   6.752   2.901   4.756
 6467SOL     OW21297  10.135   4.462  14.772
 6467SOL    HW121298  10.096   4.441  14.688
 6467SOL    HW221299  10.086   4.409  14.835
 6468SOL     OW21300  14.025   9.791  12.309
 6468SOL    HW121301  13.987   9.857  12.367
 6468SOL    HW221302  13.952   9.763  12.254
 6469SOL     OW21303   2.891   4.561   5.297
 6469SOL    HW121304   2.933   4.644   5.315
 6469SOL    HW221305   2.844   4.539   5.378
 6470SOL     OW21306  11.945   0.130   8.846
 6470SOL    HW121307  12.011   0.064   8.826
 6470SOL    HW221308  11.918   0.164   8.761
 6471SOL     OW21309  10.426   5.291   7.311
 6471SOL    HW121310  10.440   5.225   7.379
 6471SOL    HW221311  10.511   5.334   7.302
 6472SOL     OW21312   8.699   6.925  13.149
 6472SOL    HW121313   8.659   6.965  13.226
 6472SOL    HW221314   8.678   6.985  13.077
 6473SOL     OW21315   3.685  14.603   5.579
 6473SOL    HW121316   3.720  14.546   5.647
 6473SOL    HW221317   3.647  14.676   5.627
 6474SOL     OW21318   8.653   2.133   3.964
 6474SOL    HW121319   8.665   2.084   4.045
 6474SOL    HW221320   8.724   2.197   3.963
 6475SOL     OW21321   7.403   1.297   3.804
 6475SOL    HW121322   7.384   1.380   3.762
 6475SOL    HW221323   7.340   1.236   3.767
 6476SOL     OW21324   5.868   3.543  10.963
 6476SOL    HW121325   5.779   3.575  10.949
 6476SOL    HW221326   5.899   3.519  10.876
 6477SOL     OW21327  12.233   2.242   1.446
 6477SOL    HW121328  12.319   2.270   1.479
 6477SOL    HW221329  12.206   2.173   1.507
 6478SOL     OW21330  13.446   9.793  12.527
 6478SOL    HW121331  13.443   9.884  12.501
 6478SOL    HW221332  13.510   9.790  12.598
 6479SOL     OW21333   5.234   7.092  11.212
 6479SOL    HW121334   5.269   7.165  11.162
 6479SOL    HW221335   5.298   7.021  11.198
 6480SOL     OW21336   9.902   0.548   4.415
 6480SOL    HW121337   9.909   0.468   4.467
 6480SOL    HW221338   9.993   0.576   4.401
 6481SOL     OW21339   2.693  11.533  13.290
 6481SOL    HW121340   2.663  11.607  13.237
 6481SOL    HW221341   2.625  11.522  13.356
 6482SOL     OW21342   3.803   8.636   7.238
 6482SOL    HW121343   3.735   8.581   7.278
 6482SOL    HW221344   3.763   8.671   7.159
 6483SOL     OW21345   8.256  13.423  10.095
 6483SOL    HW121346   8.283  13.331  10.107
 6483SOL    HW221347   8.213  13.445  10.178
 6484SOL     OW21348  10.947   4.902   4.289
 6484SOL    HW121349  10.932   4.820   4.242
 6484SOL    HW221350  11.042   4.914   4.286
 6485SOL     OW21351  12.539   7.458   2.142
 6485SOL    HW121352  12.599   7.393   2.180
 6485SOL    HW221353  12.527   7.523   2.211
 6486SOL     OW21354   3.966  13.559  10.414
 6486SOL    HW121355   3.964  13.478  10.363
 6486SOL    HW221356   4.055  13.563  10.449
 6487SOL     OW21357  12.773  11.028  10.388
 6487SOL    HW121358  12.767  10.969  10.313
 6487SOL    HW221359  12.682  11.037  10.418
 6488SOL     OW21360   4.720   0.029  11.709
 6488SOL    HW121361   4.769   0.041  11.628
 6488SOL    HW221362   4.686   0.116  11.730
 6489SOL     OW21363  12.474   6.108   8.707
 6489SOL    HW121364  12.537   6.088   8.638
 6489SOL    HW221365  12.482   6.202   8.721
 6490SOL     OW21366   7.894  11.862   9.310
 6490SOL    HW121367   7.906  11.902   9.224
 6490SOL    HW221368   7.805  11.888   9.336
 6491SOL     OW21369   0.769   8.263   1.532
 6491SOL    HW121370   0.731   8.314   1.604
 6491SOL    HW221371   0.694   8.229   1.484
 6492SOL     OW21372   0.191   2.519   9.557
 6492SOL    HW121373   0.201   2.612   9.580
 6492SOL    HW221374   0.281   2.485   9.557
 6493SOL     OW21375   8.697  14.185  13.435
 6493SOL    HW121376   8.671  14.112  13.492
 6493SOL    HW221377   8.616  14.236  13.423
 6494SOL     OW21378   6.926   8.578   1.999
 6494SOL    HW121379   6.891   8.665   1.980
 6494SOL    HW221380   6.859   8.517   1.968
 6495SOL     OW21381   1.392  11.505   5.497
 6495SOL    HW121382   1.335  11.582   5.495
 6495SOL    HW221383   1.360  11.453   5.570
 6496SOL     OW21384   6.412  11.504   7.178
 6496SOL    HW121385   6.421  11.569   7.248
 6496SOL    HW221386   6.500  11.495   7.142
 6497SOL     OW21387   0.035   3.219   8.343
 6497SOL    HW121388  14.838   3.169   8.323
 6497SOL    HW221389   0.019   3.305   8.304
 6498SOL     OW21390   1.798  13.681   0.692
 6498SOL    HW121391   1.798  13.712   0.783
 6498SOL    HW221392   1.783  13.587   0.699
 6499SOL     OW21393   5.776  12.151  12.872
 6499SOL    HW121394   5.775  12.181  12.781
 6499SOL    HW221395   5.707  12.201  12.915
 6500SOL     OW21396   4.305   3.750   6.000
 6500SOL    HW121397   4.317   3.661   5.966
 6500SOL    HW221398   4.210   3.764   5.995
 6501SOL     OW21399   1.864   6.166   8.002
 6501SOL    HW121400   1.901   6.212   8.078
 6501SOL    HW221401   1.907   6.080   8.003
 6502SOL     OW21402   7.368   8.108   9.948
 6502SOL    HW121403   7.399   8.072  10.031
 6502SOL    HW221404   7.274   8.094   9.950
 6503SOL     OW21405   0.035   5.410   8.246
 6503SOL    HW121406   0.123   5.448   8.246
 6503SOL    HW221407   0.049   5.316   8.232
 6504SOL     OW21408   3.732  10.247  13.935
 6504SOL    HW121409   3.707  10.259  14.026
 6504SOL    HW221410   3.683  10.314  13.888
 6505SOL     OW21411   1.829  13.492   6.347
 6505SOL    HW121412   1.797  13.564   6.402
 6505SOL    HW221413   1.870  13.432   6.409
 6506SOL     OW21414   5.067   3.372   1.051
 6506SOL    HW121415   5.155   3.338   1.065
 6506SOL    HW221416   5.050   3.359   0.958
 6507SOL     OW21417   4.808   3.820  10.273
 6507SOL    HW121418   4.759   3.748  10.233
 6507SOL    HW221419   4.745   3.892  10.278
 6508SOL     OW21420   8.559   3.174  10.836
 6508SOL    HW121421   8.512   3.257  10.844
 6508SOL    HW221422   8.651   3.198  10.831
 6509SOL     OW21423  11.165  12.163   9.348
 6509SOL    HW121424  11.137  12.250   9.319
 6509SOL    HW221425  11.201  12.177   9.435
 6510SOL     OW21426  14.025   1.518  13.253
 6510SOL    HW121427  14.056   1.463  13.325
 6510SOL    HW221428  14.103   1.560  13.220
 6511SOL     OW21429   5.860   1.458   8.178
 6511SOL    HW121430   5.783   1.416   8.216
 6511SOL    HW221431   5.934   1.407   8.212
 6512SOL     OW21432   4.695  10.469   1.457
 6512SOL    HW121433   4.766  10.422   1.414
 6512SOL    HW221434   4.738  10.519   1.527
 6513SOL     OW21435   0.747   6.615   2.118
 6513SOL    HW121436   0.729   6.524   2.096
 6513SOL    HW221437   0.841   6.626   2.101
 6514SOL     OW21438   1.770   2.325   3.557
 6514SOL    HW121439   1.698   2.386   3.540
 6514SOL    HW221440   1.728   2.239   3.554
 6515SOL     OW21441   6.307   8.813  10.715
 6515SOL    HW121442   6.257   8.816  10.633
 6515SOL    HW221443   6.373   8.881  10.705
 6516SOL     OW21444  12.201  11.169  10.235
 6516SOL    HW121445  12.168  11.175  10.325
 6516SOL    HW221446  12.270  11.234  10.229
 6517SOL     OW21447  12.124  14.066   7.160
 6517SOL    HW121448  12.166  14.022   7.086
 6517SOL    HW221449  12.045  14.106   7.123
 6518SOL     OW21450  10.178   3.201   6.254
 6518SOL    HW121451  10.154   3.128   6.311
 6518SOL    HW221452  10.187   3.275   6.313
 6519SOL     OW21453   3.109  11.984  10.329
 6519SOL    HW121454   3.075  11.925  10.395
 6519SOL    HW221455   3.118  12.068  10.374
 6520SOL     OW21456   0.410   1.762   1.364
 6520SOL    HW121457   0.459   1.694   1.317
 6520SOL    HW221458   0.325   1.764   1.321
 6521SOL     OW21459   5.169   5.914  12.850
 6521SOL    HW121460   5.095   5.855  12.859
 6521SOL    HW221461   5.169   5.966  12.931
 6522SOL     OW21462   1.782   7.619  13.122
 6522SOL    HW121463   1.748   7.646  13.207
 6522SOL    HW221464   1.738   7.537  13.103
 6523SOL     OW21465   3.943   2.618   1.362
 6523SOL    HW121466   3.945   2.543   1.303
 6523SOL    HW221467   3.865   2.604   1.416
 6524SOL     OW21468  13.684   5.938   8.812
 6524SOL    HW121469  13.681   5.956   8.906
 6524SOL    HW221470  13.611   5.878   8.797
 6525SOL     OW21471  14.500   9.347   8.782
 6525SOL    HW121472  14.538   9.295   8.710
 6525SOL    HW221473  14.534   9.435   8.767
 6526SOL     OW21474   0.983   7.890   1.563
 6526SOL    HW121475   0.911   7.843   1.521
 6526SOL    HW221476   0.993   7.849   1.648
 6527SOL     OW21477  10.113   9.471  11.034
 6527SOL    HW121478  10.165   9.491  10.957
 6527SOL    HW221479  10.033   9.524  11.024
 6528SOL     OW21480   3.635  11.811  10.437
 6528SOL    HW121481   3.604  11.756  10.509
 6528SOL    HW221482   3.670  11.749  10.373
 6529SOL     OW21483   6.910  12.343   0.399
 6529SOL    HW121484   6.894  12.249   0.412
 6529SOL    HW221485   6.883  12.383   0.482
 6530SOL     OW21486   6.479  11.154   6.509
 6530SOL    HW121487   6.420  11.177   6.581
 6530SOL    HW221488   6.555  11.115   6.553
 6531SOL     OW21489   9.710  10.505  12.297
 6531SOL    HW121490   9.724  10.449  12.220
 6531SOL    HW221491   9.616  10.521  12.297
 6532SOL     OW21492   2.849   4.431   0.401
 6532SOL    HW121493   2.858   4.524   0.421
 6532SOL    HW221494   2.757   4.421   0.376
 6533SOL     OW21495   9.560   6.541   2.273
 6533SOL    HW121496   9.637   6.483   2.273
 6533SOL    HW221497   9.500   6.502   2.336
 6534SOL     OW21498  12.673  13.072   1.147
 6534SOL    HW121499  12.756  13.036   1.181
 6534SOL    HW221500  12.606  13.035   1.204
 6535SOL     OW21501   7.806  11.204   5.829
 6535SOL    HW121502   7.825  11.121   5.786
 6535SOL    HW221503   7.890  11.249   5.833
 6536SOL     OW21504   2.079  13.946  12.397
 6536SOL    HW121505   2.134  13.991  12.461
 6536SOL    HW221506   2.009  13.907  12.448
 6537SOL     OW21507   1.722  11.823   2.098
 6537SOL    HW121508   1.653  11.805   2.035
 6537SOL    HW221509   1.733  11.740   2.146
 6538SOL     OW21510   6.164   2.817   6.222
 6538SOL    HW121511   6.225   2.876   6.266
 6538SOL    HW221512   6.209   2.733   6.220
 6539SOL     OW21513  11.035   8.575  11.056
 6539SOL    HW121514  11.102   8.600  10.992
 6539SOL    HW221515  11.040   8.480  11.061
 6540SOL     OW21516   9.257  14.213   1.169
 6540SOL    HW121517   9.234  14.300   1.202
 6540SOL    HW221518   9.338  14.191   1.216
 6541SOL     OW21519  14.337  14.083   4.065
 6541SOL    HW121520  14.273  14.142   4.026
 6541SOL    HW221521  14.421  14.127   4.051
 6542SOL     OW21522   7.251   2.755   5.765
 6542SOL    HW121523   7.208   2.773   5.682
 6542SOL    HW221524   7.344   2.754   5.745
 6543SOL     OW21525   0.264   5.358   5.856
 6543SOL    HW121526   0.233   5.268   5.863
 6543SOL    HW221527   0.357   5.353   5.875
 6544SOL     OW21528  10.787  12.227   4.143
 6544SOL    HW121529  10.731  12.270   4.077
 6544SOL    HW221530  10.735  12.229   4.223
 6545SOL     OW21531   2.441   0.694   9.513
 6545SOL    HW121532   2.365   0.752   9.517
 6545SOL    HW221533   2.515   0.751   9.492
 6546SOL     OW21534  10.974   0.432   8.474
 6546SOL    HW121535  10.880   0.451   8.471
 6546SOL    HW221536  10.983   0.345   8.437
 6547SOL     OW21537  12.602   4.917   9.152
 6547SOL    HW121538  12.646   4.848   9.202
 6547SOL    HW221539  12.587   4.879   9.066
 6548SOL     OW21540  11.200   4.616  14.673
 6548SOL    HW121541  11.120   4.615  14.620
 6548SOL    HW221542  11.252   4.687  14.636
 6549SOL     OW21543  12.289  13.731   6.505
 6549SOL    HW121544  12.327  13.708   6.420
 6549SOL    HW221545  12.349  13.797   6.541
 6550SOL     OW21546   9.179   4.307  10.504
 6550SOL    HW121547   9.111   4.374  10.515
 6550SOL    HW221548   9.236   4.320  10.580
 6551SOL     OW21549   5.084   6.457   8.416
 6551SOL    HW121550   5.035   6.470   8.336
 6551SOL    HW221551   5.020   6.426   8.479
 6552SOL     OW21552   4.777   7.071  12.444
 6552SOL    HW121553   4.743   7.090  12.356
 6552SOL    HW221554   4.775   7.155  12.489
 6553SOL     OW21555   8.162   0.509   2.210
 6553SOL    HW121556   8.067   0.508   2.193
 6553SOL    HW221557   8.190   0.419   2.198
 6554SOL     OW21558  11.969   0.687   3.293
 6554SOL    HW121559  11.910   0.748   3.248
 6554SOL    HW221560  12.008   0.739   3.363
 6555SOL     OW21561   4.264  14.616   1.286
 6555SOL    HW121562   4.196  14.572   1.235
 6555SOL    HW221563   4.337  14.626   1.226
 6556SOL     OW21564   5.802   1.885   5.443
 6556SOL    HW121565   5.848   1.847   5.517
 6556SOL    HW221566   5.830   1.834   5.368
 6557SOL     OW21567   0.720  14.363  11.268
 6557SOL    HW121568   0.667  14.432  11.229
 6557SOL    HW221569   0.761  14.319  11.194
 6558SOL     OW21570  11.753  13.738   2.307
 6558SOL    HW121571  11.675  13.693   2.341
 6558SOL    HW221572  11.737  13.745   2.213
 6559SOL     OW21573   0.732  11.744   2.681
 6559SOL    HW121574   0.729  11.795   2.762
 6559SOL    HW221575   0.665  11.677   2.693
 6560SOL     OW21576   7.196   6.718   0.268
 6560SOL    HW121577   7.197   6.696   0.361
 6560SOL    HW221578   7.143   6.798   0.263
 6561SOL     OW21579   4.196   4.774   3.225
 6561SOL    HW121580   4.279   4.726   3.220
 6561SOL    HW221581   4.221   4.866   3.216
 6562SOL     OW21582   5.791   7.799   4.500
 6562SOL    HW121583   5.784   7.736   4.428
 6562SOL    HW221584   5.863   7.857   4.474
 6563SOL     OW21585   4.297   7.941   2.745
 6563SOL    HW121586   4.203   7.923   2.755
 6563SOL    HW221587   4.319   7.904   2.659
 6564SOL     OW21588   4.516   0.902   7.910
 6564SOL    HW121589   4.433   0.924   7.952
 6564SOL    HW221590   4.583   0.934   7.971
 6565SOL     OW21591  11.398   3.156   8.404
 6565SOL    HW121592  11.430   3.070   8.432
 6565SOL    HW221593  11.351   3.191   8.480
 6566SOL     OW21594   9.355   5.014   8.627
 6566SOL    HW121595   9.342   4.971   8.712
 6566SOL    HW221596   9.390   4.945   8.571
 6567SOL     OW21597   3.411   7.060   8.621
 6567SOL    HW121598   3.474   7.101   8.562
 6567SOL    HW221599   3.364   6.997   8.567
 6568SOL     OW21600   1.884   5.174  12.955
 6568SOL    HW121601   1.971   5.165  12.917
 6568SOL    HW221602   1.889   5.254  13.009
 6569SOL     OW21603   6.236  14.011   1.292
 6569SOL    HW121604   6.213  14.015   1.199
 6569SOL    HW221605   6.309  13.950   1.296
 6570SOL     OW21606   3.164  10.350  13.248
 6570SOL    HW121607   3.138  10.332  13.338
 6570SOL    HW221608   3.190  10.265  13.213
 6571SOL     OW21609   6.510  14.177   8.097
 6571SOL    HW121610   6.593  14.201   8.057
 6571SOL    HW221611   6.511  14.220   8.183
 6572SOL     OW21612   9.261   7.199   2.907
 6572SOL    HW121613   9.206   7.246   2.969
 6572SOL    HW221614   9.200   7.155   2.848
 6573SOL     OW21615  10.493   8.450   6.162
 6573SOL    HW121616  10.534   8.430   6.246
 6573SOL    HW221617  10.448   8.533   6.177
 6574SOL     OW21618   6.705   6.090   4.941
 6574SOL    HW121619   6.773   6.043   4.991
 6574SOL    HW221620   6.752   6.161   4.898
 6575SOL     OW21621   9.011  11.070   8.241
 6575SOL    HW121622   8.962  11.002   8.195
 6575SOL    HW221623   9.008  11.043   8.333
 6576SOL     OW21624   8.196   9.765   7.930
 6576SOL    HW121625   8.269   9.721   7.887
 6576SOL    HW221626   8.231   9.796   8.013
 6577SOL     OW21627   2.885  11.694   9.971
 6577SOL    HW121628   2.830  11.636   9.917
 6577SOL    HW221629   2.973  11.684   9.934
 6578SOL     OW21630  14.845  11.325   4.029
 6578SOL    HW121631   0.045  11.371   4.013
 6578SOL    HW221632  14.865  11.233   4.010
 6579SOL     OW21633  10.815   2.096   3.730
 6579SOL    HW121634  10.877   2.159   3.768
 6579SOL    HW221635  10.871   2.029   3.691
 6580SOL     OW21636   6.768  11.769   5.635
 6580SOL    HW121637   6.687  11.799   5.676
 6580SOL    HW221638   6.813  11.720   5.703
 6581SOL     OW21639   2.554   8.422   7.318
 6581SOL    HW121640   2.636   8.443   7.362
 6581SOL    HW221641   2.539   8.497   7.260
 6582SOL     OW21642  11.095   6.538   7.599
 6582SOL    HW121643  11.011   6.572   7.570
 6582SOL    HW221644  11.142   6.615   7.632
 6583SOL     OW21645   9.756   0.023   1.237
 6583SOL    HW121646   9.673   0.053   1.201
 6583SOL    HW221647   9.820   0.086   1.203
 6584SOL     OW21648  14.831  13.189  10.145
 6584SOL    HW121649  14.830  13.280  10.117
 6584SOL    HW221650  14.808  13.192  10.238
 6585SOL     OW21651   6.729   2.820   3.994
 6585SOL    HW121652   6.643   2.856   4.017
 6585SOL    HW221653   6.790   2.865   4.053
 6586SOL     OW21654   6.496  10.914   6.853
 6586SOL    HW121655   6.537  10.861   6.785
 6586SOL    HW221656   6.408  10.878   6.863
 6587SOL     OW21657  11.021   8.284  11.080
 6587SOL    HW121658  10.941   8.234  11.096
 6587SOL    HW221659  11.074   8.228  11.024
 6588SOL     OW21660   7.028   8.670  10.198
 6588SOL    HW121661   7.005   8.682  10.105
 6588SOL    HW221662   7.103   8.728  10.211
 6589SOL     OW21663   9.390  11.083  14.019
 6589SOL    HW121664   9.424  11.169  13.993
 6589SOL    HW221665   9.316  11.067  13.960
 6590SOL     OW21666  11.384  10.625   1.640
 6590SOL    HW121667  11.394  10.691   1.572
 6590SOL    HW221668  11.361  10.545   1.593
 6591SOL     OW21669   8.678   1.329   2.128
 6591SOL    HW121670   8.665   1.356   2.219
 6591SOL    HW221671   8.604   1.270   2.111
 6592SOL     OW21672   5.343  14.557   4.563
 6592SOL    HW121673   5.394  14.599   4.632
 6592SOL    HW221674   5.298  14.485   4.606
 6593SOL     OW21675   3.075   4.953   5.069
 6593SOL    HW121676   2.984   4.952   5.100
 6593SOL    HW221677   3.072   5.002   4.987
 6594SOL     OW21678  12.666   1.597   1.308
 6594SOL    HW121679  12.685   1.687   1.285
 6594SOL    HW221680  12.605   1.567   1.241
 6595SOL     OW21681  14.505   5.150   5.885
 6595SOL    HW121682  14.554   5.093   5.826
 6595SOL    HW221683  14.545   5.236   5.873
 6596SOL     OW21684  11.126  13.951  12.558
 6596SOL    HW121685  11.040  13.962  12.516
 6596SOL    HW221686  11.184  14.008  12.509
 6597SOL     OW21687   2.367   9.686   0.679
 6597SOL    HW121688   2.400   9.596   0.674
 6597SOL    HW221689   2.383   9.713   0.769
 6598SOL     OW21690   0.781   7.704  12.511
 6598SOL    HW121691   0.837   7.710  12.588
 6598SOL    HW221692   0.718   7.775  12.522
 6599SOL     OW21693   0.583   5.515   7.040
 6599SOL    HW121694   0.546   5.543   6.956
 6599SOL    HW221695   0.557   5.424   7.049
 6600SOL     OW21696  10.162   3.558   1.479
 6600SOL    HW121697  10.108   3.553   1.400
 6600SOL    HW221698  10.128   3.634   1.526
 6601SOL     OW21699   5.549  11.024   7.578
 6601SOL    HW121700   5.469  11.027   7.631
 6601SOL    HW221701   5.541  11.099   7.519
 6602SOL     OW21702   0.035   5.302  11.369
 6602SOL    HW121703   0.009   5.255  11.290
 6602SOL    HW221704   0.046   5.233  11.435
 6603SOL     OW21705   5.152   9.682   2.491
 6603SOL    HW121706   5.172   9.614   2.554
 6603SOL    HW221707   5.226   9.680   2.429
 6604SOL     OW21708   7.551   0.557  10.427
 6604SOL    HW121709   7.515   0.643  10.448
 6604SOL    HW221710   7.478   0.510  10.386
 6605SOL     OW21711   2.315   8.699   5.654
 6605SOL    HW121712   2.331   8.672   5.563
 6605SOL    HW221713   2.220   8.704   5.662
 6606SOL     OW21714  11.576   3.457  11.946
 6606SOL    HW121715  11.608   3.445  12.035
 6606SOL    HW221716  11.636   3.406  11.892
 6607SOL     OW21717   3.176  10.673   3.155
 6607SOL    HW121718   3.108  10.648   3.092
 6607SOL    HW221719   3.254  10.625   3.126
 6608SOL     OW21720   3.335   8.645   3.799
 6608SOL    HW121721   3.322   8.640   3.893
 6608SOL    HW221722   3.248   8.666   3.764
 6609SOL     OW21723   5.781   0.823   7.215
 6609SOL    HW121724   5.748   0.913   7.213
 6609SOL    HW221725   5.704   0.769   7.198
 6610SOL     OW21726   6.439  13.442   1.070
 6610SOL    HW121727   6.387  13.516   1.039
 6610SOL    HW221728   6.406  13.367   1.021
 6611SOL     OW21729   4.307  13.306   8.718
 6611SOL    HW121730   4.381  13.245   8.711
 6611SOL    HW221731   4.339  13.376   8.776
 6612SOL     OW21732  14.732  14.146   6.509
 6612SOL    HW121733  14.724  14.119   6.418
 6612SOL    HW221734  14.689  14.231   6.513
 6613SOL     OW21735   0.165   4.346   9.708
 6613SOL    HW121736   0.215   4.362   9.788
 6613SOL    HW221737   0.081   4.312   9.739
 6614SOL     OW21738   0.856   1.244  11.487
 6614SOL    HW121739   0.837   1.316  11.547
 6614SOL    HW221740   0.951   1.229  11.495
 6615SOL     OW21741   1.511   8.423   0.306
 6615SOL    HW121742   1.569   8.462   0.241
 6615SOL    HW221743   1.512   8.330   0.287
 6616SOL     OW21744  14.796   1.040  12.962
 6616SOL    HW121745  14.859   0.992  12.909
 6616SOL    HW221746  14.782   1.123  12.916
 6617SOL     OW21747   8.120   3.186  11.720
 6617SOL    HW121748   8.118   3.209  11.627
 6617SOL    HW221749   8.210   3.154  11.734
 6618SOL     OW21750   6.881  14.389  11.258
 6618SOL    HW121751   6.901  14.296  11.246
 6618SOL    HW221752   6.933  14.416  11.333
 6619SOL     OW21753   4.626   8.533  14.817
 6619SOL    HW121754   4.686   8.604  14.792
 6619SOL    HW221755   4.647   8.462  14.756
 6620SOL     OW21756  14.433   4.932   3.270
 6620SOL    HW121757  14.414   4.848   3.311
 6620SOL    HW221758  14.468   4.910   3.184
 6621SOL     OW21759   3.341  10.967   4.008
 6621SOL    HW121760   3.385  11.044   4.045
 6621SOL    HW221761   3.277  11.003   3.946
 6622SOL     OW21762   6.901  14.275   9.661
 6622SOL    HW121763   6.989  14.304   9.638
 6622SOL    HW221764   6.843  14.341   9.623
 6623SOL     OW21765   2.384   0.452   1.668
 6623SOL    HW121766   2.335   0.384   1.622
 6623SOL    HW221767   2.475   0.436   1.644
 6624SOL     OW21768   5.087   5.758   3.346
 6624SOL    HW121769   5.023   5.799   3.404
 6624SOL    HW221770   5.035   5.697   3.293
 6625SOL     OW21771   7.179   7.374  12.721
 6625SOL    HW121772   7.233   7.428  12.778
 6625SOL    HW221773   7.164   7.293  12.770
 6626SOL     OW21774   7.841   1.431  14.783
 6626SOL    HW121775   7.776   1.501  14.778
 6626SOL    HW221776   7.889   1.448  14.863
 6627SOL     OW21777   9.191   0.555   9.357
 6627SOL    HW121778   9.203   0.460   9.358
 6627SOL    HW221779   9.146   0.572   9.274
 6628SOL     OW21780  12.956   8.123  13.415
 6628SOL    HW121781  12.958   8.131  13.320
 6628SOL    HW221782  12.996   8.204  13.447
 6629SOL     OW21783   9.408   1.352   7.361
 6629SOL    HW121784   9.350   1.352   7.438
 6629SOL    HW221785   9.350   1.331   7.288
 6630SOL     OW21786  11.658   9.418  10.849
 6630SOL    HW121787  11.608   9.357  10.794
 6630SOL    HW221788  11.737   9.370  10.874
 6631SOL     OW21789   0.161  12.935   7.040
 6631SOL    HW121790   0.167  13.029   7.021
 6631SOL    HW221791   0.210  12.893   6.970
 6632SOL     OW21792   8.662   8.917  13.152
 6632SOL    HW121793   8.587   8.895  13.097
 6632SOL    HW221794   8.633   8.994  13.202
 6633SOL     OW21795   1.932   7.727   7.793
 6633SOL    HW121796   2.021   7.716   7.826
 6633SOL    HW221797   1.882   7.756   7.869
 6634SOL     OW21798   3.699  10.484   0.119
 6634SOL    HW121799   3.630  10.547   0.095
 6634SOL    HW221800   3.690  10.414   0.054
 6635SOL     OW21801   0.842   0.074  13.905
 6635SOL    HW121802   0.901   0.100  13.835
 6635SOL    HW221803   0.845   0.147  13.968
 6636SOL     OW21804   7.975   3.754   9.313
 6636SOL    HW121805   7.967   3.817   9.385
 6636SOL    HW221806   7.955   3.669   9.353
 6637SOL     OW21807   3.504   4.441   4.300
 6637SOL    HW121808   3.426   4.406   4.343
 6637SOL    HW221809   3.561   4.365   4.288
 6638SOL     OW21810   2.006   8.033  10.655
 6638SOL    HW121811   2.068   7.961  10.648
 6638SOL    HW221812   2.005   8.056  10.747
 6639SOL     OW21813  12.205   2.701   2.884
 6639SOL    HW121814  12.128   2.742   2.923
 6639SOL    HW221815  12.232   2.635   2.947
 6640SOL     OW21816   8.677  11.154   7.274
 6640SOL    HW121817   8.703  11.068   7.305
 6640SOL    HW221818   8.742  11.177   7.208
 6641SOL     OW21819  11.920   2.719  10.686
 6641SOL    HW121820  11.970   2.793  10.720
 6641SOL    HW221821  11.932   2.650  10.750
 6642SOL     OW21822   9.496  12.887   1.190
 6642SOL    HW121823   9.505  12.953   1.259
 6642SOL    HW221824   9.584  12.879   1.152
 6643SOL     OW21825   9.323   8.068   1.661
 6643SOL    HW121826   9.319   7.983   1.704
 6643SOL    HW221827   9.251   8.118   1.701
 6644SOL     OW21828   5.657  14.862   9.606
 6644SOL    HW121829   5.665  14.767   9.606
 6644SOL    HW221830   5.696   0.008   9.689
 6645SOL     OW21831   2.911  11.945   9.734
 6645SOL    HW121832   2.867  11.870   9.693
 6645SOL    HW221833   2.868  11.955   9.819
 6646SOL     OW21834   1.752   3.692  10.480
 6646SOL    HW121835   1.842   3.723  10.465
 6646SOL    HW221836   1.753   3.662  10.571
 6647SOL     OW21837   1.943   5.625   9.500
 6647SOL    HW121838   1.881   5.554   9.482
 6647SOL    HW221839   1.893   5.689   9.551
 6648SOL     OW21840   1.735   1.026  12.516
 6648SOL    HW121841   1.827   1.015  12.539
 6648SOL    HW221842   1.711   0.944  12.473
 6649SOL     OW21843   3.637   7.913   5.005
 6649SOL    HW121844   3.574   7.977   5.039
 6649SOL    HW221845   3.612   7.900   4.914
 6650SOL     OW21846  12.395   3.651  10.487
 6650SOL    HW121847  12.340   3.682  10.416
 6650SOL    HW221848  12.415   3.730  10.538
 6651SOL     OW21849   7.337  14.710  12.789
 6651SOL    HW121850   7.311  14.773  12.723
 6651SOL    HW221851   7.384  14.642  12.741
 6652SOL     OW21852  10.887   5.893  10.331
 6652SOL    HW121853  10.947   5.870  10.402
 6652SOL    HW221854  10.832   5.815  10.321
 6653SOL     OW21855  12.768   5.680   6.117
 6653SOL    HW121856  12.683   5.715   6.145
 6653SOL    HW221857  12.830   5.710   6.184
 6654SOL     OW21858  12.593   1.877   1.702
 6654SOL    HW121859  12.566   1.797   1.656
 6654SOL    HW221860  12.565   1.864   1.792
 6655SOL     OW21861  12.497  11.347   2.196
 6655SOL    HW121862  12.418  11.381   2.237
 6655SOL    HW221863  12.519  11.269   2.248
 6656SOL     OW21864   8.086  12.712   9.832
 6656SOL    HW121865   8.005  12.691   9.788
 6656SOL    HW221866   8.141  12.635   9.821
 6657SOL     OW21867   8.947  11.258   0.616
 6657SOL    HW121868   8.876  11.268   0.679
 6657SOL    HW221869   9.025  11.242   0.669
 6658SOL     OW21870   5.219   8.129  11.568
 6658SOL    HW121871   5.167   8.146  11.490
 6658SOL    HW221872   5.280   8.060  11.542
 6659SOL     OW21873  13.636   9.721   1.498
 6659SOL    HW121874  13.612   9.646   1.444
 6659SOL    HW221875  13.700   9.686   1.560
 6660SOL     OW21876   1.351   9.146   8.240
 6660SOL    HW121877   1.360   9.073   8.302
 6660SOL    HW221878   1.282   9.118   8.180
 6661SOL     OW21879   4.796   7.578   8.651
 6661SOL    HW121880   4.759   7.666   8.639
 6661SOL    HW221881   4.748   7.523   8.590
 6662SOL     OW21882   9.545   5.202   8.725
 6662SOL    HW121883   9.556   5.268   8.657
 6662SOL    HW221884   9.481   5.140   8.689
 6663SOL     OW21885   0.928  10.311   0.935
 6663SOL    HW121886   0.916  10.285   1.026
 6663SOL    HW221887   1.009  10.269   0.908
 6664SOL     OW21888   2.334  11.547  10.818
 6664SOL    HW121889   2.340  11.539  10.913
 6664SOL    HW221890   2.421  11.577  10.791
 6665SOL     OW21891  12.062   5.742   6.059
 6665SOL    HW121892  12.082   5.830   6.091
 6665SOL    HW221893  12.147   5.699   6.052
 6666SOL     OW21894   3.952  14.785   7.130
 6666SOL    HW121895   3.979  14.694   7.121
 6666SOL    HW221896   3.921  14.810   7.043
 6667SOL     OW21897  11.457  11.937   9.303
 6667SOL    HW121898  11.472  11.980   9.387
 6667SOL    HW221899  11.471  12.005   9.238
 6668SOL     OW21900   0.071   2.201   5.162
 6668SOL    HW121901   0.075   2.226   5.069
 6668SOL    HW221902  14.879   2.250   5.197
 6669SOL     OW21903  14.642   0.552  13.937
 6669SOL    HW121904  14.728   0.556  13.978
 6669SOL    HW221905  14.641   0.468  13.891
 6670SOL     OW21906  11.549  12.016   9.552
 6670SOL    HW121907  11.638  12.050   9.560
 6670SOL    HW221908  11.543  11.950   9.622
 6671SOL     OW21909  10.177  13.052   6.450
 6671SOL    HW121910  10.084  13.061   6.429
 6671SOL    HW221911  10.212  12.995   6.382
 6672SOL     OW21912   0.432   5.775   8.356
 6672SOL    HW121913   0.502   5.795   8.295
 6672SOL    HW221914   0.376   5.853   8.354
 6673SOL     OW21915   0.469  13.902   4.781
 6673SOL    HW121916   0.465  13.884   4.875
 6673SOL    HW221917   0.465  13.816   4.740
 6674SOL     OW21918   0.926  12.114  13.380
 6674SOL    HW121919   0.953  12.040  13.326
 6674SOL    HW221920   0.966  12.097  13.466
 6675SOL     OW21921   4.983  11.732   4.129
 6675SOL    HW121922   4.934  11.656   4.099
 6675SOL    HW221923   4.917  11.793   4.162
 6676SOL     OW21924   3.814  11.910  10.101
 6676SOL    HW121925   3.779  11.980  10.156
 6676SOL    HW221926   3.739  11.879  10.049
 6677SOL     OW21927  12.958  11.791   9.301
 6677SOL    HW121928  12.921  11.838   9.377
 6677SOL    HW221929  12.919  11.704   9.305
 6678SOL     OW21930  13.774   2.210  14.290
 6678SOL    HW121931  13.709   2.192  14.358
 6678SOL    HW221932  13.829   2.279  14.328
 6679SOL     OW21933   0.177   2.434  13.877
 6679SOL    HW121934   0.082   2.441  13.890
 6679SOL    HW221935   0.188   2.434  13.782
 6680SOL     OW21936   2.862   3.712   3.355
 6680SOL    HW121937   2.877   3.806   3.366
 6680SOL    HW221938   2.886   3.674   3.440
 6681SOL     OW21939   2.858   1.188   1.276
 6681SOL    HW121940   2.921   1.223   1.338
 6681SOL    HW221941   2.808   1.264   1.246
 6682SOL     OW21942   8.565   6.772   7.513
 6682SOL    HW121943   8.579   6.852   7.462
 6682SOL    HW221944   8.635   6.713   7.483
 6683SOL     OW21945  11.240   6.578   2.445
 6683SOL    HW121946  11.173   6.510   2.452
 6683SOL    HW221947  11.297   6.563   2.520
 6684SOL     OW21948   9.216   0.897  12.572
 6684SOL    HW121949   9.213   0.837  12.497
 6684SOL    HW221950   9.298   0.944  12.561
 6685SOL     OW21951  14.477  13.182   8.942
 6685SOL    HW121952  14.508  13.213   9.027
 6685SOL    HW221953  14.533  13.225   8.878
 6686SOL     OW21954   8.721  11.648   5.884
 6686SOL    HW121955   8.699  11.727   5.833
 6686SOL    HW221956   8.650  11.641   5.948
 6687SOL     OW21957   1.639   1.795   3.141
 6687SOL    HW121958   1.728   1.825   3.122
 6687SOL    HW221959   1.646   1.700   3.140
 6688SOL     OW21960   8.517   0.461   8.194
 6688SOL    HW121961   8.423   0.444   8.187
 6688SOL    HW221962   8.530   0.540   8.142
 6689SOL     OW21963  13.832   1.156   4.537
 6689SOL    HW121964  13.918   1.154   4.495
 6689SOL    HW221965  13.797   1.243   4.516
 6690SOL     OW21966   5.734  11.997  14.725
 6690SOL    HW121967   5.673  12.048  14.778
 6690SOL    HW221968   5.796  12.062  14.690
 6691SOL     OW21969  14.247   2.146   8.773
 6691SOL    HW121970  14.221   2.121   8.862
 6691SOL    HW221971  14.342   2.150   8.776
 6692SOL     OW21972   9.603   6.576   0.293
 6692SOL    HW121973   9.645   6.557   0.377
 6692SOL    HW221974   9.647   6.656   0.263
 6693SOL     OW21975   8.274   9.053  14.469
 6693SOL    HW121976   8.305   8.963  14.481
 6693SOL    HW221977   8.329   9.105  14.528
 6694SOL     OW21978  12.414  13.096   2.140
 6694SOL    HW121979  12.340  13.153   2.121
 6694SOL    HW221980  12.430  13.049   2.057
 6695SOL     OW21981   4.956   2.703   9.848
 6695SOL    HW121982   4.968   2.794   9.824
 6695SOL    HW221983   4.926   2.660   9.768
 6696SOL     OW21984  10.408   1.749   8.646
 6696SOL    HW121985  10.428   1.705   8.563
 6696SOL    HW221986  10.476   1.815   8.656
 6697SOL     OW21987  12.468   5.575   8.065
 6697SOL    HW121988  12.477   5.670   8.068
 6697SOL    HW221989  12.416   5.553   8.142
 6698SOL     OW21990   0.958   1.602   1.187
 6698SOL    HW121991   1.031   1.605   1.124
 6698SOL    HW221992   0.972   1.678   1.243
 6699SOL     OW21993   2.996   3.586  10.928
 6699SOL    HW121994   3.086   3.554  10.923
 6699SOL    HW221995   2.957   3.538  11.001
 6700SOL     OW21996   9.800   3.511   0.912
 6700SOL    HW121997   9.793   3.503   1.007
 6700SOL    HW221998   9.785   3.604   0.895
 6701SOL     OW21999   1.310   7.790   2.659
 6701SOL    HW122000   1.380   7.826   2.604
 6701SOL    HW222001   1.343   7.799   2.749
 6702SOL     OW22002   0.702   2.299  12.951
 6702SOL    HW122003   0.726   2.246  12.875
 6702SOL    HW222004   0.779   2.297  13.007
 6703SOL     OW22005  13.014   0.008  12.407
 6703SOL    HW122006  13.104  14.862  12.394
 6703SOL    HW222007  12.988  14.848  12.489
 6704SOL     OW22008   2.909  12.701   1.909
 6704SOL    HW122009   2.990  12.727   1.865
 6704SOL    HW222010   2.938  12.662   1.991
 6705SOL     OW22011  10.744  11.543   9.563
 6705SOL    HW122012  10.835  11.538   9.594
 6705SOL    HW222013  10.745  11.614   9.499
 6706SOL     OW22014   3.385   7.484   4.878
 6706SOL    HW122015   3.323   7.466   4.808
 6706SOL    HW222016   3.441   7.407   4.881
 6707SOL     OW22017   5.102  13.745   7.850
 6707SOL    HW122018   5.097  13.777   7.760
 6707SOL    HW222019   5.030  13.683   7.858
 6708SOL     OW22020  14.641   3.533   3.324
 6708SOL    HW122021  14.581   3.460   3.307
 6708SOL    HW222022  14.602   3.607   3.276
 6709SOL     OW22023   2.679   3.563   3.564
 6709SOL    HW122024   2.754   3.598   3.613
 6709SOL    HW222025   2.645   3.638   3.515
 6710SOL     OW22026  11.513  10.034  12.103
 6710SOL    HW122027  11.510  10.085  12.021
 6710SOL    HW222028  11.584  10.074  12.153
 6711SOL     OW22029  10.909   4.892   0.271
 6711SOL    HW122030  10.973   4.840   0.223
 6711SOL    HW222031  10.831   4.837   0.275
 6712SOL     OW22032   1.132   9.464   3.769
 6712SOL    HW122033   1.129   9.556   3.741
 6712SOL    HW222034   1.069   9.420   3.712
 6713SOL     OW22035  14.099   1.857  11.476
 6713SOL    HW122036  14.112   1.772  11.435
 6713SOL    HW222037  14.118   1.843  11.569
 6714SOL     OW22038  14.143   7.785   5.084
 6714SOL    HW122039  14.205   7.825   5.145
 6714SOL    HW222040  14.069   7.757   5.138
 6715SOL     OW22041  14.535   7.656   9.426
 6715SOL    HW122042  14.530   7.615   9.340
 6715SOL    HW222043  14.511   7.748   9.410
 6716SOL     OW22044  14.657   5.705   5.252
 6716SOL    HW122045  14.640   5.652   5.173
 6716SOL    HW222046  14.579   5.693   5.306
 6717SOL     OW22047   6.262   8.661   6.059
 6717SOL    HW122048   6.298   8.572   6.067
 6717SOL    HW222049   6.255   8.675   5.964
 6718SOL     OW22050  10.202  10.239   0.921
 6718SOL    HW122051  10.282  10.289   0.937
 6718SOL    HW222052  10.132  10.293   0.959
 6719SOL     OW22053   1.060   3.714   1.331
 6719SOL    HW122054   1.123   3.681   1.266
 6719SOL    HW222055   1.035   3.636   1.381
 6720SOL     OW22056   4.943   0.459  11.360
 6720SOL    HW122057   5.030   0.434  11.329
 6720SOL    HW222058   4.952   0.464  11.455
 6721SOL     OW22059   9.279   7.072  10.831
 6721SOL    HW122060   9.290   7.063  10.736
 6721SOL    HW222061   9.333   7.003  10.868
 6722SOL     OW22062   7.756   2.006   0.461
 6722SOL    HW122063   7.768   1.934   0.523
 6722SOL    HW222064   7.819   1.989   0.391
 6723SOL     OW22065  12.917   6.878  12.383
 6723SOL    HW122066  12.841   6.841  12.338
 6723SOL    HW222067  12.910   6.972  12.371
 6724SOL     OW22068  11.425  14.189   1.070
 6724SOL    HW122069  11.457  14.265   1.022
 6724SOL    HW222070  11.401  14.126   1.002
 6725SOL     OW22071   6.145  11.351   8.791
 6725SOL    HW122072   6.187  11.353   8.878
 6725SOL    HW222073   6.212  11.385   8.732
 6726SOL     OW22074  11.323   6.680   4.849
 6726SOL    HW122075  11.264   6.606   4.838
 6726SOL    HW222076  11.322   6.697   4.943
 6727SOL     OW22077  13.888  11.316  14.857
 6727SOL    HW122078  13.893  11.277   0.062
 6727SOL    HW222079  13.900  11.243  14.797
 6728SOL     OW22080  11.635   0.658   0.792
 6728SOL    HW122081  11.678   0.615   0.718
 6728SOL    HW222082  11.596   0.736   0.754
 6729SOL     OW22083   6.882   1.147  10.812
 6729SOL    HW122084   6.823   1.109  10.747
 6729SOL    HW222085   6.855   1.239  10.816
 6730SOL     OW22086  10.606  13.070  14.206
 6730SOL    HW122087  10.683  13.030  14.166
 6730SOL    HW222088  10.615  13.051  14.300
 6731SOL     OW22089  13.458   6.534   7.981
 6731SOL    HW122090  13.453   6.449   7.937
 6731SOL    HW222091  13.407   6.522   8.061
 6732SOL     OW22092   9.268   1.050   4.340
 6732SOL    HW122093   9.309   1.030   4.424
 6732SOL    HW222094   9.332   1.020   4.275
 6733SOL     OW22095  12.312   2.378   5.338
 6733SOL    HW122096  12.247   2.402   5.272
 6733SOL    HW222097  12.372   2.453   5.341
 6734SOL     OW22098   4.897  12.401   7.439
 6734SOL    HW122099   4.983  12.404   7.398
 6734SOL    HW222100   4.853  12.327   7.397
 6735SOL     OW22101   3.677   1.624   9.695
 6735SOL    HW122102   3.661   1.587   9.782
 6735SOL    HW222103   3.737   1.562   9.653
 6736SOL     OW22104   4.301  12.199  11.864
 6736SOL    HW122105   4.339  12.194  11.776
 6736SOL    HW222106   4.245  12.122  11.871
 6737SOL     OW22107   6.275   5.881   0.636
 6737SOL    HW122108   6.365   5.882   0.603
 6737SOL    HW222109   6.221   5.888   0.557
 6738SOL     OW22110   0.686  12.192   5.878
 6738SOL    HW122111   0.644  12.244   5.810
 6738SOL    HW222112   0.624  12.122   5.898
 6739SOL     OW22113   5.522   6.069   0.587
 6739SOL    HW122114   5.553   6.152   0.553
 6739SOL    HW222115   5.546   6.069   0.680
 6740SOL     OW22116   8.296   5.390  11.974
 6740SOL    HW122117   8.376   5.417  11.928
 6740SOL    HW222118   8.225   5.435  11.927
 6741SOL     OW22119   8.550   5.688   9.755
 6741SOL    HW122120   8.479   5.662   9.696
 6741SOL    HW222121   8.550   5.784   9.751
 6742SOL     OW22122   0.230  11.978  14.712
 6742SOL    HW122123   0.250  12.055  14.765
 6742SOL    HW222124   0.172  11.925  14.766
 6743SOL     OW22125   9.738   6.539   5.629
 6743SOL    HW122126   9.647   6.571   5.633
 6743SOL    HW222127   9.734   6.453   5.672
 6744SOL     OW22128   4.404   7.965  12.227
 6744SOL    HW122129   4.429   8.028  12.294
 6744SOL    HW222130   4.354   8.016  12.163
 6745SOL     OW22131   4.420  11.133   4.633
 6745SOL    HW122132   4.470  11.185   4.696
 6745SOL    HW222133   4.342  11.106   4.681
 6746SOL     OW22134   1.226  12.317   5.959
 6746SOL    HW122135   1.227  12.282   5.870
 6746SOL    HW222136   1.240  12.411   5.948
 6747SOL     OW22137   2.216   0.552   5.431
 6747SOL    HW122138   2.241   0.486   5.366
 6747SOL    HW222139   2.197   0.501   5.510
 6748SOL     OW22140  14.331   9.094  12.117
 6748SOL    HW122141  14.406   9.080  12.059
 6748SOL    HW222142  14.263   9.035  12.084
 6749SOL     OW22143   7.786   7.254   4.139
 6749SOL    HW122144   7.696   7.244   4.171
 6749SOL    HW222145   7.807   7.346   4.154
 6750SOL     OW22146   7.260   3.375   1.823
 6750SOL    HW122147   7.305   3.439   1.767
 6750SOL    HW222148   7.174   3.414   1.839
 6751SOL     OW22149   0.528   5.244   7.067
 6751SOL    HW122150   0.526   5.170   7.128
 6751SOL    HW222151   0.459   5.224   7.004
 6752SOL     OW22152   7.056   5.312   0.665
 6752SOL    HW122153   7.085   5.402   0.679
 6752SOL    HW222154   6.966   5.310   0.698
 6753SOL     OW22155   9.051  13.378   9.269
 6753SOL    HW122156   9.047  13.305   9.331
 6753SOL    HW222157   9.107  13.442   9.312
 6754SOL     OW22158   0.769   1.173   7.620
 6754SOL    HW122159   0.863   1.194   7.626
 6754SOL    HW222160   0.759   1.138   7.531
 6755SOL     OW22161   3.154   5.857   8.528
 6755SOL    HW122162   3.113   5.869   8.614
 6755SOL    HW222163   3.224   5.793   8.543
 6756SOL     OW22164   2.473   1.887   1.505
 6756SOL    HW122165   2.405   1.860   1.444
 6756SOL    HW222166   2.551   1.841   1.475
 6757SOL     OW22167   2.505   7.779   7.699
 6757SOL    HW122168   2.551   7.768   7.782
 6757SOL    HW222169   2.463   7.694   7.683
 6758SOL     OW22170  10.188  12.637   9.574
 6758SOL    HW122171  10.233  12.663   9.494
 6758SOL    HW222172  10.227  12.692   9.642
 6759SOL     OW22173   5.236   7.823  12.965
 6759SOL    HW122174   5.171   7.774  12.914
 6759SOL    HW222175   5.245   7.774  13.047
 6760SOL     OW22176   2.855   8.453  14.421
 6760SOL    HW122177   2.881   8.539  14.455
 6760SOL    HW222178   2.910   8.391  14.468
 6761SOL     OW22179   1.156   1.578   6.152
 6761SOL    HW122180   1.235   1.588   6.099
 6761SOL    HW222181   1.088   1.552   6.090
 6762SOL     OW22182   0.734  13.295   6.023
 6762SOL    HW122183   0.703  13.362   6.084
 6762SOL    HW222184   0.804  13.251   6.071
 6763SOL     OW22185  11.567  14.810  12.222
 6763SOL    HW122186  11.609  14.816  12.136
 6763SOL    HW222187  11.546   0.019  12.245
 6764SOL     OW22188  10.763   2.498   6.508
 6764SOL    HW122189  10.748   2.549   6.428
 6764SOL    HW222190  10.716   2.545   6.576
 6765SOL     OW22191   6.647   6.600  14.480
 6765SOL    HW122192   6.567   6.653  14.485
 6765SOL    HW222193   6.617   6.510  14.489
 6766SOL     OW22194  14.484  11.578   9.610
 6766SOL    HW122195  14.529  11.549   9.531
 6766SOL    HW222196  14.408  11.625   9.578
 6767SOL     OW22197   7.799   7.966   8.500
 6767SOL    HW122198   7.859   8.000   8.434
 6767SOL    HW222199   7.820   7.872   8.505
 6768SOL     OW22200   8.935  12.518   1.131
 6768SOL    HW122201   9.004  12.543   1.071
 6768SOL    HW222202   8.881  12.455   1.082
 6769SOL     OW22203   5.305   3.298   3.684
 6769SOL    HW122204   5.261   3.282   3.767
 6769SOL    HW222205   5.352   3.381   3.697
 6770SOL     OW22206   7.367  10.396   8.004
 6770SOL    HW122207   7.395  10.321   7.952
 6770SOL    HW222208   7.272  10.390   8.006
 6771SOL     OW22209   0.335   4.309   0.277
 6771SOL    HW122210   0.430   4.315   0.290
 6771SOL    HW222211   0.325   4.287   0.184
 6772SOL     OW22212  13.622   0.157   7.101
 6772SOL    HW122213  13.632   0.132   7.193
 6772SOL    HW222214  13.698   0.214   7.084
 6773SOL     OW22215  11.337   0.747   3.028
 6773SOL    HW122216  11.298   0.723   3.112
 6773SOL    HW222217  11.429   0.725   3.038
 6774SOL     OW22218  10.081  10.375   8.856
 6774SOL    HW122219  10.145  10.307   8.880
 6774SOL    HW222220  10.114  10.455   8.897
 6775SOL     OW22221   7.354   6.379   9.309
 6775SOL    HW122222   7.353   6.283   9.307
 6775SOL    HW222223   7.387   6.404   9.222
 6776SOL     OW22224   0.601   5.403   2.693
 6776SOL    HW122225   0.601   5.434   2.603
 6776SOL    HW222226   0.561   5.475   2.743
 6777SOL     OW22227  14.111  12.727  12.723
 6777SOL    HW122228  14.015  12.720  12.720
 6777SOL    HW222229  14.132  12.791  12.655
 6778SOL     OW22230  13.690   2.299  10.569
 6778SOL    HW122231  13.617   2.354  10.539
 6778SOL    HW222232  13.767   2.354  10.559
 6779SOL     OW22233   9.109   5.335   3.352
 6779SOL    HW122234   9.145   5.317   3.265
 6779SOL    HW222235   9.057   5.414   3.340
 6780SOL     OW22236  10.162   1.657   8.526
 6780SOL    HW122237  10.214   1.694   8.598
 6780SOL    HW222238  10.131   1.573   8.560
 6781SOL     OW22239  10.394   2.225   6.682
 6781SOL    HW122240  10.488   2.209   6.680
 6781SOL    HW222241  10.357   2.146   6.722
 6782SOL     OW22242  10.815  13.871   9.487
 6782SOL    HW122243  10.806  13.778   9.467
 6782SOL    HW222244  10.909  13.885   9.498
 6783SOL     OW22245   6.386   4.003   1.337
 6783SOL    HW122246   6.415   4.089   1.307
 6783SOL    HW222247   6.376   4.012   1.432
 6784SOL     OW22248   1.873  14.634  11.339
 6784SOL    HW122249   1.924  14.658  11.262
 6784SOL    HW222250   1.924  14.564  11.380
 6785SOL     OW22251   0.136   2.277   6.175
 6785SOL    HW122252   0.189   2.200   6.193
 6785SOL    HW222253   0.075   2.283   6.249
 6786SOL     OW22254  12.711   5.546   3.922
 6786SOL    HW122255  12.725   5.614   3.857
 6786SOL    HW222256  12.744   5.583   4.004
 6787SOL     OW22257   7.169   2.759  12.654
 6787SOL    HW122258   7.206   2.672  12.666
 6787SOL    HW222259   7.168   2.798  12.741
 6788SOL     OW22260   3.715  13.105   5.405
 6788SOL    HW122261   3.774  13.033   5.385
 6788SOL    HW222262   3.769  13.169   5.451
 6789SOL     OW22263   6.751   6.264  13.556
 6789SOL    HW122264   6.725   6.355  13.542
 6789SOL    HW222265   6.795   6.239  13.475
 6790SOL     OW22266   8.737   8.477   3.977
 6790SOL    HW122267   8.810   8.511   3.926
 6790SOL    HW222268   8.684   8.553   3.999
 6791SOL     OW22269  10.966   6.830   6.975
 6791SOL    HW122270  11.048   6.814   6.928
 6791SOL    HW222271  10.992   6.877   7.054
 6792SOL     OW22272   6.760   6.081   9.925
 6792SOL    HW122273   6.804   6.035   9.854
 6792SOL    HW222274   6.789   6.038  10.005
 6793SOL     OW22275  13.892   2.325   4.059
 6793SOL    HW122276  13.880   2.370   4.142
 6793SOL    HW222277  13.935   2.242   4.083
 6794SOL     OW22278   3.697   8.955  13.612
 6794SOL    HW122279   3.754   8.976  13.686
 6794SOL    HW222280   3.757   8.928  13.542
 6795SOL     OW22281  12.384   9.032  14.255
 6795SOL    HW122282  12.367   9.003  14.165
 6795SOL    HW222283  12.401   9.126  14.246
 6796SOL     OW22284  14.175  10.043  13.781
 6796SOL    HW122285  14.271  10.042  13.783
 6796SOL    HW222286  14.150  10.045  13.873
 6797SOL     OW22287   0.379   1.519  12.157
 6797SOL    HW122288   0.454   1.547  12.104
 6797SOL    HW222289   0.375   1.583  12.228
 6798SOL     OW22290  12.609   6.607   3.733
 6798SOL    HW122291  12.704   6.595   3.732
 6798SOL    HW222292  12.586   6.625   3.642
 6799SOL     OW22293   6.413   6.528  13.589
 6799SOL    HW122294   6.500   6.566  13.601
 6799SOL    HW222295   6.419   6.477  13.509
 6800SOL     OW22296   4.464   0.735   5.537
 6800SOL    HW122297   4.482   0.768   5.449
 6800SOL    HW222298   4.526   0.663   5.548
 6801SOL     OW22299  11.209   7.526  13.308
 6801SOL    HW122300  11.187   7.460  13.373
 6801SOL    HW222301  11.176   7.608  13.345
 6802SOL     OW22302  14.491   4.375  10.759
 6802SOL    HW122303  14.497   4.301  10.819
 6802SOL    HW222304  14.405   4.414  10.777
 6803SOL     OW22305  11.037   6.399   4.004
 6803SOL    HW122306  10.967   6.336   3.986
 6803SOL    HW222307  11.117   6.354   3.976
 6804SOL     OW22308   4.988   1.705   1.095
 6804SOL    HW122309   5.020   1.642   1.031
 6804SOL    HW222310   4.981   1.787   1.047
 6805SOL     OW22311   0.337  12.473   5.568
 6805SOL    HW122312   0.319  12.498   5.477
 6805SOL    HW222313   0.280  12.397   5.583
 6806SOL     OW22314   5.464   2.872  14.259
 6806SOL    HW122315   5.536   2.810  14.246
 6806SOL    HW222316   5.485   2.916  14.341
 6807SOL     OW22317  12.078  10.266  13.979
 6807SOL    HW122318  12.120  10.182  13.959
 6807SOL    HW222319  11.995  10.241  14.020
 6808SOL     OW22320  13.961   0.436  10.333
 6808SOL    HW122321  13.917   0.374  10.274
 6808SOL    HW222322  13.985   0.384  10.409
 6809SOL     OW22323   0.190  11.988   9.552
 6809SOL    HW122324   0.109  11.947   9.581
 6809SOL    HW222325   0.162  12.072   9.514
 6810SOL     OW22326   1.399   7.379   6.725
 6810SOL    HW122327   1.434   7.420   6.646
 6810SOL    HW222328   1.324   7.434   6.748
 6811SOL     OW22329  14.825   7.097  13.871
 6811SOL    HW122330  14.757   7.155  13.837
 6811SOL    HW222331   0.018   7.155  13.887
 6812SOL     OW22332  13.701   9.293   9.301
 6812SOL    HW122333  13.702   9.221   9.363
 6812SOL    HW222334  13.765   9.268   9.234
 6813SOL     OW22335   9.519  10.407   7.497
 6813SOL    HW122336   9.432  10.440   7.520
 6813SOL    HW222337   9.521  10.318   7.533
 6814SOL     OW22338  11.467   6.169   4.842
 6814SOL    HW122339  11.412   6.210   4.774
 6814SOL    HW222340  11.514   6.243   4.881
 6815SOL     OW22341   7.518   4.251   7.228
 6815SOL    HW122342   7.498   4.316   7.160
 6815SOL    HW222343   7.613   4.254   7.236
 6816SOL     OW22344  12.272  11.761   2.316
 6816SOL    HW122345  12.291  11.683   2.368
 6816SOL    HW222346  12.202  11.806   2.364
 6817SOL     OW22347  14.866   7.724   4.053
 6817SOL    HW122348  14.857   7.629   4.062
 6817SOL    HW222349  14.787   7.752   4.007
 6818SOL     OW22350  13.274  11.986  14.316
 6818SOL    HW122351  13.243  11.988  14.226
 6818SOL    HW222352  13.196  11.968  14.368
 6819SOL     OW22353   8.262  12.762   6.763
 6819SOL    HW122354   8.346  12.730   6.729
 6819SOL    HW222355   8.286  12.834   6.822
 6820SOL     OW22356   6.945  13.447   6.730
 6820SOL    HW122357   6.913  13.477   6.815
 6820SOL    HW222358   6.955  13.527   6.679
 6821SOL     OW22359  10.764   4.977   3.412
 6821SOL    HW122360  10.774   4.902   3.470
 6821SOL    HW222361  10.690   4.954   3.356
 6822SOL     OW22362   3.807   2.412   1.668
 6822SOL    HW122363   3.724   2.391   1.711
 6822SOL    HW222364   3.789   2.493   1.619
 6823SOL     OW22365   5.724   1.828  10.794
 6823SOL    HW122366   5.758   1.820  10.883
 6823SOL    HW222367   5.645   1.774  10.794
 6824SOL     OW22368   6.491   6.744   8.722
 6824SOL    HW122369   6.445   6.695   8.654
 6824SOL    HW222370   6.526   6.677   8.781
 6825SOL     OW22371   3.761  13.884   0.442
 6825SOL    HW122372   3.782  13.972   0.472
 6825SOL    HW222373   3.845  13.837   0.447
 6826SOL     OW22374   0.010   5.726   2.117
 6826SOL    HW122375   0.044   5.683   2.195
 6826SOL    HW222376  14.807   5.760   2.144
 6827SOL     OW22377   8.656   0.646   1.947
 6827SOL    HW122378   8.638   0.740   1.948
 6827SOL    HW222379   8.671   0.626   1.854
 6828SOL     OW22380  11.816   6.631   6.898
 6828SOL    HW122381  11.877   6.658   6.966
 6828SOL    HW222382  11.865   6.566   6.847
 6829SOL     OW22383   7.198   4.026  14.280
 6829SOL    HW122384   7.140   4.063  14.214
 6829SOL    HW222385   7.194   3.932  14.265
 6830SOL     OW22386   0.802   3.682   7.787
 6830SOL    HW122387   0.758   3.700   7.704
 6830SOL    HW222388   0.824   3.589   7.783
 6831SOL     OW22389   4.698   5.110  11.752
 6831SOL    HW122390   4.647   5.184  11.786
 6831SOL    HW222391   4.735   5.142  11.670
 6832SOL     OW22392   6.037  13.737   2.340
 6832SOL    HW122393   6.038  13.643   2.325
 6832SOL    HW222394   6.105  13.753   2.405
 6833SOL     OW22395  10.279   0.701  11.689
 6833SOL    HW122396  10.329   0.648  11.627
 6833SOL    HW222397  10.311   0.673  11.775
 6834SOL     OW22398   4.750  11.045  14.561
 6834SOL    HW122399   4.710  10.965  14.595
 6834SOL    HW222400   4.844  11.034  14.579
 6835SOL     OW22401  14.623  13.852   8.227
 6835SOL    HW122402  14.619  13.766   8.185
 6835SOL    HW222403  14.677  13.838   8.305
 6836SOL     OW22404   1.516  14.881   0.525
 6836SOL    HW122405   1.542  14.826   0.599
 6836SOL    HW222406   1.501   0.085   0.563
 6837SOL     OW22407   0.709  10.697   9.592
 6837SOL    HW122408   0.790  10.747   9.582
 6837SOL    HW222409   0.735  10.606   9.577
 6838SOL     OW22410   6.256  12.784   3.857
 6838SOL    HW122411   6.298  12.804   3.774
 6838SOL    HW222412   6.311  12.717   3.896
 6839SOL     OW22413  12.526   4.380   1.728
 6839SOL    HW122414  12.587   4.318   1.686
 6839SOL    HW222415  12.573   4.463   1.729
 6840SOL     OW22416  11.856  13.529   4.561
 6840SOL    HW122417  11.785  13.465   4.553
 6840SOL    HW222418  11.816  13.612   4.536
 6841SOL     OW22419   6.146   7.218   7.637
 6841SOL    HW122420   6.184   7.167   7.709
 6841SOL    HW222421   6.133   7.305   7.673
 6842SOL     OW22422   1.624   9.964  14.882
 6842SOL    HW122423   1.692  10.016  14.840
 6842SOL    HW222424   1.625   9.992   0.091
 6843SOL     OW22425  14.046   6.586  11.270
 6843SOL    HW122426  14.113   6.521  11.252
 6843SOL    HW222427  14.025   6.574  11.363
 6844SOL     OW22428  12.057   2.091   9.593
 6844SOL    HW122429  11.968   2.101   9.558
 6844SOL    HW222430  12.081   2.179   9.620
 6845SOL     OW22431  10.811   6.207   3.928
 6845SOL    HW122432  10.787   6.229   3.838
 6845SOL    HW222433  10.787   6.114   3.936
 6846SOL     OW22434   7.465  14.609   1.032
 6846SOL    HW122435   7.445  14.549   0.960
 6846SOL    HW222436   7.555  14.636   1.016
 6847SOL     OW22437   2.532  10.801   3.073
 6847SOL    HW122438   2.527  10.731   3.139
 6847SOL    HW222439   2.537  10.754   2.989
 6848SOL     OW22440   5.146   4.261  11.790
 6848SOL    HW122441   5.133   4.284  11.698
 6848SOL    HW222442   5.166   4.345  11.832
 6849SOL     OW22443   3.801  11.371   2.544
 6849SOL    HW122444   3.733  11.374   2.477
 6849SOL    HW222445   3.872  11.425   2.508
 6850SOL     OW22446   4.715  14.650  13.568
 6850SOL    HW122447   4.700  14.590  13.495
 6850SOL    HW222448   4.783  14.608  13.621
 6851SOL     OW22449   9.851   4.990   6.020
 6851SOL    HW122450   9.788   5.044   6.068
 6851SOL    HW222451   9.932   4.997   6.070
 6852SOL     OW22452   4.446   6.495   7.104
 6852SOL    HW122453   4.418   6.405   7.125
 6852SOL    HW222454   4.383   6.550   7.151
 6853SOL     OW22455   7.939  10.220  13.148
 6853SOL    HW122456   7.861  10.244  13.098
 6853SOL    HW222457   7.950  10.291  13.211
 6854SOL     OW22458   6.195  12.867  14.229
 6854SOL    HW122459   6.253  12.810  14.179
 6854SOL    HW222460   6.241  12.883  14.311
 6855SOL     OW22461  10.156   4.526  14.289
 6855SOL    HW122462  10.213   4.470  14.238
 6855SOL    HW222463  10.093   4.561  14.225
 6856SOL     OW22464   0.231   9.934   0.699
 6856SOL    HW122465   0.212  10.028   0.689
 6856SOL    HW222466   0.145   9.893   0.707
 6857SOL     OW22467   2.976   3.702  13.138
 6857SOL    HW122468   3.046   3.681  13.201
 6857SOL    HW222469   2.996   3.649  13.061
 6858SOL     OW22470   0.253   4.232   1.876
 6858SOL    HW122471   0.184   4.183   1.830
 6858SOL    HW222472   0.230   4.222   1.969
 6859SOL     OW22473   8.360  11.145   6.227
 6859SOL    HW122474   8.308  11.151   6.147
 6859SOL    HW222475   8.451  11.149   6.196
 6860SOL     OW22476   2.333  10.012   3.291
 6860SOL    HW122477   2.387   9.948   3.336
 6860SOL    HW222478   2.378  10.095   3.305
 6861SOL     OW22479  11.248  13.142   6.863
 6861SOL    HW122480  11.326  13.170   6.815
 6861SOL    HW222481  11.272  13.150   6.955
 6862SOL     OW22482   1.659  11.387  10.867
 6862SOL    HW122483   1.748  11.401  10.836
 6862SOL    HW222484   1.663  11.306  10.918
 6863SOL     OW22485   5.501  12.004   6.024
 6863SOL    HW122486   5.444  11.945   5.975
 6863SOL    HW222487   5.457  12.014   6.109
 6864SOL     OW22488   2.645   4.680   3.269
 6864SOL    HW122489   2.641   4.762   3.219
 6864SOL    HW222490   2.732   4.682   3.310
 6865SOL     OW22491  13.571  12.460  14.409
 6865SOL    HW122492  13.510  12.511  14.462
 6865SOL    HW222493  13.546  12.477  14.319
 6866SOL     OW22494   6.968   4.631  11.406
 6866SOL    HW122495   6.968   4.721  11.376
 6866SOL    HW222496   7.061   4.605  11.405
 6867SOL     OW22497  12.724   7.124   4.400
 6867SOL    HW122498  12.748   7.113   4.308
 6867SOL    HW222499  12.674   7.045   4.421
 6868SOL     OW22500   7.415  13.459   1.335
 6868SOL    HW122501   7.501  13.487   1.365
 6868SOL    HW222502   7.353  13.510   1.387
 6869SOL     OW22503  11.140   0.798   1.914
 6869SOL    HW122504  11.109   0.737   1.981
 6869SOL    HW222505  11.169   0.742   1.842
 6870SOL     OW22506   0.724  13.199   2.268
 6870SOL    HW122507   0.663  13.262   2.308
 6870SOL    HW222508   0.676  13.165   2.192
 6871SOL     OW22509  14.638   9.780   1.290
 6871SOL    HW122510  14.728   9.813   1.294
 6871SOL    HW222511  14.636   9.710   1.355
 6872SOL     OW22512  13.670   7.208   6.979
 6872SOL    HW122513  13.712   7.241   6.899
 6872SOL    HW222514  13.694   7.115   6.981
 6873SOL     OW22515  12.145   1.661  12.999
 6873SOL    HW122516  12.122   1.753  13.011
 6873SOL    HW222517  12.189   1.658  12.914
 6874SOL     OW22518  10.168  13.729  10.924
 6874SOL    HW122519  10.198  13.820  10.926
 6874SOL    HW222520  10.219  13.687  10.994
 6875SOL     OW22521  13.426   6.592   7.220
 6875SOL    HW122522  13.494   6.526   7.230
 6875SOL    HW222523  13.444   6.656   7.290
 6876SOL     OW22524   6.703   0.208   1.987
 6876SOL    HW122525   6.742   0.167   1.911
 6876SOL    HW222526   6.642   0.143   2.022
 6877SOL     OW22527   5.458   6.627  11.076
 6877SOL    HW122528   5.515   6.669  11.013
 6877SOL    HW222529   5.373   6.621  11.032
 6878SOL     OW22530   7.457   8.909   8.373
 6878SOL    HW122531   7.461   8.896   8.278
 6878SOL    HW222532   7.435   8.823   8.408
 6879SOL     OW22533   6.573  10.153  10.026
 6879SOL    HW122534   6.648  10.139  10.084
 6879SOL    HW222535   6.503  10.180  10.085
 6880SOL     OW22536   3.754   4.204  11.255
 6880SOL    HW122537   3.765   4.147  11.330
 6880SOL    HW222538   3.683   4.264  11.280
 6881SOL     OW22539   3.661   5.768  11.109
 6881SOL    HW122540   3.599   5.695  11.104
 6881SOL    HW222541   3.636   5.826  11.037
 6882SOL     OW22542   7.954  12.087   2.923
 6882SOL    HW122543   8.034  12.097   2.871
 6882SOL    HW222544   7.970  12.010   2.978
 6883SOL     OW22545   4.614  12.667   8.260
 6883SOL    HW122546   4.522  12.655   8.238
 6883SOL    HW222547   4.632  12.601   8.327
 6884SOL     OW22548   1.852   8.473   3.028
 6884SOL    HW122549   1.902   8.538   3.078
 6884SOL    HW222550   1.918   8.424   2.979
 6885SOL     OW22551   9.832  10.552   0.194
 6885SOL    HW122552   9.888  10.622   0.227
 6885SOL    HW222553   9.779  10.526   0.269
 6886SOL     OW22554   0.738   3.692   3.034
 6886SOL    HW122555   0.746   3.676   3.128
 6886SOL    HW222556   0.644   3.689   3.016
 6887SOL     OW22557  12.251  11.228   2.877
 6887SOL    HW122558  12.288  11.172   2.808
 6887SOL    HW222559  12.314  11.299   2.886
 6888SOL     OW22560   6.136  14.481  13.492
 6888SOL    HW122561   6.223  14.491  13.452
 6888SOL    HW222562   6.113  14.569  13.522
 6889SOL     OW22563   6.948  11.857   6.375
 6889SOL    HW122564   6.857  11.860   6.344
 6889SOL    HW222565   6.954  11.773   6.422
 6890SOL     OW22566  12.795   6.783   4.545
 6890SOL    HW122567  12.780   6.740   4.461
 6890SOL    HW222568  12.711   6.825   4.565
 6891SOL     OW22569   1.148  12.392   9.937
 6891SOL    HW122570   1.214  12.326   9.917
 6891SOL    HW222571   1.121  12.373  10.027
 6892SOL     OW22572  12.892  10.712  11.924
 6892SOL    HW122573  12.946  10.766  11.981
 6892SOL    HW222574  12.921  10.733  11.836
 6893SOL     OW22575   5.337   7.898   2.960
 6893SOL    HW122576   5.266   7.958   2.984
 6893SOL    HW222577   5.407   7.919   3.022
 6894SOL     OW22578   6.244  11.582   4.341
 6894SOL    HW122579   6.168  11.531   4.369
 6894SOL    HW222580   6.318  11.523   4.353
 6895SOL     OW22581   5.920   9.698   9.170
 6895SOL    HW122582   5.892   9.740   9.088
 6895SOL    HW222583   5.922   9.605   9.149
 6896SOL     OW22584  12.408   8.016  11.585
 6896SOL    HW122585  12.328   8.039  11.538
 6896SOL    HW222586  12.402   7.922  11.599
 6897SOL     OW22587  10.833  13.833   0.972
 6897SOL    HW122588  10.774  13.903   0.998
 6897SOL    HW222589  10.920  13.866   0.990
 6898SOL     OW22590   5.680   3.315  14.856
 6898SOL    HW122591   5.638   3.288   0.056
 6898SOL    HW222592   5.612   3.302  14.789
 6899SOL     OW22593   5.493   0.014   0.194
 6899SOL    HW122594   5.456   0.096   0.161
 6899SOL    HW222595   5.583   0.036   0.219
 6900SOL     OW22596   7.547   2.982   6.594
 6900SOL    HW122597   7.534   2.919   6.665
 6900SOL    HW222598   7.495   3.058   6.619
 6901SOL     OW22599   7.840  11.132  11.052
 6901SOL    HW122600   7.878  11.091  10.974
 6901SOL    HW222601   7.881  11.087  11.126
 6902SOL     OW22602   5.067  14.630   5.070
 6902SOL    HW122603   4.985  14.580   5.076
 6902SOL    HW222604   5.067  14.664   4.981
 6903SOL     OW22605  11.132   1.862   2.627
 6903SOL    HW122606  11.086   1.789   2.586
 6903SOL    HW222607  11.127   1.845   2.721
 6904SOL     OW22608   7.227  13.061   7.874
 6904SOL    HW122609   7.293  13.110   7.923
 6904SOL    HW222610   7.147  13.073   7.924
 6905SOL     OW22611   8.239  14.313   8.211
 6905SOL    HW122612   8.291  14.317   8.292
 6905SOL    HW222613   8.266  14.390   8.161
 6906SOL     OW22614   6.211   6.926  10.068
 6906SOL    HW122615   6.141   6.873  10.031
 6906SOL    HW222616   6.270   6.863  10.109
 6907SOL     OW22617   3.748  10.169   6.495
 6907SOL    HW122618   3.812  10.208   6.435
 6907SOL    HW222619   3.731  10.238   6.559
 6908SOL     OW22620   0.672  13.667   7.097
 6908SOL    HW122621   0.761  13.696   7.116
 6908SOL    HW222622   0.664  13.583   7.143
 6909SOL     OW22623   0.562   9.506   4.292
 6909SOL    HW122624   0.568   9.410   4.297
 6909SOL    HW222625   0.604   9.528   4.208
 6910SOL     OW22626   1.836   7.637   3.998
 6910SOL    HW122627   1.908   7.603   4.051
 6910SOL    HW222628   1.832   7.730   4.019
 6911SOL     OW22629  14.840  11.848  11.590
 6911SOL    HW122630   0.006  11.874  11.511
 6911SOL    HW222631   0.021  11.796  11.639
 6912SOL     OW22632  13.515   8.418  14.604
 6912SOL    HW122633  13.443   8.479  14.620
 6912SOL    HW222634  13.481   8.333  14.631
 6913SOL     OW22635  14.617   8.046  11.764
 6913SOL    HW122636  14.679   8.117  11.781
 6913SOL    HW222637  14.565   8.040  11.844
 6914SOL     OW22638   9.865   5.340   4.005
 6914SOL    HW122639   9.861   5.245   4.003
 6914SOL    HW222640   9.813   5.369   3.931
 6915SOL     OW22641   6.162   7.766   3.120
 6915SOL    HW122642   6.073   7.766   3.155
 6915SOL    HW222643   6.199   7.849   3.150
 6916SOL     OW22644  11.627   8.276  12.660
 6916SOL    HW122645  11.661   8.189  12.641
 6916SOL    HW222646  11.664   8.332  12.592
 6917SOL     OW22647   8.748   4.795   3.073
 6917SOL    HW122648   8.818   4.729   3.080
 6917SOL    HW222649   8.681   4.752   3.019
 6918SOL     OW22650   7.698  13.207  10.089
 6918SOL    HW122651   7.720  13.266  10.161
 6918SOL    HW222652   7.782  13.187  10.047
 6919SOL     OW22653  14.877  11.935   3.054
 6919SOL    HW122654  14.866  11.996   2.981
 6919SOL    HW222655   0.014  11.990   3.129
 6920SOL     OW22656   8.576  13.886   6.627
 6920SOL    HW122657   8.507  13.928   6.575
 6920SOL    HW222658   8.650  13.947   6.622
 6921SOL     OW22659   7.990   6.381   3.014
 6921SOL    HW122660   7.945   6.454   3.057
 6921SOL    HW222661   8.060   6.422   2.964
 6922SOL     OW22662   0.184   6.731  11.502
 6922SOL    HW122663   0.183   6.638  11.481
 6922SOL    HW222664   0.135   6.737  11.584
 6923SOL     OW22665   8.658   2.522   2.589
 6923SOL    HW122666   8.718   2.577   2.639
 6923SOL    HW222667   8.611   2.471   2.655
 6924SOL     OW22668   1.623   0.902  13.683
 6924SOL    HW122669   1.574   0.922  13.763
 6924SOL    HW222670   1.706   0.865  13.715
 6925SOL     OW22671  13.056  10.174   2.064
 6925SOL    HW122672  12.985  10.227   2.100
 6925SOL    HW222673  13.057  10.196   1.970
 6926SOL     OW22674  11.921  10.510   7.592
 6926SOL    HW122675  11.930  10.476   7.503
 6926SOL    HW222676  11.837  10.473   7.623
 6927SOL     OW22677   2.341   6.819   0.520
 6927SOL    HW122678   2.312   6.890   0.462
 6927SOL    HW222679   2.370   6.750   0.460
 6928SOL     OW22680   0.258  11.519   9.277
 6928SOL    HW122681   0.260  11.608   9.312
 6928SOL    HW222682   0.345  11.507   9.238
 6929SOL     OW22683   9.336   4.645   3.480
 6929SOL    HW122684   9.388   4.629   3.401
 6929SOL    HW222685   9.342   4.563   3.529
 6930SOL     OW22686   4.788   5.411  14.081
 6930SOL    HW122687   4.760   5.360  14.005
 6930SOL    HW222688   4.783   5.349  14.154
 6931SOL     OW22689   8.221  11.401   9.296
 6931SOL    HW122690   8.150  11.414   9.233
 6931SOL    HW222691   8.223  11.306   9.311
 6932SOL     OW22692  10.574   6.822  10.644
 6932SOL    HW122693  10.555   6.750  10.583
 6932SOL    HW222694  10.488   6.857  10.665
 6933SOL     OW22695  11.075  10.264  12.175
 6933SOL    HW122696  11.140  10.300  12.235
 6933SOL    HW222697  11.111  10.280  12.088
 6934SOL     OW22698   4.681   0.179   3.700
 6934SOL    HW122699   4.750   0.126   3.661
 6934SOL    HW222700   4.610   0.178   3.635
 6935SOL     OW22701  14.070   1.129  10.251
 6935SOL    HW122702  14.108   1.050  10.211
 6935SOL    HW222703  14.122   1.143  10.330
 6936SOL     OW22704  13.602   7.663   9.127
 6936SOL    HW122705  13.638   7.694   9.210
 6936SOL    HW222706  13.507   7.669   9.138
 6937SOL     OW22707   2.115   1.029   6.654
 6937SOL    HW122708   2.048   1.096   6.663
 6937SOL    HW222709   2.127   0.995   6.743
 6938SOL     OW22710  11.739  10.369   3.248
 6938SOL    HW122711  11.799  10.307   3.289
 6938SOL    HW222712  11.734  10.442   3.311
 6939SOL     OW22713   4.166   3.097   3.224
 6939SOL    HW122714   4.203   3.122   3.139
 6939SOL    HW222715   4.236   3.116   3.286
 6940SOL     OW22716  12.820  11.428  12.570
 6940SOL    HW122717  12.912  11.447  12.586
 6940SOL    HW222718  12.811  11.334  12.587
 6941SOL     OW22719  11.509   6.678   0.592
 6941SOL    HW122720  11.573   6.745   0.615
 6941SOL    HW222721  11.505   6.681   0.496
 6942SOL     OW22722  10.419   1.652   9.222
 6942SOL    HW122723  10.494   1.697   9.182
 6942SOL    HW222724  10.410   1.692   9.308
 6943SOL     OW22725   1.078   4.949  10.525
 6943SOL    HW122726   1.091   5.043  10.538
 6943SOL    HW222727   1.007   4.926  10.585
 6944SOL     OW22728   9.417  13.314   4.265
 6944SOL    HW122729   9.416  13.288   4.357
 6944SOL    HW222730   9.410  13.233   4.216
 6945SOL     OW22731  13.347  12.595  12.371
 6945SOL    HW122732  13.403  12.583  12.448
 6945SOL    HW222733  13.275  12.650  12.403
 6946SOL     OW22734   6.808  11.599   8.156
 6946SOL    HW122735   6.773  11.633   8.073
 6946SOL    HW222736   6.823  11.506   8.140
 6947SOL     OW22737  10.878   2.763   3.281
 6947SOL    HW122738  10.812   2.718   3.229
 6947SOL    HW222739  10.946   2.697   3.297
 6948SOL     OW22740  11.717   6.459  13.864
 6948SOL    HW122741  11.784   6.390  13.857
 6948SOL    HW222742  11.767   6.540  13.870
 6949SOL     OW22743   9.716  11.288   5.413
 6949SOL    HW122744   9.623  11.305   5.421
 6949SOL    HW222745   9.722  11.205   5.366
 6950SOL     OW22746   2.196   4.682  11.283
 6950SOL    HW122747   2.151   4.624  11.221
 6950SOL    HW222748   2.234   4.750  11.228
 6951SOL     OW22749  10.161  13.963   5.106
 6951SOL    HW122750  10.093  13.896   5.104
 6951SOL    HW222751  10.221  13.935   5.175
 6952SOL     OW22752   2.337   7.996   7.668
 6952SOL    HW122753   2.367   8.087   7.673
 6952SOL    HW222754   2.417   7.944   7.672
 6953SOL     OW22755   8.659   0.639   5.885
 6953SOL    HW122756   8.628   0.606   5.970
 6953SOL    HW222757   8.754   0.646   5.896
 6954SOL     OW22758   0.056   9.081  11.578
 6954SOL    HW122759   0.083   8.994  11.550
 6954SOL    HW222760   0.050   9.076  11.673
 6955SOL     OW22761   4.084   9.034  11.657
 6955SOL    HW122762   4.037   9.011  11.737
 6955SOL    HW222763   4.069   9.128  11.646
 6956SOL     OW22764  10.079   9.113   5.599
 6956SOL    HW122765  10.026   9.081   5.526
 6956SOL    HW222766  10.035   9.192   5.629
 6957SOL     OW22767   3.864   0.738  10.489
 6957SOL    HW122768   3.902   0.660  10.450
 6957SOL    HW222769   3.874   0.806  10.422
 6958SOL     OW22770  13.382  13.224   3.867
 6958SOL    HW122771  13.360  13.174   3.788
 6958SOL    HW222772  13.298  13.235   3.913
 6959SOL     OW22773  13.162   9.474   7.126
 6959SOL    HW122774  13.184   9.483   7.219
 6959SOL    HW222775  13.136   9.383   7.116
 6960SOL     OW22776   7.590  13.670   6.199
 6960SOL    HW122777   7.557  13.742   6.252
 6960SOL    HW222778   7.567  13.694   6.109
 6961SOL     OW22779   4.347   2.255  14.494
 6961SOL    HW122780   4.261   2.213  14.484
 6961SOL    HW222781   4.348   2.323  14.428
 6962SOL     OW22782   1.018  11.714  12.712
 6962SOL    HW122783   0.948  11.691  12.651
 6962SOL    HW222784   1.047  11.631  12.749
 6963SOL     OW22785   0.860   1.753  12.573
 6963SOL    HW122786   0.886   1.759  12.482
 6963SOL    HW222787   0.937   1.716  12.618
 6964SOL     OW22788   2.477   2.615   1.423
 6964SOL    HW122789   2.480   2.622   1.519
 6964SOL    HW222790   2.492   2.705   1.393
 6965SOL     OW22791  12.405  11.388  12.973
 6965SOL    HW122792  12.315  11.358  12.967
 6965SOL    HW222793  12.405  11.472  12.927
 6966SOL     OW22794   0.461  12.270   3.154
 6966SOL    HW122795   0.389  12.235   3.102
 6966SOL    HW222796   0.438  12.248   3.245
 6967SOL     OW22797   0.198   1.338  12.122
 6967SOL    HW122798   0.200   1.259  12.175
 6967SOL    HW222799   0.250   1.402  12.171
 6968SOL     OW22800   5.567   3.253   2.366
 6968SOL    HW122801   5.488   3.228   2.317
 6968SOL    HW222802   5.572   3.190   2.437
 6969SOL     OW22803   8.838   7.411  10.751
 6969SOL    HW122804   8.798   7.497  10.767
 6969SOL    HW222805   8.846   7.373  10.839
 6970SOL     OW22806   3.274  11.786   4.205
 6970SOL    HW122807   3.314  11.868   4.177
 6970SOL    HW222808   3.280  11.729   4.129
 6971SOL     OW22809   6.234   2.953   2.354
 6971SOL    HW122810   6.265   2.984   2.439
 6971SOL    HW222811   6.257   2.860   2.352
 6972SOL     OW22812  11.731   1.830   1.865
 6972SOL    HW122813  11.699   1.773   1.795
 6972SOL    HW222814  11.819   1.855   1.837
 6973SOL     OW22815   1.843  13.096   7.038
 6973SOL    HW122816   1.937  13.112   7.049
 6973SOL    HW222817   1.828  13.013   7.084
 6974SOL     OW22818  14.601   9.847   7.898
 6974SOL    HW122819  14.517   9.803   7.902
 6974SOL    HW222820  14.614   9.881   7.987
 6975SOL     OW22821   8.710   4.649  11.483
 6975SOL    HW122822   8.680   4.632  11.394
 6975SOL    HW222823   8.791   4.699  11.472
 6976SOL     OW22824   0.488   7.806   8.308
 6976SOL    HW122825   0.439   7.726   8.327
 6976SOL    HW222826   0.422   7.875   8.307
 6977SOL     OW22827  10.001   7.781   2.699
 6977SOL    HW122828  10.029   7.718   2.767
 6977SOL    HW222829   9.975   7.726   2.625
 6978SOL     OW22830  11.490   7.618   2.690
 6978SOL    HW122831  11.481   7.523   2.680
 6978SOL    HW222832  11.422   7.642   2.752
 6979SOL     OW22833   3.702  13.690  13.847
 6979SOL    HW122834   3.768  13.652  13.906
 6979SOL    HW222835   3.671  13.768  13.893
 6980SOL     OW22836   7.230   7.773  14.676
 6980SOL    HW122837   7.145   7.774  14.632
 6980SOL    HW222838   7.253   7.866  14.685
 6981SOL     OW22839  10.893   5.604   3.737
 6981SOL    HW122840  10.961   5.667   3.710
 6981SOL    HW222841  10.900   5.601   3.833
 6982SOL     OW22842  12.521   6.379   7.767
 6982SOL    HW122843  12.478   6.306   7.723
 6982SOL    HW222844  12.451   6.440   7.787
 6983SOL     OW22845  10.817   5.904  11.679
 6983SOL    HW122846  10.827   5.986  11.727
 6983SOL    HW222847  10.857   5.921  11.594
 6984SOL     OW22848   6.894   4.889   7.480
 6984SOL    HW122849   6.880   4.867   7.388
 6984SOL    HW222850   6.954   4.822   7.513
 6985SOL     OW22851   0.070  12.682   2.604
 6985SOL    HW122852   0.156  12.646   2.625
 6985SOL    HW222853   0.069  12.768   2.646
 6986SOL     OW22854   2.269   1.875   3.969
 6986SOL    HW122855   2.301   1.804   3.914
 6986SOL    HW222856   2.182   1.894   3.936
 6987SOL     OW22857   1.702  11.234  12.356
 6987SOL    HW122858   1.620  11.276  12.383
 6987SOL    HW222859   1.768  11.303  12.362
 6988SOL     OW22860   7.129  10.300   9.868
 6988SOL    HW122861   7.191  10.237   9.905
 6988SOL    HW222862   7.150  10.303   9.775
 6989SOL     OW22863  10.463  11.336  12.324
 6989SOL    HW122864  10.372  11.310  12.339
 6989SOL    HW222865  10.513  11.287  12.389
 6990SOL     OW22866   9.187  12.969   3.730
 6990SOL    HW122867   9.119  12.909   3.702
 6990SOL    HW222868   9.227  13.001   3.649
 6991SOL     OW22869   6.339  14.022  11.338
 6991SOL    HW122870   6.252  14.015  11.378
 6991SOL    HW222871   6.382  14.091  11.388
 6992SOL     OW22872  11.588  12.367   2.016
 6992SOL    HW122873  11.662  12.358   2.076
 6992SOL    HW222874  11.587  12.285   1.967
 6993SOL     OW22875  12.234   5.624   9.184
 6993SOL    HW122876  12.255   5.542   9.229
 6993SOL    HW222877  12.261   5.610   9.093
 6994SOL     OW22878   5.630   6.515   3.522
 6994SOL    HW122879   5.644   6.420   3.527
 6994SOL    HW222880   5.541   6.523   3.485
 6995SOL     OW22881  12.376   6.561  10.682
 6995SOL    HW122882  12.283   6.578  10.669
 6995SOL    HW222883  12.391   6.475  10.642
 6996SOL     OW22884   8.710  12.160   7.228
 6996SOL    HW122885   8.717  12.135   7.136
 6996SOL    HW222886   8.795  12.137   7.266
 6997SOL     OW22887   5.463   0.390  12.363
 6997SOL    HW122888   5.556   0.379  12.348
 6997SOL    HW222889   5.457   0.428  12.451
 6998SOL     OW22890   0.790   0.231   6.864
 6998SOL    HW122891   0.811   0.203   6.953
 6998SOL    HW222892   0.733   0.307   6.876
 6999SOL     OW22893   5.949   6.570   0.706
 6999SOL    HW122894   5.912   6.649   0.744
 6999SOL    HW222895   5.949   6.587   0.611
 7000SOL     OW22896   8.567   3.773   8.637
 7000SOL    HW122897   8.610   3.692   8.610
 7000SOL    HW222898   8.474   3.752   8.639
 7001SOL     OW22899   9.118  12.439  10.118
 7001SOL    HW122900   9.094  12.372  10.182
 7001SOL    HW222901   9.206  12.413  10.089
 7002SOL     OW22902   6.662   8.615   7.451
 7002SOL    HW122903   6.663   8.573   7.365
 7002SOL    HW222904   6.575   8.655   7.457
 7003SOL     OW22905   0.431  12.704  12.526
 7003SOL    HW122906   0.482  12.639  12.574
 7003SOL    HW222907   0.483  12.784  12.531
 7004SOL     OW22908   3.285   5.691   0.815
 7004SOL    HW122909   3.321   5.762   0.762
 7004SOL    HW222910   3.282   5.616   0.756
 7005SOL     OW22911   9.884  13.736  13.671
 7005SOL    HW122912   9.964  13.788  13.678
 7005SOL    HW222913   9.906  13.651  13.709
 7006SOL     OW22914  13.547   9.110  14.069
 7006SOL    HW122915  13.582   9.028  14.104
 7006SOL    HW222916  13.614   9.140  14.008
 7007SOL     OW22917  13.964  11.782   3.806
 7007SOL    HW122918  13.983  11.869   3.771
 7007SOL    HW222919  13.905  11.742   3.742
 7008SOL     OW22920   7.869   5.562   2.381
 7008SOL    HW122921   7.961   5.536   2.385
 7008SOL    HW222922   7.847   5.586   2.471
 7009SOL     OW22923   0.583   5.452   2.379
 7009SOL    HW122924   0.565   5.445   2.285
 7009SOL    HW222925   0.511   5.505   2.414
 7010SOL     OW22926   2.733  13.602   2.780
 7010SOL    HW122927   2.681  13.534   2.824
 7010SOL    HW222928   2.676  13.634   2.711
 7011SOL     OW22929  10.925   5.068  12.962
 7011SOL    HW122930  10.926   4.992  13.020
 7011SOL    HW222931  10.880   5.136  13.011
 7012SOL     OW22932   2.719   7.951   7.510
 7012SOL    HW122933   2.727   7.855   7.506
 7012SOL    HW222934   2.644   7.971   7.455
 7013SOL     OW22935   4.990   7.705   3.675
 7013SOL    HW122936   4.924   7.659   3.623
 7013SOL    HW222937   5.049   7.744   3.610
 7014SOL     OW22938  14.152   1.398   9.070
 7014SOL    HW122939  14.081   1.462   9.077
 7014SOL    HW222940  14.225   1.439   9.117
 7015SOL     OW22941  14.183   3.800  12.794
 7015SOL    HW122942  14.101   3.755  12.815
 7015SOL    HW222943  14.251   3.739  12.823
 7016SOL     OW22944   4.994   7.260   2.834
 7016SOL    HW122945   5.019   7.317   2.760
 7016SOL    HW222946   5.061   7.277   2.900
 7017SOL     OW22947   5.233   0.725   2.312
 7017SOL    HW122948   5.219   0.688   2.399
 7017SOL    HW222949   5.200   0.658   2.252
 7018SOL     OW22950  12.714  11.535  11.160
 7018SOL    HW122951  12.651  11.468  11.185
 7018SOL    HW222952  12.765  11.495  11.090
 7019SOL     OW22953   6.928   5.428   5.644
 7019SOL    HW122954   6.962   5.399   5.729
 7019SOL    HW222955   6.877   5.354   5.612
 7020SOL     OW22956   2.608   0.766  11.893
 7020SOL    HW122957   2.624   0.855  11.863
 7020SOL    HW222958   2.692   0.722  11.885
 7021SOL     OW22959   2.373   2.374   5.877
 7021SOL    HW122960   2.460   2.352   5.842
 7021SOL    HW222961   2.379   2.355   5.970
 7022SOL     OW22962   9.123  10.909   4.619
 7022SOL    HW122963   9.091  10.840   4.678
 7022SOL    HW222964   9.081  10.891   4.535
 7023SOL     OW22965   4.044   0.282   6.001
 7023SOL    HW122966   3.963   0.305   6.046
 7023SOL    HW222967   4.029   0.306   5.910
 7024SOL     OW22968  12.445   8.116  12.215
 7024SOL    HW122969  12.398   8.178  12.159
 7024SOL    HW222970  12.391   8.037  12.215
 7025SOL     OW22971  12.835  13.285   6.408
 7025SOL    HW122972  12.768  13.349   6.385
 7025SOL    HW222973  12.854  13.301   6.500
 7026SOL     OW22974  14.323  11.500   4.131
 7026SOL    HW122975  14.414  11.530   4.139
 7026SOL    HW222976  14.282  11.528   4.213
 7027SOL     OW22977  10.530  14.249   4.912
 7027SOL    HW122978  10.438  14.223   4.922
 7027SOL    HW222979  10.568  14.181   4.857
 7028SOL     OW22980   2.545  12.906   5.818
 7028SOL    HW122981   2.627  12.883   5.862
 7028SOL    HW222982   2.564  12.897   5.725
 7029SOL     OW22983   2.855   1.260   8.808
 7029SOL    HW122984   2.793   1.310   8.756
 7029SOL    HW222985   2.926   1.322   8.827
 7030SOL     OW22986   7.014   9.282  11.526
 7030SOL    HW122987   6.943   9.223  11.552
 7030SOL    HW222988   6.975   9.370  11.530
 7031SOL     OW22989   9.784   2.038  11.930
 7031SOL    HW122990   9.876   2.059  11.914
 7031SOL    HW222991   9.772   2.052  12.024
 7032SOL     OW22992  10.445   6.532   8.942
 7032SOL    HW122993  10.443   6.625   8.916
 7032SOL    HW222994  10.533   6.502   8.920
 7033SOL     OW22995   6.577  14.586   5.578
 7033SOL    HW122996   6.575  14.502   5.531
 7033SOL    HW222997   6.668  14.596   5.606
 7034SOL     OW22998  11.103   2.870   1.327
 7034SOL    HW122999  11.086   2.779   1.301
 7034SOL    HW223000  11.018   2.903   1.356
 7035SOL     OW23001   9.752  14.098  13.995
 7035SOL    HW123002   9.672  14.071  14.040
 7035SOL    HW223003   9.761  14.191  14.015
 7036SOL     OW23004  11.725   2.469   6.322
 7036SOL    HW123005  11.750   2.397   6.380
 7036SOL    HW223006  11.648   2.508   6.363
 7037SOL     OW23007   6.769   4.708   8.686
 7037SOL    HW123008   6.741   4.769   8.755
 7037SOL    HW223009   6.713   4.631   8.699
 7038SOL     OW23010  12.078   2.510   3.140
 7038SOL    HW123011  12.083   2.603   3.119
 7038SOL    HW223012  12.027   2.507   3.221
 7039SOL     OW23013   8.228   5.965   5.246
 7039SOL    HW123014   8.213   5.879   5.206
 7039SOL    HW223015   8.146   6.013   5.231
 7040SOL     OW23016   1.202   1.073   6.728
 7040SOL    HW123017   1.110   1.056   6.748
 7040SOL    HW223018   1.246   0.989   6.739
 7041SOL     OW23019   8.310  14.091   5.166
 7041SOL    HW123020   8.363  14.011   5.168
 7041SOL    HW223021   8.257  14.086   5.246
 7042SOL     OW23022   0.993   5.467  12.512
 7042SOL    HW123023   1.039   5.547  12.539
 7042SOL    HW223024   1.059   5.398  12.517
 7043SOL     OW23025  14.002   1.832  13.101
 7043SOL    HW123026  14.075   1.877  13.144
 7043SOL    HW223027  13.998   1.747  13.144
 7044SOL     OW23028   3.073   2.532  12.886
 7044SOL    HW123029   3.071   2.459  12.825
 7044SOL    HW223030   3.123   2.499  12.961
 7045SOL     OW23031   6.778  11.624   6.178
 7045SOL    HW123032   6.741  11.615   6.090
 7045SOL    HW223033   6.868  11.654   6.163
 7046SOL     OW23034   1.061   1.485   8.900
 7046SOL    HW123035   1.028   1.570   8.930
 7046SOL    HW223036   1.140   1.507   8.850
 7047SOL     OW23037  12.410  10.164   9.551
 7047SOL    HW123038  12.500  10.189   9.571
 7047SOL    HW223039  12.383  10.108   9.624
 7048SOL     OW23040  14.400   6.644  12.333
 7048SOL    HW123041  14.455   6.588  12.278
 7048SOL    HW223042  14.334   6.585  12.368
 7049SOL     OW23043  10.295   1.342   7.757
 7049SOL    HW123044  10.222   1.292   7.794
 7049SOL    HW223045  10.366   1.332   7.821
 7050SOL     OW23046   7.405   2.180   2.940
 7050SOL    HW123047   7.410   2.097   2.988
 7050SOL    HW223048   7.482   2.229   2.968
 7051SOL     OW23049   3.793   8.861   7.015
 7051SOL    HW123050   3.802   8.815   6.932
 7051SOL    HW223051   3.711   8.830   7.052
 7052SOL     OW23052   5.442  11.557   4.269
 7052SOL    HW123053   5.390  11.637   4.263
 7052SOL    HW223054   5.382  11.487   4.240
 7053SOL     OW23055  14.510  13.072   4.417
 7053SOL    HW123056  14.592  13.065   4.369
 7053SOL    HW223057  14.522  13.149   4.473
 7054SOL     OW23058   1.043  12.635  14.694
 7054SOL    HW123059   0.980  12.564  14.683
 7054SOL    HW223060   1.115  12.597  14.744
 7055SOL     OW23061   4.506   3.766   8.527
 7055SOL    HW123062   4.528   3.859   8.536
 7055SOL    HW223063   4.426   3.765   8.474
 7056SOL     OW23064   4.467   7.315  13.344
 7056SOL    HW123065   4.443   7.224  13.327
 7056SOL    HW223066   4.386   7.364  13.329
 7057SOL     OW23067   0.045   6.586   3.314
 7057SOL    HW123068   0.030   6.494   3.336
 7057SOL    HW223069   0.004   6.634   3.385
 7058SOL     OW23070   5.878   5.691   8.942
 7058SOL    HW123071   5.807   5.627   8.950
 7058SOL    HW223072   5.836   5.769   8.905
 7059SOL     OW23073  13.276   8.343  14.428
 7059SOL    HW123074  13.198   8.351  14.483
 7059SOL    HW223075  13.323   8.268  14.465
 7060SOL     OW23076  12.554   8.425   8.516
 7060SOL    HW123077  12.490   8.368   8.558
 7060SOL    HW223078  12.571   8.494   8.580
 7061SOL     OW23079   7.808  13.596   9.408
 7061SOL    HW123080   7.786  13.503   9.418
 7061SOL    HW223081   7.781  13.636   9.491
 7062SOL     OW23082  14.503   0.821   7.924
 7062SOL    HW123083  14.528   0.898   7.975
 7062SOL    HW223084  14.523   0.844   7.833
 7063SOL     OW23085   9.410  13.314   2.359
 7063SOL    HW123086   9.412  13.247   2.427
 7063SOL    HW223087   9.384  13.267   2.280
 7064SOL     OW23088   7.100  14.108   0.523
 7064SOL    HW123089   7.015  14.142   0.494
 7064SOL    HW223090   7.154  14.107   0.444
 7065SOL     OW23091   7.179   7.735   2.670
 7065SOL    HW123092   7.131   7.711   2.749
 7065SOL    HW223093   7.111   7.744   2.603
 7066SOL     OW23094  12.237   0.137   1.845
 7066SOL    HW123095  12.211   0.069   1.907
 7066SOL    HW223096  12.238   0.218   1.897
 7067SOL     OW23097   2.584   8.502   0.419
 7067SOL    HW123098   2.658   8.555   0.390
 7067SOL    HW223099   2.583   8.428   0.358
 7068SOL     OW23100  14.613   1.266   0.270
 7068SOL    HW123101  14.629   1.277   0.363
 7068SOL    HW223102  14.534   1.317   0.253
 7069SOL     OW23103  10.010   1.153   6.481
 7069SOL    HW123104  10.025   1.101   6.559
 7069SOL    HW223105   9.921   1.188   6.492
 7070SOL     OW23106   2.296  10.483   8.403
 7070SOL    HW123107   2.328  10.427   8.474
 7070SOL    HW223108   2.327  10.571   8.427
 7071SOL     OW23109   8.809   8.618   1.269
 7071SOL    HW123110   8.855   8.673   1.204
 7071SOL    HW223111   8.737   8.578   1.220
 7072SOL     OW23112  11.584   1.788   4.214
 7072SOL    HW123113  11.515   1.773   4.279
 7072SOL    HW223114  11.665   1.768   4.261
 7073SOL     OW23115   6.521   6.383   6.669
 7073SOL    HW123116   6.583   6.430   6.613
 7073SOL    HW223117   6.488   6.450   6.729
 7074SOL     OW23118   4.857  14.721   3.135
 7074SOL    HW123119   4.910  14.764   3.067
 7074SOL    HW223120   4.778  14.693   3.090
 7075SOL     OW23121  13.596   5.579   8.056
 7075SOL    HW123122  13.604   5.561   7.963
 7075SOL    HW223123  13.531   5.517   8.088
 7076SOL     OW23124   4.667   7.746  10.544
 7076SOL    HW123125   4.595   7.809  10.542
 7076SOL    HW223126   4.625   7.660  10.536
 7077SOL     OW23127   3.660   6.263   5.233
 7077SOL    HW123128   3.736   6.254   5.175
 7077SOL    HW223129   3.596   6.311   5.181
 7078SOL     OW23130   2.630  10.206   9.261
 7078SOL    HW123131   2.723  10.197   9.283
 7078SOL    HW223132   2.584  10.157   9.329
 7079SOL     OW23133   8.473  11.644   0.999
 7079SOL    HW123134   8.423  11.721   0.975
 7079SOL    HW223135   8.423  11.570   0.965
 7080SOL     OW23136   5.771   9.911   1.005
 7080SOL    HW123137   5.748   9.929   0.914
 7080SOL    HW223138   5.772   9.815   1.011
 7081SOL     OW23139   5.199   2.514   8.924
 7081SOL    HW123140   5.230   2.526   9.014
 7081SOL    HW223141   5.108   2.486   8.934
 7082SOL     OW23142  11.009   3.507   3.021
 7082SOL    HW123143  11.007   3.505   2.925
 7082SOL    HW223144  11.095   3.544   3.042
 7083SOL     OW23145   9.887   8.354  13.207
 7083SOL    HW123146   9.932   8.417  13.263
 7083SOL    HW223147   9.943   8.276  13.210
 7084SOL     OW23148  12.142  14.461  11.598
 7084SOL    HW123149  12.073  14.396  11.614
 7084SOL    HW223150  12.109  14.541  11.639
 7085SOL     OW23151   2.815   6.643   7.626
 7085SOL    HW123152   2.723   6.616   7.628
 7085SOL    HW223153   2.813   6.738   7.617
 7086SOL     OW23154   1.992  13.437   5.087
 7086SOL    HW123155   1.962  13.526   5.068
 7086SOL    HW223156   1.912  13.385   5.090
 7087SOL     OW23157  13.384   1.952   1.785
 7087SOL    HW123158  13.473   1.988   1.791
 7087SOL    HW223159  13.352   1.951   1.875
 7088SOL     OW23160   2.856   9.362   4.869
 7088SOL    HW123161   2.935   9.310   4.888
 7088SOL    HW223162   2.817   9.379   4.955
 7089SOL     OW23163   2.487   7.977  14.851
 7089SOL    HW123164   2.545   8.005   0.040
 7089SOL    HW223165   2.520   8.022  14.774
 7090SOL     OW23166  11.098   0.308  14.303
 7090SOL    HW123167  11.088   0.387  14.356
 7090SOL    HW223168  11.123   0.240  14.366
 7091SOL     OW23169  11.667   6.159  10.889
 7091SOL    HW123170  11.755   6.174  10.921
 7091SOL    HW223171  11.618   6.237  10.917
 7092SOL     OW23172   6.791   9.667  13.154
 7092SOL    HW123173   6.825   9.756  13.152
 7092SOL    HW223174   6.828   9.628  13.233
 7093SOL     OW23175  10.351   4.472   9.494
 7093SOL    HW123176  10.335   4.424   9.575
 7093SOL    HW223177  10.370   4.405   9.429
 7094SOL     OW23178   4.229  13.631  11.226
 7094SOL    HW123179   4.209  13.640  11.319
 7094SOL    HW223180   4.220  13.537  11.208
 7095SOL     OW23181  14.518  12.205   0.657
 7095SOL    HW123182  14.539  12.113   0.645
 7095SOL    HW223183  14.423  12.210   0.645
 7096SOL     OW23184   7.868   0.787  14.446
 7096SOL    HW123185   7.945   0.736  14.421
 7096SOL    HW223186   7.796   0.747  14.398
 7097SOL     OW23187   3.514  14.799  11.222
 7097SOL    HW123188   3.520  14.872  11.161
 7097SOL    HW223189   3.431  14.757  11.200
 7098SOL     OW23190   8.948   9.290   0.803
 7098SOL    HW123191   8.999   9.371   0.795
 7098SOL    HW223192   8.880   9.311   0.867
 7099SOL     OW23193  11.623   2.728   4.423
 7099SOL    HW123194  11.707   2.684   4.440
 7099SOL    HW223195  11.582   2.734   4.509
 7100SOL     OW23196   6.357  10.731   4.917
 7100SOL    HW123197   6.405  10.766   4.842
 7100SOL    HW223198   6.265  10.736   4.891
 7101SOL     OW23199  14.551   5.511  10.507
 7101SOL    HW123200  14.488   5.471  10.567
 7101SOL    HW223201  14.629   5.527  10.561
 7102SOL     OW23202   8.111   6.487   1.766
 7102SOL    HW123203   8.199   6.521   1.751
 7102SOL    HW223204   8.123   6.414   1.827
 7103SOL     OW23205  12.716  13.740   2.743
 7103SOL    HW123206  12.726  13.824   2.697
 7103SOL    HW223207  12.701  13.676   2.674
 7104SOL     OW23208  13.083   2.688   7.223
 7104SOL    HW123209  13.059   2.669   7.313
 7104SOL    HW223210  13.109   2.781   7.225
 7105SOL     OW23211   1.637   4.818  11.943
 7105SOL    HW123212   1.560   4.832  11.889
 7105SOL    HW223213   1.654   4.904  11.983
 7106SOL     OW23214   0.163  11.848   4.274
 7106SOL    HW123215   0.122  11.762   4.267
 7106SOL    HW223216   0.241  11.843   4.219
 7107SOL     OW23217   5.486   5.024  12.967
 7107SOL    HW123218   5.545   4.949  12.976
 7107SOL    HW223219   5.471   5.031  12.873
 7108SOL     OW23220   5.516   2.170  13.564
 7108SOL    HW123221   5.550   2.150  13.477
 7108SOL    HW223222   5.494   2.084  13.601
 7109SOL     OW23223  10.073   7.276   7.257
 7109SOL    HW123224  10.167   7.283   7.273
 7109SOL    HW223225  10.048   7.361   7.221
 7110SOL     OW23226   0.071   2.617  12.280
 7110SOL    HW123227   0.140   2.582  12.224
 7110SOL    HW223228   0.032   2.540  12.322
 7111SOL     OW23229   3.100   4.413   4.932
 7111SOL    HW123230   3.157   4.338   4.913
 7111SOL    HW223231   3.151   4.469   4.990
 7112SOL     OW23232   6.338   4.162   8.503
 7112SOL    HW123233   6.289   4.093   8.460
 7112SOL    HW223234   6.415   4.119   8.540
 7113SOL     OW23235   4.957   8.667  14.562
 7113SOL    HW123236   5.006   8.726  14.505
 7113SOL    HW223237   5.023   8.607  14.597
 7114SOL     OW23238   8.780   8.577   3.156
 7114SOL    HW123239   8.689   8.559   3.179
 7114SOL    HW223240   8.821   8.491   3.152
 7115SOL     OW23241   4.652   4.129   2.057
 7115SOL    HW123242   4.665   4.056   2.118
 7115SOL    HW223243   4.674   4.093   1.971
 7116SOL     OW23244  11.839   2.659   2.926
 7116SOL    HW123245  11.867   2.729   2.986
 7116SOL    HW223246  11.757   2.692   2.888
 7117SOL     OW23247  10.898   9.313   3.324
 7117SOL    HW123248  10.837   9.383   3.302
 7117SOL    HW223249  10.877   9.243   3.262
 7118SOL     OW23250  13.435  12.523  11.618
 7118SOL    HW123251  13.491  12.590  11.578
 7118SOL    HW223252  13.388  12.569  11.688
 7119SOL     OW23253  12.715   5.434   0.211
 7119SOL    HW123254  12.801   5.476   0.213
 7119SOL    HW223255  12.660   5.489   0.265
 7120SOL     OW23256  12.661   8.523   9.068
 7120SOL    HW123257  12.741   8.480   9.097
 7120SOL    HW223258  12.691   8.594   9.011
 7121SOL     OW23259  11.442  11.911  14.179
 7121SOL    HW123260  11.449  11.836  14.119
 7121SOL    HW223261  11.477  11.985  14.129
 7122SOL     OW23262  14.842   4.707   2.939
 7122SOL    HW123263   0.035   4.694   2.881
 7122SOL    HW223264  14.796   4.782   2.903
 7123SOL     OW23265   1.640   2.450   4.235
 7123SOL    HW123266   1.712   2.500   4.197
 7123SOL    HW223267   1.594   2.413   4.160
 7124SOL     OW23268   5.114  11.709   5.592
 7124SOL    HW123269   5.074  11.650   5.528
 7124SOL    HW223270   5.208  11.693   5.584
 7125SOL     OW23271  10.788  11.283  10.106
 7125SOL    HW123272  10.712  11.340  10.095
 7125SOL    HW223273  10.784  11.223  10.032
 7126SOL     OW23274   9.083  14.834   4.757
 7126SOL    HW123275   9.044  14.779   4.689
 7126SOL    HW223276   9.011  14.851   4.818
 7127SOL     OW23277   7.862   0.942  12.001
 7127SOL    HW123278   7.878   0.953  12.095
 7127SOL    HW223279   7.948   0.928  11.963
 7128SOL     OW23280  13.427   4.367  13.351
 7128SOL    HW123281  13.494   4.373  13.420
 7128SOL    HW223282  13.459   4.297  13.293
 7129SOL     OW23283   6.653  13.634   0.780
 7129SOL    HW123284   6.698  13.590   0.708
 7129SOL    HW223285   6.673  13.580   0.857
 7130SOL     OW23286   9.233  11.643  13.463
 7130SOL    HW123287   9.266  11.584  13.396
 7130SOL    HW223288   9.176  11.704  13.416
 7131SOL     OW23289   2.510   8.025   7.367
 7131SOL    HW123290   2.487   7.950   7.312
 7131SOL    HW223291   2.537   8.093   7.305
 7132SOL     OW23292   7.478  14.470  12.170
 7132SOL    HW123293   7.566  14.434  12.166
 7132SOL    HW223294   7.420  14.394  12.169
 7133SOL     OW23295   3.902   5.404   0.059
 7133SOL    HW123296   3.985   5.362   0.039
 7133SOL    HW223297   3.927   5.489   0.096
 7134SOL     OW23298  13.870   0.558   5.235
 7134SOL    HW123299  13.853   0.463   5.240
 7134SOL    HW223300  13.806   0.590   5.173
 7135SOL     OW23301   4.227   3.076  10.617
 7135SOL    HW123302   4.146   3.031  10.639
 7135SOL    HW223303   4.208   3.168  10.632
 7136SOL     OW23304  10.635   9.989   2.099
 7136SOL    HW123305  10.550   9.949   2.081
 7136SOL    HW223306  10.698   9.918   2.090
 7137SOL     OW23307   8.874  10.930  14.793
 7137SOL    HW123308   8.919  10.848  14.812
 7137SOL    HW223309   8.911  10.992  14.856
 7138SOL     OW23310  14.723   9.696   0.367
 7138SOL    HW123311  14.798   9.637   0.372
 7138SOL    HW223312  14.755   9.772   0.319
 7139SOL     OW23313   3.057   1.107   2.924
 7139SOL    HW123314   3.043   1.073   3.012
 7139SOL    HW223315   3.142   1.152   2.929
 7140SOL     OW23316   2.360  13.548   6.172
 7140SOL    HW123317   2.384  13.618   6.112
 7140SOL    HW223318   2.363  13.589   6.259
 7141SOL     OW23319  13.653  10.574   8.235
 7141SOL    HW123320  13.743  10.552   8.208
 7141SOL    HW223321  13.598  10.513   8.186
 7142SOL     OW23322  11.434  14.550  11.165
 7142SOL    HW123323  11.355  14.544  11.218
 7142SOL    HW223324  11.417  14.493  11.089
 7143SOL     OW23325  12.459   3.398   8.671
 7143SOL    HW123326  12.437   3.468   8.732
 7143SOL    HW223327  12.548   3.372   8.695
 7144SOL     OW23328  13.859   9.789  10.737
 7144SOL    HW123329  13.806   9.727  10.687
 7144SOL    HW223330  13.896   9.847  10.671
 7145SOL     OW23331   0.467  13.410  13.421
 7145SOL    HW123332   0.446  13.366  13.339
 7145SOL    HW223333   0.500  13.496  13.395
 7146SOL     OW23334   7.933   6.978   7.978
 7146SOL    HW123335   7.843   6.946   7.972
 7146SOL    HW223336   7.969   6.933   8.054
 7147SOL     OW23337  13.646   0.544   6.758
 7147SOL    HW123338  13.574   0.524   6.818
 7147SOL    HW223339  13.725   0.521   6.806
 7148SOL     OW23340   4.232   1.065   7.044
 7148SOL    HW123341   4.315   1.025   7.016
 7148SOL    HW223342   4.218   1.030   7.132
 7149SOL     OW23343   6.057   7.964   4.942
 7149SOL    HW123344   6.002   7.923   5.009
 7149SOL    HW223345   6.134   7.908   4.937
 7150SOL     OW23346  14.287  12.069   4.092
 7150SOL    HW123347  14.267  12.024   4.010
 7150SOL    HW223348  14.269  12.161   4.074
 7151SOL     OW23349   2.206   3.332   9.050
 7151SOL    HW123350   2.296   3.319   9.080
 7151SOL    HW223351   2.212   3.404   8.987
 7152SOL     OW23352   7.542   4.751  10.222
 7152SOL    HW123353   7.567   4.818  10.157
 7152SOL    HW223354   7.549   4.796  10.306
 7153SOL     OW23355   3.893   9.750   9.654
 7153SOL    HW123356   3.816   9.778   9.704
 7153SOL    HW223357   3.856   9.698   9.582
 7154SOL     OW23358   9.228  10.581   4.140
 7154SOL    HW123359   9.243  10.652   4.077
 7154SOL    HW223360   9.140  10.548   4.118
 7155SOL     OW23361  11.543   3.625  13.478
 7155SOL    HW123362  11.583   3.610  13.393
 7155SOL    HW223363  11.563   3.547  13.529
 7156SOL     OW23364   0.681  11.867   2.933
 7156SOL    HW123365   0.604  11.856   2.988
 7156SOL    HW223366   0.755  11.853   2.991
 7157SOL     OW23367  13.642   3.690   3.904
 7157SOL    HW123368  13.720   3.741   3.882
 7157SOL    HW223369  13.675   3.609   3.942
 7158SOL     OW23370   4.014  10.551   0.249
 7158SOL    HW123371   4.081  10.610   0.283
 7158SOL    HW223372   3.937  10.569   0.303
 7159SOL     OW23373   4.148  12.844   7.239
 7159SOL    HW123374   4.230  12.800   7.262
 7159SOL    HW223375   4.079  12.786   7.272
 7160SOL     OW23376   2.713   1.478   2.509
 7160SOL    HW123377   2.755   1.564   2.517
 7160SOL    HW223378   2.762   1.421   2.568
 7161SOL     OW23379  10.793   8.490  10.857
 7161SOL    HW123380  10.864   8.470  10.918
 7161SOL    HW223381  10.782   8.410  10.805
 7162SOL     OW23382   2.644   6.735   7.363
 7162SOL    HW123383   2.645   6.747   7.268
 7162SOL    HW223384   2.606   6.648   7.376
 7163SOL     OW23385  14.690   9.548   4.271
 7163SOL    HW123386  14.785   9.552   4.282
 7163SOL    HW223387  14.656   9.537   4.361
 7164SOL     OW23388   0.456  11.914  11.863
 7164SOL    HW123389   0.539  11.949  11.896
 7164SOL    HW223390   0.467  11.819  11.866
 7165SOL     OW23391   4.231  13.409  11.479
 7165SOL    HW123392   4.293  13.430  11.549
 7165SOL    HW223393   4.150  13.452  11.505
 7166SOL     OW23394   7.562  12.454   8.372
 7166SOL    HW123395   7.625  12.510   8.327
 7166SOL    HW223396   7.616  12.398   8.428
 7167SOL     OW23397   2.081   6.680  13.428
 7167SOL    HW123398   2.123   6.674  13.514
 7167SOL    HW223399   2.001   6.730  13.444
 7168SOL     OW23400   7.683   4.664   9.397
 7168SOL    HW123401   7.742   4.735   9.372
 7168SOL    HW223402   7.600   4.687   9.355
 7169SOL     OW23403  10.670  14.227  12.675
 7169SOL    HW123404  10.638  14.315  12.693
 7169SOL    HW223405  10.632  14.205  12.591
 7170SOL     OW23406  11.596   1.306  11.901
 7170SOL    HW123407  11.596   1.393  11.940
 7170SOL    HW223408  11.638   1.250  11.966
 7171SOL     OW23409  13.528   8.925   9.878
 7171SOL    HW123410  13.480   8.914   9.960
 7171SOL    HW223411  13.585   8.848   9.874
 7172SOL     OW23412   2.657   5.060   4.088
 7172SOL    HW123413   2.732   5.019   4.044
 7172SOL    HW223414   2.695   5.128   4.142
 7173SOL     OW23415   0.369  11.644   3.257
 7173SOL    HW123416   0.408  11.597   3.183
 7173SOL    HW223417   0.440  11.651   3.321
 7174SOL     OW23418   1.456   4.474   8.650
 7174SOL    HW123419   1.412   4.397   8.687
 7174SOL    HW223420   1.479   4.527   8.727
 7175SOL     OW23421   6.165   4.743   5.985
 7175SOL    HW123422   6.209   4.827   5.978
 7175SOL    HW223423   6.117   4.748   6.068
 7176SOL     OW23424  10.577  10.605  13.995
 7176SOL    HW123425  10.635  10.681  13.995
 7176SOL    HW223426  10.620  10.543  13.935
 7177SOL     OW23427  14.350  11.207   2.922
 7177SOL    HW123428  14.275  11.264   2.906
 7177SOL    HW223429  14.319  11.146   2.989
 7178SOL     OW23430   7.785   3.698  11.410
 7178SOL    HW123431   7.802   3.604  11.418
 7178SOL    HW223432   7.712   3.715  11.470
 7179SOL     OW23433   6.185   1.812  13.070
 7179SOL    HW123434   6.274   1.778  13.065
 7179SOL    HW223435   6.145   1.786  12.986
 7180SOL     OW23436   4.453  13.399   2.019
 7180SOL    HW123437   4.388  13.442   2.075
 7180SOL    HW223438   4.537  13.431   2.051
 7181SOL     OW23439   1.961   1.049   2.003
 7181SOL    HW123440   2.045   1.092   2.022
 7181SOL    HW223441   1.969   1.022   1.911
 7182SOL     OW23442  13.899  12.976   5.932
 7182SOL    HW123443  13.864  13.019   5.854
 7182SOL    HW223444  13.961  12.911   5.899
 7183SOL     OW23445   1.730   9.715   3.126
 7183SOL    HW123446   1.684   9.634   3.100
 7183SOL    HW223447   1.671   9.785   3.098
 7184SOL     OW23448   2.106   9.028   0.122
 7184SOL    HW123449   2.025   9.001   0.079
 7184SOL    HW223450   2.153   9.078   0.054
 7185SOL     OW23451  12.182   7.568  11.394
 7185SOL    HW123452  12.093   7.578  11.361
 7185SOL    HW223453  12.184   7.478  11.428
 7186SOL     OW23454   5.382  13.281   2.365
 7186SOL    HW123455   5.478  13.277   2.363
 7186SOL    HW223456   5.354  13.190   2.359
 7187SOL     OW23457   6.849  10.434  11.724
 7187SOL    HW123458   6.919  10.464  11.783
 7187SOL    HW223459   6.807  10.515  11.695
 7188SOL     OW23460  12.260   8.592   3.978
 7188SOL    HW123461  12.336   8.645   4.001
 7188SOL    HW223462  12.236   8.547   4.059
 7189SOL     OW23463  10.624   9.441   2.235
 7189SOL    HW123464  10.663   9.508   2.179
 7189SOL    HW223465  10.688   9.370   2.237
 7190SOL     OW23466  10.860   8.515  13.665
 7190SOL    HW123467  10.807   8.496  13.588
 7190SOL    HW223468  10.862   8.432  13.714
 7191SOL     OW23469  14.548   0.243   2.593
 7191SOL    HW123470  14.486   0.244   2.520
 7191SOL    HW223471  14.497   0.275   2.667
 7192SOL     OW23472   9.820   5.470  11.918
 7192SOL    HW123473   9.737   5.491  11.961
 7192SOL    HW223474   9.800   5.471  11.824
 7193SOL     OW23475  11.836  12.883   0.102
 7193SOL    HW123476  11.927  12.857   0.113
 7193SOL    HW223477  11.805  12.831   0.028
 7194SOL     OW23478   3.013   0.510  12.344
 7194SOL    HW123479   3.108   0.511  12.354
 7194SOL    HW223480   2.998   0.523  12.250
 7195SOL     OW23481   0.268  12.867   7.479
 7195SOL    HW123482   0.276  12.932   7.409
 7195SOL    HW223483   0.257  12.783   7.433
 7196SOL     OW23484   1.373  13.705   0.712
 7196SOL    HW123485   1.427  13.710   0.791
 7196SOL    HW223486   1.367  13.796   0.681
 7197SOL     OW23487   8.682  13.492  12.318
 7197SOL    HW123488   8.745  13.481  12.246
 7197SOL    HW223489   8.735  13.517  12.393
 7198SOL     OW23490  14.111   9.827   0.732
 7198SOL    HW123491  14.140   9.843   0.642
 7198SOL    HW223492  14.066   9.907   0.758
 7199SOL     OW23493   7.153   2.257   0.992
 7199SOL    HW123494   7.177   2.295   1.077
 7199SOL    HW223495   7.210   2.302   0.929
 7200SOL     OW23496   2.509   6.261   1.373
 7200SOL    HW123497   2.426   6.268   1.419
 7200SOL    HW223498   2.561   6.201   1.425
 7201SOL     OW23499   1.861  12.229  13.073
 7201SOL    HW123500   1.905  12.312  13.050
 7201SOL    HW223501   1.901  12.204  13.156
 7202SOL     OW23502  11.269   8.605   3.997
 7202SOL    HW123503  11.351   8.629   4.041
 7202SOL    HW223504  11.286   8.622   3.905
 7203SOL     OW23505   9.903   3.131   5.028
 7203SOL    HW123506   9.990   3.156   4.995
 7203SOL    HW223507   9.917   3.115   5.121
 7204SOL     OW23508   2.773   8.346   5.806
 7204SOL    HW123509   2.719   8.420   5.835
 7204SOL    HW223510   2.710   8.278   5.784
 7205SOL     OW23511  13.933   9.883  13.022
 7205SOL    HW123512  13.887   9.872  13.106
 7205SOL    HW223513  14.016   9.836  13.034
 7206SOL     OW23514   9.722   2.627  10.901
 7206SOL    HW123515   9.699   2.662  10.815
 7206SOL    HW223516   9.816   2.644  10.910
 7207SOL     OW23517   4.295  12.933  13.821
 7207SOL    HW123518   4.245  12.983  13.886
 7207SOL    HW223519   4.332  12.999  13.763
 7208SOL     OW23520   1.602   0.963  10.733
 7208SOL    HW123521   1.667   0.959  10.802
 7208SOL    HW223522   1.578   0.872  10.716
 7209SOL     OW23523  10.516   7.140  10.331
 7209SOL    HW123524  10.565   7.222  10.336
 7209SOL    HW223525  10.453   7.145  10.403
 7210SOL     OW23526   2.133   9.999   2.018
 7210SOL    HW123527   2.061  10.030   1.963
 7210SOL    HW223528   2.204  10.061   2.002
 7211SOL     OW23529  11.960   6.285  14.160
 7211SOL    HW123530  11.901   6.225  14.114
 7211SOL    HW223531  11.902   6.343  14.210
 7212SOL     OW23532   6.458   1.052  14.024
 7212SOL    HW123533   6.526   1.111  13.993
 7212SOL    HW223534   6.385   1.109  14.048
 7213SOL     OW23535   1.094   3.072  13.366
 7213SOL    HW123536   1.037   3.148  13.377
 7213SOL    HW223537   1.036   3.002  13.336
 7214SOL     OW23538  14.309   2.477  10.142
 7214SOL    HW123539  14.384   2.495  10.198
 7214SOL    HW223540  14.333   2.397  10.095
 7215SOL     OW23541   3.590   2.243   2.950
 7215SOL    HW123542   3.657   2.282   3.006
 7215SOL    HW223543   3.555   2.171   3.002
 7216SOL     OW23544   3.365   0.471   3.824
 7216SOL    HW123545   3.432   0.413   3.860
 7216SOL    HW223546   3.391   0.559   3.853
 7217SOL     OW23547   9.580  13.577  13.895
 7217SOL    HW123548   9.597  13.611  13.983
 7217SOL    HW223549   9.484  13.572  13.890
 7218SOL     OW23550  14.493  12.786   3.524
 7218SOL    HW123551  14.536  12.766   3.607
 7218SOL    HW223552  14.543  12.737   3.459
 7219SOL     OW23553  13.401  10.687  12.994
 7219SOL    HW123554  13.391  10.700  12.900
 7219SOL    HW223555  13.415  10.776  13.029
 7220SOL     OW23556   8.780   4.168   9.532
 7220SOL    HW123557   8.796   4.074   9.543
 7220SOL    HW223558   8.689   4.181   9.559
 7221SOL     OW23559   4.533   4.843   5.513
 7221SOL    HW123560   4.549   4.832   5.607
 7221SOL    HW223561   4.518   4.937   5.502
 7222SOL     OW23562  14.767   9.248   6.531
 7222SOL    HW123563  14.693   9.246   6.592
 7222SOL    HW223564  14.808   9.333   6.548
 7223SOL     OW23565   8.122   2.786  12.456
 7223SOL    HW123566   8.103   2.880  12.462
 7223SOL    HW223567   8.194   2.772  12.516
 7224SOL     OW23568   3.021  11.981   3.959
 7224SOL    HW123569   3.051  11.898   3.922
 7224SOL    HW223570   2.950  12.009   3.902
 7225SOL     OW23571   2.577   9.290   7.597
 7225SOL    HW123572   2.566   9.198   7.622
 7225SOL    HW223573   2.564   9.291   7.503
 7226SOL     OW23574  12.354   5.729   9.922
 7226SOL    HW123575  12.288   5.739   9.854
 7226SOL    HW223576  12.431   5.775   9.888
 7227SOL     OW23577   1.029  10.853   4.139
 7227SOL    HW123578   1.023  10.932   4.085
 7227SOL    HW223579   0.941  10.844   4.177
 7228SOL     OW23580   5.998  12.197   9.252
 7228SOL    HW123581   6.014  12.104   9.240
 7228SOL    HW223582   5.990  12.232   9.163
 7229SOL     OW23583   3.210   7.101   2.332
 7229SOL    HW123584   3.137   7.049   2.300
 7229SOL    HW223585   3.259   7.041   2.389
 7230SOL     OW23586   6.856  10.323   7.735
 7230SOL    HW123587   6.837  10.230   7.747
 7230SOL    HW223588   6.821  10.365   7.814
 7231SOL     OW23589   5.020   3.317   6.266
 7231SOL    HW123590   4.951   3.360   6.215
 7231SOL    HW223591   5.032   3.232   6.223
 7232SOL     OW23592  11.776   8.557   4.481
 7232SOL    HW123593  11.803   8.610   4.406
 7232SOL    HW223594  11.700   8.603   4.518
 7233SOL     OW23595   4.018  13.934   3.872
 7233SOL    HW123596   4.104  13.900   3.848
 7233SOL    HW223597   4.002  14.005   3.810
 7234SOL     OW23598   0.329   0.602   1.260
 7234SOL    HW123599   0.409   0.634   1.302
 7234SOL    HW223600   0.348   0.607   1.166
 7235SOL     OW23601   6.928   5.408   1.994
 7235SOL    HW123602   6.840   5.381   1.971
 7235SOL    HW223603   6.916   5.484   2.052
 7236SOL     OW23604   9.226  12.135   0.849
 7236SOL    HW123605   9.225  12.175   0.936
 7236SOL    HW223606   9.162  12.184   0.799
 7237SOL     OW23607  14.475   9.168  13.285
 7237SOL    HW123608  14.431   9.088  13.257
 7237SOL    HW223609  14.406   9.234  13.286
 7238SOL     OW23610   4.183   8.422   5.801
 7238SOL    HW123611   4.186   8.416   5.897
 7238SOL    HW223612   4.158   8.512   5.783
 7239SOL     OW23613   6.982  14.367   7.777
 7239SOL    HW123614   7.019  14.346   7.691
 7239SOL    HW223615   7.056  14.401   7.827
 7240SOL     OW23616   0.319   1.101   2.661
 7240SOL    HW123617   0.272   1.099   2.744
 7240SOL    HW223618   0.404   1.062   2.680
 7241SOL     OW23619   2.675   4.166   3.037
 7241SOL    HW123620   2.753   4.208   3.075
 7241SOL    HW223621   2.655   4.219   2.959
 7242SOL     OW23622  13.746  14.485   5.164
 7242SOL    HW123623  13.738  14.442   5.080
 7242SOL    HW223624  13.677  14.447   5.218
 7243SOL     OW23625  14.648   7.448  12.636
 7243SOL    HW123626  14.628   7.393  12.711
 7243SOL    HW223627  14.731   7.414  12.602
 7244SOL     OW23628   0.045  13.754   1.699
 7244SOL    HW123629   0.137  13.780   1.697
 7244SOL    HW223630   0.042  13.682   1.763
 7245SOL     OW23631   7.726   2.958   4.408
 7245SOL    HW123632   7.653   2.907   4.442
 7245SOL    HW223633   7.690   3.001   4.329
 7246SOL     OW23634   5.851  11.498   8.056
 7246SOL    HW123635   5.764  11.527   8.029
 7246SOL    HW223636   5.903  11.579   8.060
 7247SOL     OW23637   0.057  10.364  13.535
 7247SOL    HW123638   0.007  10.360  13.453
 7247SOL    HW223639   0.113  10.441  13.525
 7248SOL     OW23640   8.712   2.338  12.870
 7248SOL    HW123641   8.770   2.280  12.920
 7248SOL    HW223642   8.714   2.421  12.917
 7249SOL     OW23643   5.643  10.399   2.913
 7249SOL    HW123644   5.698  10.476   2.928
 7249SOL    HW223645   5.647  10.386   2.818
 7250SOL     OW23646  12.560   7.388   2.976
 7250SOL    HW123647  12.568   7.339   3.058
 7250SOL    HW223648  12.500   7.460   2.997
 7251SOL     OW23649  10.131   2.545   4.914
 7251SOL    HW123650  10.219   2.552   4.877
 7251SOL    HW223651  10.120   2.451   4.932
 7252SOL     OW23652   7.498  14.115   3.193
 7252SOL    HW123653   7.512  14.165   3.274
 7252SOL    HW223654   7.403  14.114   3.182
 7253SOL     OW23655  10.382   9.573  12.292
 7253SOL    HW123656  10.402   9.495  12.344
 7253SOL    HW223657  10.366   9.642  12.356
 7254SOL     OW23658   0.598   3.773   5.173
 7254SOL    HW123659   0.514   3.729   5.166
 7254SOL    HW223660   0.656   3.722   5.115
 7255SOL     OW23661  13.770   1.420  12.658
 7255SOL    HW123662  13.785   1.387  12.747
 7255SOL    HW223663  13.696   1.369  12.625
 7256SOL     OW23664  13.531  11.112  10.941
 7256SOL    HW123665  13.498  11.140  11.026
 7256SOL    HW223666  13.511  11.185  10.883
 7257SOL     OW23667  11.648   7.944  14.383
 7257SOL    HW123668  11.585   7.886  14.342
 7257SOL    HW223669  11.637   8.028  14.339
 7258SOL     OW23670  12.278   5.696   7.345
 7258SOL    HW123671  12.223   5.680   7.422
 7258SOL    HW223672  12.249   5.782   7.313
 7259SOL     OW23673   0.373  12.901   9.206
 7259SOL    HW123674   0.465  12.884   9.226
 7259SOL    HW223675   0.328  12.889   9.289
 7260SOL     OW23676   2.630   5.358  11.336
 7260SOL    HW123677   2.571   5.424  11.301
 7260SOL    HW223678   2.573   5.282  11.353
 7261SOL     OW23679   0.033   4.666   5.485
 7261SOL    HW123680  14.830   4.625   5.472
 7261SOL    HW223681   0.095   4.608   5.440
 7262SOL     OW23682   5.107   1.568  12.529
 7262SOL    HW123683   5.082   1.643  12.583
 7262SOL    HW223684   5.203   1.575  12.523
 7263SOL     OW23685   8.600   3.740   4.197
 7263SOL    HW123686   8.691   3.729   4.168
 7263SOL    HW223687   8.549   3.737   4.116
 7264SOL     OW23688   9.012   2.910  11.099
 7264SOL    HW123689   9.001   2.984  11.158
 7264SOL    HW223690   8.937   2.915  11.040
 7265SOL     OW23691   5.673   7.402  10.608
 7265SOL    HW123692   5.600   7.431  10.553
 7265SOL    HW223693   5.689   7.476  10.667
 7266SOL     OW23694  12.599  14.876   9.455
 7266SOL    HW123695  12.526  14.817   9.436
 7266SOL    HW223696  12.673  14.818   9.470
 7267SOL     OW23697   9.907  13.806   8.162
 7267SOL    HW123698   9.982  13.839   8.112
 7267SOL    HW223699   9.831  13.834   8.111
 7268SOL     OW23700   2.766   1.502  10.243
 7268SOL    HW123701   2.764   1.530  10.151
 7268SOL    HW223702   2.845   1.542  10.279
 7269SOL     OW23703  14.345   7.827  13.930
 7269SOL    HW123704  14.260   7.783  13.930
 7269SOL    HW223705  14.350   7.869  13.844
 7270SOL     OW23706  11.250  11.176  10.058
 7270SOL    HW123707  11.342  11.184  10.030
 7270SOL    HW223708  11.208  11.127   9.987
 7271SOL     OW23709  12.552   1.027  10.403
 7271SOL    HW123710  12.484   1.011  10.338
 7271SOL    HW223711  12.506   1.059  10.480
 7272SOL     OW23712   1.223   8.294  11.934
 7272SOL    HW123713   1.190   8.349  11.863
 7272SOL    HW223714   1.249   8.212  11.891
 7273SOL     OW23715   1.588  11.050   3.030
 7273SOL    HW123716   1.666  11.102   3.010
 7273SOL    HW223717   1.524  11.076   2.964
 7274SOL     OW23718   9.277   6.834   7.743
 7274SOL    HW123719   9.200   6.864   7.792
 7274SOL    HW223720   9.344   6.819   7.810
 7275SOL     OW23721   6.848   2.944   5.238
 7275SOL    HW123722   6.791   3.019   5.219
 7275SOL    HW223723   6.929   2.965   5.192
 7276SOL     OW23724   3.632   0.105   7.279
 7276SOL    HW123725   3.568   0.096   7.351
 7276SOL    HW223726   3.590   0.165   7.218
 7277SOL     OW23727   3.261   6.231  12.247
 7277SOL    HW123728   3.180   6.281  12.243
 7277SOL    HW223729   3.308   6.267  12.322
 7278SOL     OW23730  14.769   2.316  14.102
 7278SOL    HW123731  14.715   2.332  14.179
 7278SOL    HW223732  14.801   2.403  14.077
 7279SOL     OW23733  10.856  14.367   1.101
 7279SOL    HW123734  10.915  14.422   1.154
 7279SOL    HW223735  10.897  14.281   1.102
 7280SOL     OW23736   4.803  12.661  14.598
 7280SOL    HW123737   4.744  12.597  14.638
 7280SOL    HW223738   4.891  12.632  14.623
 7281SOL     OW23739   8.015   2.298  13.500
 7281SOL    HW123740   8.082   2.232  13.481
 7281SOL    HW223741   7.984   2.276  13.588
 7282SOL     OW23742  11.557   8.880   3.329
 7282SOL    HW123743  11.554   8.962   3.278
 7282SOL    HW223744  11.475   8.837   3.308
 7283SOL     OW23745   5.254   3.400  10.739
 7283SOL    HW123746   5.291   3.328  10.789
 7283SOL    HW223747   5.210   3.358  10.665
 7284SOL     OW23748  13.802   7.118   2.768
 7284SOL    HW123749  13.896   7.104   2.754
 7284SOL    HW223750  13.765   7.030   2.773
 7285SOL     OW23751   2.412   3.724  13.313
 7285SOL    HW123752   2.455   3.777  13.380
 7285SOL    HW223753   2.463   3.742  13.233
 7286SOL     OW23754   0.895   8.477   8.850
 7286SOL    HW123755   0.975   8.508   8.807
 7286SOL    HW223756   0.926   8.437   8.932
 7287SOL     OW23757   4.085  10.253   4.775
 7287SOL    HW123758   4.108  10.329   4.721
 7287SOL    HW223759   4.004  10.278   4.819
 7288SOL     OW23760  11.709   9.823   2.138
 7288SOL    HW123761  11.771   9.750   2.138
 7288SOL    HW223762  11.741   9.881   2.069
 7289SOL     OW23763  11.747  10.400   4.298
 7289SOL    HW123764  11.655  10.389   4.320
 7289SOL    HW223765  11.746  10.450   4.217
 7290SOL     OW23766   4.403   3.773   1.454
 7290SOL    HW123767   4.423   3.708   1.521
 7290SOL    HW223768   4.383   3.853   1.504
 7291SOL     OW23769  11.221   9.002  12.003
 7291SOL    HW123770  11.245   9.025  11.913
 7291SOL    HW223771  11.132   9.034  12.014
 7292SOL     OW23772   6.203   7.425  13.040
 7292SOL    HW123773   6.272   7.397  13.099
 7292SOL    HW223774   6.174   7.344  12.997
 7293SOL     OW23775   6.466   8.150   3.035
 7293SOL    HW123776   6.461   8.110   2.948
 7293SOL    HW223777   6.538   8.104   3.078
 7294SOL     OW23778  13.338  14.394   8.254
 7294SOL    HW123779  13.253  14.435   8.267
 7294SOL    HW223780  13.328  14.343   8.173
 7295SOL     OW23781   5.253   6.933  14.299
 7295SOL    HW123782   5.302   6.978  14.231
 7295SOL    HW223783   5.277   6.978  14.380
 7296SOL     OW23784   1.076   1.642   9.671
 7296SOL    HW123785   0.994   1.681   9.640
 7296SOL    HW223786   1.113   1.708   9.730
 7297SOL     OW23787   0.361   6.521   0.278
 7297SOL    HW123788   0.312   6.493   0.201
 7297SOL    HW223789   0.327   6.466   0.349
 7298SOL     OW23790   7.288   3.606  13.822
 7298SOL    HW123791   7.230   3.632  13.893
 7298SOL    HW223792   7.240   3.538  13.775
 7299SOL     OW23793  10.770   0.267   0.836
 7299SOL    HW123794  10.818   0.236   0.760
 7299SOL    HW223795  10.739   0.354   0.811
 7300SOL     OW23796   7.198   3.497   2.160
 7300SOL    HW123797   7.123   3.464   2.111
 7300SOL    HW223798   7.174   3.483   2.252
 7301SOL     OW23799   2.271  14.401   7.285
 7301SOL    HW123800   2.305  14.334   7.225
 7301SOL    HW223801   2.348  14.430   7.333
 7302SOL     OW23802   2.586   5.446  11.667
 7302SOL    HW123803   2.548   5.510  11.728
 7302SOL    HW223804   2.680   5.450  11.684
 7303SOL     OW23805   4.742   6.316  11.013
 7303SOL    HW123806   4.731   6.405  10.979
 7303SOL    HW223807   4.767   6.264  10.937
 7304SOL     OW23808   3.943  12.953   2.187
 7304SOL    HW123809   3.952  12.872   2.136
 7304SOL    HW223810   3.848  12.966   2.194
 7305SOL     OW23811   2.176  14.237  11.513
 7305SOL    HW123812   2.272  14.244  11.515
 7305SOL    HW223813   2.159  14.143  11.508
 7306SOL     OW23814  13.912  13.484   7.256
 7306SOL    HW123815  13.959  13.467   7.174
 7306SOL    HW223816  13.901  13.398   7.297
 7307SOL     OW23817   0.114  10.596  12.867
 7307SOL    HW123818   0.052  10.641  12.810
 7307SOL    HW223819   0.198  10.606  12.823
 7308SOL     OW23820   1.141   1.917  10.815
 7308SOL    HW123821   1.211   1.854  10.830
 7308SOL    HW223822   1.169   1.965  10.736
 7309SOL     OW23823  10.941  13.380  11.740
 7309SOL    HW123824  10.995  13.310  11.776
 7309SOL    HW223825  10.992  13.460  11.754
 7310SOL     OW23826  13.661   3.625   9.634
 7310SOL    HW123827  13.623   3.583   9.711
 7310SOL    HW223828  13.689   3.711   9.665
 7311SOL     OW23829   1.462   0.019  13.380
 7311SOL    HW123830   1.552  14.881  13.403
 7311SOL    HW223831   1.443  14.846  13.305
 7312SOL     OW23832   8.855   5.010  14.144
 7312SOL    HW123833   8.924   5.018  14.078
 7312SOL    HW223834   8.793   4.948  14.106
 7313SOL     OW23835  11.484   1.318  10.327
 7313SOL    HW123836  11.519   1.368  10.401
 7313SOL    HW223837  11.490   1.227  10.355
 7314SOL     OW23838   3.738  11.516  13.719
 7314SOL    HW123839   3.731  11.422  13.731
 7314SOL    HW223840   3.687  11.554  13.790
 7315SOL     OW23841  12.643   8.866   9.281
 7315SOL    HW123842  12.665   8.854   9.374
 7315SOL    HW223843  12.558   8.910   9.282
 7316SOL     OW23844   2.821   9.771  12.844
 7316SOL    HW123845   2.853   9.845  12.895
 7316SOL    HW223846   2.802   9.808  12.758
 7317SOL     OW23847   1.501   0.859   4.480
 7317SOL    HW123848   1.476   0.887   4.392
 7317SOL    HW223849   1.433   0.895   4.537
 7318SOL     OW23850  12.907   8.639  11.318
 7318SOL    HW123851  12.856   8.627  11.239
 7318SOL    HW223852  12.854   8.697  11.373
 7319SOL     OW23853  14.105  12.492   5.809
 7319SOL    HW123854  14.099  12.431   5.883
 7319SOL    HW223855  14.061  12.447   5.737
 7320SOL     OW23856   8.055  12.031   7.837
 7320SOL    HW123857   8.128  11.997   7.890
 7320SOL    HW223858   8.073  11.999   7.749
 7321SOL     OW23859   0.274  10.177   5.178
 7321SOL    HW123860   0.267  10.138   5.265
 7321SOL    HW223861   0.284  10.103   5.119
 7322SOL     OW23862  10.299  14.341  10.422
 7322SOL    HW123863  10.213  14.378  10.402
 7322SOL    HW223864  10.303  14.261  10.370
 7323SOL     OW23865   6.203  14.618  12.529
 7323SOL    HW123866   6.164  14.671  12.599
 7323SOL    HW223867   6.295  14.611  12.554
 7324SOL     OW23868  10.622   7.125   5.160
 7324SOL    HW123869  10.646   7.056   5.222
 7324SOL    HW223870  10.531   7.105   5.137
 7325SOL     OW23871  11.723   6.792   2.600
 7325SOL    HW123872  11.641   6.841   2.607
 7325SOL    HW223873  11.732   6.774   2.506
 7326SOL     OW23874   4.542   9.661   2.121
 7326SOL    HW123875   4.578   9.617   2.044
 7326SOL    HW223876   4.480   9.725   2.086
 7327SOL     OW23877   5.482  13.792  11.128
 7327SOL    HW123878   5.446  13.791  11.216
 7327SOL    HW223879   5.431  13.857  11.081
 7328SOL     OW23880  11.703   2.032   3.352
 7328SOL    HW123881  11.664   1.944   3.353
 7328SOL    HW223882  11.686   2.065   3.264
 7329SOL     OW23883   8.410   7.740  11.320
 7329SOL    HW123884   8.434   7.665  11.265
 7329SOL    HW223885   8.397   7.812  11.258
 7330SOL     OW23886   7.936  11.129  10.225
 7330SOL    HW123887   7.912  11.037  10.220
 7330SOL    HW223888   7.985  11.136  10.307
 7331SOL     OW23889  10.616   5.713   4.092
 7331SOL    HW123890  10.601   5.760   4.174
 7331SOL    HW223891  10.530   5.682   4.065
 7332SOL     OW23892   9.474  10.958   0.433
 7332SOL    HW123893   9.527  10.903   0.375
 7332SOL    HW223894   9.519  10.955   0.517
 7333SOL     OW23895   5.376  10.960   8.464
 7333SOL    HW123896   5.418  10.876   8.486
 7333SOL    HW223897   5.444  11.025   8.479
 7334SOL     OW23898   9.253   5.325   7.544
 7334SOL    HW123899   9.238   5.281   7.460
 7334SOL    HW223900   9.179   5.384   7.554
 7335SOL     OW23901   2.903  11.590  10.818
 7335SOL    HW123902   2.841  11.586  10.890
 7335SOL    HW223903   2.980  11.543  10.850
 7336SOL     OW23904   8.583   7.320  12.111
 7336SOL    HW123905   8.526   7.282  12.043
 7336SOL    HW223906   8.630   7.390  12.066
 7337SOL     OW23907   3.604  10.612  12.561
 7337SOL    HW123908   3.655  10.537  12.530
 7337SOL    HW223909   3.532  10.619  12.498
 7338SOL     OW23910   0.155   1.322   7.608
 7338SOL    HW123911   0.127   1.357   7.523
 7338SOL    HW223912   0.171   1.400   7.661
 7339SOL     OW23913   3.129   6.010   1.669
 7339SOL    HW123914   3.206   6.034   1.720
 7339SOL    HW223915   3.120   6.081   1.605
 7340SOL     OW23916  13.983   9.742   8.634
 7340SOL    HW123917  13.899   9.696   8.628
 7340SOL    HW223918  14.024   9.706   8.712
 7341SOL     OW23919  11.239  10.282  12.784
 7341SOL    HW123920  11.257  10.189  12.769
 7341SOL    HW223921  11.325  10.324  12.784
 7342SOL     OW23922   7.702  12.679  12.098
 7342SOL    HW123923   7.683  12.590  12.128
 7342SOL    HW223924   7.652  12.735  12.157
 7343SOL     OW23925   0.561   7.892  13.050
 7343SOL    HW123926   0.522   7.842  12.978
 7343SOL    HW223927   0.564   7.982  13.019
 7344SOL     OW23928   1.263  14.440   1.039
 7344SOL    HW123929   1.318  14.512   1.072
 7344SOL    HW223930   1.294  14.363   1.086
 7345SOL     OW23931   9.925  13.720  10.243
 7345SOL    HW123932   9.978  13.764  10.310
 7345SOL    HW223933   9.857  13.675  10.293
 7346SOL     OW23934  11.584   9.987   8.159
 7346SOL    HW123935  11.538   9.979   8.076
 7346SOL    HW223936  11.549   9.916   8.213
 7347SOL     OW23937   9.095   0.725   3.029
 7347SOL    HW123938   9.137   0.811   3.022
 7347SOL    HW223939   9.146   0.668   2.971
 7348SOL     OW23940  13.007   3.987   3.593
 7348SOL    HW123941  13.015   3.931   3.670
 7348SOL    HW223942  13.024   3.929   3.518
 7349SOL     OW23943   1.856   9.684   6.741
 7349SOL    HW123944   1.785   9.731   6.784
 7349SOL    HW223945   1.825   9.594   6.734
 7350SOL     OW23946   8.832   7.223   4.246
 7350SOL    HW123947   8.918   7.227   4.288
 7350SOL    HW223948   8.794   7.140   4.278
 7351SOL     OW23949   7.422   5.834  14.681
 7351SOL    HW123950   7.457   5.777  14.750
 7351SOL    HW223951   7.469   5.808  14.602
 7352SOL     OW23952   7.177   0.713   8.725
 7352SOL    HW123953   7.105   0.692   8.667
 7352SOL    HW223954   7.171   0.650   8.796
 7353SOL     OW23955  13.352  13.190   1.261
 7353SOL    HW123956  13.268  13.203   1.215
 7353SOL    HW223957  13.331  13.132   1.333
 7354SOL     OW23958  11.114  10.658   6.924
 7354SOL    HW123959  11.182  10.607   6.880
 7354SOL    HW223960  11.099  10.611   7.006
 7355SOL     OW23961  13.395  14.867   6.932
 7355SOL    HW123962  13.444  14.878   6.850
 7355SOL    HW223963  13.387   0.073   6.968
 7356SOL     OW23964   5.448  11.804   0.825
 7356SOL    HW123965   5.464  11.806   0.731
 7356SOL    HW223966   5.502  11.876   0.860
 7357SOL     OW23967   3.748   3.930  10.131
 7357SOL    HW123968   3.655   3.917  10.149
 7357SOL    HW223969   3.754   3.935  10.036
 7358SOL     OW23970   6.509  11.991  10.457
 7358SOL    HW123971   6.567  12.048  10.405
 7358SOL    HW223972   6.541  12.001  10.547
 7359SOL     OW23973  14.572  12.098   8.701
 7359SOL    HW123974  14.544  12.020   8.652
 7359SOL    HW223975  14.620  12.150   8.636
 7360SOL     OW23976   6.771   8.951  13.808
 7360SOL    HW123977   6.802   8.882  13.749
 7360SOL    HW223978   6.800   8.924  13.895
 7361SOL     OW23979   4.099   3.262   9.844
 7361SOL    HW123980   4.176   3.272   9.901
 7361SOL    HW223981   4.037   3.326   9.877
 7362SOL     OW23982   8.688   9.400  11.329
 7362SOL    HW123983   8.736   9.480  11.352
 7362SOL    HW223984   8.665   9.411  11.237
 7363SOL     OW23985   3.593   3.930   0.300
 7363SOL    HW123986   3.687   3.941   0.315
 7363SOL    HW223987   3.587   3.866   0.229
 7364SOL     OW23988   1.084   8.222   3.522
 7364SOL    HW123989   1.067   8.129   3.504
 7364SOL    HW223990   1.143   8.250   3.452
 7365SOL     OW23991   8.109   3.723   5.122
 7365SOL    HW123992   8.152   3.809   5.116
 7365SOL    HW223993   8.181   3.660   5.125
 7366SOL     OW23994   7.470   7.259   3.533
 7366SOL    HW123995   7.558   7.296   3.521
 7366SOL    HW223996   7.481   7.165   3.515
 7367SOL     OW23997   3.059   7.483   9.778
 7367SOL    HW123998   3.137   7.428   9.776
 7367SOL    HW223999   3.028   7.478   9.869
 7368SOL     OW24000   4.321   6.097   1.021
 7368SOL    HW124001   4.327   6.164   1.089
 7368SOL    HW224002   4.396   6.040   1.037
 7369SOL     OW24003  12.079   8.829   1.884
 7369SOL    HW124004  12.000   8.881   1.870
 7369SOL    HW224005  12.054   8.741   1.857
 7370SOL     OW24006   3.689   1.980   9.002
 7370SOL    HW124007   3.715   2.012   9.088
 7370SOL    HW224008   3.675   1.886   9.015
 7371SOL     OW24009  13.184   7.141   2.039
 7371SOL    HW124010  13.243   7.133   1.964
 7371SOL    HW224011  13.225   7.207   2.095
 7372SOL     OW24012  13.427   7.966  11.350
 7372SOL    HW124013  13.422   7.999  11.260
 7372SOL    HW224014  13.519   7.942  11.362
 7373SOL     OW24015   0.372   3.068   4.222
 7373SOL    HW124016   0.277   3.080   4.218
 7373SOL    HW224017   0.405   3.110   4.142
 7374SOL     OW24018   1.017   1.231   9.205
 7374SOL    HW124019   0.965   1.261   9.129
 7374SOL    HW224020   1.001   1.137   9.209
 7375SOL     OW24021   7.788  12.711   4.089
 7375SOL    HW124022   7.756  12.652   4.020
 7375SOL    HW224023   7.879  12.685   4.102
 7376SOL     OW24024   5.555   9.845   5.359
 7376SOL    HW124025   5.643   9.817   5.331
 7376SOL    HW224026   5.498   9.814   5.288
 7377SOL     OW24027  13.163  10.879  10.026
 7377SOL    HW124028  13.164  10.839  10.112
 7377SOL    HW224029  13.080  10.926  10.022
 7378SOL     OW24030   3.404  14.087  10.306
 7378SOL    HW124031   3.318  14.130  10.307
 7378SOL    HW224032   3.411  14.052  10.218
 7379SOL     OW24033   8.183   4.017   8.637
 7379SOL    HW124034   8.114   4.072   8.675
 7379SOL    HW224035   8.215   3.964   8.710
 7380SOL     OW24036   3.743  13.638   5.578
 7380SOL    HW124037   3.653  13.622   5.549
 7380SOL    HW224038   3.758  13.574   5.648
 7381SOL     OW24039  10.818   6.419  10.674
 7381SOL    HW124040  10.872   6.463  10.740
 7381SOL    HW224041  10.745   6.480  10.660
 7382SOL     OW24042   3.401  14.555  10.263
 7382SOL    HW124043   3.309  14.581  10.258
 7382SOL    HW224044   3.421  14.554  10.356
 7383SOL     OW24045   4.758   0.562   5.857
 7383SOL    HW124046   4.743   0.495   5.924
 7383SOL    HW224047   4.811   0.629   5.902
 7384SOL     OW24048  10.104  14.364  11.851
 7384SOL    HW124049  10.036  14.297  11.843
 7384SOL    HW224050  10.109  14.405  11.765
 7385SOL     OW24051   2.870  10.892   3.543
 7385SOL    HW124052   2.861  10.987   3.534
 7385SOL    HW224053   2.780  10.861   3.557
 7386SOL     OW24054  13.470  13.854   6.867
 7386SOL    HW124055  13.511  13.923   6.815
 7386SOL    HW224056  13.377  13.876   6.867
 7387SOL     OW24057  13.765   3.649   4.425
 7387SOL    HW124058  13.695   3.625   4.486
 7387SOL    HW224059  13.724   3.714   4.367
 7388SOL     OW24060   8.740   5.178   0.389
 7388SOL    HW124061   8.774   5.260   0.426
 7388SOL    HW224062   8.815   5.138   0.345
 7389SOL     OW24063   2.801   0.615   4.115
 7389SOL    HW124064   2.785   0.639   4.024
 7389SOL    HW224065   2.805   0.698   4.162
 7390SOL     OW24066   7.944   3.664  13.708
 7390SOL    HW124067   7.856   3.685  13.677
 7390SOL    HW224068   8.003   3.705  13.645
 7391SOL     OW24069  11.484  10.988  14.492
 7391SOL    HW124070  11.431  10.913  14.519
 7391SOL    HW224071  11.507  10.968  14.401
 7392SOL     OW24072   3.473   0.079  13.344
 7392SOL    HW124073   3.459   0.041  13.431
 7392SOL    HW224074   3.426   0.021  13.284
 7393SOL     OW24075   2.222   7.881   2.376
 7393SOL    HW124076   2.190   7.968   2.399
 7393SOL    HW224077   2.202   7.872   2.283
 7394SOL     OW24078   3.237   1.414  14.534
 7394SOL    HW124079   3.296   1.392  14.462
 7394SOL    HW224080   3.258   1.504  14.556
 7395SOL     OW24081  11.373   8.490   1.753
 7395SOL    HW124082  11.330   8.408   1.729
 7395SOL    HW224083  11.320   8.525   1.825
 7396SOL     OW24084   2.081   2.372  11.733
 7396SOL    HW124085   2.143   2.316  11.686
 7396SOL    HW224086   2.060   2.442  11.671
 7397SOL     OW24087   4.585   8.804   4.485
 7397SOL    HW124088   4.551   8.856   4.412
 7397SOL    HW224089   4.673   8.779   4.458
 7398SOL     OW24090   4.039  10.361   0.479
 7398SOL    HW124091   4.021  10.340   0.388
 7398SOL    HW224092   4.125  10.403   0.477
 7399SOL     OW24093   5.074  13.052   8.054
 7399SOL    HW124094   4.989  13.073   8.093
 7399SOL    HW224095   5.058  13.054   7.959
 7400SOL     OW24096   6.468   9.423  13.656
 7400SOL    HW124097   6.476   9.357  13.586
 7400SOL    HW224098   6.382   9.407  13.694
 7401SOL     OW24099  12.750   7.657   0.755
 7401SOL    HW124100  12.832   7.698   0.782
 7401SOL    HW224101  12.690   7.730   0.743
 7402SOL     OW24102  11.389  13.430   0.372
 7402SOL    HW124103  11.354  13.449   0.286
 7402SOL    HW224104  11.323  13.374   0.413
 7403SOL     OW24105   0.290   8.456  11.081
 7403SOL    HW124106   0.294   8.361  11.080
 7403SOL    HW224107   0.215   8.477  11.137
 7404SOL     OW24108  11.883   2.742   3.600
 7404SOL    HW124109  11.815   2.678   3.621
 7404SOL    HW224110  11.955   2.720   3.660
 7405SOL     OW24111   7.683   2.727  14.079
 7405SOL    HW124112   7.628   2.770  14.014
 7405SOL    HW224113   7.693   2.792  14.148
 7406SOL     OW24114   0.578  13.656  13.353
 7406SOL    HW124115   0.656  13.705  13.377
 7406SOL    HW224116   0.605  13.603  13.278
 7407SOL     OW24117   3.772   8.990  10.002
 7407SOL    HW124118   3.757   9.085   9.999
 7407SOL    HW224119   3.798   8.968   9.912
 7408SOL     OW24120  13.601  11.163  11.625
 7408SOL    HW124121  13.609  11.077  11.584
 7408SOL    HW224122  13.669  11.216  11.583
 7409SOL     OW24123   5.079  13.256  13.060
 7409SOL    HW124124   4.994  13.214  13.050
 7409SOL    HW224125   5.059  13.345  13.087
 7410SOL     OW24126   8.027   0.496   0.225
 7410SOL    HW124127   8.033   0.400   0.216
 7410SOL    HW224128   7.990   0.509   0.312
 7411SOL     OW24129   8.385   0.809   7.082
 7411SOL    HW124130   8.438   0.873   7.036
 7411SOL    HW224131   8.296   0.824   7.050
 7412SOL     OW24132   4.919   0.819   7.100
 7412SOL    HW124133   4.957   0.734   7.123
 7412SOL    HW224134   4.908   0.815   7.005
 7413SOL     OW24135   7.374   0.607  10.006
 7413SOL    HW124136   7.358   0.575  10.095
 7413SOL    HW224137   7.310   0.560   9.952
 7414SOL     OW24138   2.108  10.889   6.640
 7414SOL    HW124139   2.062  10.905   6.557
 7414SOL    HW224140   2.048  10.835   6.691
 7415SOL     OW24141  13.997   8.697   9.017
 7415SOL    HW124142  13.941   8.710   9.093
 7415SOL    HW224143  14.010   8.785   8.981
 7416SOL     OW24144  12.751  12.343   1.284
 7416SOL    HW124145  12.816  12.356   1.353
 7416SOL    HW224146  12.800  12.350   1.202
 7417SOL     OW24147   0.837  14.067   7.368
 7417SOL    HW124148   0.751  14.045   7.404
 7417SOL    HW224149   0.835  14.162   7.356
 7418SOL     OW24150   0.995   6.473  12.264
 7418SOL    HW124151   0.995   6.520  12.347
 7418SOL    HW224152   1.065   6.513  12.213
 7419SOL     OW24153   3.835   6.541   2.032
 7419SOL    HW124154   3.777   6.469   2.054
 7419SOL    HW224155   3.809   6.567   1.943
 7420SOL     OW24156   4.259   8.974   9.629
 7420SOL    HW124157   4.231   9.043   9.569
 7420SOL    HW224158   4.354   8.982   9.632
 7421SOL     OW24159   3.513   6.277   9.943
 7421SOL    HW124160   3.580   6.339   9.914
 7421SOL    HW224161   3.441   6.287   9.881
 7422SOL     OW24162   1.330   6.887   2.528
 7422SOL    HW124163   1.402   6.878   2.591
 7422SOL    HW224164   1.254   6.850   2.573
 7423SOL     OW24165   5.201   4.617   0.167
 7423SOL    HW124166   5.232   4.678   0.100
 7423SOL    HW224167   5.273   4.613   0.231
 7424SOL     OW24168   8.394  13.110   5.064
 7424SOL    HW124169   8.367  13.038   5.122
 7424SOL    HW224170   8.477  13.081   5.026
 7425SOL     OW24171   4.834   4.590   4.806
 7425SOL    HW124172   4.828   4.643   4.886
 7425SOL    HW224173   4.908   4.627   4.758
 7426SOL     OW24174   8.757  11.345   6.419
 7426SOL    HW124175   8.749  11.350   6.324
 7426SOL    HW224176   8.756  11.251   6.438
 7427SOL     OW24177  13.668   3.987   7.066
 7427SOL    HW124178  13.705   3.954   6.984
 7427SOL    HW224179  13.661   4.082   7.053
 7428SOL     OW24180  12.373   4.668   9.201
 7428SOL    HW124181  12.405   4.677   9.112
 7428SOL    HW224182  12.306   4.736   9.210
 7429SOL     OW24183   2.119   6.312   2.938
 7429SOL    HW124184   2.109   6.258   2.860
 7429SOL    HW224185   2.076   6.262   3.008
 7430SOL     OW24186   4.059   9.382   6.911
 7430SOL    HW124187   4.036   9.319   6.843
 7430SOL    HW224188   4.139   9.424   6.879
 7431SOL     OW24189   9.973  11.539  13.446
 7431SOL    HW124190  10.029  11.616  13.437
 7431SOL    HW224191   9.908  11.547  13.376
 7432SOL     OW24192   1.706   6.517   6.590
 7432SOL    HW124193   1.734   6.466   6.666
 7432SOL    HW224194   1.611   6.522   6.597
 7433SOL     OW24195   9.111   2.824  13.543
 7433SOL    HW124196   9.177   2.756  13.529
 7433SOL    HW224197   9.154   2.905  13.517
 7434SOL     OW24198   7.135   8.566   6.509
 7434SOL    HW124199   7.207   8.508   6.534
 7434SOL    HW224200   7.152   8.647   6.558
 7435SOL     OW24201   6.230   1.361   5.567
 7435SOL    HW124202   6.198   1.451   5.571
 7435SOL    HW224203   6.151   1.308   5.554
 7436SOL     OW24204   0.870  14.560   3.463
 7436SOL    HW124205   0.933  14.490   3.447
 7436SOL    HW224206   0.813  14.526   3.532
 7437SOL     OW24207   9.455  14.724   7.918
 7437SOL    HW124208   9.514  14.718   7.842
 7437SOL    HW224209   9.467  14.813   7.950
 7438SOL     OW24210  11.325   6.799  14.795
 7438SOL    HW124211  11.260   6.862  14.764
 7438SOL    HW224212  11.324   6.729  14.730
 7439SOL     OW24213  14.469   1.079   2.121
 7439SOL    HW124214  14.562   1.064   2.103
 7439SOL    HW224215  14.435   1.117   2.040
 7440SOL     OW24216  14.270   4.048   7.480
 7440SOL    HW124217  14.307   4.126   7.520
 7440SOL    HW224218  14.189   4.031   7.529
 7441SOL     OW24219   6.671  12.321  14.879
 7441SOL    HW124220   6.690  12.289   0.085
 7441SOL    HW224221   6.706  12.254  14.820
 7442SOL     OW24222  12.097   8.718   9.949
 7442SOL    HW124223  12.099   8.622   9.947
 7442SOL    HW224224  12.137   8.744   9.865
 7443SOL     OW24225   9.890  12.695   1.543
 7443SOL    HW124226   9.912  12.702   1.450
 7443SOL    HW224227   9.826  12.624   1.547
 7444SOL     OW24228   1.347   5.694  11.185
 7444SOL    HW124229   1.341   5.706  11.279
 7444SOL    HW224230   1.284   5.755  11.148
 7445SOL     OW24231  10.087   0.412   1.452
 7445SOL    HW124232   9.993   0.411   1.467
 7445SOL    HW224233  10.107   0.324   1.418
 7446SOL     OW24234   8.177   9.709  11.904
 7446SOL    HW124235   8.175   9.657  11.824
 7446SOL    HW224236   8.216   9.792  11.878
 7447SOL     OW24237  11.918   2.187  10.267
 7447SOL    HW124238  11.886   2.247  10.335
 7447SOL    HW224239  11.999   2.151  10.303
 7448SOL     OW24240   1.152   6.451   1.546
 7448SOL    HW124241   1.229   6.394   1.541
 7448SOL    HW224242   1.080   6.397   1.513
 7449SOL     OW24243  12.282  11.080   7.322
 7449SOL    HW124244  12.353  11.019   7.301
 7449SOL    HW224245  12.312  11.165   7.289
 7450SOL     OW24246  12.595  12.838  10.470
 7450SOL    HW124247  12.548  12.904  10.418
 7450SOL    HW224248  12.684  12.838  10.434
 7451SOL     OW24249   9.113   5.422  12.062
 7451SOL    HW124250   9.169   5.367  12.007
 7451SOL    HW224251   9.075   5.486  12.001
 7452SOL     OW24252  13.186   8.135   2.328
 7452SOL    HW124253  13.101   8.093   2.321
 7452SOL    HW224254  13.199   8.148   2.422
 7453SOL     OW24255  11.455  12.895   4.637
 7453SOL    HW124256  11.506  12.821   4.669
 7453SOL    HW224257  11.516  12.968   4.635
 7454SOL     OW24258   6.925   0.931   8.538
 7454SOL    HW124259   6.851   0.988   8.557
 7454SOL    HW224260   6.886   0.853   8.501
 7455SOL     OW24261   8.457   0.694  12.344
 7455SOL    HW124262   8.500   0.685  12.429
 7455SOL    HW224263   8.529   0.704  12.281
 7456SOL     OW24264   8.509  14.858  14.095
 7456SOL    HW124265   8.538  14.767  14.103
 7456SOL    HW224266   8.559   0.010  14.020
 7457SOL     OW24267   0.618   7.412   1.668
 7457SOL    HW124268   0.545   7.466   1.698
 7457SOL    HW224269   0.615   7.334   1.724
 7458SOL     OW24270  14.607   4.134   5.298
 7458SOL    HW124271  14.700   4.154   5.285
 7458SOL    HW224272  14.594   4.051   5.253
 7459SOL     OW24273  11.327   9.646   4.715
 7459SOL    HW124274  11.318   9.606   4.802
 7459SOL    HW224275  11.410   9.614   4.682
 7460SOL     OW24276   6.290  13.867   2.053
 7460SOL    HW124277   6.201  13.868   2.018
 7460SOL    HW224278   6.306  13.958   2.079
 7461SOL     OW24279   1.527  13.744   0.972
 7461SOL    HW124280   1.607  13.692   0.969
 7461SOL    HW224281   1.469  13.694   1.030
 7462SOL     OW24282  11.579   8.793   7.320
 7462SOL    HW124283  11.517   8.855   7.281
 7462SOL    HW224284  11.610   8.740   7.246
 7463SOL     OW24285  11.031   8.894   2.650
 7463SOL    HW124286  10.959   8.954   2.670
 7463SOL    HW224287  11.023   8.825   2.716
 7464SOL     OW24288  11.143   7.826   0.253
 7464SOL    HW124289  11.144   7.756   0.188
 7464SOL    HW224290  11.166   7.905   0.203
 7465SOL     OW24291   6.788   1.059   8.049
 7465SOL    HW124292   6.801   1.148   8.082
 7465SOL    HW224293   6.778   1.070   7.954
 7466SOL     OW24294  13.261  11.924   6.754
 7466SOL    HW124295  13.311  12.004   6.767
 7466SOL    HW224296  13.193  11.947   6.691
 7467SOL     OW24297   1.891   3.820   6.575
 7467SOL    HW124298   1.936   3.798   6.494
 7467SOL    HW224299   1.949   3.881   6.620
 7468SOL     OW24300  12.158  13.921  12.959
 7468SOL    HW124301  12.076  13.922  12.909
 7468SOL    HW224302  12.175  13.828  12.975
 7469SOL     OW24303  14.270   2.510   4.820
 7469SOL    HW124304  14.196   2.519   4.880
 7469SOL    HW224305  14.331   2.452   4.867
 7470SOL     OW24306   2.669   4.901   6.616
 7470SOL    HW124307   2.662   4.950   6.534
 7470SOL    HW224308   2.602   4.939   6.673
 7471SOL     OW24309   1.686   8.642   2.441
 7471SOL    HW124310   1.613   8.690   2.404
 7471SOL    HW224311   1.735   8.707   2.491
 7472SOL     OW24312   8.862   4.284   5.021
 7472SOL    HW124313   8.926   4.216   5.001
 7472SOL    HW224314   8.899   4.364   4.983
 7473SOL     OW24315  10.846  14.222   7.032
 7473SOL    HW124316  10.938  14.207   7.052
 7473SOL    HW224317  10.805  14.237   7.117
 7474SOL     OW24318  10.436   1.140   6.788
 7474SOL    HW124319  10.371   1.142   6.718
 7474SOL    HW224320  10.519   1.160   6.744
 7475SOL     OW24321  12.509  11.317   2.712
 7475SOL    HW124322  12.541  11.383   2.651
 7475SOL    HW224323  12.514  11.358   2.798
 7476SOL     OW24324   6.663   9.401   0.324
 7476SOL    HW124325   6.699   9.343   0.391
 7476SOL    HW224326   6.730   9.469   0.313
 7477SOL     OW24327   1.757   7.232   4.275
 7477SOL    HW124328   1.771   7.323   4.300
 7477SOL    HW224329   1.689   7.201   4.335
 7478SOL     OW24330   9.193   4.510   4.826
 7478SOL    HW124331   9.104   4.528   4.858
 7478SOL    HW224332   9.244   4.493   4.906
 7479SOL     OW24333   5.061   5.267   2.111
 7479SOL    HW124334   5.023   5.332   2.170
 7479SOL    HW224335   5.143   5.306   2.081
 7480SOL     OW24336  11.889   8.164  13.999
 7480SOL    HW124337  11.919   8.097  13.938
 7480SOL    HW224338  11.928   8.139  14.083
 7481SOL     OW24339   4.857   5.885   1.018
 7481SOL    HW124340   4.849   5.814   0.954
 7481SOL    HW224341   4.820   5.848   1.098
 7482SOL     OW24342   9.373   9.582   9.938
 7482SOL    HW124343   9.361   9.543  10.025
 7482SOL    HW224344   9.406   9.670   9.956
 7483SOL     OW24345  10.148   2.540  11.050
 7483SOL    HW124346  10.214   2.489  11.097
 7483SOL    HW224347  10.084   2.564  11.117
 7484SOL     OW24348  12.492  10.410   2.117
 7484SOL    HW124349  12.505  10.502   2.095
 7484SOL    HW224350  12.429  10.412   2.189
 7485SOL     OW24351   6.761   2.172   1.722
 7485SOL    HW124352   6.834   2.218   1.763
 7485SOL    HW224353   6.711   2.241   1.679
 7486SOL     OW24354  12.163   1.438   8.251
 7486SOL    HW124355  12.126   1.394   8.175
 7486SOL    HW224356  12.106   1.412   8.324
 7487SOL     OW24357   1.180   1.872   8.668
 7487SOL    HW124358   1.156   1.816   8.741
 7487SOL    HW224359   1.129   1.953   8.681
 7488SOL     OW24360   9.028   1.817   9.001
 7488SOL    HW124361   8.965   1.833   8.931
 7488SOL    HW224362   9.113   1.837   8.961
 7489SOL     OW24363   8.921   0.014   6.334
 7489SOL    HW124364   8.877  14.829   6.281
 7489SOL    HW224365   8.861   0.030   6.407
 7490SOL     OW24366  13.927  11.387   0.956
 7490SOL    HW124367  13.844  11.434   0.961
 7490SOL    HW224368  13.902  11.297   0.935
 7491SOL     OW24369  12.890  12.236  13.623
 7491SOL    HW124370  12.937  12.153  13.619
 7491SOL    HW224371  12.913  12.280  13.541
 7492SOL     OW24372  14.779  13.885  14.683
 7492SOL    HW124373  14.854  13.879  14.624
 7492SOL    HW224374  14.818  13.895  14.770
 7493SOL     OW24375   9.801  11.783   2.336
 7493SOL    HW124376   9.877  11.763   2.282
 7493SOL    HW224377   9.771  11.698   2.368
 7494SOL     OW24378  12.939   4.100   7.742
 7494SOL    HW124379  12.911   4.186   7.772
 7494SOL    HW224380  12.908   4.040   7.809
 7495SOL     OW24381   0.107   7.679   6.312
 7495SOL    HW124382   0.185   7.689   6.257
 7495SOL    HW224383   0.119   7.742   6.382
 7496SOL     OW24384   6.288   1.597   2.887
 7496SOL    HW124385   6.274   1.632   2.799
 7496SOL    HW224386   6.375   1.558   2.884
 7497SOL     OW24387   9.682   4.702  10.501
 7497SOL    HW124388   9.773   4.674  10.510
 7497SOL    HW224389   9.682   4.793  10.530
 7498SOL     OW24390  10.061   3.892   8.097
 7498SOL    HW124391  10.152   3.921   8.104
 7498SOL    HW224392  10.022   3.953   8.034
 7499SOL     OW24393   5.851  12.372  10.713
 7499SOL    HW124394   5.813  12.305  10.769
 7499SOL    HW224395   5.823  12.455  10.752
 7500SOL     OW24396  13.121   4.823   4.808
 7500SOL    HW124397  13.088   4.739   4.778
 7500SOL    HW224398  13.118   4.879   4.731
 7501SOL     OW24399   4.373   6.763   9.519
 7501SOL    HW124400   4.298   6.766   9.579
 7501SOL    HW224401   4.379   6.671   9.494
 7502SOL     OW24402   2.219   6.948  11.169
 7502SOL    HW124403   2.144   6.931  11.112
 7502SOL    HW224404   2.183   6.997  11.243
 7503SOL     OW24405  12.648   1.955   4.560
 7503SOL    HW124406  12.700   1.882   4.525
 7503SOL    HW224407  12.560   1.920   4.571
 7504SOL     OW24408   1.922  12.008   0.689
 7504SOL    HW124409   1.943  11.955   0.765
 7504SOL    HW224410   2.006  12.040   0.657
 7505SOL     OW24411   2.086   5.213   2.481
 7505SOL    HW124412   2.094   5.216   2.577
 7505SOL    HW224413   2.034   5.134   2.464
 7506SOL     OW24414   8.607   8.720   4.530
 7506SOL    HW124415   8.666   8.698   4.602
 7506SOL    HW224416   8.665   8.733   4.455
 7507SOL     OW24417  12.786   0.244  11.385
 7507SOL    HW124418  12.787   0.163  11.334
 7507SOL    HW224419  12.788   0.313  11.319
 7508SOL     OW24420   0.152   8.174  12.541
 7508SOL    HW124421   0.076   8.174  12.599
 7508SOL    HW224422   0.197   8.091  12.561
 7509SOL     OW24423   5.174   1.889  11.393
 7509SOL    HW124424   5.154   1.796  11.386
 7509SOL    HW224425   5.100   1.926  11.442
 7510SOL     OW24426   2.218   1.435   4.980
 7510SOL    HW124427   2.176   1.364   4.930
 7510SOL    HW224428   2.237   1.502   4.915
 7511SOL     OW24429   2.856   1.239   3.509
 7511SOL    HW124430   2.849   1.246   3.605
 7511SOL    HW224431   2.950   1.233   3.493
 7512SOL     OW24432  13.700   7.819  11.986
 7512SOL    HW124433  13.763   7.850  12.051
 7512SOL    HW224434  13.663   7.899  11.949
 7513SOL     OW24435   1.573  10.504  11.148
 7513SOL    HW124436   1.527  10.474  11.226
 7513SOL    HW224437   1.521  10.470  11.075
 7514SOL     OW24438  14.782  14.069  11.566
 7514SOL    HW124439  14.689  14.071  11.544
 7514SOL    HW224440  14.789  14.007  11.639
 7515SOL     OW24441   8.509   4.335   9.324
 7515SOL    HW124442   8.589   4.323   9.273
 7515SOL    HW224443   8.533   4.399   9.391
 7516SOL     OW24444   6.069   7.160   5.960
 7516SOL    HW124445   6.144   7.149   6.018
 7516SOL    HW224446   5.999   7.191   6.017
 7517SOL     OW24447   1.147   2.480   5.526
 7517SOL    HW124448   1.145   2.575   5.538
 7517SOL    HW224449   1.059   2.457   5.497
 7518SOL     OW24450   1.688   0.202   8.126
 7518SOL    HW124451   1.627   0.274   8.145
 7518SOL    HW224452   1.769   0.228   8.170
 7519SOL     OW24453   2.512   3.038  11.504
 7519SOL    HW124454   2.547   2.965  11.556
 7519SOL    HW224455   2.431   3.003  11.467
 7520SOL     OW24456  11.903  12.528   1.562
 7520SOL    HW124457  11.958  12.590   1.515
 7520SOL    HW224458  11.821  12.527   1.513
 7521SOL     OW24459   2.474  12.498   6.362
 7521SOL    HW124460   2.468  12.594   6.359
 7521SOL    HW224461   2.384  12.468   6.354
 7522SOL     OW24462   0.918  12.385   0.238
 7522SOL    HW124463   0.916  12.443   0.162
 7522SOL    HW224464   0.984  12.423   0.296
 7523SOL     OW24465   3.123   2.277   4.848
 7523SOL    HW124466   3.070   2.290   4.926
 7523SOL    HW224467   3.128   2.182   4.838
 7524SOL     OW24468  11.281  11.460  12.319
 7524SOL    HW124469  11.241  11.393  12.263
 7524SOL    HW224470  11.246  11.443  12.406
 7525SOL     OW24471   7.995   5.834   3.105
 7525SOL    HW124472   7.989   5.930   3.112
 7525SOL    HW224473   8.075   5.819   3.056
 7526SOL     OW24474   1.185  13.204   2.285
 7526SOL    HW124475   1.176  13.190   2.380
 7526SOL    HW224476   1.133  13.134   2.246
 7527SOL     OW24477   0.465  12.204   4.326
 7527SOL    HW124478   0.389  12.237   4.373
 7527SOL    HW224479   0.480  12.117   4.363
 7528SOL     OW24480   0.205   2.910   4.967
 7528SOL    HW124481   0.210   2.976   5.037
 7528SOL    HW224482   0.199   2.961   4.887
 7529SOL     OW24483   5.712   0.529   5.111
 7529SOL    HW124484   5.695   0.544   5.204
 7529SOL    HW224485   5.625   0.525   5.071
 7530SOL     OW24486  11.925   3.753  12.712
 7530SOL    HW124487  12.014   3.754  12.748
 7530SOL    HW224488  11.935   3.716  12.624
 7531SOL     OW24489   1.480   1.618   6.058
 7531SOL    HW124490   1.542   1.668   6.006
 7531SOL    HW224491   1.472   1.534   6.012
 7532SOL     OW24492   3.533   8.967   6.539
 7532SOL    HW124493   3.440   8.946   6.538
 7532SOL    HW224494   3.571   8.914   6.469
 7533SOL     OW24495  13.779  13.496  13.695
 7533SOL    HW124496  13.820  13.448  13.623
 7533SOL    HW224497  13.779  13.434  13.768
 7534SOL     OW24498  12.167   8.436  10.252
 7534SOL    HW124499  12.189   8.351  10.215
 7534SOL    HW224500  12.083   8.458  10.213
 7535SOL     OW24501  13.791   6.319   9.161
 7535SOL    HW124502  13.867   6.304   9.105
 7535SOL    HW224503  13.785   6.240   9.215
 7536SOL     OW24504  11.223  12.697   3.303
 7536SOL    HW124505  11.304  12.692   3.253
 7536SOL    HW224506  11.232  12.776   3.357
 7537SOL     OW24507   6.851  10.887   1.037
 7537SOL    HW124508   6.914  10.936   0.984
 7537SOL    HW224509   6.894  10.877   1.122
 7538SOL     OW24510   0.008   1.155  10.519
 7538SOL    HW124511   0.006   1.082  10.580
 7538SOL    HW224512   0.088   1.141  10.467
 7539SOL     OW24513   8.326   4.439   2.673
 7539SOL    HW124514   8.369   4.518   2.708
 7539SOL    HW224515   8.342   4.444   2.579
 7540SOL     OW24516   1.708   7.080  11.922
 7540SOL    HW124517   1.664   6.995  11.917
 7540SOL    HW224518   1.688   7.122  11.838
 7541SOL     OW24519   2.848   5.794  13.209
 7541SOL    HW124520   2.825   5.887  13.204
 7541SOL    HW224521   2.765   5.748  13.193
 7542SOL     OW24522   4.194  10.620   6.162
 7542SOL    HW124523   4.289  10.622   6.173
 7542SOL    HW224524   4.170  10.530   6.182
 7543SOL     OW24525   6.413   1.347   0.842
 7543SOL    HW124526   6.341   1.383   0.893
 7543SOL    HW224527   6.372   1.311   0.763
 7544SOL     OW24528   0.002   5.391  13.113
 7544SOL    HW124529  14.791   5.385  13.132
 7544SOL    HW224530   0.044   5.353  13.190
 7545SOL     OW24531   0.435   7.168   3.933
 7545SOL    HW124532   0.466   7.235   3.994
 7545SOL    HW224533   0.515   7.127   3.901
 7546SOL     OW24534  12.637  14.071  11.839
 7546SOL    HW124535  12.598  14.158  11.828
 7546SOL    HW224536  12.731  14.087  11.834
 7547SOL     OW24537   8.349   4.335   9.673
 7547SOL    HW124538   8.256   4.328   9.694
 7547SOL    HW224539   8.370   4.254   9.627
 7548SOL     OW24540  10.307   9.027  13.054
 7548SOL    HW124541  10.220   9.002  13.025
 7548SOL    HW224542  10.292   9.094  13.121
 7549SOL     OW24543   0.811   4.046   2.315
 7549SOL    HW124544   0.843   3.961   2.285
 7549SOL    HW224545   0.888   4.103   2.312
 7550SOL     OW24546   3.561  14.459   8.251
 7550SOL    HW124547   3.573  14.483   8.343
 7550SOL    HW224548   3.648  14.464   8.212
 7551SOL     OW24549   4.958   8.946   5.390
 7551SOL    HW124550   5.023   8.945   5.320
 7551SOL    HW224551   5.007   8.976   5.467
 7552SOL     OW24552   7.830  10.927   5.243
 7552SOL    HW124553   7.845  10.980   5.321
 7552SOL    HW224554   7.811  10.991   5.174
 7553SOL     OW24555   1.575   3.452  10.638
 7553SOL    HW124556   1.509   3.521  10.633
 7553SOL    HW224557   1.529   3.373  10.609
 7554SOL     OW24558   2.477   3.344   5.761
 7554SOL    HW124559   2.504   3.387   5.842
 7554SOL    HW224560   2.385   3.322   5.774
 7555SOL     OW24561  12.050  14.260  12.018
 7555SOL    HW124562  11.987  14.331  12.028
 7555SOL    HW224563  11.997  14.184  11.993
 7556SOL     OW24564   9.382   0.054   3.104
 7556SOL    HW124565   9.345   0.045   3.192
 7556SOL    HW224566   9.418   0.143   3.103
 7557SOL     OW24567  14.876   5.484   5.439
 7557SOL    HW124568  14.869   5.515   5.529
 7557SOL    HW224569  14.822   5.544   5.389
 7558SOL     OW24570   0.792  14.872  14.454
 7558SOL    HW124571   0.757   0.041  14.526
 7558SOL    HW224572   0.884   0.014  14.448
 7559SOL     OW24573   4.442   9.804   7.163
 7559SOL    HW124574   4.452   9.740   7.233
 7559SOL    HW224575   4.531   9.825   7.138
 7560SOL     OW24576   8.547   7.976  13.107
 7560SOL    HW124577   8.506   7.915  13.045
 7560SOL    HW224578   8.548   8.060  13.061
 7561SOL     OW24579  11.376  11.235   4.969
 7561SOL    HW124580  11.359  11.145   4.999
 7561SOL    HW224581  11.440  11.270   5.030
 7562SOL     OW24582   9.291  12.867   0.550
 7562SOL    HW124583   9.339  12.869   0.468
 7562SOL    HW224584   9.201  12.843   0.526
 7563SOL     OW24585   4.039   7.459   1.660
 7563SOL    HW124586   4.021   7.477   1.752
 7563SOL    HW224587   3.979   7.517   1.612
 7564SOL     OW24588  10.436   1.068   8.005
 7564SOL    HW124589  10.486   1.022   7.938
 7564SOL    HW224590  10.350   1.083   7.965
 7565SOL     OW24591   7.622  13.130   3.150
 7565SOL    HW124592   7.650  13.219   3.170
 7565SOL    HW224593   7.554  13.111   3.215
 7566SOL     OW24594  11.387  13.065   9.302
 7566SOL    HW124595  11.396  13.084   9.209
 7566SOL    HW224596  11.296  13.087   9.322
 7567SOL     OW24597   0.746  13.797  11.894
 7567SOL    HW124598   0.699  13.763  11.818
 7567SOL    HW224599   0.825  13.837  11.858
 7568SOL     OW24600   3.266  10.061   8.697
 7568SOL    HW124601   3.323  10.013   8.637
 7568SOL    HW224602   3.314  10.059   8.781
 7569SOL     OW24603  13.567  14.113  10.428
 7569SOL    HW124604  13.657  14.081  10.431
 7569SOL    HW224605  13.533  14.098  10.516
 7570SOL     OW24606   2.172   7.120  13.146
 7570SOL    HW124607   2.249   7.177  13.145
 7570SOL    HW224608   2.104   7.174  13.188
 7571SOL     OW24609  13.540   2.433   6.284
 7571SOL    HW124610  13.570   2.476   6.364
 7571SOL    HW224611  13.577   2.485   6.213
 7572SOL     OW24612   0.823  11.912   8.863
 7572SOL    HW124613   0.733  11.879   8.859
 7572SOL    HW224614   0.875  11.837   8.891
 7573SOL     OW24615   3.037  10.277   7.079
 7573SOL    HW124616   2.998  10.322   7.154
 7573SOL    HW224617   3.070  10.195   7.115
 7574SOL     OW24618  12.657   5.948   5.837
 7574SOL    HW124619  12.600   6.004   5.890
 7574SOL    HW224620  12.745   5.966   5.869
 7575SOL     OW24621   2.643   6.733   4.112
 7575SOL    HW124622   2.712   6.672   4.087
 7575SOL    HW224623   2.614   6.702   4.198
 7576SOL     OW24624   0.787   5.375   5.540
 7576SOL    HW124625   0.845   5.304   5.569
 7576SOL    HW224626   0.833   5.455   5.562
 7577SOL     OW24627   9.105   8.674  12.298
 7577SOL    HW124628   9.183   8.725  12.319
 7577SOL    HW224629   9.133   8.583  12.309
 7578SOL     OW24630   2.879  13.484  13.047
 7578SOL    HW124631   2.970  13.467  13.023
 7578SOL    HW224632   2.829  13.459  12.969
 7579SOL     OW24633  13.034   8.932  13.231
 7579SOL    HW124634  12.973   8.986  13.182
 7579SOL    HW224635  13.105   8.992  13.254
 7580SOL     OW24636   6.937   4.809   6.057
 7580SOL    HW124637   6.863   4.825   6.116
 7580SOL    HW224638   6.907   4.739   5.999
 7581SOL     OW24639   9.808   5.993   8.700
 7581SOL    HW124640   9.836   5.915   8.652
 7581SOL    HW224641   9.713   5.992   8.693
 7582SOL     OW24642   7.393   2.246   6.092
 7582SOL    HW124643   7.453   2.250   6.018
 7582SOL    HW224644   7.399   2.156   6.124
 7583SOL     OW24645  10.370   6.579   7.115
 7583SOL    HW124646  10.358   6.603   7.207
 7583SOL    HW224647  10.316   6.641   7.067
 7584SOL     OW24648  12.621   5.060  14.021
 7584SOL    HW124649  12.529   5.048  14.045
 7584SOL    HW224650  12.649   4.975  13.987
 7585SOL     OW24651   3.052   2.938   3.154
 7585SOL    HW124652   3.032   2.977   3.069
 7585SOL    HW224653   2.976   2.960   3.208
 7586SOL     OW24654   6.740   5.865   9.362
 7586SOL    HW124655   6.647   5.841   9.356
 7586SOL    HW224656   6.786   5.781   9.368
 7587SOL     OW24657  10.236   6.600  14.388
 7587SOL    HW124658  10.245   6.511  14.420
 7587SOL    HW224659  10.237   6.655  14.466
 7588SOL     OW24660  12.305   1.098   0.999
 7588SOL    HW124661  12.319   1.006   1.022
 7588SOL    HW224662  12.280   1.140   1.081
 7589SOL     OW24663  14.848   3.424  12.388
 7589SOL    HW124664   0.055   3.387  12.389
 7589SOL    HW224665  14.862   3.519  12.381
 7590SOL     OW24666  10.761   1.729   7.330
 7590SOL    HW124667  10.824   1.712   7.260
 7590SOL    HW224668  10.693   1.783   7.288
 7591SOL     OW24669   3.979   0.859   3.889
 7591SOL    HW124670   4.056   0.879   3.834
 7591SOL    HW224671   3.925   0.938   3.884
 7592SOL     OW24672   5.220  10.608  12.994
 7592SOL    HW124673   5.238  10.573  12.907
 7592SOL    HW224674   5.233  10.534  13.053
 7593SOL     OW24675   9.261   7.840   1.289
 7593SOL    HW124676   9.308   7.845   1.205
 7593SOL    HW224677   9.271   7.927   1.327
 7594SOL     OW24678   3.911  14.319   7.448
 7594SOL    HW124679   3.837  14.296   7.503
 7594SOL    HW224680   3.931  14.410   7.471
 7595SOL     OW24681  14.466   7.141   5.203
 7595SOL    HW124682  14.394   7.153   5.142
 7595SOL    HW224683  14.484   7.047   5.200
 7596SOL     OW24684   3.451  11.821   1.861
 7596SOL    HW124685   3.455  11.879   1.937
 7596SOL    HW224686   3.417  11.738   1.896
 7597SOL     OW24687   6.564  13.785   9.752
 7597SOL    HW124688   6.660  13.789   9.754
 7597SOL    HW224689   6.541  13.807   9.662
 7598SOL     OW24690   5.958   4.372   6.205
 7598SOL    HW124691   5.908   4.319   6.266
 7598SOL    HW224692   6.048   4.367   6.238
 7599SOL     OW24693  11.270  11.797   6.701
 7599SOL    HW124694  11.249  11.773   6.791
 7599SOL    HW224695  11.293  11.714   6.659
 7600SOL     OW24696   9.399   3.892  11.453
 7600SOL    HW124697   9.490   3.902  11.427
 7600SOL    HW224698   9.369   3.814  11.405
 7601SOL     OW24699   7.984   0.214  10.003
 7601SOL    HW124700   8.051   0.258   9.951
 7601SOL    HW224701   7.902   0.253   9.974
 7602SOL     OW24702   1.495  13.544   1.381
 7602SOL    HW124703   1.506  13.511   1.291
 7602SOL    HW224704   1.585  13.560   1.411
 7603SOL     OW24705   5.064  13.901   1.520
 7603SOL    HW124706   5.034  13.816   1.488
 7603SOL    HW224707   5.011  13.965   1.471
 7604SOL     OW24708   7.172  13.071  11.694
 7604SOL    HW124709   7.233  13.017  11.744
 7604SOL    HW224710   7.100  13.012  11.672
 7605SOL     OW24711   5.458  11.805  10.242
 7605SOL    HW124712   5.364  11.788  10.246
 7605SOL    HW224713   5.487  11.802  10.333
 7606SOL     OW24714  10.740   9.052   4.475
 7606SOL    HW124715  10.753   9.107   4.552
 7606SOL    HW224716  10.779   8.967   4.499
 7607SOL     OW24717   4.921   1.824   7.803
 7607SOL    HW124718   4.863   1.879   7.855
 7607SOL    HW224719   5.008   1.862   7.815
 7608SOL     OW24720   7.967  14.621   9.047
 7608SOL    HW124721   7.997  14.691   8.989
 7608SOL    HW224722   7.940  14.550   8.988
 7609SOL     OW24723   9.299  14.839  13.101
 7609SOL    HW124724   9.305   0.048  13.070
 7609SOL    HW224725   9.290  14.847  13.196
 7610SOL     OW24726  13.520   6.753   9.576
 7610SOL    HW124727  13.491   6.834   9.534
 7610SOL    HW224728  13.601   6.777   9.622
 7611SOL     OW24729   4.792   3.192   6.959
 7611SOL    HW124730   4.783   3.262   6.895
 7611SOL    HW224731   4.704   3.178   6.992
 7612SOL     OW24732  12.601   0.827   1.389
 7612SOL    HW124733  12.665   0.882   1.435
 7612SOL    HW224734  12.637   0.818   1.301
 7613SOL     OW24735   2.179   9.937  13.561
 7613SOL    HW124736   2.124   9.890  13.623
 7613SOL    HW224737   2.159   9.898  13.476
 7614SOL     OW24738   1.289  10.695  10.250
 7614SOL    HW124739   1.237  10.767  10.284
 7614SOL    HW224740   1.248  10.673  10.166
 7615SOL     OW24741  14.252   0.217  13.647
 7615SOL    HW124742  14.210   0.260  13.722
 7615SOL    HW224743  14.223   0.126  13.652
 7616SOL     OW24744  11.399   0.710   9.553
 7616SOL    HW124745  11.486   0.726   9.515
 7616SOL    HW224746  11.399   0.617   9.575
 7617SOL     OW24747  11.996   2.264   8.700
 7617SOL    HW124748  12.053   2.196   8.733
 7617SOL    HW224749  11.909   2.242   8.734
 7618SOL     OW24750   8.841   8.107   1.309
 7618SOL    HW124751   8.879   8.066   1.231
 7618SOL    HW224752   8.842   8.038   1.375
 7619SOL     OW24753  11.211   8.640   2.586
 7619SOL    HW124754  11.257   8.629   2.669
 7619SOL    HW224755  11.176   8.729   2.590
 7620SOL     OW24756   4.213  12.960   8.849
 7620SOL    HW124757   4.196  13.029   8.913
 7620SOL    HW224758   4.166  12.884   8.882
 7621SOL     OW24759  12.518   1.178   6.420
 7621SOL    HW124760  12.537   1.246   6.484
 7621SOL    HW224761  12.567   1.204   6.342
 7622SOL     OW24762  12.332   5.966   1.304
 7622SOL    HW124763  12.346   6.008   1.389
 7622SOL    HW224764  12.338   5.872   1.322
 7623SOL     OW24765   3.336  10.053   8.348
 7623SOL    HW124766   3.392  10.043   8.271
 7623SOL    HW224767   3.368   9.987   8.410
 7624SOL     OW24768  14.854   3.335   4.130
 7624SOL    HW124769  14.786   3.271   4.107
 7624SOL    HW224770  14.824   3.417   4.092
 7625SOL     OW24771  12.530   4.006  12.810
 7625SOL    HW124772  12.607   3.978  12.859
 7625SOL    HW224773  12.565   4.035  12.725
 7626SOL     OW24774  10.557   6.716   6.405
 7626SOL    HW124775  10.463   6.710   6.390
 7626SOL    HW224776  10.578   6.808   6.391
 7627SOL     OW24777   4.007   3.189  13.428
 7627SOL    HW124778   3.927   3.213  13.476
 7627SOL    HW224779   4.076   3.189  13.494
 7628SOL     OW24780   0.048   4.203   2.661
 7628SOL    HW124781   0.107   4.206   2.736
 7628SOL    HW224782   0.019   4.294   2.650
 7629SOL     OW24783  14.238   0.098   7.250
 7629SOL    HW124784  14.304   0.086   7.319
 7629SOL    HW224785  14.286   0.139   7.178
 7630SOL     OW24786   9.640  14.511   1.266
 7630SOL    HW124787   9.553  14.533   1.232
 7630SOL    HW224788   9.650  14.418   1.243
 7631SOL     OW24789  11.210  11.152  14.344
 7631SOL    HW124790  11.290  11.202  14.361
 7631SOL    HW224791  11.140  11.216  14.351
 7632SOL     OW24792  14.560  12.494   0.583
 7632SOL    HW124793  14.496  12.427   0.607
 7632SOL    HW224794  14.633  12.481   0.643
 7633SOL     OW24795   2.912   4.287   2.138
 7633SOL    HW124796   2.836   4.232   2.155
 7633SOL    HW224797   2.987   4.232   2.161
 7634SOL     OW24798   5.122  10.144   2.781
 7634SOL    HW124799   5.155  10.059   2.753
 7634SOL    HW224800   5.173  10.166   2.859
 7635SOL     OW24801   2.138   2.139   9.890
 7635SOL    HW124802   2.173   2.050   9.890
 7635SOL    HW224803   2.151   2.171   9.801
 7636SOL     OW24804   3.284  12.422  11.658
 7636SOL    HW124805   3.365  12.470  11.642
 7636SOL    HW224806   3.296  12.383  11.745
 7637SOL     OW24807  12.322   6.828   1.354
 7637SOL    HW124808  12.312   6.908   1.302
 7637SOL    HW224809  12.415   6.808   1.351
 7638SOL     OW24810   0.488  10.173   9.799
 7638SOL    HW124811   0.512  10.105   9.862
 7638SOL    HW224812   0.567  10.185   9.746
 7639SOL     OW24813  12.696  10.934  14.319
 7639SOL    HW124814  12.658  10.955  14.405
 7639SOL    HW224815  12.653  10.994  14.258
 7640SOL     OW24816  12.238   7.098  10.695
 7640SOL    HW124817  12.229   7.180  10.647
 7640SOL    HW224818  12.247   7.032  10.626
 7641SOL     OW24819  14.334   5.383   3.629
 7641SOL    HW124820  14.331   5.360   3.722
 7641SOL    HW224821  14.278   5.318   3.587
 7642SOL     OW24822   1.308   1.058  12.982
 7642SOL    HW124823   1.213   1.064  12.985
 7642SOL    HW224824   1.327   0.968  13.008
 7643SOL     OW24825  12.884  12.856   4.982
 7643SOL    HW124826  12.971  12.816   4.975
 7643SOL    HW224827  12.891  12.936   4.930
 7644SOL     OW24828   3.594   4.507  10.320
 7644SOL    HW124829   3.643   4.549  10.391
 7644SOL    HW224830   3.516   4.471  10.362
 7645SOL     OW24831   5.942   2.208   8.092
 7645SOL    HW124832   5.986   2.293   8.094
 7645SOL    HW224833   6.005   2.150   8.048
 7646SOL     OW24834   7.040  12.621  11.759
 7646SOL    HW124835   7.133  12.602  11.771
 7646SOL    HW224836   6.994  12.550  11.803
 7647SOL     OW24837   7.859   9.636   9.005
 7647SOL    HW124838   7.930   9.579   8.977
 7647SOL    HW224839   7.825   9.595   9.085
 7648SOL     OW24840   1.200   7.757   0.222
 7648SOL    HW124841   1.224   7.695   0.291
 7648SOL    HW224842   1.158   7.703   0.155
 7649SOL     OW24843   5.919   5.983   1.060
 7649SOL    HW124844   5.882   6.026   1.137
 7649SOL    HW224845   6.007   5.956   1.088
 7650SOL     OW24846   7.700   1.917   9.723
 7650SOL    HW124847   7.731   1.886   9.638
 7650SOL    HW224848   7.651   1.844   9.759
 7651SOL     OW24849  13.644   1.237   4.027
 7651SOL    HW124850  13.593   1.272   3.954
 7651SOL    HW224851  13.735   1.243   3.998
 7652SOL     OW24852   1.369   7.239  11.836
 7652SOL    HW124853   1.308   7.313  11.840
 7652SOL    HW224854   1.377   7.210  11.927
 7653SOL     OW24855   8.347   0.314   4.518
 7653SOL    HW124856   8.347   0.233   4.569
 7653SOL    HW224857   8.397   0.376   4.571
 7654SOL     OW24858   9.392   5.311   4.195
 7654SOL    HW124859   9.377   5.397   4.236
 7654SOL    HW224860   9.305   5.270   4.194
 7655SOL     OW24861   5.280  14.689   1.811
 7655SOL    HW124862   5.284  14.699   1.906
 7655SOL    HW224863   5.248  14.774   1.780
 7656SOL     OW24864   4.931   4.930   1.398
 7656SOL    HW124865   4.842   4.897   1.404
 7656SOL    HW224866   4.929   4.992   1.325
 7657SOL     OW24867  12.831  14.777  13.507
 7657SOL    HW124868  12.813  14.868  13.485
 7657SOL    HW224869  12.893  14.749  13.439
 7658SOL     OW24870   7.310  12.403   7.376
 7658SOL    HW124871   7.387  12.409   7.433
 7658SOL    HW224872   7.239  12.438   7.430
 7659SOL     OW24873   5.903   1.807  10.578
 7659SOL    HW124874   5.833   1.791  10.514
 7659SOL    HW224875   5.857   1.832  10.658
 7660SOL     OW24876   6.475   3.078   5.522
 7660SOL    HW124877   6.520   3.163   5.515
 7660SOL    HW224878   6.545   3.016   5.542
 7661SOL     OW24879   6.218  13.465   9.136
 7661SOL    HW124880   6.159  13.524   9.090
 7661SOL    HW224881   6.235  13.508   9.220
 7662SOL     OW24882   1.594   8.515   3.188
 7662SOL    HW124883   1.676   8.562   3.172
 7662SOL    HW224884   1.615   8.457   3.262
 7663SOL     OW24885   4.370   5.771   9.387
 7663SOL    HW124886   4.423   5.739   9.314
 7663SOL    HW224887   4.331   5.693   9.425
 7664SOL     OW24888   5.715   5.086  10.839
 7664SOL    HW124889   5.703   5.180  10.822
 7664SOL    HW224890   5.795   5.081  10.891
 7665SOL     OW24891   4.897   6.930   5.349
 7665SOL    HW124892   4.948   6.907   5.271
 7665SOL    HW224893   4.808   6.946   5.315
 7666SOL     OW24894   5.127   7.901  11.856
 7666SOL    HW124895   5.115   7.994  11.837
 7666SOL    HW224896   5.068   7.856  11.796
 7667SOL     OW24897   4.100   6.918  13.316
 7667SOL    HW124898   4.006   6.913  13.329
 7667SOL    HW224899   4.136   6.849  13.372
 7668SOL     OW24900   4.403   3.124   0.947
 7668SOL    HW124901   4.386   3.197   0.889
 7668SOL    HW224902   4.419   3.050   0.888
 7669SOL     OW24903  10.482   3.552   0.050
 7669SOL    HW124904  10.475   3.627  14.873
 7669SOL    HW224905  10.473   3.476  14.874
 7670SOL     OW24906   0.350   3.887   4.996
 7670SOL    HW124907   0.336   3.794   4.980
 7670SOL    HW224908   0.297   3.931   4.929
 7671SOL     OW24909   5.133  13.752  13.605
 7671SOL    HW124910   5.180  13.694  13.545
 7671SOL    HW224911   5.072  13.694  13.651
 7672SOL     OW24912   6.952   7.413   7.388
 7672SOL    HW124913   7.026   7.426   7.447
 7672SOL    HW224914   6.961   7.322   7.358
 7673SOL     OW24915   9.427  11.705  10.893
 7673SOL    HW124916   9.344  11.741  10.924
 7673SOL    HW224917   9.494  11.744  10.950
 7674SOL     OW24918  12.874   8.053   8.629
 7674SOL    HW124919  12.794   8.066   8.679
 7674SOL    HW224920  12.885   8.134   8.579
 7675SOL     OW24921   0.462  11.975   9.656
 7675SOL    HW124922   0.462  12.016   9.742
 7675SOL    HW224923   0.381  12.005   9.615
 7676SOL     OW24924   3.577   9.554   4.094
 7676SOL    HW124925   3.608   9.580   4.007
 7676SOL    HW224926   3.485   9.530   4.080
 7677SOL     OW24927   1.724  10.162  11.427
 7677SOL    HW124928   1.633  10.167  11.456
 7677SOL    HW224929   1.722  10.106  11.350
 7678SOL     OW24930   9.846  12.911   3.996
 7678SOL    HW124931   9.827  12.967   4.071
 7678SOL    HW224932   9.797  12.949   3.924
 7679SOL     OW24933  10.434  11.406   6.758
 7679SOL    HW124934  10.375  11.334   6.781
 7679SOL    HW224935  10.449  11.452   6.841
 7680SOL     OW24936   5.147   8.659   2.321
 7680SOL    HW124937   5.171   8.590   2.259
 7680SOL    HW224938   5.060   8.635   2.352
 7681SOL     OW24939   7.110  14.430  11.731
 7681SOL    HW124940   7.094  14.525  11.734
 7681SOL    HW224941   7.185  14.418  11.789
 7682SOL     OW24942  11.128   4.516   3.472
 7682SOL    HW124943  11.151   4.508   3.379
 7682SOL    HW224944  11.100   4.607   3.482
 7683SOL     OW24945  14.170   4.481   4.985
 7683SOL    HW124946  14.157   4.492   5.079
 7683SOL    HW224947  14.131   4.559   4.946
 7684SOL     OW24948   0.350  10.286  13.815
 7684SOL    HW124949   0.402  10.253  13.742
 7684SOL    HW224950   0.414  10.304  13.884
 7685SOL     OW24951  13.405   6.954   9.851
 7685SOL    HW124952  13.322   6.931   9.893
 7685SOL    HW224953  13.451   6.871   9.842
 7686SOL     OW24954   9.362  14.412   7.791
 7686SOL    HW124955   9.375  14.464   7.870
 7686SOL    HW224956   9.308  14.468   7.735
 7687SOL     OW24957   5.889  14.016   5.505
 7687SOL    HW124958   5.823  14.076   5.539
 7687SOL    HW224959   5.889  13.943   5.566
 7688SOL     OW24960  12.596  13.303   0.611
 7688SOL    HW124961  12.617  13.253   0.690
 7688SOL    HW224962  12.642  13.386   0.622
 7689SOL     OW24963  11.975   5.647   7.732
 7689SOL    HW124964  11.948   5.642   7.824
 7689SOL    HW224965  11.960   5.558   7.698
 7690SOL     OW24966  13.532  13.668   1.982
 7690SOL    HW124967  13.619  13.706   1.995
 7690SOL    HW224968  13.538  13.622   1.899
 7691SOL     OW24969   8.954   7.054  13.628
 7691SOL    HW124970   9.012   7.053  13.704
 7691SOL    HW224971   8.868   7.075  13.664
 7692SOL     OW24972  12.446  14.874   1.635
 7692SOL    HW124973  12.423  14.848   1.546
 7692SOL    HW224974  12.370  14.848   1.688
 7693SOL     OW24975  13.755   2.420  10.245
 7693SOL    HW124976  13.767   2.333  10.285
 7693SOL    HW224977  13.701   2.403  10.168
 7694SOL     OW24978  10.955   2.794   7.999
 7694SOL    HW124979  10.920   2.868   7.949
 7694SOL    HW224980  10.993   2.736   7.933
 7695SOL     OW24981   7.941   2.765   4.424
 7695SOL    HW124982   7.926   2.847   4.376
 7695SOL    HW224983   8.012   2.786   4.485
 7696SOL     OW24984   1.973   9.669   7.920
 7696SOL    HW124985   2.036   9.603   7.890
 7696SOL    HW224986   1.908   9.674   7.850
 7697SOL     OW24987   0.171   8.171  11.353
 7697SOL    HW124988   0.122   8.226  11.291
 7697SOL    HW224989   0.246   8.140  11.303
 7698SOL     OW24990  10.715   9.173   6.472
 7698SOL    HW124991  10.636   9.142   6.429
 7698SOL    HW224992  10.775   9.098   6.469
 7699SOL     OW24993  13.305  13.323   7.051
 7699SOL    HW124994  13.387  13.367   7.072
 7699SOL    HW224995  13.287  13.347   6.960
 7700SOL     OW24996  10.344   5.457   1.936
 7700SOL    HW124997  10.268   5.407   1.965
 7700SOL    HW224998  10.309   5.545   1.920
 7701SOL     OW24999   2.327  13.873  13.037
 7701SOL    HW125000   2.295  13.809  13.101
 7701SOL    HW225001   2.389  13.824  12.983
 7702SOL     OW25002   1.093   1.647   9.226
 7702SOL    HW125003   1.189   1.645   9.226
 7702SOL    HW225004   1.068   1.569   9.276
 7703SOL     OW25005   2.843   1.482  13.125
 7703SOL    HW125006   2.896   1.419  13.076
 7703SOL    HW225007   2.873   1.474  13.216
 7704SOL     OW25008   9.895  14.515  11.014
 7704SOL    HW125009   9.836  14.557  11.077
 7704SOL    HW225010   9.982  14.541  11.043
 7705SOL     OW25011   1.966   3.665   6.081
 7705SOL    HW125012   1.966   3.629   5.993
 7705SOL    HW225013   1.874   3.685   6.099
 7706SOL     OW25014   3.956  14.343   9.531
 7706SOL    HW125015   3.934  14.283   9.603
 7706SOL    HW225016   4.042  14.377   9.553
 7707SOL     OW25017  12.230  14.786  13.293
 7707SOL    HW125018  12.323  14.804  13.275
 7707SOL    HW225019  12.202  14.859  13.349
 7708SOL     OW25020   0.317  11.011   3.849
 7708SOL    HW125021   0.398  11.062   3.852
 7708SOL    HW225022   0.284  11.024   3.759
 7709SOL     OW25023  12.276  13.802  13.364
 7709SOL    HW125024  12.214  13.732  13.386
 7709SOL    HW225025  12.319  13.823  13.447
 7710SOL     OW25026   9.797   6.882   8.965
 7710SOL    HW125027   9.861   6.945   8.998
 7710SOL    HW225028   9.844   6.799   8.963
 7711SOL     OW25029   6.690   0.538   9.015
 7711SOL    HW125030   6.690   0.582   9.100
 7711SOL    HW225031   6.713   0.447   9.035
 7712SOL     OW25032   3.330   2.774   5.598
 7712SOL    HW125033   3.283   2.821   5.529
 7712SOL    HW225034   3.409   2.826   5.614
 7713SOL     OW25035   8.064   3.204   9.460
 7713SOL    HW125036   8.020   3.119   9.462
 7713SOL    HW225037   8.098   3.215   9.549
 7714SOL     OW25038  12.496   4.424   1.431
 7714SOL    HW125039  12.522   4.377   1.510
 7714SOL    HW225040  12.544   4.382   1.360
 7715SOL     OW25041   0.592  10.780   5.936
 7715SOL    HW125042   0.560  10.863   5.901
 7715SOL    HW225043   0.599  10.722   5.860
 7716SOL     OW25044  12.419   0.784   5.137
 7716SOL    HW125045  12.493   0.798   5.196
 7716SOL    HW225046  12.361   0.859   5.152
 7717SOL     OW25047   8.218  10.103   0.398
 7717SOL    HW125048   8.135  10.055   0.400
 7717SOL    HW225049   8.216  10.149   0.314
 7718SOL     OW25050   3.501   1.412   1.397
 7718SOL    HW125051   3.452   1.438   1.475
 7718SOL    HW225052   3.529   1.495   1.357
 7719SOL     OW25053   2.854  13.868   9.766
 7719SOL    HW125054   2.777  13.907   9.724
 7719SOL    HW225055   2.922  13.869   9.699
 7720SOL     OW25056  12.389  14.599   0.554
 7720SOL    HW125057  12.359  14.678   0.598
 7720SOL    HW225058  12.309  14.547   0.541
 7721SOL     OW25059   3.491   7.267   5.907
 7721SOL    HW125060   3.559   7.332   5.920
 7721SOL    HW225061   3.485   7.221   5.990
 7722SOL     OW25062   9.574   6.196   7.600
 7722SOL    HW125063   9.505   6.163   7.658
 7722SOL    HW225064   9.528   6.256   7.541
 7723SOL     OW25065   5.841  11.510  14.309
 7723SOL    HW125066   5.883  11.437  14.264
 7723SOL    HW225067   5.914  11.563  14.342
 7724SOL     OW25068  13.794   7.661  14.662
 7724SOL    HW125069  13.772   7.675  14.569
 7724SOL    HW225070  13.717   7.691  14.709
 7725SOL     OW25071  10.416   6.824   2.912
 7725SOL    HW125072  10.403   6.793   2.822
 7725SOL    HW225073  10.401   6.747   2.966
 7726SOL     OW25074  13.124   8.183  12.884
 7726SOL    HW125075  13.198   8.157  12.829
 7726SOL    HW225076  13.048   8.173  12.827
 7727SOL     OW25077  13.966   9.794  13.830
 7727SOL    HW125078  13.967   9.846  13.750
 7727SOL    HW225079  13.925   9.851  13.895
 7728SOL     OW25080   8.560  14.783  13.412
 7728SOL    HW125081   8.569  14.736  13.329
 7728SOL    HW225082   8.466  14.794  13.424
 7729SOL     OW25083   1.075   5.274  12.907
 7729SOL    HW125084   1.128   5.195  12.906
 7729SOL    HW225085   0.986   5.244  12.886
 7730SOL     OW25086  13.440   0.762  12.518
 7730SOL    HW125087  13.441   0.690  12.581
 7730SOL    HW225088  13.348   0.773  12.495
 7731SOL     OW25089   3.269   2.637   6.771
 7731SOL    HW125090   3.178   2.624   6.800
 7731SOL    HW225091   3.322   2.596   6.840
 7732SOL     OW25092  12.352  11.389   5.178
 7732SOL    HW125093  12.265  11.360   5.205
 7732SOL    HW225094  12.345  11.484   5.173
 7733SOL     OW25095  10.372   2.215   8.416
 7733SOL    HW125096  10.455   2.169   8.423
 7733SOL    HW225097  10.387   2.283   8.350
 7734SOL     OW25098   2.397   6.351   2.727
 7734SOL    HW125099   2.431   6.337   2.639
 7734SOL    HW225100   2.465   6.403   2.771
 7735SOL     OW25101   6.374   8.398   9.963
 7735SOL    HW125102   6.391   8.319  10.014
 7735SOL    HW225103   6.383   8.469  10.027
 7736SOL     OW25104  12.434  12.472   2.825
 7736SOL    HW125105  12.478  12.468   2.910
 7736SOL    HW225106  12.341  12.474   2.846
 7737SOL     OW25107  10.493   1.359   0.229
 7737SOL    HW125108  10.483   1.339   0.322
 7737SOL    HW225109  10.428   1.427   0.212
 7738SOL     OW25110  11.469   3.024   6.892
 7738SOL    HW125111  11.429   2.943   6.925
 7738SOL    HW225112  11.450   3.089   6.959
 7739SOL     OW25113   5.275   9.359  14.479
 7739SOL    HW125114   5.324   9.277  14.487
 7739SOL    HW225115   5.191   9.340  14.521
 7740SOL     OW25116  14.539  14.404   0.340
 7740SOL    HW125117  14.516  14.344   0.269
 7740SOL    HW225118  14.627  14.433   0.318
 7741SOL     OW25119   5.093  13.413  11.772
 7741SOL    HW125120   5.024  13.477  11.784
 7741SOL    HW225121   5.154  13.454  11.710
 7742SOL     OW25122   6.893  11.619   6.903
 7742SOL    HW125123   6.946  11.638   6.981
 7742SOL    HW225124   6.907  11.525   6.888
 7743SOL     OW25125   8.635  14.481   2.148
 7743SOL    HW125126   8.601  14.408   2.095
 7743SOL    HW225127   8.572  14.552   2.135
 7744SOL     OW25128   0.004  12.345   1.595
 7744SOL    HW125129   0.094  12.341   1.563
 7744SOL    HW225130  14.833  12.340   1.515
 7745SOL     OW25131  13.551   3.625   3.242
 7745SOL    HW125132  13.529   3.630   3.149
 7745SOL    HW225133  13.642   3.652   3.247
 7746SOL     OW25134  10.532   0.074  11.538
 7746SOL    HW125135  10.472   0.148  11.526
 7746SOL    HW225136  10.592   0.080  11.464
 7747SOL     OW25137   7.089   3.976  12.193
 7747SOL    HW125138   7.038   4.047  12.156
 7747SOL    HW225139   7.154   4.020  12.248
 7748SOL     OW25140   9.473   8.387   3.826
 7748SOL    HW125141   9.442   8.453   3.763
 7748SOL    HW225142   9.483   8.435   3.908
 7749SOL     OW25143   5.431   4.046  10.231
 7749SOL    HW125144   5.455   4.139  10.239
 7749SOL    HW225145   5.512   3.999  10.254
 7750SOL     OW25146   7.192  11.330  13.507
 7750SOL    HW125147   7.175  11.237  13.523
 7750SOL    HW225148   7.106  11.366  13.486
 7751SOL     OW25149  12.029  11.961   3.226
 7751SOL    HW125150  11.999  11.904   3.296
 7751SOL    HW225151  12.010  12.050   3.257
 7752SOL     OW25152   7.212   4.788  11.249
 7752SOL    HW125153   7.224   4.773  11.155
 7752SOL    HW225154   7.230   4.703  11.290
 7753SOL     OW25155   1.112   3.906   7.878
 7753SOL    HW125156   1.094   3.886   7.970
 7753SOL    HW225157   1.127   4.001   7.877
 7754SOL     OW25158   2.027   9.330   9.645
 7754SOL    HW125159   1.941   9.306   9.678
 7754SOL    HW225160   2.010   9.372   9.561
 7755SOL     OW25161   5.297   5.165   0.712
 7755SOL    HW125162   5.315   5.075   0.687
 7755SOL    HW225163   5.261   5.160   0.800
 7756SOL     OW25164   9.851   1.735  12.397
 7756SOL    HW125165   9.784   1.803  12.395
 7756SOL    HW225166   9.852   1.706  12.489
 7757SOL     OW25167   7.950   8.176   3.281
 7757SOL    HW125168   7.949   8.081   3.266
 7757SOL    HW225169   7.990   8.213   3.202
 7758SOL     OW25170   2.814   6.393  14.277
 7758SOL    HW125171   2.777   6.481  14.271
 7758SOL    HW225172   2.882   6.391  14.210
 7759SOL     OW25173   4.897   5.591   3.212
 7759SOL    HW125174   4.933   5.511   3.174
 7759SOL    HW225175   4.817   5.563   3.256
 7760SOL     OW25176  11.604  14.612  13.529
 7760SOL    HW125177  11.631  14.550  13.596
 7760SOL    HW225178  11.527  14.572  13.489
 7761SOL     OW25179  14.201   4.860   2.521
 7761SOL    HW125180  14.289   4.883   2.550
 7761SOL    HW225181  14.211   4.835   2.429
 7762SOL     OW25182  13.542   1.683   4.022
 7762SOL    HW125183  13.612   1.619   4.018
 7762SOL    HW225184  13.520   1.701   3.931
 7763SOL     OW25185   5.656  10.229   5.709
 7763SOL    HW125186   5.603  10.157   5.675
 7763SOL    HW225187   5.679  10.202   5.798
 7764SOL     OW25188   9.851  11.201  10.219
 7764SOL    HW125189   9.886  11.279  10.176
 7764SOL    HW225190   9.804  11.154  10.149
 7765SOL     OW25191   8.079   1.622   1.024
 7765SOL    HW125192   7.995   1.661   1.002
 7765SOL    HW225193   8.058   1.554   1.088
 7766SOL     OW25194   3.081   4.925   6.984
 7766SOL    HW125195   3.173   4.952   6.985
 7766SOL    HW225196   3.058   4.918   6.891
 7767SOL     OW25197   0.612  11.040   8.011
 7767SOL    HW125198   0.564  11.123   8.020
 7767SOL    HW225199   0.545  10.973   8.019
 7768SOL     OW25200   9.397   7.975  13.050
 7768SOL    HW125201   9.420   7.935  13.134
 7768SOL    HW225202   9.473   8.028  13.027
 7769SOL     OW25203   1.715  13.627   9.059
 7769SOL    HW125204   1.646  13.570   9.095
 7769SOL    HW225205   1.736  13.587   8.974
 7770SOL     OW25206   9.458   4.484   1.507
 7770SOL    HW125207   9.397   4.463   1.436
 7770SOL    HW225208   9.493   4.399   1.534
 7771SOL     OW25209  14.681   0.387   7.137
 7771SOL    HW125210  14.621   0.326   7.180
 7771SOL    HW225211  14.670   0.469   7.184
 7772SOL     OW25212   3.615   3.347   4.466
 7772SOL    HW125213   3.686   3.284   4.474
 7772SOL    HW225214   3.659   3.432   4.462
 7773SOL     OW25215   0.131   2.403  13.621
 7773SOL    HW125216   0.039   2.429  13.618
 7773SOL    HW225217   0.151   2.371  13.533
 7774SOL     OW25218  11.383  11.104   6.684
 7774SOL    HW125219  11.393  11.178   6.624
 7774SOL    HW225220  11.396  11.026   6.629
 7775SOL     OW25221   3.256   6.579  11.789
 7775SOL    HW125222   3.286   6.567  11.699
 7775SOL    HW225223   3.161   6.580  11.783
 7776SOL     OW25224   8.424   3.280   2.217
 7776SOL    HW125225   8.333   3.254   2.227
 7776SOL    HW225226   8.455   3.292   2.307
 7777SOL     OW25227   8.041  14.618   1.065
 7777SOL    HW125228   7.960  14.567   1.074
 7777SOL    HW225229   8.043  14.643   0.973
 7778SOL     OW25230   9.436   3.886   4.373
 7778SOL    HW125231   9.493   3.848   4.440
 7778SOL    HW225232   9.398   3.963   4.415
 7779SOL     OW25233   3.734  10.344   3.104
 7779SOL    HW125234   3.741  10.266   3.050
 7779SOL    HW225235   3.802  10.334   3.170
 7780SOL     OW25236   8.600   6.818   9.578
 7780SOL    HW125237   8.534   6.875   9.619
 7780SOL    HW225238   8.549   6.747   9.538
 7781SOL     OW25239   2.014   3.484  12.613
 7781SOL    HW125240   2.018   3.516  12.523
 7781SOL    HW225241   1.999   3.562  12.666
 7782SOL     OW25242   5.548  12.112   8.091
 7782SOL    HW125243   5.481  12.050   8.060
 7782SOL    HW225244   5.555  12.094   8.185
 7783SOL     OW25245   0.869   3.106   6.895
 7783SOL    HW125246   0.910   3.029   6.854
 7783SOL    HW225247   0.920   3.121   6.975
 7784SOL     OW25248   9.706   0.659  13.041
 7784SOL    HW125249   9.613   0.674  13.058
 7784SOL    HW225250   9.751   0.697  13.117
 7785SOL     OW25251   4.001  11.175   6.892
 7785SOL    HW125252   4.040  11.233   6.827
 7785SOL    HW225253   3.940  11.121   6.842
 7786SOL     OW25254   9.256   5.591   7.302
 7786SOL    HW125255   9.170   5.606   7.263
 7786SOL    HW225256   9.287   5.510   7.261
 7787SOL     OW25257   8.518  14.369  11.145
 7787SOL    HW125258   8.450  14.385  11.080
 7787SOL    HW225259   8.557  14.286  11.120
 7788SOL     OW25260   3.405  12.947   0.515
 7788SOL    HW125261   3.378  12.900   0.437
 7788SOL    HW225262   3.488  12.988   0.491
 7789SOL     OW25263   8.394  12.060  11.783
 7789SOL    HW125264   8.358  12.046  11.696
 7789SOL    HW225265   8.481  12.098  11.767
 7790SOL     OW25266   3.403  14.830   7.908
 7790SOL    HW125267   3.427  14.848   7.999
 7790SOL    HW225268   3.378  14.737   7.907
 7791SOL     OW25269   0.750  13.435   9.541
 7791SOL    HW125270   0.807  13.407   9.612
 7791SOL    HW225271   0.730  13.527   9.561
 7792SOL     OW25272   0.495  14.228  13.855
 7792SOL    HW125273   0.449  14.233  13.771
 7792SOL    HW225274   0.496  14.318  13.887
 7793SOL     OW25275  13.277  10.967   7.547
 7793SOL    HW125276  13.199  10.928   7.509
 7793SOL    HW225277  13.346  10.902   7.535
 7794SOL     OW25278   1.114   9.860   5.577
 7794SOL    HW125279   1.150   9.949   5.580
 7794SOL    HW225280   1.041   9.867   5.516
 7795SOL     OW25281   0.910   0.868   0.736
 7795SOL    HW125282   0.977   0.907   0.679
 7795SOL    HW225283   0.850   0.940   0.755
 7796SOL     OW25284   3.792  13.096   1.569
 7796SOL    HW125285   3.845  13.033   1.619
 7796SOL    HW225286   3.754  13.044   1.498
 7797SOL     OW25287   7.690   5.746  12.794
 7797SOL    HW125288   7.678   5.664  12.843
 7797SOL    HW225289   7.614   5.751  12.736
 7798SOL     OW25290   7.332   9.154   1.439
 7798SOL    HW125291   7.379   9.233   1.412
 7798SOL    HW225292   7.350   9.090   1.370
 7799SOL     OW25293   1.723   4.712   8.562
 7799SOL    HW125294   1.658   4.670   8.618
 7799SOL    HW225295   1.794   4.737   8.622
 7800SOL     OW25296  10.836   6.078   4.230
 7800SOL    HW125297  10.825   5.995   4.275
 7800SOL    HW225298  10.916   6.115   4.268
 7801SOL     OW25299  12.350   0.726   5.951
 7801SOL    HW125300  12.424   0.776   5.985
 7801SOL    HW225301  12.389   0.658   5.897
 7802SOL     OW25302   7.129  11.540   1.232
 7802SOL    HW125303   7.127  11.607   1.163
 7802SOL    HW225304   7.222  11.534   1.256
 7803SOL     OW25305   9.642  13.361  11.740
 7803SOL    HW125306   9.659  13.403  11.656
 7803SOL    HW225307   9.631  13.269  11.719
 7804SOL     OW25308   9.840  12.302   5.425
 7804SOL    HW125309   9.829  12.256   5.342
 7804SOL    HW225310   9.795  12.248   5.489
 7805SOL     OW25311   2.723   8.614   2.997
 7805SOL    HW125312   2.756   8.567   3.073
 7805SOL    HW225313   2.757   8.566   2.922
 7806SOL     OW25314   7.601  12.530   8.866
 7806SOL    HW125315   7.571  12.596   8.804
 7806SOL    HW225316   7.673  12.572   8.913
 7807SOL     OW25317  11.101   3.972   7.699
 7807SOL    HW125318  11.099   4.065   7.674
 7807SOL    HW225319  11.064   3.970   7.787
 7808SOL     OW25320   0.166   2.469   2.127
 7808SOL    HW125321   0.108   2.512   2.064
 7808SOL    HW225322   0.163   2.376   2.102
 7809SOL     OW25323  13.476   0.003   8.659
 7809SOL    HW125324  13.383   0.024   8.656
 7809SOL    HW225325  13.481  14.791   8.640
 7810SOL     OW25326   9.038  13.597   1.403
 7810SOL    HW125327   9.073  13.521   1.358
 7810SOL    HW225328   9.081  13.595   1.489
 7811SOL     OW25329  10.870   0.187   5.571
 7811SOL    HW125330  10.852   0.146   5.486
 7811SOL    HW225331  10.790   0.173   5.622
 7812SOL     OW25332   6.371   0.657   1.202
 7812SOL    HW125333   6.343   0.589   1.141
 7812SOL    HW225334   6.303   0.724   1.197
 7813SOL     OW25335   4.964   2.887  10.500
 7813SOL    HW125336   5.028   2.817  10.508
 7813SOL    HW225337   5.016   2.963  10.473
 7814SOL     OW25338   0.800   4.539   6.273
 7814SOL    HW125339   0.707   4.560   6.280
 7814SOL    HW225340   0.837   4.565   6.357
 7815SOL     OW25341   0.849   2.232  14.820
 7815SOL    HW125342   0.821   2.194   0.021
 7815SOL    HW225343   0.778   2.212  14.759
 7816SOL     OW25344   6.558   3.341   1.890
 7816SOL    HW125345   6.623   3.364   1.823
 7816SOL    HW225346   6.598   3.368   1.973
 7817SOL     OW25347   8.896  11.983   0.785
 7817SOL    HW125348   8.874  11.894   0.757
 7817SOL    HW225349   8.943  11.970   0.868
 7818SOL     OW25350   4.343   3.751   7.686
 7818SOL    HW125351   4.271   3.813   7.697
 7818SOL    HW225352   4.302   3.671   7.653
 7819SOL     OW25353   3.535   8.423  11.914
 7819SOL    HW125354   3.557   8.432  11.821
 7819SOL    HW225355   3.508   8.511  11.941
 7820SOL     OW25356   5.375   7.350   5.673
 7820SOL    HW125357   5.441   7.413   5.702
 7820SOL    HW225358   5.310   7.348   5.744
 7821SOL     OW25359  12.696  14.078   3.824
 7821SOL    HW125360  12.618  14.132   3.834
 7821SOL    HW225361  12.752  14.103   3.898
 7822SOL     OW25362  12.512   1.300   4.924
 7822SOL    HW125363  12.556   1.238   4.982
 7822SOL    HW225364  12.419   1.292   4.945
 7823SOL     OW25365   0.826  10.566   8.875
 7823SOL    HW125366   0.914  10.548   8.908
 7823SOL    HW225367   0.767  10.528   8.940
 7824SOL     OW25368   2.578   0.646   3.044
 7824SOL    HW125369   2.515   0.574   3.043
 7824SOL    HW225370   2.633   0.631   2.967
 7825SOL     OW25371   6.832   8.350   8.400
 7825SOL    HW125372   6.803   8.367   8.489
 7825SOL    HW225373   6.789   8.268   8.376
 7826SOL     OW25374   6.234   6.839   4.686
 7826SOL    HW125375   6.171   6.821   4.616
 7826SOL    HW225376   6.317   6.804   4.653
 7827SOL     OW25377   1.709   2.076   6.586
 7827SOL    HW125378   1.618   2.051   6.601
 7827SOL    HW225379   1.724   2.150   6.645
 7828SOL     OW25380   0.101  13.496   4.546
 7828SOL    HW125381   0.080  13.588   4.566
 7828SOL    HW225382   0.080  13.487   4.453
 7829SOL     OW25383  12.137   6.353  10.931
 7829SOL    HW125384  12.133   6.442  10.967
 7829SOL    HW225385  12.140   6.365  10.836
 7830SOL     OW25386   7.322  10.941  11.857
 7830SOL    HW125387   7.277  10.860  11.833
 7830SOL    HW225388   7.263  11.011  11.828
 7831SOL     OW25389  12.673  10.362   4.911
 7831SOL    HW125390  12.614  10.437   4.909
 7831SOL    HW225391  12.740  10.386   4.976
 7832SOL     OW25392   5.213   7.505   3.773
 7832SOL    HW125393   5.165   7.500   3.690
 7832SOL    HW225394   5.148   7.531   3.837
 7833SOL     OW25395   5.101   5.213   7.956
 7833SOL    HW125396   5.047   5.285   7.989
 7833SOL    HW225397   5.170   5.204   8.022
 7834SOL     OW25398   2.046   7.376   9.159
 7834SOL    HW125399   1.996   7.319   9.100
 7834SOL    HW225400   2.072   7.450   9.104
 7835SOL     OW25401  12.901   2.137  10.694
 7835SOL    HW125402  12.929   2.218  10.653
 7835SOL    HW225403  12.903   2.072  10.623
 7836SOL     OW25404   1.068  10.394   6.150
 7836SOL    HW125405   0.980  10.419   6.122
 7836SOL    HW225406   1.120  10.473   6.138
 7837SOL     OW25407   7.200   6.701   1.634
 7837SOL    HW125408   7.235   6.790   1.638
 7837SOL    HW225409   7.267   6.652   1.586
 7838SOL     OW25410   3.568   1.422   7.252
 7838SOL    HW125411   3.663   1.419   7.260
 7838SOL    HW225412   3.553   1.457   7.164
 7839SOL     OW25413  13.664   1.260   2.047
 7839SOL    HW125414  13.749   1.270   2.006
 7839SOL    HW225415  13.678   1.287   2.138
 7840SOL     OW25416   6.209   1.724   0.755
 7840SOL    HW125417   6.231   1.797   0.813
 7840SOL    HW225418   6.195   1.765   0.669
 7841SOL     OW25419   3.094  14.850   5.349
 7841SOL    HW125420   3.185  14.852   5.321
 7841SOL    HW225421   3.078  14.758   5.373
 7842SOL     OW25422   1.736   5.643   9.095
 7842SOL    HW125423   1.692   5.674   9.174
 7842SOL    HW225424   1.734   5.548   9.101
 7843SOL     OW25425  11.712   4.978   4.548
 7843SOL    HW125426  11.651   5.026   4.491
 7843SOL    HW225427  11.776   4.939   4.489
 7844SOL     OW25428   3.934   0.004   0.364
 7844SOL    HW125429   3.874  14.868   0.436
 7844SOL    HW225430   3.898  14.837   0.290
 7845SOL     OW25431  12.424   1.302   1.776
 7845SOL    HW125432  12.470   1.247   1.712
 7845SOL    HW225433  12.441   1.260   1.860
 7846SOL     OW25434  14.226   8.651   9.870
 7846SOL    HW125435  14.313   8.629   9.838
 7846SOL    HW225436  14.197   8.723   9.814
 7847SOL     OW25437   8.921  12.259   6.862
 7847SOL    HW125438   9.006  12.299   6.877
 7847SOL    HW225439   8.916  12.247   6.767
 7848SOL     OW25440   2.841  11.832   5.829
 7848SOL    HW125441   2.792  11.844   5.910
 7848SOL    HW225442   2.787  11.876   5.762
 7849SOL     OW25443   3.317   0.273   8.380
 7849SOL    HW125444   3.356   0.194   8.417
 7849SOL    HW225445   3.223   0.264   8.396
 7850SOL     OW25446  10.116   2.090  11.549
 7850SOL    HW125447  10.098   2.036  11.472
 7850SOL    HW225448  10.032   2.092  11.596
 7851SOL     OW25449   1.435   8.538  14.829
 7851SOL    HW125450   1.421   8.444  14.835
 7851SOL    HW225451   1.505   8.549  14.764
 7852SOL     OW25452  13.712  13.361   9.752
 7852SOL    HW125453  13.782  13.375   9.689
 7852SOL    HW225454  13.757  13.355   9.837
 7853SOL     OW25455   9.517   7.494   2.119
 7853SOL    HW125456   9.477   7.535   2.043
 7853SOL    HW225457   9.526   7.565   2.182
 7854SOL     OW25458  10.890  10.631   4.721
 7854SOL    HW125459  10.802  10.667   4.734
 7854SOL    HW225460  10.931  10.640   4.807
 7855SOL     OW25461  12.139   0.077   8.332
 7855SOL    HW125462  12.144   0.055   8.239
 7855SOL    HW225463  12.173  14.882   8.377
 7856SOL     OW25464  12.381   7.969  13.772
 7856SOL    HW125465  12.315   7.934  13.711
 7856SOL    HW225466  12.422   7.892  13.811
 7857SOL     OW25467   6.437  14.791   9.694
 7857SOL    HW125468   6.391  14.729   9.751
 7857SOL    HW225469   6.526  14.795   9.730
 7858SOL     OW25470  12.605   8.317   1.303
 7858SOL    HW125471  12.601   8.412   1.292
 7858SOL    HW225472  12.589   8.302   1.396
 7859SOL     OW25473   0.538   4.462   7.701
 7859SOL    HW125474   0.566   4.379   7.740
 7859SOL    HW225475   0.528   4.443   7.608
 7860SOL     OW25476   2.606   5.090   2.394
 7860SOL    HW125477   2.620   5.156   2.327
 7860SOL    HW225478   2.565   5.137   2.466
 7861SOL     OW25479   7.159   5.725  10.627
 7861SOL    HW125480   7.151   5.700  10.534
 7861SOL    HW225481   7.248   5.699  10.651
 7862SOL     OW25482   5.005  11.500   2.445
 7862SOL    HW125483   4.937  11.439   2.473
 7862SOL    HW225484   5.043  11.459   2.367
 7863SOL     OW25485  10.437   1.640  14.261
 7863SOL    HW125486  10.527   1.622  14.234
 7863SOL    HW225487  10.430   1.735  14.258
 7864SOL     OW25488   4.763  11.849   9.969
 7864SOL    HW125489   4.780  11.922   9.909
 7864SOL    HW225490   4.713  11.786   9.917
 7865SOL     OW25491   4.489   8.669  10.029
 7865SOL    HW125492   4.507   8.761  10.049
 7865SOL    HW225493   4.512   8.659   9.937
 7866SOL     OW25494   4.670   5.485   8.360
 7866SOL    HW125495   4.692   5.539   8.284
 7866SOL    HW225496   4.594   5.529   8.399
 7867SOL     OW25497   0.053  12.962   1.417
 7867SOL    HW125498   0.011  13.046   1.400
 7867SOL    HW225499   0.025  12.938   1.506
 7868SOL     OW25500   6.904  12.841   8.753
 7868SOL    HW125501   6.813  12.869   8.746
 7868SOL    HW225502   6.899  12.745   8.756
 7869SOL     OW25503   5.013  11.101   1.363
 7869SOL    HW125504   5.095  11.140   1.393
 7869SOL    HW225505   4.954  11.107   1.438
 7870SOL     OW25506   9.240  10.456   1.916
 7870SOL    HW125507   9.151  10.489   1.926
 7870SOL    HW225508   9.230  10.361   1.917
 7871SOL     OW25509   0.067   1.337   3.258
 7871SOL    HW125510   0.030   1.272   3.198
 7871SOL    HW225511   0.022   1.419   3.235
 7872SOL     OW25512   4.969   6.472   8.137
 7872SOL    HW125513   5.045   6.439   8.090
 7872SOL    HW225514   4.953   6.559   8.101
 7873SOL     OW25515   4.711  11.159  12.650
 7873SOL    HW125516   4.646  11.221  12.616
 7873SOL    HW225517   4.676  11.133  12.735
 7874SOL     OW25518   0.013  13.751   4.609
 7874SOL    HW125519   0.075  13.797   4.552
 7874SOL    HW225520  14.809  13.770   4.571
 7875SOL     OW25521  10.706   5.935   1.192
 7875SOL    HW125522  10.756   6.016   1.202
 7875SOL    HW225523  10.638   5.956   1.128
 7876SOL     OW25524   7.694  11.457   0.965
 7876SOL    HW125525   7.760  11.459   1.034
 7876SOL    HW225526   7.686  11.365   0.941
 7877SOL     OW25527   8.738  12.100   5.972
 7877SOL    HW125528   8.815  12.079   5.919
 7877SOL    HW225529   8.728  12.025   6.031
 7878SOL     OW25530   5.609  14.163   9.061
 7878SOL    HW125531   5.664  14.154   9.138
 7878SOL    HW225532   5.558  14.242   9.077
 7879SOL     OW25533  10.857   9.377  10.859
 7879SOL    HW125534  10.767   9.408  10.866
 7879SOL    HW225535  10.899   9.438  10.798
 7880SOL     OW25536   8.568   7.282   0.259
 7880SOL    HW125537   8.565   7.269   0.165
 7880SOL    HW225538   8.512   7.358   0.275
 7881SOL     OW25539   2.995   6.588   9.368
 7881SOL    HW125540   2.965   6.679   9.359
 7881SOL    HW225541   2.938   6.551   9.434
 7882SOL     OW25542   7.709   6.002   9.650
 7882SOL    HW125543   7.791   6.010   9.601
 7882SOL    HW225544   7.711   5.912   9.684
 7883SOL     OW25545   9.167   8.520  11.106
 7883SOL    HW125546   9.201   8.581  11.171
 7883SOL    HW225547   9.074   8.539  11.102
 7884SOL     OW25548  14.185   7.722  10.336
 7884SOL    HW125549  14.172   7.769  10.418
 7884SOL    HW225550  14.277   7.737  10.313
 7885SOL     OW25551  12.318   9.905  14.788
 7885SOL    HW125552  12.345   9.890  14.698
 7885SOL    HW225553  12.378   9.852  14.840
 7886SOL     OW25554   6.227  14.705   6.932
 7886SOL    HW125555   6.193  14.723   7.019
 7886SOL    HW225556   6.274  14.623   6.941
 7887SOL     OW25557  10.590   2.764  10.323
 7887SOL    HW125558  10.541   2.844  10.303
 7887SOL    HW225559  10.681   2.793  10.330
 7888SOL     OW25560   5.692   2.463   4.997
 7888SOL    HW125561   5.654   2.549   5.014
 7888SOL    HW225562   5.754   2.450   5.069
 7889SOL     OW25563  13.329   7.361   0.900
 7889SOL    HW125564  13.419   7.393   0.896
 7889SOL    HW225565  13.321   7.323   0.987
 7890SOL     OW25566   3.008   3.701  11.519
 7890SOL    HW125567   3.000   3.722  11.612
 7890SOL    HW225568   2.986   3.782  11.474
 7891SOL     OW25569   5.512  13.782  10.229
 7891SOL    HW125570   5.447  13.724  10.190
 7891SOL    HW225571   5.596  13.739  10.212
 7892SOL     OW25572  14.851   1.639  13.232
 7892SOL    HW125573  14.768   1.613  13.190
 7892SOL    HW225574  14.880   1.560  13.278
 7893SOL     OW25575   5.863   7.134  10.178
 7893SOL    HW125576   5.848   7.194  10.251
 7893SOL    HW225577   5.952   7.152  10.149
 7894SOL     OW25578   5.753   6.106   2.051
 7894SOL    HW125579   5.838   6.121   2.008
 7894SOL    HW225580   5.770   6.037   2.115
 7895SOL     OW25581  13.141   2.276  11.855
 7895SOL    HW125582  13.134   2.180  11.849
 7895SOL    HW225583  13.234   2.293  11.841
 7896SOL     OW25584   2.402   1.016  10.535
 7896SOL    HW125585   2.410   1.103  10.574
 7896SOL    HW225586   2.319   1.018  10.488
 7897SOL     OW25587   5.966   9.085   9.899
 7897SOL    HW125588   6.038   9.099   9.961
 7897SOL    HW225589   5.897   9.046   9.952
 7898SOL     OW25590   8.910   0.793  11.866
 7898SOL    HW125591   8.892   0.875  11.821
 7898SOL    HW225592   8.828   0.771  11.910
 7899SOL     OW25593   8.841  11.246   1.777
 7899SOL    HW125594   8.755  11.232   1.736
 7899SOL    HW225595   8.834  11.201   1.862
 7900SOL     OW25596   4.248   4.823  12.691
 7900SOL    HW125597   4.335   4.798  12.660
 7900SOL    HW225598   4.229   4.905  12.644
 7901SOL     OW25599   6.364   5.900  11.642
 7901SOL    HW125600   6.424   5.966  11.676
 7901SOL    HW225601   6.366   5.912  11.548
 7902SOL     OW25602  11.842   1.759  11.779
 7902SOL    HW125603  11.897   1.837  11.774
 7902SOL    HW225604  11.904   1.686  11.777
 7903SOL     OW25605  14.349   3.931   6.343
 7903SOL    HW125606  14.359   3.964   6.432
 7903SOL    HW225607  14.377   4.003   6.287
 7904SOL     OW25608  10.713   3.724   9.834
 7904SOL    HW125609  10.651   3.727   9.906
 7904SOL    HW225610  10.677   3.657   9.774
 7905SOL     OW25611   3.351   9.685  10.942
 7905SOL    HW125612   3.407   9.718  10.872
 7905SOL    HW225613   3.364   9.590  10.940
 7906SOL     OW25614   4.142   4.109  13.332
 7906SOL    HW125615   4.192   4.133  13.410
 7906SOL    HW225616   4.116   4.193  13.294
 7907SOL     OW25617  12.824   8.750   7.419
 7907SOL    HW125618  12.829   8.843   7.398
 7907SOL    HW225619  12.842   8.706   7.336
 7908SOL     OW25620   3.121   6.264   5.470
 7908SOL    HW125621   3.112   6.352   5.432
 7908SOL    HW225622   3.105   6.277   5.563
 7909SOL     OW25623  11.028   8.583   2.096
 7909SOL    HW125624  10.990   8.670   2.098
 7909SOL    HW225625  10.962   8.526   2.135
 7910SOL     OW25626   6.128   4.230   0.012
 7910SOL    HW125627   6.218   4.213  14.865
 7910SOL    HW225628   6.105   4.314  14.854
 7911SOL     OW25629   3.881  13.377   8.412
 7911SOL    HW125630   3.910  13.332   8.491
 7911SOL    HW225631   3.959  13.380   8.356
 7912SOL     OW25632   8.392  11.262   5.224
 7912SOL    HW125633   8.361  11.187   5.275
 7912SOL    HW225634   8.331  11.269   5.151
 7913SOL     OW25635  12.147   2.715   7.552
 7913SOL    HW125636  12.226   2.707   7.498
 7913SOL    HW225637  12.110   2.627   7.555
 7914SOL     OW25638  11.779   0.769   1.431
 7914SOL    HW125639  11.785   0.857   1.394
 7914SOL    HW225640  11.703   0.729   1.388
 7915SOL     OW25641  10.629   8.158   4.111
 7915SOL    HW125642  10.646   8.085   4.052
 7915SOL    HW225643  10.608   8.231   4.053
 7916SOL     OW25644   7.123   8.451   8.921
 7916SOL    HW125645   7.064   8.518   8.956
 7916SOL    HW225646   7.205   8.465   8.968
 7917SOL     OW25647  13.970   4.882   4.665
 7917SOL    HW125648  13.980   4.911   4.574
 7917SOL    HW225649  14.037   4.931   4.713
 7918SOL     OW25650  12.372   3.753   5.674
 7918SOL    HW125651  12.359   3.848   5.683
 7918SOL    HW225652  12.316   3.715   5.743
 7919SOL     OW25653   8.835   2.383  13.888
 7919SOL    HW125654   8.922   2.408  13.918
 7919SOL    HW225655   8.780   2.387  13.966
 7920SOL     OW25656  14.706  12.595  14.106
 7920SOL    HW125657  14.708  12.659  14.035
 7920SOL    HW225658  14.785  12.541  14.092
 7921SOL     OW25659   1.025   2.944  13.904
 7921SOL    HW125660   0.970   2.892  13.845
 7921SOL    HW225661   1.015   2.902  13.989
 7922SOL     OW25662  12.879   4.638   7.383
 7922SOL    HW125663  12.921   4.564   7.426
 7922SOL    HW225664  12.796   4.650   7.430
 7923SOL     OW25665  13.812   8.534  14.179
 7923SOL    HW125666  13.870   8.472  14.225
 7923SOL    HW225667  13.724   8.512  14.209
 7924NA      NA25668  11.822   8.144   8.749
 7925NA      NA25669   9.545   9.301   6.965
 7926NA      NA25670   9.419   7.394   7.694
 7927NA      NA25671   2.172   6.778  13.909
 7928NA      NA25672   8.243   3.386   6.727
 7929NA      NA25673  13.586   8.291   6.692
 7930NA      NA25674  11.862   8.295  10.298
 7931NA      NA25675  10.336  10.216  14.151
 7932NA      NA25676   1.826  14.471   5.936
 7933NA      NA25677  10.184   8.146   6.602
 7934NA      NA25678   8.736   9.486   4.618
 7935NA      NA25679   2.306  10.066   7.739
 7936NA      NA25680  10.234   8.188   8.686
 7937NA      NA25681  12.421   6.422   9.856
 7938NA      NA25682   6.579   6.889   5.521
 7939NA      NA25683   8.171   9.400   8.749
 7940NA      NA25684   3.276   7.522   8.057
 7941NA      NA25685   6.594   3.688  14.665
 7942NA      NA25686  13.921   8.514   8.019
 7943NA      NA25687  10.512  12.478   7.948
 7944NA      NA25688   9.130  10.463   9.686
 7945NA      NA25689   9.511  11.210   7.331
 7946NA      NA25690  14.564   9.718   0.807
 7947NA      NA25691  13.303   6.285  13.824
 7948NA      NA25692   7.989   9.465   6.173
 7949NA      NA25693   7.859  10.252   4.569
 7950NA      NA25694  10.061   7.064   9.885
 7951NA      NA25695   8.222   9.525   3.730
 7952NA      NA25696   9.860  10.244   7.229
 7953NA      NA25697   7.740   8.775   4.167
 7954NA      NA25698   6.354  11.885   0.801
 7955NA      NA25699   7.311   5.913   5.363
 7956NA      NA25700  11.250  11.040   8.283
 7957NA      NA25701   7.930  10.746   5.386
 7958NA      NA25702   6.219   8.147   5.975
 7959NA      NA25703  13.504   8.618  11.160
 7960NA      NA25704   7.204   9.308   2.626
 7961NA      NA25705   7.093   3.093   0.525
 7962NA      NA25706   2.178   0.496   4.230
 7963NA      NA25707  10.969   9.113   8.232
 7964NA      NA25708   9.645  10.565   8.890
 7965NA      NA25709   9.212   7.383   6.235
 7966NA      NA25710   6.871  10.403   7.083
 7967NA      NA25711   8.915   9.366   3.944
 7968NA      NA25712   5.380   4.276  12.467
 7969NA      NA25713   3.917   6.535   7.180
 7970NA      NA25714  11.621   7.124   8.579
 7971NA      NA25715  12.267   9.050   8.287
 7972NA      NA25716   8.186   8.625   5.683
 7973NA      NA25717   9.124  10.147   5.036
 7974NA      NA25718   6.325  11.282   3.755
 7975NA      NA25719  12.828  12.377   6.151
 7976NA      NA25720   4.232   3.705  13.270
 7977NA      NA25721   8.183   5.718  12.645
 7978NA      NA25722  12.237  10.379   0.702
 7979NA      NA25723   9.174   0.831   2.681
 7980NA      NA25724   5.795  11.372   4.858
 7981NA      NA25725   7.132   8.994   5.868
 7982NA      NA25726   6.217  10.612   2.636
 7983NA      NA25727   1.615  14.464   6.934
 7984NA      NA25728  12.450   7.364   9.155
 7985NA      NA25729   8.290  10.501   7.197
 7986NA      NA25730   9.905   9.574   7.851
 7987NA      NA25731  11.217   7.996   9.659
  14.88205  14.88205  14.88205
